/*--------------------------------*- C++ -*----------------------------------*\
| =========                 |                                                 |
| \\      /  F ield         | OpenFOAM: The Open Source CFD Toolbox           |
|  \\    /   O peration     | Version:  v2012                                 |
|   \\  /    A nd           | Website:  www.openfoam.com                      |
|    \\/     M anipulation  |                                                 |
\*---------------------------------------------------------------------------*/
FoamFile
{
    version     2.0;
    format      ascii;
    class       volVectorField;
    location    "70";
    object      Usup;
}
// * * * * * * * * * * * * * * * * * * * * * * * * * * * * * * * * * * * * * //

dimensions      [0 1 -1 0 0 0 0];


internalField   nonuniform List<vector> 
4000
(
(-2.47791e-16 4.98593e-17 0)
(-9.30795e-17 1.10146e-16 0)
(3.60709e-16 2.91642e-16 0)
(4.46303e-16 4.73094e-16 0)
(6.16216e-17 4.66616e-16 0)
(-3.16365e-17 5.39186e-16 0)
(4.79737e-16 6.14403e-16 0)
(9.58403e-16 4.87865e-16 0)
(1.02187e-15 -1.81904e-18 0)
(6.09408e-16 -3.30937e-16 0)
(2.22667e-16 -4.51496e-16 0)
(1.07198e-16 -1.60829e-16 0)
(-1.98133e-16 -1.41641e-16 0)
(-9.10039e-16 -2.31452e-16 0)
(-1.39062e-15 1.95582e-16 0)
(-9.3547e-16 6.35881e-16 0)
(-6.20497e-16 1.36994e-16 0)
(-1.07202e-15 -1.42809e-17 0)
(-1.30635e-15 -1.7134e-16 0)
(-1.48812e-15 -2.05653e-16 0)
(-1.54642e-15 -3.90636e-16 0)
(-1.27356e-15 -8.69137e-16 0)
(-1.32237e-15 -1.15975e-15 0)
(-1.86104e-15 -9.75433e-16 0)
(-1.75342e-15 -8.64897e-16 0)
(-9.99212e-16 -4.23693e-16 0)
(-6.90927e-16 -3.8001e-16 0)
(-3.76109e-16 -2.1819e-16 0)
(-1.35292e-16 -4.31564e-16 0)
(-4.66311e-16 -2.71181e-16 0)
(-2.30989e-16 2.82172e-16 0)
(3.18813e-16 7.89396e-16 0)
(2.62718e-16 6.18676e-16 0)
(-1.1411e-16 3.73076e-16 0)
(8.80952e-17 5.97578e-16 0)
(5.00157e-16 5.55756e-16 0)
(5.01841e-16 4.47584e-16 0)
(8.15799e-16 7.90838e-16 0)
(1.36415e-15 9.74886e-16 0)
(2.5571e-15 1.26908e-15 0)
(4.43723e-15 1.26044e-15 0)
(5.38138e-15 1.02891e-15 0)
(5.34664e-15 8.77826e-16 0)
(5.26927e-15 6.62846e-16 0)
(5.28887e-15 6.6312e-16 0)
(5.5342e-15 7.4062e-16 0)
(6.25435e-15 6.03473e-16 0)
(6.73912e-15 6.28277e-16 0)
(6.7164e-15 8.83999e-16 0)
(7.07731e-15 1.07875e-15 0)
(7.82353e-15 1.25621e-15 0)
(8.233e-15 1.12627e-15 0)
(8.16259e-15 1.2728e-15 0)
(7.86512e-15 1.49507e-15 0)
(7.71039e-15 1.55996e-15 0)
(7.83814e-15 1.16343e-15 0)
(8.7771e-15 1.17093e-15 0)
(9.8202e-15 1.08018e-15 0)
(1.02391e-14 1.29507e-15 0)
(1.01574e-14 1.15276e-15 0)
(9.72454e-15 1.16261e-15 0)
(9.56323e-15 1.09266e-15 0)
(9.54299e-15 1.06918e-15 0)
(1.01116e-14 1.29276e-15 0)
(1.10066e-14 1.42832e-15 0)
(1.16393e-14 1.07985e-15 0)
(1.18937e-14 5.04606e-16 0)
(1.21986e-14 5.25108e-16 0)
(1.25164e-14 4.16551e-16 0)
(1.2e-14 6.02496e-16 0)
(1.17521e-14 8.68092e-16 0)
(1.21016e-14 9.01915e-16 0)
(1.25927e-14 1.09198e-15 0)
(1.34946e-14 7.40146e-16 0)
(1.41589e-14 1.6312e-16 0)
(1.42038e-14 -2.00493e-17 0)
(1.41463e-14 2.39947e-17 0)
(1.38972e-14 3.31591e-17 0)
(1.35037e-14 5.01316e-16 0)
(1.36664e-14 7.71174e-16 0)
(1.4549e-14 8.26231e-16 0)
(1.515e-14 2.88205e-16 0)
(1.48878e-14 6.16505e-17 0)
(1.47343e-14 1.12056e-16 0)
(1.52871e-14 1.80351e-16 0)
(1.55533e-14 5.23146e-17 0)
(1.50031e-14 -1.38043e-16 0)
(1.4742e-14 -1.63257e-16 0)
(1.47575e-14 1.00239e-16 0)
(1.44596e-14 8.33606e-17 0)
(1.37897e-14 -4.23793e-17 0)
(1.31689e-14 1.83271e-17 0)
(1.306e-14 8.14792e-18 0)
(1.2431e-14 -2.69793e-16 0)
(1.08649e-14 -2.21196e-16 0)
(9.30419e-15 -8.09192e-17 0)
(7.89843e-15 -3.20876e-16 0)
(6.1453e-15 -4.4702e-16 0)
(3.99142e-15 -2.57023e-16 0)
(1.85498e-15 3.81311e-17 0)
(-4.66504e-16 1.90296e-16 0)
(-1.44557e-16 7.42785e-16 0)
(8.19732e-16 1.00436e-15 0)
(9.10015e-16 1.31341e-15 0)
(2.32692e-16 1.32469e-15 0)
(2.32378e-16 1.56369e-15 0)
(1.12445e-15 1.48966e-15 0)
(1.69393e-15 1.23207e-15 0)
(1.67596e-15 1.80408e-16 0)
(1.11207e-15 -7.112e-16 0)
(6.75448e-16 -1.11017e-15 0)
(2.84449e-16 -7.7205e-16 0)
(-8.56824e-16 -6.90223e-16 0)
(-2.09567e-15 -2.22905e-16 0)
(-2.7238e-15 8.7851e-16 0)
(-2.73207e-15 1.35031e-15 0)
(-2.68762e-15 3.31976e-16 0)
(-3.28641e-15 -1.68339e-16 0)
(-3.77752e-15 -5.25446e-16 0)
(-4.22851e-15 -9.56536e-16 0)
(-4.68891e-15 -1.60458e-15 0)
(-4.33152e-15 -2.15009e-15 0)
(-3.96733e-15 -2.81474e-15 0)
(-4.56114e-15 -2.74556e-15 0)
(-4.05527e-15 -2.37906e-15 0)
(-2.56915e-15 -1.39365e-15 0)
(-1.89442e-15 -1.31687e-15 0)
(-1.27521e-15 -9.73233e-16 0)
(-7.03504e-16 -1.09784e-15 0)
(-5.15641e-16 -6.66232e-16 0)
(3.09671e-16 6.45767e-16 0)
(8.7699e-16 1.67003e-15 0)
(3.6745e-16 1.80302e-15 0)
(1.47028e-16 1.71877e-15 0)
(8.03404e-16 2.11802e-15 0)
(1.51351e-15 2.08465e-15 0)
(2.19117e-15 1.91632e-15 0)
(3.44096e-15 2.19279e-15 0)
(5.11326e-15 2.71904e-15 0)
(8.03121e-15 3.55239e-15 0)
(1.18744e-14 3.51162e-15 0)
(1.42361e-14 2.85597e-15 0)
(1.47343e-14 2.42706e-15 0)
(1.50159e-14 2.11559e-15 0)
(1.55528e-14 2.04355e-15 0)
(1.62601e-14 2.12255e-15 0)
(1.78778e-14 1.80185e-15 0)
(1.9419e-14 1.99649e-15 0)
(1.99332e-14 2.79264e-15 0)
(2.09063e-14 3.38954e-15 0)
(2.23467e-14 3.79401e-15 0)
(2.33531e-14 3.57644e-15 0)
(2.3667e-14 3.58759e-15 0)
(2.31842e-14 3.73004e-15 0)
(2.26015e-14 4.16936e-15 0)
(2.31394e-14 3.95499e-15 0)
(2.54901e-14 4.09472e-15 0)
(2.79843e-14 3.85103e-15 0)
(2.90782e-14 3.74719e-15 0)
(2.89537e-14 3.34572e-15 0)
(2.83137e-14 3.35575e-15 0)
(2.80538e-14 3.42031e-15 0)
(2.84722e-14 3.29711e-15 0)
(2.99805e-14 3.60863e-15 0)
(3.16236e-14 3.77461e-15 0)
(3.27083e-14 3.00266e-15 0)
(3.38528e-14 1.90093e-15 0)
(3.50201e-14 1.753e-15 0)
(3.58099e-14 1.33762e-15 0)
(3.53002e-14 1.46157e-15 0)
(3.4864e-14 2.34016e-15 0)
(3.56524e-14 2.63616e-15 0)
(3.66762e-14 2.89533e-15 0)
(3.81562e-14 1.99584e-15 0)
(3.98409e-14 1.06746e-15 0)
(4.06427e-14 4.41881e-16 0)
(4.07454e-14 4.82199e-16 0)
(4.06033e-14 6.93612e-16 0)
(4.01652e-14 1.3395e-15 0)
(4.03377e-14 1.93e-15 0)
(4.15487e-14 2.14255e-15 0)
(4.26353e-14 1.05247e-15 0)
(4.28008e-14 1.76242e-16 0)
(4.28649e-14 1.40246e-16 0)
(4.3726e-14 3.80991e-16 0)
(4.3955e-14 2.15025e-17 0)
(4.29561e-14 1.02664e-16 0)
(4.25651e-14 5.81004e-17 0)
(4.22409e-14 2.70433e-16 0)
(4.09911e-14 -1.06475e-17 0)
(3.93262e-14 -2.1642e-16 0)
(3.76935e-14 6.74185e-17 0)
(3.64252e-14 -3.073e-17 0)
(3.432e-14 -6.65948e-16 0)
(3.05887e-14 -9.66676e-16 0)
(2.60476e-14 -5.68934e-16 0)
(2.15653e-14 -6.24868e-16 0)
(1.6791e-14 -9.32965e-16 0)
(1.10722e-14 -6.78558e-16 0)
(4.48644e-15 -7.05525e-17 0)
(-3.98112e-16 5.3093e-16 0)
(-1.66021e-16 1.77595e-15 0)
(7.85931e-16 1.8204e-15 0)
(9.86627e-16 1.71131e-15 0)
(3.57156e-16 1.84661e-15 0)
(3.51809e-16 2.62948e-15 0)
(1.33513e-15 2.45011e-15 0)
(1.88199e-15 2.03741e-15 0)
(1.58287e-15 4.65015e-16 0)
(9.86353e-16 -8.55271e-16 0)
(6.46895e-16 -1.36687e-15 0)
(1.46054e-16 -1.17034e-15 0)
(-1.07201e-15 -1.09054e-15 0)
(-2.39371e-15 -1.94972e-16 0)
(-3.77338e-15 1.25423e-15 0)
(-4.69829e-15 1.41275e-15 0)
(-4.9589e-15 6.67262e-16 0)
(-5.55162e-15 5.61344e-18 0)
(-6.31541e-15 -7.79644e-16 0)
(-7.13637e-15 -1.92074e-15 0)
(-7.42357e-15 -2.86721e-15 0)
(-6.9656e-15 -3.14778e-15 0)
(-6.66677e-15 -3.74703e-15 0)
(-6.87181e-15 -3.96715e-15 0)
(-5.68419e-15 -3.40215e-15 0)
(-3.88604e-15 -2.81261e-15 0)
(-3.02128e-15 -2.35642e-15 0)
(-1.95909e-15 -1.53532e-15 0)
(-1.02294e-15 -9.31656e-16 0)
(-1.7936e-16 -3.68481e-16 0)
(1.11512e-15 9.79564e-16 0)
(1.70759e-15 1.82636e-15 0)
(1.13238e-15 2.67024e-15 0)
(9.38629e-16 2.95491e-15 0)
(1.79509e-15 3.59269e-15 0)
(2.80352e-15 3.72947e-15 0)
(3.94973e-15 3.85783e-15 0)
(6.24942e-15 3.96617e-15 0)
(9.44594e-15 4.57829e-15 0)
(1.35571e-14 5.52942e-15 0)
(1.83393e-14 5.61683e-15 0)
(2.1771e-14 4.63394e-15 0)
(2.32272e-14 3.80483e-15 0)
(2.4133e-14 3.74257e-15 0)
(2.51954e-14 3.45163e-15 0)
(2.63956e-14 3.44003e-15 0)
(2.88622e-14 3.35388e-15 0)
(3.16026e-14 3.66751e-15 0)
(3.28251e-14 4.39362e-15 0)
(3.41828e-14 5.30152e-15 0)
(3.5948e-14 6.24194e-15 0)
(3.72061e-14 6.13325e-15 0)
(3.77858e-14 5.89914e-15 0)
(3.78039e-14 5.99604e-15 0)
(3.76302e-14 6.49772e-15 0)
(3.84716e-14 6.93873e-15 0)
(4.14088e-14 7.25947e-15 0)
(4.44596e-14 6.50912e-15 0)
(4.60736e-14 5.8004e-15 0)
(4.64351e-14 5.30952e-15 0)
(4.61296e-14 5.36992e-15 0)
(4.59111e-14 5.79955e-15 0)
(4.66173e-14 5.89766e-15 0)
(4.88669e-14 5.96339e-15 0)
(5.09733e-14 5.50155e-15 0)
(5.24201e-14 4.4234e-15 0)
(5.43425e-14 3.67131e-15 0)
(5.61372e-14 3.16938e-15 0)
(5.73136e-14 2.52748e-15 0)
(5.75377e-14 2.52221e-15 0)
(5.74782e-14 3.82573e-15 0)
(5.82916e-14 4.33893e-15 0)
(5.93676e-14 4.29263e-15 0)
(6.13281e-14 3.39271e-15 0)
(6.37438e-14 2.37176e-15 0)
(6.51417e-14 1.41894e-15 0)
(6.58398e-14 1.45054e-15 0)
(6.58154e-14 1.53486e-15 0)
(6.54651e-14 1.99061e-15 0)
(6.58917e-14 2.62565e-15 0)
(6.69945e-14 2.87111e-15 0)
(6.79239e-14 2.05056e-15 0)
(6.85659e-14 8.8709e-16 0)
(6.93091e-14 4.41076e-16 0)
(7.02286e-14 3.52504e-16 0)
(7.05157e-14 -2.45758e-17 0)
(6.93254e-14 2.16968e-16 0)
(6.82614e-14 2.69539e-16 0)
(6.72708e-14 9.6434e-17 0)
(6.53005e-14 -9.6737e-17 0)
(6.30452e-14 -5.19915e-17 0)
(6.0329e-14 3.71212e-17 0)
(5.74609e-14 -1.55496e-16 0)
(5.3569e-14 -8.01288e-16 0)
(4.8121e-14 -1.38597e-15 0)
(4.14579e-14 -1.17581e-15 0)
(3.38887e-14 -8.87628e-16 0)
(2.59021e-14 -1.30706e-15 0)
(1.70197e-14 -1.01737e-15 0)
(6.65299e-15 -3.41118e-16 0)
(-2.93898e-16 8.82629e-16 0)
(-4.00962e-16 2.64078e-15 0)
(7.43523e-17 2.73489e-15 0)
(5.775e-16 2.60456e-15 0)
(6.9924e-16 2.67493e-15 0)
(7.37291e-16 3.72696e-15 0)
(1.27283e-15 3.64222e-15 0)
(1.27102e-15 2.84088e-15 0)
(6.43977e-16 8.70254e-16 0)
(4.69238e-16 -6.75671e-16 0)
(5.45023e-16 -1.30452e-15 0)
(-7.05284e-17 -1.05227e-15 0)
(-1.50156e-15 -6.66929e-16 0)
(-2.63918e-15 1.81765e-16 0)
(-4.45277e-15 1.10006e-15 0)
(-6.23961e-15 1.5583e-15 0)
(-6.92101e-15 1.35053e-15 0)
(-7.94209e-15 7.14134e-16 0)
(-9.19344e-15 -6.01433e-16 0)
(-1.0069e-14 -2.39707e-15 0)
(-1.00274e-14 -3.50629e-15 0)
(-9.37992e-15 -4.12519e-15 0)
(-8.99795e-15 -4.64321e-15 0)
(-8.77973e-15 -4.17315e-15 0)
(-7.30121e-15 -3.5175e-15 0)
(-5.08711e-15 -3.67842e-15 0)
(-3.42555e-15 -3.0217e-15 0)
(-1.95873e-15 -1.83417e-15 0)
(-9.95074e-16 -6.24e-16 0)
(1.33492e-16 1.70663e-16 0)
(1.72688e-15 1.21457e-15 0)
(2.57963e-15 1.86376e-15 0)
(2.09595e-15 3.06099e-15 0)
(2.07918e-15 3.85568e-15 0)
(3.27755e-15 4.82278e-15 0)
(4.54075e-15 5.29087e-15 0)
(6.28044e-15 5.84666e-15 0)
(9.37602e-15 6.1496e-15 0)
(1.37089e-14 6.55417e-15 0)
(1.88935e-14 7.46531e-15 0)
(2.42183e-14 7.72596e-15 0)
(2.82096e-14 6.36921e-15 0)
(3.0859e-14 5.3715e-15 0)
(3.25861e-14 5.3875e-15 0)
(3.41427e-14 5.2047e-15 0)
(3.61456e-14 4.91519e-15 0)
(3.93548e-14 5.44473e-15 0)
(4.27643e-14 5.72807e-15 0)
(4.48044e-14 6.36548e-15 0)
(4.71143e-14 7.55293e-15 0)
(4.90573e-14 8.57594e-15 0)
(5.01844e-14 8.36482e-15 0)
(5.12369e-14 8.17517e-15 0)
(5.16777e-14 8.41581e-15 0)
(5.1875e-14 8.58244e-15 0)
(5.32261e-14 9.38331e-15 0)
(5.61724e-14 9.83166e-15 0)
(5.94622e-14 8.88957e-15 0)
(6.18595e-14 7.98701e-15 0)
(6.28713e-14 7.58165e-15 0)
(6.31541e-14 7.63026e-15 0)
(6.32664e-14 7.99175e-15 0)
(6.40975e-14 8.20374e-15 0)
(6.63788e-14 8.00631e-15 0)
(6.86713e-14 6.96376e-15 0)
(7.0944e-14 6.12099e-15 0)
(7.36336e-14 5.47904e-15 0)
(7.57781e-14 4.68355e-15 0)
(7.75586e-14 4.09645e-15 0)
(7.87406e-14 4.06306e-15 0)
(7.90658e-14 5.17684e-15 0)
(7.96762e-14 5.78621e-15 0)
(8.08318e-14 5.39592e-15 0)
(8.2972e-14 4.5787e-15 0)
(8.5778e-14 3.37151e-15 0)
(8.80243e-14 2.57543e-15 0)
(8.91905e-14 2.34853e-15 0)
(8.9435e-14 2.08874e-15 0)
(8.9504e-14 2.81119e-15 0)
(9.00179e-14 3.40736e-15 0)
(9.10318e-14 3.31479e-15 0)
(9.18094e-14 2.87988e-15 0)
(9.25266e-14 1.90144e-15 0)
(9.35228e-14 1.13433e-15 0)
(9.46366e-14 4.20046e-16 0)
(9.49936e-14 8.03199e-17 0)
(9.36607e-14 -1.91806e-16 0)
(9.21008e-14 -7.81012e-17 0)
(9.05705e-14 -3.5498e-16 0)
(8.80682e-14 -2.88872e-16 0)
(8.47514e-14 -1.97624e-16 0)
(8.07902e-14 -2.07285e-16 0)
(7.65492e-14 -5.16391e-16 0)
(7.09742e-14 -1.07946e-15 0)
(6.37149e-14 -1.39786e-15 0)
(5.49895e-14 -1.60247e-15 0)
(4.46938e-14 -1.70037e-15 0)
(3.39072e-14 -1.64051e-15 0)
(2.22666e-14 -1.05189e-15 0)
(8.58274e-15 -4.28929e-16 0)
(-1.66003e-16 1.18532e-15 0)
(-6.43049e-16 3.23143e-15 0)
(-5.5517e-16 3.78964e-15 0)
(4.38632e-17 3.82292e-15 0)
(5.85425e-16 4.24179e-15 0)
(7.86596e-16 4.76789e-15 0)
(7.89449e-16 4.66343e-15 0)
(2.44429e-16 3.47088e-15 0)
(-5.59826e-16 1.6858e-15 0)
(-4.15645e-16 3.64496e-16 0)
(1.34139e-16 -1.93378e-16 0)
(-1.53388e-16 -2.59384e-16 0)
(-1.55559e-15 7.41377e-17 0)
(-3.13414e-15 5.65944e-16 0)
(-5.30261e-15 9.24496e-16 0)
(-7.32766e-15 1.91493e-15 0)
(-8.60906e-15 2.018e-15 0)
(-1.03132e-14 1.12411e-15 0)
(-1.22273e-14 -9.54876e-17 0)
(-1.31232e-14 -2.05183e-15 0)
(-1.26567e-14 -3.61084e-15 0)
(-1.17689e-14 -4.60105e-15 0)
(-1.06422e-14 -5.13113e-15 0)
(-9.88491e-15 -4.16434e-15 0)
(-8.81799e-15 -3.36373e-15 0)
(-6.43181e-15 -3.47029e-15 0)
(-3.92429e-15 -2.78195e-15 0)
(-1.8289e-15 -1.72952e-15 0)
(-6.32477e-16 -7.07768e-16 0)
(5.65694e-16 3.93664e-16 0)
(2.28649e-15 1.12809e-15 0)
(3.56396e-15 1.99004e-15 0)
(3.60626e-15 3.41126e-15 0)
(3.76119e-15 5.00586e-15 0)
(5.0722e-15 5.87807e-15 0)
(6.68563e-15 6.73837e-15 0)
(8.82343e-15 7.74506e-15 0)
(1.24394e-14 8.26499e-15 0)
(1.78932e-14 8.51746e-15 0)
(2.40633e-14 9.35498e-15 0)
(2.94489e-14 9.38125e-15 0)
(3.39129e-14 8.02733e-15 0)
(3.78703e-14 7.35272e-15 0)
(4.05611e-14 7.14843e-15 0)
(4.2484e-14 7.47291e-15 0)
(4.5336e-14 7.19869e-15 0)
(4.94233e-14 7.96089e-15 0)
(5.34051e-14 8.0151e-15 0)
(5.63736e-14 8.67412e-15 0)
(5.90989e-14 9.84809e-15 0)
(6.09e-14 1.02643e-14 0)
(6.21685e-14 1.03525e-14 0)
(6.37655e-14 1.03805e-14 0)
(6.46216e-14 1.03466e-14 0)
(6.55214e-14 1.05331e-14 0)
(6.74716e-14 1.15596e-14 0)
(7.02906e-14 1.2059e-14 0)
(7.35479e-14 1.14031e-14 0)
(7.6526e-14 1.05348e-14 0)
(7.82517e-14 1.0289e-14 0)
(7.89883e-14 1.028e-14 0)
(7.94096e-14 1.03699e-14 0)
(8.04296e-14 1.02664e-14 0)
(8.27652e-14 9.56238e-15 0)
(8.55836e-14 8.224e-15 0)
(8.84845e-14 7.73349e-15 0)
(9.14458e-14 7.1471e-15 0)
(9.41126e-14 6.39971e-15 0)
(9.64926e-14 6.1393e-15 0)
(9.84393e-14 6.06055e-15 0)
(9.93802e-14 6.67926e-15 0)
(9.98395e-14 6.9182e-15 0)
(1.00826e-13 6.16598e-15 0)
(1.03236e-13 5.51591e-15 0)
(1.06585e-13 4.40161e-15 0)
(1.09339e-13 3.73818e-15 0)
(1.10816e-13 3.10037e-15 0)
(1.11723e-13 2.81895e-15 0)
(1.12243e-13 3.63112e-15 0)
(1.12489e-13 4.22898e-15 0)
(1.13407e-13 3.94877e-15 0)
(1.14175e-13 3.2742e-15 0)
(1.14825e-13 2.37869e-15 0)
(1.15865e-13 1.62418e-15 0)
(1.17102e-13 6.88474e-16 0)
(1.17465e-13 1.77237e-16 0)
(1.16006e-13 -5.13996e-16 0)
(1.14082e-13 -6.38191e-16 0)
(1.11959e-13 -1.08233e-15 0)
(1.08832e-13 -9.77687e-16 0)
(1.0472e-13 -8.05022e-16 0)
(9.95672e-14 -6.73368e-16 0)
(9.37656e-14 -9.82369e-16 0)
(8.67404e-14 -1.64869e-15 0)
(7.77166e-14 -1.91294e-15 0)
(6.67675e-14 -2.27658e-15 0)
(5.44114e-14 -2.62599e-15 0)
(4.13918e-14 -1.83651e-15 0)
(2.68409e-14 -9.47739e-16 0)
(1.01252e-14 -3.17719e-16 0)
(-1.92149e-16 1.57284e-15 0)
(-9.62079e-16 3.35878e-15 0)
(-1.36302e-15 4.70406e-15 0)
(-4.73844e-16 5.30146e-15 0)
(3.98396e-16 5.95295e-15 0)
(3.99904e-16 6.07656e-15 0)
(-5.52835e-18 5.58297e-15 0)
(-1.01729e-15 4.15495e-15 0)
(-1.6932e-15 2.74999e-15 0)
(-1.12127e-15 1.86996e-15 0)
(-4.32802e-16 1.46643e-15 0)
(-8.03282e-16 1.05672e-15 0)
(-2.30057e-15 8.57969e-16 0)
(-3.90509e-15 8.71358e-16 0)
(-5.75656e-15 1.24917e-15 0)
(-8.017e-15 2.38064e-15 0)
(-1.03188e-14 2.46657e-15 0)
(-1.25563e-14 1.22122e-15 0)
(-1.48162e-14 -2.82223e-16 0)
(-1.61123e-14 -1.89174e-15 0)
(-1.54479e-14 -3.15561e-15 0)
(-1.40481e-14 -3.88891e-15 0)
(-1.21679e-14 -3.9483e-15 0)
(-1.08214e-14 -3.64393e-15 0)
(-9.82292e-15 -3.01438e-15 0)
(-7.22758e-15 -2.96268e-15 0)
(-4.17974e-15 -2.35632e-15 0)
(-1.92626e-15 -1.57605e-15 0)
(-4.12495e-16 -5.596e-16 0)
(9.95546e-16 6.28703e-16 0)
(2.92931e-15 1.41813e-15 0)
(4.8299e-15 2.58571e-15 0)
(5.42945e-15 3.59156e-15 0)
(5.59798e-15 5.38132e-15 0)
(6.97566e-15 6.59046e-15 0)
(9.22884e-15 7.90657e-15 0)
(1.18025e-14 9.27704e-15 0)
(1.56715e-14 1.02763e-14 0)
(2.18323e-14 1.07654e-14 0)
(2.86621e-14 1.11824e-14 0)
(3.42405e-14 1.07816e-14 0)
(3.94105e-14 9.77919e-15 0)
(4.43281e-14 9.37398e-15 0)
(4.8001e-14 9.5854e-15 0)
(5.06162e-14 1.01088e-14 0)
(5.40365e-14 1.01308e-14 0)
(5.85925e-14 1.03386e-14 0)
(6.3003e-14 1.0255e-14 0)
(6.68946e-14 1.05648e-14 0)
(7.00271e-14 1.1585e-14 0)
(7.21272e-14 1.20612e-14 0)
(7.3818e-14 1.28065e-14 0)
(7.55055e-14 1.27443e-14 0)
(7.67271e-14 1.24322e-14 0)
(7.84167e-14 1.2816e-14 0)
(8.08431e-14 1.37509e-14 0)
(8.35296e-14 1.41284e-14 0)
(8.6805e-14 1.34756e-14 0)
(9.037e-14 1.29999e-14 0)
(9.27086e-14 1.28942e-14 0)
(9.38258e-14 1.30483e-14 0)
(9.44748e-14 1.32117e-14 0)
(9.54492e-14 1.26247e-14 0)
(9.77113e-14 1.13166e-14 0)
(1.01155e-13 9.67032e-15 0)
(1.04967e-13 8.97401e-15 0)
(1.08364e-13 8.47033e-15 0)
(1.11524e-13 8.24208e-15 0)
(1.14448e-13 8.32258e-15 0)
(1.16836e-13 8.40999e-15 0)
(1.1798e-13 8.67407e-15 0)
(1.1828e-13 7.98585e-15 0)
(1.19592e-13 7.1375e-15 0)
(1.22311e-13 6.65022e-15 0)
(1.25865e-13 5.74357e-15 0)
(1.29044e-13 4.67188e-15 0)
(1.30905e-13 3.80793e-15 0)
(1.3252e-13 3.63839e-15 0)
(1.33525e-13 4.04779e-15 0)
(1.3359e-13 4.5297e-15 0)
(1.34071e-13 4.37983e-15 0)
(1.34731e-13 3.55868e-15 0)
(1.35571e-13 2.65758e-15 0)
(1.36573e-13 1.97431e-15 0)
(1.37755e-13 9.01158e-16 0)
(1.37959e-13 -1.00809e-16 0)
(1.36306e-13 -1.16897e-15 0)
(1.34068e-13 -1.32537e-15 0)
(1.31589e-13 -1.44641e-15 0)
(1.28118e-13 -1.47534e-15 0)
(1.23063e-13 -1.44609e-15 0)
(1.1664e-13 -1.36808e-15 0)
(1.09308e-13 -1.44035e-15 0)
(1.00755e-13 -2.07314e-15 0)
(9.0141e-14 -2.73891e-15 0)
(7.72422e-14 -2.97439e-15 0)
(6.31944e-14 -3.22899e-15 0)
(4.825e-14 -2.42597e-15 0)
(3.10111e-14 -1.31356e-15 0)
(1.13973e-14 -2.66551e-16 0)
(-5.91725e-16 1.7549e-15 0)
(-1.41809e-15 3.36511e-15 0)
(-1.49451e-15 5.36054e-15 0)
(-8.5251e-16 7.23124e-15 0)
(-2.17386e-16 7.77363e-15 0)
(-4.89999e-16 7.49558e-15 0)
(-1.32623e-15 6.60758e-15 0)
(-2.33968e-15 5.09479e-15 0)
(-2.68015e-15 4.04459e-15 0)
(-1.89039e-15 3.25987e-15 0)
(-1.21202e-15 2.92393e-15 0)
(-1.65567e-15 2.33807e-15 0)
(-3.10777e-15 1.7582e-15 0)
(-4.63275e-15 1.58814e-15 0)
(-6.30697e-15 1.87682e-15 0)
(-8.80926e-15 2.74065e-15 0)
(-1.20598e-14 2.60035e-15 0)
(-1.51373e-14 1.54659e-15 0)
(-1.74974e-14 -1.24784e-16 0)
(-1.83468e-14 -9.30594e-16 0)
(-1.72998e-14 -1.69134e-15 0)
(-1.55193e-14 -2.47803e-15 0)
(-1.35529e-14 -2.88274e-15 0)
(-1.21258e-14 -3.23148e-15 0)
(-1.0967e-14 -2.62294e-15 0)
(-8.21198e-15 -2.21295e-15 0)
(-4.71784e-15 -1.78789e-15 0)
(-1.8453e-15 -1.03323e-15 0)
(1.2797e-16 -9.9789e-17 0)
(1.63732e-15 7.08416e-16 0)
(3.8422e-15 1.85471e-15 0)
(5.80559e-15 3.28109e-15 0)
(6.86073e-15 4.23678e-15 0)
(7.77887e-15 5.78235e-15 0)
(9.46289e-15 7.44048e-15 0)
(1.20582e-14 9.12164e-15 0)
(1.4991e-14 1.03649e-14 0)
(1.91754e-14 1.18353e-14 0)
(2.56066e-14 1.30898e-14 0)
(3.26688e-14 1.33846e-14 0)
(3.8591e-14 1.22661e-14 0)
(4.45365e-14 1.16057e-14 0)
(5.07085e-14 1.11732e-14 0)
(5.52587e-14 1.20075e-14 0)
(5.81303e-14 1.28121e-14 0)
(6.18003e-14 1.29582e-14 0)
(6.68417e-14 1.27985e-14 0)
(7.19009e-14 1.27395e-14 0)
(7.66449e-14 1.31855e-14 0)
(8.04202e-14 1.36191e-14 0)
(8.28989e-14 1.39545e-14 0)
(8.45775e-14 1.47469e-14 0)
(8.61271e-14 1.49225e-14 0)
(8.80045e-14 1.47112e-14 0)
(9.05395e-14 1.50327e-14 0)
(9.32739e-14 1.57469e-14 0)
(9.57806e-14 1.62995e-14 0)
(9.92686e-14 1.61541e-14 0)
(1.03437e-13 1.56557e-14 0)
(1.06316e-13 1.53527e-14 0)
(1.07879e-13 1.55186e-14 0)
(1.08393e-13 1.53837e-14 0)
(1.09038e-13 1.46474e-14 0)
(1.11395e-13 1.31637e-14 0)
(1.15525e-13 1.17406e-14 0)
(1.20125e-13 1.08174e-14 0)
(1.24235e-13 1.00809e-14 0)
(1.28055e-13 1.01488e-14 0)
(1.31308e-13 1.03542e-14 0)
(1.33975e-13 1.02551e-14 0)
(1.34938e-13 9.94415e-15 0)
(1.35227e-13 9.14111e-15 0)
(1.3706e-13 8.33613e-15 0)
(1.40135e-13 7.23774e-15 0)
(1.43698e-13 6.6297e-15 0)
(1.47012e-13 5.38102e-15 0)
(1.49562e-13 4.70806e-15 0)
(1.51731e-13 4.92028e-15 0)
(1.53023e-13 5.05186e-15 0)
(1.53158e-13 4.97795e-15 0)
(1.53411e-13 4.48885e-15 0)
(1.53853e-13 3.63372e-15 0)
(1.54712e-13 2.61817e-15 0)
(1.55594e-13 1.87584e-15 0)
(1.56411e-13 8.37035e-16 0)
(1.56392e-13 -5.54913e-16 0)
(1.54936e-13 -1.69092e-15 0)
(1.52848e-13 -1.66866e-15 0)
(1.49706e-13 -1.60316e-15 0)
(1.4529e-13 -1.88965e-15 0)
(1.39547e-13 -2.07195e-15 0)
(1.32274e-13 -1.93318e-15 0)
(1.23527e-13 -2.11131e-15 0)
(1.13204e-13 -2.49581e-15 0)
(1.01137e-13 -3.18719e-15 0)
(8.66938e-14 -3.51933e-15 0)
(7.08713e-14 -3.55621e-15 0)
(5.4228e-14 -2.88182e-15 0)
(3.48958e-14 -1.78666e-15 0)
(1.261e-14 -6.229e-16 0)
(-9.89369e-16 1.82539e-15 0)
(-1.84643e-15 4.03507e-15 0)
(-1.2989e-15 6.24888e-15 0)
(-8.84933e-16 8.26608e-15 0)
(-1.11714e-15 8.99752e-15 0)
(-1.78325e-15 8.56302e-15 0)
(-2.79746e-15 7.95289e-15 0)
(-3.72885e-15 6.57156e-15 0)
(-3.78768e-15 5.48782e-15 0)
(-2.73e-15 4.81549e-15 0)
(-2.03947e-15 4.22563e-15 0)
(-2.81132e-15 3.70069e-15 0)
(-4.27275e-15 2.89558e-15 0)
(-5.52212e-15 2.79381e-15 0)
(-6.87688e-15 2.90683e-15 0)
(-9.67925e-15 3.03599e-15 0)
(-1.35858e-14 2.58842e-15 0)
(-1.71199e-14 1.87575e-15 0)
(-1.93385e-14 1.01775e-15 0)
(-2.00629e-14 2.68916e-16 0)
(-1.94273e-14 -7.31686e-16 0)
(-1.77466e-14 -1.86564e-15 0)
(-1.54592e-14 -2.48462e-15 0)
(-1.32061e-14 -2.64486e-15 0)
(-1.14003e-14 -2.05374e-15 0)
(-8.60842e-15 -1.13337e-15 0)
(-4.91762e-15 -5.3982e-16 0)
(-1.86792e-15 4.03859e-16 0)
(1.24747e-16 8.21566e-16 0)
(2.14402e-15 1.1176e-15 0)
(5.01111e-15 2.06244e-15 0)
(7.28169e-15 3.20702e-15 0)
(8.51893e-15 4.73171e-15 0)
(9.81589e-15 6.22404e-15 0)
(1.1998e-14 8.48459e-15 0)
(1.47692e-14 1.02968e-14 0)
(1.81467e-14 1.17036e-14 0)
(2.3129e-14 1.34019e-14 0)
(2.96675e-14 1.48273e-14 0)
(3.60921e-14 1.50455e-14 0)
(4.23337e-14 1.39921e-14 0)
(4.93199e-14 1.38297e-14 0)
(5.65482e-14 1.34782e-14 0)
(6.22422e-14 1.36465e-14 0)
(6.53899e-14 1.45165e-14 0)
(6.90952e-14 1.56143e-14 0)
(7.44645e-14 1.59238e-14 0)
(8.02533e-14 1.59978e-14 0)
(8.54051e-14 1.6255e-14 0)
(8.93175e-14 1.5816e-14 0)
(9.24991e-14 1.55278e-14 0)
(9.48363e-14 1.57542e-14 0)
(9.65e-14 1.66744e-14 0)
(9.85179e-14 1.72789e-14 0)
(1.01588e-13 1.74596e-14 0)
(1.04919e-13 1.77542e-14 0)
(1.0774e-13 1.8479e-14 0)
(1.11007e-13 1.89909e-14 0)
(1.1518e-13 1.83054e-14 0)
(1.18675e-13 1.76328e-14 0)
(1.20547e-13 1.78029e-14 0)
(1.21168e-13 1.71876e-14 0)
(1.21826e-13 1.64663e-14 0)
(1.24311e-13 1.50131e-14 0)
(1.28929e-13 1.35779e-14 0)
(1.34008e-13 1.23397e-14 0)
(1.3886e-13 1.15881e-14 0)
(1.43384e-13 1.16739e-14 0)
(1.468e-13 1.19869e-14 0)
(1.49388e-13 1.1873e-14 0)
(1.50588e-13 1.1012e-14 0)
(1.51122e-13 1.07269e-14 0)
(1.52831e-13 1.00141e-14 0)
(1.56303e-13 8.38966e-15 0)
(1.60303e-13 7.15793e-15 0)
(1.6391e-13 5.97506e-15 0)
(1.67234e-13 5.63949e-15 0)
(1.69759e-13 6.12855e-15 0)
(1.70829e-13 6.04279e-15 0)
(1.7069e-13 5.37481e-15 0)
(1.70813e-13 4.64534e-15 0)
(1.71233e-13 3.61722e-15 0)
(1.72198e-13 2.53953e-15 0)
(1.73096e-13 1.4062e-15 0)
(1.73562e-13 5.14515e-16 0)
(1.73275e-13 -1.09144e-15 0)
(1.72033e-13 -1.93669e-15 0)
(1.69826e-13 -1.96717e-15 0)
(1.66025e-13 -1.97287e-15 0)
(1.61013e-13 -2.30232e-15 0)
(1.54622e-13 -2.42799e-15 0)
(1.4624e-13 -2.35226e-15 0)
(1.36214e-13 -2.97817e-15 0)
(1.24592e-13 -3.32644e-15 0)
(1.10918e-13 -3.72834e-15 0)
(9.50012e-14 -4.20516e-15 0)
(7.78151e-14 -4.05923e-15 0)
(5.94774e-14 -3.25742e-15 0)
(3.80776e-14 -2.13017e-15 0)
(1.38367e-14 -9.54863e-16 0)
(-1.09708e-15 1.69782e-15 0)
(-2.01357e-15 4.8568e-15 0)
(-1.48441e-15 7.37463e-15 0)
(-1.32398e-15 8.80131e-15 0)
(-1.99671e-15 9.40894e-15 0)
(-2.85908e-15 9.33582e-15 0)
(-4.08727e-15 8.98125e-15 0)
(-5.24146e-15 8.13432e-15 0)
(-4.95617e-15 6.99913e-15 0)
(-3.80029e-15 6.33402e-15 0)
(-3.09913e-15 5.44515e-15 0)
(-3.85461e-15 5.03637e-15 0)
(-5.19283e-15 4.75531e-15 0)
(-6.25748e-15 4.67101e-15 0)
(-7.97019e-15 4.12615e-15 0)
(-1.10722e-14 3.17428e-15 0)
(-1.51056e-14 2.67271e-15 0)
(-1.86251e-14 2.50541e-15 0)
(-2.11227e-14 2.26418e-15 0)
(-2.21496e-14 8.30874e-16 0)
(-2.1411e-14 -8.47209e-16 0)
(-1.93212e-14 -1.86169e-15 0)
(-1.65508e-14 -1.81027e-15 0)
(-1.40802e-14 -1.70905e-15 0)
(-1.19026e-14 -1.11922e-15 0)
(-8.85569e-15 1.40943e-17 0)
(-5.00266e-15 9.41427e-16 0)
(-1.88168e-15 1.61477e-15 0)
(1.86496e-17 1.75083e-15 0)
(2.34213e-15 2.24916e-15 0)
(5.6253e-15 2.76318e-15 0)
(8.50389e-15 3.3048e-15 0)
(1.03476e-14 4.77763e-15 0)
(1.24002e-14 6.75488e-15 0)
(1.49939e-14 9.50824e-15 0)
(1.77349e-14 1.14042e-14 0)
(2.14681e-14 1.3199e-14 0)
(2.66642e-14 1.4716e-14 0)
(3.31076e-14 1.62044e-14 0)
(3.95187e-14 1.60634e-14 0)
(4.63547e-14 1.57016e-14 0)
(5.39804e-14 1.58054e-14 0)
(6.14968e-14 1.58711e-14 0)
(6.79769e-14 1.53612e-14 0)
(7.25053e-14 1.58568e-14 0)
(7.66937e-14 1.75928e-14 0)
(8.18794e-14 1.82826e-14 0)
(8.77659e-14 1.87405e-14 0)
(9.29655e-14 1.86056e-14 0)
(9.71383e-14 1.80571e-14 0)
(1.00867e-13 1.78562e-14 0)
(1.04154e-13 1.76643e-14 0)
(1.06667e-13 1.82949e-14 0)
(1.08666e-13 1.92439e-14 0)
(1.1164e-13 1.96797e-14 0)
(1.15458e-13 2.00161e-14 0)
(1.18821e-13 2.05377e-14 0)
(1.21964e-13 2.09915e-14 0)
(1.25929e-13 2.06105e-14 0)
(1.30072e-13 1.98398e-14 0)
(1.3229e-13 1.98903e-14 0)
(1.32762e-13 1.93123e-14 0)
(1.33427e-13 1.85799e-14 0)
(1.35924e-13 1.70036e-14 0)
(1.40896e-13 1.50473e-14 0)
(1.46682e-13 1.33345e-14 0)
(1.52422e-13 1.25934e-14 0)
(1.57644e-13 1.27092e-14 0)
(1.61332e-13 1.32553e-14 0)
(1.63689e-13 1.36725e-14 0)
(1.65069e-13 1.29273e-14 0)
(1.66013e-13 1.23831e-14 0)
(1.67408e-13 1.1481e-14 0)
(1.70631e-13 9.92778e-15 0)
(1.75007e-13 7.77518e-15 0)
(1.79405e-13 6.45654e-15 0)
(1.83542e-13 6.21026e-15 0)
(1.86191e-13 6.5602e-15 0)
(1.86882e-13 6.02764e-15 0)
(1.86752e-13 5.04471e-15 0)
(1.869e-13 4.41949e-15 0)
(1.87173e-13 3.65188e-15 0)
(1.87944e-13 2.84062e-15 0)
(1.88832e-13 1.19217e-15 0)
(1.89027e-13 -1.17727e-16 0)
(1.88601e-13 -1.87871e-15 0)
(1.87674e-13 -2.3604e-15 0)
(1.85367e-13 -2.61532e-15 0)
(1.80943e-13 -2.7635e-15 0)
(1.75134e-13 -2.80616e-15 0)
(1.68116e-13 -2.76861e-15 0)
(1.58613e-13 -3.11563e-15 0)
(1.47378e-13 -3.73677e-15 0)
(1.34708e-13 -4.20926e-15 0)
(1.19683e-13 -4.6734e-15 0)
(1.0243e-13 -4.94117e-15 0)
(8.40031e-14 -4.64286e-15 0)
(6.42308e-14 -3.55308e-15 0)
(4.10502e-14 -2.42677e-15 0)
(1.49667e-14 -8.39889e-16 0)
(-8.68841e-16 1.71954e-15 0)
(-1.71423e-15 5.25335e-15 0)
(-1.74675e-15 7.57795e-15 0)
(-2.12735e-15 9.12924e-15 0)
(-2.95643e-15 9.78207e-15 0)
(-3.92394e-15 9.76085e-15 0)
(-5.19537e-15 9.30997e-15 0)
(-6.48199e-15 9.15833e-15 0)
(-6.28086e-15 8.80649e-15 0)
(-5.00362e-15 8.30209e-15 0)
(-4.16277e-15 7.4731e-15 0)
(-4.58593e-15 6.89243e-15 0)
(-5.94758e-15 6.74002e-15 0)
(-7.54992e-15 6.44267e-15 0)
(-9.70344e-15 5.30446e-15 0)
(-1.26241e-14 3.7133e-15 0)
(-1.60869e-14 3.09004e-15 0)
(-1.95419e-14 3.15219e-15 0)
(-2.27772e-14 2.56399e-15 0)
(-2.46103e-14 1.03233e-15 0)
(-2.3678e-14 -8.12658e-16 0)
(-2.06901e-14 -1.47789e-15 0)
(-1.74951e-14 -1.44223e-15 0)
(-1.47026e-14 -1.23175e-15 0)
(-1.19364e-14 -4.03465e-16 0)
(-8.64e-15 1.03967e-15 0)
(-4.985e-15 2.14969e-15 0)
(-2.17835e-15 2.66089e-15 0)
(5.38698e-17 2.66013e-15 0)
(2.74693e-15 3.55316e-15 0)
(6.07218e-15 4.20679e-15 0)
(9.51014e-15 4.54637e-15 0)
(1.23099e-14 5.35808e-15 0)
(1.51121e-14 7.60083e-15 0)
(1.78689e-14 1.02834e-14 0)
(2.06528e-14 1.21911e-14 0)
(2.45593e-14 1.41253e-14 0)
(3.02136e-14 1.59596e-14 0)
(3.65089e-14 1.74627e-14 0)
(4.2603e-14 1.71893e-14 0)
(5.00743e-14 1.74091e-14 0)
(5.84094e-14 1.74487e-14 0)
(6.61808e-14 1.76364e-14 0)
(7.31366e-14 1.73061e-14 0)
(7.88356e-14 1.74894e-14 0)
(8.35456e-14 1.8665e-14 0)
(8.88044e-14 1.93204e-14 0)
(9.47857e-14 2.01529e-14 0)
(9.99662e-14 2.03276e-14 0)
(1.04568e-13 2.00467e-14 0)
(1.08717e-13 1.99821e-14 0)
(1.12339e-13 1.98577e-14 0)
(1.15489e-13 2.00947e-14 0)
(1.17994e-13 2.05758e-14 0)
(1.2124e-13 2.16023e-14 0)
(1.25267e-13 2.25086e-14 0)
(1.28811e-13 2.27426e-14 0)
(1.32046e-13 2.28151e-14 0)
(1.35933e-13 2.27881e-14 0)
(1.4034e-13 2.21348e-14 0)
(1.42936e-13 2.1324e-14 0)
(1.43562e-13 2.06689e-14 0)
(1.44079e-13 2.0117e-14 0)
(1.46272e-13 1.9326e-14 0)
(1.51409e-13 1.73759e-14 0)
(1.57995e-13 1.544e-14 0)
(1.64787e-13 1.43136e-14 0)
(1.70826e-13 1.38228e-14 0)
(1.75005e-13 1.42138e-14 0)
(1.77161e-13 1.48554e-14 0)
(1.78158e-13 1.43191e-14 0)
(1.79074e-13 1.33374e-14 0)
(1.80529e-13 1.18503e-14 0)
(1.83547e-13 1.04224e-14 0)
(1.88149e-13 8.32335e-15 0)
(1.93536e-13 6.96407e-15 0)
(1.98409e-13 6.72777e-15 0)
(2.00992e-13 6.56673e-15 0)
(2.01301e-13 5.9227e-15 0)
(2.01264e-13 5.09134e-15 0)
(2.0166e-13 4.26706e-15 0)
(2.01985e-13 3.69905e-15 0)
(2.02251e-13 2.64953e-15 0)
(2.02619e-13 7.45137e-16 0)
(2.02705e-13 -9.16016e-16 0)
(2.02578e-13 -2.36185e-15 0)
(2.01822e-13 -2.82607e-15 0)
(1.99049e-13 -3.37317e-15 0)
(1.94387e-13 -3.70296e-15 0)
(1.8827e-13 -3.48769e-15 0)
(1.80169e-13 -3.33314e-15 0)
(1.69555e-13 -3.67918e-15 0)
(1.57409e-13 -3.92736e-15 0)
(1.43576e-13 -4.65772e-15 0)
(1.27421e-13 -5.20945e-15 0)
(1.09132e-13 -5.38991e-15 0)
(8.97192e-14 -4.89187e-15 0)
(6.84964e-14 -3.58608e-15 0)
(4.3725e-14 -2.55136e-15 0)
(1.59317e-14 -7.26372e-16 0)
(-8.0984e-16 2.17299e-15 0)
(-1.96149e-15 5.56647e-15 0)
(-2.18478e-15 7.55647e-15 0)
(-2.63098e-15 9.18089e-15 0)
(-3.94527e-15 1.0039e-14 0)
(-5.20662e-15 1.01719e-14 0)
(-6.21221e-15 1.00194e-14 0)
(-7.06378e-15 1.00953e-14 0)
(-6.89232e-15 1.04577e-14 0)
(-6.01946e-15 1.03789e-14 0)
(-5.37402e-15 9.32378e-15 0)
(-5.68542e-15 8.74437e-15 0)
(-6.90671e-15 8.1026e-15 0)
(-8.80934e-15 7.3165e-15 0)
(-1.15936e-14 6.02334e-15 0)
(-1.4433e-14 4.91366e-15 0)
(-1.73552e-14 4.21764e-15 0)
(-2.09363e-14 3.63312e-15 0)
(-2.46705e-14 2.34469e-15 0)
(-2.66572e-14 7.99747e-16 0)
(-2.52822e-14 -5.34402e-16 0)
(-2.17698e-14 -6.55873e-16 0)
(-1.82712e-14 -7.14843e-16 0)
(-1.50858e-14 -3.15522e-16 0)
(-1.18211e-14 5.88127e-16 0)
(-8.33982e-15 1.93503e-15 0)
(-4.90365e-15 3.00658e-15 0)
(-2.29592e-15 3.69008e-15 0)
(2.19371e-16 4.12338e-15 0)