/*--------------------------------*- C++ -*----------------------------------*\
| =========                 |                                                 |
| \\      /  F ield         | OpenFOAM: The Open Source CFD Toolbox           |
|  \\    /   O peration     | Version:  v2012                                 |
|   \\  /    A nd           | Website:  www.openfoam.com                      |
|    \\/     M anipulation  |                                                 |
\*---------------------------------------------------------------------------*/
FoamFile
{
    version     2.0;
    format      ascii;
    class       volVectorField;
    location    "70";
    object      Usup;
}
// * * * * * * * * * * * * * * * * * * * * * * * * * * * * * * * * * * * * * //

dimensions      [0 1 -1 0 0 0 0];


internalField   nonuniform List<vector> 
4000
(
(0.0102941 0.00392758 0)
(0.0247078 0.00510936 0)
(0.033997 0.00871217 0)
(0.0389115 -0.00451935 0)
(0.0326218 -0.00499063 0)
(0.0430272 0.0086001 0)
(0.054186 -0.000157638 0)
(0.0386228 -0.0134197 0)
(0.0298116 -0.00653231 0)
(0.0305214 0.000284293 0)
(0.0251794 -0.00202436 0)
(0.0311944 0.00389603 0)
(0.0439863 -0.0030473 0)
(0.0241637 -0.0172898 0)
(-0.0178181 -0.0119502 0)
(-0.0354823 0.00217768 0)
(-0.0263093 0.00217531 0)
(-0.0293881 -0.00407905 0)
(-0.0362612 0.00131958 0)
(-0.035221 0.00784858 0)
(-0.0376054 0.0278298 0)
(-0.0332334 0.0378614 0)
(-0.018636 0.0238338 0)
(-0.00506445 0.0247937 0)
(-0.000102647 0.018135 0)
(-0.00987677 0.00971825 0)
(-0.0186381 0.0137124 0)
(-0.0165697 0.00602958 0)
(-0.00848284 0.0130315 0)
(0.0160718 0.0198988 0)
(0.0317245 0.0124128 0)
(0.0357518 0.00574935 0)
(0.0419787 0.00354066 0)
(0.0412254 0.00101953 0)
(0.0412847 -0.00447694 0)
(0.0498112 -0.00961706 0)
(0.0468072 -0.0263928 0)
(0.0276605 -0.0307596 0)
(0.0103321 -0.0309058 0)
(-0.00429594 -0.0309619 0)
(-0.0221967 -0.0323402 0)
(-0.0354414 -0.0313407 0)
(-0.035869 -0.0328658 0)
(-0.0349248 -0.0318885 0)
(-0.0241089 -0.0110176 0)
(-0.010024 -0.00954529 0)
(-0.012657 -0.00861674 0)
(-0.0186482 -0.00379185 0)
(-0.0211578 0.00531737 0)
(-0.0157302 0.00291262 0)
(-0.00958521 0.000833161 0)
(-0.00560955 0.00507469 0)
(-0.00693203 0.00622038 0)
(-0.00145778 0.0125235 0)
(0.00537475 0.0188522 0)
(0.00443118 0.0232403 0)
(0.00323222 0.0159283 0)
(-0.00127154 0.0136396 0)
(-7.58267e-05 0.0149935 0)
(0.00417373 0.0202514 0)
(0.0202806 0.0157761 0)
(0.0345086 0.00471008 0)
(0.0256152 0.00279423 0)
(0.00639617 0.00258148 0)
(-0.00166554 0.00556623 0)
(0.00441367 0.00768893 0)
(0.013056 0.00424818 0)
(0.00999441 -0.00348097 0)
(0.00522622 -0.00745265 0)
(0.00576895 -0.0139342 0)
(0.000107306 -0.0198252 0)
(-0.0121309 -0.0193016 0)
(-0.0124857 -0.0116076 0)
(-0.0127032 -0.00727529 0)
(-0.0201419 -0.00124948 0)
(-0.0196001 -0.00207962 0)
(-0.0134959 0.00764522 0)
(-0.0102338 0.00182112 0)
(-0.00533985 -0.000419896 0)
(0.00257517 -0.000839223 0)
(0.00351631 -0.00371439 0)
(-0.00491013 -0.00410756 0)
(-0.0119002 0.00489163 0)
(0.00678044 0.00970887 0)
(0.0199269 -0.00656242 0)
(0.00546684 -0.0147856 0)
(0.00423774 -0.00500903 0)
(0.0162916 -0.000609335 0)
(0.0233483 -0.00230414 0)
(0.0241798 0.0016698 0)
(0.012807 -0.00125701 0)
(-0.00530922 -0.00750124 0)
(-0.0224826 -0.00927777 0)
(-0.0340176 -0.000516858 0)
(-0.0328557 0.00657056 0)
(-0.0197105 0.00436862 0)
(-0.0113615 0.00980927 0)
(-0.00644785 0.00193697 0)
(-0.00303795 -0.00254374 0)
(0.00181358 -0.00270263 0)
(0.0207617 0.00988252 0)
(0.057078 0.0139476 0)
(0.0732179 0.0198672 0)
(0.0853904 -0.00386974 0)
(0.100743 -0.00381154 0)
(0.116296 0.0152647 0)
(0.11645 -0.00218644 0)
(0.100684 -0.0268606 0)
(0.0964761 -0.01474 0)
(0.0871136 -0.0072247 0)
(0.0764493 -0.0116752 0)
(0.0820323 0.000854133 0)
(0.0825607 -0.013713 0)
(0.0453188 -0.0352025 0)
(-0.021114 -0.0343868 0)
(-0.0688198 -0.00332152 0)
(-0.076873 0.00828089 0)
(-0.0816174 0.00105071 0)
(-0.0863383 0.00612683 0)
(-0.0756115 0.0205786 0)
(-0.0753271 0.0652141 0)
(-0.0880318 0.0959321 0)
(-0.0627632 0.0834885 0)
(-0.0272369 0.0715085 0)
(-0.0223002 0.0556398 0)
(-0.0305247 0.04187 0)
(-0.044739 0.0452164 0)
(-0.0356715 0.0317988 0)
(-0.00172178 0.0392333 0)
(0.0408245 0.0497502 0)
(0.0691781 0.0319534 0)
(0.0888598 0.0211743 0)
(0.107126 0.00690903 0)
(0.106446 -0.00797941 0)
(0.106236 -0.0158313 0)
(0.110772 -0.0269856 0)
(0.100417 -0.0647561 0)
(0.0696745 -0.0803358 0)
(0.0292386 -0.0933777 0)
(-0.0113468 -0.0984207 0)
(-0.0538417 -0.104856 0)
(-0.0856355 -0.0992409 0)
(-0.0911876 -0.0992281 0)
(-0.0719477 -0.0870394 0)
(-0.0491589 -0.0444565 0)
(-0.0362315 -0.0310573 0)
(-0.0358822 -0.0195524 0)
(-0.0400744 -0.00627371 0)
(-0.0489879 0.00766825 0)
(-0.0457625 0.0109346 0)
(-0.0268561 0.00679894 0)
(-0.0144754 0.0143567 0)
(-0.0115891 0.027758 0)
(0.00471947 0.0422427 0)
(0.0176541 0.0502053 0)
(0.00798582 0.0578421 0)
(0.00115588 0.0516021 0)
(0.000624657 0.0406435 0)
(0.0102448 0.0452443 0)
(0.0186845 0.0521506 0)
(0.040218 0.0511742 0)
(0.0693302 0.0331958 0)
(0.0604822 0.01553 0)
(0.0262169 0.0108249 0)
(0.00992208 0.0156376 0)
(0.0145001 0.0182226 0)
(0.0221439 0.00413626 0)
(0.0162802 -0.0180466 0)
(0.00705651 -0.0247485 0)
(0.0026872 -0.0383563 0)
(-0.00653748 -0.0539798 0)
(-0.021684 -0.0531246 0)
(-0.0238856 -0.035389 0)
(-0.028536 -0.0247968 0)
(-0.0461674 -0.00671041 0)
(-0.0425011 0.00196632 0)
(-0.0337928 0.0186792 0)
(-0.0332808 0.00049772 0)
(-0.0169197 -0.00242854 0)
(-0.0010166 -0.00215961 0)
(0.00165023 -0.00405118 0)
(-0.00393945 -0.00999656 0)
(-0.00933271 0.00894376 0)
(0.00740813 0.0150317 0)
(0.0233458 -0.01397 0)
(0.0207159 -0.0254287 0)
(0.0290169 -0.00966771 0)
(0.043367 -0.00693403 0)
(0.0571774 -0.00617959 0)
(0.0552216 -0.00751066 0)
(0.0210186 -0.00789356 0)
(-0.0197448 -0.0213613 0)
(-0.0486178 -0.0247579 0)
(-0.0682225 -0.00497303 0)
(-0.0749507 0.0149035 0)
(-0.0502008 0.025567 0)
(-0.0341048 0.0233649 0)
(-0.0275409 0.00577419 0)
(-0.0116215 -0.00198095 0)
(0.00544642 0.00141922 0)
(0.0245854 0.015275 0)
(0.0732906 0.0286623 0)
(0.0956968 0.0346489 0)
(0.117849 0.0212614 0)
(0.151833 0.0102509 0)
(0.168668 0.0110085 0)
(0.16126 -0.00223706 0)
(0.151559 -0.0231049 0)
(0.150689 -0.0222817 0)
(0.132298 -0.0262323 0)
(0.122476 -0.0212808 0)
(0.122303 -0.0188112 0)
(0.107646 -0.0371834 0)
(0.0539384 -0.0503676 0)
(-0.0219482 -0.051418 0)
(-0.0772227 -0.0169715 0)
(-0.106526 0.0126963 0)
(-0.126124 0.0068814 0)
(-0.129279 0.0163783 0)
(-0.101592 0.0385977 0)
(-0.0905927 0.0860176 0)
(-0.113997 0.129392 0)
(-0.102442 0.144205 0)
(-0.0641314 0.122102 0)
(-0.0479161 0.0955943 0)
(-0.0501317 0.0738529 0)
(-0.0647609 0.0765356 0)
(-0.0492426 0.0708296 0)
(0.00408433 0.0618955 0)
(0.0574394 0.0653564 0)
(0.0967172 0.0533006 0)
(0.126232 0.0414161 0)
(0.145977 0.0152061 0)
(0.155852 -0.00806242 0)
(0.161624 -0.0194635 0)
(0.152051 -0.0539842 0)
(0.130032 -0.0951516 0)
(0.0886181 -0.119681 0)
(0.0328732 -0.145273 0)
(-0.0219605 -0.164033 0)
(-0.0762523 -0.178178 0)
(-0.117052 -0.166774 0)
(-0.123657 -0.147298 0)
(-0.0893535 -0.116128 0)
(-0.0601906 -0.0761945 0)
(-0.0485607 -0.0604194 0)
(-0.0489279 -0.0394087 0)
(-0.0580439 -0.0140719 0)
(-0.0683147 0.00182967 0)
(-0.0661149 0.0175732 0)
(-0.0434858 0.0224936 0)
(-0.015655 0.037284 0)
(-0.00530777 0.0537003 0)
(0.00836697 0.0684925 0)
(0.0226481 0.0699388 0)
(0.0148048 0.0819094 0)
(-2.26915e-05 0.0914735 0)
(0.00149487 0.0774965 0)
(0.0218853 0.079498 0)
(0.0371515 0.0842556 0)
(0.0622698 0.0859302 0)
(0.0837031 0.0640421 0)
(0.0730246 0.0317701 0)
(0.0423266 0.020299 0)
(0.0234784 0.0261348 0)
(0.0186619 0.0194601 0)
(0.0168586 0.000152978 0)
(0.015035 -0.0301296 0)
(0.00737698 -0.043397 0)
(-0.00639765 -0.0611233 0)
(-0.0167999 -0.0808853 0)
(-0.0254468 -0.085477 0)
(-0.0281931 -0.0652692 0)
(-0.0348331 -0.0420359 0)
(-0.0533949 -0.00577657 0)
(-0.05323 0.0150935 0)
(-0.056957 0.0268489 0)
(-0.0574184 0.00797718 0)
(-0.0260058 -0.00123016 0)
(-0.00362873 -0.00103463 0)
(-0.00355868 0.00439023 0)
(-0.003586 0.000687436 0)
(-0.00267757 0.000646108 0)
(0.00582414 0.00114942 0)
(0.0252629 -0.0146547 0)
(0.0359235 -0.0150157 0)
(0.0467595 -0.012554 0)
(0.0635138 -0.0136138 0)
(0.0775249 -0.0123263 0)
(0.0726392 -0.0227291 0)
(0.0262943 -0.0272246 0)
(-0.0331163 -0.033512 0)
(-0.0636835 -0.0300461 0)
(-0.0823728 -0.00377069 0)
(-0.0885864 0.0282219 0)
(-0.0721966 0.0419599 0)
(-0.0644515 0.0258515 0)
(-0.0470793 0.0150154 0)
(-0.0146579 0.0139509 0)
(0.00452848 0.0113996 0)
(0.0269159 0.0247219 0)
(0.0814395 0.0517376 0)
(0.10958 0.0606958 0)
(0.132668 0.0513057 0)
(0.174091 0.0371148 0)
(0.203325 0.0190955 0)
(0.196582 -0.00667876 0)
(0.186208 -0.0138961 0)
(0.186086 -0.0284559 0)
(0.17326 -0.037724 0)
(0.16056 -0.0436813 0)
(0.143576 -0.0493126 0)
(0.120704 -0.0634849 0)
(0.0635727 -0.0784126 0)
(-0.0130473 -0.0768518 0)
(-0.0722496 -0.0433586 0)
(-0.126848 -0.00368548 0)
(-0.158553 0.00512317 0)
(-0.15168 0.0276869 0)
(-0.115793 0.0581742 0)
(-0.0972465 0.0990972 0)
(-0.122967 0.155223 0)
(-0.127424 0.186854 0)
(-0.104095 0.170009 0)
(-0.0881397 0.127881 0)
(-0.072797 0.0942314 0)
(-0.0726788 0.101872 0)
(-0.060528 0.110932 0)
(0.0027473 0.105791 0)
(0.07497 0.0823195 0)
(0.121153 0.0767417 0)
(0.15095 0.061767 0)
(0.174789 0.032362 0)
(0.191688 0.00800245 0)
(0.185265 -0.033451 0)
(0.165492 -0.0816313 0)
(0.147605 -0.119226 0)
(0.0992742 -0.157411 0)
(0.0280016 -0.199147 0)
(-0.0398425 -0.228652 0)
(-0.0934425 -0.229659 0)
(-0.125234 -0.211929 0)
(-0.127869 -0.173813 0)
(-0.0944472 -0.136253 0)
(-0.0745696 -0.104228 0)
(-0.0650948 -0.0819439 0)
(-0.0540809 -0.0673122 0)
(-0.0620384 -0.0357555 0)
(-0.0759121 -0.00413894 0)
(-0.0736197 0.0154081 0)
(-0.0458763 0.039903 0)
(-0.0160174 0.0553378 0)
(-0.00543573 0.071999 0)
(0.00917896 0.0958876 0)
(0.0288185 0.0964867 0)
(0.0298456 0.110675 0)
(0.00633155 0.126598 0)
(0.00233855 0.118033 0)
(0.0320166 0.114295 0)
(0.0517814 0.111648 0)
(0.0695231 0.107965 0)
(0.0837072 0.0866901 0)
(0.0772792 0.0571333 0)
(0.0567943 0.0362419 0)
(0.0338657 0.0307397 0)
(0.0183514 0.0107341 0)
(0.00967952 -0.00439151 0)
(0.00464789 -0.0285452 0)
(-0.00230667 -0.0545771 0)
(-0.0196553 -0.0822553 0)
(-0.0310469 -0.104793 0)
(-0.0304691 -0.112968 0)
(-0.0213521 -0.0902441 0)
(-0.0207277 -0.0523917 0)
(-0.045487 -0.000931657 0)
(-0.0594859 0.0241953 0)
(-0.0740621 0.0293373 0)
(-0.0808786 0.0228701 0)
(-0.0410708 0.0181745 0)
(-0.00547778 0.00994885 0)
(-0.00153794 0.0135855 0)
(-0.0112038 0.0191979 0)
(-0.0100312 0.00352685 0)
(0.00850913 -0.000902776 0)
(0.0349398 -0.00981717 0)
(0.0467114 -0.00563842 0)
(0.0574358 -0.0122773 0)
(0.0783104 -0.0208258 0)
(0.0888404 -0.0278139 0)
(0.0765186 -0.0340457 0)
(0.0269083 -0.0382426 0)
(-0.0341446 -0.0354818 0)
(-0.0643564 -0.0172642 0)
(-0.0792801 0.00586316 0)
(-0.097193 0.0353595 0)
(-0.097441 0.0432974 0)
(-0.0853493 0.0297317 0)
(-0.0537724 0.0281227 0)
(-0.0183228 0.0264161 0)
(-0.00326124 0.0123313 0)
(0.026461 0.0371501 0)
(0.0812105 0.0740736 0)
(0.108663 0.0874026 0)
(0.138784 0.0905182 0)
(0.184971 0.0676878 0)
(0.207862 0.0355056 0)
(0.216933 -0.0147636 0)
(0.215746 -0.0215981 0)
(0.20955 -0.0353799 0)
(0.192543 -0.0469249 0)
(0.179187 -0.0778403 0)
(0.165114 -0.0936679 0)
(0.129986 -0.0940443 0)
(0.0633843 -0.107232 0)
(-0.00758944 -0.108496 0)
(-0.0607172 -0.0887724 0)
(-0.125069 -0.0402816 0)
(-0.168866 0.0022886 0)
(-0.163615 0.0366597 0)
(-0.124969 0.0685211 0)
(-0.0926548 0.113827 0)
(-0.114733 0.17119 0)
(-0.144188 0.211685 0)
(-0.147108 0.202516 0)
(-0.133656 0.162196 0)
(-0.0934119 0.137695 0)
(-0.0700997 0.136752 0)
(-0.0521886 0.144139 0)
(-0.0044017 0.144508 0)
(0.0718438 0.105435 0)
(0.139409 0.0888341 0)
(0.168471 0.072136 0)
(0.193028 0.0550244 0)
(0.200092 0.017104 0)
(0.189426 -0.0533097 0)
(0.178254 -0.108941 0)
(0.150511 -0.141803 0)
(0.0840302 -0.18605 0)
(0.00773043 -0.232192 0)
(-0.0450597 -0.262368 0)
(-0.0902972 -0.256012 0)
(-0.121926 -0.237822 0)
(-0.124905 -0.202618 0)
(-0.0980541 -0.174395 0)
(-0.0768615 -0.144119 0)
(-0.0726942 -0.0983764 0)
(-0.063052 -0.0784961 0)
(-0.0578853 -0.0503719 0)
(-0.073993 -0.0137317 0)
(-0.0713781 0.0138999 0)
(-0.0444532 0.0539909 0)
(-0.0148492 0.0728295 0)
(0.00892996 0.0862667 0)
(0.018386 0.114062 0)
(0.0325124 0.12695 0)
(0.0409157 0.143405 0)
(0.0130023 0.151116 0)
(0.00378868 0.157184 0)
(0.0344427 0.146167 0)
(0.0583289 0.128235 0)
(0.0794503 0.123842 0)
(0.0875858 0.112693 0)
(0.0748639 0.0847513 0)
(0.0543081 0.0494105 0)
(0.0295172 0.0328521 0)
(0.014608 0.0102128 0)
(0.00802121 -0.0100226 0)
(-0.0055494 -0.0349598 0)
(-0.0216741 -0.0669701 0)
(-0.0402432 -0.0987828 0)
(-0.0455413 -0.112069 0)
(-0.0307425 -0.114001 0)
(-0.00734312 -0.092807 0)
(0.00156921 -0.06226 0)
(-0.0299055 -0.0102693 0)
(-0.0636411 0.0246261 0)
(-0.0867836 0.0264135 0)
(-0.0885892 0.0335846 0)
(-0.0515753 0.0395997 0)
(-0.0165886 0.0373725 0)
(-0.00208481 0.0325962 0)
(-0.0136819 0.0305837 0)
(-0.0157143 0.0192625 0)
(0.00604612 0.00726565 0)
(0.0391468 -0.000659371 0)
(0.0546599 -0.00111504 0)
(0.0590395 0.00193915 0)
(0.079038 -0.0152279 0)
(0.0951808 -0.0298249 0)
(0.0864152 -0.0403349 0)
(0.0333718 -0.0382552 0)
(-0.0274001 -0.0264502 0)
(-0.0601056 -0.00598048 0)
(-0.0817113 0.0134683 0)
(-0.10128 0.0339509 0)
(-0.110619 0.0473093 0)
(-0.0998764 0.0355044 0)
(-0.0622069 0.0324133 0)
(-0.0262267 0.0246432 0)
(-0.00825908 0.00987151 0)
(0.0222752 0.0465785 0)
(0.0733733 0.0927441 0)
(0.110125 0.105221 0)
(0.132988 0.119576 0)
(0.168549 0.100641 0)
(0.192541 0.0655932 0)
(0.213715 -0.00241699 0)
(0.233397 -0.032869 0)
(0.228927 -0.0457164 0)
(0.200196 -0.0704458 0)
(0.178899 -0.111309 0)
(0.176294 -0.140108 0)
(0.142716 -0.134768 0)
(0.0661457 -0.148616 0)
(-0.00841582 -0.14448 0)
(-0.0509562 -0.127056 0)
(-0.103609 -0.0873299 0)
(-0.15616 -0.0228402 0)
(-0.1637 0.0445266 0)
(-0.122135 0.0993125 0)
(-0.0829924 0.145799 0)
(-0.106238 0.170507 0)
(-0.150516 0.196595 0)
(-0.176748 0.20693 0)
(-0.163461 0.200584 0)
(-0.111916 0.193094 0)
(-0.0802956 0.175883 0)
(-0.0559452 0.174854 0)
(-0.0117069 0.159167 0)
(0.0657343 0.130778 0)
(0.145392 0.105914 0)
(0.188632 0.0841187 0)
(0.206516 0.0681036 0)
(0.189253 0.0197114 0)
(0.170193 -0.0591622 0)
(0.173269 -0.128846 0)
(0.152657 -0.175388 0)
(0.0773741 -0.205635 0)
(-0.00448112 -0.235268 0)
(-0.0555842 -0.259068 0)
(-0.0937741 -0.268082 0)
(-0.120212 -0.258504 0)
(-0.125404 -0.232707 0)
(-0.0997512 -0.210636 0)
(-0.0666209 -0.180385 0)
(-0.0623275 -0.121985 0)
(-0.0619185 -0.0815511 0)
(-0.0553609 -0.0514297 0)
(-0.0664913 -0.0251937 0)
(-0.0569646 0.0181135 0)
(-0.029799 0.0680783 0)
(-0.0132104 0.0967408 0)
(0.0103199 0.104853 0)
(0.0309357 0.122376 0)
(0.0481614 0.146086 0)
(0.0502542 0.170692 0)
(0.0232318 0.171618 0)
(0.00968203 0.183156 0)
(0.0269938 0.164152 0)
(0.0580594 0.146288 0)
(0.0871426 0.146098 0)
(0.0876382 0.132561 0)
(0.0624791 0.0988218 0)
(0.0461776 0.0531807 0)
(0.0281409 0.0333134 0)
(0.0067344 0.0146074 0)
(-0.00636504 -0.00570199 0)
(-0.0238185 -0.0372649 0)
(-0.0409719 -0.069395 0)
(-0.050868 -0.100816 0)
(-0.0476278 -0.11426 0)
(-0.0291791 -0.105542 0)
(-0.00242579 -0.0850147 0)
(0.0162689 -0.0659104 0)
(-0.00792914 -0.027038 0)
(-0.0588515 0.0193398 0)
(-0.0912631 0.0304099 0)
(-0.0906998 0.0410265 0)
(-0.052675 0.0471982 0)
(-0.0200015 0.0575951 0)
(-0.0118466 0.0537692 0)
(-0.0228777 0.0412613 0)
(-0.0247323 0.0320263 0)
(0.00209505 0.0236104 0)
(0.0422748 0.0216213 0)
(0.0654122 0.0083781 0)
(0.0662412 0.0174634 0)
(0.0757361 0.00492412 0)
(0.0902055 -0.014431 0)
(0.084946 -0.0327462 0)
(0.0420165 -0.0314318 0)
(-0.0179001 -0.0186495 0)
(-0.0542349 -0.00236556 0)
(-0.0769601 0.0172772 0)
(-0.101271 0.038306 0)
(-0.121577 0.0501311 0)
(-0.114247 0.0430016 0)
(-0.0702811 0.0342087 0)
(-0.0323532 0.018097 0)
(-0.0125262 0.0081501 0)
(0.0171275 0.0520039 0)
(0.0571201 0.111412 0)
(0.0958574 0.125611 0)
(0.130169 0.133022 0)
(0.161063 0.119998 0)
(0.163433 0.0761368 0)
(0.18612 0.0118435 0)
(0.230631 -0.0276229 0)
(0.22978 -0.0588761 0)
(0.190349 -0.102852 0)
(0.169574 -0.142042 0)
(0.182232 -0.168163 0)
(0.147288 -0.180836 0)
(0.0651856 -0.191166 0)
(0.000601336 -0.178231 0)
(-0.041868 -0.155577 0)
(-0.0840515 -0.121366 0)
(-0.116581 -0.0513857 0)
(-0.124148 0.0364076 0)
(-0.103055 0.103349 0)
(-0.0916079 0.136177 0)
(-0.124237 0.15523 0)
(-0.157445 0.181469 0)
(-0.176405 0.213209 0)
(-0.168385 0.229885 0)
(-0.128671 0.225587 0)
(-0.0923178 0.202155 0)
(-0.0629911 0.198994 0)
(-0.0227388 0.188262 0)
(0.0606952 0.168042 0)
(0.146482 0.131971 0)
(0.193141 0.102693 0)
(0.20597 0.0619049 0)
(0.170844 0.0076576 0)
(0.144487 -0.0622627 0)
(0.152642 -0.123163 0)
(0.144645 -0.192907 0)
(0.0769755 -0.225836 0)
(-0.0110222 -0.249216 0)
(-0.065895 -0.253315 0)
(-0.102621 -0.266018 0)
(-0.121652 -0.272828 0)
(-0.124288 -0.257243 0)
(-0.0987891 -0.232297 0)
(-0.0520934 -0.203352 0)
(-0.0396493 -0.14342 0)
(-0.0492677 -0.0883306 0)
(-0.0525306 -0.0550292 0)
(-0.0560917 -0.0238096 0)
(-0.0320706 0.0283687 0)
(-0.0110525 0.0740674 0)
(-0.00688032 0.105699 0)
(0.0142149 0.13329 0)
(0.0406396 0.153636 0)
(0.0651544 0.169153 0)
(0.0614033 0.177597 0)
(0.0280471 0.180391 0)
(0.00835042 0.186045 0)
(0.0219899 0.181183 0)
(0.0646537 0.169691 0)
(0.0933971 0.162049 0)
(0.079386 0.132861 0)
(0.042781 0.100998 0)
(0.0299848 0.0673869 0)
(0.0218758 0.0340905 0)
(0.00371821 0.00815971 0)
(-0.0152663 -0.0116254 0)
(-0.0411376 -0.036367 0)
(-0.0616822 -0.0587306 0)
(-0.0718574 -0.085064 0)
(-0.0535595 -0.101106 0)
(-0.0196591 -0.0961739 0)
(0.006349 -0.0826421 0)
(0.0250358 -0.0662456 0)
(0.0115263 -0.0389623 0)
(-0.0427914 0.00199581 0)
(-0.0904909 0.0315607 0)
(-0.0927779 0.0512213 0)
(-0.0520413 0.0676379 0)
(-0.0204009 0.0624041 0)
(-0.0190712 0.0613917 0)
(-0.0311771 0.0574143 0)
(-0.0263443 0.0439971 0)
(0.00511562 0.0377629 0)
(0.0386406 0.0430879 0)
(0.0651247 0.0236579 0)
(0.0718468 0.0231365 0)
(0.0715828 0.0168376 0)
(0.0820529 0.00192308 0)
(0.0841707 -0.0166995 0)
(0.0468386 -0.0171955 0)
(-0.0116398 -0.00898359 0)
(-0.0474526 0.00989151 0)
(-0.0710411 0.0151099 0)
(-0.0978535 0.0390154 0)
(-0.125413 0.0500737 0)
(-0.124336 0.0439386 0)
(-0.0857634 0.0267573 0)
(-0.0416934 0.012319 0)
(-0.0137165 0.00603437 0)
(0.0143646 0.0507139 0)
(0.0434425 0.120214 0)
(0.0764888 0.144671 0)
(0.106929 0.147477 0)
(0.126341 0.125438 0)
(0.128756 0.076304 0)
(0.16423 0.0352091 0)
(0.214659 -0.018436 0)
(0.209469 -0.0733761 0)
(0.174367 -0.131935 0)
(0.162911 -0.160256 0)
(0.173804 -0.184078 0)
(0.142992 -0.221795 0)
(0.073825 -0.228023 0)
(0.0107824 -0.215082 0)
(-0.0282814 -0.178219 0)
(-0.0563301 -0.133336 0)
(-0.0771276 -0.0713367 0)
(-0.0917863 0.00502487 0)
(-0.0926574 0.062262 0)
(-0.0879354 0.0989946 0)
(-0.112693 0.147469 0)
(-0.142369 0.189831 0)
(-0.169267 0.215155 0)
(-0.175692 0.223527 0)
(-0.146534 0.224892 0)
(-0.106187 0.215411 0)
(-0.0632959 0.216226 0)
(-0.0210537 0.225726 0)
(0.0489668 0.206441 0)
(0.132617 0.162342 0)
(0.181283 0.117405 0)
(0.187103 0.0614277 0)
(0.15159 -0.000796916 0)
(0.127374 -0.0481894 0)
(0.126658 -0.100981 0)
(0.118972 -0.19326 0)
(0.0668852 -0.248757 0)
(-0.00681042 -0.260291 0)
(-0.0637801 -0.263367 0)
(-0.116853 -0.27544 0)
(-0.13324 -0.277937 0)
(-0.122866 -0.257864 0)
(-0.0920648 -0.233336 0)
(-0.0352355 -0.19441 0)
(-0.0119222 -0.153474 0)
(-0.030234 -0.0946619 0)
(-0.039597 -0.0513865 0)
(-0.0343941 -0.0163746 0)
(-0.01089 0.0360244 0)
(0.00523102 0.0760523 0)
(0.0130312 0.113778 0)
(0.0330063 0.154778 0)
(0.0495108 0.175805 0)
(0.0625612 0.182448 0)
(0.0595412 0.170722 0)
(0.0344355 0.169398 0)
(0.0191522 0.175237 0)
(0.0278364 0.198648 0)
(0.0607712 0.193764 0)
(0.0801352 0.161682 0)
(0.0647137 0.119696 0)
(0.0363464 0.0950243 0)
(0.017497 0.0804262 0)
(0.00283096 0.0361284 0)
(-0.0111795 0.00628751 0)
(-0.0262069 -0.0225241 0)
(-0.0488752 -0.0349563 0)
(-0.0711544 -0.0563023 0)
(-0.0809144 -0.0759855 0)
(-0.059514 -0.0807249 0)
(-0.0240283 -0.0819277 0)
(0.00709297 -0.0851388 0)
(0.0328746 -0.0765499 0)
(0.0250198 -0.050567 0)
(-0.0244553 -0.00964493 0)
(-0.0713333 0.030785 0)
(-0.0781337 0.0640058 0)
(-0.0554252 0.0869048 0)
(-0.0323254 0.0753411 0)
(-0.020043 0.0715432 0)
(-0.0370232 0.0632669 0)
(-0.0372073 0.0547362 0)
(0.00684816 0.0497249 0)
(0.0404142 0.0461436 0)
(0.0615386 0.032839 0)
(0.0733734 0.0243932 0)
(0.0724719 0.0214373 0)
(0.0764238 0.00747973 0)
(0.0783098 -0.00136027 0)
(0.0498376 -0.0103333 0)
(-0.00202337 0.00205077 0)
(-0.046265 0.0232832 0)
(-0.0691246 0.0222873 0)
(-0.0902137 0.0431884 0)
(-0.130801 0.0438223 0)
(-0.140037 0.0323408 0)
(-0.0962698 0.0169261 0)
(-0.0434009 0.0124549 0)
(-0.0148657 0.00203277 0)
(0.0114342 0.0555753 0)
(0.0304387 0.124134 0)
(0.0531364 0.15413 0)
(0.0806793 0.159056 0)
(0.095121 0.141515 0)
(0.0999539 0.101545 0)
(0.130988 0.0659746 0)
(0.172675 -0.00764594 0)
(0.171876 -0.0784595 0)
(0.152567 -0.141705 0)
(0.155161 -0.168189 0)
(0.156226 -0.203853 0)
(0.127196 -0.246548 0)
(0.0734173 -0.255323 0)
(0.0306401 -0.248365 0)
(0.0020729 -0.195403 0)
(-0.0298888 -0.141324 0)
(-0.0456199 -0.0979272 0)
(-0.0608289 -0.048305 0)
(-0.0706876 0.0234565 0)
(-0.0652065 0.0818761 0)
(-0.0911517 0.137615 0)
(-0.137195 0.170747 0)
(-0.175859 0.190023 0)
(-0.179501 0.21257 0)
(-0.146417 0.221611 0)
(-0.103265 0.21243 0)
(-0.051888 0.231344 0)
(-0.0175355 0.248614 0)
(0.035634 0.232681 0)
(0.111139 0.193329 0)
(0.156219 0.13561 0)
(0.161384 0.0697316 0)
(0.135048 0.00790753 0)
(0.115254 -0.033648 0)
(0.0870416 -0.0938856 0)
(0.0707748 -0.187263 0)
(0.053704 -0.255563 0)
(-0.00617823 -0.274763 0)
(-0.0724525 -0.283315 0)
(-0.119212 -0.279082 0)
(-0.123552 -0.263599 0)
(-0.113116 -0.240588 0)
(-0.0782346 -0.202695 0)
(-0.0218671 -0.165181 0)
(0.00441273 -0.145786 0)
(-0.00313842 -0.100153 0)
(-0.0226793 -0.0502809 0)
(-0.0175067 -0.0121147 0)
(0.0129849 0.0341787 0)
(0.0266246 0.0761663 0)
(0.0353558 0.119931 0)
(0.0482547 0.157657 0)
(0.0535642 0.166688 0)
(0.0580482 0.179334 0)
(0.0522938 0.171497 0)
(0.0355132 0.164675 0)
(0.0375398 0.161797 0)
(0.0467305 0.187162 0)
(0.0517738 0.186523 0)
(0.0558022 0.148391 0)
(0.0487435 0.115308 0)
(0.0324756 0.0869997 0)
(0.0042928 0.0649945 0)
(-0.0167362 0.0254867 0)
(-0.0256603 0.0084624 0)
(-0.0343682 -0.0231015 0)
(-0.0577143 -0.0416879 0)
(-0.0870207 -0.064017 0)
(-0.0887919 -0.0817397 0)
(-0.0608829 -0.086295 0)
(-0.0296843 -0.0791684 0)
(0.000218123 -0.0843213 0)
(0.0378901 -0.0750645 0)
(0.0467139 -0.0565281 0)
(0.00273114 -0.0129753 0)
(-0.0498127 0.0303225 0)
(-0.0632719 0.0741519 0)
(-0.0531395 0.09748 0)
(-0.0384928 0.0958248 0)
(-0.0320101 0.0872286 0)
(-0.0448226 0.0592103 0)
(-0.0347638 0.0584208 0)
(0.00311457 0.0611229 0)
(0.0329868 0.0480963 0)
(0.057709 0.0326354 0)
(0.0730404 0.0165249 0)
(0.0687061 0.0103796 0)
(0.0735572 0.00272693 0)
(0.0766432 0.011236 0)
(0.0510348 -0.000863562 0)
(0.0103495 0.0138423 0)
(-0.0393131 0.0243989 0)
(-0.0658197 0.0323066 0)
(-0.092149 0.0427061 0)
(-0.142121 0.0357811 0)
(-0.149576 0.0292524 0)
(-0.101171 0.0199409 0)
(-0.0479787 0.0152235 0)
(-0.0146631 -0.000324171 0)
(0.00275324 0.0620492 0)
(0.00983885 0.131822 0)
(0.0291761 0.170288 0)
(0.051964 0.180153 0)
(0.0600635 0.160134 0)
(0.0658036 0.122261 0)
(0.0885234 0.0907716 0)
(0.120967 0.0134626 0)
(0.127827 -0.0777694 0)
(0.126744 -0.142166 0)
(0.134394 -0.177097 0)
(0.129905 -0.217425 0)
(0.113427 -0.253517 0)
(0.0738334 -0.271793 0)
(0.048493 -0.250987 0)
(0.0365173 -0.2209 0)
(-0.00521121 -0.167754 0)
(-0.0344924 -0.123456 0)
(-0.031758 -0.0849606 0)
(-0.0277442 -0.021896 0)
(-0.0345216 0.0462252 0)
(-0.075886 0.108169 0)
(-0.128978 0.146311 0)
(-0.159216 0.177885 0)
(-0.167975 0.206448 0)
(-0.156346 0.224007 0)
(-0.10232 0.228938 0)
(-0.0329407 0.239324 0)
(-0.00882819 0.246013 0)
(0.0270922 0.249791 0)
(0.0869899 0.213691 0)
(0.121932 0.15125 0)
(0.128785 0.0760984 0)
(0.113094 0.00524414 0)
(0.0896338 -0.0389405 0)
(0.0479754 -0.109133 0)
(0.0292071 -0.180639 0)
(0.0245633 -0.24435 0)
(-0.0136044 -0.277574 0)
(-0.0622448 -0.281021 0)
(-0.106199 -0.26769 0)
(-0.116258 -0.244063 0)
(-0.0953176 -0.215026 0)
(-0.0580106 -0.166254 0)
(-0.0172831 -0.143418 0)
(0.0108862 -0.119243 0)
(0.0149572 -0.0898807 0)
(0.000957107 -0.0502883 0)
(0.00515078 -0.00976325 0)
(0.0337676 0.0321733 0)
(0.0508926 0.0686584 0)
(0.0588279 0.108782 0)
(0.0567789 0.151789 0)
(0.058457 0.155873 0)
(0.0626873 0.160604 0)
(0.0488176 0.156731 0)
(0.0306734 0.16016 0)
(0.0422188 0.158288 0)
(0.0555232 0.16351 0)
(0.0444189 0.166412 0)
(0.0420084 0.136341 0)
(0.0350568 0.107492 0)
(0.0151054 0.07217 0)
(-0.0126108 0.0405367 0)
(-0.0249323 0.0123962 0)
(-0.0349083 -0.0118341 0)
(-0.0532923 -0.0374518 0)
(-0.0717658 -0.0651367 0)
(-0.0963628 -0.100003 0)
(-0.0962677 -0.0951468 0)
(-0.0598954 -0.0867044 0)
(-0.0279906 -0.0809955 0)
(0.00198283 -0.0786754 0)
(0.0431292 -0.0629021 0)
(0.0592651 -0.0465531 0)
(0.0276769 -0.00722607 0)
(-0.018443 0.0406951 0)
(-0.0386368 0.0798215 0)
(-0.0475496 0.0970879 0)
(-0.0457786 0.0998647 0)
(-0.0505792 0.0876186 0)
(-0.0594523 0.0721528 0)
(-0.0346745 0.0674285 0)
(0.00265011 0.0529387 0)
(0.0248226 0.0349392 0)
(0.0451235 0.0199992 0)
(0.0645664 0.00228528 0)
(0.0698017 -0.00988213 0)
(0.0834697 -0.00685418 0)
(0.08003 0.00649253 0)
(0.053272 0.0100167 0)
(0.0149158 0.0250488 0)
(-0.0371453 0.0226151 0)
(-0.0619727 0.0387937 0)
(-0.09441 0.0373481 0)
(-0.146321 0.0335438 0)
(-0.154728 0.0302117 0)
(-0.105836 0.0253398 0)
(-0.0529374 0.0156823 0)
(-0.015863 0.00431827 0)
(-0.00357314 0.060271 0)
(-0.00385936 0.13779 0)
(0.0085858 0.183815 0)
(0.0202116 0.198197 0)
(0.0209489 0.179565 0)
(0.0337555 0.145554 0)
(0.0478179 0.106698 0)
(0.0537789 0.0283571 0)
(0.0673778 -0.0623453 0)
(0.091546 -0.120324 0)
(0.111496 -0.169918 0)
(0.1093 -0.223764 0)
(0.0923736 -0.253939 0)
(0.0750824 -0.267871 0)
(0.061878 -0.255082 0)
(0.0511346 -0.251644 0)
(0.0243044 -0.200714 0)
(-0.0064296 -0.140045 0)
(-0.0106985 -0.0918069 0)
(-0.000121223 -0.0490918 0)
(0.00471027 0.00491382 0)
(-0.0416892 0.0537878 0)
(-0.107264 0.10889 0)
(-0.149213 0.154176 0)
(-0.158658 0.195492 0)
(-0.137849 0.227193 0)
(-0.0943396 0.253486 0)
(-0.0355934 0.250677 0)
(0.0002291 0.244989 0)
(0.0281812 0.250821 0)
(0.0607051 0.208855 0)
(0.0817644 0.149165 0)
(0.0840073 0.0835716 0)
(0.0819645 0.0112733 0)
(0.0622527 -0.0416685 0)
(0.0115765 -0.121709 0)
(-0.0041531 -0.173554 0)
(0.00115352 -0.216403 0)
(-0.0212345 -0.25073 0)
(-0.0605266 -0.255977 0)
(-0.0944234 -0.251855 0)
(-0.0934953 -0.223962 0)
(-0.0696943 -0.175032 0)
(-0.0431577 -0.126672 0)
(-0.00733545 -0.110126 0)
(0.0224628 -0.0818 0)
(0.0259589 -0.0609335 0)
(0.0151713 -0.0353992 0)
(0.0233338 -0.00417598 0)
(0.0527433 0.0300654 0)
(0.0674484 0.0593287 0)
(0.083756 0.0943597 0)
(0.0731837 0.128498 0)
(0.0534989 0.137712 0)
(0.0552951 0.135956 0)
(0.0516756 0.131106 0)
(0.0393367 0.146221 0)
(0.0454905 0.167473 0)
(0.0607774 0.15783 0)
(0.042117 0.146332 0)
(0.0245392 0.108005 0)
(0.0146853 0.0774679 0)
(-0.00332704 0.0485482 0)
(-0.0266545 0.0296579 0)
(-0.0432707 0.00259604 0)
(-0.0518467 -0.0471549 0)
(-0.0649945 -0.0693005 0)
(-0.0973841 -0.0877076 0)
(-0.105292 -0.112882 0)
(-0.0779333 -0.0932002 0)
(-0.0521513 -0.093575 0)
(-0.0280574 -0.0931544 0)
(0.00699619 -0.0618177 0)
(0.0532667 -0.0431803 0)
(0.0783533 -0.0296903 0)
(0.0572505 -0.000940732 0)
(0.00492524 0.0561079 0)
(-0.0301022 0.0790937 0)
(-0.0452626 0.085228 0)
(-0.0505737 0.084483 0)
(-0.0555879 0.0754977 0)
(-0.0608776 0.0804792 0)
(-0.0481185 0.0682085 0)
(-0.0181386 0.0423346 0)
(0.0129948 0.0186308 0)
(0.039091 -0.00225455 0)
(0.0570617 -0.0143831 0)
(0.0679058 -0.0286588 0)
(0.0907017 -0.0301327 0)
(0.0926239 -0.0122826 0)
(0.0661965 0.0117513 0)
(0.0188899 0.0244758 0)
(-0.0319033 0.0319175 0)
(-0.0589527 0.0454598 0)
(-0.100227 0.0236975 0)
(-0.150684 0.0180064 0)
(-0.156885 0.0272901 0)
(-0.110013 0.0305592 0)
(-0.0573609 0.0191876 0)
(-0.0177536 0.00961652 0)
(-0.00749209 0.0598789 0)
(-0.0156787 0.142687 0)
(-0.00996581 0.188662 0)
(-0.00839792 0.202033 0)
(-0.0151638 0.192266 0)
(-0.00838975 0.1667 0)
(-0.00650484 0.112007 0)
(-0.00399279 0.0346402 0)
(0.0229689 -0.0312008 0)
(0.0546299 -0.0886152 0)
(0.0656205 -0.140344 0)
(0.0738584 -0.207722 0)
(0.0836961 -0.249314 0)
(0.0716059 -0.26785 0)
(0.0543908 -0.271635 0)
(0.0657801 -0.260453 0)
(0.0619019 -0.212975 0)
(0.0272335 -0.148046 0)
(0.0144358 -0.10181 0)
(0.0215739 -0.0658821 0)
(0.0194507 -0.0171136 0)
(-0.0198062 0.0143666 0)
(-0.073199 0.0646769 0)
(-0.110377 0.121483 0)
(-0.12524 0.195852 0)
(-0.120215 0.245373 0)
(-0.0866741 0.25716 0)
(-0.0355947 0.246778 0)
(0.000220986 0.238175 0)
(0.0146664 0.219672 0)
(0.0310867 0.18686 0)
(0.0524917 0.158092 0)
(0.052719 0.0902448 0)
(0.0475379 0.0222583 0)
(0.0180129 -0.0430888 0)
(-0.0248152 -0.117311 0)
(-0.0197083 -0.155555 0)
(-0.016182 -0.182011 0)
(-0.0322638 -0.212619 0)
(-0.0585763 -0.217856 0)
(-0.0839996 -0.209002 0)
(-0.0664061 -0.184399 0)
(-0.0348511 -0.13079 0)
(-0.0247594 -0.0936212 0)
(-0.00110265 -0.066784 0)
(0.0288972 -0.0392491 0)
(0.0304493 -0.0264757 0)
(0.0243634 -0.019293 0)
(0.0359233 0.00479574 0)
(0.0646336 0.0308948 0)
(0.0843435 0.0480194 0)
(0.0982265 0.0808294 0)
(0.0798039 0.0959698 0)
(0.0578364 0.111484 0)
(0.0545121 0.112491 0)
(0.0557947 0.10863 0)
(0.0594891 0.130282 0)
(0.0553183 0.166583 0)
(0.0468038 0.150925 0)
(0.0165446 0.112118 0)
(0.00162387 0.0727072 0)
(0.00252168 0.0495177 0)
(-0.00854967 0.0302667 0)
(-0.0351847 0.00690768 0)
(-0.0710106 -0.0151554 0)
(-0.0786244 -0.0607037 0)
(-0.0755796 -0.0833923 0)
(-0.0982022 -0.0987067 0)
(-0.0969499 -0.095022 0)
(-0.0809168 -0.0887501 0)
(-0.0610178 -0.0982083 0)
(-0.0079698 -0.0927596 0)
(0.0335175 -0.0647792 0)
(0.0600919 -0.0395588 0)
(0.0827452 -0.0201529 0)
(0.0828466 0.00524054 0)
(0.0327176 0.0456638 0)
(-0.0241822 0.0716699 0)
(-0.0494139 0.0873532 0)
(-0.0573476 0.0860445 0)
(-0.0563524 0.0717051 0)
(-0.0659782 0.0669862 0)
(-0.0622363 0.0499206 0)
(-0.031779 0.0287267 0)
(-0.00463018 0.00817289 0)
(0.025139 -0.0274434 0)
(0.0499448 -0.0457566 0)
(0.0629873 -0.0468792 0)
(0.0996897 -0.0435383 0)