/*--------------------------------*- C++ -*----------------------------------*\
| =========                 |                                                 |
| \\      /  F ield         | OpenFOAM: The Open Source CFD Toolbox           |
|  \\    /   O peration     | Version:  v2012                                 |
|   \\  /    A nd           | Website:  www.openfoam.com                      |
|    \\/     M anipulation  |                                                 |
\*---------------------------------------------------------------------------*/
FoamFile
{
    version     2.0;
    format      ascii;
    class       volVectorField;
    location    "70";
    object      Usup;
}
// * * * * * * * * * * * * * * * * * * * * * * * * * * * * * * * * * * * * * //

dimensions      [0 1 -1 0 0 0 0];


internalField   nonuniform List<vector> 
4000
(
(-7.35591e-18 -1.04116e-16 0)
(-1.80408e-16 -1.77692e-16 0)
(-2.62965e-16 -2.63559e-16 0)
(-5.18973e-16 -4.46352e-16 0)
(-1.19233e-15 -3.7927e-16 0)
(-1.56685e-15 -5.35237e-17 0)
(-1.87617e-15 -1.09662e-16 0)
(-2.50986e-15 -1.47134e-16 0)
(-2.87479e-15 -6.88932e-18 0)
(-3.07896e-15 -1.01753e-16 0)
(-3.57201e-15 -3.01591e-16 0)
(-3.72657e-15 -1.69206e-16 0)
(-3.39979e-15 1.68578e-16 0)
(-3.46275e-15 4.09796e-16 0)
(-3.84097e-15 7.59033e-16 0)
(-3.87023e-15 8.53409e-16 0)
(-4.08575e-15 8.25083e-16 0)
(-4.07987e-15 8.65042e-16 0)
(-3.87624e-15 2.6839e-16 0)
(-3.99394e-15 2.13718e-16 0)
(-3.92809e-15 2.78696e-16 0)
(-3.68356e-15 3.09922e-16 0)
(-3.46723e-15 1.59975e-16 0)
(-3.38e-15 4.58245e-16 0)
(-3.60161e-15 6.04441e-16 0)
(-3.55365e-15 8.80146e-16 0)
(-3.43663e-15 4.97282e-16 0)
(-3.90748e-15 6.24917e-16 0)
(-4.0183e-15 5.77082e-16 0)
(-3.99698e-15 6.24743e-16 0)
(-3.98109e-15 1.21538e-15 0)
(-2.92695e-15 1.76406e-15 0)
(-2.00545e-15 1.28465e-15 0)
(-2.01095e-15 9.48592e-16 0)
(-1.94691e-15 1.45904e-15 0)
(-1.89305e-15 1.5263e-15 0)
(-2.04187e-15 1.7603e-15 0)
(-2.24272e-15 2.11893e-15 0)
(-1.89372e-15 2.38292e-15 0)
(-1.02333e-15 2.44292e-15 0)
(-8.63745e-17 2.16562e-15 0)
(2.5632e-16 2.0667e-15 0)
(-1.62205e-16 1.95957e-15 0)
(-7.04593e-16 1.96903e-15 0)
(-9.20398e-16 2.2111e-15 0)
(-6.01923e-16 2.25706e-15 0)
(-1.0171e-16 2.28423e-15 0)
(4.5991e-16 2.44812e-15 0)
(6.90689e-16 2.5079e-15 0)
(4.59701e-16 2.47139e-15 0)
(6.08821e-16 2.72097e-15 0)
(1.16088e-15 3.02907e-15 0)
(1.8427e-15 3.10489e-15 0)
(2.00109e-15 2.83056e-15 0)
(2.00757e-15 3.10567e-15 0)
(2.43848e-15 3.14289e-15 0)
(2.74895e-15 2.86337e-15 0)
(2.95433e-15 2.74456e-15 0)
(3.11066e-15 2.87349e-15 0)
(2.84319e-15 2.50386e-15 0)
(2.19883e-15 2.58651e-15 0)
(1.97874e-15 2.78539e-15 0)
(2.05669e-15 2.93973e-15 0)
(2.46192e-15 2.83928e-15 0)
(3.05463e-15 2.5415e-15 0)
(2.95065e-15 2.29811e-15 0)
(2.42612e-15 2.27338e-15 0)
(2.43918e-15 2.24911e-15 0)
(2.85783e-15 2.26177e-15 0)
(3.34965e-15 2.28563e-15 0)
(3.75766e-15 2.26108e-15 0)
(3.58867e-15 1.96659e-15 0)
(3.37018e-15 2.05614e-15 0)
(3.64895e-15 2.01998e-15 0)
(4.10966e-15 1.80785e-15 0)
(4.18524e-15 1.5641e-15 0)
(3.97078e-15 1.34745e-15 0)
(3.75731e-15 1.25517e-15 0)
(3.52284e-15 1.27643e-15 0)
(3.58656e-15 1.35402e-15 0)
(4.12261e-15 1.68355e-15 0)
(4.59659e-15 1.166e-15 0)
(5.14095e-15 1.42691e-15 0)
(5.77355e-15 1.38313e-15 0)
(5.49359e-15 1.08335e-15 0)
(5.5119e-15 1.06463e-15 0)
(6.06325e-15 8.02907e-16 0)
(6.11247e-15 5.79775e-16 0)
(5.74742e-15 3.05661e-16 0)
(5.49914e-15 1.15049e-16 0)
(5.14189e-15 -1.11536e-17 0)
(4.56429e-15 3.72603e-18 0)
(4.04946e-15 4.09775e-17 0)
(3.07904e-15 -2.19022e-17 0)
(2.38503e-15 1.38995e-17 0)
(1.95022e-15 -5.15084e-17 0)
(1.34864e-15 -1.74002e-17 0)
(7.77902e-16 1.32435e-16 0)
(4.83557e-16 4.21883e-16 0)
(4.37948e-16 7.58543e-17 0)
(-8.91515e-17 -2.72321e-16 0)
(-5.96333e-16 -4.38752e-16 0)
(-1.14464e-15 -6.88734e-16 0)
(-1.87091e-15 -9.72807e-16 0)
(-3.07729e-15 -7.46579e-16 0)
(-4.29597e-15 -3.50793e-16 0)
(-5.58313e-15 -5.12109e-16 0)
(-6.96251e-15 -5.02189e-16 0)
(-8.05782e-15 -4.12541e-16 0)
(-9.04323e-15 -3.60769e-16 0)
(-9.98759e-15 -7.41966e-16 0)
(-1.0033e-14 -3.58933e-16 0)
(-9.52641e-15 6.04797e-16 0)
(-9.72832e-15 1.52392e-15 0)
(-1.06012e-14 2.20495e-15 0)
(-1.10952e-14 2.30365e-15 0)
(-1.15781e-14 2.131e-15 0)
(-1.20165e-14 2.07398e-15 0)
(-1.17442e-14 1.06453e-15 0)
(-1.13969e-14 4.76098e-16 0)
(-1.11462e-14 5.88492e-16 0)
(-1.07756e-14 1.1235e-15 0)
(-1.00988e-14 9.86598e-16 0)
(-9.68646e-15 1.38497e-15 0)
(-1.00548e-14 1.95668e-15 0)
(-1.03867e-14 2.36235e-15 0)
(-1.03728e-14 1.70051e-15 0)
(-1.09671e-14 1.77149e-15 0)
(-1.126e-14 2.18679e-15 0)
(-1.06595e-14 2.50889e-15 0)
(-9.90727e-15 3.76487e-15 0)
(-8.44734e-15 4.77606e-15 0)
(-7.06007e-15 3.84522e-15 0)
(-5.96567e-15 3.35238e-15 0)
(-5.38399e-15 4.19574e-15 0)
(-5.40064e-15 4.61697e-15 0)
(-5.35719e-15 5.30731e-15 0)
(-5.49498e-15 5.97449e-15 0)
(-4.7705e-15 6.80986e-15 0)
(-3.17923e-15 6.81622e-15 0)
(-1.21933e-15 6.66218e-15 0)
(-2.38421e-16 6.35673e-15 0)
(-8.35523e-16 6.20665e-15 0)
(-1.584e-15 6.13505e-15 0)
(-1.91429e-15 6.46489e-15 0)
(-1.34963e-15 6.65464e-15 0)
(-7.64485e-17 6.97948e-15 0)
(1.24179e-15 7.22067e-15 0)
(1.74813e-15 7.4522e-15 0)
(1.7363e-15 7.81193e-15 0)
(2.51368e-15 8.49956e-15 0)
(3.70247e-15 8.92247e-15 0)
(4.81586e-15 9.05681e-15 0)
(5.57856e-15 8.70451e-15 0)
(6.1192e-15 9.0799e-15 0)
(6.70002e-15 9.2606e-15 0)
(7.37553e-15 8.71771e-15 0)
(8.20754e-15 8.54056e-15 0)
(8.316e-15 8.80706e-15 0)
(7.7098e-15 7.94996e-15 0)
(6.87046e-15 7.83688e-15 0)
(6.42772e-15 8.0704e-15 0)
(6.40096e-15 8.17499e-15 0)
(6.95153e-15 8.03343e-15 0)
(8.01188e-15 7.65375e-15 0)
(8.10962e-15 7.21248e-15 0)
(7.40342e-15 7.06374e-15 0)
(7.52392e-15 6.86691e-15 0)
(8.48976e-15 6.78484e-15 0)
(9.59073e-15 6.70352e-15 0)
(1.02585e-14 6.51749e-15 0)
(1.01896e-14 5.93211e-15 0)
(1.0115e-14 5.97427e-15 0)
(1.05079e-14 5.9121e-15 0)
(1.12948e-14 5.5142e-15 0)
(1.15181e-14 4.79266e-15 0)
(1.12582e-14 4.34279e-15 0)
(1.10067e-14 3.80512e-15 0)
(1.07448e-14 3.90527e-15 0)
(1.12379e-14 4.16721e-15 0)
(1.20044e-14 4.70201e-15 0)
(1.31778e-14 4.09599e-15 0)
(1.48704e-14 4.14794e-15 0)
(1.58035e-14 3.82563e-15 0)
(1.55717e-14 3.21584e-15 0)
(1.5764e-14 3.27258e-15 0)
(1.66131e-14 2.72796e-15 0)
(1.66736e-14 2.09938e-15 0)
(1.59039e-14 9.94475e-16 0)
(1.52496e-14 3.59684e-16 0)
(1.43443e-14 -2.36359e-16 0)
(1.29356e-14 -3.18248e-16 0)
(1.13086e-14 -1.36758e-16 0)
(8.95007e-15 1.51614e-17 0)
(7.04374e-15 -2.51283e-17 0)
(5.62239e-15 -2.79952e-16 0)
(4.15233e-15 -2.05086e-17 0)
(2.83649e-15 3.14274e-16 0)
(1.53891e-15 8.17468e-16 0)
(7.59e-16 3.05968e-16 0)
(-1.64313e-16 -2.92804e-16 0)
(-1.04273e-15 -4.13539e-16 0)
(-2.07547e-15 -8.69615e-16 0)
(-3.1488e-15 -1.58252e-15 0)
(-4.95465e-15 -1.3552e-15 0)
(-7.06593e-15 -1.11915e-15 0)
(-9.05256e-15 -1.08217e-15 0)
(-1.11107e-14 -1.04744e-15 0)
(-1.27553e-14 -8.48563e-16 0)
(-1.43588e-14 -6.33938e-16 0)
(-1.57042e-14 -6.69206e-16 0)
(-1.54482e-14 -2.65152e-17 0)
(-1.47392e-14 1.29549e-15 0)
(-1.53305e-14 2.31512e-15 0)
(-1.69528e-14 3.18143e-15 0)
(-1.79828e-14 3.57772e-15 0)
(-1.86945e-14 3.18007e-15 0)
(-1.93753e-14 2.68401e-15 0)
(-1.93796e-14 1.71477e-15 0)
(-1.86649e-14 8.97548e-16 0)
(-1.75504e-14 1.00122e-15 0)
(-1.70269e-14 1.8145e-15 0)
(-1.64778e-14 2.16143e-15 0)
(-1.56781e-14 2.49796e-15 0)
(-1.60454e-14 3.26231e-15 0)
(-1.68954e-14 3.66119e-15 0)
(-1.70405e-14 3.30298e-15 0)
(-1.72232e-14 3.36863e-15 0)
(-1.729e-14 4.29969e-15 0)
(-1.63777e-14 5.16828e-15 0)
(-1.50894e-14 6.50661e-15 0)
(-1.36867e-14 7.20605e-15 0)
(-1.2004e-14 6.56141e-15 0)
(-9.89849e-15 6.15331e-15 0)
(-8.6611e-15 6.32907e-15 0)
(-8.39327e-15 7.50097e-15 0)
(-8.24718e-15 8.56707e-15 0)
(-8.08222e-15 9.54053e-15 0)
(-7.11556e-15 1.04975e-14 0)
(-5.08488e-15 1.05548e-14 0)
(-2.48162e-15 1.10112e-14 0)
(-1.20389e-15 1.08686e-14 0)
(-1.69465e-15 1.072e-14 0)
(-2.47242e-15 1.03819e-14 0)
(-2.60951e-15 1.05512e-14 0)
(-1.57659e-15 1.09889e-14 0)
(1.47188e-16 1.19558e-14 0)
(1.90742e-15 1.22904e-14 0)
(3.0507e-15 1.2635e-14 0)
(3.5106e-15 1.31855e-14 0)
(4.48155e-15 1.40089e-14 0)
(5.97526e-15 1.44679e-14 0)
(7.57184e-15 1.4953e-14 0)
(8.82915e-15 1.51737e-14 0)
(9.91066e-15 1.51003e-14 0)
(1.06565e-14 1.52049e-14 0)
(1.15631e-14 1.48472e-14 0)
(1.29513e-14 1.44787e-14 0)
(1.28406e-14 1.45164e-14 0)
(1.18431e-14 1.4023e-14 0)
(1.11011e-14 1.3423e-14 0)
(1.06264e-14 1.32839e-14 0)
(1.06342e-14 1.32356e-14 0)
(1.14508e-14 1.31064e-14 0)
(1.27164e-14 1.26212e-14 0)
(1.28698e-14 1.22303e-14 0)
(1.21313e-14 1.16609e-14 0)
(1.24021e-14 1.15017e-14 0)
(1.37699e-14 1.12962e-14 0)
(1.52557e-14 1.12045e-14 0)
(1.61396e-14 1.07158e-14 0)
(1.63005e-14 1.02752e-14 0)
(1.65252e-14 1.00851e-14 0)
(1.70603e-14 9.74154e-15 0)
(1.78057e-14 9.11416e-15 0)
(1.81339e-14 7.92704e-15 0)
(1.78772e-14 7.75463e-15 0)
(1.7793e-14 6.53428e-15 0)
(1.79991e-14 6.60021e-15 0)
(1.88038e-14 7.15708e-15 0)
(1.98411e-14 7.41167e-15 0)
(2.12786e-14 7.49811e-15 0)
(2.34167e-14 7.04839e-15 0)
(2.4758e-14 6.14273e-15 0)
(2.49737e-14 5.37268e-15 0)
(2.53412e-14 5.25629e-15 0)
(2.60245e-14 4.61987e-15 0)
(2.56359e-14 3.50881e-15 0)
(2.45144e-14 1.8091e-15 0)
(2.36457e-14 7.35711e-16 0)
(2.23488e-14 -4.02021e-16 0)
(2.0564e-14 -7.57816e-16 0)
(1.82093e-14 -6.41803e-16 0)
(1.45803e-14 -2.46771e-16 0)
(1.13177e-14 2.89041e-17 0)
(9.16108e-15 -3.29135e-16 0)
(7.04277e-15 -1.92284e-16 0)
(4.88589e-15 1.99831e-16 0)
(2.67744e-15 5.82638e-16 0)
(9.22617e-16 4.17929e-16 0)
(-1.76603e-16 -3.9665e-16 0)
(-1.50477e-15 -6.10925e-16 0)
(-3.46948e-15 -1.26578e-15 0)
(-4.84638e-15 -2.20822e-15 0)
(-6.7151e-15 -2.26139e-15 0)
(-9.40855e-15 -1.80198e-15 0)
(-1.21536e-14 -1.49411e-15 0)
(-1.47523e-14 -1.41533e-15 0)
(-1.68957e-14 -1.118e-15 0)
(-1.9058e-14 -9.11124e-16 0)
(-2.05779e-14 -3.55223e-16 0)
(-2.02129e-14 7.37407e-16 0)
(-1.97336e-14 2.10256e-15 0)
(-2.06316e-14 2.54492e-15 0)
(-2.24195e-14 3.42696e-15 0)
(-2.4194e-14 4.46193e-15 0)
(-2.56103e-14 4.36339e-15 0)
(-2.65669e-14 3.66272e-15 0)
(-2.64782e-14 2.39397e-15 0)
(-2.52812e-14 1.88778e-15 0)
(-2.36531e-14 1.90847e-15 0)
(-2.2807e-14 2.35106e-15 0)
(-2.21961e-14 2.90866e-15 0)
(-2.13211e-14 3.82544e-15 0)
(-2.16441e-14 4.87551e-15 0)
(-2.27884e-14 5.59823e-15 0)
(-2.3041e-14 5.40753e-15 0)
(-2.28437e-14 5.37101e-15 0)
(-2.25096e-14 6.50636e-15 0)
(-2.12595e-14 7.78715e-15 0)
(-1.98772e-14 8.8753e-15 0)
(-1.85709e-14 9.45609e-15 0)
(-1.66981e-14 9.43794e-15 0)
(-1.4157e-14 9.04826e-15 0)
(-1.18307e-14 8.80025e-15 0)
(-1.07599e-14 1.01052e-14 0)
(-1.05079e-14 1.12784e-14 0)
(-1.02249e-14 1.2439e-14 0)
(-9.22753e-15 1.34258e-14 0)
(-6.66859e-15 1.41703e-14 0)
(-3.55318e-15 1.49026e-14 0)
(-2.2362e-15 1.50679e-14 0)
(-2.82004e-15 1.49898e-14 0)
(-3.40646e-15 1.45783e-14 0)
(-3.01307e-15 1.50673e-14 0)
(-1.27006e-15 1.58248e-14 0)
(8.20886e-16 1.67334e-14 0)
(2.64302e-15 1.72569e-14 0)
(4.08946e-15 1.78477e-14 0)
(5.04212e-15 1.86189e-14 0)
(6.54701e-15 1.94448e-14 0)
(8.55158e-15 2.03874e-14 0)
(1.0614e-14 2.10749e-14 0)
(1.18594e-14 2.14767e-14 0)
(1.30678e-14 2.12179e-14 0)
(1.42371e-14 2.08703e-14 0)
(1.52585e-14 2.08836e-14 0)
(1.68646e-14 2.04085e-14 0)
(1.70761e-14 1.99964e-14 0)
(1.58114e-14 1.9898e-14 0)
(1.48304e-14 1.93982e-14 0)
(1.46065e-14 1.89488e-14 0)
(1.47586e-14 1.86142e-14 0)
(1.54702e-14 1.84802e-14 0)
(1.68702e-14 1.79825e-14 0)
(1.71126e-14 1.6974e-14 0)
(1.65956e-14 1.60071e-14 0)
(1.72662e-14 1.57733e-14 0)
(1.8904e-14 1.57808e-14 0)
(2.05499e-14 1.56973e-14 0)
(2.15934e-14 1.51308e-14 0)
(2.2076e-14 1.46498e-14 0)
(2.23347e-14 1.43139e-14 0)
(2.28518e-14 1.36134e-14 0)
(2.35186e-14 1.23987e-14 0)
(2.43503e-14 1.11708e-14 0)
(2.40965e-14 1.06564e-14 0)
(2.39878e-14 9.63132e-15 0)
(2.51207e-14 9.53188e-15 0)
(2.61845e-14 1.01864e-14 0)
(2.74352e-14 1.05645e-14 0)
(2.90911e-14 1.06033e-14 0)
(3.10742e-14 9.89188e-15 0)
(3.26106e-14 8.73017e-15 0)
(3.33488e-14 7.70376e-15 0)
(3.39238e-14 7.15866e-15 0)
(3.43013e-14 6.14667e-15 0)
(3.34442e-14 4.56564e-15 0)
(3.20955e-14 2.75924e-15 0)
(3.09357e-14 1.28025e-15 0)
(2.9323e-14 -3.6852e-16 0)
(2.72769e-14 -9.39461e-16 0)
(2.43984e-14 -1.17661e-15 0)
(2.01106e-14 -8.96625e-16 0)
(1.5655e-14 -9.99363e-17 0)
(1.22835e-14 -3.65452e-16 0)
(9.59008e-15 -6.1281e-16 0)
(6.84258e-15 -1.38622e-16 0)
(3.81754e-15 1.97768e-16 0)
(1.12509e-15 2.41027e-16 0)
(-2.53447e-16 -5.19046e-16 0)
(-2.05929e-15 -1.14041e-15 0)
(-4.66765e-15 -1.75756e-15 0)
(-6.41852e-15 -2.53285e-15 0)
(-8.40699e-15 -2.48273e-15 0)
(-1.14705e-14 -1.96195e-15 0)
(-1.49341e-14 -1.71477e-15 0)
(-1.81687e-14 -1.54679e-15 0)
(-2.07789e-14 -1.57238e-15 0)
(-2.31155e-14 -1.46609e-15 0)
(-2.4596e-14 -1.40446e-16 0)
(-2.43313e-14 1.26412e-15 0)
(-2.45135e-14 2.4563e-15 0)
(-2.58407e-14 2.98499e-15 0)
(-2.74084e-14 3.68125e-15 0)
(-2.94715e-14 4.93087e-15 0)
(-3.16894e-14 5.40709e-15 0)
(-3.33392e-14 4.89229e-15 0)
(-3.32015e-14 3.67484e-15 0)
(-3.14838e-14 3.35473e-15 0)
(-2.95373e-14 3.38024e-15 0)
(-2.84179e-14 3.51027e-15 0)
(-2.73206e-14 3.78855e-15 0)
(-2.60241e-14 5.20883e-15 0)
(-2.64759e-14 6.43153e-15 0)
(-2.81954e-14 7.29662e-15 0)
(-2.88711e-14 7.3344e-15 0)
(-2.80651e-14 7.23744e-15 0)
(-2.70148e-14 8.65867e-15 0)
(-2.57587e-14 1.00816e-14 0)
(-2.43209e-14 1.09262e-14 0)
(-2.27792e-14 1.15304e-14 0)
(-2.08332e-14 1.17028e-14 0)
(-1.8122e-14 1.17719e-14 0)
(-1.5034e-14 1.21407e-14 0)
(-1.32207e-14 1.26238e-14 0)
(-1.27074e-14 1.35733e-14 0)
(-1.20986e-14 1.48029e-14 0)
(-1.06177e-14 1.62397e-14 0)
(-7.76206e-15 1.75933e-14 0)
(-4.61112e-15 1.81388e-14 0)
(-3.24446e-15 1.82408e-14 0)
(-3.81467e-15 1.86358e-14 0)
(-3.97566e-15 1.90523e-14 0)
(-2.949e-15 2.02932e-14 0)
(-1.06788e-15 2.1157e-14 0)
(1.21158e-15 2.13276e-14 0)
(3.52816e-15 2.17442e-14 0)
(5.58481e-15 2.27043e-14 0)
(6.89694e-15 2.40356e-14 0)
(8.76095e-15 2.51908e-14 0)
(1.10471e-14 2.62573e-14 0)
(1.31667e-14 2.69736e-14 0)
(1.45442e-14 2.70666e-14 0)
(1.57983e-14 2.70472e-14 0)
(1.74293e-14 2.66742e-14 0)
(1.8828e-14 2.66868e-14 0)
(2.03245e-14 2.6283e-14 0)
(2.06992e-14 2.59312e-14 0)
(1.96161e-14 2.59187e-14 0)
(1.84803e-14 2.55667e-14 0)
(1.80904e-14 2.48957e-14 0)
(1.84935e-14 2.41926e-14 0)
(1.95285e-14 2.38549e-14 0)
(2.0525e-14 2.30148e-14 0)
(2.05844e-14 2.15365e-14 0)
(2.06026e-14 2.04909e-14 0)
(2.19053e-14 2.00597e-14 0)
(2.38769e-14 2.02895e-14 0)
(2.5513e-14 2.00549e-14 0)
(2.66193e-14 1.96619e-14 0)
(2.73269e-14 1.90999e-14 0)
(2.77187e-14 1.85373e-14 0)
(2.79889e-14 1.74269e-14 0)
(2.8729e-14 1.58057e-14 0)
(2.98386e-14 1.46786e-14 0)
(2.98717e-14 1.3469e-14 0)
(3.02038e-14 1.29968e-14 0)
(3.18477e-14 1.30704e-14 0)
(3.34164e-14 1.35485e-14 0)
(3.4645e-14 1.37666e-14 0)
(3.60451e-14 1.33885e-14 0)
(3.80638e-14 1.234e-14 0)
(3.9801e-14 1.12255e-14 0)
(4.08465e-14 1.00524e-14 0)
(4.14482e-14 9.11375e-15 0)
(4.14542e-14 7.36006e-15 0)
(4.02767e-14 5.48044e-15 0)
(3.86829e-14 3.60298e-15 0)
(3.70894e-14 1.73104e-15 0)
(3.53405e-14 -5.18285e-17 0)
(3.32106e-14 -1.13151e-15 0)
(2.98858e-14 -1.70521e-15 0)
(2.52599e-14 -1.74939e-15 0)
(1.98227e-14 -6.85076e-16 0)
(1.51847e-14 -4.75074e-16 0)
(1.19622e-14 -1.0637e-15 0)
(8.7035e-15 -7.92482e-16 0)
(4.83012e-15 -3.79889e-16 0)
(1.33916e-15 -1.48337e-16 0)
(-4.98272e-16 -4.59755e-16 0)
(-2.68017e-15 -1.75081e-15 0)
(-5.82034e-15 -1.939e-15 0)
(-7.78593e-15 -2.39391e-15 0)
(-9.81658e-15 -2.571e-15 0)
(-1.3479e-14 -2.4512e-15 0)
(-1.7572e-14 -2.04981e-15 0)
(-2.14141e-14 -1.75253e-15 0)
(-2.45572e-14 -1.6891e-15 0)
(-2.65673e-14 -1.6642e-15 0)
(-2.78495e-14 -1.62325e-16 0)
(-2.81535e-14 1.53213e-15 0)
(-2.87633e-14 2.60911e-15 0)
(-3.04089e-14 3.52801e-15 0)
(-3.20096e-14 4.57609e-15 0)
(-3.4226e-14 5.33904e-15 0)
(-3.71436e-14 5.87633e-15 0)
(-3.94572e-14 5.85781e-15 0)
(-3.92522e-14 5.26135e-15 0)
(-3.7105e-14 5.23445e-15 0)
(-3.50487e-14 5.22447e-15 0)
(-3.38743e-14 5.49142e-15 0)
(-3.21659e-14 6.01993e-15 0)
(-3.04767e-14 6.9375e-15 0)
(-3.11242e-14 7.65537e-15 0)
(-3.30668e-14 8.08576e-15 0)
(-3.39511e-14 8.5404e-15 0)
(-3.26333e-14 9.05385e-15 0)
(-3.09725e-14 1.07828e-14 0)
(-2.97696e-14 1.2197e-14 0)
(-2.84164e-14 1.31708e-14 0)
(-2.68617e-14 1.35848e-14 0)
(-2.46059e-14 1.38344e-14 0)
(-2.12316e-14 1.4137e-14 0)
(-1.80107e-14 1.473e-14 0)
(-1.59861e-14 1.45206e-14 0)
(-1.46659e-14 1.55318e-14 0)
(-1.34347e-14 1.75081e-14 0)
(-1.1627e-14 1.89535e-14 0)
(-8.91043e-15 2.01302e-14 0)
(-5.9352e-15 2.05101e-14 0)
(-4.11234e-15 2.08322e-14 0)
(-4.03839e-15 2.16794e-14 0)
(-3.66623e-15 2.34318e-14 0)
(-2.55964e-15 2.53154e-14 0)
(-1.09059e-15 2.65232e-14 0)
(1.30161e-15 2.65439e-14 0)
(4.38822e-15 2.66912e-14 0)
(7.18469e-15 2.74286e-14 0)
(8.95166e-15 2.87715e-14 0)
(1.09796e-14 3.04452e-14 0)
(1.34399e-14 3.18479e-14 0)
(1.55745e-14 3.26073e-14 0)
(1.7011e-14 3.24015e-14 0)
(1.85416e-14 3.25946e-14 0)
(2.03396e-14 3.26526e-14 0)
(2.18522e-14 3.26407e-14 0)
(2.3575e-14 3.2148e-14 0)
(2.43055e-14 3.19627e-14 0)
(2.31261e-14 3.1776e-14 0)
(2.16754e-14 3.1281e-14 0)
(2.12526e-14 3.06825e-14 0)
(2.18187e-14 3.00037e-14 0)
(2.26992e-14 2.89903e-14 0)
(2.35618e-14 2.7776e-14 0)
(2.39169e-14 2.63475e-14 0)
(2.44209e-14 2.49477e-14 0)
(2.63508e-14 2.46497e-14 0)
(2.85509e-14 2.4586e-14 0)
(3.02043e-14 2.44645e-14 0)
(3.14473e-14 2.44667e-14 0)
(3.21797e-14 2.36896e-14 0)
(3.23752e-14 2.25592e-14 0)
(3.24587e-14 2.10354e-14 0)
(3.34415e-14 1.94881e-14 0)
(3.48399e-14 1.8111e-14 0)
(3.52667e-14 1.70197e-14 0)
(3.62907e-14 1.66188e-14 0)
(3.83761e-14 1.65565e-14 0)
(3.99284e-14 1.6658e-14 0)
(4.10679e-14 1.66341e-14 0)
(4.23842e-14 1.60087e-14 0)
(4.44061e-14 1.499e-14 0)
(4.63289e-14 1.36158e-14 0)
(4.75066e-14 1.19309e-14 0)
(4.78104e-14 1.0581e-14 0)
(4.74858e-14 8.53754e-15 0)
(4.62927e-14 6.31968e-15 0)
(4.44353e-14 4.31431e-15 0)
(4.25744e-14 2.01117e-15 0)
(4.05314e-14 4.21896e-16 0)
(3.81404e-14 -1.23846e-15 0)
(3.46074e-14 -1.95184e-15 0)
(2.99782e-14 -2.09081e-15 0)
(2.4117e-14 -1.39384e-15 0)
(1.79473e-14 -9.97383e-16 0)
(1.375e-14 -1.4524e-15 0)
(1.02534e-14 -1.51463e-15 0)
(5.80442e-15 -1.00907e-15 0)
(1.72718e-15 -5.62526e-16 0)
(-1.05101e-15 -3.84056e-16 0)
(-3.35353e-15 -1.87054e-15 0)
(-6.3676e-15 -2.08702e-15 0)
(-9.13903e-15 -2.25506e-15 0)
(-1.17411e-14 -2.72722e-15 0)
(-1.54026e-14 -2.92368e-15 0)
(-1.97268e-14 -2.37447e-15 0)
(-2.41496e-14 -1.61227e-15 0)
(-2.78222e-14 -1.27812e-15 0)
(-2.98671e-14 -8.66701e-16 0)
(-3.07789e-14 7.64328e-17 0)
(-3.13709e-14 1.40079e-15 0)
(-3.25665e-14 2.4734e-15 0)
(-3.42879e-14 4.08069e-15 0)
(-3.62874e-14 5.32408e-15 0)
(-3.89816e-14 5.83026e-15 0)
(-4.19604e-14 6.32745e-15 0)
(-4.45548e-14 6.92706e-15 0)
(-4.44637e-14 7.21252e-15 0)
(-4.22966e-14 7.24148e-15 0)
(-4.00651e-14 7.4834e-15 0)
(-3.84451e-14 7.70545e-15 0)
(-3.67524e-14 8.42989e-15 0)
(-3.52078e-14 8.4739e-15 0)
(-3.5922e-14 8.62048e-15 0)
(-3.77395e-14 8.76705e-15 0)
(-3.82438e-14 9.82142e-15 0)
(-3.63501e-14 1.13086e-14 0)
(-3.44011e-14 1.30352e-14 0)
(-3.33407e-14 1.42401e-14 0)
(-3.21425e-14 1.53285e-14 0)
(-3.0527e-14 1.5796e-14 0)
(-2.8021e-14 1.62824e-14 0)
(-2.44487e-14 1.64625e-14 0)
(-2.11799e-14 1.65745e-14 0)
(-1.85366e-14 1.65141e-14 0)
(-1.58932e-14 1.74814e-14 0)
(-1.43978e-14 1.89702e-14 0)
(-1.28676e-14 2.05107e-14 0)
(-1.0113e-14 2.20061e-14 0)
(-6.93321e-15 2.29159e-14 0)
(-4.66025e-15 2.39137e-14 0)
(-3.72451e-15 2.50601e-14 0)
(-2.72456e-15 2.74234e-14 0)
(-1.67766e-15 2.96929e-14 0)
(-6.73497e-16 3.12841e-14 0)
(1.39262e-15 3.11285e-14 0)
(4.84662e-15 3.1157e-14 0)
(8.4063e-15 3.17918e-14 0)
(1.10403e-14 3.36315e-14 0)
(1.36094e-14 3.55814e-14 0)
(1.59134e-14 3.72233e-14 0)
(1.75409e-14 3.77496e-14 0)
(1.91566e-14 3.77036e-14 0)
(2.12066e-14 3.80822e-14 0)
(2.32291e-14 3.83298e-14 0)
(2.46854e-14 3.84222e-14 0)
(2.64155e-14 3.83907e-14 0)
(2.72651e-14 3.75942e-14 0)
(2.6106e-14 3.6781e-14 0)
(2.47699e-14 3.6395e-14 0)
(2.43647e-14 3.58552e-14 0)
(2.46417e-14 3.52922e-14 0)
(2.55215e-14 3.41332e-14 0)
(2.64787e-14 3.30068e-14 0)
(2.66648e-14 3.15291e-14 0)
(2.77847e-14 2.98355e-14 0)
(3.03834e-14 2.94215e-14 0)
(3.28532e-14 2.93515e-14 0)
(3.49354e-14 2.90982e-14 0)
(3.59477e-14 2.86115e-14 0)
(3.61776e-14 2.76485e-14 0)
(3.63506e-14 2.61367e-14 0)
(3.66339e-14 2.44079e-14 0)
(3.77819e-14 2.27264e-14 0)
(3.94886e-14 2.16846e-14 0)
(4.04675e-14 2.09563e-14 0)
(4.17829e-14 2.06433e-14 0)
(4.40662e-14 2.00477e-14 0)
(4.6011e-14 1.94142e-14 0)
(4.71314e-14 1.91145e-14 0)
(4.82656e-14 1.83904e-14 0)
(5.01799e-14 1.72158e-14 0)
(5.17917e-14 1.54081e-14 0)
(5.30914e-14 1.33623e-14 0)
(5.35237e-14 1.15581e-14 0)
(5.28239e-14 9.7481e-15 0)
(5.14076e-14 7.35221e-15 0)
(4.92628e-14 5.06912e-15 0)
(4.7267e-14 2.3534e-15 0)
(4.50735e-14 4.64178e-16 0)
(4.24813e-14 -1.03501e-15 0)
(3.90111e-14 -1.84881e-15 0)
(3.40426e-14 -2.01687e-15 0)
(2.75569e-14 -2.151e-15 0)
(2.0607e-14 -1.83185e-15 0)
(1.55815e-14 -1.53373e-15 0)
(1.1575e-14 -1.89746e-15 0)
(6.63172e-15 -1.62299e-15 0)
(2.1314e-15 -7.28291e-16 0)
(-1.43073e-15 -4.18908e-16 0)
(-4.08825e-15 -1.51869e-15 0)
(-7.22582e-15 -2.31692e-15 0)
(-1.03579e-14 -2.52865e-15 0)
(-1.33779e-14 -2.6878e-15 0)
(-1.72326e-14 -2.75307e-15 0)
(-2.15248e-14 -2.32158e-15 0)
(-2.63755e-14 -1.30399e-15 0)
(-3.05567e-14 -8.10698e-16 0)
(-3.28156e-14 6.70083e-17 0)
(-3.40313e-14 6.00721e-16 0)
(-3.47505e-14 1.39381e-15 0)
(-3.55769e-14 2.73277e-15 0)
(-3.74517e-14 4.63254e-15 0)
(-4.01569e-14 5.78741e-15 0)
(-4.31568e-14 6.72827e-15 0)
(-4.61777e-14 7.34164e-15 0)
(-4.8755e-14 8.2843e-15 0)
(-4.9017e-14 9.22435e-15 0)
(-4.68972e-14 9.26521e-15 0)
(-4.46505e-14 9.57264e-15 0)
(-4.30414e-14 9.41445e-15 0)
(-4.13677e-14 9.93614e-15 0)
(-4.00031e-14 9.67083e-15 0)
(-4.0474e-14 9.48129e-15 0)
(-4.16393e-14 1.00078e-14 0)
(-4.14064e-14 1.15735e-14 0)
(-3.94208e-14 1.39723e-14 0)
(-3.77243e-14 1.56247e-14 0)
(-3.66553e-14 1.6621e-14 0)
(-3.54116e-14 1.74282e-14 0)
(-3.37892e-14 1.77361e-14 0)
(-3.12e-14 1.79046e-14 0)
(-2.75629e-14 1.82211e-14 0)
(-2.40035e-14 1.83995e-14 0)
(-2.08508e-14 1.88548e-14 0)
(-1.78882e-14 1.92672e-14 0)
(-1.5705e-14 1.97316e-14 0)
(-1.33238e-14 2.21096e-14 0)
(-1.04808e-14 2.44586e-14 0)
(-7.29967e-15 2.58862e-14 0)
(-4.78673e-15 2.66665e-14 0)
(-3.25531e-15 2.81581e-14 0)
(-1.63772e-15 3.0685e-14 0)
(-6.69055e-16 3.32331e-14 0)
(-5.11652e-16 3.49265e-14 0)
(1.2506e-15 3.52829e-14 0)
(5.47202e-15 3.59039e-14 0)
(1.01724e-14 3.67681e-14 0)
(1.34925e-14 3.81648e-14 0)
(1.59788e-14 3.98742e-14 0)
(1.80097e-14 4.14392e-14 0)
(1.95163e-14 4.23446e-14 0)
(2.14301e-14 4.29599e-14 0)
(2.37199e-14 4.3389e-14 0)
(2.57971e-14 4.38211e-14 0)
(2.75272e-14 4.40071e-14 0)
(2.89398e-14 4.39538e-14 0)
(2.93566e-14 4.27059e-14 0)
(2.86707e-14 4.16991e-14 0)
(2.75755e-14 4.12573e-14 0)
(2.71802e-14 4.08356e-14 0)
(2.748e-14 4.02532e-14 0)
(2.81709e-14 3.92718e-14 0)
(2.90464e-14 3.76962e-14 0)
(2.92412e-14 3.60795e-14 0)
(3.0798e-14 3.48605e-14 0)
(3.42211e-14 3.43675e-14 0)
(3.68718e-14 3.42527e-14 0)
(3.85702e-14 3.36735e-14 0)
(3.96397e-14 3.24284e-14 0)
(3.99493e-14 3.14142e-14 0)
(3.98949e-14 2.98384e-14 0)
(4.0153e-14 2.82172e-14 0)
(4.19225e-14 2.62446e-14 0)
(4.42793e-14 2.52907e-14 0)
(4.54809e-14 2.44133e-14 0)
(4.68428e-14 2.40981e-14 0)
(4.89601e-14 2.31405e-14 0)
(5.10429e-14 2.19762e-14 0)
(5.24713e-14 2.12634e-14 0)
(5.35155e-14 2.05165e-14 0)
(5.50864e-14 1.90222e-14 0)
(5.66446e-14 1.71448e-14 0)
(5.7995e-14 1.50803e-14 0)
(5.85152e-14 1.26777e-14 0)
(5.7651e-14 1.08177e-14 0)
(5.58337e-14 8.30952e-15 0)
(5.32778e-14 5.63405e-15 0)
(5.10547e-14 2.74103e-15 0)
(4.90741e-14 4.41699e-16 0)
(4.64778e-14 -7.47211e-16 0)
(4.27888e-14 -1.79019e-15 0)
(3.74173e-14 -2.19856e-15 0)
(3.06006e-14 -2.60398e-15 0)
(2.33905e-14 -2.33372e-15 0)
(1.73014e-14 -1.93631e-15 0)
(1.23653e-14 -2.25888e-15 0)
(7.36523e-15 -2.2451e-15 0)
(2.58033e-15 -9.03766e-16 0)
(-1.651e-15 -5.74182e-16 0)
(-4.80811e-15 -1.62099e-15 0)
(-8.12233e-15 -2.4093e-15 0)
(-1.13639e-14 -2.30907e-15 0)
(-1.47672e-14 -2.47111e-15 0)
(-1.8865e-14 -2.52055e-15 0)
(-2.32179e-14 -1.96439e-15 0)
(-2.83656e-14 -1.03301e-15 0)
(-3.28465e-14 1.92077e-16 0)
(-3.54931e-14 6.90379e-16 0)
(-3.70194e-14 1.1391e-15 0)
(-3.74914e-14 2.52965e-15 0)
(-3.82704e-14 3.99301e-15 0)
(-4.04586e-14 5.53322e-15 0)
(-4.34357e-14 6.75881e-15 0)
(-4.67436e-14 7.83555e-15 0)
(-4.98797e-14 8.62969e-15 0)
(-5.23366e-14 1.01139e-14 0)
(-5.29589e-14 1.16432e-14 0)
(-5.12611e-14 1.17087e-14 0)
(-4.91417e-14 1.10742e-14 0)
(-4.73007e-14 1.08094e-14 0)
(-4.56045e-14 1.08725e-14 0)
(-4.44897e-14 1.0826e-14 0)
(-4.4519e-14 1.07969e-14 0)
(-4.4929e-14 1.1879e-14 0)
(-4.3915e-14 1.36919e-14 0)
(-4.17765e-14 1.63426e-14 0)
(-4.06205e-14 1.80846e-14 0)
(-3.98733e-14 1.90836e-14 0)
(-3.8801e-14 1.94568e-14 0)
(-3.72172e-14 1.92364e-14 0)
(-3.42351e-14 1.89682e-14 0)
(-3.01795e-14 1.95292e-14 0)
(-2.63388e-14 2.00059e-14 0)
(-2.30583e-14 2.08838e-14 0)
(-1.99374e-14 2.13918e-14 0)
(-1.65087e-14 2.21653e-14 0)
(-1.30835e-14 2.41584e-14 0)
(-1.05085e-14 2.64397e-14 0)
(-7.97561e-15 2.83164e-14 0)
(-5.18208e-15 2.91693e-14 0)
(-2.52524e-15 3.11038e-14 0)
(-3.31834e-16 3.36301e-14 0)
(5.24098e-16 3.61991e-14 0)
(3.63898e-16 3.79538e-14 0)
(2.1202e-15 3.93297e-14 0)
(6.45272e-15 4.04302e-14 0)
(1.1106e-14 4.14416e-14 0)
(1.48983e-14 4.22835e-14 0)
(1.81397e-14 4.37868e-14 0)
(2.04071e-14 4.53692e-14 0)
(2.18841e-14 4.68278e-14 0)
(2.36751e-14 4.76108e-14 0)
(2.60806e-14 4.80929e-14 0)
(2.83691e-14 4.88438e-14 0)
(2.98581e-14 4.9122e-14 0)
(3.08613e-14 4.85376e-14 0)
(3.12749e-14 4.74845e-14 0)
(3.09226e-14 4.65815e-14 0)
(3.02011e-14 4.59029e-14 0)
(2.98734e-14 4.57869e-14 0)
(2.99353e-14 4.54221e-14 0)
(3.03027e-14 4.43025e-14 0)
(3.10283e-14 4.21592e-14 0)
(3.17248e-14 4.0152e-14 0)
(3.39334e-14 3.97094e-14 0)
(3.76271e-14 3.92746e-14 0)
(4.03377e-14 3.87863e-14 0)
(4.19057e-14 3.81288e-14 0)
(4.29148e-14 3.69195e-14 0)
(4.32082e-14 3.53247e-14 0)
(4.32289e-14 3.32962e-14 0)
(4.35017e-14 3.16407e-14 0)
(4.54068e-14 3.00007e-14 0)
(4.81692e-14 2.83662e-14 0)
(4.98568e-14 2.69874e-14 0)
(5.13531e-14 2.64609e-14 0)
(5.32675e-14 2.5468e-14 0)
(5.56719e-14 2.44013e-14 0)
(5.73984e-14 2.34085e-14 0)
(5.8257e-14 2.22364e-14 0)
(5.96095e-14 2.07269e-14 0)
(6.10087e-14 1.90679e-14 0)
(6.20378e-14 1.68527e-14 0)
(6.26233e-14 1.42077e-14 0)
(6.17174e-14 1.15594e-14 0)
(5.9424e-14 8.82762e-15 0)
(5.65585e-14 6.00366e-15 0)
(5.42395e-14 3.33425e-15 0)
(5.25432e-14 1.0144e-15 0)
(4.99757e-14 -3.00254e-16 0)
(4.60565e-14 -1.61717e-15 0)
(4.04334e-14 -2.36913e-15 0)
(3.32466e-14 -2.91335e-15 0)
(2.56281e-14 -2.87044e-15 0)
(1.88539e-14 -2.71529e-15 0)
(1.31869e-14 -2.61959e-15 0)
(7.9832e-15 -2.64087e-15 0)
(3.12863e-15 -1.0584e-15 0)
(-1.90639e-15 -7.93745e-16 0)
(-5.36214e-15 -1.81872e-15 0)
(-8.64034e-15 -2.38163e-15 0)
(-1.22232e-14 -1.97973e-15 0)
(-1.62066e-14 -1.97075e-15 0)
(-2.03351e-14 -2.09222e-15 0)
(-2.46568e-14 -1.30243e-15 0)
(-2.97114e-14 -4.77921e-16 0)
(-3.48463e-14 1.11444e-15 0)
(-3.82454e-14 1.97252e-15 0)
(-3.93052e-14 2.73709e-15 0)
(-3.97093e-14 4.08644e-15 0)
(-4.07905e-14 5.54293e-15 0)
(-4.31447e-14 7.03884e-15 0)
(-4.64396e-14 8.30377e-15 0)
(-4.99529e-14 9.688e-15 0)
(-5.28191e-14 1.10857e-14 0)
(-5.49512e-14 1.25274e-14 0)
(-5.63061e-14 1.39267e-14 0)
(-5.57862e-14 1.39693e-14 0)
(-5.37571e-14 1.30112e-14 0)
(-5.15826e-14 1.24496e-14 0)
(-4.9676e-14 1.2207e-14 0)
(-4.82919e-14 1.23092e-14 0)
(-4.78318e-14 1.23208e-14 0)
(-4.75241e-14 1.32565e-14 0)
(-4.59941e-14 1.58125e-14 0)
(-4.38815e-14 1.8344e-14 0)
(-4.31734e-14 2.00785e-14 0)
(-4.28304e-14 2.12961e-14 0)
(-4.21484e-14 2.11819e-14 0)
(-4.06176e-14 2.07241e-14 0)
(-3.70453e-14 2.08117e-14 0)
(-3.24399e-14 2.15819e-14 0)
(-2.82238e-14 2.16575e-14 0)
(-2.46226e-14 2.26543e-14 0)
(-2.1305e-14 2.34218e-14 0)
(-1.75862e-14 2.49307e-14 0)
(-1.36403e-14 2.61896e-14 0)
(-1.04223e-14 2.79643e-14 0)
(-7.83915e-15 3.00067e-14 0)
(-4.85101e-15 3.1803e-14 0)
(-1.67772e-15 3.4001e-14 0)
(8.06106e-16 3.65812e-14 0)
(1.6106e-15 3.87101e-14 0)
(1.31029e-15 4.04305e-14 0)
(3.03266e-15 4.22443e-14 0)
(7.44723e-15 4.37192e-14 0)
(1.24343e-14 4.51269e-14 0)
(1.66045e-14 4.66578e-14 0)
(2.01317e-14 4.83755e-14 0)
(2.26283e-14 4.96294e-14 0)
(2.40381e-14 5.07769e-14 0)
(2.5706e-14 5.15995e-14 0)
(2.84149e-14 5.24971e-14 0)
(3.07474e-14 5.33541e-14 0)
(3.18558e-14 5.34514e-14 0)
(3.26007e-14 5.29994e-14 0)
(3.30469e-14 5.20934e-14 0)
(3.28609e-14 5.10936e-14 0)
(3.25449e-14 5.01834e-14 0)
(3.25742e-14 5.01501e-14 0)
(3.23364e-14 5.00675e-14 0)
(3.1933e-14 4.92838e-14 0)
(3.23824e-14 4.71386e-14 0)
(3.4066e-14 4.52345e-14 0)
(3.70302e-14 4.4784e-14 0)
(4.0686e-14 4.42055e-14 0)
(4.34536e-14 4.34957e-14 0)
(4.49113e-14 4.25068e-14 0)
(4.55817e-14 4.07618e-14 0)
(4.55729e-14 3.87968e-14 0)
(4.57486e-14 3.65433e-14 0)
(4.65565e-14 3.45236e-14 0)
(4.85938e-14 3.28989e-14 0)
(5.13834e-14 3.07124e-14 0)
(5.36321e-14 2.9243e-14 0)
(5.55093e-14 2.87387e-14 0)
(5.7468e-14 2.80308e-14 0)
(5.97996e-14 2.71494e-14 0)
(6.1404e-14 2.56444e-14 0)
(6.23114e-14 2.38017e-14 0)
(6.37348e-14 2.1957e-14 0)
(6.49273e-14 1.98412e-14 0)
(6.56252e-14 1.76774e-14 0)
(6.57998e-14 1.52976e-14 0)
(6.47287e-14 1.23827e-14 0)
(6.25096e-14 9.59438e-15 0)
(5.95887e-14 6.68297e-15 0)
(5.71852e-14 4.35735e-15 0)
(5.55141e-14 2.24529e-15 0)
(5.28428e-14 3.75282e-16 0)
(4.86438e-14 -9.95304e-16 0)
(4.28225e-14 -2.10394e-15 0)
(3.54946e-14 -3.12046e-15 0)
(2.76361e-14 -3.25909e-15 0)
(2.03566e-14 -3.36114e-15 0)
(1.39774e-14 -3.1053e-15 0)
(8.62453e-15 -2.62983e-15 0)
(3.71357e-15 -8.36045e-16 0)
(-2.04561e-15 -6.19365e-16 0)
(-5.80845e-15 -1.40446e-15 0)
(-9.08516e-15 -2.03663e-15 0)
(-1.27806e-14 -1.77842e-15 0)
(-1.73629e-14 -1.4183e-15 0)
(-2.16197e-14 -1.21559e-15 0)
(-2.59556e-14 -3.85989e-16 0)
(-3.11375e-14 3.6546e-16 0)
(-3.61617e-14 1.68396e-15 0)
(-3.9926e-14 3.58818e-15 0)
(-4.15392e-14 5.11538e-15 0)
(-4.18901e-14 6.32162e-15 0)
(-4.28909e-14 7.70928e-15 0)
(-4.5495e-14 8.89723e-15 0)
(-4.87784e-14 1.047e-14 0)
(-5.21646e-14 1.21193e-14 0)
(-5.53884e-14 1.41195e-14 0)
(-5.79305e-14 1.53991e-14 0)
(-5.96276e-14 1.59122e-14 0)
(-5.96736e-14 1.58742e-14 0)
(-5.7978e-14 1.54681e-14 0)
(-5.55655e-14 1.48285e-14 0)
(-5.3316e-14 1.4379e-14 0)
(-5.19325e-14 1.40981e-14 0)
(-5.12513e-14 1.38745e-14 0)