/*--------------------------------*- C++ -*----------------------------------*\
| =========                 |                                                 |
| \\      /  F ield         | OpenFOAM: The Open Source CFD Toolbox           |
|  \\    /   O peration     | Version:  v2012                                 |
|   \\  /    A nd           | Website:  www.openfoam.com                      |
|    \\/     M anipulation  |                                                 |
\*---------------------------------------------------------------------------*/
FoamFile
{
    version     2.0;
    format      ascii;
    class       volScalarField;
    location    "14";
    object      Psi_z;
}
// * * * * * * * * * * * * * * * * * * * * * * * * * * * * * * * * * * * * * //

dimensions      [0 2 -1 0 0 0 0];


internalField   nonuniform List<scalar> 
65536
(
8.67243e-06
2.60178e-05
4.33648e-05
6.07144e-05
7.80678e-05
9.54259e-05
0.00011279
0.000130161
0.000147539
0.000164927
0.000182324
0.000199732
0.000217152
0.000234584
0.00025203
0.000269489
0.000286964
0.000304454
0.00032196
0.000339483
0.000357023
0.000374581
0.000392158
0.000409753
0.000427367
0.000445
0.000462652
0.000480324
0.000498015
0.000515725
0.000533454
0.000551202
0.000568968
0.000586751
0.000604552
0.000622369
0.000640202
0.000658049
0.00067591
0.000693782
0.000711666
0.000729559
0.00074746
0.000765367
0.000783277
0.00080119
0.000819102
0.000837012
0.000854916
0.000872812
0.000890698
0.000908569
0.000926422
0.000944256
0.000962064
0.000979844
0.000997593
0.0010153
0.00103298
0.0010506
0.00106818
0.0010857
0.00110316
0.00112055
0.00113787
0.00115512
0.00117228
0.00118936
0.00120633
0.00122321
0.00123998
0.00125663
0.00127316
0.00128956
0.00130583
0.00132195
0.00133791
0.00135372
0.00136936
0.00138483
0.00140011
0.0014152
0.00143009
0.00144477
0.00145923
0.00147347
0.00148747
0.00150123
0.00151474
0.00152799
0.00154098
0.00155368
0.00156611
0.00157823
0.00159006
0.00160158
0.00161278
0.00162365
0.00163419
0.00164439
0.00165424
0.00166374
0.00167287
0.00168164
0.00169003
0.00169804
0.00170566
0.00171289
0.00171972
0.00172614
0.00173216
0.00173777
0.00174296
0.00174773
0.00175207
0.00175599
0.00175949
0.00176255
0.00176518
0.00176737
0.00176913
0.00177046
0.00177135
0.00177181
0.00177183
0.00177142
0.00177058
0.00176931
0.00176761
0.00176548
0.00176294
0.00175997
0.00175659
0.0017528
0.0017486
0.001744
0.00173901
0.00173362
0.00172784
0.00172169
0.00171515
0.00170825
0.00170099
0.00169337
0.0016854
0.00167709
0.00166845
0.00165948
0.00165018
0.00164058
0.00163067
0.00162046
0.00160996
0.00159917
0.00158812
0.00157679
0.00156521
0.00155338
0.0015413
0.00152899
0.00151645
0.00150369
0.00149071
0.00147754
0.00146416
0.0014506
0.00143685
0.00142293
0.00140884
0.00139458
0.00138018
0.00136562
0.00135093
0.0013361
0.00132114
0.00130607
0.00129087
0.00127557
0.00126016
0.00124466
0.00122906
0.00121338
0.00119761
0.00118177
0.00116586
0.00114987
0.00113383
0.00111773
0.00110157
0.00108537
0.00106912
0.00105282
0.00103649
0.00102013
0.00100373
0.000987309
0.00097086
0.000954389
0.0009379
0.000921395
0.000904875
0.000888345
0.000871806
0.00085526
0.000838709
0.000822156
0.000805602
0.000789049
0.000772498
0.000755952
0.000739411
0.000722876
0.00070635
0.000689833
0.000673325
0.000656829
0.000640344
0.000623872
0.000607413
0.000590968
0.000574537
0.000558121
0.00054172
0.000525334
0.000508964
0.00049261
0.000476271
0.000459948
0.000443641
0.000427349
0.000411073
0.000394813
0.000378568
0.000362337
0.000346121
0.00032992
0.000313732
0.000297557
0.000281396
0.000265246
0.000249109
0.000232982
0.000216867
0.000200761
0.000184665
0.000168577
0.000152498
0.000136425
0.00012036
0.0001043
8.82451e-05
7.21946e-05
5.61477e-05
4.01035e-05
2.40613e-05
8.02031e-06
2.60169e-05
7.80522e-05
0.000130092
0.00018214
0.000234199
0.000286273
0.000338364
0.000390475
0.00044261
0.000494772
0.000546963
0.000599186
0.000651445
0.00070374
0.000756076
0.000808454
0.000860877
0.000913346
0.000965864
0.00101843
0.00107105
0.00112373
0.00117646
0.00122924
0.00128208
0.00133498
0.00138794
0.00144095
0.00149403
0.00154716
0.00160035
0.00165359
0.00170689
0.00176024
0.00181364
0.00186709
0.00192059
0.00197414
0.00202772
0.00208134
0.00213499
0.00218867
0.00224238
0.0022961
0.00234983
0.00240357
0.00245731
0.00251104
0.00256476
0.00261845
0.00267211
0.00272573
0.00277929
0.00283279
0.00288622
0.00293957
0.00299282
0.00304596
0.00309897
0.00315186
0.00320459
0.00325715
0.00330954
0.00336172
0.0034137
0.00346544
0.00351694
0.00356816
0.00361911
0.00366974
0.00372005
0.00377002
0.00381962
0.00386883
0.00391763
0.003966
0.00401391
0.00406134
0.00410827
0.00415467
0.00420052
0.0042458
0.00429047
0.00433452
0.00437792
0.00442064
0.00446266
0.00450395
0.00454449
0.00458426
0.00462321
0.00466134
0.00469861
0.004735
0.00477049
0.00480505
0.00483866
0.00487129
0.00490292
0.00493352
0.00496309
0.00499158
0.00501899
0.0050453
0.00507047
0.0050945
0.00511737
0.00513906
0.00515956
0.00517884
0.0051969
0.00521372
0.00522929
0.0052436
0.00525665
0.00526841
0.00527889
0.00528807
0.00529596
0.00530255
0.00530784
0.00531181
0.00531449
0.00531586
0.00531592
0.00531469
0.00531216
0.00530834
0.00530324
0.00529687
0.00528923
0.00528033
0.00527019
0.00525881
0.00524621
0.00523241
0.00521741
0.00520124
0.00518391
0.00516543
0.00514583
0.00512512
0.00510333
0.00508046
0.00505655
0.00503162
0.00500567
0.00497875
0.00495086
0.00492204
0.00489229
0.00486166
0.00483015
0.0047978
0.00476462
0.00473064
0.00469588
0.00466037
0.00462414
0.00458719
0.00454956
0.00451127
0.00447235
0.00443281
0.00439267
0.00435197
0.00431072
0.00426895
0.00422667
0.0041839
0.00414068
0.00409701
0.00405292
0.00400843
0.00396355
0.00391831
0.00387272
0.00382681
0.00378058
0.00373407
0.00368727
0.00364021
0.00359291
0.00354538
0.00349763
0.00344968
0.00340155
0.00335324
0.00330477
0.00325615
0.00320739
0.00315851
0.00310951
0.00306042
0.00301122
0.00296195
0.0029126
0.00286319
0.00281371
0.0027642
0.00271464
0.00266504
0.00261542
0.00256578
0.00251613
0.00246647
0.0024168
0.00236714
0.00231749
0.00226785
0.00221822
0.00216862
0.00211904
0.00206949
0.00201996
0.00197047
0.00192102
0.0018716
0.00182223
0.00177289
0.0017236
0.00167435
0.00162514
0.00157599
0.00152688
0.00147781
0.0014288
0.00137983
0.00133091
0.00128203
0.0012332
0.00118442
0.00113569
0.001087
0.00103835
0.000989745
0.000941182
0.000892658
0.000844174
0.000795726
0.000747314
0.000698936
0.00065059
0.000602274
0.000553985
0.000505723
0.000457486
0.000409269
0.000361073
0.000312894
0.000264731
0.00021658
0.00016844
0.000120308
7.21827e-05
2.40605e-05
4.33598e-05
0.000130082
0.000216812
0.000303555
0.000390316
0.000477102
0.000563917
0.000650767
0.000737655
0.000824588
0.00091157
0.000998606
0.0010857
0.00117286
0.00126008
0.00134737
0.00143474
0.00152219
0.00160972
0.00169733
0.00178503
0.00187282
0.0019607
0.00204867
0.00213674
0.00222491
0.00231317
0.00240153
0.00248998
0.00257853
0.00266718
0.00275592
0.00284475
0.00293368
0.00302268
0.00311177
0.00320094
0.00329018
0.00337949
0.00346886
0.00355829
0.00364776
0.00373728
0.00382682
0.00391638
0.00400596
0.00409553
0.00418509
0.00427463
0.00436412
0.00445356
0.00454294
0.00463222
0.00472141
0.00481047
0.00489939
0.00498815
0.00507673
0.00516511
0.00525326
0.00534116
0.00542879
0.00551611
0.00560311
0.00568976
0.00577601
0.00586186
0.00594726
0.00603219
0.0061166
0.00620048
0.00628378
0.00636647
0.00644851
0.00652986
0.0066105
0.00669038
0.00676946
0.0068477
0.00692506
0.00700151
0.007077
0.00715148
0.00722493
0.00729729
0.00736852
0.00743858
0.00750743
0.00757502
0.00764132
0.00770628
0.00776985
0.007832
0.00789268
0.00795186
0.00800948
0.00806552
0.00811993
0.00817267
0.0082237
0.008273
0.00832052
0.00836622
0.00841008
0.00845206
0.00849213
0.00853027
0.00856643
0.00860061
0.00863276
0.00866287
0.00869092
0.00871689
0.00874075
0.0087625
0.00878211
0.00879958
0.0088149
0.00882805
0.00883904
0.00884785
0.00885448
0.00885893
0.00886121
0.00886132
0.00885926
0.00885504
0.00884867
0.00884016
0.00882952
0.00881678
0.00880193
0.00878502
0.00876604
0.00874503
0.00872201
0.00869699
0.00867002
0.00864112
0.0086103
0.00857761
0.00854308
0.00850673
0.00846861
0.00842873
0.00838715
0.00834389
0.00829899
0.00825248
0.00820441
0.00815482
0.00810373
0.00805119
0.00799724
0.00794192
0.00788526
0.00782731
0.0077681
0.00770768
0.00764608
0.00758334
0.0075195
0.0074546
0.00738867
0.00732176
0.0072539
0.00718512
0.00711547
0.00704498
0.00697369
0.00690162
0.00682882
0.00675531
0.00668114
0.00660632
0.0065309
0.00645491
0.00637836
0.0063013
0.00622375
0.00614574
0.0060673
0.00598844
0.00590921
0.00582961
0.00574968
0.00566944
0.00558891
0.00550811
0.00542706
0.00534579
0.00526431
0.00518264
0.0051008
0.0050188
0.00493667
0.00485441
0.00477204
0.00468958
0.00460704
0.00452443
0.00444177
0.00435906
0.00427632
0.00419356
0.00411078
0.004028
0.00394523
0.00386247
0.00377973
0.00369702
0.00361434
0.0035317
0.00344911
0.00336657
0.00328409
0.00320166
0.00311929
0.003037
0.00295477
0.00287261
0.00279053
0.00270852
0.00262659
0.00254474
0.00246297
0.00238127
0.00229966
0.00221812
0.00213667
0.00205529
0.00197399
0.00189276
0.00181161
0.00173054
0.00164953
0.00156859
0.00148772
0.00140692
0.00132617
0.00124549
0.00116486
0.00108428
0.00100376
0.000923281
0.000842846
0.000762452
0.000682094
0.000601769
0.000521474
0.000441204
0.000360955
0.000280725
0.000200508
0.000120301
4.00996e-05
6.06999e-05
0.000182103
0.000303518
0.000424951
0.00054641
0.000667903
0.000789437
0.000911019
0.00103266
0.00115436
0.00127612
0.00139797
0.00151989
0.00164191
0.00176401
0.00188622
0.00200853
0.00213095
0.00225349
0.00237614
0.00249892
0.00262182
0.00274485
0.00286801
0.00299131
0.00311474
0.0032383
0.003362
0.00348584
0.00360982
0.00373392
0.00385816
0.00398253
0.00410703
0.00423164
0.00435638
0.00448122
0.00460616
0.0047312
0.00485633
0.00498154
0.00510682
0.00523215
0.00535752
0.00548293
0.00560835
0.00573377
0.00585917
0.00598454
0.00610985
0.00623509
0.00636023
0.00648526
0.00661014
0.00673486
0.00685937
0.00698367
0.00710771
0.00723147
0.00735492
0.00747802
0.00760073
0.00772302
0.00784486
0.0079662
0.008087
0.00820723
0.00832683
0.00844578
0.00856401
0.00868148
0.00879815
0.00891396
0.00902887
0.00914282
0.00925577
0.00936765
0.00947842
0.00958801
0.00969638
0.00980346
0.0099092
0.0100135
0.0101164
0.0102178
0.0103176
0.0104157
0.0105122
0.0106069
0.0106997
0.0107907
0.0108798
0.0109669
0.0110519
0.0111348
0.0112155
0.011294
0.0113702
0.0114441
0.0115156
0.0115847
0.0116513
0.0117153
0.0117767
0.0118356
0.0118917
0.0119451
0.0119958
0.0120437
0.0120887
0.0121309
0.0121702
0.0122066
0.01224
0.0122705
0.012298
0.0123224
0.0123439
0.0123623
0.0123777
0.01239
0.0123993
0.0124056
0.0124087
0.0124089
0.012406
0.0124001
0.0123911
0.0123792
0.0123643
0.0123464
0.0123256
0.0123019
0.0122753
0.0122459
0.0122136
0.0121785
0.0121407
0.0121002
0.0120571
0.0120112
0.0119629
0.0119119
0.0118585
0.0118026
0.0117444
0.0116837
0.0116208
0.0115557
0.0114883
0.0114188
0.0113473
0.0112737
0.0111981
0.0111206
0.0110412
0.01096
0.0108771
0.0107924
0.0107061
0.0106182
0.0105288
0.0104379
0.0103455
0.0102518
0.0101567
0.0100604
0.00996284
0.00986411
0.00976425
0.00966331
0.00956134
0.00945838
0.00935449
0.00924971
0.00914408
0.00903764
0.00893044
0.00882251
0.00871391
0.00860465
0.00849479
0.00838436
0.0082734
0.00816193
0.00805
0.00793763
0.00782485
0.00771171
0.00759821
0.00748441
0.00737031
0.00725594
0.00714134
0.00702652
0.00691151
0.00679633
0.00668099
0.00656553
0.00644996
0.00633429
0.00621854
0.00610274
0.00598689
0.005871
0.00575511
0.0056392
0.00552331
0.00540744
0.00529159
0.00517578
0.00506003
0.00494433
0.00482869
0.00471313
0.00459764
0.00448224
0.00436692
0.0042517
0.00413658
0.00402156
0.00390664
0.00379183
0.00367713
0.00356253
0.00344805
0.00333368
0.00321942
0.00310527
0.00299123
0.0028773
0.00276348
0.00264977
0.00253616
0.00242265
0.00230925
0.00219594
0.00208272
0.0019696
0.00185656
0.0017436
0.00163073
0.00151793
0.0014052
0.00129253
0.00117993
0.00106738
0.000954887
0.000842437
0.000730028
0.000617656
0.000505313
0.000392995
0.000280697
0.000168413
5.61367e-05
7.80363e-05
0.000234114
0.000390205
0.000546321
0.00070247
0.000858663
0.00101491
0.00117122
0.0013276
0.00148405
0.0016406
0.00179725
0.001954
0.00211086
0.00226785
0.00242496
0.00258221
0.0027396
0.00289714
0.00305483
0.00321268
0.00337069
0.00352887
0.00368722
0.00384574
0.00400443
0.0041633
0.00432235
0.00448157
0.00464097
0.00480054
0.00496028
0.00512019
0.00528026
0.00544049
0.00560087
0.00576139
0.00592205
0.00608283
0.00624373
0.00640473
0.00656581
0.00672697
0.00688819
0.00704945
0.00721073
0.00737202
0.00753328
0.0076945
0.00785565
0.00801671
0.00817765
0.00833844
0.00849905
0.00865944
0.00881958
0.00897944
0.00913898
0.00929815
0.00945693
0.00961525
0.00977309
0.00993039
0.0100871
0.0102432
0.0103986
0.0105532
0.0107071
0.0108601
0.0110122
0.0111633
0.0113134
0.0114624
0.0116102
0.0117568
0.0119021
0.012046
0.0121886
0.0123296
0.012469
0.0126068
0.0127428
0.0128771
0.0130094
0.0131399
0.0132683
0.0133946
0.0135187
0.0136405
0.01376
0.0138771
0.0139917
0.0141038
0.0142132
0.0143199
0.0144238
0.0145248
0.0146229
0.014718
0.01481
0.0148989
0.0149846
0.015067
0.0151461
0.0152217
0.015294
0.0153628
0.015428
0.0154896
0.0155476
0.0156019
0.0156524
0.0156992
0.0157423
0.0157815
0.0158168
0.0158483
0.0158759
0.0158996
0.0159194
0.0159353
0.0159472
0.0159552
0.0159593
0.0159595
0.0159558
0.0159481
0.0159366
0.0159212
0.015902
0.015879
0.0158522
0.0158217
0.0157874
0.0157495
0.015708
0.0156629
0.0156142
0.015562
0.0155064
0.0154475
0.0153852
0.0153196
0.0152508
0.0151789
0.0151039
0.0150259
0.0149449
0.0148611
0.0147744
0.0146849
0.0145928
0.0144981
0.0144008
0.0143011
0.0141989
0.0140945
0.0139877
0.0138788
0.0137677
0.0136547
0.0135396
0.0134226
0.0133038
0.0131832
0.0130609
0.0129369
0.0128114
0.0126844
0.0125559
0.012426
0.0122948
0.0121624
0.0120287
0.011894
0.0117581
0.0116211
0.0114832
0.0113444
0.0112047
0.0110642
0.0109229
0.0107808
0.0106381
0.0104947
0.0103508
0.0102062
0.0100612
0.00991565
0.00976969
0.00962332
0.00947657
0.00932949
0.0091821
0.00903444
0.00888653
0.0087384
0.00859008
0.0084416
0.00829297
0.00814422
0.00799538
0.00784646
0.00769749
0.00754847
0.00739944
0.0072504
0.00710138
0.00695238
0.00680341
0.00665451
0.00650566
0.00635689
0.0062082
0.00605961
0.00591112
0.00576273
0.00561447
0.00546632
0.0053183
0.00517041
0.00502265
0.00487503
0.00472755
0.00458022
0.00443302
0.00428597
0.00413907
0.0039923
0.00384568
0.00369921
0.00355287
0.00340667
0.00326061
0.00311467
0.00296887
0.00282319
0.00267763
0.00253219
0.00238687
0.00224165
0.00209653
0.0019515
0.00180657
0.00166173
0.00151696
0.00137226
0.00122763
0.00108306
0.000938548
0.000794078
0.000649646
0.000505247
0.000360873
0.000216517
7.2171e-05
9.53678e-05
0.000286109
0.000476868
0.000667657
0.000858487
0.00104937
0.00124032
0.00143134
0.00162245
0.00181367
0.00200499
0.00219642
0.00238799
0.0025797
0.00277156
0.00296357
0.00315575
0.00334811
0.00354064
0.00373337
0.00392628
0.0041194
0.00431272
0.00450625
0.00469999
0.00489395
0.00508812
0.00528251
0.00547712
0.00567194
0.00586698
0.00606223
0.00625768
0.00645334
0.00664918
0.00684522
0.00704143
0.00723781
0.00743435
0.00763102
0.00782783
0.00802474
0.00822175
0.00841883
0.00861596
0.00881312
0.00901029
0.00920744
0.00940454
0.00960155
0.00979846
0.00999522
0.0101918
0.0103882
0.0105843
0.0107801
0.0109755
0.0111706
0.0113652
0.0115594
0.011753
0.011946
0.0121383
0.01233
0.0125209
0.0127109
0.0129
0.0130882
0.0132753
0.0134613
0.0136461
0.0138297
0.0140119
0.0141927
0.0143721
0.0145498
0.0147259
0.0149002
0.0150727
0.0152432
0.0154118
0.0155782
0.0157425
0.0159044
0.016064
0.0162211
0.0163756
0.0165274
0.0166765
0.0168227
0.016966
0.0171062
0.0172433
0.0173772
0.0175077
0.0176349
0.0177585
0.0178785
0.0179949
0.0181075
0.0182163
0.0183211
0.018422
0.0185187
0.0186114
0.0186998
0.0187839
0.0188637
0.0189391
0.0190101
0.0190765
0.0191384
0.0191957
0.0192483
0.0192963
0.0193396
0.0193781
0.0194119
0.0194409
0.0194651
0.0194845
0.0194991
0.0195089
0.0195138
0.019514
0.0195094
0.0195001
0.0194859
0.0194671
0.0194436
0.0194154
0.0193826
0.0193452
0.0193032
0.0192568
0.019206
0.0191507
0.0190911
0.0190273
0.0189592
0.018887
0.0188108
0.0187305
0.0186463
0.0185583
0.0184665
0.018371
0.0182719
0.0181693
0.0180632
0.0179537
0.017841
0.0177251
0.0176061
0.017484
0.017359
0.0172312
0.0171006
0.0169673
0.0168314
0.0166931
0.0165523
0.0164092
0.0162638
0.0161163
0.0159666
0.015815
0.0156615
0.0155061
0.0153489
0.0151901
0.0150296
0.0148676
0.0147042
0.0145393
0.0143731
0.0142056
0.014037
0.0138672
0.0136964
0.0135245
0.0133517
0.013178
0.0130034
0.0128281
0.0126521
0.0124753
0.012298
0.0121201
0.0119416
0.0117626
0.0115832
0.0114034
0.0112232
0.0110426
0.0108618
0.0106807
0.0104993
0.0103178
0.0101361
0.00995427
0.0097723
0.00959025
0.00940813
0.00922597
0.00904378
0.00886159
0.00867942
0.00849728
0.00831519
0.00813317
0.00795123
0.00776938
0.00758763
0.007406
0.00722449
0.00704312
0.00686189
0.00668081
0.00649989
0.00631912
0.00613853
0.0059581
0.00577784
0.00559776
0.00541786
0.00523813
0.00505858
0.0048792
0.0047
0.00452098
0.00434212
0.00416344
0.00398492
0.00380657
0.00362837
0.00345033
0.00327243
0.00309468
0.00291707
0.00273959
0.00256223
0.00238499
0.00220786
0.00203084
0.00185392
0.00167708
0.00150032
0.00132364
0.00114702
0.000970461
0.000793948
0.000617474
0.000441031
0.00026461
8.82019e-05
0.000112693
0.000338087
0.000563502
0.000788951
0.00101445
0.00124001
0.00146565
0.00169138
0.00191722
0.00214317
0.00236925
0.00259547
0.00282185
0.00304839
0.00327511
0.00350202
0.00372912
0.00395643
0.00418396
0.00441171
0.00463969
0.0048679
0.00509637
0.00532508
0.00555404
0.00578326
0.00601273
0.00624247
0.00647246
0.00670271
0.00693321
0.00716397
0.00739497
0.00762622
0.0078577
0.0080894
0.00832131
0.00855342
0.00878572
0.00901819
0.00925082
0.00948357
0.00971645
0.00994941
0.0101824
0.0104155
0.0106486
0.0108816
0.0111147
0.0113476
0.0115804
0.011813
0.0120454
0.0122776
0.0125094
0.0127409
0.012972
0.0132027
0.0134328
0.0136624
0.0138913
0.0141195
0.014347
0.0145736
0.0147994
0.0150241
0.0152478
0.0154703
0.0156916
0.0159116
0.0161302
0.0163474
0.0165629
0.0167768
0.0169889
0.0171992
0.0174075
0.0176137
0.0178177
0.0180195
0.0182189
0.0184158
0.0186102
0.0188018
0.0189906
0.0191764
0.0193593
0.0195389
0.0197154
0.0198884
0.0200579
0.0202239
0.0203861
0.0205446
0.020699
0.0208495
0.0209958
0.0211379
0.0212756
0.0214089
0.0215376
0.0216617
0.0217811
0.0218956
0.0220052
0.0221099
0.0222095
0.0223039
0.0223932
0.0224771
0.0225558
0.022629
0.0226968
0.0227591
0.0228159
0.0228671
0.0229126
0.0229526
0.0229869
0.0230155
0.0230385
0.0230557
0.0230673
0.0230731
0.0230733
0.0230679
0.0230568
0.02304
0.0230177
0.0229898
0.0229564
0.0229175
0.0228732
0.0228236
0.0227686
0.0227083
0.0226429
0.0225723
0.0224967
0.0224162
0.0223307
0.0222404
0.0221454
0.0220457
0.0219415
0.0218328
0.0217198
0.0216025
0.021481
0.0213554
0.0212258
0.0210924
0.0209552
0.0208143
0.0206699
0.020522
0.0203707
0.0202161
0.0200584
0.0198976
0.0197339
0.0195673
0.019398
0.019226
0.0190514
0.0188744
0.018695
0.0185134
0.0183296
0.0181437
0.0179558
0.017766
0.0175743
0.017381
0.017186
0.0169894
0.0167913
0.0165919
0.0163911
0.016189
0.0159858
0.0157814
0.015576
0.0153696
0.0151623
0.0149541
0.0147451
0.0145354
0.014325
0.014114
0.0139024
0.0136902
0.0134776
0.0132645
0.0130511
0.0128373
0.0126232
0.0124088
0.0121942
0.0119794
0.0117644
0.0115493
0.0113341
0.0111188
0.0109035
0.0106881
0.0104728
0.0102574
0.0100421
0.00982692
0.00961176
0.00939671
0.00918177
0.00896695
0.00875227
0.00853774
0.00832337
0.00810917
0.00789516
0.00768132
0.00746768
0.00725424
0.007041
0.00682796
0.00661514
0.00640252
0.00619011
0.00597791
0.00576593
0.00555415
0.00534258
0.00513121
0.00492005
0.00470908
0.00449831
0.00428772
0.00407732
0.00386709
0.00365704
0.00344714
0.00323741
0.00302782
0.00281837
0.00260905
0.00239986
0.00219079
0.00198182
0.00177294
0.00156415
0.00135544
0.0011468
0.000938211
0.000729671
0.000521168
0.00031269
0.000104228
0.000130012
0.000390044
0.0006501
0.000910197
0.00117035
0.00143058
0.0016909
0.00195132
0.00221186
0.00247254
0.00273337
0.00299437
0.00325554
0.0035169
0.00377848
0.00404026
0.00430228
0.00456454
0.00482705
0.00508982
0.00535285
0.00561617
0.00587976
0.00614365
0.00640783
0.0066723
0.00693708
0.00720216
0.00746754
0.00773322
0.0079992
0.00826547
0.00853203
0.00879887
0.00906599
0.00933336
0.00960099
0.00986885
0.0101369
0.0104052
0.0106737
0.0109423
0.0112111
0.0114799
0.0117489
0.0120179
0.0122869
0.0125559
0.0128249
0.0130937
0.0133624
0.0136309
0.0138992
0.0141672
0.0144349
0.0147022
0.014969
0.0152353
0.015501
0.015766
0.0160304
0.0162939
0.0165565
0.0168182
0.0170789
0.0173384
0.0175967
0.0178537
0.0181093
0.0183634
0.0186158
0.0188666
0.0191156
0.0193626
0.0196076
0.0198505
0.0200911
0.0203293
0.0205651
0.0207982
0.0210286
0.0212561
0.0214806
0.021702
0.0219201
0.0221349
0.0223461
0.0225537
0.0227576
0.0229576
0.0231535
0.0233453
0.0235328
0.0237158
0.0238944
0.0240683
0.0242374
0.0244016
0.0245608
0.0247148
0.0248636
0.025007
0.025145
0.0252774
0.0254041
0.025525
0.0256401
0.0257493
0.0258525
0.0259495
0.0260404
0.026125
0.0262034
0.0262754
0.026341
0.0264001
0.0264528
0.026499
0.0265386
0.0265717
0.0265982
0.0266181
0.0266314
0.0266382
0.0266383
0.026632
0.0266191
0.0265997
0.0265738
0.0265416
0.0265029
0.0264579
0.0264067
0.0263492
0.0262856
0.0262159
0.0261402
0.0260586
0.0259712
0.025878
0.0257791
0.0256747
0.0255649
0.0254496
0.0253291
0.0252035
0.0250728
0.0249372
0.0247967
0.0246516
0.0245018
0.0243476
0.024189
0.0240262
0.0238592
0.0236883
0.0235134
0.0233348
0.0231526
0.0229668
0.0227776
0.0225851
0.0223895
0.0221908
0.0219891
0.0217846
0.0215774
0.0213675
0.0211552
0.0209404
0.0207234
0.0205041
0.0202828
0.0200595
0.0198342
0.0196072
0.0193785
0.0191481
0.0189162
0.0186829
0.0184482
0.0182122
0.017975
0.0177367
0.0174973
0.0172569
0.0170156
0.0167735
0.0165306
0.0162869
0.0160426
0.0157977
0.0155523
0.0153063
0.0150599
0.0148131
0.014566
0.0143185
0.0140708
0.0138229
0.0135747
0.0133265
0.0130781
0.0128296
0.0125811
0.0123325
0.012084
0.0118354
0.011587
0.0113386
0.0110903
0.0108421
0.010594
0.0103461
0.0100984
0.00985084
0.00960346
0.00935629
0.00910932
0.00886258
0.00861605
0.00836976
0.0081237
0.00787788
0.00763231
0.00738698
0.00714189
0.00689705
0.00665245
0.0064081
0.00616398
0.00592011
0.00567647
0.00543305
0.00518987
0.0049469
0.00470414
0.00446158
0.00421923
0.00397706
0.00373508
0.00349327
0.00325162
0.00301012
0.00276877
0.00252755
0.00228646
0.00204547
0.00180459
0.0015638
0.00132308
0.00108243
0.000841833
0.000601279
0.000360755
0.00012025
0.000147322
0.000441976
0.000736657
0.00103139
0.00132618
0.00162106
0.00191604
0.00221113
0.00250637
0.00280176
0.00309733
0.00339308
0.00368904
0.00398521
0.00428162
0.00457828
0.0048752
0.0051724
0.00546988
0.00576766
0.00606575
0.00636415
0.00666287
0.00696193
0.00726132
0.00756106
0.00786113
0.00816156
0.00846232
0.00876344
0.00906489
0.00936668
0.00966881
0.00997125
0.010274
0.0105771
0.0108804
0.0111841
0.0114879
0.011792
0.0120964
0.0124009
0.0127056
0.0130104
0.0133153
0.0136203
0.0139253
0.0142302
0.0145352
0.01484
0.0151447
0.0154491
0.0157534
0.0160573
0.0163608
0.0166639
0.0169665
0.0172684
0.0175698
0.0178704
0.0181702
0.0184691
0.018767
0.0190638
0.0193595
0.0196539
0.0199469
0.0202385
0.0205284
0.0208167
0.0211032
0.0213877
0.0216702
0.0219505
0.0222285
0.0225041
0.0227772
0.0230475
0.023315
0.0235796
0.0238411
0.0240993
0.0243541
0.0246054
0.024853
0.0250968
0.0253366
0.0255723
0.0258037
0.0260308
0.0262532
0.0264709
0.0266838
0.0268917
0.0270944
0.0272918
0.0274839
0.0276703
0.027851
0.028026
0.0281949
0.0283578
0.0285145
0.0286648
0.0288087
0.0289461
0.0290768
0.0292007
0.0293179
0.0294281
0.0295313
0.0296274
0.0297164
0.0297981
0.0298726
0.0299397
0.0299995
0.0300519
0.0300969
0.0301344
0.0301645
0.030187
0.0302021
0.0302097
0.0302099
0.0302026
0.0301879
0.0301658
0.0301364
0.0300997
0.0300557
0.0300046
0.0299463
0.029881
0.0298087
0.0297295
0.0296435
0.0295507
0.0294514
0.0293455
0.0292332
0.0291146
0.0289897
0.0288588
0.028722
0.0285792
0.0284308
0.0282767
0.0281172
0.0279524
0.0277823
0.0276072
0.0274271
0.0272422
0.0270526
0.0268585
0.02666
0.0264572
0.0262503
0.0260394
0.0258246
0.0256062
0.0253841
0.0251585
0.0249296
0.0246975
0.0244623
0.0242241
0.0239832
0.0237395
0.0234932
0.0232444
0.0229932
0.0227398
0.0224843
0.0222267
0.0219672
0.0217059
0.0214428
0.0211781
0.0209119
0.0206442
0.0203751
0.0201048
0.0198333
0.0195607
0.019287
0.0190124
0.0187369
0.0184606
0.0181836
0.0179058
0.0176275
0.0173486
0.0170692
0.0167893
0.0165091
0.0162285
0.0159477
0.0156665
0.0153852
0.0151037
0.0148221
0.0145404
0.0142587
0.0139769
0.0136951
0.0134134
0.0131317
0.0128501
0.0125687
0.0122873
0.0120062
0.0117252
0.0114444
0.0111638
0.0108834
0.0106032
0.0103233
0.0100436
0.0097642
0.00948505
0.00920617
0.00892757
0.00864924
0.0083712
0.00809343
0.00781594
0.00753874
0.00726181
0.00698516
0.00670878
0.00643266
0.00615681
0.00588121
0.00560586
0.00533076
0.00505588
0.00478124
0.00450681
0.00423258
0.00395856
0.00368472
0.00341105
0.00313755
0.0028642
0.00259099
0.00231791
0.00204494
0.00177207
0.0014993
0.00122659
0.000953953
0.00068136
0.000408802
0.000136265
0.000164623
0.00049388
0.000823168
0.00115251
0.00148192
0.00181143
0.00214105
0.00247081
0.00280073
0.00313082
0.0034611
0.00379159
0.00412232
0.00445329
0.00478453
0.00511604
0.00544785
0.00577998
0.00611242
0.0064452
0.00677832
0.00711181
0.00744565
0.00777988
0.00811448
0.00844946
0.00878484
0.00912061
0.00945677
0.00979331
0.0101302
0.0104676
0.0108053
0.0111433
0.0114817
0.0118205
0.0121596
0.012499
0.0128387
0.0131787
0.0135189
0.0138593
0.0141999
0.0145407
0.0148816
0.0152226
0.0155636
0.0159046
0.0162456
0.0165864
0.0169271
0.0172676
0.0176078
0.0179477
0.0182871
0.0186261
0.0189645
0.0193023
0.0196393
0.0199756
0.0203109
0.0206453
0.0209786
0.0213106
0.0216414
0.0219708
0.0222986
0.0226248
0.0229493
0.0232718
0.0235924
0.0239108
0.0242269
0.0245407
0.0248518
0.0251603
0.0254659
0.0257685
0.026068
0.0263641
0.0266568
0.0269459
0.0272312
0.0275125
0.0277898
0.0280627
0.0283312
0.0285952
0.0288543
0.0291085
0.0293576
0.0296015
0.0298399
0.0300727
0.0302997
0.0305208
0.0307359
0.0309447
0.0311472
0.0313431
0.0315324
0.0317148
0.0318903
0.0320587
0.0322199
0.0323737
0.0325202
0.032659
0.0327902
0.0329137
0.0330292
0.0331369
0.0332365
0.0333281
0.0334115
0.0334867
0.0335537
0.0336123
0.0336626
0.0337046
0.0337382
0.0337635
0.0337803
0.0337888
0.0337889
0.0337807
0.0337642
0.0337393
0.0337063
0.0336651
0.0336158
0.0335584
0.033493
0.0334198
0.0333387
0.0332499
0.0331535
0.0330495
0.0329381
0.0328194
0.0326935
0.0325606
0.0324207
0.032274
0.0321206
0.0319607
0.0317944
0.0316218
0.0314431
0.0312584
0.0310679
0.0308717
0.0306699
0.0304629
0.0302505
0.0300331
0.0298108
0.0295837
0.0293521
0.0291159
0.0288754
0.0286308
0.0283821
0.0281296
0.0278733
0.0276135
0.0273502
0.0270836
0.0268139
0.0265411
0.0262655
0.025987
0.025706
0.0254224
0.0251364
0.0248482
0.0245578
0.0242654
0.0239711
0.0236749
0.023377
0.0230775
0.0227765
0.0224741
0.0221704
0.0218654
0.0215593
0.0212522
0.0209441
0.020635
0.0203252
0.0200145
0.0197033
0.0193914
0.0190789
0.018766
0.0184526
0.0181388
0.0178248
0.0175104
0.0171959
0.0168811
0.0165663
0.0162513
0.0159363
0.0156213
0.0153062
0.0149913
0.0146764
0.0143616
0.014047
0.0137325
0.0134181
0.013104
0.0127901
0.0124765
0.012163
0.0118499
0.011537
0.0112244
0.0109121
0.0106001
0.0102884
0.00997699
0.00966591
0.00935515
0.0090447
0.00873457
0.00842476
0.00811526
0.00780607
0.00749718
0.0071886
0.00688031
0.00657231
0.00626459
0.00595715
0.00564996
0.00534303
0.00503635
0.0047299
0.00442367
0.00411764
0.00381182
0.00350618
0.00320071
0.0028954
0.00259023
0.00228519
0.00198026
0.00167544
0.0013707
0.00106603
0.000761408
0.000456829
0.000152274
0.000181913
0.000545752
0.000909625
0.00127356
0.00163757
0.00200169
0.00236594
0.00273034
0.00309491
0.00345968
0.00382466
0.00418988
0.00455535
0.0049211
0.00528715
0.00565351
0.0060202
0.00638723
0.00675462
0.00712239
0.00749055
0.0078591
0.00822806
0.00859744
0.00896725
0.00933749
0.00970816
0.0100793
0.0104508
0.0108228
0.0111952
0.0115681
0.0119414
0.012315
0.0126891
0.0130636
0.0134385
0.0138137
0.0141892
0.0145651
0.0149412
0.0153176
0.0156942
0.0160709
0.0164479
0.0168249
0.017202
0.0175791
0.0179561
0.018333
0.0187098
0.0190864
0.0194626
0.0198385
0.020214
0.0205889
0.0209632
0.0213368
0.0217097
0.0220817
0.0224527
0.0228226
0.0231913
0.0235587
0.0239247
0.0242892
0.024652
0.025013
0.025372
0.025729
0.0260838
0.0264362
0.0267861
0.0271334
0.0274778
0.0278193
0.0281576
0.0284927
0.0288242
0.0291521
0.0294762
0.0297963
0.0301122
0.0304238
0.0307308
0.0310331
0.0313305
0.0316228
0.0319098
0.0321914
0.0324673
0.0327374
0.0330015
0.0332594
0.033511
0.0337559
0.0339942
0.0342256
0.0344499
0.0346669
0.0348766
0.0350787
0.0352732
0.0354598
0.0356384
0.0358089
0.0359711
0.036125
0.0362703
0.0364071
0.0365352
0.0366544
0.0367648
0.0368662
0.0369586
0.0370419
0.0371161
0.037181
0.0372368
0.0372832
0.0373204
0.0373483
0.0373669
0.0373762
0.0373763
0.0373671
0.0373487
0.0373211
0.0372844
0.0372386
0.0371839
0.0371202
0.0370477
0.0369664
0.0368765
0.0367779
0.036671
0.0365557
0.0364322
0.0363006
0.036161
0.0360136
0.0358585
0.0356959
0.0355259
0.0353486
0.0351642
0.034973
0.0347749
0.0345702
0.0343591
0.0341417
0.0339182
0.0336888
0.0334535
0.0332127
0.0329664
0.0327149
0.0324583
0.0321967
0.0319304
0.0316594
0.0313841
0.0311044
0.0308207
0.0305329
0.0302414
0.0299463
0.0296477
0.0293457
0.0290405
0.0287323
0.0284212
0.0281073
0.0277908
0.0274718
0.0271505
0.0268269
0.0265011
0.0261734
0.0258438
0.0255124
0.0251794
0.0248448
0.0245088
0.0241714
0.0238328
0.023493
0.0231521
0.0228103
0.0224675
0.022124
0.0217797
0.0214347
0.0210891
0.020743
0.0203964
0.0200495
0.0197022
0.0193546
0.0190067
0.0186587
0.0183105
0.0179623
0.0176139
0.0172656
0.0169173
0.0165691