/*--------------------------------*- C++ -*----------------------------------*\
| =========                 |                                                 |
| \\      /  F ield         | OpenFOAM: The Open Source CFD Toolbox           |
|  \\    /   O peration     | Version:  v2012                                 |
|   \\  /    A nd           | Website:  www.openfoam.com                      |
|    \\/     M anipulation  |                                                 |
\*---------------------------------------------------------------------------*/
FoamFile
{
    version     2.0;
    format      ascii;
    class       volScalarField;
    location    "14";
    object      W_z;
}
// * * * * * * * * * * * * * * * * * * * * * * * * * * * * * * * * * * * * * //

dimensions      [0 0 -1 0 0 0 0];


internalField   nonuniform List<scalar> 
65536
(
2.11909e-08
4.07313e-08
-3.1788e-07
-4.06785e-07
-4.21461e-07
-4.13247e-07
-4.01872e-07
-3.92279e-07
-3.84576e-07
-3.78733e-07
-3.75295e-07
-3.74173e-07
-3.74891e-07
-3.76476e-07
-3.78786e-07
-3.82048e-07
-3.85962e-07
-3.90613e-07
-3.95758e-07
-4.01267e-07
-4.07157e-07
-4.13161e-07
-4.19573e-07
-4.26425e-07
-4.33329e-07
-4.40413e-07
-4.47644e-07
-4.5488e-07
-4.62367e-07
-4.70011e-07
-4.77605e-07
-4.85347e-07
-4.93164e-07
-5.00819e-07
-5.08498e-07
-5.16299e-07
-5.24054e-07
-5.31836e-07
-5.39694e-07
-5.47427e-07
-5.55115e-07
-5.63022e-07
-5.71025e-07
-5.78919e-07
-5.86837e-07
-5.94886e-07
-6.02993e-07
-6.11247e-07
-6.19781e-07
-6.28444e-07
-6.37121e-07
-6.46017e-07
-6.55242e-07
-6.64612e-07
-6.74056e-07
-6.83719e-07
-6.93582e-07
-7.03501e-07
-7.13546e-07
-7.23874e-07
-7.3438e-07
-7.44863e-07
-7.55339e-07
-7.65901e-07
-7.76488e-07
-7.87053e-07
-7.97717e-07
-8.08548e-07
-8.19391e-07
-8.30093e-07
-8.40716e-07
-8.51398e-07
-8.62155e-07
-8.72962e-07
-8.83867e-07
-8.9491e-07
-9.0602e-07
-9.17141e-07
-9.28375e-07
-9.39854e-07
-9.51539e-07
-9.63284e-07
-9.75041e-07
-9.86889e-07
-9.98898e-07
-1.01107e-06
-1.02339e-06
-1.03581e-06
-1.04824e-06
-1.0606e-06
-1.07293e-06
-1.08534e-06
-1.0979e-06
-1.1105e-06
-1.12305e-06
-1.13557e-06
-1.14815e-06
-1.16077e-06
-1.17337e-06
-1.18598e-06
-1.1987e-06
-1.21153e-06
-1.22437e-06
-1.23718e-06
-1.24995e-06
-1.26272e-06
-1.2755e-06
-1.28818e-06
-1.30063e-06
-1.31284e-06
-1.32485e-06
-1.33669e-06
-1.34827e-06
-1.3595e-06
-1.37032e-06
-1.38072e-06
-1.3907e-06
-1.40028e-06
-1.40949e-06
-1.41827e-06
-1.42652e-06
-1.43425e-06
-1.44151e-06
-1.44837e-06
-1.45494e-06
-1.46126e-06
-1.46727e-06
-1.47287e-06
-1.47814e-06
-1.48327e-06
-1.48833e-06
-1.4933e-06
-1.49815e-06
-1.50282e-06
-1.50719e-06
-1.51129e-06
-1.51516e-06
-1.5188e-06
-1.5222e-06
-1.52521e-06
-1.52774e-06
-1.52984e-06
-1.53148e-06
-1.53263e-06
-1.53335e-06
-1.53363e-06
-1.53348e-06
-1.53296e-06
-1.53194e-06
-1.53054e-06
-1.52897e-06
-1.5271e-06
-1.52506e-06
-1.52273e-06
-1.51993e-06
-1.51692e-06
-1.51386e-06
-1.51085e-06
-1.50759e-06
-1.50419e-06
-1.50079e-06
-1.49749e-06
-1.49413e-06
-1.49076e-06
-1.48735e-06
-1.48406e-06
-1.48074e-06
-1.47741e-06
-1.47392e-06
-1.47039e-06
-1.46673e-06
-1.46292e-06
-1.45905e-06
-1.45505e-06
-1.45093e-06
-1.44661e-06
-1.44205e-06
-1.43728e-06
-1.43242e-06
-1.42747e-06
-1.42233e-06
-1.41696e-06
-1.41133e-06
-1.40559e-06
-1.39976e-06
-1.39371e-06
-1.38737e-06
-1.38079e-06
-1.37387e-06
-1.36659e-06
-1.35887e-06
-1.3508e-06
-1.3425e-06
-1.33393e-06
-1.32505e-06
-1.31597e-06
-1.30686e-06
-1.2978e-06
-1.28867e-06
-1.27945e-06
-1.27013e-06
-1.26069e-06
-1.25113e-06
-1.2413e-06
-1.23112e-06
-1.22048e-06
-1.20933e-06
-1.19755e-06
-1.18504e-06
-1.1717e-06
-1.15745e-06
-1.14224e-06
-1.12591e-06
-1.10831e-06
-1.08948e-06
-1.06948e-06
-1.04831e-06
-1.02595e-06
-1.00256e-06
-9.78321e-07
-9.53469e-07
-9.28199e-07
-9.0268e-07
-8.76968e-07
-8.51143e-07
-8.25322e-07
-7.9952e-07
-7.73743e-07
-7.47938e-07
-7.21966e-07
-6.9566e-07
-6.68873e-07
-6.41587e-07
-6.13823e-07
-5.85606e-07
-5.57027e-07
-5.28189e-07
-4.99308e-07
-4.70561e-07
-4.42107e-07
-4.14008e-07
-3.86231e-07
-3.58737e-07
-3.31442e-07
-3.0429e-07
-2.77177e-07
-2.49972e-07
-2.22646e-07
-1.95305e-07
-1.68123e-07
-1.41255e-07
-1.14792e-07
-8.87889e-08
-6.32585e-08
-3.82265e-08
-1.28893e-08
5.85677e-08
1.05801e-07
-4.58308e-07
-6.50402e-07
-7.29077e-07
-7.64333e-07
-7.84669e-07
-7.99686e-07
-8.13008e-07
-8.27185e-07
-8.43131e-07
-8.60414e-07
-8.78578e-07
-8.97576e-07
-9.17812e-07
-9.39139e-07
-9.61337e-07
-9.8414e-07
-1.00718e-06
-1.03077e-06
-1.05488e-06
-1.0794e-06
-1.10447e-06
-1.12981e-06
-1.15533e-06
-1.18115e-06
-1.20697e-06
-1.23297e-06
-1.2594e-06
-1.28583e-06
-1.31215e-06
-1.33856e-06
-1.36491e-06
-1.39121e-06
-1.41758e-06
-1.44375e-06
-1.46967e-06
-1.49562e-06
-1.52155e-06
-1.54725e-06
-1.57293e-06
-1.59873e-06
-1.62445e-06
-1.65014e-06
-1.67603e-06
-1.70209e-06
-1.72826e-06
-1.7548e-06
-1.7818e-06
-1.80902e-06
-1.83654e-06
-1.86464e-06
-1.89327e-06
-1.92221e-06
-1.95162e-06
-1.98166e-06
-2.01212e-06
-2.04279e-06
-2.07383e-06
-2.10532e-06
-2.13704e-06
-2.16886e-06
-2.2009e-06
-2.23312e-06
-2.26533e-06
-2.29749e-06
-2.32974e-06
-2.36204e-06
-2.39423e-06
-2.42636e-06
-2.45861e-06
-2.49098e-06
-2.52335e-06
-2.55569e-06
-2.58818e-06
-2.62095e-06
-2.65403e-06
-2.68744e-06
-2.72128e-06
-2.75555e-06
-2.79012e-06
-2.82494e-06
-2.86015e-06
-2.89587e-06
-2.93197e-06
-2.96832e-06
-3.00493e-06
-3.04188e-06
-3.07908e-06
-3.11637e-06
-3.15372e-06
-3.19123e-06
-3.22894e-06
-3.2667e-06
-3.30445e-06
-3.34233e-06
-3.38045e-06
-3.41875e-06
-3.45708e-06
-3.49545e-06
-3.534e-06
-3.57276e-06
-3.61164e-06
-3.65058e-06
-3.6895e-06
-3.72831e-06
-3.76689e-06
-3.80513e-06
-3.84295e-06
-3.88036e-06
-3.91727e-06
-3.95338e-06
-3.98838e-06
-4.0223e-06
-4.05527e-06
-4.08725e-06
-4.11805e-06
-4.14748e-06
-4.17546e-06
-4.20205e-06
-4.22727e-06
-4.25116e-06
-4.27372e-06
-4.29499e-06
-4.31518e-06
-4.33436e-06
-4.35254e-06
-4.36981e-06
-4.38637e-06
-4.40239e-06
-4.41794e-06
-4.43308e-06
-4.44775e-06
-4.46176e-06
-4.47515e-06
-4.48806e-06
-4.50032e-06
-4.51169e-06
-4.52203e-06
-4.53117e-06
-4.53904e-06
-4.54566e-06
-4.55094e-06
-4.55483e-06
-4.5574e-06
-4.55862e-06
-4.55848e-06
-4.5571e-06
-4.55454e-06
-4.55111e-06
-4.54685e-06
-4.54165e-06
-4.53571e-06
-4.52894e-06
-4.52134e-06
-4.51335e-06
-4.50494e-06
-4.49619e-06
-4.487e-06
-4.47763e-06
-4.46828e-06
-4.45907e-06
-4.4498e-06
-4.44062e-06
-4.4315e-06
-4.42257e-06
-4.41354e-06
-4.40443e-06
-4.39517e-06
-4.3858e-06
-4.3762e-06
-4.36628e-06
-4.35607e-06
-4.34549e-06
-4.33438e-06
-4.3228e-06
-4.3108e-06
-4.29837e-06
-4.28558e-06
-4.27224e-06
-4.25827e-06
-4.24371e-06
-4.22866e-06
-4.21331e-06
-4.19759e-06
-4.1811e-06
-4.16361e-06
-4.14518e-06
-4.12578e-06
-4.10533e-06
-4.08362e-06
-4.06054e-06
-4.03636e-06
-4.01117e-06
-3.98514e-06
-3.95841e-06
-3.93121e-06
-3.9036e-06
-3.87564e-06
-3.84717e-06
-3.81827e-06
-3.78875e-06
-3.75847e-06
-3.72711e-06
-3.69446e-06
-3.66035e-06
-3.6246e-06
-3.58708e-06
-3.5475e-06
-3.50566e-06
-3.46138e-06
-3.41447e-06
-3.36473e-06
-3.31194e-06
-3.25605e-06
-3.19711e-06
-3.13511e-06
-3.07013e-06
-3.00244e-06
-2.93244e-06
-2.8605e-06
-2.787e-06
-2.71221e-06
-2.63641e-06
-2.55975e-06
-2.48253e-06
-2.40473e-06
-2.32637e-06
-2.24745e-06
-2.16786e-06
-2.08749e-06
-2.0062e-06
-1.92395e-06
-1.84076e-06
-1.75669e-06
-1.67196e-06
-1.58675e-06
-1.50135e-06
-1.41602e-06
-1.33097e-06
-1.24638e-06
-1.16231e-06
-1.07882e-06
-9.95807e-07
-9.13132e-07
-8.30695e-07
-7.48388e-07
-6.66281e-07
-5.84543e-07
-5.03396e-07
-4.23066e-07
-3.43798e-07
-2.65798e-07
-1.89172e-07
-1.1407e-07
-3.84123e-08
4.00636e-07
6.16852e-07
3.96776e-08
-2.90584e-07
-5.01512e-07
-6.44655e-07
-7.49841e-07
-8.33228e-07
-9.03743e-07
-9.66443e-07
-1.02418e-06
-1.07863e-06
-1.13081e-06
-1.18177e-06
-1.23179e-06
-1.28104e-06
-1.32987e-06
-1.37816e-06
-1.42621e-06
-1.47414e-06
-1.5219e-06
-1.56982e-06
-1.61767e-06
-1.66539e-06
-1.71333e-06
-1.76118e-06
-1.80889e-06
-1.85676e-06
-1.90451e-06
-1.95206e-06
-1.9996e-06
-2.0469e-06
-2.09389e-06
-2.14082e-06
-2.18746e-06
-2.23362e-06
-2.27958e-06
-2.32534e-06
-2.37064e-06
-2.41567e-06
-2.46064e-06
-2.50535e-06
-2.54986e-06
-2.59448e-06
-2.63921e-06
-2.68395e-06
-2.729e-06
-2.77456e-06
-2.82048e-06
-2.86678e-06
-2.9138e-06
-2.96155e-06
-3.00979e-06
-3.05862e-06
-3.10829e-06
-3.15872e-06
-3.2097e-06
-3.26132e-06
-3.31361e-06
-3.36627e-06
-3.41911e-06
-3.47228e-06
-3.5258e-06
-3.57942e-06
-3.63297e-06
-3.68656e-06
-3.74021e-06
-3.79374e-06
-3.84708e-06
-3.90039e-06
-3.95376e-06
-4.00712e-06
-4.06052e-06
-4.11416e-06
-4.16809e-06
-4.22224e-06
-4.27671e-06
-4.33177e-06
-4.38758e-06
-4.444e-06
-4.50093e-06
-4.55848e-06
-4.61682e-06
-4.67595e-06
-4.73569e-06
-4.79593e-06
-4.8567e-06
-4.91804e-06
-4.97982e-06
-5.04192e-06
-5.10435e-06
-5.16716e-06
-5.23029e-06
-5.2936e-06
-5.35708e-06
-5.42085e-06
-5.48495e-06
-5.54937e-06
-5.61409e-06
-5.67907e-06
-5.74435e-06
-5.80989e-06
-5.87558e-06
-5.94138e-06
-6.00723e-06
-6.07297e-06
-6.13836e-06
-6.20317e-06
-6.26732e-06
-6.33077e-06
-6.39333e-06
-6.45461e-06
-6.5143e-06
-6.57231e-06
-6.62865e-06
-6.68318e-06
-6.73568e-06
-6.78597e-06
-6.83397e-06
-6.87976e-06
-6.92332e-06
-6.96459e-06
-7.00358e-06
-7.0404e-06
-7.07533e-06
-7.10857e-06
-7.14025e-06
-7.17054e-06
-7.19959e-06
-7.22757e-06
-7.25459e-06
-7.28078e-06
-7.30625e-06
-7.33085e-06
-7.35448e-06
-7.37712e-06
-7.39859e-06
-7.41856e-06
-7.43684e-06
-7.45329e-06
-7.46765e-06
-7.47981e-06
-7.48964e-06
-7.49713e-06
-7.50246e-06
-7.50565e-06
-7.50677e-06
-7.50583e-06
-7.50292e-06
-7.49841e-06
-7.49238e-06
-7.48502e-06
-7.47635e-06
-7.46642e-06
-7.45549e-06
-7.44357e-06
-7.43095e-06
-7.41768e-06
-7.40407e-06
-7.39014e-06
-7.37618e-06
-7.36224e-06
-7.34845e-06
-7.33481e-06
-7.32139e-06
-7.30809e-06
-7.29493e-06
-7.28164e-06
-7.2682e-06
-7.25442e-06
-7.24036e-06
-7.22594e-06
-7.211e-06
-7.19559e-06
-7.17945e-06
-7.1626e-06
-7.14508e-06
-7.12672e-06
-7.10763e-06
-7.08771e-06
-7.06701e-06
-7.04545e-06
-7.02305e-06
-6.99981e-06
-6.97578e-06
-6.95067e-06
-6.9241e-06
-6.89576e-06
-6.86557e-06
-6.8334e-06
-6.79923e-06
-6.76271e-06
-6.72401e-06
-6.68334e-06
-6.64119e-06
-6.59758e-06
-6.5529e-06
-6.50707e-06
-6.46044e-06
-6.41274e-06
-6.36393e-06
-6.31359e-06
-6.26152e-06
-6.20743e-06
-6.15099e-06
-6.09191e-06
-6.02986e-06
-5.96474e-06
-5.89629e-06
-5.82431e-06
-5.74855e-06
-5.6688e-06
-5.5849e-06
-5.49659e-06
-5.40375e-06
-5.30641e-06
-5.20463e-06
-5.09872e-06
-4.98881e-06
-4.87532e-06
-4.7586e-06
-4.63912e-06
-4.5171e-06
-4.39299e-06
-4.26688e-06
-4.13899e-06
-4.00943e-06
-3.87825e-06
-3.74556e-06
-3.61147e-06
-3.47607e-06
-3.33948e-06
-3.20175e-06
-3.06308e-06
-2.92361e-06
-2.78352e-06
-2.64297e-06
-2.50207e-06
-2.36108e-06
-2.22009e-06
-2.07932e-06
-1.93884e-06
-1.79875e-06
-1.65914e-06
-1.52001e-06
-1.38146e-06
-1.24356e-06
-1.10644e-06
-9.70301e-07
-8.35431e-07
-7.02117e-07
-5.70639e-07
-4.41188e-07
-3.13875e-07
-1.89103e-07
-6.3682e-08
4.23932e-07
6.56831e-07
1.88151e-07
-1.48324e-07
-4.04484e-07
-6.02976e-07
-7.62067e-07
-8.94501e-07
-1.00886e-06
-1.11081e-06
-1.20402e-06
-1.29076e-06
-1.373e-06
-1.4519e-06
-1.52818e-06
-1.60259e-06
-1.67535e-06
-1.74689e-06
-1.81747e-06
-1.8872e-06
-1.95652e-06
-2.02541e-06
-2.09379e-06
-2.16202e-06
-2.22996e-06
-2.29752e-06
-2.36502e-06
-2.43229e-06
-2.49919e-06
-2.56592e-06
-2.6323e-06
-2.69818e-06
-2.76376e-06
-2.82896e-06
-2.89351e-06
-2.95761e-06
-3.02133e-06
-3.08441e-06
-3.14695e-06
-3.20923e-06
-3.27113e-06
-3.33259e-06
-3.39391e-06
-3.45523e-06
-3.51648e-06
-3.57789e-06
-3.63978e-06
-3.7021e-06
-3.76483e-06
-3.82834e-06
-3.89283e-06
-3.95812e-06
-4.02422e-06
-4.09138e-06
-4.15959e-06
-4.22863e-06
-4.29854e-06
-4.36944e-06
-4.44115e-06
-4.51338e-06
-4.58613e-06
-4.65942e-06
-4.73302e-06
-4.80668e-06
-4.88038e-06
-4.95417e-06
-5.0279e-06
-5.10146e-06
-5.17492e-06
-5.24835e-06
-5.32168e-06
-5.39493e-06
-5.46832e-06
-5.54207e-06
-5.61617e-06
-5.69059e-06
-5.76549e-06
-5.84119e-06
-5.91779e-06
-5.99525e-06
-6.0736e-06
-6.15298e-06
-6.23342e-06
-6.31489e-06
-6.39734e-06
-6.48079e-06
-6.56517e-06
-6.65033e-06
-6.73616e-06
-6.82265e-06
-6.90984e-06
-6.99766e-06
-7.08603e-06
-7.1749e-06
-7.26427e-06
-7.35413e-06
-7.44448e-06
-7.53532e-06
-7.62672e-06
-7.71868e-06
-7.81113e-06
-7.90397e-06
-7.99705e-06
-8.09031e-06
-8.18371e-06
-8.277e-06
-8.36987e-06
-8.46208e-06
-8.55342e-06
-8.64363e-06
-8.73247e-06
-8.8197e-06
-8.90504e-06
-8.98817e-06
-9.06887e-06
-9.14698e-06
-9.2223e-06
-9.29465e-06
-9.36395e-06
-9.43013e-06
-9.49317e-06
-9.55313e-06
-9.6101e-06
-9.66411e-06
-9.71539e-06
-9.76424e-06
-9.81087e-06
-9.85551e-06
-9.89846e-06
-9.93996e-06
-9.98008e-06
-1.00189e-05
-1.00566e-05
-1.00932e-05
-1.01285e-05
-1.01623e-05
-1.01943e-05
-1.02243e-05
-1.0252e-05
-1.02771e-05
-1.02993e-05
-1.03185e-05
-1.03345e-05
-1.03472e-05
-1.03568e-05
-1.03633e-05
-1.0367e-05
-1.03679e-05
-1.03661e-05
-1.0362e-05
-1.03558e-05
-1.03477e-05
-1.03377e-05
-1.03261e-05
-1.0313e-05
-1.02987e-05
-1.02833e-05
-1.0267e-05
-1.02501e-05
-1.02329e-05
-1.02154e-05
-1.0198e-05
-1.01808e-05
-1.01638e-05
-1.0147e-05
-1.01304e-05
-1.01139e-05
-1.00973e-05
-1.00804e-05
-1.00631e-05
-1.00454e-05
-1.00271e-05
-1.00082e-05
-9.9886e-06
-9.96817e-06
-9.94672e-06
-9.92425e-06
-9.90069e-06
-9.87597e-06
-9.8501e-06
-9.8232e-06
-9.7952e-06
-9.76607e-06
-9.7356e-06
-9.70383e-06
-9.67053e-06
-9.63541e-06
-9.59793e-06
-9.55778e-06
-9.51466e-06
-9.46862e-06
-9.41952e-06
-9.36743e-06
-9.31239e-06
-9.25506e-06
-9.19565e-06
-9.13462e-06
-9.07193e-06
-9.00777e-06
-8.942e-06
-8.87444e-06
-8.80455e-06
-8.73197e-06
-8.65626e-06
-8.5771e-06
-8.49407e-06
-8.40676e-06
-8.31497e-06
-8.21842e-06
-8.11693e-06
-8.01018e-06
-7.8979e-06
-7.77996e-06
-7.65614e-06
-7.52624e-06
-7.3904e-06
-7.24857e-06
-7.10122e-06
-6.94867e-06
-6.7914e-06
-6.62983e-06
-6.46453e-06
-6.29575e-06
-6.1239e-06
-5.94911e-06
-5.77158e-06
-5.59142e-06
-5.40877e-06
-5.22372e-06
-5.03645e-06
-4.84717e-06
-4.65618e-06
-4.46374e-06
-4.27011e-06
-4.07559e-06
-3.88034e-06
-3.68465e-06
-3.48857e-06
-3.29235e-06
-3.09609e-06
-2.89993e-06
-2.70397e-06
-2.50829e-06
-2.31305e-06
-2.11839e-06
-1.92449e-06
-1.73159e-06
-1.53997e-06
-1.34997e-06
-1.16199e-06
-9.76379e-07
-7.93434e-07
-6.13337e-07
-4.36199e-07
-2.62645e-07
-8.84234e-08
3.7419e-07
5.7319e-07
1.85354e-07
-1.28651e-07
-3.93969e-07
-6.17491e-07
-8.08011e-07
-9.73366e-07
-1.11989e-06
-1.25245e-06
-1.37439e-06
-1.48846e-06
-1.59648e-06
-1.6997e-06
-1.79932e-06
-1.89597e-06
-1.99029e-06
-2.08274e-06
-2.17351e-06
-2.26314e-06
-2.35179e-06
-2.43947e-06
-2.52659e-06
-2.61314e-06
-2.69899e-06
-2.78445e-06
-2.86949e-06
-2.95395e-06
-3.03801e-06
-3.12161e-06
-3.20453e-06
-3.28694e-06
-3.3688e-06
-3.44983e-06
-3.53014e-06
-3.60988e-06
-3.6888e-06
-3.76686e-06
-3.84438e-06
-3.92134e-06
-3.99764e-06
-4.07352e-06
-4.14918e-06
-4.22459e-06
-4.29996e-06
-4.37572e-06
-4.45192e-06
-4.52852e-06
-4.60582e-06
-4.6842e-06
-4.76362e-06
-4.84407e-06
-4.9258e-06
-5.00896e-06
-5.09337e-06
-5.17897e-06
-5.26587e-06
-5.35397e-06
-5.44298e-06
-5.53284e-06
-5.62357e-06
-5.71499e-06
-5.80673e-06
-5.8987e-06
-5.99088e-06
-6.08311e-06
-6.17519e-06
-6.26714e-06
-6.35905e-06
-6.45087e-06
-6.54253e-06
-6.63417e-06
-6.72598e-06
-6.81809e-06
-6.91055e-06
-7.00353e-06
-7.0973e-06
-7.192e-06
-7.28771e-06
-7.38454e-06
-7.48272e-06
-7.58236e-06
-7.68337e-06
-7.78569e-06
-7.88944e-06
-7.99469e-06
-8.10135e-06
-8.20919e-06
-8.31811e-06
-8.42816e-06
-8.53934e-06
-8.65152e-06
-8.76458e-06
-8.8785e-06
-8.99333e-06
-9.10908e-06
-9.22563e-06
-9.34294e-06
-9.46111e-06
-9.58015e-06
-9.69994e-06
-9.82029e-06
-9.94108e-06
-1.00622e-05
-1.01835e-05
-1.03046e-05
-1.04253e-05
-1.05454e-05
-1.06645e-05
-1.07821e-05
-1.0898e-05
-1.10119e-05
-1.11235e-05
-1.12324e-05
-1.13384e-05
-1.14411e-05
-1.15403e-05
-1.16359e-05
-1.17278e-05
-1.18156e-05
-1.18996e-05
-1.19797e-05
-1.2056e-05
-1.21287e-05
-1.2198e-05
-1.22642e-05
-1.23274e-05
-1.23881e-05
-1.24466e-05
-1.25031e-05
-1.2558e-05
-1.26111e-05
-1.26627e-05
-1.27128e-05
-1.27613e-05
-1.28077e-05
-1.28519e-05
-1.28935e-05
-1.29321e-05
-1.29674e-05
-1.29991e-05
-1.30269e-05
-1.30507e-05
-1.30703e-05
-1.30858e-05
-1.30974e-05
-1.31053e-05
-1.31095e-05
-1.31106e-05
-1.31085e-05
-1.31038e-05
-1.30966e-05
-1.3087e-05
-1.30754e-05
-1.30618e-05
-1.30466e-05
-1.30301e-05
-1.30123e-05
-1.29936e-05
-1.29745e-05
-1.2955e-05
-1.29355e-05
-1.29162e-05
-1.2897e-05
-1.28781e-05
-1.28592e-05
-1.28403e-05
-1.28213e-05
-1.28019e-05
-1.27821e-05
-1.27617e-05
-1.27406e-05
-1.27186e-05
-1.26957e-05
-1.26718e-05
-1.26466e-05
-1.26201e-05
-1.25922e-05
-1.25629e-05
-1.2532e-05
-1.24997e-05
-1.2466e-05
-1.24309e-05
-1.23941e-05
-1.23556e-05
-1.2315e-05
-1.2272e-05
-1.22262e-05
-1.21771e-05
-1.21241e-05
-1.20673e-05
-1.20066e-05
-1.19421e-05
-1.1874e-05
-1.18027e-05
-1.17288e-05
-1.16525e-05
-1.15742e-05
-1.14939e-05
-1.14112e-05
-1.1326e-05
-1.12377e-05
-1.11458e-05
-1.10497e-05
-1.09489e-05
-1.08429e-05
-1.07314e-05
-1.0614e-05
-1.04904e-05
-1.03603e-05
-1.02235e-05
-1.00796e-05
-9.92841e-06
-9.76977e-06
-9.60342e-06
-9.42957e-06
-9.24832e-06
-9.06002e-06
-8.86526e-06
-8.66463e-06
-8.45864e-06
-8.24795e-06
-8.03298e-06
-7.81412e-06
-7.59154e-06
-7.36542e-06
-7.13582e-06
-6.90292e-06
-6.66687e-06
-6.42791e-06
-6.18629e-06
-5.94239e-06
-5.69665e-06
-5.44942e-06
-5.20107e-06
-4.95186e-06
-4.70211e-06
-4.45197e-06
-4.20158e-06
-3.95115e-06
-3.70075e-06
-3.4505e-06
-3.20055e-06
-2.95099e-06
-2.70211e-06
-2.45417e-06
-2.20754e-06
-1.96267e-06
-1.72004e-06
-1.48014e-06
-1.24345e-06
-1.01027e-06
-7.80781e-07
-5.55104e-07
-3.34078e-07
-1.12441e-07
3.1306e-07
4.61553e-07
1.19806e-07
-1.73934e-07
-4.3708e-07
-6.70602e-07
-8.78255e-07
-1.06448e-06
-1.23345e-06
-1.38861e-06
-1.53307e-06
-1.6691e-06
-1.79832e-06
-1.92222e-06
-2.04175e-06
-2.15777e-06
-2.27096e-06
-2.38164e-06
-2.4904e-06
-2.59756e-06
-2.70319e-06
-2.80773e-06
-2.91131e-06
-3.01385e-06
-3.11563e-06
-3.21673e-06
-3.317e-06
-3.41658e-06
-3.51549e-06
-3.61351e-06
-3.71075e-06
-3.80729e-06
-3.90281e-06
-3.99733e-06
-4.09101e-06
-4.18369e-06
-4.27523e-06
-4.36588e-06
-4.4557e-06
-4.54458e-06
-4.63272e-06
-4.72037e-06
-4.80752e-06
-4.89432e-06
-4.98125e-06
-5.06854e-06
-5.15616e-06
-5.24439e-06
-5.33366e-06
-5.42412e-06
-5.51576e-06
-5.60884e-06
-5.70361e-06
-5.80001e-06
-5.89797e-06
-5.99762e-06
-6.09896e-06
-6.20172e-06
-6.30571e-06
-6.41096e-06
-6.51733e-06
-6.62447e-06
-6.73211e-06
-6.84022e-06
-6.94866e-06
-7.05717e-06
-7.16559e-06
-7.27395e-06
-7.38223e-06
-7.49032e-06
-7.59829e-06
-7.70636e-06
-7.81462e-06
-7.92309e-06
-8.03193e-06
-8.14151e-06
-8.25209e-06
-8.36376e-06
-8.47663e-06
-8.59096e-06
-8.70702e-06
-8.82491e-06
-8.94459e-06
-9.06608e-06
-9.18949e-06
-9.31489e-06
-9.44219e-06
-9.57123e-06
-9.70195e-06
-9.83439e-06
-9.96852e-06
-1.01041e-05
-1.02411e-05
-1.03795e-05
-1.05193e-05
-1.06604e-05
-1.08028e-05
-1.09465e-05
-1.10914e-05
-1.12374e-05
-1.13845e-05
-1.15324e-05
-1.1681e-05
-1.18302e-05
-1.19796e-05
-1.21289e-05
-1.22778e-05
-1.24259e-05
-1.25729e-05
-1.27185e-05
-1.28621e-05
-1.30032e-05
-1.31417e-05
-1.32772e-05
-1.34092e-05
-1.35375e-05
-1.36616e-05
-1.37816e-05
-1.38971e-05
-1.40081e-05
-1.41145e-05
-1.42162e-05
-1.43135e-05
-1.44065e-05
-1.44954e-05
-1.45805e-05
-1.46622e-05
-1.47408e-05
-1.48165e-05
-1.48898e-05
-1.4961e-05
-1.50301e-05
-1.50973e-05
-1.51626e-05
-1.52257e-05
-1.52864e-05
-1.53443e-05
-1.53992e-05
-1.54504e-05
-1.54977e-05
-1.55405e-05
-1.55786e-05
-1.56118e-05
-1.56401e-05
-1.56634e-05
-1.56819e-05
-1.56957e-05
-1.57052e-05
-1.57108e-05
-1.57127e-05
-1.57112e-05
-1.57067e-05
-1.56994e-05
-1.56895e-05
-1.56774e-05
-1.56631e-05
-1.56471e-05
-1.56296e-05
-1.5611e-05
-1.55916e-05
-1.55717e-05
-1.55516e-05
-1.55316e-05
-1.55116e-05
-1.54918e-05
-1.5472e-05
-1.5452e-05
-1.54317e-05
-1.5411e-05
-1.53897e-05
-1.53677e-05
-1.53448e-05
-1.53209e-05
-1.52958e-05
-1.52695e-05
-1.52416e-05
-1.52121e-05
-1.5181e-05
-1.51481e-05
-1.51134e-05
-1.50768e-05
-1.50384e-05
-1.49983e-05
-1.49562e-05
-1.4912e-05
-1.48652e-05
-1.48156e-05
-1.47624e-05
-1.47054e-05
-1.46438e-05
-1.45776e-05
-1.45065e-05
-1.44308e-05
-1.43509e-05
-1.42672e-05
-1.41801e-05
-1.40901e-05
-1.39975e-05
-1.39022e-05
-1.3804e-05
-1.37025e-05
-1.3597e-05
-1.34869e-05
-1.33716e-05
-1.32503e-05
-1.31227e-05
-1.29881e-05
-1.28462e-05
-1.26967e-05
-1.25392e-05
-1.23734e-05
-1.21991e-05
-1.20157e-05
-1.18233e-05
-1.16217e-05
-1.14108e-05
-1.1191e-05
-1.09628e-05
-1.07267e-05
-1.04836e-05
-1.02341e-05
-9.97895e-06
-9.71869e-06
-9.4538e-06
-9.18449e-06
-8.91094e-06
-8.63322e-06
-8.35144e-06
-8.06582e-06
-7.7767e-06
-7.48442e-06
-7.18934e-06
-6.892e-06
-6.59283e-06
-6.29232e-06
-5.99079e-06
-5.68856e-06
-5.38592e-06
-5.08296e-06
-4.77987e-06
-4.47678e-06
-4.1738e-06
-3.8711e-06
-3.56885e-06
-3.26734e-06
-2.96697e-06
-2.66823e-06
-2.3717e-06
-2.07803e-06
-1.78783e-06
-1.50164e-06
-1.21982e-06
-9.42528e-07
-6.69881e-07
-4.02947e-07
-1.35576e-07
2.56913e-07
3.53204e-07
3.53914e-08
-2.45647e-07
-5.0514e-07
-7.42544e-07
-9.5954e-07
-1.15879e-06
-1.34288e-06
-1.51453e-06
-1.67604e-06
-1.82917e-06
-1.97559e-06
-2.11642e-06
-2.25268e-06
-2.38518e-06
-2.51438e-06
-2.6409e-06
-2.76521e-06
-2.88742e-06
-3.00798e-06
-3.12716e-06
-3.24487e-06
-3.36139e-06
-3.47691e-06
-3.5913e-06
-3.70468e-06
-3.81715e-06
-3.92848e-06
-4.03874e-06
-4.14805e-06
-4.25615e-06
-4.36296e-06
-4.46864e-06
-4.57309e-06
-4.6761e-06
-4.77785e-06
-4.87848e-06
-4.97786e-06
-5.0761e-06
-5.17349e-06
-5.27009e-06
-5.36598e-06
-5.46163e-06
-5.55739e-06
-5.65331e-06
-5.74961e-06
-5.8468e-06
-5.94519e-06
-6.04482e-06
-6.14598e-06
-6.24901e-06
-6.354e-06
-6.46085e-06
-6.56972e-06
-6.68071e-06
-6.79367e-06
-6.90837e-06
-7.0248e-06
-7.14287e-06
-7.26224e-06
-7.38256e-06
-7.5037e-06
-7.62552e-06
-7.74774e-06
-7.87012e-06
-7.99259e-06
-8.11508e-06
-8.23742e-06
-8.35954e-06
-8.48163e-06
-8.60386e-06
-8.72628e-06
-8.84895e-06
-8.97213e-06
-9.09619e-06
-9.22136e-06
-9.3478e-06
-9.47576e-06
-9.60557e-06
-9.73743e-06
-9.87144e-06
-1.00077e-05
-1.01464e-05
-1.02877e-05
-1.04314e-05
-1.05777e-05
-1.07263e-05
-1.08774e-05
-1.10309e-05
-1.11867e-05
-1.13446e-05
-1.15046e-05
-1.16666e-05
-1.18307e-05
-1.19966e-05
-1.21643e-05
-1.23339e-05
-1.25052e-05
-1.2678e-05
-1.28521e-05
-1.30275e-05
-1.32038e-05
-1.3381e-05
-1.35585e-05
-1.3736e-05
-1.39131e-05
-1.40895e-05
-1.42647e-05
-1.44383e-05
-1.46098e-05
-1.47787e-05
-1.49447e-05
-1.51073e-05
-1.5266e-05
-1.54206e-05
-1.55706e-05
-1.57159e-05
-1.58563e-05
-1.59916e-05
-1.61217e-05
-1.62466e-05
-1.63665e-05
-1.64813e-05
-1.65915e-05
-1.66972e-05
-1.6799e-05
-1.68971e-05
-1.69919e-05
-1.70836e-05
-1.71728e-05
-1.72595e-05
-1.73438e-05
-1.74257e-05
-1.7505e-05
-1.75815e-05
-1.76547e-05
-1.77242e-05
-1.77897e-05
-1.78505e-05
-1.79061e-05
-1.79563e-05
-1.80007e-05
-1.80393e-05
-1.80722e-05
-1.80994e-05
-1.8121e-05
-1.81377e-05
-1.81496e-05
-1.81572e-05
-1.81609e-05
-1.8161e-05
-1.81578e-05
-1.81517e-05
-1.81428e-05
-1.81314e-05
-1.81179e-05
-1.81025e-05
-1.80857e-05
-1.80679e-05
-1.80493e-05
-1.80303e-05
-1.8011e-05
-1.79917e-05
-1.79724e-05
-1.79528e-05
-1.79331e-05
-1.79128e-05
-1.7892e-05
-1.78703e-05
-1.78478e-05
-1.78243e-05
-1.77996e-05
-1.77735e-05
-1.77459e-05
-1.77166e-05
-1.76854e-05
-1.76522e-05
-1.76169e-05
-1.75794e-05
-1.75399e-05
-1.7498e-05
-1.7454e-05
-1.74078e-05
-1.73591e-05
-1.73074e-05
-1.72522e-05
-1.7193e-05
-1.71292e-05
-1.70604e-05
-1.6986e-05
-1.69061e-05
-1.68208e-05
-1.67305e-05
-1.66358e-05
-1.65371e-05
-1.64349e-05
-1.63295e-05
-1.62207e-05
-1.61083e-05
-1.59917e-05
-1.58704e-05
-1.57434e-05
-1.56101e-05
-1.54697e-05
-1.53214e-05
-1.5165e-05
-1.49999e-05
-1.48256e-05
-1.4642e-05
-1.44485e-05
-1.42449e-05
-1.40308e-05
-1.38059e-05
-1.35702e-05
-1.33236e-05
-1.30666e-05
-1.27997e-05
-1.25235e-05
-1.22391e-05
-1.19474e-05
-1.1649e-05
-1.13448e-05
-1.10351e-05
-1.07204e-05
-1.04007e-05
-1.00763e-05
-9.74725e-06
-9.41373e-06
-9.07612e-06
-8.73487e-06
-8.39044e-06
-8.04338e-06
-7.69422e-06
-7.34345e-06
-6.99153e-06
-6.63875e-06
-6.28545e-06
-5.93181e-06
-5.57794e-06
-5.224e-06
-4.87011e-06
-4.51647e-06
-4.16334e-06
-3.81106e-06
-3.46012e-06
-3.11114e-06
-2.76485e-06
-2.42203e-06
-2.0834e-06
-1.74959e-06
-1.421e-06
-1.09776e-06
-7.79958e-07
-4.68849e-07
-1.57655e-07
2.08826e-07
2.58234e-07
-4.76612e-08
-3.21926e-07
-5.78889e-07
-8.1812e-07
-1.0406e-06
-1.248e-06
-1.4425e-06
-1.62602e-06
-1.80019e-06
-1.96667e-06
-2.12668e-06
-2.28128e-06
-2.43138e-06
-2.57751e-06
-2.72032e-06
-2.86034e-06
-2.99775e-06
-3.13297e-06
-3.26637e-06
-3.39789e-06
-3.52779e-06
-3.6563e-06
-3.78334e-06
-3.90903e-06
-4.0335e-06
-4.15656e-06
-4.27823e-06
-4.39868e-06
-4.51769e-06
-4.6351e-06
-4.75109e-06
-4.86558e-06
-4.97834e-06
-5.08945e-06
-5.19909e-06
-5.30716e-06
-5.41368e-06
-5.51893e-06
-5.62301e-06
-5.72596e-06
-5.82821e-06
-5.93021e-06
-6.0321e-06
-6.13404e-06
-6.23656e-06
-6.34011e-06
-6.44485e-06
-6.55104e-06
-6.65913e-06
-6.76935e-06
-6.88171e-06
-6.99636e-06
-7.11349e-06
-7.23305e-06
-7.35485e-06
-7.47886e-06
-7.60506e-06
-7.73316e-06
-7.86277e-06
-7.99368e-06
-8.12576e-06
-8.25867e-06
-8.39209e-06
-8.52586e-06
-8.65988e-06
-8.79395e-06
-8.9279e-06
-9.06177e-06
-9.19571e-06
-9.32976e-06
-9.464e-06
-9.59862e-06
-9.73397e-06
-9.8703e-06
-1.00078e-05
-1.01469e-05
-1.02878e-05
-1.0431e-05
-1.05765e-05
-1.07246e-05
-1.08754e-05
-1.10294e-05
-1.11865e-05
-1.13468e-05
-1.15102e-05
-1.16769e-05
-1.18468e-05
-1.20198e-05
-1.21958e-05
-1.23748e-05
-1.25566e-05
-1.27413e-05
-1.29288e-05
-1.31186e-05
-1.3311e-05
-1.35059e-05
-1.37029e-05
-1.3902e-05
-1.41028e-05
-1.43053e-05
-1.45091e-05
-1.47138e-05
-1.49191e-05
-1.51246e-05
-1.53298e-05
-1.55344e-05
-1.57378e-05
-1.59394e-05
-1.61389e-05
-1.63357e-05
-1.65294e-05
-1.67195e-05
-1.69054e-05
-1.70869e-05
-1.72636e-05
-1.74351e-05
-1.76013e-05
-1.77619e-05
-1.79169e-05
-1.80662e-05
-1.82099e-05
-1.8348e-05
-1.84809e-05
-1.86089e-05
-1.87322e-05
-1.88512e-05
-1.89665e-05
-1.90783e-05
-1.91868e-05
-1.92924e-05
-1.93952e-05
-1.94951e-05
-1.95919e-05
-1.96854e-05
-1.97752e-05
-1.98608e-05
-1.99417e-05
-2.00174e-05
-2.00872e-05
-2.01509e-05
-2.02081e-05
-2.02587e-05
-2.03027e-05
-2.03402e-05
-2.03715e-05
-2.03969e-05
-2.0417e-05
-2.04322e-05
-2.04428e-05
-2.04493e-05
-2.0452e-05
-2.04513e-05
-2.04475e-05
-2.04409e-05
-2.04316e-05
-2.04202e-05
-2.0407e-05
-2.03923e-05
-2.03767e-05
-2.03602e-05
-2.03433e-05
-2.03261e-05
-2.03085e-05
-2.02906e-05
-2.02722e-05
-2.02532e-05
-2.02334e-05
-2.02126e-05
-2.01907e-05
-2.01676e-05
-2.01432e-05
-2.01172e-05
-2.00896e-05
-2.006e-05
-2.00283e-05
-1.99942e-05
-1.99577e-05
-1.99187e-05
-1.98773e-05
-1.98333e-05
-1.97868e-05
-1.97375e-05
-1.96854e-05
-1.96301e-05
-1.95707e-05
-1.95068e-05
-1.94376e-05
-1.93628e-05
-1.92817e-05
-1.91945e-05
-1.91011e-05
-1.90021e-05
-1.88981e-05
-1.87894e-05
-1.86765e-05
-1.85598e-05
-1.8439e-05
-1.8314e-05
-1.81838e-05
-1.8048e-05
-1.79055e-05
-1.77554e-05
-1.7597e-05
-1.74295e-05
-1.72524e-05
-1.70653e-05
-1.68677e-05
-1.66592e-05
-1.64393e-05
-1.62078e-05
-1.59642e-05
-1.57082e-05
-1.54398e-05
-1.51591e-05
-1.48662e-05
-1.45621e-05
-1.42474e-05
-1.39232e-05
-1.35906e-05
-1.32506e-05
-1.29039e-05
-1.2551e-05
-1.21924e-05
-1.18282e-05
-1.14588e-05
-1.10841e-05
-1.07045e-05
-1.03203e-05
-9.932e-06
-9.54017e-06
-9.1454e-06
-8.74833e-06
-8.34945e-06
-7.94926e-06
-7.54812e-06
-7.14631e-06
-6.74406e-06
-6.34151e-06
-5.9388e-06
-5.53608e-06
-5.13356e-06
-4.7316e-06
-4.3306e-06
-3.93119e-06
-3.5341e-06
-3.14017e-06
-2.75033e-06
-2.36541e-06
-1.98611e-06
-1.61284e-06
-1.24572e-06
-8.84804e-07
-5.31468e-07
-1.78557e-07
1.68556e-07
1.79167e-07
-1.2109e-07
-3.92047e-07
-6.47643e-07
-8.88043e-07
-1.11391e-06
-1.32689e-06
-1.52865e-06
-1.72066e-06
-1.90444e-06
-2.08119e-06
-2.25197e-06
-2.41774e-06
-2.57904e-06
-2.73654e-06
-2.89081e-06
-3.04203e-06
-3.19062e-06
-3.33697e-06
-3.48107e-06
-3.62313e-06
-3.76342e-06
-3.9019e-06
-4.03866e-06
-4.17387e-06
-4.30738e-06
-4.43915e-06
-4.56939e-06
-4.69793e-06
-4.82459e-06
-4.94948e-06
-5.0726e-06
-5.19369e-06
-5.31278e-06
-5.43002e-06
-5.54532e-06
-5.65867e-06
-5.7703e-06
-5.88036e-06
-5.98884e-06
-6.09607e-06
-6.20257e-06
-6.30857e-06
-6.41422e-06
-6.52001e-06
-6.6265e-06
-6.73395e-06
-6.84265e-06
-6.9531e-06
-7.06567e-06
-7.18047e-06
-7.29769e-06
-7.41763e-06
-7.54038e-06
-7.66581e-06
-7.79387e-06
-7.92461e-06
-8.05783e-06
-8.19317e-06
-8.33035e-06
-8.46922e-06
-8.60951e-06
-8.7508e-06
-8.89283e-06
-9.03545e-06
-9.17843e-06
-9.3215e-06
-9.46459e-06
-9.60783e-06
-9.75124e-06
-9.89476e-06
-1.00385e-05
-1.01829e-05
-1.03282e-05
-1.04746e-05
-1.06223e-05
-1.07719e-05
-1.09237e-05
-1.10781e-05
-1.12352e-05
-1.13954e-05
-1.1559e-05
-1.17263e-05
-1.18974e-05
-1.20724e-05
-1.22513e-05
-1.24343e-05
-1.26214e-05
-1.28124e-05
-1.30073e-05
-1.3206e-05
-1.34086e-05
-1.36148e-05
-1.38244e-05
-1.40373e-05
-1.42535e-05
-1.44727e-05
-1.46948e-05
-1.49193e-05
-1.51462e-05
-1.53752e-05
-1.56058e-05
-1.58376e-05
-1.60702e-05
-1.63032e-05
-1.65362e-05
-1.67686e-05
-1.69999e-05
-1.72294e-05
-1.74567e-05
-1.76813e-05
-1.79028e-05
-1.81204e-05
-1.83338e-05
-1.85425e-05
-1.87463e-05
-1.89447e-05
-1.91374e-05
-1.93242e-05
-1.9505e-05
-1.96797e-05
-1.98483e-05
-2.0011e-05
-2.01679e-05
-2.03192e-05
-2.04654e-05
-2.06067e-05
-2.07437e-05
-2.08765e-05
-2.10056e-05
-2.11312e-05
-2.12535e-05
-2.13723e-05
-2.14876e-05
-2.15992e-05
-2.17065e-05
-2.18091e-05
-2.19065e-05
-2.19981e-05
-2.20832e-05
-2.21616e-05
-2.22328e-05
-2.22967e-05
-2.23532e-05
-2.24024e-05
-2.24447e-05
-2.24803e-05
-2.25101e-05
-2.25342e-05
-2.25533e-05
-2.25678e-05
-2.2578e-05
-2.25844e-05
-2.25873e-05
-2.25869e-05
-2.25836e-05
-2.25777e-05
-2.25696e-05
-2.25597e-05
-2.25484e-05
-2.2536e-05
-2.25228e-05
-2.25089e-05
-2.24943e-05
-2.24792e-05
-2.24632e-05
-2.24464e-05
-2.24286e-05
-2.24096e-05
-2.23893e-05
-2.23677e-05
-2.23446e-05
-2.23198e-05
-2.22931e-05
-2.22643e-05
-2.22332e-05
-2.21994e-05
-2.2163e-05
-2.21236e-05
-2.20814e-05
-2.20364e-05
-2.19884e-05
-2.19375e-05
-2.18832e-05
-2.18252e-05
-2.17629e-05
-2.16955e-05
-2.16224e-05
-2.15429e-05
-2.14567e-05
-2.13636e-05
-2.12639e-05
-2.11577e-05
-2.10459e-05
-2.09289e-05
-2.08071e-05
-2.06807e-05
-2.05495e-05
-2.04132e-05
-2.02711e-05
-2.01221e-05
-1.99654e-05
-1.97999e-05
-1.96248e-05
-1.94394e-05
-1.9243e-05
-1.90351e-05
-1.88154e-05
-1.85832e-05
-1.83384e-05
-1.80803e-05
-1.78087e-05
-1.75232e-05