/*--------------------------------*- C++ -*----------------------------------*\
| =========                 |                                                 |
| \\      /  F ield         | OpenFOAM: The Open Source CFD Toolbox           |
|  \\    /   O peration     | Version:  v2012                                 |
|   \\  /    A nd           | Website:  www.openfoam.com                      |
|    \\/     M anipulation  |                                                 |
\*---------------------------------------------------------------------------*/
FoamFile
{
    version     2.0;
    format      ascii;
    class       volScalarField;
    location    "0";
    object      p;
}
// * * * * * * * * * * * * * * * * * * * * * * * * * * * * * * * * * * * * * //

dimensions      [0 2 -2 0 0 0 0];


internalField   nonuniform List<scalar> 
4000
(
0.115551
0.089362
0.0981855
0.106619
0.109098
0.115289
0.102823
0.0845398
0.0544466
0.0510712
0.0701271
0.0617234
0.0333332
-0.0120394
-0.039343
-0.0384932
-0.0349877
-0.0358577
-0.0618366
-0.0877928
-0.111091
-0.122499
-0.125623
-0.130641
-0.142363
-0.153929
-0.130783
-0.13421
-0.14381
-0.160077
-0.184847
-0.182525
-0.152018
-0.138372
-0.123727
-0.102476
-0.121947
-0.166246
-0.195586
-0.181534
-0.156487
-0.120474
-0.0913157
-0.0847701
-0.0811019
-0.0813696
-0.0738588
-0.074452
-0.0599674
-0.0431883
-0.0233769
-0.0137328
-0.00126999
0.00557723
0.00942662
0.00585318
0.0222259
0.0465134
0.0763928
0.110116
0.124887
0.136971
0.134881
0.123976
0.135945
0.154808
0.168502
0.172309
0.164891
0.171226
0.177666
0.18238
0.171239
0.168277
0.177299
0.196757
0.21676
0.221015
0.218406
0.192033
0.173348
0.163403
0.164649
0.16357
0.168015
0.164815
0.13686
0.116895
0.114804
0.114981
0.103277
0.0991621
0.0964288
0.0810122
0.0709062
0.0627976
0.0471742
0.0362527
0.0165165
0.00449383
0.097776
0.0961152
0.105986
0.11071
0.116248
0.104747
0.0930394
0.0849357
0.0728617
0.0609872
0.0555995
0.0441112
0.0245806
0.00010557
-0.0219387
-0.0336762
-0.0346687
-0.040402
-0.0680765
-0.0814634
-0.0967269
-0.123554
-0.136535
-0.140968
-0.148734
-0.146072
-0.134288
-0.132676
-0.154637
-0.170274
-0.168187
-0.168582
-0.159952
-0.151982
-0.134826
-0.120326
-0.126037
-0.147283
-0.169605
-0.165202
-0.154226
-0.127208
-0.108173
-0.0898191
-0.0747341
-0.0771311
-0.0788385
-0.0779335
-0.0642972
-0.0504167
-0.0265786
-0.0178431
0.000108978
0.00656888
0.0154728
0.0156362
0.0188546
0.0393548
0.0714048
0.105177
0.131246
0.138524
0.142985
0.13621
0.139307
0.150387
0.157516
0.168359
0.174691
0.180459
0.178618
0.183396
0.18498
0.178516
0.178298
0.189294
0.215092
0.213473
0.208295
0.188957
0.176978
0.169488
0.175917
0.171473
0.160455
0.155766
0.129826
0.109991
0.106404
0.114644
0.112602
0.107798
0.10603
0.0812387
0.0693294
0.0607263
0.0460839
0.037169
0.0245117
0.010874
0.0959684
0.0957733
0.0994666
0.115818
0.122911
0.109755
0.0920888
0.0789983
0.060707
0.0632003
0.060131
0.0422415
0.0255596
0.00319007
-0.0176502
-0.0290312
-0.0378099
-0.0456154
-0.0649078
-0.0782746
-0.102653
-0.123926
-0.132657
-0.136051
-0.137089
-0.144038
-0.136188
-0.137226
-0.16108
-0.174176
-0.172289
-0.168809
-0.157484
-0.14212
-0.131017
-0.122217
-0.126767
-0.13869
-0.159756
-0.171351
-0.158359
-0.142728
-0.107219
-0.0827083
-0.0667516
-0.0735607
-0.0827529
-0.0879718
-0.0624809
-0.032287
-0.0232307
-0.0167751
-0.00966405
-0.0072736
0.00528662
0.0188687
0.0229246
0.0533561
0.088356
0.112523
0.117106
0.119731
0.125843
0.139195
0.147776
0.160875
0.168081
0.168781
0.173922
0.16694
0.161176
0.17118
0.169865
0.178847
0.189368
0.199696
0.207748
0.211607
0.203039
0.196022
0.195331
0.174509
0.158994
0.161598
0.156562
0.1571
0.150032
0.126247
0.113122
0.105857
0.102493
0.10675
0.102761
0.0864043
0.0659766
0.05377
0.0462775
0.0386059
0.0394364
0.0136406
0.0998119
0.104475
0.109526
0.0972827
0.121244
0.0987507
0.0868065
0.0769353
0.0809974
0.0774661
0.0512893
0.0281294
0.0159052
0.0120275
0.0101589
-0.0136941
-0.0428533
-0.0599176
-0.0718932
-0.0818257
-0.0986511
-0.117204
-0.133285
-0.153489
-0.149785
-0.147366
-0.143219
-0.139231
-0.151925
-0.160845
-0.152487
-0.15942
-0.157876
-0.15181
-0.152025
-0.123872
-0.1282
-0.142746
-0.161163
-0.161645
-0.140597
-0.121664
-0.106373
-0.0950188
-0.090327
-0.0894964
-0.0797199
-0.0633964
-0.0581583
-0.0507555
-0.0411576
-0.0244978
-0.00604542
0.00516041
0.008619
0.021342
0.0262494
0.0519658
0.0879318
0.105266
0.111044
0.125925
0.136574
0.141851
0.148449
0.153044
0.161813
0.170344
0.176475
0.175783
0.179775
0.183222
0.179243
0.185919
0.189856
0.192715
0.210514
0.207407
0.20493
0.194023
0.183421
0.177505
0.166207
0.15757
0.152094
0.149716
0.137958
0.124642
0.11269
0.104775
0.107862
0.104073
0.110622
0.0865497
0.0694324
0.0605911
0.0493892
0.0401887
0.0326926
0.011577
0.10989
0.119559
0.107076
0.098242
0.0868359
0.100009
0.0967147
0.0913332
0.0789369
0.0676664
0.0478813
0.0326535
0.0117256
0.00557332
0.00840956
-0.00807732
-0.0287027
-0.0458868
-0.0750817
-0.105878
-0.106287
-0.120925
-0.153817
-0.153875
-0.136118
-0.127247
-0.130314
-0.143837
-0.144837
-0.149307
-0.151761
-0.153241
-0.148852
-0.152812
-0.148819
-0.130986
-0.140434
-0.147116
-0.160268
-0.159364
-0.144425
-0.113948
-0.102605
-0.100338
-0.100327
-0.0967162
-0.0810278
-0.0666054
-0.0502403
-0.0386588
-0.0312941
-0.0143297
-0.0031764
0.000157701
0.00861832
0.0153386
0.027975
0.0540565
0.0880009
0.104901
0.109389
0.115511
0.125112
0.13552
0.159168
0.172578
0.177806
0.171969
0.171654
0.16901
0.167431
0.175547
0.182389
0.185547
0.17535
0.183087
0.20361
0.209091
0.208838
0.201134
0.190496
0.18348
0.166327
0.15007
0.139539
0.132835
0.14021
0.137418
0.123288
0.112327
0.105861
0.107083
0.102678
0.0977182
0.0848395
0.0662501
0.0545226
0.0383397
0.0283834
-0.000336367
0.0944885
0.126896
0.111874
0.083308
0.104617
0.125507
0.1095
0.0951601
0.0735668
0.0379114
0.034697
0.0335548
0.028273
0.0125955
-0.00419727
0.00333065
-0.0190657
-0.036765
-0.0609519
-0.0965829
-0.11262
-0.135924
-0.176876
-0.167798
-0.139902
-0.120786
-0.131504
-0.142244
-0.14416
-0.137765
-0.142015
-0.149691
-0.152848
-0.143655
-0.125932
-0.130025
-0.14072
-0.155325
-0.165723
-0.149809
-0.129646
-0.112793
-0.1073
-0.0981286
-0.0943352
-0.108662
-0.0994596
-0.0756246
-0.0485254
-0.0413992
-0.0269915
-0.0156379
-0.0034271
-0.00309334
0.00487355
0.0135672
0.0330383
0.0567412
0.0834289
0.105804
0.115219
0.119354
0.125194
0.134586
0.145084
0.164749
0.18268
0.17783
0.173299
0.183604
0.172988
0.178218
0.191352
0.192399
0.186173
0.193739
0.204095
0.195626
0.197198
0.204855
0.204171
0.182591
0.156538
0.14322
0.138245
0.143711
0.140596
0.130669
0.1218
0.107841
0.108212
0.11089
0.0938429
0.0947574
0.0849819
0.0772197
0.0543214
0.0261186
0.0152171
-0.00168274
0.113548
0.115609
0.11176
0.109775
0.101032
0.110708
0.110807
0.0889683
0.0644503
0.0391985
0.0247301
0.0268192
0.0365411
0.0196793
0.000909416
-0.00517845
-0.00813366
-0.0241272
-0.0700513
-0.123311
-0.159915
-0.152936
-0.134171
-0.125077
-0.123689
-0.116534
-0.135065
-0.152156
-0.143129
-0.128523
-0.130927
-0.149081
-0.155567
-0.163738
-0.142729
-0.139676
-0.134308
-0.134379
-0.143423
-0.151166
-0.146172
-0.13175
-0.121335
-0.100845
-0.0868092
-0.0851131
-0.0882065
-0.0784609
-0.0586858
-0.0432528
-0.0296866
-0.00959578
0.00772552
0.000918897
0.00545454
0.0128281
0.0307955
0.0440014
0.0710008
0.103201
0.125067
0.129247
0.132007
0.129896
0.134508
0.15544
0.16217
0.154932
0.156059
0.179983
0.207683
0.204673
0.196148
0.201724
0.195293
0.189167
0.18697
0.191743
0.194767
0.197882
0.193848
0.183865
0.175419
0.162317
0.148675
0.13253
0.128948
0.135896
0.122614
0.115786
0.11027
0.0981059
0.0903608
0.0909986
0.0866208
0.0650387
0.0497609
0.0254904
0.0142767
0.00196121
0.107408
0.107568
0.0994563
0.108489
0.123314
0.126273
0.110173
0.0867135
0.0597284
0.0451149
0.036354
0.0268052
0.0206183
0.00843876
0.00514475
-0.00174671
-0.0108849
-0.02757
-0.0865275
-0.115646
-0.1148
-0.112207
-0.125955
-0.150786
-0.14505
-0.144318
-0.153066
-0.147109
-0.14883
-0.140059
-0.137338
-0.132615
-0.128276
-0.132283
-0.139865
-0.138266
-0.141504
-0.152801
-0.159849
-0.159507
-0.147172
-0.118584
-0.109102
-0.0771563
-0.0698672
-0.0800516
-0.103284
-0.111239
-0.0765186
-0.0350555
-0.00776596
4.38076e-05
-0.000971636
-0.00399248
-0.00145109
0.00538069
0.0317877
0.0577092
0.0760173
0.0882507
0.108021
0.124297
0.134609
0.144596
0.152972
0.162737
0.166309
0.16283
0.173912
0.18591
0.193781
0.204683
0.191601
0.177598
0.174248
0.187708
0.203336
0.204742
0.20822
0.203963
0.196079
0.187474
0.161455
0.141448
0.123675
0.125651
0.134424
0.138968
0.127919
0.115184
0.104783
0.0969568
0.0943994
0.096888
0.0804503
0.053601
0.0482331
0.0304867
0.0147056
-0.00179386
0.118389
0.126579
0.114042
0.0933437
0.105197
0.116423
0.113789
0.0948197
0.057436
0.0577094
0.0358154
0.00985898
-0.00270489
0.00477389
0.0112359
0.00265649
-0.00757593
-0.0284377
-0.0760513
-0.104861
-0.113491
-0.12616
-0.11827
-0.128106
-0.143879
-0.157434
-0.159104
-0.152766
-0.137246
-0.124278
-0.125558
-0.122327
-0.142002
-0.154716
-0.146464
-0.141647
-0.144077
-0.159686
-0.150319
-0.132463
-0.123174
-0.121676
-0.12905
-0.114024
-0.0984624
-0.0788847
-0.0844023
-0.0865443
-0.064262
-0.0443
-0.0275612
-0.0165865
-0.00947679
-0.000510724
0.0131796
0.0253379
0.0450166
0.0592871
0.0696033
0.0810817
0.0951661
0.114415
0.129385
0.139181
0.143678
0.149263
0.160471
0.164045
0.164894
0.176539
0.18756
0.20414
0.208625
0.204381
0.186395
0.191118
0.200798
0.208678
0.208114
0.201573
0.19526
0.186729
0.165826
0.145093
0.130562
0.130589
0.140945
0.138221
0.123889
0.113003
0.104799
0.09532
0.0813976
0.0821345
0.0773607
0.0608
0.0414221
0.0203982
0.00366026
-0.0125618
0.120162
0.119761
0.121082
0.108637
0.0975067
0.108741
0.104803
0.103115
0.0792069
0.0373473
0.0197409
0.00614038
0.00207657
0.017054
0.0235069
0.00279713
-0.0245556
-0.0296394
-0.0432633
-0.0895777
-0.12004
-0.145763
-0.141668
-0.136261
-0.134264
-0.139618
-0.1439
-0.149198
-0.142537
-0.126929
-0.114623
-0.121217
-0.136221
-0.162647
-0.163555
-0.1481
-0.138947
-0.146342
-0.150531
-0.140137
-0.139554
-0.141407
-0.122937
-0.114743
-0.0908982
-0.0636936
-0.0650921
-0.0794491
-0.0678833
-0.0526821
-0.042047
-0.0182608
-0.00285212
0.00504251
0.00829678
0.0190012
0.0379828
0.0528112
0.0697871
0.0948698
0.109997
0.137551
0.146626
0.137411
0.130456
0.117975
0.126027
0.146679
0.168063
0.195321
0.209108
0.20796
0.215748
0.209946
0.195097
0.182818
0.193569
0.204319
0.203451
0.199025
0.189701
0.185781
0.18042
0.152331
0.136332
0.128941
0.129822
0.128071
0.12093
0.11358
0.0980992
0.0778105
0.0727258
0.0687016
0.0613056
0.0419275
0.0289406
0.0142333
0.00121514
-0.00799438
0.112104
0.115629
0.112343
0.120361
0.117354
0.104287
0.100936
0.0877704
0.0745446
0.0599291
0.0227163
-0.00210711
0.00546747
0.0173543
0.0126157
0.00955614
-0.0212662
-0.030586
-0.0434766
-0.0696738
-0.100009
-0.149151
-0.161639
-0.139202
-0.147266
-0.159417
-0.141237
-0.13577
-0.132545
-0.120517
-0.121853
-0.131213
-0.141338
-0.14423
-0.145797
-0.149025
-0.155634
-0.152812
-0.142908
-0.141394
-0.137111
-0.136925
-0.130211
-0.103381
-0.0737556
-0.0698149
-0.0755779
-0.0872892
-0.0792517
-0.0618487
-0.0313503
-0.013208
-0.00400588
0.00290981
-3.35456e-05
0.0273667
0.0534707
0.0651552
0.0697426
0.0737976
0.0989545
0.107243
0.127866
0.147347
0.142799
0.126683
0.122281
0.141904
0.165417
0.209537
0.209168
0.214859
0.217952
0.209244
0.187307
0.166773
0.199248
0.223426
0.212963
0.21094
0.209014
0.201258
0.169486
0.141719
0.121439
0.110594
0.133924
0.141254
0.127567
0.10613
0.0936788
0.0832538
0.0709182
0.0642039
0.0659039
0.0573286
0.0156121
-0.023962
-0.0261528
-0.000216576
0.122645
0.12227
0.119106
0.122174
0.117329
0.10362
0.106901
0.0948852
0.071512
0.0450642
0.0284838
0.00742825
-0.00515134
-0.000611183
-0.00222267
-0.0119649
-0.00935941
-0.00984975
-0.0363904
-0.0657504
-0.104064
-0.117871
-0.134953
-0.141259
-0.147273
-0.165048
-0.153298
-0.143873
-0.135582
-0.114
-0.108957
-0.124233
-0.148944
-0.157511
-0.162091
-0.157469
-0.151249
-0.141001
-0.133492
-0.146517
-0.147119
-0.146113
-0.128615
-0.0988304
-0.0773889
-0.0731668
-0.0719015
-0.0715416
-0.0747747
-0.0631128
-0.0491276
-0.0146401
-0.000466288
0.0120207
0.0162486
0.0286024
0.0440822
0.0530012
0.066515
0.0865703
0.107936
0.145531
0.141681
0.131656
0.11823
0.112641
0.130186
0.146322
0.160925
0.188074
0.202135
0.232427
0.241908
0.22262
0.178745
0.147055
0.170205
0.212142
0.223414
0.220464
0.207813
0.189454
0.1719
0.160544
0.140782
0.124632
0.116314
0.124399
0.123916
0.109107
0.0877145
0.0732297
0.0662869
0.0608143
0.0554984
0.0461819
0.00701773
-0.0154844
-0.0203487
0.00165115
0.118704
0.122386
0.0964599
0.12927
0.124712
0.116225
0.101801
0.0848337
0.0611737
0.0263982
0.0120671
0.0155399
0.0270809
0.0224054
0.00826029
-0.00117053
-0.00185837
-0.00491009
-0.0264582
-0.0589841
-0.130542
-0.16079
-0.177265
-0.150658
-0.144012
-0.148071
-0.141965
-0.139254
-0.130291
-0.101602
-0.101757
-0.129484
-0.143665
-0.147627
-0.137045
-0.15263
-0.167366
-0.151484
-0.13851
-0.156294
-0.157493
-0.133137
-0.111548
-0.0905439
-0.0925963
-0.0988197
-0.0790276
-0.0690375
-0.0571272
-0.0457919
-0.0345392
-0.0127007
-0.0132218
-0.0117093
0.0264247
0.0681085
0.0526661
0.0380104
0.0493119
0.0639358
0.0964307
0.116527
0.136924
0.137401
0.132437
0.135695
0.119971
0.148838
0.165676
0.182062
0.198847
0.230311
0.249662
0.220176
0.182838
0.159991
0.185137
0.217575
0.214519
0.206831
0.197615
0.196537
0.184142
0.157706
0.144542
0.12689
0.119226
0.126954
0.120106
0.108146
0.0927662
0.0658547
0.0556344
0.059251
0.050521
0.0395586
0.0108506
-0.01104
-0.0193991
-0.00412674
0.112016
0.148352
0.128649
0.111456
0.115041
0.112184
0.0969419
0.0982423
0.0684108
0.0107262
0.00571875
0.0184071
0.0249688
0.0266448
0.0177898
-0.0109723
-0.0371616
-0.0446103
-0.0419071
-0.0550688
-0.0564504
-0.075869
-0.121528
-0.153406
-0.18054
-0.181497
-0.163278
-0.139417
-0.121532
-0.0980933
-0.0982283
-0.123903
-0.158097
-0.17158
-0.1737
-0.162413
-0.137259
-0.136945
-0.148485
-0.142013
-0.145768
-0.134287
-0.113001
-0.110938
-0.107052
-0.0957291
-0.0865107
-0.0729607
-0.0410171
-0.0258661
-0.0247082
-0.0150419
-0.00497148
0.00318178
0.01958
0.0407979
0.0546457
0.0644144
0.0771262
0.0830657
0.089329
0.0971661
0.110604
0.123865
0.133854
0.13951
0.145442
0.154259
0.17132
0.189569
0.205076
0.214219
0.219794
0.214707
0.196288
0.182925
0.181254
0.192606
0.211262
0.214483
0.200469
0.186346
0.176112
0.158324
0.145771
0.13232
0.126127
0.121438
0.120954
0.107354
0.0905514
0.0854394
0.066978
0.0543536
0.0327718
0.0165726
0.00697832
0.00181866
-0.00816451
-0.00550002
0.111341
0.127754
0.13414
0.123634
0.122829
0.124997
0.0810499
0.0498399
0.0425037
0.0365275
0.0372367
0.0411792
0.0382243
0.0275367
0.0167681
-0.00293207
-0.011014
-0.011136
-0.0293823
-0.0584292
-0.108935
-0.156959
-0.163107
-0.176777
-0.155399
-0.136666
-0.132142
-0.13787
-0.128869
-0.106543
-0.0945211
-0.111425
-0.136035
-0.175608
-0.198546
-0.166974
-0.13648
-0.129815
-0.120973
-0.13514
-0.155793
-0.14321
-0.134733
-0.120517
-0.109649
-0.0900535
-0.0669033
-0.0610361
-0.0378322
-0.0140894
-0.00882597
-0.0257009
-0.0224172
-0.00970125
0.00116116
0.0294365
0.0534026
0.0680008
0.067742
0.0718398
0.102003
0.115804
0.118712
0.125107
0.11584
0.113182
0.140101
0.163982
0.183561
0.188738
0.196912
0.213575
0.222174
0.211316
0.200869
0.169097
0.175046
0.192332
0.216086
0.22568
0.218066
0.202139
0.177549
0.150977
0.135033
0.130937
0.124663
0.118815
0.117788
0.108473
0.0920538
0.0817457
0.0714035
0.0565134
0.033134
0.00461059
-0.00199043
-0.00699953
-0.00849151
-0.00193944
0.107745
0.145784
0.143883
0.122764
0.117844
0.138765
0.123703
0.0791696
0.016278
0.00646464
0.0146766
0.0339277
0.0379292
0.0389215
0.0315051
0.00396254
-0.0196145
-0.0304498
-0.0634726
-0.0661388
-0.078543
-0.115409
-0.144864
-0.175934
-0.160251
-0.140083
-0.128663
-0.122683
-0.123557
-0.108598
-0.106284
-0.130304
-0.139885
-0.170565
-0.197541
-0.174976
-0.14696
-0.126622
-0.122338
-0.129409
-0.154553
-0.15035
-0.122452
-0.118438
-0.108791
-0.0941039
-0.0586472
-0.0443559
-0.040094
-0.0459186
-0.0287526
-0.015302
-0.00978869
-0.011813
0.0184311
0.0382918
0.0493103
0.0788037
0.0892903
0.0814366
0.0915068
0.101003
0.106925
0.11674
0.120479
0.129548
0.129013
0.151197
0.170545
0.19896
0.204518
0.218147
0.227901
0.210537
0.18623
0.172957
0.193882
0.202209
0.202915
0.206858
0.211974
0.206634
0.178896
0.161185
0.152534
0.142819
0.126234
0.120271
0.113722
0.102927
0.0848844
0.0767474
0.0604536
0.0463839
0.0349925
0.0223524
0.00120865
-0.0140516
-0.0191658
-0.00822133
0.135598
0.134214
0.123904
0.103649
0.108705
0.095366
0.0769362
0.097493
0.0836733
0.0620609
0.0464454
0.031757
0.0224829
0.0251496
0.0269637
0.0066296
-0.0161319
-0.00406581
-0.0298798
-0.0744673
-0.129362
-0.158863
-0.148386
-0.142969
-0.149603
-0.134963
-0.123778
-0.137108
-0.12427
-0.117219
-0.110321
-0.129314
-0.15437
-0.178
-0.189174
-0.162026
-0.130286
-0.125888
-0.118917
-0.126837
-0.151986
-0.169237
-0.133065
-0.106356
-0.0877643
-0.0844834
-0.081256
-0.049058
-0.0358187
-0.0356806
-0.0306474
-0.0126939
-0.00250592
-0.000296314
0.000599963
0.024559
0.0412499
0.0758007
0.0912098
0.0973556
0.095387
0.102107
0.106044
0.119743
0.141402
0.138293
0.129491
0.138681
0.157722
0.195257
0.198715
0.210958
0.212593
0.211348
0.206099
0.18403
0.176936
0.185206
0.196562
0.234147
0.234475
0.195945
0.174538
0.152164
0.148316
0.152057
0.142849
0.119298
0.101842
0.0969172
0.0933711
0.0715216
0.0663966
0.0605299
0.0253806
0.00916337
0.0034948
-0.0105891
-0.0151707
-0.0064947
0.136079
0.129849
0.126687
0.116438
0.137855
0.135802
0.0814041
0.0624075
0.0525103
0.0524015
0.0582804
0.062692
0.0333779
0.0137138
0.00260641
-0.00345394
-0.00585261
-0.00855357
-0.0381328
-0.0770169
-0.103565
-0.147981
-0.164406
-0.14182
-0.124095
-0.139279
-0.138314
-0.129814
-0.11187
-0.106115
-0.10714
-0.124442
-0.14805
-0.180404
-0.203675
-0.170798
-0.148616
-0.129329
-0.111897
-0.11205
-0.130556
-0.155755
-0.135295
-0.125394
-0.0982844
-0.0761524
-0.0675238
-0.0609521
-0.0455231
-0.0337284
-0.0263586
-0.0114675
-0.0036079
-0.000578525
0.0227071
0.0384134
0.0392179
0.0557302
0.0764171
0.0880753
0.0977636
0.104984
0.11266
0.12789
0.138085
0.132295
0.138263
0.143587
0.147724
0.164856
0.185248
0.209043
0.221252
0.209611
0.197026
0.189122
0.195736
0.196792
0.210614
0.223271
0.218112
0.203041
0.182689
0.165711
0.144467
0.133121
0.129427
0.126417
0.117206
0.0946062
0.0912786
0.0713172
0.0586866
0.0543188
0.0253179
0.0160808
0.00766765
-0.0076901
-0.0181233
-0.0095897
0.116746
0.130437
0.133578
0.123314
0.119716
0.104864
0.0832875
0.0791059
0.0874099
0.0807408
0.0616909
0.0533266
0.0413302
0.0221934
0.00231087
-0.0110654
-0.00849719
-0.0154684
-0.0433631
-0.0745589
-0.109657
-0.144265
-0.137012
-0.131969
-0.150494
-0.153013
-0.123149
-0.110247
-0.108698
-0.118153
-0.12323
-0.134755
-0.159522
-0.179029
-0.196487
-0.154811
-0.119612
-0.119233
-0.130976
-0.146669
-0.144933
-0.136571
-0.127765
-0.121143
-0.110789
-0.0905804
-0.0594806
-0.0283804
-0.0338978
-0.0541469
-0.0356082
-0.0091393
-0.0053311
0.00209322
0.0244549
0.0421635
0.04981
0.0541089
0.0647426
0.087895
0.114836
0.117912
0.114473
0.115751
0.122699
0.131645
0.134664
0.145072
0.148432
0.160427
0.172614
0.208334
0.222892
0.211314
0.197141
0.190143
0.201935
0.203792
0.191619
0.187597
0.229818
0.229827
0.185552
0.161041
0.147041
0.139838
0.133896
0.129702
0.114761
0.0987273
0.089732
0.0765506
0.0618143
0.0468232
0.0380261
0.0179707
-0.00506812
-0.0155241
-0.0234184
-0.00774051
0.141539
0.130509
0.136264
0.118326
0.10069
0.0972218
0.0893583
0.092927
0.0932579
0.0808188
0.0568311
0.0552868
0.0465062
0.0363936
0.00958349
-0.0178597
-0.04222
-0.0498756
-0.0414094
-0.0547032
-0.0973807
-0.123838
-0.135796
-0.140402
-0.136451
-0.136397
-0.117249
-0.111693
-0.109574
-0.113749
-0.117885
-0.138591
-0.158697
-0.188358
-0.186733
-0.159197
-0.133664
-0.126114
-0.133016
-0.148135
-0.151903
-0.141594
-0.112138
-0.103689
-0.0956421
-0.0822393
-0.0734574
-0.0532887
-0.0405982
-0.0326166
-0.0139093
-0.0154157
-0.0152767
0.00640119
0.0159519
0.0214694
0.0459447
0.0601696
0.0677607
0.0842301
0.11381
0.127236
0.126141
0.116166
0.122544
0.125614
0.12875
0.140476
0.14945
0.158405
0.181248
0.207767
0.211
0.196242
0.19788
0.198529
0.194281
0.19996
0.212797
0.209432
0.215626
0.209817
0.197721
0.182998
0.171972
0.135667
0.117131
0.122513
0.118159
0.0868219
0.0806461
0.0751375
0.0823743
0.0556155
0.0316102
0.0184936
-0.00276664
-0.0295
-0.0169112
0.00233578
0.154314
0.132841
0.116985
0.117844
0.0916484
0.0970396
0.0921707
0.0996561
0.103948
0.072165
0.061233
0.0651361
0.0652774
0.0396855
0.0135379
-0.0136346
-0.0216228
-0.0415104
-0.0524986
-0.0823188
-0.0998854
-0.124271
-0.1442
-0.144698
-0.140732
-0.115272
-0.110082
-0.112618
-0.111353
-0.115051
-0.113705
-0.132806
-0.163146
-0.180133
-0.193367
-0.176835
-0.147764
-0.128787
-0.12299
-0.13213
-0.14083
-0.133519
-0.121324
-0.1077
-0.10064
-0.0885831
-0.0770443
-0.049877
-0.029773
-0.0296742
-0.0279285
-0.0329568
-0.0150416
0.0117287
0.0262511
0.0400973
0.0463987
0.056635
0.0830037
0.0971969
0.117484
0.125903
0.105414
0.100669
0.117755
0.125755
0.128451
0.134877
0.143179
0.168716
0.188902
0.194344
0.190426
0.187488
0.190832
0.192391
0.203767
0.227897
0.219855
0.203637
0.202685
0.201084
0.192522
0.177939
0.159156
0.129508
0.124354
0.130053
0.121279
0.11292
0.107076
0.0810845
0.0638886
0.0497787
0.0278274
0.00337547
-0.00455459
-0.00319172
-0.00807249
-0.00378734
0.1455
0.129105
0.122791
0.123913
0.1084
0.092964
0.0871967
0.09483
0.0976554
0.0927132
0.0794814
0.0625652
0.0573284
0.0325593
0.00410851
-0.0289658
-0.0411057
-0.0473684
-0.048988
-0.0674567
-0.0947492
-0.113277
-0.126965
-0.131538
-0.121303
-0.122166
-0.122374
-0.121883
-0.127021
-0.117953
-0.105521
-0.112658
-0.131665
-0.162383
-0.200875
-0.190574
-0.160987
-0.142785
-0.126238
-0.13318
-0.133915
-0.136026
-0.115842
-0.114139
-0.0947403
-0.0852944
-0.0635756
-0.0470558
-0.0491186
-0.0509093
-0.0238706
-0.00899214
-0.000370562
0.00161523
0.013835
0.0193439
0.0274852
0.0610063
0.0801883
0.117648
0.155827
0.117087
0.104343
0.112764
0.128431
0.136337
0.136247
0.144681
0.132381
0.145041
0.168383
0.200401
0.213354
0.201535
0.186207
0.169472
0.211394
0.221147
0.21443
0.216758
0.216217
0.208761
0.18693
0.171122
0.163964
0.134876
0.126057
0.132059
0.123459
0.103103
0.0834748
0.0800006
0.0712609
0.0509647
0.0423046
0.0251462
-0.00546138
-0.0206099
-0.0258746
-0.00670545
0.129841
0.138559
0.139071
0.120643
0.0991002
0.0910545
0.0925469
0.0872981
0.0901708
0.0881059
0.085168
0.0805049
0.0561734
0.028909
0.00727797
-0.0132006
-0.0115081
-0.0169134
-0.0379982
-0.0797665
-0.128619
-0.155535
-0.136403
-0.116943
-0.110705
-0.117823
-0.133798
-0.128849
-0.122898
-0.101463
-0.0936258
-0.140785
-0.158248
-0.167309
-0.171341
-0.168271
-0.154775
-0.147043
-0.132172
-0.130895
-0.137076
-0.137606
-0.130048
-0.11149
-0.0761898
-0.083789
-0.0654493
-0.066759
-0.0446513
-0.0333358
-0.0333738
-0.0116763
0.0074743
0.0164224
0.0179637
0.000730462
-0.000324223
0.0534741
0.109295
0.126016
0.121731
0.120009
0.120861
0.124209
0.128363
0.115777
0.11519
0.133966
0.153952
0.16126
0.167637
0.185075
0.196423
0.186298
0.190551
0.191234
0.191942
0.221281
0.245086
0.23228
0.207629
0.19418
0.171989
0.15371
0.147859
0.145587
0.133399
0.128021
0.116087
0.10196
0.10471
0.0882049
0.0805249
0.0593978
0.0351364
0.0162955
0.00621501
-0.0090817
-0.0260302
-0.00511402
0.151962
0.118642
0.11052
0.0895851
0.103045
0.115616
0.124617
0.119485
0.0922211
0.0835614
0.0679698
0.0648219
0.0425475
0.0310682
0.0134284
-0.0151985
-0.0271578
-0.0394044
-0.0554035
-0.0814105
-0.100205
-0.123298
-0.125125
-0.128949
-0.118147
-0.11431
-0.109361
-0.115494
-0.111619
-0.116722
-0.123091
-0.124031
-0.137819
-0.159648
-0.177486
-0.17556
-0.155101
-0.156356
-0.149495
-0.138879
-0.132254
-0.122417
-0.111812
-0.105459
-0.0899157
-0.0955623
-0.0761168
-0.0477698
-0.0366047
-0.0369037
-0.0395866
-0.019036
-0.0109375
-0.00842291
-0.000795536
0.0230648
0.0374782
0.0742449
0.0952921
0.0979277
0.131961
0.13475
0.125856
0.126718
0.131837
0.11745
0.130728
0.141119
0.158925
0.173773
0.169358
0.174216
0.182163
0.180014
0.193334
0.191034
0.205473
0.216818
0.22372
0.222826
0.209872
0.188685
0.177439
0.167798
0.155977
0.146682
0.144118
0.119019
0.107501
0.107609
0.0989494
0.0854962
0.0770288
0.0724046
0.0455667
0.0243463
0.00807098
-0.00935401
-0.0218511
-0.0116312
0.138934
0.122325
0.12923
0.107385
0.0967005
0.101951
0.0994331
0.0875327
0.0874864
0.110656
0.096345
0.0610182
0.0340202
0.0384173
0.00787681
-0.0176232
-0.0247938
-0.0242065
-0.0393502
-0.0720874
-0.110388
-0.127017
-0.13934
-0.137572
-0.119296
-0.101633
-0.104534
-0.122612
-0.125866
-0.117589
-0.116514
-0.124328
-0.134183
-0.148014
-0.170791
-0.17459
-0.165743
-0.15834
-0.149305
-0.141895
-0.134958
-0.136046
-0.11775
-0.105617
-0.0870452
-0.0780338
-0.0626961
-0.0611735
-0.0405748
-0.0471158
-0.0433587
-0.0189215
-0.015266
0.00877019
0.0422329
0.0307726
0.0298718
0.0592657
0.0862508
0.0978476
0.122052
0.123285
0.118678
0.12585
0.130096
0.126761
0.114374
0.121108
0.147327
0.174522
0.17515
0.180442
0.189829
0.19187
0.184616
0.187102
0.209516
0.22742
0.228385
0.217846
0.207196
0.194164
0.169565
0.161038
0.144902
0.128073
0.124445
0.127876
0.129397
0.121813
0.0973669
0.0795891
0.0711541
0.0626452
0.0451321
0.0295131
0.00125123
-0.0205473
-0.0245824
-0.0100137
0.106874
0.122205
0.121245
0.115215
0.120016
0.119176
0.103115
0.0977057
0.0971809
0.10243
0.0717702
0.0455619
0.0371311
0.0194715
0.014111
0.000145455
-0.016333
-0.0237422
-0.0506941
-0.0766758
-0.0994885
-0.124184
-0.141254
-0.137914
-0.135081
-0.12043
-0.107413
-0.106959
-0.0928344
-0.0979807
-0.122307
-0.15561
-0.16196
-0.163374
-0.1511
-0.149221
-0.147681
-0.140778
-0.145464
-0.147044
-0.14691
-0.137785
-0.122561
-0.0985871
-0.0864961
-0.0735402
-0.0589672
-0.0609862
-0.0482993
-0.0432939
-0.0432033
-0.0386599
-0.015423
-4.90348e-05
0.0269836
0.0326584
0.0340844
0.0593748
0.0844678
0.0975655
0.106662
0.121592
0.139702
0.143431
0.138982
0.124293
0.114081
0.123822
0.144573
0.16714
0.173291
0.18191
0.183146
0.187234
0.191784
0.189854
0.194093
0.21081
0.240939
0.229232
0.206478
0.192877
0.156029
0.146433
0.156178
0.140296
0.146633
0.126118
0.115761
0.113753
0.0976031
0.0910511
0.0775543
0.0657724
0.0414257
0.0291988
0.0149947
-0.0113241
-0.0191188
-0.00781863
0.111383
0.127559
0.128292
0.118038
0.106739
0.0956025
0.0894462
0.100848
0.120309
0.0946443
0.0631396
0.0602791
0.0357095
0.0218747
0.0110918
-0.00881697
-0.0251252
-0.0194396
-0.0337463
-0.0680329
-0.0954806
-0.117438
-0.126673
-0.120903
-0.126264
-0.129631
-0.112718
-0.103807
-0.102589
-0.118939
-0.139919
-0.139924
-0.123977
-0.139247
-0.168531
-0.177948
-0.172991
-0.163029
-0.143594
-0.142036
-0.153302
-0.13818
-0.112886
-0.0898568
-0.0703724
-0.0621339
-0.0614137
-0.0568563
-0.0551744
-0.0539266
-0.0500531
-0.042139
-0.0174773
0.00642175
0.0319401
0.0433922
0.0487272
0.0608668
0.0740728
0.104523
0.110933
0.112921
0.120933
0.124119
0.128053
0.139598
0.152554
0.136383
0.143435
0.138707
0.165538
0.18843
0.196036
0.196934
0.198212
0.199115
0.193472
0.207529
0.209691
0.212674
0.203309
0.18536
0.16727
0.154946
0.147986
0.141322
0.135758
0.115735
0.105347
0.111021
0.0981372
0.0870982
0.086144
0.0727268
0.0436534
0.0263693
0.0120184
-0.00621843
-0.0118817
-0.0118904
0.117578
0.107078
0.106423
0.11611
0.127393
0.116022
0.10502
0.102395
0.0925906
0.0819954
0.0644596
0.0613369
0.0431428
0.00264225
0.00366557
0.0217324
0.00934518
-0.0189706
-0.0477632
-0.0702591
-0.100637
-0.127969
-0.138628
-0.130213
-0.125691
-0.121093
-0.11821
-0.107297
-0.110155
-0.117889
-0.128374
-0.131524
-0.151795
-0.16094
-0.162976
-0.160016
-0.157469
-0.148488
-0.143308
-0.150819
-0.146505
-0.128839
-0.103494
-0.0866563
-0.0719965
-0.0633649
-0.0563457
-0.0581387
-0.0613536
-0.0697916
-0.057049
-0.0468544
-0.000743348
0.0240238
0.0176599
0.0288314
0.0425831
0.055251
0.0744609
0.0974278
0.11763
0.122505
0.124633
0.125075
0.125763
0.136738
0.128388
0.127095
0.146549
0.170225
0.189793
0.188805
0.199127
0.202144
0.189243
0.178893
0.188163
0.205174
0.210897
0.211199
0.200855
0.181227
0.16468
0.161445
0.160828
0.154269
0.141323
0.127826
0.113142
0.0999222
0.0859487
0.0761676
0.0659972
0.0645354
0.0561336
0.043292
0.0129183
-0.0201272
-0.0337368
-0.0126083
0.109133
0.121477
0.143385
0.11499
0.1062
0.0869031
0.0711321
0.0913761
0.103423
0.119593
0.094126
0.0609918
0.0283587
0.000352728
-0.0137438
0.00280165
0.0222343
-0.00372548
-0.0466535
-0.0716526
-0.0988053
-0.122685
-0.140263
-0.13945
-0.133708
-0.116641
-0.108316
-0.103805
-0.106208
-0.113435
-0.113623
-0.118222
-0.139781
-0.172706
-0.192347
-0.182833
-0.171572
-0.154331
-0.144183
-0.142048
-0.138266
-0.122608
-0.092482
-0.0828141
-0.0743136
-0.0645078
-0.0636018
-0.0613171
-0.0550231
-0.057275
-0.0495085
-0.0383349
-0.021018
-0.0025352
0.0172799
0.0412821
0.0521871
0.0601178
0.0707759
0.0879337
0.114547
0.130478
0.134624
0.132023
0.131686
0.124473
0.116707
0.142476
0.154099
0.163405
0.171905
0.190404
0.208273
0.2027
0.176761
0.160929
0.187894
0.216322
0.217542
0.203353
0.18861
0.189809
0.174286
0.163557
0.167434
0.138608
0.122239
0.129023
0.121576
0.105177
0.0790445
0.0608425
0.0574091
0.055227
0.0647253
0.0568054
0.0210659
-0.0237456
-0.0354049
-0.00992839
0.11203
0.10943
0.123374
0.122478
0.120817
0.0987883
0.091018
0.0920522
0.0958242
0.0799896
0.0603592
0.0397089
0.0372061
0.0342758
0.0287861
0.0364403
0.0165911
-0.0167985
-0.0430443
-0.0764432
-0.10432
-0.138829
-0.139405
-0.130396
-0.130909
-0.133775
-0.112244
-0.113551
-0.13341
-0.126375
-0.118136
-0.11574
-0.115592
-0.130575
-0.187092
-0.197508
-0.178747
-0.159229
-0.145754
-0.139321
-0.131068
-0.123575
-0.0895121
-0.0722698
-0.059109
-0.0460254
-0.0554932
-0.0665679
-0.0695181
-0.0728067
-0.0568439
-0.0223399
-0.0103721
0.000864653
0.02309
0.0353841
0.0373212
0.0518231
0.0714916
0.090251
0.118679
0.12537
0.122176
0.127415
0.122635
0.124911
0.128954
0.134255
0.153202
0.185821
0.197372
0.200683
0.19885
0.182148
0.170408
0.158148
0.179412
0.213952
0.214024
0.210931
0.192403
0.184579
0.170331
0.159334
0.157219
0.137599