/*--------------------------------*- C++ -*----------------------------------*\
| =========                 |                                                 |
| \\      /  F ield         | OpenFOAM: The Open Source CFD Toolbox           |
|  \\    /   O peration     | Version:  v2012                                 |
|   \\  /    A nd           | Website:  www.openfoam.com                      |
|    \\/     M anipulation  |                                                 |
\*---------------------------------------------------------------------------*/
FoamFile
{
    version     2.0;
    format      ascii;
    class       volScalarField;
    location    "6.5";
    object      p;
}
// * * * * * * * * * * * * * * * * * * * * * * * * * * * * * * * * * * * * * //

dimensions      [0 2 -2 0 0 0 0];


internalField   nonuniform List<scalar> 
65536
(
1.21091e-09
-2.55937e-06
-7.68618e-06
-1.53717e-05
-2.56169e-05
-3.84234e-05
-5.37925e-05
-7.17261e-05
-9.2226e-05
-0.000115294
-0.00014093
-0.000169138
-0.000199919
-0.000233275
-0.000269208
-0.00030772
-0.000348813
-0.000392488
-0.000438746
-0.00048759
-0.000539019
-0.000593035
-0.000649637
-0.000708824
-0.000770597
-0.000834953
-0.000901891
-0.000971406
-0.0010435
-0.00111815
-0.00119538
-0.00127516
-0.00135749
-0.00144235
-0.00152975
-0.00161966
-0.00171208
-0.00180698
-0.00190436
-0.00200419
-0.00210645
-0.00221112
-0.00231818
-0.00242759
-0.00253934
-0.00265339
-0.0027697
-0.00288825
-0.00300898
-0.00313187
-0.00325687
-0.00338394
-0.00351301
-0.00364406
-0.00377701
-0.00391181
-0.00404841
-0.00418674
-0.00432673
-0.00446832
-0.00461143
-0.004756
-0.00490194
-0.00504917
-0.00519762
-0.00534719
-0.0054978
-0.00564936
-0.00580177
-0.00595494
-0.00610877
-0.00626316
-0.006418
-0.0065732
-0.00672864
-0.00688422
-0.00703983
-0.00719535
-0.00735068
-0.00750569
-0.00766028
-0.00781432
-0.0079677
-0.00812031
-0.00827203
-0.00842273
-0.00857231
-0.00872065
-0.00886762
-0.00901312
-0.00915704
-0.00929925
-0.00943965
-0.00957812
-0.00971457
-0.00984889
-0.00998096
-0.0101107
-0.010238
-0.0103628
-0.0104849
-0.0106043
-0.010721
-0.0108347
-0.0109455
-0.0110533
-0.0111579
-0.0112594
-0.0113576
-0.0114526
-0.0115442
-0.0116324
-0.0117171
-0.0117984
-0.0118761
-0.0119503
-0.0120209
-0.0120879
-0.0121513
-0.012211
-0.0122671
-0.0123195
-0.0123683
-0.0124134
-0.0124548
-0.0124926
-0.0125268
-0.0125574
-0.0125843
-0.0126078
-0.0126276
-0.012644
-0.0126569
-0.0126664
-0.0126725
-0.0126753
-0.0126747
-0.0126709
-0.012664
-0.0126539
-0.0126407
-0.0126244
-0.0126053
-0.0125832
-0.0125583
-0.0125306
-0.0125002
-0.0124672
-0.0124316
-0.0123935
-0.012353
-0.0123101
-0.012265
-0.0122177
-0.0121682
-0.0121167
-0.0120632
-0.0120077
-0.0119505
-0.0118915
-0.0118308
-0.0117685
-0.0117047
-0.0116393
-0.0115727
-0.0115047
-0.0114354
-0.011365
-0.0112935
-0.0112209
-0.0111474
-0.011073
-0.0109978
-0.0109218
-0.0108451
-0.0107678
-0.01069
-0.0106116
-0.0105328
-0.0104537
-0.0103742
-0.0102945
-0.0102146
-0.0101346
-0.0100545
-0.00997433
-0.00989424
-0.00981423
-0.00973436
-0.00965468
-0.00957524
-0.00949609
-0.00941728
-0.00933886
-0.00926087
-0.00918335
-0.00910635
-0.00902991
-0.00895407
-0.00887888
-0.00880437
-0.00873058
-0.00865755
-0.00858531
-0.00851391
-0.00844337
-0.00837372
-0.00830501
-0.00823725
-0.00817049
-0.00810475
-0.00804006
-0.00797645
-0.00791394
-0.00785256
-0.00779234
-0.00773329
-0.00767545
-0.00761884
-0.00756347
-0.00750937
-0.00745656
-0.00740506
-0.00735488
-0.00730605
-0.00725858
-0.00721249
-0.0071678
-0.00712451
-0.00708265
-0.00704223
-0.00700325
-0.00696575
-0.00692972
-0.00689517
-0.00686213
-0.00683059
-0.00680057
-0.00677209
-0.00674513
-0.00671973
-0.00669587
-0.00667357
-0.00665284
-0.00663368
-0.0066161
-0.0066001
-0.00658569
-0.00657287
-0.00656164
-0.00655201
-0.00654398
-0.00653756
-0.00653274
-0.00652952
-0.00652792
-1.98655e-06
-4.54645e-06
-9.67091e-06
-1.73539e-05
-2.75967e-05
-4.04009e-05
-5.57674e-05
-7.36977e-05
-9.41937e-05
-0.000117257
-0.000142889
-0.000171092
-0.000201868
-0.000235218
-0.000271145
-0.000309651
-0.000350737
-0.000394405
-0.000440657
-0.000489493
-0.000540915
-0.000594922
-0.000651516
-0.000710696
-0.000772461
-0.000836809
-0.000903738
-0.000973245
-0.00104533
-0.00111998
-0.00119719
-0.00127696
-0.00135928
-0.00144414
-0.00153153
-0.00162144
-0.00171385
-0.00180875
-0.00190612
-0.00200594
-0.0021082
-0.00221287
-0.00231992
-0.00242933
-0.00254108
-0.00265513
-0.00277144
-0.00288998
-0.00301072
-0.00313362
-0.00325862
-0.00338569
-0.00351477
-0.00364582
-0.00377878
-0.00391359
-0.0040502
-0.00418853
-0.00432854
-0.00447014
-0.00461327
-0.00475785
-0.00490381
-0.00505106
-0.00519953
-0.00534912
-0.00549975
-0.00565133
-0.00580377
-0.00595696
-0.00611082
-0.00626524
-0.00642011
-0.00657534
-0.00673082
-0.00688643
-0.00704207
-0.00719763
-0.00735299
-0.00750804
-0.00766266
-0.00781674
-0.00797016
-0.00812281
-0.00827456
-0.00842531
-0.00857493
-0.0087233
-0.00887032
-0.00901586
-0.00915981
-0.00930207
-0.00944251
-0.00958102
-0.00971751
-0.00985187
-0.00998398
-0.0101138
-0.0102411
-0.0103659
-0.0104881
-0.0106075
-0.0107242
-0.010838
-0.0109488
-0.0110566
-0.0111613
-0.0112628
-0.0113611
-0.011456
-0.0115477
-0.0116359
-0.0117207
-0.0118019
-0.0118797
-0.0119539
-0.0120245
-0.0120916
-0.0121549
-0.0122147
-0.0122708
-0.0123232
-0.012372
-0.0124171
-0.0124585
-0.0124963
-0.0125305
-0.0125611
-0.012588
-0.0126115
-0.0126313
-0.0126477
-0.0126606
-0.0126701
-0.0126762
-0.0126789
-0.0126784
-0.0126746
-0.0126676
-0.0126575
-0.0126442
-0.012628
-0.0126088
-0.0125867
-0.0125618
-0.0125341
-0.0125037
-0.0124706
-0.012435
-0.0123969
-0.0123564
-0.0123135
-0.0122683
-0.012221
-0.0121715
-0.0121199
-0.0120664
-0.0120109
-0.0119537
-0.0118946
-0.0118339
-0.0117716
-0.0117077
-0.0116424
-0.0115757
-0.0115076
-0.0114383
-0.0113679
-0.0112963
-0.0112237
-0.0111502
-0.0110758
-0.0110005
-0.0109245
-0.0108478
-0.0107705
-0.0106926
-0.0106142
-0.0105354
-0.0104562
-0.0103767
-0.010297
-0.0102171
-0.010137
-0.0100569
-0.00997671
-0.00989658
-0.00981655
-0.00973665
-0.00965695
-0.00957748
-0.00949831
-0.00941947
-0.00934102
-0.009263
-0.00918546
-0.00910843
-0.00903197
-0.00895611
-0.0088809
-0.00880636
-0.00873255
-0.0086595
-0.00858724
-0.00851581
-0.00844525
-0.00837559
-0.00830685
-0.00823908
-0.0081723
-0.00810654
-0.00804183
-0.0079782
-0.00791567
-0.00785428
-0.00779404
-0.00773498
-0.00767712
-0.00762049
-0.00756511
-0.00751099
-0.00745817
-0.00740665
-0.00735646
-0.00730762
-0.00726014
-0.00721404
-0.00716933
-0.00712603
-0.00708416
-0.00704373
-0.00700475
-0.00696723
-0.00693119
-0.00689664
-0.00686359
-0.00683204
-0.00680202
-0.00677352
-0.00674656
-0.00672115
-0.00669729
-0.00667499
-0.00665425
-0.00663509
-0.0066175
-0.0066015
-0.00658708
-0.00657426
-0.00656303
-0.0065534
-0.00654537
-0.00653894
-0.00653412
-0.0065309
-0.0065293
-5.96626e-06
-8.52404e-06
-1.3645e-05
-2.13238e-05
-3.15622e-05
-4.43615e-05
-5.97224e-05
-7.76464e-05
-9.81348e-05
-0.00012119
-0.000146813
-0.000175006
-0.000205771
-0.000239111
-0.000275026
-0.000313519
-0.000354592
-0.000398246
-0.000444483
-0.000493304
-0.000544711
-0.000598703
-0.000655281
-0.000714445
-0.000776193
-0.000840525
-0.000907437
-0.000976928
-0.00104899
-0.00112363
-0.00120083
-0.00128058
-0.00136289
-0.00144773
-0.00153511
-0.001625
-0.0017174
-0.00181229
-0.00190965
-0.00200946
-0.00211171
-0.00221637
-0.00232341
-0.00243282
-0.00254456
-0.00265861
-0.00277492
-0.00289347
-0.00301421
-0.00313711
-0.00326211
-0.00338919
-0.00351828
-0.00364935
-0.00378232
-0.00391715
-0.00405378
-0.00419214
-0.00433217
-0.0044738
-0.00461695
-0.00476157
-0.00490756
-0.00505485
-0.00520335
-0.00535299
-0.00550366
-0.00565529
-0.00580778
-0.00596102
-0.00611493
-0.00626941
-0.00642434
-0.00657963
-0.00673517
-0.00689085
-0.00704655
-0.00720218
-0.00735761
-0.00751273
-0.00766743
-0.00782159
-0.00797508
-0.00812781
-0.00827964
-0.00843047
-0.00858017
-0.00872862
-0.00887572
-0.00902134
-0.00916538
-0.00930771
-0.00944823
-0.00958683
-0.0097234
-0.00985784
-0.00999003
-0.0101199
-0.0102473
-0.0103722
-0.0104944
-0.010614
-0.0107307
-0.0108446
-0.0109554
-0.0110633
-0.011168
-0.0112696
-0.0113679
-0.011463
-0.0115546
-0.0116429
-0.0117277
-0.0118091
-0.0118869
-0.0119611
-0.0120318
-0.0120988
-0.0121622
-0.012222
-0.0122781
-0.0123306
-0.0123793
-0.0124245
-0.0124659
-0.0125037
-0.0125379
-0.0125685
-0.0125955
-0.0126189
-0.0126387
-0.0126551
-0.012668
-0.0126774
-0.0126835
-0.0126862
-0.0126857
-0.0126818
-0.0126748
-0.0126647
-0.0126514
-0.0126352
-0.0126159
-0.0125938
-0.0125688
-0.0125411
-0.0125106
-0.0124775
-0.0124419
-0.0124037
-0.0123631
-0.0123202
-0.012275
-0.0122276
-0.012178
-0.0121264
-0.0120728
-0.0120173
-0.01196
-0.0119009
-0.0118401
-0.0117777
-0.0117138
-0.0116484
-0.0115816
-0.0115136
-0.0114442
-0.0113737
-0.0113021
-0.0112294
-0.0111558
-0.0110813
-0.011006
-0.01093
-0.0108532
-0.0107758
-0.0106979
-0.0106194
-0.0105406
-0.0104613
-0.0103818
-0.010302
-0.010222
-0.0101419
-0.0100617
-0.00998146
-0.00990128
-0.00982119
-0.00974124
-0.00966148
-0.00958197
-0.00950274
-0.00942385
-0.00934535
-0.00926728
-0.00918969
-0.00911262
-0.0090361
-0.0089602
-0.00888493
-0.00881036
-0.0087365
-0.0086634
-0.0085911
-0.00851963
-0.00844903
-0.00837932
-0.00831055
-0.00824273
-0.00817591
-0.00811012
-0.00804537
-0.00798171
-0.00791914
-0.00785771
-0.00779744
-0.00773835
-0.00768046
-0.0076238
-0.00756839
-0.00751425
-0.00746139
-0.00740985
-0.00735963
-0.00731077
-0.00726326
-0.00721713
-0.0071724
-0.00712909
-0.00708719
-0.00704674
-0.00700774
-0.0069702
-0.00693415
-0.00689958
-0.00686651
-0.00683495
-0.00680491
-0.0067764
-0.00674943
-0.006724
-0.00670013
-0.00667782
-0.00665707
-0.0066379
-0.0066203
-0.00660429
-0.00658987
-0.00657704
-0.00656581
-0.00655617
-0.00654814
-0.00654171
-0.00653688
-0.00653367
-0.00653206
-1.19322e-05
-1.44879e-05
-1.96051e-05
-2.72791e-05
-3.75112e-05
-5.03029e-05
-6.56553e-05
-8.35696e-05
-0.000104047
-0.00012709
-0.000152699
-0.000180878
-0.000211627
-0.000244949
-0.000280847
-0.000319321
-0.000360374
-0.000404007
-0.000450223
-0.000499022
-0.000550406
-0.000604375
-0.000660929
-0.000720069
-0.000781793
-0.0008461
-0.000912988
-0.000982454
-0.00105449
-0.00112911
-0.00120628
-0.00128601
-0.0013683
-0.00145312
-0.00154047
-0.00163035
-0.00172272
-0.00181759
-0.00191494
-0.00201474
-0.00211697
-0.00222162
-0.00232865
-0.00243806
-0.00254979
-0.00266383
-0.00278014
-0.00289869
-0.00301944
-0.00314234
-0.00326736
-0.00339445
-0.00352356
-0.00365464
-0.00378764
-0.00392249
-0.00405915
-0.00419754
-0.00433761
-0.00447928
-0.00462248
-0.00476714
-0.00491318
-0.00506053
-0.00520909
-0.00535879
-0.00550953
-0.00566123
-0.00581379
-0.00596712
-0.00612111
-0.00627567
-0.00643069
-0.00658607
-0.0067417
-0.00689748
-0.00705329
-0.00720902
-0.00736455
-0.00751978
-0.00767459
-0.00782886
-0.00798248
-0.00813532
-0.00828727
-0.00843821
-0.00858803
-0.00873661
-0.00888383
-0.00902958
-0.00917373
-0.00931619
-0.00945683
-0.00959555
-0.00973224
-0.0098668
-0.00999911
-0.0101291
-0.0102566
-0.0103816
-0.010504
-0.0106236
-0.0107405
-0.0108544
-0.0109654
-0.0110733
-0.0111782
-0.0112798
-0.0113782
-0.0114734
-0.0115651
-0.0116535
-0.0117383
-0.0118197
-0.0118976
-0.0119719
-0.0120426
-0.0121097
-0.0121732
-0.012233
-0.0122891
-0.0123416
-0.0123904
-0.0124355
-0.012477
-0.0125148
-0.012549
-0.0125796
-0.0126066
-0.01263
-0.0126498
-0.0126662
-0.0126791
-0.0126885
-0.0126945
-0.0126972
-0.0126966
-0.0126928
-0.0126857
-0.0126755
-0.0126622
-0.0126459
-0.0126266
-0.0126044
-0.0125794
-0.0125516
-0.012521
-0.0124879
-0.0124522
-0.0124139
-0.0123733
-0.0123303
-0.012285
-0.0122375
-0.0121879
-0.0121362
-0.0120825
-0.0120269
-0.0119695
-0.0119103
-0.0118495
-0.011787
-0.011723
-0.0116575
-0.0115906
-0.0115225
-0.011453
-0.0113824
-0.0113107
-0.011238
-0.0111643
-0.0110897
-0.0110143
-0.0109381
-0.0108613
-0.0107838
-0.0107058
-0.0106273
-0.0105483
-0.010469
-0.0103893
-0.0103095
-0.0102294
-0.0101492
-0.0100689
-0.0099886
-0.00990834
-0.00982816
-0.00974813
-0.00966829
-0.0095887
-0.00950939
-0.00943043
-0.00935185
-0.0092737
-0.00919603
-0.00911889
-0.0090423
-0.00896632
-0.00889099
-0.00881634
-0.00874242
-0.00866926
-0.00859689
-0.00852536
-0.00845469
-0.00838492
-0.00831609
-0.00824821
-0.00818134
-0.00811548
-0.00805068
-0.00798696
-0.00792435
-0.00786287
-0.00780255
-0.00774341
-0.00768547
-0.00762876
-0.00757331
-0.00751912
-0.00746623
-0.00741464
-0.00736439
-0.00731548
-0.00726794
-0.00722178
-0.00717701
-0.00713366
-0.00709174
-0.00705125
-0.00701222
-0.00697466
-0.00693858
-0.00690398
-0.00687089
-0.00683931
-0.00680925
-0.00678072
-0.00675373
-0.00672828
-0.00670439
-0.00668206
-0.0066613
-0.00664212
-0.00662451
-0.00660849
-0.00659405
-0.00658122
-0.00656997
-0.00656033
-0.00655229
-0.00654586
-0.00654103
-0.00653781
-0.0065362
-1.98871e-05
-2.24405e-05
-2.75536e-05
-3.52217e-05
-4.5446e-05
-5.8228e-05
-7.3569e-05
-9.14701e-05
-0.000111933
-0.000134959
-0.000160551
-0.00018871
-0.000219438
-0.000252738
-0.000288611
-0.00032706
-0.000368087
-0.000411693
-0.00045788
-0.00050665
-0.000558003
-0.000611941
-0.000668464
-0.000727571
-0.000789263
-0.000853537
-0.000920392
-0.000989826
-0.00106183
-0.00113641
-0.00121356
-0.00129326
-0.00137551
-0.0014603
-0.00154763
-0.00163748
-0.00172983
-0.00182467
-0.00192199
-0.00202177
-0.00212399
-0.00222862
-0.00233565
-0.00244504
-0.00255677
-0.0026708
-0.00278711
-0.00290566
-0.00302641
-0.00314933
-0.00327436
-0.00340147
-0.0035306
-0.00366171
-0.00379473
-0.00392962
-0.00406632
-0.00420476
-0.00434487
-0.0044866
-0.00462986
-0.00477458
-0.00492069
-0.00506811
-0.00521675
-0.00536654
-0.00551737
-0.00566916
-0.00582182
-0.00597525
-0.00612935
-0.00628402
-0.00643916
-0.00659466
-0.00675042
-0.00690633
-0.00706227
-0.00721814
-0.00737382
-0.0075292
-0.00768415
-0.00783857
-0.00799234
-0.00814534
-0.00829745
-0.00844855
-0.00859853
-0.00874727
-0.00889466
-0.00904057
-0.00918489
-0.00932751
-0.00946832
-0.0096072
-0.00974405
-0.00987876
-0.0100112
-0.0101414
-0.010269
-0.0103942
-0.0105167
-0.0106365
-0.0107535
-0.0108676
-0.0109787
-0.0110868
-0.0111917
-0.0112935
-0.011392
-0.0114872
-0.0115791
-0.0116675
-0.0117525
-0.011834
-0.011912
-0.0119863
-0.0120571
-0.0121243
-0.0121878
-0.0122476
-0.0123038
-0.0123563
-0.0124052
-0.0124503
-0.0124918
-0.0125297
-0.0125639
-0.0125944
-0.0126214
-0.0126448
-0.0126646
-0.012681
-0.0126938
-0.0127032
-0.0127092
-0.0127119
-0.0127112
-0.0127073
-0.0127002
-0.0126899
-0.0126766
-0.0126602
-0.0126408
-0.0126186
-0.0125935
-0.0125656
-0.012535
-0.0125017
-0.0124659
-0.0124276
-0.0123868
-0.0123437
-0.0122984
-0.0122508
-0.012201
-0.0121492
-0.0120955
-0.0120398
-0.0119822
-0.0119229
-0.011862
-0.0117994
-0.0117352
-0.0116696
-0.0116026
-0.0115343
-0.0114648
-0.0113941
-0.0113222
-0.0112494
-0.0111756
-0.0111009
-0.0110253
-0.0109491
-0.0108721
-0.0107945
-0.0107163
-0.0106377
-0.0105586
-0.0104792
-0.0103994
-0.0103194
-0.0102392
-0.0101589
-0.0100785
-0.00999812
-0.00991775
-0.00983746
-0.00975732
-0.00967737
-0.00959767
-0.00951826
-0.00943919
-0.00936051
-0.00928226
-0.0092045
-0.00912725
-0.00905057
-0.0089745
-0.00889907
-0.00882433
-0.00875031
-0.00867706
-0.00860461
-0.00853299
-0.00846224
-0.00839239
-0.00832347
-0.00825552
-0.00818857
-0.00812264
-0.00805777
-0.00799397
-0.00793129
-0.00786974
-0.00780935
-0.00775015
-0.00769215
-0.00763538
-0.00757986
-0.00752562
-0.00747267
-0.00742103
-0.00737073
-0.00732177
-0.00727418
-0.00722797
-0.00718316
-0.00713976
-0.0070978
-0.00705727
-0.0070182
-0.0069806
-0.00694448
-0.00690986
-0.00687673
-0.00684512
-0.00681503
-0.00678647
-0.00675945
-0.00673398
-0.00671007
-0.00668772
-0.00666694
-0.00664774
-0.00663011
-0.00661408
-0.00659963
-0.00658678
-0.00657553
-0.00656587
-0.00655783
-0.00655139
-0.00654656
-0.00654333
-0.00654172
-2.98351e-05
-3.23858e-05
-3.74937e-05
-4.51545e-05
-5.53694e-05
-6.81396e-05
-8.34665e-05
-0.000101351
-0.000121796
-0.000144802
-0.000170371
-0.000198505
-0.000229207
-0.000262479
-0.000298323
-0.00033674
-0.000377734
-0.000421306
-0.000467457
-0.00051619
-0.000567506
-0.000621405
-0.000677888
-0.000736956
-0.000798607
-0.00086284
-0.000929655
-0.000999047
-0.00107101
-0.00114555
-0.00122266
-0.00130232
-0.00138453
-0.00146929
-0.00155658
-0.0016464
-0.00173872
-0.00183353
-0.00193083
-0.00203058
-0.00213277
-0.00223739
-0.0023444
-0.00245377
-0.00256549
-0.00267952
-0.00279583
-0.00291439
-0.00303515
-0.00315807
-0.00328312
-0.00341025
-0.00353941
-0.00367055
-0.00380361
-0.00393855
-0.00407529
-0.00421379
-0.00435396
-0.00449575
-0.00463909
-0.00478389
-0.00493009
-0.0050776
-0.00522634
-0.00537623
-0.00552718
-0.00567909
-0.00583187
-0.00598543
-0.00613966
-0.00629448
-0.00644977
-0.00660542
-0.00676134
-0.00691741
-0.00707352
-0.00722957
-0.00738542
-0.00754098
-0.00769612
-0.00785073
-0.00800469
-0.00815789
-0.0083102
-0.0084615
-0.00861168
-0.00876063
-0.00890821
-0.00905433
-0.00919886
-0.00934168
-0.00948269
-0.00962178
-0.00975883
-0.00989375
-0.0100264
-0.0101567
-0.0102846
-0.0104099
-0.0105326
-0.0106526
-0.0107698
-0.010884
-0.0109953
-0.0111036
-0.0112087
-0.0113106
-0.0114093
-0.0115046
-0.0115966
-0.0116852
-0.0117703
-0.0118519
-0.0119299
-0.0120044
-0.0120753
-0.0121425
-0.0122061
-0.012266
-0.0123222
-0.0123748
-0.0124237
-0.0124689
-0.0125104
-0.0125482
-0.0125825
-0.012613
-0.01264
-0.0126634
-0.0126832
-0.0126995
-0.0127123
-0.0127217
-0.0127276
-0.0127302
-0.0127295
-0.0127256
-0.0127184
-0.012708
-0.0126946
-0.0126781
-0.0126587
-0.0126363
-0.0126111
-0.0125831
-0.0125524
-0.012519
-0.0124831
-0.0124447
-0.0124038
-0.0123606
-0.0123151
-0.0122673
-0.0122175
-0.0121655
-0.0121116
-0.0120558
-0.0119981
-0.0119387
-0.0118776
-0.0118148
-0.0117505
-0.0116848
-0.0116177
-0.0115492
-0.0114795
-0.0114086
-0.0113367
-0.0112637
-0.0111897
-0.0111148
-0.0110392
-0.0109627
-0.0108856
-0.0108079
-0.0107296
-0.0106508
-0.0105715
-0.0104919
-0.010412
-0.0103319
-0.0102516
-0.0101711
-0.0100906
-0.01001
-0.00992951
-0.00984909
-0.00976881
-0.00968873
-0.00960889
-0.00952935
-0.00945015
-0.00937134
-0.00929297
-0.00921508
-0.00913771
-0.00906091
-0.00898471
-0.00890917
-0.00883431
-0.00876019
-0.00868682
-0.00861426
-0.00854253
-0.00847168
-0.00840172
-0.00833271
-0.00826466
-0.00819761
-0.00813159
-0.00806662
-0.00800274
-0.00793997
-0.00787833
-0.00781786
-0.00775857
-0.0077005
-0.00764365
-0.00758806
-0.00753375
-0.00748072
-0.00742902
-0.00737865
-0.00732963
-0.00728197
-0.0072357
-0.00719084
-0.00714739
-0.00710537
-0.00706479
-0.00702568
-0.00698803
-0.00695186
-0.00691719
-0.00688403
-0.00685238
-0.00682225
-0.00679366
-0.00676661
-0.00674111
-0.00671717
-0.00669479
-0.00667399
-0.00665476
-0.00663712
-0.00662106
-0.0066066
-0.00659373
-0.00658247
-0.0065728
-0.00656475
-0.0065583
-0.00655346
-0.00655024
-0.00654862
-4.17797e-05
-4.43273e-05
-4.94293e-05
-5.70813e-05
-6.72848e-05
-8.00411e-05
-9.53512e-05
-0.000113217
-0.000133639
-0.000156621
-0.000182163
-0.000210268
-0.000240939
-0.000274177
-0.000309985
-0.000348365
-0.000389319
-0.00043285
-0.000478959
-0.000527648
-0.000578918
-0.000632771
-0.000689207
-0.000748226
-0.000809829
-0.000874013
-0.000940779
-0.00101012
-0.00108204
-0.00115653
-0.00123359
-0.0013132
-0.00139537
-0.00148009
-0.00156734
-0.00165711
-0.00174939
-0.00184417
-0.00194143
-0.00204116
-0.00214332
-0.00224792
-0.0023549
-0.00246427
-0.00257598
-0.00269
-0.00280631
-0.00292487
-0.00304564
-0.00316858
-0.00329365
-0.0034208
-0.00354999
-0.00368117
-0.00381428
-0.00394927
-0.00408608
-0.00422464
-0.00436489
-0.00450676
-0.00465018
-0.00479508
-0.00494139
-0.00508901
-0.00523787
-0.00538788
-0.00553896
-0.00569102
-0.00584395
-0.00599766
-0.00615206
-0.00630705
-0.00646252
-0.00661836
-0.00677447
-0.00693073
-0.00708705
-0.0072433
-0.00739937
-0.00755515
-0.00771052
-0.00786536
-0.00801955
-0.00817298
-0.00832552
-0.00847707
-0.0086275
-0.00877669
-0.00892452
-0.00907088
-0.00921566
-0.00935873
-0.00949999
-0.00963932
-0.00977661
-0.00991177
-0.0100447
-0.0101752
-0.0103033
-0.0104289
-0.0105518
-0.010672
-0.0107894
-0.0109038
-0.0110153
-0.0111238
-0.0112291
-0.0113312
-0.01143
-0.0115255
-0.0116177
-0.0117064
-0.0117916
-0.0118733
-0.0119515
-0.0120261
-0.0120971
-0.0121644
-0.0122281
-0.0122881
-0.0123444
-0.012397
-0.0124459
-0.0124912
-0.0125327
-0.0125706
-0.0126048
-0.0126354
-0.0126623
-0.0126857
-0.0127055
-0.0127218
-0.0127346
-0.0127439
-0.0127498
-0.0127523
-0.0127515
-0.0127475
-0.0127402
-0.0127298
-0.0127163
-0.0126997
-0.0126801
-0.0126576
-0.0126323
-0.0126042
-0.0125734
-0.0125399
-0.0125038
-0.0124652
-0.0124242
-0.0123808
-0.0123352
-0.0122873
-0.0122372
-0.0121851
-0.0121311
-0.0120751
-0.0120172
-0.0119576
-0.0118963
-0.0118334
-0.0117689
-0.011703
-0.0116357
-0.0115671
-0.0114972
-0.0114261
-0.011354
-0.0112808
-0.0112066
-0.0111316
-0.0110557
-0.0109791
-0.0109018
-0.0108239
-0.0107454
-0.0106664
-0.010587
-0.0105073
-0.0104272
-0.0103469
-0.0102664
-0.0101857
-0.010105
-0.0100243
-0.00994364
-0.00986305
-0.00978261
-0.00970236
-0.00962237
-0.00954267
-0.00946331
-0.00938435
-0.00930582
-0.00922778
-0.00915026
-0.00907331
-0.00899698
-0.00892129
-0.0088463
-0.00877203
-0.00869854
-0.00862584
-0.00855399
-0.008483
-0.00841293
-0.00834379
-0.00827562
-0.00820846
-0.00814232
-0.00807724
-0.00801325
-0.00795038
-0.00788864
-0.00782807
-0.00776868
-0.00771051
-0.00765358
-0.0075979
-0.00754349
-0.00749039
-0.0074386
-0.00738815
-0.00733905
-0.00729133
-0.00724499
-0.00720005
-0.00715654
-0.00711445
-0.00707382
-0.00703464
-0.00699694
-0.00696072
-0.006926
-0.00689278
-0.00686109
-0.00683092
-0.00680228
-0.0067752
-0.00674966
-0.00672568
-0.00670328
-0.00668244
-0.00666319
-0.00664552
-0.00662944
-0.00661496
-0.00660207
-0.00659079
-0.00658111
-0.00657305
-0.00656659
-0.00656175
-0.00655852
-0.0065569
-5.57247e-05
-5.82691e-05
-6.33644e-05
-7.10063e-05
-8.11966e-05
-9.39366e-05
-0.000109227
-0.00012707
-0.000147467
-0.00017042
-0.000195931
-0.000224003
-0.000254637
-0.000287836
-0.000323602
-0.000361938
-0.000402847
-0.00044633
-0.000492389
-0.000541026
-0.000592244
-0.000646043
-0.000702424
-0.000761387
-0.000822933
-0.000887061
-0.00095377
-0.00102306
-0.00109492
-0.00116935
-0.00124635
-0.00132592
-0.00140803
-0.0014927
-0.0015799
-0.00166962
-0.00176186
-0.0018566
-0.00195382
-0.00205351
-0.00215565
-0.00226021
-0.00236718
-0.00247653
-0.00258822
-0.00270224
-0.00281855
-0.00293711
-0.00305789
-0.00318085
-0.00330594
-0.00343313
-0.00356236
-0.00369359
-0.00382675
-0.0039618
-0.00409868
-0.00423731
-0.00437765
-0.00451962
-0.00466315
-0.00480816
-0.00495459
-0.00510234
-0.00525134
-0.00540151
-0.00555274
-0.00570496
-0.00585807
-0.00601197
-0.00616656
-0.00632175
-0.00647742
-0.00663348
-0.00678981
-0.00694631
-0.00710287
-0.00725936
-0.00741568
-0.00757172
-0.00772735
-0.00788245
-0.00803692
-0.00819063
-0.00834345
-0.00849528
-0.00864599
-0.00879547
-0.00894359
-0.00909024
-0.0092353
-0.00937867
-0.00952021
-0.00965983
-0.00979741
-0.00993285
-0.010066
-0.0101969
-0.0103252
-0.0104511
-0.0105742
-0.0106947
-0.0108123
-0.010927
-0.0110387
-0.0111474
-0.0112529
-0.0113552
-0.0114543
-0.01155
-0.0116423
-0.0117312
-0.0118166
-0.0118985
-0.0119768
-0.0120515
-0.0121226
-0.01219
-0.0122538
-0.0123139
-0.0123703
-0.012423
-0.0124719
-0.0125172
-0.0125588
-0.0125967
-0.0126309
-0.0126615
-0.0126885
-0.0127118
-0.0127316
-0.0127478
-0.0127606
-0.0127698
-0.0127757
-0.0127781
-0.0127773
-0.0127731
-0.0127657
-0.0127552
-0.0127416
-0.0127249
-0.0127052
-0.0126826
-0.0126571
-0.0126288
-0.0125978
-0.0125642
-0.012528
-0.0124892
-0.012448
-0.0124045
-0.0123586
-0.0123106
-0.0122603
-0.0122081
-0.0121538
-0.0120976
-0.0120395
-0.0119797
-0.0119182
-0.0118551
-0.0117904
-0.0117243
-0.0116568
-0.0115879
-0.0115178
-0.0114466
-0.0113742
-0.0113008
-0.0112265
-0.0111512
-0.0110751
-0.0109983
-0.0109208
-0.0108426
-0.010764
-0.0106848
-0.0106052
-0.0105252
-0.0104449
-0.0103644
-0.0102837
-0.0102028
-0.0101219
-0.010041
-0.00996013
-0.00987935
-0.00979872
-0.00971828
-0.0096381
-0.00955821
-0.00947867
-0.00939953
-0.00932082
-0.0092426
-0.00916491
-0.0090878
-0.00901129
-0.00893544
-0.00886029
-0.00878586
-0.00871221
-0.00863936
-0.00856735
-0.00849622
-0.008426
-0.00835672
-0.00828842
-0.00822112
-0.00815485
-0.00808964
-0.00802552
-0.00796252
-0.00790067
-0.00783998
-0.00778048
-0.0077222
-0.00766515
-0.00760937
-0.00755486
-0.00750166
-0.00744978
-0.00739924
-0.00735005
-0.00730224
-0.00725581
-0.0072108
-0.0071672
-0.00712505
-0.00708434
-0.0070451
-0.00700733
-0.00697105
-0.00693627
-0.006903
-0.00687124
-0.00684102
-0.00681234
-0.00678521
-0.00675963
-0.00673561
-0.00671317
-0.0066923
-0.00667301
-0.00665532
-0.00663921
-0.0066247
-0.0066118
-0.0066005
-0.00659081
-0.00658273
-0.00657626
-0.00657141
-0.00656817
-0.00656655
-7.16753e-05
-7.42159e-05
-7.93038e-05
-8.69345e-05
-9.71098e-05
-0.000109831
-0.0001251
-0.000142917
-0.000163285
-0.000186206
-0.000211681
-0.000239714
-0.000270306
-0.000303461
-0.00033918
-0.000377466
-0.000418322
-0.00046175
-0.000507753
-0.000556332
-0.00060749
-0.000661227
-0.000717545
-0.000776445
-0.000837927
-0.00090199
-0.000968634
-0.00103786
-0.00110965
-0.00118402
-0.00126096
-0.00134046
-0.00142252
-0.00150713
-0.00159427
-0.00168394
-0.00177613
-0.00187082
-0.001968
-0.00206765
-0.00216976
-0.00227429
-0.00238123
-0.00249056
-0.00260224
-0.00271625
-0.00283256
-0.00295113
-0.00307192
-0.0031949
-0.00332002
-0.00344725
-0.00357652
-0.0037078
-0.00384103
-0.00397615
-0.0041131
-0.00425183
-0.00439227
-0.00453435
-0.004678
-0.00482314
-0.00496971
-0.00511761
-0.00526677
-0.00541711
-0.00556852
-0.00572093
-0.00587424
-0.00602835
-0.00618317
-0.00633858
-0.0064945
-0.0066508
-0.0068074
-0.00696416
-0.00712099
-0.00727777
-0.00743438
-0.00759071
-0.00774664
-0.00790205
-0.00805683
-0.00821085
-0.008364
-0.00851615
-0.00866719
-0.00881699
-0.00896545
-0.00911243
-0.00925783
-0.00940152
-0.0095434
-0.00968335
-0.00982125
-0.00995701
-0.0100905
-0.0102217
-0.0103504
-0.0104765
-0.0106
-0.0107207
-0.0108386
-0.0109536
-0.0110656
-0.0111745
-0.0112803
-0.0113828
-0.0114821
-0.011578
-0.0116706
-0.0117596
-0.0118452
-0.0119273
-0.0120058
-0.0120806
-0.0121519
-0.0122194
-0.0122833
-0.0123435
-0.0124
-0.0124527
-0.0125018
-0.0125471
-0.0125887
-0.0126267
-0.0126609
-0.0126915
-0.0127184
-0.0127417
-0.0127615
-0.0127777
-0.0127903
-0.0127995
-0.0128053
-0.0128077
-0.0128067
-0.0128025
-0.012795
-0.0127843
-0.0127706
-0.0127537
-0.0127339
-0.0127111
-0.0126855
-0.0126571
-0.0126259
-0.0125921
-0.0125556
-0.0125167
-0.0124753
-0.0124316
-0.0123855
-0.0123372
-0.0122868
-0.0122343
-0.0121798
-0.0121234
-0.0120651
-0.012005
-0.0119433
-0.0118799
-0.011815
-0.0117487
-0.0116809
-0.0116118
-0.0115415
-0.01147
-0.0113974
-0.0113237
-0.0112491
-0.0111736
-0.0110973
-0.0110202
-0.0109425
-0.0108641
-0.0107852
-0.0107057
-0.0106259
-0.0105457
-0.0104652
-0.0103844
-0.0103035
-0.0102224
-0.0101413
-0.0100601
-0.009979
-0.009898
-0.00981714
-0.00973649
-0.00965609
-0.00957599
-0.00949624
-0.00941689
-0.00933798
-0.00925956
-0.00918167
-0.00910435
-0.00902766
-0.00895162
-0.00887628
-0.00880167
-0.00872784
-0.00865481
-0.00858263
-0.00851133
-0.00844095
-0.00837151
-0.00830304
-0.00823558
-0.00816916
-0.00810381
-0.00803955
-0.00797641
-0.00791441
-0.00785359
-0.00779396
-0.00773555
-0.00767838
-0.00762248
-0.00756786
-0.00751454
-0.00746255
-0.0074119
-0.00736261
-0.0073147
-0.00726818
-0.00722308
-0.00717939
-0.00713715
-0.00709636
-0.00705704
-0.0070192
-0.00698285
-0.006948
-0.00691466
-0.00688285
-0.00685257
-0.00682383
-0.00679665
-0.00677102
-0.00674696
-0.00672447
-0.00670356
-0.00668424
-0.00666651
-0.00665037
-0.00663584
-0.00662291
-0.00661159
-0.00660188
-0.00659378
-0.0065873
-0.00658244
-0.0065792
-0.00657758
-8.96371e-05
-9.21735e-05
-9.7253e-05
-0.000104871
-0.00011503
-0.00012773
-0.000142974
-0.000160763
-0.000181098
-0.000203983
-0.000229418
-0.000257408
-0.000287953
-0.000321057
-0.000356723
-0.000394954
-0.000435751
-0.000479118
-0.000525058
-0.000573571
-0.000624662
-0.00067833
-0.000734578
-0.000793407
-0.000854816
-0.000918807
-0.000985377
-0.00105453
-0.00112625
-0.00120055
-0.00127742
-0.00135685
-0.00143884
-0.00152338
-0.00161046
-0.00170008
-0.00179221
-0.00188685
-0.00198398
-0.00208359
-0.00218565
-0.00229015
-0.00239707
-0.00250637
-0.00261804
-0.00273205
-0.00284835
-0.00296693
-0.00308773
-0.00321074
-0.00333589
-0.00346316
-0.00359248
-0.00372382
-0.00385712
-0.00399232
-0.00412937
-0.0042682
-0.00440875
-0.00455096
-0.00469474
-0.00484003
-0.00498676
-0.00513483
-0.00528417
-0.0054347
-0.00558632
-0.00573895
-0.00589249
-0.00604684
-0.0062019
-0.00635758
-0.00651376
-0.00667035
-0.00682723
-0.0069843
-0.00714144
-0.00729853
-0.00745547
-0.00761213
-0.0077684
-0.00792416
-0.00807929
-0.00823368
-0.00838719
-0.00853971
-0.00869112
-0.00884129
-0.00899012
-0.00913748
-0.00928325
-0.00942732
-0.00956957
-0.00970989
-0.00984817
-0.0099843
-0.0101182
-0.0102497
-0.0103787
-0.0105052
-0.010629
-0.0107501
-0.0108683
-0.0109836
-0.0110959
-0.0112051
-0.0113111
-0.011414
-0.0115135
-0.0116097
-0.0117025
-0.0117918
-0.0118776
-0.0119598
-0.0120385
-0.0121135
-0.0121849
-0.0122526
-0.0123166
-0.0123769
-0.0124335
-0.0124863
-0.0125354
-0.0125808
-0.0126225
-0.0126604
-0.0126947
-0.0127253
-0.0127522
-0.0127755
-0.0127952
-0.0128114
-0.012824
-0.0128331
-0.0128388
-0.012841
-0.01284
-0.0128356
-0.012828
-0.0128172
-0.0128033
-0.0127863
-0.0127663
-0.0127433
-0.0127175
-0.0126889
-0.0126575
-0.0126235
-0.0125869
-0.0125477
-0.0125061
-0.0124621
-0.0124158
-0.0123673
-0.0123166
-0.0122639
-0.0122091
-0.0121524
-0.0120939
-0.0120336
-0.0119716
-0.011908
-0.0118428
-0.0117761
-0.0117081
-0.0116387
-0.0115681
-0.0114963
-0.0114235
-0.0113495
-0.0112747
-0.0111989
-0.0111223
-0.0110449
-0.0109669
-0.0108883
-0.010809
-0.0107293
-0.0106492
-0.0105687
-0.010488
-0.0104069
-0.0103257
-0.0102444
-0.010163
-0.0100816
-0.0100002
-0.00991899
-0.00983789
-0.00975699
-0.00967634
-0.009596
-0.00951602
-0.00943643
-0.00935729
-0.00927864
-0.00920053
-0.00912299
-0.00904608