/*--------------------------------*- C++ -*----------------------------------*\
| =========                 |                                                 |
| \\      /  F ield         | OpenFOAM: The Open Source CFD Toolbox           |
|  \\    /   O peration     | Version:  v2012                                 |
|   \\  /    A nd           | Website:  www.openfoam.com                      |
|    \\/     M anipulation  |                                                 |
\*---------------------------------------------------------------------------*/
FoamFile
{
    version     2.0;
    format      ascii;
    class       surfaceScalarField;
    location    "6.5";
    object      phi;
}
// * * * * * * * * * * * * * * * * * * * * * * * * * * * * * * * * * * * * * //

dimensions      [0 3 -1 0 0 0 0];
oriented        oriented;


internalField   nonuniform List<scalar> 
130560
(
3.70054e-06
-3.70054e-06
7.40099e-06
-3.70045e-06
1.11013e-05
-3.70026e-06
1.48012e-05
-3.69998e-06
1.85008e-05
-3.69959e-06
2.21999e-05
-3.69911e-06
2.58984e-05
-3.69851e-06
2.95962e-05
-3.6978e-06
3.32932e-05
-3.69698e-06
3.69893e-05
-3.69603e-06
4.06842e-05
-3.69496e-06
4.4378e-05
-3.69374e-06
4.80703e-05
-3.69238e-06
5.17612e-05
-3.69087e-06
5.54504e-05
-3.68919e-06
5.91377e-05
-3.68734e-06
6.2823e-05
-3.68531e-06
6.65061e-05
-3.68307e-06
7.01867e-05
-3.68063e-06
7.38647e-05
-3.67797e-06
7.75398e-05
-3.67506e-06
8.12117e-05
-3.67191e-06
8.48802e-05
-3.66849e-06
8.8545e-05
-3.6648e-06
9.22058e-05
-3.6608e-06
9.58623e-05
-3.65649e-06
9.95141e-05
-3.65184e-06
0.000103161
-3.64685e-06
0.000106802
-3.64149e-06
0.000110438
-3.63574e-06
0.000114068
-3.62958e-06
0.000117691
-3.623e-06
0.000121307
-3.61597e-06
0.000124915
-3.60847e-06
0.000128516
-3.60048e-06
0.000132108
-3.59198e-06
0.000135691
-3.58295e-06
0.000139264
-3.57336e-06
0.000142827
-3.5632e-06
0.00014638
-3.55244e-06
0.000149921
-3.54106e-06
0.00015345
-3.52903e-06
0.000156966
-3.51633e-06
0.000160469
-3.50295e-06
0.000163958
-3.48885e-06
0.000167432
-3.47401e-06
0.00017089
-3.45842e-06
0.000174332
-3.44205e-06
0.000177757
-3.42487e-06
0.000181164
-3.40687e-06
0.000184552
-3.38803e-06
0.00018792
-3.36832e-06
0.000191268
-3.34772e-06
0.000194594
-3.32622e-06
0.000197898
-3.30379e-06
0.000201179
-3.28042e-06
0.000204435
-3.25608e-06
0.000207665
-3.23076e-06
0.00021087
-3.20445e-06
0.000214047
-3.17713e-06
0.000217196
-3.14878e-06
0.000220315
-3.11939e-06
0.000223404
-3.08895e-06
0.000226462
-3.05744e-06
0.000229486
-3.02487e-06
0.000232478
-2.99121e-06
0.000235434
-2.95646e-06
0.000238355
-2.92062e-06
0.000241238
-2.88368e-06
0.000244084
-2.84563e-06
0.00024689
-2.80648e-06
0.000249657
-2.76623e-06
0.000252382
-2.72487e-06
0.000255064
-2.68242e-06
0.000257703
-2.63887e-06
0.000260297
-2.59423e-06
0.000262846
-2.54851e-06
0.000265347
-2.50172e-06
0.000267801
-2.45387e-06
0.000270206
-2.40497e-06
0.000272561
-2.35504e-06
0.000274865
-2.3041e-06
0.000277117
-2.25216e-06
0.000279317
-2.19924e-06
0.000281462
-2.14537e-06
0.000283553
-2.09056e-06
0.000285587
-2.03485e-06
0.000287566
-1.97825e-06
0.000289487
-1.9208e-06
0.000291349
-1.86253e-06
0.000293153
-1.80346e-06
0.000294896
-1.74363e-06
0.000296579
-1.68308e-06
0.000298201
-1.62183e-06
0.000299761
-1.55993e-06
0.000301258
-1.4974e-06
0.000302693
-1.43429e-06
0.000304063
-1.37065e-06
0.00030537
-1.30649e-06
0.000306612
-1.24188e-06
0.000307789
-1.17684e-06
0.0003089
-1.11143e-06
0.000309946
-1.04567e-06
0.000310925
-9.79626e-07
0.000311839
-9.13327e-07
0.000312685
-8.46819e-07
0.000313466
-7.80147e-07
0.000314179
-7.13354e-07
0.000314825
-6.46483e-07
0.000315405
-5.79578e-07
0.000315918
-5.12682e-07
0.000316364
-4.45837e-07
0.000316743
-3.79087e-07
0.000317055
-3.12473e-07
0.000317301
-2.46036e-07
0.000317481
-1.79817e-07
0.000317595
-1.13856e-07
0.000317643
-4.81916e-08
0.000317626
1.71368e-08
0.000317544
8.20935e-08
0.000317397
1.46641e-07
0.000317186
2.10744e-07
0.000316912
2.74368e-07
0.000316575
3.37481e-07
0.000316174
4.00049e-07
0.000315712
4.62043e-07
0.000315189
5.23433e-07
0.000314605
5.8419e-07
0.000313961
6.44287e-07
0.000313257
7.037e-07
0.000312494
7.62404e-07
0.000311674
8.20376e-07
0.000310796
8.77595e-07
0.000309862
9.34042e-07
0.000308873
9.89696e-07
0.000307828
1.04454e-06
0.00030673
1.09856e-06
0.000305578
1.15174e-06
0.000304374
1.20407e-06
0.000303118
1.25553e-06
0.000301812
1.30612e-06
0.000300456
1.35582e-06
0.000299052
1.40463e-06
0.000297599
1.45254e-06
0.0002961
1.49955e-06
0.000294554
1.54564e-06
0.000292963
1.59082e-06
0.000291328
1.63509e-06
0.00028965
1.67844e-06
0.000287929
1.72087e-06
0.000286166
1.76238e-06
0.000284363
1.80298e-06
0.000282521
1.84267e-06
0.000280639
1.88145e-06
0.00027872
1.91933e-06
0.000276764
1.95631e-06
0.000274771
1.99239e-06
0.000272744
2.02759e-06
0.000270682
2.06191e-06
0.000268586
2.09536e-06
0.000266458
2.12794e-06
0.000264299
2.15968e-06
0.000262108
2.19056e-06
0.000259888
2.22062e-06
0.000257638
2.24985e-06
0.000255359
2.27827e-06
0.000253054
2.30589e-06
0.000250721
2.33272e-06
0.000248362
2.35877e-06
0.000245978
2.38406e-06
0.000243569
2.40859e-06
0.000241137
2.43239e-06
0.000238682
2.45546e-06
0.000236204
2.47782e-06
0.000233704
2.49947e-06
0.000231184
2.52044e-06
0.000228643
2.54073e-06
0.000226083
2.56036e-06
0.000223503
2.57935e-06
0.000220906
2.5977e-06
0.00021829
2.61544e-06
0.000215658
2.63256e-06
0.000213009
2.6491e-06
0.000210343
2.66506e-06
0.000207663
2.68045e-06
0.000204968
2.69529e-06
0.000202258
2.70959e-06
0.000199535
2.72337e-06
0.000196798
2.73664e-06
0.000194049
2.7494e-06
0.000191287
2.76169e-06
0.000188514
2.7735e-06
0.000185729
2.78485e-06
0.000182933
2.79575e-06
0.000180127
2.80622e-06
0.00017731
2.81627e-06
0.000174485
2.8259e-06
0.000171649
2.83514e-06
0.000168805
2.84399e-06
0.000165953
2.85247e-06
0.000163092
2.86058e-06
0.000160224
2.86835e-06
0.000157348
2.87577e-06
0.000154465
2.88286e-06
0.000151576
2.88963e-06
0.00014868
2.8961e-06
0.000145777
2.90226e-06
0.000142869
2.90814e-06
0.000139956
2.91374e-06
0.000137036
2.91907e-06
0.000134112
2.92414e-06
0.000131183
2.92896e-06
0.00012825
2.93354e-06
0.000125312
2.93789e-06
0.00012237
2.94202e-06
0.000119424
2.94593e-06
0.000116474
2.94964e-06
0.000113521
2.95315e-06
0.000110565
2.95647e-06
0.000107605
2.9596e-06
0.000104643
2.96257e-06
0.000101677
2.96536e-06
9.87092e-05
2.968e-06
9.57387e-05
2.97049e-06
9.27659e-05
2.97282e-06
8.97909e-05
2.97502e-06
8.68138e-05
2.97708e-06
8.38348e-05
2.97902e-06
8.08539e-05
2.98084e-06
7.78714e-05
2.98254e-06
7.48873e-05
2.98413e-06
7.19016e-05
2.98561e-06
6.89146e-05
2.987e-06
6.59264e-05
2.98829e-06
6.29369e-05
2.98949e-06
5.99463e-05
2.99061e-06
5.69546e-05
2.99164e-06
5.3962e-05
2.9926e-06
5.09685e-05
2.99348e-06
4.79742e-05
2.9943e-06
4.49792e-05
2.99505e-06
4.19834e-05
2.99574e-06
3.89871e-05
2.99636e-06
3.59901e-05
2.99693e-06
3.29927e-05
2.99745e-06
2.99948e-05
2.99792e-06
2.69964e-05
2.99833e-06
2.39977e-05
2.9987e-06
2.09987e-05
2.99902e-06
1.79994e-05
2.99931e-06
1.49999e-05
2.99954e-06
1.20001e-05
2.99974e-06
9.00024e-06
2.9999e-06
6.00022e-06
3.00001e-06
3.00013e-06
3.00009e-06
3.00013e-06
3.70064e-06
-7.40118e-06
7.40118e-06
-7.401e-06
1.11015e-05
-7.40063e-06
1.48016e-05
-7.40006e-06
1.85013e-05
-7.39929e-06
2.22005e-05
-7.39832e-06
2.58992e-05
-7.39713e-06
2.95971e-05
-7.39573e-06
3.32942e-05
-7.39408e-06
3.69904e-05
-7.3922e-06
4.06855e-05
-7.39005e-06
4.43794e-05
-7.38763e-06
4.80719e-05
-7.38492e-06
5.17629e-05
-7.38191e-06
5.54523e-05
-7.37856e-06
5.91398e-05
-7.37487e-06
6.28253e-05
-7.37081e-06
6.65086e-05
-7.36636e-06
7.01895e-05
-7.36149e-06
7.38677e-05
-7.35617e-06
7.7543e-05
-7.35038e-06
8.12152e-05
-7.34409e-06
8.4884e-05
-7.33727e-06
8.85491e-05
-7.32989e-06
9.22102e-05
-7.32192e-06
9.5867e-05
-7.31331e-06
9.95192e-05
-7.30404e-06
0.000103166
-7.29407e-06
0.000106808
-7.28337e-06
0.000110444
-7.27189e-06
0.000114074
-7.2596e-06
0.000117698
-7.24645e-06
0.000121314
-7.23241e-06
0.000124923
-7.21743e-06
0.000128524
-7.20147e-06
0.000132117
-7.1845e-06
0.0001357
-7.16646e-06
0.000139274
-7.14731e-06
0.000142838
-7.127e-06
0.000146391
-7.1055e-06
0.000149933
-7.08276e-06
0.000153463
-7.05872e-06
0.00015698
-7.03336e-06
0.000160483
-7.00661e-06
0.000163973
-6.97843e-06
0.000167448
-6.94879e-06
0.000170907
-6.91762e-06
0.00017435
-6.8849e-06
0.000177775
-6.85057e-06
0.000181183
-6.8146e-06
0.000184572
-6.77693e-06
0.000187941
-6.73753e-06
0.00019129
-6.69635e-06
0.000194617
-6.65337e-06
0.000197922
-6.60853e-06
0.000201203
-6.5618e-06
0.00020446
-6.51314e-06
0.000207692
-6.46252e-06
0.000210897
-6.40992e-06
0.000214076
-6.35528e-06
0.000217225
-6.2986e-06
0.000220346
-6.23983e-06
0.000223436
-6.17896e-06
0.000226494
-6.11596e-06
0.00022952
-6.05082e-06
0.000232513
-5.98351e-06
0.00023547
-5.91402e-06
0.000238392
-5.84234e-06
0.000241277
-5.76845e-06
0.000244123
-5.69237e-06
0.000246931
-5.61407e-06
0.000249698
-5.53356e-06
0.000252424
-5.45085e-06
0.000255108
-5.36594e-06
0.000257748
-5.27883e-06
0.000260343
-5.18954e-06
0.000262893
-5.09809e-06
0.000265395
-5.0045e-06
0.00026785
-4.90879e-06
0.000270256
-4.81098e-06
0.000272612
-4.7111e-06
0.000274917
-4.6092e-06
0.000277171
-4.5053e-06
0.000279371
-4.39944e-06
0.000281517
-4.29167e-06
0.000283609
-4.18203e-06
0.000285644
-4.07058e-06
0.000287623
-3.95736e-06
0.000289545
-3.84243e-06
0.000291408
-3.72585e-06
0.000293213
-3.60769e-06
0.000294957
-3.488e-06
0.000296641
-3.36685e-06
0.000298263
-3.24432e-06
0.000299824
-3.12047e-06
0.000301322
-2.99539e-06
0.000302757
-2.86914e-06
0.000304128
-2.7418e-06
0.000305435
-2.61345e-06
0.000306677
-2.48418e-06
0.000307854
-2.35407e-06
0.000308966
-2.22319e-06
0.000310012
-2.09164e-06
0.000310992
-1.95951e-06
0.000311905
-1.82686e-06
0.000312752
-1.69381e-06
0.000313533
-1.56042e-06
0.000314246
-1.42679e-06
0.000314893
-1.293e-06
0.000315472
-1.15915e-06
0.000315985
-1.02531e-06
0.000316431
-8.91583e-07
0.000316809
-7.5804e-07
0.000317122
-6.2477e-07
0.000317368
-4.91856e-07
0.000317547
-3.59378e-07
0.000317661
-2.27416e-07
0.000317709
-9.60501e-08
0.000317691
3.46449e-08
0.000317609
1.64594e-07
0.000317461
2.93724e-07
0.00031725
4.21964e-07
0.000316975
5.49246e-07
0.000316637
6.75503e-07
0.000316237
8.00671e-07
0.000315774
9.24688e-07
0.00031525
1.0475e-06
0.000314665
1.16904e-06
0.00031402
1.28926e-06
0.000313316
1.40811e-06
0.000312553
1.52554e-06
0.000311732
1.6415e-06
0.000310853
1.75596e-06
0.000309918
1.86887e-06
0.000308928
1.9802e-06
0.000307882
2.08991e-06
0.000306783
2.19796e-06
0.000305631
2.30434e-06
0.000304426
2.40901e-06
0.000303169
2.51194e-06
0.000301862
2.61313e-06
0.000300505
2.71254e-06
0.0002991
2.81017e-06
0.000297646
2.90599e-06
0.000296146
3.00001e-06
0.000294599
3.0922e-06
0.000293008
3.18256e-06
0.000291372
3.27109e-06
0.000289692
3.35779e-06
0.000287971
3.44265e-06
0.000286207
3.52568e-06
0.000284403
3.60688e-06
0.00028256
3.68626e-06
0.000280677
3.76381e-06
0.000278757
3.83956e-06
0.0002768
3.91351e-06
0.000274807
3.98567e-06
0.000272778
4.05606e-06
0.000270715
4.12469e-06
0.000268619
4.19158e-06
0.00026649
4.25674e-06
0.00026433
4.3202e-06
0.000262139
4.38196e-06
0.000259917
4.44206e-06
0.000257666
4.50051e-06
0.000255387
4.55734e-06
0.000253081
4.61257e-06
0.000250747
4.66621e-06
0.000248388
4.71831e-06
0.000246003
4.76887e-06
0.000243593
4.81793e-06
0.00024116
4.86551e-06
0.000238704
4.91164e-06
0.000236226
4.95634e-06
0.000233725
4.99963e-06
0.000231204
5.04155e-06
0.000228663
5.08212e-06
0.000226102
5.12138e-06
0.000223522
5.15933e-06
0.000220924
5.19602e-06
0.000218308
5.23148e-06
0.000215674
5.26572e-06
0.000213025
5.29878e-06
0.000210359
5.33068e-06
0.000207678
5.36145e-06
0.000204982
5.39112e-06
0.000202272
5.41971e-06
0.000199548
5.44725e-06
0.000196811
5.47377e-06
0.000194061
5.4993e-06
0.000191299
5.52385e-06
0.000188525
5.54746e-06
0.00018574
5.57015e-06
0.000182944
5.59194e-06
0.000180137
5.61287e-06
0.00017732
5.63295e-06
0.000174494
5.65221e-06
0.000171659
5.67067e-06
0.000168814
5.68837e-06
0.000165961
5.70531e-06
0.0001631
5.72152e-06
0.000160232
5.73704e-06
0.000157356
5.75187e-06
0.000154472
5.76604e-06
0.000151582
5.77958e-06
0.000148686
5.79249e-06
0.000145784
5.80482e-06
0.000142875
5.81656e-06
0.000139961
5.82775e-06
0.000137042
5.8384e-06
0.000134117
5.84854e-06
0.000131188
5.85817e-06
0.000128254
5.86732e-06
0.000125316
5.87601e-06
0.000122374
5.88426e-06
0.000119428
5.89207e-06
0.000116478
5.89948e-06
0.000113525
5.90649e-06
0.000110568
5.91312e-06
0.000107608
5.91939e-06
0.000104645
5.92531e-06
0.00010168
5.93089e-06
9.87118e-05
5.93616e-06
9.57412e-05
5.94112e-06
9.27682e-05
5.94579e-06
8.97931e-05
5.95018e-06
8.68158e-05
5.9543e-06
8.38367e-05
5.95817e-06
8.08557e-05
5.96179e-06
7.78731e-05
5.96519e-06
7.48888e-05
5.96836e-06
7.19031e-05
5.97133e-06
6.8916e-05
5.9741e-06
6.59276e-05
5.97668e-06
6.29381e-05
5.97907e-06
5.99474e-05
5.9813e-06
5.69556e-05
5.98337e-06
5.3963e-05
5.98528e-06
5.09694e-05
5.98704e-06
4.7975e-05
5.98867e-06
4.49799e-05
5.99017e-06
4.19841e-05
5.99154e-06
3.89877e-05
5.99279e-06
3.59907e-05
5.99393e-06
3.29932e-05
5.99496e-06
2.99952e-05
5.99588e-06
2.69968e-05
5.99672e-06
2.39981e-05
5.99745e-06
2.0999e-05
5.9981e-06
1.79997e-05
5.99866e-06
1.50001e-05
5.99913e-06
1.20003e-05
5.99952e-06
9.00036e-06
5.99984e-06
6.00031e-06
6.00007e-06
3.00017e-06
6.00022e-06
6.0003e-06
3.70084e-06
-1.1102e-05
7.40158e-06
-1.11017e-05
1.11021e-05
-1.11012e-05
1.48024e-05
-1.11003e-05
1.85023e-05
-1.10992e-05
2.22018e-05
-1.10978e-05
2.59006e-05
-1.1096e-05
2.95988e-05
-1.10939e-05
3.32962e-05
-1.10914e-05
3.69926e-05
-1.10886e-05
4.0688e-05
-1.10854e-05
4.43821e-05
-1.10818e-05
4.8075e-05
-1.10778e-05
5.17664e-05
-1.10733e-05
5.54561e-05
-1.10683e-05
5.9144e-05
-1.10628e-05
6.28299e-05
-1.10567e-05
6.65136e-05
-1.10501e-05
7.01949e-05
-1.10428e-05
7.38736e-05
-1.10349e-05
7.75494e-05
-1.10262e-05
8.12222e-05
-1.10168e-05
8.48915e-05
-1.10066e-05
8.85572e-05
-1.09956e-05
9.22189e-05
-1.09837e-05
9.58764e-05
-1.09708e-05
9.95293e-05
-1.09569e-05
0.000103177
-1.0942e-05
0.00010682
-1.0926e-05
0.000110457
-1.09089e-05
0.000114088
-1.08905e-05
0.000117712
-1.08708e-05
0.00012133
-1.08498e-05
0.000124939
-1.08274e-05
0.000128542
-1.08035e-05
0.000132135
-1.07781e-05
0.00013572
-1.07511e-05
0.000139295
-1.07224e-05
0.00014286
-1.0692e-05
0.000146414
-1.06598e-05
0.000149957
-1.06258e-05
0.000153488
-1.05898e-05
0.000157007
-1.05518e-05
0.000160512
-1.05117e-05
0.000164003
-1.04695e-05
0.000167479
-1.04251e-05
0.00017094
-1.03784e-05
0.000174384
-1.03294e-05
0.000177812
-1.02779e-05
0.000181221
-1.0224e-05
0.000184612
-1.01676e-05
0.000187983
-1.01085e-05
0.000191333
-1.00468e-05
0.000194662
-9.98237e-06
0.000197969
-9.91516e-06
0.000201252
-9.84511e-06
0.000204511
-9.77217e-06
0.000207745
-9.69628e-06
0.000210952
-9.61741e-06
0.000214133
-9.53549e-06
0.000217284
-9.4505e-06
0.000220407
-9.36238e-06
0.000223499
-9.2711e-06
0.00022656
-9.17663e-06
0.000229588
-9.07893e-06
0.000232582
-8.97799e-06
0.000235542
-8.87377e-06
0.000238466
-8.76626e-06
0.000241353
-8.65544e-06
0.000244202
-8.54132e-06
0.000247012
-8.42387e-06
0.000249781
-8.30311e-06
0.00025251
-8.17903e-06
0.000255195
-8.05165e-06
0.000257837
-7.92097e-06
0.000260435
-7.78702e-06
0.000262987
-7.64982e-06
0.000265492
-7.50941e-06
0.000267949
-7.3658e-06
0.000270357
-7.21905e-06
0.000272715
-7.0692e-06
0.000275022
-6.9163e-06
0.000277277
-6.76039e-06
0.000279479
-6.60155e-06
0.000281627
-6.43984e-06
0.00028372
-6.27532e-06
0.000285758
-6.10808e-06
0.000287739
-5.93818e-06
0.000289662
-5.76571e-06
0.000291527
-5.59077e-06
0.000293333
-5.41344e-06
0.000295079
-5.23382e-06
0.000296764
-5.05202e-06
0.000298388
-4.86813e-06
0.000299949
-4.68227e-06
0.000301449
-4.49454e-06
0.000302884
-4.30507e-06
0.000304257
-4.11396e-06
0.000305564
-3.92134e-06
0.000306808
-3.72733e-06
0.000307986
-3.53206e-06
0.000309098
-3.33564e-06
0.000310145
-3.13821e-06
0.000311125
-2.93989e-06
0.000312039
-2.74082e-06
0.000312886
-2.54112e-06
0.000313667
-2.34093e-06
0.00031438
-2.14038e-06
0.000315027
-1.93959e-06
0.000315607
-1.7387e-06
0.000316119
-1.53784e-06
0.000316565
-1.33714e-06
0.000316943
-1.13672e-06
0.000317255
-9.36715e-07
0.000317501
-7.37241e-07
0.00031768
-5.38424e-07
0.000317793
-3.40384e-07
0.00031784
-1.43239e-07
0.000317822
5.28978e-08
0.000317738
2.47912e-07
0.00031759
4.41695e-07
0.000317378
6.34141e-07
0.000317102
8.25146e-07
0.000316763
1.01461e-06
0.000316361
1.20244e-06
0.000315897
1.38854e-06
0.000315372
1.57282e-06
0.000314786
1.7552e-06
0.00031414
1.9356e-06
0.000313434
2.11393e-06
0.000312669
2.29013e-06
0.000311847
2.46414e-06
0.000310967
2.63588e-06
0.00031003
2.80529e-06
0.000309038
2.97232e-06
0.000307991
3.13692e-06
0.00030689
3.29904e-06
0.000305736
3.45864e-06
0.000304529
3.61567e-06
0.000303271
3.7701e-06
0.000301962
3.9219e-06
0.000300604
4.07105e-06
0.000299196
4.2175e-06
0.000297741
4.36126e-06
0.000296239
4.50229e-06
0.00029469
4.64058e-06
0.000293097
4.77613e-06
0.000291459
4.90893e-06
0.000289778
5.03898e-06
0.000288054
5.16627e-06
0.000286289
5.29081e-06
0.000284483
5.4126e-06
0.000282638
5.53166e-06
0.000280754
5.64798e-06
0.000278832
5.76159e-06
0.000276873
5.8725e-06
0.000274878
5.98073e-06
0.000272847
6.0863e-06
0.000270783
6.18922e-06
0.000268685
6.28953e-06
0.000266554
6.38725e-06
0.000264392
6.48241e-06
0.000262199
6.57503e-06
0.000259976
6.66515e-06
0.000257724
6.7528e-06
0.000255443
6.83802e-06
0.000253135
6.92083e-06
0.0002508
7.00127e-06
0.000248439
7.07938e-06
0.000246052
7.15519e-06
0.000243642
7.22875e-06
0.000241207
7.30009e-06
0.000238749
7.36925e-06
0.000236269
7.43626e-06
0.000233768
7.50117e-06
0.000231245
7.56402e-06
0.000228703
7.62484e-06
0.00022614
7.68368e-06
0.000223559
7.74059e-06
0.00022096
7.79559e-06
0.000218342
7.84874e-06
0.000215708
7.90006e-06
0.000213057
7.94962e-06
0.00021039
7.99744e-06
0.000207708
8.04356e-06
0.000205011
8.08803e-06
0.0002023
8.13088e-06
0.000199575
8.17217e-06
0.000196837
8.21191e-06
0.000194086
8.25017e-06
0.000191323
8.28696e-06
0.000188548
8.32234e-06
0.000185762
8.35635e-06
0.000182965
8.38901e-06
0.000180158
8.42037e-06
0.00017734
8.45046e-06
0.000174513
8.47932e-06
0.000171677
8.50698e-06
0.000168832
8.53349e-06
0.000165978
8.55888e-06
0.000163116
8.58317e-06
0.000160247
8.60642e-06
0.00015737
8.62864e-06
0.000154486
8.64987e-06
0.000151596
8.67015e-06
0.000148699
8.6895e-06
0.000145796
8.70795e-06
0.000142887
8.72555e-06
0.000139972
8.74231e-06
0.000137052
8.75826e-06
0.000134127
8.77344e-06
0.000131198
8.78786e-06
0.000128263
8.80157e-06
0.000125325
8.81458e-06
0.000122382
8.82693e-06
0.000119436
8.83863e-06
0.000116485
8.84972e-06
0.000113532
8.86022e-06
0.000110575
8.87015e-06
0.000107614
8.87953e-06
0.000104651
8.88839e-06
0.000101686
8.89675e-06
9.8717e-05
8.90463e-06
9.57461e-05
8.91206e-06
9.27728e-05
8.91904e-06
8.97974e-05
8.92561e-06
8.68199e-05
8.93178e-06
8.38405e-05
8.93757e-06
8.08593e-05
8.94299e-06
7.78765e-05
8.94807e-06
7.4892e-05
8.95282e-06
7.19061e-05
8.95726e-06
6.89188e-05
8.96139e-06
6.59302e-05
8.96525e-06
6.29405e-05
8.96883e-06
5.99496e-05
8.97216e-06
5.69577e-05
8.97525e-06
5.39649e-05
8.97811e-06
5.09712e-05
8.98075e-06
4.79767e-05
8.98318e-06
4.49814e-05
8.98541e-06
4.19855e-05
8.98746e-06
3.89889e-05
8.98933e-06
3.59918e-05
8.99103e-06
3.29942e-05
8.99257e-06
2.99961e-05
8.99396e-06
2.69977e-05
8.9952e-06
2.39988e-05
8.9963e-06
2.09996e-05
8.99727e-06
1.80002e-05
8.9981e-06
1.50005e-05
8.99881e-06
1.20006e-05
8.9994e-06
9.00061e-06
8.99986e-06
6.00047e-06
9.00021e-06
3.00026e-06
9.00044e-06
9.00056e-06
3.70113e-06
-1.48031e-05
7.40218e-06
-1.48028e-05
1.1103e-05
-1.48021e-05
1.48036e-05
-1.48009e-05
1.85039e-05
-1.47994e-05
2.22036e-05
-1.47975e-05
2.59028e-05
-1.47952e-05
2.96013e-05
-1.47924e-05
3.32991e-05
-1.47892e-05
3.69959e-05
-1.47855e-05
4.06917e-05
-1.47812e-05
4.43863e-05
-1.47764e-05
4.80796e-05
-1.47711e-05
5.17715e-05
-1.47651e-05
5.54618e-05
-1.47585e-05
5.91502e-05
-1.47512e-05
6.28367e-05
-1.47432e-05
6.65211e-05
-1.47344e-05
7.02031e-05
-1.47248e-05
7.38825e-05
-1.47143e-05
7.7559e-05
-1.47028e-05
8.12326e-05
-1.46903e-05
8.49028e-05
-1.46768e-05
8.85694e-05
-1.46622e-05
9.22321e-05
-1.46464e-05
9.58906e-05
-1.46293e-05
9.95445e-05
-1.46109e-05
0.000103194
-1.45911e-05
0.000106837
-1.45699e-05
0.000110476
-1.45471e-05
0.000114108
-1.45226e-05
0.000117733
-1.44965e-05
0.000121352
-1.44686e-05
0.000124964
-1.44388e-05
0.000128567
-1.44071e-05
0.000132162
-1.43733e-05
0.000135749
-1.43374e-05
0.000139326
-1.42993e-05
0.000142892
-1.42588e-05
0.000146449
-1.4216e-05
0.000149994
-1.41707e-05
0.000153527
-1.41228e-05
0.000157047
-1.40723e-05
0.000160554
-1.40189e-05
0.000164048
-1.39628e-05
0.000167526
-1.39037e-05
0.000170989
-1.38415e-05
0.000174436
-1.37762e-05
0.000177866
-1.37078e-05
0.000181278
-1.3636e-05
0.000184671
-1.35608e-05
0.000188045
-1.34822e-05
0.000191398
-1.34e-05
0.00019473
-1.33142e-05
0.000198039
-1.32246e-05
0.000201326
-1.31313e-05
0.000204588
-1.30341e-05
0.000207824
-1.2933e-05
0.000211035
-1.28279e-05
0.000214218
-1.27188e-05
0.000217373
-1.26055e-05
0.000220499
-1.24881e-05
0.000223594
-1.23664e-05
0.000226658
-1.22405e-05
0.000229689
-1.21103e-05
0.000232687
-1.19757e-05
0.00023565
-1.18368e-05
0.000238578
-1.16935e-05
0.000241468
-1.15458e-05
0.00024432
-1.13936e-05
0.000247133
-1.1237e-05
0.000249906
-1.1076e-05
0.000252638
-1.09105e-05
0.000255327
-1.07407e-05
0.000257972
-1.05664e-05
0.000260573
-1.03878e-05
0.000263128
-1.02048e-05
0.000265636
-1.00175e-05
0.000268096
-9.82597e-06
0.000270507
-9.63023e-06
0.000272868
-9.43035e-06
0.000275178
-9.2264e-06
0.000277436
-9.01843e-06
0.000279641
-8.80655e-06
0.000281792
-8.59082e-06
0.000283888
-8.37135e-06
0.000285929
-8.14823e-06
0.000287912
-7.92156e-06
0.000289838
-7.69147e-06
0.000291705
-7.45807e-06
0.000293513
-7.22148e-06
0.000295261
-6.98184e-06
0.000296948
-6.73927e-06
0.000298574
-6.49392e-06
0.000300138
-6.24593e-06
0.000301639
-5.99545e-06
0.000303076
-5.74263e-06
0.00030445
-5.48764e-06
0.000305759
-5.23062e-06
0.000307004
-4.97175e-06
0.000308183
-4.71119e-06
0.000309296
-4.4491e-06
0.000310344
-4.18566e-06
0.000311325
-3.92104e-06
0.000312239
-3.65541e-06
0.000313087
-3.38894e-06
0.000313868
-3.12182e-06
0.000314582
-2.85421e-06
0.000315229
-2.58629e-06
0.000315808
-2.31824e-06
0.000316321
-2.05022e-06
0.000316766
-1.78242e-06
0.000317144
-1.515e-06
0.000317456
-1.24813e-06
0.0003177
-9.81973e-07
0.000317879
-7.16696e-07
0.000317991
-4.5246e-07
0.000318037
-1.8942e-07
0.000318017
7.22698e-08
0.000317933
3.32458e-07
0.000317784
5.91001e-07
0.00031757
8.47756e-07
0.000317293
1.10258e-06
0.000316952
1.35535e-06
0.000316548
1.60594e-06
0.000316083
1.85421e-06
0.000315555
2.10005e-06
0.000314967
2.34334e-06
0.000314319
2.58399e-06
0.000313611
2.82188e-06
0.000312844
3.05693e-06
0.000312019
3.28903e-06
0.000311137
3.51811e-06
0.000310198
3.74408e-06
0.000309204
3.96688e-06
0.000308154
4.18642e-06
0.000307051
4.40265e-06
0.000305894
4.6155e-06
0.000304684
4.82494e-06
0.000303424
5.0309e-06
0.000302112
5.23334e-06
0.000300751
5.43223e-06
0.000299341
5.62754e-06
0.000297883
5.81924e-06
0.000296378
6.0073e-06
0.000294827
6.19171e-06
0.000293231
6.37246e-06
0.00029159
6.54953e-06
0.000289906
6.72292e-06
0.00028818
6.89264e-06
0.000286412
7.05869e-06
0.000284603
7.22106e-06
0.000282755
7.37979e-06
0.000280868
7.53487e-06
0.000278944
7.68632e-06
0.000276982
7.83418e-06
0.000274984
7.97845e-06
0.000272951
8.11917e-06
0.000270884
8.25637e-06
0.000268784
8.39007e-06
0.00026665
8.52032e-06
0.000264486
8.64716e-06
0.00026229
8.77061e-06
0.000260065
8.89072e-06
0.00025781
9.00754e-06
0.000255527
9.1211e-06
0.000253216
9.23146e-06
0.000250879
9.33866e-06
0.000248515
9.44275e-06
0.000246127
9.54378e-06
0.000243714
9.6418e-06
0.000241277
9.73685e-06
0.000238817
9.829e-06
0.000236335
9.91829e-06
0.000233832
1.00048e-05
0.000231307
1.00885e-05
0.000228762
1.01695e-05
0.000226198
1.02479e-05
0.000223615
1.03237e-05
0.000221014
1.0397e-05
0.000218394
1.04678e-05
0.000215758
1.05362e-05
0.000213106
1.06022e-05
0.000210437
1.06659e-05
0.000207754
1.07273e-05
0.000205055
1.07866e-05
0.000202342
1.08436e-05
0.000199616
1.08986e-05
0.000196876
1.09516e-05
0.000194124
1.10025e-05
0.000191359
1.10515e-05
0.000188583
1.10986e-05
0.000185796
1.11439e-05
0.000182997
1.11874e-05
0.000180188
1.12291e-05
0.00017737
1.12692e-05
0.000174541
1.13076e-05
0.000171704
1.13445e-05
0.000168858
1.13798e-05
0.000166003
1.14135e-05
0.00016314
1.14459e-05
0.00016027
1.14768e-05
0.000157392
1.15064e-05
0.000154507
1.15347e-05
0.000151616
1.15616e-05
0.000148718
1.15874e-05
0.000145814
1.1612e-05
0.000142904
1.16354e-05
0.000139989
1.16577e-05
0.000137068
1.16789e-05
0.000134142
1.16991e-05
0.000131212
1.17183e-05
0.000128277
1.17365e-05
0.000125338
1.17538e-05
0.000122394
1.17703e-05
0.000119447
1.17858e-05
0.000116496
1.18006e-05
0.000113542
1.18145e-05
0.000110584
1.18277e-05
0.000107624
1.18402e-05
0.00010466
1.1852e-05
0.000101694
1.18631e-05
9.87248e-05
1.18736e-05
9.57535e-05
1.18834e-05
9.27798e-05
1.18927e-05
8.98039e-05
1.19015e-05
8.68261e-05
1.19096e-05
8.38463e-05
1.19173e-05
8.08647e-05
1.19245e-05
7.78815e-05
1.19313e-05
7.48967e-05
1.19376e-05
7.19105e-05
1.19435e-05
6.89229e-05
1.1949e-05
6.5934e-05
1.19541e-05
6.2944e-05
1.19589e-05
5.99529e-05
1.19633e-05
5.69608e-05
1.19674e-05
5.39677e-05
1.19712e-05
5.09738e-05
1.19747e-05
4.79791e-05
1.19779e-05
4.49836e-05
1.19809e-05
4.19875e-05
1.19836e-05
3.89908e-05
1.19861e-05
3.59935e-05
1.19883e-05
3.29957e-05
1.19904e-05
2.99975e-05
1.19922e-05
2.69988e-05
1.19938e-05
2.39998e-05
1.19953e-05
2.10005e-05
1.19966e-05
1.8001e-05
1.19977e-05
1.50011e-05
1.19986e-05
1.20011e-05
1.19994e-05
9.00099e-06
1.2e-05
6.00072e-06
1.20005e-05
3.00038e-06
1.20008e-05
1.20009e-05
3.70153e-06
-1.85047e-05
7.40296e-06
-1.85042e-05
1.11042e-05
-1.85033e-05
1.48052e-05
-1.85019e-05
1.85059e-05
-1.85001e-05
2.22061e-05
-1.84977e-05
2.59057e-05
-1.84948e-05
2.96047e-05
-1.84914e-05
3.33029e-05
-1.84874e-05
3.70003e-05
-1.84828e-05
4.06966e-05
-1.84776e-05
4.43918e-05
-1.84717e-05
4.80858e-05
-1.8465e-05
5.17783e-05
-1.84577e-05
5.54693e-05
-1.84495e-05
5.91585e-05
-1.84405e-05
6.28458e-05
-1.84305e-05
6.65309e-05
-1.84196e-05
7.02138e-05
-1.84076e-05
7.38942e-05
-1.83946e-05
7.75718e-05
-1.83804e-05
8.12464e-05
-1.83649e-05
8.49177e-05
-1.83482e-05
8.85855e-05
-1.833e-05
9.22495e-05
-1.83103e-05
9.59093e-05
-1.82891e-05
9.95647e-05
-1.82663e-05
0.000103215
-1.82417e-05
0.000106861
-1.82153e-05
0.0001105
-1.81869e-05
0.000114134
-1.81565e-05
0.000117762
-1.8124e-05
0.000121382
-1.80893e-05
0.000124996
-1.80522e-05
0.000128601
-1.80127e-05
0.000132199
-1.79706e-05
0.000135787
-1.79259e-05
0.000139366
-1.78784e-05
0.000142936
-1.7828e-05
0.000146494
-1.77747e-05
0.000150042
-1.77182e-05
0.000153578
-1.76585e-05
0.000157101
-1.75955e-05
0.000160611
-1.7529e-05
0.000164107
-1.7459e-05
0.000167589
-1.73853e-05
0.000171055
-1.73078e-05
0.000174505
-1.72263e-05
0.000177938
-1.71409e-05
0.000181354
-1.70513e-05
0.00018475
-1.69575e-05
0.000188128
-1.68594e-05
0.000191484
-1.67568e-05
0.00019482
-1.66497e-05
0.000198133
-1.65379e-05
0.000201423
-1.64214e-05
0.000204689
-1.63001e-05
0.00020793
-1.61738e-05
0.000211145
-1.60426e-05
0.000214332
-1.59062e-05
0.000217491
-1.57647e-05
0.000220621
-1.5618e-05
0.000223721
-1.54661e-05
0.000226789
-1.53087e-05
0.000229825
-1.5146e-05
0.000232827
-1.49779e-05
0.000235794
-1.48043e-05
0.000238726
-1.46251e-05
0.000241621
-1.44405e-05
0.000244477
-1.42503e-05
0.000247295
-1.40546e-05
0.000250072
-1.38533e-05
0.000252808
-1.36464e-05
0.000255502
-1.34341e-05
0.000258151
-1.32162e-05
0.000260757
-1.29928e-05
0.000263316
-1.2764e-05
0.000265828
-1.25299e-05
0.000268293
-1.22903e-05
0.000270708
-1.20456e-05
0.000273073
-1.17956e-05
0.000275387
-1.15405e-05
0.000277649
-1.12804e-05
0.000279858
-1.10154e-05
0.000282013
-1.07456e-05
0.000284112
-1.0471e-05
0.000286156
-1.01919e-05
0.000288143
-9.90839e-06
0.000290072
-9.62055e-06
0.000291943
-9.32857e-06
0.000293754
-9.03259e-06
0.000295505
-8.73278e-06
0.000297195
-8.42931e-06
0.000298823
-8.12235e-06
0.000300389
-7.81208e-06
0.000301892
-7.4987e-06
0.000303332
-7.18239e-06
0.000304708
-6.86334e-06
0.000306019
-6.54177e-06
0.000307265
-6.21787e-06
0.000308446
-5.89185e-06
0.000309561
-5.56392e-06
0.000310609
-5.2343e-06
0.000311591
-4.90319e-06
0.000312507
-4.57083e-06
0.000313355
-4.23742e-06
0.000314137
-3.90319e-06
0.000314851
-3.56835e-06
0.000315498
-3.23313e-06
0.000316077
-2.89774e-06
0.000316589
-2.5624e-06
0.000317034
-2.22732e-06
0.000317412
-1.89273e-06
0.000317723
-1.55883e-06
0.000317967
-1.22583e-06
0.000318144
-8.93933e-07
0.000318255
-5.63343e-07
0.0003183
-2.34255e-07
0.000318279
9.31388e-08
0.000318192
4.18648e-07
0.000318041
7.42092e-07
0.000317826
1.06329e-06
0.000317546
1.38208e-06
0.000317203
1.69828e-06
0.000316798
2.01174e-06
0.00031633
2.3223e-06
0.0003158
2.62981e-06
0.000315209
2.93413e-06
0.000314558
3.23513e-06
0.000313847
3.53268e-06
0.000313077
3.82666e-06
0.000312249
4.11695e-06
0.000311364
4.40345e-06
0.000310422
4.68605e-06
0.000309424
4.96467e-06
0.000308371
5.23922e-06
0.000307265
5.50962e-06
0.000306104
5.77579e-06
0.000304891
6.03767e-06
0.000303627
6.2952e-06
0.000302312
6.54833e-06
0.000300947
6.797e-06
0.000299534
7.04119e-06
0.000298072
7.28085e-06
0.000296564
7.51596e-06
0.000295009
7.7465e-06
0.000293409
7.97245e-06
0.000291764
8.1938e-06
0.000290077
8.41055e-06
0.000288347
8.62269e-06
0.000286575
8.83023e-06
0.000284763
9.03318e-06
0.000282911
9.23156e-06
0.000281021
9.42538e-06
0.000279093
9.61466e-06
0.000277127
9.79943e-06
0.000275126
9.97972e-06
0.00027309
1.01556e-05
0.000271019
1.0327e-05
0.000268915
1.04941e-05
0.000266778
1.06568e-05
0.00026461
1.08153e-05
0.000262411
1.09695e-05
0.000260183
1.11196e-05
0.000257925
1.12655e-05
0.000255638
1.14074e-05
0.000253324
1.15453e-05
0.000250984
1.16792e-05
0.000248617
1.18092e-05
0.000246226
1.19354e-05
0.00024381
1.20578e-05
0.00024137
1.21765e-05
0.000238908
1.22916e-05
0.000236423
1.24031e-05
0.000233916
1.25111e-05
0.000231389
1.26157e-05
0.000228842
1.27169e-05