/*--------------------------------*- C++ -*----------------------------------*\
| =========                 |                                                 |
| \\      /  F ield         | OpenFOAM: The Open Source CFD Toolbox           |
|  \\    /   O peration     | Version:  v2012                                 |
|   \\  /    A nd           | Website:  www.openfoam.com                      |
|    \\/     M anipulation  |                                                 |
\*---------------------------------------------------------------------------*/
FoamFile
{
    version     2.0;
    format      ascii;
    class       volVectorField;
    location    "6.5";
    object      U;
}
// * * * * * * * * * * * * * * * * * * * * * * * * * * * * * * * * * * * * * //

dimensions      [0 1 -1 0 0 0 0];


internalField   nonuniform List<vector> 
65536
(
(0.000753858 -0.000753874 0)
(0.00226158 -0.000753857 0)
(0.00376927 -0.000753816 0)
(0.00527685 -0.000753758 0)
(0.00678428 -0.000753679 0)
(0.00829155 -0.000753579 0)
(0.00979859 -0.000753458 0)
(0.0113054 -0.000753313 0)
(0.0128118 -0.000753145 0)
(0.0143179 -0.000752952 0)
(0.0158236 -0.000752732 0)
(0.0173289 -0.000752485 0)
(0.0188336 -0.000752207 0)
(0.0203377 -0.000751899 0)
(0.0218412 -0.000751556 0)
(0.0233439 -0.000751179 0)
(0.0248459 -0.000750763 0)
(0.026347 -0.000750307 0)
(0.0278471 -0.000749809 0)
(0.0293462 -0.000749266 0)
(0.0308442 -0.000748674 0)
(0.0323409 -0.000748031 0)
(0.0338363 -0.000747334 0)
(0.0353303 -0.000746579 0)
(0.0368227 -0.000745764 0)
(0.0383134 -0.000744885 0)
(0.0398022 -0.000743938 0)
(0.0412891 -0.00074292 0)
(0.042774 -0.000741827 0)
(0.0442565 -0.000740654 0)
(0.0457366 -0.000739399 0)
(0.0472141 -0.000738057 0)
(0.0486889 -0.000736623 0)
(0.0501607 -0.000735094 0)
(0.0516293 -0.000733466 0)
(0.0530946 -0.000731733 0)
(0.0545563 -0.000729892 0)
(0.0560143 -0.000727938 0)
(0.0574682 -0.000725867 0)
(0.0589178 -0.000723673 0)
(0.060363 -0.000721353 0)
(0.0618033 -0.000718901 0)
(0.0632387 -0.000716314 0)
(0.0646687 -0.000713586 0)
(0.0660931 -0.000710713 0)
(0.0675117 -0.000707689 0)
(0.068924 -0.000704512 0)
(0.0703298 -0.000701175 0)
(0.0717288 -0.000697675 0)
(0.0731207 -0.000694008 0)
(0.074505 -0.000690168 0)
(0.0758815 -0.000686151 0)
(0.0772497 -0.000681954 0)
(0.0786094 -0.000677572 0)
(0.0799602 -0.000673002 0)
(0.0813016 -0.00066824 0)
(0.0826333 -0.000663281 0)
(0.0839549 -0.000658123 0)
(0.0852659 -0.000652762 0)
(0.0865661 -0.000647195 0)
(0.0878549 -0.000641419 0)
(0.0891319 -0.000635431 0)
(0.0903968 -0.000629229 0)
(0.091649 -0.000622811 0)
(0.0928882 -0.000616174 0)
(0.0941139 -0.000609317 0)
(0.0953257 -0.000602238 0)
(0.096523 -0.000594936 0)
(0.0977056 -0.00058741 0)
(0.0988729 -0.00057966 0)
(0.100024 -0.000571685 0)
(0.10116 -0.000563485 0)
(0.102279 -0.00055506 0)
(0.10338 -0.000546411 0)
(0.104464 -0.00053754 0)
(0.105531 -0.000528447 0)
(0.106578 -0.000519133 0)
(0.107607 -0.000509602 0)
(0.108617 -0.000499855 0)
(0.109607 -0.000489894 0)
(0.110577 -0.000479724 0)
(0.111526 -0.000469347 0)
(0.112454 -0.000458767 0)
(0.113361 -0.000447988 0)
(0.114246 -0.000437014 0)
(0.115109 -0.00042585 0)
(0.11595 -0.000414502 0)
(0.116767 -0.000402974 0)
(0.117562 -0.000391272 0)
(0.118333 -0.000379402 0)
(0.11908 -0.000367371 0)
(0.119802 -0.000355185 0)
(0.1205 -0.000342851 0)
(0.121174 -0.000330375 0)
(0.121822 -0.000317766 0)
(0.122445 -0.000305031 0)
(0.123042 -0.000292177 0)
(0.123614 -0.000279213 0)
(0.124159 -0.000266146 0)
(0.124678 -0.000252985 0)
(0.125171 -0.000239738 0)
(0.125637 -0.000226414 0)
(0.126077 -0.000213021 0)
(0.126489 -0.000199569 0)
(0.126875 -0.000186065 0)
(0.127234 -0.000172518 0)
(0.127565 -0.000158938 0)
(0.127869 -0.000145333 0)
(0.128146 -0.000131713 0)
(0.128396 -0.000118085 0)
(0.128619 -0.00010446 0)
(0.128814 -9.08445e-05 0)
(0.128982 -7.72485e-05 0)
(0.129123 -6.36802e-05 0)
(0.129237 -5.0148e-05 0)
(0.129323 -3.66601e-05 0)
(0.129383 -2.32247e-05 0)
(0.129416 -9.8497e-06 0)
(0.129423 3.45707e-06 0)
(0.129402 1.66879e-05 0)
(0.129356 2.98355e-05 0)
(0.129283 4.28926e-05 0)
(0.129184 5.58523e-05 0)
(0.129059 6.87078e-05 0)
(0.128909 8.14525e-05 0)
(0.128733 9.40803e-05 0)
(0.128532 0.000106585 0)
(0.128307 0.000118961 0)
(0.128056 0.000131203 0)
(0.127782 0.000143305 0)
(0.127483 0.000155263 0)
(0.12716 0.000167072 0)
(0.126814 0.000178727 0)
(0.126445 0.000190225 0)
(0.126053 0.000201562 0)
(0.125639 0.000212734 0)
(0.125202 0.000223739 0)
(0.124744 0.000234572 0)
(0.124264 0.000245232 0)
(0.123763 0.000255715 0)
(0.123241 0.00026602 0)
(0.122698 0.000276145 0)
(0.122136 0.000286088 0)
(0.121554 0.000295848 0)
(0.120952 0.000305424 0)
(0.120332 0.000314814 0)
(0.119693 0.000324018 0)
(0.119035 0.000333036 0)
(0.11836 0.000341867 0)
(0.117668 0.000350511 0)
(0.116958 0.000358968 0)
(0.116232 0.00036724 0)
(0.115489 0.000375325 0)
(0.11473 0.000383226 0)
(0.113956 0.000390943 0)
(0.113166 0.000398476 0)
(0.112361 0.000405827 0)
(0.111542 0.000412998 0)
(0.110709 0.00041999 0)
(0.109862 0.000426805 0)
(0.109002 0.000433444 0)
(0.108128 0.000439909 0)
(0.107242 0.000446202 0)
(0.106343 0.000452325 0)
(0.105432 0.00045828 0)
(0.10451 0.000464071 0)
(0.103576 0.000469698 0)
(0.102631 0.000475164 0)
(0.101675 0.000480472 0)
(0.100709 0.000485625 0)
(0.0997323 0.000490624 0)
(0.098746 0.000495473 0)
(0.0977502 0.000500173 0)
(0.0967452 0.000504728 0)
(0.0957311 0.00050914 0)
(0.0947084 0.000513413 0)
(0.0936773 0.000517547 0)
(0.092638 0.000521548 0)
(0.0915909 0.000525416 0)
(0.0905362 0.000529156 0)
(0.0894741 0.000532769 0)
(0.0884049 0.000536259 0)
(0.0873289 0.000539629 0)
(0.0862462 0.00054288 0)
(0.0851572 0.000546017 0)
(0.084062 0.000549041 0)
(0.0829609 0.000551956 0)
(0.081854 0.000554763 0)
(0.0807417 0.000557467 0)
(0.079624 0.000560068 0)
(0.0785013 0.000562572 0)
(0.0773736 0.000564978 0)
(0.0762412 0.000567291 0)
(0.0751043 0.000569513 0)
(0.073963 0.000571647 0)
(0.0728176 0.000573694 0)
(0.0716681 0.000575658 0)
(0.0705148 0.000577541 0)
(0.0693578 0.000579344 0)
(0.0681973 0.000581072 0)
(0.0670334 0.000582726 0)
(0.0658663 0.000584308 0)
(0.0646961 0.00058582 0)
(0.0635229 0.000587265 0)
(0.0623469 0.000588646 0)
(0.0611682 0.000589963 0)
(0.059987 0.00059122 0)
(0.0588033 0.000592418 0)
(0.0576172 0.000593559 0)
(0.0564289 0.000594646 0)
(0.0552385 0.000595679 0)
(0.0540461 0.000596662 0)
(0.0528518 0.000597596 0)
(0.0516556 0.000598482 0)
(0.0504578 0.000599324 0)
(0.0492583 0.000600121 0)
(0.0480572 0.000600877 0)
(0.0468547 0.000601592 0)
(0.0456508 0.000602269 0)
(0.0444455 0.000602908 0)
(0.0432391 0.000603513 0)
(0.0420314 0.000604083 0)
(0.0408227 0.00060462 0)
(0.0396129 0.000605127 0)
(0.0384021 0.000605603 0)
(0.0371904 0.000606051 0)
(0.0359778 0.000606472 0)
(0.0347644 0.000606867 0)
(0.0335503 0.000607237 0)
(0.0323354 0.000607584 0)
(0.0311199 0.000607908 0)
(0.0299038 0.000608211 0)
(0.028687 0.000608494 0)
(0.0274697 0.000608757 0)
(0.0262519 0.000609002 0)
(0.0250337 0.00060923 0)
(0.023815 0.000609441 0)
(0.0225959 0.000609636 0)
(0.0213764 0.000609817 0)
(0.0201565 0.000609983 0)
(0.0189364 0.000610136 0)
(0.017716 0.000610276 0)
(0.0164952 0.000610404 0)
(0.0152743 0.00061052 0)
(0.0140531 0.000610626 0)
(0.0128318 0.000610721 0)
(0.0116102 0.000610805 0)
(0.0103885 0.000610881 0)
(0.00916664 0.000610947 0)
(0.00794467 0.000611004 0)
(0.00672259 0.000611053 0)
(0.00550042 0.000611093 0)
(0.00427818 0.000611125 0)
(0.00305588 0.000611149 0)
(0.00183355 0.000611165 0)
(0.000611192 0.000611172 0)
(0.000753877 -0.00226162 0)
(0.00226164 -0.00226157 0)
(0.00376937 -0.00226145 0)
(0.00527699 -0.00226127 0)
(0.00678447 -0.00226104 0)
(0.00829177 -0.00226074 0)
(0.00979886 -0.00226038 0)
(0.0113057 -0.00225995 0)
(0.0128122 -0.00225944 0)
(0.0143184 -0.00225886 0)
(0.0158241 -0.00225821 0)
(0.0173294 -0.00225746 0)
(0.0188342 -0.00225663 0)
(0.0203383 -0.00225571 0)
(0.0218419 -0.00225469 0)
(0.0233447 -0.00225356 0)
(0.0248468 -0.00225231 0)
(0.0263479 -0.00225095 0)
(0.0278482 -0.00224945 0)
(0.0293474 -0.00224783 0)
(0.0308454 -0.00224605 0)
(0.0323423 -0.00224413 0)
(0.0338378 -0.00224204 0)
(0.0353319 -0.00223978 0)
(0.0368244 -0.00223734 0)
(0.0383152 -0.00223471 0)
(0.0398042 -0.00223187 0)
(0.0412913 -0.00222882 0)
(0.0427763 -0.00222554 0)
(0.044259 -0.00222203 0)
(0.0457393 -0.00221827 0)
(0.047217 -0.00221424 0)
(0.0486919 -0.00220995 0)
(0.0501639 -0.00220537 0)
(0.0516327 -0.00220048 0)
(0.0530982 -0.00219529 0)
(0.0545602 -0.00218977 0)
(0.0560183 -0.00218392 0)
(0.0574725 -0.00217771 0)
(0.0589224 -0.00217113 0)
(0.0603678 -0.00216417 0)
(0.0618084 -0.00215682 0)
(0.063244 -0.00214907 0)
(0.0646743 -0.00214089 0)
(0.0660991 -0.00213227 0)
(0.0675179 -0.00212321 0)
(0.0689306 -0.00211368 0)
(0.0703367 -0.00210367 0)
(0.071736 -0.00209318 0)
(0.0731282 -0.00208218 0)
(0.0745129 -0.00207066 0)
(0.0758897 -0.00205862 0)
(0.0772584 -0.00204603 0)
(0.0786184 -0.00203289 0)
(0.0799696 -0.00201918 0)
(0.0813114 -0.0020049 0)
(0.0826435 -0.00199003 0)
(0.0839655 -0.00197455 0)
(0.0852769 -0.00195847 0)
(0.0865775 -0.00194178 0)
(0.0878667 -0.00192445 0)
(0.0891442 -0.00190649 0)
(0.0904095 -0.00188789 0)
(0.0916622 -0.00186863 0)
(0.0929018 -0.00184872 0)
(0.0941279 -0.00182815 0)
(0.0953401 -0.00180692 0)
(0.0965379 -0.00178501 0)
(0.0977209 -0.00176244 0)
(0.0988887 -0.00173918 0)
(0.100041 -0.00171526 0)
(0.101176 -0.00169066 0)
(0.102296 -0.00166538 0)
(0.103398 -0.00163944 0)
(0.104482 -0.00161282 0)
(0.105549 -0.00158554 0)
(0.106597 -0.0015576 0)
(0.107627 -0.001529 0)
(0.108637 -0.00149975 0)
(0.109627 -0.00146987 0)
(0.110597 -0.00143936 0)
(0.111547 -0.00140822 0)
(0.112476 -0.00137648 0)
(0.113383 -0.00134413 0)
(0.114269 -0.00131121 0)
(0.115132 -0.00127771 0)
(0.115973 -0.00124366 0)
(0.116791 -0.00120907 0)
(0.117586 -0.00117396 0)
(0.118357 -0.00113834 0)
(0.119104 -0.00110224 0)
(0.119827 -0.00106568 0)
(0.120525 -0.00102867 0)
(0.121199 -0.000991231 0)
(0.121847 -0.000953396 0)
(0.122471 -0.000915182 0)
(0.123068 -0.000876612 0)
(0.12364 -0.000837711 0)
(0.124185 -0.000798502 0)
(0.124705 -0.000759011 0)
(0.125198 -0.000719262 0)
(0.125664 -0.00067928 0)
(0.126104 -0.000639093 0)
(0.126517 -0.000598725 0)
(0.126902 -0.000558204 0)
(0.127261 -0.000517555 0)
(0.127592 -0.000476806 0)
(0.127897 -0.000435983 0)
(0.128174 -0.000395112 0)
(0.128424 -0.000354221 0)
(0.128646 -0.000313335 0)
(0.128841 -0.00027248 0)
(0.129009 -0.000231684 0)
(0.12915 -0.00019097 0)
(0.129264 -0.000150365 0)
(0.12935 -0.000109893 0)
(0.12941 -6.95784e-05 0)
(0.129443 -2.94456e-05 0)
(0.129449 1.04823e-05 0)
(0.129429 5.01824e-05 0)
(0.129382 8.96324e-05 0)
(0.129309 0.000128811 0)
(0.12921 0.000167697 0)
(0.129085 0.00020627 0)
(0.128934 0.00024451 0)
(0.128759 0.0002824 0)
(0.128557 0.00031992 0)
(0.128331 0.000357053 0)
(0.128081 0.000393783 0)
(0.127806 0.000430095 0)
(0.127507 0.000465973 0)
(0.127184 0.000501404 0)
(0.126838 0.000536375 0)
(0.126468 0.000570873 0)
(0.126076 0.000604887 0)
(0.125661 0.000638407 0)
(0.125224 0.000671423 0)
(0.124765 0.000703925 0)
(0.124285 0.000735907 0)
(0.123783 0.000767359 0)
(0.123261 0.000798276 0)
(0.122718 0.000828653 0)
(0.122156 0.000858484 0)
(0.121573 0.000887764 0)
(0.120971 0.000916491 0)
(0.12035 0.000944662 0)
(0.119711 0.000972275 0)
(0.119053 0.000999328 0)
(0.118378 0.00102582 0)
(0.117685 0.00105175 0)
(0.116975 0.00107712 0)
(0.116248 0.00110194 0)
(0.115505 0.00112619 0)
(0.114746 0.00114989 0)
(0.113971 0.00117304 0)
(0.113181 0.00119564 0)
(0.112376 0.0012177 0)
(0.111557 0.00123921 0)
(0.110723 0.00126018 0)
(0.109876 0.00128062 0)
(0.109015 0.00130054 0)
(0.108141 0.00131993 0)
(0.107254 0.00133881 0)
(0.106355 0.00135717 0)
(0.105444 0.00137504 0)
(0.104521 0.0013924 0)
(0.103587 0.00140928 0)
(0.102642 0.00142568 0)
(0.101686 0.0014416 0)
(0.100719 0.00145706 0)
(0.0997423 0.00147205 0)
(0.0987557 0.00148659 0)
(0.0977596 0.00150069 0)
(0.0967542 0.00151435 0)
(0.0957399 0.00152759 0)
(0.0947169 0.0015404 0)
(0.0936855 0.0015528 0)
(0.092646 0.0015648 0)
(0.0915986 0.0015764 0)
(0.0905436 0.00158762 0)
(0.0894813 0.00159846 0)
(0.0884119 0.00160892 0)
(0.0873356 0.00161903 0)
(0.0862527 0.00162878 0)
(0.0851635 0.00163819 0)
(0.0840681 0.00164726 0)
(0.0829667 0.001656 0)
(0.0818596 0.00166442 0)
(0.0807471 0.00167252 0)
(0.0796292 0.00168033 0)
(0.0785063 0.00168783 0)
(0.0773784 0.00169505 0)
(0.0762458 0.00170199 0)
(0.0751087 0.00170865 0)
(0.0739673 0.00171505 0)
(0.0728217 0.00172119 0)
(0.0716721 0.00172708 0)
(0.0705186 0.00173272 0)
(0.0693615 0.00173813 0)
(0.0682008 0.00174331 0)
(0.0670368 0.00174827 0)
(0.0658695 0.00175301 0)
(0.0646991 0.00175755 0)
(0.0635258 0.00176188 0)
(0.0623497 0.00176602 0)
(0.0611709 0.00176997 0)
(0.0599895 0.00177374 0)
(0.0588057 0.00177733 0)
(0.0576195 0.00178075 0)
(0.0564311 0.00178401 0)
(0.0552406 0.00178711 0)
(0.0540481 0.00179005 0)
(0.0528537 0.00179285 0)
(0.0516574 0.00179551 0)
(0.0504595 0.00179803 0)
(0.0492599 0.00180042 0)
(0.0480587 0.00180269 0)
(0.0468561 0.00180483 0)
(0.0456521 0.00180686 0)
(0.0444468 0.00180878 0)
(0.0432403 0.00181059 0)
(0.0420326 0.0018123 0)
(0.0408238 0.00181391 0)
(0.0396139 0.00181543 0)
(0.0384031 0.00181685 0)
(0.0371913 0.0018182 0)
(0.0359787 0.00181946 0)
(0.0347653 0.00182064 0)
(0.0335511 0.00182175 0)
(0.0323362 0.00182279 0)
(0.0311206 0.00182376 0)
(0.0299044 0.00182467 0)
(0.0286876 0.00182552 0)
(0.0274703 0.00182631 0)
(0.0262524 0.00182704 0)
(0.0250341 0.00182772 0)
(0.0238154 0.00182835 0)
(0.0225963 0.00182894 0)
(0.0213767 0.00182948 0)
(0.0201569 0.00182998 0)
(0.0189367 0.00183044 0)
(0.0177162 0.00183085 0)
(0.0164955 0.00183124 0)
(0.0152745 0.00183159 0)
(0.0140533 0.0018319 0)
(0.0128319 0.00183219 0)
(0.0116104 0.00183244 0)
(0.0103886 0.00183267 0)
(0.00916677 0.00183286 0)
(0.00794478 0.00183304 0)
(0.00672268 0.00183318 0)
(0.00550049 0.0018333 0)
(0.00427824 0.0018334 0)
(0.00305592 0.00183347 0)
(0.00183358 0.00183352 0)
(0.0006112 0.00183354 0)
(0.00075392 -0.00376941 0)
(0.00226177 -0.00376932 0)
(0.00376957 -0.00376913 0)
(0.00527727 -0.00376884 0)
(0.00678484 -0.00376845 0)
(0.00829223 -0.00376796 0)
(0.00979941 -0.00376736 0)
(0.0113063 -0.00376664 0)
(0.0128129 -0.00376581 0)
(0.0143192 -0.00376485 0)
(0.0158251 -0.00376376 0)
(0.0173305 -0.00376253 0)
(0.0188354 -0.00376115 0)
(0.0203397 -0.00375961 0)
(0.0218434 -0.00375791 0)
(0.0233463 -0.00375604 0)
(0.0248485 -0.00375397 0)
(0.0263499 -0.00375171 0)
(0.0278503 -0.00374923 0)
(0.0293497 -0.00374652 0)
(0.030848 -0.00374358 0)
(0.032345 -0.00374038 0)
(0.0338408 -0.00373691 0)
(0.0353351 -0.00373316 0)
(0.0368278 -0.0037291 0)
(0.0383189 -0.00372472 0)
(0.0398082 -0.00372 0)
(0.0412956 -0.00371493 0)
(0.0427808 -0.00370949 0)
(0.0442639 -0.00370364 0)
(0.0457445 -0.00369739 0)
(0.0472226 -0.0036907 0)
(0.0486979 -0.00368355 0)
(0.0501703 -0.00367593 0)
(0.0516395 -0.00366781 0)
(0.0531055 -0.00365917 0)
(0.0545679 -0.00364998 0)
(0.0560265 -0.00364024 0)
(0.0574811 -0.0036299 0)
(0.0589315 -0.00361896 0)
(0.0603774 -0.00360738 0)
(0.0618186 -0.00359515 0)
(0.0632548 -0.00358223 0)
(0.0646856 -0.00356861 0)
(0.066111 -0.00355427 0)
(0.0675304 -0.00353918 0)
(0.0689437 -0.00352331 0)
(0.0703505 -0.00350665 0)
(0.0717505 -0.00348917 0)
(0.0731434 -0.00347086 0)
(0.0745287 -0.00345168 0)
(0.0759063 -0.00343162 0)
(0.0772757 -0.00341065 0)
(0.0786365 -0.00338876 0)
(0.0799884 -0.00336593 0)
(0.0813309 -0.00334214 0)
(0.0826638 -0.00331736 0)
(0.0839866 -0.00329159 0)
(0.0852989 -0.0032648 0)
(0.0866003 -0.00323698 0)
(0.0878904 -0.00320811 0)
(0.0891687 -0.00317818 0)
(0.0904349 -0.00314718 0)
(0.0916884 -0.0031151 0)
(0.0929289 -0.00308193 0)
(0.0941559 -0.00304765 0)
(0.095369 -0.00301226 0)
(0.0965678 -0.00297575 0)
(0.0977517 -0.00293812 0)
(0.0989203 -0.00289937 0)
(0.100073 -0.0028595 0)
(0.10121 -0.0028185 0)
(0.10233 -0.00277637 0)
(0.103433 -0.00273312 0)
(0.104519 -0.00268876 0)
(0.105586 -0.00264328 0)
(0.106635 -0.0025967 0)
(0.107665 -0.00254903 0)
(0.108676 -0.00250028 0)
(0.109668 -0.00245047 0)
(0.110639 -0.0023996 0)
(0.111589 -0.00234769 0)
(0.112519 -0.00229477 0)
(0.113427 -0.00224085 0)
(0.114313 -0.00218596 0)
(0.115177 -0.00213011 0)
(0.116019 -0.00207334 0)
(0.116837 -0.00201567 0)
(0.117633 -0.00195713 0)
(0.118405 -0.00189775 0)
(0.119153 -0.00183756 0)
(0.119876 -0.0017766 0)
(0.120575 -0.00171489 0)
(0.121249 -0.00165247 0)
(0.121898 -0.00158939 0)
(0.122522 -0.00152567 0)
(0.12312 -0.00146136 0)
(0.123692 -0.0013965 0)
(0.124238 -0.00133113 0)
(0.124758 -0.00126528 0)
(0.125251 -0.001199 0)
(0.125718 -0.00113234 0)
(0.126158 -0.00106533 0)
(0.126571 -0.000998019 0)
(0.126957 -0.000930454 0)
(0.127315 -0.000862677 0)
(0.127647 -0.000794731 0)
(0.127951 -0.000726663 0)
(0.128229 -0.000658516 0)
(0.128478 -0.000590334 0)
(0.128701 -0.000522161 0)
(0.128896 -0.000454041 0)
(0.129064 -0.000386018 0)
(0.129205 -0.000318134 0)
(0.129318 -0.00025043 0)
(0.129405 -0.00018295 0)
(0.129464 -0.000115732 0)
(0.129497 -4.88183e-05 0)
(0.129503 1.77536e-05 0)
(0.129482 8.39453e-05 0)
(0.129435 0.00014972 0)
(0.129361 0.00021504 0)
(0.129262 0.000279873 0)
(0.129136 0.000344183 0)
(0.128985 0.000407938 0)
(0.128809 0.000471107 0)
(0.128607 0.00053366 0)
(0.128381 0.000595567 0)
(0.12813 0.000656801 0)
(0.127854 0.000717337 0)
(0.127555 0.00077715 0)
(0.127231 0.000836216 0)
(0.126884 0.000894514 0)
(0.126514 0.000952024 0)
(0.126121 0.00100873 0)
(0.125706 0.0010646 0)
(0.125268 0.00111964 0)
(0.124809 0.00117382 0)
(0.124327 0.00122713 0)
(0.123825 0.00127956 0)
(0.123302 0.00133109 0)
(0.122759 0.00138173 0)
(0.122195 0.00143145 0)
(0.121612 0.00148025 0)
(0.121009 0.00152813 0)
(0.120388 0.00157509 0)
(0.119748 0.00162111 0)
(0.119089 0.0016662 0)
(0.118413 0.00171035 0)
(0.117719 0.00175357 0)
(0.117009 0.00179586 0)
(0.116281 0.00183721 0)
(0.115537 0.00187764 0)
(0.114777 0.00191713 0)
(0.114002 0.00195571 0)
(0.113211 0.00199337 0)
(0.112405 0.00203012 0)
(0.111585 0.00206597 0)
(0.110751 0.00210092 0)
(0.109903 0.00213498 0)
(0.109041 0.00216817 0)
(0.108167 0.00220048 0)
(0.10728 0.00223194 0)
(0.10638 0.00226254 0)
(0.105468 0.00229231 0)
(0.104544 0.00232125 0)
(0.10361 0.00234937 0)
(0.102664 0.00237669 0)
(0.101707 0.00240322 0)
(0.10074 0.00242896 0)
(0.0997622 0.00245395 0)
(0.098775 0.00247818 0)
(0.0977783 0.00250166 0)
(0.0967724 0.00252442 0)
(0.0957575 0.00254647 0)
(0.0947339 0.00256782 0)
(0.093702 0.00258848 0)
(0.0926619 0.00260846 0)
(0.091614 0.00262779 0)
(0.0905585 0.00264648 0)
(0.0894957 0.00266453 0)
(0.0884258 0.00268196 0)
(0.0873491 0.0026988 0)
(0.0862657 0.00271504 0)
(0.085176 0.00273071 0)
(0.0840801 0.00274582 0)
(0.0829783 0.00276037 0)
(0.0818709 0.0027744 0)
(0.0807579 0.0027879 0)
(0.0796396 0.0028009 0)
(0.0785163 0.0028134 0)
(0.077388 0.00282542 0)
(0.0762551 0.00283697 0)
(0.0751176 0.00284807 0)
(0.0739758 0.00285872 0)
(0.0728299 0.00286894 0)
(0.0716799 0.00287875 0)
(0.0705261 0.00288815 0)
(0.0693687 0.00289716 0)
(0.0682077 0.00290578 0)
(0.0670434 0.00291404 0)
(0.0658758 0.00292194 0)
(0.0647052 0.00292949 0)
(0.0635316 0.0029367 0)
(0.0623552 0.0029436 0)
(0.0611762 0.00295017 0)
(0.0599946 0.00295644 0)
(0.0588105 0.00296242 0)
(0.0576241 0.00296812 0)
(0.0564355 0.00297354 0)
(0.0552448 0.0029787 0)
(0.0540521 0.0029836 0)
(0.0528574 0.00298826 0)
(0.051661 0.00299269 0)
(0.0504629 0.00299688 0)
(0.0492631 0.00300086 0)
(0.0480618 0.00300463 0)
(0.046859 0.0030082 0)
(0.0456549 0.00301158 0)
(0.0444494 0.00301477 0)
(0.0432428 0.00301778 0)
(0.0420349 0.00302062 0)
(0.040826 0.0030233 0)
(0.039616 0.00302583 0)
(0.038405 0.0030282 0)
(0.0371931 0.00303044 0)
(0.0359804 0.00303253 0)
(0.0347669 0.0030345 0)
(0.0335526 0.00303635 0)
(0.0323376 0.00303807 0)
(0.0311219 0.00303969 0)
(0.0299056 0.0030412 0)
(0.0286888 0.00304261 0)
(0.0274714 0.00304392 0)
(0.0262534 0.00304514 0)
(0.0250351 0.00304627 0)
(0.0238163 0.00304732 0)
(0.0225971 0.0030483 0)
(0.0213775 0.00304919 0)
(0.0201576 0.00305002 0)
(0.0189373 0.00305078 0)
(0.0177168 0.00305148 0)
(0.016496 0.00305212 0)
(0.015275 0.0030527 0)
(0.0140538 0.00305322 0)
(0.0128323 0.00305369 0)
(0.0116107 0.00305411 0)
(0.010389 0.00305449 0)
(0.00916704 0.00305482 0)
(0.00794501 0.0030551 0)
(0.00672287 0.00305534 0)
(0.00550065 0.00305554 0)
(0.00427836 0.0030557 0)
(0.00305601 0.00305582 0)
(0.00183363 0.0030559 0)
(0.000611217 0.00305594 0)
(0.00075398 -0.00527732 0)
(0.00226195 -0.00527719 0)
(0.00376988 -0.00527693 0)
(0.0052777 -0.00527653 0)
(0.00678539 -0.00527599 0)
(0.00829292 -0.0052753 0)
(0.00980023 -0.00527446 0)
(0.0113073 -0.00527347 0)
(0.0128141 -0.00527231 0)
(0.0143205 -0.00527097 0)
(0.0158265 -0.00526946 0)
(0.0173321 -0.00526775 0)
(0.0188372 -0.00526583 0)
(0.0203417 -0.0052637 0)
(0.0218456 -0.00526133 0)
(0.0233488 -0.00525872 0)
(0.0248512 -0.00525585 0)
(0.0263528 -0.00525269 0)
(0.0278535 -0.00524924 0)
(0.0293531 -0.00524548 0)
(0.0308517 -0.00524137 0)
(0.0323491 -0.00523692 0)
(0.0338452 -0.00523208 0)
(0.0353398 -0.00522685 0)
(0.036833 -0.00522119 0)
(0.0383245 -0.00521509 0)
(0.0398142 -0.00520851 0)
(0.041302 -0.00520144 0)
(0.0427877 -0.00519384 0)
(0.0442712 -0.00518569 0)
(0.0457524 -0.00517696 0)
(0.047231 -0.00516762 0)
(0.0487069 -0.00515764 0)
(0.0501798 -0.005147 0)
(0.0516497 -0.00513566 0)
(0.0531163 -0.0051236 0)
(0.0545793 -0.00511077 0)
(0.0560387 -0.00509716 0)
(0.057494 -0.00508272 0)
(0.0589452 -0.00506743 0)
(0.0603918 -0.00505126 0)
(0.0618338 -0.00503416 0)
(0.0632708 -0.00501611 0)
(0.0647026 -0.00499708 0)
(0.0661288 -0.00497703 0)
(0.0675491 -0.00495593 0)
(0.0689634 -0.00493375 0)
(0.0703711 -0.00491046 0)
(0.0717721 -0.00488602 0)
(0.073166 -0.00486041 0)
(0.0745524 -0.00483359 0)
(0.0759311 -0.00480553 0)
(0.0773015 -0.00477621 0)
(0.0786635 -0.00474559 0)
(0.0800165 -0.00471366 0)
(0.0813603 -0.00468037 0)
(0.0826944 -0.00464571 0)
(0.0840184 -0.00460965 0)
(0.0853319 -0.00457216 0)
(0.0866345 -0.00453323 0)
(0.0879259 -0.00449284 0)
(0.0892055 -0.00445096 0)
(0.0904729 -0.00440758 0)
(0.0917278 -0.00436268 0)
(0.0929696 -0.00431624 0)
(0.094198 -0.00426826 0)
(0.0954124 -0.00421873 0)
(0.0966125 -0.00416762 0)
(0.0977977 -0.00411495 0)
(0.0989677 -0.0040607 0)
(0.100122 -0.00400488 0)
(0.10126 -0.00394747 0)
(0.102381 -0.00388849 0)
(0.103486 -0.00382793 0)
(0.104573 -0.00376581 0)
(0.105642 -0.00370214 0)
(0.106692 -0.00363692 0)
(0.107724 -0.00357016 0)
(0.108736 -0.00350189 0)
(0.109728 -0.00343213 0)
(0.110701 -0.00336089 0)
(0.111652 -0.00328819 0)
(0.112583 -0.00321407 0)
(0.113492 -0.00313856 0)
(0.11438 -0.00306167 0)
(0.115245 -0.00298346 0)
(0.116088 -0.00290394 0)
(0.116908 -0.00282316 0)
(0.117704 -0.00274117 0)
(0.118477 -0.00265799 0)
(0.119226 -0.00257368 0)
(0.11995 -0.00248828 0)
(0.12065 -0.00240184 0)
(0.121325 -0.0023144 0)
(0.121975 -0.00222603 0)
(0.122599 -0.00213678 0)
(0.123198 -0.00204669 0)
(0.123771 -0.00195582 0)
(0.124317 -0.00186424 0)
(0.124838 -0.00177199 0)
(0.125331 -0.00167915 0)
(0.125798 -0.00158575 0)
(0.126239 -0.00149188 0)
(0.126652 -0.00139759 0)
(0.127038 -0.00130293 0)
(0.127397 -0.00120798 0)
(0.127729 -0.0011128 0)
(0.128034 -0.00101744 0)
(0.128311 -0.000921973 0)
(0.128561 -0.000826457 0)
(0.128783 -0.000730954 0)
(0.128978 -0.000635526 0)
(0.129146 -0.000540233 0)
(0.129286 -0.000445136 0)
(0.1294 -0.000350293 0)
(0.129486 -0.000255763 0)
(0.129545 -0.000161603 0)
(0.129577 -6.78686e-05 0)
(0.129583 2.53854e-05 0)
(0.129561 0.000118106 0)
(0.129514 0.00021024 0)
(0.12944 0.000301738 0)
(0.12934 0.000392551 0)
(0.129214 0.000482631 0)
(0.129062 0.000571932 0)
(0.128885 0.00066041 0)
(0.128683 0.000748024 0)
(0.128455 0.000834732 0)
(0.128203 0.000920497 0)
(0.127927 0.00100528 0)
(0.127626 0.00108905 0)
(0.127302 0.00117178 0)
(0.126954 0.00125342 0)
(0.126583 0.00133396 0)
(0.126189 0.00141337 0)
(0.125773 0.00149162 0)
(0.125334 0.00156869 0)
(0.124873 0.00164456 0)
(0.124391 0.00171921 0)
(0.123888 0.00179263 0)
(0.123364 0.00186479 0)
(0.122819 0.00193569 0)
(0.122255 0.00200531 0)
(0.12167 0.00207364 0)
(0.121067 0.00214069 0)
(0.120444 0.00220642 0)
(0.119803 0.00227086 0)
(0.119143 0.00233399 0)
(0.118466 0.0023958 0)
(0.117771 0.00245631 0)
(0.117059 0.00251551 0)
(0.11633 0.0025734 0)
(0.115585 0.00262999 0)
(0.114824 0.00268528 0)
(0.114048 0.00273928 0)
(0.113256 0.00279199 0)
(0.112449 0.00284344 0)
(0.111628 0.00289361 0)
(0.110793 0.00294253 0)
(0.109944 0.00299021 0)
(0.109081 0.00303665 0)
(0.108205 0.00308188 0)
(0.107317 0.0031259 0)
(0.106416 0.00316873 0)
(0.105504 0.00321039 0)
(0.104579 0.00325089 0)
(0.103643 0.00329024 0)
(0.102696 0.00332847 0)
(0.101738 0.00336559 0)
(0.10077 0.00340163 0)
(0.099792 0.00343658 0)
(0.098804 0.00347048 0)
(0.0978064 0.00350335 0)
(0.0967996 0.0035352 0)
(0.0957838 0.00356604 0)
(0.0947595 0.00359591 0)
(0.0937267 0.00362481 0)
(0.0926858 0.00365277 0)
(0.0916372 0.00367981 0)
(0.0905809 0.00370595 0)
(0.0895173 0.00373121 0)
(0.0884467 0.0037556 0)
(0.0873692 0.00377914 0)
(0.0862852 0.00380186 0)
(0.0851947 0.00382378 0)
(0.0840982 0.00384491 0)
(0.0829958 0.00386527 0)
(0.0818877 0.00388489 0)
(0.0807741 0.00390377 0)
(0.0796552 0.00392195 0)
(0.0785313 0.00393943 0)
(0.0774025 0.00395624 0)
(0.076269 0.0039724 0)
(0.075131 0.00398792 0)
(0.0739886 0.00400282 0)
(0.0728422 0.00401711 0)
(0.0716917 0.00403082 0)
(0.0705374 0.00404397 0)
(0.0693795 0.00405656 0)
(0.0682181 0.00406862 0)
(0.0670533 0.00408016 0)
(0.0658853 0.0040912 0)
(0.0647143 0.00410176 0)
(0.0635403 0.00411185 0)
(0.0623636 0.00412148 0)
(0.0611841 0.00413067 0)
(0.0600021 0.00413944 0)
(0.0588177 0.00414779 0)
(0.057631 0.00415575 0)
(0.0564421 0.00416333 0)
(0.055251 0.00417054 0)
(0.054058 0.00417739 0)
(0.0528631 0.0041839 0)
(0.0516664 0.00419008 0)
(0.050468 0.00419595 0)
(0.0492679 0.00420151 0)
(0.0480664 0.00420677 0)
(0.0468634 0.00421176 0)
(0.045659 0.00421647 0)
(0.0444533 0.00422093 0)
(0.0432464 0.00422513 0)
(0.0420384 0.0042291 0)
(0.0408292 0.00423285 0)
(0.0396191 0.00423637 0)
(0.0384079 0.00423969 0)
(0.0371959 0.00424281 0)
(0.035983 0.00424573 0)
(0.0347693 0.00424848 0)
(0.0335548 0.00425106 0)
(0.0323397 0.00425347 0)
(0.0311239 0.00425572 0)
(0.0299075 0.00425783 0)
(0.0286905 0.00425979 0)
(0.027473 0.00426162 0)
(0.026255 0.00426332 0)
(0.0250365 0.0042649 0)
(0.0238176 0.00426637 0)
(0.0225983 0.00426772 0)
(0.0213786 0.00426898 0)
(0.0201586 0.00427013 0)
(0.0189383 0.00427119 0)
(0.0177177 0.00427216 0)
(0.0164968 0.00427305 0)
(0.0152757 0.00427386 0)
(0.0140544 0.00427459 0)
(0.0128329 0.00427524 0)
(0.0116112 0.00427583 0)
(0.0103894 0.00427635 0)
(0.00916744 0.00427681 0)
(0.00794535 0.00427721 0)
(0.00672316 0.00427755 0)
(0.00550088 0.00427782 0)
(0.00427853 0.00427804 0)
(0.00305613 0.00427821 0)
(0.0018337 0.00427832 0)
(0.000611243 0.00427837 0)
(0.00075406 -0.00678536 0)
(0.00226219 -0.0067852 0)
(0.00377028 -0.00678487 0)
(0.00527826 -0.00678436 0)
(0.00678612 -0.00678367 0)
(0.00829382 -0.00678279 0)
(0.00980131 -0.00678173 0)
(0.0113086 -0.00678046 0)
(0.0128155 -0.00677899 0)
(0.0143221 -0.00677729 0)
(0.0158284 -0.00677536 0)
(0.0173342 -0.00677318 0)
(0.0188395 -0.00677074 0)
(0.0203443 -0.00676802 0)
(0.0218485 -0.006765 0)
(0.023352 -0.00676167 0)
(0.0248547 -0.006758 0)
(0.0263566 -0.00675398 0)
(0.0278577 -0.00674958 0)
(0.0293577 -0.00674477 0)
(0.0308567 -0.00673953 0)
(0.0323545 -0.00673384 0)
(0.033851 -0.00672766 0)
(0.0353461 -0.00672097 0)
(0.0368398 -0.00671374 0)
(0.0383318 -0.00670593 0)
(0.0398221 -0.00669752 0)
(0.0413105 -0.00668847 0)
(0.0427968 -0.00667875 0)
(0.044281 -0.00666831 0)
(0.0457628 -0.00665714 0)
(0.0472422 -0.00664518 0)
(0.0487188 -0.00663241 0)
(0.0501925 -0.00661878 0)
(0.0516632 -0.00660425 0)
(0.0531307 -0.00658879 0)
(0.0545946 -0.00657236 0)
(0.0560548 -0.00655491 0)
(0.0575112 -0.0065364 0)
(0.0589633 -0.0065168 0)
(0.060411 -0.00649605 0)
(0.0618541 -0.00647413 0)
(0.0632922 -0.00645098 0)
(0.0647251 -0.00642657 0)
(0.0661525 -0.00640085 0)
(0.0675741 -0.00637378 0)
(0.0689895 -0.00634531 0)
(0.0703986 -0.00631542 0)
(0.0718009 -0.00628405 0)
(0.0731962 -0.00625117 0)
(0.074584 -0.00621674 0)
(0.0759641 -0.00618072 0)
(0.077336 -0.00614307 0)
(0.0786995 -0.00610375 0)
(0.080054 -0.00606273 0)
(0.0813993 -0.00601998 0)
(0.082735 -0.00597546 0)
(0.0840606 -0.00592913 0)
(0.0853758 -0.00588098 0)
(0.0866801 -0.00583096 0)
(0.0879732 -0.00577906 0)
(0.0892545 -0.00572524 0)
(0.0905237 -0.00566949 0)
(0.0917803 -0.00561179 0)
(0.0930239 -0.00555211 0)
(0.094254 -0.00549044 0)
(0.0954702 -0.00542676 0)
(0.0966721 -0.00536107 0)
(0.0978591 -0.00529336 0)
(0.0990309 -0.00522361 0)
(0.100187 -0.00515184 0)
(0.101327 -0.00507803 0)
(0.10245 -0.00500218 0)
(0.103556 -0.00492432 0)
(0.104645 -0.00484443 0)
(0.105716 -0.00476254 0)
(0.106768 -0.00467866 0)
(0.107801 -0.00459281 0)
(0.108815 -0.004505 0)
(0.109809 -0.00441527 0)
(0.110783 -0.00432363 0)
(0.111737 -0.00423012 0)
(0.112669 -0.00413478 0)
(0.11358 -0.00403763 0)
(0.114469 -0.00393873 0)
(0.115336 -0.0038381 0)
(0.11618 -0.0037358 0)
(0.117001 -0.00363188 0)
(0.117799 -0.00352638 0)
(0.118573 -0.00341936 0)
(0.119323 -0.00331088 0)
(0.120049 -0.003201 0)
(0.12075 -0.00308978 0)
(0.121426 -0.00297728 0)
(0.122077 -0.00286357 0)
(0.122702 -0.00274872 0)
(0.123302 -0.00263279 0)
(0.123875 -0.00251587 0)
(0.124423 -0.00239802 0)
(0.124944 -0.00227931 0)
(0.125438 -0.00215984 0)
(0.125906 -0.00203966 0)
(0.126347 -0.00191886 0)
(0.12676 -0.00179752 0)
(0.127147 -0.00167572 0)
(0.127506 -0.00155353 0)
(0.127838 -0.00143104 0)
(0.128143 -0.00130833 0)
(0.12842 -0.00118548 0)
(0.12867 -0.00106257 0)
(0.128893 -0.000939675 0)
(0.129088 -0.000816878 0)
(0.129255 -0.000694256 0)
(0.129395 -0.000571887 0)
(0.129508 -0.000449846 0)
(0.129594 -0.00032821 0)
(0.129653 -0.000207051 0)
(0.129684 -8.6441e-05 0)
(0.129689 3.35486e-05 0)
(0.129667 0.000152849 0)
(0.129619 0.000271394 0)
(0.129544 0.000389119 0)
(0.129443 0.000505959 0)
(0.129317 0.000621854 0)
(0.129164 0.000736744 0)
(0.128986 0.000850575 0)
(0.128783 0.000963289 0)