/*--------------------------------*- C++ -*----------------------------------*\
| =========                 |                                                 |
| \\      /  F ield         | OpenFOAM: The Open Source CFD Toolbox           |
|  \\    /   O peration     | Version:  v2012                                 |
|   \\  /    A nd           | Website:  www.openfoam.com                      |
|    \\/     M anipulation  |                                                 |
\*---------------------------------------------------------------------------*/
FoamFile
{
    version     2.0;
    format      ascii;
    class       volScalarField;
    location    "0";
    object      pRec;
}
// * * * * * * * * * * * * * * * * * * * * * * * * * * * * * * * * * * * * * //

dimensions      [0 2 -2 0 0 0 0];


internalField   nonuniform List<scalar> 
4000
(
-7.08987e-13
-7.03004e-13
-7.04398e-13
-7.07914e-13
-7.05497e-13
-7.05886e-13
-7.04621e-13
-6.99351e-13
-6.88346e-13
-6.84739e-13
-6.86513e-13
-6.807e-13
-6.68102e-13
-6.5277e-13
-6.38836e-13
-6.31818e-13
-6.2665e-13
-6.24074e-13
-6.16563e-13
-6.0149e-13
-5.8996e-13
-5.82791e-13
-5.77233e-13
-5.70464e-13
-5.59809e-13
-5.48827e-13
-5.47548e-13
-5.4146e-13
-5.34874e-13
-5.23924e-13
-5.06587e-13
-4.99858e-13
-4.98475e-13
-4.97304e-13
-4.92585e-13
-4.90464e-13
-4.81474e-13
-4.61614e-13
-4.43228e-13
-4.4011e-13
-4.41632e-13
-4.40404e-13
-4.41378e-13
-4.34803e-13
-4.22463e-13
-4.13441e-13
-4.04688e-13
-3.95141e-13
-3.8529e-13
-3.77154e-13
-3.67453e-13
-3.58912e-13
-3.51108e-13
-3.4157e-13
-3.32779e-13
-3.19498e-13
-3.12842e-13
-3.09793e-13
-3.07324e-13
-3.04458e-13
-2.96147e-13
-2.88637e-13
-2.78099e-13
-2.65521e-13
-2.57187e-13
-2.49759e-13
-2.45722e-13
-2.37826e-13
-2.26908e-13
-2.19117e-13
-2.11731e-13
-2.05537e-13
-1.9242e-13
-1.85451e-13
-1.84948e-13
-1.80799e-13
-1.77967e-13
-1.71885e-13
-1.63175e-13
-1.5007e-13
-1.36862e-13
-1.3144e-13
-1.22889e-13
-1.18894e-13
-1.15287e-13
-1.09581e-13
-9.97352e-14
-9.15889e-14
-8.78996e-14
-8.41672e-14
-7.78337e-14
-7.14021e-14
-6.37754e-14
-5.73307e-14
-4.8324e-14
-3.89609e-14
-3.02509e-14
-2.16488e-14
-1.24331e-14
-3.13255e-15
-7.05261e-13
-7.04113e-13
-7.07636e-13
-7.07554e-13
-7.08003e-13
-7.04383e-13
-7.01524e-13
-6.98931e-13
-6.93496e-13
-6.88601e-13
-6.82592e-13
-6.76626e-13
-6.66146e-13
-6.53881e-13
-6.42125e-13
-6.35226e-13
-6.30084e-13
-6.22571e-13
-6.12786e-13
-6.04959e-13
-5.94175e-13
-5.81667e-13
-5.73049e-13
-5.66874e-13
-5.57543e-13
-5.51347e-13
-5.48599e-13
-5.42306e-13
-5.3353e-13
-5.19756e-13
-5.1018e-13
-5.03545e-13
-4.97807e-13
-4.9393e-13
-4.89837e-13
-4.86484e-13
-4.79174e-13
-4.65885e-13
-4.50849e-13
-4.44614e-13
-4.41432e-13
-4.39393e-13
-4.37746e-13
-4.32595e-13
-4.24549e-13
-4.13753e-13
-4.03057e-13
-3.94971e-13
-3.85732e-13
-3.7446e-13
-3.66277e-13
-3.58001e-13
-3.50979e-13
-3.42653e-13
-3.33907e-13
-3.22471e-13
-3.1276e-13
-3.07919e-13
-3.05503e-13
-3.02898e-13
-2.985e-13
-2.88664e-13
-2.79495e-13
-2.67416e-13
-2.58801e-13
-2.49337e-13
-2.43133e-13
-2.36954e-13
-2.29058e-13
-2.20674e-13
-2.12244e-13
-2.05415e-13
-1.9781e-13
-1.88624e-13
-1.8463e-13
-1.77455e-13
-1.76502e-13
-1.6952e-13
-1.59968e-13
-1.47956e-13
-1.38078e-13
-1.33022e-13
-1.26912e-13
-1.21637e-13
-1.12934e-13
-1.07027e-13
-9.78493e-14
-8.94518e-14
-8.61036e-14
-8.26286e-14
-7.96571e-14
-7.40806e-14
-6.78167e-14
-5.5492e-14
-4.67154e-14
-3.9677e-14
-2.98678e-14
-2.18642e-14
-1.43527e-14
-5.04276e-15
-7.04927e-13
-7.03914e-13
-7.0623e-13
-7.09844e-13
-7.10873e-13
-7.05916e-13
-7.00641e-13
-6.97828e-13
-6.91854e-13
-6.88285e-13
-6.827e-13
-6.75823e-13
-6.65864e-13
-6.55147e-13
-6.44097e-13
-6.35692e-13
-6.29791e-13
-6.22172e-13
-6.13204e-13
-6.03887e-13
-5.92695e-13
-5.83412e-13
-5.74199e-13
-5.67715e-13
-5.59455e-13
-5.53859e-13
-5.49563e-13
-5.41498e-13
-5.31186e-13
-5.17574e-13
-5.10892e-13
-5.0394e-13
-4.98003e-13
-4.95365e-13
-4.91704e-13
-4.87903e-13
-4.77982e-13
-4.67735e-13
-4.56244e-13
-4.44857e-13
-4.40541e-13
-4.35832e-13
-4.36855e-13
-4.33278e-13
-4.25934e-13
-4.14247e-13
-4.01961e-13
-3.92056e-13
-3.86085e-13
-3.80739e-13
-3.68792e-13
-3.58166e-13
-3.48498e-13
-3.39427e-13
-3.32233e-13
-3.23677e-13
-3.12807e-13
-3.10206e-13
-3.1075e-13
-3.04081e-13
-2.96031e-13
-2.83382e-13
-2.74588e-13
-2.6886e-13
-2.61845e-13
-2.53329e-13
-2.4618e-13
-2.35596e-13
-2.27728e-13
-2.17601e-13
-2.09016e-13
-2.0243e-13
-1.93886e-13
-1.88217e-13
-1.84145e-13
-1.80148e-13
-1.75025e-13
-1.6961e-13
-1.59298e-13
-1.48573e-13
-1.43772e-13
-1.35376e-13
-1.22869e-13
-1.17623e-13
-1.12398e-13
-1.09396e-13
-1.03079e-13
-9.29082e-14
-8.60041e-14
-8.03778e-14
-7.70882e-14
-7.32916e-14
-6.58896e-14
-5.69619e-14
-4.58429e-14
-3.67207e-14
-3.03849e-14
-2.29953e-14
-1.8284e-14
-5.7599e-15
-7.0606e-13
-7.07442e-13
-7.08426e-13
-7.04407e-13
-7.09004e-13
-7.02649e-13
-7.0064e-13
-6.98094e-13
-6.96189e-13
-6.90841e-13
-6.80703e-13
-6.70757e-13
-6.62335e-13
-6.56227e-13
-6.53565e-13
-6.4269e-13
-6.27703e-13
-6.18381e-13
-6.12355e-13
-6.02676e-13
-5.93439e-13
-5.85651e-13
-5.75167e-13
-5.61295e-13
-5.54286e-13
-5.51319e-13
-5.48701e-13
-5.43353e-13
-5.30862e-13
-5.21978e-13
-5.15282e-13
-5.07608e-13
-4.98809e-13
-4.93078e-13
-4.87089e-13
-4.87227e-13
-4.77986e-13
-4.66149e-13
-4.57454e-13
-4.4789e-13
-4.4419e-13
-4.4158e-13
-4.36755e-13
-4.30214e-13
-4.20506e-13
-4.10036e-13
-4.01582e-13
-3.96431e-13
-3.87992e-13
-3.7372e-13
-3.6355e-13
-3.57122e-13
-3.5083e-13
-3.43814e-13
-3.31601e-13
-3.24586e-13
-3.15042e-13
-3.10169e-13
-3.09605e-13
-3.02993e-13
-2.94142e-13
-2.8455e-13
-2.7909e-13
-2.71443e-13
-2.61108e-13
-2.52514e-13
-2.44829e-13
-2.35603e-13
-2.28557e-13
-2.20141e-13
-2.13199e-13
-2.06051e-13
-1.97135e-13
-1.89707e-13
-1.83583e-13
-1.7861e-13
-1.75652e-13
-1.68655e-13
-1.59157e-13
-1.49403e-13
-1.42214e-13
-1.36369e-13
-1.25179e-13
-1.15512e-13
-1.11473e-13
-1.06774e-13
-1.00324e-13
-9.25716e-14
-8.51206e-14
-8.09358e-14
-7.92299e-14
-7.34409e-14
-6.78985e-14
-5.54571e-14
-4.61448e-14
-3.94252e-14
-3.20101e-14
-2.2e-14
-1.46593e-14
-5.25824e-15
-7.07443e-13
-7.12154e-13
-7.08503e-13
-7.03464e-13
-6.99499e-13
-7.03253e-13
-7.03598e-13
-7.02134e-13
-6.95452e-13
-6.87514e-13
-6.78423e-13
-6.72548e-13
-6.62283e-13
-6.53565e-13
-6.52226e-13
-6.46281e-13
-6.34871e-13
-6.23584e-13
-6.10039e-13
-5.96967e-13
-5.91842e-13
-5.84545e-13
-5.6961e-13
-5.59989e-13
-5.57682e-13
-5.54986e-13
-5.50583e-13
-5.4205e-13
-5.33232e-13
-5.24388e-13
-5.15921e-13
-5.09108e-13
-5.00087e-13
-4.93701e-13
-4.87966e-13
-4.86238e-13
-4.77058e-13
-4.66046e-13
-4.54515e-13
-4.46994e-13
-4.44161e-13
-4.4397e-13
-4.37076e-13
-4.2862e-13
-4.17831e-13
-4.08002e-13
-4.00092e-13
-3.94544e-13
-3.86625e-13
-3.77619e-13
-3.67407e-13
-3.60442e-13
-3.52051e-13
-3.42969e-13
-3.32523e-13
-3.23045e-13
-3.16403e-13
-3.11858e-13
-3.084e-13
-3.01253e-13
-2.93681e-13
-2.85055e-13
-2.76524e-13
-2.70323e-13
-2.65009e-13
-2.5838e-13
-2.50336e-13
-2.37184e-13
-2.28121e-13
-2.1769e-13
-2.09228e-13
-2.02934e-13
-1.9669e-13
-1.89968e-13
-1.80037e-13
-1.75349e-13
-1.73616e-13
-1.68418e-13
-1.61526e-13
-1.5143e-13
-1.4372e-13
-1.38678e-13
-1.25657e-13
-1.14856e-13
-1.07933e-13
-1.03168e-13
-9.96601e-14
-9.56303e-14
-8.76403e-14
-8.26023e-14
-7.80521e-14
-7.3097e-14
-6.55079e-14
-5.96542e-14
-5.1316e-14
-4.00182e-14
-3.2286e-14
-2.44785e-14
-1.42049e-14
-2.82082e-15
-7.03781e-13
-7.14004e-13
-7.10387e-13
-7.0047e-13
-7.04388e-13
-7.08679e-13
-7.06908e-13
-7.02528e-13
-6.93635e-13
-6.7934e-13
-6.75478e-13
-6.71155e-13
-6.66971e-13
-6.55996e-13
-6.4893e-13
-6.48399e-13
-6.37032e-13
-6.26282e-13
-6.14822e-13
-6.00353e-13
-5.89591e-13
-5.77718e-13
-5.59734e-13
-5.56471e-13
-5.58165e-13
-5.58445e-13
-5.50473e-13
-5.40552e-13
-5.32122e-13
-5.27896e-13
-5.17888e-13
-5.08253e-13
-4.99511e-13
-4.97099e-13
-4.94197e-13
-4.85047e-13
-4.74601e-13
-4.65605e-13
-4.54786e-13
-4.49695e-13
-4.47169e-13
-4.44543e-13
-4.35392e-13
-4.29207e-13
-4.18187e-13
-4.05689e-13
-3.95623e-13
-3.9046e-13
-3.86686e-13
-3.77446e-13
-3.70054e-13
-3.59752e-13
-3.50241e-13
-3.40639e-13
-3.30891e-13
-3.24914e-13
-3.19304e-13
-3.13351e-13
-3.06583e-13
-3.0228e-13
-2.95733e-13
-2.85928e-13
-2.77739e-13
-2.70408e-13
-2.60974e-13
-2.56479e-13
-2.51331e-13
-2.38417e-13
-2.29196e-13
-2.21024e-13
-2.10913e-13
-2.03321e-13
-1.98218e-13
-1.92155e-13
-1.82192e-13
-1.78022e-13
-1.72209e-13
-1.64996e-13
-1.60201e-13
-1.54089e-13
-1.46622e-13
-1.37745e-13
-1.23256e-13
-1.12337e-13
-1.08466e-13
-1.05855e-13
-1.02199e-13
-9.33508e-14
-8.67342e-14
-8.22618e-14
-7.75691e-14
-7.32732e-14
-6.36506e-14
-5.9085e-14
-5.17691e-14
-4.38646e-14
-3.23408e-14
-2.30797e-14
-1.20172e-14
-1.56798e-15
-7.09537e-13
-7.10641e-13
-7.0998e-13
-7.06225e-13
-7.03558e-13
-7.0724e-13
-7.06627e-13
-7.00036e-13
-6.9163e-13
-6.798e-13
-6.71199e-13
-6.70145e-13
-6.69246e-13
-6.57533e-13
-6.50322e-13
-6.45046e-13
-6.40824e-13
-6.31966e-13
-6.11876e-13
-5.92796e-13
-5.75999e-13
-5.72611e-13
-5.70768e-13
-5.68627e-13
-5.64273e-13
-5.58005e-13
-5.46698e-13
-5.37661e-13
-5.34215e-13
-5.29854e-13
-5.21133e-13
-5.07375e-13
-5.00844e-13
-4.92604e-13
-4.87889e-13
-4.82365e-13
-4.76515e-13
-4.71514e-13
-4.60584e-13
-4.48329e-13
-4.41577e-13
-4.37534e-13
-4.32953e-13
-4.29002e-13
-4.22312e-13
-4.11452e-13
-3.9943e-13
-3.89665e-13
-3.83274e-13
-3.76905e-13
-3.69246e-13
-3.63065e-13
-3.5374e-13
-3.41105e-13
-3.32416e-13
-3.2609e-13
-3.19226e-13
-3.07316e-13
-3.02374e-13
-3.01423e-13
-3.00166e-13
-2.91959e-13
-2.80349e-13
-2.67687e-13
-2.57856e-13
-2.5305e-13
-2.45536e-13
-2.33689e-13
-2.24287e-13
-2.20108e-13
-2.19955e-13
-2.10298e-13
-1.99704e-13
-1.95176e-13
-1.85206e-13
-1.75855e-13
-1.68113e-13
-1.61265e-13
-1.55736e-13
-1.51883e-13
-1.45619e-13
-1.36829e-13
-1.28748e-13
-1.1935e-13
-1.12815e-13
-1.01955e-13
-9.88703e-14
-9.55859e-14
-8.70661e-14
-8.41047e-14
-7.70614e-14
-6.84326e-14
-6.41082e-14
-5.87608e-14
-5.23681e-14
-4.11367e-14
-3.21136e-14
-2.16641e-14
-1.19382e-14
-3.92791e-15
-7.09198e-13
-7.09029e-13
-7.06667e-13
-7.07031e-13
-7.10095e-13
-7.09832e-13
-7.06725e-13
-6.99634e-13
-6.90136e-13
-6.81478e-13
-6.74916e-13
-6.68847e-13
-6.65318e-13
-6.55358e-13
-6.51166e-13
-6.44773e-13
-6.41002e-13
-6.31014e-13
-6.06442e-13
-5.93977e-13
-5.89775e-13
-5.82949e-13
-5.72364e-13
-5.62347e-13
-5.59385e-13
-5.53394e-13
-5.41717e-13
-5.35329e-13
-5.31083e-13
-5.27168e-13
-5.20717e-13
-5.13376e-13
-5.07251e-13
-5.00928e-13
-4.8895e-13
-4.81165e-13
-4.75185e-13
-4.66159e-13
-4.57786e-13
-4.48434e-13
-4.43137e-13
-4.41981e-13
-4.3468e-13
-4.33242e-13
-4.27083e-13
-4.11596e-13
-3.95613e-13
-3.8087e-13
-3.79615e-13
-3.79132e-13
-3.75059e-13
-3.66771e-13
-3.53337e-13
-3.41168e-13
-3.29765e-13
-3.23092e-13
-3.19661e-13
-3.13889e-13
-3.04712e-13
-2.98049e-13
-2.95249e-13
-2.8853e-13
-2.81275e-13
-2.72679e-13
-2.64075e-13
-2.55309e-13
-2.46111e-13
-2.35569e-13
-2.2975e-13
-2.22771e-13
-2.15387e-13
-2.10223e-13
-1.98792e-13
-1.86122e-13
-1.78717e-13
-1.76677e-13
-1.72426e-13
-1.65285e-13
-1.61152e-13
-1.55265e-13
-1.46236e-13
-1.3702e-13
-1.24764e-13
-1.13678e-13
-1.04941e-13
-1.01396e-13
-9.99528e-14
-9.72007e-14
-8.95199e-14
-8.24944e-14
-7.4478e-14
-6.90803e-14
-6.46408e-14
-5.99953e-14
-5.06315e-14
-3.94576e-14
-3.23469e-14
-2.31589e-14
-1.33045e-14
-2.1828e-15
-7.11855e-13
-7.141e-13
-7.08454e-13
-7.01136e-13
-7.05968e-13
-7.09241e-13
-7.09157e-13
-7.01235e-13
-6.87264e-13
-6.83386e-13
-6.75945e-13
-6.65201e-13
-6.59083e-13
-6.5502e-13
-6.51861e-13
-6.4752e-13
-6.40561e-13
-6.28611e-13
-6.10093e-13
-5.96506e-13
-5.88851e-13
-5.80577e-13
-5.76854e-13
-5.69046e-13
-5.58987e-13
-5.49022e-13
-5.40867e-13
-5.35612e-13
-5.34495e-13
-5.28503e-13
-5.21665e-13
-5.14484e-13
-5.03846e-13
-4.9336e-13
-4.89556e-13
-4.82282e-13
-4.73858e-13
-4.64749e-13
-4.60541e-13
-4.55543e-13
-4.49878e-13
-4.43041e-13
-4.3136e-13
-4.22607e-13
-4.19499e-13
-4.1222e-13
-4.01498e-13
-3.90207e-13
-3.83431e-13
-3.76164e-13
-3.69073e-13
-3.61796e-13
-3.51694e-13
-3.42596e-13
-3.34415e-13
-3.29326e-13
-3.20588e-13
-3.1348e-13
-3.05428e-13
-2.98853e-13
-2.92206e-13
-2.85757e-13
-2.79706e-13
-2.71938e-13
-2.61078e-13
-2.50679e-13
-2.4433e-13
-2.36269e-13
-2.28517e-13
-2.21392e-13
-2.13995e-13
-2.1076e-13
-2.03228e-13
-1.92925e-13
-1.81532e-13
-1.77168e-13
-1.73318e-13
-1.66873e-13
-1.61672e-13
-1.52373e-13
-1.46914e-13
-1.3793e-13
-1.24963e-13
-1.15319e-13
-1.07333e-13
-1.02312e-13
-1.00958e-13
-9.63798e-14
-8.87629e-14
-8.25012e-14
-7.42755e-14
-6.80957e-14
-6.14774e-14
-5.70575e-14
-5.02648e-14
-4.0906e-14
-3.07251e-14
-1.8916e-14
-8.82521e-15
8.72325e-16
-7.12126e-13
-7.11389e-13
-7.11091e-13
-7.08053e-13
-7.04408e-13
-7.07172e-13
-7.05296e-13
-7.04192e-13
-6.95391e-13
-6.79239e-13
-6.7031e-13
-6.62241e-13
-6.60465e-13
-6.58586e-13
-6.53954e-13
-6.46782e-13
-6.36017e-13
-6.28527e-13
-6.17593e-13
-6.0145e-13
-5.89033e-13
-5.75952e-13
-5.70784e-13
-5.63355e-13
-5.60877e-13
-5.54749e-13
-5.44066e-13
-5.38322e-13
-5.32861e-13
-5.28043e-13
-5.23066e-13
-5.14502e-13
-5.03789e-13
-4.92092e-13
-4.85839e-13
-4.80666e-13
-4.76669e-13
-4.66528e-13
-4.60872e-13
-4.5603e-13
-4.46491e-13
-4.37119e-13
-4.30739e-13
-4.23261e-13
-4.22388e-13
-4.16698e-13
-4.05789e-13
-3.92653e-13
-3.83489e-13
-3.73177e-13
-3.65655e-13
-3.61719e-13
-3.5352e-13
-3.43918e-13
-3.35031e-13
-3.27147e-13
-3.19817e-13
-3.12251e-13
-3.05178e-13
-3.01345e-13
-2.96274e-13
-2.92676e-13
-2.85145e-13
-2.72503e-13
-2.5757e-13
-2.42913e-13
-2.3595e-13
-2.31196e-13
-2.27776e-13
-2.28051e-13
-2.22103e-13
-2.13627e-13
-2.06352e-13
-1.95771e-13
-1.82985e-13
-1.74139e-13
-1.69795e-13
-1.64461e-13
-1.60669e-13
-1.52398e-13
-1.46396e-13
-1.38265e-13
-1.26803e-13
-1.1904e-13
-1.10096e-13
-1.01462e-13
-9.71686e-14
-9.13303e-14
-8.79407e-14
-8.36081e-14
-7.27619e-14
-6.37321e-14
-5.86534e-14
-5.40521e-14
-4.51984e-14
-3.60627e-14
-2.71055e-14
-1.68441e-14
-6.48538e-15
-2.21649e-16
-7.10439e-13
-7.0979e-13
-7.08999e-13
-7.10387e-13
-7.10632e-13
-7.04938e-13
-7.02847e-13
-7.00278e-13
-6.93596e-13
-6.85164e-13
-6.71003e-13
-6.60612e-13
-6.59865e-13
-6.59456e-13
-6.54092e-13
-6.49667e-13
-6.36327e-13
-6.26973e-13
-6.17688e-13
-6.03074e-13
-5.93612e-13
-5.7728e-13
-5.66615e-13
-5.62167e-13
-5.55719e-13
-5.50833e-13
-5.46614e-13
-5.39962e-13
-5.34814e-13
-5.304e-13
-5.22068e-13
-5.13051e-13
-5.02725e-13
-4.94593e-13
-4.90203e-13
-4.81935e-13
-4.73561e-13
-4.6691e-13
-4.63025e-13
-4.54453e-13
-4.46053e-13
-4.36663e-13
-4.30475e-13
-4.2861e-13
-4.26234e-13
-4.15234e-13
-4.02167e-13
-3.88727e-13
-3.79916e-13
-3.71586e-13
-3.68914e-13
-3.63719e-13
-3.53079e-13
-3.43373e-13
-3.33286e-13
-3.29972e-13
-3.22841e-13
-3.14777e-13
-3.04141e-13
-2.94711e-13
-2.93114e-13
-2.85154e-13
-2.7948e-13
-2.75423e-13
-2.607e-13
-2.45865e-13
-2.35709e-13
-2.30508e-13
-2.28268e-13
-2.31561e-13
-2.23767e-13
-2.16405e-13
-2.07177e-13
-1.94722e-13
-1.80697e-13
-1.70088e-13
-1.69477e-13
-1.68692e-13
-1.64932e-13
-1.565e-13
-1.50794e-13
-1.42185e-13
-1.26564e-13
-1.15256e-13
-1.04429e-13
-9.56109e-14
-9.8296e-14
-9.67448e-14
-8.8758e-14
-8.19522e-14
-7.12322e-14
-6.51354e-14
-5.82469e-14
-5.20398e-14
-4.70692e-14
-3.95829e-14
-2.29934e-14
-7.39637e-15
1.43509e-15
-1.78499e-15
-7.1416e-13
-7.12114e-13
-7.09799e-13
-7.11703e-13
-7.10011e-13
-7.04646e-13
-7.0464e-13
-7.01198e-13
-6.93039e-13
-6.81944e-13
-6.72973e-13
-6.64463e-13
-6.56093e-13
-6.5261e-13
-6.48852e-13
-6.42646e-13
-6.39863e-13
-6.33063e-13
-6.20259e-13
-6.04745e-13
-5.92914e-13
-5.84855e-13
-5.732e-13
-5.62885e-13
-5.55592e-13
-5.44966e-13
-5.41564e-13
-5.39019e-13
-5.36248e-13
-5.33284e-13
-5.24686e-13
-5.13912e-13
-5.0131e-13
-4.92083e-13
-4.8637e-13
-4.79465e-13
-4.75946e-13
-4.69912e-13
-4.65592e-13
-4.52714e-13
-4.4462e-13
-4.33637e-13
-4.3015e-13
-4.31184e-13
-4.24349e-13
-4.1532e-13
-4.03144e-13
-3.92693e-13
-3.8139e-13
-3.71526e-13
-3.64292e-13
-3.61537e-13
-3.52816e-13
-3.46473e-13
-3.38944e-13
-3.28991e-13
-3.2073e-13
-3.12058e-13
-3.03877e-13
-2.98017e-13
-2.95876e-13
-2.95973e-13
-2.84544e-13
-2.71882e-13
-2.52281e-13
-2.41927e-13
-2.35504e-13
-2.32842e-13
-2.28495e-13
-2.2689e-13
-2.20693e-13
-2.20137e-13
-2.14197e-13
-2.01199e-13
-1.79274e-13
-1.6228e-13
-1.62059e-13
-1.70015e-13
-1.67722e-13
-1.56695e-13
-1.49864e-13
-1.39187e-13
-1.29105e-13
-1.20398e-13
-1.10017e-13
-9.88771e-14
-9.27395e-14
-9.22113e-14
-8.71067e-14
-8.05e-14
-6.9091e-14
-6.44131e-14
-5.83755e-14
-5.08322e-14
-4.23949e-14
-3.5224e-14
-2.18861e-14
-9.51974e-15
-2.83077e-15
-2.05913e-15
-7.11629e-13
-7.11516e-13
-7.03423e-13
-7.13123e-13
-7.12685e-13
-7.09429e-13
-7.03065e-13
-6.95704e-13
-6.87734e-13
-6.76546e-13
-6.71165e-13
-6.65709e-13
-6.64932e-13
-6.58361e-13
-6.51232e-13
-6.4677e-13
-6.41915e-13
-6.34727e-13
-6.21432e-13
-6.06175e-13
-5.85795e-13
-5.71173e-13
-5.61361e-13
-5.60218e-13
-5.5595e-13
-5.51774e-13
-5.45046e-13
-5.38693e-13
-5.37166e-13
-5.35379e-13
-5.28136e-13
-5.14814e-13
-5.0452e-13
-4.96412e-13
-4.92134e-13
-4.81587e-13
-4.72292e-13
-4.68083e-13
-4.62657e-13
-4.52548e-13
-4.43347e-13
-4.3953e-13
-4.35322e-13
-4.29757e-13
-4.18e-13
-4.08812e-13
-4.01248e-13
-3.93232e-13
-3.83747e-13
-3.75573e-13
-3.68622e-13
-3.61882e-13
-3.49898e-13
-3.39261e-13
-3.41365e-13
-3.40711e-13
-3.24326e-13
-3.0889e-13
-3.00162e-13
-2.91496e-13
-2.89132e-13
-2.86432e-13
-2.85536e-13
-2.75143e-13
-2.57488e-13
-2.47875e-13
-2.3452e-13
-2.3363e-13
-2.28755e-13
-2.23788e-13
-2.20449e-13
-2.21067e-13
-2.15263e-13
-1.98826e-13
-1.80829e-13
-1.67736e-13
-1.65864e-13
-1.70526e-13
-1.64025e-13
-1.54487e-13
-1.4784e-13
-1.4019e-13
-1.32135e-13
-1.2238e-13
-1.11424e-13
-9.83247e-14
-9.29291e-14
-9.29487e-14
-8.61592e-14
-7.89566e-14
-6.9875e-14
-6.27372e-14
-5.46476e-14
-4.86341e-14
-4.29582e-14
-3.40589e-14
-2.22816e-14
-1.1596e-14
-1.83802e-15
2.19317e-16
-7.08249e-13
-7.1902e-13
-7.13689e-13
-7.08368e-13
-7.08813e-13
-7.07093e-13
-7.0222e-13
-7.00473e-13
-6.88431e-13
-6.72704e-13
-6.68616e-13
-6.66301e-13
-6.63337e-13
-6.5891e-13
-6.5402e-13
-6.4361e-13
-6.3253e-13
-6.23984e-13
-6.18039e-13
-6.09037e-13
-6.02106e-13
-5.93043e-13
-5.79199e-13
-5.60018e-13
-5.45437e-13
-5.39314e-13
-5.42225e-13
-5.40806e-13
-5.3914e-13
-5.37912e-13
-5.29131e-13
-5.15995e-13
-4.99903e-13
-4.87316e-13
-4.82405e-13
-4.78333e-13
-4.78973e-13
-4.75344e-13
-4.63711e-13
-4.57685e-13
-4.46483e-13
-4.35779e-13
-4.3382e-13
-4.26565e-13
-4.17496e-13
-4.08304e-13
-3.98286e-13
-3.93191e-13
-3.88174e-13
-3.78408e-13
-3.70006e-13
-3.59615e-13
-3.51558e-13
-3.43963e-13
-3.39028e-13
-3.33304e-13
-3.26341e-13
-3.19296e-13
-3.10283e-13
-2.9781e-13
-2.87829e-13
-2.80981e-13
-2.75225e-13
-2.69375e-13
-2.5882e-13
-2.50293e-13
-2.41532e-13
-2.34954e-13
-2.29382e-13
-2.26996e-13
-2.23133e-13
-2.15372e-13
-2.07942e-13
-2.00072e-13
-1.84445e-13
-1.73297e-13
-1.66632e-13
-1.65155e-13
-1.63822e-13
-1.55432e-13
-1.48713e-13
-1.38021e-13
-1.31015e-13
-1.21398e-13
-1.10166e-13
-1.0046e-13
-9.57156e-14
-9.15054e-14
-8.75138e-14
-7.8514e-14
-7.01919e-14
-6.62322e-14
-5.76201e-14
-4.8276e-14
-3.76375e-14
-2.87248e-14
-2.08302e-14
-1.31603e-14
-4.87805e-15
-2.22784e-16
-7.07885e-13
-7.12241e-13
-7.14875e-13
-7.10571e-13
-7.09454e-13
-7.1056e-13
-6.98941e-13
-6.86278e-13
-6.80428e-13
-6.78005e-13
-6.75068e-13
-6.70501e-13
-6.67068e-13
-6.60795e-13
-6.54497e-13
-6.45164e-13
-6.38207e-13
-6.33762e-13
-6.23611e-13
-6.08654e-13
-5.87307e-13
-5.73273e-13
-5.63047e-13
-5.52425e-13
-5.53818e-13
-5.52826e-13
-5.48269e-13
-5.41317e-13
-5.37308e-13
-5.36703e-13
-5.31111e-13
-5.1969e-13
-5.06162e-13
-4.87794e-13
-4.76953e-13
-4.78966e-13
-4.8083e-13
-4.7704e-13
-4.70242e-13
-4.58963e-13
-4.43759e-13
-4.34717e-13
-4.27214e-13
-4.21991e-13
-4.16694e-13
-4.11453e-13
-4.04182e-13
-3.94755e-13
-3.87857e-13
-3.85854e-13
-3.76444e-13
-3.57202e-13
-3.45784e-13
-3.38408e-13
-3.32461e-13
-3.31254e-13
-3.27463e-13
-3.18467e-13
-3.05278e-13
-2.94406e-13
-2.91188e-13
-2.86569e-13
-2.79024e-13
-2.69316e-13
-2.54339e-13
-2.43531e-13
-2.39733e-13
-2.37869e-13
-2.33496e-13
-2.26836e-13
-2.19791e-13
-2.15554e-13
-2.08667e-13
-1.98695e-13
-1.861e-13
-1.69879e-13
-1.65557e-13
-1.64175e-13
-1.65898e-13
-1.61413e-13
-1.52633e-13
-1.42173e-13
-1.30968e-13
-1.1852e-13
-1.08187e-13
-1.01153e-13
-9.68358e-14
-9.12428e-14
-8.48905e-14
-7.77055e-14
-7.07115e-14
-6.49444e-14
-5.85307e-14
-4.83728e-14
-3.68298e-14
-2.57518e-14
-1.64895e-14
-1.02365e-14
-2.88079e-15
-1.12894e-15
-7.06444e-13
-7.16453e-13
-7.17431e-13
-7.11508e-13
-7.08041e-13
-7.14134e-13
-7.09662e-13
-6.93655e-13
-6.73323e-13
-6.6834e-13
-6.67257e-13
-6.68585e-13
-6.67453e-13
-6.63956e-13
-6.58383e-13
-6.46572e-13
-6.36381e-13
-6.27467e-13
-6.13736e-13
-6.04555e-13
-5.9558e-13
-5.8194e-13
-5.69024e-13
-5.53725e-13
-5.52933e-13
-5.51427e-13
-5.50331e-13
-5.45995e-13
-5.38076e-13
-5.35984e-13
-5.27415e-13
-5.14886e-13
-5.04944e-13
-4.88972e-13
-4.76441e-13
-4.76218e-13
-4.78706e-13
-4.77966e-13
-4.6968e-13
-4.59729e-13
-4.43228e-13
-4.33726e-13
-4.31154e-13
-4.24923e-13
-4.16927e-13
-4.09159e-13
-4.06739e-13
-3.99438e-13
-3.87638e-13
-3.75219e-13
-3.66515e-13
-3.6039e-13
-3.5014e-13
-3.3648e-13
-3.3774e-13
-3.35344e-13
-3.27192e-13
-3.20499e-13
-3.1239e-13
-2.96959e-13
-2.89348e-13
-2.82089e-13
-2.73786e-13
-2.65945e-13
-2.53914e-13
-2.46301e-13
-2.37048e-13
-2.34662e-13
-2.29986e-13
-2.30372e-13
-2.22642e-13
-2.19221e-13
-2.12534e-13
-1.98188e-13
-1.83149e-13
-1.70946e-13
-1.68967e-13
-1.66906e-13
-1.61667e-13
-1.56981e-13
-1.51353e-13
-1.42558e-13
-1.32024e-13
-1.19164e-13
-1.11925e-13
-1.05361e-13
-9.76661e-14
-9.04547e-14
-8.4726e-14
-7.67813e-14
-6.93785e-14
-6.28244e-14
-5.42364e-14
-4.45664e-14
-3.6552e-14
-2.94906e-14
-1.4524e-14
-7.076e-15
2.8593e-17
1.78832e-16
-7.14392e-13
-7.13317e-13
-7.09664e-13
-7.0541e-13
-7.06866e-13
-7.01183e-13
-6.95848e-13
-6.97326e-13
-6.91749e-13
-6.82959e-13
-6.77002e-13
-6.67021e-13
-6.60314e-13
-6.59062e-13
-6.56914e-13
-6.48423e-13
-6.38683e-13
-6.35636e-13
-6.2287e-13
-6.045e-13
-5.83168e-13
-5.69005e-13
-5.6329e-13
-5.61726e-13
-5.54722e-13
-5.54565e-13
-5.50641e-13
-5.43888e-13
-5.38642e-13
-5.34094e-13
-5.27103e-13
-5.14541e-13
-5.01675e-13
-4.88243e-13
-4.79961e-13
-4.79561e-13
-4.84225e-13
-4.78137e-13
-4.69045e-13
-4.57685e-13
-4.43822e-13
-4.30664e-13
-4.28575e-13
-4.26022e-13
-4.22246e-13
-4.10649e-13
-4.01137e-13
-3.97054e-13
-3.91515e-13
-3.78878e-13
-3.6559e-13
-3.5986e-13
-3.5179e-13
-3.4081e-13
-3.32094e-13
-3.29965e-13
-3.24591e-13
-3.19568e-13
-3.13285e-13
-3.02744e-13
-2.91455e-13
-2.82688e-13
-2.73067e-13
-2.65072e-13
-2.58507e-13
-2.47668e-13
-2.37482e-13
-2.29155e-13
-2.26851e-13
-2.30251e-13
-2.22229e-13
-2.1744e-13
-2.10386e-13
-1.98959e-13
-1.87796e-13
-1.74926e-13
-1.64893e-13
-1.61339e-13
-1.6099e-13
-1.63085e-13
-1.57134e-13
-1.41481e-13
-1.30821e-13
-1.17607e-13
-1.12769e-13
-1.07844e-13
-1.00226e-13
-8.96084e-14
-8.01623e-14
-7.56889e-14
-6.96493e-14
-6.24479e-14
-5.62504e-14
-4.71604e-14
-3.54454e-14
-2.44729e-14
-1.48217e-14
-8.53294e-15
-5.65757e-16
1.59146e-15
-7.14059e-13
-7.1263e-13
-7.10187e-13
-7.07853e-13
-7.14027e-13
-7.10914e-13
-6.96212e-13
-6.88883e-13
-6.83094e-13
-6.79349e-13
-6.78146e-13
-6.75207e-13
-6.62417e-13
-6.54753e-13
-6.51167e-13
-6.4561e-13
-6.40492e-13
-6.32776e-13
-6.19102e-13
-6.01681e-13
-5.86437e-13
-5.70848e-13
-5.61114e-13
-5.62159e-13
-5.62705e-13
-5.54161e-13
-5.46426e-13
-5.44228e-13
-5.42092e-13
-5.36959e-13
-5.29673e-13
-5.16701e-13
-5.02043e-13
-4.87414e-13
-4.76394e-13
-4.78119e-13
-4.77765e-13
-4.75668e-13
-4.72997e-13
-4.6311e-13
-4.48053e-13
-4.34871e-13
-4.2792e-13
-4.20025e-13
-4.17908e-13
-4.12464e-13
-4.03645e-13
-3.93773e-13
-3.86622e-13
-3.79042e-13
-3.66375e-13
-3.60692e-13
-3.52284e-13
-3.42103e-13
-3.38814e-13
-3.34458e-13
-3.22634e-13
-3.13107e-13
-3.08003e-13
-2.99463e-13
-2.93711e-13
-2.83034e-13
-2.74083e-13
-2.6643e-13
-2.57308e-13
-2.46357e-13
-2.39786e-13
-2.29538e-13
-2.23837e-13
-2.21808e-13
-2.20834e-13
-2.18573e-13
-2.12452e-13
-1.9903e-13
-1.86348e-13
-1.76344e-13
-1.70451e-13
-1.64095e-13
-1.63537e-13
-1.60768e-13
-1.53896e-13
-1.43723e-13
-1.32508e-13
-1.21158e-13
-1.11778e-13
-1.02361e-13
-9.56643e-14
-9.12875e-14
-8.53807e-14
-7.60885e-14
-6.88079e-14
-6.13967e-14
-5.30879e-14
-4.41378e-14
-3.38166e-14
-2.66412e-14
-1.6779e-14
-6.26773e-15
-2.71419e-16
-7.6197e-17
-7.08659e-13
-7.11997e-13
-7.1208e-13
-7.10388e-13
-7.08494e-13
-7.01551e-13
-6.96176e-13
-6.92281e-13
-6.90783e-13
-6.85427e-13
-6.79192e-13
-6.73976e-13
-6.65351e-13
-6.56093e-13
-6.49613e-13
-6.41405e-13
-6.38489e-13
-6.31353e-13
-6.1759e-13
-6.04171e-13
-5.85876e-13
-5.71737e-13
-5.6706e-13
-5.63572e-13
-5.54836e-13
-5.50909e-13
-5.51251e-13
-5.49076e-13
-5.41604e-13
-5.31868e-13
-5.23963e-13
-5.15141e-13
-5.01708e-13
-4.88753e-13
-4.78783e-13
-4.84275e-13
-4.86388e-13
-4.78294e-13
-4.67713e-13
-4.5525e-13
-4.4416e-13
-4.37624e-13
-4.30129e-13
-4.2005e-13
-4.14741e-13
-4.07941e-13
-4.06402e-13
-4.04645e-13
-3.89555e-13
-3.75483e-13
-3.64547e-13
-3.61938e-13
-3.52512e-13
-3.41502e-13
-3.37683e-13
-3.34657e-13
-3.2611e-13
-3.14357e-13
-3.05405e-13
-2.98888e-13
-2.9623e-13
-2.86699e-13
-2.75294e-13
-2.64989e-13
-2.5309e-13
-2.45788e-13
-2.36377e-13
-2.3116e-13
-2.2464e-13
-2.20343e-13
-2.1658e-13
-2.1813e-13
-2.13067e-13
-1.99038e-13
-1.86508e-13
-1.76332e-13
-1.72598e-13
-1.67209e-13
-1.59075e-13
-1.51841e-13
-1.57033e-13
-1.51919e-13
-1.3446e-13
-1.21566e-13
-1.12194e-13
-1.01734e-13
-9.39238e-14
-9.0895e-14
-8.50533e-14
-7.64089e-14
-6.83314e-14
-6.13141e-14
-5.41992e-14
-4.2684e-14
-3.6494e-14
-2.53834e-14
-1.39549e-14
-4.40543e-15
7.49814e-16
-4.62381e-16
-7.16837e-13
-7.13447e-13
-7.11414e-13
-7.07973e-13
-7.02453e-13
-6.99408e-13
-6.95968e-13
-6.95793e-13
-6.92261e-13
-6.85802e-13
-6.785e-13
-6.7373e-13
-6.66854e-13
-6.60636e-13
-6.51997e-13
-6.39622e-13
-6.28556e-13
-6.2206e-13
-6.17277e-13
-6.08302e-13
-5.88511e-13
-5.76258e-13
-5.6716e-13
-5.60263e-13
-5.57327e-13
-5.5373e-13
-5.52671e-13
-5.49332e-13
-5.39734e-13
-5.35134e-13
-5.25348e-13
-5.14314e-13
-4.99718e-13
-4.86722e-13
-4.81464e-13
-4.83546e-13
-4.8238e-13
-4.76659e-13
-4.67777e-13
-4.56402e-13
-4.44434e-13
-4.35109e-13
-4.30826e-13
-4.24733e-13
-4.19872e-13
-4.12673e-13
-4.01773e-13
-3.94233e-13
-3.88795e-13
-3.80235e-13
-3.7264e-13
-3.6173e-13
-3.51201e-13
-3.42347e-13
-3.35875e-13
-3.2871e-13
-3.2405e-13
-3.16419e-13
-3.04758e-13
-2.98871e-13
-2.97157e-13
-2.88782e-13
-2.76699e-13
-2.63081e-13
-2.54435e-13
-2.45848e-13
-2.3633e-13
-2.29319e-13
-2.24383e-13
-2.20488e-13
-2.18337e-13
-2.18073e-13
-2.11763e-13
-1.95528e-13
-1.85419e-13
-1.76797e-13
-1.72092e-13
-1.67026e-13
-1.63151e-13
-1.59169e-13
-1.53442e-13
-1.45263e-13
-1.3591e-13
-1.26186e-13
-1.17822e-13
-1.01332e-13
-9.25494e-14
-8.77647e-14
-8.50707e-14
-7.2888e-14
-6.52892e-14
-6.02437e-14
-5.85813e-14
-4.48256e-14
-3.25026e-14
-2.45352e-14
-1.57548e-14
-1.5747e-15
-6.31405e-17
-1.8705e-15
-7.19849e-13
-7.12996e-13
-7.06657e-13
-7.07455e-13
-6.98843e-13
-6.99914e-13
-6.96378e-13
-6.97037e-13
-6.96059e-13
-6.84704e-13
-6.77754e-13
-6.74255e-13
-6.72285e-13
-6.62021e-13
-6.5222e-13
-6.43176e-13
-6.33773e-13
-6.22863e-13
-6.16553e-13
-6.01287e-13
-5.88383e-13
-5.75528e-13
-5.63947e-13
-5.58554e-13
-5.5519e-13
-5.57679e-13
-5.54e-13
-5.48124e-13
-5.40754e-13
-5.32935e-13
-5.25733e-13
-5.16273e-13
-5.00166e-13
-4.89931e-13
-4.80113e-13
-4.78457e-13
-4.80348e-13
-4.77028e-13
-4.68386e-13
-4.57517e-13
-4.4789e-13
-4.38867e-13
-4.30495e-13
-4.24003e-13
-4.17954e-13
-4.10667e-13
-4.01281e-13
-3.96594e-13
-3.91961e-13
-3.80448e-13
-3.69043e-13
-3.57394e-13
-3.50686e-13
-3.45546e-13
-3.39533e-13
-3.32934e-13
-3.25565e-13
-3.14827e-13
-3.07673e-13
-3.02933e-13
-2.97974e-13
-2.87313e-13
-2.72114e-13
-2.61457e-13
-2.52468e-13
-2.4342e-13
-2.34111e-13
-2.30448e-13
-2.23832e-13
-2.2463e-13
-2.19433e-13
-2.13993e-13
-2.04581e-13
-1.92727e-13
-1.83658e-13
-1.75038e-13
-1.75849e-13
-1.74786e-13
-1.65327e-13
-1.56681e-13
-1.50479e-13
-1.42592e-13
-1.34468e-13
-1.25003e-13
-1.12231e-13
-9.92491e-14
-9.40744e-14
-9.08002e-14
-8.4167e-14
-7.93586e-14
-7.31602e-14
-6.1093e-14
-5.05482e-14
-4.19632e-14
-3.27228e-14
-2.20026e-14
-1.40535e-14
-8.76322e-15
-2.76826e-15
-1.54545e-15
-7.17818e-13
-7.11221e-13
-7.09709e-13
-7.07836e-13
-7.03752e-13
-6.99914e-13
-6.93582e-13
-6.96054e-13
-6.95351e-13
-6.88817e-13
-6.81946e-13
-6.73806e-13
-6.70663e-13
-6.59859e-13
-6.49121e-13
-6.38245e-13
-6.27162e-13
-6.22731e-13
-6.17227e-13
-6.04005e-13
-5.90255e-13
-5.77224e-13
-5.65867e-13
-5.62441e-13
-5.621e-13
-5.55213e-13
-5.4908e-13
-5.4191e-13
-5.35334e-13
-5.33692e-13
-5.28257e-13
-5.21073e-13
-5.08476e-13
-4.97161e-13
-4.77835e-13
-4.74563e-13
-4.75007e-13
-4.73313e-13
-4.68559e-13
-4.57467e-13
-4.49972e-13
-4.39046e-13
-4.33457e-13
-4.22193e-13
-4.18245e-13
-4.12404e-13
-4.07475e-13
-3.98689e-13
-3.87915e-13
-3.72607e-13
-3.6866e-13
-3.62903e-13
-3.55369e-13
-3.41287e-13
-3.33693e-13
-3.26927e-13
-3.19347e-13
-3.1719e-13
-3.08679e-13
-3.07442e-13
-3.08338e-13
-2.84428e-13
-2.70096e-13
-2.63669e-13
-2.55137e-13
-2.47507e-13
-2.37342e-13
-2.30409e-13
-2.20656e-13
-2.18293e-13
-2.13757e-13
-2.17145e-13
-2.10673e-13
-1.97908e-13
-1.81638e-13
-1.70198e-13
-1.7611e-13
-1.73461e-13
-1.65744e-13
-1.59405e-13
-1.52533e-13
-1.43155e-13
-1.33625e-13
-1.22715e-13
-1.12823e-13
-1.0085e-13
-9.33147e-14
-9.16458e-14
-8.58945e-14
-7.49869e-14
-6.62579e-14
-6.05556e-14
-5.18478e-14
-4.12706e-14
-3.75457e-14
-2.9521e-14
-1.45217e-14
-4.32057e-15
2.54671e-15
-5.87012e-16
-7.11937e-13
-7.14192e-13
-7.13803e-13
-7.07469e-13
-7.01155e-13
-7.01511e-13
-6.98901e-13
-6.94825e-13
-6.93036e-13
-6.87632e-13
-6.83695e-13
-6.78135e-13
-6.68769e-13
-6.58531e-13
-6.50084e-13
-6.41889e-13
-6.3562e-13
-6.30701e-13
-6.19823e-13
-6.01233e-13
-5.8048e-13
-5.66181e-13
-5.63121e-13
-5.6405e-13
-5.62195e-13
-5.54773e-13
-5.45525e-13
-5.41913e-13
-5.35598e-13
-5.35049e-13
-5.32897e-13
-5.15798e-13
-5.02469e-13
-4.9409e-13
-4.85131e-13
-4.81225e-13
-4.77838e-13
-4.7211e-13
-4.66231e-13
-4.57743e-13
-4.49716e-13
-4.38689e-13
-4.31303e-13
-4.26219e-13
-4.23859e-13
-4.13451e-13
-4.05596e-13
-3.9216e-13
-3.88647e-13
-3.8005e-13
-3.67431e-13
-3.61533e-13
-3.54991e-13
-3.46054e-13
-3.36706e-13
-3.22524e-13
-3.10123e-13
-3.14474e-13
-3.1929e-13
-3.09756e-13
-2.9931e-13
-2.86882e-13
-2.73941e-13