/*--------------------------------*- C++ -*----------------------------------*\
| =========                 |                                                 |
| \\      /  F ield         | OpenFOAM: The Open Source CFD Toolbox           |
|  \\    /   O peration     | Version:  v2012                                 |
|   \\  /    A nd           | Website:  www.openfoam.com                      |
|    \\/     M anipulation  |                                                 |
\*---------------------------------------------------------------------------*/
FoamFile
{
    version     2.0;
    format      ascii;
    class       volScalarField;
    location    "0";
    object      pRec;
}
// * * * * * * * * * * * * * * * * * * * * * * * * * * * * * * * * * * * * * //

dimensions      [0 2 -2 0 0 0 0];


internalField   nonuniform List<scalar> 
4000
(
-6.8738e-13
-6.82155e-13
-6.83083e-13
-6.85471e-13
-6.83884e-13
-6.84391e-13
-6.82204e-13
-6.77359e-13
-6.68469e-13
-6.63979e-13
-6.64844e-13
-6.59602e-13
-6.51138e-13
-6.39073e-13
-6.25166e-13
-6.19113e-13
-6.15457e-13
-6.13429e-13
-6.06364e-13
-5.94437e-13
-5.83721e-13
-5.76511e-13
-5.7132e-13
-5.62471e-13
-5.52017e-13
-5.41307e-13
-5.38402e-13
-5.3326e-13
-5.2669e-13
-5.15326e-13
-5.00603e-13
-4.93198e-13
-4.90331e-13
-4.87258e-13
-4.81686e-13
-4.77074e-13
-4.66806e-13
-4.49809e-13
-4.32922e-13
-4.28462e-13
-4.27516e-13
-4.24807e-13
-4.24024e-13
-4.18211e-13
-4.08459e-13
-3.99494e-13
-3.90278e-13
-3.81028e-13
-3.7257e-13
-3.64848e-13
-3.56765e-13
-3.49347e-13
-3.42367e-13
-3.33891e-13
-3.26117e-13
-3.14059e-13
-3.06656e-13
-3.04357e-13
-3.02177e-13
-2.99131e-13
-2.91013e-13
-2.83862e-13
-2.74125e-13
-2.63003e-13
-2.55156e-13
-2.4783e-13
-2.4333e-13
-2.34874e-13
-2.24346e-13
-2.17354e-13
-2.0994e-13
-2.01918e-13
-1.88614e-13
-1.81065e-13
-1.79149e-13
-1.75016e-13
-1.69663e-13
-1.62911e-13
-1.53055e-13
-1.39328e-13
-1.26977e-13
-1.21107e-13
-1.12554e-13
-1.07174e-13
-1.01201e-13
-9.5286e-14
-8.70514e-14
-7.9535e-14
-7.61516e-14
-7.19771e-14
-6.63469e-14
-5.96209e-14
-5.35957e-14
-4.91985e-14
-4.00571e-14
-3.16703e-14
-2.44955e-14
-1.66927e-14
-8.92173e-15
-2.04897e-15
-6.84144e-13
-6.8266e-13
-6.85537e-13
-6.85603e-13
-6.86385e-13
-6.8318e-13
-6.79909e-13
-6.77685e-13
-6.72388e-13
-6.66715e-13
-6.6145e-13
-6.5701e-13
-6.49551e-13
-6.38952e-13
-6.28175e-13
-6.22274e-13
-6.17931e-13
-6.11963e-13
-6.0435e-13
-5.97509e-13
-5.8653e-13
-5.74847e-13
-5.67771e-13
-5.59867e-13
-5.49987e-13
-5.43846e-13
-5.39778e-13
-5.33839e-13
-5.25593e-13
-5.12273e-13
-5.0335e-13
-4.96328e-13
-4.89862e-13
-4.84136e-13
-4.78974e-13
-4.7357e-13
-4.65422e-13
-4.52659e-13
-4.39254e-13
-4.31974e-13
-4.27462e-13
-4.24731e-13
-4.21172e-13
-4.16739e-13
-4.09446e-13
-3.99512e-13
-3.89115e-13
-3.80922e-13
-3.72356e-13
-3.62619e-13
-3.55725e-13
-3.48472e-13
-3.42787e-13
-3.35304e-13
-3.27411e-13
-3.16533e-13
-3.06286e-13
-3.02659e-13
-3.00444e-13
-2.97498e-13
-2.93014e-13
-2.84053e-13
-2.74895e-13
-2.64828e-13
-2.57013e-13
-2.48089e-13
-2.40993e-13
-2.33774e-13
-2.26619e-13
-2.18789e-13
-2.09907e-13
-2.01893e-13
-1.92898e-13
-1.84331e-13
-1.79157e-13
-1.71344e-13
-1.68399e-13
-1.60862e-13
-1.50076e-13
-1.38149e-13
-1.2819e-13
-1.22308e-13
-1.15963e-13
-1.08969e-13
-9.99073e-14
-9.35009e-14
-8.50475e-14
-7.7591e-14
-7.45849e-14
-7.05834e-14
-6.75044e-14
-6.21925e-14
-5.70589e-14
-4.71813e-14
-3.86311e-14
-3.20696e-14
-2.38334e-14
-1.6865e-14
-1.02111e-14
-3.80856e-15
-6.83492e-13
-6.82595e-13
-6.8475e-13
-6.87685e-13
-6.88372e-13
-6.84325e-13
-6.78905e-13
-6.76683e-13
-6.70322e-13
-6.6661e-13
-6.62266e-13
-6.56298e-13
-6.48815e-13
-6.40298e-13
-6.30163e-13
-6.23386e-13
-6.16931e-13
-6.10794e-13
-6.04846e-13
-5.96011e-13
-5.85699e-13
-5.76872e-13
-5.68569e-13
-5.60701e-13
-5.51526e-13
-5.46237e-13
-5.40778e-13
-5.32254e-13
-5.23389e-13
-5.10793e-13
-5.03573e-13
-4.96372e-13
-4.89448e-13
-4.86013e-13
-4.81027e-13
-4.74745e-13
-4.63996e-13
-4.53676e-13
-4.42883e-13
-4.32079e-13
-4.26682e-13
-4.21814e-13
-4.21387e-13
-4.17211e-13
-4.09912e-13
-3.99456e-13
-3.87481e-13
-3.78469e-13
-3.73592e-13
-3.68218e-13
-3.57182e-13
-3.49058e-13
-3.40382e-13
-3.3221e-13
-3.25384e-13
-3.17304e-13
-3.06996e-13
-3.04944e-13
-3.04564e-13
-2.99195e-13
-2.90764e-13
-2.79634e-13
-2.71842e-13
-2.65889e-13
-2.59397e-13
-2.51403e-13
-2.43484e-13
-2.33191e-13
-2.25289e-13
-2.15596e-13
-2.07188e-13
-1.99441e-13
-1.90019e-13
-1.8396e-13
-1.78756e-13
-1.73064e-13
-1.67775e-13
-1.6071e-13
-1.49788e-13
-1.3939e-13
-1.32909e-13
-1.24015e-13
-1.12038e-13
-1.05744e-13
-9.98994e-14
-9.57572e-14
-8.94532e-14
-8.10593e-14
-7.46311e-14
-6.87211e-14
-6.49562e-14
-6.19245e-14
-5.54567e-14
-4.76838e-14
-3.8166e-14
-2.98701e-14
-2.46012e-14
-1.77827e-14
-1.34745e-14
-4.30256e-15
-6.84431e-13
-6.85312e-13
-6.85983e-13
-6.82535e-13
-6.86734e-13
-6.81664e-13
-6.79159e-13
-6.76927e-13
-6.74334e-13
-6.68536e-13
-6.60771e-13
-6.52179e-13
-6.4512e-13
-6.40204e-13
-6.38145e-13
-6.28554e-13
-6.15299e-13
-6.08003e-13
-6.03552e-13
-5.95004e-13
-5.85956e-13
-5.78386e-13
-5.69146e-13
-5.55435e-13
-5.47797e-13
-5.44104e-13
-5.39836e-13
-5.34217e-13
-5.23842e-13
-5.14509e-13
-5.07326e-13
-4.98574e-13
-4.90143e-13
-4.84186e-13
-4.76778e-13
-4.74194e-13
-4.64664e-13
-4.5258e-13
-4.44096e-13
-4.34462e-13
-4.29469e-13
-4.26151e-13
-4.21098e-13
-4.14656e-13
-4.05391e-13
-3.96162e-13
-3.87457e-13
-3.81856e-13
-3.739e-13
-3.62471e-13
-3.5358e-13
-3.47816e-13
-3.42144e-13
-3.36126e-13
-3.24864e-13
-3.18337e-13
-3.09321e-13
-3.0397e-13
-3.03516e-13
-2.97442e-13
-2.89344e-13
-2.81512e-13
-2.75648e-13
-2.68263e-13
-2.5917e-13
-2.50207e-13
-2.4241e-13
-2.33292e-13
-2.25733e-13
-2.17943e-13
-2.1076e-13
-2.02545e-13
-1.92827e-13
-1.85108e-13
-1.78373e-13
-1.71772e-13
-1.67607e-13
-1.60361e-13
-1.49729e-13
-1.39869e-13
-1.32034e-13
-1.24503e-13
-1.14085e-13
-1.04643e-13
-9.90837e-14
-9.42397e-14
-8.76234e-14
-8.01997e-14
-7.29459e-14
-6.9275e-14
-6.70964e-14
-6.26695e-14
-5.70146e-14
-4.63714e-14
-3.76974e-14
-3.22498e-14
-2.61003e-14
-1.72505e-14
-1.09e-14
-4.16208e-15
-6.8498e-13
-6.89078e-13
-6.85763e-13
-6.81945e-13
-6.78946e-13
-6.8198e-13
-6.81495e-13
-6.79425e-13
-6.7341e-13
-6.65965e-13
-6.58018e-13
-6.53673e-13
-6.44647e-13
-6.39132e-13
-6.37287e-13
-6.31064e-13
-6.21646e-13
-6.12008e-13
-6.00906e-13
-5.90072e-13
-5.85145e-13
-5.77376e-13
-5.64048e-13
-5.55054e-13
-5.51308e-13
-5.46395e-13
-5.41102e-13
-5.33101e-13
-5.26025e-13
-5.16838e-13
-5.07758e-13
-4.994e-13
-4.9038e-13
-4.84341e-13
-4.78143e-13
-4.73694e-13
-4.63558e-13
-4.5273e-13
-4.42077e-13
-4.34617e-13
-4.29861e-13
-4.27815e-13
-4.21185e-13
-4.13258e-13
-4.03556e-13
-3.93153e-13
-3.86297e-13
-3.80599e-13
-3.73042e-13
-3.66025e-13
-3.57037e-13
-3.49886e-13
-3.42287e-13
-3.35592e-13
-3.24732e-13
-3.1701e-13
-3.10656e-13
-3.05455e-13
-3.0273e-13
-2.96489e-13
-2.89679e-13
-2.81778e-13
-2.73451e-13
-2.6749e-13
-2.61763e-13
-2.5487e-13
-2.46505e-13
-2.34387e-13
-2.25487e-13
-2.1531e-13
-2.07411e-13
-2.00314e-13
-1.93093e-13
-1.85039e-13
-1.75212e-13
-1.69093e-13
-1.66743e-13
-1.60042e-13
-1.52096e-13
-1.41924e-13
-1.33212e-13
-1.26332e-13
-1.13802e-13
-1.0371e-13
-9.61965e-14
-9.1215e-14
-8.79411e-14
-8.26942e-14
-7.51016e-14
-7.05837e-14
-6.61094e-14
-6.23379e-14
-5.50736e-14
-4.94079e-14
-4.15884e-14
-3.2505e-14
-2.57727e-14
-1.92335e-14
-1.04757e-14
-1.67505e-15
-6.81768e-13
-6.90414e-13
-6.8695e-13
-6.78824e-13
-6.82995e-13
-6.8562e-13
-6.834e-13
-6.794e-13
-6.71567e-13
-6.59464e-13
-6.56074e-13
-6.52853e-13
-6.49122e-13
-6.40157e-13
-6.33913e-13
-6.32664e-13
-6.23054e-13
-6.14355e-13
-6.05695e-13
-5.93465e-13
-5.82648e-13
-5.7159e-13
-5.55471e-13
-5.51898e-13
-5.51949e-13
-5.49521e-13
-5.41265e-13
-5.32942e-13
-5.25321e-13
-5.19256e-13
-5.08639e-13
-4.99095e-13
-4.91263e-13
-4.87066e-13
-4.82844e-13
-4.72512e-13
-4.61635e-13
-4.52865e-13
-4.42089e-13
-4.36841e-13
-4.3201e-13
-4.28127e-13
-4.1978e-13
-4.13399e-13
-4.03748e-13
-3.9183e-13
-3.83392e-13
-3.77357e-13
-3.73027e-13
-3.6576e-13
-3.58289e-13
-3.49368e-13
-3.41207e-13
-3.33111e-13
-3.23596e-13
-3.18404e-13
-3.13008e-13
-3.06189e-13
-3.01491e-13
-2.9706e-13
-2.91913e-13
-2.82762e-13
-2.74098e-13
-2.67456e-13
-2.58493e-13
-2.52817e-13
-2.46832e-13
-2.35657e-13
-2.26478e-13
-2.18233e-13
-2.08782e-13
-2.00525e-13
-1.9451e-13
-1.86568e-13
-1.76985e-13
-1.7147e-13
-1.65725e-13
-1.56977e-13
-1.51452e-13
-1.4389e-13
-1.35978e-13
-1.25503e-13
-1.11666e-13
-1.01931e-13
-9.72933e-14
-9.32869e-14
-8.92017e-14
-8.09595e-14
-7.41854e-14
-6.985e-14
-6.58778e-14
-6.2671e-14
-5.33911e-14
-4.82635e-14
-4.12003e-14
-3.49074e-14
-2.61045e-14
-1.83767e-14
-8.75027e-15
-6.30361e-16
-6.8642e-13
-6.86796e-13
-6.86339e-13
-6.83247e-13
-6.8048e-13
-6.83974e-13
-6.82882e-13
-6.7712e-13
-6.69316e-13
-6.60219e-13
-6.52819e-13
-6.5222e-13
-6.50912e-13
-6.41498e-13
-6.35337e-13
-6.30778e-13
-6.2739e-13
-6.19113e-13
-6.02825e-13
-5.86344e-13
-5.71575e-13
-5.66748e-13
-5.65207e-13
-5.62366e-13
-5.56072e-13
-5.49003e-13
-5.39163e-13
-5.31091e-13
-5.26101e-13
-5.20962e-13
-5.11336e-13
-4.98136e-13
-4.91729e-13
-4.83092e-13
-4.77591e-13
-4.70485e-13
-4.63528e-13
-4.57492e-13
-4.46702e-13
-4.3546e-13
-4.28226e-13
-4.22838e-13
-4.18079e-13
-4.1392e-13
-4.06593e-13
-3.96269e-13
-3.85297e-13
-3.76263e-13
-3.69895e-13
-3.65721e-13
-3.58644e-13
-3.5295e-13
-3.43981e-13
-3.33348e-13
-3.24941e-13
-3.19095e-13
-3.12211e-13
-3.01617e-13
-2.97784e-13
-2.96738e-13
-2.96247e-13
-2.87807e-13
-2.76532e-13
-2.65208e-13
-2.55738e-13
-2.49323e-13
-2.41535e-13
-2.31612e-13
-2.22659e-13
-2.17934e-13
-2.16311e-13
-2.05961e-13
-1.95557e-13
-1.89463e-13
-1.79997e-13
-1.70071e-13
-1.61738e-13
-1.53297e-13
-1.47614e-13
-1.42574e-13
-1.35292e-13
-1.2509e-13
-1.16364e-13
-1.07382e-13
-1.00203e-13
-9.06164e-14
-8.65733e-14
-8.20851e-14
-7.51855e-14
-7.14523e-14
-6.53406e-14
-5.83304e-14
-5.3432e-14
-4.71991e-14
-4.072e-14
-3.27911e-14
-2.58717e-14
-1.68986e-14
-9.18396e-15
-2.6621e-15
-6.85129e-13
-6.84199e-13
-6.82465e-13
-6.84227e-13
-6.86341e-13
-6.8595e-13
-6.82324e-13
-6.75574e-13
-6.67483e-13
-6.61114e-13
-6.56587e-13
-6.51473e-13
-6.47462e-13
-6.39328e-13
-6.35448e-13
-6.31238e-13
-6.27231e-13
-6.1919e-13
-5.9871e-13
-5.88436e-13
-5.83365e-13
-5.75759e-13
-5.65078e-13
-5.55946e-13
-5.5278e-13
-5.45482e-13
-5.35678e-13
-5.30121e-13
-5.24184e-13
-5.18162e-13
-5.1156e-13
-5.03157e-13
-4.97072e-13
-4.89612e-13
-4.7841e-13
-4.69778e-13
-4.61953e-13
-4.53043e-13
-4.45341e-13
-4.35848e-13
-4.29132e-13
-4.25196e-13
-4.18706e-13
-4.16858e-13
-4.11158e-13
-3.96879e-13
-3.81455e-13
-3.68934e-13
-3.6814e-13
-3.67114e-13
-3.62891e-13
-3.56111e-13
-3.43737e-13
-3.33313e-13
-3.22558e-13
-3.16587e-13
-3.12892e-13
-3.07126e-13
-2.99702e-13
-2.94502e-13
-2.9251e-13
-2.85248e-13
-2.77495e-13
-2.68902e-13
-2.60599e-13
-2.51457e-13
-2.42706e-13
-2.33511e-13
-2.27062e-13
-2.19893e-13
-2.12382e-13
-2.06087e-13
-1.94217e-13
-1.82029e-13
-1.74888e-13
-1.70181e-13
-1.6511e-13
-1.5706e-13
-1.51837e-13
-1.45321e-13
-1.36217e-13
-1.25349e-13
-1.13039e-13
-1.02405e-13
-9.45662e-14
-9.04757e-14
-8.76326e-14
-8.35025e-14
-7.66426e-14
-7.00846e-14
-6.32119e-14
-5.80276e-14
-5.35113e-14
-4.85868e-14
-3.94143e-14
-3.12718e-14
-2.5393e-14
-1.83342e-14
-1.05179e-14
-1.34287e-15
-6.87134e-13
-6.8812e-13
-6.83782e-13
-6.78799e-13
-6.81825e-13
-6.83987e-13
-6.83636e-13
-6.76104e-13
-6.65111e-13
-6.62835e-13
-6.57453e-13
-6.48501e-13
-6.42233e-13
-6.39639e-13
-6.37552e-13
-6.33567e-13
-6.27217e-13
-6.1699e-13
-6.027e-13
-5.90235e-13
-5.81932e-13
-5.73291e-13
-5.68426e-13
-5.61863e-13
-5.53334e-13
-5.43361e-13
-5.34688e-13
-5.2993e-13
-5.27326e-13
-5.18908e-13
-5.12361e-13
-5.04259e-13
-4.94026e-13
-4.83448e-13
-4.78495e-13
-4.70845e-13
-4.61378e-13
-4.52688e-13
-4.46587e-13
-4.40131e-13
-4.34881e-13
-4.27154e-13
-4.15432e-13
-4.08769e-13
-4.04325e-13
-3.97406e-13
-3.86106e-13
-3.77348e-13
-3.71273e-13
-3.64956e-13
-3.58821e-13
-3.51983e-13
-3.42644e-13
-3.34412e-13
-3.26485e-13
-3.2133e-13
-3.14237e-13
-3.07536e-13
-3.00311e-13
-2.9573e-13
-2.89816e-13
-2.82826e-13
-2.76188e-13
-2.68515e-13
-2.57974e-13
-2.47974e-13
-2.41835e-13
-2.34558e-13
-2.26472e-13
-2.19084e-13
-2.10962e-13
-2.06559e-13
-1.98226e-13
-1.88164e-13
-1.76602e-13
-1.7036e-13
-1.6617e-13
-1.58515e-13
-1.52307e-13
-1.43259e-13
-1.3626e-13
-1.2615e-13
-1.13626e-13
-1.04008e-13
-9.66593e-14
-9.10642e-14
-8.83078e-14
-8.29159e-14
-7.6437e-14
-6.99119e-14
-6.27588e-14
-5.73486e-14
-5.04272e-14
-4.55806e-14
-3.89214e-14
-3.1558e-14
-2.42432e-14
-1.51522e-14
-7.06979e-15
1.23719e-15
-6.86673e-13
-6.86001e-13
-6.86468e-13
-6.83006e-13
-6.80155e-13
-6.81683e-13
-6.8103e-13
-6.78529e-13
-6.7131e-13
-6.59025e-13
-6.51963e-13
-6.45886e-13
-6.43255e-13
-6.4205e-13
-6.38647e-13
-6.32484e-13
-6.23692e-13
-6.18158e-13
-6.10018e-13
-5.94813e-13
-5.81803e-13
-5.69528e-13
-5.64152e-13
-5.57861e-13
-5.54072e-13
-5.48121e-13
-5.38685e-13
-5.32141e-13
-5.25902e-13
-5.19369e-13
-5.12791e-13
-5.03976e-13
-4.94273e-13
-4.83134e-13
-4.75745e-13
-4.69341e-13
-4.63898e-13
-4.53518e-13
-4.47729e-13
-4.40987e-13
-4.31232e-13
-4.2177e-13
-4.1452e-13
-4.08841e-13
-4.06659e-13
-4.01753e-13
-3.90321e-13
-3.79246e-13
-3.71389e-13
-3.62749e-13
-3.56203e-13
-3.51599e-13
-3.44042e-13
-3.35413e-13
-3.26888e-13
-3.19946e-13
-3.13662e-13
-3.06853e-13
-3.00346e-13
-2.97459e-13
-2.93146e-13
-2.88557e-13
-2.81953e-13
-2.69254e-13
-2.55219e-13
-2.41396e-13
-2.34408e-13
-2.29814e-13
-2.25718e-13
-2.2469e-13
-2.18454e-13
-2.08433e-13
-2.00606e-13
-1.90066e-13
-1.77392e-13
-1.68047e-13
-1.63622e-13
-1.5694e-13
-1.51898e-13
-1.42661e-13
-1.35192e-13
-1.26456e-13
-1.15754e-13
-1.07403e-13
-9.78821e-14
-8.98131e-14
-8.55181e-14
-8.01526e-14
-7.55228e-14
-6.94413e-14
-6.14238e-14
-5.29709e-14
-4.71269e-14
-4.29788e-14
-3.52167e-14
-2.77691e-14
-2.0296e-14
-1.36756e-14
-5.12377e-15
5.11192e-16
-6.84854e-13
-6.84111e-13
-6.83147e-13
-6.84657e-13
-6.85077e-13
-6.79551e-13
-6.77856e-13
-6.74948e-13
-6.69791e-13
-6.64135e-13
-6.52822e-13
-6.44533e-13
-6.43624e-13
-6.4423e-13
-6.3944e-13
-6.34823e-13
-6.23238e-13
-6.16196e-13
-6.08932e-13
-5.96036e-13
-5.85652e-13
-5.70607e-13
-5.61058e-13
-5.56658e-13
-5.51253e-13
-5.45816e-13
-5.40893e-13
-5.33881e-13
-5.27436e-13
-5.20805e-13
-5.12223e-13
-5.02929e-13
-4.93106e-13
-4.84764e-13
-4.79392e-13
-4.71108e-13
-4.62302e-13
-4.53641e-13
-4.48307e-13
-4.38983e-13
-4.31315e-13
-4.21738e-13
-4.15076e-13
-4.12231e-13
-4.08872e-13
-4.00353e-13
-3.87921e-13
-3.7551e-13
-3.68568e-13
-3.61374e-13
-3.5868e-13
-3.53704e-13
-3.43409e-13
-3.34871e-13
-3.26093e-13
-3.23035e-13
-3.1659e-13
-3.0928e-13
-3.0003e-13
-2.91806e-13
-2.89231e-13
-2.81525e-13
-2.76855e-13
-2.71755e-13
-2.58316e-13
-2.44568e-13
-2.35294e-13
-2.28844e-13
-2.262e-13
-2.2733e-13
-2.18934e-13
-2.11008e-13
-2.01292e-13
-1.89561e-13
-1.75689e-13
-1.64886e-13
-1.63243e-13
-1.59594e-13
-1.55126e-13
-1.46059e-13
-1.3889e-13
-1.29818e-13
-1.15448e-13
-1.04376e-13
-9.36161e-14
-8.44642e-14
-8.60977e-14
-8.35329e-14
-7.55926e-14
-6.84171e-14
-5.9319e-14
-5.26993e-14
-4.64494e-14
-4.10108e-14
-3.67703e-14
-3.04697e-14
-1.71165e-14
-5.44758e-15
1.99704e-15
-4.9741e-16
-6.87286e-13
-6.85454e-13
-6.83496e-13
-6.8469e-13
-6.83793e-13
-6.78836e-13
-6.79258e-13
-6.75995e-13
-6.69492e-13
-6.6199e-13
-6.54115e-13
-6.47265e-13
-6.39916e-13
-6.37672e-13
-6.35306e-13
-6.30261e-13
-6.26399e-13
-6.21215e-13
-6.11125e-13
-5.97127e-13
-5.84862e-13
-5.76937e-13
-5.6711e-13
-5.57824e-13
-5.51431e-13
-5.40647e-13
-5.36924e-13
-5.3358e-13
-5.28931e-13
-5.22974e-13
-5.14368e-13
-5.03569e-13
-4.91806e-13
-4.81978e-13
-4.76588e-13
-4.69372e-13
-4.63963e-13
-4.56216e-13
-4.50052e-13
-4.38042e-13
-4.29939e-13
-4.19031e-13
-4.14684e-13
-4.14137e-13
-4.07416e-13
-3.99735e-13
-3.88705e-13
-3.78399e-13
-3.69585e-13
-3.61068e-13
-3.55403e-13
-3.51787e-13
-3.43653e-13
-3.37702e-13
-3.30718e-13
-3.21963e-13
-3.15272e-13
-3.07649e-13
-2.99622e-13
-2.93967e-13
-2.91295e-13
-2.90962e-13
-2.81094e-13
-2.68987e-13
-2.51461e-13
-2.41959e-13
-2.35408e-13
-2.31269e-13
-2.2588e-13
-2.22654e-13
-2.16369e-13
-2.14317e-13
-2.07617e-13
-1.94482e-13
-1.75016e-13
-1.59328e-13
-1.56859e-13
-1.60035e-13
-1.56517e-13
-1.46117e-13
-1.37767e-13
-1.27515e-13
-1.1719e-13
-1.0806e-13
-9.75634e-14
-8.71605e-14
-8.09861e-14
-7.98716e-14
-7.42316e-14
-6.69798e-14
-5.72771e-14
-5.17643e-14
-4.61702e-14
-3.95262e-14
-3.27329e-14
-2.71388e-14
-1.58477e-14
-6.57979e-15
-7.60007e-16
-4.18778e-16
-6.85261e-13
-6.84537e-13
-6.7744e-13
-6.85672e-13
-6.85511e-13
-6.82734e-13
-6.767e-13
-6.70644e-13
-6.65225e-13
-6.57616e-13
-6.5349e-13
-6.4934e-13
-6.47992e-13
-6.42386e-13
-6.37046e-13
-6.33302e-13
-6.28626e-13
-6.22258e-13
-6.11893e-13
-5.97564e-13
-5.79804e-13
-5.66582e-13
-5.58855e-13
-5.56277e-13
-5.50937e-13
-5.45784e-13
-5.39436e-13
-5.33262e-13
-5.29376e-13
-5.25242e-13
-5.16842e-13
-5.03981e-13
-4.94097e-13
-4.86059e-13
-4.81212e-13
-4.71054e-13
-4.60874e-13
-4.55058e-13
-4.48057e-13
-4.37623e-13
-4.28048e-13
-4.23586e-13
-4.18545e-13
-4.12524e-13
-4.02436e-13
-3.93139e-13
-3.86371e-13
-3.78606e-13
-3.71282e-13
-3.64526e-13
-3.57975e-13
-3.52363e-13
-3.41617e-13
-3.32486e-13
-3.33299e-13
-3.32403e-13
-3.18296e-13
-3.04025e-13
-2.95018e-13
-2.88219e-13
-2.85834e-13
-2.83001e-13
-2.81793e-13
-2.72286e-13
-2.5646e-13
-2.47203e-13
-2.34242e-13
-2.31957e-13
-2.26237e-13
-2.20752e-13
-2.15865e-13
-2.14466e-13
-2.07926e-13
-1.92856e-13
-1.76911e-13
-1.6346e-13
-1.59161e-13
-1.6106e-13
-1.53032e-13
-1.42972e-13
-1.36278e-13
-1.28482e-13
-1.19927e-13
-1.09166e-13
-9.86323e-14
-8.69956e-14
-8.06633e-14
-7.95507e-14
-7.23777e-14
-6.4836e-14
-5.71926e-14
-5.05178e-14
-4.34575e-14
-3.81719e-14
-3.31758e-14
-2.5686e-14
-1.58967e-14
-7.80942e-15
4.35636e-18
1.01974e-15
-6.81929e-13
-6.90929e-13
-6.85576e-13
-6.81065e-13
-6.81841e-13
-6.80804e-13
-6.76402e-13
-6.75519e-13
-6.66381e-13
-6.53947e-13
-6.49688e-13
-6.48947e-13
-6.46485e-13
-6.44117e-13
-6.39919e-13
-6.31348e-13
-6.21421e-13
-6.14467e-13
-6.09122e-13
-5.99617e-13
-5.9206e-13
-5.83972e-13
-5.72879e-13
-5.56751e-13
-5.43248e-13
-5.36311e-13
-5.37826e-13
-5.34703e-13
-5.30398e-13
-5.26631e-13
-5.17332e-13
-5.05396e-13
-4.90853e-13
-4.79122e-13
-4.72747e-13
-4.67726e-13
-4.6674e-13
-4.60512e-13
-4.48608e-13
-4.4155e-13
-4.30039e-13
-4.20343e-13
-4.17003e-13
-4.1018e-13
-4.01397e-13
-3.92763e-13
-3.8355e-13
-3.78563e-13
-3.73905e-13
-3.66775e-13
-3.58983e-13
-3.50077e-13
-3.43379e-13
-3.36365e-13
-3.31689e-13
-3.25969e-13
-3.20226e-13
-3.12191e-13
-3.04002e-13
-2.9333e-13
-2.84796e-13
-2.78564e-13
-2.73152e-13
-2.67618e-13
-2.58032e-13
-2.49593e-13
-2.40096e-13
-2.33156e-13
-2.26779e-13
-2.22152e-13
-2.18352e-13
-2.10195e-13
-2.02367e-13
-1.93271e-13
-1.79508e-13
-1.68515e-13
-1.59336e-13
-1.56112e-13
-1.52303e-13
-1.44013e-13
-1.37412e-13
-1.26739e-13
-1.18149e-13
-1.07942e-13
-9.72522e-14
-8.8151e-14
-8.31491e-14
-7.79113e-14
-7.29758e-14
-6.44032e-14
-5.73916e-14
-5.30332e-14
-4.58645e-14
-3.76769e-14
-2.90096e-14
-2.10203e-14
-1.45959e-14
-9.24789e-15
-2.30562e-15
5.91995e-16
-6.80858e-13
-6.85256e-13
-6.86557e-13
-6.82339e-13
-6.82056e-13
-6.83139e-13
-6.73678e-13
-6.63753e-13
-6.59705e-13
-6.58005e-13
-6.55683e-13
-6.52954e-13
-6.50069e-13
-6.45582e-13
-6.40535e-13
-6.32386e-13
-6.25934e-13
-6.22284e-13
-6.13804e-13
-5.99264e-13
-5.81471e-13
-5.67721e-13
-5.59849e-13
-5.51494e-13
-5.50232e-13
-5.47628e-13
-5.42214e-13
-5.33727e-13
-5.28391e-13
-5.26081e-13
-5.19272e-13
-5.086e-13
-4.95601e-13
-4.79294e-13
-4.68924e-13
-4.67665e-13
-4.67516e-13
-4.61725e-13
-4.53641e-13
-4.42115e-13
-4.28316e-13
-4.18584e-13
-4.10327e-13
-4.06177e-13
-4.01178e-13
-3.94875e-13
-3.87729e-13
-3.79356e-13
-3.7364e-13
-3.72961e-13
-3.65209e-13
-3.48766e-13
-3.39111e-13
-3.31971e-13
-3.2672e-13
-3.24418e-13
-3.20395e-13
-3.11231e-13
-2.99624e-13
-2.91404e-13
-2.87643e-13
-2.83162e-13
-2.76428e-13
-2.67565e-13
-2.53887e-13
-2.44361e-13
-2.38584e-13
-2.35575e-13
-2.29887e-13
-2.21989e-13
-2.15539e-13
-2.10196e-13
-2.02568e-13
-1.91764e-13
-1.80446e-13
-1.65449e-13
-1.57685e-13
-1.55419e-13
-1.54621e-13
-1.49158e-13
-1.40476e-13
-1.29744e-13
-1.17714e-13
-1.05499e-13
-9.61499e-14
-8.8436e-14
-8.30537e-14
-7.66032e-14
-7.05845e-14
-6.35218e-14
-5.74668e-14
-5.18784e-14
-4.59567e-14
-3.7659e-14
-2.84759e-14
-1.89021e-14
-1.15548e-14
-6.50383e-15
-8.32237e-16
1.41214e-16
-6.79597e-13
-6.87317e-13
-6.87571e-13
-6.83691e-13
-6.80905e-13
-6.85542e-13
-6.82515e-13
-6.698e-13
-6.5341e-13
-6.50503e-13
-6.50025e-13
-6.51708e-13
-6.50579e-13
-6.48636e-13
-6.43358e-13
-6.3356e-13
-6.24371e-13
-6.17455e-13
-6.05852e-13
-5.96774e-13
-5.8877e-13
-5.75843e-13
-5.64198e-13
-5.51349e-13
-5.49766e-13
-5.4743e-13
-5.44137e-13
-5.37973e-13
-5.29695e-13
-5.24894e-13
-5.16283e-13
-5.04478e-13
-4.94632e-13
-4.79619e-13
-4.6739e-13
-4.65358e-13
-4.65734e-13
-4.62253e-13
-4.53275e-13
-4.42971e-13
-4.26467e-13
-4.16765e-13
-4.13784e-13
-4.08691e-13
-4.01238e-13
-3.937e-13
-3.89942e-13
-3.83338e-13
-3.74127e-13
-3.63696e-13
-3.56967e-13
-3.511e-13
-3.42894e-13
-3.30545e-13
-3.3095e-13
-3.27647e-13
-3.19219e-13
-3.13154e-13
-3.06276e-13
-2.93355e-13
-2.85967e-13
-2.80483e-13
-2.71931e-13
-2.64602e-13
-2.54298e-13
-2.4617e-13
-2.36794e-13
-2.33207e-13
-2.26622e-13
-2.24763e-13
-2.17749e-13
-2.12745e-13
-2.05896e-13
-1.92019e-13
-1.77589e-13
-1.65542e-13
-1.60578e-13
-1.56056e-13
-1.5141e-13
-1.45641e-13
-1.39553e-13
-1.30374e-13
-1.18417e-13
-1.06116e-13
-9.89204e-14
-9.0787e-14
-8.3448e-14
-7.68469e-14
-7.09603e-14
-6.21326e-14
-5.5274e-14
-4.96414e-14
-4.23773e-14
-3.42136e-14
-2.78846e-14
-2.28943e-14
-1.05064e-14
-3.18271e-15
1.87436e-15
7.96233e-16
-6.85725e-13
-6.85086e-13
-6.81237e-13
-6.77545e-13
-6.7969e-13
-6.74621e-13
-6.71174e-13
-6.72329e-13
-6.69243e-13
-6.62597e-13
-6.58412e-13
-6.50704e-13
-6.45268e-13
-6.44148e-13
-6.41729e-13
-6.35397e-13
-6.27273e-13
-6.23527e-13
-6.12702e-13
-5.96621e-13
-5.78077e-13
-5.66638e-13
-5.60587e-13
-5.58439e-13
-5.50976e-13
-5.48407e-13
-5.44104e-13
-5.3662e-13
-5.30132e-13
-5.23855e-13
-5.16322e-13
-5.03786e-13
-4.91951e-13
-4.79328e-13
-4.70478e-13
-4.68165e-13
-4.69345e-13
-4.62271e-13
-4.51592e-13
-4.4159e-13
-4.27325e-13
-4.15049e-13
-4.12002e-13
-4.08687e-13
-4.04642e-13
-3.94268e-13
-3.85175e-13
-3.81797e-13
-3.77211e-13
-3.66449e-13
-3.56307e-13
-3.51144e-13
-3.44729e-13
-3.33667e-13
-3.26436e-13
-3.23047e-13
-3.16846e-13
-3.12129e-13
-3.07141e-13
-2.98536e-13
-2.88086e-13
-2.80819e-13
-2.7148e-13
-2.64226e-13
-2.57505e-13
-2.4747e-13
-2.37081e-13
-2.28199e-13
-2.23925e-13
-2.25356e-13
-2.16902e-13
-2.11225e-13
-2.04405e-13
-1.92697e-13
-1.81115e-13
-1.6887e-13
-1.57663e-13
-1.51699e-13
-1.50969e-13
-1.50478e-13
-1.43596e-13
-1.28992e-13
-1.17092e-13
-1.03869e-13
-9.87735e-14
-9.30183e-14
-8.57172e-14
-7.54899e-14
-6.67742e-14
-6.10405e-14
-5.53337e-14
-4.87203e-14
-4.36511e-14
-3.59484e-14
-2.70352e-14
-1.87164e-14
-1.09086e-14
-4.5321e-15
1.69924e-15
2.22095e-15
-6.85114e-13
-6.84131e-13
-6.81473e-13
-6.79007e-13
-6.85187e-13
-6.82804e-13
-6.7171e-13
-6.65586e-13
-6.61746e-13
-6.59653e-13
-6.58877e-13
-6.57718e-13
-6.4732e-13
-6.39884e-13
-6.37486e-13
-6.3295e-13
-6.29217e-13
-6.21938e-13
-6.1046e-13
-5.94636e-13
-5.81309e-13
-5.68297e-13
-5.59102e-13
-5.58658e-13
-5.57604e-13
-5.48421e-13
-5.41075e-13
-5.36817e-13
-5.33904e-13
-5.26343e-13
-5.1832e-13
-5.05017e-13
-4.91459e-13
-4.78373e-13
-4.67137e-13
-4.66476e-13
-4.63997e-13
-4.61103e-13
-4.55409e-13
-4.44807e-13
-4.30199e-13
-4.19064e-13
-4.1202e-13
-4.03091e-13
-4.0137e-13
-3.95326e-13
-3.88084e-13
-3.78959e-13
-3.72718e-13
-3.66797e-13
-3.57019e-13
-3.51043e-13
-3.44247e-13
-3.34915e-13
-3.32164e-13
-3.27157e-13
-3.15493e-13
-3.06418e-13
-3.03557e-13
-2.96478e-13
-2.89737e-13
-2.80351e-13
-2.73171e-13
-2.66323e-13
-2.57411e-13
-2.45786e-13
-2.38821e-13
-2.28869e-13
-2.20719e-13
-2.1925e-13
-2.16415e-13
-2.1228e-13
-2.06163e-13
-1.93182e-13
-1.80375e-13
-1.69188e-13
-1.60599e-13
-1.53774e-13
-1.53241e-13
-1.49067e-13
-1.40981e-13
-1.30074e-13
-1.18569e-13
-1.06109e-13
-9.7633e-14
-8.82342e-14
-8.15089e-14
-7.73496e-14
-7.11268e-14
-6.12632e-14
-5.44696e-14
-4.74996e-14
-4.07175e-14
-3.35307e-14
-2.54284e-14
-1.9997e-14
-1.25572e-14
-3.1349e-15
2.16113e-15
4.27215e-16
-6.80464e-13
-6.83008e-13
-6.83089e-13
-6.8158e-13
-6.80314e-13
-6.75044e-13
-6.71252e-13
-6.68384e-13
-6.6744e-13
-6.64578e-13
-6.60207e-13
-6.56403e-13
-6.50167e-13
-6.42036e-13
-6.36463e-13
-6.29943e-13
-6.27241e-13
-6.20361e-13
-6.08612e-13
-5.96986e-13
-5.81938e-13
-5.69374e-13
-5.63949e-13
-5.59265e-13
-5.5086e-13
-5.4651e-13
-5.44804e-13
-5.40623e-13
-5.33155e-13
-5.22603e-13
-5.13932e-13
-5.03748e-13
-4.91007e-13
-4.7926e-13
-4.70058e-13
-4.71289e-13
-4.70588e-13
-4.62375e-13
-4.51109e-13
-4.37732e-13
-4.27436e-13
-4.21861e-13
-4.1354e-13
-4.03745e-13
-3.98635e-13
-3.9188e-13
-3.89944e-13
-3.87924e-13
-3.76902e-13
-3.63253e-13
-3.54522e-13
-3.5192e-13
-3.45008e-13
-3.34448e-13
-3.30251e-13
-3.26077e-13
-3.18737e-13
-3.09269e-13
-3.01738e-13
-2.94626e-13
-2.91991e-13
-2.83417e-13
-2.73915e-13
-2.65224e-13
-2.53939e-13
-2.45351e-13
-2.36733e-13
-2.30223e-13
-2.22194e-13
-2.17486e-13
-2.12707e-13
-2.12648e-13
-2.07335e-13
-1.93569e-13
-1.80534e-13
-1.69388e-13
-1.62776e-13
-1.56783e-13
-1.48912e-13
-1.40829e-13
-1.42781e-13
-1.36376e-13
-1.19872e-13
-1.07105e-13
-9.72143e-14
-8.67112e-14
-7.96169e-14
-7.6654e-14
-7.07961e-14
-6.15292e-14
-5.35293e-14
-4.81529e-14
-4.12329e-14
-3.23415e-14
-2.75731e-14
-1.8588e-14
-9.60838e-15
-1.93476e-15
2.89756e-15
-1.07748e-18
-6.86814e-13
-6.84205e-13
-6.81912e-13
-6.79286e-13
-6.75066e-13
-6.7312e-13
-6.70678e-13
-6.7069e-13
-6.68849e-13
-6.65583e-13
-6.59475e-13
-6.5576e-13
-6.50469e-13
-6.45016e-13
-6.38279e-13
-6.28914e-13
-6.19402e-13
-6.134e-13
-6.08524e-13
-6.01159e-13
-5.84859e-13
-5.73147e-13
-5.64514e-13
-5.57296e-13
-5.52794e-13
-5.48632e-13
-5.45442e-13
-5.41426e-13
-5.31311e-13
-5.24903e-13
-5.15059e-13
-5.03108e-13
-4.89422e-13
-4.77133e-13
-4.72367e-13
-4.71018e-13
-4.67556e-13
-4.60656e-13
-4.50442e-13
-4.39372e-13
-4.27867e-13
-4.19255e-13
-4.1422e-13
-4.0786e-13
-4.02492e-13
-3.96032e-13
-3.86501e-13
-3.79723e-13
-3.75455e-13
-3.67077e-13
-3.60719e-13
-3.51826e-13
-3.43135e-13
-3.3534e-13
-3.29013e-13
-3.21417e-13
-3.1764e-13
-3.11178e-13
-3.02047e-13
-2.95307e-13
-2.92493e-13
-2.85739e-13
-2.74841e-13
-2.63623e-13
-2.54896e-13
-2.4593e-13
-2.36431e-13
-2.28909e-13
-2.22461e-13
-2.17733e-13
-2.14871e-13
-2.13524e-13
-2.06138e-13
-1.91109e-13
-1.79623e-13
-1.69626e-13
-1.6233e-13
-1.55635e-13
-1.51662e-13
-1.46665e-13
-1.39706e-13
-1.31288e-13
-1.20847e-13
-1.10015e-13
-1.01983e-13
-8.76552e-14
-7.86439e-14
-7.37047e-14
-7.01207e-14
-5.88291e-14
-5.11846e-14
-4.75396e-14
-4.49204e-14
-3.36131e-14
-2.33179e-14
-1.76487e-14
-1.08202e-14
-9.26457e-17
1.41944e-15
-9.94709e-16
-6.89302e-13
-6.83492e-13
-6.78012e-13
-6.78446e-13
-6.7174e-13
-6.72953e-13
-6.71035e-13
-6.7208e-13
-6.72082e-13
-6.63947e-13
-6.58866e-13
-6.5682e-13
-6.54995e-13
-6.46818e-13
-6.3849e-13
-6.31788e-13
-6.24059e-13
-6.13698e-13
-6.0695e-13
-5.94949e-13
-5.85039e-13
-5.73512e-13
-5.61953e-13
-5.55532e-13
-5.51593e-13
-5.52061e-13
-5.46137e-13
-5.40105e-13
-5.31396e-13
-5.2385e-13
-5.15563e-13
-5.04989e-13
-4.89713e-13
-4.79252e-13
-4.70744e-13
-4.67211e-13
-4.66278e-13
-4.61162e-13
-4.50935e-13
-4.39561e-13
-4.3098e-13
-4.21728e-13
-4.13204e-13
-4.06651e-13
-4.0062e-13
-3.94177e-13
-3.8678e-13
-3.81956e-13
-3.77254e-13
-3.68051e-13
-3.57818e-13
-3.48153e-13
-3.426e-13
-3.37496e-13
-3.31861e-13
-3.2593e-13
-3.18691e-13
-3.09835e-13
-3.04165e-13
-2.9944e-13
-2.94194e-13
-2.84692e-13
-2.7115e-13
-2.61916e-13
-2.53498e-13
-2.44538e-13
-2.3502e-13
-2.29787e-13
-2.22514e-13
-2.21164e-13
-2.16009e-13
-2.09875e-13
-2.0031e-13
-1.89056e-13
-1.78495e-13
-1.68124e-13
-1.659e-13
-1.62582e-13
-1.52992e-13
-1.43912e-13
-1.36909e-13
-1.29269e-13
-1.19867e-13
-1.08927e-13
-9.74153e-14
-8.51147e-14
-7.99677e-14
-7.59255e-14
-6.90131e-14
-6.39805e-14
-5.81088e-14
-4.74502e-14
-3.87381e-14
-3.18506e-14
-2.32199e-14
-1.50952e-14
-8.75525e-15
-5.22291e-15
-1.75606e-15
-1.36471e-15
-6.8721e-13
-6.81965e-13
-6.80046e-13
-6.78139e-13
-6.75587e-13
-6.72673e-13
-6.68582e-13
-6.71236e-13
-6.71491e-13
-6.67616e-13
-6.61889e-13
-6.5618e-13
-6.54217e-13
-6.45609e-13
-6.35759e-13
-6.2659e-13
-6.18389e-13
-6.141e-13
-6.08e-13
-5.97806e-13
-5.86518e-13
-5.75116e-13
-5.64403e-13
-5.5911e-13
-5.56617e-13
-5.50097e-13
-5.43004e-13
-5.3481e-13
-5.27495e-13
-5.23815e-13
-5.16218e-13
-5.09266e-13
-4.97571e-13
-4.85827e-13
-4.69468e-13
-4.6392e-13
-4.61914e-13
-4.576e-13
-4.49903e-13
-4.3943e-13
-4.32659e-13
-4.22053e-13
-4.15554e-13
-4.05262e-13
-4.00978e-13
-3.95081e-13
-3.90708e-13
-3.83254e-13
-3.73682e-13
-3.61594e-13
-3.56758e-13
-3.53122e-13
-3.46101e-13
-3.34023e-13
-3.27363e-13
-3.21217e-13
-3.14109e-13
-3.12546e-13
-3.05381e-13
-3.03154e-13
-3.02437e-13
-2.82216e-13
-2.69613e-13
-2.63832e-13
-2.56207e-13
-2.46898e-13
-2.37378e-13
-2.30813e-13
-2.20372e-13
-2.15884e-13
-2.11902e-13
-2.1244e-13
-2.04806e-13
-1.92199e-13
-1.76433e-13
-1.64322e-13
-1.65399e-13
-1.61339e-13
-1.52853e-13
-1.46816e-13
-1.39086e-13
-1.29839e-13
-1.18396e-13
-1.07395e-13
-9.83642e-14
-8.66682e-14
-7.93888e-14
-7.61321e-14
-6.99705e-14
-5.99018e-14
-5.25858e-14
-4.72283e-14
-3.92947e-14
-3.15322e-14
-2.67954e-14
-2.08088e-14
-8.9704e-15
-2.08867e-15
2.91089e-15
-9.14817e-17
-6.82114e-13
-6.84161e-13
-6.83871e-13
-6.78075e-13
-6.73315e-13
-6.73801e-13
-6.72388e-13
-6.68848e-13
-6.6975e-13
-6.66683e-13
-6.63625e-13
-6.59875e-13
-6.52861e-13
-6.44372e-13
-6.36683e-13
-6.3009e-13
-6.25653e-13
-6.20948e-13
-6.10322e-13
-5.95802e-13
-5.78911e-13
-5.65935e-13
-5.61645e-13
-5.61241e-13
-5.57532e-13
-5.4943e-13
-5.40244e-13
-5.35169e-13
-5.27711e-13
-5.2498e-13
-5.20045e-13
-5.06126e-13
-4.92815e-13
-4.83763e-13
-4.753e-13
-4.69568e-13
-4.6403e-13
-4.56333e-13
-4.49164e-13
-4.40754e-13
-4.30882e-13
-4.21142e-13
-4.12199e-13
-4.07401e-13
-4.05706e-13
-3.96602e-13
-3.88381e-13
-3.77294e-13
-3.7473e-13
-3.67658e-13
-3.56431e-13
-3.51677e-13
-3.45368e-13
-3.37144e-13
-3.30387e-13
-3.18096e-13
-3.07561e-13
-3.10678e-13
-3.13414e-13
-3.04815e-13
-2.95039e-13
-2.84264e-13
-2.73015e-13