/*--------------------------------*- C++ -*----------------------------------*\
| =========                 |                                                 |
| \\      /  F ield         | OpenFOAM: The Open Source CFD Toolbox           |
|  \\    /   O peration     | Version:  v2012                                 |
|   \\  /    A nd           | Website:  www.openfoam.com                      |
|    \\/     M anipulation  |                                                 |
\*---------------------------------------------------------------------------*/
FoamFile
{
    version     2.0;
    format      ascii;
    class       surfaceScalarField;
    location    "14.25";
    object      phi;
}
// * * * * * * * * * * * * * * * * * * * * * * * * * * * * * * * * * * * * * //

dimensions      [0 3 -1 0 0 0 0];
oriented        oriented;


internalField   nonuniform List<scalar> 
130560
(
3.45555e-06
-3.45555e-06
6.91131e-06
-3.45576e-06
1.03675e-05
-3.45619e-06
1.38243e-05
-3.45683e-06
1.7282e-05
-3.45768e-06
2.07408e-05
-3.45874e-06
2.42008e-05
-3.46e-06
2.76622e-05
-3.46147e-06
3.11254e-05
-3.46313e-06
3.45904e-05
-3.46499e-06
3.80574e-05
-3.46704e-06
4.15267e-05
-3.46927e-06
4.49983e-05
-3.47168e-06
4.84726e-05
-3.47426e-06
5.19496e-05
-3.477e-06
5.54295e-05
-3.4799e-06
5.89124e-05
-3.48294e-06
6.23986e-05
-3.48613e-06
6.5888e-05
-3.48944e-06
6.93809e-05
-3.49286e-06
7.28773e-05
-3.4964e-06
7.63773e-05
-3.50003e-06
7.9881e-05
-3.50374e-06
8.33885e-05
-3.50752e-06
8.68999e-05
-3.51135e-06
9.04151e-05
-3.51522e-06
9.39342e-05
-3.51912e-06
9.74573e-05
-3.52303e-06
0.000100984
-3.52693e-06
0.000104515
-3.53081e-06
0.00010805
-3.53464e-06
0.000111588
-3.53841e-06
0.00011513
-3.54209e-06
0.000118676
-3.54567e-06
0.000122225
-3.54913e-06
0.000125777
-3.55244e-06
0.000129333
-3.55557e-06
0.000132891
-3.55852e-06
0.000136453
-3.56124e-06
0.000140016
-3.56372e-06
0.000143582
-3.56592e-06
0.00014715
-3.56783e-06
0.00015072
-3.56941e-06
0.00015429
-3.57063e-06
0.000157862
-3.57147e-06
0.000161434
-3.57189e-06
0.000165005
-3.57186e-06
0.000168577
-3.57135e-06
0.000172147
-3.57033e-06
0.000175716
-3.56877e-06
0.000179283
-3.56662e-06
0.000182846
-3.56386e-06
0.000186407
-3.56045e-06
0.000189963
-3.55635e-06
0.000193515
-3.55153e-06
0.000197061
-3.54594e-06
0.0002006
-3.53956e-06
0.000204133
-3.53235e-06
0.000207657
-3.52426e-06
0.000211172
-3.51525e-06
0.000214677
-3.5053e-06
0.000218172
-3.49435e-06
0.000221654
-3.48238e-06
0.000225123
-3.46934e-06
0.000228579
-3.4552e-06
0.000232019
-3.43991e-06
0.000235442
-3.42344e-06
0.000238848
-3.40574e-06
0.000242235
-3.3868e-06
0.000245601
-3.36655e-06
0.000248946
-3.34498e-06
0.000252268
-3.32205e-06
0.000255566
-3.29771e-06
0.000258838
-3.27195e-06
0.000262082
-3.24472e-06
0.000265298
-3.216e-06
0.000268484
-3.18576e-06
0.000271638
-3.15397e-06
0.000274759
-3.12061e-06
0.000277844
-3.08565e-06
0.000280894
-3.04907e-06
0.000283904
-3.01085e-06
0.000286875
-2.97098e-06
0.000289805
-2.92943e-06
0.000292691
-2.8862e-06
0.000295532
-2.84128e-06
0.000298327
-2.79465e-06
0.000301073
-2.74632e-06
0.00030377
-2.69629e-06
0.000306414
-2.64454e-06
0.000309005
-2.5911e-06
0.000311541
-2.53595e-06
0.00031402
-2.47913e-06
0.000316441
-2.42063e-06
0.000318801
-2.36049e-06
0.0003211
-2.2987e-06
0.000323335
-2.23531e-06
0.000325506
-2.17034e-06
0.00032761
-2.10381e-06
0.000329645
-2.03577e-06
0.000331612
-1.96624e-06
0.000333507
-1.89527e-06
0.00033533
-1.82291e-06
0.000337079
-1.74919e-06
0.000338753
-1.67417e-06
0.000340351
-1.5979e-06
0.000341871
-1.52044e-06
0.000343313
-1.44185e-06
0.000344675
-1.36218e-06
0.000345957
-1.28149e-06
0.000347157
-1.19987e-06
0.000348274
-1.11737e-06
0.000349308
-1.03406e-06
0.000350258
-9.50014e-07
0.000351124
-8.6531e-07
0.000351904
-7.8002e-07
0.000352598
-6.94222e-07
0.000353206
-6.07991e-07
0.000353727
-5.21407e-07
0.000354162
-4.3455e-07
0.000354509
-3.47498e-07
0.00035477
-2.60331e-07
0.000354943
-1.7313e-07
0.000355029
-8.59741e-08
0.000355028
1.05784e-09
0.00035494
8.78869e-08
0.000354765
1.74435e-07
0.000354505
2.60626e-07
0.000354158
3.46383e-07
0.000353727
4.31633e-07
0.00035321
5.16303e-07
0.00035261
6.00322e-07
0.000351926
6.8362e-07
0.00035116
7.66132e-07
0.000350313
8.47792e-07
0.000349384
9.28538e-07
0.000348376
1.00831e-06
0.000347289
1.08705e-06
0.000346124
1.16471e-06
0.000344883
1.24122e-06
0.000343566
1.31655e-06
0.000342175
1.39065e-06
0.000340712
1.46347e-06
0.000339177
1.53497e-06
0.000337572
1.60512e-06
0.000335898
1.67388e-06
0.000334157
1.74122e-06
0.00033235
1.80711e-06
0.000330478
1.87153e-06
0.000328544
1.93445e-06
0.000326548
1.99586e-06
0.000324492
2.05574e-06
0.000322378
2.11407e-06
0.000320207
2.17085e-06
0.000317981
2.22606e-06
0.000315701
2.2797e-06
0.00031337
2.33178e-06
0.000310987
2.38228e-06
0.000308556
2.43121e-06
0.000306078
2.47857e-06
0.000303553
2.52437e-06
0.000300985
2.56863e-06
0.000298373
2.61134e-06
0.000295721
2.65253e-06
0.000293029
2.69221e-06
0.000290298
2.73039e-06
0.000287531
2.76709e-06
0.000284729
2.80233e-06
0.000281893
2.83614e-06
0.000279024
2.86853e-06
0.000276125
2.89953e-06
0.000273195
2.92916e-06
0.000270238
2.95744e-06
0.000267254
2.98441e-06
0.000264243
3.01009e-06
0.000261209
3.03452e-06
0.000258151
3.0577e-06
0.000255072
3.07969e-06
0.000251971
3.1005e-06
0.000248851
3.12017e-06
0.000245712
3.13873e-06
0.000242556
3.15621e-06
0.000239383
3.17263e-06
0.000236195
3.18804e-06
0.000232993
3.20245e-06
0.000229777
3.21591e-06
0.000226548
3.22845e-06
0.000223308
3.24009e-06
0.000220058
3.25086e-06
0.000216797
3.2608e-06
0.000213527
3.26994e-06
0.000210248
3.27831e-06
0.000206963
3.28593e-06
0.00020367
3.29285e-06
0.000200371
3.29907e-06
0.000197066
3.30465e-06
0.000193756
3.3096e-06
0.000190442
3.31395e-06
0.000187125
3.31773e-06
0.000183804
3.32097e-06
0.00018048
3.32369e-06
0.000177154
3.32592e-06
0.000173826
3.32769e-06
0.000170497
3.32902e-06
0.000167167
3.32993e-06
0.000163837
3.33045e-06
0.000160506
3.33061e-06
0.000157176
3.33042e-06
0.000153846
3.32991e-06
0.000150517
3.32909e-06
0.000147189
3.328e-06
0.000143862
3.32665e-06
0.000140537
3.32506e-06
0.000137214
3.32325e-06
0.000133893
3.32124e-06
0.000130574
3.31905e-06
0.000127257
3.31669e-06
0.000123943
3.31419e-06
0.000120631
3.31156e-06
0.000117322
3.30881e-06
0.000114016
3.30596e-06
0.000110713
3.30303e-06
0.000107413
3.30004e-06
0.000104116
3.29698e-06
0.000100823
3.29389e-06
9.75318e-05
3.29076e-06
9.42442e-05
3.28762e-06
9.09597e-05
3.28448e-06
8.76783e-05
3.28134e-06
8.44001e-05
3.27822e-06
8.1125e-05
3.27514e-06
7.78529e-05
3.27209e-06
7.45838e-05
3.26909e-06
7.13177e-05
3.26614e-06
6.80544e-05
3.26327e-06
6.47939e-05
3.26047e-06
6.15362e-05
3.25775e-06
5.8281e-05
3.25513e-06
5.50284e-05
3.2526e-06
5.17783e-05
3.25018e-06
4.85304e-05
3.24786e-06
4.52847e-05
3.24567e-06
4.20411e-05
3.24359e-06
3.87995e-05
3.24165e-06
3.55597e-05
3.23983e-06
3.23215e-05
3.23815e-06
2.90849e-05
3.23661e-06
2.58497e-05
3.23522e-06
2.26157e-05
3.23397e-06
1.93828e-05
3.23287e-06
1.61509e-05
3.23193e-06
1.29198e-05
3.23114e-06
9.68928e-06
3.2305e-06
6.45925e-06
3.23002e-06
3.22955e-06
3.22971e-06
3.22955e-06
3.45534e-06
-6.91089e-06
6.9109e-06
-6.91132e-06
1.03669e-05
-6.91218e-06
1.38235e-05
-6.91346e-06
1.7281e-05
-6.91516e-06
2.07395e-05
-6.91728e-06
2.41993e-05
-6.91981e-06
2.76606e-05
-6.92274e-06
3.11235e-05
-6.92607e-06
3.45883e-05
-6.9298e-06
3.80552e-05
-6.9339e-06
4.15243e-05
-6.93836e-06
4.49958e-05
-6.94319e-06
4.84699e-05
-6.94835e-06
5.19467e-05
-6.95385e-06
5.54265e-05
-6.95965e-06
5.89093e-05
-6.96575e-06
6.23953e-05
-6.97213e-06
6.58846e-05
-6.97876e-06
6.93774e-05
-6.98562e-06
7.28737e-05
-6.9927e-06
7.63736e-05
-6.99997e-06
7.98773e-05
-7.00741e-06
8.33848e-05
-7.01498e-06
8.68961e-05
-7.02266e-06
9.04113e-05
-7.03043e-06
9.39304e-05
-7.03824e-06
9.74534e-05
-7.04607e-06
0.00010098
-7.05389e-06
0.000104511
-7.06166e-06
0.000108046
-7.06934e-06
0.000111584
-7.0769e-06
0.000115127
-7.08429e-06
0.000118672
-7.09147e-06
0.000122222
-7.09841e-06
0.000125774
-7.10505e-06
0.00012933
-7.11134e-06
0.000132889
-7.11725e-06
0.00013645
-7.12273e-06
0.000140014
-7.12771e-06
0.000143581
-7.13215e-06
0.000147149
-7.13599e-06
0.000150718
-7.13917e-06
0.000154289
-7.14165e-06
0.000157861
-7.14335e-06
0.000161434
-7.14423e-06
0.000165006
-7.1442e-06
0.000168578
-7.14322e-06
0.000172149
-7.14122e-06
0.000175718
-7.13812e-06
0.000179285
-7.13386e-06
0.00018285
-7.12837e-06
0.000186411
-7.12158e-06
0.000189968
-7.11342e-06
0.00019352
-7.10381e-06
0.000197067
-7.09269e-06
0.000200608
-7.07996e-06
0.000204141
-7.06557e-06
0.000207666
-7.04942e-06
0.000211182
-7.03146e-06
0.000214688
-7.01159e-06
0.000218184
-6.98974e-06
0.000221667
-6.96583e-06
0.000225138
-6.93979e-06
0.000228594
-6.91154e-06
0.000232035
-6.881e-06
0.00023546
-6.84809e-06
0.000238867
-6.81275e-06
0.000242255
-6.77488e-06
0.000245623
-6.73443e-06
0.000248969
-6.69133e-06
0.000252293
-6.64549e-06
0.000255592
-6.59685e-06
0.000258865
-6.54536e-06
0.000262111
-6.49093e-06
0.000265329
-6.43353e-06
0.000268516
-6.37307e-06
0.000271672
-6.30952e-06
0.000274794
-6.24282e-06
0.000277881
-6.17292e-06
0.000280932
-6.09978e-06
0.000283944
-6.02336e-06
0.000286917
-5.94362e-06
0.000289848
-5.86055e-06
0.000292736
-5.7741e-06
0.000295579
-5.68426e-06
0.000298375
-5.59101e-06
0.000301123
-5.49435e-06
0.000303821
-5.39428e-06
0.000306468
-5.29078e-06
0.00030906
-5.18388e-06
0.000311598
-5.07359e-06
0.000314079
-4.95993e-06
0.000316501
-4.84292e-06
0.000318863
-4.7226e-06
0.000321164
-4.59901e-06
0.0003234
-4.4722e-06
0.000325572
-4.34222e-06
0.000327678
-4.20914e-06
0.000329715
-4.07301e-06
0.000331683
-3.93392e-06
0.000333579
-3.79194e-06
0.000335404
-3.64716e-06
0.000337154
-3.49968e-06
0.000338829
-3.34959e-06
0.000340429
-3.197e-06
0.00034195
-3.04202e-06
0.000343393
-2.88476e-06
0.000344756
-2.72536e-06
0.000346039
-2.56393e-06
0.000347239
-2.40061e-06
0.000348358
-2.23554e-06
0.000349392
-2.06885e-06
0.000350343
-1.90068e-06
0.000351209
-1.7312e-06
0.000351989
-1.56055e-06
0.000352684
-1.38887e-06
0.000353292
-1.21633e-06
0.000353814
-1.04308e-06
0.000354249
-8.6929e-07
0.000354596
-6.95106e-07
0.000354857
-5.20693e-07
0.00035503
-3.46211e-07
0.000355116
-1.71819e-07
0.000355114
2.323e-09
0.000355026
1.76059e-07
0.000354851
3.49232e-07
0.00035459
5.21689e-07
0.000354244
6.93278e-07
0.000353811
8.6385e-07
0.000353294
1.03326e-06
0.000352693
1.20137e-06
0.000352009
1.36803e-06
0.000351242
1.53312e-06
0.000350393
1.6965e-06
0.000349464
1.85805e-06
0.000348454
2.01766e-06
0.000347366
2.17519e-06
0.0003462
2.33055e-06
0.000344958
2.48363e-06
0.00034364
2.63434e-06
0.000342248
2.78257e-06
0.000340783
2.92825e-06
0.000339247
3.0713e-06
0.000337641
3.21163e-06
0.000335965
3.34918e-06
0.000334223
3.48389e-06
0.000332414
3.6157e-06
0.000330541
3.74456e-06
0.000328605
3.87042e-06
0.000326608
3.99325e-06
0.00032455
4.11302e-06
0.000322435
4.2297e-06
0.000320262
4.34326e-06
0.000318035
4.45369e-06
0.000315753
4.56098e-06
0.00031342
4.66512e-06
0.000311036
4.76612e-06
0.000308603
4.86398e-06
0.000306123
4.9587e-06
0.000303597
5.0503e-06
0.000301027
5.1388e-06
0.000298414
5.22422e-06
0.00029576
5.30658e-06
0.000293067
5.38591e-06
0.000290335
5.46226e-06
0.000287566
5.53564e-06
0.000284762
5.60611e-06
0.000281925
5.67369e-06
0.000279055
5.73845e-06
0.000276154
5.80042e-06
0.000273224
5.85965e-06
0.000270265
5.9162e-06
0.000267279
5.97011e-06
0.000264268
6.02145e-06
0.000261232
6.07026e-06
0.000258173
6.11661e-06
0.000255092
6.16055e-06
0.000251991
6.20215e-06
0.000248869
6.24146e-06
0.000245729
6.27854e-06
0.000242572
6.31346e-06
0.000239399
6.34628e-06
0.00023621
6.37706e-06
0.000233006
6.40586e-06
0.000229789
6.43275e-06
0.00022656
6.45779e-06
0.000223319
6.48103e-06
0.000220067
6.50255e-06
0.000216806
6.52241e-06
0.000213535
6.54065e-06
0.000210256
6.55736e-06
0.000206969
6.57258e-06
0.000203676
6.58637e-06
0.000200376
6.5988e-06
0.000197071
6.60992e-06
0.000193761
6.61979e-06
0.000190446
6.62847e-06
0.000187128
6.636e-06
0.000183806
6.64245e-06
0.000180482
6.64787e-06
0.000177156
6.65231e-06
0.000173828
6.65582e-06
0.000170498
6.65845e-06
0.000167168
6.66025e-06
0.000163837
6.66127e-06
0.000160506
6.66156e-06
0.000157175
6.66116e-06
0.000153845
6.66011e-06
0.000150516
6.65846e-06
0.000147188
6.65626e-06
0.000143861
6.65354e-06
0.000140535
6.65034e-06
0.000137212
6.6467e-06
0.00013389
6.64266e-06
0.000130571
6.63826e-06
0.000127254
6.63353e-06
0.00012394
6.62851e-06
0.000120628
6.62323e-06
0.00011732
6.61772e-06
0.000114013
6.61201e-06
0.00011071
6.60614e-06
0.00010741
6.60012e-06
0.000104113
6.594e-06
0.000100819
6.5878e-06
9.75286e-05
6.58154e-06
9.4241e-05
6.57525e-06
9.09565e-05
6.56895e-06
8.76752e-05
6.56266e-06
8.4397e-05
6.55642e-06
8.11219e-05
6.55023e-06
7.78498e-05
6.54412e-06
7.45808e-05
6.53811e-06
7.13147e-05
6.53222e-06
6.80516e-05
6.52646e-06
6.47912e-05
6.52085e-06
6.15335e-05
6.51541e-06
5.82785e-05
6.51015e-06
5.5026e-05
6.50509e-06
5.17759e-05
6.50024e-06
4.85282e-05
6.49561e-06
4.52826e-05
6.49121e-06
4.20392e-05
6.48706e-06
3.87977e-05
6.48316e-06
3.5558e-05
6.47952e-06
3.232e-05
6.47616e-06
2.90835e-05
6.47308e-06
2.58484e-05
6.47029e-06
2.26146e-05
6.46779e-06
1.93819e-05
6.46559e-06
1.61501e-05
6.4637e-06
1.29191e-05
6.46211e-06
9.6888e-06
6.46084e-06
6.45893e-06
6.45989e-06
3.22939e-06
6.45925e-06
6.45893e-06
3.45491e-06
-1.03658e-05
6.91004e-06
-1.03664e-05
1.03656e-05
-1.03677e-05
1.38218e-05
-1.03697e-05
1.72789e-05
-1.03722e-05
2.0737e-05
-1.03754e-05
2.41964e-05
-1.03792e-05
2.76572e-05
-1.03836e-05
3.11198e-05
-1.03886e-05
3.45842e-05
-1.03942e-05
3.80507e-05
-1.04004e-05
4.15195e-05
-1.04071e-05
4.49906e-05
-1.04144e-05
4.84644e-05
-1.04221e-05
5.19409e-05
-1.04304e-05
5.54204e-05
-1.04391e-05
5.89029e-05
-1.04483e-05
6.23887e-05
-1.04579e-05
6.58777e-05
-1.04678e-05
6.93703e-05
-1.04782e-05
7.28664e-05
-1.04888e-05
7.63662e-05
-1.04998e-05
7.98697e-05
-1.05109e-05
8.33771e-05
-1.05223e-05
8.68883e-05
-1.05339e-05
9.04034e-05
-1.05456e-05
9.39225e-05
-1.05573e-05
9.74456e-05
-1.05691e-05
0.000100973
-1.05809e-05
0.000104504
-1.05926e-05
0.000108038
-1.06042e-05
0.000111577
-1.06156e-05
0.000115119
-1.06267e-05
0.000118665
-1.06375e-05
0.000122215
-1.0648e-05
0.000125768
-1.0658e-05
0.000129324
-1.06675e-05
0.000132883
-1.06764e-05
0.000136445
-1.06847e-05
0.00014001
-1.06922e-05
0.000143577
-1.0699e-05
0.000147145
-1.07048e-05
0.000150716
-1.07097e-05
0.000154288
-1.07134e-05
0.00015786
-1.07161e-05
0.000161434
-1.07175e-05
0.000165007
-1.07175e-05
0.00016858
-1.07161e-05
0.000172152
-1.07132e-05
0.000175722
-1.07086e-05
0.000179291
-1.07023e-05
0.000182857
-1.06942e-05
0.000186419
-1.06841e-05
0.000189978
-1.06719e-05
0.000193532
-1.06576e-05
0.00019708
-1.0641e-05
0.000200622
-1.0622e-05
0.000204157
-1.06005e-05
0.000207684
-1.05764e-05
0.000211202
-1.05496e-05
0.00021471
-1.05199e-05
0.000218208
-1.04872e-05
0.000221693
-1.04514e-05
0.000225166
-1.04125e-05
0.000228625
-1.03702e-05
0.000232068
-1.03245e-05
0.000235495
-1.02752e-05
0.000238905
-1.02223e-05
0.000242295
-1.01656e-05
0.000245666
-1.0105e-05
0.000249015
-1.00404e-05
0.000252341
-9.97173e-06
0.000255643
-9.89886e-06
0.00025892
-9.82169e-06
0.000262169
-9.74014e-06
0.000265389
-9.65409e-06
0.00026858
-9.56348e-06
0.000271738
-9.46822e-06
0.000274864
-9.36822e-06
0.000277954
-9.26343e-06
0.000281008
-9.15377e-06
0.000284024
-9.03918e-06
0.000287
-8.91962e-06
0.000289935
-8.79503e-06
0.000292826
-8.66538e-06
0.000295672
-8.53064e-06
0.000298472
-8.39078e-06
0.000301223
-8.2458e-06
0.000303925
-8.09568e-06
0.000306575
-7.94043e-06
0.000309171
-7.78006e-06
0.000311712
-7.6146e-06
0.000314196
-7.44407e-06
0.000316621
-7.26851e-06
0.000318987
-7.08799e-06
0.00032129
-6.90254e-06
0.00032353
-6.71226e-06
0.000325705
-6.51722e-06
0.000327814
-6.31751e-06
0.000329854
-6.11322e-06
0.000331825
-5.90448e-06
0.000333724
-5.69141e-06
0.000335551
-5.47412e-06
0.000337304
-5.25277e-06
0.000338982
-5.02751e-06
0.000340584
-4.79848e-06
0.000342107
-4.56586e-06
0.000343552
-4.32983e-06
0.000344918
-4.09056e-06
0.000346202
-3.84826e-06
0.000347404
-3.60311e-06
0.000348524
-3.35532e-06
0.00034956
-3.1051e-06
0.000350512
-2.85268e-06
0.00035138
-2.59827e-06
0.000352161
-2.34209e-06
0.000352857
-2.08438e-06
0.000353466
-1.82538e-06
0.000353988
-1.56531e-06
0.000354423
-1.30442e-06
0.000354771
-1.04294e-06
0.000355031
-7.81125e-07
0.000355204
-5.19202e-07
0.00035529
-2.57417e-07
0.000355288
3.99391e-09
0.000355199
2.64792e-07
0.000355024
5.24745e-07
0.000354762
7.83619e-07
0.000354414
1.04119e-06
0.000353981
1.29723e-06
0.000353462
1.55152e-06
0.00035286
1.80385e-06
0.000352174
2.05402e-06
0.000351405
2.30181e-06
0.000350555
2.54704e-06
0.000349623
2.78952e-06
0.000348612
3.02906e-06
0.000347522
3.26551e-06
0.000346353
3.49868e-06
0.000345109
3.72842e-06
0.000343788
3.9546e-06
0.000342394
4.17706e-06
0.000340927
4.39568e-06
0.000339387
4.61033e-06
0.000337778
4.82092e-06
0.0003361
5.02732e-06
0.000334354
5.22945e-06
0.000332543
5.42723e-06
0.000330667
5.62058e-06
0.000328728
5.80942e-06
0.000326727
5.99371e-06
0.000324667
6.1734e-06
0.000322548
6.34844e-06
0.000320373
6.5188e-06
0.000318142
6.68446e-06
0.000315858
6.8454e-06
0.000313521
7.00162e-06
0.000311134
7.15311e-06
0.000308698
7.29988e-06
0.000306215
7.44195e-06
0.000303686
7.57933e-06
0.000301113
7.71205e-06
0.000298497
7.84014e-06
0.00029584
7.96365e-06
0.000293143
8.08261e-06
0.000290408
8.19708e-06
0.000287637
8.30711e-06
0.00028483
8.41276e-06
0.00028199
8.51408e-06
0.000279117
8.61116e-06
0.000276213
8.70405e-06
0.00027328
8.79284e-06
0.000270319
8.87759e-06
0.00026733
8.95839e-06
0.000264317
9.03533e-06
0.000261278
9.10847e-06
0.000258217
9.17792e-06
0.000255134
9.24376e-06
0.00025203
9.30608e-06
0.000248906
9.36497e-06
0.000245764
9.42052e-06
0.000242605
9.47282e-06
0.000239429
9.52197e-06
0.000236238
9.56806e-06
0.000233033
9.61119e-06
0.000229814
9.65144e-06
0.000226583
9.68892e-06
0.000223341
9.72371e-06
0.000220087
9.75591e-06
0.000216824
9.78562e-06
0.000213552
9.81291e-06
0.000210271
9.83789e-06
0.000206983
9.86065e-06
0.000203688
9.88127e-06
0.000200387
9.89984e-06
0.000197081
9.91645e-06
0.000193769
9.93118e-06
0.000190454
9.94413e-06
0.000187134
9.95536e-06
0.000183812
9.96497e-06
0.000180487
9.97303e-06
0.000177159
9.97962e-06
0.00017383
9.98483e-06
0.0001705
9.98871e-06
0.000167169
9.99135e-06
0.000163837
9.99283e-06
0.000160506
9.9932e-06
0.000157174
9.99254e-06
0.000153844
9.99092e-06
0.000150514
9.98839e-06
0.000147185
9.98503e-06
0.000143857
9.9809e-06
0.000140532
9.97605e-06
0.000137208
9.97055e-06
0.000133886
9.96445e-06
0.000130567
9.9578e-06
0.000127249
9.95067e-06
0.000123935
9.94309e-06
0.000120623
9.93513e-06
0.000117314
9.92682e-06
0.000114008
9.91822e-06
0.000110704
9.90938e-06
0.000107404
9.90032e-06
0.000104107
9.89111e-06
0.000100813
9.88177e-06
9.75223e-05
9.87235e-06
9.42347e-05
9.86288e-06
9.09502e-05
9.8534e-06
8.76689e-05
9.84395e-06
8.43908e-05
9.83455e-06
8.11158e-05
9.82525e-06
7.78438e-05
9.81606e-06
7.45749e-05
9.80702e-06
7.1309e-05
9.79816e-06
6.8046e-05
9.7895e-06
6.47857e-05
9.78107e-06
6.15283e-05
9.77289e-06
5.82734e-05
9.76499e-06
5.50211e-05
9.75738e-06
5.17713e-05
9.75008e-06
4.85238e-05
9.74312e-06
4.52785e-05
9.73651e-06
4.20353e-05
9.73026e-06
3.8794e-05
9.72441e-06
3.55546e-05
9.71894e-06
3.23169e-05
9.71389e-06
2.90807e-05
9.70926e-06
2.58459e-05
9.70506e-06
2.26124e-05
9.70131e-06
1.938e-05
9.69801e-06
1.61485e-05
9.69516e-06
1.29179e-05
9.69278e-06
9.68784e-06
9.69087e-06
6.45829e-06
9.68943e-06
3.22907e-06
9.68848e-06
9.688e-06
3.45427e-06
-1.38201e-05
6.90875e-06
-1.38209e-05
1.03637e-05
-1.38227e-05
1.38192e-05
-1.38252e-05
1.72757e-05
-1.38286e-05
2.07332e-05
-1.38329e-05
2.4192e-05
-1.3838e-05
2.76522e-05
-1.38439e-05
3.11142e-05
-1.38506e-05
3.4578e-05
-1.38581e-05
3.8044e-05
-1.38663e-05
4.15122e-05
-1.38753e-05
4.49828e-05
-1.3885e-05
4.84561e-05
-1.38954e-05
5.19322e-05
-1.39064e-05
5.54112e-05
-1.39181e-05
5.88933e-05
-1.39304e-05
6.23787e-05
-1.39432e-05
6.58674e-05
-1.39566e-05
6.93596e-05
-1.39704e-05
7.28554e-05
-1.39846e-05
7.6355e-05
-1.39993e-05
7.98583e-05
-1.40143e-05
8.33655e-05
-1.40295e-05
8.68766e-05
-1.4045e-05
9.03917e-05
-1.40606e-05
9.39107e-05
-1.40764e-05
9.74338e-05
-1.40922e-05
0.000100961
-1.4108e-05
0.000104492
-1.41237e-05
0.000108027
-1.41392e-05
0.000111566
-1.41545e-05
0.000115109
-1.41694e-05
0.000118655
-1.41839e-05
0.000122205
-1.4198e-05
0.000125758
-1.42115e-05
0.000129315
-1.42242e-05
0.000132875
-1.42363e-05
0.000136438
-1.42474e-05
0.000140003
-1.42576e-05
0.000143571
-1.42667e-05
0.000147141
-1.42746e-05
0.000150712
-1.42812e-05
0.000154285
-1.42864e-05
0.000157859
-1.429e-05
0.000161434
-1.4292e-05
0.000165008
-1.42922e-05
0.000168583
-1.42905e-05
0.000172156
-1.42868e-05
0.000175729
-1.42809e-05
0.000179299
-1.42726e-05
0.000182867
-1.42619e-05
0.000186431
-1.42487e-05
0.000189992
-1.42326e-05
0.000193548
-1.42137e-05
0.000197099
-1.41918e-05
0.000200643
-1.41666e-05
0.000204181
-1.41381e-05
0.000207711
-1.41061e-05
0.000211232
-1.40705e-05
0.000214743
-1.40311e-05
0.000218243
-1.39877e-05
0.000221732
-1.39402e-05
0.000225208
-1.38884e-05
0.00022867
-1.38322e-05
0.000232117
-1.37715e-05
0.000235548
-1.37059e-05
0.000238961
-1.36356e-05
0.000242356
-1.35601e-05
0.00024573
-1.34795e-05
0.000249084
-1.33936e-05
0.000252414
-1.33022e-05
0.00025572
-1.32052e-05
0.000259001
-1.31024e-05
0.000262255
-1.29938e-05
0.00026548
-1.28792e-05
0.000268675
-1.27585e-05
0.000271838
-1.26316e-05
0.000274969
-1.24984e-05
0.000278064
-1.23588e-05
0.000281123
-1.22127e-05
0.000284144
-1.206e-05
0.000287125
-1.19006e-05
0.000290064
-1.17346e-05
0.000292961
-1.15618e-05
0.000295812
-1.13821e-05
0.000298617
-1.11957e-05
0.000301374
-1.10024e-05
0.00030408
-1.08022e-05
0.000306735
-1.05952e-05
0.000309336
-1.03813e-05
0.000311882
-1.01607e-05
0.000314371
-9.93324e-06
0.000316802
-9.69909e-06
0.000319172
-9.45829e-06
0.000321481
-9.21092e-06
0.000323725
-8.95709e-06
0.000325905
-8.69689e-06
0.000328018
-8.43044e-06
0.000330063
-8.15789e-06
0.000332038
-7.87939e-06
0.000333941
-7.59508e-06
0.000335772
-7.30515e-06
0.000337529
-7.00979e-06
0.000339211
-6.70918e-06
0.000340816
-6.40356e-06
0.000342343
-6.09313e-06
0.000343792
-5.77813e-06
0.00034516
-5.45881e-06
0.000346447
-5.13543e-06
0.000347652
-4.80824e-06
0.000348774
-4.47753e-06
0.000349813
-4.14358e-06
0.000350767
-3.80666e-06
0.000351636
-3.46709e-06
0.000352419
-3.12517e-06
0.000353116
-2.7812e-06
0.000353726
-2.43549e-06
0.000354249
-2.08836e-06
0.000354685
-1.74013e-06
0.000355033
-1.39113e-06
0.000355293
-1.04166e-06
0.000355466
-6.92059e-07
0.000355551
-3.4264e-07
0.000355549
6.27527e-09
0.000355459
3.54371e-07
0.000355283
7.01333e-07
0.00035502
1.04685e-06
0.00035467
1.39063e-06
0.000354235
1.73235e-06
0.000353715
2.07174e-06
0.00035311
2.40851e-06
0.000352422
2.74237e-06
0.000351651
3.07307e-06
0.000350797
3.40033e-06
0.000349863
3.72392e-06
0.000348848
4.04358e-06
0.000347755
4.35909e-06
0.000346583
4.67023e-06
0.000345335
4.97678e-06
0.000344011
5.27856e-06
0.000342613
5.57538e-06
0.000341141
5.86706e-06
0.000339598
6.15345e-06
0.000337985
6.43438e-06
0.000336302
6.70973e-06
0.000334552
6.97938e-06
0.000332736
7.2432e-06
0.000330856
7.50109e-06
0.000328912
7.75298e-06
0.000326907
7.99878e-06
0.000324842
8.23842e-06
0.000322719
8.47186e-06
0.000320539
8.69904e-06
0.000318303
8.91995e-06
0.000316014
9.13455e-06
0.000313673
9.34284e-06
0.000311281
9.54482e-06
0.00030884
9.7405e-06
0.000306352
9.92988e-06
0.000303819
1.0113e-05
0.000301241
1.02899e-05
0.00029862
1.04607e-05
0.000295959
1.06253e-05
0.000293258
1.07838e-05
0.000290518
1.09363e-05
0.000287742
1.1083e-05
0.000284931
1.12237e-05
0.000282087
1.13587e-05
0.00027921
1.1488e-05
0.000276302
1.16118e-05
0.000273365
1.17301e-05
0.0002704
1.18429e-05
0.000267407
1.19505e-05
0.00026439
1.2053e-05
0.000261348
1.21504e-05
0.000258283
1.22428e-05
0.000255196
1.23305e-05
0.000252089
1.24134e-05
0.000248962
1.24918e-05
0.000245817
1.25657e-05
0.000242654
1.26353e-05
0.000239476
1.27007e-05
0.000236282
1.2762e-05
0.000233073
1.28194e-05
0.000229852
1.28729e-05
0.000226618
1.29227e-05
0.000223373
1.2969e-05
0.000220117
1.30118e-05
0.000216851
1.30512e-05
0.000213577
1.30875e-05
0.000210294
1.31207e-05
0.000207004
1.31509e-05
0.000203707
1.31782e-05
0.000200404
1.32028e-05
0.000197095
1.32249e-05
0.000193782
1.32444e-05
0.000190465
1.32615e-05
0.000187144
1.32763e-05
0.00018382
1.3289e-05
0.000180493
1.32997e-05
0.000177165
1.33083e-05
0.000173834
1.33151e-05
0.000170503
1.33202e-05
0.00016717
1.33236e-05
0.000163838
1.33255e-05
0.000160505
1.33259e-05
0.000157173
1.33249e-05
0.000153841
1.33226e-05
0.00015051
1.33192e-05
0.000147181
1.33146e-05
0.000143853
1.3309e-05
0.000140526
1.33024e-05
0.000137202
1.3295e-05
0.000133879
1.32868e-05
0.000130559
1.32778e-05
0.000127242
1.32682e-05
0.000123927
1.32581e-05
0.000120615
1.32474e-05
0.000117305
1.32362e-05
0.000113999
1.32247e-05
0.000110695
1.32128e-05
0.000107395
1.32007e-05
0.000104098
1.31883e-05
0.000100804
1.31758e-05
9.75129e-05
1.31632e-05
9.42252e-05
1.31505e-05
9.09408e-05
1.31378e-05
8.76596e-05
1.31252e-05
8.43815e-05
1.31126e-05
8.11066e-05
1.31001e-05
7.78348e-05
1.30879e-05
7.45661e-05
1.30758e-05
7.13004e-05
1.30639e-05
6.80375e-05
1.30523e-05
6.47776e-05
1.3041e-05
6.15204e-05
1.30301e-05
5.82658e-05
1.30195e-05
5.50139e-05
1.30093e-05
5.17644e-05
1.29996e-05
4.85172e-05
1.29903e-05
4.52723e-05
1.29814e-05
4.20294e-05
1.29731e-05
3.87886e-05
1.29653e-05
3.55496e-05
1.2958e-05
3.23123e-05
1.29512e-05
2.90765e-05
1.2945e-05
2.58422e-05
1.29394e-05
2.26091e-05
1.29344e-05
1.93772e-05
1.293e-05
1.61462e-05
1.29262e-05
1.2916e-05
1.2923e-05
9.68641e-06
1.29204e-05
6.45734e-06
1.29185e-05
3.22859e-06
1.29172e-05
1.29166e-05
3.4534e-06
-1.72735e-05
6.90703e-06
-1.72746e-05
1.03611e-05
-1.72767e-05
1.38158e-05
-1.72799e-05
1.72714e-05
-1.72842e-05
2.07281e-05
-1.72896e-05
2.4186e-05
-1.7296e-05
2.76455e-05
-1.73034e-05
3.11067e-05
-1.73118e-05
3.45698e-05
-1.73212e-05
3.8035e-05
-1.73315e-05
4.15025e-05
-1.73428e-05
4.49724e-05
-1.7355e-05
4.8445e-05
-1.7368e-05
5.19205e-05
-1.73819e-05
5.53989e-05
-1.73965e-05
5.88804e-05
-1.7412e-05
6.23653e-05
-1.74281e-05
6.58535e-05
-1.74448e-05
6.93453e-05
-1.74622e-05
7.28408e-05
-1.74801e-05
7.634e-05
-1.74985e-05
7.9843e-05
-1.75173e-05
8.335e-05
-1.75365e-05
8.68609e-05
-1.75559e-05
9.03759e-05
-1.75756e-05
9.38949e-05
-1.75954e-05
9.7418e-05
-1.76153e-05
0.000100945
-1.76352e-05
0.000104476
-1.76549e-05
0.000108012
-1.76744e-05
0.000111551
-1.76937e-05
0.000115094
-1.77125e-05
0.000118641
-1.77309e-05
0.000122191
-1.77486e-05
0.000125746
-1.77656e-05
0.000129303
-1.77818e-05
0.000132864
-1.7797e-05
0.000136428
-1.78111e-05
0.000139994
-1.7824e-05
0.000143563
-1.78356e-05
0.000147134
-1.78457e-05
0.000150707
-1.78542e-05
0.000154281
-1.78609e-05
0.000157857
-1.78657e-05
0.000161433
-1.78684e-05
0.00016501
-1.78689e-05
0.000168586
-1.7867e-05
0.000172162
-1.78626e-05
0.000175737
-1.78554e-05
0.00017931
-1.78454e-05
0.00018288
-1.78323e-05
0.000186447
-1.7816e-05
0.000190011
-1.77962e-05
0.00019357
-1.77728e-05
0.000197124
-1.77457e-05
0.000200672
-1.77145e-05
0.000204213
-1.76792e-05
0.000207746
-1.76395e-05
0.000211271
-1.75953e-05
0.000214786
-1.75463e-05
0.000218291
-1.74924e-05
0.000221784
-1.74333e-05
0.000225264
-1.73688e-05
0.000228731
-1.72989e-05
0.000232183
-1.72232e-05
0.000235618
-1.71416e-05
0.000239037
-1.70539e-05
0.000242436
-1.69599e-05
0.000245816
-1.68594e-05
0.000249175
-1.67522e-05
0.000252511
-1.66382e-05
0.000255823
-1.65172e-05
0.00025911
-1.6389e-05
0.000262369
-1.62535e-05
0.000265601
-1.61105e-05
0.000268802
-1.59598e-05
0.000271972
-1.58014e-05
0.000275108
-1.5635e-05
0.00027821
-1.54607e-05
0.000281276
-1.52782e-05
0.000284303
-1.50874e-05
0.000287291
-1.48884e-05
0.000290237
-1.46809e-05
0.00029314
-1.44649e-05
0.000295999
-1.42405e-05
0.00029881
-1.40074e-05
0.000301574
-1.37658e-05
0.000304287
-1.35156e-05
0.000306949
-1.32568e-05
0.000309557
-1.29894e-05
0.00031211
-1.27135e-05
0.000314606
-1.24291e-05
0.000317043
-1.21363e-05
0.00031942
-1.18352e-05
0.000321734
-1.15258e-05
0.000323986
-1.12083e-05
0.000326172
-1.08828e-05
0.000328291
-1.05495e-05
0.000330341
-1.02085e-05
0.000332322
-9.86009e-06
0.000334231
-9.50438e-06
0.000336068
-9.14162e-06
0.00033783
-8.77204e-06
0.000339517
-8.39589e-06
0.000341127
-8.01344e-06
0.000342658
-7.62496e-06
0.000344111
-7.23076e-06
0.000345483
-6.83113e-06
0.000346774
-6.42641e-06
0.000347983
-6.01691e-06
0.000349108
-5.60299e-06
0.00035015
-5.185e-06
0.000351107
-4.76331e-06
0.000351978
-4.33828e-06
0.000352763
-3.9103e-06
0.000353461
-3.47975e-06
0.000354073
-3.04702e-06
0.000354597
-2.61252e-06
0.000355034
-2.17663e-06
0.000355382
-1.73977e-06
0.000355643
-1.30234e-06
0.000355816
-8.64733e-07
0.0003559
-4.27362e-07
0.000355897
9.37498e-09
0.000355806
4.45081e-07
0.000355628
8.79363e-07
0.000355363
1.31183e-06
0.000355012
1.74211e-06
0.000354575
2.16981e-06
0.000354052
2.59458e-06
0.000353444
3.01606e-06
0.000352753
3.4339e-06
0.000351978
3.84775e-06
0.000351121
4.2573e-06
0.000350183
4.66223e-06
0.000349164
5.06224e-06
0.000348066
5.45704e-06
0.00034689
5.84635e-06
0.000345637
6.22992e-06
0.000344308
6.60749e-06
0.000342904
6.97884e-06
0.000341428
7.34374e-06
0.000339879
7.702e-06
0.00033826
8.05343e-06
0.000336572
8.39786e-06
0.000334816
8.73512e-06
0.000332994
9.06508e-06
0.000331108
9.38762e-06
0.000329158
9.70262e-06
0.000327147
1.001e-05
0.000325076
1.03096e-05
0.000322946
1.06015e-05
0.00032076
1.08856e-05
0.000318518
1.11617e-05
0.000316222
1.143e-05
0.000313875
1.16904e-05
0.000311477
1.19428e-05
0.00030903
1.21874e-05
0.000306536
1.24241e-05
0.000303996
1.26529e-05
0.000301412
1.2874e-05
0.000298785
1.30873e-05
0.000296117
1.32929e-05
0.00029341
1.3491e-05
0.000290665
1.36815e-05
0.000287883
1.38647e-05
0.000285067
1.40405e-05
0.000282216
1.4209e-05
0.000279334
1.43705e-05
0.000276421
1.4525e-05
0.000273478
1.46726e-05
0.000270507
1.48135e-05
0.00026751
1.49479e-05
0.000264487
1.50757e-05
0.00026144
1.51972e-05
0.000258371