/*--------------------------------*- C++ -*----------------------------------*\
| =========                 |                                                 |
| \\      /  F ield         | OpenFOAM: The Open Source CFD Toolbox           |
|  \\    /   O peration     | Version:  v2012                                 |
|   \\  /    A nd           | Website:  www.openfoam.com                      |
|    \\/     M anipulation  |                                                 |
\*---------------------------------------------------------------------------*/
FoamFile
{
    version     2.0;
    format      ascii;
    class       volVectorField;
    location    "14.25";
    object      Psi;
}
// * * * * * * * * * * * * * * * * * * * * * * * * * * * * * * * * * * * * * //

dimensions      [0 2 -1 0 0 0 0];


internalField   nonuniform List<vector> 
65536
(
(0 0 8.6372e-06)
(0 0 2.59122e-05)
(0 0 4.31888e-05)
(0 0 6.04681e-05)
(0 0 7.7751e-05)
(0 0 9.50388e-05)
(0 0 0.000112332)
(0 0 0.000129633)
(0 0 0.000146941)
(0 0 0.000164258)
(0 0 0.000181585)
(0 0 0.000198922)
(0 0 0.000216271)
(0 0 0.000233633)
(0 0 0.000251008)
(0 0 0.000268397)
(0 0 0.000285801)
(0 0 0.00030322)
(0 0 0.000320656)
(0 0 0.000338108)
(0 0 0.000355578)
(0 0 0.000373066)
(0 0 0.000390572)
(0 0 0.000408097)
(0 0 0.000425641)
(0 0 0.000443204)
(0 0 0.000460787)
(0 0 0.000478389)
(0 0 0.000496011)
(0 0 0.000513652)
(0 0 0.000531313)
(0 0 0.000548993)
(0 0 0.000566691)
(0 0 0.000584407)
(0 0 0.000602141)
(0 0 0.000619892)
(0 0 0.000637659)
(0 0 0.000655442)
(0 0 0.000673238)
(0 0 0.000691048)
(0 0 0.000708869)
(0 0 0.000726701)
(0 0 0.000744541)
(0 0 0.000762389)
(0 0 0.000780241)
(0 0 0.000798097)
(0 0 0.000815954)
(0 0 0.00083381)
(0 0 0.000851662)
(0 0 0.000869507)
(0 0 0.000887344)
(0 0 0.000905168)
(0 0 0.000922977)
(0 0 0.000940767)
(0 0 0.000958535)
(0 0 0.000976277)
(0 0 0.000993989)
(0 0 0.00101167)
(0 0 0.00102931)
(0 0 0.0010469)
(0 0 0.00106445)
(0 0 0.00108195)
(0 0 0.00109939)
(0 0 0.00111677)
(0 0 0.00113408)
(0 0 0.00115132)
(0 0 0.00116848)
(0 0 0.00118555)
(0 0 0.00120253)
(0 0 0.00121942)
(0 0 0.00123619)
(0 0 0.00125286)
(0 0 0.00126941)
(0 0 0.00128584)
(0 0 0.00130213)
(0 0 0.00131828)
(0 0 0.00133429)
(0 0 0.00135014)
(0 0 0.00136583)
(0 0 0.00138134)
(0 0 0.00139668)
(0 0 0.00141183)
(0 0 0.00142679)
(0 0 0.00144155)
(0 0 0.00145609)
(0 0 0.00147041)
(0 0 0.0014845)
(0 0 0.00149836)
(0 0 0.00151197)
(0 0 0.00152532)
(0 0 0.00153842)
(0 0 0.00155124)
(0 0 0.00156378)
(0 0 0.00157603)
(0 0 0.00158799)
(0 0 0.00159964)
(0 0 0.00161098)
(0 0 0.001622)
(0 0 0.00163269)
(0 0 0.00164305)
(0 0 0.00165306)
(0 0 0.00166272)
(0 0 0.00167202)
(0 0 0.00168095)
(0 0 0.00168952)
(0 0 0.0016977)
(0 0 0.00170551)
(0 0 0.00171292)
(0 0 0.00171993)
(0 0 0.00172655)
(0 0 0.00173276)
(0 0 0.00173856)
(0 0 0.00174394)
(0 0 0.00174891)
(0 0 0.00175346)
(0 0 0.00175758)
(0 0 0.00176127)
(0 0 0.00176453)
(0 0 0.00176736)
(0 0 0.00176976)
(0 0 0.00177172)
(0 0 0.00177325)
(0 0 0.00177434)
(0 0 0.00177499)
(0 0 0.00177521)
(0 0 0.00177499)
(0 0 0.00177434)
(0 0 0.00177326)
(0 0 0.00177175)
(0 0 0.00176981)
(0 0 0.00176745)
(0 0 0.00176466)
(0 0 0.00176146)
(0 0 0.00175784)
(0 0 0.00175381)
(0 0 0.00174937)
(0 0 0.00174454)
(0 0 0.0017393)
(0 0 0.00173368)
(0 0 0.00172767)
(0 0 0.00172128)
(0 0 0.00171452)
(0 0 0.00170739)
(0 0 0.00169989)
(0 0 0.00169205)
(0 0 0.00168385)
(0 0 0.00167532)
(0 0 0.00166645)
(0 0 0.00165726)
(0 0 0.00164775)
(0 0 0.00163792)
(0 0 0.0016278)
(0 0 0.00161737)
(0 0 0.00160666)
(0 0 0.00159567)
(0 0 0.00158441)
(0 0 0.00157288)
(0 0 0.0015611)
(0 0 0.00154907)
(0 0 0.0015368)
(0 0 0.00152429)
(0 0 0.00151156)
(0 0 0.00149861)
(0 0 0.00148545)
(0 0 0.00147209)
(0 0 0.00145853)
(0 0 0.00144479)
(0 0 0.00143086)
(0 0 0.00141677)
(0 0 0.00140251)
(0 0 0.00138809)
(0 0 0.00137351)
(0 0 0.0013588)
(0 0 0.00134394)
(0 0 0.00132895)
(0 0 0.00131384)
(0 0 0.00129861)
(0 0 0.00128326)
(0 0 0.00126781)
(0 0 0.00125226)
(0 0 0.00123661)
(0 0 0.00122087)
(0 0 0.00120505)
(0 0 0.00118914)
(0 0 0.00117316)
(0 0 0.00115712)
(0 0 0.001141)
(0 0 0.00112483)
(0 0 0.0011086)
(0 0 0.00109232)
(0 0 0.00107599)
(0 0 0.00105962)
(0 0 0.0010432)
(0 0 0.00102675)
(0 0 0.00101027)
(0 0 0.000993761)
(0 0 0.000977222)
(0 0 0.000960661)
(0 0 0.000944079)
(0 0 0.000927479)
(0 0 0.000910865)
(0 0 0.000894238)
(0 0 0.000877601)
(0 0 0.000860957)
(0 0 0.000844307)
(0 0 0.000827653)
(0 0 0.000810997)
(0 0 0.000794342)
(0 0 0.000777688)
(0 0 0.000761038)
(0 0 0.000744392)
(0 0 0.000727753)
(0 0 0.000711121)
(0 0 0.000694497)
(0 0 0.000677883)
(0 0 0.000661279)
(0 0 0.000644687)
(0 0 0.000628107)
(0 0 0.00061154)
(0 0 0.000594986)
(0 0 0.000578446)
(0 0 0.000561921)
(0 0 0.00054541)
(0 0 0.000528915)
(0 0 0.000512435)
(0 0 0.00049597)
(0 0 0.000479521)
(0 0 0.000463088)
(0 0 0.000446671)
(0 0 0.000430269)
(0 0 0.000413883)
(0 0 0.000397512)
(0 0 0.000381156)
(0 0 0.000364815)
(0 0 0.000348489)
(0 0 0.000332177)
(0 0 0.000315878)
(0 0 0.000299593)
(0 0 0.000283321)
(0 0 0.000267062)
(0 0 0.000250814)
(0 0 0.000234577)
(0 0 0.000218351)
(0 0 0.000202136)
(0 0 0.000185929)
(0 0 0.000169731)
(0 0 0.000153542)
(0 0 0.000137359)
(0 0 0.000121184)
(0 0 0.000105014)
(0 0 8.88492e-05)
(0 0 7.26889e-05)
(0 0 5.65321e-05)
(0 0 4.03781e-05)
(0 0 2.4226e-05)
(0 0 8.07522e-06)
(0 0 2.59112e-05)
(0 0 7.77351e-05)
(0 0 0.000129564)
(0 0 0.000181401)
(0 0 0.000233249)
(0 0 0.000285111)
(0 0 0.000336991)
(0 0 0.000388891)
(0 0 0.000440815)
(0 0 0.000492765)
(0 0 0.000544744)
(0 0 0.000596756)
(0 0 0.000648802)
(0 0 0.000700886)
(0 0 0.00075301)
(0 0 0.000805176)
(0 0 0.000857387)
(0 0 0.000909645)
(0 0 0.000961951)
(0 0 0.00101431)
(0 0 0.00106672)
(0 0 0.00111918)
(0 0 0.0011717)
(0 0 0.00122427)
(0 0 0.00127691)
(0 0 0.0013296)
(0 0 0.00138234)
(0 0 0.00143515)
(0 0 0.00148802)
(0 0 0.00154094)
(0 0 0.00159392)
(0 0 0.00164696)
(0 0 0.00170006)
(0 0 0.00175321)
(0 0 0.00180641)
(0 0 0.00185966)
(0 0 0.00191296)
(0 0 0.00196631)
(0 0 0.0020197)
(0 0 0.00207313)
(0 0 0.0021266)
(0 0 0.0021801)
(0 0 0.00223362)
(0 0 0.00228716)
(0 0 0.00234072)
(0 0 0.00239429)
(0 0 0.00244787)
(0 0 0.00250144)
(0 0 0.00255499)
(0 0 0.00260853)
(0 0 0.00266205)
(0 0 0.00271552)
(0 0 0.00276895)
(0 0 0.00282233)
(0 0 0.00287563)
(0 0 0.00292886)
(0 0 0.002982)
(0 0 0.00303504)
(0 0 0.00308797)
(0 0 0.00314076)
(0 0 0.00319342)
(0 0 0.00324592)
(0 0 0.00329825)
(0 0 0.00335039)
(0 0 0.00340232)
(0 0 0.00345404)
(0 0 0.00350552)
(0 0 0.00355675)
(0 0 0.0036077)
(0 0 0.00365835)
(0 0 0.0037087)
(0 0 0.00375871)
(0 0 0.00380836)
(0 0 0.00385765)
(0 0 0.00390653)
(0 0 0.003955)
(0 0 0.00400302)
(0 0 0.00405058)
(0 0 0.00409765)
(0 0 0.00414421)
(0 0 0.00419024)
(0 0 0.0042357)
(0 0 0.00428058)
(0 0 0.00432485)
(0 0 0.00436848)
(0 0 0.00441146)
(0 0 0.00445374)
(0 0 0.00449532)
(0 0 0.00453616)
(0 0 0.00457623)
(0 0 0.00461552)
(0 0 0.00465399)
(0 0 0.00469163)
(0 0 0.0047284)
(0 0 0.00476428)
(0 0 0.00479924)
(0 0 0.00483327)
(0 0 0.00486633)
(0 0 0.00489841)
(0 0 0.00492948)
(0 0 0.00495952)
(0 0 0.00498851)
(0 0 0.00501642)
(0 0 0.00504323)
(0 0 0.00506893)
(0 0 0.0050935)
(0 0 0.00511691)
(0 0 0.00513915)
(0 0 0.0051602)
(0 0 0.00518005)
(0 0 0.00519869)
(0 0 0.00521609)
(0 0 0.00523225)
(0 0 0.00524716)
(0 0 0.00526079)
(0 0 0.00527316)
(0 0 0.00528424)
(0 0 0.00529402)
(0 0 0.00530252)
(0 0 0.00530971)
(0 0 0.00531559)
(0 0 0.00532017)
(0 0 0.00532344)
(0 0 0.00532541)
(0 0 0.00532606)
(0 0 0.00532541)
(0 0 0.00532346)
(0 0 0.00532022)
(0 0 0.00531568)
(0 0 0.00530986)
(0 0 0.00530277)
(0 0 0.0052944)
(0 0 0.00528479)
(0 0 0.00527393)
(0 0 0.00526184)
(0 0 0.00524852)
(0 0 0.00523401)
(0 0 0.0052183)
(0 0 0.00520142)
(0 0 0.00518339)
(0 0 0.00516421)
(0 0 0.00514391)
(0 0 0.00512252)
(0 0 0.00510003)
(0 0 0.00507649)
(0 0 0.0050519)
(0 0 0.00502629)
(0 0 0.00499968)
(0 0 0.00497209)
(0 0 0.00494355)
(0 0 0.00491407)
(0 0 0.00488368)
(0 0 0.00485241)
(0 0 0.00482027)
(0 0 0.00478729)
(0 0 0.0047535)
(0 0 0.00471891)
(0 0 0.00468355)
(0 0 0.00464744)
(0 0 0.00461062)
(0 0 0.00457309)
(0 0 0.00453489)
(0 0 0.00449603)
(0 0 0.00445655)
(0 0 0.00441646)
(0 0 0.00437578)
(0 0 0.00433454)
(0 0 0.00429276)
(0 0 0.00425047)
(0 0 0.00420767)
(0 0 0.0041644)
(0 0 0.00412068)
(0 0 0.00407652)
(0 0 0.00403195)
(0 0 0.00398698)
(0 0 0.00394164)
(0 0 0.00389593)
(0 0 0.00384989)
(0 0 0.00380353)
(0 0 0.00375687)
(0 0 0.00370992)
(0 0 0.00366269)
(0 0 0.00361522)
(0 0 0.0035675)
(0 0 0.00351956)
(0 0 0.00347141)
(0 0 0.00342307)
(0 0 0.00337454)
(0 0 0.00332585)
(0 0 0.003277)
(0 0 0.00322801)
(0 0 0.00317889)
(0 0 0.00312965)
(0 0 0.00308029)
(0 0 0.00303084)
(0 0 0.00298131)
(0 0 0.00293169)
(0 0 0.002882)
(0 0 0.00283225)
(0 0 0.00278245)
(0 0 0.00273261)
(0 0 0.00268272)
(0 0 0.00263281)
(0 0 0.00258287)
(0 0 0.00253292)
(0 0 0.00248296)
(0 0 0.00243299)
(0 0 0.00238302)
(0 0 0.00233306)
(0 0 0.00228311)
(0 0 0.00223317)
(0 0 0.00218325)
(0 0 0.00213335)
(0 0 0.00208348)
(0 0 0.00203364)
(0 0 0.00198382)
(0 0 0.00193405)
(0 0 0.00188431)
(0 0 0.0018346)
(0 0 0.00178494)
(0 0 0.00173532)
(0 0 0.00168575)
(0 0 0.00163621)
(0 0 0.00158673)
(0 0 0.00153729)
(0 0 0.00148789)
(0 0 0.00143855)
(0 0 0.00138925)
(0 0 0.00134)
(0 0 0.00129079)
(0 0 0.00124163)
(0 0 0.00119252)
(0 0 0.00114345)
(0 0 0.00109443)
(0 0 0.00104545)
(0 0 0.000996516)
(0 0 0.000947621)
(0 0 0.000898767)
(0 0 0.000849951)
(0 0 0.000801172)
(0 0 0.00075243)
(0 0 0.00070372)
(0 0 0.000655043)
(0 0 0.000606397)
(0 0 0.000557778)
(0 0 0.000509186)
(0 0 0.000460618)
(0 0 0.000412071)
(0 0 0.000363545)
(0 0 0.000315037)
(0 0 0.000266543)
(0 0 0.000218063)
(0 0 0.000169593)
(0 0 0.000121132)
(0 0 7.26769e-05)
(0 0 2.42252e-05)
(0 0 4.31835e-05)
(0 0 0.000129553)
(0 0 0.000215931)
(0 0 0.000302322)
(0 0 0.000388732)
(0 0 0.000475166)
(0 0 0.000561629)
(0 0 0.000648126)
(0 0 0.000734662)
(0 0 0.000821242)
(0 0 0.000907872)
(0 0 0.000994555)
(0 0 0.0010813)
(0 0 0.0011681)
(0 0 0.00125497)
(0 0 0.00134191)
(0 0 0.00142893)
(0 0 0.00151602)
(0 0 0.0016032)
(0 0 0.00169046)
(0 0 0.0017778)
(0 0 0.00186524)
(0 0 0.00195277)
(0 0 0.00204039)
(0 0 0.00212811)
(0 0 0.00221593)
(0 0 0.00230384)
(0 0 0.00239185)
(0 0 0.00247996)
(0 0 0.00256817)
(0 0 0.00265647)
(0 0 0.00274487)
(0 0 0.00283337)
(0 0 0.00292195)
(0 0 0.00301062)
(0 0 0.00309938)
(0 0 0.00318822)
(0 0 0.00327714)
(0 0 0.00336613)
(0 0 0.00345518)
(0 0 0.0035443)
(0 0 0.00363346)
(0 0 0.00372268)
(0 0 0.00381192)
(0 0 0.0039012)
(0 0 0.00399049)
(0 0 0.00407978)
(0 0 0.00416907)
(0 0 0.00425835)
(0 0 0.00434759)
(0 0 0.00443678)
(0 0 0.00452592)
(0 0 0.00461498)
(0 0 0.00470395)
(0 0 0.00479281)
(0 0 0.00488154)
(0 0 0.00497012)
(0 0 0.00505853)
(0 0 0.00514675)
(0 0 0.00523476)
(0 0 0.00532254)
(0 0 0.00541006)
(0 0 0.00549729)
(0 0 0.00558421)
(0 0 0.00567079)
(0 0 0.005757)
(0 0 0.00584282)
(0 0 0.00592822)
(0 0 0.00601315)
(0 0 0.0060976)
(0 0 0.00618153)
(0 0 0.00626491)
(0 0 0.00634769)
(0 0 0.00642985)
(0 0 0.00651135)
(0 0 0.00659215)
(0 0 0.00667222)
(0 0 0.00675151)
(0 0 0.00682999)
(0 0 0.00690762)
(0 0 0.00698435)
(0 0 0.00706015)
(0 0 0.00713498)
(0 0 0.00720879)
(0 0 0.00728154)
(0 0 0.00735319)
(0 0 0.0074237)
(0 0 0.00749302)
(0 0 0.00756111)
(0 0 0.00762793)
(0 0 0.00769344)
(0 0 0.00775759)
(0 0 0.00782034)
(0 0 0.00788165)
(0 0 0.00794148)
(0 0 0.00799978)
(0 0 0.00805652)
(0 0 0.00811165)
(0 0 0.00816514)
(0 0 0.00821695)
(0 0 0.00826704)
(0 0 0.00831537)
(0 0 0.00836191)
(0 0 0.00840663)
(0 0 0.00844948)
(0 0 0.00849044)
(0 0 0.00852948)
(0 0 0.00856657)
(0 0 0.00860168)
(0 0 0.00863478)
(0 0 0.00866585)
(0 0 0.00869487)
(0 0 0.00872181)
(0 0 0.00874667)
(0 0 0.00876941)
(0 0 0.00879002)
(0 0 0.00880849)
(0 0 0.00882481)
(0 0 0.00883897)
(0 0 0.00885096)
(0 0 0.00886077)
(0 0 0.00886841)
(0 0 0.00887386)
(0 0 0.00887713)
(0 0 0.00887822)
(0 0 0.00887713)
(0 0 0.00887388)
(0 0 0.00886846)
(0 0 0.00886089)
(0 0 0.00885118)
(0 0 0.00883935)
(0 0 0.0088254)
(0 0 0.00880936)
(0 0 0.00879125)
(0 0 0.00877108)
(0 0 0.00874888)
(0 0 0.00872467)
(0 0 0.00869848)
(0 0 0.00867032)
(0 0 0.00864025)
(0 0 0.00860827)
(0 0 0.00857442)
(0 0 0.00853873)
(0 0 0.00850123)
(0 0 0.00846197)
(0 0 0.00842096)
(0 0 0.00837826)
(0 0 0.00833388)
(0 0 0.00828788)
(0 0 0.00824028)
(0 0 0.00819113)
(0 0 0.00814046)
(0 0 0.00808831)
(0 0 0.00803472)
(0 0 0.00797973)
(0 0 0.00792338)
(0 0 0.0078657)
(0 0 0.00780674)
(0 0 0.00774654)
(0 0 0.00768514)
(0 0 0.00762257)
(0 0 0.00755887)
(0 0 0.00749409)
(0 0 0.00742825)
(0 0 0.00736141)
(0 0 0.00729359)
(0 0 0.00722483)
(0 0 0.00715518)
(0 0 0.00708466)
(0 0 0.00701332)
(0 0 0.00694118)
(0 0 0.00686828)
(0 0 0.00679466)
(0 0 0.00672035)
(0 0 0.00664538)
(0 0 0.00656979)
(0 0 0.0064936)
(0 0 0.00641685)
(0 0 0.00633956)
(0 0 0.00626176)
(0 0 0.00618349)
(0 0 0.00610477)
(0 0 0.00602563)
(0 0 0.00594608)
(0 0 0.00586617)
(0 0 0.0057859)
(0 0 0.00570532)
(0 0 0.00562443)
(0 0 0.00554326)
(0 0 0.00546183)
(0 0 0.00538016)
(0 0 0.00529828)
(0 0 0.0052162)
(0 0 0.00513393)
(0 0 0.0050515)
(0 0 0.00496893)
(0 0 0.00488622)
(0 0 0.0048034)
(0 0 0.00472048)
(0 0 0.00463747)
(0 0 0.00455438)
(0 0 0.00447124)
(0 0 0.00438804)
(0 0 0.00430481)
(0 0 0.00422155)
(0 0 0.00413827)
(0 0 0.00405498)
(0 0 0.0039717)
(0 0 0.00388842)
(0 0 0.00380516)
(0 0 0.00372193)
(0 0 0.00363872)
(0 0 0.00355556)
(0 0 0.00347243)
(0 0 0.00338936)
(0 0 0.00330634)
(0 0 0.00322337)
(0 0 0.00314047)
(0 0 0.00305763)
(0 0 0.00297486)
(0 0 0.00289215)
(0 0 0.00280953)
(0 0 0.00272697)
(0 0 0.00264449)
(0 0 0.00256209)
(0 0 0.00247977)
(0 0 0.00239753)
(0 0 0.00231536)
(0 0 0.00223327)
(0 0 0.00215127)
(0 0 0.00206933)
(0 0 0.00198748)
(0 0 0.0019057)
(0 0 0.001824)
(0 0 0.00174237)
(0 0 0.00166081)
(0 0 0.00157932)
(0 0 0.0014979)
(0 0 0.00141654)
(0 0 0.00133525)
(0 0 0.00125401)
(0 0 0.00117283)
(0 0 0.00109171)
(0 0 0.00101063)
(0 0 0.000929601)
(0 0 0.000848616)
(0 0 0.000767671)
(0 0 0.000686764)
(0 0 0.000605889)
(0 0 0.000525044)
(0 0 0.000444224)
(0 0 0.000363426)
(0 0 0.000282646)
(0 0 0.00020188)
(0 0 0.000121124)
(0 0 4.03741e-05)
(0 0 6.04532e-05)
(0 0 0.000181363)
(0 0 0.000302285)
(0 0 0.000423225)
(0 0 0.000544191)
(0 0 0.000665191)
(0 0 0.000786232)
(0 0 0.000907321)
(0 0 0.00102846)
(0 0 0.00114967)
(0 0 0.00127095)
(0 0 0.0013923)
(0 0 0.00151373)
(0 0 0.00163525)
(0 0 0.00175686)
(0 0 0.00187857)
(0 0 0.00200039)
(0 0 0.00212232)
(0 0 0.00224436)
(0 0 0.00236652)
(0 0 0.0024888)
(0 0 0.00261121)
(0 0 0.00273375)
(0 0 0.00285642)
(0 0 0.00297922)
(0 0 0.00310216)
(0 0 0.00322524)
(0 0 0.00334846)
(0 0 0.00347181)
(0 0 0.0035953)
(0 0 0.00371893)
(0 0 0.00384269)
(0 0 0.00396658)
(0 0 0.00409061)
(0 0 0.00421476)
(0 0 0.00433902)
(0 0 0.00446341)
(0 0 0.0045879)
(0 0 0.00471249)
(0 0 0.00483717)
(0 0 0.00496194)
(0 0 0.00508679)
(0 0 0.00521169)
(0 0 0.00533665)
(0 0 0.00546165)
(0 0 0.00558667)
(0 0 0.0057117)
(0 0 0.00583673)
(0 0 0.00596173)
(0 0 0.00608669)
(0 0 0.00621158)
(0 0 0.0063364)
(0 0 0.0064611)
(0 0 0.00658568)
(0 0 0.00671011)
(0 0 0.00683436)
(0 0 0.0069584)
(0 0 0.00708221)
(0 0 0.00720575)
(0 0 0.007329)
(0 0 0.00745192)
(0 0 0.00757448)
(0 0 0.00769664)
(0 0 0.00781836)
(0 0 0.00793961)
(0 0 0.00806036)
(0 0 0.00818055)
(0 0 0.00830014)
(0 0 0.0084191)
(0 0 0.00853738)
(0 0 0.00865492)
(0 0 0.00877169)
(0 0 0.00888764)
(0 0 0.00900272)
(0 0 0.00911687)
(0 0 0.00923004)
(0 0 0.00934219)
(0 0 0.00945326)
(0 0 0.00956318)
(0 0 0.00967192)
(0 0 0.0097794)
(0 0 0.00988558)
(0 0 0.00999039)
(0 0 0.0100938)
(0 0 0.0101957)
(0 0 0.0102961)
(0 0 0.0103948)
(0 0 0.0104919)
(0 0 0.0105873)
(0 0 0.0106809)
(0 0 0.0107727)
(0 0 0.0108626)
(0 0 0.0109505)
(0 0 0.0110364)
(0 0 0.0111202)
(0 0 0.0112019)
(0 0 0.0112814)
(0 0 0.0113586)
(0 0 0.0114336)
(0 0 0.0115061)
(0 0 0.0115763)
(0 0 0.011644)
(0 0 0.0117092)
(0 0 0.0117719)
(0 0 0.0118319)
(0 0 0.0118893)
(0 0 0.011944)
(0 0 0.011996)
(0 0 0.0120452)
(0 0 0.0120915)
(0 0 0.0121351)
(0 0 0.0121757)
(0 0 0.0122135)
(0 0 0.0122483)
(0 0 0.0122801)
(0 0 0.012309)
(0 0 0.0123349)
(0 0 0.0123578)
(0 0 0.0123776)
(0 0 0.0123944)
(0 0 0.0124081)
(0 0 0.0124188)
(0 0 0.0124265)
(0 0 0.012431)
(0 0 0.0124325)
(0 0 0.012431)
(0 0 0.0124265)
(0 0 0.0124189)
(0 0 0.0124082)
(0 0 0.0123946)
(0 0 0.012378)
(0 0 0.0123585)
(0 0 0.012336)
(0 0 0.0123106)
(0 0 0.0122824)
(0 0 0.0122512)
(0 0 0.0122173)
(0 0 0.0121806)
(0 0 0.0121412)
(0 0 0.012099)
(0 0 0.0120542)
(0 0 0.0120068)
(0 0 0.0119567)
(0 0 0.0119042)
(0 0 0.0118492)
(0 0 0.0117917)
(0 0 0.0117319)
(0 0 0.0116697)
(0 0 0.0116053)
(0 0 0.0115386)
(0 0 0.0114697)
(0 0 0.0113987)
(0 0 0.0113256)
(0 0 0.0112506)
(0 0 0.0111735)
(0 0 0.0110946)
(0 0 0.0110138)
(0 0 0.0109312)
(0 0 0.0108468)
(0 0 0.0107608)
(0 0 0.0106732)
(0 0 0.0105839)
(0 0 0.0104932)
(0 0 0.010401)
(0 0 0.0103073)
(0 0 0.0102123)
(0 0 0.010116)
(0 0 0.0100185)
(0 0 0.00991968)
(0 0 0.00981975)
(0 0 0.00971871)
(0 0 0.00961661)
(0 0 0.00951349)
(0 0 0.00940942)
(0 0 0.00930441)
(0 0 0.00919854)
(0 0 0.00909183)
(0 0 0.00898433)
(0 0 0.00887609)
(0 0 0.00876714)
(0 0 0.00865752)
(0 0 0.00854727)
(0 0 0.00843643)
(0 0 0.00832504)
(0 0 0.00821312)
(0 0 0.00810072)
(0 0 0.00798787)
(0 0 0.00787459)
(0 0 0.00776092)
(0 0 0.0076469)
(0 0 0.00753254)
(0 0 0.00741787)
(0 0 0.00730293)
(0 0 0.00718774)
(0 0 0.00707231)
(0 0 0.00695668)
(0 0 0.00684087)
(0 0 0.0067249)
(0 0 0.00660879)
(0 0 0.00649256)
(0 0 0.00637622)
(0 0 0.0062598)
(0 0 0.00614331)
(0 0 0.00602677)
(0 0 0.00591019)
(0 0 0.00579359)
(0 0 0.00567697)
(0 0 0.00556036)
(0 0 0.00544377)
(0 0 0.00532719)
(0 0 0.00521065)
(0 0 0.00509416)
(0 0 0.00497772)
(0 0 0.00486134)
(0 0 0.00474503)
(0 0 0.00462879)
(0 0 0.00451263)
(0 0 0.00439656)
(0 0 0.00428058)
(0 0 0.0041647)
(0 0 0.00404891)
(0 0 0.00393323)
(0 0 0.00381765)
(0 0 0.00370218)
(0 0 0.00358682)
(0 0 0.00347157)
(0 0 0.00335642)
(0 0 0.00324139)
(0 0 0.00312647)
(0 0 0.00301166)
(0 0 0.00289696)
(0 0 0.00278237)
(0 0 0.00266788)
(0 0 0.0025535)
(0 0 0.00243922)
(0 0 0.00232504)
(0 0 0.00221096)
(0 0 0.00209697)
(0 0 0.00198307)
(0 0 0.00186926)
(0 0 0.00175554)
(0 0 0.00164189)
(0 0 0.00152832)
(0 0 0.00141482)
(0 0 0.00130138)
(0 0 0.00118801)
(0 0 0.00107469)
(0 0 0.000961423)
(0 0 0.000848203)
(0 0 0.000735025)
(0 0 0.000621883)
(0 0 0.000508772)
(0 0 0.000395685)
(0 0 0.000282618)
(0 0 0.000169565)
(0 0 5.65209e-05)
(0 0 7.77191e-05)
(0 0 0.000233162)
(0 0 0.00038862)
(0 0 0.000544101)
(0 0 0.000699617)
(0 0 0.000855176)
(0 0 0.00101079)
(0 0 0.00116646)
(0 0 0.00132221)
(0 0 0.00147803)
(0 0 0.00163394)
(0 0 0.00178995)
(0 0 0.00194607)
(0 0 0.0021023)
(0 0 0.00225865)
(0 0 0.00241513)
(0 0 0.00257174)
(0 0 0.0027285)
(0 0 0.0028854)
(0 0 0.00304245)
(0 0 0.00319967)
(0 0 0.00335705)
(0 0 0.00351459)
(0 0 0.00367231)
(0 0 0.00383019)
(0 0 0.00398826)
(0 0 0.0041465)
(0 0 0.00430492)
(0 0 0.00446352)
(0 0 0.0046223)
(0 0 0.00478125)
(0 0 0.00494038)
(0 0 0.00509967)
(0 0 0.00525914)
(0 0 0.00541877)
(0 0 0.00557855)
(0 0 0.00573848)
(0 0 0.00589855)
(0 0 0.00605876)
(0 0 0.00621908)
(0 0 0.00637952)
(0 0 0.00654005)
(0 0 0.00670066)
(0 0 0.00686135)
(0 0 0.00702208)
(0 0 0.00718285)
(0 0 0.00734363)
(0 0 0.00750441)
(0 0 0.00766515)
(0 0 0.00782585)
(0 0 0.00798646)
(0 0 0.00814697)
(0 0 0.00830735)
(0 0 0.00846757)
(0 0 0.00862759)
(0 0 0.00878739)
(0 0 0.00894692)
(0 0 0.00910615)
(0 0 0.00926505)
(0 0 0.00942356)
(0 0 0.00958166)
(0 0 0.00973929)
(0 0 0.00989642)
(0 0 0.010053)
(0 0 0.010209)
(0 0 0.0103643)
(0 0 0.0105189)
(0 0 0.0106727)
(0 0 0.0108257)
(0 0 0.0109779)
(0 0 0.0111291)
(0 0 0.0112793)
(0 0 0.0114285)
(0 0 0.0115765)
(0 0 0.0117234)
(0 0 0.011869)
(0 0 0.0120132)
(0 0 0.0121561)
(0 0 0.0122976)
(0 0 0.0124375)
(0 0 0.0125758)
(0 0 0.0127124)
(0 0 0.0128472)
(0 0 0.0129803)
(0 0 0.0131114)
(0 0 0.0132405)
(0 0 0.0133676)
(0 0 0.0134926)
(0 0 0.0136153)
(0 0 0.0137358)
(0 0 0.0138539)
(0 0 0.0139695)
(0 0 0.0140827)
(0 0 0.0141932)
(0 0 0.0143011)
(0 0 0.0144062)
(0 0 0.0145085)
(0 0 0.0146079)
(0 0 0.0147043)
(0 0 0.0147977)
(0 0 0.0148881)
(0 0 0.0149752)
(0 0 0.0150591)
(0 0 0.0151397)
(0 0 0.015217)
(0 0 0.0152909)
(0 0 0.0153613)
(0 0 0.0154281)
(0 0 0.0154914)
(0 0 0.0155511)
(0 0 0.0156072)
(0 0 0.0156595)
(0 0 0.0157081)
(0 0 0.0157529)
(0 0 0.0157939)
(0 0 0.015831)
(0 0 0.0158643)
(0 0 0.0158937)
(0 0 0.0159193)
(0 0 0.0159409)
(0 0 0.0159586)
(0 0 0.0159723)
(0 0 0.0159821)
(0 0 0.015988)
(0 0 0.0159899)
(0 0 0.015988)
(0 0 0.0159821)
(0 0 0.0159723)
(0 0 0.0159586)
(0 0 0.0159411)
(0 0 0.0159197)
(0 0 0.0158945)
(0 0 0.0158656)
(0 0 0.0158329)
(0 0 0.0157965)
(0 0 0.0157564)
(0 0 0.0157127)
(0 0 0.0156655)
(0 0 0.0156147)
(0 0 0.0155604)
(0 0 0.0155027)
(0 0 0.0154417)
(0 0 0.0153773)
(0 0 0.0153097)
(0 0 0.0152388)
(0 0 0.0151649)
(0 0 0.0150879)
(0 0 0.0150078)
(0 0 0.0149249)
(0 0 0.014839)
(0 0 0.0147504)
(0 0 0.014659)
(0 0 0.014565)
(0 0 0.0144684)
(0 0 0.0143692)
(0 0 0.0142676)
(0 0 0.0141637)
(0 0 0.0140574)
(0 0 0.0139488)
(0 0 0.0138381)
(0 0 0.0137254)
(0 0 0.0136105)
(0 0 0.0134938)
(0 0 0.0133751)
(0 0 0.0132546)
(0 0 0.0131324)
(0 0 0.0130085)
(0 0 0.0128829)
(0 0 0.0127559)
(0 0 0.0126273)
(0 0 0.0124973)
(0 0 0.0123659)
(0 0 0.0122333)
(0 0 0.0120994)
(0 0 0.0119643)
(0 0 0.0118281)
(0 0 0.0116909)
(0 0 0.0115526)
(0 0 0.0114133)
(0 0 0.0112732)
(0 0 0.0111322)
(0 0 0.0109904)
(0 0 0.0108478)
(0 0 0.0107045)
(0 0 0.0105606)
(0 0 0.010416)
(0 0 0.0102708)
(0 0 0.0101251)
(0 0 0.00997895)
(0 0 0.00983229)
(0 0 0.00968521)
(0 0 0.00953774)
(0 0 0.00938992)
(0 0 0.00924177)
(0 0 0.00909333)
(0 0 0.00894462)
(0 0 0.00879569)
(0 0 0.00864655)
(0 0 0.00849723)
(0 0 0.00834775)
(0 0 0.00819815)
(0 0 0.00804843)
(0 0 0.00789863)
(0 0 0.00774877)
(0 0 0.00759886)
(0 0 0.00744892)
(0 0 0.00729896)
(0 0 0.00714902)
(0 0 0.00699909)
(0 0 0.00684919)
(0 0 0.00669934)
(0 0 0.00654955)
(0 0 0.00639982)
(0 0 0.00625018)
(0 0 0.00610062)
(0 0 0.00595116)
(0 0 0.00580181)
(0 0 0.00565257)
(0 0 0.00550345)
(0 0 0.00535445)
(0 0 0.00520557)
(0 0 0.00505683)
(0 0 0.00490823)
(0 0 0.00475976)
(0 0 0.00461144)
(0 0 0.00446325)
(0 0 0.00431521)
(0 0 0.00416732)
(0 0 0.00401956)
(0 0 0.00387195)
(0 0 0.00372448)
(0 0 0.00357715)
(0 0 0.00342995)
(0 0 0.0032829)
(0 0 0.00313597)
(0 0 0.00298917)
(0 0 0.0028425)
(0 0 0.00269595)
(0 0 0.00254952)
(0 0 0.0024032)
(0 0 0.00225698)
(0 0 0.00211087)
(0 0 0.00196486)
(0 0 0.00181894)
(0 0 0.0016731)
(0 0 0.00152734)
(0 0 0.00138165)
(0 0 0.00123604)
(0 0 0.00109048)
(0 0 0.000944971)
(0 0 0.000799512)
(0 0 0.000654092)
(0 0 0.000508705)
(0 0 0.000363343)
(0 0 0.000217998)
(0 0 7.26649e-05)
(0 0 9.49801e-05)
(0 0 0.000284946)
(0 0 0.00047493)
(0 0 0.000664944)
(0 0 0.000854999)
(0 0 0.00104511)
(0 0 0.00123528)
(0 0 0.00142553)
(0 0 0.00161587)
(0 0 0.0018063)
(0 0 0.00199684)
(0 0 0.00218751)
(0 0 0.0023783)
(0 0 0.00256923)
(0 0 0.00276031)
(0 0 0.00295155)
(0 0 0.00314295)
(0 0 0.00333453)
(0 0 0.00352629)
(0 0 0.00371823)
(0 0 0.00391037)
(0 0 0.00410272)
(0 0 0.00429526)
(0 0 0.00448802)
(0 0 0.00468099)
(0 0 0.00487418)
(0 0 0.00506758)
(0 0 0.00526121)
(0 0 0.00545505)
(0 0 0.00564911)
(0 0 0.00584339)
(0 0 0.00603789)
(0 0 0.0062326)
(0 0 0.00642751)
(0 0 0.00662262)
(0 0 0.00681792)
(0 0 0.00701341)
(0 0 0.00720907)
(0 0 0.0074049)
(0 0 0.00760088)
(0 0 0.00779699)
(0 0 0.00799322)
(0 0 0.00818956)
(0 0 0.00838599)
(0 0 0.00858248)
(0 0 0.00877901)
(0 0 0.00897556)
(0 0 0.00917211)
(0 0 0.00936863)
(0 0 0.00956508)
(0 0 0.00976145)
(0 0 0.00995769)
(0 0 0.0101538)
(0 0 0.0103497)
(0 0 0.0105453)
(0 0 0.0107407)
(0 0 0.0109357)
(0 0 0.0111304)
(0 0 0.0113247)
(0 0 0.0115185)
(0 0 0.0117119)
(0 0 0.0119046)
(0 0 0.0120968)
(0 0 0.0122882)
(0 0 0.0124789)
(0 0 0.0126689)
(0 0 0.0128579)
(0 0 0.0130461)
(0 0 0.0132332)
(0 0 0.0134193)
(0 0 0.0136042)
(0 0 0.013788)
(0 0 0.0139704)
(0 0 0.0141515)
(0 0 0.0143311)
(0 0 0.0145092)
(0 0 0.0146857)
(0 0 0.0148605)
(0 0 0.0150335)
(0 0 0.0152046)
(0 0 0.0153738)
(0 0 0.0155409)
(0 0 0.0157059)
(0 0 0.0158686)
(0 0 0.0160291)
(0 0 0.0161871)
(0 0 0.0163426)
(0 0 0.0164955)
(0 0 0.0166456)
(0 0 0.016793)
(0 0 0.0169375)
(0 0 0.017079)
(0 0 0.0172174)
(0 0 0.0173527)
(0 0 0.0174847)
(0 0 0.0176133)
(0 0 0.0177385)
(0 0 0.0178601)
(0 0 0.0179781)
(0 0 0.0180924)
(0 0 0.018203)
(0 0 0.0183096)
(0 0 0.0184123)
(0 0 0.018511)
(0 0 0.0186055)
(0 0 0.0186959)
(0 0 0.018782)
(0 0 0.0188639)
(0 0 0.0189413)
(0 0 0.0190144)
(0 0 0.0190829)
(0 0 0.019147)
(0 0 0.0192064)
(0 0 0.0192613)
(0 0 0.0193114)
(0 0 0.0193569)
(0 0 0.0193976)
(0 0 0.0194336)
(0 0 0.0194649)
(0 0 0.0194913)
(0 0 0.0195129)
(0 0 0.0195297)
(0 0 0.0195417)
(0 0 0.0195489)
(0 0 0.0195512)
(0 0 0.0195488)
(0 0 0.0195416)
(0 0 0.0195296)
(0 0 0.0195128)
(0 0 0.0194913)
(0 0 0.0194652)
(0 0 0.0194343)
(0 0 0.0193989)
(0 0 0.0193588)
(0 0 0.0193143)
(0 0 0.0192652)
(0 0 0.0192117)
(0 0 0.0191539)
(0 0 0.0190917)
(0 0 0.0190253)
(0 0 0.0189546)
(0 0 0.0188799)
(0 0 0.0188011)
(0 0 0.0187183)
(0 0 0.0186316)
(0 0 0.0185411)
(0 0 0.0184468)
(0 0 0.0183489)
(0 0 0.0182474)
(0 0 0.0181423)
(0 0 0.0180338)
(0 0 0.017922)
(0 0 0.017807)
(0 0 0.0176887)
(0 0 0.0175674)
(0 0 0.0174431)
(0 0 0.0173158)
(0 0 0.0171858)
(0 0 0.017053)
(0 0 0.0169176)
(0 0 0.0167796)
(0 0 0.0166391)
(0 0 0.0164962)
(0 0 0.0163511)
(0 0 0.0162037)
(0 0 0.0160541)
(0 0 0.0159025)
(0 0 0.015749)
(0 0 0.0155935)
(0 0 0.0154363)
(0 0 0.0152773)
(0 0 0.0151166)
(0 0 0.0149543)
(0 0 0.0147906)
(0 0 0.0146254)
(0 0 0.0144588)
(0 0 0.0142909)
(0 0 0.0141218)
(0 0 0.0139515)
(0 0 0.0137801)
(0 0 0.0136076)
(0 0 0.0134342)
(0 0 0.0132599)
(0 0 0.0130847)
(0 0 0.0129086)
(0 0 0.0127318)
(0 0 0.0125543)
(0 0 0.0123762)
(0 0 0.0121974)
(0 0 0.0120181)
(0 0 0.0118383)
(0 0 0.011658)
(0 0 0.0114772)
(0 0 0.0112961)
(0 0 0.0111146)
(0 0 0.0109328)
(0 0 0.0107507)
(0 0 0.0105684)
(0 0 0.0103858)
(0 0 0.0102031)
(0 0 0.0100202)
(0 0 0.00983715)
(0 0 0.00965402)
(0 0 0.00947082)
(0 0 0.00928755)
(0 0 0.00910426)
(0 0 0.00892095)
(0 0 0.00873765)
(0 0 0.00855437)
(0 0 0.00837114)
(0 0 0.00818797)
(0 0 0.00800486)
(0 0 0.00782185)
(0 0 0.00763893)
(0 0 0.00745612)
(0 0 0.00727343)
(0 0 0.00709088)
(0 0 0.00690846)
(0 0 0.00672618)
(0 0 0.00654406)
(0 0 0.0063621)
(0 0 0.0061803)
(0 0 0.00599867)
(0 0 0.0058172)
(0 0 0.00563592)
(0 0 0.0054548)
(0 0 0.00527386)
(0 0 0.0050931)
(0 0 0.00491251)
(0 0 0.0047321)
(0 0 0.00455186)
(0 0 0.00437179)
(0 0 0.00419189)
(0 0 0.00401216)
(0 0 0.00383259)
(0 0 0.00365318)
(0 0 0.00347392)
(0 0 0.00329481)
(0 0 0.00311585)
(0 0 0.00293702)
(0 0 0.00275833)
(0 0 0.00257976)
(0 0 0.00240131)
(0 0 0.00222297)
(0 0 0.00204474)
(0 0 0.0018666)
(0 0 0.00168855)
(0 0 0.00151059)
(0 0 0.0013327)
(0 0 0.00115487)
(0 0 0.000977101)
(0 0 0.00079938)
(0 0 0.000621699)
(0 0 0.000444049)
(0 0 0.00026642)
(0 0 8.88053e-05)
(0 0 0.000112235)
(0 0 0.000336713)
(0 0 0.000561211)
(0 0 0.000785745)
(0 0 0.00101033)
(0 0 0.00123497)
(0 0 0.0014597)
(0 0 0.00168451)
(0 0 0.00190943)
(0 0 0.00213446)
(0 0 0.00235963)
(0 0 0.00258493)
(0 0 0.00281039)
(0 0 0.00303601)
(0 0 0.00326181)
(0 0 0.0034878)
(0 0 0.00371399)
(0 0 0.00394038)
(0 0 0.00416698)
(0 0 0.00439382)
(0 0 0.00462088)
(0 0 0.00484818)
(0 0 0.00507573)
(0 0 0.00530352)
(0 0 0.00553157)
(0 0 0.00575988)
(0 0 0.00598844)
(0 0 0.00621727)
(0 0 0.00644636)
(0 0 0.00667571)
(0 0 0.00690533)
(0 0 0.00713519)
(0 0 0.00736531)
(0 0 0.00759568)
(0 0 0.00782628)
(0 0 0.00805711)
(0 0 0.00828817)
(0 0 0.00851943)
(0 0 0.00875089)
(0 0 0.00898253)
(0 0 0.00921434)
(0 0 0.00944629)
(0 0 0.00967837)
(0 0 0.00991056)
(0 0 0.0101428)
(0 0 0.0103751)
(0 0 0.0106075)
(0 0 0.0108398)
(0 0 0.0110722)
(0 0 0.0113044)
(0 0 0.0115366)
(0 0 0.0117686)
(0 0 0.0120004)
(0 0 0.012232)
(0 0 0.0124633)
(0 0 0.0126943)
(0 0 0.0129249)
(0 0 0.0131551)
(0 0 0.0133848)
(0 0 0.013614)
(0 0 0.0138426)
(0 0 0.0140706)
(0 0 0.0142978)
(0 0 0.0145242)
(0 0 0.0147497)
(0 0 0.0149744)
(0 0 0.015198)
(0 0 0.0154205)
(0 0 0.0156418)
(0 0 0.0158619)
(0 0 0.0160806)
(0 0 0.0162979)
(0 0 0.0165137)
(0 0 0.0167279)
(0 0 0.0169404)
(0 0 0.0171511)
(0 0 0.0173598)
(0 0 0.0175666)
(0 0 0.0177713)
(0 0 0.0179737)
(0 0 0.0181739)
(0 0 0.0183716)
(0 0 0.0185668)
(0 0 0.0187594)
(0 0 0.0189492)
(0 0 0.0191361)
(0 0 0.0193201)
(0 0 0.019501)
(0 0 0.0196787)
(0 0 0.0198531)
(0 0 0.0200241)
(0 0 0.0201916)
(0 0 0.0203554)
(0 0 0.0205154)
(0 0 0.0206716)
(0 0 0.0208238)
(0 0 0.020972)
(0 0 0.021116)
(0 0 0.0212556)
(0 0 0.0213909)
(0 0 0.0215217)
(0 0 0.0216479)
(0 0 0.0217695)
(0 0 0.0218863)
(0 0 0.0219982)
(0 0 0.0221052)
(0 0 0.0222071)
(0 0 0.022304)
(0 0 0.0223957)
(0 0 0.0224821)
(0 0 0.0225633)
(0 0 0.0226391)
(0 0 0.0227094)
(0 0 0.0227743)
(0 0 0.0228337)
(0 0 0.0228875)
(0 0 0.0229357)
(0 0 0.0229783)
(0 0 0.0230152)
(0 0 0.0230465)
(0 0 0.0230721)
(0 0 0.0230919)
(0 0 0.0231061)
(0 0 0.0231146)
(0 0 0.0231173)
(0 0 0.0231144)
(0 0 0.0231058)
(0 0 0.0230916)
(0 0 0.0230717)
(0 0 0.0230463)
(0 0 0.0230153)
(0 0 0.0229787)
(0 0 0.0229368)
(0 0 0.0228893)
(0 0 0.0228365)
(0 0 0.0227785)
(0 0 0.0227151)
(0 0 0.0226466)
(0 0 0.022573)
(0 0 0.0224943)
(0 0 0.0224107)
(0 0 0.0223222)
(0 0 0.0222289)
(0 0 0.0221309)
(0 0 0.0220283)
(0 0 0.0219211)
(0 0 0.0218095)
(0 0 0.0216935)
(0 0 0.0215734)
(0 0 0.021449)
(0 0 0.0213206)
(0 0 0.0211883)
(0 0 0.0210521)
(0 0 0.0209121)
(0 0 0.0207685)
(0 0 0.0206214)
(0 0 0.0204708)
(0 0 0.0203169)
(0 0 0.0201598)
(0 0 0.0199995)
(0 0 0.0198362)
(0 0 0.01967)
(0 0 0.019501)
(0 0 0.0193292)
(0 0 0.0191548)
(0 0 0.0189779)
(0 0 0.0187986)
(0 0 0.0186169)
(0 0 0.018433)
(0 0 0.018247)
(0 0 0.0180589)
(0 0 0.0178688)
(0 0 0.0176769)
(0 0 0.0174832)
(0 0 0.0172878)
(0 0 0.0170907)
(0 0 0.0168922)
(0 0 0.0166921)
(0 0 0.0164907)
(0 0 0.016288)
(0 0 0.0160841)
(0 0 0.015879)
(0 0 0.0156728)
(0 0 0.0154656)
(0 0 0.0152575)
(0 0 0.0150484)
(0 0 0.0148385)
(0 0 0.0146279)
(0 0 0.0144165)
(0 0 0.0142045)
(0 0 0.0139918)
(0 0 0.0137786)
(0 0 0.0135649)
(0 0 0.0133508)
(0 0 0.0131362)
(0 0 0.0129212)
(0 0 0.012706)
(0 0 0.0124904)
(0 0 0.0122746)
(0 0 0.0120586)
(0 0 0.0118423)
(0 0 0.011626)
(0 0 0.0114095)
(0 0 0.0111929)
(0 0 0.0109763)