/*--------------------------------*- C++ -*----------------------------------*\
| =========                 |                                                 |
| \\      /  F ield         | OpenFOAM: The Open Source CFD Toolbox           |
|  \\    /   O peration     | Version:  v2012                                 |
|   \\  /    A nd           | Website:  www.openfoam.com                      |
|    \\/     M anipulation  |                                                 |
\*---------------------------------------------------------------------------*/
FoamFile
{
    version     2.0;
    format      ascii;
    class       volScalarField;
    location    "14.25";
    object      W;
}
// * * * * * * * * * * * * * * * * * * * * * * * * * * * * * * * * * * * * * //

dimensions      [0 0 -1 0 0 0 0];


internalField   nonuniform List<scalar> 
65536
(
2.56626e-15
2.58137e-15
2.64808e-15
2.76686e-15
2.93913e-15
3.16717e-15
3.4542e-15
3.80439e-15
4.22288e-15
4.71588e-15
5.29067e-15
5.95576e-15
6.72094e-15
7.5974e-15
8.59789e-15
9.73679e-15
1.10304e-14
1.24969e-14
1.41568e-14
1.6033e-14
1.8151e-14
2.05394e-14
2.32299e-14
2.62577e-14
2.96618e-14
3.34855e-14
3.77767e-14
4.25883e-14
4.79786e-14
5.40119e-14
6.07588e-14
6.82973e-14
7.67125e-14
8.60979e-14
9.65558e-14
1.08198e-13
1.21147e-13
1.35535e-13
1.51507e-13
1.6922e-13
1.88846e-13
2.10568e-13
2.34586e-13
2.61116e-13
2.9039e-13
3.2266e-13
3.58192e-13
3.97275e-13
4.40217e-13
4.87346e-13
5.39015e-13
5.95594e-13
6.57481e-13
7.25094e-13
7.98876e-13
8.79293e-13
9.66837e-13
1.06202e-12
1.16539e-12
1.2775e-12
1.39893e-12
1.5303e-12
1.67223e-12
1.82536e-12
1.99037e-12
2.16793e-12
2.35873e-12
2.56348e-12
2.78289e-12
3.01767e-12
3.26855e-12
3.53623e-12
3.82142e-12
4.12482e-12
4.4471e-12
4.78891e-12
5.15089e-12
5.53363e-12
5.93767e-12
6.36354e-12
6.81168e-12
7.28251e-12
7.77635e-12
8.29347e-12
8.83407e-12
9.39825e-12
9.98605e-12
1.05974e-11
1.12321e-11
1.18899e-11
1.25705e-11
1.32734e-11
1.39979e-11
1.47434e-11
1.55091e-11
1.6294e-11
1.70972e-11
1.79174e-11
1.87535e-11
1.96039e-11
2.04674e-11
2.13424e-11
2.22271e-11
2.31198e-11
2.40188e-11
2.49221e-11
2.58279e-11
2.6734e-11
2.76385e-11
2.85392e-11
2.94341e-11
3.03209e-11
3.11976e-11
3.2062e-11
3.29119e-11
3.37452e-11
3.45598e-11
3.53535e-11
3.61244e-11
3.68704e-11
3.75894e-11
3.82797e-11
3.89393e-11
3.95663e-11
4.0159e-11
4.07157e-11
4.12347e-11
4.17144e-11
4.21533e-11
4.25499e-11
4.29028e-11
4.32106e-11
4.3472e-11
4.36857e-11
4.38505e-11
4.39653e-11
4.40291e-11
4.40408e-11
4.39994e-11
4.3904e-11
4.37539e-11
4.35484e-11
4.32867e-11
4.29684e-11
4.2593e-11
4.21604e-11
4.16702e-11
4.11226e-11
4.05177e-11
3.9856e-11
3.91381e-11
3.83648e-11
3.75374e-11
3.66572e-11
3.5726e-11
3.47458e-11
3.37191e-11
3.26486e-11
3.15375e-11
3.03892e-11
2.92077e-11
2.79972e-11
2.67623e-11
2.55078e-11
2.4239e-11
2.29614e-11
2.16806e-11
2.04025e-11
1.9133e-11
1.78781e-11
1.66437e-11
1.54358e-11
1.42598e-11
1.31212e-11
1.20251e-11
1.0976e-11
9.97823e-12
9.03532e-12
8.1504e-12
7.32594e-12
6.56378e-12
5.86513e-12
5.23053e-12
4.6599e-12
4.15253e-12
3.70713e-12
3.32183e-12
2.99426e-12
2.72154e-12
2.50038e-12
2.32709e-12
2.19764e-12
2.10773e-12
2.0528e-12
2.02811e-12
2.0288e-12
2.04996e-12
2.08665e-12
2.13401e-12
2.18735e-12
2.24217e-12
2.29428e-12
2.33988e-12
2.37562e-12
2.39867e-12
2.40678e-12
2.39834e-12
2.37236e-12
2.3285e-12
2.26707e-12
2.18895e-12
2.09555e-12
1.98873e-12
1.8707e-12
1.74394e-12
1.61104e-12
1.47464e-12
1.3373e-12
1.20145e-12
1.06925e-12
9.42592e-13
8.23012e-13
7.11708e-13
6.09516e-13
5.1693e-13
4.34129e-13
3.61014e-13
2.97254e-13
2.42329e-13
1.95587e-13
1.56283e-13
1.23624e-13
9.68036e-14
7.50346e-14
5.75698e-14
4.37193e-14
3.2861e-14
2.44454e-14
1.79974e-14
1.31129e-14
9.45464e-15
6.74582e-15
4.76267e-15
3.32717e-15
2.29981e-15
1.57285e-15
1.06426e-15
7.12494e-16
4.7198e-16
3.09466e-16
2.01026e-16
1.29707e-16
8.37059e-17
5.49998e-17
3.83436e-17
3.05763e-17
3.88783e-15
3.91076e-15
4.01204e-15
4.19236e-15
4.45384e-15
4.80001e-15
5.23575e-15
5.76743e-15
6.40289e-15
7.15158e-15
8.02464e-15
9.03503e-15
1.01977e-14
1.15297e-14
1.30505e-14
1.47821e-14
1.67493e-14
1.898e-14
2.15054e-14
2.43605e-14
2.75844e-14
3.12207e-14
3.53177e-14
3.99294e-14
4.51153e-14
5.09418e-14
5.74818e-14
6.48164e-14
7.30346e-14
8.22347e-14
9.25247e-14
1.04024e-13
1.16861e-13
1.31181e-13
1.47139e-13
1.64905e-13
1.84666e-13
2.06624e-13
2.31e-13
2.58034e-13
2.87984e-13
3.21131e-13
3.5778e-13
3.98256e-13
4.42911e-13
4.92125e-13
5.46303e-13
6.05878e-13
6.71315e-13
7.43108e-13
8.21782e-13
9.07896e-13
1.00204e-12
1.10483e-12
1.21694e-12
1.33905e-12
1.47188e-12
1.61619e-12
1.77276e-12
1.94242e-12
2.12601e-12
2.3244e-12
2.53849e-12
2.76921e-12
3.01748e-12
3.28426e-12
3.57051e-12
3.87719e-12
4.20528e-12
4.55573e-12
4.92949e-12
5.32749e-12
5.75063e-12
6.19978e-12
6.67577e-12
7.17936e-12
7.71128e-12
8.27217e-12
8.86259e-12
9.48304e-12
1.01339e-11
1.08154e-11
1.15278e-11
1.22711e-11
1.30453e-11
1.385e-11
1.46849e-11
1.55496e-11
1.64434e-11
1.73653e-11
1.83146e-11
1.92899e-11
2.029e-11
2.13135e-11
2.23586e-11
2.34237e-11
2.45067e-11
2.56057e-11
2.67183e-11
2.78423e-11
2.89752e-11
3.01144e-11
3.12572e-11
3.2401e-11
3.3543e-11
3.46802e-11
3.58099e-11
3.6929e-11
3.80347e-11
3.91241e-11
4.01943e-11
4.12424e-11
4.22656e-11
4.32613e-11
4.42268e-11
4.51594e-11
4.60568e-11
4.69165e-11
4.77363e-11
4.85141e-11
4.92478e-11
4.99355e-11
5.05754e-11
5.11659e-11
5.17055e-11
5.21928e-11
5.26264e-11
5.30052e-11
5.33282e-11
5.35943e-11
5.38028e-11
5.39528e-11
5.40437e-11
5.40749e-11
5.40459e-11
5.39562e-11
5.38056e-11
5.35936e-11
5.33203e-11
5.29852e-11
5.25885e-11
5.21302e-11
5.16103e-11
5.10291e-11
5.03869e-11
4.96841e-11
4.89213e-11
4.80993e-11
4.72189e-11
4.62812e-11
4.52876e-11
4.42395e-11
4.31388e-11
4.19874e-11
4.07879e-11
3.95427e-11
3.8255e-11
3.6928e-11
3.55655e-11
3.41714e-11
3.27501e-11
3.13064e-11
2.98453e-11
2.83721e-11
2.68923e-11
2.54119e-11
2.39368e-11
2.24731e-11
2.1027e-11
1.96046e-11
1.82121e-11
1.68552e-11
1.55397e-11
1.42709e-11
1.30538e-11
1.18929e-11
1.07923e-11
9.75524e-12
8.78467e-12
7.88271e-12
7.05088e-12
6.29e-12
5.60023e-12
4.98106e-12
4.43136e-12
3.94937e-12
3.53279e-12
3.17877e-12
2.88402e-12
2.64478e-12
2.45693e-12
2.31603e-12
2.21737e-12
2.156e-12
2.12682e-12
2.12462e-12
2.14414e-12
2.18017e-12
2.22756e-12
2.28135e-12
2.33682e-12
2.38958e-12
2.43566e-12
2.47155e-12
2.49433e-12
2.50164e-12
2.49183e-12
2.46386e-12
2.41742e-12
2.35281e-12
2.27098e-12
2.17338e-12
2.06197e-12
1.93904e-12
1.80714e-12
1.66897e-12
1.52728e-12
1.3847e-12
1.24374e-12
1.10664e-12
9.75338e-13
8.51427e-13
7.36133e-13
6.30313e-13
5.3447e-13
4.4878e-13
3.73135e-13
3.07184e-13
2.50386e-13
2.0206e-13
1.61432e-13
1.27679e-13
9.9966e-14
7.74761e-14
5.94359e-14
4.51313e-14
3.39185e-14
2.52295e-14
1.85727e-14
1.35308e-14
9.75506e-15
6.95956e-15
4.91316e-15
3.43203e-15
2.37211e-15
1.62217e-15
1.09756e-15
7.3474e-16
4.86685e-16
3.19088e-16
2.07264e-16
1.33724e-16
8.62938e-17
5.6697e-17
3.95247e-17
3.15177e-17
7.07751e-15
7.11946e-15
7.30435e-15
7.63346e-15
8.11066e-15
8.74241e-15
9.53771e-15
1.05082e-14
1.16683e-14
1.30354e-14
1.46298e-14
1.64755e-14
1.85997e-14
2.1034e-14
2.3814e-14
2.698e-14
3.05778e-14
3.46584e-14
3.92795e-14
4.45054e-14
5.04078e-14
5.7067e-14
6.45719e-14
7.30217e-14
8.25263e-14
9.32073e-14
1.05199e-13
1.18652e-13
1.33728e-13
1.50609e-13
1.69493e-13
1.906e-13
2.14169e-13
2.40462e-13
2.69767e-13
3.02396e-13
3.38693e-13
3.79028e-13
4.23806e-13
4.73467e-13
5.28484e-13
5.89373e-13
6.56686e-13
7.31022e-13
8.13023e-13
9.03376e-13
1.00282e-12
1.11214e-12
1.23218e-12
1.36384e-12
1.50805e-12
1.66582e-12
1.83822e-12
2.02635e-12
2.23139e-12
2.45456e-12
2.69714e-12
2.96046e-12
3.24591e-12
3.5549e-12
3.8889e-12
4.24942e-12
4.63799e-12
5.05617e-12
5.50552e-12
5.98764e-12
6.50411e-12
7.05648e-12
7.64632e-12
8.27512e-12
8.94436e-12
9.65543e-12
1.04097e-11
1.12083e-11
1.20524e-11
1.2943e-11
1.38809e-11
1.48669e-11
1.59015e-11
1.6985e-11
1.81175e-11
1.9299e-11
2.05291e-11
2.18071e-11
2.31324e-11
2.45037e-11
2.59196e-11
2.73786e-11
2.88786e-11
3.04173e-11
3.19923e-11
3.36007e-11
3.52393e-11
3.69047e-11
3.85935e-11
4.03015e-11
4.20249e-11
4.37591e-11
4.54997e-11
4.7242e-11
4.89813e-11
5.07127e-11
5.2431e-11
5.41314e-11
5.58088e-11
5.74581e-11
5.90744e-11
6.06528e-11
6.21885e-11
6.36768e-11
6.51133e-11
6.64937e-11
6.78138e-11
6.90699e-11
7.02584e-11
7.13759e-11
7.24195e-11
7.33862e-11
7.42738e-11
7.508e-11
7.58029e-11
7.64411e-11
7.69931e-11
7.74581e-11
7.78353e-11
7.81242e-11
7.83246e-11
7.84365e-11
7.84602e-11
7.8396e-11
7.82446e-11
7.80066e-11
7.76831e-11
7.7275e-11
7.67835e-11
7.62098e-11
7.55553e-11
7.48214e-11
7.40095e-11
7.31212e-11
7.21581e-11
7.11219e-11
7.00143e-11
6.88371e-11
6.75923e-11
6.62817e-11
6.49075e-11
6.34718e-11
6.1977e-11
6.04255e-11
5.882e-11
5.71635e-11
5.54589e-11
5.37095e-11
5.1919e-11
5.00912e-11
4.82302e-11
4.63405e-11
4.44269e-11
4.24943e-11
4.05483e-11
3.85944e-11
3.66385e-11
3.46868e-11
3.27458e-11
3.08218e-11
2.89215e-11
2.70515e-11
2.52186e-11
2.34291e-11
2.16894e-11
2.00057e-11
1.83836e-11
1.68284e-11
1.5345e-11
1.39377e-11
1.261e-11
1.13649e-11
1.02048e-11
9.13114e-12
8.14472e-12
7.2456e-12
6.43309e-12
5.70581e-12
5.06169e-12
4.49804e-12
4.01157e-12
3.59848e-12
3.25447e-12
2.97485e-12
2.75454e-12
2.58819e-12
2.47016e-12
2.39467e-12
2.35579e-12
2.34752e-12
2.36388e-12
2.39893e-12
2.44691e-12
2.50226e-12
2.55973e-12
2.61447e-12
2.66208e-12
2.69874e-12
2.72122e-12
2.72699e-12
2.71423e-12
2.68186e-12
2.62954e-12
2.55763e-12
2.46717e-12
2.35977e-12
2.23755e-12
2.10302e-12
1.95897e-12
1.8083e-12
1.654e-12
1.49891e-12
1.34574e-12
1.19689e-12
1.05445e-12
9.20133e-13
7.95238e-13
6.80677e-13
5.76976e-13
4.84311e-13
4.02548e-13
3.31297e-13
2.69961e-13
2.17795e-13
1.73956e-13
1.37549e-13
1.07667e-13
8.34243e-14
6.39844e-14
4.85744e-14
3.64985e-14
2.71431e-14
1.99776e-14
1.45515e-14
1.04891e-14
7.48202e-15
5.28114e-15
3.68851e-15
2.54901e-15
1.7429e-15
1.17909e-15
7.89215e-16
5.22706e-16
3.42665e-16
2.22554e-16
1.43573e-16
9.26396e-17
6.08597e-17
4.24225e-17
3.38263e-17
1.34991e-14
1.35796e-14
1.39334e-14
1.45628e-14
1.54754e-14
1.66836e-14
1.82046e-14
2.00609e-14
2.22803e-14
2.48959e-14
2.79472e-14
3.14799e-14
3.55469e-14
4.02084e-14
4.55332e-14
5.15991e-14
5.84938e-14
6.63161e-14
7.51767e-14
8.51995e-14
9.6523e-14
1.09302e-13
1.23707e-13
1.39931e-13
1.58184e-13
1.78702e-13
2.01745e-13
2.27598e-13
2.5658e-13
2.89039e-13
3.25358e-13
3.65959e-13
4.11304e-13
4.61899e-13
5.18298e-13
5.81105e-13
6.50979e-13
7.28635e-13
8.14853e-13
9.10476e-13
1.01642e-12
1.13366e-12
1.26328e-12
1.40641e-12
1.56429e-12
1.73822e-12
1.92963e-12
2.14001e-12
2.37096e-12
2.62418e-12
2.90147e-12
3.20473e-12
3.53596e-12
3.89725e-12
4.29081e-12
4.71893e-12
5.18399e-12
5.68846e-12
6.2349e-12
6.82593e-12
7.46422e-12
8.15252e-12
8.89359e-12
9.69023e-12
1.05452e-11
1.14614e-11
1.24414e-11
1.3488e-11
1.46038e-11
1.57914e-11
1.7053e-11
1.83909e-11
1.9807e-11
2.13033e-11
2.28812e-11
2.4542e-11
2.62865e-11
2.81155e-11
3.0029e-11
3.20269e-11
3.41085e-11
3.62727e-11
3.85178e-11
4.08418e-11
4.32419e-11
4.5715e-11
4.82574e-11
5.08646e-11
5.3532e-11
5.6254e-11
5.90248e-11
6.18379e-11
6.46864e-11
6.75628e-11
7.04594e-11
7.33679e-11
7.62797e-11
7.91861e-11
8.20779e-11
8.49459e-11
8.77807e-11
9.05729e-11
9.3313e-11
9.59918e-11
9.86e-11
1.01129e-10
1.03569e-10
1.05913e-10
1.08152e-10
1.1028e-10
1.12288e-10
1.1417e-10
1.15921e-10
1.17535e-10
1.19007e-10
1.20334e-10
1.21511e-10
1.22537e-10
1.23409e-10
1.24126e-10
1.24686e-10
1.2509e-10
1.25339e-10
1.25432e-10
1.25372e-10
1.2516e-10
1.248e-10
1.24293e-10
1.23643e-10
1.22854e-10
1.21929e-10
1.20872e-10
1.19687e-10
1.1838e-10
1.16954e-10
1.15413e-10
1.13764e-10
1.12009e-10
1.10155e-10
1.08204e-10
1.06164e-10
1.04037e-10
1.01828e-10
9.95428e-11
9.7185e-11
9.47594e-11
9.22706e-11
8.97231e-11
8.71216e-11
8.44708e-11
8.17755e-11
7.90406e-11
7.6271e-11
7.34721e-11
7.06492e-11
6.78078e-11
6.49538e-11
6.20933e-11
5.92325e-11
5.63779e-11
5.35362e-11
5.07144e-11
4.79196e-11
4.51591e-11
4.24402e-11
3.97703e-11
3.71568e-11
3.46071e-11
3.21282e-11
2.97271e-11
2.74104e-11
2.51841e-11
2.30539e-11
2.1025e-11
1.91017e-11
1.72877e-11
1.5586e-11
1.39986e-11
1.25269e-11
1.11712e-11
9.93118e-12
8.80543e-12
7.79185e-12
6.88758e-12
6.08898e-12
5.39178e-12
4.79108e-12
4.28144e-12
3.85699e-12
3.51141e-12
3.2381e-12
3.03017e-12
2.88053e-12
2.78198e-12
2.72725e-12
2.70907e-12
2.72023e-12
2.75368e-12
2.80261e-12
2.86051e-12
2.92126e-12
2.97923e-12
3.02939e-12
3.06733e-12
3.08939e-12
3.09271e-12
3.07523e-12
3.03576e-12
2.97394e-12
2.89022e-12
2.78579e-12
2.6625e-12
2.52278e-12
2.36946e-12
2.20567e-12
2.03473e-12
1.85995e-12
1.68455e-12
1.51154e-12
1.34361e-12
1.18308e-12
1.03185e-12
8.9135e-13
7.62582e-13
6.46108e-13
5.42102e-13
4.50392e-13
3.70521e-13
3.01806e-13
2.43395e-13
1.94333e-13
1.53608e-13
1.20197e-13
9.31035e-14
7.13862e-14
5.41776e-14
4.06973e-14
3.02575e-14
2.2264e-14
1.6213e-14
1.1684e-14
8.33243e-15
5.88013e-15
4.10601e-15
2.83697e-15
1.93944e-15
1.31181e-15
8.77903e-16
5.8135e-16
3.81051e-16
2.47448e-16
1.5961e-16
1.02972e-16
6.76382e-17
4.71411e-17
3.75853e-17
2.5795e-14
2.59502e-14
2.66286e-14
2.7835e-14
2.95839e-14
3.18992e-14
3.48143e-14
3.83723e-14
4.26267e-14
4.76417e-14
5.34931e-14
6.02692e-14
6.80717e-14
7.70171e-14
8.72378e-14
9.8884e-14
1.12125e-13
1.27151e-13
1.44177e-13
1.63441e-13
1.85212e-13
2.09786e-13
2.37498e-13
2.68714e-13
3.03847e-13
3.43348e-13
3.87722e-13
4.37522e-13
4.93361e-13
5.55914e-13
6.25924e-13
7.04204e-13
7.9165e-13
8.8924e-13
9.98045e-13
1.11923e-12
1.25408e-12
1.40396e-12
1.57038e-12
1.75498e-12
1.95952e-12
2.18589e-12
2.43615e-12
2.7125e-12
3.01731e-12
3.35311e-12
3.72261e-12
4.12868e-12
4.57439e-12
5.06299e-12
5.59789e-12
6.18273e-12
6.8213e-12
7.51759e-12
8.27574e-12
9.10007e-12
9.99508e-12
1.09654e-11
1.20157e-11
1.3151e-11
1.43762e-11
1.56962e-11
1.71162e-11
1.86411e-11
2.02761e-11
2.2026e-11
2.38957e-11
2.58898e-11
2.80129e-11
3.0269e-11
3.2662e-11
3.51954e-11
3.78722e-11
4.0695e-11
4.36658e-11
4.67857e-11
5.00556e-11
5.34752e-11
5.70438e-11
6.07594e-11
6.46194e-11
6.86202e-11
7.27571e-11
7.70245e-11
8.14156e-11
8.59228e-11
9.05372e-11
9.52489e-11
1.00047e-10
1.0492e-10
1.09854e-10
1.14836e-10
1.19851e-10
1.24884e-10
1.29919e-10
1.34939e-10
1.39927e-10
1.44865e-10
1.49736e-10
1.54523e-10
1.59206e-10
1.63769e-10
1.68194e-10
1.72465e-10
1.76564e-10
1.80477e-10
1.84189e-10
1.87685e-10
1.90953e-10
1.93981e-10
1.96758e-10
1.99276e-10
2.01526e-10
2.03501e-10
2.05196e-10
2.06608e-10
2.07734e-10
2.08572e-10
2.09123e-10
2.09388e-10
2.0937e-10
2.09073e-10
2.08501e-10
2.07661e-10
2.06559e-10
2.05203e-10
2.03602e-10
2.01763e-10
1.99698e-10
1.97415e-10
1.94925e-10
1.92239e-10
1.89366e-10
1.86319e-10
1.83108e-10
1.79743e-10
1.76235e-10
1.72595e-10
1.68834e-10
1.6496e-10
1.60984e-10
1.56916e-10
1.52765e-10
1.48539e-10
1.44249e-10
1.39901e-10
1.35506e-10
1.3107e-10
1.26601e-10
1.22108e-10
1.17599e-10
1.1308e-10
1.08559e-10
1.04045e-10
9.95445e-11
9.50654e-11
9.06155e-11
8.62028e-11
8.18352e-11
7.75209e-11
7.32681e-11
6.90851e-11
6.49802e-11
6.09617e-11
5.7038e-11
5.32173e-11
4.95075e-11
4.59164e-11
4.24514e-11
3.91196e-11
3.59272e-11
3.28802e-11
2.99837e-11
2.72419e-11
2.46584e-11
2.22356e-11
1.99751e-11
1.78775e-11
1.59422e-11
1.41678e-11
1.25518e-11
1.10906e-11
9.77992e-12
8.61445e-12
7.58816e-12
6.69431e-12
5.92555e-12
5.274e-12
4.73132e-12
4.28885e-12
3.93765e-12
3.66857e-12
3.47236e-12
3.33976e-12
3.26149e-12
3.22843e-12
3.2316e-12
3.26233e-12
3.31226e-12
3.3735e-12
3.43869e-12
3.5011e-12
3.55471e-12
3.59434e-12
3.61568e-12
3.61537e-12
3.59105e-12
3.54135e-12
3.46588e-12
3.36521e-12
3.24077e-12
3.09475e-12
2.92998e-12
2.74978e-12
2.55779e-12
2.35786e-12
2.15383e-12
1.94942e-12
1.74808e-12
1.55291e-12
1.36656e-12
1.19118e-12
1.02842e-12
8.79377e-13
7.4468e-13
6.24496e-13
5.18599e-13
4.26436e-13
3.47197e-13
2.79882e-13
2.23374e-13
1.76493e-13
1.38052e-13
1.06895e-13
8.19321e-14
6.21605e-14
4.66788e-14
3.46939e-14
2.5521e-14
1.85795e-14
1.33858e-14
9.54362e-15
6.7332e-15
4.70059e-15
3.24706e-15
2.21931e-15
1.50081e-15
1.00419e-15
6.64854e-16
4.35707e-16
2.82892e-16
1.82442e-16
1.17684e-16
7.7289e-17
5.38591e-17
4.2937e-17
4.88073e-14
4.91035e-14
5.03922e-14
5.26825e-14
5.60022e-14
6.03969e-14
6.59303e-14
7.2685e-14
8.0763e-14
9.02868e-14
1.01401e-13
1.14275e-13
1.29102e-13
1.46106e-13
1.65538e-13
1.87687e-13
2.12876e-13
2.4147e-13
2.73877e-13
3.10556e-13
3.52019e-13
3.98836e-13
4.51645e-13
5.11152e-13
5.78143e-13
6.53486e-13
7.38146e-13
8.33187e-13
9.39782e-13
1.05923e-12
1.19294e-12
1.34249e-12
1.50959e-12
1.69612e-12
1.90412e-12
2.13585e-12
2.39373e-12
2.68043e-12
2.99882e-12
3.35203e-12
3.74342e-12
4.17664e-12
4.65561e-12
5.18455e-12
5.76796e-12
6.41069e-12
7.11789e-12
7.89504e-12
8.74797e-12
9.68284e-12
1.07062e-11
1.18248e-11
1.30458e-11
1.43769e-11
1.58257e-11
1.74004e-11
1.91094e-11
2.09612e-11
2.29648e-11
2.5129e-11
2.74631e-11
2.99761e-11
3.26773e-11
3.55757e-11
3.86804e-11
4.2e-11
4.5543e-11
4.93174e-11
5.33308e-11
5.759e-11
6.21012e-11
6.68697e-11
7.19e-11
7.71952e-11
8.27574e-11
8.85875e-11
9.46847e-11
1.01047e-10
1.0767e-10
1.14548e-10
1.21675e-10
1.2904e-10
1.36632e-10
1.44439e-10
1.52444e-10
1.6063e-10
1.68978e-10
1.77467e-10
1.86074e-10
1.94772e-10
2.03537e-10
2.12339e-10
2.21149e-10
2.29937e-10
2.38669e-10
2.47314e-10
2.55839e-10
2.64209e-10
2.72392e-10
2.80354e-10
2.88062e-10
2.95485e-10
3.02591e-10
3.09351e-10
3.15736e-10
3.2172e-10
3.27279e-10
3.32391e-10
3.37036e-10
3.41197e-10
3.44858e-10
3.48009e-10
3.50639e-10
3.52743e-10
3.54316e-10
3.55359e-10
3.55872e-10
3.55861e-10
3.55332e-10
3.54295e-10
3.5276e-10
3.50742e-10
3.48256e-10
3.45319e-10
3.41949e-10
3.38166e-10
3.33991e-10
3.29445e-10
3.2455e-10
3.19329e-10
3.13805e-10
3.08001e-10
3.01939e-10
2.95642e-10
2.89133e-10
2.82432e-10
2.75561e-10
2.68541e-10
2.61392e-10
2.54131e-10
2.46779e-10
2.39351e-10
2.31865e-10
2.24336e-10
2.1678e-10
2.0921e-10
2.01641e-10
1.94085e-10
1.86554e-10
1.7906e-10
1.71615e-10
1.64229e-10
1.56913e-10
1.49677e-10
1.42532e-10
1.35486e-10
1.2855e-10
1.21732e-10
1.15044e-10
1.08493e-10
1.0209e-10
9.58433e-11
8.97619e-11
8.38548e-11
7.81305e-11
7.25976e-11
6.72637e-11
6.21364e-11
5.72226e-11
5.25284e-11
4.80592e-11
4.38196e-11
3.98132e-11
3.60425e-11
3.25088e-11
2.92125e-11
2.61526e-11
2.33268e-11
2.07317e-11
1.83627e-11
1.6214e-11
1.42786e-11
1.25486e-11
1.10151e-11
9.66861e-12
8.49857e-12
7.49405e-12
6.64358e-12
5.9353e-12
5.35712e-12
4.89677e-12
4.54193e-12
4.28026e-12
4.09958e-12
3.98785e-12
3.93333e-12
3.9246e-12
3.95072e-12
4.00123e-12
4.06635e-12
4.13698e-12
4.20489e-12
4.26276e-12
4.30431e-12
4.32436e-12
4.3189e-12
4.28512e-12
4.22142e-12
4.12739e-12
4.00376e-12
3.85225e-12
3.67551e-12
3.47694e-12
3.26051e-12
3.03054e-12
2.7916e-12
2.54822e-12
2.30479e-12
2.06538e-12
1.8336e-12
1.61257e-12
1.40479e-12
1.21214e-12
1.0359e-12
8.76757e-13
7.34877e-13
6.0996e-13
5.0132e-13
4.07978e-13
3.28732e-13
2.62249e-13
2.07124e-13
1.61948e-13
1.2535e-13
9.60423e-14
7.28402e-14
5.46803e-14
4.06279e-14
2.98768e-14
2.17442e-14
1.56614e-14
1.1163e-14
7.87369e-15
5.49544e-15
3.79522e-15
2.59339e-15
1.75341e-15
1.17296e-15
7.76447e-16
5.08744e-16
3.30255e-16
2.12951e-16
1.3734e-16
9.01834e-17
6.28346e-17
5.00869e-17
9.1182e-14
9.1741e-14
9.4159e-14
9.84535e-14
1.04677e-13
1.12916e-13
1.2329e-13
1.35956e-13
1.51104e-13
1.68968e-13
1.8982e-13
2.13978e-13
2.41809e-13
2.73733e-13
3.10228e-13
3.51836e-13
3.9917e-13
4.52917e-13
5.13852e-13
5.8284e-13
6.60851e-13
7.48966e-13
8.48387e-13
9.60454e-13
1.08665e-12
1.22864e-12
1.38822e-12
1.56743e-12
1.76849e-12
1.99384e-12
2.2462e-12
2.52852e-12
2.84405e-12
3.19636e-12
3.58934e-12
4.02723e-12
4.51466e-12
5.05667e-12
5.6587e-12
6.32668e-12
7.06699e-12
7.88654e-12
8.79274e-12
9.79356e-12
1.08975e-11
1.21138e-11
1.34521e-11
1.49228e-11
1.65367e-11
1.83056e-11
2.02417e-11
2.23577e-11
2.46671e-11
2.7184e-11
2.99229e-11
3.28988e-11
3.61273e-11
3.96244e-11
4.34062e-11
4.74893e-11
5.18902e-11
5.66256e-11
6.1712e-11
6.71658e-11
7.30029e-11
7.92385e-11
8.58873e-11
9.2963e-11
1.00478e-10
1.08444e-10
1.1687e-10
1.25764e-10
1.35132e-10
1.44977e-10
1.55301e-10
1.66102e-10
1.77375e-10
1.89114e-10
2.01306e-10
2.13938e-10
2.26992e-10
2.40446e-10
2.54275e-10
2.68449e-10
2.82936e-10
2.97698e-10
3.12696e-10
3.27884e-10
3.43216e-10
3.58641e-10
3.74106e-10
3.89555e-10
4.04928e-10
4.20167e-10
4.3521e-10
4.49994e-10
4.64457e-10
4.78537e-10
4.92171e-10
5.05298e-10
5.17861e-10
5.29801e-10
5.41066e-10
5.51604e-10
5.61369e-10
5.70318e-10
5.78412e-10
5.85617e-10
5.91906e-10
5.97255e-10
6.01647e-10
6.05069e-10
6.07514e-10
6.08981e-10
6.09475e-10
6.09004e-10
6.07584e-10
6.05232e-10
6.01974e-10
5.97836e-10
5.9285e-10
5.87051e-10
5.80476e-10
5.73165e-10
5.65162e-10
5.56509e-10
5.47251e-10
5.37435e-10
5.27107e-10
5.16312e-10
5.05098e-10
4.93509e-10
4.8159e-10
4.69384e-10
4.56933e-10
4.44277e-10
4.31456e-10
4.18506e-10
4.05462e-10
3.92357e-10
3.79222e-10
3.66087e-10
3.52979e-10
3.39923e-10
3.26942e-10
3.14059e-10
3.01293e-10
2.88664e-10
2.76189e-10
2.63883e-10
2.51762e-10
2.3984e-10
2.28129e-10
2.16642e-10
2.0539e-10
1.94384e-10
1.83635e-10
1.73152e-10
1.62946e-10
1.53024e-10
1.43398e-10
1.34073e-10
1.2506e-10
1.16366e-10
1.07998e-10
9.99624e-11
9.2266e-11
8.49139e-11
7.79108e-11
7.12604e-11
6.49651e-11
5.90265e-11
5.34448e-11
4.82189e-11
4.33462e-11
3.88229e-11
3.46434e-11
3.0801e-11
2.72873e-11
2.40927e-11
2.12062e-11
1.86156e-11
1.63076e-11
1.42679e-11
1.24816e-11
1.09329e-11
9.60555e-12
8.48298e-12
7.54835e-12
6.78471e-12
6.17515e-12
5.70289e-12
5.35139e-12
5.10441e-12
4.94616e-12
4.86133e-12
4.83522e-12
4.8538e-12
4.90382e-12
4.97293e-12
5.04978e-12
5.1241e-12
5.18685e-12
5.23032e-12
5.24816e-12
5.2355e-12
5.18897e-12
5.10666e-12
4.98812e-12
4.83427e-12
4.64727e-12
4.43033e-12
4.1876e-12
3.92387e-12
3.64439e-12
3.35461e-12
3.06001e-12
2.76582e-12
2.4769e-12
2.19756e-12
1.93148e-12
1.68161e-12
1.45018e-12
1.23864e-12
1.0478e-12
8.77794e-13
7.28223e-13
5.98236e-13
4.86625e-13
3.91931e-13
3.12533e-13
2.46738e-13
1.92845e-13
1.49209e-13
1.14281e-13
8.66426e-14
6.50199e-14
4.82948e-14
3.5504e-14
2.58319e-14
1.86004e-14
1.32543e-14
9.34636e-15
6.52169e-15
4.50291e-15
3.07629e-15
2.07946e-15
1.3908e-15
9.20466e-16
6.02998e-16
3.91373e-16
2.52318e-16
1.62702e-16
1.06819e-16
7.44141e-17
5.93108e-17
1.68083e-13
1.69124e-13
1.73603e-13
1.81551e-13
1.93068e-13
2.08313e-13
2.27511e-13
2.50952e-13
2.78994e-13
3.12068e-13
3.50682e-13
3.95431e-13
4.46996e-13
5.06162e-13
5.7382e-13
6.50981e-13
7.38786e-13
8.38523e-13
9.51633e-13
1.07974e-12
1.22464e-12
1.38837e-12
1.57317e-12
1.78155e-12
2.01629e-12
2.28047e-12
2.57751e-12
2.91118e-12
3.28565e-12
3.70552e-12
4.17583e-12
4.70216e-12
5.29058e-12
5.94777e-12
6.68102e-12
7.49831e-12
8.40828e-12
9.42039e-12
1.05448e-11
1.17927e-11
1.3176e-11
1.47076e-11
1.64015e-11
1.82724e-11
2.03365e-11
2.26107e-11
2.51132e-11
2.78633e-11
3.08815e-11
3.41893e-11
3.78095e-11
4.1766e-11
4.60835e-11
5.07882e-11
5.59068e-11
6.14671e-11
6.74977e-11
7.40277e-11
8.10869e-11
8.87051e-11
9.69124e-11
1.05739e-10
1.15214e-10
1.25367e-10
1.36225e-10
1.47815e-10
1.60163e-10
1.73291e-10
1.87221e-10
2.01969e-10
2.1755e-10
2.33976e-10
2.51253e-10
2.69383e-10
2.88365e-10
3.08189e-10
3.28842e-10
3.50303e-10
3.72548e-10
3.95543e-10
4.19247e-10
4.43614e-10
4.6859e-10
4.94114e-10
5.20117e-10
5.46523e-10
5.73252e-10
6.00215e-10
6.27317e-10
6.54458e-10
6.81536e-10
7.0844e-10
7.35059e-10
7.61279e-10
7.86985e-10
8.12059e-10
8.36387e-10
8.59853e-10
8.82346e-10
9.03757e-10
9.23983e-10
9.42926e-10
9.60493e-10
9.76602e-10
9.91175e-10
1.00415e-09
1.01546e-09
1.02506e-09
1.03292e-09
1.03901e-09
1.04331e-09
1.04582e-09
1.04655e-09
1.0455e-09
1.04271e-09
1.03821e-09
1.03205e-09
1.02427e-09
1.01494e-09
1.00413e-09
9.91905e-10
9.78349e-10
9.63543e-10
9.47572e-10
9.30526e-10
9.12493e-10
8.93567e-10
8.73836e-10
8.53393e-10
8.32326e-10
8.10722e-10
7.88666e-10
7.66241e-10
7.43524e-10
7.20591e-10
6.97513e-10
6.74357e-10
6.51185e-10
6.28057e-10
6.05026e-10
5.82143e-10
5.59454e-10
5.36999e-10
5.14818e-10
4.92944e-10
4.71409e-10
4.50239e-10
4.29459e-10
4.09091e-10
3.89154e-10
3.69666e-10
3.50641e-10
3.32092e-10
3.14031e-10
2.96468e-10
2.79413e-10
2.62873e-10
2.46856e-10
2.31369e-10
2.16416e-10
2.02003e-10
1.88136e-10
1.74816e-10
1.62049e-10
1.49836e-10
1.3818e-10
1.27081e-10
1.1654e-10
1.06555e-10
9.71246e-11
8.82454e-11
7.99125e-11
7.21194e-11
6.48584e-11
5.81198e-11
5.18925e-11
4.61636e-11
4.09187e-11
3.61416e-11
3.18147e-11
2.79191e-11
2.44346e-11
2.13399e-11
1.86128e-11
1.62304e-11
1.41694e-11
1.24059e-11
1.09162e-11
9.67634e-12
8.6627e-12
7.85192e-12
7.22112e-12
6.74798e-12
6.41082e-12
6.18874e-12
6.06169e-12
6.01054e-12
6.0172e-12
6.06473e-12
6.1374e-12
6.22087e-12
6.30225e-12
6.37026e-12
6.41529e-12
6.42952e-12
6.40697e-12
6.34351e-12
6.23685e-12
6.0865e-12
5.89363e-12
5.66091e-12
5.39233e-12
5.09296e-12
4.76866e-12
4.42582e-12
4.07109e-12
3.71107e-12
3.35211e-12
3.00006e-12
2.66011e-12
2.33666e-12
2.03322e-12
1.75243e-12
1.49602e-12
1.26487e-12
1.05912e-12
8.78235e-13
7.21139e-13
5.86338e-13
4.72039e-13
3.76258e-13
2.96929e-13
2.31985e-13
1.79426e-13
1.37377e-13
1.04117e-13
7.81083e-14
5.79985e-14
4.26249e-14
3.10041e-14
2.23186e-14
1.58997e-14
1.12089e-14
7.8195e-15
5.39776e-15
3.68683e-15
2.49165e-15
1.66616e-15
1.1025e-15
7.22125e-16
4.68612e-16
3.02065e-16
1.94749e-16
1.2784e-16
8.90444e-17
7.09645e-17
3.05684e-13
3.07602e-13
3.15789e-13
3.30309e-13
3.51341e-13
3.79183e-13
4.14246e-13
4.57063e-13
5.08293e-13
5.6873e-13
6.39308e-13
7.21118e-13
8.15418e-13
9.2365e-13
1.04745e-12
1.1887e-12
1.34947e-12
1.53216e-12
1.73942e-12
1.97424e-12
2.23995e-12
2.54028e-12
2.87939e-12
3.26191e-12
3.69297e-12
4.17827e-12
4.72413e-12
5.33754e-12
6.02619e-12
6.79859e-12
7.6641e-12
8.63301e-12
9.71658e-12
1.09272e-11
1.22783e-11
1.37848e-11
1.54626e-11
1.73292e-11
1.94035e-11
2.17062e-11
2.42593e-11
2.70868e-11
3.02144e-11
3.36697e-11
3.74821e-11
4.16834e-11
4.63069e-11
5.13885e-11
5.69657e-11
6.30783e-11
6.97683e-11
7.70795e-11
8.50575e-11
9.375e-11
1.03206e-10
1.13477e-10
1.24613e-10
1.3667e-10
1.49699e-10
1.63755e-10
1.78892e-10
1.95164e-10
2.12622e-10
2.31319e-10
2.51302e-10
2.72618e-10
2.9531e-10
3.19416e-10
3.44969e-10
3.71997e-10
4.00521e-10
4.30556e-10
4.62108e-10
4.95172e-10
5.29736e-10
5.65778e-10
6.03262e-10
6.42142e-10
6.8236e-10
7.23844e-10
7.66511e-10
8.10263e-10
8.54988e-10
9.00563e-10
9.46852e-10
9.93703e-10
1.04096e-09
1.08844e-09
1.13597e-09
1.18336e-09
1.2304e-09
1.27689e-09
1.32262e-09
1.36737e-09
1.41094e-09
1.45311e-09
1.49367e-09
1.53241e-09
1.56913e-09
1.60365e-09
1.63579e-09
1.66537e-09
1.69226e-09
1.7163e-09
1.73739e-09
1.75542e-09
1.77032e-09
1.78201e-09
1.79047e-09
1.79566e-09
1.79759e-09
1.79629e-09
1.79178e-09
1.78414e-09
1.77343e-09
1.75976e-09
1.74323e-09
1.72396e-09
1.7021e-09
1.67779e-09
1.65118e-09
1.62244e-09
1.59175e-09
1.55926e-09
1.52516e-09
1.48963e-09
1.45283e-09
1.41494e-09
1.37614e-09
1.33657e-09
1.29642e-09
1.25581e-09
1.21491e-09
1.17384e-09
1.13273e-09
1.09172e-09
1.05089e-09
1.01037e-09
9.70236e-10
9.30579e-10
8.91474e-10
8.52989e-10
8.15184e-10
7.78112e-10
7.41818e-10
7.06341e-10
6.71715e-10
6.37967e-10
6.05119e-10
5.7319e-10
5.42194e-10
5.12142e-10
4.8304e-10
4.54895e-10
4.27708e-10
4.01481e-10
3.76212e-10
3.51899e-10
3.28538e-10
3.06126e-10
2.84656e-10
2.64123e-10
2.4452e-10
2.2584e-10
2.08073e-10
1.91211e-10
1.75244e-10
1.6016e-10
1.45948e-10
1.32594e-10
1.20082e-10
1.08397e-10
9.75205e-11
8.74324e-11
7.81115e-11
6.95344e-11
6.16762e-11
5.451e-11
4.80076e-11
4.21391e-11
3.68736e-11
3.21787e-11
2.80214e-11
2.43679e-11
2.11839e-11
1.84352e-11
1.60873e-11
1.41061e-11
1.2458e-11
1.11101e-11
1.00302e-11
9.18715e-12
8.55068e-12
8.09188e-12
7.783e-12
7.59766e-12
7.51091e-12
7.49932e-12
7.54106e-12
7.61604e-12
7.70604e-12
7.79477e-12
7.86803e-12
7.91382e-12
7.92241e-12
7.88639e-12
7.80067e-12
7.6625e-12
7.4713e-12
7.22856e-12
6.93764e-12
6.60347e-12
6.2323e-12
5.83133e-12
5.40841e-12
4.97164e-12
4.5291e-12
4.08849e-12
3.65692e-12
3.24067e-12
2.84503e-12
2.47424e-12
2.13143e-12
1.81864e-12
1.53689e-12
1.28629e-12
1.06612e-12
8.75027e-13
7.11158e-13
5.72291e-13
4.55989e-13
3.59713e-13
2.80934e-13
2.17209e-13
1.66249e-13
1.25958e-13
9.44637e-14
7.0122e-14
5.15201e-14
3.7464e-14
2.69617e-14
1.92026e-14
1.35342e-14
9.43948e-15
6.51462e-15
4.44876e-15
3.00599e-15
2.00973e-15
1.32961e-15
8.70729e-16
5.64957e-16
3.64112e-16
2.34718e-16
1.54053e-16
1.07288e-16
8.54961e-17
5.48483e-13
5.51968e-13
5.66743e-13
5.92921e-13
6.30832e-13
6.81014e-13
7.44217e-13
8.21408e-13
9.13783e-13
1.02278e-12
1.1501e-12
1.29773e-12
1.46794e-12
1.66337e-12
1.88698e-12
2.14218e-12
2.43279e-12
2.76311e-12
3.13801e-12
3.5629e-12
4.04389e-12
4.58776e-12
5.2021e-12
5.89533e-12
6.67685e-12
7.55705e-12
8.54748e-12
9.66088e-12
1.09113e-11
1.23144e-11
1.38872e-11
1.56485e-11
1.7619e-11
1.98213e-11
2.22801e-11
2.50225e-11
2.80777e-11
3.14779e-11
3.52576e-11
3.94546e-11
4.41093e-11
4.92657e-11
5.49706e-11
6.12748e-11
6.82321e-11
7.59003e-11
8.43408e-11
9.36186e-11
1.03803e-10
1.14966e-10
1.27184e-10
1.40536e-10
1.55107e-10
1.70983e-10
1.88252e-10
2.07007e-10
2.2734e-10
2.49349e-10
2.73128e-10
2.98775e-10
3.26386e-10
3.56055e-10
3.87876e-10
4.21936e-10
4.58322e-10
4.97111e-10
5.38376e-10
5.8218e-10
6.28577e-10
6.77608e-10
7.29305e-10
7.83681e-10
8.40737e-10
9.00454e-10
9.62796e-10
1.02771e-09
1.09511e-09
1.1649e-09
1.23696e-09
1.31114e-09
1.38727e-09
1.46515e-09
1.54457e-09
1.62527e-09
1.707e-09
1.78946e-09
1.87233e-09
1.9553e-09
2.03801e-09
2.12011e-09
2.20121e-09
2.28093e-09
2.35889e-09
2.43469e-09
2.50795e-09
2.57828e-09
2.6453e-09
2.70866e-09
2.76799e-09
2.82299e-09
2.87333e-09
2.91876e-09
2.95902e-09
2.9939e-09
3.02322e-09
3.04683e-09
3.06464e-09
3.07657e-09
3.0826e-09
3.08275e-09
3.07706e-09
3.06562e-09
3.04855e-09
3.02601e-09
2.9982e-09
2.96532e-09
2.92763e-09
2.88539e-09
2.83888e-09
2.78841e-09
2.7343e-09
2.67687e-09
2.61644e-09
2.55336e-09
2.48796e-09
2.42056e-09
2.3515e-09
2.28108e-09
2.20961e-09
2.13739e-09
2.0647e-09
1.99179e-09
1.91892e-09
1.84631e-09
1.77418e-09
1.70272e-09
1.63211e-09
1.56251e-09
1.49406e-09
1.42689e-09
1.3611e-09
1.29679e-09
1.23404e-09
1.17292e-09
1.11347e-09
1.05574e-09
9.99762e-10