/*--------------------------------*- C++ -*----------------------------------*\
| =========                 |                                                 |
| \\      /  F ield         | OpenFOAM: The Open Source CFD Toolbox           |
|  \\    /   O peration     | Version:  v2012                                 |
|   \\  /    A nd           | Website:  www.openfoam.com                      |
|    \\/     M anipulation  |                                                 |
\*---------------------------------------------------------------------------*/
FoamFile
{
    version     2.0;
    format      ascii;
    class       volVectorField;
    location    "70";
    object      Usup;
}
// * * * * * * * * * * * * * * * * * * * * * * * * * * * * * * * * * * * * * //

dimensions      [0 1 -1 0 0 0 0];


internalField   nonuniform List<vector> 
4000
(
(-0.00333754 0.00206352 0)
(-0.0111236 0.000790407 0)
(-0.00805479 0.00796645 0)
(0.00466957 0.019834 0)
(0.0270938 0.0288144 0)
(0.0353294 0.00742767 0)
(0.00463037 -0.005954 0)
(-0.018709 -0.00263233 0)
(-0.00320252 0.00498889 0)
(0.0152212 0.013795 0)
(0.0185712 0.00675416 0)
(0.019825 -0.000181186 0)
(0.0105184 -0.0131642 0)
(0.0121625 -0.0115428 0)
(0.0197562 -0.001256 0)
(0.0105969 -0.00414416 0)
(-0.0110054 -0.0147706 0)
(-0.0309303 -0.00582264 0)
(-0.0271065 0.00578983 0)
(-0.0171342 0.00748512 0)
(-0.0111866 0.00119517 0)
(-0.0105937 -0.0146726 0)
(-0.00569989 -0.00549878 0)
(-0.00342702 -0.0118674 0)
(-0.00996103 0.000934006 0)
(0.00111047 0.0106313 0)
(0.0238198 0.00817256 0)
(0.032769 -0.00811125 0)
(0.0101798 -0.00975259 0)
(-0.00254969 0.00493224 0)
(0.00624143 -0.00210628 0)
(0.00214858 -0.000333981 0)
(-0.00427514 -0.00284714 0)
(-0.00369799 -0.00279161 0)
(-0.00527621 -0.00746229 0)
(-0.00341812 -0.0137569 0)
(-0.00206696 -0.0168803 0)
(0.00017526 -0.0220039 0)
(0.00552221 -0.0223132 0)
(0.00892444 -0.00941521 0)
(0.0143914 -0.0131699 0)
(0.00966307 -0.0126185 0)
(-0.00371267 -0.0107671 0)
(-0.0187057 0.00267966 0)
(-0.00671978 0.0129122 0)
(0.00630293 0.0110126 0)
(-0.00791727 0.00623251 0)
(-0.025352 0.0127608 0)
(-0.0268251 0.0212141 0)
(-0.0194417 0.0136042 0)
(-0.0212905 0.0104883 0)
(-0.0188663 0.0118292 0)
(-0.00577951 0.00897623 0)
(0.005884 0.00305188 0)
(0.0127414 -0.00693721 0)
(0.025784 -0.00762917 0)
(0.0396408 -0.00310527 0)
(0.045799 -0.00283041 0)
(0.0482793 -0.00304055 0)
(0.0419891 -0.0106786 0)
(0.0196621 -0.0121831 0)
(0.00769458 -0.0102775 0)
(0.0077667 -0.0265144 0)
(-0.00416451 -0.025886 0)
(-0.0234301 -0.0199523 0)
(-0.032814 -0.0209896 0)
(-0.0468878 -0.0255297 0)
(-0.0592474 -0.0193586 0)
(-0.0435192 -0.0167495 0)
(-0.0240652 -0.0165529 0)
(-0.0149279 -0.00780397 0)
(-0.00495606 0.00545881 0)
(0.00412297 0.00477474 0)
(0.0186167 -0.00207924 0)
(0.0291016 0.00240697 0)
(0.0245666 0.00795338 0)
(0.0229422 0.0135042 0)
(0.0201634 0.0166815 0)
(0.00501668 0.0140898 0)
(-0.0106286 0.0084817 0)
(-0.0263218 0.0104537 0)
(-0.0317929 0.024436 0)
(-0.0167672 0.0302168 0)
(-0.00789307 0.0193294 0)
(-0.0126278 0.0102921 0)
(-0.00867319 0.0103975 0)
(0.0201837 0.00747184 0)
(0.0499219 -0.00809404 0)
(0.04976 -0.0195504 0)
(0.0403354 -0.017989 0)
(0.0340088 -0.0221745 0)
(0.0229096 -0.0205066 0)
(0.00610488 -0.0152855 0)
(-0.00433804 -0.000894289 0)
(-0.000197287 -0.000413507 0)
(-0.00444711 0.000190676 0)
(-0.0143853 -0.00320392 0)
(-0.0118784 -0.00510185 0)
(-0.0176249 -0.0136746 0)
(-0.0212564 -0.003936 0)
(-0.00978845 0.00452076 0)
(-0.0196521 0.0057671 0)
(-0.0010514 0.0301466 0)
(0.0297854 0.0533448 0)
(0.0501504 0.0607335 0)
(0.0475053 0.0264439 0)
(0.00881729 -0.00409731 0)
(-0.0198687 -0.00244677 0)
(0.0106061 0.0236689 0)
(0.036331 0.0311776 0)
(0.0353622 0.019131 0)
(0.0334917 -0.0107662 0)
(0.023657 -0.0356011 0)
(0.0419694 -0.0243806 0)
(0.0478756 -0.0142691 0)
(0.010052 -0.0191713 0)
(-0.027997 -0.0336382 0)
(-0.0532304 -0.0107252 0)
(-0.0554261 0.0110249 0)
(-0.0497499 0.0165081 0)
(-0.0490345 0.0114241 0)
(-0.032973 -0.0225534 0)
(-0.0150505 -0.020703 0)
(-0.00627261 -0.0292819 0)
(-0.000826177 -0.00913379 0)
(0.0132844 0.0174556 0)
(0.0394177 0.00777711 0)
(0.0569464 -0.0225203 0)
(0.0390935 -0.0289531 0)
(0.00888243 -0.00243324 0)
(0.0100085 -0.00439392 0)
(0.00464898 -0.00642175 0)
(-0.00955591 -0.00390583 0)
(-0.0121518 -0.00243958 0)
(-0.0196468 -0.0153973 0)
(-0.0149258 -0.0331152 0)
(-0.0102222 -0.0489355 0)
(-0.00197987 -0.0527665 0)
(0.0228459 -0.052765 0)
(0.0285472 -0.0406417 0)
(0.0284164 -0.0382676 0)
(0.0212275 -0.0380156 0)
(0.00230241 -0.0311341 0)
(-0.020045 0.00299416 0)
(-0.0123827 0.0398013 0)
(-0.00275726 0.0333559 0)
(-0.02403 0.0193689 0)
(-0.0490473 0.0292216 0)
(-0.0650656 0.0517873 0)
(-0.0610807 0.0441355 0)
(-0.0542924 0.0336612 0)
(-0.0445081 0.036557 0)
(-0.0200073 0.0253683 0)
(0.00400194 0.0111807 0)
(0.0298683 -0.0137035 0)
(0.0724337 -0.0164968 0)
(0.105007 -0.0214265 0)
(0.117318 -0.0119384 0)
(0.115406 -0.0124443 0)
(0.0973108 -0.0283528 0)
(0.0572328 -0.043645 0)
(0.0155929 -0.0425061 0)
(0.00399916 -0.0629099 0)
(-0.0107527 -0.0690972 0)
(-0.0561643 -0.0653475 0)
(-0.0917842 -0.0722169 0)
(-0.118669 -0.0822688 0)
(-0.135917 -0.058485 0)
(-0.109446 -0.0500646 0)
(-0.0623613 -0.0400934 0)
(-0.0259696 -0.02235 0)
(-0.00583854 0.00429931 0)
(0.00513656 0.00131919 0)
(0.0423402 0.00409765 0)
(0.0748028 0.0170246 0)
(0.0702067 0.030082 0)
(0.0633272 0.0409521 0)
(0.046471 0.0471179 0)
(0.00568581 0.0440183 0)
(-0.02809 0.0359175 0)
(-0.0481765 0.0357706 0)
(-0.0567409 0.0613519 0)
(-0.0475045 0.0742409 0)
(-0.0385099 0.0566304 0)
(-0.0317628 0.032494 0)
(-0.0102023 0.0287412 0)
(0.0407008 0.0227307 0)
(0.0967765 -0.020235 0)
(0.115549 -0.0581833 0)
(0.103388 -0.0563512 0)
(0.0859071 -0.0620804 0)
(0.06474 -0.0553257 0)
(0.0360299 -0.0383508 0)
(0.00717442 -0.0123245 0)
(-0.00230958 -0.00571883 0)
(-0.0169855 -0.0057374 0)
(-0.039391 -0.0136653 0)
(-0.0430434 -0.0196055 0)
(-0.0448064 -0.0269867 0)
(-0.0339331 -0.00550566 0)
(-0.0126365 0.00256371 0)
(-0.0141491 0.0224317 0)
(0.0161393 0.0550944 0)
(0.0441492 0.0707947 0)
(0.0587622 0.0686497 0)
(0.0473733 0.0437235 0)
(0.0059771 0.0134672 0)
(-0.0056452 0.0170456 0)
(0.0292523 0.0452274 0)
(0.0467312 0.0330234 0)
(0.0350408 0.0125574 0)
(0.0292293 -0.0313668 0)
(0.0405013 -0.0502039 0)
(0.065556 -0.0314236 0)
(0.0601766 -0.0328361 0)
(0.00975197 -0.0367126 0)
(-0.0319424 -0.030761 0)
(-0.0598229 -0.00112256 0)
(-0.072348 0.0171102 0)
(-0.069643 0.0174401 0)
(-0.0802636 0.0186569 0)
(-0.0664524 -0.00270884 0)
(-0.032294 -0.032855 0)
(-0.00880829 -0.0393573 0)
(0.0144832 -0.027395 0)
(0.0274087 -0.00569603 0)
(0.0427902 -0.00559562 0)
(0.0663612 -0.0290119 0)
(0.0601143 -0.035574 0)
(0.0297427 -0.0139739 0)
(0.0172168 -0.0096054 0)
(0.00838661 -0.0201604 0)
(-0.00588422 -0.00768301 0)
(-0.0201156 0.00412075 0)
(-0.0378099 -0.0100814 0)
(-0.0354043 -0.0319775 0)
(-0.0194346 -0.0589002 0)
(0.00128617 -0.071862 0)
(0.0283495 -0.0753863 0)
(0.041166 -0.0777169 0)
(0.0421217 -0.0622361 0)
(0.029543 -0.0564364 0)
(0.0173477 -0.0489429 0)
(0.00354158 -0.00682234 0)
(-0.00669359 0.0405277 0)
(-0.0224777 0.0539705 0)
(-0.0451201 0.0377471 0)
(-0.0620612 0.0352983 0)
(-0.0837961 0.0602395 0)
(-0.0934928 0.0695598 0)
(-0.0821355 0.0638224 0)
(-0.0660059 0.0615688 0)
(-0.0366534 0.0459341 0)
(-0.00384179 0.0215296 0)
(0.0398542 -0.00173738 0)
(0.100491 -0.0172143 0)
(0.153749 -0.0391863 0)
(0.179657 -0.0288501 0)
(0.164983 -0.0285382 0)
(0.128725 -0.0517363 0)
(0.0785531 -0.083265 0)
(0.0290616 -0.0780563 0)
(0.000347925 -0.0871426 0)
(-0.0287328 -0.113827 0)
(-0.0913207 -0.122427 0)
(-0.144465 -0.130502 0)
(-0.166263 -0.125746 0)
(-0.180119 -0.0912263 0)
(-0.151241 -0.0742359 0)
(-0.0872209 -0.0510598 0)
(-0.0338128 -0.0272237 0)
(-0.00781452 -0.00250237 0)
(0.014197 0.00436756 0)
(0.0725948 0.0296172 0)
(0.112387 0.0404085 0)
(0.106911 0.053331 0)
(0.0939609 0.0583198 0)
(0.065717 0.0675218 0)
(0.00809074 0.07837 0)
(-0.0412528 0.0775937 0)
(-0.0627103 0.0683515 0)
(-0.0683027 0.0821068 0)
(-0.0668507 0.101651 0)
(-0.0665835 0.0916231 0)
(-0.0508328 0.0581054 0)
(-0.00793209 0.0431832 0)
(0.0466649 0.0270043 0)
(0.104957 -0.0278502 0)
(0.150674 -0.0843859 0)
(0.153448 -0.0973414 0)
(0.131104 -0.09044 0)
(0.107145 -0.0751318 0)
(0.068602 -0.0617502 0)
(0.0238786 -0.0454291 0)
(-0.00147884 -0.0323306 0)
(-0.0312062 -0.0265517 0)
(-0.0636291 -0.0266386 0)
(-0.0671143 -0.0364046 0)
(-0.0599018 -0.0419945 0)
(-0.0441336 -0.0115335 0)
(-0.00457202 0.0113433 0)
(0.0016588 0.0474561 0)
(0.0270107 0.0726221 0)
(0.0509944 0.0815435 0)
(0.0609382 0.0760657 0)
(0.0424981 0.0583 0)
(0.00965435 0.0398583 0)
(0.0110604 0.0380819 0)
(0.0359877 0.0426984 0)
(0.0396706 0.0218689 0)
(0.0239037 0.00204539 0)
(0.0251635 -0.0349322 0)
(0.0570896 -0.062432 0)
(0.0841507 -0.0500544 0)
(0.0669116 -0.0416283 0)
(0.0171684 -0.0373534 0)
(-0.0215744 -0.0154842 0)
(-0.0590055 -0.00696905 0)
(-0.0886377 -0.000688098 0)
(-0.0907009 0.00930174 0)
(-0.0982894 0.0245288 0)
(-0.0980091 0.0248285 0)
(-0.0609455 -0.0215851 0)
(-0.0135513 -0.0407813 0)
(0.0206995 -0.0402438 0)
(0.0421781 -0.0338943 0)
(0.0540251 -0.0227689 0)
(0.0735775 -0.0290287 0)
(0.0783653 -0.0346113 0)
(0.0445984 -0.0208605 0)
(0.0173219 -0.0149377 0)
(0.0117729 -0.0267098 0)
(0.00747468 -0.0154868 0)
(-0.0181593 0.00424979 0)
(-0.0518024 0.00036621 0)
(-0.0549993 -0.030615 0)
(-0.0404736 -0.0662212 0)
(-0.0101322 -0.0810906 0)
(0.0285092 -0.0867021 0)
(0.052502 -0.0896899 0)
(0.0588205 -0.0838797 0)
(0.0379447 -0.0749233 0)
(0.0316851 -0.0570209 0)
(0.0267159 -0.0113698 0)
(0.0124525 0.0340375 0)
(-0.0251173 0.0547017 0)
(-0.0696164 0.0467921 0)
(-0.07845 0.0446814 0)
(-0.0911286 0.0673502 0)
(-0.106299 0.0888499 0)
(-0.101178 0.0928574 0)
(-0.08537 0.0781538 0)
(-0.0558335 0.070714 0)
(-0.0131357 0.0391119 0)
(0.0434365 0.0294523 0)
(0.111651 -0.0129772 0)
(0.184351 -0.044665 0)
(0.224686 -0.0490598 0)
(0.197817 -0.0453061 0)
(0.141913 -0.0740554 0)
(0.0963027 -0.110103 0)
(0.0443792 -0.1213 0)
(-0.0150522 -0.137347 0)
(-0.0582264 -0.172349 0)
(-0.1214 -0.180141 0)
(-0.173953 -0.170809 0)
(-0.190187 -0.145487 0)
(-0.206274 -0.106092 0)
(-0.175161 -0.0796139 0)
(-0.098772 -0.055272 0)
(-0.0358324 -0.0209904 0)
(-0.00266696 -0.00220205 0)
(0.0334667 0.0219258 0)
(0.0966596 0.0557223 0)
(0.135522 0.0698137 0)
(0.129959 0.0780885 0)
(0.115728 0.0837893 0)
(0.0906909 0.0914362 0)
(0.0210791 0.10995 0)
(-0.0514151 0.116784 0)
(-0.0800658 0.103301 0)
(-0.073862 0.107944 0)
(-0.0734455 0.115854 0)
(-0.0902631 0.108259 0)
(-0.0732358 0.0759084 0)
(-0.0160816 0.0509734 0)
(0.0403482 0.0222288 0)
(0.0985063 -0.0318983 0)
(0.16002 -0.0912641 0)
(0.189644 -0.116294 0)
(0.178515 -0.107605 0)
(0.140262 -0.10485 0)
(0.0869122 -0.0979901 0)
(0.0365341 -0.0854655 0)
(0.00502882 -0.0771388 0)
(-0.0334456 -0.0598497 0)
(-0.0811892 -0.0571555 0)
(-0.097556 -0.0574974 0)
(-0.0755908 -0.0563122 0)
(-0.0415324 -0.0223195 0)
(0.00151348 0.0177596 0)
(0.0105969 0.0579525 0)
(0.0321709 0.0883027 0)
(0.0517925 0.0961235 0)
(0.0594911 0.0937188 0)
(0.0429818 0.0698576 0)
(0.00821833 0.0454653 0)
(0.00871205 0.0364856 0)
(0.0327196 0.0318177 0)
(0.0395297 0.0133242 0)
(0.0213048 -0.00679837 0)
(0.0112056 -0.0279121 0)
(0.0561855 -0.0461498 0)
(0.103277 -0.0544553 0)
(0.0846417 -0.0544991 0)
(0.0310873 -0.0503965 0)
(-0.0241674 -0.0331023 0)
(-0.0774529 -0.0180628 0)
(-0.094601 -0.00432833 0)
(-0.0840294 0.00645018 0)
(-0.0971702 0.00810408 0)
(-0.122946 0.026539 0)
(-0.0964821 0.00966753 0)
(-0.0314493 -0.0245089 0)
(0.0186826 -0.03515 0)
(0.0506127 -0.0434688 0)
(0.0679763 -0.0392319 0)
(0.0838014 -0.0334 0)
(0.0879988 -0.0342458 0)
(0.0595242 -0.0331037 0)
(0.0234876 -0.0176712 0)
(0.0137329 -0.0101709 0)
(0.01809 -0.00102623 0)
(-0.0100862 -0.0016522 0)
(-0.0662071 -0.00296314 0)
(-0.0863747 -0.0380605 0)
(-0.0563649 -0.0743584 0)
(-0.0103551 -0.0772405 0)
(0.0289632 -0.0962524 0)
(0.0523127 -0.106744 0)
(0.0611755 -0.102347 0)
(0.0519127 -0.0923369 0)
(0.0578363 -0.0591594 0)
(0.0563624 -0.0108032 0)
(0.0242489 0.0429962 0)
(-0.0339736 0.0535581 0)
(-0.0806608 0.0564034 0)
(-0.0830196 0.0610463 0)
(-0.0906024 0.090144 0)
(-0.111575 0.110585 0)
(-0.120237 0.109319 0)
(-0.100997 0.0987824 0)
(-0.0675236 0.0980474 0)
(-0.0172656 0.0673074 0)
(0.0379052 0.0564284 0)
(0.101035 -0.00230188 0)
(0.197404 -0.0373985 0)
(0.257467 -0.0579409 0)
(0.223933 -0.0799114 0)
(0.147592 -0.104035 0)
(0.091562 -0.130771 0)
(0.0354778 -0.16396 0)
(-0.0324436 -0.196902 0)
(-0.0790386 -0.229375 0)
(-0.133077 -0.216634 0)
(-0.182519 -0.18941 0)
(-0.196936 -0.147477 0)
(-0.214849 -0.111162 0)
(-0.189227 -0.0727574 0)
(-0.103154 -0.0382201 0)
(-0.0344491 -0.00126773 0)
(0.00429041 0.0103362 0)
(0.0568929 0.0399624 0)
(0.125147 0.0755235 0)
(0.157796 0.0977416 0)
(0.149884 0.113599 0)
(0.133473 0.12338 0)
(0.105476 0.12212 0)
(0.0327234 0.138775 0)
(-0.0560377 0.147909 0)
(-0.091483 0.141478 0)
(-0.0856312 0.138266 0)
(-0.0883349 0.122243 0)
(-0.107795 0.10876 0)
(-0.0918136 0.0830316 0)
(-0.0278547 0.0537743 0)
(0.0286862 0.0184372 0)
(0.0849625 -0.0335568 0)
(0.161364 -0.0915734 0)
(0.212044 -0.122757 0)
(0.199745 -0.129881 0)
(0.158192 -0.146842 0)
(0.10786 -0.139711 0)
(0.0466343 -0.138827 0)
(0.0103075 -0.125301 0)
(-0.0369933 -0.105805 0)
(-0.0947932 -0.0916662 0)
(-0.10902 -0.081642 0)
(-0.0838417 -0.0591035 0)
(-0.0405394 -0.028079 0)
(0.0094499 0.0156232 0)
(0.0288651 0.0571411 0)
(0.0429633 0.093527 0)
(0.0547342 0.0976099 0)
(0.0510579 0.0926822 0)
(0.021069 0.0695741 0)
(-0.00127567 0.046984 0)
(0.0136854 0.0441292 0)
(0.033841 0.0262021 0)
(0.0303578 0.017084 0)
(0.0159087 -0.0126283 0)
(0.0193114 -0.0334357 0)
(0.0586773 -0.0318212 0)
(0.0950287 -0.0565266 0)
(0.0803144 -0.0776985 0)
(0.0335157 -0.0746312 0)
(-0.00866408 -0.0530212 0)
(-0.0583445 -0.0167887 0)
(-0.0959683 -0.00288095 0)
(-0.10712 -0.00676553 0)
(-0.106337 -0.0130879 0)
(-0.115361 0.0045674 0)
(-0.111631 0.0255432 0)
(-0.053612 0.00169557 0)
(0.00654556 -0.0295822 0)
(0.0470041 -0.044796 0)
(0.0765251 -0.0381071 0)
(0.0956284 -0.0296652 0)
(0.0953669 -0.035829 0)
(0.0698133 -0.0320601 0)
(0.0435083 -0.0161646 0)
(0.0296506 -0.000134971 0)
(0.0160617 0.00870129 0)
(-0.0195133 -0.00663436 0)
(-0.0795014 -0.023418 0)
(-0.108114 -0.0359503 0)
(-0.0685509 -0.0535457 0)
(-0.0235163 -0.0822392 0)
(0.0114708 -0.120524 0)
(0.0535076 -0.128404 0)
(0.073592 -0.118555 0)
(0.0697776 -0.0898095 0)
(0.085728 -0.0383529 0)
(0.0902196 0.00100982 0)
(0.044219 0.0537733 0)
(-0.0344928 0.0527794 0)
(-0.088271 0.064564 0)
(-0.0823839 0.0671162 0)
(-0.0850682 0.109771 0)
(-0.120267 0.129842 0)
(-0.131983 0.118808 0)
(-0.106079 0.115831 0)
(-0.078284 0.110702 0)
(-0.0280128 0.0997281 0)
(0.0233057 0.0743495 0)
(0.0879135 0.0252122 0)
(0.199723 -0.0194698 0)
(0.255345 -0.065509 0)
(0.22468 -0.118501 0)
(0.156995 -0.143325 0)
(0.0906856 -0.156932 0)
(0.0172337 -0.188745 0)
(-0.0598949 -0.225902 0)
(-0.0886328 -0.253722 0)
(-0.126654 -0.247072 0)
(-0.173645 -0.207624 0)
(-0.194076 -0.147128 0)
(-0.216309 -0.113562 0)
(-0.181582 -0.0601301 0)
(-0.0949597 -0.00772626 0)
(-0.0343257 0.0295299 0)
(0.00915772 0.0497593 0)
(0.0781497 0.0743051 0)
(0.149042 0.102266 0)
(0.182429 0.127571 0)
(0.171262 0.149932 0)
(0.14276 0.148884 0)
(0.116476 0.145819 0)
(0.044779 0.164037 0)
(-0.0551601 0.182901 0)
(-0.100865 0.178243 0)
(-0.104452 0.155182 0)
(-0.108357 0.130859 0)
(-0.124718 0.108539 0)
(-0.108462 0.0824566 0)
(-0.0441757 0.0485023 0)
(0.0117425 0.0110208 0)
(0.0669555 -0.0321348 0)
(0.15053 -0.0853737 0)
(0.216455 -0.131666 0)
(0.208151 -0.162272 0)
(0.168036 -0.18213 0)
(0.113021 -0.18223 0)
(0.0525685 -0.19076 0)
(0.0211912 -0.164187 0)
(-0.0295806 -0.148049 0)
(-0.0961601 -0.125797 0)
(-0.116716 -0.107403 0)
(-0.0882946 -0.0671067 0)
(-0.037417 -0.0308862 0)
(0.0156451 0.0153194 0)
(0.0412634 0.0515969 0)
(0.0470989 0.0771266 0)
(0.0467636 0.0856878 0)
(0.0426574 0.0766686 0)
(0.0179894 0.0688885 0)
(-0.000107778 0.0560889 0)
(0.00476818 0.0455187 0)
(0.0261463 0.0261668 0)
(0.0269665 0.0138386 0)
(0.00212587 -0.0155818 0)
(0.0153525 -0.039067 0)
(0.0557543 -0.0522407 0)
(0.0825125 -0.0749135 0)
(0.0787737 -0.0967533 0)
(0.0492557 -0.0881726 0)
(0.0102038 -0.0647939 0)
(-0.0556484 -0.044925 0)
(-0.106239 -0.0303095 0)
(-0.11132 -0.0195193 0)
(-0.107001 -0.00666662 0)
(-0.109516 0.00836516 0)
(-0.109322 0.0299657 0)
(-0.0777337 0.0164777 0)
(-0.0156828 -0.0211592 0)
(0.0500621 -0.0305906 0)
(0.0898395 -0.0293055 0)
(0.0987422 -0.0250862 0)
(0.099093 -0.0357741 0)
(0.0846956 -0.0348106 0)
(0.0550293 -0.0161133 0)
(0.0373452 -0.00171197 0)
(0.0161747 -0.00509815 0)
(-0.0326129 -0.0183984 0)
(-0.0875639 -0.0379354 0)
(-0.108316 -0.0338331 0)
(-0.0894625 -0.0333556 0)
(-0.0575682 -0.0684446 0)
(-0.0020071 -0.105886 0)
(0.0568209 -0.118299 0)
(0.0912266 -0.126321 0)
(0.109441 -0.0843728 0)
(0.118889 -0.0231752 0)
(0.114068 0.016138 0)
(0.048694 0.0485946 0)
(-0.0429537 0.0384102 0)
(-0.0904508 0.0656079 0)
(-0.0727893 0.0898365 0)
(-0.0680446 0.119734 0)
(-0.126195 0.119456 0)
(-0.146587 0.125541 0)
(-0.11493 0.128554 0)
(-0.0768497 0.119429 0)
(-0.0296176 0.110778 0)
(0.00947903 0.0706577 0)
(0.0692312 0.043665 0)
(0.175998 -0.00319479 0)
(0.233884 -0.0608849 0)
(0.214745 -0.126956 0)
(0.160894 -0.165841 0)
(0.0888954 -0.200438 0)
(0.00195864 -0.22519 0)
(-0.0779461 -0.237474 0)
(-0.10778 -0.248621 0)
(-0.127105 -0.262335 0)
(-0.149297 -0.211732 0)
(-0.176325 -0.153717 0)
(-0.202244 -0.100553 0)
(-0.159612 -0.0360233 0)
(-0.077455 0.0251163 0)
(-0.0215342 0.0655121 0)
(0.0199322 0.0969102 0)
(0.0900328 0.119612 0)
(0.169005 0.130843 0)
(0.20466 0.15514 0)
(0.180585 0.167154 0)
(0.144784 0.173396 0)
(0.126876 0.1785 0)
(0.0638732 0.187022 0)
(-0.0485072 0.199464 0)
(-0.119845 0.19187 0)
(-0.130034 0.160617 0)
(-0.129705 0.127948 0)
(-0.144539 0.101776 0)
(-0.128511 0.0748277 0)
(-0.0622119 0.0414704 0)
(-0.00100675 0.00329339 0)
(0.0530758 -0.0278041 0)
(0.131892 -0.0723783 0)
(0.198368 -0.130774 0)
(0.19965 -0.176231 0)
(0.170861 -0.202227 0)
(0.116934 -0.224715 0)
(0.0626967 -0.222408 0)
(0.0320858 -0.193265 0)
(-0.0304926 -0.185772 0)
(-0.0983042 -0.165143 0)
(-0.110293 -0.126868 0)
(-0.0825371 -0.0727423 0)
(-0.034064 -0.0316644 0)
(0.0190817 0.0202311 0)
(0.0462687 0.0433015 0)
(0.0512277 0.0554355 0)
(0.0470327 0.0572997 0)
(0.0386525 0.0518189 0)
(0.0107562 0.0531777 0)
(-0.0108562 0.0483102 0)
(0.00114607 0.030221 0)
(0.0219115 0.0295669 0)
(0.0129339 0.00570246 0)
(-0.00846921 -0.0241042 0)
(0.00687633 -0.0478515 0)
(0.04532 -0.0724666 0)
(0.072271 -0.0860064 0)
(0.0760614 -0.102079 0)
(0.0568605 -0.102128 0)
(0.0169884 -0.0937458 0)
(-0.0442176 -0.0810326 0)
(-0.0916606 -0.0432182 0)
(-0.105041 -0.0203355 0)
(-0.100191 -0.00561753 0)
(-0.100445 0.00647875 0)
(-0.114367 0.0192439 0)
(-0.0959196 0.0299772 0)
(-0.0283884 0.017455 0)
(0.0450974 0.00182654 0)
(0.0882988 -0.0220321 0)
(0.100608 -0.026219 0)
(0.09808 -0.0377486 0)
(0.0929386 -0.046511 0)
(0.0747077 -0.0248199 0)
(0.0426206 -0.00607583 0)
(0.00682289 -0.0218474 0)
(-0.0420235 -0.0381403 0)
(-0.090012 -0.0410533 0)
(-0.104092 -0.0303213 0)
(-0.0930543 -0.0154372 0)
(-0.0754046 -0.0250061 0)
(-0.0234302 -0.0652695 0)
(0.0399152 -0.105753 0)
(0.0986402 -0.102757 0)
(0.143286 -0.0580969 0)
(0.154105 -0.0244435 0)
(0.134145 -7.85665e-05 0)
(0.0487554 0.00870515 0)
(-0.0365095 0.0344577 0)
(-0.0673584 0.0599845 0)
(-0.0610088 0.0971205 0)
(-0.0815936 0.107078 0)
(-0.132037 0.109788 0)
(-0.136802 0.141119 0)
(-0.115398 0.132416 0)
(-0.0877624 0.114372 0)
(-0.0509092 0.101845 0)
(-0.00372915 0.0684205 0)
(0.0641771 0.0544129 0)
(0.159433 0.0158453 0)
(0.203673 -0.0532466 0)
(0.185659 -0.127457 0)
(0.135965 -0.186898 0)
(0.0715272 -0.235044 0)
(0.00366025 -0.266804 0)
(-0.0755417 -0.262114 0)
(-0.117746 -0.247776 0)
(-0.122038 -0.238431 0)
(-0.125957 -0.19625 0)
(-0.150966 -0.147831 0)
(-0.170751 -0.0853415 0)
(-0.128137 -0.000637725 0)
(-0.0535689 0.0715825 0)
(-0.00669456 0.100718 0)
(0.0330072 0.127245 0)
(0.0963082 0.162209 0)
(0.176293 0.167386 0)
(0.215964 0.165289 0)
(0.194408 0.168818 0)
(0.160838 0.190499 0)
(0.133785 0.197057 0)
(0.0634538 0.196091 0)
(-0.0526307 0.188825 0)
(-0.133564 0.179924 0)
(-0.156327 0.158265 0)
(-0.154411 0.124148 0)
(-0.161911 0.0939288 0)
(-0.14426 0.0734488 0)
(-0.0802211 0.0413402 0)
(-0.0145039 0.00309041 0)
(0.0424836 -0.0195411 0)
(0.109153 -0.0585134 0)
(0.173554 -0.125754 0)
(0.184349 -0.176405 0)
(0.153292 -0.204883 0)
(0.109185 -0.239076 0)
(0.0757366 -0.244511 0)
(0.036819 -0.229479 0)
(-0.0317247 -0.226353 0)
(-0.0872525 -0.188378 0)
(-0.0947965 -0.136212 0)
(-0.0760722 -0.081255 0)
(-0.0305536 -0.0254179 0)
(0.014619 0.0178995 0)
(0.0378361 0.032605 0)
(0.0395913 0.0364888 0)
(0.0349333 0.0218301 0)
(0.0370599 0.0183436 0)
(0.0175695 0.0244404 0)
(-0.0116634 0.0305724 0)
(-0.00144819 0.021913 0)
(0.0175322 0.0144921 0)
(-0.00158161 0.00576681 0)
(-0.0254946 -0.0162507 0)
(-0.00860669 -0.0485463 0)
(0.0379691 -0.0743825 0)
(0.0684979 -0.0964109 0)
(0.0711044 -0.107014 0)
(0.0552355 -0.112759 0)
(0.0210894 -0.115598 0)
(-0.0269384 -0.111856 0)
(-0.0725414 -0.07358 0)
(-0.0955161 -0.0345205 0)
(-0.0985855 -0.00756157 0)
(-0.10083 -0.0034937 0)
(-0.0990767 0.018636 0)
(-0.0829486 0.0544885 0)
(-0.0368599 0.0486857 0)
(0.0238905 0.0233894 0)
(0.0748161 0.000533103 0)
(0.094411 -0.0100872 0)
(0.0917592 -0.0388617 0)
(0.101159 -0.047761 0)
(0.0905185 -0.0444488 0)
(0.0438627 -0.0262887 0)
(-0.00444385 -0.0196366 0)
(-0.0448786 -0.0374151 0)
(-0.0806672 -0.0304929 0)
(-0.088637 -0.0237062 0)
(-0.0847098 -0.0168108 0)
(-0.0932599 -0.00832274 0)
(-0.0604946 -0.0273123 0)
(0.0296091 -0.0633933 0)
(0.125399 -0.0594292 0)
(0.164212 -0.0383958 0)
(0.15629 -0.0230449 0)
(0.130609 -0.0219589 0)
(0.0638646 -0.0180018 0)
(-0.017553 0.0241621 0)
(-0.0583038 0.04132 0)
(-0.0528829 0.0753135 0)
(-0.0729321 0.0914833 0)
(-0.113203 0.11321 0)
(-0.138082 0.131387 0)
(-0.13721 0.12285 0)
(-0.0951715 0.106354 0)
(-0.0518363 0.0983324 0)
(-0.00654342 0.0794221 0)
(0.0557378 0.0562604 0)
(0.126478 0.015973 0)
(0.160059 -0.0750108 0)
(0.146899 -0.137992 0)
(0.108051 -0.195888 0)
(0.0496179 -0.231274 0)
(-0.00714145 -0.264551 0)
(-0.0628817 -0.274783 0)
(-0.0992542 -0.243102 0)
(-0.107393 -0.207181 0)
(-0.108501 -0.166331 0)
(-0.125728 -0.123985 0)
(-0.12697 -0.0629907 0)
(-0.075919 0.0306261 0)
(-0.0305423 0.108299 0)
(-0.0021734 0.135164 0)
(0.0506179 0.152363 0)
(0.112091 0.187492 0)
(0.170028 0.191757 0)
(0.209097 0.173873 0)
(0.205092 0.164044 0)
(0.172013 0.177178 0)
(0.136169 0.181217 0)
(0.0606018 0.181433 0)
(-0.0601972 0.165121 0)
(-0.143881 0.155688 0)
(-0.17276 0.147739 0)
(-0.176903 0.11567 0)
(-0.178028 0.0901789 0)
(-0.158258 0.0657091 0)
(-0.099078 0.0351783 0)
(-0.0250935 0.0116414 0)
(0.0329151 0.00353012 0)
(0.0809384 -0.0404633 0)
(0.13782 -0.112725 0)
(0.163606 -0.171907 0)
(0.14037 -0.205174 0)
(0.0949519 -0.235256 0)
(0.067255 -0.24673 0)
(0.0325283 -0.246535 0)
(-0.0241508 -0.249718 0)
(-0.0674167 -0.209801 0)
(-0.0790699 -0.148937 0)
(-0.0614756 -0.090045 0)
(-0.028998 -0.0222118 0)
(0.013714 0.0076213 0)
(0.033095 0.0163705 0)
(0.026067 0.0175152 0)
(0.0238095 0.010755 0)
(0.0365082 0.0112509 0)
(0.0200948 0.00795293 0)
(-0.00916878 -0.00125145 0)
(-0.00479578 0.00610935 0)
(0.0176918 -0.012341 0)
(-0.000754798 -0.00743634 0)
(-0.0388734 -0.00268822 0)
(-0.0265483 -0.0161167 0)
(0.0183032 -0.0455801 0)
(0.0544003 -0.0912394 0)
(0.0673249 -0.121494 0)
(0.0504875 -0.138442 0)
(0.0141908 -0.152348 0)
(-0.0196953 -0.14874 0)
(-0.0431413 -0.110563 0)
(-0.0656663 -0.0570392 0)
(-0.086249 -0.00876111 0)
(-0.0888145 0.00814004 0)
(-0.0774065 0.029794 0)
(-0.0770631 0.0543492 0)
(-0.051843 0.073107 0)
(0.0116613 0.0618282 0)
(0.0677537 0.0438356 0)
(0.0770397 0.0126761 0)
(0.0762253 -0.0192171 0)
(0.0943838 -0.0504565 0)
(0.0952715 -0.0729922 0)
(0.0646302 -0.040569 0)
(0.00138139 -0.0211145 0)
(-0.0481404 -0.0187362 0)
(-0.078694 -0.00234641 0)
(-0.0931624 -0.00386197 0)
(-0.0810558 -0.0134773 0)
(-0.0825767 -0.00838667 0)
(-0.0636562 -4.93881e-05 0)
(0.0159454 -0.0108333 0)
(0.115573 -0.0157117 0)
(0.167021 -0.0170121 0)
(0.161269 -0.0106774 0)
(0.130937 -0.0294483 0)
(0.0738947 -0.0361062 0)
(-0.00321912 -0.0105677 0)
(-0.041151 0.0248354 0)
(-0.0358505 0.0598117 0)
(-0.0647163 0.0750382 0)
(-0.111669 0.0880235 0)
(-0.135342 0.0995766 0)
(-0.134879 0.11695 0)
(-0.101414 0.116149 0)
(-0.0604684 0.102131 0)
(-0.0187401 0.0804913 0)
(0.0382797 0.048657 0)
(0.0870021 -0.00404677 0)
(0.115858 -0.0941469 0)
(0.121129 -0.147931 0)
(0.0883255 -0.194694 0)
(0.0365344 -0.22256 0)
(-0.0198072 -0.238467 0)
(-0.0590788 -0.24935 0)
(-0.0753443 -0.223501 0)
(-0.0803149 -0.175965 0)
(-0.0856096 -0.127589 0)
(-0.0999396 -0.0817651 0)
(-0.0837607 -0.0115551 0)
(-0.0281362 0.0691502 0)
(0.000274527 0.120591 0)
(0.00719321 0.155103 0)
(0.0583412 0.178469 0)
(0.117616 0.1928 0)
(0.16353 0.185761 0)
(0.196619 0.17117 0)
(0.200188 0.146345 0)
(0.17762 0.149266 0)
(0.140591 0.156229 0)
(0.0540194 0.146533 0)
(-0.0705745 0.125008 0)
(-0.146215 0.125903 0)
(-0.185371 0.12186 0)
(-0.194735 0.0968575 0)
(-0.193718 0.0815945 0)
(-0.175845 0.0634055 0)
(-0.106721 0.0358096 0)
(-0.0203764 0.0176665 0)
(0.024598 0.0121878 0)
(0.045254 -0.0325649 0)
(0.0973351 -0.0937162 0)
(0.13329 -0.157016 0)
(0.118006 -0.205529 0)
(0.0825953 -0.233569 0)
(0.0628102 -0.241136 0)
(0.0204167 -0.235353 0)
(-0.0293579 -0.234311 0)
(-0.0491875 -0.205996 0)
(-0.0554248 -0.146448 0)
(-0.0458643 -0.104507 0)
(-0.0263771 -0.0397798 0)
(0.00918086 0.00580954 0)
(0.0240157 0.00752111 0)
(0.0200034 0.00727313 0)
(0.0205698 0.011331 0)
(0.0302011 0.0100847 0)
(0.00756658 -0.00659264 0)
(-0.0107839 -0.010449 0)
(-0.00509667 0.000991126 0)
(0.0137383 -0.0142207 0)
(0.0127843 -0.0110498 0)
(-0.0241219 0.00964094 0)
(-0.0326042 0.00717873 0)
(-0.0106877 -0.0253051 0)
(0.0175893 -0.0857856 0)
(0.0390543 -0.125363 0)
(0.0326049 -0.165104 0)
(0.0109571 -0.183902 0)
(-0.00102521 -0.175102 0)
(-0.0114927 -0.123373 0)
(-0.0277576 -0.0699491 0)
(-0.0576137 -0.02047 0)
(-0.0785384 0.0132834 0)
(-0.0696716 0.0391165 0)
(-0.0537955 0.0627967 0)
(-0.0320068 0.101697 0)
(0.00369281 0.103514 0)
(0.0416345 0.074303 0)
(0.0520958 0.0347385 0)
(0.0498462 0.00109276 0)
(0.0660307 -0.0477767 0)
(0.101708 -0.0808734 0)
(0.0852156 -0.0440125 0)
(0.0140496 -0.0252138 0)
(-0.0293359 -0.0050894 0)
(-0.0685405 0.0114438 0)
(-0.0960277 0.0117867 0)
(-0.0875302 0.00614844 0)
(-0.0831571 0.00635299 0)
(-0.0624599 0.0193422 0)
(0.0172874 0.0192911 0)
(0.11909 0.0159308 0)
(0.164871 0.00554 0)
(0.142612 -0.00135835 0)
(0.105839 -0.0246861 0)
(0.0702637 -0.0431191 0)
(0.0186469 -0.0349897 0)
(-0.0158383 0.00385261 0)
(-0.0252719 0.0214618 0)
(-0.0606503 0.0285832 0)
(-0.101785 0.0484604 0)
(-0.120585 0.0797435 0)
(-0.125046 0.117405 0)
(-0.101696 0.117294 0)
(-0.0690324 0.102791 0)
(-0.0324065 0.0747431 0)
(0.0107372 0.0355561 0)
(0.0411197 -0.0104579 0)
(0.0747774 -0.0800309 0)
(0.0925192 -0.142516 0)
(0.069926 -0.196558 0)
(0.0297653 -0.206906 0)
(-0.020128 -0.210962 0)
(-0.0514773 -0.20227 0)
(-0.0513273 -0.181415 0)
(-0.0488582 -0.134578 0)
(-0.0561288 -0.0873518 0)
(-0.0606663 -0.0287379 0)
(-0.0377755 0.0358794 0)
(-0.000132744 0.0955787 0)
(0.0133707 0.118266 0)
(0.0244644 0.155068 0)
(0.0665192 0.188782 0)
(0.109904 0.18588 0)
(0.150478 0.169201 0)
(0.179586 0.14246 0)
(0.190534 0.120104 0)
(0.181818 0.114288 0)
(0.136763 0.111898 0)
(0.0397396 0.091483 0)
(-0.0738911 0.0945395 0)
(-0.144968 0.0932646 0)
(-0.192382 0.077613 0)
(-0.203327 0.0734952 0)
(-0.197095 0.0665773 0)
(-0.183389 0.0584408 0)
(-0.120927 0.052025 0)
(-0.0277434 0.0340583 0)
(0.0127085 -0.0016203 0)
(0.0203352 -0.0335146 0)
(0.062312 -0.0736164 0)
(0.0942306 -0.129733 0)
(0.0919941 -0.185789 0)
(0.070236 -0.220308 0)
(0.0597011 -0.229968 0)
(0.0225121 -0.229728 0)
(-0.0274565 -0.203021 0)
(-0.0388219 -0.183131 0)
(-0.0533832 -0.144259 0)
(-0.0479885 -0.106237 0)
(-0.0100728 -0.0444409 0)
(0.00562094 0.00272696 0)
(0.0168499 0.00736841 0)
(0.015155 0.00264736 0)
(0.0166463 0.0108262 0)
(0.0183221 0.00832884 0)
(0.0035409 -0.00669388 0)
(-0.00224804 -0.00300666 0)
(-0.0041088 0.00893605 0)
(0.0138211 0.0121556 0)
(0.0227446 0.0175043 0)
(-0.0191109 0.0226794 0)
(-0.0460781 -0.00157623 0)
(-0.0446849 -0.0436666 0)
(-0.0151576 -0.0931837 0)
(0.0112244 -0.130888 0)
(0.00762509 -0.167532 0)
(0.00498277 -0.185674 0)
(0.0211946 -0.177575 0)
(0.0293053 -0.135048 0)
(0.00450868 -0.0745111 0)
(-0.0304925 -0.0326035 0)
(-0.0498022 0.0146471 0)
(-0.044682 0.056111 0)
(-0.0332916 0.0947753 0)
(-0.0225669 0.115842 0)
(-0.0076179 0.110434 0)
(0.0193283 0.0768187 0)
(0.0262432 0.0444751 0)
(0.0190227 0.0198869 0)
(0.0376007 -0.00424838 0)
(0.101221 -0.0328317 0)
(0.108237 -0.0420944 0)
(0.0321035 -0.0386046 0)
(-0.0196445 -0.0152215 0)
(-0.0652282 0.00426237 0)
(-0.0963957 0.0181554 0)
(-0.0847299 0.0242146 0)
(-0.0729018 0.0339234 0)
(-0.0546104 0.0460337 0)
(0.0123557 0.0417409 0)
(0.103549 0.019829 0)
(0.151358 0.00707171 0)
(0.134926 -0.0031338 0)
(0.0949344 -0.0204409 0)
(0.0599716 -0.0404799 0)
(0.0241841 -0.0455349 0)
(-0.00715969 -0.0266111 0)
(-0.0250087 -0.0184978 0)
(-0.0513374 -0.00677105 0)
(-0.0788758 0.0284124 0)
(-0.0870501 0.0603774 0)
(-0.106581 0.0970236 0)
(-0.107928 0.106108 0)
(-0.0838349 0.0884461 0)
(-0.0567939 0.0585327 0)
(-0.010144 0.0265744 0)
(0.0180827 0.00376533 0)
(0.0353888 -0.053093 0)
(0.0511948 -0.127503 0)
(0.0544012 -0.172428 0)
(0.03577 -0.178295 0)
(-0.0111237 -0.178708 0)
(-0.0371788 -0.164842 0)
(-0.0305861 -0.134671 0)
(-0.0209702 -0.108801 0)
(-0.0215744 -0.0464892 0)
(-0.0258818 0.0103331 0)
(-0.0102342 0.0645896 0)
(0.0147124 0.104013 0)
(0.0277757 0.123425 0)
(0.0453189 0.162132 0)
(0.0704163 0.186304 0)
(0.0959752 0.174536 0)
(0.127486 0.149669 0)
(0.158993 0.102885 0)
(0.179809 0.074817 0)
(0.173006 0.0531982 0)
(0.125665 0.0409994 0)
(0.0431036 0.0205769 0)
(-0.0675036 0.0442975 0)
(-0.156744 0.053556 0)
(-0.197327 0.0509787 0)
(-0.198972 0.0545015 0)
(-0.199013 0.055175 0)
(-0.178465 0.0489517 0)