/*--------------------------------*- C++ -*----------------------------------*\
| =========                 |                                                 |
| \\      /  F ield         | OpenFOAM: The Open Source CFD Toolbox           |
|  \\    /   O peration     | Version:  v2012                                 |
|   \\  /    A nd           | Website:  www.openfoam.com                      |
|    \\/     M anipulation  |                                                 |
\*---------------------------------------------------------------------------*/
FoamFile
{
    version     2.0;
    format      ascii;
    class       volVectorField;
    location    "6";
    object      Psi;
}
// * * * * * * * * * * * * * * * * * * * * * * * * * * * * * * * * * * * * * //

dimensions      [0 2 -1 0 0 0 0];


internalField   nonuniform List<vector> 
65536
(
(0 0 9.19982e-06)
(0 0 2.75992e-05)
(0 0 4.59976e-05)
(0 0 6.43946e-05)
(0 0 8.27894e-05)
(0 0 0.000101182)
(0 0 0.00011957)
(0 0 0.000137955)
(0 0 0.000156335)
(0 0 0.00017471)
(0 0 0.000193078)
(0 0 0.00021144)
(0 0 0.000229794)
(0 0 0.000248139)
(0 0 0.000266475)
(0 0 0.0002848)
(0 0 0.000303114)
(0 0 0.000321416)
(0 0 0.000339704)
(0 0 0.000357977)
(0 0 0.000376234)
(0 0 0.000394474)
(0 0 0.000412695)
(0 0 0.000430896)
(0 0 0.000449076)
(0 0 0.000467232)
(0 0 0.000485364)
(0 0 0.000503468)
(0 0 0.000521544)
(0 0 0.00053959)
(0 0 0.000557603)
(0 0 0.000575581)
(0 0 0.000593523)
(0 0 0.000611425)
(0 0 0.000629286)
(0 0 0.000647103)
(0 0 0.000664873)
(0 0 0.000682593)
(0 0 0.000700261)
(0 0 0.000717874)
(0 0 0.000735428)
(0 0 0.000752921)
(0 0 0.000770349)
(0 0 0.00078771)
(0 0 0.000804998)
(0 0 0.000822212)
(0 0 0.000839347)
(0 0 0.000856399)
(0 0 0.000873364)
(0 0 0.00089024)
(0 0 0.00090702)
(0 0 0.000923702)
(0 0 0.000940281)
(0 0 0.000956753)
(0 0 0.000973113)
(0 0 0.000989356)
(0 0 0.00100548)
(0 0 0.00102148)
(0 0 0.00103734)
(0 0 0.00105307)
(0 0 0.00106866)
(0 0 0.00108411)
(0 0 0.0010994)
(0 0 0.00111454)
(0 0 0.00112952)
(0 0 0.00114434)
(0 0 0.00115898)
(0 0 0.00117345)
(0 0 0.00118773)
(0 0 0.00120183)
(0 0 0.00121574)
(0 0 0.00122945)
(0 0 0.00124295)
(0 0 0.00125625)
(0 0 0.00126934)
(0 0 0.00128221)
(0 0 0.00129485)
(0 0 0.00130727)
(0 0 0.00131945)
(0 0 0.00133139)
(0 0 0.0013431)
(0 0 0.00135455)
(0 0 0.00136575)
(0 0 0.00137669)
(0 0 0.00138737)
(0 0 0.00139779)
(0 0 0.00140793)
(0 0 0.0014178)
(0 0 0.00142738)
(0 0 0.00143669)
(0 0 0.00144571)
(0 0 0.00145443)
(0 0 0.00146287)
(0 0 0.001471)
(0 0 0.00147884)
(0 0 0.00148637)
(0 0 0.00149359)
(0 0 0.00150051)
(0 0 0.00150711)
(0 0 0.0015134)
(0 0 0.00151937)
(0 0 0.00152503)
(0 0 0.00153037)
(0 0 0.00153538)
(0 0 0.00154008)
(0 0 0.00154445)
(0 0 0.00154849)
(0 0 0.00155222)
(0 0 0.00155561)
(0 0 0.00155868)
(0 0 0.00156143)
(0 0 0.00156385)
(0 0 0.00156594)
(0 0 0.00156772)
(0 0 0.00156916)
(0 0 0.00157029)
(0 0 0.00157109)
(0 0 0.00157157)
(0 0 0.00157173)
(0 0 0.00157158)
(0 0 0.00157111)
(0 0 0.00157033)
(0 0 0.00156923)
(0 0 0.00156783)
(0 0 0.00156612)
(0 0 0.00156411)
(0 0 0.0015618)
(0 0 0.00155918)
(0 0 0.00155628)
(0 0 0.00155308)
(0 0 0.00154959)
(0 0 0.00154582)
(0 0 0.00154176)
(0 0 0.00153743)
(0 0 0.00153282)
(0 0 0.00152794)
(0 0 0.0015228)
(0 0 0.00151739)
(0 0 0.00151172)
(0 0 0.0015058)
(0 0 0.00149962)
(0 0 0.0014932)
(0 0 0.00148654)
(0 0 0.00147964)
(0 0 0.0014725)
(0 0 0.00146513)
(0 0 0.00145754)
(0 0 0.00144973)
(0 0 0.0014417)
(0 0 0.00143345)
(0 0 0.001425)
(0 0 0.00141635)
(0 0 0.00140749)
(0 0 0.00139844)
(0 0 0.0013892)
(0 0 0.00137977)
(0 0 0.00137015)
(0 0 0.00136036)
(0 0 0.0013504)
(0 0 0.00134026)
(0 0 0.00132996)
(0 0 0.00131949)
(0 0 0.00130887)
(0 0 0.00129809)
(0 0 0.00128717)
(0 0 0.00127609)
(0 0 0.00126488)
(0 0 0.00125352)
(0 0 0.00124204)
(0 0 0.00123042)
(0 0 0.00121867)
(0 0 0.0012068)
(0 0 0.0011948)
(0 0 0.00118269)
(0 0 0.00117047)
(0 0 0.00115814)
(0 0 0.0011457)
(0 0 0.00113315)
(0 0 0.00112051)
(0 0 0.00110777)
(0 0 0.00109493)
(0 0 0.001082)
(0 0 0.00106898)
(0 0 0.00105588)
(0 0 0.00104269)
(0 0 0.00102943)
(0 0 0.00101608)
(0 0 0.00100267)
(0 0 0.000989175)
(0 0 0.000975614)
(0 0 0.000961986)
(0 0 0.000948292)
(0 0 0.000934536)
(0 0 0.000920719)
(0 0 0.000906844)
(0 0 0.000892913)
(0 0 0.000878928)
(0 0 0.00086489)
(0 0 0.000850803)
(0 0 0.000836667)
(0 0 0.000822486)
(0 0 0.000808259)
(0 0 0.00079399)
(0 0 0.00077968)
(0 0 0.000765331)
(0 0 0.000750944)
(0 0 0.000736521)
(0 0 0.000722063)
(0 0 0.000707572)
(0 0 0.00069305)
(0 0 0.000678497)
(0 0 0.000663915)
(0 0 0.000649305)
(0 0 0.000634669)
(0 0 0.000620008)
(0 0 0.000605323)
(0 0 0.000590615)
(0 0 0.000575885)
(0 0 0.000561134)
(0 0 0.000546364)
(0 0 0.000531574)
(0 0 0.000516767)
(0 0 0.000501943)
(0 0 0.000487103)
(0 0 0.000472248)
(0 0 0.000457378)
(0 0 0.000442494)
(0 0 0.000427598)
(0 0 0.000412689)
(0 0 0.000397769)
(0 0 0.000382838)
(0 0 0.000367897)
(0 0 0.000352946)
(0 0 0.000337987)
(0 0 0.000323019)
(0 0 0.000308042)
(0 0 0.000293059)
(0 0 0.000278069)
(0 0 0.000263072)
(0 0 0.000248069)
(0 0 0.00023306)
(0 0 0.000218047)
(0 0 0.000203029)
(0 0 0.000188006)
(0 0 0.00017298)
(0 0 0.00015795)
(0 0 0.000142916)
(0 0 0.00012788)
(0 0 0.000112841)
(0 0 9.78002e-05)
(0 0 8.27572e-05)
(0 0 6.77127e-05)
(0 0 5.26668e-05)
(0 0 3.76198e-05)
(0 0 2.25722e-05)
(0 0 7.52411e-06)
(0 0 2.75997e-05)
(0 0 8.27983e-05)
(0 0 0.000137994)
(0 0 0.000193186)
(0 0 0.000248371)
(0 0 0.000303548)
(0 0 0.000358715)
(0 0 0.00041387)
(0 0 0.000469011)
(0 0 0.000524135)
(0 0 0.000579242)
(0 0 0.000634327)
(0 0 0.00068939)
(0 0 0.000744427)
(0 0 0.000799435)
(0 0 0.000854412)
(0 0 0.000909355)
(0 0 0.000964261)
(0 0 0.00101913)
(0 0 0.00107395)
(0 0 0.00112872)
(0 0 0.00118344)
(0 0 0.00123811)
(0 0 0.00129271)
(0 0 0.00134725)
(0 0 0.00140172)
(0 0 0.00145612)
(0 0 0.00151043)
(0 0 0.00156466)
(0 0 0.0016188)
(0 0 0.00167284)
(0 0 0.00172678)
(0 0 0.00178061)
(0 0 0.00183432)
(0 0 0.0018879)
(0 0 0.00194135)
(0 0 0.00199467)
(0 0 0.00204783)
(0 0 0.00210084)
(0 0 0.00215368)
(0 0 0.00220635)
(0 0 0.00225883)
(0 0 0.00231112)
(0 0 0.0023632)
(0 0 0.00241507)
(0 0 0.00246671)
(0 0 0.00251812)
(0 0 0.00256928)
(0 0 0.00262018)
(0 0 0.00267081)
(0 0 0.00272116)
(0 0 0.00277121)
(0 0 0.00282095)
(0 0 0.00287037)
(0 0 0.00291945)
(0 0 0.00296819)
(0 0 0.00301656)
(0 0 0.00306456)
(0 0 0.00311216)
(0 0 0.00315936)
(0 0 0.00320613)
(0 0 0.00325247)
(0 0 0.00329836)
(0 0 0.00334379)
(0 0 0.00338873)
(0 0 0.00343318)
(0 0 0.00347711)
(0 0 0.00352052)
(0 0 0.00356338)
(0 0 0.00360568)
(0 0 0.0036474)
(0 0 0.00368854)
(0 0 0.00372906)
(0 0 0.00376896)
(0 0 0.00380823)
(0 0 0.00384684)
(0 0 0.00388478)
(0 0 0.00392203)
(0 0 0.00395859)
(0 0 0.00399443)
(0 0 0.00402953)
(0 0 0.0040639)
(0 0 0.0040975)
(0 0 0.00413033)
(0 0 0.00416238)
(0 0 0.00419362)
(0 0 0.00422406)
(0 0 0.00425366)
(0 0 0.00428243)
(0 0 0.00431035)
(0 0 0.00433741)
(0 0 0.00436359)
(0 0 0.00438889)
(0 0 0.0044133)
(0 0 0.00443681)
(0 0 0.0044594)
(0 0 0.00448108)
(0 0 0.00450183)
(0 0 0.00452164)
(0 0 0.00454052)
(0 0 0.00455844)
(0 0 0.00457541)
(0 0 0.00459142)
(0 0 0.00460647)
(0 0 0.00462055)
(0 0 0.00463367)
(0 0 0.00464581)
(0 0 0.00465697)
(0 0 0.00466716)
(0 0 0.00467637)
(0 0 0.00468461)
(0 0 0.00469187)
(0 0 0.00469816)
(0 0 0.00470347)
(0 0 0.00470781)
(0 0 0.00471118)
(0 0 0.00471358)
(0 0 0.00471503)
(0 0 0.00471552)
(0 0 0.00471505)
(0 0 0.00471364)
(0 0 0.00471129)
(0 0 0.00470801)
(0 0 0.0047038)
(0 0 0.00469867)
(0 0 0.00469263)
(0 0 0.00468568)
(0 0 0.00467784)
(0 0 0.00466912)
(0 0 0.00465952)
(0 0 0.00464905)
(0 0 0.00463773)
(0 0 0.00462556)
(0 0 0.00461256)
(0 0 0.00459873)
(0 0 0.00458409)
(0 0 0.00456865)
(0 0 0.00455242)
(0 0 0.00453542)
(0 0 0.00451764)
(0 0 0.00449912)
(0 0 0.00447985)
(0 0 0.00445985)
(0 0 0.00443914)
(0 0 0.00441773)
(0 0 0.00439563)
(0 0 0.00437285)
(0 0 0.0043494)
(0 0 0.00432531)
(0 0 0.00430057)
(0 0 0.00427521)
(0 0 0.00424924)
(0 0 0.00422267)
(0 0 0.00419551)
(0 0 0.00416777)
(0 0 0.00413948)
(0 0 0.00411064)
(0 0 0.00408126)
(0 0 0.00405136)
(0 0 0.00402095)
(0 0 0.00399003)
(0 0 0.00395864)
(0 0 0.00392677)
(0 0 0.00389443)
(0 0 0.00386165)
(0 0 0.00382842)
(0 0 0.00379477)
(0 0 0.00376071)
(0 0 0.00372624)
(0 0 0.00369137)
(0 0 0.00365613)
(0 0 0.00362051)
(0 0 0.00358453)
(0 0 0.00354819)
(0 0 0.00351152)
(0 0 0.00347452)
(0 0 0.00343719)
(0 0 0.00339956)
(0 0 0.00336162)
(0 0 0.00332339)
(0 0 0.00328488)
(0 0 0.00324609)
(0 0 0.00320703)
(0 0 0.00316772)
(0 0 0.00312816)
(0 0 0.00308836)
(0 0 0.00304833)
(0 0 0.00300807)
(0 0 0.00296759)
(0 0 0.00292691)
(0 0 0.00288602)
(0 0 0.00284494)
(0 0 0.00280367)
(0 0 0.00276222)
(0 0 0.00272059)
(0 0 0.00267879)
(0 0 0.00263684)
(0 0 0.00259472)
(0 0 0.00255246)
(0 0 0.00251005)
(0 0 0.0024675)
(0 0 0.00242482)
(0 0 0.00238201)
(0 0 0.00233908)
(0 0 0.00229603)
(0 0 0.00225287)
(0 0 0.0022096)
(0 0 0.00216622)
(0 0 0.00212275)
(0 0 0.00207918)
(0 0 0.00203552)
(0 0 0.00199177)
(0 0 0.00194794)
(0 0 0.00190403)
(0 0 0.00186005)
(0 0 0.00181599)
(0 0 0.00177187)
(0 0 0.00172768)
(0 0 0.00168342)
(0 0 0.00163911)
(0 0 0.00159474)
(0 0 0.00155032)
(0 0 0.00150585)
(0 0 0.00146132)
(0 0 0.00141676)
(0 0 0.00137215)
(0 0 0.0013275)
(0 0 0.00128281)
(0 0 0.00123808)
(0 0 0.00119332)
(0 0 0.00114853)
(0 0 0.0011037)
(0 0 0.00105885)
(0 0 0.00101397)
(0 0 0.000969064)
(0 0 0.000924135)
(0 0 0.000879184)
(0 0 0.000834212)
(0 0 0.000789221)
(0 0 0.000744212)
(0 0 0.000699187)
(0 0 0.000654146)
(0 0 0.000609091)
(0 0 0.000564023)
(0 0 0.000518943)
(0 0 0.000473852)
(0 0 0.000428752)
(0 0 0.000383643)
(0 0 0.000338526)
(0 0 0.000293403)
(0 0 0.000248273)
(0 0 0.000203139)
(0 0 0.000158001)
(0 0 0.00011286)
(0 0 6.7717e-05)
(0 0 2.25725e-05)
(0 0 4.60005e-05)
(0 0 0.000138)
(0 0 0.000229995)
(0 0 0.000321983)
(0 0 0.00041396)
(0 0 0.000505924)
(0 0 0.000597871)
(0 0 0.000689799)
(0 0 0.000781703)
(0 0 0.000873579)
(0 0 0.000965426)
(0 0 0.00105724)
(0 0 0.00114901)
(0 0 0.00124074)
(0 0 0.00133243)
(0 0 0.00142406)
(0 0 0.00151563)
(0 0 0.00160715)
(0 0 0.00169859)
(0 0 0.00178996)
(0 0 0.00188126)
(0 0 0.00197246)
(0 0 0.00206358)
(0 0 0.00215459)
(0 0 0.00224549)
(0 0 0.00233628)
(0 0 0.00242695)
(0 0 0.00251748)
(0 0 0.00260787)
(0 0 0.00269811)
(0 0 0.00278819)
(0 0 0.00287809)
(0 0 0.00296781)
(0 0 0.00305733)
(0 0 0.00314665)
(0 0 0.00323575)
(0 0 0.00332461)
(0 0 0.00341322)
(0 0 0.00350158)
(0 0 0.00358966)
(0 0 0.00367745)
(0 0 0.00376493)
(0 0 0.00385209)
(0 0 0.0039389)
(0 0 0.00402536)
(0 0 0.00411145)
(0 0 0.00419714)
(0 0 0.00428242)
(0 0 0.00436727)
(0 0 0.00445167)
(0 0 0.00453559)
(0 0 0.00461902)
(0 0 0.00470194)
(0 0 0.00478432)
(0 0 0.00486614)
(0 0 0.00494738)
(0 0 0.00502802)
(0 0 0.00510803)
(0 0 0.00518738)
(0 0 0.00526606)
(0 0 0.00534404)
(0 0 0.00542129)
(0 0 0.00549779)
(0 0 0.00557352)
(0 0 0.00564844)
(0 0 0.00572253)
(0 0 0.00579577)
(0 0 0.00586813)
(0 0 0.00593958)
(0 0 0.0060101)
(0 0 0.00607966)
(0 0 0.00614823)
(0 0 0.00621579)
(0 0 0.00628232)
(0 0 0.00634777)
(0 0 0.00641214)
(0 0 0.00647539)
(0 0 0.0065375)
(0 0 0.00659844)
(0 0 0.00665819)
(0 0 0.00671672)
(0 0 0.00677401)
(0 0 0.00683003)
(0 0 0.00688476)
(0 0 0.00693819)
(0 0 0.00699028)
(0 0 0.00704101)
(0 0 0.00709037)
(0 0 0.00713833)
(0 0 0.00718487)
(0 0 0.00722998)
(0 0 0.00727363)
(0 0 0.00731581)
(0 0 0.00735651)
(0 0 0.00739569)
(0 0 0.00743336)
(0 0 0.0074695)
(0 0 0.00750409)
(0 0 0.00753712)
(0 0 0.00756858)
(0 0 0.00759846)
(0 0 0.00762675)
(0 0 0.00765344)
(0 0 0.00767853)
(0 0 0.007702)
(0 0 0.00772386)
(0 0 0.00774409)
(0 0 0.0077627)
(0 0 0.00777969)
(0 0 0.00779504)
(0 0 0.00780877)
(0 0 0.00782087)
(0 0 0.00783134)
(0 0 0.00784019)
(0 0 0.00784742)
(0 0 0.00785304)
(0 0 0.00785704)
(0 0 0.00785945)
(0 0 0.00786025)
(0 0 0.00785947)
(0 0 0.00785712)
(0 0 0.00785319)
(0 0 0.00784771)
(0 0 0.00784069)
(0 0 0.00783213)
(0 0 0.00782205)
(0 0 0.00781047)
(0 0 0.00779739)
(0 0 0.00778284)
(0 0 0.00776683)
(0 0 0.00774937)
(0 0 0.00773049)
(0 0 0.0077102)
(0 0 0.00768851)
(0 0 0.00766546)
(0 0 0.00764104)
(0 0 0.0076153)
(0 0 0.00758823)
(0 0 0.00755988)
(0 0 0.00753024)
(0 0 0.00749935)
(0 0 0.00746722)
(0 0 0.00743389)
(0 0 0.00739935)
(0 0 0.00736365)
(0 0 0.0073268)
(0 0 0.00728882)
(0 0 0.00724973)
(0 0 0.00720955)
(0 0 0.00716831)
(0 0 0.00712603)
(0 0 0.00708273)
(0 0 0.00703843)
(0 0 0.00699315)
(0 0 0.00694691)
(0 0 0.00689974)
(0 0 0.00685166)
(0 0 0.00680268)
(0 0 0.00675283)
(0 0 0.00670213)
(0 0 0.0066506)
(0 0 0.00659826)
(0 0 0.00654512)
(0 0 0.00649122)
(0 0 0.00643657)
(0 0 0.00638118)
(0 0 0.00632509)
(0 0 0.0062683)
(0 0 0.00621083)
(0 0 0.00615271)
(0 0 0.00609396)
(0 0 0.00603458)
(0 0 0.0059746)
(0 0 0.00591404)
(0 0 0.0058529)
(0 0 0.00579122)
(0 0 0.005729)
(0 0 0.00566626)
(0 0 0.00560302)
(0 0 0.0055393)
(0 0 0.0054751)
(0 0 0.00541044)
(0 0 0.00534534)
(0 0 0.00527981)
(0 0 0.00521387)
(0 0 0.00514753)
(0 0 0.0050808)
(0 0 0.00501369)
(0 0 0.00494622)
(0 0 0.00487841)
(0 0 0.00481025)
(0 0 0.00474178)
(0 0 0.00467298)
(0 0 0.00460389)
(0 0 0.0045345)
(0 0 0.00446484)
(0 0 0.0043949)
(0 0 0.0043247)
(0 0 0.00425426)
(0 0 0.00418357)
(0 0 0.00411265)
(0 0 0.00404151)
(0 0 0.00397016)
(0 0 0.0038986)
(0 0 0.00382684)
(0 0 0.0037549)
(0 0 0.00368278)
(0 0 0.00361048)
(0 0 0.00353802)
(0 0 0.0034654)
(0 0 0.00339263)
(0 0 0.00331971)
(0 0 0.00324666)
(0 0 0.00317347)
(0 0 0.00310016)
(0 0 0.00302673)
(0 0 0.00295318)
(0 0 0.00287953)
(0 0 0.00280577)
(0 0 0.00273191)
(0 0 0.00265796)
(0 0 0.00258392)
(0 0 0.0025098)
(0 0 0.00243559)
(0 0 0.00236131)
(0 0 0.00228696)
(0 0 0.00221254)
(0 0 0.00213805)
(0 0 0.0020635)
(0 0 0.0019889)
(0 0 0.00191424)
(0 0 0.00183953)
(0 0 0.00176478)
(0 0 0.00168998)
(0 0 0.00161513)
(0 0 0.00154025)
(0 0 0.00146533)
(0 0 0.00139038)
(0 0 0.00131539)
(0 0 0.00124037)
(0 0 0.00116533)
(0 0 0.00109026)
(0 0 0.00101517)
(0 0 0.000940051)
(0 0 0.000864916)
(0 0 0.000789764)
(0 0 0.000714596)
(0 0 0.000639413)
(0 0 0.000564217)
(0 0 0.000489011)
(0 0 0.000413794)
(0 0 0.00033857)
(0 0 0.000263339)
(0 0 0.000188103)
(0 0 0.000112863)
(0 0 3.76213e-05)
(0 0 6.44028e-05)
(0 0 0.000193206)
(0 0 0.000322004)
(0 0 0.000450791)
(0 0 0.000579564)
(0 0 0.000708317)
(0 0 0.000837048)
(0 0 0.000965751)
(0 0 0.00109442)
(0 0 0.00122305)
(0 0 0.00135164)
(0 0 0.00148019)
(0 0 0.00160868)
(0 0 0.00173711)
(0 0 0.00186547)
(0 0 0.00199376)
(0 0 0.00212197)
(0 0 0.0022501)
(0 0 0.00237813)
(0 0 0.00250606)
(0 0 0.00263388)
(0 0 0.00276158)
(0 0 0.00288915)
(0 0 0.00301658)
(0 0 0.00314385)
(0 0 0.00327097)
(0 0 0.00339792)
(0 0 0.00352467)
(0 0 0.00365123)
(0 0 0.00377758)
(0 0 0.0039037)
(0 0 0.00402958)
(0 0 0.00415521)
(0 0 0.00428056)
(0 0 0.00440562)
(0 0 0.00453037)
(0 0 0.0046548)
(0 0 0.00477888)
(0 0 0.0049026)
(0 0 0.00502593)
(0 0 0.00514885)
(0 0 0.00527135)
(0 0 0.0053934)
(0 0 0.00551497)
(0 0 0.00563604)
(0 0 0.00575658)
(0 0 0.00587658)
(0 0 0.005996)
(0 0 0.00611481)
(0 0 0.006233)
(0 0 0.00635052)
(0 0 0.00646735)
(0 0 0.00658347)
(0 0 0.00669883)
(0 0 0.00681341)
(0 0 0.00692718)
(0 0 0.00704011)
(0 0 0.00715215)
(0 0 0.00726328)
(0 0 0.00737347)
(0 0 0.00748267)
(0 0 0.00759086)
(0 0 0.007698)
(0 0 0.00780405)
(0 0 0.00790897)
(0 0 0.00801274)
(0 0 0.00811531)
(0 0 0.00821665)
(0 0 0.00831672)
(0 0 0.00841549)
(0 0 0.00851291)
(0 0 0.00860895)
(0 0 0.00870357)
(0 0 0.00879674)
(0 0 0.00888841)
(0 0 0.00897856)
(0 0 0.00906715)
(0 0 0.00915413)
(0 0 0.00923948)
(0 0 0.00932317)
(0 0 0.00940514)
(0 0 0.00948538)
(0 0 0.00956385)
(0 0 0.00964051)
(0 0 0.00971533)
(0 0 0.00978829)
(0 0 0.00985934)
(0 0 0.00992847)
(0 0 0.00999564)
(0 0 0.0100608)
(0 0 0.010124)
(0 0 0.0101851)
(0 0 0.0102442)
(0 0 0.0103012)
(0 0 0.0103561)
(0 0 0.0104089)
(0 0 0.0104595)
(0 0 0.0105079)
(0 0 0.0105542)
(0 0 0.0105982)
(0 0 0.0106401)
(0 0 0.0106797)
(0 0 0.0107171)
(0 0 0.0107522)
(0 0 0.0107851)
(0 0 0.0108157)
(0 0 0.010844)
(0 0 0.0108701)
(0 0 0.0108938)
(0 0 0.0109153)
(0 0 0.0109346)
(0 0 0.0109515)
(0 0 0.0109662)
(0 0 0.0109785)
(0 0 0.0109887)
(0 0 0.0109965)
(0 0 0.0110021)
(0 0 0.0110055)
(0 0 0.0110066)
(0 0 0.0110055)
(0 0 0.0110022)
(0 0 0.0109967)
(0 0 0.010989)
(0 0 0.0109791)
(0 0 0.0109671)
(0 0 0.010953)
(0 0 0.0109367)
(0 0 0.0109184)
(0 0 0.010898)
(0 0 0.0108756)
(0 0 0.0108511)
(0 0 0.0108247)
(0 0 0.0107962)
(0 0 0.0107658)
(0 0 0.0107335)
(0 0 0.0106993)
(0 0 0.0106633)
(0 0 0.0106253)
(0 0 0.0105856)
(0 0 0.0105441)
(0 0 0.0105008)
(0 0 0.0104558)
(0 0 0.0104091)
(0 0 0.0103607)
(0 0 0.0103107)
(0 0 0.0102591)
(0 0 0.0102059)
(0 0 0.0101511)
(0 0 0.0100949)
(0 0 0.0100371)
(0 0 0.00997787)
(0 0 0.00991722)
(0 0 0.00985517)
(0 0 0.00979175)
(0 0 0.00972699)
(0 0 0.00966092)
(0 0 0.00959357)
(0 0 0.00952497)
(0 0 0.00945516)
(0 0 0.00938415)
(0 0 0.00931197)
(0 0 0.00923866)
(0 0 0.00916425)
(0 0 0.00908876)
(0 0 0.00901222)
(0 0 0.00893465)
(0 0 0.00885609)
(0 0 0.00877656)
(0 0 0.00869608)
(0 0 0.00861469)
(0 0 0.00853241)
(0 0 0.00844925)
(0 0 0.00836526)
(0 0 0.00828044)
(0 0 0.00819484)
(0 0 0.00810846)
(0 0 0.00802133)
(0 0 0.00793347)
(0 0 0.00784492)
(0 0 0.00775568)
(0 0 0.00766578)
(0 0 0.00757524)
(0 0 0.00748408)
(0 0 0.00739232)
(0 0 0.00729998)
(0 0 0.00720708)
(0 0 0.00711364)
(0 0 0.00701967)
(0 0 0.0069252)
(0 0 0.00683024)
(0 0 0.00673481)
(0 0 0.00663892)
(0 0 0.0065426)
(0 0 0.00644585)
(0 0 0.0063487)
(0 0 0.00625115)
(0 0 0.00615322)
(0 0 0.00605493)
(0 0 0.00595629)
(0 0 0.00585732)
(0 0 0.00575802)
(0 0 0.00565841)
(0 0 0.0055585)
(0 0 0.00545831)
(0 0 0.00535784)
(0 0 0.00525711)
(0 0 0.00515613)
(0 0 0.0050549)
(0 0 0.00495345)
(0 0 0.00485177)
(0 0 0.00474988)
(0 0 0.00464779)
(0 0 0.00454551)
(0 0 0.00444304)
(0 0 0.00434039)
(0 0 0.00423758)
(0 0 0.00413461)
(0 0 0.00403149)
(0 0 0.00392822)
(0 0 0.00382481)
(0 0 0.00372127)
(0 0 0.00361761)
(0 0 0.00351383)
(0 0 0.00340993)
(0 0 0.00330593)
(0 0 0.00320184)
(0 0 0.00309764)
(0 0 0.00299336)
(0 0 0.00288899)
(0 0 0.00278454)
(0 0 0.00268001)
(0 0 0.00257542)
(0 0 0.00247075)
(0 0 0.00236603)
(0 0 0.00226124)
(0 0 0.0021564)
(0 0 0.00205151)
(0 0 0.00194657)
(0 0 0.00184159)
(0 0 0.00173656)
(0 0 0.0016315)
(0 0 0.00152639)
(0 0 0.00142126)
(0 0 0.0013161)
(0 0 0.00121091)
(0 0 0.00110569)
(0 0 0.00100045)
(0 0 0.000895196)
(0 0 0.00078992)
(0 0 0.000684628)
(0 0 0.000579323)
(0 0 0.000474007)
(0 0 0.000368682)
(0 0 0.000263349)
(0 0 0.000158011)
(0 0 5.26708e-05)
(0 0 8.28072e-05)
(0 0 0.000248419)
(0 0 0.000414023)
(0 0 0.000579613)
(0 0 0.000745186)
(0 0 0.000910734)
(0 0 0.00107625)
(0 0 0.00124174)
(0 0 0.00140718)
(0 0 0.00157257)
(0 0 0.00173791)
(0 0 0.00190319)
(0 0 0.0020684)
(0 0 0.00223353)
(0 0 0.00239859)
(0 0 0.00256354)
(0 0 0.0027284)
(0 0 0.00289315)
(0 0 0.00305777)
(0 0 0.00322227)
(0 0 0.00338662)
(0 0 0.00355082)
(0 0 0.00371486)
(0 0 0.00387871)
(0 0 0.00404238)
(0 0 0.00420583)
(0 0 0.00436907)
(0 0 0.00453207)
(0 0 0.00469481)
(0 0 0.00485728)
(0 0 0.00501946)
(0 0 0.00518134)
(0 0 0.00534288)
(0 0 0.00550407)
(0 0 0.0056649)
(0 0 0.00582532)
(0 0 0.00598533)
(0 0 0.0061449)
(0 0 0.006304)
(0 0 0.00646261)
(0 0 0.00662069)
(0 0 0.00677823)
(0 0 0.00693518)
(0 0 0.00709153)
(0 0 0.00724723)
(0 0 0.00740226)
(0 0 0.00755659)
(0 0 0.00771018)
(0 0 0.00786299)
(0 0 0.00801499)
(0 0 0.00816614)
(0 0 0.00831641)
(0 0 0.00846575)
(0 0 0.00861413)
(0 0 0.0087615)
(0 0 0.00890783)
(0 0 0.00905307)
(0 0 0.00919719)
(0 0 0.00934013)
(0 0 0.00948186)
(0 0 0.00962232)
(0 0 0.00976148)
(0 0 0.00989929)
(0 0 0.0100357)
(0 0 0.0101707)
(0 0 0.0103041)
(0 0 0.0104361)
(0 0 0.0105664)
(0 0 0.0106952)
(0 0 0.0108222)
(0 0 0.0109475)
(0 0 0.0110711)
(0 0 0.0111928)
(0 0 0.0113126)
(0 0 0.0114306)
(0 0 0.0115465)
(0 0 0.0116605)
(0 0 0.0117724)
(0 0 0.0118822)
(0 0 0.0119898)
(0 0 0.0120953)
(0 0 0.0121985)
(0 0 0.0122995)
(0 0 0.0123981)
(0 0 0.0124943)
(0 0 0.0125882)
(0 0 0.0126796)
(0 0 0.0127685)
(0 0 0.0128549)
(0 0 0.0129388)
(0 0 0.0130201)
(0 0 0.0130987)
(0 0 0.0131747)
(0 0 0.013248)
(0 0 0.0133186)
(0 0 0.0133865)
(0 0 0.0134516)
(0 0 0.0135139)
(0 0 0.0135734)
(0 0 0.0136301)
(0 0 0.0136839)
(0 0 0.0137349)
(0 0 0.0137829)
(0 0 0.0138281)
(0 0 0.0138704)
(0 0 0.0139098)
(0 0 0.0139462)
(0 0 0.0139797)
(0 0 0.0140103)
(0 0 0.0140379)
(0 0 0.0140626)
(0 0 0.0140844)
(0 0 0.0141032)
(0 0 0.0141191)
(0 0 0.0141321)
(0 0 0.0141422)
(0 0 0.0141494)
(0 0 0.0141537)
(0 0 0.0141551)
(0 0 0.0141537)
(0 0 0.0141494)
(0 0 0.0141423)
(0 0 0.0141324)
(0 0 0.0141197)
(0 0 0.0141042)
(0 0 0.014086)
(0 0 0.0140651)
(0 0 0.0140415)
(0 0 0.0140152)
(0 0 0.0139864)
(0 0 0.0139549)
(0 0 0.0139208)
(0 0 0.0138842)
(0 0 0.0138451)
(0 0 0.0138035)
(0 0 0.0137595)
(0 0 0.0137131)
(0 0 0.0136643)
(0 0 0.0136131)
(0 0 0.0135597)
(0 0 0.013504)
(0 0 0.0134461)
(0 0 0.013386)
(0 0 0.0133238)
(0 0 0.0132594)
(0 0 0.013193)
(0 0 0.0131245)
(0 0 0.0130541)
(0 0 0.0129817)
(0 0 0.0129073)
(0 0 0.0128311)
(0 0 0.0127531)
(0 0 0.0126733)
(0 0 0.0125917)
(0 0 0.0125084)
(0 0 0.0124234)
(0 0 0.0123367)
(0 0 0.0122485)
(0 0 0.0121587)
(0 0 0.0120673)
(0 0 0.0119745)
(0 0 0.0118802)
(0 0 0.0117845)
(0 0 0.0116874)
(0 0 0.0115889)
(0 0 0.0114891)
(0 0 0.0113881)
(0 0 0.0112858)
(0 0 0.0111823)
(0 0 0.0110776)
(0 0 0.0109717)
(0 0 0.0108648)
(0 0 0.0107567)
(0 0 0.0106476)
(0 0 0.0105375)
(0 0 0.0104264)
(0 0 0.0103144)
(0 0 0.0102014)
(0 0 0.0100875)
(0 0 0.00997272)
(0 0 0.0098571)
(0 0 0.00974065)
(0 0 0.00962341)
(0 0 0.00950541)
(0 0 0.00938665)
(0 0 0.00926718)
(0 0 0.00914701)
(0 0 0.00902616)
(0 0 0.00890467)
(0 0 0.00878255)
(0 0 0.00865982)
(0 0 0.00853651)
(0 0 0.00841264)
(0 0 0.00828822)
(0 0 0.00816328)
(0 0 0.00803784)
(0 0 0.00791191)
(0 0 0.00778552)
(0 0 0.00765867)
(0 0 0.00753139)
(0 0 0.0074037)
(0 0 0.00727561)
(0 0 0.00714714)
(0 0 0.0070183)
(0 0 0.00688911)
(0 0 0.00675958)
(0 0 0.00662972)
(0 0 0.00649956)
(0 0 0.0063691)
(0 0 0.00623835)
(0 0 0.00610734)
(0 0 0.00597606)
(0 0 0.00584454)
(0 0 0.00571278)
(0 0 0.00558079)
(0 0 0.00544859)
(0 0 0.00531619)
(0 0 0.00518359)
(0 0 0.0050508)
(0 0 0.00491784)
(0 0 0.0047847)
(0 0 0.00465141)
(0 0 0.00451797)
(0 0 0.00438438)
(0 0 0.00425066)
(0 0 0.00411681)
(0 0 0.00398283)
(0 0 0.00384875)
(0 0 0.00371455)
(0 0 0.00358025)
(0 0 0.00344585)
(0 0 0.00331136)
(0 0 0.00317679)
(0 0 0.00304213)
(0 0 0.0029074)
(0 0 0.0027726)
(0 0 0.00263774)
(0 0 0.00250281)
(0 0 0.00236782)
(0 0 0.00223279)
(0 0 0.0020977)
(0 0 0.00196256)
(0 0 0.00182739)
(0 0 0.00169217)
(0 0 0.00155692)
(0 0 0.00142164)
(0 0 0.00128633)
(0 0 0.001151)
(0 0 0.00101564)
(0 0 0.00088026)
(0 0 0.000744864)
(0 0 0.000609453)
(0 0 0.000474031)
(0 0 0.0003386)
(0 0 0.000203163)
(0 0 6.77213e-05)
(0 0 0.000101214)
(0 0 0.000303639)
(0 0 0.000506055)
(0 0 0.000708454)
(0 0 0.000910832)
(0 0 0.00111318)
(0 0 0.00131549)
(0 0 0.00151776)
(0 0 0.00171998)
(0 0 0.00192214)
(0 0 0.00212424)
(0 0 0.00232626)
(0 0 0.0025282)
(0 0 0.00273005)
(0 0 0.00293179)
(0 0 0.00313343)
(0 0 0.00333494)
(0 0 0.00353632)
(0 0 0.00373755)
(0 0 0.00393862)
(0 0 0.00413952)
(0 0 0.00434023)
(0 0 0.00454075)
(0 0 0.00474104)
(0 0 0.00494111)
(0 0 0.00514092)
(0 0 0.00534046)
(0 0 0.00553971)
(0 0 0.00573866)
(0 0 0.00593727)
(0 0 0.00613553)
(0 0 0.00633342)
(0 0 0.0065309)
(0 0 0.00672796)
(0 0 0.00692457)
(0 0 0.00712069)
(0 0 0.00731631)
(0 0 0.00751139)
(0 0 0.0077059)
(0 0 0.00789981)
(0 0 0.00809308)
(0 0 0.00828568)
(0 0 0.00847758)
(0 0 0.00866873)
(0 0 0.0088591)
(0 0 0.00904865)
(0 0 0.00923734)
(0 0 0.00942513)
(0 0 0.00961197)
(0 0 0.00979783)
(0 0 0.00998264)
(0 0 0.0101664)
(0 0 0.010349)
(0 0 0.0105304)
(0 0 0.0107106)
(0 0 0.0108896)
(0 0 0.0110672)
(0 0 0.0112434)
(0 0 0.0114182)
(0 0 0.0115915)
(0 0 0.0117633)
(0 0 0.0119335)
(0 0 0.012102)
(0 0 0.0122688)
(0 0 0.0124339)
(0 0 0.0125971)
(0 0 0.0127584)
(0 0 0.0129179)
(0 0 0.0130753)
(0 0 0.0132307)
(0 0 0.0133839)
(0 0 0.013535)
(0 0 0.0136839)
(0 0 0.0138305)
(0 0 0.0139747)
(0 0 0.0141165)
(0 0 0.0142559)
(0 0 0.0143928)
(0 0 0.0145271)
(0 0 0.0146587)
(0 0 0.0147877)
(0 0 0.014914)
(0 0 0.0150374)
(0 0 0.015158)
(0 0 0.0152758)
(0 0 0.0153905)
(0 0 0.0155023)
(0 0 0.0156111)
(0 0 0.0157168)
(0 0 0.0158194)
(0 0 0.0159188)
(0 0 0.0160149)
(0 0 0.0161079)
(0 0 0.0161976)
(0 0 0.0162839)
(0 0 0.0163669)
(0 0 0.0164465)
(0 0 0.0165227)
(0 0 0.0165955)
(0 0 0.0166648)
(0 0 0.0167306)
(0 0 0.0167929)
(0 0 0.0168517)
(0 0 0.016907)
(0 0 0.0169586)
(0 0 0.0170068)
(0 0 0.0170513)
(0 0 0.0170923)
(0 0 0.0171297)
(0 0 0.0171634)
(0 0 0.0171936)
(0 0 0.0172202)
(0 0 0.0172432)
(0 0 0.0172627)
(0 0 0.0172785)
(0 0 0.0172908)
(0 0 0.0172996)
(0 0 0.0173048)
(0 0 0.0173065)
(0 0 0.0173047)
(0 0 0.0172995)
(0 0 0.0172907)
(0 0 0.0172786)
(0 0 0.017263)
(0 0 0.0172441)
(0 0 0.0172218)
(0 0 0.0171962)
(0 0 0.0171673)
(0 0 0.0171351)
(0 0 0.0170997)
(0 0 0.0170612)
(0 0 0.0170195)
(0 0 0.0169747)
(0 0 0.0169268)
(0 0 0.0168759)
(0 0 0.0168221)
(0 0 0.0167652)
(0 0 0.0167055)
(0 0 0.016643)
(0 0 0.0165776)
(0 0 0.0165094)
(0 0 0.0164386)
(0 0 0.016365)
(0 0 0.0162889)
(0 0 0.0162102)
(0 0 0.0161289)
(0 0 0.0160451)
(0 0 0.015959)
(0 0 0.0158704)
(0 0 0.0157795)
(0 0 0.0156863)
(0 0 0.0155908)
(0 0 0.0154931)
(0 0 0.0153933)
(0 0 0.0152914)
(0 0 0.0151875)
(0 0 0.0150815)
(0 0 0.0149736)
(0 0 0.0148637)
(0 0 0.014752)
(0 0 0.0146384)
(0 0 0.0145231)
(0 0 0.0144061)
(0 0 0.0142873)
(0 0 0.0141669)
(0 0 0.0140449)
(0 0 0.0139213)
(0 0 0.0137962)
(0 0 0.0136696)
(0 0 0.0135416)
(0 0 0.0134122)
(0 0 0.0132814)
(0 0 0.0131493)
(0 0 0.0130159)
(0 0 0.0128812)
(0 0 0.0127454)
(0 0 0.0126084)
(0 0 0.0124702)
(0 0 0.0123309)
(0 0 0.0121906)
(0 0 0.0120492)
(0 0 0.0119069)
(0 0 0.0117635)
(0 0 0.0116192)
(0 0 0.011474)
(0 0 0.011328)
(0 0 0.011181)
(0 0 0.0110333)
(0 0 0.0108848)
(0 0 0.0107355)
(0 0 0.0105854)
(0 0 0.0104347)
(0 0 0.0102832)
(0 0 0.0101311)
(0 0 0.00997837)
(0 0 0.00982502)
(0 0 0.00967107)
(0 0 0.00951655)
(0 0 0.00936148)
(0 0 0.00920588)
(0 0 0.00904978)
(0 0 0.0088932)
(0 0 0.00873614)
(0 0 0.00857864)
(0 0 0.00842071)
(0 0 0.00826237)
(0 0 0.00810363)
(0 0 0.00794451)
(0 0 0.00778503)
(0 0 0.00762521)
(0 0 0.00746505)
(0 0 0.00730458)
(0 0 0.00714381)
(0 0 0.00698275)
(0 0 0.00682141)
(0 0 0.00665981)
(0 0 0.00649796)
(0 0 0.00633587)
(0 0 0.00617356)
(0 0 0.00601103)
(0 0 0.0058483)
(0 0 0.00568537)
(0 0 0.00552226)
(0 0 0.00535897)
(0 0 0.00519551)
(0 0 0.0050319)
(0 0 0.00486814)
(0 0 0.00470425)
(0 0 0.00454021)
(0 0 0.00437606)
(0 0 0.00421178)
(0 0 0.0040474)
(0 0 0.00388291)
(0 0 0.00371832)
(0 0 0.00355364)
(0 0 0.00338887)
(0 0 0.00322403)
(0 0 0.00305911)
(0 0 0.00289412)
(0 0 0.00272906)
(0 0 0.00256395)
(0 0 0.00239878)
(0 0 0.00223355)
(0 0 0.00206828)
(0 0 0.00190297)
(0 0 0.00173762)
(0 0 0.00157224)
(0 0 0.00140682)
(0 0 0.00124138)
(0 0 0.00107591)
(0 0 0.000910418)
(0 0 0.000744911)
(0 0 0.00057939)
(0 0 0.000413858)
(0 0 0.000248318)
(0 0 8.27732e-05)
(0 0 0.000119624)
(0 0 0.000358869)
(0 0 0.000598103)
(0 0 0.000837318)
(0 0 0.00107651)
(0 0 0.00131566)
(0 0 0.00155478)
(0 0 0.00179384)
(0 0 0.00203284)
(0 0 0.00227178)
(0 0 0.00251064)
(0 0 0.00274942)
(0 0 0.00298809)
(0 0 0.00322666)
(0 0 0.00346511)
(0 0 0.00370343)
(0 0 0.00394161)
(0 0 0.00417963)
(0 0 0.00441748)
(0 0 0.00465514)
(0 0 0.0048926)
(0 0 0.00512985)
(0 0 0.00536685)
(0 0 0.00560361)
(0 0 0.00584009)
(0 0 0.00607627)
(0 0 0.00631214)
(0 0 0.00654767)
(0 0 0.00678283)
(0 0 0.00701761)
(0 0 0.00725197)
(0 0 0.0074859)
(0 0 0.00771935)
(0 0 0.0079523)
(0 0 0.00818472)
(0 0 0.00841657)
(0 0 0.00864783)
(0 0 0.00887845)
(0 0 0.0091084)
(0 0 0.00933764)
(0 0 0.00956614)
(0 0 0.00979384)
(0 0 0.0100207)
(0 0 0.0102467)
(0 0 0.0104718)
(0 0 0.0106959)
(0 0 0.010919)
(0 0 0.011141)
(0 0 0.0113619)
(0 0 0.0115817)
(0 0 0.0118002)
(0 0 0.0120175)
(0 0 0.0122334)
(0 0 0.0124479)
(0 0 0.012661)
(0 0 0.0128726)
(0 0 0.0130826)
(0 0 0.013291)
(0 0 0.0134977)
(0 0 0.0137027)
(0 0 0.0139058)
(0 0 0.0141071)
(0 0 0.0143064)
(0 0 0.0145037)
(0 0 0.0146989)
(0 0 0.0148919)
(0 0 0.0150827)
(0 0 0.0152713)
(0 0 0.0154575)
(0 0 0.0156412)
(0 0 0.0158225)
(0 0 0.0160012)
(0 0 0.0161773)
(0 0 0.0163506)
(0 0 0.0165212)
(0 0 0.016689)
(0 0 0.0168538)
(0 0 0.0170157)
(0 0 0.0171746)
(0 0 0.0173303)
(0 0 0.0174828)
(0 0 0.0176322)
(0 0 0.0177782)
(0 0 0.0179209)
(0 0 0.0180601)
(0 0 0.0181959)
(0 0 0.0183281)
(0 0 0.0184568)
(0 0 0.0185818)
(0 0 0.0187031)
(0 0 0.0188207)
(0 0 0.0189344)
(0 0 0.0190444)
(0 0 0.0191504)
(0 0 0.0192525)
(0 0 0.0193507)
(0 0 0.0194448)
(0 0 0.019535)
(0 0 0.019621)
(0 0 0.019703)
(0 0 0.0197808)
(0 0 0.0198545)
(0 0 0.019924)
(0 0 0.0199893)
(0 0 0.0200505)
(0 0 0.0201074)
(0 0 0.02016)
(0 0 0.0202084)
(0 0 0.0202526)
(0 0 0.0202925)
(0 0 0.0203282)
(0 0 0.0203596)
(0 0 0.0203868)
(0 0 0.0204098)
(0 0 0.0204285)
(0 0 0.020443)
(0 0 0.0204533)
(0 0 0.0204595)
(0 0 0.0204614)
(0 0 0.0204593)
(0 0 0.020453)
(0 0 0.0204426)
(0 0 0.0204282)
(0 0 0.0204097)
(0 0 0.0203873)
(0 0 0.0203608)
(0 0 0.0203305)
(0 0 0.0202963)
(0 0 0.0202582)
(0 0 0.0202163)
(0 0 0.0201706)
(0 0 0.0201213)
(0 0 0.0200682)
(0 0 0.0200116)
(0 0 0.0199513)
(0 0 0.0198876)
(0 0 0.0198203)
(0 0 0.0197496)
(0 0 0.0196756)
(0 0 0.0195982)
(0 0 0.0195176)
(0 0 0.0194337)
(0 0 0.0193467)
(0 0 0.0192566)
(0 0 0.0191634)
(0 0 0.0190673)
(0 0 0.0189682)
(0 0 0.0188662)
(0 0 0.0187614)
(0 0 0.0186539)
(0 0 0.0185436)
(0 0 0.0184307)
(0 0 0.0183152)
(0 0 0.0181971)
(0 0 0.0180766)
(0 0 0.0179536)
(0 0 0.0178282)
(0 0 0.0177006)
(0 0 0.0175706)
(0 0 0.0174385)
(0 0 0.0173042)
(0 0 0.0171678)
(0 0 0.0170293)
(0 0 0.0168889)
(0 0 0.0167465)
(0 0 0.0166022)
(0 0 0.016456)
(0 0 0.0163081)
(0 0 0.0161584)
(0 0 0.016007)
(0 0 0.015854)
(0 0 0.0156993)
(0 0 0.0155431)
(0 0 0.0153853)
(0 0 0.0152261)
(0 0 0.0150655)
(0 0 0.0149035)
(0 0 0.0147401)
(0 0 0.0145755)
(0 0 0.0144095)
(0 0 0.0142424)
(0 0 0.014074)
(0 0 0.0139046)
(0 0 0.013734)
(0 0 0.0135623)
(0 0 0.0133896)
(0 0 0.0132159)
(0 0 0.0130412)
(0 0 0.0128656)
(0 0 0.0126891)
(0 0 0.0125117)
(0 0 0.0123335)
(0 0 0.0121545)
(0 0 0.0119747)
(0 0 0.0117941)
(0 0 0.0116128)
(0 0 0.0114308)
(0 0 0.0112481)
(0 0 0.0110648)
(0 0 0.0108809)
(0 0 0.0106963)
(0 0 0.0105112)
(0 0 0.0103256)