/*--------------------------------*- C++ -*----------------------------------*\
| =========                 |                                                 |
| \\      /  F ield         | OpenFOAM: The Open Source CFD Toolbox           |
|  \\    /   O peration     | Version:  v2012                                 |
|   \\  /    A nd           | Website:  www.openfoam.com                      |
|    \\/     M anipulation  |                                                 |
\*---------------------------------------------------------------------------*/
FoamFile
{
    version     2.0;
    format      ascii;
    class       volVectorField;
    location    "6";
    object      U;
}
// * * * * * * * * * * * * * * * * * * * * * * * * * * * * * * * * * * * * * //

dimensions      [0 1 -1 0 0 0 0];


internalField   nonuniform List<vector> 
65536
(
(0.000749982 -0.00074997 0)
(0.00224992 -0.000749945 0)
(0.00374979 -0.000749897 0)
(0.00524953 -0.000749823 0)
(0.0067491 -0.000749725 0)
(0.00824846 -0.0007496 0)
(0.00974753 -0.00074945 0)
(0.0112463 -0.000749272 0)
(0.0127446 -0.000749065 0)
(0.0142426 -0.000748829 0)
(0.01574 -0.000748562 0)
(0.0172368 -0.000748262 0)
(0.0187331 -0.000747929 0)
(0.0202286 -0.00074756 0)
(0.0217233 -0.000747153 0)
(0.0232172 -0.000746707 0)
(0.0247102 -0.000746218 0)
(0.0262022 -0.000745686 0)
(0.027693 -0.000745107 0)
(0.0291826 -0.000744479 0)
(0.030671 -0.000743799 0)
(0.0321579 -0.000743065 0)
(0.0336433 -0.000742273 0)
(0.035127 -0.00074142 0)
(0.036609 -0.000740504 0)
(0.0380891 -0.00073952 0)
(0.0395672 -0.000738467 0)
(0.0410431 -0.000737339 0)
(0.0425166 -0.000736134 0)
(0.0439877 -0.000734847 0)
(0.0454561 -0.000733476 0)
(0.0469217 -0.000732016 0)
(0.0483842 -0.000730463 0)
(0.0498436 -0.000728814 0)
(0.0512996 -0.000727063 0)
(0.052752 -0.000725208 0)
(0.0542005 -0.000723243 0)
(0.0556451 -0.000721166 0)
(0.0570853 -0.00071897 0)
(0.0585211 -0.000716653 0)
(0.0599521 -0.00071421 0)
(0.061378 -0.000711636 0)
(0.0627987 -0.000708927 0)
(0.0642139 -0.000706079 0)
(0.0656232 -0.000703088 0)
(0.0670264 -0.000699948 0)
(0.0684231 -0.000696657 0)
(0.0698132 -0.00069321 0)
(0.0711961 -0.000689602 0)
(0.0725717 -0.000685829 0)
(0.0739396 -0.000681889 0)
(0.0752994 -0.000677776 0)
(0.0766509 -0.000673486 0)
(0.0779936 -0.000669017 0)
(0.0793271 -0.000664364 0)
(0.0806512 -0.000659525 0)
(0.0819654 -0.000654495 0)
(0.0832694 -0.000649272 0)
(0.0845627 -0.000643852 0)
(0.085845 -0.000638234 0)
(0.0871158 -0.000632414 0)
(0.0883749 -0.000626389 0)
(0.0896216 -0.000620159 0)
(0.0908557 -0.00061372 0)
(0.0920767 -0.000607071 0)
(0.0932842 -0.000600211 0)
(0.0944778 -0.000593138 0)
(0.095657 -0.000585851 0)
(0.0968214 -0.000578351 0)
(0.0979706 -0.000570635 0)
(0.0991041 -0.000562705 0)
(0.100222 -0.00055456 0)
(0.101323 -0.000546201 0)
(0.102407 -0.000537629 0)
(0.103473 -0.000528845 0)
(0.104522 -0.000519849 0)
(0.105553 -0.000510645 0)
(0.106565 -0.000501234 0)
(0.107558 -0.000491618 0)
(0.108532 -0.0004818 0)
(0.109485 -0.000471783 0)
(0.110419 -0.000461571 0)
(0.111332 -0.000451167 0)
(0.112224 -0.000440575 0)
(0.113094 -0.000429799 0)
(0.113943 -0.000418844 0)
(0.11477 -0.000407715 0)
(0.115574 -0.000396417 0)
(0.116356 -0.000384956 0)
(0.117114 -0.000373337 0)
(0.117849 -0.000361566 0)
(0.118561 -0.00034965 0)
(0.119248 -0.000337594 0)
(0.119911 -0.000325406 0)
(0.12055 -0.000313093 0)
(0.121164 -0.000300662 0)
(0.121753 -0.00028812 0)
(0.122316 -0.000275474 0)
(0.122855 -0.000262733 0)
(0.123367 -0.000249904 0)
(0.123854 -0.000236995 0)
(0.124315 -0.000224013 0)
(0.12475 -0.000210968 0)
(0.125159 -0.000197867 0)
(0.125542 -0.000184719 0)
(0.125898 -0.000171531 0)
(0.126228 -0.000158312 0)
(0.126531 -0.000145071 0)
(0.126808 -0.000131816 0)
(0.127059 -0.000118554 0)
(0.127283 -0.000105294 0)
(0.12748 -9.20453e-05 0)
(0.127651 -7.88144e-05 0)
(0.127795 -6.56098e-05 0)
(0.127913 -5.24394e-05 0)
(0.128005 -3.93108e-05 0)
(0.12807 -2.62317e-05 0)
(0.12811 -1.32095e-05 0)
(0.128123 -2.51531e-07 0)
(0.128111 1.26352e-05 0)
(0.128072 2.54437e-05 0)
(0.128009 3.81674e-05 0)
(0.12792 5.07996e-05 0)
(0.127805 6.33341e-05 0)
(0.127666 7.57648e-05 0)
(0.127502 8.8086e-05 0)
(0.127314 0.000100292 0)
(0.127101 0.000112377 0)
(0.126864 0.000124337 0)
(0.126604 0.000136166 0)
(0.126319 0.00014786 0)
(0.126012 0.000159415 0)
(0.125682 0.000170826 0)
(0.125328 0.000182089 0)
(0.124953 0.000193202 0)
(0.124556 0.00020416 0)
(0.124136 0.000214961 0)
(0.123696 0.000225601 0)
(0.123234 0.000236079 0)
(0.122751 0.000246392 0)
(0.122248 0.000256537 0)
(0.121725 0.000266514 0)
(0.121182 0.00027632 0)
(0.120619 0.000285954 0)
(0.120038 0.000295415 0)
(0.119437 0.000304701 0)
(0.118819 0.000313814 0)
(0.118182 0.00032275 0)
(0.117528 0.000331512 0)
(0.116856 0.000340097 0)
(0.116167 0.000348507 0)
(0.115462 0.000356741 0)
(0.11474 0.000364801 0)
(0.114002 0.000372686 0)
(0.113249 0.000380397 0)
(0.11248 0.000387936 0)
(0.111697 0.000395303 0)
(0.110899 0.000402499 0)
(0.110087 0.000409526 0)
(0.109261 0.000416385 0)
(0.108421 0.000423077 0)
(0.107568 0.000429605 0)
(0.106703 0.00043597 0)
(0.105824 0.000442173 0)
(0.104934 0.000448217 0)
(0.104031 0.000454103 0)
(0.103117 0.000459834 0)
(0.102192 0.000465412 0)
(0.101255 0.000470838 0)
(0.100308 0.000476115 0)
(0.0993508 0.000481246 0)
(0.0983832 0.000486232 0)
(0.0974057 0.000491077 0)
(0.0964187 0.000495781 0)
(0.0954224 0.000500348 0)
(0.0944172 0.000504781 0)
(0.0934032 0.000509081 0)
(0.0923807 0.000513251 0)
(0.0913501 0.000517293 0)
(0.0903114 0.000521211 0)
(0.0892651 0.000525006 0)
(0.0882113 0.000528681 0)
(0.0871503 0.000532238 0)
(0.0860822 0.000535681 0)
(0.0850074 0.00053901 0)
(0.0839261 0.00054223 0)
(0.0828384 0.000545342 0)
(0.0817446 0.000548349 0)
(0.0806449 0.000551253 0)
(0.0795395 0.000554057 0)
(0.0784286 0.000556763 0)
(0.0773123 0.000559373 0)
(0.076191 0.00056189 0)
(0.0750647 0.000564316 0)
(0.0739336 0.000566654 0)
(0.072798 0.000568905 0)
(0.0716579 0.000571072 0)
(0.0705136 0.000573157 0)
(0.0693652 0.000575163 0)
(0.0682129 0.000577092 0)
(0.0670568 0.000578945 0)
(0.065897 0.000580725 0)
(0.0647338 0.000582434 0)
(0.0635672 0.000584074 0)
(0.0623975 0.000585647 0)
(0.0612246 0.000587154 0)
(0.0600488 0.000588599 0)
(0.0588701 0.000589983 0)
(0.0576888 0.000591308 0)
(0.0565048 0.000592575 0)
(0.0553184 0.000593787 0)
(0.0541296 0.000594945 0)
(0.0529386 0.000596051 0)
(0.0517454 0.000597107 0)
(0.0505501 0.000598114 0)
(0.0493529 0.000599074 0)
(0.0481538 0.000599989 0)
(0.0469529 0.000600861 0)
(0.0457503 0.00060169 0)
(0.0445461 0.000602479 0)
(0.0433403 0.000603228 0)
(0.0421331 0.00060394 0)
(0.0409245 0.000604615 0)
(0.0397146 0.000605256 0)
(0.0385035 0.000605863 0)
(0.0372912 0.000606437 0)
(0.0360777 0.000606981 0)
(0.0348632 0.000607494 0)
(0.0336477 0.000607979 0)
(0.0324313 0.000608437 0)
(0.0312139 0.000608868 0)
(0.0299958 0.000609273 0)
(0.0287768 0.000609654 0)
(0.0275571 0.000610012 0)
(0.0263367 0.000610348 0)
(0.0251157 0.000610662 0)
(0.0238941 0.000610955 0)
(0.0226719 0.000611229 0)
(0.0214491 0.000611483 0)
(0.0202259 0.000611719 0)
(0.0190022 0.000611938 0)
(0.0177781 0.00061214 0)
(0.0165537 0.000612325 0)
(0.0153288 0.000612495 0)
(0.0141037 0.00061265 0)
(0.0128782 0.00061279 0)
(0.0116525 0.000612915 0)
(0.0104265 0.000613027 0)
(0.00920037 0.000613126 0)
(0.00797402 0.000613212 0)
(0.00674751 0.000613284 0)
(0.00552087 0.000613345 0)
(0.00429412 0.000613393 0)
(0.00306729 0.000613428 0)
(0.0018404 0.000613452 0)
(0.00061347 0.000613464 0)
(0.000750005 -0.00224993 0)
(0.00224999 -0.00224986 0)
(0.00374991 -0.00224971 0)
(0.0052497 -0.00224949 0)
(0.00674932 -0.0022492 0)
(0.00824873 -0.00224883 0)
(0.00974786 -0.00224838 0)
(0.0112467 -0.00224784 0)
(0.0127451 -0.00224722 0)
(0.0142431 -0.00224652 0)
(0.0157406 -0.00224572 0)
(0.0172375 -0.00224482 0)
(0.0187338 -0.00224382 0)
(0.0202294 -0.00224272 0)
(0.0217242 -0.0022415 0)
(0.0232182 -0.00224016 0)
(0.0247112 -0.0022387 0)
(0.0262033 -0.0022371 0)
(0.0276942 -0.00223537 0)
(0.0291839 -0.00223349 0)
(0.0306724 -0.00223145 0)
(0.0321594 -0.00222925 0)
(0.0336449 -0.00222688 0)
(0.0351288 -0.00222432 0)
(0.0366109 -0.00222158 0)
(0.0380911 -0.00221863 0)
(0.0395693 -0.00221547 0)
(0.0410454 -0.00221209 0)
(0.0425191 -0.00220848 0)
(0.0439903 -0.00220463 0)
(0.0454589 -0.00220052 0)
(0.0469247 -0.00219614 0)
(0.0483874 -0.00219148 0)
(0.049847 -0.00218654 0)
(0.0513032 -0.00218129 0)
(0.0527558 -0.00217573 0)
(0.0542046 -0.00216984 0)
(0.0556493 -0.00216361 0)
(0.0570898 -0.00215703 0)
(0.0585258 -0.00215008 0)
(0.059957 -0.00214276 0)
(0.0613833 -0.00213504 0)
(0.0628043 -0.00212692 0)
(0.0642197 -0.00211838 0)
(0.0656293 -0.00210941 0)
(0.0670328 -0.0021 0)
(0.0684298 -0.00209013 0)
(0.0698202 -0.00207979 0)
(0.0712035 -0.00206897 0)
(0.0725794 -0.00205766 0)
(0.0739476 -0.00204584 0)
(0.0753078 -0.0020335 0)
(0.0766596 -0.00202064 0)
(0.0780027 -0.00200723 0)
(0.0793366 -0.00199328 0)
(0.0806611 -0.00197876 0)
(0.0819757 -0.00196368 0)
(0.08328 -0.00194801 0)
(0.0845737 -0.00193176 0)
(0.0858564 -0.0019149 0)
(0.0871277 -0.00189744 0)
(0.0883871 -0.00187937 0)
(0.0896342 -0.00186068 0)
(0.0908688 -0.00184137 0)
(0.0920902 -0.00182142 0)
(0.0932981 -0.00180084 0)
(0.0944921 -0.00177963 0)
(0.0956717 -0.00175777 0)
(0.0968366 -0.00173527 0)
(0.0979862 -0.00171212 0)
(0.0991202 -0.00168833 0)
(0.100238 -0.00166389 0)
(0.101339 -0.00163882 0)
(0.102424 -0.0016131 0)
(0.103491 -0.00158674 0)
(0.10454 -0.00155976 0)
(0.105571 -0.00153214 0)
(0.106584 -0.0015039 0)
(0.107577 -0.00147505 0)
(0.108551 -0.0014456 0)
(0.109506 -0.00141554 0)
(0.11044 -0.0013849 0)
(0.111353 -0.00135369 0)
(0.112245 -0.00132191 0)
(0.113116 -0.00128957 0)
(0.113965 -0.00125671 0)
(0.114792 -0.00122331 0)
(0.115597 -0.00118941 0)
(0.116379 -0.00115503 0)
(0.117138 -0.00112016 0)
(0.117873 -0.00108484 0)
(0.118585 -0.00104909 0)
(0.119272 -0.00101291 0)
(0.119936 -0.000976344 0)
(0.120574 -0.000939398 0)
(0.121189 -0.000902097 0)
(0.121778 -0.000864463 0)
(0.122342 -0.000826519 0)
(0.12288 -0.000788287 0)
(0.123393 -0.000749791 0)
(0.12388 -0.000711056 0)
(0.124341 -0.000672104 0)
(0.124776 -0.00063296 0)
(0.125185 -0.000593649 0)
(0.125568 -0.000554195 0)
(0.125925 -0.000514624 0)
(0.126254 -0.00047496 0)
(0.126558 -0.000435228 0)
(0.126835 -0.000395453 0)
(0.127085 -0.00035566 0)
(0.127309 -0.000315874 0)
(0.127506 -0.000276118 0)
(0.127677 -0.000236417 0)
(0.127821 -0.000196796 0)
(0.127939 -0.000157277 0)
(0.128031 -0.000117883 0)
(0.128096 -7.86388e-05 0)
(0.128136 -3.9565e-05 0)
(0.128149 -6.83909e-07 0)
(0.128136 3.79831e-05 0)
(0.128098 7.64154e-05 0)
(0.128034 0.000114593 0)
(0.127945 0.000152496 0)
(0.12783 0.000190105 0)
(0.127691 0.000227403 0)
(0.127527 0.000264372 0)
(0.127338 0.000300995 0)
(0.127125 0.000337257 0)
(0.126888 0.000373141 0)
(0.126627 0.000408633 0)
(0.126343 0.000443719 0)
(0.126035 0.000478387 0)
(0.125704 0.000512623 0)
(0.125351 0.000546418 0)
(0.124975 0.000579758 0)
(0.124577 0.000612636 0)
(0.124158 0.000645041 0)
(0.123717 0.000676966 0)
(0.123254 0.000708401 0)
(0.122771 0.000739341 0)
(0.122268 0.00076978 0)
(0.121744 0.000799711 0)
(0.121201 0.00082913 0)
(0.120638 0.000858033 0)
(0.120056 0.000886417 0)
(0.119456 0.000914278 0)
(0.118837 0.000941615 0)
(0.1182 0.000968425 0)
(0.117545 0.000994709 0)
(0.116873 0.00102047 0)
(0.116184 0.00104569 0)
(0.115478 0.0010704 0)
(0.114756 0.00109458 0)
(0.114018 0.00111823 0)
(0.113264 0.00114136 0)
(0.112495 0.00116398 0)
(0.111712 0.00118608 0)
(0.110913 0.00120767 0)
(0.110101 0.00122874 0)
(0.109274 0.00124932 0)
(0.108434 0.0012694 0)
(0.107581 0.00128898 0)
(0.106715 0.00130807 0)
(0.105837 0.00132668 0)
(0.104946 0.00134481 0)
(0.104043 0.00136246 0)
(0.103128 0.00137965 0)
(0.102203 0.00139638 0)
(0.101266 0.00141266 0)
(0.100319 0.00142849 0)
(0.0993609 0.00144388 0)
(0.098393 0.00145884 0)
(0.0974152 0.00147337 0)
(0.096428 0.00148748 0)
(0.0954314 0.00150118 0)
(0.0944259 0.00151447 0)
(0.0934116 0.00152737 0)
(0.0923889 0.00153988 0)
(0.091358 0.001552 0)
(0.0903191 0.00156375 0)
(0.0892726 0.00157514 0)
(0.0882185 0.00158616 0)
(0.0871572 0.00159683 0)
(0.086089 0.00160715 0)
(0.085014 0.00161714 0)
(0.0839324 0.0016268 0)
(0.0828445 0.00163613 0)
(0.0817505 0.00164515 0)
(0.0806506 0.00165386 0)
(0.079545 0.00166227 0)
(0.0784339 0.00167038 0)
(0.0773175 0.00167821 0)
(0.0761959 0.00168576 0)
(0.0750694 0.00169304 0)
(0.0739382 0.00170005 0)
(0.0728024 0.0017068 0)
(0.0716622 0.0017133 0)
(0.0705177 0.00171955 0)
(0.0693692 0.00172557 0)
(0.0682167 0.00173135 0)
(0.0670604 0.00173691 0)
(0.0659005 0.00174224 0)
(0.0647372 0.00174737 0)
(0.0635704 0.00175229 0)
(0.0624005 0.001757 0)
(0.0612275 0.00176153 0)
(0.0600516 0.00176586 0)
(0.0588728 0.00177001 0)
(0.0576914 0.00177398 0)
(0.0565073 0.00177778 0)
(0.0553208 0.00178141 0)
(0.0541319 0.00178489 0)
(0.0529408 0.0017882 0)
(0.0517474 0.00179137 0)
(0.0505521 0.00179439 0)
(0.0493548 0.00179727 0)
(0.0481556 0.00180001 0)
(0.0469546 0.00180262 0)
(0.0457519 0.00180511 0)
(0.0445476 0.00180747 0)
(0.0433418 0.00180972 0)
(0.0421345 0.00181186 0)
(0.0409259 0.00181388 0)
(0.0397159 0.0018158 0)
(0.0385047 0.00181762 0)
(0.0372923 0.00181934 0)
(0.0360788 0.00182097 0)
(0.0348642 0.00182251 0)
(0.0336486 0.00182397 0)
(0.0324321 0.00182534 0)
(0.0312148 0.00182663 0)
(0.0299966 0.00182784 0)
(0.0287776 0.00182899 0)
(0.0275578 0.00183006 0)
(0.0263374 0.00183107 0)
(0.0251163 0.00183201 0)
(0.0238946 0.00183289 0)
(0.0226724 0.00183371 0)
(0.0214496 0.00183447 0)
(0.0202264 0.00183518 0)
(0.0190027 0.00183583 0)
(0.0177785 0.00183644 0)
(0.016554 0.00183699 0)
(0.0153292 0.0018375 0)
(0.014104 0.00183796 0)
(0.0128785 0.00183838 0)
(0.0116527 0.00183876 0)
(0.0104268 0.0018391 0)
(0.00920056 0.00183939 0)
(0.00797418 0.00183965 0)
(0.00674765 0.00183987 0)
(0.00552098 0.00184005 0)
(0.00429421 0.00184019 0)
(0.00306735 0.0018403 0)
(0.00184043 0.00184037 0)
(0.000613482 0.0018404 0)
(0.000750054 -0.00374997 0)
(0.00225014 -0.00374985 0)
(0.00375015 -0.00374961 0)
(0.00525004 -0.00374924 0)
(0.00674977 -0.00374875 0)
(0.00824928 -0.00374813 0)
(0.00974851 -0.00374738 0)
(0.0112474 -0.0037465 0)
(0.012746 -0.00374547 0)
(0.0142441 -0.0037443 0)
(0.0157417 -0.00374297 0)
(0.0172387 -0.00374148 0)
(0.0187352 -0.00373982 0)
(0.0202309 -0.00373799 0)
(0.0217259 -0.00373596 0)
(0.02322 -0.00373374 0)
(0.0247133 -0.00373131 0)
(0.0262055 -0.00372866 0)
(0.0276966 -0.00372578 0)
(0.0291865 -0.00372265 0)
(0.0306752 -0.00371927 0)
(0.0321625 -0.00371561 0)
(0.0336482 -0.00371166 0)
(0.0351323 -0.00370742 0)
(0.0366147 -0.00370285 0)
(0.0380952 -0.00369795 0)
(0.0395737 -0.0036927 0)
(0.04105 -0.00368708 0)
(0.0425241 -0.00368107 0)
(0.0439956 -0.00367466 0)
(0.0454646 -0.00366782 0)
(0.0469307 -0.00366054 0)
(0.0483938 -0.0036528 0)
(0.0498538 -0.00364457 0)
(0.0513104 -0.00363584 0)
(0.0527634 -0.00362658 0)
(0.0542126 -0.00361678 0)
(0.0556578 -0.00360641 0)
(0.0570988 -0.00359546 0)
(0.0585353 -0.00358389 0)
(0.0599671 -0.0035717 0)
(0.0613938 -0.00355885 0)
(0.0628154 -0.00354533 0)
(0.0642314 -0.00353111 0)
(0.0656415 -0.00351617 0)
(0.0670456 -0.0035005 0)
(0.0684433 -0.00348406 0)
(0.0698343 -0.00346685 0)
(0.0712182 -0.00344883 0)
(0.0725948 -0.00342999 0)
(0.0739637 -0.0034103 0)
(0.0753246 -0.00338976 0)
(0.0766771 -0.00336833 0)
(0.0780209 -0.003346 0)
(0.0793556 -0.00332275 0)
(0.0806808 -0.00329857 0)
(0.0819962 -0.00327344 0)
(0.0833013 -0.00324734 0)
(0.0845958 -0.00322026 0)
(0.0858793 -0.00319218 0)
(0.0871514 -0.00316309 0)
(0.0884116 -0.00313298 0)
(0.0896596 -0.00310183 0)
(0.0908949 -0.00306965 0)
(0.0921172 -0.00303641 0)
(0.093326 -0.00300212 0)
(0.0945208 -0.00296676 0)
(0.0957013 -0.00293033 0)
(0.096867 -0.00289283 0)
(0.0980175 -0.00285425 0)
(0.0991523 -0.0028146 0)
(0.100271 -0.00277387 0)
(0.101373 -0.00273207 0)
(0.102459 -0.00268921 0)
(0.103527 -0.00264528 0)
(0.104577 -0.00260029 0)
(0.105609 -0.00255426 0)
(0.106622 -0.00250719 0)
(0.107616 -0.0024591 0)
(0.108591 -0.00240999 0)
(0.109546 -0.00235989 0)
(0.110481 -0.00230881 0)
(0.111395 -0.00225677 0)
(0.112288 -0.00220379 0)
(0.11316 -0.00214989 0)
(0.114009 -0.00209509 0)
(0.114837 -0.00203942 0)
(0.115643 -0.0019829 0)
(0.116425 -0.00192557 0)
(0.117184 -0.00186744 0)
(0.11792 -0.00180856 0)
(0.118633 -0.00174894 0)
(0.119321 -0.00168863 0)
(0.119985 -0.00162766 0)
(0.120624 -0.00156606 0)
(0.121239 -0.00150386 0)
(0.121828 -0.00144112 0)
(0.122392 -0.00137785 0)
(0.122931 -0.00131411 0)
(0.123444 -0.00124992 0)
(0.123932 -0.00118533 0)
(0.124393 -0.00112039 0)
(0.124829 -0.00105512 0)
(0.125238 -0.000989573 0)
(0.125621 -0.000923789 0)
(0.125977 -0.000857809 0)
(0.126307 -0.000791675 0)
(0.126611 -0.000725428 0)
(0.126888 -0.000659109 0)
(0.127138 -0.00059276 0)
(0.127362 -0.000526422 0)
(0.127559 -0.000460135 0)
(0.12773 -0.000393941 0)
(0.127874 -0.000327879 0)
(0.127992 -0.000261988 0)
(0.128083 -0.000196308 0)
(0.128149 -0.000130875 0)
(0.128188 -6.57277e-05 0)
(0.128201 -9.02214e-07 0)
(0.128188 6.35659e-05 0)
(0.128149 0.000127642 0)
(0.128085 0.000191293 0)
(0.127995 0.000254485 0)
(0.12788 0.000317188 0)
(0.127741 0.000379371 0)
(0.127576 0.000441005 0)
(0.127387 0.000502061 0)
(0.127173 0.000562513 0)
(0.126936 0.000622336 0)
(0.126674 0.000681505 0)
(0.126389 0.000739997 0)
(0.126081 0.00079779 0)
(0.12575 0.000854864 0)
(0.125396 0.000911199 0)
(0.125019 0.000966779 0)
(0.124621 0.00102158 0)
(0.124201 0.0010756 0)
(0.123759 0.00112882 0)
(0.123296 0.00118122 0)
(0.122812 0.00123279 0)
(0.122308 0.00128353 0)
(0.121784 0.00133342 0)
(0.12124 0.00138246 0)
(0.120677 0.00143063 0)
(0.120094 0.00147794 0)
(0.119493 0.00152438 0)
(0.118873 0.00156994 0)
(0.118235 0.00161463 0)
(0.11758 0.00165843 0)
(0.116907 0.00170136 0)
(0.116217 0.00174341 0)
(0.11551 0.00178458 0)
(0.114788 0.00182487 0)
(0.114049 0.0018643 0)
(0.113295 0.00190285 0)
(0.112525 0.00194054 0)
(0.111741 0.00197737 0)
(0.110942 0.00201334 0)
(0.110129 0.00204847 0)
(0.109301 0.00208275 0)
(0.108461 0.00211621 0)
(0.107607 0.00214884 0)
(0.10674 0.00218065 0)
(0.105861 0.00221166 0)
(0.10497 0.00224187 0)
(0.104066 0.00227129 0)
(0.103151 0.00229993 0)
(0.102225 0.00232781 0)
(0.101287 0.00235493 0)
(0.100339 0.00238131 0)
(0.0993811 0.00240695 0)
(0.0984126 0.00243187 0)
(0.0974343 0.00245608 0)
(0.0964465 0.00247959 0)
(0.0954494 0.00250241 0)
(0.0944434 0.00252456 0)
(0.0934286 0.00254605 0)
(0.0924054 0.00256689 0)
(0.0913739 0.00258709 0)
(0.0903346 0.00260666 0)
(0.0892875 0.00262563 0)
(0.088233 0.00264399 0)
(0.0871712 0.00266176 0)
(0.0861025 0.00267896 0)
(0.0850271 0.0026956 0)
(0.0839451 0.00271169 0)
(0.0828567 0.00272724 0)
(0.0817623 0.00274226 0)
(0.080662 0.00275677 0)
(0.079556 0.00277077 0)
(0.0784445 0.00278429 0)
(0.0773277 0.00279733 0)
(0.0762058 0.0028099 0)
(0.075079 0.00282202 0)
(0.0739474 0.0028337 0)
(0.0728112 0.00284494 0)
(0.0716707 0.00285577 0)
(0.0705259 0.00286618 0)
(0.069377 0.0028762 0)
(0.0682242 0.00288583 0)
(0.0670677 0.00289509 0)
(0.0659075 0.00290398 0)
(0.0647438 0.00291251 0)
(0.0635769 0.0029207 0)
(0.0624067 0.00292856 0)
(0.0612334 0.00293609 0)
(0.0600572 0.0029433 0)
(0.0588782 0.00295021 0)
(0.0576965 0.00295682 0)
(0.0565123 0.00296315 0)
(0.0553255 0.0029692 0)
(0.0541364 0.00297498 0)
(0.0529451 0.0029805 0)
(0.0517516 0.00298578 0)
(0.050556 0.0029908 0)
(0.0493585 0.0029956 0)
(0.0481591 0.00300016 0)
(0.046958 0.00300451 0)
(0.0457551 0.00300865 0)
(0.0445507 0.00301259 0)
(0.0433447 0.00301633 0)
(0.0421373 0.00301988 0)
(0.0409285 0.00302325 0)
(0.0397184 0.00302645 0)
(0.038507 0.00302947 0)
(0.0372945 0.00303234 0)
(0.0360809 0.00303505 0)
(0.0348662 0.00303761 0)
(0.0336505 0.00304003 0)
(0.0324339 0.00304232 0)
(0.0312164 0.00304446 0)
(0.0299981 0.00304649 0)
(0.028779 0.00304839 0)
(0.0275592 0.00305017 0)
(0.0263387 0.00305185 0)
(0.0251175 0.00305341 0)
(0.0238958 0.00305488 0)
(0.0226735 0.00305624 0)
(0.0214506 0.00305751 0)
(0.0202273 0.00305869 0)
(0.0190035 0.00305978 0)
(0.0177793 0.00306078 0)
(0.0165547 0.00306171 0)
(0.0153298 0.00306255 0)
(0.0141046 0.00306332 0)
(0.012879 0.00306402 0)
(0.0116532 0.00306465 0)
(0.0104272 0.0030652 0)
(0.00920093 0.0030657 0)
(0.0079745 0.00306612 0)
(0.00674791 0.00306648 0)
(0.0055212 0.00306678 0)
(0.00429437 0.00306702 0)
(0.00306747 0.0030672 0)
(0.0018405 0.00306732 0)
(0.000613506 0.00306738 0)
(0.000750126 -0.00525012 0)
(0.00225035 -0.00524996 0)
(0.00375051 -0.00524962 0)
(0.00525056 -0.00524911 0)
(0.00675043 -0.00524843 0)
(0.00825009 -0.00524757 0)
(0.00974949 -0.00524653 0)
(0.0112486 -0.0052453 0)
(0.0127473 -0.00524387 0)
(0.0142456 -0.00524223 0)
(0.0157434 -0.00524038 0)
(0.0172406 -0.00523831 0)
(0.0187373 -0.005236 0)
(0.0202332 -0.00523344 0)
(0.0217284 -0.00523062 0)
(0.0232228 -0.00522753 0)
(0.0247163 -0.00522414 0)
(0.0262088 -0.00522045 0)
(0.0277002 -0.00521643 0)
(0.0291904 -0.00521207 0)
(0.0306794 -0.00520735 0)
(0.032167 -0.00520225 0)
(0.0336531 -0.00519675 0)
(0.0351376 -0.00519083 0)
(0.0366204 -0.00518446 0)
(0.0381013 -0.00517762 0)
(0.0395802 -0.0051703 0)
(0.041057 -0.00516245 0)
(0.0425315 -0.00515407 0)
(0.0440036 -0.00514512 0)
(0.045473 -0.00513557 0)
(0.0469397 -0.00512541 0)
(0.0484034 -0.00511459 0)
(0.049864 -0.0051031 0)
(0.0513212 -0.00509091 0)
(0.0527748 -0.00507798 0)
(0.0542247 -0.00506429 0)
(0.0556706 -0.0050498 0)
(0.0571123 -0.0050345 0)
(0.0585496 -0.00501834 0)
(0.0599821 -0.00500129 0)
(0.0614097 -0.00498334 0)
(0.062832 -0.00496443 0)
(0.0642488 -0.00494456 0)
(0.0656599 -0.00492368 0)
(0.0670649 -0.00490176 0)
(0.0684635 -0.00487878 0)
(0.0698554 -0.00485471 0)
(0.0712403 -0.00482951 0)
(0.0726179 -0.00480316 0)
(0.0739879 -0.00477563 0)
(0.0753498 -0.00474689 0)
(0.0767034 -0.00471692 0)
(0.0780483 -0.00468569 0)
(0.079384 -0.00465317 0)
(0.0807104 -0.00461933 0)
(0.0820269 -0.00458417 0)
(0.0833332 -0.00454765 0)
(0.0846289 -0.00450975 0)
(0.0859136 -0.00447046 0)
(0.0871869 -0.00442975 0)
(0.0884484 -0.00438761 0)
(0.0896976 -0.00434402 0)
(0.0909342 -0.00429898 0)
(0.0921577 -0.00425246 0)
(0.0933678 -0.00420445 0)
(0.0945639 -0.00415495 0)
(0.0957457 -0.00410396 0)
(0.0969127 -0.00405146 0)
(0.0980645 -0.00399745 0)
(0.0992006 -0.00394194 0)
(0.100321 -0.00388492 0)
(0.101424 -0.0038264 0)
(0.102511 -0.00376637 0)
(0.10358 -0.00370486 0)
(0.104631 -0.00364187 0)
(0.105665 -0.00357741 0)
(0.106679 -0.0035115 0)
(0.107675 -0.00344415 0)
(0.108651 -0.00337538 0)
(0.109607 -0.00330522 0)
(0.110543 -0.00323368 0)
(0.111458 -0.0031608 0)
(0.112352 -0.00308659 0)
(0.113225 -0.0030111 0)
(0.114076 -0.00293435 0)
(0.114905 -0.00285637 0)
(0.115711 -0.00277721 0)
(0.116494 -0.0026969 0)
(0.117255 -0.00261548 0)
(0.117992 -0.002533 0)
(0.118705 -0.00244949 0)
(0.119394 -0.00236501 0)
(0.120058 -0.0022796 0)
(0.120698 -0.00219331 0)
(0.121314 -0.00210619 0)
(0.121904 -0.00201829 0)
(0.122469 -0.00192966 0)
(0.123008 -0.00184036 0)
(0.123522 -0.00175045 0)
(0.12401 -0.00165997 0)
(0.124472 -0.00156899 0)
(0.124907 -0.00147756 0)
(0.125317 -0.00138573 0)
(0.1257 -0.00129358 0)
(0.126057 -0.00120115 0)
(0.126387 -0.0011085 0)
(0.126691 -0.0010157 0)
(0.126968 -0.000922794 0)
(0.127218 -0.000829848 0)
(0.127442 -0.000736918 0)
(0.127639 -0.000644061 0)
(0.127809 -0.000551333 0)
(0.127953 -0.000458791 0)
(0.128071 -0.00036649 0)
(0.128162 -0.000274483 0)
(0.128227 -0.000182826 0)
(0.128266 -9.15684e-05 0)
(0.128278 -7.6303e-07 0)
(0.128265 8.95408e-05 0)
(0.128226 0.000179294 0)
(0.128161 0.000268451 0)
(0.128071 0.000356964 0)
(0.127955 0.000444791 0)
(0.127815 0.000531888 0)
(0.12765 0.000618214 0)
(0.12746 0.000703731 0)
(0.127245 0.0007884 0)
(0.127007 0.000872186 0)
(0.126745 0.000955055 0)
(0.126459 0.00103697 0)
(0.12615 0.00111791 0)
(0.125818 0.00119784 0)
(0.125463 0.00127674 0)
(0.125086 0.00135457 0)
(0.124686 0.00143132 0)
(0.124265 0.00150697 0)
(0.123822 0.00158149 0)
(0.123358 0.00165486 0)
(0.122874 0.00172708 0)
(0.122369 0.00179813 0)
(0.121843 0.00186798 0)
(0.121298 0.00193664 0)
(0.120734 0.0020041 0)
(0.12015 0.00207034 0)
(0.119548 0.00213536 0)
(0.118927 0.00219915 0)
(0.118288 0.00226171 0)
(0.117632 0.00232304 0)
(0.116958 0.00238314 0)
(0.116267 0.002442 0)
(0.115559 0.00249964 0)
(0.114836 0.00255605 0)
(0.114096 0.00261123 0)
(0.11334 0.0026652 0)
(0.11257 0.00271795 0)
(0.111784 0.00276951 0)
(0.110984 0.00281986 0)
(0.11017 0.00286903 0)
(0.109342 0.00291702 0)
(0.1085 0.00296385 0)
(0.107646 0.00300952 0)
(0.106778 0.00305404 0)
(0.105898 0.00309744 0)
(0.105005 0.00313972 0)
(0.104101 0.00318089 0)
(0.103185 0.00322098 0)
(0.102258 0.00325999 0)
(0.10132 0.00329795 0)
(0.100371 0.00333486 0)
(0.0994114 0.00337074 0)
(0.0984421 0.00340561 0)
(0.097463 0.00343949 0)
(0.0964743 0.00347239 0)
(0.0954764 0.00350432 0)
(0.0944695 0.00353532 0)
(0.093454 0.00356538 0)
(0.09243 0.00359454 0)
(0.0913978 0.0036228 0)
(0.0903577 0.00365019 0)
(0.0893099 0.00367672 0)
(0.0882546 0.00370241 0)
(0.0871922 0.00372728 0)
(0.0861228 0.00375134 0)
(0.0850467 0.00377461 0)
(0.083964 0.00379712 0)
(0.0828751 0.00381887 0)
(0.08178 0.00383988 0)
(0.0806791 0.00386017 0)
(0.0795725 0.00387977 0)
(0.0784604 0.00389867 0)
(0.0773431 0.00391691 0)
(0.0762206 0.0039345 0)
(0.0750932 0.00395145 0)
(0.0739611 0.00396778 0)
(0.0728245 0.00398351 0)
(0.0716834 0.00399865 0)
(0.0705381 0.00401321 0)
(0.0693888 0.00402722 0)
(0.0682356 0.00404069 0)
(0.0670786 0.00405364 0)
(0.0659179 0.00406607 0)
(0.0647539 0.004078 0)
(0.0635865 0.00408945 0)
(0.0624159 0.00410043 0)
(0.0612423 0.00411096 0)
(0.0600657 0.00412105 0)
(0.0588864 0.00413071 0)
(0.0577043 0.00413996 0)
(0.0565197 0.0041488 0)
(0.0553326 0.00415726 0)
(0.0541432 0.00416534 0)
(0.0529515 0.00417306 0)
(0.0517577 0.00418043 0)
(0.0505619 0.00418745 0)
(0.0493641 0.00419415 0)
(0.0481645 0.00420054 0)
(0.0469631 0.00420661 0)
(0.04576 0.0042124 0)
(0.0445553 0.0042179 0)
(0.0433491 0.00422312 0)
(0.0421414 0.00422809 0)
(0.0409324 0.00423279 0)
(0.0397221 0.00423726 0)
(0.0385106 0.00424149 0)
(0.0372978 0.00424549 0)
(0.036084 0.00424928 0)
(0.0348692 0.00425286 0)
(0.0336533 0.00425624 0)
(0.0324366 0.00425943 0)
(0.0312189 0.00426243 0)
(0.0300005 0.00426525 0)
(0.0287812 0.00426791 0)
(0.0275613 0.0042704 0)
(0.0263406 0.00427274 0)
(0.0251193 0.00427492 0)
(0.0238975 0.00427696 0)
(0.022675 0.00427887 0)
(0.0214521 0.00428064 0)
(0.0202286 0.00428228 0)
(0.0190048 0.0042838 0)
(0.0177805 0.00428521 0)
(0.0165558 0.0042865 0)
(0.0153308 0.00428768 0)
(0.0141054 0.00428875 0)
(0.0128798 0.00428973 0)
(0.0116539 0.0042906 0)
(0.0104278 0.00429138 0)
(0.00920147 0.00429207 0)
(0.00797497 0.00429266 0)
(0.00674831 0.00429317 0)
(0.00552152 0.00429358 0)
(0.00429462 0.00429392 0)
(0.00306765 0.00429417 0)
(0.00184061 0.00429433 0)
(0.000613541 0.00429441 0)
(0.000750222 -0.00675045 0)
(0.00225064 -0.00675023 0)
(0.00375099 -0.00674981 0)
(0.00525123 -0.00674916 0)
(0.00675131 -0.00674829 0)
(0.00825118 -0.00674719 0)
(0.00975079 -0.00674586 0)
(0.0112501 -0.00674429 0)
(0.012749 -0.00674247 0)
(0.0142476 -0.00674038 0)
(0.0157456 -0.00673802 0)
(0.0172431 -0.00673538 0)
(0.01874 -0.00673243 0)
(0.0202363 -0.00672916 0)
(0.0217318 -0.00672556 0)
(0.0232265 -0.00672161 0)
(0.0247203 -0.00671728 0)
(0.0262132 -0.00671256 0)
(0.027705 -0.00670743 0)
(0.0291956 -0.00670186 0)
(0.030685 -0.00669582 0)
(0.032173 -0.0066893 0)
(0.0336596 -0.00668227 0)
(0.0351446 -0.00667469 0)
(0.0366279 -0.00666654 0)
(0.0381094 -0.00665779 0)
(0.0395889 -0.00664841 0)
(0.0410663 -0.00663837 0)
(0.0425414 -0.00662763 0)
(0.0440141 -0.00661617 0)
(0.0454843 -0.00660394 0)
(0.0469517 -0.00659092 0)
(0.0484161 -0.00657706 0)
(0.0498775 -0.00656234 0)
(0.0513355 -0.00654671 0)
(0.05279 -0.00653014 0)
(0.0542408 -0.00651259 0)
(0.0556876 -0.00649402 0)
(0.0571303 -0.00647439 0)
(0.0585685 -0.00645366 0)
(0.0600021 -0.0064318 0)
(0.0614307 -0.00640876 0)
(0.0628541 -0.00638452 0)
(0.0642721 -0.00635901 0)
(0.0656843 -0.00633222 0)
(0.0670905 -0.00630409 0)
(0.0684904 -0.0062746 0)
(0.0698836 -0.0062437 0)
(0.0712698 -0.00621135 0)
(0.0726487 -0.00617752 0)
(0.07402 -0.00614217 0)
(0.0753833 -0.00610526 0)
(0.0767384 -0.00606677 0)
(0.0780847 -0.00602666 0)
(0.079422 -0.00598489 0)
(0.0807498 -0.00594143 0)
(0.0820679 -0.00589626 0)
(0.0833757 -0.00584934 0)
(0.084673 -0.00580065 0)
(0.0859593 -0.00575016 0)
(0.0872342 -0.00569785 0)
(0.0884974 -0.00564369 0)
(0.0897483 -0.00558768 0)
(0.0909865 -0.00552978 0)
(0.0922118 -0.00546999 0)
(0.0934235 -0.00540828 0)
(0.0946213 -0.00534465 0)
(0.0958048 -0.0052791 0)
(0.0969736 -0.0052116 0)
(0.0981271 -0.00514217 0)
(0.0992649 -0.00507079 0)
(0.100387 -0.00499747 0)
(0.101492 -0.00492222 0)
(0.10258 -0.00484503 0)
(0.103651 -0.00476593 0)
(0.104704 -0.00468492 0)
(0.105739 -0.00460202 0)
(0.106755 -0.00451725 0)
(0.107753 -0.00443062 0)
(0.10873 -0.00434217 0)
(0.109688 -0.00425192 0)
(0.110625 -0.0041599 0)
(0.111542 -0.00406614 0)
(0.112438 -0.00397069 0)
(0.113312 -0.00387357 0)
(0.114164 -0.00377483 0)
(0.114994 -0.00367451 0)
(0.115802 -0.00357267 0)
(0.116587 -0.00346934 0)
(0.117348 -0.00336459 0)
(0.118086 -0.00325846 0)
(0.118801 -0.00315102 0)
(0.119491 -0.00304232 0)
(0.120156 -0.00293242 0)
(0.120798 -0.00282139 0)
(0.121414 -0.00270929 0)
(0.122005 -0.00259619 0)
(0.12257 -0.00248215 0)
(0.123111 -0.00236724 0)
(0.123625 -0.00225154 0)
(0.124113 -0.00213511 0)
(0.124576 -0.00201804 0)
(0.125012 -0.00190038 0)
(0.125422 -0.00178223 0)
(0.125806 -0.00166364 0)
(0.126163 -0.00154471 0)
(0.126493 -0.00142549 0)
(0.126797 -0.00130607 0)
(0.127074 -0.00118652 0)
(0.127324 -0.00106692 0)
(0.127548 -0.000947341 0)
(0.127745 -0.000827856 0)
(0.127915 -0.000708539 0)
(0.128059 -0.000589462 0)
(0.128176 -0.000470696 0)
(0.128267 -0.000352311 0)
(0.128332 -0.000234375 0)
(0.12837 -0.000116957 0)
(0.128382 -1.22094e-07 0)
(0.128368 0.000116066 0)
(0.128328 0.000231544 0)
(0.128263 0.000346252 0)
(0.128172 0.000460131 0)
(0.128055 0.000573124 0)
(0.127914 0.000685176 0)
(0.127748 0.000796234 0)
(0.127557 0.000906248 0)
(0.127342 0.00101517 0)