/*--------------------------------*- C++ -*----------------------------------*\
| =========                 |                                                 |
| \\      /  F ield         | OpenFOAM: The Open Source CFD Toolbox           |
|  \\    /   O peration     | Version:  v2012                                 |
|   \\  /    A nd           | Website:  www.openfoam.com                      |
|    \\/     M anipulation  |                                                 |
\*---------------------------------------------------------------------------*/
FoamFile
{
    version     2.0;
    format      ascii;
    class       volScalarField;
    location    "6";
    object      W;
}
// * * * * * * * * * * * * * * * * * * * * * * * * * * * * * * * * * * * * * //

dimensions      [0 0 -1 0 0 0 0];


internalField   nonuniform List<scalar> 
65536
(
4.63641e-19
4.91336e-19
5.48184e-19
6.36755e-19
7.61056e-19
9.267e-19
1.14115e-18
1.414e-18
1.75741e-18
2.18651e-18
2.72e-18
3.38085e-18
4.19711e-18
5.20286e-18
6.43944e-18
7.9568e-18
9.81515e-18
1.20869e-17
1.48589e-17
1.82353e-17
2.23403e-17
2.7322e-17
3.3357e-17
4.06544e-17
4.94626e-17
6.00748e-17
7.28375e-17
8.81582e-17
1.06516e-16
1.28473e-16
1.54687e-16
1.85926e-16
2.23083e-16
2.67199e-16
3.19482e-16
3.81326e-16
4.54346e-16
5.40401e-16
6.41628e-16
7.60481e-16
8.99766e-16
1.06269e-15
1.2529e-15
1.47456e-15
1.73237e-15
2.03166e-15
2.37843e-15
2.77947e-15
3.24235e-15
3.7756e-15
4.38872e-15
5.09231e-15
5.89815e-15
6.81928e-15
7.87013e-15
9.0666e-15
1.04262e-14
1.1968e-14
1.3713e-14
1.56839e-14
1.79056e-14
2.04048e-14
2.32103e-14
2.63533e-14
2.9867e-14
3.37868e-14
3.81506e-14
4.29982e-14
4.83718e-14
5.43154e-14
6.08753e-14
6.80993e-14
7.6037e-14
8.47393e-14
9.4258e-14
1.04646e-13
1.15956e-13
1.2824e-13
1.41552e-13
1.55941e-13
1.71457e-13
1.88147e-13
2.06052e-13
2.25213e-13
2.45663e-13
2.6743e-13
2.90536e-13
3.14994e-13
3.4081e-13
3.6798e-13
3.96487e-13
4.26306e-13
4.57398e-13
4.89711e-13
5.2318e-13
5.57725e-13
5.93251e-13
6.29648e-13
6.6679e-13
7.04538e-13
7.42735e-13
7.81211e-13
8.1978e-13
8.58244e-13
8.96393e-13
9.34007e-13
9.70854e-13
1.0067e-12
1.04129e-12
1.0744e-12
1.10576e-12
1.13515e-12
1.16231e-12
1.18702e-12
1.20906e-12
1.22822e-12
1.24432e-12
1.25719e-12
1.26667e-12
1.27265e-12
1.27504e-12
1.27378e-12
1.26882e-12
1.26017e-12
1.24787e-12
1.23197e-12
1.21259e-12
1.18986e-12
1.16394e-12
1.13503e-12
1.10335e-12
1.06916e-12
1.03274e-12
9.94371e-13
9.54377e-13
9.13079e-13
8.70814e-13
8.27922e-13
7.84745e-13
7.41624e-13
6.98894e-13
6.56878e-13
6.15891e-13
5.76227e-13
5.38168e-13
5.0197e-13
4.67871e-13
4.36082e-13
4.06791e-13
3.8016e-13
3.56323e-13
3.3539e-13
3.17441e-13
3.02533e-13
2.90693e-13
2.81923e-13
2.76199e-13
2.73473e-13
2.73668e-13
2.76685e-13
2.82398e-13
2.90659e-13
3.01294e-13
3.14106e-13
3.28876e-13
3.45362e-13
3.63302e-13
3.82415e-13
4.02404e-13
4.22957e-13
4.43751e-13
4.64455e-13
4.84735e-13
5.04258e-13
5.22696e-13
5.39734e-13
5.55072e-13
5.68432e-13
5.79564e-13
5.8825e-13
5.94309e-13
5.97599e-13
5.98025e-13
5.95535e-13
5.90126e-13
5.81843e-13
5.70776e-13
5.57059e-13
5.40868e-13
5.22416e-13
5.01945e-13
4.79726e-13
4.56047e-13
4.3121e-13
4.05521e-13
3.79287e-13
3.52808e-13
3.26368e-13
3.00236e-13
2.74656e-13
2.49846e-13
2.25996e-13
2.03264e-13
1.81777e-13
1.6163e-13
1.4289e-13
1.25593e-13
1.09749e-13
9.53446e-14
8.2346e-14
7.07016e-14
6.03458e-14
5.12018e-14
4.31852e-14
3.62066e-14
3.01741e-14
2.49958e-14
2.05815e-14
1.68444e-14
1.37024e-14
1.10788e-14
8.90304e-15
7.11088e-15
5.64472e-15
4.45338e-15
3.49187e-15
2.72109e-15
2.10736e-15
1.62195e-15
1.24061e-15
9.4304e-16
7.12381e-16
5.34785e-16
3.98957e-16
2.95766e-16
2.17893e-16
1.59516e-16
1.16045e-16
8.38899e-17
6.02627e-17
4.30169e-17
3.05125e-17
2.15061e-17
1.50622e-17
1.04823e-17
7.24879e-18
4.98112e-18
3.40149e-18
2.30876e-18
1.55843e-18
1.04758e-18
7.03662e-19
4.76225e-19
3.30899e-19
2.45167e-19
2.0548e-19
6.36858e-19
6.74855e-19
7.52873e-19
8.74428e-19
1.04501e-18
1.27231e-18
1.56655e-18
1.94089e-18
2.41195e-18
3.00047e-18
3.73206e-18
4.63816e-18
5.75712e-18
7.1356e-18
8.83012e-18
1.0909e-17
1.34544e-17
1.65655e-17
2.03607e-17
2.49821e-17
3.05994e-17
3.74146e-17
4.56682e-17
5.56456e-17
6.76846e-17
8.21847e-17
9.96171e-17
1.20536e-16
1.45593e-16
1.75551e-16
2.11302e-16
2.53887e-16
3.0452e-16
3.64607e-16
4.35783e-16
5.19935e-16
6.19242e-16
7.36215e-16
8.73734e-16
1.0351e-15
1.2241e-15
1.44504e-15
1.70282e-15
2.00301e-15
2.35192e-15
2.75667e-15
3.2253e-15
3.76682e-15
4.39138e-15
5.11028e-15
5.93616e-15
6.88307e-15
7.96659e-15
9.20398e-15
1.06143e-14
1.22184e-14
1.40393e-14
1.61021e-14
1.84342e-14
2.10654e-14
2.40278e-14
2.73562e-14
3.10882e-14
3.52638e-14
3.99258e-14
4.51199e-14
5.08944e-14
5.73003e-14
6.43909e-14
7.22224e-14
8.08529e-14
9.03426e-14
1.00753e-13
1.12148e-13
1.24592e-13
1.38149e-13
1.52884e-13
1.68861e-13
1.86142e-13
2.04788e-13
2.24856e-13
2.46399e-13
2.69468e-13
2.94103e-13
3.20343e-13
3.48214e-13
3.77735e-13
4.08916e-13
4.41753e-13
4.76233e-13
5.12325e-13
5.49986e-13
5.89158e-13
6.29766e-13
6.71715e-13
7.14897e-13
7.59181e-13
8.04421e-13
8.50451e-13
8.97087e-13
9.44125e-13
9.91347e-13
1.03852e-12
1.08538e-12
1.13168e-12
1.17714e-12
1.22146e-12
1.26436e-12
1.30555e-12
1.34472e-12
1.38157e-12
1.41582e-12
1.44719e-12
1.47539e-12
1.50019e-12
1.52133e-12
1.53861e-12
1.55185e-12
1.56087e-12
1.56557e-12
1.56584e-12
1.56164e-12
1.55294e-12
1.53977e-12
1.5222e-12
1.50032e-12
1.47429e-12
1.44428e-12
1.41052e-12
1.37327e-12
1.33281e-12
1.28946e-12
1.24357e-12
1.19551e-12
1.14564e-12
1.09439e-12
1.04214e-12
9.89313e-13
9.36314e-13
8.83549e-13
8.31411e-13
7.80281e-13
7.30525e-13
6.82484e-13
6.36481e-13
5.92809e-13
5.51735e-13
5.13497e-13
4.78302e-13
4.46327e-13
4.17715e-13
3.9258e-13
3.71003e-13
3.53033e-13
3.3869e-13
3.27963e-13
3.2081e-13
3.17162e-13
3.16918e-13
3.19951e-13
3.26107e-13
3.35204e-13
3.47031e-13
3.61355e-13
3.77915e-13
3.96428e-13
4.16589e-13
4.3807e-13
4.60529e-13
4.83607e-13
5.06932e-13
5.30128e-13
5.52814e-13
5.74612e-13
5.95153e-13
6.14079e-13
6.31055e-13
6.45769e-13
6.57943e-13
6.67335e-13
6.73745e-13
6.7702e-13
6.77057e-13
6.73805e-13
6.67265e-13
6.57495e-13
6.44601e-13
6.2874e-13
6.10115e-13
5.88969e-13
5.6558e-13
5.40254e-13
5.13318e-13
4.85113e-13
4.55985e-13
4.26279e-13
3.9633e-13
3.66459e-13
3.36964e-13
3.08119e-13
2.80166e-13
2.53316e-13
2.27743e-13
2.03587e-13
1.80954e-13
1.59913e-13
1.40504e-13
1.22735e-13
1.0659e-13
9.20271e-14
7.89881e-14
6.73973e-14
5.71673e-14
4.82025e-14
4.04015e-14
3.36607e-14
2.78765e-14
2.29475e-14
1.87761e-14
1.52701e-14
1.23434e-14
9.91704e-15
7.91903e-15
6.28492e-15
4.95745e-15
3.88635e-15
3.02793e-15
2.34456e-15
1.80421e-15
1.37979e-15
1.04866e-15
7.92049e-16
5.94505e-16
4.43447e-16
3.28704e-16
2.42127e-16
1.77236e-16
1.28921e-16
9.31879e-17
6.69348e-17
4.77749e-17
3.38842e-17
2.38805e-17
1.67237e-17
1.16377e-17
8.04718e-18
5.52935e-18
3.77562e-18
2.56255e-18
1.72964e-18
1.1626e-18
7.80886e-19
5.28462e-19
3.67178e-19
2.72036e-19
2.27998e-19
1.04266e-18
1.10478e-18
1.23237e-18
1.43115e-18
1.71009e-18
2.08173e-18
2.56276e-18
3.17464e-18
3.94449e-18
4.90613e-18
6.1013e-18
7.58123e-18
9.40843e-18
1.16589e-17
1.44246e-17
1.78167e-17
2.1969e-17
2.70424e-17
3.32297e-17
4.07616e-17
4.99134e-17
6.10131e-17
7.44506e-17
9.06883e-17
1.10274e-16
1.33853e-16
1.62188e-16
1.96175e-16
2.36866e-16
2.85492e-16
3.43491e-16
4.12541e-16
4.94593e-16
5.91911e-16
7.07118e-16
8.43244e-16
1.00378e-15
1.19275e-15
1.41475e-15
1.67506e-15
1.97971e-15
2.33556e-15
2.75041e-15
3.2331e-15
3.79364e-15
4.44329e-15
5.19475e-15
6.06226e-15
7.06177e-15
8.21105e-15
9.52992e-15
1.10404e-14
1.27667e-14
1.47359e-14
1.69774e-14
1.95237e-14
2.24103e-14
2.5676e-14
2.93628e-14
3.35163e-14
3.81858e-14
4.34242e-14
4.92884e-14
5.5839e-14
6.31406e-14
7.12615e-14
8.02739e-14
9.02534e-14
1.01279e-13
1.13434e-13
1.26802e-13
1.41472e-13
1.57532e-13
1.75073e-13
1.94187e-13
2.14964e-13
2.37495e-13
2.61868e-13
2.88167e-13
3.16473e-13
3.46861e-13
3.794e-13
4.1415e-13
4.5116e-13
4.90469e-13
5.32104e-13
5.76076e-13
6.22381e-13
6.70996e-13
7.2188e-13
7.74972e-13
8.30188e-13
8.87421e-13
9.46541e-13
1.00739e-12
1.0698e-12
1.13354e-12
1.1984e-12
1.26411e-12
1.33039e-12
1.39693e-12
1.46341e-12
1.52948e-12
1.59476e-12
1.65887e-12
1.72142e-12
1.782e-12
1.84019e-12
1.89558e-12
1.94776e-12
1.99632e-12
2.04088e-12
2.08104e-12
2.11647e-12
2.14682e-12
2.1718e-12
2.19115e-12
2.20465e-12
2.21211e-12
2.2134e-12
2.20845e-12
2.19722e-12
2.17973e-12
2.15608e-12
2.12639e-12
2.09085e-12
2.04971e-12
2.00327e-12
1.95186e-12
1.89588e-12
1.83576e-12
1.77196e-12
1.70498e-12
1.63534e-12
1.56359e-12
1.49027e-12
1.41595e-12
1.34118e-12
1.26653e-12
1.19252e-12
1.1197e-12
1.04855e-12
9.79546e-13
9.1314e-13
8.49737e-13
7.89707e-13
7.33382e-13
6.8105e-13
6.32959e-13
5.89314e-13
5.50277e-13
5.15968e-13
4.86464e-13
4.61801e-13
4.41978e-13
4.2695e-13
4.16638e-13
4.10925e-13
4.09659e-13
4.12651e-13
4.19681e-13
4.30494e-13
4.44803e-13
4.62291e-13
4.82612e-13
5.05391e-13
5.30229e-13
5.56702e-13
5.84367e-13
6.12765e-13
6.41425e-13
6.69869e-13
6.97618e-13
7.242e-13
7.49154e-13
7.72038e-13
7.92439e-13
8.09975e-13
8.24307e-13
8.35144e-13
8.42249e-13
8.45441e-13
8.44605e-13
8.39689e-13
8.30709e-13
8.17744e-13
8.00938e-13
7.80498e-13
7.56682e-13
7.298e-13
7.00203e-13
6.68274e-13
6.34422e-13
5.99071e-13
5.62649e-13
5.25582e-13
4.88283e-13
4.51144e-13
4.14532e-13
3.78777e-13
3.44175e-13
3.1098e-13
2.79402e-13
2.49607e-13
2.21719e-13
1.95819e-13
1.7195e-13
1.50118e-13
1.30298e-13
1.12435e-13
9.64539e-14
8.22579e-14
6.97377e-14
5.87733e-14
4.92385e-14
4.10048e-14
3.39437e-14
2.79301e-14
2.28436e-14
1.85707e-14
1.50057e-14
1.20515e-14
9.62e-15
7.63225e-15
6.01821e-15
4.71642e-15
3.67351e-15
2.8436e-15
2.18761e-15
1.67254e-15
1.27083e-15
9.59605e-16
7.20097e-16
5.37003e-16
3.97965e-16
2.93083e-16
2.14492e-16
1.55991e-16
1.12734e-16
8.09605e-17
5.77761e-17
4.09711e-17
2.88708e-17
2.02157e-17
1.40658e-17
9.72495e-18
6.6814e-18
4.56177e-18
3.0958e-18
2.08936e-18
1.40427e-18
9.43126e-19
6.38205e-19
4.43393e-19
3.28479e-19
2.75292e-19
1.81789e-18
1.92608e-18
2.14828e-18
2.49448e-18
2.98025e-18
3.62739e-18
4.4649e-18
5.53009e-18
6.87007e-18
8.54356e-18
1.06231e-17
1.31975e-17
1.63754e-17
2.02885e-17
2.50964e-17
3.09918e-17
3.82065e-17
4.70193e-17
5.77639e-17
7.08396e-17
8.67226e-17
1.0598e-16
1.29285e-16
1.57437e-16
1.9138e-16
2.32229e-16
2.81298e-16
3.4013e-16
4.10534e-16
4.94629e-16
5.94887e-16
7.14189e-16
8.55881e-16
1.02384e-15
1.22257e-15
1.45724e-15
1.73383e-15
2.05919e-15
2.44118e-15
2.88878e-15
3.41225e-15
4.02324e-15
4.73498e-15
5.56246e-15
6.52259e-15
7.63442e-15
8.91934e-15
1.04013e-14
1.21072e-14
1.40667e-14
1.63131e-14
1.88831e-14
2.18172e-14
2.51602e-14
2.89612e-14
3.32738e-14
3.81567e-14
4.36737e-14
4.9894e-14
5.6892e-14
6.47484e-14
7.35492e-14
8.33866e-14
9.43586e-14
1.06569e-13
1.20127e-13
1.35149e-13
1.51754e-13
1.70067e-13
1.90219e-13
2.12341e-13
2.36569e-13
2.63042e-13
2.91898e-13
3.23275e-13
3.57309e-13
3.94136e-13
4.33882e-13
4.76672e-13
5.22617e-13
5.71822e-13
6.24378e-13
6.80359e-13
7.39826e-13
8.02816e-13
8.69347e-13
9.39412e-13
1.01298e-12
1.08998e-12
1.17032e-12
1.25389e-12
1.34051e-12
1.42998e-12
1.52208e-12
1.61654e-12
1.71303e-12
1.8112e-12
1.91068e-12
2.01104e-12
2.11181e-12
2.2125e-12
2.31258e-12
2.4115e-12
2.50869e-12
2.60355e-12
2.69547e-12
2.78383e-12
2.86802e-12
2.9474e-12
3.02138e-12
3.08937e-12
3.1508e-12
3.20514e-12
3.2519e-12
3.29061e-12
3.3209e-12
3.34242e-12
3.3549e-12
3.35813e-12
3.35198e-12
3.33641e-12
3.31144e-12
3.27718e-12
3.23382e-12
3.18163e-12
3.12096e-12
3.05223e-12
2.97596e-12
2.8927e-12
2.80308e-12
2.70778e-12
2.60753e-12
2.5031e-12
2.39526e-12
2.28485e-12
2.17268e-12
2.05957e-12
1.94635e-12
1.83381e-12
1.72272e-12
1.61384e-12
1.50786e-12
1.40544e-12
1.30719e-12
1.21365e-12
1.12533e-12
1.04266e-12
9.66e-13
8.9567e-13
8.31912e-13
7.74913e-13
7.24795e-13
6.81624e-13
6.45407e-13
6.16098e-13
5.93595e-13
5.77748e-13
5.68354e-13
5.65168e-13
5.67895e-13
5.76199e-13
5.897e-13
6.0798e-13
6.30581e-13
6.57009e-13
6.86735e-13
7.19201e-13
7.53821e-13
7.89985e-13
8.27068e-13
8.64429e-13
9.01427e-13
9.37419e-13
9.71776e-13
1.00389e-12
1.03317e-12
1.05909e-12
1.08114e-12
1.0989e-12
1.11198e-12
1.12009e-12
1.12302e-12
1.12061e-12
1.11283e-12
1.09971e-12
1.08137e-12
1.05802e-12
1.02994e-12
9.97492e-13
9.61092e-13
9.21211e-13
8.78361e-13
8.33085e-13
7.85941e-13
7.37495e-13
6.88305e-13
6.38909e-13
5.89819e-13
5.41508e-13
4.94406e-13
4.48891e-13
4.05287e-13
3.63862e-13
3.24825e-13
2.8833e-13
2.54474e-13
2.23306e-13
1.94827e-13
1.68996e-13
1.45739e-13
1.24949e-13
1.06497e-13
9.02363e-14
7.60072e-14
6.36428e-14
5.2973e-14
4.38291e-14
3.60466e-14
2.94682e-14
2.39453e-14
1.934e-14
1.55259e-14
1.23884e-14
9.82472e-15
7.74407e-15
6.06672e-15
4.72356e-15
3.65518e-15
2.81104e-15
2.14851e-15
1.63198e-15
1.23196e-15
9.24214e-16
6.89036e-16
5.10504e-16
3.75871e-16
2.75016e-16
1.99963e-16
1.44482e-16
1.03739e-16
7.40175e-17
5.24789e-17
3.69735e-17
2.5885e-17
1.80077e-17
1.24485e-17
8.5514e-18
5.83778e-18
3.96126e-18
2.67316e-18
1.79645e-18
1.2064e-18
8.16277e-19
5.67054e-19
4.20054e-19
3.52019e-19
3.21896e-18
3.41032e-18
3.8034e-18
4.41578e-18
5.27498e-18
6.41952e-18
7.90057e-18
9.78398e-18
1.21529e-17
1.5111e-17
1.87861e-17
2.33351e-17
2.89492e-17
3.58608e-17
4.43509e-17
5.47591e-17
6.74935e-17
8.30447e-17
1.02e-16
1.25061e-16
1.53066e-16
1.8701e-16
2.28076e-16
2.77667e-16
3.37438e-16
4.09346e-16
4.95691e-16
5.99175e-16
7.22966e-16
8.70767e-16
1.0469e-15
1.25639e-15
1.50508e-15
1.79974e-15
2.14818e-15
2.55943e-15
3.04386e-15
3.61338e-15
4.28163e-15
5.06418e-15
5.97876e-15
7.04554e-15
8.28737e-15
9.73007e-15
1.14028e-14
1.33383e-14
1.55733e-14
1.81489e-14
2.11109e-14
2.45105e-14
2.8404e-14
3.28541e-14
3.79297e-14
4.37066e-14
5.02678e-14
5.77041e-14
6.61142e-14
7.56052e-14
8.6293e-14
9.83023e-14
1.11767e-13
1.26831e-13
1.43645e-13
1.62373e-13
1.83184e-13
2.06258e-13
2.31783e-13
2.59953e-13
2.90972e-13
3.25046e-13
3.62388e-13
4.03214e-13
4.47741e-13
4.96185e-13
5.4876e-13
6.05677e-13
6.67138e-13
7.33335e-13
8.04447e-13
8.80637e-13
9.62049e-13
1.0488e-12
1.14099e-12
1.23868e-12
1.3419e-12
1.45065e-12
1.56486e-12
1.68445e-12
1.80928e-12
1.93915e-12
2.07381e-12
2.21297e-12
2.35626e-12
2.50326e-12
2.65349e-12
2.80641e-12
2.96143e-12
3.11789e-12
3.27508e-12
3.43223e-12
3.58853e-12
3.74314e-12
3.89516e-12
4.04367e-12
4.18773e-12
4.32638e-12
4.45867e-12
4.58364e-12
4.70034e-12
4.80787e-12
4.90534e-12
4.99194e-12
5.06687e-12
5.12946e-12
5.17906e-12
5.21515e-12
5.23729e-12
5.24515e-12
5.23852e-12
5.21728e-12
5.18147e-12
5.13123e-12
5.06683e-12
4.98865e-12
4.89723e-12
4.79317e-12
4.67724e-12
4.55027e-12
4.4132e-12
4.26707e-12
4.11295e-12
3.95201e-12
3.78544e-12
3.61449e-12
3.44041e-12
3.26444e-12
3.08783e-12
2.91182e-12
2.73758e-12
2.56626e-12
2.39893e-12
2.23661e-12
2.08023e-12
1.93066e-12
1.78865e-12
1.65489e-12
1.52995e-12
1.41432e-12
1.30839e-12
1.21247e-12
1.12675e-12
1.05136e-12
9.86324e-13
9.31594e-13
8.87043e-13
8.52467e-13
8.27593e-13
8.1208e-13
8.05523e-13
8.07457e-13
8.17358e-13
8.34648e-13
8.58696e-13
8.88823e-13
9.24302e-13
9.64366e-13
1.00821e-12
1.05499e-12
1.10385e-12
1.1539e-12
1.20424e-12
1.25399e-12
1.30224e-12
1.34814e-12
1.39085e-12
1.42958e-12
1.46359e-12
1.49222e-12
1.51489e-12
1.5311e-12
1.54047e-12
1.54273e-12
1.5377e-12
1.52534e-12
1.50573e-12
1.47905e-12
1.44561e-12
1.40582e-12
1.36017e-12
1.30925e-12
1.25372e-12
1.19428e-12
1.13168e-12
1.06668e-12
1.00005e-12
9.32539e-13
8.64885e-13
7.97774e-13
7.31839e-13
6.67655e-13
6.05725e-13
5.46476e-13
4.9026e-13
4.3735e-13
3.87941e-13
3.42156e-13
3.0005e-13
2.61614e-13
2.26786e-13
1.95456e-13
1.67474e-13
1.4266e-13
1.2081e-13
1.01704e-13
8.51143e-14
7.08084e-14
5.85566e-14
4.81358e-14
3.93326e-14
3.19465e-14
2.57911e-14
2.0696e-14
1.65069e-14
1.30857e-14
1.03105e-14
8.07432e-15
6.28445e-15
4.86136e-15
3.73742e-15
2.85565e-15
2.16845e-15
1.63645e-15
1.22732e-15
9.14766e-16
6.77571e-16
4.98755e-16
3.64841e-16
2.65215e-16
1.91587e-16
1.37533e-16
9.81101e-17
6.95478e-17
4.89906e-17
3.42924e-17
2.38527e-17
1.64867e-17
1.13238e-17
7.72936e-18
5.24415e-18
3.53847e-18
2.3777e-18
1.59656e-18
1.08016e-18
7.50291e-19
5.55739e-19
4.65699e-19
5.69874e-18
6.03716e-18
6.73236e-18
7.81542e-18
9.33489e-18
1.13588e-17
1.39774e-17
1.73071e-17
2.14946e-17
2.67226e-17
3.32168e-17
4.12538e-17
5.11709e-17
6.33774e-17
7.83688e-17
9.6743e-17
1.19219e-16
1.4666e-16
1.80099e-16
2.20772e-16
2.7015e-16
3.29983e-16
4.0235e-16
4.89712e-16
5.94976e-16
7.21571e-16
8.7353e-16
1.05559e-15
1.27329e-15
1.53311e-15
1.84261e-15
2.21057e-15
2.64719e-15
3.16427e-15
3.77545e-15
4.49642e-15
5.34525e-15
6.34264e-15
7.51227e-15
8.88114e-15
1.048e-14
1.23438e-14
1.45119e-14
1.7029e-14
1.99454e-14
2.33175e-14
2.72084e-14
3.16887e-14
3.68371e-14
4.27409e-14
4.94966e-14
5.7211e-14
6.60016e-14
7.5997e-14
8.73382e-14
1.00179e-13
1.14685e-13
1.31038e-13
1.49432e-13
1.70076e-13
1.93194e-13
2.19025e-13
2.47822e-13
2.79852e-13
3.15397e-13
3.54752e-13
3.98224e-13
4.46131e-13
4.988e-13
5.56568e-13
6.19773e-13
6.8876e-13
7.63872e-13
8.45448e-13
9.33823e-13
1.02932e-12
1.13224e-12
1.24288e-12
1.36149e-12
1.48831e-12
1.62354e-12
1.76733e-12
1.91978e-12
2.08096e-12
2.25085e-12
2.4294e-12
2.61647e-12
2.81183e-12
3.01521e-12
3.22622e-12
3.4444e-12
3.66919e-12
3.89995e-12
4.13595e-12
4.37633e-12
4.62019e-12
4.86649e-12
5.11415e-12
5.36196e-12
5.60868e-12
5.85298e-12
6.09346e-12
6.32871e-12
6.55723e-12
6.77755e-12
6.98817e-12
7.18757e-12
7.37429e-12
7.5469e-12
7.704e-12
7.8443e-12
7.96656e-12
8.06968e-12
8.15265e-12
8.21461e-12
8.25486e-12
8.27285e-12
8.26819e-12
8.24069e-12
8.19034e-12
8.11732e-12
8.022e-12
7.90496e-12
7.76694e-12
7.60887e-12
7.43188e-12
7.23722e-12
7.02632e-12
6.80073e-12
6.56211e-12
6.31223e-12
6.05293e-12
5.78609e-12
5.51365e-12
5.23755e-12
4.9597e-12
4.68201e-12
4.40633e-12
4.13442e-12
3.86798e-12
3.60859e-12
3.35774e-12
3.11676e-12
2.88687e-12
2.66915e-12
2.46453e-12
2.27379e-12
2.09757e-12
1.93636e-12
1.79051e-12
1.66025e-12
1.54565e-12
1.44667e-12
1.36316e-12
1.29484e-12
1.24133e-12
1.20217e-12
1.17677e-12
1.16449e-12
1.16458e-12
1.17623e-12
1.19856e-12
1.23059e-12
1.27132e-12
1.31967e-12
1.37449e-12
1.43463e-12
1.49886e-12
1.56593e-12
1.63458e-12
1.70354e-12
1.77153e-12
1.83731e-12
1.89967e-12
1.95743e-12
2.00951e-12
2.05489e-12
2.09267e-12
2.12205e-12
2.14239e-12
2.15316e-12
2.154e-12
2.14473e-12
2.12531e-12
2.09586e-12
2.05669e-12
2.00823e-12
1.95109e-12
1.88597e-12
1.8137e-12
1.73521e-12
1.65149e-12
1.56357e-12
1.47251e-12
1.37938e-12
1.28522e-12
1.19104e-12
1.09776e-12
1.00627e-12
9.17335e-13
8.31641e-13
7.49762e-13
6.72168e-13
5.9922e-13
5.31173e-13
4.68183e-13
4.10309e-13
3.57531e-13
3.09749e-13
2.66803e-13
2.28477e-13
1.94518e-13
1.64637e-13
1.38528e-13
1.15873e-13
9.63503e-14
7.96413e-14
6.54381e-14
5.34468e-14
4.33914e-14
3.50161e-14
2.80872e-14
2.23932e-14
1.77454e-14
1.39769e-14
1.09416e-14
8.51321e-15
6.58326e-15
5.05962e-15
3.86472e-15
2.93384e-15
2.21343e-15
1.6596e-15
1.23664e-15
9.15756e-16
6.7392e-16
4.92861e-16
3.58199e-16
2.58704e-16
1.85676e-16
1.32428e-16
9.3858e-17
6.61037e-17
4.62637e-17
3.21746e-17
2.22353e-17
1.52701e-17
1.04217e-17
7.06993e-18
4.76985e-18
3.20478e-18
2.15169e-18
1.45558e-18
1.01096e-18
7.48745e-19
6.27395e-19
1.0039e-17
1.06345e-17
1.1858e-17
1.37641e-17
1.64379e-17
1.99992e-17
2.46065e-17
3.0464e-17
3.78296e-17
4.70241e-17
5.84437e-17
7.25738e-17
9.00061e-17
1.11459e-16
1.37801e-16
1.70081e-16
2.09558e-16
2.57744e-16
3.16451e-16
3.87838e-16
4.74483e-16
5.79447e-16
7.06363e-16
8.59531e-16
1.04403e-15
1.26585e-15
1.53202e-15
1.8508e-15
2.23186e-15
2.68647e-15
3.2278e-15
3.87111e-15
4.63414e-15
5.53738e-15
6.60449e-15
7.86271e-15
9.34333e-15
1.10822e-14
1.31202e-14
1.5504e-14
1.82868e-14
2.15286e-14
2.52975e-14
2.96703e-14
3.47331e-14
4.05829e-14
4.73279e-14
5.50888e-14
6.4e-14
7.42103e-14
8.58843e-14
9.92034e-14
1.14367e-13
1.31593e-13
1.51119e-13
1.73205e-13
1.98131e-13
2.26199e-13
2.57737e-13
2.93093e-13
3.32641e-13
3.76776e-13
4.25918e-13
4.80508e-13
5.41011e-13
6.07908e-13
6.81702e-13
7.62908e-13
8.52055e-13
9.49684e-13
1.05634e-12
1.17256e-12
1.2989e-12
1.43588e-12
1.58401e-12
1.7438e-12
1.9157e-12
2.10014e-12
2.29749e-12
2.50808e-12
2.73217e-12
2.96995e-12
3.22151e-12
3.48689e-12
3.76598e-12
4.05859e-12
4.36441e-12
4.68301e-12
5.01382e-12
5.35613e-12
5.70909e-12
6.07172e-12
6.44287e-12
6.82126e-12
7.20546e-12
7.59389e-12
7.98484e-12
8.37647e-12
8.76683e-12
9.15384e-12
9.53534e-12
9.90909e-12
1.02728e-11
1.06241e-11
1.09607e-11
1.12802e-11
1.15803e-11
1.18586e-11
1.21132e-11
1.23417e-11
1.25424e-11
1.27134e-11
1.28531e-11
1.29601e-11
1.30333e-11
1.30717e-11
1.30747e-11
1.30419e-11
1.29731e-11
1.28687e-11
1.27291e-11
1.2555e-11
1.23477e-11
1.21085e-11
1.1839e-11
1.15411e-11
1.12171e-11
1.08691e-11
1.04999e-11
1.01119e-11
9.70823e-12
9.29161e-12
8.86507e-12
8.4316e-12
7.99419e-12
7.55581e-12
7.11933e-12
6.68754e-12
6.26309e-12
5.84849e-12
5.44607e-12
5.05798e-12
4.68615e-12
4.33231e-12
3.99795e-12
3.68437e-12
3.3926e-12
3.12347e-12
2.8776e-12
2.65537e-12
2.45697e-12
2.28241e-12
2.13149e-12
2.00386e-12
1.899e-12
1.81624e-12
1.75478e-12
1.71367e-12
1.69188e-12
1.68822e-12
1.70143e-12
1.73016e-12
1.77294e-12
1.82825e-12
1.89447e-12
1.96995e-12
2.05294e-12
2.14168e-12
2.23436e-12
2.32916e-12
2.42426e-12
2.51786e-12
2.60817e-12
2.69349e-12
2.77219e-12
2.84274e-12
2.90373e-12
2.95393e-12
2.99224e-12
3.01778e-12
3.02987e-12
3.02804e-12
3.01205e-12
2.9819e-12
2.93781e-12
2.88023e-12
2.80982e-12
2.72743e-12
2.63409e-12
2.53098e-12
2.41941e-12
2.30077e-12
2.17652e-12
2.04814e-12
1.91712e-12
1.78489e-12
1.65286e-12
1.5223e-12
1.39443e-12
1.2703e-12
1.15085e-12
1.03685e-12
9.28941e-13
8.27599e-13
7.33162e-13
6.45826e-13
5.6566e-13
4.92614e-13
4.2654e-13
3.67199e-13
3.14285e-13
2.67432e-13
2.26237e-13
1.90266e-13
1.59074e-13
1.32211e-13
1.09234e-13
8.9714e-14
7.32432e-14
5.94389e-14
4.79472e-14
3.84447e-14
3.06396e-14
2.42714e-14
1.91103e-14
1.49552e-14
1.16323e-14
8.99243e-15
6.90912e-15
5.2759e-15
4.00399e-15
3.02e-15
2.26376e-15
1.68641e-15
1.24852e-15
9.18595e-16
6.71654e-16
4.88038e-16
3.52408e-16
2.5288e-16
1.80327e-16
1.27784e-16
8.99823e-17
6.29655e-17
4.37834e-17
3.02537e-17
2.07739e-17
1.41761e-17
9.61576e-18
6.48669e-18
4.35781e-18
2.92553e-18
1.97886e-18
1.37426e-18
1.01772e-18
8.52721e-19
1.75729e-17
1.86143e-17
2.07539e-17
2.40871e-17
2.87627e-17
3.49895e-17
4.30444e-17
5.3284e-17
6.6158e-17
8.22265e-17
1.02181e-16
1.26867e-16
1.57317e-16
1.94784e-16
2.4078e-16
2.97133e-16
3.66037e-16
4.50126e-16
5.52548e-16
6.77066e-16
8.28159e-16
1.01115e-15
1.23235e-15
1.49924e-15
1.82062e-15
2.20689e-15
2.67025e-15
3.22501e-15
3.88792e-15
4.67851e-15
5.61954e-15
6.73742e-15
8.06279e-15
9.63104e-15
1.1483e-14
1.36656e-14
1.62328e-14
1.92461e-14
2.27761e-14
2.69029e-14
3.17176e-14
3.73232e-14
4.38364e-14
5.13882e-14
6.01262e-14
7.02155e-14
8.18406e-14
9.52071e-14
1.10543e-13
1.28101e-13
1.4816e-13
1.71026e-13
1.97036e-13
2.26557e-13
2.5999e-13
2.97769e-13
3.40363e-13
3.8828e-13
4.42062e-13
5.0229e-13
5.69582e-13
6.44594e-13
7.28015e-13
8.20573e-13
9.23024e-13
1.03616e-12
1.16078e-12
1.29774e-12
1.44787e-12
1.61205e-12
1.79114e-12
1.98599e-12
2.19746e-12
2.42637e-12
2.67351e-12
2.93963e-12
3.22541e-12
3.53147e-12
3.85836e-12
4.20649e-12
4.57621e-12
4.9677e-12
5.38103e-12
5.81609e-12
6.27263e-12
6.75019e-12
7.24813e-12
7.76559e-12
8.30153e-12
8.85465e-12
9.42344e-12
1.00062e-11
1.06008e-11
1.12053e-11
1.1817e-11
1.24334e-11
1.30517e-11
1.36687e-11
1.42813e-11
1.48861e-11
1.54796e-11
1.60582e-11
1.66183e-11
1.71561e-11
1.7668e-11
1.81504e-11
1.85995e-11
1.9012e-11
1.93846e-11
1.97142e-11
1.99978e-11
2.0233e-11
2.04174e-11
2.05492e-11
2.06267e-11
2.06489e-11
2.0615e-11
2.05247e-11
2.03783e-11
2.01764e-11
1.99202e-11
1.96111e-11
1.92512e-11
1.88429e-11
1.83892e-11
1.78932e-11
1.73584e-11
1.67888e-11
1.61885e-11
1.55617e-11
1.49129e-11
1.42468e-11
1.3568e-11
1.28811e-11
1.21907e-11
1.15014e-11
1.08174e-11
1.01431e-11
9.48226e-12
8.83868e-12
8.21575e-12
7.61657e-12
7.04393e-12
6.50025e-12
5.98762e-12
5.50777e-12
5.0621e-12
4.65165e-12
4.27713e-12
3.93894e-12
3.63716e-12
3.37162e-12
3.14184e-12
2.94714e-12
2.78656e-12
2.65897e-12
2.56302e-12
2.49722e-12
2.45987e-12
2.44916e-12
2.46312e-12
2.49967e-12
2.55661e-12
2.63164e-12
2.72238e-12
2.82635e-12
2.94101e-12
3.06379e-12
3.19207e-12
3.32322e-12
3.45463e-12
3.58372e-12
3.70798e-12
3.82499e-12
3.93245e-12
4.02823e-12
4.11038e-12
4.17718e-12
4.22713e-12
4.25905e-12
4.27201e-12
4.26541e-12
4.23897e-12
4.19273e-12
4.12706e-12
4.04263e-12
3.94042e-12
3.82165e-12
3.68781e-12
3.54059e-12
3.38182e-12
3.21348e-12
3.03761e-12
2.8563e-12
2.67161e-12
2.48555e-12
2.30006e-12
2.11693e-12
1.9378e-12
1.76413e-12
1.59721e-12
1.43809e-12
1.28762e-12
1.14646e-12
1.01504e-12
8.93609e-13
7.82246e-13
6.80859e-13
5.8922e-13
5.06984e-13
4.33706e-13
3.68869e-13
3.11898e-13
2.62185e-13
2.19103e-13
1.82023e-13
1.50324e-13
1.2341e-13
1.00712e-13
8.16989e-14
6.58785e-14
5.28028e-14
4.20677e-14
3.33129e-14
2.62205e-14
2.05128e-14
1.59501e-14
1.23266e-14
9.46812e-15
7.22797e-15
5.48398e-15
4.1352e-15
3.09894e-15
2.30803e-15
1.70834e-15
1.25663e-15
9.1862e-16
6.67354e-16
4.81796e-16
3.45663e-16
2.46445e-16
1.74607e-16
1.22934e-16
8.60106e-17
5.97992e-17
4.13146e-17
2.83652e-17
1.9354e-17
1.31264e-17
8.8539e-18
5.94748e-18
3.99229e-18
2.70015e-18
1.87498e-18
1.3884e-18
1.16323e-18
3.0554e-17
3.23629e-17
3.60795e-17
4.18692e-17
4.99902e-17
6.08046e-17
7.47926e-17
9.25724e-17
1.14924e-16
1.42818e-16
1.77451e-16
2.20292e-16
2.73126e-16
3.38123e-16
4.17905e-16
5.1563e-16
6.35098e-16
7.80862e-16
9.58369e-16
1.17412e-15
1.43586e-15
1.75277e-15
2.13577e-15
2.59773e-15
3.15388e-15
3.82211e-15
4.62346e-15
5.58258e-15
6.72829e-15
8.09421e-15
9.71944e-15
1.16494e-14
1.39367e-14
1.6642e-14
1.98353e-14
2.35971e-14
2.80197e-14
3.32085e-14
3.92838e-14
4.63826e-14
5.46601e-14
6.4292e-14
7.54766e-14
8.84372e-14
1.03424e-13
1.20717e-13
1.40629e-13
1.63507e-13
1.89737e-13
2.19745e-13
2.54001e-13
2.93019e-13
3.37364e-13
3.87652e-13
4.44552e-13
5.08789e-13
5.81145e-13
6.62461e-13
7.53638e-13
8.55634e-13
9.6947e-13
1.09622e-12
1.23702e-12
1.39305e-12
1.56555e-12
1.75579e-12
1.96509e-12
2.19478e-12
2.44623e-12
2.7208e-12
3.01987e-12
3.34478e-12
3.69684e-12
4.07734e-12
4.48746e-12
4.92832e-12
5.40095e-12
5.90621e-12
6.44484e-12
7.01742e-12
7.6243e-12
8.26564e-12
8.94136e-12
9.6511e-12
1.03942e-11
1.11698e-11
1.19766e-11
1.28131e-11
1.36772e-11
1.45667e-11
1.5479e-11
1.6411e-11
1.73593e-11
1.83203e-11
1.92899e-11
2.02635e-11
2.12366e-11
2.22042e-11
2.3161e-11
2.41016e-11
2.50204e-11
2.59117e-11
2.67696e-11
2.75885e-11
2.83625e-11
2.9086e-11
2.97536e-11
3.03599e-11
3.09002e-11
3.13697e-11
3.17643e-11
3.20803e-11
3.23146e-11
3.24646e-11
3.25284e-11
3.25045e-11
3.23924e-11
3.21922e-11
3.19047e-11
3.15314e-11
3.10745e-11
3.05369e-11
2.99223e-11
2.92349e-11
2.84794e-11
2.76614e-11
2.67865e-11
2.58611e-11
2.48918e-11
2.38854e-11
2.2849e-11
2.17898e-11
2.07149e-11
1.96317e-11
1.85469e-11
1.74676e-11
1.64003e-11
1.53511e-11
1.43261e-11
1.33306e-11
1.23696e-11
1.14475e-11
1.05684e-11
9.73554e-12
8.95187e-12
8.2197e-12
7.54083e-12
6.91652e-12
6.34756e-12
5.83425e-12
5.37645e-12
4.97359e-12
4.62475e-12
4.32861e-12
4.08356e-12
3.88768e-12
3.73879e-12
3.63447e-12
3.57207e-12
3.54877e-12
3.56154e-12
3.60721e-12
3.68247e-12
3.78388e-12
3.90788e-12
4.05084e-12
4.20905e-12
4.37874e-12
4.55613e-12
4.73744e-12
4.91891e-12
5.09687e-12
5.26776e-12
5.42816e-12
5.57484e-12
5.70481e-12
5.81538e-12
5.90414e-12
5.96907e-12
6.00853e-12
6.0213e-12
6.00661e-12
5.96412e-12
5.89396e-12
5.79672e-12
5.67341e-12
5.52543e-12
5.35459e-12
5.16299e-12
4.95303e-12
4.72733e-12
4.48867e-12
4.23991e-12
3.98398e-12
3.72376e-12
3.46205e-12
3.20152e-12
2.94467e-12
2.69375e-12
2.45079e-12
2.21752e-12
1.99539e-12
1.78556e-12
1.58889e-12
1.40595e-12
1.23708e-12
1.08233e-12
9.41554e-13
8.14411e-13
7.00395e-13
5.98871e-13
5.09101e-13
4.30273e-13
3.6153e-13
3.01992e-13
2.50777e-13
2.0702e-13
1.69887e-13
1.38587e-13
1.12381e-13
9.05861e-14
7.25806e-14
5.78048e-14
4.57596e-14
3.60057e-14
2.81593e-14
2.18891e-14
1.69115e-14
1.29862e-14
9.91096e-15
7.51765e-15
5.66727e-15
4.24605e-15
3.16164e-15
2.33963e-15
1.72063e-15
1.25755e-15
9.13401e-16
6.59304e-16
4.72929e-16
3.37123e-16
2.38813e-16
1.68113e-16
1.17602e-16
8.17512e-17
5.64733e-17
3.87675e-17
2.64484e-17
1.79358e-17
1.20966e-17
8.12481e-18
5.45326e-18
3.68788e-18
2.56059e-18
1.8959e-18
1.58833e-18
5.2762e-17
5.58825e-17
6.22945e-17
7.22826e-17
8.62919e-17
1.04946e-16
1.29072e-16
1.59735e-16
1.98276e-16
2.46369e-16
3.06074e-16
3.79915e-16
4.70968e-16
5.82963e-16
7.20408e-16
8.88736e-16
1.09447e-15
1.34545e-15
1.65102e-15
2.02234e-15
2.4727e-15
3.01788e-15
3.67657e-15
4.47087e-15
5.42684e-15
6.57517e-15
7.95185e-15
9.59907e-15
1.15661e-14
1.39104e-14
1.66989e-14
2.00089e-14
2.39302e-14
2.85665e-14
3.40368e-14
4.04783e-14
4.80478e-14
5.69246e-14
6.7313e-14
7.94452e-14
9.35846e-14
1.10029e-13
1.29113e-13
1.51214e-13
1.76755e-13
2.06208e-13
2.40099e-13
2.79012e-13
3.23595e-13
3.74562e-13
4.32698e-13
4.98865e-13
5.74005e-13
6.59142e-13
7.5539e-13
8.63951e-13
9.86119e-13
1.12328e-12
1.27693e-12
1.44863e-12
1.64006e-12
1.85297e-12
2.08922e-12
2.35072e-12
2.63946e-12
2.95752e-12
3.30699e-12
3.69001e-12
4.10874e-12
4.56535e-12
5.06198e-12
5.60073e-12
6.18362e-12
6.8126e-12
7.48946e-12
8.21586e-12
8.99326e-12
9.82289e-12
1.07057e-11
1.16424e-11
1.26334e-11
1.36786e-11
1.47775e-11
1.59294e-11
1.71328e-11
1.8386e-11
1.96867e-11
2.10319e-11
2.24182e-11
2.38415e-11
2.52974e-11
2.67807e-11
2.82856e-11
2.98059e-11
3.13348e-11
3.28652e-11
3.43892e-11
3.58988e-11
3.73855e-11
3.88407e-11
4.02555e-11
4.16208e-11
4.29275e-11
4.41666e-11
4.53294e-11
4.6407e-11
4.73913e-11
4.82743e-11
4.90488e-11
4.97081e-11
5.02462e-11
5.06578e-11
5.09388e-11
5.10857e-11
5.10963e-11
5.09691e-11
5.07041e-11
5.03021e-11
4.9765e-11
4.90961e-11
4.82995e-11
4.73805e-11
4.63453e-11
4.52011e-11
4.3956e-11
4.26187e-11
4.11988e-11
3.97063e-11
3.81517e-11
3.65459e-11
3.48999e-11
3.32248e-11
3.15318e-11
2.98318e-11
2.81355e-11
2.64532e-11
2.47948e-11
2.31695e-11
2.1586e-11
2.00521e-11
1.85751e-11
1.71614e-11
1.58165e-11
1.45451e-11
1.33512e-11