/*--------------------------------*- C++ -*----------------------------------*\
| =========                 |                                                 |
| \\      /  F ield         | OpenFOAM: The Open Source CFD Toolbox           |
|  \\    /   O peration     | Version:  v2012                                 |
|   \\  /    A nd           | Website:  www.openfoam.com                      |
|    \\/     M anipulation  |                                                 |
\*---------------------------------------------------------------------------*/
FoamFile
{
    version     2.0;
    format      ascii;
    class       volVectorField;
    location    "0";
    object      U;
}
// * * * * * * * * * * * * * * * * * * * * * * * * * * * * * * * * * * * * * //

dimensions      [0 1 -1 0 0 0 0];


internalField   nonuniform List<vector> 
4000
(
(1 -3.46043e-15 0)
(1 9.01617e-15 0)
(1 -6.22286e-15 0)
(1 2.74142e-15 0)
(1 1.23693e-15 0)
(1 -3.63609e-15 0)
(1 2.65756e-15 0)
(1 7.42417e-16 0)
(1 -1.76822e-15 0)
(1 -8.33168e-16 0)
(1 1.21233e-15 0)
(1 1.35342e-15 0)
(1 4.31938e-15 0)
(1 1.4039e-15 0)
(1 5.59596e-15 0)
(1 -2.57301e-15 0)
(1 -6.5179e-15 0)
(1 -5.67461e-15 0)
(1 8.60715e-16 0)
(1 -2.48452e-15 0)
(1 -6.14854e-16 0)
(1 -1.05398e-14 0)
(1 3.53522e-16 0)
(1 -6.353e-15 0)
(1 5.46336e-15 0)
(1 -4.63622e-15 0)
(1 6.69918e-15 0)
(1 4.1191e-15 0)
(1 5.25275e-15 0)
(1 6.05991e-15 0)
(1 3.7651e-15 0)
(1 -4.94978e-15 0)
(1 -1.07448e-15 0)
(1 1.27143e-15 0)
(1 -4.46947e-16 0)
(1 4.60995e-16 0)
(1 6.15337e-15 0)
(1 5.23611e-15 0)
(1 9.85145e-16 0)
(1 -2.03447e-15 0)
(1 -2.81897e-15 0)
(1 -4.79764e-15 0)
(1 -5.08583e-15 0)
(1 -2.02577e-15 0)
(1 4.03052e-15 0)
(1 2.16659e-15 0)
(1 3.39765e-15 0)
(1 1.04418e-15 0)
(1 -6.82225e-15 0)
(1 2.37314e-15 0)
(1 -1.62112e-15 0)
(1 1.90667e-15 0)
(1 6.56541e-16 0)
(1 3.19037e-15 0)
(1 1.62031e-15 0)
(1 -8.23673e-15 0)
(1 -1.43969e-15 0)
(1 1.32216e-15 0)
(1 5.75613e-15 0)
(1 5.87848e-15 0)
(1 2.92128e-15 0)
(1 1.20095e-16 0)
(1 8.55328e-16 0)
(1 -4.64117e-16 0)
(1 -2.05948e-15 0)
(1 -8.16251e-16 0)
(1 3.74795e-16 0)
(1 5.16425e-15 0)
(1 -2.31384e-15 0)
(1 -3.1027e-16 0)
(1 -4.75948e-15 0)
(1 -1.02347e-15 0)
(1 -1.66588e-15 0)
(1 -3.58967e-16 0)
(1 -5.13807e-15 0)
(1 -2.47954e-15 0)
(1 -2.24391e-15 0)
(1 6.58169e-16 0)
(1 -4.85617e-16 0)
(1 -1.52843e-15 0)
(1 3.89964e-15 0)
(1 3.19879e-15 0)
(1 -1.75019e-15 0)
(1 3.31209e-15 0)
(1 -1.04104e-15 0)
(1 -3.26847e-15 0)
(1 -2.58448e-16 0)
(1 -3.86101e-15 0)
(1 5.29461e-15 0)
(1 5.868e-15 0)
(1 -1.0717e-15 0)
(1 3.12772e-15 0)
(1 -4.94005e-15 0)
(1 -1.50346e-15 0)
(1 3.03304e-16 0)
(1 -5.22227e-15 0)
(1 -4.64513e-15 0)
(1 7.02357e-16 0)
(1 1.13468e-15 0)
(1 -4.97405e-16 0)
(1 -3.82787e-16 0)
(1 5.30745e-15 0)
(1 -4.28094e-15 0)
(1 7.69582e-16 0)
(1 6.51593e-15 0)
(1 -7.6649e-15 0)
(1 3.21895e-15 0)
(1 -1.29739e-16 0)
(1 -1.28285e-15 0)
(1 -3.4194e-15 0)
(1 3.72258e-15 0)
(1 -5.87453e-16 0)
(1 7.92483e-15 0)
(1 9.19206e-15 0)
(1 8.76981e-15 0)
(1 -4.42986e-15 0)
(1 -1.01838e-14 0)
(1 -9.15728e-15 0)
(1 1.10549e-15 0)
(1 -4.07541e-15 0)
(1 -1.13717e-15 0)
(1 -1.14138e-14 0)
(1 1.48552e-15 0)
(1 -1.15033e-14 0)
(1 4.55835e-15 0)
(1 -5.84001e-15 0)
(1 6.36526e-15 0)
(1 3.30408e-15 0)
(1 5.84275e-15 0)
(1 8.56856e-15 0)
(1 7.27691e-15 0)
(1 1.69224e-15 0)
(1 -3.797e-15 0)
(1 -3.3363e-15 0)
(1 -2.08145e-15 0)
(1 1.54516e-15 0)
(1 8.2143e-15 0)
(1 8.70577e-15 0)
(1 -1.56253e-16 0)
(1 -3.98923e-15 0)
(1 -5.69984e-15 0)
(1 -7.80681e-15 0)
(1 -9.31817e-15 0)
(1 -3.92048e-15 0)
(1 5.12997e-15 0)
(1 -7.82186e-16 0)
(1 1.01572e-15 0)
(1 -2.17812e-16 0)
(1 5.73978e-16 0)
(1 1.69997e-15 0)
(1 -4.86219e-15 0)
(1 -2.50764e-15 0)
(1 -3.947e-16 0)
(1 3.29581e-15 0)
(1 3.47373e-15 0)
(1 -6.1311e-16 0)
(1 -4.31318e-16 0)
(1 5.63087e-15 0)
(1 -1.15691e-15 0)
(1 4.79316e-15 0)
(1 -3.20227e-15 0)
(1 -2.29628e-15 0)
(1 4.10296e-15 0)
(1 2.37238e-16 0)
(1 -1.22873e-15 0)
(1 1.18985e-15 0)
(1 -2.06016e-15 0)
(1 2.09964e-15 0)
(1 -4.45047e-15 0)
(1 -2.2216e-15 0)
(1 -1.81206e-15 0)
(1 -2.34308e-15 0)
(1 4.76938e-15 0)
(1 9.08557e-16 0)
(1 2.18458e-15 0)
(1 -1.15168e-15 0)
(1 -9.43436e-16 0)
(1 4.80449e-15 0)
(1 2.035e-15 0)
(1 -1.92358e-15 0)
(1 9.05416e-16 0)
(1 1.07408e-15 0)
(1 1.80654e-15 0)
(1 4.81604e-15 0)
(1 1.05787e-15 0)
(1 -5.6427e-16 0)
(1 -2.71023e-15 0)
(1 -3.4652e-15 0)
(1 -1.23253e-15 0)
(1 3.97543e-15 0)
(1 2.14931e-15 0)
(1 3.34637e-15 0)
(1 -7.12477e-15 0)
(1 -2.12287e-15 0)
(1 -1.07737e-15 0)
(1 -1.69114e-15 0)
(1 -5.10255e-15 0)
(1 4.22576e-15 0)
(1 2.00517e-16 0)
(1 -3.75243e-15 0)
(1 3.07223e-15 0)
(1 -7.62049e-15 0)
(1 3.62313e-16 0)
(1 -8.06279e-15 0)
(1 6.4908e-15 0)
(1 -5.6668e-16 0)
(1 2.7774e-15 0)
(1 6.1615e-15 0)
(1 3.90726e-15 0)
(1 -2.86784e-15 0)
(1 1.05591e-15 0)
(1 2.08937e-15 0)
(1 5.7365e-15 0)
(1 1.42653e-14 0)
(1 9.35238e-16 0)
(1 -3.00773e-15 0)
(1 -6.86029e-15 0)
(1 -2.96134e-15 0)
(1 1.37194e-15 0)
(1 3.55689e-15 0)
(1 1.54211e-15 0)
(1 1.76368e-15 0)
(1 -8.85775e-15 0)
(1 -7.40123e-15 0)
(1 -7.10154e-15 0)
(1 -2.50505e-15 0)
(1 7.01186e-15 0)
(1 9.76119e-15 0)
(1 1.28577e-14 0)
(1 1.03056e-14 0)
(1 1.16076e-14 0)
(1 6.50162e-15 0)
(1 1.16559e-15 0)
(1 -5.19222e-16 0)
(1 -3.63369e-15 0)
(1 -3.68076e-15 0)
(1 -4.67761e-15 0)
(1 4.27428e-15 0)
(1 7.7282e-16 0)
(1 -6.58318e-15 0)
(1 -6.48486e-15 0)
(1 -5.54011e-15 0)
(1 -1.02209e-14 0)
(1 -5.95791e-15 0)
(1 -2.20651e-15 0)
(1 2.7595e-15 0)
(1 -1.31287e-15 0)
(1 4.20722e-15 0)
(1 3.2857e-15 0)
(1 -4.60369e-15 0)
(1 -2.28852e-16 0)
(1 1.98747e-16 0)
(1 3.78356e-15 0)
(1 -1.86186e-15 0)
(1 7.39468e-16 0)
(1 6.21923e-15 0)
(1 1.88433e-15 0)
(1 1.85541e-15 0)
(1 -2.15514e-15 0)
(1 2.00072e-16 0)
(1 -2.41049e-15 0)
(1 -3.80776e-15 0)
(1 5.01661e-15 0)
(1 -9.42618e-16 0)
(1 2.10339e-15 0)
(1 2.04534e-15 0)
(1 7.39736e-16 0)
(1 -5.29752e-16 0)
(1 -4.31631e-16 0)
(1 -1.37617e-15 0)
(1 -1.98541e-15 0)
(1 -2.12123e-15 0)
(1 -4.57536e-16 0)
(1 -1.12718e-15 0)
(1 9.61622e-16 0)
(1 1.09322e-15 0)
(1 -3.98841e-15 0)
(1 4.26071e-15 0)
(1 -1.69449e-15 0)
(1 -2.60332e-15 0)
(1 2.84331e-16 0)
(1 -3.36946e-15 0)
(1 2.17857e-15 0)
(1 -5.80155e-16 0)
(1 5.72861e-15 0)
(1 7.10403e-16 0)
(1 -1.18862e-15 0)
(1 -1.89912e-15 0)
(1 -6.77808e-15 0)
(1 -1.4496e-15 0)
(1 -2.6562e-15 0)
(1 1.23135e-15 0)
(1 -4.22017e-16 0)
(1 -9.36469e-16 0)
(1 -2.32514e-15 0)
(1 -1.9387e-15 0)
(1 -2.85096e-15 0)
(1 -2.95688e-16 0)
(1 -5.9842e-16 0)
(1 -1.61747e-15 0)
(1 3.64351e-15 0)
(1 -8.33311e-15 0)
(1 -2.28095e-15 0)
(1 -1.13649e-14 0)
(1 4.96672e-15 0)
(1 1.03589e-15 0)
(1 3.44303e-15 0)
(1 5.08502e-15 0)
(1 -2.43001e-15 0)
(1 2.03667e-15 0)
(1 4.17335e-15 0)
(1 1.1256e-14 0)
(1 1.07256e-14 0)
(1 5.88436e-15 0)
(1 4.34509e-15 0)
(1 -3.00419e-15 0)
(1 -5.21719e-15 0)
(1 -3.54947e-15 0)
(1 -1.01534e-14 0)
(1 -2.36722e-15 0)
(1 2.78012e-15 0)
(1 3.83581e-15 0)
(1 1.66075e-15 0)
(1 1.8876e-15 0)
(1 -1.83319e-15 0)
(1 3.90742e-15 0)
(1 2.4126e-15 0)
(1 8.95459e-15 0)
(1 1.37574e-14 0)
(1 8.22154e-15 0)
(1 8.1272e-15 0)
(1 1.09208e-15 0)
(1 -9.93021e-16 0)
(1 1.19018e-15 0)
(1 5.36904e-15 0)
(1 -1.73466e-15 0)
(1 -3.7757e-15 0)
(1 -4.13554e-15 0)
(1 2.23836e-15 0)
(1 -2.69488e-15 0)
(1 8.12622e-16 0)
(1 -6.97464e-16 0)
(1 -6.6831e-15 0)
(1 -8.04903e-15 0)
(1 -5.57572e-15 0)
(1 6.28783e-15 0)
(1 6.64365e-15 0)
(1 7.55895e-15 0)
(1 1.0116e-15 0)
(1 -5.8146e-16 0)
(1 9.22971e-16 0)
(1 -6.87464e-16 0)
(1 -4.15718e-16 0)
(1 -5.01379e-15 0)
(1 -4.78522e-15 0)
(1 -1.49835e-15 0)
(1 -8.3784e-16 0)
(1 -4.48998e-16 0)
(1 -2.39721e-15 0)
(1 -1.92066e-15 0)
(1 4.8109e-15 0)
(1 5.46138e-15 0)
(1 2.69978e-15 0)
(1 6.5981e-15 0)
(1 2.15245e-15 0)
(1 -1.58822e-15 0)
(1 -1.76738e-15 0)
(1 -2.68236e-15 0)
(1 -2.32001e-15 0)
(1 -4.43964e-15 0)
(1 -4.65831e-15 0)
(1 8.96641e-16 0)
(1 -1.83277e-15 0)
(1 -2.66628e-15 0)
(1 -1.20167e-15 0)
(1 -1.37775e-15 0)
(1 1.94592e-15 0)
(1 -6.20667e-16 0)
(1 -3.96999e-15 0)
(1 -1.75347e-15 0)
(1 5.03832e-15 0)
(1 5.47146e-15 0)
(1 -1.95702e-15 0)
(1 8.40629e-16 0)
(1 4.86077e-15 0)
(1 3.14252e-16 0)
(1 4.75396e-15 0)
(1 -2.40239e-16 0)
(1 -1.69792e-16 0)
(1 2.51916e-15 0)
(1 -3.6447e-15 0)
(1 -1.24043e-15 0)
(1 4.4064e-16 0)
(1 -3.03748e-16 0)
(1 -2.40297e-15 0)
(1 -3.84432e-15 0)
(1 -9.82513e-15 0)
(1 -4.8508e-15 0)
(1 -1.81635e-15 0)
(1 -7.53721e-16 0)
(1 1.86247e-15 0)
(1 -5.69522e-16 0)
(1 -6.47813e-15 0)
(1 -5.96793e-15 0)
(1 3.45348e-15 0)
(1 4.28209e-15 0)
(1 8.56761e-16 0)
(1 -2.76923e-15 0)
(1 -2.83194e-15 0)
(1 -1.32306e-15 0)
(1 1.96597e-15 0)
(1 3.66433e-15 0)
(1 1.00902e-14 0)
(1 -4.01639e-15 0)
(1 1.34078e-14 0)
(1 2.56196e-15 0)
(1 7.7268e-17 0)
(1 -5.56519e-15 0)
(1 -9.21772e-15 0)
(1 -1.24553e-14 0)
(1 1.62287e-16 0)
(1 -2.51938e-15 0)
(1 1.15522e-14 0)
(1 9.20712e-15 0)
(1 1.05573e-14 0)
(1 5.27061e-15 0)
(1 2.80416e-15 0)
(1 2.82466e-15 0)
(1 1.20065e-14 0)
(1 4.68388e-15 0)
(1 4.93028e-15 0)
(1 1.07724e-14 0)
(1 6.00512e-15 0)
(1 -2.45101e-15 0)
(1 -5.84951e-15 0)
(1 -6.78819e-15 0)
(1 -4.01767e-15 0)
(1 -8.26481e-15 0)
(1 -7.24409e-15 0)
(1 -3.27318e-15 0)
(1 -2.23807e-15 0)
(1 -3.37329e-15 0)
(1 -4.86312e-15 0)
(1 -4.74003e-15 0)
(1 -2.84351e-15 0)
(1 -5.0228e-16 0)
(1 5.12684e-15 0)
(1 9.19824e-15 0)
(1 4.33086e-15 0)
(1 4.8693e-15 0)
(1 -4.64804e-16 0)
(1 -3.58181e-15 0)
(1 -7.4891e-15 0)
(1 -1.25468e-15 0)
(1 2.61811e-15 0)
(1 6.16434e-15 0)
(1 4.17109e-15 0)
(1 1.07042e-15 0)
(1 -2.2328e-16 0)
(1 -3.39931e-16 0)
(1 -3.43496e-16 0)
(1 -4.03337e-16 0)
(1 2.63534e-15 0)
(1 4.98654e-15 0)
(1 2.04254e-15 0)
(1 -4.72193e-16 0)
(1 -2.05391e-15 0)
(1 -2.56079e-15 0)
(1 -3.7512e-16 0)
(1 -3.13233e-15 0)
(1 1.17452e-15 0)
(1 -1.83547e-15 0)
(1 2.26319e-15 0)
(1 -2.2938e-15 0)
(1 4.40082e-15 0)
(1 -3.04026e-15 0)
(1 5.26943e-15 0)
(1 5.19666e-15 0)
(1 5.49423e-15 0)
(1 4.62882e-16 0)
(1 3.56526e-16 0)
(1 4.98171e-15 0)
(1 -8.17692e-16 0)
(1 5.29609e-15 0)
(1 6.29109e-16 0)
(1 4.87334e-15 0)
(1 1.95652e-15 0)
(1 -1.31859e-15 0)
(1 -9.40283e-16 0)
(1 -3.45335e-15 0)
(1 -6.15953e-16 0)
(1 -6.05783e-15 0)
(1 -1.8863e-15 0)
(1 -1.66607e-16 0)
(1 -2.36174e-15 0)
(1 -2.49519e-15 0)
(1 -5.71274e-15 0)
(1 7.61348e-16 0)
(1 -1.37733e-15 0)
(1 -9.92287e-16 0)
(1 -2.98809e-15 0)
(1 1.53613e-15 0)
(1 -7.32577e-15 0)
(1 2.26467e-15 0)
(1 -2.27682e-15 0)
(1 4.73254e-15 0)
(1 -3.93198e-15 0)
(1 -8.6195e-15 0)
(1 2.68787e-15 0)
(1 -2.02113e-15 0)
(1 4.052e-15 0)
(1 5.51549e-15 0)
(1 2.50056e-15 0)
(1 -7.59762e-16 0)
(1 4.41583e-15 0)
(1 4.58682e-15 0)
(1 3.37863e-15 0)
(1 6.69746e-16 0)
(1 6.42953e-15 0)
(1 -4.24229e-15 0)
(1 6.38066e-15 0)
(1 5.67597e-15 0)
(1 3.5683e-16 0)
(1 -2.53905e-15 0)
(1 6.95024e-16 0)
(1 -4.353e-15 0)
(1 -4.08139e-15 0)
(1 1.05295e-14 0)
(1 1.1981e-14 0)
(1 1.84201e-14 0)
(1 8.09462e-15 0)
(1 1.3634e-14 0)
(1 5.27457e-15 0)
(1 -5.03811e-15 0)
(1 -1.22804e-14 0)
(1 -3.2566e-15 0)
(1 -1.11225e-15 0)
(1 5.27733e-15 0)
(1 -6.74283e-15 0)
(1 -7.70787e-15 0)
(1 -6.89897e-15 0)
(1 -3.1919e-15 0)
(1 2.4496e-15 0)
(1 5.73263e-15 0)
(1 3.93783e-15 0)
(1 -4.0664e-15 0)
(1 -3.6155e-15 0)
(1 -2.00574e-15 0)
(1 1.87312e-16 0)
(1 5.51933e-15 0)
(1 5.21973e-15 0)
(1 1.88805e-15 0)
(1 -6.30585e-15 0)
(1 -3.16174e-15 0)
(1 3.35551e-15 0)
(1 2.48278e-15 0)
(1 3.2959e-15 0)
(1 2.8016e-16 0)
(1 1.07119e-14 0)
(1 5.84897e-15 0)
(1 6.45063e-15 0)
(1 -2.73073e-15 0)
(1 -1.44075e-15 0)
(1 -2.69657e-15 0)
(1 3.31212e-15 0)
(1 3.42808e-15 0)
(1 6.15694e-15 0)
(1 8.16814e-15 0)
(1 1.12345e-14 0)
(1 1.43018e-14 0)
(1 4.78791e-15 0)
(1 -4.29945e-15 0)
(1 -3.36405e-15 0)
(1 -2.44233e-15 0)
(1 -6.46445e-15 0)
(1 -5.02e-15 0)
(1 -6.48855e-15 0)
(1 2.88249e-15 0)
(1 2.20439e-15 0)
(1 5.94662e-15 0)
(1 5.5512e-15 0)
(1 7.46901e-15 0)
(1 5.65338e-15 0)
(1 7.53321e-16 0)
(1 5.76341e-17 0)
(1 2.81748e-15 0)
(1 2.99173e-16 0)
(1 -6.76097e-16 0)
(1 -4.30624e-15 0)
(1 -4.93504e-15 0)
(1 -5.48869e-15 0)
(1 -1.70357e-15 0)
(1 2.18166e-16 0)
(1 -9.50597e-16 0)
(1 -2.02863e-15 0)
(1 -3.37245e-15 0)
(1 5.79123e-15 0)
(1 3.67577e-15 0)
(1 4.24127e-15 0)
(1 4.20988e-15 0)
(1 -5.11557e-15 0)
(1 -1.10838e-15 0)
(1 -3.24463e-15 0)
(1 5.71978e-15 0)
(1 1.00649e-15 0)
(1 -6.99362e-16 0)
(1 -7.37922e-15 0)
(1 -1.23446e-14 0)
(1 3.15974e-15 0)
(1 -2.79918e-15 0)
(1 7.19063e-15 0)
(1 2.04164e-15 0)
(1 3.4633e-15 0)
(1 3.96987e-15 0)
(1 -1.87469e-16 0)
(1 1.19032e-15 0)
(1 9.68585e-15 0)
(1 5.27972e-15 0)
(1 6.38923e-15 0)
(1 8.16196e-15 0)
(1 5.32922e-15 0)
(1 4.34576e-15 0)
(1 9.12184e-16 0)
(1 1.59009e-15 0)
(1 -1.02476e-14 0)
(1 -6.52664e-15 0)
(1 -8.28758e-15 0)
(1 4.74228e-15 0)
(1 1.04712e-14 0)
(1 1.34387e-14 0)
(1 1.47066e-14 0)
(1 8.70228e-15 0)
(1 -1.54794e-15 0)
(1 -1.01821e-14 0)
(1 -3.66557e-15 0)
(1 3.30704e-15 0)
(1 5.39292e-15 0)
(1 3.74955e-15 0)
(1 2.53906e-15 0)
(1 -6.384e-15 0)
(1 -4.61198e-15 0)
(1 -5.82127e-15 0)
(1 6.90202e-15 0)
(1 1.08594e-14 0)
(1 1.16181e-15 0)
(1 -6.37272e-15 0)
(1 -2.53145e-15 0)
(1 -5.71919e-15 0)
(1 2.84987e-15 0)
(1 7.98183e-15 0)
(1 8.48481e-15 0)
(1 -2.98006e-15 0)
(1 -3.29434e-15 0)
(1 -3.25109e-16 0)
(1 -4.5515e-16 0)
(1 2.53394e-15 0)
(1 7.9238e-16 0)
(1 2.53253e-16 0)
(1 -7.03565e-16 0)
(1 3.01394e-15 0)
(1 4.61927e-15 0)
(1 5.62558e-15 0)
(1 2.31977e-15 0)
(1 6.88368e-15 0)
(1 1.75305e-16 0)
(1 -5.90892e-16 0)
(1 -1.05696e-15 0)
(1 5.67834e-16 0)
(1 3.10169e-15 0)
(1 1.13876e-15 0)
(1 1.72296e-15 0)
(1 -6.05396e-16 0)
(1 -1.53621e-15 0)
(1 1.56377e-15 0)
(1 1.56375e-15 0)
(1 6.41265e-15 0)
(1 4.50137e-15 0)
(1 1.96894e-15 0)
(1 7.68818e-16 0)
(1 2.97219e-15 0)
(1 7.45131e-15 0)
(1 6.36583e-15 0)
(1 5.42404e-15 0)
(1 2.72236e-15 0)
(1 3.7626e-15 0)
(1 4.2845e-15 0)
(1 5.48491e-15 0)
(1 3.37692e-15 0)
(1 -2.45328e-15 0)
(1 2.48018e-15 0)
(1 1.27169e-15 0)
(1 2.49573e-15 0)
(1 1.26904e-15 0)
(1 4.68428e-16 0)
(1 1.17724e-15 0)
(1 4.5813e-15 0)
(1 6.09307e-15 0)
(1 4.07253e-15 0)
(1 6.25668e-15 0)
(1 7.35688e-15 0)
(1 -3.70479e-15 0)
(1 -1.5193e-16 0)
(1 -2.7561e-15 0)
(1 4.4195e-15 0)
(1 1.7203e-15 0)
(1 -2.05098e-15 0)
(1 -1.00096e-15 0)
(1 -6.64375e-15 0)
(1 -1.03229e-15 0)
(1 -5.3545e-15 0)
(1 -7.63639e-16 0)
(1 -8.51221e-15 0)
(1 2.05063e-15 0)
(1 8.386e-15 0)
(1 6.36281e-15 0)
(1 6.41873e-15 0)
(1 4.56246e-15 0)
(1 5.50992e-15 0)
(1 7.89057e-15 0)
(1 1.0106e-14 0)
(1 -2.99489e-15 0)
(1 -6.95407e-15 0)
(1 -9.43869e-15 0)
(1 -4.67013e-16 0)
(1 -3.33521e-15 0)
(1 7.80969e-15 0)
(1 5.17224e-15 0)
(1 5.58122e-15 0)
(1 4.53673e-15 0)
(1 -1.63738e-15 0)
(1 3.58604e-15 0)
(1 4.08903e-16 0)
(1 1.15626e-15 0)
(1 4.59317e-15 0)
(1 4.00363e-15 0)
(1 -1.16812e-15 0)
(1 1.03389e-15 0)
(1 -2.11581e-15 0)
(1 2.45323e-15 0)
(1 -6.47249e-15 0)
(1 -5.67364e-15 0)
(1 -5.86247e-15 0)
(1 2.34119e-15 0)
(1 8.28746e-15 0)
(1 6.07385e-15 0)
(1 6.40336e-15 0)
(1 -6.21241e-16 0)
(1 2.09809e-15 0)
(1 -1.5073e-15 0)
(1 3.27277e-15 0)
(1 1.54435e-15 0)
(1 7.56939e-16 0)
(1 7.82786e-15 0)
(1 2.28669e-15 0)
(1 -6.27687e-16 0)
(1 -8.0987e-16 0)
(1 5.64238e-15 0)
(1 -1.11089e-15 0)
(1 2.17794e-15 0)
(1 1.29771e-16 0)
(1 2.46141e-15 0)
(1 4.25097e-15 0)
(1 7.83497e-15 0)
(1 4.00495e-15 0)
(1 2.40818e-15 0)
(1 4.83464e-15 0)
(1 6.69798e-15 0)
(1 3.54963e-15 0)
(1 1.5163e-15 0)
(1 -9.76739e-16 0)
(1 4.5059e-15 0)
(1 3.93952e-15 0)
(1 3.68292e-15 0)
(1 2.58945e-15 0)
(1 3.05488e-15 0)
(1 1.04402e-14 0)
(1 8.47438e-15 0)
(1 4.68533e-15 0)
(1 8.79386e-16 0)
(1 3.75677e-17 0)
(1 1.5347e-15 0)
(1 -2.22982e-15 0)
(1 1.92267e-15 0)
(1 6.32948e-15 0)
(1 1.30282e-15 0)
(1 5.30681e-15 0)
(1 2.18569e-15 0)
(1 -1.0904e-15 0)
(1 6.27736e-16 0)
(1 7.65709e-16 0)
(1 2.98868e-15 0)
(1 7.5383e-16 0)
(1 4.53023e-16 0)
(1 3.48488e-16 0)
(1 2.28596e-15 0)
(1 1.41602e-15 0)
(1 6.97924e-16 0)
(1 4.84935e-15 0)
(1 5.97721e-15 0)
(1 1.25268e-14 0)
(1 9.50056e-16 0)
(1 -2.03028e-15 0)
(1 4.60323e-15 0)
(1 -7.67664e-15 0)
(1 -4.41826e-15 0)
(1 -9.08101e-15 0)
(1 1.68939e-16 0)
(1 3.08115e-15 0)
(1 -1.15091e-14 0)
(1 3.60941e-15 0)
(1 -2.71963e-16 0)
(1 3.74304e-15 0)
(1 4.09258e-15 0)
(1 9.25626e-15 0)
(1 2.58033e-15 0)
(1 5.86089e-15 0)
(1 3.22347e-16 0)
(1 8.09428e-15 0)
(1 1.13354e-14 0)
(1 3.54383e-15 0)
(1 -1.17945e-14 0)
(1 5.84393e-15 0)
(1 -1.6289e-16 0)
(1 1.20268e-15 0)
(1 2.29231e-15 0)
(1 -1.66897e-15 0)
(1 -4.33264e-15 0)
(1 3.35559e-15 0)
(1 -9.03659e-15 0)
(1 1.93904e-15 0)
(1 -1.03821e-14 0)
(1 -7.60005e-15 0)
(1 -1.83901e-15 0)
(1 1.05868e-14 0)
(1 6.35152e-15 0)
(1 2.29066e-15 0)
(1 3.15809e-15 0)
(1 6.48415e-16 0)
(1 2.64059e-15 0)
(1 -7.64448e-16 0)
(1 -2.89041e-15 0)
(1 8.2207e-15 0)
(1 5.63319e-15 0)
(1 9.46751e-15 0)
(1 1.50171e-14 0)
(1 1.54703e-14 0)
(1 2.85715e-15 0)
(1 -1.54403e-15 0)
(1 -4.14845e-15 0)
(1 -6.93924e-15 0)
(1 -6.15476e-15 0)
(1 2.86748e-15 0)
(1 3.49168e-15 0)
(1 2.84091e-15 0)
(1 -3.68714e-16 0)
(1 -5.51133e-15 0)
(1 1.97604e-15 0)
(1 9.22695e-15 0)
(1 6.85776e-15 0)
(1 4.2163e-15 0)
(1 5.58804e-16 0)
(1 7.27957e-15 0)
(1 -9.75879e-15 0)
(1 5.87253e-16 0)
(1 2.78438e-15 0)
(1 1.37635e-14 0)
(1 1.4859e-14 0)
(1 1.74074e-14 0)
(1 1.56393e-14 0)
(1 1.53875e-14 0)
(1 6.77544e-15 0)
(1 5.49771e-15 0)
(1 1.07852e-15 0)
(1 1.74699e-16 0)
(1 -7.47449e-15 0)
(1 -2.32055e-15 0)
(1 2.20862e-15 0)
(1 2.47665e-15 0)
(1 -1.88999e-15 0)
(1 7.92779e-15 0)
(1 3.9483e-15 0)
(1 1.08944e-14 0)
(1 8.36842e-15 0)
(1 5.42057e-15 0)
(1 -2.13447e-15 0)
(1 -6.62028e-15 0)
(1 -4.13313e-15 0)
(1 6.85666e-16 0)
(1 4.70806e-15 0)
(1 1.31036e-15 0)
(1 4.4185e-15 0)
(1 2.00441e-15 0)
(1 4.49778e-15 0)
(1 4.63866e-15 0)
(1 9.95481e-15 0)
(1 5.81944e-15 0)
(1 1.00925e-14 0)
(1 1.2785e-14 0)
(1 1.86339e-14 0)
(1 1.92337e-14 0)
(1 9.2108e-16 0)
(1 2.19686e-15 0)
(1 6.10895e-15 0)
(1 -1.69542e-15 0)
(1 -8.78037e-15 0)
(1 -3.20616e-16 0)
(1 -3.58953e-16 0)
(1 3.77854e-15 0)
(1 -4.03595e-15 0)
(1 3.50248e-15 0)
(1 3.73454e-15 0)
(1 6.04319e-15 0)
(1 7.4909e-15 0)
(1 -1.5639e-15 0)
(1 6.05049e-16 0)
(1 -2.47858e-15 0)
(1 1.89457e-15 0)
(1 3.11277e-15 0)
(1 -2.002e-15 0)
(1 -8.36951e-15 0)
(1 -8.66737e-15 0)
(1 2.03158e-15 0)
(1 9.98471e-15 0)
(1 1.05628e-15 0)
(1 4.79058e-15 0)
(1 1.07244e-15 0)
(1 7.02596e-15 0)
(1 -9.69383e-16 0)
(1 4.46403e-16 0)
(1 -5.78356e-16 0)
(1 -5.6529e-15 0)
(1 -9.16401e-15 0)
(1 -2.58981e-15 0)
(1 1.93281e-16 0)
(1 -4.57024e-15 0)
(1 1.79789e-15 0)
(1 7.38283e-16 0)
(1 1.42209e-15 0)
(1 -4.04326e-15 0)
(1 3.70555e-15 0)
(1 1.36176e-15 0)
(1 9.84649e-15 0)
(1 5.29938e-15 0)
(1 6.40095e-15 0)
(1 3.95191e-15 0)
(1 4.67393e-15 0)
(1 5.67775e-17 0)
(1 -6.27641e-15 0)
(1 1.98674e-15 0)
(1 1.37788e-15 0)
(1 7.09573e-15 0)
(1 6.80713e-15 0)
(1 2.31529e-15 0)
(1 2.11649e-15 0)
(1 6.22384e-15 0)
(1 3.33162e-15 0)
(1 -1.79951e-15 0)
(1 7.37518e-15 0)
(1 2.32371e-15 0)
(1 7.31919e-15 0)
(1 2.64083e-15 0)
(1 6.78155e-15 0)
(1 7.71992e-15 0)
(1 7.85802e-15 0)
(1 8.19993e-15 0)
(1 3.73383e-15 0)
(1 8.78848e-15 0)
(1 9.69581e-15 0)
(1 1.27097e-14 0)
(1 9.65618e-15 0)
(1 -1.75004e-16 0)
(1 5.31319e-15 0)
(1 -1.62402e-15 0)
(1 1.94012e-15 0)
(1 1.87921e-15 0)
(1 4.67247e-15 0)
(1 5.81921e-15 0)
(1 5.42826e-15 0)
(1 5.82916e-15 0)
(1 5.89019e-15 0)
(1 2.96087e-15 0)
(1 7.0167e-15 0)
(1 3.75505e-15 0)
(1 -1.05099e-15 0)
(1 5.64447e-16 0)
(1 -3.81022e-15 0)
(1 3.46038e-15 0)
(1 1.0237e-15 0)
(1 2.74671e-15 0)
(1 -6.9156e-16 0)
(1 1.02367e-14 0)
(1 1.72782e-15 0)
(1 4.81342e-15 0)
(1 3.74565e-15 0)
(1 1.01637e-14 0)
(1 3.80967e-15 0)
(1 1.05966e-14 0)
(1 1.43709e-14 0)
(1 2.57617e-14 0)
(1 2.04206e-14 0)
(1 -7.57476e-16 0)
(1 1.19561e-15 0)
(1 -7.02048e-16 0)
(1 2.08505e-15 0)
(1 -5.69927e-15 0)
(1 -2.38152e-15 0)
(1 9.01087e-16 0)
(1 -4.05113e-15 0)
(1 2.13863e-15 0)
(1 -6.47667e-15 0)
(1 -9.46692e-15 0)
(1 7.66458e-16 0)
(1 3.83252e-15 0)
(1 -4.29782e-15 0)
(1 6.32156e-15 0)
(1 1.43916e-15 0)
(1 1.07598e-14 0)
(1 -1.16701e-15 0)
(1 -3.40349e-15 0)
(1 -1.51919e-15 0)
(1 5.44488e-15 0)
(1 -2.84945e-16 0)
(1 -2.64305e-15 0)
(1 -8.49594e-15 0)
(1 -5.49736e-15 0)
(1 7.03521e-16 0)
(1 1.37409e-14 0)
(1 6.8863e-15 0)
(1 9.55902e-15 0)
(1 -6.20459e-16 0)
(1 -3.90618e-15 0)
(1 -1.28747e-14 0)
(1 -8.12209e-15 0)
(1 -2.17222e-15 0)
(1 6.46582e-15 0)
(1 9.55287e-15 0)
(1 3.73321e-15 0)
(1 1.44863e-15 0)
(1 -2.51408e-15 0)
(1 1.96926e-15 0)
(1 1.48498e-14 0)
(1 1.51137e-15 0)
(1 4.52348e-15 0)
(1 -3.31781e-15 0)
(1 1.83341e-15 0)
(1 -1.28241e-15 0)
(1 2.38652e-15 0)
(1 -2.76309e-15 0)
(1 4.66258e-15 0)
(1 7.30261e-15 0)
(1 5.53415e-15 0)
(1 3.74544e-15 0)
(1 5.98819e-15 0)
(1 -1.66682e-15 0)
(1 7.1832e-15 0)
(1 3.90878e-15 0)
(1 6.12014e-15 0)
(1 1.86735e-15 0)
(1 8.09e-15 0)
(1 7.49568e-16 0)
(1 9.55859e-15 0)
(1 -1.75964e-15 0)
(1 1.08651e-14 0)
(1 3.92487e-16 0)
(1 4.70583e-15 0)
(1 2.8387e-15 0)
(1 1.42881e-14 0)
(1 7.79408e-15 0)
(1 1.13257e-14 0)
(1 3.91391e-15 0)
(1 1.10179e-14 0)
(1 3.01754e-15 0)
(1 7.42763e-16 0)
(1 -4.7445e-15 0)
(1 -1.69427e-15 0)
(1 4.80212e-15 0)
(1 1.19746e-14 0)
(1 7.18516e-15 0)
(1 8.00391e-15 0)
(1 -1.44246e-15 0)
(1 5.84918e-15 0)
(1 2.47697e-15 0)
(1 1.01564e-14 0)
(1 2.53305e-15 0)
(1 -1.43642e-15 0)
(1 5.16741e-15 0)
(1 5.40579e-15 0)
(1 1.57757e-15 0)
(1 3.52721e-15 0)
(1 -1.88394e-15 0)
(1 4.07481e-15 0)
(1 4.84784e-15 0)
(1 3.29344e-15 0)
(1 1.26796e-17 0)
(1 1.33491e-15 0)
(1 4.56744e-15 0)
(1 1.16624e-14 0)
(1 1.6179e-14 0)
(1 1.42582e-14 0)
(1 1.12817e-14 0)
(1 3.07306e-15 0)
(1 -4.93132e-15 0)
(1 3.36909e-15 0)
(1 -2.02566e-15 0)
(1 -2.35195e-15 0)
(1 -8.75216e-15 0)
(1 -5.51782e-15 0)
(1 -1.69265e-15 0)
(1 2.22516e-15 0)
(1 1.34712e-14 0)
(1 7.14742e-15 0)
(1 4.57864e-15 0)
(1 -2.77266e-15 0)
(1 -4.26147e-15 0)
(1 -1.32172e-15 0)
(1 3.92815e-15 0)
(1 5.84796e-15 0)
(1 -7.95339e-15 0)
(1 -8.34273e-15 0)
(1 -3.87286e-16 0)
(1 -1.17315e-15 0)
(1 1.07279e-16 0)
(1 -3.33091e-15 0)
(1 8.33904e-15 0)
(1 7.60352e-15 0)
(1 3.2025e-15 0)
(1 -2.34663e-15 0)
(1 -1.57893e-16 0)
(1 6.95854e-15 0)
(1 8.46398e-15 0)
(1 2.62874e-15 0)
(1 -2.84741e-15 0)
(1 -7.15011e-15 0)
(1 -1.16507e-14 0)
(1 7.17363e-16 0)
(1 -7.89377e-16 0)
(1 -1.91619e-15 0)
(1 -5.85058e-15 0)
(1 1.67904e-15 0)
(1 -1.27121e-15 0)
(1 7.97711e-15 0)
(1 -3.33269e-15 0)
(1 -3.07506e-15 0)
(1 -1.13697e-14 0)
(1 5.79838e-15 0)
(1 1.04922e-14 0)
(1 1.7655e-14 0)
(1 9.66496e-15 0)
(1 4.04102e-15 0)
(1 1.40519e-15 0)
(1 -3.73602e-15 0)
(1 1.02621e-15 0)
(1 3.26605e-15 0)
(1 9.06495e-15 0)
(1 9.95389e-15 0)
(1 5.82536e-15 0)
(1 4.21822e-15 0)
(1 4.63286e-15 0)
(1 4.97298e-15 0)
(1 -1.12183e-15 0)
(1 2.13312e-15 0)
(1 9.67558e-15 0)
(1 5.71489e-15 0)
(1 2.7372e-15 0)
(1 8.68254e-17 0)
(1 1.26662e-15 0)
(1 5.9904e-15 0)
(1 6.16968e-15 0)
(1 4.34562e-15 0)
(1 6.26006e-15 0)
(1 1.08907e-14 0)
(1 6.9612e-15 0)
(1 -2.81411e-16 0)
(1 1.00804e-15 0)
(1 5.11735e-15 0)
(1 1.84281e-15 0)
(1 7.14123e-15 0)
(1 7.17e-15 0)
(1 9.04433e-15 0)
(1 2.38904e-15 0)
(1 9.96852e-15 0)
(1 1.12851e-14 0)
(1 9.74654e-15 0)
(1 5.1373e-15 0)
(1 -4.69522e-15 0)
(1 -1.67234e-15 0)
(1 6.25553e-16 0)
(1 -6.68682e-16 0)
(1 3.77388e-15 0)
(1 -2.36851e-16 0)
(1 1.15971e-15 0)
(1 9.24306e-15 0)
(1 4.76698e-15 0)
(1 5.45748e-15 0)
(1 3.27092e-15 0)
(1 1.55481e-14 0)
(1 1.24757e-14 0)
(1 1.36402e-14 0)
(1 1.9959e-15 0)
(1 4.59565e-15 0)
(1 4.39178e-15 0)
(1 1.10377e-15 0)
(1 -1.55486e-15 0)
(1 -1.24705e-15 0)
(1 -2.49105e-15 0)
(1 3.2539e-15 0)
(1 2.96313e-15 0)
(1 4.73882e-16 0)
(1 -3.76427e-15 0)
(1 6.87763e-15 0)
(1 1.25243e-14 0)
(1 7.39413e-15 0)
(1 -4.41776e-15 0)
(1 9.22144e-16 0)
(1 -1.55506e-15 0)
(1 1.03857e-15 0)
(1 -5.25796e-15 0)
(1 -9.79691e-15 0)
(1 -2.11027e-15 0)
(1 2.61682e-15 0)
(1 1.15485e-15 0)
(1 -1.11525e-14 0)
(1 -6.15922e-16 0)
(1 -7.89903e-15 0)
(1 7.9775e-15 0)
(1 9.19753e-15 0)
(1 -1.46424e-15 0)
(1 -5.07554e-15 0)
(1 -2.4056e-15 0)
(1 -5.49041e-18 0)
(1 -1.1997e-15 0)
(1 -6.29261e-16 0)
(1 -4.82196e-15 0)
(1 -5.97345e-15 0)
(1 2.66781e-16 0)
(1 5.13814e-15 0)
(1 7.41253e-15 0)
(1 2.95952e-15 0)
(1 1.89517e-15 0)
(1 5.65995e-16 0)
(1 -1.2319e-14 0)
(1 -1.60191e-15 0)
(1 -4.82759e-15 0)
(1 8.15591e-16 0)
(1 6.49067e-16 0)
(1 6.71577e-15 0)
(1 6.28145e-15 0)
(1 1.12238e-14 0)
(1 6.17778e-15 0)
(1 3.63787e-15 0)
(1 1.12322e-15 0)
(1 -1.2464e-15 0)
(1 2.93611e-15 0)
(1 5.23589e-15 0)
(1 8.46445e-15 0)
(1 1.98963e-15 0)
(1 2.10632e-15 0)
(1 4.2885e-15 0)
(1 -8.2577e-17 0)
(1 -3.02481e-15 0)
(1 -2.85757e-15 0)
(1 1.03913e-14 0)
(1 1.73688e-14 0)
(1 1.56311e-14 0)
(1 1.1686e-14 0)
(1 1.50607e-15 0)
(1 -5.44837e-15 0)
(1 -4.31034e-15 0)
(1 -3.87996e-15 0)
(1 5.44025e-15 0)
(1 3.1211e-15 0)
(1 6.1954e-15 0)
(1 4.77165e-15 0)
(1 1.09657e-14 0)
(1 1.06492e-14 0)
(1 4.28684e-15 0)
(1 -2.77989e-15 0)
(1 4.07288e-15 0)
(1 4.61858e-15 0)
(1 7.0928e-15 0)
(1 4.61389e-15 0)
(1 5.84453e-15 0)
(1 2.19979e-15 0)
(1 3.8698e-15 0)
(1 4.19464e-15 0)
(1 3.0527e-15 0)
(1 4.30453e-16 0)
(1 9.8701e-16 0)
(1 -2.71088e-15 0)
(1 2.74445e-15 0)
(1 3.18534e-15 0)
(1 2.6171e-15 0)
(1 4.021e-15 0)
(1 4.69977e-15 0)
(1 2.90913e-15 0)
(1 1.05349e-14 0)
(1 4.97823e-15 0)
(1 7.23579e-15 0)
(1 4.25545e-15 0)
(1 6.29259e-15 0)
(1 -4.5008e-15 0)
(1 9.80845e-15 0)
(1 -2.80299e-15 0)
(1 -3.85062e-15 0)
(1 1.78214e-15 0)
(1 4.28154e-15 0)
(1 3.23737e-15 0)
(1 6.14659e-15 0)
(1 1.81403e-15 0)
(1 -6.71829e-15 0)
(1 -2.75411e-15 0)
(1 7.36216e-15 0)
(1 4.73795e-15 0)
(1 9.67135e-15 0)
(1 3.51855e-16 0)
(1 -1.02222e-14 0)
(1 -1.39116e-14 0)
(1 -3.12011e-15 0)
(1 7.08932e-15 0)
(1 -2.96944e-15 0)
(1 1.62759e-15 0)
(1 -1.21577e-14 0)
(1 -4.40101e-15 0)
(1 -6.08375e-15 0)
(1 3.61166e-15 0)
(1 -1.46543e-15 0)
(1 1.69744e-15 0)
(1 -3.42727e-15 0)
(1 -3.79533e-15 0)
(1 1.18902e-15 0)
(1 -3.45733e-15 0)
(1 -1.08403e-15 0)
(1 -2.48421e-16 0)
(1 5.0974e-16 0)
(1 1.32187e-14 0)
(1 1.06905e-14 0)
(1 6.12981e-15 0)
(1 3.4513e-16 0)
(1 -2.09662e-15 0)
(1 -2.99565e-15 0)
(1 -1.25134e-14 0)
(1 -4.8496e-15 0)
(1 -5.91775e-15 0)
(1 1.39701e-14 0)
(1 6.31529e-15 0)
(1 4.9111e-15 0)
(1 -1.7295e-16 0)
(1 4.4978e-15 0)
(1 6.09411e-15 0)
(1 -8.24394e-16 0)
(1 -5.99658e-16 0)
(1 -5.07174e-15 0)
(1 4.62005e-15 0)
(1 -1.62385e-15 0)
(1 3.27784e-15 0)
(1 5.88686e-15 0)
(1 1.21221e-14 0)
(1 1.10204e-14 0)
(1 1.05084e-14 0)
(1 4.18126e-15 0)
(1 1.93991e-15 0)
(1 -1.69542e-15 0)
(1 7.49294e-16 0)
(1 8.30047e-15 0)
(1 1.22486e-14 0)
(1 1.1234e-14 0)
(1 2.17913e-15 0)
(1 4.29021e-15 0)
(1 5.71786e-15 0)
(1 1.78042e-15 0)
(1 2.51067e-15 0)
(1 1.61201e-15 0)
(1 1.07145e-14 0)
(1 1.42496e-14 0)
(1 4.15718e-15 0)
(1 1.17222e-14 0)
(1 8.07008e-15 0)
(1 6.08264e-15 0)
(1 6.83316e-15 0)
(1 1.00489e-14 0)
(1 1.97786e-15 0)
(1 3.55081e-15 0)
(1 1.20257e-15 0)
(1 5.57701e-15 0)
(1 6.51714e-15 0)
(1 6.2253e-15 0)
(1 -4.01042e-15 0)
(1 1.75974e-15 0)
(1 2.36892e-15 0)
(1 6.78578e-15 0)
(1 -1.07493e-16 0)
(1 1.75639e-15 0)
(1 4.37455e-15 0)
(1 8.63989e-15 0)
(1 3.45527e-15 0)
(1 3.21868e-15 0)
(1 6.14916e-15 0)
(1 9.58326e-15 0)
(1 1.32022e-14 0)
(1 8.71428e-15 0)
(1 5.90512e-16 0)
(1 3.29462e-15 0)
(1 6.76287e-15 0)
(1 5.65044e-15 0)
(1 5.5156e-15 0)
(1 -3.03175e-15 0)
(1 -1.13139e-14 0)
(1 -7.76423e-15 0)
(1 1.87209e-15 0)
(1 7.79339e-15 0)
(1 8.58941e-16 0)
(1 2.70889e-15 0)
(1 2.41609e-15 0)
(1 6.09553e-16 0)
(1 -9.47326e-15 0)
(1 -6.64584e-15 0)
(1 -2.13113e-14 0)
(1 -2.06309e-15 0)
(1 -1.01546e-15 0)
(1 -9.93546e-15 0)
(1 -2.3305e-15 0)
(1 4.64576e-15 0)
(1 2.10924e-15 0)
(1 1.42765e-14 0)
(1 5.55713e-15 0)
(1 3.8461e-15 0)
(1 5.22636e-16 0)
(1 -2.15678e-15 0)
(1 -2.26813e-15 0)
(1 2.58633e-16 0)
(1 -2.4633e-15 0)
(1 2.83804e-15 0)
(1 -7.43281e-16 0)
(1 -8.95535e-15 0)
(1 -2.72364e-15 0)
(1 -1.77668e-15 0)
(1 5.29501e-16 0)
(1 1.08152e-15 0)
(1 1.83843e-15 0)
(1 3.29892e-15 0)
(1 4.65294e-15 0)
(1 1.41977e-15 0)
(1 -4.58369e-15 0)
(1 3.2696e-15 0)
(1 4.07812e-15 0)
(1 1.4425e-14 0)
(1 2.48805e-15 0)
(1 -4.72696e-15 0)
(1 2.75294e-15 0)
(1 -9.05006e-17 0)
(1 1.93389e-15 0)
(1 7.79694e-15 0)
(1 2.24608e-15 0)
(1 3.17329e-16 0)
(1 -3.3446e-15 0)
(1 4.36384e-15 0)
(1 5.79203e-15 0)
(1 5.52427e-15 0)
(1 5.3764e-15 0)
(1 8.52262e-15 0)
(1 9.3402e-15 0)
(1 5.74916e-15 0)
(1 3.93191e-15 0)
(1 7.46293e-15 0)
(1 6.89444e-15 0)
(1 5.11235e-15 0)
(1 7.26386e-15 0)
(1 1.11319e-14 0)
(1 1.11474e-14 0)
(1 7.63929e-15 0)
(1 4.51687e-16 0)
(1 4.87539e-15 0)
(1 7.68066e-15 0)
(1 1.0314e-14 0)
(1 1.0572e-14 0)
(1 1.44659e-14 0)
(1 1.08835e-14 0)
(1 1.6781e-15 0)
(1 7.79776e-15 0)
(1 9.03153e-15 0)
(1 5.04531e-15 0)
(1 3.52742e-15 0)
(1 2.82212e-15 0)
(1 5.81154e-15 0)
(1 5.20156e-15 0)
(1 -1.02525e-15 0)
(1 -6.2969e-15 0)
(1 -5.95387e-15 0)
(1 3.80931e-16 0)
(1 -8.0456e-17 0)
(1 2.70131e-15 0)
(1 2.91806e-15 0)
(1 6.1006e-15 0)
(1 7.12583e-15 0)
(1 1.05786e-14 0)
(1 7.23722e-15 0)
(1 8.5027e-15 0)
(1 9.07294e-15 0)
(1 1.10887e-14 0)
(1 1.08803e-14 0)
(1 -2.08508e-15 0)
(1 -2.85929e-16 0)
(1 -1.31292e-15 0)
(1 6.06768e-15 0)
(1 1.00061e-15 0)
(1 4.7254e-15 0)
(1 8.07441e-15 0)
(1 7.33658e-15 0)
(1 5.09802e-17 0)
(1 1.26982e-15 0)
(1 -8.87568e-15 0)
(1 -9.73672e-15 0)
(1 -4.5165e-16 0)
(1 -5.9934e-15 0)
(1 2.31777e-15 0)
(1 8.97376e-16 0)
(1 -1.45042e-15 0)
(1 -1.3455e-14 0)
(1 -1.02828e-14 0)
(1 -6.22532e-15 0)
(1 -2.96384e-15 0)
(1 1.09281e-14 0)
(1 1.86867e-15 0)
(1 -2.49879e-15 0)
(1 -1.25888e-14 0)
(1 -6.49189e-15 0)
(1 -6.39108e-15 0)
(1 4.24965e-15 0)
(1 6.24488e-16 0)
(1 -5.49408e-15 0)
(1 5.47909e-15 0)
(1 1.93627e-15 0)
(1 6.79213e-15 0)
(1 7.09567e-15 0)
(1 -1.54396e-15 0)
(1 5.39355e-15 0)
(1 6.738e-15 0)
(1 2.68641e-15 0)
(1 2.17064e-15 0)
(1 -1.90585e-16 0)
(1 6.44748e-15 0)
(1 8.70592e-15 0)
(1 6.42002e-15 0)
(1 -6.92752e-15 0)
(1 -1.20904e-14 0)
(1 -7.52627e-15 0)
(1 1.3871e-16 0)
(1 -1.71679e-15 0)
(1 -1.24174e-15 0)
(1 3.35069e-15 0)
(1 7.51709e-15 0)
(1 6.83155e-15 0)
(1 1.861e-15 0)
(1 -1.68898e-15 0)
(1 6.22571e-16 0)
(1 3.87974e-15 0)
(1 9.61254e-15 0)
(1 3.59499e-15 0)
(1 1.34725e-15 0)
(1 1.77846e-15 0)
(1 8.32371e-16 0)
(1 -5.58712e-15 0)
(1 7.80503e-15 0)
(1 3.20335e-15 0)
(1 2.71622e-15 0)
(1 3.09211e-15 0)
(1 8.21121e-15 0)
(1 5.31401e-15 0)
(1 8.50958e-15 0)
(1 3.41226e-15 0)
(1 6.38928e-15 0)
(1 4.95283e-15 0)
(1 9.02818e-15 0)
(1 6.75191e-15 0)
(1 1.42424e-14 0)
(1 5.08077e-15 0)
(1 4.21232e-15 0)
(1 6.76788e-15 0)
(1 9.92177e-15 0)
(1 5.8252e-15 0)
(1 -1.7143e-15 0)
(1 1.184e-15 0)
(1 3.06977e-15 0)
(1 5.89798e-15 0)
(1 9.38578e-16 0)
(1 -4.7262e-15 0)
(1 -3.1548e-15 0)
(1 -4.93452e-15 0)
(1 -4.40672e-16 0)
(1 2.73403e-15 0)
(1 8.81662e-15 0)
(1 5.8536e-15 0)
(1 1.04747e-14 0)
(1 3.88885e-15 0)
(1 6.40452e-15 0)
(1 8.43746e-15 0)