/*--------------------------------*- C++ -*----------------------------------*\
| =========                 |                                                 |
| \\      /  F ield         | OpenFOAM: The Open Source CFD Toolbox           |
|  \\    /   O peration     | Version:  v2012                                 |
|   \\  /    A nd           | Website:  www.openfoam.com                      |
|    \\/     M anipulation  |                                                 |
\*---------------------------------------------------------------------------*/
FoamFile
{
    version     2.0;
    format      ascii;
    class       volVectorField;
    location    "0";
    object      uRec;
}
// * * * * * * * * * * * * * * * * * * * * * * * * * * * * * * * * * * * * * //

dimensions      [0 1 -1 0 0 0 0];


internalField   nonuniform List<vector> 
4000
(
(1 6.14513e-16 0)
(1 2.69436e-15 0)
(1 -2.37609e-15 0)
(1 -5.6737e-16 0)
(1 1.72306e-15 0)
(1 -8.72686e-16 0)
(1 3.68243e-15 0)
(1 -3.10536e-15 0)
(1 4.02488e-15 0)
(1 2.05523e-15 0)
(1 -4.95596e-15 0)
(1 2.26523e-16 0)
(1 1.26901e-15 0)
(1 7.60255e-16 0)
(1 -7.65006e-16 0)
(1 8.11827e-16 0)
(1 -2.89673e-15 0)
(1 -2.57714e-15 0)
(1 1.77641e-15 0)
(1 1.28015e-15 0)
(1 2.55922e-16 0)
(1 2.786e-15 0)
(1 -5.18885e-16 0)
(1 3.08797e-15 0)
(1 -2.12386e-16 0)
(1 -1.5276e-15 0)
(1 2.16741e-15 0)
(1 -2.82289e-15 0)
(1 3.73793e-16 0)
(1 -5.74713e-16 0)
(1 1.93353e-15 0)
(1 2.90995e-15 0)
(1 -1.80393e-15 0)
(1 -1.55828e-15 0)
(1 -5.13604e-17 0)
(1 -2.72515e-15 0)
(1 -1.9686e-15 0)
(1 9.35122e-16 0)
(1 3.3611e-15 0)
(1 -6.16166e-16 0)
(1 2.1793e-15 0)
(1 -3.03659e-15 0)
(1 -1.42846e-15 0)
(1 6.35038e-16 0)
(1 2.39125e-15 0)
(1 -2.43444e-15 0)
(1 1.97742e-15 0)
(1 -1.10716e-16 0)
(1 -6.84306e-16 0)
(1 -4.63641e-16 0)
(1 -1.79615e-15 0)
(1 1.00603e-15 0)
(1 -2.12905e-16 0)
(1 3.78706e-15 0)
(1 1.80856e-15 0)
(1 9.34644e-16 0)
(1 3.36849e-16 0)
(1 -9.33148e-16 0)
(1 1.22911e-15 0)
(1 2.59295e-15 0)
(1 -1.0277e-15 0)
(1 -2.86637e-15 0)
(1 -1.3048e-15 0)
(1 1.2804e-15 0)
(1 8.05787e-16 0)
(1 5.80247e-16 0)
(1 1.33863e-16 0)
(1 -7.96462e-16 0)
(1 1.25852e-15 0)
(1 -1.30233e-15 0)
(1 -9.18874e-16 0)
(1 5.549e-16 0)
(1 -4.58142e-16 0)
(1 -5.91281e-16 0)
(1 -1.71117e-15 0)
(1 -2.64531e-15 0)
(1 -5.39901e-16 0)
(1 -4.91216e-16 0)
(1 7.35878e-16 0)
(1 9.90069e-16 0)
(1 8.46649e-16 0)
(1 2.50656e-15 0)
(1 -1.63965e-15 0)
(1 2.80797e-16 0)
(1 -1.63665e-15 0)
(1 -2.1742e-15 0)
(1 1.47401e-16 0)
(1 6.45256e-16 0)
(1 1.47218e-15 0)
(1 6.91151e-16 0)
(1 -1.17863e-16 0)
(1 -1.38403e-15 0)
(1 1.23766e-15 0)
(1 2.2214e-15 0)
(1 -1.08281e-15 0)
(1 -2.55792e-15 0)
(1 3.64626e-16 0)
(1 1.64499e-15 0)
(1 -5.83504e-16 0)
(1 -2.2293e-16 0)
(1 3.76249e-16 0)
(1 5.65406e-15 0)
(1 -2.77252e-15 0)
(1 -2.142e-15 0)
(1 -9.481e-16 0)
(1 8.66082e-16 0)
(1 3.60179e-15 0)
(1 -3.00393e-15 0)
(1 4.30006e-15 0)
(1 1.89769e-15 0)
(1 -1.61624e-15 0)
(1 -5.50254e-16 0)
(1 2.36098e-16 0)
(1 -1.59166e-15 0)
(1 -2.08043e-15 0)
(1 3.64218e-15 0)
(1 -1.52144e-15 0)
(1 -1.85075e-15 0)
(1 1.87756e-15 0)
(1 7.41068e-16 0)
(1 -4.08871e-16 0)
(1 -1.44212e-16 0)
(1 -1.61114e-15 0)
(1 1.11045e-15 0)
(1 1.21275e-16 0)
(1 1.77341e-17 0)
(1 5.43649e-15 0)
(1 -4.13494e-15 0)
(1 -6.18879e-16 0)
(1 1.27048e-15 0)
(1 -4.25143e-16 0)
(1 3.61424e-15 0)
(1 -3.48149e-15 0)
(1 -2.29722e-15 0)
(1 1.28089e-15 0)
(1 -2.76082e-15 0)
(1 2.59977e-16 0)
(1 4.47636e-15 0)
(1 1.79345e-15 0)
(1 -2.21228e-15 0)
(1 -2.15351e-15 0)
(1 -4.40089e-15 0)
(1 -4.02974e-15 0)
(1 -1.13378e-15 0)
(1 8.91545e-16 0)
(1 -2.01826e-15 0)
(1 4.70684e-15 0)
(1 4.0505e-15 0)
(1 3.70717e-15 0)
(1 1.43408e-15 0)
(1 -4.02934e-16 0)
(1 -9.5161e-16 0)
(1 2.31639e-15 0)
(1 1.34642e-15 0)
(1 8.68401e-16 0)
(1 -1.05516e-15 0)
(1 1.11785e-15 0)
(1 3.06005e-15 0)
(1 1.56275e-15 0)
(1 -1.80233e-15 0)
(1 4.09736e-17 0)
(1 1.84246e-16 0)
(1 -1.10109e-15 0)
(1 1.11061e-15 0)
(1 -5.75371e-16 0)
(1 2.19761e-15 0)
(1 -3.08185e-15 0)
(1 -2.73434e-15 0)
(1 1.68115e-15 0)
(1 -1.45065e-15 0)
(1 -1.94924e-15 0)
(1 -1.77708e-16 0)
(1 1.78279e-15 0)
(1 -1.26637e-15 0)
(1 2.14911e-16 0)
(1 -6.95774e-16 0)
(1 8.05518e-16 0)
(1 2.19878e-15 0)
(1 -4.90275e-17 0)
(1 1.95418e-15 0)
(1 4.67939e-16 0)
(1 2.16821e-15 0)
(1 1.79316e-15 0)
(1 -1.86884e-15 0)
(1 -4.09811e-16 0)
(1 -3.02998e-15 0)
(1 -2.1911e-15 0)
(1 -7.82419e-16 0)
(1 1.11313e-15 0)
(1 2.45142e-15 0)
(1 1.52727e-16 0)
(1 -2.07485e-15 0)
(1 3.5634e-15 0)
(1 2.54516e-15 0)
(1 -4.00615e-15 0)
(1 -2.93757e-15 0)
(1 1.58648e-15 0)
(1 2.02515e-16 0)
(1 -1.65203e-15 0)
(1 -1.21296e-15 0)
(1 -1.54241e-16 0)
(1 3.34893e-15 0)
(1 -3.6141e-16 0)
(1 -1.90886e-15 0)
(1 -9.84093e-16 0)
(1 1.31129e-15 0)
(1 3.34573e-15 0)
(1 7.22101e-15 0)
(1 -2.74945e-15 0)
(1 -2.4025e-15 0)
(1 1.17481e-15 0)
(1 3.17523e-15 0)
(1 1.93191e-15 0)
(1 -1.70859e-15 0)
(1 -1.03277e-15 0)
(1 9.84021e-16 0)
(1 2.42304e-15 0)
(1 2.55508e-15 0)
(1 -9.41354e-16 0)
(1 1.27139e-15 0)
(1 -7.06164e-16 0)
(1 -3.98521e-15 0)
(1 -2.35526e-15 0)
(1 -1.8537e-15 0)
(1 3.94506e-15 0)
(1 3.98022e-15 0)
(1 4.09379e-15 0)
(1 -3.55741e-15 0)
(1 -6.25871e-16 0)
(1 2.48583e-15 0)
(1 8.76112e-16 0)
(1 -2.0965e-15 0)
(1 4.57299e-17 0)
(1 9.55062e-16 0)
(1 -1.51837e-15 0)
(1 -1.30955e-15 0)
(1 -2.99287e-15 0)
(1 2.68692e-15 0)
(1 3.38727e-15 0)
(1 -4.62799e-15 0)
(1 -3.3444e-15 0)
(1 -2.40726e-15 0)
(1 -3.13002e-15 0)
(1 -3.36749e-15 0)
(1 -1.68695e-15 0)
(1 -5.6029e-16 0)
(1 -3.44491e-16 0)
(1 5.70317e-15 0)
(1 6.89217e-15 0)
(1 3.57207e-15 0)
(1 4.19653e-15 0)
(1 3.2749e-16 0)
(1 3.15566e-15 0)
(1 -3.90305e-15 0)
(1 7.9059e-17 0)
(1 -1.72683e-15 0)
(1 2.24546e-15 0)
(1 4.08978e-15 0)
(1 5.62535e-15 0)
(1 1.34414e-16 0)
(1 -1.1448e-15 0)
(1 1.08254e-15 0)
(1 1.18502e-15 0)
(1 -3.32126e-15 0)
(1 -1.56161e-15 0)
(1 -1.51449e-16 0)
(1 -1.7804e-15 0)
(1 9.44869e-17 0)
(1 3.12572e-15 0)
(1 8.1257e-16 0)
(1 1.09102e-15 0)
(1 -7.82503e-17 0)
(1 -1.01985e-15 0)
(1 -4.06431e-15 0)
(1 -7.0932e-16 0)
(1 -2.15366e-16 0)
(1 -1.74171e-16 0)
(1 1.40054e-15 0)
(1 9.04166e-16 0)
(1 -8.18565e-16 0)
(1 -2.61661e-15 0)
(1 -2.38513e-16 0)
(1 3.06116e-15 0)
(1 -1.83222e-15 0)
(1 -2.82252e-16 0)
(1 -7.63205e-16 0)
(1 -3.47135e-15 0)
(1 -1.27042e-15 0)
(1 -8.44959e-16 0)
(1 2.65995e-15 0)
(1 6.05411e-16 0)
(1 9.96834e-17 0)
(1 -6.93506e-16 0)
(1 1.86755e-15 0)
(1 -2.52211e-15 0)
(1 -7.69377e-16 0)
(1 1.97786e-15 0)
(1 -3.37723e-15 0)
(1 -1.5746e-16 0)
(1 -3.39585e-16 0)
(1 4.04378e-17 0)
(1 2.62081e-15 0)
(1 1.65496e-15 0)
(1 -2.9849e-15 0)
(1 1.77278e-15 0)
(1 -2.20474e-15 0)
(1 3.03747e-15 0)
(1 7.13248e-15 0)
(1 -7.8457e-16 0)
(1 -1.04841e-15 0)
(1 -2.27178e-15 0)
(1 5.96735e-15 0)
(1 -1.44336e-15 0)
(1 -2.74163e-16 0)
(1 6.02574e-15 0)
(1 -3.149e-15 0)
(1 2.24022e-15 0)
(1 -1.40394e-15 0)
(1 -4.33998e-15 0)
(1 5.37935e-15 0)
(1 -1.86161e-15 0)
(1 8.29071e-16 0)
(1 -1.46761e-15 0)
(1 -5.74525e-16 0)
(1 6.34382e-15 0)
(1 3.51358e-15 0)
(1 3.34977e-15 0)
(1 -1.66303e-15 0)
(1 3.47279e-16 0)
(1 2.97305e-15 0)
(1 6.5302e-16 0)
(1 -5.97737e-16 0)
(1 2.92084e-16 0)
(1 1.9927e-15 0)
(1 -1.01887e-15 0)
(1 -2.96024e-15 0)
(1 -5.01378e-15 0)
(1 -4.0703e-15 0)
(1 3.10332e-15 0)
(1 -3.89992e-17 0)
(1 1.70151e-15 0)
(1 -1.88489e-15 0)
(1 -4.27174e-15 0)
(1 -2.42239e-15 0)
(1 -7.39114e-16 0)
(1 1.0314e-15 0)
(1 -7.60494e-16 0)
(1 3.8494e-15 0)
(1 4.76226e-15 0)
(1 4.34239e-15 0)
(1 5.29394e-15 0)
(1 1.77911e-15 0)
(1 5.62096e-16 0)
(1 -2.65426e-16 0)
(1 2.07643e-15 0)
(1 3.95196e-16 0)
(1 2.88442e-15 0)
(1 4.91404e-15 0)
(1 4.42288e-15 0)
(1 4.96297e-15 0)
(1 1.88072e-15 0)
(1 -2.8903e-15 0)
(1 -1.87124e-15 0)
(1 -7.63636e-16 0)
(1 -2.39447e-15 0)
(1 -7.25886e-16 0)
(1 -1.19179e-15 0)
(1 4.24639e-15 0)
(1 3.36659e-16 0)
(1 -4.30775e-16 0)
(1 7.33491e-16 0)
(1 -6.66178e-16 0)
(1 -1.7629e-15 0)
(1 -2.961e-15 0)
(1 -3.62607e-15 0)
(1 -4.86796e-16 0)
(1 3.28886e-15 0)
(1 -4.4182e-16 0)
(1 2.58238e-15 0)
(1 1.60741e-15 0)
(1 -4.49085e-15 0)
(1 2.06928e-15 0)
(1 -7.23171e-16 0)
(1 1.01624e-16 0)
(1 -1.71441e-16 0)
(1 -2.94833e-15 0)
(1 -4.20945e-16 0)
(1 -1.73389e-15 0)
(1 3.28122e-17 0)
(1 1.42657e-15 0)
(1 -1.69961e-15 0)
(1 1.25838e-15 0)
(1 -6.34886e-16 0)
(1 1.67142e-15 0)
(1 1.03462e-15 0)
(1 -1.5793e-16 0)
(1 1.42023e-17 0)
(1 1.73536e-16 0)
(1 -2.70247e-15 0)
(1 -2.36837e-15 0)
(1 8.37908e-16 0)
(1 -5.79883e-16 0)
(1 2.82907e-15 0)
(1 -2.21813e-15 0)
(1 -3.78151e-16 0)
(1 2.05926e-15 0)
(1 5.60053e-16 0)
(1 1.42552e-15 0)
(1 6.92318e-15 0)
(1 3.20879e-15 0)
(1 1.56665e-15 0)
(1 3.74688e-15 0)
(1 -1.9498e-15 0)
(1 -3.42144e-15 0)
(1 2.75591e-15 0)
(1 1.42834e-15 0)
(1 5.14826e-15 0)
(1 2.18639e-15 0)
(1 -1.42024e-15 0)
(1 -2.59289e-15 0)
(1 -2.37115e-15 0)
(1 1.25469e-15 0)
(1 2.15892e-15 0)
(1 3.6254e-15 0)
(1 -1.48087e-15 0)
(1 -2.08658e-15 0)
(1 -1.90764e-15 0)
(1 1.18316e-15 0)
(1 4.72851e-16 0)
(1 -1.14443e-15 0)
(1 1.07917e-15 0)
(1 3.15918e-15 0)
(1 -2.49457e-15 0)
(1 3.6633e-15 0)
(1 -3.04067e-15 0)
(1 -5.10827e-15 0)
(1 -1.99965e-15 0)
(1 -3.28582e-15 0)
(1 -5.49068e-16 0)
(1 2.42107e-15 0)
(1 1.09689e-15 0)
(1 -2.19072e-15 0)
(1 -5.36604e-15 0)
(1 -2.41879e-15 0)
(1 -3.42243e-15 0)
(1 2.85107e-15 0)
(1 4.47509e-15 0)
(1 7.37398e-15 0)
(1 4.05483e-15 0)
(1 3.21223e-15 0)
(1 2.26095e-15 0)
(1 -1.14322e-16 0)
(1 -1.24375e-15 0)
(1 2.24405e-15 0)
(1 2.73951e-15 0)
(1 2.3226e-15 0)
(1 1.45265e-15 0)
(1 2.29569e-15 0)
(1 -1.75027e-15 0)
(1 -1.01073e-15 0)
(1 5.09408e-15 0)
(1 -3.07165e-16 0)
(1 6.8218e-16 0)
(1 8.07444e-16 0)
(1 -1.85709e-16 0)
(1 7.17573e-16 0)
(1 8.97075e-16 0)
(1 3.90202e-15 0)
(1 -2.45572e-15 0)
(1 2.27181e-15 0)
(1 -1.45194e-15 0)
(1 -1.561e-15 0)
(1 3.0366e-15 0)
(1 -7.46642e-16 0)
(1 -1.30811e-15 0)
(1 -1.02984e-15 0)
(1 3.78032e-15 0)
(1 2.41699e-15 0)
(1 1.60521e-15 0)
(1 -1.27328e-15 0)
(1 -2.42833e-15 0)
(1 -7.09078e-16 0)
(1 -2.01502e-15 0)
(1 -1.32114e-15 0)
(1 6.2054e-16 0)
(1 -2.30494e-15 0)
(1 5.13416e-16 0)
(1 -1.31269e-15 0)
(1 -1.71047e-15 0)
(1 -6.13602e-16 0)
(1 -1.3044e-15 0)
(1 -8.02394e-16 0)
(1 2.08389e-15 0)
(1 3.18798e-17 0)
(1 2.84843e-15 0)
(1 9.47057e-16 0)
(1 -8.80866e-16 0)
(1 8.6772e-16 0)
(1 -4.25356e-15 0)
(1 -1.5558e-15 0)
(1 9.28425e-17 0)
(1 -3.84518e-15 0)
(1 2.98343e-15 0)
(1 2.9076e-15 0)
(1 -3.31758e-17 0)
(1 2.0339e-15 0)
(1 8.46333e-17 0)
(1 3.03959e-15 0)
(1 4.01804e-15 0)
(1 3.54886e-15 0)
(1 6.21762e-15 0)
(1 1.51143e-15 0)
(1 -1.7251e-15 0)
(1 1.9898e-16 0)
(1 -7.51966e-16 0)
(1 2.53761e-15 0)
(1 -6.1051e-17 0)
(1 1.98304e-15 0)
(1 1.75194e-16 0)
(1 -4.68514e-15 0)
(1 -7.30026e-16 0)
(1 -3.32203e-15 0)
(1 5.9395e-15 0)
(1 3.81971e-15 0)
(1 -1.11188e-15 0)
(1 2.08512e-15 0)
(1 -8.53614e-16 0)
(1 9.92584e-16 0)
(1 -2.45263e-15 0)
(1 -1.10863e-16 0)
(1 -9.52605e-16 0)
(1 1.82727e-15 0)
(1 -3.82482e-16 0)
(1 1.01632e-15 0)
(1 -5.67551e-15 0)
(1 -8.79828e-16 0)
(1 1.23716e-15 0)
(1 1.85513e-15 0)
(1 -1.91649e-15 0)
(1 -8.31593e-16 0)
(1 5.2429e-16 0)
(1 -2.88652e-16 0)
(1 -3.53019e-15 0)
(1 -4.55407e-15 0)
(1 -5.09826e-16 0)
(1 1.69504e-15 0)
(1 1.09589e-15 0)
(1 5.03623e-15 0)
(1 6.4467e-15 0)
(1 4.34512e-15 0)
(1 7.21427e-17 0)
(1 1.32461e-15 0)
(1 3.01269e-15 0)
(1 3.33199e-15 0)
(1 9.52028e-16 0)
(1 1.85869e-15 0)
(1 3.17857e-15 0)
(1 2.85809e-15 0)
(1 3.28366e-15 0)
(1 5.72244e-15 0)
(1 2.75532e-15 0)
(1 -1.55152e-15 0)
(1 -1.24522e-15 0)
(1 -1.59292e-15 0)
(1 2.07806e-15 0)
(1 1.85125e-15 0)
(1 6.04074e-15 0)
(1 1.79606e-15 0)
(1 1.33871e-15 0)
(1 5.41102e-16 0)
(1 1.50387e-15 0)
(1 4.74938e-16 0)
(1 2.55999e-15 0)
(1 -1.38682e-15 0)
(1 -2.15382e-15 0)
(1 -1.45666e-15 0)
(1 1.20556e-16 0)
(1 4.20356e-15 0)
(1 -9.48341e-16 0)
(1 -3.06029e-15 0)
(1 -1.16333e-15 0)
(1 1.08718e-16 0)
(1 -1.52382e-15 0)
(1 5.38075e-16 0)
(1 -1.07056e-15 0)
(1 -1.46501e-15 0)
(1 -2.0378e-15 0)
(1 -4.88768e-15 0)
(1 -4.10871e-15 0)
(1 -1.50458e-15 0)
(1 -3.939e-16 0)
(1 -4.52725e-16 0)
(1 1.96696e-15 0)
(1 2.89365e-15 0)
(1 4.76393e-15 0)
(1 2.88235e-15 0)
(1 5.75919e-16 0)
(1 -3.69273e-15 0)
(1 4.74449e-16 0)
(1 2.63163e-15 0)
(1 -1.38232e-15 0)
(1 -1.68217e-16 0)
(1 2.66499e-15 0)
(1 2.2711e-16 0)
(1 3.62855e-15 0)
(1 -2.18602e-15 0)
(1 -2.95902e-16 0)
(1 6.18012e-15 0)
(1 1.34683e-15 0)
(1 3.43515e-15 0)
(1 5.51696e-15 0)
(1 -8.90148e-16 0)
(1 -6.7088e-16 0)
(1 3.3898e-15 0)
(1 6.73162e-16 0)
(1 5.6295e-15 0)
(1 3.14308e-15 0)
(1 -1.32668e-15 0)
(1 -4.53501e-16 0)
(1 5.82797e-16 0)
(1 3.44003e-16 0)
(1 -9.09763e-15 0)
(1 4.7729e-15 0)
(1 -3.17655e-15 0)
(1 2.98973e-15 0)
(1 2.22209e-16 0)
(1 -4.70136e-16 0)
(1 -3.82654e-16 0)
(1 1.05745e-15 0)
(1 3.2328e-15 0)
(1 4.19728e-16 0)
(1 3.29249e-16 0)
(1 2.2287e-15 0)
(1 -4.0807e-15 0)
(1 -2.60546e-15 0)
(1 3.16278e-15 0)
(1 1.73093e-15 0)
(1 5.79042e-16 0)
(1 -6.2223e-15 0)
(1 -2.53072e-17 0)
(1 -2.82546e-15 0)
(1 -2.52111e-15 0)
(1 -1.24735e-16 0)
(1 -1.04991e-15 0)
(1 1.17839e-15 0)
(1 2.66328e-15 0)
(1 4.1797e-15 0)
(1 7.42975e-16 0)
(1 2.74365e-15 0)
(1 3.76353e-15 0)
(1 1.57122e-15 0)
(1 1.6251e-15 0)
(1 3.84822e-15 0)
(1 4.78499e-15 0)
(1 7.48382e-16 0)
(1 9.29101e-16 0)
(1 1.98994e-15 0)
(1 3.45686e-15 0)
(1 4.07408e-15 0)
(1 4.6721e-15 0)
(1 -1.22776e-15 0)
(1 1.48296e-15 0)
(1 -5.80042e-16 0)
(1 9.21065e-16 0)
(1 -3.24276e-17 0)
(1 -1.16565e-15 0)
(1 -4.43395e-16 0)
(1 2.72136e-15 0)
(1 2.94838e-15 0)
(1 -1.43669e-15 0)
(1 4.66833e-15 0)
(1 3.85991e-15 0)
(1 -8.5647e-16 0)
(1 -1.21242e-15 0)
(1 -2.08333e-15 0)
(1 2.64349e-15 0)
(1 -1.08122e-15 0)
(1 2.24142e-15 0)
(1 3.99253e-16 0)
(1 -4.69099e-16 0)
(1 3.72435e-16 0)
(1 3.68065e-17 0)
(1 5.67513e-16 0)
(1 2.99908e-16 0)
(1 -9.71865e-16 0)
(1 5.06999e-16 0)
(1 -1.93172e-15 0)
(1 -7.29608e-16 0)
(1 -6.44016e-16 0)
(1 -1.47905e-15 0)
(1 -1.12361e-15 0)
(1 7.22288e-16 0)
(1 2.86956e-15 0)
(1 2.93526e-15 0)
(1 1.31843e-15 0)
(1 3.29167e-15 0)
(1 -3.70434e-16 0)
(1 -1.18134e-15 0)
(1 2.24386e-15 0)
(1 1.28656e-15 0)
(1 -1.80106e-15 0)
(1 8.59341e-16 0)
(1 -9.65485e-16 0)
(1 1.07548e-15 0)
(1 3.82421e-15 0)
(1 1.37863e-15 0)
(1 -6.81575e-16 0)
(1 2.45597e-15 0)
(1 6.69459e-15 0)
(1 7.65041e-15 0)
(1 4.33926e-15 0)
(1 -4.93335e-15 0)
(1 2.70803e-15 0)
(1 -1.40036e-15 0)
(1 2.41516e-15 0)
(1 5.51142e-15 0)
(1 3.69055e-15 0)
(1 5.98456e-15 0)
(1 2.76315e-15 0)
(1 -4.30646e-15 0)
(1 -2.36168e-15 0)
(1 -7.77054e-15 0)
(1 -1.35458e-15 0)
(1 -5.27295e-16 0)
(1 -1.10756e-15 0)
(1 -6.19575e-15 0)
(1 -4.84171e-15 0)
(1 -1.20257e-15 0)
(1 1.92731e-15 0)
(1 3.65917e-15 0)
(1 9.06761e-15 0)
(1 3.00735e-16 0)
(1 1.71791e-15 0)
(1 -3.46986e-15 0)
(1 -1.38141e-15 0)
(1 -1.47819e-15 0)
(1 -1.46654e-15 0)
(1 -1.48585e-15 0)
(1 -7.45689e-16 0)
(1 2.98041e-15 0)
(1 -2.19518e-15 0)
(1 -1.59518e-15 0)
(1 2.46647e-15 0)
(1 -1.89879e-15 0)
(1 -2.50671e-15 0)
(1 3.8458e-15 0)
(1 5.90455e-15 0)
(1 4.88171e-15 0)
(1 -1.87553e-15 0)
(1 2.33279e-15 0)
(1 4.64444e-15 0)
(1 2.11209e-15 0)
(1 -1.76085e-15 0)
(1 4.36253e-15 0)
(1 6.19421e-15 0)
(1 7.55376e-15 0)
(1 1.76088e-15 0)
(1 -1.60174e-16 0)
(1 4.13693e-15 0)
(1 -1.99521e-15 0)
(1 -4.6949e-15 0)
(1 3.52914e-15 0)
(1 5.75871e-15 0)
(1 5.21398e-15 0)
(1 1.00448e-15 0)
(1 2.41688e-15 0)
(1 2.43033e-15 0)
(1 -2.19951e-16 0)
(1 3.16216e-15 0)
(1 2.87907e-15 0)
(1 3.52983e-15 0)
(1 1.75817e-15 0)
(1 3.07108e-16 0)
(1 -2.19656e-15 0)
(1 -9.5133e-16 0)
(1 4.08137e-15 0)
(1 5.85921e-16 0)
(1 -1.43392e-15 0)
(1 -1.99444e-15 0)
(1 -2.81848e-15 0)
(1 1.49631e-15 0)
(1 -2.39423e-15 0)
(1 1.12121e-15 0)
(1 1.34109e-15 0)
(1 -4.08295e-15 0)
(1 -3.88979e-16 0)
(1 -4.89041e-16 0)
(1 1.476e-15 0)
(1 1.28256e-15 0)
(1 -5.41441e-15 0)
(1 -2.13683e-15 0)
(1 1.32212e-15 0)
(1 2.07169e-15 0)
(1 2.91621e-15 0)
(1 2.47874e-15 0)
(1 2.96356e-15 0)
(1 -2.61432e-15 0)
(1 -1.26569e-15 0)
(1 2.30896e-15 0)
(1 2.69344e-15 0)
(1 -3.86403e-16 0)
(1 -7.20752e-16 0)
(1 -6.93353e-16 0)
(1 1.1981e-15 0)
(1 6.69783e-16 0)
(1 4.62063e-15 0)
(1 7.0843e-16 0)
(1 -2.11615e-15 0)
(1 5.19006e-15 0)
(1 2.92999e-15 0)
(1 2.46366e-15 0)
(1 -2.43973e-17 0)
(1 4.16803e-16 0)
(1 3.13902e-15 0)
(1 3.90218e-15 0)
(1 4.12268e-15 0)
(1 9.01177e-16 0)
(1 4.3706e-15 0)
(1 5.58083e-15 0)
(1 -3.06935e-15 0)
(1 -7.62609e-15 0)
(1 -1.74247e-15 0)
(1 -3.89884e-15 0)
(1 1.58653e-15 0)
(1 -9.60428e-16 0)
(1 -4.04308e-15 0)
(1 8.98856e-17 0)
(1 -4.12977e-15 0)
(1 -1.91946e-15 0)
(1 3.70946e-15 0)
(1 3.68559e-15 0)
(1 -1.50002e-15 0)
(1 1.60234e-15 0)
(1 5.23054e-17 0)
(1 -2.45551e-15 0)
(1 -1.8913e-15 0)
(1 -8.02018e-16 0)
(1 2.14911e-15 0)
(1 1.86918e-15 0)
(1 7.74415e-16 0)
(1 -2.77006e-15 0)
(1 1.27269e-15 0)
(1 2.15742e-15 0)
(1 7.74598e-17 0)
(1 4.07695e-15 0)
(1 -1.53871e-15 0)
(1 2.995e-15 0)
(1 2.55058e-15 0)
(1 -2.28024e-15 0)
(1 6.55289e-16 0)
(1 1.96584e-15 0)
(1 4.60838e-15 0)
(1 4.61977e-16 0)
(1 5.48293e-15 0)
(1 8.23343e-15 0)
(1 5.61574e-15 0)
(1 5.32496e-15 0)
(1 2.70924e-16 0)
(1 5.7057e-15 0)
(1 9.3435e-16 0)
(1 2.94272e-15 0)
(1 2.26171e-15 0)
(1 1.87219e-17 0)
(1 6.21117e-15 0)
(1 -4.51106e-15 0)
(1 4.44046e-15 0)
(1 2.25479e-15 0)
(1 -2.55135e-15 0)
(1 7.98626e-15 0)
(1 5.71817e-15 0)
(1 5.00633e-15 0)
(1 -1.06529e-15 0)
(1 1.60875e-15 0)
(1 -8.56639e-16 0)
(1 -1.43051e-15 0)
(1 2.52233e-15 0)
(1 -2.52693e-16 0)
(1 -7.74739e-16 0)
(1 -2.13757e-15 0)
(1 3.22258e-15 0)
(1 1.91938e-15 0)
(1 2.82816e-15 0)
(1 -7.83225e-16 0)
(1 5.60332e-16 0)
(1 -4.6745e-15 0)
(1 -4.5642e-15 0)
(1 -3.00474e-15 0)
(1 -7.38598e-16 0)
(1 -1.39885e-16 0)
(1 -1.06983e-15 0)
(1 -1.31437e-15 0)
(1 9.099e-16 0)
(1 1.97224e-15 0)
(1 4.33584e-15 0)
(1 4.54355e-15 0)
(1 3.07804e-15 0)
(1 2.4249e-16 0)
(1 -2.2253e-16 0)
(1 4.72131e-15 0)
(1 5.14413e-15 0)
(1 5.28236e-16 0)
(1 3.73489e-16 0)
(1 2.35766e-15 0)
(1 -1.80622e-15 0)
(1 2.02255e-15 0)
(1 -1.73038e-15 0)
(1 3.19182e-15 0)
(1 2.69484e-15 0)
(1 3.14807e-15 0)
(1 3.26684e-15 0)
(1 1.06367e-15 0)
(1 1.02388e-14 0)
(1 3.05726e-15 0)
(1 3.50567e-15 0)
(1 2.54838e-15 0)
(1 -1.11983e-15 0)
(1 -2.00383e-15 0)
(1 1.28276e-16 0)
(1 3.98252e-16 0)
(1 3.37939e-15 0)
(1 -2.25665e-15 0)
(1 7.79334e-17 0)
(1 -7.71469e-15 0)
(1 -3.00703e-15 0)
(1 1.54518e-15 0)
(1 2.76551e-15 0)
(1 -1.39765e-15 0)
(1 -1.71841e-15 0)
(1 1.47648e-15 0)
(1 -2.41854e-15 0)
(1 -3.12771e-15 0)
(1 2.00797e-15 0)
(1 9.07186e-16 0)
(1 2.04004e-15 0)
(1 1.24824e-15 0)
(1 -1.06235e-15 0)
(1 -5.11091e-15 0)
(1 -1.25901e-15 0)
(1 -3.13938e-15 0)
(1 -4.26463e-15 0)
(1 -2.82036e-15 0)
(1 2.51279e-15 0)
(1 2.48925e-15 0)
(1 3.43892e-15 0)
(1 6.93094e-15 0)
(1 7.09464e-16 0)
(1 1.28828e-15 0)
(1 1.78189e-16 0)
(1 1.50636e-15 0)
(1 2.73862e-15 0)
(1 -1.11957e-15 0)
(1 -6.45151e-16 0)
(1 3.98621e-15 0)
(1 6.09386e-15 0)
(1 8.43937e-15 0)
(1 4.65854e-15 0)
(1 1.46499e-15 0)
(1 -1.81779e-15 0)
(1 3.17751e-15 0)
(1 4.33702e-15 0)
(1 5.43091e-15 0)
(1 6.10425e-15 0)
(1 1.08931e-15 0)
(1 2.66883e-15 0)
(1 3.79033e-15 0)
(1 -7.38213e-16 0)
(1 2.19627e-15 0)
(1 2.23185e-15 0)
(1 4.93245e-15 0)
(1 4.79117e-15 0)
(1 5.56913e-15 0)
(1 2.5562e-15 0)
(1 -9.99266e-17 0)
(1 3.81839e-16 0)
(1 7.47398e-16 0)
(1 2.03566e-16 0)
(1 3.05219e-16 0)
(1 -1.59797e-15 0)
(1 6.64004e-16 0)
(1 6.64084e-16 0)
(1 1.77964e-15 0)
(1 1.6753e-15 0)
(1 -8.64926e-16 0)
(1 -1.3846e-16 0)
(1 -3.06195e-15 0)
(1 -4.15781e-15 0)
(1 -7.09614e-17 0)
(1 3.19391e-16 0)
(1 -2.76106e-15 0)
(1 -9.79959e-16 0)
(1 2.67076e-15 0)
(1 -5.98253e-16 0)
(1 2.09397e-15 0)
(1 -1.85629e-15 0)
(1 6.30838e-15 0)
(1 1.1574e-15 0)
(1 1.27552e-15 0)
(1 3.74951e-15 0)
(1 4.28286e-15 0)
(1 5.06648e-15 0)
(1 -1.75032e-16 0)
(1 1.73244e-16 0)
(1 1.45131e-15 0)
(1 2.9424e-15 0)
(1 -8.93654e-16 0)
(1 -3.3862e-15 0)
(1 4.38992e-15 0)
(1 2.33776e-15 0)
(1 4.98043e-15 0)
(1 6.01572e-15 0)
(1 -4.6183e-16 0)
(1 6.71487e-15 0)
(1 5.35313e-16 0)
(1 5.47924e-16 0)
(1 -1.02911e-15 0)
(1 -5.39211e-15 0)
(1 3.33436e-16 0)
(1 1.55032e-15 0)
(1 3.22796e-15 0)
(1 2.75045e-15 0)
(1 -3.37066e-15 0)
(1 -2.28912e-15 0)
(1 -7.2054e-15 0)
(1 -9.50665e-16 0)
(1 -5.26214e-15 0)
(1 9.38619e-15 0)
(1 5.8214e-15 0)
(1 5.67066e-15 0)
(1 2.08349e-15 0)
(1 -6.56321e-15 0)
(1 -4.8375e-15 0)
(1 5.18078e-16 0)
(1 -2.53994e-15 0)
(1 -4.61063e-16 0)
(1 2.36558e-15 0)
(1 -2.51323e-15 0)
(1 -2.0326e-15 0)
(1 -5.75158e-15 0)
(1 -4.53669e-15 0)
(1 -2.47161e-15 0)
(1 5.59745e-15 0)
(1 1.5299e-15 0)
(1 5.95989e-16 0)
(1 -2.28753e-16 0)
(1 2.78411e-15 0)
(1 2.84236e-15 0)
(1 9.01636e-16 0)
(1 1.12218e-15 0)
(1 7.11349e-15 0)
(1 2.89074e-15 0)
(1 6.01148e-16 0)
(1 1.15921e-15 0)
(1 5.24154e-15 0)
(1 7.01137e-15 0)
(1 7.05072e-15 0)
(1 4.76187e-15 0)
(1 4.01016e-15 0)
(1 7.92283e-16 0)
(1 4.61111e-15 0)
(1 2.17436e-15 0)
(1 4.05435e-15 0)
(1 3.5154e-15 0)
(1 3.23296e-15 0)
(1 7.26665e-16 0)
(1 6.3719e-15 0)
(1 1.93701e-15 0)
(1 2.18693e-15 0)
(1 3.59907e-15 0)
(1 -4.60244e-15 0)
(1 -7.61506e-16 0)
(1 3.24218e-15 0)
(1 5.26086e-15 0)
(1 2.72404e-15 0)
(1 1.59249e-15 0)
(1 -6.85296e-16 0)
(1 -4.57239e-15 0)
(1 4.44206e-15 0)
(1 -1.7075e-15 0)
(1 -3.84891e-15 0)
(1 -3.28922e-16 0)
(1 3.86907e-15 0)
(1 2.66011e-15 0)
(1 7.23317e-15 0)
(1 -8.70996e-17 0)
(1 -2.64474e-15 0)
(1 -1.50658e-16 0)
(1 -5.70388e-16 0)
(1 -4.7369e-15 0)
(1 -3.44805e-15 0)
(1 -5.41232e-15 0)
(1 5.74538e-15 0)
(1 -9.73816e-16 0)
(1 6.7631e-16 0)
(1 -1.64113e-16 0)
(1 3.249e-15 0)
(1 3.74831e-15 0)
(1 3.02104e-15 0)
(1 5.32171e-15 0)
(1 6.29135e-16 0)
(1 2.30023e-15 0)
(1 -4.69275e-16 0)
(1 1.24345e-15 0)
(1 4.25796e-16 0)
(1 3.76066e-15 0)
(1 -3.3334e-15 0)
(1 2.97256e-15 0)
(1 -1.00282e-15 0)
(1 2.49023e-15 0)
(1 4.39789e-15 0)
(1 5.75358e-15 0)
(1 4.28183e-15 0)
(1 -2.12236e-15 0)
(1 -1.27229e-15 0)
(1 8.87577e-16 0)
(1 2.51662e-15 0)
(1 3.32175e-16 0)
(1 1.44292e-15 0)
(1 -3.44348e-15 0)
(1 4.37099e-15 0)
(1 2.15548e-16 0)
(1 -3.69099e-15 0)
(1 5.08542e-16 0)
(1 -5.48411e-16 0)
(1 -2.03464e-15 0)
(1 -7.56386e-16 0)
(1 -9.9805e-16 0)
(1 3.69334e-15 0)
(1 2.21686e-15 0)
(1 2.26371e-15 0)
(1 -2.23507e-15 0)
(1 3.25294e-16 0)
(1 9.57282e-16 0)
(1 -5.21148e-15 0)
(1 -5.36688e-15 0)
(1 -4.52692e-15 0)
(1 -1.55782e-15 0)
(1 -2.52604e-16 0)
(1 -6.62177e-15 0)
(1 -8.37541e-16 0)
(1 -1.75853e-16 0)
(1 4.99603e-15 0)
(1 -4.34439e-16 0)
(1 -4.08419e-15 0)
(1 1.74783e-15 0)
(1 5.64636e-15 0)
(1 2.13897e-15 0)
(1 5.12724e-15 0)
(1 -1.92691e-15 0)
(1 4.13181e-15 0)
(1 3.07984e-15 0)
(1 1.74836e-15 0)
(1 3.34975e-15 0)
(1 4.0388e-15 0)
(1 5.72526e-15 0)
(1 4.75123e-15 0)
(1 -2.41109e-15 0)
(1 3.03343e-15 0)
(1 3.46251e-15 0)
(1 3.7075e-15 0)
(1 1.39603e-15 0)
(1 6.17392e-15 0)
(1 5.46154e-15 0)
(1 8.40107e-15 0)
(1 3.07512e-15 0)
(1 -2.43318e-16 0)
(1 2.87496e-15 0)
(1 -9.89111e-17 0)
(1 1.45913e-15 0)
(1 2.58392e-16 0)
(1 -7.91883e-16 0)
(1 4.90796e-15 0)
(1 3.19193e-15 0)
(1 -2.34712e-15 0)
(1 4.85371e-16 0)
(1 1.97403e-15 0)
(1 -3.31713e-15 0)
(1 2.66602e-16 0)
(1 -1.06256e-15 0)
(1 -1.5736e-15 0)
(1 2.97162e-15 0)
(1 5.06418e-15 0)
(1 1.72112e-15 0)
(1 3.84347e-15 0)
(1 -3.29649e-15 0)
(1 -1.00426e-15 0)
(1 2.45875e-15 0)
(1 -3.92189e-15 0)
(1 -4.13651e-15 0)
(1 -1.05077e-15 0)
(1 2.89869e-15 0)
(1 3.99029e-15 0)
(1 -4.08165e-16 0)
(1 -2.67666e-15 0)
(1 1.00871e-15 0)
(1 -3.98118e-16 0)
(1 6.27393e-15 0)
(1 4.07678e-15 0)
(1 5.12342e-15 0)
(1 4.20578e-16 0)
(1 -6.40567e-16 0)
(1 6.24145e-16 0)
(1 1.18517e-15 0)
(1 -2.28246e-16 0)
(1 -4.77058e-16 0)
(1 2.65562e-15 0)
(1 1.97277e-15 0)
(1 1.84337e-15 0)
(1 2.11746e-15 0)
(1 4.25335e-16 0)
(1 5.58355e-15 0)
(1 7.19731e-15 0)
(1 -1.59346e-15 0)
(1 -9.71621e-16 0)
(1 -1.26945e-15 0)
(1 3.25111e-15 0)
(1 -1.26616e-15 0)
(1 -2.35275e-15 0)
(1 -3.7454e-15 0)
(1 2.61076e-15 0)
(1 1.36041e-15 0)
(1 5.36095e-15 0)
(1 5.91164e-15 0)
(1 -1.46792e-15 0)
(1 -8.94271e-15 0)
(1 6.9159e-15 0)
(1 -2.69018e-15 0)
(1 -3.68721e-15 0)
(1 -3.09812e-15 0)
(1 4.26813e-16 0)
(1 1.64647e-15 0)
(1 -2.42065e-15 0)
(1 1.07368e-16 0)
(1 -5.05218e-15 0)
(1 -5.30967e-15 0)
(1 1.46403e-15 0)
(1 -1.29005e-15 0)
(1 1.36558e-15 0)
(1 -4.75918e-15 0)
(1 -8.28566e-16 0)
(1 1.0499e-15 0)
(1 6.86425e-16 0)
(1 1.42676e-15 0)
(1 -3.87078e-15 0)
(1 2.86622e-15 0)
(1 -1.25555e-16 0)
(1 5.54522e-15 0)
(1 5.08259e-15 0)
(1 1.86531e-15 0)
(1 -1.79674e-15 0)
(1 1.8522e-15 0)
(1 4.20261e-15 0)
(1 1.84186e-15 0)
(1 7.92879e-15 0)
(1 6.62766e-15 0)
(1 4.03972e-15 0)
(1 4.30783e-15 0)
(1 2.55816e-15 0)
(1 5.72984e-15 0)
(1 -2.70316e-15 0)
(1 1.22322e-15 0)
(1 -4.86091e-17 0)
(1 3.04456e-15 0)
(1 4.7615e-15 0)
(1 4.83523e-15 0)
(1 4.78858e-15 0)
(1 2.97503e-15 0)
(1 4.33266e-15 0)
(1 2.3234e-15 0)
(1 1.16147e-15 0)
(1 9.83884e-16 0)
(1 -4.82117e-15 0)
(1 4.27586e-16 0)
(1 2.1802e-16 0)
(1 1.91536e-15 0)
(1 2.467e-15 0)
(1 1.8109e-15 0)
(1 -3.02105e-15 0)
(1 5.31722e-16 0)
(1 5.23619e-15 0)
(1 -9.48055e-17 0)
(1 -1.2588e-15 0)
(1 -2.79817e-15 0)
(1 -1.94853e-15 0)
(1 -1.26606e-15 0)
(1 1.55228e-15 0)
(1 2.50392e-16 0)
(1 -1.88417e-15 0)
(1 1.0372e-15 0)
(1 -5.1117e-16 0)
(1 4.56193e-15 0)
(1 -1.78697e-15 0)
(1 -1.15868e-17 0)
(1 1.24219e-15 0)
(1 -1.70653e-15 0)
(1 2.24278e-15 0)
(1 3.70783e-15 0)
(1 -8.79908e-16 0)
(1 1.20966e-15 0)
(1 3.57054e-16 0)
(1 -8.44053e-16 0)
(1 3.64867e-16 0)
(1 6.32357e-16 0)
(1 -9.73377e-16 0)
(1 1.12927e-15 0)
(1 4.28162e-15 0)
(1 4.52843e-15 0)
(1 3.37288e-15 0)
(1 2.08828e-16 0)
(1 -2.48917e-15 0)
(1 5.95361e-16 0)
(1 3.59879e-15 0)
(1 4.59859e-15 0)
(1 2.34302e-15 0)
(1 3.4048e-16 0)
(1 -2.50395e-15 0)
(1 -4.53937e-16 0)
(1 -3.037e-15 0)
(1 1.75365e-15 0)
(1 -2.81909e-15 0)
(1 -1.38093e-15 0)
(1 5.23952e-15 0)
(1 3.32861e-15 0)
(1 7.3603e-16 0)
(1 -4.45875e-15 0)
(1 -2.17897e-15 0)
(1 7.70378e-16 0)
(1 1.80292e-15 0)
(1 -2.12849e-15 0)
(1 3.16382e-15 0)
(1 7.52116e-16 0)
(1 -1.45703e-15 0)
(1 -6.70344e-15 0)
(1 -1.43667e-15 0)
(1 9.17453e-17 0)
(1 -4.10487e-15 0)
(1 -5.79966e-15 0)
(1 3.6627e-16 0)
(1 -4.21143e-15 0)
(1 1.8392e-15 0)
(1 -7.90602e-16 0)
(1 -2.57835e-15 0)
(1 -1.17921e-15 0)
(1 7.42479e-15 0)
(1 6.83935e-15 0)
(1 7.567e-16 0)
(1 5.09397e-15 0)
(1 -2.5812e-15 0)
(1 7.11155e-15 0)
(1 -1.81449e-15 0)
(1 -1.65841e-15 0)
(1 -2.39213e-15 0)
(1 -1.11167e-15 0)
(1 7.75457e-15 0)
(1 7.59546e-15 0)
(1 1.05429e-15 0)
(1 8.93536e-15 0)
(1 4.07254e-15 0)
(1 4.30644e-15 0)
(1 1.73462e-15 0)
(1 1.71426e-15 0)
(1 1.90377e-15 0)
(1 4.20097e-16 0)
(1 -1.44064e-16 0)
(1 6.57661e-15 0)
(1 4.63106e-15 0)
(1 2.5746e-15 0)
(1 4.47959e-15 0)
(1 3.51769e-15 0)
(1 8.53348e-16 0)
(1 1.19558e-15 0)
(1 -3.39743e-15 0)
(1 4.92343e-15 0)
(1 4.91734e-15 0)
(1 2.41775e-15 0)
(1 -4.02044e-16 0)
(1 4.4742e-15 0)
(1 -1.6337e-16 0)
(1 3.14666e-15 0)
(1 1.0635e-15 0)
(1 -4.93025e-15 0)
(1 -5.98149e-16 0)
(1 7.71537e-16 0)
(1 -3.7861e-15 0)
(1 1.19089e-15 0)
(1 9.06615e-16 0)
(1 -1.60767e-15 0)
(1 -2.7303e-15 0)
(1 1.46682e-15 0)
(1 1.15714e-15 0)
(1 1.58519e-15 0)
(1 -3.38789e-16 0)
(1 -8.78016e-16 0)
(1 1.76786e-15 0)
(1 3.62361e-15 0)
(1 8.86453e-16 0)
(1 1.31724e-15 0)
(1 -6.2537e-16 0)
(1 3.81961e-15 0)
(1 -6.4034e-17 0)
(1 -2.78436e-15 0)
(1 1.87071e-18 0)
(1 2.78268e-15 0)
(1 1.81604e-16 0)
(1 4.86702e-15 0)
(1 8.36337e-16 0)
(1 5.07562e-15 0)
(1 -2.79272e-15 0)
(1 6.52373e-16 0)
(1 2.87294e-15 0)
(1 -1.83328e-15 0)
(1 5.12065e-15 0)
(1 5.61673e-15 0)
(1 3.73047e-15 0)
(1 -5.56359e-15 0)
(1 -7.26113e-15 0)
(1 1.27335e-15 0)
(1 -8.37157e-15 0)
(1 7.73941e-15 0)
(1 -3.03616e-15 0)
(1 2.37263e-15 0)
(1 6.65217e-15 0)
(1 -1.69389e-15 0)
(1 2.96578e-15 0)
(1 1.51818e-16 0)
(1 -6.44275e-15 0)
(1 -5.06945e-15 0)
(1 -3.09247e-15 0)
(1 2.55717e-16 0)
(1 1.79428e-15 0)
(1 -1.13136e-15 0)
(1 -1.9114e-15 0)
(1 -1.12413e-15 0)
(1 -2.44342e-16 0)
(1 -1.69093e-15 0)
(1 -3.75243e-15 0)
(1 -1.72814e-15 0)
(1 -6.29387e-15 0)
(1 -1.63719e-15 0)
(1 1.9881e-15 0)
(1 -1.63924e-15 0)
(1 -2.10011e-15 0)
(1 -7.10456e-17 0)
(1 8.92712e-15 0)
(1 3.01091e-15 0)
(1 5.64444e-15 0)
(1 2.51862e-15 0)
(1 -6.27566e-15 0)
(1 3.44859e-15 0)
(1 -6.82637e-16 0)
(1 -3.5474e-15 0)
(1 -1.66846e-15 0)
(1 3.5873e-15 0)
(1 6.12324e-15 0)
(1 5.64679e-15 0)
(1 5.08649e-15 0)
(1 7.87634e-15 0)
(1 2.24042e-15 0)
(1 5.11929e-15 0)
(1 4.39269e-15 0)
(1 2.01631e-15 0)
(1 5.12418e-15 0)
(1 2.14105e-16 0)
(1 4.85969e-15 0)
(1 3.10772e-15 0)
(1 5.69143e-15 0)
(1 5.31228e-15 0)
(1 4.9641e-15 0)
(1 3.26665e-15 0)
(1 3.49808e-15 0)
(1 1.58724e-15 0)
(1 3.85734e-15 0)
(1 1.62633e-15 0)
(1 5.06566e-16 0)
(1 1.23632e-15 0)
(1 -4.65319e-16 0)
(1 1.75509e-15 0)
(1 5.13335e-16 0)
(1 4.45202e-15 0)
(1 -1.38422e-15 0)
(1 -5.56118e-15 0)
(1 5.3159e-16 0)
(1 1.06201e-15 0)
(1 -2.98581e-15 0)
(1 1.11821e-15 0)
(1 -1.07034e-15 0)
(1 -1.82342e-15 0)
(1 -2.85857e-15 0)
(1 1.77593e-15 0)
(1 4.37913e-16 0)
(1 -2.12641e-15 0)
(1 -3.56332e-16 0)
(1 -1.1439e-15 0)
(1 8.74882e-16 0)
(1 2.73726e-15 0)
(1 2.53169e-15 0)
(1 -6.55742e-16 0)
(1 -1.89596e-15 0)
(1 1.94279e-15 0)
(1 2.17143e-15 0)
(1 1.66783e-15 0)
(1 -2.52317e-16 0)
(1 2.8955e-15 0)
(1 1.62188e-15 0)
(1 1.59212e-15 0)
(1 2.74135e-15 0)
(1 3.20505e-15 0)
(1 1.70331e-15 0)
(1 1.87383e-15 0)
(1 3.95096e-15 0)
(1 8.2914e-16 0)
(1 -1.57274e-15 0)
(1 -6.25256e-17 0)
(1 1.67409e-15 0)
(1 -7.1316e-16 0)
(1 -2.06135e-15 0)
(1 -1.13904e-15 0)
(1 -3.92945e-15 0)
(1 3.33542e-16 0)
(1 4.07873e-15 0)
(1 2.79794e-16 0)
(1 -1.62834e-15 0)
(1 -1.58032e-15 0)
(1 2.23696e-15 0)
(1 1.34106e-15 0)
(1 -4.84625e-15 0)
(1 -3.0362e-15 0)
(1 -5.86039e-16 0)
(1 5.10264e-15 0)
(1 -4.61398e-15 0)
(1 -1.01255e-15 0)
(1 -3.75557e-15 0)
(1 3.53151e-16 0)
(1 -1.15585e-15 0)
(1 -4.23188e-15 0)
(1 -9.81296e-16 0)
(1 -2.38272e-15 0)
(1 -3.55492e-15 0)
(1 -1.04285e-15 0)
(1 -2.66295e-15 0)
(1 -5.6795e-16 0)
(1 2.46219e-15 0)
(1 5.60071e-15 0)
(1 8.08439e-16 0)
(1 3.09679e-15 0)
(1 5.7047e-16 0)
(1 1.49215e-16 0)
(1 1.05471e-15 0)
(1 -1.35945e-15 0)
(1 -3.5539e-15 0)
(1 -8.55809e-15 0)
(1 2.77784e-15 0)
(1 9.05437e-15 0)
(1 7.47568e-15 0)
(1 3.99411e-15 0)
(1 8.66463e-15 0)
(1 7.11242e-15 0)
(1 2.50165e-15 0)
(1 3.362e-15 0)
(1 7.25329e-16 0)
(1 1.20254e-15 0)
(1 7.78718e-16 0)
(1 1.70051e-15 0)
(1 2.87189e-15 0)
(1 -3.79692e-15 0)
(1 7.14587e-15 0)
(1 5.21928e-15 0)
(1 5.00124e-15 0)
(1 3.93616e-15 0)
(1 2.61872e-15 0)
(1 1.9618e-15 0)
(1 1.42622e-15 0)
(1 -3.91551e-15 0)
(1 -6.37889e-17 0)
(1 3.89243e-15 0)
(1 3.81694e-16 0)
(1 2.92083e-16 0)
(1 8.26847e-16 0)
(1 1.15541e-15 0)
(1 -5.54762e-16 0)
(1 1.60636e-15 0)
(1 -4.11243e-15 0)
(1 -4.00283e-15 0)
(1 8.65206e-16 0)
(1 -1.24364e-15 0)
(1 -1.95718e-15 0)
(1 -2.89004e-15 0)
(1 -2.34844e-16 0)
(1 3.02183e-15 0)
(1 2.60934e-15 0)
(1 -4.998e-16 0)
(1 2.74333e-17 0)