/*--------------------------------*- C++ -*----------------------------------*\
| =========                 |                                                 |
| \\      /  F ield         | OpenFOAM: The Open Source CFD Toolbox           |
|  \\    /   O peration     | Version:  v2012                                 |
|   \\  /    A nd           | Website:  www.openfoam.com                      |
|    \\/     M anipulation  |                                                 |
\*---------------------------------------------------------------------------*/
FoamFile
{
    version     2.0;
    format      ascii;
    class       volScalarField;
    location    "0";
    object      p;
}
// * * * * * * * * * * * * * * * * * * * * * * * * * * * * * * * * * * * * * //

dimensions      [0 2 -2 0 0 0 0];


internalField   nonuniform List<scalar> 
4000
(
-0.168432
-0.168185
-0.168215
-0.168409
-0.168507
-0.168333
-0.168304
-0.168294
-0.167295
-0.166315
-0.16597
-0.165372
-0.164656
-0.164001
-0.16343
-0.163235
-0.16214
-0.161894
-0.161148
-0.160575
-0.160153
-0.159496
-0.158375
-0.157571
-0.156535
-0.155532
-0.154173
-0.153397
-0.152511
-0.151416
-0.150275
-0.149186
-0.147335
-0.146195
-0.145026
-0.143681
-0.142893
-0.141648
-0.139963
-0.138713
-0.137276
-0.135388
-0.134119
-0.132767
-0.131268
-0.129781
-0.128108
-0.12641
-0.124523
-0.122734
-0.12041
-0.11849
-0.116667
-0.114573
-0.112788
-0.110783
-0.108604
-0.107091
-0.105042
-0.102812
-0.100797
-0.0985293
-0.0967766
-0.0948261
-0.0926937
-0.0905316
-0.0880766
-0.086049
-0.083594
-0.0814223
-0.0789198
-0.0760654
-0.0733773
-0.071155
-0.0692592
-0.0666731
-0.0638915
-0.0611222
-0.0585366
-0.0561584
-0.0536918
-0.0511306
-0.0482378
-0.0458659
-0.0433841
-0.0407855
-0.0377115
-0.0347568
-0.0318014
-0.029107
-0.0266879
-0.023921
-0.021061
-0.0181738
-0.0155378
-0.0126385
-0.00970063
-0.00651095
-0.00383486
-0.00123183
-0.168519
-0.168426
-0.168212
-0.168317
-0.168333
-0.168537
-0.168295
-0.168097
-0.167412
-0.166765
-0.165929
-0.165356
-0.164564
-0.164049
-0.16354
-0.162942
-0.162292
-0.161804
-0.161022
-0.160772
-0.16004
-0.159288
-0.158714
-0.157533
-0.156463
-0.155401
-0.154688
-0.153454
-0.152756
-0.151271
-0.150007
-0.148831
-0.147662
-0.146434
-0.144971
-0.143954
-0.142838
-0.141419
-0.140029
-0.138595
-0.137165
-0.135585
-0.134188
-0.132744
-0.131321
-0.129716
-0.128151
-0.126483
-0.124565
-0.122683
-0.120689
-0.118361
-0.116523
-0.114587
-0.112612
-0.11079
-0.108883
-0.107197
-0.105142
-0.102847
-0.100779
-0.0984821
-0.0967028
-0.0946608
-0.0928516
-0.0906106
-0.0883385
-0.0859623
-0.0835828
-0.0812955
-0.0786943
-0.076285
-0.07363
-0.0712096
-0.0692855
-0.0664468
-0.0640371
-0.0613124
-0.0583999
-0.0560192
-0.0537047
-0.0510631
-0.0484612
-0.0458908
-0.0432697
-0.0406288
-0.037786
-0.0349429
-0.0320319
-0.0288163
-0.026547
-0.0239625
-0.0210776
-0.0180193
-0.0152425
-0.0125917
-0.0097707
-0.00682855
-0.0039055
-0.00132359
-0.168563
-0.168452
-0.168346
-0.168379
-0.168479
-0.16853
-0.168233
-0.168155
-0.167356
-0.166662
-0.16615
-0.165527
-0.16486
-0.164124
-0.163333
-0.162773
-0.162206
-0.161872
-0.161133
-0.1605
-0.16012
-0.159481
-0.158684
-0.157637
-0.156627
-0.15558
-0.15471
-0.153507
-0.152575
-0.151335
-0.150307
-0.148697
-0.147544
-0.146385
-0.145132
-0.144126
-0.142834
-0.141424
-0.140156
-0.138615
-0.137214
-0.135552
-0.134178
-0.133046
-0.131195
-0.129514
-0.128217
-0.12683
-0.124539
-0.122769
-0.120706
-0.118751
-0.116591
-0.114498
-0.112499
-0.110805
-0.108627
-0.106962
-0.105029
-0.102951
-0.100754
-0.0987817
-0.0968779
-0.0949142
-0.0928855
-0.0905446
-0.0884242
-0.0859125
-0.083489
-0.0812274
-0.0787792
-0.0762618
-0.0736848
-0.071304
-0.0691674
-0.0664991
-0.0639715
-0.0612474
-0.0582306
-0.0558416
-0.0536676
-0.0511293
-0.0485613
-0.0459007
-0.0433981
-0.0406054
-0.0376112
-0.0348111
-0.0319161
-0.0290721
-0.0265406
-0.0237051
-0.0208889
-0.0180721
-0.0155001
-0.0126939
-0.00994715
-0.00672443
-0.00379846
-0.00135335
-0.168473
-0.168599
-0.168364
-0.168395
-0.16874
-0.168518
-0.168348
-0.167981
-0.167363
-0.166871
-0.166268
-0.16531
-0.164822
-0.164093
-0.163482
-0.162981
-0.162215
-0.161732
-0.161342
-0.160747
-0.15999
-0.159395
-0.158474
-0.157537
-0.156597
-0.155936
-0.155183
-0.153828
-0.152529
-0.15151
-0.150144
-0.148742
-0.147672
-0.14651
-0.145053
-0.14409
-0.143005
-0.141495
-0.140073
-0.138616
-0.137153
-0.135591
-0.134164
-0.133031
-0.131415
-0.129663
-0.128097
-0.126532
-0.124687
-0.122948
-0.120761
-0.118755
-0.116582
-0.114652
-0.112382
-0.110585
-0.108574
-0.106778
-0.105164
-0.103096
-0.100963
-0.098709
-0.0969214
-0.0950138
-0.0930437
-0.0908028
-0.0884942
-0.0860235
-0.0835226
-0.0811808
-0.0787942
-0.0762148
-0.0737578
-0.0712898
-0.0691278
-0.0665611
-0.063839
-0.0613048
-0.0583314
-0.0558599
-0.053586
-0.0509724
-0.0485706
-0.0459717
-0.0435795
-0.0404369
-0.0376691
-0.0347682
-0.0318637
-0.0289639
-0.0264956
-0.0239329
-0.0210481
-0.0178632
-0.0153084
-0.0127301
-0.00997618
-0.00700735
-0.00395181
-0.00142044
-0.168452
-0.168509
-0.168572
-0.168528
-0.168599
-0.16845
-0.168577
-0.167901
-0.167409
-0.167135
-0.166503
-0.16568
-0.164627
-0.16386
-0.163368
-0.163062
-0.162342
-0.16157
-0.161463
-0.161088
-0.160215
-0.159501
-0.158587
-0.157279
-0.156562
-0.155878
-0.154963
-0.15387
-0.15281
-0.151654
-0.150193
-0.148924
-0.147704
-0.146496
-0.145288
-0.144219
-0.142829
-0.141645
-0.140387
-0.1386
-0.137168
-0.135716
-0.134144
-0.132746
-0.131547
-0.129714
-0.128035
-0.12652
-0.124495
-0.122873
-0.12073
-0.118596
-0.116613
-0.114934
-0.112573
-0.110593
-0.108542
-0.106665
-0.105043
-0.103215
-0.101203
-0.0991034
-0.0972465
-0.0951391
-0.0928871
-0.0906055
-0.0887447
-0.0861351
-0.0836956
-0.08119
-0.0787715
-0.0762209
-0.0738237
-0.0716252
-0.0690365
-0.0663872
-0.0638648
-0.0612878
-0.0585502
-0.0559128
-0.0537726
-0.0510647
-0.0483911
-0.0457571
-0.0434616
-0.0404866
-0.037572
-0.0348297
-0.0319189
-0.0290087
-0.0265151
-0.0238818
-0.0210706
-0.0180304
-0.015309
-0.0125584
-0.00978396
-0.00717586
-0.00382717
-0.00132568
-0.168449
-0.168508
-0.168703
-0.16878
-0.168859
-0.168613
-0.168321
-0.167958
-0.167249
-0.166867
-0.166251
-0.165653
-0.165055
-0.164148
-0.163736
-0.163042
-0.16219
-0.161726
-0.161444
-0.160975
-0.160404
-0.159488
-0.158413
-0.157572
-0.156738
-0.156229
-0.155194
-0.153816
-0.152722
-0.151685
-0.150273
-0.149112
-0.147862
-0.146332
-0.145203
-0.14419
-0.142899
-0.141621
-0.140356
-0.138806
-0.137148
-0.135881
-0.134202
-0.132926
-0.131429
-0.129728
-0.128029
-0.126269
-0.124504
-0.122911
-0.120884
-0.118673
-0.116552
-0.114868
-0.112724
-0.110703
-0.108771
-0.10683
-0.104921
-0.10311
-0.101404
-0.099302
-0.0973396
-0.0951277
-0.0928691
-0.0906331
-0.0886988
-0.0862625
-0.0839556
-0.0812329
-0.0786452
-0.0761493
-0.0739993
-0.0715611
-0.0692528
-0.0665277
-0.0638843
-0.0612999
-0.0587139
-0.05589
-0.0535966
-0.0510663
-0.0484542
-0.0457575
-0.0433887
-0.0404927
-0.0375881
-0.0346755
-0.0319136
-0.0291438
-0.0264965
-0.0238667
-0.0210143
-0.01802
-0.0151262
-0.0127297
-0.00991001
-0.00738683
-0.003956
-0.00131893
-0.168596
-0.168539
-0.168853
-0.16888
-0.168764
-0.168484
-0.168155
-0.167958
-0.167608
-0.16706
-0.166186
-0.165658
-0.165115
-0.164054
-0.163684
-0.163116
-0.162662
-0.162221
-0.161681
-0.161102
-0.160277
-0.159225
-0.158189
-0.15749
-0.156897
-0.156042
-0.155466
-0.154291
-0.153085
-0.151746
-0.150129
-0.148923
-0.148024
-0.146546
-0.145307
-0.144121
-0.142846
-0.141722
-0.140449
-0.13885
-0.137112
-0.135884
-0.134287
-0.132942
-0.131319
-0.129704
-0.12813
-0.126183
-0.124614
-0.123083
-0.121008
-0.118439
-0.116491
-0.114898
-0.113068
-0.110866
-0.10888
-0.106927
-0.10504
-0.103159
-0.101675
-0.0993546
-0.0972203
-0.0950847
-0.092904
-0.0905989
-0.0884964
-0.0865229
-0.0839683
-0.0811069
-0.0785351
-0.07649
-0.0740094
-0.0715906
-0.0689749
-0.0663863
-0.0640517
-0.0613077
-0.0587619
-0.0559945
-0.0535862
-0.0510314
-0.0482737
-0.0457067
-0.0434454
-0.0404881
-0.0376645
-0.0347203
-0.0319292
-0.0292302
-0.0266622
-0.0235844
-0.0209132
-0.0179945
-0.0150129
-0.0126755
-0.0102394
-0.00716725
-0.00402508
-0.00143329
-0.168457
-0.168551
-0.16886
-0.169014
-0.168681
-0.168276
-0.16801
-0.168179
-0.167439
-0.167103
-0.1662
-0.165584
-0.165236
-0.164367
-0.163961
-0.163409
-0.163001
-0.162211
-0.161672
-0.161001
-0.160476
-0.159631
-0.158673
-0.157526
-0.15699
-0.15627
-0.155428
-0.154252
-0.153038
-0.15188
-0.150508
-0.148829
-0.147821
-0.146658
-0.145536
-0.144238
-0.143017
-0.141532
-0.14052
-0.138895
-0.137409
-0.136193
-0.134618
-0.132832
-0.131022
-0.129617
-0.128081
-0.126317
-0.124805
-0.123036
-0.120874
-0.118631
-0.116666
-0.11512
-0.113031
-0.110983
-0.108801
-0.107043
-0.105094
-0.103389
-0.101699
-0.0995772
-0.0973576
-0.0951135
-0.0929211
-0.0905675
-0.0884952
-0.0863427
-0.0839909
-0.0813119
-0.0785765
-0.0766296
-0.0741795
-0.0715937
-0.0691808
-0.0665339
-0.0640591
-0.0613821
-0.0586912
-0.0562121
-0.0534465
-0.0509451
-0.048215
-0.0456652
-0.0431402
-0.0405666
-0.0377758
-0.0348746
-0.0318403
-0.02916
-0.0266465
-0.0236669
-0.020957
-0.0180023
-0.0150188
-0.0126846
-0.0100955
-0.00715934
-0.00418672
-0.00147893
-0.168442
-0.16883
-0.168666
-0.168704
-0.168449
-0.168321
-0.168136
-0.168001
-0.167313
-0.167004
-0.166612
-0.165756
-0.165389
-0.164615
-0.164019
-0.163501
-0.162978
-0.16263
-0.162052
-0.161096
-0.160305
-0.159643
-0.158582
-0.157984
-0.157353
-0.156477
-0.155351
-0.154161
-0.15285
-0.151863
-0.150832
-0.149241
-0.148034
-0.146961
-0.145528
-0.144119
-0.142892
-0.141697
-0.140351
-0.138906
-0.137765
-0.136662
-0.134787
-0.132728
-0.130857
-0.12947
-0.127939
-0.126319
-0.124691
-0.122939
-0.120988
-0.118973
-0.116895
-0.11507
-0.112957
-0.111295
-0.109082
-0.107153
-0.105556
-0.103703
-0.101592
-0.0993189
-0.0972809
-0.0952382
-0.0932285
-0.0908682
-0.0885932
-0.0863541
-0.0840848
-0.0815365
-0.0788516
-0.0765687
-0.0739911
-0.0715612
-0.0690715
-0.0667412
-0.0642978
-0.0614797
-0.0587805
-0.0560457
-0.053349
-0.0508187
-0.0482846
-0.0456848
-0.0432052
-0.0404485
-0.0377396
-0.0348336
-0.0318447
-0.0292002
-0.0265447
-0.0236909
-0.0210035
-0.0180412
-0.0149652
-0.0122323
-0.0100739
-0.00722668
-0.00405007
-0.00158465
-0.168408
-0.16883
-0.168552
-0.168577
-0.168474
-0.16816
-0.168339
-0.168038
-0.167772
-0.167499
-0.166589
-0.16558
-0.165354
-0.164719
-0.164206
-0.163821
-0.163258
-0.162563
-0.161946
-0.161179
-0.16047
-0.159735
-0.158882
-0.158089
-0.157312
-0.156692
-0.155502
-0.154214
-0.15323
-0.151984
-0.15074
-0.14941
-0.148157
-0.146831
-0.145556
-0.144241
-0.143077
-0.141814
-0.14068
-0.139078
-0.137922
-0.136568
-0.134614
-0.132903
-0.131244
-0.129451
-0.127774
-0.126368
-0.12461
-0.122852
-0.121039
-0.119024
-0.116993
-0.115277
-0.113265
-0.111367
-0.109437
-0.107281
-0.105386
-0.10374
-0.101732
-0.0993251
-0.0972293
-0.095612
-0.0934903
-0.0911636
-0.0885317
-0.0862939
-0.0838974
-0.0813487
-0.079086
-0.0766756
-0.0739827
-0.0714937
-0.0690784
-0.0670367
-0.0643978
-0.0614533
-0.0590439
-0.0563893
-0.0535878
-0.0508016
-0.0479159
-0.0456484
-0.0429129
-0.0402545
-0.0378153
-0.0348746
-0.0320443
-0.0292283
-0.0265104
-0.0235325
-0.0208343
-0.0182549
-0.0147984
-0.0121768
-0.00993143
-0.00694174
-0.00409926
-0.00144806
-0.168505
-0.168661
-0.168665
-0.168573
-0.168509
-0.168382
-0.168145
-0.167922
-0.167672
-0.167508
-0.166716
-0.165809
-0.16531
-0.164946
-0.164465
-0.163834
-0.163464
-0.16258
-0.16202
-0.161317
-0.160843
-0.16005
-0.158976
-0.158168
-0.157578
-0.156879
-0.155486
-0.154167
-0.153301
-0.151955
-0.15081
-0.149486
-0.148299
-0.146871
-0.145627
-0.144495
-0.143373
-0.141985
-0.140487
-0.13935
-0.138064
-0.136813
-0.134738
-0.133093
-0.131363
-0.129265
-0.127508
-0.126369
-0.124809
-0.123061
-0.121151
-0.11915
-0.117012
-0.115325
-0.113526
-0.111594
-0.109359
-0.107452
-0.105663
-0.10375
-0.101699
-0.0995664
-0.0976965
-0.0954142
-0.0930696
-0.0910654
-0.0887373
-0.0863348
-0.0839152
-0.0815845
-0.0792944
-0.0769387
-0.0740229
-0.07149
-0.0691406
-0.0671001
-0.0644699
-0.0617809
-0.0592058
-0.0560787
-0.0535247
-0.0506705
-0.0480939
-0.0456674
-0.0428025
-0.0400289
-0.0376204
-0.0348427
-0.0320031
-0.0293583
-0.0263827
-0.023426
-0.0207402
-0.0179257
-0.0148118
-0.0122156
-0.00993775
-0.00699216
-0.00391296
-0.00133995
-0.168438
-0.168567
-0.168613
-0.168445
-0.168385
-0.168343
-0.168224
-0.167917
-0.167488
-0.167164
-0.167111
-0.166341
-0.165497
-0.164993
-0.164773
-0.164078
-0.163552
-0.162519
-0.162154
-0.161438
-0.161073
-0.16044
-0.158979
-0.158108
-0.157604
-0.156945
-0.155861
-0.154347
-0.153331
-0.151977
-0.150524
-0.149416
-0.148525
-0.147189
-0.146123
-0.144503
-0.14335
-0.142143
-0.140912
-0.139416
-0.138126
-0.136478
-0.134799
-0.133178
-0.13152
-0.129726
-0.127734
-0.126326
-0.124855
-0.122895
-0.120938
-0.119178
-0.117196
-0.115501
-0.113792
-0.111607
-0.109566
-0.107519
-0.105512
-0.103591
-0.101749
-0.0995815
-0.0975971
-0.0956147
-0.0934055
-0.0914383
-0.0889117
-0.0865733
-0.0838935
-0.0815838
-0.0789571
-0.076832
-0.0741402
-0.0715523
-0.0694694
-0.0670988
-0.0644532
-0.06183
-0.0592482
-0.0562775
-0.0537998
-0.0509348
-0.0481858
-0.0454167
-0.0427125
-0.0399895
-0.0374327
-0.0348884
-0.03185
-0.029021
-0.0261522
-0.0235477
-0.0207065
-0.0177895
-0.0148468
-0.0124433
-0.00995851
-0.00689263
-0.00384335
-0.00126578
-0.168367
-0.168369
-0.168576
-0.168402
-0.168418
-0.16833
-0.16818
-0.16795
-0.167959
-0.167419
-0.166867
-0.165953
-0.165393
-0.164844
-0.164965
-0.16453
-0.163706
-0.162618
-0.162308
-0.161736
-0.161111
-0.160215
-0.159399
-0.158691
-0.157707
-0.156842
-0.155412
-0.154615
-0.153796
-0.152005
-0.150732
-0.149438
-0.148355
-0.147232
-0.145848
-0.144793
-0.143608
-0.142403
-0.140825
-0.139643
-0.138208
-0.136677
-0.134914
-0.133506
-0.131969
-0.129926
-0.12785
-0.126029
-0.12474
-0.123031
-0.121078
-0.119146
-0.117298
-0.11575
-0.11365
-0.111796
-0.10964
-0.107561
-0.105624
-0.103653
-0.101572
-0.0997255
-0.0977383
-0.0955853
-0.0931439
-0.0913857
-0.0890711
-0.0866564
-0.084024
-0.0816645
-0.0793989
-0.0772304
-0.0741722
-0.0716414
-0.0696355
-0.0670283
-0.0642556
-0.0620951
-0.0592069
-0.0561945
-0.0538507
-0.0507285
-0.0481583
-0.0458557
-0.0428739
-0.0400161
-0.0373548
-0.0348227
-0.0318599
-0.0288816
-0.0261925
-0.0235391
-0.0204479
-0.0176307
-0.0152444
-0.0125063
-0.00964534
-0.00687321
-0.00367072
-0.00125734
-0.168391
-0.168302
-0.168565
-0.168569
-0.16862
-0.168603
-0.16804
-0.16767
-0.167411
-0.167466
-0.167238
-0.166417
-0.165369
-0.16516
-0.164875
-0.164328
-0.163594
-0.163048
-0.162688
-0.162094
-0.161381
-0.160644
-0.159648
-0.158589
-0.157823
-0.156509
-0.155973
-0.15442
-0.153372
-0.152249
-0.150851
-0.149723
-0.148675
-0.147262
-0.14598
-0.145035
-0.143771
-0.142526
-0.140831
-0.139285
-0.138353
-0.136969
-0.13514
-0.133579
-0.131859
-0.130024
-0.127994
-0.126411
-0.124703
-0.122936
-0.120896
-0.119188
-0.117624
-0.11583
-0.113746
-0.111686
-0.110034
-0.107954
-0.10583
-0.103703
-0.101663
-0.0997338
-0.097632
-0.0955157
-0.0932504
-0.0913472
-0.0890281
-0.0867544
-0.0842785
-0.0818959
-0.0796073
-0.076904
-0.0742887
-0.0720588
-0.0696218
-0.0670647
-0.0644428
-0.0618328
-0.0592237
-0.0562824
-0.0540528
-0.0508171
-0.0482759
-0.0457449
-0.0431073
-0.0399483
-0.0374889
-0.0347662
-0.0318418
-0.0289606
-0.0260948
-0.0234019
-0.0205398
-0.0176299
-0.015122
-0.0126637
-0.00960458
-0.00677623
-0.00394942
-0.00132653
-0.168293
-0.168356
-0.168541
-0.168616
-0.16857
-0.168573
-0.168235
-0.167942
-0.167329
-0.167286
-0.167357
-0.166454
-0.165686
-0.165155
-0.164655
-0.16449
-0.164199
-0.163663
-0.162942
-0.16203
-0.161173
-0.160299
-0.159923
-0.159064
-0.158003
-0.156624
-0.155865
-0.154585
-0.153591
-0.15236
-0.150964
-0.14972
-0.148677
-0.147468
-0.146162
-0.14489
-0.143696
-0.142533
-0.141043
-0.139654
-0.138431
-0.136788
-0.135313
-0.133934
-0.13192
-0.130097
-0.128304
-0.126334
-0.124691
-0.123213
-0.121393
-0.119395
-0.117454
-0.115697
-0.113952
-0.111936
-0.1104
-0.108288
-0.105622
-0.103528
-0.101512
-0.0997428
-0.0977555
-0.0957952
-0.0935223
-0.0913105
-0.0889709
-0.086948
-0.0842405
-0.0819659
-0.0794536
-0.077102
-0.0746716
-0.0721423
-0.0695073
-0.0672215
-0.0642925
-0.0618262
-0.0591916
-0.05627
-0.0538451
-0.0508545
-0.048273
-0.0459425
-0.0431548
-0.0399897
-0.03759
-0.0348178
-0.0316383
-0.0287224
-0.0261392
-0.0234752
-0.0207181
-0.0176514
-0.0149281
-0.0125119
-0.00952614
-0.00669185
-0.00391723
-0.00126448
-0.16866
-0.168359
-0.168706
-0.168638
-0.168535
-0.168262
-0.16807
-0.168069
-0.167716
-0.167442
-0.167149
-0.16645
-0.165717
-0.165643
-0.165082
-0.164537
-0.16428
-0.163735
-0.162929
-0.162141
-0.161925
-0.161012
-0.16
-0.15895
-0.157987
-0.156804
-0.155873
-0.15457
-0.153495
-0.152365
-0.151014
-0.149879
-0.148497
-0.147429
-0.146301
-0.145324
-0.144197
-0.142595
-0.140999
-0.139783
-0.138456
-0.136511
-0.135199
-0.134043
-0.132354
-0.130157
-0.128367
-0.126712
-0.124868
-0.122908
-0.121343
-0.119503
-0.117413
-0.115649
-0.114046
-0.112268
-0.110324
-0.108172
-0.106142
-0.103958
-0.101664
-0.0997677
-0.0977212
-0.0956766
-0.0933608
-0.0912902
-0.0892015
-0.0867623
-0.0842311
-0.0817743
-0.0795281
-0.0773852
-0.0746267
-0.0720695
-0.0696567
-0.0671614
-0.0640321
-0.0615919
-0.0590559
-0.0564768
-0.0538482
-0.0509832
-0.0486938
-0.0456205
-0.042793
-0.0401075
-0.0373933
-0.0349014
-0.0319141
-0.028829
-0.0260533
-0.0233285
-0.0204935
-0.0176365
-0.014969
-0.0125698
-0.00950324
-0.00663533
-0.00369807
-0.00128307
-0.168641
-0.168406
-0.168558
-0.168555
-0.168592
-0.168691
-0.168514
-0.168034
-0.167806
-0.167227
-0.167185
-0.166616
-0.165974
-0.165679
-0.165289
-0.164687
-0.164199
-0.163512
-0.163287
-0.162627
-0.161866
-0.160792
-0.159532
-0.158965
-0.158119
-0.157207
-0.156179
-0.154939
-0.153743
-0.152293
-0.151281
-0.150074
-0.148882
-0.147696
-0.146175
-0.145315
-0.143993
-0.142628
-0.140997
-0.139821
-0.138643
-0.13664
-0.135199
-0.13351
-0.132236
-0.130547
-0.128981
-0.127015
-0.125104
-0.12314
-0.121195
-0.119453
-0.117669
-0.115957
-0.114184
-0.112562
-0.11037
-0.107969
-0.106041
-0.104033
-0.101703
-0.0998685
-0.0978987
-0.0958264
-0.0936769
-0.0914306
-0.0892272
-0.0864835
-0.0840146
-0.0818414
-0.0796376
-0.0774021
-0.0749107
-0.0720861
-0.0695108
-0.0672467
-0.0640987
-0.0614556
-0.0590886
-0.0561637
-0.0538027
-0.0509939
-0.0485433
-0.0457271
-0.0426627
-0.0400156
-0.0374834
-0.0348853
-0.0320561
-0.029123
-0.0259485
-0.0231977
-0.0204556
-0.0175021
-0.0151891
-0.0124829
-0.00942045
-0.00653669
-0.00357454
-0.00118579
-0.168679
-0.168634
-0.168505
-0.168627
-0.168753
-0.168515
-0.168371
-0.168148
-0.167823
-0.167597
-0.167145
-0.166579
-0.166073
-0.165665
-0.165461
-0.164813
-0.164525
-0.16394
-0.163417
-0.162438
-0.161755
-0.161057
-0.159868
-0.158895
-0.158154
-0.157222
-0.156226
-0.154949
-0.153936
-0.152397
-0.151108
-0.150006
-0.148893
-0.147843
-0.146633
-0.145427
-0.144098
-0.142825
-0.141363
-0.139845
-0.138828
-0.137165
-0.135443
-0.133582
-0.132362
-0.130521
-0.128972
-0.126821
-0.124888
-0.12336
-0.121034
-0.119735
-0.118076
-0.116326
-0.114133
-0.112538
-0.110448
-0.108352
-0.106169
-0.104074
-0.101905
-0.0997731
-0.0982333
-0.0961462
-0.0937242
-0.0911871
-0.0892328
-0.0864583
-0.0837489
-0.081932
-0.0797588
-0.0774236
-0.0749739
-0.0721154
-0.0694909
-0.0671299
-0.0639352
-0.0614855
-0.0590308
-0.0565875
-0.0541051
-0.0508287
-0.0483769
-0.0455666
-0.042648
-0.039747
-0.037331
-0.0350089
-0.0321363
-0.0291144
-0.0259036
-0.0232909
-0.0205022
-0.0177457
-0.0151245
-0.0122177
-0.0093462
-0.00641278
-0.00373194
-0.00142578
-0.168771
-0.16876
-0.168696
-0.168703
-0.16868
-0.168526
-0.168458
-0.168204
-0.167808
-0.167594
-0.167166
-0.166851
-0.166434
-0.165707
-0.165571
-0.165054
-0.164624
-0.164041
-0.163282
-0.162479
-0.161839
-0.161124
-0.16012
-0.15903
-0.158196
-0.157188
-0.156211
-0.155173
-0.153871
-0.152586
-0.151391
-0.150378
-0.149165
-0.147912
-0.146764
-0.145461
-0.144152
-0.142693
-0.141429
-0.14017
-0.138731
-0.137288
-0.135728
-0.133767
-0.132523
-0.130363
-0.12889
-0.127575
-0.125368
-0.123538
-0.121233
-0.119875
-0.118245
-0.116282
-0.114235
-0.112311
-0.110458
-0.108115
-0.106268
-0.104066
-0.102263
-0.100127
-0.0981798
-0.0962495
-0.0937394
-0.0913333
-0.0891169
-0.086544
-0.0839162
-0.0817559
-0.0798018
-0.0775178
-0.0750779
-0.0720404
-0.0693843
-0.0670614
-0.0641203
-0.0616603
-0.0592577
-0.0564665
-0.0540318
-0.0513055
-0.0484167
-0.0452044
-0.0423735
-0.0397638
-0.037239
-0.0346392
-0.032175
-0.0291442
-0.0258492
-0.0233568
-0.0206751
-0.0176293
-0.0150799
-0.0121162
-0.00949396
-0.00637524
-0.00366623
-0.00131645
-0.168877
-0.168814
-0.16887
-0.168914
-0.1688
-0.168697
-0.168459
-0.168009
-0.167786
-0.167625
-0.167273
-0.167027
-0.166615
-0.165908
-0.165571
-0.165164
-0.164819
-0.164166
-0.163356
-0.162582
-0.161852
-0.161282
-0.160107
-0.158903
-0.158028
-0.15738
-0.156301
-0.15525
-0.15394
-0.152754
-0.151508
-0.150283
-0.149487
-0.148115
-0.146869
-0.145662
-0.144217
-0.142941
-0.141681
-0.140353
-0.138806
-0.137168
-0.135559
-0.133937
-0.132607
-0.130836
-0.128915
-0.127152
-0.125292
-0.123832
-0.121708
-0.12001
-0.118248
-0.116279
-0.114395
-0.11239
-0.110708
-0.108539
-0.10635
-0.103988
-0.102274
-0.100136
-0.0980127
-0.0961345
-0.0941656
-0.0916705
-0.0892454
-0.0864425
-0.0840778
-0.0817683
-0.0794565
-0.0776674
-0.0750598
-0.0721385
-0.0693429
-0.0669595
-0.0642709
-0.0618042
-0.0591107
-0.0565536
-0.0540377
-0.051157
-0.0481874
-0.0450209
-0.0425256
-0.0398545
-0.0374047
-0.0345517
-0.0321227
-0.02891
-0.0259508
-0.0233601
-0.0204867
-0.0174816
-0.0149689
-0.0122042
-0.00950524
-0.00654906
-0.00360147
-0.00121826
-0.168913
-0.168911
-0.168894
-0.168916
-0.168869
-0.16863
-0.168474
-0.168106
-0.167904
-0.167745
-0.167412
-0.167035
-0.166744
-0.166175
-0.165693
-0.165279
-0.164784
-0.164349
-0.163673
-0.162731
-0.161901
-0.16132
-0.160166
-0.158978
-0.157842
-0.157404
-0.156264
-0.155363
-0.154104
-0.152796
-0.151453
-0.150401
-0.149513
-0.148695
-0.147089
-0.145806
-0.144201
-0.142718
-0.141738
-0.140395
-0.138987
-0.137291
-0.135585
-0.134093
-0.132667
-0.131085
-0.129199
-0.12743
-0.125712
-0.123983
-0.121871
-0.119988
-0.118135
-0.116344
-0.11434
-0.112463
-0.11064
-0.108622
-0.106575
-0.104102
-0.102198
-0.100126
-0.0984465
-0.0964301
-0.0939734
-0.0913525
-0.0890953
-0.086881
-0.0842367
-0.0819809
-0.0795627
-0.0775989
-0.0746992
-0.072079
-0.0694135
-0.0668421
-0.0643078
-0.0615605
-0.0591218
-0.0567759
-0.0541087
-0.0511693
-0.0479716
-0.0450553
-0.0427179
-0.0398625
-0.0369654
-0.0345495
-0.0317899
-0.0287247
-0.0260966
-0.0233105
-0.0205288
-0.0174799
-0.0149671
-0.0122686
-0.00928201
-0.00654887
-0.00359692
-0.001334
-0.169014
-0.168928
-0.169047
-0.169039
-0.168922
-0.168804
-0.168422
-0.168396
-0.168182
-0.167569
-0.167266
-0.166965
-0.167079
-0.166436
-0.165979
-0.165424
-0.164949
-0.164283
-0.16352
-0.162564
-0.162068
-0.161407
-0.160206
-0.159002
-0.157816
-0.156848
-0.156205
-0.15577
-0.154394
-0.153008
-0.151654
-0.150638
-0.149474
-0.148495
-0.147078
-0.145977
-0.14463
-0.143175
-0.141841
-0.140406
-0.139079
-0.137398
-0.135537
-0.133957
-0.132655
-0.131298
-0.129632
-0.127333
-0.12585
-0.123827
-0.121775
-0.120064
-0.118241
-0.11631
-0.114178
-0.112423
-0.110782
-0.108652
-0.106499
-0.104027
-0.102508
-0.100201
-0.0983481
-0.0960847
-0.0938266
-0.0915822
-0.0892627
-0.0869769
-0.0843427
-0.08207
-0.0798017
-0.0772699
-0.0746296
-0.0721532
-0.069444
-0.0669245
-0.0643545
-0.0616063
-0.0590638
-0.0564158
-0.0536708
-0.0509924
-0.0483706
-0.0453442
-0.0425403
-0.0398529
-0.0369117
-0.034443
-0.0315732
-0.0285433
-0.0259071
-0.0231748
-0.020646
-0.0176331
-0.0149214
-0.0122393
-0.00942428
-0.00667552
-0.00393725
-0.00148311
-0.169097
-0.169067
-0.169004
-0.168966
-0.1688
-0.169054
-0.168861
-0.168599
-0.168221
-0.167682
-0.167409
-0.167194
-0.166975
-0.166654
-0.166057
-0.16551
-0.16491
-0.164099
-0.163637
-0.162806
-0.162204
-0.161267
-0.160185
-0.159174
-0.158127
-0.157322
-0.156113
-0.155398
-0.154122
-0.152978
-0.151732
-0.150992
-0.149909
-0.148747
-0.147283
-0.146103
-0.144655
-0.143119
-0.14199
-0.140387
-0.139103
-0.137492
-0.135754
-0.134245
-0.132593
-0.131242
-0.12964
-0.127733
-0.125795
-0.124045
-0.122075
-0.120059
-0.118067
-0.116206
-0.11439
-0.112687
-0.110819
-0.108626
-0.106564
-0.104122
-0.102405
-0.100404
-0.0982769
-0.096118
-0.0936237
-0.0915714
-0.0893563
-0.0869447
-0.0846539
-0.0819258
-0.0795974
-0.0772843
-0.0748594
-0.07218
-0.0692071
-0.066712
-0.0643704
-0.0615949
-0.0592358
-0.0563985
-0.0534598
-0.050704
-0.0482397
-0.045224
-0.0425954
-0.0400508
-0.0369513
-0.0342076
-0.0313126
-0.0283882
-0.025743
-0.0234063
-0.0208893
-0.0178839
-0.0150282
-0.0121885
-0.00947511
-0.0065436
-0.00406466
-0.0013134
-0.169123
-0.169131
-0.169327
-0.16925
-0.169021
-0.169107
-0.168714
-0.16848
-0.168464
-0.167817
-0.167411
-0.167074
-0.167107
-0.166857
-0.166424
-0.16526
-0.164857
-0.163723
-0.163568
-0.163089
-0.162222
-0.161508
-0.160359
-0.15938
-0.15814
-0.157255
-0.156028
-0.155274
-0.15438
-0.153204
-0.151727
-0.150884
-0.149785
-0.148799
-0.14765
-0.146266
-0.144825
-0.143287
-0.142162
-0.140449
-0.139026
-0.137565
-0.135896
-0.134201
-0.132669
-0.131226
-0.129658
-0.127734
-0.12571
-0.12415
-0.12221
-0.120047
-0.118118
-0.116408
-0.11463
-0.112756
-0.110403
-0.108449
-0.10654
-0.104346
-0.102533
-0.100532
-0.0984015
-0.0960689
-0.0933045
-0.0910665
-0.0892696
-0.0872655
-0.0850286
-0.0822421
-0.079602
-0.0768748
-0.074653
-0.0721493
-0.0693029
-0.0666835
-0.06399
-0.0616532
-0.0590795
-0.0563719
-0.0535377
-0.0508483
-0.0480253
-0.0454909
-0.0427462
-0.0397811
-0.0368432
-0.0340883
-0.0311116
-0.0282358
-0.0257219
-0.0232656
-0.0209225
-0.0180836
-0.0152059
-0.0124266
-0.00961162
-0.00655133
-0.00389416
-0.0014762
-0.169148
-0.169043
-0.169254
-0.169154
-0.169047
-0.169211
-0.168796
-0.168447
-0.168384
-0.168031
-0.167555
-0.167314
-0.167016
-0.166915
-0.166356
-0.165873
-0.164912
-0.163908
-0.163405
-0.163011
-0.162059
-0.161421
-0.160509
-0.159629
-0.158254
-0.157286
-0.156206
-0.155212
-0.153927
-0.152948
-0.151985
-0.151246
-0.150149
-0.148716
-0.147805
-0.14643
-0.144893
-0.143528
-0.142076
-0.14043
-0.139379
-0.137862
-0.136135
-0.134256
-0.132508
-0.131093
-0.129274
-0.127476
-0.125871
-0.124485
-0.122398
-0.120277
-0.11828
-0.116433
-0.114862
-0.112568
-0.110337
-0.108534
-0.106676
-0.104395
-0.102352
-0.100487
-0.0981381
-0.0957458
-0.0932773
-0.0914955
-0.0894154
-0.0871014
-0.0847051
-0.0819417
-0.0796658
-0.0770067
-0.0744831
-0.0717281
-0.0692841
-0.0668371
-0.0639803
-0.0616478
-0.0588812
-0.0564641
-0.0534281
-0.0503745
-0.0477448
-0.0455673
-0.042924
-0.0400023
-0.0369466
-0.0341729
-0.0310623
-0.0281417
-0.025673
-0.0231257
-0.0208828
-0.0179334
-0.0152143
-0.012794
-0.00963202
-0.00661975
-0.0038734
-0.00140807
-0.169292
-0.169299
-0.16913
-0.16917
-0.169312
-0.169003
-0.168706
-0.168813
-0.168359
-0.167884
-0.167624
-0.16702
-0.167071
-0.167082
-0.166672
-0.165905
-0.164808
-0.164167
-0.163214
-0.162753
-0.162265
-0.161733
-0.160719
-0.159344
-0.158477
-0.157471
-0.156214
-0.155334
-0.153954
-0.153199
-0.152084
-0.15157
-0.150389
-0.148785
-0.14775
-0.146364
-0.145231
-0.143765
-0.142123
-0.14069
-0.139547
-0.137864
-0.136097
-0.134087
-0.132432
-0.13086
-0.129303
-0.127793
-0.126035
-0.124245
-0.122611
-0.120452
-0.118614
-0.116642
-0.11477
-0.112624
-0.110425
-0.108707
-0.106536
-0.104236
-0.102216
-0.10032
-0.0979657
-0.0956792
-0.0935943
-0.0913311
-0.0890644
-0.0870434
-0.0844439
-0.081925
-0.0797789
-0.0769609
-0.0742956
-0.0717762
-0.0691901
-0.066835
-0.0639025
-0.0614209
-0.0590112
-0.0565145
-0.0534845
-0.0507394
-0.0477621
-0.0457772
-0.0429944
-0.039961
-0.0369013
-0.0341741
-0.0309637
-0.0280803
-0.0255524
-0.0229647
-0.020747
-0.01809
-0.0155908
-0.0127777
-0.00971215
-0.00654729
-0.00384771
-0.00145234
-0.169246
-0.169255
-0.169082
-0.169171
-0.169301
-0.169274
-0.169027
-0.168822
-0.168326
-0.168041
-0.168001
-0.166994
-0.167079
-0.167033
-0.166786
-0.166138
-0.164817
-0.164162
-0.163387
-0.163289
-0.1626
-0.161544
-0.160323
-0.159184
-0.158351
-0.15767
-0.156462
-0.155274
-0.154054
-0.153339
-0.152266
-0.151692
-0.150434
-0.148987
-0.147993
-0.146598
-0.145339
-0.14398
-0.142196
-0.140665
-0.139288
-0.137921
-0.136316
-0.13439
-0.132443
-0.130842
-0.129145
-0.127657
-0.126027
-0.124396
-0.122891
-0.120905
-0.118661
-0.116628
-0.11471
-0.112865
-0.110665
-0.108556
-0.106339
-0.104184
-0.102314
-0.100097
-0.0977292
-0.0956933
-0.0936002
-0.0911632
-0.0889186
-0.0870899
-0.0844245
-0.0817369
-0.0793276
-0.0769133
-0.0743523
-0.0716273
-0.0691139
-0.0669728
-0.0639914
-0.0614614
-0.0587766
-0.0562513
-0.0535045
-0.0505933
-0.0480484
-0.0456027
-0.0430772
-0.0401586
-0.0370259
-0.0339554
-0.0311377
-0.0281655
-0.0255677
-0.0229128
-0.0206474
-0.0183954
-0.0156047
-0.0126121
-0.00958038
-0.00668976
-0.00402355
-0.00136765
-0.169316
-0.169436
-0.169339
-0.169354
-0.169158
-0.169114
-0.168962
-0.168859
-0.16863
-0.168246
-0.167728
-0.167402
-0.167264
-0.167199
-0.166643
-0.166045
-0.165093
-0.164362
-0.163651
-0.163052
-0.162156
-0.161457
-0.160622
-0.159498
-0.158482
-0.157514
-0.15642
-0.155431
-0.154508
-0.153493
-0.152241
-0.151656
-0.150463
-0.149193
-0.147963
-0.146842
-0.145373
-0.143989
-0.142499
-0.141109
-0.139527
-0.137918
-0.136245
-0.134497
-0.132567
-0.130823
-0.129047
-0.127689
-0.126305
-0.124609
-0.122635
-0.120657
-0.118653
-0.117035
-0.115087
-0.112895
-0.11077
-0.108456
-0.106273
-0.103968
-0.102115
-0.0998983
-0.0976517
-0.0954546
-0.0934113
-0.0913121
-0.0890362
-0.0868714
-0.0840784
-0.0817339
-0.0794825
-0.0769264
-0.0742689
-0.0716417
-0.0690242
-0.0667944
-0.0636823
-0.0615275
-0.0589363
-0.0564582
-0.0538098
-0.0507943
-0.0481615
-0.0456717
-0.043187
-0.0400086
-0.0367825
-0.0340919
-0.0311731
-0.028154
-0.0255647
-0.0231546
-0.0206394
-0.0183792
-0.0155623
-0.0126959
-0.00950015
-0.00651437
-0.00417378
-0.00127988
-0.169488
-0.169424
-0.169372
-0.169483
-0.1693
-0.169138
-0.169165
-0.168771
-0.168607
-0.168439
-0.167971
-0.167775
-0.167271
-0.167027
-0.166425
-0.165855
-0.165193
-0.164405
-0.163776
-0.163392
-0.162308
-0.161424
-0.16086
-0.159699
-0.158585