/*--------------------------------*- C++ -*----------------------------------*\
| =========                 |                                                 |
| \\      /  F ield         | OpenFOAM: The Open Source CFD Toolbox           |
|  \\    /   O peration     | Version:  v2012                                 |
|   \\  /    A nd           | Website:  www.openfoam.com                      |
|    \\/     M anipulation  |                                                 |
\*---------------------------------------------------------------------------*/
FoamFile
{
    version     2.0;
    format      ascii;
    class       volVectorField;
    location    "0";
    object      U;
}
// * * * * * * * * * * * * * * * * * * * * * * * * * * * * * * * * * * * * * //

dimensions      [0 1 -1 0 0 0 0];


internalField   nonuniform List<vector> 
4000
(
(-0.0372134 -0.000362331 0)
(-0.0879327 -7.16892e-05 0)
(-0.0895414 -0.000127825 0)
(-0.0501983 -0.000117691 0)
(0.00634892 1.72263e-06 0)
(0.0552844 6.54627e-05 0)
(0.0820593 0.000124813 0)
(0.0847384 0.000201999 0)
(0.0694264 0.000103811 0)
(0.0451864 0.00022979 0)
(0.0189912 3.18693e-05 0)
(-0.00491119 0.000237789 0)
(-0.0251112 -2.62417e-05 0)
(-0.0410808 0.00023726 0)
(-0.05285 -7.34902e-05 0)
(-0.0602046 0.000219235 0)
(-0.0631717 -0.000109503 0)
(-0.0619638 0.000196604 0)
(-0.0572065 -0.000129509 0)
(-0.0498048 0.000182176 0)
(-0.0407948 -0.000137314 0)
(-0.0311969 0.000178611 0)
(-0.021875 -0.000140397 0)
(-0.0134835 0.000183778 0)
(-0.00647204 -0.000144053 0)
(-0.00105593 0.000194596 0)
(0.00266934 -0.000150659 0)
(0.00480358 0.000207982 0)
(0.00545988 -0.000160778 0)
(0.00489808 0.000221403 0)
(0.00330696 -0.000173867 0)
(0.000981517 0.000233302 0)
(-0.00190508 -0.000188819 0)
(-0.00509976 0.000243246 0)
(-0.00848891 -0.000204327 0)
(-0.01189 0.000251519 0)
(-0.0152536 -0.000219188 0)
(-0.0184616 0.000258596 0)
(-0.0215094 -0.000232498 0)
(-0.0243195 0.000264877 0)
(-0.0269035 -0.000243757 0)
(-0.029198 0.000270212 0)
(-0.0312054 -0.000252905 0)
(-0.032857 0.000274128 0)
(-0.0341331 -0.000259891 0)
(-0.0349578 0.000276356 0)
(-0.0352964 -0.000264608 0)
(-0.0350855 0.000277366 0)
(-0.0343062 -0.000266439 0)
(-0.0329459 0.000278972 0)
(-0.0310465 -0.000264358 0)
(-0.0286849 0.000284017 0)
(-0.025997 -0.000257147 0)
(-0.0231579 0.00029513 0)
(-0.0203828 -0.00024451 0)
(-0.0178902 0.000312387 0)
(-0.0158864 -0.000228217 0)
(-0.0145113 0.000331359 0)
(-0.0138169 -0.000212488 0)
(-0.0137243 0.00034317 0)
(-0.0140068 -0.000203255 0)
(-0.0143094 0.000338082 0)
(-0.0141434 -0.000205764 0)
(-0.0130116 0.000312217 0)
(-0.0104116 -0.000221293 0)
(-0.00605382 0.000273481 0)
(0.00014451 -0.000245203 0)
(0.0078604 0.000241663 0)
(0.0164089 -0.000268594 0)
(0.0247413 0.00023755 0)
(0.0315253 -0.000284566 0)
(0.0354333 0.000266134 0)
(0.0351934 -0.000290189 0)
(0.0301231 0.000307545 0)
(0.0202413 -0.000288181 0)
(0.00688277 0.00030845 0)
(-0.0071937 -0.000304263 0)
(-0.0180743 0.000208364 0)
(-0.0213237 -0.000344191 0)
(-0.0136058 4.59737e-05 0)
(0.00738843 -0.000344371 0)
(0.0424181 -9.84891e-05 0)
(0.0925148 -0.000356539 0)
(0.157505 -0.000228242 0)
(0.233542 -0.000429537 0)
(0.309285 -0.000105968 0)
(0.366619 -0.000253418 0)
(0.389385 0.000340075 0)
(0.375067 -5.40815e-05 0)
(0.340978 0.000330185 0)
(0.311597 -0.000407902 0)
(0.29666 0.000154303 0)
(0.276724 -0.000247608 0)
(0.217942 0.000737961 0)
(0.114687 0.000319587 0)
(0.0190513 0.000157598 0)
(0.0146131 -0.000504154 0)
(0.140261 -0.000729524 0)
(0.330526 -0.000512216 0)
(0.461979 -0.000165447 0)
(-0.0369997 0.000215313 0)
(-0.0877603 0.000316605 0)
(-0.0895753 0.000183518 0)
(-0.050103 0.000183819 0)
(0.0064836 0.000325635 0)
(0.0553749 0.000404577 0)
(0.0821596 0.000525248 0)
(0.084723 0.000550716 0)
(0.0694468 0.000520325 0)
(0.0451335 0.00054308 0)
(0.018997 0.000442757 0)
(-0.00495394 0.000523411 0)
(-0.0251116 0.000383853 0)
(-0.0411156 0.000506496 0)
(-0.0528633 0.00033007 0)
(-0.0602312 0.000473101 0)
(-0.0631884 0.000280704 0)
(-0.0619785 0.000435925 0)
(-0.0572172 0.000246508 0)
(-0.0498105 0.000407939 0)
(-0.0407975 0.000226309 0)
(-0.0311993 0.000390238 0)
(-0.0218712 0.000213188 0)
(-0.0134862 0.000380425 0)
(-0.00646417 0.000202417 0)
(-0.00106081 0.000376249 0)
(0.00267912 0.000191514 0)
(0.00479613 0.000375124 0)
(0.00546967 0.000178946 0)
(0.00488839 0.000374345 0)
(0.00331562 0.000163903 0)
(0.000970435 0.000372077 0)
(-0.00189787 0.000146605 0)
(-0.00511122 0.00036797 0)
(-0.0084829 0.000128158 0)
(-0.011901 0.000362661 0)
(-0.0152485 0.000110029 0)
(-0.0184715 0.000357191 0)
(-0.0215048 9.34778e-05 0)
(-0.0243278 0.000352414 0)
(-0.0268996 7.91566e-05 0)
(-0.0292047 0.000348393 0)
(-0.0312025 6.69589e-05 0)
(-0.0328622 0.000344629 0)
(-0.0341314 5.66102e-05 0)
(-0.0349613 0.000340837 0)
(-0.0352957 4.84281e-05 0)
(-0.0350869 0.000337935 0)
(-0.034305 4.42307e-05 0)
(-0.0329444 0.000338776 0)
(-0.0310428 4.7227e-05 0)
(-0.0286796 0.000347781 0)
(-0.0259888 6.10723e-05 0)
(-0.0231486 0.000368483 0)
(-0.0203701 8.67159e-05 0)
(-0.0178782 0.000399855 0)
(-0.0158724 0.000119302 0)
(-0.0144997 0.000433263 0)
(-0.0138083 0.000147016 0)
(-0.0137175 0.000452679 0)
(-0.0140105 0.000153872 0)
(-0.0143113 0.000440675 0)
(-0.0141624 0.000127061 0)
(-0.013023 0.000388863 0)
(-0.0104401 6.6141e-05 0)
(-0.00607139 0.000307198 0)
(0.000121099 -1.21469e-05 0)
(0.00784324 0.000225015 0)
(0.0164059 -8.00052e-05 0)
(0.0247296 0.000174645 0)
(0.0315463 -0.000118317 0)
(0.0354291 0.00016808 0)
(0.0352239 -0.000125848 0)
(0.0301246 0.000191995 0)
(0.0202419 -0.000122179 0)
(0.0068709 0.000185105 0)
(-0.00726731 -0.000180541 0)
(-0.0181037 5.13915e-05 0)
(-0.0214431 -0.000323052 0)
(-0.013606 -0.000129402 0)
(0.00728216 -0.00038711 0)
(0.0424091 -0.000222362 0)
(0.0924194 -0.000444525 0)
(0.157451 -0.000423904 0)
(0.233632 -0.000618039 0)
(0.309414 -0.000386194 0)
(0.366947 -0.000232503 0)
(0.389532 0.000387453 0)
(0.37506 0.000308716 0)
(0.340718 0.00035299 0)
(0.311468 -0.000395958 0)
(0.296778 -0.000378052 0)
(0.277154 -0.000239824 0)
(0.218359 0.000938044 0)
(0.114261 0.0010723 0)
(0.0184455 0.000822271 0)
(0.0139607 -0.000627093 0)
(0.140256 -0.00130057 0)
(0.330941 -0.000952853 0)
(0.462478 -0.000314223 0)
(-0.0371389 0.000532517 0)
(-0.0879561 0.000673653 0)
(-0.0896391 0.000704458 0)
(-0.0500937 0.00072643 0)
(0.00651124 0.000765269 0)
(0.0554312 0.000771727 0)
(0.0821667 0.000820301 0)
(0.0847348 0.00077298 0)
(0.0694207 0.000798828 0)
(0.0451293 0.000728551 0)
(0.0189767 0.000769055 0)
(-0.00495452 0.000705698 0)
(-0.0251236 0.000758552 0)
(-0.0411204 0.000695138 0)
(-0.0528746 0.000744346 0)
(-0.060241 0.000677815 0)
(-0.0631991 0.000721887 0)
(-0.0619889 0.000654118 0)
(-0.0572272 0.000694775 0)
(-0.0498196 0.000624049 0)
(-0.0408079 0.000662585 0)
(-0.0312066 0.000587227 0)
(-0.0218823 0.000626809 0)
(-0.0134914 0.00054761 0)
(-0.00647523 0.000592342 0)
(-0.001064 0.000510516 0)
(0.00266839 0.000562633 0)
(0.00479428 0.000478364 0)
(0.00545917 0.000537979 0)
(0.00488692 0.000450451 0)
(0.00330516 0.000516502 0)
(0.000968702 0.00042506 0)
(-0.00190823 0.000496463 0)
(-0.0051134 0.000401047 0)
(-0.00849295 0.000477144 0)
(-0.0119034 0.000378309 0)
(-0.0152577 0.00045893 0)
(-0.0184739 0.000357567 0)
(-0.021513 0.000442663 0)
(-0.0243301 0.000339684 0)
(-0.0269066 0.000428902 0)
(-0.029207 0.000325119 0)
(-0.0312082 0.000417671 0)
(-0.0328647 0.000313813 0)
(-0.0341359 0.000408821 0)
(-0.0349638 0.000305884 0)
(-0.0352986 0.000402966 0)
(-0.0350887 0.000302703 0)
(-0.0343056 0.000402556 0)
(-0.0329438 0.000307179 0)
(-0.0310399 0.000411695 0)
(-0.0286748 0.000323365 0)
(-0.0259818 0.000434517 0)
(-0.0231391 0.000353494 0)
(-0.0203598 0.000471235 0)
(-0.0178663 0.000394456 0)
(-0.0158619 0.000514507 0)
(-0.014491 0.000435031 0)
(-0.0138027 0.000548218 0)
(-0.0137193 0.000457058 0)
(-0.0140157 0.000551661 0)
(-0.0143292 0.000441822 0)
(-0.0141816 0.00050903 0)
(-0.0130564 0.000379791 0)
(-0.0104717 0.000420072 0)
(-0.00611143 0.000278454 0)
(8.40198e-05 0.000304969 0)
(0.00781046 0.000162821 0)
(0.0163719 0.000196742 0)
(0.0247131 6.09991e-05 0)
(0.0315204 0.000118189 0)
(0.0354277 -1.36878e-05 0)
(0.035211 7.26037e-05 0)
(0.0301258 -5.59345e-05 0)
(0.0202362 4.77236e-05 0)
(0.00683982 -8.70304e-05 0)
(-0.00729205 -2.02438e-05 0)
(-0.0181791 -0.00017544 0)
(-0.0214567 -0.000156313 0)
(-0.0136529 -0.000241781 0)
(0.00732004 -0.000179477 0)
(0.0423758 -0.000144769 0)
(0.0923666 -0.000143638 0)
(0.157377 -0.00022115 0)
(0.23357 -0.000328802 0)
(0.309568 -0.000383961 0)
(0.367188 -0.000112747 0)
(0.389783 0.000176008 0)
(0.375042 0.000484521 0)
(0.34046 0.000254492 0)
(0.31106 -0.000158542 0)
(0.296775 -0.000818614 0)
(0.277692 -0.000478858 0)
(0.218907 0.000215274 0)
(0.114602 0.00115501 0)
(0.0178016 0.00142319 0)
(0.0130521 0.000411018 0)
(0.140022 -0.000510696 0)
(0.331252 -0.000621908 0)
(0.462911 -0.000250243 0)
(-0.0368959 0.000767941 0)
(-0.0876339 0.00101822 0)
(-0.0895365 0.0011681 0)
(-0.0500583 0.0012358 0)
(0.00651689 0.00124907 0)
(0.0554153 0.00121657 0)
(0.0821606 0.00119105 0)
(0.0847072 0.00115402 0)
(0.0694141 0.00112079 0)
(0.0451116 0.00111317 0)
(0.0189802 0.00108951 0)
(-0.00496165 0.00110988 0)
(-0.0251193 0.00108425 0)
(-0.041126 0.00111471 0)
(-0.0528761 0.00107878 0)
(-0.0602477 0.00111058 0)
(-0.0632058 0.00106586 0)
(-0.0619984 0.00109331 0)
(-0.0572393 0.00103948 0)
(-0.0498342 0.00105743 0)
(-0.0408246 0.00099449 0)
(-0.0312256 0.00100394 0)
(-0.0219004 0.00093572 0)
(-0.0135116 0.000942752 0)
(-0.00649144 0.000874201 0)
(-0.00108264 0.000884687 0)
(0.0026555 0.000818223 0)
(0.00477799 0.000835019 0)
(0.00544916 0.000770355 0)
(0.00487262 0.000793521 0)
(0.00329698 0.000728946 0)
(0.000955711 0.000757507 0)
(-0.00191552 0.000691613 0)
(-0.00512542 0.000724629 0)
(-0.00849963 0.000656803 0)
(-0.0119144 0.0006939 0)
(-0.0152637 0.000624463 0)
(-0.0184834 0.000665714 0)
(-0.021518 0.000595371 0)
(-0.0243379 0.000640913 0)
(-0.0269103 0.000570305 0)
(-0.029213 0.000620024 0)
(-0.0312108 0.000549559 0)
(-0.0328687 0.000603211 0)
(-0.0341372 0.000533416 0)
(-0.0349656 0.000590891 0)
(-0.035298 0.000522973 0)
(-0.0350872 0.000585101 0)
(-0.0343017 0.000521162 0)
(-0.0329377 0.000589733 0)
(-0.0310308 0.000532498 0)
(-0.0286628 0.000609456 0)
(-0.0259667 0.000560641 0)
(-0.0231216 0.00064611 0)
(-0.02034 0.00060422 0)
(-0.0178464 0.000694457 0)
(-0.0158426 0.000653049 0)
(-0.0144749 0.000739194 0)
(-0.0137921 0.000687568 0)
(-0.013715 0.000757589 0)
(-0.0140217 0.000684396 0)
(-0.0143427 0.000727837 0)
(-0.014208 0.000626895 0)
(-0.0130884 0.000640724 0)
(-0.0105146 0.000515551 0)
(-0.00615604 0.000507457 0)
(3.60806e-05 0.00037133 0)
(0.00776367 0.000358135 0)
(0.016331 0.000226966 0)
(0.0246718 0.000223923 0)
(0.0314914 0.000104234 0)
(0.0353956 0.000117157 0)
(0.0351928 9.31632e-06 0)
(0.0301063 4.18996e-05 0)
(0.0202191 -5.47468e-05 0)
(0.00682091 -1.53162e-05 0)
(-0.00733231 -0.000124767 0)
(-0.0182038 -0.000108725 0)
(-0.0214919 -0.000212642 0)
(-0.013623 -0.000153974 0)
(0.00735347 -0.000136266 0)
(0.0424355 1.46098e-05 0)
(0.0923632 4.53792e-05 0)
(0.157315 4.84174e-05 0)
(0.233512 -0.000100184 0)
(0.309573 -0.000153374 0)
(0.367359 -7.49357e-05 0)
(0.389971 0.000258611 0)
(0.375118 0.000454945 0)
(0.340245 0.000446833 0)
(0.310679 -0.000129301 0)
(0.296542 -0.000693118 0)
(0.277914 -0.000840729 0)
(0.219561 -0.000105294 0)
(0.115149 0.000941472 0)
(0.0178984 0.00172551 0)
(0.0125387 0.00125387 0)
(0.139496 0.000294287 0)
(0.331133 -0.000214525 0)
(0.463119 -0.000140271 0)
(-0.0369549 0.000931007 0)
(-0.0876618 0.00123527 0)
(-0.0894791 0.00147931 0)
(-0.0500342 0.00160579 0)
(0.00649709 0.00162875 0)
(0.0553885 0.00159636 0)
(0.0821207 0.00156155 0)
(0.0846831 0.00150743 0)
(0.0693907 0.00149453 0)
(0.0451063 0.00146119 0)
(0.0189743 0.00147953 0)
(-0.00495836 0.00145824 0)
(-0.02512 0.00148677 0)
(-0.0411244 0.00146248 0)
(-0.0528777 0.00148838 0)
(-0.0602505 0.00145804 0)
(-0.0632117 0.00147658 0)
(-0.0620083 0.00143668 0)
(-0.0572535 0.00144249 0)
(-0.0498526 0.00138881 0)
(-0.0408472 0.00138123 0)
(-0.0312498 0.001316 0)
(-0.0219272 0.00130181 0)
(-0.0135366 0.00123205 0)
(-0.00651787 0.00121979 0)
(-0.00110511 0.00115148 0)
(0.00263196 0.00114618 0)
(0.00475914 0.00108143 0)
(0.00542876 0.00108406 0)
(0.00485653 0.00102194 0)
(0.00327878 0.00103085 0)
(0.000941313 0.000969614 0)
(-0.00193234 0.000983021 0)
(-0.00513898 0.000921374 0)
(-0.00851545 0.000938165 0)
(-0.0119272 0.000875916 0)
(-0.0152784 0.000896038 0)
(-0.0184953 0.000833729 0)
(-0.0215312 0.000857443 0)
(-0.0243485 0.000796021 0)
(-0.0269218 0.000823567 0)
(-0.0292222 0.000763555 0)
(-0.0312205 0.000794852 0)
(-0.0328765 0.000736879 0)
(-0.0341449 0.000771892 0)
(-0.0349715 0.000716848 0)
(-0.0353028 0.000756263 0)
(-0.0350899 0.000706218 0)
(-0.0343021 0.000752035 0)
(-0.0329354 0.000709904 0)
(-0.0310254 0.000764801 0)
(-0.028654 0.000733199 0)
(-0.0259548 0.000798789 0)
(-0.023107 0.000777404 0)
(-0.0203242 0.000851438 0)
(-0.0178303 0.000834695 0)
(-0.0158289 0.000908893 0)
(-0.0144655 0.000885383 0)
(-0.0137891 0.000946025 0)
(-0.0137216 0.000901609 0)
(-0.0140375 0.000934127 0)
(-0.0143715 0.000858213 0)
(-0.0142456 0.000854421 0)
(-0.0131382 0.000746363 0)
(-0.0105696 0.000710444 0)
(-0.00621745 0.000581605 0)
(-2.57422e-05 0.000530819 0)
(0.00770435 0.00040007 0)
(0.0162732 0.000356491 0)
(0.0246229 0.000236908 0)
(0.0314419 0.000212512 0)
(0.0353579 0.000104216 0)
(0.0351556 0.000101322 0)
(0.0300787 4.07349e-06 0)
(0.0201941 1.89039e-05 0)
(0.00678829 -7.35015e-05 0)
(-0.00736077 -7.09928e-05 0)
(-0.0182438 -0.000170076 0)
(-0.0214899 -0.000170512 0)
(-0.0135968 -0.00019008 0)
(0.00744397 -8.23286e-05 0)
(0.0425093 4.43371e-05 0)
(0.0923914 0.000163237 0)
(0.15727 0.000178289 0)
(0.233421 0.00010319 0)
(0.309587 5.07043e-06 0)
(0.367491 0.000120555 0)
(0.390173 0.000339798 0)
(0.37518 0.000624866 0)
(0.34003 0.000540992 0)
(0.310221 0.000102163 0)
(0.296252 -0.000622917 0)
(0.278124 -0.000770255 0)
(0.220217 -0.000289546 0)
(0.115948 0.000859987 0)
(0.0180313 0.00176817 0)
(0.0119997 0.00156677 0)
(0.138942 0.000724824 0)
(0.330932 0.000125664 0)
(0.463172 -1.92179e-05 0)
(-0.0366722 0.00126447 0)
(-0.0872307 0.00152705 0)
(-0.089264 0.00179523 0)
(-0.0499484 0.00195718 0)
(0.00650991 0.00201185 0)
(0.055366 0.00200227 0)
(0.0820952 0.00197094 0)
(0.0846579 0.00194015 0)
(0.0693801 0.00191646 0)
(0.0451005 0.00191232 0)
(0.018978 0.00190778 0)
(-0.00495633 0.00191905 0)
(-0.0251162 0.00191522 0)
(-0.0411248 0.00192495 0)
(-0.0528793 0.00191271 0)
(-0.0602563 0.00191547 0)
(-0.0632215 0.00189204 0)
(-0.0620235 0.00188235 0)
(-0.0572745 0.0018432 0)
(-0.0498792 0.00181707 0)
(-0.0408781 0.00176248 0)
(-0.0312839 0.00172406 0)
(-0.0219621 0.0016616 0)
(-0.0135718 0.0016204 0)
(-0.00655069 0.00155896 0)
(-0.00113674 0.00152256 0)
(0.002604 0.00146685 0)
(0.00473233 0.00143799 0)
(0.00540545 0.00138821 0)
(0.00483352 0.00136574 0)
(0.00325853 0.00131958 0)
(0.000920585 0.00130132 0)
(-0.00195095 0.00125658 0)
(-0.0051584 0.00124073 0)
(-0.00853304 0.00119645 0)
(-0.0119454 0.00118262 0)
(-0.0152947 0.00113902 0)
(-0.0185118 0.00112767 0)
(-0.0215457 0.00108559 0)
(-0.0243629 0.00107751 0)
(-0.0269342 0.00103778 0)
(-0.0292341 0.00103333 0)
(-0.0312304 0.000996384 0)
(-0.0328856 0.000995822 0)
(-0.034152 0.000962303 0)
(-0.0349771 0.000966331 0)
(-0.0353058 0.000937704 0)
(-0.0350903 0.000948447 0)
(-0.034299 0.000927739 0)
(-0.0329284 0.000948329 0)
(-0.0310137 0.000939 0)
(-0.0286379 0.000972388 0)
(-0.0259342 0.000976086 0)
(-0.023083 0.00102167 0)
(-0.0202979 0.00103493 0)
(-0.0178042 0.00108576 0)
(-0.0158053 0.00109791 0)
(-0.0144477 0.00113988 0)
(-0.0137801 0.00113443 0)
(-0.0137238 0.00115003 0)
(-0.0140536 0.00111085 0)
(-0.0144013 0.00108689 0)
(-0.0142903 0.00100667 0)
(-0.0131943 0.000942706 0)
(-0.0106357 0.000828955 0)
(-0.00628814 0.00074008 0)
(-9.74189e-05 0.000614026 0)
(0.00763543 0.000525372 0)
(0.016211 0.000410534 0)
(0.0245659 0.000340906 0)
(0.0313937 0.00024654 0)
(0.0353138 0.000197979 0)
(0.0351191 0.000121058 0)
(0.0300457 8.89991e-05 0)
(0.020162 2.36301e-05 0)
(0.00675483 -6.24893e-06 0)
(-0.0074034 -8.08903e-05 0)
(-0.0182769 -0.000124829 0)
(-0.0215067 -0.000182619 0)
(-0.0135582 -0.000156717 0)
(0.00752581 -7.31405e-05 0)
(0.0426159 9.54611e-05 0)
(0.0924617 0.000235874 0)
(0.157271 0.000313259 0)
(0.233385 0.000271101 0)
(0.309586 0.000237501 0)
(0.367605 0.000311345 0)
(0.390342 0.000557715 0)
(0.375266 0.000769912 0)
(0.339861 0.00075273 0)
(0.309823 0.000274173 0)
(0.295901 -0.000357651 0)
(0.278159 -0.000672588 0)
(0.220759 -0.00024671 0)
(0.116662 0.000758305 0)
(0.0184181 0.00168216 0)
(0.0117715 0.00170704 0)
(0.138436 0.00103118 0)
(0.330585 0.000377287 0)
(0.463041 7.419e-05 0)
(-0.0367618 0.00149603 0)
(-0.0872716 0.00178059 0)
(-0.0891628 0.00206327 0)
(-0.0498749 0.00224943 0)
(0.00653027 0.00233116 0)
(0.0553584 0.00234746 0)
(0.082075 0.00233784 0)
(0.084643 0.00231881 0)
(0.0693702 0.00231417 0)
(0.0450999 0.00231062 0)
(0.0189792 0.00232415 0)
(-0.00495292 0.00232721 0)
(-0.0251157 0.00234099 0)
(-0.0411263 0.00233592 0)
(-0.0528846 0.0023397 0)
(-0.0602657 0.00232188 0)
(-0.0632361 0.00231089 0)
(-0.0620443 0.00227582 0)
(-0.0573015 0.00224542 0)
(-0.049912 0.00219095 0)
(-0.0409156 0.00214317 0)
(-0.031324 0.00207542 0)
(-0.0220034 0.00202018 0)
(-0.0136121 0.00195009 0)
(-0.00658977 0.00189787 0)
(-0.0011728 0.00183331 0)
(0.00256983 0.0017895 0)
(0.00470134 0.0017327 0)
(0.00537566 0.00169714 0)
(0.00480613 0.00164604 0)
(0.00323144 0.00161596 0)
(0.000895025 0.00156763 0)
(-0.00197687 0.00154028 0)
(-0.00518311 0.00149262 0)
(-0.00855818 0.00146685 0)
(-0.0119694 0.00141968 0)
(-0.0153187 0.00139573 0)
(-0.0185345 0.00134988 0)
(-0.021568 0.00132877 0)
(-0.0243836 0.00128548 0)
(-0.0269543 0.00126809 0)
(-0.0292526 0.00122811 0)
(-0.031248 0.00121497 0)
(-0.0329015 0.00117889 0)
(-0.0341666 0.00117051 0)
(-0.0349895 0.00113959 0)
(-0.0353159 0.00113776 0)
(-0.0350972 0.00111484 0)
(-0.0343022 0.00112288 0)
(-0.0329271 0.00111187 0)
(-0.0310076 0.00113382 0)
(-0.0286267 0.00113816 0)
(-0.0259185 0.00117565 0)
(-0.0230637 0.00119424 0)
(-0.020277 0.00124286 0)
(-0.017784 0.00126698 0)
(-0.0157891 0.0013136 0)
(-0.0144386 0.00132615 0)
(-0.0137817 0.001351 0)
(-0.0137389 0.00133157 0)
(-0.0140839 0.0013155 0)
(-0.014448 0.00124965 0)
(-0.0143516 0.00118472 0)
(-0.0132689 0.00107373 0)
(-0.0107186 0.000970114 0)
(-0.00637545 0.000833458 0)
(-0.000183611 0.00071797 0)
(0.00755479 0.000585579 0)
(0.0161376 0.000487297 0)
(0.0245024 0.000379894 0)
(0.0313368 0.000310602 0)
(0.0352657 0.000227857 0)
(0.0350756 0.000181572 0)
(0.0300071 0.000113545 0)
(0.0201241 7.75356e-05 0)
(0.00671152 7.64572e-06 0)
(-0.00744793 -4.26579e-05 0)
(-0.0183185 -0.000123029 0)
(-0.0215134 -0.000158589 0)
(-0.0135162 -0.000154421 0)
(0.00762939 -4.70849e-05 0)
(0.0427367 0.000123066 0)
(0.0925516 0.000305006 0)
(0.157296 0.000417521 0)
(0.233366 0.000443904 0)
(0.309616 0.000444514 0)
(0.367726 0.000560428 0)
(0.39051 0.000775045 0)
(0.375324 0.000991748 0)
(0.339666 0.00093031 0)
(0.309405 0.00050052 0)
(0.295556 -0.000146876 0)
(0.278206 -0.000458122 0)
(0.22127 -0.000158687 0)
(0.117367 0.000742609 0)
(0.0187289 0.00158848 0)
(0.011521 0.00169114 0)
(0.137964 0.00115824 0)
(0.330228 0.000564936 0)
(0.46284 0.000158314 0)
(-0.0364629 0.00194798 0)
(-0.0868136 0.00214528 0)
(-0.0889193 0.00239889 0)
(-0.0497514 0.00258901 0)
(0.00658203 0.00269016 0)
(0.0553709 0.00272864 0)
(0.0820741 0.00273627 0)
(0.0846405 0.00273761 0)
(0.0693741 0.00274171 0)
(0.0451079 0.00275544 0)
(0.0189903 0.00277011 0)
(-0.00494395 0.00278802 0)
(-0.0251098 0.00279704 0)
(-0.0411258 0.00280398 0)
(-0.0528896 0.00279749 0)
(-0.0602775 0.00278702 0)
(-0.0632553 0.00276022 0)
(-0.0620716 0.00272752 0)
(-0.0573369 0.00267718 0)
(-0.0499544 0.00262193 0)
(-0.040963 0.0025523 0)
(-0.0313743 0.00248331 0)
(-0.0220542 0.0024064 0)
(-0.0136617 0.0023365 0)
(-0.0066365 0.00226362 0)
(-0.00121641 0.00220157 0)
(0.00253007 0.00213801 0)
(0.00466443 0.00208575 0)
(0.00534179 0.00203054 0)
(0.00477388 0.00198537 0)
(0.00320094 0.00193497 0)
(0.000865011 0.00189324 0)
(-0.00200602 0.00184438 0)
(-0.00521235 0.00180375 0)
(-0.00858657 0.00175521 0)
(-0.0119976 0.00171544 0)
(-0.0153459 0.00166781 0)
(-0.018561 0.00163002 0)
(-0.021593 0.00158479 0)
(-0.0244074 0.00155041 0)
(-0.0269763 0.00150876 0)
(-0.0292731 0.00147869 0)
(-0.0312665 0.00144149 0)
(-0.0329182 0.00141645 0)
(-0.0341808 0.00138456 0)
(-0.0350011 0.00136587 0)
(-0.035324 0.0013417 0)
(-0.0351012 0.00133265 0)
(-0.0343011 0.00132014 0)
(-0.0329202 0.00132521 0)
(-0.0309944 0.00132909 0)
(-0.028607 0.001352 0)
(-0.0258929 0.00137375 0)
(-0.0230334 0.00141298 0)
(-0.0202444 0.00144703 0)
(-0.0177521 0.00149193 0)
(-0.0157618 0.00152254 0)
(-0.0144201 0.00155312 0)
(-0.0137761 0.00155752 0)
(-0.0137498 0.00155015 0)
(-0.0141138 0.00150698 0)
(-0.0144974 0.0014457 0)
(-0.0144196 0.00134749 0)
(-0.013352 0.00123492 0)
(-0.0108124 0.00109526 0)
(-0.00647351 0.000955534 0)
(-0.000279665 0.000806392 0)
(0.00746584 0.000675158 0)
(0.0160598 0.000549275 0)
(0.024436 0.00045107 0)
(0.0312819 0.000360173 0)
(0.035219 0.000293979 0)
(0.035035 0.000227727 0)
(0.0299691 0.000178185 0)
(0.0200841 0.000119058 0)
(0.00666641 6.41867e-05 0)
(-0.00749947 -9.75897e-06 0)
(-0.0183622 -7.6618e-05 0)
(-0.0215297 -0.00012677 0)
(-0.0134762 -0.000106921 0)
(0.00772988 3.54859e-07 0)
(0.0428748 0.000193523 0)
(0.0926782 0.000402369 0)
(0.157373 0.000565821 0)
(0.233405 0.000644152 0)
(0.309671 0.000704772 0)
(0.367848 0.000828655 0)
(0.390659 0.00104474 0)
(0.37538 0.00121354 0)
(0.3395 0.00114882 0)
(0.309031 0.00071536 0)
(0.295196 0.000118088 0)
(0.27815 -0.000238565 0)
(0.221642 -1.30161e-05 0)
(0.117946 0.000731176 0)
(0.0191156 0.00148722 0)
(0.0114552 0.00167365 0)
(0.137608 0.001285 0)
(0.32985 0.000714057 0)
(0.462509 0.000221922 0)
(-0.0366167 0.00224772 0)
(-0.08694 0.00246877 0)
(-0.0888365 0.0027133 0)
(-0.0496608 0.0029033 0)
(0.00663289 0.00301574 0)
(0.0553923 0.00306918 0)
(0.0820816 0.00309172 0)
(0.0846471 0.00310465 0)
(0.0693833 0.00312265 0)
(0.0451209 0.00314502 0)
(0.0190032 0.00317303 0)
(-0.00493307 0.00319638 0)
(-0.025104 0.00321674 0)
(-0.0411259 0.00322472 0)
(-0.0528971 0.00322526 0)
(-0.0602931 0.00320974 0)
(-0.0632798 0.00318397 0)
(-0.0621053 0.00314002 0)
(-0.0573791 0.00308539 0)
(-0.0500038 0.00301472 0)
(-0.0410175 0.00293816 0)
(-0.0314312 0.00285257 0)
(-0.0221114 0.00276884 0)
(-0.0137171 0.0026831 0)
(-0.00668899 0.00260516 0)
(-0.00126517 0.00252886 0)
(0.00248464 0.00246228 0)
(0.00462226 0.00239687 0)
(0.00530185 0.0023401 0)
(0.00473585 0.00228213 0)
(0.00316372 0.00223074 0)
(0.000828402 0.00217567 0)
(-0.00204261 0.00212579 0)
(-0.00524874 0.00207107 0)
(-0.00862307 0.00202146 0)
(-0.0120336 0.00196679 0)
(-0.0153815 0.00191817 0)
(-0.0185956 0.00186526 0)
(-0.0216266 0.00181953 0)
(-0.0244395 0.00177004 0)
(-0.027007 0.00172866 0)
(-0.0293021 0.00168395 0)
(-0.0312938 0.00164796 0)
(-0.0329434 0.00160895 0)
(-0.0342037 0.00157942 0)
(-0.0350211 0.00154793 0)
(-0.0353403 0.00152763 0)
(-0.0351132 0.00150736 0)
(-0.0343077 0.00150089 0)
(-0.0329206 0.00149724 0)
(-0.0309879 0.00150981 0)
(-0.0285939 0.00152666 0)
(-0.0258737 0.0015597 0)
(-0.0230099 0.00159491 0)
(-0.020219 0.00164141 0)
(-0.0177285 0.00168216 0)
(-0.0157441 0.00172371 0)
(-0.0144129 0.00174693 0)
(-0.0137838 0.00175733 0)
(-0.0137761 0.00173621 0)
(-0.0141607 0.0016916 0)
(-0.0145653 0.00160916 0)
(-0.0145065 0.00150223 0)
(-0.0134543 0.00136314 0)
(-0.010924 0.00121118 0)
(-0.00658786 0.00104466 0)
(-0.000389746 0.000885534 0)
(0.00736568 0.000732548 0)
(0.0159728 0.000603931 0)
(0.0243633 0.00049176 0)
(0.0312213 0.000406371 0)
(0.0351683 0.000331824 0)
(0.0349904 0.000275393 0)
(0.0299272 0.000217841 0)
(0.0200402 0.000166697 0)
(0.00661678 0.000101044 0)
(-0.00755149 3.28434e-05 0)
(-0.0184046 -4.14759e-05 0)
(-0.0215357 -8.18214e-05 0)
(-0.0134228 -5.90443e-05 0)
(0.00785031 6.55189e-05 0)
(0.0430322 0.000275971 0)
(0.0928253 0.000520412 0)
(0.157474 0.000727478 0)
(0.233468 0.000866328 0)
(0.309752 0.000973496 0)
(0.367976 0.00112759 0)
(0.390793 0.00132552 0)
(0.3754 0.00146618 0)
(0.3393 0.00136091 0)
(0.308647 0.000935006 0)
(0.294854 0.000348083 0)
(0.278109 -8.17932e-06 0)
(0.221983 0.000137089 0)
(0.11847 0.000760494 0)
(0.0194219 0.00141943 0)
(0.0113723 0.00163213 0)
(0.137259 0.0013476 0)
(0.329447 0.000839815 0)
(0.462152 0.000282003 0)
(-0.0363004 0.00276585 0)
(-0.0864713 0.00289746 0)
(-0.0885997 0.00310303 0)
(-0.0495291 0.00328068 0)
(0.00670405 0.00339509 0)
(0.0554267 0.00345475 0)
(0.0821002 0.00348412 0)
(0.0846632 0.00350611 0)
(0.0694038 0.00353211 0)
(0.0451449 0.00356592 0)
(0.019028 0.00360229 0)
(-0.00491179 0.00363734 0)
(-0.0250889 0.00366389 0)
(-0.0411196 0.00368074 0)
(-0.0529006 0.00368266 0)
(-0.0603079 0.00367029 0)
(-0.0633066 0.00363937 0)
(-0.0621441 0.00359223 0)
(-0.057429 0.00352669 0)
(-0.0500626 0.00344831 0)
(-0.0410822 0.00335794 0)
(-0.0314989 0.00326323 0)
(-0.0221788 0.00316542 0)
(-0.0137821 0.00307142 0)
(-0.00674992 0.00298067 0)
(-0.00132146 0.00289783 0)
(0.00243304 0.00281976 0)
(0.00457459 0.00274929 0)
(0.00525741 0.00268173 0)
(0.00469348 0.00261941 0)
(0.00312266 0.00255707 0)
(0.000787804 0.00249751 0)
(-0.00208297 0.00243606 0)
(-0.00528906 0.00237651 0)
(-0.00866328 0.00231458 0)
(-0.0120735 0.0022549 0)
(-0.0154206 0.00219357 0)
(-0.0186335 0.0021358 0)
(-0.021663 0.00207737 0)
(-0.0244742 0.00202349 0)
(-0.0270396 0.00196985 0)
(-0.0293324 0.00192155 0)
(-0.0313217 0.00187395 0)
(-0.0329686 0.00183225 0)
(-0.0342257 0.00179209 0)
(-0.0350391 0.00175933 0)
(-0.0353538 0.00172985 0)
(-0.0351208 0.00171009 0)
(-0.0343085 0.00169664 0)
(-0.0329136 0.00169603 0)
(-0.0309727 0.00170424 0)
(-0.0285704 0.00172676 0)
(-0.0258427 0.00175793 0)
(-0.0229734 0.00180068 0)
(-0.0201802 0.00184613 0)
(-0.0176915 0.00189404 0)
(-0.0157142 0.00193257 0)
(-0.0143953 0.0019593 0)
(-0.013784 0.0019614 0)
(-0.0137981 0.00193718 0)
(-0.0142072 0.00187699 0)
(-0.0146366 0.00178404 0)
(-0.0146005 0.00165514 0)
(-0.013566 0.00150058 0)
(-0.0110466 0.00132446 0)
(-0.0067129 0.00114293 0)
(-0.000509138 0.000963217 0)
(0.00725885 0.000801199 0)
(0.0158828 0.000659813 0)
(0.0242909 0.000547249 0)
(0.0311644 0.000456593 0)
(0.0351228 0.00038809 0)
(0.0349514 0.000329446 0)
(0.0298894 0.000278746 0)
(0.0199983 0.00022334 0)
(0.00656812 0.000162297 0)
(-0.00760418 9.02538e-05 0)
(-0.0184464 2.37604e-05 0)
(-0.0215426 -1.20022e-05 0)
(-0.0133677 2.65747e-05 0)
(0.00797625 0.000166636 0)
(0.0432095 0.000403396 0)
(0.0930103 0.000682622 0)
(0.157628 0.000939216 0)
(0.233586 0.00113242 0)
(0.309864 0.00128859 0)
(0.368107 0.00145609 0)
(0.390908 0.00163796 0)
(0.375406 0.00173213 0)
(0.339109 0.00159661 0)
(0.308286 0.00116512 0)
(0.294503 0.000601605 0)
(0.277995 0.00022628 0)
(0.222207 0.000300846 0)
(0.118889 0.000798292 0)
(0.0197566 0.00137503 0)
(0.0114024 0.00162561 0)
(0.137026 0.00143845 0)
(0.329067 0.000949049 0)
(0.461684 0.000329426 0)
(-0.03652 0.00310183 0)
(-0.0866921 0.00326816 0)
(-0.0885547 0.00346588 0)
(-0.049446 0.00363518 0)
(0.00676093 0.00374713 0)
(0.0554578 0.00380615 0)
(0.0821195 0.0038357 0)
(0.0846824 0.00385921 0)
(0.0694274 0.00389079 0)
(0.0451724 0.00393227 0)
(0.0190557 0.00397994 0)
(-0.00488776 0.00402536 0)
(-0.025072 0.00406366 0)
(-0.0411121 0.00408854 0)
(-0.0529047 0.00409807 0)
(-0.0603249 0.00408783 0)
(-0.0633372 0.00405774 0)
(-0.0621881 0.00400552 0)
(-0.0574849 0.00393419 0)
(-0.0501279 0.00384533 0)
(-0.0411536 0.00374531 0)
(-0.0315728 0.00363786 0)
(-0.0222524 0.00352964 0)
(-0.0138529 0.00342332 0)
(-0.00681664 0.00332349 0)
(-0.00138345 0.00322984 0)
(0.00237544 0.0031443 0)
(0.00452083 0.00306434 0)
(0.00520636 0.00299046 0)
(0.0046442 0.00291909 0)
(0.00307405 0.00285057 0)
(0.00073943 0.00278165 0)
(-0.00213165 0.00271377 0)
(-0.00533799 0.00264423 0)
(-0.00871253 0.00257538 0)
(-0.0121226 0.00250525 0)
(-0.0154691 0.00243697 0)
(-0.018681 0.00236866 0)
(-0.0217092 0.00230351 0)
(-0.0245186 0.00223951 0)
(-0.027082 0.00217983 0)
(-0.0293726 0.00212213 0)
(-0.0313595 0.00206933 0)
(-0.0330036 0.00201921 0)
(-0.0342574 0.00197519 0)
(-0.0350668 0.00193537 0)
(-0.0353765 0.00190373 0)
(-0.0351375 0.00187903 0)
(-0.034318 0.00186588 0)
(-0.0329149 0.00186303 0)
(-0.0309653 0.00187442 0)
(-0.0285544 0.00189761 0)
(-0.0258193 0.00193462 0)
(-0.022945 0.00197994 0)
(-0.0201503 0.00203202 0)
(-0.0176648 0.00208185 0)
(-0.0156961 0.0021247 0)
(-0.0143917 0.00214911 0)
(-0.0138001 0.00214949 0)
(-0.0138381 0.00211564 0)
(-0.0142732 0.00204569 0)
(-0.0147284 0.00193518 0)
(-0.0147149 0.00178948 0)
(-0.0136974 0.00161257 0)
(-0.011187 0.00141767 0)
(-0.00685341 0.00121509 0)
(-0.000640994 0.0010211 0)
(0.0071427 0.000845492 0)
(0.0157861 0.000699272 0)
(0.024214 0.000582861 0)
(0.0311043 0.000496459 0)
(0.0350749 0.000430844 0)
(0.0349101 0.00038032 0)
(0.0298493 0.000332665 0)
(0.0199547 0.000282938 0)
(0.00651903 0.000222142 0)
(-0.00765325 0.000154875 0)
(-0.0184797 9.23637e-05 0)
(-0.0215335 6.83664e-05 0)
(-0.0132913 0.000121316 0)
(0.00812746 0.00028349 0)
(0.0434117 0.000547743 0)
(0.0932194 0.000866089 0)
(0.157805 0.00117145 0)
(0.233725 0.00142116 0)
(0.30999 0.00162255 0)
(0.368233 0.00181041 0)
(0.390996 0.00197239 0)
(0.37537 0.00202432 0)
(0.338883 0.00184371 0)
(0.307916 0.00139828 0)
(0.294164 0.000837708 0)
(0.277888 0.000453007 0)
(0.222403 0.000463213 0)
(0.11926 0.000858511 0)
(0.0200303 0.00135764 0)
(0.0114191 0.00162139 0)
(0.136761 0.00150222 0)
(0.328631 0.00105337 0)
(0.461212 0.00037771 0)
(-0.0361781 0.00364639 0)
(-0.0862036 0.0037343 0)
(-0.0883298 0.00389562 0)
(-0.0493223 0.00404813 0)
(0.00682973 0.00414938 0)
(0.0554918 0.00419958 0)
(0.0821392 0.00422187 0)
(0.0847037 0.00424209 0)
(0.0694576 0.00427487 0)
(0.0452104 0.00432281 0)
(0.0190965 0.00437934 0)
(-0.00485024 0.0044363 0)
(-0.0250424 0.00448521 0)
(-0.0410943 0.00452055 0)
(-0.0529011 0.00453705 0)