/*--------------------------------*- C++ -*----------------------------------*\
| =========                 |                                                 |
| \\      /  F ield         | OpenFOAM: The Open Source CFD Toolbox           |
|  \\    /   O peration     | Version:  v2012                                 |
|   \\  /    A nd           | Website:  www.openfoam.com                      |
|    \\/     M anipulation  |                                                 |
\*---------------------------------------------------------------------------*/
FoamFile
{
    version     2.0;
    format      ascii;
    class       volScalarField;
    location    "0";
    object      pRec;
}
// * * * * * * * * * * * * * * * * * * * * * * * * * * * * * * * * * * * * * //

dimensions      [0 2 -2 0 0 0 0];


internalField   nonuniform List<scalar> 
4000
(
-6.93339e-13
-6.8779e-13
-6.89012e-13
-6.92005e-13
-6.8985e-13
-6.90393e-13
-6.89006e-13
-6.8399e-13
-6.73898e-13
-6.69972e-13
-6.71161e-13
-6.65654e-13
-6.54917e-13
-6.41054e-13
-6.27408e-13
-6.20926e-13
-6.16328e-13
-6.13775e-13
-6.06524e-13
-5.92964e-13
-5.8205e-13
-5.74954e-13
-5.69668e-13
-5.62284e-13
-5.5174e-13
-5.40974e-13
-5.38916e-13
-5.33371e-13
-5.26946e-13
-5.15945e-13
-4.99917e-13
-4.92999e-13
-4.90954e-13
-4.89005e-13
-4.84016e-13
-4.81013e-13
-4.71767e-13
-4.53362e-13
-4.359e-13
-4.32248e-13
-4.32837e-13
-4.31011e-13
-4.31197e-13
-4.24941e-13
-4.13656e-13
-4.04727e-13
-3.95917e-13
-3.86642e-13
-3.77311e-13
-3.69441e-13
-3.60445e-13
-3.52363e-13
-3.44965e-13
-3.36025e-13
-3.27813e-13
-3.15187e-13
-3.08249e-13
-3.05363e-13
-3.02844e-13
-2.9978e-13
-2.91551e-13
-2.84298e-13
-2.74245e-13
-2.62343e-13
-2.54178e-13
-2.46805e-13
-2.42483e-13
-2.34397e-13
-2.2375e-13
-2.16268e-13
-2.08902e-13
-2.02027e-13
-1.89074e-13
-1.82052e-13
-1.80923e-13
-1.76609e-13
-1.72836e-13
-1.66504e-13
-1.57469e-13
-1.44442e-13
-1.31797e-13
-1.26167e-13
-1.17599e-13
-1.13283e-13
-1.08831e-13
-1.0313e-13
-9.39625e-14
-8.61084e-14
-8.2619e-14
-7.86422e-14
-7.26438e-14
-6.61925e-14
-5.91994e-14
-5.35748e-14
-4.46004e-14
-3.55955e-14
-2.75909e-14
-1.95641e-14
-1.10334e-14
-2.71219e-15
-6.89931e-13
-6.88685e-13
-6.91851e-13
-6.91756e-13
-6.92338e-13
-6.89068e-13
-6.86178e-13
-6.83826e-13
-6.78439e-13
-6.73405e-13
-6.67621e-13
-6.62271e-13
-6.53105e-13
-6.41636e-13
-6.30574e-13
-6.24141e-13
-6.19263e-13
-6.12333e-13
-6.03525e-13
-5.96195e-13
-5.85613e-13
-5.73663e-13
-5.65839e-13
-5.59066e-13
-5.49603e-13
-5.43498e-13
-5.40157e-13
-5.3412e-13
-5.2578e-13
-5.12283e-13
-5.03041e-13
-4.96363e-13
-4.90394e-13
-4.85833e-13
-4.81448e-13
-4.77322e-13
-4.69825e-13
-4.56969e-13
-4.42799e-13
-4.3633e-13
-4.32684e-13
-4.30391e-13
-4.27969e-13
-4.22992e-13
-4.15242e-13
-4.04911e-13
-3.945e-13
-3.86539e-13
-3.77546e-13
-3.67018e-13
-3.59365e-13
-3.51485e-13
-3.4497e-13
-3.37195e-13
-3.2894e-13
-3.17898e-13
-3.08112e-13
-3.03623e-13
-3.01138e-13
-2.98303e-13
-2.93741e-13
-2.8434e-13
-2.75293e-13
-2.6409e-13
-2.55877e-13
-2.46652e-13
-2.40057e-13
-2.33522e-13
-2.25878e-13
-2.17688e-13
-2.09204e-13
-2.02009e-13
-1.93959e-13
-1.85154e-13
-1.80703e-13
-1.73221e-13
-1.71434e-13
-1.64302e-13
-1.54477e-13
-1.4268e-13
-1.32869e-13
-1.27592e-13
-1.21427e-13
-1.15643e-13
-1.06902e-13
-1.00854e-13
-9.209e-14
-8.41346e-14
-8.09535e-14
-7.71791e-14
-7.41589e-14
-6.87195e-14
-6.29095e-14
-5.16805e-14
-4.30749e-14
-3.62808e-14
-2.71665e-14
-1.97294e-14
-1.26524e-14
-4.5003e-15
-6.89492e-13
-6.88545e-13
-6.90733e-13
-6.93899e-13
-6.94845e-13
-6.9039e-13
-6.85272e-13
-6.82725e-13
-6.76737e-13
-6.73058e-13
-6.68014e-13
-6.61589e-13
-6.527e-13
-6.42918e-13
-6.32426e-13
-6.24746e-13
-6.1872e-13
-6.11701e-13
-6.03973e-13
-5.95007e-13
-5.84452e-13
-5.75462e-13
-5.66756e-13
-5.59865e-13
-5.5139e-13
-5.45919e-13
-5.41137e-13
-5.33037e-13
-5.23513e-13
-5.10375e-13
-5.03594e-13
-4.96639e-13
-4.90348e-13
-4.87364e-13
-4.83306e-13
-4.786e-13
-4.68545e-13
-4.58517e-13
-4.47541e-13
-4.36556e-13
-4.31834e-13
-4.27138e-13
-4.2741e-13
-4.23542e-13
-4.16256e-13
-4.05198e-13
-3.93276e-13
-3.83801e-13
-3.78182e-13
-3.72861e-13
-3.61444e-13
-3.51813e-13
-3.42661e-13
-3.34156e-13
-3.2717e-13
-3.18898e-13
-3.08353e-13
-3.05789e-13
-3.05808e-13
-2.99675e-13
-2.91486e-13
-2.79461e-13
-2.71169e-13
-2.65384e-13
-2.58642e-13
-2.50307e-13
-2.4284e-13
-2.32435e-13
-2.2453e-13
-2.14658e-13
-2.06286e-13
-1.99354e-13
-1.90513e-13
-1.84681e-13
-1.80208e-13
-1.75558e-13
-1.70344e-13
-1.64342e-13
-1.5395e-13
-1.43454e-13
-1.38066e-13
-1.29661e-13
-1.17592e-13
-1.11971e-13
-1.06579e-13
-1.03164e-13
-9.68554e-14
-8.74645e-14
-8.08318e-14
-7.51785e-14
-7.16986e-14
-6.81215e-14
-6.10894e-14
-5.273e-14
-4.2422e-14
-3.36984e-14
-2.77792e-14
-2.0741e-14
-1.62579e-14
-5.1657e-15
-6.90554e-13
-6.91688e-13
-6.92479e-13
-6.88712e-13
-6.93112e-13
-6.87457e-13
-6.85324e-13
-6.82945e-13
-6.80818e-13
-6.75333e-13
-6.66219e-13
-6.5692e-13
-6.49131e-13
-6.43577e-13
-6.41125e-13
-6.30952e-13
-6.16796e-13
-6.08355e-13
-6.03046e-13
-5.93909e-13
-5.85007e-13
-5.7736e-13
-5.67506e-13
-5.53954e-13
-5.46816e-13
-5.43603e-13
-5.40364e-13
-5.34953e-13
-5.234e-13
-5.14449e-13
-5.07594e-13
-4.99656e-13
-4.91093e-13
-4.85325e-13
-4.78998e-13
-4.78019e-13
-4.68838e-13
-4.57096e-13
-4.48687e-13
-4.39235e-13
-4.35069e-13
-4.32167e-13
-4.27203e-13
-4.20729e-13
-4.11294e-13
-4.0144e-13
-3.9304e-13
-3.87622e-13
-3.79498e-13
-3.66498e-13
-3.56935e-13
-3.50822e-13
-3.44765e-13
-3.38219e-13
-3.26532e-13
-3.19826e-13
-3.1055e-13
-3.05438e-13
-3.04727e-13
-2.9841e-13
-2.8984e-13
-2.80808e-13
-2.75318e-13
-2.67815e-13
-2.58069e-13
-2.49387e-13
-2.41651e-13
-2.32453e-13
-2.25179e-13
-2.17056e-13
-2.10043e-13
-2.02677e-13
-1.93589e-13
-1.8605e-13
-1.79696e-13
-1.74159e-13
-1.70636e-13
-1.63607e-13
-1.53821e-13
-1.44122e-13
-1.36891e-13
-1.304e-13
-1.19735e-13
-1.10308e-13
-1.05769e-13
-1.00995e-13
-9.45279e-14
-8.69311e-14
-7.9626e-14
-7.57048e-14
-7.37508e-14
-6.84869e-14
-6.28514e-14
-5.13319e-14
-4.24017e-14
-3.61924e-14
-2.93691e-14
-1.99079e-14
-1.304e-14
-4.78291e-15
-6.91587e-13
-6.95962e-13
-6.9248e-13
-6.87865e-13
-6.84377e-13
-6.87922e-13
-6.8808e-13
-6.86338e-13
-6.79922e-13
-6.72318e-13
-6.63884e-13
-6.58562e-13
-6.48797e-13
-6.41378e-13
-6.39971e-13
-6.34132e-13
-6.23559e-13
-6.12979e-13
-6.00572e-13
-5.88705e-13
-5.83817e-13
-5.76382e-13
-5.6225e-13
-5.5291e-13
-5.50008e-13
-5.4655e-13
-5.41946e-13
-5.33789e-13
-5.25653e-13
-5.16767e-13
-5.08211e-13
-5.00833e-13
-4.91858e-13
-4.85835e-13
-4.80011e-13
-4.77236e-13
-4.67834e-13
-4.57064e-13
-4.46123e-13
-4.38754e-13
-4.35156e-13
-4.34255e-13
-4.27434e-13
-4.1923e-13
-4.09037e-13
-3.9914e-13
-3.91642e-13
-3.86008e-13
-3.78291e-13
-3.70137e-13
-3.60548e-13
-3.53573e-13
-3.45601e-13
-3.37523e-13
-3.27074e-13
-3.18397e-13
-3.11824e-13
-3.06938e-13
-3.03768e-13
-2.96949e-13
-2.89634e-13
-2.81335e-13
-2.72996e-13
-2.66876e-13
-2.61292e-13
-2.54609e-13
-2.46493e-13
-2.3384e-13
-2.24889e-13
-2.14553e-13
-2.06394e-13
-1.9991e-13
-1.93366e-13
-1.86205e-13
-1.7642e-13
-1.71159e-13
-1.69047e-13
-1.63309e-13
-1.56177e-13
-1.46098e-13
-1.3821e-13
-1.32524e-13
-1.19889e-13
-1.09529e-13
-1.02512e-13
-9.77819e-14
-9.41945e-14
-8.96751e-14
-8.19205e-14
-7.71497e-14
-7.26723e-14
-6.81437e-14
-6.06606e-14
-5.50212e-14
-4.70154e-14
-3.66378e-14
-2.93961e-14
-2.22051e-14
-1.26223e-14
-2.38144e-15
-6.88193e-13
-6.97534e-13
-6.94083e-13
-6.85064e-13
-6.88885e-13
-6.92468e-13
-6.90681e-13
-6.86446e-13
-6.7812e-13
-6.64959e-13
-6.61253e-13
-6.57342e-13
-6.53367e-13
-6.43357e-13
-6.36707e-13
-6.35859e-13
-6.25298e-13
-6.15493e-13
-6.05352e-13
-5.91906e-13
-5.81361e-13
-5.70073e-13
-5.53157e-13
-5.49598e-13
-5.50584e-13
-5.4984e-13
-5.41903e-13
-5.32716e-13
-5.2463e-13
-5.19777e-13
-5.09706e-13
-5.00247e-13
-4.91896e-13
-4.88881e-13
-4.85511e-13
-4.7604e-13
-4.65515e-13
-4.56836e-13
-4.46256e-13
-4.4118e-13
-4.37822e-13
-4.34711e-13
-4.25787e-13
-4.19618e-13
-4.09248e-13
-3.97291e-13
-3.87838e-13
-3.82339e-13
-3.78424e-13
-3.7002e-13
-3.62669e-13
-3.52967e-13
-3.44101e-13
-3.35189e-13
-3.25636e-13
-3.19985e-13
-3.14491e-13
-3.08233e-13
-3.0212e-13
-2.97691e-13
-2.91737e-13
-2.82227e-13
-2.73896e-13
-2.6682e-13
-2.57666e-13
-2.52764e-13
-2.47215e-13
-2.35024e-13
-2.25894e-13
-2.17652e-13
-2.07938e-13
-2.00184e-13
-1.94716e-13
-1.88048e-13
-1.7833e-13
-1.73654e-13
-1.67781e-13
-1.60104e-13
-1.55138e-13
-1.48436e-13
-1.40916e-13
-1.31637e-13
-1.17638e-13
-1.07335e-13
-1.03233e-13
-1.0009e-13
-9.6276e-14
-8.76569e-14
-8.10091e-14
-7.6698e-14
-7.22733e-14
-6.8326e-14
-5.89662e-14
-5.4223e-14
-4.71235e-14
-3.98668e-14
-2.95864e-14
-2.10723e-14
-1.06665e-14
-1.20698e-15
-6.93366e-13
-6.94172e-13
-6.93552e-13
-6.90115e-13
-6.87442e-13
-6.90967e-13
-6.90221e-13
-6.84108e-13
-6.7613e-13
-6.65514e-13
-6.57365e-13
-6.56513e-13
-6.55428e-13
-6.44647e-13
-6.37974e-13
-6.3305e-13
-6.29202e-13
-6.20745e-13
-6.02474e-13
-5.84728e-13
-5.69021e-13
-5.65059e-13
-5.63258e-13
-5.60794e-13
-5.55802e-13
-5.49327e-13
-5.38794e-13
-5.30241e-13
-5.26289e-13
-5.21634e-13
-5.1264e-13
-4.9926e-13
-4.93005e-13
-4.84837e-13
-4.79678e-13
-4.73654e-13
-4.67391e-13
-4.62056e-13
-4.51359e-13
-4.39827e-13
-4.33034e-13
-4.2847e-13
-4.23816e-13
-4.19689e-13
-4.12847e-13
-4.02359e-13
-3.90853e-13
-3.81452e-13
-3.7516e-13
-3.69669e-13
-3.62284e-13
-3.56276e-13
-3.4723e-13
-3.35596e-13
-3.27147e-13
-3.21024e-13
-3.14145e-13
-3.02754e-13
-2.98139e-13
-2.96991e-13
-2.96088e-13
-2.87838e-13
-2.76329e-13
-2.64314e-13
-2.5472e-13
-2.49315e-13
-2.41753e-13
-2.3069e-13
-2.21509e-13
-2.16982e-13
-2.16186e-13
-2.06394e-13
-1.96006e-13
-1.90891e-13
-1.8125e-13
-1.71792e-13
-1.63803e-13
-1.56363e-13
-1.50922e-13
-1.46635e-13
-1.40048e-13
-1.30853e-13
-1.22665e-13
-1.13565e-13
-1.06938e-13
-9.66977e-14
-9.32706e-14
-8.94294e-14
-8.15813e-14
-7.83894e-14
-7.17833e-14
-6.37684e-14
-5.92715e-14
-5.36824e-14
-4.73119e-14
-3.74909e-14
-2.93639e-14
-1.96321e-14
-1.07409e-14
-3.46611e-15
-6.92644e-13
-6.9225e-13
-6.90132e-13
-6.91006e-13
-6.9359e-13
-6.93228e-13
-6.89978e-13
-6.83182e-13
-6.74481e-13
-6.6688e-13
-6.61032e-13
-6.55444e-13
-6.51763e-13
-6.4253e-13
-6.3852e-13
-6.32951e-13
-6.2922e-13
-6.20108e-13
-5.97563e-13
-5.86137e-13
-5.81713e-13
-5.74662e-13
-5.64155e-13
-5.54638e-13
-5.51741e-13
-5.45268e-13
-5.34418e-13
-5.28384e-13
-5.23632e-13
-5.18996e-13
-5.12529e-13
-5.04795e-13
-4.98769e-13
-4.92262e-13
-4.80649e-13
-4.72642e-13
-4.66002e-13
-4.5718e-13
-4.49187e-13
-4.40066e-13
-4.34285e-13
-4.31989e-13
-4.25023e-13
-4.23305e-13
-4.1751e-13
-4.02585e-13
-3.87145e-13
-3.73572e-13
-3.72506e-13
-3.71454e-13
-3.67262e-13
-3.59731e-13
-3.47033e-13
-3.35634e-13
-3.24574e-13
-3.18173e-13
-3.14591e-13
-3.08831e-13
-3.00239e-13
-2.94159e-13
-2.91642e-13
-2.84672e-13
-2.77259e-13
-2.68726e-13
-2.60291e-13
-2.51424e-13
-2.4253e-13
-2.32509e-13
-2.26422e-13
-2.19358e-13
-2.11955e-13
-2.06359e-13
-1.94958e-13
-1.82581e-13
-1.75434e-13
-1.72235e-13
-1.67651e-13
-1.60166e-13
-1.5568e-13
-1.49636e-13
-1.40711e-13
-1.31051e-13
-1.19026e-13
-1.08271e-13
-9.99583e-14
-9.62342e-14
-9.42512e-14
-9.09543e-14
-8.36786e-14
-7.68738e-14
-6.94083e-14
-6.40643e-14
-5.96264e-14
-5.49036e-14
-4.57445e-14
-3.59044e-14
-2.93056e-14
-2.10903e-14
-1.2102e-14
-1.8945e-15
-6.9494e-13
-6.96738e-13
-6.91645e-13
-6.85367e-13
-6.89311e-13
-6.92173e-13
-6.91988e-13
-6.84322e-13
-6.7185e-13
-6.68521e-13
-6.6196e-13
-6.52095e-13
-6.45999e-13
-6.42415e-13
-6.39614e-13
-6.35441e-13
-6.28879e-13
-6.17846e-13
-6.01332e-13
-5.88278e-13
-5.80521e-13
-5.72249e-13
-5.68027e-13
-5.60854e-13
-5.51665e-13
-5.41812e-13
-5.33552e-13
-5.28522e-13
-5.2685e-13
-5.19932e-13
-5.13363e-13
-5.05934e-13
-4.95527e-13
-4.85299e-13
-4.81074e-13
-4.73798e-13
-4.65074e-13
-4.56266e-13
-4.51314e-13
-4.45823e-13
-4.40525e-13
-4.33473e-13
-4.219e-13
-4.13903e-13
-4.10311e-13
-4.03212e-13
-3.92448e-13
-3.82329e-13
-3.75806e-13
-3.68899e-13
-3.62206e-13
-3.55267e-13
-3.45575e-13
-3.36869e-13
-3.28847e-13
-3.23778e-13
-3.15589e-13
-3.08669e-13
-3.00951e-13
-2.95127e-13
-2.88743e-13
-2.82009e-13
-2.75783e-13
-2.68101e-13
-2.57505e-13
-2.47283e-13
-2.41105e-13
-2.33288e-13
-2.25516e-13
-2.18267e-13
-2.10558e-13
-2.06812e-13
-1.99007e-13
-1.889e-13
-1.77664e-13
-1.72549e-13
-1.68577e-13
-1.61661e-13
-1.56101e-13
-1.47049e-13
-1.41111e-13
-1.3185e-13
-1.19292e-13
-1.09783e-13
-1.02189e-13
-9.69432e-14
-9.50375e-14
-9.01893e-14
-8.31017e-14
-7.68319e-14
-6.90697e-14
-6.32016e-14
-5.66178e-14
-5.19843e-14
-4.53423e-14
-3.68259e-14
-2.79444e-14
-1.73343e-14
-8.10984e-15
8.77594e-16
-6.94912e-13
-6.94218e-13
-6.94136e-13
-6.91049e-13
-6.87727e-13
-6.90029e-13
-6.88615e-13
-6.86945e-13
-6.79075e-13
-6.64721e-13
-6.565e-13
-6.49228e-13
-6.47062e-13
-6.4537e-13
-6.4123e-13
-6.34662e-13
-6.2485e-13
-6.18119e-13
-6.0839e-13
-5.92968e-13
-5.80627e-13
-5.68056e-13
-5.62812e-13
-5.55821e-13
-5.5303e-13
-5.46978e-13
-5.36869e-13
-5.31044e-13
-5.25344e-13
-5.19867e-13
-5.14321e-13
-5.05843e-13
-4.95645e-13
-4.8434e-13
-4.77823e-13
-4.72212e-13
-4.67646e-13
-4.57603e-13
-4.52022e-13
-4.46553e-13
-4.37085e-13
-4.2781e-13
-4.21074e-13
-4.14327e-13
-4.12957e-13
-4.0757e-13
-3.96616e-13
-3.84462e-13
-3.75973e-13
-3.66391e-13
-3.59205e-13
-3.55004e-13
-3.47108e-13
-3.38022e-13
-3.29422e-13
-3.2191e-13
-3.14936e-13
-3.0766e-13
-3.00778e-13
-2.97183e-13
-2.92396e-13
-2.88379e-13
-2.81123e-13
-2.68631e-13
-2.54319e-13
-2.40284e-13
-2.33268e-13
-2.28388e-13
-2.24703e-13
-2.24405e-13
-2.18206e-13
-2.092e-13
-2.01758e-13
-1.91287e-13
-1.78752e-13
-1.698e-13
-1.65326e-13
-1.59535e-13
-1.55318e-13
-1.46811e-13
-1.404e-13
-1.32121e-13
-1.21034e-13
-1.13245e-13
-1.04267e-13
-9.59045e-14
-9.16619e-14
-8.59945e-14
-8.22744e-14
-7.73365e-14
-6.7655e-14
-5.89904e-14
-5.36816e-14
-4.92021e-14
-4.09044e-14
-3.24273e-14
-2.42585e-14
-1.55135e-14
-5.98597e-15
-1.52128e-17
-6.93188e-13
-6.92482e-13
-6.91623e-13
-6.92998e-13
-6.93274e-13
-6.87863e-13
-6.85921e-13
-6.83198e-13
-6.77213e-13
-6.69959e-13
-6.57215e-13
-6.47743e-13
-6.46795e-13
-6.46715e-13
-6.41589e-13
-6.37177e-13
-6.24714e-13
-6.16351e-13
-6.08018e-13
-5.94196e-13
-5.84751e-13
-5.69306e-13
-5.59144e-13
-5.54592e-13
-5.48737e-13
-5.43788e-13
-5.3926e-13
-5.32626e-13
-5.2711e-13
-5.218e-13
-5.13483e-13
-5.04532e-13
-4.94523e-13
-4.86454e-13
-4.81822e-13
-4.7373e-13
-4.65251e-13
-4.57851e-13
-4.53563e-13
-4.44854e-13
-4.36847e-13
-4.2752e-13
-4.21238e-13
-4.18879e-13
-4.16021e-13
-4.06098e-13
-3.9347e-13
-3.80663e-13
-3.72776e-13
-3.64929e-13
-3.62122e-13
-3.56924e-13
-3.46589e-13
-3.37496e-13
-3.28111e-13
-3.248e-13
-3.17766e-13
-3.09972e-13
-2.99963e-13
-2.91055e-13
-2.89041e-13
-2.81231e-13
-2.7582e-13
-2.71241e-13
-2.57239e-13
-2.43116e-13
-2.33375e-13
-2.27627e-13
-2.25172e-13
-2.27407e-13
-2.19434e-13
-2.11776e-13
-2.02442e-13
-1.90426e-13
-1.7668e-13
-1.66032e-13
-1.64925e-13
-1.6305e-13
-1.59058e-13
-1.50471e-13
-1.44252e-13
-1.35662e-13
-1.20794e-13
-1.09773e-13
-9.92786e-14
-9.03555e-14
-9.24495e-14
-9.05563e-14
-8.27275e-14
-7.58569e-14
-6.58878e-14
-5.96575e-14
-5.31957e-14
-4.7219e-14
-4.26184e-14
-3.56086e-14
-2.06054e-14
-6.8756e-15
1.48789e-15
-1.31643e-15
-6.96268e-13
-6.94345e-13
-6.92141e-13
-6.93765e-13
-6.92357e-13
-6.87244e-13
-6.87393e-13
-6.84057e-13
-6.76675e-13
-6.67155e-13
-6.58801e-13
-6.51056e-13
-6.43192e-13
-6.40106e-13
-6.36896e-13
-6.31141e-13
-6.27839e-13
-6.21754e-13
-6.10328e-13
-5.95624e-13
-5.83998e-13
-5.76159e-13
-5.65248e-13
-5.55387e-13
-5.48739e-13
-5.38276e-13
-5.34807e-13
-5.31981e-13
-5.28478e-13
-5.24232e-13
-5.1566e-13
-5.0524e-13
-4.93371e-13
-4.83993e-13
-4.78463e-13
-4.715e-13
-4.67293e-13
-4.60684e-13
-4.55791e-13
-4.43425e-13
-4.35458e-13
-4.24649e-13
-4.20895e-13
-4.21141e-13
-4.14337e-13
-4.05943e-13
-3.94314e-13
-3.84081e-13
-3.73968e-13
-3.64747e-13
-3.58153e-13
-3.54978e-13
-3.46569e-13
-3.40448e-13
-3.33193e-13
-3.23707e-13
-3.16e-13
-3.07722e-13
-2.99624e-13
-2.93742e-13
-2.91444e-13
-2.91157e-13
-2.80426e-13
-2.68096e-13
-2.49605e-13
-2.39761e-13
-2.33227e-13
-2.29902e-13
-2.25133e-13
-2.22766e-13
-2.16488e-13
-2.15149e-13
-2.08926e-13
-1.96149e-13
-1.75545e-13
-1.59238e-13
-1.58053e-13
-1.64046e-13
-1.61127e-13
-1.50503e-13
-1.43214e-13
-1.3287e-13
-1.22889e-13
-1.14244e-13
-1.03918e-13
-9.32818e-14
-8.72647e-14
-8.6422e-14
-8.11321e-14
-7.43861e-14
-6.3825e-14
-5.89765e-14
-5.3144e-14
-4.59707e-14
-3.81907e-14
-3.17239e-14
-1.9511e-14
-8.48833e-15
-2.19682e-15
-1.44827e-15
-6.93891e-13
-6.93564e-13
-6.85941e-13
-6.94909e-13
-6.94565e-13
-6.91515e-13
-6.85357e-13
-6.7863e-13
-6.71823e-13
-6.62225e-13
-6.57458e-13
-6.52425e-13
-6.51332e-13
-6.45156e-13
-6.38845e-13
-6.34784e-13
-6.2988e-13
-6.23091e-13
-6.11125e-13
-5.96612e-13
-5.77767e-13
-5.63955e-13
-5.54965e-13
-5.53262e-13
-5.48738e-13
-5.44272e-13
-5.3772e-13
-5.31497e-13
-5.29194e-13
-5.26381e-13
-5.18777e-13
-5.05978e-13
-4.96036e-13
-4.88034e-13
-4.83604e-13
-4.73464e-13
-4.63993e-13
-4.59172e-13
-4.53265e-13
-4.43293e-13
-4.3398e-13
-4.29913e-13
-4.25473e-13
-4.19635e-13
-4.08687e-13
-3.99507e-13
-3.9226e-13
-3.84447e-13
-3.75928e-13
-3.68475e-13
-3.61755e-13
-3.55392e-13
-3.44131e-13
-3.34146e-13
-3.35542e-13
-3.3466e-13
-3.193e-13
-3.04386e-13
-2.95583e-13
-2.87682e-13
-2.8522e-13
-2.82373e-13
-2.81289e-13
-2.71314e-13
-2.54462e-13
-2.45207e-13
-2.32198e-13
-2.30603e-13
-2.25285e-13
-2.20073e-13
-2.16113e-13
-2.1584e-13
-2.09687e-13
-1.9399e-13
-1.77111e-13
-1.64058e-13
-1.61119e-13
-1.64559e-13
-1.57489e-13
-1.47982e-13
-1.41417e-13
-1.33662e-13
-1.2565e-13
-1.15868e-13
-1.052e-13
-9.27853e-14
-8.71214e-14
-8.66534e-14
-7.98623e-14
-7.26252e-14
-6.42092e-14
-5.75427e-14
-4.99102e-14
-4.40754e-14
-3.87515e-14
-3.05097e-14
-1.9755e-14
-1.02076e-14
-1.26076e-15
5.10705e-16
-6.90549e-13
-7.00355e-13
-6.9511e-13
-6.90251e-13
-6.90772e-13
-6.89302e-13
-6.8461e-13
-6.83281e-13
-6.72551e-13
-6.58459e-13
-6.54402e-13
-6.52543e-13
-6.49756e-13
-6.46103e-13
-6.41536e-13
-6.31976e-13
-6.21381e-13
-6.13646e-13
-6.07965e-13
-5.99065e-13
-5.92117e-13
-5.83608e-13
-5.71055e-13
-5.53217e-13
-5.39356e-13
-5.33199e-13
-5.35527e-13
-5.33316e-13
-5.30603e-13
-5.28414e-13
-5.1954e-13
-5.07175e-13
-4.9204e-13
-4.79896e-13
-4.74613e-13
-4.70214e-13
-4.70138e-13
-4.65758e-13
-4.54162e-13
-4.4776e-13
-4.36595e-13
-4.26382e-13
-4.24001e-13
-4.16966e-13
-4.0799e-13
-3.9898e-13
-3.89436e-13
-3.84465e-13
-3.79539e-13
-3.70894e-13
-3.62865e-13
-3.53221e-13
-3.45793e-13
-3.38384e-13
-3.33489e-13
-3.2775e-13
-3.21256e-13
-3.13791e-13
-3.05135e-13
-2.93378e-13
-2.83991e-13
-2.77339e-13
-2.71721e-13
-2.66033e-13
-2.55864e-13
-2.47504e-13
-2.38542e-13
-2.31762e-13
-2.25816e-13
-2.22539e-13
-2.18619e-13
-2.10692e-13
-2.03098e-13
-1.9485e-13
-1.80142e-13
-1.69214e-13
-1.61631e-13
-1.59502e-13
-1.57107e-13
-1.48834e-13
-1.42198e-13
-1.31667e-13
-1.24236e-13
-1.14732e-13
-1.03805e-13
-9.4438e-14
-8.9636e-14
-8.51873e-14
-8.08807e-14
-7.21986e-14
-6.45012e-14
-6.04888e-14
-5.25006e-14
-4.37359e-14
-3.39979e-14
-2.55739e-14
-1.83616e-14
-1.16255e-14
-4.01106e-15
3.15312e-17
-6.89871e-13
-6.94075e-13
-6.96102e-13
-6.91928e-13
-6.91065e-13
-6.92183e-13
-6.81602e-13
-6.70288e-13
-6.65115e-13
-6.62974e-13
-6.60411e-13
-6.5649e-13
-6.53229e-13
-6.47585e-13
-6.41866e-13
-6.33268e-13
-6.26534e-13
-6.22465e-13
-6.13127e-13
-5.98638e-13
-5.79093e-13
-5.65558e-13
-5.56317e-13
-5.46608e-13
-5.46958e-13
-5.45413e-13
-5.40642e-13
-5.33195e-13
-5.288e-13
-5.27544e-13
-5.21541e-13
-5.10591e-13
-4.97535e-13
-4.80237e-13
-4.69871e-13
-4.70601e-13
-4.71575e-13
-4.6715e-13
-4.60023e-13
-4.48829e-13
-4.34305e-13
-4.25041e-13
-4.17457e-13
-4.12661e-13
-4.07465e-13
-4.01775e-13
-3.94567e-13
-3.85689e-13
-3.79189e-13
-3.7782e-13
-3.69094e-13
-3.51227e-13
-3.40638e-13
-3.33273e-13
-3.27668e-13
-3.25969e-13
-3.22014e-13
-3.12878e-13
-3.00349e-13
-2.90557e-13
-2.8704e-13
-2.82457e-13
-2.75176e-13
-2.65913e-13
-2.51678e-13
-2.41343e-13
-2.36758e-13
-2.34414e-13
-2.29439e-13
-2.22366e-13
-2.155e-13
-2.1072e-13
-2.03552e-13
-1.93396e-13
-1.81469e-13
-1.65956e-13
-1.60282e-13
-1.58556e-13
-1.59185e-13
-1.54306e-13
-1.45583e-13
-1.35179e-13
-1.2396e-13
-1.11976e-13
-1.02183e-13
-9.49189e-14
-9.02785e-14
-8.44554e-14
-7.8317e-14
-7.13311e-14
-6.48342e-14
-5.92668e-14
-5.30864e-14
-4.38044e-14
-3.32548e-14
-2.298e-14
-1.44945e-14
-8.86921e-15
-2.1882e-15
-6.75548e-16
-6.88459e-13
-6.97288e-13
-6.97987e-13
-6.92963e-13
-6.89639e-13
-6.95078e-13
-6.91257e-13
-6.76833e-13
-6.58481e-13
-6.54313e-13
-6.53377e-13
-6.54675e-13
-6.53586e-13
-6.50643e-13
-6.45209e-13
-6.34404e-13
-6.24747e-13
-6.16678e-13
-6.03993e-13
-5.95145e-13
-5.86876e-13
-5.73702e-13
-5.6157e-13
-5.47491e-13
-5.46299e-13
-5.44374e-13
-5.42504e-13
-5.37548e-13
-5.29587e-13
-5.26597e-13
-5.18127e-13
-5.06119e-13
-4.96335e-13
-4.81113e-13
-4.69027e-13
-4.68079e-13
-4.69739e-13
-4.67941e-13
-4.59518e-13
-4.49511e-13
-4.33273e-13
-4.23814e-13
-4.21015e-13
-4.15412e-13
-4.07606e-13
-3.99931e-13
-3.96966e-13
-3.90015e-13
-3.79248e-13
-3.67916e-13
-3.59943e-13
-3.5392e-13
-3.44699e-13
-3.31602e-13
-3.32378e-13
-3.29615e-13
-3.21375e-13
-3.14796e-13
-3.07187e-13
-2.92831e-13
-2.85268e-13
-2.78674e-13
-2.70258e-13
-2.62592e-13
-2.51378e-13
-2.43726e-13
-2.34484e-13
-2.31514e-13
-2.26093e-13
-2.25501e-13
-2.18053e-13
-2.13924e-13
-2.07044e-13
-1.93043e-13
-1.78498e-13
-1.66559e-13
-1.63402e-13
-1.60339e-13
-1.55342e-13
-1.50239e-13
-1.44383e-13
-1.35582e-13
-1.24791e-13
-1.12443e-13
-1.05427e-13
-9.82676e-14
-9.07942e-14
-8.40548e-14
-7.83096e-14
-7.02178e-14
-6.32718e-14
-5.71133e-14
-4.90877e-14
-4.01939e-14
-3.27997e-14
-2.65965e-14
-1.28802e-14
-5.71128e-15
5.89056e-16
3.86248e-16
-6.95408e-13
-6.94446e-13
-6.90768e-13
-6.86856e-13
-6.8845e-13
-6.83107e-13
-6.78614e-13
-6.79858e-13
-6.75329e-13
-6.67481e-13
-6.62243e-13
-6.53261e-13
-6.47113e-13
-6.45918e-13
-6.43672e-13
-6.36225e-13
-6.27164e-13
-6.23847e-13
-6.12107e-13
-5.95031e-13
-5.75266e-13
-5.62307e-13
-5.56486e-13
-5.54757e-13
-5.47885e-13
-5.46674e-13
-5.42584e-13
-5.35782e-13
-5.30144e-13
-5.25026e-13
-5.17906e-13
-5.05618e-13
-4.93437e-13
-4.80648e-13
-4.72271e-13
-4.71077e-13
-4.74309e-13
-4.68014e-13
-4.58497e-13
-4.47774e-13
-4.33956e-13
-4.21272e-13
-4.18809e-13
-4.15955e-13
-4.1202e-13
-4.01049e-13
-3.91849e-13
-3.88039e-13
-3.82859e-13
-3.71081e-13
-3.59106e-13
-3.53648e-13
-3.46274e-13
-3.35336e-13
-3.27274e-13
-3.2463e-13
-3.18949e-13
-3.13866e-13
-3.07988e-13
-2.9816e-13
-2.87277e-13
-2.7912e-13
-2.69638e-13
-2.6193e-13
-2.55223e-13
-2.44912e-13
-2.34852e-13
-2.26277e-13
-2.23221e-13
-2.25569e-13
-2.17315e-13
-2.12184e-13
-2.05236e-13
-1.93745e-13
-1.82522e-13
-1.70102e-13
-1.59805e-13
-1.55327e-13
-1.54698e-13
-1.55585e-13
-1.49278e-13
-1.34336e-13
-1.23588e-13
-1.10681e-13
-1.05801e-13
-1.00556e-13
-9.31745e-14
-8.29749e-14
-7.39238e-14
-6.91382e-14
-6.33419e-14
-5.64924e-14
-5.07241e-14
-4.22429e-14
-3.18538e-14
-2.20352e-14
-1.32233e-14
-7.0067e-15
1.95624e-16
1.77404e-15
-6.94864e-13
-6.9358e-13
-6.91032e-13
-6.88719e-13
-6.94705e-13
-6.91834e-13
-6.78891e-13
-6.72204e-13
-6.67297e-13
-6.64106e-13
-6.6295e-13
-6.60672e-13
-6.48996e-13
-6.41633e-13
-6.38566e-13
-6.33449e-13
-6.2889e-13
-6.21514e-13
-6.08904e-13
-5.92481e-13
-5.78289e-13
-5.63934e-13
-5.54648e-13
-5.55028e-13
-5.55049e-13
-5.46412e-13
-5.38847e-13
-5.36041e-13
-5.33554e-13
-5.27627e-13
-5.20207e-13
-5.07307e-13
-4.93383e-13
-4.79801e-13
-4.69008e-13
-4.6959e-13
-4.68375e-13
-4.66013e-13
-4.62318e-13
-4.52164e-13
-4.37539e-13
-4.25447e-13
-4.18512e-13
-4.10274e-13
-4.08126e-13
-4.02512e-13
-3.94375e-13
-3.84882e-13
-3.78145e-13
-3.71219e-13
-3.59827e-13
-3.54101e-13
-3.46422e-13
-3.366e-13
-3.33446e-13
-3.28857e-13
-3.17174e-13
-3.07851e-13
-3.0344e-13
-2.9534e-13
-2.89299e-13
-2.79113e-13
-2.7081e-13
-2.63439e-13
-2.54427e-13
-2.43438e-13
-2.36805e-13
-2.26674e-13
-2.20138e-13
-2.18194e-13
-2.16382e-13
-2.13157e-13
-2.06982e-13
-1.93888e-13
-1.81321e-13
-1.71007e-13
-1.64211e-13
-1.57574e-13
-1.56958e-13
-1.53669e-13
-1.4641e-13
-1.36134e-13
-1.24995e-13
-1.13471e-13
-1.04662e-13
-9.54807e-14
-8.88295e-14
-8.46061e-14
-7.86683e-14
-6.94405e-14
-6.2393e-14
-5.53144e-14
-4.76737e-14
-3.94758e-14
-3.02676e-14
-2.37888e-14
-1.49546e-14
-5.06246e-15
5.67656e-16
5.30396e-17
-6.89748e-13
-6.92631e-13
-6.92668e-13
-6.9114e-13
-6.89455e-13
-6.83186e-13
-6.78528e-13
-6.75085e-13
-6.73875e-13
-6.69483e-13
-6.6403e-13
-6.59394e-13
-6.51776e-13
-6.43134e-13
-6.37116e-13
-6.2968e-13
-6.26836e-13
-6.20001e-13
-6.07215e-13
-5.94804e-13
-5.78132e-13
-5.64828e-13
-5.59969e-13
-5.56088e-13
-5.47705e-13
-5.4369e-13
-5.43111e-13
-5.40277e-13
-5.32932e-13
-5.23105e-13
-5.15066e-13
-5.05962e-13
-4.93045e-13
-4.80921e-13
-4.71487e-13
-4.75088e-13
-4.76036e-13
-4.68079e-13
-4.57444e-13
-4.44869e-13
-4.34197e-13
-4.28105e-13
-4.20296e-13
-4.10428e-13
-4.05237e-13
-3.98512e-13
-3.96809e-13
-3.94951e-13
-3.81517e-13
-3.67841e-13
-3.57728e-13
-3.55207e-13
-3.4683e-13
-3.35944e-13
-3.31967e-13
-3.28511e-13
-3.20482e-13
-3.0957e-13
-3.01181e-13
-2.94342e-13
-2.91551e-13
-2.82453e-13
-2.71872e-13
-2.62184e-13
-2.50557e-13
-2.4283e-13
-2.33787e-13
-2.28126e-13
-2.21092e-13
-2.1653e-13
-2.12352e-13
-2.12948e-13
-2.07712e-13
-1.9385e-13
-1.81401e-13
-1.71007e-13
-1.66176e-13
-1.60551e-13
-1.52681e-13
-1.45157e-13
-1.48917e-13
-1.43367e-13
-1.26621e-13
-1.14146e-13
-1.04719e-13
-9.43411e-14
-8.69426e-14
-8.39943e-14
-7.82739e-14
-6.95963e-14
-6.17074e-14
-5.54792e-14
-4.85044e-14
-3.81566e-14
-3.25931e-14
-2.2459e-14
-1.2212e-14
-3.51795e-15
1.48231e-15
-3.27787e-16
-6.96937e-13
-6.93858e-13
-6.91715e-13
-6.88667e-13
-6.83755e-13
-6.81105e-13
-6.78026e-13
-6.77984e-13
-6.75183e-13
-6.69917e-13
-6.63249e-13
-6.58884e-13
-6.52781e-13
-6.46878e-13
-6.39056e-13
-6.28085e-13
-6.17858e-13
-6.11704e-13
-6.06914e-13
-5.98735e-13
-5.80693e-13
-5.68907e-13
-5.60143e-13
-5.53198e-13
-5.49773e-13
-5.46119e-13
-5.44159e-13
-5.4074e-13
-5.31142e-13
-5.25964e-13
-5.163e-13
-5.05158e-13
-4.91275e-13
-4.78883e-13
-4.73926e-13
-4.74576e-13
-4.72523e-13
-4.66553e-13
-4.57237e-13
-4.46141e-13
-4.34559e-13
-4.25469e-13
-4.20916e-13
-4.14883e-13
-4.09899e-13
-4.0292e-13
-3.92671e-13
-3.8546e-13
-3.80456e-13
-3.72103e-13
-3.65039e-13
-3.55041e-13
-3.45276e-13
-3.36807e-13
-3.30482e-13
-3.23164e-13
-3.18752e-13
-3.11491e-13
-3.0083e-13
-2.94632e-13
-2.92368e-13
-2.84553e-13
-2.72957e-13
-2.60369e-13
-2.51683e-13
-2.43028e-13
-2.33623e-13
-2.26383e-13
-2.20852e-13
-2.16641e-13
-2.14103e-13
-2.13215e-13
-2.06536e-13
-1.908e-13
-1.80266e-13
-1.71236e-13
-1.65638e-13
-1.6005e-13
-1.56085e-13
-1.51688e-13
-1.45508e-13
-1.37332e-13
-1.27747e-13
-1.17813e-13
-1.09762e-13
-9.45074e-14
-8.58651e-14
-8.09699e-14
-7.79383e-14
-6.64205e-14
-5.89731e-14
-5.45181e-14
-5.25034e-14
-3.98937e-14
-2.8536e-14
-2.15812e-14
-1.37645e-14
-1.09758e-15
4.59853e-16
-1.50827e-15
-6.99484e-13
-6.93174e-13
-6.87363e-13
-6.87915e-13
-6.80178e-13
-6.81232e-13
-6.78364e-13
-6.79142e-13
-6.78503e-13
-6.68594e-13
-6.62422e-13
-6.59461e-13
-6.57594e-13
-6.48294e-13
-6.3918e-13
-6.31189e-13
-6.22608e-13
-6.1213e-13
-6.05906e-13
-5.92137e-13
-5.80622e-13
-5.68503e-13
-5.57176e-13
-5.51492e-13
-5.47995e-13
-5.49681e-13
-5.45226e-13
-5.39536e-13
-5.31755e-13
-5.24132e-13
-5.16616e-13
-5.0708e-13
-4.91654e-13
-4.81606e-13
-4.72538e-13
-4.70141e-13
-4.70846e-13
-4.66852e-13
-4.57711e-13
-4.46849e-13
-4.37813e-13
-4.28737e-13
-4.20422e-13
-4.13972e-13
-4.0803e-13
-4.01092e-13
-3.92561e-13
-3.8773e-13
-3.83079e-13
-3.72596e-13
-3.61771e-13
-3.51011e-13
-3.44706e-13
-3.39552e-13
-3.33746e-13
-3.27302e-13
-3.2001e-13
-3.10052e-13
-3.03344e-13
-2.98518e-13
-2.93399e-13
-2.83232e-13
-2.69008e-13
-2.58846e-13
-2.49797e-13
-2.40868e-13
-2.31678e-13
-2.27362e-13
-2.20507e-13
-2.20354e-13
-2.15118e-13
-2.09347e-13
-1.9991e-13
-1.88238e-13
-1.78712e-13
-1.6951e-13
-1.69126e-13
-1.67174e-13
-1.57793e-13
-1.49108e-13
-1.42689e-13
-1.34975e-13
-1.26481e-13
-1.16641e-13
-1.04596e-13
-9.22262e-14
-8.71599e-14
-8.3622e-14
-7.69029e-14
-7.21675e-14
-6.62486e-14
-5.49981e-14
-4.52383e-14
-3.74508e-14
-2.87393e-14
-1.91726e-14
-1.19246e-14
-7.27019e-15
-2.35292e-15
-1.46277e-15
-6.97424e-13
-6.9144e-13
-6.89837e-13
-6.87921e-13
-6.84539e-13
-6.81071e-13
-6.75542e-13
-6.7811e-13
-6.77761e-13
-6.72286e-13
-6.65942e-13
-6.58809e-13
-6.56248e-13
-6.46453e-13
-6.36226e-13
-6.2626e-13
-6.16427e-13
-6.12234e-13
-6.06522e-13
-5.94632e-13
-5.82188e-13
-5.70001e-13
-5.59159e-13
-5.55114e-13
-5.53931e-13
-5.47316e-13
-5.41041e-13
-5.3369e-13
-5.27039e-13
-5.24691e-13
-5.18492e-13
-5.1149e-13
-4.99505e-13
-4.88362e-13
-4.70518e-13
-4.66464e-13
-4.65973e-13
-4.63329e-13
-4.57552e-13
-4.46797e-13
-4.39648e-13
-4.2896e-13
-4.23066e-13
-4.12376e-13
-4.08356e-13
-4.0254e-13
-3.97883e-13
-3.89546e-13
-3.7935e-13
-3.65348e-13
-3.61064e-13
-3.56183e-13
-3.48864e-13
-3.35674e-13
-3.28434e-13
-3.21967e-13
-3.14603e-13
-3.12443e-13
-3.04312e-13
-3.02603e-13
-3.0278e-13
-2.80589e-13
-2.6702e-13
-2.60711e-13
-2.52389e-13
-2.44177e-13
-2.34433e-13
-2.27562e-13
-2.17673e-13
-2.14495e-13
-2.10066e-13
-2.12199e-13
-2.05171e-13
-1.92567e-13
-1.76676e-13
-1.65126e-13
-1.68995e-13
-1.65787e-13
-1.57884e-13
-1.51662e-13
-1.44626e-13
-1.35436e-13
-1.25439e-13
-1.14718e-13
-1.05203e-13
-9.36616e-14
-8.63708e-14
-8.41309e-14
-7.83337e-14
-6.79808e-14
-5.99622e-14
-5.45373e-14
-4.62131e-14
-3.6868e-14
-3.29428e-14
-2.58614e-14
-1.23028e-14
-3.53853e-15
2.52489e-15
-3.96825e-16
-6.9187e-13
-6.93935e-13
-6.9358e-13
-6.87592e-13
-6.82002e-13
-6.82403e-13
-6.8024e-13
-6.76441e-13
-6.75573e-13
-6.7108e-13
-6.67538e-13
-6.6265e-13
-6.54421e-13
-6.45035e-13
-6.37067e-13
-6.2965e-13
-6.24113e-13
-6.1947e-13
-6.08897e-13
-5.92104e-13
-5.7334e-13
-5.59795e-13
-5.56322e-13
-5.56796e-13
-5.54306e-13
-5.46811e-13
-5.37842e-13
-5.33734e-13
-5.27099e-13
-5.25789e-13
-5.22652e-13
-5.07164e-13
-4.94175e-13
-4.85731e-13
-4.77103e-13
-4.72575e-13
-4.68468e-13
-4.62122e-13
-4.55761e-13
-4.47378e-13
-4.38916e-13
-4.28584e-13
-4.20648e-13
-4.15669e-13
-4.1349e-13
-4.03763e-13
-3.95902e-13
-3.83424e-13
-3.80136e-13
-3.72196e-13
-3.60212e-13
-3.54788e-13
-3.48287e-13
-3.39685e-13
-3.31444e-13
-3.18173e-13
-3.06529e-13
-3.09995e-13
-3.13673e-13
-3.04579e-13
-2.94562e-13
-2.82797e-13
-2.70577e-13