/*--------------------------------*- C++ -*----------------------------------*\
| =========                 |                                                 |
| \\      /  F ield         | OpenFOAM: The Open Source CFD Toolbox           |
|  \\    /   O peration     | Version:  v2012                                 |
|   \\  /    A nd           | Website:  www.openfoam.com                      |
|    \\/     M anipulation  |                                                 |
\*---------------------------------------------------------------------------*/
FoamFile
{
    version     2.0;
    format      ascii;
    class       volVectorField;
    location    "0";
    object      uRec;
}
// * * * * * * * * * * * * * * * * * * * * * * * * * * * * * * * * * * * * * //

dimensions      [0 1 -1 0 0 0 0];


internalField   nonuniform List<vector> 
4000
(
(1 3.56834e-18 0)
(1 2.11196e-15 0)
(1 7.30478e-17 0)
(1 -6.20592e-16 0)
(1 6.43407e-16 0)
(1 -3.30001e-16 0)
(1 1.42807e-15 0)
(1 -8.23394e-16 0)
(1 -6.53539e-16 0)
(1 1.48388e-15 0)
(1 -7.79667e-16 0)
(1 -4.09123e-17 0)
(1 8.54219e-16 0)
(1 1.22214e-16 0)
(1 3.53161e-16 0)
(1 -1.26036e-15 0)
(1 -1.39515e-15 0)
(1 -1.06654e-15 0)
(1 2.52082e-16 0)
(1 -5.61602e-16 0)
(1 -5.88161e-16 0)
(1 9.93342e-16 0)
(1 1.06361e-15 0)
(1 1.41867e-15 0)
(1 8.47293e-16 0)
(1 -1.6531e-16 0)
(1 9.37619e-16 0)
(1 -7.14174e-16 0)
(1 -7.25581e-16 0)
(1 1.69629e-16 0)
(1 -4.60212e-16 0)
(1 2.18423e-16 0)
(1 -9.83438e-16 0)
(1 -1.01197e-16 0)
(1 1.33977e-15 0)
(1 4.35949e-16 0)
(1 9.30201e-16 0)
(1 9.7637e-16 0)
(1 1.96923e-15 0)
(1 -7.90581e-17 0)
(1 1.18544e-16 0)
(1 -1.52225e-15 0)
(1 -2.24319e-16 0)
(1 -3.47159e-16 0)
(1 9.37359e-16 0)
(1 -5.38348e-16 0)
(1 3.64346e-16 0)
(1 -9.88307e-17 0)
(1 -2.71464e-16 0)
(1 8.42038e-16 0)
(1 -3.10858e-16 0)
(1 1.22957e-15 0)
(1 -5.60368e-17 0)
(1 1.19419e-15 0)
(1 3.23289e-16 0)
(1 -3.54895e-16 0)
(1 -6.74649e-16 0)
(1 2.04851e-16 0)
(1 1.33958e-15 0)
(1 2.9297e-15 0)
(1 8.09282e-16 0)
(1 -5.60152e-16 0)
(1 3.96214e-17 0)
(1 8.67773e-17 0)
(1 1.0789e-16 0)
(1 -2.66875e-16 0)
(1 5.72031e-16 0)
(1 -2.14627e-16 0)
(1 4.35415e-16 0)
(1 -5.8066e-16 0)
(1 -6.47516e-16 0)
(1 -3.32444e-16 0)
(1 2.95601e-16 0)
(1 -2.74977e-16 0)
(1 -5.29294e-16 0)
(1 -1.26486e-15 0)
(1 -4.0954e-16 0)
(1 -3.72374e-16 0)
(1 4.14575e-16 0)
(1 1.14147e-15 0)
(1 6.36812e-16 0)
(1 6.78159e-16 0)
(1 -4.31171e-16 0)
(1 1.06985e-16 0)
(1 -9.25e-16 0)
(1 -3.59758e-16 0)
(1 -1.0172e-15 0)
(1 1.43961e-16 0)
(1 1.49167e-15 0)
(1 7.59206e-16 0)
(1 2.81758e-17 0)
(1 -3.21533e-16 0)
(1 4.26607e-18 0)
(1 7.2674e-16 0)
(1 -1.01992e-15 0)
(1 -1.6027e-15 0)
(1 -5.41201e-16 0)
(1 1.05516e-15 0)
(1 5.10743e-16 0)
(1 1.44419e-17 0)
(1 9.02945e-17 0)
(1 3.50134e-15 0)
(1 1.91e-16 0)
(1 -1.29182e-15 0)
(1 3.6129e-16 0)
(1 4.41282e-17 0)
(1 1.48957e-15 0)
(1 -1.07614e-15 0)
(1 -3.24767e-16 0)
(1 7.09175e-16 0)
(1 -1.24652e-16 0)
(1 9.279e-16 0)
(1 1.88325e-15 0)
(1 8.62515e-16 0)
(1 4.96783e-16 0)
(1 -1.24017e-15 0)
(1 -1.6047e-15 0)
(1 3.26278e-16 0)
(1 1.18286e-15 0)
(1 -3.38008e-16 0)
(1 -1.28703e-15 0)
(1 4.55829e-16 0)
(1 2.20137e-16 0)
(1 9.12148e-16 0)
(1 1.42757e-16 0)
(1 9.40221e-17 0)
(1 1.56488e-15 0)
(1 -1.01035e-15 0)
(1 -7.94525e-16 0)
(1 8.58564e-16 0)
(1 -2.58247e-16 0)
(1 1.48617e-15 0)
(1 -6.9559e-16 0)
(1 -8.71997e-16 0)
(1 5.72067e-16 0)
(1 -1.3148e-16 0)
(1 1.11708e-15 0)
(1 1.91674e-15 0)
(1 1.94949e-15 0)
(1 2.92039e-16 0)
(1 -8.28555e-16 0)
(1 -8.83268e-16 0)
(1 -1.29303e-15 0)
(1 -8.62192e-16 0)
(1 2.05864e-16 0)
(1 -1.28372e-15 0)
(1 1.60682e-15 0)
(1 1.5514e-15 0)
(1 1.85233e-15 0)
(1 4.32001e-16 0)
(1 -2.31091e-16 0)
(1 4.05862e-16 0)
(1 2.33299e-15 0)
(1 1.4476e-15 0)
(1 1.80116e-15 0)
(1 9.59985e-16 0)
(1 2.43087e-16 0)
(1 1.74187e-15 0)
(1 1.63971e-16 0)
(1 -6.55268e-16 0)
(1 -9.06676e-16 0)
(1 2.43248e-16 0)
(1 5.00993e-16 0)
(1 1.02192e-15 0)
(1 5.63638e-16 0)
(1 1.09851e-15 0)
(1 -5.20426e-16 0)
(1 -5.34073e-16 0)
(1 4.24424e-17 0)
(1 -5.05941e-16 0)
(1 -6.82634e-16 0)
(1 7.2535e-16 0)
(1 1.42922e-15 0)
(1 -4.69322e-16 0)
(1 1.16424e-16 0)
(1 -3.48806e-16 0)
(1 1.33432e-18 0)
(1 1.2446e-15 0)
(1 5.43551e-16 0)
(1 1.38628e-15 0)
(1 3.92689e-16 0)
(1 -3.24516e-16 0)
(1 1.14356e-15 0)
(1 4.74585e-17 0)
(1 4.86351e-16 0)
(1 1.44159e-16 0)
(1 -1.26234e-15 0)
(1 -1.51766e-15 0)
(1 2.68675e-16 0)
(1 5.91636e-16 0)
(1 -1.49936e-16 0)
(1 -9.66714e-16 0)
(1 1.00705e-15 0)
(1 6.05533e-16 0)
(1 -2.02944e-15 0)
(1 -1.70902e-15 0)
(1 2.74338e-17 0)
(1 1.45623e-15 0)
(1 4.61537e-17 0)
(1 -1.98279e-16 0)
(1 1.26065e-16 0)
(1 1.34755e-15 0)
(1 2.50286e-16 0)
(1 -6.17295e-17 0)
(1 6.28279e-16 0)
(1 1.13149e-15 0)
(1 1.64002e-15 0)
(1 2.82291e-15 0)
(1 -3.86968e-16 0)
(1 -8.95884e-16 0)
(1 7.44116e-17 0)
(1 1.84122e-15 0)
(1 2.87809e-15 0)
(1 9.12401e-16 0)
(1 1.43713e-16 0)
(1 -6.81109e-16 0)
(1 -4.18016e-16 0)
(1 -8.93074e-19 0)
(1 1.20511e-15 0)
(1 1.7016e-15 0)
(1 -3.5391e-16 0)
(1 2.67457e-16 0)
(1 2.63833e-16 0)
(1 1.11997e-15 0)
(1 1.32266e-15 0)
(1 2.32057e-15 0)
(1 1.59183e-15 0)
(1 -1.99472e-16 0)
(1 -7.15508e-17 0)
(1 5.16944e-16 0)
(1 1.46544e-15 0)
(1 -1.00824e-15 0)
(1 3.71304e-16 0)
(1 -2.78277e-16 0)
(1 -4.73124e-16 0)
(1 -4.26608e-16 0)
(1 -5.39762e-16 0)
(1 1.03156e-15 0)
(1 1.46971e-15 0)
(1 7.11054e-16 0)
(1 -3.25745e-16 0)
(1 6.22435e-16 0)
(1 -9.39467e-16 0)
(1 -1.38061e-15 0)
(1 -2.0855e-16 0)
(1 1.24528e-16 0)
(1 -1.11768e-17 0)
(1 1.75321e-15 0)
(1 2.54207e-15 0)
(1 1.66376e-15 0)
(1 1.48535e-15 0)
(1 1.31902e-15 0)
(1 3.58462e-15 0)
(1 6.04752e-16 0)
(1 2.06492e-15 0)
(1 8.26635e-16 0)
(1 1.48483e-15 0)
(1 1.14572e-15 0)
(1 8.20197e-16 0)
(1 -6.3867e-16 0)
(1 -2.2559e-16 0)
(1 8.78327e-16 0)
(1 1.44048e-15 0)
(1 7.2568e-17 0)
(1 2.89722e-16 0)
(1 1.01387e-15 0)
(1 -1.12063e-16 0)
(1 4.61731e-16 0)
(1 3.71039e-16 0)
(1 4.03928e-16 0)
(1 4.21488e-16 0)
(1 1.28378e-15 0)
(1 9.19476e-16 0)
(1 -7.72723e-16 0)
(1 -5.85462e-16 0)
(1 -3.01359e-16 0)
(1 -1.2877e-16 0)
(1 1.08011e-15 0)
(1 9.39882e-16 0)
(1 -7.72809e-19 0)
(1 -1.06458e-15 0)
(1 -7.13009e-16 0)
(1 5.42706e-16 0)
(1 6.34103e-17 0)
(1 5.59134e-16 0)
(1 3.1494e-16 0)
(1 -6.0235e-16 0)
(1 -1.83958e-15 0)
(1 -7.37143e-16 0)
(1 4.53809e-16 0)
(1 3.4127e-16 0)
(1 -3.32176e-16 0)
(1 1.45367e-17 0)
(1 4.95292e-16 0)
(1 -5.84171e-16 0)
(1 -1.05079e-15 0)
(1 4.17836e-16 0)
(1 -6.06162e-16 0)
(1 -2.79167e-16 0)
(1 2.18994e-16 0)
(1 3.21421e-16 0)
(1 9.45485e-16 0)
(1 1.32902e-15 0)
(1 -1.06613e-16 0)
(1 4.40119e-16 0)
(1 1.0256e-16 0)
(1 1.44276e-15 0)
(1 3.36622e-15 0)
(1 1.14771e-15 0)
(1 4.83276e-16 0)
(1 7.66189e-16 0)
(1 3.96504e-15 0)
(1 2.15783e-15 0)
(1 -4.34671e-16 0)
(1 1.48417e-15 0)
(1 -1.48689e-16 0)
(1 2.61618e-16 0)
(1 -2.28472e-15 0)
(1 -1.74833e-15 0)
(1 3.26236e-15 0)
(1 5.33171e-16 0)
(1 1.55452e-15 0)
(1 1.81606e-15 0)
(1 1.88626e-15 0)
(1 2.96025e-15 0)
(1 3.14978e-15 0)
(1 1.01117e-15 0)
(1 1.10387e-15 0)
(1 -3.87464e-16 0)
(1 1.24486e-15 0)
(1 -3.23513e-16 0)
(1 -1.03221e-15 0)
(1 -5.07362e-16 0)
(1 1.40721e-15 0)
(1 1.50074e-15 0)
(1 4.18633e-16 0)
(1 -1.75142e-16 0)
(1 7.71044e-17 0)
(1 1.68039e-15 0)
(1 9.22933e-16 0)
(1 1.30238e-15 0)
(1 -4.96742e-16 0)
(1 -8.07465e-16 0)
(1 -1.35513e-15 0)
(1 5.38379e-16 0)
(1 2.12934e-15 0)
(1 1.02769e-15 0)
(1 1.49529e-15 0)
(1 2.71775e-15 0)
(1 3.07011e-15 0)
(1 2.73765e-15 0)
(1 1.87605e-15 0)
(1 1.70935e-15 0)
(1 1.59984e-15 0)
(1 1.58219e-15 0)
(1 3.92746e-16 0)
(1 1.28331e-15 0)
(1 1.58842e-15 0)
(1 1.1265e-15 0)
(1 2.65295e-15 0)
(1 1.38688e-15 0)
(1 9.59687e-16 0)
(1 6.04778e-16 0)
(1 9.41478e-16 0)
(1 -3.5526e-16 0)
(1 1.54713e-16 0)
(1 -8.33122e-16 0)
(1 1.13867e-15 0)
(1 1.95817e-16 0)
(1 3.82708e-16 0)
(1 8.52552e-16 0)
(1 8.92494e-16 0)
(1 2.63653e-16 0)
(1 -3.47538e-16 0)
(1 -1.58627e-15 0)
(1 -8.59402e-16 0)
(1 1.14633e-15 0)
(1 3.93082e-16 0)
(1 9.4041e-16 0)
(1 1.6494e-15 0)
(1 -4.1251e-16 0)
(1 6.15256e-16 0)
(1 2.29024e-16 0)
(1 2.22104e-16 0)
(1 8.36498e-16 0)
(1 -7.84272e-17 0)
(1 4.66421e-16 0)
(1 -6.85264e-16 0)
(1 2.85725e-16 0)
(1 3.33497e-16 0)
(1 -4.68262e-16 0)
(1 1.45051e-16 0)
(1 -2.04014e-16 0)
(1 5.30407e-16 0)
(1 5.73666e-16 0)
(1 -6.76023e-16 0)
(1 -1.00771e-15 0)
(1 -1.10301e-15 0)
(1 -9.83532e-16 0)
(1 -1.18288e-16 0)
(1 8.22993e-16 0)
(1 2.40778e-16 0)
(1 6.05231e-16 0)
(1 -3.76123e-16 0)
(1 8.93497e-16 0)
(1 1.20898e-15 0)
(1 9.3865e-16 0)
(1 6.37706e-16 0)
(1 3.34627e-15 0)
(1 2.12748e-15 0)
(1 2.8626e-15 0)
(1 2.6125e-15 0)
(1 2.53369e-16 0)
(1 -1.97385e-15 0)
(1 1.79671e-15 0)
(1 1.06487e-15 0)
(1 2.39194e-15 0)
(1 1.56569e-15 0)
(1 4.1165e-16 0)
(1 -5.88766e-16 0)
(1 3.17345e-16 0)
(1 -7.55905e-16 0)
(1 2.16921e-15 0)
(1 3.98753e-15 0)
(1 3.0739e-15 0)
(1 1.60915e-15 0)
(1 9.62126e-16 0)
(1 1.02822e-15 0)
(1 1.22455e-15 0)
(1 -4.37706e-16 0)
(1 8.23381e-16 0)
(1 1.50728e-15 0)
(1 -3.87512e-16 0)
(1 1.05767e-15 0)
(1 -1.31112e-15 0)
(1 -1.38387e-15 0)
(1 -8.89062e-16 0)
(1 -2.77413e-16 0)
(1 5.13614e-16 0)
(1 1.62654e-15 0)
(1 1.2047e-15 0)
(1 8.86963e-16 0)
(1 -9.76817e-16 0)
(1 1.03107e-15 0)
(1 -6.01238e-16 0)
(1 1.68012e-15 0)
(1 3.3123e-15 0)
(1 3.40898e-15 0)
(1 2.72208e-15 0)
(1 1.2643e-15 0)
(1 3.00079e-15 0)
(1 1.33126e-15 0)
(1 1.37853e-15 0)
(1 2.62454e-15 0)
(1 2.94965e-15 0)
(1 3.38266e-15 0)
(1 2.11686e-15 0)
(1 2.00097e-15 0)
(1 -1.28332e-16 0)
(1 -9.70834e-16 0)
(1 1.37118e-15 0)
(1 1.36994e-15 0)
(1 1.64071e-15 0)
(1 1.62028e-15 0)
(1 1.26456e-15 0)
(1 3.34616e-16 0)
(1 -8.38358e-16 0)
(1 6.98718e-16 0)
(1 5.03245e-16 0)
(1 1.14926e-15 0)
(1 6.67125e-16 0)
(1 1.38797e-15 0)
(1 1.50858e-15 0)
(1 6.26139e-16 0)
(1 -3.15333e-16 0)
(1 1.50347e-16 0)
(1 1.23518e-15 0)
(1 2.14515e-15 0)
(1 1.89864e-15 0)
(1 5.3061e-16 0)
(1 2.81638e-16 0)
(1 1.71274e-16 0)
(1 9.19478e-16 0)
(1 4.72934e-20 0)
(1 1.20108e-15 0)
(1 -8.98479e-16 0)
(1 6.1743e-17 0)
(1 -4.47042e-16 0)
(1 -1.27765e-15 0)
(1 -2.05088e-16 0)
(1 -5.55034e-16 0)
(1 -6.31174e-16 0)
(1 8.49235e-16 0)
(1 -3.90571e-17 0)
(1 7.58424e-16 0)
(1 2.90797e-16 0)
(1 -6.6861e-16 0)
(1 -2.28111e-16 0)
(1 -1.30925e-15 0)
(1 -3.71687e-16 0)
(1 -6.02823e-17 0)
(1 -1.2623e-15 0)
(1 1.32024e-16 0)
(1 1.234e-15 0)
(1 7.31348e-16 0)
(1 2.10876e-15 0)
(1 1.44056e-15 0)
(1 1.64487e-15 0)
(1 2.89139e-15 0)
(1 3.2809e-15 0)
(1 4.61929e-15 0)
(1 1.7963e-15 0)
(1 -5.15749e-16 0)
(1 9.33608e-16 0)
(1 1.97815e-15 0)
(1 4.67855e-16 0)
(1 6.16202e-16 0)
(1 8.82616e-17 0)
(1 1.11842e-15 0)
(1 -1.23109e-16 0)
(1 2.36092e-15 0)
(1 4.05431e-16 0)
(1 2.99672e-15 0)
(1 2.25564e-15 0)
(1 6.9684e-16 0)
(1 2.35742e-15 0)
(1 2.10171e-15 0)
(1 -4.01458e-16 0)
(1 1.76195e-15 0)
(1 1.90631e-16 0)
(1 2.05616e-16 0)
(1 -7.818e-16 0)
(1 7.04571e-17 0)
(1 2.40028e-16 0)
(1 -1.59952e-15 0)
(1 1.02269e-15 0)
(1 1.65739e-15 0)
(1 2.23717e-15 0)
(1 8.44472e-16 0)
(1 2.02079e-16 0)
(1 1.57513e-15 0)
(1 1.14089e-15 0)
(1 4.19373e-16 0)
(1 1.29149e-15 0)
(1 7.81726e-16 0)
(1 1.23316e-15 0)
(1 9.09852e-16 0)
(1 3.05703e-15 0)
(1 3.1727e-15 0)
(1 3.86754e-15 0)
(1 3.04503e-15 0)
(1 2.42455e-15 0)
(1 2.56274e-15 0)
(1 2.99365e-15 0)
(1 2.80302e-15 0)
(1 2.83555e-15 0)
(1 3.09418e-15 0)
(1 2.57119e-15 0)
(1 2.92719e-15 0)
(1 2.65963e-15 0)
(1 3.13702e-15 0)
(1 6.41625e-16 0)
(1 1.24225e-15 0)
(1 2.68811e-16 0)
(1 1.5147e-15 0)
(1 8.58302e-16 0)
(1 2.895e-15 0)
(1 2.59993e-15 0)
(1 2.7781e-15 0)
(1 2.65606e-15 0)
(1 1.71312e-15 0)
(1 8.99491e-16 0)
(1 1.66308e-15 0)
(1 1.97914e-16 0)
(1 -1.38684e-15 0)
(1 -1.06489e-15 0)
(1 1.56509e-16 0)
(1 2.93106e-15 0)
(1 1.69871e-15 0)
(1 -5.06478e-16 0)
(1 2.01231e-17 0)
(1 1.56966e-15 0)
(1 -1.19764e-16 0)
(1 1.90626e-16 0)
(1 9.7299e-17 0)
(1 -7.23392e-16 0)
(1 -1.48987e-16 0)
(1 -1.26452e-15 0)
(1 -1.41594e-15 0)
(1 -1.10255e-16 0)
(1 -3.87241e-16 0)
(1 -7.20864e-17 0)
(1 9.30351e-16 0)
(1 1.62913e-15 0)
(1 1.8174e-15 0)
(1 1.5682e-15 0)
(1 7.86162e-16 0)
(1 -2.81694e-16 0)
(1 8.31581e-16 0)
(1 1.02924e-15 0)
(1 -6.18473e-16 0)
(1 -7.05277e-17 0)
(1 2.37221e-15 0)
(1 1.21152e-15 0)
(1 1.82957e-15 0)
(1 5.43976e-17 0)
(1 -6.14961e-16 0)
(1 2.00541e-15 0)
(1 2.32768e-15 0)
(1 2.3579e-15 0)
(1 4.14956e-15 0)
(1 1.14288e-15 0)
(1 1.43822e-15 0)
(1 3.03813e-15 0)
(1 1.82261e-15 0)
(1 3.35384e-15 0)
(1 3.04561e-15 0)
(1 5.52921e-17 0)
(1 1.4076e-15 0)
(1 2.54671e-15 0)
(1 3.23762e-15 0)
(1 -9.13509e-16 0)
(1 2.03775e-15 0)
(1 5.57075e-16 0)
(1 -4.27132e-16 0)
(1 8.52254e-16 0)
(1 -4.14846e-16 0)
(1 1.01357e-16 0)
(1 1.21595e-15 0)
(1 3.06354e-15 0)
(1 3.5007e-16 0)
(1 7.80914e-16 0)
(1 1.26173e-16 0)
(1 -4.55841e-16 0)
(1 -1.80884e-16 0)
(1 2.10788e-15 0)
(1 3.46089e-15 0)
(1 1.72173e-15 0)
(1 -2.31862e-16 0)
(1 -1.11443e-15 0)
(1 1.71643e-15 0)
(1 -2.79836e-16 0)
(1 3.34031e-15 0)
(1 1.34239e-15 0)
(1 1.59255e-15 0)
(1 9.58428e-16 0)
(1 9.29978e-16 0)
(1 2.32646e-15 0)
(1 2.55525e-15 0)
(1 5.44091e-15 0)
(1 3.21696e-15 0)
(1 1.79737e-15 0)
(1 2.7167e-15 0)
(1 3.94416e-15 0)
(1 3.36868e-15 0)
(1 1.95224e-15 0)
(1 1.48486e-15 0)
(1 2.73017e-15 0)
(1 3.08355e-15 0)
(1 3.82129e-15 0)
(1 1.84507e-15 0)
(1 1.8255e-15 0)
(1 1.26387e-15 0)
(1 1.36488e-15 0)
(1 4.43546e-16 0)
(1 3.30618e-16 0)
(1 6.59386e-17 0)
(1 2.36724e-15 0)
(1 2.1106e-15 0)
(1 9.62608e-16 0)
(1 2.15712e-15 0)
(1 1.56851e-15 0)
(1 3.63147e-16 0)
(1 6.0221e-16 0)
(1 1.17351e-15 0)
(1 1.70621e-15 0)
(1 2.2053e-15 0)
(1 1.96602e-15 0)
(1 1.55414e-15 0)
(1 1.18642e-15 0)
(1 1.25982e-15 0)
(1 1.15331e-15 0)
(1 6.47683e-16 0)
(1 1.28848e-16 0)
(1 -2.48459e-17 0)
(1 4.66775e-16 0)
(1 2.35622e-16 0)
(1 -1.58333e-16 0)
(1 7.97269e-16 0)
(1 -3.08338e-16 0)
(1 -1.30099e-16 0)
(1 1.56282e-15 0)
(1 1.26326e-15 0)
(1 1.8209e-15 0)
(1 1.02505e-15 0)
(1 2.0636e-15 0)
(1 6.54949e-16 0)
(1 3.7155e-16 0)
(1 1.2749e-15 0)
(1 1.09554e-15 0)
(1 -3.04491e-16 0)
(1 3.88106e-16 0)
(1 1.71611e-15 0)
(1 5.23487e-16 0)
(1 2.09236e-15 0)
(1 7.72661e-16 0)
(1 -5.43283e-17 0)
(1 1.13039e-15 0)
(1 2.58918e-15 0)
(1 4.1071e-15 0)
(1 2.21497e-15 0)
(1 -5.47397e-16 0)
(1 2.63341e-15 0)
(1 2.4888e-15 0)
(1 1.21563e-15 0)
(1 4.10732e-15 0)
(1 1.94911e-15 0)
(1 4.60983e-15 0)
(1 4.37972e-15 0)
(1 -4.4514e-16 0)
(1 -6.59505e-16 0)
(1 -1.64931e-15 0)
(1 -1.46073e-15 0)
(1 1.6336e-15 0)
(1 2.14261e-15 0)
(1 -5.21041e-16 0)
(1 -1.05412e-15 0)
(1 1.61224e-15 0)
(1 -1.76123e-16 0)
(1 8.67892e-16 0)
(1 3.06433e-15 0)
(1 1.35794e-15 0)
(1 -1.81449e-16 0)
(1 -5.71023e-16 0)
(1 2.60963e-16 0)
(1 -3.73421e-16 0)
(1 3.45699e-16 0)
(1 5.41141e-17 0)
(1 9.8268e-16 0)
(1 2.76761e-15 0)
(1 1.34815e-15 0)
(1 4.94947e-16 0)
(1 3.78366e-15 0)
(1 2.25508e-15 0)
(1 2.02415e-15 0)
(1 3.08405e-15 0)
(1 3.26117e-15 0)
(1 4.10727e-15 0)
(1 1.24963e-15 0)
(1 2.77598e-15 0)
(1 3.85279e-15 0)
(1 3.90145e-15 0)
(1 2.41626e-15 0)
(1 3.80864e-15 0)
(1 4.52592e-15 0)
(1 4.37708e-15 0)
(1 2.69841e-15 0)
(1 6.08071e-16 0)
(1 4.4471e-15 0)
(1 2.17973e-15 0)
(1 1.45897e-15 0)
(1 2.75009e-15 0)
(1 3.13905e-15 0)
(1 2.3234e-15 0)
(1 1.07533e-15 0)
(1 2.29298e-15 0)
(1 2.34149e-15 0)
(1 -9.56148e-18 0)
(1 1.68025e-15 0)
(1 1.55357e-15 0)
(1 3.10067e-15 0)
(1 3.21217e-15 0)
(1 1.65327e-15 0)
(1 9.85715e-16 0)
(1 1.64954e-15 0)
(1 3.75013e-15 0)
(1 2.76568e-15 0)
(1 7.39593e-16 0)
(1 1.07187e-15 0)
(1 1.16337e-16 0)
(1 6.19698e-16 0)
(1 -8.58001e-16 0)
(1 2.46298e-16 0)
(1 1.42834e-15 0)
(1 -1.65509e-15 0)
(1 -4.04964e-16 0)
(1 -2.05611e-16 0)
(1 1.04034e-15 0)
(1 9.24854e-16 0)
(1 -1.67003e-15 0)
(1 -8.24098e-16 0)
(1 8.57358e-16 0)
(1 1.42079e-16 0)
(1 1.43468e-15 0)
(1 2.16298e-15 0)
(1 2.13478e-15 0)
(1 2.64074e-16 0)
(1 9.25725e-16 0)
(1 1.33792e-15 0)
(1 1.77043e-15 0)
(1 -3.07157e-16 0)
(1 1.24328e-15 0)
(1 -3.84186e-16 0)
(1 -5.70899e-16 0)
(1 -3.36199e-16 0)
(1 1.9333e-15 0)
(1 1.60743e-15 0)
(1 -1.09171e-16 0)
(1 1.82674e-15 0)
(1 4.61954e-15 0)
(1 2.65006e-15 0)
(1 3.96729e-15 0)
(1 3.22538e-15 0)
(1 3.9989e-15 0)
(1 2.03531e-15 0)
(1 2.52278e-15 0)
(1 2.27508e-15 0)
(1 4.12956e-15 0)
(1 3.19666e-15 0)
(1 -3.72648e-16 0)
(1 -2.81221e-15 0)
(1 2.18899e-15 0)
(1 -4.29276e-16 0)
(1 7.23908e-16 0)
(1 8.22059e-16 0)
(1 -1.09807e-15 0)
(1 -9.33751e-17 0)
(1 -2.09244e-15 0)
(1 -1.85864e-15 0)
(1 9.88588e-16 0)
(1 1.37451e-15 0)
(1 4.55596e-16 0)
(1 1.19733e-15 0)
(1 1.5345e-15 0)
(1 7.13019e-16 0)
(1 9.85087e-16 0)
(1 1.63386e-16 0)
(1 1.63085e-15 0)
(1 1.2831e-15 0)
(1 2.14823e-15 0)
(1 1.36713e-16 0)
(1 2.09012e-15 0)
(1 2.87082e-15 0)
(1 2.61253e-15 0)
(1 5.2092e-15 0)
(1 3.57851e-15 0)
(1 3.34805e-15 0)
(1 2.43731e-15 0)
(1 1.34716e-15 0)
(1 9.40597e-16 0)
(1 3.67617e-15 0)
(1 4.85117e-15 0)
(1 3.50254e-15 0)
(1 3.98553e-15 0)
(1 4.86713e-15 0)
(1 4.36764e-15 0)
(1 5.23766e-15 0)
(1 2.44448e-15 0)
(1 5.30848e-15 0)
(1 2.05544e-15 0)
(1 3.04633e-15 0)
(1 2.55391e-15 0)
(1 -1.95103e-17 0)
(1 1.47117e-15 0)
(1 -2.99875e-16 0)
(1 1.93738e-15 0)
(1 5.03517e-15 0)
(1 2.43683e-15 0)
(1 4.26361e-15 0)
(1 4.64536e-15 0)
(1 4.00869e-15 0)
(1 2.25475e-15 0)
(1 2.49662e-15 0)
(1 1.08981e-15 0)
(1 -2.63752e-16 0)
(1 1.79733e-15 0)
(1 1.95279e-15 0)
(1 8.77167e-16 0)
(1 -4.50839e-16 0)
(1 1.85416e-15 0)
(1 1.5511e-15 0)
(1 2.60466e-15 0)
(1 -4.90127e-17 0)
(1 1.30932e-15 0)
(1 -1.24109e-15 0)
(1 -1.37663e-15 0)
(1 -8.54917e-16 0)
(1 -7.97843e-17 0)
(1 -3.96008e-16 0)
(1 -1.15276e-16 0)
(1 -7.51031e-17 0)
(1 6.48165e-17 0)
(1 1.68673e-15 0)
(1 2.76847e-15 0)
(1 4.31512e-15 0)
(1 3.5386e-15 0)
(1 2.47503e-15 0)
(1 1.33278e-15 0)
(1 3.49195e-15 0)
(1 3.53217e-15 0)
(1 4.81418e-16 0)
(1 9.6073e-16 0)
(1 5.62071e-16 0)
(1 8.54105e-16 0)
(1 7.20051e-16 0)
(1 1.40431e-15 0)
(1 1.90924e-15 0)
(1 2.07451e-15 0)
(1 2.64201e-15 0)
(1 3.35024e-15 0)
(1 2.04049e-15 0)
(1 5.29657e-15 0)
(1 3.33086e-15 0)
(1 7.46225e-16 0)
(1 2.42623e-15 0)
(1 1.09025e-15 0)
(1 2.10555e-15 0)
(1 2.6457e-15 0)
(1 1.36913e-15 0)
(1 1.25698e-15 0)
(1 -1.63029e-15 0)
(1 5.79774e-16 0)
(1 1.25086e-15 0)
(1 2.69941e-16 0)
(1 1.57023e-15 0)
(1 1.16873e-15 0)
(1 4.02433e-16 0)
(1 -2.98498e-15 0)
(1 -7.3423e-16 0)
(1 -7.51935e-16 0)
(1 -2.98389e-16 0)
(1 2.44292e-15 0)
(1 2.14278e-15 0)
(1 1.5922e-15 0)
(1 9.36718e-16 0)
(1 3.32695e-16 0)
(1 -1.29488e-15 0)
(1 -6.78699e-16 0)
(1 -6.89704e-16 0)
(1 4.94506e-16 0)
(1 -6.50749e-17 0)
(1 3.47947e-15 0)
(1 2.37624e-15 0)
(1 3.96095e-15 0)
(1 5.14006e-15 0)
(1 3.40073e-15 0)
(1 2.70883e-15 0)
(1 1.28973e-15 0)
(1 4.23167e-15 0)
(1 3.84053e-15 0)
(1 3.92537e-15 0)
(1 2.6406e-15 0)
(1 3.46561e-15 0)
(1 4.58971e-15 0)
(1 5.32825e-15 0)
(1 4.10449e-15 0)
(1 3.47737e-15 0)
(1 2.92584e-15 0)
(1 3.31942e-15 0)
(1 3.20757e-15 0)
(1 3.49839e-15 0)
(1 5.05594e-15 0)
(1 4.10332e-15 0)
(1 2.85419e-15 0)
(1 3.15669e-15 0)
(1 9.64737e-16 0)
(1 2.71726e-15 0)
(1 3.52307e-15 0)
(1 3.51148e-15 0)
(1 3.17458e-15 0)
(1 2.97824e-15 0)
(1 2.9064e-15 0)
(1 1.96574e-15 0)
(1 8.59552e-16 0)
(1 8.03935e-16 0)
(1 1.99232e-15 0)
(1 3.2382e-15 0)
(1 9.96837e-16 0)
(1 6.55042e-16 0)
(1 1.23042e-15 0)
(1 1.89328e-15 0)
(1 1.08223e-15 0)
(1 -2.40355e-16 0)
(1 -5.86866e-17 0)
(1 -6.44152e-16 0)
(1 -1.5201e-15 0)
(1 -3.09599e-16 0)
(1 -3.53065e-16 0)
(1 -4.12781e-16 0)
(1 -2.33594e-17 0)
(1 2.50859e-15 0)
(1 -4.40523e-16 0)
(1 3.43433e-15 0)
(1 4.27967e-16 0)
(1 3.75591e-15 0)
(1 2.68611e-15 0)
(1 1.59612e-15 0)
(1 3.6912e-15 0)
(1 5.12996e-15 0)
(1 3.85997e-15 0)
(1 4.69966e-16 0)
(1 -5.72102e-16 0)
(1 9.36255e-16 0)
(1 2.01598e-15 0)
(1 7.05247e-16 0)
(1 7.32761e-16 0)
(1 2.13905e-15 0)
(1 3.26989e-15 0)
(1 3.02283e-15 0)
(1 1.69938e-15 0)
(1 -2.28263e-16 0)
(1 3.45762e-15 0)
(1 1.50749e-15 0)
(1 2.24378e-15 0)
(1 2.56927e-15 0)
(1 1.38016e-15 0)
(1 1.68419e-15 0)
(1 1.52362e-15 0)
(1 2.92969e-15 0)
(1 1.98298e-15 0)
(1 1.43151e-16 0)
(1 8.31193e-16 0)
(1 -2.6665e-16 0)
(1 -4.53571e-16 0)
(1 -1.69705e-15 0)
(1 1.85776e-15 0)
(1 3.32172e-15 0)
(1 6.29779e-16 0)
(1 9.85478e-16 0)
(1 -2.97514e-15 0)
(1 -1.62882e-15 0)
(1 -4.52629e-16 0)
(1 3.86347e-16 0)
(1 7.18583e-16 0)
(1 2.22616e-15 0)
(1 1.64989e-16 0)
(1 -2.01358e-16 0)
(1 -2.0245e-15 0)
(1 -6.6928e-16 0)
(1 1.14917e-15 0)
(1 2.88677e-15 0)
(1 2.28462e-15 0)
(1 1.07572e-15 0)
(1 2.61546e-15 0)
(1 3.57673e-15 0)
(1 3.73535e-15 0)
(1 3.78234e-15 0)
(1 2.88233e-15 0)
(1 5.87118e-15 0)
(1 4.861e-15 0)
(1 3.06696e-15 0)
(1 2.70799e-15 0)
(1 4.54272e-15 0)
(1 5.18262e-15 0)
(1 5.60101e-15 0)
(1 4.70761e-15 0)
(1 5.3116e-15 0)
(1 3.08725e-15 0)
(1 4.8762e-15 0)
(1 3.59867e-15 0)
(1 3.77254e-15 0)
(1 2.87957e-15 0)
(1 3.99076e-15 0)
(1 1.89138e-15 0)
(1 3.3673e-15 0)
(1 4.41475e-15 0)
(1 2.46713e-15 0)
(1 2.72216e-15 0)
(1 1.85838e-15 0)
(1 1.94646e-15 0)
(1 3.92863e-15 0)
(1 2.54313e-15 0)
(1 1.1579e-15 0)
(1 1.24518e-15 0)
(1 6.14095e-16 0)
(1 -5.45229e-17 0)
(1 2.6501e-15 0)
(1 2.37887e-15 0)
(1 1.26775e-15 0)
(1 -6.19741e-16 0)
(1 1.4408e-15 0)
(1 1.51193e-16 0)
(1 3.18659e-15 0)
(1 6.93545e-17 0)
(1 -7.24381e-16 0)
(1 -9.68126e-17 0)
(1 -2.23698e-17 0)
(1 -7.86474e-17 0)
(1 -3.84174e-16 0)
(1 -1.44367e-15 0)
(1 1.60424e-15 0)
(1 3.96313e-16 0)
(1 1.34996e-15 0)
(1 1.117e-15 0)
(1 1.63265e-15 0)
(1 1.86454e-15 0)
(1 1.97264e-15 0)
(1 4.31314e-15 0)
(1 2.95026e-15 0)
(1 2.56407e-15 0)
(1 2.79554e-16 0)
(1 -2.17852e-16 0)
(1 1.60865e-15 0)
(1 1.99185e-15 0)
(1 3.45201e-16 0)
(1 5.22326e-16 0)
(1 -6.87724e-17 0)
(1 2.38707e-15 0)
(1 2.9725e-15 0)
(1 3.71457e-15 0)
(1 3.57097e-15 0)
(1 1.2405e-15 0)
(1 -4.85903e-16 0)
(1 1.82334e-15 0)
(1 1.45257e-15 0)
(1 3.10917e-15 0)
(1 2.8715e-15 0)
(1 9.78907e-16 0)
(1 1.77046e-15 0)
(1 1.32163e-15 0)
(1 1.71404e-15 0)
(1 1.43229e-15 0)
(1 4.05052e-16 0)
(1 -2.85921e-16 0)
(1 -4.40684e-16 0)
(1 -1.04886e-15 0)
(1 6.64192e-16 0)
(1 8.85991e-16 0)
(1 1.46467e-15 0)
(1 -1.96673e-16 0)
(1 -1.35816e-16 0)
(1 5.97597e-16 0)
(1 -5.51236e-16 0)
(1 -6.50775e-16 0)
(1 -1.56505e-15 0)
(1 -1.27406e-15 0)
(1 1.54946e-15 0)
(1 -1.22158e-15 0)
(1 -4.05885e-16 0)
(1 4.09623e-17 0)
(1 2.34609e-15 0)
(1 1.20252e-15 0)
(1 2.72492e-16 0)
(1 1.31798e-15 0)
(1 4.26099e-15 0)
(1 4.95383e-15 0)
(1 5.59185e-15 0)
(1 4.59531e-15 0)
(1 2.97139e-15 0)
(1 4.35819e-15 0)
(1 2.72983e-15 0)
(1 4.02713e-15 0)
(1 4.72091e-15 0)
(1 5.97842e-15 0)
(1 6.16404e-15 0)
(1 2.87655e-15 0)
(1 2.80667e-15 0)
(1 4.01484e-15 0)
(1 4.47955e-15 0)
(1 4.12188e-15 0)
(1 5.03709e-15 0)
(1 3.36611e-15 0)
(1 3.50528e-15 0)
(1 3.36852e-15 0)
(1 1.49425e-15 0)
(1 2.01121e-15 0)
(1 2.30801e-15 0)
(1 2.57994e-15 0)
(1 2.89881e-15 0)
(1 2.34822e-15 0)
(1 4.28555e-15 0)
(1 2.90328e-15 0)
(1 2.32807e-16 0)
(1 1.72242e-15 0)
(1 2.0449e-15 0)
(1 8.80423e-16 0)
(1 1.45577e-15 0)
(1 5.96499e-16 0)
(1 -2.26555e-16 0)
(1 1.31502e-16 0)
(1 2.81915e-15 0)
(1 1.81739e-15 0)
(1 1.45435e-15 0)
(1 -4.88649e-16 0)
(1 -7.08396e-16 0)
(1 1.06907e-15 0)
(1 -9.05148e-16 0)
(1 -8.02879e-16 0)
(1 -7.63994e-16 0)
(1 1.55804e-15 0)
(1 1.08446e-15 0)
(1 1.74513e-15 0)
(1 5.53812e-16 0)
(1 1.99581e-15 0)
(1 1.04798e-15 0)
(1 2.81938e-15 0)
(1 3.84117e-15 0)
(1 2.64859e-15 0)
(1 1.43792e-15 0)
(1 1.85127e-15 0)
(1 1.34918e-15 0)
(1 5.15345e-17 0)
(1 7.18452e-16 0)
(1 1.66077e-15 0)
(1 1.93155e-15 0)
(1 2.27424e-15 0)
(1 2.10302e-15 0)
(1 1.76585e-15 0)
(1 5.67723e-16 0)
(1 3.42874e-15 0)
(1 6.17274e-15 0)
(1 3.93149e-15 0)
(1 1.05989e-15 0)
(1 9.04578e-16 0)
(1 5.68945e-16 0)
(1 5.23634e-16 0)
(1 -7.83306e-16 0)
(1 -5.96671e-17 0)
(1 9.20591e-16 0)
(1 1.49904e-15 0)
(1 2.82198e-15 0)
(1 8.59846e-16 0)
(1 1.17437e-15 0)
(1 -2.83468e-15 0)
(1 4.15072e-15 0)
(1 -8.32085e-17 0)
(1 -3.8725e-15 0)
(1 -7.16103e-16 0)
(1 -1.35377e-15 0)
(1 1.02291e-15 0)
(1 -4.0825e-16 0)
(1 1.67495e-15 0)
(1 -8.23117e-16 0)
(1 -8.41841e-16 0)
(1 -1.72375e-16 0)
(1 4.088e-16 0)
(1 3.41748e-16 0)
(1 -1.09414e-15 0)
(1 -2.10715e-16 0)
(1 1.02628e-15 0)
(1 -1.52272e-16 0)
(1 2.08788e-15 0)
(1 -6.77108e-16 0)
(1 1.72746e-15 0)
(1 2.47997e-15 0)
(1 4.91445e-15 0)
(1 5.99397e-15 0)
(1 5.76047e-15 0)
(1 2.85718e-15 0)
(1 3.99871e-15 0)
(1 2.62255e-15 0)
(1 3.95043e-15 0)
(1 5.78684e-15 0)
(1 6.40378e-15 0)
(1 4.929e-15 0)
(1 4.49439e-15 0)
(1 2.13717e-15 0)
(1 5.06176e-15 0)
(1 1.38424e-15 0)
(1 3.13063e-15 0)
(1 2.96336e-15 0)
(1 4.88022e-15 0)
(1 4.9331e-15 0)
(1 5.82133e-15 0)
(1 3.24185e-15 0)
(1 1.21506e-15 0)
(1 2.04222e-15 0)
(1 1.90095e-15 0)
(1 9.45837e-16 0)
(1 1.55353e-15 0)
(1 9.91088e-16 0)
(1 2.10376e-15 0)
(1 2.56554e-15 0)
(1 2.02607e-15 0)
(1 2.08919e-15 0)
(1 1.20221e-15 0)
(1 6.53457e-17 0)
(1 -2.57379e-16 0)
(1 1.38995e-15 0)
(1 2.25745e-15 0)
(1 2.33012e-16 0)
(1 -1.29362e-16 0)
(1 -5.76285e-16 0)
(1 4.90728e-16 0)
(1 2.8838e-16 0)
(1 1.67441e-15 0)
(1 -1.04874e-15 0)
(1 2.15981e-16 0)
(1 -5.49975e-16 0)
(1 1.40782e-15 0)
(1 8.08587e-16 0)
(1 4.12846e-16 0)
(1 8.81277e-16 0)
(1 -7.12427e-16 0)
(1 9.69075e-16 0)
(1 2.99114e-15 0)
(1 1.47205e-15 0)
(1 1.48001e-15 0)
(1 5.15763e-16 0)
(1 1.0475e-15 0)
(1 2.81327e-16 0)
(1 1.3948e-15 0)
(1 -9.94754e-16 0)
(1 1.88446e-15 0)
(1 2.77787e-15 0)
(1 4.03491e-15 0)
(1 2.62269e-15 0)
(1 2.01364e-15 0)
(1 -6.91367e-16 0)
(1 -3.5563e-16 0)
(1 3.25114e-15 0)
(1 4.24591e-15 0)
(1 3.45984e-15 0)
(1 3.38324e-15 0)
(1 -1.50647e-16 0)
(1 -1.51697e-15 0)
(1 -2.02511e-15 0)
(1 -3.99151e-16 0)
(1 2.68973e-16 0)
(1 4.54596e-16 0)
(1 2.65174e-15 0)
(1 1.62814e-15 0)
(1 2.92563e-15 0)
(1 -7.69173e-16 0)
(1 1.23163e-15 0)
(1 -5.70594e-17 0)
(1 -1.47866e-15 0)
(1 -2.3985e-15 0)
(1 -4.77602e-16 0)
(1 7.63933e-16 0)
(1 5.86767e-16 0)
(1 -1.32025e-15 0)
(1 -5.55656e-16 0)
(1 -1.16615e-16 0)
(1 -5.77011e-17 0)
(1 -1.16506e-15 0)
(1 -2.68628e-16 0)
(1 -2.06656e-15 0)
(1 1.15083e-15 0)
(1 -4.55739e-16 0)
(1 3.22684e-16 0)
(1 1.80258e-16 0)
(1 2.94188e-15 0)
(1 4.70007e-15 0)
(1 1.91397e-15 0)
(1 4.13737e-15 0)
(1 2.63464e-15 0)
(1 5.58109e-15 0)
(1 3.20494e-15 0)
(1 2.5125e-15 0)
(1 2.51474e-15 0)
(1 2.41272e-15 0)
(1 5.52085e-15 0)
(1 5.42082e-15 0)
(1 2.95022e-15 0)
(1 6.1241e-15 0)
(1 5.73213e-15 0)
(1 5.388e-15 0)
(1 3.16232e-15 0)
(1 2.50247e-15 0)
(1 2.56419e-15 0)
(1 3.05833e-15 0)
(1 1.9511e-15 0)
(1 3.7204e-15 0)
(1 3.74859e-15 0)
(1 4.06279e-15 0)
(1 2.42584e-15 0)
(1 3.57173e-15 0)
(1 1.48465e-15 0)
(1 2.02434e-15 0)
(1 1.15077e-15 0)
(1 1.99796e-15 0)
(1 3.4957e-15 0)
(1 2.47116e-15 0)
(1 1.83892e-15 0)
(1 1.56966e-15 0)
(1 8.97844e-16 0)
(1 2.56532e-15 0)
(1 2.25186e-15 0)
(1 1.21002e-15 0)
(1 -4.56814e-16 0)
(1 2.85424e-16 0)
(1 -7.7002e-16 0)
(1 8.12271e-16 0)
(1 3.08712e-16 0)
(1 -2.99936e-16 0)
(1 -1.33604e-15 0)
(1 1.20475e-15 0)
(1 1.48582e-15 0)
(1 7.16091e-16 0)
(1 1.01506e-15 0)
(1 4.99258e-17 0)
(1 8.09134e-16 0)
(1 1.20709e-15 0)
(1 7.11229e-16 0)
(1 1.54515e-15 0)
(1 5.13491e-16 0)
(1 2.9615e-15 0)
(1 6.89195e-16 0)
(1 -7.00941e-16 0)
(1 3.55061e-16 0)
(1 1.62729e-15 0)
(1 2.01611e-15 0)
(1 3.24621e-15 0)
(1 2.21598e-15 0)
(1 1.27449e-15 0)
(1 -1.70972e-16 0)
(1 -3.8147e-16 0)
(1 2.40057e-15 0)
(1 1.7384e-15 0)
(1 3.08039e-15 0)
(1 2.23527e-15 0)
(1 3.14644e-15 0)
(1 -9.20431e-16 0)
(1 -1.53095e-15 0)
(1 -4.2064e-16 0)
(1 -3.88693e-15 0)
(1 2.75977e-15 0)
(1 3.58269e-16 0)
(1 9.7503e-16 0)
(1 1.84387e-15 0)
(1 -8.66164e-17 0)
(1 2.22415e-16 0)
(1 4.409e-15 0)
(1 1.4566e-15 0)
(1 8.05895e-16 0)
(1 -5.91976e-16 0)
(1 -7.64106e-16 0)
(1 -1.20342e-15 0)
(1 -1.69601e-15 0)
(1 -1.02523e-15 0)
(1 -7.91999e-16 0)
(1 -1.22958e-15 0)
(1 -2.44656e-15 0)
(1 -4.8386e-16 0)
(1 -1.19158e-15 0)
(1 -1.31561e-15 0)
(1 5.10608e-16 0)
(1 7.31711e-16 0)
(1 -5.93022e-16 0)
(1 1.12785e-15 0)
(1 8.49308e-16 0)
(1 4.53133e-15 0)
(1 3.56645e-15 0)
(1 3.26456e-15 0)
(1 3.36999e-15 0)
(1 5.6863e-17 0)
(1 3.62273e-15 0)
(1 2.35522e-15 0)
(1 3.50962e-16 0)
(1 3.0939e-15 0)
(1 4.17898e-15 0)
(1 4.53752e-15 0)
(1 4.33439e-15 0)
(1 3.69611e-15 0)
(1 5.62471e-15 0)
(1 5.50646e-15 0)
(1 5.49563e-15 0)
(1 5.52485e-15 0)
(1 4.34147e-15 0)
(1 4.1633e-15 0)
(1 1.4966e-15 0)
(1 2.69447e-15 0)
(1 2.70408e-15 0)
(1 4.39452e-15 0)
(1 3.91254e-15 0)
(1 3.54557e-15 0)
(1 3.51215e-15 0)
(1 3.25862e-15 0)
(1 2.3299e-15 0)
(1 1.95283e-15 0)
(1 3.7817e-15 0)
(1 2.80725e-15 0)
(1 2.30472e-15 0)
(1 9.62882e-16 0)
(1 2.39239e-15 0)
(1 1.52889e-15 0)
(1 2.34001e-15 0)
(1 1.1314e-15 0)
(1 -1.88429e-15 0)
(1 7.95061e-16 0)
(1 5.50544e-16 0)
(1 -7.11579e-16 0)
(1 9.09392e-17 0)
(1 -8.35292e-16 0)
(1 -2.82505e-15 0)
(1 -1.6592e-15 0)
(1 -4.52682e-16 0)
(1 1.78156e-16 0)
(1 -2.09349e-16 0)
(1 6.02954e-16 0)
(1 4.50218e-16 0)
(1 1.81694e-15 0)
(1 2.26455e-15 0)
(1 3.31917e-15 0)
(1 7.03629e-16 0)
(1 -2.29747e-17 0)
(1 1.75435e-15 0)
(1 1.23137e-15 0)
(1 1.26237e-15 0)
(1 -1.5212e-16 0)
(1 7.1008e-16 0)
(1 1.57886e-15 0)
(1 1.54086e-15 0)
(1 2.09917e-15 0)
(1 2.53903e-15 0)
(1 3.22225e-15 0)
(1 1.46161e-15 0)
(1 1.80813e-15 0)
(1 2.31644e-15 0)
(1 -8.56845e-16 0)
(1 1.03408e-16 0)
(1 1.37612e-15 0)
(1 -3.421e-16 0)
(1 1.72911e-15 0)
(1 7.07148e-16 0)
(1 -9.56046e-16 0)
(1 -1.36136e-16 0)
(1 3.85821e-16 0)
(1 1.48325e-15 0)
(1 3.67935e-16 0)
(1 2.30939e-15 0)
(1 -1.35145e-15 0)
(1 8.64207e-16 0)
(1 -2.98282e-15 0)
(1 -7.96509e-17 0)
(1 -7.63864e-16 0)
(1 2.9915e-15 0)
(1 -1.95874e-15 0)
(1 -1.64957e-15 0)
(1 -1.11394e-15 0)
(1 -2.41531e-15 0)
(1 2.76383e-16 0)
(1 -2.10041e-15 0)
(1 4.74583e-16 0)
(1 -3.76708e-16 0)
(1 -1.36071e-15 0)
(1 2.85758e-16 0)
(1 -1.07089e-15 0)
(1 6.56216e-17 0)
(1 5.65734e-16 0)
(1 3.58086e-15 0)
(1 2.25797e-15 0)
(1 7.13607e-16 0)
(1 1.03942e-15 0)
(1 -1.07687e-15 0)
(1 3.00399e-15 0)
(1 1.80361e-15 0)
(1 3.19306e-15 0)
(1 2.77e-16 0)
(1 3.29478e-15 0)
(1 4.80768e-15 0)
(1 5.45305e-15 0)
(1 3.18725e-15 0)
(1 5.28873e-15 0)
(1 5.66895e-15 0)
(1 5.25694e-15 0)
(1 4.25511e-15 0)
(1 4.11893e-15 0)
(1 3.05615e-15 0)
(1 2.8543e-15 0)
(1 2.11342e-15 0)
(1 2.73821e-15 0)
(1 1.9681e-16 0)
(1 3.62871e-15 0)
(1 3.43161e-15 0)
(1 3.53518e-15 0)
(1 2.77672e-15 0)
(1 2.90826e-15 0)
(1 2.11772e-15 0)
(1 1.96556e-15 0)
(1 1.065e-15 0)
(1 1.57015e-15 0)
(1 3.05002e-15 0)
(1 1.14222e-15 0)
(1 1.08487e-16 0)
(1 9.61368e-17 0)
(1 2.86865e-16 0)
(1 1.06082e-15 0)
(1 6.4387e-16 0)
(1 -2.30662e-16 0)
(1 -1.67824e-15 0)
(1 1.19801e-15 0)
(1 -1.38681e-16 0)
(1 -8.30202e-16 0)
(1 -2.29609e-15 0)
(1 -1.40985e-15 0)
(1 -9.69991e-16 0)
(1 3.14483e-16 0)
(1 6.89388e-17 0)
(1 1.09656e-15 0)
(1 1.56849e-15 0)
(1 2.0666e-15 0)
(1 1.37487e-15 0)
(1 1.75124e-15 0)
(1 -6.69708e-17 0)
(1 1.0881e-15 0)
(1 -4.13314e-16 0)
(1 3.33949e-17 0)
(1 2.07506e-15 0)
(1 -1.34144e-15 0)
(1 1.39214e-15 0)
(1 -1.46706e-16 0)
(1 5.41395e-16 0)
(1 1.40635e-15 0)