/*--------------------------------*- C++ -*----------------------------------*\
| =========                 |                                                 |
| \\      /  F ield         | OpenFOAM: The Open Source CFD Toolbox           |
|  \\    /   O peration     | Version:  v2012                                 |
|   \\  /    A nd           | Website:  www.openfoam.com                      |
|    \\/     M anipulation  |                                                 |
\*---------------------------------------------------------------------------*/
FoamFile
{
    version     2.0;
    format      ascii;
    class       surfaceScalarField;
    location    "6.5";
    object      phi;
}
// * * * * * * * * * * * * * * * * * * * * * * * * * * * * * * * * * * * * * //

dimensions      [0 3 -1 0 0 0 0];
oriented        oriented;


internalField   nonuniform List<scalar> 
130560
(
3.70054e-06
-3.70054e-06
7.40097e-06
-3.70044e-06
1.11012e-05
-3.70025e-06
1.48012e-05
-3.69995e-06
1.85007e-05
-3.69956e-06
2.21998e-05
-3.69907e-06
2.58983e-05
-3.69846e-06
2.9596e-05
-3.69775e-06
3.32929e-05
-3.69692e-06
3.69889e-05
-3.69596e-06
4.06838e-05
-3.69487e-06
4.43774e-05
-3.69365e-06
4.80697e-05
-3.69228e-06
5.17605e-05
-3.69076e-06
5.54495e-05
-3.68907e-06
5.91367e-05
-3.68721e-06
6.28219e-05
-3.68516e-06
6.65048e-05
-3.68292e-06
7.01853e-05
-3.68046e-06
7.38631e-05
-3.67778e-06
7.75379e-05
-3.67487e-06
8.12096e-05
-3.67171e-06
8.48779e-05
-3.66828e-06
8.85425e-05
-3.66456e-06
9.2203e-05
-3.66055e-06
9.58593e-05
-3.65623e-06
9.95108e-05
-3.65157e-06
0.000103157
-3.64656e-06
0.000106799
-3.64119e-06
0.000110434
-3.63543e-06
0.000114063
-3.62926e-06
0.000117686
-3.62266e-06
0.000121302
-3.61562e-06
0.00012491
-3.6081e-06
0.00012851
-3.6001e-06
0.000132101
-3.59159e-06
0.000135684
-3.58255e-06
0.000139257
-3.57295e-06
0.00014282
-3.56278e-06
0.000146372
-3.55201e-06
0.000149912
-3.54062e-06
0.000153441
-3.52858e-06
0.000156957
-3.51588e-06
0.000160459
-3.50249e-06
0.000163948
-3.48838e-06
0.000167421
-3.47355e-06
0.000170879
-3.45795e-06
0.000174321
-3.44158e-06
0.000177745
-3.42441e-06
0.000181151
-3.40641e-06
0.000184539
-3.38757e-06
0.000187907
-3.36787e-06
0.000191254
-3.34728e-06
0.00019458
-3.32578e-06
0.000197883
-3.30336e-06
0.000201163
-3.28e-06
0.000204419
-3.25568e-06
0.000207649
-3.23038e-06
0.000210853
-3.20409e-06
0.00021403
-3.17679e-06
0.000217179
-3.14846e-06
0.000220298
-3.1191e-06
0.000223387
-3.08868e-06
0.000226444
-3.05721e-06
0.000229468
-3.02467e-06
0.000232459
-2.99105e-06
0.000235416
-2.95634e-06
0.000238336
-2.92054e-06
0.00024122
-2.88364e-06
0.000244066
-2.84564e-06
0.000246872
-2.80654e-06
0.000249638
-2.76634e-06
0.000252364
-2.72504e-06
0.000255046
-2.68264e-06
0.000257685
-2.63915e-06
0.00026028
-2.59457e-06
0.000262829
-2.54892e-06
0.000265331
-2.50219e-06
0.000267785
-2.45441e-06
0.000270191
-2.40558e-06
0.000272547
-2.35573e-06
0.000274852
-2.30486e-06
0.000277105
-2.25299e-06
0.000279305
-2.20015e-06
0.000281451
-2.14636e-06
0.000283543
-2.09163e-06
0.000285579
-2.036e-06
0.000287558
-1.97949e-06
0.00028948
-1.92213e-06
0.000291344
-1.86394e-06
0.000293149
-1.80496e-06
0.000294894
-1.74522e-06
0.000296579
-1.68476e-06
0.000298203
-1.6236e-06
0.000299765
-1.56178e-06
0.000301264
-1.49935e-06
0.0003027
-1.43633e-06
0.000304073
-1.37277e-06
0.000305382
-1.3087e-06
0.000306626
-1.24417e-06
0.000307805
-1.17922e-06
0.000308919
-1.11388e-06
0.000309967
-1.04821e-06
0.000310949
-9.82238e-07
0.000311865
-9.16015e-07
0.000312715
-8.49581e-07
0.000313498
-7.82981e-07
0.000314214
-7.16257e-07
0.000314864
-6.49452e-07
0.000315446
-5.82611e-07
0.000315962
-5.15775e-07
0.000316411
-4.48988e-07
0.000316793
-3.82291e-07
0.000317109
-3.15727e-07
0.000317358
-2.49336e-07
0.000317542
-1.8316e-07
0.000317659
-1.17238e-07
0.00031771
-5.16092e-08
0.000317697
1.36882e-08
0.000317618
7.86169e-08
0.000317475
1.43141e-07
0.000317268
2.07224e-07
0.000316997
2.70832e-07
0.000316663
3.33933e-07
0.000316267
3.96494e-07
0.000315808
4.58485e-07
0.000315288
5.19876e-07
0.000314708
5.80639e-07
0.000314067
6.40747e-07
0.000313367
7.00175e-07
0.000312608
7.58897e-07
0.000311791
8.16893e-07
0.000310917
8.74139e-07
0.000309986
9.30616e-07
0.000309
9.86305e-07
0.000307959
1.04119e-06
0.000306863
1.09525e-06
0.000305715
1.14848e-06
0.000304514
1.20085e-06
0.000303262
1.25237e-06
0.000301959
1.30301e-06
0.000300606
1.35277e-06
0.000299204
1.40164e-06
0.000297755
1.44962e-06
0.000296258
1.49669e-06
0.000294715
1.54285e-06
0.000293127
1.5881e-06
0.000291495
1.63244e-06
0.000289819
1.67587e-06
0.0002881
1.71838e-06
0.00028634
1.75997e-06
0.00028454
1.80065e-06
0.000282699
1.84043e-06
0.00028082
1.87929e-06
0.000278903
1.91726e-06
0.000276948
1.95432e-06
0.000274958
1.9905e-06
0.000272932
2.02579e-06
0.000270872
2.0602e-06
0.000268778
2.09374e-06
0.000266652
2.12642e-06
0.000264493
2.15825e-06
0.000262304
2.18923e-06
0.000260085
2.21939e-06
0.000257836
2.24871e-06
0.000255559
2.27723e-06
0.000253254
2.30495e-06
0.000250922
2.33188e-06
0.000248564
2.35803e-06
0.000246181
2.38341e-06
0.000243773
2.40804e-06
0.000241341
2.43194e-06
0.000238886
2.4551e-06
0.000236408
2.47756e-06
0.000233909
2.49931e-06
0.000231388
2.52037e-06
0.000228848
2.54076e-06
0.000226287
2.56049e-06
0.000223707
2.57957e-06
0.000221109
2.59802e-06
0.000218494
2.61585e-06
0.000215861
2.63307e-06
0.000213211
2.6497e-06
0.000210545
2.66575e-06
0.000207864
2.68124e-06
0.000205168
2.69617e-06
0.000202457
2.71056e-06
0.000199733
2.72443e-06
0.000196995
2.73779e-06
0.000194244
2.75064e-06
0.000191481
2.76301e-06
0.000188706
2.77491e-06
0.00018592
2.78634e-06
0.000183123
2.79733e-06
0.000180315
2.80787e-06
0.000177497
2.818e-06
0.000174669
2.82771e-06
0.000171832
2.83703e-06
0.000168986
2.84595e-06
0.000166132
2.8545e-06
0.000163269
2.86269e-06
0.000160398
2.87052e-06
0.00015752
2.87801e-06
0.000154635
2.88516e-06
0.000151743
2.892e-06
0.000148845
2.89853e-06
0.00014594
2.90475e-06
0.000143029
2.91069e-06
0.000140113
2.91634e-06
0.000137191
2.92172e-06
0.000134264
2.92685e-06
0.000131333
2.93172e-06
0.000128396
2.93635e-06
0.000125455
2.94075e-06
0.000122511
2.94492e-06
0.000119562
2.94888e-06
0.000116609
2.95263e-06
0.000113653
2.95618e-06
0.000110693
2.95954e-06
0.000107731
2.96271e-06
0.000104765
2.96571e-06
0.000101796
2.96854e-06
9.88252e-05
2.97121e-06
9.58514e-05
2.97372e-06
9.28753e-05
2.97609e-06
8.9897e-05
2.97832e-06
8.69166e-05
2.98041e-06
8.39342e-05
2.98237e-06
8.095e-05
2.98421e-06
7.79641e-05
2.98593e-06
7.49766e-05
2.98755e-06
7.19875e-05
2.98905e-06
6.8997e-05
2.99046e-06
6.60053e-05
2.99177e-06
6.30123e-05
2.99298e-06
6.00182e-05
2.99412e-06
5.7023e-05
2.99516e-06
5.40269e-05
2.99614e-06
5.10299e-05
2.99703e-06
4.8032e-05
2.99786e-06
4.50334e-05
2.99862e-06
4.20341e-05
2.99932e-06
3.90341e-05
2.99995e-06
3.60336e-05
3.00053e-06
3.30325e-05
3.00105e-06
3.0031e-05
3.00152e-06
2.70291e-05
3.00195e-06
2.40267e-05
3.00232e-06
2.10241e-05
3.00265e-06
1.80212e-05
3.00293e-06
1.5018e-05
3.00317e-06
1.20146e-05
3.00336e-06
9.01111e-06
3.00352e-06
6.00747e-06
3.00364e-06
3.00375e-06
3.00372e-06
3.00375e-06
3.70063e-06
-7.40117e-06
7.40116e-06
-7.40097e-06
1.11015e-05
-7.40059e-06
1.48016e-05
-7.40001e-06
1.85012e-05
-7.39923e-06
2.22004e-05
-7.39824e-06
2.5899e-05
-7.39704e-06
2.95968e-05
-7.39561e-06
3.32939e-05
-7.39395e-06
3.699e-05
-7.39205e-06
4.0685e-05
-7.38988e-06
4.43788e-05
-7.38745e-06
4.80712e-05
-7.38472e-06
5.17621e-05
-7.38168e-06
5.54514e-05
-7.37832e-06
5.91388e-05
-7.3746e-06
6.28241e-05
-7.37052e-06
6.65073e-05
-7.36604e-06
7.01879e-05
-7.36115e-06
7.3866e-05
-7.35581e-06
7.75411e-05
-7.34999e-06
8.1213e-05
-7.34368e-06
8.48816e-05
-7.33683e-06
8.85465e-05
-7.32942e-06
9.22073e-05
-7.32142e-06
9.58639e-05
-7.31279e-06
9.95158e-05
-7.30349e-06
0.000103163
-7.29349e-06
0.000106804
-7.28276e-06
0.00011044
-7.27126e-06
0.00011407
-7.25894e-06
0.000117693
-7.24576e-06
0.000121309
-7.2317e-06
0.000124918
-7.2167e-06
0.000128518
-7.20072e-06
0.00013211
-7.18372e-06
0.000135693
-7.16565e-06
0.000139267
-7.14648e-06
0.00014283
-7.12616e-06
0.000146383
-7.10464e-06
0.000149924
-7.08188e-06
0.000153453
-7.05783e-06
0.00015697
-7.03245e-06
0.000160473
-7.00568e-06
0.000163962
-6.9775e-06
0.000167437
-6.94785e-06
0.000170895
-6.91668e-06
0.000174338
-6.88396e-06
0.000177763
-6.84963e-06
0.00018117
-6.81366e-06
0.000184559
-6.776e-06
0.000187927
-6.73662e-06
0.000191276
-6.69546e-06
0.000194602
-6.65249e-06
0.000197907
-6.60767e-06
0.000201188
-6.56097e-06
0.000204444
-6.51234e-06
0.000207676
-6.46176e-06
0.000210881
-6.40918e-06
0.000214059
-6.35459e-06
0.000217208
-6.29796e-06
0.000220328
-6.23924e-06
0.000223418
-6.17843e-06
0.000226476
-6.11549e-06
0.000229502
-6.05041e-06
0.000232494
-5.98318e-06
0.000235452
-5.91377e-06
0.000238373
-5.84217e-06
0.000241258
-5.76838e-06
0.000244105
-5.69238e-06
0.000246912
-5.61419e-06
0.00024968
-5.53378e-06
0.000252406
-5.45118e-06
0.00025509
-5.36638e-06
0.00025773
-5.27939e-06
0.000260325
-5.19022e-06
0.000262875
-5.0989e-06
0.000265379
-5.00544e-06
0.000267834
-4.90986e-06
0.000270241
-4.81219e-06
0.000272597
-4.71246e-06
0.000274903
-4.61071e-06
0.000277157
-4.50696e-06
0.000279358
-4.40125e-06
0.000281506
-4.29364e-06
0.000283598
-4.18417e-06
0.000285635
-4.07288e-06
0.000287615
-3.95983e-06
0.000289538
-3.84508e-06
0.000291403
-3.72868e-06
0.000293209
-3.61069e-06
0.000294955
-3.49118e-06
0.00029664
-3.37021e-06
0.000298265
-3.24786e-06
0.000299827
-3.12419e-06
0.000301327
-2.99928e-06
0.000302764
-2.8732e-06
0.000304137
-2.74604e-06
0.000305446
-2.61786e-06
0.000306691
-2.48876e-06
0.00030787
-2.35881e-06
0.000308985
-2.2281e-06
0.000310033
-2.09671e-06
0.000311016
-1.96473e-06
0.000311932
-1.83224e-06
0.000312782
-1.69933e-06
0.000313565
-1.56609e-06
0.000314281
-1.43259e-06
0.00031493
-1.29894e-06
0.000315513
-1.16522e-06
0.000316029
-1.0315e-06
0.000316478
-8.97885e-07
0.00031686
-7.6445e-07
0.000317175
-6.3128e-07
0.000317425
-4.98459e-07
0.000317607
-3.66067e-07
0.000317724
-2.34183e-07
0.000317776
-1.02887e-07
0.000317762
2.77447e-08
0.000317683
1.57638e-07
0.000317539
2.86721e-07
0.000317331
4.14921e-07
0.00031706
5.42172e-07
0.000316725
6.68405e-07
0.000316328
7.93558e-07
0.000315869
9.17569e-07
0.000315349
1.04038e-06
0.000314768
1.16193e-06
0.000314126
1.28217e-06
0.000313425
1.40105e-06
0.000312666
1.51852e-06
0.000311848
1.63453e-06
0.000310973
1.74905e-06
0.000310042
1.86202e-06
0.000309055
1.97341e-06
0.000308013
2.0832e-06
0.000306916
2.19134e-06
0.000305767
2.2978e-06
0.000304565
2.40257e-06
0.000303312
2.50561e-06
0.000302008
2.6069e-06
0.000300655
2.70643e-06
0.000299252
2.80418e-06
0.000297802
2.90013e-06
0.000296304
2.99428e-06
0.00029476
3.08661e-06
0.000293171
3.17712e-06
0.000291538
3.2658e-06
0.000289861
3.35265e-06
0.000288142
3.43767e-06
0.000286381
3.52085e-06
0.000284579
3.60222e-06
0.000282738
3.68176e-06
0.000280858
3.75949e-06
0.00027894
3.83541e-06
0.000276984
3.90954e-06
0.000274993
3.98188e-06
0.000272966
4.05245e-06
0.000270905
4.12127e-06
0.000268811
4.18834e-06
0.000266683
4.25369e-06
0.000264524
4.31734e-06
0.000262334
4.3793e-06
0.000260114
4.43959e-06
0.000257865
4.49824e-06
0.000255587
4.55526e-06
0.000253281
4.61068e-06
0.000250948
4.66453e-06
0.000248589
4.71682e-06
0.000246205
4.76757e-06
0.000243796
4.81683e-06
0.000241364
4.8646e-06
0.000238908
4.91092e-06
0.00023643
4.95581e-06
0.00023393
4.9993e-06
0.000231409
5.04142e-06
0.000228867
5.08218e-06
0.000226306
5.12163e-06
0.000223726
5.15978e-06
0.000221127
5.19667e-06
0.000218511
5.23231e-06
0.000215877
5.26674e-06
0.000213227
5.29999e-06
0.000210561
5.33207e-06
0.000207879
5.36303e-06
0.000205182
5.39288e-06
0.000202471
5.42165e-06
0.000199746
5.44938e-06
0.000197008
5.47607e-06
0.000194257
5.50177e-06
0.000191493
5.5265e-06
0.000188718
5.55027e-06
0.000185931
5.57313e-06
0.000183133
5.59509e-06
0.000180325
5.61617e-06
0.000177506
5.63641e-06
0.000174678
5.65583e-06
0.000171841
5.67444e-06
0.000168995
5.69228e-06
0.00016614
5.70937e-06
0.000163277
5.72573e-06
0.000160406
5.74138e-06
0.000157527
5.75635e-06
0.000154642
5.77065e-06
0.00015175
5.78431e-06
0.000148851
5.79735e-06
0.000145946
5.80979e-06
0.000143035
5.82165e-06
0.000140118
5.83295e-06
0.000137196
5.84371e-06
0.000134269
5.85395e-06
0.000131337
5.86368e-06
0.000128401
5.87294e-06
0.00012546
5.88172e-06
0.000122515
5.89006e-06
0.000119565
5.89796e-06
0.000116613
5.90545e-06
0.000113656
5.91255e-06
0.000110697
5.91926e-06
0.000107734
5.9256e-06
0.000104768
5.93159e-06
0.000101799
5.93724e-06
9.88277e-05
5.94257e-06
9.58538e-05
5.9476e-06
9.28776e-05
5.95232e-06
8.98991e-05
5.95677e-06
8.69186e-05
5.96095e-06
8.39361e-05
5.96486e-06
8.09518e-05
5.96854e-06
7.79657e-05
5.97198e-06
7.49781e-05
5.9752e-06
7.19889e-05
5.9782e-06
6.89984e-05
5.98101e-06
6.60065e-05
5.98362e-06
6.30134e-05
5.98605e-06
6.00192e-05
5.98831e-06
5.7024e-05
5.99041e-06
5.40278e-05
5.99235e-06
5.10307e-05
5.99414e-06
4.80328e-05
5.99579e-06
4.50341e-05
5.9973e-06
4.20347e-05
5.99869e-06
3.90347e-05
5.99996e-06
3.60341e-05
6.00112e-06
3.3033e-05
6.00216e-06
3.00314e-05
6.0031e-06
2.70294e-05
6.00394e-06
2.40271e-05
6.00468e-06
2.10244e-05
6.00534e-06
1.80214e-05
6.0059e-06
1.50182e-05
6.00638e-06
1.20148e-05
6.00677e-06
9.01122e-06
6.00708e-06
6.00755e-06
6.00732e-06
3.00379e-06
6.00747e-06
6.00755e-06
3.70082e-06
-1.1102e-05
7.40155e-06
-1.11017e-05
1.11021e-05
-1.11011e-05
1.48023e-05
-1.11003e-05
1.85022e-05
-1.10991e-05
2.22016e-05
-1.10976e-05
2.59004e-05
-1.10958e-05
2.95985e-05
-1.10937e-05
3.32958e-05
-1.10912e-05
3.69921e-05
-1.10884e-05
4.06874e-05
-1.10852e-05
4.43815e-05
-1.10815e-05
4.80743e-05
-1.10775e-05
5.17655e-05
-1.10729e-05
5.54551e-05
-1.10679e-05
5.91429e-05
-1.10624e-05
6.28286e-05
-1.10563e-05
6.65122e-05
-1.10496e-05
7.01933e-05
-1.10423e-05
7.38718e-05
-1.10343e-05
7.75474e-05
-1.10256e-05
8.12199e-05
-1.10162e-05
8.4889e-05
-1.1006e-05
8.85545e-05
-1.09949e-05
9.2216e-05
-1.09829e-05
9.58732e-05
-1.097e-05
9.95258e-05
-1.09561e-05
0.000103173
-1.09412e-05
0.000106816
-1.09251e-05
0.000110452
-1.09079e-05
0.000114083
-1.08895e-05
0.000117707
-1.08698e-05
0.000121324
-1.08487e-05
0.000124934
-1.08263e-05
0.000128535
-1.08024e-05
0.000132128
-1.07769e-05
0.000135713
-1.07499e-05
0.000139287
-1.07212e-05
0.000142852
-1.06907e-05
0.000146406
-1.06585e-05
0.000149948
-1.06244e-05
0.000153479
-1.05884e-05
0.000156997
-1.05504e-05
0.000160501
-1.05103e-05
0.000163992
-1.04681e-05
0.000167468
-1.04237e-05
0.000170928
-1.0377e-05
0.000174372
-1.03279e-05
0.000177799
-1.02765e-05
0.000181208
-1.02226e-05
0.000184598
-1.01662e-05
0.000187969
-1.01071e-05
0.000191319
-1.00454e-05
0.000194647
-9.98104e-06
0.000197953
-9.91386e-06
0.000201236
-9.84385e-06
0.000204495
-9.77095e-06
0.000207728
-9.69512e-06
0.000210935
-9.6163e-06
0.000214115
-9.53445e-06
0.000217267
-9.44953e-06
0.000220389
-9.36149e-06
0.000223481
-9.27029e-06
0.000226541
-9.17591e-06
0.000229569
-9.07832e-06
0.000232564
-8.97748e-06
0.000235523
-8.87338e-06
0.000238447
-8.766e-06
0.000241334
-8.65532e-06
0.000244183
-8.54133e-06
0.000246993
-8.42404e-06
0.000249762
-8.30343e-06
0.000252491
-8.17951e-06
0.000255177
-8.0523e-06
0.000257819
-7.9218e-06
0.000260417
-7.78803e-06
0.000262969
-7.65102e-06
0.000265474
-7.5108e-06
0.000267932
-7.3674e-06
0.000270341
-7.22086e-06
0.000272699
-7.07123e-06
0.000275007
-6.91855e-06
0.000277263
-6.76287e-06
0.000279466
-6.60427e-06
0.000281615
-6.44279e-06
0.00028371
-6.27852e-06
0.000285748
-6.11153e-06
0.00028773
-5.94188e-06
0.000289655
-5.76968e-06
0.000291521
-5.595e-06
0.000293328
-5.41793e-06
0.000295076
-5.23858e-06
0.000296763
-5.05705e-06
0.000298388
-4.87343e-06
0.000299952
-4.68783e-06
0.000301453
-4.50037e-06
0.000302891
-4.31116e-06
0.000304265
-4.12032e-06
0.000305575
-3.92795e-06
0.000306821
-3.7342e-06
0.000308001
-3.53917e-06
0.000309116
-3.343e-06
0.000310165
-3.14581e-06
0.000311148
-2.94773e-06
0.000312065
-2.74888e-06
0.000312915
-2.54941e-06
0.000313698
-2.34944e-06
0.000314415
-2.14909e-06
0.000315064
-1.94851e-06
0.000315647
-1.74781e-06
0.000316162
-1.54713e-06
0.000316611
-1.3466e-06
0.000316993
-1.14634e-06
0.000317308
-9.46486e-07
0.000317557
-7.47152e-07
0.000317739
-5.48464e-07
0.000317856
-3.50541e-07
0.000317906
-1.53502e-07
0.000317892
4.25398e-08
0.000317812
2.37471e-07
0.000317667
4.31183e-07
0.000317459
6.2357e-07
0.000317186
8.14528e-07
0.000316851
1.00396e-06
0.000316452
1.19176e-06
0.000315992
1.37785e-06
0.00031547
1.56214e-06
0.000314888
1.74454e-06
0.000314245
1.92496e-06
0.000313543
2.10334e-06
0.000312782
2.2796e-06
0.000311963
2.45367e-06
0.000311086
2.62549e-06
0.000310153
2.795e-06
0.000309164
2.96214e-06
0.000308121
3.12685e-06
0.000307023
3.2891e-06
0.000305872
3.44883e-06
0.000304668
3.606e-06
0.000303414
3.76059e-06
0.000302108
3.91256e-06
0.000300752
4.06187e-06
0.000299348
4.20851e-06
0.000297896
4.35246e-06
0.000296396
4.49369e-06
0.000294851
4.63219e-06
0.00029326
4.76796e-06
0.000291625
4.90098e-06
0.000289946
5.03126e-06
0.000288225
5.15878e-06
0.000286462
5.28356e-06
0.000284659
5.4056e-06
0.000282816
5.52491e-06
0.000280934
5.64149e-06
0.000279014
5.75536e-06
0.000277057
5.86653e-06
0.000275064
5.97503e-06
0.000273035
6.08087e-06
0.000270972
6.18408e-06
0.000268876
6.28467e-06
0.000266747
6.38267e-06
0.000264586
6.47812e-06
0.000262395
6.57103e-06
0.000260173
6.66144e-06
0.000257922
6.74939e-06
0.000255642
6.83489e-06
0.000253335
6.918e-06
0.000251
6.99873e-06
0.00024864
7.07714e-06
0.000246254
7.15324e-06
0.000243844
7.22709e-06
0.00024141
7.29872e-06
0.000238953
7.36817e-06
0.000236473
7.43547e-06
0.000233972
7.50067e-06
0.000231449
7.56381e-06
0.000228907
7.62493e-06
0.000226344
7.68406e-06
0.000223763
7.74126e-06
0.000221163
7.79655e-06
0.000218545
7.84998e-06
0.00021591
7.90159e-06
0.000213259
7.95143e-06
0.000210591
7.99953e-06
0.000207909
8.04593e-06
0.000205211
8.09067e-06
0.000202499
8.1338e-06
0.000199773
8.17535e-06
0.000197033
8.21536e-06
0.000194281
8.25387e-06
0.000191517
8.29093e-06
0.000188741
8.32656e-06
0.000185953
8.36081e-06
0.000183154
8.39372e-06
0.000180345
8.42532e-06
0.000177526
8.45565e-06
0.000174697
8.48474e-06
0.000171859
8.51263e-06
0.000169012
8.53937e-06
0.000166156
8.56497e-06
0.000163292
8.58948e-06
0.000160421
8.61293e-06
0.000157542
8.63535e-06
0.000154656
8.65678e-06
0.000151763
8.67724e-06
0.000148863
8.69678e-06
0.000145958
8.71541e-06
0.000143046
8.73318e-06
0.000140129
8.7501e-06
0.000137207
8.76622e-06
0.000134279
8.78155e-06
0.000131346
8.79613e-06
0.000128409
8.80999e-06
0.000125468
8.82314e-06
0.000122522
8.83563e-06
0.000119573
8.84747e-06
0.00011662
8.85868e-06
0.000113663
8.8693e-06
0.000110703
8.87934e-06
0.00010774
8.88884e-06
0.000104773
8.89781e-06
0.000101804
8.90627e-06
9.88327e-05
8.91425e-06
9.58585e-05
8.92176e-06
9.2882e-05
8.92884e-06
8.99033e-05
8.93549e-06
8.69225e-05
8.94174e-06
8.39398e-05
8.9476e-06
8.09552e-05
8.9531e-06
7.79689e-05
8.95825e-06
7.49811e-05
8.96306e-06
7.19917e-05
8.96756e-06
6.9001e-05
8.97175e-06
6.60089e-05
8.97566e-06
6.30157e-05
8.9793e-06
6.00213e-05
8.98267e-06
5.70259e-05
8.98581e-06
5.40296e-05
8.9887e-06
5.10323e-05
8.99138e-06
4.80343e-05
8.99385e-06
4.50355e-05
8.99611e-06
4.2036e-05
8.99819e-06
3.90358e-05
9.00009e-06
3.60351e-05
9.00181e-06
3.30339e-05
9.00337e-06
3.00323e-05
9.00477e-06
2.70302e-05
9.00603e-06
2.40277e-05
9.00714e-06
2.10249e-05
9.00811e-06
1.80219e-05
9.00896e-06
1.50186e-05
9.00967e-06
1.20151e-05
9.01026e-06
9.01146e-06
9.01072e-06
6.0077e-06
9.01107e-06
3.00387e-06
9.0113e-06
9.01142e-06
3.70111e-06
-1.48031e-05
7.40213e-06
-1.48027e-05
1.1103e-05
-1.4802e-05
1.48035e-05
-1.48008e-05
1.85037e-05
-1.47993e-05
2.22034e-05
-1.47973e-05
2.59025e-05
-1.4795e-05
2.9601e-05
-1.47922e-05
3.32986e-05
-1.47889e-05
3.69954e-05
-1.47851e-05
4.06911e-05
-1.47809e-05
4.43856e-05
-1.47761e-05
4.80788e-05
-1.47707e-05
5.17705e-05
-1.47647e-05
5.54606e-05
-1.4758e-05
5.9149e-05
-1.47507e-05
6.28353e-05
-1.47426e-05
6.65195e-05
-1.47338e-05
7.02013e-05
-1.47241e-05
7.38805e-05
-1.47135e-05
7.75569e-05
-1.4702e-05
8.12302e-05
-1.46895e-05
8.49001e-05
-1.46759e-05
8.85665e-05
-1.46612e-05
9.22289e-05
-1.46454e-05
9.58871e-05
-1.46282e-05
9.95408e-05
-1.46098e-05
0.00010319
-1.45899e-05
0.000106833
-1.45686e-05
0.000110471
-1.45458e-05
0.000114103
-1.45213e-05
0.000117728
-1.44951e-05
0.000121347
-1.44671e-05
0.000124958
-1.44373e-05
0.000128561
-1.44055e-05
0.000132155
-1.43717e-05
0.000135741
-1.43357e-05
0.000139318
-1.42976e-05
0.000142884
-1.42571e-05
0.00014644
-1.42142e-05
0.000149984
-1.41689e-05
0.000153517
-1.4121e-05
0.000157037
-1.40704e-05
0.000160544
-1.40171e-05
0.000164037
-1.39609e-05
0.000167515
-1.39018e-05
0.000170977
-1.38396e-05
0.000174424
-1.37743e-05
0.000177853
-1.37059e-05
0.000181264
-1.36341e-05
0.000184657
-1.35589e-05
0.00018803
-1.34803e-05
0.000191383
-1.33982e-05
0.000194714
-1.33124e-05
0.000198023
-1.32229e-05
0.000201309
-1.31296e-05
0.000204571
-1.30325e-05
0.000207807
-1.29315e-05
0.000211017
-1.28265e-05
0.0002142
-1.27174e-05
0.000217355
-1.26042e-05
0.00022048
-1.24869e-05
0.000223575
-1.23653e-05
0.000226639
-1.22396e-05
0.00022967
-1.21095e-05
0.000232668
-1.19751e-05
0.000235631
-1.18363e-05
0.000238558
-1.16931e-05
0.000241448
-1.15456e-05
0.0002443
-1.13936e-05
0.000247113
-1.12372e-05
0.000249886
-1.10764e-05
0.000252618
-1.09111e-05
0.000255307
-1.07415e-05
0.000257953
-1.05675e-05
0.000260554
-1.03891e-05
0.000263109
-1.02064e-05
0.000265618
-1.00193e-05
0.000268078
-9.82809e-06
0.00027049
-9.63263e-06
0.000272852
-9.43304e-06
0.000275163
-9.22938e-06
0.000277422
-9.02172e-06
0.000279628
-8.81015e-06
0.00028178
-8.59474e-06
0.000283877
-8.3756e-06
0.000285918
-8.15281e-06
0.000287903
-7.92649e-06
0.00028983
-7.69675e-06
0.000291698
-7.4637e-06
0.000293508
-7.22747e-06
0.000295257
-6.98818e-06
0.000296946
-6.74597e-06
0.000298574
-6.50097e-06
0.000300139
-6.25334e-06
0.000301642
-6.00322e-06
0.000303082
-5.75076e-06
0.000304458
-5.49611e-06
0.000305769
-5.23944e-06
0.000307016
-4.98091e-06
0.000308197
-4.72068e-06
0.000309313
-4.45892e-06
0.000310363
-4.1958e-06
0.000311347
-3.93149e-06
0.000312264
-3.66616e-06
0.000313115
-3.39999e-06
0.000313899
-3.13316e-06
0.000314615
-2.86583e-06
0.000315265
-2.59818e-06
0.000315848
-2.33038e-06
0.000316363
-2.06261e-06
0.000316811
-1.79504e-06
0.000317193
-1.52784e-06
0.000317508
-1.26117e-06
0.000317756
-9.95199e-07
0.000317937
-7.30095e-07
0.000318053
-4.66016e-07
0.000318102
-2.03118e-07
0.000318087
5.84454e-08
0.000318005
3.18524e-07
0.00031786
5.76972e-07
0.00031765
8.33647e-07
0.000317376
1.08841e-06
0.000317039
1.34114e-06
0.000316639
1.59169e-06
0.000316177
1.83995e-06
0.000315653
2.08579e-06
0.000315068
2.32911e-06
0.000314423
2.5698e-06
0.000313719
2.80775e-06
0.000312956
3.04287e-06
0.000312134
3.27507e-06
0.000311256
3.50425e-06
0.00031032
3.73035e-06
0.000309329
3.95328e-06
0.000308283
4.17297e-06
0.000307183
4.38937e-06
0.000306029
4.60241e-06
0.000304823
4.81203e-06
0.000303566
5.0182e-06
0.000302257
5.22086e-06
0.000300899
5.41999e-06
0.000299492
5.61554e-06
0.000298037
5.8075e-06
0.000296535
5.99583e-06
0.000294987
6.18051e-06
0.000293393
6.36155e-06
0.000291755
6.53892e-06
0.000290074
6.71262e-06
0.00028835
6.88265e-06
0.000286584
7.04902e-06
0.000284778
7.21172e-06
0.000282932
7.37078e-06
0.000281048
7.5262e-06
0.000279125
7.678e-06
0.000277165
7.82621e-06
0.00027517
7.97084e-06
0.000273138
8.11193e-06
0.000271073
8.2495e-06
0.000268974
8.38358e-06
0.000266843
8.51421e-06
0.000264679
8.64143e-06
0.000262485
8.76527e-06
0.000260261
8.88577e-06
0.000258007
9.00298e-06
0.000255725
9.11693e-06
0.000253415
9.22768e-06
0.000251079
9.33527e-06
0.000248716
9.43975e-06
0.000246328
9.54117e-06
0.000243916
9.63958e-06
0.00024148
9.73502e-06
0.00023902
9.82756e-06
0.000236538
9.91723e-06
0.000234035
1.00041e-05
0.000231511
1.00882e-05
0.000228966
1.01697e-05
0.000226401
1.02484e-05
0.000223818
1.03246e-05
0.000221216
1.03983e-05
0.000218597
1.04695e-05
0.00021596
1.05382e-05
0.000213307
1.06046e-05
0.000210638
1.06687e-05
0.000207953
1.07305e-05
0.000205254
1.07901e-05
0.00020254
1.08475e-05
0.000199813
1.09029e-05
0.000197072
1.09561e-05
0.000194318
1.10074e-05
0.000191553
1.10568e-05
0.000188775
1.11042e-05
0.000185986
1.11498e-05
0.000183186
1.11937e-05
0.000180375
1.12357e-05
0.000177555
1.12761e-05
0.000174725
1.13149e-05
0.000171886
1.1352e-05
0.000169037
1.13876e-05
0.000166181
1.14217e-05
0.000163316
1.14543e-05
0.000160443
1.14855e-05
0.000157563
1.15153e-05
0.000154676
1.15439e-05
0.000151782
1.15711e-05
0.000148882
1.15971e-05
0.000145975
1.16219e-05
0.000143063
1.16455e-05
0.000140145
1.16681e-05
0.000137222
1.16895e-05
0.000134293
1.17099e-05
0.00013136
1.17293e-05
0.000128423
1.17477e-05
0.00012548
1.17652e-05
0.000122534
1.17818e-05
0.000119584
1.17976e-05
0.00011663
1.18125e-05
0.000113673
1.18266e-05
0.000110712
1.184e-05
0.000107749
1.18526e-05
0.000104782
1.18645e-05
0.000101812
1.18758e-05
9.88402e-05
1.18864e-05
9.58656e-05
1.18964e-05
9.28887e-05
1.19058e-05
8.99095e-05
1.19146e-05
8.69284e-05
1.19229e-05
8.39453e-05
1.19307e-05
8.09604e-05
1.1938e-05
7.79738e-05
1.19448e-05
7.49856e-05
1.19512e-05
7.19959e-05
1.19572e-05
6.90049e-05
1.19628e-05
6.60126e-05
1.1968e-05
6.30191e-05
1.19728e-05
6.00245e-05
1.19773e-05
5.70288e-05
1.19814e-05
5.40323e-05
1.19853e-05
5.10348e-05
1.19888e-05
4.80365e-05
1.19921e-05
4.50375e-05
1.19951e-05
4.20379e-05
1.19979e-05
3.90376e-05
1.20004e-05
3.60367e-05
1.20027e-05
3.30353e-05
1.20047e-05
3.00335e-05
1.20066e-05
2.70313e-05
1.20083e-05
2.40287e-05
1.20097e-05
2.10258e-05
1.2011e-05
1.80226e-05
1.20121e-05
1.50192e-05
1.20131e-05
1.20156e-05
1.20139e-05
9.01181e-06
1.20145e-05
6.00793e-06
1.20149e-05
3.00399e-06
1.20152e-05
1.20154e-05
3.70149e-06
-1.85046e-05
7.40288e-06
-1.85041e-05
1.11041e-05
-1.85032e-05
1.48051e-05
-1.85018e-05
1.85056e-05
-1.84999e-05
2.22058e-05
-1.84975e-05
2.59053e-05
-1.84945e-05
2.96043e-05
-1.84911e-05
3.33024e-05
-1.8487e-05
3.69996e-05
-1.84824e-05
4.06959e-05
-1.84771e-05
4.4391e-05
-1.84712e-05
4.80848e-05
-1.84645e-05
5.17772e-05
-1.84571e-05
5.5468e-05
-1.84488e-05
5.91571e-05
-1.84397e-05
6.28442e-05
-1.84297e-05
6.65292e-05
-1.84188e-05
7.02119e-05
-1.84068e-05
7.3892e-05
-1.83936e-05
7.75694e-05
-1.83794e-05
8.12437e-05
-1.83638e-05
8.49148e-05
-1.8347e-05
8.85824e-05
-1.83288e-05
9.2246e-05
-1.8309e-05
9.59056e-05
-1.82878e-05
9.95607e-05
-1.82648e-05
0.000103211
-1.82402e-05
0.000106856
-1.82137e-05
0.000110495
-1.81853e-05
0.000114129
-1.81548e-05
0.000117756
-1.81222e-05
0.000121376
-1.80874e-05
0.000124989
-1.80503e-05
0.000128595
-1.80107e-05
0.000132191
-1.79686e-05
0.00013578
-1.79238e-05
0.000139358
-1.78763e-05
0.000142927
-1.78259e-05
0.000146485
-1.77725e-05
0.000150032
-1.7716e-05
0.000153568
-1.76562e-05
0.00015709
-1.75932e-05
0.0001606
-1.75267e-05
0.000164096
-1.74566e-05
0.000167577
-1.73829e-05
0.000171043
-1.73053e-05
0.000174492
-1.72239e-05
0.000177925
-1.71385e-05
0.00018134
-1.70489e-05
0.000184736
-1.69552e-05
0.000188113
-1.6857e-05
0.000191469
-1.67545e-05
0.000194804
-1.66474e-05
0.000198117
-1.65357e-05
0.000201406
-1.64192e-05
0.000204672
-1.6298e-05
0.000207912
-1.61718e-05
0.000211126
-1.60406e-05
0.000214313
-1.59044e-05
0.000217472
-1.57631e-05
0.000220602
-1.56165e-05
0.000223701
-1.54647e-05
0.000226769
-1.53075e-05
0.000229805
-1.51449e-05
0.000232807
-1.4977e-05
0.000235774
-1.48036e-05
0.000238705
-1.46247e-05
0.0002416
-1.44402e-05
0.000244457
-1.42503e-05
0.000247274
-1.40548e-05
0.000250052
-1.38537e-05
0.000252788
-1.36472e-05
0.000255481
-1.34351e-05
0.000258131
-1.32175e-05
0.000260737
-1.29945e-05
0.000263296
-1.2766e-05
0.000265809
-1.25321e-05
0.000268274
-1.2293e-05
0.00027069
-1.20485e-05
0.000273056
-1.17989e-05
0.000275371
-1.15442e-05
0.000277633
-1.12845e-05
0.000279843
-1.10199e-05
0.000281999
-1.07504e-05
0.000284099
-1.04763e-05
0.000286144
-1.01976e-05
0.000288132
-9.91453e-06
0.000290063
-9.62713e-06
0.000291935
-9.33559e-06
0.000293747
-9.04005e-06
0.0002955
-8.74069e-06
0.000297191
-8.43767e-06
0.000298822
-8.13116e-06
0.00030039
-7.82135e-06
0.000301895
-7.50841e-06
0.000303337
-7.19254e-06
0.000304714
-6.87393e-06
0.000306028
-6.55279e-06
0.000307276
-6.22931e-06
0.000308459
-5.90371e-06
0.000309576
-5.57619e-06
0.000310628
-5.24697e-06
0.000311612
-4.91626e-06
0.000312531
-4.58428e-06
0.000313382
-4.25125e-06
0.000314166
-3.91737e-06
0.000314883
-3.58289e-06
0.000315533
-3.248e-06
0.000316115
-2.91293e-06
0.000316631
-2.5779e-06
0.000317079
-2.24311e-06
0.00031746
-1.90879e-06
0.000317774
-1.57515e-06
0.000318021
-1.24238e-06
0.000318201
-9.10702e-07
0.000318316
-5.80309e-07
0.000318364
-2.51399e-07
0.000318347
7.58361e-08
0.000318264
4.01207e-07
0.000318116
7.24533e-07
0.000317904
1.04563e-06
0.000317629
1.36434e-06
0.000317289
1.68048e-06
0.000316887
1.9939e-06
0.000316422
2.30445e-06
0.000315896
2.61197e-06
0.000315309
2.91632e-06
0.000314661
3.21737e-06
0.000313954
3.51499e-06
0.000313188
3.80907e-06
0.000312364
4.09947e-06
0.000311482
4.38611e-06
0.000310543
4.66887e-06
0.000309549
4.94766e-06
0.000308499
5.2224e-06
0.000307396
5.493e-06
0.000306239
5.7594e-06
0.000305029
6.02152e-06
0.000303768
6.27931e-06
0.000302456
6.53271e-06
0.000301095
6.78168e-06
0.000299684
7.02617e-06
0.000298225
7.26616e-06
0.00029672
7.5016e-06
0.000295168
7.73249e-06
0.00029357
7.9588e-06
0.000291929
8.18052e-06
0.000290244
8.39765e-06
0.000288516
8.61019e-06
0.000286747
8.81813e-06
0.000284937
9.02149e-06
0.000283088
9.22029e-06
0.0002812
9.41453e-06
0.000279273
9.60425e-06
0.00027731
9.78946e-06
0.000275311
9.9702e-06
0.000273276
1.01465e-05
0.000271207
1.03184e-05
0.000269105
1.04859e-05
0.00026697
1.06492e-05
0.000264803
1.08081e-05
0.000262606
1.09628e-05
0.000260378
1.11134e-05
0.000258121
1.12598e-05
0.000255836
1.14022e-05
0.000253523
1.15405e-05
0.000251183
1.16749e-05
0.000248818
1.18054e-05
0.000246427
1.19321e-05
0.000244011
1.2055e-05
0.000241572
1.21742e-05
0.00023911
1.22898e-05
0.000236625
1.24018e-05
0.000234119
1.25103e-05
0.000231592
1.26153e-05
0.000229045
1.2717e-05