/*--------------------------------*- C++ -*----------------------------------*\
| =========                 |                                                 |
| \\      /  F ield         | OpenFOAM: The Open Source CFD Toolbox           |
|  \\    /   O peration     | Version:  v2012                                 |
|   \\  /    A nd           | Website:  www.openfoam.com                      |
|    \\/     M anipulation  |                                                 |
\*---------------------------------------------------------------------------*/
FoamFile
{
    version     2.0;
    format      ascii;
    class       volScalarField;
    location    "6.5";
    object      W;
}
// * * * * * * * * * * * * * * * * * * * * * * * * * * * * * * * * * * * * * //

dimensions      [0 0 -1 0 0 0 0];


internalField   nonuniform List<scalar> 
65536
(
7.53095e-19
7.8482e-19
8.6071e-19
9.83672e-19
1.15869e-18
1.39297e-18
1.69626e-18
2.08114e-18
2.56353e-18
3.16325e-18
3.90469e-18
4.81765e-18
5.93837e-18
7.31067e-18
8.98737e-18
1.1032e-17
1.35206e-17
1.65443e-17
2.02116e-17
2.4652e-17
3.00192e-17
3.64956e-17
4.42971e-17
5.36786e-17
6.4941e-17
7.84381e-17
9.45857e-17
1.13871e-16
1.36864e-16
1.64231e-16
1.96746e-16
2.35313e-16
2.80977e-16
3.3495e-16
3.98635e-16
4.73646e-16
5.61843e-16
6.65364e-16
7.86655e-16
9.28518e-16
1.09415e-15
1.28718e-15
1.51176e-15
1.77257e-15
2.07491e-15
2.42477e-15
2.82889e-15
3.29484e-15
3.83111e-15
4.44719e-15
5.15368e-15
5.96234e-15
6.88628e-15
7.93995e-15
9.13936e-15
1.05021e-14
1.20476e-14
1.3797e-14
1.57735e-14
1.80023e-14
2.05108e-14
2.33288e-14
2.64883e-14
3.00238e-14
3.39723e-14
3.83734e-14
4.32692e-14
4.87045e-14
5.47266e-14
6.13852e-14
6.87326e-14
7.68233e-14
8.57139e-14
9.54629e-14
1.0613e-13
1.17778e-13
1.30468e-13
1.44262e-13
1.59225e-13
1.75418e-13
1.92902e-13
2.11735e-13
2.31975e-13
2.53674e-13
2.76881e-13
3.01638e-13
3.27981e-13
3.55941e-13
3.85538e-13
4.16782e-13
4.49676e-13
4.84207e-13
5.20351e-13
5.5807e-13
5.97313e-13
6.38009e-13
6.80075e-13
7.23408e-13
7.67888e-13
8.13377e-13
8.59718e-13
9.06737e-13
9.54241e-13
1.00202e-12
1.04984e-12
1.09747e-12
1.14465e-12
1.1911e-12
1.23655e-12
1.28071e-12
1.32327e-12
1.36395e-12
1.40243e-12
1.43843e-12
1.47166e-12
1.50182e-12
1.52866e-12
1.55193e-12
1.57138e-12
1.58682e-12
1.59807e-12
1.60497e-12
1.60741e-12
1.60531e-12
1.59864e-12
1.58737e-12
1.57157e-12
1.5513e-12
1.52668e-12
1.49789e-12
1.46512e-12
1.42861e-12
1.38864e-12
1.34552e-12
1.29959e-12
1.25121e-12
1.20077e-12
1.14867e-12
1.09533e-12
1.04118e-12
9.86625e-13
9.32108e-13
8.7804e-13
8.24829e-13
7.72865e-13
7.22521e-13
6.74146e-13
6.28065e-13
5.84574e-13
5.43939e-13
5.06397e-13
4.72148e-13
4.41363e-13
4.14177e-13
3.90691e-13
3.70972e-13
3.55056e-13
3.42942e-13
3.34599e-13
3.29961e-13
3.28934e-13
3.31388e-13
3.37165e-13
3.46076e-13
3.57903e-13
3.72396e-13
3.8928e-13
4.08253e-13
4.28987e-13
4.51132e-13
4.74318e-13
4.98157e-13
5.2225e-13
5.46191e-13
5.69567e-13
5.91973e-13
6.13009e-13
6.32294e-13
6.49467e-13
6.64198e-13
6.76193e-13
6.85199e-13
6.91011e-13
6.93476e-13
6.92495e-13
6.88029e-13
6.80097e-13
6.68776e-13
6.542e-13
6.36554e-13
6.16075e-13
5.93039e-13
5.67759e-13
5.40576e-13
5.11849e-13
4.8195e-13
4.51253e-13
4.20126e-13
3.88922e-13
3.57976e-13
3.27597e-13
2.9806e-13
2.69608e-13
2.42443e-13
2.16733e-13
1.92603e-13
1.70142e-13
1.49403e-13
1.30404e-13
1.13135e-13
9.75588e-14
8.36156e-14
7.12278e-14
6.03035e-14
5.07406e-14
4.24307e-14
3.5262e-14
2.91223e-14
2.39016e-14
1.94942e-14
1.57998e-14
1.27249e-14
1.01838e-14
8.0986e-15
6.39951e-15
5.02474e-15
3.92016e-15
3.03886e-15
2.34061e-15
1.79123e-15
1.36199e-15
1.02893e-15
7.72307e-16
5.75937e-16
4.26714e-16
3.14103e-16
2.29707e-16
1.66894e-16
1.20466e-16
8.6386e-17
6.1542e-17
4.35558e-17
3.06241e-17
2.13904e-17
1.48427e-17
1.02315e-17
7.00673e-18
4.7672e-18
3.22303e-18
2.16637e-18
1.44953e-18
9.68583e-19
6.51415e-19
4.4895e-19
3.29003e-19
2.72091e-19
1.05523e-18
1.09961e-18
1.20582e-18
1.37794e-18
1.6229e-18
1.9508e-18
2.37523e-18
2.91378e-18
3.58868e-18
4.42761e-18
5.46462e-18
6.7413e-18
8.30821e-18
1.02265e-17
1.25697e-17
1.54266e-17
1.8903e-17
2.31257e-17
2.82462e-17
3.44443e-17
4.19339e-17
5.09687e-17
6.18486e-17
7.49278e-17
9.06239e-17
1.09428e-16
1.31916e-16
1.58763e-16
1.90759e-16
2.28825e-16
2.74033e-16
3.27628e-16
3.91056e-16
4.65989e-16
5.54357e-16
6.58384e-16
7.80629e-16
9.24027e-16
1.09194e-15
1.2882e-15
1.51719e-15
1.78388e-15
2.09392e-15
2.45371e-15
2.87047e-15
3.35234e-15
3.90848e-15
4.54915e-15
5.28584e-15
6.13139e-15
7.10006e-15
8.20774e-15
9.47198e-15
1.09122e-14
1.25498e-14
1.44084e-14
1.65136e-14
1.88937e-14
2.15794e-14
2.46041e-14
2.80039e-14
3.18178e-14
3.60879e-14
4.08592e-14
4.61799e-14
5.21015e-14
5.86783e-14
6.59681e-14
7.40314e-14
8.29318e-14
9.27359e-14
1.03512e-13
1.15333e-13
1.2827e-13
1.42399e-13
1.57795e-13
1.74535e-13
1.92696e-13
2.12353e-13
2.33579e-13
2.56448e-13
2.81026e-13
3.0738e-13
3.35566e-13
3.65638e-13
3.9764e-13
4.31608e-13
4.67567e-13
5.05531e-13
5.45503e-13
5.87467e-13
6.31397e-13
6.77247e-13
7.24955e-13
7.74439e-13
8.25597e-13
8.78307e-13
9.32427e-13
9.87792e-13
1.04421e-12
1.10148e-12
1.15937e-12
1.21763e-12
1.27598e-12
1.33414e-12
1.39179e-12
1.44862e-12
1.50429e-12
1.55845e-12
1.61074e-12
1.66081e-12
1.7083e-12
1.75285e-12
1.79411e-12
1.83174e-12
1.86541e-12
1.89482e-12
1.91969e-12
1.93975e-12
1.9548e-12
1.96463e-12
1.9691e-12
1.96811e-12
1.96159e-12
1.94952e-12
1.93193e-12
1.90892e-12
1.8806e-12
1.84716e-12
1.80882e-12
1.76585e-12
1.71857e-12
1.66734e-12
1.61255e-12
1.55462e-12
1.494e-12
1.43117e-12
1.36661e-12
1.30083e-12
1.23433e-12
1.16761e-12
1.10118e-12
1.03553e-12
9.71113e-13
9.08393e-13
8.4779e-13
7.89702e-13
7.34492e-13
6.82488e-13
6.33984e-13
5.89233e-13
5.48453e-13
5.11818e-13
4.79464e-13
4.5149e-13
4.27951e-13
4.08869e-13
3.94223e-13
3.83959e-13
3.77984e-13
3.76171e-13
3.78358e-13
3.84348e-13
3.93913e-13
4.06791e-13
4.22689e-13
4.41284e-13
4.62224e-13
4.85132e-13
5.09606e-13
5.35225e-13
5.61549e-13
5.88126e-13
6.14498e-13
6.40205e-13
6.64792e-13
6.87815e-13
7.0885e-13
7.275e-13
7.43401e-13
7.56231e-13
7.65714e-13
7.7163e-13
7.73814e-13
7.72167e-13
7.66652e-13
7.57297e-13
7.44195e-13
7.27502e-13
7.0743e-13
6.84247e-13
6.58264e-13
6.29832e-13
5.99332e-13
5.67165e-13
5.33743e-13
4.99481e-13
4.64786e-13
4.30048e-13
3.95635e-13
3.61886e-13
3.29105e-13
2.97554e-13
2.67456e-13
2.38991e-13
2.12294e-13
1.87461e-13
1.64546e-13
1.43567e-13
1.24509e-13
1.07328e-13
9.19566e-14
7.83067e-14
6.6275e-14
5.57476e-14
4.66035e-14
3.87183e-14
3.19676e-14
2.62297e-14
2.13873e-14
1.73296e-14
1.39536e-14
1.11644e-14
8.87638e-15
7.01256e-15
5.50491e-15
4.29389e-15
3.32792e-15
2.56276e-15
1.96088e-15
1.49072e-15
1.126e-15
8.4503e-16
6.30073e-16
4.66756e-16
3.43529e-16
2.51194e-16
1.82482e-16
1.31702e-16
9.44322e-17
6.72669e-17
4.76027e-17
3.34662e-17
2.33734e-17
1.62172e-17
1.11782e-17
7.65442e-18
5.2075e-18
3.52047e-18
2.36616e-18
1.58311e-18
1.05778e-18
7.11369e-19
4.90244e-19
3.59248e-19
2.97103e-19
1.75547e-18
1.82916e-18
2.00561e-18
2.29155e-18
2.69851e-18
3.2432e-18
3.94816e-18
4.84253e-18
5.96316e-18
7.35587e-18
9.07706e-18
1.11956e-17
1.37951e-17
1.69768e-17
2.08624e-17
2.55982e-17
3.13595e-17
3.83557e-17
4.68363e-17
5.70986e-17
6.94949e-17
8.44433e-17
1.02438e-16
1.24061e-16
1.5e-16
1.81062e-16
2.18192e-16
2.625e-16
3.15279e-16
3.78038e-16
4.52531e-16
5.40797e-16
6.45196e-16
7.68455e-16
9.13723e-16
1.08462e-15
1.28531e-15
1.52055e-15
1.7958e-15
2.11728e-15
2.49207e-15
2.92819e-15
3.43477e-15
4.02211e-15
4.7018e-15
5.48691e-15
6.39212e-15
7.43382e-15
8.63035e-15
1.00021e-14
1.15719e-14
1.33647e-14
1.54083e-14
1.77335e-14
2.03738e-14
2.33662e-14
2.67509e-14
3.0572e-14
3.48772e-14
3.97181e-14
4.51506e-14
5.12347e-14
5.80349e-14
6.562e-14
7.40632e-14
8.34422e-14
9.38392e-14
1.0534e-13
1.18036e-13
1.32021e-13
1.47393e-13
1.64252e-13
1.82702e-13
2.02849e-13
2.24799e-13
2.48661e-13
2.7454e-13
3.02544e-13
3.32774e-13
3.65332e-13
4.00311e-13
4.37799e-13
4.77878e-13
5.20617e-13
5.66077e-13
6.14305e-13
6.65331e-13
7.19172e-13
7.75825e-13
8.35267e-13
8.97453e-13
9.62315e-13
1.02976e-12
1.09967e-12
1.17189e-12
1.24626e-12
1.32255e-12
1.40055e-12
1.47998e-12
1.56055e-12
1.64193e-12
1.72377e-12
1.80568e-12
1.88727e-12
1.9681e-12
2.04772e-12
2.12567e-12
2.20146e-12
2.2746e-12
2.3446e-12
2.41095e-12
2.47317e-12
2.53078e-12
2.58331e-12
2.6303e-12
2.67135e-12
2.70607e-12
2.73411e-12
2.75516e-12
2.76896e-12
2.77533e-12
2.7741e-12
2.76519e-12
2.74859e-12
2.72432e-12
2.69251e-12
2.65333e-12
2.60701e-12
2.55388e-12
2.49428e-12
2.42865e-12
2.35748e-12
2.28128e-12
2.20064e-12
2.11616e-12
2.02849e-12
1.93828e-12
1.84621e-12
1.75298e-12
1.65925e-12
1.56572e-12
1.47304e-12
1.38185e-12
1.29277e-12
1.20636e-12
1.12318e-12
1.04372e-12
9.68416e-13
8.97682e-13
8.31863e-13
7.71256e-13
7.16104e-13
6.66597e-13
6.22874e-13
5.85021e-13
5.53073e-13
5.27018e-13
5.06795e-13
4.92296e-13
4.83369e-13
4.7982e-13
4.8141e-13
4.87862e-13
4.98858e-13
5.14045e-13
5.33029e-13
5.55386e-13
5.80657e-13
6.08354e-13
6.37964e-13
6.68949e-13
7.00757e-13
7.32822e-13
7.64572e-13
7.95437e-13
8.24857e-13
8.52289e-13
8.77217e-13
8.9916e-13
9.1768e-13
9.32392e-13
9.42973e-13
9.49164e-13
9.5078e-13
9.47712e-13
9.3993e-13
9.27483e-13
9.10498e-13
8.89179e-13
8.63796e-13
8.34685e-13
8.02234e-13
7.66879e-13
7.29088e-13
6.89353e-13
6.48177e-13
6.06063e-13
5.63505e-13
5.20975e-13
4.78916e-13
4.37733e-13
3.97788e-13
3.59395e-13
3.22817e-13
2.88264e-13
2.55894e-13
2.25816e-13
1.98089e-13
1.72728e-13
1.49711e-13
1.28979e-13
1.10445e-13
9.40002e-14
7.95158e-14
6.68513e-14
5.58584e-14
4.63853e-14
3.82803e-14
3.13954e-14
2.55883e-14
2.0725e-14
1.66808e-14
1.33414e-14
1.06032e-14
8.37378e-15
6.57121e-15
5.12391e-15
3.96994e-15
3.05622e-15
2.33776e-15
1.77673e-15
1.34167e-15
1.00662e-15
7.50369e-16
5.55737e-16
4.08926e-16
2.98947e-16
2.17127e-16
1.56675e-16
1.12317e-16
7.99927e-17
5.65987e-17
3.97842e-17
2.77818e-17
1.92732e-17
1.32828e-17
9.0944e-18
6.18641e-18
4.18178e-18
2.81033e-18
1.8801e-18
1.25611e-18
8.44667e-19
5.82056e-19
4.26495e-19
3.52699e-19
3.09789e-18
3.22769e-18
3.53866e-18
4.04263e-18
4.75984e-18
5.71971e-18
6.96185e-18
8.53754e-18
1.05115e-17
1.29644e-17
1.59951e-17
1.97248e-17
2.43003e-17
2.98991e-17
3.67351e-17
4.50647e-17
5.51953e-17
6.74939e-17
8.23979e-17
1.00427e-16
1.22199e-16
1.48444e-16
1.80027e-16
2.17964e-16
2.63457e-16
3.17911e-16
3.82979e-16
4.6059e-16
5.52997e-16
6.62826e-16
7.93128e-16
9.4744e-16
1.12986e-15
1.34511e-15
1.59865e-15
1.89674e-15
2.24657e-15
2.65638e-15
3.13554e-15
3.69479e-15
4.34627e-15
5.10381e-15
5.98302e-15
7.00153e-15
8.17919e-15
9.53829e-15
1.11038e-14
1.29037e-14
1.4969e-14
1.73344e-14
2.00381e-14
2.31227e-14
2.66348e-14
3.0626e-14
3.51525e-14
4.02761e-14
4.60639e-14
5.2589e-14
5.99304e-14
6.81735e-14
7.74101e-14
8.77387e-14
9.92647e-14
1.121e-13
1.26363e-13
1.4218e-13
1.59682e-13
1.79007e-13
2.003e-13
2.23708e-13
2.49386e-13
2.77492e-13
3.08185e-13
3.41628e-13
3.77983e-13
4.17413e-13
4.60077e-13
5.06131e-13
5.55725e-13
6.09e-13
6.66089e-13
7.27109e-13
7.92167e-13
8.61347e-13
9.34719e-13
1.01232e-12
1.09418e-12
1.18029e-12
1.2706e-12
1.36504e-12
1.4635e-12
1.56584e-12
1.67186e-12
1.78135e-12
1.89403e-12
2.00958e-12
2.12765e-12
2.24782e-12
2.36965e-12
2.49265e-12
2.61627e-12
2.73996e-12
2.86308e-12
2.985e-12
3.10504e-12
3.2225e-12
3.33666e-12
3.44679e-12
3.55215e-12
3.65199e-12
3.7456e-12
3.83224e-12
3.91123e-12
3.98192e-12
4.04367e-12
4.09593e-12
4.13818e-12
4.16996e-12
4.19091e-12
4.20073e-12
4.19919e-12
4.18618e-12
4.16166e-12
4.12569e-12
4.07844e-12
4.02016e-12
3.9512e-12
3.87201e-12
3.78313e-12
3.68519e-12
3.57887e-12
3.46497e-12
3.3443e-12
3.21778e-12
3.08632e-12
2.9509e-12
2.81252e-12
2.67216e-12
2.53083e-12
2.38952e-12
2.2492e-12
2.11081e-12
1.97524e-12
1.84334e-12
1.71589e-12
1.59364e-12
1.47722e-12
1.36724e-12
1.26421e-12
1.16856e-12
1.08065e-12
1.00077e-12
9.29129e-13
8.65853e-13
8.11007e-13
7.64583e-13
7.26506e-13
6.96638e-13
6.74779e-13
6.6067e-13
6.53998e-13
6.54393e-13
6.61437e-13
6.74661e-13
6.9355e-13
7.17545e-13
7.46046e-13
7.78413e-13
8.13973e-13
8.52024e-13
8.91836e-13
9.32664e-13
9.73753e-13
1.01434e-12
1.05368e-12
1.09103e-12
1.12569e-12
1.15698e-12
1.18429e-12
1.20705e-12
1.22479e-12
1.2371e-12
1.24365e-12
1.24423e-12
1.23872e-12
1.22709e-12
1.20944e-12
1.18594e-12
1.15689e-12
1.12264e-12
1.08365e-12
1.04044e-12
9.93573e-13
9.4367e-13
8.91372e-13
8.37331e-13
7.822e-13
7.26613e-13
6.71177e-13
6.16457e-13
5.62971e-13
5.11176e-13
4.61469e-13
4.14177e-13
3.69563e-13
3.27821e-13
2.89079e-13
2.53405e-13
2.20812e-13
1.91259e-13
1.64667e-13
1.40917e-13
1.19862e-13
1.01332e-13
8.5144e-14
7.11035e-14
5.90131e-14
4.86761e-14
3.99012e-14
3.25049e-14
2.63145e-14
2.11699e-14
1.69243e-14
1.34451e-14
1.06137e-14
8.32567e-15
6.48947e-15
5.0261e-15
3.86793e-15
2.95764e-15
2.24712e-15
1.69634e-15
1.27233e-15
9.48167e-16
7.02036e-16
5.16439e-16
3.7745e-16
2.74078e-16
1.97724e-16
1.41714e-16
1.00908e-16
7.13829e-17
5.01669e-17
3.50259e-17
2.42945e-17
1.67407e-17
1.14603e-17
7.79467e-18
5.26821e-18
3.54002e-18
2.36798e-18
1.58188e-18
1.06362e-18
7.32855e-19
5.3694e-19
4.44005e-19
5.54077e-18
5.77256e-18
6.32807e-18
7.22835e-18
8.50954e-18
1.02241e-17
1.24425e-17
1.52564e-17
1.8781e-17
2.31599e-17
2.85696e-17
3.52256e-17
4.33894e-17
5.3377e-17
6.55687e-17
8.04211e-17
9.84804e-17
1.20399e-16
1.46954e-16
1.79068e-16
2.17838e-16
2.64559e-16
3.20763e-16
3.88256e-16
4.6916e-16
5.65968e-16
6.816e-16
8.19469e-16
9.83555e-16
1.17849e-15
1.40966e-15
1.6833e-15
2.00663e-15
2.38796e-15
2.83687e-15
3.36438e-15
3.98309e-15
4.70743e-15
5.55385e-15
6.54108e-15
7.69038e-15
9.02583e-15
1.05746e-14
1.23675e-14
1.44388e-14
1.68274e-14
1.95764e-14
2.27341e-14
2.63542e-14
3.04963e-14
3.52264e-14
4.06173e-14
4.6749e-14
5.37095e-14
6.15948e-14
7.05098e-14
8.05686e-14
9.18946e-14
1.04621e-13
1.18892e-13
1.34862e-13
1.52694e-13
1.72564e-13
1.94659e-13
2.19175e-13
2.46317e-13
2.76303e-13
3.09357e-13
3.45712e-13
3.8561e-13
4.29296e-13
4.77022e-13
5.29041e-13
5.85608e-13
6.46977e-13
7.13395e-13
7.85108e-13
8.62347e-13
9.45334e-13
1.03427e-12
1.12935e-12
1.23072e-12
1.33853e-12
1.45288e-12
1.57382e-12
1.7014e-12
1.83559e-12
1.97633e-12
2.1235e-12
2.27693e-12
2.43639e-12
2.60158e-12
2.77215e-12
2.94767e-12
3.12765e-12
3.31153e-12
3.49867e-12
3.68838e-12
3.87989e-12
4.07238e-12
4.26493e-12
4.45662e-12
4.64644e-12
4.83335e-12
5.01626e-12
5.19407e-12
5.36564e-12
5.52984e-12
5.68553e-12
5.83158e-12
5.9669e-12
6.09042e-12
6.20113e-12
6.29807e-12
6.38038e-12
6.44726e-12
6.49802e-12
6.53208e-12
6.54898e-12
6.54838e-12
6.53008e-12
6.49402e-12
6.44029e-12
6.36911e-12
6.28088e-12
6.17611e-12
6.05547e-12
5.91977e-12
5.76994e-12
5.60703e-12
5.43222e-12
5.24675e-12
5.05197e-12
4.8493e-12
4.64018e-12
4.42613e-12
4.20866e-12
3.98927e-12
3.76948e-12
3.55075e-12
3.33451e-12
3.12212e-12
2.91487e-12
2.71396e-12
2.5205e-12
2.33551e-12
2.15989e-12
1.99442e-12
1.83979e-12
1.69654e-12
1.56512e-12
1.44586e-12
1.33898e-12
1.24459e-12
1.16269e-12
1.0932e-12
1.03592e-12
9.90596e-13
9.56859e-13
9.34278e-13
9.22341e-13
9.20469e-13
9.28017e-13
9.44273e-13
9.68472e-13
9.99788e-13
1.03735e-12
1.08023e-12
1.12748e-12
1.17809e-12
1.23106e-12
1.28532e-12
1.33985e-12
1.39358e-12
1.44551e-12
1.49461e-12
1.53995e-12
1.58061e-12
1.61578e-12
1.64471e-12
1.66677e-12
1.68142e-12
1.68828e-12
1.68705e-12
1.67762e-12
1.65997e-12
1.63426e-12
1.60075e-12
1.55985e-12
1.51208e-12
1.45805e-12
1.39849e-12
1.33418e-12
1.26594e-12
1.19464e-12
1.12118e-12
1.0464e-12
9.71178e-13
8.96305e-13
8.22534e-13
7.50546e-13
6.80943e-13
6.14242e-13
5.5087e-13
4.91163e-13
4.35368e-13
3.83642e-13
3.36066e-13
2.92642e-13
2.5331e-13
2.17951e-13
1.86399e-13
1.58452e-13
1.33878e-13
1.12427e-13
9.38353e-14
7.78378e-14
6.41701e-14
5.25755e-14
4.2809e-14
3.46399e-14
2.78549e-14
2.22588e-14
1.76754e-14
1.39475e-14
1.09364e-14
8.52113e-15
6.59718e-15
5.07518e-15
3.87945e-15
2.9465e-15
2.2236e-15
1.6673e-15
1.24214e-15
9.19442e-16
6.76189e-16
4.9408e-16
3.58679e-16
2.58696e-16
1.85372e-16
1.31967e-16
9.33358e-17
6.55825e-17
4.57806e-17
3.17487e-17
2.18736e-17
1.49718e-17
1.01816e-17
6.88051e-18
4.62281e-18
3.0919e-18
2.06524e-18
1.38846e-18
9.56571e-19
7.00778e-19
5.79446e-19
9.89821e-18
1.03116e-17
1.13028e-17
1.29092e-17
1.51952e-17
1.82541e-17
2.22118e-17
2.7231e-17
3.35172e-17
4.13258e-17
5.0971e-17
6.28363e-17
7.73867e-17
9.51842e-17
1.16905e-16
1.4336e-16
1.7552e-16
2.14544e-16
2.6181e-16
3.18957e-16
3.87928e-16
4.71022e-16
5.70953e-16
6.90916e-16
8.34671e-16
1.00663e-15
1.21195e-15
1.45666e-15
1.7478e-15
2.09354e-15
2.50337e-15
2.98828e-15
3.56097e-15
4.23608e-15
5.03046e-15
5.96343e-15
7.05712e-15
8.3368e-15
9.8313e-15
1.15734e-14
1.36001e-14
1.59536e-14
1.86812e-14
2.18364e-14
2.54791e-14
2.96763e-14
3.45031e-14
4.0043e-14
4.63887e-14
5.36431e-14
6.19196e-14
7.13434e-14
8.20517e-14
9.4195e-14
1.07937e-13
1.23457e-13
1.40949e-13
1.60621e-13
1.827e-13
2.07427e-13
2.35062e-13
2.6588e-13
3.00174e-13
3.38253e-13
3.80444e-13
4.27085e-13
4.78534e-13
5.35158e-13
5.97337e-13
6.65461e-13
7.39925e-13
8.21132e-13
9.09483e-13
1.00538e-12
1.10922e-12
1.22138e-12
1.34223e-12
1.47213e-12
1.6114e-12
1.76033e-12
1.91917e-12
2.08815e-12
2.26742e-12
2.4571e-12
2.65722e-12
2.86777e-12
3.08864e-12
3.31966e-12
3.56055e-12
3.81095e-12
4.07041e-12
4.33837e-12
4.61416e-12
4.89701e-12
5.18605e-12
5.48029e-12
5.77863e-12
6.07988e-12
6.38274e-12
6.68583e-12
6.98765e-12
7.28666e-12
7.58122e-12
7.86965e-12
8.15022e-12
8.42116e-12
8.68071e-12
8.92709e-12
9.15854e-12
9.37335e-12
9.56986e-12
9.74649e-12
9.90176e-12
1.00343e-11
1.01428e-11
1.02263e-11
1.02838e-11
1.03146e-11
1.03181e-11
1.02941e-11
1.02423e-11
1.01629e-11
1.00562e-11
9.92274e-12
9.76336e-12
9.57902e-12
9.37094e-12
9.14052e-12
8.88936e-12
8.61922e-12
8.33202e-12
8.0298e-12
7.71472e-12
7.389e-12
7.05495e-12
6.71488e-12
6.37112e-12
6.02598e-12
5.68174e-12
5.34058e-12
5.00462e-12
4.67586e-12
4.35617e-12
4.04728e-12
3.75077e-12
3.46806e-12
3.20038e-12
2.9488e-12
2.71421e-12
2.49732e-12
2.29866e-12
2.11862e-12
1.95738e-12
1.81499e-12
1.69136e-12
1.58623e-12
1.49924e-12
1.42988e-12
1.37754e-12
1.34151e-12
1.32095e-12
1.31496e-12
1.32253e-12
1.34259e-12
1.37398e-12
1.41547e-12
1.46577e-12
1.52355e-12
1.58741e-12
1.65592e-12
1.72762e-12
1.80104e-12
1.87471e-12
1.94715e-12
2.01695e-12
2.08271e-12
2.14312e-12
2.19695e-12
2.24307e-12
2.28049e-12
2.30836e-12
2.32598e-12
2.33282e-12
2.32856e-12
2.31302e-12
2.28626e-12
2.2485e-12
2.20014e-12
2.14178e-12
2.07414e-12
1.99811e-12
1.91468e-12
1.82494e-12
1.73003e-12
1.63115e-12
1.52951e-12
1.42629e-12
1.32266e-12
1.2197e-12
1.11842e-12
1.01974e-12
9.24473e-13
8.33299e-13
7.46787e-13
6.65376e-13
5.89384e-13
5.19012e-13
4.5435e-13
3.95391e-13
3.42037e-13
2.94115e-13
2.5139e-13
2.13577e-13
1.80354e-13
1.51374e-13
1.26276e-13
1.04694e-13
8.62683e-14
7.06472e-14
5.74969e-14
4.65042e-14
3.73791e-14
2.9857e-14
2.36994e-14
1.86936e-14
1.46523e-14
1.14123e-14
8.83244e-15
6.79245e-15
5.19042e-15
3.94097e-15
2.97318e-15
2.2287e-15
1.65992e-15
1.22836e-15
9.03146e-16
6.59751e-16
4.78836e-16
3.45282e-16
2.47363e-16
1.76063e-16
1.24499e-16
8.7463e-17
6.10437e-17
4.23265e-17
2.91567e-17
1.99539e-17
1.35677e-17
9.16755e-18
6.15863e-18
4.11862e-18
2.75072e-18
1.84909e-18
1.27378e-18
9.33068e-19
7.71463e-19
1.75849e-17
1.83182e-17
2.0077e-17
2.29276e-17
2.6984e-17
3.24117e-17
3.94333e-17
4.83372e-17
5.94872e-17
7.33356e-17
9.04386e-17
1.11475e-16
1.37267e-16
1.68809e-16
2.07296e-16
2.54163e-16
3.11125e-16
3.80227e-16
4.63905e-16
5.65051e-16
6.87095e-16
8.34088e-16
1.01081e-15
1.22291e-15
1.47699e-15
1.78081e-15
2.14347e-15
2.57555e-15
3.08941e-15
3.69942e-15
4.42221e-15
5.27707e-15
6.28623e-15
7.47534e-15
8.87386e-15
1.05156e-14
1.24391e-14
1.46885e-14
1.73141e-14
2.03728e-14
2.39293e-14
2.80566e-14
3.28368e-14
3.83626e-14
4.47376e-14
5.20779e-14
6.05128e-14
7.01862e-14
8.12577e-14
9.39038e-14
1.08319e-13
1.24718e-13
1.43334e-13
1.64425e-13
1.88269e-13
2.15169e-13
2.45454e-13
2.79477e-13
3.17619e-13
3.60284e-13
4.07909e-13
4.60952e-13
5.19902e-13
5.8527e-13
6.57596e-13
7.37439e-13
8.25381e-13
9.22023e-13
1.02798e-12
1.14388e-12
1.27037e-12
1.40807e-12
1.55762e-12
1.71966e-12
1.89479e-12
2.0836e-12
2.28665e-12
2.50446e-12
2.7375e-12
2.98618e-12
3.25084e-12
3.53176e-12
3.8291e-12
4.14296e-12
4.47331e-12
4.81999e-12
5.18273e-12
5.56113e-12
5.95462e-12
6.3625e-12
6.78389e-12
7.21778e-12
7.66295e-12
8.11804e-12
8.58151e-12
9.05166e-12
9.52662e-12
1.00044e-11
1.04827e-11
1.09594e-11
1.14319e-11
1.18978e-11
1.23543e-11
1.27988e-11
1.32286e-11
1.36408e-11
1.40327e-11
1.44015e-11
1.47445e-11
1.50593e-11
1.53431e-11
1.55938e-11
1.58091e-11
1.59872e-11
1.61262e-11
1.62247e-11
1.62815e-11
1.62958e-11
1.62669e-11
1.61946e-11
1.6079e-11
1.59206e-11
1.57201e-11
1.54788e-11
1.5198e-11
1.48796e-11
1.45258e-11
1.41389e-11
1.37216e-11
1.32768e-11
1.28077e-11
1.23176e-11
1.18098e-11
1.12879e-11
1.07555e-11
1.02161e-11
9.67341e-12
9.13084e-12
8.59185e-12
8.0597e-12
7.53753e-12
7.02827e-12
6.53464e-12
6.05913e-12
5.60397e-12
5.17114e-12
4.76234e-12
4.37901e-12
4.02231e-12
3.69312e-12
3.39207e-12
3.11954e-12
2.87566e-12
2.66033e-12
2.47324e-12
2.31389e-12
2.18156e-12
2.07539e-12
1.99435e-12
1.93728e-12
1.90284e-12
1.88963e-12
1.89609e-12
1.92058e-12
1.96135e-12
2.01657e-12
2.08435e-12
2.16271e-12
2.24964e-12
2.34306e-12
2.44088e-12
2.541e-12
2.64133e-12
2.7398e-12
2.83441e-12
2.92322e-12
3.0044e-12
3.07627e-12
3.13728e-12
3.18607e-12
3.22149e-12
3.24261e-12
3.24875e-12
3.23948e-12
3.21463e-12
3.1743e-12
3.11884e-12
3.04887e-12
2.96523e-12
2.86897e-12
2.76133e-12
2.64371e-12
2.51763e-12
2.38468e-12
2.24653e-12
2.10484e-12
1.96125e-12
1.81733e-12
1.67459e-12
1.53441e-12
1.39801e-12
1.26651e-12
1.14081e-12
1.02168e-12
9.09706e-13
8.05291e-13
7.08694e-13
6.20022e-13
5.39242e-13
4.66205e-13
4.0066e-13
3.42269e-13
2.9063e-13
2.45293e-13
2.05774e-13
1.71572e-13
1.42182e-13
1.17104e-13
9.58558e-14
7.79792e-14
6.30439e-14
5.06526e-14
4.04434e-14
3.20902e-14
2.53027e-14
1.98256e-14
1.54362e-14
1.19428e-14
9.18145e-15
7.0138e-15
5.32383e-15
4.0153e-15
3.00904e-15
2.24052e-15
1.65759e-15
1.21844e-15
8.89863e-16
6.45703e-16
4.65507e-16
3.33426e-16
2.37272e-16
1.6775e-16
1.17827e-16
8.22219e-17
5.70019e-17
3.92599e-17
2.68643e-17
1.82639e-17
1.23391e-17
8.28822e-18
5.54214e-18
3.70103e-18
2.48763e-18
1.71346e-18
1.25501e-18
1.03758e-18
3.10299e-17
3.23219e-17
3.54218e-17
4.04462e-17
4.75956e-17
5.71612e-17
6.95349e-17
8.52239e-17
1.04868e-16
1.29263e-16
1.59387e-16
1.96432e-16
2.41845e-16
2.97372e-16
3.65114e-16
4.47587e-16
5.47804e-16
6.69355e-16
8.16512e-16
9.94348e-16
1.20887e-15
1.46718e-15
1.77766e-15
2.15017e-15
2.59629e-15
3.1296e-15
3.76596e-15
4.52389e-15
5.42497e-15
6.49423e-15
7.76073e-15
9.25802e-15
1.10249e-14
1.31058e-14
1.55522e-14
1.84225e-14
2.1784e-14
2.5713e-14
3.02966e-14
3.56333e-14
4.18349e-14
4.90275e-14
5.73528e-14
6.69703e-14
7.80583e-14
9.08163e-14
1.05466e-13
1.22254e-13
1.41454e-13
1.63366e-13
1.88323e-13
2.16688e-13
2.48861e-13
2.85275e-13
3.26403e-13
3.72757e-13
4.24889e-13
4.83392e-13
5.48904e-13
6.22104e-13
7.03714e-13
7.94499e-13
8.95267e-13
1.00686e-12
1.13017e-12
1.2661e-12
1.41561e-12
1.57968e-12
1.75928e-12
1.95544e-12
2.16916e-12
2.40146e-12
2.65332e-12
2.92573e-12
3.21963e-12
3.5359e-12
3.87538e-12
4.23883e-12
4.62691e-12
5.04019e-12
5.4791e-12
5.94394e-12
6.43488e-12
6.95188e-12
7.49474e-12
8.06306e-12
8.65621e-12
9.27335e-12
9.91338e-12
1.0575e-11
1.12565e-11
1.19562e-11
1.26718e-11
1.34011e-11
1.41413e-11
1.48895e-11
1.56427e-11
1.63973e-11
1.71498e-11
1.78964e-11
1.86332e-11
1.93559e-11
2.00605e-11
2.07425e-11
2.13977e-11
2.20216e-11
2.26101e-11
2.31588e-11
2.36637e-11
2.41209e-11
2.45266e-11
2.48775e-11
2.51705e-11
2.54028e-11
2.5572e-11
2.56762e-11
2.5714e-11
2.56843e-11
2.55868e-11
2.54213e-11
2.51887e-11
2.48899e-11
2.45267e-11
2.41012e-11
2.36162e-11
2.30748e-11
2.24808e-11
2.1838e-11
2.11511e-11
2.04246e-11
1.96638e-11
1.88737e-11
1.80599e-11
1.72279e-11
1.63831e-11
1.55312e-11
1.46776e-11
1.38275e-11
1.29862e-11
1.21584e-11
1.13489e-11
1.05619e-11
9.8013e-12
9.0707e-12
8.37323e-12
7.71163e-12
7.08823e-12
6.50493e-12
5.9632e-12
5.46412e-12
5.00837e-12
4.59627e-12
4.22776e-12
3.90246e-12
3.61969e-12
3.37847e-12
3.17756e-12
3.01549e-12
2.89056e-12
2.80089e-12
2.74442e-12
2.71892e-12
2.72201e-12
2.75119e-12
2.80386e-12
2.87728e-12
2.96864e-12
3.07505e-12
3.19357e-12
3.32122e-12
3.45498e-12
3.59184e-12
3.72884e-12
3.86306e-12
3.99167e-12
4.11197e-12
4.22141e-12
4.31765e-12
4.39856e-12
4.46229e-12
4.50728e-12
4.53229e-12
4.53641e-12
4.51911e-12
4.48021e-12
4.4199e-12
4.33875e-12
4.23763e-12
4.11777e-12
3.98068e-12
3.82811e-12
3.66203e-12
3.48456e-12
3.29794e-12
3.10448e-12
2.90646e-12
2.70617e-12
2.50576e-12
2.3073e-12
2.11268e-12
1.92357e-12
1.74146e-12
1.56761e-12
1.40302e-12
1.24847e-12
1.1045e-12
9.71438e-13
8.494e-13
7.3832e-13
6.37969e-13
5.47981e-13
4.67877e-13
3.97086e-13
3.34978e-13
2.80875e-13
2.34081e-13
1.93895e-13
1.59626e-13
1.30607e-13
1.06205e-13
8.58295e-14
6.8933e-14
5.50186e-14
4.36391e-14
3.43968e-14
2.6942e-14
2.09701e-14
1.62191e-14
1.24652e-14
9.5195e-15
7.22373e-15
5.44674e-15
4.08068e-15
3.03769e-15
2.2468e-15
1.65116e-15
1.20563e-15
8.74639e-16
6.30424e-16
4.51461e-16
3.21207e-16
2.27051e-16
1.59452e-16
1.11251e-16
7.71146e-17
5.31046e-17
3.63326e-17
2.46977e-17
1.66837e-17
1.12051e-17
7.49173e-18
5.00241e-18
3.36197e-18
2.31544e-18
1.69576e-18
1.40186e-18
5.4366e-17
5.66264e-17
6.20512e-17
7.08442e-17
8.33559e-17
1.00095e-16
1.21746e-16
1.49195e-16
1.8356e-16
2.26231e-16
2.78914e-16
3.43692e-16
4.2309e-16
5.20154e-16
6.38548e-16
7.82663e-16
9.57748e-16
1.17006e-15
1.42704e-15
1.73753e-15
2.11199e-15
2.56277e-15
3.10445e-15
3.75417e-15
4.53207e-15
5.46171e-15
6.57066e-15
7.89105e-15
9.46027e-15
1.13218e-14
1.35258e-14
1.61304e-14
1.92028e-14
2.28199e-14
2.70702e-14
3.2055e-14
3.78898e-14
4.47065e-14
5.26546e-14
6.19039e-14
7.26461e-14
8.50975e-14
9.95013e-14
1.1613e-13
1.35289e-13
1.57319e-13
1.82597e-13
2.11544e-13
2.44624e-13
2.82348e-13
3.25279e-13
3.74031e-13
4.29279e-13
4.91754e-13
5.62251e-13
6.41626e-13
7.30807e-13
8.30783e-13
9.42615e-13
1.06743e-12
1.20643e-12
1.36088e-12
1.53209e-12
1.72146e-12
1.93044e-12
2.16051e-12
2.4132e-12
2.6901e-12
2.99278e-12
3.32286e-12
3.68193e-12
4.07159e-12
4.49337e-12
4.94879e-12
5.43926e-12
5.96613e-12
6.53062e-12
7.13381e-12
7.77661e-12
8.45977e-12
9.1838e-12
9.94897e-12
1.07553e-11
1.16025e-11
1.24901e-11
1.3417e-11
1.4382e-11
1.53835e-11
1.64193e-11
1.74871e-11
1.8584e-11
1.97067e-11
2.08516e-11
2.20144e-11
2.31908e-11
2.43758e-11
2.55641e-11
2.67502e-11
2.79281e-11
2.90916e-11
3.02344e-11
3.13498e-11
3.24311e-11
3.34716e-11
3.44643e-11
3.54026e-11
3.62799e-11
3.70897e-11
3.78258e-11
3.84825e-11
3.90544e-11
3.95365e-11
3.99244e-11
4.02143e-11
4.04031e-11
4.04885e-11
4.04686e-11
4.03426e-11
4.01105e-11
3.97729e-11
3.93316e-11
3.87888e-11
3.81478e-11
3.74126e-11
3.65881e-11
3.56796e-11
3.46933e-11
3.3636e-11
3.25148e-11
3.13376e-11
3.01122e-11
2.8847e-11
2.75505e-11
2.62313e-11
2.48979e-11
2.35587e-11
2.2222e-11
2.08959e-11
1.9588e-11
1.83054e-11
1.7055e-11
1.58429e-11
1.46749e-11
1.35559e-11
1.24903e-11
1.1482e-11
1.0534e-11
9.64881e-12
8.82824e-12
8.07352e-12
7.38531e-12
6.76369e-12
6.20824e-12
5.71805e-12
5.29178e-12
4.92766e-12
4.62358e-12
4.37711e-12
4.1855e-12
4.04575e-12
3.95464e-12
3.90872e-12
3.90437e-12
3.93781e-12
4.00512e-12
4.10225e-12
4.22506e-12
4.36932e-12
4.53075e-12
4.70502e-12
4.88783e-12
5.07487e-12
5.26191e-12
5.44484e-12
5.61968e-12
5.78264e-12
5.93018e-12
6.05904e-12
6.1663e-12
6.24943e-12
6.3063e-12
6.33525e-12
6.3351e-12
6.30518e-12
6.2453e-12
6.15582e-12
6.03757e-12
5.89188e-12
5.72048e-12
5.52553e-12
5.3095e-12
5.07517e-12
4.82551e-12
4.56364e-12
4.29275e-12
4.01604e-12
3.73663e-12
3.45752e-12
3.18152e-12
2.91122e-12
2.64891e-12
2.39661e-12
2.15602e-12
1.92848e-12
1.71502e-12
1.51638e-12
1.33294e-12
1.16485e-12
1.01197e-12
8.73966e-13
7.50307e-13
6.40307e-13
5.43165e-13
4.57992e-13
3.83845e-13
3.19754e-13
2.64745e-13
2.17862e-13
1.78183e-13
1.44836e-13
1.17003e-13
9.39349e-14
7.49467e-14
5.94247e-14
4.68234e-14
3.66633e-14
2.85277e-14
2.20577e-14
1.69475e-14
1.29388e-14
9.81574e-15
7.39917e-15
5.54203e-15
4.12452e-15
3.04995e-15
2.24088e-15
1.63586e-15
1.18651e-15
8.55048e-16
6.12201e-16
4.35492e-16
3.07781e-16
2.16111e-16
1.50758e-16
1.04483e-16
7.19414e-17
4.92134e-17
3.34493e-17
2.25927e-17
1.51719e-17
1.01427e-17
6.77179e-18
4.55061e-18
3.13374e-18
2.29482e-18
1.89696e-18
9.45684e-17
9.84945e-17
1.0792e-16
1.23198e-16
1.44937e-16
1.74019e-16
2.11633e-16
2.59314e-16
3.19002e-16
3.93106e-16
4.84587e-16
5.97052e-16
7.34879e-16
9.03345e-16
1.1088e-15
1.35884e-15
1.66256e-15
2.03078e-15
2.47639e-15
3.01466e-15
3.66368e-15
4.44481e-15
5.38322e-15
6.50852e-15
7.85545e-15
9.46467e-15
1.13837e-14
1.3668e-14
1.63818e-14
1.96e-14
2.34091e-14
2.79089e-14
3.32147e-14
3.94588e-14
4.67928e-14
5.53905e-14
6.54498e-14
7.71961e-14
9.08855e-14
1.06808e-13
1.2529e-13
1.46701e-13
1.71455e-13
2.00016e-13
2.32901e-13
2.70689e-13
3.14021e-13
3.63606e-13
4.20228e-13
4.84751e-13
5.58121e-13
6.41374e-13
7.35638e-13
8.42139e-13
9.62205e-13
1.09727e-12
1.24886e-12
1.41864e-12
1.60835e-12
1.81987e-12
2.05515e-12
2.31627e-12
2.60541e-12
2.92482e-12
3.27684e-12
3.66389e-12
4.08844e-12
4.553e-12
5.06009e-12
5.61227e-12
6.21203e-12
6.86186e-12
7.56413e-12
8.32115e-12
9.13505e-12
1.00078e-11
1.09412e-11
1.19367e-11
1.29955e-11
1.41186e-11
1.53065e-11
1.65592e-11
1.78765e-11
1.92574e-11
2.07008e-11
2.22045e-11
2.37663e-11
2.53829e-11
2.70506e-11
2.87651e-11
3.05214e-11
3.23136e-11
3.41356e-11
3.59803e-11
3.78402e-11
3.97071e-11
4.15723e-11
4.34267e-11
4.52606e-11
4.7064e-11
4.88267e-11
5.05381e-11
5.21877e-11
5.37648e-11
5.52589e-11
5.66596e-11
5.79568e-11
5.91409e-11
6.02026e-11
6.11334e-11
6.19256e-11
6.2572e-11
6.30666e-11
6.34043e-11
6.35811e-11
6.35942e-11
6.34419e-11
6.31238e-11
6.26409e-11
6.19952e-11
6.11902e-11
6.02307e-11
5.91225e-11
5.78728e-11
5.64899e-11
5.49828e-11
5.33619e-11
5.1638e-11
4.9823e-11
4.79291e-11
4.59689e-11
4.39556e-11
4.19023e-11
3.98223e-11
3.77285e-11
3.56339e-11
3.35509e-11
3.14915e-11
2.94669e-11
2.74878e-11
2.55641e-11
2.37047e-11
2.19176e-11
2.021e-11