/*--------------------------------*- C++ -*----------------------------------*\
| =========                 |                                                 |
| \\      /  F ield         | OpenFOAM: The Open Source CFD Toolbox           |
|  \\    /   O peration     | Version:  v2012                                 |
|   \\  /    A nd           | Website:  www.openfoam.com                      |
|    \\/     M anipulation  |                                                 |
\*---------------------------------------------------------------------------*/
FoamFile
{
    version     2.0;
    format      ascii;
    class       volVectorField;
    location    "2e-06";
    object      Psi;
}
// * * * * * * * * * * * * * * * * * * * * * * * * * * * * * * * * * * * * * //

dimensions      [0 2 -1 0 0 0 0];


internalField   nonuniform List<vector> 
65536
(
(0 0 8.28767e-06)
(0 0 2.48623e-05)
(0 0 4.14353e-05)
(0 0 5.80054e-05)
(0 0 7.45716e-05)
(0 0 9.11328e-05)
(0 0 0.000107688)
(0 0 0.000124235)
(0 0 0.000140775)
(0 0 0.000157304)
(0 0 0.000173823)
(0 0 0.000190329)
(0 0 0.000206822)
(0 0 0.000223301)
(0 0 0.000239764)
(0 0 0.000256209)
(0 0 0.000272636)
(0 0 0.000289043)
(0 0 0.000305429)
(0 0 0.000321793)
(0 0 0.000338132)
(0 0 0.000354446)
(0 0 0.000370732)
(0 0 0.00038699)
(0 0 0.000403218)
(0 0 0.000419413)
(0 0 0.000435576)
(0 0 0.000451703)
(0 0 0.000467792)
(0 0 0.000483844)
(0 0 0.000499854)
(0 0 0.000515822)
(0 0 0.000531745)
(0 0 0.000547622)
(0 0 0.000563451)
(0 0 0.000579229)
(0 0 0.000594954)
(0 0 0.000610624)
(0 0 0.000626238)
(0 0 0.000641792)
(0 0 0.000657284)
(0 0 0.000672713)
(0 0 0.000688075)
(0 0 0.000703369)
(0 0 0.000718591)
(0 0 0.00073374)
(0 0 0.000748812)
(0 0 0.000763806)
(0 0 0.000778718)
(0 0 0.000793545)
(0 0 0.000808286)
(0 0 0.000822937)
(0 0 0.000837496)
(0 0 0.000851959)
(0 0 0.000866324)
(0 0 0.000880588)
(0 0 0.000894749)
(0 0 0.000908802)
(0 0 0.000922745)
(0 0 0.000936576)
(0 0 0.00095029)
(0 0 0.000963886)
(0 0 0.00097736)
(0 0 0.000990709)
(0 0 0.00100393)
(0 0 0.00101702)
(0 0 0.00102998)
(0 0 0.00104279)
(0 0 0.00105547)
(0 0 0.00106801)
(0 0 0.0010804)
(0 0 0.00109264)
(0 0 0.00110472)
(0 0 0.00111665)
(0 0 0.00112843)
(0 0 0.00114004)
(0 0 0.00115149)
(0 0 0.00116277)
(0 0 0.00117387)
(0 0 0.00118481)
(0 0 0.00119557)
(0 0 0.00120615)
(0 0 0.00121655)
(0 0 0.00122677)
(0 0 0.0012368)
(0 0 0.00124664)
(0 0 0.00125629)
(0 0 0.00126574)
(0 0 0.00127499)
(0 0 0.00128405)
(0 0 0.0012929)
(0 0 0.00130155)
(0 0 0.00131)
(0 0 0.00131823)
(0 0 0.00132625)
(0 0 0.00133406)
(0 0 0.00134166)
(0 0 0.00134904)
(0 0 0.00135619)
(0 0 0.00136313)
(0 0 0.00136985)
(0 0 0.00137634)
(0 0 0.0013826)
(0 0 0.00138864)
(0 0 0.00139444)
(0 0 0.00140002)
(0 0 0.00140536)
(0 0 0.00141048)
(0 0 0.00141535)
(0 0 0.00141999)
(0 0 0.00142439)
(0 0 0.00142856)
(0 0 0.00143249)
(0 0 0.00143617)
(0 0 0.00143961)
(0 0 0.00144282)
(0 0 0.00144578)
(0 0 0.00144849)
(0 0 0.00145097)
(0 0 0.00145319)
(0 0 0.00145518)
(0 0 0.00145691)
(0 0 0.0014584)
(0 0 0.00145965)
(0 0 0.00146065)
(0 0 0.0014614)
(0 0 0.0014619)
(0 0 0.00146216)
(0 0 0.00146217)
(0 0 0.00146193)
(0 0 0.00146144)
(0 0 0.00146071)
(0 0 0.00145973)
(0 0 0.0014585)
(0 0 0.00145703)
(0 0 0.00145531)
(0 0 0.00145335)
(0 0 0.00145114)
(0 0 0.00144868)
(0 0 0.00144599)
(0 0 0.00144304)
(0 0 0.00143986)
(0 0 0.00143643)
(0 0 0.00143276)
(0 0 0.00142886)
(0 0 0.00142471)
(0 0 0.00142032)
(0 0 0.0014157)
(0 0 0.00141084)
(0 0 0.00140575)
(0 0 0.00140042)
(0 0 0.00139486)
(0 0 0.00138907)
(0 0 0.00138305)
(0 0 0.0013768)
(0 0 0.00137032)
(0 0 0.00136362)
(0 0 0.0013567)
(0 0 0.00134955)
(0 0 0.00134219)
(0 0 0.00133461)
(0 0 0.00132681)
(0 0 0.0013188)
(0 0 0.00131058)
(0 0 0.00130215)
(0 0 0.00129351)
(0 0 0.00128467)
(0 0 0.00127563)
(0 0 0.00126638)
(0 0 0.00125694)
(0 0 0.0012473)
(0 0 0.00123747)
(0 0 0.00122745)
(0 0 0.00121725)
(0 0 0.00120685)
(0 0 0.00119628)
(0 0 0.00118553)
(0 0 0.0011746)
(0 0 0.0011635)
(0 0 0.00115222)
(0 0 0.00114078)
(0 0 0.00112917)
(0 0 0.00111741)
(0 0 0.00110548)
(0 0 0.0010934)
(0 0 0.00108116)
(0 0 0.00106878)
(0 0 0.00105624)
(0 0 0.00104357)
(0 0 0.00103075)
(0 0 0.00101779)
(0 0 0.0010047)
(0 0 0.000991484)
(0 0 0.000978134)
(0 0 0.00096466)
(0 0 0.000951062)
(0 0 0.000937346)
(0 0 0.000923513)
(0 0 0.000909566)
(0 0 0.00089551)
(0 0 0.000881346)
(0 0 0.000867077)
(0 0 0.000852707)
(0 0 0.000838239)
(0 0 0.000823675)
(0 0 0.000809017)
(0 0 0.00079427)
(0 0 0.000779435)
(0 0 0.000764516)
(0 0 0.000749515)
(0 0 0.000734434)
(0 0 0.000719276)
(0 0 0.000704045)
(0 0 0.000688742)
(0 0 0.000673369)
(0 0 0.00065793)
(0 0 0.000642427)
(0 0 0.000626862)
(0 0 0.000611237)
(0 0 0.000595554)
(0 0 0.000579817)
(0 0 0.000564026)
(0 0 0.000548185)
(0 0 0.000532295)
(0 0 0.000516358)
(0 0 0.000500376)
(0 0 0.000484352)
(0 0 0.000468286)
(0 0 0.000452182)
(0 0 0.00043604)
(0 0 0.000419862)
(0 0 0.000403651)
(0 0 0.000387407)
(0 0 0.000371133)
(0 0 0.000354831)
(0 0 0.0003385)
(0 0 0.000322145)
(0 0 0.000305764)
(0 0 0.000289361)
(0 0 0.000272937)
(0 0 0.000256492)
(0 0 0.000240029)
(0 0 0.000223549)
(0 0 0.000207053)
(0 0 0.000190541)
(0 0 0.000174017)
(0 0 0.00015748)
(0 0 0.000140932)
(0 0 0.000124375)
(0 0 0.000107809)
(0 0 9.12354e-05)
(0 0 7.46556e-05)
(0 0 5.80708e-05)
(0 0 4.1482e-05)
(0 0 2.48903e-05)
(0 0 8.29696e-06)
(0 0 2.48633e-05)
(0 0 7.45882e-05)
(0 0 0.000124308)
(0 0 0.000174019)
(0 0 0.000223719)
(0 0 0.000273404)
(0 0 0.00032307)
(0 0 0.000372714)
(0 0 0.000422332)
(0 0 0.000471921)
(0 0 0.000521478)
(0 0 0.000570999)
(0 0 0.000620479)
(0 0 0.000669916)
(0 0 0.000719305)
(0 0 0.000768643)
(0 0 0.000817925)
(0 0 0.000867148)
(0 0 0.000916308)
(0 0 0.000965399)
(0 0 0.00101442)
(0 0 0.00106336)
(0 0 0.00111222)
(0 0 0.001161)
(0 0 0.00120968)
(0 0 0.00125827)
(0 0 0.00130676)
(0 0 0.00135514)
(0 0 0.00140341)
(0 0 0.00145157)
(0 0 0.0014996)
(0 0 0.00154751)
(0 0 0.00159528)
(0 0 0.00164291)
(0 0 0.0016904)
(0 0 0.00173773)
(0 0 0.00178491)
(0 0 0.00183192)
(0 0 0.00187877)
(0 0 0.00192543)
(0 0 0.00197191)
(0 0 0.0020182)
(0 0 0.00206429)
(0 0 0.00211017)
(0 0 0.00215584)
(0 0 0.00220129)
(0 0 0.00224651)
(0 0 0.00229149)
(0 0 0.00233623)
(0 0 0.00238072)
(0 0 0.00242494)
(0 0 0.0024689)
(0 0 0.00251258)
(0 0 0.00255597)
(0 0 0.00259907)
(0 0 0.00264186)
(0 0 0.00268434)
(0 0 0.00272651)
(0 0 0.00276834)
(0 0 0.00280983)
(0 0 0.00285098)
(0 0 0.00289177)
(0 0 0.0029322)
(0 0 0.00297225)
(0 0 0.00301191)
(0 0 0.00305118)
(0 0 0.00309005)
(0 0 0.00312851)
(0 0 0.00316655)
(0 0 0.00320416)
(0 0 0.00324133)
(0 0 0.00327805)
(0 0 0.00331431)
(0 0 0.00335011)
(0 0 0.00338543)
(0 0 0.00342027)
(0 0 0.00345461)
(0 0 0.00348845)
(0 0 0.00352179)
(0 0 0.0035546)
(0 0 0.00358688)
(0 0 0.00361863)
(0 0 0.00364983)
(0 0 0.00368048)
(0 0 0.00371057)
(0 0 0.0037401)
(0 0 0.00376904)
(0 0 0.0037974)
(0 0 0.00382517)
(0 0 0.00385234)
(0 0 0.0038789)
(0 0 0.00390486)
(0 0 0.00393019)
(0 0 0.00395489)
(0 0 0.00397896)
(0 0 0.00400239)
(0 0 0.00402518)
(0 0 0.00404731)
(0 0 0.00406879)
(0 0 0.0040896)
(0 0 0.00410975)
(0 0 0.00412922)
(0 0 0.00414802)
(0 0 0.00416613)
(0 0 0.00418355)
(0 0 0.00420028)
(0 0 0.00421632)
(0 0 0.00423165)
(0 0 0.00424628)
(0 0 0.0042602)
(0 0 0.00427341)
(0 0 0.00428591)
(0 0 0.00429768)
(0 0 0.00430874)
(0 0 0.00431907)
(0 0 0.00432868)
(0 0 0.00433756)
(0 0 0.00434571)
(0 0 0.00435313)
(0 0 0.00435981)
(0 0 0.00436576)
(0 0 0.00437097)
(0 0 0.00437545)
(0 0 0.00437918)
(0 0 0.00438217)
(0 0 0.00438442)
(0 0 0.00438594)
(0 0 0.0043867)
(0 0 0.00438673)
(0 0 0.00438602)
(0 0 0.00438456)
(0 0 0.00438236)
(0 0 0.00437943)
(0 0 0.00437575)
(0 0 0.00437133)
(0 0 0.00436617)
(0 0 0.00436028)
(0 0 0.00435365)
(0 0 0.00434629)
(0 0 0.00433819)
(0 0 0.00432936)
(0 0 0.00431981)
(0 0 0.00430953)
(0 0 0.00429852)
(0 0 0.0042868)
(0 0 0.00427435)
(0 0 0.00426119)
(0 0 0.00424732)
(0 0 0.00423274)
(0 0 0.00421746)
(0 0 0.00420147)
(0 0 0.00418479)
(0 0 0.00416742)
(0 0 0.00414935)
(0 0 0.0041306)
(0 0 0.00411118)
(0 0 0.00409108)
(0 0 0.0040703)
(0 0 0.00404887)
(0 0 0.00402678)
(0 0 0.00400403)
(0 0 0.00398064)
(0 0 0.00395661)
(0 0 0.00393194)
(0 0 0.00390665)
(0 0 0.00388074)
(0 0 0.00385421)
(0 0 0.00382707)
(0 0 0.00379934)
(0 0 0.00377101)
(0 0 0.00374209)
(0 0 0.0037126)
(0 0 0.00368254)
(0 0 0.00365192)
(0 0 0.00362074)
(0 0 0.00358901)
(0 0 0.00355675)
(0 0 0.00352396)
(0 0 0.00349065)
(0 0 0.00345683)
(0 0 0.0034225)
(0 0 0.00338768)
(0 0 0.00335237)
(0 0 0.00331659)
(0 0 0.00328033)
(0 0 0.00324362)
(0 0 0.00320646)
(0 0 0.00316886)
(0 0 0.00313083)
(0 0 0.00309238)
(0 0 0.00305351)
(0 0 0.00301424)
(0 0 0.00297457)
(0 0 0.00293452)
(0 0 0.00289409)
(0 0 0.0028533)
(0 0 0.00281215)
(0 0 0.00277064)
(0 0 0.0027288)
(0 0 0.00268663)
(0 0 0.00264413)
(0 0 0.00260133)
(0 0 0.00255821)
(0 0 0.00251481)
(0 0 0.00247111)
(0 0 0.00242714)
(0 0 0.00238289)
(0 0 0.00233838)
(0 0 0.00229362)
(0 0 0.00224862)
(0 0 0.00220337)
(0 0 0.0021579)
(0 0 0.0021122)
(0 0 0.00206629)
(0 0 0.00202017)
(0 0 0.00197385)
(0 0 0.00192734)
(0 0 0.00188064)
(0 0 0.00183376)
(0 0 0.00178671)
(0 0 0.0017395)
(0 0 0.00169213)
(0 0 0.0016446)
(0 0 0.00159693)
(0 0 0.00154911)
(0 0 0.00150117)
(0 0 0.00145309)
(0 0 0.00140489)
(0 0 0.00135658)
(0 0 0.00130815)
(0 0 0.00125962)
(0 0 0.00121098)
(0 0 0.00116225)
(0 0 0.00111343)
(0 0 0.00106452)
(0 0 0.00101552)
(0 0 0.000966455)
(0 0 0.000917314)
(0 0 0.000868103)
(0 0 0.000818829)
(0 0 0.000769494)
(0 0 0.000720104)
(0 0 0.000670661)
(0 0 0.000621171)
(0 0 0.000571636)
(0 0 0.000522062)
(0 0 0.00047245)
(0 0 0.000422806)
(0 0 0.000373133)
(0 0 0.000323433)
(0 0 0.000273712)
(0 0 0.000223971)
(0 0 0.000174216)
(0 0 0.000124448)
(0 0 7.46725e-05)
(0 0 2.48914e-05)
(0 0 4.14407e-05)
(0 0 0.000124319)
(0 0 0.000207189)
(0 0 0.000290045)
(0 0 0.000372882)
(0 0 0.000455693)
(0 0 0.000538474)
(0 0 0.000621217)
(0 0 0.000703919)
(0 0 0.000786572)
(0 0 0.00086917)
(0 0 0.000951708)
(0 0 0.00103418)
(0 0 0.00111658)
(0 0 0.0011989)
(0 0 0.00128113)
(0 0 0.00136327)
(0 0 0.00144532)
(0 0 0.00152725)
(0 0 0.00160908)
(0 0 0.00169078)
(0 0 0.00177236)
(0 0 0.0018538)
(0 0 0.00193509)
(0 0 0.00201624)
(0 0 0.00209723)
(0 0 0.00217805)
(0 0 0.00225869)
(0 0 0.00233915)
(0 0 0.00241941)
(0 0 0.00249947)
(0 0 0.00257932)
(0 0 0.00265895)
(0 0 0.00273834)
(0 0 0.0028175)
(0 0 0.0028964)
(0 0 0.00297503)
(0 0 0.0030534)
(0 0 0.00313147)
(0 0 0.00320926)
(0 0 0.00328673)
(0 0 0.00336389)
(0 0 0.00344071)
(0 0 0.00351719)
(0 0 0.00359331)
(0 0 0.00366907)
(0 0 0.00374444)
(0 0 0.00381942)
(0 0 0.003894)
(0 0 0.00396815)
(0 0 0.00404187)
(0 0 0.00411514)
(0 0 0.00418794)
(0 0 0.00426027)
(0 0 0.00433211)
(0 0 0.00440345)
(0 0 0.00447426)
(0 0 0.00454454)
(0 0 0.00461427)
(0 0 0.00468344)
(0 0 0.00475203)
(0 0 0.00482002)
(0 0 0.00488741)
(0 0 0.00495417)
(0 0 0.00502029)
(0 0 0.00508575)
(0 0 0.00515054)
(0 0 0.00521465)
(0 0 0.00527806)
(0 0 0.00534075)
(0 0 0.00540271)
(0 0 0.00546392)
(0 0 0.00552437)
(0 0 0.00558404)
(0 0 0.00564292)
(0 0 0.00570099)
(0 0 0.00575824)
(0 0 0.00581466)
(0 0 0.00587022)
(0 0 0.00592492)
(0 0 0.00597873)
(0 0 0.00603165)
(0 0 0.00608367)
(0 0 0.00613476)
(0 0 0.00618492)
(0 0 0.00623413)
(0 0 0.00628238)
(0 0 0.00632966)
(0 0 0.00637595)
(0 0 0.00642124)
(0 0 0.00646552)
(0 0 0.00650878)
(0 0 0.00655101)
(0 0 0.00659219)
(0 0 0.00663231)
(0 0 0.00667137)
(0 0 0.00670935)
(0 0 0.00674625)
(0 0 0.00678205)
(0 0 0.00681675)
(0 0 0.00685033)
(0 0 0.00688279)
(0 0 0.00691412)
(0 0 0.00694431)
(0 0 0.00697335)
(0 0 0.00700124)
(0 0 0.00702797)
(0 0 0.00705353)
(0 0 0.00707791)
(0 0 0.00710112)
(0 0 0.00712314)
(0 0 0.00714397)
(0 0 0.0071636)
(0 0 0.00718204)
(0 0 0.00719926)
(0 0 0.00721528)
(0 0 0.00723008)
(0 0 0.00724367)
(0 0 0.00725603)
(0 0 0.00726717)
(0 0 0.00727709)
(0 0 0.00728577)
(0 0 0.00729323)
(0 0 0.00729945)
(0 0 0.00730444)
(0 0 0.0073082)
(0 0 0.00731071)
(0 0 0.007312)
(0 0 0.00731204)
(0 0 0.00731085)
(0 0 0.00730842)
(0 0 0.00730476)
(0 0 0.00729986)
(0 0 0.00729373)
(0 0 0.00728637)
(0 0 0.00727777)
(0 0 0.00726795)
(0 0 0.0072569)
(0 0 0.00724462)
(0 0 0.00723113)
(0 0 0.00721641)
(0 0 0.00720049)
(0 0 0.00718335)
(0 0 0.007165)
(0 0 0.00714546)
(0 0 0.00712471)
(0 0 0.00710278)
(0 0 0.00707966)
(0 0 0.00705535)
(0 0 0.00702987)
(0 0 0.00700323)
(0 0 0.00697542)
(0 0 0.00694646)
(0 0 0.00691634)
(0 0 0.00688509)
(0 0 0.00685271)
(0 0 0.0068192)
(0 0 0.00678458)
(0 0 0.00674885)
(0 0 0.00671202)
(0 0 0.00667411)
(0 0 0.00663511)
(0 0 0.00659505)
(0 0 0.00655394)
(0 0 0.00651177)
(0 0 0.00646858)
(0 0 0.00642435)
(0 0 0.00637912)
(0 0 0.00633288)
(0 0 0.00628566)
(0 0 0.00623746)
(0 0 0.0061883)
(0 0 0.00613819)
(0 0 0.00608714)
(0 0 0.00603517)
(0 0 0.00598228)
(0 0 0.00592851)
(0 0 0.00587384)
(0 0 0.00581832)
(0 0 0.00576193)
(0 0 0.00570471)
(0 0 0.00564667)
(0 0 0.00558781)
(0 0 0.00552816)
(0 0 0.00546773)
(0 0 0.00540654)
(0 0 0.00534459)
(0 0 0.00528192)
(0 0 0.00521852)
(0 0 0.00515442)
(0 0 0.00508963)
(0 0 0.00502417)
(0 0 0.00495805)
(0 0 0.00489128)
(0 0 0.0048239)
(0 0 0.00475589)
(0 0 0.0046873)
(0 0 0.00461812)
(0 0 0.00454837)
(0 0 0.00447807)
(0 0 0.00440724)
(0 0 0.00433588)
(0 0 0.00426402)
(0 0 0.00419166)
(0 0 0.00411883)
(0 0 0.00404553)
(0 0 0.00397178)
(0 0 0.00389759)
(0 0 0.00382298)
(0 0 0.00374796)
(0 0 0.00367254)
(0 0 0.00359674)
(0 0 0.00352057)
(0 0 0.00344404)
(0 0 0.00336717)
(0 0 0.00328996)
(0 0 0.00321243)
(0 0 0.0031346)
(0 0 0.00305646)
(0 0 0.00297804)
(0 0 0.00289934)
(0 0 0.00282038)
(0 0 0.00274116)
(0 0 0.0026617)
(0 0 0.00258201)
(0 0 0.00250209)
(0 0 0.00242196)
(0 0 0.00234162)
(0 0 0.00226109)
(0 0 0.00218037)
(0 0 0.00209947)
(0 0 0.00201841)
(0 0 0.00193718)
(0 0 0.00185581)
(0 0 0.00177428)
(0 0 0.00169263)
(0 0 0.00161084)
(0 0 0.00152893)
(0 0 0.00144691)
(0 0 0.00136478)
(0 0 0.00128255)
(0 0 0.00120023)
(0 0 0.00111782)
(0 0 0.00103533)
(0 0 0.000952772)
(0 0 0.000870143)
(0 0 0.000787454)
(0 0 0.000704709)
(0 0 0.000621916)
(0 0 0.00053908)
(0 0 0.000456207)
(0 0 0.000373303)
(0 0 0.000290373)
(0 0 0.000207424)
(0 0 0.00012446)
(0 0 4.14876e-05)
(0 0 5.80208e-05)
(0 0 0.000174059)
(0 0 0.000290085)
(0 0 0.000406091)
(0 0 0.00052207)
(0 0 0.000638014)
(0 0 0.000753915)
(0 0 0.000869764)
(0 0 0.000985554)
(0 0 0.00110128)
(0 0 0.00121692)
(0 0 0.00133249)
(0 0 0.00144795)
(0 0 0.00156332)
(0 0 0.00167858)
(0 0 0.00179372)
(0 0 0.00190872)
(0 0 0.00202359)
(0 0 0.00213832)
(0 0 0.00225288)
(0 0 0.00236727)
(0 0 0.00248149)
(0 0 0.00259552)
(0 0 0.00270935)
(0 0 0.00282296)
(0 0 0.00293635)
(0 0 0.00304951)
(0 0 0.00316243)
(0 0 0.00327508)
(0 0 0.00338746)
(0 0 0.00349956)
(0 0 0.00361136)
(0 0 0.00372286)
(0 0 0.00383402)
(0 0 0.00394485)
(0 0 0.00405532)
(0 0 0.00416543)
(0 0 0.00427516)
(0 0 0.00438448)
(0 0 0.00449339)
(0 0 0.00460187)
(0 0 0.00470991)
(0 0 0.00481748)
(0 0 0.00492456)
(0 0 0.00503116)
(0 0 0.00513723)
(0 0 0.00524277)
(0 0 0.00534777)
(0 0 0.00545219)
(0 0 0.00555602)
(0 0 0.00565924)
(0 0 0.00576184)
(0 0 0.00586379)
(0 0 0.00596507)
(0 0 0.00606567)
(0 0 0.00616556)
(0 0 0.00626472)
(0 0 0.00636313)
(0 0 0.00646078)
(0 0 0.00655763)
(0 0 0.00665368)
(0 0 0.00674889)
(0 0 0.00684325)
(0 0 0.00693673)
(0 0 0.00702932)
(0 0 0.00712099)
(0 0 0.00721172)
(0 0 0.0073015)
(0 0 0.00739029)
(0 0 0.00747808)
(0 0 0.00756484)
(0 0 0.00765056)
(0 0 0.00773521)
(0 0 0.00781877)
(0 0 0.00790122)
(0 0 0.00798254)
(0 0 0.00806271)
(0 0 0.00814171)
(0 0 0.00821952)
(0 0 0.00829612)
(0 0 0.00837148)
(0 0 0.00844559)
(0 0 0.00851843)
(0 0 0.00858998)
(0 0 0.00866022)
(0 0 0.00872913)
(0 0 0.0087967)
(0 0 0.0088629)
(0 0 0.00892773)
(0 0 0.00899115)
(0 0 0.00905316)
(0 0 0.00911374)
(0 0 0.00917287)
(0 0 0.00923054)
(0 0 0.00928673)
(0 0 0.00934143)
(0 0 0.00939462)
(0 0 0.00944629)
(0 0 0.00949642)
(0 0 0.00954501)
(0 0 0.00959204)
(0 0 0.00963749)
(0 0 0.00968136)
(0 0 0.00972364)
(0 0 0.00976431)
(0 0 0.00980336)
(0 0 0.00984079)
(0 0 0.00987659)
(0 0 0.00991074)
(0 0 0.00994323)
(0 0 0.00997407)
(0 0 0.0100032)
(0 0 0.0100307)
(0 0 0.0100565)
(0 0 0.0100807)
(0 0 0.0101031)
(0 0 0.0101238)
(0 0 0.0101428)
(0 0 0.0101602)
(0 0 0.0101758)
(0 0 0.0101896)
(0 0 0.0102018)
(0 0 0.0102122)
(0 0 0.010221)
(0 0 0.0102279)
(0 0 0.0102332)
(0 0 0.0102367)
(0 0 0.0102385)
(0 0 0.0102386)
(0 0 0.0102369)
(0 0 0.0102335)
(0 0 0.0102284)
(0 0 0.0102215)
(0 0 0.010213)
(0 0 0.0102026)
(0 0 0.0101906)
(0 0 0.0101768)
(0 0 0.0101614)
(0 0 0.0101442)
(0 0 0.0101253)
(0 0 0.0101047)
(0 0 0.0100824)
(0 0 0.0100584)
(0 0 0.0100327)
(0 0 0.0100053)
(0 0 0.00997627)
(0 0 0.00994555)
(0 0 0.00991317)
(0 0 0.00987914)
(0 0 0.00984346)
(0 0 0.00980615)
(0 0 0.00976721)
(0 0 0.00972665)
(0 0 0.00968448)
(0 0 0.00964072)
(0 0 0.00959537)
(0 0 0.00954844)
(0 0 0.00949996)
(0 0 0.00944992)
(0 0 0.00939835)
(0 0 0.00934526)
(0 0 0.00929066)
(0 0 0.00923456)
(0 0 0.00917698)
(0 0 0.00911793)
(0 0 0.00905744)
(0 0 0.00899551)
(0 0 0.00893217)
(0 0 0.00886742)
(0 0 0.00880129)
(0 0 0.0087338)
(0 0 0.00866495)
(0 0 0.00859478)
(0 0 0.00852329)
(0 0 0.00845051)
(0 0 0.00837645)
(0 0 0.00830114)
(0 0 0.0082246)
(0 0 0.00814684)
(0 0 0.00806788)
(0 0 0.00798775)
(0 0 0.00790647)
(0 0 0.00782405)
(0 0 0.00774052)
(0 0 0.0076559)
(0 0 0.0075702)
(0 0 0.00748346)
(0 0 0.00739569)
(0 0 0.00730691)
(0 0 0.00721715)
(0 0 0.00712642)
(0 0 0.00703475)
(0 0 0.00694217)
(0 0 0.00684868)
(0 0 0.00675431)
(0 0 0.00665909)
(0 0 0.00656303)
(0 0 0.00646616)
(0 0 0.00636849)
(0 0 0.00627005)
(0 0 0.00617086)
(0 0 0.00607095)
(0 0 0.00597032)
(0 0 0.005869)
(0 0 0.00576701)
(0 0 0.00566437)
(0 0 0.0055611)
(0 0 0.00545722)
(0 0 0.00535274)
(0 0 0.0052477)
(0 0 0.0051421)
(0 0 0.00503596)
(0 0 0.0049293)
(0 0 0.00482215)
(0 0 0.00471451)
(0 0 0.0046064)
(0 0 0.00449784)
(0 0 0.00438885)
(0 0 0.00427945)
(0 0 0.00416964)
(0 0 0.00405945)
(0 0 0.00394889)
(0 0 0.00383797)
(0 0 0.00372671)
(0 0 0.00361512)
(0 0 0.00350322)
(0 0 0.00339103)
(0 0 0.00327854)
(0 0 0.00316578)
(0 0 0.00305277)
(0 0 0.0029395)
(0 0 0.002826)
(0 0 0.00271227)
(0 0 0.00259833)
(0 0 0.00248419)
(0 0 0.00236986)
(0 0 0.00225535)
(0 0 0.00214066)
(0 0 0.00202582)
(0 0 0.00191083)
(0 0 0.0017957)
(0 0 0.00168044)
(0 0 0.00156506)
(0 0 0.00144957)
(0 0 0.00133397)
(0 0 0.00121829)
(0 0 0.00110251)
(0 0 0.000986662)
(0 0 0.000870743)
(0 0 0.000754764)
(0 0 0.000638734)
(0 0 0.00052266)
(0 0 0.00040655)
(0 0 0.000290413)
(0 0 0.000174256)
(0 0 5.80865e-05)
(0 0 7.4605e-05)
(0 0 0.00022381)
(0 0 0.000373)
(0 0 0.000522164)
(0 0 0.000671294)
(0 0 0.000820379)
(0 0 0.000969408)
(0 0 0.00111837)
(0 0 0.00126726)
(0 0 0.00141606)
(0 0 0.00156476)
(0 0 0.00171336)
(0 0 0.00186183)
(0 0 0.00201018)
(0 0 0.00215838)
(0 0 0.00230643)
(0 0 0.00245431)
(0 0 0.00260202)
(0 0 0.00274954)
(0 0 0.00289685)
(0 0 0.00304395)
(0 0 0.00319081)
(0 0 0.00333744)
(0 0 0.00348381)
(0 0 0.00362991)
(0 0 0.00377572)
(0 0 0.00392123)
(0 0 0.00406642)
(0 0 0.00421128)
(0 0 0.0043558)
(0 0 0.00449995)
(0 0 0.00464372)
(0 0 0.00478709)
(0 0 0.00493004)
(0 0 0.00507256)
(0 0 0.00521462)
(0 0 0.00535621)
(0 0 0.00549731)
(0 0 0.0056379)
(0 0 0.00577796)
(0 0 0.00591746)
(0 0 0.00605639)
(0 0 0.00619472)
(0 0 0.00633244)
(0 0 0.00646952)
(0 0 0.00660593)
(0 0 0.00674166)
(0 0 0.00687668)
(0 0 0.00701097)
(0 0 0.0071445)
(0 0 0.00727725)
(0 0 0.00740919)
(0 0 0.0075403)
(0 0 0.00767056)
(0 0 0.00779993)
(0 0 0.00792839)
(0 0 0.00805592)
(0 0 0.00818249)
(0 0 0.00830807)
(0 0 0.00843263)
(0 0 0.00855616)
(0 0 0.00867861)
(0 0 0.00879996)
(0 0 0.00892019)
(0 0 0.00903927)
(0 0 0.00915717)
(0 0 0.00927387)
(0 0 0.00938933)
(0 0 0.00950352)
(0 0 0.00961643)
(0 0 0.00972802)
(0 0 0.00983826)
(0 0 0.00994714)
(0 0 0.0100546)
(0 0 0.0101607)
(0 0 0.0102652)
(0 0 0.0103684)
(0 0 0.01047)
(0 0 0.01057)
(0 0 0.0106686)
(0 0 0.0107655)
(0 0 0.0108608)
(0 0 0.0109545)
(0 0 0.0110465)
(0 0 0.0111368)
(0 0 0.0112255)
(0 0 0.0113124)
(0 0 0.0113975)
(0 0 0.0114809)
(0 0 0.0115625)
(0 0 0.0116422)
(0 0 0.0117202)
(0 0 0.0117962)
(0 0 0.0118704)
(0 0 0.0119426)
(0 0 0.012013)
(0 0 0.0120814)
(0 0 0.0121479)
(0 0 0.0122123)
(0 0 0.0122748)
(0 0 0.0123353)
(0 0 0.0123938)
(0 0 0.0124502)
(0 0 0.0125046)
(0 0 0.0125569)
(0 0 0.0126071)
(0 0 0.0126553)
(0 0 0.0127013)
(0 0 0.0127452)
(0 0 0.012787)
(0 0 0.0128267)
(0 0 0.0128642)
(0 0 0.0128995)
(0 0 0.0129327)
(0 0 0.0129638)
(0 0 0.0129926)
(0 0 0.0130193)
(0 0 0.0130437)
(0 0 0.013066)
(0 0 0.0130861)
(0 0 0.0131039)
(0 0 0.0131196)
(0 0 0.013133)
(0 0 0.0131442)
(0 0 0.0131532)
(0 0 0.01316)
(0 0 0.0131645)
(0 0 0.0131668)
(0 0 0.0131669)
(0 0 0.0131647)
(0 0 0.0131604)
(0 0 0.0131538)
(0 0 0.0131449)
(0 0 0.0131339)
(0 0 0.0131206)
(0 0 0.0131052)
(0 0 0.0130875)
(0 0 0.0130676)
(0 0 0.0130455)
(0 0 0.0130212)
(0 0 0.0129947)
(0 0 0.012966)
(0 0 0.0129351)
(0 0 0.0129021)
(0 0 0.0128669)
(0 0 0.0128295)
(0 0 0.01279)
(0 0 0.0127483)
(0 0 0.0127046)
(0 0 0.0126587)
(0 0 0.0126107)
(0 0 0.0125606)
(0 0 0.0125084)
(0 0 0.0124542)
(0 0 0.0123979)
(0 0 0.0123396)
(0 0 0.0122793)
(0 0 0.0122169)
(0 0 0.0121525)
(0 0 0.0120862)
(0 0 0.0120179)
(0 0 0.0119477)
(0 0 0.0118755)
(0 0 0.0118015)
(0 0 0.0117255)
(0 0 0.0116477)
(0 0 0.0115681)
(0 0 0.0114866)
(0 0 0.0114033)
(0 0 0.0113183)
(0 0 0.0112315)
(0 0 0.0111429)
(0 0 0.0110527)
(0 0 0.0109607)
(0 0 0.0108671)
(0 0 0.0107719)
(0 0 0.010675)
(0 0 0.0105766)
(0 0 0.0104766)
(0 0 0.010375)
(0 0 0.010272)
(0 0 0.0101674)
(0 0 0.0100614)
(0 0 0.00995397)
(0 0 0.00984513)
(0 0 0.00973492)
(0 0 0.00962336)
(0 0 0.00951047)
(0 0 0.00939629)
(0 0 0.00928085)
(0 0 0.00916416)
(0 0 0.00904627)
(0 0 0.00892719)
(0 0 0.00880695)
(0 0 0.00868559)
(0 0 0.00856312)
(0 0 0.00843958)
(0 0 0.00831499)
(0 0 0.00818939)
(0 0 0.00806279)
(0 0 0.00793522)
(0 0 0.00780672)
(0 0 0.00767731)
(0 0 0.007547)
(0 0 0.00741584)
(0 0 0.00728384)
(0 0 0.00715103)
(0 0 0.00701744)
(0 0 0.00688309)
(0 0 0.00674799)
(0 0 0.00661219)
(0 0 0.0064757)
(0 0 0.00633854)
(0 0 0.00620073)
(0 0 0.00606231)
(0 0 0.00592329)
(0 0 0.00578369)
(0 0 0.00564353)
(0 0 0.00550284)
(0 0 0.00536163)
(0 0 0.00521993)
(0 0 0.00507775)
(0 0 0.00493512)
(0 0 0.00479205)
(0 0 0.00464855)
(0 0 0.00450466)
(0 0 0.00436038)
(0 0 0.00421574)
(0 0 0.00407074)
(0 0 0.00392541)
(0 0 0.00377976)
(0 0 0.00363381)
(0 0 0.00348757)
(0 0 0.00334106)
(0 0 0.00319429)
(0 0 0.00304727)
(0 0 0.00290002)
(0 0 0.00275256)
(0 0 0.00260489)
(0 0 0.00245703)
(0 0 0.00230899)
(0 0 0.00216078)
(0 0 0.00201242)
(0 0 0.00186391)
(0 0 0.00171527)
(0 0 0.00156651)
(0 0 0.00141765)
(0 0 0.00126868)
(0 0 0.00111963)
(0 0 0.0009705)
(0 0 0.000821304)
(0 0 0.000672052)
(0 0 0.000522755)
(0 0 0.000373422)
(0 0 0.000224063)
(0 0 7.46894e-05)
(0 0 9.11941e-05)
(0 0 0.000273576)
(0 0 0.00045594)
(0 0 0.000638273)
(0 0 0.000820564)
(0 0 0.0010028)
(0 0 0.00118497)
(0 0 0.00136705)
(0 0 0.00154905)
(0 0 0.00173094)
(0 0 0.00191271)
(0 0 0.00209435)
(0 0 0.00227584)
(0 0 0.00245717)
(0 0 0.00263833)
(0 0 0.00281931)
(0 0 0.00300008)
(0 0 0.00318064)
(0 0 0.00336096)
(0 0 0.00354104)
(0 0 0.00372085)
(0 0 0.00390038)
(0 0 0.00407962)
(0 0 0.00425854)
(0 0 0.00443714)
(0 0 0.00461538)
(0 0 0.00479326)
(0 0 0.00497075)
(0 0 0.00514784)
(0 0 0.0053245)
(0 0 0.00550072)
(0 0 0.00567647)
(0 0 0.00585174)
(0 0 0.00602649)
(0 0 0.00620072)
(0 0 0.00637439)
(0 0 0.00654749)
(0 0 0.00671999)
(0 0 0.00689186)
(0 0 0.00706308)
(0 0 0.00723363)
(0 0 0.00740347)
(0 0 0.00757259)
(0 0 0.00774096)
(0 0 0.00790854)
(0 0 0.00807532)
(0 0 0.00824126)
(0 0 0.00840633)
(0 0 0.00857051)
(0 0 0.00873376)
(0 0 0.00889606)
(0 0 0.00905738)
(0 0 0.00921768)
(0 0 0.00937693)
(0 0 0.0095351)
(0 0 0.00969217)
(0 0 0.00984809)
(0 0 0.0100028)
(0 0 0.0101564)
(0 0 0.0103087)
(0 0 0.0104597)
(0 0 0.0106094)
(0 0 0.0107578)
(0 0 0.0109048)
(0 0 0.0110504)
(0 0 0.0111946)
(0 0 0.0113372)
(0 0 0.0114784)
(0 0 0.011618)
(0 0 0.0117561)
(0 0 0.0118925)
(0 0 0.0120273)
(0 0 0.0121605)
(0 0 0.0122919)
(0 0 0.0124215)
(0 0 0.0125494)
(0 0 0.0126755)
(0 0 0.0127998)
(0 0 0.0129221)
(0 0 0.0130426)
(0 0 0.0131611)
(0 0 0.0132776)
(0 0 0.0133922)
(0 0 0.0135047)
(0 0 0.0136152)
(0 0 0.0137236)
(0 0 0.0138298)
(0 0 0.0139339)
(0 0 0.0140359)
(0 0 0.0141356)
(0 0 0.0142332)
(0 0 0.0143284)
(0 0 0.0144214)
(0 0 0.0145121)
(0 0 0.0146005)
(0 0 0.0146865)
(0 0 0.0147702)
(0 0 0.0148514)
(0 0 0.0149303)
(0 0 0.0150067)
(0 0 0.0150806)
(0 0 0.0151521)
(0 0 0.0152211)
(0 0 0.0152876)
(0 0 0.0153515)
(0 0 0.015413)
(0 0 0.0154718)
(0 0 0.0155281)
(0 0 0.0155818)
(0 0 0.0156329)
(0 0 0.0156814)
(0 0 0.0157273)
(0 0 0.0157705)
(0 0 0.0158111)
(0 0 0.015849)
(0 0 0.0158843)
(0 0 0.0159169)
(0 0 0.0159468)
(0 0 0.0159741)
(0 0 0.0159986)
(0 0 0.0160204)
(0 0 0.0160395)
(0 0 0.016056)
(0 0 0.0160697)
(0 0 0.0160807)
(0 0 0.0160889)
(0 0 0.0160945)
(0 0 0.0160973)
(0 0 0.0160974)
(0 0 0.0160948)
(0 0 0.0160894)
(0 0 0.0160814)
(0 0 0.0160706)
(0 0 0.0160571)
(0 0 0.0160409)
(0 0 0.0160219)
(0 0 0.0160003)
(0 0 0.015976)
(0 0 0.0159489)
(0 0 0.0159192)
(0 0 0.0158868)
(0 0 0.0158517)
(0 0 0.015814)
(0 0 0.0157736)
(0 0 0.0157306)
(0 0 0.0156849)
(0 0 0.0156366)
(0 0 0.0155857)
(0 0 0.0155321)
(0 0 0.015476)
(0 0 0.0154173)
(0 0 0.0153561)
(0 0 0.0152923)
(0 0 0.015226)
(0 0 0.0151572)
(0 0 0.0150859)
(0 0 0.0150121)
(0 0 0.0149358)
(0 0 0.0148571)
(0 0 0.014776)
(0 0 0.0146925)
(0 0 0.0146067)
(0 0 0.0145184)
(0 0 0.0144279)
(0 0 0.014335)
(0 0 0.0142399)
(0 0 0.0141425)
(0 0 0.0140429)
(0 0 0.0139411)
(0 0 0.0138371)
(0 0 0.0137309)
(0 0 0.0136226)
(0 0 0.0135123)
(0 0 0.0133998)
(0 0 0.0132854)
(0 0 0.0131689)
(0 0 0.0130505)
(0 0 0.0129301)
(0 0 0.0128078)
(0 0 0.0126837)
(0 0 0.0125576)
(0 0 0.0124298)
(0 0 0.0123002)
(0 0 0.0121688)
(0 0 0.0120358)
(0 0 0.011901)
(0 0 0.0117646)
(0 0 0.0116266)
(0 0 0.0114869)
(0 0 0.0113458)
(0 0 0.0112031)
(0 0 0.011059)
(0 0 0.0109134)
(0 0 0.0107664)
(0 0 0.010618)
(0 0 0.0104682)
(0 0 0.0103172)
(0 0 0.0101648)
(0 0 0.0100113)
(0 0 0.00985649)
(0 0 0.00970053)
(0 0 0.00954341)
(0 0 0.00938519)
(0 0 0.00922587)
(0 0 0.00906551)
(0 0 0.00890413)
(0 0 0.00874176)
(0 0 0.00857843)
(0 0 0.00841417)
(0 0 0.008249)
(0 0 0.00808297)
(0 0 0.0079161)
(0 0 0.00774842)
(0 0 0.00757994)
(0 0 0.00741071)
(0 0 0.00724075)
(0 0 0.00707009)
(0 0 0.00689874)
(0 0 0.00672674)
(0 0 0.00655412)
(0 0 0.00638089)
(0 0 0.00620707)
(0 0 0.00603271)
(0 0 0.0058578)
(0 0 0.00568239)
(0 0 0.00550648)
(0 0 0.00533011)
(0 0 0.00515329)
(0 0 0.00497604)
(0 0 0.00479838)
(0 0 0.00462033)
(0 0 0.00444191)
(0 0 0.00426315)
(0 0 0.00408405)
(0 0 0.00390463)
(0 0 0.00372491)
(0 0 0.00354492)
(0 0 0.00336465)
(0 0 0.00318414)
(0 0 0.0030034)
(0 0 0.00282243)
(0 0 0.00264127)
(0 0 0.00245991)
(0 0 0.00227838)
(0 0 0.00209669)
(0 0 0.00191485)
(0 0 0.00173288)
(0 0 0.00155079)
(0 0 0.00136859)
(0 0 0.0011863)
(0 0 0.00100393)
(0 0 0.00082149)
(0 0 0.000638995)
(0 0 0.000456456)
(0 0 0.000273886)
(0 0 9.12974e-05)
(0 0 0.000107789)
(0 0 0.000323361)
(0 0 0.000538911)
(0 0 0.000754425)
(0 0 0.000969888)
(0 0 0.00118529)
(0 0 0.00140061)
(0 0 0.00161583)
(0 0 0.00183095)
(0 0 0.00204594)
(0 0 0.00226079)
(0 0 0.00247548)
(0 0 0.00269001)
(0 0 0.00290434)
(0 0 0.00311848)
(0 0 0.00333239)
(0 0 0.00354606)
(0 0 0.00375948)
(0 0 0.00397263)
(0 0 0.00418549)
(0 0 0.00439803)
(0 0 0.00461025)
(0 0 0.00482211)
(0 0 0.00503361)
(0 0 0.00524472)
(0 0 0.00545541)
(0 0 0.00566568)
(0 0 0.00587549)
(0 0 0.00608482)
(0 0 0.00629365)
(0 0 0.00650195)
(0 0 0.00670971)
(0 0 0.0069169)
(0 0 0.00712348)
(0 0 0.00732944)
(0 0 0.00753474)
(0 0 0.00773937)
(0 0 0.00794329)
(0 0 0.00814646)
(0 0 0.00834888)
(0 0 0.00855049)
(0 0 0.00875128)
(0 0 0.00895121)
(0 0 0.00915026)
(0 0 0.00934838)
(0 0 0.00954554)
(0 0 0.00974172)
(0 0 0.00993687)
(0 0 0.010131)
(0 0 0.010324)
(0 0 0.0105159)
(0 0 0.0107066)
(0 0 0.0108961)
(0 0 0.0110844)
(0 0 0.0112714)
(0 0 0.0114571)
(0 0 0.0116414)
(0 0 0.0118244)
(0 0 0.0120059)
(0 0 0.012186)
(0 0 0.0123646)
(0 0 0.0125416)
(0 0 0.012717)
(0 0 0.0128908)
(0 0 0.013063)
(0 0 0.0132334)
(0 0 0.0134021)
(0 0 0.0135691)
(0 0 0.0137342)
(0 0 0.0138974)
(0 0 0.0140587)
(0 0 0.0142181)
(0 0 0.0143755)
(0 0 0.0145309)
(0 0 0.0146842)
(0 0 0.0148354)
(0 0 0.0149845)
(0 0 0.0151314)
(0 0 0.0152761)
(0 0 0.0154185)
(0 0 0.0155587)
(0 0 0.0156965)
(0 0 0.0158319)
(0 0 0.015965)
(0 0 0.0160956)
(0 0 0.0162238)
(0 0 0.0163494)
(0 0 0.0164725)
(0 0 0.0165931)
(0 0 0.016711)
(0 0 0.0168263)
(0 0 0.016939)
(0 0 0.0170489)
(0 0 0.0171562)
(0 0 0.0172607)
(0 0 0.0173624)
(0 0 0.0174613)
(0 0 0.0175574)
(0 0 0.0176506)
(0 0 0.017741)
(0 0 0.0178284)
(0 0 0.0179129)
(0 0 0.0179945)
(0 0 0.0180731)
(0 0 0.0181487)
(0 0 0.0182214)
(0 0 0.018291)
(0 0 0.0183575)
(0 0 0.018421)
(0 0 0.0184814)
(0 0 0.0185388)
(0 0 0.018593)
(0 0 0.0186441)
(0 0 0.0186921)
(0 0 0.018737)
(0 0 0.0187787)
(0 0 0.0188172)
(0 0 0.0188526)
(0 0 0.0188848)
(0 0 0.0189138)
(0 0 0.0189396)
(0 0 0.0189622)
(0 0 0.0189817)
(0 0 0.0189979)
(0 0 0.0190108)
(0 0 0.0190206)
(0 0 0.0190272)
(0 0 0.0190305)
(0 0 0.0190306)
(0 0 0.0190275)
(0 0 0.0190212)
(0 0 0.0190117)
(0 0 0.0189989)
(0 0 0.018983)
(0 0 0.0189638)
(0 0 0.0189414)
(0 0 0.0189158)
(0 0 0.0188871)
(0 0 0.0188551)
(0 0 0.01882)
(0 0 0.0187817)
(0 0 0.0187402)
(0 0 0.0186956)
(0 0 0.0186478)
(0 0 0.0185969)
(0 0 0.0185429)
(0 0 0.0184858)
(0 0 0.0184256)
(0 0 0.0183623)
(0 0 0.0182959)
(0 0 0.0182266)
(0 0 0.0181541)
(0 0 0.0180787)
(0 0 0.0180003)
(0 0 0.0179189)
(0 0 0.0178346)
(0 0 0.0177474)
(0 0 0.0176572)
(0 0 0.0175641)
(0 0 0.0174682)
(0 0 0.0173695)
(0 0 0.017268)
(0 0 0.0171637)
(0 0 0.0170566)
(0 0 0.0169468)
(0 0 0.0168343)
(0 0 0.0167191)
(0 0 0.0166013)
(0 0 0.0164809)
(0 0 0.016358)
(0 0 0.0162325)
(0 0 0.0161044)
(0 0 0.0159739)
(0 0 0.015841)
(0 0 0.0157057)
(0 0 0.0155679)
(0 0 0.0154279)
(0 0 0.0152856)
(0 0 0.015141)
(0 0 0.0149941)
(0 0 0.0148451)
(0 0 0.014694)
(0 0 0.0145407)
(0 0 0.0143854)
(0 0 0.0142281)
(0 0 0.0140687)
(0 0 0.0139074)
(0 0 0.0137442)
(0 0 0.0135791)
(0 0 0.0134122)
(0 0 0.0132435)
(0 0 0.0130731)
(0 0 0.012901)
(0 0 0.0127271)
(0 0 0.0125517)
(0 0 0.0123746)
(0 0 0.0121961)
(0 0 0.012016)
(0 0 0.0118344)
(0 0 0.0116514)