/*--------------------------------*- C++ -*----------------------------------*\
| =========                 |                                                 |
| \\      /  F ield         | OpenFOAM: The Open Source CFD Toolbox           |
|  \\    /   O peration     | Version:  v2012                                 |
|   \\  /    A nd           | Website:  www.openfoam.com                      |
|    \\/     M anipulation  |                                                 |
\*---------------------------------------------------------------------------*/
FoamFile
{
    version     2.0;
    format      ascii;
    class       volVectorField;
    location    "2e-06";
    object      U;
}
// * * * * * * * * * * * * * * * * * * * * * * * * * * * * * * * * * * * * * //

dimensions      [0 1 -1 0 0 0 0];


internalField   nonuniform List<vector> 
65536
(
(0.000674909 -0.000674911 0)
(0.00202466 -0.000674841 0)
(0.00337427 -0.000674745 0)
(0.00472363 -0.000674609 0)
(0.00607268 -0.00067443 0)
(0.00742133 -0.000674201 0)
(0.00876949 -0.000673934 0)
(0.0101171 -0.00067361 0)
(0.0114639 -0.000673223 0)
(0.01281 -0.000672815 0)
(0.0141552 -0.000672367 0)
(0.0154994 -0.000671837 0)
(0.0168425 -0.000671266 0)
(0.0181845 -0.000670655 0)
(0.0195251 -0.000669982 0)
(0.0208644 -0.000669248 0)
(0.0222022 -0.000668474 0)
(0.0235383 -0.000667659 0)
(0.0248728 -0.000666762 0)
(0.0262054 -0.000665804 0)
(0.027536 -0.000664785 0)
(0.0288644 -0.000663725 0)
(0.0301909 -0.000662604 0)
(0.0315149 -0.000661401 0)
(0.0328365 -0.000660117 0)
(0.0341554 -0.000658792 0)
(0.0354718 -0.000657406 0)
(0.0367852 -0.000655939 0)
(0.0380956 -0.00065439 0)
(0.0394028 -0.00065278 0)
(0.0407067 -0.000651088 0)
(0.0420071 -0.000649315 0)
(0.0433039 -0.00064748 0)
(0.044597 -0.000645524 0)
(0.0458862 -0.000643526 0)
(0.0471711 -0.000641427 0)
(0.0484519 -0.000639225 0)
(0.0497281 -0.000636963 0)
(0.0509997 -0.000634599 0)
(0.0522666 -0.000632153 0)
(0.0535284 -0.000629585 0)
(0.054785 -0.000626935 0)
(0.0560362 -0.000624204 0)
(0.0572817 -0.00062135 0)
(0.0585217 -0.000618395 0)
(0.0597555 -0.000615338 0)
(0.060983 -0.000612199 0)
(0.0622043 -0.000608938 0)
(0.0634188 -0.000605534 0)
(0.0646265 -0.000602069 0)
(0.0658272 -0.000598482 0)
(0.0670205 -0.000594752 0)
(0.0682064 -0.000590961 0)
(0.0693845 -0.000587027 0)
(0.0705544 -0.00058295 0)
(0.0717162 -0.000578772 0)
(0.0728697 -0.000574492 0)
(0.0740144 -0.000570089 0)
(0.0751501 -0.000565544 0)
(0.0762766 -0.000560897 0)
(0.0773938 -0.000556127 0)
(0.0785012 -0.000551215 0)
(0.0795988 -0.000546201 0)
(0.0806861 -0.000541045 0)
(0.0817631 -0.000535806 0)
(0.0828292 -0.000530344 0)
(0.0838846 -0.000524841 0)
(0.0849288 -0.000519338 0)
(0.0859616 -0.000513427 0)
(0.0869827 -0.000507516 0)
(0.0879918 -0.000501605 0)
(0.0889889 -0.000495287 0)
(0.0899734 -0.000488968 0)
(0.0909452 -0.00048265 0)
(0.0919042 -0.000476331 0)
(0.0928503 -0.000469605 0)
(0.0937826 -0.000462675 0)
(0.0947017 -0.000455949 0)
(0.0956066 -0.000449019 0)
(0.0964975 -0.000441885 0)
(0.0973742 -0.000434548 0)
(0.0982361 -0.000427414 0)
(0.0990836 -0.000419873 0)
(0.0999156 -0.000412127 0)
(0.100733 -0.00040479 0)
(0.101534 -0.000397045 0)
(0.10232 -0.000388892 0)
(0.10309 -0.000380943 0)
(0.103844 -0.000372994 0)
(0.104582 -0.000364637 0)
(0.105303 -0.000356484 0)
(0.106008 -0.000348127 0)
(0.106696 -0.000339567 0)
(0.107367 -0.00033121 0)
(0.10802 -0.000322446 0)
(0.108657 -0.000313682 0)
(0.109275 -0.000304917 0)
(0.109876 -0.000295949 0)
(0.110459 -0.000287185 0)
(0.111025 -0.000278013 0)
(0.111572 -0.000268841 0)
(0.1121 -0.000259873 0)
(0.112611 -0.000250497 0)
(0.113103 -0.000241121 0)
(0.113576 -0.000231949 0)
(0.11403 -0.000222573 0)
(0.114466 -0.000212994 0)
(0.114882 -0.000203414 0)
(0.115279 -0.000193834 0)
(0.115658 -0.000184255 0)
(0.116016 -0.000174471 0)
(0.116355 -0.000164688 0)
(0.116675 -0.000154904 0)
(0.116976 -0.000145325 0)
(0.117256 -0.000135541 0)
(0.117517 -0.000125554 0)
(0.117759 -0.000115567 0)
(0.11798 -0.00010558 0)
(0.118181 -9.57962e-05 0)
(0.118363 -8.58089e-05 0)
(0.118525 -7.58217e-05 0)
(0.118666 -6.58344e-05 0)
(0.118788 -5.56433e-05 0)
(0.118889 -4.56561e-05 0)
(0.11897 -3.56688e-05 0)
(0.119032 -2.56815e-05 0)
(0.119073 -1.54904e-05 0)
(0.119094 -5.50318e-06 0)
(0.119095 4.48408e-06 0)
(0.119075 1.4879e-05 0)
(0.119036 2.48662e-05 0)
(0.118976 3.46497e-05 0)
(0.118897 4.48408e-05 0)
(0.118797 5.50318e-05 0)
(0.118677 6.48153e-05 0)
(0.118537 7.50064e-05 0)
(0.118377 8.49936e-05 0)
(0.118197 9.47771e-05 0)
(0.117998 0.000104968 0)
(0.117778 0.000114955 0)
(0.117538 0.000124739 0)
(0.117279 0.000134522 0)
(0.117 0.000144306 0)
(0.116701 0.000154293 0)
(0.116383 0.000164076 0)
(0.116045 0.000173656 0)
(0.115688 0.000183439 0)
(0.115311 0.000193019 0)
(0.114916 0.000202599 0)
(0.114501 0.000212382 0)
(0.114067 0.000221758 0)
(0.113614 0.000231134 0)
(0.113142 0.00024051 0)
(0.112652 0.000249682 0)
(0.112143 0.000259057 0)
(0.111615 0.000268433 0)
(0.11107 0.000277401 0)
(0.110506 0.000286369 0)
(0.109924 0.000295338 0)
(0.109324 0.000304306 0)
(0.108706 0.000313274 0)
(0.108072 0.000321834 0)
(0.107419 0.000330395 0)
(0.10675 0.000338955 0)
(0.106063 0.000347516 0)
(0.105359 0.000356076 0)
(0.104639 0.000364229 0)
(0.103902 0.000372382 0)
(0.103149 0.000380535 0)
(0.10238 0.000388484 0)
(0.101595 0.000396433 0)
(0.100794 0.000404178 0)
(0.0999784 0.000411924 0)
(0.0991468 0.000419465 0)
(0.0983003 0.000426803 0)
(0.0974392 0.000434344 0)
(0.0965632 0.000441682 0)
(0.0956729 0.000448611 0)
(0.0947685 0.000455541 0)
(0.0938503 0.000462471 0)
(0.0929184 0.000469401 0)
(0.0919729 0.000475924 0)
(0.0910145 0.000482446 0)
(0.0900429 0.000488968 0)
(0.0890586 0.000495083 0)
(0.088062 0.000501401 0)
(0.087053 0.000507516 0)
(0.0860321 0.000513223 0)
(0.0849997 0.000519134 0)
(0.0839556 0.000524841 0)
(0.0829004 0.000530344 0)
(0.0818342 0.000535786 0)
(0.0807573 0.000541024 0)
(0.0796699 0.000546222 0)
(0.0785723 0.000551276 0)
(0.0774646 0.000556189 0)
(0.0763474 0.000560978 0)
(0.0752207 0.000565666 0)
(0.0740847 0.000570211 0)
(0.0729398 0.000574655 0)
(0.071786 0.000578976 0)
(0.0706239 0.000583154 0)
(0.0694534 0.000587231 0)
(0.0682748 0.000591185 0)
(0.0670886 0.000595017 0)
(0.0658947 0.000598746 0)
(0.0646933 0.000602375 0)
(0.0634851 0.00060588 0)
(0.0622698 0.000609264 0)
(0.0610479 0.000612545 0)
(0.0598196 0.000615725 0)
(0.058585 0.000618803 0)
(0.0573444 0.000621778 0)
(0.0560978 0.000624632 0)
(0.0548458 0.000627383 0)
(0.0535881 0.000630074 0)
(0.0523255 0.000632642 0)
(0.0510577 0.000635108 0)
(0.0497848 0.000637493 0)
(0.0485076 0.000639776 0)
(0.0472257 0.000641997 0)
(0.0459396 0.000644117 0)
(0.0446493 0.000646115 0)
(0.043355 0.000648071 0)
(0.042057 0.000649946 0)
(0.0407553 0.00065172 0)
(0.03945 0.000653432 0)
(0.0381415 0.000655062 0)
(0.0368297 0.000656611 0)
(0.0355149 0.000658099 0)
(0.0341974 0.000659506 0)
(0.0328769 0.000660851 0)
(0.031554 0.000662135 0)
(0.0302284 0.000663317 0)
(0.0289005 0.000664459 0)
(0.0275705 0.000665559 0)
(0.0262383 0.000666578 0)
(0.0249042 0.000667536 0)
(0.0235682 0.000668454 0)
(0.0222304 0.000669289 0)
(0.020891 0.000670064 0)
(0.0195501 0.000670797 0)
(0.0182078 0.00067147 0)
(0.0168642 0.000672102 0)
(0.0155194 0.000672673 0)
(0.0141735 0.000673203 0)
(0.0128266 0.000673671 0)
(0.0114788 0.000674099 0)
(0.0101302 0.000674466 0)
(0.00878096 0.000674786 0)
(0.00743108 0.000675084 0)
(0.00608067 0.000675304 0)
(0.00472985 0.000675485 0)
(0.0033787 0.000675632 0)
(0.00202733 0.000675724 0)
(0.000675793 0.00067577 0)
(0.000674922 -0.00202465 0)
(0.00202474 -0.00202452 0)
(0.00337441 -0.00202422 0)
(0.00472385 -0.00202381 0)
(0.00607297 -0.00202328 0)
(0.00742169 -0.0020226 0)
(0.00876992 -0.00202179 0)
(0.0101175 -0.00202081 0)
(0.0114645 -0.00201971 0)
(0.0128106 -0.00201847 0)
(0.0141559 -0.00201706 0)
(0.0155002 -0.00201551 0)
(0.0168435 -0.0020138 0)
(0.0181855 -0.00201194 0)
(0.0195261 -0.00200995 0)
(0.0208655 -0.00200779 0)
(0.0222034 -0.00200544 0)
(0.0235397 -0.00200294 0)
(0.0248742 -0.00200029 0)
(0.0262069 -0.00199747 0)
(0.0275376 -0.00199429 0)
(0.0288662 -0.00199113 0)
(0.0301927 -0.00198787 0)
(0.0315169 -0.0019842 0)
(0.0328385 -0.00198033 0)
(0.0341577 -0.00197646 0)
(0.0354741 -0.00197238 0)
(0.0367875 -0.0019679 0)
(0.038098 -0.00196321 0)
(0.0394053 -0.00195832 0)
(0.0407095 -0.00195322 0)
(0.04201 -0.00194792 0)
(0.043307 -0.00194242 0)
(0.0446003 -0.00193671 0)
(0.0458894 -0.0019306 0)
(0.0471747 -0.00192428 0)
(0.0484555 -0.00191776 0)
(0.049732 -0.00191083 0)
(0.0510037 -0.0019039 0)
(0.0522707 -0.00189656 0)
(0.0535326 -0.00188882 0)
(0.0547895 -0.00188087 0)
(0.0560409 -0.00187251 0)
(0.0572867 -0.00186415 0)
(0.0585266 -0.00185539 0)
(0.0597607 -0.00184601 0)
(0.0609885 -0.00183664 0)
(0.0622099 -0.00182685 0)
(0.0634247 -0.00181666 0)
(0.0646327 -0.00180627 0)
(0.0658335 -0.00179546 0)
(0.0670269 -0.00178446 0)
(0.0682131 -0.00177304 0)
(0.0693912 -0.00176102 0)
(0.0705615 -0.00174879 0)
(0.0717237 -0.00173656 0)
(0.0728772 -0.00172372 0)
(0.0740221 -0.00171027 0)
(0.0751582 -0.00169661 0)
(0.076285 -0.00168275 0)
(0.0774023 -0.00166848 0)
(0.07851 -0.00165381 0)
(0.0796077 -0.00163873 0)
(0.0806952 -0.00162324 0)
(0.0817724 -0.00160734 0)
(0.0828388 -0.00159124 0)
(0.0838946 -0.00157473 0)
(0.0849388 -0.00155761 0)
(0.0859718 -0.00154048 0)
(0.0869933 -0.00152275 0)
(0.0880026 -0.00150461 0)
(0.0889997 -0.00148627 0)
(0.0899848 -0.00146731 0)
(0.0909568 -0.00144815 0)
(0.0919162 -0.00142879 0)
(0.0928622 -0.00140882 0)
(0.0937951 -0.00138864 0)
(0.0947141 -0.00136805 0)
(0.0956195 -0.00134685 0)
(0.0965106 -0.00132566 0)
(0.0973872 -0.00130405 0)
(0.0982496 -0.00128204 0)
(0.0990969 -0.00125962 0)
(0.0999295 -0.00123679 0)
(0.100747 -0.00121396 0)
(0.101548 -0.00119073 0)
(0.102334 -0.00116708 0)
(0.103105 -0.00114303 0)
(0.103859 -0.00111878 0)
(0.104597 -0.00109432 0)
(0.105319 -0.00106945 0)
(0.106023 -0.00104438 0)
(0.106711 -0.00101911 0)
(0.107382 -0.000993427 0)
(0.108036 -0.000967338 0)
(0.108672 -0.000941248 0)
(0.109291 -0.000914752 0)
(0.109892 -0.000888051 0)
(0.110476 -0.00086135 0)
(0.111041 -0.000834242 0)
(0.111588 -0.00080693 0)
(0.112117 -0.000779414 0)
(0.112628 -0.000751694 0)
(0.11312 -0.000723771 0)
(0.113593 -0.000695643 0)
(0.114047 -0.000667312 0)
(0.114483 -0.000638777 0)
(0.114899 -0.000610242 0)
(0.115297 -0.000581707 0)
(0.115675 -0.000552764 0)
(0.116034 -0.000523414 0)
(0.116373 -0.000494471 0)
(0.116693 -0.000465325 0)
(0.116994 -0.000435567 0)
(0.117274 -0.000406217 0)
(0.117535 -0.000376662 0)
(0.117777 -0.000346904 0)
(0.117998 -0.000317146 0)
(0.1182 -0.000287389 0)
(0.118381 -0.000257427 0)
(0.118543 -0.000227261 0)
(0.118685 -0.000197299 0)
(0.118806 -0.000167338 0)
(0.118908 -0.000137172 0)
(0.118989 -0.000107006 0)
(0.11905 -7.68408e-05 0)
(0.119091 -4.64713e-05 0)
(0.119113 -1.63057e-05 0)
(0.119113 1.38599e-05 0)
(0.119094 4.40255e-05 0)
(0.119055 7.41911e-05 0)
(0.118995 0.000104357 0)
(0.118915 0.000134522 0)
(0.118816 0.000164688 0)
(0.118696 0.000194854 0)
(0.118556 0.000225019 0)
(0.118396 0.000254981 0)
(0.118216 0.000284739 0)
(0.118016 0.000314701 0)
(0.117796 0.000344459 0)
(0.117556 0.000374217 0)
(0.117297 0.000403975 0)
(0.117018 0.000433325 0)
(0.116719 0.000462675 0)
(0.116401 0.000492025 0)
(0.116063 0.000521172 0)
(0.115705 0.000550318 0)
(0.115329 0.000579261 0)
(0.114933 0.000608 0)
(0.114518 0.000636739 0)
(0.114084 0.00066507 0)
(0.113631 0.000693401 0)
(0.113159 0.000721732 0)
(0.112669 0.000749656 0)
(0.11216 0.000777172 0)
(0.111632 0.000804688 0)
(0.111086 0.000832204 0)
(0.110522 0.000859312 0)
(0.10994 0.000886217 0)
(0.10934 0.000913121 0)
(0.108723 0.000939414 0)
(0.108087 0.000965503 0)
(0.107435 0.000991592 0)
(0.106765 0.00101727 0)
(0.106078 0.00104275 0)
(0.105374 0.00106782 0)
(0.104654 0.00109269 0)
(0.103917 0.00111735 0)
(0.103164 0.00114161 0)
(0.102395 0.00116566 0)
(0.101609 0.0011893 0)
(0.100809 0.00121254 0)
(0.0999923 0.00123577 0)
(0.0991607 0.0012586 0)
(0.098314 0.00128082 0)
(0.0974522 0.00130283 0)
(0.0965764 0.00132464 0)
(0.0956859 0.00134604 0)
(0.0947814 0.00136703 0)
(0.0938627 0.00138762 0)
(0.0929304 0.001408 0)
(0.0919849 0.00142797 0)
(0.0910259 0.00144754 0)
(0.0900543 0.0014669 0)
(0.0890699 0.00148586 0)
(0.0880728 0.0015042 0)
(0.0870638 0.00152234 0)
(0.0860427 0.00154008 0)
(0.0850099 0.0015574 0)
(0.0839658 0.00157452 0)
(0.0829102 0.00159103 0)
(0.0818438 0.00160734 0)
(0.0807667 0.00162324 0)
(0.0796791 0.00163873 0)
(0.0785811 0.00165401 0)
(0.0774734 0.00166869 0)
(0.076356 0.00168296 0)
(0.0752288 0.00169702 0)
(0.0740928 0.00171068 0)
(0.0729476 0.00172413 0)
(0.0717935 0.00173697 0)
(0.0706311 0.0017494 0)
(0.0694604 0.00176183 0)
(0.0682816 0.00177366 0)
(0.0670952 0.00178507 0)
(0.065901 0.00179648 0)
(0.0646996 0.00180729 0)
(0.0634911 0.00181768 0)
(0.0622756 0.00182787 0)
(0.0610537 0.00183766 0)
(0.059825 0.00184724 0)
(0.0585903 0.00185641 0)
(0.0573493 0.00186538 0)
(0.0561027 0.00187394 0)
(0.0548504 0.00188229 0)
(0.0535927 0.00189024 0)
(0.0523298 0.00189778 0)
(0.0510618 0.00190553 0)
(0.049789 0.00191266 0)
(0.0485113 0.00191939 0)
(0.0472294 0.00192591 0)
(0.0459432 0.00193223 0)
(0.0446527 0.00193855 0)
(0.0433583 0.00194425 0)
(0.04206 0.00194976 0)
(0.0407581 0.00195526 0)
(0.0394528 0.00196036 0)
(0.0381443 0.00196525 0)
(0.0368322 0.00196994 0)
(0.0355175 0.00197422 0)
(0.0341996 0.0019785 0)
(0.0328792 0.00198257 0)
(0.0315559 0.00198645 0)
(0.0302304 0.00199011 0)
(0.0289025 0.00199338 0)
(0.0275722 0.00199664 0)
(0.02624 0.00199976 0)
(0.0249057 0.00200263 0)
(0.0235696 0.00200532 0)
(0.0222319 0.00200785 0)
(0.0208923 0.00201021 0)
(0.0195513 0.00201241 0)
(0.0182088 0.00201443 0)
(0.0168652 0.00201631 0)
(0.0155203 0.00201804 0)
(0.0141743 0.00201961 0)
(0.0128274 0.00202101 0)
(0.0114795 0.00202228 0)
(0.0101308 0.00202342 0)
(0.00878145 0.00202438 0)
(0.00743149 0.00202521 0)
(0.00608103 0.00202593 0)
(0.00473013 0.00202648 0)
(0.00337892 0.00202689 0)
(0.00202745 0.00202719 0)
(0.000675834 0.00202735 0)
(0.000675029 -0.00337457 0)
(0.00202504 -0.00337433 0)
(0.0033749 -0.00337386 0)
(0.00472457 -0.00337317 0)
(0.00607389 -0.00337227 0)
(0.00742282 -0.00337115 0)
(0.00877122 -0.00336978 0)
(0.0101191 -0.00336817 0)
(0.0114662 -0.00336632 0)
(0.0128125 -0.00336424 0)
(0.0141579 -0.00336192 0)
(0.0155025 -0.00335945 0)
(0.016846 -0.00335656 0)
(0.0181882 -0.00335327 0)
(0.0195291 -0.00335001 0)
(0.0208688 -0.00334655 0)
(0.0222068 -0.00334268 0)
(0.0235433 -0.00333839 0)
(0.0248781 -0.00333391 0)
(0.026211 -0.00332922 0)
(0.027542 -0.00332413 0)
(0.0288711 -0.00331883 0)
(0.0301976 -0.00331332 0)
(0.031522 -0.00330721 0)
(0.032844 -0.00330089 0)
(0.0341636 -0.00329437 0)
(0.0354801 -0.00328724 0)
(0.0367939 -0.0032799 0)
(0.0381047 -0.00327215 0)
(0.0394124 -0.0032642 0)
(0.0407166 -0.00325585 0)
(0.0420176 -0.00324688 0)
(0.043315 -0.00323771 0)
(0.0446086 -0.00322792 0)
(0.045898 -0.00321794 0)
(0.0471837 -0.00320754 0)
(0.0484649 -0.00319654 0)
(0.0497417 -0.00318512 0)
(0.0510139 -0.0031733 0)
(0.0522813 -0.00316107 0)
(0.0535435 -0.00314843 0)
(0.0548007 -0.00313518 0)
(0.0560526 -0.00312132 0)
(0.057299 -0.00310706 0)
(0.0585392 -0.00309238 0)
(0.0597736 -0.0030773 0)
(0.061002 -0.0030614 0)
(0.0622237 -0.0030451 0)
(0.0634391 -0.00302838 0)
(0.0646473 -0.00301085 0)
(0.0658487 -0.00299271 0)
(0.0670426 -0.00297437 0)
(0.0682291 -0.00295521 0)
(0.0694078 -0.00293544 0)
(0.0705788 -0.00291546 0)
(0.0717414 -0.00289447 0)
(0.0728952 -0.00287287 0)
(0.0740407 -0.00285106 0)
(0.0751772 -0.00282843 0)
(0.0763045 -0.00280499 0)
(0.0774223 -0.00278115 0)
(0.0785304 -0.00275669 0)
(0.0796286 -0.00273141 0)
(0.0807168 -0.00270573 0)
(0.0817944 -0.00267944 0)
(0.0828617 -0.00265254 0)
(0.0839177 -0.00262482 0)
(0.0849624 -0.00259648 0)
(0.085996 -0.00256795 0)
(0.0870178 -0.00253839 0)
(0.0880277 -0.00250803 0)
(0.0890254 -0.00247745 0)
(0.0900109 -0.00244606 0)
(0.0909835 -0.00241406 0)
(0.0919433 -0.00238166 0)
(0.0928899 -0.00234843 0)
(0.0938232 -0.0023146 0)
(0.0947426 -0.00228036 0)
(0.0956484 -0.0022455 0)
(0.0965399 -0.00220963 0)
(0.0974172 -0.00217355 0)
(0.0982799 -0.00213707 0)
(0.0991278 -0.00209977 0)
(0.0999607 -0.00206206 0)
(0.100779 -0.00202375 0)
(0.101581 -0.00198461 0)
(0.102367 -0.00194527 0)
(0.103138 -0.00190553 0)
(0.103893 -0.00186517 0)
(0.104631 -0.0018242 0)
(0.105353 -0.00178262 0)
(0.106058 -0.00174084 0)
(0.106746 -0.00169865 0)
(0.107417 -0.00165585 0)
(0.108072 -0.00161264 0)
(0.108708 -0.00156902 0)
(0.109328 -0.00152499 0)
(0.109929 -0.00148056 0)
(0.110513 -0.00143572 0)
(0.111079 -0.00139068 0)
(0.111626 -0.00134522 0)
(0.112155 -0.00129916 0)
(0.112666 -0.00125289 0)
(0.113158 -0.00120642 0)
(0.113632 -0.00115954 0)
(0.114086 -0.00111246 0)
(0.114522 -0.00106497 0)
(0.114939 -0.00101727 0)
(0.115336 -0.000969376 0)
(0.115715 -0.000921274 0)
(0.116074 -0.000872968 0)
(0.116413 -0.000824255 0)
(0.116734 -0.000775338 0)
(0.117035 -0.000726217 0)
(0.117316 -0.000677096 0)
(0.117576 -0.000627975 0)
(0.117817 -0.000578446 0)
(0.118039 -0.000528713 0)
(0.11824 -0.000478777 0)
(0.118422 -0.000428841 0)
(0.118584 -0.000379108 0)
(0.118727 -0.000329172 0)
(0.118847 -0.000278828 0)
(0.118948 -0.000228484 0)
(0.11903 -0.000178344 0)
(0.119092 -0.000128 0)
(0.119133 -7.76561e-05 0)
(0.119154 -2.73121e-05 0)
(0.119155 2.30318e-05 0)
(0.119135 7.33758e-05 0)
(0.119095 0.000123924 0)
(0.119036 0.000174064 0)
(0.118957 0.000224204 0)
(0.118857 0.000274752 0)
(0.118737 0.000324892 0)
(0.118597 0.000374828 0)
(0.118436 0.000424764 0)
(0.118257 0.000474701 0)
(0.118056 0.000524637 0)
(0.117838 0.000574369 0)
(0.117597 0.000623694 0)
(0.117337 0.000673019 0)
(0.117058 0.000722344 0)
(0.11676 0.000771465 0)
(0.116441 0.000820382 0)
(0.116103 0.000868892 0)
(0.115745 0.000917401 0)
(0.115368 0.000965503 0)
(0.114972 0.0010134 0)
(0.114557 0.0010613 0)
(0.114123 0.00110879 0)
(0.11367 0.00115587 0)
(0.113197 0.00120275 0)
(0.112707 0.00124943 0)
(0.112198 0.00129569 0)
(0.11167 0.00134176 0)
(0.111123 0.00138721 0)
(0.110559 0.00143246 0)
(0.109977 0.0014775 0)
(0.109377 0.00152173 0)
(0.108759 0.00156596 0)
(0.108123 0.00160978 0)
(0.10747 0.00165279 0)
(0.1068 0.00169559 0)
(0.106113 0.00173819 0)
(0.105409 0.00178018 0)
(0.104688 0.00182155 0)
(0.10395 0.00186252 0)
(0.103197 0.00190288 0)
(0.102427 0.00194303 0)
(0.101642 0.00198257 0)
(0.10084 0.0020213 0)
(0.100023 0.00205982 0)
(0.0991914 0.00209773 0)
(0.0983444 0.00213524 0)
(0.0974824 0.00217192 0)
(0.0966058 0.002208 0)
(0.0957149 0.00224367 0)
(0.0948099 0.00227873 0)
(0.0938909 0.00231338 0)
(0.092958 0.00234721 0)
(0.092012 0.00238043 0)
(0.0910526 0.00241304 0)
(0.0900804 0.00244504 0)
(0.0890955 0.00247664 0)
(0.0880982 0.00250741 0)
(0.0870885 0.00253758 0)
(0.086067 0.00256713 0)
(0.0850336 0.00259608 0)
(0.0839888 0.00262461 0)
(0.0829328 0.00265233 0)
(0.0818658 0.00267924 0)
(0.0807882 0.00270573 0)
(0.0797 0.00273182 0)
(0.0786018 0.00275689 0)
(0.0774936 0.00278135 0)
(0.0763754 0.00280561 0)
(0.0752479 0.00282884 0)
(0.0741112 0.00285146 0)
(0.0729655 0.00287389 0)
(0.0718113 0.00289549 0)
(0.0706483 0.00291628 0)
(0.0694771 0.00293666 0)
(0.0682978 0.00295643 0)
(0.0671107 0.00297559 0)
(0.0659161 0.00299434 0)
(0.0647146 0.00301228 0)
(0.0635055 0.00302981 0)
(0.0622895 0.00304673 0)
(0.061067 0.00306324 0)
(0.059838 0.00307913 0)
(0.0586028 0.00309442 0)
(0.0573615 0.0031093 0)
(0.0561145 0.00312357 0)
(0.0548617 0.00313743 0)
(0.0536037 0.00315068 0)
(0.0523402 0.00316352 0)
(0.0510718 0.00317595 0)
(0.0497987 0.00318797 0)
(0.0485208 0.00319939 0)
(0.0472385 0.00321019 0)
(0.0459518 0.00322079 0)
(0.044661 0.00323098 0)
(0.0433663 0.00324076 0)
(0.0420676 0.00325014 0)
(0.0407654 0.0032589 0)
(0.0394599 0.00326726 0)
(0.0381509 0.00327562 0)
(0.0368387 0.00328336 0)
(0.0355235 0.0032907 0)
(0.0342054 0.00329783 0)
(0.0328846 0.00330456 0)
(0.0315612 0.00331088 0)
(0.0302353 0.00331679 0)
(0.0289072 0.0033227 0)
(0.0275767 0.003328 0)
(0.0262441 0.0033331 0)
(0.0249097 0.00333799 0)
(0.0235733 0.00334227 0)
(0.0222351 0.00334655 0)
(0.0208955 0.00335062 0)
(0.0195543 0.00335429 0)
(0.0182116 0.00335755 0)
(0.0168676 0.00336059 0)
(0.0155227 0.00336357 0)
(0.0141764 0.00336616 0)
(0.0128291 0.00336852 0)
(0.0114812 0.00337064 0)
(0.0101323 0.00337249 0)
(0.00878274 0.00337412 0)
(0.00743254 0.00337551 0)
(0.00608188 0.00337667 0)
(0.0047308 0.00337759 0)
(0.00337938 0.0033783 0)
(0.00202772 0.00337881 0)
(0.000675928 0.00337906 0)
(0.000675176 -0.00472472 0)
(0.00202548 -0.00472439 0)
(0.00337563 -0.00472375 0)
(0.00472556 -0.00472279 0)
(0.00607521 -0.00472153 0)
(0.00742441 -0.00471994 0)
(0.00877314 -0.00471802 0)
(0.0101213 -0.00471578 0)
(0.0114687 -0.00471315 0)
(0.0128154 -0.00471022 0)
(0.0141612 -0.00470706 0)
(0.015506 -0.00470359 0)
(0.0168497 -0.00469952 0)
(0.0181923 -0.00469503 0)
(0.0195337 -0.00469055 0)
(0.0208736 -0.00468545 0)
(0.0222119 -0.00467995 0)
(0.0235487 -0.00467424 0)
(0.024884 -0.00466792 0)
(0.0262172 -0.0046614 0)
(0.0275487 -0.00465447 0)
(0.0288781 -0.00464673 0)
(0.0302051 -0.00463878 0)
(0.0315298 -0.00463062 0)
(0.0328522 -0.00462186 0)
(0.0341719 -0.00461248 0)
(0.035489 -0.0046027 0)
(0.0368035 -0.00459251 0)
(0.0381146 -0.00458171 0)
(0.0394228 -0.00457029 0)
(0.0407276 -0.00455847 0)
(0.042029 -0.00454624 0)
(0.0433268 -0.0045334 0)
(0.0446208 -0.00451975 0)
(0.045911 -0.00450568 0)
(0.0471969 -0.00449121 0)
(0.0484788 -0.00447572 0)
(0.0497561 -0.00445982 0)
(0.051029 -0.00444352 0)
(0.052297 -0.00442619 0)
(0.0535598 -0.00440825 0)
(0.0548176 -0.00438991 0)
(0.0560701 -0.00437075 0)
(0.0573169 -0.00435078 0)
(0.058558 -0.00432999 0)
(0.0597931 -0.00430879 0)
(0.061022 -0.00428678 0)
(0.0622445 -0.00426395 0)
(0.0634603 -0.00424031 0)
(0.0646691 -0.00421585 0)
(0.0658713 -0.00419078 0)
(0.0670661 -0.00416489 0)
(0.0682531 -0.00413819 0)
(0.0694329 -0.00411068 0)
(0.0706042 -0.00408234 0)
(0.0717674 -0.00405299 0)
(0.0729223 -0.00402303 0)
(0.0740684 -0.00399225 0)
(0.0752055 -0.00396046 0)
(0.0763335 -0.00392785 0)
(0.0774522 -0.00389442 0)
(0.078561 -0.00386018 0)
(0.07966 -0.00382512 0)
(0.080749 -0.00378904 0)
(0.0818275 -0.00375215 0)
(0.0828953 -0.00371445 0)
(0.0839521 -0.00367552 0)
(0.0849979 -0.00363597 0)
(0.0860321 -0.00359582 0)
(0.0870545 -0.00355445 0)
(0.0880652 -0.00351225 0)
(0.0890637 -0.00346945 0)
(0.0900498 -0.00342543 0)
(0.0910237 -0.00338059 0)
(0.0919831 -0.00333513 0)
(0.0929304 -0.00328866 0)
(0.093866 -0.00324138 0)
(0.094786 -0.00319327 0)
(0.0956926 -0.00314415 0)
(0.0965844 -0.00309442 0)
(0.0974616 -0.00304408 0)
(0.0983262 -0.00299271 0)
(0.0991747 -0.00294033 0)
(0.100007 -0.00288754 0)
(0.100826 -0.00283394 0)
(0.101628 -0.00277931 0)
(0.102417 -0.00272428 0)
(0.103186 -0.00266843 0)
(0.103942 -0.00261177 0)
(0.104682 -0.0025545 0)
(0.105403 -0.00249661 0)
(0.10611 -0.00243791 0)
(0.106799 -0.0023786 0)
(0.10747 -0.00231868 0)
(0.108125 -0.00225834 0)
(0.108762 -0.0021974 0)
(0.109383 -0.00213544 0)
(0.109985 -0.00207327 0)
(0.110568 -0.0020107 0)
(0.111134 -0.00194731 0)
(0.111683 -0.00188352 0)
(0.112212 -0.00181931 0)
(0.112723 -0.0017547 0)
(0.113215 -0.00168948 0)
(0.11369 -0.00162364 0)
(0.114145 -0.00155781 0)
(0.114581 -0.00149136 0)
(0.114998 -0.00142451 0)
(0.115396 -0.00135766 0)
(0.115773 -0.00128999 0)
(0.116134 -0.00122211 0)
(0.116474 -0.00115506 0)
(0.116793 -0.00108678 0)
(0.117095 -0.00101707 0)
(0.117376 -0.000947771 0)
(0.117636 -0.000878471 0)
(0.117879 -0.000809172 0)
(0.118099 -0.000739873 0)
(0.118302 -0.000670573 0)
(0.118483 -0.000601274 0)
(0.118646 -0.000531975 0)
(0.118786 -0.000460637 0)
(0.11891 -0.000389299 0)
(0.119011 -0.00032 0)
(0.119093 -0.000250701 0)
(0.119153 -0.000179363 0)
(0.119195 -0.000108025 0)
(0.119216 -3.87261e-05 0)
(0.119217 3.26115e-05 0)
(0.119196 0.000103949 0)
(0.119158 0.000173248 0)
(0.119098 0.000242548 0)
(0.119018 0.000313885 0)
(0.118918 0.000385223 0)
(0.118797 0.000454522 0)
(0.118658 0.00052586 0)
(0.118497 0.000595159 0)
(0.118317 0.000664459 0)
(0.118118 0.000733758 0)
(0.117898 0.000803057 0)
(0.117657 0.000874395 0)
(0.117398 0.000943694 0)
(0.117117 0.00101096 0)
(0.116818 0.00107964 0)
(0.116501 0.00114915 0)
(0.116163 0.00121682 0)
(0.115804 0.00128469 0)
(0.115427 0.00135215 0)
(0.115031 0.00141941 0)
(0.114614 0.00148606 0)
(0.114181 0.00155251 0)
(0.113728 0.00161875 0)
(0.113256 0.00168438 0)
(0.112764 0.00174961 0)
(0.112255 0.00181442 0)
(0.111726 0.00187883 0)
(0.111179 0.00194262 0)
(0.110614 0.00200601 0)
(0.110031 0.00206879 0)
(0.109432 0.00213096 0)
(0.108812 0.00219292 0)
(0.108177 0.00225427 0)
(0.107523 0.0023148 0)
(0.106852 0.00237452 0)
(0.106165 0.00243404 0)
(0.105459 0.00249274 0)
(0.104739 0.00255083 0)
(0.104001 0.00260831 0)
(0.103247 0.00266476 0)
(0.102476 0.00272082 0)
(0.10169 0.00277625 0)
(0.100888 0.00283088 0)
(0.10007 0.00288469 0)
(0.0992379 0.00293768 0)
(0.0983904 0.00298986 0)
(0.097527 0.00304143 0)
(0.096649 0.00309218 0)
(0.0957585 0.00314191 0)
(0.0948529 0.00319103 0)
(0.0939322 0.00323954 0)
(0.0930002 0.00328683 0)
(0.0920522 0.0033333 0)
(0.0910922 0.00337916 0)
(0.0901195 0.003424 0)
(0.0891337 0.00346803 0)
(0.0881357 0.00351124 0)
(0.0871252 0.00355363 0)
(0.0861028 0.00359501 0)
(0.0850686 0.00363557 0)
(0.0840232 0.00367531 0)
(0.0829664 0.00371404 0)
(0.0818988 0.00375195 0)
(0.0808204 0.00378904 0)
(0.0797316 0.00382512 0)
(0.0786326 0.00386038 0)
(0.0775234 0.00389503 0)
(0.0764046 0.00392866 0)
(0.0752764 0.00396127 0)
(0.0741389 0.00399307 0)
(0.0729924 0.00402405 0)
(0.0718374 0.00405422 0)
(0.0706737 0.00408357 0)
(0.0695018 0.00411231 0)
(0.068322 0.00414003 0)
(0.0671342 0.00416673 0)
(0.065939 0.00419261 0)
(0.0647364 0.00421789 0)
(0.0635267 0.00424275 0)
(0.0623101 0.00426639 0)
(0.0610868 0.00428922 0)
(0.0598573 0.00431144 0)
(0.0586214 0.00433284 0)
(0.0573797 0.00435363 0)
(0.0561319 0.00437381 0)
(0.0548786 0.00439317 0)
(0.0536198 0.00441172 0)
(0.0523559 0.00442966 0)
(0.0510869 0.00444698 0)
(0.0498132 0.00446369 0)
(0.0485348 0.00447959 0)
(0.047252 0.00449488 0)
(0.0459646 0.00450976 0)
(0.0446734 0.00452403 0)
(0.0433779 0.00453768 0)
(0.042079 0.00455073 0)
(0.0407764 0.00456296 0)
(0.0394703 0.00457478 0)
(0.0381607 0.00458639 0)
(0.0368481 0.0045974 0)
(0.0355324 0.00460759 0)
(0.0342139 0.00461738 0)
(0.0328927 0.00462675 0)
(0.0315689 0.00463572 0)
(0.0302426 0.00464408 0)
(0.0289139 0.00465203 0)
(0.0275832 0.00465977 0)
(0.0262502 0.0046667 0)
(0.0249154 0.00467343 0)
(0.0235787 0.00467995 0)
(0.0222402 0.00468566 0)
(0.0209003 0.00469096 0)
(0.0195587 0.00469625 0)
(0.0182157 0.00470115 0)
(0.0168715 0.00470522 0)
(0.0155261 0.0047093 0)
(0.0141796 0.00471317 0)
(0.012832 0.00471623 0)
(0.0114836 0.00471914 0)
(0.0101345 0.00472183 0)
(0.00878461 0.00472412 0)
(0.00743413 0.00472607 0)
(0.00608316 0.00472766 0)
(0.0047318 0.00472897 0)
(0.0033801 0.00472997 0)
(0.00202815 0.00473064 0)
(0.00067607 0.004731 0)
(0.000675365 -0.00607523 0)
(0.00202605 -0.00607479 0)
(0.00337659 -0.00607395 0)
(0.00472689 -0.00607274 0)
(0.0060769 -0.00607111 0)
(0.00742659 -0.00606908 0)
(0.0087756 -0.00606665 0)
(0.0101242 -0.00606369 0)
(0.011472 -0.00606043 0)
(0.0128192 -0.00605676 0)
(0.0141654 -0.00605248 0)
(0.0155106 -0.006048 0)
(0.0168546 -0.0060429 0)
(0.0181976 -0.0060372 0)
(0.0195396 -0.00603129 0)
(0.0208797 -0.00602476 0)
(0.0222188 -0.00601783 0)
(0.0235561 -0.0060105 0)
(0.0248915 -0.00600234 0)
(0.0262255 -0.00599399 0)
(0.0275573 -0.00598502 0)
(0.028887 -0.00597524 0)
(0.0302147 -0.00596504 0)
(0.0315402 -0.00595424 0)
(0.032863 -0.00594303 0)
(0.0341833 -0.00593121 0)
(0.035501 -0.00591878 0)
(0.0368157 -0.00590553 0)
(0.0381277 -0.00589146 0)
(0.0394362 -0.0058772 0)
(0.0407419 -0.00586211 0)
(0.0420439 -0.00584601 0)
(0.0433425 -0.0058295 0)
(0.0446369 -0.00581218 0)
(0.0459279 -0.00579404 0)
(0.0472147 -0.00577529 0)
(0.0484971 -0.00575572 0)
(0.0497753 -0.00573534 0)
(0.0510488 -0.00571414 0)
(0.0523174 -0.00569192 0)
(0.0535812 -0.0056691 0)
(0.0548398 -0.00564545 0)
(0.0560929 -0.00562059 0)
(0.0573405 -0.0055949 0)
(0.0585824 -0.00556861 0)
(0.0598186 -0.0055413 0)
(0.0610483 -0.00551276 0)
(0.0622716 -0.00548341 0)
(0.0634882 -0.00545304 0)
(0.0646983 -0.00542186 0)
(0.0659012 -0.00538966 0)
(0.0670969 -0.00535623 0)
(0.0682849 -0.00532199 0)
(0.0694655 -0.00528652 0)
(0.0706377 -0.00525004 0)
(0.0718019 -0.00521254 0)
(0.0729578 -0.00517381 0)
(0.0741049 -0.00513427 0)
(0.0752432 -0.0050935 0)
(0.0763712 -0.00505172 0)
(0.0774912 -0.00500871 0)
(0.0786016 -0.00496448 0)
(0.0797008 -0.00491944 0)
(0.0807912 -0.00487317 0)
(0.0818715 -0.00482568 0)
(0.0829397 -0.00477717 0)
(0.0839965 -0.00472744 0)
(0.0850446 -0.00467648 0)
(0.0860798 -0.00462451 0)
(0.0871028 -0.00457152 0)
(0.0881141 -0.0045173 0)
(0.0891141 -0.00446206 0)
(0.090101 -0.00440601 0)
(0.0910757 -0.00434731 0)
(0.0920381 -0.00428841 0)
(0.0929849 -0.00423134 0)
(0.0939204 -0.00417019 0)
(0.0948411 -0.00410701 0)
(0.0957493 -0.00404382 0)
(0.0966416 -0.0039786 0)
(0.0975221 -0.00391541 0)
(0.0983853 -0.00385019 0)
(0.0992357 -0.00378089 0)
(0.10007 -0.00371363 0)
(0.100889 -0.00364433 0)
(0.101693 -0.00357503 0)
(0.10248 -0.00350369 0)
(0.103253 -0.00343032 0)
(0.104008 -0.00336102 0)
(0.104749 -0.00328561 0)
(0.105471 -0.00321019 0)
(0.106178 -0.00313682 0)
(0.106867 -0.00305936 0)
(0.107539 -0.00298191 0)
(0.108195 -0.00290446 0)
(0.108833 -0.00282701 0)
(0.109454 -0.00274752 0)
(0.110057 -0.00266599 0)
(0.110642 -0.00258446 0)
(0.111208 -0.00250497 0)
(0.111756 -0.00242344 0)
(0.112286 -0.00233987 0)
(0.112798 -0.00225631 0)
(0.113291 -0.00217274 0)
(0.113765 -0.00208917 0)
(0.114221 -0.00200357 0)
(0.114657 -0.00191796 0)
(0.115075 -0.00183236 0)
(0.115472 -0.00174471 0)
(0.115852 -0.00165911 0)
(0.116212 -0.0015735 0)
(0.116552 -0.00148382 0)
(0.116871 -0.00139618 0)
(0.117173 -0.00130854 0)
(0.117454 -0.00121885 0)
(0.117717 -0.00113121 0)
(0.117958 -0.00104153 0)
(0.11818 -0.000951847 0)
(0.118384 -0.000862166 0)
(0.118565 -0.000772484 0)
(0.118726 -0.000682803 0)
(0.118867 -0.000593121 0)