/*--------------------------------*- C++ -*----------------------------------*\
| =========                 |                                                 |
| \\      /  F ield         | OpenFOAM: The Open Source CFD Toolbox           |
|  \\    /   O peration     | Version:  v2012                                 |
|   \\  /    A nd           | Website:  www.openfoam.com                      |
|    \\/     M anipulation  |                                                 |
\*---------------------------------------------------------------------------*/
FoamFile
{
    version     2.0;
    format      ascii;
    class       volVectorField;
    location    "2e-06";
    object      U;
}
// * * * * * * * * * * * * * * * * * * * * * * * * * * * * * * * * * * * * * //

dimensions      [0 1 -1 0 0 0 0];


internalField   nonuniform List<vector> 
65536
(
(0.000674909 -0.000674912 0)
(0.00202466 -0.00067484 0)
(0.00337426 -0.000674745 0)
(0.00472363 -0.000674609 0)
(0.00607269 -0.000674429 0)
(0.00742134 -0.000674201 0)
(0.00876949 -0.000673927 0)
(0.010117 -0.000673606 0)
(0.0114639 -0.000673237 0)
(0.01281 -0.000672819 0)
(0.0141552 -0.000672353 0)
(0.0154994 -0.000671837 0)
(0.0168425 -0.000671271 0)
(0.0181845 -0.000670653 0)
(0.0195251 -0.000669982 0)
(0.0208644 -0.000669258 0)
(0.0222022 -0.00066848 0)
(0.0235383 -0.000667646 0)
(0.0248728 -0.000666754 0)
(0.0262054 -0.000665805 0)
(0.027536 -0.000664795 0)
(0.0288645 -0.000663725 0)
(0.0301909 -0.000662592 0)
(0.0315149 -0.000661395 0)
(0.0328365 -0.000660132 0)
(0.0341555 -0.000658803 0)
(0.0354717 -0.000657404 0)
(0.0367851 -0.000655934 0)
(0.0380955 -0.000654393 0)
(0.0394027 -0.000652777 0)
(0.0407066 -0.000651085 0)
(0.0420071 -0.000649316 0)
(0.0433039 -0.000647467 0)
(0.044597 -0.000645536 0)
(0.0458861 -0.000643523 0)
(0.0471711 -0.000641424 0)
(0.0484518 -0.000639239 0)
(0.0497281 -0.000636964 0)
(0.0509997 -0.000634599 0)
(0.0522666 -0.000632141 0)
(0.0535284 -0.000629589 0)
(0.054785 -0.00062694 0)
(0.0560362 -0.000624193 0)
(0.0572818 -0.000621346 0)
(0.0585216 -0.000618398 0)
(0.0597554 -0.000615346 0)
(0.0609831 -0.000612189 0)
(0.0622043 -0.000608925 0)
(0.0634188 -0.000605552 0)
(0.0646265 -0.00060207 0)
(0.0658272 -0.000598476 0)
(0.0670205 -0.000594769 0)
(0.0682063 -0.000590948 0)
(0.0693844 -0.000587011 0)
(0.0705544 -0.000582957 0)
(0.0717163 -0.000578785 0)
(0.0728697 -0.000574494 0)
(0.0740143 -0.000570083 0)
(0.0751501 -0.000565551 0)
(0.0762766 -0.000560897 0)
(0.0773938 -0.00055612 0)
(0.0785012 -0.00055122 0)
(0.0795987 -0.000546196 0)
(0.0806861 -0.000541049 0)
(0.081763 -0.000535776 0)
(0.0828293 -0.000530379 0)
(0.0838846 -0.000524857 0)
(0.0849288 -0.00051921 0)
(0.0859616 -0.000513438 0)
(0.0869826 -0.000507542 0)
(0.0879918 -0.000501521 0)
(0.0889888 -0.000495377 0)
(0.0899734 -0.000489109 0)
(0.0909454 -0.000482719 0)
(0.0919044 -0.000476207 0)
(0.0928503 -0.000469574 0)
(0.0937828 -0.000462821 0)
(0.0947016 -0.000455949 0)
(0.0956067 -0.000448959 0)
(0.0964976 -0.000441853 0)
(0.0973742 -0.000434632 0)
(0.0982362 -0.000427298 0)
(0.0990834 -0.000419851 0)
(0.0999157 -0.000412294 0)
(0.100733 -0.000404629 0)
(0.101534 -0.000396857 0)
(0.10232 -0.00038898 0)
(0.10309 -0.000381001 0)
(0.103844 -0.000372921 0)
(0.104582 -0.000364742 0)
(0.105303 -0.000356468 0)
(0.106008 -0.000348099 0)
(0.106696 -0.000339638 0)
(0.107367 -0.000331088 0)
(0.10802 -0.000322452 0)
(0.108656 -0.00031373 0)
(0.109275 -0.000304927 0)
(0.109876 -0.000296045 0)
(0.110459 -0.000287085 0)
(0.111025 -0.000278051 0)
(0.111572 -0.000268946 0)
(0.112101 -0.000259771 0)
(0.112611 -0.00025053 0)
(0.113103 -0.000241225 0)
(0.113576 -0.000231859 0)
(0.11403 -0.000222434 0)
(0.114466 -0.000212953 0)
(0.114882 -0.000203419 0)
(0.115279 -0.000193834 0)
(0.115657 -0.000184201 0)
(0.116016 -0.000174523 0)
(0.116356 -0.000164801 0)
(0.116675 -0.000155039 0)
(0.116976 -0.00014524 0)
(0.117256 -0.000135404 0)
(0.117517 -0.000125537 0)
(0.117759 -0.000115638 0)
(0.11798 -0.000105712 0)
(0.118181 -9.57611e-05 0)
(0.118363 -8.57869e-05 0)
(0.118525 -7.57922e-05 0)
(0.118666 -6.57795e-05 0)
(0.118788 -5.57511e-05 0)
(0.118889 -4.57095e-05 0)
(0.118971 -3.56571e-05 0)
(0.119032 -2.55961e-05 0)
(0.119073 -1.55291e-05 0)
(0.119094 -5.45824e-06 0)
(0.119095 4.61396e-06 0)
(0.119076 1.46852e-05 0)
(0.119036 2.47531e-05 0)
(0.118977 3.48153e-05 0)
(0.118897 4.48695e-05 0)
(0.118797 5.49132e-05 0)
(0.118677 6.49441e-05 0)
(0.118537 7.49598e-05 0)
(0.118377 8.49578e-05 0)
(0.118197 9.49359e-05 0)
(0.117998 0.000104891 0)
(0.117778 0.000114822 0)
(0.117538 0.000124725 0)
(0.117279 0.000134599 0)
(0.117 0.00014444 0)
(0.116701 0.000154246 0)
(0.116383 0.000164015 0)
(0.116045 0.000173744 0)
(0.115688 0.00018343 0)
(0.115311 0.000193071 0)
(0.114915 0.000202665 0)
(0.114501 0.000212208 0)
(0.114067 0.000221698 0)
(0.113614 0.000231133 0)
(0.113142 0.00024051 0)
(0.112652 0.000249826 0)
(0.112143 0.000259078 0)
(0.111615 0.000268265 0)
(0.11107 0.000277382 0)
(0.110506 0.000286429 0)
(0.109924 0.000295401 0)
(0.109324 0.000304298 0)
(0.108707 0.000313115 0)
(0.108072 0.00032185 0)
(0.107419 0.000330502 0)
(0.106749 0.000339067 0)
(0.106063 0.000347543 0)
(0.105359 0.000355928 0)
(0.104639 0.000364219 0)
(0.103902 0.000372415 0)
(0.103149 0.000380512 0)
(0.10238 0.000388509 0)
(0.101595 0.000396403 0)
(0.100794 0.000404193 0)
(0.0999783 0.000411877 0)
(0.0991469 0.000419453 0)
(0.0983004 0.000426919 0)
(0.0974391 0.000434273 0)
(0.0965632 0.000441514 0)
(0.095673 0.00044864 0)
(0.0947686 0.00045565 0)
(0.0938503 0.000462542 0)
(0.0929183 0.000469316 0)
(0.0919729 0.00047597 0)
(0.0910144 0.000482503 0)
(0.0900428 0.000488915 0)
(0.0890586 0.000495204 0)
(0.0880619 0.00050137 0)
(0.0870531 0.000507412 0)
(0.0860322 0.00051333 0)
(0.0849996 0.000519124 0)
(0.0839556 0.000524792 0)
(0.0829004 0.000530336 0)
(0.0818342 0.000535756 0)
(0.0807573 0.00054105 0)
(0.0796699 0.00054622 0)
(0.0785723 0.000551266 0)
(0.0774647 0.000556187 0)
(0.0763475 0.000560986 0)
(0.0752207 0.000565662 0)
(0.0740847 0.000570216 0)
(0.0729398 0.000574649 0)
(0.0717861 0.000578961 0)
(0.0706238 0.000583154 0)
(0.0694534 0.000587229 0)
(0.0682748 0.000591187 0)
(0.0670885 0.00059503 0)
(0.0658947 0.000598757 0)
(0.0646934 0.000602372 0)
(0.0634851 0.000605875 0)
(0.0622699 0.000609267 0)
(0.061048 0.000612551 0)
(0.0598196 0.000615728 0)
(0.058585 0.000618799 0)
(0.0573443 0.000621767 0)
(0.0560979 0.000624632 0)
(0.0548457 0.000627398 0)
(0.0535882 0.000630065 0)
(0.0523254 0.000632635 0)
(0.0510576 0.00063511 0)
(0.0497849 0.000637493 0)
(0.0485076 0.000639784 0)
(0.0472258 0.000641986 0)
(0.0459396 0.000644101 0)
(0.0446493 0.00064613 0)
(0.043355 0.000648076 0)
(0.042057 0.00064994 0)
(0.0407553 0.000651724 0)
(0.03945 0.000653429 0)
(0.0381415 0.000655059 0)
(0.0368298 0.000656614 0)
(0.035515 0.000658097 0)
(0.0341974 0.000659508 0)
(0.032877 0.00066085 0)
(0.0315539 0.000662125 0)
(0.0302284 0.000663333 0)
(0.0289006 0.000664477 0)
(0.0275705 0.000665558 0)
(0.0262383 0.000666577 0)
(0.0249042 0.000667537 0)
(0.0235682 0.000668437 0)
(0.0222304 0.000669281 0)
(0.020891 0.000670068 0)
(0.0195502 0.000670799 0)
(0.0182078 0.000671477 0)
(0.0168642 0.000672102 0)
(0.0155194 0.000672676 0)
(0.0141735 0.000673198 0)
(0.0128266 0.00067367 0)
(0.0114788 0.000674094 0)
(0.0101303 0.000674468 0)
(0.00878096 0.000674796 0)
(0.00743107 0.000675075 0)
(0.00608067 0.000675304 0)
(0.00472985 0.000675486 0)
(0.00337871 0.000675633 0)
(0.00202733 0.000675725 0)
(0.000675793 0.000675769 0)
(0.000674922 -0.00202465 0)
(0.00202473 -0.00202451 0)
(0.0033744 -0.00202423 0)
(0.00472385 -0.00202382 0)
(0.00607298 -0.00202328 0)
(0.0074217 -0.0020226 0)
(0.00876992 -0.00202178 0)
(0.0101175 -0.00202081 0)
(0.0114645 -0.00201971 0)
(0.0128106 -0.00201845 0)
(0.0141559 -0.00201706 0)
(0.0155002 -0.00201551 0)
(0.0168434 -0.00201381 0)
(0.0181854 -0.00201196 0)
(0.0195262 -0.00200995 0)
(0.0208655 -0.00200778 0)
(0.0222034 -0.00200544 0)
(0.0235397 -0.00200294 0)
(0.0248742 -0.00200027 0)
(0.0262069 -0.00199742 0)
(0.0275376 -0.0019944 0)
(0.0288663 -0.00199119 0)
(0.0301927 -0.00198779 0)
(0.0315169 -0.0019842 0)
(0.0328385 -0.00198041 0)
(0.0341576 -0.00197643 0)
(0.035474 -0.00197223 0)
(0.0367875 -0.00196783 0)
(0.038098 -0.0019632 0)
(0.0394054 -0.00195836 0)
(0.0407094 -0.00195328 0)
(0.04201 -0.00194798 0)
(0.043307 -0.00194243 0)
(0.0446002 -0.00193665 0)
(0.0458895 -0.00193061 0)
(0.0471746 -0.00192431 0)
(0.0484555 -0.00191776 0)
(0.0497319 -0.00191094 0)
(0.0510037 -0.00190384 0)
(0.0522707 -0.00189647 0)
(0.0535327 -0.00188882 0)
(0.0547895 -0.00188087 0)
(0.0560409 -0.00187264 0)
(0.0572867 -0.0018641 0)
(0.0585267 -0.00185525 0)
(0.0597607 -0.0018461 0)
(0.0609885 -0.00183663 0)
(0.0622099 -0.00182684 0)
(0.0634247 -0.00181673 0)
(0.0646326 -0.00180628 0)
(0.0658334 -0.0017955 0)
(0.067027 -0.00178438 0)
(0.068213 -0.00177292 0)
(0.0693913 -0.00176111 0)
(0.0705616 -0.00174895 0)
(0.0717236 -0.00173644 0)
(0.0728772 -0.00172356 0)
(0.0740221 -0.00171033 0)
(0.0751581 -0.00169674 0)
(0.0762849 -0.00168278 0)
(0.0774022 -0.00166845 0)
(0.0785099 -0.00165375 0)
(0.0796077 -0.00163868 0)
(0.0806953 -0.00162324 0)
(0.0817724 -0.00160742 0)
(0.0828389 -0.00159123 0)
(0.0838945 -0.00157466 0)
(0.0849389 -0.00155772 0)
(0.0859719 -0.00154041 0)
(0.0869932 -0.00152272 0)
(0.0880026 -0.00150466 0)
(0.0889999 -0.00148622 0)
(0.0899847 -0.00146742 0)
(0.0909569 -0.00144825 0)
(0.0919161 -0.00142871 0)
(0.0928623 -0.00140881 0)
(0.093795 -0.00138855 0)
(0.0947141 -0.00136794 0)
(0.0956193 -0.00134697 0)
(0.0965105 -0.00132565 0)
(0.0973873 -0.00130399 0)
(0.0982495 -0.00128198 0)
(0.099097 -0.00125964 0)
(0.0999294 -0.00123697 0)
(0.100747 -0.00121397 0)
(0.101548 -0.00119065 0)
(0.102335 -0.00116702 0)
(0.103105 -0.00114308 0)
(0.103859 -0.00111884 0)
(0.104597 -0.0010943 0)
(0.105318 -0.00106948 0)
(0.106023 -0.00104437 0)
(0.106711 -0.00101899 0)
(0.107382 -0.000993335 0)
(0.108036 -0.000967423 0)
(0.108672 -0.000941257 0)
(0.109291 -0.000914846 0)
(0.109893 -0.000888196 0)
(0.110476 -0.000861316 0)
(0.111041 -0.000834212 0)
(0.111588 -0.000806894 0)
(0.112117 -0.000779368 0)
(0.112628 -0.000751643 0)
(0.11312 -0.000723726 0)
(0.113593 -0.000695625 0)
(0.114047 -0.000667349 0)
(0.114483 -0.000638904 0)
(0.114899 -0.0006103 0)
(0.115297 -0.000581543 0)
(0.115675 -0.000552642 0)
(0.116034 -0.000523604 0)
(0.116373 -0.000494438 0)
(0.116693 -0.00046515 0)
(0.116994 -0.000435749 0)
(0.117274 -0.000406242 0)
(0.117535 -0.000376636 0)
(0.117777 -0.00034694 0)
(0.117998 -0.00031716 0)
(0.1182 -0.000287304 0)
(0.118381 -0.00025738 0)
(0.118543 -0.000227394 0)
(0.118685 -0.000197354 0)
(0.118806 -0.000167267 0)
(0.118908 -0.000137141 0)
(0.118989 -0.000106981 0)
(0.11905 -7.67967e-05 0)
(0.119091 -4.65938e-05 0)
(0.119112 -1.63796e-05 0)
(0.119113 1.38388e-05 0)
(0.119094 4.40542e-05 0)
(0.119055 7.42597e-05 0)
(0.118995 0.000104448 0)
(0.118915 0.000134612 0)
(0.118815 0.000164745 0)
(0.118696 0.00019484 0)
(0.118556 0.000224889 0)
(0.118396 0.000254885 0)
(0.118216 0.000284821 0)
(0.118016 0.000314689 0)
(0.117796 0.000344483 0)
(0.117556 0.000374195 0)
(0.117297 0.000403817 0)
(0.117018 0.000433342 0)
(0.116719 0.000462763 0)
(0.116401 0.000492071 0)
(0.116063 0.00052126 0)
(0.115706 0.000550321 0)
(0.115329 0.000579246 0)
(0.114933 0.000608029 0)
(0.114518 0.000636661 0)
(0.114084 0.000665134 0)
(0.113631 0.000693441 0)
(0.113159 0.000721573 0)
(0.112669 0.000749522 0)
(0.11216 0.000777282 0)
(0.111632 0.000804843 0)
(0.111086 0.000832198 0)
(0.110522 0.00085934 0)
(0.10994 0.00088626 0)
(0.10934 0.00091295 0)
(0.108723 0.000939404 0)
(0.108087 0.000965612 0)
(0.107435 0.000991569 0)
(0.106765 0.00101727 0)
(0.106078 0.0010427 0)
(0.105374 0.00106785 0)
(0.104654 0.00109273 0)
(0.103917 0.00111732 0)
(0.103164 0.00114161 0)
(0.102395 0.0011656 0)
(0.101609 0.00118929 0)
(0.100809 0.00121266 0)
(0.0999922 0.00123571 0)
(0.0991606 0.00125844 0)
(0.0983139 0.00128084 0)
(0.0974524 0.0013029 0)
(0.0965763 0.00132463 0)
(0.0956858 0.00134601 0)
(0.0947812 0.00136704 0)
(0.0938627 0.00138771 0)
(0.0929305 0.00140804 0)
(0.0919849 0.001428 0)
(0.0910261 0.0014476 0)
(0.0900543 0.00146683 0)
(0.0890699 0.0014857 0)
(0.0880729 0.0015042 0)
(0.0870638 0.00152233 0)
(0.0860427 0.00154008 0)
(0.0850099 0.00155746 0)
(0.0839657 0.00157447 0)
(0.0829102 0.0015911 0)
(0.0818438 0.00160736 0)
(0.0807666 0.00162324 0)
(0.079679 0.00163875 0)
(0.0785812 0.00165388 0)
(0.0774734 0.00166865 0)
(0.0763559 0.00168304 0)
(0.0752289 0.00169707 0)
(0.0740927 0.00171073 0)
(0.0729475 0.00172403 0)
(0.0717936 0.00173696 0)
(0.0706311 0.00174954 0)
(0.0694604 0.00176177 0)
(0.0682817 0.00177364 0)
(0.0670952 0.00178516 0)
(0.0659011 0.00179635 0)
(0.0646997 0.00180719 0)
(0.0634911 0.00181769 0)
(0.0622757 0.00182787 0)
(0.0610536 0.00183772 0)
(0.059825 0.00184725 0)
(0.0585902 0.00185646 0)
(0.0573494 0.00186536 0)
(0.0561027 0.00187396 0)
(0.0548504 0.00188225 0)
(0.0535927 0.00189025 0)
(0.0523298 0.00189796 0)
(0.0510618 0.00190538 0)
(0.0497889 0.00191253 0)
(0.0485114 0.0019194 0)
(0.0472294 0.001926 0)
(0.0459431 0.00193234 0)
(0.0446527 0.00193843 0)
(0.0433583 0.00194427 0)
(0.04206 0.00194985 0)
(0.0407582 0.0019552 0)
(0.0394528 0.00196032 0)
(0.0381442 0.00196521 0)
(0.0368323 0.00196987 0)
(0.0355174 0.00197432 0)
(0.0341997 0.00197855 0)
(0.0328791 0.00198257 0)
(0.031556 0.00198639 0)
(0.0302304 0.00199002 0)
(0.0289024 0.00199345 0)
(0.0275722 0.00199669 0)
(0.02624 0.00199975 0)
(0.0249057 0.00200262 0)
(0.0235696 0.00200532 0)
(0.0222318 0.00200785 0)
(0.0208923 0.00201021 0)
(0.0195513 0.00201241 0)
(0.0182089 0.00201444 0)
(0.0168652 0.00201631 0)
(0.0155203 0.00201803 0)
(0.0141743 0.0020196 0)
(0.0128274 0.00202101 0)
(0.0114795 0.00202228 0)
(0.0101308 0.00202341 0)
(0.00878146 0.00202439 0)
(0.00743149 0.00202522 0)
(0.00608102 0.00202591 0)
(0.00473013 0.00202647 0)
(0.00337892 0.00202689 0)
(0.00202745 0.00202719 0)
(0.000675835 0.00202735 0)
(0.000675028 -0.00337457 0)
(0.00202504 -0.00337432 0)
(0.00337491 -0.00337386 0)
(0.00472455 -0.00337318 0)
(0.00607388 -0.00337228 0)
(0.0074228 -0.00337114 0)
(0.00877122 -0.00336978 0)
(0.0101191 -0.00336817 0)
(0.0114662 -0.00336633 0)
(0.0128126 -0.00336425 0)
(0.014158 -0.00336192 0)
(0.0155025 -0.00335934 0)
(0.016846 -0.00335651 0)
(0.0181882 -0.00335343 0)
(0.0195292 -0.00335008 0)
(0.0208688 -0.00334647 0)
(0.0222069 -0.00334258 0)
(0.0235434 -0.00333842 0)
(0.0248781 -0.00333397 0)
(0.0262111 -0.00332923 0)
(0.0275421 -0.00332419 0)
(0.028871 -0.00331885 0)
(0.0301977 -0.00331319 0)
(0.0315221 -0.00330721 0)
(0.0328441 -0.00330091 0)
(0.0341634 -0.00329427 0)
(0.0354801 -0.00328728 0)
(0.0367939 -0.00327994 0)
(0.0381047 -0.00327224 0)
(0.0394124 -0.00326417 0)
(0.0407167 -0.00325573 0)
(0.0420177 -0.00324689 0)
(0.043315 -0.00323765 0)
(0.0446085 -0.00322801 0)
(0.0458981 -0.00321795 0)
(0.0471837 -0.00320747 0)
(0.0484649 -0.00319655 0)
(0.0497417 -0.00318519 0)
(0.0510139 -0.00317338 0)
(0.0522812 -0.0031611 0)
(0.0535436 -0.00314834 0)
(0.0548008 -0.00313511 0)
(0.0560526 -0.00312139 0)
(0.0572988 -0.00310716 0)
(0.0585392 -0.00309243 0)
(0.0597737 -0.00307718 0)
(0.0610019 -0.0030614 0)
(0.0622238 -0.00304509 0)
(0.063439 -0.00302824 0)
(0.0646474 -0.00301083 0)
(0.0658487 -0.00299287 0)
(0.0670427 -0.00297434 0)
(0.0682292 -0.00295524 0)
(0.0694079 -0.00293557 0)
(0.0705787 -0.0029153 0)
(0.0717412 -0.00289445 0)
(0.0728953 -0.002873 0)
(0.0740407 -0.00285095 0)
(0.0751772 -0.0028283 0)
(0.0763045 -0.00280503 0)
(0.0774223 -0.00278115 0)
(0.0785305 -0.00275666 0)
(0.0796288 -0.00273154 0)
(0.0807168 -0.0027058 0)
(0.0817945 -0.00267944 0)
(0.0828615 -0.00265246 0)
(0.0839176 -0.00262485 0)
(0.0849625 -0.00259662 0)
(0.085996 -0.00256776 0)
(0.0870179 -0.00253827 0)
(0.0880278 -0.00250817 0)
(0.0890255 -0.00247745 0)
(0.0900108 -0.00244611 0)
(0.0909835 -0.00241415 0)
(0.0919433 -0.00238159 0)
(0.0928899 -0.00234842 0)
(0.0938231 -0.00231465 0)
(0.0947427 -0.00228029 0)
(0.0956484 -0.00224533 0)
(0.09654 -0.0022098 0)
(0.0974173 -0.00217368 0)
(0.09828 -0.002137 0)
(0.0991279 -0.00209976 0)
(0.0999608 -0.00206197 0)
(0.100778 -0.00202364 0)
(0.101581 -0.00198477 0)
(0.102367 -0.00194538 0)
(0.103138 -0.00190547 0)
(0.103892 -0.00186506 0)
(0.104631 -0.00182416 0)
(0.105353 -0.00178277 0)
(0.106058 -0.00174092 0)
(0.106746 -0.0016986 0)
(0.107418 -0.00165584 0)
(0.108072 -0.00161265 0)
(0.108708 -0.00156903 0)
(0.109328 -0.00152501 0)
(0.109929 -0.00148058 0)
(0.110513 -0.00143577 0)
(0.111078 -0.00139059 0)
(0.111626 -0.00134505 0)
(0.112155 -0.00129917 0)
(0.112666 -0.00125295 0)
(0.113158 -0.00120641 0)
(0.113632 -0.00115957 0)
(0.114086 -0.00111243 0)
(0.114522 -0.00106502 0)
(0.114939 -0.00101733 0)
(0.115336 -0.000969397 0)
(0.115715 -0.00092122 0)
(0.116074 -0.000872816 0)
(0.116413 -0.000824196 0)
(0.116733 -0.000775375 0)
(0.117034 -0.000726365 0)
(0.117315 -0.000677178 0)
(0.117576 -0.000627827 0)
(0.117817 -0.000578325 0)
(0.118039 -0.000528684 0)
(0.118241 -0.000478916 0)
(0.118422 -0.000429034 0)
(0.118584 -0.00037905 0)
(0.118726 -0.000328975 0)
(0.118847 -0.000278823 0)
(0.118949 -0.000228604 0)
(0.11903 -0.000178331 0)
(0.119092 -0.000128015 0)
(0.119133 -7.76691e-05 0)
(0.119154 -2.73043e-05 0)
(0.119155 2.30673e-05 0)
(0.119135 7.34342e-05 0)
(0.119096 0.000123784 0)
(0.119036 0.000174106 0)
(0.118956 0.000224388 0)
(0.118857 0.000274617 0)
(0.118737 0.000324783 0)
(0.118597 0.000374872 0)
(0.118437 0.000424873 0)
(0.118257 0.000474775 0)
(0.118057 0.000524564 0)
(0.117837 0.000574228 0)
(0.117597 0.000623756 0)
(0.117337 0.000673135 0)
(0.117058 0.000722351 0)
(0.116759 0.000771394 0)
(0.116441 0.00082025 0)
(0.116103 0.000868906 0)
(0.115745 0.000917349 0)
(0.115368 0.000965567 0)
(0.114972 0.00101355 0)
(0.114557 0.00106128 0)
(0.114123 0.00110874 0)
(0.11367 0.00115593 0)
(0.113198 0.00120282 0)
(0.112707 0.00124941 0)
(0.112197 0.00129569 0)
(0.11167 0.00134163 0)
(0.111123 0.00138723 0)
(0.110559 0.00143248 0)
(0.109977 0.00147735 0)
(0.109377 0.00152184 0)
(0.108759 0.00156594 0)
(0.108123 0.00160963 0)
(0.10747 0.0016529 0)
(0.1068 0.00169574 0)
(0.106113 0.00173813 0)
(0.105409 0.00178006 0)
(0.104688 0.00182153 0)
(0.103951 0.00186252 0)
(0.103197 0.00190301 0)
(0.102427 0.00194301 0)
(0.101642 0.00198249 0)
(0.10084 0.00202145 0)
(0.100024 0.00205988 0)
(0.0991915 0.00209776 0)
(0.0983443 0.0021351 0)
(0.0974824 0.00217188 0)
(0.0966058 0.00220809 0)
(0.0957149 0.00224373 0)
(0.0948098 0.00227878 0)
(0.0938908 0.00231325 0)
(0.0929581 0.00234712 0)
(0.092012 0.0023804 0)
(0.0910527 0.00241307 0)
(0.0900804 0.00244513 0)
(0.0890955 0.00247657 0)
(0.0880981 0.00250741 0)
(0.0870884 0.00253762 0)
(0.0860668 0.00256721 0)
(0.0850335 0.00259618 0)
(0.0839888 0.00262452 0)
(0.0829328 0.00265224 0)
(0.0818659 0.00267934 0)
(0.0807882 0.00270581 0)
(0.0797001 0.00273165 0)
(0.0786018 0.00275688 0)
(0.0774935 0.00278149 0)
(0.0763754 0.00280548 0)
(0.075248 0.00282885 0)
(0.0741113 0.00285162 0)
(0.0729656 0.00287377 0)
(0.0718112 0.00289533 0)
(0.0706482 0.00291629 0)
(0.0694771 0.00293666 0)
(0.0682978 0.00295644 0)
(0.0671109 0.00297565 0)
(0.0659163 0.00299428 0)
(0.0647144 0.00301234 0)
(0.0635054 0.00302985 0)
(0.0622895 0.0030468 0)
(0.061067 0.00306322 0)
(0.059838 0.00307909 0)
(0.0586028 0.00309444 0)
(0.0573615 0.00310927 0)
(0.0561144 0.00312359 0)
(0.0548617 0.0031374 0)
(0.0536036 0.00315073 0)
(0.0523403 0.00316357 0)
(0.0510719 0.00317594 0)
(0.0497987 0.00318784 0)
(0.0485208 0.00319929 0)
(0.0472384 0.00321029 0)
(0.0459518 0.00322085 0)
(0.044661 0.00323099 0)
(0.0433662 0.00324071 0)
(0.0420677 0.00325002 0)
(0.0407655 0.00325893 0)
(0.0394598 0.00326745 0)
(0.0381508 0.00327559 0)
(0.0368387 0.00328335 0)
(0.0355235 0.00329076 0)
(0.0342054 0.00329781 0)
(0.0328846 0.00330451 0)
(0.0315612 0.00331087 0)
(0.0302353 0.00331691 0)
(0.0289071 0.00332262 0)
(0.0275766 0.00332801 0)
(0.0262441 0.0033331 0)
(0.0249096 0.00333789 0)
(0.0235733 0.00334239 0)
(0.0222352 0.0033466 0)
(0.0208955 0.00335053 0)
(0.0195543 0.00335418 0)
(0.0182116 0.00335757 0)
(0.0168677 0.00336069 0)
(0.0155226 0.00336355 0)
(0.0141764 0.00336616 0)
(0.0128292 0.00336852 0)
(0.0114812 0.00337063 0)
(0.0101323 0.0033725 0)
(0.00878272 0.00337413 0)
(0.00743255 0.00337552 0)
(0.00608188 0.00337667 0)
(0.00473079 0.00337759 0)
(0.00337939 0.00337831 0)
(0.00202773 0.00337881 0)
(0.000675928 0.00337906 0)
(0.000675176 -0.00472472 0)
(0.00202548 -0.00472439 0)
(0.00337564 -0.00472375 0)
(0.00472558 -0.00472279 0)
(0.0060752 -0.00472153 0)
(0.00742441 -0.00471994 0)
(0.00877313 -0.00471803 0)
(0.0101213 -0.00471578 0)
(0.0114687 -0.00471321 0)
(0.0128154 -0.0047103 0)
(0.0141612 -0.00470705 0)
(0.015506 -0.00470345 0)
(0.0168497 -0.00469949 0)
(0.0181923 -0.00469518 0)
(0.0195336 -0.0046905 0)
(0.0208736 -0.00468545 0)
(0.022212 -0.00468002 0)
(0.0235488 -0.0046742 0)
(0.024884 -0.00466798 0)
(0.0262173 -0.00466135 0)
(0.0275486 -0.0046543 0)
(0.0288779 -0.00464683 0)
(0.0302051 -0.00463892 0)
(0.0315299 -0.00463057 0)
(0.0328522 -0.00462175 0)
(0.034172 -0.00461247 0)
(0.0354891 -0.0046027 0)
(0.0368034 -0.00459244 0)
(0.0381146 -0.00458167 0)
(0.0394228 -0.00457039 0)
(0.0407276 -0.00455857 0)
(0.042029 -0.00454621 0)
(0.0433268 -0.0045333 0)
(0.0446209 -0.00451981 0)
(0.045911 -0.00450574 0)
(0.0471971 -0.00449108 0)
(0.0484789 -0.00447581 0)
(0.0497562 -0.00445991 0)
(0.051029 -0.00444338 0)
(0.0522969 -0.00442621 0)
(0.0535598 -0.00440837 0)
(0.0548176 -0.00438985 0)
(0.05607 -0.00437065 0)
(0.0573169 -0.00435075 0)
(0.0585579 -0.00433013 0)
(0.059793 -0.00430879 0)
(0.0610219 -0.00428672 0)
(0.0622444 -0.00426389 0)
(0.0634603 -0.00424031 0)
(0.0646693 -0.00421595 0)
(0.0658713 -0.00419082 0)
(0.067066 -0.00416489 0)
(0.0682532 -0.00413816 0)
(0.0694327 -0.00411062 0)
(0.0706042 -0.00408226 0)
(0.0717674 -0.00405307 0)
(0.0729223 -0.00402305 0)
(0.0740684 -0.00399219 0)
(0.0752056 -0.00396048 0)
(0.0763336 -0.00392791 0)
(0.0774522 -0.00389448 0)
(0.0785612 -0.00386019 0)
(0.0796602 -0.00382503 0)
(0.080749 -0.003789 0)
(0.0818275 -0.0037521 0)
(0.0828952 -0.00371432 0)
(0.0839521 -0.00367567 0)
(0.0849978 -0.00363614 0)
(0.086032 -0.00359574 0)
(0.0870546 -0.00355446 0)
(0.0880653 -0.00351231 0)
(0.0890638 -0.0034693 0)
(0.0900498 -0.00342541 0)
(0.0910232 -0.00338067 0)
(0.0919837 -0.00333508 0)
(0.0929311 -0.00328863 0)
(0.093865 -0.00324135 0)
(0.0947853 -0.00319323 0)
(0.0956917 -0.00314428 0)
(0.0965841 -0.00309452 0)
(0.097462 -0.00304396 0)
(0.0983254 -0.00299259 0)
(0.099174 -0.00294045 0)
(0.100008 -0.00288752 0)
(0.100826 -0.00283384 0)
(0.101629 -0.00277941 0)
(0.102416 -0.00272425 0)
(0.103187 -0.00266837 0)
(0.103942 -0.00261178 0)
(0.104681 -0.0025545 0)
(0.105404 -0.00249654 0)
(0.10611 -0.00243793 0)
(0.106798 -0.00237868 0)
(0.10747 -0.00231879 0)
(0.108125 -0.0022583 0)
(0.108762 -0.00219722 0)
(0.109382 -0.00213557 0)
(0.109984 -0.00207335 0)
(0.110568 -0.0020106 0)
(0.111134 -0.00194733 0)
(0.111682 -0.00188356 0)
(0.112212 -0.0018193 0)
(0.112723 -0.00175458 0)
(0.113215 -0.00168941 0)
(0.113689 -0.00162381 0)
(0.114144 -0.0015578 0)
(0.11458 -0.0014914 0)
(0.114997 -0.00142462 0)
(0.115395 -0.00135749 0)
(0.115774 -0.00129003 0)
(0.116133 -0.00122224 0)
(0.116473 -0.00115416 0)
(0.116793 -0.00108579 0)
(0.117094 -0.00101716 0)
(0.117375 -0.000948279 0)
(0.117637 -0.000879171 0)
(0.117878 -0.00080985 0)
(0.1181 -0.000740335 0)
(0.118302 -0.000670643 0)
(0.118483 -0.000600791 0)
(0.118645 -0.000530796 0)
(0.118787 -0.000460674 0)
(0.118909 -0.000390444 0)
(0.11901 -0.000320121 0)
(0.119092 -0.000249722 0)
(0.119153 -0.000179263 0)
(0.119194 -0.000108762 0)
(0.119215 -3.82348e-05 0)
(0.119216 3.23022e-05 0)
(0.119197 0.000102832 0)
(0.119157 0.000173339 0)
(0.119098 0.000243807 0)
(0.119018 0.000314218 0)
(0.118918 0.000384556 0)
(0.118798 0.000454804 0)
(0.118658 0.000524946 0)
(0.118498 0.000594965 0)
(0.118318 0.000664844 0)
(0.118117 0.000734566 0)
(0.117897 0.000804114 0)
(0.117657 0.00087347 0)
(0.117398 0.000942618 0)
(0.117118 0.00101154 0)
(0.116819 0.00108022 0)
(0.1165 0.00114863 0)
(0.116162 0.00121677 0)
(0.115804 0.00128461 0)
(0.115427 0.00135213 0)
(0.115031 0.00141932 0)
(0.114615 0.00148616 0)
(0.114181 0.00155263 0)
(0.113727 0.00161871 0)
(0.113255 0.00168438 0)
(0.112764 0.00174963 0)
(0.112254 0.00181443 0)
(0.111726 0.00187877 0)
(0.111179 0.00194263 0)
(0.110614 0.00200599 0)
(0.110032 0.00206883 0)
(0.109431 0.00213114 0)
(0.108812 0.00219289 0)
(0.108176 0.00225408 0)
(0.107523 0.00231467 0)
(0.106852 0.00237466 0)
(0.106164 0.00243402 0)
(0.10546 0.00249275 0)
(0.104738 0.00255082 0)
(0.104001 0.00260822 0)
(0.103246 0.00266493 0)
(0.102476 0.00272093 0)
(0.10169 0.00277622 0)
(0.100888 0.00283078 0)
(0.10007 0.00288459 0)
(0.0992376 0.00293765 0)
(0.0983898 0.00298993 0)
(0.0975271 0.00304143 0)
(0.0966499 0.00309214 0)
(0.0957582 0.00314204 0)
(0.0948524 0.00319112 0)
(0.0939327 0.00323939 0)
(0.0929993 0.00328682 0)
(0.0920525 0.00333341 0)
(0.0910924 0.00337915 0)
(0.0901195 0.00342404 0)
(0.0891337 0.00346808 0)
(0.0881356 0.00351124 0)
(0.0871252 0.00355354 0)
(0.0861028 0.00359497 0)
(0.0850688 0.00363553 0)
(0.0840233 0.00367521 0)
(0.0829665 0.00371402 0)
(0.0818988 0.00375195 0)
(0.0808204 0.00378901 0)
(0.0797315 0.0038252 0)
(0.0786324 0.00386051 0)
(0.0775234 0.00389495 0)
(0.0764046 0.00392853 0)
(0.0752764 0.00396125 0)
(0.074139 0.00399312 0)
(0.0729925 0.00402414 0)
(0.0718374 0.00405431 0)
(0.0706737 0.00408365 0)
(0.0695018 0.00411215 0)
(0.0683219 0.00413984 0)
(0.0671342 0.00416672 0)
(0.065939 0.00419279 0)
(0.0647364 0.00421807 0)
(0.0635267 0.00424257 0)
(0.0623102 0.0042663 0)
(0.0610869 0.00428926 0)
(0.0598573 0.00431147 0)
(0.0586214 0.00433295 0)
(0.0573795 0.0043537 0)
(0.0561318 0.00437373 0)
(0.0548785 0.00439306 0)
(0.0536198 0.00441171 0)
(0.0523559 0.00442967 0)
(0.0510869 0.00444697 0)
(0.0498132 0.00446362 0)
(0.0485347 0.00447964 0)
(0.0472518 0.00449502 0)
(0.0459646 0.0045098 0)
(0.0446733 0.00452398 0)
(0.043378 0.00453757 0)
(0.042079 0.00455059 0)
(0.0407763 0.00456306 0)
(0.0394702 0.00457497 0)
(0.0381607 0.00458635 0)
(0.0368481 0.00459721 0)
(0.0355325 0.00460757 0)
(0.034214 0.00461742 0)
(0.0328928 0.00462679 0)
(0.0315689 0.00463569 0)
(0.0302426 0.00464413 0)
(0.028914 0.00465211 0)
(0.0275832 0.00465966 0)
(0.0262503 0.00466678 0)
(0.0249154 0.00467347 0)
(0.0235787 0.00467976 0)
(0.0222403 0.00468564 0)
(0.0209002 0.00469114 0)
(0.0195587 0.00469624 0)
(0.0182157 0.00470097 0)
(0.0168715 0.00470534 0)
(0.015526 0.00470934 0)
(0.0141795 0.00471298 0)
(0.012832 0.00471628 0)
(0.0114836 0.00471923 0)
(0.0101345 0.00472185 0)
(0.0087846 0.00472413 0)
(0.00743413 0.00472607 0)
(0.00608317 0.00472767 0)
(0.00473179 0.00472896 0)
(0.0033801 0.00472995 0)
(0.00202816 0.00473065 0)
(0.000676069 0.00473101 0)
(0.000675365 -0.00607522 0)
(0.00202604 -0.00607479 0)
(0.00337659 -0.00607396 0)
(0.0047269 -0.00607274 0)
(0.00607691 -0.00607112 0)
(0.00742651 -0.00606908 0)
(0.00877561 -0.00606662 0)
(0.0101241 -0.00606375 0)
(0.011472 -0.00606044 0)
(0.012819 -0.00605671 0)
(0.0141652 -0.00605253 0)
(0.0155105 -0.00604792 0)
(0.0168547 -0.00604285 0)
(0.0181977 -0.00603731 0)
(0.0195394 -0.00603131 0)
(0.0208798 -0.00602483 0)
(0.0222187 -0.00601786 0)
(0.023556 -0.00601039 0)
(0.0248916 -0.00600241 0)
(0.0262254 -0.0059939 0)
(0.0275572 -0.00598486 0)
(0.028887 -0.00597527 0)
(0.0302147 -0.00596512 0)
(0.03154 -0.0059544 0)
(0.0328629 -0.00594308 0)
(0.0341833 -0.00593116 0)
(0.035501 -0.00591863 0)
(0.0368158 -0.00590545 0)
(0.0381276 -0.00589163 0)
(0.0394364 -0.00587714 0)
(0.0407419 -0.00586197 0)
(0.0420439 -0.0058461 0)
(0.0433424 -0.00582952 0)
(0.0446371 -0.0058122 0)
(0.0459279 -0.00579414 0)
(0.0472147 -0.00577531 0)
(0.0484972 -0.0057557 0)
(0.0497753 -0.00573528 0)
(0.0510487 -0.00571405 0)
(0.0523174 -0.00569199 0)
(0.0535812 -0.00566908 0)
(0.0548397 -0.00564529 0)
(0.056093 -0.00562063 0)
(0.0573406 -0.00559506 0)
(0.0585825 -0.00556858 0)
(0.0598184 -0.00554116 0)
(0.0610482 -0.0055128 0)
(0.0622716 -0.00548347 0)
(0.0634883 -0.00545317 0)
(0.0646983 -0.00542187 0)
(0.0659012 -0.00538957 0)
(0.0670968 -0.00535625 0)
(0.0682849 -0.0053219 0)
(0.0694653 -0.0052865 0)
(0.0706378 -0.00525006 0)
(0.071802 -0.00521254 0)
(0.0729578 -0.00517396 0)
(0.0741049 -0.00513428 0)
(0.0752431 -0.00509352 0)
(0.0763721 -0.00505166 0)
(0.0774917 -0.00500869 0)
(0.0786016 -0.00496461 0)
(0.0797017 -0.00491941 0)
(0.0807915 -0.00487309 0)
(0.081871 -0.00482564 0)
(0.0829397 -0.00477707 0)
(0.0839976 -0.00472738 0)
(0.0850443 -0.00467655 0)
(0.0860795 -0.0046246 0)
(0.0871031 -0.00457153 0)
(0.0881148 -0.00451733 0)
(0.0891143 -0.00446202 0)
(0.0901014 -0.00440559 0)
(0.0910758 -0.00434806 0)
(0.0920372 -0.00428942 0)
(0.0929856 -0.0042297 0)
(0.0939205 -0.00416889 0)
(0.0948417 -0.00410701 0)
(0.0957491 -0.00404406 0)
(0.0966423 -0.00398007 0)
(0.0975212 -0.00391503 0)
(0.0983855 -0.00384898 0)
(0.099235 -0.00378191 0)
(0.100069 -0.00371385 0)
(0.100889 -0.0036448 0)
(0.101692 -0.0035748 0)
(0.10248 -0.00350385 0)
(0.103252 -0.00343197 0)
(0.104008 -0.00335919 0)
(0.104748 -0.00328552 0)
(0.105471 -0.00321098 0)
(0.106178 -0.00313559 0)
(0.106868 -0.00305938 0)
(0.10754 -0.00298236 0)
(0.108195 -0.00290456 0)
(0.108833 -0.00282599 0)
(0.109454 -0.00274669 0)
(0.110056 -0.00266667 0)
(0.110641 -0.00258596 0)
(0.111208 -0.00250458 0)
(0.111756 -0.00242255 0)
(0.112286 -0.0023399 0)
(0.112798 -0.00225666 0)
(0.113291 -0.00217283 0)
(0.113765 -0.00208846 0)
(0.114221 -0.00200356 0)
(0.114657 -0.00191816 0)
(0.115075 -0.00183227 0)
(0.115473 -0.00174593 0)
(0.115852 -0.00165916 0)
(0.116212 -0.00157197 0)
(0.116552 -0.00148441 0)
(0.116873 -0.00139647 0)
(0.117174 -0.0013082 0)
(0.117455 -0.00121961 0)
(0.117717 -0.00113073 0)
(0.117959 -0.00104157 0)
(0.11818 -0.000952165 0)
(0.118382 -0.000862531 0)
(0.118564 -0.000772691 0)
(0.118726 -0.000682668 0)
(0.118868 -0.000592483 0)
(0.11899 -0.000502158 0)