/*--------------------------------*- C++ -*----------------------------------*\
| =========                 |                                                 |
| \\      /  F ield         | OpenFOAM: The Open Source CFD Toolbox           |
|  \\    /   O peration     | Version:  v2012                                 |
|   \\  /    A nd           | Website:  www.openfoam.com                      |
|    \\/     M anipulation  |                                                 |
\*---------------------------------------------------------------------------*/
FoamFile
{
    version     2.0;
    format      ascii;
    class       volScalarField;
    location    "0";
    object      pRec;
}
// * * * * * * * * * * * * * * * * * * * * * * * * * * * * * * * * * * * * * //

dimensions      [0 2 -2 0 0 0 0];


internalField   nonuniform List<scalar> 
4000
(
-6.92908e-13
-6.87205e-13
-6.88448e-13
-6.91415e-13
-6.892e-13
-6.90065e-13
-6.88468e-13
-6.83229e-13
-6.72989e-13
-6.68881e-13
-6.69923e-13
-6.64334e-13
-6.5381e-13
-6.39773e-13
-6.25739e-13
-6.19312e-13
-6.14922e-13
-6.12237e-13
-6.04676e-13
-5.9115e-13
-5.80178e-13
-5.72981e-13
-5.67701e-13
-5.60007e-13
-5.49159e-13
-5.38169e-13
-5.36173e-13
-5.30704e-13
-5.24319e-13
-5.13002e-13
-4.96892e-13
-4.89831e-13
-4.87941e-13
-4.8605e-13
-4.81182e-13
-4.78176e-13
-4.68702e-13
-4.50041e-13
-4.32414e-13
-4.28707e-13
-4.2943e-13
-4.27964e-13
-4.28293e-13
-4.22204e-13
-4.11159e-13
-4.02226e-13
-3.934e-13
-3.84137e-13
-3.75056e-13
-3.67492e-13
-3.58934e-13
-3.51036e-13
-3.43836e-13
-3.35202e-13
-3.2718e-13
-3.14604e-13
-3.0765e-13
-3.04981e-13
-3.02703e-13
-2.99895e-13
-2.91873e-13
-2.84791e-13
-2.74736e-13
-2.62797e-13
-2.54703e-13
-2.4752e-13
-2.43223e-13
-2.34992e-13
-2.24221e-13
-2.16767e-13
-2.09409e-13
-2.02423e-13
-1.89312e-13
-1.8228e-13
-1.81141e-13
-1.76933e-13
-1.73111e-13
-1.66741e-13
-1.57503e-13
-1.44277e-13
-1.31595e-13
-1.25815e-13
-1.17188e-13
-1.1287e-13
-1.08249e-13
-1.02535e-13
-9.32466e-14
-8.53246e-14
-8.19901e-14
-7.79676e-14
-7.19282e-14
-6.5442e-14
-5.85795e-14
-5.32791e-14
-4.40881e-14
-3.50388e-14
-2.72234e-14
-1.93373e-14
-1.08008e-14
-2.61099e-15
-6.89405e-13
-6.88085e-13
-6.91267e-13
-6.91199e-13
-6.91927e-13
-6.88636e-13
-6.85501e-13
-6.83115e-13
-6.77558e-13
-6.72299e-13
-6.66345e-13
-6.60984e-13
-6.51946e-13
-6.40292e-13
-6.2916e-13
-6.22589e-13
-6.1768e-13
-6.10738e-13
-6.01819e-13
-5.9446e-13
-5.83725e-13
-5.71526e-13
-5.63809e-13
-5.5672e-13
-5.46945e-13
-5.40832e-13
-5.37459e-13
-5.31532e-13
-5.23077e-13
-5.09344e-13
-5.00062e-13
-4.93326e-13
-4.87339e-13
-4.82741e-13
-4.78544e-13
-4.74349e-13
-4.66751e-13
-4.53675e-13
-4.39384e-13
-4.32976e-13
-4.29329e-13
-4.27367e-13
-4.24976e-13
-4.20233e-13
-4.1263e-13
-4.02408e-13
-3.91998e-13
-3.8407e-13
-3.75227e-13
-3.6503e-13
-3.57816e-13
-3.50098e-13
-3.4389e-13
-3.36438e-13
-3.28456e-13
-3.17371e-13
-3.07412e-13
-3.03141e-13
-3.00943e-13
-2.9844e-13
-2.94137e-13
-2.84858e-13
-2.75753e-13
-2.64594e-13
-2.56487e-13
-2.4742e-13
-2.4069e-13
-2.34075e-13
-2.26463e-13
-2.18262e-13
-2.09656e-13
-2.02464e-13
-1.94295e-13
-1.85505e-13
-1.80923e-13
-1.73372e-13
-1.71684e-13
-1.64477e-13
-1.54493e-13
-1.42512e-13
-1.32605e-13
-1.2728e-13
-1.21191e-13
-1.15212e-13
-1.06364e-13
-1.00226e-13
-9.13175e-14
-8.32557e-14
-8.02575e-14
-7.65175e-14
-7.3453e-14
-6.80358e-14
-6.23666e-14
-5.12787e-14
-4.25799e-14
-3.57713e-14
-2.67842e-14
-1.94584e-14
-1.23718e-14
-4.44441e-15
-6.88966e-13
-6.87981e-13
-6.90176e-13
-6.93394e-13
-6.94386e-13
-6.89914e-13
-6.84587e-13
-6.81939e-13
-6.75761e-13
-6.71922e-13
-6.66915e-13
-6.60322e-13
-6.51482e-13
-6.41629e-13
-6.31078e-13
-6.23314e-13
-6.17034e-13
-6.09939e-13
-6.02284e-13
-5.9329e-13
-5.82616e-13
-5.73297e-13
-5.64681e-13
-5.57557e-13
-5.48841e-13
-5.43312e-13
-5.38412e-13
-5.30286e-13
-5.20704e-13
-5.07376e-13
-5.00547e-13
-4.93636e-13
-4.87315e-13
-4.84423e-13
-4.80455e-13
-4.75544e-13
-4.65401e-13
-4.55267e-13
-4.44189e-13
-4.33159e-13
-4.28426e-13
-4.24029e-13
-4.24508e-13
-4.2078e-13
-4.13661e-13
-4.02716e-13
-3.90644e-13
-3.81236e-13
-3.76061e-13
-3.71029e-13
-3.59785e-13
-3.50478e-13
-3.41558e-13
-3.3327e-13
-3.26481e-13
-3.18308e-13
-3.0776e-13
-3.05478e-13
-3.05714e-13
-3.00024e-13
-2.91832e-13
-2.79805e-13
-2.71635e-13
-2.65918e-13
-2.59325e-13
-2.51133e-13
-2.43548e-13
-2.33042e-13
-2.25054e-13
-2.15058e-13
-2.06642e-13
-1.99823e-13
-1.90797e-13
-1.84916e-13
-1.80499e-13
-1.75836e-13
-1.70617e-13
-1.64477e-13
-1.53975e-13
-1.43429e-13
-1.37863e-13
-1.29326e-13
-1.1718e-13
-1.1147e-13
-1.06041e-13
-1.02568e-13
-9.61958e-14
-8.68145e-14
-8.0167e-14
-7.44571e-14
-7.09063e-14
-6.75333e-14
-6.05391e-14
-5.22114e-14
-4.19259e-14
-3.3206e-14
-2.73903e-14
-2.04625e-14
-1.61572e-14
-5.16071e-15
-6.90068e-13
-6.91139e-13
-6.91954e-13
-6.88033e-13
-6.92623e-13
-6.86973e-13
-6.8461e-13
-6.82208e-13
-6.79913e-13
-6.74294e-13
-6.65042e-13
-6.55517e-13
-6.47731e-13
-6.42329e-13
-6.3993e-13
-6.29535e-13
-6.15063e-13
-6.06565e-13
-6.01343e-13
-5.92197e-13
-5.83094e-13
-5.75203e-13
-5.65337e-13
-5.51476e-13
-5.44239e-13
-5.40979e-13
-5.37617e-13
-5.32236e-13
-5.20755e-13
-5.11581e-13
-5.04712e-13
-4.96612e-13
-4.88107e-13
-4.82402e-13
-4.76011e-13
-4.75014e-13
-4.65762e-13
-4.53819e-13
-4.45321e-13
-4.35862e-13
-4.31832e-13
-4.29129e-13
-4.24266e-13
-4.17867e-13
-4.08534e-13
-3.98913e-13
-3.90528e-13
-3.85127e-13
-3.7725e-13
-3.64631e-13
-3.55281e-13
-3.49519e-13
-3.43731e-13
-3.37382e-13
-3.25827e-13
-3.19309e-13
-3.10023e-13
-3.05045e-13
-3.04629e-13
-2.9861e-13
-2.90139e-13
-2.81251e-13
-2.75923e-13
-2.68403e-13
-2.58807e-13
-2.50081e-13
-2.42315e-13
-2.33085e-13
-2.25664e-13
-2.17556e-13
-2.10496e-13
-2.0319e-13
-1.93981e-13
-1.86406e-13
-1.79981e-13
-1.74342e-13
-1.70869e-13
-1.63735e-13
-1.53868e-13
-1.44002e-13
-1.367e-13
-1.29955e-13
-1.19394e-13
-1.09908e-13
-1.05183e-13
-1.00442e-13
-9.38552e-14
-8.61783e-14
-7.88201e-14
-7.49488e-14
-7.30359e-14
-6.7928e-14
-6.2315e-14
-5.08131e-14
-4.18436e-14
-3.57026e-14
-2.90282e-14
-1.96184e-14
-1.28919e-14
-4.76917e-15
-6.9112e-13
-6.95549e-13
-6.9194e-13
-6.87238e-13
-6.83638e-13
-6.8743e-13
-6.87525e-13
-6.85568e-13
-6.78926e-13
-6.71164e-13
-6.62619e-13
-6.57192e-13
-6.47215e-13
-6.40097e-13
-6.38805e-13
-6.32792e-13
-6.22062e-13
-6.11231e-13
-5.98682e-13
-5.8686e-13
-5.81992e-13
-5.74251e-13
-5.59869e-13
-5.50522e-13
-5.47479e-13
-5.43911e-13
-5.39282e-13
-5.31116e-13
-5.23087e-13
-5.14065e-13
-5.0542e-13
-4.9776e-13
-4.88722e-13
-4.82909e-13
-4.77152e-13
-4.74262e-13
-4.64606e-13
-4.53761e-13
-4.42893e-13
-4.35595e-13
-4.31931e-13
-4.31234e-13
-4.24517e-13
-4.16369e-13
-4.0633e-13
-3.96411e-13
-3.89116e-13
-3.83595e-13
-3.76119e-13
-3.68366e-13
-3.59051e-13
-3.52227e-13
-3.44475e-13
-3.36715e-13
-3.2628e-13
-3.17798e-13
-3.1127e-13
-3.06569e-13
-3.03831e-13
-2.97256e-13
-2.89951e-13
-2.81759e-13
-2.73537e-13
-2.67468e-13
-2.61922e-13
-2.55392e-13
-2.47214e-13
-2.34471e-13
-2.25414e-13
-2.14899e-13
-2.06748e-13
-2.00386e-13
-1.93841e-13
-1.86556e-13
-1.76658e-13
-1.71313e-13
-1.69291e-13
-1.63422e-13
-1.56294e-13
-1.46042e-13
-1.37967e-13
-1.32121e-13
-1.19404e-13
-1.08945e-13
-1.01829e-13
-9.71719e-14
-9.36064e-14
-8.89909e-14
-8.11994e-14
-7.63945e-14
-7.19288e-14
-6.75979e-14
-6.00439e-14
-5.45116e-14
-4.65072e-14
-3.61819e-14
-2.90211e-14
-2.1873e-14
-1.24317e-14
-2.19819e-15
-6.87635e-13
-6.97142e-13
-6.93532e-13
-6.8438e-13
-6.88344e-13
-6.91931e-13
-6.89988e-13
-6.85616e-13
-6.77132e-13
-6.63724e-13
-6.59899e-13
-6.5602e-13
-6.5202e-13
-6.42128e-13
-6.35356e-13
-6.34477e-13
-6.23751e-13
-6.13881e-13
-6.03821e-13
-5.90076e-13
-5.79284e-13
-5.67942e-13
-5.50724e-13
-5.47018e-13
-5.48106e-13
-5.47283e-13
-5.39263e-13
-5.30174e-13
-5.22105e-13
-5.17112e-13
-5.06876e-13
-4.97307e-13
-4.89036e-13
-4.8607e-13
-4.8277e-13
-4.73044e-13
-4.62238e-13
-4.53566e-13
-4.4293e-13
-4.38104e-13
-4.34759e-13
-4.31665e-13
-4.22756e-13
-4.16687e-13
-4.06563e-13
-3.94628e-13
-3.85344e-13
-3.79943e-13
-3.76335e-13
-3.68273e-13
-3.61125e-13
-3.51651e-13
-3.43101e-13
-3.34315e-13
-3.24805e-13
-3.19306e-13
-3.14058e-13
-3.07902e-13
-3.02156e-13
-2.97911e-13
-2.92157e-13
-2.82702e-13
-2.74316e-13
-2.67299e-13
-2.58315e-13
-2.53535e-13
-2.4792e-13
-2.35725e-13
-2.26446e-13
-2.18185e-13
-2.0838e-13
-2.00608e-13
-1.95188e-13
-1.88372e-13
-1.78559e-13
-1.73882e-13
-1.67979e-13
-1.60065e-13
-1.5524e-13
-1.4837e-13
-1.40819e-13
-1.31205e-13
-1.17053e-13
-1.06761e-13
-1.02544e-13
-9.94604e-14
-9.56249e-14
-8.69821e-14
-8.02288e-14
-7.58749e-14
-7.15808e-14
-6.77719e-14
-5.83129e-14
-5.36007e-14
-4.65039e-14
-3.93087e-14
-2.92286e-14
-2.07227e-14
-1.03797e-14
-1.00192e-15
-6.92908e-13
-6.93657e-13
-6.92904e-13
-6.89546e-13
-6.86637e-13
-6.90258e-13
-6.89534e-13
-6.83242e-13
-6.75025e-13
-6.6437e-13
-6.56032e-13
-6.55196e-13
-6.54161e-13
-6.4339e-13
-6.36639e-13
-6.31712e-13
-6.27888e-13
-6.19236e-13
-6.00773e-13
-5.82668e-13
-5.66795e-13
-5.6265e-13
-5.61041e-13
-5.58527e-13
-5.5332e-13
-5.46764e-13
-5.3632e-13
-5.27661e-13
-5.23729e-13
-5.19115e-13
-5.09945e-13
-4.96297e-13
-4.90123e-13
-4.81914e-13
-4.76783e-13
-4.70686e-13
-4.64291e-13
-4.58799e-13
-4.48028e-13
-4.36709e-13
-4.30088e-13
-4.25413e-13
-4.20901e-13
-4.1686e-13
-4.10228e-13
-3.99784e-13
-3.88246e-13
-3.78955e-13
-3.7296e-13
-3.67987e-13
-3.60816e-13
-3.55079e-13
-3.46269e-13
-3.34851e-13
-3.26406e-13
-3.20393e-13
-3.13613e-13
-3.02321e-13
-2.98042e-13
-2.97212e-13
-2.96741e-13
-2.88442e-13
-2.76764e-13
-2.64811e-13
-2.55257e-13
-2.49927e-13
-2.42324e-13
-2.31248e-13
-2.22026e-13
-2.17583e-13
-2.16928e-13
-2.06957e-13
-1.96447e-13
-1.91246e-13
-1.8162e-13
-1.72034e-13
-1.63777e-13
-1.56198e-13
-1.50941e-13
-1.4659e-13
-1.39827e-13
-1.30432e-13
-1.22235e-13
-1.13042e-13
-1.06167e-13
-9.60177e-14
-9.25164e-14
-8.86546e-14
-8.08901e-14
-7.76213e-14
-7.10778e-14
-6.30949e-14
-5.85628e-14
-5.29454e-14
-4.6602e-14
-3.69158e-14
-2.89271e-14
-1.92012e-14
-1.04082e-14
-3.34943e-15
-6.92029e-13
-6.91538e-13
-6.89334e-13
-6.90468e-13
-6.93101e-13
-6.92689e-13
-6.89166e-13
-6.82066e-13
-6.73219e-13
-6.65688e-13
-6.59874e-13
-6.54285e-13
-6.50421e-13
-6.41129e-13
-6.37102e-13
-6.31719e-13
-6.27854e-13
-6.18659e-13
-5.95782e-13
-5.84319e-13
-5.79787e-13
-5.72581e-13
-5.61776e-13
-5.52108e-13
-5.4931e-13
-5.42616e-13
-5.3186e-13
-5.25961e-13
-5.21117e-13
-5.1634e-13
-5.09867e-13
-5.02088e-13
-4.96133e-13
-4.89514e-13
-4.7779e-13
-4.69721e-13
-4.62825e-13
-4.53892e-13
-4.45958e-13
-4.37009e-13
-4.31205e-13
-4.288e-13
-4.22008e-13
-4.20662e-13
-4.1524e-13
-4.00044e-13
-3.84377e-13
-3.71083e-13
-3.70589e-13
-3.69706e-13
-3.65763e-13
-3.58625e-13
-3.46163e-13
-3.34811e-13
-3.23706e-13
-3.17406e-13
-3.14119e-13
-3.0855e-13
-3.00193e-13
-2.94417e-13
-2.92166e-13
-2.8516e-13
-2.77773e-13
-2.6933e-13
-2.60957e-13
-2.52108e-13
-2.43255e-13
-2.33207e-13
-2.27035e-13
-2.19956e-13
-2.12594e-13
-2.06935e-13
-1.95312e-13
-1.82759e-13
-1.75719e-13
-1.72239e-13
-1.67744e-13
-1.60114e-13
-1.55674e-13
-1.49547e-13
-1.40545e-13
-1.3065e-13
-1.18452e-13
-1.07581e-13
-9.91568e-14
-9.5463e-14
-9.3476e-14
-9.01737e-14
-8.29175e-14
-7.60519e-14
-6.86599e-14
-6.32696e-14
-5.8895e-14
-5.42256e-14
-4.50259e-14
-3.52467e-14
-2.87267e-14
-2.07089e-14
-1.1823e-14
-1.74328e-15
-6.94382e-13
-6.9608e-13
-6.90954e-13
-6.84722e-13
-6.88525e-13
-6.914e-13
-6.91192e-13
-6.83194e-13
-6.7069e-13
-6.67398e-13
-6.60763e-13
-6.50784e-13
-6.44454e-13
-6.41054e-13
-6.38419e-13
-6.34251e-13
-6.27582e-13
-6.16461e-13
-5.99851e-13
-5.86505e-13
-5.78529e-13
-5.70017e-13
-5.65483e-13
-5.58405e-13
-5.49347e-13
-5.39284e-13
-5.30976e-13
-5.26064e-13
-5.24474e-13
-5.17277e-13
-5.10818e-13
-5.03394e-13
-4.92689e-13
-4.82312e-13
-4.78132e-13
-4.70926e-13
-4.62117e-13
-4.5326e-13
-4.48101e-13
-4.42577e-13
-4.37586e-13
-4.30572e-13
-4.18808e-13
-4.11155e-13
-4.07704e-13
-4.00856e-13
-3.89856e-13
-3.8004e-13
-3.73839e-13
-3.6724e-13
-3.60859e-13
-3.5408e-13
-3.44643e-13
-3.36084e-13
-3.28167e-13
-3.23189e-13
-3.1526e-13
-3.08494e-13
-3.00869e-13
-2.95376e-13
-2.89139e-13
-2.82433e-13
-2.76317e-13
-2.68685e-13
-2.58117e-13
-2.47922e-13
-2.41868e-13
-2.34029e-13
-2.26164e-13
-2.18925e-13
-2.11125e-13
-2.07324e-13
-1.99463e-13
-1.8925e-13
-1.77883e-13
-1.72523e-13
-1.68617e-13
-1.61637e-13
-1.56067e-13
-1.47015e-13
-1.40853e-13
-1.31398e-13
-1.1874e-13
-1.09038e-13
-1.01441e-13
-9.61632e-14
-9.42245e-14
-8.9346e-14
-8.23197e-14
-7.59443e-14
-6.82213e-14
-6.24231e-14
-5.5782e-14
-5.10947e-14
-4.4581e-14
-3.61008e-14
-2.73803e-14
-1.6923e-14
-7.81432e-15
1.05645e-15
-6.94243e-13
-6.93519e-13
-6.9354e-13
-6.90264e-13
-6.86827e-13
-6.89176e-13
-6.87834e-13
-6.85837e-13
-6.77889e-13
-6.63528e-13
-6.55154e-13
-6.47886e-13
-6.4546e-13
-6.43963e-13
-6.40021e-13
-6.33489e-13
-6.23578e-13
-6.16814e-13
-6.07234e-13
-5.91459e-13
-5.78576e-13
-5.65668e-13
-5.60427e-13
-5.53546e-13
-5.5067e-13
-5.44395e-13
-5.34473e-13
-5.2867e-13
-5.22933e-13
-5.17381e-13
-5.11775e-13
-5.03264e-13
-4.9305e-13
-4.81484e-13
-4.74888e-13
-4.69298e-13
-4.64688e-13
-4.54587e-13
-4.49054e-13
-4.43425e-13
-4.33857e-13
-4.24638e-13
-4.17974e-13
-4.11571e-13
-4.10435e-13
-4.05466e-13
-3.94365e-13
-3.82237e-13
-3.74133e-13
-3.64883e-13
-3.57868e-13
-3.53775e-13
-3.46148e-13
-3.37245e-13
-3.28752e-13
-3.21328e-13
-3.14599e-13
-3.0747e-13
-3.0075e-13
-2.97463e-13
-2.9288e-13
-2.89044e-13
-2.81896e-13
-2.69145e-13
-2.5483e-13
-2.40792e-13
-2.33771e-13
-2.28953e-13
-2.25418e-13
-2.25237e-13
-2.18993e-13
-2.0961e-13
-2.02235e-13
-1.91594e-13
-1.78913e-13
-1.69684e-13
-1.65242e-13
-1.59525e-13
-1.5527e-13
-1.46583e-13
-1.40017e-13
-1.31635e-13
-1.20596e-13
-1.12576e-13
-1.03389e-13
-9.49446e-14
-9.07722e-14
-8.52401e-14
-8.142e-14
-7.62421e-14
-6.67341e-14
-5.80472e-14
-5.26594e-14
-4.82316e-14
-4.01113e-14
-3.15692e-14
-2.3441e-14
-1.50642e-14
-5.75205e-15
1.34831e-16
-6.92421e-13
-6.91713e-13
-6.90764e-13
-6.92225e-13
-6.92479e-13
-6.86975e-13
-6.84959e-13
-6.81935e-13
-6.75922e-13
-6.68785e-13
-6.5596e-13
-6.46414e-13
-6.45373e-13
-6.45562e-13
-6.40383e-13
-6.35988e-13
-6.23251e-13
-6.15043e-13
-6.06786e-13
-5.92655e-13
-5.82752e-13
-5.66944e-13
-5.56702e-13
-5.52195e-13
-5.4637e-13
-5.41361e-13
-5.3697e-13
-5.30443e-13
-5.24808e-13
-5.19331e-13
-5.10941e-13
-5.01919e-13
-4.91836e-13
-4.83679e-13
-4.79059e-13
-4.71044e-13
-4.62408e-13
-4.54802e-13
-4.50541e-13
-4.41713e-13
-4.33778e-13
-4.24501e-13
-4.18298e-13
-4.16115e-13
-4.13455e-13
-4.03868e-13
-3.91258e-13
-3.78376e-13
-3.70913e-13
-3.63423e-13
-3.60837e-13
-3.55772e-13
-3.45662e-13
-3.36736e-13
-3.27497e-13
-3.24503e-13
-3.17551e-13
-3.09862e-13
-3.00009e-13
-2.91227e-13
-2.89337e-13
-2.81589e-13
-2.76404e-13
-2.71831e-13
-2.57922e-13
-2.43745e-13
-2.33919e-13
-2.2811e-13
-2.25914e-13
-2.2824e-13
-2.20033e-13
-2.12269e-13
-2.02896e-13
-1.90781e-13
-1.76766e-13
-1.65752e-13
-1.64866e-13
-1.6305e-13
-1.58936e-13
-1.50277e-13
-1.43904e-13
-1.35262e-13
-1.20256e-13
-1.08968e-13
-9.84618e-14
-8.9256e-14
-9.14655e-14
-8.9714e-14
-8.17735e-14
-7.46456e-14
-6.48029e-14
-5.84996e-14
-5.21595e-14
-4.62016e-14
-4.18607e-14
-3.4897e-14
-1.98066e-14
-6.21588e-15
2.00212e-15
-1.17375e-15
-6.95464e-13
-6.9356e-13
-6.91313e-13
-6.92843e-13
-6.9144e-13
-6.86212e-13
-6.8642e-13
-6.8289e-13
-6.7544e-13
-6.66006e-13
-6.5747e-13
-6.49704e-13
-6.41764e-13
-6.38753e-13
-6.35651e-13
-6.29956e-13
-6.26412e-13
-6.20479e-13
-6.09092e-13
-5.94141e-13
-5.8195e-13
-5.73981e-13
-5.63017e-13
-5.53134e-13
-5.46574e-13
-5.35805e-13
-5.32554e-13
-5.29805e-13
-5.26154e-13
-5.2168e-13
-5.13157e-13
-5.02732e-13
-4.90826e-13
-4.81168e-13
-4.75673e-13
-4.6877e-13
-4.64409e-13
-4.5779e-13
-4.52837e-13
-4.40358e-13
-4.32398e-13
-4.21597e-13
-4.17956e-13
-4.18405e-13
-4.11793e-13
-4.03648e-13
-3.9214e-13
-3.81889e-13
-3.72087e-13
-3.63216e-13
-3.56933e-13
-3.53967e-13
-3.45798e-13
-3.39836e-13
-3.32636e-13
-3.2336e-13
-3.15835e-13
-3.07696e-13
-2.99672e-13
-2.93864e-13
-2.91774e-13
-2.91774e-13
-2.81132e-13
-2.68684e-13
-2.50114e-13
-2.4038e-13
-2.33885e-13
-2.30486e-13
-2.25702e-13
-2.23284e-13
-2.17071e-13
-2.15768e-13
-2.09495e-13
-1.96452e-13
-1.75592e-13
-1.59035e-13
-1.57858e-13
-1.63875e-13
-1.60819e-13
-1.50325e-13
-1.4275e-13
-1.32271e-13
-1.22145e-13
-1.13525e-13
-1.0295e-13
-9.22336e-14
-8.62143e-14
-8.54498e-14
-8.01244e-14
-7.32067e-14
-6.27293e-14
-5.77605e-14
-5.19467e-14
-4.4877e-14
-3.72602e-14
-3.0956e-14
-1.86506e-14
-7.76628e-15
-1.66167e-15
-1.22694e-15
-6.93096e-13
-6.92723e-13
-6.84825e-13
-6.94045e-13
-6.93669e-13
-6.90539e-13
-6.84124e-13
-6.77249e-13
-6.70497e-13
-6.60986e-13
-6.56288e-13
-6.51199e-13
-6.50155e-13
-6.43942e-13
-6.37568e-13
-6.33598e-13
-6.28649e-13
-6.2179e-13
-6.09844e-13
-5.95077e-13
-5.75672e-13
-5.61642e-13
-5.5264e-13
-5.51101e-13
-5.46564e-13
-5.41913e-13
-5.35474e-13
-5.29204e-13
-5.26886e-13
-5.24117e-13
-5.16379e-13
-5.03434e-13
-4.93384e-13
-4.85324e-13
-4.81046e-13
-4.70862e-13
-4.61124e-13
-4.56314e-13
-4.50412e-13
-4.40286e-13
-4.30793e-13
-4.26962e-13
-4.22688e-13
-4.16895e-13
-4.06157e-13
-3.96915e-13
-3.89949e-13
-3.8226e-13
-3.74198e-13
-3.67122e-13
-3.60555e-13
-3.54485e-13
-3.43451e-13
-3.33528e-13
-3.35179e-13
-3.34652e-13
-3.19281e-13
-3.04131e-13
-2.9525e-13
-2.87649e-13
-2.85528e-13
-2.82852e-13
-2.81992e-13
-2.72048e-13
-2.55077e-13
-2.45946e-13
-2.32796e-13
-2.31197e-13
-2.25831e-13
-2.20607e-13
-2.16615e-13
-2.16359e-13
-2.10269e-13
-1.94312e-13
-1.77265e-13
-1.63819e-13
-1.60781e-13
-1.64337e-13
-1.57113e-13
-1.47498e-13
-1.40873e-13
-1.33082e-13
-1.24999e-13
-1.15035e-13
-1.04273e-13
-9.17411e-14
-8.58969e-14
-8.55128e-14
-7.86867e-14
-7.13439e-14
-6.30206e-14
-5.63843e-14
-4.87382e-14
-4.29933e-14
-3.77819e-14
-2.96291e-14
-1.89138e-14
-9.42391e-15
-7.2003e-16
7.53575e-16
-6.89692e-13
-6.99667e-13
-6.94142e-13
-6.89168e-13
-6.89727e-13
-6.88304e-13
-6.83403e-13
-6.82233e-13
-6.7146e-13
-6.57065e-13
-6.52866e-13
-6.51193e-13
-6.48518e-13
-6.45058e-13
-6.40497e-13
-6.30765e-13
-6.19975e-13
-6.12293e-13
-6.06524e-13
-5.97445e-13
-5.9037e-13
-5.81763e-13
-5.69005e-13
-5.51117e-13
-5.37072e-13
-5.30904e-13
-5.3335e-13
-5.3113e-13
-5.2824e-13
-5.2604e-13
-5.17104e-13
-5.04728e-13
-4.89466e-13
-4.77172e-13
-4.71775e-13
-4.67432e-13
-4.67562e-13
-4.63046e-13
-4.51288e-13
-4.44822e-13
-4.3346e-13
-4.23419e-13
-4.21255e-13
-4.14276e-13
-4.05325e-13
-3.96497e-13
-3.87118e-13
-3.82328e-13
-3.77801e-13
-3.69645e-13
-3.61713e-13
-3.52391e-13
-3.45256e-13
-3.37916e-13
-3.33111e-13
-3.27524e-13
-3.21263e-13
-3.13779e-13
-3.05184e-13
-2.93493e-13
-2.84255e-13
-2.77658e-13
-2.72247e-13
-2.66685e-13
-2.56634e-13
-2.48293e-13
-2.39258e-13
-2.32349e-13
-2.26373e-13
-2.22963e-13
-2.19185e-13
-2.11182e-13
-2.03471e-13
-1.95009e-13
-1.80227e-13
-1.69132e-13
-1.61209e-13
-1.59106e-13
-1.56615e-13
-1.4838e-13
-1.41644e-13
-1.30965e-13
-1.23368e-13
-1.1378e-13
-1.02786e-13
-9.33004e-14
-8.83954e-14
-8.39568e-14
-7.96271e-14
-7.09284e-14
-6.33337e-14
-5.93486e-14
-5.13256e-14
-4.26526e-14
-3.29305e-14
-2.45127e-14
-1.74691e-14
-1.09338e-14
-3.51174e-15
2.59161e-16
-6.88908e-13
-6.93296e-13
-6.95183e-13
-6.90806e-13
-6.8996e-13
-6.91217e-13
-6.80354e-13
-6.68974e-13
-6.63822e-13
-6.61593e-13
-6.59169e-13
-6.55384e-13
-6.52155e-13
-6.46517e-13
-6.40862e-13
-6.32063e-13
-6.25201e-13
-6.21257e-13
-6.11841e-13
-5.9706e-13
-5.773e-13
-5.63263e-13
-5.54104e-13
-5.44429e-13
-5.4479e-13
-5.43353e-13
-5.38481e-13
-5.30824e-13
-5.26395e-13
-5.25262e-13
-5.19268e-13
-5.0823e-13
-4.95062e-13
-4.77511e-13
-4.67064e-13
-4.67848e-13
-4.6897e-13
-4.6446e-13
-4.57403e-13
-4.45993e-13
-4.31223e-13
-4.21958e-13
-4.14372e-13
-4.09906e-13
-4.04989e-13
-3.99346e-13
-3.92378e-13
-3.83679e-13
-3.77543e-13
-3.76748e-13
-3.68155e-13
-3.50376e-13
-3.40049e-13
-3.32735e-13
-3.27312e-13
-3.25758e-13
-3.21945e-13
-3.12831e-13
-3.00309e-13
-2.90763e-13
-2.87444e-13
-2.83035e-13
-2.75769e-13
-2.66576e-13
-2.52354e-13
-2.41927e-13
-2.37382e-13
-2.35103e-13
-2.3003e-13
-2.22757e-13
-2.15938e-13
-2.11101e-13
-2.03878e-13
-1.93499e-13
-1.81574e-13
-1.65769e-13
-1.59626e-13
-1.5815e-13
-1.58797e-13
-1.53881e-13
-1.45022e-13
-1.34481e-13
-1.23032e-13
-1.10902e-13
-1.01148e-13
-9.36786e-14
-8.89013e-14
-8.29528e-14
-7.70048e-14
-7.00575e-14
-6.36061e-14
-5.80501e-14
-5.18524e-14
-4.28149e-14
-3.22056e-14
-2.18663e-14
-1.35987e-14
-8.13018e-15
-1.68149e-15
-4.48113e-16
-6.87443e-13
-6.96414e-13
-6.97e-13
-6.91944e-13
-6.88523e-13
-6.94093e-13
-6.90273e-13
-6.75658e-13
-6.5702e-13
-6.5293e-13
-6.52079e-13
-6.53525e-13
-6.52543e-13
-6.4966e-13
-6.44169e-13
-6.33204e-13
-6.23329e-13
-6.1538e-13
-6.02467e-13
-5.93604e-13
-5.85372e-13
-5.7171e-13
-5.59559e-13
-5.45445e-13
-5.44255e-13
-5.42367e-13
-5.40398e-13
-5.35363e-13
-5.2723e-13
-5.24236e-13
-5.15792e-13
-5.03698e-13
-4.93862e-13
-4.78491e-13
-4.66149e-13
-4.65255e-13
-4.67196e-13
-4.65343e-13
-4.56906e-13
-4.4672e-13
-4.30079e-13
-4.20649e-13
-4.18042e-13
-4.12796e-13
-4.05194e-13
-3.97724e-13
-3.94927e-13
-3.88142e-13
-3.77749e-13
-3.66689e-13
-3.58968e-13
-3.53093e-13
-3.44217e-13
-3.31151e-13
-3.32091e-13
-3.29435e-13
-3.2122e-13
-3.14928e-13
-3.07453e-13
-2.93098e-13
-2.85623e-13
-2.79326e-13
-2.70791e-13
-2.63088e-13
-2.52093e-13
-2.44435e-13
-2.35139e-13
-2.3219e-13
-2.26603e-13
-2.25945e-13
-2.18516e-13
-2.14287e-13
-2.07339e-13
-1.93134e-13
-1.78378e-13
-1.66291e-13
-1.62945e-13
-1.59736e-13
-1.54851e-13
-1.49646e-13
-1.43782e-13
-1.34915e-13
-1.23736e-13
-1.11407e-13
-1.04492e-13
-9.69112e-14
-8.92871e-14
-8.27056e-14
-7.69685e-14
-6.87366e-14
-6.18512e-14
-5.58263e-14
-4.78058e-14
-3.90591e-14
-3.1668e-14
-2.56107e-14
-1.20787e-14
-4.90467e-15
1.21449e-15
6.25134e-16
-6.9446e-13
-6.93542e-13
-6.89669e-13
-6.85585e-13
-6.8729e-13
-6.81775e-13
-6.77333e-13
-6.78688e-13
-6.74279e-13
-6.66433e-13
-6.61091e-13
-6.52158e-13
-6.4603e-13
-6.44801e-13
-6.4256e-13
-6.35167e-13
-6.25936e-13
-6.22579e-13
-6.10693e-13
-5.93403e-13
-5.73353e-13
-5.60321e-13
-5.54539e-13
-5.52858e-13
-5.46024e-13
-5.4454e-13
-5.40449e-13
-5.33541e-13
-5.27879e-13
-5.22742e-13
-5.15617e-13
-5.03162e-13
-4.90957e-13
-4.78189e-13
-4.69551e-13
-4.68419e-13
-4.71735e-13
-4.65405e-13
-4.55848e-13
-4.45184e-13
-4.30952e-13
-4.18101e-13
-4.15962e-13
-4.13385e-13
-4.09632e-13
-3.9891e-13
-3.89739e-13
-3.86348e-13
-3.8141e-13
-3.69845e-13
-3.58197e-13
-3.52971e-13
-3.45948e-13
-3.34874e-13
-3.26945e-13
-3.24415e-13
-3.18772e-13
-3.13999e-13
-3.0829e-13
-2.98662e-13
-2.8776e-13
-2.79736e-13
-2.7021e-13
-2.62571e-13
-2.55874e-13
-2.4567e-13
-2.35575e-13
-2.2689e-13
-2.23719e-13
-2.25992e-13
-2.17529e-13
-2.12413e-13
-2.05513e-13
-1.93826e-13
-1.82495e-13
-1.69884e-13
-1.59319e-13
-1.54649e-13
-1.54136e-13
-1.55074e-13
-1.4864e-13
-1.33498e-13
-1.22464e-13
-1.09485e-13
-1.04632e-13
-9.92749e-14
-9.18343e-14
-8.15071e-14
-7.23959e-14
-6.75459e-14
-6.19149e-14
-5.50945e-14
-4.94048e-14
-4.10355e-14
-3.06514e-14
-2.10271e-14
-1.24891e-14
-6.1568e-15
8.30008e-16
2.02841e-15
-6.93856e-13
-6.92559e-13
-6.89871e-13
-6.87353e-13
-6.93622e-13
-6.90775e-13
-6.7762e-13
-6.70867e-13
-6.66087e-13
-6.62974e-13
-6.61835e-13
-6.59796e-13
-6.47971e-13
-6.40352e-13
-6.37312e-13
-6.32266e-13
-6.27778e-13
-6.20395e-13
-6.07612e-13
-5.90915e-13
-5.76649e-13
-5.62018e-13
-5.52653e-13
-5.53144e-13
-5.53304e-13
-5.44381e-13
-5.36752e-13
-5.33916e-13
-5.31521e-13
-5.25508e-13
-5.17959e-13
-5.04828e-13
-4.9083e-13
-4.77317e-13
-4.66352e-13
-4.66882e-13
-4.65728e-13
-4.63589e-13
-4.59826e-13
-4.49407e-13
-4.34556e-13
-4.22619e-13
-4.15991e-13
-4.0769e-13
-4.05752e-13
-4.00346e-13
-3.92484e-13
-3.83133e-13
-3.76683e-13
-3.70013e-13
-3.5905e-13
-3.53396e-13
-3.46014e-13
-3.36228e-13
-3.33339e-13
-3.28808e-13
-3.17004e-13
-3.07894e-13
-3.03811e-13
-2.95848e-13
-2.89841e-13
-2.79683e-13
-2.715e-13
-2.64249e-13
-2.5525e-13
-2.44113e-13
-2.37573e-13
-2.27307e-13
-2.20433e-13
-2.18629e-13
-2.16715e-13
-2.13311e-13
-2.07218e-13
-1.93968e-13
-1.81198e-13
-1.70661e-13
-1.63683e-13
-1.56812e-13
-1.5645e-13
-1.53211e-13
-1.45745e-13
-1.35243e-13
-1.2386e-13
-1.12071e-13
-1.03277e-13
-9.41786e-14
-8.73703e-14
-8.31947e-14
-7.72194e-14
-6.77991e-14
-6.09117e-14
-5.37787e-14
-4.62542e-14
-3.82097e-14
-2.90935e-14
-2.27362e-14
-1.4189e-14
-4.27701e-15
1.26335e-15
2.56928e-16
-6.88588e-13
-6.91435e-13
-6.9151e-13
-6.89974e-13
-6.88239e-13
-6.81921e-13
-6.77127e-13
-6.73728e-13
-6.72725e-13
-6.68543e-13
-6.63065e-13
-6.58409e-13
-6.50869e-13
-6.42054e-13
-6.35916e-13
-6.28549e-13
-6.25663e-13
-6.18772e-13
-6.05781e-13
-5.93254e-13
-5.76632e-13
-5.63073e-13
-5.58201e-13
-5.54244e-13
-5.45784e-13
-5.41694e-13
-5.41102e-13
-5.38224e-13
-5.30943e-13
-5.20993e-13
-5.12844e-13
-5.03542e-13
-4.90458e-13
-4.78396e-13
-4.69033e-13
-4.72503e-13
-4.7356e-13
-4.65731e-13
-4.54881e-13
-4.41981e-13
-4.31356e-13
-4.25547e-13
-4.17685e-13
-4.07941e-13
-4.02892e-13
-3.96467e-13
-3.95043e-13
-3.93537e-13
-3.80442e-13
-3.66577e-13
-3.56787e-13
-3.54622e-13
-3.46538e-13
-3.35535e-13
-3.31759e-13
-3.2832e-13
-3.20531e-13
-3.09859e-13
-3.01611e-13
-2.94784e-13
-2.92118e-13
-2.83094e-13
-2.72629e-13
-2.63063e-13
-2.51347e-13
-2.4348e-13
-2.3451e-13
-2.28722e-13
-2.21462e-13
-2.16855e-13
-2.12605e-13
-2.13086e-13
-2.07957e-13
-1.93928e-13
-1.81275e-13
-1.70687e-13
-1.65646e-13
-1.59925e-13
-1.5203e-13
-1.44318e-13
-1.48126e-13
-1.42423e-13
-1.25457e-13
-1.12928e-13
-1.03326e-13
-9.27446e-14
-8.53744e-14
-8.25227e-14
-7.67567e-14
-6.79386e-14
-6.00515e-14
-5.40346e-14
-4.70523e-14
-3.68926e-14
-3.14899e-14
-2.13912e-14
-1.12531e-14
-2.72119e-15
2.20749e-15
-1.51063e-16
-6.9587e-13
-6.92654e-13
-6.90441e-13
-6.87332e-13
-6.82357e-13
-6.79732e-13
-6.76596e-13
-6.76671e-13
-6.74128e-13
-6.69044e-13
-6.62234e-13
-6.57824e-13
-6.51836e-13
-6.45787e-13
-6.37834e-13
-6.26904e-13
-6.16542e-13
-6.10353e-13
-6.05573e-13
-5.97455e-13
-5.79309e-13
-5.6732e-13
-5.58459e-13
-5.51369e-13
-5.47891e-13
-5.44245e-13
-5.42131e-13
-5.38832e-13
-5.29238e-13
-5.23911e-13
-5.14252e-13
-5.02771e-13
-4.88757e-13
-4.76301e-13
-4.71551e-13
-4.72168e-13
-4.70137e-13
-4.64231e-13
-4.54632e-13
-4.43384e-13
-4.31773e-13
-4.22797e-13
-4.18536e-13
-4.12726e-13
-4.07775e-13
-4.00954e-13
-3.90927e-13
-3.84035e-13
-3.79223e-13
-3.70974e-13
-3.6427e-13
-3.54456e-13
-3.44813e-13
-3.36598e-13
-3.30392e-13
-3.22989e-13
-3.18851e-13
-3.11773e-13
-3.01373e-13
-2.95189e-13
-2.93024e-13
-2.85431e-13
-2.73799e-13
-2.61229e-13
-2.52439e-13
-2.43645e-13
-2.34233e-13
-2.26925e-13
-2.212e-13
-2.16952e-13
-2.14467e-13
-2.13537e-13
-2.06746e-13
-1.90861e-13
-1.80066e-13
-1.70814e-13
-1.64995e-13
-1.59345e-13
-1.55453e-13
-1.50874e-13
-1.4457e-13
-1.36313e-13
-1.26544e-13
-1.16383e-13
-1.08434e-13
-9.31392e-14
-8.43242e-14
-7.94091e-14
-7.62763e-14
-6.47182e-14
-5.72727e-14
-5.30553e-14
-5.12051e-14
-3.86278e-14
-2.72603e-14
-2.04345e-14
-1.27133e-14
-2.51293e-16
1.07829e-15
-1.3937e-15
-6.98397e-13
-6.91892e-13
-6.86055e-13
-6.86477e-13
-6.78623e-13
-6.79759e-13
-6.76979e-13
-6.77933e-13
-6.77443e-13
-6.67539e-13
-6.61357e-13
-6.58542e-13
-6.56741e-13
-6.47326e-13
-6.38037e-13
-6.3002e-13
-6.2141e-13
-6.10648e-13
-6.04419e-13
-5.90692e-13
-5.79285e-13
-5.67007e-13
-5.55486e-13
-5.49707e-13
-5.46262e-13
-5.47969e-13
-5.43248e-13
-5.37703e-13
-5.29803e-13
-5.22231e-13
-5.14615e-13
-5.04854e-13
-4.89229e-13
-4.79017e-13
-4.70173e-13
-4.6778e-13
-4.68535e-13
-4.6456e-13
-4.55288e-13
-4.44219e-13
-4.35206e-13
-4.26149e-13
-4.18007e-13
-4.11756e-13
-4.05916e-13
-3.99209e-13
-3.91029e-13
-3.86401e-13
-3.81931e-13
-3.71682e-13
-3.61004e-13
-3.50343e-13
-3.44306e-13
-3.39318e-13
-3.33791e-13
-3.27393e-13
-3.20149e-13
-3.10341e-13
-3.03919e-13
-2.992e-13
-2.94188e-13
-2.84206e-13
-2.69945e-13
-2.59631e-13
-2.50436e-13
-2.41554e-13
-2.3231e-13
-2.27798e-13
-2.2087e-13
-2.20644e-13
-2.15537e-13
-2.09591e-13
-2.00066e-13
-1.88208e-13
-1.78482e-13
-1.68996e-13
-1.68542e-13
-1.6657e-13
-1.57079e-13
-1.48098e-13
-1.41602e-13
-1.33974e-13
-1.25281e-13
-1.15151e-13
-1.0311e-13
-9.0654e-14
-8.56373e-14
-8.20571e-14
-7.52277e-14
-7.05246e-14
-6.47466e-14
-5.34956e-14
-4.37483e-14
-3.62228e-14
-2.74425e-14
-1.78938e-14
-1.07911e-14
-6.40916e-15
-1.9334e-15
-1.36253e-15
-6.96215e-13
-6.90164e-13
-6.88415e-13
-6.86437e-13
-6.83095e-13
-6.79507e-13
-6.74027e-13
-6.76799e-13
-6.76614e-13
-6.71367e-13
-6.64988e-13
-6.57876e-13
-6.55386e-13
-6.45551e-13
-6.34998e-13
-6.24844e-13
-6.1516e-13
-6.10937e-13
-6.05073e-13
-5.93306e-13
-5.80783e-13
-5.6856e-13
-5.5776e-13
-5.53455e-13
-5.52169e-13
-5.45605e-13
-5.39285e-13
-5.318e-13
-5.25207e-13
-5.2281e-13
-5.1646e-13
-5.09411e-13
-4.97431e-13
-4.86028e-13
-4.68161e-13
-4.64005e-13
-4.63637e-13
-4.60955e-13
-4.55051e-13
-4.44281e-13
-4.37159e-13
-4.26442e-13
-4.20727e-13
-4.10248e-13
-4.06382e-13
-4.00718e-13
-3.9638e-13
-3.88256e-13
-3.78155e-13
-3.64356e-13
-3.60214e-13
-3.55795e-13
-3.48592e-13
-3.35572e-13
-3.28485e-13
-3.22086e-13
-3.14771e-13
-3.12883e-13
-3.04968e-13
-3.03546e-13
-3.03846e-13
-2.81478e-13
-2.67851e-13
-2.61504e-13
-2.53169e-13
-2.44798e-13
-2.35026e-13
-2.28164e-13
-2.17914e-13
-2.14623e-13
-2.10413e-13
-2.12592e-13
-2.05369e-13
-1.92475e-13
-1.7635e-13
-1.64526e-13
-1.68332e-13
-1.65021e-13
-1.56951e-13
-1.50797e-13
-1.43707e-13
-1.34433e-13
-1.2406e-13
-1.13265e-13
-1.03738e-13
-9.20462e-14
-8.47728e-14
-8.24892e-14
-7.66291e-14
-6.6279e-14
-5.82968e-14
-5.30007e-14
-4.46648e-14
-3.5609e-14
-3.16042e-14
-2.46698e-14
-1.11396e-14
-2.74161e-15
2.99663e-15
-2.18899e-16
-6.90528e-13
-6.9264e-13
-6.92283e-13
-6.86134e-13
-6.80444e-13
-6.80783e-13
-6.78738e-13
-6.7492e-13
-6.74391e-13
-6.70105e-13
-6.66599e-13
-6.61726e-13
-6.53577e-13
-6.44091e-13
-6.35896e-13
-6.28401e-13
-6.23005e-13
-6.18388e-13
-6.0757e-13
-5.90683e-13
-5.71826e-13
-5.58068e-13
-5.54727e-13
-5.55381e-13
-5.52802e-13
-5.45161e-13
-5.36091e-13
-5.31871e-13
-5.25274e-13
-5.24037e-13
-5.20752e-13
-5.05187e-13
-4.92048e-13
-4.83471e-13
-4.7493e-13
-4.70326e-13
-4.66242e-13
-4.59782e-13
-4.53439e-13
-4.45086e-13
-4.36294e-13
-4.26198e-13
-4.18151e-13
-4.1341e-13
-4.11719e-13
-4.021e-13
-3.94399e-13
-3.82032e-13
-3.79084e-13
-3.71405e-13
-3.59515e-13
-3.5442e-13
-3.48062e-13
-3.39602e-13
-3.31665e-13
-3.18323e-13
-3.06693e-13
-3.10451e-13
-3.14357e-13
-3.05525e-13
-2.9543e-13
-2.83725e-13