/*--------------------------------*- C++ -*----------------------------------*\
| =========                 |                                                 |
| \\      /  F ield         | OpenFOAM: The Open Source CFD Toolbox           |
|  \\    /   O peration     | Version:  v2012                                 |
|   \\  /    A nd           | Website:  www.openfoam.com                      |
|    \\/     M anipulation  |                                                 |
\*---------------------------------------------------------------------------*/
FoamFile
{
    version     2.0;
    format      ascii;
    class       volVectorField;
    location    "0";
    object      uRec;
}
// * * * * * * * * * * * * * * * * * * * * * * * * * * * * * * * * * * * * * //

dimensions      [0 1 -1 0 0 0 0];


internalField   nonuniform List<vector> 
4000
(
(1 2.15372e-16 0)
(1 2.30292e-15 0)
(1 -5.1272e-16 0)
(1 -1.58495e-15 0)
(1 1.75601e-15 0)
(1 2.81469e-16 0)
(1 2.24136e-15 0)
(1 -2.09605e-15 0)
(1 -5.7767e-17 0)
(1 2.48047e-15 0)
(1 -2.40776e-15 0)
(1 -1.69199e-16 0)
(1 1.01142e-15 0)
(1 1.84225e-16 0)
(1 -5.43771e-17 0)
(1 -5.97652e-16 0)
(1 -1.67723e-15 0)
(1 -2.15301e-15 0)
(1 7.03619e-16 0)
(1 -6.66973e-16 0)
(1 -2.00377e-16 0)
(1 1.86975e-15 0)
(1 9.06714e-16 0)
(1 2.5364e-15 0)
(1 2.97343e-16 0)
(1 -4.84547e-16 0)
(1 9.80319e-16 0)
(1 -1.66471e-15 0)
(1 -1.1108e-15 0)
(1 1.34983e-16 0)
(1 3.19571e-16 0)
(1 2.1783e-15 0)
(1 -1.02141e-15 0)
(1 1.53364e-16 0)
(1 1.73266e-15 0)
(1 -3.49051e-16 0)
(1 -3.9497e-16 0)
(1 8.11846e-16 0)
(1 2.4994e-15 0)
(1 -1.57305e-16 0)
(1 1.24161e-15 0)
(1 -1.71868e-15 0)
(1 -6.68656e-16 0)
(1 -6.04462e-16 0)
(1 1.13444e-15 0)
(1 -1.42954e-15 0)
(1 6.32778e-16 0)
(1 1.72105e-16 0)
(1 -4.03064e-16 0)
(1 3.50566e-16 0)
(1 -7.95236e-16 0)
(1 1.19366e-15 0)
(1 -9.06384e-17 0)
(1 1.76823e-15 0)
(1 7.5446e-16 0)
(1 -9.30022e-17 0)
(1 -7.01849e-16 0)
(1 -4.64443e-16 0)
(1 1.19621e-15 0)
(1 3.6049e-15 0)
(1 5.56028e-16 0)
(1 -1.35598e-15 0)
(1 -4.9866e-16 0)
(1 4.56169e-16 0)
(1 1.38458e-16 0)
(1 -2.27629e-16 0)
(1 8.02645e-16 0)
(1 -7.73005e-16 0)
(1 1.17805e-15 0)
(1 -6.60896e-16 0)
(1 -6.76291e-16 0)
(1 -1.16377e-17 0)
(1 5.18871e-16 0)
(1 -2.69044e-16 0)
(1 -5.72737e-16 0)
(1 -2.11195e-15 0)
(1 -4.00583e-16 0)
(1 -8.38867e-16 0)
(1 8.36742e-16 0)
(1 1.51198e-15 0)
(1 2.16929e-16 0)
(1 1.16978e-15 0)
(1 -7.29738e-16 0)
(1 1.64599e-16 0)
(1 -1.10979e-15 0)
(1 -8.87994e-16 0)
(1 -1.029e-15 0)
(1 6.50547e-16 0)
(1 1.46819e-15 0)
(1 7.71352e-16 0)
(1 1.71764e-16 0)
(1 -1.02652e-15 0)
(1 4.06516e-16 0)
(1 1.40003e-15 0)
(1 -1.39836e-15 0)
(1 -2.37626e-15 0)
(1 -2.29663e-16 0)
(1 1.97696e-15 0)
(1 2.44001e-16 0)
(1 -2.16435e-16 0)
(1 2.63979e-16 0)
(1 4.90382e-15 0)
(1 -5.08386e-16 0)
(1 -2.62667e-15 0)
(1 6.18207e-16 0)
(1 1.0458e-15 0)
(1 2.44888e-15 0)
(1 -2.97348e-15 0)
(1 2.07419e-16 0)
(1 1.28654e-15 0)
(1 -7.35734e-16 0)
(1 1.16299e-15 0)
(1 1.79746e-15 0)
(1 -1.21489e-17 0)
(1 -8.1226e-16 0)
(1 2.376e-16 0)
(1 -1.24869e-15 0)
(1 -6.65873e-16 0)
(1 1.5607e-15 0)
(1 -1.00275e-15 0)
(1 -6.61577e-16 0)
(1 6.3039e-16 0)
(1 -7.38663e-16 0)
(1 1.38445e-15 0)
(1 -6.09879e-16 0)
(1 7.21938e-16 0)
(1 2.63173e-15 0)
(1 -1.96019e-15 0)
(1 -1.87993e-15 0)
(1 1.23975e-15 0)
(1 -6.72665e-16 0)
(1 3.09135e-15 0)
(1 -1.23307e-15 0)
(1 -6.59847e-16 0)
(1 1.4544e-15 0)
(1 -1.02231e-15 0)
(1 1.9297e-16 0)
(1 2.80925e-15 0)
(1 2.45239e-15 0)
(1 1.36867e-17 0)
(1 -8.25403e-16 0)
(1 -1.62655e-15 0)
(1 -2.9962e-15 0)
(1 -1.89771e-15 0)
(1 -6.93826e-16 0)
(1 -2.02112e-15 0)
(1 2.56091e-15 0)
(1 2.88895e-15 0)
(1 2.57762e-15 0)
(1 1.23457e-15 0)
(1 -6.91886e-17 0)
(1 9.06551e-17 0)
(1 2.80894e-15 0)
(1 1.6252e-15 0)
(1 1.59476e-15 0)
(1 -3.55636e-17 0)
(1 -3.98508e-16 0)
(1 1.99527e-15 0)
(1 5.15301e-17 0)
(1 -1.43894e-15 0)
(1 -3.4021e-16 0)
(1 6.15863e-16 0)
(1 -8.46203e-17 0)
(1 1.26732e-15 0)
(1 2.31354e-16 0)
(1 1.8605e-15 0)
(1 -1.06334e-15 0)
(1 -1.61947e-15 0)
(1 8.59637e-16 0)
(1 -7.2141e-16 0)
(1 -1.52141e-15 0)
(1 6.53008e-16 0)
(1 1.83244e-15 0)
(1 -1.02627e-15 0)
(1 -3.28569e-16 0)
(1 -3.89911e-16 0)
(1 1.64894e-16 0)
(1 1.81758e-15 0)
(1 3.53512e-16 0)
(1 2.2095e-15 0)
(1 -3.36674e-16 0)
(1 3.87913e-16 0)
(1 2.15239e-15 0)
(1 -7.53508e-16 0)
(1 3.361e-16 0)
(1 -7.47523e-16 0)
(1 -2.41009e-15 0)
(1 -1.58305e-15 0)
(1 2.35977e-16 0)
(1 1.32797e-15 0)
(1 -3.00269e-16 0)
(1 -2.02442e-15 0)
(1 2.26746e-15 0)
(1 1.40984e-15 0)
(1 -3.18678e-15 0)
(1 -2.77215e-15 0)
(1 9.40788e-16 0)
(1 1.85922e-15 0)
(1 -4.88843e-17 0)
(1 -2.26645e-16 0)
(1 5.40931e-16 0)
(1 2.45147e-15 0)
(1 2.10092e-16 0)
(1 -5.70551e-16 0)
(1 -3.01651e-16 0)
(1 1.01945e-15 0)
(1 1.75e-15 0)
(1 4.20668e-15 0)
(1 -1.83408e-15 0)
(1 -1.66263e-15 0)
(1 2.40663e-16 0)
(1 3.26146e-15 0)
(1 2.86041e-15 0)
(1 -4.45362e-16 0)
(1 -3.02357e-16 0)
(1 -5.28736e-16 0)
(1 1.23381e-16 0)
(1 5.86681e-16 0)
(1 5.51599e-16 0)
(1 2.09894e-15 0)
(1 7.27038e-18 0)
(1 -2.56391e-16 0)
(1 -3.15579e-16 0)
(1 3.58068e-16 0)
(1 2.0045e-15 0)
(1 3.21119e-15 0)
(1 2.22006e-15 0)
(1 -1.77088e-15 0)
(1 -1.66962e-15 0)
(1 6.75256e-16 0)
(1 1.14435e-15 0)
(1 -1.64097e-15 0)
(1 6.80952e-16 0)
(1 1.28334e-15 0)
(1 6.3623e-17 0)
(1 1.22917e-16 0)
(1 -6.97586e-16 0)
(1 2.026e-15 0)
(1 2.47762e-15 0)
(1 -4.95827e-16 0)
(1 -1.63234e-15 0)
(1 1.60682e-17 0)
(1 -2.51062e-15 0)
(1 -2.93669e-15 0)
(1 -1.92218e-15 0)
(1 -5.50688e-16 0)
(1 -8.30228e-16 0)
(1 2.63495e-15 0)
(1 4.06418e-15 0)
(1 3.11082e-15 0)
(1 2.36471e-15 0)
(1 1.49598e-15 0)
(1 4.3196e-15 0)
(1 -3.89844e-16 0)
(1 1.41963e-15 0)
(1 -8.31016e-16 0)
(1 1.05326e-15 0)
(1 1.7519e-15 0)
(1 2.14817e-15 0)
(1 -9.82245e-16 0)
(1 -8.02656e-16 0)
(1 1.00194e-15 0)
(1 1.42318e-15 0)
(1 -1.10307e-15 0)
(1 -3.70549e-16 0)
(1 1.20165e-15 0)
(1 -6.8702e-16 0)
(1 7.31386e-16 0)
(1 1.36368e-15 0)
(1 7.29027e-16 0)
(1 9.31093e-16 0)
(1 1.63402e-15 0)
(1 5.794e-16 0)
(1 -2.14557e-15 0)
(1 -1.29918e-15 0)
(1 -2.86368e-16 0)
(1 -5.41895e-17 0)
(1 1.14984e-15 0)
(1 1.3399e-15 0)
(1 -5.84026e-16 0)
(1 -1.8181e-15 0)
(1 -1.06818e-15 0)
(1 1.41189e-15 0)
(1 -3.74996e-16 0)
(1 1.44334e-16 0)
(1 3.57993e-16 0)
(1 -1.84892e-15 0)
(1 -2.24975e-15 0)
(1 -8.77457e-16 0)
(1 1.36707e-15 0)
(1 3.13462e-16 0)
(1 -6.67689e-16 0)
(1 -5.6854e-17 0)
(1 9.08107e-16 0)
(1 -1.31807e-15 0)
(1 -1.57282e-15 0)
(1 1.34303e-15 0)
(1 -1.4755e-15 0)
(1 1.24051e-16 0)
(1 5.34019e-16 0)
(1 3.87067e-16 0)
(1 2.24027e-15 0)
(1 2.03541e-15 0)
(1 -4.34893e-16 0)
(1 2.24075e-16 0)
(1 -1.36303e-15 0)
(1 1.04998e-15 0)
(1 5.60919e-15 0)
(1 7.97104e-16 0)
(1 -1.45196e-17 0)
(1 -5.54927e-16 0)
(1 5.57469e-15 0)
(1 8.47188e-16 0)
(1 -2.2591e-15 0)
(1 2.71596e-15 0)
(1 -1.82621e-15 0)
(1 5.69775e-16 0)
(1 -2.20273e-15 0)
(1 -2.92807e-15 0)
(1 5.04692e-15 0)
(1 -2.66891e-16 0)
(1 2.04557e-15 0)
(1 1.59547e-15 0)
(1 1.2546e-15 0)
(1 4.44526e-15 0)
(1 2.92843e-15 0)
(1 1.24706e-15 0)
(1 -2.91619e-16 0)
(1 -1.43991e-15 0)
(1 1.71364e-15 0)
(1 -4.25635e-16 0)
(1 -6.74392e-16 0)
(1 -1.58851e-16 0)
(1 2.70072e-15 0)
(1 1.85566e-15 0)
(1 7.58901e-16 0)
(1 -1.0174e-15 0)
(1 -7.20249e-16 0)
(1 2.2215e-15 0)
(1 1.29823e-15 0)
(1 1.36572e-15 0)
(1 -9.03596e-16 0)
(1 -2.50282e-15 0)
(1 -2.54237e-15 0)
(1 -3.75594e-16 0)
(1 1.13001e-15 0)
(1 -3.01164e-16 0)
(1 1.63874e-15 0)
(1 3.89225e-15 0)
(1 3.56436e-15 0)
(1 3.85114e-15 0)
(1 2.18905e-15 0)
(1 1.79447e-15 0)
(1 1.04526e-15 0)
(1 1.39912e-15 0)
(1 -2.28228e-16 0)
(1 1.23099e-15 0)
(1 1.98843e-15 0)
(1 2.00919e-15 0)
(1 3.70582e-15 0)
(1 9.89916e-16 0)
(1 -3.9662e-16 0)
(1 -4.37955e-16 0)
(1 4.38765e-16 0)
(1 -1.72893e-15 0)
(1 -4.14294e-16 0)
(1 -1.45841e-15 0)
(1 2.94436e-15 0)
(1 1.01092e-15 0)
(1 8.20648e-16 0)
(1 1.50717e-15 0)
(1 7.11066e-16 0)
(1 -3.26333e-17 0)
(1 -1.2226e-15 0)
(1 -2.60067e-15 0)
(1 -9.96262e-16 0)
(1 1.70829e-15 0)
(1 2.09258e-16 0)
(1 1.48779e-15 0)
(1 2.47225e-15 0)
(1 -1.9088e-15 0)
(1 8.54861e-16 0)
(1 -8.59077e-17 0)
(1 3.10638e-16 0)
(1 7.13739e-16 0)
(1 -9.95743e-16 0)
(1 -1.6808e-16 0)
(1 -1.62903e-15 0)
(1 6.6502e-17 0)
(1 3.86008e-16 0)
(1 -8.33993e-16 0)
(1 3.73843e-16 0)
(1 -5.4551e-16 0)
(1 8.28012e-16 0)
(1 7.48709e-16 0)
(1 -7.04608e-16 0)
(1 -3.78588e-16 0)
(1 -7.07176e-16 0)
(1 -1.48238e-15 0)
(1 -1.03572e-15 0)
(1 7.41031e-16 0)
(1 1.17334e-16 0)
(1 1.46738e-15 0)
(1 -8.46799e-16 0)
(1 1.13469e-16 0)
(1 1.30457e-15 0)
(1 4.78591e-16 0)
(1 5.35994e-16 0)
(1 5.51729e-15 0)
(1 2.96644e-15 0)
(1 2.55772e-15 0)
(1 3.10101e-15 0)
(1 -1.18584e-15 0)
(1 -3.60496e-15 0)
(1 1.28326e-15 0)
(1 1.03732e-15 0)
(1 3.79759e-15 0)
(1 2.52281e-15 0)
(1 3.14787e-16 0)
(1 -8.8809e-16 0)
(1 -8.25782e-16 0)
(1 -1.29034e-15 0)
(1 3.2091e-15 0)
(1 4.97552e-15 0)
(1 2.1068e-15 0)
(1 4.13668e-16 0)
(1 -4.90267e-16 0)
(1 5.65732e-16 0)
(1 8.42769e-16 0)
(1 -1.28359e-15 0)
(1 1.14545e-15 0)
(1 2.04049e-15 0)
(1 -9.76635e-16 0)
(1 2.33317e-15 0)
(1 -1.19624e-15 0)
(1 -1.55181e-15 0)
(1 -9.36103e-16 0)
(1 -2.90913e-16 0)
(1 1.0868e-15 0)
(1 2.43031e-15 0)
(1 1.4021e-15 0)
(1 3.94492e-17 0)
(1 -3.3161e-15 0)
(1 -4.33475e-16 0)
(1 -2.57534e-15 0)
(1 1.13294e-15 0)
(1 3.46926e-15 0)
(1 4.5997e-15 0)
(1 3.57199e-15 0)
(1 1.52258e-15 0)
(1 3.92489e-15 0)
(1 1.02308e-15 0)
(1 1.01082e-15 0)
(1 2.51267e-15 0)
(1 3.04298e-15 0)
(1 3.12709e-15 0)
(1 1.46015e-15 0)
(1 1.94346e-15 0)
(1 -1.25334e-15 0)
(1 -2.14526e-15 0)
(1 2.45435e-15 0)
(1 5.79651e-16 0)
(1 1.25777e-15 0)
(1 8.00677e-16 0)
(1 2.49377e-16 0)
(1 -3.01469e-16 0)
(1 -1.04486e-15 0)
(1 2.16973e-15 0)
(1 2.39873e-16 0)
(1 2.2639e-15 0)
(1 9.59569e-16 0)
(1 1.00738e-15 0)
(1 2.22404e-15 0)
(1 2.50868e-16 0)
(1 -1.27527e-15 0)
(1 -1.58686e-16 0)
(1 1.67871e-15 0)
(1 3.21107e-15 0)
(1 1.53636e-15 0)
(1 3.95096e-16 0)
(1 -7.30978e-16 0)
(1 4.69099e-16 0)
(1 2.94967e-16 0)
(1 -6.95727e-16 0)
(1 1.1165e-15 0)
(1 -2.31458e-15 0)
(1 -1.92877e-16 0)
(1 -9.56474e-16 0)
(1 -1.91895e-15 0)
(1 -2.91411e-16 0)
(1 -1.0409e-15 0)
(1 -6.08594e-16 0)
(1 1.13001e-15 0)
(1 -2.13995e-16 0)
(1 1.42794e-15 0)
(1 4.48847e-16 0)
(1 -1.06093e-15 0)
(1 -1.01414e-16 0)
(1 -2.93899e-15 0)
(1 -1.41381e-15 0)
(1 -1.53077e-16 0)
(1 -2.61963e-15 0)
(1 1.242e-15 0)
(1 1.55978e-15 0)
(1 5.72997e-16 0)
(1 2.43505e-15 0)
(1 1.13639e-15 0)
(1 1.90686e-15 0)
(1 3.21942e-15 0)
(1 3.76254e-15 0)
(1 5.98441e-15 0)
(1 1.30283e-15 0)
(1 -2.24714e-15 0)
(1 1.15918e-15 0)
(1 7.4727e-16 0)
(1 6.85613e-16 0)
(1 3.16419e-16 0)
(1 2.2264e-16 0)
(1 1.65414e-15 0)
(1 -8.12344e-16 0)
(1 1.87113e-15 0)
(1 -1.58786e-15 0)
(1 4.33575e-15 0)
(1 3.0328e-15 0)
(1 -9.88599e-17 0)
(1 2.66592e-15 0)
(1 9.39585e-16 0)
(1 -1.61075e-15 0)
(1 2.708e-16 0)
(1 -1.12274e-15 0)
(1 1.46036e-16 0)
(1 -4.91457e-16 0)
(1 1.04087e-15 0)
(1 1.50977e-15 0)
(1 -2.36031e-15 0)
(1 1.38828e-15 0)
(1 3.56543e-15 0)
(1 3.11559e-15 0)
(1 6.51506e-16 0)
(1 -1.31431e-15 0)
(1 1.64608e-15 0)
(1 -4.37095e-17 0)
(1 -1.33126e-15 0)
(1 -1.41431e-15 0)
(1 -1.13011e-16 0)
(1 1.43066e-15 0)
(1 8.65934e-16 0)
(1 3.54602e-15 0)
(1 3.56433e-15 0)
(1 4.11914e-15 0)
(1 2.19224e-15 0)
(1 1.83452e-15 0)
(1 2.74683e-15 0)
(1 3.4e-15 0)
(1 2.4986e-15 0)
(1 2.74696e-15 0)
(1 3.42992e-15 0)
(1 3.14916e-15 0)
(1 2.88338e-15 0)
(1 2.79557e-15 0)
(1 2.94734e-15 0)
(1 -7.89196e-16 0)
(1 2.75175e-16 0)
(1 -1.35495e-15 0)
(1 1.12499e-15 0)
(1 2.99584e-16 0)
(1 3.96209e-15 0)
(1 2.58571e-15 0)
(1 2.31095e-15 0)
(1 2.44568e-15 0)
(1 2.33597e-15 0)
(1 1.98741e-15 0)
(1 2.47315e-15 0)
(1 -1.18316e-16 0)
(1 -2.14734e-15 0)
(1 -1.34167e-15 0)
(1 2.57531e-16 0)
(1 3.93704e-15 0)
(1 1.23683e-15 0)
(1 -1.89268e-15 0)
(1 -3.68996e-16 0)
(1 1.38988e-15 0)
(1 -9.64338e-16 0)
(1 4.49466e-16 0)
(1 -2.39029e-16 0)
(1 -1.61257e-15 0)
(1 -7.49008e-16 0)
(1 -2.61849e-15 0)
(1 -2.45486e-15 0)
(1 -4.82924e-16 0)
(1 -3.44835e-16 0)
(1 -5.89348e-16 0)
(1 1.41204e-15 0)
(1 2.00402e-15 0)
(1 3.28755e-15 0)
(1 2.16698e-15 0)
(1 2.0892e-16 0)
(1 -1.90344e-15 0)
(1 -3.03467e-16 0)
(1 9.44908e-16 0)
(1 -1.06885e-15 0)
(1 -5.00654e-16 0)
(1 3.23514e-15 0)
(1 -8.97508e-17 0)
(1 2.82462e-15 0)
(1 -6.75315e-16 0)
(1 -2.27228e-16 0)
(1 3.68086e-15 0)
(1 1.79218e-15 0)
(1 2.1037e-15 0)
(1 4.97647e-15 0)
(1 2.92894e-16 0)
(1 8.25895e-16 0)
(1 3.69301e-15 0)
(1 1.22169e-15 0)
(1 4.64718e-15 0)
(1 3.36474e-15 0)
(1 -2.54765e-16 0)
(1 1.12033e-15 0)
(1 2.24548e-15 0)
(1 2.87532e-15 0)
(1 -3.90032e-15 0)
(1 2.52258e-15 0)
(1 -7.23587e-16 0)
(1 4.21768e-16 0)
(1 6.78942e-16 0)
(1 -7.70457e-16 0)
(1 -7.4779e-16 0)
(1 6.22868e-16 0)
(1 3.3608e-15 0)
(1 -4.62865e-16 0)
(1 1.00962e-15 0)
(1 1.62784e-15 0)
(1 -4.51967e-16 0)
(1 -9.17237e-16 0)
(1 3.04923e-15 0)
(1 4.64716e-15 0)
(1 2.04299e-15 0)
(1 -2.52064e-15 0)
(1 -1.4412e-15 0)
(1 1.00395e-15 0)
(1 -2.15033e-15 0)
(1 2.12029e-15 0)
(1 -6.13159e-16 0)
(1 2.04096e-15 0)
(1 1.38818e-15 0)
(1 1.82411e-15 0)
(1 1.49173e-15 0)
(1 2.46811e-15 0)
(1 6.05146e-15 0)
(1 2.41989e-15 0)
(1 1.51803e-15 0)
(1 2.6051e-15 0)
(1 5.16836e-15 0)
(1 2.92209e-15 0)
(1 1.26368e-15 0)
(1 1.34804e-15 0)
(1 3.0477e-15 0)
(1 3.56416e-15 0)
(1 4.09125e-15 0)
(1 -1.53449e-16 0)
(1 6.81892e-16 0)
(1 -1.29606e-16 0)
(1 8.20056e-16 0)
(1 -9.91016e-17 0)
(1 -8.04576e-16 0)
(1 -4.25635e-16 0)
(1 2.85726e-15 0)
(1 2.71708e-15 0)
(1 3.05936e-16 0)
(1 2.94551e-15 0)
(1 3.17868e-15 0)
(1 6.5677e-16 0)
(1 1.83013e-16 0)
(1 5.9274e-16 0)
(1 2.13931e-15 0)
(1 1.36234e-15 0)
(1 1.91538e-15 0)
(1 1.31739e-15 0)
(1 7.40195e-16 0)
(1 9.25145e-16 0)
(1 8.87811e-16 0)
(1 3.83331e-16 0)
(1 -1.56132e-17 0)
(1 -4.19172e-16 0)
(1 2.7678e-16 0)
(1 -8.13514e-16 0)
(1 -6.99505e-16 0)
(1 6.80014e-16 0)
(1 -1.28522e-15 0)
(1 -6.20832e-16 0)
(1 9.66501e-16 0)
(1 1.86794e-15 0)
(1 2.17974e-15 0)
(1 1.27499e-15 0)
(1 2.87641e-15 0)
(1 -7.16642e-17 0)
(1 -1.01017e-15 0)
(1 1.24044e-15 0)
(1 7.32009e-16 0)
(1 -5.9033e-16 0)
(1 -1.15849e-16 0)
(1 1.32094e-15 0)
(1 1.65046e-17 0)
(1 2.97445e-15 0)
(1 7.37516e-16 0)
(1 -3.16077e-16 0)
(1 1.46472e-15 0)
(1 4.25569e-15 0)
(1 6.12174e-15 0)
(1 2.57167e-15 0)
(1 -2.56358e-15 0)
(1 2.92767e-15 0)
(1 6.95934e-16 0)
(1 1.00213e-15 0)
(1 5.20297e-15 0)
(1 1.85899e-15 0)
(1 6.31415e-15 0)
(1 4.20869e-15 0)
(1 -1.43377e-15 0)
(1 -1.61274e-15 0)
(1 -3.16353e-15 0)
(1 -2.01791e-15 0)
(1 1.23655e-15 0)
(1 1.65557e-15 0)
(1 -2.71632e-15 0)
(1 -2.4072e-15 0)
(1 9.53821e-16 0)
(1 -1.32135e-16 0)
(1 1.65359e-15 0)
(1 5.03563e-15 0)
(1 1.67174e-15 0)
(1 2.67213e-16 0)
(1 -1.60921e-15 0)
(1 -6.29069e-16 0)
(1 -6.20863e-16 0)
(1 -1.06137e-15 0)
(1 7.83895e-16 0)
(1 1.14185e-15 0)
(1 4.60448e-15 0)
(1 -3.97451e-16 0)
(1 -2.5383e-18 0)
(1 4.12383e-15 0)
(1 1.28167e-15 0)
(1 3.97776e-16 0)
(1 2.7021e-15 0)
(1 3.9806e-15 0)
(1 4.21688e-15 0)
(1 1.89019e-16 0)
(1 2.34371e-15 0)
(1 4.49213e-15 0)
(1 3.57329e-15 0)
(1 6.20795e-16 0)
(1 4.10215e-15 0)
(1 5.47811e-15 0)
(1 5.51962e-15 0)
(1 2.19417e-15 0)
(1 -2.74155e-16 0)
(1 5.1688e-15 0)
(1 1.16061e-15 0)
(1 -1.66047e-15 0)
(1 1.50397e-15 0)
(1 2.72435e-15 0)
(1 2.40086e-15 0)
(1 4.19191e-16 0)
(1 2.10298e-15 0)
(1 2.30252e-15 0)
(1 -4.76288e-16 0)
(1 2.5206e-15 0)
(1 2.35712e-15 0)
(1 4.22458e-15 0)
(1 3.70109e-15 0)
(1 1.72193e-15 0)
(1 3.76024e-16 0)
(1 1.2088e-15 0)
(1 4.14081e-15 0)
(1 2.31853e-15 0)
(1 -2.7147e-16 0)
(1 -4.78539e-17 0)
(1 -1.41176e-15 0)
(1 1.03419e-15 0)
(1 -1.30509e-15 0)
(1 4.47607e-16 0)
(1 1.34831e-15 0)
(1 -3.42722e-15 0)
(1 -5.54408e-16 0)
(1 -5.44581e-17 0)
(1 1.42565e-15 0)
(1 1.09388e-15 0)
(1 -3.75811e-15 0)
(1 -2.03749e-15 0)
(1 1.01265e-15 0)
(1 5.63791e-16 0)
(1 2.32797e-15 0)
(1 2.51498e-15 0)
(1 2.87978e-15 0)
(1 -1.00876e-15 0)
(1 -4.33547e-16 0)
(1 1.25797e-15 0)
(1 1.63529e-15 0)
(1 -2.42639e-16 0)
(1 9.7311e-16 0)
(1 -1.04295e-15 0)
(1 4.17217e-16 0)
(1 -5.74247e-16 0)
(1 2.88309e-15 0)
(1 5.21953e-16 0)
(1 -9.92393e-16 0)
(1 3.20786e-15 0)
(1 5.06404e-15 0)
(1 3.08424e-15 0)
(1 3.26751e-15 0)
(1 2.38668e-15 0)
(1 2.79623e-15 0)
(1 2.30962e-15 0)
(1 2.64189e-15 0)
(1 2.47144e-15 0)
(1 4.55995e-15 0)
(1 4.10978e-15 0)
(1 -1.281e-15 0)
(1 -4.44821e-15 0)
(1 1.5068e-15 0)
(1 -2.10443e-15 0)
(1 1.46557e-16 0)
(1 8.29526e-16 0)
(1 -2.21229e-15 0)
(1 1.65022e-16 0)
(1 -3.14859e-15 0)
(1 -2.03359e-15 0)
(1 1.72707e-15 0)
(1 3.27087e-15 0)
(1 -1.72419e-16 0)
(1 1.89594e-15 0)
(1 1.36645e-15 0)
(1 -2.53817e-16 0)
(1 4.58995e-17 0)
(1 -1.14614e-15 0)
(1 2.13387e-15 0)
(1 1.84639e-15 0)
(1 3.22229e-15 0)
(1 -1.26706e-15 0)
(1 1.78201e-15 0)
(1 2.78236e-15 0)
(1 1.90847e-15 0)
(1 4.20701e-15 0)
(1 1.4531e-15 0)
(1 2.7597e-15 0)
(1 2.66764e-15 0)
(1 -5.38423e-16 0)
(1 3.00075e-16 0)
(1 3.81011e-15 0)
(1 5.25137e-15 0)
(1 2.65279e-15 0)
(1 4.24777e-15 0)
(1 6.2902e-15 0)
(1 5.55559e-15 0)
(1 5.41721e-15 0)
(1 1.35449e-15 0)
(1 5.37815e-15 0)
(1 1.08333e-15 0)
(1 2.46388e-15 0)
(1 1.97365e-15 0)
(1 -7.8943e-16 0)
(1 2.16953e-15 0)
(1 -2.67938e-15 0)
(1 2.14921e-15 0)
(1 5.07677e-15 0)
(1 -2.51459e-16 0)
(1 5.48919e-15 0)
(1 5.48804e-15 0)
(1 5.56003e-15 0)
(1 1.71086e-15 0)
(1 2.6497e-15 0)
(1 1.28797e-15 0)
(1 -3.74237e-16 0)
(1 2.34198e-15 0)
(1 1.32426e-15 0)
(1 -1.87848e-16 0)
(1 -1.97745e-15 0)
(1 1.8507e-15 0)
(1 2.11573e-15 0)
(1 2.92126e-15 0)
(1 -4.3291e-16 0)
(1 1.55603e-15 0)
(1 -2.7909e-15 0)
(1 -2.45157e-15 0)
(1 -2.20782e-15 0)
(1 -6.41136e-16 0)
(1 -6.9085e-16 0)
(1 -6.22216e-16 0)
(1 -5.90853e-16 0)
(1 5.73874e-16 0)
(1 2.26582e-15 0)
(1 4.09529e-15 0)
(1 5.13522e-15 0)
(1 3.58576e-15 0)
(1 1.29652e-15 0)
(1 -5.22487e-16 0)
(1 3.11856e-15 0)
(1 3.87947e-15 0)
(1 4.53015e-16 0)
(1 7.29334e-16 0)
(1 4.94442e-16 0)
(1 1.08188e-16 0)
(1 1.00222e-15 0)
(1 9.28433e-16 0)
(1 2.15482e-15 0)
(1 2.291e-15 0)
(1 2.59923e-15 0)
(1 2.914e-15 0)
(1 1.51992e-15 0)
(1 7.27279e-15 0)
(1 3.54895e-15 0)
(1 1.71492e-15 0)
(1 3.08341e-15 0)
(1 1.02703e-15 0)
(1 1.61325e-15 0)
(1 1.90608e-15 0)
(1 1.35874e-15 0)
(1 1.2321e-15 0)
(1 -2.00124e-15 0)
(1 2.25374e-16 0)
(1 -1.2627e-15 0)
(1 -1.30962e-15 0)
(1 1.25876e-15 0)
(1 1.26934e-15 0)
(1 -6.93472e-16 0)
(1 -3.78872e-15 0)
(1 5.71115e-17 0)
(1 -9.62426e-16 0)
(1 -9.21906e-16 0)
(1 2.67382e-15 0)
(1 2.59241e-15 0)
(1 2.16904e-15 0)
(1 2.32292e-15 0)
(1 -2.96233e-17 0)
(1 -2.16563e-15 0)
(1 -1.84193e-15 0)
(1 -1.23869e-15 0)
(1 -7.18417e-16 0)
(1 -2.63525e-16 0)
(1 3.45027e-15 0)
(1 2.47179e-15 0)
(1 4.12914e-15 0)
(1 5.75209e-15 0)
(1 2.71322e-15 0)
(1 1.53321e-15 0)
(1 8.67126e-16 0)
(1 3.34624e-15 0)
(1 3.78042e-15 0)
(1 2.31615e-15 0)
(1 1.10551e-15 0)
(1 3.39596e-15 0)
(1 5.38684e-15 0)
(1 6.5036e-15 0)
(1 4.72585e-15 0)
(1 2.80358e-15 0)
(1 1.14335e-15 0)
(1 2.70084e-15 0)
(1 2.76046e-15 0)
(1 3.98866e-15 0)
(1 5.96792e-15 0)
(1 3.34112e-15 0)
(1 2.05592e-15 0)
(1 2.69061e-15 0)
(1 -1.46557e-17 0)
(1 2.5856e-15 0)
(1 2.75477e-15 0)
(1 3.42511e-15 0)
(1 3.63145e-15 0)
(1 4.25359e-15 0)
(1 3.20089e-15 0)
(1 1.8508e-15 0)
(1 1.03514e-15 0)
(1 1.15265e-15 0)
(1 1.71514e-15 0)
(1 2.66525e-15 0)
(1 -3.90909e-16 0)
(1 1.46231e-16 0)
(1 5.79739e-16 0)
(1 1.63411e-15 0)
(1 8.34114e-16 0)
(1 -4.50483e-16 0)
(1 -1.26753e-17 0)
(1 -1.1646e-15 0)
(1 -2.64158e-15 0)
(1 -7.89039e-16 0)
(1 -4.98025e-16 0)
(1 -1.23207e-15 0)
(1 -2.43361e-16 0)
(1 2.94925e-15 0)
(1 -8.99365e-16 0)
(1 3.66933e-15 0)
(1 -9.51234e-16 0)
(1 5.0176e-15 0)
(1 2.70385e-15 0)
(1 1.17851e-15 0)
(1 3.4911e-15 0)
(1 4.37079e-15 0)
(1 3.73246e-15 0)
(1 3.77697e-16 0)
(1 -1.21487e-15 0)
(1 1.44369e-15 0)
(1 2.42389e-15 0)
(1 7.63374e-16 0)
(1 -8.98048e-16 0)
(1 3.19006e-15 0)
(1 3.0312e-15 0)
(1 3.7949e-15 0)
(1 2.69372e-15 0)
(1 -1.03495e-15 0)
(1 4.40828e-15 0)
(1 1.27949e-15 0)
(1 3.29923e-15 0)
(1 2.20642e-15 0)
(1 -1.35015e-16 0)
(1 1.67109e-16 0)
(1 1.36617e-15 0)
(1 3.21707e-15 0)
(1 2.42755e-15 0)
(1 -1.55191e-15 0)
(1 -2.14721e-16 0)
(1 -3.05239e-15 0)
(1 -6.63096e-16 0)
(1 -3.90351e-15 0)
(1 4.52349e-15 0)
(1 4.38982e-15 0)
(1 2.42582e-15 0)
(1 2.24045e-15 0)
(1 -4.16951e-15 0)
(1 -3.29798e-15 0)
(1 -1.45008e-16 0)
(1 -1.86368e-16 0)
(1 -1.52547e-16 0)
(1 3.02891e-15 0)
(1 -6.8087e-16 0)
(1 -1.97848e-16 0)
(1 -4.0134e-15 0)
(1 -1.2989e-15 0)
(1 -2.4496e-16 0)
(1 4.6927e-15 0)
(1 3.50292e-15 0)
(1 1.10191e-15 0)
(1 2.58421e-15 0)
(1 3.77287e-15 0)
(1 3.74856e-15 0)
(1 2.32322e-15 0)
(1 2.22101e-15 0)
(1 6.37829e-15 0)
(1 3.88298e-15 0)
(1 8.18104e-16 0)
(1 1.26154e-15 0)
(1 4.68561e-15 0)
(1 6.07862e-15 0)
(1 6.62333e-15 0)
(1 4.90664e-15 0)
(1 5.7823e-15 0)
(1 1.99795e-15 0)
(1 5.32961e-15 0)
(1 2.9217e-15 0)
(1 3.62809e-15 0)
(1 2.49333e-15 0)
(1 3.05981e-15 0)
(1 1.04169e-15 0)
(1 4.35166e-15 0)
(1 4.52564e-15 0)
(1 2.00843e-15 0)
(1 3.62392e-15 0)
(1 -2.22222e-16 0)
(1 9.91661e-16 0)
(1 3.25046e-15 0)
(1 3.09054e-15 0)
(1 1.61177e-15 0)
(1 1.66748e-15 0)
(1 -2.75584e-16 0)
(1 -2.0631e-15 0)
(1 3.46593e-15 0)
(1 2.10717e-15 0)
(1 -6.0004e-16 0)
(1 -1.26286e-15 0)
(1 1.93276e-15 0)
(1 4.12357e-16 0)
(1 4.81745e-15 0)
(1 -5.34588e-16 0)
(1 -1.48879e-15 0)
(1 -6.38102e-16 0)
(1 1.42941e-16 0)
(1 -1.54251e-15 0)
(1 -1.70036e-15 0)
(1 -2.726e-15 0)
(1 2.96817e-15 0)
(1 2.7664e-16 0)
(1 8.21035e-16 0)
(1 6.98315e-16 0)
(1 1.68493e-15 0)
(1 2.7366e-15 0)
(1 2.00822e-15 0)
(1 5.6902e-15 0)
(1 2.06179e-15 0)
(1 1.74908e-15 0)
(1 -1.44346e-16 0)
(1 1.46195e-16 0)
(1 1.41449e-15 0)
(1 2.61559e-15 0)
(1 -7.6873e-16 0)
(1 8.90455e-16 0)
(1 -6.69366e-16 0)
(1 2.02511e-15 0)
(1 2.953e-15 0)
(1 3.7111e-15 0)
(1 3.99261e-15 0)
(1 2.94663e-16 0)
(1 -1.47117e-15 0)
(1 2.0321e-15 0)
(1 2.39051e-15 0)
(1 2.82891e-15 0)
(1 3.05789e-15 0)
(1 7.37283e-16 0)
(1 2.51316e-15 0)
(1 2.07121e-15 0)
(1 -7.48436e-17 0)
(1 4.70227e-16 0)
(1 -1.46492e-15 0)
(1 -2.28161e-15 0)
(1 -1.02557e-15 0)
(1 -1.29766e-15 0)
(1 2.44996e-15 0)
(1 1.88474e-15 0)
(1 1.852e-15 0)
(1 -1.22023e-15 0)
(1 2.66315e-16 0)
(1 1.38001e-15 0)
(1 -1.57363e-15 0)
(1 -2.34142e-15 0)
(1 -2.95385e-15 0)
(1 -9.06828e-16 0)
(1 2.24907e-15 0)
(1 -3.42601e-15 0)
(1 -8.00857e-16 0)
(1 1.79096e-17 0)
(1 3.86799e-15 0)
(1 1.36681e-15 0)
(1 -1.25324e-15 0)
(1 1.4715e-15 0)
(1 5.80336e-15 0)
(1 4.4549e-15 0)
(1 5.56896e-15 0)
(1 2.48865e-15 0)
(1 2.42967e-15 0)
(1 4.08566e-15 0)
(1 1.48096e-15 0)
(1 3.79453e-15 0)
(1 4.84353e-15 0)
(1 6.40649e-15 0)
(1 6.21542e-15 0)
(1 6.9878e-16 0)
(1 2.90515e-15 0)
(1 4.3015e-15 0)
(1 4.59007e-15 0)
(1 3.19178e-15 0)
(1 4.72834e-15 0)
(1 2.92592e-15 0)
(1 4.44811e-15 0)
(1 3.92449e-15 0)
(1 7.25389e-16 0)
(1 1.95966e-15 0)
(1 1.46734e-15 0)
(1 2.59965e-15 0)
(1 2.66203e-15 0)
(1 8.35661e-16 0)
(1 4.13375e-15 0)
(1 2.58007e-15 0)
(1 -9.22267e-16 0)
(1 1.79542e-15 0)
(1 2.60341e-15 0)
(1 -5.07164e-17 0)
(1 1.31298e-15 0)
(1 -5.58225e-16 0)
(1 -1.64315e-15 0)
(1 3.87956e-16 0)
(1 3.68192e-15 0)
(1 1.62833e-15 0)
(1 2.15754e-15 0)
(1 -1.71689e-15 0)
(1 -1.01705e-15 0)
(1 1.68247e-15 0)
(1 -2.19959e-15 0)
(1 -2.16091e-15 0)
(1 -1.77483e-15 0)
(1 2.87061e-15 0)
(1 1.9449e-15 0)
(1 2.0999e-15 0)
(1 -7.17302e-16 0)
(1 2.58192e-15 0)
(1 1.725e-16 0)
(1 3.47774e-15 0)
(1 3.98988e-15 0)
(1 3.57727e-15 0)
(1 1.40446e-15 0)
(1 5.91204e-16 0)
(1 1.09959e-15 0)
(1 4.79477e-16 0)
(1 4.65468e-16 0)
(1 1.14886e-15 0)
(1 2.14504e-15 0)
(1 2.32269e-15 0)
(1 2.06269e-15 0)
(1 2.21032e-15 0)
(1 2.32424e-16 0)
(1 4.89627e-15 0)
(1 7.76916e-15 0)
(1 3.27318e-15 0)
(1 -1.00358e-16 0)
(1 -7.81455e-16 0)
(1 8.5996e-16 0)
(1 -5.90093e-16 0)
(1 -1.5369e-15 0)
(1 -9.99177e-16 0)
(1 1.22362e-15 0)
(1 9.14226e-16 0)
(1 3.14884e-15 0)
(1 3.04976e-15 0)
(1 6.70457e-16 0)
(1 -5.99927e-15 0)
(1 5.39591e-15 0)
(1 -1.08589e-15 0)
(1 -3.83472e-15 0)
(1 -8.6257e-16 0)
(1 -1.38357e-15 0)
(1 1.87307e-15 0)
(1 -5.82348e-16 0)
(1 2.48881e-15 0)
(1 -2.16483e-15 0)
(1 -1.8706e-15 0)
(1 5.81703e-16 0)
(1 2.16975e-16 0)
(1 6.89797e-16 0)
(1 -2.28175e-15 0)
(1 -4.31642e-16 0)
(1 1.9434e-15 0)
(1 3.44589e-16 0)
(1 1.92187e-15 0)
(1 -2.05798e-15 0)
(1 2.38338e-15 0)
(1 2.09181e-15 0)
(1 5.34684e-15 0)
(1 7.00789e-15 0)
(1 3.99748e-15 0)
(1 5.59376e-16 0)
(1 2.6108e-15 0)
(1 2.6035e-15 0)
(1 3.15258e-15 0)
(1 6.78216e-15 0)
(1 7.1725e-15 0)
(1 4.52734e-15 0)
(1 4.61625e-15 0)
(1 1.63766e-15 0)
(1 6.09004e-15 0)
(1 1.6105e-16 0)
(1 2.94911e-15 0)
(1 2.23981e-15 0)
(1 4.5545e-15 0)
(1 5.04488e-15 0)
(1 5.55967e-15 0)
(1 3.19522e-15 0)
(1 1.05198e-15 0)
(1 2.79339e-15 0)
(1 2.20007e-15 0)
(1 7.17435e-16 0)
(1 1.18354e-15 0)
(1 -6.87395e-16 0)
(1 2.16467e-15 0)
(1 2.09651e-15 0)
(1 1.60271e-15 0)
(1 2.36187e-15 0)
(1 1.51324e-15 0)
(1 -1.02118e-15 0)
(1 -1.38582e-15 0)
(1 2.89075e-15 0)
(1 1.64015e-15 0)
(1 -8.37411e-16 0)
(1 -1.48692e-15 0)
(1 -1.23959e-15 0)
(1 1.00006e-17 0)
(1 2.3435e-16 0)
(1 1.75005e-15 0)
(1 -1.83469e-15 0)
(1 3.09274e-16 0)
(1 -1.01255e-15 0)
(1 2.52918e-15 0)
(1 1.38772e-16 0)
(1 -8.9358e-17 0)
(1 1.27071e-15 0)
(1 -1.34866e-15 0)
(1 1.45306e-15 0)
(1 3.40184e-15 0)
(1 1.15543e-15 0)
(1 1.42841e-15 0)
(1 5.97063e-16 0)
(1 3.29783e-16 0)
(1 2.34749e-16 0)
(1 8.95061e-16 0)
(1 -1.03414e-15 0)
(1 2.34099e-15 0)
(1 3.14177e-15 0)
(1 4.67817e-15 0)
(1 3.01354e-15 0)
(1 1.67517e-15 0)
(1 -1.37452e-15 0)
(1 2.33917e-16 0)
(1 3.8635e-15 0)
(1 4.31955e-15 0)
(1 3.82894e-15 0)
(1 2.25541e-15 0)
(1 -1.25534e-15 0)
(1 -1.85639e-15 0)
(1 -2.98911e-15 0)
(1 -1.12084e-15 0)
(1 -8.5715e-16 0)
(1 -1.1449e-15 0)
(1 4.24956e-15 0)
(1 2.90258e-15 0)
(1 4.45155e-15 0)
(1 -1.76862e-15 0)
(1 -5.38721e-16 0)
(1 -4.29368e-17 0)
(1 -1.63351e-15 0)
(1 -3.11787e-15 0)
(1 5.64272e-16 0)
(1 1.3982e-15 0)
(1 7.1929e-16 0)
(1 -3.35605e-15 0)
(1 -1.01663e-15 0)
(1 6.8658e-16 0)
(1 -1.26035e-15 0)
(1 -3.07874e-15 0)
(1 -3.40431e-16 0)
(1 -2.16766e-15 0)
(1 2.1379e-15 0)
(1 7.10501e-16 0)
(1 6.81739e-16 0)
(1 -2.85913e-16 0)
(1 4.66466e-15 0)
(1 5.16623e-15 0)
(1 1.00495e-15 0)
(1 4.51182e-15 0)
(1 9.39654e-16 0)
(1 6.32628e-15 0)
(1 1.84466e-15 0)
(1 6.6431e-16 0)
(1 1.08969e-15 0)
(1 4.90596e-16 0)
(1 6.09274e-15 0)
(1 6.03227e-15 0)
(1 1.76377e-15 0)
(1 7.01198e-15 0)
(1 5.41701e-15 0)
(1 4.59448e-15 0)
(1 2.37255e-15 0)
(1 1.89566e-15 0)
(1 3.16885e-15 0)
(1 2.65378e-15 0)
(1 1.57593e-15 0)
(1 3.92408e-15 0)
(1 5.01269e-15 0)
(1 3.91817e-15 0)
(1 2.6528e-15 0)
(1 3.6887e-15 0)
(1 8.51023e-16 0)
(1 2.26192e-15 0)
(1 -6.30175e-17 0)
(1 3.29535e-15 0)
(1 4.07935e-15 0)
(1 1.65911e-15 0)
(1 7.11118e-16 0)
(1 1.94164e-15 0)
(1 3.66961e-16 0)
(1 3.04002e-15 0)
(1 2.78162e-15 0)
(1 -9.27856e-16 0)
(1 -1.15012e-15 0)
(1 5.42506e-17 0)
(1 -2.39967e-15 0)
(1 6.52558e-16 0)
(1 7.60078e-17 0)
(1 -1.12024e-15 0)
(1 -2.17558e-15 0)
(1 1.23142e-15 0)
(1 1.53585e-15 0)
(1 9.98577e-16 0)
(1 1.12183e-15 0)
(1 -7.62524e-16 0)
(1 1.02329e-15 0)
(1 1.73135e-15 0)
(1 1.03167e-15 0)
(1 1.42794e-15 0)
(1 -3.51041e-17 0)
(1 3.82162e-15 0)
(1 5.21684e-16 0)
(1 -1.65767e-15 0)
(1 -7.15579e-17 0)
(1 2.62599e-15 0)
(1 1.33572e-15 0)
(1 4.379e-15 0)
(1 1.13458e-15 0)
(1 2.67852e-15 0)
(1 -8.84198e-16 0)
(1 -1.56486e-16 0)
(1 3.01716e-15 0)
(1 3.03629e-16 0)
(1 4.22991e-15 0)
(1 3.40152e-15 0)
(1 3.99871e-15 0)
(1 -2.76095e-15 0)
(1 -3.90118e-15 0)
(1 -3.68408e-16 0)
(1 -6.63118e-15 0)
(1 4.23194e-15 0)
(1 1.28097e-16 0)
(1 1.41977e-15 0)
(1 3.98849e-15 0)
(1 -1.44734e-15 0)
(1 6.05264e-16 0)
(1 5.55255e-15 0)
(1 3.67628e-17 0)
(1 -3.19474e-16 0)
(1 -2.20215e-15 0)
(1 -1.0805e-15 0)
(1 -6.47713e-16 0)
(1 -1.83438e-15 0)
(1 -1.57203e-15 0)
(1 -1.26022e-15 0)
(1 -1.20729e-15 0)
(1 -2.56559e-15 0)
(1 -8.65898e-16 0)
(1 -1.19657e-15 0)
(1 -2.34448e-15 0)
(1 7.40986e-16 0)
(1 1.77208e-15 0)
(1 -4.22554e-16 0)
(1 7.05481e-16 0)
(1 7.7745e-16 0)
(1 6.9197e-15 0)
(1 2.93968e-15 0)
(1 4.10159e-15 0)
(1 2.96332e-15 0)
(1 -2.75345e-15 0)
(1 4.21848e-15 0)
(1 1.13867e-15 0)
(1 -1.5017e-15 0)
(1 1.60838e-15 0)
(1 3.9057e-15 0)
(1 4.62441e-15 0)
(1 4.21369e-15 0)
(1 3.71942e-15 0)
(1 6.51822e-15 0)
(1 4.89309e-15 0)
(1 5.57523e-15 0)
(1 5.57062e-15 0)
(1 3.46073e-15 0)
(1 4.23936e-15 0)
(1 4.79071e-16 0)
(1 3.45286e-15 0)
(1 2.69094e-15 0)
(1 5.46792e-15 0)
(1 5.05948e-15 0)
(1 4.14851e-15 0)
(1 3.46266e-15 0)
(1 3.19401e-15 0)
(1 2.36042e-15 0)
(1 2.87999e-15 0)
(1 3.75621e-15 0)
(1 2.06237e-15 0)
(1 1.48579e-15 0)
(1 -2.67022e-16 0)
(1 2.04146e-15 0)
(1 8.702e-16 0)
(1 3.45382e-15 0)
(1 2.80751e-16 0)
(1 -4.07287e-15 0)
(1 6.4816e-16 0)
(1 6.09866e-16 0)
(1 -1.81248e-15 0)
(1 -1.09136e-16 0)
(1 -8.18323e-16 0)
(1 -3.08686e-15 0)
(1 -2.2889e-15 0)
(1 2.20699e-16 0)
(1 7.89437e-16 0)
(1 -9.75858e-16 0)
(1 4.16869e-16 0)
(1 -4.15832e-16 0)
(1 1.68034e-15 0)
(1 2.79876e-15 0)
(1 3.76269e-15 0)
(1 2.19164e-16 0)
(1 -1.18313e-15 0)
(1 2.04601e-15 0)
(1 1.49216e-15 0)
(1 1.50876e-15 0)
(1 -2.12452e-16 0)
(1 2.17027e-15 0)
(1 1.33373e-15 0)
(1 1.48163e-15 0)
(1 2.0275e-15 0)
(1 2.78274e-15 0)
(1 2.24832e-15 0)
(1 1.24249e-15 0)
(1 3.03169e-15 0)
(1 2.77453e-15 0)
(1 -7.03294e-16 0)
(1 1.24836e-16 0)
(1 1.70018e-15 0)
(1 -3.63558e-16 0)
(1 5.93309e-16 0)
(1 -9.20923e-18 0)
(1 -2.42656e-15 0)
(1 8.21562e-17 0)
(1 1.82071e-15 0)
(1 1.44469e-15 0)
(1 -6.205e-16 0)
(1 1.03157e-15 0)
(1 -1.45028e-15 0)
(1 1.36186e-15 0)
(1 -3.19451e-15 0)
(1 -2.62787e-16 0)
(1 -3.86418e-16 0)
(1 5.20016e-15 0)
(1 -3.54731e-15 0)
(1 -1.51083e-15 0)
(1 -3.20381e-15 0)
(1 -2.04875e-15 0)
(1 -6.41803e-16 0)
(1 -3.10624e-15 0)
(1 1.45524e-15 0)
(1 -6.91494e-16 0)
(1 -1.28534e-15 0)
(1 -3.23124e-18 0)
(1 -1.52903e-15 0)
(1 -5.56529e-16 0)
(1 6.5796e-16 0)
(1 5.13466e-15 0)
(1 2.10955e-15 0)
(1 2.28789e-15 0)
(1 1.16459e-15 0)
(1 -1.24692e-15 0)
(1 3.39963e-15 0)
(1 1.14563e-15 0)
(1 1.4631e-15 0)
(1 -3.97793e-15 0)
(1 2.25215e-15 0)
(1 5.70863e-15 0)
(1 6.22793e-15 0)
(1 2.91089e-15 0)
(1 6.71202e-15 0)
(1 7.02747e-15 0)
(1 4.74e-15 0)
(1 4.13453e-15 0)
(1 3.24632e-15 0)
(1 2.38638e-15 0)
(1 2.24305e-15 0)
(1 2.36303e-15 0)
(1 2.36895e-15 0)
(1 -1.03059e-15 0)
(1 4.52948e-15 0)
(1 4.41183e-15 0)
(1 4.67903e-15 0)
(1 3.60127e-15 0)
(1 3.39436e-15 0)
(1 2.79696e-15 0)
(1 1.96196e-15 0)
(1 -1.12603e-15 0)
(1 5.83414e-16 0)
(1 3.11883e-15 0)
(1 1.30132e-17 0)
(1 -1.76799e-16 0)
(1 6.39828e-17 0)
(1 1.17083e-15 0)
(1 2.78362e-16 0)
(1 1.28298e-15 0)
(1 -1.53658e-15 0)
(1 -3.0216e-15 0)
(1 1.36076e-15 0)
(1 -1.29187e-15 0)
(1 -1.94451e-15 0)
(1 -3.57259e-15 0)
(1 -1.24018e-15 0)
(1 5.89004e-16 0)
(1 1.93033e-15 0)
(1 -2.82459e-16 0)
(1 7.09503e-16 0)
(1 1.74079e-15 0)
(1 2.07159e-15 0)
(1 1.59293e-15 0)
(1 1.1404e-15 0)
(1 -1.29038e-15 0)
(1 6.68387e-16 0)
(1 -1.13818e-15 0)
(1 6.17449e-16 0)