/*--------------------------------*- C++ -*----------------------------------*\
| =========                 |                                                 |
| \\      /  F ield         | OpenFOAM: The Open Source CFD Toolbox           |
|  \\    /   O peration     | Version:  v2012                                 |
|   \\  /    A nd           | Website:  www.openfoam.com                      |
|    \\/     M anipulation  |                                                 |
\*---------------------------------------------------------------------------*/
FoamFile
{
    version     2.0;
    format      ascii;
    class       volVectorField;
    location    "70";
    object      Usup;
}
// * * * * * * * * * * * * * * * * * * * * * * * * * * * * * * * * * * * * * //

dimensions      [0 1 -1 0 0 0 0];


internalField   nonuniform List<vector> 
4000
(
(-4.51695e-16 -1.48445e-16 0)
(-8.76907e-16 3.02484e-16 0)
(-8.98858e-16 5.23938e-16 0)
(-1.07282e-15 6.71641e-16 0)
(-1.22404e-15 8.78733e-16 0)
(-1.64451e-15 6.32647e-16 0)
(-2.64511e-15 5.67889e-16 0)
(-3.59222e-15 8.03839e-16 0)
(-3.58669e-15 1.10167e-15 0)
(-3.25089e-15 1.13526e-15 0)
(-3.73153e-15 8.20751e-16 0)
(-4.44191e-15 3.91818e-16 0)
(-5.3259e-15 -1.09414e-17 0)
(-6.06327e-15 3.75309e-16 0)
(-5.74886e-15 8.78399e-16 0)
(-5.48682e-15 3.90621e-16 0)
(-5.98887e-15 1.35924e-16 0)
(-6.60911e-15 1.18221e-16 0)
(-6.88742e-15 4.33659e-17 0)
(-6.97224e-15 1.74188e-16 0)
(-6.96889e-15 4.83171e-17 0)
(-6.67161e-15 -7.8642e-17 0)
(-6.40165e-15 -4.79136e-17 0)
(-6.66532e-15 -8.26163e-17 0)
(-7.03373e-15 1.83159e-16 0)
(-6.23113e-15 6.46997e-16 0)
(-5.28543e-15 5.61917e-16 0)
(-5.28844e-15 2.4629e-16 0)
(-5.40661e-15 -1.71777e-17 0)
(-5.79892e-15 -1.16928e-16 0)
(-5.64822e-15 2.42562e-16 0)
(-4.76915e-15 5.60367e-17 0)
(-4.31018e-15 -4.40565e-16 0)
(-3.68336e-15 -5.75838e-16 0)
(-3.23042e-15 -9.37329e-16 0)
(-3.4527e-15 -1.19848e-15 0)
(-3.58417e-15 -9.34467e-16 0)
(-3.22638e-15 -6.47172e-16 0)
(-2.47381e-15 -3.62274e-16 0)
(-2.009e-15 -6.68036e-16 0)
(-1.58015e-15 -1.01803e-15 0)
(-9.16072e-16 -1.32848e-15 0)
(-7.95577e-16 -1.77535e-15 0)
(-1.10699e-15 -1.64196e-15 0)
(-1.02212e-15 -1.41833e-15 0)
(-6.84416e-16 -1.52793e-15 0)
(-5.00281e-16 -1.78803e-15 0)
(-1.59321e-16 -1.92265e-15 0)
(4.48288e-16 -2.21829e-15 0)
(5.71972e-16 -2.35402e-15 0)
(2.3456e-16 -2.20932e-15 0)
(1.98225e-17 -2.1558e-15 0)
(-5.49347e-17 -1.95117e-15 0)
(-3.49949e-16 -2.03245e-15 0)
(-9.03344e-16 -2.05285e-15 0)
(-9.6907e-16 -1.83985e-15 0)
(-6.06227e-16 -1.81965e-15 0)
(-5.59677e-16 -1.73482e-15 0)
(-9.08144e-16 -1.92099e-15 0)
(-1.58402e-15 -2.05212e-15 0)
(-2.08738e-15 -2.17046e-15 0)
(-2.334e-15 -2.01612e-15 0)
(-2.80932e-15 -1.98312e-15 0)
(-3.1203e-15 -1.92324e-15 0)
(-3.18567e-15 -1.9937e-15 0)
(-2.90224e-15 -1.80761e-15 0)
(-2.49058e-15 -1.91557e-15 0)
(-2.44106e-15 -1.77834e-15 0)
(-2.17304e-15 -1.5578e-15 0)
(-1.66333e-15 -1.56355e-15 0)
(-1.22094e-15 -1.45406e-15 0)
(-9.18039e-16 -1.31736e-15 0)
(-7.08146e-16 -1.23177e-15 0)
(-7.53274e-16 -1.24524e-15 0)
(-6.45812e-16 -1.21283e-15 0)
(2.45529e-16 -1.30322e-15 0)
(6.06766e-16 -1.94782e-15 0)
(4.00417e-16 -1.95644e-15 0)
(1.78093e-16 -2.25543e-15 0)
(-7.51025e-16 -2.63626e-15 0)
(-1.1782e-15 -2.38708e-15 0)
(-6.5975e-16 -2.30003e-15 0)
(-1.19342e-16 -2.19742e-15 0)
(-1.1192e-16 -2.62825e-15 0)
(-2.70263e-16 -2.36346e-15 0)
(-7.08322e-17 -2.06071e-15 0)
(6.93797e-17 -2.00753e-15 0)
(2.13432e-16 -1.98698e-15 0)
(-1.36782e-16 -2.00084e-15 0)
(-6.9021e-16 -1.8498e-15 0)
(-1.21904e-15 -1.77557e-15 0)
(-1.82864e-15 -1.39317e-15 0)
(-1.80201e-15 -1.2817e-15 0)
(-1.53103e-15 -1.25546e-15 0)
(-9.73906e-16 -8.8725e-16 0)
(-1.43873e-16 -7.0825e-16 0)
(-1.57575e-16 -6.44134e-16 0)
(-3.31932e-16 -2.88075e-16 0)
(-1.22218e-16 5.44161e-17 0)
(-4.28323e-17 1.85938e-17 0)
(-7.19056e-16 -5.91136e-17 0)
(-1.83195e-15 9.00542e-16 0)
(-2.5212e-15 1.48404e-15 0)
(-3.14062e-15 1.81262e-15 0)
(-4.08122e-15 2.31181e-15 0)
(-5.53579e-15 2.06928e-15 0)
(-7.49987e-15 2.11009e-15 0)
(-9.38455e-15 2.49559e-15 0)
(-9.93138e-15 3.07877e-15 0)
(-1.01606e-14 3.08047e-15 0)
(-1.17149e-14 2.37076e-15 0)
(-1.35689e-14 1.28367e-15 0)
(-1.50715e-14 4.15298e-16 0)
(-1.60769e-14 1.07943e-15 0)
(-1.64745e-14 1.98979e-15 0)
(-1.68027e-14 1.35377e-15 0)
(-1.75745e-14 6.31678e-16 0)
(-1.88249e-14 4.44316e-16 0)
(-1.94646e-14 2.43274e-16 0)
(-1.97834e-14 4.15574e-16 0)
(-1.99579e-14 1.43982e-16 0)
(-1.92617e-14 -2.04913e-16 0)
(-1.86716e-14 -2.8856e-16 0)
(-1.88839e-14 -1.27402e-16 0)
(-1.89457e-14 7.48513e-16 0)
(-1.75353e-14 1.35565e-15 0)
(-1.61423e-14 1.089e-15 0)
(-1.59889e-14 6.91276e-16 0)
(-1.59469e-14 3.22184e-16 0)
(-1.60251e-14 1.4546e-16 0)
(-1.55562e-14 6.82172e-16 0)
(-1.42846e-14 -8.30862e-18 0)
(-1.2915e-14 -9.45615e-16 0)
(-1.12837e-14 -1.35711e-15 0)
(-1.02727e-14 -2.55617e-15 0)
(-9.93648e-15 -3.07517e-15 0)
(-9.51794e-15 -2.89198e-15 0)
(-8.53432e-15 -2.32361e-15 0)
(-7.23168e-15 -1.81444e-15 0)
(-6.38267e-15 -2.66822e-15 0)
(-5.16037e-15 -3.14614e-15 0)
(-3.73456e-15 -3.77103e-15 0)
(-2.95047e-15 -4.51517e-15 0)
(-2.8171e-15 -4.53515e-15 0)
(-2.70585e-15 -4.41274e-15 0)
(-2.28107e-15 -4.6984e-15 0)
(-1.70087e-15 -5.26256e-15 0)
(-8.41234e-16 -5.87785e-15 0)
(4.20677e-16 -6.67154e-15 0)
(1.06524e-15 -6.9726e-15 0)
(5.92669e-16 -6.83707e-15 0)
(1.20605e-16 -6.35072e-15 0)
(-3.15336e-16 -6.02005e-15 0)
(-1.22977e-15 -6.02719e-15 0)
(-2.16281e-15 -6.15969e-15 0)
(-2.38641e-15 -5.58638e-15 0)
(-1.95759e-15 -5.53726e-15 0)
(-2.16453e-15 -5.2744e-15 0)
(-3.21153e-15 -5.46466e-15 0)
(-4.70867e-15 -6.05405e-15 0)
(-5.77967e-15 -6.63229e-15 0)
(-6.49014e-15 -6.62516e-15 0)
(-7.67179e-15 -6.25515e-15 0)
(-8.48838e-15 -5.90205e-15 0)
(-8.54743e-15 -5.66457e-15 0)
(-7.98039e-15 -5.23546e-15 0)
(-7.12587e-15 -5.49822e-15 0)
(-6.52752e-15 -5.351e-15 0)
(-5.87317e-15 -4.97171e-15 0)
(-4.73414e-15 -4.71822e-15 0)
(-3.5076e-15 -4.32172e-15 0)
(-2.68989e-15 -4.24166e-15 0)
(-2.20623e-15 -4.00007e-15 0)
(-2.08979e-15 -3.89585e-15 0)
(-1.65534e-15 -3.82777e-15 0)
(-3.63939e-16 -4.07853e-15 0)
(5.25532e-16 -5.39138e-15 0)
(4.37646e-16 -5.75405e-15 0)
(-4.7328e-16 -6.57814e-15 0)
(-1.90369e-15 -7.38413e-15 0)
(-2.43256e-15 -6.92534e-15 0)
(-1.6233e-15 -7.11722e-15 0)
(-9.36604e-16 -7.20451e-15 0)
(-6.81249e-16 -7.72081e-15 0)
(-3.40717e-16 -6.95057e-15 0)
(-1.28194e-16 -6.27027e-15 0)
(-6.49097e-17 -5.98045e-15 0)
(3.23173e-17 -5.9886e-15 0)
(-6.93192e-16 -6.15906e-15 0)
(-1.92757e-15 -5.49998e-15 0)
(-3.0554e-15 -5.27595e-15 0)
(-4.31864e-15 -4.35013e-15 0)
(-4.6219e-15 -3.75984e-15 0)
(-3.80266e-15 -3.42936e-15 0)
(-2.41458e-15 -2.78846e-15 0)
(-9.45613e-16 -2.33334e-15 0)
(-6.10152e-16 -1.95156e-15 0)
(-5.77075e-16 -9.97031e-16 0)
(-4.12587e-16 -2.6157e-16 0)
(-3.34736e-16 -7.4206e-17 0)
(-9.45235e-16 3.84287e-16 0)
(-2.67435e-15 1.58021e-15 0)
(-4.11691e-15 2.37606e-15 0)
(-5.26944e-15 2.54274e-15 0)
(-6.89197e-15 3.25426e-15 0)
(-9.23039e-15 3.62319e-15 0)
(-1.20448e-14 3.82304e-15 0)
(-1.46828e-14 4.34553e-15 0)
(-1.59045e-14 5.22565e-15 0)
(-1.70444e-14 4.84842e-15 0)
(-1.9713e-14 3.48606e-15 0)
(-2.24668e-14 2.05928e-15 0)
(-2.41783e-14 1.37169e-15 0)
(-2.52491e-14 2.11606e-15 0)
(-2.62797e-14 2.72473e-15 0)
(-2.75068e-14 2.35179e-15 0)
(-2.87563e-14 1.38337e-15 0)
(-3.02777e-14 8.549e-16 0)
(-3.11367e-14 6.77403e-16 0)
(-3.16575e-14 3.98857e-16 0)
(-3.20439e-14 1.66701e-16 0)
(-3.11875e-14 -1.53127e-16 0)
(-3.01405e-14 -4.59021e-16 0)
(-2.97708e-14 -2.40575e-16 0)
(-2.97216e-14 8.5514e-16 0)
(-2.83502e-14 1.6719e-15 0)
(-2.64936e-14 1.50164e-15 0)
(-2.59448e-14 1.42619e-15 0)
(-2.5736e-14 1.10292e-15 0)
(-2.54721e-14 1.01751e-15 0)
(-2.49161e-14 1.01819e-15 0)
(-2.33868e-14 4.22817e-17 0)
(-2.11197e-14 -1.05635e-15 0)
(-1.90684e-14 -2.12445e-15 0)
(-1.74879e-14 -3.65002e-15 0)
(-1.62779e-14 -4.14683e-15 0)
(-1.51313e-14 -4.36287e-15 0)
(-1.33704e-14 -4.40177e-15 0)
(-1.19341e-14 -4.39023e-15 0)
(-1.06154e-14 -4.83673e-15 0)
(-8.53406e-15 -5.09992e-15 0)
(-6.60745e-15 -5.87352e-15 0)
(-5.331e-15 -6.64499e-15 0)
(-4.87252e-15 -7.55531e-15 0)
(-4.52916e-15 -8.03425e-15 0)
(-3.8996e-15 -8.12896e-15 0)
(-3.16847e-15 -8.63312e-15 0)
(-2.03297e-15 -9.46959e-15 0)
(-1.36891e-16 -1.07195e-14 0)
(1.02123e-15 -1.16665e-14 0)
(8.74417e-16 -1.16882e-14 0)
(2.92535e-16 -1.06866e-14 0)
(-6.56707e-16 -1.01026e-14 0)
(-2.09108e-15 -9.80627e-15 0)
(-3.19655e-15 -9.87449e-15 0)
(-3.52781e-15 -9.55283e-15 0)
(-3.30851e-15 -9.51777e-15 0)
(-3.74115e-15 -9.24687e-15 0)
(-5.69617e-15 -9.31935e-15 0)
(-8.14875e-15 -1.03079e-14 0)
(-9.59832e-15 -1.07423e-14 0)
(-1.0237e-14 -1.09192e-14 0)
(-1.15633e-14 -1.06248e-14 0)
(-1.27119e-14 -1.02638e-14 0)
(-1.28795e-14 -9.48893e-15 0)
(-1.24728e-14 -8.92039e-15 0)
(-1.14721e-14 -8.97988e-15 0)
(-1.032e-14 -8.89848e-15 0)
(-9.05454e-15 -8.23254e-15 0)
(-7.28294e-15 -7.62146e-15 0)
(-5.75223e-15 -6.985e-15 0)
(-4.57122e-15 -6.79593e-15 0)
(-3.59172e-15 -6.66718e-15 0)
(-3.27026e-15 -6.66844e-15 0)
(-2.66727e-15 -6.86732e-15 0)
(-1.36999e-15 -7.36538e-15 0)
(-3.15102e-16 -8.75858e-15 0)
(-3.31808e-16 -9.89029e-15 0)
(-1.5666e-15 -1.08279e-14 0)
(-2.91985e-15 -1.15994e-14 0)
(-3.58676e-15 -1.1582e-14 0)
(-2.92403e-15 -1.21132e-14 0)
(-1.83688e-15 -1.21343e-14 0)
(-9.51581e-16 -1.2158e-14 0)
(-2.39574e-16 -1.13857e-14 0)
(-1.52476e-16 -1.08528e-14 0)
(-3.58526e-16 -1.03811e-14 0)
(-6.4677e-16 -1.03071e-14 0)
(-1.32739e-15 -1.03569e-14 0)
(-2.85683e-15 -9.4181e-15 0)
(-4.49947e-15 -8.52732e-15 0)
(-5.94743e-15 -7.3205e-15 0)
(-6.51554e-15 -6.11622e-15 0)
(-5.63394e-15 -5.57334e-15 0)
(-3.82711e-15 -4.74039e-15 0)
(-1.83434e-15 -3.96167e-15 0)
(-1.02755e-15 -3.25952e-15 0)
(-8.31643e-16 -2.24932e-15 0)
(-7.6563e-16 -1.33704e-15 0)
(-5.90495e-16 -4.08588e-16 0)
(-1.14246e-15 8.03378e-16 0)
(-3.4951e-15 2.3735e-15 0)
(-5.92095e-15 3.26245e-15 0)
(-7.5582e-15 3.47024e-15 0)
(-9.43712e-15 3.97545e-15 0)
(-1.26653e-14 5.16758e-15 0)
(-1.62246e-14 5.87093e-15 0)
(-1.92085e-14 6.31674e-15 0)
(-2.15226e-14 6.74726e-15 0)
(-2.43143e-14 5.86353e-15 0)
(-2.78948e-14 4.51881e-15 0)
(-3.07964e-14 3.45951e-15 0)
(-3.2305e-14 2.6998e-15 0)
(-3.36518e-14 3.14437e-15 0)
(-3.55858e-14 3.44853e-15 0)
(-3.76617e-14 3.19032e-15 0)
(-3.93973e-14 2.48951e-15 0)
(-4.09811e-14 1.55586e-15 0)
(-4.21122e-14 1.07822e-15 0)
(-4.28281e-14 3.14756e-16 0)
(-4.30913e-14 3.3379e-16 0)
(-4.22445e-14 1.39746e-16 0)
(-4.10006e-14 -2.72784e-16 0)
(-4.00219e-14 -1.68089e-16 0)
(-3.92933e-14 9.31014e-16 0)
(-3.78837e-14 2.25242e-15 0)
(-3.60762e-14 2.31632e-15 0)
(-3.53651e-14 2.03256e-15 0)
(-3.49225e-14 1.48743e-15 0)
(-3.43765e-14 1.61418e-15 0)
(-3.37653e-14 1.25692e-15 0)
(-3.20289e-14 2.60138e-16 0)
(-2.93902e-14 -1.30866e-15 0)
(-2.67687e-14 -2.99427e-15 0)
(-2.42751e-14 -4.03063e-15 0)
(-2.22595e-14 -4.99639e-15 0)
(-2.07676e-14 -5.77076e-15 0)
(-1.85514e-14 -6.27335e-15 0)
(-1.6194e-14 -6.88503e-15 0)
(-1.41974e-14 -6.7858e-15 0)
(-1.19396e-14 -7.39277e-15 0)
(-9.74211e-15 -8.17425e-15 0)
(-8.30568e-15 -9.26543e-15 0)
(-7.50706e-15 -1.06982e-14 0)
(-6.27491e-15 -1.13945e-14 0)
(-5.20418e-15 -1.18455e-14 0)
(-4.47139e-15 -1.24865e-14 0)
(-3.41706e-15 -1.32631e-14 0)
(-1.55918e-15 -1.4385e-14 0)
(2.64411e-16 -1.57659e-14 0)
(1.06321e-15 -1.56203e-14 0)
(6.80601e-16 -1.47544e-14 0)
(-7.30864e-16 -1.41986e-14 0)
(-2.7364e-15 -1.38811e-14 0)
(-4.31657e-15 -1.35321e-14 0)
(-4.89132e-15 -1.3618e-14 0)
(-4.74495e-15 -1.37039e-14 0)
(-5.47257e-15 -1.37642e-14 0)
(-8.25809e-15 -1.38078e-14 0)
(-1.11155e-14 -1.46761e-14 0)
(-1.26772e-14 -1.45857e-14 0)
(-1.37935e-14 -1.47442e-14 0)
(-1.54091e-14 -1.49395e-14 0)
(-1.64183e-14 -1.46596e-14 0)
(-1.64604e-14 -1.36088e-14 0)
(-1.62167e-14 -1.26249e-14 0)
(-1.51749e-14 -1.23537e-14 0)
(-1.34344e-14 -1.20909e-14 0)
(-1.16018e-14 -1.12684e-14 0)
(-9.51994e-15 -1.04663e-14 0)
(-7.63323e-15 -9.6683e-15 0)
(-6.33416e-15 -9.31847e-15 0)
(-5.28131e-15 -9.38266e-15 0)
(-4.80899e-15 -9.65792e-15 0)
(-4.0428e-15 -1.02523e-14 0)
(-2.75911e-15 -1.10479e-14 0)
(-1.81193e-15 -1.23943e-14 0)
(-1.58787e-15 -1.41636e-14 0)
(-2.65856e-15 -1.52551e-14 0)
(-4.09271e-15 -1.57363e-14 0)
(-4.83074e-15 -1.61199e-14 0)
(-3.85431e-15 -1.67851e-14 0)
(-2.41136e-15 -1.67923e-14 0)
(-1.37352e-15 -1.65378e-14 0)
(-5.59824e-16 -1.60817e-14 0)
(-4.74851e-16 -1.56498e-14 0)
(-7.46642e-16 -1.51997e-14 0)
(-1.25522e-15 -1.47491e-14 0)
(-1.96775e-15 -1.40858e-14 0)
(-3.40701e-15 -1.3186e-14 0)
(-5.264e-15 -1.1764e-14 0)
(-7.01644e-15 -1.05924e-14 0)
(-7.98804e-15 -9.10731e-15 0)
(-7.11766e-15 -8.01638e-15 0)
(-4.8624e-15 -6.57849e-15 0)
(-2.71354e-15 -5.77149e-15 0)
(-1.79399e-15 -4.91882e-15 0)
(-1.39326e-15 -3.68592e-15 0)
(-1.00058e-15 -2.37682e-15 0)
(-6.23445e-16 -9.30502e-16 0)
(-1.31355e-15 8.86961e-16 0)
(-4.34085e-15 2.87702e-15 0)
(-7.64973e-15 4.04554e-15 0)
(-9.99552e-15 4.95415e-15 0)
(-1.19201e-14 5.73311e-15 0)
(-1.53264e-14 6.88487e-15 0)
(-2.00571e-14 7.74048e-15 0)
(-2.4213e-14 8.02498e-15 0)
(-2.75157e-14 7.61458e-15 0)
(-3.09748e-14 6.39737e-15 0)
(-3.49222e-14 5.63476e-15 0)
(-3.85312e-14 5.47191e-15 0)
(-4.04245e-14 4.92747e-15 0)
(-4.1808e-14 4.44404e-15 0)
(-4.41511e-14 4.13995e-15 0)
(-4.67943e-14 4.08035e-15 0)
(-4.92683e-14 3.78754e-15 0)
(-5.13361e-14 2.80326e-15 0)
(-5.26176e-14 1.80536e-15 0)
(-5.30925e-14 8.90715e-16 0)
(-5.31507e-14 5.27694e-16 0)
(-5.25097e-14 4.82175e-16 0)
(-5.10474e-14 3.66639e-16 0)
(-4.93287e-14 5.66477e-16 0)
(-4.79842e-14 1.55452e-15 0)
(-4.66854e-14 2.55377e-15 0)
(-4.52253e-14 2.5492e-15 0)
(-4.44857e-14 1.97272e-15 0)
(-4.34535e-14 1.5314e-15 0)
(-4.25041e-14 1.46227e-15 0)
(-4.19984e-14 1.30761e-15 0)
(-4.03243e-14 5.98191e-16 0)
(-3.74411e-14 -1.43062e-15 0)
(-3.3894e-14 -3.50864e-15 0)
(-3.0809e-14 -4.28981e-15 0)
(-2.85875e-14 -5.84337e-15 0)
(-2.62723e-14 -7.25987e-15 0)
(-2.34034e-14 -7.79467e-15 0)
(-2.03863e-14 -9.03469e-15 0)
(-1.79074e-14 -9.35831e-15 0)
(-1.53749e-14 -1.00795e-14 0)
(-1.28302e-14 -1.08214e-14 0)
(-1.12866e-14 -1.21006e-14 0)
(-9.97228e-15 -1.32145e-14 0)
(-8.35759e-15 -1.39493e-14 0)
(-7.09565e-15 -1.55136e-14 0)
(-6.00362e-15 -1.66053e-14 0)
(-4.63893e-15 -1.74333e-14 0)
(-2.70881e-15 -1.79107e-14 0)
(-3.98594e-16 -1.86799e-14 0)
(1.04114e-15 -1.86504e-14 0)
(5.08949e-16 -1.84969e-14 0)
(-1.21698e-15 -1.85803e-14 0)
(-3.28175e-15 -1.82642e-14 0)
(-5.19484e-15 -1.77049e-14 0)
(-6.27032e-15 -1.7974e-14 0)
(-6.40262e-15 -1.80625e-14 0)
(-7.28997e-15 -1.83998e-14 0)
(-1.05323e-14 -1.85981e-14 0)
(-1.3739e-14 -1.87783e-14 0)
(-1.55321e-14 -1.84495e-14 0)
(-1.71571e-14 -1.87823e-14 0)
(-1.88071e-14 -1.90344e-14 0)
(-1.94595e-14 -1.84288e-14 0)
(-1.92309e-14 -1.72925e-14 0)
(-1.92163e-14 -1.63949e-14 0)
(-1.83472e-14 -1.55125e-14 0)
(-1.62659e-14 -1.49784e-14 0)
(-1.39434e-14 -1.43183e-14 0)
(-1.14182e-14 -1.31933e-14 0)
(-9.42908e-15 -1.23045e-14 0)
(-8.14863e-15 -1.2394e-14 0)
(-6.98027e-15 -1.25589e-14 0)
(-6.46415e-15 -1.2896e-14 0)
(-5.64588e-15 -1.36217e-14 0)
(-4.30065e-15 -1.47888e-14 0)
(-3.58233e-15 -1.63797e-14 0)
(-3.3664e-15 -1.82128e-14 0)
(-3.88191e-15 -1.96294e-14 0)
(-5.08429e-15 -2.01262e-14 0)
(-6.10803e-15 -2.06241e-14 0)
(-5.11051e-15 -2.12136e-14 0)
(-3.16559e-15 -2.14884e-14 0)
(-1.81502e-15 -2.105e-14 0)
(-9.24138e-16 -2.07677e-14 0)
(-8.3032e-16 -2.04187e-14 0)
(-1.10568e-15 -1.96875e-14 0)
(-1.49289e-15 -1.90964e-14 0)
(-2.33672e-15 -1.79245e-14 0)
(-3.96706e-15 -1.68064e-14 0)
(-6.08001e-15 -1.55639e-14 0)
(-7.99342e-15 -1.43704e-14 0)
(-8.80516e-15 -1.27899e-14 0)
(-7.81043e-15 -1.10774e-14 0)
(-5.8276e-15 -9.33506e-15 0)
(-3.82595e-15 -7.97856e-15 0)
(-2.41881e-15 -6.73562e-15 0)
(-1.72037e-15 -4.91933e-15 0)
(-1.34434e-15 -3.31027e-15 0)
(-6.21197e-16 -1.36855e-15 0)
(-1.3747e-15 1.06873e-15 0)
(-4.94326e-15 3.00015e-15 0)
(-8.93946e-15 4.82875e-15 0)
(-1.16927e-14 6.49353e-15 0)
(-1.43181e-14 7.27684e-15 0)
(-1.85377e-14 7.83881e-15 0)
(-2.38722e-14 8.7631e-15 0)
(-2.89104e-14 9.42067e-15 0)
(-3.33625e-14 8.90886e-15 0)
(-3.74057e-14 8.00971e-15 0)
(-4.12559e-14 7.05046e-15 0)
(-4.50962e-14 7.11204e-15 0)
(-4.79185e-14 7.04079e-15 0)
(-5.00418e-14 6.16676e-15 0)
(-5.24429e-14 5.55806e-15 0)
(-5.51853e-14 5.02263e-15 0)
(-5.82439e-14 5.17124e-15 0)
(-6.0931e-14 4.51479e-15 0)
(-6.2466e-14 3.04318e-15 0)
(-6.29972e-14 1.72424e-15 0)
(-6.27244e-14 7.27217e-16 0)
(-6.16431e-14 1.15055e-15 0)
(-6.00577e-14 1.91763e-15 0)
(-5.80183e-14 1.96195e-15 0)
(-5.63185e-14 1.86272e-15 0)
(-5.50877e-14 2.35603e-15 0)
(-5.38116e-14 2.26151e-15 0)
(-5.283e-14 2.05884e-15 0)
(-5.14565e-14 1.92836e-15 0)
(-5.01003e-14 1.19269e-15 0)
(-4.92221e-14 1.03907e-15 0)
(-4.79724e-14 3.8785e-16 0)
(-4.5375e-14 -1.53132e-15 0)
(-4.08712e-14 -3.79366e-15 0)
(-3.70899e-14 -5.24558e-15 0)
(-3.47096e-14 -6.72422e-15 0)
(-3.16307e-14 -7.98404e-15 0)
(-2.83677e-14 -9.28314e-15 0)
(-2.48617e-14 -1.09124e-14 0)
(-2.14788e-14 -1.20111e-14 0)
(-1.85708e-14 -1.26892e-14 0)
(-1.59248e-14 -1.35737e-14 0)
(-1.40485e-14 -1.47922e-14 0)
(-1.22576e-14 -1.56174e-14 0)
(-1.08106e-14 -1.64898e-14 0)
(-9.46523e-15 -1.85495e-14 0)
(-7.67397e-15 -2.00796e-14 0)
(-5.69865e-15 -2.09737e-14 0)
(-3.43486e-15 -2.11965e-14 0)
(-1.05944e-15 -2.14717e-14 0)
(3.94436e-16 -2.19884e-14 0)
(-2.54031e-16 -2.22627e-14 0)
(-1.84481e-15 -2.26356e-14 0)
(-3.76198e-15 -2.2388e-14 0)
(-6.19332e-15 -2.21323e-14 0)
(-7.64868e-15 -2.24235e-14 0)
(-7.95652e-15 -2.25613e-14 0)
(-9.24494e-15 -2.29542e-14 0)
(-1.25148e-14 -2.34628e-14 0)
(-1.56751e-14 -2.29044e-14 0)
(-1.80478e-14 -2.24522e-14 0)
(-2.0224e-14 -2.26633e-14 0)
(-2.16639e-14 -2.26206e-14 0)
(-2.19862e-14 -2.16714e-14 0)
(-2.19224e-14 -2.09097e-14 0)
(-2.17474e-14 -2.03273e-14 0)
(-2.06716e-14 -1.89488e-14 0)
(-1.86616e-14 -1.81878e-14 0)
(-1.58482e-14 -1.75406e-14 0)
(-1.29701e-14 -1.59526e-14 0)
(-1.13234e-14 -1.48611e-14 0)
(-1.01721e-14 -1.50696e-14 0)
(-8.72479e-15 -1.58033e-14 0)
(-8.13459e-15 -1.63279e-14 0)
(-7.47418e-15 -1.72361e-14 0)
(-6.374e-15 -1.8826e-14 0)
(-5.62053e-15 -2.07819e-14 0)
(-5.18777e-15 -2.22555e-14 0)
(-5.37797e-15 -2.35044e-14 0)
(-6.3268e-15 -2.43039e-14 0)
(-7.26136e-15 -2.52101e-14 0)
(-6.11568e-15 -2.54627e-14 0)
(-3.83939e-15 -2.56641e-14 0)
(-2.33152e-15 -2.56012e-14 0)
(-1.57175e-15 -2.51857e-14 0)
(-1.19708e-15 -2.49523e-14 0)
(-1.41689e-15 -2.39666e-14 0)
(-1.85531e-15 -2.31719e-14 0)
(-2.58362e-15 -2.21856e-14 0)
(-4.47516e-15 -2.07788e-14 0)
(-6.78267e-15 -1.98132e-14 0)
(-8.68206e-15 -1.86231e-14 0)
(-9.46291e-15 -1.68119e-14 0)
(-8.45063e-15 -1.46318e-14 0)
(-6.28264e-15 -1.26751e-14 0)
(-4.28714e-15 -1.06878e-14 0)
(-2.88615e-15 -8.58212e-15 0)
(-2.15307e-15 -6.44475e-15 0)
(-1.65188e-15 -4.17686e-15 0)
(-4.92291e-16 -1.45405e-15 0)
(-1.76783e-15 1.26033e-15 0)
(-5.64037e-15 3.06827e-15 0)
(-9.80408e-15 5.25392e-15 0)
(-1.3644e-14 7.17892e-15 0)
(-1.71897e-14 8.06208e-15 0)
(-2.13923e-14 8.76608e-15 0)
(-2.7016e-14 9.62714e-15 0)
(-3.31983e-14 1.04012e-14 0)
(-3.85837e-14 1.02568e-14 0)
(-4.32925e-14 1.00914e-14 0)
(-4.74723e-14 9.17001e-15 0)
(-5.13822e-14 8.51387e-15 0)
(-5.4888e-14 8.20704e-15 0)
(-5.75048e-14 7.52137e-15 0)
(-6.03225e-14 7.11931e-15 0)
(-6.30427e-14 6.3488e-15 0)
(-6.61779e-14 6.41561e-15 0)
(-6.99348e-14 5.88458e-15 0)
(-7.20898e-14 4.44199e-15 0)
(-7.24637e-14 3.23109e-15 0)
(-7.1344e-14 2.59122e-15 0)
(-6.93771e-14 2.8691e-15 0)
(-6.80559e-14 3.1986e-15 0)
(-6.67383e-14 2.52414e-15 0)
(-6.47157e-14 1.88408e-15 0)
(-6.29502e-14 1.88702e-15 0)
(-6.14709e-14 1.8842e-15 0)
(-6.02137e-14 2.35284e-15 0)
(-5.90204e-14 2.23185e-15 0)
(-5.74885e-14 1.1828e-15 0)
(-5.62292e-14 6.45266e-16 0)
(-5.50634e-14 -4.87965e-16 0)
(-5.2517e-14 -1.89844e-15 0)
(-4.77674e-14 -3.73505e-15 0)
(-4.32729e-14 -6.19879e-15 0)
(-4.01068e-14 -7.88557e-15 0)
(-3.68512e-14 -8.80512e-15 0)
(-3.34068e-14 -1.06842e-14 0)
(-2.93586e-14 -1.23274e-14 0)
(-2.52959e-14 -1.39747e-14 0)
(-2.17611e-14 -1.48931e-14 0)
(-1.88452e-14 -1.59058e-14 0)
(-1.65902e-14 -1.73659e-14 0)
(-1.44437e-14 -1.83598e-14 0)
(-1.32139e-14 -1.9361e-14 0)
(-1.19474e-14 -2.13097e-14 0)
(-9.54951e-15 -2.28898e-14 0)
(-6.83588e-15 -2.38178e-14 0)
(-4.16202e-15 -2.43382e-14 0)
(-1.91964e-15 -2.45631e-14 0)
(-4.83868e-16 -2.50052e-14 0)
(-1.04744e-15 -2.57052e-14 0)
(-2.63041e-15 -2.62893e-14 0)
(-4.54964e-15 -2.68249e-14 0)
(-7.21845e-15 -2.70982e-14 0)
(-8.95821e-15 -2.67042e-14 0)
(-9.56187e-15 -2.67124e-14 0)
(-1.11727e-14 -2.71075e-14 0)
(-1.42378e-14 -2.78251e-14 0)
(-1.73109e-14 -2.74577e-14 0)
(-2.02421e-14 -2.69852e-14 0)
(-2.26854e-14 -2.65886e-14 0)
(-2.38987e-14 -2.6057e-14 0)
(-2.42942e-14 -2.50135e-14 0)
(-2.4433e-14 -2.44994e-14 0)
(-2.38859e-14 -2.3597e-14 0)
(-2.26539e-14 -2.20681e-14 0)
(-2.07581e-14 -2.09819e-14 0)
(-1.73788e-14 -2.00696e-14 0)
(-1.40113e-14 -1.87567e-14 0)
(-1.28005e-14 -1.82493e-14 0)
(-1.23286e-14 -1.82403e-14 0)
(-1.08901e-14 -1.91627e-14 0)
(-1.00375e-14 -2.02726e-14 0)
(-9.57726e-15 -2.13392e-14 0)
(-8.64132e-15 -2.28931e-14 0)
(-7.59323e-15 -2.44062e-14 0)
(-6.75931e-15 -2.58225e-14 0)
(-6.80639e-15 -2.69882e-14 0)
(-7.84851e-15 -2.8076e-14 0)
(-8.54432e-15 -2.89346e-14 0)
(-7.0431e-15 -2.91413e-14 0)
(-4.84419e-15 -2.96901e-14 0)
(-3.02693e-15 -3.01491e-14 0)
(-2.03366e-15 -2.99045e-14 0)
(-1.59407e-15 -2.89262e-14 0)
(-1.60289e-15 -2.79549e-14 0)
(-2.23036e-15 -2.68141e-14 0)
(-2.96317e-15 -2.61394e-14 0)
(-5.01193e-15 -2.50387e-14 0)
(-7.6869e-15 -2.41478e-14 0)
(-9.30836e-15 -2.28707e-14 0)
(-9.59453e-15 -2.09197e-14 0)
(-8.56137e-15 -1.81042e-14 0)
(-6.69546e-15 -1.57871e-14 0)
(-4.53625e-15 -1.36031e-14 0)
(-3.01396e-15 -1.08586e-14 0)
(-2.25494e-15 -7.94079e-15 0)
(-1.56011e-15 -4.81523e-15 0)
(-5.2019e-16 -1.66367e-15 0)
(-2.09191e-15 1.42408e-15 0)
(-6.34268e-15 3.59312e-15 0)
(-1.0781e-14 5.58441e-15 0)
(-1.51037e-14 7.21075e-15 0)
(-1.93193e-14 8.41632e-15 0)
(-2.43217e-14 9.72002e-15 0)
(-3.04242e-14 1.03112e-14 0)
(-3.70407e-14 1.09372e-14 0)
(-4.30176e-14 1.14311e-14 0)
(-4.84616e-14 1.14698e-14 0)
(-5.35073e-14 1.08869e-14 0)
(-5.7728e-14 9.65544e-15 0)
(-6.13742e-14 9.21203e-15 0)
(-6.43055e-14 8.83106e-15 0)
(-6.74242e-14 8.44367e-15 0)
(-7.03994e-14 7.75183e-15 0)
(-7.37903e-14 7.26439e-15 0)
(-7.80179e-14 6.82249e-15 0)
(-8.0385e-14 6.36645e-15 0)
(-8.0543e-14 5.49833e-15 0)
(-7.92722e-14 4.65278e-15 0)
(-7.74604e-14 3.99312e-15 0)
(-7.64554e-14 3.51649e-15 0)
(-7.4914e-14 2.8639e-15 0)
(-7.24051e-14 2.47223e-15 0)
(-7.03047e-14 2.03703e-15 0)
(-6.82221e-14 1.80183e-15 0)
(-6.68287e-14 2.19865e-15 0)
(-6.60431e-14 2.17056e-15 0)
(-6.44185e-14 1.53387e-15 0)
(-6.29603e-14 4.78023e-16 0)
(-6.16422e-14 -1.0307e-15 0)
(-5.88058e-14 -2.80219e-15 0)
(-5.43038e-14 -4.423e-15 0)
(-4.96455e-14 -6.99619e-15 0)
(-4.53736e-14 -9.08955e-15 0)
(-4.16758e-14 -1.00744e-14 0)
(-3.81663e-14 -1.15764e-14 0)
(-3.36965e-14 -1.3135e-14 0)
(-2.89946e-14 -1.46008e-14 0)
(-2.48686e-14 -1.60931e-14 0)
(-2.19293e-14 -1.80383e-14 0)
(-1.94228e-14 -2.02616e-14 0)
(-1.67499e-14 -2.18991e-14 0)
(-1.55165e-14 -2.30394e-14 0)
(-1.41547e-14 -2.39621e-14 0)
(-1.12208e-14 -2.50687e-14 0)
(-8.13962e-15 -2.60386e-14 0)
(-5.12177e-15 -2.70073e-14 0)
(-2.56481e-15 -2.74361e-14 0)
(-1.45705e-15 -2.80534e-14 0)
(-2.3169e-15 -2.92593e-14 0)
(-3.98462e-15 -3.01107e-14 0)
(-5.94014e-15 -3.10381e-14 0)
(-8.001e-15 -3.13027e-14 0)
(-9.60381e-15 -3.05807e-14 0)
(-1.08633e-14 -3.05589e-14 0)
(-1.30854e-14 -3.10536e-14 0)
(-1.62508e-14 -3.19985e-14 0)
(-1.90189e-14 -3.17289e-14 0)
(-2.18451e-14 -3.11547e-14 0)
(-2.44048e-14 -3.03791e-14 0)
(-2.57112e-14 -2.94581e-14 0)
(-2.62716e-14 -2.85361e-14 0)
(-2.63995e-14 -2.77638e-14 0)
(-2.54256e-14 -2.68196e-14 0)
(-2.40353e-14 -2.5228e-14 0)
(-2.21942e-14 -2.36674e-14 0)
(-1.8847e-14 -2.21584e-14 0)
(-1.58421e-14 -2.13459e-14 0)
(-1.47021e-14 -2.19233e-14 0)
(-1.41503e-14 -2.20511e-14 0)
(-1.30938e-14 -2.2292e-14 0)
(-1.2209e-14 -2.34947e-14 0)
(-1.15158e-14 -2.50679e-14 0)
(-1.04458e-14 -2.65333e-14 0)
(-9.38281e-15 -2.74779e-14 0)
(-8.5901e-15 -2.89958e-14 0)
(-8.52428e-15 -3.02708e-14 0)
(-9.28487e-15 -3.16372e-14 0)
(-9.61422e-15 -3.20054e-14 0)
(-8.2627e-15 -3.22402e-14 0)
(-6.1808e-15 -3.29808e-14 0)
(-4.10898e-15 -3.36229e-14 0)
(-2.34227e-15 -3.33594e-14 0)
(-1.52803e-15 -3.22704e-14 0)
(-1.78292e-15 -3.17095e-14 0)
(-2.66484e-15 -3.07578e-14 0)
(-3.71614e-15 -2.99199e-14 0)
(-5.78574e-15 -2.94301e-14 0)
(-8.30187e-15 -2.83292e-14 0)
(-9.71569e-15 -2.64892e-14 0)
(-9.58272e-15 -2.45608e-14 0)
(-8.43928e-15 -2.15123e-14 0)
(-6.8223e-15 -1.89561e-14 0)
(-4.59462e-15 -1.60958e-14 0)
(-2.77693e-15 -1.31105e-14 0)
(-1.9498e-15 -9.56206e-15 0)
(-1.52213e-15 -5.83021e-15 0)
(-4.71995e-16 -2.12795e-15 0)
(-2.36483e-15 1.61433e-15 0)
(-7.13889e-15 4.01637e-15 0)
(-1.21041e-14 5.89578e-15 0)
(-1.70212e-14 7.45813e-15 0)
(-2.13822e-14 8.59138e-15 0)
(-2.66812e-14 9.90046e-15 0)
(-3.3497e-14 1.06759e-14 0)
(-4.04715e-14 1.14523e-14 0)
(-4.70187e-14 1.24622e-14 0)
(-5.32524e-14 1.24179e-14 0)
(-5.91004e-14 1.19625e-14 0)
(-6.36337e-14 1.09241e-14 0)
(-6.72122e-14 1.04328e-14 0)
(-7.04358e-14 1.00266e-14 0)
(-7.4066e-14 9.54568e-15 0)
(-7.73765e-14 8.73411e-15 0)
(-8.07772e-14 7.80909e-15 0)
(-8.48856e-14 7.8e-15 0)
(-8.76411e-14 8.158e-15 0)
(-8.84904e-14 7.62704e-15 0)
(-8.73042e-14 5.93294e-15 0)
(-8.50529e-14 4.65092e-15 0)
(-8.36205e-14 3.79849e-15 0)
(-8.2047e-14 3.70206e-15 0)
(-7.95872e-14 3.16631e-15 0)
(-7.73533e-14 2.72941e-15 0)
(-7.48495e-14 2.52427e-15 0)
(-7.29841e-14 2.23959e-15 0)
(-7.20568e-14 1.92682e-15 0)
(-7.07419e-14 1.58011e-15 0)
(-6.95322e-14 1.71582e-16 0)
(-6.82497e-14 -1.31602e-15 0)
(-6.51055e-14 -3.15123e-15 0)
(-6.02465e-14 -5.41467e-15 0)
(-5.53969e-14 -7.75811e-15 0)
(-5.03615e-14 -9.91397e-15 0)
(-4.59667e-14 -1.13094e-14 0)
(-4.22322e-14 -1.2379e-14 0)
(-3.74426e-14 -1.34604e-14 0)
(-3.26285e-14 -1.51021e-14 0)
(-2.87746e-14 -1.77422e-14 0)
(-2.57733e-14 -2.04015e-14 0)
(-2.27289e-14 -2.24366e-14 0)
(-1.9283e-14 -2.44972e-14 0)
(-1.70791e-14 -2.60102e-14 0)
(-1.53897e-14 -2.6171e-14 0)
(-1.26828e-14 -2.69274e-14 0)
(-9.58913e-15 -2.80673e-14 0)
(-6.31909e-15 -2.90937e-14 0)
(-3.71428e-15 -3.01051e-14 0)
(-2.84486e-15 -3.14845e-14 0)
(-3.66794e-15 -3.2709e-14 0)
(-5.21259e-15 -3.34109e-14 0)
(-6.92974e-15 -3.44122e-14 0)
(-8.66152e-15 -3.47566e-14 0)
(-1.05006e-14 -3.45745e-14 0)
(-1.2339e-14 -3.46703e-14 0)
(-1.50321e-14 -3.52953e-14 0)
(-1.79345e-14 -3.5746e-14 0)
(-2.03027e-14 -3.50783e-14 0)
(-2.32609e-14 -3.41864e-14 0)
(-2.58057e-14 -3.31519e-14 0)
(-2.71965e-14 -3.23912e-14 0)
(-2.78914e-14 -3.15713e-14 0)
(-2.80935e-14 -3.06784e-14 0)
(-2.69102e-14 -2.98421e-14 0)
(-2.50862e-14 -2.85587e-14 0)
(-2.30226e-14 -2.67507e-14 0)
(-1.98936e-14 -2.50813e-14 0)
(-1.77107e-14 -2.39736e-14 0)
(-1.68151e-14 -2.46064e-14 0)
(-1.57149e-14 -2.52989e-14 0)
(-1.46991e-14 -2.53561e-14 0)
(-1.44843e-14 -2.64364e-14 0)
(-1.39135e-14 -2.82647e-14 0)
(-1.22649e-14 -2.99463e-14 0)
(-1.1075e-14 -3.09963e-14 0)
(-1.03807e-14 -3.21423e-14 0)
(-1.02809e-14 -3.32331e-14 0)
(-1.06648e-14 -3.43955e-14 0)
(-1.05537e-14 -3.48776e-14 0)
(-9.35158e-15 -3.48068e-14 0)
(-7.47914e-15 -3.53098e-14 0)
(-4.96484e-15 -3.59811e-14 0)
(-2.76764e-15 -3.56134e-14 0)
(-2.21747e-15 -3.53162e-14 0)
(-2.48431e-15 -3.51082e-14 0)
(-3.1194e-15 -3.4431e-14 0)
(-4.45311e-15 -3.3452e-14 0)
(-6.60226e-15 -3.32148e-14 0)
(-8.58323e-15 -3.20735e-14 0)
(-9.87162e-15 -2.98484e-14 0)
(-9.5028e-15 -2.74986e-14 0)
(-8.20066e-15 -2.44206e-14 0)
(-6.64597e-15 -2.16779e-14 0)
(-4.35884e-15 -1.84494e-14 0)
(-2.56907e-15 -1.51425e-14 0)
(-1.57688e-15 -1.1344e-14 0)
(-1.1733e-15 -6.89504e-15 0)
(-2.33895e-16 -2.28191e-15 0)
(-2.6217e-15 1.42171e-15 0)
(-7.90298e-15 3.99853e-15 0)
(-1.3254e-14 5.98494e-15 0)
(-1.85223e-14 7.97578e-15 0)
(-2.33945e-14 9.65858e-15 0)
(-2.91919e-14 1.03832e-14 0)
(-3.62661e-14 1.08962e-14 0)
(-4.33221e-14 1.17009e-14 0)
(-5.05317e-14 1.27588e-14 0)
(-5.76909e-14 1.32821e-14 0)
(-6.41066e-14 1.31792e-14 0)
(-6.89839e-14 1.25654e-14 0)
(-7.27712e-14 1.19762e-14 0)
(-7.62608e-14 1.09796e-14 0)
(-8.01915e-14 9.85797e-15 0)
(-8.39495e-14 9.51175e-15 0)
(-8.71443e-14 8.36659e-15 0)
(-9.07538e-14 8.56528e-15 0)
(-9.37527e-14 9.23105e-15 0)
(-9.55829e-14 9.1631e-15 0)
(-9.49394e-14 7.85285e-15 0)
(-9.24968e-14 6.16306e-15 0)
(-9.05248e-14 4.46324e-15 0)
(-8.85768e-14 3.86066e-15 0)
(-8.60703e-14 3.40924e-15 0)
(-8.34121e-14 3.07668e-15 0)
(-8.08472e-14 2.98779e-15 0)
(-7.91173e-14 2.55027e-15 0)
(-7.7921e-14 1.9826e-15 0)
(-7.66037e-14 9.80315e-16 0)
(-7.54422e-14 -4.99235e-16 0)
(-7.38548e-14 -1.80427e-15 0)
(-7.09746e-14 -3.02338e-15 0)
(-6.62132e-14 -5.09406e-15 0)
(-6.08347e-14 -7.45965e-15 0)
(-5.52216e-14 -9.87932e-15 0)
(-5.00789e-14 -1.2072e-14 0)
(-4.56906e-14 -1.30794e-14 0)
(-4.09972e-14 -1.41259e-14 0)
(-3.68118e-14 -1.6301e-14 0)
(-3.2833e-14 -1.91547e-14 0)
(-2.88887e-14 -2.15984e-14 0)
(-2.54314e-14 -2.3366e-14 0)
(-2.19165e-14 -2.55101e-14 0)
(-1.88794e-14 -2.73901e-14 0)
(-1.66054e-14 -2.83104e-14 0)
(-1.40902e-14 -2.90727e-14 0)
(-1.09685e-14 -3.02014e-14 0)
(-7.6892e-15 -3.11624e-14 0)
(-5.30527e-15 -3.26303e-14 0)
(-4.35067e-15 -3.40716e-14 0)
(-4.78736e-15 -3.53338e-14 0)
(-6.43494e-15 -3.65436e-14 0)
(-8.32831e-15 -3.77677e-14 0)
(-9.76419e-15 -3.82767e-14 0)
(-1.14639e-14 -3.85387e-14 0)
(-1.36249e-14 -3.84533e-14 0)
(-1.64406e-14 -3.88701e-14 0)
(-1.90061e-14 -3.85326e-14 0)
(-2.1142e-14 -3.81366e-14 0)
(-2.4038e-14 -3.6966e-14 0)
(-2.69954e-14 -3.55979e-14 0)
(-2.87008e-14 -3.49231e-14 0)
(-2.9327e-14 -3.39574e-14 0)
(-2.95161e-14 -3.28916e-14 0)
(-2.82356e-14 -3.17599e-14 0)
(-2.60241e-14 -3.06368e-14 0)
(-2.37166e-14 -2.91166e-14 0)
(-2.06406e-14 -2.75127e-14 0)
(-1.90412e-14 -2.68013e-14 0)
(-1.89127e-14 -2.71123e-14 0)
(-1.76185e-14 -2.78268e-14 0)
(-1.65364e-14 -2.85284e-14 0)
(-1.66645e-14 -2.99486e-14 0)
(-1.61569e-14 -3.15561e-14 0)
(-1.43029e-14 -3.33287e-14 0)
(-1.26897e-14 -3.43135e-14 0)
(-1.183e-14 -3.49358e-14 0)
(-1.17323e-14 -3.56166e-14 0)
(-1.204e-14 -3.63557e-14 0)
(-1.1479e-14 -3.7061e-14 0)
(-1.01706e-14 -3.70183e-14 0)
(-8.67271e-15 -3.76192e-14 0)
(-6.0164e-15 -3.76473e-14 0)
(-3.61941e-15 -3.7619e-14 0)
(-3.03869e-15 -3.80345e-14 0)
(-3.17081e-15 -3.75963e-14 0)
(-3.68547e-15 -3.68674e-14 0)