/*--------------------------------*- C++ -*----------------------------------*\
| =========                 |                                                 |
| \\      /  F ield         | OpenFOAM: The Open Source CFD Toolbox           |
|  \\    /   O peration     | Version:  v2012                                 |
|   \\  /    A nd           | Website:  www.openfoam.com                      |
|    \\/     M anipulation  |                                                 |
\*---------------------------------------------------------------------------*/
FoamFile
{
    version     2.0;
    format      ascii;
    class       surfaceScalarField;
    location    "18.5";
    object      phi;
}
// * * * * * * * * * * * * * * * * * * * * * * * * * * * * * * * * * * * * * //

dimensions      [0 3 -1 0 0 0 0];
oriented        oriented;


internalField   nonuniform List<scalar> 
130560
(
3.21648e-06
-3.21648e-06
6.43312e-06
-3.21664e-06
9.65008e-06
-3.21696e-06
1.28675e-05
-3.21743e-06
1.60856e-05
-3.21806e-06
1.93044e-05
-3.21884e-06
2.25242e-05
-3.21978e-06
2.57451e-05
-3.22087e-06
2.89672e-05
-3.2221e-06
3.21907e-05
-3.22349e-06
3.54157e-05
-3.22501e-06
3.86423e-05
-3.22668e-06
4.18708e-05
-3.22848e-06
4.51012e-05
-3.23042e-06
4.83337e-05
-3.23248e-06
5.15684e-05
-3.23467e-06
5.48054e-05
-3.23697e-06
5.80448e-05
-3.23939e-06
6.12867e-05
-3.24191e-06
6.45312e-05
-3.24454e-06
6.77785e-05
-3.24726e-06
7.10285e-05
-3.25006e-06
7.42815e-05
-3.25295e-06
7.75374e-05
-3.2559e-06
8.07963e-05
-3.25892e-06
8.40583e-05
-3.26199e-06
8.73234e-05
-3.26511e-06
9.05917e-05
-3.26826e-06
9.38631e-05
-3.27144e-06
9.71377e-05
-3.27463e-06
0.000100416
-3.27783e-06
0.000103697
-3.28101e-06
0.000106981
-3.28418e-06
0.000110268
-3.28731e-06
0.000113558
-3.29039e-06
0.000116852
-3.29341e-06
0.000120148
-3.29636e-06
0.000123447
-3.29921e-06
0.000126749
-3.30196e-06
0.000130054
-3.30458e-06
0.000133361
-3.30706e-06
0.00013667
-3.30939e-06
0.000139982
-3.31154e-06
0.000143295
-3.3135e-06
0.000146611
-3.31524e-06
0.000149927
-3.31675e-06
0.000153245
-3.318e-06
0.000156564
-3.31898e-06
0.000159884
-3.31965e-06
0.000163204
-3.32001e-06
0.000166524
-3.32002e-06
0.000169844
-3.31966e-06
0.000173163
-3.31891e-06
0.00017648
-3.31773e-06
0.000179797
-3.31612e-06
0.000183111
-3.31402e-06
0.000186422
-3.31143e-06
0.00018973
-3.30831e-06
0.000193035
-3.30464e-06
0.000196335
-3.30038e-06
0.000199631
-3.2955e-06
0.000202921
-3.28997e-06
0.000206205
-3.28377e-06
0.000209481
-3.27686e-06
0.000212751
-3.26921e-06
0.000216011
-3.26078e-06
0.000219263
-3.25156e-06
0.000222504
-3.24149e-06
0.000225735
-3.23055e-06
0.000228954
-3.2187e-06
0.00023216
-3.20592e-06
0.000235352
-3.19216e-06
0.000238529
-3.17739e-06
0.000241691
-3.16159e-06
0.000244835
-3.14471e-06
0.000247962
-3.12673e-06
0.00025107
-3.1076e-06
0.000254157
-3.0873e-06
0.000257223
-3.06579e-06
0.000260266
-3.04304e-06
0.000263285
-3.01902e-06
0.000266279
-2.99371e-06
0.000269246
-2.96706e-06
0.000272185
-2.93905e-06
0.000275094
-2.90965e-06
0.000277973
-2.87884e-06
0.00028082
-2.84659e-06
0.000283633
-2.81287e-06
0.00028641
-2.77766e-06
0.000289151
-2.74095e-06
0.000291854
-2.7027e-06
0.000294517
-2.66291e-06
0.000297138
-2.62156e-06
0.000299717
-2.57863e-06
0.000302251
-2.53411e-06
0.000304739
-2.48799e-06
0.000307179
-2.44027e-06
0.00030957
-2.39094e-06
0.00031191
-2.33999e-06
0.000314198
-2.28744e-06
0.000316431
-2.23328e-06
0.000318609
-2.17751e-06
0.000320729
-2.12015e-06
0.00032279
-2.06122e-06
0.000324791
-2.00072e-06
0.000326729
-1.93867e-06
0.000328604
-1.87509e-06
0.000330414
-1.81002e-06
0.000332158
-1.74347e-06
0.000333833
-1.67548e-06
0.00033544
-1.60608e-06
0.000336975
-1.53531e-06
0.000338438
-1.46322e-06
0.000339828
-1.38984e-06
0.000341143
-1.31522e-06
0.000342382
-1.23941e-06
0.000343545
-1.16246e-06
0.000344629
-1.08444e-06
0.000345635
-1.0054e-06
0.00034656
-9.25394e-07
0.000347405
-8.44496e-07
0.000348167
-7.62768e-07
0.000348848
-6.80278e-07
0.000349445
-5.97099e-07
0.000349958
-5.13301e-07
0.000350387
-4.28958e-07
0.000350731
-3.44147e-07
0.00035099
-2.58945e-07
0.000351164
-1.73428e-07
0.000351251
-8.76757e-08
0.000351253
-1.76775e-09
0.000351169
8.42162e-08
0.000350999
1.70196e-07
0.000350743
2.56092e-07
0.000350401
3.41824e-07
0.000349973
4.27314e-07
0.000349461
5.12482e-07
0.000348864
5.97251e-07
0.000348182
6.81545e-07
0.000347417
7.65288e-07
0.000346568
8.48408e-07
0.000345638
9.30832e-07
0.000344625
1.01249e-06
0.000343532
1.09332e-06
0.000342359
1.17324e-06
0.000341106
1.25221e-06
0.000339776
1.33015e-06
0.000338369
1.40702e-06
0.000336886
1.48275e-06
0.000335329
1.55729e-06
0.000333699
1.63059e-06
0.000331996
1.70262e-06
0.000330223
1.77332e-06
0.00032838
1.84266e-06
0.000326469
1.91059e-06
0.000324492
1.97709e-06
0.00032245
2.04212e-06
0.000320344
2.10567e-06
0.000318177
2.1677e-06
0.000315949
2.22819e-06
0.000313661
2.28713e-06
0.000311317
2.34449e-06
0.000308917
2.40028e-06
0.000306462
2.45449e-06
0.000303955
2.50709e-06
0.000301397
2.55811e-06
0.000298789
2.60752e-06
0.000296134
2.65534e-06
0.000293433
2.70157e-06
0.000290686
2.74622e-06
0.000287897
2.78929e-06
0.000285066
2.83081e-06
0.000282195
2.87078e-06
0.000279286
2.90921e-06
0.00027634
2.94614e-06
0.000273359
2.98157e-06
0.000270343
3.01553e-06
0.000267295
3.04803e-06
0.000264216
3.07912e-06
0.000261107
3.1088e-06
0.00025797
3.1371e-06
0.000254806
3.16407e-06
0.000251616
3.18971e-06
0.000248402
3.21406e-06
0.000245165
3.23716e-06
0.000241906
3.25903e-06
0.000238626
3.2797e-06
0.000235327
3.29921e-06
0.000232009
3.31758e-06
0.000228675
3.33486e-06
0.000225324
3.35107e-06
0.000221957
3.36625e-06
0.000218577
3.38043e-06
0.000215183
3.39364e-06
0.000211777
3.40592e-06
0.00020836
3.4173e-06
0.000204932
3.42782e-06
0.000201495
3.4375e-06
0.000198048
3.44637e-06
0.000194594
3.45448e-06
0.000191132
3.46186e-06
0.000187663
3.46853e-06
0.000184189
3.47452e-06
0.000180709
3.47987e-06
0.000177224
3.48461e-06
0.000173736
3.48877e-06
0.000170243
3.49237e-06
0.000166748
3.49545e-06
0.00016325
3.49803e-06
0.00015975
3.50015e-06
0.000156248
3.50182e-06
0.000152745
3.50308e-06
0.000149241
3.50395e-06
0.000145736
3.50446e-06
0.000142232
3.50463e-06
0.000138727
3.50449e-06
0.000135223
3.50405e-06
0.00013172
3.50334e-06
0.000128217
3.50239e-06
0.000124716
3.50122e-06
0.000121216
3.49984e-06
0.000117718
3.49827e-06
0.000114222
3.49655e-06
0.000110727
3.49467e-06
0.000107234
3.49267e-06
0.000103744
3.49056e-06
0.000100255
3.48836e-06
9.67692e-05
3.48608e-06
9.32855e-05
3.48374e-06
8.98041e-05
3.48135e-06
8.63252e-05
3.47894e-06
8.28487e-05
3.4765e-06
7.93746e-05
3.47407e-06
7.5903e-05
3.47164e-06
7.24338e-05
3.46923e-06
6.89669e-05
3.46686e-06
6.55024e-05
3.46453e-06
6.20401e-05
3.46225e-06
5.85801e-05
3.46004e-06
5.51222e-05
3.4579e-06
5.16664e-05
3.45584e-06
4.82125e-05
3.45387e-06
4.47605e-05
3.45199e-06
4.13103e-05
3.45023e-06
3.78617e-05
3.44857e-06
3.44147e-05
3.44703e-06
3.09691e-05
3.44561e-06
2.75247e-05
3.44432e-06
2.40816e-05
3.44317e-06
2.06394e-05
3.44215e-06
1.71982e-05
3.44126e-06
1.37576e-05
3.44052e-06
1.03177e-05
3.43993e-06
6.87822e-06
3.43948e-06
3.43903e-06
3.43918e-06
3.43903e-06
3.21633e-06
-6.43281e-06
6.43281e-06
-6.43313e-06
9.64962e-06
-6.43376e-06
1.28669e-05
-6.43471e-06
1.60848e-05
-6.43597e-06
1.93035e-05
-6.43753e-06
2.25231e-05
-6.43941e-06
2.57438e-05
-6.44159e-06
2.89658e-05
-6.44406e-06
3.21891e-05
-6.44683e-06
3.5414e-05
-6.44989e-06
3.86406e-05
-6.45322e-06
4.18689e-05
-6.45683e-06
4.50992e-05
-6.46071e-06
4.83316e-05
-6.46484e-06
5.15661e-05
-6.46922e-06
5.4803e-05
-6.47383e-06
5.80423e-05
-6.47867e-06
6.12841e-05
-6.48373e-06
6.45285e-05
-6.48898e-06
6.77757e-05
-6.49443e-06
7.10257e-05
-6.50005e-06
7.42786e-05
-6.50582e-06
7.75344e-05
-6.51174e-06
8.07933e-05
-6.51779e-06
8.40552e-05
-6.52394e-06
8.73203e-05
-6.53019e-06
9.05885e-05
-6.53651e-06
9.386e-05
-6.54287e-06
9.71346e-05
-6.54927e-06
0.000100412
-6.55567e-06
0.000103693
-6.56205e-06
0.000106978
-6.56839e-06
0.000110265
-6.57466e-06
0.000113555
-6.58084e-06
0.000116849
-6.5869e-06
0.000120145
-6.5928e-06
0.000123445
-6.59853e-06
0.000126747
-6.60404e-06
0.000130052
-6.6093e-06
0.000133359
-6.61429e-06
0.000136668
-6.61896e-06
0.00013998
-6.62328e-06
0.000143294
-6.62721e-06
0.000146609
-6.63072e-06
0.000149926
-6.63375e-06
0.000153245
-6.63628e-06
0.000156564
-6.63825e-06
0.000159884
-6.63963e-06
0.000163204
-6.64036e-06
0.000166525
-6.64041e-06
0.000169845
-6.63972e-06
0.000173164
-6.63824e-06
0.000176482
-6.63592e-06
0.000179799
-6.63271e-06
0.000183113
-6.62855e-06
0.000186425
-6.6234e-06
0.000189734
-6.61719e-06
0.000193039
-6.60987e-06
0.00019634
-6.60137e-06
0.000199636
-6.59164e-06
0.000202927
-6.58063e-06
0.000206212
-6.56825e-06
0.000209489
-6.55446e-06
0.000212759
-6.53919e-06
0.000216021
-6.52238e-06
0.000219273
-6.50395e-06
0.000222516
-6.48385e-06
0.000225747
-6.462e-06
0.000228967
-6.43834e-06
0.000232173
-6.41281e-06
0.000235367
-6.38533e-06
0.000238545
-6.35583e-06
0.000241708
-6.32426e-06
0.000244854
-6.29053e-06
0.000247981
-6.25459e-06
0.00025109
-6.21637e-06
0.000254179
-6.1758e-06
0.000257246
-6.13282e-06
0.00026029
-6.08735e-06
0.00026331
-6.03935e-06
0.000266305
-5.98874e-06
0.000269274
-5.93548e-06
0.000272214
-5.87949e-06
0.000275125
-5.82072e-06
0.000278006
-5.75912e-06
0.000280854
-5.69464e-06
0.000283668
-5.62723e-06
0.000286447
-5.55684e-06
0.00028919
-5.48342e-06
0.000291894
-5.40695e-06
0.000294558
-5.32739e-06
0.000297182
-5.24469e-06
0.000299762
-5.15884e-06
0.000302297
-5.06981e-06
0.000304787
-4.97759e-06
0.000307229
-4.88215e-06
0.000309622
-4.78348e-06
0.000311963
-4.6816e-06
0.000314252
-4.57648e-06
0.000316487
-4.46815e-06
0.000318666
-4.35661e-06
0.000320788
-4.24189e-06
0.000322851
-4.124e-06
0.000324853
-4.00298e-06
0.000326793
-3.87886e-06
0.00032867
-3.75168e-06
0.000330481
-3.6215e-06
0.000332226
-3.48838e-06
0.000333903
-3.35236e-06
0.00033551
-3.21353e-06
0.000337047
-3.07195e-06
0.000338512
-2.92772e-06
0.000339903
-2.78091e-06
0.000341219
-2.63162e-06
0.00034246
-2.47995e-06
0.000343623
-2.326e-06
0.000344709
-2.1699e-06
0.000345715
-2.01175e-06
0.000346641
-1.85168e-06
0.000347487
-1.68982e-06
0.00034825
-1.52629e-06
0.000348931
-1.36124e-06
0.000349529
-1.19481e-06
0.000350043
-1.02714e-06
0.000350472
-8.58382e-07
0.000350817
-6.88684e-07
0.000351076
-5.182e-07
0.000351249
-3.47087e-07
0.000351337
-1.75504e-07
0.000351339
-3.60817e-09
0.000351255
1.6844e-07
0.000351085
3.4048e-07
0.000350828
5.12351e-07
0.000350486
6.83895e-07
0.000350059
8.54952e-07
0.000349546
1.02537e-06
0.000348948
1.19498e-06
0.000348266
1.36364e-06
0.0003475
1.5312e-06
0.000346651
1.69751e-06
0.000345719
1.86243e-06
0.000344706
2.02582e-06
0.000343612
2.18753e-06
0.000342438
2.34745e-06
0.000341184
2.50544e-06
0.000339853
2.66139e-06
0.000338445
2.81517e-06
0.000336961
2.96668e-06
0.000335402
3.11581e-06
0.000333771
3.26247e-06
0.000332067
3.40657e-06
0.000330292
3.54801e-06
0.000328448
3.68671e-06
0.000326536
3.82262e-06
0.000324557
3.95565e-06
0.000322514
4.08574e-06
0.000320407
4.21285e-06
0.000318237
4.33693e-06
0.000316008
4.45793e-06
0.000313719
4.57582e-06
0.000311373
4.69057e-06
0.000308971
4.80216e-06
0.000306515
4.91057e-06
0.000304006
5.01579e-06
0.000301446
5.11781e-06
0.000298837
5.21664e-06
0.00029618
5.31227e-06
0.000293477
5.40473e-06
0.000290729
5.49401e-06
0.000287939
5.58015e-06
0.000285106
5.66317e-06
0.000282234
5.74309e-06
0.000279323
5.81994e-06
0.000276376
5.89377e-06
0.000273392
5.96461e-06
0.000270375
6.03251e-06
0.000267326
6.0975e-06
0.000264246
6.15964e-06
0.000261135
6.21897e-06
0.000257997
6.27556e-06
0.000254832
6.32945e-06
0.000251641
6.38071e-06
0.000248425
6.42938e-06
0.000245187
6.47554e-06
0.000241927
6.51925e-06
0.000238646
6.56056e-06
0.000235345
6.59954e-06
0.000232027
6.63626e-06
0.000228691
6.67079e-06
0.000225339
6.70317e-06
0.000221971
6.7335e-06
0.00021859
6.76182e-06
0.000215195
6.78822e-06
0.000211789
6.81274e-06
0.00020837
6.83547e-06
0.000204942
6.85646e-06
0.000201504
6.87579e-06
0.000198056
6.89352e-06
0.000194601
6.9097e-06
0.000191139
6.92442e-06
0.000187669
6.93772e-06
0.000184194
6.94968e-06
0.000180714
6.96036e-06
0.000177229
6.9698e-06
0.000173739
6.97809e-06
0.000170246
6.98527e-06
0.00016675
6.9914e-06
0.000163252
6.99654e-06
0.000159751
7.00074e-06
0.000156249
7.00406e-06
0.000152746
7.00655e-06
0.000149241
7.00827e-06
0.000145736
7.00926e-06
0.000142232
7.00958e-06
0.000138727
7.00926e-06
0.000135222
7.00837e-06
0.000131719
7.00693e-06
0.000128216
7.00501e-06
0.000124715
7.00264e-06
0.000121215
6.99986e-06
0.000117716
6.99671e-06
0.00011422
6.99323e-06
0.000110725
6.98947e-06
0.000107232
6.98545e-06
0.000103741
6.98121e-06
0.000100253
6.97679e-06
9.67669e-05
6.97222e-06
9.32831e-05
6.96752e-06
8.98017e-05
6.96274e-06
8.63227e-05
6.95789e-06
8.28462e-05
6.95301e-06
7.93722e-05
6.94813e-06
7.59006e-05
6.94326e-06
7.24314e-05
6.93843e-06
6.89645e-05
6.93367e-06
6.55001e-05
6.929e-06
6.20379e-05
6.92443e-06
5.85779e-05
6.92e-06
5.51201e-05
6.91571e-06
5.16644e-05
6.91158e-06
4.82106e-05
6.90763e-06
4.47587e-05
6.90388e-06
4.13086e-05
6.90034e-06
3.78601e-05
6.89702e-06
3.44132e-05
6.89394e-06
3.09678e-05
6.8911e-06
2.75236e-05
6.88851e-06
2.40805e-05
6.8862e-06
2.06385e-05
6.88415e-06
1.71974e-05
6.88238e-06
1.3757e-05
6.8809e-06
1.03173e-05
6.87971e-06
6.87792e-06
6.87881e-06
3.43888e-06
6.87822e-06
6.87792e-06
3.21601e-06
-9.64882e-06
6.43218e-06
-9.6493e-06
9.64867e-06
-9.65025e-06
1.28656e-05
-9.65167e-06
1.60832e-05
-9.65356e-06
1.93016e-05
-9.65592e-06
2.25209e-05
-9.65873e-06
2.57414e-05
-9.66201e-06
2.8963e-05
-9.66573e-06
3.21861e-05
-9.66989e-06
3.54107e-05
-9.67448e-06
3.86369e-05
-9.6795e-06
4.1865e-05
-9.68492e-06
4.50951e-05
-9.69074e-06
4.83272e-05
-9.69695e-06
5.15615e-05
-9.70353e-06
5.47981e-05
-9.71047e-06
5.80372e-05
-9.71774e-06
6.12788e-05
-9.72534e-06
6.45231e-05
-9.73324e-06
6.77701e-05
-9.74142e-06
7.10199e-05
-9.74987e-06
7.42726e-05
-9.75856e-06
7.75283e-05
-9.76746e-06
8.07871e-05
-9.77655e-06
8.40489e-05
-9.7858e-06
8.7314e-05
-9.7952e-06
9.05821e-05
-9.8047e-06
9.38535e-05
-9.81427e-06
9.71282e-05
-9.82389e-06
0.000100406
-9.83352e-06
0.000103687
-9.84313e-06
0.000106971
-9.85267e-06
0.000110259
-9.86211e-06
0.000113549
-9.87142e-06
0.000116843
-9.88054e-06
0.00012014
-9.88943e-06
0.000123439
-9.89806e-06
0.000126742
-9.90637e-06
0.000130047
-9.91431e-06
0.000133354
-9.92183e-06
0.000136664
-9.92888e-06
0.000139976
-9.93541e-06
0.00014329
-9.94135e-06
0.000146606
-9.94666e-06
0.000149924
-9.95126e-06
0.000153243
-9.95511e-06
0.000156562
-9.95812e-06
0.000159883
-9.96025e-06
0.000163204
-9.96141e-06
0.000166525
-9.96154e-06
0.000169846
-9.96056e-06
0.000173166
-9.9584e-06
0.000176485
-9.95499e-06
0.000179803
-9.95024e-06
0.000183118
-9.94408e-06
0.000186431
-9.93642e-06
0.000189741
-9.92717e-06
0.000193048
-9.91626e-06
0.00019635
-9.9036e-06
0.000199647
-9.88908e-06
0.000202939
-9.87263e-06
0.000206225
-9.85415e-06
0.000209504
-9.83355e-06
0.000212776
-9.81072e-06
0.000216039
-9.78558e-06
0.000219293
-9.75802e-06
0.000222537
-9.72795e-06
0.000225771
-9.69526e-06
0.000228992
-9.65986e-06
0.000232201
-9.62164e-06
0.000235396
-9.58051e-06
0.000238577
-9.53635e-06
0.000241741
-9.48907e-06
0.000244889
-9.43857e-06
0.00024802
-9.38474e-06
0.000251131
-9.32749e-06
0.000254222
-9.26672e-06
0.000257291
-9.20232e-06
0.000260338
-9.13421e-06
0.000263361
-9.06228e-06
0.000266359
-8.98645e-06
0.00026933
-8.90661e-06
0.000272273
-8.8227e-06
0.000275187
-8.73462e-06
0.00027807
-8.64228e-06
0.000280921
-8.54562e-06
0.000283738
-8.44456e-06
0.000286521
-8.33903e-06
0.000289266
-8.22896e-06
0.000291973
-8.1143e-06
0.000294641
-7.99499e-06
0.000297267
-7.87098e-06
0.000299851
-7.74224e-06
0.00030239
-7.60872e-06
0.000304882
-7.47039e-06
0.000307328
-7.32725e-06
0.000309723
-7.17926e-06
0.000312068
-7.02643e-06
0.00031436
-6.86875e-06
0.000316599
-6.70623e-06
0.000318781
-6.53891e-06
0.000320906
-6.36679e-06
0.000322972
-6.18991e-06
0.000324977
-6.00833e-06
0.00032692
-5.8221e-06
0.0003288
-5.63128e-06
0.000330614
-5.43594e-06
0.000332362
-5.23617e-06
0.000334042
-5.03206e-06
0.000335652
-4.82372e-06
0.000337191
-4.61126e-06
0.000338658
-4.39479e-06
0.000340052
-4.17446e-06
0.000341371
-3.9504e-06
0.000342613
-3.72276e-06
0.000343779
-3.49171e-06
0.000344867
-3.2574e-06
0.000345875
-3.02003e-06
0.000346803
-2.77976e-06
0.00034765
-2.5368e-06
0.000348415
-2.29134e-06
0.000349097
-2.04359e-06
0.000349696
-1.79377e-06
0.000350211
-1.54208e-06
0.000350642
-1.28875e-06
0.000350987
-1.03401e-06
0.000351247
-7.78085e-07
0.000351421
-5.21219e-07
0.000351509
-2.63645e-07
0.000351511
-5.60178e-09
0.000351427
2.5267e-07
0.000351256
5.1093e-07
0.000351
7.68937e-07
0.000350657
1.02645e-06
0.000350229
1.28323e-06
0.000349715
1.53905e-06
0.000349117
1.79366e-06
0.000348433
2.04684e-06
0.000347666
2.29837e-06
0.000346816
2.54801e-06
0.000345883
2.79557e-06
0.000344868
3.04081e-06
0.000343772
3.28355e-06
0.000342596
3.52358e-06
0.00034134
3.76072e-06
0.000340007
3.99478e-06
0.000338596
4.2256e-06
0.00033711
4.45299e-06
0.000335549
4.67682e-06
0.000333915
4.89692e-06
0.000332208
5.11317e-06
0.000330431
5.32543e-06
0.000328584
5.53358e-06
0.000326669
5.73752e-06
0.000324687
5.93714e-06
0.000322641
6.13235e-06
0.000320531
6.32307e-06
0.000318358
6.50924e-06
0.000316125
6.69078e-06
0.000313834
6.86766e-06
0.000311484
7.03981e-06
0.000309079
7.20721e-06
0.00030662
7.36984e-06
0.000304108
7.52768e-06
0.000301545
7.68071e-06
0.000298933
7.82894e-06
0.000296273
7.97238e-06
0.000293566
8.11105e-06
0.000290816
8.24495e-06
0.000288022
8.37413e-06
0.000285186
8.49862e-06
0.000282311
8.61846e-06
0.000279397
8.7337e-06
0.000276446
8.8444e-06
0.00027346
8.9506e-06
0.000270441
9.05239e-06
0.000267388
9.14981e-06
0.000264305
9.24296e-06
0.000261192
9.33189e-06
0.000258051
9.4167e-06
0.000254883
9.49747e-06
0.000251689
9.57428e-06
0.000248471
9.64722e-06
0.000245231
9.71638e-06
0.000241968
9.78186e-06
0.000238685
9.84375e-06
0.000235382
9.90214e-06
0.000232061
9.95714e-06
0.000228723
1.00088e-05
0.000225369
1.00573e-05
0.000222
1.01027e-05
0.000218616
1.01452e-05
0.00021522
1.01847e-05
0.000211811
1.02214e-05
0.000208391
1.02554e-05
0.000204961
1.02868e-05
0.000201521
1.03157e-05
0.000198073
1.03422e-05
0.000194616
1.03664e-05
0.000191152
1.03884e-05
0.000187681
1.04083e-05
0.000184205
1.04261e-05
0.000180723
1.04421e-05
0.000177237
1.04562e-05
0.000173746
1.04685e-05
0.000170252
1.04792e-05
0.000166756
1.04883e-05
0.000163256
1.0496e-05
0.000159755
1.05022e-05
0.000156252
1.05071e-05
0.000152747
1.05108e-05
0.000149242
1.05133e-05
0.000145737
1.05147e-05
0.000142231
1.05151e-05
0.000138726
1.05146e-05
0.000135221
1.05132e-05
0.000131717
1.0511e-05
0.000128214
1.05081e-05
0.000124712
1.05045e-05
0.000121212
1.05002e-05
0.000117713
1.04955e-05
0.000114216
1.04902e-05
0.000110721
1.04845e-05
0.000107228
1.04784e-05
0.000103737
1.0472e-05
0.000100248
1.04654e-05
9.67622e-05
1.04585e-05
9.32783e-05
1.04514e-05
8.97969e-05
1.04442e-05
8.63179e-05
1.04369e-05
8.28414e-05
1.04295e-05
7.93673e-05
1.04222e-05
7.58957e-05
1.04148e-05
7.24266e-05
1.04076e-05
6.89599e-05
1.04004e-05
6.54955e-05
1.03934e-05
6.20335e-05
1.03865e-05
5.85736e-05
1.03798e-05
5.5116e-05
1.03734e-05
5.16604e-05
1.03671e-05
4.82069e-05
1.03612e-05
4.47552e-05
1.03556e-05
4.13053e-05
1.03502e-05
3.78571e-05
1.03452e-05
3.44104e-05
1.03406e-05
3.09652e-05
1.03363e-05
2.75212e-05
1.03324e-05
2.40785e-05
1.0329e-05
2.06368e-05
1.03259e-05
1.71959e-05
1.03232e-05
1.37558e-05
1.0321e-05
1.03164e-05
1.03192e-05
6.87732e-06
1.03179e-05
3.43858e-06
1.0317e-05
1.03165e-05
3.21553e-06
-1.28644e-05
6.43123e-06
-1.2865e-05
9.64724e-06
-1.28663e-05
1.28637e-05
-1.28682e-05
1.60809e-05
-1.28707e-05
1.92988e-05
-1.28738e-05
2.25177e-05
-1.28776e-05
2.57376e-05
-1.2882e-05
2.89588e-05
-1.2887e-05
3.21815e-05
-1.28925e-05
3.54056e-05
-1.28987e-05
3.86315e-05
-1.29054e-05
4.18592e-05
-1.29126e-05
4.50888e-05
-1.29204e-05
4.83206e-05
-1.29287e-05
5.15545e-05
-1.29375e-05
5.47908e-05
-1.29468e-05
5.80296e-05
-1.29565e-05
6.12709e-05
-1.29666e-05
6.45149e-05
-1.29772e-05
6.77616e-05
-1.29882e-05
7.10112e-05
-1.29995e-05
7.42637e-05
-1.30111e-05
7.75192e-05
-1.3023e-05
8.07778e-05
-1.30351e-05
8.40395e-05
-1.30475e-05
8.73044e-05
-1.30601e-05
9.05725e-05
-1.30728e-05
9.38439e-05
-1.30856e-05
9.71185e-05
-1.30985e-05
0.000100396
-1.31114e-05
0.000103678
-1.31243e-05
0.000106962
-1.3137e-05
0.000110249
-1.31497e-05
0.00011354
-1.31622e-05
0.000116834
-1.31744e-05
0.000120131
-1.31863e-05
0.000123431
-1.31979e-05
0.000126734
-1.32091e-05
0.000130039
-1.32197e-05
0.000133347
-1.32298e-05
0.000136657
-1.32393e-05
0.00013997
-1.32481e-05
0.000143285
-1.32561e-05
0.000146602
-1.32633e-05
0.00014992
-1.32695e-05
0.000153239
-1.32748e-05
0.00015656
-1.32789e-05
0.000159882
-1.32818e-05
0.000163204
-1.32835e-05
0.000166526
-1.32838e-05
0.000169848
-1.32826e-05
0.00017317
-1.32798e-05
0.00017649
-1.32754e-05
0.000179809
-1.32692e-05
0.000183126
-1.32611e-05
0.000186441
-1.3251e-05
0.000189752
-1.32388e-05
0.00019306
-1.32244e-05
0.000196364
-1.32077e-05
0.000199664
-1.31885e-05
0.000202958
-1.31667e-05
0.000206246
-1.31422e-05
0.000209527
-1.31149e-05
0.000212801
-1.30846e-05
0.000216067
-1.30512e-05
0.000219323
-1.30146e-05
0.00022257
-1.29747e-05
0.000225806
-1.29312e-05
0.00022903
-1.28842e-05
0.000232242
-1.28334e-05
0.00023544
-1.27787e-05
0.000238624
-1.272e-05
0.000241792
-1.26571e-05
0.000244943
-1.25899e-05
0.000248077
-1.25183e-05
0.000251191
-1.24421e-05
0.000254286
-1.23613e-05
0.000257359
-1.22755e-05
0.00026041
-1.21849e-05
0.000263437
-1.20891e-05
0.000266438
-1.19881e-05
0.000269414
-1.18818e-05
0.000272361
-1.17701e-05
0.000275279
-1.16528e-05
0.000278167
-1.15298e-05
0.000281022
-1.1401e-05
0.000283844
-1.12664e-05
0.000286631
-1.11258e-05
0.000289381
-1.09791e-05
0.000292093
-1.08263e-05
0.000294765
-1.06673e-05
0.000297396
-1.0502e-05
0.000299984
-1.03304e-05
0.000302528
-1.01524e-05
0.000305026
-9.96803e-06
0.000307475
-9.77719e-06
0.000309876
-9.57988e-06
0.000312226
-9.3761e-06
0.000314523
-9.16585e-06
0.000316766
-8.94914e-06
0.000318953
-8.72599e-06
0.000321083
-8.49644e-06
0.000323153
-8.26054e-06
0.000325163
-8.01835e-06
0.000327111
-7.76994e-06
0.000328995
-7.51539e-06
0.000330814
-7.25481e-06
0.000332566
-6.98831e-06
0.00033425
-6.716e-06
0.000335864
-6.43804e-06
0.000337408
-6.15456e-06
0.000338879
-5.86574e-06
0.000340276
-5.57174e-06
0.000341598
-5.27276e-06
0.000342844
-4.96899e-06
0.000344013
-4.66066e-06
0.000345104
-4.34798e-06
0.000346115
-4.03119e-06
0.000347046
-3.71054e-06
0.000347895
-3.38629e-06
0.000348663
-3.05869e-06
0.000349347
-2.72803e-06
0.000349948
-2.39458e-06
0.000350465
-2.05865e-06
0.000350896
-1.72052e-06
0.000351243
-1.38051e-06
0.000351504
-1.03892e-06
0.000351679
-6.96061e-07
0.000351767
-3.52257e-07
0.000351769
-7.82573e-09
0.000351685
3.36912e-07
0.000351514
6.81632e-07
0.000351257
1.02601e-06
0.000350914
1.36974e-06
0.000350485
1.71248e-06
0.00034997
2.05393e-06
0.00034937
2.39377e-06
0.000348685
2.7317e-06
0.000347916
3.06741e-06
0.000347063
3.40061e-06
0.000346128
3.731e-06
0.00034511
4.05831e-06
0.000344012
4.38227e-06
0.000342833
4.70261e-06
0.000341574
5.01908e-06
0.000340238
5.33143e-06
0.000338824
5.63944e-06
0.000337334
5.94287e-06
0.000335769
6.24153e-06
0.000334131
6.53522e-06
0.00033242
6.82375e-06
0.000330639
7.10695e-06
0.000328788
7.38466e-06
0.000326869
7.65673e-06
0.000324883
7.92303e-06
0.000322832
8.18344e-06
0.000320717
8.43785e-06
0.00031854
8.68617e-06
0.000316302
8.92831e-06
0.000314006
9.16421e-06
0.000311652
9.3938e-06
0.000309242
9.61704e-06
0.000306778
9.83391e-06
0.000304261
1.00444e-05
0.000301693
1.02484e-05
0.000299076
1.0446e-05
0.000296411
1.06373e-05
0.0002937
1.08221e-05
0.000290945
1.10006e-05
0.000288146
1.11728e-05
0.000285306
1.13387e-05
0.000282426
1.14984e-05
0.000279508
1.1652e-05
0.000276553
1.17995e-05
0.000273562
1.1941e-05
0.000270538
1.20766e-05
0.000267481
1.22064e-05
0.000264394
1.23305e-05
0.000261277
1.24489e-05
0.000258132
1.25619e-05
0.00025496
1.26694e-05
0.000251762
1.27717e-05
0.000248541
1.28688e-05
0.000245296
1.29609e-05
0.00024203
1.30481e-05
0.000238743
1.31304e-05
0.000235437
1.32081e-05
0.000232113
1.32813e-05
0.000228772
1.33501e-05
0.000225414
1.34146e-05
0.000222042
1.3475e-05
0.000218656
1.35314e-05
0.000215257
1.35839e-05
0.000211845
1.36327e-05
0.000208423
1.36779e-05
0.00020499
1.37196e-05
0.000201548
1.3758e-05
0.000198097
1.37932e-05
0.000194638
1.38253e-05
0.000191172
1.38545e-05
0.000187699
1.38808e-05
0.000184221
1.39045e-05
0.000180737
1.39256e-05
0.000177249
1.39443e-05
0.000173757
1.39606e-05
0.000170262
1.39747e-05
0.000166763
1.39868e-05
0.000163262
1.39968e-05
0.00015976
1.4005e-05
0.000156255
1.40114e-05
0.00015275
1.40162e-05
0.000149244
1.40194e-05
0.000145737
1.40212e-05
0.000142231
1.40217e-05
0.000138724
1.40208e-05
0.000135219
1.40189e-05
0.000131714
1.40158e-05
0.00012821
1.40118e-05
0.000124708
1.40069e-05
0.000121207
1.40012e-05
0.000117708
1.39947e-05
0.00011421
1.39876e-05
0.000110715
1.398e-05
0.000107221
1.39718e-05
0.00010373
1.39632e-05
0.000100242
1.39542e-05
9.67551e-05
1.39449e-05
9.32711e-05
1.39354e-05
8.97896e-05
1.39257e-05
8.63105e-05
1.39159e-05
8.2834e-05
1.39061e-05
7.936e-05
1.38962e-05
7.58885e-05
1.38863e-05
7.24194e-05
1.38766e-05
6.89529e-05
1.3867e-05
6.54887e-05
1.38576e-05
6.20268e-05
1.38484e-05
5.85672e-05
1.38394e-05
5.51098e-05
1.38308e-05
5.16545e-05
1.38224e-05
4.82012e-05
1.38145e-05
4.47498e-05
1.38069e-05
4.13003e-05
1.37998e-05
3.78524e-05
1.37931e-05
3.44061e-05
1.37869e-05
3.09613e-05
1.37812e-05
2.75178e-05
1.3776e-05
2.40754e-05
1.37713e-05
2.06341e-05
1.37672e-05
1.71937e-05
1.37636e-05
1.37541e-05
1.37606e-05
1.0315e-05
1.37582e-05
6.87642e-06
1.37564e-05
3.43813e-06
1.37552e-05
1.37546e-05
3.2149e-06
-1.60793e-05
6.42996e-06
-1.608e-05
9.64534e-06
-1.60816e-05
1.28612e-05
-1.6084e-05
1.60777e-05
-1.60872e-05
1.9295e-05
-1.60911e-05
2.25133e-05
-1.60959e-05
2.57326e-05
-1.61013e-05
2.89533e-05
-1.61076e-05
3.21753e-05
-1.61146e-05
3.53989e-05
-1.61223e-05
3.86242e-05
-1.61307e-05
4.18514e-05
-1.61398e-05
4.50805e-05
-1.61495e-05
4.83118e-05
-1.61599e-05
5.15452e-05
-1.6171e-05
5.47811e-05
-1.61826e-05
5.80194e-05
-1.61948e-05
6.12603e-05
-1.62075e-05
6.45039e-05
-1.62208e-05
6.77503e-05
-1.62345e-05
7.09995e-05
-1.62487e-05
7.42518e-05
-1.62633e-05
7.7507e-05
-1.62782e-05
8.07654e-05
-1.62935e-05
8.40269e-05
-1.63091e-05
8.72917e-05
-1.63248e-05
9.05597e-05
-1.63408e-05
9.3831e-05
-1.63569e-05
9.71056e-05
-1.63731e-05
0.000100383
-1.63893e-05
0.000103665
-1.64055e-05
0.000106949
-1.64216e-05
0.000110237
-1.64375e-05
0.000113528
-1.64532e-05
0.000116822
-1.64686e-05
0.000120119
-1.64836e-05
0.00012342
-1.64982e-05
0.000126723
-1.65122e-05
0.000130029
-1.65257e-05
0.000133337
-1.65385e-05
0.000136649
-1.65505e-05
0.000139962
-1.65616e-05
0.000143278
-1.65718e-05
0.000146595
-1.65809e-05
0.000149915
-1.65888e-05
0.000153235
-1.65955e-05
0.000156557
-1.66008e-05
0.00015988
-1.66047e-05
0.000163204
-1.66069e-05
0.000166527
-1.66075e-05
0.000169851
-1.66062e-05
0.000173174
-1.66029e-05
0.000176496
-1.65976e-05
0.000179817
-1.659e-05
0.000183136
-1.65801e-05
0.000186453
-1.65677e-05
0.000189767
-1.65527e-05
0.000193077
-1.65349e-05
0.000196384
-1.65142e-05
0.000199686
-1.64904e-05
0.000202982
-1.64634e-05
0.000206273
-1.6433e-05
0.000209557
-1.63991e-05
0.000212834
-1.63615e-05
0.000216103
-1.632e-05
0.000219363
-1.62745e-05
0.000222613
-1.62249e-05
0.000225853
-1.61708e-05
0.000229081
-1.61123e-05
0.000232297
-1.6049e-05
0.000235499
-1.59809e-05
0.000238687
-1.59078e-05
0.000241859
-1.58294e-05
0.000245015
-1.57457e-05
0.000248153
-1.56565e-05
0.000251272
-1.55615e-05
0.000254372
-1.54606e-05
0.00025745
-1.53537e-05
0.000260506
-1.52406e-05
0.000263538
-1.51212e-05
0.000266545
-1.49952e-05
0.000269525
-1.48625e-05
0.000272478
-1.4723e-05
0.000275402
-1.45766e-05
0.000278295
-1.4423e-05
0.000281157
-1.42623e-05
0.000283984
-1.40941e-05
0.000286777
-1.39185e-05
0.000289533
-1.37354e-05
0.000292252
-1.35445e-05
0.00029493
-1.33459e-05
0.000297568
-1.31394e-05
0.000300162
-1.2925e-05
0.000302712
-1.27026e-05
0.000305216
-1.24721e-05
0.000307673
-1.22336e-05
0.00031008
-1.1987e-05
0.000312436
-1.17322e-05
0.00031474
-1.14694e-05
0.000316989
-1.11985e-05
0.000319182
-1.09195e-05
0.000321318
-1.06324e-05
0.000323395
-1.03375e-05
0.000325412
-1.00346e-05
0.000327365
-9.72391e-06
0.000329256
-9.40554e-06
0.00033108
-9.07961e-06
0.000332838
-8.74624e-06
0.000334528
-8.40561e-06
0.000336148
-8.05787e-06
0.000337696
-7.70322e-06
0.000339173
-7.34185e-06
0.000340575
-6.974e-06
0.000341902
-6.5999e-06
0.000343153
-6.2198e-06
0.000344326
-5.83396e-06
0.000345421
-5.44267e-06
0.000346436
-5.04623e-06
0.00034737
-4.64493e-06
0.000348223
-4.23911e-06
0.000348993
-3.8291e-06
0.000349681
-3.41524e-06
0.000350284
-2.99789e-06
0.000350803
-2.57741e-06
0.000351236
-2.15419e-06
0.000351584
-1.72859e-06
0.000351847
-1.30102e-06
0.000352022
-8.71851e-07
0.000352112
-4.41498e-07
0.000352114
-1.03572e-08
0.00035203
4.21168e-07
0.000351859
8.52672e-07
0.000351601
1.28375e-06
0.000351257
1.714e-06
0.000350826
2.14302e-06
0.00035031
2.57042e-06
0.000349708
2.9958e-06
0.000349021
3.41877e-06
0.000348249
3.83896e-06
0.000347394
4.256e-06
0.000346455
4.66952e-06
0.000345434
5.07917e-06
0.000344332
5.48461e-06
0.000343149
5.88551e-06
0.000341887
6.28154e-06
0.000340546
6.67242e-06
0.000339127
7.05784e-06
0.000337633
7.43753e-06
0.000336063
7.81123e-06
0.000334419
8.17868e-06
0.000332704
8.53967e-06
0.000330917
8.89396e-06
0.00032906
9.24137e-06
0.000327135
9.58171e-06
0.000325143
9.91482e-06
0.000323086
1.02405e-05
0.000320965
1.05587e-05
0.000318782
1.08693e-05
0.000316538
1.11721e-05
0.000314235
1.14671e-05
0.000311875
1.17541e-05
0.000309459
1.20333e-05
0.000306988
1.23044e-05
0.000304465
1.25675e-05
0.000301891
1.28225e-05
0.000299268
1.30695e-05
0.000296596
1.33085e-05
0.000293879
1.35395e-05
0.000291117
1.37626e-05
0.000288312
1.39777e-05
0.000285466
1.4185e-05
0.00028258
1.43845e-05
0.000279655