/*--------------------------------*- C++ -*----------------------------------*\
| =========                 |                                                 |
| \\      /  F ield         | OpenFOAM: The Open Source CFD Toolbox           |
|  \\    /   O peration     | Version:  v2012                                 |
|   \\  /    A nd           | Website:  www.openfoam.com                      |
|    \\/     M anipulation  |                                                 |
\*---------------------------------------------------------------------------*/
FoamFile
{
    version     2.0;
    format      ascii;
    class       volVectorField;
    location    "0";
    object      U;
}
// * * * * * * * * * * * * * * * * * * * * * * * * * * * * * * * * * * * * * //

dimensions      [0 1 -1 0 0 0 0];


internalField   nonuniform List<vector> 
4000
(
(1 -2.26928e-15 0)
(1 5.62402e-15 0)
(1 -2.89501e-15 0)
(1 7.9878e-15 0)
(1 -2.19093e-15 0)
(1 -5.54827e-16 0)
(1 4.30984e-15 0)
(1 -5.70926e-15 0)
(1 5.60761e-16 0)
(1 -4.95805e-15 0)
(1 2.53775e-15 0)
(1 4.57917e-15 0)
(1 1.54322e-15 0)
(1 2.56848e-16 0)
(1 6.35116e-15 0)
(1 -1.66371e-15 0)
(1 -3.88437e-15 0)
(1 -6.98742e-15 0)
(1 8.36096e-16 0)
(1 -2.37525e-15 0)
(1 -6.73174e-15 0)
(1 -1.18168e-14 0)
(1 1.38698e-15 0)
(1 1.1604e-15 0)
(1 5.98398e-15 0)
(1 -1.99265e-15 0)
(1 7.37949e-15 0)
(1 1.85087e-15 0)
(1 5.27441e-15 0)
(1 3.87922e-15 0)
(1 2.58684e-15 0)
(1 -4.48013e-15 0)
(1 -7.00505e-15 0)
(1 -1.58448e-15 0)
(1 7.5081e-16 0)
(1 5.70739e-15 0)
(1 8.64755e-15 0)
(1 3.47248e-15 0)
(1 4.1659e-15 0)
(1 -4.48106e-15 0)
(1 -4.42629e-15 0)
(1 -3.25944e-15 0)
(1 2.49215e-15 0)
(1 2.65824e-15 0)
(1 -2.19234e-15 0)
(1 -1.17707e-15 0)
(1 9.23309e-17 0)
(1 -3.51433e-15 0)
(1 6.34588e-17 0)
(1 7.96352e-16 0)
(1 3.40642e-16 0)
(1 6.64217e-15 0)
(1 -1.83498e-15 0)
(1 3.9855e-15 0)
(1 -3.10027e-15 0)
(1 -5.60767e-15 0)
(1 -2.1094e-15 0)
(1 2.89254e-15 0)
(1 4.79561e-15 0)
(1 4.14559e-15 0)
(1 5.03754e-15 0)
(1 1.12047e-16 0)
(1 1.43951e-15 0)
(1 -1.65956e-15 0)
(1 2.31168e-15 0)
(1 -9.1967e-16 0)
(1 -4.03753e-15 0)
(1 -1.35909e-16 0)
(1 -1.47147e-15 0)
(1 -5.32864e-16 0)
(1 -4.14879e-15 0)
(1 1.30252e-16 0)
(1 1.82798e-15 0)
(1 -3.18095e-15 0)
(1 -8.42681e-15 0)
(1 -3.06514e-15 0)
(1 -1.79066e-15 0)
(1 2.47965e-15 0)
(1 3.97344e-15 0)
(1 4.42694e-15 0)
(1 3.76153e-15 0)
(1 -5.41165e-16 0)
(1 -1.19947e-15 0)
(1 -1.23538e-15 0)
(1 -1.30632e-15 0)
(1 -4.0734e-16 0)
(1 -3.64814e-15 0)
(1 2.57051e-15 0)
(1 2.8168e-15 0)
(1 2.04133e-15 0)
(1 -6.78376e-16 0)
(1 -8.051e-16 0)
(1 -2.33366e-15 0)
(1 -3.31192e-15 0)
(1 -4.36137e-15 0)
(1 -3.19023e-15 0)
(1 -1.01718e-15 0)
(1 -8.42896e-16 0)
(1 1.09894e-15 0)
(1 1.05376e-15 0)
(1 2.22479e-15 0)
(1 4.21226e-16 0)
(1 8.05797e-16 0)
(1 6.92063e-15 0)
(1 -4.20693e-15 0)
(1 -2.04716e-15 0)
(1 4.13455e-15 0)
(1 -7.37626e-15 0)
(1 3.19538e-15 0)
(1 -7.55905e-15 0)
(1 -3.41781e-16 0)
(1 7.50511e-15 0)
(1 7.75539e-15 0)
(1 5.05554e-15 0)
(1 8.45006e-15 0)
(1 -2.39948e-15 0)
(1 -8.86654e-15 0)
(1 -1.28878e-14 0)
(1 1.07541e-15 0)
(1 -4.02726e-15 0)
(1 -9.21931e-15 0)
(1 -1.38378e-14 0)
(1 1.81547e-15 0)
(1 -3.98939e-15 0)
(1 8.97258e-15 0)
(1 1.38306e-16 0)
(1 7.67533e-15 0)
(1 -3.06546e-15 0)
(1 3.98428e-15 0)
(1 4.31868e-15 0)
(1 8.10866e-15 0)
(1 -1.13583e-15 0)
(1 -5.52217e-15 0)
(1 1.08663e-15 0)
(1 -1.25499e-15 0)
(1 2.70213e-15 0)
(1 5.31957e-15 0)
(1 6.76818e-15 0)
(1 4.63714e-16 0)
(1 -9.31126e-15 0)
(1 -7.57224e-15 0)
(1 -1.78845e-15 0)
(1 3.31138e-15 0)
(1 -1.60431e-15 0)
(1 -1.99968e-15 0)
(1 -4.67823e-15 0)
(1 2.61108e-15 0)
(1 -9.48594e-17 0)
(1 4.22985e-15 0)
(1 -5.79391e-15 0)
(1 -5.86554e-15 0)
(1 1.78202e-15 0)
(1 -3.883e-16 0)
(1 2.79287e-15 0)
(1 2.44818e-15 0)
(1 1.09427e-15 0)
(1 4.84248e-15 0)
(1 7.48243e-15 0)
(1 1.37042e-15 0)
(1 -2.84116e-15 0)
(1 -3.68926e-15 0)
(1 1.48721e-16 0)
(1 3.01213e-15 0)
(1 1.96956e-15 0)
(1 4.12371e-15 0)
(1 -2.71452e-15 0)
(1 -7.79775e-15 0)
(1 -2.53022e-15 0)
(1 -4.216e-15 0)
(1 -2.40147e-15 0)
(1 -1.93676e-15 0)
(1 5.55385e-15 0)
(1 6.48285e-15 0)
(1 -7.41562e-16 0)
(1 -3.53955e-15 0)
(1 -2.39444e-15 0)
(1 3.57071e-15 0)
(1 3.29805e-15 0)
(1 7.89113e-15 0)
(1 3.08901e-15 0)
(1 3.51324e-15 0)
(1 -3.62368e-15 0)
(1 1.16659e-15 0)
(1 2.19647e-15 0)
(1 3.75326e-15 0)
(1 4.61071e-16 0)
(1 -7.73357e-16 0)
(1 -3.49762e-15 0)
(1 -2.56698e-15 0)
(1 -8.68905e-16 0)
(1 1.06368e-15 0)
(1 1.77749e-15 0)
(1 -2.60374e-15 0)
(1 -5.56008e-15 0)
(1 -8.54167e-15 0)
(1 -1.88053e-15 0)
(1 -1.47133e-16 0)
(1 1.1118e-15 0)
(1 -3.59615e-15 0)
(1 -1.47962e-15 0)
(1 2.04986e-15 0)
(1 -5.29516e-15 0)
(1 1.38272e-15 0)
(1 -6.85472e-15 0)
(1 2.78006e-15 0)
(1 2.56606e-15 0)
(1 8.26116e-15 0)
(1 4.13186e-16 0)
(1 -6.50557e-16 0)
(1 -1.81644e-15 0)
(1 -2.0031e-15 0)
(1 6.33037e-15 0)
(1 6.64612e-15 0)
(1 1.0241e-14 0)
(1 1.22469e-15 0)
(1 1.96561e-15 0)
(1 -5.4223e-15 0)
(1 -1.99269e-15 0)
(1 -1.67087e-15 0)
(1 -3.85536e-15 0)
(1 -3.93e-15 0)
(1 -3.70606e-15 0)
(1 -8.59886e-15 0)
(1 -8.12393e-15 0)
(1 8.6048e-15 0)
(1 8.66714e-15 0)
(1 7.14458e-15 0)
(1 7.88134e-15 0)
(1 1.16128e-14 0)
(1 1.09822e-14 0)
(1 6.55944e-15 0)
(1 -1.76938e-15 0)
(1 2.50996e-16 0)
(1 -4.04825e-15 0)
(1 -1.60345e-15 0)
(1 -5.24069e-15 0)
(1 -3.73445e-15 0)
(1 4.36899e-15 0)
(1 -1.80531e-15 0)
(1 -2.81167e-15 0)
(1 -2.11814e-15 0)
(1 -2.2692e-15 0)
(1 -7.97313e-15 0)
(1 -7.12652e-15 0)
(1 -1.27925e-15 0)
(1 -2.86253e-15 0)
(1 1.11249e-15 0)
(1 1.26366e-15 0)
(1 -7.58916e-16 0)
(1 -3.3835e-16 0)
(1 -1.59317e-15 0)
(1 -6.88731e-16 0)
(1 4.64844e-15 0)
(1 2.8433e-16 0)
(1 8.48578e-15 0)
(1 7.68714e-15 0)
(1 5.4801e-15 0)
(1 3.90733e-16 0)
(1 -5.24115e-15 0)
(1 -6.3089e-15 0)
(1 -1.72429e-15 0)
(1 7.22641e-15 0)
(1 1.98463e-15 0)
(1 5.20089e-16 0)
(1 2.76621e-15 0)
(1 -3.14443e-15 0)
(1 -6.48971e-15 0)
(1 -2.31961e-15 0)
(1 1.35353e-17 0)
(1 -5.6504e-16 0)
(1 9.66983e-16 0)
(1 1.16838e-15 0)
(1 -9.79841e-16 0)
(1 -7.24593e-16 0)
(1 -1.14161e-15 0)
(1 1.66711e-15 0)
(1 6.06125e-16 0)
(1 1.64923e-15 0)
(1 4.17619e-15 0)
(1 8.75066e-16 0)
(1 -5.64188e-15 0)
(1 -2.16403e-15 0)
(1 -1.81437e-15 0)
(1 -2.61788e-15 0)
(1 5.12944e-15 0)
(1 6.60064e-17 0)
(1 2.18617e-15 0)
(1 -3.88176e-15 0)
(1 -6.57749e-15 0)
(1 -8.19998e-16 0)
(1 2.99781e-15 0)
(1 -1.0395e-15 0)
(1 -3.02402e-15 0)
(1 -3.56386e-15 0)
(1 -6.23287e-15 0)
(1 -2.07376e-15 0)
(1 -5.99346e-16 0)
(1 -1.93459e-15 0)
(1 -2.28122e-15 0)
(1 -5.53124e-16 0)
(1 2.90321e-15 0)
(1 -5.1234e-15 0)
(1 -1.82012e-15 0)
(1 -9.07324e-15 0)
(1 4.5182e-15 0)
(1 2.09958e-15 0)
(1 8.83905e-15 0)
(1 -1.05844e-16 0)
(1 -3.49186e-15 0)
(1 -2.78547e-15 0)
(1 7.70994e-15 0)
(1 1.11995e-14 0)
(1 4.77708e-15 0)
(1 7.29771e-15 0)
(1 3.44859e-15 0)
(1 4.14708e-15 0)
(1 -2.15541e-15 0)
(1 -9.34931e-15 0)
(1 -1.0451e-14 0)
(1 -1.55201e-15 0)
(1 -4.6969e-15 0)
(1 -8.27912e-16 0)
(1 -2.22049e-15 0)
(1 5.72645e-15 0)
(1 5.7732e-15 0)
(1 5.6516e-15 0)
(1 8.8946e-15 0)
(1 8.84622e-15 0)
(1 1.04788e-14 0)
(1 1.01959e-14 0)
(1 5.32869e-15 0)
(1 1.56235e-15 0)
(1 7.45392e-16 0)
(1 8.57062e-16 0)
(1 1.76432e-15 0)
(1 -6.46166e-15 0)
(1 -3.82496e-15 0)
(1 -5.10142e-15 0)
(1 2.31464e-15 0)
(1 5.97412e-15 0)
(1 7.81835e-16 0)
(1 -6.50897e-15 0)
(1 -1.06413e-14 0)
(1 -3.25731e-15 0)
(1 -3.14898e-15 0)
(1 2.5155e-15 0)
(1 2.76902e-15 0)
(1 7.58131e-16 0)
(1 -1.04312e-15 0)
(1 7.13501e-15 0)
(1 3.72821e-15 0)
(1 -3.15963e-15 0)
(1 -3.59368e-15 0)
(1 -2.70972e-16 0)
(1 5.68437e-16 0)
(1 9.49694e-16 0)
(1 3.59098e-15 0)
(1 -9.73347e-16 0)
(1 -6.6598e-15 0)
(1 8.10242e-16 0)
(1 3.47387e-15 0)
(1 5.71974e-15 0)
(1 4.10526e-15 0)
(1 4.45281e-15 0)
(1 1.7886e-15 0)
(1 -3.48648e-15 0)
(1 -8.55245e-15 0)
(1 -4.90621e-15 0)
(1 -4.29829e-15 0)
(1 -5.7789e-16 0)
(1 -9.05065e-16 0)
(1 1.02393e-15 0)
(1 -1.21448e-15 0)
(1 -1.72216e-15 0)
(1 -3.77388e-15 0)
(1 -8.26777e-16 0)
(1 4.50929e-15 0)
(1 -1.60251e-15 0)
(1 8.8657e-15 0)
(1 -4.9669e-16 0)
(1 -3.42493e-15 0)
(1 5.14303e-15 0)
(1 -2.70112e-15 0)
(1 -2.47749e-15 0)
(1 -9.8835e-16 0)
(1 2.4228e-15 0)
(1 4.25481e-15 0)
(1 2.19117e-15 0)
(1 7.7452e-16 0)
(1 -1.12796e-15 0)
(1 3.10319e-16 0)
(1 -3.56483e-15 0)
(1 -9.64625e-16 0)
(1 -2.9724e-16 0)
(1 -5.15433e-15 0)
(1 -6.49603e-15 0)
(1 -3.7963e-15 0)
(1 -6.97511e-15 0)
(1 -4.29666e-15 0)
(1 1.5222e-16 0)
(1 3.31629e-15 0)
(1 -1.82906e-15 0)
(1 -6.58752e-15 0)
(1 3.6764e-16 0)
(1 8.12342e-17 0)
(1 1.44702e-15 0)
(1 1.65985e-15 0)
(1 1.34042e-15 0)
(1 -4.58689e-15 0)
(1 -5.14152e-15 0)
(1 6.22396e-15 0)
(1 -3.96538e-17 0)
(1 8.21733e-15 0)
(1 8.66514e-17 0)
(1 1.10629e-14 0)
(1 6.5988e-15 0)
(1 4.3638e-15 0)
(1 -1.07715e-14 0)
(1 -8.12582e-15 0)
(1 -1.49891e-14 0)
(1 -8.02173e-15 0)
(1 -5.22875e-15 0)
(1 5.69322e-15 0)
(1 1.77396e-14 0)
(1 1.29258e-14 0)
(1 6.57955e-15 0)
(1 1.0807e-14 0)
(1 7.76798e-15 0)
(1 5.60824e-15 0)
(1 2.51884e-15 0)
(1 4.28001e-15 0)
(1 3.71013e-15 0)
(1 4.5486e-15 0)
(1 3.75308e-15 0)
(1 -6.25928e-15 0)
(1 -1.28098e-14 0)
(1 -4.65581e-15 0)
(1 -7.58709e-15 0)
(1 -2.98265e-15 0)
(1 1.10385e-15 0)
(1 -4.30772e-15 0)
(1 -5.12616e-15 0)
(1 -4.92464e-15 0)
(1 -1.29439e-15 0)
(1 -3.25197e-15 0)
(1 -1.60674e-15 0)
(1 3.98032e-15 0)
(1 4.2788e-15 0)
(1 4.82743e-15 0)
(1 3.60258e-15 0)
(1 -2.36036e-15 0)
(1 -1.4845e-15 0)
(1 -3.91791e-15 0)
(1 2.31109e-15 0)
(1 5.58338e-15 0)
(1 8.90543e-15 0)
(1 4.64858e-15 0)
(1 -4.94921e-16 0)
(1 -1.31645e-15 0)
(1 -2.79154e-15 0)
(1 -1.00955e-15 0)
(1 -2.14749e-15 0)
(1 5.51355e-15 0)
(1 3.97775e-15 0)
(1 -1.24397e-15 0)
(1 -2.77724e-15 0)
(1 -1.59022e-15 0)
(1 -4.67792e-15 0)
(1 -1.1991e-15 0)
(1 5.34617e-16 0)
(1 -1.12111e-15 0)
(1 2.97959e-15 0)
(1 4.4669e-15 0)
(1 -1.54351e-15 0)
(1 1.90491e-15 0)
(1 7.66554e-16 0)
(1 6.63383e-15 0)
(1 3.2656e-15 0)
(1 1.2611e-14 0)
(1 -1.39003e-15 0)
(1 -8.83863e-16 0)
(1 -2.91546e-15 0)
(1 2.19296e-15 0)
(1 3.00194e-15 0)
(1 5.62188e-16 0)
(1 4.13413e-15 0)
(1 2.80279e-15 0)
(1 -3.88463e-15 0)
(1 -5.86474e-15 0)
(1 -7.88828e-15 0)
(1 -2.31389e-16 0)
(1 -2.67872e-15 0)
(1 -1.14394e-15 0)
(1 6.20666e-16 0)
(1 -4.03891e-15 0)
(1 -2.42066e-15 0)
(1 -3.96183e-15 0)
(1 -3.6372e-15 0)
(1 -4.74179e-15 0)
(1 7.47483e-16 0)
(1 -2.587e-15 0)
(1 -3.74916e-15 0)
(1 -4.882e-15 0)
(1 -4.63129e-16 0)
(1 -1.28595e-15 0)
(1 5.73824e-15 0)
(1 -5.69053e-15 0)
(1 -1.14044e-15 0)
(1 1.48434e-15 0)
(1 8.34903e-15 0)
(1 5.03942e-15 0)
(1 -7.07295e-15 0)
(1 3.25943e-15 0)
(1 1.74535e-15 0)
(1 6.69729e-15 0)
(1 6.168e-15 0)
(1 1.88227e-15 0)
(1 6.92578e-16 0)
(1 -7.13778e-16 0)
(1 -5.95252e-15 0)
(1 -3.07487e-15 0)
(1 -7.55461e-16 0)
(1 8.81257e-15 0)
(1 6.31995e-15 0)
(1 5.01683e-15 0)
(1 2.83205e-15 0)
(1 7.66999e-15 0)
(1 1.01749e-14 0)
(1 9.02422e-15 0)
(1 1.04233e-14 0)
(1 -4.91271e-15 0)
(1 -1.49156e-15 0)
(1 -3.36522e-15 0)
(1 3.26273e-16 0)
(1 9.35374e-16 0)
(1 1.93565e-15 0)
(1 6.84309e-17 0)
(1 1.13842e-15 0)
(1 -6.3846e-15 0)
(1 -2.31668e-15 0)
(1 -8.76403e-17 0)
(1 -1.1874e-15 0)
(1 3.52779e-15 0)
(1 8.03058e-16 0)
(1 1.02772e-15 0)
(1 -7.37246e-15 0)
(1 -7.02051e-15 0)
(1 -1.25795e-15 0)
(1 6.08633e-15 0)
(1 9.57259e-16 0)
(1 8.45291e-16 0)
(1 7.2204e-15 0)
(1 6.20519e-16 0)
(1 -5.93674e-16 0)
(1 6.46611e-15 0)
(1 5.47803e-15 0)
(1 -9.10238e-16 0)
(1 -3.32976e-15 0)
(1 9.14414e-15 0)
(1 4.61217e-15 0)
(1 6.87904e-15 0)
(1 2.2389e-16 0)
(1 4.79452e-16 0)
(1 -3.36746e-15 0)
(1 -4.57932e-16 0)
(1 2.88045e-15 0)
(1 7.11543e-15 0)
(1 7.71456e-15 0)
(1 1.16278e-14 0)
(1 1.10263e-14 0)
(1 3.39397e-15 0)
(1 -4.91788e-15 0)
(1 2.03346e-16 0)
(1 -2.04199e-15 0)
(1 -4.26601e-15 0)
(1 -6.43444e-15 0)
(1 -5.84477e-15 0)
(1 7.02929e-15 0)
(1 5.67094e-15 0)
(1 8.51727e-15 0)
(1 2.23093e-15 0)
(1 3.3132e-15 0)
(1 5.6772e-15 0)
(1 -3.52992e-15 0)
(1 -2.5558e-15 0)
(1 9.12214e-16 0)
(1 -1.79534e-15 0)
(1 -4.43165e-15 0)
(1 -6.14807e-15 0)
(1 -2.17822e-15 0)
(1 -6.78092e-15 0)
(1 -2.93092e-15 0)
(1 -2.76731e-15 0)
(1 7.84932e-16 0)
(1 5.40512e-17 0)
(1 -2.56206e-16 0)
(1 1.95815e-15 0)
(1 2.5358e-15 0)
(1 7.62499e-15 0)
(1 6.99096e-15 0)
(1 -3.80635e-15 0)
(1 -2.80498e-15 0)
(1 3.085e-15 0)
(1 3.12133e-15 0)
(1 -2.84855e-15 0)
(1 -3.91732e-15 0)
(1 -1.3345e-14 0)
(1 -6.08955e-15 0)
(1 2.44962e-15 0)
(1 1.17942e-14 0)
(1 7.38168e-15 0)
(1 -7.89645e-15 0)
(1 2.28724e-15 0)
(1 5.00327e-16 0)
(1 9.85464e-15 0)
(1 5.06271e-15 0)
(1 8.49856e-15 0)
(1 -2.27465e-17 0)
(1 4.23174e-15 0)
(1 1.50041e-14 0)
(1 -6.57222e-16 0)
(1 -3.601e-15 0)
(1 3.30399e-15 0)
(1 -4.99499e-15 0)
(1 -5.55727e-15 0)
(1 -2.49171e-15 0)
(1 -1.49778e-15 0)
(1 6.07715e-15 0)
(1 8.19407e-15 0)
(1 1.17773e-14 0)
(1 1.04709e-14 0)
(1 3.56264e-15 0)
(1 -3.6068e-15 0)
(1 -6.43424e-15 0)
(1 1.18241e-15 0)
(1 4.3092e-15 0)
(1 1.08358e-15 0)
(1 1.34503e-15 0)
(1 -6.61995e-16 0)
(1 -1.68494e-15 0)
(1 5.13071e-17 0)
(1 -8.67086e-16 0)
(1 5.73088e-15 0)
(1 2.36195e-15 0)
(1 -1.45255e-15 0)
(1 -9.043e-15 0)
(1 -1.29877e-14 0)
(1 2.62516e-15 0)
(1 1.03971e-14 0)
(1 5.25047e-15 0)
(1 6.63277e-15 0)
(1 3.62267e-15 0)
(1 -1.74063e-15 0)
(1 -1.19648e-15 0)
(1 3.39837e-18 0)
(1 2.65257e-15 0)
(1 5.80959e-16 0)
(1 6.54858e-16 0)
(1 1.57795e-16 0)
(1 6.56496e-15 0)
(1 4.89078e-15 0)
(1 3.86669e-15 0)
(1 -1.60125e-15 0)
(1 1.69866e-16 0)
(1 -8.77639e-16 0)
(1 3.0207e-16 0)
(1 -9.6974e-17 0)
(1 4.90274e-15 0)
(1 8.61863e-16 0)
(1 1.35001e-16 0)
(1 1.9246e-15 0)
(1 -1.63665e-15 0)
(1 -2.37854e-15 0)
(1 2.27867e-15 0)
(1 2.6976e-15 0)
(1 -4.63637e-16 0)
(1 4.0379e-15 0)
(1 7.54715e-15 0)
(1 6.20788e-15 0)
(1 9.69966e-15 0)
(1 4.1359e-15 0)
(1 4.07473e-15 0)
(1 4.38864e-15 0)
(1 1.43622e-15 0)
(1 5.56175e-16 0)
(1 5.81398e-16 0)
(1 2.0456e-15 0)
(1 2.74309e-15 0)
(1 3.13112e-15 0)
(1 1.24914e-15 0)
(1 -2.77734e-15 0)
(1 2.76804e-15 0)
(1 1.01667e-15 0)
(1 3.33779e-15 0)
(1 3.0657e-15 0)
(1 5.20594e-17 0)
(1 2.17081e-15 0)
(1 3.76684e-15 0)
(1 6.25136e-15 0)
(1 7.62631e-15 0)
(1 -7.35303e-15 0)
(1 5.55608e-15 0)
(1 -3.89286e-15 0)
(1 8.16275e-15 0)
(1 -1.43408e-15 0)
(1 -6.09972e-15 0)
(1 -3.8049e-15 0)
(1 -6.88968e-15 0)
(1 -1.57902e-15 0)
(1 -1.0014e-15 0)
(1 -2.65305e-15 0)
(1 -4.10373e-15 0)
(1 4.16322e-15 0)
(1 5.44465e-15 0)
(1 1.252e-14 0)
(1 6.40116e-15 0)
(1 5.40963e-15 0)
(1 4.45433e-15 0)
(1 7.40588e-15 0)
(1 1.87986e-15 0)
(1 -6.74891e-15 0)
(1 -6.70287e-15 0)
(1 -5.52226e-15 0)
(1 2.12685e-15 0)
(1 1.95871e-15 0)
(1 9.25037e-15 0)
(1 -2.23278e-16 0)
(1 7.34897e-15 0)
(1 -5.88594e-15 0)
(1 -2.29763e-15 0)
(1 6.4533e-15 0)
(1 3.52302e-15 0)
(1 1.71865e-15 0)
(1 -7.26606e-16 0)
(1 -5.32154e-16 0)
(1 -6.02509e-16 0)
(1 4.45872e-15 0)
(1 1.97256e-15 0)
(1 4.22317e-15 0)
(1 -6.41321e-15 0)
(1 -4.76728e-15 0)
(1 -1.10254e-16 0)
(1 2.86022e-15 0)
(1 3.10035e-15 0)
(1 5.5093e-15 0)
(1 4.57764e-15 0)
(1 -8.36559e-16 0)
(1 4.59952e-15 0)
(1 -5.61536e-15 0)
(1 5.15784e-16 0)
(1 -1.94064e-15 0)
(1 1.30167e-15 0)
(1 6.64134e-15 0)
(1 1.02026e-14 0)
(1 5.42091e-15 0)
(1 3.40873e-15 0)
(1 2.643e-15 0)
(1 -1.11691e-15 0)
(1 -2.41359e-15 0)
(1 2.34191e-16 0)
(1 7.20077e-15 0)
(1 4.90212e-15 0)
(1 5.31078e-15 0)
(1 -6.80927e-16 0)
(1 4.0792e-15 0)
(1 4.43384e-15 0)
(1 5.06732e-15 0)
(1 2.0844e-16 0)
(1 4.76128e-16 0)
(1 -3.34653e-15 0)
(1 3.13925e-15 0)
(1 9.17044e-15 0)
(1 4.64659e-15 0)
(1 5.19316e-15 0)
(1 3.955e-15 0)
(1 7.10106e-15 0)
(1 8.05939e-15 0)
(1 9.94424e-15 0)
(1 5.11238e-15 0)
(1 2.38556e-15 0)
(1 -3.13143e-15 0)
(1 -5.29375e-15 0)
(1 -1.54515e-15 0)
(1 5.49366e-15 0)
(1 3.62843e-15 0)
(1 -6.01396e-17 0)
(1 -3.34979e-15 0)
(1 3.06107e-15 0)
(1 2.02863e-15 0)
(1 -4.15612e-15 0)
(1 1.07015e-15 0)
(1 -1.34577e-15 0)
(1 1.49274e-17 0)
(1 8.07121e-16 0)
(1 3.35808e-15 0)
(1 1.37737e-15 0)
(1 -2.64621e-15 0)
(1 3.36193e-15 0)
(1 6.7528e-15 0)
(1 1.23561e-14 0)
(1 -4.49994e-15 0)
(1 3.24728e-15 0)
(1 1.73701e-15 0)
(1 -1.06427e-14 0)
(1 -5.29083e-15 0)
(1 -5.78463e-15 0)
(1 2.81785e-16 0)
(1 -7.36497e-15 0)
(1 -4.89137e-15 0)
(1 -1.09308e-15 0)
(1 2.56767e-15 0)
(1 1.02647e-14 0)
(1 1.94097e-15 0)
(1 1.3805e-14 0)
(1 2.66178e-15 0)
(1 1.14534e-14 0)
(1 4.74091e-15 0)
(1 2.08708e-14 0)
(1 5.44475e-15 0)
(1 -3.13293e-15 0)
(1 -9.0234e-15 0)
(1 -5.98697e-15 0)
(1 -3.99347e-15 0)
(1 3.49164e-15 0)
(1 -2.80071e-15 0)
(1 5.91639e-15 0)
(1 2.1929e-16 0)
(1 -9.08772e-15 0)
(1 -1.13221e-14 0)
(1 -2.53032e-15 0)
(1 -1.17748e-14 0)
(1 2.02545e-15 0)
(1 4.74556e-15 0)
(1 1.21126e-14 0)
(1 3.49628e-15 0)
(1 5.98998e-15 0)
(1 3.70386e-15 0)
(1 1.77435e-15 0)
(1 1.69618e-15 0)
(1 -4.45779e-15 0)
(1 -3.93468e-16 0)
(1 1.32544e-14 0)
(1 9.6541e-15 0)
(1 1.19388e-14 0)
(1 1.21057e-14 0)
(1 1.09897e-14 0)
(1 8.36224e-15 0)
(1 -4.39194e-15 0)
(1 -1.42163e-14 0)
(1 -1.17889e-14 0)
(1 -2.13531e-15 0)
(1 3.16164e-15 0)
(1 5.50864e-15 0)
(1 4.27917e-15 0)
(1 2.20111e-15 0)
(1 1.06935e-16 0)
(1 2.58177e-15 0)
(1 6.16987e-15 0)
(1 5.81915e-15 0)
(1 7.86749e-15 0)
(1 5.7511e-15 0)
(1 4.343e-15 0)
(1 -4.90839e-15 0)
(1 -4.44564e-15 0)
(1 -1.44109e-15 0)
(1 1.27584e-14 0)
(1 1.35468e-14 0)
(1 1.27997e-14 0)
(1 1.16391e-14 0)
(1 1.43943e-14 0)
(1 2.54485e-15 0)
(1 9.08958e-15 0)
(1 5.90347e-15 0)
(1 -5.49493e-16 0)
(1 -6.39007e-15 0)
(1 -1.9682e-15 0)
(1 1.42775e-15 0)
(1 2.38416e-15 0)
(1 1.74721e-15 0)
(1 1.19782e-14 0)
(1 4.02456e-15 0)
(1 9.91646e-15 0)
(1 1.67608e-16 0)
(1 4.69723e-15 0)
(1 -3.6019e-15 0)
(1 -6.56878e-15 0)
(1 -8.54929e-17 0)
(1 1.93592e-16 0)
(1 1.34672e-15 0)
(1 8.81096e-16 0)
(1 -1.54826e-15 0)
(1 -4.08238e-15 0)
(1 5.17654e-15 0)
(1 3.36657e-15 0)
(1 1.28359e-14 0)
(1 6.6254e-15 0)
(1 8.16801e-15 0)
(1 1.25463e-14 0)
(1 1.86321e-14 0)
(1 1.85168e-14 0)
(1 2.24791e-15 0)
(1 5.77098e-16 0)
(1 3.6181e-15 0)
(1 -2.95025e-15 0)
(1 -5.31234e-15 0)
(1 -5.43989e-15 0)
(1 8.25935e-16 0)
(1 7.91087e-15 0)
(1 3.84628e-16 0)
(1 -1.75435e-15 0)
(1 4.10068e-15 0)
(1 1.29071e-14 0)
(1 2.07053e-15 0)
(1 -2.93111e-15 0)
(1 2.05857e-15 0)
(1 -4.66181e-15 0)
(1 4.5249e-15 0)
(1 4.6205e-15 0)
(1 -3.54938e-15 0)
(1 -4.53759e-15 0)
(1 -6.56612e-15 0)
(1 -4.63045e-15 0)
(1 1.02167e-15 0)
(1 -2.67915e-17 0)
(1 1.00802e-14 0)
(1 1.04285e-14 0)
(1 3.31323e-15 0)
(1 -1.19985e-14 0)
(1 -2.0743e-18 0)
(1 -4.64164e-15 0)
(1 -3.79465e-15 0)
(1 4.33346e-16 0)
(1 -8.28073e-16 0)
(1 9.12552e-16 0)
(1 -3.93131e-15 0)
(1 4.23927e-16 0)
(1 -3.80469e-15 0)
(1 5.93837e-16 0)
(1 -2.32947e-15 0)
(1 3.02492e-15 0)
(1 -1.26098e-15 0)
(1 8.61116e-15 0)
(1 6.92143e-15 0)
(1 1.07417e-14 0)
(1 2.30262e-15 0)
(1 4.68427e-15 0)
(1 2.50072e-15 0)
(1 -4.70129e-15 0)
(1 2.95698e-15 0)
(1 -9.86341e-17 0)
(1 1.07996e-14 0)
(1 2.98753e-15 0)
(1 1.54199e-15 0)
(1 5.0991e-16 0)
(1 3.63768e-15 0)
(1 6.30557e-15 0)
(1 2.85309e-15 0)
(1 1.74169e-15 0)
(1 6.90759e-15 0)
(1 8.12843e-15 0)
(1 4.72811e-15 0)
(1 6.7349e-15 0)
(1 7.71436e-15 0)
(1 1.21732e-14 0)
(1 4.2986e-15 0)
(1 6.86013e-16 0)
(1 5.19143e-15 0)
(1 8.0579e-15 0)
(1 1.07954e-14 0)
(1 7.09135e-15 0)
(1 7.63339e-15 0)
(1 7.2073e-15 0)
(1 9.72551e-17 0)
(1 1.59032e-15 0)
(1 -3.87655e-15 0)
(1 3.00575e-15 0)
(1 6.65253e-15 0)
(1 7.23912e-15 0)
(1 8.27357e-15 0)
(1 1.08368e-14 0)
(1 6.16272e-15 0)
(1 3.04944e-15 0)
(1 -2.99836e-15 0)
(1 -8.86099e-16 0)
(1 -3.33036e-15 0)
(1 -3.95314e-15 0)
(1 4.90253e-15 0)
(1 -2.08064e-15 0)
(1 -2.63487e-16 0)
(1 3.69081e-15 0)
(1 1.90732e-15 0)
(1 1.29171e-16 0)
(1 7.12678e-15 0)
(1 3.72263e-15 0)
(1 1.16309e-14 0)
(1 4.98847e-15 0)
(1 9.47635e-15 0)
(1 1.3295e-14 0)
(1 2.52785e-14 0)
(1 2.05172e-14 0)
(1 8.33207e-16 0)
(1 -3.16684e-15 0)
(1 -5.00191e-15 0)
(1 7.40217e-15 0)
(1 -2.18434e-15 0)
(1 -4.83936e-16 0)
(1 2.08257e-15 0)
(1 3.09297e-15 0)
(1 5.07585e-16 0)
(1 -1.55399e-14 0)
(1 -7.28071e-15 0)
(1 8.93809e-16 0)
(1 -1.55107e-15 0)
(1 9.35129e-16 0)
(1 4.81884e-15 0)
(1 5.20585e-15 0)
(1 8.67143e-15 0)
(1 -5.51773e-15 0)
(1 2.7544e-15 0)
(1 -7.41826e-15 0)
(1 1.19822e-15 0)
(1 -1.20608e-15 0)
(1 2.06377e-16 0)
(1 -6.18898e-15 0)
(1 -2.59466e-15 0)
(1 9.12248e-15 0)
(1 1.05525e-14 0)
(1 2.66683e-15 0)
(1 4.24892e-15 0)
(1 -7.55673e-15 0)
(1 3.92077e-15 0)
(1 -4.17763e-15 0)
(1 -4.48022e-15 0)
(1 -1.09338e-15 0)
(1 2.88419e-15 0)
(1 5.54211e-16 0)
(1 1.65994e-15 0)
(1 3.59704e-15 0)
(1 1.73182e-15 0)
(1 5.42295e-15 0)
(1 8.52575e-15 0)
(1 -6.67443e-15 0)
(1 6.24915e-15 0)
(1 -2.39807e-15 0)
(1 -1.01494e-15 0)
(1 3.72876e-15 0)
(1 5.79483e-15 0)
(1 -9.04472e-16 0)
(1 4.47885e-15 0)
(1 7.95901e-16 0)
(1 5.34927e-15 0)
(1 2.21403e-15 0)
(1 8.79988e-15 0)
(1 8.03142e-15 0)
(1 8.58497e-15 0)
(1 4.63319e-15 0)
(1 7.41692e-15 0)
(1 -3.4469e-15 0)
(1 9.71271e-15 0)
(1 2.60099e-15 0)
(1 9.78303e-15 0)
(1 -1.5151e-17 0)
(1 8.90559e-15 0)
(1 1.89584e-15 0)
(1 7.86868e-15 0)
(1 1.61597e-15 0)
(1 7.00229e-15 0)
(1 1.34284e-15 0)
(1 7.40894e-15 0)
(1 3.15392e-15 0)
(1 1.41822e-14 0)
(1 2.71317e-15 0)
(1 2.93122e-15 0)
(1 1.49122e-15 0)
(1 -3.38459e-16 0)
(1 2.46156e-15 0)
(1 8.14823e-15 0)
(1 1.00898e-14 0)
(1 9.80609e-15 0)
(1 5.15236e-16 0)
(1 7.28633e-15 0)
(1 -1.02189e-15 0)
(1 5.1036e-15 0)
(1 -2.60203e-15 0)
(1 2.29334e-15 0)
(1 3.80589e-15 0)
(1 -3.10491e-15 0)
(1 3.9834e-15 0)
(1 3.00658e-15 0)
(1 8.70308e-17 0)
(1 1.92744e-15 0)
(1 1.62309e-15 0)
(1 2.38407e-15 0)
(1 1.21456e-16 0)
(1 6.01326e-15 0)
(1 4.55397e-15 0)
(1 6.58535e-15 0)
(1 7.71417e-15 0)
(1 1.44664e-14 0)
(1 1.54053e-14 0)
(1 3.82119e-15 0)
(1 -7.67278e-15 0)
(1 1.91299e-15 0)
(1 1.11558e-16 0)
(1 1.5847e-15 0)
(1 -1.04022e-15 0)
(1 -5.32436e-15 0)
(1 -2.79909e-15 0)
(1 5.33703e-15 0)
(1 4.34253e-15 0)
(1 4.20169e-15 0)
(1 3.4462e-15 0)
(1 1.14771e-16 0)
(1 -5.26328e-15 0)
(1 -1.07688e-14 0)
(1 8.57812e-15 0)
(1 6.22933e-15 0)
(1 -2.37154e-15 0)
(1 -1.32442e-15 0)
(1 -9.38203e-15 0)
(1 -4.28733e-15 0)
(1 -3.20528e-15 0)
(1 1.02126e-15 0)
(1 5.95723e-15 0)
(1 -2.63205e-15 0)
(1 3.31765e-15 0)
(1 4.55517e-15 0)
(1 3.32321e-15 0)
(1 6.97808e-15 0)
(1 4.15734e-15 0)
(1 3.37719e-15 0)
(1 -1.2671e-15 0)
(1 -3.61537e-15 0)
(1 -8.28423e-16 0)
(1 -5.41914e-15 0)
(1 -9.14876e-15 0)
(1 -2.91331e-15 0)
(1 -3.64204e-15 0)
(1 3.45481e-15 0)
(1 2.80412e-15 0)
(1 8.69341e-15 0)
(1 -5.08268e-15 0)
(1 -2.93618e-15 0)
(1 -8.80609e-15 0)
(1 3.06346e-15 0)
(1 9.60744e-15 0)
(1 1.58162e-14 0)
(1 7.51369e-15 0)
(1 1.84635e-15 0)
(1 1.15389e-15 0)
(1 1.87297e-15 0)
(1 3.98828e-15 0)
(1 6.65297e-15 0)
(1 1.50667e-14 0)
(1 1.17242e-14 0)
(1 4.27749e-15 0)
(1 1.17417e-15 0)
(1 -2.20158e-15 0)
(1 -2.57177e-15 0)
(1 5.72942e-15 0)
(1 1.125e-14 0)
(1 1.06351e-14 0)
(1 4.72502e-15 0)
(1 -5.65905e-15 0)
(1 -2.27092e-15 0)
(1 4.54861e-15 0)
(1 4.08907e-15 0)
(1 4.12639e-15 0)
(1 2.24774e-15 0)
(1 8.75541e-15 0)
(1 8.14576e-15 0)
(1 3.55223e-15 0)
(1 7.10697e-15 0)
(1 2.3121e-15 0)
(1 3.525e-15 0)
(1 5.47268e-16 0)
(1 6.99109e-15 0)
(1 1.07588e-14 0)
(1 6.8205e-15 0)
(1 1.57275e-15 0)
(1 1.23358e-14 0)
(1 5.31847e-15 0)
(1 4.14177e-15 0)
(1 -5.68929e-17 0)
(1 1.7129e-15 0)
(1 5.21805e-16 0)
(1 -5.40382e-15 0)
(1 4.79017e-15 0)
(1 8.57906e-16 0)
(1 1.37071e-15 0)
(1 5.4065e-15 0)
(1 2.36903e-15 0)
(1 2.25027e-15 0)
(1 2.66267e-15 0)
(1 7.8455e-15 0)
(1 1.37549e-14 0)
(1 7.97345e-15 0)
(1 1.11834e-14 0)
(1 4.90332e-15 0)
(1 8.3379e-15 0)
(1 6.57553e-15 0)
(1 -2.23243e-15 0)
(1 -3.15003e-15 0)
(1 -1.24972e-15 0)
(1 5.75807e-15 0)
(1 3.3085e-15 0)
(1 8.12268e-16 0)
(1 -1.17054e-15 0)
(1 -1.19185e-15 0)
(1 5.0633e-15 0)
(1 3.33214e-15 0)
(1 4.67117e-15 0)
(1 1.0491e-14 0)
(1 2.90056e-15 0)
(1 -4.83148e-15 0)
(1 -1.08792e-14 0)
(1 -6.19244e-15 0)
(1 -1.04287e-14 0)
(1 -8.15125e-15 0)
(1 -7.24562e-15 0)
(1 2.75659e-15 0)
(1 -6.74334e-17 0)
(1 1.15904e-15 0)
(1 2.00653e-15 0)
(1 1.17445e-14 0)
(1 -2.68974e-15 0)
(1 2.92066e-15 0)
(1 1.87418e-15 0)
(1 -3.8917e-15 0)
(1 -4.82818e-15 0)
(1 -3.80813e-15 0)
(1 -7.59697e-16 0)
(1 -2.90852e-15 0)
(1 1.04911e-15 0)
(1 -5.07861e-15 0)
(1 4.02126e-16 0)
(1 5.96804e-15 0)
(1 1.34121e-15 0)
(1 4.13527e-15 0)
(1 -7.77657e-16 0)
(1 -1.04305e-14 0)
(1 1.51937e-15 0)
(1 -6.34726e-15 0)
(1 -5.17718e-15 0)
(1 2.86097e-15 0)
(1 1.0242e-14 0)
(1 7.02041e-15 0)
(1 1.05834e-14 0)
(1 2.52627e-15 0)
(1 9.15853e-15 0)
(1 -1.17973e-15 0)
(1 2.2019e-15 0)
(1 6.58138e-15 0)
(1 9.67063e-15 0)
(1 5.33885e-15 0)
(1 3.93273e-15 0)
(1 2.82556e-15 0)
(1 1.15819e-15 0)
(1 -6.25645e-15 0)
(1 2.55813e-15 0)
(1 2.96977e-15 0)
(1 9.24377e-15 0)
(1 1.40007e-14 0)
(1 1.66754e-14 0)
(1 5.93244e-15 0)
(1 -4.26434e-16 0)
(1 -4.02285e-15 0)
(1 5.56803e-16 0)
(1 -3.31483e-15 0)
(1 2.4112e-15 0)
(1 2.1621e-15 0)
(1 5.58621e-15 0)
(1 5.62335e-15 0)
(1 8.85284e-15 0)
(1 7.58885e-15 0)
(1 2.17562e-15 0)
(1 -1.823e-15 0)
(1 8.10741e-15 0)
(1 5.3473e-15 0)
(1 6.3411e-15 0)
(1 4.46713e-15 0)
(1 3.79648e-15 0)
(1 -2.56405e-16 0)
(1 3.15758e-15 0)
(1 3.59545e-15 0)
(1 3.42107e-15 0)
(1 -9.22253e-16 0)
(1 1.70562e-16 0)
(1 -2.4778e-15 0)
(1 5.74527e-15 0)
(1 3.17727e-15 0)
(1 2.25908e-15 0)
(1 -1.34283e-15 0)
(1 -8.26643e-16 0)
(1 2.1504e-15 0)
(1 9.13159e-15 0)
(1 4.50775e-15 0)
(1 8.73128e-15 0)
(1 5.93892e-15 0)
(1 9.15297e-15 0)
(1 -3.96932e-15 0)
(1 1.06331e-14 0)
(1 -8.41715e-15 0)
(1 8.07461e-17 0)
(1 3.92298e-15 0)
(1 4.6612e-15 0)
(1 1.26111e-15 0)
(1 3.7379e-15 0)
(1 -1.93493e-15 0)
(1 -5.75793e-16 0)
(1 1.50764e-15 0)
(1 4.65935e-15 0)
(1 4.89744e-15 0)
(1 1.00985e-14 0)
(1 -7.49718e-15 0)
(1 -1.67159e-14 0)
(1 -8.34792e-15 0)
(1 -5.38928e-16 0)
(1 -2.269e-15 0)
(1 -3.72733e-16 0)
(1 5.98781e-16 0)
(1 -6.38476e-15 0)
(1 -3.97989e-15 0)
(1 -4.75269e-15 0)
(1 1.37655e-14 0)
(1 -5.00304e-15 0)
(1 4.83035e-15 0)
(1 -2.93589e-16 0)
(1 -2.28739e-15 0)
(1 -4.62438e-15 0)
(1 2.06608e-15 0)
(1 2.7944e-15 0)
(1 3.7555e-15 0)
(1 1.33762e-15 0)
(1 3.29331e-16 0)
(1 3.75237e-15 0)
(1 6.11618e-15 0)
(1 -4.94383e-18 0)
(1 8.14114e-16 0)
(1 -4.27791e-15 0)
(1 -1.07671e-14 0)
(1 -3.71201e-15 0)
(1 1.75474e-17 0)
(1 1.17053e-14 0)
(1 1.14863e-15 0)
(1 3.56864e-15 0)
(1 -5.9145e-16 0)
(1 9.87454e-15 0)
(1 3.85286e-15 0)
(1 7.95488e-15 0)
(1 -3.9524e-15 0)
(1 -1.3497e-17 0)
(1 1.12675e-14 0)
(1 -3.2962e-15 0)
(1 1.11264e-15 0)
(1 6.63078e-15 0)
(1 1.02644e-14 0)
(1 1.2893e-14 0)
(1 1.14757e-14 0)
(1 2.41913e-15 0)
(1 2.46484e-15 0)
(1 -2.59341e-15 0)
(1 -9.67349e-16 0)
(1 6.9223e-15 0)
(1 3.83512e-15 0)
(1 1.03071e-14 0)
(1 1.96983e-15 0)
(1 5.11948e-15 0)
(1 1.04722e-15 0)
(1 7.63424e-16 0)
(1 4.06754e-15 0)
(1 8.55712e-15 0)
(1 9.62097e-15 0)
(1 1.10057e-14 0)
(1 1.29252e-14 0)
(1 7.78629e-15 0)
(1 5.87268e-17 0)
(1 8.8331e-15 0)
(1 9.40991e-15 0)
(1 8.53724e-15 0)
(1 3.75422e-15 0)
(1 3.13671e-15 0)
(1 1.58722e-15 0)
(1 4.86628e-15 0)
(1 2.58981e-15 0)
(1 1.80824e-15 0)
(1 1.99766e-15 0)
(1 3.87151e-15 0)
(1 1.82042e-15 0)
(1 4.23642e-15 0)
(1 7.19776e-16 0)
(1 2.12693e-15 0)
(1 1.24998e-15 0)
(1 1.96484e-15 0)
(1 -9.47593e-16 0)
(1 4.59988e-15 0)
(1 8.85155e-15 0)
(1 7.5874e-15 0)
(1 9.93798e-15 0)
(1 1.09872e-14 0)
(1 2.02094e-15 0)
(1 8.11874e-16 0)
(1 7.16381e-15 0)
(1 5.84416e-15 0)
(1 5.80432e-15 0)
(1 -2.90699e-15 0)
(1 -8.66449e-15 0)
(1 -6.94766e-15 0)
(1 6.61374e-16 0)
(1 9.57623e-15 0)
(1 6.7711e-15 0)
(1 4.37167e-15 0)
(1 -8.84401e-15 0)
(1 -9.42257e-15 0)
(1 -1.31168e-14 0)
(1 -1.38274e-14 0)
(1 -1.04518e-14 0)
(1 4.91911e-15 0)
(1 -1.3984e-14 0)
(1 3.77299e-15 0)
(1 -7.38753e-15 0)
(1 4.69426e-15 0)
(1 5.66661e-15 0)
(1 6.70473e-15 0)
(1 1.24842e-14 0)
(1 8.58992e-15 0)
(1 -2.66775e-15 0)
(1 -1.8153e-15 0)
(1 -2.90676e-15 0)
(1 1.90813e-16 0)
(1 -8.34176e-16 0)
(1 4.35189e-15 0)
(1 1.76525e-15 0)
(1 -1.10408e-14 0)
(1 -6.2455e-15 0)
(1 -3.56111e-15 0)
(1 1.0975e-15 0)
(1 3.53087e-15 0)
(1 -6.01848e-16 0)
(1 1.15031e-15 0)
(1 4.83918e-15 0)
(1 1.6799e-15 0)
(1 2.4976e-15 0)
(1 7.33777e-15 0)
(1 4.33661e-15 0)
(1 3.18108e-15 0)
(1 -2.04471e-15 0)
(1 6.91787e-15 0)
(1 3.36287e-15 0)
(1 1.25104e-15 0)
(1 5.19473e-15 0)
(1 -1.00669e-15 0)
(1 1.78627e-15 0)
(1 -1.97066e-15 0)
(1 7.43719e-15 0)
(1 5.46267e-15 0)
(1 1.26259e-15 0)
(1 5.88227e-15 0)
(1 8.48325e-15 0)
(1 7.0708e-15 0)
(1 1.10122e-14 0)
(1 3.52264e-15 0)
(1 3.56955e-15 0)
(1 4.39336e-15 0)
(1 5.25899e-15 0)
(1 6.09597e-15 0)
(1 9.60297e-15 0)
(1 8.29946e-15 0)
(1 6.17376e-15 0)
(1 5.15268e-15 0)
(1 5.1006e-15 0)
(1 1.36832e-14 0)
(1 1.07257e-14 0)
(1 8.237e-15 0)
(1 8.74896e-15 0)
(1 8.27359e-15 0)
(1 1.02441e-14 0)
(1 7.62724e-15 0)
(1 6.05578e-15 0)
(1 6.70938e-15 0)
(1 6.34191e-15 0)
(1 3.70848e-15 0)
(1 5.07503e-15 0)
(1 4.51281e-15 0)
(1 -1.20525e-15 0)
(1 -5.57646e-15 0)
(1 -2.99311e-15 0)
(1 -4.96324e-15 0)
(1 -1.84803e-15 0)
(1 -2.699e-15 0)
(1 4.10122e-16 0)
(1 4.31775e-15 0)
(1 6.37588e-15 0)
(1 6.19288e-15 0)
(1 7.47383e-15 0)
(1 4.88574e-15 0)
(1 1.04057e-14 0)
(1 6.98457e-15 0)
(1 1.12492e-14 0)
(1 1.10434e-14 0)
(1 -1.77469e-15 0)
(1 -3.1106e-15 0)
(1 -5.43709e-16 0)
(1 8.28255e-15 0)
(1 -1.11552e-15 0)
(1 2.6252e-15 0)
(1 1.0024e-14 0)
(1 4.05633e-15 0)
(1 1.47742e-15 0)
(1 2.65156e-15 0)
(1 -6.91904e-15 0)
(1 -6.65776e-15 0)
(1 -1.01241e-14 0)
(1 -3.80714e-15 0)
(1 -2.06625e-16 0)
(1 -7.05074e-17 0)
(1 -4.38019e-15 0)
(1 -1.53022e-14 0)
(1 -9.95075e-15 0)
(1 -2.10764e-15 0)
(1 1.70171e-15 0)
(1 8.84288e-15 0)
(1 7.20878e-16 0)
(1 -4.76175e-17 0)
(1 -9.36491e-15 0)
(1 4.99281e-15 0)
(1 -3.35262e-15 0)
(1 3.99521e-15 0)
(1 1.87825e-16 0)
(1 5.3606e-15 0)
(1 -8.5259e-16 0)
(1 2.64215e-15 0)
(1 4.87682e-15 0)
(1 1.07296e-15 0)
(1 2.03564e-15 0)
(1 9.08457e-16 0)
(1 -4.9115e-16 0)
(1 3.43846e-15 0)
(1 1.8561e-15 0)
(1 4.90778e-15 0)
(1 1.09458e-14 0)
(1 7.01547e-15 0)
(1 1.49512e-15 0)
(1 -1.2429e-14 0)
(1 -5.36624e-15 0)
(1 -1.10613e-14 0)
(1 -4.71084e-15 0)
(1 -1.02638e-15 0)
(1 4.58332e-15 0)
(1 6.45306e-16 0)
(1 8.6256e-15 0)
(1 8.30016e-15 0)
(1 2.28297e-15 0)
(1 8.17473e-16 0)
(1 3.68871e-15 0)
(1 2.28981e-15 0)
(1 7.2431e-15 0)
(1 7.2898e-15 0)
(1 9.6506e-15 0)
(1 3.52062e-15 0)
(1 -4.19679e-15 0)
(1 -3.27924e-15 0)
(1 1.68055e-15 0)
(1 -2.94517e-16 0)
(1 1.17943e-14 0)
(1 -2.1009e-15 0)
(1 9.10795e-15 0)
(1 4.97589e-16 0)
(1 8.95329e-15 0)
(1 6.82105e-15 0)
(1 4.16619e-15 0)
(1 6.30207e-15 0)
(1 8.39912e-15 0)
(1 6.62394e-15 0)
(1 5.82068e-15 0)
(1 3.29443e-15 0)
(1 9.04144e-15 0)
(1 -7.50077e-16 0)
(1 5.77509e-15 0)
(1 7.40934e-15 0)
(1 2.67125e-15 0)
(1 1.67447e-15 0)
(1 2.45511e-15 0)
(1 3.09928e-15 0)
(1 2.95368e-15 0)
(1 9.14816e-16 0)
(1 -2.13966e-15 0)
(1 -4.088e-15 0)
(1 -2.29145e-15 0)
(1 4.72233e-15 0)
(1 9.03258e-15 0)
(1 5.71569e-15 0)
(1 8.64232e-16 0)
(1 -7.72857e-16 0)
(1 5.87309e-15 0)
(1 6.34273e-15 0)