/*--------------------------------*- C++ -*----------------------------------*\
| =========                 |                                                 |
| \\      /  F ield         | OpenFOAM: The Open Source CFD Toolbox           |
|  \\    /   O peration     | Version:  v2012                                 |
|   \\  /    A nd           | Website:  www.openfoam.com                      |
|    \\/     M anipulation  |                                                 |
\*---------------------------------------------------------------------------*/
FoamFile
{
    version     2.0;
    format      ascii;
    class       surfaceScalarField;
    location    "4";
    object      phi;
}
// * * * * * * * * * * * * * * * * * * * * * * * * * * * * * * * * * * * * * //

dimensions      [0 3 -1 0 0 0 0];
oriented        oriented;


internalField   nonuniform List<scalar> 
130560
(
3.58372e-06
-3.58372e-06
7.16725e-06
-3.58353e-06
1.07504e-05
-3.58315e-06
1.4333e-05
-3.58259e-06
1.79148e-05
-3.58183e-06
2.14957e-05
-3.58088e-06
2.50754e-05
-3.57973e-06
2.86538e-05
-3.57838e-06
3.22306e-05
-3.57683e-06
3.58057e-05
-3.57506e-06
3.93788e-05
-3.57308e-06
4.29497e-05
-3.57088e-06
4.65181e-05
-3.56846e-06
5.00839e-05
-3.56579e-06
5.36468e-05
-3.56289e-06
5.72065e-05
-3.55973e-06
6.07628e-05
-3.55631e-06
6.43155e-05
-3.55262e-06
6.78641e-05
-3.54865e-06
7.14085e-05
-3.5444e-06
7.49483e-05
-3.53984e-06
7.84833e-05
-3.53497e-06
8.20131e-05
-3.52977e-06
8.55373e-05
-3.52424e-06
8.90557e-05
-3.51836e-06
9.25678e-05
-3.51212e-06
9.60733e-05
-3.5055e-06
9.95718e-05
-3.49849e-06
0.000103063
-3.49108e-06
0.000106546
-3.48325e-06
0.000110021
-3.47498e-06
0.000113487
-3.46627e-06
0.000116944
-3.45709e-06
0.000120392
-3.44743e-06
0.000123829
-3.43727e-06
0.000127256
-3.42661e-06
0.000130671
-3.41541e-06
0.000134075
-3.40367e-06
0.000137466
-3.39137e-06
0.000140845
-3.3785e-06
0.00014421
-3.36503e-06
0.000147561
-3.35095e-06
0.000150897
-3.33624e-06
0.000154218
-3.32089e-06
0.000157523
-3.30489e-06
0.000160811
-3.28821e-06
0.000164082
-3.27084e-06
0.000167335
-3.25276e-06
0.000170568
-3.23397e-06
0.000173783
-3.21444e-06
0.000176977
-3.19416e-06
0.00018015
-3.17312e-06
0.000183302
-3.15131e-06
0.00018643
-3.1287e-06
0.000189536
-3.1053e-06
0.000192617
-3.08108e-06
0.000195673
-3.05604e-06
0.000198703
-3.03017e-06
0.000201706
-3.00346e-06
0.000204682
-2.97589e-06
0.00020763
-2.94746e-06
0.000210548
-2.91817e-06
0.000213436
-2.88801e-06
0.000216293
-2.85696e-06
0.000219118
-2.82504e-06
0.00022191
-2.79223e-06
0.000224669
-2.75853e-06
0.000227393
-2.72395e-06
0.000230081
-2.68848e-06
0.000232733
-2.65212e-06
0.000235348
-2.61487e-06
0.000237925
-2.57675e-06
0.000240462
-2.53774e-06
0.00024296
-2.49787e-06
0.000245417
-2.45713e-06
0.000247833
-2.41553e-06
0.000250206
-2.37309e-06
0.000252536
-2.32981e-06
0.000254822
-2.2857e-06
0.000257062
-2.24078e-06
0.000259257
-2.19506e-06
0.000261406
-2.14856e-06
0.000263507
-2.1013e-06
0.000265561
-2.05328e-06
0.000267565
-2.00454e-06
0.00026952
-1.95508e-06
0.000271425
-1.90493e-06
0.000273279
-1.85411e-06
0.000275082
-1.80265e-06
0.000276832
-1.75056e-06
0.00027853
-1.69787e-06
0.000280175
-1.64462e-06
0.000281766
-1.59081e-06
0.000283302
-1.53649e-06
0.000284784
-1.48167e-06
0.00028621
-1.42639e-06
0.000287581
-1.37067e-06
0.000288896
-1.31455e-06
0.000290154
-1.25805e-06
0.000291355
-1.20121e-06
0.000292499
-1.14405e-06
0.000293585
-1.08661e-06
0.000294614
-1.02891e-06
0.000295585
-9.7099e-07
0.000296498
-9.1288e-07
0.000297353
-8.5461e-07
0.000298149
-7.96212e-07
0.000298887
-7.37718e-07
0.000299566
-6.79158e-07
0.000300186
-6.20564e-07
0.000300748
-5.61965e-07
0.000301252
-5.03393e-07
0.000301697
-4.44877e-07
0.000302083
-3.86448e-07
0.000302411
-3.28133e-07
0.000302681
-2.69963e-07
0.000302893
-2.11964e-07
0.000303047
-1.54165e-07
0.000303144
-9.65915e-08
0.000303183
-3.92706e-08
0.000303165
1.77726e-08
0.000303091
7.45135e-08
0.00030296
1.30928e-07
0.000302773
1.86993e-07
0.00030253
2.42686e-07
0.000302232
2.97986e-07
0.000301879
3.52872e-07
0.000301472
4.07325e-07
0.000301011
4.61325e-07
0.000300496
5.14854e-07
0.000299928
5.67896e-07
0.000299308
6.20434e-07
0.000298635
6.72452e-07
0.000297911
7.23937e-07
0.000297136
7.74875e-07
0.000296311
8.25253e-07
0.000295436
8.75059e-07
0.000294512
9.24282e-07
0.000293539
9.72912e-07
0.000292518
1.02094e-06
0.00029145
1.06836e-06
0.000290334
1.11516e-06
0.000289173
1.16133e-06
0.000287966
1.20687e-06
0.000286714
1.25177e-06
0.000285418
1.29604e-06
0.000284079
1.33965e-06
0.000282696
1.38262e-06
0.000281271
1.42493e-06
0.000279805
1.46659e-06
0.000278297
1.50759e-06
0.000276749
1.54794e-06
0.000275161
1.58763e-06
0.000273535
1.62666e-06
0.00027187
1.66503e-06
0.000270167
1.70274e-06
0.000268427
1.7398e-06
0.000266651
1.77621e-06
0.000264839
1.81196e-06
0.000262992
1.84707e-06
0.00026111
1.88153e-06
0.000259195
1.91534e-06
0.000257247
1.94852e-06
0.000255266
1.98106e-06
0.000253253
2.01297e-06
0.000251208
2.04425e-06
0.000249133
2.07491e-06
0.000247028
2.10495e-06
0.000244894
2.13437e-06
0.000242731
2.16319e-06
0.000240539
2.1914e-06
0.00023832
2.21902e-06
0.000236074
2.24604e-06
0.000233802
2.27248e-06
0.000231504
2.29833e-06
0.00022918
2.32361e-06
0.000226832
2.34832e-06
0.000224459
2.37247e-06
0.000222063
2.39606e-06
0.000219644
2.4191e-06
0.000217202
2.4416e-06
0.000214739
2.46356e-06
0.000212254
2.48499e-06
0.000209748
2.50589e-06
0.000207222
2.52628e-06
0.000204676
2.54616e-06
0.00020211
2.56553e-06
0.000199526
2.5844e-06
0.000196923
2.60279e-06
0.000194302
2.62069e-06
0.000191664
2.63811e-06
0.000189009
2.65507e-06
0.000186337
2.67156e-06
0.00018365
2.6876e-06
0.000180947
2.70318e-06
0.000178228
2.71833e-06
0.000175495
2.73304e-06
0.000172748
2.74733e-06
0.000169987
2.76119e-06
0.000167212
2.77465e-06
0.000164424
2.78769e-06
0.000161624
2.80034e-06
0.000158811
2.8126e-06
0.000155987
2.82447e-06
0.000153151
2.83597e-06
0.000150304
2.8471e-06
0.000147446
2.85786e-06
0.000144578
2.86827e-06
0.000141699
2.87833e-06
0.000138811
2.88805e-06
0.000135914
2.89744e-06
0.000133007
2.9065e-06
0.000130092
2.91523e-06
0.000127169
2.92366e-06
0.000124237
2.93178e-06
0.000121297
2.9396e-06
0.00011835
2.94713e-06
0.000115396
2.95437e-06
0.000112434
2.96133e-06
0.000109466
2.96802e-06
0.000106492
2.97444e-06
0.000103511
2.9806e-06
0.000100525
2.98651e-06
9.75326e-05
2.99218e-06
9.45351e-05
2.9976e-06
9.15323e-05
3.00278e-06
8.85245e-05
3.00774e-06
8.55121e-05
3.01247e-06
8.24951e-05
3.01699e-06
7.94738e-05
3.02129e-06
7.64484e-05
3.02539e-06
7.34191e-05
3.02928e-06
7.03861e-05
3.03297e-06
6.73497e-05
3.03648e-06
6.43099e-05
3.03979e-06
6.12669e-05
3.04293e-06
5.82211e-05
3.04588e-06
5.51724e-05
3.04866e-06
5.21211e-05
3.05127e-06
4.90674e-05
3.05371e-06
4.60114e-05
3.05599e-06
4.29533e-05
3.05811e-06
3.98932e-05
3.06008e-06
3.68314e-05
3.06189e-06
3.37678e-05
3.06355e-06
3.07027e-05
3.06506e-06
2.76363e-05
3.06643e-06
2.45687e-05
3.06765e-06
2.14999e-05
3.06873e-06
1.84303e-05
3.06968e-06
1.53598e-05
3.07048e-06
1.22886e-05
3.07115e-06
9.21693e-06
3.07169e-06
6.14484e-06
3.07209e-06
3.07249e-06
3.07235e-06
3.07249e-06
3.5839e-06
-7.16762e-06
7.16762e-06
-7.16724e-06
1.0751e-05
-7.16649e-06
1.43337e-05
-7.16536e-06
1.79158e-05
-7.16385e-06
2.14968e-05
-7.16195e-06
2.50768e-05
-7.15966e-06
2.86553e-05
-7.15697e-06
3.22324e-05
-7.15386e-06
3.58077e-05
-7.15034e-06
3.9381e-05
-7.14639e-06
4.29521e-05
-7.142e-06
4.65208e-05
-7.13715e-06
5.00868e-05
-7.13183e-06
5.36499e-05
-7.12602e-06
5.72099e-05
-7.11971e-06
6.07665e-05
-7.11289e-06
6.43194e-05
-7.10552e-06
6.78683e-05
-7.0976e-06
7.1413e-05
-7.08909e-06
7.49532e-05
-7.07999e-06
7.84885e-05
-7.07026e-06
8.20186e-05
-7.05988e-06
8.55432e-05
-7.04883e-06
8.90619e-05
-7.03708e-06
9.25744e-05
-7.02461e-06
9.60803e-05
-7.01139e-06
9.95792e-05
-6.99738e-06
0.000103071
-6.98257e-06
0.000106554
-6.96692e-06
0.00011003
-6.95041e-06
0.000113497
-6.933e-06
0.000116954
-6.91465e-06
0.000120402
-6.89535e-06
0.00012384
-6.87506e-06
0.000127267
-6.85374e-06
0.000130683
-6.83137e-06
0.000134087
-6.80791e-06
0.000137479
-6.78332e-06
0.000140858
-6.75759e-06
0.000144224
-6.73066e-06
0.000147575
-6.70252e-06
0.000150912
-6.67312e-06
0.000154234
-6.64244e-06
0.000157539
-6.61044e-06
0.000160828
-6.5771e-06
0.0001641
-6.54238e-06
0.000167353
-6.50624e-06
0.000170588
-6.46867e-06
0.000173803
-6.42963e-06
0.000176998
-6.38908e-06
0.000180172
-6.34702e-06
0.000183324
-6.3034e-06
0.000186454
-6.25821e-06
0.00018956
-6.21141e-06
0.000192642
-6.16299e-06
0.000195698
-6.11292e-06
0.000198729
-6.06118e-06
0.000201734
-6.00776e-06
0.000204711
-5.95264e-06
0.000207659
-5.89579e-06
0.000210578
-5.83721e-06
0.000213467
-5.77689e-06
0.000216325
-5.71481e-06
0.000219151
-5.65096e-06
0.000221944
-5.58535e-06
0.000224703
-5.51796e-06
0.000227428
-5.44879e-06
0.000230117
-5.37784e-06
0.00023277
-5.30512e-06
0.000235386
-5.23062e-06
0.000237964
-5.15437e-06
0.000240502
-5.07635e-06
0.000243001
-4.9966e-06
0.000245459
-4.91511e-06
0.000247875
-4.83191e-06
0.000250249
-4.74701e-06
0.00025258
-4.66043e-06
0.000254866
-4.57221e-06
0.000257108
-4.48236e-06
0.000259304
-4.39091e-06
0.000261453
-4.2979e-06
0.000263555
-4.20335e-06
0.000265609
-4.10729e-06
0.000267614
-4.00978e-06
0.00026957
-3.91084e-06
0.000271476
-3.81052e-06
0.000273331
-3.70887e-06
0.000275134
-3.60592e-06
0.000276885
-3.50172e-06
0.000278583
-3.39632e-06
0.000280229
-3.28978e-06
0.00028182
-3.18214e-06
0.000283357
-3.07347e-06
0.000284839
-2.96381e-06
0.000286266
-2.85322e-06
0.000287637
-2.74175e-06
0.000288952
-2.62948e-06
0.00029021
-2.51645e-06
0.000291412
-2.40274e-06
0.000292556
-2.28839e-06
0.000293643
-2.17347e-06
0.000294672
-2.05804e-06
0.000295643
-1.94217e-06
0.000296556
-1.82592e-06
0.000297411
-1.70935e-06
0.000298207
-1.59252e-06
0.000298945
-1.4755e-06
0.000299624
-1.35835e-06
0.000300245
-1.24113e-06
0.000300807
-1.1239e-06
0.00030131
-1.00673e-06
0.000301755
-8.8967e-07
0.000302141
-7.72782e-07
0.000302469
-6.56124e-07
0.000302739
-5.39755e-07
0.000302951
-4.2373e-07
0.000303105
-3.08105e-07
0.000303201
-1.92932e-07
0.00030324
-7.82648e-08
0.000303222
3.58463e-08
0.000303147
1.49352e-07
0.000303016
2.62204e-07
0.000302829
3.74356e-07
0.000302586
4.85764e-07
0.000302287
5.96385e-07
0.000301934
7.06177e-07
0.000301526
8.15101e-07
0.000301064
9.23118e-07
0.000300549
1.03019e-06
0.000299981
1.13629e-06
0.00029936
1.24139e-06
0.000298687
1.34544e-06
0.000297962
1.44842e-06
0.000297187
1.55031e-06
0.000296361
1.65108e-06
0.000295485
1.7507e-06
0.00029456
1.84915e-06
0.000293587
1.94642e-06
0.000292565
2.04249e-06
0.000291496
2.13733e-06
0.000290381
2.23093e-06
0.000289219
2.32329e-06
0.000288011
2.41438e-06
0.000286759
2.50419e-06
0.000285462
2.59272e-06
0.000284122
2.67995e-06
0.000282738
2.76589e-06
0.000281313
2.85052e-06
0.000279846
2.93384e-06
0.000278337
3.01584e-06
0.000276789
3.09654e-06
0.0002752
3.17591e-06
0.000273573
3.25397e-06
0.000271907
3.33071e-06
0.000270204
3.40614e-06
0.000268464
3.48026e-06
0.000266687
3.55307e-06
0.000264874
3.62458e-06
0.000263026
3.69478e-06
0.000261144
3.7637e-06
0.000259228
3.83133e-06
0.000257279
3.89768e-06
0.000255297
3.96275e-06
0.000253284
4.02657e-06
0.000251239
4.08912e-06
0.000249163
4.15043e-06
0.000247058
4.21051e-06
0.000244923
4.26935e-06
0.000242759
4.32698e-06
0.000240567
4.3834e-06
0.000238348
4.43862e-06
0.000236101
4.49266e-06
0.000233828
4.54553e-06
0.000231529
4.59723e-06
0.000229205
4.64779e-06
0.000226856
4.6972e-06
0.000224483
4.74549e-06
0.000222086
4.79267e-06
0.000219667
4.83875e-06
0.000217224
4.88374e-06
0.00021476
4.92765e-06
0.000212275
4.9705e-06
0.000209768
5.0123e-06
0.000207242
5.05307e-06
0.000204695
5.09282e-06
0.000202129
5.13155e-06
0.000199544
5.1693e-06
0.000196941
5.20606e-06
0.00019432
5.24185e-06
0.000191681
5.2767e-06
0.000189026
5.3106e-06
0.000186354
5.34357e-06
0.000183665
5.37564e-06
0.000180962
5.40681e-06
0.000178243
5.4371e-06
0.00017551
5.46651e-06
0.000172762
5.49508e-06
0.00017
5.5228e-06
0.000167225
5.5497e-06
0.000164437
5.57579e-06
0.000161636
5.60108e-06
0.000158823
5.62558e-06
0.000155999
5.64932e-06
0.000153162
5.67231e-06
0.000150315
5.69456e-06
0.000147457
5.71608e-06
0.000144588
5.73689e-06
0.000141709
5.757e-06
0.000138821
5.77644e-06
0.000135923
5.7952e-06
0.000133016
5.81331e-06
0.000130101
5.83078e-06
0.000127177
5.84762e-06
0.000124245
5.86386e-06
0.000121305
5.87949e-06
0.000118357
5.89454e-06
0.000115403
5.90901e-06
0.000112441
5.92293e-06
0.000109473
5.9363e-06
0.000106498
5.94914e-06
0.000103517
5.96146e-06
0.000100531
5.97328e-06
9.75381e-05
5.9846e-06
9.45403e-05
5.99543e-06
9.15372e-05
6.0058e-06
8.85293e-05
6.01571e-06
8.55166e-05
6.02517e-06
8.24994e-05
6.03419e-06
7.94779e-05
6.04279e-06
7.64523e-05
6.05097e-06
7.34228e-05
6.05875e-06
7.03897e-05
6.06614e-06
6.7353e-05
6.07314e-06
6.4313e-05
6.07977e-06
6.12699e-05
6.08603e-06
5.82239e-05
6.09194e-06
5.5175e-05
6.09749e-06
5.21236e-05
6.10271e-06
4.90697e-05
6.10759e-06
4.60136e-05
6.11214e-06
4.29553e-05
6.11638e-06
3.98951e-05
6.12031e-06
3.6833e-05
6.12393e-06
3.37693e-05
6.12724e-06
3.07041e-05
6.13027e-06
2.76375e-05
6.133e-06
2.45698e-05
6.13544e-06
2.15009e-05
6.13761e-06
1.84311e-05
6.13949e-06
1.53604e-05
6.14111e-06
1.22892e-05
6.14244e-06
9.21733e-06
6.14351e-06
6.14511e-06
6.14431e-06
3.07262e-06
6.14484e-06
6.14511e-06
3.58428e-06
-1.07519e-05
7.16837e-06
-1.07513e-05
1.07521e-05
-1.07502e-05
1.43353e-05
-1.07485e-05
1.79177e-05
-1.07463e-05
2.14991e-05
-1.07434e-05
2.50795e-05
-1.074e-05
2.86585e-05
-1.0736e-05
3.22359e-05
-1.07313e-05
3.58116e-05
-1.07261e-05
3.93854e-05
-1.07201e-05
4.29569e-05
-1.07136e-05
4.65261e-05
-1.07063e-05
5.00926e-05
-1.06983e-05
5.36563e-05
-1.06897e-05
5.72168e-05
-1.06802e-05
6.07739e-05
-1.067e-05
6.43273e-05
-1.0659e-05
6.78769e-05
-1.06471e-05
7.14222e-05
-1.06344e-05
7.49629e-05
-1.06208e-05
7.84989e-05
-1.06062e-05
8.20297e-05
-1.05907e-05
8.55549e-05
-1.05741e-05
8.90744e-05
-1.05565e-05
9.25876e-05
-1.05379e-05
9.60943e-05
-1.05181e-05
9.9594e-05
-1.04971e-05
0.000103086
-1.04749e-05
0.000106571
-1.04515e-05
0.000110047
-1.04267e-05
0.000113515
-1.04007e-05
0.000116973
-1.03732e-05
0.000120422
-1.03443e-05
0.000123861
-1.03139e-05
0.000127289
-1.02819e-05
0.000130706
-1.02484e-05
0.000134112
-1.02133e-05
0.000137505
-1.01764e-05
0.000140885
-1.01379e-05
0.000144252
-1.00975e-05
0.000147605
-1.00553e-05
0.000150943
-1.00113e-05
0.000154266
-9.96531e-06
0.000157573
-9.91735e-06
0.000160863
-9.86737e-06
0.000164136
-9.81533e-06
0.000167391
-9.76116e-06
0.000170627
-9.70484e-06
0.000173844
-9.64631e-06
0.00017704
-9.58553e-06
0.000180216
-9.52247e-06
0.000183369
-9.45707e-06
0.0001865
-9.38931e-06
0.000189608
-9.31915e-06
0.000192692
-9.24654e-06
0.00019575
-9.17146e-06
0.000198783
-9.09388e-06
0.000201789
-9.01377e-06
0.000204767
-8.9311e-06
0.000207717
-8.84585e-06
0.000210638
-8.758e-06
0.000213529
-8.66753e-06
0.000216388
-8.57442e-06
0.000219216
-8.47866e-06
0.000222011
-8.38024e-06
0.000224772
-8.27915e-06
0.000227499
-8.1754e-06
0.00023019
-8.06898e-06
0.000232845
-7.95989e-06
0.000235462
-7.84814e-06
0.000238042
-7.73374e-06
0.000240582
-7.61671e-06
0.000243083
-7.49706e-06
0.000245542
-7.3748e-06
0.00024796
-7.24998e-06
0.000250336
-7.1226e-06
0.000252668
-6.99272e-06
0.000254956
-6.86035e-06
0.000257199
-6.72554e-06
0.000259397
-6.58833e-06
0.000261548
-6.44876e-06
0.000263651
-6.30689e-06
0.000265707
-6.16277e-06
0.000267713
-6.01645e-06
0.000269671
-5.86799e-06
0.000271578
-5.71746e-06
0.000273434
-5.56492e-06
0.000275238
-5.41043e-06
0.00027699
-5.25407e-06
0.00027869
-5.09592e-06
0.000280336
-4.93604e-06
0.000281929
-4.77452e-06
0.000283467
-4.61143e-06
0.00028495
-4.44687e-06
0.000286377
-4.28091e-06
0.000287749
-4.11365e-06
0.000289065
-3.94516e-06
0.000290324
-3.77555e-06
0.000291526
-3.60489e-06
0.000292671
-3.43329e-06
0.000293758
-3.26083e-06
0.000294788
-3.08762e-06
0.00029576
-2.91373e-06
0.000296673
-2.73928e-06
0.000297528
-2.56434e-06
0.000298324
-2.38903e-06
0.000299062
-2.21342e-06
0.000299742
-2.03761e-06
0.000300362
-1.86171e-06
0.000300924
-1.68579e-06
0.000301427
-1.50995e-06
0.000301872
-1.33429e-06
0.000302258
-1.15888e-06
0.000302586
-9.83826e-07
0.000302855
-8.09203e-07
0.000303067
-6.35097e-07
0.00030322
-4.61591e-07
0.000303316
-2.88767e-07
0.000303354
-1.16702e-07
0.000303336
5.45261e-08
0.00030326
2.24844e-07
0.000303128
3.9418e-07
0.00030294
5.62464e-07
0.000302696
7.2963e-07
0.000302397
8.95612e-07
0.000302043
1.06035e-06
0.000301634
1.22378e-06
0.000301171
1.38585e-06
0.000300655
1.54651e-06
0.000300086
1.7057e-06
0.000299464
1.86338e-06
0.00029879
2.01949e-06
0.000298064
2.174e-06
0.000297288
2.32686e-06
0.000296461
2.47804e-06
0.000295584
2.6275e-06
0.000294658
2.77521e-06
0.000293683
2.92114e-06
0.00029266
3.06526e-06
0.00029159
3.20754e-06
0.000290473
3.34797e-06
0.00028931
3.48651e-06
0.000288101
3.62316e-06
0.000286847
3.75789e-06
0.000285549
3.89069e-06
0.000284208
4.02155e-06
0.000282823
4.15046e-06
0.000281396
4.27741e-06
0.000279928
4.4024e-06
0.000278418
4.52541e-06
0.000276868
4.64645e-06
0.000275279
4.76551e-06
0.00027365
4.8826e-06
0.000271983
4.99771e-06
0.000270278
5.11085e-06
0.000268536
5.22202e-06
0.000266758
5.33123e-06
0.000264944
5.43849e-06
0.000263095
5.54379e-06
0.000261212
5.64716e-06
0.000259295
5.74859e-06
0.000257344
5.8481e-06
0.000255361
5.94571e-06
0.000253346
6.04142e-06
0.0002513
6.13524e-06
0.000249224
6.2272e-06
0.000247117
6.31729e-06
0.000244981
6.40555e-06
0.000242816
6.49198e-06
0.000240622
6.57659e-06
0.000238402
6.65942e-06
0.000236154
6.74046e-06
0.00023388
6.81975e-06
0.000231579
6.89729e-06
0.000229254
6.9731e-06
0.000226904
7.04721e-06
0.00022453
7.11963e-06
0.000222132
7.19038e-06
0.000219712
7.25948e-06
0.000217268
7.32695e-06
0.000214803
7.3928e-06
0.000212317
7.45706e-06
0.000209809
7.51975e-06
0.000207281
7.58088e-06
0.000204734
7.64049e-06
0.000202167
7.69857e-06
0.000199581
7.75517e-06
0.000196977
7.8103e-06
0.000194354
7.86397e-06
0.000191715
7.91622e-06
0.000189058
7.96705e-06
0.000186386
8.0165e-06
0.000183697
8.06458e-06
0.000180992
8.11132e-06
0.000178272
8.15673e-06
0.000175538
8.20084e-06
0.00017279
8.24367e-06
0.000170027
8.28523e-06
0.000167251
8.32556e-06
0.000164462
8.36468e-06
0.000161661
8.40259e-06
0.000158847
8.43934e-06
0.000156022
8.47493e-06
0.000153184
8.50939e-06
0.000150336
8.54274e-06
0.000147477
8.57501e-06
0.000144608
8.60621e-06
0.000141729
8.63636e-06
0.00013884
8.66549e-06
0.000135941
8.69362e-06
0.000133034
8.72077e-06
0.000130118
8.74695e-06
0.000127193
8.7722e-06
0.00012426
8.79653e-06
0.00012132
8.81996e-06
0.000118372
8.84252e-06
0.000115417
8.86422e-06
0.000112454
8.88508e-06
0.000109486
8.90512e-06
0.00010651
8.92436e-06
0.000103529
8.94283e-06
0.000100542
8.96053e-06
9.75489e-05
8.9775e-06
9.45506e-05
8.99374e-06
9.15471e-05
9.00927e-06
8.85387e-05
9.02412e-06
8.55256e-05
9.03829e-06
8.2508e-05
9.05182e-06
7.94861e-05
9.0647e-06
7.64601e-05
9.07697e-06
7.34302e-05
9.08862e-06
7.03967e-05
9.09969e-06
6.73596e-05
9.11018e-06
6.43193e-05
9.12011e-06
6.12758e-05
9.12949e-06
5.82294e-05
9.13834e-06
5.51802e-05
9.14666e-06
5.21285e-05
9.15448e-06
4.90743e-05
9.16179e-06
4.60178e-05
9.16861e-06
4.29592e-05
9.17496e-06
3.98987e-05
9.18084e-06
3.68363e-05
9.18626e-06
3.37723e-05
9.19123e-06
3.07069e-05
9.19576e-06
2.764e-05
9.19986e-06
2.45719e-05
9.20352e-06
2.15028e-05
9.20676e-06
1.84327e-05
9.20959e-06
1.53618e-05
9.212e-06
1.22902e-05
9.214e-06
9.21813e-06
9.2156e-06
6.14564e-06
9.2168e-06
3.07289e-06
9.21759e-06
9.21799e-06
3.58484e-06
-1.43367e-05
7.1695e-06
-1.4336e-05
1.07538e-05
-1.43345e-05
1.43375e-05
-1.43323e-05
1.79205e-05
-1.43293e-05
2.15026e-05
-1.43255e-05
2.50835e-05
-1.43209e-05
2.86631e-05
-1.43156e-05
3.22412e-05
-1.43094e-05
3.58175e-05
-1.43024e-05
3.9392e-05
-1.42945e-05
4.29642e-05
-1.42858e-05
4.65341e-05
-1.42762e-05
5.01013e-05
-1.42656e-05
5.36657e-05
-1.42541e-05
5.7227e-05
-1.42415e-05
6.07849e-05
-1.42279e-05
6.43392e-05
-1.42133e-05
6.78896e-05
-1.41975e-05
7.14358e-05
-1.41806e-05
7.49775e-05
-1.41625e-05
7.85144e-05
-1.41431e-05
8.20462e-05
-1.41225e-05
8.55726e-05
-1.41005e-05
8.90931e-05
-1.40771e-05
9.26075e-05
-1.40522e-05
9.61153e-05
-1.40259e-05
9.96162e-05
-1.3998e-05
0.00010311
-1.39685e-05
0.000106596
-1.39373e-05
0.000110073
-1.39044e-05
0.000113542
-1.38697e-05
0.000117002
-1.38331e-05
0.000120453
-1.37947e-05
0.000123893
-1.37542e-05
0.000127323
-1.37117e-05
0.000130742
-1.36671e-05
0.000134149
-1.36203e-05
0.000137543
-1.35713e-05
0.000140925
-1.35199e-05
0.000144294
-1.34662e-05
0.000147649
-1.341e-05
0.000150989
-1.33514e-05
0.000154314
-1.32901e-05
0.000157623
-1.32263e-05
0.000160915
-1.31597e-05
0.00016419
-1.30904e-05
0.000167447
-1.30182e-05
0.000170686
-1.29432e-05
0.000173905
-1.28652e-05
0.000177103
-1.27843e-05
0.000180281
-1.27002e-05
0.000183437
-1.26131e-05
0.000186571
-1.25228e-05
0.000189681
-1.24293e-05
0.000192767
-1.23326e-05
0.000195828
-1.22325e-05
0.000198863
-1.21291e-05
0.000201872
-1.20223e-05
0.000204853
-1.19122e-05
0.000207805
-1.17985e-05
0.000210729
-1.16814e-05
0.000213622
-1.15608e-05
0.000216484
-1.14367e-05
0.000219315
-1.1309e-05
0.000222112
-1.11778e-05
0.000224876
-1.1043e-05
0.000227605
-1.09047e-05
0.000230299
-1.07628e-05
0.000232957
-1.06173e-05
0.000235577
-1.04683e-05
0.000238159
-1.03158e-05
0.000240702
-1.01597e-05
0.000243205
-1.00001e-05
0.000245667
-9.83708e-06
0.000248088
-9.6706e-06
0.000250466
-9.50072e-06
0.000252801
-9.32748e-06
0.000255091
-9.15093e-06
0.000257337
-8.97111e-06
0.000259537
-8.7881e-06
0.00026169
-8.60193e-06
0.000263795
-8.41269e-06
0.000265853
-8.22044e-06
0.000267862
-8.02526e-06
0.000269821
-7.82722e-06
0.00027173
-7.62641e-06
0.000273588
-7.42291e-06
0.000275395
-7.21682e-06
0.000277149
-7.00823e-06
0.00027885
-6.79723e-06
0.000280498
-6.58394e-06
0.000282092
-6.36845e-06
0.000283631
-6.15088e-06
0.000285116
-5.93133e-06
0.000286545
-5.70992e-06
0.000287918
-5.48676e-06
0.000289235
-5.26197e-06
0.000290495
-5.03568e-06
0.000291698
-4.808e-06
0.000292844
-4.57905e-06
0.000293932
-4.34896e-06
0.000294962
-4.11786e-06
0.000295934
-3.88587e-06
0.000296848
-3.65311e-06
0.000297703
-3.41972e-06
0.0002985
-3.18582e-06
0.000299238
-2.95153e-06
0.000299918
-2.71698e-06
0.000300538
-2.48229e-06
0.0003011
-2.2476e-06
0.000301603
-2.01301e-06
0.000302047
-1.77865e-06
0.000302433
-1.54464e-06
0.00030276
-1.31109e-06
0.000303029
-1.07813e-06
0.00030324
-8.45862e-07
0.000303393
-6.14396e-07
0.000303488
-3.83841e-07
0.000303526
-1.54303e-07
0.000303506
7.41168e-08
0.00030343
3.01319e-07
0.000303297
5.27209e-07
0.000303107
7.51692e-07
0.000302862
9.7468e-07
0.000302562
1.19609e-06
0.000302206
1.41583e-06
0.000301796
1.63383e-06
0.000301332
1.85001e-06
0.000300814
2.0643e-06
0.000300243
2.27662e-06
0.00029962
2.48693e-06
0.000298944
2.69515e-06
0.000298217
2.90122e-06
0.000297439
3.1051e-06
0.00029661
3.30673e-06
0.000295731
3.50606e-06
0.000294804
3.70306e-06
0.000293827
3.89767e-06
0.000292802
4.08987e-06
0.00029173
4.27961e-06
0.000290612
4.46688e-06
0.000289446
4.65163e-06
0.000288236
4.83385e-06
0.00028698
5.01352e-06
0.00028568
5.19061e-06
0.000284337
5.36511e-06
0.00028295
5.537e-06
0.000281521
5.70628e-06
0.000280051
5.87293e-06
0.000278539
6.03695e-06
0.000276987
6.19834e-06
0.000275396
6.35709e-06
0.000273765
6.5132e-06
0.000272096
6.66668e-06
0.000270389
6.81753e-06
0.000268646
6.96575e-06
0.000266866
7.11135e-06
0.00026505
7.25435e-06
0.000263199
7.39474e-06
0.000261313
7.53254e-06
0.000259394
7.66777e-06
0.000257442
7.80044e-06
0.000255457
7.93056e-06
0.00025344
8.05815e-06
0.000251392
8.18323e-06
0.000249314
8.30582e-06
0.000247205
8.42592e-06
0.000245067
8.54357e-06
0.0002429
8.65879e-06
0.000240705
8.77158e-06
0.000238483
8.88199e-06
0.000236233
8.99002e-06
0.000233957
9.09571e-06
0.000231655
9.19907e-06
0.000229328
9.30013e-06
0.000226977
9.39891e-06
0.000224601
9.49544e-06
0.000222201
9.58975e-06
0.000219779
9.68185e-06
0.000217334
9.77177e-06
0.000214867
9.85955e-06
0.000212379
9.9452e-06
0.00020987
1.00287e-05
0.000207341
1.01102e-05
0.000204792
1.01897e-05
0.000202223
1.02671e-05
0.000199636
1.03425e-05
0.00019703
1.0416e-05
0.000194407
1.04875e-05
0.000191766
1.05571e-05
0.000189108
1.06249e-05
0.000186434
1.06908e-05
0.000183743
1.07549e-05
0.000181038
1.08172e-05
0.000178317
1.08777e-05
0.000175581
1.09364e-05
0.000172831
1.09935e-05
0.000170067
1.10489e-05
0.00016729
1.11026e-05
0.0001645
1.11548e-05
0.000161698
1.12053e-05
0.000158883
1.12542e-05
0.000156056
1.13017e-05
0.000153218
1.13476e-05
0.000150369
1.1392e-05
0.000147509
1.1435e-05
0.000144638
1.14766e-05
0.000141758
1.15167e-05
0.000138868
1.15555e-05
0.000135968
1.1593e-05
0.00013306
1.16292e-05
0.000130143
1.16641e-05
0.000127217
1.16977e-05
0.000124284
1.17301e-05
0.000121342
1.17613e-05
0.000118394
1.17914e-05
0.000115437
1.18203e-05
0.000112475
1.1848e-05
0.000109505
1.18747e-05
0.000106529
1.19004e-05
0.000103547
1.1925e-05
0.000100559
1.19485e-05
9.75652e-05
1.19711e-05
9.45661e-05
1.19927e-05
9.1562e-05
1.20134e-05
8.85529e-05
1.20332e-05
8.55391e-05
1.20521e-05
8.25209e-05
1.20701e-05
7.94983e-05
1.20872e-05
7.64717e-05
1.21036e-05
7.34413e-05
1.21191e-05
7.04071e-05
1.21338e-05
6.73695e-05
1.21478e-05
6.43286e-05
1.2161e-05
6.12847e-05
1.21735e-05
5.82377e-05
1.21853e-05
5.5188e-05
1.21963e-05
5.21358e-05
1.22067e-05
4.90811e-05
1.22165e-05
4.60241e-05
1.22256e-05
4.29651e-05
1.2234e-05
3.99041e-05
1.22418e-05
3.68413e-05
1.22491e-05
3.37769e-05
1.22557e-05
3.07109e-05
1.22617e-05
2.76437e-05
1.22671e-05
2.45752e-05
1.2272e-05
2.15056e-05
1.22763e-05
1.84351e-05
1.22801e-05
1.53638e-05
1.22833e-05
1.22918e-05
1.2286e-05
9.21932e-06
1.22881e-05
6.14644e-06
1.22897e-05
3.07328e-06
1.22907e-05
1.22913e-05
3.58559e-06
-1.79223e-05
7.17099e-06
-1.79214e-05
1.0756e-05
-1.79195e-05
1.43405e-05
-1.79168e-05
1.79243e-05
-1.7913e-05
2.15071e-05
-1.79083e-05
2.50889e-05
-1.79027e-05
2.86693e-05
-1.7896e-05
3.22482e-05
-1.78883e-05
3.58254e-05
-1.78796e-05
3.94007e-05
-1.78698e-05
4.29739e-05
-1.7859e-05
4.65447e-05
-1.7847e-05
5.01129e-05
-1.78338e-05
5.36783e-05
-1.78194e-05
5.72406e-05
-1.78038e-05
6.07996e-05
-1.77869e-05
6.4355e-05
-1.77687e-05
6.79065e-05
-1.77491e-05
7.14539e-05
-1.7728e-05
7.49969e-05
-1.77054e-05
7.85351e-05
-1.76813e-05
8.20682e-05
-1.76556e-05
8.5596e-05
-1.76282e-05
8.9118e-05
-1.7599e-05
9.26338e-05
-1.75681e-05
9.61432e-05
-1.75353e-05
9.96458e-05
-1.75005e-05
0.000103141
-1.74638e-05
0.000106629
-1.74249e-05
0.000110108
-1.73839e-05
0.000113579
-1.73406e-05
0.000117041
-1.7295e-05
0.000120493
-1.72471e-05
0.000123936
-1.71966e-05
0.000127368
-1.71436e-05
0.000130788
-1.70879e-05
0.000134198
-1.70296e-05
0.000137595
-1.69684e-05
0.000140979
-1.69044e-05
0.00014435
-1.68373e-05
0.000147708
-1.67673e-05
0.00015105
-1.6694e-05
0.000154378
-1.66176e-05
0.000157689
-1.65379e-05
0.000160984
-1.64548e-05
0.000164262
-1.63683e-05
0.000167522
-1.62782e-05
0.000170764
-1.61845e-05
0.000173986
-1.60872e-05
0.000177187
-1.59861e-05
0.000180368
-1.58811e-05
0.000183527
-1.57723e-05
0.000186664
-1.56595e-05
0.000189778
-1.55428e-05
0.000192867
-1.54219e-05
0.000195931
-1.52969e-05
0.00019897
-1.51677e-05
0.000201982
-1.50343e-05
0.000204966
-1.48966e-05
0.000207923
-1.47547e-05
0.000210849
-1.46083e-05
0.000213746
-1.44576e-05
0.000216612
-1.43025e-05
0.000219446
-1.41429e-05
0.000222247
-1.39789e-05
0.000225014
-1.38105e-05
0.000227747
-1.36375e-05
0.000230445
-1.34602e-05
0.000233106
-1.32783e-05
0.000235729
-1.3092e-05
0.000238315
-1.29013e-05
0.000240861
-1.27062e-05
0.000243368
-1.25066e-05
0.000245834
-1.23028e-05
0.000248258
-1.20946e-05
0.000250639
-1.18822e-05
0.000252977
-1.16656e-05
0.000255271
-1.14448e-05
0.00025752
-1.12199e-05
0.000259723
-1.0991e-05
0.000261879
-1.07582e-05
0.000263988
-1.05215e-05
0.000266048
-1.0281e-05
0.00026806
-1.00369e-05
0.000270022
-9.78922e-06
0.000271934
-9.53804e-06
0.000273794
-9.2835e-06
0.000275603
-9.0257e-06
0.00027736
-8.76478e-06
0.000279063
-8.50085e-06
0.000280713
-8.23403e-06
0.000282309
-7.96447e-06
0.000283851
-7.6923e-06
0.000285337
-7.41765e-06
0.000286768
-7.14067e-06
0.000288143
-6.8615e-06
0.000289461
-6.58029e-06
0.000290723
-6.2972e-06
0.000291927
-6.01236e-06
0.000293074
-5.72595e-06
0.000294163
-5.4381e-06
0.000295194
-5.14899e-06
0.000296167
-4.85877e-06
0.000297081
-4.56759e-06
0.000297937
-4.27561e-06
0.000298735
-3.98299e-06
0.000299473
-3.6899e-06
0.000300152
-3.39648e-06
0.000300773
-3.10289e-06
0.000301335
-2.80929e-06
0.000301837
-2.51583e-06
0.000302282
-2.22266e-06
0.000302667
-1.92993e-06
0.000302993
-1.63778e-06
0.000303262
-1.34637e-06
0.000303472
-1.05582e-06
0.000303624
-7.66289e-07
0.000303718
-4.77899e-07
0.000303754
-1.90785e-07
0.000303733
9.49257e-08
0.000303656
3.79109e-07
0.000303521
6.61644e-07
0.00030333
9.42416e-07
0.000303084
1.22131e-06
0.000302782
1.49822e-06
0.000302424
1.77305e-06
0.000302012
2.04569e-06
0.000301546
2.31605e-06
0.000301027
2.58404e-06
0.000300454
2.84957e-06
0.000299828
3.11257e-06
0.00029915
3.37295e-06
0.000298421
3.63065e-06
0.00029764
3.88559e-06
0.000296809
4.13771e-06
0.000295929
4.38696e-06
0.000294998
4.63328e-06
0.000294019
4.87662e-06
0.000292992
5.11693e-06
0.000291918
5.35417e-06
0.000290796
5.5883e-06
0.000289629
5.81929e-06
0.000288415
6.04711e-06
0.000287157
6.27172e-06
0.000285855
6.49312e-06
0.000284509
6.71126e-06
0.000283119
6.92615e-06
0.000281688
7.13776e-06
0.000280215
7.34609e-06
0.000278701
7.55113e-06
0.000277146
7.75287e-06
0.000275552
7.95131e-06
0.000273919
8.14644e-06
0.000272247
8.33828e-06
0.000270538
8.52683e-06
0.000268791
8.7121e-06
0.000267009
8.89408e-06
0.00026519
9.07281e-06
0.000263337
9.24828e-06
0.000261449
9.42051e-06
0.000259527
9.58952e-06
0.000257572
9.75533e-06
0.000255585
9.91795e-06
0.000253565
1.00774e-05
0.000251515
1.02337e-05
0.000249434
1.03869e-05
0.000247323
1.0537e-05
0.000245182
1.0684e-05
0.000243013
1.0828e-05
0.000240816
1.0969e-05
0.000238591
1.11069e-05
0.000236339
1.12419e-05
0.00023406
1.1374e-05
0.000231756
1.15032e-05
0.000229427
1.16294e-05
0.000227073
1.17529e-05