/*--------------------------------*- C++ -*----------------------------------*\
| =========                 |                                                 |
| \\      /  F ield         | OpenFOAM: The Open Source CFD Toolbox           |
|  \\    /   O peration     | Version:  v2012                                 |
|   \\  /    A nd           | Website:  www.openfoam.com                      |
|    \\/     M anipulation  |                                                 |
\*---------------------------------------------------------------------------*/
FoamFile
{
    version     2.0;
    format      ascii;
    class       volScalarField;
    location    "4";
    object      W;
}
// * * * * * * * * * * * * * * * * * * * * * * * * * * * * * * * * * * * * * //

dimensions      [0 0 -1 0 0 0 0];


internalField   nonuniform List<scalar> 
65536
(
7.87638e-20
8.53257e-20
9.88581e-20
1.20142e-19
1.50415e-19
1.9145e-19
2.45662e-19
3.16235e-19
4.07298e-19
5.24125e-19
6.73398e-19
8.63521e-19
1.10501e-18
1.41098e-18
1.79772e-18
2.2854e-18
2.89893e-18
3.669e-18
4.63333e-18
5.83811e-18
7.33981e-18
9.20727e-18
1.15242e-17
1.4392e-17
1.79335e-17
2.22967e-17
2.76598e-17
3.42363e-17
4.22821e-17
5.21022e-17
6.40597e-17
7.85857e-17
9.61901e-17
1.17475e-16
1.43149e-16
1.74043e-16
2.11131e-16
2.55549e-16
3.08617e-16
3.71868e-16
4.47077e-16
5.36287e-16
6.41851e-16
7.66463e-16
9.13204e-16
1.08558e-15
1.28758e-15
1.52371e-15
1.79906e-15
2.11935e-15
2.491e-15
2.92114e-15
3.41777e-15
3.98969e-15
4.64668e-15
5.39947e-15
6.25981e-15
7.24056e-15
8.35568e-15
9.62029e-15
1.10507e-14
1.26643e-14
1.44799e-14
1.65171e-14
1.8797e-14
2.13415e-14
2.41735e-14
2.73169e-14
3.07961e-14
3.46361e-14
3.88624e-14
4.35003e-14
4.85751e-14
5.41117e-14
6.01339e-14
6.66645e-14
7.37248e-14
8.13337e-14
8.95079e-14
9.8261e-14
1.07603e-13
1.17541e-13
1.28076e-13
1.39204e-13
1.50918e-13
1.63202e-13
1.76036e-13
1.89393e-13
2.03237e-13
2.17527e-13
2.32215e-13
2.47244e-13
2.62549e-13
2.78061e-13
2.93701e-13
3.09385e-13
3.25023e-13
3.40519e-13
3.55772e-13
3.70679e-13
3.85134e-13
3.99029e-13
4.12254e-13
4.24704e-13
4.36272e-13
4.46859e-13
4.56368e-13
4.64709e-13
4.71802e-13
4.77574e-13
4.81963e-13
4.84919e-13
4.86404e-13
4.86394e-13
4.84879e-13
4.81861e-13
4.7736e-13
4.71409e-13
4.64055e-13
4.5536e-13
4.45398e-13
4.34257e-13
4.22036e-13
4.08844e-13
3.94799e-13
3.80027e-13
3.6466e-13
3.48834e-13
3.32689e-13
3.16366e-13
3.00003e-13
2.83741e-13
2.67714e-13
2.52053e-13
2.36884e-13
2.22326e-13
2.08488e-13
1.95474e-13
1.83378e-13
1.72284e-13
1.62266e-13
1.5339e-13
1.45708e-13
1.39264e-13
1.34093e-13
1.30217e-13
1.27649e-13
1.26391e-13
1.26435e-13
1.27762e-13
1.30343e-13
1.34139e-13
1.39099e-13
1.45162e-13
1.52258e-13
1.60305e-13
1.6921e-13
1.78872e-13
1.89178e-13
2.00009e-13
2.11235e-13
2.22719e-13
2.34319e-13
2.45889e-13
2.57278e-13
2.68334e-13
2.78907e-13
2.8885e-13
2.9802e-13
3.06284e-13
3.13515e-13
3.19602e-13
3.24446e-13
3.27966e-13
3.30097e-13
3.30794e-13
3.30032e-13
3.27808e-13
3.24137e-13
3.19057e-13
3.12625e-13
3.04916e-13
2.96023e-13
2.86051e-13
2.75122e-13
2.63364e-13
2.50915e-13
2.37917e-13
2.24512e-13
2.10843e-13
1.97049e-13
1.83263e-13
1.69609e-13
1.56203e-13
1.43149e-13
1.30537e-13
1.18445e-13
1.06938e-13
9.60651e-14
8.58645e-14
7.63602e-14
6.75644e-14
5.94783e-14
5.20934e-14
4.53922e-14
3.93505e-14
3.39375e-14
2.91183e-14
2.48543e-14
2.11048e-14
1.78279e-14
1.49813e-14
1.25235e-14
1.04141e-14
8.61465e-15
7.08865e-15
5.80226e-15
4.72426e-15
3.8262e-15
3.08246e-15
2.47011e-15
1.96889e-15
1.56103e-15
1.23106e-15
9.65656e-16
7.53424e-16
5.84691e-16
4.51316e-16
3.46496e-16
2.64593e-16
2.00963e-16
1.51814e-16
1.14067e-16
8.52434e-17
6.33595e-17
4.68393e-17
3.44394e-17
2.51852e-17
1.83179e-17
1.3251e-17
9.5337e-18
6.822e-18
4.85511e-18
3.43654e-18
2.41925e-18
1.69385e-18
1.17954e-18
8.16992e-19
5.62939e-19
3.86051e-19
2.63826e-19
1.8026e-19
1.24129e-19
8.773e-20
6.59885e-20
5.58388e-20
1.04586e-19
1.13294e-19
1.31254e-19
1.59502e-19
1.9968e-19
2.54138e-19
3.26077e-19
4.1972e-19
5.40538e-19
6.95525e-19
8.93533e-19
1.1457e-18
1.46596e-18
1.87167e-18
2.38441e-18
3.03088e-18
3.84406e-18
4.86456e-18
6.14227e-18
7.7383e-18
9.72729e-18
1.22003e-17
1.52678e-17
1.90639e-17
2.37507e-17
2.95236e-17
3.66177e-17
4.53147e-17
5.59518e-17
6.89312e-17
8.47312e-17
1.03919e-16
1.27166e-16
1.55265e-16
1.89145e-16
2.29901e-16
2.7881e-16
3.37362e-16
4.07291e-16
4.90604e-16
5.89625e-16
7.0703e-16
8.45893e-16
1.00974e-15
1.20258e-15
1.42901e-15
1.69421e-15
2.00405e-15
2.36515e-15
2.78495e-15
3.27176e-15
3.83487e-15
4.48459e-15
5.23235e-15
6.09074e-15
7.07362e-15
8.19614e-15
9.47482e-15
1.09276e-14
1.25739e-14
1.44345e-14
1.65317e-14
1.88894e-14
2.15327e-14
2.44882e-14
2.77837e-14
3.14481e-14
3.55116e-14
4.00047e-14
4.49588e-14
5.04055e-14
5.63764e-14
6.29027e-14
7.00149e-14
7.7742e-14
8.61117e-14
9.51491e-14
1.04877e-13
1.15314e-13
1.26476e-13
1.38373e-13
1.51011e-13
1.6439e-13
1.78502e-13
1.93334e-13
2.08865e-13
2.25066e-13
2.41898e-13
2.59315e-13
2.77262e-13
2.95675e-13
3.1448e-13
3.33593e-13
3.52924e-13
3.72372e-13
3.91831e-13
4.11184e-13
4.30313e-13
4.49089e-13
4.67384e-13
4.85065e-13
5.01997e-13
5.18047e-13
5.33084e-13
5.4698e-13
5.59611e-13
5.70863e-13
5.80628e-13
5.88809e-13
5.95324e-13
6.001e-13
6.03082e-13
6.04229e-13
6.03517e-13
6.0094e-13
5.9651e-13
5.90256e-13
5.82225e-13
5.72483e-13
5.61111e-13
5.48207e-13
5.33885e-13
5.18269e-13
5.01499e-13
4.83724e-13
4.651e-13
4.45792e-13
4.25968e-13
4.05801e-13
3.85461e-13
3.6512e-13
3.44947e-13
3.25104e-13
3.0575e-13
2.87033e-13
2.69096e-13
2.52069e-13
2.36074e-13
2.2122e-13
2.07604e-13
1.95313e-13
1.84419e-13
1.74983e-13
1.67052e-13
1.60663e-13
1.55839e-13
1.52589e-13
1.50911e-13
1.50792e-13
1.52205e-13
1.55112e-13
1.5946e-13
1.65187e-13
1.72217e-13
1.80462e-13
1.89823e-13
2.00188e-13
2.11434e-13
2.23427e-13
2.36023e-13
2.49069e-13
2.62404e-13
2.75859e-13
2.89261e-13
3.02434e-13
3.15201e-13
3.27387e-13
3.38821e-13
3.49337e-13
3.58779e-13
3.67005e-13
3.73885e-13
3.79308e-13
3.8318e-13
3.85429e-13
3.86007e-13
3.84886e-13
3.82066e-13
3.77568e-13
3.71439e-13
3.63748e-13
3.54583e-13
3.44056e-13
3.32291e-13
3.19429e-13
3.05622e-13
2.91031e-13
2.75819e-13
2.60154e-13
2.44201e-13
2.2812e-13
2.12065e-13
1.9618e-13
1.80596e-13
1.65434e-13
1.50797e-13
1.36774e-13
1.23437e-13
1.10845e-13
9.90383e-14
8.80439e-14
7.78748e-14
6.85313e-14
6.00022e-14
5.22667e-14
4.52956e-14
3.90528e-14
3.34972e-14
2.85837e-14
2.42647e-14
2.04915e-14
1.72151e-14
1.43871e-14
1.19609e-14
9.89173e-15
8.13762e-15
6.65937e-15
5.42094e-15
4.38952e-15
3.53556e-15
2.83264e-15
2.25744e-15
1.78947e-15
1.41097e-15
1.10659e-15
8.63246e-16
6.69813e-16
5.16943e-16
3.96825e-16
3.02983e-16
2.30091e-16
1.73796e-16
1.30568e-16
9.75639e-17
7.25092e-17
5.35979e-17
3.94049e-17
2.88137e-17
2.09552e-17
1.51576e-17
1.09046e-17
7.80237e-18
5.55244e-18
3.92988e-18
2.76638e-18
1.93679e-18
1.34865e-18
9.34077e-19
6.43587e-19
4.4134e-19
3.016e-19
2.06062e-19
1.41891e-19
1.00281e-19
7.54271e-20
6.38261e-20
1.63914e-19
1.77551e-19
2.05682e-19
2.49925e-19
3.12849e-19
3.98131e-19
5.10777e-19
6.57391e-19
8.4653e-19
1.08912e-18
1.39901e-18
1.7936e-18
2.29464e-18
2.92928e-18
3.73117e-18
4.74202e-18
6.01329e-18
7.60833e-18
9.60492e-18
1.20983e-17
1.52049e-17
1.90664e-17
2.3855e-17
2.97793e-17
3.70914e-17
4.60954e-17
5.71562e-17
7.0712e-17
8.72859e-17
1.07502e-16
1.32102e-16
1.61965e-16
1.98131e-16
2.41825e-16
2.94488e-16
3.57808e-16
4.33759e-16
5.24639e-16
6.33121e-16
7.62298e-16
9.15745e-16
1.09758e-15
1.31251e-15
1.56596e-15
1.86408e-15
2.21387e-15
2.62329e-15
3.10129e-15
3.65796e-15
4.30463e-15
5.05394e-15
5.92e-15
6.91843e-15
8.06654e-15
9.38335e-15
1.08897e-14
1.26086e-14
1.45646e-14
1.67847e-14
1.92979e-14
2.21354e-14
2.53302e-14
2.89178e-14
3.29354e-14
3.74221e-14
4.2419e-14
4.79684e-14
5.41141e-14
6.09007e-14
6.83735e-14
7.65779e-14
8.55591e-14
9.53613e-14
1.06027e-13
1.17598e-13
1.3011e-13
1.436e-13
1.58095e-13
1.7362e-13
1.90194e-13
2.07828e-13
2.26525e-13
2.4628e-13
2.67076e-13
2.88889e-13
3.11681e-13
3.35404e-13
3.59997e-13
3.85385e-13
4.11482e-13
4.38189e-13
4.65391e-13
4.92964e-13
5.2077e-13
5.4866e-13
5.76474e-13
6.04042e-13
6.31188e-13
6.57729e-13
6.83475e-13
7.08236e-13
7.31822e-13
7.54042e-13
7.74712e-13
7.93653e-13
8.10694e-13
8.25679e-13
8.38462e-13
8.48916e-13
8.56929e-13
8.62414e-13
8.65301e-13
8.65545e-13
8.63126e-13
8.58049e-13
8.50343e-13
8.40064e-13
8.27291e-13
8.12131e-13
7.94709e-13
7.75178e-13
7.53706e-13
7.3048e-13
7.05706e-13
6.79598e-13
6.52385e-13
6.24302e-13
5.95588e-13
5.66485e-13
5.37235e-13
5.08076e-13
4.79242e-13
4.50958e-13
4.23437e-13
3.96885e-13
3.71489e-13
3.47427e-13
3.24857e-13
3.03922e-13
2.8475e-13
2.67448e-13
2.52108e-13
2.38804e-13
2.27592e-13
2.18511e-13
2.11582e-13
2.06811e-13
2.04185e-13
2.03677e-13
2.05241e-13
2.08818e-13
2.1433e-13
2.21686e-13
2.30775e-13
2.41476e-13
2.53648e-13
2.67137e-13
2.81775e-13
2.97379e-13
3.13756e-13
3.30698e-13
3.47992e-13
3.65412e-13
3.8273e-13
3.99715e-13
4.16134e-13
4.31758e-13
4.46365e-13
4.5974e-13
4.71685e-13
4.82014e-13
4.90564e-13
4.97194e-13
5.01788e-13
5.04258e-13
5.04545e-13
5.02622e-13
4.98491e-13
4.92189e-13
4.8378e-13
4.73358e-13
4.61047e-13
4.4699e-13
4.31358e-13
4.14333e-13
3.96117e-13
3.76917e-13
3.5695e-13
3.36431e-13
3.15574e-13
2.94586e-13
2.73665e-13
2.52995e-13
2.32745e-13
2.13067e-13
1.94094e-13
1.75936e-13
1.58685e-13
1.42414e-13
1.27172e-13
1.12991e-13
9.98861e-14
8.78549e-14
7.68812e-14
6.6936e-14
5.79799e-14
4.99651e-14
4.28373e-14
3.65373e-14
3.1003e-14
2.61708e-14
2.19772e-14
1.83596e-14
1.52576e-14
1.26134e-14
1.03729e-14
8.48558e-15
6.90519e-15
5.58954e-15
4.50068e-15
3.60479e-15
2.87194e-15
2.27594e-15
1.79405e-15
1.40666e-15
1.09705e-15
8.5102e-16
6.56639e-16
5.03948e-16
3.84691e-16
2.92081e-16
2.20576e-16
1.65682e-16
1.23779e-16
9.19766e-17
6.79768e-17
4.99685e-17
3.65327e-17
2.65653e-17
1.9213e-17
1.38204e-17
9.88751e-18
7.03552e-18
4.97905e-18
3.50459e-18
2.4534e-18
1.70824e-18
1.18304e-18
8.15068e-19
5.58897e-19
3.81912e-19
2.60919e-19
1.79656e-19
1.26964e-19
9.54926e-20
8.08032e-20
2.74163e-19
2.96955e-19
3.43977e-19
4.17929e-19
5.23099e-19
6.65627e-19
8.53867e-19
1.09884e-18
1.41484e-18
1.82008e-18
2.33766e-18
2.99659e-18
3.83318e-18
4.89264e-18
6.23108e-18
7.91796e-18
1.0039e-17
1.26997e-17
1.60295e-17
2.01869e-17
2.53654e-17
3.18008e-17
3.9779e-17
4.96469e-17
6.1823e-17
7.68117e-17
9.52191e-17
1.17771e-16
1.45335e-16
1.78944e-16
2.19827e-16
2.69438e-16
3.29496e-16
4.02025e-16
4.89406e-16
5.94423e-16
7.2033e-16
8.70915e-16
1.05058e-15
1.2644e-15
1.51827e-15
1.81893e-15
2.17412e-15
2.59271e-15
3.08478e-15
3.66178e-15
4.33668e-15
5.1241e-15
6.04048e-15
7.10425e-15
8.33594e-15
9.75844e-15
1.13971e-14
1.32798e-14
1.54373e-14
1.79033e-14
2.07144e-14
2.39106e-14
2.75349e-14
3.16336e-14
3.62563e-14
4.14559e-14
4.72883e-14
5.38126e-14
6.10905e-14
6.91864e-14
7.81666e-14
8.80994e-14
9.90542e-14
1.11101e-13
1.24309e-13
1.38748e-13
1.54484e-13
1.71583e-13
1.90103e-13
2.101e-13
2.31624e-13
2.54716e-13
2.79407e-13
3.05721e-13
3.33668e-13
3.63246e-13
3.94437e-13
4.27209e-13
4.61515e-13
4.97286e-13
5.34438e-13
5.72866e-13
6.12445e-13
6.53032e-13
6.94462e-13
7.3655e-13
7.79094e-13
8.21872e-13
8.64647e-13
9.07165e-13
9.4916e-13
9.90355e-13
1.03046e-12
1.0692e-12
1.10626e-12
1.14137e-12
1.17422e-12
1.20455e-12
1.23209e-12
1.25659e-12
1.27781e-12
1.29555e-12
1.30963e-12
1.3199e-12
1.32624e-12
1.32855e-12
1.3268e-12
1.32097e-12
1.31109e-12
1.29723e-12
1.27948e-12
1.25799e-12
1.23295e-12
1.20455e-12
1.17305e-12
1.13871e-12
1.10184e-12
1.06276e-12
1.02179e-12
9.79297e-13
9.35632e-13
8.91163e-13
8.46254e-13
8.01269e-13
7.56562e-13
7.12479e-13
6.69349e-13
6.27486e-13
5.87185e-13
5.48718e-13
5.12335e-13
4.7826e-13
4.46693e-13
4.17807e-13
3.91748e-13
3.68638e-13
3.48568e-13
3.31609e-13
3.17801e-13
3.07163e-13
2.99688e-13
2.95344e-13
2.94078e-13
2.95812e-13
3.00445e-13
3.07857e-13
3.17902e-13
3.30416e-13
3.4521e-13
3.62078e-13
3.80792e-13
4.01105e-13
4.22752e-13
4.45453e-13
4.68912e-13
4.92821e-13
5.16863e-13
5.40716e-13
5.64052e-13
5.86548e-13
6.07883e-13
6.2775e-13
6.45855e-13
6.61921e-13
6.757e-13
6.86968e-13
6.95537e-13
7.01253e-13
7.04002e-13
7.03712e-13
7.00352e-13
6.93937e-13
6.84523e-13
6.72208e-13
6.57133e-13
6.39472e-13
6.19434e-13
5.97257e-13
5.73201e-13
5.47546e-13
5.20583e-13
4.92612e-13
4.63931e-13
4.34835e-13
4.0561e-13
3.76526e-13
3.47836e-13
3.19769e-13
2.92531e-13
2.66301e-13
2.41228e-13
2.17435e-13
1.95016e-13
1.74037e-13
1.54537e-13
1.36533e-13
1.20019e-13
1.04969e-13
9.13407e-14
7.90773e-14
6.8111e-14
5.83652e-14
4.97572e-14
4.22004e-14
3.56066e-14
2.98876e-14
2.4957e-14
2.07315e-14
1.71317e-14
1.4083e-14
1.15163e-14
9.36795e-15
7.58034e-15
6.10156e-15
4.88536e-15
3.89091e-15
3.08249e-15
2.42909e-15
1.90403e-15
1.48453e-15
1.1513e-15
8.88102e-16
6.81419e-16
5.20041e-16
3.94758e-16
2.98052e-16
2.23829e-16
1.67188e-16
1.24209e-16
9.17818e-17
6.74555e-17
4.93096e-17
3.58507e-17
2.59247e-17
1.86457e-17
1.33379e-17
9.48953e-18
6.71498e-18
4.72594e-18
3.30808e-18
2.30311e-18
1.59488e-18
1.09872e-18
7.53342e-19
5.14746e-19
3.51647e-19
2.42111e-19
1.71091e-19
1.28675e-19
1.08877e-19
4.67206e-19
5.0602e-19
5.86101e-19
7.12042e-19
8.91137e-19
1.13383e-18
1.45433e-18
1.87139e-18
2.40927e-18
3.099e-18
3.9798e-18
5.101e-18
6.52426e-18
8.32638e-18
1.06027e-17
1.3471e-17
1.7077e-17
2.15995e-17
2.72582e-17
3.43218e-17
4.31184e-17
5.40474e-17
6.75935e-17
8.43435e-17
1.05006e-16
1.30435e-16
1.61655e-16
1.99892e-16
2.46613e-16
3.03563e-16
3.72814e-16
4.5682e-16
5.58479e-16
6.81203e-16
8.28997e-16
1.00655e-15
1.21933e-15
1.4737e-15
1.77705e-15
2.13792e-15
2.56615e-15
3.07306e-15
3.6716e-15
4.37658e-15
5.20484e-15
6.1755e-15
7.31017e-15
8.63318e-15
1.01719e-14
1.19569e-14
1.40222e-14
1.64058e-14
1.91495e-14
2.22995e-14
2.59065e-14
3.00259e-14
3.47181e-14
4.00483e-14
4.6087e-14
5.29101e-14
6.05982e-14
6.92375e-14
7.89187e-14
8.97372e-14
1.01793e-13
1.15189e-13
1.30032e-13
1.4643e-13
1.64495e-13
1.84336e-13
2.06063e-13
2.29785e-13
2.55604e-13
2.8362e-13
3.13924e-13
3.46599e-13
3.81717e-13
4.19335e-13
4.59497e-13
5.02231e-13
5.47541e-13
5.95414e-13
6.45811e-13
6.98668e-13
7.53893e-13
8.11367e-13
8.7094e-13
9.32432e-13
9.95629e-13
1.06029e-12
1.12613e-12
1.19286e-12
1.26014e-12
1.3276e-12
1.39486e-12
1.4615e-12
1.52711e-12
1.59123e-12
1.65342e-12
1.7132e-12
1.77013e-12
1.82375e-12
1.87361e-12
1.91929e-12
1.96037e-12
1.99648e-12
2.02728e-12
2.05245e-12
2.07174e-12
2.08494e-12
2.09187e-12
2.09245e-12
2.08661e-12
2.07437e-12
2.0558e-12
2.03104e-12
2.00028e-12
1.96376e-12
1.92179e-12
1.87473e-12
1.82298e-12
1.76698e-12
1.70721e-12
1.64419e-12
1.57845e-12
1.51055e-12
1.44104e-12
1.3705e-12
1.29949e-12
1.22858e-12
1.1583e-12
1.08917e-12
1.0217e-12
9.56356e-13
8.93576e-13
8.33764e-13
7.77282e-13
7.24458e-13
6.75575e-13
6.30878e-13
5.90569e-13
5.5481e-13
5.23722e-13
4.97388e-13
4.7585e-13
4.59114e-13
4.47151e-13
4.39895e-13
4.37245e-13
4.39069e-13
4.45201e-13
4.55442e-13
4.69565e-13
4.87309e-13
5.08386e-13
5.32479e-13
5.59241e-13
5.88301e-13
6.19264e-13
6.51712e-13
6.85209e-13
7.19303e-13
7.53529e-13
7.87417e-13
8.20494e-13
8.52292e-13
8.82353e-13
9.10235e-13
9.35519e-13
9.57816e-13
9.76775e-13
9.92084e-13
1.00348e-12
1.01076e-12
1.01376e-12
1.0124e-12
1.00665e-12
9.96528e-13
9.82136e-13
9.63625e-13
9.41205e-13
9.15135e-13
8.85722e-13
8.53312e-13
8.18285e-13
7.81044e-13
7.42008e-13
7.01604e-13
6.60262e-13
6.18399e-13
5.76423e-13
5.34714e-13
4.93629e-13
4.53492e-13
4.14588e-13
3.77169e-13
3.41441e-13
3.07573e-13
2.75692e-13
2.45888e-13
2.18212e-13
1.92681e-13
1.69282e-13
1.47975e-13
1.28695e-13
1.1136e-13
9.58688e-14
8.21114e-14
6.99682e-14
5.93146e-14
5.00244e-14
4.19715e-14
3.50327e-14
2.90894e-14
2.40288e-14
1.97451e-14
1.61404e-14
1.31247e-14
1.06166e-14
8.54259e-15
6.8376e-15
5.44405e-15
4.31162e-15
3.39669e-15
2.66173e-15
2.07473e-15
1.60859e-15
1.24054e-15
9.51605e-16
7.26072e-16
5.51031e-16
4.15953e-16
3.12306e-16
2.33229e-16
1.73241e-16
1.2799e-16
9.40512e-17
6.87399e-17
4.99698e-17
3.61294e-17
2.59816e-17
1.85831e-17
1.32197e-17
9.35344e-18
6.58215e-18
4.60692e-18
3.20707e-18
2.22066e-18
1.5297e-18
1.04876e-18
7.1655e-19
4.89476e-19
3.36985e-19
2.38119e-19
1.79075e-19
1.51516e-19
7.97819e-19
8.64056e-19
1.00072e-18
1.21564e-18
1.52126e-18
1.93536e-18
2.48218e-18
3.19367e-18
4.11118e-18
5.28755e-18
6.78961e-18
8.70135e-18
1.11278e-17
1.41996e-17
1.80791e-17
2.29669e-17
2.91104e-17
3.6814e-17
4.64511e-17
5.84785e-17
7.34536e-17
9.20546e-17
1.15105e-16
1.436e-16
1.78742e-16
2.21979e-16
2.75049e-16
3.40029e-16
4.19403e-16
5.16124e-16
6.337e-16
7.76281e-16
9.48765e-16
1.15691e-15
1.40749e-15
1.70841e-15
2.06888e-15
2.49964e-15
3.01312e-15
3.62369e-15
4.34789e-15
5.20474e-15
6.21598e-15
7.40644e-15
8.80434e-15
1.04417e-14
1.23546e-14
1.45837e-14
1.71746e-14
2.01783e-14
2.36516e-14
2.76574e-14
3.22653e-14
3.75517e-14
4.36006e-14
5.05036e-14
5.83602e-14
6.72779e-14
7.73728e-14
8.8769e-14
1.01599e-13
1.16003e-13
1.32129e-13
1.50133e-13
1.70175e-13
1.92423e-13
2.17049e-13
2.44226e-13
2.74131e-13
3.06941e-13
3.42828e-13
3.81961e-13
4.24503e-13
4.70606e-13
5.20409e-13
5.74037e-13
6.31595e-13
6.93164e-13
7.58802e-13
8.28536e-13
9.02362e-13
9.80239e-13
1.06209e-12
1.14778e-12
1.23716e-12
1.33001e-12
1.42607e-12
1.52503e-12
1.62652e-12
1.73014e-12
1.83543e-12
1.94188e-12
2.04894e-12
2.15601e-12
2.26245e-12
2.36762e-12
2.47081e-12
2.57131e-12
2.6684e-12
2.76135e-12
2.84943e-12
2.93192e-12
3.00813e-12
3.07741e-12
3.13911e-12
3.19268e-12
3.23758e-12
3.27338e-12
3.29968e-12
3.31619e-12
3.32269e-12
3.31906e-12
3.30526e-12
3.28136e-12
3.24751e-12
3.20397e-12
3.15108e-12
3.08927e-12
3.01906e-12
2.94105e-12
2.85589e-12
2.76432e-12
2.66712e-12
2.5651e-12
2.45912e-12
2.35007e-12
2.23882e-12
2.12628e-12
2.01331e-12
1.9008e-12
1.78956e-12
1.68041e-12
1.57411e-12
1.47136e-12
1.37283e-12
1.27911e-12
1.19074e-12
1.10819e-12
1.03189e-12
9.62161e-13
8.993e-13
8.43522e-13
7.94981e-13
7.53773e-13
7.19936e-13
6.93448e-13
6.74236e-13
6.62173e-13
6.57082e-13
6.58737e-13
6.66863e-13
6.81143e-13
7.0121e-13
7.26658e-13
7.57038e-13
7.91859e-13
8.30594e-13
8.72678e-13
9.17513e-13
9.64474e-13
1.01291e-12
1.06214e-12
1.11149e-12
1.16026e-12
1.20776e-12
1.2533e-12
1.29622e-12
1.33588e-12
1.37167e-12
1.40304e-12
1.42948e-12
1.45055e-12
1.46589e-12
1.47521e-12
1.4783e-12
1.47504e-12
1.4654e-12
1.44945e-12
1.42734e-12
1.3993e-12
1.36565e-12
1.32678e-12
1.28314e-12
1.23525e-12
1.18366e-12
1.12895e-12
1.07175e-12
1.01268e-12
9.52339e-13
8.91348e-13
8.30286e-13
7.69701e-13
7.10103e-13
6.51951e-13
5.95653e-13
5.41562e-13
4.89971e-13
4.41114e-13
3.95167e-13
3.52251e-13
3.12433e-13
2.75731e-13
2.42122e-13
2.1154e-13
1.83888e-13
1.59041e-13
1.36853e-13
1.17161e-13
9.97902e-14
8.45594e-14
7.12852e-14
5.97853e-14
4.98817e-14
4.14033e-14
3.41877e-14
2.80828e-14
2.29479e-14
1.8654e-14
1.50842e-14
1.21336e-14
9.70887e-15
7.72783e-15
6.11858e-15
4.81887e-15
3.77517e-15
2.94186e-15
2.28033e-15
1.75817e-15
1.34836e-15
1.02857e-15
7.80436e-16
5.89002e-16
4.42149e-16
3.30133e-16
2.45176e-16
1.81106e-16
1.3306e-16
9.72355e-17
7.0674e-17
5.10918e-17
3.67365e-17
2.62722e-17
1.86874e-17
1.32205e-17
9.30247e-18
6.51025e-18
4.53163e-18
3.13755e-18
2.16111e-18
1.48155e-18
1.01217e-18
6.91367e-19
4.75946e-19
3.3629e-19
2.52887e-19
2.1396e-19
1.35788e-18
1.47054e-18
1.703e-18
2.06856e-18
2.58834e-18
3.29259e-18
4.22246e-18
5.43221e-18
6.99211e-18
8.99185e-18
1.15449e-17
1.47939e-17
1.8917e-17
2.4136e-17
3.07261e-17
3.90276e-17
4.94601e-17
6.25395e-17
7.88986e-17
9.93114e-17
1.24722e-16
1.56278e-16
1.95373e-16
2.43692e-16
3.03269e-16
3.7655e-16
4.66472e-16
5.76547e-16
7.10965e-16
8.74714e-16
1.07371e-15
1.31495e-15
1.60668e-15
1.95862e-15
2.38214e-15
2.89056e-15
3.49937e-15
4.2266e-15
5.09312e-15
6.12304e-15
7.34409e-15
8.78813e-15
1.04916e-14
1.24959e-14
1.48483e-14
1.76021e-14
2.08177e-14
2.45627e-14
2.89131e-14
3.39535e-14
3.97783e-14
4.64918e-14
5.42091e-14
6.3057e-14
7.31738e-14
8.47107e-14
9.78314e-14
1.12713e-13
1.29545e-13
1.48532e-13
1.6989e-13
1.93846e-13
2.20644e-13
2.50533e-13
2.83776e-13
3.20642e-13
3.61406e-13
4.06348e-13
4.5575e-13
5.0989e-13
5.69042e-13
6.33471e-13
7.03429e-13
7.79152e-13
8.6085e-13
9.4871e-13
1.04288e-12
1.14348e-12
1.25058e-12
1.3642e-12
1.4843e-12
1.61081e-12
1.74355e-12
1.88231e-12
2.02678e-12
2.17661e-12
2.33132e-12
2.49041e-12
2.65325e-12
2.81917e-12
2.98738e-12
3.15707e-12
3.32731e-12
3.49713e-12
3.66552e-12
3.83138e-12
3.99362e-12
4.15108e-12
4.30262e-12
4.44707e-12
4.58328e-12
4.71015e-12
4.82658e-12
4.93155e-12
5.02411e-12
5.10337e-12
5.16857e-12
5.21904e-12
5.25423e-12
5.27372e-12
5.27723e-12
5.26464e-12
5.23594e-12
5.19131e-12
5.13105e-12
5.05564e-12
4.96567e-12
4.86189e-12
4.74516e-12
4.61647e-12
4.47692e-12
4.32768e-12
4.17002e-12
4.00524e-12
3.83473e-12
3.65985e-12
3.48202e-12
3.30263e-12
3.12306e-12
2.94464e-12
2.76866e-12
2.59636e-12
2.42888e-12
2.2673e-12
2.11262e-12
1.96572e-12
1.82739e-12
1.69834e-12
1.57915e-12
1.47031e-12
1.37222e-12
1.28516e-12
1.20933e-12
1.14483e-12
1.09167e-12
1.04979e-12
1.01902e-12
9.99139e-13
9.89837e-13
9.90737e-13
1.00139e-12
1.02129e-12
1.04985e-12
1.08643e-12
1.13034e-12
1.18083e-12
1.23707e-12
1.29822e-12
1.36337e-12
1.43158e-12
1.50188e-12
1.57325e-12
1.64468e-12
1.71516e-12
1.78365e-12
1.84915e-12
1.9107e-12
1.96735e-12
2.01824e-12
2.06256e-12
2.09959e-12
2.12871e-12
2.1494e-12
2.16125e-12
2.16399e-12
2.15747e-12
2.14167e-12
2.11669e-12
2.08278e-12
2.04031e-12
1.98974e-12
1.93168e-12
1.86679e-12
1.79582e-12
1.71961e-12
1.639e-12
1.5549e-12
1.46821e-12
1.37983e-12
1.29063e-12
1.20145e-12
1.11309e-12
1.02628e-12
9.41676e-13
8.59858e-13
7.81328e-13
7.065e-13
6.35703e-13
5.69182e-13
5.07101e-13
4.49549e-13
3.96542e-13
3.48036e-13
3.03931e-13
2.64079e-13
2.28294e-13
1.96357e-13
1.6803e-13
1.43057e-13
1.21173e-13
1.02111e-13
8.56047e-14
7.13972e-14
5.92402e-14
4.88987e-14
4.01531e-14
3.28001e-14
2.66541e-14
2.15465e-14
1.73266e-14
1.38601e-14
1.10289e-14
8.72982e-15
6.8736e-15
5.3835e-15
4.19414e-15
3.25024e-15
2.50541e-15
1.921e-15
1.46509e-15
1.11142e-15
8.38636e-16
6.29425e-16
4.6988e-16
3.489e-16
2.57682e-16
1.89292e-16
1.38307e-16
1.00511e-16
7.26521e-17
5.22322e-17
3.73494e-17
2.65634e-17
1.87904e-17
1.32203e-17
9.25119e-18
6.43894e-18
4.45772e-18
3.07018e-18
2.10459e-18
1.43772e-18
9.81971e-19
6.75955e-19
4.77578e-19
3.59112e-19
3.03821e-19
2.29966e-18
2.49033e-18
2.88376e-18
3.50244e-18
4.38208e-18
5.57383e-18
7.14722e-18
9.194e-18
1.18329e-17
1.52154e-17
1.95334e-17
2.50276e-17
3.1999e-17
4.08221e-17
5.19614e-17
6.59912e-17
8.36195e-17
1.05717e-16
1.3335e-16
1.67823e-16
2.10728e-16
2.63999e-16
3.29982e-16
4.11516e-16
5.12022e-16
6.35617e-16
7.87239e-16
9.72792e-16
1.19932e-15
1.4752e-15
1.81036e-15
2.21654e-15
2.70758e-15
3.29977e-15
4.01216e-15
4.86703e-15
5.89034e-15
7.11221e-15
8.56753e-15
1.02966e-14
1.23456e-14
1.47677e-14
1.76236e-14
2.09824e-14
2.49224e-14
2.95325e-14
3.49127e-14
4.11754e-14
4.84462e-14
5.68655e-14
6.6589e-14
7.7789e-14
9.06555e-14
1.05397e-13
1.22241e-13
1.41436e-13
1.63251e-13
1.87974e-13
2.15917e-13
2.47412e-13
2.82809e-13
3.22482e-13
3.6682e-13
4.1623e-13
4.71133e-13
5.31963e-13
5.9916e-13
6.7317e-13
7.54441e-13
8.43412e-13
9.40516e-13
1.04616e-12
1.16075e-12
1.28463e-12
1.41812e-12
1.5615e-12
1.71499e-12
1.87874e-12
2.05283e-12
2.23725e-12
2.43193e-12
2.63667e-12
2.85118e-12
3.07505e-12
3.30776e-12
3.54868e-12
3.79702e-12
4.0519e-12
4.3123e-12
4.57707e-12
4.84495e-12
5.11456e-12
5.38442e-12
5.65294e-12
5.91846e-12
6.17925e-12
6.43353e-12
6.67947e-12
6.91525e-12
7.13903e-12
7.34901e-12
7.54344e-12
7.72065e-12
7.87907e-12
8.01722e-12
8.13379e-12
8.22763e-12
8.29777e-12
8.34341e-12
8.36399e-12
8.35916e-12
8.32882e-12
8.27307e-12
8.19228e-12
8.08704e-12
7.95817e-12
7.80671e-12
7.63393e-12
7.44126e-12
7.23033e-12
7.00291e-12
6.76093e-12
6.5064e-12
6.24142e-12
5.96816e-12
5.68881e-12
5.40556e-12
5.1206e-12
4.83606e-12
4.554e-12
4.27641e-12
4.00516e-12
3.74201e-12
3.48858e-12
3.24635e-12
3.01665e-12
2.80064e-12
2.59933e-12
2.41358e-12
2.24407e-12
2.09134e-12
1.95576e-12
1.83756e-12
1.73685e-12
1.65357e-12
1.58756e-12
1.53852e-12
1.50604e-12
1.48961e-12
1.4886e-12
1.50229e-12
1.52985e-12
1.57039e-12
1.62289e-12
1.68628e-12
1.7594e-12
1.84102e-12
1.92983e-12
2.02446e-12
2.1235e-12
2.22549e-12
2.32894e-12
2.43234e-12
2.53418e-12
2.63294e-12
2.72717e-12
2.81543e-12
2.89638e-12
2.96876e-12
3.03139e-12
3.08325e-12
3.12345e-12
3.15126e-12
3.16612e-12
3.16766e-12
3.15567e-12
3.13017e-12
3.09135e-12
3.03958e-12
2.97543e-12
2.89962e-12
2.81302e-12
2.71663e-12
2.61158e-12
2.49907e-12
2.38036e-12
2.25676e-12
2.12958e-12
2.00013e-12
1.86968e-12
1.73945e-12
1.61057e-12
1.4841e-12
1.36098e-12
1.24204e-12
1.12799e-12
1.01941e-12
9.16779e-13
8.20426e-13
7.30576e-13
6.47343e-13
5.70741e-13
5.00693e-13
4.37042e-13
3.79567e-13
3.27989e-13
2.81987e-13
2.41207e-13
2.05275e-13
1.73805e-13
1.46407e-13
1.22695e-13
1.02295e-13
8.48471e-14
7.00116e-14
5.74709e-14
4.69316e-14
3.81257e-14
3.08106e-14
2.4769e-14
1.98079e-14
1.57574e-14
1.24694e-14
9.81552e-15
7.68576e-15
5.98634e-15
4.63803e-15
3.57438e-15
2.74005e-15
2.08931e-15
1.58465e-15
1.19549e-15
8.97092e-16
6.69583e-16
4.97102e-16
3.67078e-16
2.69612e-16
1.96964e-16
1.4312e-16
1.03436e-16
7.43547e-17
5.3162e-17
3.78052e-17
2.67397e-17
1.88112e-17
1.31623e-17
9.16024e-18
6.34114e-18
4.36699e-18
2.99332e-18
2.04469e-18
1.39643e-18
9.61189e-19
6.79055e-19
5.10579e-19
4.31947e-19
3.87343e-18
4.19437e-18
4.85661e-18
5.89797e-18
7.37852e-18
9.38422e-18
1.2032e-17
1.54761e-17
1.99159e-17
2.56064e-17
3.28695e-17
4.211e-17
5.38332e-17
6.86681e-17
8.73947e-17
1.10977e-16
1.40603e-16
1.77732e-16
2.24155e-16
2.82059e-16
3.54111e-16
4.43554e-16
5.54317e-16
6.91153e-16
8.59793e-16
1.06712e-15
1.32141e-15
1.63252e-15
2.01222e-15
2.47452e-15
3.03599e-15
3.71624e-15
4.53836e-15
5.52949e-15
6.7214e-15
8.15119e-15
9.86207e-15
1.19042e-14
1.43355e-14
1.72229e-14
2.06432e-14
2.46846e-14
2.94476e-14
3.50467e-14
4.16116e-14
4.92891e-14
5.82445e-14
6.86632e-14
8.07525e-14
9.47433e-14
1.10892e-13
1.29481e-13
1.50824e-13
1.7526e-13
2.03164e-13
2.3494e-13
2.71027e-13
3.11896e-13
3.58052e-13
4.10034e-13
4.68413e-13
5.33788e-13
6.0679e-13
6.88072e-13
7.7831e-13
8.78196e-13
9.88434e-13
1.10973e-12
1.2428e-12
1.38832e-12
1.54697e-12
1.7194e-12
1.90621e-12
2.10794e-12
2.32506e-12
2.55799e-12
2.80702e-12
3.07235e-12
3.35407e-12
3.65211e-12
3.96627e-12
4.29619e-12
4.64133e-12
5.00097e-12
5.37421e-12
5.75995e-12
6.1569e-12
6.56356e-12
6.97823e-12
7.39902e-12
7.82386e-12
8.2505e-12
8.67652e-12
9.09938e-12
9.5164e-12
9.92479e-12
1.03217e-11
1.07043e-11
1.10696e-11
1.14149e-11
1.17371e-11
1.20338e-11
1.23022e-11
1.254e-11
1.27449e-11
1.29149e-11
1.30484e-11
1.3144e-11
1.32005e-11
1.32172e-11
1.31937e-11
1.31299e-11
1.30263e-11
1.28834e-11
1.27025e-11
1.24848e-11
1.22323e-11
1.1947e-11
1.16313e-11
1.12878e-11
1.09194e-11
1.05292e-11
1.01204e-11
9.6964e-12
9.26054e-12
8.8163e-12
8.36709e-12
7.91632e-12
7.46726e-12
7.02311e-12
6.58689e-12
6.16147e-12
5.74949e-12
5.35339e-12
4.97538e-12
4.61742e-12
4.28122e-12
3.96824e-12
3.67969e-12
3.41654e-12
3.17948e-12
2.96902e-12
2.78541e-12
2.62869e-12
2.4987e-12
2.3951e-12
2.31735e-12
2.26474e-12
2.23642e-12
2.23137e-12
2.24843e-12
2.2863e-12
2.34355e-12
2.41863e-12
2.50987e-12
2.61551e-12
2.73365e-12
2.86233e-12
2.99949e-12
3.14301e-12
3.29071e-12
3.44037e-12
3.58976e-12
3.73665e-12
3.87883e-12
4.01414e-12
4.14053e-12
4.256e-12
4.35875e-12
4.4471e-12
4.51957e-12
4.57489e-12
4.61205e-12
4.63026e-12
4.62901e-12
4.60808e-12
4.5675e-12
4.5076e-12
4.42898e-12
4.33248e-12
4.21918e-12
4.0904e-12
3.94762e-12
3.79248e-12
3.62675e-12
3.45228e-12
3.27097e-12
3.08475e-12
2.89549e-12
2.70505e-12
2.51517e-12
2.32749e-12
2.14353e-12
1.96462e-12
1.79196e-12
1.62656e-12
1.46924e-12
1.32065e-12
1.18126e-12
1.05139e-12
9.31165e-13
8.20598e-13
7.19559e-13
6.27808e-13
5.4501e-13
4.70752e-13
4.04561e-13
3.45916e-13
2.94272e-13
2.49063e-13
2.09724e-13
1.75694e-13
1.46431e-13
1.21414e-13
1.00151e-13
8.21855e-14
6.7093e-14
5.44877e-14
4.40204e-14
3.53785e-14
2.82845e-14
2.24947e-14
1.77962e-14
1.40052e-14
1.09637e-14
8.53749e-15
6.6131e-15
5.09539e-15
3.90521e-15
2.97717e-15
2.25761e-15
1.70287e-15
1.2776e-15
9.53427e-16
7.07713e-16
5.22518e-16
3.83722e-16
2.80286e-16
2.03636e-16
1.47154e-16
1.05767e-16
7.56123e-17
5.37641e-17
3.80233e-17
2.67464e-17
1.87127e-17
1.30219e-17
9.01353e-18
6.20689e-18
4.25413e-18
2.90571e-18
1.98433e-18
1.36575e-18
9.64794e-19
7.25376e-19
6.13637e-19
6.48784e-18
7.02502e-18
8.13351e-18
9.87657e-18
1.23546e-17
1.57113e-17
2.01422e-17
2.59051e-17
3.33335e-17
4.28531e-17
5.50021e-17
7.04566e-17
9.00607e-17
1.14865e-16
1.46171e-16
1.85589e-16
2.35101e-16
2.97142e-16
3.74699e-16
4.7142e-16
5.9175e-16
7.41092e-16
9.25996e-16
1.15438e-15
1.43577e-15
1.78165e-15
2.20576e-15
2.72451e-15
3.35747e-15
4.12791e-15
5.06336e-15
6.19636e-15
7.56525e-15
9.21501e-15
1.11983e-14
1.35767e-14
1.64216e-14
1.9816e-14
2.38559e-14
2.86516e-14
3.43303e-14
4.10372e-14
4.89382e-14
5.82218e-14
6.91018e-14
8.18195e-14
9.66465e-14
1.13887e-13
1.33882e-13
1.57008e-13
1.83686e-13
2.14379e-13
2.49595e-13
2.89891e-13
3.35875e-13
3.88205e-13
4.47593e-13
5.14804e-13
5.90655e-13
6.76015e-13
7.71803e-13
8.78987e-13
9.98575e-13
1.13161e-12
1.27918e-12
1.44239e-12
1.62234e-12
1.82015e-12
2.03694e-12
2.2738e-12
2.53176e-12
2.81182e-12
3.1149e-12
3.44181e-12
3.79328e-12
4.16988e-12
4.57202e-12
4.99996e-12
5.45371e-12
5.93312e-12
6.43776e-12
6.96695e-12
7.51974e-12
8.09487e-12
8.69081e-12
9.30569e-12
9.93734e-12
1.05833e-11
1.12407e-11
1.19065e-11
1.25774e-11
1.32496e-11
1.39193e-11
1.45823e-11
1.52344e-11
1.58712e-11
1.64881e-11
1.70806e-11
1.76442e-11
1.81743e-11
1.86667e-11
1.9117e-11
1.95213e-11
1.9876e-11
2.01778e-11
2.04236e-11
2.06109e-11
2.07379e-11
2.08028e-11
2.08048e-11
2.07436e-11
2.06191e-11
2.04323e-11
2.01844e-11
1.98774e-11
1.95138e-11
1.90965e-11
1.8629e-11
1.81151e-11
1.75593e-11
1.69661e-11
1.63404e-11
1.56874e-11
1.50123e-11
1.43205e-11
1.36173e-11
1.29081e-11
1.21982e-11
1.14925e-11
1.0796e-11
1.01133e-11
9.44877e-12
8.8063e-12
8.1896e-12
7.60192e-12
7.04616e-12
6.52481e-12
6.03997e-12
5.59335e-12
5.18626e-12
4.81965e-12
4.49412e-12
4.20991e-12
3.96695e-12
3.76486e-12