/*--------------------------------*- C++ -*----------------------------------*\
| =========                 |                                                 |
| \\      /  F ield         | OpenFOAM: The Open Source CFD Toolbox           |
|  \\    /   O peration     | Version:  v2012                                 |
|   \\  /    A nd           | Website:  www.openfoam.com                      |
|    \\/     M anipulation  |                                                 |
\*---------------------------------------------------------------------------*/
FoamFile
{
    version     2.0;
    format      ascii;
    class       volScalarField;
    location    "18";
    object      p;
}
// * * * * * * * * * * * * * * * * * * * * * * * * * * * * * * * * * * * * * //

dimensions      [0 2 -2 0 0 0 0];


internalField   nonuniform List<scalar> 
65536
(
1.33377e-09
-1.27364e-06
-3.83399e-06
-7.68662e-06
-1.28329e-05
-1.92718e-05
-2.70028e-05
-3.60265e-05
-4.63436e-05
-5.79551e-05
-7.08621e-05
-8.50658e-05
-0.000100567
-0.000117368
-0.00013547
-0.000154875
-0.000175584
-0.000197599
-0.000220922
-0.000245554
-0.000271498
-0.000298756
-0.000327329
-0.000357219
-0.000388427
-0.000420956
-0.000454808
-0.000489982
-0.000526482
-0.000564308
-0.000603461
-0.000643942
-0.000685752
-0.00072889
-0.000773357
-0.000819152
-0.000866275
-0.000914724
-0.000964499
-0.0010156
-0.00106801
-0.00112175
-0.00117679
-0.00123315
-0.00129081
-0.00134977
-0.00141002
-0.00147155
-0.00153435
-0.00159842
-0.00166375
-0.00173032
-0.00179811
-0.00186713
-0.00193734
-0.00200874
-0.0020813
-0.00215501
-0.00222984
-0.00230578
-0.00238279
-0.00246085
-0.00253994
-0.00262001
-0.00270105
-0.00278301
-0.00286586
-0.00294956
-0.00303407
-0.00311934
-0.00320534
-0.003292
-0.00337929
-0.00346715
-0.00355552
-0.00364434
-0.00373356
-0.00382311
-0.00391292
-0.00400292
-0.00409305
-0.00418322
-0.00427336
-0.00436339
-0.00445323
-0.00454279
-0.00463198
-0.00472072
-0.0048089
-0.00489644
-0.00498324
-0.0050692
-0.00515421
-0.00523818
-0.00532099
-0.00540255
-0.00548274
-0.00556146
-0.00563859
-0.00571403
-0.00578766
-0.00585937
-0.00592905
-0.0059966
-0.00606189
-0.00612483
-0.0061853
-0.00624319
-0.00629841
-0.00635085
-0.0064004
-0.00644697
-0.00649047
-0.0065308
-0.00656788
-0.00660163
-0.00663195
-0.00665879
-0.00668206
-0.00670171
-0.00671767
-0.00672989
-0.00673832
-0.00674293
-0.00674366
-0.00674049
-0.00673341
-0.00672239
-0.00670741
-0.00668849
-0.00666562
-0.0066388
-0.00660807
-0.00657344
-0.00653494
-0.0064926
-0.00644648
-0.00639662
-0.00634307
-0.0062859
-0.00622518
-0.00616097
-0.00609336
-0.00602243
-0.00594827
-0.00587097
-0.00579062
-0.00570734
-0.00562122
-0.00553237
-0.0054409
-0.00534693
-0.00525057
-0.00515194
-0.00505117
-0.00494836
-0.00484364
-0.00473714
-0.00462898
-0.00451928
-0.00440816
-0.00429576
-0.00418218
-0.00406755
-0.00395199
-0.00383562
-0.00371856
-0.00360091
-0.0034828
-0.00336433
-0.00324561
-0.00312674
-0.00300784
-0.00288899
-0.0027703
-0.00265186
-0.00253376
-0.00241609
-0.00229894
-0.00218238
-0.0020665
-0.00195136
-0.00183705
-0.00172363
-0.00161117
-0.00149972
-0.00138935
-0.00128012
-0.00117208
-0.00106527
-0.000959742
-0.000855545
-0.000752717
-0.000651298
-0.000551321
-0.000452822
-0.000355829
-0.000260372
-0.000166476
-7.41643e-05
1.65417e-05
0.000105623
0.000193062
0.000278844
0.000362955
0.000445385
0.000526123
0.00060516
0.000682491
0.000758109
0.00083201
0.000904193
0.000974655
0.00104339
0.00111041
0.00117571
0.0012393
0.00130117
0.00136132
0.00141978
0.00147653
0.00153159
0.00158495
0.00163664
0.00168665
0.00173499
0.00178167
0.00182669
0.00187007
0.00191181
0.00195192
0.00199041
0.00202729
0.00206256
0.00209623
0.00212831
0.00215881
0.00218773
0.00221509
0.00224088
0.00226512
0.00228781
0.00230896
0.00232858
0.00234666
0.00236322
0.00237825
0.00239177
0.00240378
0.00241428
0.00242327
0.00243076
0.00243675
0.00244124
0.00244424
0.00244573
-2.16691e-06
-3.44451e-06
-6.00973e-06
-9.86599e-06
-1.50144e-05
-2.14549e-05
-2.91877e-05
-3.82134e-05
-4.85326e-05
-6.01463e-05
-7.30557e-05
-8.7262e-05
-0.000102766
-0.00011957
-0.000137676
-0.000157084
-0.000177797
-0.000199816
-0.000223143
-0.00024778
-0.000273728
-0.000300991
-0.000329569
-0.000359464
-0.000390678
-0.000423213
-0.00045707
-0.000492252
-0.000528758
-0.000566591
-0.000605751
-0.000646239
-0.000688056
-0.000731202
-0.000775677
-0.000821481
-0.000868612
-0.000917071
-0.000966854
-0.00101796
-0.00107039
-0.00112413
-0.00117919
-0.00123555
-0.00129323
-0.00135219
-0.00141245
-0.001474
-0.00153681
-0.0016009
-0.00166623
-0.00173281
-0.00180063
-0.00186965
-0.00193988
-0.00201129
-0.00208387
-0.00215759
-0.00223244
-0.00230839
-0.00238542
-0.0024635
-0.0025426
-0.00262269
-0.00270374
-0.00278572
-0.00286859
-0.00295231
-0.00303683
-0.00312213
-0.00320814
-0.00329483
-0.00338214
-0.00347002
-0.00355841
-0.00364726
-0.0037365
-0.00382606
-0.0039159
-0.00400592
-0.00409607
-0.00418627
-0.00427644
-0.00436649
-0.00445636
-0.00454594
-0.00463516
-0.00472392
-0.00481214
-0.0048997
-0.00498653
-0.00507251
-0.00515755
-0.00524155
-0.00532439
-0.00540598
-0.00548619
-0.00556494
-0.0056421
-0.00571756
-0.00579122
-0.00586296
-0.00593267
-0.00600024
-0.00606556
-0.00612852
-0.00618901
-0.00624693
-0.00630217
-0.00635463
-0.0064042
-0.0064508
-0.00649431
-0.00653466
-0.00657176
-0.00660552
-0.00663586
-0.00666271
-0.00668599
-0.00670565
-0.00672162
-0.00673385
-0.00674228
-0.00674689
-0.00674762
-0.00674446
-0.00673737
-0.00672634
-0.00671136
-0.00669243
-0.00666955
-0.00664273
-0.00661198
-0.00657734
-0.00653882
-0.00649647
-0.00645032
-0.00640044
-0.00634687
-0.00628968
-0.00622893
-0.0061647
-0.00609706
-0.0060261
-0.00595191
-0.00587458
-0.0057942
-0.00571089
-0.00562473
-0.00553585
-0.00544435
-0.00535035
-0.00525395
-0.00515529
-0.00505447
-0.00495163
-0.00484688
-0.00474034
-0.00463215
-0.00452241
-0.00441126
-0.00429882
-0.00418521
-0.00407055
-0.00395496
-0.00383856
-0.00372146
-0.00360378
-0.00348564
-0.00336714
-0.00324839
-0.0031295
-0.00301057
-0.00289169
-0.00277298
-0.00265452
-0.00253639
-0.0024187
-0.00230153
-0.00218495
-0.00206905
-0.0019539
-0.00183957
-0.00172613
-0.00161365
-0.00150219
-0.00139181
-0.00128256
-0.0011745
-0.00106768
-0.000962149
-0.000857942
-0.000755105
-0.000653676
-0.000553692
-0.000455185
-0.000358186
-0.000262723
-0.000168821
-7.65043e-05
1.4206e-05
0.000103291
0.000190734
0.000276519
0.000360633
0.000443065
0.000523804
0.000602843
0.000680175
0.000755794
0.000829696
0.000901879
0.000972341
0.00104108
0.0011081
0.0011734
0.00123698
0.00129885
0.00135901
0.00141746
0.00147421
0.00152926
0.00158263
0.00163431
0.00168432
0.00173266
0.00177934
0.00182436
0.00186774
0.00190948
0.00194959
0.00198808
0.00202495
0.00206022
0.00209389
0.00212597
0.00215646
0.00218539
0.00221274
0.00223853
0.00226277
0.00228546
0.00230661
0.00232622
0.0023443
0.00236086
0.00237589
0.00238941
0.00240142
0.00241192
0.00242091
0.0024284
0.00243439
0.00243888
0.00244187
0.00244337
-6.51584e-06
-7.79822e-06
-1.03697e-05
-1.42307e-05
-1.93828e-05
-2.58266e-05
-3.35627e-05
-4.25921e-05
-5.29154e-05
-6.45335e-05
-7.74477e-05
-9.16592e-05
-0.000107169
-0.00012398
-0.000142092
-0.000161507
-0.000182227
-0.000204254
-0.000227589
-0.000252235
-0.000278194
-0.000305466
-0.000334054
-0.00036396
-0.000395186
-0.000427732
-0.000461602
-0.000496796
-0.000533315
-0.000571162
-0.000610336
-0.000650839
-0.000692671
-0.000735833
-0.000780324
-0.000826144
-0.000873293
-0.000921769
-0.00097157
-0.0010227
-0.00107514
-0.0011289
-0.00118398
-0.00124037
-0.00129806
-0.00135705
-0.00141733
-0.0014789
-0.00154174
-0.00160585
-0.00167121
-0.00173782
-0.00180565
-0.00187471
-0.00194496
-0.0020164
-0.00208901
-0.00216276
-0.00223764
-0.00231362
-0.00239068
-0.00246879
-0.00254792
-0.00262805
-0.00270914
-0.00279115
-0.00287406
-0.00295781
-0.00304238
-0.00312771
-0.00321376
-0.00330049
-0.00338784
-0.00347576
-0.0035642
-0.00365309
-0.00374237
-0.00383199
-0.00392187
-0.00401194
-0.00410214
-0.00419238
-0.0042826
-0.00437271
-0.00446262
-0.00455226
-0.00464153
-0.00473035
-0.00481861
-0.00490624
-0.00499312
-0.00507915
-0.00516425
-0.0052483
-0.0053312
-0.00541284
-0.00549311
-0.00557191
-0.00564913
-0.00572464
-0.00579836
-0.00587015
-0.00593991
-0.00600753
-0.00607291
-0.00613592
-0.00619646
-0.00625442
-0.00630971
-0.00636221
-0.00641183
-0.00645846
-0.00650201
-0.0065424
-0.00657953
-0.00661332
-0.00664369
-0.00667056
-0.00669387
-0.00671355
-0.00672953
-0.00674177
-0.00675022
-0.00675483
-0.00675556
-0.0067524
-0.00674531
-0.00673427
-0.00671928
-0.00670034
-0.00667744
-0.00665059
-0.00661982
-0.00658515
-0.0065466
-0.00650421
-0.00645803
-0.00640811
-0.00635449
-0.00629725
-0.00623645
-0.00617217
-0.00610448
-0.00603346
-0.00595921
-0.00588182
-0.00580138
-0.005718
-0.00563178
-0.00554283
-0.00545126
-0.00535719
-0.00526072
-0.00516199
-0.00506111
-0.00495819
-0.00485337
-0.00474677
-0.0046385
-0.00452869
-0.00441748
-0.00430497
-0.00419129
-0.00407656
-0.0039609
-0.00384444
-0.00372728
-0.00360954
-0.00349134
-0.00337278
-0.00325397
-0.00313503
-0.00301604
-0.00289712
-0.00277835
-0.00265984
-0.00254167
-0.00242394
-0.00230672
-0.0021901
-0.00207416
-0.00195897
-0.00184461
-0.00173114
-0.00161863
-0.00150714
-0.00139673
-0.00128745
-0.00117937
-0.00107253
-0.00096697
-0.000862743
-0.000759887
-0.000658441
-0.000558441
-0.000459919
-0.000362907
-0.000267431
-0.000173518
-8.11915e-05
9.52787e-06
9.86209e-05
0.000186071
0.000271862
0.000355981
0.000438418
0.000519161
0.000598203
0.000675537
0.000751158
0.000825061
0.000897245
0.000967707
0.00103645
0.00110346
0.00116876
0.00123234
0.00129421
0.00135436
0.00141281
0.00146956
0.00152461
0.00157798
0.00162966
0.00167966
0.001728
0.00177467
0.00181969
0.00186307
0.0019048
0.00194491
0.00198339
0.00202026
0.00205553
0.0020892
0.00212127
0.00215177
0.00218068
0.00220804
0.00223382
0.00225806
0.00228075
0.00230189
0.0023215
0.00233958
0.00235614
0.00237117
0.00238469
0.00239669
0.00240719
0.00241618
0.00242367
0.00242966
0.00243415
0.00243714
0.00243864
-1.30492e-05
-1.43351e-05
-1.69112e-05
-2.07767e-05
-2.59333e-05
-3.23817e-05
-4.01228e-05
-4.91575e-05
-5.94868e-05
-7.11116e-05
-8.4033e-05
-9.82524e-05
-0.000113771
-0.000130591
-0.000148713
-0.000168138
-0.00018887
-0.000210909
-0.000234257
-0.000258916
-0.000284889
-0.000312176
-0.00034078
-0.000370702
-0.000401944
-0.000434509
-0.000468397
-0.00050361
-0.000540149
-0.000578016
-0.000617212
-0.000657737
-0.000699592
-0.000742777
-0.000787292
-0.000833138
-0.000880312
-0.000928814
-0.000978643
-0.0010298
-0.00108227
-0.00113606
-0.00119117
-0.00124759
-0.00130532
-0.00136434
-0.00142465
-0.00148625
-0.00154913
-0.00161328
-0.00167868
-0.00174532
-0.0018132
-0.00188229
-0.00195259
-0.00202407
-0.00209672
-0.00217052
-0.00224544
-0.00232147
-0.00239857
-0.00247673
-0.00255592
-0.00263609
-0.00271723
-0.0027993
-0.00288226
-0.00296607
-0.00305069
-0.00313609
-0.0032222
-0.00330899
-0.0033964
-0.00348439
-0.00357289
-0.00366184
-0.00375119
-0.00384088
-0.00393083
-0.00402097
-0.00411124
-0.00420156
-0.00429185
-0.00438204
-0.00447203
-0.00456174
-0.00465109
-0.00473999
-0.00482834
-0.00491604
-0.005003
-0.00508912
-0.0051743
-0.00525844
-0.00534142
-0.00542314
-0.0055035
-0.00558238
-0.00565968
-0.00573528
-0.00580907
-0.00588095
-0.00595079
-0.00601849
-0.00608394
-0.00614702
-0.00620764
-0.00626567
-0.00632103
-0.00637359
-0.00642327
-0.00646997
-0.00651358
-0.00655402
-0.0065912
-0.00662503
-0.00665544
-0.00668236
-0.0067057
-0.0067254
-0.00674141
-0.00675367
-0.00676213
-0.00676675
-0.00676749
-0.00676433
-0.00675723
-0.00674618
-0.00673118
-0.00671221
-0.00668928
-0.00666241
-0.0066316
-0.00659688
-0.00655828
-0.00651584
-0.0064696
-0.00641962
-0.00636594
-0.00630863
-0.00624775
-0.00618339
-0.00611561
-0.00604451
-0.00597017
-0.00589269
-0.00581216
-0.00572868
-0.00564236
-0.00555331
-0.00546164
-0.00536746
-0.00527089
-0.00517205
-0.00507106
-0.00496804
-0.00486312
-0.0047564
-0.00464803
-0.00453812
-0.0044268
-0.00431419
-0.00420041
-0.00408558
-0.00396983
-0.00385326
-0.00373601
-0.00361818
-0.00349989
-0.00338124
-0.00326235
-0.00314332
-0.00302426
-0.00290526
-0.00278642
-0.00266783
-0.0025496
-0.00243179
-0.00231451
-0.00219783
-0.00208183
-0.00196659
-0.00185217
-0.00173865
-0.00162609
-0.00151456
-0.00140411
-0.00129479
-0.00118667
-0.00107979
-0.000974204
-0.000869947
-0.000767063
-0.000665591
-0.000565566
-0.000467022
-0.000369989
-0.000274495
-0.000180565
-8.82236e-05
2.50937e-06
9.16145e-05
0.000179075
0.000264875
0.000349003
0.000431446
0.000512195
0.000591242
0.00066858
0.000744203
0.000818109
0.000890293
0.000960755
0.0010295
0.00109651
0.00116181
0.00122539
0.00128725
0.0013474
0.00140585
0.00146259
0.00151764
0.001571
0.00162268
0.00167268
0.00172101
0.00176768
0.00181269
0.00185606
0.00189779
0.00193789
0.00197637
0.00201324
0.0020485
0.00208216
0.00211423
0.00214472
0.00217363
0.00220098
0.00222677
0.002251
0.00227368
0.00229482
0.00231443
0.0023325
0.00234906
0.00236409
0.0023776
0.00238961
0.0024001
0.00240909
0.00241658
0.00242256
0.00242705
0.00243005
0.00243154
-2.17663e-05
-2.30541e-05
-2.56338e-05
-2.95037e-05
-3.46653e-05
-4.11194e-05
-4.88669e-05
-5.79088e-05
-6.8246e-05
-7.98796e-05
-9.28107e-05
-0.000107041
-0.000122571
-0.000139403
-0.000157538
-0.000176978
-0.000197724
-0.000219779
-0.000243145
-0.000267822
-0.000293813
-0.00032112
-0.000349745
-0.000379689
-0.000410954
-0.000443542
-0.000477455
-0.000512693
-0.000549259
-0.000587154
-0.000626378
-0.000666933
-0.000708818
-0.000752035
-0.000796583
-0.000842461
-0.00088967
-0.000938208
-0.000988074
-0.00103926
-0.00109178
-0.00114561
-0.00120076
-0.00125722
-0.00131499
-0.00137406
-0.00143442
-0.00149606
-0.00155899
-0.00162318
-0.00168863
-0.00175533
-0.00182326
-0.0018924
-0.00196276
-0.0020343
-0.002107
-0.00218086
-0.00225584
-0.00233193
-0.00240911
-0.00248733
-0.00256658
-0.00264683
-0.00272804
-0.00281017
-0.00289321
-0.00297709
-0.00306179
-0.00314726
-0.00323346
-0.00332033
-0.00340782
-0.00349589
-0.00358448
-0.00367353
-0.00376297
-0.00385274
-0.00394279
-0.00403303
-0.0041234
-0.00421381
-0.0043042
-0.00439449
-0.00448458
-0.0045744
-0.00466386
-0.00475286
-0.00484132
-0.00492913
-0.0050162
-0.00510243
-0.00518773
-0.00527197
-0.00535506
-0.0054369
-0.00551737
-0.00559636
-0.00567377
-0.00574948
-0.00582338
-0.00589536
-0.00596531
-0.00603312
-0.00609867
-0.00616185
-0.00622257
-0.0062807
-0.00633614
-0.0063888
-0.00643856
-0.00648534
-0.00652902
-0.00656954
-0.00660678
-0.00664068
-0.00667115
-0.00669811
-0.0067215
-0.00674124
-0.00675728
-0.00676957
-0.00677805
-0.00678268
-0.00678343
-0.00678026
-0.00677316
-0.0067621
-0.00674707
-0.00672807
-0.00670511
-0.00667819
-0.00664733
-0.00661255
-0.00657389
-0.00653138
-0.00648507
-0.006435
-0.00638123
-0.00632382
-0.00626285
-0.00619838
-0.00613049
-0.00605928
-0.00598482
-0.00590721
-0.00582655
-0.00574294
-0.00565649
-0.00556731
-0.0054755
-0.00538118
-0.00528448
-0.0051855
-0.00508436
-0.0049812
-0.00487613
-0.00476928
-0.00466077
-0.00455072
-0.00443926
-0.00432651
-0.00421259
-0.00409763
-0.00398174
-0.00386505
-0.00374767
-0.00362972
-0.00351131
-0.00339254
-0.00327354
-0.0031544
-0.00303523
-0.00291612
-0.00279718
-0.0026785
-0.00256017
-0.00244228
-0.00232491
-0.00220815
-0.00209207
-0.00197675
-0.00186227
-0.00174868
-0.00163606
-0.00152446
-0.00141395
-0.00130459
-0.00119642
-0.00108949
-0.000983858
-0.000879559
-0.000776637
-0.00067513
-0.000575073
-0.000476499
-0.000379439
-0.000283919
-0.000189967
-9.76048e-05
-6.85337e-06
8.22682e-05
0.000169743
0.000255556
0.000339695
0.000422147
0.000502904
0.000581957
0.0006593
0.000734928
0.000808836
0.000881022
0.000951485
0.00102022
0.00108724
0.00115254
0.00121611
0.00127797
0.00133812
0.00139656
0.0014533
0.00150834
0.0015617
0.00161337
0.00166336
0.00171168
0.00175835
0.00180335
0.00184672
0.00188844
0.00192854
0.00196701
0.00200387
0.00203912
0.00207278
0.00210484
0.00213532
0.00216423
0.00219157
0.00221735
0.00224158
0.00226426
0.00228539
0.002305
0.00232307
0.00233962
0.00235464
0.00236815
0.00238016
0.00239065
0.00239964
0.00240712
0.00241311
0.00241759
0.00242059
0.00242208
-3.26627e-05
-3.39523e-05
-3.65353e-05
-4.04098e-05
-4.5577e-05
-5.20379e-05
-5.97932e-05
-6.88439e-05
-7.91909e-05
-9.08355e-05
-0.000103779
-0.000118022
-0.000133566
-0.000150414
-0.000168566
-0.000188023
-0.000208789
-0.000230864
-0.000254251
-0.000278951
-0.000304966
-0.000332298
-0.000360948
-0.00039092
-0.000422213
-0.000454831
-0.000488775
-0.000524046
-0.000560645
-0.000598574
-0.000637834
-0.000678426
-0.00072035
-0.000763606
-0.000808195
-0.000854115
-0.000901368
-0.000949951
-0.000999862
-0.0010511
-0.00110366
-0.00115755
-0.00121275
-0.00126926
-0.00132708
-0.0013862
-0.00144662
-0.00150833
-0.00157131
-0.00163557
-0.00170108
-0.00176784
-0.00183584
-0.00190505
-0.00197547
-0.00204708
-0.00211987
-0.0021938
-0.00226886
-0.00234503
-0.00242228
-0.00250058
-0.00257992
-0.00266025
-0.00274155
-0.00282378
-0.0029069
-0.00299088
-0.00307568
-0.00316125
-0.00324754
-0.00333451
-0.00342212
-0.00351029
-0.00359899
-0.00368815
-0.0037777
-0.00386759
-0.00395776
-0.00404812
-0.00413861
-0.00422915
-0.00431967
-0.00441008
-0.0045003
-0.00459025
-0.00467984
-0.00476898
-0.00485757
-0.00494552
-0.00503273
-0.0051191
-0.00520453
-0.00528892
-0.00537215
-0.00545413
-0.00553474
-0.00561387
-0.00569142
-0.00576727
-0.00584131
-0.00591342
-0.00598351
-0.00605144
-0.00611712
-0.00618044
-0.00624127
-0.00629952
-0.00635508
-0.00640785
-0.00645772
-0.00650459
-0.00654838
-0.00658898
-0.00662631
-0.00666029
-0.00669083
-0.00671785
-0.00674129
-0.00676109
-0.00677717
-0.00678949
-0.006798
-0.00680265
-0.0068034
-0.00680023
-0.00679312
-0.00678204
-0.00676698
-0.00674795
-0.00672494
-0.00669796
-0.00666704
-0.00663219
-0.00659345
-0.00655085
-0.00650444
-0.00645427
-0.00640039
-0.00634286
-0.00628176
-0.00621716
-0.00614914
-0.00607778
-0.00600317
-0.00592541
-0.00584459
-0.00576082
-0.0056742
-0.00558485
-0.00549287
-0.00539838
-0.00530149
-0.00520234
-0.00510103
-0.00499769
-0.00489244
-0.00478541
-0.00467672
-0.00456649
-0.00445486
-0.00434193
-0.00422785
-0.00411272
-0.00399667
-0.00387982
-0.00376228
-0.00364417
-0.0035256
-0.00340669
-0.00328755
-0.00316827
-0.00304896
-0.00292972
-0.00281066
-0.00269186
-0.00257341
-0.00245541
-0.00233793
-0.00222107
-0.00210489
-0.00198948
-0.0018749
-0.00176123
-0.00164853
-0.00153686
-0.00142628
-0.00131685
-0.00120861
-0.00110163
-0.000995937
-0.000891587
-0.000788617
-0.000687065
-0.000586967
-0.000488355
-0.00039126
-0.000295709
-0.000201728
-0.00010934
-1.8565e-05
7.05774e-05
0.000158071
0.0002439
0.000328053
0.000410517
0.000491284
0.000570346
0.000647696
0.000723328
0.00079724
0.000869429
0.000939893
0.00100863
0.00107565
0.00114094
0.00120451
0.00126637
0.00132651
0.00138495
0.00144168
0.00149672
0.00155007
0.00160173
0.00165171
0.00170003
0.00174668
0.00179169
0.00183504
0.00187676
0.00191684
0.00195531
0.00199216
0.0020274
0.00206105
0.00209311
0.00212358
0.00215248
0.00217982
0.00220559
0.00222981
0.00225248
0.00227361
0.00229321
0.00231127
0.00232782
0.00234284
0.00235635
0.00236834
0.00237883
0.00238782
0.0023953
0.00240129
0.00240577
0.00240876
0.00241026
-4.57346e-05
-4.7026e-05
-4.96126e-05
-5.34922e-05
-5.86657e-05
-6.51344e-05
-7.28988e-05
-8.196e-05
-9.23188e-05
-0.000103976
-0.000116934
-0.000131193
-0.000146755
-0.000163621
-0.000181793
-0.000201273
-0.000222061
-0.000244161
-0.000267573
-0.0002923
-0.000318344
-0.000345706
-0.000374388
-0.000404392
-0.000435721
-0.000468374
-0.000502355
-0.000537665
-0.000574305
-0.000612276
-0.000651579
-0.000692215
-0.000734185
-0.00077749
-0.000822128
-0.0008681
-0.000915404
-0.000964041
-0.00101401
-0.0010653
-0.00111792
-0.00117187
-0.00122713
-0.00128371
-0.0013416
-0.00140079
-0.00146127
-0.00152305
-0.00158611
-0.00165044
-0.00171602
-0.00178286
-0.00185094
-0.00192024
-0.00199074
-0.00206244
-0.00213531
-0.00220933
-0.00228449
-0.00236075
-0.0024381
-0.0025165
-0.00259594
-0.00267637
-0.00275778
-0.00284012
-0.00292335
-0.00300745
-0.00309236
-0.00317805
-0.00326446
-0.00335156
-0.00343929
-0.0035276
-0.00361643
-0.00370572
-0.00379541
-0.00388544
-0.00397575
-0.00406625
-0.00415689
-0.00424758
-0.00433825
-0.00442882
-0.0045192
-0.00460931
-0.00469906
-0.00478836
-0.00487712
-0.00496523
-0.00505261
-0.00513915
-0.00522475
-0.0053093
-0.00539271
-0.00547485
-0.00555563
-0.00563493
-0.00571265
-0.00578867
-0.00586287
-0.00593515
-0.0060054
-0.00607349
-0.00613933
-0.00620279
-0.00626378
-0.00632217
-0.00637787
-0.00643077
-0.00648077
-0.00652777
-0.00657167
-0.00661238
-0.00664982
-0.00668389
-0.00671451
-0.00674161
-0.00676512
-0.00678498
-0.00680111
-0.00681347
-0.00682201
-0.00682668
-0.00682744
-0.00682427
-0.00681715
-0.00680604
-0.00679095
-0.00677188
-0.00674881
-0.00672177
-0.00669077
-0.00665584
-0.006617
-0.0065743
-0.00652777
-0.00647747
-0.00642345
-0.00636578
-0.00630453
-0.00623977
-0.00617158
-0.00610005
-0.00602526
-0.00594731
-0.0058663
-0.00578233
-0.00569552
-0.00560596
-0.00551377
-0.00541907
-0.00532197
-0.0052226
-0.00512108
-0.00501752
-0.00491206
-0.00480481
-0.00469591
-0.00458547
-0.00447362
-0.00436049
-0.0042462
-0.00413087
-0.00401462
-0.00389757
-0.00377984
-0.00366155
-0.0035428
-0.00342371
-0.00330439
-0.00318494
-0.00306547
-0.00294608
-0.00282686
-0.00270791
-0.00258933
-0.00247119
-0.00235358
-0.00223659
-0.0021203
-0.00200478
-0.00189009
-0.00177632
-0.00166352
-0.00155176
-0.00144109
-0.00133157
-0.00122326
-0.00111621
-0.00101045
-0.000906037
-0.000803009
-0.000701403
-0.000601255
-0.000502597
-0.00040546
-0.000309871
-0.000215854
-0.000123434
-3.26308e-05
5.65372e-05
0.000144053
0.000229903
0.000314073
0.000396552
0.000477332
0.000556404
0.000633762
0.000709401
0.000783318
0.00085551
0.000925976
0.000994715
0.00106173
0.00112702
0.00119059
0.00125244
0.00131258
0.00137101
0.00142774
0.00148277
0.00153611
0.00158776
0.00163774
0.00168604
0.00173269
0.00177768
0.00182102
0.00186273
0.00190281
0.00194126
0.0019781
0.00201334
0.00204698
0.00207903
0.00210949
0.00213838
0.00216571
0.00219147
0.00221568
0.00223835
0.00225947
0.00227906
0.00229712
0.00231366
0.00232868
0.00234218
0.00235417
0.00236466
0.00237364
0.00238112
0.0023871
0.00239159
0.00239458
0.00239607
-6.09781e-05
-6.22715e-05
-6.48618e-05
-6.8747e-05
-7.39278e-05
-8.04053e-05
-8.81803e-05
-9.72535e-05
-0.000107626
-0.000119299
-0.000132274
-0.000146552
-0.000162134
-0.000179022
-0.000197217
-0.000216722
-0.000237538
-0.000259666
-0.000283108
-0.000307867
-0.000333945
-0.000361342
-0.000390061
-0.000420105
-0.000451473
-0.000484169
-0.000518194
-0.000553549
-0.000590237
-0.000628257
-0.000667611
-0.0007083
-0.000750325
-0.000793685
-0.000838381
-0.000884413
-0.000931779
-0.00098048
-0.00103051
-0.00108187
-0.00113457
-0.00118858
-0.00124392
-0.00130057
-0.00135853
-0.0014178
-0.00147837
-0.00154023
-0.00160337
-0.00166779
-0.00173347
-0.0018004
-0.00186857
-0.00193796
-0.00200857
-0.00208037
-0.00215334
-0.00222747
-0.00230273
-0.00237911
-0.00245657
-0.00253509
-0.00261465
-0.00269521
-0.00277674
-0.0028592
-0.00294257
-0.0030268
-0.00311185
-0.00319768
-0.00328424
-0.00337148
-0.00345936
-0.00354782
-0.0036368
-0.00372625
-0.00381611
-0.0039063
-0.00399677
-0.00408745
-0.00417826
-0.00426913
-0.00435998
-0.00445073
-0.0045413
-0.00463159
-0.00472153
-0.00481102
-0.00489997
-0.00498828
-0.00507586
-0.00516259
-0.00524839
-0.00533314
-0.00541675
-0.0054991
-0.00558008
-0.00565958
-0.00573749
-0.0058137
-0.0058881
-0.00596058
-0.00603101
-0.0060993
-0.00616532
-0.00622896
-0.00629012
-0.00634868
-0.00640455
-0.00645761
-0.00650776
-0.0065549
-0.00659894
-0.00663978
-0.00667733
-0.00671151
-0.00674224
-0.00676943
-0.00679303
-0.00681295
-0.00682914
-0.00684155
-0.00685012
-0.00685481
-0.00685559
-0.00685242
-0.00684528
-0.00683415
-0.00681903
-0.0067999
-0.00677677
-0.00674965
-0.00671856
-0.00668353
-0.00664458
-0.00660175
-0.00655508
-0.00650463
-0.00645046
-0.00639262
-0.00633119
-0.00626624
-0.00619786
-0.00612612
-0.00605112
-0.00597295
-0.00589172
-0.00580752
-0.00572047
-0.00563067
-0.00553823
-0.00544329
-0.00534594
-0.00524632
-0.00514454
-0.00504073
-0.00493502
-0.00482752
-0.00471836
-0.00460768
-0.00449558
-0.00438221
-0.00426767
-0.00415211
-0.00403562
-0.00391834
-0.00380039
-0.00368187
-0.00356291
-0.00344361
-0.00332409
-0.00320444
-0.00308478
-0.00296521
-0.00284581
-0.00272669
-0.00260794
-0.00248964
-0.00237188
-0.00225475
-0.00213831
-0.00202265
-0.00190784
-0.00179395
-0.00168103
-0.00156916
-0.0014584
-0.00134878
-0.00124038
-0.00113324
-0.00102741
-0.000922919
-0.000819822
-0.000718153
-0.000617946
-0.000519233
-0.000422046
-0.000326411
-0.000232353
-0.000139895
-4.90572e-05
4.01414e-05
0.000127685
0.000213558
0.000297749
0.000380247
0.000461042
0.000540127
0.000617496
0.000693143
0.000767066
0.000839262
0.000909731
0.000978471
0.00104548
0.00111077
0.00117434
0.00123619
0.00129632
0.00135474
0.00141146
0.00146649
0.00151981
0.00157146
0.00162143
0.00166972
0.00171636
0.00176134
0.00180467
0.00184637
0.00188644
0.00192488
0.00196171
0.00199693
0.00203056
0.0020626
0.00209305
0.00212194
0.00214925
0.00217501
0.00219921
0.00222187
0.00224298
0.00226257
0.00228062
0.00229715
0.00231216
0.00232566
0.00233765
0.00234813
0.00235711
0.00236458
0.00237056
0.00237504
0.00237803
0.00237953
-7.83888e-05
-7.96843e-05
-8.22787e-05
-8.617e-05
-9.13591e-05
-9.78466e-05
-0.000105633
-0.000114721
-0.000125109
-0.0001368
-0.000149794
-0.000164093
-0.000179699
-0.000196612
-0.000214834
-0.000234368
-0.000255215
-0.000277376
-0.000300853
-0.000325649
-0.000351765
-0.000379204
-0.000407966
-0.000438053
-0.000469469
-0.000502213
-0.000536289
-0.000571697
-0.000608439
-0.000646516
-0.000685928
-0.000726678
-0.000768766
-0.000812191
-0.000856954
-0.000903055
-0.000950493
-0.000999266
-0.00104937
-0.00110081
-0.00115358
-0.00120768
-0.0012631
-0.00131984
-0.00137789
-0.00143725
-0.00149792
-0.00155987
-0.00162311
-0.00168763
-0.00175342
-0.00182045
-0.00188873
-0.00195824
-0.00202896
-0.00210087
-0.00217397
-0.00224822
-0.00232361
-0.00240011
-0.0024777
-0.00255636
-0.00263606
-0.00271676
-0.00279843
-0.00288105
-0.00296456
-0.00304895
-0.00313416
-0.00322014
-0.00330687
-0.00339428
-0.00348233
-0.00357097
-0.00366013
-0.00374977
-0.00383981
-0.00393019
-0.00402086
-0.00411173
-0.00420275
-0.00429382
-0.00438487
-0.00447583
-0.00456661
-0.00465712
-0.00474728
-0.00483699
-0.00492617
-0.0050147
-0.0051025
-0.00518947
-0.00527549
-0.00536048
-0.00544431
-0.00552689
-0.0056081
-0.00568783
-0.00576598
-0.00584242
-0.00591704
-0.00598974
-0.00606039
-0.00612889
-0.00619512
-0.00625897
-0.00632034
-0.0063791
-0.00643515
-0.00648839
-0.00653872
-0.00658603
-0.00663022
-0.00667121
-0.00670891
-0.00674321
-0.00677406
-0.00680136
-0.00682505
-0.00684505
-0.00686131
-0.00687378
-0.00688239
-0.00688711
-0.0068879
-0.00688473
-0.00687758
-0.00686642
-0.00685125
-0.00683206
-0.00680886
-0.00678165
-0.00675046
-0.00671531
-0.00667623
-0.00663325
-0.00658643
-0.00653581
-0.00648146
-0.00642343
-0.00636179
-0.00629663
-0.00622801
-0.00615604
-0.0060808
-0.00600238
-0.00592088
-0.00583642
-0.00574909
-0.00565902
-0.00556631
-0.00547107
-0.00537344
-0.00527353
-0.00517146
-0.00506736
-0.00496135
-0.00485356
-0.00474412
-0.00463314
-0.00452077
-0.00440711
-0.0042923
-0.00417645
-0.0040597
-0.00394216
-0.00382394
-0.00370518
-0.00358597
-0.00346643
-0.00334667
-0.0032268
-0.00310691
-0.00298712
-0.00286752
-0.0027482
-0.00262926
-0.00251078
-0.00239284
-0.00227554
-0.00215894
-0.00204313
-0.00192817
-0.00181414
-0.00170109
-0.0015891
-0.00147821
-0.00136849
-0.00125999
-0.00115275
-0.00104682
-0.000942245
-0.000839068
-0.000737324
-0.000637048
-0.000538273
-0.000441027
-0.000345338
-0.000251232
-0.000158729
-6.78518e-05
2.13827e-05
0.000108958
0.00019486
0.000279076
0.000361595
0.000442409
0.00052151
0.000598891
0.000674549
0.00074848
0.000820682
0.000891154
0.000959896
0.00102691
0.0010922
0.00115576
0.0012176
0.00127773
0.00133615
0.00139286
0.00144787
0.00150119
0.00155283
0.00160279
0.00165107
0.00169769
0.00174266
0.00178599
0.00182767
0.00186772
0.00190615
0.00194297
0.00197819
0.0020118
0.00204383
0.00207427
0.00210314
0.00213045
0.00215619
0.00218039
0.00220303
0.00222414
0.00224371
0.00226176
0.00227828
0.00229329
0.00230678
0.00231876
0.00232924
0.00233821
0.00234569
0.00235166
0.00235614
0.00235913
0.00236062
-9.79616e-05
-9.92593e-05
-0.000101858
-0.000105756
-0.000110955
-0.000117453
-0.000125254
-0.000134356
-0.000144762
-0.000156473
-0.000169489
-0.000183813
-0.000199445
-0.000216387
-0.00023464
-0.000254207
-0.000275089
-0.000297287
-0.000320804
-0.000345642
-0.000371802
-0.000399287
-0.000428097
-0.000458236
-0.000489704
-0.000522504
-0.000556637
-0.000592105
-0.000628909
-0.00066705
-0.000706529
-0.000747348
-0.000789507
-0.000833006
-0.000877845
-0.000924025
-0.000971543
-0.0010204
-0.00107059
-0.00112212
-0.00117498
-0.00122917
-0.00128469
-0.00134153
-0.00139968
-0.00145915
-0.00151992
-0.00158198
-0.00164533
-0.00170997
-0.00177587
-0.00184303
-0.00191143
-0.00198106
-0.00205191
-0.00212396
-0.00219719
-0.00227158
-0.00234712
-0.00242377
-0.00250151
-0.00258032
-0.00266017
-0.00274103
-0.00282287
-0.00290566
-0.00298935
-0.00307391
-0.0031593
-0.00324547
-0.00333238
-0.00341999
-0.00350823
-0.00359707
-0.00368644
-0.00377628
-0.00386653
-0.00395714
-0.00404802
-0.00413912
-0.00423036
-0.00432166
-0.00441296
-0.00450415
-0.00459517
-0.00468593
-0.00477634
-0.0048663
-0.00495573
-0.00504452
-0.00513258
-0.0052198
-0.00530609
-0.00539134
-0.00547543
-0.00555827
-0.00563974
-0.00571974
-0.00579814
-0.00587484
-0.00594972
-0.00602267
-0.00609358
-0.00616232
-0.00622879
-0.00629288
-0.00635447
-0.00641346
-0.00646973
-0.00652318
-0.0065737
-0.0066212
-0.00666558
-0.00670674
-0.00674459
-0.00677904
-0.00681002
-0.00683744
-0.00686124
-0.00688134
-0.00689768
-0.0069102
-0.00691886
-0.00692362
-0.00692443
-0.00692126
-0.00691408
-0.00690289
-0.00688767
-0.00686842
-0.00684513
-0.00681783
-0.00678652
-0.00675124
-0.00671201
-0.00666887