/*--------------------------------*- C++ -*----------------------------------*\
| =========                 |                                                 |
| \\      /  F ield         | OpenFOAM: The Open Source CFD Toolbox           |
|  \\    /   O peration     | Version:  v2012                                 |
|   \\  /    A nd           | Website:  www.openfoam.com                      |
|    \\/     M anipulation  |                                                 |
\*---------------------------------------------------------------------------*/
FoamFile
{
    version     2.0;
    format      ascii;
    class       surfaceScalarField;
    location    "18";
    object      phi;
}
// * * * * * * * * * * * * * * * * * * * * * * * * * * * * * * * * * * * * * //

dimensions      [0 3 -1 0 0 0 0];
oriented        oriented;


internalField   nonuniform List<scalar> 
130560
(
3.23369e-06
-3.23369e-06
6.46754e-06
-3.23385e-06
9.70174e-06
-3.2342e-06
1.29364e-05
-3.23471e-06
1.61719e-05
-3.2354e-06
1.94081e-05
-3.23627e-06
2.26454e-05
-3.2373e-06
2.58839e-05
-3.23849e-06
2.91238e-05
-3.23986e-06
3.23651e-05
-3.24138e-06
3.56082e-05
-3.24306e-06
3.88531e-05
-3.2449e-06
4.21e-05
-3.24688e-06
4.5349e-05
-3.24902e-06
4.86003e-05
-3.25129e-06
5.1854e-05
-3.2537e-06
5.51102e-05
-3.25625e-06
5.83692e-05
-3.25892e-06
6.16309e-05
-3.26171e-06
6.48955e-05
-3.26461e-06
6.81631e-05
-3.26762e-06
7.14338e-05
-3.27073e-06
7.47078e-05
-3.27393e-06
7.7985e-05
-3.27721e-06
8.12655e-05
-3.28056e-06
8.45495e-05
-3.28398e-06
8.7837e-05
-3.28745e-06
9.11279e-05
-3.29097e-06
9.44225e-05
-3.29452e-06
9.77205e-05
-3.29809e-06
0.000101022
-3.30167e-06
0.000104327
-3.30524e-06
0.000107636
-3.30881e-06
0.000110949
-3.31234e-06
0.000114264
-3.31582e-06
0.000117584
-3.31925e-06
0.000120906
-3.32261e-06
0.000124232
-3.32587e-06
0.000127561
-3.32903e-06
0.000130893
-3.33206e-06
0.000134228
-3.33495e-06
0.000137566
-3.33768e-06
0.000140906
-3.34023e-06
0.000144249
-3.34258e-06
0.000147593
-3.34471e-06
0.00015094
-3.3466e-06
0.000154288
-3.34822e-06
0.000157638
-3.34955e-06
0.000160988
-3.35057e-06
0.00016434
-3.35126e-06
0.000167691
-3.35158e-06
0.000171043
-3.35152e-06
0.000174394
-3.35104e-06
0.000177744
-3.35013e-06
0.000181093
-3.34875e-06
0.000184439
-3.34687e-06
0.000187784
-3.34447e-06
0.000191125
-3.34151e-06
0.000194463
-3.33796e-06
0.000197797
-3.3338e-06
0.000201126
-3.32899e-06
0.00020445
-3.3235e-06
0.000207767
-3.3173e-06
0.000211077
-3.31035e-06
0.00021438
-3.30262e-06
0.000217674
-3.29407e-06
0.000220959
-3.28468e-06
0.000224233
-3.2744e-06
0.000227496
-3.26321e-06
0.000230747
-3.25106e-06
0.000233985
-3.23792e-06
0.000237209
-3.22376e-06
0.000240418
-3.20854e-06
0.00024361
-3.19223e-06
0.000246785
-3.17478e-06
0.000249941
-3.15618e-06
0.000253077
-3.13637e-06
0.000256193
-3.11533e-06
0.000259286
-3.09302e-06
0.000262355
-3.06942e-06
0.000265399
-3.04448e-06
0.000268418
-3.01819e-06
0.000271408
-2.9905e-06
0.00027437
-2.96138e-06
0.0002773
-2.93082e-06
0.000280199
-2.89878e-06
0.000283064
-2.86524e-06
0.000285895
-2.83018e-06
0.000288688
-2.79356e-06
0.000291443
-2.75538e-06
0.000294159
-2.71561e-06
0.000296833
-2.67424e-06
0.000299465
-2.63125e-06
0.000302051
-2.58663e-06
0.000304592
-2.54037e-06
0.000307084
-2.49246e-06
0.000309527
-2.4429e-06
0.000311919
-2.39169e-06
0.000314257
-2.33883e-06
0.000316542
-2.28432e-06
0.00031877
-2.22816e-06
0.00032094
-2.17038e-06
0.000323051
-2.11098e-06
0.000325101
-2.04997e-06
0.000327089
-1.98738e-06
0.000329012
-1.92322e-06
0.000330869
-1.85754e-06
0.00033266
-1.79034e-06
0.000334381
-1.72167e-06
0.000336033
-1.65157e-06
0.000337613
-1.58006e-06
0.00033912
-1.5072e-06
0.000340553
-1.43303e-06
0.000341911
-1.3576e-06
0.000343192
-1.28095e-06
0.000344395
-1.20316e-06
0.000345519
-1.12426e-06
0.000346564
-1.04433e-06
0.000347527
-9.63428e-07
0.000348409
-8.81617e-07
0.000349208
-7.98968e-07
0.000349923
-7.1555e-07
0.000350555
-6.31437e-07
0.000351101
-5.46703e-07
0.000351563
-4.61424e-07
0.000351938
-3.75677e-07
0.000352228
-2.89542e-07
0.000352431
-2.03098e-07
0.000352547
-1.16425e-07
0.000352577
-2.9606e-08
0.00035252
5.72795e-08
0.000352376
1.44148e-07
0.000352145
2.30919e-07
0.000351827
3.17511e-07
0.000351423
4.03843e-07
0.000350933
4.89836e-07
0.000350358
5.75411e-07
0.000349698
6.6049e-07
0.000348953
7.44997e-07
0.000348124
8.28857e-07
0.000347212
9.11999e-07
0.000346217
9.94352e-07
0.000345142
1.07585e-06
0.000343985
1.15642e-06
0.000342749
1.236e-06
0.000341435
1.31454e-06
0.000340043
1.39197e-06
0.000338574
1.46824e-06
0.000337031
1.54329e-06
0.000335414
1.61709e-06
0.000333724
1.68957e-06
0.000331964
1.7607e-06
0.000330133
1.83045e-06
0.000328235
1.89876e-06
0.000326269
1.96562e-06
0.000324238
2.03098e-06
0.000322143
2.09483e-06
0.000319986
2.15714e-06
0.000317768
2.21789e-06
0.000315491
2.27706e-06
0.000313156
2.33463e-06
0.000310766
2.39061e-06
0.000308321
2.44498e-06
0.000305823
2.49773e-06
0.000303274
2.54886e-06
0.000300676
2.59838e-06
0.00029803
2.64628e-06
0.000295337
2.69258e-06
0.0002926
2.73727e-06
0.000289819
2.78037e-06
0.000286997
2.8219e-06
0.000284136
2.86186e-06
0.000281235
2.90028e-06
0.000278298
2.93717e-06
0.000275326
2.97255e-06
0.000272319
3.00644e-06
0.00026928
3.03888e-06
0.00026621
3.06987e-06
0.000263111
3.09945e-06
0.000259983
3.12764e-06
0.000256829
3.15448e-06
0.000253649
3.17999e-06
0.000250445
3.2042e-06
0.000247217
3.22714e-06
0.000243969
3.24885e-06
0.000240699
3.26935e-06
0.000237411
3.28868e-06
0.000234104
3.30686e-06
0.00023078
3.32395e-06
0.00022744
3.33996e-06
0.000224085
3.35493e-06
0.000220716
3.36889e-06
0.000217334
3.38188e-06
0.00021394
3.39394e-06
0.000210535
3.40509e-06
0.00020712
3.41536e-06
0.000203695
3.4248e-06
0.000200262
3.43343e-06
0.00019682
3.44129e-06
0.000193372
3.44841e-06
0.000189917
3.45482e-06
0.000186456
3.46055e-06
0.000182991
3.46564e-06
0.000179521
3.47011e-06
0.000176047
3.47399e-06
0.000172569
3.47732e-06
0.000169089
3.48012e-06
0.000165607
3.48242e-06
0.000162123
3.48425e-06
0.000158637
3.48564e-06
0.00015515
3.48661e-06
0.000151663
3.4872e-06
0.000148176
3.48741e-06
0.000144688
3.48729e-06
0.000141202
3.48685e-06
0.000137715
3.48612e-06
0.00013423
3.48512e-06
0.000130746
3.48387e-06
0.000127264
3.4824e-06
0.000123783
3.48072e-06
0.000120305
3.47886e-06
0.000116828
3.47683e-06
0.000113353
3.47466e-06
0.000109881
3.47236e-06
0.000106411
3.46996e-06
0.000102943
3.46746e-06
9.94783e-05
3.46489e-06
9.60161e-05
3.46225e-06
9.25565e-05
3.45958e-06
8.90996e-05
3.45687e-06
8.56455e-05
3.45415e-06
8.21941e-05
3.45143e-06
7.87454e-05
3.44871e-06
7.52993e-05
3.44603e-06
7.1856e-05
3.44337e-06
6.84152e-05
3.44077e-06
6.4977e-05
3.43822e-06
6.15412e-05
3.43574e-06
5.81079e-05
3.43333e-06
5.46769e-05
3.43101e-06
5.12481e-05
3.42878e-06
4.78214e-05
3.42666e-06
4.43968e-05
3.42464e-06
4.09741e-05
3.42274e-06
3.75531e-05
3.42097e-06
3.41338e-05
3.41932e-06
3.0716e-05
3.4178e-06
2.72995e-05
3.41642e-06
2.38844e-05
3.41519e-06
2.04703e-05
3.4141e-06
1.70571e-05
3.41316e-06
1.36447e-05
3.41237e-06
1.0233e-05
3.41174e-06
6.82173e-06
3.41126e-06
3.41079e-06
3.41094e-06
3.41079e-06
3.23352e-06
-6.46721e-06
6.46721e-06
-6.46754e-06
9.70123e-06
-6.46823e-06
1.29358e-05
-6.46926e-06
1.6171e-05
-6.47064e-06
1.94071e-05
-6.47236e-06
2.26442e-05
-6.47443e-06
2.58826e-05
-6.47682e-06
2.91223e-05
-6.47955e-06
3.23635e-05
-6.4826e-06
3.56064e-05
-6.48596e-06
3.88511e-05
-6.48964e-06
4.20979e-05
-6.49362e-06
4.53468e-05
-6.49789e-06
4.85979e-05
-6.50245e-06
5.18515e-05
-6.50728e-06
5.51076e-05
-6.51237e-06
5.83664e-05
-6.51772e-06
6.1628e-05
-6.52331e-06
6.48925e-05
-6.52912e-06
6.816e-05
-6.53515e-06
7.14307e-05
-6.54137e-06
7.47045e-05
-6.54778e-06
7.79817e-05
-6.55435e-06
8.12622e-05
-6.56106e-06
8.45461e-05
-6.56791e-06
8.78335e-05
-6.57486e-06
9.11244e-05
-6.58191e-06
9.44189e-05
-6.58901e-06
9.7717e-05
-6.59617e-06
0.000101019
-6.60334e-06
0.000104324
-6.61051e-06
0.000107633
-6.61764e-06
0.000110945
-6.62472e-06
0.000114261
-6.63171e-06
0.00011758
-6.63858e-06
0.000120903
-6.64531e-06
0.000124229
-6.65185e-06
0.000127558
-6.65818e-06
0.00013089
-6.66427e-06
0.000134226
-6.67007e-06
0.000137563
-6.67555e-06
0.000140904
-6.68067e-06
0.000144247
-6.68539e-06
0.000147592
-6.68966e-06
0.000150938
-6.69346e-06
0.000154287
-6.69672e-06
0.000157637
-6.69941e-06
0.000160988
-6.70148e-06
0.000164339
-6.70287e-06
0.000167691
-6.70355e-06
0.000171043
-6.70345e-06
0.000174395
-6.70253e-06
0.000177745
-6.70073e-06
0.000181095
-6.69799e-06
0.000184442
-6.69427e-06
0.000187787
-6.68949e-06
0.000191129
-6.6836e-06
0.000194468
-6.67654e-06
0.000197802
-6.66825e-06
0.000201132
-6.65867e-06
0.000204456
-6.64772e-06
0.000207774
-6.63534e-06
0.000211085
-6.62148e-06
0.000214389
-6.60605e-06
0.000217684
-6.58899e-06
0.000220969
-6.57024e-06
0.000224244
-6.54972e-06
0.000227509
-6.52737e-06
0.000230761
-6.50311e-06
0.000234
-6.47687e-06
0.000237224
-6.44858e-06
0.000240434
-6.41818e-06
0.000243627
-6.38558e-06
0.000246803
-6.35073e-06
0.000249961
-6.31355e-06
0.000253098
-6.27397e-06
0.000256215
-6.23192e-06
0.000259309
-6.18735e-06
0.00026238
-6.14017e-06
0.000265426
-6.09033e-06
0.000268445
-6.03777e-06
0.000271437
-5.98241e-06
0.0002744
-5.92422e-06
0.000277332
-5.86312e-06
0.000280233
-5.79907e-06
0.000283099
-5.73201e-06
0.000285931
-5.6619e-06
0.000288726
-5.58869e-06
0.000291483
-5.51234e-06
0.000294201
-5.43282e-06
0.000296876
-5.35009e-06
0.000299509
-5.26412e-06
0.000302098
-5.17489e-06
0.00030464
-5.08238e-06
0.000307134
-4.98657e-06
0.000309578
-4.88746e-06
0.000311972
-4.78504e-06
0.000314312
-4.67931e-06
0.000316598
-4.57028e-06
0.000318828
-4.45796e-06
0.000321
-4.34238e-06
0.000323112
-4.22355e-06
0.000325164
-4.10152e-06
0.000327153
-3.97631e-06
0.000329078
-3.84798e-06
0.000330937
-3.71658e-06
0.000332728
-3.58216e-06
0.000334452
-3.44478e-06
0.000336105
-3.30453e-06
0.000337686
-3.16148e-06
0.000339194
-3.01571e-06
0.000340629
-2.86732e-06
0.000341988
-2.7164e-06
0.00034327
-2.56306e-06
0.000344474
-2.40741e-06
0.000345599
-2.24956e-06
0.000346645
-2.08964e-06
0.000347609
-1.92776e-06
0.000348491
-1.76407e-06
0.000349291
-1.59871e-06
0.000350007
-1.4318e-06
0.000350639
-1.2635e-06
0.000351187
-1.09395e-06
0.000351649
-9.23318e-07
0.000352025
-7.51746e-07
0.000352314
-5.79396e-07
0.000352518
-4.06426e-07
0.000352634
-2.33e-07
0.000352664
-5.92792e-08
0.000352607
1.14572e-07
0.000352462
2.88391e-07
0.000352231
4.62014e-07
0.000351914
6.35278e-07
0.000351509
8.08023e-07
0.000351019
9.80087e-07
0.000350443
1.15131e-06
0.000349782
1.32155e-06
0.000349037
1.49064e-06
0.000348207
1.65843e-06
0.000347294
1.82478e-06
0.000346299
1.98956e-06
0.000345222
2.15261e-06
0.000344065
2.31382e-06
0.000342828
2.47305e-06
0.000341512
2.63018e-06
0.000340119
2.78509e-06
0.00033865
2.93768e-06
0.000337105
3.08784e-06
0.000335487
3.23548e-06
0.000333796
3.38049e-06
0.000332034
3.5228e-06
0.000330202
3.66232e-06
0.000328302
3.79898e-06
0.000326334
3.93272e-06
0.000324302
4.06348e-06
0.000322206
4.1912e-06
0.000320047
4.31584e-06
0.000317827
4.43735e-06
0.000315549
4.5557e-06
0.000313213
4.67087e-06
0.00031082
4.78283e-06
0.000308374
4.89157e-06
0.000305874
4.99707e-06
0.000303324
5.09934e-06
0.000300724
5.19837e-06
0.000298076
5.29417e-06
0.000295382
5.38675e-06
0.000292643
5.47613e-06
0.000289861
5.56232e-06
0.000287038
5.64536e-06
0.000284174
5.72527e-06
0.000281272
5.80209e-06
0.000278334
5.87585e-06
0.00027536
5.94659e-06
0.000272352
6.01435e-06
0.000269311
6.07919e-06
0.00026624
6.14115e-06
0.000263139
6.20028e-06
0.00026001
6.25664e-06
0.000256854
6.31029e-06
0.000253673
6.36128e-06
0.000250468
6.40967e-06
0.000247239
6.45552e-06
0.000243989
6.4989e-06
0.000240719
6.53987e-06
0.000237429
6.57849e-06
0.000234121
6.61484e-06
0.000230796
6.64897e-06
0.000227455
6.68096e-06
0.000224099
6.71086e-06
0.000220729
6.73876e-06
0.000217346
6.76471e-06
0.000213951
6.78878e-06
0.000210546
6.81105e-06
0.000207129
6.83157e-06
0.000203704
6.85041e-06
0.00020027
6.86764e-06
0.000196827
6.88333e-06
0.000193378
6.89753e-06
0.000189923
6.91032e-06
0.000186462
6.92175e-06
0.000182995
6.93189e-06
0.000179525
6.9408e-06
0.00017605
6.94854e-06
0.000172572
6.95517e-06
0.000169092
6.96074e-06
0.000165609
6.96532e-06
0.000162124
6.96895e-06
0.000158638
6.9717e-06
0.000155151
6.97362e-06
0.000151663
6.97476e-06
0.000148176
6.97517e-06
0.000144688
6.9749e-06
0.000141201
6.97399e-06
0.000137715
6.97251e-06
0.000134229
6.97049e-06
0.000130745
6.96797e-06
0.000127263
6.965e-06
0.000123782
6.96162e-06
0.000120303
6.95788e-06
0.000116826
6.95381e-06
0.000113351
6.94945e-06
0.000109878
6.94484e-06
0.000106408
6.94001e-06
0.000102941
6.935e-06
9.94758e-05
6.92983e-06
9.60135e-05
6.92455e-06
9.25539e-05
6.91918e-06
8.9097e-05
6.91376e-06
8.56429e-05
6.9083e-06
8.21914e-05
6.90284e-06
7.87427e-05
6.89741e-06
7.52967e-05
6.89202e-06
7.18534e-05
6.88671e-06
6.84127e-05
6.88148e-06
6.49745e-05
6.87637e-06
6.15389e-05
6.8714e-06
5.81056e-05
6.86658e-06
5.46747e-05
6.86193e-06
5.1246e-05
6.85747e-06
4.78195e-05
6.85321e-06
4.43949e-05
6.84918e-06
4.09723e-05
6.84537e-06
3.75515e-05
6.84181e-06
3.41323e-05
6.83851e-06
3.07146e-05
6.83547e-06
2.72983e-05
6.83271e-06
2.38833e-05
6.83023e-06
2.04693e-05
6.82805e-06
1.70563e-05
6.82617e-06
1.36441e-05
6.82459e-06
1.02325e-05
6.82332e-06
6.82142e-06
6.82237e-06
3.41063e-06
6.82173e-06
6.82141e-06
3.23317e-06
-9.70038e-06
6.46652e-06
-9.70088e-06
9.7002e-06
-9.70191e-06
1.29344e-05
-9.70347e-06
1.61693e-05
-9.70554e-06
1.94051e-05
-9.70813e-06
2.26419e-05
-9.71123e-06
2.58799e-05
-9.71483e-06
2.91193e-05
-9.71892e-06
3.23602e-05
-9.72351e-06
3.56028e-05
-9.72856e-06
3.88472e-05
-9.73409e-06
4.20937e-05
-9.74006e-06
4.53422e-05
-9.74648e-06
4.85931e-05
-9.75333e-06
5.18464e-05
-9.76059e-06
5.51023e-05
-9.76825e-06
5.83609e-05
-9.77628e-06
6.16223e-05
-9.78468e-06
6.48866e-05
-9.79342e-06
6.81539e-05
-9.80248e-06
7.14243e-05
-9.81183e-06
7.4698e-05
-9.82146e-06
7.7975e-05
-9.83134e-06
8.12554e-05
-9.84144e-06
8.45392e-05
-9.85173e-06
8.78265e-05
-9.86219e-06
9.11174e-05
-9.87278e-06
9.44119e-05
-9.88347e-06
9.77099e-05
-9.89423e-06
0.000101012
-9.90502e-06
0.000104317
-9.9158e-06
0.000107626
-9.92654e-06
0.000110938
-9.93719e-06
0.000114254
-9.94771e-06
0.000117574
-9.95806e-06
0.000120897
-9.96819e-06
0.000124223
-9.97805e-06
0.000127552
-9.98759e-06
0.000130885
-9.99676e-06
0.00013422
-1.00055e-05
0.000137558
-1.00138e-05
0.000140899
-1.00215e-05
0.000144242
-1.00286e-05
0.000147588
-1.00351e-05
0.000150935
-1.00408e-05
0.000154284
-1.00458e-05
0.000157635
-1.00499e-05
0.000160986
-1.00531e-05
0.000164339
-1.00552e-05
0.000167692
-1.00563e-05
0.000171044
-1.00562e-05
0.000174397
-1.00549e-05
0.000177748
-1.00523e-05
0.000181098
-1.00482e-05
0.000184447
-1.00427e-05
0.000187793
-1.00356e-05
0.000191136
-1.00269e-05
0.000194476
-1.00164e-05
0.000197812
-1.0004e-05
0.000201143
-9.9897e-06
0.000204469
-9.97336e-06
0.000207788
-9.95488e-06
0.000211101
-9.93416e-06
0.000214406
-9.91111e-06
0.000217702
-9.88561e-06
0.00022099
-9.85757e-06
0.000224267
-9.82688e-06
0.000227533
-9.79344e-06
0.000230787
-9.75713e-06
0.000234028
-9.71786e-06
0.000237255
-9.67552e-06
0.000240467
-9.63e-06
0.000243662
-9.5812e-06
0.000246841
-9.52901e-06
0.00025
-9.47332e-06
0.000253141
-9.41404e-06
0.00025626
-9.35105e-06
0.000259357
-9.28427e-06
0.00026243
-9.21358e-06
0.000265479
-9.1389e-06
0.000268501
-9.06013e-06
0.000271496
-8.97718e-06
0.000274461
-8.88995e-06
0.000277397
-8.79837e-06
0.0002803
-8.70236e-06
0.00028317
-8.60183e-06
0.000286005
-8.49672e-06
0.000288803
-8.38696e-06
0.000291563
-8.27248e-06
0.000294283
-8.15324e-06
0.000296963
-8.02918e-06
0.000299599
-7.90026e-06
0.00030219
-7.76644e-06
0.000304736
-7.62769e-06
0.000307233
-7.48399e-06
0.000309681
-7.33532e-06
0.000312077
-7.18169e-06
0.000314421
-7.02308e-06
0.00031671
-6.85952e-06
0.000318944
-6.69102e-06
0.000321119
-6.51762e-06
0.000323235
-6.33934e-06
0.000325289
-6.15624e-06
0.000327281
-5.96837e-06
0.000329209
-5.77581e-06
0.000331071
-5.57863e-06
0.000332866
-5.37692e-06
0.000334592
-5.17077e-06
0.000336248
-4.9603e-06
0.000337832
-4.74561e-06
0.000339343
-4.52685e-06
0.00034078
-4.30414e-06
0.000342141
-4.07763e-06
0.000343425
-3.84749e-06
0.000344632
-3.61386e-06
0.000345759
-3.37694e-06
0.000346807
-3.13689e-06
0.000347773
-2.89392e-06
0.000348657
-2.64821e-06
0.000349458
-2.39998e-06
0.000350176
-2.14944e-06
0.000350809
-1.8968e-06
0.000351357
-1.6423e-06
0.00035182
-1.38615e-06
0.000352197
-1.12859e-06
0.000352488
-8.69869e-07
0.000352691
-6.10214e-07
0.000352808
-3.49871e-07
0.000352838
-8.9085e-08
0.000352781
1.71895e-07
0.000352636
4.32827e-07
0.000352405
6.93465e-07
0.000352087
9.53563e-07
0.000351682
1.21288e-06
0.000351191
1.47117e-06
0.000350614
1.72821e-06
0.000349951
1.98375e-06
0.000349205
2.23757e-06
0.000348374
2.48944e-06
0.000347459
2.73915e-06
0.000346462
2.98648e-06
0.000345384
3.23123e-06
0.000344224
3.47319e-06
0.000342985
3.71219e-06
0.000341667
3.94803e-06
0.000340272
4.18054e-06
0.0003388
4.40956e-06
0.000337253
4.63492e-06
0.000335632
4.85649e-06
0.000333938
5.07411e-06
0.000332173
5.28767e-06
0.000330339
5.49705e-06
0.000328436
5.70212e-06
0.000326465
5.90281e-06
0.00032443
6.09901e-06
0.00032233
6.29065e-06
0.000320169
6.47765e-06
0.000317946
6.65996e-06
0.000315664
6.83753e-06
0.000313325
7.01031e-06
0.000310929
7.17827e-06
0.000308479
7.34139e-06
0.000305977
7.49965e-06
0.000303423
7.65305e-06
0.00030082
7.80159e-06
0.000298169
7.94528e-06
0.000295471
8.08413e-06
0.000292729
8.21817e-06
0.000289944
8.34743e-06
0.000287118
8.47195e-06
0.000284251
8.59178e-06
0.000281346
8.70695e-06
0.000278405
8.81754e-06
0.000275428
8.9236e-06
0.000272417
9.02519e-06
0.000269374
9.12238e-06
0.0002663
9.21526e-06
0.000263196
9.30389e-06
0.000260064
9.38836e-06
0.000256906
9.46876e-06
0.000253722
9.54516e-06
0.000250514
9.61767e-06
0.000247283
9.68637e-06
0.000244031
9.75136e-06
0.000240758
9.81273e-06
0.000237466
9.87059e-06
0.000234155
9.92502e-06
0.000230828
9.97614e-06
0.000227485
1.0024e-05
0.000224127
1.00688e-05
0.000220755
1.01106e-05
0.000217371
1.01494e-05
0.000213974
1.01854e-05
0.000210566
1.02187e-05
0.000207148
1.02494e-05
0.000203721
1.02776e-05
0.000200285
1.03034e-05
0.000196842
1.03268e-05
0.000193391
1.03481e-05
0.000189935
1.03672e-05
0.000186472
1.03842e-05
0.000183005
1.03994e-05
0.000179533
1.04127e-05
0.000176057
1.04242e-05
0.000172578
1.04341e-05
0.000169097
1.04424e-05
0.000165613
1.04492e-05
0.000162127
1.04545e-05
0.00015864
1.04586e-05
0.000155152
1.04614e-05
0.000151664
1.04631e-05
0.000148176
1.04636e-05
0.000144687
1.04631e-05
0.0001412
1.04617e-05
0.000137713
1.04594e-05
0.000134227
1.04563e-05
0.000130742
1.04525e-05
0.000127259
1.0448e-05
0.000123778
1.04429e-05
0.000120299
1.04372e-05
0.000116821
1.04311e-05
0.000113346
1.04245e-05
0.000109874
1.04175e-05
0.000106403
1.04102e-05
0.000102936
1.04027e-05
9.94707e-05
1.03949e-05
9.60083e-05
1.03869e-05
9.25487e-05
1.03789e-05
8.90917e-05
1.03707e-05
8.56376e-05
1.03625e-05
8.21862e-05
1.03542e-05
7.87375e-05
1.03461e-05
7.52916e-05
1.0338e-05
7.18483e-05
1.03299e-05
6.84077e-05
1.03221e-05
6.49697e-05
1.03144e-05
6.15342e-05
1.03069e-05
5.81011e-05
1.02997e-05
5.46704e-05
1.02927e-05
5.12419e-05
1.0286e-05
4.78155e-05
1.02796e-05
4.43912e-05
1.02735e-05
4.09688e-05
1.02678e-05
3.75482e-05
1.02624e-05
3.41293e-05
1.02574e-05
3.07119e-05
1.02529e-05
2.72959e-05
1.02487e-05
2.38812e-05
1.0245e-05
2.04675e-05
1.02417e-05
1.70548e-05
1.02389e-05
1.36429e-05
1.02365e-05
1.02316e-05
1.02346e-05
6.82079e-06
1.02332e-05
3.41032e-06
1.02322e-05
1.02317e-05
3.23265e-06
-1.2933e-05
6.46548e-06
-1.29337e-05
9.69865e-06
-1.29351e-05
1.29324e-05
-1.29372e-05
1.61667e-05
-1.29399e-05
1.9402e-05
-1.29434e-05
2.26383e-05
-1.29475e-05
2.58758e-05
-1.29523e-05
2.91147e-05
-1.29578e-05
3.23552e-05
-1.29639e-05
3.55973e-05
-1.29707e-05
3.88413e-05
-1.29781e-05
4.20873e-05
-1.29861e-05
4.53355e-05
-1.29947e-05
4.8586e-05
-1.30038e-05
5.18389e-05
-1.30135e-05
5.50944e-05
-1.30237e-05
5.83526e-05
-1.30345e-05
6.16136e-05
-1.30457e-05
6.48776e-05
-1.30574e-05
6.81446e-05
-1.30695e-05
7.14148e-05
-1.3082e-05
7.46883e-05
-1.30949e-05
7.7965e-05
-1.31081e-05
8.12452e-05
-1.31216e-05
8.45289e-05
-1.31354e-05
8.78161e-05
-1.31494e-05
9.11069e-05
-1.31636e-05
9.44012e-05
-1.31779e-05
9.76993e-05
-1.31923e-05
0.000101001
-1.32067e-05
0.000104306
-1.32211e-05
0.000107615
-1.32355e-05
0.000110928
-1.32498e-05
0.000114244
-1.32639e-05
0.000117564
-1.32778e-05
0.000120887
-1.32913e-05
0.000124213
-1.33046e-05
0.000127543
-1.33174e-05
0.000130876
-1.33297e-05
0.000134212
-1.33414e-05
0.000137551
-1.33525e-05
0.000140892
-1.33629e-05
0.000144236
-1.33725e-05
0.000147582
-1.33813e-05
0.000150931
-1.3389e-05
0.00015428
-1.33957e-05
0.000157632
-1.34013e-05
0.000160985
-1.34056e-05
0.000164338
-1.34086e-05
0.000167692
-1.34102e-05
0.000171046
-1.34102e-05
0.0001744
-1.34086e-05
0.000177752
-1.34052e-05
0.000181104
-1.34e-05
0.000184454
-1.33927e-05
0.000187802
-1.33834e-05
0.000191147
-1.33719e-05
0.000194489
-1.3358e-05
0.000197826
-1.33417e-05
0.000201159
-1.33228e-05
0.000204487
-1.33011e-05
0.000207809
-1.32767e-05
0.000211124
-1.32492e-05
0.000214432
-1.32186e-05
0.000217731
-1.31848e-05
0.000221021
-1.31476e-05
0.000224301
-1.31068e-05
0.00022757
-1.30624e-05
0.000230827
-1.30141e-05
0.000234071
-1.29619e-05
0.000237301
-1.29056e-05
0.000240516
-1.28451e-05
0.000243715
-1.27802e-05
0.000246897
-1.27108e-05
0.00025006
-1.26367e-05
0.000253204
-1.25578e-05
0.000256327
-1.2474e-05
0.000259428
-1.23851e-05
0.000262505
-1.2291e-05
0.000265558
-1.21916e-05
0.000268584
-1.20867e-05
0.000271583
-1.19762e-05
0.000274553
-1.186e-05
0.000277493
-1.17381e-05
0.000280401
-1.16102e-05
0.000283275
-1.14762e-05
0.000286115
-1.13362e-05
0.000288918
-1.11899e-05
0.000291683
-1.10374e-05
0.000294408
-1.08785e-05
0.000297092
-1.07131e-05
0.000299733
-1.05413e-05
0.000302329
-1.03629e-05
0.000304879
-1.01779e-05
0.000307382
-9.98636e-06
0.000309835
-9.78815e-06
0.000312236
-9.5833e-06
0.000314585
-9.37181e-06
0.000316879
-9.1537e-06
0.000319117
-8.92899e-06
0.000321297
-8.69772e-06
0.000323418
-8.45994e-06
0.000325477
-8.21572e-06
0.000327474
-7.96513e-06
0.000329407
-7.70826e-06
0.000331273
-7.44522e-06
0.000333072
-7.17611e-06
0.000334803
-6.90108e-06
0.000336463
-6.62027e-06
0.000338051
-6.33383e-06
0.000339566
-6.04193e-06
0.000341007
-5.74475e-06
0.000342371
-5.4425e-06
0.000343659
-5.13538e-06
0.000344869
-4.82361e-06
0.000346
-4.50743e-06
0.00034705
-4.18707e-06
0.000348019
-3.8628e-06
0.000348905
-3.53487e-06
0.000349709
-3.20357e-06
0.000350429
-2.86918e-06
0.000351064
-2.53198e-06
0.000351614
-2.19228e-06
0.000352078
-1.85039e-06
0.000352456
-1.50661e-06
0.000352747
-1.16127e-06
0.000352952
-8.14691e-07
0.000353069
-4.67188e-07
0.000353099
-1.19091e-07
0.000353042
2.29264e-07
0.000352897
5.77555e-07
0.000352665
9.25451e-07
0.000352346
1.27263e-06
0.00035194
1.61875e-06
0.000351448
1.96351e-06
0.000350869
2.30659e-06
0.000350206
2.64767e-06
0.000349457
2.98644e-06
0.000348624
3.32261e-06
0.000347707
3.65588e-06
0.000346707
3.98598e-06
0.000345626
4.31262e-06
0.000344464
4.63554e-06
0.000343221
4.95448e-06
0.0003419
5.26921e-06
0.000340501
5.57948e-06
0.000339026
5.88508e-06
0.000337475
6.18579e-06
0.00033585
6.48143e-06
0.000334152
6.77179e-06
0.000332383
7.05673e-06
0.000330544
7.33606e-06
0.000328637
7.60965e-06
0.000326662
7.87737e-06
0.000324622
8.1391e-06
0.000322518
8.39473e-06
0.000320351
8.64416e-06
0.000318124
8.88732e-06
0.000315837
9.12414e-06
0.000313493
9.35456e-06
0.000311093
9.57855e-06
0.000308638
9.79607e-06
0.000306131
1.00071e-05
0.000303572
1.02116e-05
0.000300964
1.04097e-05
0.000298308
1.06012e-05
0.000295606
1.07863e-05
0.000292859
1.0965e-05
0.000290069
1.11373e-05
0.000287238
1.13032e-05
0.000284367
1.14629e-05
0.000281457
1.16164e-05
0.000278511
1.17638e-05
0.00027553
1.19051e-05
0.000272514
1.20404e-05
0.000269467
1.21699e-05
0.000266389
1.22936e-05
0.000263281
1.24117e-05
0.000260145
1.25242e-05
0.000256983
1.26312e-05
0.000253795
1.27329e-05
0.000250583
1.28295e-05
0.000247348
1.29209e-05
0.000244092
1.30074e-05
0.000240816
1.30891e-05
0.00023752
1.31661e-05
0.000234207
1.32385e-05
0.000230877
1.33065e-05
0.00022753
1.33702e-05
0.000224169
1.34298e-05
0.000220795
1.34853e-05
0.000217407
1.35369e-05
0.000214008
1.35848e-05
0.000210597
1.36291e-05
0.000207177
1.36698e-05
0.000203747
1.37073e-05
0.000200309
1.37415e-05
0.000196864
1.37726e-05
0.000193411
1.38007e-05
0.000189952
1.38261e-05
0.000186488
1.38487e-05
0.000183018
1.38687e-05
0.000179545
1.38863e-05
0.000176067
1.39015e-05
0.000172587
1.39146e-05
0.000169104
1.39255e-05
0.000165618
1.39344e-05
0.000162132
1.39415e-05
0.000158643
1.39467e-05
0.000155154
1.39504e-05
0.000151665
1.39524e-05
0.000148176
1.39531e-05
0.000144686
1.39523e-05
0.000141198
1.39503e-05
0.00013771
1.39472e-05
0.000134223
1.3943e-05
0.000130738
1.39377e-05
0.000127255
1.39316e-05
0.000123773
1.39247e-05
0.000120293
1.39171e-05
0.000116815
1.39088e-05
0.00011334
1.38999e-05
0.000109867
1.38906e-05
0.000106396
1.38808e-05
0.000102928
1.38706e-05
9.9463e-05
1.38602e-05
9.60005e-05
1.38495e-05
9.25407e-05
1.38386e-05
8.90838e-05
1.38277e-05
8.56296e-05
1.38166e-05
8.21782e-05
1.38056e-05
7.87296e-05
1.37947e-05
7.52838e-05
1.37838e-05
7.18407e-05
1.37731e-05
6.84002e-05
1.37625e-05
6.49624e-05
1.37522e-05
6.15271e-05
1.37422e-05
5.80943e-05
1.37325e-05
5.46638e-05
1.37231e-05
5.12356e-05
1.37142e-05
4.78096e-05
1.37056e-05
4.43856e-05
1.36974e-05
4.09636e-05
1.36898e-05
3.75434e-05
1.36826e-05
3.41248e-05
1.3676e-05
3.07079e-05
1.36699e-05
2.72923e-05
1.36643e-05
2.38779e-05
1.36593e-05
2.04647e-05
1.36549e-05
1.70525e-05
1.36511e-05
1.3641e-05
1.3648e-05
1.02302e-05
1.36454e-05
6.81985e-06
1.36435e-05
3.40985e-06
1.36422e-05
1.36416e-05
3.23196e-06
-1.6165e-05
6.46409e-06
-1.61658e-05
9.69658e-06
-1.61676e-05
1.29296e-05
-1.61702e-05
1.61633e-05
-1.61737e-05
1.93979e-05
-1.6178e-05
2.26335e-05
-1.61832e-05
2.58704e-05
-1.61892e-05
2.91087e-05
-1.61961e-05
3.23485e-05
-1.62037e-05
3.559e-05
-1.62122e-05
3.88334e-05
-1.62215e-05
4.20788e-05
-1.62315e-05
4.53264e-05
-1.62423e-05
4.85763e-05
-1.62537e-05
5.18287e-05
-1.62659e-05
5.50837e-05
-1.62787e-05
5.83415e-05
-1.62922e-05
6.1602e-05
-1.63063e-05
6.48656e-05
-1.6321e-05
6.81322e-05
-1.63362e-05
7.14021e-05
-1.63519e-05
7.46752e-05
-1.6368e-05
7.79517e-05
-1.63846e-05
8.12316e-05
-1.64016e-05
8.4515e-05
-1.64188e-05
8.78021e-05
-1.64364e-05
9.10927e-05
-1.64542e-05
9.4387e-05
-1.64722e-05
9.7685e-05
-1.64903e-05
0.000100987
-1.65084e-05
0.000104292
-1.65266e-05
0.000107601
-1.65446e-05
0.000110914
-1.65626e-05
0.00011423
-1.65803e-05
0.00011755
-1.65978e-05
0.000120874
-1.66149e-05
0.000124201
-1.66315e-05
0.000127531
-1.66476e-05
0.000130865
-1.66632e-05
0.000134201
-1.6678e-05
0.000137541
-1.6692e-05
0.000140883
-1.67052e-05
0.000144228
-1.67173e-05
0.000147575
-1.67284e-05
0.000150924
-1.67383e-05
0.000154275
-1.67468e-05
0.000157628
-1.6754e-05
0.000160982
-1.67596e-05
0.000164337
-1.67635e-05
0.000167692
-1.67656e-05
0.000171048
-1.67659e-05
0.000174403
-1.6764e-05
0.000177758
-1.676e-05
0.000181112
-1.67537e-05
0.000184464
-1.67449e-05
0.000187814
-1.67334e-05
0.000191161
-1.67193e-05
0.000194505
-1.67022e-05
0.000197846
-1.6682e-05
0.000201181
-1.66586e-05
0.000204512
-1.66318e-05
0.000207837
-1.66014e-05
0.000211155
-1.65673e-05
0.000214466
-1.65294e-05
0.000217768
-1.64873e-05
0.000221062
-1.64411e-05
0.000224345
-1.63904e-05
0.000227618
-1.63351e-05
0.000230879
-1.62751e-05
0.000234127
-1.62101e-05
0.000237362
-1.614e-05
0.000240581
-1.60646e-05
0.000243785
-1.59837e-05
0.000246971
-1.58972e-05
0.000250139
-1.58049e-05
0.000253288
-1.57065e-05
0.000256416
-1.5602e-05
0.000259522
-1.54911e-05
0.000262605
-1.53737e-05
0.000265663
-1.52497e-05
0.000268695
-1.51188e-05
0.0002717
-1.49809e-05
0.000274676
-1.48359e-05
0.000277621
-1.46837e-05
0.000280535
-1.4524e-05
0.000283416
-1.43568e-05
0.000286261
-1.41819e-05
0.00028907
-1.39992e-05
0.000291842
-1.38087e-05
0.000294573
-1.36101e-05
0.000297264
-1.34036e-05
0.000299911
-1.31889e-05
0.000302514
-1.2966e-05
0.000305071
-1.27348e-05
0.00030758
-1.24954e-05
0.00031004
-1.22476e-05
0.000312448
-1.19916e-05
0.000314803
-1.17272e-05
0.000317104
-1.14545e-05
0.000319349
-1.11735e-05
0.000321535
-1.08843e-05
0.000323662
-1.0587e-05
0.000325728
-1.02816e-05
0.000327731
-9.96816e-06
0.00032967
-9.64688e-06
0.000331543
-9.31786e-06
0.000333348
-8.98124e-06
0.000335084
-8.63718e-06
0.000336749
-8.28587e-06
0.000338343
-7.9275e-06
0.000339863
-7.56228e-06
0.000341309
-7.19044e-06
0.000342679
-6.81224e-06
0.000343971
-6.42793e-06
0.000345185
-6.03778e-06
0.00034632
-5.64209e-06
0.000347374
-5.24117e-06
0.000348347
-4.83533e-06
0.000349237
-4.42491e-06
0.000350044
-4.01025e-06
0.000350766
-3.59171e-06
0.000351404
-3.16966e-06
0.000351956
-2.74446e-06
0.000352422
-2.31651e-06
0.000352802
-1.8862e-06
0.000353094
-1.45393e-06
0.0003533
-1.02009e-06
0.000353418
-5.851e-07
0.000353448
-1.49365e-07
0.00035339
2.86694e-07
0.000353245
7.22672e-07
0.000353013
1.15815e-06
0.000352692
1.59273e-06
0.000352285
2.02599e-06
0.000351791
2.45753e-06
0.000351211
2.88696e-06
0.000350545
3.31388e-06
0.000349793
3.73791e-06
0.000348957
4.15867e-06
0.000348037
4.57579e-06
0.000347034
4.98892e-06
0.000345949
5.39772e-06
0.000344783
5.80184e-06
0.000343536
6.20098e-06
0.000342211
6.59483e-06
0.000340807
6.98308e-06
0.000339327
7.36547e-06
0.000337771
7.74174e-06
0.000336141
8.11162e-06
0.000334437
8.47491e-06
0.000332663
8.83137e-06
0.000330818
9.18081e-06
0.000328905
9.52305e-06
0.000326924
9.85792e-06
0.000324878
1.01853e-05
0.000322768
1.0505e-05
0.000320595
1.08169e-05
0.000318361
1.1121e-05
0.000316068
1.14171e-05
0.000313718
1.17053e-05
0.000311311
1.19853e-05
0.00030885
1.22572e-05
0.000306336
1.2521e-05
0.000303771
1.27767e-05
0.000301156
1.30242e-05
0.000298494
1.32636e-05
0.000295785
1.34949e-05
0.000293032
1.37182e-05
0.000290236
1.39334e-05
0.000287398
1.41408e-05
0.000284521
1.43403e-05
0.000281605
1.4532e-05
0.000278653
1.4716e-05