/*--------------------------------*- C++ -*----------------------------------*\
| =========                 |                                                 |
| \\      /  F ield         | OpenFOAM: The Open Source CFD Toolbox           |
|  \\    /   O peration     | Version:  v2012                                 |
|   \\  /    A nd           | Website:  www.openfoam.com                      |
|    \\/     M anipulation  |                                                 |
\*---------------------------------------------------------------------------*/
FoamFile
{
    version     2.0;
    format      ascii;
    class       volVectorField;
    location    "18";
    object      U;
}
// * * * * * * * * * * * * * * * * * * * * * * * * * * * * * * * * * * * * * //

dimensions      [0 1 -1 0 0 0 0];


internalField   nonuniform List<vector> 
65536
(
(0.000658749 -0.000658779 0)
(0.0019763 -0.000658807 0)
(0.00329394 -0.000658883 0)
(0.00461175 -0.000658989 0)
(0.00592981 -0.000659131 0)
(0.0072482 -0.000659306 0)
(0.00856696 -0.000659516 0)
(0.00988618 -0.00065976 0)
(0.0112059 -0.000660038 0)
(0.0125263 -0.000660348 0)
(0.0138472 -0.00066069 0)
(0.0151689 -0.000661064 0)
(0.0164914 -0.000661468 0)
(0.0178147 -0.000661903 0)
(0.019139 -0.000662366 0)
(0.0204641 -0.000662857 0)
(0.0217903 -0.000663376 0)
(0.0231176 -0.000663919 0)
(0.0244459 -0.000664487 0)
(0.0257754 -0.000665078 0)
(0.0271062 -0.000665691 0)
(0.0284381 -0.000666324 0)
(0.0297714 -0.000666975 0)
(0.031106 -0.000667643 0)
(0.0324419 -0.000668326 0)
(0.0337792 -0.000669021 0)
(0.0351179 -0.000669728 0)
(0.0364581 -0.000670444 0)
(0.0377997 -0.000671166 0)
(0.0391427 -0.000671893 0)
(0.0404872 -0.000672622 0)
(0.0418331 -0.00067335 0)
(0.0431805 -0.000674074 0)
(0.0445294 -0.000674793 0)
(0.0458797 -0.000675503 0)
(0.0472314 -0.000676201 0)
(0.0485844 -0.000676883 0)
(0.0499389 -0.000677547 0)
(0.0512946 -0.00067819 0)
(0.0526516 -0.000678807 0)
(0.0540098 -0.000679395 0)
(0.0553692 -0.00067995 0)
(0.0567296 -0.000680468 0)
(0.058091 -0.000680946 0)
(0.0594534 -0.000681378 0)
(0.0608165 -0.000681761 0)
(0.0621804 -0.00068209 0)
(0.0635449 -0.000682361 0)
(0.0649099 -0.000682567 0)
(0.0662752 -0.000682706 0)
(0.0676407 -0.000682771 0)
(0.0690063 -0.000682757 0)
(0.0703718 -0.000682659 0)
(0.071737 -0.000682471 0)
(0.0731017 -0.000682188 0)
(0.0744658 -0.000681804 0)
(0.075829 -0.000681313 0)
(0.0771911 -0.000680709 0)
(0.0785519 -0.000679985 0)
(0.0799111 -0.000679136 0)
(0.0812685 -0.000678154 0)
(0.0826238 -0.000677034 0)
(0.0839767 -0.000675769 0)
(0.085327 -0.000674351 0)
(0.0866742 -0.000672775 0)
(0.0880182 -0.000671032 0)
(0.0893585 -0.000669117 0)
(0.0906948 -0.000667022 0)
(0.0920267 -0.000664739 0)
(0.0933539 -0.000662263 0)
(0.0946759 -0.000659585 0)
(0.0959924 -0.000656698 0)
(0.0973028 -0.000653596 0)
(0.0986069 -0.000650271 0)
(0.0999041 -0.000646715 0)
(0.101194 -0.000642923 0)
(0.102476 -0.000638886 0)
(0.10375 -0.000634598 0)
(0.105015 -0.000630053 0)
(0.10627 -0.000625243 0)
(0.107516 -0.000620161 0)
(0.108751 -0.000614802 0)
(0.109975 -0.00060916 0)
(0.111188 -0.000603228 0)
(0.112388 -0.000597001 0)
(0.113576 -0.000590472 0)
(0.11475 -0.000583639 0)
(0.115911 -0.000576494 0)
(0.117057 -0.000569034 0)
(0.118187 -0.000561254 0)
(0.119302 -0.000553152 0)
(0.1204 -0.000544723 0)
(0.121481 -0.000535964 0)
(0.122544 -0.000526874 0)
(0.123589 -0.00051745 0)
(0.124614 -0.00050769 0)
(0.12562 -0.000497594 0)
(0.126605 -0.000487162 0)
(0.127569 -0.000476393 0)
(0.128511 -0.000465288 0)
(0.12943 -0.00045385 0)
(0.130327 -0.000442078 0)
(0.131199 -0.000429977 0)
(0.132047 -0.00041755 0)
(0.132869 -0.0004048 0)
(0.133666 -0.000391733 0)
(0.134437 -0.000378352 0)
(0.13518 -0.000364665 0)
(0.135895 -0.000350678 0)
(0.136583 -0.000336398 0)
(0.137241 -0.000321834 0)
(0.13787 -0.000306993 0)
(0.138469 -0.000291886 0)
(0.139038 -0.000276521 0)
(0.139576 -0.00026091 0)
(0.140082 -0.000245065 0)
(0.140556 -0.000228995 0)
(0.140998 -0.000212715 0)
(0.141407 -0.000196237 0)
(0.141783 -0.000179574 0)
(0.142126 -0.000162741 0)
(0.142434 -0.000145751 0)
(0.142709 -0.000128619 0)
(0.142949 -0.000111361 0)
(0.143154 -9.39921e-05 0)
(0.143325 -7.6528e-05 0)
(0.14346 -5.89847e-05 0)
(0.143561 -4.13784e-05 0)
(0.143626 -2.37257e-05 0)
(0.143656 -6.04293e-06 0)
(0.14365 1.1653e-05 0)
(0.143609 2.93455e-05 0)
(0.143533 4.70182e-05 0)
(0.143421 6.46545e-05 0)
(0.143274 8.2238e-05 0)
(0.143092 9.97524e-05 0)
(0.142875 0.000117182 0)
(0.142623 0.00013451 0)
(0.142337 0.000151722 0)
(0.142016 0.000168802 0)
(0.141661 0.000185736 0)
(0.141273 0.00020251 0)
(0.140851 0.000219108 0)
(0.140396 0.000235519 0)
(0.139909 0.000251729 0)
(0.139389 0.000267725 0)
(0.138837 0.000283496 0)
(0.138255 0.000299031 0)
(0.137641 0.000314319 0)
(0.136997 0.00032935 0)
(0.136323 0.000344114 0)
(0.13562 0.000358603 0)
(0.134888 0.000372809 0)
(0.134129 0.000386725 0)
(0.133341 0.000400343 0)
(0.132527 0.000413658 0)
(0.131686 0.000426664 0)
(0.13082 0.000439356 0)
(0.129928 0.000451731 0)
(0.129013 0.000463784 0)
(0.128073 0.000475514 0)
(0.12711 0.000486917 0)
(0.126125 0.000497992 0)
(0.125118 0.000508738 0)
(0.12409 0.000519155 0)
(0.123041 0.000529243 0)
(0.121972 0.000539002 0)
(0.120884 0.000548433 0)
(0.119778 0.000557539 0)
(0.118654 0.000566321 0)
(0.117512 0.000574781 0)
(0.116354 0.000582923 0)
(0.11518 0.000590751 0)
(0.113991 0.000598267 0)
(0.112787 0.000605476 0)
(0.111569 0.000612382 0)
(0.110337 0.00061899 0)
(0.109092 0.000625305 0)
(0.107835 0.000631332 0)
(0.106567 0.000637078 0)
(0.105287 0.000642546 0)
(0.103996 0.000647744 0)
(0.102696 0.000652678 0)
(0.101385 0.000657353 0)
(0.100066 0.000661777 0)
(0.0987378 0.000665955 0)
(0.0974017 0.000669894 0)
(0.096058 0.000673602 0)
(0.094707 0.000677083 0)
(0.0933494 0.000680347 0)
(0.0919854 0.000683398 0)
(0.0906155 0.000686245 0)
(0.0892402 0.000688893 0)
(0.0878597 0.00069135 0)
(0.0864745 0.000693623 0)
(0.085085 0.000695718 0)
(0.0836914 0.000697643 0)
(0.0822942 0.000699403 0)
(0.0808936 0.000701006 0)
(0.07949 0.000702457 0)
(0.0780836 0.000703764 0)
(0.0766747 0.000704934 0)
(0.0752637 0.000705971 0)
(0.0738507 0.000706883 0)
(0.072436 0.000707676 0)
(0.0710198 0.000708356 0)
(0.0696024 0.000708928 0)
(0.0681839 0.000709398 0)
(0.0667647 0.000709773 0)
(0.0653447 0.000710057 0)
(0.0639243 0.000710256 0)
(0.0625036 0.000710376 0)
(0.0610827 0.000710421 0)
(0.0596618 0.000710397 0)
(0.058241 0.000710309 0)
(0.0568204 0.000710161 0)
(0.0554002 0.000709958 0)
(0.0539805 0.000709705 0)
(0.0525613 0.000709406 0)
(0.0511428 0.000709065 0)
(0.049725 0.000708687 0)
(0.0483079 0.000708275 0)
(0.0468918 0.000707834 0)
(0.0454765 0.000707367 0)
(0.0440622 0.000706877 0)
(0.042649 0.000706369 0)
(0.0412367 0.000705846 0)
(0.0398255 0.00070531 0)
(0.0384154 0.000704766 0)
(0.0370064 0.000704215 0)
(0.0355985 0.000703662 0)
(0.0341917 0.000703108 0)
(0.032786 0.000702556 0)
(0.0313814 0.000702009 0)
(0.029978 0.000701469 0)
(0.0285755 0.000700938 0)
(0.0271742 0.00070042 0)
(0.0257738 0.000699914 0)
(0.0243745 0.000699425 0)
(0.0229761 0.000698953 0)
(0.0215786 0.000698499 0)
(0.0201821 0.000698067 0)
(0.0187863 0.000697657 0)
(0.0173914 0.00069727 0)
(0.0159972 0.000696908 0)
(0.0146038 0.000696572 0)
(0.0132109 0.000696264 0)
(0.0118187 0.000695983 0)
(0.010427 0.000695732 0)
(0.00903574 0.00069551 0)
(0.00764492 0.000695319 0)
(0.00625445 0.000695158 0)
(0.00486427 0.00069503 0)
(0.00347432 0.000694933 0)
(0.00208453 0.000694868 0)
(0.000694839 0.000694835 0)
(0.00065872 -0.00197627 0)
(0.0019762 -0.00197638 0)
(0.00329377 -0.00197659 0)
(0.00461151 -0.00197691 0)
(0.00592951 -0.00197733 0)
(0.00724782 -0.00197786 0)
(0.00856652 -0.00197849 0)
(0.00988567 -0.00197922 0)
(0.0112053 -0.00198006 0)
(0.0125256 -0.00198099 0)
(0.0138465 -0.00198202 0)
(0.0151682 -0.00198314 0)
(0.0164906 -0.00198435 0)
(0.0178139 -0.00198566 0)
(0.019138 -0.00198705 0)
(0.0204631 -0.00198852 0)
(0.0217893 -0.00199008 0)
(0.0231165 -0.00199171 0)
(0.0244448 -0.00199342 0)
(0.0257742 -0.00199519 0)
(0.0271049 -0.00199703 0)
(0.0284369 -0.00199893 0)
(0.0297701 -0.00200089 0)
(0.0311046 -0.00200289 0)
(0.0324405 -0.00200494 0)
(0.0337778 -0.00200703 0)
(0.0351165 -0.00200915 0)
(0.0364567 -0.0020113 0)
(0.0377982 -0.00201347 0)
(0.0391413 -0.00201565 0)
(0.0404857 -0.00201784 0)
(0.0418317 -0.00202003 0)
(0.0431791 -0.00202221 0)
(0.044528 -0.00202437 0)
(0.0458783 -0.0020265 0)
(0.04723 -0.00202859 0)
(0.0485831 -0.00203064 0)
(0.0499376 -0.00203264 0)
(0.0512934 -0.00203457 0)
(0.0526504 -0.00203643 0)
(0.0540087 -0.00203819 0)
(0.0553681 -0.00203986 0)
(0.0567286 -0.00204142 0)
(0.0580901 -0.00204286 0)
(0.0594526 -0.00204416 0)
(0.0608159 -0.00204531 0)
(0.0621798 -0.0020463 0)
(0.0635445 -0.00204712 0)
(0.0649096 -0.00204775 0)
(0.066275 -0.00204817 0)
(0.0676407 -0.00204837 0)
(0.0690064 -0.00204833 0)
(0.0703721 -0.00204804 0)
(0.0717375 -0.00204748 0)
(0.0731024 -0.00204664 0)
(0.0744667 -0.00204549 0)
(0.0758301 -0.00204403 0)
(0.0771924 -0.00204222 0)
(0.0785535 -0.00204006 0)
(0.079913 -0.00203751 0)
(0.0812706 -0.00203458 0)
(0.0826262 -0.00203122 0)
(0.0839794 -0.00202743 0)
(0.08533 -0.00202319 0)
(0.0866776 -0.00201846 0)
(0.0880219 -0.00201324 0)
(0.0893625 -0.0020075 0)
(0.0906992 -0.00200122 0)
(0.0920315 -0.00199438 0)
(0.0933591 -0.00198696 0)
(0.0946815 -0.00197893 0)
(0.0959984 -0.00197028 0)
(0.0973093 -0.00196098 0)
(0.0986138 -0.00195101 0)
(0.0999115 -0.00194035 0)
(0.101202 -0.00192898 0)
(0.102484 -0.00191688 0)
(0.103759 -0.00190402 0)
(0.105024 -0.00189039 0)
(0.10628 -0.00187597 0)
(0.107526 -0.00186073 0)
(0.108762 -0.00184466 0)
(0.109987 -0.00182774 0)
(0.1112 -0.00180995 0)
(0.112401 -0.00179127 0)
(0.113589 -0.00177169 0)
(0.114764 -0.00175119 0)
(0.115926 -0.00172976 0)
(0.117072 -0.00170739 0)
(0.118203 -0.00168405 0)
(0.119319 -0.00165975 0)
(0.120417 -0.00163446 0)
(0.121499 -0.00160819 0)
(0.122563 -0.00158092 0)
(0.123608 -0.00155265 0)
(0.124634 -0.00152337 0)
(0.12564 -0.00149309 0)
(0.126626 -0.00146179 0)
(0.127591 -0.00142948 0)
(0.128533 -0.00139616 0)
(0.129454 -0.00136185 0)
(0.13035 -0.00132653 0)
(0.131223 -0.00129022 0)
(0.132072 -0.00125294 0)
(0.132895 -0.00121468 0)
(0.133693 -0.00117547 0)
(0.134464 -0.00113533 0)
(0.135208 -0.00109426 0)
(0.135924 -0.00105229 0)
(0.136612 -0.00100944 0)
(0.137271 -0.00096574 0)
(0.1379 -0.000921208 0)
(0.1385 -0.000875876 0)
(0.139069 -0.000829772 0)
(0.139607 -0.000782928 0)
(0.140114 -0.000735379 0)
(0.140589 -0.000687159 0)
(0.141031 -0.000638305 0)
(0.14144 -0.000588857 0)
(0.141817 -0.000538855 0)
(0.142159 -0.00048834 0)
(0.142468 -0.000437355 0)
(0.142743 -0.000385945 0)
(0.142983 -0.000334156 0)
(0.143189 -0.000282033 0)
(0.14336 -0.000229624 0)
(0.143496 -0.000176978 0)
(0.143596 -0.000124143 0)
(0.143661 -7.11686e-05 0)
(0.143691 -1.81041e-05 0)
(0.143685 3.50002e-05 0)
(0.143644 8.80945e-05 0)
(0.143568 0.000141129 0)
(0.143456 0.000194054 0)
(0.143309 0.000246821 0)
(0.143127 0.00029938 0)
(0.14291 0.000351683 0)
(0.142657 0.000403683 0)
(0.142371 0.000455334 0)
(0.14205 0.00050659 0)
(0.141695 0.000557406 0)
(0.141306 0.000607739 0)
(0.140884 0.000657549 0)
(0.140429 0.000706793 0)
(0.139941 0.000755435 0)
(0.139421 0.000803435 0)
(0.138869 0.00085076 0)
(0.138285 0.000897375 0)
(0.137671 0.000943248 0)
(0.137027 0.000988349 0)
(0.136353 0.00103265 0)
(0.135649 0.00107613 0)
(0.134917 0.00111875 0)
(0.134156 0.0011605 0)
(0.133368 0.00120137 0)
(0.132553 0.00124131 0)
(0.131712 0.00128034 0)
(0.130845 0.00131842 0)
(0.129953 0.00135554 0)
(0.129036 0.00139171 0)
(0.128096 0.0014269 0)
(0.127133 0.00146111 0)
(0.126147 0.00149433 0)
(0.125139 0.00152657 0)
(0.12411 0.00155782 0)
(0.123061 0.00158809 0)
(0.121991 0.00161736 0)
(0.120903 0.00164565 0)
(0.119796 0.00167297 0)
(0.118671 0.00169931 0)
(0.117529 0.00172469 0)
(0.11637 0.00174911 0)
(0.115196 0.00177259 0)
(0.114006 0.00179513 0)
(0.112801 0.00181676 0)
(0.111582 0.00183747 0)
(0.11035 0.00185729 0)
(0.109105 0.00187623 0)
(0.107847 0.00189431 0)
(0.106578 0.00191154 0)
(0.105298 0.00192794 0)
(0.104006 0.00194352 0)
(0.102705 0.00195832 0)
(0.101394 0.00197234 0)
(0.100074 0.0019856 0)
(0.098746 0.00199813 0)
(0.0974094 0.00200994 0)
(0.0960652 0.00202105 0)
(0.0947138 0.00203149 0)
(0.0933557 0.00204128 0)
(0.0919913 0.00205042 0)
(0.0906211 0.00205896 0)
(0.0892453 0.00206689 0)
(0.0878645 0.00207426 0)
(0.0864789 0.00208107 0)
(0.0850891 0.00208735 0)
(0.0836952 0.00209312 0)
(0.0822976 0.00209839 0)
(0.0808967 0.00210319 0)
(0.0794928 0.00210754 0)
(0.0780861 0.00211145 0)
(0.076677 0.00211496 0)
(0.0752657 0.00211806 0)
(0.0738524 0.00212079 0)
(0.0724375 0.00212316 0)
(0.0710211 0.0021252 0)
(0.0696035 0.00212691 0)
(0.0681848 0.00212831 0)
(0.0667654 0.00212943 0)
(0.0653453 0.00213028 0)
(0.0639247 0.00213087 0)
(0.0625038 0.00213123 0)
(0.0610827 0.00213136 0)
(0.0596617 0.00213128 0)
(0.0582408 0.00213101 0)
(0.0568201 0.00213056 0)
(0.0553998 0.00212995 0)
(0.05398 0.00212919 0)
(0.0525607 0.00212828 0)
(0.0511421 0.00212726 0)
(0.0497242 0.00212612 0)
(0.0483071 0.00212488 0)
(0.0468909 0.00212355 0)
(0.0454756 0.00212215 0)
(0.0440613 0.00212067 0)
(0.042648 0.00211915 0)
(0.0412357 0.00211757 0)
(0.0398245 0.00211596 0)
(0.0384144 0.00211433 0)
(0.0370053 0.00211267 0)
(0.0355974 0.00211101 0)
(0.0341906 0.00210934 0)
(0.032785 0.00210769 0)
(0.0313804 0.00210604 0)
(0.0299769 0.00210442 0)
(0.0285745 0.00210283 0)
(0.0271732 0.00210127 0)
(0.0257728 0.00209975 0)
(0.0243735 0.00209828 0)
(0.0229752 0.00209686 0)
(0.0215778 0.0020955 0)
(0.0201812 0.0020942 0)
(0.0187856 0.00209297 0)
(0.0173907 0.00209181 0)
(0.0159966 0.00209072 0)
(0.0146031 0.00208971 0)
(0.0132104 0.00208879 0)
(0.0118182 0.00208794 0)
(0.0104265 0.00208719 0)
(0.00903534 0.00208652 0)
(0.00764458 0.00208595 0)
(0.00625417 0.00208547 0)
(0.00486405 0.00208508 0)
(0.00347416 0.00208479 0)
(0.00208444 0.0020846 0)
(0.000694807 0.0020845 0)
(0.000658643 -0.00329367 0)
(0.00197598 -0.00329385 0)
(0.00329342 -0.0032942 0)
(0.00461103 -0.00329472 0)
(0.00592888 -0.00329543 0)
(0.00724706 -0.00329631 0)
(0.00856562 -0.00329736 0)
(0.00988464 -0.00329858 0)
(0.0112042 -0.00329997 0)
(0.0125243 -0.00330152 0)
(0.0138451 -0.00330324 0)
(0.0151666 -0.00330511 0)
(0.0164889 -0.00330714 0)
(0.0178121 -0.00330931 0)
(0.0191361 -0.00331164 0)
(0.0204611 -0.0033141 0)
(0.0217872 -0.00331669 0)
(0.0231143 -0.00331942 0)
(0.0244425 -0.00332227 0)
(0.0257719 -0.00332523 0)
(0.0271025 -0.0033283 0)
(0.0284343 -0.00333147 0)
(0.0297675 -0.00333473 0)
(0.031102 -0.00333808 0)
(0.0324378 -0.00334151 0)
(0.0337751 -0.003345 0)
(0.0351137 -0.00334854 0)
(0.0364538 -0.00335213 0)
(0.0377954 -0.00335575 0)
(0.0391384 -0.0033594 0)
(0.0404829 -0.00336305 0)
(0.0418288 -0.00336671 0)
(0.0431763 -0.00337034 0)
(0.0445251 -0.00337395 0)
(0.0458755 -0.00337752 0)
(0.0472273 -0.00338102 0)
(0.0485804 -0.00338445 0)
(0.049935 -0.00338779 0)
(0.0512909 -0.00339102 0)
(0.052648 -0.00339412 0)
(0.0540064 -0.00339708 0)
(0.055366 -0.00339987 0)
(0.0567267 -0.00340249 0)
(0.0580884 -0.00340489 0)
(0.059451 -0.00340708 0)
(0.0608145 -0.00340902 0)
(0.0621787 -0.00341068 0)
(0.0635435 -0.00341206 0)
(0.0649089 -0.00341312 0)
(0.0662746 -0.00341383 0)
(0.0676406 -0.00341418 0)
(0.0690067 -0.00341414 0)
(0.0703727 -0.00341368 0)
(0.0717385 -0.00341277 0)
(0.0731038 -0.00341138 0)
(0.0744685 -0.00340949 0)
(0.0758323 -0.00340707 0)
(0.0771951 -0.00340408 0)
(0.0785567 -0.00340049 0)
(0.0799167 -0.00339627 0)
(0.0812749 -0.0033914 0)
(0.082631 -0.00338583 0)
(0.0839848 -0.00337954 0)
(0.085336 -0.00337248 0)
(0.0866843 -0.00336463 0)
(0.0880292 -0.00335596 0)
(0.0893706 -0.00334642 0)
(0.090708 -0.00333597 0)
(0.092041 -0.0033246 0)
(0.0933694 -0.00331225 0)
(0.0946927 -0.0032989 0)
(0.0960104 -0.0032845 0)
(0.0973222 -0.00326902 0)
(0.0986276 -0.00325243 0)
(0.0999262 -0.00323469 0)
(0.101218 -0.00321576 0)
(0.102501 -0.00319561 0)
(0.103776 -0.00317421 0)
(0.105043 -0.00315151 0)
(0.1063 -0.00312749 0)
(0.107547 -0.00310212 0)
(0.108784 -0.00307535 0)
(0.11001 -0.00304717 0)
(0.111224 -0.00301754 0)
(0.112427 -0.00298643 0)
(0.113616 -0.00295381 0)
(0.114792 -0.00291967 0)
(0.115955 -0.00288396 0)
(0.117102 -0.00284668 0)
(0.118235 -0.00280781 0)
(0.119352 -0.00276731 0)
(0.120452 -0.00272518 0)
(0.121535 -0.0026814 0)
(0.1226 -0.00263595 0)
(0.123647 -0.00258884 0)
(0.124674 -0.00254005 0)
(0.125682 -0.00248957 0)
(0.126669 -0.0024374 0)
(0.127635 -0.00238356 0)
(0.128579 -0.00232803 0)
(0.1295 -0.00227082 0)
(0.130398 -0.00221195 0)
(0.131273 -0.00215143 0)
(0.132122 -0.00208927 0)
(0.132947 -0.0020255 0)
(0.133746 -0.00196013 0)
(0.134518 -0.0018932 0)
(0.135263 -0.00182473 0)
(0.13598 -0.00175476 0)
(0.136669 -0.00168332 0)
(0.13733 -0.00161045 0)
(0.13796 -0.0015362 0)
(0.138561 -0.00146062 0)
(0.139131 -0.00138374 0)
(0.13967 -0.00130563 0)
(0.140178 -0.00122634 0)
(0.140653 -0.00114594 0)
(0.141096 -0.00106447 0)
(0.141507 -0.000982012 0)
(0.141884 -0.000898628 0)
(0.142227 -0.000814388 0)
(0.142537 -0.000729364 0)
(0.142812 -0.000643631 0)
(0.143053 -0.000557263 0)
(0.143259 -0.000470339 0)
(0.14343 -0.000382938 0)
(0.143566 -0.00029514 0)
(0.143667 -0.000207027 0)
(0.143732 -0.000118682 0)
(0.143762 -3.01857e-05 0)
(0.143756 5.83769e-05 0)
(0.143715 0.000146923 0)
(0.143639 0.000235369 0)
(0.143527 0.000323632 0)
(0.143379 0.00041163 0)
(0.143197 0.000499282 0)
(0.142979 0.000586507 0)
(0.142727 0.000673225 0)
(0.14244 0.00075936 0)
(0.142118 0.000844835 0)
(0.141762 0.000929576 0)
(0.141373 0.00101351 0)
(0.14095 0.00109657 0)
(0.140494 0.00117869 0)
(0.140005 0.0012598 0)
(0.139484 0.00133984 0)
(0.138931 0.00141875 0)
(0.138347 0.00149648 0)
(0.137732 0.00157297 0)
(0.137087 0.00164817 0)
(0.136411 0.00172203 0)
(0.135706 0.00179452 0)
(0.134973 0.00186558 0)
(0.134211 0.00193519 0)
(0.133422 0.00200331 0)
(0.132606 0.00206992 0)
(0.131764 0.00213497 0)
(0.130895 0.00219845 0)
(0.130002 0.00226034 0)
(0.129084 0.00232062 0)
(0.128143 0.00237928 0)
(0.127178 0.0024363 0)
(0.126191 0.00249168 0)
(0.125181 0.00254541 0)
(0.124151 0.0025975 0)
(0.123101 0.00264793 0)
(0.12203 0.00269672 0)
(0.12094 0.00274387 0)
(0.119832 0.00278939 0)
(0.118706 0.00283328 0)
(0.117562 0.00287557 0)
(0.116402 0.00291626 0)
(0.115227 0.00295538 0)
(0.114035 0.00299294 0)
(0.112829 0.00302896 0)
(0.111609 0.00306347 0)
(0.110376 0.00309648 0)
(0.10913 0.00312803 0)
(0.107871 0.00315814 0)
(0.106601 0.00318684 0)
(0.105319 0.00321415 0)
(0.104027 0.00324011 0)
(0.102725 0.00326475 0)
(0.101413 0.00328809 0)
(0.100092 0.00331018 0)
(0.0987623 0.00333103 0)
(0.0974248 0.0033507 0)
(0.0960797 0.0033692 0)
(0.0947274 0.00338657 0)
(0.0933685 0.00340285 0)
(0.0920032 0.00341808 0)
(0.0906321 0.00343227 0)
(0.0892556 0.00344548 0)
(0.087874 0.00345773 0)
(0.0864878 0.00346906 0)
(0.0850972 0.00347951 0)
(0.0837026 0.00348909 0)
(0.0823044 0.00349786 0)
(0.0809029 0.00350584 0)
(0.0794984 0.00351307 0)
(0.0780912 0.00351957 0)
(0.0766815 0.00352539 0)
(0.0752697 0.00353054 0)
(0.0738559 0.00353507 0)
(0.0724405 0.00353901 0)
(0.0710237 0.00354237 0)
(0.0696057 0.00354521 0)
(0.0681866 0.00354753 0)
(0.0667668 0.00354937 0)
(0.0653463 0.00355077 0)
(0.0639254 0.00355174 0)
(0.0625042 0.00355231 0)
(0.0610829 0.00355251 0)
(0.0596616 0.00355237 0)
(0.0582404 0.0035519 0)
(0.0568195 0.00355114 0)
(0.055399 0.0035501 0)
(0.053979 0.00354882 0)
(0.0525595 0.0035473 0)
(0.0511407 0.00354558 0)
(0.0497227 0.00354366 0)
(0.0483055 0.00354159 0)
(0.0468892 0.00353936 0)
(0.0454738 0.00353701 0)
(0.0440594 0.00353454 0)
(0.042646 0.00353198 0)
(0.0412336 0.00352935 0)
(0.0398224 0.00352666 0)
(0.0384122 0.00352392 0)
(0.0370032 0.00352115 0)
(0.0355953 0.00351837 0)
(0.0341885 0.00351559 0)
(0.0327828 0.00351282 0)
(0.0313783 0.00351007 0)
(0.0299748 0.00350736 0)
(0.0285725 0.0035047 0)
(0.0271712 0.00350209 0)
(0.0257709 0.00349956 0)
(0.0243716 0.0034971 0)
(0.0229734 0.00349473 0)
(0.021576 0.00349246 0)
(0.0201796 0.00349029 0)
(0.018784 0.00348823 0)
(0.0173892 0.00348629 0)
(0.0159952 0.00348447 0)
(0.0146019 0.00348279 0)
(0.0132092 0.00348124 0)
(0.0118171 0.00347983 0)
(0.0104256 0.00347857 0)
(0.00903452 0.00347746 0)
(0.00764388 0.0034765 0)
(0.0062536 0.0034757 0)
(0.00486361 0.00347505 0)
(0.00347384 0.00347457 0)
(0.00208425 0.00347424 0)
(0.000694743 0.00347408 0)
(0.000658536 -0.00461091 0)
(0.00197566 -0.00461115 0)
(0.00329289 -0.00461164 0)
(0.00461029 -0.00461237 0)
(0.00592794 -0.00461336 0)
(0.00724591 -0.00461459 0)
(0.00856427 -0.00461607 0)
(0.00988309 -0.00461778 0)
(0.0112024 -0.00461973 0)
(0.0125224 -0.00462191 0)
(0.013843 -0.00462431 0)
(0.0151643 -0.00462694 0)
(0.0164864 -0.00462978 0)
(0.0178094 -0.00463284 0)
(0.0191333 -0.0046361 0)
(0.0204581 -0.00463955 0)
(0.021784 -0.00464319 0)
(0.0231109 -0.00464702 0)
(0.024439 -0.00465101 0)
(0.0257683 -0.00465517 0)
(0.0270988 -0.00465948 0)
(0.0284305 -0.00466393 0)
(0.0297635 -0.00466851 0)
(0.0310979 -0.00467321 0)
(0.0324337 -0.00467802 0)
(0.0337709 -0.00468292 0)
(0.0351095 -0.00468789 0)
(0.0364495 -0.00469294 0)
(0.037791 -0.00469802 0)
(0.039134 -0.00470315 0)
(0.0404785 -0.00470828 0)
(0.0418245 -0.00471341 0)
(0.0431719 -0.00471853 0)
(0.0445209 -0.0047236 0)
(0.0458713 -0.00472861 0)
(0.0472232 -0.00473354 0)
(0.0485764 -0.00473836 0)
(0.0499311 -0.00474306 0)
(0.0512871 -0.0047476 0)
(0.0526444 -0.00475197 0)
(0.054003 -0.00475614 0)
(0.0553628 -0.00476008 0)
(0.0567237 -0.00476377 0)
(0.0580857 -0.00476717 0)
(0.0594486 -0.00477026 0)
(0.0608124 -0.004773 0)
(0.0621769 -0.00477537 0)
(0.0635421 -0.00477733 0)
(0.0649079 -0.00477884 0)
(0.0662741 -0.00477988 0)
(0.0676405 -0.00478041 0)
(0.0690071 -0.00478039 0)
(0.0703736 -0.00477978 0)
(0.0717399 -0.00477855 0)
(0.0731058 -0.00477665 0)
(0.0744711 -0.00477404 0)
(0.0758356 -0.00477069 0)
(0.0771991 -0.00476654 0)
(0.0785614 -0.00476157 0)
(0.0799222 -0.00475571 0)
(0.0812812 -0.00474893 0)
(0.0826382 -0.00474118 0)
(0.0839929 -0.00473242 0)
(0.085345 -0.00472259 0)
(0.0866942 -0.00471165 0)
(0.0880402 -0.00469955 0)
(0.0893826 -0.00468624 0)
(0.0907211 -0.00467167 0)
(0.0920553 -0.0046558 0)
(0.0933849 -0.00463856 0)
(0.0947094 -0.00461992 0)
(0.0960284 -0.00459981 0)
(0.0973415 -0.00457819 0)
(0.0986483 -0.00455501 0)
(0.0999483 -0.00453023 0)
(0.101241 -0.00450378 0)
(0.102526 -0.00447562 0)
(0.103803 -0.0044457 0)
(0.105071 -0.00441397 0)
(0.10633 -0.00438039 0)
(0.107579 -0.00434491 0)
(0.108817 -0.00430748 0)
(0.110045 -0.00426807 0)
(0.111261 -0.00422662 0)
(0.112465 -0.00418311 0)
(0.113656 -0.00413748 0)
(0.114834 -0.00408971 0)
(0.115999 -0.00403976 0)
(0.117148 -0.0039876 0)
(0.118283 -0.00393319 0)
(0.119401 -0.00387652 0)
(0.120503 -0.00381756 0)
(0.121588 -0.00375628 0)
(0.122656 -0.00369267 0)
(0.123704 -0.00362672 0)
(0.124734 -0.00355842 0)
(0.125743 -0.00348775 0)
(0.126732 -0.00341472 0)
(0.1277 -0.00333933 0)
(0.128646 -0.00326158 0)
(0.12957 -0.00318148 0)
(0.13047 -0.00309904 0)
(0.131346 -0.00301429 0)
(0.132198 -0.00292724 0)
(0.133025 -0.00283793 0)
(0.133825 -0.00274638 0)
(0.134599 -0.00265263 0)
(0.135346 -0.00255673 0)
(0.136065 -0.00245872 0)
(0.136756 -0.00235865 0)
(0.137418 -0.00225657 0)
(0.13805 -0.00215256 0)
(0.138653 -0.00204666 0)
(0.139224 -0.00193897 0)
(0.139765 -0.00182953 0)
(0.140274 -0.00171845 0)
(0.140751 -0.00160579 0)
(0.141195 -0.00149165 0)
(0.141606 -0.00137611 0)
(0.141985 -0.00125928 0)
(0.142329 -0.00114124 0)
(0.142639 -0.0010221 0)
(0.142915 -0.000901971 0)
(0.143157 -0.000780948 0)
(0.143364 -0.000659144 0)
(0.143535 -0.00053667 0)
(0.143672 -0.00041364 0)
(0.143773 -0.000290166 0)
(0.143838 -0.000166366 0)
(0.143868 -4.23558e-05 0)
(0.143863 8.17484e-05 0)
(0.143822 0.000205829 0)
(0.143745 0.00032977 0)
(0.143633 0.000453453 0)
(0.143485 0.000576765 0)
(0.143302 0.000699589 0)
(0.143084 0.000821814 0)
(0.142831 0.000943329 0)
(0.142543 0.00106402 0)
(0.14222 0.00118379 0)
(0.141864 0.00130253 0)
(0.141473 0.00142014 0)
(0.141049 0.00153652 0)
(0.140592 0.00165157 0)
(0.140102 0.00176521 0)
(0.13958 0.00187735 0)
(0.139026 0.00198791 0)
(0.13844 0.0020968 0)
(0.137823 0.00220395 0)
(0.137176 0.0023093 0)
(0.136499 0.00241277 0)
(0.135793 0.00251431 0)
(0.135058 0.00261385 0)
(0.134294 0.00271135 0)
(0.133503 0.00280677 0)
(0.132685 0.00290004 0)
(0.131841 0.00299115 0)
(0.130971 0.00308005 0)
(0.130075 0.00316672 0)
(0.129156 0.00325114 0)
(0.128212 0.00333327 0)
(0.127245 0.00341312 0)
(0.126256 0.00349066 0)
(0.125245 0.00356589 0)
(0.124213 0.0036388 0)
(0.12316 0.00370941 0)
(0.122088 0.0037777 0)
(0.120996 0.0038437 0)
(0.119886 0.00390741 0)
(0.118758 0.00396884 0)
(0.117612 0.00402802 0)
(0.11645 0.00408497 0)
(0.115273 0.00413971 0)
(0.11408 0.00419226 0)
(0.112872 0.00424266 0)
(0.11165 0.00429094 0)
(0.110415 0.00433713 0)
(0.109167 0.00438126 0)
(0.107906 0.00442337 0)
(0.106634 0.00446351 0)
(0.105351 0.0045017 0)
(0.104057 0.00453801 0)
(0.102753 0.00457245 0)
(0.10144 0.00460509 0)
(0.100118 0.00463596 0)
(0.0987868 0.00466512 0)
(0.0974478 0.0046926 0)
(0.0961014 0.00471845 0)
(0.0947478 0.00474273 0)
(0.0933875 0.00476548 0)
(0.092021 0.00478674 0)
(0.0906487 0.00480657 0)
(0.089271 0.00482501 0)
(0.0878883 0.00484212 0)
(0.086501 0.00485793 0)
(0.0851093 0.00487251 0)
(0.0837138 0.00488588 0)
(0.0823146 0.00489811 0)
(0.0809122 0.00490924 0)
(0.0795068 0.00491931 0)
(0.0780987 0.00492837 0)
(0.0766882 0.00493646 0)
(0.0752756 0.00494364 0)
(0.0738611 0.00494994 0)
(0.072445 0.0049554 0)
(0.0710276 0.00496008 0)
(0.0696089 0.004964 0)
(0.0681893 0.00496721 0)
(0.0667688 0.00496976 0)
(0.0653479 0.00497167 0)
(0.0639264 0.00497299 0)
(0.0625048 0.00497376 0)
(0.061083 0.004974 0)
(0.0596613 0.00497377 0)
(0.0582398 0.00497308 0)
(0.0568185 0.00497198 0)
(0.0553977 0.0049705 0)
(0.0539774 0.00496867 0)
(0.0525577 0.00496651 0)
(0.0511387 0.00496407 0)
(0.0497204 0.00496137 0)
(0.048303 0.00495843 0)
(0.0468865 0.00495529 0)
(0.045471 0.00495197 0)
(0.0440565 0.00494849 0)
(0.042643 0.00494489 0)
(0.0412305 0.00494118 0)
(0.0398192 0.00493739 0)
(0.038409 0.00493353 0)
(0.0369999 0.00492964 0)
(0.035592 0.00492573 0)
(0.0341852 0.00492181 0)
(0.0327796 0.00491791 0)
(0.0313751 0.00491405 0)
(0.0299717 0.00491024 0)
(0.0285694 0.0049065 0)
(0.0271681 0.00490284 0)
(0.025768 0.00489928 0)
(0.0243688 0.00489582 0)
(0.0229706 0.00489249 0)
(0.0215734 0.0048893 0)
(0.0201771 0.00488625 0)
(0.0187816 0.00488336 0)
(0.017387 0.00488063 0)
(0.0159931 0.00487808 0)
(0.0146 0.00487572 0)
(0.0132075 0.00487355 0)
(0.0118155 0.00487157 0)
(0.0104242 0.0048698 0)
(0.0090333 0.00486824 0)
(0.00764285 0.00486689 0)
(0.00625274 0.00486576 0)
(0.00486294 0.00486485 0)
(0.00347336 0.00486417 0)
(0.00208396 0.00486371 0)
(0.000694647 0.00486349 0)
(0.000658394 -0.00592789 0)
(0.00197523 -0.0059282 0)
(0.00329218 -0.00592883 0)
(0.0046093 -0.00592978 0)
(0.00592668 -0.00593105 0)
(0.00724437 -0.00593264 0)
(0.00856246 -0.00593454 0)
(0.00988101 -0.00593675 0)
(0.0112001 -0.00593926 0)
(0.0125198 -0.00594207 0)
(0.0138401 -0.00594517 0)
(0.0151612 -0.00594856 0)
(0.0164831 -0.00595222 0)
(0.0178058 -0.00595616 0)
(0.0191295 -0.00596036 0)
(0.0204541 -0.00596482 0)
(0.0217798 -0.00596952 0)
(0.0231065 -0.00597445 0)
(0.0244344 -0.0059796 0)
(0.0257635 -0.00598496 0)
(0.0270938 -0.00599052 0)
(0.0284254 -0.00599626 0)
(0.0297583 -0.00600218 0)
(0.0310925 -0.00600824 0)
(0.0324282 -0.00601444 0)
(0.0337653 -0.00602076 0)
(0.0351038 -0.00602719 0)
(0.0364438 -0.0060337 0)
(0.0377852 -0.00604027 0)
(0.0391282 -0.00604688 0)
(0.0404727 -0.00605351 0)
(0.0418187 -0.00606015 0)
(0.0431662 -0.00606675 0)
(0.0445152 -0.00607331 0)
(0.0458657 -0.00607978 0)
(0.0472176 -0.00608616 0)
(0.048571 -0.0060924 0)
(0.0499259 -0.00609848 0)
(0.0512821 -0.00610436 0)
(0.0526396 -0.00611003 0)
(0.0539985 -0.00611543 0)
(0.0553585 -0.00612055 0)
(0.0567197 -0.00612534 0)
(0.058082 -0.00612976 0)
(0.0594453 -0.00613378 0)
(0.0608095 -0.00613736 0)
(0.0621745 -0.00614046 0)
(0.0635402 -0.00614304 0)
(0.0649065 -0.00614505 0)
(0.0662732 -0.00614645 0)
(0.0676403 -0.00614719 0)
(0.0690075 -0.00614723 0)
(0.0703747 -0.00614651 0)
(0.0717417 -0.00614499 0)
(0.0731084 -0.00614262 0)
(0.0744746 -0.00613934 0)
(0.07584 -0.0061351 0)
(0.0772044 -0.00612985 0)
(0.0785677 -0.00612352 0)
(0.0799295 -0.00611607 0)
(0.0812896 -0.00610743 0)
(0.0826477 -0.00609755 0)
(0.0840036 -0.00608636 0)
(0.085357 -0.00607381 0)
(0.0867075 -0.00605983 0)
(0.0880548 -0.00604436 0)
(0.0893986 -0.00602733 0)
(0.0907386 -0.00600868 0)
(0.0920743 -0.00598836 0)
(0.0934055 -0.00596628 0)
(0.0947316 -0.0059424 0)
(0.0960523 -0.00591663 0)
(0.0973672 -0.00588893 0)
(0.0986758 -0.00585921 0)
(0.0999776 -0.00582743 0)
(0.101272 -0.0057935 0)
(0.102559 -0.00575738 0)
(0.103838 -0.00571899 0)
(0.105108 -0.00567828 0)
(0.106369 -0.00563519 0)
(0.10762 -0.00558964 0)
(0.108861 -0.0055416 0)
(0.110091 -0.005491 0)
(0.11131 -0.00543778 0)
(0.112516 -0.00538189 0)
(0.11371 -0.0053233 0)
(0.11489 -0.00526193 0)
(0.116057 -0.00519777 0)
(0.117209 -0.00513075 0)
(0.118346 -0.00506085 0)
(0.119468 -0.00498802 0)
(0.120572 -0.00491225 0)
(0.12166 -0.00483349 0)
(0.12273 -0.00475174 0)
(0.123781 -0.00466696 0)
(0.124813 -0.00457916 0)
(0.125826 -0.0044883 0)
(0.126817 -0.00439441 0)
(0.127788 -0.00429746 0)
(0.128737 -0.00419748 0)
(0.129663 -0.00409447 0)
(0.130566 -0.00398845 0)
(0.131445 -0.00387944 0)
(0.132299 -0.00376748 0)
(0.133128 -0.00365259 0)
(0.133931 -0.00353482 0)
(0.134708 -0.00341422 0)
(0.135457 -0.00329084 0)
(0.136179 -0.00316473 0)
(0.136872 -0.00303598 0)
(0.137536 -0.00290463 0)
(0.13817 -0.00277079 0)
(0.138775 -0.00263452 0)
(0.139349 -0.00249592 0)
(0.139891 -0.00235509 0)
(0.140402 -0.00221212 0)
(0.14088 -0.00206713 0)
(0.141326 -0.00192022 0)
(0.141739 -0.00177151 0)
(0.142119 -0.00162113 0)
(0.142465 -0.0014692 0)
(0.142776 -0.00131584 0)
(0.143053 -0.0011612 0)
(0.143296 -0.00100542 0)
(0.143503 -0.000848621 0)
(0.143676 -0.000690961 0)
(0.143813 -0.000532584 0)
(0.143914 -0.000373635 0)
(0.14398 -0.000214264 0)