/*--------------------------------*- C++ -*----------------------------------*\
| =========                 |                                                 |
| \\      /  F ield         | OpenFOAM: The Open Source CFD Toolbox           |
|  \\    /   O peration     | Version:  v2012                                 |
|   \\  /    A nd           | Website:  www.openfoam.com                      |
|    \\/     M anipulation  |                                                 |
\*---------------------------------------------------------------------------*/
FoamFile
{
    version     2.0;
    format      ascii;
    class       volVectorField;
    location    "70";
    object      Usup;
}
// * * * * * * * * * * * * * * * * * * * * * * * * * * * * * * * * * * * * * //

dimensions      [0 1 -1 0 0 0 0];


internalField   nonuniform List<vector> 
4000
(
(-5.05884e-17 -5.49592e-17 0)
(-3.03746e-16 3.46345e-16 0)
(-3.56749e-16 4.43327e-16 0)
(-2.24919e-16 4.17884e-16 0)
(-8.37575e-16 4.30181e-16 0)
(-1.52161e-15 7.33809e-16 0)
(-1.82044e-15 8.2464e-16 0)
(-1.87362e-15 1.05618e-15 0)
(-1.68988e-15 1.25861e-15 0)
(-1.6778e-15 1.12908e-15 0)
(-1.77786e-15 9.9668e-16 0)
(-2.30507e-15 7.67944e-16 0)
(-2.85975e-15 1.19808e-15 0)
(-3.09559e-15 1.65952e-15 0)
(-2.98915e-15 1.75245e-15 0)
(-2.6172e-15 1.67086e-15 0)
(-2.56496e-15 1.55645e-15 0)
(-2.6855e-15 1.27341e-15 0)
(-2.62816e-15 1.02378e-15 0)
(-2.89161e-15 1.11047e-15 0)
(-3.04321e-15 1.23573e-15 0)
(-2.24215e-15 1.41327e-15 0)
(-1.81996e-15 9.39068e-16 0)
(-1.6226e-15 9.85325e-16 0)
(-1.28372e-15 9.16391e-16 0)
(-9.97258e-16 1.25111e-15 0)
(-7.97744e-16 1.18384e-15 0)
(-1.17389e-15 1.08831e-15 0)
(-1.08802e-15 8.39045e-16 0)
(-7.90385e-16 6.18653e-16 0)
(-8.79284e-16 6.933e-16 0)
(-9.91573e-16 5.1011e-16 0)
(-9.73865e-16 2.29523e-16 0)
(-8.89465e-16 -2.70553e-16 0)
(-1.03114e-15 -3.9049e-16 0)
(-1.12246e-15 -2.13942e-16 0)
(-1.55349e-15 -4.80758e-16 0)
(-2.15761e-15 -2.72638e-16 0)
(-1.59689e-15 -9.84546e-17 0)
(-3.34698e-16 -4.47806e-16 0)
(3.57609e-16 -8.70053e-16 0)
(6.32893e-16 -1.11351e-15 0)
(1.13677e-15 -1.34734e-15 0)
(9.8836e-16 -1.49733e-15 0)
(6.75873e-16 -1.48075e-15 0)
(8.16915e-16 -1.69121e-15 0)
(1.22856e-15 -1.83681e-15 0)
(1.87471e-15 -1.98997e-15 0)
(1.9707e-15 -1.98147e-15 0)
(2.20342e-15 -2.00014e-15 0)
(2.55247e-15 -1.97183e-15 0)
(2.62239e-15 -1.8579e-15 0)
(3.06802e-15 -1.55394e-15 0)
(3.21997e-15 -1.8145e-15 0)
(3.15835e-15 -1.50086e-15 0)
(3.55238e-15 -1.34086e-15 0)
(4.36674e-15 -1.49489e-15 0)
(5.3139e-15 -1.66457e-15 0)
(5.5286e-15 -1.84725e-15 0)
(5.46385e-15 -1.77687e-15 0)
(5.03289e-15 -1.43696e-15 0)
(4.27419e-15 -1.10618e-15 0)
(4.19494e-15 -9.86643e-16 0)
(4.52709e-15 -7.20497e-16 0)
(4.93947e-15 -6.32209e-16 0)
(5.30233e-15 -8.13216e-16 0)
(5.4376e-15 -8.12326e-16 0)
(5.85354e-15 -5.84351e-16 0)
(6.30063e-15 -5.17916e-16 0)
(6.38327e-15 -4.7806e-16 0)
(6.8656e-15 -9.25905e-17 0)
(6.95178e-15 -5.40891e-16 0)
(6.67626e-15 -5.31549e-16 0)
(7.00701e-15 -3.39068e-16 0)
(7.38377e-15 -3.80421e-16 0)
(7.42365e-15 -7.02154e-16 0)
(7.22023e-15 -7.59125e-16 0)
(6.64631e-15 -9.38072e-16 0)
(5.84357e-15 -7.76162e-16 0)
(5.48063e-15 -3.3351e-16 0)
(5.67192e-15 -4.2612e-17 0)
(5.80716e-15 -4.38407e-16 0)
(5.48965e-15 -6.82632e-16 0)
(5.34102e-15 -7.28282e-16 0)
(5.57487e-15 -7.78846e-16 0)
(5.67637e-15 -7.66202e-16 0)
(5.57004e-15 -7.94933e-16 0)
(5.60802e-15 -8.02678e-16 0)
(5.83109e-15 -9.47478e-16 0)
(5.5188e-15 -1.16445e-15 0)
(5.07137e-15 -1.09828e-15 0)
(5.3315e-15 -8.20206e-16 0)
(4.77593e-15 -1.01902e-15 0)
(3.82168e-15 -8.7398e-16 0)
(3.60964e-15 -7.82048e-16 0)
(3.28379e-15 -8.27213e-16 0)
(2.74997e-15 -7.64318e-16 0)
(2.24389e-15 -4.88053e-16 0)
(1.64717e-15 -1.55445e-16 0)
(9.02566e-16 -5.50626e-17 0)
(6.27643e-17 -5.5253e-17 0)
(-5.50114e-16 7.01514e-16 0)
(-1.18688e-15 1.17732e-15 0)
(-1.32025e-15 1.32746e-15 0)
(-2.45166e-15 1.53939e-15 0)
(-3.93685e-15 1.97634e-15 0)
(-4.80439e-15 2.18474e-15 0)
(-4.96903e-15 3.04309e-15 0)
(-5.01456e-15 3.41977e-15 0)
(-5.33179e-15 3.39903e-15 0)
(-5.78552e-15 3.19523e-15 0)
(-6.54922e-15 2.91449e-15 0)
(-7.27079e-15 3.67872e-15 0)
(-8.09603e-15 4.82622e-15 0)
(-8.32947e-15 5.27674e-15 0)
(-7.79708e-15 4.81883e-15 0)
(-7.78704e-15 4.29378e-15 0)
(-8.05835e-15 3.93837e-15 0)
(-7.71665e-15 3.35118e-15 0)
(-7.85254e-15 2.97638e-15 0)
(-7.85832e-15 3.29862e-15 0)
(-6.68221e-15 3.91459e-15 0)
(-5.68748e-15 3.34385e-15 0)
(-4.71152e-15 3.31128e-15 0)
(-3.64371e-15 3.15362e-15 0)
(-2.92416e-15 3.68264e-15 0)
(-2.79721e-15 3.59624e-15 0)
(-3.47948e-15 3.21536e-15 0)
(-3.38324e-15 2.95788e-15 0)
(-2.59326e-15 2.1596e-15 0)
(-2.66983e-15 1.8026e-15 0)
(-3.12159e-15 1.38023e-15 0)
(-3.33283e-15 5.29789e-16 0)
(-3.10198e-15 -3.67827e-16 0)
(-2.89474e-15 -6.7567e-16 0)
(-3.29559e-15 -7.32827e-16 0)
(-4.13461e-15 -1.28866e-15 0)
(-4.75803e-15 -1.19291e-15 0)
(-3.88035e-15 -8.61613e-16 0)
(-1.62276e-15 -1.54488e-15 0)
(2.38887e-16 -2.50379e-15 0)
(1.3368e-15 -3.11695e-15 0)
(2.52966e-15 -3.69297e-15 0)
(2.63712e-15 -4.66258e-15 0)
(2.18684e-15 -4.89819e-15 0)
(2.49132e-15 -5.26852e-15 0)
(3.55921e-15 -5.4674e-15 0)
(5.10784e-15 -5.77927e-15 0)
(5.73428e-15 -5.90842e-15 0)
(6.44546e-15 -5.67728e-15 0)
(7.41377e-15 -5.73802e-15 0)
(8.05891e-15 -5.49819e-15 0)
(8.80311e-15 -5.16712e-15 0)
(9.34517e-15 -5.52687e-15 0)
(9.87651e-15 -4.70129e-15 0)
(1.06258e-14 -4.27186e-15 0)
(1.2309e-14 -4.38554e-15 0)
(1.43768e-14 -4.61619e-15 0)
(1.52408e-14 -5.06398e-15 0)
(1.55442e-14 -4.91895e-15 0)
(1.48358e-14 -4.51877e-15 0)
(1.32255e-14 -3.79041e-15 0)
(1.29832e-14 -3.05651e-15 0)
(1.36712e-14 -2.38056e-15 0)
(1.43212e-14 -1.89181e-15 0)
(1.51775e-14 -2.15934e-15 0)
(1.60485e-14 -2.08651e-15 0)
(1.71302e-14 -1.81204e-15 0)
(1.80648e-14 -1.65953e-15 0)
(1.87692e-14 -1.32373e-15 0)
(1.94377e-14 -6.24846e-16 0)
(1.94651e-14 -1.43972e-15 0)
(1.96145e-14 -1.55882e-15 0)
(2.02453e-14 -1.13197e-15 0)
(2.0608e-14 -1.424e-15 0)
(2.06528e-14 -2.0751e-15 0)
(2.01951e-14 -2.29372e-15 0)
(1.90061e-14 -2.51644e-15 0)
(1.7707e-14 -2.10882e-15 0)
(1.6892e-14 -1.01456e-15 0)
(1.64364e-14 -4.91435e-16 0)
(1.61685e-14 -1.32036e-15 0)
(1.58075e-14 -2.17471e-15 0)
(1.56321e-14 -2.1841e-15 0)
(1.60406e-14 -2.1248e-15 0)
(1.62264e-14 -2.18361e-15 0)
(1.60194e-14 -2.11858e-15 0)
(1.59589e-14 -2.26439e-15 0)
(1.60579e-14 -2.69228e-15 0)
(1.54981e-14 -3.39849e-15 0)
(1.48698e-14 -3.30979e-15 0)
(1.47193e-14 -2.99376e-15 0)
(1.32238e-14 -3.2051e-15 0)
(1.12905e-14 -2.71595e-15 0)
(1.01921e-14 -2.54291e-15 0)
(9.05868e-15 -2.58262e-15 0)
(7.78142e-15 -2.13294e-15 0)
(6.4135e-15 -1.36653e-15 0)
(4.45363e-15 -4.57136e-16 0)
(2.00696e-15 -1.57897e-16 0)
(5.46912e-17 1.48595e-16 0)
(-7.59006e-16 1.16004e-15 0)
(-1.86748e-15 1.92209e-15 0)
(-2.4643e-15 1.99107e-15 0)
(-4.1714e-15 2.35292e-15 0)
(-6.30526e-15 2.8591e-15 0)
(-7.23235e-15 3.50691e-15 0)
(-7.586e-15 4.6045e-15 0)
(-8.11874e-15 5.72626e-15 0)
(-8.76463e-15 5.9879e-15 0)
(-9.6051e-15 5.6267e-15 0)
(-1.0503e-14 5.67356e-15 0)
(-1.11144e-14 6.5709e-15 0)
(-1.21703e-14 7.55417e-15 0)
(-1.31993e-14 8.36415e-15 0)
(-1.31009e-14 7.96637e-15 0)
(-1.27869e-14 7.0227e-15 0)
(-1.29857e-14 6.49263e-15 0)
(-1.28984e-14 5.56058e-15 0)
(-1.26202e-14 4.86235e-15 0)
(-1.17785e-14 5.26764e-15 0)
(-1.0311e-14 5.96333e-15 0)
(-9.18035e-15 5.96123e-15 0)
(-7.75359e-15 5.84542e-15 0)
(-6.06354e-15 5.90921e-15 0)
(-4.94629e-15 6.04755e-15 0)
(-4.96016e-15 5.82634e-15 0)
(-5.60003e-15 5.25637e-15 0)
(-5.62012e-15 4.96279e-15 0)
(-5.00067e-15 3.76643e-15 0)
(-4.79177e-15 2.75184e-15 0)
(-5.35581e-15 2.07397e-15 0)
(-5.67942e-15 9.79414e-16 0)
(-5.17109e-15 -1.95635e-16 0)
(-4.92429e-15 -8.91817e-16 0)
(-5.52431e-15 -1.31152e-15 0)
(-6.44604e-15 -1.86521e-15 0)
(-6.75169e-15 -2.32689e-15 0)
(-5.5082e-15 -2.39837e-15 0)
(-2.8497e-15 -2.97956e-15 0)
(-1.80952e-16 -4.02873e-15 0)
(1.6918e-15 -4.80485e-15 0)
(3.04866e-15 -5.85745e-15 0)
(3.45528e-15 -7.93847e-15 0)
(3.63587e-15 -8.90165e-15 0)
(4.39404e-15 -9.28852e-15 0)
(5.95228e-15 -8.96537e-15 0)
(8.01286e-15 -9.09494e-15 0)
(9.39998e-15 -9.6717e-15 0)
(1.05955e-14 -9.59189e-15 0)
(1.193e-14 -9.83248e-15 0)
(1.30763e-14 -9.4388e-15 0)
(1.41237e-14 -9.20653e-15 0)
(1.54348e-14 -9.07223e-15 0)
(1.66496e-14 -8.21459e-15 0)
(1.7664e-14 -7.65159e-15 0)
(1.99047e-14 -7.28473e-15 0)
(2.25147e-14 -7.47484e-15 0)
(2.38974e-14 -8.01503e-15 0)
(2.45178e-14 -7.77915e-15 0)
(2.38455e-14 -7.35132e-15 0)
(2.23511e-14 -6.44215e-15 0)
(2.20887e-14 -4.96696e-15 0)
(2.28782e-14 -3.99095e-15 0)
(2.35774e-14 -3.36599e-15 0)
(2.46439e-14 -3.48708e-15 0)
(2.60469e-14 -3.34143e-15 0)
(2.76365e-14 -3.14023e-15 0)
(2.92457e-14 -2.7909e-15 0)
(3.05119e-14 -1.87691e-15 0)
(3.10809e-14 -1.28467e-15 0)
(3.10126e-14 -1.74691e-15 0)
(3.17123e-14 -2.06707e-15 0)
(3.2459e-14 -1.89201e-15 0)
(3.25844e-14 -2.79433e-15 0)
(3.26629e-14 -3.51453e-15 0)
(3.21255e-14 -3.71104e-15 0)
(3.07024e-14 -3.71377e-15 0)
(2.92975e-14 -3.1908e-15 0)
(2.80454e-14 -1.99531e-15 0)
(2.66166e-14 -1.70149e-15 0)
(2.56086e-14 -2.24074e-15 0)
(2.53968e-14 -3.34057e-15 0)
(2.56186e-14 -3.63735e-15 0)
(2.59405e-14 -3.41274e-15 0)
(2.60971e-14 -3.44467e-15 0)
(2.57599e-14 -3.52154e-15 0)
(2.53359e-14 -3.77285e-15 0)
(2.50473e-14 -4.51766e-15 0)
(2.43746e-14 -5.28836e-15 0)
(2.36841e-14 -5.27939e-15 0)
(2.30725e-14 -5.43627e-15 0)
(2.10802e-14 -5.5175e-15 0)
(1.83076e-14 -4.81129e-15 0)
(1.61539e-14 -4.25896e-15 0)
(1.44079e-14 -3.99784e-15 0)
(1.25338e-14 -3.16791e-15 0)
(1.02479e-14 -2.12475e-15 0)
(6.87043e-15 -1.1643e-15 0)
(2.76089e-15 -1.48492e-16 0)
(1.47465e-16 3.5047e-16 0)
(-9.55636e-16 1.75942e-15 0)
(-2.96202e-15 2.46961e-15 0)
(-4.0625e-15 2.74947e-15 0)
(-5.83707e-15 3.07178e-15 0)
(-8.13142e-15 4.21988e-15 0)
(-9.3296e-15 5.23565e-15 0)
(-9.60783e-15 6.42868e-15 0)
(-1.05334e-14 7.99254e-15 0)
(-1.22595e-14 8.38592e-15 0)
(-1.33724e-14 8.28867e-15 0)
(-1.39463e-14 8.54665e-15 0)
(-1.47024e-14 9.75108e-15 0)
(-1.60209e-14 1.02277e-14 0)
(-1.73245e-14 1.08678e-14 0)
(-1.78961e-14 1.09582e-14 0)
(-1.78417e-14 1.01936e-14 0)
(-1.8037e-14 9.13926e-15 0)
(-1.77236e-14 7.90472e-15 0)
(-1.67596e-14 7.2228e-15 0)
(-1.53472e-14 7.55432e-15 0)
(-1.35957e-14 7.86258e-15 0)
(-1.22746e-14 8.01454e-15 0)
(-1.04214e-14 8.38569e-15 0)
(-8.39159e-15 8.88422e-15 0)
(-7.24151e-15 8.69687e-15 0)
(-7.22046e-15 7.86679e-15 0)
(-7.81133e-15 6.91185e-15 0)
(-7.9694e-15 6.20628e-15 0)
(-7.46208e-15 5.04583e-15 0)
(-7.0642e-15 3.43428e-15 0)
(-7.56188e-15 2.65774e-15 0)
(-8.11848e-15 1.56238e-15 0)
(-7.59525e-15 1.90534e-16 0)
(-6.94491e-15 -1.04453e-15 0)
(-7.41218e-15 -1.82952e-15 0)
(-8.47951e-15 -2.69429e-15 0)
(-8.6396e-15 -3.3423e-15 0)
(-6.90576e-15 -4.19719e-15 0)
(-3.81929e-15 -4.86841e-15 0)
(-6.25152e-16 -5.97009e-15 0)
(1.64682e-15 -6.76402e-15 0)
(2.81186e-15 -8.36047e-15 0)
(3.51791e-15 -1.07651e-14 0)
(4.70942e-15 -1.22835e-14 0)
(6.58828e-15 -1.28346e-14 0)
(8.75245e-15 -1.26262e-14 0)
(1.06794e-14 -1.29597e-14 0)
(1.2354e-14 -1.32883e-14 0)
(1.41833e-14 -1.34418e-14 0)
(1.62598e-14 -1.38146e-14 0)
(1.8076e-14 -1.31681e-14 0)
(1.95209e-14 -1.28927e-14 0)
(2.1347e-14 -1.28336e-14 0)
(2.30393e-14 -1.22466e-14 0)
(2.45702e-14 -1.13463e-14 0)
(2.71093e-14 -1.04808e-14 0)
(2.98395e-14 -1.07992e-14 0)
(3.17971e-14 -1.10713e-14 0)
(3.3028e-14 -1.07263e-14 0)
(3.25772e-14 -9.90078e-15 0)
(3.13619e-14 -8.71802e-15 0)
(3.11826e-14 -7.176e-15 0)
(3.17152e-14 -5.81942e-15 0)
(3.22982e-14 -5.09185e-15 0)
(3.36291e-14 -4.86278e-15 0)
(3.55609e-14 -4.75717e-15 0)
(3.7705e-14 -4.49461e-15 0)
(4.00601e-14 -3.9081e-15 0)
(4.16914e-14 -2.75671e-15 0)
(4.20479e-14 -2.10663e-15 0)
(4.18536e-14 -2.08081e-15 0)
(4.27254e-14 -2.19145e-15 0)
(4.32763e-14 -2.73145e-15 0)
(4.32458e-14 -4.03881e-15 0)
(4.37242e-14 -4.85755e-15 0)
(4.32769e-14 -5.032e-15 0)
(4.17053e-14 -4.95632e-15 0)
(4.02418e-14 -4.31167e-15 0)
(3.84898e-14 -3.4639e-15 0)
(3.63691e-14 -3.28144e-15 0)
(3.47938e-14 -3.51863e-15 0)
(3.42493e-14 -4.18157e-15 0)
(3.47871e-14 -4.64433e-15 0)
(3.53093e-14 -4.80242e-15 0)
(3.51821e-14 -4.70835e-15 0)
(3.4624e-14 -5.03532e-15 0)
(3.38471e-14 -5.5278e-15 0)
(3.32352e-14 -6.38242e-15 0)
(3.25677e-14 -7.0172e-15 0)
(3.15176e-14 -7.36934e-15 0)
(3.03734e-14 -7.72113e-15 0)
(2.81347e-14 -7.8392e-15 0)
(2.49797e-14 -6.96662e-15 0)
(2.19536e-14 -5.91385e-15 0)
(1.93442e-14 -5.24294e-15 0)
(1.67559e-14 -4.01797e-15 0)
(1.33935e-14 -2.739e-15 0)
(9.05902e-15 -1.83272e-15 0)
(3.4558e-15 -3.75351e-16 0)
(1.97328e-16 4.70503e-16 0)
(-1.34246e-15 1.87489e-15 0)
(-3.943e-15 2.85311e-15 0)
(-5.4763e-15 3.67219e-15 0)
(-7.29702e-15 4.69719e-15 0)
(-9.67955e-15 6.37847e-15 0)
(-1.11932e-14 7.55305e-15 0)
(-1.15862e-14 8.6041e-15 0)
(-1.30325e-14 9.38635e-15 0)
(-1.52355e-14 1.00505e-14 0)
(-1.66009e-14 1.10351e-14 0)
(-1.70638e-14 1.16397e-14 0)
(-1.80058e-14 1.25288e-14 0)
(-1.97886e-14 1.29265e-14 0)
(-2.11835e-14 1.35039e-14 0)
(-2.20375e-14 1.377e-14 0)
(-2.24519e-14 1.35131e-14 0)
(-2.28837e-14 1.22654e-14 0)
(-2.23726e-14 1.08825e-14 0)
(-2.07209e-14 1.0037e-14 0)
(-1.87403e-14 1.02257e-14 0)
(-1.67435e-14 1.02904e-14 0)
(-1.48289e-14 1.01814e-14 0)
(-1.24372e-14 1.09955e-14 0)
(-1.05019e-14 1.12818e-14 0)
(-9.81103e-15 1.09343e-14 0)
(-9.99072e-15 9.65556e-15 0)
(-1.02913e-14 8.20404e-15 0)
(-1.02399e-14 7.14198e-15 0)
(-1.00809e-14 5.77264e-15 0)
(-9.46468e-15 4.05807e-15 0)
(-9.58186e-15 2.94345e-15 0)
(-1.02957e-14 1.79351e-15 0)
(-9.86697e-15 6.46892e-16 0)
(-9.21233e-15 -8.18405e-16 0)
(-9.57376e-15 -2.6138e-15 0)
(-1.03662e-14 -3.75374e-15 0)
(-1.03793e-14 -4.44357e-15 0)
(-8.39516e-15 -5.68683e-15 0)
(-4.80232e-15 -6.81503e-15 0)
(-1.07413e-15 -8.15383e-15 0)
(1.4427e-15 -9.50043e-15 0)
(2.44665e-15 -1.14616e-14 0)
(3.52998e-15 -1.32929e-14 0)
(5.61361e-15 -1.46112e-14 0)
(8.28349e-15 -1.56598e-14 0)
(1.07911e-14 -1.63643e-14 0)
(1.33244e-14 -1.71894e-14 0)
(1.56741e-14 -1.72619e-14 0)
(1.76505e-14 -1.71438e-14 0)
(2.03817e-14 -1.72255e-14 0)
(2.27971e-14 -1.6857e-14 0)
(2.42259e-14 -1.6658e-14 0)
(2.65711e-14 -1.67753e-14 0)
(2.92508e-14 -1.62297e-14 0)
(3.146e-14 -1.50045e-14 0)
(3.39001e-14 -1.41676e-14 0)
(3.66773e-14 -1.41775e-14 0)
(3.92252e-14 -1.37028e-14 0)
(4.09622e-14 -1.3069e-14 0)
(4.09307e-14 -1.24837e-14 0)
(3.99092e-14 -1.12914e-14 0)
(3.99106e-14 -9.79873e-15 0)
(4.0504e-14 -8.18506e-15 0)
(4.09717e-14 -7.47898e-15 0)
(4.22741e-14 -6.61898e-15 0)
(4.44306e-14 -6.17534e-15 0)
(4.71408e-14 -5.80065e-15 0)
(5.01505e-14 -4.97266e-15 0)
(5.21243e-14 -4.20165e-15 0)
(5.24425e-14 -3.3652e-15 0)
(5.2236e-14 -2.75307e-15 0)
(5.28086e-14 -2.56503e-15 0)
(5.29246e-14 -3.57154e-15 0)
(5.29784e-14 -4.78534e-15 0)
(5.37782e-14 -5.59413e-15 0)
(5.34934e-14 -6.0362e-15 0)
(5.20178e-14 -6.21972e-15 0)
(5.04383e-14 -5.67803e-15 0)
(4.8228e-14 -5.05805e-15 0)
(4.55756e-14 -4.67187e-15 0)
(4.36115e-14 -4.93721e-15 0)
(4.291e-14 -5.30229e-15 0)
(4.32401e-14 -5.46155e-15 0)
(4.37882e-14 -5.82282e-15 0)
(4.36345e-14 -6.06204e-15 0)
(4.26193e-14 -6.6573e-15 0)
(4.14933e-14 -7.36736e-15 0)
(4.06654e-14 -8.02397e-15 0)
(3.97129e-14 -8.86196e-15 0)
(3.83941e-14 -9.58612e-15 0)
(3.69652e-14 -1.01466e-14 0)
(3.46051e-14 -1.02181e-14 0)
(3.12048e-14 -9.33755e-15 0)
(2.73451e-14 -7.91295e-15 0)
(2.40573e-14 -6.37995e-15 0)
(2.07902e-14 -4.81965e-15 0)
(1.62391e-14 -3.52009e-15 0)
(1.07483e-14 -2.21326e-15 0)
(4.06932e-15 -7.08964e-16 0)
(3.99255e-17 7.05449e-16 0)
(-1.81592e-15 1.66455e-15 0)
(-4.86704e-15 3.5153e-15 0)
(-6.50264e-15 5.1741e-15 0)
(-8.23363e-15 6.69475e-15 0)
(-1.09943e-14 8.30109e-15 0)
(-1.31504e-14 9.76678e-15 0)
(-1.41069e-14 1.05382e-14 0)
(-1.56342e-14 1.10107e-14 0)
(-1.75213e-14 1.20032e-14 0)
(-1.90239e-14 1.33489e-14 0)
(-2.00455e-14 1.45775e-14 0)
(-2.12938e-14 1.52126e-14 0)
(-2.30638e-14 1.57376e-14 0)
(-2.45367e-14 1.63197e-14 0)
(-2.5676e-14 1.64153e-14 0)
(-2.66317e-14 1.62315e-14 0)
(-2.75181e-14 1.53027e-14 0)
(-2.67229e-14 1.42155e-14 0)
(-2.43393e-14 1.34295e-14 0)
(-2.18624e-14 1.34259e-14 0)
(-1.97878e-14 1.36471e-14 0)
(-1.73071e-14 1.36957e-14 0)
(-1.45576e-14 1.39426e-14 0)
(-1.28175e-14 1.3e-14 0)
(-1.2332e-14 1.21634e-14 0)
(-1.2741e-14 1.07114e-14 0)
(-1.28898e-14 9.13913e-15 0)
(-1.27528e-14 7.69824e-15 0)
(-1.2527e-14 5.94878e-15 0)
(-1.17972e-14 4.7831e-15 0)
(-1.17785e-14 3.0695e-15 0)
(-1.22815e-14 1.82998e-15 0)
(-1.19311e-14 5.34469e-16 0)
(-1.17128e-14 -1.35935e-15 0)
(-1.1876e-14 -3.92279e-15 0)
(-1.19812e-14 -4.93143e-15 0)
(-1.18719e-14 -5.6942e-15 0)
(-9.82721e-15 -7.00723e-15 0)
(-5.9518e-15 -8.87383e-15 0)
(-1.99979e-15 -1.08254e-14 0)
(6.72468e-16 -1.2805e-14 0)
(2.23168e-15 -1.48497e-14 0)
(4.04425e-15 -1.59689e-14 0)
(6.39752e-15 -1.6937e-14 0)
(9.3588e-15 -1.81714e-14 0)
(1.23962e-14 -1.95798e-14 0)
(1.55454e-14 -2.06133e-14 0)
(1.86691e-14 -2.13704e-14 0)
(2.12407e-14 -2.11244e-14 0)
(2.42469e-14 -2.06504e-14 0)
(2.7011e-14 -2.0499e-14 0)
(2.88499e-14 -2.05383e-14 0)
(3.16896e-14 -2.03337e-14 0)
(3.51608e-14 -1.9723e-14 0)
(3.77641e-14 -1.88614e-14 0)
(4.02832e-14 -1.79433e-14 0)
(4.35515e-14 -1.71625e-14 0)
(4.65796e-14 -1.64552e-14 0)
(4.82502e-14 -1.54613e-14 0)
(4.83858e-14 -1.50592e-14 0)
(4.79593e-14 -1.38878e-14 0)
(4.83069e-14 -1.22519e-14 0)
(4.86354e-14 -1.10752e-14 0)
(4.91733e-14 -1.01025e-14 0)
(5.09031e-14 -8.89163e-15 0)
(5.3111e-14 -7.98154e-15 0)
(5.61905e-14 -7.37886e-15 0)
(5.94701e-14 -6.39384e-15 0)
(6.16799e-14 -5.49385e-15 0)
(6.2412e-14 -4.4456e-15 0)
(6.21215e-14 -3.77365e-15 0)
(6.2077e-14 -3.51824e-15 0)
(6.17888e-14 -4.36033e-15 0)
(6.1975e-14 -5.20694e-15 0)
(6.29092e-14 -6.05984e-15 0)
(6.26048e-14 -6.70125e-15 0)
(6.12711e-14 -6.90119e-15 0)
(5.98446e-14 -6.91105e-15 0)
(5.74733e-14 -6.59517e-15 0)
(5.4294e-14 -5.89951e-15 0)
(5.18237e-14 -5.9434e-15 0)
(5.10441e-14 -6.13827e-15 0)
(5.13094e-14 -6.39368e-15 0)
(5.15321e-14 -6.84957e-15 0)
(5.09829e-14 -7.51969e-15 0)
(4.97789e-14 -8.41153e-15 0)
(4.85825e-14 -9.01431e-15 0)
(4.73875e-14 -9.57398e-15 0)
(4.60184e-14 -1.05439e-14 0)
(4.43544e-14 -1.14157e-14 0)
(4.27067e-14 -1.23655e-14 0)
(4.03375e-14 -1.23833e-14 0)
(3.69115e-14 -1.13934e-14 0)
(3.28723e-14 -9.64735e-15 0)
(2.87391e-14 -7.62448e-15 0)
(2.41954e-14 -6.00541e-15 0)
(1.86873e-14 -4.51769e-15 0)
(1.23674e-14 -2.7639e-15 0)
(4.57815e-15 -1.00997e-15 0)
(-5.47429e-16 1.14766e-15 0)
(-2.44884e-15 2.29951e-15 0)
(-5.03642e-15 4.48633e-15 0)
(-7.26466e-15 6.90829e-15 0)
(-9.57158e-15 8.60175e-15 0)
(-1.24253e-14 1.01266e-14 0)
(-1.49346e-14 1.18088e-14 0)
(-1.63776e-14 1.28754e-14 0)
(-1.79352e-14 1.36622e-14 0)
(-1.97565e-14 1.47808e-14 0)
(-2.1217e-14 1.58874e-14 0)
(-2.24726e-14 1.7007e-14 0)
(-2.41644e-14 1.77688e-14 0)
(-2.61358e-14 1.83979e-14 0)
(-2.78927e-14 1.89104e-14 0)
(-2.92658e-14 1.88566e-14 0)
(-3.0328e-14 1.86115e-14 0)
(-3.12713e-14 1.83033e-14 0)
(-3.04488e-14 1.79112e-14 0)
(-2.77229e-14 1.73707e-14 0)
(-2.46302e-14 1.75394e-14 0)
(-2.21294e-14 1.7391e-14 0)
(-1.9679e-14 1.71559e-14 0)
(-1.7494e-14 1.62573e-14 0)
(-1.58624e-14 1.43308e-14 0)
(-1.51101e-14 1.25056e-14 0)
(-1.54689e-14 1.1148e-14 0)
(-1.54711e-14 9.76413e-15 0)
(-1.53096e-14 8.11801e-15 0)
(-1.47481e-14 6.20902e-15 0)
(-1.39469e-14 5.00011e-15 0)
(-1.39937e-14 3.31327e-15 0)
(-1.42966e-14 2.07986e-15 0)
(-1.42561e-14 1.79202e-16 0)
(-1.44383e-14 -2.26023e-15 0)
(-1.40206e-14 -4.83887e-15 0)
(-1.32793e-14 -6.74161e-15 0)
(-1.31606e-14 -8.23461e-15 0)
(-1.14459e-14 -9.36631e-15 0)
(-7.62981e-15 -1.12627e-14 0)
(-3.23267e-15 -1.34105e-14 0)
(-5.12027e-17 -1.58661e-14 0)
(2.26028e-15 -1.77473e-14 0)
(4.74618e-15 -1.85874e-14 0)
(7.32755e-15 -1.95475e-14 0)
(1.0276e-14 -2.07912e-14 0)
(1.35754e-14 -2.25519e-14 0)
(1.72627e-14 -2.42265e-14 0)
(2.12362e-14 -2.50841e-14 0)
(2.48012e-14 -2.46972e-14 0)
(2.81458e-14 -2.41123e-14 0)
(3.08672e-14 -2.40056e-14 0)
(3.30248e-14 -2.44241e-14 0)
(3.65471e-14 -2.38776e-14 0)
(4.04291e-14 -2.30462e-14 0)
(4.36101e-14 -2.25213e-14 0)
(4.67333e-14 -2.14352e-14 0)
(5.00273e-14 -1.96759e-14 0)
(5.32659e-14 -1.91377e-14 0)
(5.51556e-14 -1.85242e-14 0)
(5.55115e-14 -1.77505e-14 0)
(5.56139e-14 -1.65603e-14 0)
(5.58837e-14 -1.51393e-14 0)
(5.63473e-14 -1.40124e-14 0)
(5.72891e-14 -1.24167e-14 0)
(5.90585e-14 -1.1082e-14 0)
(6.13162e-14 -1.01039e-14 0)
(6.46413e-14 -8.90341e-15 0)
(6.84113e-14 -7.5781e-15 0)
(7.09254e-14 -6.55354e-15 0)
(7.15014e-14 -5.85623e-15 0)
(7.10492e-14 -5.44413e-15 0)
(7.07537e-14 -5.14506e-15 0)
(7.02143e-14 -5.58382e-15 0)
(7.03031e-14 -6.06873e-15 0)
(7.11548e-14 -6.53492e-15 0)
(7.11011e-14 -6.95765e-15 0)
(6.97198e-14 -7.06566e-15 0)
(6.8091e-14 -7.34144e-15 0)
(6.59817e-14 -7.51836e-15 0)
(6.26929e-14 -7.10466e-15 0)
(5.97422e-14 -6.79948e-15 0)
(5.85783e-14 -6.76215e-15 0)
(5.84308e-14 -7.49601e-15 0)
(5.83992e-14 -8.38931e-15 0)
(5.7633e-14 -9.08393e-15 0)
(5.63282e-14 -9.50324e-15 0)
(5.50335e-14 -1.01334e-14 0)
(5.3418e-14 -1.09497e-14 0)
(5.15832e-14 -1.18013e-14 0)
(4.94793e-14 -1.28066e-14 0)
(4.77233e-14 -1.38661e-14 0)
(4.56637e-14 -1.38918e-14 0)
(4.22745e-14 -1.25086e-14 0)
(3.77513e-14 -1.08984e-14 0)
(3.28072e-14 -9.0911e-15 0)
(2.74277e-14 -7.3478e-15 0)
(2.10886e-14 -5.47074e-15 0)
(1.37415e-14 -3.5781e-15 0)
(5.09425e-15 -1.46632e-15 0)
(-9.48683e-16 1.51117e-15 0)
(-3.193e-15 3.72365e-15 0)
(-5.62634e-15 5.99999e-15 0)
(-7.93545e-15 8.28237e-15 0)
(-1.06376e-14 1.06058e-14 0)
(-1.37091e-14 1.24235e-14 0)
(-1.64782e-14 1.42166e-14 0)
(-1.83341e-14 1.53784e-14 0)
(-2.00358e-14 1.6393e-14 0)
(-2.18871e-14 1.76353e-14 0)
(-2.35841e-14 1.85934e-14 0)
(-2.50432e-14 1.93316e-14 0)
(-2.68016e-14 2.02347e-14 0)
(-2.88429e-14 2.09839e-14 0)
(-3.0831e-14 2.14146e-14 0)
(-3.24693e-14 2.16849e-14 0)
(-3.34965e-14 2.13577e-14 0)
(-3.43257e-14 2.12196e-14 0)
(-3.34838e-14 2.15678e-14 0)
(-3.04096e-14 2.14807e-14 0)
(-2.72965e-14 2.13441e-14 0)
(-2.51067e-14 2.03267e-14 0)
(-2.27273e-14 1.9648e-14 0)
(-2.07644e-14 1.80079e-14 0)
(-1.92689e-14 1.56555e-14 0)
(-1.79701e-14 1.3172e-14 0)
(-1.7714e-14 1.17222e-14 0)
(-1.7789e-14 1.04175e-14 0)
(-1.77973e-14 8.82705e-15 0)
(-1.70471e-14 7.05564e-15 0)
(-1.59855e-14 5.18342e-15 0)
(-1.58436e-14 3.24763e-15 0)
(-1.63794e-14 1.51366e-15 0)
(-1.67965e-14 -6.39742e-16 0)
(-1.6947e-14 -3.07275e-15 0)
(-1.65504e-14 -5.65989e-15 0)
(-1.56216e-14 -8.94504e-15 0)
(-1.46017e-14 -1.14639e-14 0)
(-1.23829e-14 -1.2065e-14 0)
(-8.67904e-15 -1.30308e-14 0)
(-4.5103e-15 -1.5517e-14 0)
(-1.01221e-15 -1.9095e-14 0)
(2.33711e-15 -2.08583e-14 0)
(5.39566e-15 -2.18868e-14 0)
(8.00465e-15 -2.26759e-14 0)
(1.09392e-14 -2.38957e-14 0)
(1.42447e-14 -2.53547e-14 0)
(1.8663e-14 -2.68256e-14 0)
(2.3917e-14 -2.76938e-14 0)
(2.81675e-14 -2.83707e-14 0)
(3.15875e-14 -2.8197e-14 0)
(3.42359e-14 -2.81103e-14 0)
(3.70249e-14 -2.81239e-14 0)
(4.14172e-14 -2.72839e-14 0)
(4.55158e-14 -2.6349e-14 0)
(4.8956e-14 -2.55086e-14 0)
(5.30158e-14 -2.40652e-14 0)
(5.6457e-14 -2.24874e-14 0)
(5.91235e-14 -2.17444e-14 0)
(6.13432e-14 -2.14639e-14 0)
(6.21979e-14 -2.05571e-14 0)
(6.25114e-14 -1.95156e-14 0)
(6.30997e-14 -1.82368e-14 0)
(6.38996e-14 -1.67376e-14 0)
(6.49935e-14 -1.52927e-14 0)
(6.67191e-14 -1.38678e-14 0)
(6.93048e-14 -1.23408e-14 0)
(7.31226e-14 -1.02679e-14 0)
(7.67391e-14 -8.93406e-15 0)
(7.89139e-14 -7.99249e-15 0)
(7.95646e-14 -7.49923e-15 0)
(7.92774e-14 -6.81238e-15 0)
(7.88228e-14 -6.528e-15 0)
(7.80881e-14 -6.89155e-15 0)
(7.8285e-14 -6.94321e-15 0)
(7.91824e-14 -7.02028e-15 0)
(7.8945e-14 -7.19303e-15 0)
(7.74306e-14 -7.58019e-15 0)
(7.56127e-14 -7.70477e-15 0)
(7.33987e-14 -8.15457e-15 0)
(7.0241e-14 -8.0861e-15 0)
(6.71812e-14 -7.56664e-15 0)
(6.5339e-14 -7.58024e-15 0)
(6.46295e-14 -8.46388e-15 0)
(6.45873e-14 -9.45696e-15 0)
(6.40693e-14 -1.01741e-14 0)
(6.25483e-14 -1.01899e-14 0)
(6.06251e-14 -1.09941e-14 0)
(5.87375e-14 -1.20098e-14 0)
(5.65826e-14 -1.28472e-14 0)
(5.39879e-14 -1.38732e-14 0)
(5.21422e-14 -1.46515e-14 0)
(5.05021e-14 -1.45396e-14 0)
(4.70658e-14 -1.3298e-14 0)
(4.19867e-14 -1.19474e-14 0)
(3.64578e-14 -1.01451e-14 0)
(3.03177e-14 -8.54124e-15 0)
(2.31034e-14 -6.52854e-15 0)
(1.49589e-14 -4.45128e-15 0)
(5.75197e-15 -1.76732e-15 0)
(-1.13473e-15 1.77995e-15 0)
(-3.63586e-15 4.69535e-15 0)
(-6.30966e-15 7.70596e-15 0)
(-8.66927e-15 1.03642e-14 0)
(-1.14984e-14 1.27777e-14 0)
(-1.4926e-14 1.48537e-14 0)
(-1.80926e-14 1.66006e-14 0)
(-2.02667e-14 1.7986e-14 0)
(-2.19084e-14 1.91537e-14 0)
(-2.39046e-14 2.00227e-14 0)
(-2.5861e-14 2.08992e-14 0)
(-2.72677e-14 2.20112e-14 0)
(-2.90321e-14 2.31087e-14 0)
(-3.13848e-14 2.39475e-14 0)
(-3.34713e-14 2.41163e-14 0)
(-3.53225e-14 2.43541e-14 0)
(-3.65552e-14 2.41929e-14 0)
(-3.68253e-14 2.43686e-14 0)
(-3.57414e-14 2.50971e-14 0)
(-3.30975e-14 2.50202e-14 0)
(-3.03618e-14 2.38821e-14 0)
(-2.78867e-14 2.2373e-14 0)
(-2.54933e-14 2.15328e-14 0)
(-2.41324e-14 1.97342e-14 0)
(-2.27289e-14 1.7337e-14 0)
(-2.09522e-14 1.4916e-14 0)
(-2.01247e-14 1.2627e-14 0)
(-1.99538e-14 1.10553e-14 0)
(-1.98979e-14 9.35346e-15 0)
(-1.934e-14 7.82184e-15 0)
(-1.84852e-14 5.67533e-15 0)
(-1.82782e-14 2.8253e-15 0)
(-1.86021e-14 -3.38103e-17 0)
(-1.89384e-14 -2.0411e-15 0)
(-1.92892e-14 -4.41867e-15 0)
(-1.93145e-14 -7.13207e-15 0)
(-1.82818e-14 -1.03348e-14 0)
(-1.58681e-14 -1.29197e-14 0)
(-1.26003e-14 -1.43844e-14 0)
(-9.68336e-15 -1.57813e-14 0)
(-6.67604e-15 -1.84333e-14 0)
(-2.42058e-15 -2.16895e-14 0)
(2.29843e-15 -2.35316e-14 0)
(6.01767e-15 -2.51464e-14 0)
(8.96731e-15 -2.58892e-14 0)
(1.19372e-14 -2.69209e-14 0)
(1.55794e-14 -2.79915e-14 0)
(2.02419e-14 -2.91008e-14 0)
(2.53485e-14 -3.03762e-14 0)
(3.02335e-14 -3.19678e-14 0)
(3.46963e-14 -3.19756e-14 0)
(3.78391e-14 -3.17652e-14 0)
(4.11134e-14 -3.14388e-14 0)
(4.58993e-14 -3.05516e-14 0)
(5.0351e-14 -2.96547e-14 0)
(5.44717e-14 -2.81553e-14 0)
(5.86824e-14 -2.62365e-14 0)
(6.19618e-14 -2.54915e-14 0)
(6.46799e-14 -2.4838e-14 0)
(6.70517e-14 -2.42651e-14 0)
(6.82732e-14 -2.34884e-14 0)
(6.89312e-14 -2.23165e-14 0)
(6.98301e-14 -2.07615e-14 0)
(7.07414e-14 -1.93506e-14 0)
(7.19935e-14 -1.82259e-14 0)
(7.42205e-14 -1.69704e-14 0)
(7.73705e-14 -1.46164e-14 0)
(8.09722e-14 -1.22027e-14 0)
(8.43134e-14 -1.07145e-14 0)
(8.6579e-14 -9.27656e-15 0)
(8.72883e-14 -8.42855e-15 0)
(8.69416e-14 -8.01543e-15 0)
(8.60627e-14 -7.84555e-15 0)
(8.53883e-14 -8.13372e-15 0)
(8.57143e-14 -7.9458e-15 0)
(8.64111e-14 -8.08218e-15 0)
(8.59741e-14 -8.24835e-15 0)
(8.4399e-14 -8.67029e-15 0)
(8.24479e-14 -8.60321e-15 0)
(8.01851e-14 -8.7505e-15 0)
(7.73131e-14 -8.66846e-15 0)
(7.40117e-14 -8.2715e-15 0)
(7.15291e-14 -8.37026e-15 0)
(7.03721e-14 -9.11618e-15 0)
(7.01612e-14 -9.77689e-15 0)
(6.97836e-14 -1.04875e-14 0)
(6.80377e-14 -1.10488e-14 0)
(6.55642e-14 -1.21003e-14 0)
(6.33945e-14 -1.28698e-14 0)
(6.09185e-14 -1.38052e-14 0)
(5.81074e-14 -1.46803e-14 0)
(5.63113e-14 -1.4995e-14 0)
(5.47269e-14 -1.46715e-14 0)
(5.11042e-14 -1.40563e-14 0)
(4.57147e-14 -1.2747e-14 0)
(3.9539e-14 -1.09599e-14 0)
(3.27454e-14 -9.44447e-15 0)
(2.50161e-14 -7.30454e-15 0)
(1.62228e-14 -4.97952e-15 0)
(6.43547e-15 -1.82837e-15 0)
(-1.36122e-15 1.96659e-15 0)
(-3.93225e-15 5.46208e-15 0)
(-6.54523e-15 8.91753e-15 0)
(-9.32199e-15 1.25216e-14 0)
(-1.25079e-14 1.51042e-14 0)
(-1.61416e-14 1.71797e-14 0)
(-1.94962e-14 1.90344e-14 0)
(-2.1854e-14 2.07255e-14 0)
(-2.40066e-14 2.19088e-14 0)
(-2.61382e-14 2.27566e-14 0)
(-2.77156e-14 2.37392e-14 0)
(-2.90576e-14 2.50199e-14 0)
(-3.10378e-14 2.59112e-14 0)
(-3.37472e-14 2.66485e-14 0)
(-3.6119e-14 2.68375e-14 0)
(-3.78967e-14 2.72574e-14 0)
(-3.88232e-14 2.76474e-14 0)
(-3.88106e-14 2.79817e-14 0)
(-3.79261e-14 2.81896e-14 0)
(-3.59546e-14 2.77731e-14 0)
(-3.35848e-14 2.61954e-14 0)
(-3.08329e-14 2.45349e-14 0)
(-2.8303e-14 2.32115e-14 0)
(-2.71174e-14 2.1025e-14 0)
(-2.57235e-14 1.85917e-14 0)
(-2.40132e-14 1.59972e-14 0)
(-2.2833e-14 1.36977e-14 0)
(-2.22116e-14 1.18339e-14 0)
(-2.19589e-14 9.76517e-15 0)
(-2.13338e-14 8.32875e-15 0)
(-2.10649e-14 5.84102e-15 0)
(-2.1289e-14 2.48717e-15 0)
(-2.10577e-14 -7.10103e-16 0)
(-2.09734e-14 -3.46978e-15 0)
(-2.1483e-14 -6.10524e-15 0)
(-2.15046e-14 -8.77897e-15 0)
(-2.02469e-14 -1.16625e-14 0)
(-1.76547e-14 -1.39348e-14 0)
(-1.42031e-14 -1.62067e-14 0)
(-1.09571e-14 -1.8785e-14 0)
(-7.70394e-15 -2.12576e-14 0)
(-3.14355e-15 -2.33185e-14 0)
(1.87946e-15 -2.56003e-14 0)
(6.20737e-15 -2.73526e-14 0)
(9.70319e-15 -2.85854e-14 0)
(1.28584e-14 -2.97448e-14 0)
(1.6577e-14 -3.11856e-14 0)
(2.13239e-14 -3.23383e-14 0)
(2.67093e-14 -3.36296e-14 0)
(3.23823e-14 -3.47261e-14 0)
(3.7621e-14 -3.4778e-14 0)
(4.10113e-14 -3.49054e-14 0)
(4.47962e-14 -3.47821e-14 0)
(5.01076e-14 -3.37217e-14 0)
(5.51549e-14 -3.24949e-14 0)
(5.98376e-14 -3.06632e-14 0)
(6.38142e-14 -2.86569e-14 0)
(6.67613e-14 -2.81031e-14 0)
(6.96897e-14 -2.7891e-14 0)
(7.23388e-14 -2.74122e-14 0)
(7.3934e-14 -2.65359e-14 0)
(7.51013e-14 -2.51237e-14 0)
(7.61508e-14 -2.33577e-14 0)
(7.69393e-14 -2.15902e-14 0)
(7.82492e-14 -2.03857e-14 0)
(8.12305e-14 -1.88184e-14 0)
(8.50321e-14 -1.63606e-14 0)
(8.85772e-14 -1.40495e-14 0)
(9.18257e-14 -1.19796e-14 0)
(9.38505e-14 -1.02719e-14 0)
(9.40268e-14 -9.64124e-15 0)
(9.34676e-14 -9.63719e-15 0)
(9.26634e-14 -9.51275e-15 0)
(9.20407e-14 -9.50549e-15 0)
(9.2375e-14 -9.71389e-15 0)
(9.29619e-14 -9.93281e-15 0)
(9.23915e-14 -9.78664e-15 0)
(9.08646e-14 -9.64491e-15 0)
(8.90216e-14 -9.16492e-15 0)
(8.65673e-14 -8.81078e-15 0)
(8.35478e-14 -8.68039e-15 0)
(8.00881e-14 -8.63317e-15 0)
(7.71332e-14 -9.13564e-15 0)
(7.57281e-14 -9.87706e-15 0)
(7.54106e-14 -1.03808e-14 0)
(7.4633e-14 -1.10687e-14 0)
(7.24823e-14 -1.17633e-14 0)
(6.99643e-14 -1.2485e-14 0)
(6.76419e-14 -1.34823e-14 0)
(6.47959e-14 -1.4441e-14 0)
(6.19394e-14 -1.49413e-14 0)
(6.01431e-14 -1.47902e-14 0)
(5.82346e-14 -1.45743e-14 0)
(5.44474e-14 -1.42871e-14 0)
(4.90274e-14 -1.31047e-14 0)
(4.23144e-14 -1.1632e-14 0)
(3.49538e-14 -1.00797e-14 0)
(2.66914e-14 -7.67435e-15 0)
(1.74464e-14 -5.1921e-15 0)
(7.08501e-15 -1.55808e-15 0)
(-1.43827e-15 2.39477e-15 0)
(-4.194e-15 6.40506e-15 0)
(-6.64743e-15 1.00405e-14 0)
(-9.54611e-15 1.41589e-14 0)
(-1.34356e-14 1.72942e-14 0)
(-1.73643e-14 1.94752e-14 0)
(-2.07981e-14 2.15047e-14 0)
(-2.34607e-14 2.30605e-14 0)
(-2.57218e-14 2.40669e-14 0)
(-2.78657e-14 2.57136e-14 0)