/*--------------------------------*- C++ -*----------------------------------*\
| =========                 |                                                 |
| \\      /  F ield         | OpenFOAM: The Open Source CFD Toolbox           |
|  \\    /   O peration     | Version:  v2012                                 |
|   \\  /    A nd           | Website:  www.openfoam.com                      |
|    \\/     M anipulation  |                                                 |
\*---------------------------------------------------------------------------*/
FoamFile
{
    version     2.0;
    format      ascii;
    class       volVectorField;
    location    "70";
    object      Usup;
}
// * * * * * * * * * * * * * * * * * * * * * * * * * * * * * * * * * * * * * //

dimensions      [0 1 -1 0 0 0 0];


internalField   nonuniform List<vector> 
4000
(
(-1.88862e-16 -1.68289e-16 0)
(-3.80307e-16 2.75767e-17 0)
(-3.41731e-16 4.94483e-17 0)
(-2.5664e-16 8.29616e-17 0)
(-5.08106e-16 -6.45433e-17 0)
(-1.20552e-15 -6.27569e-16 0)
(-1.99385e-15 -7.8832e-16 0)
(-2.80368e-15 -6.46214e-16 0)
(-3.20348e-15 -2.36079e-16 0)
(-2.95427e-15 -1.94747e-16 0)
(-2.67668e-15 -6.42103e-16 0)
(-2.58713e-15 -6.79118e-16 0)
(-2.89416e-15 -6.66953e-16 0)
(-3.5007e-15 -4.84612e-16 0)
(-3.5234e-15 -6.35241e-17 0)
(-3.08565e-15 2.27001e-17 0)
(-2.64616e-15 6.88395e-17 0)
(-2.38429e-15 -3.54496e-16 0)
(-2.34971e-15 -5.61549e-16 0)
(-2.26647e-15 -1.39619e-16 0)
(-1.88898e-15 1.54057e-16 0)
(-1.42957e-15 -1.04259e-16 0)
(-9.31414e-16 -1.61246e-16 0)
(-2.46546e-16 -1.28781e-16 0)
(6.11302e-16 -6.97388e-17 0)
(8.72026e-16 -2.62469e-16 0)
(3.35999e-16 -7.93329e-17 0)
(1.63913e-16 1.19656e-16 0)
(6.65747e-16 3.63651e-16 0)
(1.63655e-15 5.86944e-16 0)
(2.44294e-15 7.87656e-16 0)
(3.11481e-15 8.36623e-16 0)
(3.80995e-15 4.55146e-16 0)
(4.45413e-15 6.43407e-17 0)
(4.61886e-15 -4.34394e-16 0)
(3.99666e-15 -5.68189e-16 0)
(2.95133e-15 -7.18071e-16 0)
(2.75867e-15 -2.1855e-16 0)
(3.74811e-15 -1.52111e-16 0)
(4.41947e-15 -3.6388e-16 0)
(5.03533e-15 -4.94781e-16 0)
(5.61137e-15 -6.67866e-16 0)
(5.81261e-15 -9.03686e-16 0)
(5.60201e-15 -6.73459e-16 0)
(5.36764e-15 -2.95486e-16 0)
(5.47718e-15 -1.53269e-16 0)
(5.63864e-15 -1.90104e-16 0)
(6.234e-15 -2.41744e-16 0)
(6.95635e-15 9.83929e-17 0)
(7.53256e-15 2.8283e-16 0)
(7.61443e-15 2.40656e-16 0)
(7.59269e-15 3.73825e-16 0)
(7.48275e-15 3.48392e-16 0)
(7.03852e-15 4.92975e-16 0)
(7.3045e-15 6.80825e-16 0)
(8.07405e-15 6.77695e-16 0)
(8.79016e-15 6.77801e-16 0)
(9.39999e-15 5.41893e-16 0)
(8.98306e-15 5.10162e-16 0)
(8.05457e-15 5.00362e-16 0)
(8.41434e-15 5.72129e-16 0)
(8.5387e-15 2.31334e-16 0)
(8.03549e-15 6.09016e-16 0)
(8.25897e-15 8.75956e-16 0)
(8.70272e-15 1.03565e-15 0)
(9.13472e-15 1.07663e-15 0)
(9.84809e-15 8.99258e-16 0)
(1.03822e-14 7.13353e-16 0)
(1.06374e-14 8.17424e-16 0)
(1.08049e-14 4.72866e-16 0)
(1.06217e-14 3.20569e-16 0)
(1.00806e-14 1.65958e-16 0)
(9.81761e-15 2.37334e-16 0)
(1.0215e-14 7.49367e-17 0)
(1.02947e-14 -9.57083e-17 0)
(1.01753e-14 -1.08848e-16 0)
(1.01406e-14 -4.66866e-16 0)
(9.34789e-15 -6.62377e-16 0)
(8.69068e-15 -6.00118e-16 0)
(8.80089e-15 -5.35253e-16 0)
(8.83473e-15 -5.9432e-16 0)
(8.86166e-15 -6.81545e-16 0)
(8.78833e-15 -6.70894e-16 0)
(8.50152e-15 -6.4871e-16 0)
(8.33768e-15 -1.14682e-15 0)
(7.5256e-15 -1.3891e-15 0)
(7.02416e-15 -1.03968e-15 0)
(7.45294e-15 -7.42525e-16 0)
(7.71142e-15 -5.86531e-16 0)
(7.68563e-15 -4.17313e-16 0)
(7.52983e-15 -3.48193e-16 0)
(7.34121e-15 -3.02969e-16 0)
(6.60804e-15 -2.59007e-16 0)
(5.71015e-15 -1.93324e-16 0)
(5.27e-15 -1.16158e-16 0)
(4.87291e-15 2.46036e-16 0)
(4.3359e-15 6.78798e-16 0)
(3.74527e-15 6.73822e-16 0)
(2.8731e-15 3.41833e-16 0)
(1.07487e-15 -7.7002e-17 0)
(-2.70394e-16 -1.18345e-16 0)
(-8.10039e-16 6.64951e-17 0)
(-1.08576e-15 8.82963e-17 0)
(-1.29409e-15 -1.21294e-16 0)
(-2.51695e-15 -6.96052e-16 0)
(-4.21957e-15 -1.48008e-15 0)
(-5.64591e-15 -1.76632e-15 0)
(-7.12518e-15 -1.5512e-15 0)
(-8.20294e-15 -1.12466e-15 0)
(-8.54287e-15 -1.227e-15 0)
(-8.13873e-15 -1.55362e-15 0)
(-7.70834e-15 -1.77223e-15 0)
(-8.21914e-15 -1.95817e-15 0)
(-9.06662e-15 -1.44604e-15 0)
(-9.17967e-15 -7.10607e-16 0)
(-8.53639e-15 -1.5154e-16 0)
(-7.88917e-15 -3.90036e-17 0)
(-7.36692e-15 -6.68667e-16 0)
(-6.4382e-15 -1.08962e-15 0)
(-5.64337e-15 -5.27541e-16 0)
(-5.13879e-15 -1.03983e-16 0)
(-4.14488e-15 -2.63868e-16 0)
(-2.5256e-15 -4.51271e-16 0)
(-6.7875e-16 -3.37518e-16 0)
(1.11135e-15 -3.40287e-17 0)
(1.96179e-15 -3.27338e-16 0)
(1.54562e-15 4.76728e-17 0)
(1.53206e-15 3.0064e-16 0)
(2.86109e-15 9.15565e-16 0)
(5.12824e-15 1.77983e-15 0)
(7.11314e-15 2.31853e-15 0)
(8.53721e-15 2.15281e-15 0)
(1.00062e-14 1.26161e-15 0)
(1.14316e-14 5.8615e-17 0)
(1.20264e-14 -1.06156e-15 0)
(1.10835e-14 -1.44488e-15 0)
(9.61094e-15 -1.85402e-15 0)
(9.50535e-15 -9.74811e-16 0)
(1.09901e-14 -8.51988e-16 0)
(1.25534e-14 -1.26018e-15 0)
(1.41712e-14 -1.52251e-15 0)
(1.54935e-14 -2.05479e-15 0)
(1.6391e-14 -2.25392e-15 0)
(1.66059e-14 -1.87541e-15 0)
(1.62294e-14 -1.16847e-15 0)
(1.62541e-14 -7.71963e-16 0)
(1.6706e-14 -6.60363e-16 0)
(1.84265e-14 -2.82505e-16 0)
(2.0318e-14 5.38305e-16 0)
(2.14187e-14 1.0361e-15 0)
(2.17911e-14 8.85301e-16 0)
(2.18738e-14 1.20473e-15 0)
(2.17078e-14 1.06292e-15 0)
(2.12192e-14 1.39892e-15 0)
(2.18e-14 1.9951e-15 0)
(2.33786e-14 2.01323e-15 0)
(2.49502e-14 1.8032e-15 0)
(2.61832e-14 1.43695e-15 0)
(2.55633e-14 1.26183e-15 0)
(2.39979e-14 1.63546e-15 0)
(2.4242e-14 1.64573e-15 0)
(2.46662e-14 1.03906e-15 0)
(2.43501e-14 1.78531e-15 0)
(2.47085e-14 2.47552e-15 0)
(2.5616e-14 3.10338e-15 0)
(2.65569e-14 3.22374e-15 0)
(2.80623e-14 2.93814e-15 0)
(2.95932e-14 2.27798e-15 0)
(3.02001e-14 2.04595e-15 0)
(3.03916e-14 1.35395e-15 0)
(3.01492e-14 1.01962e-15 0)
(2.92565e-14 3.88693e-16 0)
(2.87108e-14 2.26652e-16 0)
(2.91514e-14 1.10845e-16 0)
(2.93814e-14 -1.63735e-16 0)
(2.89341e-14 -3.20959e-16 0)
(2.84404e-14 -1.15003e-15 0)
(2.70562e-14 -1.7518e-15 0)
(2.57985e-14 -1.72215e-15 0)
(2.56442e-14 -1.68039e-15 0)
(2.54773e-14 -1.79408e-15 0)
(2.54537e-14 -2.24528e-15 0)
(2.52285e-14 -2.4785e-15 0)
(2.41237e-14 -2.48962e-15 0)
(2.32625e-14 -3.19324e-15 0)
(2.21493e-14 -3.42315e-15 0)
(2.14341e-14 -2.74886e-15 0)
(2.18735e-14 -2.09836e-15 0)
(2.21774e-14 -1.68658e-15 0)
(2.19533e-14 -1.49038e-15 0)
(2.13411e-14 -1.00047e-15 0)
(2.05467e-14 -9.19657e-16 0)
(1.87186e-14 -9.87458e-16 0)
(1.65394e-14 -5.61934e-16 0)
(1.52986e-14 -7.58751e-17 0)
(1.4188e-14 7.92084e-16 0)
(1.22428e-14 1.51951e-15 0)
(9.73664e-15 1.42861e-15 0)
(6.7253e-15 7.82622e-16 0)
(2.57973e-15 -3.22231e-17 0)
(-5.32592e-16 2.17843e-16 0)
(-1.4626e-15 2.54271e-16 0)
(-2.16465e-15 -2.52969e-17 0)
(-2.98422e-15 -8.95346e-16 0)
(-4.70001e-15 -1.57921e-15 0)
(-6.93992e-15 -1.80877e-15 0)
(-9.00988e-15 -1.89811e-15 0)
(-1.11695e-14 -2.0349e-15 0)
(-1.29012e-14 -2.01767e-15 0)
(-1.33085e-14 -2.45814e-15 0)
(-1.29439e-14 -2.75874e-15 0)
(-1.28201e-14 -3.17483e-15 0)
(-1.31746e-14 -3.29564e-15 0)
(-1.3893e-14 -2.32939e-15 0)
(-1.38834e-14 -9.41054e-16 0)
(-1.31194e-14 -2.55642e-16 0)
(-1.25576e-14 -4.54611e-16 0)
(-1.18515e-14 -7.35756e-16 0)
(-1.03242e-14 -9.19439e-16 0)
(-8.87149e-15 -1.06661e-15 0)
(-7.83376e-15 -8.01327e-16 0)
(-6.33834e-15 -4.69166e-16 0)
(-3.94273e-15 -7.27947e-16 0)
(-9.56535e-16 -8.61083e-16 0)
(1.51533e-15 -2.95812e-16 0)
(2.83898e-15 -3.85899e-18 0)
(2.75928e-15 5.10472e-16 0)
(3.22549e-15 1.07483e-15 0)
(5.69667e-15 1.82211e-15 0)
(8.94648e-15 3.12824e-15 0)
(1.13595e-14 3.75092e-15 0)
(1.31537e-14 3.06989e-15 0)
(1.50669e-14 2.03066e-15 0)
(1.70708e-14 2.74027e-16 0)
(1.83362e-14 -1.27678e-15 0)
(1.74776e-14 -2.10344e-15 0)
(1.61581e-14 -2.79159e-15 0)
(1.63803e-14 -2.47687e-15 0)
(1.80783e-14 -2.05117e-15 0)
(2.02797e-14 -2.06585e-15 0)
(2.25397e-14 -2.33082e-15 0)
(2.46285e-14 -2.9365e-15 0)
(2.62968e-14 -3.02229e-15 0)
(2.6894e-14 -2.88062e-15 0)
(2.67207e-14 -2.45786e-15 0)
(2.68796e-14 -1.97258e-15 0)
(2.78943e-14 -1.21029e-15 0)
(3.05089e-14 1.57531e-16 0)
(3.30436e-14 1.04039e-15 0)
(3.43254e-14 1.50976e-15 0)
(3.49667e-14 1.52784e-15 0)
(3.52282e-14 2.03859e-15 0)
(3.51462e-14 1.89263e-15 0)
(3.51179e-14 2.22946e-15 0)
(3.5943e-14 2.85873e-15 0)
(3.77019e-14 3.16436e-15 0)
(3.97314e-14 2.71674e-15 0)
(4.14309e-14 2.16983e-15 0)
(4.12208e-14 1.83385e-15 0)
(3.94665e-14 2.63405e-15 0)
(3.92522e-14 2.84614e-15 0)
(4.00461e-14 2.33134e-15 0)
(4.02425e-14 2.7043e-15 0)
(4.09369e-14 3.81075e-15 0)
(4.20761e-14 4.72981e-15 0)
(4.32021e-14 5.17016e-15 0)
(4.49916e-14 4.97644e-15 0)
(4.69494e-14 4.21048e-15 0)
(4.80401e-14 3.39718e-15 0)
(4.85188e-14 2.55108e-15 0)
(4.80996e-14 1.93839e-15 0)
(4.69183e-14 1.05138e-15 0)
(4.65893e-14 5.59943e-16 0)
(4.71393e-14 1.22459e-16 0)
(4.71783e-14 -4.07674e-16 0)
(4.62671e-14 -8.83762e-16 0)
(4.52391e-14 -1.58025e-15 0)
(4.35917e-14 -2.37942e-15 0)
(4.20716e-14 -2.6247e-15 0)
(4.16167e-14 -2.76868e-15 0)
(4.10072e-14 -3.42626e-15 0)
(4.06506e-14 -4.10326e-15 0)
(4.03943e-14 -4.57645e-15 0)
(3.89213e-14 -4.71824e-15 0)
(3.76113e-14 -4.99437e-15 0)
(3.62661e-14 -4.81876e-15 0)
(3.53408e-14 -4.25719e-15 0)
(3.55973e-14 -3.4398e-15 0)
(3.55643e-14 -2.94981e-15 0)
(3.52208e-14 -2.54987e-15 0)
(3.41916e-14 -1.98327e-15 0)
(3.23707e-14 -1.8461e-15 0)
(2.98507e-14 -1.54264e-15 0)
(2.69774e-14 -8.85537e-16 0)
(2.48186e-14 2.53133e-17 0)
(2.25801e-14 9.52936e-16 0)
(1.90253e-14 1.48939e-15 0)
(1.46906e-14 1.41417e-15 0)
(9.73579e-15 7.5334e-16 0)
(3.63697e-15 1.11847e-16 0)
(-8.04365e-16 4.02313e-16 0)
(-2.36528e-15 4.01894e-16 0)
(-3.82416e-15 -9.58075e-17 0)
(-4.96004e-15 -1.26955e-15 0)
(-6.68617e-15 -2.12601e-15 0)
(-9.31449e-15 -1.88747e-15 0)
(-1.21905e-14 -1.80993e-15 0)
(-1.49726e-14 -2.42217e-15 0)
(-1.71864e-14 -2.92439e-15 0)
(-1.81153e-14 -3.51472e-15 0)
(-1.78084e-14 -3.94204e-15 0)
(-1.74181e-14 -4.02993e-15 0)
(-1.72709e-14 -4.13665e-15 0)
(-1.73688e-14 -3.30075e-15 0)
(-1.76276e-14 -1.38979e-15 0)
(-1.7629e-14 -4.38392e-16 0)
(-1.69599e-14 -1.6308e-16 0)
(-1.56912e-14 -4.929e-16 0)
(-1.39634e-14 -8.94165e-16 0)
(-1.2019e-14 -1.45381e-15 0)
(-1.00818e-14 -1.20685e-15 0)
(-8.16896e-15 -6.98722e-16 0)
(-5.42081e-15 -8.16122e-16 0)
(-1.38707e-15 -8.14787e-16 0)
(2.20231e-15 -4.40632e-16 0)
(4.04455e-15 1.87996e-16 0)
(4.44137e-15 9.54701e-16 0)
(5.40142e-15 2.33277e-15 0)
(8.63393e-15 3.434e-15 0)
(1.26349e-14 4.37232e-15 0)
(1.50857e-14 4.71141e-15 0)
(1.71124e-14 3.69822e-15 0)
(1.94053e-14 2.5301e-15 0)
(2.16672e-14 8.02322e-16 0)
(2.34936e-14 -1.09198e-15 0)
(2.30484e-14 -2.51106e-15 0)
(2.20909e-14 -3.25247e-15 0)
(2.309e-14 -3.34224e-15 0)
(2.54424e-14 -3.40278e-15 0)
(2.78721e-14 -3.29916e-15 0)
(3.04242e-14 -3.14597e-15 0)
(3.30515e-14 -3.14358e-15 0)
(3.52842e-14 -3.39613e-15 0)
(3.62993e-14 -3.66136e-15 0)
(3.6529e-14 -3.49546e-15 0)
(3.73703e-14 -2.72971e-15 0)
(3.93138e-14 -1.44407e-15 0)
(4.22983e-14 2.18716e-16 0)
(4.48239e-14 1.33557e-15 0)
(4.6401e-14 1.83642e-15 0)
(4.75222e-14 2.32462e-15 0)
(4.79061e-14 2.81647e-15 0)
(4.78643e-14 2.53333e-15 0)
(4.82076e-14 2.70904e-15 0)
(4.94663e-14 3.20691e-15 0)
(5.13503e-14 3.6605e-15 0)
(5.3397e-14 3.42861e-15 0)
(5.54438e-14 2.84984e-15 0)
(5.58497e-14 2.35221e-15 0)
(5.43959e-14 3.2326e-15 0)
(5.37285e-14 4.02532e-15 0)
(5.4401e-14 3.8537e-15 0)
(5.53895e-14 3.4586e-15 0)
(5.66614e-14 4.85971e-15 0)
(5.79557e-14 5.73392e-15 0)
(5.91711e-14 6.78742e-15 0)
(6.10014e-14 6.78808e-15 0)
(6.31278e-14 6.26843e-15 0)
(6.43857e-14 5.24414e-15 0)
(6.50556e-14 4.00824e-15 0)
(6.46887e-14 2.8644e-15 0)
(6.35126e-14 1.89851e-15 0)
(6.30172e-14 1.47728e-15 0)
(6.33844e-14 3.35988e-16 0)
(6.34354e-14 -8.37883e-16 0)
(6.24766e-14 -1.70736e-15 0)
(6.10976e-14 -2.07365e-15 0)
(5.90347e-14 -2.94958e-15 0)
(5.73002e-14 -3.2089e-15 0)
(5.62551e-14 -3.76767e-15 0)
(5.52606e-14 -5.01695e-15 0)
(5.49353e-14 -5.52483e-15 0)
(5.45359e-14 -6.27631e-15 0)
(5.28106e-14 -6.81733e-15 0)
(5.12678e-14 -6.69005e-15 0)
(4.96663e-14 -6.39787e-15 0)
(4.85603e-14 -5.4374e-15 0)
(4.85567e-14 -4.73241e-15 0)
(4.82198e-14 -4.05983e-15 0)
(4.74856e-14 -3.42329e-15 0)
(4.57906e-14 -3.26171e-15 0)
(4.35306e-14 -2.92284e-15 0)
(4.03234e-14 -2.36492e-15 0)
(3.65587e-14 -1.31603e-15 0)
(3.34976e-14 -2.83921e-16 0)
(3.00152e-14 3.1373e-16 0)
(2.49885e-14 8.79787e-16 0)
(1.88815e-14 9.92204e-16 0)
(1.21789e-14 5.11129e-16 0)
(4.48482e-15 -2.48919e-17 0)
(-1.16693e-15 1.71628e-16 0)
(-3.33607e-15 2.48233e-16 0)
(-5.43359e-15 -5.39721e-18 0)
(-7.18698e-15 -6.47175e-16 0)
(-8.74661e-15 -1.5238e-15 0)
(-1.13971e-14 -1.60929e-15 0)
(-1.52699e-14 -2.24405e-15 0)
(-1.89237e-14 -3.11296e-15 0)
(-2.14142e-14 -3.95761e-15 0)
(-2.22029e-14 -4.55609e-15 0)
(-2.17107e-14 -4.89495e-15 0)
(-2.15569e-14 -4.40232e-15 0)
(-2.14639e-14 -3.6571e-15 0)
(-2.08581e-14 -3.32225e-15 0)
(-2.06619e-14 -2.34943e-15 0)
(-2.07038e-14 -1.10459e-15 0)
(-2.05034e-14 2.16274e-18 0)
(-1.96404e-14 3.26102e-16 0)
(-1.75804e-14 -4.9312e-16 0)
(-1.48376e-14 -1.12178e-15 0)
(-1.20255e-14 -1.08127e-15 0)
(-9.64369e-15 -6.80461e-16 0)
(-6.34427e-15 -2.73292e-16 0)
(-1.66465e-15 6.32243e-17 0)
(2.52493e-15 3.37003e-16 0)
(5.16329e-15 7.15198e-16 0)
(6.47768e-15 1.60197e-15 0)
(8.13469e-15 3.20203e-15 0)
(1.15265e-14 4.87262e-15 0)
(1.57295e-14 5.30797e-15 0)
(1.8308e-14 4.87107e-15 0)
(2.05278e-14 3.79584e-15 0)
(2.3268e-14 2.34845e-15 0)
(2.57774e-14 8.39676e-16 0)
(2.7878e-14 -6.86806e-16 0)
(2.80846e-14 -2.58704e-15 0)
(2.78656e-14 -3.34829e-15 0)
(2.902e-14 -3.77493e-15 0)
(3.17275e-14 -4.37311e-15 0)
(3.51672e-14 -4.34497e-15 0)
(3.84579e-14 -3.77609e-15 0)
(4.12322e-14 -3.47209e-15 0)
(4.34628e-14 -3.92593e-15 0)
(4.49236e-14 -4.27148e-15 0)
(4.60127e-14 -3.82611e-15 0)
(4.76085e-14 -2.62572e-15 0)
(5.00699e-14 -1.40049e-15 0)
(5.35288e-14 -1.36858e-16 0)
(5.62379e-14 1.46566e-15 0)
(5.7976e-14 2.62612e-15 0)
(5.93043e-14 3.35602e-15 0)
(5.94972e-14 3.52705e-15 0)
(5.95742e-14 3.06371e-15 0)
(6.05383e-14 3.05744e-15 0)
(6.21998e-14 3.36966e-15 0)
(6.42462e-14 3.78378e-15 0)
(6.63271e-14 3.93006e-15 0)
(6.84071e-14 3.59761e-15 0)
(6.94778e-14 2.94289e-15 0)
(6.86873e-14 3.68708e-15 0)
(6.78108e-14 4.64781e-15 0)
(6.79127e-14 4.90964e-15 0)
(6.95193e-14 4.5841e-15 0)
(7.16316e-14 5.69527e-15 0)
(7.32341e-14 6.4437e-15 0)
(7.45899e-14 7.75454e-15 0)
(7.61481e-14 8.27389e-15 0)
(7.81673e-14 7.81862e-15 0)
(7.9313e-14 6.63959e-15 0)
(8.00041e-14 5.42521e-15 0)
(7.97961e-14 4.0792e-15 0)
(7.89672e-14 2.92644e-15 0)
(7.83164e-14 2.19365e-15 0)
(7.81722e-14 9.16404e-16 0)
(7.81917e-14 -5.66954e-16 0)
(7.74911e-14 -1.70087e-15 0)
(7.58857e-14 -2.50972e-15 0)
(7.35575e-14 -3.81482e-15 0)
(7.15172e-14 -4.24918e-15 0)
(6.97373e-14 -5.07893e-15 0)
(6.86579e-14 -5.91949e-15 0)
(6.81578e-14 -6.69312e-15 0)
(6.72847e-14 -7.81755e-15 0)
(6.57413e-14 -8.54795e-15 0)
(6.42208e-14 -8.15783e-15 0)
(6.2593e-14 -7.75256e-15 0)
(6.11923e-14 -6.37881e-15 0)
(6.06604e-14 -5.71824e-15 0)
(6.00229e-14 -5.19332e-15 0)
(5.8595e-14 -4.70898e-15 0)
(5.63885e-14 -4.48419e-15 0)
(5.35948e-14 -4.07918e-15 0)
(4.99961e-14 -3.79683e-15 0)
(4.56365e-14 -2.39463e-15 0)
(4.12001e-14 -1.2815e-15 0)
(3.65369e-14 -7.74792e-16 0)
(3.03195e-14 9.31436e-18 0)
(2.26042e-14 2.46566e-17 0)
(1.41953e-14 -7.22893e-17 0)
(5.21578e-15 -1.74843e-16 0)
(-1.34898e-15 5.13245e-17 0)
(-3.9976e-15 1.57688e-16 0)
(-6.59514e-15 5.04945e-17 0)
(-8.8583e-15 1.84056e-16 0)
(-1.09643e-14 -5.2879e-16 0)
(-1.43197e-14 -1.47343e-15 0)
(-1.87106e-14 -2.9914e-15 0)
(-2.25008e-14 -3.60413e-15 0)
(-2.51774e-14 -4.13765e-15 0)
(-2.61747e-14 -4.6651e-15 0)
(-2.53481e-14 -5.224e-15 0)
(-2.43663e-14 -5.03153e-15 0)
(-2.44935e-14 -3.50013e-15 0)
(-2.44848e-14 -2.87783e-15 0)
(-2.395e-14 -2.3933e-15 0)
(-2.35216e-14 -1.44797e-15 0)
(-2.30414e-14 -2.41794e-16 0)
(-2.26012e-14 9.4085e-16 0)
(-2.09057e-14 3.85536e-16 0)
(-1.75563e-14 -1.59001e-16 0)
(-1.3958e-14 -2.91628e-16 0)
(-1.07481e-14 7.96731e-17 0)
(-6.92927e-15 9.3079e-16 0)
(-1.83973e-15 1.23679e-15 0)
(2.89027e-15 1.32203e-15 0)
(6.18053e-15 1.47701e-15 0)
(8.39511e-15 2.49081e-15 0)
(1.09122e-14 4.04203e-15 0)
(1.44342e-14 5.55253e-15 0)
(1.81861e-14 5.74394e-15 0)
(2.08827e-14 5.03092e-15 0)
(2.34719e-14 3.98145e-15 0)
(2.66069e-14 2.15285e-15 0)
(2.97409e-14 6.05341e-16 0)
(3.19264e-14 -8.9049e-16 0)
(3.24551e-14 -2.68618e-15 0)
(3.29336e-14 -3.61506e-15 0)
(3.45612e-14 -4.08161e-15 0)
(3.79929e-14 -4.54041e-15 0)
(4.21715e-14 -4.63887e-15 0)
(4.58462e-14 -4.48121e-15 0)
(4.85721e-14 -4.35752e-15 0)
(5.10478e-14 -4.76487e-15 0)
(5.33275e-14 -4.74292e-15 0)
(5.52624e-14 -3.46866e-15 0)
(5.73024e-14 -2.22197e-15 0)
(6.00199e-14 -1.21311e-15 0)
(6.41085e-14 -1.41348e-16 0)
(6.74136e-14 1.50738e-15 0)
(6.91357e-14 3.2265e-15 0)
(7.01822e-14 3.91577e-15 0)
(7.02164e-14 3.94968e-15 0)
(7.05026e-14 3.7819e-15 0)
(7.18894e-14 3.73891e-15 0)
(7.40324e-14 3.80891e-15 0)
(7.64564e-14 4.12839e-15 0)
(7.85928e-14 4.35488e-15 0)
(8.05426e-14 4.12251e-15 0)
(8.20263e-14 3.87589e-15 0)
(8.19251e-14 4.31769e-15 0)
(8.10846e-14 5.32597e-15 0)
(8.10428e-14 5.80522e-15 0)
(8.29653e-14 6.00815e-15 0)
(8.5482e-14 6.42818e-15 0)
(8.75284e-14 7.34444e-15 0)
(8.92807e-14 8.44286e-15 0)
(9.05398e-14 9.05311e-15 0)
(9.2063e-14 8.58802e-15 0)
(9.32422e-14 7.8112e-15 0)
(9.40624e-14 6.74754e-15 0)
(9.38083e-14 5.46241e-15 0)
(9.30021e-14 4.43922e-15 0)
(9.22743e-14 3.004e-15 0)
(9.19233e-14 1.69432e-15 0)
(9.18377e-14 -2.25158e-16 0)
(9.10113e-14 -1.59448e-15 0)
(8.90074e-14 -3.05053e-15 0)
(8.66073e-14 -4.59101e-15 0)
(8.45928e-14 -5.67538e-15 0)
(8.26784e-14 -6.43659e-15 0)
(8.11958e-14 -7.17682e-15 0)
(8.01237e-14 -8.25919e-15 0)
(7.91612e-14 -8.95457e-15 0)
(7.78725e-14 -9.42991e-15 0)
(7.64147e-14 -9.22896e-15 0)
(7.47482e-14 -8.94334e-15 0)
(7.30883e-14 -7.73871e-15 0)
(7.17947e-14 -6.68034e-15 0)
(7.06498e-14 -6.56778e-15 0)
(6.88952e-14 -6.32131e-15 0)
(6.61449e-14 -6.08185e-15 0)
(6.26876e-14 -5.769e-15 0)
(5.87181e-14 -5.20454e-15 0)
(5.38597e-14 -4.18045e-15 0)
(4.82813e-14 -2.95689e-15 0)
(4.25371e-14 -2.09843e-15 0)
(3.49253e-14 -1.262e-15 0)
(2.57029e-14 -1.09867e-15 0)
(1.61947e-14 -7.26698e-16 0)
(5.93662e-15 -1.8014e-16 0)
(-1.68271e-15 2.72379e-16 0)
(-4.85461e-15 4.49778e-16 0)
(-7.56773e-15 2.00321e-16 0)
(-1.04018e-14 3.93675e-16 0)
(-1.34517e-14 -4.36975e-16 0)
(-1.74512e-14 -1.96393e-15 0)
(-2.18447e-14 -3.32393e-15 0)
(-2.5472e-14 -3.40659e-15 0)
(-2.84643e-14 -3.70319e-15 0)
(-2.96809e-14 -4.36283e-15 0)
(-2.89394e-14 -4.67391e-15 0)
(-2.74379e-14 -5.02759e-15 0)
(-2.71411e-14 -4.07993e-15 0)
(-2.73144e-14 -2.91054e-15 0)
(-2.67453e-14 -1.79761e-15 0)
(-2.59638e-14 -1.16191e-15 0)
(-2.51618e-14 -3.18787e-17 0)
(-2.50629e-14 8.45182e-16 0)
(-2.36515e-14 9.06656e-16 0)
(-1.98796e-14 1.18802e-15 0)
(-1.55713e-14 1.74174e-15 0)
(-1.15474e-14 2.21759e-15 0)
(-7.30717e-15 2.6762e-15 0)
(-2.17175e-15 2.48201e-15 0)
(2.90747e-15 2.08801e-15 0)
(7.17835e-15 2.27367e-15 0)
(1.04397e-14 3.04572e-15 0)
(1.34223e-14 4.50777e-15 0)
(1.68679e-14 5.57724e-15 0)
(2.05768e-14 5.75097e-15 0)
(2.34134e-14 5.41799e-15 0)
(2.59405e-14 4.67316e-15 0)
(2.93307e-14 2.58704e-15 0)
(3.29343e-14 7.19318e-16 0)
(3.5512e-14 -1.53124e-15 0)
(3.66449e-14 -2.92399e-15 0)
(3.78689e-14 -3.91144e-15 0)
(3.99115e-14 -4.43915e-15 0)
(4.35609e-14 -4.75089e-15 0)
(4.82172e-14 -4.87204e-15 0)
(5.24592e-14 -4.96931e-15 0)
(5.5568e-14 -5.08302e-15 0)
(5.83989e-14 -5.42734e-15 0)
(6.17028e-14 -4.89703e-15 0)
(6.42758e-14 -3.47982e-15 0)
(6.62885e-14 -2.21631e-15 0)
(6.92911e-14 -7.97751e-16 0)
(7.39432e-14 3.91374e-16 0)
(7.78629e-14 1.98295e-15 0)
(7.95855e-14 3.18705e-15 0)
(8.02821e-14 3.78805e-15 0)
(8.03715e-14 3.81571e-15 0)
(8.08715e-14 4.24025e-15 0)
(8.24922e-14 4.43311e-15 0)
(8.49462e-14 4.50432e-15 0)
(8.76674e-14 4.72892e-15 0)
(8.98761e-14 5.22383e-15 0)
(9.20481e-14 5.34399e-15 0)
(9.39332e-14 5.34737e-15 0)
(9.43055e-14 4.98632e-15 0)
(9.36904e-14 5.65837e-15 0)
(9.34666e-14 6.31769e-15 0)
(9.5358e-14 7.33836e-15 0)
(9.84181e-14 7.83491e-15 0)
(1.01038e-13 8.91945e-15 0)
(1.0275e-13 9.25904e-15 0)
(1.03744e-13 9.51698e-15 0)
(1.05265e-13 9.3075e-15 0)
(1.0637e-13 8.88628e-15 0)
(1.06932e-13 7.86511e-15 0)
(1.06845e-13 6.55134e-15 0)
(1.05875e-13 5.43926e-15 0)
(1.04906e-13 3.5714e-15 0)
(1.04241e-13 1.84429e-15 0)
(1.03977e-13 -4.06218e-16 0)
(1.03281e-13 -2.12741e-15 0)
(1.01112e-13 -3.5947e-15 0)
(9.85396e-14 -5.15953e-15 0)
(9.65257e-14 -6.56772e-15 0)
(9.44643e-14 -7.51866e-15 0)
(9.2624e-14 -8.62946e-15 0)
(9.16166e-14 -9.6217e-15 0)
(9.0606e-14 -1.00061e-14 0)
(8.90793e-14 -1.06211e-14 0)
(8.74223e-14 -1.06731e-14 0)
(8.58056e-14 -1.02957e-14 0)
(8.4253e-14 -9.17262e-15 0)
(8.2211e-14 -8.14942e-15 0)
(8.02324e-14 -7.71797e-15 0)
(7.80481e-14 -7.82473e-15 0)
(7.48793e-14 -7.86915e-15 0)
(7.11166e-14 -7.6561e-15 0)
(6.66255e-14 -6.73751e-15 0)
(6.11467e-14 -5.85952e-15 0)
(5.48203e-14 -4.64326e-15 0)
(4.79379e-14 -3.61495e-15 0)
(3.90891e-14 -2.9051e-15 0)
(2.87119e-14 -2.14507e-15 0)
(1.8082e-14 -1.16532e-15 0)
(6.49248e-15 -3.88471e-16 0)
(-1.90752e-15 4.8604e-16 0)
(-5.69944e-15 1.00979e-15 0)
(-8.831e-15 5.59266e-16 0)
(-1.20895e-14 -1.72751e-16 0)
(-1.60676e-14 -1.16601e-15 0)
(-2.04494e-14 -2.35333e-15 0)
(-2.44095e-14 -2.92172e-15 0)
(-2.79943e-14 -3.24676e-15 0)
(-3.15747e-14 -3.48246e-15 0)
(-3.29466e-14 -4.03978e-15 0)
(-3.21516e-14 -4.40337e-15 0)
(-3.041e-14 -4.59014e-15 0)
(-2.94972e-14 -4.01287e-15 0)
(-2.93475e-14 -2.4678e-15 0)
(-2.90658e-14 -9.57769e-16 0)
(-2.83583e-14 -1.8392e-16 0)
(-2.7318e-14 4.76343e-16 0)
(-2.71816e-14 8.79514e-16 0)
(-2.53529e-14 2.01003e-15 0)
(-2.09823e-14 2.87025e-15 0)
(-1.64946e-14 3.75473e-15 0)
(-1.25306e-14 3.57072e-15 0)
(-8.32323e-15 3.66689e-15 0)
(-2.95042e-15 3.95899e-15 0)
(2.96795e-15 3.57441e-15 0)
(8.00622e-15 3.34848e-15 0)
(1.20431e-14 3.68309e-15 0)
(1.569e-14 4.53971e-15 0)
(1.92295e-14 5.62157e-15 0)
(2.29624e-14 6.02335e-15 0)
(2.60075e-14 5.66359e-15 0)
(2.82941e-14 4.98048e-15 0)
(3.15049e-14 2.61012e-15 0)
(3.52993e-14 4.333e-16 0)
(3.8485e-14 -2.0277e-15 0)
(4.04923e-14 -3.56239e-15 0)
(4.21208e-14 -4.29445e-15 0)
(4.47938e-14 -4.99735e-15 0)
(4.91416e-14 -5.03057e-15 0)
(5.41502e-14 -4.82443e-15 0)
(5.85204e-14 -4.79054e-15 0)
(6.1734e-14 -5.46494e-15 0)
(6.53094e-14 -5.91114e-15 0)
(6.94699e-14 -5.42852e-15 0)
(7.25136e-14 -4.48462e-15 0)
(7.51381e-14 -2.6141e-15 0)
(7.84152e-14 -3.0999e-16 0)
(8.32725e-14 1.39856e-15 0)
(8.72328e-14 2.5007e-15 0)
(8.88403e-14 2.77561e-15 0)
(8.95828e-14 3.39598e-15 0)
(8.99951e-14 3.54806e-15 0)
(9.08764e-14 4.18069e-15 0)
(9.24713e-14 4.72353e-15 0)
(9.51199e-14 5.33825e-15 0)
(9.83455e-14 5.89049e-15 0)
(1.0087e-13 6.75981e-15 0)
(1.02861e-13 7.14867e-15 0)
(1.04319e-13 7.17e-15 0)
(1.04986e-13 6.05963e-15 0)
(1.05161e-13 6.03424e-15 0)
(1.05661e-13 6.58701e-15 0)
(1.07793e-13 8.29567e-15 0)
(1.10748e-13 9.23159e-15 0)
(1.1313e-13 9.97069e-15 0)
(1.14761e-13 9.64368e-15 0)
(1.16098e-13 9.78486e-15 0)
(1.1755e-13 9.90305e-15 0)
(1.18468e-13 9.43457e-15 0)
(1.1885e-13 8.75035e-15 0)
(1.18627e-13 7.23299e-15 0)
(1.17408e-13 5.73528e-15 0)
(1.16143e-13 3.92767e-15 0)
(1.15357e-13 1.93174e-15 0)
(1.15051e-13 -4.53379e-16 0)
(1.14493e-13 -2.71372e-15 0)
(1.12217e-13 -4.25833e-15 0)
(1.0941e-13 -5.8853e-15 0)
(1.07361e-13 -7.37431e-15 0)
(1.05168e-13 -8.67651e-15 0)
(1.03149e-13 -9.65964e-15 0)
(1.02083e-13 -1.04042e-14 0)
(1.00833e-13 -1.10001e-14 0)
(9.91785e-14 -1.17969e-14 0)
(9.77961e-14 -1.19084e-14 0)
(9.6308e-14 -1.14852e-14 0)
(9.44209e-14 -1.07321e-14 0)
(9.18972e-14 -9.98808e-15 0)
(8.91485e-14 -9.33519e-15 0)
(8.61748e-14 -9.27807e-15 0)
(8.26536e-14 -9.30566e-15 0)
(7.87339e-14 -9.22589e-15 0)
(7.39076e-14 -8.40442e-15 0)
(6.77522e-14 -7.55755e-15 0)
(6.06077e-14 -6.01961e-15 0)
(5.26525e-14 -4.93938e-15 0)
(4.28341e-14 -4.48623e-15 0)
(3.16276e-14 -3.51921e-15 0)
(1.97996e-14 -2.12619e-15 0)
(7.00292e-15 -8.04461e-16 0)
(-2.0911e-15 5.38622e-16 0)
(-6.58796e-15 9.03443e-16 0)
(-1.0661e-14 6.74544e-16 0)
(-1.43855e-14 -2.46337e-16 0)
(-1.82923e-14 -1.31287e-15 0)
(-2.25159e-14 -2.17934e-15 0)
(-2.67993e-14 -2.43324e-15 0)
(-3.06607e-14 -2.90736e-15 0)
(-3.42281e-14 -3.19557e-15 0)
(-3.58533e-14 -3.47564e-15 0)
(-3.50635e-14 -3.91455e-15 0)
(-3.30095e-14 -3.83099e-15 0)
(-3.14942e-14 -3.16188e-15 0)
(-3.09447e-14 -1.24819e-15 0)
(-3.0803e-14 2.1763e-16 0)
(-3.04001e-14 1.26247e-15 0)
(-2.95235e-14 1.34598e-15 0)
(-2.86406e-14 1.33973e-15 0)
(-2.63715e-14 3.12527e-15 0)
(-2.21798e-14 4.30999e-15 0)
(-1.7964e-14 4.68735e-15 0)
(-1.37796e-14 4.03679e-15 0)
(-8.4003e-15 3.7094e-15 0)
(-2.80066e-15 4.66266e-15 0)
(2.72448e-15 5.20351e-15 0)
(8.3494e-15 4.97301e-15 0)
(1.32353e-14 5.19225e-15 0)
(1.76154e-14 5.54148e-15 0)
(2.16054e-14 6.13905e-15 0)
(2.51577e-14 6.4458e-15 0)
(2.81003e-14 5.55684e-15 0)
(3.00199e-14 4.41245e-15 0)
(3.31178e-14 2.18462e-15 0)
(3.73731e-14 -4.02858e-17 0)
(4.10496e-14 -2.46254e-15 0)
(4.40088e-14 -4.19305e-15 0)
(4.63686e-14 -4.72428e-15 0)
(4.94609e-14 -5.15189e-15 0)
(5.43493e-14 -4.73292e-15 0)
(5.96566e-14 -4.79987e-15 0)
(6.38637e-14 -5.19125e-15 0)
(6.72207e-14 -6.30342e-15 0)
(7.14781e-14 -6.42073e-15 0)
(7.63553e-14 -5.98411e-15 0)
(8.04887e-14 -4.78987e-15 0)
(8.40472e-14 -2.66154e-15 0)
(8.74916e-14 -2.30532e-16 0)
(9.18336e-14 1.82041e-15 0)
(9.52706e-14 2.34786e-15 0)
(9.71888e-14 2.55142e-15 0)
(9.83098e-14 3.21807e-15 0)
(9.88867e-14 3.548e-15 0)
(1.00127e-13 4.35056e-15 0)
(1.02177e-13 5.11451e-15 0)
(1.05081e-13 6.19753e-15 0)
(1.08427e-13 7.22156e-15 0)
(1.10931e-13 8.2625e-15 0)
(1.12853e-13 8.07552e-15 0)
(1.1396e-13 8.06079e-15 0)
(1.14588e-13 7.72104e-15 0)
(1.15476e-13 7.7238e-15 0)
(1.16819e-13 8.12023e-15 0)
(1.19313e-13 9.28279e-15 0)
(1.2202e-13 1.00424e-14 0)
(1.24108e-13 1.03062e-14 0)
(1.25794e-13 9.94579e-15 0)
(1.27518e-13 9.72955e-15 0)
(1.28949e-13 9.61029e-15 0)
(1.29749e-13 9.54434e-15 0)
(1.29733e-13 9.0809e-15 0)
(1.29144e-13 7.67144e-15 0)
(1.27967e-13 5.84803e-15 0)
(1.26562e-13 4.1995e-15 0)
(1.25334e-13 1.94422e-15 0)
(1.24668e-13 -9.30174e-16 0)
(1.24312e-13 -3.76563e-15 0)
(1.22264e-13 -5.61644e-15 0)
(1.19332e-13 -7.27055e-15 0)
(1.17119e-13 -8.44837e-15 0)
(1.14969e-13 -9.59163e-15 0)
(1.13058e-13 -1.04357e-14 0)
(1.11828e-13 -1.10648e-14 0)
(1.10239e-13 -1.15486e-14 0)
(1.08488e-13 -1.23107e-14 0)
(1.07109e-13 -1.26262e-14 0)
(1.05476e-13 -1.28495e-14 0)
(1.03477e-13 -1.24846e-14 0)
(1.00642e-13 -1.17532e-14 0)
(9.73813e-14 -1.11726e-14 0)
(9.38298e-14 -1.07924e-14 0)
(8.96914e-14 -1.06102e-14 0)
(8.5426e-14 -1.05232e-14 0)
(8.02196e-14 -9.97728e-15 0)
(7.3835e-14 -9.2611e-15 0)
(6.60956e-14 -7.62366e-15 0)
(5.66775e-14 -6.5067e-15 0)
(4.58486e-14 -6.08707e-15 0)
(3.41049e-14 -4.83619e-15 0)
(2.15244e-14 -2.96047e-15 0)
(7.74619e-15 -9.97532e-16 0)
(-2.47168e-15 3.20551e-16 0)
(-7.43985e-15 5.09644e-16 0)
(-1.18998e-14 6.75424e-16 0)
(-1.62017e-14 4.86804e-16 0)
(-2.0586e-14 -2.09828e-16 0)
(-2.48204e-14 -1.41313e-15 0)
(-2.89268e-14 -2.28074e-15 0)
(-3.29332e-14 -2.73503e-15 0)
(-3.67082e-14 -3.06784e-15 0)
(-3.84563e-14 -2.82958e-15 0)
(-3.75829e-14 -2.86439e-15 0)
(-3.5139e-14 -2.34515e-15 0)
(-3.29148e-14 -1.43483e-15 0)
(-3.21305e-14 2.27681e-16 0)
(-3.23497e-14 1.54235e-15 0)
(-3.24297e-14 2.27248e-15 0)
(-3.18453e-14 1.96089e-15 0)
(-3.00587e-14 2.44644e-15 0)
(-2.688e-14 3.95005e-15 0)
(-2.29999e-14 5.18641e-15 0)
(-1.92524e-14 5.47471e-15 0)
(-1.51417e-14 5.06874e-15 0)
(-9.04734e-15 4.55054e-15 0)
(-2.3003e-15 4.71179e-15 0)
(3.49802e-15 5.81684e-15 0)
(9.05695e-15 6.11011e-15 0)
(1.42849e-14 6.5966e-15 0)
(1.89888e-14 6.91173e-15 0)
(2.32933e-14 6.92065e-15 0)
(2.67407e-14 6.7526e-15 0)
(2.95202e-14 5.31285e-15 0)
(3.15953e-14 3.43836e-15 0)
(3.47343e-14 1.85341e-15 0)
(3.90435e-14 -2.73742e-16 0)
(4.31839e-14 -2.46972e-15 0)
(4.71201e-14 -4.07534e-15 0)
(5.02179e-14 -5.04206e-15 0)
(5.41002e-14 -5.17055e-15 0)
(5.92392e-14 -4.37919e-15 0)
(6.41939e-14 -4.92777e-15 0)
(6.8343e-14 -6.02885e-15 0)
(7.22985e-14 -6.84898e-15 0)
(7.75376e-14 -6.36645e-15 0)
(8.31719e-14 -5.68003e-15 0)
(8.79608e-14 -4.62511e-15 0)
(9.19971e-14 -3.18301e-15 0)
(9.57264e-14 -1.09246e-15 0)
(9.96977e-14 9.54101e-16 0)
(1.02809e-13 1.68135e-15 0)
(1.05012e-13 2.4199e-15 0)
(1.06316e-13 3.24871e-15 0)
(1.07272e-13 3.88153e-15 0)
(1.08896e-13 4.96755e-15 0)
(1.11109e-13 5.97842e-15 0)
(1.14354e-13 6.76571e-15 0)
(1.17945e-13 8.41812e-15 0)
(1.19955e-13 9.36698e-15 0)
(1.21517e-13 8.88008e-15 0)
(1.23177e-13 8.70118e-15 0)
(1.24148e-13 9.02756e-15 0)
(1.25146e-13 9.336e-15 0)
(1.26788e-13 9.49167e-15 0)
(1.29494e-13 1.00782e-14 0)
(1.32119e-13 1.07689e-14 0)
(1.34028e-13 1.11343e-14 0)
(1.35663e-13 1.07841e-14 0)
(1.3752e-13 1.0171e-14 0)
(1.39388e-13 9.51534e-15 0)
(1.40296e-13 9.16157e-15 0)
(1.3986e-13 8.56221e-15 0)
(1.38727e-13 7.58767e-15 0)
(1.37344e-13 5.68673e-15 0)
(1.35703e-13 3.46982e-15 0)
(1.33892e-13 7.92103e-16 0)
(1.32971e-13 -1.98715e-15 0)
(1.32915e-13 -4.89058e-15 0)
(1.31199e-13 -7.14931e-15 0)
(1.28527e-13 -8.50701e-15 0)
(1.26456e-13 -9.67033e-15 0)
(1.24082e-13 -1.04e-14 0)
(1.21988e-13 -1.10308e-14 0)
(1.20706e-13 -1.18087e-14 0)
(1.18845e-13 -1.23032e-14 0)
(1.16765e-13 -1.30833e-14 0)
(1.15192e-13 -1.38428e-14 0)
(1.13582e-13 -1.41533e-14 0)
(1.11738e-13 -1.37356e-14 0)
(1.08669e-13 -1.32069e-14 0)
(1.04897e-13 -1.2662e-14 0)
(1.00782e-13 -1.23585e-14 0)
(9.60907e-14 -1.18099e-14 0)
(9.13607e-14 -1.1293e-14 0)
(8.57851e-14 -1.09837e-14 0)
(7.90817e-14 -1.0376e-14 0)
(7.07405e-14 -9.11952e-15 0)
(6.02549e-14 -7.81142e-15 0)
(4.8752e-14 -7.2568e-15 0)
(3.66796e-14 -5.93447e-15 0)
(2.32751e-14 -3.75553e-15 0)
(8.27347e-15 -1.12841e-15 0)
(-2.75032e-15 3.80899e-16 0)
(-8.13027e-15 7.69671e-16 0)
(-1.28768e-14 1.0608e-15 0)
(-1.76131e-14 9.05852e-16 0)
(-2.2644e-14 3.04519e-16 0)
(-2.73676e-14 -7.72787e-16 0)
(-3.14584e-14 -1.76186e-15 0)
(-3.52518e-14 -2.55095e-15 0)
(-3.85873e-14 -2.75786e-15 0)
(-4.02119e-14 -1.98605e-15 0)
(-3.93694e-14 -1.38638e-15 0)
(-3.67069e-14 -3.69958e-16 0)
(-3.43672e-14 3.57094e-16 0)
(-3.34628e-14 1.33028e-15 0)
(-3.38718e-14 2.20495e-15 0)
(-3.44511e-14 2.57805e-15 0)
(-3.34643e-14 2.98047e-15 0)
(-3.08843e-14 4.26992e-15 0)
(-2.76333e-14 5.38631e-15 0)