/*--------------------------------*- C++ -*----------------------------------*\
| =========                 |                                                 |
| \\      /  F ield         | OpenFOAM: The Open Source CFD Toolbox           |
|  \\    /   O peration     | Version:  v2012                                 |
|   \\  /    A nd           | Website:  www.openfoam.com                      |
|    \\/     M anipulation  |                                                 |
\*---------------------------------------------------------------------------*/
FoamFile
{
    version     2.0;
    format      ascii;
    class       volVectorField;
    location    "7.75";
    object      U;
}
// * * * * * * * * * * * * * * * * * * * * * * * * * * * * * * * * * * * * * //

dimensions      [0 1 -1 0 0 0 0];


internalField   nonuniform List<vector> 
65536
(
(0.000758462 -0.000758459 0)
(0.00227538 -0.000758452 0)
(0.00379228 -0.000758439 0)
(0.00530914 -0.000758418 0)
(0.00682596 -0.00075839 0)
(0.00834271 -0.000758354 0)
(0.00985938 -0.000758309 0)
(0.011376 -0.000758253 0)
(0.0128924 -0.000758187 0)
(0.0144087 -0.000758108 0)
(0.0159249 -0.000758015 0)
(0.0174408 -0.000757907 0)
(0.0189565 -0.000757781 0)
(0.0204719 -0.000757636 0)
(0.0219871 -0.00075747 0)
(0.0235018 -0.00075728 0)
(0.0250162 -0.000757065 0)
(0.0265301 -0.00075682 0)
(0.0280435 -0.000756545 0)
(0.0295563 -0.000756235 0)
(0.0310685 -0.000755888 0)
(0.0325799 -0.000755501 0)
(0.0340905 -0.00075507 0)
(0.0356003 -0.000754593 0)
(0.037109 -0.000754064 0)
(0.0386166 -0.000753481 0)
(0.040123 -0.00075284 0)
(0.041628 -0.000752137 0)
(0.0431316 -0.000751367 0)
(0.0446335 -0.000750527 0)
(0.0461337 -0.000749612 0)
(0.0476321 -0.000748617 0)
(0.0491283 -0.000747539 0)
(0.0506223 -0.000746371 0)
(0.0521139 -0.000745111 0)
(0.0536028 -0.000743751 0)
(0.055089 -0.000742289 0)
(0.0565721 -0.000740718 0)
(0.058052 -0.000739033 0)
(0.0595284 -0.00073723 0)
(0.061001 -0.000735303 0)
(0.0624697 -0.000733247 0)
(0.0639341 -0.000731056 0)
(0.0653941 -0.000728726 0)
(0.0668492 -0.000726251 0)
(0.0682992 -0.000723625 0)
(0.0697438 -0.000720843 0)
(0.0711827 -0.0007179 0)
(0.0726156 -0.00071479 0)
(0.0740421 -0.000711509 0)
(0.0754618 -0.000708051 0)
(0.0768745 -0.000704411 0)
(0.0782796 -0.000700584 0)
(0.079677 -0.000696565 0)
(0.0810661 -0.000692349 0)
(0.0824466 -0.000687931 0)
(0.083818 -0.000683307 0)
(0.08518 -0.000678473 0)
(0.0865321 -0.000673424 0)
(0.0878739 -0.000668156 0)
(0.089205 -0.000662665 0)
(0.0905248 -0.000656948 0)
(0.091833 -0.000651001 0)
(0.0931291 -0.000644821 0)
(0.0944125 -0.000638405 0)
(0.0956829 -0.00063175 0)
(0.0969398 -0.000624854 0)
(0.0981826 -0.000617715 0)
(0.0994109 -0.000610331 0)
(0.100624 -0.000602701 0)
(0.101822 -0.000594823 0)
(0.103004 -0.000586697 0)
(0.104169 -0.000578323 0)
(0.105317 -0.000569699 0)
(0.106448 -0.000560827 0)
(0.107561 -0.000551708 0)
(0.108655 -0.000542342 0)
(0.10973 -0.00053273 0)
(0.110786 -0.000522876 0)
(0.111822 -0.00051278 0)
(0.112838 -0.000502446 0)
(0.113832 -0.000491877 0)
(0.114805 -0.000481077 0)
(0.115757 -0.000470048 0)
(0.116686 -0.000458796 0)
(0.117592 -0.000447326 0)
(0.118475 -0.000435641 0)
(0.119335 -0.000423749 0)
(0.12017 -0.000411654 0)
(0.120982 -0.000399363 0)
(0.121768 -0.000386883 0)
(0.122529 -0.00037422 0)
(0.123265 -0.000361382 0)
(0.123975 -0.000348376 0)
(0.124659 -0.000335211 0)
(0.125316 -0.000321894 0)
(0.125947 -0.000308434 0)
(0.12655 -0.00029484 0)
(0.127126 -0.00028112 0)
(0.127675 -0.000267284 0)
(0.128195 -0.000253341 0)
(0.128688 -0.000239301 0)
(0.129153 -0.000225173 0)
(0.129589 -0.000210968 0)
(0.129996 -0.000196695 0)
(0.130376 -0.000182364 0)
(0.130726 -0.000167985 0)
(0.131048 -0.000153569 0)
(0.13134 -0.000139126 0)
(0.131604 -0.000124665 0)
(0.131839 -0.000110198 0)
(0.132045 -9.5733e-05 0)
(0.132222 -8.12813e-05 0)
(0.13237 -6.68526e-05 0)
(0.132489 -5.24566e-05 0)
(0.13258 -3.81031e-05 0)
(0.132642 -2.38016e-05 0)
(0.132675 -9.56131e-06 0)
(0.13268 4.60845e-06 0)
(0.132656 1.86987e-05 0)
(0.132605 3.27008e-05 0)
(0.132526 4.66062e-05 0)
(0.132418 6.04066e-05 0)
(0.132284 7.4094e-05 0)
(0.132122 8.76606e-05 0)
(0.131933 0.000101099 0)
(0.131717 0.000114402 0)
(0.131475 0.000127563 0)
(0.131207 0.000140576 0)
(0.130913 0.000153433 0)
(0.130593 0.00016613 0)
(0.130248 0.00017866 0)
(0.129878 0.000191018 0)
(0.129484 0.0002032 0)
(0.129065 0.000215201 0)
(0.128623 0.000227017 0)
(0.128157 0.000238643 0)
(0.127668 0.000250076 0)
(0.127157 0.000261313 0)
(0.126623 0.000272351 0)
(0.126067 0.000283187 0)
(0.12549 0.000293819 0)
(0.124891 0.000304245 0)
(0.124273 0.000314463 0)
(0.123633 0.000324472 0)
(0.122974 0.000334271 0)
(0.122296 0.000343858 0)
(0.121599 0.000353235 0)
(0.120883 0.000362399 0)
(0.120149 0.000371351 0)
(0.119397 0.000380091 0)
(0.118628 0.000388621 0)
(0.117843 0.000396939 0)
(0.11704 0.000405048 0)
(0.116222 0.000412948 0)
(0.115388 0.000420641 0)
(0.114539 0.000428128 0)
(0.113676 0.000435411 0)
(0.112798 0.000442492 0)
(0.111906 0.000449373 0)
(0.111 0.000456055 0)
(0.110081 0.000462542 0)
(0.10915 0.000468835 0)
(0.108206 0.000474937 0)
(0.10725 0.000480851 0)
(0.106282 0.00048658 0)
(0.105303 0.000492126 0)
(0.104313 0.000497492 0)
(0.103313 0.000502682 0)
(0.102302 0.000507698 0)
(0.101282 0.000512544 0)
(0.100252 0.000517223 0)
(0.099213 0.000521738 0)
(0.098165 0.000526092 0)
(0.0971084 0.000530289 0)
(0.0960437 0.000534332 0)
(0.094971 0.000538225 0)
(0.0938906 0.00054197 0)
(0.0928029 0.000545572 0)
(0.0917082 0.000549033 0)
(0.0906067 0.000552358 0)
(0.0894986 0.000555549 0)
(0.0883844 0.000558609 0)
(0.0872641 0.000561544 0)
(0.0861381 0.000564355 0)
(0.0850065 0.000567046 0)
(0.0838698 0.00056962 0)
(0.0827279 0.000572081 0)
(0.0815813 0.000574432 0)
(0.0804301 0.000576677 0)
(0.0792745 0.000578817 0)
(0.0781147 0.000580858 0)
(0.076951 0.000582801 0)
(0.0757834 0.00058465 0)
(0.0746123 0.000586408 0)
(0.0734377 0.000588078 0)
(0.0722599 0.000589663 0)
(0.071079 0.000591166 0)
(0.0698952 0.000592589 0)
(0.0687086 0.000593936 0)
(0.0675193 0.00059521 0)
(0.0663276 0.000596412 0)
(0.0651336 0.000597546 0)
(0.0639374 0.000598615 0)
(0.0627391 0.00059962 0)
(0.0615389 0.000600565 0)
(0.0603368 0.000601452 0)
(0.059133 0.000602283 0)
(0.0579276 0.000603061 0)
(0.0567207 0.000603788 0)
(0.0555124 0.000604466 0)
(0.0543028 0.000605098 0)
(0.053092 0.000605685 0)
(0.05188 0.00060623 0)
(0.050667 0.000606735 0)
(0.049453 0.000607202 0)
(0.0482382 0.000607632 0)
(0.0470225 0.000608028 0)
(0.045806 0.000608392 0)
(0.0445889 0.000608724 0)
(0.0433711 0.000609028 0)
(0.0421527 0.000609304 0)
(0.0409338 0.000609554 0)
(0.0397145 0.000609781 0)
(0.0384947 0.000609985 0)
(0.0372745 0.000610167 0)
(0.036054 0.00061033 0)
(0.0348332 0.000610475 0)
(0.0336121 0.000610602 0)
(0.0323908 0.000610714 0)
(0.0311692 0.000610811 0)
(0.0299475 0.000610895 0)
(0.0287256 0.000610967 0)
(0.0275036 0.000611028 0)
(0.0262815 0.000611079 0)
(0.0250593 0.00061112 0)
(0.023837 0.000611154 0)
(0.0226147 0.00061118 0)
(0.0213923 0.000611201 0)
(0.0201699 0.000611215 0)
(0.0189474 0.000611225 0)
(0.017725 0.000611231 0)
(0.0165025 0.000611233 0)
(0.01528 0.000611232 0)
(0.0140576 0.00061123 0)
(0.0128351 0.000611226 0)
(0.0116127 0.00061122 0)
(0.0103902 0.000611214 0)
(0.00916782 0.000611208 0)
(0.00794541 0.000611201 0)
(0.00672301 0.000611195 0)
(0.00550063 0.000611189 0)
(0.00427826 0.000611185 0)
(0.00305589 0.000611181 0)
(0.00183353 0.000611179 0)
(0.000611177 0.000611177 0)
(0.000758469 -0.00227538 0)
(0.0022754 -0.00227536 0)
(0.00379231 -0.00227532 0)
(0.00530919 -0.00227526 0)
(0.00682602 -0.00227518 0)
(0.00834279 -0.00227507 0)
(0.00985948 -0.00227494 0)
(0.0113761 -0.00227477 0)
(0.0128926 -0.00227457 0)
(0.0144089 -0.00227434 0)
(0.0159251 -0.00227406 0)
(0.017441 -0.00227374 0)
(0.0189568 -0.00227336 0)
(0.0204722 -0.00227293 0)
(0.0219874 -0.00227243 0)
(0.0235022 -0.00227187 0)
(0.0250167 -0.00227122 0)
(0.0265306 -0.00227049 0)
(0.0280441 -0.00226967 0)
(0.029557 -0.00226874 0)
(0.0310692 -0.0022677 0)
(0.0325807 -0.00226655 0)
(0.0340915 -0.00226526 0)
(0.0356013 -0.00226383 0)
(0.0371101 -0.00226225 0)
(0.0386178 -0.0022605 0)
(0.0401243 -0.00225858 0)
(0.0416295 -0.00225648 0)
(0.0431332 -0.00225417 0)
(0.0446353 -0.00225166 0)
(0.0461357 -0.00224891 0)
(0.0476341 -0.00224594 0)
(0.0491305 -0.0022427 0)
(0.0506247 -0.00223921 0)
(0.0521165 -0.00223543 0)
(0.0536057 -0.00223136 0)
(0.055092 -0.00222697 0)
(0.0565753 -0.00222227 0)
(0.0580554 -0.00221722 0)
(0.0595321 -0.00221181 0)
(0.061005 -0.00220604 0)
(0.0624739 -0.00219987 0)
(0.0639386 -0.00219331 0)
(0.0653989 -0.00218632 0)
(0.0668543 -0.0021789 0)
(0.0683046 -0.00217103 0)
(0.0697495 -0.00216269 0)
(0.0711888 -0.00215386 0)
(0.072622 -0.00214454 0)
(0.0740488 -0.0021347 0)
(0.0754689 -0.00212433 0)
(0.0768819 -0.00211342 0)
(0.0782875 -0.00210194 0)
(0.0796852 -0.00208989 0)
(0.0810747 -0.00207725 0)
(0.0824556 -0.002064 0)
(0.0838275 -0.00205013 0)
(0.0851899 -0.00203563 0)
(0.0865424 -0.00202049 0)
(0.0878847 -0.00200469 0)
(0.0892162 -0.00198822 0)
(0.0905365 -0.00197107 0)
(0.0918451 -0.00195324 0)
(0.0931416 -0.0019347 0)
(0.0944256 -0.00191545 0)
(0.0956964 -0.00189549 0)
(0.0969538 -0.0018748 0)
(0.0981971 -0.00185339 0)
(0.0994259 -0.00183124 0)
(0.10064 -0.00180835 0)
(0.101838 -0.00178472 0)
(0.10302 -0.00176034 0)
(0.104186 -0.00173522 0)
(0.105335 -0.00170934 0)
(0.106466 -0.00168273 0)
(0.107579 -0.00165537 0)
(0.108674 -0.00162727 0)
(0.10975 -0.00159843 0)
(0.110806 -0.00156887 0)
(0.111843 -0.00153858 0)
(0.112858 -0.00150757 0)
(0.113853 -0.00147586 0)
(0.114827 -0.00144346 0)
(0.115779 -0.00141037 0)
(0.116708 -0.00137661 0)
(0.117615 -0.00134219 0)
(0.118499 -0.00130713 0)
(0.119359 -0.00127145 0)
(0.120195 -0.00123516 0)
(0.121006 -0.00119828 0)
(0.121793 -0.00116083 0)
(0.122555 -0.00112283 0)
(0.123291 -0.00108431 0)
(0.124001 -0.00104529 0)
(0.124685 -0.00100578 0)
(0.125343 -0.000965824 0)
(0.125974 -0.000925436 0)
(0.126577 -0.000884643 0)
(0.127154 -0.000843475 0)
(0.127702 -0.000801958 0)
(0.128223 -0.00076012 0)
(0.128716 -0.00071799 0)
(0.129181 -0.000675597 0)
(0.129617 -0.000632971 0)
(0.130025 -0.000590142 0)
(0.130404 -0.000547139 0)
(0.130755 -0.000503993 0)
(0.131076 -0.000460735 0)
(0.131369 -0.000417395 0)
(0.131633 -0.000374003 0)
(0.131868 -0.00033059 0)
(0.132074 -0.000287186 0)
(0.132251 -0.000243821 0)
(0.132399 -0.000200525 0)
(0.132518 -0.000157327 0)
(0.132608 -0.000114257 0)
(0.13267 -7.13432e-05 0)
(0.132703 -2.86133e-05 0)
(0.132708 1.39049e-05 0)
(0.132684 5.61845e-05 0)
(0.132633 9.81992e-05 0)
(0.132553 0.000139924 0)
(0.132446 0.000181333 0)
(0.132311 0.000222403 0)
(0.132149 0.00026311 0)
(0.13196 0.000303433 0)
(0.131744 0.000343349 0)
(0.131501 0.000382839 0)
(0.131233 0.000421882 0)
(0.130938 0.00046046 0)
(0.130618 0.000498555 0)
(0.130273 0.000536151 0)
(0.129903 0.000573231 0)
(0.129508 0.000609782 0)
(0.129089 0.000645788 0)
(0.128646 0.000681238 0)
(0.12818 0.00071612 0)
(0.127691 0.000750423 0)
(0.127179 0.000784137 0)
(0.126644 0.000817253 0)
(0.126088 0.000849763 0)
(0.125511 0.000881661 0)
(0.124912 0.000912941 0)
(0.124293 0.000943597 0)
(0.123653 0.000973625 0)
(0.122994 0.00100302 0)
(0.122315 0.00103179 0)
(0.121617 0.00105991 0)
(0.120901 0.00108741 0)
(0.120167 0.00111426 0)
(0.119415 0.00114048 0)
(0.118645 0.00116607 0)
(0.117859 0.00119103 0)
(0.117056 0.00121535 0)
(0.116238 0.00123905 0)
(0.115404 0.00126213 0)
(0.114554 0.00128459 0)
(0.11369 0.00130644 0)
(0.112812 0.00132768 0)
(0.111919 0.00134832 0)
(0.111013 0.00136836 0)
(0.110094 0.00138782 0)
(0.109162 0.00140669 0)
(0.108218 0.001425 0)
(0.107261 0.00144274 0)
(0.106293 0.00145992 0)
(0.105314 0.00147656 0)
(0.104324 0.00149265 0)
(0.103323 0.00150822 0)
(0.102312 0.00152326 0)
(0.101292 0.0015378 0)
(0.100261 0.00155183 0)
(0.0992218 0.00156537 0)
(0.0981735 0.00157843 0)
(0.0971167 0.00159102 0)
(0.0960516 0.00160315 0)
(0.0949786 0.00161482 0)
(0.0938979 0.00162605 0)
(0.09281 0.00163685 0)
(0.091715 0.00164724 0)
(0.0906132 0.00165721 0)
(0.0895049 0.00166677 0)
(0.0883903 0.00167595 0)
(0.0872698 0.00168475 0)
(0.0861435 0.00169318 0)
(0.0850118 0.00170125 0)
(0.0838748 0.00170897 0)
(0.0827327 0.00171635 0)
(0.0815859 0.0017234 0)
(0.0804345 0.00173013 0)
(0.0792787 0.00173655 0)
(0.0781187 0.00174267 0)
(0.0769548 0.0017485 0)
(0.075787 0.00175404 0)
(0.0746157 0.00175931 0)
(0.073441 0.00176432 0)
(0.072263 0.00176907 0)
(0.0710819 0.00177358 0)
(0.0698979 0.00177784 0)
(0.0687112 0.00178188 0)
(0.0675218 0.0017857 0)
(0.06633 0.0017893 0)
(0.0651358 0.0017927 0)
(0.0639395 0.00179591 0)
(0.062741 0.00179892 0)
(0.0615407 0.00180175 0)
(0.0603385 0.00180441 0)
(0.0591346 0.0018069 0)
(0.0579291 0.00180923 0)
(0.0567221 0.00181141 0)
(0.0555137 0.00181344 0)
(0.054304 0.00181534 0)
(0.0530931 0.0018171 0)
(0.051881 0.00181873 0)
(0.050668 0.00182024 0)
(0.0494539 0.00182164 0)
(0.048239 0.00182293 0)
(0.0470232 0.00182412 0)
(0.0458067 0.0018252 0)
(0.0445895 0.0018262 0)
(0.0433717 0.00182711 0)
(0.0421533 0.00182794 0)
(0.0409343 0.00182869 0)
(0.0397149 0.00182936 0)
(0.0384951 0.00182997 0)
(0.0372749 0.00183052 0)
(0.0360543 0.00183101 0)
(0.0348335 0.00183144 0)
(0.0336123 0.00183182 0)
(0.032391 0.00183216 0)
(0.0311694 0.00183245 0)
(0.0299477 0.0018327 0)
(0.0287258 0.00183291 0)
(0.0275037 0.00183309 0)
(0.0262816 0.00183324 0)
(0.0250594 0.00183337 0)
(0.0238371 0.00183347 0)
(0.0226147 0.00183355 0)
(0.0213923 0.00183361 0)
(0.0201699 0.00183365 0)
(0.0189474 0.00183368 0)
(0.017725 0.00183369 0)
(0.0165025 0.0018337 0)
(0.01528 0.0018337 0)
(0.0140576 0.00183369 0)
(0.0128351 0.00183368 0)
(0.0116127 0.00183366 0)
(0.0103902 0.00183364 0)
(0.0091678 0.00183362 0)
(0.00794539 0.0018336 0)
(0.006723 0.00183358 0)
(0.00550062 0.00183357 0)
(0.00427825 0.00183355 0)
(0.00305588 0.00183354 0)
(0.00183353 0.00183353 0)
(0.000611175 0.00183353 0)
(0.000758482 -0.00379233 0)
(0.00227544 -0.00379229 0)
(0.00379238 -0.00379223 0)
(0.00530929 -0.00379213 0)
(0.00682615 -0.00379199 0)
(0.00834295 -0.00379182 0)
(0.00985968 -0.00379159 0)
(0.0113763 -0.00379132 0)
(0.0128928 -0.003791 0)
(0.0144092 -0.00379061 0)
(0.0159255 -0.00379015 0)
(0.0174415 -0.00378962 0)
(0.0189573 -0.003789 0)
(0.0204729 -0.00378829 0)
(0.0219881 -0.00378747 0)
(0.023503 -0.00378653 0)
(0.0250176 -0.00378546 0)
(0.0265317 -0.00378426 0)
(0.0280453 -0.00378289 0)
(0.0295583 -0.00378136 0)
(0.0310707 -0.00377964 0)
(0.0325824 -0.00377772 0)
(0.0340933 -0.00377559 0)
(0.0356033 -0.00377321 0)
(0.0371123 -0.00377059 0)
(0.0386202 -0.0037677 0)
(0.040127 -0.00376451 0)
(0.0416324 -0.00376102 0)
(0.0431364 -0.00375719 0)
(0.0446388 -0.00375301 0)
(0.0461395 -0.00374846 0)
(0.0476383 -0.00374351 0)
(0.049135 -0.00373814 0)
(0.0506296 -0.00373232 0)
(0.0521217 -0.00372604 0)
(0.0536113 -0.00371927 0)
(0.0550981 -0.00371198 0)
(0.0565818 -0.00370415 0)
(0.0580624 -0.00369576 0)
(0.0595395 -0.00368677 0)
(0.0610129 -0.00367716 0)
(0.0624824 -0.00366691 0)
(0.0639477 -0.00365598 0)
(0.0654085 -0.00364435 0)
(0.0668645 -0.003632 0)
(0.0683154 -0.0036189 0)
(0.069761 -0.00360502 0)
(0.0712009 -0.00359033 0)
(0.0726347 -0.00357481 0)
(0.0740623 -0.00355843 0)
(0.0754831 -0.00354116 0)
(0.0768968 -0.00352299 0)
(0.0783032 -0.00350388 0)
(0.0797017 -0.00348381 0)
(0.081092 -0.00346275 0)
(0.0824737 -0.00344068 0)
(0.0838464 -0.00341759 0)
(0.0852096 -0.00339344 0)
(0.0865631 -0.00336821 0)
(0.0879062 -0.00334189 0)
(0.0892386 -0.00331446 0)
(0.0905598 -0.00328589 0)
(0.0918694 -0.00325617 0)
(0.0931668 -0.00322528 0)
(0.0944517 -0.00319322 0)
(0.0957235 -0.00315995 0)
(0.0969818 -0.00312548 0)
(0.0982261 -0.0030898 0)
(0.0994559 -0.00305289 0)
(0.100671 -0.00301474 0)
(0.10187 -0.00297536 0)
(0.103053 -0.00293473 0)
(0.10422 -0.00289285 0)
(0.10537 -0.00284974 0)
(0.106502 -0.00280537 0)
(0.107616 -0.00275977 0)
(0.108712 -0.00271293 0)
(0.109789 -0.00266487 0)
(0.110846 -0.00261558 0)
(0.111883 -0.00256509 0)
(0.1129 -0.00251341 0)
(0.113896 -0.00246054 0)
(0.114871 -0.00240652 0)
(0.115824 -0.00235136 0)
(0.116754 -0.00229507 0)
(0.117662 -0.0022377 0)
(0.118546 -0.00217925 0)
(0.119407 -0.00211975 0)
(0.120244 -0.00205925 0)
(0.121056 -0.00199776 0)
(0.121844 -0.00193533 0)
(0.122606 -0.00187198 0)
(0.123343 -0.00180775 0)
(0.124054 -0.00174268 0)
(0.124738 -0.00167681 0)
(0.125396 -0.00161018 0)
(0.126028 -0.00154284 0)
(0.126632 -0.00147482 0)
(0.127209 -0.00140618 0)
(0.127758 -0.00133695 0)
(0.128279 -0.00126719 0)
(0.128773 -0.00119694 0)
(0.129238 -0.00112625 0)
(0.129674 -0.00105518 0)
(0.130082 -0.000983762 0)
(0.130462 -0.000912057 0)
(0.130812 -0.000840114 0)
(0.131134 -0.000767983 0)
(0.131427 -0.000695715 0)
(0.131691 -0.000623361 0)
(0.131926 -0.000550972 0)
(0.132132 -0.000478599 0)
(0.132309 -0.000406291 0)
(0.132456 -0.000334099 0)
(0.132576 -0.00026207 0)
(0.132666 -0.000190255 0)
(0.132727 -0.000118701 0)
(0.13276 -4.74537e-05 0)
(0.132765 2.34399e-05 0)
(0.132741 9.3935e-05 0)
(0.132689 0.000163988 0)
(0.132609 0.000233556 0)
(0.132501 0.000302598 0)
(0.132366 0.000371073 0)
(0.132203 0.000438944 0)
(0.132013 0.000506172 0)
(0.131797 0.000572722 0)
(0.131554 0.00063856 0)
(0.131285 0.000703653 0)
(0.130989 0.00076797 0)
(0.130669 0.00083148 0)
(0.130323 0.000894157 0)
(0.129952 0.000955974 0)
(0.129556 0.00101691 0)
(0.129137 0.00107693 0)
(0.128693 0.00113603 0)
(0.128226 0.00119418 0)
(0.127736 0.00125136 0)
(0.127223 0.00130756 0)
(0.126688 0.00136276 0)
(0.126131 0.00141695 0)
(0.125553 0.00147012 0)
(0.124953 0.00152226 0)
(0.124333 0.00157336 0)
(0.123693 0.00162341 0)
(0.123033 0.00167241 0)
(0.122353 0.00172035 0)
(0.121654 0.00176723 0)
(0.120937 0.00181305 0)
(0.120202 0.00185781 0)
(0.119449 0.00190151 0)
(0.118679 0.00194415 0)
(0.117892 0.00198574 0)
(0.117088 0.00202628 0)
(0.116269 0.00206578 0)
(0.115434 0.00210423 0)
(0.114584 0.00214166 0)
(0.113719 0.00217807 0)
(0.112839 0.00221346 0)
(0.111946 0.00224785 0)
(0.111039 0.00228125 0)
(0.110119 0.00231367 0)
(0.109187 0.00234513 0)
(0.108242 0.00237562 0)
(0.107285 0.00240518 0)
(0.106316 0.00243381 0)
(0.105336 0.00246153 0)
(0.104345 0.00248834 0)
(0.103344 0.00251428 0)
(0.102332 0.00253934 0)
(0.101311 0.00256356 0)
(0.10028 0.00258693 0)
(0.0992395 0.00260949 0)
(0.0981906 0.00263125 0)
(0.0971331 0.00265221 0)
(0.0960674 0.00267241 0)
(0.0949938 0.00269186 0)
(0.0939126 0.00271057 0)
(0.0928241 0.00272856 0)
(0.0917285 0.00274585 0)
(0.0906262 0.00276245 0)
(0.0895174 0.00277839 0)
(0.0884023 0.00279368 0)
(0.0872813 0.00280833 0)
(0.0861545 0.00282237 0)
(0.0850223 0.00283581 0)
(0.0838848 0.00284866 0)
(0.0827424 0.00286095 0)
(0.0815951 0.00287269 0)
(0.0804432 0.0028839 0)
(0.079287 0.00289459 0)
(0.0781267 0.00290477 0)
(0.0769623 0.00291447 0)
(0.0757942 0.0029237 0)
(0.0746226 0.00293248 0)
(0.0734475 0.00294081 0)
(0.0722691 0.00294872 0)
(0.0710877 0.00295622 0)
(0.0699034 0.00296333 0)
(0.0687164 0.00297005 0)
(0.0675267 0.0029764 0)
(0.0663346 0.0029824 0)
(0.0651402 0.00298806 0)
(0.0639436 0.00299339 0)
(0.0627449 0.0029984 0)
(0.0615443 0.00300311 0)
(0.0603419 0.00300754 0)
(0.0591378 0.00301168 0)
(0.0579321 0.00301556 0)
(0.0567249 0.00301918 0)
(0.0555163 0.00302256 0)
(0.0543064 0.00302571 0)
(0.0530953 0.00302864 0)
(0.0518831 0.00303135 0)
(0.0506699 0.00303387 0)
(0.0494557 0.00303619 0)
(0.0482406 0.00303833 0)
(0.0470247 0.0030403 0)
(0.0458081 0.00304211 0)
(0.0445908 0.00304377 0)
(0.0433728 0.00304527 0)
(0.0421543 0.00304665 0)
(0.0409353 0.00304789 0)
(0.0397158 0.00304902 0)
(0.0384959 0.00305003 0)
(0.0372756 0.00305093 0)
(0.0360549 0.00305174 0)
(0.034834 0.00305246 0)
(0.0336128 0.00305309 0)
(0.0323914 0.00305364 0)
(0.0311698 0.00305412 0)
(0.029948 0.00305454 0)
(0.028726 0.00305489 0)
(0.027504 0.00305519 0)
(0.0262818 0.00305544 0)
(0.0250595 0.00305564 0)
(0.0238372 0.00305581 0)
(0.0226148 0.00305593 0)
(0.0213924 0.00305603 0)
(0.0201699 0.0030561 0)
(0.0189475 0.00305614 0)
(0.017725 0.00305617 0)
(0.0165025 0.00305618 0)
(0.01528 0.00305617 0)
(0.0140576 0.00305616 0)
(0.0128351 0.00305613 0)
(0.0116126 0.0030561 0)
(0.0103902 0.00305607 0)
(0.00916778 0.00305604 0)
(0.00794537 0.003056 0)
(0.00672298 0.00305597 0)
(0.0055006 0.00305594 0)
(0.00427823 0.00305592 0)
(0.00305587 0.0030559 0)
(0.00183352 0.00305589 0)
(0.000611173 0.00305588 0)
(0.000758501 -0.0053093 0)
(0.0022755 -0.00530926 0)
(0.00379247 -0.00530917 0)
(0.00530942 -0.00530903 0)
(0.00682633 -0.00530885 0)
(0.00834319 -0.0053086 0)
(0.00985997 -0.0053083 0)
(0.0113767 -0.00530793 0)
(0.0128933 -0.00530748 0)
(0.0144097 -0.00530695 0)
(0.015926 -0.00530632 0)
(0.0174422 -0.00530559 0)
(0.0189581 -0.00530474 0)
(0.0204738 -0.00530375 0)
(0.0219892 -0.00530262 0)
(0.0235042 -0.00530132 0)
(0.0250189 -0.00529985 0)
(0.0265332 -0.00529818 0)
(0.028047 -0.00529629 0)
(0.0295602 -0.00529416 0)
(0.0310729 -0.00529178 0)
(0.0325848 -0.00528912 0)
(0.0340959 -0.00528615 0)
(0.0356062 -0.00528285 0)
(0.0371156 -0.00527921 0)
(0.0386239 -0.00527518 0)
(0.040131 -0.00527075 0)
(0.0416368 -0.00526589 0)
(0.0431412 -0.00526056 0)
(0.044644 -0.00525474 0)
(0.0461451 -0.00524839 0)
(0.0476444 -0.0052415 0)
(0.0491417 -0.00523401 0)
(0.0506368 -0.00522591 0)
(0.0521295 -0.00521715 0)
(0.0536197 -0.0052077 0)
(0.0551071 -0.00519754 0)
(0.0565916 -0.00518661 0)
(0.0580728 -0.00517489 0)
(0.0595507 -0.00516234 0)
(0.0610248 -0.00514893 0)
(0.0624951 -0.00513461 0)
(0.0639612 -0.00511935 0)
(0.0654228 -0.00510311 0)
(0.0668797 -0.00508586 0)
(0.0683316 -0.00506755 0)
(0.0697781 -0.00504815 0)
(0.071219 -0.00502763 0)
(0.0726539 -0.00500593 0)
(0.0740824 -0.00498304 0)
(0.0755043 -0.0049589 0)
(0.0769192 -0.00493349 0)
(0.0783267 -0.00490677 0)
(0.0797263 -0.00487871 0)
(0.0811178 -0.00484926 0)
(0.0825008 -0.0048184 0)
(0.0838747 -0.0047861 0)
(0.0852393 -0.00475232 0)
(0.086594 -0.00471703 0)
(0.0879384 -0.00468021 0)
(0.0892722 -0.00464183 0)
(0.0905948 -0.00460185 0)
(0.0919057 -0.00456027 0)
(0.0932046 -0.00451705 0)
(0.0944909 -0.00447217 0)
(0.0957642 -0.00442562 0)
(0.0970239 -0.00437738 0)
(0.0982697 -0.00432743 0)
(0.0995009 -0.00427577 0)
(0.100717 -0.00422237 0)
(0.101918 -0.00416724 0)
(0.103103 -0.00411036 0)
(0.104271 -0.00405174 0)
(0.105422 -0.00399137 0)
(0.106556 -0.00392926 0)
(0.107672 -0.00386541 0)
(0.108769 -0.00379982 0)
(0.109847 -0.00373252 0)
(0.110906 -0.0036635 0)
(0.111945 -0.0035928 0)
(0.112963 -0.00352042 0)
(0.11396 -0.00344639 0)
(0.114936 -0.00337073 0)
(0.11589 -0.00329347 0)
(0.116822 -0.00321464 0)
(0.117731 -0.00313427 0)
(0.118617 -0.0030524 0)
(0.119479 -0.00296907 0)
(0.120317 -0.00288432 0)
(0.12113 -0.0027982 0)
(0.121919 -0.00271074 0)
(0.122683 -0.00262199 0)
(0.12342 -0.00253202 0)
(0.124132 -0.00244087 0)
(0.124818 -0.0023486 0)
(0.125477 -0.00225526 0)
(0.126109 -0.00216092 0)
(0.126714 -0.00206563 0)
(0.127292 -0.00196947 0)
(0.127841 -0.00187248 0)
(0.128363 -0.00177475 0)
(0.128857 -0.00167633 0)
(0.129323 -0.0015773 0)
(0.12976 -0.00147772 0)
(0.130168 -0.00137767 0)
(0.130548 -0.00127721 0)
(0.130899 -0.00117642 0)
(0.131221 -0.00107537 0)
(0.131514 -0.000974121 0)
(0.131778 -0.000872755 0)
(0.132013 -0.00077134 0)
(0.132219 -0.000669947 0)
(0.132395 -0.000568646 0)
(0.132543 -0.000467508 0)
(0.132662 -0.000366601 0)
(0.132752 -0.000265993 0)
(0.132813 -0.000165751 0)
(0.132846 -6.59405e-05 0)
(0.13285 3.33733e-05 0)
(0.132825 0.000132128 0)
(0.132773 0.000230262 0)
(0.132692 0.000327715 0)
(0.132583 0.00042443 0)
(0.132447 0.00052035 0)
(0.132284 0.00061542 0)
(0.132094 0.00070959 0)
(0.131876 0.000802808 0)
(0.131632 0.000895027 0)
(0.131362 0.000986201 0)
(0.131066 0.00107628 0)
(0.130745 0.00116524 0)
(0.130398 0.00125302 0)
(0.130026 0.0013396 0)
(0.129629 0.00142494 0)
(0.129208 0.001509 0)
(0.128764 0.00159177 0)
(0.128295 0.0016732 0)
(0.127804 0.00175328 0)
(0.12729 0.00183198 0)
(0.126754 0.00190928 0)
(0.126196 0.00198516 0)
(0.125616 0.00205962 0)
(0.125015 0.00213262 0)
(0.124394 0.00220417 0)
(0.123752 0.00227425 0)
(0.123091 0.00234285 0)
(0.12241 0.00240997 0)
(0.12171 0.00247561 0)
(0.120992 0.00253976 0)
(0.120255 0.00260242 0)
(0.119501 0.0026636 0)
(0.118729 0.00272329 0)
(0.117941 0.00278151 0)
(0.117136 0.00283826 0)
(0.116316 0.00289354 0)
(0.115479 0.00294737 0)
(0.114628 0.00299976 0)
(0.113762 0.00305071 0)
(0.112881 0.00310025 0)
(0.111987 0.00314838 0)
(0.111079 0.00319513 0)
(0.110158 0.0032405 0)
(0.109224 0.00328451 0)
(0.108278 0.00332719 0)
(0.107319 0.00336855 0)
(0.10635 0.00340861 0)
(0.105369 0.00344739 0)
(0.104377 0.00348492 0)
(0.103374 0.0035212 0)
(0.102362 0.00355627 0)
(0.101339 0.00359015 0)
(0.100307 0.00362285 0)
(0.0992661 0.00365441 0)
(0.0982162 0.00368484 0)
(0.0971578 0.00371418 0)
(0.0960912 0.00374243 0)
(0.0950167 0.00376963 0)
(0.0939347 0.0037958 0)
(0.0928453 0.00382096 0)
(0.0917489 0.00384515 0)
(0.0906457 0.00386837 0)
(0.0895361 0.00389066 0)
(0.0884203 0.00391204 0)
(0.0872985 0.00393253 0)
(0.086171 0.00395216 0)
(0.0850381 0.00397095 0)
(0.0838999 0.00398892 0)
(0.0827568 0.00400611 0)
(0.0816088 0.00402252 0)
(0.0804564 0.00403818 0)
(0.0792996 0.00405312 0)
(0.0781386 0.00406736 0)
(0.0769737 0.00408092 0)
(0.075805 0.00409382 0)
(0.0746328 0.00410609 0)
(0.0734572 0.00411774 0)
(0.0722784 0.00412879 0)
(0.0710965 0.00413927 0)
(0.0699117 0.00414919 0)
(0.0687242 0.00415858 0)
(0.0675342 0.00416746 0)
(0.0663416 0.00417584 0)
(0.0651468 0.00418374 0)
(0.0639498 0.00419118 0)
(0.0627508 0.00419819 0)
(0.0615498 0.00420477 0)
(0.0603471 0.00421094 0)
(0.0591426 0.00421673 0)
(0.0579366 0.00422214 0)
(0.0567291 0.0042272 0)
(0.0555202 0.00423191 0)
(0.0543101 0.0042363 0)
(0.0530987 0.00424039 0)
(0.0518863 0.00424417 0)
(0.0506728 0.00424768 0)
(0.0494584 0.00425092 0)
(0.0482431 0.00425391 0)
(0.047027 0.00425665 0)
(0.0458102 0.00425917 0)
(0.0445927 0.00426147 0)
(0.0433745 0.00426358 0)
(0.0421559 0.00426549 0)
(0.0409367 0.00426722 0)
(0.039717 0.00426878 0)
(0.038497 0.00427019 0)
(0.0372766 0.00427144 0)
(0.0360558 0.00427257 0)
(0.0348348 0.00427356 0)
(0.0336135 0.00427443 0)
(0.032392 0.0042752 0)
(0.0311703 0.00427586 0)
(0.0299484 0.00427644 0)
(0.0287264 0.00427692 0)
(0.0275043 0.00427734 0)
(0.0262821 0.00427768 0)
(0.0250597 0.00427796 0)
(0.0238374 0.00427818 0)
(0.022615 0.00427835 0)
(0.0213925 0.00427848 0)
(0.02017 0.00427857 0)
(0.0189475 0.00427863 0)
(0.017725 0.00427866 0)
(0.0165025 0.00427867 0)
(0.01528 0.00427866 0)
(0.0140575 0.00427863 0)
(0.0128351 0.00427859 0)
(0.0116126 0.00427855 0)
(0.0103902 0.0042785 0)
(0.00916773 0.00427845 0)
(0.00794533 0.0042784 0)
(0.00672294 0.00427836 0)
(0.00550056 0.00427831 0)
(0.0042782 0.00427828 0)
(0.00305585 0.00427825 0)
(0.00183351 0.00427823 0)
(0.000611169 0.00427822 0)
(0.000758525 -0.00682632 0)
(0.00227557 -0.00682627 0)
(0.0037926 -0.00682616 0)
(0.00530961 -0.00682599 0)
(0.00682657 -0.00682576 0)
(0.00834349 -0.00682545 0)
(0.00986035 -0.00682508 0)
(0.0113771 -0.00682461 0)
(0.0128938 -0.00682405 0)
(0.0144104 -0.00682339 0)
(0.0159268 -0.0068226 0)
(0.0174431 -0.00682168 0)
(0.0189591 -0.0068206 0)
(0.020475 -0.00681936 0)
(0.0219905 -0.00681793 0)
(0.0235058 -0.0068163 0)
(0.0250207 -0.00681443 0)
(0.0265352 -0.00681232 0)
(0.0280493 -0.00680992 0)
(0.0295628 -0.00680722 0)
(0.0310757 -0.0068042 0)
(0.032588 -0.00680081 0)
(0.0340995 -0.00679704 0)
(0.0356102 -0.00679285 0)
(0.0371199 -0.0067882 0)
(0.0386287 -0.00678307 0)
(0.0401362 -0.00677742 0)
(0.0416426 -0.00677122 0)
(0.0431475 -0.00676442 0)
(0.0446509 -0.00675699 0)
(0.0461527 -0.00674889 0)
(0.0476526 -0.00674007 0)
(0.0491506 -0.00673051 0)
(0.0506464 -0.00672014 0)
(0.0521399 -0.00670894 0)
(0.0536309 -0.00669686 0)
(0.0551191 -0.00668385 0)
(0.0566045 -0.00666986 0)
(0.0580867 -0.00665486 0)
(0.0595655 -0.00663879 0)
(0.0610407 -0.0066216 0)
(0.062512 -0.00660325 0)
(0.0639792 -0.0065837 0)
(0.0654419 -0.00656289 0)
(0.0669 -0.00654077 0)
(0.0683531 -0.00651729 0)
(0.0698009 -0.00649242 0)
(0.0712431 -0.00646609 0)
(0.0726793 -0.00643826 0)
(0.0741093 -0.00640889 0)
(0.0755326 -0.00637792 0)
(0.076949 -0.00634531 0)
(0.0783579 -0.00631101 0)
(0.0797592 -0.00627499 0)
(0.0811523 -0.00623719 0)
(0.0825368 -0.00619757 0)
(0.0839125 -0.00615609 0)
(0.0852787 -0.0061127 0)
(0.0866352 -0.00606739 0)
(0.0879814 -0.00602009 0)
(0.0893169 -0.00597078 0)
(0.0906414 -0.00591943 0)
(0.0919542 -0.005866 0)
(0.0932549 -0.00581047 0)
(0.0945432 -0.00575281 0)
(0.0958184 -0.00569299 0)
(0.0970801 -0.00563099 0)
(0.0983278 -0.00556679 0)
(0.099561 -0.00550038 0)
(0.100779 -0.00543174 0)
(0.101982 -0.00536086 0)
(0.103169 -0.00528774 0)
(0.104339 -0.00521237 0)
(0.105492 -0.00513475 0)
(0.106628 -0.00505488 0)
(0.107746 -0.00497278 0)
(0.108845 -0.00488844 0)
(0.109925 -0.00480188 0)
(0.110986 -0.00471312 0)
(0.112027 -0.00462218 0)
(0.113047 -0.00452908 0)
(0.114046 -0.00443385 0)
(0.115024 -0.00433653 0)
(0.11598 -0.00423715 0)
(0.116913 -0.00413574 0)
(0.117824 -0.00403235 0)
(0.118711 -0.00392702 0)
(0.119575 -0.00381982 0)
(0.120415 -0.00371078 0)
(0.12123 -0.00359996 0)
(0.12202 -0.00348743 0)
(0.122785 -0.00337324 0)
(0.123524 -0.00325747 0)
(0.124237 -0.00314019 0)
(0.124924 -0.00302145 0)
(0.125584 -0.00290134 0)
(0.126217 -0.00277994 0)
(0.126823 -0.00265732 0)
(0.127402 -0.00253357 0)
(0.127953 -0.00240876 0)
(0.128476 -0.00228299 0)
(0.12897 -0.00215634 0)
(0.129436 -0.00202889 0)
(0.129874 -0.00190075 0)
(0.130283 -0.00177199 0)
(0.130663 -0.00164271 0)
(0.131014 -0.00151299 0)
(0.131337 -0.00138294 0)
(0.13163 -0.00125265 0)
(0.131894 -0.0011222 0)
(0.132129 -0.000991686 0)
(0.132334 -0.000861203 0)
(0.132511 -0.00073084 0)
(0.132659 -0.000600686 0)
(0.132777 -0.000470832 0)
(0.132867 -0.000341364 0)
(0.132927 -0.000212369 0)
(0.132959 -8.39311e-05 0)
(0.132963 4.3866e-05 0)
(0.132938 0.000170941 0)
(0.132884 0.000297216 0)
(0.132803 0.000422612 0)
(0.132694 0.000547056 0)
(0.132557 0.000670475 0)
(0.132392 0.000792798 0)
(0.132201 0.000913959 0)
(0.131982 0.00103389 0)
(0.131737 0.00115254 0)
(0.131466 0.00126984 0)
(0.131169 0.00138573 0)