/*--------------------------------*- C++ -*----------------------------------*\
| =========                 |                                                 |
| \\      /  F ield         | OpenFOAM: The Open Source CFD Toolbox           |
|  \\    /   O peration     | Version:  v2012                                 |
|   \\  /    A nd           | Website:  www.openfoam.com                      |
|    \\/     M anipulation  |                                                 |
\*---------------------------------------------------------------------------*/
FoamFile
{
    version     2.0;
    format      ascii;
    class       volVectorField;
    location    "70";
    object      Usup;
}
// * * * * * * * * * * * * * * * * * * * * * * * * * * * * * * * * * * * * * //

dimensions      [0 1 -1 0 0 0 0];


internalField   nonuniform List<vector> 
4000
(
(-1.97074e-16 -3.74149e-16 0)
(-2.305e-16 -2.77399e-16 0)
(-1.59231e-16 -4.87352e-16 0)
(-3.80513e-16 -5.84507e-16 0)
(-4.5469e-16 -6.0991e-16 0)
(-5.15919e-16 -1.18005e-15 0)
(-9.11976e-16 -1.45587e-15 0)
(-8.83451e-16 -1.30288e-15 0)
(-3.52088e-16 -1.41418e-15 0)
(7.89897e-17 -1.29824e-15 0)
(4.25929e-16 -1.36201e-15 0)
(1.07196e-16 -1.94635e-15 0)
(-8.6148e-16 -1.77904e-15 0)
(-1.12055e-15 -1.33482e-15 0)
(-3.20156e-16 -1.32659e-15 0)
(6.28698e-17 -1.97721e-15 0)
(-7.21517e-16 -2.08293e-15 0)
(-1.14604e-15 -2.22831e-15 0)
(-1.20471e-15 -2.31308e-15 0)
(-1.86182e-15 -2.43146e-15 0)
(-2.34284e-15 -2.38625e-15 0)
(-2.07089e-15 -2.20303e-15 0)
(-1.51786e-15 -2.24876e-15 0)
(-1.0076e-15 -2.04772e-15 0)
(-7.41343e-16 -2.02753e-15 0)
(-4.26355e-16 -1.93366e-15 0)
(5.25211e-17 -2.17047e-15 0)
(1.11684e-16 -2.19043e-15 0)
(5.05812e-17 -2.06926e-15 0)
(3.99324e-16 -1.70912e-15 0)
(1.07918e-15 -1.46248e-15 0)
(1.69763e-15 -1.43343e-15 0)
(1.88718e-15 -1.97149e-15 0)
(1.65392e-15 -2.08294e-15 0)
(1.85698e-15 -1.77278e-15 0)
(1.48523e-15 -1.94354e-15 0)
(9.69139e-16 -1.22206e-15 0)
(1.2722e-15 -7.49071e-16 0)
(1.70986e-15 -6.00245e-16 0)
(2.76702e-15 -7.29452e-16 0)
(4.07127e-15 -1.04846e-15 0)
(4.84362e-15 -1.42361e-15 0)
(4.93247e-15 -1.67586e-15 0)
(4.6898e-15 -1.41669e-15 0)
(4.56974e-15 -1.13655e-15 0)
(4.73333e-15 -1.23018e-15 0)
(5.36217e-15 -1.27402e-15 0)
(6.399e-15 -1.24678e-15 0)
(7.13047e-15 -1.14565e-15 0)
(7.77797e-15 -8.26946e-16 0)
(8.56155e-15 -8.91754e-16 0)
(9.13333e-15 -1.11636e-15 0)
(9.43499e-15 -1.50348e-15 0)
(9.6893e-15 -1.81674e-15 0)
(1.0167e-14 -1.80981e-15 0)
(1.08027e-14 -1.73919e-15 0)
(1.11176e-14 -1.89236e-15 0)
(1.11526e-14 -2.04212e-15 0)
(1.11328e-14 -1.9568e-15 0)
(1.09002e-14 -1.95324e-15 0)
(1.10774e-14 -1.8433e-15 0)
(1.16227e-14 -1.72898e-15 0)
(1.18228e-14 -1.68766e-15 0)
(1.19229e-14 -1.70711e-15 0)
(1.22209e-14 -1.66142e-15 0)
(1.24443e-14 -1.51549e-15 0)
(1.23891e-14 -1.50952e-15 0)
(1.23773e-14 -1.29733e-15 0)
(1.26968e-14 -1.07161e-15 0)
(1.29302e-14 -1.14339e-15 0)
(1.31001e-14 -1.18328e-15 0)
(1.3151e-14 -1.23409e-15 0)
(1.25834e-14 -1.26092e-15 0)
(1.21985e-14 -1.18419e-15 0)
(1.25876e-14 -9.37586e-16 0)
(1.30103e-14 -1.11237e-15 0)
(1.31837e-14 -1.38525e-15 0)
(1.3286e-14 -1.48372e-15 0)
(1.30322e-14 -1.37108e-15 0)
(1.22113e-14 -1.27291e-15 0)
(1.18421e-14 -1.09761e-15 0)
(1.24153e-14 -6.79998e-16 0)
(1.27577e-14 -9.41129e-16 0)
(1.24822e-14 -1.08855e-15 0)
(1.21598e-14 -6.84512e-16 0)
(1.22093e-14 -3.5107e-16 0)
(1.20572e-14 -5.01013e-16 0)
(1.18328e-14 -1.30465e-16 0)
(1.18735e-14 -6.56108e-17 0)
(1.1709e-14 8.43081e-17 0)
(1.13908e-14 2.79307e-16 0)
(1.08948e-14 1.34893e-16 0)
(1.00145e-14 -2.71396e-17 0)
(9.25076e-15 -1.69411e-17 0)
(8.64612e-15 1.42627e-16 0)
(7.64855e-15 1.33913e-16 0)
(6.64674e-15 -6.2762e-17 0)
(5.55205e-15 4.33206e-17 0)
(3.92366e-15 -1.38951e-17 0)
(1.57503e-15 -1.26134e-16 0)
(-9.59567e-17 -6.37802e-16 0)
(-2.92204e-16 -8.40141e-16 0)
(-5.32774e-16 -1.45643e-15 0)
(-9.02296e-16 -1.9277e-15 0)
(-1.52163e-15 -2.15326e-15 0)
(-1.96067e-15 -3.27819e-15 0)
(-2.16296e-15 -4.10421e-15 0)
(-1.95132e-15 -4.04346e-15 0)
(-9.18966e-16 -4.10792e-15 0)
(5.27621e-17 -3.86214e-15 0)
(1.59284e-16 -4.16395e-15 0)
(-3.87225e-16 -5.4256e-15 0)
(-1.50059e-15 -5.2683e-15 0)
(-2.17652e-15 -4.51419e-15 0)
(-1.63623e-15 -4.63673e-15 0)
(-1.12051e-15 -5.80224e-15 0)
(-2.24073e-15 -6.53678e-15 0)
(-3.26146e-15 -6.67206e-15 0)
(-3.69512e-15 -6.79935e-15 0)
(-4.97598e-15 -7.03091e-15 0)
(-5.70775e-15 -6.86219e-15 0)
(-5.24153e-15 -6.78289e-15 0)
(-4.00287e-15 -6.6105e-15 0)
(-2.72484e-15 -6.31592e-15 0)
(-1.97447e-15 -6.21437e-15 0)
(-1.2717e-15 -6.19818e-15 0)
(-2.48357e-16 -6.44654e-15 0)
(3.86587e-16 -6.42215e-15 0)
(8.42189e-16 -5.68456e-15 0)
(1.88037e-15 -4.80422e-15 0)
(3.22298e-15 -4.51506e-15 0)
(4.09053e-15 -4.50959e-15 0)
(4.5654e-15 -5.49377e-15 0)
(4.94562e-15 -5.69757e-15 0)
(5.22604e-15 -5.28562e-15 0)
(4.87996e-15 -5.36286e-15 0)
(4.5456e-15 -3.80034e-15 0)
(4.86737e-15 -2.93938e-15 0)
(5.74328e-15 -2.74711e-15 0)
(7.96996e-15 -2.7358e-15 0)
(1.08212e-14 -3.10928e-15 0)
(1.28484e-14 -3.84765e-15 0)
(1.38738e-14 -4.28367e-15 0)
(1.40837e-14 -3.97953e-15 0)
(1.38455e-14 -3.52798e-15 0)
(1.42776e-14 -3.59858e-15 0)
(1.60436e-14 -3.68048e-15 0)
(1.86475e-14 -3.51097e-15 0)
(2.09121e-14 -3.00237e-15 0)
(2.26673e-14 -2.65104e-15 0)
(2.43012e-14 -2.99604e-15 0)
(2.56577e-14 -3.49573e-15 0)
(2.66349e-14 -4.50774e-15 0)
(2.78439e-14 -5.24012e-15 0)
(2.94203e-14 -5.31397e-15 0)
(3.0822e-14 -5.26931e-15 0)
(3.15464e-14 -5.67491e-15 0)
(3.19993e-14 -5.96737e-15 0)
(3.21816e-14 -5.90618e-15 0)
(3.19383e-14 -5.84311e-15 0)
(3.25155e-14 -5.63392e-15 0)
(3.36363e-14 -5.67478e-15 0)
(3.41575e-14 -5.45505e-15 0)
(3.45798e-14 -4.9266e-15 0)
(3.54156e-14 -4.77049e-15 0)
(3.59365e-14 -4.46746e-15 0)
(3.60334e-14 -4.32332e-15 0)
(3.63184e-14 -3.81882e-15 0)
(3.68028e-14 -3.34931e-15 0)
(3.71707e-14 -3.64746e-15 0)
(3.75649e-14 -3.83933e-15 0)
(3.76003e-14 -3.81369e-15 0)
(3.66248e-14 -3.82538e-15 0)
(3.6114e-14 -3.73995e-15 0)
(3.66367e-14 -3.166e-15 0)
(3.71222e-14 -3.387e-15 0)
(3.75874e-14 -3.79074e-15 0)
(3.79988e-14 -4.01243e-15 0)
(3.74936e-14 -3.99823e-15 0)
(3.58962e-14 -3.65496e-15 0)
(3.53532e-14 -2.96501e-15 0)
(3.59665e-14 -2.49975e-15 0)
(3.61443e-14 -2.99182e-15 0)
(3.60981e-14 -3.05967e-15 0)
(3.57569e-14 -2.12184e-15 0)
(3.52377e-14 -1.215e-15 0)
(3.48269e-14 -9.40919e-16 0)
(3.4409e-14 -4.0224e-16 0)
(3.40552e-14 -1.24467e-16 0)
(3.35486e-14 1.39752e-16 0)
(3.23178e-14 3.16414e-16 0)
(3.05526e-14 2.79063e-16 0)
(2.83843e-14 6.98532e-17 0)
(2.64181e-14 1.86891e-16 0)
(2.43524e-14 3.23746e-16 0)
(2.12699e-14 1.46223e-16 0)
(1.83222e-14 6.20381e-17 0)
(1.49673e-14 2.34849e-16 0)
(1.00878e-14 1.41054e-16 0)
(3.96937e-15 -1.57348e-16 0)
(-1.22217e-16 -4.70675e-16 0)
(-5.17311e-16 -1.36573e-15 0)
(-1.02157e-15 -2.58312e-15 0)
(-1.4736e-15 -3.74827e-15 0)
(-2.42741e-15 -4.25594e-15 0)
(-3.30871e-15 -5.25048e-15 0)
(-3.34898e-15 -6.26587e-15 0)
(-2.66676e-15 -6.40081e-15 0)
(-1.21321e-15 -6.19463e-15 0)
(-1.8889e-16 -6.49629e-15 0)
(-5.82329e-16 -7.59602e-15 0)
(-1.21039e-15 -8.69719e-15 0)
(-2.05961e-15 -8.61055e-15 0)
(-3.03774e-15 -8.01774e-15 0)
(-2.98047e-15 -8.21121e-15 0)
(-2.84218e-15 -9.61271e-15 0)
(-3.97351e-15 -1.09792e-14 0)
(-5.00274e-15 -1.08458e-14 0)
(-5.90678e-15 -1.13102e-14 0)
(-7.49885e-15 -1.16617e-14 0)
(-8.46997e-15 -1.13103e-14 0)
(-7.78163e-15 -1.13672e-14 0)
(-5.96163e-15 -1.11323e-14 0)
(-4.25624e-15 -1.08663e-14 0)
(-3.1305e-15 -1.05548e-14 0)
(-1.99283e-15 -1.0517e-14 0)
(-3.82741e-16 -1.06172e-14 0)
(1.09085e-15 -1.03242e-14 0)
(2.25763e-15 -8.95187e-15 0)
(3.39824e-15 -7.87597e-15 0)
(5.00411e-15 -7.59946e-15 0)
(6.12082e-15 -8.05602e-15 0)
(6.92243e-15 -8.86895e-15 0)
(7.86505e-15 -8.89118e-15 0)
(8.40391e-15 -8.82169e-15 0)
(8.58432e-15 -8.05772e-15 0)
(8.51199e-15 -6.57025e-15 0)
(8.67758e-15 -6.02792e-15 0)
(1.01549e-14 -5.72974e-15 0)
(1.34484e-14 -5.2906e-15 0)
(1.71745e-14 -4.94877e-15 0)
(2.0089e-14 -5.41697e-15 0)
(2.20005e-14 -6.05846e-15 0)
(2.28146e-14 -6.38309e-15 0)
(2.29288e-14 -6.36345e-15 0)
(2.37977e-14 -6.00102e-15 0)
(2.65606e-14 -5.55953e-15 0)
(3.06385e-14 -5.07726e-15 0)
(3.39689e-14 -4.69417e-15 0)
(3.63239e-14 -4.89995e-15 0)
(3.87983e-14 -5.57975e-15 0)
(4.08295e-14 -6.24142e-15 0)
(4.24682e-14 -7.4641e-15 0)
(4.47754e-14 -8.05284e-15 0)
(4.73639e-14 -8.70898e-15 0)
(4.93406e-14 -9.1081e-15 0)
(5.05016e-14 -9.60434e-15 0)
(5.14428e-14 -9.85075e-15 0)
(5.19725e-14 -9.94058e-15 0)
(5.19763e-14 -9.77824e-15 0)
(5.27e-14 -9.33106e-15 0)
(5.43181e-14 -8.973e-15 0)
(5.57378e-14 -8.83249e-15 0)
(5.64408e-14 -8.11289e-15 0)
(5.73268e-14 -7.81083e-15 0)
(5.81468e-14 -7.50199e-15 0)
(5.85225e-14 -7.18581e-15 0)
(5.90674e-14 -6.4624e-15 0)
(5.9431e-14 -5.98829e-15 0)
(5.97425e-14 -6.10194e-15 0)
(6.04989e-14 -6.08498e-15 0)
(6.0636e-14 -6.05631e-15 0)
(5.93906e-14 -6.19141e-15 0)
(5.89709e-14 -6.33129e-15 0)
(5.95923e-14 -6.11954e-15 0)
(5.99664e-14 -5.94888e-15 0)
(6.05004e-14 -6.07723e-15 0)
(6.08962e-14 -6.25695e-15 0)
(6.03802e-14 -6.41829e-15 0)
(5.87764e-14 -6.00614e-15 0)
(5.78163e-14 -5.22126e-15 0)
(5.79326e-14 -5.01361e-15 0)
(5.81676e-14 -4.86517e-15 0)
(5.84998e-14 -4.4599e-15 0)
(5.82471e-14 -3.65539e-15 0)
(5.74069e-14 -2.54645e-15 0)
(5.63978e-14 -1.47173e-15 0)
(5.54712e-14 -9.18333e-16 0)
(5.47073e-14 -3.07463e-16 0)
(5.35126e-14 8.12905e-17 0)
(5.15491e-14 4.5593e-17 0)
(4.87866e-14 2.67046e-16 0)
(4.53819e-14 2.70064e-16 0)
(4.2068e-14 6.34113e-16 0)
(3.8313e-14 3.81223e-16 0)
(3.3588e-14 3.48607e-16 0)
(2.88245e-14 4.387e-16 0)
(2.30373e-14 3.50149e-16 0)
(1.51444e-14 1.06675e-16 0)
(5.7388e-15 -1.20294e-16 0)
(-2.57372e-16 -5.32692e-16 0)
(-1.0291e-15 -1.83285e-15 0)
(-1.86788e-15 -3.68997e-15 0)
(-2.16533e-15 -5.36933e-15 0)
(-3.05813e-15 -6.48585e-15 0)
(-4.22606e-15 -6.88465e-15 0)
(-4.10231e-15 -7.65264e-15 0)
(-2.96889e-15 -8.21718e-15 0)
(-1.69347e-15 -8.65973e-15 0)
(-1.3081e-15 -9.6803e-15 0)
(-1.68917e-15 -1.09996e-14 0)
(-1.7837e-15 -1.17458e-14 0)
(-2.38483e-15 -1.19929e-14 0)
(-3.65489e-15 -1.1746e-14 0)
(-4.50077e-15 -1.20093e-14 0)
(-4.96182e-15 -1.33492e-14 0)
(-5.62307e-15 -1.46342e-14 0)
(-6.74303e-15 -1.46614e-14 0)
(-8.21624e-15 -1.56316e-14 0)
(-9.60795e-15 -1.63592e-14 0)
(-1.05035e-14 -1.59893e-14 0)
(-9.86409e-15 -1.57961e-14 0)
(-7.64839e-15 -1.5991e-14 0)
(-5.38556e-15 -1.53114e-14 0)
(-3.8775e-15 -1.45178e-14 0)
(-2.54006e-15 -1.38993e-14 0)
(-4.04688e-16 -1.41934e-14 0)
(2.07467e-15 -1.40658e-14 0)
(3.85599e-15 -1.26533e-14 0)
(5.07773e-15 -1.12576e-14 0)
(6.48114e-15 -1.09593e-14 0)
(7.64235e-15 -1.15769e-14 0)
(9.17266e-15 -1.20645e-14 0)
(1.05932e-14 -1.19295e-14 0)
(1.17508e-14 -1.14792e-14 0)
(1.25639e-14 -1.08032e-14 0)
(1.23206e-14 -9.85683e-15 0)
(1.26361e-14 -9.23308e-15 0)
(1.49041e-14 -8.23579e-15 0)
(1.92003e-14 -7.39871e-15 0)
(2.35922e-14 -7.1979e-15 0)
(2.67096e-14 -6.99492e-15 0)
(2.90454e-14 -7.63356e-15 0)
(3.05644e-14 -8.43476e-15 0)
(3.16893e-14 -8.80183e-15 0)
(3.36455e-14 -8.44251e-15 0)
(3.72225e-14 -7.50467e-15 0)
(4.1891e-14 -6.8324e-15 0)
(4.57921e-14 -6.7071e-15 0)
(4.8851e-14 -6.90996e-15 0)
(5.2154e-14 -7.81797e-15 0)
(5.48865e-14 -8.83453e-15 0)
(5.74291e-14 -1.03034e-14 0)
(6.04336e-14 -1.11855e-14 0)
(6.3527e-14 -1.21482e-14 0)
(6.63513e-14 -1.31015e-14 0)
(6.81963e-14 -1.37918e-14 0)
(6.96229e-14 -1.38404e-14 0)
(7.05703e-14 -1.38206e-14 0)
(7.11164e-14 -1.36109e-14 0)
(7.24396e-14 -1.27081e-14 0)
(7.41298e-14 -1.19185e-14 0)
(7.56383e-14 -1.17669e-14 0)
(7.68214e-14 -1.14741e-14 0)
(7.79872e-14 -1.0806e-14 0)
(7.90499e-14 -1.02412e-14 0)
(7.9831e-14 -9.83322e-15 0)
(8.06029e-14 -9.43815e-15 0)
(8.09365e-14 -9.00772e-15 0)
(8.13793e-14 -8.49563e-15 0)
(8.21234e-14 -8.15048e-15 0)
(8.2029e-14 -8.31789e-15 0)
(8.06196e-14 -8.66802e-15 0)
(8.01694e-14 -8.6925e-15 0)
(8.11226e-14 -9.1016e-15 0)
(8.16907e-14 -8.8275e-15 0)
(8.20737e-14 -8.64553e-15 0)
(8.23589e-14 -8.68152e-15 0)
(8.18039e-14 -8.88045e-15 0)
(8.01578e-14 -8.46479e-15 0)
(7.8983e-14 -7.80147e-15 0)
(7.91053e-14 -7.58747e-15 0)
(7.93867e-14 -6.86856e-15 0)
(7.94626e-14 -6.13814e-15 0)
(7.91191e-14 -5.13087e-15 0)
(7.82905e-14 -4.07291e-15 0)
(7.68528e-14 -2.67488e-15 0)
(7.53648e-14 -1.51982e-15 0)
(7.40813e-14 -6.25185e-16 0)
(7.20165e-14 -7.2303e-17 0)
(6.91974e-14 -7.4982e-17 0)
(6.55456e-14 -3.86931e-18 0)
(6.11043e-14 1.41063e-17 0)
(5.6287e-14 6.96211e-16 0)
(5.099e-14 6.82496e-16 0)
(4.47522e-14 7.95847e-16 0)
(3.78732e-14 7.2511e-16 0)
(2.97606e-14 3.46173e-16 0)
(1.94023e-14 1.15056e-16 0)
(7.36604e-15 -1.09532e-16 0)
(-3.18342e-16 -9.67336e-16 0)
(-1.50649e-15 -2.60754e-15 0)
(-2.69855e-15 -4.6304e-15 0)
(-3.04214e-15 -6.45742e-15 0)
(-3.44911e-15 -7.68953e-15 0)
(-4.41011e-15 -8.004e-15 0)
(-4.81957e-15 -8.68906e-15 0)
(-3.95143e-15 -1.00774e-14 0)
(-2.70751e-15 -1.16836e-14 0)
(-2.19548e-15 -1.3211e-14 0)
(-2.42108e-15 -1.41047e-14 0)
(-2.56684e-15 -1.45545e-14 0)
(-3.14554e-15 -1.52684e-14 0)
(-4.46526e-15 -1.5783e-14 0)
(-5.72431e-15 -1.64e-14 0)
(-6.57573e-15 -1.66995e-14 0)
(-7.22676e-15 -1.77068e-14 0)
(-8.59184e-15 -1.83545e-14 0)
(-1.05442e-14 -1.92807e-14 0)
(-1.16131e-14 -2.02015e-14 0)
(-1.21164e-14 -2.07581e-14 0)
(-1.16536e-14 -1.99956e-14 0)
(-8.94766e-15 -1.98838e-14 0)
(-5.80178e-15 -1.93422e-14 0)
(-3.94237e-15 -1.86467e-14 0)
(-2.79638e-15 -1.78127e-14 0)
(-7.42281e-16 -1.78263e-14 0)
(2.73827e-15 -1.70931e-14 0)
(5.60324e-15 -1.58917e-14 0)
(6.80386e-15 -1.45963e-14 0)
(7.89274e-15 -1.42827e-14 0)
(9.33018e-15 -1.44039e-14 0)
(1.13838e-14 -1.48628e-14 0)
(1.35134e-14 -1.47739e-14 0)
(1.4854e-14 -1.35504e-14 0)
(1.57534e-14 -1.33784e-14 0)
(1.6139e-14 -1.285e-14 0)
(1.72163e-14 -1.19887e-14 0)
(2.01383e-14 -1.07375e-14 0)
(2.44845e-14 -9.57284e-15 0)
(2.94923e-14 -9.43636e-15 0)
(3.33435e-14 -9.0289e-15 0)
(3.57478e-14 -9.36956e-15 0)
(3.77779e-14 -1.00188e-14 0)
(3.97778e-14 -1.00994e-14 0)
(4.28542e-14 -1.03858e-14 0)
(4.74022e-14 -9.95694e-15 0)
(5.26802e-14 -9.3469e-15 0)
(5.72364e-14 -9.05819e-15 0)
(6.06798e-14 -9.19715e-15 0)
(6.43281e-14 -1.00521e-14 0)
(6.7566e-14 -1.15405e-14 0)
(7.07484e-14 -1.29224e-14 0)
(7.47517e-14 -1.44299e-14 0)
(7.85417e-14 -1.56762e-14 0)
(8.18651e-14 -1.70142e-14 0)
(8.4634e-14 -1.7695e-14 0)
(8.68173e-14 -1.78324e-14 0)
(8.81021e-14 -1.77403e-14 0)
(8.92669e-14 -1.70404e-14 0)
(9.10058e-14 -1.576e-14 0)
(9.27403e-14 -1.51935e-14 0)
(9.444e-14 -1.48266e-14 0)
(9.61198e-14 -1.46431e-14 0)
(9.77647e-14 -1.39385e-14 0)
(9.88789e-14 -1.29989e-14 0)
(9.95281e-14 -1.252e-14 0)
(1.00458e-13 -1.2382e-14 0)
(1.01283e-13 -1.20069e-14 0)
(1.0185e-13 -1.08028e-14 0)
(1.02301e-13 -1.04763e-14 0)
(1.01953e-13 -1.09575e-14 0)
(1.00694e-13 -1.11166e-14 0)
(1.00156e-13 -1.08158e-14 0)
(1.01088e-13 -1.14871e-14 0)
(1.02047e-13 -1.17356e-14 0)
(1.02407e-13 -1.1387e-14 0)
(1.0239e-13 -1.13324e-14 0)
(1.01847e-13 -1.16247e-14 0)
(1.00386e-13 -1.10443e-14 0)
(9.88894e-14 -1.00571e-14 0)
(9.88462e-14 -9.67876e-15 0)
(9.92547e-14 -9.05343e-15 0)
(9.94364e-14 -7.95888e-15 0)
(9.89394e-14 -6.52154e-15 0)
(9.7838e-14 -5.30999e-15 0)
(9.62499e-14 -3.96061e-15 0)
(9.41833e-14 -2.37506e-15 0)
(9.20669e-14 -1.18851e-15 0)
(8.90617e-14 -5.85994e-16 0)
(8.52728e-14 -5.37798e-16 0)
(8.06854e-14 -5.66943e-16 0)
(7.55161e-14 -6.97678e-16 0)
(6.96529e-14 5.24082e-17 0)
(6.26376e-14 6.42335e-16 0)
(5.46286e-14 6.89234e-16 0)
(4.58174e-14 9.77452e-16 0)
(3.57039e-14 6.08747e-16 0)
(2.31059e-14 3.09746e-16 0)
(8.63718e-15 5.44682e-17 0)
(-3.51747e-16 -1.32895e-15 0)
(-1.76707e-15 -3.62394e-15 0)
(-3.25395e-15 -5.37897e-15 0)
(-3.42946e-15 -7.05843e-15 0)
(-3.61011e-15 -8.54122e-15 0)
(-4.70828e-15 -9.76602e-15 0)
(-5.61968e-15 -1.04612e-14 0)
(-5.28584e-15 -1.21203e-14 0)
(-4.1338e-15 -1.41992e-14 0)
(-3.24012e-15 -1.60337e-14 0)
(-2.93965e-15 -1.70002e-14 0)
(-3.15776e-15 -1.76503e-14 0)
(-4.14612e-15 -1.86942e-14 0)
(-5.6432e-15 -1.95623e-14 0)
(-6.5646e-15 -2.02074e-14 0)
(-7.59039e-15 -2.02767e-14 0)
(-8.89654e-15 -2.08392e-14 0)
(-1.03916e-14 -2.18585e-14 0)
(-1.24695e-14 -2.32352e-14 0)
(-1.39016e-14 -2.42254e-14 0)
(-1.36762e-14 -2.49315e-14 0)
(-1.2392e-14 -2.35754e-14 0)
(-9.93908e-15 -2.21852e-14 0)
(-6.68309e-15 -2.22598e-14 0)
(-4.30893e-15 -2.24569e-14 0)
(-2.79653e-15 -2.19076e-14 0)
(-2.31043e-17 -2.14063e-14 0)
(4.05627e-15 -1.997e-14 0)
(6.97873e-15 -1.85632e-14 0)
(8.3327e-15 -1.75834e-14 0)
(9.51406e-15 -1.70356e-14 0)
(1.08829e-14 -1.6841e-14 0)
(1.32294e-14 -1.73462e-14 0)
(1.64321e-14 -1.74491e-14 0)
(1.81362e-14 -1.6448e-14 0)
(1.89263e-14 -1.58292e-14 0)
(1.9801e-14 -1.51944e-14 0)
(2.15088e-14 -1.41688e-14 0)
(2.51415e-14 -1.29584e-14 0)
(2.99879e-14 -1.18187e-14 0)
(3.5275e-14 -1.1321e-14 0)
(3.94062e-14 -1.1271e-14 0)
(4.2164e-14 -1.13085e-14 0)
(4.49592e-14 -1.15721e-14 0)
(4.74498e-14 -1.13846e-14 0)
(5.10132e-14 -1.17885e-14 0)
(5.66716e-14 -1.19826e-14 0)
(6.28167e-14 -1.19402e-14 0)
(6.78133e-14 -1.19933e-14 0)
(7.16722e-14 -1.2342e-14 0)
(7.55651e-14 -1.30412e-14 0)
(7.93844e-14 -1.46661e-14 0)
(8.32619e-14 -1.57597e-14 0)
(8.76074e-14 -1.72764e-14 0)
(9.19759e-14 -1.90717e-14 0)
(9.62558e-14 -2.05053e-14 0)
(9.98709e-14 -2.11137e-14 0)
(1.02594e-13 -2.14487e-14 0)
(1.04768e-13 -2.12268e-14 0)
(1.06747e-13 -2.02671e-14 0)
(1.08546e-13 -1.89312e-14 0)
(1.10163e-13 -1.82808e-14 0)
(1.11972e-13 -1.78544e-14 0)
(1.1395e-13 -1.75642e-14 0)
(1.16176e-13 -1.69638e-14 0)
(1.1752e-13 -1.62074e-14 0)
(1.18098e-13 -1.59183e-14 0)
(1.19141e-13 -1.55029e-14 0)
(1.20578e-13 -1.49124e-14 0)
(1.21247e-13 -1.32804e-14 0)
(1.2092e-13 -1.25265e-14 0)
(1.20525e-13 -1.31544e-14 0)
(1.19662e-13 -1.33761e-14 0)
(1.18812e-13 -1.32719e-14 0)
(1.19399e-13 -1.3941e-14 0)
(1.20769e-13 -1.48311e-14 0)
(1.21358e-13 -1.47183e-14 0)
(1.21029e-13 -1.42384e-14 0)
(1.20577e-13 -1.39808e-14 0)
(1.19505e-13 -1.34769e-14 0)
(1.17842e-13 -1.22833e-14 0)
(1.17425e-13 -1.14128e-14 0)
(1.17944e-13 -1.04544e-14 0)
(1.18233e-13 -9.12013e-15 0)
(1.17494e-13 -8.04692e-15 0)
(1.16032e-13 -6.40599e-15 0)
(1.14196e-13 -5.09178e-15 0)
(1.11789e-13 -3.35044e-15 0)
(1.08826e-13 -2.16492e-15 0)
(1.04749e-13 -1.38044e-15 0)
(1.00015e-13 -1.40632e-15 0)
(9.44689e-14 -1.32994e-15 0)
(8.85175e-14 -1.23698e-15 0)
(8.18431e-14 -8.1682e-16 0)
(7.33297e-14 2.86955e-17 0)
(6.38172e-14 1.49687e-16 0)
(5.31939e-14 7.50976e-16 0)
(4.07925e-14 9.98528e-16 0)
(2.62385e-14 4.9954e-16 0)
(9.73418e-15 2.67196e-16 0)
(-5.65641e-16 -1.52072e-15 0)
(-1.9426e-15 -4.31245e-15 0)
(-3.28546e-15 -6.13343e-15 0)
(-3.91621e-15 -7.71644e-15 0)
(-4.39847e-15 -9.55465e-15 0)
(-5.11983e-15 -1.12565e-14 0)
(-6.11216e-15 -1.25629e-14 0)
(-6.44059e-15 -1.42901e-14 0)
(-5.44168e-15 -1.61907e-14 0)
(-4.22098e-15 -1.77904e-14 0)
(-3.73645e-15 -1.91636e-14 0)
(-4.17771e-15 -2.06409e-14 0)
(-5.20384e-15 -2.2362e-14 0)
(-6.50973e-15 -2.31257e-14 0)
(-7.44041e-15 -2.34955e-14 0)
(-8.51184e-15 -2.42639e-14 0)
(-1.01897e-14 -2.46755e-14 0)
(-1.2497e-14 -2.553e-14 0)
(-1.47352e-14 -2.68691e-14 0)
(-1.5529e-14 -2.73124e-14 0)
(-1.43722e-14 -2.68968e-14 0)
(-1.22381e-14 -2.58777e-14 0)
(-1.02686e-14 -2.48508e-14 0)
(-7.83408e-15 -2.53903e-14 0)
(-4.9698e-15 -2.57686e-14 0)
(-2.70945e-15 -2.51496e-14 0)
(6.27639e-16 -2.39302e-14 0)
(5.42091e-15 -2.25451e-14 0)
(8.6204e-15 -2.1326e-14 0)
(9.89239e-15 -2.03348e-14 0)
(1.11221e-14 -1.93948e-14 0)
(1.24758e-14 -1.92669e-14 0)
(1.49371e-14 -1.94387e-14 0)
(1.87363e-14 -1.93882e-14 0)
(2.11405e-14 -1.92032e-14 0)
(2.23273e-14 -1.83185e-14 0)
(2.36697e-14 -1.75735e-14 0)
(2.60009e-14 -1.63359e-14 0)
(3.00308e-14 -1.48807e-14 0)
(3.50332e-14 -1.36857e-14 0)
(4.04874e-14 -1.30345e-14 0)
(4.51626e-14 -1.32084e-14 0)
(4.84753e-14 -1.29529e-14 0)
(5.17555e-14 -1.31637e-14 0)
(5.47527e-14 -1.33279e-14 0)
(5.87353e-14 -1.34036e-14 0)
(6.49187e-14 -1.38325e-14 0)
(7.17111e-14 -1.44952e-14 0)
(7.74422e-14 -1.50181e-14 0)
(8.18726e-14 -1.52724e-14 0)
(8.6001e-14 -1.58851e-14 0)
(9.02882e-14 -1.74128e-14 0)
(9.47935e-14 -1.91833e-14 0)
(9.94303e-14 -2.07861e-14 0)
(1.0434e-13 -2.22712e-14 0)
(1.09491e-13 -2.31414e-14 0)
(1.13903e-13 -2.38617e-14 0)
(1.17412e-13 -2.42233e-14 0)
(1.2027e-13 -2.41083e-14 0)
(1.22822e-13 -2.35651e-14 0)
(1.24888e-13 -2.25807e-14 0)
(1.26504e-13 -2.16613e-14 0)
(1.2847e-13 -2.09146e-14 0)
(1.30776e-13 -2.03779e-14 0)
(1.33223e-13 -1.9333e-14 0)
(1.3452e-13 -1.90398e-14 0)
(1.35279e-13 -1.88083e-14 0)
(1.36751e-13 -1.82107e-14 0)
(1.3875e-13 -1.74251e-14 0)
(1.39662e-13 -1.63489e-14 0)
(1.38604e-13 -1.54412e-14 0)
(1.37611e-13 -1.54175e-14 0)
(1.36903e-13 -1.59887e-14 0)
(1.36034e-13 -1.65346e-14 0)
(1.36244e-13 -1.6905e-14 0)
(1.37777e-13 -1.76976e-14 0)
(1.39089e-13 -1.75281e-14 0)
(1.39033e-13 -1.69255e-14 0)
(1.38267e-13 -1.60173e-14 0)
(1.37192e-13 -1.54755e-14 0)
(1.35654e-13 -1.42205e-14 0)
(1.35136e-13 -1.30795e-14 0)
(1.35555e-13 -1.16871e-14 0)
(1.3542e-13 -1.04736e-14 0)
(1.34662e-13 -9.57248e-15 0)
(1.3316e-13 -7.73433e-15 0)
(1.30961e-13 -6.00095e-15 0)
(1.27988e-13 -4.17599e-15 0)
(1.24198e-13 -3.0724e-15 0)
(1.19133e-13 -2.40282e-15 0)
(1.13412e-13 -2.33688e-15 0)
(1.07232e-13 -2.24405e-15 0)
(1.00354e-13 -1.72404e-15 0)
(9.28006e-14 -1.29354e-15 0)
(8.30312e-14 -6.89756e-16 0)
(7.19964e-14 -5.23874e-16 0)
(6.0104e-14 1.101e-16 0)
(4.56779e-14 9.35566e-16 0)
(2.89368e-14 6.43989e-16 0)
(1.05123e-14 2.19686e-16 0)
(-7.3066e-16 -1.48551e-15 0)
(-2.16524e-15 -4.11829e-15 0)
(-3.38741e-15 -6.50427e-15 0)
(-4.07003e-15 -8.77088e-15 0)
(-4.75312e-15 -1.08839e-14 0)
(-5.80995e-15 -1.24793e-14 0)
(-7.02592e-15 -1.45536e-14 0)
(-7.35351e-15 -1.62789e-14 0)
(-6.28839e-15 -1.79764e-14 0)
(-5.17816e-15 -1.9612e-14 0)
(-4.98412e-15 -2.15783e-14 0)
(-5.69535e-15 -2.3321e-14 0)
(-6.42429e-15 -2.54005e-14 0)
(-7.19497e-15 -2.61055e-14 0)
(-8.38113e-15 -2.64213e-14 0)
(-9.70763e-15 -2.77721e-14 0)
(-1.13624e-14 -2.83868e-14 0)
(-1.38195e-14 -2.87908e-14 0)
(-1.58343e-14 -2.89593e-14 0)
(-1.61344e-14 -2.88182e-14 0)
(-1.48701e-14 -2.86287e-14 0)
(-1.30247e-14 -2.86224e-14 0)
(-1.14618e-14 -2.81547e-14 0)
(-8.8645e-15 -2.82036e-14 0)
(-5.17806e-15 -2.80821e-14 0)
(-1.97217e-15 -2.74873e-14 0)
(1.92145e-15 -2.59405e-14 0)
(6.58377e-15 -2.44893e-14 0)
(9.82411e-15 -2.36235e-14 0)
(1.16034e-14 -2.25942e-14 0)
(1.27899e-14 -2.15712e-14 0)
(1.39664e-14 -2.15238e-14 0)
(1.68475e-14 -2.152e-14 0)
(2.08721e-14 -2.16031e-14 0)
(2.37415e-14 -2.15668e-14 0)
(2.5527e-14 -2.07387e-14 0)
(2.73265e-14 -1.96675e-14 0)
(3.03464e-14 -1.83152e-14 0)
(3.4874e-14 -1.66901e-14 0)
(4.01676e-14 -1.47809e-14 0)
(4.55445e-14 -1.40423e-14 0)
(5.04812e-14 -1.45666e-14 0)
(5.42781e-14 -1.48604e-14 0)
(5.78107e-14 -1.52979e-14 0)
(6.14647e-14 -1.57423e-14 0)
(6.59561e-14 -1.55648e-14 0)
(7.2384e-14 -1.58496e-14 0)
(7.97298e-14 -1.66734e-14 0)
(8.63336e-14 -1.74328e-14 0)
(9.14335e-14 -1.80289e-14 0)
(9.56637e-14 -1.91062e-14 0)
(9.98449e-14 -2.06024e-14 0)
(1.04804e-13 -2.23203e-14 0)
(1.10416e-13 -2.39418e-14 0)
(1.16295e-13 -2.48257e-14 0)
(1.22018e-13 -2.49822e-14 0)
(1.2679e-13 -2.59021e-14 0)
(1.30815e-13 -2.62843e-14 0)
(1.34264e-13 -2.67874e-14 0)
(1.37439e-13 -2.65368e-14 0)
(1.40044e-13 -2.57861e-14 0)
(1.41996e-13 -2.48047e-14 0)
(1.4401e-13 -2.37393e-14 0)
(1.46662e-13 -2.3128e-14 0)
(1.49128e-13 -2.21089e-14 0)
(1.5025e-13 -2.20072e-14 0)
(1.51384e-13 -2.12227e-14 0)
(1.53125e-13 -2.04557e-14 0)
(1.55162e-13 -1.97743e-14 0)
(1.56119e-13 -1.91909e-14 0)
(1.55157e-13 -1.87064e-14 0)
(1.53753e-13 -1.80589e-14 0)
(1.52502e-13 -1.82894e-14 0)
(1.51804e-13 -1.89921e-14 0)
(1.52203e-13 -1.96719e-14 0)
(1.5394e-13 -2.00283e-14 0)
(1.55477e-13 -1.97482e-14 0)
(1.55547e-13 -1.93169e-14 0)
(1.54836e-13 -1.82778e-14 0)
(1.53752e-13 -1.71694e-14 0)
(1.52238e-13 -1.59488e-14 0)
(1.51611e-13 -1.45664e-14 0)
(1.51835e-13 -1.31026e-14 0)
(1.51353e-13 -1.186e-14 0)
(1.50583e-13 -1.04281e-14 0)
(1.49155e-13 -8.94042e-15 0)
(1.46626e-13 -6.99761e-15 0)
(1.42947e-13 -5.30515e-15 0)
(1.38175e-13 -4.09191e-15 0)
(1.32192e-13 -3.48712e-15 0)
(1.25678e-13 -3.03299e-15 0)
(1.18875e-13 -2.85964e-15 0)
(1.11332e-13 -2.59054e-15 0)
(1.02624e-13 -1.96278e-15 0)
(9.15587e-14 -1.49741e-15 0)
(7.94374e-14 -9.54167e-16 0)
(6.63902e-14 -3.18431e-16 0)
(5.01347e-14 2.9145e-16 0)
(3.12812e-14 1.91275e-16 0)
(1.1244e-14 -8.53759e-17 0)
(-7.06669e-16 -1.35953e-15 0)
(-2.34577e-15 -3.96794e-15 0)
(-3.97597e-15 -6.69945e-15 0)
(-4.88044e-15 -9.39393e-15 0)
(-5.28209e-15 -1.2319e-14 0)
(-6.33388e-15 -1.43178e-14 0)
(-7.72902e-15 -1.64432e-14 0)
(-8.04066e-15 -1.78961e-14 0)
(-7.20238e-15 -1.97787e-14 0)
(-6.3939e-15 -2.18992e-14 0)
(-6.21189e-15 -2.44215e-14 0)
(-6.9793e-15 -2.57149e-14 0)
(-7.49968e-15 -2.71932e-14 0)
(-7.7682e-15 -2.81234e-14 0)
(-9.4297e-15 -2.87938e-14 0)
(-1.09763e-14 -3.03315e-14 0)
(-1.22114e-14 -3.13325e-14 0)
(-1.44263e-14 -3.11097e-14 0)
(-1.64566e-14 -3.05166e-14 0)
(-1.71081e-14 -3.05787e-14 0)
(-1.60718e-14 -3.10111e-14 0)
(-1.3638e-14 -3.16118e-14 0)
(-1.14984e-14 -3.11757e-14 0)
(-9.00753e-15 -3.01569e-14 0)
(-5.28039e-15 -2.94376e-14 0)
(-1.52433e-15 -2.88874e-14 0)
(2.93194e-15 -2.72201e-14 0)
(7.74475e-15 -2.60604e-14 0)
(1.11796e-14 -2.51527e-14 0)
(1.31326e-14 -2.44103e-14 0)
(1.42151e-14 -2.38022e-14 0)
(1.53895e-14 -2.38451e-14 0)
(1.83103e-14 -2.35446e-14 0)
(2.26774e-14 -2.40782e-14 0)
(2.63015e-14 -2.41535e-14 0)
(2.88327e-14 -2.32145e-14 0)
(3.12104e-14 -2.12826e-14 0)
(3.46911e-14 -1.93866e-14 0)
(3.99724e-14 -1.77671e-14 0)
(4.52487e-14 -1.6098e-14 0)
(4.989e-14 -1.56873e-14 0)
(5.47979e-14 -1.61525e-14 0)
(5.91621e-14 -1.67925e-14 0)
(6.33183e-14 -1.73459e-14 0)
(6.77737e-14 -1.77234e-14 0)
(7.29213e-14 -1.73491e-14 0)
(7.94687e-14 -1.76718e-14 0)
(8.70583e-14 -1.84779e-14 0)
(9.4128e-14 -1.97044e-14 0)
(9.94949e-14 -2.08541e-14 0)
(1.04105e-13 -2.24581e-14 0)
(1.09016e-13 -2.39434e-14 0)
(1.14463e-13 -2.48947e-14 0)
(1.20678e-13 -2.60393e-14 0)
(1.27554e-13 -2.67901e-14 0)
(1.3349e-13 -2.71453e-14 0)
(1.38464e-13 -2.78816e-14 0)
(1.4293e-13 -2.81729e-14 0)
(1.46836e-13 -2.86497e-14 0)
(1.50844e-13 -2.83708e-14 0)
(1.53947e-13 -2.79331e-14 0)
(1.56267e-13 -2.72578e-14 0)
(1.58406e-13 -2.63247e-14 0)
(1.61092e-13 -2.56064e-14 0)
(1.63544e-13 -2.51706e-14 0)
(1.6501e-13 -2.49856e-14 0)
(1.66562e-13 -2.42056e-14 0)
(1.6822e-13 -2.28768e-14 0)
(1.70306e-13 -2.22211e-14 0)
(1.71249e-13 -2.12691e-14 0)
(1.70364e-13 -2.08539e-14 0)
(1.68922e-13 -2.05721e-14 0)
(1.67257e-13 -2.05701e-14 0)
(1.66064e-13 -2.10112e-14 0)
(1.66511e-13 -2.19541e-14 0)
(1.68703e-13 -2.24108e-14 0)
(1.70505e-13 -2.22378e-14 0)
(1.70865e-13 -2.16242e-14 0)
(1.704e-13 -2.03511e-14 0)
(1.69214e-13 -1.87744e-14 0)
(1.676e-13 -1.76227e-14 0)
(1.66951e-13 -1.5794e-14 0)
(1.66914e-13 -1.41213e-14 0)
(1.66345e-13 -1.28292e-14 0)
(1.65281e-13 -1.14211e-14 0)
(1.63584e-13 -1.01268e-14 0)
(1.60864e-13 -8.20122e-15 0)
(1.56563e-13 -6.56262e-15 0)
(1.5104e-13 -5.26945e-15 0)
(1.44318e-13 -4.4387e-15 0)
(1.36992e-13 -3.56595e-15 0)
(1.29181e-13 -3.09881e-15 0)
(1.20922e-13 -3.03765e-15 0)
(1.11571e-13 -2.54213e-15 0)
(9.9564e-14 -2.01398e-15 0)
(8.6241e-14 -1.34909e-15 0)
(7.17469e-14 -9.87266e-16 0)
(5.39052e-14 -4.47394e-16 0)
(3.34527e-14 -4.22457e-16 0)
(1.20665e-14 -3.24785e-16 0)
(-7.79855e-16 -1.49196e-15 0)
(-2.58435e-15 -4.4008e-15 0)
(-4.32991e-15 -7.25596e-15 0)
(-5.598e-15 -9.78594e-15 0)
(-6.17643e-15 -1.28701e-14 0)
(-7.012e-15 -1.56103e-14 0)
(-8.15273e-15 -1.78674e-14 0)
(-8.59074e-15 -1.95967e-14 0)
(-8.27727e-15 -2.16673e-14 0)
(-7.88385e-15 -2.40433e-14 0)
(-7.32709e-15 -2.61859e-14 0)
(-7.52203e-15 -2.7609e-14 0)
(-8.2398e-15 -2.83483e-14 0)
(-8.67096e-15 -2.97291e-14 0)
(-1.05529e-14 -3.13168e-14 0)
(-1.23643e-14 -3.20965e-14 0)
(-1.29543e-14 -3.3271e-14 0)
(-1.44446e-14 -3.33459e-14 0)
(-1.68311e-14 -3.27474e-14 0)
(-1.79836e-14 -3.22681e-14 0)
(-1.71307e-14 -3.21426e-14 0)
(-1.45679e-14 -3.31321e-14 0)
(-1.16404e-14 -3.36631e-14 0)
(-8.57589e-15 -3.23817e-14 0)
(-4.90436e-15 -3.1212e-14 0)
(-6.16017e-16 -3.05942e-14 0)
(4.15373e-15 -2.87668e-14 0)
(8.7182e-15 -2.72273e-14 0)
(1.21382e-14 -2.62943e-14 0)
(1.42031e-14 -2.59754e-14 0)
(1.53296e-14 -2.58343e-14 0)
(1.68001e-14 -2.60833e-14 0)
(1.98382e-14 -2.5628e-14 0)
(2.41057e-14 -2.55522e-14 0)
(2.85907e-14 -2.57965e-14 0)
(3.24176e-14 -2.48062e-14 0)
(3.55409e-14 -2.26656e-14 0)
(3.9022e-14 -2.03653e-14 0)
(4.41489e-14 -1.87319e-14 0)
(4.93846e-14 -1.82176e-14 0)
(5.40677e-14 -1.7721e-14 0)
(5.91297e-14 -1.75857e-14 0)
(6.37691e-14 -1.82006e-14 0)
(6.84114e-14 -1.86881e-14 0)
(7.36834e-14 -1.91031e-14 0)
(7.91819e-14 -1.92012e-14 0)
(8.57448e-14 -1.97287e-14 0)
(9.34597e-14 -2.05821e-14 0)
(1.00861e-13 -2.19608e-14 0)
(1.0673e-13 -2.33696e-14 0)
(1.11738e-13 -2.48239e-14 0)
(1.17385e-13 -2.62673e-14 0)
(1.23529e-13 -2.77624e-14 0)
(1.30162e-13 -2.8203e-14 0)
(1.37432e-13 -2.84412e-14 0)
(1.43909e-13 -2.8784e-14 0)
(1.494e-13 -2.93071e-14 0)
(1.54222e-13 -2.99082e-14 0)
(1.58638e-13 -3.01138e-14 0)
(1.62987e-13 -3.00408e-14 0)
(1.66349e-13 -2.99279e-14 0)
(1.69101e-13 -2.94522e-14 0)
(1.71553e-13 -2.89834e-14 0)
(1.74215e-13 -2.80119e-14 0)
(1.76632e-13 -2.76509e-14 0)
(1.78316e-13 -2.70378e-14 0)
(1.80563e-13 -2.64133e-14 0)
(1.82448e-13 -2.49406e-14 0)
(1.84406e-13 -2.3893e-14 0)
(1.85342e-13 -2.32278e-14 0)
(1.84e-13 -2.2932e-14 0)
(1.82363e-13 -2.29434e-14 0)
(1.80615e-13 -2.32514e-14 0)
(1.79226e-13 -2.37098e-14 0)
(1.79588e-13 -2.44412e-14 0)
(1.8209e-13 -2.48931e-14 0)
(1.8432e-13 -2.44258e-14 0)
(1.85059e-13 -2.33361e-14 0)
(1.84871e-13 -2.17516e-14 0)
(1.83471e-13 -2.00479e-14 0)
(1.81877e-13 -1.87396e-14 0)
(1.8133e-13 -1.68346e-14 0)
(1.80811e-13 -1.53286e-14 0)
(1.7973e-13 -1.39259e-14 0)
(1.78488e-13 -1.281e-14 0)
(1.76885e-13 -1.13407e-14 0)
(1.73957e-13 -9.51705e-15 0)
(1.69051e-13 -7.68061e-15 0)
(1.62792e-13 -6.32313e-15 0)
(1.55458e-13 -5.3229e-15 0)
(1.47467e-13 -4.10292e-15 0)
(1.38674e-13 -3.28227e-15 0)
(1.29566e-13 -2.72689e-15 0)
(1.19415e-13 -2.4699e-15 0)
(1.06484e-13 -2.16678e-15 0)
(9.20441e-14 -1.6816e-15 0)
(7.6505e-14 -1.58654e-15 0)
(5.74054e-14 -1.11529e-15 0)
(3.54431e-14 -9.23921e-16 0)
(1.28843e-14 -3.1021e-16 0)
(-8.48951e-16 -1.60675e-15 0)
(-2.80269e-15 -4.63901e-15 0)
(-4.58083e-15 -7.65629e-15 0)
(-6.07608e-15 -1.02608e-14 0)
(-7.03513e-15 -1.33126e-14 0)