/*--------------------------------*- C++ -*----------------------------------*\
| =========                 |                                                 |
| \\      /  F ield         | OpenFOAM: The Open Source CFD Toolbox           |
|  \\    /   O peration     | Version:  v2012                                 |
|   \\  /    A nd           | Website:  www.openfoam.com                      |
|    \\/     M anipulation  |                                                 |
\*---------------------------------------------------------------------------*/
FoamFile
{
    version     2.0;
    format      ascii;
    class       volVectorField;
    location    "70";
    object      Usup;
}
// * * * * * * * * * * * * * * * * * * * * * * * * * * * * * * * * * * * * * //

dimensions      [0 1 -1 0 0 0 0];


internalField   nonuniform List<vector> 
4000
(
(-2.70802e-16 -2.58928e-17 0)
(-4.1658e-16 1.28349e-16 0)
(-3.01833e-16 -2.65584e-16 0)
(-3.29487e-16 -4.43585e-16 0)
(-9.77961e-16 -5.96517e-16 0)
(-1.83754e-15 -5.15274e-16 0)
(-1.958e-15 -2.99343e-16 0)
(-1.76952e-15 -5.1898e-16 0)
(-1.59325e-15 -8.15719e-16 0)
(-1.52942e-15 -8.40479e-16 0)
(-2.03339e-15 -1.02174e-15 0)
(-2.75368e-15 -7.95041e-16 0)
(-2.76153e-15 -3.1304e-16 0)
(-2.37021e-15 1.73241e-16 0)
(-2.46017e-15 2.04799e-16 0)
(-2.44367e-15 1.27536e-16 0)
(-1.94265e-15 9.22112e-17 0)
(-1.3757e-15 -5.00126e-17 0)
(-9.2173e-16 -4.76372e-16 0)
(-7.02277e-16 -5.34711e-16 0)
(-3.58596e-16 -4.59788e-16 0)
(5.18914e-16 -4.36875e-16 0)
(1.21838e-15 -9.469e-16 0)
(1.4798e-15 -8.29709e-16 0)
(1.35067e-15 -6.10147e-16 0)
(1.53656e-15 -3.00554e-16 0)
(2.27912e-15 -3.86164e-16 0)
(2.4606e-15 -6.46456e-16 0)
(2.79122e-15 -6.34253e-16 0)
(2.92285e-15 -5.67937e-16 0)
(3.44922e-15 -1.60378e-16 0)
(4.65033e-15 -3.02955e-16 0)
(4.77246e-15 -6.15486e-16 0)
(4.82281e-15 -7.16765e-16 0)
(5.23473e-15 -7.25604e-16 0)
(5.52183e-15 -2.49989e-16 0)
(5.4299e-15 -2.42464e-16 0)
(5.40314e-15 2.20133e-16 0)
(6.71544e-15 5.70925e-16 0)
(8.45325e-15 3.18087e-16 0)
(9.43357e-15 3.09773e-16 0)
(1.01644e-14 3.57853e-16 0)
(1.05621e-14 1.25303e-16 0)
(1.08351e-14 1.90289e-16 0)
(1.13399e-14 6.01927e-17 0)
(1.20828e-14 -5.06536e-17 0)
(1.25341e-14 -1.50953e-16 0)
(1.28187e-14 1.83183e-16 0)
(1.3444e-14 4.33311e-16 0)
(1.37217e-14 2.25367e-16 0)
(1.41974e-14 4.35726e-16 0)
(1.46808e-14 4.84459e-16 0)
(1.48422e-14 7.65271e-16 0)
(1.50013e-14 9.17631e-16 0)
(1.49639e-14 1.09729e-15 0)
(1.50455e-14 1.25884e-15 0)
(1.54917e-14 1.14222e-15 0)
(1.57931e-14 1.40071e-15 0)
(1.58564e-14 1.34328e-15 0)
(1.5543e-14 1.18809e-15 0)
(1.494e-14 1.30003e-15 0)
(1.43557e-14 1.41735e-15 0)
(1.39625e-14 1.51359e-15 0)
(1.43537e-14 1.70293e-15 0)
(1.52076e-14 1.55859e-15 0)
(1.57789e-14 1.2725e-15 0)
(1.56643e-14 1.14539e-15 0)
(1.52422e-14 1.49022e-15 0)
(1.50139e-14 1.49394e-15 0)
(1.44988e-14 1.68244e-15 0)
(1.40849e-14 1.84945e-15 0)
(1.43265e-14 1.70833e-15 0)
(1.44924e-14 2.00582e-15 0)
(1.43441e-14 1.98147e-15 0)
(1.41531e-14 1.69161e-15 0)
(1.36003e-14 1.46075e-15 0)
(1.27789e-14 1.57804e-15 0)
(1.20532e-14 1.4999e-15 0)
(1.14318e-14 1.62149e-15 0)
(1.10859e-14 1.82154e-15 0)
(1.11785e-14 1.91265e-15 0)
(1.11674e-14 1.70278e-15 0)
(1.08661e-14 1.67337e-15 0)
(1.09153e-14 1.69279e-15 0)
(1.05827e-14 1.42492e-15 0)
(9.90845e-15 1.53528e-15 0)
(9.55355e-15 1.52191e-15 0)
(9.37696e-15 1.56903e-15 0)
(8.91824e-15 1.43402e-15 0)
(8.13894e-15 1.39288e-15 0)
(8.0483e-15 1.44981e-15 0)
(7.97099e-15 1.07956e-15 0)
(7.3624e-15 1.0054e-15 0)
(6.90152e-15 9.46698e-16 0)
(6.74733e-15 9.06363e-16 0)
(6.19224e-15 4.72657e-16 0)
(4.86658e-15 1.86251e-17 0)
(3.50365e-15 2.35337e-16 0)
(2.27188e-15 3.4286e-16 0)
(8.68128e-16 1.1812e-16 0)
(-4.09429e-16 -1.61205e-16 0)
(-1.12903e-15 9.88117e-17 0)
(-1.39018e-15 -5.62199e-16 0)
(-1.55521e-15 -9.83823e-16 0)
(-2.85983e-15 -1.35443e-15 0)
(-4.42834e-15 -1.55981e-15 0)
(-5.13453e-15 -1.27915e-15 0)
(-5.29639e-15 -1.53292e-15 0)
(-4.90369e-15 -2.4078e-15 0)
(-4.86347e-15 -2.53766e-15 0)
(-5.77921e-15 -2.96064e-15 0)
(-6.73478e-15 -2.29133e-15 0)
(-6.67024e-15 -9.23244e-16 0)
(-6.32167e-15 1.78982e-16 0)
(-6.7415e-15 2.98992e-16 0)
(-6.53313e-15 1.64124e-16 0)
(-5.39194e-15 7.65487e-17 0)
(-4.27425e-15 -3.27953e-16 0)
(-2.98913e-15 -1.18162e-15 0)
(-1.77531e-15 -1.78381e-15 0)
(-5.90413e-16 -1.70036e-15 0)
(1.03692e-15 -1.42504e-15 0)
(2.84009e-15 -2.10803e-15 0)
(4.23217e-15 -2.16615e-15 0)
(4.49904e-15 -1.78431e-15 0)
(4.95779e-15 -1.04951e-15 0)
(6.17652e-15 -1.07449e-15 0)
(7.0124e-15 -1.52606e-15 0)
(8.20219e-15 -1.73173e-15 0)
(9.1975e-15 -1.65044e-15 0)
(1.05235e-14 -5.89275e-16 0)
(1.25653e-14 -9.56905e-16 0)
(1.33398e-14 -1.73706e-15 0)
(1.40534e-14 -1.77393e-15 0)
(1.55304e-14 -1.57734e-15 0)
(1.63816e-14 -8.47064e-16 0)
(1.66206e-14 -8.69812e-16 0)
(1.74866e-14 3.5201e-16 0)
(2.0109e-14 1.20054e-15 0)
(2.39004e-14 1.09093e-15 0)
(2.68778e-14 9.68214e-16 0)
(2.88089e-14 8.0437e-16 0)
(3.0188e-14 6.15982e-16 0)
(3.13434e-14 5.30889e-16 0)
(3.26848e-14 9.47587e-17 0)
(3.45701e-14 -9.11573e-17 0)
(3.62501e-14 -1.06623e-16 0)
(3.75496e-14 5.3426e-16 0)
(3.86965e-14 8.45971e-16 0)
(3.96525e-14 9.69608e-16 0)
(4.10993e-14 1.54117e-15 0)
(4.23598e-14 1.89558e-15 0)
(4.30304e-14 2.29871e-15 0)
(4.3431e-14 2.55764e-15 0)
(4.35565e-14 3.0797e-15 0)
(4.36768e-14 3.76052e-15 0)
(4.47012e-14 3.78533e-15 0)
(4.54125e-14 4.30041e-15 0)
(4.52085e-14 4.27559e-15 0)
(4.46096e-14 3.77716e-15 0)
(4.34746e-14 3.77097e-15 0)
(4.21683e-14 4.01233e-15 0)
(4.14587e-14 4.32421e-15 0)
(4.20881e-14 4.99493e-15 0)
(4.34794e-14 4.5368e-15 0)
(4.46915e-14 3.90931e-15 0)
(4.49935e-14 3.9426e-15 0)
(4.42142e-14 4.37774e-15 0)
(4.34082e-14 4.50129e-15 0)
(4.23629e-14 4.76798e-15 0)
(4.12064e-14 5.23165e-15 0)
(4.1561e-14 5.20934e-15 0)
(4.18204e-14 5.35139e-15 0)
(4.09535e-14 5.65176e-15 0)
(4.01147e-14 5.21346e-15 0)
(3.89632e-14 4.69357e-15 0)
(3.70619e-14 4.71498e-15 0)
(3.51886e-14 4.61007e-15 0)
(3.37963e-14 5.02098e-15 0)
(3.28047e-14 5.46514e-15 0)
(3.23873e-14 5.82052e-15 0)
(3.20627e-14 5.22435e-15 0)
(3.15172e-14 4.89995e-15 0)
(3.11132e-14 4.97761e-15 0)
(3.02409e-14 4.46715e-15 0)
(2.88539e-14 4.81954e-15 0)
(2.77397e-14 4.85489e-15 0)
(2.68772e-14 4.73267e-15 0)
(2.55303e-14 4.22812e-15 0)
(2.3883e-14 4.02099e-15 0)
(2.30079e-14 3.92811e-15 0)
(2.23107e-14 3.01141e-15 0)
(2.10126e-14 2.87099e-15 0)
(1.96781e-14 2.95403e-15 0)
(1.84406e-14 2.63357e-15 0)
(1.62883e-14 1.38034e-15 0)
(1.33769e-14 5.71404e-16 0)
(1.01235e-14 6.24499e-16 0)
(6.24863e-15 7.20327e-16 0)
(2.12332e-15 2.57888e-16 0)
(-4.33551e-16 -1.95976e-16 0)
(-1.5899e-15 3.07869e-17 0)
(-2.39864e-15 -5.27636e-16 0)
(-2.91243e-15 -1.42537e-15 0)
(-4.86083e-15 -1.92452e-15 0)
(-6.86786e-15 -2.50741e-15 0)
(-7.75505e-15 -2.64264e-15 0)
(-8.52697e-15 -2.65635e-15 0)
(-8.26934e-15 -3.45107e-15 0)
(-8.16083e-15 -4.17121e-15 0)
(-9.05484e-15 -4.53389e-15 0)
(-9.5816e-15 -3.54457e-15 0)
(-9.50406e-15 -1.71335e-15 0)
(-9.61741e-15 -6.33312e-16 0)
(-1.03785e-14 -8.52936e-17 0)
(-9.98144e-15 6.23285e-17 0)
(-8.45661e-15 -1.65846e-16 0)
(-6.95359e-15 -7.56801e-16 0)
(-5.20401e-15 -1.78419e-15 0)
(-3.01893e-15 -2.67326e-15 0)
(-5.0423e-16 -2.84122e-15 0)
(1.88863e-15 -2.62354e-15 0)
(4.20643e-15 -2.83581e-15 0)
(6.45622e-15 -3.17494e-15 0)
(7.61707e-15 -2.92361e-15 0)
(8.53985e-15 -1.98151e-15 0)
(9.99486e-15 -1.90276e-15 0)
(1.12391e-14 -2.04847e-15 0)
(1.3202e-14 -2.25104e-15 0)
(1.54903e-14 -2.20605e-15 0)
(1.74736e-14 -1.26428e-15 0)
(1.96593e-14 -1.5339e-15 0)
(2.13401e-14 -2.40034e-15 0)
(2.31206e-14 -2.63964e-15 0)
(2.53522e-14 -2.43949e-15 0)
(2.66266e-14 -1.9841e-15 0)
(2.78249e-14 -1.52549e-15 0)
(2.99288e-14 -9.58565e-17 0)
(3.35321e-14 1.09705e-15 0)
(3.85866e-14 1.56521e-15 0)
(4.28226e-14 1.44878e-15 0)
(4.61313e-14 1.46539e-15 0)
(4.85717e-14 1.2002e-15 0)
(5.03645e-14 6.30248e-16 0)
(5.26851e-14 1.43847e-16 0)
(5.58158e-14 8.74222e-17 0)
(5.86357e-14 4.50402e-16 0)
(6.06973e-14 1.13602e-15 0)
(6.26556e-14 1.12431e-15 0)
(6.4536e-14 1.69743e-15 0)
(6.66488e-14 2.71965e-15 0)
(6.83446e-14 3.53811e-15 0)
(6.93171e-14 4.02413e-15 0)
(7.02159e-14 4.32067e-15 0)
(7.08915e-14 4.96922e-15 0)
(7.11326e-14 6.09277e-15 0)
(7.22969e-14 6.55819e-15 0)
(7.31602e-14 7.01202e-15 0)
(7.25258e-14 7.11927e-15 0)
(7.15554e-14 6.59988e-15 0)
(7.03191e-14 6.11844e-15 0)
(6.88335e-14 6.42767e-15 0)
(6.81943e-14 7.22379e-15 0)
(6.86511e-14 7.86077e-15 0)
(6.98991e-14 7.47802e-15 0)
(7.17986e-14 6.94768e-15 0)
(7.24072e-14 6.8952e-15 0)
(7.13206e-14 6.9087e-15 0)
(7.01333e-14 7.43668e-15 0)
(6.87655e-14 7.67672e-15 0)
(6.72673e-14 8.23363e-15 0)
(6.71252e-14 8.78905e-15 0)
(6.73736e-14 8.59554e-15 0)
(6.61892e-14 8.84031e-15 0)
(6.43934e-14 8.49564e-15 0)
(6.25312e-14 8.01257e-15 0)
(5.98999e-14 7.89914e-15 0)
(5.73874e-14 7.73205e-15 0)
(5.53904e-14 8.1701e-15 0)
(5.37919e-14 8.91326e-15 0)
(5.25414e-14 9.49215e-15 0)
(5.1471e-14 9.05674e-15 0)
(5.08547e-14 8.36625e-15 0)
(5.00857e-14 8.03853e-15 0)
(4.8782e-14 7.72783e-15 0)
(4.68976e-14 7.85106e-15 0)
(4.48038e-14 7.87099e-15 0)
(4.29793e-14 7.61558e-15 0)
(4.08835e-14 7.00186e-15 0)
(3.85854e-14 6.59411e-15 0)
(3.67692e-14 6.32556e-15 0)
(3.54648e-14 5.18696e-15 0)
(3.38283e-14 4.74667e-15 0)
(3.14227e-14 4.8676e-15 0)
(2.84836e-14 4.17022e-15 0)
(2.49546e-14 2.59253e-15 0)
(2.07612e-14 1.50397e-15 0)
(1.57584e-14 9.42298e-16 0)
(9.72849e-15 7.66041e-16 0)
(3.21754e-15 2.1661e-16 0)
(-3.84191e-16 -2.12836e-16 0)
(-1.94387e-15 -6.35199e-17 0)
(-3.64085e-15 -8.29856e-16 0)
(-4.5312e-15 -1.8621e-15 0)
(-6.69842e-15 -2.74052e-15 0)
(-9.12716e-15 -3.11661e-15 0)
(-1.01231e-14 -3.59959e-15 0)
(-1.11141e-14 -3.57213e-15 0)
(-1.14812e-14 -4.26866e-15 0)
(-1.14947e-14 -5.51366e-15 0)
(-1.17985e-14 -5.70385e-15 0)
(-1.17844e-14 -4.46361e-15 0)
(-1.18527e-14 -2.73106e-15 0)
(-1.2249e-14 -2.0488e-15 0)
(-1.30358e-14 -1.26321e-15 0)
(-1.28188e-14 -5.9143e-16 0)
(-1.1244e-14 -4.10587e-16 0)
(-9.50584e-15 -8.90031e-16 0)
(-7.17811e-15 -2.15935e-15 0)
(-4.06747e-15 -2.95192e-15 0)
(-6.50316e-16 -3.57865e-15 0)
(2.58283e-15 -3.97111e-15 0)
(5.50966e-15 -4.35286e-15 0)
(8.45005e-15 -3.99383e-15 0)
(1.06293e-14 -3.44868e-15 0)
(1.20454e-14 -2.51199e-15 0)
(1.37606e-14 -2.67002e-15 0)
(1.56009e-14 -2.96331e-15 0)
(1.81639e-14 -2.58347e-15 0)
(2.1303e-14 -2.33646e-15 0)
(2.39711e-14 -2.0778e-15 0)
(2.64393e-14 -2.20334e-15 0)
(2.86119e-14 -2.73179e-15 0)
(3.12972e-14 -3.329e-15 0)
(3.45212e-14 -3.26908e-15 0)
(3.6794e-14 -3.06128e-15 0)
(3.90284e-14 -2.23878e-15 0)
(4.21686e-14 -1.09812e-15 0)
(4.67139e-14 4.00657e-16 0)
(5.26202e-14 1.37301e-15 0)
(5.80844e-14 1.74966e-15 0)
(6.23166e-14 2.01891e-15 0)
(6.52755e-14 1.43714e-15 0)
(6.80649e-14 8.2462e-16 0)
(7.15879e-14 7.45524e-16 0)
(7.59223e-14 9.04404e-16 0)
(7.98144e-14 9.02666e-16 0)
(8.23678e-14 1.40473e-15 0)
(8.49468e-14 2.05364e-15 0)
(8.80303e-14 2.83905e-15 0)
(9.09595e-14 4.03195e-15 0)
(9.29812e-14 5.15054e-15 0)
(9.41529e-14 5.97169e-15 0)
(9.53541e-14 6.35483e-15 0)
(9.66111e-14 7.01373e-15 0)
(9.71233e-14 7.92214e-15 0)
(9.82363e-14 8.92013e-15 0)
(9.90792e-14 9.25363e-15 0)
(9.81818e-14 9.38759e-15 0)
(9.67309e-14 9.0449e-15 0)
(9.54922e-14 8.59519e-15 0)
(9.44471e-14 8.83446e-15 0)
(9.36754e-14 9.64418e-15 0)
(9.37617e-14 1.0192e-14 0)
(9.49913e-14 1.04543e-14 0)
(9.69569e-14 1.00895e-14 0)
(9.76286e-14 9.53976e-15 0)
(9.68047e-14 9.36307e-15 0)
(9.55024e-14 1.01062e-14 0)
(9.36839e-14 1.05272e-14 0)
(9.20766e-14 1.1062e-14 0)
(9.14809e-14 1.17802e-14 0)
(9.11043e-14 1.20494e-14 0)
(8.94574e-14 1.18503e-14 0)
(8.7095e-14 1.13448e-14 0)
(8.47257e-14 1.09939e-14 0)
(8.13865e-14 1.05844e-14 0)
(7.82384e-14 1.04844e-14 0)
(7.60265e-14 1.08526e-14 0)
(7.39946e-14 1.19119e-14 0)
(7.191e-14 1.27035e-14 0)
(6.99258e-14 1.26521e-14 0)
(6.86487e-14 1.21468e-14 0)
(6.76759e-14 1.12734e-14 0)
(6.60325e-14 1.10416e-14 0)
(6.35568e-14 1.06201e-14 0)
(6.08516e-14 1.05115e-14 0)
(5.8221e-14 1.02359e-14 0)
(5.53121e-14 9.66216e-15 0)
(5.23758e-14 9.1953e-15 0)
(4.9607e-14 8.5302e-15 0)
(4.73923e-14 7.58878e-15 0)
(4.53482e-14 6.6242e-15 0)
(4.19881e-14 6.45502e-15 0)
(3.74575e-14 5.62334e-15 0)
(3.24081e-14 3.77034e-15 0)
(2.69043e-14 2.14232e-15 0)
(2.05442e-14 1.198e-15 0)
(1.26896e-14 8.79572e-16 0)
(4.23006e-15 2.82343e-16 0)
(-3.2944e-16 -2.98615e-16 0)
(-2.36582e-15 -5.0407e-16 0)
(-4.69383e-15 -1.40901e-15 0)
(-6.03876e-15 -2.37832e-15 0)
(-8.3916e-15 -3.2261e-15 0)
(-1.09822e-14 -3.37744e-15 0)
(-1.22281e-14 -3.97535e-15 0)
(-1.3594e-14 -4.42598e-15 0)
(-1.46159e-14 -5.40038e-15 0)
(-1.45133e-14 -6.56415e-15 0)
(-1.40409e-14 -6.46332e-15 0)
(-1.35568e-14 -5.33487e-15 0)
(-1.40307e-14 -4.28323e-15 0)
(-1.47057e-14 -3.49286e-15 0)
(-1.51519e-14 -2.84822e-15 0)
(-1.46477e-14 -1.80372e-15 0)
(-1.31484e-14 -7.00868e-16 0)
(-1.16987e-14 -9.22173e-16 0)
(-9.06932e-15 -2.1039e-15 0)
(-5.23992e-15 -3.21735e-15 0)
(-1.15573e-15 -4.2158e-15 0)
(2.79097e-15 -5.0686e-15 0)
(6.98317e-15 -5.67403e-15 0)
(1.10761e-14 -4.65598e-15 0)
(1.37056e-14 -3.96279e-15 0)
(1.51907e-14 -3.25119e-15 0)
(1.69099e-14 -3.43476e-15 0)
(1.97188e-14 -4.00534e-15 0)
(2.32789e-14 -3.37176e-15 0)
(2.67485e-14 -2.7612e-15 0)
(2.98657e-14 -2.83004e-15 0)
(3.295e-14 -3.07194e-15 0)
(3.56166e-14 -3.37114e-15 0)
(3.90645e-14 -3.57491e-15 0)
(4.31336e-14 -3.55493e-15 0)
(4.6255e-14 -3.82128e-15 0)
(4.9548e-14 -2.84954e-15 0)
(5.38899e-14 -1.50859e-15 0)
(5.96015e-14 6.58487e-17 0)
(6.63369e-14 1.48311e-15 0)
(7.24794e-14 1.76947e-15 0)
(7.7273e-14 1.66978e-15 0)
(8.10025e-14 1.40834e-15 0)
(8.49364e-14 1.56936e-15 0)
(8.95353e-14 1.92365e-15 0)
(9.43898e-14 1.88295e-15 0)
(9.90231e-14 1.35634e-15 0)
(1.0302e-13 1.77215e-15 0)
(1.06574e-13 3.10055e-15 0)
(1.10133e-13 4.2742e-15 0)
(1.13671e-13 5.37646e-15 0)
(1.16135e-13 6.39401e-15 0)
(1.17419e-13 7.51554e-15 0)
(1.18884e-13 8.30733e-15 0)
(1.20503e-13 9.05934e-15 0)
(1.21494e-13 9.622e-15 0)
(1.22687e-13 1.08216e-14 0)
(1.23208e-13 1.11117e-14 0)
(1.2211e-13 1.13161e-14 0)
(1.20463e-13 1.12101e-14 0)
(1.19228e-13 1.1061e-14 0)
(1.18264e-13 1.13013e-14 0)
(1.17671e-13 1.15954e-14 0)
(1.17878e-13 1.20275e-14 0)
(1.18801e-13 1.2256e-14 0)
(1.20351e-13 1.21314e-14 0)
(1.21041e-13 1.16722e-14 0)
(1.20558e-13 1.17243e-14 0)
(1.19288e-13 1.2477e-14 0)
(1.17149e-13 1.3042e-14 0)
(1.15282e-13 1.37254e-14 0)
(1.14454e-13 1.46631e-14 0)
(1.13503e-13 1.50564e-14 0)
(1.11052e-13 1.46812e-14 0)
(1.08213e-13 1.41628e-14 0)
(1.0523e-13 1.37787e-14 0)
(1.0141e-13 1.30081e-14 0)
(9.80734e-14 1.2954e-14 0)
(9.56475e-14 1.36295e-14 0)
(9.32851e-14 1.47462e-14 0)
(9.03403e-14 1.54421e-14 0)
(8.75092e-14 1.57158e-14 0)
(8.54517e-14 1.54296e-14 0)
(8.39867e-14 1.48123e-14 0)
(8.1969e-14 1.4332e-14 0)
(7.8989e-14 1.36799e-14 0)
(7.57718e-14 1.32492e-14 0)
(7.23375e-14 1.28607e-14 0)
(6.8746e-14 1.21448e-14 0)
(6.49657e-14 1.14154e-14 0)
(6.14113e-14 1.03493e-14 0)
(5.84294e-14 9.58732e-15 0)
(5.57163e-14 8.31924e-15 0)
(5.15711e-14 7.52274e-15 0)
(4.53014e-14 6.5875e-15 0)
(3.86717e-14 4.82976e-15 0)
(3.21381e-14 2.60289e-15 0)
(2.47254e-14 1.34502e-15 0)
(1.53629e-14 7.71964e-16 0)
(4.98994e-15 2.61388e-16 0)
(-4.09333e-16 -3.60069e-16 0)
(-2.8225e-15 -1.35257e-15 0)
(-5.73128e-15 -1.98562e-15 0)
(-7.28655e-15 -2.80196e-15 0)
(-9.61354e-15 -3.66834e-15 0)
(-1.25908e-14 -3.94247e-15 0)
(-1.44094e-14 -4.44335e-15 0)
(-1.61389e-14 -5.4659e-15 0)
(-1.7409e-14 -6.24354e-15 0)
(-1.69908e-14 -7.03016e-15 0)
(-1.59621e-14 -7.06501e-15 0)
(-1.55215e-14 -6.30713e-15 0)
(-1.59287e-14 -5.72833e-15 0)
(-1.65062e-14 -4.66919e-15 0)
(-1.68017e-14 -3.96705e-15 0)
(-1.57452e-14 -2.70727e-15 0)
(-1.43943e-14 -1.51522e-15 0)
(-1.34666e-14 -1.65833e-15 0)
(-1.08176e-14 -2.55223e-15 0)
(-6.51593e-15 -3.69163e-15 0)
(-1.77228e-15 -4.87704e-15 0)
(2.94016e-15 -5.3387e-15 0)
(8.4118e-15 -5.30541e-15 0)
(1.33998e-14 -5.08964e-15 0)
(1.63884e-14 -4.76158e-15 0)
(1.82054e-14 -4.56962e-15 0)
(2.00664e-14 -4.91688e-15 0)
(2.36183e-14 -5.07191e-15 0)
(2.81952e-14 -4.33711e-15 0)
(3.20201e-14 -3.65692e-15 0)
(3.53405e-14 -3.61566e-15 0)
(3.8954e-14 -3.91934e-15 0)
(4.24183e-14 -4.17428e-15 0)
(4.6562e-14 -4.11388e-15 0)
(5.09785e-14 -4.38861e-15 0)
(5.52484e-14 -4.59632e-15 0)
(6.00896e-14 -3.09628e-15 0)
(6.53337e-14 -1.05128e-15 0)
(7.18874e-14 2.24595e-16 0)
(7.89734e-14 1.38865e-15 0)
(8.54323e-14 1.40407e-15 0)
(9.12404e-14 1.27863e-15 0)
(9.62082e-14 1.43176e-15 0)
(1.01139e-13 2.34111e-15 0)
(1.06124e-13 3.02335e-15 0)
(1.11353e-13 3.27957e-15 0)
(1.17036e-13 2.91159e-15 0)
(1.22317e-13 3.1478e-15 0)
(1.26735e-13 3.84666e-15 0)
(1.30837e-13 5.13259e-15 0)
(1.34733e-13 6.44915e-15 0)
(1.37724e-13 7.61579e-15 0)
(1.39537e-13 8.91566e-15 0)
(1.41134e-13 1.00329e-14 0)
(1.42776e-13 1.09968e-14 0)
(1.44086e-13 1.15567e-14 0)
(1.45381e-13 1.22972e-14 0)
(1.45737e-13 1.24662e-14 0)
(1.44606e-13 1.27989e-14 0)
(1.42764e-13 1.29114e-14 0)
(1.41532e-13 1.31451e-14 0)
(1.40571e-13 1.35278e-14 0)
(1.39823e-13 1.36177e-14 0)
(1.39919e-13 1.34708e-14 0)
(1.40894e-13 1.34009e-14 0)
(1.42447e-13 1.32478e-14 0)
(1.43159e-13 1.28721e-14 0)
(1.42942e-13 1.33281e-14 0)
(1.4159e-13 1.41402e-14 0)
(1.39211e-13 1.50425e-14 0)
(1.37352e-13 1.63842e-14 0)
(1.36028e-13 1.7437e-14 0)
(1.34122e-13 1.76468e-14 0)
(1.31113e-13 1.70424e-14 0)
(1.27882e-13 1.64992e-14 0)
(1.2429e-13 1.61849e-14 0)
(1.20032e-13 1.56587e-14 0)
(1.1676e-13 1.54976e-14 0)
(1.14287e-13 1.61322e-14 0)
(1.11267e-13 1.72195e-14 0)
(1.07677e-13 1.78929e-14 0)
(1.04137e-13 1.85401e-14 0)
(1.01359e-13 1.85802e-14 0)
(9.93448e-14 1.81578e-14 0)
(9.66808e-14 1.73505e-14 0)
(9.31497e-14 1.66036e-14 0)
(8.94856e-14 1.59176e-14 0)
(8.54389e-14 1.54982e-14 0)
(8.10043e-14 1.46686e-14 0)
(7.64771e-14 1.36039e-14 0)
(7.23126e-14 1.24309e-14 0)
(6.84907e-14 1.12944e-14 0)
(6.48074e-14 9.77914e-15 0)
(5.98877e-14 8.29437e-15 0)
(5.25997e-14 7.00241e-15 0)
(4.4218e-14 5.3811e-15 0)
(3.63347e-14 3.16482e-15 0)
(2.81421e-14 1.64034e-15 0)
(1.7584e-14 4.42825e-16 0)
(5.82085e-15 2.8783e-17 0)
(-8.01259e-16 -4.56302e-16 0)
(-3.35079e-15 -2.06931e-15 0)
(-6.18071e-15 -2.62141e-15 0)
(-8.36377e-15 -3.32654e-15 0)
(-1.09984e-14 -4.4221e-15 0)
(-1.39648e-14 -4.89497e-15 0)
(-1.63169e-14 -5.06239e-15 0)
(-1.83414e-14 -5.98778e-15 0)
(-1.95691e-14 -6.50077e-15 0)
(-1.92522e-14 -6.76464e-15 0)
(-1.79295e-14 -7.11175e-15 0)
(-1.71913e-14 -7.35679e-15 0)
(-1.74976e-14 -7.05014e-15 0)
(-1.79684e-14 -5.8378e-15 0)
(-1.7987e-14 -4.873e-15 0)
(-1.66728e-14 -3.55511e-15 0)
(-1.55895e-14 -2.82546e-15 0)
(-1.49185e-14 -2.88394e-15 0)
(-1.21613e-14 -3.59134e-15 0)
(-7.60543e-15 -4.22588e-15 0)
(-2.01598e-15 -4.87369e-15 0)
(3.87515e-15 -5.26546e-15 0)
(9.61185e-15 -5.04586e-15 0)
(1.49356e-14 -5.76643e-15 0)
(1.85358e-14 -5.93481e-15 0)
(2.05185e-14 -6.35785e-15 0)
(2.30026e-14 -6.61953e-15 0)
(2.76527e-14 -5.98907e-15 0)
(3.29058e-14 -5.34571e-15 0)
(3.6989e-14 -4.97935e-15 0)
(4.05553e-14 -4.66522e-15 0)
(4.46207e-14 -4.9447e-15 0)
(4.87439e-14 -5.02182e-15 0)
(5.336e-14 -5.07581e-15 0)
(5.84401e-14 -5.2557e-15 0)
(6.41372e-14 -4.76136e-15 0)
(7.04693e-14 -3.61225e-15 0)
(7.61971e-14 -1.72399e-15 0)
(8.29963e-14 1.30188e-16 0)
(9.06566e-14 1.02709e-15 0)
(9.7709e-14 1.30846e-15 0)
(1.04388e-13 1.52219e-15 0)
(1.10558e-13 2.20885e-15 0)
(1.16461e-13 3.24856e-15 0)
(1.22081e-13 4.29803e-15 0)
(1.27593e-13 5.08407e-15 0)
(1.33561e-13 4.67455e-15 0)
(1.3961e-13 4.1471e-15 0)
(1.45121e-13 4.57913e-15 0)
(1.50227e-13 6.30476e-15 0)
(1.54672e-13 7.78979e-15 0)
(1.58005e-13 9.27862e-15 0)
(1.6001e-13 1.03831e-14 0)
(1.61865e-13 1.16852e-14 0)
(1.63606e-13 1.2878e-14 0)
(1.64871e-13 1.31583e-14 0)
(1.6612e-13 1.36471e-14 0)
(1.66563e-13 1.39317e-14 0)
(1.65505e-13 1.41345e-14 0)
(1.63733e-13 1.4136e-14 0)
(1.62561e-13 1.46751e-14 0)
(1.61347e-13 1.50644e-14 0)
(1.60283e-13 1.50541e-14 0)
(1.60379e-13 1.49392e-14 0)
(1.61347e-13 1.47645e-14 0)
(1.62674e-13 1.42138e-14 0)
(1.63698e-13 1.40292e-14 0)
(1.63838e-13 1.46785e-14 0)
(1.62533e-13 1.55766e-14 0)
(1.60345e-13 1.66552e-14 0)
(1.58111e-13 1.80701e-14 0)
(1.55945e-13 1.92179e-14 0)
(1.53213e-13 1.95149e-14 0)
(1.49544e-13 1.88161e-14 0)
(1.4613e-13 1.82067e-14 0)
(1.42247e-13 1.8299e-14 0)
(1.37539e-13 1.83338e-14 0)
(1.34029e-13 1.8515e-14 0)
(1.31526e-13 1.88899e-14 0)
(1.28265e-13 1.95465e-14 0)
(1.24137e-13 2.0063e-14 0)
(1.20015e-13 2.08595e-14 0)
(1.16337e-13 2.11835e-14 0)
(1.13373e-13 2.05252e-14 0)
(1.10173e-13 1.95761e-14 0)
(1.06265e-13 1.91337e-14 0)
(1.0221e-13 1.86605e-14 0)
(9.75336e-14 1.80643e-14 0)
(9.22672e-14 1.7111e-14 0)
(8.69713e-14 1.57069e-14 0)
(8.20364e-14 1.43267e-14 0)
(7.73795e-14 1.28217e-14 0)
(7.28466e-14 1.11843e-14 0)
(6.71243e-14 9.47652e-15 0)
(5.87916e-14 7.37071e-15 0)
(4.925e-14 5.49672e-15 0)
(4.02678e-14 3.83072e-15 0)
(3.08273e-14 1.78402e-15 0)
(1.92999e-14 2.66187e-16 0)
(6.6317e-15 -4.91927e-17 0)
(-1.18693e-15 -5.66267e-16 0)
(-3.9024e-15 -2.23189e-15 0)
(-6.76674e-15 -3.06322e-15 0)
(-9.35918e-15 -4.16488e-15 0)
(-1.21422e-14 -4.94187e-15 0)
(-1.50225e-14 -5.41437e-15 0)
(-1.76891e-14 -5.68381e-15 0)
(-2.01081e-14 -6.17623e-15 0)
(-2.12562e-14 -6.68063e-15 0)
(-2.10204e-14 -6.87026e-15 0)
(-2.02183e-14 -7.31424e-15 0)
(-1.94482e-14 -8.30522e-15 0)
(-1.88142e-14 -8.14935e-15 0)
(-1.87984e-14 -6.982e-15 0)
(-1.87623e-14 -5.7286e-15 0)
(-1.74795e-14 -4.60718e-15 0)
(-1.66023e-14 -4.15975e-15 0)
(-1.6072e-14 -3.96436e-15 0)
(-1.30897e-14 -4.43032e-15 0)
(-7.911e-15 -4.77979e-15 0)
(-2.0965e-15 -5.05099e-15 0)
(4.1835e-15 -5.99056e-15 0)
(1.03535e-14 -5.8803e-15 0)
(1.59881e-14 -6.72674e-15 0)
(2.012e-14 -7.61676e-15 0)
(2.28004e-14 -8.1871e-15 0)
(2.63879e-14 -7.79268e-15 0)
(3.15814e-14 -6.80009e-15 0)
(3.69703e-14 -6.17615e-15 0)
(4.15952e-14 -5.84577e-15 0)
(4.55191e-14 -5.71425e-15 0)
(4.99477e-14 -6.19181e-15 0)
(5.469e-14 -6.57565e-15 0)
(5.98828e-14 -6.54176e-15 0)
(6.586e-14 -6.00557e-15 0)
(7.23246e-14 -4.81718e-15 0)
(7.95009e-14 -3.95481e-15 0)
(8.66954e-14 -2.62522e-15 0)
(9.40754e-14 1.45847e-16 0)
(1.01641e-13 1.38365e-15 0)
(1.09247e-13 1.57917e-15 0)
(1.1696e-13 1.7205e-15 0)
(1.24072e-13 2.93436e-15 0)
(1.30731e-13 4.19205e-15 0)
(1.36918e-13 5.5526e-15 0)
(1.42395e-13 6.43933e-15 0)
(1.48359e-13 6.53116e-15 0)
(1.55431e-13 5.99801e-15 0)
(1.62598e-13 6.53709e-15 0)
(1.6848e-13 7.73786e-15 0)
(1.73115e-13 8.82952e-15 0)
(1.76639e-13 1.0362e-14 0)
(1.79021e-13 1.16668e-14 0)
(1.81284e-13 1.33967e-14 0)
(1.82676e-13 1.44595e-14 0)
(1.83878e-13 1.46077e-14 0)
(1.85493e-13 1.49912e-14 0)
(1.8585e-13 1.52533e-14 0)
(1.84611e-13 1.5226e-14 0)
(1.83017e-13 1.54243e-14 0)
(1.82005e-13 1.59037e-14 0)
(1.80556e-13 1.63784e-14 0)
(1.79379e-13 1.62858e-14 0)
(1.79333e-13 1.6098e-14 0)
(1.79978e-13 1.53209e-14 0)
(1.81475e-13 1.48594e-14 0)
(1.8294e-13 1.51415e-14 0)
(1.8329e-13 1.5838e-14 0)
(1.81936e-13 1.67201e-14 0)
(1.79549e-13 1.77664e-14 0)
(1.77305e-13 1.89682e-14 0)
(1.74679e-13 2.0337e-14 0)
(1.70875e-13 2.09934e-14 0)
(1.66578e-13 2.06301e-14 0)
(1.63213e-13 2.02988e-14 0)
(1.59287e-13 2.025e-14 0)
(1.54223e-13 2.04559e-14 0)
(1.50301e-13 2.10958e-14 0)
(1.4729e-13 2.16587e-14 0)
(1.43524e-13 2.1842e-14 0)
(1.39223e-13 2.22455e-14 0)
(1.34746e-13 2.27552e-14 0)
(1.30093e-13 2.31651e-14 0)
(1.26306e-13 2.26729e-14 0)
(1.22911e-13 2.16038e-14 0)
(1.18781e-13 2.13837e-14 0)
(1.13997e-13 2.11046e-14 0)
(1.08533e-13 2.02465e-14 0)
(1.02378e-13 1.89898e-14 0)
(9.63451e-14 1.733e-14 0)
(9.084e-14 1.56468e-14 0)
(8.54647e-14 1.40992e-14 0)
(8.01388e-14 1.23671e-14 0)
(7.32202e-14 1.04682e-14 0)
(6.39616e-14 7.93802e-15 0)
(5.38309e-14 6.09312e-15 0)
(4.35118e-14 4.11024e-15 0)
(3.28942e-14 1.57393e-15 0)
(2.08711e-14 1.51308e-16 0)
(7.36888e-15 -1.53858e-16 0)
(-1.44426e-15 -8.48915e-16 0)
(-4.34278e-15 -2.52799e-15 0)
(-7.39512e-15 -3.52267e-15 0)
(-1.01604e-14 -4.35762e-15 0)
(-1.29221e-14 -5.24136e-15 0)
(-1.60574e-14 -5.76086e-15 0)
(-1.89039e-14 -6.3529e-15 0)
(-2.1512e-14 -6.44714e-15 0)
(-2.28607e-14 -6.80048e-15 0)
(-2.27784e-14 -7.95192e-15 0)
(-2.22539e-14 -8.43005e-15 0)
(-2.11974e-14 -8.63794e-15 0)
(-1.99336e-14 -8.44158e-15 0)
(-1.94948e-14 -7.79273e-15 0)
(-1.93198e-14 -6.60281e-15 0)
(-1.82461e-14 -5.75941e-15 0)
(-1.73728e-14 -5.4548e-15 0)
(-1.6797e-14 -4.8446e-15 0)
(-1.37761e-14 -4.55744e-15 0)
(-8.3418e-15 -5.41188e-15 0)
(-2.3968e-15 -6.32617e-15 0)
(4.6007e-15 -7.32982e-15 0)
(1.12497e-14 -7.52083e-15 0)
(1.66871e-14 -8.08028e-15 0)
(2.13432e-14 -8.97838e-15 0)
(2.51337e-14 -9.07869e-15 0)
(2.96481e-14 -8.51157e-15 0)
(3.53706e-14 -7.74448e-15 0)
(4.10671e-14 -7.0049e-15 0)
(4.57488e-14 -6.52814e-15 0)
(4.97115e-14 -6.69718e-15 0)
(5.44129e-14 -7.62031e-15 0)
(5.99458e-14 -8.41482e-15 0)
(6.62944e-14 -8.07247e-15 0)
(7.33152e-14 -6.91522e-15 0)
(8.03989e-14 -5.09826e-15 0)
(8.80569e-14 -3.479e-15 0)
(9.65003e-14 -1.99814e-15 0)
(1.0463e-13 -7.14788e-17 0)
(1.11853e-13 1.22321e-15 0)
(1.1957e-13 1.76616e-15 0)
(1.28445e-13 2.53437e-15 0)
(1.36832e-13 3.81976e-15 0)
(1.44181e-13 5.59786e-15 0)
(1.50805e-13 6.83538e-15 0)
(1.56597e-13 7.6116e-15 0)
(1.62669e-13 8.32571e-15 0)
(1.70123e-13 8.36494e-15 0)
(1.77911e-13 8.68553e-15 0)
(1.84347e-13 9.16804e-15 0)
(1.89873e-13 1.01347e-14 0)
(1.9411e-13 1.15352e-14 0)
(1.96914e-13 1.31603e-14 0)
(1.99152e-13 1.47307e-14 0)
(2.00198e-13 1.51008e-14 0)
(2.01346e-13 1.57812e-14 0)
(2.02974e-13 1.59927e-14 0)
(2.03319e-13 1.58931e-14 0)
(2.02328e-13 1.59546e-14 0)
(2.00963e-13 1.64899e-14 0)
(1.99973e-13 1.70072e-14 0)
(1.98293e-13 1.73597e-14 0)
(1.96698e-13 1.74404e-14 0)
(1.96257e-13 1.67388e-14 0)
(1.96983e-13 1.56495e-14 0)
(1.99013e-13 1.51659e-14 0)
(2.00751e-13 1.56049e-14 0)
(2.01121e-13 1.65725e-14 0)
(1.99788e-13 1.74956e-14 0)
(1.97489e-13 1.86854e-14 0)
(1.95094e-13 2.00826e-14 0)
(1.9208e-13 2.11049e-14 0)
(1.8757e-13 2.17461e-14 0)
(1.82604e-13 2.21663e-14 0)
(1.78775e-13 2.20352e-14 0)
(1.74572e-13 2.16263e-14 0)
(1.69604e-13 2.17431e-14 0)
(1.65564e-13 2.28705e-14 0)
(1.61933e-13 2.3616e-14 0)
(1.57779e-13 2.3972e-14 0)
(1.53134e-13 2.44333e-14 0)
(1.48265e-13 2.45763e-14 0)
(1.43089e-13 2.49706e-14 0)
(1.38249e-13 2.49053e-14 0)
(1.34417e-13 2.40132e-14 0)
(1.30209e-13 2.34887e-14 0)
(1.2475e-13 2.28005e-14 0)
(1.18365e-13 2.15977e-14 0)
(1.11459e-13 2.03763e-14 0)
(1.04733e-13 1.87948e-14 0)
(9.86882e-14 1.69518e-14 0)
(9.27075e-14 1.51816e-14 0)
(8.65099e-14 1.31534e-14 0)
(7.86508e-14 1.08107e-14 0)
(6.86399e-14 8.38899e-15 0)
(5.75949e-14 6.4223e-15 0)
(4.60003e-14 4.0504e-15 0)
(3.46697e-14 1.72203e-15 0)
(2.228e-14 1.32821e-16 0)
(8.15137e-15 -1.2621e-16 0)
(-1.62957e-15 -1.12623e-15 0)
(-4.65642e-15 -2.84254e-15 0)
(-7.59529e-15 -3.93939e-15 0)
(-1.07225e-14 -4.26823e-15 0)
(-1.3834e-14 -5.22192e-15 0)
(-1.70066e-14 -6.08828e-15 0)
(-1.98085e-14 -6.50056e-15 0)
(-2.24372e-14 -6.8505e-15 0)
(-2.46841e-14 -7.28156e-15 0)
(-2.47966e-14 -8.52628e-15 0)
(-2.34869e-14 -9.14965e-15 0)
(-2.23259e-14 -8.93261e-15 0)
(-2.10727e-14 -8.82039e-15 0)
(-2.02336e-14 -8.65371e-15 0)
(-1.98536e-14 -7.63114e-15 0)
(-1.89134e-14 -6.80557e-15 0)
(-1.77969e-14 -6.23402e-15 0)
(-1.67767e-14 -5.83085e-15 0)
(-1.42899e-14 -5.35871e-15 0)
(-9.3486e-15 -6.29389e-15 0)
(-2.9476e-15 -7.58213e-15 0)
(4.59627e-15 -8.39691e-15 0)
(1.18472e-14 -9.44248e-15 0)
(1.77292e-14 -9.78707e-15 0)
(2.29763e-14 -1.03077e-14 0)
(2.75247e-14 -1.02356e-14 0)
(3.25579e-14 -9.36106e-15 0)
(3.87069e-14 -8.62987e-15 0)
(4.47352e-14 -7.9925e-15 0)
(4.95712e-14 -7.55388e-15 0)
(5.33713e-14 -7.84138e-15 0)
(5.82701e-14 -8.83275e-15 0)
(6.4896e-14 -9.28107e-15 0)
(7.25038e-14 -8.52124e-15 0)
(8.05813e-14 -7.33462e-15 0)
(8.84504e-14 -5.38787e-15 0)
(9.65058e-14 -3.4473e-15 0)
(1.05121e-13 -1.25167e-15 0)
(1.13621e-13 1.5723e-16 0)
(1.21468e-13 1.1844e-15 0)
(1.3e-13 2.18499e-15 0)
(1.39559e-13 3.92524e-15 0)
(1.48677e-13 5.29964e-15 0)
(1.56517e-13 7.31621e-15 0)
(1.63132e-13 8.43776e-15 0)
(1.69332e-13 8.92757e-15 0)
(1.75803e-13 9.61363e-15 0)
(1.83569e-13 1.00011e-14 0)
(1.91977e-13 1.03667e-14 0)
(1.99177e-13 1.09781e-14 0)
(2.05253e-13 1.21852e-14 0)
(2.09946e-13 1.31976e-14 0)
(2.13053e-13 1.43534e-14 0)
(2.1491e-13 1.52549e-14 0)
(2.16083e-13 1.52598e-14 0)
(2.17523e-13 1.62221e-14 0)
(2.1884e-13 1.6524e-14 0)
(2.19284e-13 1.63514e-14 0)
(2.18632e-13 1.6467e-14 0)
(2.17429e-13 1.68162e-14 0)
(2.16289e-13 1.72448e-14 0)
(2.14498e-13 1.74559e-14 0)
(2.12512e-13 1.76171e-14 0)
(2.11566e-13 1.71621e-14 0)
(2.12317e-13 1.65878e-14 0)
(2.14849e-13 1.60515e-14 0)
(2.17243e-13 1.62282e-14 0)
(2.17753e-13 1.7292e-14 0)
(2.16306e-13 1.8312e-14 0)
(2.13956e-13 1.96931e-14 0)
(2.11228e-13 2.07922e-14 0)
(2.07636e-13 2.16803e-14 0)
(2.02928e-13 2.21265e-14 0)
(1.97545e-13 2.27759e-14 0)
(1.92992e-13 2.25792e-14 0)
(1.88615e-13 2.20774e-14 0)
(1.84005e-13 2.27468e-14 0)
(1.79848e-13 2.44167e-14 0)
(1.75563e-13 2.53788e-14 0)
(1.70886e-13 2.62155e-14 0)
(1.65733e-13 2.66117e-14 0)
(1.6051e-13 2.65229e-14 0)
(1.54996e-13 2.62676e-14 0)
(1.49529e-13 2.61039e-14 0)
(1.45027e-13 2.5734e-14 0)
(1.40234e-13 2.51045e-14 0)
(1.34091e-13 2.43733e-14 0)
(1.27322e-13 2.29586e-14 0)
(1.19918e-13 2.20106e-14 0)
(1.12394e-13 2.04251e-14 0)
(1.05641e-13 1.85274e-14 0)
(9.89306e-14 1.64231e-14 0)
(9.18776e-14 1.40563e-14 0)
(8.32374e-14 1.11304e-14 0)
(7.2679e-14 8.55267e-15 0)
(6.08511e-14 6.4246e-15 0)
(4.83666e-14 3.94656e-15 0)
(3.62559e-14 1.93827e-15 0)
(2.35025e-14 4.86328e-16 0)
(8.85778e-15 2.44301e-16 0)
(-1.74972e-15 -9.00201e-16 0)
(-4.90336e-15 -2.56169e-15 0)
(-7.65942e-15 -3.95252e-15 0)
(-1.09174e-14 -4.30909e-15 0)
(-1.46044e-14 -5.06226e-15 0)
(-1.78159e-14 -6.01115e-15 0)
(-2.0701e-14 -6.59891e-15 0)
(-2.3683e-14 -7.46191e-15 0)
(-2.59895e-14 -8.16379e-15 0)
(-2.62857e-14 -8.72654e-15 0)
(-2.48558e-14 -9.25098e-15 0)
(-2.33524e-14 -9.38653e-15 0)
(-2.21355e-14 -9.16637e-15 0)
(-2.09467e-14 -9.41118e-15 0)
(-2.01127e-14 -8.97728e-15 0)
(-1.91031e-14 -8.02155e-15 0)
(-1.81844e-14 -7.1503e-15 0)
(-1.72454e-14 -7.02586e-15 0)
(-1.47022e-14 -7.14316e-15 0)
(-9.99784e-15 -7.75829e-15 0)
(-3.35348e-15 -8.61232e-15 0)
(4.46797e-15 -9.44255e-15 0)
(1.21325e-14 -1.08078e-14 0)
(1.86428e-14 -1.15273e-14 0)
(2.43063e-14 -1.18224e-14 0)
(2.98383e-14 -1.17266e-14 0)