/*--------------------------------*- C++ -*----------------------------------*\
| =========                 |                                                 |
| \\      /  F ield         | OpenFOAM: The Open Source CFD Toolbox           |
|  \\    /   O peration     | Version:  v2012                                 |
|   \\  /    A nd           | Website:  www.openfoam.com                      |
|    \\/     M anipulation  |                                                 |
\*---------------------------------------------------------------------------*/
FoamFile
{
    version     2.0;
    format      ascii;
    class       surfaceScalarField;
    location    "7.5";
    object      phi;
}
// * * * * * * * * * * * * * * * * * * * * * * * * * * * * * * * * * * * * * //

dimensions      [0 3 -1 0 0 0 0];
oriented        oriented;


internalField   nonuniform List<scalar> 
130560
(
3.72074e-06
-3.72074e-06
7.44144e-06
-3.7207e-06
1.11621e-05
-3.72061e-06
1.48825e-05
-3.72047e-06
1.86028e-05
-3.72028e-06
2.23228e-05
-3.72003e-06
2.60426e-05
-3.71973e-06
2.97619e-05
-3.71937e-06
3.34809e-05
-3.71893e-06
3.71993e-05
-3.71843e-06
4.09171e-05
-3.71784e-06
4.46343e-05
-3.71717e-06
4.83507e-05
-3.71639e-06
5.20662e-05
-3.71551e-06
5.57807e-05
-3.71451e-06
5.94941e-05
-3.71339e-06
6.32062e-05
-3.71212e-06
6.69169e-05
-3.7107e-06
7.0626e-05
-3.70912e-06
7.43334e-05
-3.70735e-06
7.80388e-05
-3.70539e-06
8.1742e-05
-3.70323e-06
8.54428e-05
-3.70084e-06
8.9141e-05
-3.6982e-06
9.28363e-05
-3.69531e-06
9.65285e-05
-3.69213e-06
0.000100217
-3.68867e-06
0.000103902
-3.68488e-06
0.000107583
-3.68076e-06
0.000111259
-3.67629e-06
0.000114931
-3.67144e-06
0.000118597
-3.66619e-06
0.000122257
-3.66051e-06
0.000125912
-3.6544e-06
0.000129559
-3.64782e-06
0.0001332
-3.64075e-06
0.000136833
-3.63316e-06
0.000140458
-3.62504e-06
0.000144075
-3.61635e-06
0.000147682
-3.60708e-06
0.000151279
-3.5972e-06
0.000154866
-3.58667e-06
0.000158441
-3.57549e-06
0.000162005
-3.56361e-06
0.000165556
-3.55102e-06
0.000169094
-3.5377e-06
0.000172617
-3.5236e-06
0.000176126
-3.50872e-06
0.000179619
-3.49302e-06
0.000183095
-3.47648e-06
0.000186554
-3.45907e-06
0.000189995
-3.44078e-06
0.000193417
-3.42157e-06
0.000196818
-3.40143e-06
0.000200199
-3.38032e-06
0.000203557
-3.35824e-06
0.000206892
-3.33515e-06
0.000210203
-3.31103e-06
0.000213489
-3.28588e-06
0.000216748
-3.25966e-06
0.000219981
-3.23235e-06
0.000223185
-3.20395e-06
0.000226359
-3.17444e-06
0.000229503
-3.1438e-06
0.000232615
-3.11201e-06
0.000235694
-3.07908e-06
0.000238739
-3.04497e-06
0.000241749
-3.0097e-06
0.000244722
-2.97324e-06
0.000247658
-2.93559e-06
0.000250554
-2.89675e-06
0.000253411
-2.85671e-06
0.000256227
-2.81548e-06
0.000259
-2.77305e-06
0.000261729
-2.72943e-06
0.000264414
-2.68461e-06
0.000267052
-2.63862e-06
0.000269644
-2.59144e-06
0.000272187
-2.5431e-06
0.00027468
-2.49361e-06
0.000277123
-2.44297e-06
0.000279515
-2.39121e-06
0.000281853
-2.33834e-06
0.000284137
-2.28439e-06
0.000286367
-2.22936e-06
0.00028854
-2.1733e-06
0.000290656
-2.11621e-06
0.000292714
-2.05813e-06
0.000294713
-1.99909e-06
0.000296653
-1.93912e-06
0.000298531
-1.87824e-06
0.000300347
-1.8165e-06
0.000302101
-1.75393e-06
0.000303792
-1.69056e-06
0.000305418
-1.62644e-06
0.00030698
-1.5616e-06
0.000308476
-1.49609e-06
0.000309906
-1.42994e-06
0.000311269
-1.3632e-06
0.000312565
-1.29592e-06
0.000313793
-1.22813e-06
0.000314953
-1.15989e-06
0.000316044
-1.09124e-06
0.000317066
-1.02223e-06
0.000318019
-9.52902e-07
0.000318903
-8.83311e-07
0.000319716
-8.13503e-07
0.00032046
-7.43526e-07
0.000321133
-6.73428e-07
0.000321736
-6.03259e-07
0.000322269
-5.33066e-07
0.000322732
-4.62898e-07
0.000323125
-3.92802e-07
0.000323448
-3.22826e-07
0.000323701
-2.53016e-07
0.000323884
-1.83419e-07
0.000323998
-1.14079e-07
0.000324044
-4.50419e-08
0.00032402
2.36496e-08
0.000323928
9.19526e-08
0.000323768
1.59826e-07
0.000323541
2.27228e-07
0.000323247
2.94121e-07
0.000322886
3.60466e-07
0.00032246
4.26227e-07
0.000321969
4.91369e-07
0.000321413
5.55857e-07
0.000320793
6.19659e-07
0.00032011
6.82744e-07
0.000319365
7.45083e-07
0.000318559
8.06648e-07
0.000317691
8.67412e-07
0.000316764
9.2735e-07
0.000315778
9.8644e-07
0.000314733
1.04466e-06
0.000313631
1.10199e-06
0.000312472
1.15841e-06
0.000311259
1.2139e-06
0.00030999
1.26845e-06
0.000308668
1.32205e-06
0.000307293
1.37468e-06
0.000305867
1.42633e-06
0.00030439
1.477e-06
0.000302863
1.52666e-06
0.000301288
1.57533e-06
0.000299665
1.62299e-06
0.000297995
1.66963e-06
0.00029628
1.71526e-06
0.00029452
1.75988e-06
0.000292717
1.80348e-06
0.000290871
1.84607e-06
0.000288983
1.88764e-06
0.000287055
1.9282e-06
0.000285087
1.96776e-06
0.000283081
2.00632e-06
0.000281037
2.04389e-06
0.000278956
2.08047e-06
0.00027684
2.11607e-06
0.00027469
2.1507e-06
0.000272505
2.18437e-06
0.000270288
2.2171e-06
0.000268039
2.24888e-06
0.00026576
2.27973e-06
0.00026345
2.30967e-06
0.000261111
2.33871e-06
0.000258744
2.36685e-06
0.00025635
2.39412e-06
0.00025393
2.42053e-06
0.000251484
2.44608e-06
0.000249013
2.47081e-06
0.000246518
2.49471e-06
0.000244
2.51781e-06
0.00024146
2.54012e-06
0.000238899
2.56166e-06
0.000236316
2.58244e-06
0.000233714
2.60248e-06
0.000231092
2.6218e-06
0.000228451
2.6404e-06
0.000225793
2.65832e-06
0.000223118
2.67555e-06
0.000220425
2.69213e-06
0.000217717
2.70806e-06
0.000214994
2.72336e-06
0.000212256
2.73805e-06
0.000209504
2.75214e-06
0.000206738
2.76565e-06
0.00020396
2.7786e-06
0.000201169
2.791e-06
0.000198366
2.80286e-06
0.000195551
2.81421e-06
0.000192726
2.82505e-06
0.000189891
2.8354e-06
0.000187046
2.84528e-06
0.000184191
2.85471e-06
0.000181327
2.86368e-06
0.000178455
2.87223e-06
0.000175575
2.88036e-06
0.000172687
2.8881e-06
0.000169791
2.89544e-06
0.000166889
2.90241e-06
0.00016398
2.90901e-06
0.000161065
2.91527e-06
0.000158143
2.9212e-06
0.000155217
2.92679e-06
0.000152284
2.93208e-06
0.000149347
2.93707e-06
0.000146406
2.94177e-06
0.000143459
2.9462e-06
0.000140509
2.95036e-06
0.000137555
2.95427e-06
0.000134597
2.95793e-06
0.000131635
2.96137e-06
0.000128671
2.96458e-06
0.000125703
2.96758e-06
0.000122733
2.97038e-06
0.00011976
2.97298e-06
0.000116785
2.9754e-06
0.000113807
2.97765e-06
0.000110827
2.97973e-06
0.000107846
2.98165e-06
0.000104862
2.98343e-06
0.000101877
2.98507e-06
9.88905e-05
2.98657e-06
9.59025e-05
2.98795e-06
9.29133e-05
2.98921e-06
8.9923e-05
2.99036e-06
8.69316e-05
2.9914e-06
8.39392e-05
2.99235e-06
8.0946e-05
2.99321e-06
7.7952e-05
2.99398e-06
7.49573e-05
2.99468e-06
7.1962e-05
2.9953e-06
6.89662e-05
2.99585e-06
6.59699e-05
2.99634e-06
6.29731e-05
2.99678e-06
5.99759e-05
2.99716e-06
5.69784e-05
2.99749e-06
5.39806e-05
2.99779e-06
5.09826e-05
2.99804e-06
4.79843e-05
2.99825e-06
4.49859e-05
2.99844e-06
4.19873e-05
2.9986e-06
3.89886e-05
2.99873e-06
3.59897e-05
2.99884e-06
3.29908e-05
2.99893e-06
2.99918e-05
2.999e-06
2.69928e-05
2.99906e-06
2.39937e-05
2.99911e-06
2.09945e-05
2.99914e-06
1.79953e-05
2.99917e-06
1.49961e-05
2.9992e-06
1.19969e-05
2.99921e-06
8.99771e-06
2.99922e-06
5.99848e-06
2.99923e-06
2.99924e-06
2.99924e-06
2.99924e-06
3.72079e-06
-7.44153e-06
7.44154e-06
-7.44144e-06
1.11622e-05
-7.44126e-06
1.48827e-05
-7.44098e-06
1.8603e-05
-7.44061e-06
2.23231e-05
-7.44012e-06
2.60429e-05
-7.43952e-06
2.97624e-05
-7.4388e-06
3.34814e-05
-7.43794e-06
3.71999e-05
-7.43694e-06
4.09178e-05
-7.43577e-06
4.46351e-05
-7.43443e-06
4.83516e-05
-7.43289e-06
5.20672e-05
-7.43114e-06
5.57818e-05
-7.42915e-06
5.94954e-05
-7.42691e-06
6.32076e-05
-7.42439e-06
6.69185e-05
-7.42157e-06
7.06278e-05
-7.41841e-06
7.43353e-05
-7.4149e-06
7.80409e-05
-7.411e-06
8.17444e-05
-7.40668e-06
8.54455e-05
-7.40191e-06
8.91439e-05
-7.39666e-06
9.28395e-05
-7.39089e-06
9.65319e-05
-7.38456e-06
0.000100221
-7.37765e-06
0.000103906
-7.3701e-06
0.000107587
-7.36188e-06
0.000111264
-7.35295e-06
0.000114936
-7.34327e-06
0.000118602
-7.33279e-06
0.000122263
-7.32147e-06
0.000125918
-7.30927e-06
0.000129566
-7.29613e-06
0.000133208
-7.28201e-06
0.000136841
-7.26686e-06
0.000140467
-7.25064e-06
0.000144084
-7.23329e-06
0.000147692
-7.21477e-06
0.00015129
-7.19503e-06
0.000154877
-7.17401e-06
0.000158453
-7.15166e-06
0.000162017
-7.12794e-06
0.000165569
-7.10279e-06
0.000169108
-7.07616e-06
0.000172632
-7.04799e-06
0.000176142
-7.01825e-06
0.000179635
-6.98688e-06
0.000183113
-6.95382e-06
0.000186573
-6.91904e-06
0.000190014
-6.88247e-06
0.000193437
-6.84408e-06
0.000196839
-6.80381e-06
0.000200221
-6.76163e-06
0.00020358
-6.71748e-06
0.000206916
-6.67132e-06
0.000210228
-6.62311e-06
0.000213515
-6.57281e-06
0.000216776
-6.52039e-06
0.000220009
-6.4658e-06
0.000223214
-6.40902e-06
0.00022639
-6.35001e-06
0.000229535
-6.28874e-06
0.000232648
-6.22518e-06
0.000235728
-6.15932e-06
0.000238774
-6.09112e-06
0.000241785
-6.02057e-06
0.00024476
-5.94766e-06
0.000247696
-5.87237e-06
0.000250594
-5.79469e-06
0.000253452
-5.71462e-06
0.000256269
-5.63216e-06
0.000259043
-5.5473e-06
0.000261774
-5.46004e-06
0.00026446
-5.37041e-06
0.000267099
-5.27841e-06
0.000269692
-5.18405e-06
0.000272236
-5.08736e-06
0.000274731
-4.98836e-06
0.000277175
-4.88707e-06
0.000279567
-4.78353e-06
0.000281907
-4.67778e-06
0.000284192
-4.56984e-06
0.000286423
-4.45977e-06
0.000288597
-4.34761e-06
0.000290714
-4.23341e-06
0.000292773
-4.11723e-06
0.000294773
-3.99911e-06
0.000296713
-3.87914e-06
0.000298592
-3.75735e-06
0.00030041
-3.63384e-06
0.000302165
-3.50866e-06
0.000303856
-3.38188e-06
0.000305483
-3.2536e-06
0.000307045
-3.12388e-06
0.000308542
-2.99281e-06
0.000309973
-2.86047e-06
0.000311336
-2.72695e-06
0.000312633
-2.59233e-06
0.000313861
-2.45671e-06
0.000315022
-2.32018e-06
0.000316113
-2.18284e-06
0.000317136
-2.04477e-06
0.000318089
-1.90607e-06
0.000318972
-1.76684e-06
0.000319786
-1.62717e-06
0.00032053
-1.48717e-06
0.000321203
-1.34693e-06
0.000321806
-1.20654e-06
0.00032234
-1.06611e-06
0.000322802
-9.25724e-07
0.000323195
-7.85485e-07
0.000323518
-6.45486e-07
0.00032377
-5.0582e-07
0.000323954
-3.6658e-07
0.000324067
-2.27856e-07
0.000324112
-8.97379e-08
0.000324088
4.76876e-08
0.000323996
1.84335e-07
0.000323835
3.20122e-07
0.000323608
4.54966e-07
0.000323313
5.8879e-07
0.000322952
7.21517e-07
0.000322525
8.53074e-07
0.000322033
9.83391e-07
0.000321477
1.1124e-06
0.000320856
1.24003e-06
0.000320173
1.36623e-06
0.000319427
1.49094e-06
0.000318619
1.6141e-06
0.000317751
1.73565e-06
0.000316823
1.85555e-06
0.000315836
1.97375e-06
0.00031479
2.09021e-06
0.000313687
2.20488e-06
0.000312528
2.31774e-06
0.000311313
2.42874e-06
0.000310044
2.53786e-06
0.000308721
2.64507e-06
0.000307345
2.75034e-06
0.000305918
2.85365e-06
0.00030444
2.95499e-06
0.000302912
3.05433e-06
0.000301336
3.15166e-06
0.000299712
3.24698e-06
0.000298041
3.34028e-06
0.000296325
3.43154e-06
0.000294564
3.52077e-06
0.000292759
3.60797e-06
0.000290912
3.69314e-06
0.000289024
3.77629e-06
0.000287094
3.85741e-06
0.000285126
3.93652e-06
0.000283118
4.01364e-06
0.000281073
4.08876e-06
0.000278992
4.16192e-06
0.000276875
4.23311e-06
0.000274723
4.30236e-06
0.000272538
4.3697e-06
0.00027032
4.43513e-06
0.00026807
4.49868e-06
0.000265789
4.56038e-06
0.000263479
4.62024e-06
0.000261139
4.6783e-06
0.000258772
4.73458e-06
0.000256377
4.7891e-06
0.000253955
4.8419e-06
0.000251508
4.893e-06
0.000249037
4.94243e-06
0.000246541
4.99022e-06
0.000244023
5.03641e-06
0.000241482
5.08102e-06
0.000238919
5.12408e-06
0.000236336
5.16563e-06
0.000233733
5.20569e-06
0.00023111
5.24431e-06
0.000228469
5.2815e-06
0.00022581
5.31731e-06
0.000223134
5.35177e-06
0.000220441
5.3849e-06
0.000217733
5.41674e-06
0.000215009
5.44733e-06
0.00021227
5.47669e-06
0.000209517
5.50486e-06
0.000206751
5.53187e-06
0.000203972
5.55775e-06
0.00020118
5.58253e-06
0.000198377
5.60624e-06
0.000195562
5.62891e-06
0.000192737
5.65058e-06
0.000189901
5.67128e-06
0.000187055
5.69102e-06
0.0001842
5.70985e-06
0.000181336
5.7278e-06
0.000178463
5.74488e-06
0.000175582
5.76113e-06
0.000172694
5.77658e-06
0.000169798
5.79125e-06
0.000166895
5.80518e-06
0.000163986
5.81838e-06
0.00016107
5.83088e-06
0.000158149
5.84271e-06
0.000155222
5.8539e-06
0.000152289
5.86446e-06
0.000149352
5.87443e-06
0.00014641
5.88382e-06
0.000143464
5.89266e-06
0.000140513
5.90097e-06
0.000137558
5.90878e-06
0.0001346
5.9161e-06
0.000131639
5.92296e-06
0.000128674
5.92937e-06
0.000125706
5.93536e-06
0.000122736
5.94094e-06
0.000119762
5.94614e-06
0.000116787
5.95098e-06
0.000113809
5.95546e-06
0.000110829
5.95962e-06
0.000107847
5.96346e-06
0.000104864
5.967e-06
0.000101879
5.97026e-06
9.88918e-05
5.97326e-06
9.59038e-05
5.97601e-06
9.29145e-05
5.97852e-06
8.9924e-05
5.98082e-06
8.69325e-05
5.9829e-06
8.39401e-05
5.98479e-06
8.09468e-05
5.9865e-06
7.79527e-05
5.98804e-06
7.4958e-05
5.98942e-06
7.19626e-05
5.99066e-06
6.89667e-05
5.99176e-06
6.59703e-05
5.99274e-06
6.29735e-05
5.99361e-06
5.99762e-05
5.99437e-06
5.69787e-05
5.99503e-06
5.39809e-05
5.99561e-06
5.09828e-05
5.99611e-06
4.79845e-05
5.99654e-06
4.49861e-05
5.99691e-06
4.19874e-05
5.99722e-06
3.89887e-05
5.99747e-06
3.59898e-05
5.99769e-06
3.29909e-05
5.99787e-06
2.99919e-05
5.99801e-06
2.69928e-05
5.99813e-06
2.39937e-05
5.99822e-06
2.09945e-05
5.9983e-06
1.79954e-05
5.99835e-06
1.49962e-05
5.9984e-06
1.19969e-05
5.99843e-06
8.99771e-06
5.99845e-06
5.99848e-06
5.99847e-06
2.99924e-06
5.99848e-06
5.99848e-06
3.72088e-06
-1.11624e-05
7.44172e-06
-1.11623e-05
1.11625e-05
-1.1162e-05
1.48831e-05
-1.11616e-05
1.86035e-05
-1.1161e-05
2.23237e-05
-1.11603e-05
2.60436e-05
-1.11594e-05
2.97632e-05
-1.11584e-05
3.34824e-05
-1.11571e-05
3.7201e-05
-1.11556e-05
4.09191e-05
-1.11539e-05
4.46366e-05
-1.11519e-05
4.83533e-05
-1.11496e-05
5.20692e-05
-1.1147e-05
5.57841e-05
-1.1144e-05
5.94979e-05
-1.11407e-05
6.32105e-05
-1.1137e-05
6.69217e-05
-1.11328e-05
7.06313e-05
-1.11281e-05
7.43392e-05
-1.11228e-05
7.80453e-05
-1.1117e-05
8.17492e-05
-1.11106e-05
8.54507e-05
-1.11035e-05
8.91497e-05
-1.10956e-05
9.28458e-05
-1.1087e-05
9.65389e-05
-1.10776e-05
0.000100228
-1.10673e-05
0.000103914
-1.1056e-05
0.000107596
-1.10437e-05
0.000111274
-1.10304e-05
0.000114946
-1.10159e-05
0.000118614
-1.10002e-05
0.000122276
-1.09833e-05
0.000125931
-1.09651e-05
0.000129581
-1.09454e-05
0.000133223
-1.09243e-05
0.000136858
-1.09016e-05
0.000140484
-1.08774e-05
0.000144103
-1.08514e-05
0.000147711
-1.08237e-05
0.000151311
-1.07941e-05
0.000154899
-1.07627e-05
0.000158477
-1.07292e-05
0.000162043
-1.06937e-05
0.000165596
-1.0656e-05
0.000169136
-1.06161e-05
0.000172662
-1.0574e-05
0.000176173
-1.05294e-05
0.000179668
-1.04824e-05
0.000183148
-1.04329e-05
0.000186609
-1.03808e-05
0.000190053
-1.0326e-05
0.000193477
-1.02685e-05
0.000196881
-1.02081e-05
0.000200265
-1.01449e-05
0.000203626
-1.00787e-05
0.000206964
-1.00095e-05
0.000210278
-9.93728e-06
0.000213567
-9.86188e-06
0.00021683
-9.78329e-06
0.000220066
-9.70145e-06
0.000223273
-9.61632e-06
0.000226451
-9.52784e-06
0.000229598
-9.43596e-06
0.000232714
-9.34066e-06
0.000235796
-9.24189e-06
0.000238845
-9.13962e-06
0.000241858
-9.03382e-06
0.000244835
-8.92446e-06
0.000247774
-8.81154e-06
0.000250674
-8.69503e-06
0.000253535
-8.57493e-06
0.000256354
-8.45123e-06
0.00025913
-8.32393e-06
0.000261863
-8.19304e-06
0.000264552
-8.05858e-06
0.000267194
-7.92056e-06
0.000269789
-7.779e-06
0.000272335
-7.63393e-06
0.000274832
-7.48539e-06
0.000277279
-7.33342e-06
0.000279673
-7.17807e-06
0.000282015
-7.01939e-06
0.000284302
-6.85743e-06
0.000286535
-6.69227e-06
0.000288711
-6.52396e-06
0.00029083
-6.3526e-06
0.000292891
-6.17825e-06
0.000294893
-6.00101e-06
0.000296835
-5.82096e-06
0.000298716
-5.6382e-06
0.000300535
-5.45283e-06
0.000302291
-5.26497e-06
0.000303984
-5.07472e-06
0.000305613
-4.88219e-06
0.000307176
-4.68751e-06
0.000308674
-4.4908e-06
0.000310106
-4.29218e-06
0.000311471
-4.09179e-06
0.000312768
-3.88975e-06
0.000313998
-3.68621e-06
0.000315159
-3.4813e-06
0.000316251
-3.27516e-06
0.000317274
-3.06794e-06
0.000318228
-2.85977e-06
0.000319112
-2.6508e-06
0.000319926
-2.44118e-06
0.00032067
-2.23106e-06
0.000321344
-2.02057e-06
0.000321947
-1.80987e-06
0.00032248
-1.5991e-06
0.000322943
-1.3884e-06
0.000323335
-1.17793e-06
0.000323657
-9.67812e-07
0.00032391
-7.58198e-07
0.000324092
-5.49225e-07
0.000324206
-3.41028e-07
0.00032425
-1.33741e-07
0.000324225
7.25037e-08
0.000324132
2.77579e-07
0.00032397
4.8136e-07
0.000323742
6.83724e-07
0.000323446
8.84555e-07
0.000323084
1.08374e-06
0.000322655
1.28116e-06
0.000322162
1.47672e-06
0.000321604
1.67032e-06
0.000320982
1.86185e-06
0.000320297
2.05122e-06
0.00031955
2.23835e-06
0.000318741
2.42315e-06
0.000317871
2.60554e-06
0.000316941
2.78545e-06
0.000315952
2.9628e-06
0.000314905
3.13754e-06
0.0003138
3.3096e-06
0.000312639
3.47893e-06
0.000311422
3.64547e-06
0.000310151
3.80918e-06
0.000308826
3.97003e-06
0.000307448
4.12796e-06
0.000306019
4.28295e-06
0.000304539
4.43497e-06
0.000303009
4.584e-06
0.000301431
4.73002e-06
0.000299805
4.873e-06
0.000298132
5.01295e-06
0.000296414
5.14985e-06
0.000294651
5.2837e-06
0.000292845
5.4145e-06
0.000290995
5.54225e-06
0.000289105
5.66695e-06
0.000287174
5.78863e-06
0.000285203
5.90729e-06
0.000283193
6.02294e-06
0.000281147
6.13561e-06
0.000279063
6.24532e-06
0.000276944
6.35209e-06
0.000274791
6.45595e-06
0.000272603
6.55692e-06
0.000270384
6.65504e-06
0.000268132
6.75034e-06
0.000265849
6.84286e-06
0.000263537
6.93262e-06
0.000261196
7.01968e-06
0.000258826
7.10406e-06
0.000256429
7.18581e-06
0.000254006
7.26497e-06
0.000251558
7.34158e-06
0.000249085
7.41569e-06
0.000246587
7.48734e-06
0.000244067
7.55658e-06
0.000241525
7.62346e-06
0.000238961
7.68801e-06
0.000236376
7.75029e-06
0.000233772
7.81035e-06
0.000231148
7.86823e-06
0.000228505
7.92399e-06
0.000225845
7.97766e-06
0.000223167
8.0293e-06
0.000220473
8.07896e-06
0.000217763
8.12669e-06
0.000215038
8.17253e-06
0.000212298
8.21653e-06
0.000209544
8.25874e-06
0.000206777
8.29922e-06
0.000203997
8.33799e-06
0.000201204
8.37512e-06
0.0001984
8.41065e-06
0.000195584
8.44463e-06
0.000192757
8.47709e-06
0.000189921
8.5081e-06
0.000187074
8.53768e-06
0.000184218
8.56589e-06
0.000181353
8.59277e-06
0.000178479
8.61836e-06
0.000175598
8.6427e-06
0.000172709
8.66584e-06
0.000169812
8.68781e-06
0.000166909
8.70867e-06
0.000163999
8.72844e-06
0.000161082
8.74716e-06
0.00015816
8.76488e-06
0.000155232
8.78163e-06
0.000152299
8.79744e-06
0.000149361
8.81236e-06
0.000146419
8.82642e-06
0.000143472
8.83966e-06
0.000140521
8.8521e-06
0.000137566
8.86378e-06
0.000134607
8.87473e-06
0.000131645
8.88499e-06
0.00012868
8.89458e-06
0.000125712
8.90354e-06
0.000122741
8.91189e-06
0.000119767
8.91967e-06
0.000116791
8.9269e-06
0.000113813
8.93361e-06
0.000110833
8.93982e-06
0.000107851
8.94556e-06
0.000104867
8.95085e-06
0.000101882
8.95573e-06
9.88946e-05
8.96021e-06
9.59063e-05
8.96431e-06
9.29168e-05
8.96806e-06
8.99261e-05
8.97148e-06
8.69344e-05
8.97459e-06
8.39418e-05
8.97741e-06
8.09483e-05
8.97996e-06
7.79541e-05
8.98226e-06
7.49592e-05
8.98432e-06
7.19637e-05
8.98616e-06
6.89677e-05
8.9878e-06
6.59712e-05
8.98926e-06
6.29742e-05
8.99054e-06
5.99769e-05
8.99167e-06
5.69793e-05
8.99266e-06
5.39814e-05
8.99351e-06
5.09832e-05
8.99425e-06
4.79849e-05
8.99489e-06
4.49864e-05
8.99543e-06
4.19877e-05
8.99589e-06
3.89889e-05
8.99627e-06
3.599e-05
8.99658e-06
3.2991e-05
8.99685e-06
2.9992e-05
8.99706e-06
2.69929e-05
8.99723e-06
2.39938e-05
8.99736e-06
2.09946e-05
8.99747e-06
1.79954e-05
8.99755e-06
1.49962e-05
8.99761e-06
1.1997e-05
8.99765e-06
8.99773e-06
8.99768e-06
5.99849e-06
8.99771e-06
2.99925e-06
8.99772e-06
8.99773e-06
3.72102e-06
-1.48834e-05
7.44199e-06
-1.48833e-05
1.11629e-05
-1.48829e-05
1.48836e-05
-1.48824e-05
1.86042e-05
-1.48816e-05
2.23246e-05
-1.48807e-05
2.60447e-05
-1.48795e-05
2.97645e-05
-1.48781e-05
3.34839e-05
-1.48765e-05
3.72028e-05
-1.48745e-05
4.09211e-05
-1.48723e-05
4.46389e-05
-1.48696e-05
4.83559e-05
-1.48666e-05
5.20721e-05
-1.48632e-05
5.57874e-05
-1.48593e-05
5.95016e-05
-1.48549e-05
6.32147e-05
-1.485e-05
6.69264e-05
-1.48445e-05
7.06365e-05
-1.48383e-05
7.43451e-05
-1.48313e-05
7.80517e-05
-1.48237e-05
8.17563e-05
-1.48152e-05
8.54586e-05
-1.48058e-05
8.91583e-05
-1.47954e-05
9.28553e-05
-1.4784e-05
9.65492e-05
-1.47715e-05
0.00010024
-1.47578e-05
0.000103927
-1.47429e-05
0.00010761
-1.47266e-05
0.000111288
-1.47089e-05
0.000114962
-1.46897e-05
0.000118631
-1.46689e-05
0.000122294
-1.46465e-05
0.000125951
-1.46223e-05
0.000129602
-1.45962e-05
0.000133246
-1.45681e-05
0.000136882
-1.4538e-05
0.00014051
-1.45058e-05
0.00014413
-1.44713e-05
0.000147741
-1.44344e-05
0.000151342
-1.43952e-05
0.000154933
-1.43533e-05
0.000158512
-1.43088e-05
0.00016208
-1.42616e-05
0.000165636
-1.42115e-05
0.000169178
-1.41584e-05
0.000172706
-1.41023e-05
0.00017622
-1.4043e-05
0.000179718
-1.39805e-05
0.0001832
-1.39146e-05
0.000186664
-1.38452e-05
0.00019011
-1.37723e-05
0.000193538
-1.36957e-05
0.000196945
-1.36153e-05
0.000200331
-1.35311e-05
0.000203695
-1.3443e-05
0.000207036
-1.33508e-05
0.000210354
-1.32546e-05
0.000213646
-1.31541e-05
0.000216912
-1.30494e-05
0.000220151
-1.29404e-05
0.000223362
-1.2827e-05
0.000226543
-1.27091e-05
0.000229694
-1.25866e-05
0.000232813
-1.24596e-05
0.000235899
-1.2328e-05
0.000238951
-1.21916e-05
0.000241968
-1.20506e-05
0.000244948
-1.19048e-05
0.000247891
-1.17543e-05
0.000250795
-1.1599e-05
0.000253658
-1.14388e-05
0.000256481
-1.12739e-05
0.000259261
-1.11042e-05
0.000261998
-1.09296e-05
0.00026469
-1.07503e-05
0.000267335
-1.05662e-05
0.000269934
-1.03774e-05
0.000272484
-1.0184e-05
0.000274984
-9.98586e-06
0.000277434
-9.78316e-06
0.000279832
-9.57594e-06
0.000282177
-9.36427e-06
0.000284468
-9.14823e-06
0.000286703
-8.9279e-06
0.000288883
-8.70338e-06
0.000291005
-8.47477e-06
0.000293069
-8.24217e-06
0.000295073
-8.0057e-06
0.000297018
-7.76548e-06
0.000298901
-7.52165e-06
0.000300723
-7.27433e-06
0.000302482
-7.02368e-06
0.000304177
-6.76983e-06
0.000305807
-6.51294e-06
0.000307373
-6.25317e-06
0.000308873
-5.99069e-06
0.000310307
-5.72566e-06
0.000311673
-5.45827e-06
0.000312972
-5.18868e-06
0.000314203
-4.91707e-06
0.000315365
-4.64364e-06
0.000316459
-4.36857e-06
0.000317483
-4.09205e-06
0.000318437
-3.81426e-06
0.000319322
-3.53542e-06
0.000320136
-3.2557e-06
0.000320881
-2.9753e-06
0.000321554
-2.69443e-06
0.000322158
-2.41327e-06
0.000322691
-2.13202e-06
0.000323153
-1.85087e-06
0.000323545
-1.57001e-06
0.000323867
-1.28964e-06
0.000324119
-1.00994e-06
0.000324301
-7.31093e-07
0.000324413
-4.53289e-07
0.000324456
-1.76703e-07
0.00032443
9.84895e-08
0.000324335
3.72117e-07
0.000324173
6.44014e-07
0.000323942
9.14017e-07
0.000323645
1.18197e-06
0.000323281
1.44772e-06
0.000322851
1.71111e-06
0.000322356
1.97202e-06
0.000321796
2.23029e-06
0.000321172
2.48581e-06
0.000320485
2.73845e-06
0.000319735
2.98808e-06
0.000318923
3.23461e-06
0.000318051
3.47791e-06
0.000317119
3.7179e-06
0.000316127
3.95447e-06
0.000315077
4.18755e-06
0.000313969
4.41705e-06
0.000312805
4.6429e-06
0.000311586
4.86503e-06
0.000310312
5.08338e-06
0.000308984
5.29789e-06
0.000307603
5.50852e-06
0.000306171
5.71522e-06
0.000304688
5.91795e-06
0.000303155
6.11668e-06
0.000301574
6.3114e-06
0.000299945
6.50206e-06
0.000298269
6.68867e-06
0.000296548
6.87121e-06
0.000294782
7.04968e-06
0.000292972
7.22407e-06
0.00029112
7.39439e-06
0.000289226
7.56065e-06
0.000287292
7.72287e-06
0.000285318
7.88105e-06
0.000283306
8.03523e-06
0.000281256
8.18542e-06
0.00027917
8.33166e-06
0.000277048
8.47398e-06
0.000274892
8.61241e-06
0.000272702
8.747e-06
0.000270479
8.87778e-06
0.000268224
9.00479e-06
0.000265939
9.12809e-06
0.000263624
9.24771e-06
0.00026128
9.36373e-06
0.000258908
9.47617e-06
0.000256509
9.58511e-06
0.000254083
9.69059e-06
0.000251632
9.79267e-06
0.000249156
9.89141e-06
0.000246657
9.98688e-06
0.000244134
1.00791e-05
0.000241589
1.01682e-05
0.000239023
1.02542e-05
0.000236436
1.03372e-05
0.000233829
1.04172e-05
0.000231203
1.04943e-05
0.000228559
1.05685e-05
0.000225896
1.064e-05
0.000223217
1.07088e-05
0.000220521
1.0775e-05
0.000217809
1.08385e-05
0.000215082
1.08996e-05
0.00021234
1.09582e-05
0.000209585
1.10144e-05
0.000206816
1.10683e-05
0.000204034
1.11199e-05
0.00020124
1.11693e-05
0.000198434
1.12166e-05
0.000195616
1.12619e-05
0.000192788
1.13051e-05
0.00018995
1.13463e-05
0.000187102
1.13857e-05
0.000184245
1.14233e-05
0.000181379
1.1459e-05
0.000178504
1.14931e-05
0.000175621
1.15255e-05
0.000172731
1.15563e-05
0.000169833
1.15855e-05
0.000166928
1.16132e-05
0.000164017
1.16395e-05
0.0001611
1.16644e-05
0.000158177
1.1688e-05
0.000155248
1.17103e-05
0.000152314
1.17313e-05
0.000149376
1.17512e-05
0.000146432
1.17698e-05
0.000143484
1.17874e-05
0.000140532
1.1804e-05
0.000137577
1.18195e-05
0.000134617
1.18341e-05
0.000131655
1.18477e-05
0.000128689
1.18604e-05
0.00012572
1.18723e-05
0.000122749
1.18834e-05
0.000119774
1.18938e-05
0.000116798
1.19033e-05
0.000113819
1.19122e-05
0.000110839
1.19205e-05
0.000107856
1.19281e-05
0.000104872
1.19351e-05
0.000101886
1.19416e-05
9.88987e-05
1.19475e-05
9.59101e-05
1.1953e-05
9.29202e-05
1.19579e-05
8.99292e-05
1.19625e-05
8.69372e-05
1.19666e-05
8.39443e-05
1.19703e-05
8.09506e-05
1.19737e-05
7.79562e-05
1.19767e-05
7.4961e-05
1.19794e-05
7.19653e-05
1.19819e-05
6.89691e-05
1.1984e-05
6.59724e-05
1.19859e-05
6.29754e-05
1.19876e-05
5.99779e-05
1.19891e-05
5.69802e-05
1.19904e-05
5.39821e-05
1.19915e-05
5.09839e-05
1.19925e-05
4.79854e-05
1.19933e-05
4.49868e-05
1.1994e-05
4.19881e-05
1.19946e-05
3.89892e-05
1.19951e-05
3.59903e-05
1.19955e-05
3.29913e-05
1.19959e-05
2.99922e-05
1.19961e-05
2.6993e-05
1.19964e-05
2.39939e-05
1.19965e-05
2.09947e-05
1.19967e-05
1.79955e-05
1.19968e-05
1.49962e-05
1.19968e-05
1.1997e-05
1.19969e-05
8.99775e-06
1.19969e-05
5.9985e-06
1.1997e-05
2.99925e-06
1.1997e-05
1.1997e-05
3.72119e-06
-1.86046e-05
7.44234e-06
-1.86044e-05
1.11634e-05
-1.8604e-05
1.48844e-05
-1.86033e-05
1.86052e-05
-1.86024e-05
2.23258e-05
-1.86013e-05
2.60461e-05
-1.85999e-05
2.97662e-05
-1.85982e-05
3.34858e-05
-1.85961e-05
3.7205e-05
-1.85938e-05
4.09238e-05
-1.8591e-05
4.46419e-05
-1.85878e-05
4.83594e-05
-1.85841e-05
5.2076e-05
-1.85799e-05
5.57918e-05
-1.85751e-05
5.95066e-05
-1.85697e-05
6.32202e-05
-1.85636e-05
6.69326e-05
-1.85568e-05
7.06435e-05
-1.85492e-05
7.43527e-05
-1.85406e-05
7.80602e-05
-1.85311e-05
8.17657e-05
-1.85206e-05
8.54689e-05
-1.8509e-05
8.91697e-05
-1.84962e-05
9.28678e-05
-1.84821e-05
9.65629e-05
-1.84666e-05
0.000100255
-1.84496e-05
0.000103943
-1.84311e-05
0.000107627
-1.84109e-05
0.000111307
-1.8389e-05
0.000114983
-1.83651e-05
0.000118653
-1.83393e-05
0.000122318
-1.83114e-05
0.000125977
-1.82813e-05
0.00012963
-1.82489e-05
0.000133276
-1.8214e-05
0.000136914
-1.81766e-05
0.000140545
-1.81364e-05
0.000144167
-1.80935e-05
0.00014778
-1.80477e-05
0.000151384
-1.79987e-05
0.000154977
-1.79466e-05
0.00015856
-1.78912e-05
0.00016213
-1.78323e-05
0.000165689
-1.77699e-05
0.000169234
-1.77038e-05
0.000172766
-1.76338e-05
0.000176283
-1.75599e-05
0.000179784
-1.74819e-05
0.000183269
-1.73997e-05
0.000186737
-1.73132e-05
0.000190187
-1.72222e-05
0.000193618
-1.71266e-05
0.000197029
-1.70263e-05
0.000200419
-1.69213e-05
0.000203787
-1.68113e-05
0.000207133
-1.66962e-05
0.000210454
-1.65761e-05
0.000213751
-1.64507e-05
0.000217021
-1.63199e-05
0.000220265
-1.61838e-05
0.00022348
-1.60421e-05
0.000226665
-1.58948e-05
0.000229821
-1.57419e-05
0.000232944
-1.55832e-05
0.000236035
-1.54187e-05
0.000239092
-1.52484e-05
0.000242113
-1.50722e-05
0.000245098
-1.489e-05
0.000248046
-1.47018e-05
0.000250955
-1.45077e-05
0.000253823
-1.43075e-05
0.000256651
-1.41014e-05
0.000259436
-1.38892e-05
0.000262177
-1.3671e-05
0.000264874
-1.34468e-05
0.000267524
-1.32166e-05
0.000270127
-1.29806e-05
0.000272682
-1.27386e-05
0.000275187
-1.24909e-05
0.000277641
-1.22374e-05
0.000280044
-1.19783e-05
0.000282393
-1.17135e-05
0.000284688
-1.14433e-05
0.000286928
-1.11677e-05
0.000289111
-1.08869e-05
0.000291237
-1.06009e-05
0.000293305
-1.031e-05
0.000295314
-1.00141e-05
0.000297262
-9.71363e-06
0.000299149
-9.40858e-06
0.000300974
-9.09917e-06
0.000302736
-8.78557e-06
0.000304434
-8.46797e-06
0.000306067
-8.14657e-06
0.000307636
-7.82155e-06
0.000309138
-7.49313e-06
0.000310574
-7.16152e-06
0.000311943
-6.82694e-06
0.000313244
-6.48961e-06
0.000314476
-6.14976e-06
0.00031564
-5.80762e-06
0.000316735
-5.46343e-06
0.000317761
-5.11742e-06
0.000318716
-4.76983e-06
0.000319602
-4.4209e-06
0.000320417
-4.07089e-06
0.000321161
-3.72003e-06
0.000321836
-3.36857e-06
0.000322439
-3.01676e-06
0.000322972
-2.66483e-06
0.000323434
-2.31303e-06
0.000323826
-1.96161e-06
0.000324147
-1.61079e-06
0.000324398
-1.26082e-06
0.000324579
-9.11922e-07
0.00032469
-5.64332e-07
0.000324731
-2.18271e-07
0.000324704
1.2604e-07
0.000324607
4.68387e-07
0.000324443
8.08562e-07
0.00032421
1.14636e-06
0.000323911
1.48159e-06
0.000323545
1.81405e-06
0.000323112
2.14356e-06
0.000322614
2.46994e-06
0.000322051
2.79303e-06
0.000321425
3.11266e-06
0.000320734
3.42868e-06
0.000319981
3.74093e-06
0.000319167
4.04928e-06
0.000318291
4.3536e-06
0.000317355
4.65376e-06
0.00031636
4.94964e-06
0.000315306
5.24114e-06
0.000314195
5.52815e-06
0.000313028
5.81059e-06
0.000311804
6.08837e-06
0.000310526
6.36141e-06
0.000309195
6.62964e-06
0.00030781
6.89301e-06
0.000306374
7.15145e-06
0.000304887
7.40493e-06
0.00030335
7.65339e-06
0.000301765
7.89682e-06
0.000300132
8.13519e-06
0.000298452
8.36847e-06
0.000296726
8.59665e-06
0.000294956
8.81973e-06
0.000293143
9.03771e-06
0.000291286
9.2506e-06
0.000289389
9.4584e-06
0.00028745
9.66114e-06
0.000285473
9.85883e-06
0.000283456
1.00515e-05
0.000281403
1.02392e-05
0.000279312
1.04219e-05
0.000277187
1.05998e-05
0.000275026
1.07727e-05
0.000272832
1.09409e-05
0.000270606
1.11043e-05
0.000268348
1.1263e-05
0.000266059
1.1417e-05
0.00026374
1.15664e-05
0.000261393
1.17113e-05
0.000259017
1.18518e-05
0.000256614
1.19879e-05
0.000254185
1.21196e-05
0.000251731
1.22471e-05
0.000249252
1.23704e-05
0.000246749
1.24896e-05
0.000244223
1.26048e-05
0.000241675
1.27161e-05
0.000239106
1.28235e-05
0.000236516
1.2927e-05
0.000233907
1.30269e-05
0.000231278
1.31232e-05
0.00022863