/*--------------------------------*- C++ -*----------------------------------*\
| =========                 |                                                 |
| \\      /  F ield         | OpenFOAM: The Open Source CFD Toolbox           |
|  \\    /   O peration     | Version:  v2012                                 |
|   \\  /    A nd           | Website:  www.openfoam.com                      |
|    \\/     M anipulation  |                                                 |
\*---------------------------------------------------------------------------*/
FoamFile
{
    version     2.0;
    format      ascii;
    class       volVectorField;
    location    "70";
    object      Usup;
}
// * * * * * * * * * * * * * * * * * * * * * * * * * * * * * * * * * * * * * //

dimensions      [0 1 -1 0 0 0 0];


internalField   nonuniform List<vector> 
4000
(
(-2.95463e-16 1.37946e-17 0)
(-7.96476e-16 2.55003e-16 0)
(-9.47298e-16 4.91689e-16 0)
(-9.86276e-16 5.26359e-16 0)
(-1.20283e-15 4.83691e-16 0)
(-1.81448e-15 2.34369e-16 0)
(-2.55716e-15 2.71092e-17 0)
(-3.26531e-15 1.98567e-16 0)
(-3.42743e-15 3.9179e-16 0)
(-3.58656e-15 5.28536e-16 0)
(-4.35716e-15 6.75896e-16 0)
(-5.16593e-15 3.76193e-16 0)
(-6.12244e-15 5.22209e-16 0)
(-6.13987e-15 1.29928e-15 0)
(-5.30687e-15 1.78525e-15 0)
(-5.10799e-15 1.21506e-15 0)
(-5.45309e-15 1.17301e-15 0)
(-5.71998e-15 1.21907e-15 0)
(-5.84113e-15 1.47545e-15 0)
(-5.93404e-15 1.65998e-15 0)
(-5.82412e-15 1.62357e-15 0)
(-5.36779e-15 1.50016e-15 0)
(-5.20733e-15 1.49894e-15 0)
(-5.53456e-15 1.44008e-15 0)
(-5.54264e-15 1.73246e-15 0)
(-5.08021e-15 2.16365e-15 0)
(-5.35872e-15 2.02284e-15 0)
(-5.92006e-15 2.20708e-15 0)
(-5.83384e-15 1.98939e-15 0)
(-5.9558e-15 1.82758e-15 0)
(-6.1819e-15 2.09196e-15 0)
(-5.77247e-15 2.69658e-15 0)
(-4.78581e-15 2.73611e-15 0)
(-3.8556e-15 2.40054e-15 0)
(-3.82201e-15 2.07357e-15 0)
(-4.47091e-15 1.93607e-15 0)
(-5.27176e-15 2.32291e-15 0)
(-5.52361e-15 2.92241e-15 0)
(-5.11829e-15 3.30663e-15 0)
(-4.58959e-15 3.17619e-15 0)
(-4.2755e-15 3.00576e-15 0)
(-4.39781e-15 2.7953e-15 0)
(-4.82277e-15 2.67708e-15 0)
(-5.55797e-15 2.94602e-15 0)
(-5.90919e-15 2.93865e-15 0)
(-6.30233e-15 2.75982e-15 0)
(-6.87025e-15 2.50984e-15 0)
(-6.47803e-15 2.5192e-15 0)
(-5.76265e-15 2.5835e-15 0)
(-5.79096e-15 2.46873e-15 0)
(-6.54616e-15 2.42864e-15 0)
(-6.99351e-15 2.66121e-15 0)
(-6.4427e-15 2.52199e-15 0)
(-5.99001e-15 2.20192e-15 0)
(-6.27846e-15 2.08647e-15 0)
(-6.93315e-15 2.09152e-15 0)
(-7.28786e-15 1.95035e-15 0)
(-7.35503e-15 1.51195e-15 0)
(-7.70886e-15 1.46861e-15 0)
(-8.33961e-15 1.58642e-15 0)
(-8.84662e-15 1.78146e-15 0)
(-8.64355e-15 1.44733e-15 0)
(-8.32305e-15 1.35923e-15 0)
(-8.22601e-15 1.40678e-15 0)
(-8.26329e-15 1.61479e-15 0)
(-8.65987e-15 1.53951e-15 0)
(-9.26769e-15 1.27448e-15 0)
(-9.65163e-15 1.00955e-15 0)
(-9.53591e-15 1.0429e-15 0)
(-9.02026e-15 1.03384e-15 0)
(-8.70086e-15 8.04769e-16 0)
(-8.7909e-15 5.25367e-16 0)
(-8.50509e-15 5.83895e-16 0)
(-8.42361e-15 2.51724e-16 0)
(-8.59671e-15 2.46245e-16 0)
(-8.48634e-15 1.26522e-16 0)
(-8.52449e-15 -2.5419e-18 0)
(-8.77483e-15 -3.09889e-16 0)
(-9.18649e-15 -5.44973e-16 0)
(-9.50797e-15 -6.10912e-16 0)
(-9.4777e-15 -4.19837e-16 0)
(-9.03039e-15 -1.71467e-16 0)
(-8.43818e-15 -2.29463e-16 0)
(-8.10648e-15 -5.8994e-16 0)
(-7.92315e-15 -6.64033e-16 0)
(-7.71864e-15 -7.144e-16 0)
(-7.78811e-15 -6.16871e-16 0)
(-7.16352e-15 -6.76177e-16 0)
(-6.54664e-15 -1.08294e-15 0)
(-6.43192e-15 -1.04764e-15 0)
(-6.46842e-15 -1.08946e-15 0)
(-6.74474e-15 -7.31222e-16 0)
(-6.29208e-15 -6.89864e-16 0)
(-5.74847e-15 -6.93188e-16 0)
(-5.41242e-15 -6.06126e-16 0)
(-5.11936e-15 -7.09699e-16 0)
(-4.82183e-15 -6.56563e-16 0)
(-4.14801e-15 -5.02368e-16 0)
(-2.92932e-15 -2.23333e-16 0)
(-1.18394e-15 7.26289e-17 0)
(-6.71401e-16 2.14968e-16 0)
(-1.89463e-15 6.7158e-16 0)
(-2.67316e-15 1.31766e-15 0)
(-3.27486e-15 1.36318e-15 0)
(-4.25908e-15 1.25807e-15 0)
(-5.93869e-15 1.02408e-15 0)
(-7.49309e-15 6.42342e-16 0)
(-8.95002e-15 5.78547e-16 0)
(-9.76197e-15 1.00639e-15 0)
(-1.05889e-14 1.44661e-15 0)
(-1.27893e-14 1.839e-15 0)
(-1.48095e-14 1.3486e-15 0)
(-1.60871e-14 1.9031e-15 0)
(-1.60485e-14 3.61248e-15 0)
(-1.56285e-14 4.65426e-15 0)
(-1.56324e-14 3.88158e-15 0)
(-1.58316e-14 3.66682e-15 0)
(-1.62105e-14 3.78354e-15 0)
(-1.64286e-14 4.36269e-15 0)
(-1.68189e-14 4.88829e-15 0)
(-1.67727e-14 4.95039e-15 0)
(-1.58663e-14 4.67459e-15 0)
(-1.5477e-14 4.62428e-15 0)
(-1.57784e-14 4.69411e-15 0)
(-1.54111e-14 5.37277e-15 0)
(-1.49878e-14 6.04845e-15 0)
(-1.57138e-14 5.87963e-15 0)
(-1.68348e-14 6.26762e-15 0)
(-1.70815e-14 5.95113e-15 0)
(-1.69517e-14 5.72941e-15 0)
(-1.66339e-14 6.72838e-15 0)
(-1.57782e-14 7.98112e-15 0)
(-1.43251e-14 7.9766e-15 0)
(-1.26373e-14 7.46547e-15 0)
(-1.23228e-14 6.65632e-15 0)
(-1.30844e-14 6.27104e-15 0)
(-1.41646e-14 6.96874e-15 0)
(-1.47245e-14 8.44209e-15 0)
(-1.45067e-14 9.21491e-15 0)
(-1.38461e-14 9.06741e-15 0)
(-1.32868e-14 8.79316e-15 0)
(-1.35585e-14 8.59433e-15 0)
(-1.42409e-14 8.41123e-15 0)
(-1.57941e-14 8.85943e-15 0)
(-1.71478e-14 8.93293e-15 0)
(-1.83431e-14 8.39874e-15 0)
(-1.93138e-14 7.64395e-15 0)
(-1.84236e-14 7.62979e-15 0)
(-1.7247e-14 7.83205e-15 0)
(-1.74259e-14 7.45088e-15 0)
(-1.86218e-14 7.27877e-15 0)
(-1.95762e-14 7.7833e-15 0)
(-1.90816e-14 7.65951e-15 0)
(-1.83105e-14 6.75692e-15 0)
(-1.87177e-14 6.25309e-15 0)
(-2.01458e-14 5.93847e-15 0)
(-2.14169e-14 5.51651e-15 0)
(-2.18069e-14 4.93067e-15 0)
(-2.23584e-14 4.80779e-15 0)
(-2.36198e-14 4.79298e-15 0)
(-2.50635e-14 4.76748e-15 0)
(-2.50423e-14 4.22659e-15 0)
(-2.42131e-14 4.10948e-15 0)
(-2.38395e-14 4.47821e-15 0)
(-2.41346e-14 4.71927e-15 0)
(-2.54101e-14 4.50089e-15 0)
(-2.68659e-14 3.87572e-15 0)
(-2.74793e-14 3.20105e-15 0)
(-2.70851e-14 2.93345e-15 0)
(-2.62616e-14 2.70991e-15 0)
(-2.57464e-14 2.20188e-15 0)
(-2.55171e-14 1.68326e-15 0)
(-2.49914e-14 1.27321e-15 0)
(-2.48442e-14 7.20019e-16 0)
(-2.49537e-14 6.96551e-16 0)
(-2.49039e-14 5.17374e-16 0)
(-2.51898e-14 -4.99597e-17 0)
(-2.58495e-14 -7.70505e-16 0)
(-2.65472e-14 -1.2601e-15 0)
(-2.6873e-14 -1.35626e-15 0)
(-2.65091e-14 -1.22315e-15 0)
(-2.56743e-14 -7.69728e-16 0)
(-2.47698e-14 -1.09272e-15 0)
(-2.38669e-14 -1.68589e-15 0)
(-2.3029e-14 -1.88554e-15 0)
(-2.23107e-14 -2.04884e-15 0)
(-2.20955e-14 -1.98295e-15 0)
(-2.10544e-14 -1.9916e-15 0)
(-1.95716e-14 -3.02267e-15 0)
(-1.88164e-14 -2.99683e-15 0)
(-1.8473e-14 -3.11618e-15 0)
(-1.86406e-14 -2.36519e-15 0)
(-1.78317e-14 -2.35845e-15 0)
(-1.6438e-14 -2.26355e-15 0)
(-1.54458e-14 -1.93559e-15 0)
(-1.44388e-14 -2.10089e-15 0)
(-1.30561e-14 -1.90826e-15 0)
(-1.07972e-14 -1.29862e-15 0)
(-7.3181e-15 -5.66068e-16 0)
(-2.97681e-15 -7.24902e-17 0)
(-1.13147e-15 5.10387e-16 0)
(-2.95773e-15 1.31343e-15 0)
(-4.38446e-15 2.02843e-15 0)
(-5.7967e-15 1.90523e-15 0)
(-7.36138e-15 2.01749e-15 0)
(-9.90959e-15 1.96965e-15 0)
(-1.25414e-14 1.70171e-15 0)
(-1.45521e-14 1.39038e-15 0)
(-1.56605e-14 1.95918e-15 0)
(-1.71784e-14 2.32788e-15 0)
(-2.06205e-14 2.51818e-15 0)
(-2.34316e-14 2.38524e-15 0)
(-2.46398e-14 3.6068e-15 0)
(-2.47663e-14 5.62831e-15 0)
(-2.50625e-14 6.76757e-15 0)
(-2.55746e-14 6.70351e-15 0)
(-2.57503e-14 6.3051e-15 0)
(-2.5979e-14 6.51144e-15 0)
(-2.61445e-14 7.27533e-15 0)
(-2.67477e-14 7.89052e-15 0)
(-2.69674e-14 8.22797e-15 0)
(-2.59612e-14 8.254e-15 0)
(-2.52539e-14 7.81844e-15 0)
(-2.52727e-14 7.91969e-15 0)
(-2.48061e-14 8.91838e-15 0)
(-2.46156e-14 9.69454e-15 0)
(-2.55129e-14 9.79966e-15 0)
(-2.69274e-14 1.0159e-14 0)
(-2.74548e-14 1.03082e-14 0)
(-2.67314e-14 1.0559e-14 0)
(-2.57766e-14 1.18089e-14 0)
(-2.50431e-14 1.28151e-14 0)
(-2.34877e-14 1.29933e-14 0)
(-2.15166e-14 1.25082e-14 0)
(-2.11162e-14 1.14201e-14 0)
(-2.15905e-14 1.12903e-14 0)
(-2.22648e-14 1.20104e-14 0)
(-2.29519e-14 1.31753e-14 0)
(-2.325e-14 1.39416e-14 0)
(-2.26992e-14 1.42327e-14 0)
(-2.2e-14 1.45496e-14 0)
(-2.24117e-14 1.45996e-14 0)
(-2.34126e-14 1.42839e-14 0)
(-2.54662e-14 1.40991e-14 0)
(-2.77614e-14 1.40106e-14 0)
(-2.98665e-14 1.37511e-14 0)
(-3.09318e-14 1.31333e-14 0)
(-2.95372e-14 1.30646e-14 0)
(-2.8372e-14 1.31001e-14 0)
(-2.88426e-14 1.24987e-14 0)
(-3.00025e-14 1.19076e-14 0)
(-3.11047e-14 1.24805e-14 0)
(-3.11891e-14 1.26831e-14 0)
(-3.06887e-14 1.16144e-14 0)
(-3.11832e-14 1.04642e-14 0)
(-3.30348e-14 9.42577e-15 0)
(-3.46676e-14 8.90132e-15 0)
(-3.53443e-14 8.48566e-15 0)
(-3.63976e-14 8.16154e-15 0)
(-3.83295e-14 7.81838e-15 0)
(-4.02548e-14 7.45598e-15 0)
(-4.02143e-14 7.4192e-15 0)
(-3.89813e-14 7.39467e-15 0)
(-3.86075e-14 7.44224e-15 0)
(-3.94301e-14 7.27005e-15 0)
(-4.13643e-14 6.65245e-15 0)
(-4.34543e-14 6.09093e-15 0)
(-4.43048e-14 5.43662e-15 0)
(-4.37484e-14 4.80454e-15 0)
(-4.26591e-14 4.17039e-15 0)
(-4.1914e-14 3.48008e-15 0)
(-4.16758e-14 3.01045e-15 0)
(-4.09688e-14 2.17066e-15 0)
(-4.04064e-14 1.39589e-15 0)
(-4.04136e-14 8.99669e-16 0)
(-4.06905e-14 3.64541e-16 0)
(-4.1336e-14 -3.52433e-16 0)
(-4.2071e-14 -1.04035e-15 0)
(-4.27413e-14 -1.53274e-15 0)
(-4.30632e-14 -1.74058e-15 0)
(-4.24076e-14 -1.97049e-15 0)
(-4.13279e-14 -1.56804e-15 0)
(-4.02116e-14 -2.00318e-15 0)
(-3.87144e-14 -2.65133e-15 0)
(-3.73656e-14 -3.07836e-15 0)
(-3.61811e-14 -3.46062e-15 0)
(-3.54445e-14 -3.61251e-15 0)
(-3.42505e-14 -3.57433e-15 0)
(-3.22184e-14 -4.71844e-15 0)
(-3.06517e-14 -4.80587e-15 0)
(-2.97274e-14 -4.86221e-15 0)
(-2.95775e-14 -4.19554e-15 0)
(-2.84411e-14 -3.86091e-15 0)
(-2.61471e-14 -3.9355e-15 0)
(-2.45367e-14 -3.55057e-15 0)
(-2.27924e-14 -3.48598e-15 0)
(-2.00311e-14 -3.08119e-15 0)
(-1.6167e-14 -2.24448e-15 0)
(-1.10101e-14 -1.44049e-15 0)
(-4.42403e-15 -6.0213e-16 0)
(-1.40298e-15 7.32786e-16 0)
(-3.9561e-15 2.14113e-15 0)
(-6.39201e-15 2.66313e-15 0)
(-8.38698e-15 2.5875e-15 0)
(-1.04637e-14 2.62452e-15 0)
(-1.38863e-14 2.92428e-15 0)
(-1.72715e-14 3.33589e-15 0)
(-1.97004e-14 3.10227e-15 0)
(-2.13749e-14 3.29786e-15 0)
(-2.38479e-14 3.17255e-15 0)
(-2.80228e-14 3.31614e-15 0)
(-3.09087e-14 3.92034e-15 0)
(-3.19363e-14 5.23801e-15 0)
(-3.2535e-14 7.23308e-15 0)
(-3.36106e-14 8.48784e-15 0)
(-3.47864e-14 9.20191e-15 0)
(-3.51026e-14 9.26862e-15 0)
(-3.49942e-14 9.42885e-15 0)
(-3.51683e-14 1.00537e-14 0)
(-3.59591e-14 1.06479e-14 0)
(-3.62004e-14 1.14897e-14 0)
(-3.55488e-14 1.19736e-14 0)
(-3.49234e-14 1.11253e-14 0)
(-3.4201e-14 1.13271e-14 0)
(-3.33132e-14 1.25323e-14 0)
(-3.34648e-14 1.33526e-14 0)
(-3.47164e-14 1.37643e-14 0)
(-3.61641e-14 1.40671e-14 0)
(-3.66252e-14 1.48302e-14 0)
(-3.56781e-14 1.57545e-14 0)
(-3.45432e-14 1.66445e-14 0)
(-3.36948e-14 1.72839e-14 0)
(-3.21774e-14 1.77702e-14 0)
(-3.04348e-14 1.7415e-14 0)
(-2.95943e-14 1.66224e-14 0)
(-2.94449e-14 1.65941e-14 0)
(-3.02015e-14 1.67626e-14 0)
(-3.10226e-14 1.75366e-14 0)
(-3.12653e-14 1.85402e-14 0)
(-3.05843e-14 1.95651e-14 0)
(-3.00673e-14 1.98317e-14 0)
(-3.11301e-14 1.99117e-14 0)
(-3.27581e-14 1.96777e-14 0)
(-3.51891e-14 1.9058e-14 0)
(-3.75752e-14 1.8863e-14 0)
(-4.00119e-14 1.87033e-14 0)
(-4.14415e-14 1.85761e-14 0)
(-4.01151e-14 1.84913e-14 0)
(-3.91675e-14 1.79712e-14 0)
(-4.00094e-14 1.75427e-14 0)
(-4.09255e-14 1.68989e-14 0)
(-4.17399e-14 1.7032e-14 0)
(-4.24766e-14 1.70832e-14 0)
(-4.27695e-14 1.61671e-14 0)
(-4.36838e-14 1.47653e-14 0)
(-4.55333e-14 1.27799e-14 0)
(-4.72424e-14 1.22004e-14 0)
(-4.83234e-14 1.17086e-14 0)
(-4.97656e-14 1.12029e-14 0)
(-5.20549e-14 1.07311e-14 0)
(-5.40395e-14 1.04102e-14 0)
(-5.40696e-14 1.08506e-14 0)
(-5.32525e-14 1.07793e-14 0)
(-5.31395e-14 9.94932e-15 0)
(-5.42917e-14 9.36302e-15 0)
(-5.64933e-14 8.57147e-15 0)
(-5.87037e-14 8.00408e-15 0)
(-5.98392e-14 7.38398e-15 0)
(-5.94272e-14 6.66394e-15 0)
(-5.82727e-14 5.65949e-15 0)
(-5.72341e-14 4.65663e-15 0)
(-5.6842e-14 3.93314e-15 0)
(-5.62596e-14 3.18503e-15 0)
(-5.5712e-14 2.12728e-15 0)
(-5.56558e-14 9.95293e-16 0)
(-5.58084e-14 -2.50407e-17 0)
(-5.63791e-14 -7.30646e-16 0)
(-5.72099e-14 -1.30154e-15 0)
(-5.79386e-14 -1.77594e-15 0)
(-5.82545e-14 -2.11615e-15 0)
(-5.71987e-14 -2.26672e-15 0)
(-5.58171e-14 -2.20597e-15 0)
(-5.47476e-14 -2.69496e-15 0)
(-5.2932e-14 -3.74326e-15 0)
(-5.10799e-14 -4.53569e-15 0)
(-4.93714e-14 -4.81938e-15 0)
(-4.80344e-14 -5.0625e-15 0)
(-4.6645e-14 -5.02829e-15 0)
(-4.41686e-14 -6.06877e-15 0)
(-4.17895e-14 -6.51082e-15 0)
(-4.02464e-14 -6.62697e-15 0)
(-3.94553e-14 -6.33982e-15 0)
(-3.81247e-14 -5.66438e-15 0)
(-3.53547e-14 -5.4295e-15 0)
(-3.2803e-14 -5.13268e-15 0)
(-3.01447e-14 -4.86083e-15 0)
(-2.61975e-14 -4.3691e-15 0)
(-2.10038e-14 -3.38471e-15 0)
(-1.40806e-14 -2.5211e-15 0)
(-5.27535e-15 -1.06763e-15 0)
(-1.58878e-15 8.01163e-16 0)
(-4.99129e-15 2.56096e-15 0)
(-8.43275e-15 3.30701e-15 0)
(-1.11597e-14 3.72425e-15 0)
(-1.35379e-14 3.92904e-15 0)
(-1.70811e-14 4.44789e-15 0)
(-2.14857e-14 5.08403e-15 0)
(-2.50264e-14 4.9943e-15 0)
(-2.73393e-14 4.76395e-15 0)
(-3.01723e-14 4.16873e-15 0)
(-3.44207e-14 4.42131e-15 0)
(-3.76618e-14 5.68188e-15 0)
(-3.88994e-14 7.24164e-15 0)
(-3.9681e-14 9.02747e-15 0)
(-4.11639e-14 9.99879e-15 0)
(-4.27395e-14 1.13109e-14 0)
(-4.35901e-14 1.22574e-14 0)
(-4.36852e-14 1.26781e-14 0)
(-4.3732e-14 1.31773e-14 0)
(-4.42531e-14 1.36312e-14 0)
(-4.44875e-14 1.43989e-14 0)
(-4.45668e-14 1.49342e-14 0)
(-4.39554e-14 1.47743e-14 0)
(-4.24422e-14 1.53443e-14 0)
(-4.15032e-14 1.64694e-14 0)
(-4.18889e-14 1.67236e-14 0)
(-4.32851e-14 1.68788e-14 0)
(-4.46115e-14 1.75004e-14 0)
(-4.47418e-14 1.89467e-14 0)
(-4.38476e-14 2.04505e-14 0)
(-4.28189e-14 2.12981e-14 0)
(-4.18077e-14 2.20371e-14 0)
(-4.02275e-14 2.26131e-14 0)
(-3.85624e-14 2.243e-14 0)
(-3.76867e-14 2.23452e-14 0)
(-3.76141e-14 2.19626e-14 0)
(-3.80085e-14 2.15666e-14 0)
(-3.82594e-14 2.24952e-14 0)
(-3.83308e-14 2.32842e-14 0)
(-3.82042e-14 2.44496e-14 0)
(-3.82201e-14 2.44671e-14 0)
(-3.93029e-14 2.45642e-14 0)
(-4.14073e-14 2.45978e-14 0)
(-4.41985e-14 2.43811e-14 0)
(-4.69197e-14 2.44096e-14 0)
(-4.96455e-14 2.36775e-14 0)
(-5.1138e-14 2.35446e-14 0)
(-5.02311e-14 2.3455e-14 0)
(-4.94034e-14 2.29055e-14 0)
(-5.01938e-14 2.2528e-14 0)
(-5.1334e-14 2.19839e-14 0)
(-5.22728e-14 2.1373e-14 0)
(-5.33259e-14 2.1163e-14 0)
(-5.4135e-14 2.00907e-14 0)
(-5.58945e-14 1.84094e-14 0)
(-5.78299e-14 1.63019e-14 0)
(-5.91167e-14 1.53772e-14 0)
(-6.04979e-14 1.49046e-14 0)
(-6.23322e-14 1.40546e-14 0)
(-6.49114e-14 1.37435e-14 0)
(-6.67926e-14 1.37322e-14 0)
(-6.69428e-14 1.3906e-14 0)
(-6.68716e-14 1.35019e-14 0)
(-6.71193e-14 1.22951e-14 0)
(-6.8266e-14 1.12448e-14 0)
(-7.06648e-14 1.04973e-14 0)
(-7.31235e-14 9.79713e-15 0)
(-7.44142e-14 9.01505e-15 0)
(-7.41881e-14 8.39212e-15 0)
(-7.31245e-14 7.47044e-15 0)
(-7.19248e-14 6.22246e-15 0)
(-7.12847e-14 4.93726e-15 0)
(-7.06316e-14 3.83689e-15 0)
(-7.02389e-14 2.56213e-15 0)
(-7.02002e-14 1.23264e-15 0)
(-7.02009e-14 1.21716e-16 0)
(-7.06343e-14 -9.99066e-16 0)
(-7.13928e-14 -1.72462e-15 0)
(-7.20781e-14 -2.15246e-15 0)
(-7.21917e-14 -2.43647e-15 0)
(-7.09915e-14 -2.45082e-15 0)
(-6.96167e-14 -2.90786e-15 0)
(-6.85883e-14 -3.38907e-15 0)
(-6.65448e-14 -4.44424e-15 0)
(-6.38764e-14 -5.60076e-15 0)
(-6.15273e-14 -5.91318e-15 0)
(-5.97536e-14 -6.46266e-15 0)
(-5.82273e-14 -6.44587e-15 0)
(-5.56176e-14 -7.37786e-15 0)
(-5.25493e-14 -8.01009e-15 0)
(-5.03368e-14 -8.48314e-15 0)
(-4.8796e-14 -8.74381e-15 0)
(-4.66636e-14 -8.07505e-15 0)
(-4.34003e-14 -7.21674e-15 0)
(-4.03472e-14 -6.88924e-15 0)
(-3.68344e-14 -6.44094e-15 0)
(-3.16036e-14 -5.62177e-15 0)
(-2.50618e-14 -4.26655e-15 0)
(-1.6657e-14 -3.00517e-15 0)
(-5.90769e-15 -1.2446e-15 0)
(-1.74457e-15 9.86694e-16 0)
(-5.81951e-15 2.64306e-15 0)
(-1.0117e-14 4.0569e-15 0)
(-1.34238e-14 5.03839e-15 0)
(-1.64302e-14 5.53101e-15 0)
(-2.06513e-14 5.80292e-15 0)
(-2.56728e-14 6.48353e-15 0)
(-2.99358e-14 6.7769e-15 0)
(-3.31445e-14 6.57795e-15 0)
(-3.64091e-14 6.02628e-15 0)
(-4.03612e-14 5.89061e-15 0)
(-4.33526e-14 7.06929e-15 0)
(-4.48728e-14 9.02023e-15 0)
(-4.65027e-14 1.07725e-14 0)
(-4.82867e-14 1.18847e-14 0)
(-4.97479e-14 1.33684e-14 0)
(-5.09759e-14 1.50671e-14 0)
(-5.14292e-14 1.61468e-14 0)
(-5.17482e-14 1.61324e-14 0)
(-5.24205e-14 1.61006e-14 0)
(-5.25861e-14 1.66839e-14 0)
(-5.25421e-14 1.76674e-14 0)
(-5.18252e-14 1.894e-14 0)
(-5.01291e-14 1.95148e-14 0)
(-4.94594e-14 1.98557e-14 0)
(-5.03293e-14 1.96001e-14 0)
(-5.13683e-14 1.95493e-14 0)
(-5.19359e-14 2.06127e-14 0)
(-5.17481e-14 2.29688e-14 0)
(-5.11313e-14 2.46435e-14 0)
(-5.02997e-14 2.56789e-14 0)
(-4.92233e-14 2.66973e-14 0)
(-4.78683e-14 2.73914e-14 0)
(-4.61788e-14 2.71167e-14 0)
(-4.52825e-14 2.70113e-14 0)
(-4.53953e-14 2.70831e-14 0)
(-4.53321e-14 2.73391e-14 0)
(-4.53897e-14 2.76918e-14 0)
(-4.54777e-14 2.80934e-14 0)
(-4.53642e-14 2.87253e-14 0)
(-4.573e-14 2.88815e-14 0)
(-4.70591e-14 2.90185e-14 0)
(-4.9382e-14 2.93192e-14 0)
(-5.24012e-14 2.94633e-14 0)
(-5.57671e-14 2.95934e-14 0)
(-5.88626e-14 2.86747e-14 0)
(-6.02362e-14 2.84654e-14 0)
(-5.94781e-14 2.82255e-14 0)
(-5.89347e-14 2.79991e-14 0)
(-6.00173e-14 2.73786e-14 0)
(-6.14211e-14 2.63874e-14 0)
(-6.22982e-14 2.54571e-14 0)
(-6.36395e-14 2.50385e-14 0)
(-6.53225e-14 2.40447e-14 0)
(-6.74412e-14 2.20734e-14 0)
(-6.93085e-14 2.03587e-14 0)
(-7.0455e-14 1.88675e-14 0)
(-7.21438e-14 1.7964e-14 0)
(-7.41417e-14 1.69155e-14 0)
(-7.64585e-14 1.67608e-14 0)
(-7.86255e-14 1.69797e-14 0)
(-7.9336e-14 1.66582e-14 0)
(-7.98281e-14 1.57905e-14 0)
(-8.04727e-14 1.47935e-14 0)
(-8.16148e-14 1.30923e-14 0)
(-8.39356e-14 1.18666e-14 0)
(-8.65326e-14 1.11096e-14 0)
(-8.78579e-14 1.03659e-14 0)
(-8.762e-14 9.73293e-15 0)
(-8.68456e-14 9.19598e-15 0)
(-8.5927e-14 8.25283e-15 0)
(-8.52755e-14 6.66073e-15 0)
(-8.45521e-14 4.65939e-15 0)
(-8.40877e-14 2.85399e-15 0)
(-8.38847e-14 1.35403e-15 0)
(-8.39043e-14 7.40734e-17 0)
(-8.42595e-14 -1.41321e-15 0)
(-8.46769e-14 -2.06563e-15 0)
(-8.51451e-14 -2.32486e-15 0)
(-8.51008e-14 -2.85763e-15 0)
(-8.39239e-14 -3.15796e-15 0)
(-8.24355e-14 -3.66395e-15 0)
(-8.12115e-14 -3.7419e-15 0)
(-7.92313e-14 -4.69934e-15 0)
(-7.61454e-14 -6.27962e-15 0)
(-7.3278e-14 -7.32033e-15 0)
(-7.09441e-14 -7.868e-15 0)
(-6.90196e-14 -8.07515e-15 0)
(-6.61884e-14 -8.54339e-15 0)
(-6.26714e-14 -9.43455e-15 0)
(-6.00648e-14 -1.04148e-14 0)
(-5.75788e-14 -1.09465e-14 0)
(-5.44168e-14 -1.02071e-14 0)
(-5.07171e-14 -9.37596e-15 0)
(-4.71156e-14 -8.77412e-15 0)
(-4.25418e-14 -8.19002e-15 0)
(-3.61082e-14 -6.8884e-15 0)
(-2.84438e-14 -5.19488e-15 0)
(-1.87654e-14 -3.36355e-15 0)
(-6.4539e-15 -1.16025e-15 0)
(-2.16136e-15 1.07266e-15 0)
(-6.70236e-15 2.6894e-15 0)
(-1.14345e-14 4.51964e-15 0)
(-1.56806e-14 5.83597e-15 0)
(-1.94887e-14 6.90041e-15 0)
(-2.38751e-14 7.43344e-15 0)
(-2.92963e-14 8.26537e-15 0)
(-3.45295e-14 8.55254e-15 0)
(-3.84945e-14 8.46727e-15 0)
(-4.22917e-14 8.396e-15 0)
(-4.62467e-14 8.28779e-15 0)
(-4.88539e-14 8.74644e-15 0)
(-5.04257e-14 1.03075e-14 0)
(-5.23896e-14 1.19113e-14 0)
(-5.44666e-14 1.37484e-14 0)
(-5.59107e-14 1.56918e-14 0)
(-5.73107e-14 1.77331e-14 0)
(-5.88756e-14 1.90433e-14 0)
(-5.98922e-14 1.87244e-14 0)
(-6.00569e-14 1.88645e-14 0)
(-5.95603e-14 2.01343e-14 0)
(-5.91042e-14 2.14633e-14 0)
(-5.87576e-14 2.26923e-14 0)
(-5.79061e-14 2.2686e-14 0)
(-5.75645e-14 2.1965e-14 0)
(-5.82378e-14 2.18592e-14 0)
(-5.86828e-14 2.22354e-14 0)
(-5.82518e-14 2.39102e-14 0)
(-5.78938e-14 2.62663e-14 0)
(-5.78497e-14 2.8209e-14 0)
(-5.70793e-14 2.96626e-14 0)
(-5.59948e-14 3.09946e-14 0)
(-5.4998e-14 3.16396e-14 0)
(-5.36095e-14 3.1599e-14 0)
(-5.23066e-14 3.11112e-14 0)
(-5.19423e-14 3.1755e-14 0)
(-5.21885e-14 3.2685e-14 0)
(-5.23983e-14 3.2597e-14 0)
(-5.23081e-14 3.30065e-14 0)
(-5.2417e-14 3.32417e-14 0)
(-5.29261e-14 3.31719e-14 0)
(-5.41531e-14 3.35697e-14 0)
(-5.66269e-14 3.37963e-14 0)
(-6.00023e-14 3.4228e-14 0)
(-6.39842e-14 3.41367e-14 0)
(-6.74032e-14 3.34423e-14 0)
(-6.87637e-14 3.33341e-14 0)
(-6.81487e-14 3.30216e-14 0)
(-6.78355e-14 3.28439e-14 0)
(-6.94382e-14 3.22339e-14 0)
(-7.10882e-14 3.10408e-14 0)
(-7.18942e-14 3.00017e-14 0)
(-7.32803e-14 2.88533e-14 0)
(-7.55571e-14 2.74518e-14 0)
(-7.82566e-14 2.58064e-14 0)
(-8.03345e-14 2.44092e-14 0)
(-8.1574e-14 2.27649e-14 0)
(-8.32029e-14 2.15031e-14 0)
(-8.50624e-14 2.02891e-14 0)
(-8.72554e-14 1.9595e-14 0)
(-8.97334e-14 1.92349e-14 0)
(-9.10644e-14 1.88859e-14 0)
(-9.18039e-14 1.80326e-14 0)
(-9.29559e-14 1.73239e-14 0)
(-9.45714e-14 1.52142e-14 0)
(-9.65857e-14 1.35681e-14 0)
(-9.89711e-14 1.27108e-14 0)
(-1.00369e-13 1.21006e-14 0)
(-1.00073e-13 1.11715e-14 0)
(-9.92152e-14 1.04383e-14 0)
(-9.87104e-14 9.38078e-15 0)
(-9.87499e-14 7.7405e-15 0)
(-9.81622e-14 5.26342e-15 0)
(-9.7337e-14 2.97304e-15 0)
(-9.6884e-14 1.34196e-15 0)
(-9.68788e-14 -1.17659e-16 0)
(-9.68786e-14 -1.24437e-15 0)
(-9.67653e-14 -1.92562e-15 0)
(-9.73541e-14 -2.54753e-15 0)
(-9.73944e-14 -3.28461e-15 0)
(-9.59329e-14 -3.71987e-15 0)
(-9.40073e-14 -4.20736e-15 0)
(-9.28081e-14 -4.43254e-15 0)
(-9.12944e-14 -5.42705e-15 0)
(-8.80685e-14 -7.23423e-15 0)
(-8.4305e-14 -8.44538e-15 0)
(-8.12227e-14 -8.81372e-15 0)
(-7.8899e-14 -9.16807e-15 0)
(-7.60301e-14 -9.45485e-15 0)
(-7.25713e-14 -1.07566e-14 0)
(-6.93066e-14 -1.20689e-14 0)
(-6.56468e-14 -1.25773e-14 0)
(-6.15401e-14 -1.22247e-14 0)
(-5.72632e-14 -1.14017e-14 0)
(-5.31222e-14 -1.05053e-14 0)
(-4.76464e-14 -9.57557e-15 0)
(-3.99389e-14 -7.93348e-15 0)
(-3.11126e-14 -5.90566e-15 0)
(-2.02328e-14 -3.41089e-15 0)
(-6.93249e-15 -1.08734e-15 0)
(-2.4752e-15 1.12755e-15 0)
(-7.47979e-15 3.24348e-15 0)
(-1.27233e-14 5.17564e-15 0)
(-1.73529e-14 6.43906e-15 0)
(-2.17432e-14 7.80417e-15 0)
(-2.69945e-14 9.01112e-15 0)
(-3.30932e-14 9.66235e-15 0)
(-3.89403e-14 1.01612e-14 0)
(-4.33145e-14 1.06187e-14 0)
(-4.74767e-14 1.05449e-14 0)
(-5.18811e-14 1.03732e-14 0)
(-5.44146e-14 1.05734e-14 0)
(-5.57506e-14 1.17189e-14 0)
(-5.76985e-14 1.3699e-14 0)
(-5.96275e-14 1.59374e-14 0)
(-6.12436e-14 1.80473e-14 0)
(-6.3183e-14 1.98808e-14 0)
(-6.55676e-14 2.12691e-14 0)
(-6.68893e-14 2.21055e-14 0)
(-6.64793e-14 2.26245e-14 0)
(-6.58048e-14 2.3611e-14 0)
(-6.57888e-14 2.42699e-14 0)
(-6.60373e-14 2.48119e-14 0)
(-6.57584e-14 2.50532e-14 0)
(-6.51482e-14 2.46799e-14 0)
(-6.5202e-14 2.46539e-14 0)
(-6.49252e-14 2.54338e-14 0)
(-6.40166e-14 2.72264e-14 0)
(-6.35714e-14 2.92122e-14 0)
(-6.34973e-14 3.16526e-14 0)
(-6.29238e-14 3.37436e-14 0)
(-6.21903e-14 3.50224e-14 0)
(-6.15717e-14 3.5025e-14 0)
(-6.04809e-14 3.51649e-14 0)
(-5.89343e-14 3.51499e-14 0)
(-5.7953e-14 3.60783e-14 0)
(-5.84421e-14 3.7229e-14 0)
(-5.89225e-14 3.76009e-14 0)
(-5.88227e-14 3.80397e-14 0)
(-5.91377e-14 3.80898e-14 0)
(-5.95197e-14 3.81124e-14 0)
(-6.08518e-14 3.80967e-14 0)
(-6.34568e-14 3.73985e-14 0)
(-6.70772e-14 3.74329e-14 0)
(-7.16588e-14 3.75637e-14 0)
(-7.51362e-14 3.81801e-14 0)
(-7.65533e-14 3.81614e-14 0)
(-7.61193e-14 3.79243e-14 0)
(-7.60388e-14 3.74783e-14 0)
(-7.81144e-14 3.67752e-14 0)
(-8.00955e-14 3.57835e-14 0)
(-8.12124e-14 3.43301e-14 0)
(-8.31052e-14 3.26403e-14 0)
(-8.54729e-14 3.10497e-14 0)
(-8.79645e-14 2.96838e-14 0)
(-9.02651e-14 2.86687e-14 0)
(-9.1787e-14 2.69843e-14 0)
(-9.36545e-14 2.51435e-14 0)
(-9.57297e-14 2.36811e-14 0)
(-9.78885e-14 2.24101e-14 0)
(-1.00222e-13 2.14311e-14 0)
(-1.01654e-13 2.09543e-14 0)
(-1.0272e-13 2.01731e-14 0)
(-1.04572e-13 1.91705e-14 0)
(-1.06677e-13 1.7301e-14 0)
(-1.0834e-13 1.53107e-14 0)
(-1.10406e-13 1.43175e-14 0)
(-1.11951e-13 1.37942e-14 0)
(-1.1189e-13 1.27513e-14 0)
(-1.11222e-13 1.16979e-14 0)
(-1.10933e-13 1.00325e-14 0)
(-1.11266e-13 8.20945e-15 0)
(-1.1096e-13 6.13921e-15 0)
(-1.09826e-13 3.8111e-15 0)
(-1.08985e-13 1.97764e-15 0)
(-1.08624e-13 7.56662e-17 0)
(-1.08406e-13 -8.10565e-16 0)
(-1.08442e-13 -1.83978e-15 0)
(-1.089e-13 -2.92079e-15 0)
(-1.08591e-13 -3.50209e-15 0)
(-1.07e-13 -3.76669e-15 0)
(-1.05016e-13 -4.27585e-15 0)
(-1.0373e-13 -5.23379e-15 0)
(-1.02409e-13 -6.10791e-15 0)
(-9.89287e-14 -7.35924e-15 0)
(-9.44082e-14 -8.45994e-15 0)
(-9.08093e-14 -9.30695e-15 0)
(-8.81519e-14 -9.99011e-15 0)
(-8.53155e-14 -1.05858e-14 0)
(-8.18275e-14 -1.18011e-14 0)
(-7.78766e-14 -1.30006e-14 0)
(-7.33408e-14 -1.37927e-14 0)
(-6.8277e-14 -1.41249e-14 0)
(-6.31356e-14 -1.33799e-14 0)
(-5.82804e-14 -1.21343e-14 0)
(-5.18336e-14 -1.05098e-14 0)
(-4.3102e-14 -8.68173e-15 0)
(-3.31507e-14 -6.31496e-15 0)
(-2.14497e-14 -3.57703e-15 0)
(-7.46861e-15 -1.19551e-15 0)
(-2.64627e-15 1.35204e-15 0)
(-8.13223e-15 3.77996e-15 0)
(-1.41431e-14 5.94608e-15 0)
(-1.94762e-14 7.55018e-15 0)
(-2.40322e-14 8.60477e-15 0)
(-2.96881e-14 9.85e-15 0)
(-3.64033e-14 1.0495e-14 0)
(-4.25641e-14 1.15082e-14 0)
(-4.77305e-14 1.26028e-14 0)
(-5.27506e-14 1.24068e-14 0)
(-5.72268e-14 1.18637e-14 0)
(-5.9526e-14 1.25979e-14 0)
(-6.03621e-14 1.3922e-14 0)
(-6.19929e-14 1.62148e-14 0)
(-6.43474e-14 1.83894e-14 0)
(-6.63835e-14 2.01788e-14 0)
(-6.85483e-14 2.1646e-14 0)
(-7.10294e-14 2.32011e-14 0)
(-7.28193e-14 2.50983e-14 0)
(-7.29598e-14 2.59054e-14 0)
(-7.24043e-14 2.5801e-14 0)
(-7.22879e-14 2.5884e-14 0)
(-7.22437e-14 2.67612e-14 0)
(-7.20534e-14 2.75596e-14 0)
(-7.18935e-14 2.79425e-14 0)
(-7.17017e-14 2.80229e-14 0)
(-7.07868e-14 2.92657e-14 0)
(-6.943e-14 3.06307e-14 0)
(-6.85244e-14 3.26052e-14 0)
(-6.82878e-14 3.49508e-14 0)
(-6.82086e-14 3.71218e-14 0)
(-6.84592e-14 3.82721e-14 0)
(-6.80891e-14 3.84625e-14 0)
(-6.65302e-14 3.84801e-14 0)
(-6.45212e-14 3.90818e-14 0)
(-6.3239e-14 4.01411e-14 0)
(-6.38855e-14 4.13938e-14 0)
(-6.46422e-14 4.24174e-14 0)
(-6.48356e-14 4.2961e-14 0)
(-6.53292e-14 4.27147e-14 0)
(-6.60151e-14 4.22199e-14 0)
(-6.79634e-14 4.1452e-14 0)
(-7.06534e-14 4.10884e-14 0)
(-7.37174e-14 4.07685e-14 0)
(-7.75883e-14 4.12259e-14 0)
(-8.14269e-14 4.25869e-14 0)
(-8.36996e-14 4.28906e-14 0)
(-8.36538e-14 4.26098e-14 0)
(-8.39199e-14 4.21417e-14 0)
(-8.61593e-14 4.11438e-14 0)
(-8.86055e-14 4.00213e-14 0)
(-9.01806e-14 3.81901e-14 0)
(-9.19397e-14 3.64019e-14 0)
(-9.42791e-14 3.51879e-14 0)
(-9.68964e-14 3.36681e-14 0)
(-9.95904e-14 3.23856e-14 0)
(-1.01849e-13 3.05277e-14 0)
(-1.03743e-13 2.82218e-14 0)
(-1.0561e-13 2.69765e-14 0)
(-1.07856e-13 2.54916e-14 0)
(-1.10122e-13 2.43956e-14 0)
(-1.11638e-13 2.3678e-14 0)
(-1.13056e-13 2.22987e-14 0)
(-1.15274e-13 2.0805e-14 0)
(-1.17864e-13 1.91672e-14 0)
(-1.19462e-13 1.69483e-14 0)
(-1.20965e-13 1.53844e-14 0)
(-1.22545e-13 1.48877e-14 0)
(-1.22726e-13 1.41011e-14 0)
(-1.22358e-13 1.28701e-14 0)
(-1.2241e-13 1.13384e-14 0)
(-1.22716e-13 9.16528e-15 0)
(-1.22462e-13 7.41118e-15 0)
(-1.21429e-13 5.27131e-15 0)
(-1.20638e-13 3.00507e-15 0)
(-1.19918e-13 7.63597e-16 0)
(-1.19257e-13 -6.33407e-16 0)
(-1.1925e-13 -1.78912e-15 0)
(-1.19436e-13 -2.91826e-15 0)
(-1.18739e-13 -3.41625e-15 0)
(-1.17007e-13 -3.48911e-15 0)
(-1.15289e-13 -3.78927e-15 0)
(-1.13978e-13 -5.34017e-15 0)
(-1.12237e-13 -6.30266e-15 0)
(-1.08684e-13 -7.17966e-15 0)
(-1.04087e-13 -8.37594e-15 0)
(-1.00122e-13 -9.46416e-15 0)
(-9.70015e-14 -1.06061e-14 0)
(-9.38797e-14 -1.1336e-14 0)
(-9.01885e-14 -1.25492e-14 0)
(-8.58942e-14 -1.37019e-14 0)
(-8.08174e-14 -1.48091e-14 0)
(-7.47187e-14 -1.52148e-14 0)
(-6.83208e-14 -1.47244e-14 0)
(-6.24611e-14 -1.34743e-14 0)
(-5.53644e-14 -1.14084e-14 0)
(-4.57929e-14 -9.35992e-15 0)
(-3.48598e-14 -6.72858e-15 0)
(-2.24343e-14 -3.96564e-15 0)
(-7.78391e-15 -1.2266e-15 0)
(-2.88324e-15 1.37833e-15 0)
(-8.74992e-15 4.06864e-15 0)
(-1.5138e-14 6.46791e-15 0)
(-2.11554e-14 8.86851e-15 0)
(-2.64133e-14 1.04176e-14 0)
(-3.26011e-14 1.10225e-14 0)
(-3.95293e-14 1.14987e-14 0)
(-4.57158e-14 1.24649e-14 0)
(-5.1646e-14 1.36092e-14 0)
(-5.7662e-14 1.39893e-14 0)
(-6.19988e-14 1.39888e-14 0)
(-6.37246e-14 1.52681e-14 0)
(-6.4411e-14 1.69309e-14 0)
(-6.61512e-14 1.86967e-14 0)
(-6.87909e-14 2.02057e-14 0)
(-7.12006e-14 2.20643e-14 0)
(-7.353e-14 2.33296e-14 0)
(-7.57678e-14 2.48363e-14 0)
(-7.77644e-14 2.69956e-14 0)
(-7.891e-14 2.83424e-14 0)
(-7.88157e-14 2.84527e-14 0)
(-7.8098e-14 2.81184e-14 0)
(-7.78223e-14 2.8804e-14 0)
(-7.78976e-14 2.96591e-14 0)
(-7.77987e-14 3.04189e-14 0)
(-7.71969e-14 3.12053e-14 0)
(-7.59428e-14 3.26157e-14 0)
(-7.44466e-14 3.42406e-14 0)
(-7.32051e-14 3.59874e-14 0)
(-7.28789e-14 3.77822e-14 0)
(-7.30439e-14 3.96033e-14 0)
(-7.36026e-14 4.08215e-14 0)
(-7.36483e-14 4.1918e-14 0)
(-7.21061e-14 4.25095e-14 0)
(-6.9684e-14 4.3389e-14 0)
(-6.8161e-14 4.42445e-14 0)
(-6.86551e-14 4.52188e-14 0)
(-6.96682e-14 4.6643e-14 0)
(-7.05417e-14 4.72891e-14 0)
(-7.16924e-14 4.67969e-14 0)
(-7.25717e-14 4.57823e-14 0)
(-7.39694e-14 4.51293e-14 0)
(-7.64531e-14 4.53598e-14 0)
(-7.97128e-14 4.54392e-14 0)
(-8.33186e-14 4.57194e-14 0)
(-8.71689e-14 4.58995e-14 0)
(-9.00403e-14 4.66767e-14 0)
(-9.04047e-14 4.66098e-14 0)
(-9.10716e-14 4.61807e-14 0)
(-9.38475e-14 4.51366e-14 0)
(-9.66669e-14 4.39461e-14 0)
(-9.85097e-14 4.22626e-14 0)
(-1.00201e-13 4.03524e-14 0)
(-1.02648e-13 3.86145e-14 0)
(-1.05495e-13 3.68223e-14 0)
(-1.0838e-13 3.55076e-14 0)
(-1.11012e-13 3.35864e-14 0)
(-1.12798e-13 3.15039e-14 0)
(-1.14639e-13 3.02347e-14 0)
(-1.17042e-13 2.81191e-14 0)
(-1.19141e-13 2.67612e-14 0)
(-1.21079e-13 2.58664e-14 0)
(-1.22984e-13 2.42872e-14 0)
(-1.2527e-13 2.25667e-14 0)
(-1.28132e-13 2.09472e-14 0)
(-1.29941e-13 1.90424e-14 0)
(-1.30911e-13 1.70641e-14 0)
(-1.32016e-13 1.63491e-14 0)
(-1.3258e-13 1.57666e-14 0)
(-1.32502e-13 1.36534e-14 0)
(-1.32916e-13 1.20233e-14 0)
(-1.33402e-13 1.04259e-14 0)
(-1.33051e-13 8.65904e-15 0)
(-1.32271e-13 6.3952e-15 0)
(-1.31483e-13 3.86508e-15 0)
(-1.3046e-13 1.2888e-15 0)
(-1.29414e-13 9.38816e-17 0)
(-1.29203e-13 -8.98244e-16 0)
(-1.29093e-13 -2.11104e-15 0)
(-1.27871e-13 -2.68675e-15 0)
(-1.25934e-13 -2.88186e-15 0)
(-1.24769e-13 -3.3277e-15 0)
(-1.23636e-13 -5.12906e-15 0)
(-1.2143e-13 -6.19601e-15 0)
(-1.17684e-13 -7.01149e-15 0)
(-1.12839e-13 -8.50296e-15 0)
(-1.08683e-13 -9.55894e-15 0)
(-1.05209e-13 -1.06672e-14 0)
(-1.01839e-13 -1.17244e-14 0)
(-9.80392e-14 -1.30863e-14 0)
(-9.33447e-14 -1.43557e-14 0)
(-8.75382e-14 -1.52395e-14 0)
(-8.05081e-14 -1.53603e-14 0)
(-7.32756e-14 -1.50597e-14 0)
(-6.62984e-14 -1.38855e-14 0)
(-5.82068e-14 -1.16997e-14 0)
(-4.79101e-14 -9.70087e-15 0)
(-3.62057e-14 -7.12441e-15 0)
(-2.31467e-14 -4.29282e-15 0)
(-8.10263e-15 -1.28548e-15 0)
(-2.98334e-15 1.64178e-15 0)
(-9.24066e-15 4.70367e-15 0)
(-1.5912e-14 7.30311e-15 0)