/*--------------------------------*- C++ -*----------------------------------*\
| =========                 |                                                 |
| \\      /  F ield         | OpenFOAM: The Open Source CFD Toolbox           |
|  \\    /   O peration     | Version:  v2012                                 |
|   \\  /    A nd           | Website:  www.openfoam.com                      |
|    \\/     M anipulation  |                                                 |
\*---------------------------------------------------------------------------*/
FoamFile
{
    version     2.0;
    format      ascii;
    class       volVectorField;
    location    "0";
    object      U;
}
// * * * * * * * * * * * * * * * * * * * * * * * * * * * * * * * * * * * * * //

dimensions      [0 1 -1 0 0 0 0];


internalField   nonuniform List<vector> 
4000
(
(1 2.81405e-15 0)
(1 4.42232e-15 0)
(1 2.68878e-17 0)
(1 -4.47e-15 0)
(1 -1.64397e-15 0)
(1 3.06747e-15 0)
(1 1.23256e-15 0)
(1 3.43994e-15 0)
(1 -4.55316e-15 0)
(1 -3.23823e-15 0)
(1 3.05405e-16 0)
(1 -2.71625e-15 0)
(1 3.00006e-15 0)
(1 7.41979e-16 0)
(1 2.87589e-15 0)
(1 -1.90752e-15 0)
(1 1.78167e-15 0)
(1 -3.19753e-15 0)
(1 -1.60828e-15 0)
(1 -2.05999e-15 0)
(1 2.45812e-17 0)
(1 -7.07727e-15 0)
(1 -1.66299e-15 0)
(1 -4.95967e-15 0)
(1 -2.55519e-17 0)
(1 -1.28401e-15 0)
(1 -2.85843e-15 0)
(1 4.46213e-15 0)
(1 -2.58438e-15 0)
(1 4.07186e-15 0)
(1 -2.49829e-16 0)
(1 3.76772e-15 0)
(1 3.24651e-15 0)
(1 1.54108e-17 0)
(1 5.42782e-15 0)
(1 1.08106e-14 0)
(1 7.29407e-15 0)
(1 7.36728e-15 0)
(1 -2.39162e-15 0)
(1 -6.94303e-15 0)
(1 -6.45695e-15 0)
(1 -3.07597e-15 0)
(1 -2.87521e-15 0)
(1 3.05361e-15 0)
(1 -5.2138e-16 0)
(1 5.25456e-16 0)
(1 -4.68133e-15 0)
(1 -6.27153e-16 0)
(1 2.83373e-15 0)
(1 2.19735e-16 0)
(1 2.03305e-15 0)
(1 3.80313e-15 0)
(1 3.34465e-15 0)
(1 -1.50064e-15 0)
(1 3.65243e-15 0)
(1 1.1255e-15 0)
(1 -3.43649e-15 0)
(1 -2.05719e-16 0)
(1 -2.13839e-15 0)
(1 4.63306e-15 0)
(1 2.86104e-15 0)
(1 1.82119e-15 0)
(1 3.64713e-15 0)
(1 -2.98144e-15 0)
(1 -3.50036e-15 0)
(1 -1.23692e-15 0)
(1 -1.59757e-15 0)
(1 3.25897e-16 0)
(1 -4.08932e-16 0)
(1 -1.1042e-16 0)
(1 -3.70046e-15 0)
(1 -2.70491e-15 0)
(1 7.72054e-16 0)
(1 5.00443e-16 0)
(1 -1.20143e-15 0)
(1 -3.08556e-15 0)
(1 -4.65752e-15 0)
(1 -2.70272e-15 0)
(1 2.55099e-15 0)
(1 3.4441e-15 0)
(1 -8.46125e-16 0)
(1 -3.10178e-15 0)
(1 2.93038e-16 0)
(1 3.25776e-17 0)
(1 -3.00853e-15 0)
(1 3.97665e-16 0)
(1 1.9873e-15 0)
(1 6.46711e-15 0)
(1 -1.67348e-15 0)
(1 6.63636e-15 0)
(1 9.14102e-16 0)
(1 2.21788e-15 0)
(1 -2.92351e-15 0)
(1 1.26179e-17 0)
(1 -3.45384e-15 0)
(1 -6.65128e-16 0)
(1 6.77658e-16 0)
(1 1.37679e-15 0)
(1 -3.89152e-16 0)
(1 -2.55913e-15 0)
(1 4.03426e-15 0)
(1 2.44314e-15 0)
(1 2.26621e-15 0)
(1 -3.13141e-15 0)
(1 3.72019e-15 0)
(1 2.42168e-15 0)
(1 1.19068e-15 0)
(1 -6.97413e-16 0)
(1 -6.20513e-15 0)
(1 -3.87152e-15 0)
(1 1.33128e-15 0)
(1 -8.85785e-16 0)
(1 3.97212e-15 0)
(1 7.79217e-15 0)
(1 5.48073e-15 0)
(1 -2.16944e-15 0)
(1 5.46264e-16 0)
(1 -6.96265e-15 0)
(1 6.09493e-17 0)
(1 -4.98227e-15 0)
(1 1.90492e-16 0)
(1 -5.07784e-16 0)
(1 -1.29902e-15 0)
(1 -5.70732e-15 0)
(1 -7.89701e-15 0)
(1 -2.45268e-15 0)
(1 -6.66876e-15 0)
(1 2.8636e-15 0)
(1 -3.98034e-16 0)
(1 2.22405e-15 0)
(1 -1.00771e-15 0)
(1 6.84171e-15 0)
(1 4.39354e-15 0)
(1 1.0763e-15 0)
(1 2.48132e-15 0)
(1 9.09879e-15 0)
(1 5.74204e-15 0)
(1 5.13668e-15 0)
(1 -7.07119e-15 0)
(1 -6.21196e-15 0)
(1 -4.47223e-15 0)
(1 -1.12407e-15 0)
(1 -2.26091e-15 0)
(1 4.70982e-15 0)
(1 -2.13685e-15 0)
(1 -5.76388e-15 0)
(1 -9.97837e-15 0)
(1 -1.76753e-15 0)
(1 2.14811e-15 0)
(1 5.76358e-16 0)
(1 -7.22643e-16 0)
(1 3.37239e-15 0)
(1 2.27644e-15 0)
(1 1.20967e-15 0)
(1 4.34257e-15 0)
(1 2.78668e-15 0)
(1 -4.18978e-15 0)
(1 -1.13939e-15 0)
(1 -6.32812e-15 0)
(1 -3.35983e-15 0)
(1 -1.68813e-15 0)
(1 4.02818e-15 0)
(1 6.05786e-15 0)
(1 7.17853e-16 0)
(1 2.14885e-15 0)
(1 1.65148e-15 0)
(1 -1.83948e-15 0)
(1 -5.75573e-16 0)
(1 -6.7768e-16 0)
(1 1.36301e-15 0)
(1 -3.60572e-15 0)
(1 3.63252e-16 0)
(1 5.866e-15 0)
(1 3.50215e-15 0)
(1 -7.54198e-17 0)
(1 -1.74388e-16 0)
(1 -4.16339e-15 0)
(1 4.11263e-16 0)
(1 3.62555e-15 0)
(1 4.05917e-15 0)
(1 1.70827e-15 0)
(1 -6.24437e-15 0)
(1 1.45955e-15 0)
(1 4.68285e-15 0)
(1 -2.92283e-15 0)
(1 2.84993e-15 0)
(1 -3.43661e-15 0)
(1 3.02831e-15 0)
(1 -5.47202e-15 0)
(1 1.76895e-15 0)
(1 3.14583e-16 0)
(1 4.80257e-16 0)
(1 -5.53765e-15 0)
(1 5.20708e-16 0)
(1 -1.75286e-15 0)
(1 1.14545e-16 0)
(1 2.6952e-15 0)
(1 2.06559e-15 0)
(1 -2.52786e-15 0)
(1 -1.97383e-15 0)
(1 -1.76564e-15 0)
(1 1.2685e-15 0)
(1 -4.27142e-15 0)
(1 2.70335e-15 0)
(1 1.67899e-16 0)
(1 2.12179e-15 0)
(1 -4.65196e-15 0)
(1 1.38341e-15 0)
(1 3.73442e-15 0)
(1 -1.02438e-15 0)
(1 -2.65741e-15 0)
(1 4.77314e-15 0)
(1 3.13262e-15 0)
(1 1.063e-14 0)
(1 1.86427e-15 0)
(1 -2.13585e-15 0)
(1 -9.16931e-15 0)
(1 -2.04032e-15 0)
(1 3.28197e-16 0)
(1 -7.23246e-16 0)
(1 9.00314e-16 0)
(1 8.46909e-15 0)
(1 3.8202e-15 0)
(1 -1.76178e-16 0)
(1 -2.53671e-15 0)
(1 -1.50699e-15 0)
(1 2.12494e-15 0)
(1 5.26947e-15 0)
(1 1.82063e-15 0)
(1 -4.5657e-16 0)
(1 -1.64157e-15 0)
(1 -1.75137e-15 0)
(1 4.357e-16 0)
(1 4.50805e-15 0)
(1 2.71568e-15 0)
(1 6.28825e-15 0)
(1 6.19688e-15 0)
(1 8.17146e-15 0)
(1 3.15897e-16 0)
(1 3.10761e-16 0)
(1 -3.96801e-15 0)
(1 9.04974e-16 0)
(1 -4.01546e-15 0)
(1 -8.17157e-16 0)
(1 -2.87344e-15 0)
(1 -8.65675e-15 0)
(1 1.31386e-16 0)
(1 -1.98001e-15 0)
(1 -7.89537e-15 0)
(1 -5.57583e-15 0)
(1 -1.37093e-15 0)
(1 5.45235e-15 0)
(1 8.34479e-15 0)
(1 6.88645e-15 0)
(1 2.05528e-15 0)
(1 4.2441e-15 0)
(1 1.38336e-15 0)
(1 -7.43948e-16 0)
(1 -4.77934e-15 0)
(1 -7.93695e-15 0)
(1 -4.18173e-15 0)
(1 1.71942e-15 0)
(1 -2.37853e-15 0)
(1 2.339e-15 0)
(1 3.93191e-15 0)
(1 3.69276e-15 0)
(1 -1.50268e-17 0)
(1 -6.38057e-16 0)
(1 9.57745e-17 0)
(1 -3.62389e-16 0)
(1 -1.75775e-15 0)
(1 7.45812e-16 0)
(1 2.40048e-16 0)
(1 1.07789e-15 0)
(1 -1.13279e-15 0)
(1 -3.32305e-15 0)
(1 1.42595e-15 0)
(1 -3.50639e-15 0)
(1 2.88471e-15 0)
(1 -4.86942e-15 0)
(1 1.48394e-15 0)
(1 -1.34673e-15 0)
(1 -4.51076e-15 0)
(1 2.8636e-15 0)
(1 -8.17455e-16 0)
(1 4.55978e-15 0)
(1 -1.58615e-16 0)
(1 6.69391e-16 0)
(1 -2.76933e-15 0)
(1 -9.22947e-16 0)
(1 -1.49238e-15 0)
(1 -1.32068e-15 0)
(1 1.70379e-16 0)
(1 -8.25635e-16 0)
(1 2.3366e-15 0)
(1 -4.80668e-16 0)
(1 1.52709e-15 0)
(1 -6.34505e-16 0)
(1 -4.34231e-15 0)
(1 -9.19524e-16 0)
(1 6.70552e-16 0)
(1 -3.22595e-15 0)
(1 -6.41829e-15 0)
(1 -4.44752e-15 0)
(1 4.41307e-15 0)
(1 3.4387e-15 0)
(1 -2.47247e-15 0)
(1 6.23013e-15 0)
(1 9.64707e-15 0)
(1 -9.64695e-16 0)
(1 1.814e-15 0)
(1 3.85195e-15 0)
(1 5.41134e-15 0)
(1 2.68737e-15 0)
(1 -3.21185e-15 0)
(1 -1.29339e-15 0)
(1 -5.10477e-15 0)
(1 9.78468e-16 0)
(1 -6.292e-15 0)
(1 4.69692e-15 0)
(1 2.65252e-15 0)
(1 4.94295e-15 0)
(1 8.01922e-15 0)
(1 6.29394e-15 0)
(1 4.87333e-15 0)
(1 -6.31327e-16 0)
(1 2.15838e-15 0)
(1 3.35969e-15 0)
(1 1.24728e-15 0)
(1 -1.60764e-15 0)
(1 -8.48309e-16 0)
(1 -3.64194e-15 0)
(1 -2.35714e-15 0)
(1 5.41612e-16 0)
(1 1.4524e-15 0)
(1 8.84816e-15 0)
(1 1.07956e-14 0)
(1 8.83179e-16 0)
(1 2.94297e-15 0)
(1 1.54369e-15 0)
(1 4.69545e-17 0)
(1 1.24405e-15 0)
(1 -4.45568e-16 0)
(1 -3.70066e-15 0)
(1 -1.18991e-15 0)
(1 7.297e-16 0)
(1 3.86495e-15 0)
(1 -5.65473e-15 0)
(1 -2.51657e-15 0)
(1 -5.48998e-15 0)
(1 8.25191e-16 0)
(1 3.92531e-15 0)
(1 6.88177e-15 0)
(1 1.44953e-15 0)
(1 -8.7622e-16 0)
(1 3.20158e-16 0)
(1 -1.9428e-15 0)
(1 -3.90367e-15 0)
(1 -3.85331e-15 0)
(1 -1.93529e-15 0)
(1 -2.1282e-15 0)
(1 4.79652e-16 0)
(1 -1.1845e-15 0)
(1 3.60881e-15 0)
(1 1.65056e-16 0)
(1 -1.83104e-15 0)
(1 -2.88769e-15 0)
(1 -4.19635e-15 0)
(1 -8.57404e-16 0)
(1 -9.27349e-16 0)
(1 -8.27162e-16 0)
(1 -5.14928e-15 0)
(1 -4.76895e-15 0)
(1 -2.74743e-15 0)
(1 -5.59083e-16 0)
(1 4.10391e-15 0)
(1 2.44741e-15 0)
(1 -4.94999e-16 0)
(1 9.77258e-16 0)
(1 -6.18275e-16 0)
(1 -5.79623e-16 0)
(1 1.03807e-15 0)
(1 5.4091e-16 0)
(1 -1.25613e-15 0)
(1 2.44358e-15 0)
(1 2.09047e-15 0)
(1 1.01188e-14 0)
(1 3.45952e-15 0)
(1 2.11061e-15 0)
(1 -1.26617e-16 0)
(1 -1.0846e-15 0)
(1 5.48795e-16 0)
(1 2.50842e-15 0)
(1 1.29169e-15 0)
(1 -1.57004e-15 0)
(1 -2.31828e-15 0)
(1 -4.64166e-15 0)
(1 -7.20269e-15 0)
(1 -5.49566e-15 0)
(1 -2.84573e-15 0)
(1 4.68909e-15 0)
(1 -3.10729e-15 0)
(1 -4.06811e-15 0)
(1 -3.57444e-16 0)
(1 9.24531e-15 0)
(1 -8.10765e-16 0)
(1 -8.86221e-16 0)
(1 -9.89259e-15 0)
(1 -2.8605e-15 0)
(1 3.5859e-16 0)
(1 5.57276e-15 0)
(1 3.17611e-15 0)
(1 2.31534e-15 0)
(1 -1.97957e-15 0)
(1 2.17042e-15 0)
(1 -4.73656e-16 0)
(1 5.63644e-15 0)
(1 -6.19161e-15 0)
(1 -9.51774e-16 0)
(1 -3.08655e-15 0)
(1 -5.6889e-16 0)
(1 -5.09451e-16 0)
(1 1.35356e-14 0)
(1 1.08882e-14 0)
(1 8.92214e-15 0)
(1 2.50083e-15 0)
(1 4.62922e-15 0)
(1 6.73841e-16 0)
(1 5.07995e-15 0)
(1 -4.02813e-17 0)
(1 -3.7039e-15 0)
(1 5.33127e-16 0)
(1 -4.72487e-16 0)
(1 -2.42057e-16 0)
(1 4.38154e-15 0)
(1 3.3862e-15 0)
(1 3.22669e-15 0)
(1 -6.6559e-15 0)
(1 -2.41468e-15 0)
(1 2.31407e-15 0)
(1 7.78737e-15 0)
(1 5.84923e-15 0)
(1 -3.2429e-15 0)
(1 -6.55094e-15 0)
(1 -9.0298e-15 0)
(1 -1.97551e-15 0)
(1 -3.85477e-15 0)
(1 -2.47431e-15 0)
(1 1.58185e-15 0)
(1 -3.98297e-16 0)
(1 3.64135e-15 0)
(1 -5.0748e-16 0)
(1 1.17834e-15 0)
(1 2.78387e-15 0)
(1 6.02317e-15 0)
(1 1.52371e-15 0)
(1 -3.79236e-16 0)
(1 1.8274e-16 0)
(1 2.83803e-15 0)
(1 -1.8669e-15 0)
(1 8.54278e-16 0)
(1 4.9494e-17 0)
(1 2.80646e-16 0)
(1 -2.08903e-15 0)
(1 2.11876e-15 0)
(1 -8.18459e-16 0)
(1 1.12219e-15 0)
(1 -3.92568e-15 0)
(1 2.37878e-16 0)
(1 1.87606e-16 0)
(1 1.22791e-15 0)
(1 -1.60074e-16 0)
(1 2.45756e-15 0)
(1 -7.81589e-16 0)
(1 -3.60834e-15 0)
(1 5.64705e-15 0)
(1 -1.94765e-15 0)
(1 4.03905e-15 0)
(1 -1.09613e-15 0)
(1 5.45377e-15 0)
(1 1.97266e-15 0)
(1 1.05988e-15 0)
(1 2.25501e-15 0)
(1 -3.1522e-16 0)
(1 3.76795e-15 0)
(1 4.34304e-15 0)
(1 4.45501e-15 0)
(1 -1.10401e-15 0)
(1 2.13189e-15 0)
(1 -2.79697e-15 0)
(1 2.3258e-15 0)
(1 9.0388e-16 0)
(1 3.00314e-15 0)
(1 4.08936e-15 0)
(1 -2.05217e-15 0)
(1 1.0085e-15 0)
(1 -5.94881e-15 0)
(1 -6.45567e-15 0)
(1 -1.94478e-16 0)
(1 -2.87796e-17 0)
(1 -1.76452e-15 0)
(1 1.99257e-15 0)
(1 -2.86483e-15 0)
(1 1.70128e-15 0)
(1 -5.66663e-16 0)
(1 2.03088e-15 0)
(1 -5.37524e-15 0)
(1 -9.60273e-15 0)
(1 -6.80028e-15 0)
(1 4.80921e-15 0)
(1 4.3979e-15 0)
(1 9.21923e-15 0)
(1 5.43163e-15 0)
(1 -2.06246e-15 0)
(1 4.5741e-15 0)
(1 -3.86059e-15 0)
(1 2.14265e-15 0)
(1 -1.02232e-14 0)
(1 4.4602e-15 0)
(1 -1.09204e-16 0)
(1 5.91102e-15 0)
(1 1.00774e-14 0)
(1 1.31248e-14 0)
(1 4.29744e-15 0)
(1 4.13556e-15 0)
(1 9.9805e-16 0)
(1 -3.94134e-16 0)
(1 2.59384e-15 0)
(1 -4.79651e-16 0)
(1 -9.20212e-16 0)
(1 -5.55307e-15 0)
(1 -1.99141e-15 0)
(1 -4.53573e-16 0)
(1 6.39452e-15 0)
(1 1.41419e-14 0)
(1 4.54025e-15 0)
(1 7.78753e-15 0)
(1 8.81893e-15 0)
(1 -1.00568e-16 0)
(1 -1.15195e-14 0)
(1 -1.9997e-15 0)
(1 1.84057e-15 0)
(1 5.37285e-15 0)
(1 1.32075e-15 0)
(1 -8.55475e-16 0)
(1 -4.90429e-15 0)
(1 -1.55862e-15 0)
(1 -1.60987e-15 0)
(1 -6.04289e-15 0)
(1 -1.17211e-15 0)
(1 2.53684e-15 0)
(1 1.64727e-15 0)
(1 -1.74181e-16 0)
(1 2.71752e-15 0)
(1 7.33914e-15 0)
(1 9.23823e-16 0)
(1 4.46989e-15 0)
(1 2.7265e-15 0)
(1 6.74331e-15 0)
(1 3.22638e-15 0)
(1 2.05017e-15 0)
(1 -3.30068e-16 0)
(1 -2.54842e-15 0)
(1 -5.46045e-15 0)
(1 -1.85794e-15 0)
(1 1.86809e-16 0)
(1 4.75153e-15 0)
(1 6.34077e-15 0)
(1 8.02786e-15 0)
(1 1.31701e-14 0)
(1 6.29598e-15 0)
(1 4.8592e-15 0)
(1 3.13588e-15 0)
(1 2.22694e-15 0)
(1 -3.92329e-15 0)
(1 -5.19926e-15 0)
(1 -2.86458e-15 0)
(1 2.66399e-15 0)
(1 -4.42167e-15 0)
(1 -2.17915e-15 0)
(1 5.21139e-15 0)
(1 8.10576e-15 0)
(1 4.75192e-15 0)
(1 1.84151e-15 0)
(1 -5.06898e-15 0)
(1 -2.17146e-15 0)
(1 1.3694e-15 0)
(1 4.61339e-16 0)
(1 2.33962e-16 0)
(1 1.78939e-17 0)
(1 1.26569e-15 0)
(1 1.70699e-15 0)
(1 2.59404e-15 0)
(1 1.70353e-15 0)
(1 5.81707e-15 0)
(1 6.08262e-15 0)
(1 3.01041e-15 0)
(1 2.66847e-15 0)
(1 3.82867e-15 0)
(1 3.19365e-15 0)
(1 -6.5943e-16 0)
(1 -3.41138e-15 0)
(1 5.05783e-15 0)
(1 2.85206e-15 0)
(1 -2.33762e-15 0)
(1 -9.30536e-16 0)
(1 -8.93446e-16 0)
(1 -2.42213e-15 0)
(1 1.07248e-15 0)
(1 8.3242e-16 0)
(1 6.73095e-16 0)
(1 6.37817e-15 0)
(1 1.29224e-15 0)
(1 3.51356e-15 0)
(1 -1.04101e-15 0)
(1 -8.74502e-16 0)
(1 -7.29899e-16 0)
(1 1.7306e-15 0)
(1 3.09542e-15 0)
(1 1.62356e-14 0)
(1 1.31364e-14 0)
(1 1.28466e-14 0)
(1 -1.15238e-15 0)
(1 -1.0067e-14 0)
(1 -1.1981e-14 0)
(1 1.05686e-15 0)
(1 -3.29546e-15 0)
(1 3.76051e-16 0)
(1 -1.04335e-15 0)
(1 1.78982e-15 0)
(1 3.51669e-15 0)
(1 7.13644e-15 0)
(1 -6.24259e-16 0)
(1 5.22418e-15 0)
(1 -1.62137e-16 0)
(1 2.66716e-15 0)
(1 5.98145e-15 0)
(1 7.93282e-15 0)
(1 1.0652e-15 0)
(1 -6.20803e-15 0)
(1 1.01603e-14 0)
(1 4.65495e-15 0)
(1 1.2903e-14 0)
(1 -1.71437e-15 0)
(1 2.42044e-15 0)
(1 -1.07827e-14 0)
(1 -1.04089e-14 0)
(1 -5.14884e-15 0)
(1 6.0384e-15 0)
(1 4.92124e-15 0)
(1 -3.94948e-15 0)
(1 -1.59722e-15 0)
(1 -2.47962e-15 0)
(1 1.55065e-15 0)
(1 3.91826e-15 0)
(1 -1.54547e-15 0)
(1 3.06678e-15 0)
(1 4.80587e-15 0)
(1 1.22054e-15 0)
(1 8.05411e-15 0)
(1 4.57387e-15 0)
(1 5.45938e-16 0)
(1 1.11138e-15 0)
(1 1.71847e-15 0)
(1 -6.39963e-15 0)
(1 -1.4724e-15 0)
(1 -3.88424e-15 0)
(1 5.27612e-15 0)
(1 4.11505e-15 0)
(1 2.62902e-15 0)
(1 -9.81857e-16 0)
(1 9.53145e-16 0)
(1 1.60871e-15 0)
(1 3.62784e-15 0)
(1 7.58113e-15 0)
(1 4.41622e-15 0)
(1 6.36879e-15 0)
(1 9.13827e-15 0)
(1 -7.94175e-17 0)
(1 -1.01806e-15 0)
(1 2.22107e-15 0)
(1 5.90259e-15 0)
(1 5.27276e-15 0)
(1 1.27169e-15 0)
(1 -2.99881e-15 0)
(1 1.22788e-15 0)
(1 9.37441e-15 0)
(1 4.86507e-15 0)
(1 6.01185e-15 0)
(1 7.3221e-16 0)
(1 3.28862e-15 0)
(1 7.36392e-15 0)
(1 3.10219e-15 0)
(1 3.95368e-15 0)
(1 8.26624e-15 0)
(1 8.64211e-15 0)
(1 8.60126e-15 0)
(1 5.57325e-15 0)
(1 3.47291e-15 0)
(1 4.78474e-15 0)
(1 1.47429e-15 0)
(1 -3.14529e-15 0)
(1 -2.16256e-15 0)
(1 -1.0323e-15 0)
(1 -8.00517e-16 0)
(1 -3.12745e-15 0)
(1 5.49409e-15 0)
(1 -1.82283e-15 0)
(1 1.33262e-15 0)
(1 1.03723e-15 0)
(1 -3.37541e-15 0)
(1 -1.88251e-17 0)
(1 -3.66742e-16 0)
(1 1.21179e-14 0)
(1 -2.977e-15 0)
(1 6.45552e-15 0)
(1 -4.95572e-15 0)
(1 1.23428e-14 0)
(1 4.559e-15 0)
(1 1.88846e-14 0)
(1 2.75877e-15 0)
(1 2.1268e-15 0)
(1 -1.16727e-14 0)
(1 -9.80883e-15 0)
(1 -7.20382e-15 0)
(1 -4.15299e-16 0)
(1 3.8095e-15 0)
(1 4.83882e-15 0)
(1 1.25046e-15 0)
(1 1.79198e-15 0)
(1 6.72727e-16 0)
(1 7.9112e-15 0)
(1 -3.35274e-16 0)
(1 -1.34624e-15 0)
(1 -9.80683e-15 0)
(1 -4.46524e-15 0)
(1 -5.66864e-15 0)
(1 9.8582e-15 0)
(1 1.72401e-14 0)
(1 1.33732e-14 0)
(1 2.02877e-15 0)
(1 -4.27636e-15 0)
(1 9.46693e-16 0)
(1 2.58396e-15 0)
(1 -3.64674e-16 0)
(1 -1.35897e-15 0)
(1 -1.25354e-15 0)
(1 -1.00713e-15 0)
(1 3.2458e-15 0)
(1 -3.46956e-15 0)
(1 -4.06453e-15 0)
(1 1.98788e-15 0)
(1 4.46359e-15 0)
(1 7.62165e-15 0)
(1 5.26828e-15 0)
(1 1.94822e-15 0)
(1 3.77756e-15 0)
(1 4.87738e-15 0)
(1 2.22448e-15 0)
(1 6.06221e-15 0)
(1 7.63872e-15 0)
(1 -2.01061e-15 0)
(1 -1.83576e-16 0)
(1 -2.65197e-15 0)
(1 -2.27946e-15 0)
(1 -4.7557e-16 0)
(1 3.18727e-15 0)
(1 2.98426e-15 0)
(1 2.20454e-15 0)
(1 -5.40965e-15 0)
(1 3.89324e-15 0)
(1 1.09551e-14 0)
(1 8.17648e-15 0)
(1 7.49608e-15 0)
(1 1.00071e-14 0)
(1 6.51417e-15 0)
(1 4.16231e-15 0)
(1 3.66001e-15 0)
(1 3.81288e-15 0)
(1 2.20041e-16 0)
(1 -4.63447e-15 0)
(1 -9.12599e-16 0)
(1 -2.1352e-15 0)
(1 -1.83654e-15 0)
(1 1.79914e-15 0)
(1 3.17617e-15 0)
(1 7.54344e-15 0)
(1 4.63343e-15 0)
(1 4.30825e-15 0)
(1 4.56573e-15 0)
(1 2.64581e-15 0)
(1 -1.23517e-15 0)
(1 2.48541e-15 0)
(1 8.72243e-15 0)
(1 7.39012e-15 0)
(1 5.56881e-15 0)
(1 7.37618e-15 0)
(1 1.17504e-14 0)
(1 7.85027e-15 0)
(1 1.09416e-14 0)
(1 -1.34002e-15 0)
(1 1.59231e-16 0)
(1 -8.14045e-15 0)
(1 -5.82587e-15 0)
(1 -9.77857e-15 0)
(1 1.55755e-15 0)
(1 3.38606e-15 0)
(1 1.72073e-15 0)
(1 -1.42092e-15 0)
(1 6.96105e-15 0)
(1 5.87033e-15 0)
(1 3.30106e-15 0)
(1 8.15746e-15 0)
(1 7.19046e-15 0)
(1 -6.32719e-15 0)
(1 -8.92657e-16 0)
(1 9.9411e-16 0)
(1 1.16043e-14 0)
(1 5.09583e-15 0)
(1 7.31435e-15 0)
(1 3.78533e-15 0)
(1 -6.53672e-16 0)
(1 -3.84766e-15 0)
(1 6.1785e-15 0)
(1 7.68068e-15 0)
(1 -3.19344e-15 0)
(1 -8.16017e-15 0)
(1 -3.46826e-15 0)
(1 2.64022e-16 0)
(1 -1.44514e-15 0)
(1 -2.48229e-15 0)
(1 -5.08017e-15 0)
(1 -2.21941e-15 0)
(1 2.24506e-15 0)
(1 -3.50804e-16 0)
(1 2.92042e-15 0)
(1 -3.17758e-15 0)
(1 2.42883e-15 0)
(1 3.63009e-15 0)
(1 9.83631e-15 0)
(1 -5.42139e-15 0)
(1 -2.00361e-15 0)
(1 1.71451e-15 0)
(1 9.2788e-15 0)
(1 1.04479e-14 0)
(1 1.19423e-14 0)
(1 3.50076e-15 0)
(1 -3.42751e-15 0)
(1 -9.31526e-15 0)
(1 -7.40399e-15 0)
(1 7.42937e-16 0)
(1 8.39683e-15 0)
(1 8.3529e-15 0)
(1 2.8107e-15 0)
(1 7.16561e-16 0)
(1 5.06833e-15 0)
(1 1.05099e-14 0)
(1 2.27761e-15 0)
(1 5.23199e-15 0)
(1 -3.46837e-16 0)
(1 6.0987e-16 0)
(1 -1.24862e-15 0)
(1 -2.36131e-15 0)
(1 -5.35114e-15 0)
(1 -3.60292e-15 0)
(1 -3.15429e-15 0)
(1 1.28246e-14 0)
(1 1.40423e-14 0)
(1 1.30449e-14 0)
(1 1.2431e-14 0)
(1 1.38321e-14 0)
(1 1.6122e-14 0)
(1 1.19374e-14 0)
(1 5.71481e-15 0)
(1 2.85703e-15 0)
(1 -1.16776e-16 0)
(1 4.4946e-15 0)
(1 -1.00445e-16 0)
(1 4.14325e-15 0)
(1 5.20681e-15 0)
(1 1.231e-15 0)
(1 4.19659e-15 0)
(1 9.58623e-16 0)
(1 -1.32208e-15 0)
(1 -1.58133e-15 0)
(1 -4.62042e-15 0)
(1 -2.22613e-15 0)
(1 -5.84485e-16 0)
(1 1.34279e-15 0)
(1 4.2329e-15 0)
(1 2.18052e-16 0)
(1 2.12317e-15 0)
(1 8.14213e-15 0)
(1 1.21073e-14 0)
(1 1.98336e-14 0)
(1 1.20725e-14 0)
(1 1.68239e-14 0)
(1 1.95489e-14 0)
(1 1.64704e-14 0)
(1 1.81358e-14 0)
(1 7.57988e-16 0)
(1 2.17872e-16 0)
(1 1.91434e-15 0)
(1 1.78974e-15 0)
(1 -8.13673e-15 0)
(1 -2.90323e-16 0)
(1 5.25024e-16 0)
(1 6.04483e-15 0)
(1 1.12346e-15 0)
(1 -7.45804e-15 0)
(1 1.12977e-15 0)
(1 6.12951e-16 0)
(1 7.73848e-15 0)
(1 1.91802e-15 0)
(1 5.20494e-15 0)
(1 2.35364e-15 0)
(1 8.49383e-15 0)
(1 6.72148e-15 0)
(1 4.33202e-15 0)
(1 -5.77699e-15 0)
(1 -3.99496e-15 0)
(1 -1.35156e-14 0)
(1 -1.57229e-15 0)
(1 6.36394e-15 0)
(1 7.92241e-15 0)
(1 1.7025e-15 0)
(1 -9.08009e-17 0)
(1 -5.21878e-15 0)
(1 -6.85406e-16 0)
(1 1.26894e-15 0)
(1 1.33149e-15 0)
(1 -1.84895e-15 0)
(1 -6.33962e-17 0)
(1 -1.30522e-15 0)
(1 4.68889e-15 0)
(1 5.18746e-15 0)
(1 -1.26235e-15 0)
(1 -9.43101e-15 0)
(1 -5.85601e-15 0)
(1 4.02201e-15 0)
(1 6.79028e-15 0)
(1 1.04401e-14 0)
(1 6.32397e-15 0)
(1 7.84514e-15 0)
(1 4.24124e-15 0)
(1 2.19491e-16 0)
(1 -6.95694e-15 0)
(1 -5.3821e-15 0)
(1 -7.75449e-16 0)
(1 1.69871e-15 0)
(1 7.12324e-15 0)
(1 1.88487e-15 0)
(1 2.27432e-15 0)
(1 -3.58907e-15 0)
(1 4.3448e-15 0)
(1 1.27906e-14 0)
(1 1.19559e-14 0)
(1 5.28202e-15 0)
(1 6.97409e-16 0)
(1 1.66838e-15 0)
(1 4.45335e-15 0)
(1 9.70313e-15 0)
(1 4.51633e-15 0)
(1 5.93087e-15 0)
(1 7.10323e-16 0)
(1 -3.0747e-15 0)
(1 5.9499e-15 0)
(1 1.12595e-14 0)
(1 1.16357e-14 0)
(1 1.16601e-14 0)
(1 7.30172e-15 0)
(1 7.49345e-15 0)
(1 6.69227e-15 0)
(1 6.2803e-15 0)
(1 3.27224e-15 0)
(1 1.67463e-15 0)
(1 8.32901e-15 0)
(1 2.49389e-15 0)
(1 8.27587e-15 0)
(1 4.35157e-15 0)
(1 2.47807e-15 0)
(1 -4.41077e-15 0)
(1 -3.16518e-15 0)
(1 -2.65511e-15 0)
(1 -1.99787e-15 0)
(1 3.33924e-15 0)
(1 5.69838e-15 0)
(1 5.02698e-15 0)
(1 7.09654e-15 0)
(1 2.62224e-15 0)
(1 3.48761e-15 0)
(1 6.23706e-15 0)
(1 1.35716e-14 0)
(1 2.02841e-15 0)
(1 1.52251e-14 0)
(1 1.11085e-14 0)
(1 1.47916e-14 0)
(1 2.424e-14 0)
(1 2.87397e-14 0)
(1 1.92291e-14 0)
(1 1.8455e-15 0)
(1 -4.44458e-15 0)
(1 1.48284e-15 0)
(1 -4.77853e-15 0)
(1 3.1195e-15 0)
(1 -7.68526e-15 0)
(1 1.79453e-15 0)
(1 2.23744e-15 0)
(1 -5.93035e-15 0)
(1 -8.21918e-15 0)
(1 -3.90528e-15 0)
(1 -8.43156e-15 0)
(1 5.32909e-15 0)
(1 7.68374e-15 0)
(1 1.42026e-14 0)
(1 1.82893e-14 0)
(1 1.13013e-14 0)
(1 6.10629e-15 0)
(1 3.91021e-15 0)
(1 -3.48096e-15 0)
(1 -6.06444e-15 0)
(1 -5.36333e-15 0)
(1 -8.14492e-15 0)
(1 -1.36169e-14 0)
(1 -7.63841e-15 0)
(1 -4.85944e-15 0)
(1 6.20052e-15 0)
(1 1.32526e-15 0)
(1 2.99518e-15 0)
(1 1.64961e-15 0)
(1 -1.78323e-15 0)
(1 -5.93533e-15 0)
(1 2.7105e-15 0)
(1 1.56357e-16 0)
(1 3.76704e-15 0)
(1 -2.98158e-16 0)
(1 6.75081e-16 0)
(1 -5.53625e-15 0)
(1 4.99459e-15 0)
(1 2.95821e-15 0)
(1 1.00387e-15 0)
(1 7.47958e-15 0)
(1 1.03324e-14 0)
(1 1.2856e-14 0)
(1 -2.22796e-16 0)
(1 5.16687e-16 0)
(1 3.64771e-15 0)
(1 -1.15154e-15 0)
(1 -3.09482e-15 0)
(1 -3.82727e-15 0)
(1 2.23372e-15 0)
(1 1.815e-15 0)
(1 6.5597e-15 0)
(1 8.41992e-16 0)
(1 6.59822e-15 0)
(1 5.1809e-15 0)
(1 8.01044e-15 0)
(1 3.60259e-15 0)
(1 6.15089e-15 0)
(1 1.90631e-15 0)
(1 6.69733e-15 0)
(1 1.77676e-15 0)
(1 -1.31178e-15 0)
(1 6.35553e-15 0)
(1 9.68145e-15 0)
(1 3.8024e-15 0)
(1 5.43062e-15 0)
(1 8.11319e-15 0)
(1 9.80065e-15 0)
(1 1.22535e-14 0)
(1 1.05078e-14 0)
(1 9.5875e-15 0)
(1 -1.43891e-16 0)
(1 -4.32559e-16 0)
(1 -4.50932e-16 0)
(1 1.04418e-15 0)
(1 1.10391e-14 0)
(1 1.35123e-14 0)
(1 1.06716e-14 0)
(1 2.17245e-15 0)
(1 6.49582e-15 0)
(1 -4.58921e-15 0)
(1 -6.32431e-16 0)
(1 -3.6436e-15 0)
(1 -3.34191e-15 0)
(1 -2.0828e-15 0)
(1 4.25331e-15 0)
(1 8.78322e-15 0)
(1 5.36234e-15 0)
(1 6.81981e-15 0)
(1 2.88467e-15 0)
(1 6.7087e-15 0)
(1 6.5111e-15 0)
(1 3.22901e-15 0)
(1 5.33267e-15 0)
(1 8.2159e-15 0)
(1 1.16034e-14 0)
(1 1.77759e-14 0)
(1 2.21504e-14 0)
(1 1.45217e-14 0)
(1 3.14881e-15 0)
(1 -7.34769e-15 0)
(1 2.70408e-15 0)
(1 -2.95664e-15 0)
(1 2.25022e-16 0)
(1 -1.65763e-15 0)
(1 -1.69225e-15 0)
(1 -2.92659e-15 0)
(1 -9.9627e-15 0)
(1 -3.88514e-15 0)
(1 6.98428e-15 0)
(1 7.76673e-15 0)
(1 5.40107e-15 0)
(1 3.49472e-15 0)
(1 4.66233e-15 0)
(1 9.62533e-15 0)
(1 7.40772e-15 0)
(1 1.30735e-15 0)
(1 -5.16314e-15 0)
(1 -4.43552e-15 0)
(1 2.55616e-15 0)
(1 -9.2538e-16 0)
(1 -2.66172e-15 0)
(1 -1.27637e-15 0)
(1 -1.45283e-15 0)
(1 3.74024e-15 0)
(1 5.70637e-15 0)
(1 6.86871e-16 0)
(1 2.49102e-15 0)
(1 -9.04094e-16 0)
(1 -4.85627e-15 0)
(1 -6.12926e-15 0)
(1 2.96535e-15 0)
(1 3.81132e-15 0)
(1 -4.58108e-15 0)
(1 -6.80812e-15 0)
(1 -2.47815e-15 0)
(1 -1.41569e-15 0)
(1 -5.11228e-16 0)
(1 5.4445e-15 0)
(1 5.42635e-15 0)
(1 9.18194e-15 0)
(1 6.96354e-15 0)
(1 4.99361e-16 0)
(1 2.46375e-15 0)
(1 6.51251e-15 0)
(1 5.82502e-15 0)
(1 6.73204e-15 0)
(1 -4.01197e-15 0)
(1 -2.16749e-15 0)
(1 -1.75808e-15 0)
(1 3.61359e-15 0)
(1 4.33472e-15 0)
(1 1.25621e-14 0)
(1 8.8607e-15 0)
(1 -2.89598e-15 0)
(1 -1.73257e-16 0)
(1 5.69385e-15 0)
(1 5.85289e-15 0)
(1 1.9677e-15 0)
(1 2.06327e-15 0)
(1 1.50113e-15 0)
(1 2.1368e-15 0)
(1 7.69444e-15 0)
(1 1.07476e-14 0)
(1 3.40791e-15 0)
(1 2.83777e-15 0)
(1 6.9607e-15 0)
(1 7.38372e-15 0)
(1 1.16827e-14 0)
(1 9.40272e-15 0)
(1 3.97136e-15 0)
(1 1.14096e-15 0)
(1 -3.33624e-16 0)
(1 1.00284e-15 0)
(1 6.59966e-15 0)
(1 3.54444e-15 0)
(1 3.40992e-15 0)
(1 3.67526e-15 0)
(1 4.98897e-15 0)
(1 1.02486e-14 0)
(1 8.98957e-15 0)
(1 2.1753e-15 0)
(1 2.51288e-15 0)
(1 3.79269e-16 0)
(1 -3.70787e-15 0)
(1 -2.24302e-15 0)
(1 5.03362e-15 0)
(1 5.29816e-15 0)
(1 2.60724e-15 0)
(1 -2.7134e-15 0)
(1 7.7908e-15 0)
(1 8.27147e-15 0)
(1 1.09498e-14 0)
(1 1.13415e-14 0)
(1 1.35891e-14 0)
(1 2.25017e-14 0)
(1 1.10128e-14 0)
(1 8.9085e-15 0)
(1 1.01995e-14 0)
(1 2.833e-15 0)
(1 -2.29599e-15 0)
(1 -1.57208e-15 0)
(1 -4.20625e-15 0)
(1 -2.49172e-15 0)
(1 2.87343e-15 0)
(1 -6.02107e-15 0)
(1 2.39692e-15 0)
(1 -2.6446e-15 0)
(1 3.25229e-15 0)
(1 5.58544e-15 0)
(1 1.62781e-14 0)
(1 8.49273e-15 0)
(1 4.64225e-15 0)
(1 -4.38958e-15 0)
(1 2.28795e-15 0)
(1 -5.23739e-15 0)
(1 6.25813e-15 0)
(1 1.95322e-15 0)
(1 3.28445e-15 0)
(1 -8.2851e-16 0)
(1 -1.51435e-14 0)
(1 -9.67541e-15 0)
(1 -5.61702e-15 0)
(1 -5.5468e-15 0)
(1 -7.91197e-17 0)
(1 1.32476e-15 0)
(1 1.05034e-14 0)
(1 -6.28251e-16 0)
(1 -2.68087e-15 0)
(1 -5.00005e-15 0)
(1 -3.3573e-15 0)
(1 -3.40995e-15 0)
(1 -2.86817e-15 0)
(1 1.55057e-15 0)
(1 -2.60737e-15 0)
(1 -5.69112e-15 0)
(1 8.01048e-16 0)
(1 1.82893e-15 0)
(1 9.38012e-15 0)
(1 5.29766e-15 0)
(1 7.37727e-15 0)
(1 6.85991e-16 0)
(1 8.2249e-16 0)
(1 5.91565e-15 0)
(1 7.78966e-15 0)
(1 5.11977e-15 0)
(1 1.08021e-14 0)
(1 6.4962e-15 0)
(1 2.93068e-15 0)
(1 -4.76904e-15 0)
(1 -1.24712e-15 0)
(1 -5.81989e-15 0)
(1 3.60918e-15 0)
(1 2.94858e-15 0)
(1 4.10202e-15 0)
(1 -1.09533e-15 0)
(1 2.16379e-15 0)
(1 -2.66086e-15 0)
(1 4.28488e-15 0)
(1 -5.57081e-16 0)
(1 5.76721e-15 0)
(1 1.28703e-14 0)
(1 1.35598e-14 0)
(1 1.23043e-14 0)
(1 8.4667e-15 0)
(1 -4.3269e-17 0)
(1 -2.6895e-15 0)
(1 -1.65812e-15 0)
(1 4.41547e-15 0)
(1 2.6935e-15 0)
(1 -4.38134e-16 0)
(1 9.91092e-15 0)
(1 8.84277e-15 0)
(1 8.75851e-15 0)
(1 7.81457e-15 0)
(1 -6.89427e-15 0)
(1 -6.03314e-15 0)
(1 8.40777e-16 0)
(1 6.84489e-15 0)
(1 7.67442e-16 0)
(1 8.40735e-15 0)
(1 3.06657e-15 0)
(1 9.0677e-15 0)
(1 4.33312e-15 0)
(1 6.97187e-15 0)
(1 -2.57665e-15 0)
(1 6.6186e-15 0)
(1 4.78669e-15 0)
(1 1.95061e-15 0)
(1 6.00068e-15 0)
(1 5.0607e-17 0)
(1 -3.76844e-16 0)
(1 3.54759e-15 0)
(1 3.28075e-15 0)
(1 1.06286e-14 0)
(1 1.56114e-14 0)
(1 1.04988e-14 0)
(1 6.7917e-15 0)
(1 1.05776e-14 0)
(1 -3.49176e-15 0)
(1 2.1874e-15 0)
(1 2.91393e-17 0)
(1 -2.83457e-15 0)
(1 -1.4716e-15 0)
(1 -4.39296e-15 0)
(1 -4.79648e-15 0)
(1 4.91351e-15 0)
(1 1.31538e-14 0)
(1 1.13161e-14 0)
(1 2.82254e-15 0)
(1 2.6056e-15 0)
(1 1.34561e-15 0)
(1 5.44313e-15 0)
(1 -4.99403e-15 0)
(1 -2.35117e-15 0)
(1 -3.51571e-16 0)
(1 -2.53768e-15 0)
(1 -1.93774e-15 0)
(1 -2.86134e-15 0)
(1 -2.31513e-15 0)
(1 2.83661e-15 0)
(1 -1.20076e-15 0)
(1 3.12804e-15 0)
(1 2.10761e-15 0)
(1 -1.17253e-15 0)
(1 -8.52765e-15 0)
(1 -5.46077e-15 0)
(1 -7.6435e-15 0)
(1 -4.59602e-15 0)
(1 8.84739e-16 0)
(1 -7.42046e-15 0)
(1 -1.11341e-14 0)
(1 -4.67923e-15 0)
(1 7.02057e-15 0)
(1 1.23183e-14 0)
(1 8.3163e-15 0)
(1 4.90568e-15 0)
(1 4.74581e-15 0)
(1 1.48724e-15 0)
(1 3.22701e-15 0)
(1 -1.22723e-15 0)
(1 -4.18861e-15 0)
(1 1.93908e-15 0)
(1 6.8113e-15 0)
(1 6.51744e-15 0)
(1 4.70306e-15 0)
(1 5.30078e-15 0)
(1 5.38658e-15 0)
(1 2.93768e-15 0)
(1 -3.86835e-15 0)
(1 -9.02929e-15 0)
(1 1.37573e-15 0)
(1 -4.11014e-15 0)
(1 -1.31059e-15 0)
(1 1.14877e-14 0)
(1 8.89706e-15 0)
(1 5.85245e-15 0)
(1 3.44971e-15 0)
(1 9.77932e-15 0)
(1 5.27118e-15 0)
(1 1.51516e-15 0)
(1 2.74728e-15 0)
(1 5.48448e-15 0)
(1 8.47739e-15 0)
(1 2.12492e-14 0)
(1 4.28646e-15 0)
(1 3.41131e-15 0)
(1 7.95491e-16 0)
(1 4.28978e-15 0)
(1 1.79001e-15 0)
(1 3.51529e-15 0)
(1 4.15288e-15 0)
(1 7.35429e-15 0)
(1 7.89679e-15 0)
(1 5.64411e-15 0)
(1 3.0542e-15 0)
(1 1.08524e-14 0)
(1 1.12764e-14 0)
(1 1.08096e-14 0)
(1 1.5694e-15 0)
(1 -2.28055e-16 0)
(1 -3.5232e-16 0)
(1 2.42063e-15 0)
(1 6.38479e-17 0)
(1 6.77606e-15 0)
(1 1.60623e-15 0)
(1 9.47403e-15 0)
(1 3.55185e-15 0)
(1 5.76337e-15 0)
(1 1.24587e-14 0)
(1 2.6823e-15 0)
(1 -2.09235e-15 0)
(1 2.73967e-15 0)
(1 1.53892e-15 0)
(1 9.44795e-15 0)
(1 1.03213e-14 0)
(1 6.74805e-15 0)
(1 1.01751e-14 0)
(1 1.45459e-14 0)
(1 -1.19569e-15 0)
(1 6.35252e-16 0)
(1 3.43782e-15 0)
(1 -5.40541e-15 0)
(1 -1.51978e-15 0)
(1 -4.00713e-15 0)
(1 -3.45605e-15 0)
(1 -1.07024e-14 0)
(1 1.02392e-14 0)
(1 3.49699e-15 0)
(1 1.01919e-14 0)
(1 7.14688e-15 0)
(1 2.94531e-15 0)
(1 8.53397e-15 0)
(1 5.08396e-15 0)
(1 -9.32589e-15 0)
(1 -6.20614e-15 0)
(1 -1.87675e-14 0)
(1 -1.09191e-14 0)
(1 -4.04229e-15 0)
(1 -4.70662e-15 0)
(1 1.00226e-14 0)
(1 5.12484e-15 0)
(1 1.83772e-14 0)
(1 1.31848e-14 0)
(1 1.55951e-14 0)
(1 -3.39391e-15 0)
(1 -1.35811e-14 0)
(1 -1.23793e-14 0)
(1 -5.32984e-15 0)
(1 -2.51735e-15 0)
(1 -5.58512e-15 0)
(1 -3.53551e-15 0)
(1 -6.58489e-15 0)
(1 -1.03436e-15 0)
(1 3.29437e-15 0)
(1 9.61431e-15 0)
(1 7.07821e-15 0)
(1 9.35079e-15 0)
(1 -1.19302e-15 0)
(1 9.83736e-16 0)
(1 -5.82597e-16 0)
(1 -4.53987e-15 0)
(1 -1.70679e-15 0)
(1 1.3469e-15 0)
(1 7.37667e-15 0)
(1 7.09492e-15 0)
(1 -4.11299e-15 0)
(1 1.56863e-15 0)
(1 8.46418e-16 0)
(1 7.52752e-15 0)
(1 1.28311e-15 0)
(1 3.24649e-15 0)
(1 2.17388e-15 0)
(1 3.44129e-15 0)
(1 5.44452e-15 0)
(1 7.53212e-15 0)
(1 5.42591e-15 0)
(1 3.98354e-15 0)
(1 4.54593e-15 0)
(1 6.8643e-15 0)
(1 2.48095e-16 0)
(1 3.05499e-15 0)
(1 2.93936e-15 0)
(1 8.88928e-15 0)
(1 1.14523e-14 0)
(1 7.76772e-15 0)
(1 8.37004e-15 0)
(1 9.56093e-15 0)
(1 1.2852e-14 0)
(1 8.02197e-15 0)
(1 8.45772e-15 0)
(1 1.73169e-15 0)
(1 5.70179e-15 0)
(1 7.06345e-15 0)
(1 9.51841e-15 0)
(1 8.8796e-15 0)
(1 2.47946e-15 0)
(1 4.35882e-15 0)
(1 5.79696e-15 0)
(1 8.94924e-15 0)
(1 -1.01424e-15 0)
(1 3.25069e-15 0)
(1 -4.66699e-16 0)
(1 3.39128e-15 0)
(1 -1.04832e-15 0)
(1 3.22376e-15 0)
(1 9.67457e-16 0)
(1 4.86792e-15 0)
(1 4.52902e-15 0)
(1 5.52715e-15 0)
(1 6.4801e-16 0)
(1 4.31381e-15 0)
(1 1.02594e-14 0)
(1 8.60419e-15 0)
(1 5.87298e-15 0)
(1 7.0431e-15 0)
(1 7.54294e-15 0)
(1 1.28293e-14 0)
(1 1.64927e-14 0)
(1 -3.11878e-15 0)
(1 -1.53057e-15 0)
(1 -3.15417e-15 0)
(1 -1.83087e-16 0)
(1 7.78023e-15 0)
(1 2.29272e-15 0)
(1 1.09731e-14 0)
(1 2.72974e-15 0)
(1 -1.326e-15 0)
(1 -9.39922e-16 0)
(1 -4.13139e-15 0)
(1 -4.80896e-15 0)
(1 2.10735e-15 0)
(1 2.41225e-15 0)
(1 7.49775e-15 0)
(1 -7.1077e-15 0)
(1 5.00434e-15 0)
(1 -8.17649e-15 0)
(1 -3.83904e-15 0)
(1 -5.18008e-15 0)
(1 -4.51918e-15 0)
(1 -1.25377e-15 0)
(1 4.82757e-15 0)
(1 1.18179e-15 0)
(1 -6.53345e-15 0)
(1 6.08855e-19 0)
(1 -8.74546e-15 0)
(1 -3.54472e-15 0)
(1 -1.07419e-14 0)
(1 -1.16045e-15 0)
(1 -1.46003e-14 0)
(1 3.26137e-16 0)
(1 5.74191e-15 0)
(1 3.29443e-15 0)
(1 7.85544e-15 0)
(1 5.17956e-15 0)
(1 8.341e-15 0)
(1 1.48658e-15 0)
(1 4.75267e-16 0)
(1 -2.84395e-15 0)
(1 -2.80128e-15 0)
(1 5.02715e-16 0)
(1 2.39243e-15 0)
(1 -1.20727e-15 0)
(1 1.49793e-15 0)
(1 -9.03291e-16 0)
(1 7.9896e-15 0)
(1 -4.90045e-16 0)
(1 5.58697e-15 0)
(1 4.18341e-15 0)
(1 5.5726e-15 0)
(1 4.74977e-15 0)
(1 2.06689e-16 0)
(1 -3.23409e-15 0)
(1 3.477e-15 0)
(1 2.19653e-15 0)
(1 7.45636e-15 0)
(1 5.80225e-15 0)
(1 8.79912e-15 0)
(1 -2.57479e-15 0)
(1 1.97506e-15 0)
(1 -6.87272e-16 0)
(1 2.18115e-15 0)
(1 6.57795e-15 0)
(1 5.54061e-15 0)
(1 -1.93708e-15 0)
(1 3.57998e-15 0)
(1 -2.44949e-15 0)
(1 9.67419e-15 0)
(1 1.38693e-14 0)
(1 8.74984e-15 0)
(1 5.46475e-15 0)
(1 4.93071e-15 0)
(1 1.74362e-15 0)
(1 1.657e-15 0)
(1 4.20559e-15 0)
(1 9.58583e-15 0)
(1 6.49563e-15 0)
(1 5.83648e-15 0)
(1 1.14133e-14 0)
(1 2.31331e-15 0)
(1 -2.30697e-15 0)
(1 3.63942e-15 0)
(1 5.72081e-15 0)
(1 3.91063e-15 0)
(1 -3.17498e-15 0)
(1 1.73218e-17 0)
(1 1.31065e-15 0)
(1 4.81365e-15 0)
(1 8.14395e-15 0)
(1 4.07635e-15 0)
(1 1.31811e-15 0)
(1 4.45351e-15 0)
(1 3.69618e-15 0)
(1 4.53125e-15 0)