/*--------------------------------*- C++ -*----------------------------------*\
| =========                 |                                                 |
| \\      /  F ield         | OpenFOAM: The Open Source CFD Toolbox           |
|  \\    /   O peration     | Version:  v2012                                 |
|   \\  /    A nd           | Website:  www.openfoam.com                      |
|    \\/     M anipulation  |                                                 |
\*---------------------------------------------------------------------------*/
FoamFile
{
    version     2.0;
    format      ascii;
    class       volVectorField;
    location    "70";
    object      Usup;
}
// * * * * * * * * * * * * * * * * * * * * * * * * * * * * * * * * * * * * * //

dimensions      [0 1 -1 0 0 0 0];


internalField   nonuniform List<vector> 
4000
(
(-3.07833e-16 1.58273e-16 0)
(-5.59409e-16 2.4264e-16 0)
(-5.60714e-16 2.36806e-16 0)
(-1.33806e-15 1.69872e-16 0)
(-2.69294e-15 2.76633e-16 0)
(-3.41867e-15 3.18591e-16 0)
(-3.10808e-15 7.79394e-16 0)
(-2.55631e-15 5.99756e-16 0)
(-2.68147e-15 3.93417e-16 0)
(-2.83518e-15 2.4172e-16 0)
(-2.95137e-15 2.70647e-17 0)
(-3.12542e-15 3.77016e-16 0)
(-3.24216e-15 4.86541e-16 0)
(-3.70712e-15 3.91132e-16 0)
(-4.26239e-15 6.5825e-16 0)
(-3.85171e-15 1.26468e-15 0)
(-2.70702e-15 8.75826e-16 0)
(-2.91748e-15 1.7422e-16 0)
(-3.56592e-15 2.77355e-16 0)
(-3.75217e-15 2.57347e-16 0)
(-4.40173e-15 -4.23367e-17 0)
(-4.56072e-15 -2.05518e-16 0)
(-4.38121e-15 -3.46826e-16 0)
(-4.14244e-15 -2.18828e-16 0)
(-3.84565e-15 -3.39511e-16 0)
(-3.47074e-15 2.25044e-17 0)
(-3.22714e-15 -2.04782e-16 0)
(-3.62471e-15 3.57671e-17 0)
(-4.126e-15 1.67349e-16 0)
(-4.15812e-15 5.44099e-16 0)
(-4.0384e-15 5.25357e-16 0)
(-3.69729e-15 4.0814e-16 0)
(-3.29794e-15 -3.94805e-17 0)
(-3.39142e-15 -3.57276e-16 0)
(-3.22993e-15 -2.86292e-16 0)
(-3.02089e-15 -2.49141e-16 0)
(-3.29587e-15 -1.1998e-16 0)
(-3.57679e-15 1.83111e-17 0)
(-3.11301e-15 2.61471e-16 0)
(-2.04539e-15 3.73684e-16 0)
(-1.08645e-15 7.48379e-17 0)
(-7.14134e-16 1.94545e-16 0)
(-1.07504e-15 8.37306e-17 0)
(-1.60016e-15 2.71591e-16 0)
(-1.57677e-15 1.77506e-17 0)
(-1.62246e-15 -2.94763e-16 0)
(-1.53107e-15 2.291e-17 0)
(-9.48046e-16 5.3342e-17 0)
(-4.73355e-16 2.05294e-16 0)
(-1.94015e-16 2.10617e-16 0)
(1.65899e-16 -3.54658e-17 0)
(2.50882e-16 -1.82709e-16 0)
(1.72877e-17 9.36387e-17 0)
(-1.757e-16 3.07005e-16 0)
(-3.50732e-16 2.93917e-16 0)
(-3.35521e-16 1.97418e-16 0)
(-1.56728e-17 2.54082e-17 0)
(5.79038e-16 2.95793e-16 0)
(1.04301e-15 3.72367e-16 0)
(8.48546e-16 1.1257e-16 0)
(3.00164e-16 3.15493e-16 0)
(3.50552e-16 4.2791e-16 0)
(6.517e-16 4.67054e-16 0)
(8.5136e-16 8.96382e-16 0)
(1.09051e-15 1.0238e-15 0)
(1.44108e-15 9.42009e-16 0)
(1.50518e-15 5.84747e-16 0)
(1.01161e-15 6.3931e-16 0)
(8.20714e-16 8.71397e-16 0)
(1.00604e-15 7.33158e-16 0)
(8.67056e-16 7.7673e-16 0)
(4.97215e-16 9.10185e-16 0)
(4.30331e-16 1.42474e-15 0)
(7.16249e-16 1.42151e-15 0)
(1.23026e-15 1.12753e-15 0)
(1.07342e-15 7.39713e-16 0)
(4.80064e-16 7.70917e-16 0)
(1.77556e-16 9.47584e-16 0)
(-3.44237e-16 1.48281e-15 0)
(-3.35283e-16 1.83608e-15 0)
(-4.01589e-16 1.55096e-15 0)
(-7.74044e-16 1.54816e-15 0)
(-4.53907e-16 1.38736e-15 0)
(-8.93607e-17 1.36677e-15 0)
(2.3957e-16 1.23271e-15 0)
(7.82109e-16 1.08394e-15 0)
(1.16744e-15 6.26427e-16 0)
(1.30039e-15 2.25006e-16 0)
(1.25783e-15 -1.0931e-16 0)
(8.36806e-16 6.7853e-17 0)
(4.74481e-16 3.40822e-16 0)
(5.03996e-16 5.83983e-16 0)
(9.64516e-16 6.28802e-16 0)
(8.75432e-16 9.84906e-17 0)
(2.76742e-16 -8.908e-17 0)
(3.45073e-16 4.12081e-17 0)
(2.7891e-16 -1.91055e-16 0)
(-2.46822e-16 -2.81639e-16 0)
(-4.97226e-16 -1.33891e-16 0)
(-2.13082e-16 -7.87618e-18 0)
(-7.84477e-16 3.52125e-16 0)
(-1.73274e-15 7.05429e-16 0)
(-2.32402e-15 6.22732e-16 0)
(-4.18044e-15 5.40593e-16 0)
(-7.05378e-15 6.62281e-16 0)
(-8.50573e-15 1.07913e-15 0)
(-8.34092e-15 1.9982e-15 0)
(-7.93424e-15 1.87838e-15 0)
(-8.13607e-15 1.38618e-15 0)
(-8.51757e-15 1.12351e-15 0)
(-8.50454e-15 6.18e-16 0)
(-8.73603e-15 1.16923e-15 0)
(-9.49883e-15 1.11973e-15 0)
(-1.04004e-14 1.38821e-15 0)
(-1.09027e-14 2.17163e-15 0)
(-1.05776e-14 3.02265e-15 0)
(-9.48765e-15 2.15115e-15 0)
(-9.44355e-15 7.24515e-16 0)
(-1.02285e-14 6.38834e-16 0)
(-1.11841e-14 2.55433e-16 0)
(-1.26199e-14 -1.81984e-16 0)
(-1.29213e-14 -1.07282e-16 0)
(-1.23836e-14 -4.93051e-16 0)
(-1.18118e-14 -6.14273e-16 0)
(-1.09288e-14 -9.58668e-16 0)
(-1.01934e-14 -5.31896e-17 0)
(-9.82823e-15 -1.64194e-16 0)
(-1.03126e-14 2.27054e-16 0)
(-1.11834e-14 5.12901e-16 0)
(-1.14092e-14 1.12555e-15 0)
(-1.14695e-14 1.10247e-15 0)
(-1.10186e-14 8.63489e-16 0)
(-1.03122e-14 2.76156e-17 0)
(-9.90241e-15 -3.26987e-16 0)
(-9.25027e-15 -3.54092e-16 0)
(-8.78412e-15 -4.29721e-16 0)
(-9.09986e-15 -3.43847e-16 0)
(-9.3094e-15 -3.19789e-17 0)
(-8.14877e-15 6.50949e-16 0)
(-6.16246e-15 6.91021e-16 0)
(-3.97548e-15 3.36646e-16 0)
(-2.88911e-15 4.91984e-16 0)
(-3.3877e-15 2.96231e-16 0)
(-4.43336e-15 2.35435e-16 0)
(-4.82073e-15 -8.82777e-17 0)
(-4.39323e-15 -3.89731e-16 0)
(-3.76263e-15 5.90509e-17 0)
(-2.58974e-15 3.656e-16 0)
(-1.43822e-15 7.20498e-16 0)
(-9.21836e-16 6.69882e-16 0)
(-2.03831e-16 1.04758e-16 0)
(4.29806e-16 -2.83191e-16 0)
(3.00647e-16 -6.11183e-17 0)
(-3.00501e-16 2.05932e-16 0)
(-8.34559e-16 4.47302e-16 0)
(-8.23443e-16 5.96489e-16 0)
(2.23899e-16 7.64353e-16 0)
(1.70062e-15 1.24625e-15 0)
(2.28836e-15 1.27604e-15 0)
(2.09312e-15 6.84239e-16 0)
(1.41828e-15 9.07573e-16 0)
(1.38722e-15 1.28529e-15 0)
(2.25134e-15 1.52932e-15 0)
(2.84929e-15 2.18088e-15 0)
(3.0757e-15 2.72557e-15 0)
(3.43845e-15 2.73697e-15 0)
(3.64486e-15 2.06163e-15 0)
(3.16784e-15 2.07144e-15 0)
(2.58956e-15 2.31111e-15 0)
(2.65482e-15 2.13182e-15 0)
(2.52066e-15 2.28536e-15 0)
(2.14946e-15 3.07836e-15 0)
(1.90741e-15 3.72009e-15 0)
(1.87223e-15 3.79554e-15 0)
(2.48697e-15 3.30677e-15 0)
(2.36902e-15 2.66729e-15 0)
(1.54385e-15 2.81751e-15 0)
(1.06089e-15 3.51858e-15 0)
(6.88985e-17 4.45668e-15 0)
(-7.25484e-16 5.18742e-15 0)
(-1.21889e-15 4.63377e-15 0)
(-1.73773e-15 4.56369e-15 0)
(-1.10972e-15 3.93973e-15 0)
(-2.15159e-16 3.67326e-15 0)
(5.87923e-16 3.29748e-15 0)
(1.59475e-15 2.92619e-15 0)
(2.33004e-15 2.25317e-15 0)
(2.77987e-15 1.29409e-15 0)
(3.09066e-15 1.67385e-16 0)
(2.69206e-15 6.09251e-17 0)
(1.99461e-15 7.29565e-16 0)
(1.83685e-15 1.28669e-15 0)
(2.01012e-15 1.49567e-15 0)
(1.59999e-15 5.20179e-16 0)
(9.40783e-16 -7.89051e-17 0)
(8.07849e-16 -7.32835e-17 0)
(3.28326e-16 -3.7456e-16 0)
(-4.62356e-16 -5.70302e-16 0)
(-8.35169e-16 -2.80452e-16 0)
(-4.17399e-16 -1.03103e-17 0)
(-1.13068e-15 3.7875e-16 0)
(-2.9245e-15 1.12049e-15 0)
(-4.32051e-15 1.0285e-15 0)
(-7.01175e-15 5.45196e-16 0)
(-1.06525e-14 7.84008e-16 0)
(-1.25119e-14 2.02778e-15 0)
(-1.28004e-14 3.08105e-15 0)
(-1.29367e-14 3.4e-15 0)
(-1.33803e-14 2.76207e-15 0)
(-1.39589e-14 2.22526e-15 0)
(-1.39426e-14 1.79088e-15 0)
(-1.43387e-14 2.03723e-15 0)
(-1.52715e-14 1.8217e-15 0)
(-1.60261e-14 2.47841e-15 0)
(-1.68486e-14 3.39784e-15 0)
(-1.7097e-14 3.77166e-15 0)
(-1.63708e-14 3.15654e-15 0)
(-1.61657e-14 1.83999e-15 0)
(-1.70389e-14 9.83395e-16 0)
(-1.83297e-14 1.9115e-17 0)
(-1.97265e-14 -3.38062e-16 0)
(-2.0296e-14 1.56877e-16 0)
(-2.00632e-14 -4.45137e-16 0)
(-1.9276e-14 -8.9811e-16 0)
(-1.75371e-14 -1.08814e-15 0)
(-1.62871e-14 -4.32777e-16 0)
(-1.60957e-14 -2.03826e-16 0)
(-1.66975e-14 3.10238e-16 0)
(-1.77157e-14 1.00364e-15 0)
(-1.80955e-14 1.69728e-15 0)
(-1.82784e-14 1.4835e-15 0)
(-1.78268e-14 8.88446e-16 0)
(-1.6752e-14 1.44289e-16 0)
(-1.5936e-14 -2.25803e-16 0)
(-1.51369e-14 -3.16841e-16 0)
(-1.445e-14 -2.52011e-16 0)
(-1.44691e-14 -5.18955e-16 0)
(-1.41248e-14 -1.82133e-16 0)
(-1.25716e-14 6.00769e-16 0)
(-1.0074e-14 8.50976e-16 0)
(-6.98216e-15 7.90519e-16 0)
(-5.44723e-15 7.61369e-16 0)
(-6.09851e-15 2.78038e-16 0)
(-7.238e-15 -1.17806e-16 0)
(-7.41723e-15 -1.43935e-16 0)
(-6.71945e-15 5.90331e-17 0)
(-5.60566e-15 6.05656e-16 0)
(-3.88408e-15 1.05079e-15 0)
(-2.45487e-15 8.73433e-16 0)
(-1.87894e-15 6.66725e-16 0)
(-9.42908e-16 5.50837e-16 0)
(5.49983e-17 2.39971e-16 0)
(1.30936e-16 -2.2097e-17 0)
(-3.01313e-16 -9.1474e-19 0)
(-7.03704e-16 3.72046e-16 0)
(-4.89307e-16 9.92254e-16 0)
(8.64611e-16 1.7134e-15 0)
(2.49699e-15 1.8565e-15 0)
(3.01231e-15 1.77331e-15 0)
(2.90543e-15 1.30712e-15 0)
(2.56315e-15 1.54736e-15 0)
(2.72501e-15 2.34277e-15 0)
(3.77053e-15 2.77576e-15 0)
(4.77787e-15 3.26e-15 0)
(5.17034e-15 3.92361e-15 0)
(5.20793e-15 4.00586e-15 0)
(5.3403e-15 3.61621e-15 0)
(4.9157e-15 3.36718e-15 0)
(4.1804e-15 3.41277e-15 0)
(4.24563e-15 3.84151e-15 0)
(4.48182e-15 4.4133e-15 0)
(3.93746e-15 5.38379e-15 0)
(3.21214e-15 5.73545e-15 0)
(3.04387e-15 5.90578e-15 0)
(3.52987e-15 5.45522e-15 0)
(3.48177e-15 5.06245e-15 0)
(2.82688e-15 5.55462e-15 0)
(2.13383e-15 6.37957e-15 0)
(6.34594e-16 7.19424e-15 0)
(-8.74287e-16 7.8138e-15 0)
(-1.83467e-15 7.54546e-15 0)
(-2.56857e-15 7.46363e-15 0)
(-1.87054e-15 6.7686e-15 0)
(-4.50538e-16 5.80596e-15 0)
(8.07727e-16 4.85183e-15 0)
(2.31528e-15 4.12404e-15 0)
(3.18227e-15 3.56622e-15 0)
(3.38864e-15 2.58043e-15 0)
(3.87086e-15 1.11103e-15 0)
(4.12749e-15 4.95456e-16 0)
(3.65178e-15 1.29021e-15 0)
(3.25986e-15 1.61205e-15 0)
(2.91297e-15 1.6322e-15 0)
(1.93811e-15 8.68499e-16 0)
(1.20104e-15 3.6147e-16 0)
(1.09539e-15 -1.98802e-16 0)
(3.74637e-16 -6.38807e-16 0)
(-5.9876e-16 -9.03104e-16 0)
(-9.85827e-16 -6.62432e-16 0)
(-5.95025e-16 -1.51489e-16 0)
(-1.33972e-15 3.92254e-16 0)
(-3.97322e-15 1.39881e-15 0)
(-6.65787e-15 1.35753e-15 0)
(-9.89971e-15 8.61005e-16 0)
(-1.33229e-14 1.25304e-15 0)
(-1.5493e-14 3.03628e-15 0)
(-1.65357e-14 4.14049e-15 0)
(-1.75184e-14 4.71539e-15 0)
(-1.86238e-14 4.16763e-15 0)
(-1.92386e-14 3.11902e-15 0)
(-1.90876e-14 2.78582e-15 0)
(-1.96508e-14 3.12923e-15 0)
(-2.06447e-14 3.10493e-15 0)
(-2.13041e-14 3.4784e-15 0)
(-2.2398e-14 4.20068e-15 0)
(-2.30036e-14 4.52681e-15 0)
(-2.2696e-14 4.58417e-15 0)
(-2.29443e-14 3.47105e-15 0)
(-2.40467e-14 1.70124e-15 0)
(-2.52737e-14 6.17957e-17 0)
(-2.62969e-14 -5.27284e-16 0)
(-2.71039e-14 -3.62714e-16 0)
(-2.71958e-14 -7.96907e-16 0)
(-2.59987e-14 -7.15357e-16 0)
(-2.38513e-14 -3.45282e-16 0)
(-2.23767e-14 -3.02954e-16 0)
(-2.19213e-14 -2.04023e-16 0)
(-2.22555e-14 2.2398e-16 0)
(-2.32831e-14 1.15473e-15 0)
(-2.42074e-14 1.99818e-15 0)
(-2.49585e-14 1.49497e-15 0)
(-2.44091e-14 6.93873e-16 0)
(-2.30003e-14 6.2574e-17 0)
(-2.17203e-14 -3.94524e-16 0)
(-2.03519e-14 -2.78102e-16 0)
(-1.96492e-14 -3.14697e-16 0)
(-1.95035e-14 -5.40616e-16 0)
(-1.84745e-14 -1.97263e-16 0)
(-1.63346e-14 3.44179e-16 0)
(-1.34688e-14 1.13631e-15 0)
(-1.00677e-14 1.21195e-15 0)
(-8.42597e-15 5.3353e-16 0)
(-8.97384e-15 -4.19116e-17 0)
(-9.73589e-15 3.54703e-17 0)
(-9.57955e-15 4.18346e-16 0)
(-8.44903e-15 7.78948e-16 0)
(-7.0851e-15 1.32343e-15 0)
(-5.57049e-15 1.75734e-15 0)
(-3.97152e-15 1.25331e-15 0)
(-2.60364e-15 1.16428e-15 0)
(-1.31954e-15 1.38819e-15 0)
(-4.50942e-16 1.02134e-15 0)
(-2.81884e-16 3.80606e-16 0)
(-4.46632e-16 1.67576e-17 0)
(-4.92384e-16 3.51193e-16 0)
(6.11262e-17 1.13383e-15 0)
(1.33988e-15 2.0155e-15 0)
(2.96534e-15 2.22036e-15 0)
(3.66807e-15 2.01373e-15 0)
(3.84402e-15 1.91048e-15 0)
(4.00975e-15 2.63419e-15 0)
(4.25764e-15 3.35653e-15 0)
(5.26474e-15 3.54276e-15 0)
(6.4761e-15 4.17484e-15 0)
(6.85545e-15 4.90779e-15 0)
(6.79893e-15 4.93847e-15 0)
(6.81606e-15 4.98182e-15 0)
(6.38407e-15 4.48293e-15 0)
(6.03966e-15 4.70362e-15 0)
(6.33052e-15 5.61342e-15 0)
(6.33993e-15 6.61461e-15 0)
(5.5048e-15 7.56311e-15 0)
(4.56427e-15 8.18263e-15 0)
(4.05747e-15 8.21467e-15 0)
(4.37151e-15 7.789e-15 0)
(4.64507e-15 7.57814e-15 0)
(4.0416e-15 8.25332e-15 0)
(3.06981e-15 8.97523e-15 0)
(1.24335e-15 9.52284e-15 0)
(-7.56963e-16 1.00841e-14 0)
(-2.01366e-15 1.00805e-14 0)
(-2.93534e-15 1.00499e-14 0)
(-2.61143e-15 9.48301e-15 0)
(-1.28344e-15 7.9062e-15 0)
(4.55252e-16 6.53272e-15 0)
(2.57502e-15 5.19728e-15 0)
(3.77011e-15 4.39595e-15 0)
(3.8727e-15 3.57042e-15 0)
(4.42546e-15 2.36644e-15 0)
(5.35851e-15 1.50174e-15 0)
(4.99829e-15 1.71782e-15 0)
(4.12661e-15 1.8615e-15 0)
(3.48646e-15 1.41534e-15 0)
(2.41057e-15 8.58753e-16 0)
(1.36541e-15 6.91956e-16 0)
(8.41362e-16 -2.50266e-16 0)
(9.14281e-17 -1.20588e-15 0)
(-7.88686e-16 -1.294e-15 0)
(-9.73322e-16 -1.0451e-15 0)
(-5.23989e-16 -5.08534e-16 0)
(-1.52362e-15 4.22885e-16 0)
(-5.01576e-15 1.49677e-15 0)
(-8.66324e-15 1.6836e-15 0)
(-1.23614e-14 1.56019e-15 0)
(-1.56879e-14 2.47771e-15 0)
(-1.80925e-14 4.10356e-15 0)
(-1.98996e-14 5.02449e-15 0)
(-2.1616e-14 5.59723e-15 0)
(-2.35993e-14 5.28277e-15 0)
(-2.44003e-14 4.66649e-15 0)
(-2.37701e-14 4.57369e-15 0)
(-2.43748e-14 4.49542e-15 0)
(-2.57325e-14 4.34295e-15 0)
(-2.63662e-14 4.38522e-15 0)
(-2.74961e-14 4.77407e-15 0)
(-2.82237e-14 5.28777e-15 0)
(-2.8438e-14 5.65603e-15 0)
(-2.97052e-14 4.64402e-15 0)
(-3.13425e-14 2.61687e-15 0)
(-3.22182e-14 5.86536e-16 0)
(-3.27181e-14 -4.75879e-16 0)
(-3.34076e-14 -7.90643e-16 0)
(-3.32242e-14 -7.45676e-16 0)
(-3.16495e-14 -3.67441e-16 0)
(-2.96491e-14 3.09275e-16 0)
(-2.83215e-14 1.83028e-16 0)
(-2.77037e-14 4.37115e-16 0)
(-2.77366e-14 5.69219e-16 0)
(-2.8539e-14 1.13596e-15 0)
(-2.9932e-14 1.56618e-15 0)
(-3.11039e-14 1.06177e-15 0)
(-3.03785e-14 1.61892e-16 0)
(-2.86315e-14 -1.10878e-16 0)
(-2.68836e-14 -1.50317e-16 0)
(-2.53949e-14 -3.2587e-16 0)
(-2.45827e-14 -6.59198e-16 0)
(-2.39379e-14 -4.9522e-16 0)
(-2.24829e-14 2.73222e-16 0)
(-1.97383e-14 7.10746e-16 0)
(-1.64867e-14 1.09681e-15 0)
(-1.34293e-14 1.10342e-15 0)
(-1.16364e-14 -6.88133e-17 0)
(-1.13615e-14 -3.22016e-16 0)
(-1.16131e-14 4.5904e-16 0)
(-1.13637e-14 1.55476e-15 0)
(-1.02102e-14 1.69729e-15 0)
(-8.53178e-15 1.956e-15 0)
(-6.89679e-15 2.23133e-15 0)
(-5.12213e-15 2.06791e-15 0)
(-3.34805e-15 2.01707e-15 0)
(-2.08126e-15 1.98999e-15 0)
(-1.37472e-15 1.28437e-15 0)
(-1.12653e-15 5.42755e-16 0)
(-7.37472e-16 -1.82306e-16 0)
(-1.47053e-16 1.77979e-16 0)
(7.58251e-16 1.24847e-15 0)
(2.13694e-15 2.17436e-15 0)
(3.49139e-15 2.44728e-15 0)
(4.20181e-15 2.21898e-15 0)
(4.9874e-15 2.76442e-15 0)
(5.34433e-15 3.57734e-15 0)
(5.28366e-15 4.3194e-15 0)
(6.55118e-15 4.49962e-15 0)
(8.29805e-15 4.97339e-15 0)
(8.5743e-15 5.3547e-15 0)
(8.34331e-15 5.50887e-15 0)
(8.14085e-15 5.95429e-15 0)
(7.71678e-15 5.82956e-15 0)
(7.84354e-15 6.32603e-15 0)
(8.3231e-15 7.51434e-15 0)
(8.39301e-15 8.6817e-15 0)
(7.36798e-15 9.78358e-15 0)
(5.85967e-15 1.05157e-14 0)
(4.90845e-15 1.05229e-14 0)
(5.16655e-15 1.0424e-14 0)
(5.66242e-15 1.00588e-14 0)
(5.22038e-15 1.06279e-14 0)
(3.90023e-15 1.12513e-14 0)
(1.7902e-15 1.16958e-14 0)
(-4.61814e-16 1.25189e-14 0)
(-2.04538e-15 1.25709e-14 0)
(-3.21018e-15 1.21342e-14 0)
(-3.40191e-15 1.1381e-14 0)
(-2.12363e-15 9.82322e-15 0)
(-1.25017e-16 8.29677e-15 0)
(2.3874e-15 6.82381e-15 0)
(4.09801e-15 5.4679e-15 0)
(4.26186e-15 4.49399e-15 0)
(4.7297e-15 3.39991e-15 0)
(5.85302e-15 2.4094e-15 0)
(5.89344e-15 2.12963e-15 0)
(4.85179e-15 1.89229e-15 0)
(3.852e-15 1.01179e-15 0)
(2.81492e-15 5.78792e-16 0)
(1.39238e-15 3.82203e-16 0)
(2.96059e-16 -6.12536e-16 0)
(-2.36917e-16 -1.5943e-15 0)
(-7.89787e-16 -1.72023e-15 0)
(-1.08827e-15 -1.18738e-15 0)
(-3.89987e-16 -6.69679e-16 0)
(-1.7271e-15 6.22676e-16 0)
(-5.90019e-15 1.34188e-15 0)
(-1.0498e-14 2.07922e-15 0)
(-1.43022e-14 2.42091e-15 0)
(-1.75216e-14 3.74154e-15 0)
(-2.05887e-14 5.32965e-15 0)
(-2.30444e-14 6.28665e-15 0)
(-2.53878e-14 6.23339e-15 0)
(-2.77562e-14 5.99993e-15 0)
(-2.85875e-14 6.31594e-15 0)
(-2.84243e-14 6.70223e-15 0)
(-2.94185e-14 5.67071e-15 0)
(-3.07013e-14 5.53441e-15 0)
(-3.12999e-14 5.66126e-15 0)
(-3.22774e-14 5.78302e-15 0)
(-3.29824e-14 6.0409e-15 0)
(-3.38297e-14 5.80876e-15 0)
(-3.59811e-14 4.54172e-15 0)
(-3.81032e-14 2.54447e-15 0)
(-3.89422e-14 1.12026e-15 0)
(-3.8996e-14 1.25648e-16 0)
(-3.91578e-14 -3.68993e-16 0)
(-3.87511e-14 2.57401e-16 0)
(-3.69708e-14 5.23559e-16 0)
(-3.5005e-14 2.34493e-16 0)
(-3.36531e-14 3.79962e-16 0)
(-3.28885e-14 8.29689e-16 0)
(-3.29617e-14 8.16383e-16 0)
(-3.37569e-14 1.00124e-15 0)
(-3.53809e-14 1.05711e-15 0)
(-3.69095e-14 8.50292e-16 0)
(-3.58902e-14 4.45205e-17 0)
(-3.34993e-14 -3.90077e-16 0)
(-3.17927e-14 -8.14379e-16 0)
(-3.02751e-14 -1.04238e-15 0)
(-2.89405e-14 -9.7876e-16 0)
(-2.75605e-14 -3.61621e-16 0)
(-2.57869e-14 7.70673e-16 0)
(-2.3205e-14 1.23154e-15 0)
(-1.98088e-14 6.92101e-16 0)
(-1.67386e-14 4.1146e-16 0)
(-1.46504e-14 -4.44434e-16 0)
(-1.33381e-14 -3.89769e-16 0)
(-1.28106e-14 9.51652e-16 0)
(-1.28295e-14 2.50836e-15 0)
(-1.19532e-14 2.69488e-15 0)
(-1.00255e-14 2.43882e-15 0)
(-8.25735e-15 2.28118e-15 0)
(-6.30413e-15 2.52412e-15 0)
(-4.2836e-15 2.2681e-15 0)
(-3.01962e-15 2.09548e-15 0)
(-2.33884e-15 1.3655e-15 0)
(-1.9568e-15 3.98279e-16 0)
(-1.1324e-15 -2.79115e-16 0)
(3.43475e-16 5.47233e-17 0)
(1.59149e-15 1.1817e-15 0)
(2.64856e-15 1.92533e-15 0)
(3.8235e-15 2.13947e-15 0)
(5.06783e-15 2.30457e-15 0)
(6.24032e-15 3.25221e-15 0)
(6.71563e-15 4.11174e-15 0)
(6.68744e-15 5.52527e-15 0)
(7.73817e-15 6.08544e-15 0)
(9.36146e-15 5.92087e-15 0)
(9.75032e-15 5.55817e-15 0)
(9.91481e-15 5.80558e-15 0)
(9.78198e-15 6.54842e-15 0)
(9.3268e-15 7.22051e-15 0)
(9.83347e-15 8.06489e-15 0)
(1.04865e-14 9.60861e-15 0)
(1.02815e-14 1.09869e-14 0)
(8.97639e-15 1.19404e-14 0)
(7.12073e-15 1.24419e-14 0)
(5.92576e-15 1.27281e-14 0)
(5.85218e-15 1.29482e-14 0)
(6.38292e-15 1.24707e-14 0)
(6.15435e-15 1.27481e-14 0)
(4.69585e-15 1.31435e-14 0)
(2.65243e-15 1.34183e-14 0)
(1.0021e-16 1.43519e-14 0)
(-2.22286e-15 1.46557e-14 0)
(-3.73095e-15 1.38673e-14 0)
(-4.04823e-15 1.31994e-14 0)
(-2.96003e-15 1.18459e-14 0)
(-7.47366e-16 9.82027e-15 0)
(1.91853e-15 8.24316e-15 0)
(3.82226e-15 6.46147e-15 0)
(4.31443e-15 5.29711e-15 0)
(4.88849e-15 4.22282e-15 0)
(6.32066e-15 3.42259e-15 0)
(6.35595e-15 2.68845e-15 0)
(4.88175e-15 1.59857e-15 0)
(3.92042e-15 6.7998e-16 0)
(3.09279e-15 7.58762e-17 0)
(1.29838e-15 -2.10656e-16 0)
(-1.72651e-16 -1.00341e-15 0)
(-6.78715e-16 -1.67614e-15 0)
(-8.50033e-16 -2.07335e-15 0)
(-9.31341e-16 -1.27465e-15 0)
(-2.45548e-16 -4.77501e-16 0)
(-2.24552e-15 6.59796e-16 0)
(-6.86365e-15 1.12991e-15 0)
(-1.166e-14 2.14064e-15 0)
(-1.58484e-14 3.2742e-15 0)
(-1.91506e-14 4.73811e-15 0)
(-2.2595e-14 6.50668e-15 0)
(-2.6216e-14 7.48923e-15 0)
(-2.92807e-14 7.25199e-15 0)
(-3.13945e-14 6.97996e-15 0)
(-3.21113e-14 7.51934e-15 0)
(-3.28294e-14 7.93467e-15 0)
(-3.4164e-14 6.63768e-15 0)
(-3.49946e-14 6.47226e-15 0)
(-3.57209e-14 6.88764e-15 0)
(-3.69636e-14 6.94373e-15 0)
(-3.80785e-14 6.78672e-15 0)
(-3.95112e-14 5.58841e-15 0)
(-4.22202e-14 4.10426e-15 0)
(-4.41804e-14 2.37755e-15 0)
(-4.45514e-14 1.9371e-15 0)
(-4.45729e-14 1.22899e-15 0)
(-4.41937e-14 2.41717e-16 0)
(-4.34692e-14 4.7542e-16 0)
(-4.24945e-14 7.47502e-16 0)
(-4.04554e-14 2.34765e-16 0)
(-3.84488e-14 3.97332e-16 0)
(-3.78422e-14 8.48065e-16 0)
(-3.80023e-14 7.64799e-16 0)
(-3.86881e-14 5.8096e-16 0)
(-4.0255e-14 9.06468e-18 0)
(-4.18724e-14 1.19087e-16 0)
(-4.10565e-14 3.65681e-16 0)
(-3.87257e-14 -4.91146e-16 0)
(-3.65e-14 -1.27123e-15 0)
(-3.43061e-14 -1.54909e-15 0)
(-3.24985e-14 -1.48825e-15 0)
(-3.0646e-14 -6.30771e-16 0)
(-2.87981e-14 4.6967e-16 0)
(-2.6668e-14 1.10993e-15 0)
(-2.32788e-14 4.47821e-16 0)
(-1.97925e-14 -3.47266e-16 0)
(-1.71953e-14 -8.00764e-16 0)
(-1.48746e-14 -6.15602e-16 0)
(-1.3676e-14 1.01479e-15 0)
(-1.39456e-14 2.69685e-15 0)
(-1.376e-14 3.19797e-15 0)
(-1.19094e-14 2.42911e-15 0)
(-9.42732e-15 1.86083e-15 0)
(-7.22797e-15 2.22982e-15 0)
(-5.29089e-15 2.14923e-15 0)
(-3.96725e-15 1.84689e-15 0)
(-3.52153e-15 9.04643e-16 0)
(-2.98362e-15 -2.21763e-16 0)
(-1.42261e-15 -2.75253e-16 0)
(7.17874e-16 1.547e-18 0)
(2.18837e-15 7.81655e-16 0)
(3.20432e-15 1.5068e-15 0)
(4.45621e-15 2.04919e-15 0)
(5.99558e-15 2.63238e-15 0)
(7.52133e-15 3.33446e-15 0)
(8.40996e-15 4.3915e-15 0)
(8.31983e-15 6.01714e-15 0)
(8.63594e-15 6.78467e-15 0)
(9.91785e-15 6.51537e-15 0)
(1.06877e-14 6.23079e-15 0)
(1.14049e-14 6.81465e-15 0)
(1.15688e-14 7.51703e-15 0)
(1.11942e-14 8.77947e-15 0)
(1.18869e-14 9.81676e-15 0)
(1.2658e-14 1.10573e-14 0)
(1.21757e-14 1.23575e-14 0)
(1.0385e-14 1.35904e-14 0)
(8.27841e-15 1.41195e-14 0)
(7.01828e-15 1.42906e-14 0)
(6.58156e-15 1.44562e-14 0)
(6.91589e-15 1.44295e-14 0)
(6.84421e-15 1.45527e-14 0)
(5.2249e-15 1.50348e-14 0)
(3.23834e-15 1.52281e-14 0)
(8.0662e-16 1.57345e-14 0)
(-2.14724e-15 1.59563e-14 0)
(-4.01578e-15 1.51019e-14 0)
(-4.48695e-15 1.44262e-14 0)
(-3.96674e-15 1.28904e-14 0)
(-1.83229e-15 1.10714e-14 0)
(1.16443e-15 9.28186e-15 0)
(3.42868e-15 7.33404e-15 0)
(4.26344e-15 5.91884e-15 0)
(5.03519e-15 4.97346e-15 0)
(6.34655e-15 4.21904e-15 0)
(6.05238e-15 2.67404e-15 0)
(4.72381e-15 1.41075e-15 0)
(3.89742e-15 5.76192e-16 0)
(3.08579e-15 -8.33427e-17 0)
(1.22804e-15 -5.67062e-16 0)
(-4.85312e-16 -1.26773e-15 0)
(-1.08546e-15 -1.65638e-15 0)
(-9.25299e-16 -1.85105e-15 0)
(-7.03031e-16 -1.33814e-15 0)
(-2.30077e-16 -3.79316e-16 0)
(-2.66128e-15 7.20047e-16 0)
(-7.73087e-15 1.3487e-15 0)
(-1.25889e-14 2.31256e-15 0)
(-1.68389e-14 3.39305e-15 0)
(-2.0344e-14 5.25246e-15 0)
(-2.44346e-14 6.9727e-15 0)
(-2.89236e-14 8.35791e-15 0)
(-3.26489e-14 8.79649e-15 0)
(-3.48398e-14 8.72459e-15 0)
(-3.55205e-14 8.98985e-15 0)
(-3.70377e-14 8.62921e-15 0)
(-3.87681e-14 7.77737e-15 0)
(-3.90747e-14 7.43179e-15 0)
(-3.97551e-14 7.93094e-15 0)
(-4.13461e-14 7.88435e-15 0)
(-4.31151e-14 7.30705e-15 0)
(-4.50582e-14 5.49713e-15 0)
(-4.7735e-14 4.07947e-15 0)
(-4.92541e-14 3.30743e-15 0)
(-4.95163e-14 2.91397e-15 0)
(-5.01196e-14 1.85273e-15 0)
(-4.96792e-14 4.6391e-16 0)
(-4.83646e-14 -2.22499e-17 0)
(-4.70856e-14 2.1634e-16 0)
(-4.51101e-14 4.46007e-16 0)
(-4.29452e-14 4.97528e-16 0)
(-4.22653e-14 7.97711e-16 0)
(-4.27209e-14 7.40886e-16 0)
(-4.37839e-14 1.51559e-16 0)
(-4.50655e-14 -9.53509e-16 0)
(-4.58144e-14 -8.95996e-16 0)
(-4.52764e-14 -3.84385e-16 0)
(-4.33709e-14 -9.74867e-16 0)
(-4.09408e-14 -1.54075e-15 0)
(-3.84813e-14 -1.78784e-15 0)
(-3.5957e-14 -1.73447e-15 0)
(-3.34137e-14 -1.11356e-15 0)
(-3.13388e-14 -5.34609e-17 0)
(-2.95255e-14 3.92159e-16 0)
(-2.66182e-14 -8.2884e-17 0)
(-2.28416e-14 -9.85341e-16 0)
(-1.95418e-14 -1.21467e-15 0)
(-1.62843e-14 -9.11177e-16 0)
(-1.42997e-14 2.03476e-16 0)
(-1.48097e-14 1.595e-15 0)
(-1.53808e-14 2.65454e-15 0)
(-1.3852e-14 2.50743e-15 0)
(-1.08302e-14 1.92676e-15 0)
(-8.09393e-15 1.49741e-15 0)
(-6.16352e-15 1.06594e-15 0)
(-5.17364e-15 5.09268e-16 0)
(-4.79464e-15 -5.86282e-16 0)
(-3.50405e-15 -9.91632e-16 0)
(-1.41992e-15 -3.8151e-16 0)
(8.96601e-16 -1.5329e-16 0)
(2.72123e-15 3.0329e-16 0)
(3.87202e-15 1.07745e-15 0)
(5.2158e-15 1.79516e-15 0)
(6.83011e-15 2.5185e-15 0)
(8.56851e-15 3.26462e-15 0)
(9.91352e-15 4.25853e-15 0)
(9.85557e-15 5.75855e-15 0)
(9.69732e-15 6.74612e-15 0)
(1.07251e-14 6.72471e-15 0)
(1.18958e-14 6.58297e-15 0)
(1.28966e-14 7.55086e-15 0)
(1.33148e-14 8.44112e-15 0)
(1.31001e-14 1.01073e-14 0)
(1.35423e-14 1.12913e-14 0)
(1.43128e-14 1.22852e-14 0)
(1.40091e-14 1.32647e-14 0)
(1.20363e-14 1.48772e-14 0)
(9.29885e-15 1.57404e-14 0)
(7.72984e-15 1.57384e-14 0)
(7.37898e-15 1.52544e-14 0)
(7.70399e-15 1.53791e-14 0)
(7.63589e-15 1.57355e-14 0)
(6.00206e-15 1.60052e-14 0)
(3.77071e-15 1.63539e-14 0)
(1.08679e-15 1.65059e-14 0)
(-2.31471e-15 1.63568e-14 0)
(-4.47275e-15 1.5849e-14 0)
(-5.19025e-15 1.49766e-14 0)
(-4.76717e-15 1.34139e-14 0)
(-2.5225e-15 1.1864e-14 0)
(2.70114e-16 1.00376e-14 0)
(2.63182e-15 7.94548e-15 0)
(3.97375e-15 6.3186e-15 0)
(5.06367e-15 5.67644e-15 0)
(6.00944e-15 4.46015e-15 0)
(5.56948e-15 2.60577e-15 0)
(4.47746e-15 1.36265e-15 0)
(3.78223e-15 3.51426e-16 0)
(2.9895e-15 -3.01378e-16 0)
(8.96888e-16 -8.51636e-16 0)
(-8.0701e-16 -1.51231e-15 0)
(-1.26969e-15 -1.91614e-15 0)
(-1.12312e-15 -1.75123e-15 0)
(-7.0435e-16 -1.5858e-15 0)
(-1.63583e-16 -5.30597e-16 0)
(-3.06509e-15 6.4787e-16 0)
(-8.57033e-15 1.76373e-15 0)
(-1.36849e-14 3.07552e-15 0)
(-1.78847e-14 4.05082e-15 0)
(-2.13602e-14 5.5111e-15 0)
(-2.57354e-14 7.21542e-15 0)
(-3.08018e-14 8.97738e-15 0)
(-3.53659e-14 1.00848e-14 0)
(-3.79777e-14 1.02776e-14 0)
(-3.92371e-14 9.93487e-15 0)
(-4.10776e-14 9.21066e-15 0)
(-4.26766e-14 9.33914e-15 0)
(-4.27617e-14 9.10883e-15 0)
(-4.34825e-14 9.04243e-15 0)
(-4.56921e-14 8.50469e-15 0)
(-4.82439e-14 7.22072e-15 0)
(-5.04166e-14 5.5857e-15 0)
(-5.24864e-14 4.79623e-15 0)
(-5.38257e-14 4.5216e-15 0)
(-5.4539e-14 3.3677e-15 0)
(-5.53996e-14 1.75286e-15 0)
(-5.46631e-14 2.99128e-16 0)
(-5.27558e-14 -1.78974e-16 0)
(-5.12207e-14 2.7098e-16 0)
(-4.92507e-14 5.64498e-16 0)
(-4.71069e-14 6.95585e-16 0)
(-4.64911e-14 7.91176e-16 0)
(-4.7215e-14 3.94488e-16 0)
(-4.85693e-14 -6.38985e-16 0)
(-4.9531e-14 -1.12601e-15 0)
(-4.97919e-14 -1.23934e-15 0)
(-4.9245e-14 -1.77171e-15 0)
(-4.74644e-14 -1.96172e-15 0)
(-4.47154e-14 -1.80044e-15 0)
(-4.17682e-14 -1.72896e-15 0)
(-3.89936e-14 -1.46657e-15 0)
(-3.60345e-14 -1.22526e-15 0)
(-3.39038e-14 -8.93045e-16 0)
(-3.24474e-14 -6.56459e-16 0)
(-2.95708e-14 -9.68526e-16 0)
(-2.54335e-14 -1.69943e-15 0)
(-2.15169e-14 -1.90785e-15 0)
(-1.78238e-14 -1.25565e-15 0)
(-1.54792e-14 -9.05536e-16 0)
(-1.54589e-14 1.08577e-16 0)
(-1.60695e-14 1.4213e-15 0)
(-1.50736e-14 2.09365e-15 0)
(-1.24332e-14 1.51731e-15 0)
(-9.75695e-15 2.67309e-16 0)
(-7.56257e-15 -7.11259e-16 0)
(-6.40749e-15 -1.40416e-15 0)
(-5.56903e-15 -1.8534e-15 0)
(-3.5298e-15 -1.77767e-15 0)
(-1.27679e-15 -1.25859e-15 0)
(9.72333e-16 -9.11313e-16 0)
(3.07303e-15 -5.99673e-16 0)
(4.51866e-15 1.30978e-16 0)
(5.97053e-15 8.88309e-16 0)
(7.75406e-15 1.87637e-15 0)
(9.67977e-15 2.90768e-15 0)
(1.13044e-14 4.08153e-15 0)
(1.13804e-14 5.64745e-15 0)
(1.07416e-14 6.64393e-15 0)
(1.13452e-14 6.76018e-15 0)
(1.29717e-14 6.9468e-15 0)
(1.45415e-14 7.44152e-15 0)
(1.52685e-14 8.8317e-15 0)
(1.51156e-14 1.05705e-14 0)
(1.52838e-14 1.2229e-14 0)
(1.58485e-14 1.35878e-14 0)
(1.57475e-14 1.46758e-14 0)
(1.37871e-14 1.60068e-14 0)
(1.0402e-14 1.67982e-14 0)
(8.05007e-15 1.66358e-14 0)
(7.58583e-15 1.57665e-14 0)
(8.39055e-15 1.5634e-14 0)
(8.25564e-15 1.59401e-14 0)
(6.45576e-15 1.5795e-14 0)
(4.22589e-15 1.6033e-14 0)
(1.31221e-15 1.62677e-14 0)
(-2.18551e-15 1.61033e-14 0)
(-4.57822e-15 1.60232e-14 0)
(-5.75097e-15 1.54202e-14 0)
(-5.6009e-15 1.40496e-14 0)
(-3.50157e-15 1.22524e-14 0)
(-7.43281e-16 9.87543e-15 0)
(1.79994e-15 8.21193e-15 0)
(3.78226e-15 6.99161e-15 0)
(4.87584e-15 6.05556e-15 0)
(5.25616e-15 4.43458e-15 0)
(4.85282e-15 2.49346e-15 0)
(4.01425e-15 9.61384e-16 0)
(3.45415e-15 3.12563e-17 0)
(2.77444e-15 -8.00721e-16 0)
(6.66017e-16 -1.33347e-15 0)
(-1.21695e-15 -1.92304e-15 0)
(-1.51456e-15 -2.47837e-15 0)
(-1.26418e-15 -2.04777e-15 0)
(-7.3974e-16 -1.73863e-15 0)
(5.33588e-18 -5.52891e-16 0)
(-3.07533e-15 4.19253e-16 0)
(-8.72014e-15 1.99028e-15 0)
(-1.42854e-14 3.28046e-15 0)
(-1.90117e-14 5.08378e-15 0)
(-2.25342e-14 6.44263e-15 0)
(-2.69076e-14 7.75724e-15 0)
(-3.22807e-14 9.10724e-15 0)
(-3.75468e-14 1.06662e-14 0)
(-4.11423e-14 1.1639e-14 0)
(-4.27973e-14 1.11926e-14 0)
(-4.42377e-14 1.06434e-14 0)
(-4.58479e-14 1.1125e-14 0)
(-4.65137e-14 1.0821e-14 0)
(-4.7607e-14 9.88442e-15 0)
(-5.02496e-14 8.53489e-15 0)
(-5.29552e-14 7.31121e-15 0)
(-5.46481e-14 6.16023e-15 0)
(-5.64323e-14 5.72483e-15 0)
(-5.83251e-14 4.87552e-15 0)
(-5.96704e-14 3.09551e-15 0)
(-6.05719e-14 1.35377e-15 0)
(-5.93416e-14 3.65334e-16 0)
(-5.66351e-14 -2.16707e-16 0)
(-5.47606e-14 2.24745e-16 0)
(-5.29634e-14 3.76206e-16 0)
(-5.08707e-14 4.48341e-16 0)
(-5.0496e-14 6.48452e-16 0)
(-5.16911e-14 8.57827e-17 0)
(-5.27161e-14 -8.50021e-16 0)
(-5.31939e-14 -9.36022e-16 0)
(-5.38195e-14 -1.18298e-15 0)
(-5.31496e-14 -1.96257e-15 0)
(-5.05164e-14 -2.53615e-15 0)
(-4.76494e-14 -1.82385e-15 0)
(-4.48449e-14 -1.61364e-15 0)
(-4.18971e-14 -1.5266e-15 0)
(-3.89725e-14 -1.45388e-15 0)
(-3.65375e-14 -1.92272e-15 0)
(-3.48051e-14 -1.60259e-15 0)
(-3.22007e-14 -1.72519e-15 0)
(-2.79445e-14 -2.29505e-15 0)
(-2.32473e-14 -2.58131e-15 0)
(-1.92295e-14 -2.27166e-15 0)
(-1.66551e-14 -2.24244e-15 0)
(-1.6147e-14 -1.50145e-15 0)
(-1.66599e-14 -3.97692e-16 0)
(-1.6204e-14 3.75199e-16 0)
(-1.42739e-14 -4.45629e-16 0)
(-1.15139e-14 -1.59622e-15 0)
(-8.86743e-15 -2.65018e-15 0)
(-7.20455e-15 -3.20877e-15 0)
(-6.00367e-15 -3.02715e-15 0)
(-3.76904e-15 -2.86902e-15 0)
(-1.26977e-15 -2.57695e-15 0)
(1.10315e-15 -2.05954e-15 0)
(3.41941e-15 -1.48557e-15 0)
(5.1097e-15 -8.52377e-16 0)
(6.85166e-15 -1.6704e-16 0)
(8.86582e-15 1.0644e-15 0)
(1.09238e-14 2.16063e-15 0)
(1.283e-14 3.56978e-15 0)
(1.2798e-14 4.89029e-15 0)
(1.17198e-14 5.81904e-15 0)
(1.2284e-14 6.8227e-15 0)
(1.38437e-14 7.92048e-15 0)
(1.5811e-14 8.08705e-15 0)
(1.71912e-14 9.15874e-15 0)
(1.71866e-14 1.04546e-14 0)
(1.73321e-14 1.25063e-14 0)
(1.76426e-14 1.39573e-14 0)
(1.72607e-14 1.52171e-14 0)
(1.49997e-14 1.6207e-14 0)
(1.10845e-14 1.65817e-14 0)
(8.20361e-15 1.61519e-14 0)
(7.76907e-15 1.5564e-14 0)
(8.83553e-15 1.55119e-14 0)
(8.62284e-15 1.53811e-14 0)
(6.80327e-15 1.55006e-14 0)
(4.73135e-15 1.58679e-14 0)
(1.66342e-15 1.60284e-14 0)
(-2.01407e-15 1.60502e-14 0)
(-4.4892e-15 1.58833e-14 0)
(-6.10155e-15 1.48213e-14 0)
(-6.46361e-15 1.35873e-14 0)
(-4.84414e-15 1.19141e-14 0)
(-1.83808e-15 9.65905e-15 0)
(1.46813e-15 8.49853e-15 0)
(3.40093e-15 7.37519e-15 0)
(4.20508e-15 5.93008e-15 0)
(4.3726e-15 4.23752e-15 0)
(3.9152e-15 2.2543e-15 0)
(3.44534e-15 7.75204e-16 0)
(3.10798e-15 7.73286e-17 0)
(2.41569e-15 -9.80019e-16 0)
(2.76551e-16 -1.79109e-15 0)
(-1.69854e-15 -2.44627e-15 0)
(-1.6933e-15 -3.00639e-15 0)
(-1.2226e-15 -2.54202e-15 0)
(-6.00044e-16 -1.90781e-15 0)
(1.0628e-16 -4.91507e-16 0)
(-3.08445e-15 7.33174e-16 0)
(-9.12829e-15 2.19637e-15 0)
(-1.46484e-14 3.38531e-15 0)
(-1.93064e-14 5.58754e-15 0)
(-2.36135e-14 7.3379e-15 0)
(-2.84277e-14 8.47204e-15 0)
(-3.37014e-14 9.81892e-15 0)
(-3.88839e-14 1.10936e-14 0)
(-4.32703e-14 1.25012e-14 0)
(-4.59144e-14 1.25797e-14 0)
(-4.73089e-14 1.24172e-14 0)
(-4.89381e-14 1.24104e-14 0)
(-5.02513e-14 1.18118e-14 0)
(-5.19009e-14 1.00816e-14 0)
(-5.44568e-14 8.41697e-15 0)
(-5.69763e-14 7.71008e-15 0)
(-5.8668e-14 7.44512e-15 0)
(-6.06056e-14 6.30033e-15 0)