/*--------------------------------*- C++ -*----------------------------------*\
| =========                 |                                                 |
| \\      /  F ield         | OpenFOAM: The Open Source CFD Toolbox           |
|  \\    /   O peration     | Version:  v2012                                 |
|   \\  /    A nd           | Website:  www.openfoam.com                      |
|    \\/     M anipulation  |                                                 |
\*---------------------------------------------------------------------------*/
FoamFile
{
    version     2.0;
    format      ascii;
    class       volScalarField;
    location    "0";
    object      pRec;
}
// * * * * * * * * * * * * * * * * * * * * * * * * * * * * * * * * * * * * * //

dimensions      [0 2 -2 0 0 0 0];


internalField   nonuniform List<scalar> 
4000
(
-7.0962e-13
-7.03592e-13
-7.05011e-13
-7.08581e-13
-7.06143e-13
-7.06502e-13
-7.05239e-13
-6.99953e-13
-6.88871e-13
-6.85318e-13
-6.87185e-13
-6.81348e-13
-6.68567e-13
-6.53095e-13
-6.39152e-13
-6.32082e-13
-6.26852e-13
-6.24316e-13
-6.16813e-13
-6.01591e-13
-5.90003e-13
-5.82842e-13
-5.77284e-13
-5.70606e-13
-5.59988e-13
-5.4902e-13
-5.47861e-13
-5.41726e-13
-5.35132e-13
-5.24216e-13
-5.06767e-13
-5.0011e-13
-4.98827e-13
-4.97769e-13
-4.9311e-13
-4.91105e-13
-4.82153e-13
-4.62163e-13
-4.43717e-13
-4.40688e-13
-4.42317e-13
-4.41162e-13
-4.42248e-13
-4.35676e-13
-4.23248e-13
-4.14241e-13
-4.05525e-13
-3.95968e-13
-3.86091e-13
-3.77935e-13
-3.6818e-13
-3.59601e-13
-3.51773e-13
-3.42166e-13
-3.33323e-13
-3.1999e-13
-3.13379e-13
-3.10307e-13
-3.07863e-13
-3.05026e-13
-2.96713e-13
-2.89177e-13
-2.78593e-13
-2.65957e-13
-2.57597e-13
-2.50163e-13
-2.46165e-13
-2.38294e-13
-2.27331e-13
-2.19515e-13
-2.12122e-13
-2.05984e-13
-1.92849e-13
-1.85862e-13
-1.85393e-13
-1.81264e-13
-1.7854e-13
-1.72473e-13
-1.63784e-13
-1.50653e-13
-1.37384e-13
-1.31987e-13
-1.23425e-13
-1.1944e-13
-1.15909e-13
-1.10206e-13
-1.00292e-13
-9.21109e-14
-8.83825e-14
-8.46704e-14
-7.83143e-14
-7.18837e-14
-6.41985e-14
-5.76616e-14
-4.86639e-14
-3.92985e-14
-3.05048e-14
-2.18433e-14
-1.25601e-14
-3.17566e-15
-7.05859e-13
-7.04724e-13
-7.08291e-13
-7.08215e-13
-7.08637e-13
-7.04982e-13
-7.02125e-13
-6.99511e-13
-6.9409e-13
-6.89217e-13
-6.83215e-13
-6.77196e-13
-6.66595e-13
-6.54272e-13
-6.4244e-13
-6.35506e-13
-6.30353e-13
-6.22807e-13
-6.12944e-13
-6.05076e-13
-5.94295e-13
-5.81754e-13
-5.73063e-13
-5.66977e-13
-5.57712e-13
-5.5153e-13
-5.4888e-13
-5.42569e-13
-5.33767e-13
-5.19997e-13
-5.10428e-13
-5.03824e-13
-4.98143e-13
-4.94378e-13
-4.90342e-13
-4.87094e-13
-4.79816e-13
-4.66512e-13
-4.51417e-13
-4.45226e-13
-4.42113e-13
-4.40116e-13
-4.38569e-13
-4.33442e-13
-4.25391e-13
-4.1457e-13
-4.03868e-13
-3.95794e-13
-3.86552e-13
-3.75217e-13
-3.66995e-13
-3.58688e-13
-3.51631e-13
-3.43238e-13
-3.34444e-13
-3.22987e-13
-3.13301e-13
-3.0843e-13
-3.0603e-13
-3.03454e-13
-2.99075e-13
-2.89209e-13
-2.80037e-13
-2.67873e-13
-2.59199e-13
-2.49711e-13
-2.43563e-13
-2.37415e-13
-2.2949e-13
-2.21088e-13
-2.12654e-13
-2.05843e-13
-1.9828e-13
-1.8904e-13
-1.85079e-13
-1.77937e-13
-1.77069e-13
-1.70092e-13
-1.60549e-13
-1.48509e-13
-1.38622e-13
-1.3358e-13
-1.27451e-13
-1.2222e-13
-1.13518e-13
-1.07628e-13
-9.84019e-14
-8.99603e-14
-8.65697e-14
-8.3126e-14
-8.01722e-14
-7.45758e-14
-6.82632e-14
-5.58339e-14
-4.70499e-14
-4.00076e-14
-3.01234e-14
-2.20709e-14
-1.45215e-14
-5.09759e-15
-7.05536e-13
-7.04521e-13
-7.06846e-13
-7.10518e-13
-7.11543e-13
-7.06538e-13
-7.01246e-13
-6.98414e-13
-6.92448e-13
-6.8891e-13
-6.83284e-13
-6.76377e-13
-6.66326e-13
-6.55527e-13
-6.4442e-13
-6.35963e-13
-6.30093e-13
-6.22433e-13
-6.1335e-13
-6.04019e-13
-5.92775e-13
-5.83498e-13
-5.74243e-13
-5.67817e-13
-5.59624e-13
-5.54045e-13
-5.49844e-13
-5.41795e-13
-5.31419e-13
-5.17789e-13
-5.11153e-13
-5.04228e-13
-4.98365e-13
-4.95799e-13
-4.92201e-13
-4.88523e-13
-4.78635e-13
-4.68392e-13
-4.56874e-13
-4.45463e-13
-4.41222e-13
-4.36528e-13
-4.37648e-13
-4.34136e-13
-4.26809e-13
-4.15085e-13
-4.02794e-13
-3.9286e-13
-3.86863e-13
-3.81535e-13
-3.69559e-13
-3.58838e-13
-3.49123e-13
-3.39994e-13
-3.32791e-13
-3.24213e-13
-3.13325e-13
-3.1073e-13
-3.11333e-13
-3.0461e-13
-2.96583e-13
-2.83896e-13
-2.75047e-13
-2.69324e-13
-2.62266e-13
-2.53737e-13
-2.46639e-13
-2.36035e-13
-2.28166e-13
-2.18014e-13
-2.09392e-13
-2.02816e-13
-1.94305e-13
-1.88651e-13
-1.84606e-13
-1.80659e-13
-1.7555e-13
-1.70187e-13
-1.59863e-13
-1.4911e-13
-1.44364e-13
-1.35957e-13
-1.23397e-13
-1.18184e-13
-1.12967e-13
-1.10001e-13
-1.0368e-13
-9.3421e-14
-8.64757e-14
-8.08491e-14
-7.75824e-14
-7.37667e-14
-6.63312e-14
-5.73482e-14
-4.61513e-14
-3.70107e-14
-3.06314e-14
-2.32142e-14
-1.84786e-14
-5.81353e-15
-7.06676e-13
-7.08085e-13
-7.09098e-13
-7.0506e-13
-7.09663e-13
-7.03237e-13
-7.01246e-13
-6.98677e-13
-6.9681e-13
-6.9149e-13
-6.81262e-13
-6.7128e-13
-6.62805e-13
-6.56643e-13
-6.53964e-13
-6.43027e-13
-6.27987e-13
-6.18592e-13
-6.12501e-13
-6.02788e-13
-5.93544e-13
-5.85771e-13
-5.75242e-13
-5.61354e-13
-5.54398e-13
-5.5148e-13
-5.48954e-13
-5.43627e-13
-5.3107e-13
-5.22223e-13
-5.15585e-13
-5.07967e-13
-4.99168e-13
-4.93482e-13
-4.87557e-13
-4.87825e-13
-4.786e-13
-4.66793e-13
-4.58088e-13
-4.48538e-13
-4.44904e-13
-4.4235e-13
-4.37561e-13
-4.31048e-13
-4.21339e-13
-4.1082e-13
-4.02388e-13
-3.97296e-13
-3.88839e-13
-3.74452e-13
-3.64236e-13
-3.57773e-13
-3.51474e-13
-3.44414e-13
-3.32159e-13
-3.25117e-13
-3.15559e-13
-3.10721e-13
-3.10188e-13
-3.03544e-13
-2.9467e-13
-2.85044e-13
-2.79577e-13
-2.71914e-13
-2.61512e-13
-2.52939e-13
-2.45265e-13
-2.36042e-13
-2.29016e-13
-2.20564e-13
-2.13621e-13
-2.06473e-13
-1.97563e-13
-1.90144e-13
-1.84042e-13
-1.79118e-13
-1.76215e-13
-1.69212e-13
-1.59726e-13
-1.49959e-13
-1.42759e-13
-1.36979e-13
-1.25722e-13
-1.1602e-13
-1.1203e-13
-1.07339e-13
-1.00882e-13
-9.31096e-14
-8.56323e-14
-8.14148e-14
-7.97302e-14
-7.38884e-14
-6.83719e-14
-5.58402e-14
-4.64871e-14
-3.97328e-14
-3.22556e-14
-2.2206e-14
-1.48151e-14
-5.30561e-15
-7.08093e-13
-7.12837e-13
-7.09174e-13
-7.04103e-13
-7.00094e-13
-7.03852e-13
-7.04209e-13
-7.02782e-13
-6.96096e-13
-6.88134e-13
-6.7899e-13
-6.73082e-13
-6.62786e-13
-6.53944e-13
-6.52607e-13
-6.46652e-13
-6.35175e-13
-6.23852e-13
-6.10212e-13
-5.9701e-13
-5.91885e-13
-5.8464e-13
-5.69652e-13
-5.60021e-13
-5.57819e-13
-5.55236e-13
-5.50863e-13
-5.42307e-13
-5.33445e-13
-5.24633e-13
-5.16212e-13
-5.09503e-13
-5.00521e-13
-4.94105e-13
-4.88401e-13
-4.86804e-13
-4.77686e-13
-4.66686e-13
-4.551e-13
-4.47584e-13
-4.44868e-13
-4.44768e-13
-4.37891e-13
-4.2944e-13
-4.18613e-13
-4.08817e-13
-4.00891e-13
-3.95375e-13
-3.87456e-13
-3.78371e-13
-3.6811e-13
-3.61157e-13
-3.52735e-13
-3.43541e-13
-3.33114e-13
-3.23565e-13
-3.16932e-13
-3.12433e-13
-3.08951e-13
-3.01774e-13
-2.94187e-13
-2.85535e-13
-2.76981e-13
-2.70767e-13
-2.65502e-13
-2.5887e-13
-2.50834e-13
-2.37641e-13
-2.2856e-13
-2.18127e-13
-2.09625e-13
-2.03325e-13
-1.97098e-13
-1.90413e-13
-1.80464e-13
-1.75836e-13
-1.74142e-13
-1.68991e-13
-1.62094e-13
-1.52e-13
-1.44285e-13
-1.393e-13
-1.26243e-13
-1.15389e-13
-1.08468e-13
-1.03689e-13
-1.00187e-13
-9.61953e-14
-8.81735e-14
-8.31052e-14
-7.8548e-14
-7.35489e-14
-6.59653e-14
-6.00871e-14
-5.17166e-14
-4.03383e-14
-3.25579e-14
-2.46973e-14
-1.43591e-14
-2.87082e-15
-7.04403e-13
-7.14712e-13
-7.11084e-13
-7.01081e-13
-7.05006e-13
-7.09368e-13
-7.07603e-13
-7.03219e-13
-6.9428e-13
-6.79883e-13
-6.76021e-13
-6.71661e-13
-6.6747e-13
-6.56406e-13
-6.49302e-13
-6.48819e-13
-6.37397e-13
-6.26561e-13
-6.14967e-13
-6.00414e-13
-5.89672e-13
-5.77748e-13
-5.5969e-13
-5.56497e-13
-5.58286e-13
-5.58699e-13
-5.50739e-13
-5.40765e-13
-5.32323e-13
-5.28188e-13
-5.18226e-13
-5.08604e-13
-4.99859e-13
-4.97533e-13
-4.94704e-13
-4.85621e-13
-4.75215e-13
-4.66212e-13
-4.55396e-13
-4.50317e-13
-4.47895e-13
-4.45351e-13
-4.36217e-13
-4.30053e-13
-4.18984e-13
-4.06441e-13
-3.9634e-13
-3.91241e-13
-3.87495e-13
-3.78187e-13
-3.70803e-13
-3.60456e-13
-3.50885e-13
-3.4121e-13
-3.31466e-13
-3.25464e-13
-3.19849e-13
-3.13936e-13
-3.07118e-13
-3.02837e-13
-2.9623e-13
-2.86399e-13
-2.78233e-13
-2.70886e-13
-2.61414e-13
-2.56948e-13
-2.51852e-13
-2.38877e-13
-2.29638e-13
-2.21481e-13
-2.11324e-13
-2.03736e-13
-1.98653e-13
-1.92642e-13
-1.82653e-13
-1.78527e-13
-1.72726e-13
-1.65554e-13
-1.60747e-13
-1.5469e-13
-1.47212e-13
-1.38363e-13
-1.23829e-13
-1.12836e-13
-1.08985e-13
-1.06419e-13
-1.02767e-13
-9.38903e-14
-8.72781e-14
-8.27747e-14
-7.80553e-14
-7.37315e-14
-6.40884e-14
-5.95492e-14
-5.22135e-14
-4.42536e-14
-3.25939e-14
-2.32598e-14
-1.21478e-14
-1.60434e-15
-7.10216e-13
-7.11349e-13
-7.10691e-13
-7.06908e-13
-7.04241e-13
-7.0794e-13
-7.0735e-13
-7.0071e-13
-6.92268e-13
-6.80329e-13
-6.71707e-13
-6.70634e-13
-6.6976e-13
-6.57975e-13
-6.50715e-13
-6.45413e-13
-6.41154e-13
-6.32269e-13
-6.1202e-13
-5.92819e-13
-5.75946e-13
-5.72644e-13
-5.70818e-13
-5.68737e-13
-5.64488e-13
-5.58275e-13
-5.46888e-13
-5.37827e-13
-5.34448e-13
-5.30139e-13
-5.2149e-13
-5.07742e-13
-5.01209e-13
-4.92975e-13
-4.88351e-13
-4.82905e-13
-4.77126e-13
-4.72198e-13
-4.61273e-13
-4.48946e-13
-4.4221e-13
-4.38259e-13
-4.33704e-13
-4.29814e-13
-4.2315e-13
-4.12277e-13
-4.00235e-13
-3.90453e-13
-3.84073e-13
-3.77619e-13
-3.69942e-13
-3.6376e-13
-3.54417e-13
-3.41671e-13
-3.32975e-13
-3.26639e-13
-3.19798e-13
-3.07857e-13
-3.02883e-13
-3.01965e-13
-3.00656e-13
-2.92458e-13
-2.80864e-13
-2.68138e-13
-2.58281e-13
-2.53532e-13
-2.46022e-13
-2.34105e-13
-2.24675e-13
-2.20537e-13
-2.20443e-13
-2.1079e-13
-2.00163e-13
-1.9569e-13
-1.85677e-13
-1.76335e-13
-1.68631e-13
-1.61835e-13
-1.56267e-13
-1.52443e-13
-1.46199e-13
-1.37445e-13
-1.29368e-13
-1.19931e-13
-1.13405e-13
-1.02466e-13
-9.94093e-14
-9.61806e-14
-8.75852e-14
-8.46348e-14
-7.75551e-14
-6.88732e-14
-6.45616e-14
-5.92451e-14
-5.2857e-14
-4.14823e-14
-3.23679e-14
-2.18519e-14
-1.20629e-14
-3.9689e-15
-7.09919e-13
-7.09773e-13
-7.07388e-13
-7.07686e-13
-7.10798e-13
-7.10558e-13
-7.07494e-13
-7.00377e-13
-6.90803e-13
-6.82039e-13
-6.75421e-13
-6.69305e-13
-6.65801e-13
-6.55796e-13
-6.51589e-13
-6.4512e-13
-6.41347e-13
-6.3129e-13
-6.0653e-13
-5.93965e-13
-5.89816e-13
-5.83041e-13
-5.725e-13
-5.62458e-13
-5.59501e-13
-5.5359e-13
-5.41842e-13
-5.35445e-13
-5.31265e-13
-5.27453e-13
-5.21033e-13
-5.13769e-13
-5.07668e-13
-5.01389e-13
-4.89407e-13
-4.81684e-13
-4.75806e-13
-4.66783e-13
-4.58394e-13
-4.49027e-13
-4.43811e-13
-4.42805e-13
-4.35496e-13
-4.34107e-13
-4.27905e-13
-4.1242e-13
-3.96404e-13
-3.81543e-13
-3.80272e-13
-3.79899e-13
-3.75846e-13
-3.67479e-13
-3.53965e-13
-3.41732e-13
-3.30323e-13
-3.23634e-13
-3.20232e-13
-3.14465e-13
-3.05243e-13
-2.9852e-13
-2.95693e-13
-2.89018e-13
-2.81784e-13
-2.73182e-13
-2.64561e-13
-2.55798e-13
-2.46568e-13
-2.35989e-13
-2.30197e-13
-2.23231e-13
-2.15834e-13
-2.10711e-13
-1.99274e-13
-1.86579e-13
-1.79123e-13
-1.77212e-13
-1.72986e-13
-1.65876e-13
-1.6176e-13
-1.55866e-13
-1.46811e-13
-1.37642e-13
-1.2535e-13
-1.14223e-13
-1.05449e-13
-1.01908e-13
-1.00508e-13
-9.7806e-14
-9.00751e-14
-8.30215e-14
-7.49579e-14
-6.95672e-14
-6.5114e-14
-6.04803e-14
-5.10998e-14
-3.97922e-14
-3.26446e-14
-2.3351e-14
-1.34244e-14
-2.21075e-15
-7.12607e-13
-7.149e-13
-7.09197e-13
-7.01766e-13
-7.06704e-13
-7.10019e-13
-7.09954e-13
-7.0203e-13
-6.87901e-13
-6.8398e-13
-6.76464e-13
-6.65631e-13
-6.59522e-13
-6.55426e-13
-6.52235e-13
-6.47884e-13
-6.40902e-13
-6.28869e-13
-6.1014e-13
-5.96532e-13
-5.88933e-13
-5.80681e-13
-5.77058e-13
-5.69196e-13
-5.59056e-13
-5.49116e-13
-5.40999e-13
-5.35736e-13
-5.3469e-13
-5.28839e-13
-5.21986e-13
-5.14857e-13
-5.04247e-13
-4.93771e-13
-4.90034e-13
-4.82787e-13
-4.74422e-13
-4.65296e-13
-4.61216e-13
-4.56289e-13
-4.50589e-13
-4.43786e-13
-4.32147e-13
-4.23341e-13
-4.20298e-13
-4.13028e-13
-4.02339e-13
-3.90937e-13
-3.84149e-13
-3.76872e-13
-3.69742e-13
-3.62445e-13
-3.52297e-13
-3.43175e-13
-3.35e-13
-3.29926e-13
-3.21142e-13
-3.14027e-13
-3.05954e-13
-2.99304e-13
-2.92634e-13
-2.86239e-13
-2.80202e-13
-2.72432e-13
-2.61542e-13
-2.51128e-13
-2.44751e-13
-2.36677e-13
-2.28921e-13
-2.21819e-13
-2.14451e-13
-2.11262e-13
-2.03752e-13
-1.93434e-13
-1.82006e-13
-1.77722e-13
-1.73879e-13
-1.67479e-13
-1.6229e-13
-1.52944e-13
-1.47521e-13
-1.38567e-13
-1.2555e-13
-1.15886e-13
-1.07849e-13
-1.02856e-13
-1.0155e-13
-9.69883e-14
-8.93044e-14
-8.30376e-14
-7.47811e-14
-6.85679e-14
-6.19357e-14
-5.7545e-14
-5.07379e-14
-4.12997e-14
-3.09948e-14
-1.90657e-14
-8.89226e-15
8.79565e-16
-7.12912e-13
-7.12168e-13
-7.11842e-13
-7.08821e-13
-7.05151e-13
-7.07958e-13
-7.06037e-13
-7.0502e-13
-6.96125e-13
-6.79778e-13
-6.70809e-13
-6.62667e-13
-6.60947e-13
-6.59052e-13
-6.54375e-13
-6.47144e-13
-6.36294e-13
-6.2874e-13
-6.17691e-13
-6.01495e-13
-5.89112e-13
-5.76012e-13
-5.70877e-13
-5.63432e-13
-5.60999e-13
-5.54909e-13
-5.44177e-13
-5.38444e-13
-5.33035e-13
-5.28325e-13
-5.23442e-13
-5.14885e-13
-5.04152e-13
-4.92463e-13
-4.86265e-13
-4.81168e-13
-4.77254e-13
-4.67128e-13
-4.61477e-13
-4.56734e-13
-4.47214e-13
-4.37852e-13
-4.31553e-13
-4.24009e-13
-4.23205e-13
-4.17494e-13
-4.06626e-13
-3.93411e-13
-3.84178e-13
-3.73812e-13
-3.66267e-13
-3.62382e-13
-3.54158e-13
-3.44509e-13
-3.3561e-13
-3.2771e-13
-3.20344e-13
-3.12775e-13
-3.05699e-13
-3.01847e-13
-2.96742e-13
-2.93196e-13
-2.85648e-13
-2.73001e-13
-2.58e-13
-2.43272e-13
-2.36329e-13
-2.31592e-13
-2.28188e-13
-2.2852e-13
-2.226e-13
-2.14186e-13
-2.06915e-13
-1.96328e-13
-1.83514e-13
-1.74672e-13
-1.70345e-13
-1.65042e-13
-1.61265e-13
-1.53011e-13
-1.47027e-13
-1.38907e-13
-1.27408e-13
-1.19637e-13
-1.10694e-13
-1.02042e-13
-9.77207e-14
-9.18603e-14
-8.84863e-14
-8.42181e-14
-7.32637e-14
-6.41878e-14
-5.91281e-14
-5.45108e-14
-4.56097e-14
-3.64253e-14
-2.73867e-14
-1.69725e-14
-6.52841e-15
-2.38426e-16
-7.11225e-13
-7.10583e-13
-7.09802e-13
-7.11193e-13
-7.11445e-13
-7.05711e-13
-7.03623e-13
-7.01089e-13
-6.94351e-13
-6.85792e-13
-6.71479e-13
-6.61009e-13
-6.60303e-13
-6.59855e-13
-6.54485e-13
-6.50068e-13
-6.3666e-13
-6.27215e-13
-6.17841e-13
-6.03175e-13
-5.93742e-13
-5.7734e-13
-5.66648e-13
-5.6225e-13
-5.55756e-13
-5.50892e-13
-5.46733e-13
-5.40087e-13
-5.34995e-13
-5.30728e-13
-5.22427e-13
-5.13421e-13
-5.03092e-13
-4.95005e-13
-4.90653e-13
-4.82384e-13
-4.74054e-13
-4.6752e-13
-4.63693e-13
-4.55161e-13
-4.46739e-13
-4.37368e-13
-4.31218e-13
-4.29434e-13
-4.27137e-13
-4.16038e-13
-4.02953e-13
-3.89467e-13
-3.80561e-13
-3.72192e-13
-3.69555e-13
-3.64386e-13
-3.53722e-13
-3.43954e-13
-3.33813e-13
-3.30508e-13
-3.23395e-13
-3.15323e-13
-3.04634e-13
-2.95159e-13
-2.9361e-13
-2.85647e-13
-2.79949e-13
-2.75948e-13
-2.61151e-13
-2.46245e-13
-2.36049e-13
-2.30906e-13
-2.28688e-13
-2.3209e-13
-2.24309e-13
-2.1699e-13
-2.07763e-13
-1.95259e-13
-1.8121e-13
-1.70612e-13
-1.7004e-13
-1.69347e-13
-1.65592e-13
-1.57163e-13
-1.51506e-13
-1.42871e-13
-1.27175e-13
-1.15831e-13
-1.04952e-13
-9.6163e-14
-9.89038e-14
-9.73681e-14
-8.93533e-14
-8.25548e-14
-7.1765e-14
-6.56839e-14
-5.87289e-14
-5.25043e-14
-4.74983e-14
-3.9979e-14
-2.32221e-14
-7.43036e-15
1.42944e-15
-1.82893e-15
-7.15013e-13
-7.12954e-13
-7.10627e-13
-7.12569e-13
-7.10856e-13
-7.05471e-13
-7.05456e-13
-7.02014e-13
-6.93787e-13
-6.82523e-13
-6.73496e-13
-6.64914e-13
-6.56502e-13
-6.52995e-13
-6.49179e-13
-6.42948e-13
-6.40244e-13
-6.33378e-13
-6.20436e-13
-6.04869e-13
-5.93053e-13
-5.84985e-13
-5.73275e-13
-5.62949e-13
-5.556e-13
-5.44983e-13
-5.41605e-13
-5.39102e-13
-5.36438e-13
-5.33663e-13
-5.25102e-13
-5.14295e-13
-5.01633e-13
-4.92472e-13
-4.86766e-13
-4.79891e-13
-4.76471e-13
-4.70524e-13
-4.66276e-13
-4.53377e-13
-4.45295e-13
-4.34321e-13
-4.30891e-13
-4.3203e-13
-4.25226e-13
-4.1614e-13
-4.03932e-13
-3.93483e-13
-3.82062e-13
-3.72148e-13
-3.64854e-13
-3.62161e-13
-3.53423e-13
-3.47066e-13
-3.39535e-13
-3.29542e-13
-3.21242e-13
-3.12541e-13
-3.04375e-13
-2.98533e-13
-2.96405e-13
-2.96551e-13
-2.85058e-13
-2.72358e-13
-2.52656e-13
-2.42241e-13
-2.35833e-13
-2.33248e-13
-2.28948e-13
-2.27426e-13
-2.2123e-13
-2.20767e-13
-2.14849e-13
-2.01826e-13
-1.79758e-13
-1.6269e-13
-1.62568e-13
-1.70708e-13
-1.68472e-13
-1.57382e-13
-1.50601e-13
-1.39869e-13
-1.29784e-13
-1.21049e-13
-1.10663e-13
-9.94666e-14
-9.33076e-14
-9.27972e-14
-8.77035e-14
-8.11138e-14
-6.96161e-14
-6.49491e-14
-5.88863e-14
-5.13049e-14
-4.28091e-14
-3.55725e-14
-2.21171e-14
-9.62284e-15
-2.89324e-15
-2.12833e-15
-7.12465e-13
-7.12378e-13
-7.04249e-13
-7.14011e-13
-7.13571e-13
-7.10298e-13
-7.03944e-13
-6.96529e-13
-6.88431e-13
-6.77075e-13
-6.71624e-13
-6.66152e-13
-6.65415e-13
-6.58822e-13
-6.51613e-13
-6.47113e-13
-6.42289e-13
-6.35084e-13
-6.2166e-13
-6.06349e-13
-5.85841e-13
-5.71149e-13
-5.6127e-13
-5.60205e-13
-5.55993e-13
-5.51865e-13
-5.45159e-13
-5.38808e-13
-5.3737e-13
-5.35732e-13
-5.28568e-13
-5.15211e-13
-5.04904e-13
-4.96823e-13
-4.92584e-13
-4.82013e-13
-4.72764e-13
-4.68639e-13
-4.63279e-13
-4.53186e-13
-4.44043e-13
-4.4027e-13
-4.36113e-13
-4.30613e-13
-4.18788e-13
-4.0962e-13
-4.02062e-13
-3.94036e-13
-3.84461e-13
-3.76215e-13
-3.69253e-13
-3.62492e-13
-3.5044e-13
-3.39756e-13
-3.41953e-13
-3.41331e-13
-3.24863e-13
-3.094e-13
-3.00706e-13
-2.91965e-13
-2.89609e-13
-2.86932e-13
-2.86057e-13
-2.75618e-13
-2.57907e-13
-2.48245e-13
-2.34858e-13
-2.34044e-13
-2.29224e-13
-2.24288e-13
-2.21013e-13
-2.2172e-13
-2.15953e-13
-1.99432e-13
-1.81318e-13
-1.68222e-13
-1.66458e-13
-1.71227e-13
-1.64781e-13
-1.55224e-13
-1.48564e-13
-1.40909e-13
-1.32842e-13
-1.23071e-13
-1.12085e-13
-9.89201e-14
-9.35554e-14
-9.35989e-14
-8.68036e-14
-7.96011e-14
-7.04465e-14
-6.32389e-14
-5.51128e-14
-4.90883e-14
-4.33681e-14
-3.44079e-14
-2.25308e-14
-1.17408e-14
-1.90707e-15
1.81656e-16
-7.09084e-13
-7.19953e-13
-7.14626e-13
-7.09254e-13
-7.097e-13
-7.07954e-13
-7.03084e-13
-7.01291e-13
-6.89119e-13
-6.73231e-13
-6.69155e-13
-6.66797e-13
-6.6381e-13
-6.59326e-13
-6.54403e-13
-6.4393e-13
-6.32822e-13
-6.24203e-13
-6.18254e-13
-6.0926e-13
-6.02343e-13
-5.93243e-13
-5.79273e-13
-5.59994e-13
-5.45367e-13
-5.3925e-13
-5.42243e-13
-5.40935e-13
-5.39421e-13
-5.38321e-13
-5.29577e-13
-5.16379e-13
-5.00211e-13
-4.8762e-13
-4.82775e-13
-4.78755e-13
-4.79482e-13
-4.75943e-13
-4.64343e-13
-4.58393e-13
-4.47218e-13
-4.36488e-13
-4.34598e-13
-4.27348e-13
-4.18303e-13
-4.09116e-13
-3.99076e-13
-3.93972e-13
-3.88964e-13
-3.79099e-13
-3.70662e-13
-3.60203e-13
-3.52095e-13
-3.44504e-13
-3.39591e-13
-3.33869e-13
-3.26873e-13
-3.19889e-13
-3.10858e-13
-2.98331e-13
-2.88303e-13
-2.81454e-13
-2.75674e-13
-2.69801e-13
-2.59212e-13
-2.50679e-13
-2.41939e-13
-2.35398e-13
-2.29863e-13
-2.27576e-13
-2.23719e-13
-2.15973e-13
-2.08568e-13
-2.00732e-13
-1.85006e-13
-1.73833e-13
-1.67259e-13
-1.65825e-13
-1.64607e-13
-1.56188e-13
-1.49449e-13
-1.38734e-13
-1.31767e-13
-1.22126e-13
-1.10856e-13
-1.01114e-13
-9.63777e-14
-9.21687e-14
-8.81999e-14
-7.91573e-14
-7.07628e-14
-6.6803e-14
-5.81313e-14
-4.8723e-14
-3.79939e-14
-2.90442e-14
-2.1077e-14
-1.33233e-14
-4.97288e-15
-2.52266e-16
-7.08749e-13
-7.13124e-13
-7.15829e-13
-7.11523e-13
-7.10389e-13
-7.11479e-13
-6.99768e-13
-6.8697e-13
-6.81069e-13
-6.78624e-13
-6.7564e-13
-6.71017e-13
-6.67574e-13
-6.61259e-13
-6.54908e-13
-6.4551e-13
-6.38548e-13
-6.34068e-13
-6.23856e-13
-6.08887e-13
-5.87369e-13
-5.73305e-13
-5.62981e-13
-5.52295e-13
-5.53814e-13
-5.52896e-13
-5.48398e-13
-5.41516e-13
-5.37579e-13
-5.37055e-13
-5.31526e-13
-5.20092e-13
-5.06546e-13
-4.881e-13
-4.77227e-13
-4.79398e-13
-4.81371e-13
-4.77673e-13
-4.70922e-13
-4.59666e-13
-4.44439e-13
-4.35455e-13
-4.27992e-13
-4.22744e-13
-4.17451e-13
-4.12289e-13
-4.05034e-13
-3.95567e-13
-3.88647e-13
-3.86572e-13
-3.77105e-13
-3.57739e-13
-3.46259e-13
-3.38907e-13
-3.32937e-13
-3.31783e-13
-3.28024e-13
-3.19063e-13
-3.05841e-13
-2.94874e-13
-2.91691e-13
-2.87074e-13
-2.79504e-13
-2.69746e-13
-2.54696e-13
-2.43864e-13
-2.40151e-13
-2.38336e-13
-2.34035e-13
-2.27419e-13
-2.20356e-13
-2.16184e-13
-2.09328e-13
-1.99373e-13
-1.86697e-13
-1.70402e-13
-1.6623e-13
-1.64852e-13
-1.66672e-13
-1.6222e-13
-1.53431e-13
-1.42961e-13
-1.31758e-13
-1.19255e-13
-1.08846e-13
-1.01841e-13
-9.75509e-14
-9.1972e-14
-8.55882e-14
-7.83622e-14
-7.13124e-14
-6.5514e-14
-5.90753e-14
-4.8822e-14
-3.71955e-14
-2.60336e-14
-1.66974e-14
-1.03935e-14
-2.95718e-15
-1.1781e-15
-7.07318e-13
-7.17447e-13
-7.18454e-13
-7.12441e-13
-7.08978e-13
-7.15134e-13
-7.10599e-13
-6.94438e-13
-6.7392e-13
-6.68854e-13
-6.67762e-13
-6.69102e-13
-6.6796e-13
-6.64417e-13
-6.58855e-13
-6.46951e-13
-6.36729e-13
-6.2773e-13
-6.13925e-13
-6.04717e-13
-5.95666e-13
-5.82016e-13
-5.69034e-13
-5.53629e-13
-5.52888e-13
-5.51454e-13
-5.50467e-13
-5.4622e-13
-5.38338e-13
-5.36359e-13
-5.27807e-13
-5.15245e-13
-5.05322e-13
-4.89294e-13
-4.76743e-13
-4.76612e-13
-4.7919e-13
-4.78598e-13
-4.70351e-13
-4.60441e-13
-4.43952e-13
-4.34482e-13
-4.31969e-13
-4.25674e-13
-4.17673e-13
-4.09935e-13
-4.07595e-13
-4.00273e-13
-3.88382e-13
-3.75866e-13
-3.67114e-13
-3.60985e-13
-3.50634e-13
-3.36935e-13
-3.38267e-13
-3.3591e-13
-3.2779e-13
-3.21098e-13
-3.12962e-13
-2.97436e-13
-2.89836e-13
-2.82517e-13
-2.74236e-13
-2.6639e-13
-2.54279e-13
-2.46665e-13
-2.37414e-13
-2.35096e-13
-2.30512e-13
-2.30998e-13
-2.23238e-13
-2.19895e-13
-2.13238e-13
-1.98864e-13
-1.83765e-13
-1.71528e-13
-1.69664e-13
-1.67704e-13
-1.62416e-13
-1.57757e-13
-1.52151e-13
-1.43349e-13
-1.32855e-13
-1.19932e-13
-1.12642e-13
-1.06158e-13
-9.84323e-14
-9.11432e-14
-8.54061e-14
-7.74739e-14
-7.00057e-14
-6.34081e-14
-5.47633e-14
-4.50077e-14
-3.69477e-14
-2.97944e-14
-1.47039e-14
-7.23304e-15
-4.26299e-17
1.53361e-16
-7.15373e-13
-7.14281e-13
-7.10639e-13
-7.06361e-13
-7.07804e-13
-7.02091e-13
-6.96672e-13
-6.98184e-13
-6.92503e-13
-6.83625e-13
-6.776e-13
-6.67522e-13
-6.60766e-13
-6.59514e-13
-6.574e-13
-6.48793e-13
-6.39012e-13
-6.36006e-13
-6.23152e-13
-6.04667e-13
-5.83191e-13
-5.68927e-13
-5.63245e-13
-5.61711e-13
-5.54686e-13
-5.54686e-13
-5.50803e-13
-5.44068e-13
-5.38892e-13
-5.34422e-13
-5.27472e-13
-5.14906e-13
-5.01992e-13
-4.88511e-13
-4.80269e-13
-4.79981e-13
-4.84803e-13
-4.78776e-13
-4.69751e-13
-4.58349e-13
-4.44521e-13
-4.3136e-13
-4.29332e-13
-4.26829e-13
-4.23083e-13
-4.11448e-13
-4.01938e-13
-3.9783e-13
-3.92281e-13
-3.79567e-13
-3.66167e-13
-3.6042e-13
-3.52283e-13
-3.41324e-13
-3.3256e-13
-3.30484e-13
-3.25165e-13
-3.20161e-13
-3.13859e-13
-3.0326e-13
-2.91952e-13
-2.8313e-13
-2.73495e-13
-2.65486e-13
-2.58961e-13
-2.48059e-13
-2.37851e-13
-2.2957e-13
-2.27344e-13
-2.30864e-13
-2.2288e-13
-2.18121e-13
-2.11056e-13
-1.99646e-13
-1.88479e-13
-1.75555e-13
-1.65544e-13
-1.62082e-13
-1.61745e-13
-1.63963e-13
-1.58044e-13
-1.4231e-13
-1.31652e-13
-1.18399e-13
-1.13549e-13
-1.08663e-13
-1.01007e-13
-9.033e-14
-8.08385e-14
-7.63885e-14
-7.03123e-14
-6.30661e-14
-5.68214e-14
-4.76793e-14
-3.58189e-14
-2.47297e-14
-1.4997e-14
-8.70992e-15
-6.62952e-16
1.561e-15
-7.15067e-13
-7.13616e-13
-7.112e-13
-7.08872e-13
-7.1506e-13
-7.11931e-13
-6.97051e-13
-6.89664e-13
-6.83787e-13
-6.79999e-13
-6.78803e-13
-6.75786e-13
-6.629e-13
-6.55219e-13
-6.51589e-13
-6.45991e-13
-6.40825e-13
-6.33083e-13
-6.19316e-13
-6.01815e-13
-5.86484e-13
-5.70792e-13
-5.61027e-13
-5.62151e-13
-5.62756e-13
-5.54255e-13
-5.46531e-13
-5.44413e-13
-5.42337e-13
-5.37305e-13
-5.30058e-13
-5.17111e-13
-5.02406e-13
-4.87676e-13
-4.76649e-13
-4.78534e-13
-4.78289e-13
-4.76235e-13
-4.73701e-13
-4.63883e-13
-4.48824e-13
-4.35538e-13
-4.28606e-13
-4.20782e-13
-4.18695e-13
-4.13295e-13
-4.0443e-13
-3.94545e-13
-3.87371e-13
-3.79728e-13
-3.66938e-13
-3.61287e-13
-3.5281e-13
-3.4261e-13
-3.39323e-13
-3.35002e-13
-3.2319e-13
-3.13651e-13
-3.08494e-13
-2.99927e-13
-2.94223e-13
-2.83512e-13
-2.74496e-13
-2.66821e-13
-2.57706e-13
-2.46765e-13
-2.40193e-13
-2.2996e-13
-2.24343e-13
-2.22303e-13
-2.2142e-13
-2.19286e-13
-2.13171e-13
-1.99717e-13
-1.87015e-13
-1.77035e-13
-1.71223e-13
-1.64915e-13
-1.64342e-13
-1.61604e-13
-1.54766e-13
-1.44599e-13
-1.33383e-13
-1.22054e-13
-1.12598e-13
-1.03139e-13
-9.64346e-14
-9.20218e-14
-8.61044e-14
-7.68022e-14
-6.94924e-14
-6.20504e-14
-5.36562e-14
-4.46309e-14
-3.41836e-14
-2.69471e-14
-1.69838e-14
-6.42028e-15
-3.80729e-16
-9.11366e-17
-7.09648e-13
-7.13034e-13
-7.13119e-13
-7.1141e-13
-7.09502e-13
-7.0251e-13
-6.97067e-13
-6.93129e-13
-6.91604e-13
-6.86149e-13
-6.79839e-13
-6.74565e-13
-6.65848e-13
-6.56539e-13
-6.50027e-13
-6.41738e-13
-6.38829e-13
-6.31676e-13
-6.17837e-13
-6.04321e-13
-5.85873e-13
-5.71678e-13
-5.67033e-13
-5.63599e-13
-5.54834e-13
-5.50946e-13
-5.5141e-13
-5.4932e-13
-5.41853e-13
-5.32144e-13
-5.24284e-13
-5.15516e-13
-5.0206e-13
-4.89021e-13
-4.79017e-13
-4.84749e-13
-4.87001e-13
-4.7891e-13
-4.68373e-13
-4.55958e-13
-4.44849e-13
-4.38288e-13
-4.30861e-13
-4.20787e-13
-4.15485e-13
-4.08709e-13
-4.07208e-13
-4.05462e-13
-3.90227e-13
-3.76132e-13
-3.65139e-13
-3.62524e-13
-3.53004e-13
-3.42028e-13
-3.38232e-13
-3.35267e-13
-3.26665e-13
-3.14843e-13
-3.05849e-13
-2.99388e-13
-2.96773e-13
-2.87202e-13
-2.75719e-13
-2.65351e-13
-2.53452e-13
-2.46207e-13
-2.36759e-13
-2.31598e-13
-2.25134e-13
-2.20867e-13
-2.17151e-13
-2.18823e-13
-2.13781e-13
-1.99736e-13
-1.87184e-13
-1.77031e-13
-1.73403e-13
-1.68041e-13
-1.5986e-13
-1.52656e-13
-1.57993e-13
-1.52913e-13
-1.35376e-13
-1.22428e-13
-1.1306e-13
-1.026e-13
-9.47278e-14
-9.16684e-14
-8.58003e-14
-7.71533e-14
-6.90482e-14
-6.19424e-14
-5.48072e-14
-4.31594e-14
-3.68993e-14
-2.57029e-14
-1.41569e-14
-4.53044e-15
6.48268e-16
-4.71028e-16
-7.17927e-13
-7.14509e-13
-7.12492e-13
-7.09014e-13
-7.03443e-13
-7.00367e-13
-6.96906e-13
-6.96707e-13
-6.93093e-13
-6.86525e-13
-6.79167e-13
-6.74358e-13
-6.67397e-13
-6.61166e-13
-6.52461e-13
-6.39945e-13
-6.28799e-13
-6.22281e-13
-6.17514e-13
-6.08471e-13
-5.8852e-13
-5.76237e-13
-5.67111e-13
-5.60249e-13
-5.5738e-13
-5.53807e-13
-5.52867e-13
-5.4954e-13
-5.39962e-13
-5.35443e-13
-5.25665e-13
-5.14688e-13
-5.00033e-13
-4.86989e-13
-4.81716e-13
-4.83982e-13
-4.82927e-13
-4.77249e-13
-4.68454e-13
-4.5708e-13
-4.45098e-13
-4.358e-13
-4.31558e-13
-4.25469e-13
-4.20644e-13
-4.13462e-13
-4.0251e-13
-3.94959e-13
-3.89497e-13
-3.80926e-13
-3.73291e-13
-3.62305e-13
-3.5172e-13
-3.42856e-13
-3.3637e-13
-3.29246e-13
-3.24571e-13
-3.16924e-13
-3.05166e-13
-2.99329e-13
-2.97694e-13
-2.8928e-13
-2.77158e-13
-2.63444e-13
-2.54821e-13
-2.46248e-13
-2.36731e-13
-2.29761e-13
-2.2489e-13
-2.2102e-13
-2.18917e-13
-2.18728e-13
-2.12456e-13
-1.96176e-13
-1.86105e-13
-1.77542e-13
-1.72917e-13
-1.67896e-13
-1.6402e-13
-1.60082e-13
-1.54408e-13
-1.4621e-13
-1.36884e-13
-1.27173e-13
-1.1877e-13
-1.02127e-13
-9.33104e-14
-8.85366e-14
-8.58715e-14
-7.36017e-14
-6.59867e-14
-6.08734e-14
-5.92343e-14
-4.53496e-14
-3.29247e-14
-2.48703e-14
-1.59881e-14
-1.65951e-15
-1.48752e-16
-1.90854e-15
-7.20999e-13
-7.14095e-13
-7.07697e-13
-7.08533e-13
-6.99844e-13
-7.00922e-13
-6.9732e-13
-6.97958e-13
-6.96955e-13
-6.85458e-13
-6.78437e-13
-6.74879e-13
-6.729e-13
-6.62546e-13
-6.52693e-13
-6.43548e-13
-6.34069e-13
-6.2313e-13
-6.16821e-13
-6.0142e-13
-5.8838e-13
-5.75466e-13
-5.6388e-13
-5.58535e-13
-5.55195e-13
-5.57788e-13
-5.54215e-13
-5.48323e-13
-5.4102e-13
-5.33194e-13
-5.26062e-13
-5.16633e-13
-5.00475e-13
-4.90238e-13
-4.80361e-13
-4.78811e-13
-4.80846e-13
-4.77624e-13
-4.69065e-13
-4.58226e-13
-4.48563e-13
-4.39586e-13
-4.31241e-13
-4.24762e-13
-4.18714e-13
-4.11414e-13
-4.01961e-13
-3.9731e-13
-3.92696e-13
-3.81096e-13
-3.69653e-13
-3.57941e-13
-3.51201e-13
-3.46093e-13
-3.40059e-13
-3.33468e-13
-3.26107e-13
-3.15318e-13
-3.08123e-13
-3.03406e-13
-2.98492e-13
-2.87794e-13
-2.72492e-13
-2.61797e-13
-2.52859e-13
-2.43799e-13
-2.34487e-13
-2.30909e-13
-2.24323e-13
-2.25215e-13
-2.20019e-13
-2.1463e-13
-2.05222e-13
-1.93359e-13
-1.84336e-13
-1.75788e-13
-1.76717e-13
-1.75739e-13
-1.66261e-13
-1.57624e-13
-1.51437e-13
-1.43517e-13
-1.35428e-13
-1.25993e-13
-1.13155e-13
-1.00091e-13
-9.48714e-14
-9.16184e-14
-8.49907e-14
-8.0159e-14
-7.39189e-14
-6.17661e-14
-5.11378e-14
-4.24562e-14
-3.31443e-14
-2.2323e-14
-1.43076e-14
-8.96465e-15
-2.83194e-15
-1.5526e-15
-7.18976e-13
-7.12318e-13
-7.10818e-13
-7.08969e-13
-7.04804e-13
-7.0094e-13
-6.94545e-13
-6.96987e-13
-6.96253e-13
-6.89618e-13
-6.82704e-13
-6.74463e-13
-6.7125e-13
-6.60358e-13
-6.49585e-13
-6.38619e-13
-6.27414e-13
-6.22966e-13
-6.17506e-13
-6.04166e-13
-5.90286e-13
-5.77176e-13
-5.65783e-13
-5.62446e-13
-5.62213e-13
-5.55314e-13
-5.492e-13
-5.42071e-13
-5.35515e-13
-5.33963e-13
-5.28643e-13
-5.21464e-13
-5.08823e-13
-4.97506e-13
-4.78061e-13
-4.74891e-13
-4.75447e-13
-4.7387e-13
-4.6927e-13
-4.58167e-13
-4.50662e-13
-4.39752e-13
-4.3422e-13
-4.22917e-13
-4.18991e-13
-4.13169e-13
-4.08227e-13
-3.9942e-13
-3.88614e-13
-3.73196e-13
-3.69304e-13
-3.63456e-13
-3.55927e-13
-3.41783e-13
-3.34163e-13
-3.27383e-13
-3.19804e-13
-3.17662e-13
-3.09136e-13
-3.07954e-13
-3.08945e-13
-2.84877e-13
-2.70492e-13
-2.64059e-13
-2.55525e-13
-2.4797e-13
-2.37771e-13
-2.3085e-13
-2.21129e-13
-2.18832e-13
-2.14283e-13
-2.17804e-13
-2.114e-13
-1.98638e-13
-1.82332e-13
-1.70899e-13
-1.77031e-13
-1.74436e-13
-1.66731e-13
-1.6038e-13
-1.53513e-13
-1.44106e-13
-1.34617e-13
-1.23669e-13
-1.13746e-13
-1.01714e-13
-9.41358e-14
-9.25172e-14
-8.6748e-14
-7.57812e-14
-6.69619e-14
-6.12297e-14
-5.24816e-14
-4.17602e-14
-3.80429e-14
-2.99211e-14
-1.47844e-14
-4.43729e-15
2.53499e-15
-6.12046e-16
-7.13074e-13
-7.15347e-13
-7.14952e-13
-7.086e-13
-7.02211e-13
-7.02565e-13
-6.99914e-13
-6.95822e-13
-6.93932e-13
-6.88441e-13
-6.84465e-13
-6.78849e-13
-6.6936e-13
-6.59046e-13
-6.50555e-13
-6.42293e-13
-6.35949e-13
-6.31017e-13
-6.20118e-13
-6.01371e-13
-5.80422e-13
-5.66062e-13
-5.63056e-13
-5.64034e-13
-5.6226e-13
-5.5487e-13
-5.45612e-13
-5.42069e-13
-5.35808e-13
-5.35349e-13
-5.33328e-13
-5.16077e-13
-5.02732e-13
-4.94381e-13
-4.85415e-13
-4.81597e-13
-4.78302e-13
-4.72657e-13
-4.6687e-13
-4.58402e-13
-4.50451e-13
-4.3937e-13
-4.32078e-13
-4.27007e-13
-4.24641e-13
-4.1418e-13
-4.0635e-13
-3.92838e-13
-3.89325e-13
-3.80678e-13
-3.68023e-13
-3.62082e-13
-3.55572e-13
-3.46623e-13
-3.37167e-13
-3.22909e-13
-3.10453e-13
-3.14916e-13
-3.19872e-13
-3.10304e-13
-2.99841e-13
-2.87357e-13