/*--------------------------------*- C++ -*----------------------------------*\
| =========                 |                                                 |
| \\      /  F ield         | OpenFOAM: The Open Source CFD Toolbox           |
|  \\    /   O peration     | Version:  v2012                                 |
|   \\  /    A nd           | Website:  www.openfoam.com                      |
|    \\/     M anipulation  |                                                 |
\*---------------------------------------------------------------------------*/
FoamFile
{
    version     2.0;
    format      ascii;
    class       volVectorField;
    location    "70";
    object      Usup;
}
// * * * * * * * * * * * * * * * * * * * * * * * * * * * * * * * * * * * * * //

dimensions      [0 1 -1 0 0 0 0];


internalField   nonuniform List<vector> 
4000
(
(-4.20072e-16 -4.79015e-17 0)
(-9.91188e-16 -5.33273e-17 0)
(-1.22732e-15 2.21949e-16 0)
(-1.7917e-15 1.62636e-16 0)
(-2.48908e-15 4.42477e-16 0)
(-3.13106e-15 1.81594e-16 0)
(-3.86186e-15 4.95608e-16 0)
(-3.9429e-15 9.94141e-16 0)
(-3.56701e-15 8.27885e-16 0)
(-3.85792e-15 3.66041e-16 0)
(-4.61721e-15 2.76665e-16 0)
(-4.89908e-15 7.12166e-16 0)
(-5.11905e-15 1.06275e-15 0)
(-5.56732e-15 1.26102e-15 0)
(-6.02096e-15 1.59166e-15 0)
(-6.09347e-15 1.73409e-15 0)
(-6.06452e-15 1.49665e-15 0)
(-6.64941e-15 1.00914e-15 0)
(-7.29961e-15 9.53677e-16 0)
(-7.49997e-15 1.22088e-15 0)
(-7.24379e-15 1.15083e-15 0)
(-6.91554e-15 7.43016e-16 0)
(-6.51008e-15 7.29822e-16 0)
(-6.05468e-15 7.51698e-16 0)
(-5.60627e-15 8.33315e-16 0)
(-4.81924e-15 1.06818e-15 0)
(-4.59397e-15 9.41487e-16 0)
(-4.75901e-15 1.23034e-15 0)
(-5.18729e-15 1.0438e-15 0)
(-6.04192e-15 1.28197e-15 0)
(-6.40601e-15 1.82934e-15 0)
(-5.71425e-15 2.18142e-15 0)
(-4.72295e-15 1.96497e-15 0)
(-4.86606e-15 1.53196e-15 0)
(-5.01382e-15 1.70517e-15 0)
(-4.67482e-15 1.52216e-15 0)
(-4.99136e-15 1.28606e-15 0)
(-5.50535e-15 1.49406e-15 0)
(-5.44307e-15 1.80856e-15 0)
(-4.96596e-15 1.80787e-15 0)
(-4.43226e-15 1.48798e-15 0)
(-4.18637e-15 1.09809e-15 0)
(-4.7174e-15 9.9489e-16 0)
(-5.39497e-15 1.2178e-15 0)
(-5.68427e-15 1.02147e-15 0)
(-5.76277e-15 9.96501e-16 0)
(-5.53294e-15 1.1305e-15 0)
(-5.60892e-15 1.32584e-15 0)
(-5.9006e-15 1.47994e-15 0)
(-5.76754e-15 1.37134e-15 0)
(-5.5904e-15 1.1837e-15 0)
(-5.44197e-15 1.20725e-15 0)
(-5.18172e-15 1.17902e-15 0)
(-4.99441e-15 1.18727e-15 0)
(-5.22752e-15 1.23795e-15 0)
(-5.46548e-15 1.33364e-15 0)
(-5.36299e-15 1.09363e-15 0)
(-5.16964e-15 1.0432e-15 0)
(-5.06744e-15 9.53621e-16 0)
(-5.43708e-15 8.73254e-16 0)
(-5.90336e-15 1.01454e-15 0)
(-6.58083e-15 6.33019e-16 0)
(-7.12068e-15 6.78092e-16 0)
(-7.10719e-15 7.63122e-16 0)
(-7.09793e-15 8.09777e-16 0)
(-7.20607e-15 9.62819e-16 0)
(-7.30837e-15 8.61498e-16 0)
(-7.26757e-15 9.58901e-16 0)
(-7.09586e-15 1.08877e-15 0)
(-7.06142e-15 1.03934e-15 0)
(-6.76556e-15 9.54682e-16 0)
(-6.92933e-15 7.42727e-16 0)
(-7.48955e-15 1.09673e-15 0)
(-6.88951e-15 1.3363e-15 0)
(-6.12195e-15 1.0118e-15 0)
(-6.07562e-15 6.91027e-16 0)
(-6.5705e-15 9.43286e-16 0)
(-7.34188e-15 1.05364e-15 0)
(-7.17714e-15 1.38069e-15 0)
(-6.74251e-15 1.16536e-15 0)
(-6.10215e-15 1.43913e-15 0)
(-5.61144e-15 1.33735e-15 0)
(-5.60409e-15 1.19524e-15 0)
(-5.05012e-15 1.14013e-15 0)
(-4.3562e-15 1.24851e-15 0)
(-3.76882e-15 1.18344e-15 0)
(-2.92638e-15 9.27522e-16 0)
(-2.01123e-15 6.95506e-16 0)
(-1.74475e-15 4.4364e-16 0)
(-1.84803e-15 3.98737e-16 0)
(-2.05188e-15 5.82106e-16 0)
(-1.81413e-15 4.72201e-16 0)
(-1.40376e-15 2.75764e-16 0)
(-1.77727e-15 -3.56372e-17 0)
(-1.7398e-15 3.10175e-16 0)
(-1.03363e-15 3.68276e-16 0)
(-8.08742e-16 1.02471e-16 0)
(-8.43152e-16 7.21155e-17 0)
(-6.13253e-16 1.28817e-16 0)
(-1.47256e-16 3.61021e-17 0)
(-1.05645e-15 3.32254e-17 0)
(-2.48361e-15 1.22561e-16 0)
(-3.56239e-15 3.86967e-16 0)
(-5.12988e-15 4.83058e-16 0)
(-7.11243e-15 7.75193e-16 0)
(-8.82246e-15 7.38811e-16 0)
(-9.99171e-15 1.5658e-15 0)
(-1.0821e-14 2.60888e-15 0)
(-1.11746e-14 2.59901e-15 0)
(-1.1927e-14 1.66664e-15 0)
(-1.29411e-14 1.37053e-15 0)
(-1.35356e-14 2.00126e-15 0)
(-1.44867e-14 2.74323e-15 0)
(-1.56413e-14 3.83539e-15 0)
(-1.67856e-14 4.6722e-15 0)
(-1.76176e-14 4.70023e-15 0)
(-1.83426e-14 4.32168e-15 0)
(-1.95235e-14 3.32238e-15 0)
(-2.03742e-14 3.00224e-15 0)
(-2.08719e-14 3.18212e-15 0)
(-2.08725e-14 3.07801e-15 0)
(-2.00271e-14 2.62125e-15 0)
(-1.86765e-14 2.57557e-15 0)
(-1.74278e-14 2.31217e-15 0)
(-1.60542e-14 2.6305e-15 0)
(-1.4523e-14 3.24058e-15 0)
(-1.38887e-14 3.22298e-15 0)
(-1.42522e-14 3.58994e-15 0)
(-1.52682e-14 3.39135e-15 0)
(-1.64188e-14 3.94436e-15 0)
(-1.70013e-14 5.116e-15 0)
(-1.61946e-14 6.07901e-15 0)
(-1.48328e-14 5.77986e-15 0)
(-1.45531e-14 4.893e-15 0)
(-1.45326e-14 5.34295e-15 0)
(-1.4306e-14 4.72325e-15 0)
(-1.46223e-14 4.09217e-15 0)
(-1.51566e-14 4.23094e-15 0)
(-1.51733e-14 4.80158e-15 0)
(-1.46524e-14 4.76281e-15 0)
(-1.38445e-14 4.26334e-15 0)
(-1.32594e-14 3.68225e-15 0)
(-1.38874e-14 3.46041e-15 0)
(-1.53977e-14 3.58238e-15 0)
(-1.63315e-14 3.23923e-15 0)
(-1.63395e-14 3.13495e-15 0)
(-1.58584e-14 3.23238e-15 0)
(-1.60155e-14 3.6392e-15 0)
(-1.67476e-14 4.4267e-15 0)
(-1.67622e-14 4.39644e-15 0)
(-1.62674e-14 3.90298e-15 0)
(-1.57596e-14 3.64279e-15 0)
(-1.52127e-14 3.44349e-15 0)
(-1.47977e-14 3.38171e-15 0)
(-1.51516e-14 3.3163e-15 0)
(-1.58208e-14 3.68738e-15 0)
(-1.57875e-14 3.54043e-15 0)
(-1.53667e-14 3.6764e-15 0)
(-1.53353e-14 3.38239e-15 0)
(-1.60387e-14 2.81484e-15 0)
(-1.74564e-14 2.4843e-15 0)
(-1.91059e-14 1.68246e-15 0)
(-2.00246e-14 2.01585e-15 0)
(-2.02434e-14 2.22232e-15 0)
(-2.03037e-14 2.5784e-15 0)
(-2.06773e-14 2.72417e-15 0)
(-2.09349e-14 2.77281e-15 0)
(-2.06845e-14 2.8112e-15 0)
(-2.04513e-14 2.98645e-15 0)
(-2.04498e-14 2.79076e-15 0)
(-2.00424e-14 2.66354e-15 0)
(-2.00022e-14 2.47761e-15 0)
(-2.05191e-14 3.00538e-15 0)
(-1.98429e-14 3.32694e-15 0)
(-1.87376e-14 2.96809e-15 0)
(-1.81486e-14 2.71085e-15 0)
(-1.87904e-14 3.07194e-15 0)
(-2.01269e-14 3.42587e-15 0)
(-2.0043e-14 4.17195e-15 0)
(-1.90307e-14 3.77647e-15 0)
(-1.74327e-14 4.51273e-15 0)
(-1.64703e-14 3.90971e-15 0)
(-1.59267e-14 3.64745e-15 0)
(-1.42858e-14 3.32828e-15 0)
(-1.24885e-14 3.31359e-15 0)
(-1.10442e-14 3.19867e-15 0)
(-9.02695e-15 3.14537e-15 0)
(-6.87515e-15 2.45538e-15 0)
(-5.85956e-15 1.41582e-15 0)
(-5.49651e-15 1.08216e-15 0)
(-5.73014e-15 1.31462e-15 0)
(-5.44821e-15 1.39368e-15 0)
(-4.77875e-15 9.83914e-16 0)
(-4.83435e-15 3.16117e-16 0)
(-4.29519e-15 6.7447e-16 0)
(-3.30507e-15 6.96054e-16 0)
(-2.69487e-15 4.29699e-16 0)
(-2.24431e-15 2.41156e-16 0)
(-1.59959e-15 3.47758e-16 0)
(-5.16999e-16 1.33736e-16 0)
(-1.561e-15 1.8217e-16 0)
(-3.99739e-15 6.14547e-16 0)
(-5.87918e-15 5.7955e-16 0)
(-8.35322e-15 4.49694e-16 0)
(-1.12584e-14 5.17104e-16 0)
(-1.3531e-14 1.50174e-15 0)
(-1.52704e-14 2.90226e-15 0)
(-1.68656e-14 3.95038e-15 0)
(-1.82956e-14 4.26776e-15 0)
(-1.98223e-14 3.27635e-15 0)
(-2.10226e-14 2.95375e-15 0)
(-2.1778e-14 3.69154e-15 0)
(-2.27731e-14 4.58757e-15 0)
(-2.44255e-14 5.99395e-15 0)
(-2.68469e-14 6.88566e-15 0)
(-2.85546e-14 7.13577e-15 0)
(-2.99464e-14 6.90205e-15 0)
(-3.17315e-14 6.18017e-15 0)
(-3.27479e-14 5.45955e-15 0)
(-3.32795e-14 4.77169e-15 0)
(-3.3128e-14 4.74731e-15 0)
(-3.19431e-14 4.81927e-15 0)
(-3.02867e-14 4.72745e-15 0)
(-2.82769e-14 4.2279e-15 0)
(-2.58228e-14 4.85159e-15 0)
(-2.38095e-14 5.43589e-15 0)
(-2.31078e-14 5.64577e-15 0)
(-2.36085e-14 5.8491e-15 0)
(-2.47546e-14 5.99335e-15 0)
(-2.58417e-14 6.86717e-15 0)
(-2.63234e-14 8.13754e-15 0)
(-2.56844e-14 9.36097e-15 0)
(-2.46072e-14 9.24727e-15 0)
(-2.38611e-14 8.6139e-15 0)
(-2.37562e-14 8.90753e-15 0)
(-2.39566e-14 8.14327e-15 0)
(-2.4127e-14 7.24009e-15 0)
(-2.43496e-14 6.65582e-15 0)
(-2.42843e-14 6.86902e-15 0)
(-2.3809e-14 6.90932e-15 0)
(-2.28278e-14 7.04541e-15 0)
(-2.21419e-14 6.82019e-15 0)
(-2.30128e-14 6.27766e-15 0)
(-2.49979e-14 5.79078e-15 0)
(-2.6255e-14 5.70733e-15 0)
(-2.63544e-14 5.56734e-15 0)
(-2.56992e-14 5.3853e-15 0)
(-2.54382e-14 5.97863e-15 0)
(-2.63573e-14 6.79614e-15 0)
(-2.70111e-14 6.83173e-15 0)
(-2.66447e-14 6.74651e-15 0)
(-2.58687e-14 6.39129e-15 0)
(-2.49896e-14 6.23999e-15 0)
(-2.44473e-14 5.84082e-15 0)
(-2.46255e-14 5.41633e-15 0)
(-2.52557e-14 5.91414e-15 0)
(-2.53203e-14 6.05946e-15 0)
(-2.51395e-14 6.09446e-15 0)
(-2.5749e-14 5.53703e-15 0)
(-2.70401e-14 4.4077e-15 0)
(-2.8966e-14 3.43858e-15 0)
(-3.06938e-14 3.11046e-15 0)
(-3.17451e-14 3.72591e-15 0)
(-3.224e-14 3.81148e-15 0)
(-3.25709e-14 4.01031e-15 0)
(-3.32017e-14 4.17055e-15 0)
(-3.35821e-14 4.38488e-15 0)
(-3.33976e-14 4.34209e-15 0)
(-3.3139e-14 4.45976e-15 0)
(-3.31027e-14 4.47577e-15 0)
(-3.24521e-14 4.72834e-15 0)
(-3.22594e-14 4.83764e-15 0)
(-3.27509e-14 4.81914e-15 0)
(-3.19053e-14 4.97276e-15 0)
(-3.04133e-14 5.01424e-15 0)
(-2.96008e-14 5.28138e-15 0)
(-3.02788e-14 5.41871e-15 0)
(-3.15903e-14 5.82993e-15 0)
(-3.16568e-14 6.67175e-15 0)
(-3.01396e-14 6.72167e-15 0)
(-2.81185e-14 7.26584e-15 0)
(-2.69143e-14 6.64945e-15 0)
(-2.55731e-14 6.22884e-15 0)
(-2.31325e-14 5.50878e-15 0)
(-2.02393e-14 4.99016e-15 0)
(-1.75663e-14 4.73946e-15 0)
(-1.4811e-14 4.97309e-15 0)
(-1.24485e-14 4.0636e-15 0)
(-1.07033e-14 2.6601e-15 0)
(-9.40788e-15 2.14325e-15 0)
(-9.081e-15 2.2069e-15 0)
(-8.70083e-15 2.14374e-15 0)
(-8.12942e-15 1.50274e-15 0)
(-7.8654e-15 1.10598e-15 0)
(-6.81026e-15 1.14409e-15 0)
(-5.34931e-15 8.21547e-16 0)
(-4.4213e-15 5.97389e-16 0)
(-3.59373e-15 1.38719e-16 0)
(-2.4808e-15 1.06071e-16 0)
(-9.6738e-16 1.03797e-17 0)
(-1.84392e-15 4.93879e-17 0)
(-5.24553e-15 8.92926e-16 0)
(-8.41783e-15 8.70646e-16 0)
(-1.16885e-14 4.68588e-16 0)
(-1.46848e-14 8.28272e-16 0)
(-1.71585e-14 2.42997e-15 0)
(-1.97956e-14 4.00121e-15 0)
(-2.24685e-14 5.07465e-15 0)
(-2.50986e-14 5.35008e-15 0)
(-2.733e-14 4.63956e-15 0)
(-2.83169e-14 4.75138e-15 0)
(-2.91642e-14 5.7747e-15 0)
(-3.07035e-14 7.10715e-15 0)
(-3.29549e-14 7.87929e-15 0)
(-3.59551e-14 8.55558e-15 0)
(-3.84122e-14 9.67613e-15 0)
(-4.05962e-14 9.63703e-15 0)
(-4.30394e-14 9.14437e-15 0)
(-4.46721e-14 7.82351e-15 0)
(-4.50104e-14 6.72165e-15 0)
(-4.42596e-14 6.59209e-15 0)
(-4.28842e-14 6.64302e-15 0)
(-4.11131e-14 6.63933e-15 0)
(-3.83443e-14 6.8785e-15 0)
(-3.51303e-14 7.79206e-15 0)
(-3.29265e-14 8.20538e-15 0)
(-3.20605e-14 8.11821e-15 0)
(-3.25038e-14 8.30748e-15 0)
(-3.34735e-14 8.51821e-15 0)
(-3.43833e-14 9.36741e-15 0)
(-3.48556e-14 1.06742e-14 0)
(-3.45119e-14 1.1982e-14 0)
(-3.37292e-14 1.20157e-14 0)
(-3.27696e-14 1.20546e-14 0)
(-3.2682e-14 1.2135e-14 0)
(-3.32228e-14 1.15384e-14 0)
(-3.35724e-14 1.04742e-14 0)
(-3.35072e-14 9.33683e-15 0)
(-3.29563e-14 8.71193e-15 0)
(-3.20675e-14 8.8949e-15 0)
(-3.10268e-14 9.50186e-15 0)
(-3.08802e-14 9.59889e-15 0)
(-3.21999e-14 8.87501e-15 0)
(-3.41107e-14 8.41287e-15 0)
(-3.53728e-14 8.50281e-15 0)
(-3.57802e-14 8.3332e-15 0)
(-3.48773e-14 8.10583e-15 0)
(-3.44382e-14 8.42758e-15 0)
(-3.57147e-14 8.70228e-15 0)
(-3.63136e-14 9.10811e-15 0)
(-3.58829e-14 9.81789e-15 0)
(-3.51451e-14 9.67332e-15 0)
(-3.43524e-14 9.25628e-15 0)
(-3.40055e-14 8.44514e-15 0)
(-3.3819e-14 7.88717e-15 0)
(-3.42606e-14 8.12518e-15 0)
(-3.4665e-14 8.10069e-15 0)
(-3.48679e-14 7.82497e-15 0)
(-3.60155e-14 6.90182e-15 0)
(-3.77342e-14 5.60376e-15 0)
(-3.95515e-14 4.88611e-15 0)
(-4.11469e-14 4.84311e-15 0)
(-4.27046e-14 5.02495e-15 0)
(-4.38038e-14 5.06128e-15 0)
(-4.41748e-14 5.19192e-15 0)
(-4.48105e-14 5.61026e-15 0)
(-4.53789e-14 5.74845e-15 0)
(-4.51974e-14 5.80518e-15 0)
(-4.47843e-14 5.96657e-15 0)
(-4.45141e-14 6.26172e-15 0)
(-4.38438e-14 6.79839e-15 0)
(-4.39654e-14 6.86549e-15 0)
(-4.43964e-14 6.77124e-15 0)
(-4.31429e-14 7.08283e-15 0)
(-4.13088e-14 7.15642e-15 0)
(-4.04107e-14 7.43215e-15 0)
(-4.11246e-14 7.45144e-15 0)
(-4.21479e-14 7.93426e-15 0)
(-4.19765e-14 8.9164e-15 0)
(-4.03132e-14 9.64338e-15 0)
(-3.8007e-14 9.65449e-15 0)
(-3.64895e-14 9.55364e-15 0)
(-3.47761e-14 8.93054e-15 0)
(-3.16817e-14 8.11903e-15 0)
(-2.77884e-14 7.05592e-15 0)
(-2.39474e-14 6.25102e-15 0)
(-2.05174e-14 6.07371e-15 0)
(-1.78597e-14 5.3495e-15 0)
(-1.53759e-14 4.27769e-15 0)
(-1.32268e-14 3.39865e-15 0)
(-1.26197e-14 3.21031e-15 0)
(-1.22677e-14 2.60713e-15 0)
(-1.12548e-14 1.85665e-15 0)
(-1.04192e-14 1.92372e-15 0)
(-9.25234e-15 1.92383e-15 0)
(-7.59978e-15 1.09333e-15 0)
(-6.32137e-15 3.66057e-16 0)
(-5.0492e-15 -3.61407e-17 0)
(-3.31218e-15 -2.26826e-16 0)
(-1.16363e-15 -2.67673e-16 0)
(-1.94179e-15 3.198e-17 0)
(-6.2358e-15 7.74652e-16 0)
(-1.06895e-14 9.85754e-16 0)
(-1.45331e-14 8.8386e-16 0)
(-1.75989e-14 1.91666e-15 0)
(-2.05202e-14 3.45821e-15 0)
(-2.40036e-14 4.88902e-15 0)
(-2.76404e-14 6.00989e-15 0)
(-3.13112e-14 6.30666e-15 0)
(-3.39475e-14 6.30562e-15 0)
(-3.49502e-14 6.91297e-15 0)
(-3.58546e-14 7.84158e-15 0)
(-3.80348e-14 9.13115e-15 0)
(-4.11383e-14 9.64103e-15 0)
(-4.41944e-14 1.03379e-14 0)
(-4.71982e-14 1.1792e-14 0)
(-5.04838e-14 1.19554e-14 0)
(-5.39159e-14 1.14653e-14 0)
(-5.59544e-14 1.03174e-14 0)
(-5.58741e-14 9.41588e-15 0)
(-5.47672e-14 8.7872e-15 0)
(-5.30762e-14 8.8161e-15 0)
(-5.06504e-14 8.79332e-15 0)
(-4.72089e-14 9.76907e-15 0)
(-4.38404e-14 1.06624e-14 0)
(-4.18671e-14 1.08745e-14 0)
(-4.09193e-14 1.04677e-14 0)
(-4.11309e-14 1.05143e-14 0)
(-4.19791e-14 1.0714e-14 0)
(-4.25086e-14 1.14324e-14 0)
(-4.2669e-14 1.25619e-14 0)
(-4.26314e-14 1.39433e-14 0)
(-4.20162e-14 1.44614e-14 0)
(-4.09155e-14 1.51291e-14 0)
(-4.10972e-14 1.48817e-14 0)
(-4.20468e-14 1.42488e-14 0)
(-4.26547e-14 1.31802e-14 0)
(-4.26131e-14 1.24017e-14 0)
(-4.14867e-14 1.14e-14 0)
(-3.98722e-14 1.13326e-14 0)
(-3.87438e-14 1.14713e-14 0)
(-3.90475e-14 1.1509e-14 0)
(-4.06449e-14 1.11782e-14 0)
(-4.25021e-14 1.15384e-14 0)
(-4.39645e-14 1.21061e-14 0)
(-4.45807e-14 1.17505e-14 0)
(-4.37238e-14 1.12429e-14 0)
(-4.32147e-14 1.09154e-14 0)
(-4.41478e-14 1.10582e-14 0)
(-4.44398e-14 1.19395e-14 0)
(-4.43421e-14 1.25541e-14 0)
(-4.42184e-14 1.26837e-14 0)
(-4.36681e-14 1.18578e-14 0)
(-4.31628e-14 1.06966e-14 0)
(-4.26413e-14 1.0196e-14 0)
(-4.302e-14 1.02629e-14 0)
(-4.36068e-14 1.01689e-14 0)
(-4.42847e-14 9.31611e-15 0)
(-4.60032e-14 8.09237e-15 0)
(-4.77354e-14 7.09677e-15 0)
(-4.95115e-14 6.69898e-15 0)
(-5.14183e-14 6.37706e-15 0)
(-5.31539e-14 5.85928e-15 0)
(-5.42225e-14 5.98575e-15 0)
(-5.46452e-14 6.05463e-15 0)
(-5.55316e-14 6.4919e-15 0)
(-5.63299e-14 6.84062e-15 0)
(-5.61589e-14 7.31733e-15 0)
(-5.56554e-14 7.67203e-15 0)
(-5.52246e-14 8.31712e-15 0)
(-5.46021e-14 8.68531e-15 0)
(-5.47665e-14 8.45845e-15 0)
(-5.49183e-14 8.73933e-15 0)
(-5.35813e-14 9.23905e-15 0)
(-5.16946e-14 9.08664e-15 0)
(-5.06763e-14 8.98173e-15 0)
(-5.11364e-14 8.941e-15 0)
(-5.16423e-14 9.86565e-15 0)
(-5.11205e-14 1.14003e-14 0)
(-4.95653e-14 1.24492e-14 0)
(-4.71485e-14 1.25308e-14 0)
(-4.52837e-14 1.23995e-14 0)
(-4.32591e-14 1.16655e-14 0)
(-3.97659e-14 1.08282e-14 0)
(-3.53437e-14 9.40707e-15 0)
(-3.04252e-14 8.3471e-15 0)
(-2.60214e-14 7.67544e-15 0)
(-2.28848e-14 6.8577e-15 0)
(-2.01424e-14 5.88217e-15 0)
(-1.73931e-14 4.36643e-15 0)
(-1.62285e-14 3.67867e-15 0)
(-1.56565e-14 3.18683e-15 0)
(-1.40181e-14 2.51553e-15 0)
(-1.26959e-14 2.38826e-15 0)
(-1.17196e-14 2.3907e-15 0)
(-1.00974e-14 1.19787e-15 0)
(-8.17529e-15 2.05075e-16 0)
(-6.30478e-15 -2.38191e-16 0)
(-4.22426e-15 -5.85768e-16 0)
(-1.3873e-15 -4.69517e-16 0)
(-2.2422e-15 2.28222e-16 0)
(-7.23552e-15 2.81256e-16 0)
(-1.26029e-14 9.13821e-16 0)
(-1.67976e-14 1.5746e-15 0)
(-2.00624e-14 2.97894e-15 0)
(-2.3627e-14 4.59659e-15 0)
(-2.78151e-14 6.01534e-15 0)
(-3.23942e-14 6.51136e-15 0)
(-3.68115e-14 6.80666e-15 0)
(-3.97698e-14 7.87342e-15 0)
(-4.10476e-14 9.04655e-15 0)
(-4.23456e-14 9.78613e-15 0)
(-4.51061e-14 1.04318e-14 0)
(-4.86618e-14 1.12436e-14 0)
(-5.1767e-14 1.22102e-14 0)
(-5.53273e-14 1.32894e-14 0)
(-5.95798e-14 1.35534e-14 0)
(-6.3561e-14 1.30042e-14 0)
(-6.59345e-14 1.22044e-14 0)
(-6.60999e-14 1.21648e-14 0)
(-6.46063e-14 1.17853e-14 0)
(-6.24904e-14 1.20145e-14 0)
(-5.95526e-14 1.23319e-14 0)
(-5.55371e-14 1.31046e-14 0)
(-5.22908e-14 1.31545e-14 0)
(-5.05228e-14 1.27495e-14 0)
(-4.94384e-14 1.22019e-14 0)
(-4.93096e-14 1.2073e-14 0)
(-4.98189e-14 1.2469e-14 0)
(-5.01136e-14 1.33438e-14 0)
(-5.00469e-14 1.48359e-14 0)
(-4.99224e-14 1.59566e-14 0)
(-4.93534e-14 1.66357e-14 0)
(-4.87024e-14 1.68452e-14 0)
(-4.94013e-14 1.64239e-14 0)
(-5.04492e-14 1.63372e-14 0)
(-5.08815e-14 1.56421e-14 0)
(-5.07546e-14 1.52929e-14 0)
(-4.96053e-14 1.46677e-14 0)
(-4.77457e-14 1.4098e-14 0)
(-4.65281e-14 1.36177e-14 0)
(-4.67639e-14 1.32606e-14 0)
(-4.80588e-14 1.35893e-14 0)
(-4.96227e-14 1.47505e-14 0)
(-5.17157e-14 1.60423e-14 0)
(-5.31466e-14 1.56774e-14 0)
(-5.23788e-14 1.48514e-14 0)
(-5.15684e-14 1.37543e-14 0)
(-5.20126e-14 1.3663e-14 0)
(-5.22474e-14 1.46064e-14 0)
(-5.22917e-14 1.48747e-14 0)
(-5.25093e-14 1.53587e-14 0)
(-5.25782e-14 1.45682e-14 0)
(-5.19679e-14 1.33825e-14 0)
(-5.09406e-14 1.2515e-14 0)
(-5.12082e-14 1.24022e-14 0)
(-5.24539e-14 1.18836e-14 0)
(-5.37189e-14 1.04075e-14 0)
(-5.53221e-14 9.08136e-15 0)
(-5.69349e-14 8.56549e-15 0)
(-5.88754e-14 8.5237e-15 0)
(-6.12183e-14 8.09069e-15 0)
(-6.30469e-14 7.24446e-15 0)
(-6.41898e-14 6.9389e-15 0)
(-6.46838e-14 6.53406e-15 0)
(-6.53613e-14 6.83005e-15 0)
(-6.60498e-14 7.549e-15 0)
(-6.59155e-14 8.53363e-15 0)
(-6.53487e-14 9.15096e-15 0)
(-6.49858e-14 1.02083e-14 0)
(-6.48424e-14 1.08279e-14 0)
(-6.4899e-14 1.03117e-14 0)
(-6.46127e-14 1.05752e-14 0)
(-6.33913e-14 1.10862e-14 0)
(-6.16813e-14 1.1e-14 0)
(-6.04458e-14 1.06991e-14 0)
(-6.02082e-14 1.06016e-14 0)
(-5.98237e-14 1.18438e-14 0)
(-5.9114e-14 1.34029e-14 0)
(-5.7836e-14 1.47799e-14 0)
(-5.55169e-14 1.54724e-14 0)
(-5.35858e-14 1.51227e-14 0)
(-5.12751e-14 1.45427e-14 0)
(-4.74475e-14 1.33594e-14 0)
(-4.23784e-14 1.17754e-14 0)
(-3.66005e-14 1.06357e-14 0)
(-3.16293e-14 9.47869e-15 0)
(-2.79525e-14 8.37927e-15 0)
(-2.49469e-14 7.25954e-15 0)
(-2.17593e-14 5.64456e-15 0)
(-1.9712e-14 4.26865e-15 0)
(-1.87253e-14 4.05176e-15 0)
(-1.68648e-14 3.39048e-15 0)
(-1.49901e-14 2.44807e-15 0)
(-1.40392e-14 2.41386e-15 0)
(-1.25105e-14 1.35488e-15 0)
(-1.00832e-14 2.57337e-16 0)
(-7.76619e-15 -6.85985e-16 0)
(-5.05795e-15 -1.12204e-15 0)
(-1.42085e-15 -5.93831e-16 0)
(-2.84169e-15 2.54519e-17 0)
(-8.33999e-15 -6.10224e-17 0)
(-1.37957e-14 7.12298e-16 0)
(-1.84809e-14 2.22431e-15 0)
(-2.21857e-14 4.09232e-15 0)
(-2.63503e-14 5.65572e-15 0)
(-3.18006e-14 6.6786e-15 0)
(-3.72876e-14 6.75109e-15 0)
(-4.14785e-14 7.30033e-15 0)
(-4.43763e-14 8.92326e-15 0)
(-4.65135e-14 1.05948e-14 0)
(-4.86732e-14 1.12986e-14 0)
(-5.16295e-14 1.15872e-14 0)
(-5.52785e-14 1.25794e-14 0)
(-5.88562e-14 1.36288e-14 0)
(-6.30195e-14 1.44434e-14 0)
(-6.80691e-14 1.48757e-14 0)
(-7.27644e-14 1.44615e-14 0)
(-7.47814e-14 1.3809e-14 0)
(-7.45665e-14 1.48396e-14 0)
(-7.32357e-14 1.52663e-14 0)
(-7.08228e-14 1.54118e-14 0)
(-6.76477e-14 1.56706e-14 0)
(-6.39696e-14 1.59439e-14 0)
(-6.1015e-14 1.5328e-14 0)
(-5.90792e-14 1.46098e-14 0)
(-5.76405e-14 1.41933e-14 0)
(-5.70051e-14 1.37642e-14 0)
(-5.70628e-14 1.43708e-14 0)
(-5.67589e-14 1.51812e-14 0)
(-5.66514e-14 1.68003e-14 0)
(-5.70328e-14 1.81016e-14 0)
(-5.68619e-14 1.85878e-14 0)
(-5.63669e-14 1.81956e-14 0)
(-5.66138e-14 1.79039e-14 0)
(-5.7664e-14 1.84149e-14 0)
(-5.8409e-14 1.82634e-14 0)
(-5.82727e-14 1.80762e-14 0)
(-5.7244e-14 1.77732e-14 0)
(-5.54439e-14 1.698e-14 0)
(-5.41138e-14 1.61537e-14 0)
(-5.38654e-14 1.55185e-14 0)
(-5.44956e-14 1.62771e-14 0)
(-5.58612e-14 1.80307e-14 0)
(-5.86682e-14 1.93187e-14 0)
(-6.10272e-14 1.94128e-14 0)
(-6.0845e-14 1.86746e-14 0)
(-5.98892e-14 1.7206e-14 0)
(-5.93721e-14 1.66524e-14 0)
(-5.94003e-14 1.71845e-14 0)
(-5.96018e-14 1.73791e-14 0)
(-6.02028e-14 1.7635e-14 0)
(-6.0841e-14 1.68736e-14 0)
(-6.03976e-14 1.62074e-14 0)
(-5.91532e-14 1.5094e-14 0)
(-5.93965e-14 1.43473e-14 0)
(-6.11572e-14 1.33873e-14 0)
(-6.26654e-14 1.20303e-14 0)
(-6.40048e-14 1.07104e-14 0)
(-6.52211e-14 1.01019e-14 0)
(-6.74421e-14 9.78464e-15 0)
(-7.0472e-14 9.1636e-15 0)
(-7.26087e-14 8.63983e-15 0)
(-7.37657e-14 7.94886e-15 0)
(-7.4066e-14 7.56527e-15 0)
(-7.43571e-14 7.47285e-15 0)
(-7.47945e-14 8.35112e-15 0)
(-7.47624e-14 9.47293e-15 0)
(-7.41996e-14 1.04366e-14 0)
(-7.37085e-14 1.14116e-14 0)
(-7.41453e-14 1.19769e-14 0)
(-7.4441e-14 1.20482e-14 0)
(-7.36581e-14 1.22171e-14 0)
(-7.23357e-14 1.23232e-14 0)
(-7.07727e-14 1.23468e-14 0)
(-6.95e-14 1.26181e-14 0)
(-6.85647e-14 1.31455e-14 0)
(-6.75287e-14 1.43915e-14 0)
(-6.64435e-14 1.57265e-14 0)
(-6.48902e-14 1.7155e-14 0)
(-6.29509e-14 1.79113e-14 0)
(-6.11063e-14 1.74058e-14 0)
(-5.86778e-14 1.66721e-14 0)
(-5.48109e-14 1.54563e-14 0)
(-4.9172e-14 1.41552e-14 0)
(-4.27247e-14 1.2838e-14 0)
(-3.71014e-14 1.12668e-14 0)
(-3.2837e-14 9.76469e-15 0)
(-2.95145e-14 8.62097e-15 0)
(-2.61412e-14 7.13842e-15 0)
(-2.32491e-14 5.28537e-15 0)
(-2.15231e-14 4.96219e-15 0)
(-1.98374e-14 4.29995e-15 0)
(-1.75052e-14 2.94533e-15 0)
(-1.60698e-14 2.31101e-15 0)
(-1.46823e-14 1.36867e-15 0)
(-1.21494e-14 2.55484e-16 0)
(-9.30918e-15 -9.28132e-16 0)
(-5.72525e-15 -1.35431e-15 0)
(-1.39326e-15 -5.76283e-16 0)
(-3.17044e-15 -8.5883e-17 0)
(-9.19353e-15 2.2183e-16 0)
(-1.47932e-14 1.20903e-15 0)
(-1.94871e-14 2.82477e-15 0)
(-2.39344e-14 4.76907e-15 0)
(-2.92568e-14 5.89219e-15 0)
(-3.55875e-14 6.75476e-15 0)
(-4.14726e-14 7.47329e-15 0)
(-4.56392e-14 8.5223e-15 0)
(-4.86204e-14 1.00116e-14 0)
(-5.13945e-14 1.15673e-14 0)
(-5.44986e-14 1.24121e-14 0)
(-5.77973e-14 1.27412e-14 0)
(-6.14962e-14 1.38212e-14 0)
(-6.53759e-14 1.4804e-14 0)
(-6.99652e-14 1.55045e-14 0)
(-7.56207e-14 1.58524e-14 0)
(-8.08104e-14 1.59608e-14 0)
(-8.24173e-14 1.66691e-14 0)
(-8.19412e-14 1.76552e-14 0)
(-8.10946e-14 1.79804e-14 0)
(-7.89551e-14 1.80323e-14 0)
(-7.56641e-14 1.79832e-14 0)
(-7.19634e-14 1.78008e-14 0)
(-6.90981e-14 1.72523e-14 0)
(-6.68657e-14 1.68206e-14 0)
(-6.5322e-14 1.68819e-14 0)
(-6.42788e-14 1.66784e-14 0)
(-6.37792e-14 1.7054e-14 0)
(-6.32518e-14 1.74004e-14 0)
(-6.27188e-14 1.83106e-14 0)
(-6.32754e-14 1.94773e-14 0)
(-6.3774e-14 1.98564e-14 0)
(-6.35275e-14 1.99206e-14 0)
(-6.34259e-14 2.04e-14 0)
(-6.42701e-14 2.09256e-14 0)
(-6.51456e-14 2.10884e-14 0)
(-6.50743e-14 2.10598e-14 0)
(-6.43136e-14 2.06576e-14 0)
(-6.27868e-14 1.98637e-14 0)
(-6.14322e-14 1.87595e-14 0)
(-6.05415e-14 1.84062e-14 0)
(-6.01868e-14 1.92566e-14 0)
(-6.15145e-14 2.07684e-14 0)
(-6.49911e-14 2.1898e-14 0)
(-6.80568e-14 2.30652e-14 0)
(-6.85515e-14 2.27239e-14 0)
(-6.76859e-14 2.17115e-14 0)
(-6.67057e-14 2.05529e-14 0)
(-6.64033e-14 1.97866e-14 0)
(-6.66386e-14 1.93738e-14 0)
(-6.75389e-14 1.91195e-14 0)
(-6.82786e-14 1.87915e-14 0)
(-6.79535e-14 1.87049e-14 0)
(-6.70577e-14 1.81012e-14 0)
(-6.73328e-14 1.66554e-14 0)
(-6.9197e-14 1.50325e-14 0)
(-7.09546e-14 1.38524e-14 0)
(-7.23048e-14 1.2926e-14 0)
(-7.35488e-14 1.19867e-14 0)
(-7.59195e-14 1.08626e-14 0)
(-7.8852e-14 1.01332e-14 0)
(-8.11455e-14 9.88347e-15 0)
(-8.25422e-14 9.12135e-15 0)
(-8.28822e-14 8.23593e-15 0)
(-8.28444e-14 8.09748e-15 0)
(-8.27799e-14 8.81881e-15 0)
(-8.26535e-14 9.84069e-15 0)
(-8.22036e-14 1.12281e-14 0)
(-8.20915e-14 1.24553e-14 0)
(-8.25282e-14 1.30845e-14 0)
(-8.27529e-14 1.36195e-14 0)
(-8.22728e-14 1.41338e-14 0)
(-8.09425e-14 1.39817e-14 0)
(-7.88625e-14 1.39615e-14 0)
(-7.6991e-14 1.44284e-14 0)
(-7.57449e-14 1.54547e-14 0)
(-7.44101e-14 1.67986e-14 0)
(-7.31012e-14 1.81164e-14 0)
(-7.16534e-14 1.9346e-14 0)
(-7.00349e-14 1.98842e-14 0)
(-6.83697e-14 1.92749e-14 0)
(-6.56608e-14 1.83201e-14 0)
(-6.12525e-14 1.74967e-14 0)
(-5.52055e-14 1.65559e-14 0)
(-4.85528e-14 1.50474e-14 0)
(-4.26655e-14 1.31276e-14 0)
(-3.76885e-14 1.12176e-14 0)
(-3.3782e-14 9.96405e-15 0)
(-3.03364e-14 8.56049e-15 0)
(-2.67478e-14 6.86819e-15 0)
(-2.42635e-14 5.93235e-15 0)
(-2.2588e-14 5.05691e-15 0)
(-2.01537e-14 3.62632e-15 0)
(-1.8381e-14 2.17996e-15 0)
(-1.67048e-14 1.23804e-15 0)
(-1.39903e-14 1.70275e-17 0)
(-1.07612e-14 -1.30626e-15 0)
(-6.29605e-15 -1.47001e-15 0)
(-1.34705e-15 -4.09137e-16 0)
(-3.45638e-15 9.59532e-17 0)
(-9.78852e-15 9.05431e-16 0)
(-1.56217e-14 2.38003e-15 0)
(-2.0792e-14 3.83808e-15 0)
(-2.59568e-14 4.84195e-15 0)
(-3.19393e-14 5.60755e-15 0)
(-3.86366e-14 6.68408e-15 0)
(-4.48672e-14 8.31417e-15 0)
(-4.93152e-14 9.74577e-15 0)
(-5.26226e-14 1.09059e-14 0)
(-5.59826e-14 1.21723e-14 0)
(-5.97593e-14 1.34826e-14 0)
(-6.32186e-14 1.42449e-14 0)
(-6.70168e-14 1.51707e-14 0)
(-7.14485e-14 1.58836e-14 0)
(-7.659e-14 1.64461e-14 0)
(-8.25142e-14 1.69827e-14 0)
(-8.72997e-14 1.79782e-14 0)
(-8.89249e-14 1.96858e-14 0)
(-8.91276e-14 1.98681e-14 0)
(-8.84961e-14 1.96886e-14 0)
(-8.62569e-14 1.97774e-14 0)
(-8.30619e-14 2.03678e-14 0)
(-7.95009e-14 2.02614e-14 0)
(-7.64585e-14 1.96602e-14 0)
(-7.38185e-14 1.94562e-14 0)
(-7.19991e-14 1.97277e-14 0)
(-7.09725e-14 1.98883e-14 0)
(-7.05076e-14 1.97127e-14 0)
(-6.97084e-14 2.01166e-14 0)
(-6.88842e-14 2.07115e-14 0)
(-6.95201e-14 2.06988e-14 0)
(-7.00108e-14 2.10452e-14 0)
(-6.92993e-14 2.19679e-14 0)
(-6.90841e-14 2.3058e-14 0)
(-7.02693e-14 2.35553e-14 0)
(-7.13465e-14 2.40156e-14 0)
(-7.1565e-14 2.38754e-14 0)
(-7.10468e-14 2.3271e-14 0)
(-6.97238e-14 2.27853e-14 0)
(-6.80579e-14 2.15844e-14 0)
(-6.64028e-14 2.15685e-14 0)
(-6.57378e-14 2.24758e-14 0)
(-6.70069e-14 2.33962e-14 0)
(-7.01871e-14 2.44599e-14 0)
(-7.3739e-14 2.62634e-14 0)
(-7.52511e-14 2.6654e-14 0)
(-7.49642e-14 2.57501e-14 0)
(-7.43094e-14 2.41015e-14 0)
(-7.38099e-14 2.2376e-14 0)
(-7.364e-14 2.14187e-14 0)
(-7.41805e-14 2.12452e-14 0)
(-7.47093e-14 2.10685e-14 0)
(-7.45094e-14 2.08624e-14 0)
(-7.43418e-14 2.06084e-14 0)
(-7.54533e-14 1.89758e-14 0)
(-7.7182e-14 1.68511e-14 0)
(-7.83912e-14 1.56824e-14 0)
(-7.98207e-14 1.50753e-14 0)
(-8.15008e-14 1.38485e-14 0)
(-8.39225e-14 1.24627e-14 0)
(-8.66761e-14 1.16983e-14 0)
(-8.91862e-14 1.10729e-14 0)
(-9.1119e-14 1.00263e-14 0)
(-9.12146e-14 8.66402e-15 0)
(-9.05179e-14 8.39606e-15 0)
(-9.02345e-14 8.71952e-15 0)
(-8.97854e-14 9.93576e-15 0)
(-8.90898e-14 1.16837e-14 0)
(-8.91261e-14 1.3611e-14 0)
(-8.9999e-14 1.50005e-14 0)
(-9.02659e-14 1.53227e-14 0)
(-8.9833e-14 1.59509e-14 0)
(-8.87066e-14 1.62464e-14 0)
(-8.64559e-14 1.61257e-14 0)
(-8.41506e-14 1.59449e-14 0)
(-8.22681e-14 1.70126e-14 0)
(-8.06525e-14 1.87458e-14 0)
(-7.91974e-14 1.98137e-14 0)
(-7.76597e-14 2.10362e-14 0)
(-7.6412e-14 2.13926e-14 0)
(-7.4912e-14 2.11257e-14 0)
(-7.18091e-14 2.05819e-14 0)
(-6.70364e-14 2.00275e-14 0)
(-6.09623e-14 1.88818e-14 0)
(-5.42802e-14 1.68831e-14 0)
(-4.80139e-14 1.48618e-14 0)
(-4.23698e-14 1.31085e-14 0)
(-3.78572e-14 1.12682e-14 0)
(-3.40684e-14 1.00803e-14 0)
(-3.01674e-14 8.44495e-15 0)
(-2.72352e-14 6.76786e-15 0)
(-2.53547e-14 5.51942e-15 0)
(-2.29205e-14 3.99099e-15 0)
(-2.0634e-14 2.12802e-15 0)
(-1.86205e-14 1.16834e-15 0)
(-1.59521e-14 -4.18116e-16 0)
(-1.1985e-14 -1.53307e-15 0)
(-6.40211e-15 -1.18828e-15 0)
(-1.27391e-15 -2.33713e-16 0)
(-3.52681e-15 4.30399e-16 0)
(-1.00398e-14 1.77418e-15 0)
(-1.63273e-14 3.00556e-15 0)
(-2.24087e-14 4.43503e-15 0)
(-2.83322e-14 5.26343e-15 0)
(-3.45084e-14 5.66588e-15 0)
(-4.10538e-14 6.85282e-15 0)
(-4.7475e-14 9.08844e-15 0)
(-5.27373e-14 1.09444e-14 0)
(-5.65517e-14 1.21951e-14 0)
(-5.98931e-14 1.3112e-14 0)
(-6.40115e-14 1.45257e-14 0)
(-6.81984e-14 1.56754e-14 0)
(-7.24953e-14 1.62624e-14 0)
(-7.7153e-14 1.69784e-14 0)
(-8.23241e-14 1.77826e-14 0)
(-8.80466e-14 1.86934e-14 0)
(-9.26841e-14 2.03559e-14 0)
(-9.51095e-14 2.15222e-14 0)
(-9.61438e-14 2.1387e-14 0)
(-9.53891e-14 2.12852e-14 0)
(-9.26148e-14 2.18442e-14 0)
(-8.93248e-14 2.25544e-14 0)
(-8.63082e-14 2.26188e-14 0)
(-8.3301e-14 2.22422e-14 0)
(-8.0218e-14 2.23511e-14 0)
(-7.82218e-14 2.25486e-14 0)
(-7.73554e-14 2.2612e-14 0)
(-7.6552e-14 2.25137e-14 0)
(-7.53455e-14 2.32968e-14 0)
(-7.50033e-14 2.33311e-14 0)
(-7.56174e-14 2.31015e-14 0)
(-7.52976e-14 2.32815e-14 0)
(-7.43786e-14 2.43217e-14 0)
(-7.4478e-14 2.53208e-14 0)
(-7.56914e-14 2.61633e-14 0)
(-7.69595e-14 2.66603e-14 0)
(-7.76091e-14 2.65953e-14 0)
(-7.70527e-14 2.64466e-14 0)
(-7.593e-14 2.60841e-14 0)
(-7.42193e-14 2.53389e-14 0)
(-7.17989e-14 2.52024e-14 0)
(-7.08083e-14 2.56496e-14 0)
(-7.20975e-14 2.64836e-14 0)
(-7.50113e-14 2.72067e-14 0)
(-7.86557e-14 2.86054e-14 0)
(-8.1213e-14 2.92613e-14 0)
(-8.19028e-14 2.80677e-14 0)
(-8.15658e-14 2.64335e-14 0)
(-8.07793e-14 2.4967e-14 0)
(-7.98888e-14 2.43409e-14 0)
(-8.02308e-14 2.38231e-14 0)
(-8.10219e-14 2.32403e-14 0)
(-8.08034e-14 2.27546e-14 0)
(-8.10365e-14 2.24197e-14 0)
(-8.28025e-14 2.11576e-14 0)
(-8.44799e-14 1.95943e-14 0)
(-8.53174e-14 1.82253e-14 0)
(-8.69487e-14 1.69606e-14 0)
(-8.90419e-14 1.54206e-14 0)
(-9.13754e-14 1.37686e-14 0)
(-9.40596e-14 1.2667e-14 0)
(-9.68586e-14 1.16848e-14 0)
(-9.90645e-14 1.10437e-14 0)
(-9.90566e-14 9.93156e-15 0)
(-9.79547e-14 9.16489e-15 0)
(-9.69227e-14 9.06359e-15 0)
(-9.58212e-14 1.04174e-14 0)
(-9.48723e-14 1.2371e-14 0)
(-9.50028e-14 1.44474e-14 0)
(-9.65571e-14 1.5979e-14 0)
(-9.72391e-14 1.69129e-14 0)
(-9.66364e-14 1.76455e-14 0)
(-9.5675e-14 1.78756e-14 0)
(-9.37262e-14 1.76516e-14 0)
(-9.07249e-14 1.74955e-14 0)
(-8.77709e-14 1.8666e-14 0)
(-8.60763e-14 2.05923e-14 0)
(-8.47078e-14 2.19619e-14 0)
(-8.32631e-14 2.2918e-14 0)
(-8.21343e-14 2.29754e-14 0)
(-8.04473e-14 2.28413e-14 0)
(-7.71984e-14 2.25531e-14 0)
(-7.2428e-14 2.17799e-14 0)
(-6.66028e-14 2.07666e-14 0)
(-5.97408e-14 1.88947e-14 0)
(-5.28313e-14 1.71155e-14 0)
(-4.69149e-14 1.52759e-14 0)
(-4.18394e-14 1.30293e-14 0)
(-3.75502e-14 1.17518e-14 0)
(-3.36872e-14 9.884e-15 0)
(-3.03362e-14 7.81624e-15 0)
(-2.8013e-14 6.09807e-15 0)
(-2.553e-14 4.48795e-15 0)
(-2.28733e-14 2.50189e-15 0)
(-2.05658e-14 1.05823e-15 0)
(-1.7586e-14 -4.23086e-16 0)
(-1.2625e-14 -1.30709e-15 0)
(-6.42396e-15 -8.57591e-16 0)
(-1.31135e-15 -2.00648e-16 0)
(-3.63204e-15 8.92657e-16 0)
(-1.0691e-14 2.54907e-15 0)
(-1.73729e-14 3.33645e-15 0)
(-2.37066e-14 4.74275e-15 0)
(-3.04554e-14 5.82103e-15 0)
(-3.69642e-14 6.59765e-15 0)
(-4.30634e-14 7.91012e-15 0)
(-4.95118e-14 9.92843e-15 0)
(-5.53563e-14 1.17683e-14 0)
(-5.99927e-14 1.34413e-14 0)
(-6.38397e-14 1.43912e-14 0)