/*--------------------------------*- C++ -*----------------------------------*\
| =========                 |                                                 |
| \\      /  F ield         | OpenFOAM: The Open Source CFD Toolbox           |
|  \\    /   O peration     | Version:  v2012                                 |
|   \\  /    A nd           | Website:  www.openfoam.com                      |
|    \\/     M anipulation  |                                                 |
\*---------------------------------------------------------------------------*/
FoamFile
{
    version     2.0;
    format      ascii;
    class       volScalarField;
    location    "18.75";
    object      W;
}
// * * * * * * * * * * * * * * * * * * * * * * * * * * * * * * * * * * * * * //

dimensions      [0 0 -1 0 0 0 0];


internalField   nonuniform List<scalar> 
65536
(
2.9136e-13
2.91275e-13
2.94925e-13
3.02293e-13
3.13413e-13
3.28367e-13
3.47279e-13
3.70323e-13
3.97714e-13
4.29717e-13
4.66641e-13
5.08849e-13
5.56755e-13
6.10829e-13
6.71601e-13
7.39663e-13
8.15678e-13
9.00379e-13
9.94579e-13
1.09918e-12
1.21516e-12
1.34361e-12
1.48573e-12
1.64283e-12
1.81632e-12
2.00779e-12
2.21893e-12
2.45161e-12
2.70786e-12
2.98987e-12
3.30004e-12
3.64097e-12
4.01549e-12
4.42664e-12
4.87772e-12
5.3723e-12
5.91423e-12
6.50766e-12
7.15706e-12
7.86722e-12
8.64331e-12
9.49086e-12
1.04158e-11
1.14244e-11
1.25236e-11
1.37204e-11
1.50226e-11
1.64383e-11
1.79762e-11
1.96455e-11
2.14559e-11
2.34175e-11
2.55412e-11
2.78382e-11
3.03205e-11
3.30005e-11
3.5891e-11
3.90056e-11
4.23583e-11
4.59635e-11
4.98361e-11
5.39915e-11
5.84454e-11
6.32138e-11
6.8313e-11
7.37595e-11
7.95698e-11
8.57606e-11
9.23483e-11
9.93492e-11
1.06779e-10
1.14654e-10
1.22988e-10
1.31796e-10
1.41091e-10
1.50884e-10
1.61187e-10
1.72008e-10
1.83356e-10
1.95236e-10
2.0765e-10
2.20601e-10
2.34086e-10
2.48102e-10
2.62641e-10
2.77692e-10
2.93242e-10
3.09273e-10
3.25763e-10
3.42688e-10
3.60019e-10
3.77722e-10
3.95759e-10
4.14091e-10
4.3267e-10
4.51447e-10
4.70369e-10
4.89378e-10
5.08413e-10
5.2741e-10
5.463e-10
5.65015e-10
5.83481e-10
6.01624e-10
6.19369e-10
6.36638e-10
6.53355e-10
6.69444e-10
6.84828e-10
6.99435e-10
7.13191e-10
7.26028e-10
7.37882e-10
7.4869e-10
7.58396e-10
7.66949e-10
7.74305e-10
7.80424e-10
7.85275e-10
7.88832e-10
7.91079e-10
7.92005e-10
7.91608e-10
7.89896e-10
7.8688e-10
7.82583e-10
7.77032e-10
7.70265e-10
7.62323e-10
7.53255e-10
7.43115e-10
7.31964e-10
7.19866e-10
7.06888e-10
6.93102e-10
6.78582e-10
6.63403e-10
6.47643e-10
6.31378e-10
6.14685e-10
5.97639e-10
5.80315e-10
5.62785e-10
5.45118e-10
5.2738e-10
5.09635e-10
4.9194e-10
4.74351e-10
4.56919e-10
4.39688e-10
4.22701e-10
4.05995e-10
3.89602e-10
3.7355e-10
3.57862e-10
3.42558e-10
3.27653e-10
3.13158e-10
2.99082e-10
2.85429e-10
2.72201e-10
2.59397e-10
2.47014e-10
2.35045e-10
2.23484e-10
2.12322e-10
2.01548e-10
1.91151e-10
1.8112e-10
1.71442e-10
1.62105e-10
1.53098e-10
1.44407e-10
1.36022e-10
1.27932e-10
1.20126e-10
1.12598e-10
1.05338e-10
9.83405e-11
9.16005e-11
8.51141e-11
7.88786e-11
7.2893e-11
6.71569e-11
6.16712e-11
5.64376e-11
5.14581e-11
4.67355e-11
4.22725e-11
3.80715e-11
3.41349e-11
3.04639e-11
2.70592e-11
2.39202e-11
2.10448e-11
1.84295e-11
1.60694e-11
1.39575e-11
1.20856e-11
1.04435e-11
9.01975e-12
7.80127e-12
6.77382e-12
5.92205e-12
5.22974e-12
4.68001e-12
4.25558e-12
3.93899e-12
3.71286e-12
3.56015e-12
3.46447e-12
3.41029e-12
3.38322e-12
3.37027e-12
3.36005e-12
3.34297e-12
3.31133e-12
3.25948e-12
3.18371e-12
3.08228e-12
2.95523e-12
2.80418e-12
2.63206e-12
2.44283e-12
2.24112e-12
2.03193e-12
1.82029e-12
1.61098e-12
1.40832e-12
1.21598e-12
1.03686e-12
8.7306e-13
7.25885e-13
5.95879e-13
4.82931e-13
3.86388e-13
3.05172e-13
2.37916e-13
1.83077e-13
1.39045e-13
1.04222e-13
7.70946e-14
5.62761e-14
4.05355e-14
2.88095e-14
2.02022e-14
1.39769e-14
9.54025e-15
6.42502e-15
4.27044e-15
2.80366e-15
1.82264e-15
1.18121e-15
7.76703e-16
5.40199e-16
4.29306e-16
4.26512e-13
4.26417e-13
4.31827e-13
4.42714e-13
4.59132e-13
4.81201e-13
5.09111e-13
5.43119e-13
5.83548e-13
6.30793e-13
6.85318e-13
7.47664e-13
8.1845e-13
8.98381e-13
9.88248e-13
1.08894e-12
1.20145e-12
1.32687e-12
1.46642e-12
1.62146e-12
1.79345e-12
1.98405e-12
2.19503e-12
2.42837e-12
2.68622e-12
2.97092e-12
3.28506e-12
3.63144e-12
4.01311e-12
4.4334e-12
4.89592e-12
5.40459e-12
5.96369e-12
6.57782e-12
7.25196e-12
7.99153e-12
8.80235e-12
9.69069e-12
1.06633e-11
1.17275e-11
1.28911e-11
1.41625e-11
1.55507e-11
1.70652e-11
1.87163e-11
2.0515e-11
2.24729e-11
2.46023e-11
2.69165e-11
2.94293e-11
3.21554e-11
3.51102e-11
3.83102e-11
4.17723e-11
4.55145e-11
4.95555e-11
5.39149e-11
5.86129e-11
6.36705e-11
6.91094e-11
7.4952e-11
8.12211e-11
8.79401e-11
9.51328e-11
1.02823e-10
1.11036e-10
1.19795e-10
1.29124e-10
1.39047e-10
1.49589e-10
1.6077e-10
1.72614e-10
1.8514e-10
1.98369e-10
2.12316e-10
2.26999e-10
2.4243e-10
2.5862e-10
2.75576e-10
2.93303e-10
3.11803e-10
3.31071e-10
3.51101e-10
3.71881e-10
3.93394e-10
4.15618e-10
4.38526e-10
4.62086e-10
4.86257e-10
5.10995e-10
5.3625e-10
5.61963e-10
5.88072e-10
6.14505e-10
6.41188e-10
6.68039e-10
6.9497e-10
7.21888e-10
7.48696e-10
7.75291e-10
8.01568e-10
8.27418e-10
8.52729e-10
8.77388e-10
9.01281e-10
9.24294e-10
9.46314e-10
9.6723e-10
9.86934e-10
1.00532e-09
1.02229e-09
1.03776e-09
1.05163e-09
1.06383e-09
1.07429e-09
1.08295e-09
1.08976e-09
1.09468e-09
1.09768e-09
1.09875e-09
1.09789e-09
1.0951e-09
1.09039e-09
1.08381e-09
1.0754e-09
1.06521e-09
1.0533e-09
1.03974e-09
1.02463e-09
1.00805e-09
9.90102e-10
9.70884e-10
9.50506e-10
9.29083e-10
9.06728e-10
8.83559e-10
8.59692e-10
8.35244e-10
8.10329e-10
7.85061e-10
7.59547e-10
7.33892e-10
7.08196e-10
6.82552e-10
6.5705e-10
6.31769e-10
6.06786e-10
5.82168e-10
5.57975e-10
5.34261e-10
5.11074e-10
4.88452e-10
4.66429e-10
4.45032e-10
4.24281e-10
4.04191e-10
3.84771e-10
3.66026e-10
3.47955e-10
3.30555e-10
3.13819e-10
2.97734e-10
2.82288e-10
2.67464e-10
2.53244e-10
2.39609e-10
2.26539e-10
2.14013e-10
2.02008e-10
1.90502e-10
1.79475e-10
1.68906e-10
1.58773e-10
1.49057e-10
1.39741e-10
1.30808e-10
1.22241e-10
1.14027e-10
1.06154e-10
9.86113e-11
9.139e-11
8.44827e-11
7.78838e-11
7.1589e-11
6.55953e-11
5.99006e-11
5.4504e-11
4.94048e-11
4.46029e-11
4.0098e-11
3.58896e-11
3.19769e-11
2.83578e-11
2.50297e-11
2.19883e-11
1.92281e-11
1.67423e-11
1.4522e-11
1.25573e-11
1.08365e-11
9.34634e-12
8.07246e-12
6.99922e-12
6.11002e-12
5.38748e-12
4.81366e-12
4.37031e-12
4.03907e-12
3.80179e-12
3.64073e-12
3.53888e-12
3.48015e-12
3.44971e-12
3.43417e-12
3.42183e-12
3.40282e-12
3.36928e-12
3.31539e-12
3.23736e-12
3.1334e-12
3.00353e-12
2.84939e-12
2.67397e-12
2.48127e-12
2.276e-12
2.06323e-12
1.84804e-12
1.63531e-12
1.42939e-12
1.23401e-12
1.0521e-12
8.85795e-13
7.3639e-13
6.04438e-13
4.89819e-13
3.9186e-13
3.09466e-13
2.41242e-13
1.85622e-13
1.40966e-13
1.05654e-13
7.81481e-14
5.70412e-14
4.10839e-14
2.91974e-14
2.0473e-14
1.41634e-14
9.66706e-15
6.51009e-15
4.32677e-15
2.84051e-15
1.84651e-15
1.19662e-15
7.86801e-16
5.47199e-16
4.34866e-16
7.44307e-13
7.44213e-13
7.53798e-13
7.73019e-13
8.01971e-13
8.40872e-13
8.90062e-13
9.50001e-13
1.02127e-12
1.10457e-12
1.20074e-12
1.31074e-12
1.43569e-12
1.57684e-12
1.73561e-12
1.91359e-12
2.11257e-12
2.33451e-12
2.5816e-12
2.85626e-12
3.16116e-12
3.49923e-12
3.87371e-12
4.28813e-12
4.74637e-12
5.25269e-12
5.81171e-12
6.42852e-12
7.10862e-12
7.85804e-12
8.68331e-12
9.59156e-12
1.05905e-11
1.16885e-11
1.28946e-11
1.42186e-11
1.56711e-11
1.72635e-11
1.90081e-11
2.09181e-11
2.30079e-11
2.52926e-11
2.77885e-11
3.05133e-11
3.34856e-11
3.67252e-11
4.02535e-11
4.40929e-11
4.82674e-11
5.28023e-11
5.77243e-11
6.30616e-11
6.88438e-11
7.51021e-11
8.18689e-11
8.91783e-11
9.70656e-11
1.05568e-10
1.14722e-10
1.24568e-10
1.35146e-10
1.46497e-10
1.58663e-10
1.71685e-10
1.85608e-10
2.00474e-10
2.16325e-10
2.33204e-10
2.51152e-10
2.7021e-10
2.90415e-10
3.11805e-10
3.34413e-10
3.58271e-10
3.83406e-10
4.09842e-10
4.37596e-10
4.66682e-10
4.97108e-10
5.28875e-10
5.61976e-10
5.96397e-10
6.32115e-10
6.69101e-10
7.07311e-10
7.46697e-10
7.87196e-10
8.28737e-10
8.71236e-10
9.14599e-10
9.58719e-10
1.00348e-09
1.04875e-09
1.0944e-09
1.14026e-09
1.18619e-09
1.23201e-09
1.27754e-09
1.32259e-09
1.36697e-09
1.41048e-09
1.45293e-09
1.4941e-09
1.53378e-09
1.57178e-09
1.60789e-09
1.64191e-09
1.67365e-09
1.70293e-09
1.72957e-09
1.75342e-09
1.77433e-09
1.79217e-09
1.80683e-09
1.8182e-09
1.82622e-09
1.83083e-09
1.83201e-09
1.82973e-09
1.82401e-09
1.81488e-09
1.80241e-09
1.78667e-09
1.76776e-09
1.74579e-09
1.72091e-09
1.69326e-09
1.66303e-09
1.63038e-09
1.59551e-09
1.55863e-09
1.51995e-09
1.47968e-09
1.43804e-09
1.39525e-09
1.35152e-09
1.30707e-09
1.26211e-09
1.21683e-09
1.17144e-09
1.12612e-09
1.08104e-09
1.03635e-09
9.92212e-10
9.48755e-10
9.061e-10
8.64357e-10
8.23617e-10
7.83962e-10
7.45459e-10
7.08162e-10
6.72113e-10
6.37343e-10
6.03873e-10
5.71711e-10
5.40861e-10
5.11313e-10
4.83053e-10
4.56061e-10
4.30309e-10
4.05765e-10
3.82395e-10
3.6016e-10
3.39017e-10
3.18924e-10
2.99835e-10
2.81707e-10
2.64494e-10
2.4815e-10
2.32632e-10
2.17896e-10
2.03902e-10
1.90609e-10
1.7798e-10
1.65979e-10
1.54573e-10
1.43731e-10
1.33426e-10
1.23632e-10
1.14327e-10
1.0549e-10
9.71038e-11
8.91526e-11
8.16234e-11
7.45047e-11
6.7787e-11
6.14619e-11
5.55224e-11
4.99619e-11
4.47744e-11
3.99539e-11
3.54942e-11
3.13886e-11
2.76295e-11
2.42084e-11
2.11154e-11
1.83396e-11
1.58684e-11
1.36881e-11
1.17833e-11
1.01378e-11
8.73371e-12
7.55262e-12
6.57509e-12
5.78116e-12
5.15045e-12
4.6625e-12
4.29691e-12
4.03367e-12
3.85339e-12
3.73755e-12
3.66875e-12
3.63102e-12
3.61e-12
3.59317e-12
3.57001e-12
3.53215e-12
3.47339e-12
3.38973e-12
3.27923e-12
3.14191e-12
2.97945e-12
2.79496e-12
2.59263e-12
2.37737e-12
2.15445e-12
1.92919e-12
1.70664e-12
1.49135e-12
1.28717e-12
1.09717e-12
9.23525e-13
7.6759e-13
6.29916e-13
5.10364e-13
4.08219e-13
3.22326e-13
2.51224e-13
1.9327e-13
1.46752e-13
1.09974e-13
8.13317e-14
5.93568e-14
4.27462e-14
3.03749e-14
2.12962e-14
1.47313e-14
1.00536e-14
6.76968e-15
4.49886e-15
2.95322e-15
1.91961e-15
1.24388e-15
8.17803e-16
5.68714e-16
4.51941e-16
1.36084e-12
1.3608e-12
1.37859e-12
1.41414e-12
1.46762e-12
1.53944e-12
1.63025e-12
1.74091e-12
1.8725e-12
2.02635e-12
2.20401e-12
2.4073e-12
2.63829e-12
2.89935e-12
3.19313e-12
3.52262e-12
3.89116e-12
4.30244e-12
4.76059e-12
5.27014e-12
5.83612e-12
6.46405e-12
7.16001e-12
7.93067e-12
8.78336e-12
9.72607e-12
1.07676e-11
1.19175e-11
1.31862e-11
1.45851e-11
1.61266e-11
1.78241e-11
1.96923e-11
2.17471e-11
2.40056e-11
2.64864e-11
2.92098e-11
3.21973e-11
3.54723e-11
3.90601e-11
4.29878e-11
4.72843e-11
5.1981e-11
5.7111e-11
6.27101e-11
6.88162e-11
7.54697e-11
8.27138e-11
9.05939e-11
9.91583e-11
1.08458e-10
1.18547e-10
1.29481e-10
1.4132e-10
1.54126e-10
1.67963e-10
1.82899e-10
1.99003e-10
2.16347e-10
2.35005e-10
2.55054e-10
2.76571e-10
2.99634e-10
3.24323e-10
3.50719e-10
3.789e-10
4.08948e-10
4.40938e-10
4.74949e-10
5.11051e-10
5.49316e-10
5.89808e-10
6.32587e-10
6.77707e-10
7.25211e-10
7.75139e-10
8.27516e-10
8.82359e-10
9.39672e-10
9.99445e-10
1.06165e-09
1.12626e-09
1.19321e-09
1.26242e-09
1.3338e-09
1.40724e-09
1.4826e-09
1.55973e-09
1.63844e-09
1.71855e-09
1.79983e-09
1.88203e-09
1.96489e-09
2.04813e-09
2.13143e-09
2.21448e-09
2.29694e-09
2.37844e-09
2.45863e-09
2.53711e-09
2.61351e-09
2.68743e-09
2.75848e-09
2.82628e-09
2.89043e-09
2.95056e-09
3.00632e-09
3.05735e-09
3.10333e-09
3.14396e-09
3.17897e-09
3.20813e-09
3.23122e-09
3.24808e-09
3.25858e-09
3.26263e-09
3.26018e-09
3.25124e-09
3.23585e-09
3.21409e-09
3.18609e-09
3.15203e-09
3.11212e-09
3.06661e-09
3.01578e-09
2.95995e-09
2.89946e-09
2.83468e-09
2.76601e-09
2.69385e-09
2.61862e-09
2.54074e-09
2.46065e-09
2.37876e-09
2.2955e-09
2.21128e-09
2.1265e-09
2.04155e-09
1.95679e-09
1.87255e-09
1.78917e-09
1.70693e-09
1.6261e-09
1.54692e-09
1.4696e-09
1.39433e-09
1.32126e-09
1.25052e-09
1.18223e-09
1.11645e-09
1.05325e-09
9.92654e-10
9.34685e-10
8.79336e-10
8.26586e-10
7.76401e-10
7.28733e-10
6.83522e-10
6.40699e-10
6.00188e-10
5.61906e-10
5.25767e-10
4.91677e-10
4.59545e-10
4.29276e-10
4.00776e-10
3.7395e-10
3.48707e-10
3.24956e-10
3.02611e-10
2.81588e-10
2.61806e-10
2.43189e-10
2.25665e-10
2.09168e-10
1.93634e-10
1.79004e-10
1.65226e-10
1.5225e-10
1.40031e-10
1.28529e-10
1.17708e-10
1.07534e-10
9.79802e-11
8.90192e-11
8.06283e-11
7.27869e-11
6.54763e-11
5.86794e-11
5.23802e-11
4.65634e-11
4.12142e-11
3.63176e-11
3.18581e-11
2.782e-11
2.41863e-11
2.09395e-11
1.80607e-11
1.553e-11
1.33265e-11
1.14283e-11
9.81278e-12
8.45644e-12
7.33539e-12
6.42546e-12
5.70237e-12
5.14203e-12
4.72076e-12
4.41553e-12
4.20421e-12
4.06586e-12
3.98096e-12
3.93163e-12
3.90193e-12
3.87801e-12
3.84826e-12
3.80348e-12
3.73688e-12
3.64403e-12
3.52281e-12
3.37319e-12
3.19697e-12
2.99745e-12
2.77911e-12
2.54721e-12
2.30737e-12
2.06528e-12
1.82633e-12
1.59536e-12
1.37646e-12
1.17289e-12
9.86945e-13
8.20052e-13
6.72774e-13
5.44936e-13
4.35756e-13
3.43982e-13
2.68038e-13
2.06158e-13
1.56502e-13
1.17256e-13
8.67e-14
6.32625e-14
4.55506e-14
3.23621e-14
2.26857e-14
1.56899e-14
1.07062e-14
7.20813e-15
4.78959e-15
3.14365e-15
2.04313e-15
1.32377e-15
8.70217e-16
6.05095e-16
4.80814e-16
2.49067e-12
2.49087e-12
2.52393e-12
2.58972e-12
2.6886e-12
2.82135e-12
2.98916e-12
3.19366e-12
3.43688e-12
3.72129e-12
4.04982e-12
4.42585e-12
4.8533e-12
5.33657e-12
5.88067e-12
6.49119e-12
7.17439e-12
7.93722e-12
8.78743e-12
9.73354e-12
1.0785e-11
1.19522e-11
1.32467e-11
1.46809e-11
1.62687e-11
1.80253e-11
1.99671e-11
2.21123e-11
2.44805e-11
2.70935e-11
2.99745e-11
3.31492e-11
3.66452e-11
4.04928e-11
4.47244e-11
4.93755e-11
5.44843e-11
6.00921e-11
6.62433e-11
7.2986e-11
8.03716e-11
8.84557e-11
9.72976e-11
1.06961e-10
1.17513e-10
1.29028e-10
1.41581e-10
1.55256e-10
1.70138e-10
1.86321e-10
2.03902e-10
2.22983e-10
2.43672e-10
2.66082e-10
2.90332e-10
3.16544e-10
3.44847e-10
3.75373e-10
4.0826e-10
4.43648e-10
4.81682e-10
5.22508e-10
5.66275e-10
6.13135e-10
6.63237e-10
7.16732e-10
7.73769e-10
8.34491e-10
8.99041e-10
9.67552e-10
1.04015e-09
1.11696e-09
1.19807e-09
1.2836e-09
1.3736e-09
1.46814e-09
1.56726e-09
1.67098e-09
1.77929e-09
1.89215e-09
2.0095e-09
2.13123e-09
2.25723e-09
2.38732e-09
2.52131e-09
2.65893e-09
2.79993e-09
2.94395e-09
3.09065e-09
3.2396e-09
3.39036e-09
3.54243e-09
3.69526e-09
3.8483e-09
4.00092e-09
4.15249e-09
4.30233e-09
4.44973e-09
4.59398e-09
4.73435e-09
4.87008e-09
5.00042e-09
5.12464e-09
5.24198e-09
5.35174e-09
5.45322e-09
5.54576e-09
5.62874e-09
5.70158e-09
5.76376e-09
5.81484e-09
5.85441e-09
5.88216e-09
5.89785e-09
5.90131e-09
5.89248e-09
5.87136e-09
5.83805e-09
5.79272e-09
5.73565e-09
5.66719e-09
5.58775e-09
5.49785e-09
5.39805e-09
5.28898e-09
5.17133e-09
5.04582e-09
4.91324e-09
4.77438e-09
4.63006e-09
4.48111e-09
4.32838e-09
4.17269e-09
4.01485e-09
3.85568e-09
3.69592e-09
3.53633e-09
3.37758e-09
3.22033e-09
3.06518e-09
2.91268e-09
2.76331e-09
2.61752e-09
2.4757e-09
2.33815e-09
2.20517e-09
2.07697e-09
1.95371e-09
1.83552e-09
1.72248e-09
1.61461e-09
1.51192e-09
1.41437e-09
1.32188e-09
1.23436e-09
1.15169e-09
1.07373e-09
1.00033e-09
9.31314e-10
8.66508e-10
8.05725e-10
7.48776e-10
6.95466e-10
6.45604e-10
5.98998e-10
5.5546e-10
5.14805e-10
4.76856e-10
4.4144e-10
4.08393e-10
3.77558e-10
3.48785e-10
3.21935e-10
2.96875e-10
2.73484e-10
2.51646e-10
2.31256e-10
2.12216e-10
1.94437e-10
1.77837e-10
1.62343e-10
1.47886e-10
1.34405e-10
1.21847e-10
1.10161e-10
9.93021e-11
8.923e-11
7.99076e-11
7.13008e-11
6.33779e-11
5.6109e-11
4.94658e-11
4.34204e-11
3.79457e-11
3.30145e-11
2.85994e-11
2.46726e-11
2.1206e-11
1.81707e-11
1.55374e-11
1.32761e-11
1.13568e-11
9.74885e-12
8.42191e-12
7.34565e-12
6.49016e-12
5.82614e-12
5.32514e-12
4.95979e-12
4.70408e-12
4.53356e-12
4.42564e-12
4.35978e-12
4.31772e-12
4.28372e-12
4.24462e-12
4.19004e-12
4.11229e-12
4.00641e-12
3.86996e-12
3.70287e-12
3.50706e-12
3.28614e-12
3.04502e-12
2.78941e-12
2.52548e-12
2.25941e-12
1.99708e-12
1.74374e-12
1.50386e-12
1.28093e-12
1.07745e-12
8.94924e-13
7.33942e-13
5.94283e-13
4.75064e-13
3.74897e-13
2.92042e-13
2.24557e-13
1.70425e-13
1.27655e-13
9.43658e-14
6.88401e-14
4.95556e-14
3.52002e-14
2.46702e-14
1.70592e-14
1.16385e-14
7.83445e-15
5.20491e-15
3.41572e-15
2.21962e-15
1.4379e-15
9.45111e-16
6.57081e-16
5.22074e-16
4.50535e-12
4.5062e-12
4.56693e-12
4.68733e-12
4.86808e-12
5.11061e-12
5.41717e-12
5.79076e-12
6.23514e-12
6.7549e-12
7.35544e-12
8.04307e-12
8.82498e-12
9.70939e-12
1.07055e-11
1.18238e-11
1.30758e-11
1.44745e-11
1.60342e-11
1.77708e-11
1.97019e-11
2.18467e-11
2.42267e-11
2.68653e-11
2.97882e-11
3.30236e-11
3.66025e-11
4.05586e-11
4.49289e-11
4.97536e-11
5.50766e-11
6.09459e-11
6.74133e-11
7.45353e-11
8.23733e-11
9.09935e-11
1.00468e-10
1.10874e-10
1.22295e-10
1.34822e-10
1.48552e-10
1.63589e-10
1.80046e-10
1.98041e-10
2.17704e-10
2.39171e-10
2.62588e-10
2.8811e-10
3.15901e-10
3.46136e-10
3.78998e-10
4.14682e-10
4.53391e-10
4.95339e-10
5.40749e-10
5.89855e-10
6.42898e-10
7.00128e-10
7.61805e-10
8.28193e-10
8.99564e-10
9.76196e-10
1.05837e-09
1.14636e-09
1.24046e-09
1.34094e-09
1.44808e-09
1.56215e-09
1.68341e-09
1.8121e-09
1.94846e-09
2.0927e-09
2.24501e-09
2.40554e-09
2.57444e-09
2.75178e-09
2.93763e-09
3.13199e-09
3.33483e-09
3.54605e-09
3.76549e-09
3.99295e-09
4.22814e-09
4.47071e-09
4.72023e-09
4.97621e-09
5.23805e-09
5.5051e-09
5.77661e-09
6.05177e-09
6.32966e-09
6.60929e-09
6.88962e-09
7.1695e-09
7.44774e-09
7.72308e-09
7.99421e-09
8.25978e-09
8.5184e-09
8.76865e-09
9.00912e-09
9.23839e-09
9.45505e-09
9.65774e-09
9.84512e-09
1.00159e-08
1.0169e-08
1.03031e-08
1.04174e-08
1.05109e-08
1.05829e-08
1.06327e-08
1.066e-08
1.06642e-08
1.06454e-08
1.06035e-08
1.05386e-08
1.04512e-08
1.03418e-08
1.02109e-08
1.00594e-08
9.8884e-09
9.69885e-09
9.492e-09
9.26919e-09
9.03182e-09
8.7814e-09
8.51946e-09
8.2476e-09
7.96741e-09
7.68052e-09
7.38853e-09
7.093e-09
6.79547e-09
6.4974e-09
6.2002e-09
5.90518e-09
5.61358e-09
5.32651e-09
5.04502e-09
4.77001e-09
4.5023e-09
4.24259e-09
3.99146e-09
3.74941e-09
3.51679e-09
3.29391e-09
3.08094e-09
2.87799e-09
2.68507e-09
2.50214e-09
2.32907e-09
2.1657e-09
2.01179e-09
1.86709e-09
1.73129e-09
1.60407e-09
1.48507e-09
1.37391e-09
1.27024e-09
1.17366e-09
1.08378e-09
1.00022e-09
9.22612e-10
8.50578e-10
7.8376e-10
7.21813e-10
6.64406e-10
6.11221e-10
5.61958e-10
5.16334e-10
4.7408e-10
4.34948e-10
3.98704e-10
3.65131e-10
3.34029e-10
3.05213e-10
2.78514e-10
2.53775e-10
2.30856e-10
2.09627e-10
1.8997e-10
1.7178e-10
1.54959e-10
1.39421e-10
1.25087e-10
1.11885e-10
9.97487e-11
8.86186e-11
7.8439e-11
6.91577e-11
6.0726e-11
5.3097e-11
4.6226e-11
4.00693e-11
3.45841e-11
2.97282e-11
2.54598e-11
2.17374e-11
1.85195e-11
1.57653e-11
1.34339e-11
1.14852e-11
9.8796e-12
8.57842e-12
7.54399e-12
6.7399e-12
6.1312e-12
5.68465e-12
5.36895e-12
5.15494e-12
5.01588e-12
4.92762e-12
4.86884e-12
4.82123e-12
4.76957e-12
4.70186e-12
4.60926e-12
4.48605e-12
4.32939e-12
4.13912e-12
3.91736e-12
3.66812e-12
3.39682e-12
3.10983e-12
2.81401e-12
2.5162e-12
2.22293e-12
1.94001e-12
1.67236e-12
1.42382e-12
1.19714e-12
9.93938e-13
8.14831e-13
6.59536e-13
5.27041e-13
4.15774e-13
3.2378e-13
2.48885e-13
1.88832e-13
1.41402e-13
1.045e-13
7.62138e-14
5.48503e-14
3.8952e-14
2.72937e-14
1.88694e-14
1.28709e-14
8.6624e-15
5.75394e-15
3.77537e-15
2.45293e-15
1.58879e-15
1.04412e-15
7.25807e-16
5.76619e-16
8.02801e-12
8.03043e-12
8.14038e-12
8.35752e-12
8.68308e-12
9.11976e-12
9.67161e-12
1.03441e-11
1.11442e-11
1.20802e-11
1.3162e-11
1.44011e-11
1.58106e-11
1.74056e-11
1.92028e-11
2.12214e-11
2.34825e-11
2.60097e-11
2.88295e-11
3.19707e-11
3.54657e-11
3.93499e-11
4.36625e-11
4.84465e-11
5.37492e-11
5.96225e-11
6.61232e-11
7.33137e-11
8.12619e-11
9.00421e-11
9.97354e-11
1.1043e-10
1.22222e-10
1.35216e-10
1.49525e-10
1.65272e-10
1.8259e-10
2.01623e-10
2.22527e-10
2.45468e-10
2.70628e-10
2.98199e-10
3.28391e-10
3.61427e-10
3.97544e-10
4.36999e-10
4.80062e-10
5.27021e-10
5.78185e-10
6.33878e-10
6.94442e-10
7.60239e-10
8.31651e-10
9.09075e-10
9.92928e-10
1.08365e-09
1.18168e-09
1.28749e-09
1.40157e-09
1.52441e-09
1.65652e-09
1.7984e-09
1.95059e-09
2.1136e-09
2.28795e-09
2.47417e-09
2.67277e-09
2.88423e-09
3.10904e-09
3.34765e-09
3.60047e-09
3.86788e-09
4.15021e-09
4.44776e-09
4.76073e-09
5.08928e-09
5.43347e-09
5.79328e-09
6.16861e-09
6.55923e-09
6.96481e-09
7.38491e-09
7.81894e-09
8.26617e-09
8.72577e-09
9.19671e-09
9.67785e-09
1.01679e-08
1.06653e-08
1.11686e-08
1.16758e-08
1.21852e-08
1.26947e-08
1.3202e-08
1.37049e-08
1.4201e-08
1.46877e-08
1.51625e-08
1.56228e-08
1.60658e-08
1.6489e-08
1.68896e-08
1.72651e-08
1.7613e-08
1.79308e-08
1.82163e-08
1.84673e-08
1.86818e-08
1.88582e-08
1.89948e-08
1.90906e-08
1.91445e-08
1.91558e-08
1.91243e-08
1.90498e-08
1.89326e-08
1.87733e-08
1.85728e-08
1.83324e-08
1.80536e-08
1.77381e-08
1.7388e-08
1.70056e-08
1.65934e-08
1.6154e-08
1.56904e-08
1.52054e-08
1.4702e-08
1.41834e-08
1.36525e-08
1.31125e-08
1.25662e-08
1.20167e-08
1.14668e-08
1.0919e-08
1.03758e-08
9.83971e-09
9.31274e-09
8.79682e-09
8.2937e-09
7.80487e-09
7.33163e-09
6.87504e-09
6.43599e-09
6.01515e-09
5.61298e-09
5.2298e-09
4.86573e-09
4.52076e-09
4.19472e-09
3.88735e-09
3.59825e-09
3.32694e-09
3.07288e-09
2.83543e-09
2.61393e-09
2.40767e-09
2.21592e-09
2.03794e-09
1.87295e-09
1.72022e-09
1.57899e-09
1.44853e-09
1.32813e-09
1.21711e-09
1.11481e-09
1.02058e-09
9.33847e-10
8.5403e-10
7.80599e-10
7.13055e-10
6.50932e-10
5.93795e-10
5.41244e-10
4.92908e-10
4.48443e-10
4.07538e-10
3.69905e-10
3.35283e-10
3.03433e-10
2.74138e-10
2.47203e-10
2.22449e-10
1.99716e-10
1.78859e-10
1.59745e-10
1.42255e-10
1.26279e-10
1.11719e-10
9.84819e-11
8.64837e-11
7.56451e-11
6.58916e-11
5.71527e-11
4.93611e-11
4.2452e-11
3.63628e-11
3.10324e-11
2.64017e-11
2.24129e-11
1.90094e-11
1.61363e-11
1.37401e-11
1.1769e-11
1.01732e-11
8.90447e-12
7.91705e-12
7.16741e-12
6.61457e-12
6.22028e-12
5.94923e-12
5.76926e-12
5.65153e-12
5.57075e-12
5.50527e-12
5.4372e-12
5.35248e-12
5.24076e-12
5.09533e-12
4.91284e-12
4.69302e-12
4.43821e-12
4.15291e-12
3.84324e-12
3.51638e-12
3.18003e-12
2.84192e-12
2.50937e-12
2.1889e-12
1.886e-12
1.60498e-12
1.34886e-12
1.11944e-12
9.17347e-13
7.42228e-13
5.92902e-13
4.67565e-13
3.63989e-13
2.79702e-13
2.12148e-13
1.58815e-13
1.17336e-13
8.55522e-14
6.15553e-14
4.37029e-14
3.06156e-14
2.11614e-14
1.44312e-14
9.71065e-15
6.44903e-15
4.23069e-15
2.74829e-15
1.7798e-15
1.16946e-15
8.12811e-16
6.45672e-16
1.40803e-11
1.40862e-11
1.42823e-11
1.46679e-11
1.52454e-11
1.60195e-11
1.69978e-11
1.81899e-11
1.96084e-11
2.12683e-11
2.31872e-11
2.53858e-11
2.78879e-11
3.07203e-11
3.39135e-11
3.75016e-11
4.15228e-11
4.60198e-11
5.10399e-11
5.66357e-11
6.28651e-11
6.97925e-11
7.74884e-11
8.60308e-11
9.55053e-11
1.06006e-10
1.17636e-10
1.30507e-10
1.44744e-10
1.60482e-10
1.77868e-10
1.97062e-10
2.18239e-10
2.41589e-10
2.6732e-10
2.95655e-10
3.26837e-10
3.61129e-10
3.98815e-10
4.40201e-10
4.85617e-10
5.3542e-10
5.89989e-10
6.49734e-10
7.15093e-10
7.86534e-10
8.64554e-10
9.49686e-10
1.04249e-09
1.14357e-09
1.25355e-09
1.3731e-09
1.50292e-09
1.64374e-09
1.79633e-09
1.9615e-09
2.14006e-09
2.33289e-09
2.54087e-09
2.76491e-09
3.00595e-09
3.26492e-09
3.54279e-09
3.84052e-09
4.15906e-09
4.49937e-09
4.86237e-09
5.24898e-09
5.66004e-09
6.09639e-09
6.55877e-09
7.04785e-09
7.56424e-09
8.10841e-09
8.68074e-09
9.28146e-09
9.91065e-09
1.05682e-08
1.12539e-08
1.19673e-08
1.27076e-08
1.3474e-08
1.42652e-08
1.508e-08
1.59166e-08
1.6773e-08
1.76471e-08
1.85362e-08
1.94376e-08
2.03481e-08
2.12644e-08
2.21828e-08
2.30995e-08
2.40102e-08
2.49106e-08
2.57961e-08
2.66621e-08
2.75038e-08
2.83162e-08
2.90943e-08
2.98333e-08
3.05283e-08
3.11746e-08
3.17675e-08
3.23027e-08
3.27761e-08
3.31839e-08
3.35227e-08
3.37896e-08
3.39821e-08
3.40982e-08
3.41365e-08
3.4096e-08
3.39765e-08
3.37784e-08
3.35025e-08
3.31504e-08
3.27242e-08
3.22265e-08
3.16607e-08
3.10304e-08
3.03398e-08
2.95935e-08
2.87965e-08
2.7954e-08
2.70716e-08
2.61547e-08
2.52092e-08
2.42409e-08
2.32554e-08
2.22585e-08
2.12555e-08
2.02518e-08
1.92524e-08
1.8262e-08
1.7285e-08
1.63255e-08
1.5387e-08
1.44728e-08
1.35858e-08
1.27282e-08
1.19022e-08
1.11093e-08
1.03508e-08
9.62748e-09
8.93985e-09
8.28812e-09
7.67217e-09
7.09165e-09
6.54596e-09
6.03431e-09
5.55572e-09
5.10909e-09
4.69318e-09
4.30668e-09
3.9482e-09
3.61631e-09
3.30957e-09
3.0265e-09
2.76567e-09
2.52565e-09
2.30503e-09
2.10248e-09
1.9167e-09
1.74643e-09
1.59051e-09
1.4478e-09
1.31725e-09
1.19788e-09
1.08876e-09
9.89036e-10
8.97904e-10
8.14631e-10
7.3854e-10
6.69008e-10
6.05467e-10
5.47396e-10
4.94322e-10
4.45814e-10
4.01482e-10
3.60974e-10
3.2397e-10
2.90181e-10
2.59348e-10
2.31236e-10
2.05632e-10
1.82346e-10
1.61203e-10
1.42043e-10
1.24724e-10
1.09111e-10
9.50819e-11
8.25215e-11
7.13228e-11
6.13847e-11
5.26116e-11
4.4912e-11
3.81988e-11
3.23882e-11
2.73998e-11
2.31563e-11
1.95835e-11
1.66104e-11
1.41688e-11
1.21939e-11
1.06241e-11
9.40115e-12
8.47047e-12
7.78103e-12
7.28565e-12
6.94111e-12
6.70832e-12
6.55248e-12
6.44322e-12
6.35467e-12
6.26558e-12
6.15923e-12
6.02339e-12
5.8501e-12
5.63535e-12
5.37872e-12
5.08281e-12
4.75274e-12
4.39546e-12
4.01916e-12
3.63261e-12
3.24459e-12
2.86341e-12
2.49647e-12
2.14998e-12
1.82878e-12
1.53627e-12
1.27443e-12
1.04394e-12
8.44323e-13
6.74206e-13
5.31492e-13
4.13614e-13
3.17732e-13
2.40918e-13
1.80299e-13
1.33171e-13
9.70712e-14
6.98253e-14
4.95624e-14
3.47123e-14
2.39877e-14
1.63553e-14
1.10031e-14
7.30604e-15
4.79206e-15
3.11244e-15
2.01529e-15
1.32398e-15
9.20068e-16
7.30798e-16
2.43043e-11
2.43176e-11
2.46619e-11
2.53362e-11
2.63447e-11
2.76961e-11
2.94035e-11
3.14843e-11
3.39604e-11
3.68585e-11
4.021e-11
4.40514e-11
4.84246e-11
5.33774e-11
5.89636e-11
6.52437e-11
7.22857e-11
8.01652e-11
8.89661e-11
9.87819e-11
1.09716e-10
1.21882e-10
1.35406e-10
1.50427e-10
1.67098e-10
1.85586e-10
2.06075e-10
2.28767e-10
2.53883e-10
2.81664e-10
3.12374e-10
3.46301e-10
3.83758e-10
4.25087e-10
4.70659e-10
5.20876e-10
5.76176e-10
6.37031e-10
7.03953e-10
7.77494e-10
8.5825e-10
9.46862e-10
1.04402e-09
1.15046e-09
1.26697e-09
1.39441e-09
1.53367e-09
1.68571e-09
1.85156e-09
2.03231e-09
2.22908e-09
2.4431e-09
2.67564e-09
2.92802e-09
3.20165e-09
3.49798e-09
3.81852e-09
4.16483e-09
4.53853e-09
4.94127e-09
5.37475e-09
5.84069e-09
6.34083e-09
6.87691e-09
7.45068e-09
8.06384e-09
8.7181e-09
9.41507e-09
1.01563e-08
1.09433e-08
1.17774e-08
1.26598e-08
1.35915e-08
1.45734e-08
1.56062e-08
1.669e-08
1.78252e-08
1.90114e-08
2.02481e-08
2.15342e-08
2.28686e-08
2.42494e-08
2.56743e-08
2.71407e-08
2.86454e-08
3.01846e-08
3.1754e-08
3.3349e-08
3.49641e-08
3.65936e-08
3.82311e-08
3.98698e-08
4.15023e-08
4.31209e-08
4.47175e-08
4.62838e-08
4.78109e-08
4.92899e-08
5.0712e-08
5.20679e-08
5.33488e-08
5.45458e-08
5.56502e-08
5.6654e-08
5.75492e-08
5.83286e-08
5.89858e-08
5.95147e-08
5.99104e-08
6.01689e-08
6.02869e-08
6.02625e-08
6.00946e-08
5.97833e-08
5.93299e-08
5.87367e-08
5.80072e-08
5.7146e-08
5.61586e-08
5.50517e-08
5.38327e-08
5.25098e-08
5.1092e-08
4.95889e-08
4.80104e-08
4.6367e-08
4.46692e-08
4.29277e-08
4.11532e-08
3.93561e-08
3.75468e-08
3.57352e-08
3.39305e-08
3.21418e-08
3.03773e-08
2.86446e-08
2.69504e-08
2.5301e-08
2.37016e-08
2.21568e-08
2.06703e-08
1.92452e-08
1.78837e-08
1.65874e-08
1.53572e-08
1.41934e-08
1.30958e-08
1.20637e-08
1.10958e-08
1.01907e-08
9.34645e-09
8.56088e-09
7.83165e-09
7.15622e-09
6.53194e-09
5.95609e-09
5.42591e-09
4.93862e-09
4.49149e-09
4.08182e-09
3.70699e-09
3.36446e-09
3.05182e-09
2.76673e-09
2.507e-09
2.27057e-09
2.05547e-09
1.85989e-09
1.68214e-09
1.52064e-09
1.37395e-09
1.24073e-09
1.11975e-09
1.00989e-09
9.1012e-10
8.19516e-10
7.37228e-10
6.62488e-10
5.94603e-10
5.32946e-10
4.76954e-10
4.26117e-10
3.79979e-10
3.38129e-10
3.00197e-10
2.65852e-10
2.34792e-10
2.06749e-10
1.81476e-10
1.58751e-10
1.38371e-10
1.20149e-10
1.03914e-10
8.95063e-11
7.67772e-11
6.55876e-11
5.58067e-11
4.7311e-11
3.99833e-11
3.37129e-11
2.83944e-11
2.3928e-11
2.02191e-11
1.71784e-11
1.47214e-11
1.2769e-11
1.1247e-11
1.00865e-11
9.2235e-12
8.59956e-12
8.16139e-12
7.86118e-12
7.65658e-12
7.51085e-12
7.39286e-12
7.2771e-12
7.14359e-12
6.97774e-12
6.77e-12
6.51556e-12
6.21376e-12
5.86755e-12
5.48275e-12
5.06734e-12
4.63073e-12
4.18297e-12
3.73414e-12
3.29375e-12
2.87024e-12
2.4707e-12
2.10064e-12
1.76388e-12
1.46264e-12
1.19762e-12
9.68253e-13
7.72881e-13
6.09066e-13
4.73823e-13
3.63867e-13
2.75814e-13
2.06354e-13
1.52373e-13
1.11038e-13
7.98521e-14
5.66657e-14
3.96783e-14
2.74135e-14
1.86872e-14
1.25696e-14
8.34462e-15
5.47233e-15
3.55369e-15
2.30063e-15
1.5112e-15
1.05003e-15
8.33942e-16
4.12898e-11
4.13179e-11
4.19131e-11
4.30743e-11
4.48087e-11
4.71316e-11
5.00658e-11
5.36418e-11
5.78979e-11
6.28805e-11
6.86443e-11
7.5253e-11
8.27797e-11
9.13077e-11
1.00931e-10
1.11755e-10
1.23899e-10
1.37494e-10
1.52689e-10
1.69645e-10
1.88544e-10
2.09586e-10
2.32992e-10
2.59005e-10
2.87893e-10
3.19951e-10
3.55503e-10
3.94903e-10
4.38541e-10
4.86842e-10
5.40272e-10
5.99338e-10
6.64594e-10
7.36645e-10
8.16146e-10
9.03812e-10
1.00041e-09
1.10679e-09
1.22386e-09
1.35259e-09
1.49404e-09
1.64936e-09
1.81977e-09
2.00658e-09
2.21121e-09
2.43517e-09
2.68006e-09
2.94761e-09
3.23964e-09
3.55809e-09
3.905e-09
4.28254e-09
4.69299e-09
5.13873e-09
5.62227e-09
6.14622e-09
6.71328e-09
7.32628e-09
7.9881e-09
8.70171e-09
9.47017e-09
1.02966e-08
1.1184e-08
1.21356e-08
1.31546e-08
1.42439e-08
1.54067e-08
1.66458e-08
1.7964e-08
1.9364e-08
2.08481e-08
2.24185e-08
2.40771e-08
2.58251e-08
2.76639e-08
2.95939e-08
3.16152e-08
3.37273e-08
3.5929e-08
3.82187e-08
4.05936e-08
4.30504e-08
4.55851e-08
4.81924e-08
5.08663e-08
5.36001e-08
5.63857e-08
5.92144e-08
6.20763e-08
6.49606e-08
6.78556e-08
7.07488e-08
7.36267e-08
7.64751e-08
7.92792e-08
8.20236e-08
8.46925e-08
8.72695e-08
8.97385e-08
9.20831e-08
9.4287e-08
9.63343e-08
9.82098e-08
9.98988e-08
1.01388e-07
1.02663e-07
1.03715e-07
1.04532e-07
1.05107e-07
1.05432e-07
1.05503e-07
1.05317e-07
1.04873e-07
1.04172e-07
1.03217e-07
1.02015e-07
1.00572e-07
9.88969e-08
9.70019e-08
9.48994e-08
9.2604e-08
9.01313e-08
8.74986e-08
8.47236e-08
8.18252e-08
7.88226e-08
7.57354e-08
7.25829e-08
6.93848e-08
6.61598e-08
6.29263e-08
5.97019e-08
5.65032e-08
5.33456e-08
5.02434e-08
4.72095e-08
4.42554e-08
4.13912e-08
3.86255e-08
3.59654e-08
3.34168e-08
3.0984e-08
2.867e-08