/*--------------------------------*- C++ -*----------------------------------*\
| =========                 |                                                 |
| \\      /  F ield         | OpenFOAM: The Open Source CFD Toolbox           |
|  \\    /   O peration     | Version:  v2012                                 |
|   \\  /    A nd           | Website:  www.openfoam.com                      |
|    \\/     M anipulation  |                                                 |
\*---------------------------------------------------------------------------*/
FoamFile
{
    version     2.0;
    format      ascii;
    class       surfaceScalarField;
    location    "8.25";
    object      phi;
}
// * * * * * * * * * * * * * * * * * * * * * * * * * * * * * * * * * * * * * //

dimensions      [0 3 -1 0 0 0 0];
oriented        oriented;


internalField   nonuniform List<scalar> 
130560
(
3.72434e-06
-3.72434e-06
7.44867e-06
-3.72433e-06
1.1173e-05
-3.72432e-06
1.48973e-05
-3.7243e-06
1.86216e-05
-3.72428e-06
2.23458e-05
-3.72424e-06
2.607e-05
-3.72418e-06
2.97941e-05
-3.7241e-06
3.35181e-05
-3.724e-06
3.72419e-05
-3.72386e-06
4.09656e-05
-3.72368e-06
4.46891e-05
-3.72345e-06
4.84122e-05
-3.72316e-06
5.2135e-05
-3.72281e-06
5.58574e-05
-3.72237e-06
5.95793e-05
-3.72185e-06
6.33005e-05
-3.72123e-06
6.7021e-05
-3.72049e-06
7.07406e-05
-3.71963e-06
7.44592e-05
-3.71862e-06
7.81767e-05
-3.71746e-06
8.18928e-05
-3.71612e-06
8.56074e-05
-3.71459e-06
8.93202e-05
-3.71286e-06
9.30312e-05
-3.71091e-06
9.67399e-05
-3.70871e-06
0.000100446
-3.70624e-06
0.00010415
-3.7035e-06
0.00010785
-3.70045e-06
0.000111547
-3.69707e-06
0.00011524
-3.69335e-06
0.00011893
-3.68926e-06
0.000122614
-3.68477e-06
0.000126294
-3.67987e-06
0.000129969
-3.67452e-06
0.000133638
-3.66871e-06
0.0001373
-3.66241e-06
0.000140956
-3.65559e-06
0.000144604
-3.64823e-06
0.000148244
-3.6403e-06
0.000151876
-3.63177e-06
0.000155499
-3.62262e-06
0.000159111
-3.61281e-06
0.000162714
-3.60233e-06
0.000166305
-3.59114e-06
0.000169884
-3.57922e-06
0.000173451
-3.56654e-06
0.000177004
-3.55307e-06
0.000180542
-3.53878e-06
0.000184066
-3.52364e-06
0.000187574
-3.50764e-06
0.000191064
-3.49073e-06
0.000194537
-3.4729e-06
0.000197991
-3.45412e-06
0.000201426
-3.43436e-06
0.000204839
-3.4136e-06
0.000208231
-3.39182e-06
0.0002116
-3.36898e-06
0.000214945
-3.34507e-06
0.000218265
-3.32006e-06
0.000221559
-3.29394e-06
0.000224826
-3.26668e-06
0.000228064
-3.23826e-06
0.000231273
-3.20867e-06
0.000234451
-3.17789e-06
0.000237597
-3.14591e-06
0.000240709
-3.1127e-06
0.000243788
-3.07827e-06
0.00024683
-3.04259e-06
0.000249836
-3.00566e-06
0.000252803
-2.96747e-06
0.000255731
-2.92802e-06
0.000258619
-2.88729e-06
0.000261464
-2.8453e-06
0.000264266
-2.80204e-06
0.000267024
-2.7575e-06
0.000269735
-2.71171e-06
0.0002724
-2.66465e-06
0.000275016
-2.61634e-06
0.000277583
-2.56678e-06
0.000280099
-2.516e-06
0.000282563
-2.464e-06
0.000284974
-2.41081e-06
0.00028733
-2.35643e-06
0.000289631
-2.30089e-06
0.000291875
-2.24422e-06
0.000294062
-2.18643e-06
0.000296189
-2.12755e-06
0.000298257
-2.06762e-06
0.000300264
-2.00666e-06
0.000302208
-1.94471e-06
0.00030409
-1.8818e-06
0.000305908
-1.81796e-06
0.000307661
-1.75324e-06
0.000309349
-1.68768e-06
0.00031097
-1.62131e-06
0.000312524
-1.55418e-06
0.000314011
-1.48633e-06
0.000315429
-1.41781e-06
0.000316777
-1.34867e-06
0.000318056
-1.27895e-06
0.000319265
-1.2087e-06
0.000320403
-1.13797e-06
0.00032147
-1.06682e-06
0.000322465
-9.9529e-07
0.000323388
-9.23436e-07
0.00032424
-8.51309e-07
0.000325019
-7.78962e-07
0.000325725
-7.06447e-07
0.000326359
-6.33818e-07
0.00032692
-5.61127e-07
0.000327409
-4.88425e-07
0.000327824
-4.15766e-07
0.000328168
-3.43201e-07
0.000328438
-2.70781e-07
0.000328637
-1.98556e-07
0.000328763
-1.26578e-07
0.000328818
-5.48931e-08
0.000328802
1.64487e-08
0.000328714
8.7401e-08
0.000328557
1.57918e-07
0.000328329
2.27954e-07
0.000328031
2.97467e-07
0.000327665
3.66414e-07
0.00032723
4.34755e-07
0.000326728
5.0245e-07
0.000326158
5.69461e-07
0.000325522
6.35752e-07
0.000324821
7.01289e-07
0.000324055
7.6604e-07
0.000323225
8.29971e-07
0.000322332
8.93055e-07
0.000321377
9.55263e-07
0.00032036
1.01657e-06
0.000319283
1.07695e-06
0.000318147
1.13638e-06
0.000316952
1.19484e-06
0.0003157
1.25231e-06
0.000314391
1.30878e-06
0.000313027
1.36423e-06
0.000311608
1.41863e-06
0.000310136
1.47199e-06
0.000308612
1.5243e-06
0.000307036
1.57553e-06
0.00030541
1.62569e-06
0.000303736
1.67476e-06
0.000302013
1.72275e-06
0.000300243
1.76966e-06
0.000298428
1.81547e-06
0.000296568
1.86019e-06
0.000294664
1.90382e-06
0.000292717
1.94636e-06
0.00029073
1.98782e-06
0.000288701
2.0282e-06
0.000286634
2.0675e-06
0.000284528
2.10574e-06
0.000282385
2.14292e-06
0.000280206
2.17905e-06
0.000277992
2.21413e-06
0.000275744
2.24819e-06
0.000273463
2.28123e-06
0.000271149
2.31327e-06
0.000268805
2.3443e-06
0.000266431
2.37436e-06
0.000264027
2.40346e-06
0.000261596
2.4316e-06
0.000259137
2.4588e-06
0.000256652
2.48509e-06
0.000254141
2.51046e-06
0.000251606
2.53495e-06
0.000249048
2.55857e-06
0.000246467
2.58133e-06
0.000243863
2.60326e-06
0.000241239
2.62436e-06
0.000238594
2.64466e-06
0.00023593
2.66418e-06
0.000233247
2.68293e-06
0.000230546
2.70092e-06
0.000227828
2.71819e-06
0.000225093
2.73475e-06
0.000222343
2.75061e-06
0.000219577
2.76579e-06
0.000216797
2.78031e-06
0.000214002
2.79419e-06
0.000211195
2.80745e-06
0.000208375
2.8201e-06
0.000205543
2.83217e-06
0.000202699
2.84366e-06
0.000199844
2.8546e-06
0.000196979
2.865e-06
0.000194105
2.87488e-06
0.00019122
2.88427e-06
0.000188327
2.89316e-06
0.000185426
2.90158e-06
0.000182516
2.90955e-06
0.000179599
2.91709e-06
0.000176675
2.9242e-06
0.000173744
2.9309e-06
0.000170807
2.93721e-06
0.000167863
2.94314e-06
0.000164915
2.94871e-06
0.000161961
2.95394e-06
0.000159002
2.95882e-06
0.000156039
2.96339e-06
0.000153071
2.96765e-06
0.000150099
2.97161e-06
0.000147124
2.9753e-06
0.000144145
2.97871e-06
0.000141163
2.98187e-06
0.000138179
2.98478e-06
0.000135191
2.98746e-06
0.000132201
2.98992e-06
0.000129209
2.99217e-06
0.000126215
2.99422e-06
0.000123219
2.99608e-06
0.000120221
2.99777e-06
0.000117222
2.99928e-06
0.000114221
3.00063e-06
0.000111219
3.00184e-06
0.000108216
3.00291e-06
0.000105212
3.00384e-06
0.000102208
3.00465e-06
9.92025e-05
3.00535e-06
9.61965e-05
3.00595e-06
9.31901e-05
3.00644e-06
9.01833e-05
3.00684e-06
8.71761e-05
3.00716e-06
8.41687e-05
3.00741e-06
8.11611e-05
3.00758e-06
7.81534e-05
3.00769e-06
7.51457e-05
3.00775e-06
7.21379e-05
3.00775e-06
6.91302e-05
3.00771e-06
6.61226e-05
3.00763e-06
6.3115e-05
3.00752e-06
6.01077e-05
3.00738e-06
5.71005e-05
3.00721e-06
5.40934e-05
3.00702e-06
5.10866e-05
3.00682e-06
4.808e-05
3.00661e-06
4.50736e-05
3.00639e-06
4.20674e-05
3.00617e-06
3.90615e-05
3.00594e-06
3.60558e-05
3.00572e-06
3.30503e-05
3.00551e-06
3.0045e-05
3.0053e-06
2.70399e-05
3.0051e-06
2.4035e-05
3.00492e-06
2.10302e-05
3.00475e-06
1.80256e-05
3.0046e-06
1.50211e-05
3.00447e-06
1.20168e-05
3.00436e-06
9.01249e-06
3.00427e-06
6.00829e-06
3.0042e-06
3.00413e-06
3.00416e-06
3.00413e-06
3.72434e-06
-7.44868e-06
7.44868e-06
-7.44867e-06
1.1173e-05
-7.44865e-06
1.48973e-05
-7.44862e-06
1.86216e-05
-7.44857e-06
2.23459e-05
-7.44849e-06
2.60701e-05
-7.44838e-06
2.97942e-05
-7.44823e-06
3.35182e-05
-7.44803e-06
3.72421e-05
-7.44775e-06
4.09658e-05
-7.4474e-06
4.46893e-05
-7.44695e-06
4.84126e-05
-7.44639e-06
5.21355e-05
-7.44569e-06
5.58579e-05
-7.44483e-06
5.95799e-05
-7.4438e-06
6.33012e-05
-7.44257e-06
6.70218e-05
-7.44111e-06
7.07416e-05
-7.43939e-06
7.44604e-05
-7.4374e-06
7.8178e-05
-7.43508e-06
8.18943e-05
-7.43243e-06
8.56091e-05
-7.4294e-06
8.93222e-05
-7.42595e-06
9.30334e-05
-7.42205e-06
9.67423e-05
-7.41767e-06
0.000100449
-7.41277e-06
0.000104153
-7.40729e-06
0.000107853
-7.40122e-06
0.000111551
-7.39449e-06
0.000115245
-7.38707e-06
0.000118934
-7.3789e-06
0.000122619
-7.36996e-06
0.0001263
-7.36018e-06
0.000129975
-7.34951e-06
0.000133644
-7.33792e-06
0.000137307
-7.32534e-06
0.000140963
-7.31173e-06
0.000144612
-7.29703e-06
0.000148253
-7.28119e-06
0.000151885
-7.26416e-06
0.000155508
-7.24589e-06
0.000159122
-7.22631e-06
0.000162725
-7.20537e-06
0.000166317
-7.18302e-06
0.000169897
-7.15921e-06
0.000173464
-7.13387e-06
0.000177018
-7.10695e-06
0.000180558
-7.0784e-06
0.000184082
-7.04816e-06
0.000187591
-7.01617e-06
0.000191082
-6.98239e-06
0.000194556
-6.94676e-06
0.000198011
-6.90922e-06
0.000201447
-6.86973e-06
0.000204861
-6.82823e-06
0.000208254
-6.78468e-06
0.000211624
-6.73903e-06
0.00021497
-6.69123e-06
0.000218291
-6.64124e-06
0.000221587
-6.58901e-06
0.000224854
-6.53451e-06
0.000228094
-6.4777e-06
0.000231304
-6.41853e-06
0.000234483
-6.35699e-06
0.00023763
-6.29303e-06
0.000240744
-6.22664e-06
0.000243823
-6.15778e-06
0.000246867
-6.08643e-06
0.000249874
-6.01258e-06
0.000252843
-5.93621e-06
0.000255772
-5.8573e-06
0.000258661
-5.77586e-06
0.000261507
-5.69187e-06
0.000264311
-5.60534e-06
0.000267069
-5.51627e-06
0.000269782
-5.42467e-06
0.000272448
-5.33054e-06
0.000275066
-5.23391e-06
0.000277634
-5.1348e-06
0.000280151
-5.03322e-06
0.000282616
-4.92921e-06
0.000285028
-4.82279e-06
0.000287386
-4.71402e-06
0.000289688
-4.60292e-06
0.000291933
-4.48954e-06
0.000294121
-4.37394e-06
0.000296249
-4.25616e-06
0.000298318
-4.13627e-06
0.000300326
-4.01432e-06
0.000302271
-3.89038e-06
0.000304154
-3.76452e-06
0.000305973
-3.63681e-06
0.000307727
-3.50733e-06
0.000309415
-3.37615e-06
0.000311037
-3.24337e-06
0.000312592
-3.10907e-06
0.000314079
-2.97333e-06
0.000315498
-2.83624e-06
0.000316847
-2.69791e-06
0.000318126
-2.55842e-06
0.000319336
-2.41787e-06
0.000320474
-2.27637e-06
0.000321541
-2.13401e-06
0.000322537
-1.9909e-06
0.00032346
-1.84714e-06
0.000324312
-1.70284e-06
0.000325091
-1.55809e-06
0.000325798
-1.41301e-06
0.000326432
-1.2677e-06
0.000326993
-1.12226e-06
0.000327481
-9.76808e-07
0.000327897
-8.31438e-07
0.00032824
-6.86256e-07
0.00032851
-5.41365e-07
0.000328709
-3.96867e-07
0.000328835
-2.5286e-07
0.00032889
-1.09443e-07
0.000328873
3.32873e-08
0.000328785
1.75238e-07
0.000328626
3.16316e-07
0.000328398
4.56433e-07
0.0003281
5.955e-07
0.000327733
7.33435e-07
0.000327298
8.70155e-07
0.000326794
1.00558e-06
0.000326224
1.13964e-06
0.000325588
1.27226e-06
0.000324886
1.40337e-06
0.000324119
1.5329e-06
0.000323288
1.66079e-06
0.000322394
1.78699e-06
0.000321438
1.91143e-06
0.00032042
2.03406e-06
0.000319342
2.15485e-06
0.000318205
2.27373e-06
0.000317009
2.39067e-06
0.000315756
2.50563e-06
0.000314446
2.61858e-06
0.000313081
2.72949e-06
0.000311661
2.83832e-06
0.000310188
2.94505e-06
0.000308663
3.04966e-06
0.000307086
3.15213e-06
0.000305459
3.25246e-06
0.000303784
3.35061e-06
0.00030206
3.4466e-06
0.000300289
3.5404e-06
0.000298472
3.63202e-06
0.000296611
3.72146e-06
0.000294706
3.80872e-06
0.000292759
3.8938e-06
0.00029077
3.97671e-06
0.000288741
4.05746e-06
0.000286672
4.13607e-06
0.000284565
4.21253e-06
0.000282421
4.28688e-06
0.000280241
4.35913e-06
0.000278026
4.4293e-06
0.000275777
4.4974e-06
0.000273495
4.56347e-06
0.00027118
4.62752e-06
0.000268835
4.68959e-06
0.00026646
4.74969e-06
0.000264055
4.80786e-06
0.000261623
4.86413e-06
0.000259163
4.91852e-06
0.000256677
4.97107e-06
0.000254166
5.02181e-06
0.00025163
5.07078e-06
0.000249071
5.11799e-06
0.000246488
5.1635e-06
0.000243884
5.20733e-06
0.000241259
5.24952e-06
0.000238614
5.29011e-06
0.000235949
5.32912e-06
0.000233265
5.3666e-06
0.000230563
5.40258e-06
0.000227845
5.4371e-06
0.000225109
5.47019e-06
0.000222358
5.50189e-06
0.000219591
5.53223e-06
0.00021681
5.56126e-06
0.000214016
5.58901e-06
0.000211208
5.6155e-06
0.000208387
5.64079e-06
0.000205554
5.6649e-06
0.00020271
5.68787e-06
0.000199855
5.70973e-06
0.000196989
5.73052e-06
0.000194114
5.75027e-06
0.000191229
5.76902e-06
0.000188335
5.78679e-06
0.000185433
5.80362e-06
0.000182523
5.81955e-06
0.000179606
5.8346e-06
0.000176681
5.8488e-06
0.00017375
5.86219e-06
0.000170812
5.8748e-06
0.000167869
5.88665e-06
0.00016492
5.89778e-06
0.000161966
5.90821e-06
0.000159006
5.91797e-06
0.000156043
5.92709e-06
0.000153075
5.93559e-06
0.000150103
5.94351e-06
0.000147127
5.95086e-06
0.000144148
5.95768e-06
0.000141166
5.96398e-06
0.000138181
5.9698e-06
0.000135194
5.97515e-06
0.000132203
5.98006e-06
0.000129211
5.98454e-06
0.000126217
5.98863e-06
0.00012322
5.99234e-06
0.000120222
5.9957e-06
0.000117223
5.99872e-06
0.000114222
6.00142e-06
0.00011122
6.00382e-06
0.000108217
6.00594e-06
0.000105213
6.00781e-06
0.000102209
6.00942e-06
9.92031e-05
6.01081e-06
9.6197e-05
6.01199e-06
9.31905e-05
6.01297e-06
9.01836e-05
6.01377e-06
8.71763e-05
6.0144e-06
8.41688e-05
6.01488e-06
8.11612e-05
6.01523e-06
7.81535e-05
6.01544e-06
7.51457e-05
6.01555e-06
7.21379e-05
6.01555e-06
6.91301e-05
6.01546e-06
6.61224e-05
6.0153e-06
6.31149e-05
6.01507e-06
6.01075e-05
6.01478e-06
5.71003e-05
6.01444e-06
5.40932e-05
6.01406e-06
5.10864e-05
6.01366e-06
4.80798e-05
6.01323e-06
4.50734e-05
6.01278e-06
4.20672e-05
6.01233e-06
3.90613e-05
6.01188e-06
3.60556e-05
6.01144e-06
3.30501e-05
6.011e-06
3.00448e-05
6.01059e-06
2.70397e-05
6.01019e-06
2.40348e-05
6.00983e-06
2.103e-05
6.00949e-06
1.80255e-05
6.00919e-06
1.5021e-05
6.00892e-06
1.20167e-05
6.0087e-06
9.01242e-06
6.00852e-06
6.00824e-06
6.00838e-06
3.00411e-06
6.00829e-06
6.00824e-06
3.72435e-06
-1.1173e-05
7.4487e-06
-1.1173e-05
1.1173e-05
-1.1173e-05
1.48974e-05
-1.11729e-05
1.86217e-05
-1.11729e-05
2.2346e-05
-1.11728e-05
2.60702e-05
-1.11726e-05
2.97944e-05
-1.11724e-05
3.35185e-05
-1.11721e-05
3.72425e-05
-1.11717e-05
4.09663e-05
-1.11712e-05
4.46899e-05
-1.11706e-05
4.84133e-05
-1.11697e-05
5.21363e-05
-1.11687e-05
5.5859e-05
-1.11675e-05
5.95811e-05
-1.1166e-05
6.33027e-05
-1.11641e-05
6.70236e-05
-1.1162e-05
7.07436e-05
-1.11594e-05
7.44627e-05
-1.11565e-05
7.81807e-05
-1.11531e-05
8.18974e-05
-1.11491e-05
8.56126e-05
-1.11446e-05
8.93261e-05
-1.11395e-05
9.30377e-05
-1.11337e-05
9.67472e-05
-1.11272e-05
0.000100454
-1.11199e-05
0.000104159
-1.11117e-05
0.00010786
-1.11026e-05
0.000111558
-1.10926e-05
0.000115253
-1.10815e-05
0.000118943
-1.10693e-05
0.000122629
-1.1056e-05
0.00012631
-1.10414e-05
0.000129986
-1.10254e-05
0.000133656
-1.10081e-05
0.00013732
-1.09893e-05
0.000140978
-1.0969e-05
0.000144628
-1.0947e-05
0.00014827
-1.09233e-05
0.000151903
-1.08978e-05
0.000155528
-1.08705e-05
0.000159143
-1.08412e-05
0.000162747
-1.08098e-05
0.000166341
-1.07764e-05
0.000169922
-1.07407e-05
0.000173491
-1.07028e-05
0.000177046
-1.06625e-05
0.000180588
-1.06197e-05
0.000184114
-1.05744e-05
0.000187624
-1.05265e-05
0.000191118
-1.04759e-05
0.000194594
-1.04225e-05
0.000198051
-1.03663e-05
0.000201488
-1.03071e-05
0.000204905
-1.02449e-05
0.0002083
-1.01796e-05
0.000211672
-1.01112e-05
0.00021502
-1.00396e-05
0.000218344
-9.96465e-06
0.000221641
-9.88636e-06
0.000224911
-9.80466e-06
0.000228153
-9.71948e-06
0.000231365
-9.63078e-06
0.000234547
-9.5385e-06
0.000237696
-9.4426e-06
0.000240813
-9.34304e-06
0.000243895
-9.23977e-06
0.000246941
-9.13277e-06
0.00024995
-9.02202e-06
0.000252922
-8.90747e-06
0.000255854
-8.78913e-06
0.000258745
-8.66697e-06
0.000261594
-8.54099e-06
0.0002644
-8.41119e-06
0.000267161
-8.27757e-06
0.000269876
-8.14015e-06
0.000272545
-7.99895e-06
0.000275165
-7.85398e-06
0.000277735
-7.70527e-06
0.000280255
-7.55287e-06
0.000282723
-7.39681e-06
0.000285137
-7.23715e-06
0.000287497
-7.07393e-06
0.000289801
-6.90723e-06
0.000292049
-6.7371e-06
0.000294238
-6.56363e-06
0.000296369
-6.38689e-06
0.00029844
-6.20697e-06
0.000300449
-6.02396e-06
0.000302397
-5.83797e-06
0.000304282
-5.64908e-06
0.000306102
-5.45742e-06
0.000307858
-5.2631e-06
0.000309548
-5.06624e-06
0.000311172
-4.86696e-06
0.000312728
-4.66539e-06
0.000314216
-4.46167e-06
0.000315636
-4.25593e-06
0.000316986
-4.0483e-06
0.000318267
-3.83895e-06
0.000319477
-3.62801e-06
0.000320616
-3.41563e-06
0.000321684
-3.20196e-06
0.000322681
-2.98717e-06
0.000323605
-2.7714e-06
0.000324457
-2.55481e-06
0.000325236
-2.33755e-06
0.000325943
-2.1198e-06
0.000326577
-1.9017e-06
0.000327138
-1.68342e-06
0.000327627
-1.46511e-06
0.000328042
-1.24692e-06
0.000328385
-1.02902e-06
0.000328655
-8.11558e-07
0.000328853
-5.94686e-07
0.000328978
-3.78553e-07
0.000329032
-1.63308e-07
0.000329015
5.09061e-08
0.000328926
2.63947e-07
0.000328767
4.75676e-07
0.000328537
6.85959e-07
0.000328238
8.94667e-07
0.00032787
1.10167e-06
0.000327433
1.30685e-06
0.000326929
1.51008e-06
0.000326357
1.71126e-06
0.000325719
1.91028e-06
0.000325015
2.10702e-06
0.000324247
2.30139e-06
0.000323414
2.49331e-06
0.000322519
2.68267e-06
0.000321561
2.8694e-06
0.000320541
3.05341e-06
0.000319461
3.23464e-06
0.000318322
3.41302e-06
0.000317124
3.58848e-06
0.000315869
3.76097e-06
0.000314557
3.93043e-06
0.00031319
4.09682e-06
0.000311768
4.26009e-06
0.000310293
4.42022e-06
0.000308765
4.57716e-06
0.000307187
4.73089e-06
0.000305558
4.88139e-06
0.00030388
5.02864e-06
0.000302154
5.17262e-06
0.000300381
5.31333e-06
0.000298562
5.45076e-06
0.000296698
5.58492e-06
0.000294791
5.7158e-06
0.000292842
5.84341e-06
0.000290851
5.96777e-06
0.000288819
6.08888e-06
0.000286749
6.20677e-06
0.00028464
6.32145e-06
0.000282494
6.43295e-06
0.000280311
6.5413e-06
0.000278094
6.64652e-06
0.000275843
6.74865e-06
0.000273559
6.84772e-06
0.000271242
6.94377e-06
0.000268895
7.03683e-06
0.000266518
7.12695e-06
0.000264112
7.21417e-06
0.000261677
7.29854e-06
0.000259216
7.38009e-06
0.000256728
7.45887e-06
0.000254215
7.53494e-06
0.000251677
7.60835e-06
0.000249116
7.67913e-06
0.000246532
7.74735e-06
0.000243927
7.81305e-06
0.0002413
7.87629e-06
0.000238653
7.93712e-06
0.000235986
7.9956e-06
0.000233301
8.05177e-06
0.000230598
8.1057e-06
0.000227878
8.15743e-06
0.000225141
8.20702e-06
0.000222388
8.25452e-06
0.00021962
8.3e-06
0.000216838
8.3435e-06
0.000214042
8.38507e-06
0.000211233
8.42477e-06
0.000208411
8.46266e-06
0.000205577
8.49878e-06
0.000202732
8.53319e-06
0.000199876
8.56594e-06
0.000197009
8.59708e-06
0.000194133
8.62666e-06
0.000191247
8.65474e-06
0.000188352
8.68136e-06
0.000185449
8.70657e-06
0.000182539
8.73041e-06
0.00017962
8.75295e-06
0.000176695
8.77422e-06
0.000173763
8.79427e-06
0.000170824
8.81314e-06
0.00016788
8.83088e-06
0.00016493
8.84753e-06
0.000161975
8.86314e-06
0.000159016
8.87775e-06
0.000156051
8.8914e-06
0.000153083
8.90412e-06
0.00015011
8.91596e-06
0.000147134
8.92696e-06
0.000144155
8.93716e-06
0.000141172
8.94659e-06
0.000138187
8.95528e-06
0.000135199
8.96328e-06
0.000132208
8.97061e-06
0.000129215
8.97731e-06
0.00012622
8.98342e-06
0.000123224
8.98896e-06
0.000120226
8.99397e-06
0.000117226
8.99847e-06
0.000114225
9.0025e-06
0.000111222
9.00608e-06
0.000108219
9.00924e-06
0.000105215
9.01202e-06
0.00010221
9.01442e-06
9.92042e-05
9.01648e-06
9.6198e-05
9.01823e-06
9.31913e-05
9.01968e-06
9.01842e-05
9.02086e-06
8.71768e-05
9.02179e-06
8.41692e-05
9.0225e-06
8.11614e-05
9.023e-06
7.81536e-05
9.0233e-06
7.51457e-05
9.02345e-06
7.21378e-05
9.02344e-06
6.91299e-05
9.02329e-06
6.61222e-05
9.02303e-06
6.31146e-05
9.02267e-06
6.01072e-05
9.02223e-06
5.70999e-05
9.02171e-06
5.40928e-05
9.02113e-06
5.1086e-05
9.02051e-06
4.80793e-05
9.01986e-06
4.50729e-05
9.01918e-06
4.20668e-05
9.0185e-06
3.90608e-05
9.01781e-06
3.60551e-05
9.01714e-06
3.30497e-05
9.01648e-06
3.00444e-05
9.01585e-06
2.70393e-05
9.01526e-06
2.40344e-05
9.0147e-06
2.10297e-05
9.01419e-06
1.80252e-05
9.01374e-06
1.50208e-05
9.01334e-06
1.20165e-05
9.013e-06
9.01228e-06
9.01272e-06
6.00815e-06
9.01251e-06
3.00406e-06
9.01237e-06
9.0123e-06
3.72436e-06
-1.48974e-05
7.44872e-06
-1.48974e-05
1.11731e-05
-1.48973e-05
1.48974e-05
-1.48973e-05
1.86218e-05
-1.48972e-05
2.23461e-05
-1.48971e-05
2.60704e-05
-1.48969e-05
2.97947e-05
-1.48967e-05
3.35189e-05
-1.48963e-05
3.7243e-05
-1.48958e-05
4.0967e-05
-1.48952e-05
4.46907e-05
-1.48944e-05
4.84143e-05
-1.48933e-05
5.21376e-05
-1.4892e-05
5.58605e-05
-1.48904e-05
5.95829e-05
-1.48884e-05
6.33048e-05
-1.4886e-05
6.70261e-05
-1.48832e-05
7.07466e-05
-1.48799e-05
7.44661e-05
-1.4876e-05
7.81846e-05
-1.48715e-05
8.19019e-05
-1.48664e-05
8.56177e-05
-1.48604e-05
8.93319e-05
-1.48537e-05
9.30443e-05
-1.48461e-05
9.67545e-05
-1.48374e-05
0.000100462
-1.48278e-05
0.000104168
-1.4817e-05
0.00010787
-1.4805e-05
0.000111569
-1.47918e-05
0.000115265
-1.47771e-05
0.000118957
-1.4761e-05
0.000122644
-1.47432e-05
0.000126326
-1.47239e-05
0.000130004
-1.47028e-05
0.000133675
-1.46798e-05
0.000137341
-1.46548e-05
0.000141
-1.46278e-05
0.000144651
-1.45986e-05
0.000148295
-1.45672e-05
0.000151931
-1.45333e-05
0.000155557
-1.4497e-05
0.000159174
-1.4458e-05
0.000162781
-1.44164e-05
0.000166376
-1.43719e-05
0.00016996
-1.43245e-05
0.000173531
-1.42741e-05
0.000177089
-1.42204e-05
0.000180633
-1.41636e-05
0.000184162
-1.41033e-05
0.000187675
-1.40395e-05
0.000191171
-1.39722e-05
0.00019465
-1.39011e-05
0.00019811
-1.38263e-05
0.00020155
-1.37475e-05
0.00020497
-1.36647e-05
0.000208368
-1.35778e-05
0.000211744
-1.34867e-05
0.000215095
-1.33912e-05
0.000218422
-1.32914e-05
0.000221723
-1.31871e-05
0.000224996
-1.30783e-05
0.000228242
-1.29648e-05
0.000231458
-1.28466e-05
0.000234643
-1.27236e-05
0.000237796
-1.25958e-05
0.000240916
-1.24631e-05
0.000244002
-1.23255e-05
0.000247052
-1.21829e-05
0.000250065
-1.20352e-05
0.00025304
-1.18825e-05
0.000255976
-1.17248e-05
0.000258871
-1.15619e-05
0.000261724
-1.13939e-05
0.000264533
-1.12209e-05
0.000267298
-1.10427e-05
0.000270018
-1.08594e-05
0.00027269
-1.06711e-05
0.000275314
-1.04778e-05
0.000277888
-1.02794e-05
0.000280411
-1.00762e-05
0.000282882
-9.86802e-06
0.0002853
-9.65505e-06
0.000287664
-9.43733e-06
0.000289971
-9.21496e-06
0.000292222
-8.98801e-06
0.000294415
-8.75658e-06
0.000296549
-8.5208e-06
0.000298623
-8.28076e-06
0.000300636
-8.0366e-06
0.000302586
-7.78844e-06
0.000304473
-7.53643e-06
0.000306297
-7.2807e-06
0.000308055
-7.02142e-06
0.000309747
-6.75875e-06
0.000311373
-6.49284e-06
0.000312932
-6.22388e-06
0.000314422
-5.95203e-06
0.000315844
-5.67749e-06
0.000317196
-5.40043e-06
0.000318478
-5.12107e-06
0.00031969
-4.83958e-06
0.00032083
-4.55617e-06
0.000321899
-4.27104e-06
0.000322896
-3.98441e-06
0.000323821
-3.69647e-06
0.000324674
-3.40744e-06
0.000325454
-3.11752e-06
0.000326161
-2.82694e-06
0.000326795
-2.53589e-06
0.000327357
-2.2446e-06
0.000327845
-1.95327e-06
0.00032826
-1.66212e-06
0.000328602
-1.37135e-06
0.000328872
-1.08116e-06
0.000329069
-7.91765e-07
0.000329194
-5.03359e-07
0.000329247
-2.1614e-07
0.000329228
6.9698e-08
0.000329138
3.53967e-07
0.000328977
6.36482e-07
0.000328746
9.17063e-07
0.000328445
1.19554e-06
0.000328075
1.47173e-06
0.000327636
1.74549e-06
0.00032713
2.01664e-06
0.000326556
2.28505e-06
0.000325916
2.55056e-06
0.00032521
2.81304e-06
0.000324439
3.07235e-06
0.000323604
3.32837e-06
0.000322705
3.58099e-06
0.000321745
3.83008e-06
0.000320723
4.07555e-06
0.00031964
4.31729e-06
0.000318498
4.55523e-06
0.000317297
4.78926e-06
0.000316039
5.01933e-06
0.000314724
5.24535e-06
0.000313353
5.46727e-06
0.000311928
5.68503e-06
0.00031045
5.89857e-06
0.000308919
6.10787e-06
0.000307337
6.31288e-06
0.000305705
6.51357e-06
0.000304024
6.70992e-06
0.000302294
6.90192e-06
0.000300518
7.08954e-06
0.000298696
7.27278e-06
0.000296829
7.45165e-06
0.000294919
7.62615e-06
0.000292966
7.79628e-06
0.000290972
7.96207e-06
0.000288937
8.12352e-06
0.000286863
8.28067e-06
0.000284751
8.43355e-06
0.000282602
8.58217e-06
0.000280417
8.72659e-06
0.000278196
8.86684e-06
0.000275942
9.00296e-06
0.000273655
9.135e-06
0.000271336
9.263e-06
0.000268985
9.38702e-06
0.000266605
9.50712e-06
0.000264196
9.62334e-06
0.000261759
9.73576e-06
0.000259295
9.84442e-06
0.000256804
9.94939e-06
0.000254288
1.00507e-05
0.000251748
1.01485e-05
0.000249184
1.02428e-05
0.000246598
1.03337e-05
0.00024399
1.04212e-05
0.000241361
1.05055e-05
0.000238711
1.05865e-05
0.000236042
1.06644e-05
0.000233355
1.07392e-05
0.00023065
1.0811e-05
0.000227927
1.08799e-05
0.000225188
1.09459e-05
0.000222434
1.10092e-05
0.000219664
1.10697e-05
0.00021688
1.11277e-05
0.000214082
1.1183e-05
0.000211271
1.12359e-05
0.000208447
1.12863e-05
0.000205612
1.13344e-05
0.000202765
1.13802e-05
0.000199907
1.14238e-05
0.000197039
1.14652e-05
0.000194161
1.15046e-05
0.000191274
1.15419e-05
0.000188378
1.15773e-05
0.000185473
1.16109e-05
0.000182561
1.16426e-05
0.000179641
1.16726e-05
0.000176715
1.17009e-05
0.000173782
1.17275e-05
0.000170842
1.17526e-05
0.000167897
1.17762e-05
0.000164946
1.17983e-05
0.00016199
1.18191e-05
0.000159029
1.18385e-05
0.000156064
1.18566e-05
0.000153095
1.18735e-05
0.000150121
1.18893e-05
0.000147144
1.19039e-05
0.000144164
1.19174e-05
0.000141181
1.19299e-05
0.000138195
1.19415e-05
0.000135206
1.19521e-05
0.000132215
1.19618e-05
0.000129221
1.19707e-05
0.000126226
1.19788e-05
0.000123229
1.19861e-05
0.00012023
1.19927e-05
0.00011723
1.19987e-05
0.000114228
1.2004e-05
0.000111226
1.20088e-05
0.000108222
1.20129e-05
0.000105217
1.20166e-05
0.000102212
1.20198e-05
9.9206e-05
1.20225e-05
9.61995e-05
1.20248e-05
9.31925e-05
1.20267e-05
9.01851e-05
1.20282e-05
8.71775e-05
1.20294e-05
8.41697e-05
1.20303e-05
8.11617e-05
1.2031e-05
7.81537e-05
1.20313e-05
7.51457e-05
1.20315e-05
7.21376e-05
1.20315e-05
6.91297e-05
1.20312e-05
6.61219e-05
1.20309e-05
6.31142e-05
1.20304e-05
6.01066e-05
1.20297e-05
5.70993e-05
1.2029e-05
5.40922e-05
1.20282e-05
5.10853e-05
1.20274e-05
4.80787e-05
1.20265e-05
4.50723e-05
1.20256e-05
4.20661e-05
1.20247e-05
3.90602e-05
1.20237e-05
3.60545e-05
1.20228e-05
3.3049e-05
1.20219e-05
3.00438e-05
1.20211e-05
2.70388e-05
1.20203e-05
2.40339e-05
1.20195e-05
2.10293e-05
1.20188e-05
1.80248e-05
1.20182e-05
1.50204e-05
1.20177e-05
1.20162e-05
1.20172e-05
9.01207e-06
1.20169e-05
6.00801e-06
1.20166e-05
3.00399e-06
1.20164e-05
1.20163e-05
3.72437e-06
-1.86218e-05
7.44875e-06
-1.86217e-05
1.11731e-05
-1.86217e-05
1.48975e-05
-1.86217e-05
1.86219e-05
-1.86216e-05
2.23463e-05
-1.86215e-05
2.60707e-05
-1.86213e-05
2.9795e-05
-1.8621e-05
3.35194e-05
-1.86206e-05
3.72436e-05
-1.86201e-05
4.09678e-05
-1.86193e-05
4.46918e-05
-1.86184e-05
4.84156e-05
-1.86171e-05
5.21392e-05
-1.86156e-05
5.58625e-05
-1.86136e-05
5.95853e-05
-1.86113e-05
6.33077e-05
-1.86084e-05
6.70294e-05
-1.8605e-05
7.07504e-05
-1.8601e-05
7.44706e-05
-1.85962e-05
7.81898e-05
-1.85907e-05
8.19078e-05
-1.85844e-05
8.56245e-05
-1.85771e-05
8.93396e-05
-1.85688e-05
9.30529e-05
-1.85594e-05
9.67642e-05
-1.85488e-05
0.000100473
-1.85369e-05
0.00010418
-1.85235e-05
0.000107883
-1.85087e-05
0.000111584
-1.84923e-05
0.000115281
-1.84741e-05
0.000118974
-1.84541e-05
0.000122663
-1.84322e-05
0.000126347
-1.84082e-05
0.000130027
-1.83819e-05
0.0001337
-1.83534e-05
0.000137368
-1.83224e-05
0.000141029
-1.82888e-05
0.000144683
-1.82525e-05
0.000148329
-1.82134e-05
0.000151967
-1.81713e-05
0.000155596
-1.81261e-05
0.000159216
-1.80776e-05
0.000162825
-1.80258e-05
0.000166424
-1.79704e-05
0.00017001
-1.79113e-05
0.000173585
-1.78485e-05
0.000177146
-1.77817e-05
0.000180693
-1.77108e-05
0.000184226
-1.76357e-05
0.000187742
-1.75562e-05
0.000191242
-1.74722e-05
0.000194725
-1.73836e-05
0.000198189
-1.72902e-05
0.000201633
-1.71919e-05
0.000205057
-1.70886e-05
0.000208459
-1.69801e-05
0.000211839
-1.68664e-05
0.000215195
-1.67473e-05
0.000218526
-1.66227e-05
0.000221832
-1.64924e-05
0.00022511
-1.63565e-05
0.00022836
-1.62148e-05
0.000231581
-1.60672e-05
0.00023477
-1.59136e-05
0.000237929
-1.5754e-05
0.000241054
-1.55882e-05
0.000244144
-1.54162e-05
0.000247199
-1.5238e-05
0.000250218
-1.50535e-05
0.000253198
-1.48627e-05
0.000256139
-1.46655e-05
0.000259039
-1.44619e-05
0.000261897
-1.4252e-05
0.000264711
-1.40356e-05
0.000267482
-1.38129e-05
0.000270206
-1.35838e-05
0.000272883
-1.33483e-05
0.000275512
-1.31066e-05
0.000278091
-1.28586e-05
0.000280619
-1.26044e-05
0.000283095
-1.23441e-05
0.000285518
-1.20777e-05
0.000287886
-1.18054e-05
0.000290198
-1.15273e-05
0.000292454
-1.12434e-05
0.000294651
-1.09539e-05
0.000296789
-1.0659e-05
0.000298867
-1.03587e-05
0.000300884
-1.00532e-05
0.000302838
-9.74277e-06
0.000304729
-9.42748e-06
0.000306556
-9.10754e-06
0.000308318
-8.78314e-06
0.000310013
-8.45449e-06
0.000311642
-8.12178e-06
0.000313204
-7.78524e-06
0.000314697
-7.44509e-06
0.000316121
-7.10156e-06
0.000317475
-6.75488e-06
0.00031876
-6.4053e-06
0.000319973
-6.05307e-06
0.000321115
-5.69843e-06
0.000322186
-5.34163e-06
0.000323184
-4.98295e-06
0.000324111
-4.62263e-06
0.000324964
-4.26095e-06
0.000325745
-3.89816e-06
0.000326452
-3.53453e-06
0.000327087
-3.17033e-06
0.000327648
-2.80582e-06
0.000328136
-2.44127e-06
0.000328551
-2.07694e-06
0.000328893
-1.71309e-06
0.000329161
-1.34997e-06
0.000329357
-9.87853e-07
0.000329481
-6.26977e-07
0.000329533
-2.67593e-07
0.000329512
9.00591e-08
0.00032942
4.45741e-07
0.000329258
7.99221e-07
0.000329024
1.15027e-06
0.000328721
1.49868e-06
0.000328349
1.84423e-06
0.000327908
2.18672e-06
0.000327398
2.52595e-06
0.000326822
2.86173e-06
0.000326178
3.19388e-06
0.000325469
3.52223e-06
0.000324695
3.8466e-06
0.000323856
4.16685e-06
0.000322954
4.48283e-06
0.00032199
4.79439e-06
0.000320964
5.1014e-06
0.000319878
5.40376e-06
0.000318732
5.70133e-06
0.000317527
5.99402e-06
0.000316265
6.28173e-06
0.000314946
6.56437e-06
0.000313571
6.84188e-06
0.000312142
7.11417e-06
0.000310659
7.38118e-06
0.000309124
7.64287e-06
0.000307538
7.89919e-06
0.000305901
8.1501e-06
0.000304216
8.39557e-06
0.000302482
8.63558e-06
0.000300701
8.87012e-06
0.000298875
9.09918e-06
0.000297004
9.32276e-06
0.000295089
9.54086e-06
0.000293132
9.7535e-06
0.000291133
9.9607e-06
0.000289094
1.01625e-05
0.000287016
1.03589e-05
0.0002849
1.05499e-05
0.000282747
1.07356e-05
0.000280557
1.09161e-05
0.000278333
1.10913e-05
0.000276074
1.12613e-05
0.000273783
1.14263e-05
0.00027146
1.15862e-05
0.000269106
1.17411e-05
0.000266722
1.18912e-05
0.000264309
1.20363e-05
0.000261868
1.21767e-05
0.0002594
1.23124e-05
0.000256905
1.24435e-05
0.000254386
1.25701e-05
0.000251842
1.26922e-05
0.000249275
1.281e-05
0.000246686
1.29234e-05
0.000244074
1.30327e-05
0.000241442
1.31379e-05
0.000238789
1.3239e-05
0.000236117
1.33362e-05
0.000233427
1.34296e-05
0.000230719
1.35192e-05