/*--------------------------------*- C++ -*----------------------------------*\
| =========                 |                                                 |
| \\      /  F ield         | OpenFOAM: The Open Source CFD Toolbox           |
|  \\    /   O peration     | Version:  v2012                                 |
|   \\  /    A nd           | Website:  www.openfoam.com                      |
|    \\/     M anipulation  |                                                 |
\*---------------------------------------------------------------------------*/
FoamFile
{
    version     2.0;
    format      ascii;
    class       volVectorField;
    location    "8.25";
    object      Psi;
}
// * * * * * * * * * * * * * * * * * * * * * * * * * * * * * * * * * * * * * //

dimensions      [0 2 -1 0 0 0 0];


internalField   nonuniform List<vector> 
65536
(
(0 0 9.31078e-06)
(0 0 2.79323e-05)
(0 0 4.65539e-05)
(0 0 6.51753e-05)
(0 0 8.37967e-05)
(0 0 0.000102418)
(0 0 0.000121039)
(0 0 0.00013966)
(0 0 0.00015828)
(0 0 0.000176899)
(0 0 0.000195518)
(0 0 0.000214136)
(0 0 0.000232753)
(0 0 0.000251368)
(0 0 0.000269981)
(0 0 0.000288592)
(0 0 0.0003072)
(0 0 0.000325804)
(0 0 0.000344405)
(0 0 0.000363001)
(0 0 0.000381591)
(0 0 0.000400176)
(0 0 0.000418753)
(0 0 0.000437322)
(0 0 0.000455883)
(0 0 0.000474432)
(0 0 0.00049297)
(0 0 0.000511496)
(0 0 0.000530007)
(0 0 0.000548501)
(0 0 0.000566979)
(0 0 0.000585436)
(0 0 0.000603873)
(0 0 0.000622285)
(0 0 0.000640673)
(0 0 0.000659033)
(0 0 0.000677362)
(0 0 0.000695659)
(0 0 0.00071392)
(0 0 0.000732143)
(0 0 0.000750325)
(0 0 0.000768463)
(0 0 0.000786554)
(0 0 0.000804594)
(0 0 0.00082258)
(0 0 0.000840509)
(0 0 0.000858376)
(0 0 0.000876178)
(0 0 0.00089391)
(0 0 0.000911569)
(0 0 0.00092915)
(0 0 0.000946649)
(0 0 0.000964061)
(0 0 0.000981382)
(0 0 0.000998607)
(0 0 0.00101573)
(0 0 0.00103275)
(0 0 0.00104965)
(0 0 0.00106644)
(0 0 0.00108311)
(0 0 0.00109965)
(0 0 0.00111605)
(0 0 0.00113232)
(0 0 0.00114844)
(0 0 0.00116441)
(0 0 0.00118023)
(0 0 0.00119588)
(0 0 0.00121136)
(0 0 0.00122667)
(0 0 0.00124179)
(0 0 0.00125673)
(0 0 0.00127147)
(0 0 0.00128602)
(0 0 0.00130035)
(0 0 0.00131447)
(0 0 0.00132838)
(0 0 0.00134206)
(0 0 0.0013555)
(0 0 0.00136871)
(0 0 0.00138167)
(0 0 0.00139439)
(0 0 0.00140684)
(0 0 0.00141903)
(0 0 0.00143096)
(0 0 0.0014426)
(0 0 0.00145397)
(0 0 0.00146505)
(0 0 0.00147584)
(0 0 0.00148634)
(0 0 0.00149653)
(0 0 0.00150641)
(0 0 0.00151598)
(0 0 0.00152523)
(0 0 0.00153417)
(0 0 0.00154277)
(0 0 0.00155105)
(0 0 0.00155899)
(0 0 0.0015666)
(0 0 0.00157386)
(0 0 0.00158078)
(0 0 0.00158736)
(0 0 0.00159358)
(0 0 0.00159945)
(0 0 0.00160497)
(0 0 0.00161012)
(0 0 0.00161492)
(0 0 0.00161936)
(0 0 0.00162344)
(0 0 0.00162716)
(0 0 0.00163051)
(0 0 0.0016335)
(0 0 0.00163613)
(0 0 0.00163839)
(0 0 0.00164029)
(0 0 0.00164183)
(0 0 0.001643)
(0 0 0.00164382)
(0 0 0.00164427)
(0 0 0.00164437)
(0 0 0.00164411)
(0 0 0.0016435)
(0 0 0.00164253)
(0 0 0.00164122)
(0 0 0.00163956)
(0 0 0.00163756)
(0 0 0.00163521)
(0 0 0.00163253)
(0 0 0.00162952)
(0 0 0.00162618)
(0 0 0.00162251)
(0 0 0.00161852)
(0 0 0.00161421)
(0 0 0.00160958)
(0 0 0.00160465)
(0 0 0.00159942)
(0 0 0.00159388)
(0 0 0.00158805)
(0 0 0.00158193)
(0 0 0.00157553)
(0 0 0.00156884)
(0 0 0.00156188)
(0 0 0.00155465)
(0 0 0.00154716)
(0 0 0.00153941)
(0 0 0.0015314)
(0 0 0.00152315)
(0 0 0.00151465)
(0 0 0.00150592)
(0 0 0.00149695)
(0 0 0.00148776)
(0 0 0.00147834)
(0 0 0.00146871)
(0 0 0.00145888)
(0 0 0.00144883)
(0 0 0.00143859)
(0 0 0.00142815)
(0 0 0.00141753)
(0 0 0.00140672)
(0 0 0.00139573)
(0 0 0.00138457)
(0 0 0.00137324)
(0 0 0.00136175)
(0 0 0.0013501)
(0 0 0.0013383)
(0 0 0.00132635)
(0 0 0.00131426)
(0 0 0.00130203)
(0 0 0.00128967)
(0 0 0.00127717)
(0 0 0.00126456)
(0 0 0.00125182)
(0 0 0.00123897)
(0 0 0.001226)
(0 0 0.00121293)
(0 0 0.00119975)
(0 0 0.00118647)
(0 0 0.0011731)
(0 0 0.00115964)
(0 0 0.00114609)
(0 0 0.00113245)
(0 0 0.00111873)
(0 0 0.00110494)
(0 0 0.00109107)
(0 0 0.00107713)
(0 0 0.00106312)
(0 0 0.00104905)
(0 0 0.00103491)
(0 0 0.00102072)
(0 0 0.00100647)
(0 0 0.000992169)
(0 0 0.000977815)
(0 0 0.000963414)
(0 0 0.000948967)
(0 0 0.000934477)
(0 0 0.000919946)
(0 0 0.000905376)
(0 0 0.00089077)
(0 0 0.000876129)
(0 0 0.000861456)
(0 0 0.000846752)
(0 0 0.00083202)
(0 0 0.000817261)
(0 0 0.000802476)
(0 0 0.000787668)
(0 0 0.000772838)
(0 0 0.000757987)
(0 0 0.000743117)
(0 0 0.00072823)
(0 0 0.000713326)
(0 0 0.000698407)
(0 0 0.000683475)
(0 0 0.000668529)
(0 0 0.000653572)
(0 0 0.000638604)
(0 0 0.000623626)
(0 0 0.00060864)
(0 0 0.000593645)
(0 0 0.000578644)
(0 0 0.000563636)
(0 0 0.000548622)
(0 0 0.000533604)
(0 0 0.000518581)
(0 0 0.000503555)
(0 0 0.000488525)
(0 0 0.000473493)
(0 0 0.000458458)
(0 0 0.000443422)
(0 0 0.000428384)
(0 0 0.000413345)
(0 0 0.000398306)
(0 0 0.000383266)
(0 0 0.000368227)
(0 0 0.000353187)
(0 0 0.000338148)
(0 0 0.000323109)
(0 0 0.000308071)
(0 0 0.000293033)
(0 0 0.000277997)
(0 0 0.000262961)
(0 0 0.000247927)
(0 0 0.000232894)
(0 0 0.000217862)
(0 0 0.000202831)
(0 0 0.000187801)
(0 0 0.000172772)
(0 0 0.000157744)
(0 0 0.000142718)
(0 0 0.000127692)
(0 0 0.000112667)
(0 0 9.76432e-05)
(0 0 8.26199e-05)
(0 0 6.75972e-05)
(0 0 5.25751e-05)
(0 0 3.75533e-05)
(0 0 2.25319e-05)
(0 0 7.51061e-06)
(0 0 2.79324e-05)
(0 0 8.3797e-05)
(0 0 0.000139662)
(0 0 0.000195526)
(0 0 0.00025139)
(0 0 0.000307254)
(0 0 0.000363117)
(0 0 0.000418979)
(0 0 0.00047484)
(0 0 0.000530699)
(0 0 0.000586556)
(0 0 0.00064241)
(0 0 0.00069826)
(0 0 0.000754105)
(0 0 0.000809945)
(0 0 0.000865778)
(0 0 0.000921602)
(0 0 0.000977416)
(0 0 0.00103322)
(0 0 0.00108901)
(0 0 0.00114478)
(0 0 0.00120053)
(0 0 0.00125627)
(0 0 0.00131198)
(0 0 0.00136766)
(0 0 0.00142331)
(0 0 0.00147892)
(0 0 0.0015345)
(0 0 0.00159004)
(0 0 0.00164552)
(0 0 0.00170095)
(0 0 0.00175633)
(0 0 0.00181164)
(0 0 0.00186688)
(0 0 0.00192205)
(0 0 0.00197713)
(0 0 0.00203212)
(0 0 0.00208701)
(0 0 0.0021418)
(0 0 0.00219647)
(0 0 0.00225102)
(0 0 0.00230544)
(0 0 0.00235971)
(0 0 0.00241384)
(0 0 0.0024678)
(0 0 0.00252159)
(0 0 0.00257519)
(0 0 0.0026286)
(0 0 0.0026818)
(0 0 0.00273478)
(0 0 0.00278753)
(0 0 0.00284003)
(0 0 0.00289228)
(0 0 0.00294424)
(0 0 0.00299592)
(0 0 0.0030473)
(0 0 0.00309835)
(0 0 0.00314908)
(0 0 0.00319945)
(0 0 0.00324945)
(0 0 0.00329908)
(0 0 0.0033483)
(0 0 0.0033971)
(0 0 0.00344547)
(0 0 0.00349339)
(0 0 0.00354084)
(0 0 0.0035878)
(0 0 0.00363425)
(0 0 0.00368018)
(0 0 0.00372556)
(0 0 0.00377038)
(0 0 0.00381462)
(0 0 0.00385825)
(0 0 0.00390127)
(0 0 0.00394364)
(0 0 0.00398536)
(0 0 0.0040264)
(0 0 0.00406675)
(0 0 0.00410637)
(0 0 0.00414527)
(0 0 0.00418341)
(0 0 0.00422078)
(0 0 0.00425736)
(0 0 0.00429314)
(0 0 0.00432809)
(0 0 0.0043622)
(0 0 0.00439545)
(0 0 0.00442782)
(0 0 0.00445931)
(0 0 0.00448988)
(0 0 0.00451954)
(0 0 0.00454826)
(0 0 0.00457602)
(0 0 0.00460283)
(0 0 0.00462865)
(0 0 0.00465348)
(0 0 0.00467732)
(0 0 0.00470014)
(0 0 0.00472193)
(0 0 0.0047427)
(0 0 0.00476242)
(0 0 0.00478109)
(0 0 0.0047987)
(0 0 0.00481525)
(0 0 0.00483073)
(0 0 0.00484513)
(0 0 0.00485845)
(0 0 0.00487069)
(0 0 0.00488184)
(0 0 0.0048919)
(0 0 0.00490087)
(0 0 0.00490875)
(0 0 0.00491553)
(0 0 0.00492123)
(0 0 0.00492584)
(0 0 0.00492936)
(0 0 0.0049318)
(0 0 0.00493317)
(0 0 0.00493346)
(0 0 0.00493268)
(0 0 0.00493084)
(0 0 0.00492794)
(0 0 0.004924)
(0 0 0.00491902)
(0 0 0.00491301)
(0 0 0.00490597)
(0 0 0.00489793)
(0 0 0.00488889)
(0 0 0.00487885)
(0 0 0.00486784)
(0 0 0.00485586)
(0 0 0.00484293)
(0 0 0.00482906)
(0 0 0.00481426)
(0 0 0.00479855)
(0 0 0.00478194)
(0 0 0.00476445)
(0 0 0.00474608)
(0 0 0.00472686)
(0 0 0.0047068)
(0 0 0.00468592)
(0 0 0.00466422)
(0 0 0.00464174)
(0 0 0.00461847)
(0 0 0.00459445)
(0 0 0.00456968)
(0 0 0.00454419)
(0 0 0.00451798)
(0 0 0.00449107)
(0 0 0.00446349)
(0 0 0.00443524)
(0 0 0.00440635)
(0 0 0.00437683)
(0 0 0.00434669)
(0 0 0.00431596)
(0 0 0.00428464)
(0 0 0.00425276)
(0 0 0.00422033)
(0 0 0.00418736)
(0 0 0.00415388)
(0 0 0.00411989)
(0 0 0.00408541)
(0 0 0.00405046)
(0 0 0.00401505)
(0 0 0.0039792)
(0 0 0.00394292)
(0 0 0.00390623)
(0 0 0.00386913)
(0 0 0.00383165)
(0 0 0.00379379)
(0 0 0.00375557)
(0 0 0.00371701)
(0 0 0.0036781)
(0 0 0.00363888)
(0 0 0.00359935)
(0 0 0.00355951)
(0 0 0.0035194)
(0 0 0.003479)
(0 0 0.00343834)
(0 0 0.00339743)
(0 0 0.00335627)
(0 0 0.00331489)
(0 0 0.00327327)
(0 0 0.00323145)
(0 0 0.00318942)
(0 0 0.0031472)
(0 0 0.0031048)
(0 0 0.00306222)
(0 0 0.00301947)
(0 0 0.00297656)
(0 0 0.00293349)
(0 0 0.00289029)
(0 0 0.00284694)
(0 0 0.00280347)
(0 0 0.00275988)
(0 0 0.00271617)
(0 0 0.00267234)
(0 0 0.00262842)
(0 0 0.0025844)
(0 0 0.00254029)
(0 0 0.00249609)
(0 0 0.00245181)
(0 0 0.00240745)
(0 0 0.00236303)
(0 0 0.00231853)
(0 0 0.00227398)
(0 0 0.00222937)
(0 0 0.00218471)
(0 0 0.00213999)
(0 0 0.00209524)
(0 0 0.00205044)
(0 0 0.0020056)
(0 0 0.00196073)
(0 0 0.00191582)
(0 0 0.00187089)
(0 0 0.00182593)
(0 0 0.00178094)
(0 0 0.00173594)
(0 0 0.00169091)
(0 0 0.00164587)
(0 0 0.00160082)
(0 0 0.00155575)
(0 0 0.00151067)
(0 0 0.00146558)
(0 0 0.00142048)
(0 0 0.00137538)
(0 0 0.00133027)
(0 0 0.00128515)
(0 0 0.00124004)
(0 0 0.00119492)
(0 0 0.0011498)
(0 0 0.00110468)
(0 0 0.00105956)
(0 0 0.00101444)
(0 0 0.000969325)
(0 0 0.000924211)
(0 0 0.000879098)
(0 0 0.000833989)
(0 0 0.000788883)
(0 0 0.00074378)
(0 0 0.00069868)
(0 0 0.000653583)
(0 0 0.00060849)
(0 0 0.000563401)
(0 0 0.000518315)
(0 0 0.000473232)
(0 0 0.000428152)
(0 0 0.000383075)
(0 0 0.000338001)
(0 0 0.000292929)
(0 0 0.000247859)
(0 0 0.000202791)
(0 0 0.000157725)
(0 0 0.00011266)
(0 0 6.75955e-05)
(0 0 2.25318e-05)
(0 0 4.6554e-05)
(0 0 0.000139662)
(0 0 0.00023277)
(0 0 0.000325877)
(0 0 0.000418984)
(0 0 0.000512091)
(0 0 0.000605196)
(0 0 0.0006983)
(0 0 0.000791402)
(0 0 0.000884501)
(0 0 0.000977596)
(0 0 0.00107069)
(0 0 0.00116377)
(0 0 0.00125685)
(0 0 0.00134992)
(0 0 0.00144297)
(0 0 0.00153601)
(0 0 0.00162904)
(0 0 0.00172205)
(0 0 0.00181503)
(0 0 0.00190799)
(0 0 0.00200091)
(0 0 0.00209381)
(0 0 0.00218666)
(0 0 0.00227946)
(0 0 0.00237222)
(0 0 0.00246492)
(0 0 0.00255755)
(0 0 0.00265011)
(0 0 0.00274259)
(0 0 0.00283499)
(0 0 0.00292729)
(0 0 0.00301948)
(0 0 0.00311155)
(0 0 0.0032035)
(0 0 0.00329531)
(0 0 0.00338697)
(0 0 0.00347847)
(0 0 0.00356979)
(0 0 0.00366092)
(0 0 0.00375185)
(0 0 0.00384255)
(0 0 0.00393302)
(0 0 0.00402324)
(0 0 0.00411319)
(0 0 0.00420285)
(0 0 0.00429221)
(0 0 0.00438123)
(0 0 0.00446992)
(0 0 0.00455823)
(0 0 0.00464616)
(0 0 0.00473368)
(0 0 0.00482076)
(0 0 0.00490739)
(0 0 0.00499354)
(0 0 0.00507918)
(0 0 0.00516429)
(0 0 0.00524885)
(0 0 0.00533282)
(0 0 0.00541618)
(0 0 0.0054989)
(0 0 0.00558096)
(0 0 0.00566232)
(0 0 0.00574296)
(0 0 0.00582284)
(0 0 0.00590194)
(0 0 0.00598023)
(0 0 0.00605767)
(0 0 0.00613423)
(0 0 0.00620989)
(0 0 0.00628461)
(0 0 0.00635836)
(0 0 0.00643111)
(0 0 0.00650282)
(0 0 0.00657347)
(0 0 0.00664302)
(0 0 0.00671144)
(0 0 0.0067787)
(0 0 0.00684477)
(0 0 0.00690962)
(0 0 0.00697321)
(0 0 0.00703551)
(0 0 0.0070965)
(0 0 0.00715615)
(0 0 0.00721442)
(0 0 0.00727129)
(0 0 0.00732672)
(0 0 0.0073807)
(0 0 0.00743319)
(0 0 0.00748417)
(0 0 0.00753361)
(0 0 0.00758148)
(0 0 0.00762778)
(0 0 0.00767246)
(0 0 0.00771552)
(0 0 0.00775692)
(0 0 0.00779665)
(0 0 0.0078347)
(0 0 0.00787104)
(0 0 0.00790565)
(0 0 0.00793853)
(0 0 0.00796966)
(0 0 0.00799902)
(0 0 0.00802661)
(0 0 0.00805241)
(0 0 0.00807642)
(0 0 0.00809862)
(0 0 0.00811902)
(0 0 0.00813761)
(0 0 0.00815437)
(0 0 0.00816932)
(0 0 0.00818245)
(0 0 0.00819377)
(0 0 0.00820326)
(0 0 0.00821094)
(0 0 0.00821681)
(0 0 0.00822087)
(0 0 0.00822314)
(0 0 0.00822361)
(0 0 0.00822231)
(0 0 0.00821924)
(0 0 0.0082144)
(0 0 0.00820782)
(0 0 0.00819951)
(0 0 0.00818948)
(0 0 0.00817775)
(0 0 0.00816433)
(0 0 0.00814924)
(0 0 0.00813251)
(0 0 0.00811414)
(0 0 0.00809416)
(0 0 0.0080726)
(0 0 0.00804946)
(0 0 0.00802479)
(0 0 0.00799858)
(0 0 0.00797088)
(0 0 0.00794171)
(0 0 0.00791108)
(0 0 0.00787903)
(0 0 0.00784558)
(0 0 0.00781076)
(0 0 0.00777459)
(0 0 0.00773709)
(0 0 0.0076983)
(0 0 0.00765825)
(0 0 0.00761695)
(0 0 0.00757443)
(0 0 0.00753074)
(0 0 0.00748588)
(0 0 0.00743989)
(0 0 0.00739279)
(0 0 0.00734462)
(0 0 0.0072954)
(0 0 0.00724515)
(0 0 0.00719391)
(0 0 0.0071417)
(0 0 0.00708854)
(0 0 0.00703447)
(0 0 0.00697951)
(0 0 0.00692368)
(0 0 0.00686702)
(0 0 0.00680954)
(0 0 0.00675128)
(0 0 0.00669225)
(0 0 0.00663248)
(0 0 0.006572)
(0 0 0.00651083)
(0 0 0.00644898)
(0 0 0.00638649)
(0 0 0.00632338)
(0 0 0.00625967)
(0 0 0.00619538)
(0 0 0.00613053)
(0 0 0.00606515)
(0 0 0.00599924)
(0 0 0.00593284)
(0 0 0.00586596)
(0 0 0.00579863)
(0 0 0.00573085)
(0 0 0.00566265)
(0 0 0.00559405)
(0 0 0.00552506)
(0 0 0.00545569)
(0 0 0.00538598)
(0 0 0.00531592)
(0 0 0.00524555)
(0 0 0.00517486)
(0 0 0.00510388)
(0 0 0.00503262)
(0 0 0.00496109)
(0 0 0.00488932)
(0 0 0.0048173)
(0 0 0.00474505)
(0 0 0.00467259)
(0 0 0.00459992)
(0 0 0.00452706)
(0 0 0.00445402)
(0 0 0.00438081)
(0 0 0.00430743)
(0 0 0.0042339)
(0 0 0.00416023)
(0 0 0.00408643)
(0 0 0.0040125)
(0 0 0.00393845)
(0 0 0.00386429)
(0 0 0.00379003)
(0 0 0.00371567)
(0 0 0.00364123)
(0 0 0.00356671)
(0 0 0.00349211)
(0 0 0.00341744)
(0 0 0.0033427)
(0 0 0.00326791)
(0 0 0.00319307)
(0 0 0.00311817)
(0 0 0.00304324)
(0 0 0.00296826)
(0 0 0.00289325)
(0 0 0.00281821)
(0 0 0.00274314)
(0 0 0.00266804)
(0 0 0.00259292)
(0 0 0.00251779)
(0 0 0.00244264)
(0 0 0.00236747)
(0 0 0.0022923)
(0 0 0.00221711)
(0 0 0.00214192)
(0 0 0.00206673)
(0 0 0.00199153)
(0 0 0.00191633)
(0 0 0.00184113)
(0 0 0.00176593)
(0 0 0.00169073)
(0 0 0.00161554)
(0 0 0.00154035)
(0 0 0.00146516)
(0 0 0.00138998)
(0 0 0.0013148)
(0 0 0.00123963)
(0 0 0.00116446)
(0 0 0.0010893)
(0 0 0.00101415)
(0 0 0.000938998)
(0 0 0.000863854)
(0 0 0.000788716)
(0 0 0.000713583)
(0 0 0.000638455)
(0 0 0.000563332)
(0 0 0.000488212)
(0 0 0.000413096)
(0 0 0.000337983)
(0 0 0.000262873)
(0 0 0.000187765)
(0 0 0.000112659)
(0 0 3.75527e-05)
(0 0 6.51756e-05)
(0 0 0.000195527)
(0 0 0.000325878)
(0 0 0.000456229)
(0 0 0.000586579)
(0 0 0.000716928)
(0 0 0.000847276)
(0 0 0.000977623)
(0 0 0.00110797)
(0 0 0.00123831)
(0 0 0.00136864)
(0 0 0.00149897)
(0 0 0.00162929)
(0 0 0.0017596)
(0 0 0.0018899)
(0 0 0.00202018)
(0 0 0.00215044)
(0 0 0.00228068)
(0 0 0.0024109)
(0 0 0.00254108)
(0 0 0.00267123)
(0 0 0.00280133)
(0 0 0.00293138)
(0 0 0.00306138)
(0 0 0.00319132)
(0 0 0.00332119)
(0 0 0.00345097)
(0 0 0.00358067)
(0 0 0.00371027)
(0 0 0.00383976)
(0 0 0.00396912)
(0 0 0.00409835)
(0 0 0.00422743)
(0 0 0.00435635)
(0 0 0.0044851)
(0 0 0.00461365)
(0 0 0.00474199)
(0 0 0.0048701)
(0 0 0.00499797)
(0 0 0.00512558)
(0 0 0.00525289)
(0 0 0.00537991)
(0 0 0.00550659)
(0 0 0.00563292)
(0 0 0.00575887)
(0 0 0.00588442)
(0 0 0.00600954)
(0 0 0.00613421)
(0 0 0.0062584)
(0 0 0.00638207)
(0 0 0.0065052)
(0 0 0.00662776)
(0 0 0.00674971)
(0 0 0.00687102)
(0 0 0.00699166)
(0 0 0.0071116)
(0 0 0.00723079)
(0 0 0.0073492)
(0 0 0.0074668)
(0 0 0.00758355)
(0 0 0.0076994)
(0 0 0.00781432)
(0 0 0.00792827)
(0 0 0.0080412)
(0 0 0.00815308)
(0 0 0.00826386)
(0 0 0.0083735)
(0 0 0.00848196)
(0 0 0.0085892)
(0 0 0.00869516)
(0 0 0.00879981)
(0 0 0.00890311)
(0 0 0.009005)
(0 0 0.00910544)
(0 0 0.00920439)
(0 0 0.00930181)
(0 0 0.00939764)
(0 0 0.00949185)
(0 0 0.00958439)
(0 0 0.00967522)
(0 0 0.00976429)
(0 0 0.00985156)
(0 0 0.00993699)
(0 0 0.0100205)
(0 0 0.0101022)
(0 0 0.0101818)
(0 0 0.0102595)
(0 0 0.0103351)
(0 0 0.0104086)
(0 0 0.01048)
(0 0 0.0105492)
(0 0 0.0106163)
(0 0 0.0106811)
(0 0 0.0107437)
(0 0 0.010804)
(0 0 0.010862)
(0 0 0.0109177)
(0 0 0.010971)
(0 0 0.0110219)
(0 0 0.0110703)
(0 0 0.0111164)
(0 0 0.01116)
(0 0 0.0112011)
(0 0 0.0112398)
(0 0 0.0112759)
(0 0 0.0113095)
(0 0 0.0113406)
(0 0 0.0113692)
(0 0 0.0113952)
(0 0 0.0114187)
(0 0 0.0114396)
(0 0 0.011458)
(0 0 0.0114738)
(0 0 0.0114871)
(0 0 0.0114978)
(0 0 0.0115061)
(0 0 0.0115117)
(0 0 0.0115149)
(0 0 0.0115156)
(0 0 0.0115137)
(0 0 0.0115094)
(0 0 0.0115026)
(0 0 0.0114934)
(0 0 0.0114817)
(0 0 0.0114677)
(0 0 0.0114512)
(0 0 0.0114324)
(0 0 0.0114112)
(0 0 0.0113878)
(0 0 0.011362)
(0 0 0.0113341)
(0 0 0.0113038)
(0 0 0.0112714)
(0 0 0.0112368)
(0 0 0.0112001)
(0 0 0.0111613)
(0 0 0.0111204)
(0 0 0.0110775)
(0 0 0.0110326)
(0 0 0.0109857)
(0 0 0.0109369)
(0 0 0.0108863)
(0 0 0.0108337)
(0 0 0.0107794)
(0 0 0.0107233)
(0 0 0.0106654)
(0 0 0.0106059)
(0 0 0.0105447)
(0 0 0.0104818)
(0 0 0.0104174)
(0 0 0.0103514)
(0 0 0.0102839)
(0 0 0.010215)
(0 0 0.0101446)
(0 0 0.0100728)
(0 0 0.00999969)
(0 0 0.00992524)
(0 0 0.00984951)
(0 0 0.00977252)
(0 0 0.00969433)
(0 0 0.00961497)
(0 0 0.00953447)
(0 0 0.00945286)
(0 0 0.00937019)
(0 0 0.00928648)
(0 0 0.00920177)
(0 0 0.00911609)
(0 0 0.00902948)
(0 0 0.00894196)
(0 0 0.00885358)
(0 0 0.00876435)
(0 0 0.00867432)
(0 0 0.0085835)
(0 0 0.00849193)
(0 0 0.00839964)
(0 0 0.00830665)
(0 0 0.00821299)
(0 0 0.00811869)
(0 0 0.00802378)
(0 0 0.00792828)
(0 0 0.00783221)
(0 0 0.0077356)
(0 0 0.00763847)
(0 0 0.00754084)
(0 0 0.00744275)
(0 0 0.0073442)
(0 0 0.00724521)
(0 0 0.00714582)
(0 0 0.00704604)
(0 0 0.00694589)
(0 0 0.00684538)
(0 0 0.00674454)
(0 0 0.00664337)
(0 0 0.00654191)
(0 0 0.00644016)
(0 0 0.00633814)
(0 0 0.00623587)
(0 0 0.00613336)
(0 0 0.00603062)
(0 0 0.00592767)
(0 0 0.00582451)
(0 0 0.00572118)
(0 0 0.00561766)
(0 0 0.00551398)
(0 0 0.00541015)
(0 0 0.00530617)
(0 0 0.00520207)
(0 0 0.00509784)
(0 0 0.00499349)
(0 0 0.00488905)
(0 0 0.0047845)
(0 0 0.00467987)
(0 0 0.00457515)
(0 0 0.00447036)
(0 0 0.0043655)
(0 0 0.00426059)
(0 0 0.00415561)
(0 0 0.00405059)
(0 0 0.00394553)
(0 0 0.00384042)
(0 0 0.00373529)
(0 0 0.00363012)
(0 0 0.00352493)
(0 0 0.00341971)
(0 0 0.00331448)
(0 0 0.00320923)
(0 0 0.00310397)
(0 0 0.0029987)
(0 0 0.00289343)
(0 0 0.00278815)
(0 0 0.00268287)
(0 0 0.00257758)
(0 0 0.0024723)
(0 0 0.00236702)
(0 0 0.00226175)
(0 0 0.00215648)
(0 0 0.00205122)
(0 0 0.00194596)
(0 0 0.00184071)
(0 0 0.00173547)
(0 0 0.00163024)
(0 0 0.00152501)
(0 0 0.0014198)
(0 0 0.00131459)
(0 0 0.00120939)
(0 0 0.0011042)
(0 0 0.00099901)
(0 0 0.000893831)
(0 0 0.000788659)
(0 0 0.000683492)
(0 0 0.00057833)
(0 0 0.000473173)
(0 0 0.00036802)
(0 0 0.000262869)
(0 0 0.000157721)
(0 0 5.25734e-05)
(0 0 8.37973e-05)
(0 0 0.000251392)
(0 0 0.000418986)
(0 0 0.000586581)
(0 0 0.000754174)
(0 0 0.000921767)
(0 0 0.00108936)
(0 0 0.00125695)
(0 0 0.00142453)
(0 0 0.00159212)
(0 0 0.00175969)
(0 0 0.00192726)
(0 0 0.00209482)
(0 0 0.00226237)
(0 0 0.0024299)
(0 0 0.00259741)
(0 0 0.0027649)
(0 0 0.00293235)
(0 0 0.00309978)
(0 0 0.00326717)
(0 0 0.00343451)
(0 0 0.00360179)
(0 0 0.00376902)
(0 0 0.00393617)
(0 0 0.00410325)
(0 0 0.00427024)
(0 0 0.00443712)
(0 0 0.00460389)
(0 0 0.00477054)
(0 0 0.00493704)
(0 0 0.00510339)
(0 0 0.00526956)
(0 0 0.00543555)
(0 0 0.00560133)
(0 0 0.00576689)
(0 0 0.00593219)
(0 0 0.00609724)
(0 0 0.00626199)
(0 0 0.00642642)
(0 0 0.00659052)
(0 0 0.00675425)
(0 0 0.00691759)
(0 0 0.0070805)
(0 0 0.00724297)
(0 0 0.00740495)
(0 0 0.00756642)
(0 0 0.00772734)
(0 0 0.00788767)
(0 0 0.00804739)
(0 0 0.00820645)
(0 0 0.00836481)
(0 0 0.00852244)
(0 0 0.00867929)
(0 0 0.00883532)
(0 0 0.00899049)
(0 0 0.00914476)
(0 0 0.00929807)
(0 0 0.00945038)
(0 0 0.00960164)
(0 0 0.00975181)
(0 0 0.00990083)
(0 0 0.0100486)
(0 0 0.0101952)
(0 0 0.0103405)
(0 0 0.0104844)
(0 0 0.0106269)
(0 0 0.010768)
(0 0 0.0109075)
(0 0 0.0110454)
(0 0 0.0111817)
(0 0 0.0113164)
(0 0 0.0114493)
(0 0 0.0115803)
(0 0 0.0117096)
(0 0 0.0118369)
(0 0 0.0119622)
(0 0 0.0120855)
(0 0 0.0122067)
(0 0 0.0123257)
(0 0 0.0124426)
(0 0 0.0125572)
(0 0 0.0126694)
(0 0 0.0127794)
(0 0 0.0128868)
(0 0 0.0129918)
(0 0 0.0130943)
(0 0 0.0131942)
(0 0 0.0132915)
(0 0 0.0133861)
(0 0 0.013478)
(0 0 0.0135671)
(0 0 0.0136533)
(0 0 0.0137368)
(0 0 0.0138173)
(0 0 0.0138949)
(0 0 0.0139695)
(0 0 0.0140411)
(0 0 0.0141096)
(0 0 0.0141751)
(0 0 0.0142375)
(0 0 0.0142967)
(0 0 0.0143528)
(0 0 0.0144057)
(0 0 0.0144554)
(0 0 0.0145019)
(0 0 0.0145451)
(0 0 0.0145851)
(0 0 0.0146219)
(0 0 0.0146553)
(0 0 0.0146855)
(0 0 0.0147124)
(0 0 0.0147361)
(0 0 0.0147564)
(0 0 0.0147735)
(0 0 0.0147873)
(0 0 0.0147978)
(0 0 0.0148051)
(0 0 0.0148092)
(0 0 0.01481)
(0 0 0.0148076)
(0 0 0.014802)
(0 0 0.0147933)
(0 0 0.0147814)
(0 0 0.0147663)
(0 0 0.0147482)
(0 0 0.014727)
(0 0 0.0147028)
(0 0 0.0146756)
(0 0 0.0146454)
(0 0 0.0146122)
(0 0 0.0145762)
(0 0 0.0145373)
(0 0 0.0144955)
(0 0 0.014451)
(0 0 0.0144037)
(0 0 0.0143538)
(0 0 0.0143012)
(0 0 0.0142459)
(0 0 0.0141881)
(0 0 0.0141278)
(0 0 0.014065)
(0 0 0.0139998)
(0 0 0.0139322)
(0 0 0.0138623)
(0 0 0.0137901)
(0 0 0.0137156)
(0 0 0.013639)
(0 0 0.0135602)
(0 0 0.0134793)
(0 0 0.0133964)
(0 0 0.0133116)
(0 0 0.0132247)
(0 0 0.013136)
(0 0 0.0130455)
(0 0 0.0129531)
(0 0 0.012859)
(0 0 0.0127632)
(0 0 0.0126658)
(0 0 0.0125667)
(0 0 0.0124662)
(0 0 0.0123641)
(0 0 0.0122605)
(0 0 0.0121555)
(0 0 0.0120492)
(0 0 0.0119415)
(0 0 0.0118325)
(0 0 0.0117223)
(0 0 0.0116109)
(0 0 0.0114983)
(0 0 0.0113846)
(0 0 0.0112698)
(0 0 0.011154)
(0 0 0.0110372)
(0 0 0.0109194)
(0 0 0.0108007)
(0 0 0.0106811)
(0 0 0.0105607)
(0 0 0.0104394)
(0 0 0.0103173)
(0 0 0.0101945)
(0 0 0.0100709)
(0 0 0.00994666)
(0 0 0.00982174)
(0 0 0.00969618)
(0 0 0.00957002)
(0 0 0.00944328)
(0 0 0.00931598)
(0 0 0.00918816)
(0 0 0.00905983)
(0 0 0.00893103)
(0 0 0.00880178)
(0 0 0.00867209)
(0 0 0.008542)
(0 0 0.00841152)
(0 0 0.00828067)
(0 0 0.00814948)
(0 0 0.00801796)
(0 0 0.00788613)
(0 0 0.00775402)
(0 0 0.00762163)
(0 0 0.00748898)
(0 0 0.0073561)
(0 0 0.00722299)
(0 0 0.00708967)
(0 0 0.00695615)
(0 0 0.00682245)
(0 0 0.00668858)
(0 0 0.00655456)
(0 0 0.00642039)
(0 0 0.00628608)
(0 0 0.00615165)
(0 0 0.00601711)
(0 0 0.00588246)
(0 0 0.00574772)
(0 0 0.0056129)
(0 0 0.00547799)
(0 0 0.00534302)
(0 0 0.00520798)
(0 0 0.00507289)
(0 0 0.00493775)
(0 0 0.00480256)
(0 0 0.00466734)
(0 0 0.00453208)
(0 0 0.0043968)
(0 0 0.0042615)
(0 0 0.00412617)
(0 0 0.00399083)
(0 0 0.00385549)
(0 0 0.00372013)
(0 0 0.00358476)
(0 0 0.0034494)
(0 0 0.00331403)
(0 0 0.00317867)
(0 0 0.00304331)
(0 0 0.00290796)
(0 0 0.00277261)
(0 0 0.00263727)
(0 0 0.00250194)
(0 0 0.00236662)
(0 0 0.00223131)
(0 0 0.00209601)
(0 0 0.00196072)
(0 0 0.00182544)
(0 0 0.00169017)
(0 0 0.00155491)
(0 0 0.00141967)
(0 0 0.00128443)
(0 0 0.0011492)
(0 0 0.00101398)
(0 0 0.000878767)
(0 0 0.00074356)
(0 0 0.000608359)
(0 0 0.000473163)
(0 0 0.000337971)
(0 0 0.000202782)
(0 0 6.75937e-05)
(0 0 0.000102419)
(0 0 0.000307257)
(0 0 0.000512095)
(0 0 0.000716933)
(0 0 0.000921771)
(0 0 0.00112661)
(0 0 0.00133144)
(0 0 0.00153628)
(0 0 0.00174111)
(0 0 0.00194593)
(0 0 0.00215075)
(0 0 0.00235556)
(0 0 0.00256036)
(0 0 0.00276515)
(0 0 0.00296991)
(0 0 0.00317466)
(0 0 0.00337937)
(0 0 0.00358406)
(0 0 0.0037887)
(0 0 0.0039933)
(0 0 0.00419784)
(0 0 0.00440232)
(0 0 0.00460672)
(0 0 0.00481104)
(0 0 0.00501527)
(0 0 0.00521939)
(0 0 0.00542338)
(0 0 0.00562724)
(0 0 0.00583094)
(0 0 0.00603448)
(0 0 0.00623783)
(0 0 0.00644096)
(0 0 0.00664388)
(0 0 0.00684654)
(0 0 0.00704892)
(0 0 0.00725101)
(0 0 0.00745277)
(0 0 0.00765418)
(0 0 0.00785521)
(0 0 0.00805582)
(0 0 0.008256)
(0 0 0.00845569)
(0 0 0.00865487)
(0 0 0.0088535)
(0 0 0.00905155)
(0 0 0.00924896)
(0 0 0.00944571)
(0 0 0.00964175)
(0 0 0.00983704)
(0 0 0.0100315)
(0 0 0.0102252)
(0 0 0.0104179)
(0 0 0.0106097)
(0 0 0.0108005)
(0 0 0.0109902)
(0 0 0.0111789)
(0 0 0.0113663)
(0 0 0.0115526)
(0 0 0.0117376)
(0 0 0.0119212)
(0 0 0.0121035)
(0 0 0.0122842)
(0 0 0.0124635)
(0 0 0.0126411)
(0 0 0.0128172)
(0 0 0.0129914)
(0 0 0.0131639)
(0 0 0.0133346)
(0 0 0.0135033)
(0 0 0.01367)
(0 0 0.0138347)
(0 0 0.0139972)
(0 0 0.0141575)
(0 0 0.0143156)
(0 0 0.0144713)
(0 0 0.0146246)
(0 0 0.0147754)
(0 0 0.0149236)
(0 0 0.0150693)
(0 0 0.0152122)
(0 0 0.0153524)
(0 0 0.0154897)
(0 0 0.0156242)
(0 0 0.0157556)
(0 0 0.0158841)
(0 0 0.0160094)
(0 0 0.0161316)
(0 0 0.0162506)
(0 0 0.0163663)
(0 0 0.0164787)
(0 0 0.0165877)
(0 0 0.0166932)
(0 0 0.0167953)
(0 0 0.0168938)
(0 0 0.0169887)
(0 0 0.0170799)
(0 0 0.0171675)
(0 0 0.0172514)
(0 0 0.0173314)
(0 0 0.0174077)
(0 0 0.0174802)
(0 0 0.0175488)
(0 0 0.0176135)
(0 0 0.0176743)
(0 0 0.0177311)
(0 0 0.017784)
(0 0 0.0178329)
(0 0 0.0178778)
(0 0 0.0179187)
(0 0 0.0179556)
(0 0 0.0179885)
(0 0 0.0180174)
(0 0 0.0180423)
(0 0 0.0180631)
(0 0 0.01808)
(0 0 0.0180929)
(0 0 0.0181017)
(0 0 0.0181067)
(0 0 0.0181076)
(0 0 0.0181047)
(0 0 0.0180978)
(0 0 0.0180871)
(0 0 0.0180725)
(0 0 0.018054)
(0 0 0.0180318)
(0 0 0.0180059)
(0 0 0.0179762)
(0 0 0.0179429)
(0 0 0.0179059)
(0 0 0.0178653)
(0 0 0.0178212)
(0 0 0.0177735)
(0 0 0.0177224)
(0 0 0.0176679)
(0 0 0.0176101)
(0 0 0.0175489)
(0 0 0.0174845)
(0 0 0.0174169)
(0 0 0.0173462)
(0 0 0.0172724)
(0 0 0.0171955)
(0 0 0.0171157)
(0 0 0.017033)
(0 0 0.0169474)
(0 0 0.0168591)
(0 0 0.016768)
(0 0 0.0166742)
(0 0 0.0165778)
(0 0 0.0164789)
(0 0 0.0163775)
(0 0 0.0162736)
(0 0 0.0161674)
(0 0 0.0160589)
(0 0 0.0159481)
(0 0 0.0158351)
(0 0 0.01572)
(0 0 0.0156029)
(0 0 0.0154837)
(0 0 0.0153625)
(0 0 0.0152395)
(0 0 0.0151146)
(0 0 0.0149879)
(0 0 0.0148595)
(0 0 0.0147295)
(0 0 0.0145978)
(0 0 0.0144645)
(0 0 0.0143297)
(0 0 0.0141934)
(0 0 0.0140558)
(0 0 0.0139167)
(0 0 0.0137764)
(0 0 0.0136347)
(0 0 0.0134919)
(0 0 0.0133479)
(0 0 0.0132027)
(0 0 0.0130565)
(0 0 0.0129092)
(0 0 0.0127609)
(0 0 0.0126116)
(0 0 0.0124614)
(0 0 0.0123103)
(0 0 0.0121584)
(0 0 0.0120056)
(0 0 0.0118521)
(0 0 0.0116979)
(0 0 0.0115429)
(0 0 0.0113873)
(0 0 0.011231)
(0 0 0.0110741)
(0 0 0.0109166)
(0 0 0.0107586)
(0 0 0.0106001)
(0 0 0.010441)
(0 0 0.0102815)
(0 0 0.0101215)
(0 0 0.00996114)
(0 0 0.00980036)
(0 0 0.0096392)
(0 0 0.00947769)
(0 0 0.00931585)
(0 0 0.00915369)
(0 0 0.00899125)
(0 0 0.00882853)
(0 0 0.00866555)
(0 0 0.00850234)
(0 0 0.0083389)
(0 0 0.00817526)
(0 0 0.00801142)
(0 0 0.00784741)
(0 0 0.00768324)
(0 0 0.00751892)
(0 0 0.00735446)
(0 0 0.00718987)
(0 0 0.00702517)
(0 0 0.00686037)
(0 0 0.00669547)
(0 0 0.00653048)
(0 0 0.00636543)
(0 0 0.0062003)
(0 0 0.00603511)
(0 0 0.00586988)
(0 0 0.00570459)
(0 0 0.00553927)
(0 0 0.00537392)
(0 0 0.00520854)
(0 0 0.00504313)
(0 0 0.00487771)
(0 0 0.00471228)
(0 0 0.00454683)
(0 0 0.00438138)
(0 0 0.00421593)
(0 0 0.00405048)
(0 0 0.00388503)
(0 0 0.00371959)
(0 0 0.00355416)
(0 0 0.00338873)
(0 0 0.00322331)
(0 0 0.00305791)
(0 0 0.00289251)
(0 0 0.00272713)
(0 0 0.00256177)
(0 0 0.00239641)
(0 0 0.00223107)
(0 0 0.00206575)
(0 0 0.00190043)
(0 0 0.00173513)
(0 0 0.00156984)
(0 0 0.00140456)
(0 0 0.00123929)
(0 0 0.00107403)
(0 0 0.000908784)
(0 0 0.000743541)
(0 0 0.000578303)
(0 0 0.00041307)
(0 0 0.000247841)
(0 0 8.26134e-05)
(0 0 0.000121041)
(0 0 0.000363122)
(0 0 0.000605204)
(0 0 0.000847286)
(0 0 0.00108937)
(0 0 0.00133145)
(0 0 0.00157353)
(0 0 0.00181561)
(0 0 0.00205768)
(0 0 0.00229976)
(0 0 0.00254182)
(0 0 0.00278388)
(0 0 0.00302592)
(0 0 0.00326795)
(0 0 0.00350995)
(0 0 0.00375194)
(0 0 0.00399389)
(0 0 0.0042358)
(0 0 0.00447767)
(0 0 0.00471949)
(0 0 0.00496124)
(0 0 0.00520292)
(0 0 0.00544451)
(0 0 0.00568601)
(0 0 0.0059274)
(0 0 0.00616866)
(0 0 0.00640978)
(0 0 0.00665074)
(0 0 0.00689152)
(0 0 0.00713211)
(0 0 0.00737247)
(0 0 0.00761259)
(0 0 0.00785245)
(0 0 0.00809201)
(0 0 0.00833126)
(0 0 0.00857015)
(0 0 0.00880866)
(0 0 0.00904676)
(0 0 0.00928441)
(0 0 0.00952157)
(0 0 0.00975822)
(0 0 0.0099943)
(0 0 0.0102298)
(0 0 0.0104646)
(0 0 0.0106988)
(0 0 0.0109322)
(0 0 0.0111648)
(0 0 0.0113966)
(0 0 0.0116275)
(0 0 0.0118574)
(0 0 0.0120864)
(0 0 0.0123143)
(0 0 0.0125411)
(0 0 0.0127667)
(0 0 0.0129911)
(0 0 0.0132141)
(0 0 0.0134358)
(0 0 0.0136561)
(0 0 0.0138748)
(0 0 0.014092)
(0 0 0.0143075)
(0 0 0.0145213)
(0 0 0.0147333)
(0 0 0.0149434)
(0 0 0.0151516)
(0 0 0.0153577)
(0 0 0.0155618)
(0 0 0.0157636)
(0 0 0.0159632)
(0 0 0.0161604)
(0 0 0.0163551)
(0 0 0.0165474)
(0 0 0.016737)
(0 0 0.016924)
(0 0 0.0171081)
(0 0 0.0172895)
(0 0 0.0174679)
(0 0 0.0176432)
(0 0 0.0178155)
(0 0 0.0179846)
(0 0 0.0181504)
(0 0 0.0183129)
(0 0 0.0184719)
(0 0 0.0186274)
(0 0 0.0187794)
(0 0 0.0189277)
(0 0 0.0190723)
(0 0 0.019213)
(0 0 0.0193499)
(0 0 0.0194828)
(0 0 0.0196118)
(0 0 0.0197366)
(0 0 0.0198573)
(0 0 0.0199739)
(0 0 0.0200861)
(0 0 0.0201941)
(0 0 0.0202977)
(0 0 0.0203969)
(0 0 0.0204916)
(0 0 0.0205818)
(0 0 0.0206675)
(0 0 0.0207487)
(0 0 0.0208252)
(0 0 0.0208971)
(0 0 0.0209643)
(0 0 0.0210268)
(0 0 0.0210847)
(0 0 0.0211378)
(0 0 0.0211861)
(0 0 0.0212298)
(0 0 0.0212687)
(0 0 0.0213028)
(0 0 0.0213322)
(0 0 0.0213568)
(0 0 0.0213767)
(0 0 0.0213919)
(0 0 0.0214023)
(0 0 0.0214081)
(0 0 0.0214092)
(0 0 0.0214057)
(0 0 0.0213975)
(0 0 0.0213847)
(0 0 0.0213674)
(0 0 0.0213456)
(0 0 0.0213192)
(0 0 0.0212885)
(0 0 0.0212533)
(0 0 0.0212138)
(0 0 0.02117)
(0 0 0.0211219)
(0 0 0.0210696)
(0 0 0.0210132)
(0 0 0.0209527)
(0 0 0.0208882)
(0 0 0.0208197)
(0 0 0.0207473)
(0 0 0.0206711)
(0 0 0.0205911)
(0 0 0.0205073)
(0 0 0.02042)
(0 0 0.020329)
(0 0 0.0202346)
(0 0 0.0201367)
(0 0 0.0200354)
(0 0 0.0199308)
(0 0 0.019823)
(0 0 0.019712)
(0 0 0.019598)
(0 0 0.0194809)
(0 0 0.0193609)
(0 0 0.0192381)
(0 0 0.0191124)
(0 0 0.018984)
(0 0 0.0188529)
(0 0 0.0187193)
(0 0 0.0185831)
(0 0 0.0184445)
(0 0 0.0183035)
(0 0 0.0181602)
(0 0 0.0180147)
(0 0 0.0178669)
(0 0 0.0177171)
(0 0 0.0175652)
(0 0 0.0174114)
(0 0 0.0172556)
(0 0 0.017098)
(0 0 0.0169386)
(0 0 0.0167774)
(0 0 0.0166146)
(0 0 0.0164502)
(0 0 0.0162842)
(0 0 0.0161167)
(0 0 0.0159478)
(0 0 0.0157774)
(0 0 0.0156058)
(0 0 0.0154328)
(0 0 0.0152587)
(0 0 0.0150833)
(0 0 0.0149068)
(0 0 0.0147292)
(0 0 0.0145506)
(0 0 0.0143709)
(0 0 0.0141903)
(0 0 0.0140088)
(0 0 0.0138264)
(0 0 0.0136432)
(0 0 0.0134592)
(0 0 0.0132744)
(0 0 0.013089)
(0 0 0.0129028)
(0 0 0.012716)
(0 0 0.0125285)
(0 0 0.0123405)
(0 0 0.0121519)
(0 0 0.0119628)
(0 0 0.0117732)
(0 0 0.0115831)
(0 0 0.0113926)
(0 0 0.0112017)
(0 0 0.0110104)
(0 0 0.0108187)
(0 0 0.0106267)
(0 0 0.0104343)
(0 0 0.0102417)
(0 0 0.0100487)