/*--------------------------------*- C++ -*----------------------------------*\
| =========                 |                                                 |
| \\      /  F ield         | OpenFOAM: The Open Source CFD Toolbox           |
|  \\    /   O peration     | Version:  v2012                                 |
|   \\  /    A nd           | Website:  www.openfoam.com                      |
|    \\/     M anipulation  |                                                 |
\*---------------------------------------------------------------------------*/
FoamFile
{
    version     2.0;
    format      ascii;
    class       volScalarField;
    location    "8.25";
    object      W;
}
// * * * * * * * * * * * * * * * * * * * * * * * * * * * * * * * * * * * * * //

dimensions      [0 0 -1 0 0 0 0];


internalField   nonuniform List<scalar> 
65536
(
4.08865e-18
4.20708e-18
4.509e-18
5.00301e-18
5.70447e-18
6.63585e-18
7.82732e-18
9.31754e-18
1.11548e-17
1.33983e-17
1.61197e-17
1.94053e-17
2.33578e-17
2.80994e-17
3.37748e-17
4.05546e-17
4.86396e-17
5.82655e-17
6.97087e-17
8.3292e-17
9.93924e-17
1.18449e-16
1.40973e-16
1.67557e-16
1.9889e-16
2.35766e-16
2.79106e-16
3.29969e-16
3.89578e-16
4.59336e-16
5.40854e-16
6.3598e-16
7.46823e-16
8.75797e-16
1.02565e-15
1.1995e-15
1.40092e-15
1.63391e-15
1.90305e-15
2.21348e-15
2.57102e-15
2.98219e-15
3.45435e-15
3.99573e-15
4.61556e-15
5.32415e-15
6.13298e-15
7.05485e-15
8.10396e-15
9.29607e-15
1.06486e-14
1.21808e-14
1.39139e-14
1.58711e-14
1.80781e-14
2.05629e-14
2.3356e-14
2.64909e-14
3.00037e-14
3.39339e-14
3.83239e-14
4.32199e-14
4.86714e-14
5.47316e-14
6.14575e-14
6.89101e-14
7.71544e-14
8.62594e-14
9.62983e-14
1.07348e-13
1.19491e-13
1.32812e-13
1.474e-13
1.63348e-13
1.80753e-13
1.99715e-13
2.20337e-13
2.42724e-13
2.66982e-13
2.93222e-13
3.21552e-13
3.52081e-13
3.8492e-13
4.20174e-13
4.57949e-13
4.98345e-13
5.41458e-13
5.87378e-13
6.36186e-13
6.87956e-13
7.4275e-13
8.00619e-13
8.616e-13
9.25713e-13
9.92963e-13
1.06333e-12
1.13679e-12
1.21328e-12
1.29272e-12
1.375e-12
1.45999e-12
1.54752e-12
1.63741e-12
1.72944e-12
1.82334e-12
1.91885e-12
2.01563e-12
2.11335e-12
2.21163e-12
2.31005e-12
2.40818e-12
2.50555e-12
2.60168e-12
2.69604e-12
2.78811e-12
2.87734e-12
2.96316e-12
3.04501e-12
3.12232e-12
3.19453e-12
3.26107e-12
3.3214e-12
3.375e-12
3.42137e-12
3.46007e-12
3.49065e-12
3.51277e-12
3.52609e-12
3.53036e-12
3.52539e-12
3.51104e-12
3.48727e-12
3.4541e-12
3.41165e-12
3.36009e-12
3.29968e-12
3.23079e-12
3.15384e-12
3.06932e-12
2.97781e-12
2.87996e-12
2.77645e-12
2.66803e-12
2.55551e-12
2.43971e-12
2.32149e-12
2.20171e-12
2.08125e-12
1.96099e-12
1.84177e-12
1.72442e-12
1.60976e-12
1.49853e-12
1.39145e-12
1.28916e-12
1.19226e-12
1.10129e-12
1.01669e-12
9.38854e-13
8.68104e-13
8.0468e-13
7.48752e-13
7.00417e-13
6.59703e-13
6.26566e-13
6.00895e-13
5.82516e-13
5.71187e-13
5.66607e-13
5.68415e-13
5.76191e-13
5.89463e-13
6.07705e-13
6.30342e-13
6.56753e-13
6.8628e-13
7.18225e-13
7.51865e-13
7.86455e-13
8.21238e-13
8.55455e-13
8.88358e-13
9.19217e-13
9.47338e-13
9.72073e-13
9.92835e-13
1.00911e-12
1.02045e-12
1.02654e-12
1.02711e-12
1.02205e-12
1.01132e-12
9.95017e-13
9.73322e-13
9.46531e-13
9.15026e-13
8.79275e-13
8.3981e-13
7.97219e-13
7.52124e-13
7.05172e-13
6.57008e-13
6.0827e-13
5.59567e-13
5.11466e-13
4.64487e-13
4.19085e-13
3.75652e-13
3.34509e-13
2.95904e-13
2.60016e-13
2.26954e-13
1.96766e-13
1.69443e-13
1.44925e-13
1.2311e-13
1.03864e-13
8.70243e-14
7.2412e-14
5.9836e-14
4.91003e-14
4.00096e-14
3.23737e-14
2.6011e-14
2.07515e-14
1.64383e-14
1.29293e-14
1.00969e-14
7.82869e-15
6.02658e-15
4.60599e-15
3.49493e-15
2.63274e-15
1.96891e-15
1.46177e-15
1.07737e-15
7.88274e-16
5.72538e-16
4.12801e-16
2.95447e-16
2.09901e-16
1.48027e-16
1.03621e-16
7.2e-17
4.96581e-17
3.39952e-17
2.31004e-17
1.5582e-17
1.04352e-17
6.94142e-18
4.59194e-18
3.03027e-18
2.01016e-18
1.3649e-18
9.85701e-19
8.06997e-19
5.90189e-18
6.07243e-18
6.50761e-18
7.21977e-18
8.231e-18
9.57361e-18
1.1291e-17
1.34388e-17
1.60864e-17
1.9319e-17
2.32397e-17
2.79723e-17
3.36645e-17
4.04919e-17
4.86623e-17
5.84204e-17
7.00546e-17
8.3903e-17
1.00361e-16
1.19893e-16
1.43038e-16
1.70424e-16
2.02783e-16
2.40964e-16
2.85948e-16
3.38873e-16
4.01052e-16
4.73996e-16
5.59446e-16
6.59403e-16
7.76158e-16
9.12337e-16
1.07094e-15
1.25539e-15
1.46957e-15
1.71793e-15
2.00547e-15
2.3379e-15
2.72165e-15
3.16396e-15
3.67302e-15
4.25801e-15
4.92925e-15
5.69826e-15
6.57796e-15
7.58273e-15
8.72859e-15
1.00333e-14
1.15167e-14
1.32004e-14
1.51087e-14
1.72681e-14
1.97076e-14
2.24595e-14
2.55585e-14
2.90431e-14
3.29549e-14
3.7339e-14
4.22447e-14
4.77251e-14
5.38373e-14
6.06431e-14
6.82085e-14
7.66045e-14
8.59065e-14
9.6195e-14
1.07555e-13
1.20078e-13
1.33858e-13
1.48995e-13
1.65594e-13
1.83765e-13
2.03621e-13
2.2528e-13
2.48863e-13
2.74496e-13
3.02304e-13
3.32417e-13
3.64965e-13
4.0008e-13
4.37892e-13
4.7853e-13
5.22119e-13
5.68783e-13
6.18638e-13
6.71795e-13
7.28356e-13
7.88414e-13
8.52049e-13
9.1933e-13
9.90307e-13
1.06502e-12
1.14348e-12
1.22568e-12
1.3116e-12
1.40119e-12
1.49436e-12
1.591e-12
1.69099e-12
1.79414e-12
1.90026e-12
2.0091e-12
2.12041e-12
2.23385e-12
2.3491e-12
2.46576e-12
2.58342e-12
2.70163e-12
2.81989e-12
2.93768e-12
3.05446e-12
3.16964e-12
3.28261e-12
3.39275e-12
3.49942e-12
3.60196e-12
3.69971e-12
3.792e-12
3.87817e-12
3.95758e-12
4.02958e-12
4.09359e-12
4.14902e-12
4.19534e-12
4.23206e-12
4.25876e-12
4.27506e-12
4.28066e-12
4.27532e-12
4.2589e-12
4.23134e-12
4.19266e-12
4.14296e-12
4.08245e-12
4.01144e-12
3.9303e-12
3.83953e-12
3.73969e-12
3.63143e-12
3.51548e-12
3.39263e-12
3.26374e-12
3.12972e-12
2.99153e-12
2.85014e-12
2.70657e-12
2.56183e-12
2.41693e-12
2.27287e-12
2.13062e-12
1.99111e-12
1.85526e-12
1.72388e-12
1.59777e-12
1.47763e-12
1.3641e-12
1.25774e-12
1.15902e-12
1.06835e-12
9.86043e-13
9.12317e-13
8.47323e-13
7.91129e-13
7.43719e-13
7.05005e-13
6.74821e-13
6.52933e-13
6.39036e-13
6.32759e-13
6.3367e-13
6.41273e-13
6.55017e-13
6.74296e-13
6.98453e-13
7.26786e-13
7.58549e-13
7.92964e-13
8.29223e-13
8.66499e-13
9.03958e-13
9.40762e-13
9.76091e-13
1.00915e-12
1.03918e-12
1.06548e-12
1.08741e-12
1.10442e-12
1.11604e-12
1.12192e-12
1.1218e-12
1.11554e-12
1.10313e-12
1.08468e-12
1.06039e-12
1.0306e-12
9.95734e-13
9.56303e-13
9.12892e-13
8.66143e-13
8.16737e-13
7.65374e-13
7.12759e-13
6.59579e-13
6.06494e-13
5.54118e-13
5.03008e-13
4.53654e-13
4.06477e-13
3.61817e-13
3.19941e-13
2.81035e-13
2.45215e-13
2.12526e-13
1.82954e-13
1.56431e-13
1.32843e-13
1.12042e-13
9.38493e-14
7.80693e-14
6.44934e-14
5.29084e-14
4.31019e-14
3.48674e-14
2.80081e-14
2.23398e-14
1.76927e-14
1.3913e-14
1.08629e-14
8.42103e-15
6.48137e-15
4.95271e-15
3.75738e-15
2.82999e-15
2.11609e-15
1.57081e-15
1.15757e-15
8.46837e-16
6.14994e-16
4.43357e-16
3.17279e-16
2.25387e-16
1.5893e-16
1.11242e-16
7.72882e-17
5.33004e-17
3.64855e-17
2.47907e-17
1.67208e-17
1.1197e-17
7.44769e-18
4.92653e-18
3.25087e-18
2.15636e-18
1.46408e-18
1.05727e-18
8.65584e-19
1.01765e-17
1.04698e-17
1.12189e-17
1.24449e-17
1.41858e-17
1.6497e-17
1.9453e-17
2.31494e-17
2.77054e-17
3.32671e-17
4.00114e-17
4.81506e-17
5.79383e-17
6.96754e-17
8.37176e-17
1.00485e-16
1.2047e-16
1.44252e-16
1.72508e-16
2.06029e-16
2.45739e-16
2.9271e-16
3.48191e-16
4.13627e-16
4.90693e-16
5.81326e-16
6.87758e-16
8.1256e-16
9.5869e-16
1.12954e-15
1.329e-15
1.56151e-15
1.83214e-15
2.14668e-15
2.51171e-15
2.93468e-15
3.42405e-15
3.98939e-15
4.6415e-15
5.39253e-15
6.25616e-15
7.24774e-15
8.38445e-15
9.68551e-15
1.11723e-14
1.28688e-14
1.48014e-14
1.69994e-14
1.94954e-14
2.23251e-14
2.55281e-14
2.91478e-14
3.32315e-14
3.78313e-14
4.3004e-14
4.88111e-14
5.53198e-14
6.26025e-14
7.07376e-14
7.98095e-14
8.9909e-14
1.01133e-13
1.13586e-13
1.27378e-13
1.42626e-13
1.59455e-13
1.77996e-13
1.98387e-13
2.20773e-13
2.45304e-13
2.72137e-13
3.01435e-13
3.33365e-13
3.681e-13
4.05815e-13
4.46688e-13
4.909e-13
5.38632e-13
5.90064e-13
6.45374e-13
7.04736e-13
7.6832e-13
8.36288e-13
9.08793e-13
9.85976e-13
1.06797e-12
1.15487e-12
1.2468e-12
1.34381e-12
1.44596e-12
1.55327e-12
1.66574e-12
1.78334e-12
1.906e-12
2.03362e-12
2.16604e-12
2.3031e-12
2.44457e-12
2.59017e-12
2.7396e-12
2.8925e-12
3.04845e-12
3.20699e-12
3.36763e-12
3.52981e-12
3.69292e-12
3.85632e-12
4.01933e-12
4.18121e-12
4.34119e-12
4.49848e-12
4.65224e-12
4.80163e-12
4.94576e-12
5.08376e-12
5.21474e-12
5.33783e-12
5.45214e-12
5.55683e-12
5.65107e-12
5.73409e-12
5.80515e-12
5.86357e-12
5.90873e-12
5.94011e-12
5.95724e-12
5.95977e-12
5.94743e-12
5.92007e-12
5.87764e-12
5.8202e-12
5.74795e-12
5.66119e-12
5.56034e-12
5.44596e-12
5.31871e-12
5.17936e-12
5.02878e-12
4.86795e-12
4.69794e-12
4.51988e-12
4.33498e-12
4.14451e-12
3.94974e-12
3.75202e-12
3.55266e-12
3.35301e-12
3.15435e-12
2.95798e-12
2.76512e-12
2.57693e-12
2.39451e-12
2.21889e-12
2.05099e-12
1.89165e-12
1.74159e-12
1.60145e-12
1.47174e-12
1.35289e-12
1.24518e-12
1.14883e-12
1.06392e-12
9.90463e-13
9.28346e-13
8.7738e-13
8.37282e-13
8.0769e-13
7.88157e-13
7.78164e-13
7.7712e-13
7.84364e-13
7.99175e-13
8.20771e-13
8.48314e-13
8.80919e-13
9.17659e-13
9.5757e-13
9.99661e-13
1.04293e-12
1.08636e-12
1.12894e-12
1.1697e-12
1.2077e-12
1.24202e-12
1.27186e-12
1.29647e-12
1.3152e-12
1.32752e-12
1.33303e-12
1.33144e-12
1.32262e-12
1.30657e-12
1.28343e-12
1.25348e-12
1.21711e-12
1.17485e-12
1.12731e-12
1.0752e-12
1.01927e-12
9.60332e-13
8.99214e-13
8.36741e-13
7.73721e-13
7.10923e-13
6.4906e-13
5.8878e-13
5.30649e-13
4.75151e-13
4.22675e-13
3.73522e-13
3.27903e-13
2.85941e-13
2.47682e-13
2.13101e-13
1.8211e-13
1.54571e-13
1.30302e-13
1.09092e-13
9.07063e-14
7.4899e-14
6.1418e-14
5.00131e-14
4.04418e-14
3.24731e-14
2.58913e-14
2.04979e-14
1.61132e-14
1.25766e-14
9.7463e-15
7.49904e-15
5.72863e-15
4.34477e-15
3.27149e-15
2.44556e-15
1.81493e-15
1.33714e-15
9.77974e-16
7.1007e-16
5.11789e-16
3.66177e-16
2.60072e-16
1.83354e-16
1.28315e-16
8.91351e-17
6.14607e-17
4.20652e-17
2.85778e-17
1.92726e-17
1.29041e-17
8.58215e-18
5.67631e-18
3.74521e-18
2.484e-18
1.68636e-18
1.21768e-18
9.96844e-19
1.85519e-17
1.90854e-17
2.04488e-17
2.26806e-17
2.58495e-17
3.00564e-17
3.54366e-17
4.21636e-17
5.04538e-17
6.05724e-17
7.28405e-17
8.76437e-17
1.05441e-16
1.2678e-16
1.52303e-16
1.82772e-16
2.19081e-16
2.62277e-16
3.13585e-16
3.74438e-16
4.46504e-16
5.31722e-16
6.32345e-16
7.50984e-16
8.9066e-16
1.05486e-15
1.24761e-15
1.47354e-15
1.73795e-15
2.04696e-15
2.40754e-15
2.82765e-15
3.3164e-15
3.88412e-15
4.54259e-15
5.30511e-15
6.18679e-15
7.20465e-15
8.37791e-15
9.72818e-15
1.12797e-14
1.30597e-14
1.50985e-14
1.743e-14
2.00921e-14
2.31266e-14
2.658e-14
3.05038e-14
3.49547e-14
3.99952e-14
4.56939e-14
5.21262e-14
5.93741e-14
6.75274e-14
7.66837e-14
8.69488e-14
9.84371e-14
1.11272e-13
1.25588e-13
1.41526e-13
1.59239e-13
1.78891e-13
2.00655e-13
2.24715e-13
2.51265e-13
2.80509e-13
3.12663e-13
3.4795e-13
3.86604e-13
4.28868e-13
4.74992e-13
5.25232e-13
5.79852e-13
6.39119e-13
7.03303e-13
7.72677e-13
8.47511e-13
9.28073e-13
1.01463e-12
1.10743e-12
1.20672e-12
1.31274e-12
1.42571e-12
1.54581e-12
1.67322e-12
1.80809e-12
1.95053e-12
2.10064e-12
2.25845e-12
2.42397e-12
2.59716e-12
2.77793e-12
2.96613e-12
3.16157e-12
3.364e-12
3.57309e-12
3.78847e-12
4.00968e-12
4.23621e-12
4.46747e-12
4.70281e-12
4.9415e-12
5.18275e-12
5.42569e-12
5.6694e-12
5.91289e-12
6.15511e-12
6.39494e-12
6.63125e-12
6.86283e-12
7.08846e-12
7.30688e-12
7.51681e-12
7.71697e-12
7.90608e-12
8.08287e-12
8.2461e-12
8.39457e-12
8.52712e-12
8.64266e-12
8.74018e-12
8.81874e-12
8.87753e-12
8.91584e-12
8.93306e-12
8.92875e-12
8.9026e-12
8.85445e-12
8.7843e-12
8.69231e-12
8.57883e-12
8.44434e-12
8.28952e-12
8.1152e-12
7.92238e-12
7.7122e-12
7.48595e-12
7.24505e-12
6.99105e-12
6.72559e-12
6.45041e-12
6.1673e-12
5.87811e-12
5.58473e-12
5.28905e-12
4.99295e-12
4.69827e-12
4.40681e-12
4.12031e-12
3.8404e-12
3.56864e-12
3.30645e-12
3.05512e-12
2.81583e-12
2.5896e-12
2.37731e-12
2.17968e-12
1.99728e-12
1.83054e-12
1.67973e-12
1.54499e-12
1.42632e-12
1.32358e-12
1.23651e-12
1.16473e-12
1.10777e-12
1.06503e-12
1.03582e-12
1.01936e-12
1.01481e-12
1.02121e-12
1.03755e-12
1.06276e-12
1.0957e-12
1.13518e-12
1.17996e-12
1.22877e-12
1.28033e-12
1.33332e-12
1.38645e-12
1.43843e-12
1.48801e-12
1.534e-12
1.57529e-12
1.61084e-12
1.63974e-12
1.6612e-12
1.67458e-12
1.67939e-12
1.67532e-12
1.66222e-12
1.64012e-12
1.60922e-12
1.56991e-12
1.5227e-12
1.46827e-12
1.4074e-12
1.34098e-12
1.26997e-12
1.19539e-12
1.11827e-12
1.03963e-12
9.60474e-13
8.81755e-13
8.0435e-13
7.2905e-13
6.56548e-13
5.87427e-13
5.22159e-13
4.611e-13
4.04497e-13
3.5249e-13
3.05122e-13
2.62351e-13
2.24057e-13
1.90058e-13
1.60123e-13
1.33982e-13
1.1134e-13
9.18873e-14
7.53095e-14
6.12943e-14
4.954e-14
3.976e-14
3.16869e-14
2.50753e-14
1.97032e-14
1.53724e-14
1.19083e-14
9.15906e-15
6.99422e-15
5.30279e-15
3.99153e-15
2.98286e-15
2.21299e-15
1.62994e-15
1.19179e-15
8.65077e-16
6.23352e-16
4.45888e-16
3.16611e-16
2.23166e-16
1.56143e-16
1.08444e-16
7.47601e-17
5.11583e-17
3.47493e-17
2.34308e-17
1.56858e-17
1.04307e-17
6.89796e-18
4.55064e-18
3.0178e-18
2.04849e-18
1.47898e-18
1.21067e-18
3.41634e-17
3.51439e-17
3.76511e-17
4.17555e-17
4.75833e-17
5.53195e-17
6.52125e-17
7.75808e-17
9.28214e-17
1.11421e-16
1.33968e-16
1.6117e-16
1.9387e-16
2.33067e-16
2.79943e-16
3.35892e-16
4.02549e-16
4.81832e-16
5.75983e-16
6.87621e-16
8.19793e-16
9.76046e-16
1.16049e-15
1.3779e-15
1.63377e-15
1.93447e-15
2.28732e-15
2.70075e-15
3.18444e-15
3.74946e-15
4.40849e-15
5.176e-15
6.06846e-15
7.10464e-15
8.30578e-15
9.69601e-15
1.13025e-14
1.31561e-14
1.52913e-14
1.77471e-14
2.05669e-14
2.37996e-14
2.74997e-14
3.17276e-14
3.6551e-14
4.20445e-14
4.82908e-14
5.53814e-14
6.34167e-14
7.25073e-14
8.27743e-14
9.43501e-14
1.07379e-13
1.22018e-13
1.38439e-13
1.56824e-13
1.77373e-13
2.00299e-13
2.25834e-13
2.54221e-13
2.85722e-13
3.20616e-13
3.59197e-13
4.01775e-13
4.48678e-13
5.00249e-13
5.56844e-13
6.18835e-13
6.86607e-13
7.60557e-13
8.41089e-13
9.28618e-13
1.02356e-12
1.12635e-12
1.2374e-12
1.35713e-12
1.48596e-12
1.62429e-12
1.77252e-12
1.931e-12
2.1001e-12
2.28012e-12
2.47136e-12
2.67405e-12
2.88841e-12
3.11457e-12
3.35265e-12
3.60266e-12
3.86458e-12
4.13829e-12
4.42361e-12
4.72028e-12
5.02792e-12
5.3461e-12
5.67426e-12
6.01174e-12
6.35781e-12
6.71161e-12
7.07217e-12
7.43843e-12
7.80921e-12
8.18325e-12
8.55916e-12
8.93548e-12
9.31065e-12
9.68301e-12
1.00509e-11
1.04124e-11
1.07658e-11
1.11092e-11
1.14406e-11
1.17582e-11
1.206e-11
1.2344e-11
1.26084e-11
1.28513e-11
1.3071e-11
1.32658e-11
1.34341e-11
1.35744e-11
1.36854e-11
1.3766e-11
1.38151e-11
1.3832e-11
1.3816e-11
1.37668e-11
1.36842e-11
1.35684e-11
1.34196e-11
1.32384e-11
1.30256e-11
1.27824e-11
1.25099e-11
1.22098e-11
1.18838e-11
1.15338e-11
1.1162e-11
1.07708e-11
1.03625e-11
9.93976e-12
9.50526e-12
9.06173e-12
8.61196e-12
8.15873e-12
7.70482e-12
7.25295e-12
6.80576e-12
6.36579e-12
5.93545e-12
5.517e-12
5.11254e-12
4.72397e-12
4.353e-12
4.00111e-12
3.6696e-12
3.35951e-12
3.07169e-12
2.80675e-12
2.5651e-12
2.34693e-12
2.15226e-12
1.98088e-12
1.83244e-12
1.70641e-12
1.6021e-12
1.5187e-12
1.45525e-12
1.41067e-12
1.38378e-12
1.37329e-12
1.37783e-12
1.39594e-12
1.42608e-12
1.46665e-12
1.51599e-12
1.5724e-12
1.63414e-12
1.69948e-12
1.76664e-12
1.8339e-12
1.89956e-12
1.96197e-12
2.01957e-12
2.07091e-12
2.11467e-12
2.14967e-12
2.17492e-12
2.1896e-12
2.19313e-12
2.18512e-12
2.16543e-12
2.13414e-12
2.09155e-12
2.03817e-12
1.97473e-12
1.90211e-12
1.82137e-12
1.73365e-12
1.64023e-12
1.54242e-12
1.44154e-12
1.33894e-12
1.23589e-12
1.13361e-12
1.03322e-12
9.35718e-13
8.41984e-13
7.5275e-13
6.68602e-13
5.8998e-13
5.17182e-13
4.50371e-13
3.89585e-13
3.34752e-13
2.85706e-13
2.42201e-13
2.0393e-13
1.70537e-13
1.41637e-13
1.16827e-13
9.56986e-14
7.78489e-14
6.28886e-14
5.0449e-14
4.01869e-14
3.17875e-14
2.49665e-14
1.94707e-14
1.5077e-14
1.15917e-14
8.84859e-15
6.70631e-15
5.04624e-15
3.7698e-15
2.79593e-15
2.05866e-15
1.50482e-15
1.09199e-15
7.86651e-16
5.62553e-16
3.99354e-16
2.81422e-16
1.96859e-16
1.36693e-16
9.42158e-17
6.44594e-17
4.37762e-17
2.95123e-17
1.9754e-17
1.31338e-17
8.68431e-18
5.72829e-18
3.79824e-18
2.5779e-18
1.86098e-18
1.52322e-18
6.26941e-17
6.44901e-17
6.9085e-17
7.66075e-17
8.72887e-17
1.01467e-16
1.19597e-16
1.42261e-16
1.70185e-16
2.0426e-16
2.45561e-16
2.95382e-16
3.55262e-16
4.27029e-16
5.12841e-16
6.15242e-16
7.37218e-16
8.82269e-16
1.05449e-15
1.25864e-15
1.50029e-15
1.7859e-15
2.12294e-15
2.52011e-15
2.98741e-15
3.53642e-15
4.18043e-15
4.93476e-15
5.81695e-15
6.8471e-15
8.04817e-15
9.44635e-15
1.10715e-14
1.29574e-14
1.51426e-14
1.76704e-14
2.059e-14
2.39567e-14
2.78327e-14
3.22879e-14
3.74003e-14
4.32573e-14
4.99564e-14
5.76058e-14
6.63257e-14
7.62492e-14
8.75234e-14
1.0031e-13
1.14788e-13
1.31151e-13
1.49614e-13
1.7041e-13
1.93791e-13
2.20033e-13
2.49434e-13
2.82314e-13
3.19019e-13
3.59919e-13
4.05409e-13
4.55913e-13
5.11877e-13
5.73777e-13
6.42113e-13
7.17411e-13
8.00221e-13
8.91117e-13
9.90695e-13
1.09957e-12
1.21838e-12
1.34776e-12
1.48839e-12
1.64092e-12
1.80602e-12
1.98437e-12
2.17662e-12
2.38343e-12
2.60542e-12
2.8432e-12
3.09734e-12
3.36837e-12
3.65677e-12
3.96296e-12
4.2873e-12
4.63008e-12
4.99149e-12
5.37164e-12
5.77053e-12
6.18806e-12
6.624e-12
7.078e-12
7.54956e-12
8.03807e-12
8.54274e-12
9.06264e-12
9.59668e-12
1.01436e-11
1.0702e-11
1.12703e-11
1.18468e-11
1.24296e-11
1.30166e-11
1.36055e-11
1.41942e-11
1.47801e-11
1.53605e-11
1.59328e-11
1.64943e-11
1.7042e-11
1.7573e-11
1.80843e-11
1.8573e-11
1.90362e-11
1.94708e-11
1.9874e-11
2.02431e-11
2.05754e-11
2.08684e-11
2.11197e-11
2.13271e-11
2.14888e-11
2.16031e-11
2.16685e-11
2.1684e-11
2.16487e-11
2.15622e-11
2.14243e-11
2.12353e-11
2.09958e-11
2.07067e-11
2.03694e-11
1.99855e-11
1.95571e-11
1.90867e-11
1.85768e-11
1.80305e-11
1.74511e-11
1.68421e-11
1.62072e-11
1.55504e-11
1.48756e-11
1.4187e-11
1.34888e-11
1.27852e-11
1.20804e-11
1.13784e-11
1.06831e-11
9.99844e-12
9.32798e-12
8.67511e-12
8.04296e-12
7.43438e-12
6.85194e-12
6.29787e-12
5.7741e-12
5.28222e-12
4.82348e-12
4.39882e-12
4.00887e-12
3.65394e-12
3.33404e-12
3.04892e-12
2.79807e-12
2.58072e-12
2.39591e-12
2.24245e-12
2.11899e-12
2.02399e-12
1.95578e-12
1.91255e-12
1.89237e-12
1.89319e-12
1.91288e-12
1.94922e-12
1.99993e-12
2.06267e-12
2.13503e-12
2.21462e-12
2.29902e-12
2.38583e-12
2.47268e-12
2.55727e-12
2.63741e-12
2.711e-12
2.77613e-12
2.83104e-12
2.8742e-12
2.90433e-12
2.92038e-12
2.92162e-12
2.90758e-12
2.87813e-12
2.83341e-12
2.77387e-12
2.70024e-12
2.6135e-12
2.51486e-12
2.40573e-12
2.28768e-12
2.16237e-12
2.03156e-12
1.897e-12
1.76044e-12
1.62357e-12
1.48797e-12
1.3551e-12
1.22625e-12
1.10257e-12
9.84978e-13
8.74231e-13
7.70882e-13
6.75296e-13
5.87663e-13
5.08015e-13
4.36236e-13
3.72092e-13
3.15244e-13
2.65276e-13
2.21713e-13
1.8404e-13
1.51722e-13
1.24219e-13
1.00999e-13
8.15509e-14
6.53894e-14
5.20648e-14
4.11649e-14
3.23182e-14
2.51938e-14
1.9501e-14
1.49874e-14
1.14366e-14
8.66471e-15
6.51767e-15
4.86746e-15
3.60891e-15
2.65647e-15
1.94125e-15
1.40831e-15
1.01425e-15
7.25136e-16
5.14647e-16
3.62585e-16
2.53579e-16
1.76041e-16
1.21312e-16
8.29825e-17
5.63457e-17
3.79797e-17
2.54175e-17
1.68967e-17
1.11708e-17
7.36736e-18
4.88437e-18
3.31461e-18
2.3925e-18
1.95811e-18
1.14223e-16
1.1749e-16
1.2585e-16
1.39539e-16
1.58976e-16
1.84776e-16
2.17764e-16
2.58998e-16
3.09798e-16
3.71779e-16
4.46898e-16
5.37499e-16
6.46378e-16
7.7685e-16
9.32833e-16
1.11894e-15
1.34058e-15
1.6041e-15
1.91691e-15
2.28766e-15
2.7264e-15
3.24482e-15
3.85648e-15
4.57704e-15
5.42463e-15
6.42011e-15
7.58753e-15
8.95447e-15
1.05526e-14
1.24181e-14
1.45923e-14
1.71223e-14
2.00618e-14
2.34716e-14
2.74205e-14
3.19867e-14
3.72578e-14
4.3333e-14
5.03234e-14
5.83536e-14
6.7563e-14
7.81072e-14
9.01592e-14
1.03911e-13
1.19577e-13
1.37391e-13
1.57615e-13
1.80532e-13
2.06458e-13
2.35735e-13
2.68738e-13
3.05874e-13
3.47586e-13
3.94353e-13
4.46691e-13
5.05158e-13
5.70348e-13
6.429e-13
7.23494e-13
8.12852e-13
9.11737e-13
1.02096e-12
1.14135e-12
1.27382e-12
1.41927e-12
1.57866e-12
1.75299e-12
1.94326e-12
2.15052e-12
2.37582e-12
2.62021e-12
2.88478e-12
3.17058e-12
3.47865e-12
3.81003e-12
4.1657e-12
4.54661e-12
4.95364e-12
5.38762e-12
5.84928e-12
6.33925e-12
6.85807e-12
7.40615e-12
7.98373e-12
8.59095e-12
9.22773e-12
9.89386e-12
1.05889e-11
1.13122e-11
1.20629e-11
1.284e-11
1.3642e-11
1.44676e-11
1.53148e-11
1.61815e-11
1.70656e-11
1.79643e-11
1.88749e-11
1.97943e-11
2.07192e-11
2.16461e-11
2.25712e-11
2.34906e-11
2.44003e-11
2.52958e-11
2.61728e-11
2.70269e-11
2.78535e-11
2.8648e-11
2.94058e-11
3.01223e-11
3.07931e-11
3.14138e-11
3.19801e-11
3.2488e-11
3.29338e-11
3.33139e-11
3.36252e-11
3.38647e-11
3.40301e-11
3.41193e-11
3.41308e-11
3.40635e-11
3.39167e-11
3.36905e-11
3.33853e-11
3.30021e-11
3.25426e-11
3.20089e-11
3.14037e-11
3.07301e-11
2.99919e-11
2.91933e-11
2.83389e-11
2.74337e-11
2.64831e-11
2.54928e-11
2.44687e-11
2.3417e-11
2.23439e-11
2.12558e-11
2.01591e-11
1.90599e-11
1.79645e-11
1.68789e-11
1.58088e-11
1.47598e-11
1.37368e-11
1.27447e-11
1.17877e-11
1.08699e-11
9.99447e-12
9.16448e-12
8.38232e-12
7.64993e-12
6.96876e-12
6.33977e-12
5.76348e-12
5.23996e-12
4.76887e-12
4.34948e-12
3.98071e-12
3.66115e-12
3.38909e-12
3.16258e-12
2.9794e-12
2.83714e-12
2.7332e-12
2.66481e-12
2.62909e-12
2.62299e-12
2.64339e-12
2.68708e-12
2.75076e-12
2.8311e-12
2.92473e-12
3.02826e-12
3.13834e-12
3.25165e-12
3.36494e-12
3.47507e-12
3.57904e-12
3.67407e-12
3.75754e-12
3.82715e-12
3.88086e-12
3.91698e-12
3.93418e-12
3.93151e-12
3.90842e-12
3.86476e-12
3.80081e-12
3.7172e-12
3.61498e-12
3.4955e-12
3.36042e-12
3.21165e-12
3.05132e-12
2.88166e-12
2.70502e-12
2.52374e-12
2.34016e-12
2.1565e-12
1.97485e-12
1.79713e-12
1.62506e-12
1.46009e-12
1.30345e-12
1.15611e-12
1.01875e-12
8.91854e-13
7.75628e-13
6.70091e-13
5.75068e-13
4.90225e-13
4.15094e-13
3.49108e-13
2.91623e-13
2.41946e-13
1.99359e-13
1.63142e-13
1.32584e-13
1.07005e-13
8.57613e-14
6.82562e-14
5.39444e-14
4.23344e-14
3.29893e-14
2.55255e-14
1.96106e-14
1.49592e-14
1.13298e-14
8.51965e-15
6.36061e-15
4.71459e-15
3.46936e-15
2.53459e-15
1.83828e-15
1.32358e-15
9.46061e-16
6.71289e-16
4.7284e-16
3.30618e-16
2.29478e-16
1.58107e-16
1.08131e-16
7.34094e-17
4.94734e-17
3.31043e-17
2.20034e-17
1.45448e-17
9.5913e-18
6.35792e-18
4.314e-18
3.11348e-18
2.54797e-18
2.06399e-16
2.12291e-16
2.27381e-16
2.52088e-16
2.8717e-16
3.33734e-16
3.93269e-16
4.6768e-16
5.59346e-16
6.71177e-16
8.06695e-16
9.70125e-16
1.1665e-15
1.40179e-15
1.68304e-15
2.01855e-15
2.41807e-15
2.89299e-15
3.45664e-15
4.12455e-15
4.91479e-15
5.84836e-15
6.94956e-15
8.24652e-15
9.77173e-15
1.15626e-14
1.36622e-14
1.61199e-14
1.89924e-14
2.23443e-14
2.62495e-14
3.07923e-14
3.60682e-14
4.21857e-14
4.92675e-14
5.74525e-14
6.68968e-14
7.77764e-14
9.02884e-14
1.04654e-13
1.21119e-13
1.3996e-13
1.61481e-13
1.86022e-13
2.13959e-13
2.45705e-13
2.81716e-13
3.22494e-13
3.68586e-13
4.20592e-13
4.79165e-13
5.45011e-13
6.18901e-13
7.01661e-13
7.94184e-13
8.97427e-13
1.01241e-12
1.14024e-12
1.28206e-12
1.4391e-12
1.61265e-12
1.80408e-12
2.01481e-12
2.24632e-12
2.50014e-12
2.77786e-12
3.08111e-12
3.41154e-12
3.77084e-12
4.16072e-12
4.58287e-12
5.03898e-12
5.53072e-12
6.05972e-12
6.62753e-12
7.23565e-12
7.88546e-12
8.57825e-12
9.31513e-12
1.00971e-11
1.09249e-11
1.17992e-11
1.27203e-11
1.36883e-11
1.47031e-11
1.57642e-11
1.68708e-11
1.80218e-11
1.92157e-11
2.04507e-11
2.17247e-11
2.3035e-11
2.43787e-11
2.57523e-11
2.71521e-11
2.85739e-11
3.00132e-11
3.14649e-11
3.29238e-11
3.43842e-11
3.58401e-11
3.72854e-11
3.87135e-11
4.01176e-11
4.14909e-11
4.28263e-11
4.41168e-11
4.5355e-11
4.6534e-11
4.76467e-11
4.86861e-11
4.96457e-11
5.05188e-11
5.12995e-11
5.1982e-11
5.25611e-11
5.30319e-11
5.33903e-11
5.36326e-11
5.3756e-11
5.37582e-11
5.36377e-11
5.3394e-11
5.3027e-11
5.25377e-11
5.19279e-11
5.12002e-11
5.0358e-11
4.94056e-11
4.83479e-11
4.71908e-11
4.59406e-11
4.46047e-11
4.31906e-11
4.17066e-11
4.01614e-11
3.85642e-11
3.69241e-11
3.52508e-11
3.35539e-11
3.1843e-11
3.01277e-11
2.84173e-11
2.67209e-11
2.50473e-11
2.34048e-11
2.18011e-11
2.02434e-11
1.87385e-11
1.72921e-11
1.59094e-11
1.45951e-11
1.33528e-11
1.21855e-11
1.10955e-11
1.00843e-11
9.15282e-12
8.30117e-12
7.52894e-12
6.83511e-12
6.21814e-12
5.67597e-12
5.20613e-12
4.80576e-12
4.47164e-12
4.20025e-12
3.98783e-12
3.83038e-12
3.72372e-12
3.66349e-12
3.64522e-12
3.66432e-12
3.71613e-12
3.79591e-12
3.8989e-12
4.02033e-12
4.15546e-12
4.29958e-12
4.44808e-12
4.59649e-12
4.74051e-12
4.87605e-12
4.99931e-12
5.10681e-12
5.19542e-12
5.26245e-12
5.30567e-12
5.32333e-12
5.31424e-12
5.27771e-12
5.21364e-12
5.12244e-12
5.00507e-12
4.86296e-12
4.69801e-12
4.5125e-12
4.30904e-12
4.09048e-12
3.85988e-12
3.62037e-12
3.37511e-12
3.1272e-12
2.87961e-12
2.63513e-12
2.39629e-12
2.16534e-12
1.94421e-12
1.73449e-12
1.53742e-12
1.35392e-12
1.18454e-12
1.02956e-12
8.88955e-13
7.62465e-13
6.49617e-13
5.49765e-13
4.62131e-13
3.85841e-13
3.19958e-13
2.63515e-13
2.15543e-13
1.75092e-13
1.41251e-13
1.13161e-13
9.00272e-14
7.11227e-14
5.57944e-14
4.34622e-14
3.36171e-14
2.58183e-14
1.96881e-14
1.49067e-14
1.12059e-14
8.36367e-15
6.19755e-15
4.55941e-15
3.33007e-15
2.41461e-15
1.73813e-15
1.24209e-15
8.81146e-16
6.20528e-16
4.33798e-16
3.01035e-16
2.07371e-16
1.41799e-16
9.62501e-17
6.48563e-17
4.3391e-17
2.88365e-17
1.90591e-17
1.25664e-17
8.32899e-18
5.65067e-18
4.07767e-18
3.33676e-18
3.69806e-16
3.80347e-16
4.07352e-16
4.51573e-16
5.14361e-16
5.97698e-16
7.04243e-16
8.37402e-16
1.00142e-15
1.20151e-15
1.44396e-15
1.7363e-15
2.08754e-15
2.50833e-15
3.01125e-15
3.61111e-15
4.32529e-15
5.17413e-15
6.18139e-15
7.37476e-15
8.78645e-15
1.04538e-14
1.24202e-14
1.47356e-14
1.74579e-14
2.06535e-14
2.43991e-14
2.87822e-14
3.39036e-14
3.9878e-14
4.68364e-14
5.49279e-14
6.43219e-14
7.52102e-14
8.78099e-14
1.02366e-13
1.19154e-13
1.38485e-13
1.60705e-13
1.86204e-13
2.15414e-13
2.48819e-13
2.86954e-13
3.30414e-13
3.79854e-13
4.35997e-13
4.99638e-13
5.71649e-13
6.52981e-13
7.44674e-13
8.47855e-13
9.63749e-13
1.09368e-12
1.23907e-12
1.40144e-12
1.58244e-12
1.78381e-12
2.0074e-12
2.25519e-12
2.52924e-12
2.83172e-12
3.16492e-12
3.53121e-12
3.93305e-12
4.37298e-12
4.8536e-12
5.37756e-12
5.94758e-12
6.56635e-12
7.23661e-12
7.96104e-12
8.74231e-12
9.58298e-12
1.04855e-11
1.14524e-11
1.24856e-11
1.35873e-11
1.47592e-11
1.60027e-11
1.73192e-11
1.87095e-11
2.0174e-11
2.17128e-11
2.33256e-11
2.50116e-11
2.67693e-11
2.8597e-11
3.04921e-11
3.24516e-11
3.44718e-11
3.65486e-11
3.8677e-11
4.08515e-11
4.30659e-11
4.53136e-11
4.7587e-11
4.98783e-11
5.2179e-11
5.448e-11
5.67718e-11
5.90445e-11
6.12877e-11
6.34909e-11
6.56432e-11
6.77334e-11
6.97506e-11
7.16835e-11
7.35211e-11
7.52524e-11
7.68669e-11
7.83542e-11
7.97045e-11
8.09085e-11
8.19575e-11
8.28436e-11
8.35596e-11
8.40993e-11
8.44574e-11
8.46297e-11
8.46131e-11
8.44056e-11
8.40064e-11
8.3416e-11
8.2636e-11
8.16696e-11
8.05208e-11
7.91952e-11
7.76995e-11
7.60415e-11
7.42303e-11
7.22758e-11
7.0189e-11
6.7982e-11
6.56672e-11
6.3258e-11
6.07683e-11
5.82123e-11
5.56045e-11
5.29596e-11
5.02922e-11
4.76169e-11
4.49479e-11
4.2299e-11
3.96835e-11
3.7114e-11
3.46023e-11
3.21595e-11
2.97957e-11
2.75198e-11
2.53399e-11
2.32629e-11
2.12946e-11
1.94396e-11
1.77014e-11
1.60826e-11
1.45846e-11
1.32076e-11
1.19513e-11
1.08142e-11
9.7941e-12
8.88799e-12
8.09227e-12
7.40275e-12
6.81473e-12
6.32304e-12
5.92217e-12
5.60629e-12
5.36928e-12
5.20486e-12
5.10654e-12
5.0677e-12
5.08166e-12
5.14164e-12
5.24084e-12
5.37249e-12
5.5298e-12
5.70612e-12
5.89486e-12
6.08963e-12
6.28425e-12
6.4728e-12
6.64971e-12
6.80981e-12
6.94838e-12
7.06124e-12
7.14479e-12
7.19608e-12
7.21284e-12
7.19352e-12
7.1373e-12
7.04412e-12
6.91463e-12
6.75022e-12
6.55289e-12
6.32526e-12
6.07046e-12
5.79205e-12
5.49392e-12
5.18018e-12
4.85506e-12
4.5228e-12
4.18756e-12
3.85329e-12
3.52371e-12
3.20217e-12
2.89164e-12
2.59467e-12
2.31333e-12
2.04925e-12
1.80357e-12
1.57703e-12
1.36992e-12
1.18218e-12
1.01343e-12
8.62985e-13
7.29966e-13
6.13305e-13
5.11813e-13
4.24222e-13
3.49229e-13
2.85528e-13
2.31845e-13
1.86958e-13
1.49719e-13
1.19065e-13
9.40277e-14
7.37363e-14
5.74183e-14
4.43969e-14
3.40862e-14
2.59848e-14
1.96682e-14
1.4781e-14
1.10289e-14
8.17028e-15
6.00914e-15
4.38782e-15
3.18082e-15
2.28915e-15
1.63549e-15
1.15998e-15
8.16727e-16
5.70845e-16
3.96067e-16
2.72785e-16
1.86498e-16
1.2657e-16
8.5274e-17
5.70428e-17
3.79038e-17
2.50486e-17
1.65134e-17
1.09436e-17
7.42355e-18
5.35638e-18
4.38277e-18
6.5695e-16
6.75649e-16
7.2357e-16
8.02047e-16
9.13477e-16
1.06137e-15
1.25044e-15
1.48672e-15
1.77775e-15
2.13274e-15
2.56284e-15
3.08142e-15
3.7044e-15
4.45064e-15
5.34244e-15
6.406e-15
7.67208e-15
9.17666e-15
1.09618e-14
1.30764e-14
1.55774e-14
1.85309e-14
2.20133e-14
2.61131e-14
3.09322e-14
3.65881e-14
4.32155e-14
5.09693e-14
6.00265e-14
7.05892e-14
8.28879e-14
9.71848e-14
1.13777e-13
1.33003e-13
1.55241e-13
1.80923e-13
2.10531e-13
2.44607e-13
2.83759e-13
3.28665e-13
3.80082e-13
4.38851e-13
5.05904e-13
5.82274e-13
6.69099e-13
7.67632e-13
8.79248e-13
1.00545e-12
1.14789e-12
1.30834e-12
1.48876e-12
1.69122e-12
1.91801e-12
2.17155e-12
2.45443e-12
2.76945e-12
3.11955e-12
3.50788e-12
3.93772e-12
4.41257e-12
4.93605e-12
5.51196e-12
6.14423e-12
6.83691e-12
7.59417e-12
8.42026e-12
9.31948e-12
1.02962e-11
1.13547e-11
1.24994e-11
1.37344e-11
1.50639e-11
1.64918e-11
1.80218e-11
1.96575e-11
2.1402e-11
2.3258e-11
2.52279e-11
2.73135e-11
2.95163e-11
3.18367e-11
3.4275e-11
3.68304e-11
3.95014e-11
4.22857e-11
4.51802e-11
4.81809e-11
5.12827e-11
5.44797e-11
5.77649e-11
6.11304e-11
6.45673e-11
6.80655e-11
7.16143e-11
7.52016e-11
7.88149e-11
8.24404e-11
8.60638e-11
8.96699e-11
9.3243e-11
9.67666e-11
1.00224e-10
1.03598e-10
1.06872e-10
1.10027e-10
1.13047e-10
1.15915e-10
1.18613e-10
1.21124e-10
1.23434e-10
1.25527e-10
1.27389e-10
1.29006e-10
1.30367e-10
1.31461e-10
1.32279e-10
1.32812e-10
1.33056e-10
1.33005e-10
1.32656e-10
1.3201e-10
1.31067e-10
1.2983e-10
1.28304e-10
1.26496e-10
1.24415e-10
1.22071e-10
1.19477e-10
1.16646e-10
1.13595e-10
1.1034e-10
1.069e-10
1.03293e-10
9.95409e-11
9.56642e-11
9.16849e-11
8.76249e-11
8.35068e-11
7.93527e-11
7.51847e-11
7.10246e-11
6.68933e-11
6.28111e-11
5.8797e-11
5.48693e-11
5.10447e-11
4.73385e-11
4.37647e-11
4.03355e-11