/*--------------------------------*- C++ -*----------------------------------*\
| =========                 |                                                 |
| \\      /  F ield         | OpenFOAM: The Open Source CFD Toolbox           |
|  \\    /   O peration     | Version:  v2012                                 |
|   \\  /    A nd           | Website:  www.openfoam.com                      |
|    \\/     M anipulation  |                                                 |
\*---------------------------------------------------------------------------*/
FoamFile
{
    version     2.0;
    format      ascii;
    class       surfaceScalarField;
    location    "16";
    object      phi;
}
// * * * * * * * * * * * * * * * * * * * * * * * * * * * * * * * * * * * * * //

dimensions      [0 3 -1 0 0 0 0];
oriented        oriented;


internalField   nonuniform List<scalar> 
130560
(
3.33946e-06
-3.33946e-06
6.67911e-06
-3.33965e-06
1.00192e-05
-3.34008e-06
1.33599e-05
-3.34069e-06
1.67014e-05
-3.34153e-06
2.0044e-05
-3.34257e-06
2.33878e-05
-3.34382e-06
2.67331e-05
-3.34526e-06
3.008e-05
-3.3469e-06
3.34287e-05
-3.34874e-06
3.67795e-05
-3.35077e-06
4.01324e-05
-3.35298e-06
4.34878e-05
-3.35537e-06
4.68458e-05
-3.35794e-06
5.02064e-05
-3.36068e-06
5.357e-05
-3.36358e-06
5.69367e-05
-3.36664e-06
6.03065e-05
-3.36984e-06
6.36797e-05
-3.37319e-06
6.70564e-05
-3.37667e-06
7.04366e-05
-3.38027e-06
7.38206e-05
-3.38398e-06
7.72084e-05
-3.3878e-06
8.06001e-05
-3.39171e-06
8.39958e-05
-3.39571e-06
8.73956e-05
-3.39977e-06
9.07995e-05
-3.40389e-06
9.42075e-05
-3.40805e-06
9.76198e-05
-3.41225e-06
0.000101036
-3.41646e-06
0.000104457
-3.42067e-06
0.000107882
-3.42486e-06
0.000111311
-3.42902e-06
0.000114744
-3.43314e-06
0.000118181
-3.43718e-06
0.000121622
-3.44114e-06
0.000125067
-3.44499e-06
0.000128516
-3.44872e-06
0.000131968
-3.4523e-06
0.000135424
-3.45571e-06
0.000138883
-3.45893e-06
0.000142345
-3.46194e-06
0.00014581
-3.4647e-06
0.000149277
-3.4672e-06
0.000152746
-3.46942e-06
0.000156217
-3.47131e-06
0.00015969
-3.47286e-06
0.000163164
-3.47404e-06
0.000166639
-3.47482e-06
0.000170114
-3.47517e-06
0.000173589
-3.47506e-06
0.000177064
-3.47445e-06
0.000180537
-3.47332e-06
0.000184009
-3.47164e-06
0.000187478
-3.46936e-06
0.000190945
-3.46646e-06
0.000194408
-3.46289e-06
0.000197866
-3.45864e-06
0.00020132
-3.45365e-06
0.000204768
-3.4479e-06
0.000208209
-3.44134e-06
0.000211643
-3.43394e-06
0.000215069
-3.42567e-06
0.000218485
-3.41648e-06
0.000221892
-3.40633e-06
0.000225287
-3.39519e-06
0.00022867
-3.38302e-06
0.00023204
-3.36979e-06
0.000235395
-3.35544e-06
0.000238735
-3.33995e-06
0.000242058
-3.32328e-06
0.000245364
-3.30539e-06
0.00024865
-3.28624e-06
0.000251916
-3.26579e-06
0.00025516
-3.24402e-06
0.000258381
-3.22088e-06
0.000261577
-3.19634e-06
0.000264747
-3.17038e-06
0.00026789
-3.14294e-06
0.000271004
-3.11402e-06
0.000274088
-3.08357e-06
0.000277139
-3.05157e-06
0.000280157
-3.01799e-06
0.00028314
-2.98282e-06
0.000286086
-2.94601e-06
0.000288994
-2.90757e-06
0.000291861
-2.86746e-06
0.000294687
-2.82567e-06
0.000297469
-2.7822e-06
0.000300206
-2.73702e-06
0.000302896
-2.69012e-06
0.000305538
-2.64152e-06
0.000308129
-2.59119e-06
0.000310668
-2.53914e-06
0.000313153
-2.48538e-06
0.000315583
-2.42991e-06
0.000317956
-2.37273e-06
0.00032027
-2.31387e-06
0.000322523
-2.25334e-06
0.000324714
-2.19116e-06
0.000326842
-2.12734e-06
0.000328904
-2.06193e-06
0.000330899
-1.99494e-06
0.000332825
-1.92641e-06
0.000334681
-1.85638e-06
0.000336466
-1.78488e-06
0.000338178
-1.71196e-06
0.000339816
-1.63767e-06
0.000341378
-1.56206e-06
0.000342863
-1.48517e-06
0.00034427
-1.40707e-06
0.000345598
-1.32781e-06
0.000346846
-1.24746e-06
0.000348012
-1.16608e-06
0.000349095
-1.08373e-06
0.000350096
-1.00049e-06
0.000351012
-9.16431e-07
0.000351844
-8.3162e-07
0.00035259
-7.46135e-07
0.00035325
-6.60054e-07
0.000353824
-5.73455e-07
0.00035431
-4.86418e-07
0.000354709
-3.99023e-07
0.00035502
-3.11352e-07
0.000355244
-2.23486e-07
0.000355379
-1.35509e-07
0.000355427
-4.75036e-08
0.000355386
4.04494e-08
0.000355258
1.28267e-07
0.000355042
2.15868e-07
0.000354739
3.03172e-07
0.000354349
3.90099e-07
0.000353872
4.76571e-07
0.00035331
5.62511e-07
0.000352662
6.47844e-07
0.00035193
7.32495e-07
0.000351113
8.16394e-07
0.000350214
8.99471e-07
0.000349232
9.8166e-07
0.000348169
1.06289e-06
0.000347026
1.14311e-06
0.000345804
1.22226e-06
0.000344503
1.30027e-06
0.000343126
1.3771e-06
0.000341674
1.45269e-06
0.000340147
1.527e-06
0.000338547
1.59998e-06
0.000336875
1.67159e-06
0.000335133
1.7418e-06
0.000333323
1.81056e-06
0.000331445
1.87785e-06
0.000329501
1.94364e-06
0.000327493
2.0079e-06
0.000325423
2.07061e-06
0.000323291
2.13175e-06
0.0003211
2.19131e-06
0.00031885
2.24927e-06
0.000316545
2.30562e-06
0.000314184
2.36036e-06
0.000311771
2.41347e-06
0.000309306
2.46497e-06
0.000306791
2.51485e-06
0.000304228
2.56311e-06
0.000301618
2.60975e-06
0.000298963
2.6548e-06
0.000296265
2.69826e-06
0.000293525
2.74013e-06
0.000290745
2.78044e-06
0.000287925
2.8192e-06
0.000285069
2.85644e-06
0.000282177
2.89216e-06
0.00027925
2.92639e-06
0.000276291
2.95916e-06
0.000273301
2.99048e-06
0.00027028
3.02039e-06
0.000267232
3.04891e-06
0.000264155
3.07607e-06
0.000261054
3.10189e-06
0.000257927
3.12641e-06
0.000254777
3.14966e-06
0.000251606
3.17166e-06
0.000248413
3.19246e-06
0.000245201
3.21207e-06
0.000241971
3.23053e-06
0.000238723
3.24788e-06
0.000235459
3.26415e-06
0.000232179
3.27936e-06
0.000228886
3.29356e-06
0.000225579
3.30678e-06
0.00022226
3.31905e-06
0.00021893
3.3304e-06
0.000215589
3.34086e-06
0.000212238
3.35047e-06
0.000208879
3.35926e-06
0.000205512
3.36727e-06
0.000202137
3.37451e-06
0.000198756
3.38104e-06
0.000195369
3.38687e-06
0.000191977
3.39203e-06
0.000188581
3.39657e-06
0.00018518
3.4005e-06
0.000181776
3.40386e-06
0.00017837
3.40667e-06
0.000174961
3.40896e-06
0.00017155
3.41077e-06
0.000168138
3.41211e-06
0.000164725
3.41302e-06
0.000161311
3.41352e-06
0.000157898
3.41363e-06
0.000154484
3.41338e-06
0.000151072
3.4128e-06
0.00014766
3.4119e-06
0.000144249
3.41072e-06
0.00014084
3.40926e-06
0.000137432
3.40756e-06
0.000134026
3.40564e-06
0.000130623
3.40351e-06
0.000127222
3.4012e-06
0.000123823
3.39872e-06
0.000120427
3.3961e-06
0.000117034
3.39334e-06
0.000113643
3.39048e-06
0.000110256
3.38752e-06
0.000106871
3.38448e-06
0.00010349
3.38138e-06
0.000100111
3.37823e-06
9.67364e-05
3.37505e-06
9.33646e-05
3.37185e-06
8.99959e-05
3.36864e-06
8.66305e-05
3.36544e-06
8.32682e-05
3.36226e-06
7.99091e-05
3.35911e-06
7.65531e-05
3.356e-06
7.32002e-05
3.35294e-06
6.98502e-05
3.34995e-06
6.65032e-05
3.34702e-06
6.3159e-05
3.34418e-06
5.98176e-05
3.34143e-06
5.64788e-05
3.33878e-06
5.31426e-05
3.33623e-06
4.98088e-05
3.3338e-06
4.64773e-05
3.33148e-06
4.3148e-05
3.3293e-06
3.98208e-05
3.32724e-06
3.64954e-05
3.32532e-06
3.31719e-05
3.32355e-06
2.985e-05
3.32192e-06
2.65295e-05
3.32044e-06
2.32104e-05
3.31912e-06
1.98925e-05
3.31796e-06
1.65755e-05
3.31695e-06
1.32594e-05
3.31611e-06
9.94395e-06
3.31544e-06
6.62902e-06
3.31493e-06
3.31443e-06
3.31459e-06
3.31443e-06
3.33926e-06
-6.67872e-06
6.67872e-06
-6.67911e-06
1.00186e-05
-6.67994e-06
1.33591e-05
-6.68119e-06
1.67004e-05
-6.68286e-06
2.00428e-05
-6.68494e-06
2.33864e-05
-6.68743e-06
2.67315e-05
-6.69033e-06
3.00782e-05
-6.69361e-06
3.34267e-05
-6.69729e-06
3.67773e-05
-6.70135e-06
4.01301e-05
-6.70578e-06
4.34853e-05
-6.71057e-06
4.68431e-05
-6.71571e-06
5.02036e-05
-6.7212e-06
5.3567e-05
-6.727e-06
5.69335e-05
-6.73313e-06
6.03032e-05
-6.73954e-06
6.36763e-05
-6.74625e-06
6.70528e-05
-6.75321e-06
7.0433e-05
-6.76042e-06
7.38168e-05
-6.76786e-06
7.72045e-05
-6.77551e-06
8.05962e-05
-6.78335e-06
8.39918e-05
-6.79135e-06
8.73915e-05
-6.79949e-06
9.07954e-05
-6.80774e-06
9.42034e-05
-6.81608e-06
9.76156e-05
-6.82448e-06
0.000101032
-6.83292e-06
0.000104453
-6.84135e-06
0.000107878
-6.84976e-06
0.000111307
-6.8581e-06
0.00011474
-6.86634e-06
0.000118177
-6.87445e-06
0.000121618
-6.88239e-06
0.000125064
-6.89011e-06
0.000128512
-6.89759e-06
0.000131965
-6.90477e-06
0.000135421
-6.91162e-06
0.00013888
-6.91808e-06
0.000142342
-6.92411e-06
0.000145807
-6.92967e-06
0.000149275
-6.9347e-06
0.000152744
-6.93915e-06
0.000156216
-6.94297e-06
0.000159689
-6.9461e-06
0.000163164
-6.94849e-06
0.000166639
-6.95008e-06
0.000170115
-6.95081e-06
0.00017359
-6.95061e-06
0.000177065
-6.94943e-06
0.000180539
-6.9472e-06
0.000184011
-6.94386e-06
0.000187481
-6.93934e-06
0.000190948
-6.93357e-06
0.000194412
-6.92648e-06
0.000197871
-6.91801e-06
0.000201326
-6.90807e-06
0.000204774
-6.8966e-06
0.000208217
-6.88352e-06
0.000211651
-6.86877e-06
0.000215078
-6.85225e-06
0.000218495
-6.83391e-06
0.000221903
-6.81365e-06
0.000225299
-6.79142e-06
0.000228683
-6.76712e-06
0.000232054
-6.74068e-06
0.000235411
-6.71203e-06
0.000238752
-6.68109e-06
0.000242076
-6.64778e-06
0.000245383
-6.61203e-06
0.00024867
-6.57377e-06
0.000251937
-6.53291e-06
0.000255183
-6.4894e-06
0.000258405
-6.44316e-06
0.000261603
-6.39412e-06
0.000264775
-6.34221e-06
0.000267919
-6.28738e-06
0.000271035
-6.22956e-06
0.00027412
-6.16869e-06
0.000277173
-6.10472e-06
0.000280193
-6.03759e-06
0.000283177
-5.96725e-06
0.000286125
-5.89367e-06
0.000289034
-5.8168e-06
0.000291903
-5.7366e-06
0.00029473
-5.65304e-06
0.000297514
-5.56609e-06
0.000300253
-5.47574e-06
0.000302945
-5.38196e-06
0.000305588
-5.28475e-06
0.000308181
-5.1841e-06
0.000310722
-5.08e-06
0.000313209
-4.97247e-06
0.000315641
-4.86151e-06
0.000318015
-4.74715e-06
0.000320331
-4.62942e-06
0.000322586
-4.50833e-06
0.000324778
-4.38394e-06
0.000326907
-4.25629e-06
0.000328971
-4.12543e-06
0.000330967
-3.99142e-06
0.000332895
-3.85432e-06
0.000334753
-3.71422e-06
0.000336539
-3.57118e-06
0.000338253
-3.4253e-06
0.000339892
-3.27667e-06
0.000341455
-3.12539e-06
0.000342941
-2.97156e-06
0.00034435
-2.8153e-06
0.000345678
-2.65672e-06
0.000346927
-2.49595e-06
0.000348094
-2.33312e-06
0.000349179
-2.16836e-06
0.00035018
-2.00181e-06
0.000351097
-1.83361e-06
0.000351929
-1.66392e-06
0.000352676
-1.49287e-06
0.000353337
-1.32063e-06
0.000353911
-1.14735e-06
0.000354397
-9.73195e-07
0.000354797
-7.98324e-07
0.000355108
-6.229e-07
0.000355332
-4.47087e-07
0.000355467
-2.71051e-07
0.000355515
-9.49567e-08
0.000355474
8.10309e-08
0.000355346
2.56748e-07
0.00035513
4.3203e-07
0.000354826
6.06718e-07
0.000354436
7.80651e-07
0.000353958
9.53671e-07
0.000353395
1.12563e-06
0.000352747
1.29637e-06
0.000352014
1.46574e-06
0.000351196
1.63361e-06
0.000350296
1.79983e-06
0.000349313
1.96427e-06
0.000348249
2.1268e-06
0.000347105
2.2873e-06
0.000345882
2.44564e-06
0.00034458
2.60172e-06
0.000343202
2.75543e-06
0.000341748
2.90666e-06
0.00034022
3.05532e-06
0.000338618
3.20133e-06
0.000336945
3.34459e-06
0.000335202
3.48504e-06
0.00033339
3.6226e-06
0.000331511
3.7572e-06
0.000329566
3.88881e-06
0.000327556
4.01735e-06
0.000325484
4.14279e-06
0.000323351
4.26509e-06
0.000321158
4.38421e-06
0.000318907
4.50014e-06
0.0003166
4.61285e-06
0.000314238
4.72233e-06
0.000311823
4.82857e-06
0.000309356
4.93156e-06
0.00030684
5.03131e-06
0.000304275
5.12782e-06
0.000301664
5.22111e-06
0.000299007
5.31119e-06
0.000296307
5.39809e-06
0.000293566
5.48183e-06
0.000290784
5.56243e-06
0.000287963
5.63994e-06
0.000285105
5.71438e-06
0.000282211
5.7858e-06
0.000279283
5.85425e-06
0.000276323
5.91976e-06
0.000273331
5.98238e-06
0.000270309
6.04217e-06
0.000267259
6.09919e-06
0.000264181
6.15347e-06
0.000261078
6.20509e-06
0.000257951
6.2541e-06
0.0002548
6.30057e-06
0.000251627
6.34454e-06
0.000248433
6.38609e-06
0.00024522
6.42528e-06
0.000241988
6.46218e-06
0.000238739
6.49685e-06
0.000235474
6.52935e-06
0.000232194
6.55975e-06
0.000228899
6.58811e-06
0.000225591
6.61451e-06
0.000222272
6.63901e-06
0.00021894
6.66168e-06
0.000215599
6.68257e-06
0.000212247
6.70176e-06
0.000208887
6.71931e-06
0.000205519
6.73529e-06
0.000202144
6.74975e-06
0.000198762
6.76277e-06
0.000195375
6.7744e-06
0.000191982
6.7847e-06
0.000188585
6.79374e-06
0.000185184
6.80157e-06
0.000181779
6.80826e-06
0.000178372
6.81385e-06
0.000174963
6.81842e-06
0.000171551
6.822e-06
0.000168139
6.82466e-06
0.000164725
6.82645e-06
0.000161312
6.82742e-06
0.000157898
6.82762e-06
0.000154484
6.8271e-06
0.000151071
6.82591e-06
0.000147659
6.82409e-06
0.000144248
6.8217e-06
0.000140838
6.81877e-06
0.00013743
6.81535e-06
0.000134024
6.81149e-06
0.000130621
6.80721e-06
0.000127219
6.80257e-06
0.00012382
6.79759e-06
0.000120424
6.79233e-06
0.000117031
6.7868e-06
0.00011364
6.78106e-06
0.000110253
6.77512e-06
0.000106868
6.76903e-06
0.000103487
6.76281e-06
0.000100108
6.7565e-06
9.67333e-05
6.75013e-06
9.33614e-05
6.74371e-06
8.99928e-05
6.73728e-06
8.66274e-05
6.73087e-06
8.32652e-05
6.72449e-06
7.99061e-05
6.71818e-06
7.65501e-05
6.71195e-06
7.31972e-05
6.70582e-06
6.98474e-05
6.69982e-06
6.65004e-05
6.69397e-06
6.31563e-05
6.68828e-06
5.9815e-05
6.68277e-06
5.64763e-05
6.67745e-06
5.31402e-05
6.67235e-06
4.98065e-05
6.66748e-06
4.64752e-05
6.66284e-06
4.3146e-05
6.65846e-06
3.98189e-05
6.65435e-06
3.64937e-05
6.65051e-06
3.31703e-05
6.64695e-06
2.98485e-05
6.64369e-06
2.65282e-05
6.64073e-06
2.32093e-05
6.63808e-06
1.98915e-05
6.63575e-06
1.65747e-05
6.63375e-06
1.32587e-05
6.63207e-06
9.94346e-06
6.63072e-06
6.62869e-06
6.6297e-06
3.31426e-06
6.62902e-06
6.62868e-06
3.33883e-06
-1.00176e-05
6.67788e-06
-1.00182e-05
1.00173e-05
-1.00194e-05
1.33574e-05
-1.00213e-05
1.66983e-05
-1.00238e-05
2.00403e-05
-1.00269e-05
2.33835e-05
-1.00307e-05
2.67282e-05
-1.0035e-05
3.00745e-05
-1.00399e-05
3.34227e-05
-1.00455e-05
3.67729e-05
-1.00516e-05
4.01254e-05
-1.00582e-05
4.34802e-05
-1.00654e-05
4.68377e-05
-1.00732e-05
5.01978e-05
-1.00814e-05
5.3561e-05
-1.00901e-05
5.69272e-05
-1.00993e-05
6.02966e-05
-1.0109e-05
6.36694e-05
-1.0119e-05
6.70457e-05
-1.01295e-05
7.04256e-05
-1.01404e-05
7.38093e-05
-1.01515e-05
7.71968e-05
-1.0163e-05
8.05883e-05
-1.01748e-05
8.39838e-05
-1.01868e-05
8.73834e-05
-1.01991e-05
9.07871e-05
-1.02115e-05
9.41951e-05
-1.0224e-05
9.76073e-05
-1.02367e-05
0.000101024
-1.02494e-05
0.000104444
-1.02621e-05
0.000107869
-1.02747e-05
0.000111299
-1.02873e-05
0.000114732
-1.02997e-05
0.000118169
-1.03119e-05
0.000121611
-1.03238e-05
0.000125056
-1.03355e-05
0.000128505
-1.03468e-05
0.000131958
-1.03576e-05
0.000135415
-1.03679e-05
0.000138874
-1.03777e-05
0.000142337
-1.03868e-05
0.000145802
-1.03952e-05
0.00014927
-1.04028e-05
0.000152741
-1.04095e-05
0.000156213
-1.04153e-05
0.000159687
-1.04201e-05
0.000163162
-1.04237e-05
0.000166638
-1.04262e-05
0.000170115
-1.04274e-05
0.000173591
-1.04271e-05
0.000177068
-1.04255e-05
0.000180543
-1.04222e-05
0.000184016
-1.04173e-05
0.000187487
-1.04106e-05
0.000190956
-1.0402e-05
0.000194421
-1.03915e-05
0.000197881
-1.03788e-05
0.000201337
-1.0364e-05
0.000204788
-1.03469e-05
0.000208232
-1.03274e-05
0.000211668
-1.03053e-05
0.000215097
-1.02807e-05
0.000218516
-1.02532e-05
0.000221925
-1.0223e-05
0.000225323
-1.01897e-05
0.00022871
-1.01534e-05
0.000232083
-1.01138e-05
0.000235442
-1.00709e-05
0.000238785
-1.00246e-05
0.000242112
-9.97472e-06
0.000245421
-9.92119e-06
0.000248711
-9.86388e-06
0.000251981
-9.8027e-06
0.000255229
-9.73751e-06
0.000258454
-9.66824e-06
0.000261655
-9.59476e-06
0.00026483
-9.51698e-06
0.000267977
-9.43481e-06
0.000271096
-9.34815e-06
0.000274184
-9.25691e-06
0.00027724
-9.16102e-06
0.000280263
-9.06039e-06
0.000283251
-8.95494e-06
0.000286202
-8.84462e-06
0.000289114
-8.72935e-06
0.000291987
-8.60909e-06
0.000294818
-8.48379e-06
0.000297605
-8.3534e-06
0.000300347
-8.21789e-06
0.000303042
-8.07724e-06
0.000305689
-7.93143e-06
0.000308285
-7.78044e-06
0.00031083
-7.62429e-06
0.00031332
-7.46298e-06
0.000315755
-7.29652e-06
0.000318133
-7.12495e-06
0.000320452
-6.9483e-06
0.00032271
-6.76663e-06
0.000324906
-6.57999e-06
0.000327038
-6.38844e-06
0.000329105
-6.19208e-06
0.000331105
-5.99098e-06
0.000333035
-5.78525e-06
0.000334896
-5.57499e-06
0.000336685
-5.36033e-06
0.000338401
-5.14139e-06
0.000340043
-4.91832e-06
0.000341609
-4.69126e-06
0.000343098
-4.46038e-06
0.000344508
-4.22584e-06
0.000345839
-3.98782e-06
0.00034709
-3.74651e-06
0.000348259
-3.50209e-06
0.000349345
-3.25478e-06
0.000350348
-3.00477e-06
0.000351267
-2.75229e-06
0.000352101
-2.49756e-06
0.000352849
-2.2408e-06
0.00035351
-1.98224e-06
0.000354085
-1.72213e-06
0.000354572
-1.46069e-06
0.000354972
-1.19818e-06
0.000355284
-9.34839e-07
0.000355508
-6.70914e-07
0.000355644
-4.06653e-07
0.000355691
-1.42305e-07
0.00035565
1.21881e-07
0.000355521
3.85659e-07
0.000355305
6.48785e-07
0.000355
9.11016e-07
0.000354609
1.17211e-06
0.000354131
1.43183e-06
0.000353566
1.68996e-06
0.000352916
1.94625e-06
0.000352182
2.20049e-06
0.000351363
2.45246e-06
0.000350461
2.70196e-06
0.000349476
2.94879e-06
0.00034841
3.19274e-06
0.000347264
3.43363e-06
0.000346038
3.67129e-06
0.000344734
3.90555e-06
0.000343354
4.13623e-06
0.000341897
4.3632e-06
0.000340366
4.5863e-06
0.000338762
4.80541e-06
0.000337086
5.0204e-06
0.00033534
5.23116e-06
0.000333525
5.43758e-06
0.000331643
5.63956e-06
0.000329695
5.83703e-06
0.000327682
6.0299e-06
0.000325607
6.2181e-06
0.00032347
6.40159e-06
0.000321274
6.58032e-06
0.00031902
6.75423e-06
0.00031671
6.92332e-06
0.000314344
7.08754e-06
0.000311926
7.2469e-06
0.000309456
7.40139e-06
0.000306936
7.551e-06
0.000304368
7.69576e-06
0.000301754
7.83567e-06
0.000299094
7.97077e-06
0.000296391
8.10109e-06
0.000293647
8.22665e-06
0.000290861
8.34752e-06
0.000288038
8.46373e-06
0.000285177
8.57535e-06
0.00028228
8.68243e-06
0.000279349
8.78504e-06
0.000276386
8.88324e-06
0.000273391
8.97712e-06
0.000270366
9.06674e-06
0.000267313
9.15219e-06
0.000264233
9.23354e-06
0.000261128
9.3109e-06
0.000257997
9.38434e-06
0.000254844
9.45396e-06
0.000251669
9.51984e-06
0.000248473
9.58209e-06
0.000245257
9.6408e-06
0.000242023
9.69606e-06
0.000238772
9.74798e-06
0.000235505
9.79664e-06
0.000232222
9.84216e-06
0.000228926
9.88463e-06
0.000225616
9.92415e-06
0.000222294
9.96082e-06
0.000218961
9.99473e-06
0.000215618
1.0026e-05
0.000212265
1.00547e-05
0.000208903
1.00809e-05
0.000205534
1.01048e-05
0.000202157
1.01264e-05
0.000198774
1.01459e-05
0.000195385
1.01633e-05
0.000191991
1.01786e-05
0.000188593
1.01921e-05
0.000185191
1.02038e-05
0.000181785
1.02138e-05
0.000178377
1.02221e-05
0.000174967
1.02289e-05
0.000171554
1.02342e-05
0.000168141
1.02381e-05
0.000164727
1.02407e-05
0.000161312
1.02421e-05
0.000157897
1.02423e-05
0.000154483
1.02415e-05
0.000151069
1.02396e-05
0.000147656
1.02369e-05
0.000144245
1.02332e-05
0.000140835
1.02288e-05
0.000137427
1.02236e-05
0.00013402
1.02177e-05
0.000130616
1.02113e-05
0.000127215
1.02043e-05
0.000123815
1.01968e-05
0.000120419
1.01888e-05
0.000117025
1.01805e-05
0.000113635
1.01718e-05
0.000110247
1.01629e-05
0.000106862
1.01537e-05
0.000103481
1.01443e-05
0.000100102
1.01348e-05
9.67271e-05
1.01252e-05
9.33552e-05
1.01156e-05
8.99866e-05
1.01059e-05
8.66212e-05
1.00963e-05
8.3259e-05
1.00867e-05
7.99e-05
1.00772e-05
7.65442e-05
1.00678e-05
7.31914e-05
1.00586e-05
6.98417e-05
1.00496e-05
6.64949e-05
1.00408e-05
6.31509e-05
1.00322e-05
5.98098e-05
1.00239e-05
5.64713e-05
1.00159e-05
5.31354e-05
1.00083e-05
4.9802e-05
1.00009e-05
4.64709e-05
9.99396e-06
4.3142e-05
9.98737e-06
3.98151e-05
9.98118e-06
3.64902e-05
9.97541e-06
3.31671e-05
9.97006e-06
2.98456e-05
9.96516e-06
2.65256e-05
9.96072e-06
2.3207e-05
9.95674e-06
1.98895e-05
9.95324e-06
1.6573e-05
9.95022e-06
1.32574e-05
9.94769e-06
9.94246e-06
9.94566e-06
6.62802e-06
9.94414e-06
3.31393e-06
9.94312e-06
9.94261e-06
3.33821e-06
-1.33558e-05
6.67663e-06
-1.33566e-05
1.00155e-05
-1.33582e-05
1.33549e-05
-1.33607e-05
1.66952e-05
-1.33641e-05
2.00366e-05
-1.33683e-05
2.33792e-05
-1.33733e-05
2.67233e-05
-1.33791e-05
3.00691e-05
-1.33857e-05
3.34167e-05
-1.33931e-05
3.67663e-05
-1.34012e-05
4.01182e-05
-1.34101e-05
4.34726e-05
-1.34198e-05
4.68295e-05
-1.34301e-05
5.01892e-05
-1.34411e-05
5.35519e-05
-1.34528e-05
5.69176e-05
-1.34651e-05
6.02866e-05
-1.3478e-05
6.3659e-05
-1.34914e-05
6.70349e-05
-1.35054e-05
7.04145e-05
-1.35199e-05
7.37979e-05
-1.35349e-05
7.71851e-05
-1.35503e-05
8.05764e-05
-1.35661e-05
8.39717e-05
-1.35821e-05
8.73711e-05
-1.35985e-05
9.07747e-05
-1.36151e-05
9.41826e-05
-1.36319e-05
9.75948e-05
-1.36488e-05
0.000101011
-1.36658e-05
0.000104432
-1.36828e-05
0.000107857
-1.36998e-05
0.000111286
-1.37166e-05
0.00011472
-1.37332e-05
0.000118158
-1.37496e-05
0.000121599
-1.37656e-05
0.000125045
-1.37812e-05
0.000128495
-1.37964e-05
0.000131948
-1.38109e-05
0.000135405
-1.38248e-05
0.000138865
-1.38379e-05
0.000142329
-1.38501e-05
0.000145795
-1.38615e-05
0.000149264
-1.38717e-05
0.000152735
-1.38808e-05
0.000156208
-1.38887e-05
0.000159684
-1.38952e-05
0.00016316
-1.39002e-05
0.000166637
-1.39036e-05
0.000170115
-1.39053e-05
0.000173593
-1.39052e-05
0.000177071
-1.39031e-05
0.000180548
-1.38989e-05
0.000184023
-1.38925e-05
0.000187496
-1.38837e-05
0.000190966
-1.38724e-05
0.000194433
-1.38585e-05
0.000197896
-1.38419e-05
0.000201355
-1.38223e-05
0.000204807
-1.37996e-05
0.000208254
-1.37738e-05
0.000211693
-1.37446e-05
0.000215124
-1.37118e-05
0.000218546
-1.36755e-05
0.000221959
-1.36353e-05
0.00022536
-1.35911e-05
0.00022875
-1.35428e-05
0.000232126
-1.34902e-05
0.000235488
-1.34332e-05
0.000238835
-1.33716e-05
0.000242166
-1.33053e-05
0.000245479
-1.32341e-05
0.000248773
-1.31579e-05
0.000252047
-1.30765e-05
0.000255299
-1.29897e-05
0.000258528
-1.28975e-05
0.000261733
-1.27997e-05
0.000264912
-1.26961e-05
0.000268064
-1.25867e-05
0.000271187
-1.24713e-05
0.00027428
-1.23498e-05
0.000277341
-1.22221e-05
0.000280369
-1.2088e-05
0.000283361
-1.19475e-05
0.000286317
-1.18005e-05
0.000289235
-1.16469e-05
0.000292112
-1.14866e-05
0.000294948
-1.13196e-05
0.000297741
-1.11458e-05
0.000300488
-1.09652e-05
0.000303188
-1.07777e-05
0.00030584
-1.05833e-05
0.000308442
-1.0382e-05
0.000310991
-1.01737e-05
0.000313487
-9.95863e-06
0.000315927
-9.73664e-06
0.00031831
-9.50782e-06
0.000320634
-9.27222e-06
0.000322897
-9.0299e-06
0.000325098
-8.78093e-06
0.000327235
-8.52542e-06
0.000329306
-8.26346e-06
0.000331311
-7.99517e-06
0.000333246
-7.72069e-06
0.000335111
-7.44016e-06
0.000336905
-7.15374e-06
0.000338625
-6.86161e-06
0.00034027
-6.56395e-06
0.00034184
-6.26096e-06
0.000343333
-5.95286e-06
0.000344747
-5.63987e-06
0.000346081
-5.32222e-06
0.000347335
-5.00017e-06
0.000348507
-4.67397e-06
0.000349596
-4.34389e-06
0.000350601
-4.01022e-06
0.000351522
-3.67323e-06
0.000352358
-3.33323e-06
0.000353107
-2.99052e-06
0.000353771
-2.64542e-06
0.000354347
-2.29822e-06
0.000354835
-1.94926e-06
0.000355236
-1.59887e-06
0.000355549
-1.24736e-06
0.000355773
-8.95079e-07
0.000355908
-5.42346e-07
0.000355956
-1.89497e-07
0.000355914
1.63135e-07
0.000355785
5.1522e-07
0.000355567
8.66432e-07
0.000355262
1.21644e-06
0.000354869
1.56494e-06
0.000354389
1.9116e-06
0.000353823
2.25611e-06
0.000353171
2.59818e-06
0.000352434
2.9375e-06
0.000351613
3.27379e-06
0.000350708
3.60677e-06
0.00034972
3.93617e-06
0.000348651
4.26173e-06
0.000347502
4.5832e-06
0.000346273
4.90034e-06
0.000344965
5.21293e-06
0.000343581
5.52075e-06
0.000342121
5.82359e-06
0.000340586
6.12127e-06
0.000338977
6.41361e-06
0.000337297
6.70044e-06
0.000335547
6.98162e-06
0.000333728
7.25699e-06
0.000331841
7.52643e-06
0.000329888
7.78984e-06
0.000327871
8.0471e-06
0.000325791
8.29813e-06
0.000323649
8.54286e-06
0.000321448
8.78122e-06
0.00031919
9.01315e-06
0.000316874
9.23863e-06
0.000314504
9.45762e-06
0.000312081
9.67011e-06
0.000309606
9.87608e-06
0.000307082
1.00756e-05
0.000304509
1.02685e-05
0.00030189
1.0455e-05
0.000299225
1.06351e-05
0.000296517
1.08088e-05
0.000293768
1.09762e-05
0.000290978
1.11373e-05
0.00028815
1.12921e-05
0.000285284
1.14409e-05
0.000282383
1.15835e-05
0.000279448
1.17202e-05
0.00027648
1.18511e-05
0.000273481
1.19761e-05
0.000270452
1.20955e-05
0.000267395
1.22093e-05
0.000264311
1.23176e-05
0.000261202
1.24206e-05
0.000258067
1.25184e-05
0.00025491
1.26111e-05
0.000251731
1.26988e-05
0.000248532
1.27816e-05
0.000245313
1.28598e-05
0.000242076
1.29333e-05
0.000238821
1.30024e-05
0.000235551
1.30671e-05
0.000232265
1.31276e-05
0.000228966
1.31841e-05
0.000225653
1.32366e-05
0.000222329
1.32854e-05
0.000218993
1.33304e-05
0.000215647
1.3372e-05
0.000212292
1.34101e-05
0.000208928
1.34449e-05
0.000205556
1.34766e-05
0.000202177
1.35053e-05
0.000198792
1.35311e-05
0.000195401
1.35541e-05
0.000192005
1.35745e-05
0.000188605
1.35923e-05
0.000185201
1.36077e-05
0.000181794
1.36209e-05
0.000178384
1.36319e-05
0.000174972
1.36408e-05
0.000171559
1.36477e-05
0.000168144
1.36528e-05
0.000164729
1.36562e-05
0.000161313
1.36579e-05
0.000157897
1.36581e-05
0.000154482
1.36569e-05
0.000151067
1.36543e-05
0.000147653
1.36505e-05
0.000144241
1.36455e-05
0.00014083
1.36395e-05
0.000137421
1.36325e-05
0.000134014
1.36246e-05
0.00013061
1.36159e-05
0.000127208
1.36065e-05
0.000123808
1.35964e-05
0.000120411
1.35857e-05
0.000117017
1.35745e-05
0.000113626
1.35629e-05
0.000110238
1.35509e-05
0.000106853
1.35386e-05
0.000103471
1.3526e-05
0.000100093
1.35133e-05
9.67177e-05
1.35004e-05
9.33458e-05
1.34875e-05
8.99772e-05
1.34745e-05
8.66119e-05
1.34616e-05
8.32498e-05
1.34488e-05
7.98909e-05
1.3436e-05
7.65352e-05
1.34235e-05
7.31826e-05
1.34112e-05
6.98331e-05
1.33991e-05
6.64865e-05
1.33873e-05
6.31429e-05
1.33759e-05
5.9802e-05
1.33648e-05
5.64638e-05
1.33541e-05
5.31283e-05
1.33438e-05
4.97952e-05
1.3334e-05
4.64644e-05
1.33247e-05
4.31359e-05
1.33159e-05
3.98095e-05
1.33076e-05
3.6485e-05
1.32999e-05
3.31623e-05
1.32927e-05
2.98413e-05
1.32862e-05
2.65217e-05
1.32802e-05
2.32036e-05
1.32749e-05
1.98865e-05
1.32702e-05
1.65706e-05
1.32662e-05
1.32554e-05
1.32628e-05
9.94096e-06
1.32601e-05
6.62702e-06
1.32581e-05
3.31343e-06
1.32567e-05
1.3256e-05
3.33737e-06
-1.66931e-05
6.67495e-06
-1.66942e-05
1.0013e-05
-1.66962e-05
1.33516e-05
-1.66994e-05
1.66911e-05
-1.67036e-05
2.00316e-05
-1.67088e-05
2.33735e-05
-1.67151e-05
2.67168e-05
-1.67224e-05
3.00617e-05
-1.67307e-05
3.34086e-05
-1.67399e-05
3.67575e-05
-1.67501e-05
4.01087e-05
-1.67613e-05
4.34623e-05
-1.67734e-05
4.68186e-05
-1.67863e-05
5.01776e-05
-1.68002e-05
5.35397e-05
-1.68148e-05
5.69048e-05
-1.68302e-05
6.02733e-05
-1.68464e-05
6.36451e-05
-1.68633e-05
6.70206e-05
-1.68809e-05
7.03997e-05
-1.68991e-05
7.37827e-05
-1.69179e-05
7.71695e-05
-1.69372e-05
8.05604e-05
-1.6957e-05
8.39555e-05
-1.69772e-05
8.73547e-05
-1.69977e-05
9.07581e-05
-1.70186e-05
9.41659e-05
-1.70397e-05
9.7578e-05
-1.70609e-05
0.000100994
-1.70823e-05
0.000104415
-1.71037e-05
0.00010784
-1.7125e-05
0.00011127
-1.71461e-05
0.000114704
-1.7167e-05
0.000118142
-1.71876e-05
0.000121584
-1.72078e-05
0.00012503
-1.72275e-05
0.00012848
-1.72466e-05
0.000131934
-1.72649e-05
0.000135392
-1.72824e-05
0.000138853
-1.7299e-05
0.000142317
-1.73145e-05
0.000145785
-1.73288e-05
0.000149255
-1.73418e-05
0.000152728
-1.73534e-05
0.000156202
-1.73634e-05
0.000159679
-1.73718e-05
0.000163157
-1.73782e-05
0.000166636
-1.73827e-05
0.000170116
-1.73851e-05
0.000173596
-1.73852e-05
0.000177075
-1.73828e-05
0.000180554
-1.73778e-05
0.000184032
-1.737e-05
0.000187508
-1.73593e-05
0.000190981
-1.73455e-05
0.00019445
-1.73284e-05
0.000197916
-1.73078e-05
0.000201378
-1.72836e-05
0.000204834
-1.72556e-05
0.000208283
-1.72235e-05
0.000211726
-1.71873e-05
0.000215161
-1.71467e-05
0.000218587
-1.71015e-05
0.000222003
-1.70515e-05
0.000225409
-1.69966e-05
0.000228802
-1.69365e-05
0.000232183
-1.68711e-05
0.00023555
-1.68001e-05
0.000238902
-1.67234e-05
0.000242238
-1.66408e-05
0.000245555
-1.65521e-05
0.000248855
-1.64571e-05
0.000252134
-1.63556e-05
0.000255391
-1.62474e-05
0.000258626
-1.61324e-05
0.000261837
-1.60104e-05
0.000265022
-1.58812e-05
0.00026818
-1.57446e-05
0.000271309
-1.56006e-05
0.000274408
-1.54489e-05
0.000277476
-1.52894e-05
0.00028051
-1.5122e-05
0.000283509
-1.49466e-05
0.000286471
-1.4763e-05
0.000289396
-1.45711e-05
0.00029228
-1.43709e-05
0.000295122
-1.41623e-05
0.000297922
-1.39451e-05
0.000300676
-1.37194e-05
0.000303383
-1.3485e-05
0.000306042
-1.3242e-05
0.00030865
-1.29904e-05
0.000311207
-1.27301e-05
0.000313709
-1.24611e-05
0.000316156
-1.21836e-05
0.000318546
-1.18975e-05
0.000320876
-1.16029e-05
0.000323146
-1.12998e-05
0.000325354
-1.09884e-05
0.000327497
-1.06688e-05
0.000329575
-1.03412e-05
0.000331585
-1.00056e-05
0.000333527
-9.66218e-06
0.000335398
-9.31122e-06
0.000337197
-8.95288e-06
0.000338923
-8.58736e-06
0.000340574
-8.21491e-06
0.000342149
-7.83578e-06
0.000343646
-7.45023e-06
0.000345065
-7.05854e-06
0.000346403
-6.66102e-06
0.000347661
-6.25797e-06
0.000348837
-5.84972e-06
0.00034993
-5.4366e-06
0.000350938
-5.01897e-06
0.000351862
-4.59719e-06
0.000352701
-4.17162e-06
0.000353453
-3.74265e-06
0.000354118
-3.31068e-06
0.000354696
-2.87608e-06
0.000355186
-2.43928e-06
0.000355588
-2.00067e-06
0.000355901
-1.56067e-06
0.000356126
-1.1197e-06
0.000356262
-6.78159e-07
0.000356309
-2.36476e-07
0.000356267
2.04929e-07
0.000356136
6.4565e-07
0.000355918
1.08527e-06
0.000355611
1.52339e-06
0.000355216
1.95959e-06
0.000354734
2.3935e-06
0.000354165
2.8247e-06
0.000353511
3.25284e-06
0.000352771
3.67753e-06
0.000351946
4.09842e-06
0.000351038
4.51515e-06
0.000350046
4.92738e-06
0.000348973
5.3348e-06
0.00034782
5.73708e-06
0.000346586
6.13394e-06
0.000345274
6.52507e-06
0.000343884
6.91023e-06
0.000342419
7.28914e-06
0.000340878
7.66158e-06
0.000339265
8.02731e-06
0.000337579
8.38614e-06
0.000335823
8.73786e-06
0.000333997
9.08232e-06
0.000332105
9.41934e-06
0.000330146
9.74878e-06
0.000328122
1.00705e-05
0.000326036
1.03845e-05
0.000323888
1.06905e-05
0.000321681
1.09885e-05
0.000319416
1.12785e-05
0.000317094
1.15604e-05
0.000314717
1.18342e-05
0.000312287
1.20998e-05
0.000309806
1.23573e-05
0.000307275
1.26066e-05
0.000304696
1.28478e-05
0.00030207
1.30809e-05
0.000299399
1.33059e-05
0.000296685
1.35229e-05
0.00029393
1.3732e-05
0.000291134
1.39332e-05
0.000288299
1.41266e-05
0.000285428
1.43124e-05
0.00028252
1.44906e-05
0.000279579
1.46613e-05
0.000276606
1.48246e-05
0.000273601
1.49808e-05
0.000270567