/*--------------------------------*- C++ -*----------------------------------*\
| =========                 |                                                 |
| \\      /  F ield         | OpenFOAM: The Open Source CFD Toolbox           |
|  \\    /   O peration     | Version:  v2012                                 |
|   \\  /    A nd           | Website:  www.openfoam.com                      |
|    \\/     M anipulation  |                                                 |
\*---------------------------------------------------------------------------*/
FoamFile
{
    version     2.0;
    format      ascii;
    class       volVectorField;
    location    "16";
    object      Psi;
}
// * * * * * * * * * * * * * * * * * * * * * * * * * * * * * * * * * * * * * //

dimensions      [0 2 -1 0 0 0 0];


internalField   nonuniform List<vector> 
65536
(
(0 0 8.35033e-06)
(0 0 2.50515e-05)
(0 0 4.17542e-05)
(0 0 5.84595e-05)
(0 0 7.51685e-05)
(0 0 9.18821e-05)
(0 0 0.000108602)
(0 0 0.000125328)
(0 0 0.000142061)
(0 0 0.000158804)
(0 0 0.000175556)
(0 0 0.000192319)
(0 0 0.000209093)
(0 0 0.00022588)
(0 0 0.00024268)
(0 0 0.000259494)
(0 0 0.000276323)
(0 0 0.000293167)
(0 0 0.000310028)
(0 0 0.000326906)
(0 0 0.000343802)
(0 0 0.000360716)
(0 0 0.000377648)
(0 0 0.0003946)
(0 0 0.000411572)
(0 0 0.000428564)
(0 0 0.000445577)
(0 0 0.00046261)
(0 0 0.000479664)
(0 0 0.000496739)
(0 0 0.000513835)
(0 0 0.000530951)
(0 0 0.000548089)
(0 0 0.000565248)
(0 0 0.000582427)
(0 0 0.000599625)
(0 0 0.000616844)
(0 0 0.000634081)
(0 0 0.000651336)
(0 0 0.000668609)
(0 0 0.000685899)
(0 0 0.000703204)
(0 0 0.000720523)
(0 0 0.000737855)
(0 0 0.0007552)
(0 0 0.000772554)
(0 0 0.000789917)
(0 0 0.000807287)
(0 0 0.000824661)
(0 0 0.000842039)
(0 0 0.000859416)
(0 0 0.000876792)
(0 0 0.000894164)
(0 0 0.000911528)
(0 0 0.000928882)
(0 0 0.000946224)
(0 0 0.000963549)
(0 0 0.000980854)
(0 0 0.000998136)
(0 0 0.00101539)
(0 0 0.00103262)
(0 0 0.00104981)
(0 0 0.00106696)
(0 0 0.00108406)
(0 0 0.00110112)
(0 0 0.00111812)
(0 0 0.00113507)
(0 0 0.00115195)
(0 0 0.00116877)
(0 0 0.0011855)
(0 0 0.00120216)
(0 0 0.00121873)
(0 0 0.00123521)
(0 0 0.00125159)
(0 0 0.00126786)
(0 0 0.00128403)
(0 0 0.00130007)
(0 0 0.00131598)
(0 0 0.00133177)
(0 0 0.00134741)
(0 0 0.0013629)
(0 0 0.00137823)
(0 0 0.00139341)
(0 0 0.00140841)
(0 0 0.00142323)
(0 0 0.00143786)
(0 0 0.00145229)
(0 0 0.00146652)
(0 0 0.00148054)
(0 0 0.00149433)
(0 0 0.0015079)
(0 0 0.00152122)
(0 0 0.0015343)
(0 0 0.00154712)
(0 0 0.00155968)
(0 0 0.00157196)
(0 0 0.00158397)
(0 0 0.00159568)
(0 0 0.00160709)
(0 0 0.0016182)
(0 0 0.00162899)
(0 0 0.00163946)
(0 0 0.0016496)
(0 0 0.00165939)
(0 0 0.00166885)
(0 0 0.00167794)
(0 0 0.00168668)
(0 0 0.00169505)
(0 0 0.00170304)
(0 0 0.00171066)
(0 0 0.00171788)
(0 0 0.00172472)
(0 0 0.00173115)
(0 0 0.00173718)
(0 0 0.0017428)
(0 0 0.001748)
(0 0 0.00175279)
(0 0 0.00175716)
(0 0 0.0017611)
(0 0 0.00176461)
(0 0 0.00176769)
(0 0 0.00177033)
(0 0 0.00177254)
(0 0 0.00177432)
(0 0 0.00177565)
(0 0 0.00177654)
(0 0 0.001777)
(0 0 0.00177701)
(0 0 0.00177659)
(0 0 0.00177573)
(0 0 0.00177443)
(0 0 0.00177269)
(0 0 0.00177052)
(0 0 0.00176792)
(0 0 0.00176489)
(0 0 0.00176144)
(0 0 0.00175757)
(0 0 0.00175328)
(0 0 0.00174858)
(0 0 0.00174346)
(0 0 0.00173795)
(0 0 0.00173203)
(0 0 0.00172573)
(0 0 0.00171903)
(0 0 0.00171196)
(0 0 0.00170451)
(0 0 0.00169669)
(0 0 0.00168852)
(0 0 0.00167998)
(0 0 0.0016711)
(0 0 0.00166188)
(0 0 0.00165233)
(0 0 0.00164245)
(0 0 0.00163226)
(0 0 0.00162175)
(0 0 0.00161095)
(0 0 0.00159985)
(0 0 0.00158846)
(0 0 0.0015768)
(0 0 0.00156486)
(0 0 0.00155267)
(0 0 0.00154022)
(0 0 0.00152753)
(0 0 0.0015146)
(0 0 0.00150144)
(0 0 0.00148806)
(0 0 0.00147446)
(0 0 0.00146066)
(0 0 0.00144666)
(0 0 0.00143248)
(0 0 0.00141811)
(0 0 0.00140356)
(0 0 0.00138885)
(0 0 0.00137398)
(0 0 0.00135895)
(0 0 0.00134378)
(0 0 0.00132847)
(0 0 0.00131302)
(0 0 0.00129745)
(0 0 0.00128176)
(0 0 0.00126596)
(0 0 0.00125005)
(0 0 0.00123404)
(0 0 0.00121793)
(0 0 0.00120174)
(0 0 0.00118546)
(0 0 0.0011691)
(0 0 0.00115267)
(0 0 0.00113617)
(0 0 0.0011196)
(0 0 0.00110298)
(0 0 0.0010863)
(0 0 0.00106957)
(0 0 0.0010528)
(0 0 0.00103598)
(0 0 0.00101913)
(0 0 0.00100224)
(0 0 0.000985318)
(0 0 0.000968371)
(0 0 0.000951399)
(0 0 0.000934407)
(0 0 0.000917395)
(0 0 0.000900369)
(0 0 0.00088333)
(0 0 0.00086628)
(0 0 0.000849223)
(0 0 0.00083216)
(0 0 0.000815093)
(0 0 0.000798025)
(0 0 0.000780957)
(0 0 0.000763891)
(0 0 0.000746829)
(0 0 0.000729773)
(0 0 0.000712722)
(0 0 0.00069568)
(0 0 0.000678647)
(0 0 0.000661624)
(0 0 0.000644612)
(0 0 0.000627612)
(0 0 0.000610625)
(0 0 0.000593651)
(0 0 0.000576691)
(0 0 0.000559746)
(0 0 0.000542816)
(0 0 0.000525901)
(0 0 0.000509002)
(0 0 0.000492118)
(0 0 0.000475251)
(0 0 0.0004584)
(0 0 0.000441564)
(0 0 0.000424745)
(0 0 0.000407942)
(0 0 0.000391154)
(0 0 0.000374381)
(0 0 0.000357624)
(0 0 0.000340882)
(0 0 0.000324154)
(0 0 0.00030744)
(0 0 0.000290739)
(0 0 0.000274052)
(0 0 0.000257377)
(0 0 0.000240714)
(0 0 0.000224062)
(0 0 0.000207421)
(0 0 0.000190789)
(0 0 0.000174167)
(0 0 0.000157554)
(0 0 0.000140948)
(0 0 0.000124349)
(0 0 0.000107756)
(0 0 9.11692e-05)
(0 0 7.45867e-05)
(0 0 5.80079e-05)
(0 0 4.14321e-05)
(0 0 2.48584e-05)
(0 0 8.286e-06)
(0 0 2.50506e-05)
(0 0 7.51532e-05)
(0 0 0.00012526)
(0 0 0.000175375)
(0 0 0.000225501)
(0 0 0.000275641)
(0 0 0.000325798)
(0 0 0.000375976)
(0 0 0.000426176)
(0 0 0.000476403)
(0 0 0.000526658)
(0 0 0.000576946)
(0 0 0.000627268)
(0 0 0.000677627)
(0 0 0.000728026)
(0 0 0.000778467)
(0 0 0.000828953)
(0 0 0.000879486)
(0 0 0.000930068)
(0 0 0.000980702)
(0 0 0.00103139)
(0 0 0.00108213)
(0 0 0.00113293)
(0 0 0.00118378)
(0 0 0.0012347)
(0 0 0.00128567)
(0 0 0.00133671)
(0 0 0.00138781)
(0 0 0.00143897)
(0 0 0.0014902)
(0 0 0.00154148)
(0 0 0.00159284)
(0 0 0.00164425)
(0 0 0.00169573)
(0 0 0.00174726)
(0 0 0.00179886)
(0 0 0.00185051)
(0 0 0.00190223)
(0 0 0.00195399)
(0 0 0.00200581)
(0 0 0.00205768)
(0 0 0.0021096)
(0 0 0.00216156)
(0 0 0.00221356)
(0 0 0.00226559)
(0 0 0.00231766)
(0 0 0.00236975)
(0 0 0.00242186)
(0 0 0.00247398)
(0 0 0.00252612)
(0 0 0.00257825)
(0 0 0.00263038)
(0 0 0.0026825)
(0 0 0.0027346)
(0 0 0.00278666)
(0 0 0.00283869)
(0 0 0.00289067)
(0 0 0.00294259)
(0 0 0.00299444)
(0 0 0.00304621)
(0 0 0.00309789)
(0 0 0.00314946)
(0 0 0.00320091)
(0 0 0.00325224)
(0 0 0.00330341)
(0 0 0.00335443)
(0 0 0.00340528)
(0 0 0.00345593)
(0 0 0.00350637)
(0 0 0.0035566)
(0 0 0.00360658)
(0 0 0.0036563)
(0 0 0.00370574)
(0 0 0.00375488)
(0 0 0.00380371)
(0 0 0.0038522)
(0 0 0.00390033)
(0 0 0.00394809)
(0 0 0.00399544)
(0 0 0.00404237)
(0 0 0.00408886)
(0 0 0.00413487)
(0 0 0.00418039)
(0 0 0.0042254)
(0 0 0.00426987)
(0 0 0.00431377)
(0 0 0.00435708)
(0 0 0.00439978)
(0 0 0.00444184)
(0 0 0.00448323)
(0 0 0.00452393)
(0 0 0.00456392)
(0 0 0.00460316)
(0 0 0.00464163)
(0 0 0.00467931)
(0 0 0.00471617)
(0 0 0.00475219)
(0 0 0.00478733)
(0 0 0.00482158)
(0 0 0.00485491)
(0 0 0.00488729)
(0 0 0.00491871)
(0 0 0.00494913)
(0 0 0.00497853)
(0 0 0.00500689)
(0 0 0.00503419)
(0 0 0.00506041)
(0 0 0.00508553)
(0 0 0.00510952)
(0 0 0.00513236)
(0 0 0.00515404)
(0 0 0.00517455)
(0 0 0.00519385)
(0 0 0.00521194)
(0 0 0.00522881)
(0 0 0.00524443)
(0 0 0.0052588)
(0 0 0.0052719)
(0 0 0.00528372)
(0 0 0.00529426)
(0 0 0.0053035)
(0 0 0.00531144)
(0 0 0.00531807)
(0 0 0.00532339)
(0 0 0.00532739)
(0 0 0.00533007)
(0 0 0.00533143)
(0 0 0.00533148)
(0 0 0.0053302)
(0 0 0.00532761)
(0 0 0.00532371)
(0 0 0.0053185)
(0 0 0.005312)
(0 0 0.0053042)
(0 0 0.00529511)
(0 0 0.00528475)
(0 0 0.00527313)
(0 0 0.00526025)
(0 0 0.00524613)
(0 0 0.00523079)
(0 0 0.00521424)
(0 0 0.0051965)
(0 0 0.00517757)
(0 0 0.00515748)
(0 0 0.00513626)
(0 0 0.0051139)
(0 0 0.00509045)
(0 0 0.0050659)
(0 0 0.0050403)
(0 0 0.00501365)
(0 0 0.00498598)
(0 0 0.00495732)
(0 0 0.00492768)
(0 0 0.00489708)
(0 0 0.00486556)
(0 0 0.00483313)
(0 0 0.00479983)
(0 0 0.00476566)
(0 0 0.00473066)
(0 0 0.00469485)
(0 0 0.00465826)
(0 0 0.00462091)
(0 0 0.00458282)
(0 0 0.00454402)
(0 0 0.00450453)
(0 0 0.00446438)
(0 0 0.00442359)
(0 0 0.00438218)
(0 0 0.00434018)
(0 0 0.00429761)
(0 0 0.00425449)
(0 0 0.00421085)
(0 0 0.0041667)
(0 0 0.00412208)
(0 0 0.00407699)
(0 0 0.00403147)
(0 0 0.00398553)
(0 0 0.00393919)
(0 0 0.00389247)
(0 0 0.0038454)
(0 0 0.00379798)
(0 0 0.00375025)
(0 0 0.00370221)
(0 0 0.00365389)
(0 0 0.00360529)
(0 0 0.00355645)
(0 0 0.00350737)
(0 0 0.00345807)
(0 0 0.00340856)
(0 0 0.00335886)
(0 0 0.00330899)
(0 0 0.00325895)
(0 0 0.00320876)
(0 0 0.00315843)
(0 0 0.00310798)
(0 0 0.00305741)
(0 0 0.00300674)
(0 0 0.00295598)
(0 0 0.00290514)
(0 0 0.00285422)
(0 0 0.00280324)
(0 0 0.0027522)
(0 0 0.00270112)
(0 0 0.00265)
(0 0 0.00259885)
(0 0 0.00254767)
(0 0 0.00249648)
(0 0 0.00244528)
(0 0 0.00239407)
(0 0 0.00234287)
(0 0 0.00229167)
(0 0 0.00224048)
(0 0 0.00218931)
(0 0 0.00213816)
(0 0 0.00208703)
(0 0 0.00203593)
(0 0 0.00198486)
(0 0 0.00193382)
(0 0 0.00188282)
(0 0 0.00183186)
(0 0 0.00178094)
(0 0 0.00173006)
(0 0 0.00167922)
(0 0 0.00162843)
(0 0 0.00157769)
(0 0 0.00152699)
(0 0 0.00147634)
(0 0 0.00142574)
(0 0 0.00137518)
(0 0 0.00132468)
(0 0 0.00127422)
(0 0 0.00122381)
(0 0 0.00117345)
(0 0 0.00112313)
(0 0 0.00107286)
(0 0 0.00102263)
(0 0 0.000972447)
(0 0 0.000922305)
(0 0 0.000872204)
(0 0 0.000822143)
(0 0 0.000772118)
(0 0 0.000722129)
(0 0 0.000672174)
(0 0 0.000622251)
(0 0 0.000572358)
(0 0 0.000522493)
(0 0 0.000472653)
(0 0 0.000422836)
(0 0 0.000373041)
(0 0 0.000323264)
(0 0 0.000273503)
(0 0 0.000223756)
(0 0 0.000174021)
(0 0 0.000124294)
(0 0 7.4574e-05)
(0 0 2.48576e-05)
(0 0 4.17493e-05)
(0 0 0.00012525)
(0 0 0.000208759)
(0 0 0.00029228)
(0 0 0.00037582)
(0 0 0.000459384)
(0 0 0.000542976)
(0 0 0.000626601)
(0 0 0.000710265)
(0 0 0.000793973)
(0 0 0.000877729)
(0 0 0.000961539)
(0 0 0.00104541)
(0 0 0.00112933)
(0 0 0.00121333)
(0 0 0.0012974)
(0 0 0.00138154)
(0 0 0.00146576)
(0 0 0.00155006)
(0 0 0.00163444)
(0 0 0.00171892)
(0 0 0.00180349)
(0 0 0.00188815)
(0 0 0.00197291)
(0 0 0.00205776)
(0 0 0.00214272)
(0 0 0.00222778)
(0 0 0.00231295)
(0 0 0.00239822)
(0 0 0.00248359)
(0 0 0.00256907)
(0 0 0.00265466)
(0 0 0.00274035)
(0 0 0.00282614)
(0 0 0.00291204)
(0 0 0.00299803)
(0 0 0.00308413)
(0 0 0.00317032)
(0 0 0.0032566)
(0 0 0.00334297)
(0 0 0.00342942)
(0 0 0.00351595)
(0 0 0.00360256)
(0 0 0.00368922)
(0 0 0.00377595)
(0 0 0.00386273)
(0 0 0.00394956)
(0 0 0.00403642)
(0 0 0.0041233)
(0 0 0.0042102)
(0 0 0.0042971)
(0 0 0.00438399)
(0 0 0.00447086)
(0 0 0.0045577)
(0 0 0.00464448)
(0 0 0.00473121)
(0 0 0.00481785)
(0 0 0.00490439)
(0 0 0.00499082)
(0 0 0.00507712)
(0 0 0.00516326)
(0 0 0.00524923)
(0 0 0.005335)
(0 0 0.00542056)
(0 0 0.00550587)
(0 0 0.00559092)
(0 0 0.00567567)
(0 0 0.00576011)
(0 0 0.00584421)
(0 0 0.00592793)
(0 0 0.00601125)
(0 0 0.00609414)
(0 0 0.00617656)
(0 0 0.00625849)
(0 0 0.0063399)
(0 0 0.00642074)
(0 0 0.00650098)
(0 0 0.00658059)
(0 0 0.00665954)
(0 0 0.00673778)
(0 0 0.00681528)
(0 0 0.006892)
(0 0 0.0069679)
(0 0 0.00704294)
(0 0 0.00711708)
(0 0 0.00719027)
(0 0 0.00726249)
(0 0 0.00733368)
(0 0 0.00740381)
(0 0 0.00747282)
(0 0 0.00754069)
(0 0 0.00760736)
(0 0 0.00767279)
(0 0 0.00773694)
(0 0 0.00779977)
(0 0 0.00786123)
(0 0 0.00792129)
(0 0 0.00797989)
(0 0 0.008037)
(0 0 0.00809257)
(0 0 0.00814657)
(0 0 0.00819895)
(0 0 0.00824968)
(0 0 0.00829871)
(0 0 0.008346)
(0 0 0.00839153)
(0 0 0.00843525)
(0 0 0.00847713)
(0 0 0.00851713)
(0 0 0.00855523)
(0 0 0.00859139)
(0 0 0.00862558)
(0 0 0.00865777)
(0 0 0.00868794)
(0 0 0.00871606)
(0 0 0.00874211)
(0 0 0.00876607)
(0 0 0.00878792)
(0 0 0.00880763)
(0 0 0.0088252)
(0 0 0.00884061)
(0 0 0.00885385)
(0 0 0.00886491)
(0 0 0.00887378)
(0 0 0.00888045)
(0 0 0.00888492)
(0 0 0.00888719)
(0 0 0.00888726)
(0 0 0.00888514)
(0 0 0.00888082)
(0 0 0.00887431)
(0 0 0.00886562)
(0 0 0.00885477)
(0 0 0.00884176)
(0 0 0.0088266)
(0 0 0.00880932)
(0 0 0.00878994)
(0 0 0.00876846)
(0 0 0.00874492)
(0 0 0.00871934)
(0 0 0.00869173)
(0 0 0.00866214)
(0 0 0.00863058)
(0 0 0.00859708)
(0 0 0.00856168)
(0 0 0.0085244)
(0 0 0.00848528)
(0 0 0.00844436)
(0 0 0.00840166)
(0 0 0.00835722)
(0 0 0.00831108)
(0 0 0.00826328)
(0 0 0.00821385)
(0 0 0.00816284)
(0 0 0.00811028)
(0 0 0.00805621)
(0 0 0.00800067)
(0 0 0.0079437)
(0 0 0.00788534)
(0 0 0.00782563)
(0 0 0.00776462)
(0 0 0.00770234)
(0 0 0.00763883)
(0 0 0.00757414)
(0 0 0.0075083)
(0 0 0.00744135)
(0 0 0.00737334)
(0 0 0.0073043)
(0 0 0.00723427)
(0 0 0.00716329)
(0 0 0.00709141)
(0 0 0.00701864)
(0 0 0.00694504)
(0 0 0.00687064)
(0 0 0.00679548)
(0 0 0.00671958)
(0 0 0.00664299)
(0 0 0.00656573)
(0 0 0.00648785)
(0 0 0.00640937)
(0 0 0.00633033)
(0 0 0.00625075)
(0 0 0.00617067)
(0 0 0.00609011)
(0 0 0.0060091)
(0 0 0.00592768)
(0 0 0.00584586)
(0 0 0.00576368)
(0 0 0.00568115)
(0 0 0.0055983)
(0 0 0.00551516)
(0 0 0.00543175)
(0 0 0.00534809)
(0 0 0.0052642)
(0 0 0.0051801)
(0 0 0.00509581)
(0 0 0.00501134)
(0 0 0.00492673)
(0 0 0.00484198)
(0 0 0.0047571)
(0 0 0.00467212)
(0 0 0.00458705)
(0 0 0.00450191)
(0 0 0.0044167)
(0 0 0.00433144)
(0 0 0.00424614)
(0 0 0.00416081)
(0 0 0.00407547)
(0 0 0.00399012)
(0 0 0.00390477)
(0 0 0.00381944)
(0 0 0.00373412)
(0 0 0.00364883)
(0 0 0.00356357)
(0 0 0.00347836)
(0 0 0.00339318)
(0 0 0.00330806)
(0 0 0.003223)
(0 0 0.00313799)
(0 0 0.00305306)
(0 0 0.00296818)
(0 0 0.00288338)
(0 0 0.00279865)
(0 0 0.002714)
(0 0 0.00262943)
(0 0 0.00254493)
(0 0 0.00246051)
(0 0 0.00237617)
(0 0 0.00229192)
(0 0 0.00220774)
(0 0 0.00212365)
(0 0 0.00203963)
(0 0 0.00195569)
(0 0 0.00187183)
(0 0 0.00178805)
(0 0 0.00170434)
(0 0 0.0016207)
(0 0 0.00153713)
(0 0 0.00145363)
(0 0 0.0013702)
(0 0 0.00128682)
(0 0 0.00120351)
(0 0 0.00112026)
(0 0 0.00103705)
(0 0 0.0009539)
(0 0 0.000870793)
(0 0 0.000787729)
(0 0 0.000704704)
(0 0 0.000621714)
(0 0 0.000538755)
(0 0 0.000455823)
(0 0 0.000372915)
(0 0 0.000290025)
(0 0 0.00020715)
(0 0 0.000124286)
(0 0 4.14279e-05)
(0 0 5.84453e-05)
(0 0 0.000175339)
(0 0 0.000292244)
(0 0 0.000409167)
(0 0 0.000526116)
(0 0 0.000643098)
(0 0 0.000760119)
(0 0 0.000877188)
(0 0 0.000994311)
(0 0 0.0011115)
(0 0 0.00122875)
(0 0 0.00134607)
(0 0 0.00146348)
(0 0 0.00158098)
(0 0 0.00169856)
(0 0 0.00181625)
(0 0 0.00193404)
(0 0 0.00205195)
(0 0 0.00216996)
(0 0 0.0022881)
(0 0 0.00240636)
(0 0 0.00252475)
(0 0 0.00264327)
(0 0 0.00276193)
(0 0 0.00288073)
(0 0 0.00299967)
(0 0 0.00311875)
(0 0 0.00323798)
(0 0 0.00335736)
(0 0 0.00347688)
(0 0 0.00359655)
(0 0 0.00371638)
(0 0 0.00383634)
(0 0 0.00395646)
(0 0 0.00407671)
(0 0 0.00419711)
(0 0 0.00431765)
(0 0 0.00443832)
(0 0 0.00455912)
(0 0 0.00468004)
(0 0 0.00480108)
(0 0 0.00492223)
(0 0 0.00504349)
(0 0 0.00516483)
(0 0 0.00528626)
(0 0 0.00540777)
(0 0 0.00552933)
(0 0 0.00565095)
(0 0 0.0057726)
(0 0 0.00589427)
(0 0 0.00601595)
(0 0 0.00613762)
(0 0 0.00625926)
(0 0 0.00638085)
(0 0 0.00650237)
(0 0 0.00662381)
(0 0 0.00674513)
(0 0 0.00686632)
(0 0 0.00698734)
(0 0 0.00710819)
(0 0 0.00722881)
(0 0 0.0073492)
(0 0 0.00746931)
(0 0 0.00758912)
(0 0 0.00770859)
(0 0 0.0078277)
(0 0 0.00794639)
(0 0 0.00806464)
(0 0 0.00818242)
(0 0 0.00829967)
(0 0 0.00841636)
(0 0 0.00853244)
(0 0 0.00864788)
(0 0 0.00876263)
(0 0 0.00887664)
(0 0 0.00898987)
(0 0 0.00910226)
(0 0 0.00921377)
(0 0 0.00932435)
(0 0 0.00943394)
(0 0 0.00954249)
(0 0 0.00964995)
(0 0 0.00975627)
(0 0 0.00986138)
(0 0 0.00996523)
(0 0 0.0100678)
(0 0 0.0101689)
(0 0 0.0102686)
(0 0 0.0103669)
(0 0 0.0104636)
(0 0 0.0105586)
(0 0 0.010652)
(0 0 0.0107437)
(0 0 0.0108336)
(0 0 0.0109216)
(0 0 0.0110077)
(0 0 0.0110918)
(0 0 0.0111739)
(0 0 0.011254)
(0 0 0.0113318)
(0 0 0.0114075)
(0 0 0.0114809)
(0 0 0.0115519)
(0 0 0.0116206)
(0 0 0.0116869)
(0 0 0.0117507)
(0 0 0.0118119)
(0 0 0.0118706)
(0 0 0.0119267)
(0 0 0.01198)
(0 0 0.0120307)
(0 0 0.0120786)
(0 0 0.0121237)
(0 0 0.012166)
(0 0 0.0122054)
(0 0 0.0122419)
(0 0 0.0122755)
(0 0 0.0123061)
(0 0 0.0123337)
(0 0 0.0123583)
(0 0 0.0123799)
(0 0 0.0123985)
(0 0 0.0124139)
(0 0 0.0124264)
(0 0 0.0124357)
(0 0 0.012442)
(0 0 0.0124452)
(0 0 0.0124453)
(0 0 0.0124423)
(0 0 0.0124362)
(0 0 0.0124271)
(0 0 0.0124149)
(0 0 0.0123997)
(0 0 0.0123815)
(0 0 0.0123602)
(0 0 0.012336)
(0 0 0.0123088)
(0 0 0.0122787)
(0 0 0.0122458)
(0 0 0.0122099)
(0 0 0.0121712)
(0 0 0.0121297)
(0 0 0.0120855)
(0 0 0.0120386)
(0 0 0.011989)
(0 0 0.0119367)
(0 0 0.0118819)
(0 0 0.0118246)
(0 0 0.0117648)
(0 0 0.0117025)
(0 0 0.0116379)
(0 0 0.0115709)
(0 0 0.0115016)
(0 0 0.0114301)
(0 0 0.0113565)
(0 0 0.0112808)
(0 0 0.0112029)
(0 0 0.0111231)
(0 0 0.0110414)
(0 0 0.0109577)
(0 0 0.0108722)
(0 0 0.010785)
(0 0 0.010696)
(0 0 0.0106054)
(0 0 0.0105132)
(0 0 0.0104194)
(0 0 0.0103241)
(0 0 0.0102274)
(0 0 0.0101293)
(0 0 0.0100299)
(0 0 0.0099292)
(0 0 0.00982728)
(0 0 0.00972419)
(0 0 0.00961997)
(0 0 0.00951469)
(0 0 0.00940839)
(0 0 0.00930111)
(0 0 0.00919291)
(0 0 0.00908383)
(0 0 0.00897392)
(0 0 0.00886322)
(0 0 0.00875176)
(0 0 0.00863961)
(0 0 0.00852679)
(0 0 0.00841334)
(0 0 0.00829931)
(0 0 0.00818473)
(0 0 0.00806963)
(0 0 0.00795406)
(0 0 0.00783804)
(0 0 0.00772162)
(0 0 0.00760481)
(0 0 0.00748765)
(0 0 0.00737018)
(0 0 0.00725241)
(0 0 0.00713437)
(0 0 0.0070161)
(0 0 0.00689762)
(0 0 0.00677894)
(0 0 0.00666009)
(0 0 0.0065411)
(0 0 0.00642199)
(0 0 0.00630276)
(0 0 0.00618345)
(0 0 0.00606407)
(0 0 0.00594464)
(0 0 0.00582517)
(0 0 0.00570568)
(0 0 0.00558617)
(0 0 0.00546667)
(0 0 0.00534719)
(0 0 0.00522774)
(0 0 0.00510832)
(0 0 0.00498895)
(0 0 0.00486964)
(0 0 0.00475039)
(0 0 0.00463121)
(0 0 0.00451212)
(0 0 0.00439311)
(0 0 0.00427419)
(0 0 0.00415536)
(0 0 0.00403664)
(0 0 0.00391801)
(0 0 0.0037995)
(0 0 0.00368109)
(0 0 0.00356279)
(0 0 0.00344461)
(0 0 0.00332654)
(0 0 0.00320858)
(0 0 0.00309073)
(0 0 0.002973)
(0 0 0.00285537)
(0 0 0.00273786)
(0 0 0.00262046)
(0 0 0.00250316)
(0 0 0.00238597)
(0 0 0.00226888)
(0 0 0.00215189)
(0 0 0.00203499)
(0 0 0.00191819)
(0 0 0.00180147)
(0 0 0.00168484)
(0 0 0.00156829)
(0 0 0.00145181)
(0 0 0.0013354)
(0 0 0.00121905)
(0 0 0.00110277)
(0 0 0.000986537)
(0 0 0.000870356)
(0 0 0.00075422)
(0 0 0.000638121)
(0 0 0.000522054)
(0 0 0.000406015)
(0 0 0.000289996)
(0 0 0.000173991)
(0 0 5.79962e-05)
(0 0 7.51376e-05)
(0 0 0.000225418)
(0 0 0.000375711)
(0 0 0.000526029)
(0 0 0.000676379)
(0 0 0.000826772)
(0 0 0.000977216)
(0 0 0.00112772)
(0 0 0.0012783)
(0 0 0.00142895)
(0 0 0.00157969)
(0 0 0.00173053)
(0 0 0.00188147)
(0 0 0.00203253)
(0 0 0.0021837)
(0 0 0.002335)
(0 0 0.00248644)
(0 0 0.00263802)
(0 0 0.00278975)
(0 0 0.00294163)
(0 0 0.00309367)
(0 0 0.00324588)
(0 0 0.00339826)
(0 0 0.00355082)
(0 0 0.00370355)
(0 0 0.00385647)
(0 0 0.00400958)
(0 0 0.00416287)
(0 0 0.00431635)
(0 0 0.00447003)
(0 0 0.00462389)
(0 0 0.00477795)
(0 0 0.00493219)
(0 0 0.00508663)
(0 0 0.00524125)
(0 0 0.00539605)
(0 0 0.00555104)
(0 0 0.00570619)
(0 0 0.00586152)
(0 0 0.006017)
(0 0 0.00617264)
(0 0 0.00632841)
(0 0 0.00648433)
(0 0 0.00664036)
(0 0 0.0067965)
(0 0 0.00695274)
(0 0 0.00710906)
(0 0 0.00726545)
(0 0 0.00742188)
(0 0 0.00757834)
(0 0 0.00773482)
(0 0 0.00789128)
(0 0 0.0080477)
(0 0 0.00820407)
(0 0 0.00836035)
(0 0 0.00851652)
(0 0 0.00867254)
(0 0 0.0088284)
(0 0 0.00898405)
(0 0 0.00913947)
(0 0 0.00929461)
(0 0 0.00944944)
(0 0 0.00960393)
(0 0 0.00975802)
(0 0 0.00991169)
(0 0 0.0100649)
(0 0 0.0102176)
(0 0 0.0103697)
(0 0 0.0105211)
(0 0 0.010672)
(0 0 0.0108221)
(0 0 0.0109714)
(0 0 0.0111199)
(0 0 0.0112675)
(0 0 0.0114142)
(0 0 0.0115598)
(0 0 0.0117044)
(0 0 0.0118479)
(0 0 0.0119901)
(0 0 0.0121311)
(0 0 0.0122708)
(0 0 0.0124091)
(0 0 0.0125458)
(0 0 0.0126811)
(0 0 0.0128147)
(0 0 0.0129466)
(0 0 0.0130768)
(0 0 0.0132051)
(0 0 0.0133315)
(0 0 0.0134559)
(0 0 0.0135783)
(0 0 0.0136984)
(0 0 0.0138164)
(0 0 0.0139321)
(0 0 0.0140453)
(0 0 0.0141561)
(0 0 0.0142644)
(0 0 0.0143701)
(0 0 0.0144731)
(0 0 0.0145733)
(0 0 0.0146706)
(0 0 0.0147651)
(0 0 0.0148566)
(0 0 0.014945)
(0 0 0.0150303)
(0 0 0.0151124)
(0 0 0.0151912)
(0 0 0.0152667)
(0 0 0.0153389)
(0 0 0.0154076)
(0 0 0.0154728)
(0 0 0.0155344)
(0 0 0.0155925)
(0 0 0.0156469)
(0 0 0.0156976)
(0 0 0.0157446)
(0 0 0.0157878)
(0 0 0.0158272)
(0 0 0.0158628)
(0 0 0.0158945)
(0 0 0.0159222)
(0 0 0.0159461)
(0 0 0.0159661)
(0 0 0.015982)
(0 0 0.0159941)
(0 0 0.0160021)
(0 0 0.0160062)
(0 0 0.0160063)
(0 0 0.0160025)
(0 0 0.0159947)
(0 0 0.0159829)
(0 0 0.0159672)
(0 0 0.0159477)
(0 0 0.0159242)
(0 0 0.0158968)
(0 0 0.0158657)
(0 0 0.0158307)
(0 0 0.0157919)
(0 0 0.0157495)
(0 0 0.0157033)
(0 0 0.0156535)
(0 0 0.0156001)
(0 0 0.0155432)
(0 0 0.0154828)
(0 0 0.0154189)
(0 0 0.0153517)
(0 0 0.0152811)
(0 0 0.0152073)
(0 0 0.0151303)
(0 0 0.0150502)
(0 0 0.014967)
(0 0 0.0148808)
(0 0 0.0147916)
(0 0 0.0146996)
(0 0 0.0146049)
(0 0 0.0145074)
(0 0 0.0144072)
(0 0 0.0143045)
(0 0 0.0141993)
(0 0 0.0140916)
(0 0 0.0139817)
(0 0 0.0138694)
(0 0 0.0137549)
(0 0 0.0136383)
(0 0 0.0135196)
(0 0 0.0133989)
(0 0 0.0132763)
(0 0 0.0131519)
(0 0 0.0130257)
(0 0 0.0128978)
(0 0 0.0127682)
(0 0 0.0126371)
(0 0 0.0125045)
(0 0 0.0123704)
(0 0 0.0122349)
(0 0 0.0120982)
(0 0 0.0119602)
(0 0 0.011821)
(0 0 0.0116807)
(0 0 0.0115393)
(0 0 0.0113969)
(0 0 0.0112535)
(0 0 0.0111092)
(0 0 0.0109641)
(0 0 0.0108182)
(0 0 0.0106715)
(0 0 0.0105241)
(0 0 0.0103761)
(0 0 0.0102274)
(0 0 0.0100782)
(0 0 0.00992845)
(0 0 0.00977822)
(0 0 0.00962754)
(0 0 0.00947645)
(0 0 0.00932499)
(0 0 0.00917319)
(0 0 0.00902108)
(0 0 0.0088687)
(0 0 0.00871608)
(0 0 0.00856324)
(0 0 0.00841022)
(0 0 0.00825703)
(0 0 0.00810371)
(0 0 0.00795028)
(0 0 0.00779677)
(0 0 0.00764318)
(0 0 0.00748955)
(0 0 0.00733589)
(0 0 0.00718222)
(0 0 0.00702856)
(0 0 0.00687492)
(0 0 0.00672132)
(0 0 0.00656777)
(0 0 0.00641428)
(0 0 0.00626086)
(0 0 0.00610753)
(0 0 0.00595429)
(0 0 0.00580116)
(0 0 0.00564813)
(0 0 0.00549523)
(0 0 0.00534244)
(0 0 0.00518979)
(0 0 0.00503727)
(0 0 0.00488489)
(0 0 0.00473265)
(0 0 0.00458055)
(0 0 0.00442859)
(0 0 0.00427679)
(0 0 0.00412512)
(0 0 0.00397361)
(0 0 0.00382224)
(0 0 0.00367101)
(0 0 0.00351993)
(0 0 0.00336899)
(0 0 0.00321818)
(0 0 0.00306751)
(0 0 0.00291697)
(0 0 0.00276656)
(0 0 0.00261627)
(0 0 0.0024661)
(0 0 0.00231604)
(0 0 0.00216609)
(0 0 0.00201624)
(0 0 0.00186649)
(0 0 0.00171683)
(0 0 0.00156725)
(0 0 0.00141775)
(0 0 0.00126832)
(0 0 0.00111896)
(0 0 0.000969647)
(0 0 0.000820386)
(0 0 0.000671168)
(0 0 0.000521984)
(0 0 0.000372827)
(0 0 0.000223688)
(0 0 7.45615e-05)
(0 0 9.18252e-05)
(0 0 0.000275481)
(0 0 0.000459155)
(0 0 0.000642857)
(0 0 0.000826599)
(0 0 0.00101039)
(0 0 0.00119425)
(0 0 0.00137818)
(0 0 0.0015622)
(0 0 0.00174632)
(0 0 0.00193054)
(0 0 0.00211488)
(0 0 0.00229935)
(0 0 0.00248396)
(0 0 0.00266871)
(0 0 0.00285362)
(0 0 0.0030387)
(0 0 0.00322395)
(0 0 0.00340938)
(0 0 0.003595)
(0 0 0.00378082)
(0 0 0.00396685)
(0 0 0.00415308)
(0 0 0.00433953)
(0 0 0.0045262)
(0 0 0.00471309)
(0 0 0.00490021)
(0 0 0.00508757)
(0 0 0.00527516)
(0 0 0.00546298)
(0 0 0.00565104)
(0 0 0.00583933)
(0 0 0.00602786)
(0 0 0.00621662)
(0 0 0.00640561)
(0 0 0.00659482)
(0 0 0.00678425)
(0 0 0.0069739)
(0 0 0.00716375)
(0 0 0.00735381)
(0 0 0.00754405)
(0 0 0.00773446)
(0 0 0.00792504)
(0 0 0.00811578)
(0 0 0.00830665)
(0 0 0.00849764)
(0 0 0.00868873)
(0 0 0.0088799)
(0 0 0.00907114)
(0 0 0.00926241)
(0 0 0.0094537)
(0 0 0.00964497)
(0 0 0.00983621)
(0 0 0.0100274)
(0 0 0.0102184)
(0 0 0.0104094)
(0 0 0.0106001)
(0 0 0.0107907)
(0 0 0.010981)
(0 0 0.011171)
(0 0 0.0113607)
(0 0 0.01155)
(0 0 0.0117389)
(0 0 0.0119274)
(0 0 0.0121153)
(0 0 0.0123026)
(0 0 0.0124893)
(0 0 0.0126753)
(0 0 0.0128605)
(0 0 0.013045)
(0 0 0.0132286)
(0 0 0.0134112)
(0 0 0.0135928)
(0 0 0.0137733)
(0 0 0.0139527)
(0 0 0.0141309)
(0 0 0.0143077)
(0 0 0.0144832)
(0 0 0.0146572)
(0 0 0.0148297)
(0 0 0.0150005)
(0 0 0.0151696)
(0 0 0.015337)
(0 0 0.0155024)
(0 0 0.0156659)
(0 0 0.0158273)
(0 0 0.0159865)
(0 0 0.0161435)
(0 0 0.0162981)
(0 0 0.0164504)
(0 0 0.0166)
(0 0 0.0167471)
(0 0 0.0168914)
(0 0 0.0170329)
(0 0 0.0171715)
(0 0 0.0173071)
(0 0 0.0174396)
(0 0 0.0175689)
(0 0 0.0176949)
(0 0 0.0178176)
(0 0 0.0179367)
(0 0 0.0180523)
(0 0 0.0181642)
(0 0 0.0182724)
(0 0 0.0183768)
(0 0 0.0184773)
(0 0 0.0185738)
(0 0 0.0186662)
(0 0 0.0187545)
(0 0 0.0188386)
(0 0 0.0189184)
(0 0 0.0189939)
(0 0 0.0190649)
(0 0 0.0191315)
(0 0 0.0191936)
(0 0 0.0192511)
(0 0 0.019304)
(0 0 0.0193522)
(0 0 0.0193957)
(0 0 0.0194345)
(0 0 0.0194685)
(0 0 0.0194977)
(0 0 0.0195221)
(0 0 0.0195417)
(0 0 0.0195564)
(0 0 0.0195662)
(0 0 0.0195712)
(0 0 0.0195714)
(0 0 0.0195667)
(0 0 0.0195571)
(0 0 0.0195427)
(0 0 0.0195235)
(0 0 0.0194995)
(0 0 0.0194708)
(0 0 0.0194373)
(0 0 0.0193991)
(0 0 0.0193563)
(0 0 0.0193088)
(0 0 0.0192569)
(0 0 0.0192004)
(0 0 0.0191394)
(0 0 0.019074)
(0 0 0.0190044)
(0 0 0.0189304)
(0 0 0.0188522)
(0 0 0.0187699)
(0 0 0.0186836)
(0 0 0.0185932)
(0 0 0.018499)
(0 0 0.0184009)
(0 0 0.0182991)
(0 0 0.0181936)
(0 0 0.0180845)
(0 0 0.0179719)
(0 0 0.0178559)
(0 0 0.0177366)
(0 0 0.0176141)
(0 0 0.0174884)
(0 0 0.0173596)
(0 0 0.0172279)
(0 0 0.0170933)
(0 0 0.016956)
(0 0 0.0168159)
(0 0 0.0166732)
(0 0 0.016528)
(0 0 0.0163804)
(0 0 0.0162304)
(0 0 0.0160782)
(0 0 0.0159238)
(0 0 0.0157673)
(0 0 0.0156088)
(0 0 0.0154484)
(0 0 0.0152862)
(0 0 0.0151222)
(0 0 0.0149565)
(0 0 0.0147892)
(0 0 0.0146204)
(0 0 0.0144502)
(0 0 0.0142786)
(0 0 0.0141056)
(0 0 0.0139315)
(0 0 0.0137561)
(0 0 0.0135797)
(0 0 0.0134022)
(0 0 0.0132238)
(0 0 0.0130444)
(0 0 0.0128642)
(0 0 0.0126831)
(0 0 0.0125014)
(0 0 0.0123189)
(0 0 0.0121358)
(0 0 0.0119521)
(0 0 0.0117678)
(0 0 0.0115831)
(0 0 0.0113979)
(0 0 0.0112123)
(0 0 0.0110263)
(0 0 0.01084)
(0 0 0.0106534)
(0 0 0.0104666)
(0 0 0.0102795)
(0 0 0.0100922)
(0 0 0.00990478)
(0 0 0.00971721)
(0 0 0.00952953)
(0 0 0.00934178)
(0 0 0.00915397)
(0 0 0.00896613)
(0 0 0.00877828)
(0 0 0.00859043)
(0 0 0.00840262)
(0 0 0.00821486)
(0 0 0.00802716)
(0 0 0.00783953)
(0 0 0.007652)
(0 0 0.00746458)
(0 0 0.00727727)
(0 0 0.00709009)
(0 0 0.00690305)
(0 0 0.00671615)
(0 0 0.0065294)
(0 0 0.00634282)
(0 0 0.0061564)
(0 0 0.00597015)
(0 0 0.00578407)
(0 0 0.00559816)
(0 0 0.00541244)
(0 0 0.00522689)
(0 0 0.00504153)
(0 0 0.00485634)
(0 0 0.00467134)
(0 0 0.00448651)
(0 0 0.00430186)
(0 0 0.00411738)
(0 0 0.00393306)
(0 0 0.00374892)
(0 0 0.00356493)
(0 0 0.0033811)
(0 0 0.00319743)
(0 0 0.00301389)
(0 0 0.0028305)
(0 0 0.00264724)
(0 0 0.0024641)
(0 0 0.00228109)
(0 0 0.00209818)
(0 0 0.00191538)
(0 0 0.00173267)
(0 0 0.00155004)
(0 0 0.0013675)
(0 0 0.00118503)
(0 0 0.00100261)
(0 0 0.000820248)
(0 0 0.000637927)
(0 0 0.000455639)
(0 0 0.000273374)
(0 0 9.1123e-05)
(0 0 0.000108507)
(0 0 0.000325528)
(0 0 0.000542569)
(0 0 0.000759645)
(0 0 0.000976768)
(0 0 0.00119395)
(0 0 0.00141121)
(0 0 0.00162856)
(0 0 0.00184601)
(0 0 0.00206358)
(0 0 0.00228127)
(0 0 0.00249911)
(0 0 0.00271709)
(0 0 0.00293524)
(0 0 0.00315356)
(0 0 0.00337207)
(0 0 0.00359078)
(0 0 0.00380969)
(0 0 0.00402882)
(0 0 0.00424818)
(0 0 0.00446777)
(0 0 0.0046876)
(0 0 0.00490768)
(0 0 0.00512802)
(0 0 0.00534862)
(0 0 0.00556948)
(0 0 0.00579062)
(0 0 0.00601204)
(0 0 0.00623373)
(0 0 0.0064557)
(0 0 0.00667795)
(0 0 0.00690048)
(0 0 0.00712329)
(0 0 0.00734638)
(0 0 0.00756974)
(0 0 0.00779337)
(0 0 0.00801726)
(0 0 0.0082414)
(0 0 0.0084658)
(0 0 0.00869043)
(0 0 0.00891528)
(0 0 0.00914035)
(0 0 0.00936561)
(0 0 0.00959106)
(0 0 0.00981667)
(0 0 0.0100424)
(0 0 0.0102683)
(0 0 0.0104943)
(0 0 0.0107204)
(0 0 0.0109465)
(0 0 0.0111726)
(0 0 0.0113987)
(0 0 0.0116248)
(0 0 0.0118508)
(0 0 0.0120767)
(0 0 0.0123024)
(0 0 0.0125279)
(0 0 0.0127532)
(0 0 0.0129782)
(0 0 0.0132029)
(0 0 0.0134272)
(0 0 0.0136511)
(0 0 0.0138744)
(0 0 0.0140972)
(0 0 0.0143194)
(0 0 0.0145409)
(0 0 0.0147617)
(0 0 0.0149817)
(0 0 0.0152008)
(0 0 0.0154189)
(0 0 0.015636)
(0 0 0.015852)
(0 0 0.0160668)
(0 0 0.0162803)
(0 0 0.0164925)
(0 0 0.0167032)
(0 0 0.0169124)
(0 0 0.01712)
(0 0 0.0173258)
(0 0 0.0175298)
(0 0 0.0177319)
(0 0 0.017932)
(0 0 0.01813)
(0 0 0.0183257)
(0 0 0.0185191)
(0 0 0.0187101)
(0 0 0.0188985)
(0 0 0.0190842)
(0 0 0.0192672)
(0 0 0.0194473)
(0 0 0.0196244)
(0 0 0.0197985)
(0 0 0.0199693)
(0 0 0.0201367)
(0 0 0.0203008)
(0 0 0.0204612)
(0 0 0.020618)
(0 0 0.0207711)
(0 0 0.0209202)
(0 0 0.0210653)
(0 0 0.0212064)
(0 0 0.0213432)
(0 0 0.0214757)
(0 0 0.0216037)
(0 0 0.0217273)
(0 0 0.0218462)
(0 0 0.0219604)
(0 0 0.0220699)
(0 0 0.0221744)
(0 0 0.0222739)
(0 0 0.0223684)
(0 0 0.0224577)
(0 0 0.0225418)
(0 0 0.0226207)
(0 0 0.0226942)
(0 0 0.0227622)
(0 0 0.0228248)
(0 0 0.0228819)
(0 0 0.0229334)
(0 0 0.0229793)
(0 0 0.0230196)
(0 0 0.0230541)
(0 0 0.023083)
(0 0 0.0231062)
(0 0 0.0231236)
(0 0 0.0231352)
(0 0 0.0231411)
(0 0 0.0231413)
(0 0 0.0231357)
(0 0 0.0231243)
(0 0 0.0231073)
(0 0 0.0230845)
(0 0 0.0230561)
(0 0 0.0230221)
(0 0 0.0229824)
(0 0 0.0229372)
(0 0 0.0228865)
(0 0 0.0228303)
(0 0 0.0227688)
(0 0 0.0227019)
(0 0 0.0226297)
(0 0 0.0225523)
(0 0 0.0224698)
(0 0 0.0223822)
(0 0 0.0222897)
(0 0 0.0221923)
(0 0 0.02209)
(0 0 0.0219831)
(0 0 0.0218715)
(0 0 0.0217554)
(0 0 0.0216348)
(0 0 0.02151)
(0 0 0.0213809)
(0 0 0.0212476)
(0 0 0.0211103)
(0 0 0.0209691)
(0 0 0.0208241)
(0 0 0.0206753)
(0 0 0.020523)
(0 0 0.0203671)
(0 0 0.0202078)
(0 0 0.0200453)
(0 0 0.0198795)
(0 0 0.0197107)
(0 0 0.0195389)
(0 0 0.0193642)
(0 0 0.0191868)
(0 0 0.0190066)
(0 0 0.018824)
(0 0 0.0186388)
(0 0 0.0184513)
(0 0 0.0182616)
(0 0 0.0180697)
(0 0 0.0178757)
(0 0 0.0176797)
(0 0 0.0174818)
(0 0 0.0172821)
(0 0 0.0170808)
(0 0 0.0168778)
(0 0 0.0166732)
(0 0 0.0164672)
(0 0 0.0162599)
(0 0 0.0160512)
(0 0 0.0158413)
(0 0 0.0156303)
(0 0 0.0154181)
(0 0 0.015205)
(0 0 0.0149909)
(0 0 0.014776)
(0 0 0.0145602)
(0 0 0.0143437)
(0 0 0.0141265)
(0 0 0.0139087)
(0 0 0.0136902)
(0 0 0.0134713)
(0 0 0.0132518)
(0 0 0.0130319)
(0 0 0.0128117)
(0 0 0.0125911)
(0 0 0.0123701)
(0 0 0.012149)
(0 0 0.0119276)
(0 0 0.011706)
(0 0 0.0114842)
(0 0 0.0112624)
(0 0 0.0110404)
(0 0 0.0108184)