/*--------------------------------*- C++ -*----------------------------------*\
| =========                 |                                                 |
| \\      /  F ield         | OpenFOAM: The Open Source CFD Toolbox           |
|  \\    /   O peration     | Version:  v2012                                 |
|   \\  /    A nd           | Website:  www.openfoam.com                      |
|    \\/     M anipulation  |                                                 |
\*---------------------------------------------------------------------------*/
FoamFile
{
    version     2.0;
    format      ascii;
    class       volVectorField;
    location    "16";
    object      U;
}
// * * * * * * * * * * * * * * * * * * * * * * * * * * * * * * * * * * * * * //

dimensions      [0 1 -1 0 0 0 0];


internalField   nonuniform List<vector> 
65536
(
(0.000680297 -0.000680327 0)
(0.00204096 -0.000680359 0)
(0.00340171 -0.000680453 0)
(0.00476267 -0.000680582 0)
(0.00612394 -0.000680753 0)
(0.00748559 -0.000680966 0)
(0.00884771 -0.00068122 0)
(0.0102104 -0.000681514 0)
(0.0115737 -0.000681848 0)
(0.0129377 -0.000682222 0)
(0.0143025 -0.000682635 0)
(0.0156681 -0.000683086 0)
(0.0170347 -0.000683573 0)
(0.0184023 -0.000684096 0)
(0.019771 -0.000684653 0)
(0.0211409 -0.000685244 0)
(0.0225119 -0.000685866 0)
(0.0238843 -0.000686518 0)
(0.0252579 -0.0006872 0)
(0.026633 -0.000687908 0)
(0.0280095 -0.000688641 0)
(0.0293875 -0.000689397 0)
(0.030767 -0.000690175 0)
(0.0321481 -0.000690971 0)
(0.0335308 -0.000691784 0)
(0.0349152 -0.000692611 0)
(0.0363012 -0.00069345 0)
(0.0376889 -0.000694297 0)
(0.0390783 -0.000695151 0)
(0.0404695 -0.000696008 0)
(0.0418623 -0.000696864 0)
(0.0432569 -0.000697718 0)
(0.0446531 -0.000698565 0)
(0.0460511 -0.000699402 0)
(0.0474507 -0.000700225 0)
(0.048852 -0.00070103 0)
(0.0502548 -0.000701814 0)
(0.0516592 -0.000702573 0)
(0.0530651 -0.000703301 0)
(0.0544724 -0.000703995 0)
(0.055881 -0.000704649 0)
(0.057291 -0.00070526 0)
(0.0587021 -0.000705823 0)
(0.0601143 -0.000706331 0)
(0.0615274 -0.00070678 0)
(0.0629414 -0.000707165 0)
(0.0643561 -0.00070748 0)
(0.0657713 -0.000707719 0)
(0.067187 -0.000707876 0)
(0.0686029 -0.000707945 0)
(0.0700188 -0.00070792 0)
(0.0714346 -0.000707796 0)
(0.07285 -0.000707564 0)
(0.0742649 -0.000707218 0)
(0.075679 -0.000706752 0)
(0.077092 -0.000706159 0)
(0.0785037 -0.000705432 0)
(0.0799138 -0.000704563 0)
(0.081322 -0.000703545 0)
(0.0827281 -0.000702371 0)
(0.0841316 -0.000701034 0)
(0.0855323 -0.000699525 0)
(0.0869299 -0.000697837 0)
(0.0883238 -0.000695963 0)
(0.0897138 -0.000693894 0)
(0.0910995 -0.000691623 0)
(0.0924805 -0.000689142 0)
(0.0938563 -0.000686443 0)
(0.0952264 -0.000683519 0)
(0.0965905 -0.000680362 0)
(0.0979481 -0.000676963 0)
(0.0992986 -0.000673316 0)
(0.100642 -0.000669413 0)
(0.101976 -0.000665247 0)
(0.103303 -0.000660809 0)
(0.10462 -0.000656094 0)
(0.105927 -0.000651094 0)
(0.107224 -0.000645802 0)
(0.108511 -0.000640212 0)
(0.109786 -0.000634318 0)
(0.111048 -0.000628114 0)
(0.112298 -0.000621593 0)
(0.113535 -0.000614752 0)
(0.114758 -0.000607585 0)
(0.115966 -0.000600086 0)
(0.117158 -0.000592253 0)
(0.118335 -0.000584082 0)
(0.119495 -0.000575569 0)
(0.120637 -0.000566711 0)
(0.121762 -0.000557507 0)
(0.122868 -0.000547954 0)
(0.123954 -0.000538051 0)
(0.12502 -0.000527799 0)
(0.126066 -0.000517196 0)
(0.127089 -0.000506244 0)
(0.128091 -0.000494944 0)
(0.129069 -0.000483297 0)
(0.130024 -0.000471307 0)
(0.130955 -0.000458977 0)
(0.13186 -0.00044631 0)
(0.13274 -0.000433311 0)
(0.133594 -0.000419987 0)
(0.134421 -0.000406341 0)
(0.13522 -0.000392383 0)
(0.13599 -0.000378118 0)
(0.136732 -0.000363555 0)
(0.137445 -0.000348703 0)
(0.138127 -0.000333571 0)
(0.138779 -0.00031817 0)
(0.1394 -0.000302509 0)
(0.13999 -0.000286602 0)
(0.140547 -0.000270459 0)
(0.141072 -0.000254093 0)
(0.141563 -0.000237517 0)
(0.142022 -0.000220745 0)
(0.142446 -0.000203792 0)
(0.142837 -0.00018667 0)
(0.143193 -0.000169397 0)
(0.143515 -0.000151986 0)
(0.143801 -0.000134454 0)
(0.144053 -0.000116816 0)
(0.144269 -9.90889e-05 0)
(0.144449 -8.12891e-05 0)
(0.144594 -6.34331e-05 0)
(0.144703 -4.55375e-05 0)
(0.144776 -2.76192e-05 0)
(0.144813 -9.69489e-06 0)
(0.144815 8.21857e-06 0)
(0.14478 2.61045e-05 0)
(0.14471 4.39463e-05 0)
(0.144604 6.17277e-05 0)
(0.144463 7.94324e-05 0)
(0.144287 9.70444e-05 0)
(0.144075 0.000114548 0)
(0.143828 0.000131928 0)
(0.143547 0.00014917 0)
(0.143231 0.000166258 0)
(0.142882 0.000183179 0)
(0.142498 0.000199919 0)
(0.142082 0.000216465 0)
(0.141632 0.000232804 0)
(0.14115 0.000248924 0)
(0.140636 0.000264814 0)
(0.140091 0.000280463 0)
(0.139514 0.00029586 0)
(0.138907 0.000310996 0)
(0.13827 0.000325862 0)
(0.137603 0.000340449 0)
(0.136908 0.000354749 0)
(0.136184 0.000368756 0)
(0.135432 0.000382463 0)
(0.134654 0.000395864 0)
(0.133848 0.000408954 0)
(0.133017 0.000421728 0)
(0.132161 0.000434183 0)
(0.13128 0.000446315 0)
(0.130376 0.000458122 0)
(0.129447 0.000469602 0)
(0.128497 0.000480752 0)
(0.127524 0.000491573 0)
(0.12653 0.000502064 0)
(0.125515 0.000512225 0)
(0.124481 0.000522057 0)
(0.123427 0.00053156 0)
(0.122354 0.000540738 0)
(0.121263 0.000549591 0)
(0.120155 0.000558123 0)
(0.119031 0.000566336 0)
(0.11789 0.000574233 0)
(0.116733 0.000581819 0)
(0.115562 0.000589097 0)
(0.114377 0.000596072 0)
(0.113177 0.000602749 0)
(0.111965 0.000609132 0)
(0.110741 0.000615226 0)
(0.109504 0.000621038 0)
(0.108256 0.000626572 0)
(0.106997 0.000631834 0)
(0.105728 0.000636831 0)
(0.10445 0.000641568 0)
(0.103162 0.000646053 0)
(0.101865 0.00065029 0)
(0.10056 0.000654287 0)
(0.0992478 0.00065805 0)
(0.0979279 0.000661586 0)
(0.0966012 0.000664901 0)
(0.095268 0.000668003 0)
(0.0939289 0.000670898 0)
(0.0925842 0.000673592 0)
(0.0912343 0.000676092 0)
(0.0898796 0.000678406 0)
(0.0885204 0.000680539 0)
(0.0871572 0.000682499 0)
(0.0857902 0.000684292 0)
(0.0844198 0.000685924 0)
(0.0830463 0.000687402 0)
(0.08167 0.000688732 0)
(0.0802912 0.000689922 0)
(0.0789101 0.000690976 0)
(0.0775271 0.000691901 0)
(0.0761423 0.000692703 0)
(0.0747561 0.000693388 0)
(0.0733686 0.000693963 0)
(0.0719801 0.000694432 0)
(0.0705908 0.000694801 0)
(0.0692008 0.000695076 0)
(0.0678103 0.000695262 0)
(0.0664196 0.000695365 0)
(0.0650287 0.000695389 0)
(0.0636379 0.000695339 0)
(0.0622472 0.000695222 0)
(0.0608569 0.00069504 0)
(0.059467 0.0006948 0)
(0.0580776 0.000694505 0)
(0.0566889 0.00069416 0)
(0.0553009 0.000693769 0)
(0.0539137 0.000693337 0)
(0.0525274 0.000692866 0)
(0.0511421 0.000692363 0)
(0.0497579 0.000691829 0)
(0.0483748 0.000691269 0)
(0.0469928 0.000690686 0)
(0.0456119 0.000690084 0)
(0.0442324 0.000689466 0)
(0.042854 0.000688835 0)
(0.041477 0.000688194 0)
(0.0401012 0.000687547 0)
(0.0387267 0.000686895 0)
(0.0373536 0.000686243 0)
(0.0359817 0.000685591 0)
(0.0346111 0.000684944 0)
(0.0332419 0.000684302 0)
(0.0318739 0.000683669 0)
(0.0305072 0.000683047 0)
(0.0291417 0.000682437 0)
(0.0277774 0.000681842 0)
(0.0264143 0.000681264 0)
(0.0250523 0.000680704 0)
(0.0236914 0.000680164 0)
(0.0223316 0.000679645 0)
(0.0209728 0.00067915 0)
(0.019615 0.000678679 0)
(0.0182581 0.000678233 0)
(0.0169021 0.000677815 0)
(0.0155468 0.000677424 0)
(0.0141923 0.000677063 0)
(0.0128385 0.000676731 0)
(0.0114854 0.000676431 0)
(0.0101328 0.000676161 0)
(0.00878073 0.000675925 0)
(0.0074291 0.00067572 0)
(0.00607784 0.00067555 0)
(0.00472688 0.000675412 0)
(0.00337617 0.000675309 0)
(0.00202564 0.00067524 0)
(0.000675207 0.000675205 0)
(0.000680264 -0.0020409 0)
(0.00204083 -0.00204103 0)
(0.0034015 -0.0020413 0)
(0.00476238 -0.00204168 0)
(0.00612357 -0.00204219 0)
(0.00748514 -0.00204283 0)
(0.00884718 -0.00204359 0)
(0.0102098 -0.00204448 0)
(0.011573 -0.00204548 0)
(0.0129369 -0.0020466 0)
(0.0143016 -0.00204784 0)
(0.0156672 -0.00204919 0)
(0.0170337 -0.00205066 0)
(0.0184013 -0.00205223 0)
(0.0197699 -0.0020539 0)
(0.0211397 -0.00205567 0)
(0.0225107 -0.00205754 0)
(0.0238829 -0.0020595 0)
(0.0252565 -0.00206155 0)
(0.0266316 -0.00206367 0)
(0.028008 -0.00206588 0)
(0.029386 -0.00206815 0)
(0.0307654 -0.00207048 0)
(0.0321465 -0.00207287 0)
(0.0335292 -0.00207531 0)
(0.0349135 -0.0020778 0)
(0.0362995 -0.00208032 0)
(0.0376872 -0.00208286 0)
(0.0390766 -0.00208542 0)
(0.0404678 -0.002088 0)
(0.0418606 -0.00209057 0)
(0.0432552 -0.00209314 0)
(0.0446515 -0.00209568 0)
(0.0460494 -0.00209819 0)
(0.0474491 -0.00210067 0)
(0.0488504 -0.00210309 0)
(0.0502533 -0.00210544 0)
(0.0516577 -0.00210772 0)
(0.0530637 -0.00210991 0)
(0.054471 -0.002112 0)
(0.0558798 -0.00211397 0)
(0.0572898 -0.0021158 0)
(0.058701 -0.0021175 0)
(0.0601133 -0.00211903 0)
(0.0615266 -0.00212038 0)
(0.0629407 -0.00212154 0)
(0.0643555 -0.00212249 0)
(0.065771 -0.00212321 0)
(0.0671868 -0.00212369 0)
(0.0686028 -0.0021239 0)
(0.070019 -0.00212384 0)
(0.071435 -0.00212347 0)
(0.0728506 -0.00212278 0)
(0.0742657 -0.00212175 0)
(0.0756801 -0.00212036 0)
(0.0770933 -0.00211859 0)
(0.0785053 -0.00211641 0)
(0.0799157 -0.00211381 0)
(0.0813243 -0.00211077 0)
(0.0827306 -0.00210725 0)
(0.0841345 -0.00210325 0)
(0.0855356 -0.00209873 0)
(0.0869334 -0.00209367 0)
(0.0883278 -0.00208806 0)
(0.0897182 -0.00208186 0)
(0.0911043 -0.00207505 0)
(0.0924857 -0.00206762 0)
(0.0938619 -0.00205953 0)
(0.0952325 -0.00205076 0)
(0.0965971 -0.0020413 0)
(0.0979551 -0.00203111 0)
(0.0993061 -0.00202018 0)
(0.10065 -0.00200847 0)
(0.101985 -0.00199598 0)
(0.103312 -0.00198268 0)
(0.10463 -0.00196854 0)
(0.105938 -0.00195354 0)
(0.107235 -0.00193767 0)
(0.108522 -0.00192091 0)
(0.109798 -0.00190323 0)
(0.111061 -0.00188463 0)
(0.112312 -0.00186507 0)
(0.113549 -0.00184455 0)
(0.114772 -0.00182305 0)
(0.115981 -0.00180056 0)
(0.117174 -0.00177707 0)
(0.118352 -0.00175256 0)
(0.119512 -0.00172702 0)
(0.120655 -0.00170045 0)
(0.121781 -0.00167284 0)
(0.122887 -0.00164418 0)
(0.123974 -0.00161447 0)
(0.125041 -0.00158371 0)
(0.126087 -0.0015519 0)
(0.127112 -0.00151905 0)
(0.128114 -0.00148514 0)
(0.129093 -0.0014502 0)
(0.130049 -0.00141423 0)
(0.13098 -0.00137723 0)
(0.131886 -0.00133923 0)
(0.132767 -0.00130023 0)
(0.133621 -0.00126024 0)
(0.134448 -0.0012193 0)
(0.135248 -0.00117742 0)
(0.136019 -0.00113462 0)
(0.136762 -0.00109092 0)
(0.137475 -0.00104635 0)
(0.138158 -0.00100095 0)
(0.13881 -0.000954731 0)
(0.139432 -0.000907739 0)
(0.140022 -0.000860004 0)
(0.140579 -0.000811562 0)
(0.141105 -0.000762451 0)
(0.141597 -0.000712711 0)
(0.142056 -0.000662381 0)
(0.142481 -0.000611505 0)
(0.142872 -0.000560126 0)
(0.143228 -0.00050829 0)
(0.14355 -0.000456042 0)
(0.143837 -0.000403429 0)
(0.144088 -0.000350499 0)
(0.144304 -0.000297302 0)
(0.144485 -0.000243886 0)
(0.14463 -0.000190301 0)
(0.144739 -0.000136597 0)
(0.144812 -8.28258e-05 0)
(0.144849 -2.90362e-05 0)
(0.14485 2.47208e-05 0)
(0.144816 7.83951e-05 0)
(0.144746 0.000131937 0)
(0.14464 0.000185297 0)
(0.144498 0.000238427 0)
(0.144322 0.000291279 0)
(0.14411 0.000343805 0)
(0.143863 0.00039596 0)
(0.143581 0.000447699 0)
(0.143265 0.000498978 0)
(0.142915 0.000549754 0)
(0.142532 0.000599987 0)
(0.142115 0.000649637 0)
(0.141665 0.000698667 0)
(0.141182 0.000747039 0)
(0.140668 0.00079472 0)
(0.140122 0.000841676 0)
(0.139545 0.000887877 0)
(0.138937 0.000933294 0)
(0.138299 0.000977899 0)
(0.137632 0.00102167 0)
(0.136936 0.00106457 0)
(0.136212 0.0011066 0)
(0.135459 0.00114773 0)
(0.13468 0.00118794 0)
(0.133874 0.00122721 0)
(0.133043 0.00126554 0)
(0.132186 0.0013029 0)
(0.131304 0.0013393 0)
(0.130399 0.00137473 0)
(0.12947 0.00140916 0)
(0.128519 0.00144262 0)
(0.127545 0.00147508 0)
(0.126551 0.00150655 0)
(0.125535 0.00153703 0)
(0.1245 0.00156653 0)
(0.123446 0.00159504 0)
(0.122372 0.00162257 0)
(0.121281 0.00164912 0)
(0.120172 0.00167472 0)
(0.119047 0.00169935 0)
(0.117905 0.00172304 0)
(0.116748 0.00174579 0)
(0.115576 0.00176762 0)
(0.11439 0.00178854 0)
(0.113191 0.00180857 0)
(0.111978 0.00182771 0)
(0.110753 0.00184599 0)
(0.109515 0.00186342 0)
(0.108267 0.00188001 0)
(0.107008 0.0018958 0)
(0.105738 0.00191078 0)
(0.104459 0.00192499 0)
(0.103171 0.00193843 0)
(0.101874 0.00195114 0)
(0.100568 0.00196312 0)
(0.0992551 0.0019744 0)
(0.0979348 0.001985 0)
(0.0966076 0.00199494 0)
(0.0952741 0.00200424 0)
(0.0939345 0.00201292 0)
(0.0925894 0.00202099 0)
(0.0912391 0.00202849 0)
(0.0898841 0.00203542 0)
(0.0885246 0.00204182 0)
(0.087161 0.00204769 0)
(0.0857937 0.00205306 0)
(0.084423 0.00205795 0)
(0.0830492 0.00206238 0)
(0.0816726 0.00206636 0)
(0.0802935 0.00206992 0)
(0.0789122 0.00207308 0)
(0.0775289 0.00207585 0)
(0.0761439 0.00207825 0)
(0.0747574 0.0020803 0)
(0.0733697 0.00208202 0)
(0.071981 0.00208342 0)
(0.0705914 0.00208452 0)
(0.0692013 0.00208534 0)
(0.0678107 0.00208589 0)
(0.0664198 0.0020862 0)
(0.0650288 0.00208626 0)
(0.0636378 0.00208611 0)
(0.062247 0.00208575 0)
(0.0608565 0.0020852 0)
(0.0594665 0.00208448 0)
(0.058077 0.00208359 0)
(0.0566882 0.00208255 0)
(0.0553001 0.00208137 0)
(0.0539128 0.00208007 0)
(0.0525265 0.00207866 0)
(0.0511412 0.00207714 0)
(0.0497569 0.00207554 0)
(0.0483737 0.00207385 0)
(0.0469916 0.0020721 0)
(0.0456108 0.00207029 0)
(0.0442311 0.00206843 0)
(0.0428528 0.00206654 0)
(0.0414757 0.00206461 0)
(0.0400999 0.00206267 0)
(0.0387254 0.00206071 0)
(0.0373523 0.00205875 0)
(0.0359804 0.00205679 0)
(0.0346099 0.00205485 0)
(0.0332406 0.00205292 0)
(0.0318727 0.00205102 0)
(0.030506 0.00204915 0)
(0.0291405 0.00204732 0)
(0.0277762 0.00204553 0)
(0.0264132 0.0020438 0)
(0.0250512 0.00204212 0)
(0.0236904 0.00204049 0)
(0.0223306 0.00203894 0)
(0.0209719 0.00203745 0)
(0.0196141 0.00203603 0)
(0.0182572 0.0020347 0)
(0.0169013 0.00203344 0)
(0.0155461 0.00203227 0)
(0.0141917 0.00203118 0)
(0.0128379 0.00203019 0)
(0.0114848 0.00202928 0)
(0.0101323 0.00202848 0)
(0.0087803 0.00202776 0)
(0.00742873 0.00202715 0)
(0.00607753 0.00202664 0)
(0.00472665 0.00202623 0)
(0.003376 0.00202592 0)
(0.00202554 0.00202571 0)
(0.000675173 0.00202561 0)
(0.000680169 -0.00340138 0)
(0.00204056 -0.00340159 0)
(0.00340107 -0.00340201 0)
(0.00476179 -0.00340265 0)
(0.00612282 -0.0034035 0)
(0.00748422 -0.00340456 0)
(0.0088461 -0.00340583 0)
(0.0102085 -0.00340731 0)
(0.0115716 -0.00340898 0)
(0.0129354 -0.00341086 0)
(0.0142999 -0.00341292 0)
(0.0156654 -0.00341518 0)
(0.0170317 -0.00341762 0)
(0.0183991 -0.00342024 0)
(0.0197676 -0.00342304 0)
(0.0211373 -0.003426 0)
(0.0225081 -0.00342912 0)
(0.0238803 -0.00343239 0)
(0.0252538 -0.0034358 0)
(0.0266287 -0.00343935 0)
(0.028005 -0.00344303 0)
(0.0293829 -0.00344682 0)
(0.0307623 -0.00345072 0)
(0.0321433 -0.00345471 0)
(0.0335259 -0.00345879 0)
(0.0349102 -0.00346293 0)
(0.0362962 -0.00346714 0)
(0.0376839 -0.00347139 0)
(0.0390732 -0.00347568 0)
(0.0404644 -0.00347998 0)
(0.0418572 -0.00348428 0)
(0.0432518 -0.00348856 0)
(0.0446481 -0.00349281 0)
(0.0460462 -0.00349701 0)
(0.0474459 -0.00350115 0)
(0.0488472 -0.0035052 0)
(0.0502502 -0.00350914 0)
(0.0516548 -0.00351295 0)
(0.0530609 -0.00351661 0)
(0.0544684 -0.0035201 0)
(0.0558773 -0.0035234 0)
(0.0572875 -0.00352648 0)
(0.0586989 -0.00352932 0)
(0.0601114 -0.00353189 0)
(0.061525 -0.00353416 0)
(0.0629393 -0.00353611 0)
(0.0643545 -0.00353771 0)
(0.0657702 -0.00353894 0)
(0.0671864 -0.00353975 0)
(0.0686028 -0.00354013 0)
(0.0700193 -0.00354004 0)
(0.0714357 -0.00353945 0)
(0.0728518 -0.00353832 0)
(0.0742674 -0.00353663 0)
(0.0756822 -0.00353433 0)
(0.077096 -0.0035314 0)
(0.0785086 -0.0035278 0)
(0.0799195 -0.00352349 0)
(0.0813287 -0.00351844 0)
(0.0827357 -0.00351261 0)
(0.0841402 -0.00350596 0)
(0.085542 -0.00349845 0)
(0.0869406 -0.00349005 0)
(0.0883357 -0.00348072 0)
(0.0897269 -0.00347041 0)
(0.0911139 -0.0034591 0)
(0.0924961 -0.00344673 0)
(0.0938732 -0.00343327 0)
(0.0952448 -0.00341869 0)
(0.0966103 -0.00340294 0)
(0.0979693 -0.00338599 0)
(0.0993213 -0.00336779 0)
(0.100666 -0.00334831 0)
(0.102002 -0.00332751 0)
(0.10333 -0.00330536 0)
(0.104649 -0.00328182 0)
(0.105958 -0.00325685 0)
(0.107257 -0.00323043 0)
(0.108545 -0.00320251 0)
(0.109822 -0.00317307 0)
(0.111087 -0.00314207 0)
(0.112338 -0.0031095 0)
(0.113577 -0.00307531 0)
(0.114802 -0.0030395 0)
(0.116012 -0.00300203 0)
(0.117206 -0.00296288 0)
(0.118385 -0.00292204 0)
(0.119547 -0.00287949 0)
(0.120692 -0.00283521 0)
(0.121818 -0.00278919 0)
(0.122926 -0.00274143 0)
(0.124015 -0.00269192 0)
(0.125083 -0.00264066 0)
(0.12613 -0.00258764 0)
(0.127156 -0.00253288 0)
(0.12816 -0.00247636 0)
(0.12914 -0.00241812 0)
(0.130097 -0.00235815 0)
(0.13103 -0.00229648 0)
(0.131938 -0.00223312 0)
(0.132819 -0.0021681 0)
(0.133675 -0.00210145 0)
(0.134504 -0.00203319 0)
(0.135304 -0.00196335 0)
(0.136077 -0.00189199 0)
(0.136821 -0.00181913 0)
(0.137535 -0.00174482 0)
(0.138219 -0.00166911 0)
(0.138873 -0.00159205 0)
(0.139495 -0.00151369 0)
(0.140086 -0.00143409 0)
(0.140645 -0.00135332 0)
(0.141171 -0.00127142 0)
(0.141664 -0.00118847 0)
(0.142123 -0.00110454 0)
(0.142549 -0.0010197 0)
(0.14294 -0.00093402 0)
(0.143298 -0.000847575 0)
(0.14362 -0.000760442 0)
(0.143907 -0.000672701 0)
(0.144159 -0.000584431 0)
(0.144375 -0.000495713 0)
(0.144556 -0.000406631 0)
(0.144701 -0.000317268 0)
(0.14481 -0.000227706 0)
(0.144884 -0.000138031 0)
(0.144921 -4.83257e-05 0)
(0.144922 4.13249e-05 0)
(0.144888 0.000130837 0)
(0.144817 0.000220129 0)
(0.144711 0.000309116 0)
(0.144569 0.000397719 0)
(0.144392 0.000485858 0)
(0.14418 0.000573453 0)
(0.143932 0.000660428 0)
(0.14365 0.000746707 0)
(0.143334 0.000832219 0)
(0.142983 0.000916892 0)
(0.142598 0.00100066 0)
(0.142181 0.00108345 0)
(0.14173 0.0011652 0)
(0.141246 0.00124586 0)
(0.140731 0.00132537 0)
(0.140184 0.00140366 0)
(0.139606 0.0014807 0)
(0.138997 0.00155642 0)
(0.138358 0.00163079 0)
(0.13769 0.00170376 0)
(0.136993 0.0017753 0)
(0.136267 0.00184537 0)
(0.135514 0.00191393 0)
(0.134733 0.00198096 0)
(0.133926 0.00204643 0)
(0.133093 0.00211032 0)
(0.132235 0.00217261 0)
(0.131352 0.00223328 0)
(0.130446 0.00229233 0)
(0.129516 0.00234973 0)
(0.128563 0.00240549 0)
(0.127588 0.00245959 0)
(0.126592 0.00251205 0)
(0.125576 0.00256285 0)
(0.124539 0.002612 0)
(0.123483 0.00265951 0)
(0.122408 0.00270539 0)
(0.121316 0.00274964 0)
(0.120206 0.00279228 0)
(0.119079 0.00283333 0)
(0.117936 0.0028728 0)
(0.116778 0.00291071 0)
(0.115605 0.00294708 0)
(0.114418 0.00298193 0)
(0.113217 0.00301528 0)
(0.112003 0.00304717 0)
(0.110776 0.00307762 0)
(0.109538 0.00310665 0)
(0.108289 0.00313429 0)
(0.107028 0.00316057 0)
(0.105758 0.00318552 0)
(0.104478 0.00320918 0)
(0.103188 0.00323156 0)
(0.10189 0.00325272 0)
(0.100584 0.00327267 0)
(0.0992698 0.00329145 0)
(0.0979486 0.0033091 0)
(0.0966206 0.00332564 0)
(0.0952862 0.00334112 0)
(0.0939458 0.00335556 0)
(0.0925999 0.00336899 0)
(0.0912489 0.00338146 0)
(0.0898931 0.003393 0)
(0.0885329 0.00340363 0)
(0.0871686 0.00341339 0)
(0.0858006 0.00342232 0)
(0.0844293 0.00343045 0)
(0.0830549 0.00343781 0)
(0.0816777 0.00344443 0)
(0.0802981 0.00345035 0)
(0.0789162 0.00345559 0)
(0.0775324 0.00346018 0)
(0.076147 0.00346416 0)
(0.07476 0.00346756 0)
(0.0733719 0.0034704 0)
(0.0719828 0.00347272 0)
(0.0705928 0.00347454 0)
(0.0692023 0.00347589 0)
(0.0678113 0.00347679 0)
(0.0664201 0.00347728 0)
(0.0650288 0.00347737 0)
(0.0636375 0.0034771 0)
(0.0622465 0.00347649 0)
(0.0608558 0.00347556 0)
(0.0594655 0.00347433 0)
(0.0580758 0.00347284 0)
(0.0566868 0.00347109 0)
(0.0552985 0.00346912 0)
(0.0539111 0.00346693 0)
(0.0525246 0.00346456 0)
(0.0511392 0.00346202 0)
(0.0497547 0.00345934 0)
(0.0483715 0.00345652 0)
(0.0469893 0.00345359 0)
(0.0456084 0.00345056 0)
(0.0442287 0.00344746 0)
(0.0428503 0.00344429 0)
(0.0414732 0.00344107 0)
(0.0400974 0.00343782 0)
(0.0387229 0.00343455 0)
(0.0373497 0.00343127 0)
(0.0359779 0.003428 0)
(0.0346074 0.00342475 0)
(0.0332382 0.00342153 0)
(0.0318702 0.00341835 0)
(0.0305036 0.00341523 0)
(0.0291381 0.00341217 0)
(0.0277739 0.00340919 0)
(0.0264109 0.00340629 0)
(0.0250491 0.00340348 0)
(0.0236883 0.00340077 0)
(0.0223286 0.00339817 0)
(0.02097 0.00339569 0)
(0.0196123 0.00339333 0)
(0.0182556 0.00339109 0)
(0.0168997 0.003389 0)
(0.0155446 0.00338704 0)
(0.0141903 0.00338523 0)
(0.0128367 0.00338357 0)
(0.0114837 0.00338206 0)
(0.0101313 0.00338071 0)
(0.00877943 0.00337952 0)
(0.00742799 0.0033785 0)
(0.00607693 0.00337764 0)
(0.00472618 0.00337695 0)
(0.00337567 0.00337644 0)
(0.00202534 0.00337609 0)
(0.000675105 0.00337592 0)
(0.000680039 -0.00476165 0)
(0.00204017 -0.00476194 0)
(0.00340043 -0.00476253 0)
(0.00476091 -0.00476342 0)
(0.00612168 -0.00476461 0)
(0.00748284 -0.0047661 0)
(0.00884447 -0.00476788 0)
(0.0102067 -0.00476995 0)
(0.0115695 -0.0047723 0)
(0.012933 -0.00477493 0)
(0.0142974 -0.00477783 0)
(0.0156626 -0.004781 0)
(0.0170287 -0.00478442 0)
(0.0183959 -0.0047881 0)
(0.0197642 -0.00479202 0)
(0.0211337 -0.00479617 0)
(0.0225043 -0.00480055 0)
(0.0238763 -0.00480514 0)
(0.0252496 -0.00480993 0)
(0.0266244 -0.00481492 0)
(0.0280006 -0.00482008 0)
(0.0293783 -0.0048254 0)
(0.0307576 -0.00483087 0)
(0.0321385 -0.00483648 0)
(0.033521 -0.0048422 0)
(0.0349052 -0.00484803 0)
(0.0362911 -0.00485394 0)
(0.0376788 -0.00485991 0)
(0.0390681 -0.00486593 0)
(0.0404593 -0.00487197 0)
(0.0418521 -0.00487801 0)
(0.0432467 -0.00488403 0)
(0.0446431 -0.00489001 0)
(0.0460412 -0.00489592 0)
(0.047441 -0.00490173 0)
(0.0488425 -0.00490743 0)
(0.0502456 -0.00491297 0)
(0.0516503 -0.00491834 0)
(0.0530566 -0.0049235 0)
(0.0544644 -0.00492842 0)
(0.0558735 -0.00493307 0)
(0.057284 -0.00493742 0)
(0.0586957 -0.00494142 0)
(0.0601086 -0.00494505 0)
(0.0615225 -0.00494828 0)
(0.0629373 -0.00495105 0)
(0.0643528 -0.00495333 0)
(0.065769 -0.00495508 0)
(0.0671857 -0.00495627 0)
(0.0686027 -0.00495684 0)
(0.0700198 -0.00495676 0)
(0.0714368 -0.00495597 0)
(0.0728536 -0.00495444 0)
(0.0742699 -0.00495212 0)
(0.0756854 -0.00494896 0)
(0.0771 -0.00494491 0)
(0.0785134 -0.00493991 0)
(0.0799252 -0.00493393 0)
(0.0813353 -0.00492691 0)
(0.0827433 -0.0049188 0)
(0.0841488 -0.00490954 0)
(0.0855516 -0.00489909 0)
(0.0869513 -0.00488738 0)
(0.0883476 -0.00487437 0)
(0.08974 -0.00485999 0)
(0.0911282 -0.00484421 0)
(0.0925117 -0.00482695 0)
(0.0938901 -0.00480817 0)
(0.095263 -0.0047878 0)
(0.09663 -0.00476581 0)
(0.0979904 -0.00474213 0)
(0.099344 -0.0047167 0)
(0.10069 -0.00468948 0)
(0.102028 -0.00466042 0)
(0.103358 -0.00462946 0)
(0.104678 -0.00459654 0)
(0.105989 -0.00456164 0)
(0.10729 -0.00452468 0)
(0.10858 -0.00448564 0)
(0.109858 -0.00444447 0)
(0.111125 -0.00440111 0)
(0.112379 -0.00435555 0)
(0.113619 -0.00430773 0)
(0.114846 -0.00425762 0)
(0.116058 -0.00420519 0)
(0.117254 -0.00415041 0)
(0.118435 -0.00409325 0)
(0.119599 -0.0040337 0)
(0.120746 -0.00397172 0)
(0.121875 -0.00390731 0)
(0.122985 -0.00384046 0)
(0.124075 -0.00377115 0)
(0.125146 -0.00369938 0)
(0.126195 -0.00362515 0)
(0.127223 -0.00354847 0)
(0.128229 -0.00346934 0)
(0.129211 -0.00338777 0)
(0.13017 -0.0033038 0)
(0.131105 -0.00321743 0)
(0.132015 -0.00312869 0)
(0.132899 -0.00303763 0)
(0.133756 -0.00294427 0)
(0.134587 -0.00284866 0)
(0.135389 -0.00275084 0)
(0.136164 -0.00265087 0)
(0.136909 -0.00254881 0)
(0.137625 -0.00244471 0)
(0.138311 -0.00233865 0)
(0.138966 -0.00223069 0)
(0.13959 -0.00212091 0)
(0.140182 -0.00200938 0)
(0.140742 -0.00189621 0)
(0.14127 -0.00178146 0)
(0.141764 -0.00166524 0)
(0.142225 -0.00154764 0)
(0.142651 -0.00142876 0)
(0.143044 -0.0013087 0)
(0.143402 -0.00118757 0)
(0.143725 -0.00106547 0)
(0.144013 -0.000942522 0)
(0.144265 -0.00081883 0)
(0.144482 -0.000694511 0)
(0.144663 -0.00056968 0)
(0.144809 -0.000444454 0)
(0.144918 -0.00031895 0)
(0.144991 -0.000193287 0)
(0.145029 -6.75822e-05 0)
(0.14503 5.80456e-05 0)
(0.144995 0.000183479 0)
(0.144924 0.000308602 0)
(0.144818 0.000433298 0)
(0.144676 0.000557455 0)
(0.144498 0.000680958 0)
(0.144285 0.000803699 0)
(0.144036 0.000925568 0)
(0.143753 0.00104646 0)
(0.143436 0.00116628 0)
(0.143084 0.00128491 0)
(0.142699 0.00140228 0)
(0.14228 0.00151828 0)
(0.141827 0.00163282 0)
(0.141343 0.00174582 0)
(0.140826 0.0018572 0)
(0.140277 0.00196689 0)
(0.139698 0.0020748 0)
(0.139087 0.00218088 0)
(0.138447 0.00228506 0)
(0.137777 0.00238727 0)
(0.137078 0.00248748 0)
(0.136351 0.00258561 0)
(0.135595 0.00268164 0)
(0.134813 0.00277552 0)
(0.134004 0.00286721 0)
(0.133169 0.00295668 0)
(0.132309 0.00304391 0)
(0.131424 0.00312888 0)
(0.130516 0.00321155 0)
(0.129584 0.00329193 0)
(0.128629 0.00336999 0)
(0.127652 0.00344574 0)
(0.126654 0.00351918 0)
(0.125636 0.00359029 0)
(0.124597 0.0036591 0)
(0.123539 0.0037256 0)
(0.122463 0.00378981 0)
(0.121368 0.00385175 0)
(0.120256 0.00391143 0)
(0.119128 0.00396887 0)
(0.117983 0.0040241 0)
(0.116823 0.00407714 0)
(0.115648 0.00412803 0)
(0.114459 0.00417679 0)
(0.113256 0.00422345 0)
(0.11204 0.00426806 0)
(0.110812 0.00431065 0)
(0.109572 0.00435125 0)
(0.108321 0.0043899 0)
(0.107059 0.00442665 0)
(0.105787 0.00446155 0)
(0.104505 0.00449462 0)
(0.103214 0.00452592 0)
(0.101915 0.00455549 0)
(0.100607 0.00458337 0)
(0.0992919 0.00460962 0)
(0.0979693 0.00463428 0)
(0.09664 0.0046574 0)
(0.0953043 0.00467901 0)
(0.0939627 0.00469918 0)
(0.0926156 0.00471795 0)
(0.0912634 0.00473535 0)
(0.0899065 0.00475146 0)
(0.0885453 0.0047663 0)
(0.08718 0.00477992 0)
(0.085811 0.00479238 0)
(0.0844387 0.00480371 0)
(0.0830634 0.00481397 0)
(0.0816854 0.00482319 0)
(0.0803049 0.00483143 0)
(0.0789223 0.00483872 0)
(0.0775377 0.00484511 0)
(0.0761515 0.00485065 0)
(0.0747639 0.00485536 0)
(0.0733752 0.0048593 0)
(0.0719854 0.00486251 0)
(0.0705949 0.00486501 0)
(0.0692038 0.00486686 0)
(0.0678123 0.00486809 0)
(0.0664206 0.00486874 0)
(0.0650288 0.00486884 0)
(0.0636372 0.00486842 0)
(0.0622457 0.00486753 0)
(0.0608546 0.0048662 0)
(0.059464 0.00486445 0)
(0.058074 0.00486232 0)
(0.0566847 0.00485985 0)
(0.0552962 0.00485706 0)
(0.0539085 0.00485397 0)
(0.0525218 0.00485063 0)
(0.0511362 0.00484705 0)
(0.0497516 0.00484326 0)
(0.0483681 0.00483929 0)
(0.0469859 0.00483516 0)
(0.0456048 0.0048309 0)
(0.0442251 0.00482653 0)
(0.0428466 0.00482207 0)
(0.0414694 0.00481755 0)
(0.0400936 0.00481298 0)
(0.0387191 0.00480838 0)
(0.0373459 0.00480377 0)
(0.0359741 0.00479918 0)
(0.0346036 0.00479461 0)
(0.0332344 0.00479009 0)
(0.0318665 0.00478563 0)
(0.0304999 0.00478124 0)
(0.0291346 0.00477695 0)
(0.0277705 0.00477276 0)
(0.0264076 0.00476868 0)
(0.0250458 0.00476474 0)
(0.0236852 0.00476094 0)
(0.0223257 0.00475729 0)
(0.0209671 0.0047538 0)
(0.0196096 0.00475048 0)
(0.018253 0.00474735 0)
(0.0168973 0.0047444 0)
(0.0155424 0.00474166 0)
(0.0141882 0.00473911 0)
(0.0128348 0.00473678 0)
(0.011482 0.00473466 0)
(0.0101298 0.00473277 0)
(0.00877813 0.0047311 0)
(0.00742688 0.00472967 0)
(0.00607602 0.00472847 0)
(0.00472547 0.0047275 0)
(0.00337516 0.00472678 0)
(0.00202503 0.00472629 0)
(0.000675003 0.00472605 0)
(0.000679866 -0.00612161 0)
(0.00203966 -0.00612198 0)
(0.00339958 -0.00612275 0)
(0.00475971 -0.0061239 0)
(0.00612015 -0.00612543 0)
(0.00748098 -0.00612735 0)
(0.00884228 -0.00612965 0)
(0.0102041 -0.00613231 0)
(0.0115666 -0.00613534 0)
(0.0129299 -0.00613873 0)
(0.0142939 -0.00614247 0)
(0.0156588 -0.00614656 0)
(0.0170247 -0.00615098 0)
(0.0183916 -0.00615572 0)
(0.0197596 -0.00616077 0)
(0.0211288 -0.00616613 0)
(0.0224992 -0.00617178 0)
(0.023871 -0.0061777 0)
(0.0252441 -0.00618388 0)
(0.0266186 -0.00619031 0)
(0.0279947 -0.00619697 0)
(0.0293722 -0.00620384 0)
(0.0307513 -0.0062109 0)
(0.0321321 -0.00621813 0)
(0.0335145 -0.00622552 0)
(0.0348986 -0.00623304 0)
(0.0362844 -0.00624067 0)
(0.037672 -0.00624838 0)
(0.0390613 -0.00625616 0)
(0.0404524 -0.00626396 0)
(0.0418453 -0.00627177 0)
(0.0432399 -0.00627955 0)
(0.0446364 -0.00628728 0)
(0.0460346 -0.00629492 0)
(0.0474345 -0.00630244 0)
(0.0488361 -0.00630981 0)
(0.0502394 -0.00631699 0)
(0.0516444 -0.00632394 0)
(0.0530509 -0.00633063 0)
(0.054459 -0.00633701 0)
(0.0558684 -0.00634305 0)
(0.0572793 -0.00634869 0)
(0.0586914 -0.0063539 0)
(0.0601047 -0.00635864 0)
(0.0615191 -0.00636284 0)
(0.0629344 -0.00636647 0)
(0.0643506 -0.00636948 0)
(0.0657674 -0.0063718 0)
(0.0671848 -0.0063734 0)
(0.0686025 -0.00637421 0)
(0.0700203 -0.00637418 0)
(0.0714382 -0.00637325 0)
(0.0728559 -0.00637136 0)
(0.0742731 -0.00636846 0)
(0.0756896 -0.00636447 0)
(0.0771052 -0.00635935 0)
(0.0785197 -0.00635302 0)
(0.0799327 -0.00634542 0)
(0.081344 -0.00633648 0)
(0.0827532 -0.00632614 0)
(0.0841601 -0.00631433 0)
(0.0855644 -0.00630097 0)
(0.0869655 -0.00628602 0)
(0.0883633 -0.00626938 0)
(0.0897573 -0.00625099 0)
(0.0911471 -0.00623079 0)
(0.0925323 -0.00620869 0)
(0.0939126 -0.00618464 0)
(0.0952873 -0.00615855 0)
(0.0966562 -0.00613036 0)
(0.0980186 -0.00610001 0)
(0.0993742 -0.00606741 0)
(0.100722 -0.0060325 0)
(0.102063 -0.00599522 0)
(0.103394 -0.0059555 0)
(0.104717 -0.00591327 0)
(0.10603 -0.00586847 0)
(0.107333 -0.00582103 0)
(0.108626 -0.00577091 0)
(0.109907 -0.00571804 0)
(0.111176 -0.00566237 0)
(0.112432 -0.00560385 0)
(0.113675 -0.00554243 0)
(0.114904 -0.00547805 0)
(0.116119 -0.00541069 0)
(0.117318 -0.00534031 0)
(0.118502 -0.00526686 0)
(0.119669 -0.00519032 0)
(0.120818 -0.00511067 0)
(0.12195 -0.00502788 0)
(0.123063 -0.00494194 0)
(0.124156 -0.00485283 0)
(0.125229 -0.00476056 0)
(0.126281 -0.00466511 0)
(0.127312 -0.0045665 0)
(0.128321 -0.00446474 0)
(0.129306 -0.00435985 0)
(0.130268 -0.00425184 0)
(0.131205 -0.00414074 0)
(0.132118 -0.0040266 0)
(0.133004 -0.00390945 0)
(0.133864 -0.00378935 0)
(0.134697 -0.00366634 0)
(0.135503 -0.00354049 0)
(0.136279 -0.00341186 0)
(0.137027 -0.00328053 0)
(0.137745 -0.00314657 0)
(0.138433 -0.00301008 0)
(0.139091 -0.00287114 0)
(0.139717 -0.00272986 0)
(0.140311 -0.00258633 0)
(0.140873 -0.00244066 0)
(0.141402 -0.00229298 0)
(0.141898 -0.00214339 0)
(0.14236 -0.00199202 0)
(0.142788 -0.00183899 0)
(0.143182 -0.00168445 0)
(0.143541 -0.00152853 0)
(0.143865 -0.00137136 0)
(0.144154 -0.00121309 0)
(0.144407 -0.00105386 0)
(0.144625 -0.000893824 0)
(0.144807 -0.000733127 0)
(0.144952 -0.000571921 0)
(0.145062 -0.000410357 0)
(0.145135 -0.000248587 0)
(0.145173 -8.67653e-05 0)
(0.145174 7.49573e-05 0)
(0.145139 0.000236429 0)
(0.145067 0.000397498 0)