/*--------------------------------*- C++ -*----------------------------------*\
| =========                 |                                                 |
| \\      /  F ield         | OpenFOAM: The Open Source CFD Toolbox           |
|  \\    /   O peration     | Version:  v2012                                 |
|   \\  /    A nd           | Website:  www.openfoam.com                      |
|    \\/     M anipulation  |                                                 |
\*---------------------------------------------------------------------------*/
FoamFile
{
    version     2.0;
    format      ascii;
    class       volScalarField;
    location    "16";
    object      W_z;
}
// * * * * * * * * * * * * * * * * * * * * * * * * * * * * * * * * * * * * * //

dimensions      [0 0 -1 0 0 0 0];


internalField   nonuniform List<scalar> 
65536
(
1.99454e-08
3.81147e-08
-2.63713e-07
-3.4001e-07
-3.55295e-07
-3.50919e-07
-3.41728e-07
-3.33336e-07
-3.27699e-07
-3.24593e-07
-3.23039e-07
-3.22482e-07
-3.2302e-07
-3.2477e-07
-3.27622e-07
-3.31471e-07
-3.35918e-07
-3.40745e-07
-3.45991e-07
-3.51644e-07
-3.57719e-07
-3.64078e-07
-3.70682e-07
-3.77552e-07
-3.84472e-07
-3.91414e-07
-3.98491e-07
-4.05645e-07
-4.12871e-07
-4.20097e-07
-4.27133e-07
-4.34049e-07
-4.40998e-07
-4.47944e-07
-4.54864e-07
-4.61721e-07
-4.68395e-07
-4.74937e-07
-4.81479e-07
-4.87941e-07
-4.94237e-07
-5.00484e-07
-5.06727e-07
-5.12875e-07
-5.18972e-07
-5.25107e-07
-5.31233e-07
-5.37346e-07
-5.43544e-07
-5.49764e-07
-5.5585e-07
-5.6188e-07
-5.68083e-07
-5.74517e-07
-5.81134e-07
-5.87956e-07
-5.94917e-07
-6.01796e-07
-6.08529e-07
-6.15315e-07
-6.22318e-07
-6.29558e-07
-6.37083e-07
-6.44905e-07
-6.52797e-07
-6.60467e-07
-6.67947e-07
-6.75519e-07
-6.8334e-07
-6.91361e-07
-6.99501e-07
-7.07667e-07
-7.15698e-07
-7.23514e-07
-7.31294e-07
-7.39286e-07
-7.47482e-07
-7.5565e-07
-7.63642e-07
-7.71529e-07
-7.79441e-07
-7.87422e-07
-7.95477e-07
-8.03628e-07
-8.11874e-07
-8.2015e-07
-8.28427e-07
-8.36778e-07
-8.45311e-07
-8.54026e-07
-8.62848e-07
-8.71755e-07
-8.80808e-07
-8.90053e-07
-8.99425e-07
-9.08856e-07
-9.18381e-07
-9.28084e-07
-9.3796e-07
-9.47919e-07
-9.57907e-07
-9.67986e-07
-9.78241e-07
-9.88659e-07
-9.99102e-07
-1.00948e-06
-1.01987e-06
-1.03037e-06
-1.04101e-06
-1.05177e-06
-1.06256e-06
-1.07332e-06
-1.08399e-06
-1.09457e-06
-1.10514e-06
-1.1158e-06
-1.12657e-06
-1.13724e-06
-1.14761e-06
-1.15768e-06
-1.16754e-06
-1.17728e-06
-1.18686e-06
-1.19616e-06
-1.20508e-06
-1.21363e-06
-1.22181e-06
-1.22963e-06
-1.23701e-06
-1.2439e-06
-1.25037e-06
-1.25652e-06
-1.26229e-06
-1.26755e-06
-1.27229e-06
-1.27666e-06
-1.28074e-06
-1.28459e-06
-1.28822e-06
-1.29152e-06
-1.29442e-06
-1.29707e-06
-1.29961e-06
-1.30202e-06
-1.30423e-06
-1.30617e-06
-1.30787e-06
-1.30942e-06
-1.31079e-06
-1.31188e-06
-1.31261e-06
-1.31298e-06
-1.31304e-06
-1.31277e-06
-1.3121e-06
-1.31109e-06
-1.3098e-06
-1.30818e-06
-1.30625e-06
-1.30402e-06
-1.30152e-06
-1.2988e-06
-1.29588e-06
-1.29281e-06
-1.28958e-06
-1.28623e-06
-1.2828e-06
-1.27924e-06
-1.27565e-06
-1.27211e-06
-1.26862e-06
-1.26516e-06
-1.26167e-06
-1.2582e-06
-1.25476e-06
-1.25138e-06
-1.24802e-06
-1.24465e-06
-1.24129e-06
-1.23788e-06
-1.23441e-06
-1.23081e-06
-1.22709e-06
-1.22332e-06
-1.2195e-06
-1.21556e-06
-1.21145e-06
-1.20722e-06
-1.20285e-06
-1.19838e-06
-1.19378e-06
-1.18908e-06
-1.18423e-06
-1.17925e-06
-1.17408e-06
-1.16873e-06
-1.16315e-06
-1.15731e-06
-1.15128e-06
-1.14513e-06
-1.13889e-06
-1.13253e-06
-1.12603e-06
-1.1193e-06
-1.11234e-06
-1.10513e-06
-1.09761e-06
-1.08974e-06
-1.08131e-06
-1.07216e-06
-1.06216e-06
-1.05116e-06
-1.03915e-06
-1.02604e-06
-1.0118e-06
-9.96385e-07
-9.79752e-07
-9.61978e-07
-9.43193e-07
-9.23488e-07
-9.03046e-07
-8.81982e-07
-8.60415e-07
-8.38513e-07
-8.16329e-07
-7.93878e-07
-7.71145e-07
-7.48023e-07
-7.24373e-07
-7.00107e-07
-6.75082e-07
-6.4919e-07
-6.22526e-07
-5.95174e-07
-5.67308e-07
-5.39226e-07
-5.11208e-07
-4.8345e-07
-4.56101e-07
-4.29215e-07
-4.02718e-07
-3.76453e-07
-3.50209e-07
-3.2378e-07
-2.97034e-07
-2.69989e-07
-2.42821e-07
-2.15785e-07
-1.89096e-07
-1.62883e-07
-1.37173e-07
-1.11918e-07
-8.70055e-08
-6.22724e-08
-3.76646e-08
-1.26743e-08
5.66271e-08
1.05566e-07
-3.69946e-07
-5.38439e-07
-6.12872e-07
-6.49115e-07
-6.71351e-07
-6.89261e-07
-7.05904e-07
-7.22148e-07
-7.38507e-07
-7.55652e-07
-7.74089e-07
-7.93535e-07
-8.13631e-07
-8.34252e-07
-8.55334e-07
-8.76953e-07
-8.99043e-07
-9.21618e-07
-9.44597e-07
-9.67714e-07
-9.91004e-07
-1.01445e-06
-1.03794e-06
-1.06156e-06
-1.08516e-06
-1.10864e-06
-1.13214e-06
-1.15553e-06
-1.17863e-06
-1.20156e-06
-1.22434e-06
-1.2469e-06
-1.26926e-06
-1.29131e-06
-1.31299e-06
-1.33456e-06
-1.35602e-06
-1.37704e-06
-1.39762e-06
-1.41798e-06
-1.43818e-06
-1.45817e-06
-1.47806e-06
-1.49781e-06
-1.51729e-06
-1.5367e-06
-1.55626e-06
-1.57578e-06
-1.59509e-06
-1.61438e-06
-1.63386e-06
-1.65353e-06
-1.67353e-06
-1.69403e-06
-1.71482e-06
-1.73554e-06
-1.75625e-06
-1.77726e-06
-1.79867e-06
-1.82046e-06
-1.84276e-06
-1.8656e-06
-1.8886e-06
-1.91148e-06
-1.93438e-06
-1.95755e-06
-1.98101e-06
-2.00468e-06
-2.02858e-06
-2.05258e-06
-2.07639e-06
-2.09993e-06
-2.12351e-06
-2.14742e-06
-2.17152e-06
-2.19548e-06
-2.21923e-06
-2.24292e-06
-2.26667e-06
-2.29051e-06
-2.31455e-06
-2.33888e-06
-2.36343e-06
-2.38805e-06
-2.41281e-06
-2.43796e-06
-2.46365e-06
-2.48978e-06
-2.51616e-06
-2.54284e-06
-2.57004e-06
-2.59783e-06
-2.62609e-06
-2.65466e-06
-2.68359e-06
-2.71299e-06
-2.74282e-06
-2.77294e-06
-2.80335e-06
-2.83415e-06
-2.86542e-06
-2.89709e-06
-2.92894e-06
-2.96083e-06
-2.99283e-06
-3.02506e-06
-3.05758e-06
-3.09036e-06
-3.12336e-06
-3.15642e-06
-3.1894e-06
-3.22218e-06
-3.25485e-06
-3.28753e-06
-3.32023e-06
-3.3527e-06
-3.38463e-06
-3.41591e-06
-3.44656e-06
-3.47662e-06
-3.50602e-06
-3.53457e-06
-3.56208e-06
-3.58853e-06
-3.61388e-06
-3.63813e-06
-3.66113e-06
-3.68275e-06
-3.70296e-06
-3.72195e-06
-3.73975e-06
-3.75622e-06
-3.77133e-06
-3.78531e-06
-3.79834e-06
-3.81042e-06
-3.82159e-06
-3.83182e-06
-3.84115e-06
-3.84986e-06
-3.85818e-06
-3.86597e-06
-3.87306e-06
-3.87942e-06
-3.88518e-06
-3.89048e-06
-3.89521e-06
-3.89904e-06
-3.90184e-06
-3.90365e-06
-3.90457e-06
-3.90455e-06
-3.90341e-06
-3.90114e-06
-3.89794e-06
-3.89383e-06
-3.88885e-06
-3.88305e-06
-3.87649e-06
-3.86927e-06
-3.86143e-06
-3.85312e-06
-3.84442e-06
-3.83535e-06
-3.82608e-06
-3.8166e-06
-3.80706e-06
-3.79761e-06
-3.78826e-06
-3.77905e-06
-3.76988e-06
-3.76082e-06
-3.75192e-06
-3.74316e-06
-3.73453e-06
-3.72593e-06
-3.71731e-06
-3.70855e-06
-3.69962e-06
-3.69047e-06
-3.68106e-06
-3.67142e-06
-3.66152e-06
-3.65125e-06
-3.64052e-06
-3.62939e-06
-3.61789e-06
-3.60599e-06
-3.59362e-06
-3.58071e-06
-3.56721e-06
-3.55309e-06
-3.53827e-06
-3.52263e-06
-3.50613e-06
-3.48862e-06
-3.4703e-06
-3.45121e-06
-3.43151e-06
-3.41106e-06
-3.3899e-06
-3.36799e-06
-3.3453e-06
-3.32187e-06
-3.29739e-06
-3.27163e-06
-3.24428e-06
-3.21504e-06
-3.18369e-06
-3.14993e-06
-3.11355e-06
-3.07437e-06
-3.03214e-06
-2.98678e-06
-2.93823e-06
-2.88657e-06
-2.83201e-06
-2.77466e-06
-2.71478e-06
-2.6527e-06
-2.58867e-06
-2.52304e-06
-2.45602e-06
-2.38774e-06
-2.31828e-06
-2.24759e-06
-2.17545e-06
-2.10175e-06
-2.02634e-06
-1.94913e-06
-1.87024e-06
-1.78987e-06
-1.70827e-06
-1.62591e-06
-1.5433e-06
-1.46086e-06
-1.37887e-06
-1.29747e-06
-1.21662e-06
-1.13611e-06
-1.05564e-06
-9.74942e-07
-8.93891e-07
-8.12576e-07
-7.31296e-07
-6.50458e-07
-5.70435e-07
-4.91516e-07
-4.13829e-07
-3.37341e-07
-2.61851e-07
-1.87011e-07
-1.12747e-07
-3.78653e-08
3.51078e-07
5.53797e-07
7.0165e-08
-2.16972e-07
-4.07352e-07
-5.41202e-07
-6.42378e-07
-7.24023e-07
-7.93531e-07
-8.55316e-07
-9.12034e-07
-9.65346e-07
-1.01616e-06
-1.06507e-06
-1.11257e-06
-1.15891e-06
-1.20451e-06
-1.24955e-06
-1.29406e-06
-1.33819e-06
-1.38191e-06
-1.42529e-06
-1.46834e-06
-1.51096e-06
-1.55339e-06
-1.59562e-06
-1.63742e-06
-1.67893e-06
-1.72019e-06
-1.76105e-06
-1.80158e-06
-1.84177e-06
-1.88152e-06
-1.92089e-06
-1.95985e-06
-1.99818e-06
-2.03605e-06
-2.07362e-06
-2.11067e-06
-2.14709e-06
-2.18306e-06
-2.21857e-06
-2.25353e-06
-2.28809e-06
-2.32233e-06
-2.35605e-06
-2.38933e-06
-2.42246e-06
-2.4555e-06
-2.48834e-06
-2.52114e-06
-2.55405e-06
-2.58688e-06
-2.6196e-06
-2.65255e-06
-2.68596e-06
-2.71972e-06
-2.75383e-06
-2.78848e-06
-2.82363e-06
-2.85905e-06
-2.89476e-06
-2.93099e-06
-2.96773e-06
-3.00487e-06
-3.0425e-06
-3.08065e-06
-3.11904e-06
-3.15737e-06
-3.19579e-06
-3.23456e-06
-3.27362e-06
-3.31268e-06
-3.3517e-06
-3.39076e-06
-3.42985e-06
-3.46884e-06
-3.50781e-06
-3.54694e-06
-3.58621e-06
-3.62544e-06
-3.66467e-06
-3.70419e-06
-3.74419e-06
-3.78461e-06
-3.82532e-06
-3.86643e-06
-3.90819e-06
-3.95068e-06
-3.99384e-06
-4.03764e-06
-4.08221e-06
-4.12764e-06
-4.17392e-06
-4.22099e-06
-4.26883e-06
-4.31749e-06
-4.36696e-06
-4.41712e-06
-4.46794e-06
-4.5195e-06
-4.57177e-06
-4.62464e-06
-4.67799e-06
-4.7319e-06
-4.7864e-06
-4.84141e-06
-4.8967e-06
-4.95218e-06
-5.00793e-06
-5.0641e-06
-5.12061e-06
-5.17725e-06
-5.23376e-06
-5.29007e-06
-5.34617e-06
-5.40196e-06
-5.45733e-06
-5.51211e-06
-5.56612e-06
-5.61913e-06
-5.67096e-06
-5.72151e-06
-5.77071e-06
-5.81835e-06
-5.86427e-06
-5.90823e-06
-5.95024e-06
-5.99024e-06
-6.02813e-06
-6.06377e-06
-6.09713e-06
-6.12834e-06
-6.15744e-06
-6.18446e-06
-6.20956e-06
-6.2329e-06
-6.25451e-06
-6.2745e-06
-6.29305e-06
-6.31027e-06
-6.32637e-06
-6.34156e-06
-6.35582e-06
-6.36908e-06
-6.38132e-06
-6.39256e-06
-6.40277e-06
-6.41189e-06
-6.41964e-06
-6.42587e-06
-6.43053e-06
-6.43359e-06
-6.43504e-06
-6.43475e-06
-6.43264e-06
-6.4289e-06
-6.42368e-06
-6.41703e-06
-6.40905e-06
-6.39981e-06
-6.38949e-06
-6.37822e-06
-6.36616e-06
-6.3535e-06
-6.34028e-06
-6.32674e-06
-6.31301e-06
-6.29916e-06
-6.28536e-06
-6.27169e-06
-6.25829e-06
-6.2452e-06
-6.23236e-06
-6.21979e-06
-6.20741e-06
-6.19524e-06
-6.18313e-06
-6.17101e-06
-6.15877e-06
-6.14632e-06
-6.13361e-06
-6.1205e-06
-6.10692e-06
-6.09278e-06
-6.07809e-06
-6.06274e-06
-6.04668e-06
-6.0299e-06
-6.01232e-06
-5.99387e-06
-5.97435e-06
-5.95368e-06
-5.93163e-06
-5.90822e-06
-5.88312e-06
-5.85639e-06
-5.82773e-06
-5.79734e-06
-5.76516e-06
-5.73143e-06
-5.69615e-06
-5.65937e-06
-5.6212e-06
-5.58148e-06
-5.54023e-06
-5.49711e-06
-5.45179e-06
-5.40399e-06
-5.35336e-06
-5.29958e-06
-5.24228e-06
-5.18106e-06
-5.11573e-06
-5.04595e-06
-4.97151e-06
-4.8923e-06
-4.80823e-06
-4.71938e-06
-4.62595e-06
-4.52809e-06
-4.42619e-06
-4.32053e-06
-4.21154e-06
-4.0996e-06
-3.98502e-06
-3.868e-06
-3.74874e-06
-3.62724e-06
-3.50347e-06
-3.3775e-06
-3.24935e-06
-3.11908e-06
-2.98696e-06
-2.8532e-06
-2.71817e-06
-2.58228e-06
-2.44594e-06
-2.30946e-06
-2.17304e-06
-2.03676e-06
-1.90062e-06
-1.76459e-06
-1.62861e-06
-1.4927e-06
-1.35698e-06
-1.22171e-06
-1.08724e-06
-9.53966e-07
-8.22181e-07
-6.92082e-07
-5.63711e-07
-4.36961e-07
-3.11523e-07
-1.87477e-07
-6.29253e-08
3.77678e-07
6.04705e-07
2.18451e-07
-7.24622e-08
-3.02937e-07
-4.87268e-07
-6.38646e-07
-7.66754e-07
-8.78248e-07
-9.77758e-07
-1.0686e-06
-1.15296e-06
-1.23237e-06
-1.30802e-06
-1.38059e-06
-1.45073e-06
-1.51897e-06
-1.58559e-06
-1.65088e-06
-1.71502e-06
-1.77822e-06
-1.84062e-06
-1.90211e-06
-1.96291e-06
-2.02316e-06
-2.08274e-06
-2.14173e-06
-2.2002e-06
-2.25803e-06
-2.31524e-06
-2.37189e-06
-2.42788e-06
-2.4833e-06
-2.53819e-06
-2.59232e-06
-2.64568e-06
-2.6984e-06
-2.75035e-06
-2.80143e-06
-2.8518e-06
-2.90148e-06
-2.95032e-06
-2.9984e-06
-3.04587e-06
-3.09267e-06
-3.13882e-06
-3.18453e-06
-3.22982e-06
-3.27457e-06
-3.31896e-06
-3.36336e-06
-3.40781e-06
-3.45224e-06
-3.4968e-06
-3.54167e-06
-3.58676e-06
-3.6321e-06
-3.67799e-06
-3.7246e-06
-3.7718e-06
-3.81962e-06
-3.86822e-06
-3.91752e-06
-3.96723e-06
-4.01732e-06
-4.06808e-06
-4.11953e-06
-4.17142e-06
-4.22358e-06
-4.27608e-06
-4.32887e-06
-4.38175e-06
-4.43469e-06
-4.48785e-06
-4.5412e-06
-4.5945e-06
-4.64766e-06
-4.70086e-06
-4.75428e-06
-4.80788e-06
-4.8616e-06
-4.91554e-06
-4.96989e-06
-5.02473e-06
-5.08008e-06
-5.13605e-06
-5.19282e-06
-5.25052e-06
-5.30912e-06
-5.36867e-06
-5.42935e-06
-5.49131e-06
-5.55452e-06
-5.61887e-06
-5.68439e-06
-5.75121e-06
-5.81938e-06
-5.88873e-06
-5.95914e-06
-6.03068e-06
-6.10344e-06
-6.17736e-06
-6.25217e-06
-6.32772e-06
-6.40412e-06
-6.48148e-06
-6.55973e-06
-6.63863e-06
-6.71805e-06
-6.79794e-06
-6.8783e-06
-6.95896e-06
-7.03979e-06
-7.12073e-06
-7.20171e-06
-7.28251e-06
-7.36275e-06
-7.44222e-06
-7.52083e-06
-7.59853e-06
-7.67502e-06
-7.74993e-06
-7.82301e-06
-7.89418e-06
-7.96326e-06
-8.03001e-06
-8.09404e-06
-8.15529e-06
-8.21369e-06
-8.26923e-06
-8.32183e-06
-8.37132e-06
-8.4177e-06
-8.46111e-06
-8.50163e-06
-8.53943e-06
-8.57471e-06
-8.60754e-06
-8.63808e-06
-8.66661e-06
-8.69335e-06
-8.71843e-06
-8.74205e-06
-8.76429e-06
-8.78519e-06
-8.80474e-06
-8.82289e-06
-8.83944e-06
-8.85432e-06
-8.86734e-06
-8.87835e-06
-8.88721e-06
-8.89376e-06
-8.89792e-06
-8.89974e-06
-8.89914e-06
-8.89623e-06
-8.89116e-06
-8.88404e-06
-8.87504e-06
-8.86431e-06
-8.85211e-06
-8.83866e-06
-8.82408e-06
-8.8086e-06
-8.79237e-06
-8.77561e-06
-8.75863e-06
-8.74153e-06
-8.72445e-06
-8.70751e-06
-8.69082e-06
-8.67459e-06
-8.65875e-06
-8.64331e-06
-8.62813e-06
-8.61316e-06
-8.59829e-06
-8.58339e-06
-8.56838e-06
-8.55308e-06
-8.53742e-06
-8.52124e-06
-8.50442e-06
-8.48681e-06
-8.46838e-06
-8.44906e-06
-8.42871e-06
-8.40729e-06
-8.38465e-06
-8.36079e-06
-8.33538e-06
-8.30834e-06
-8.27922e-06
-8.24797e-06
-8.21423e-06
-8.17803e-06
-8.13912e-06
-8.09757e-06
-8.0534e-06
-8.00671e-06
-7.95766e-06
-7.90632e-06
-7.85275e-06
-7.79694e-06
-7.73866e-06
-7.67769e-06
-7.61364e-06
-7.54606e-06
-7.47461e-06
-7.39876e-06
-7.31814e-06
-7.23228e-06
-7.14083e-06
-7.04347e-06
-6.9399e-06
-6.82992e-06
-6.71342e-06
-6.59032e-06
-6.46088e-06
-6.32522e-06
-6.18378e-06
-6.03693e-06
-5.88517e-06
-5.72899e-06
-5.56884e-06
-5.40507e-06
-5.23792e-06
-5.06767e-06
-4.89441e-06
-4.71822e-06
-4.5393e-06
-4.35775e-06
-4.17384e-06
-3.98784e-06
-3.80013e-06
-3.61108e-06
-3.4211e-06
-3.23053e-06
-3.03968e-06
-2.84876e-06
-2.65784e-06
-2.46705e-06
-2.2765e-06
-2.08629e-06
-1.89661e-06
-1.70771e-06
-1.51995e-06
-1.33374e-06
-1.14943e-06
-9.67343e-07
-7.87605e-07
-6.10166e-07
-4.3473e-07
-2.61477e-07
-8.77322e-08
3.39491e-07
5.43298e-07
2.31978e-07
-3.63039e-08
-2.73803e-07
-4.80621e-07
-6.61046e-07
-8.201e-07
-9.62251e-07
-1.09124e-06
-1.20991e-06
-1.32043e-06
-1.42459e-06
-1.52358e-06
-1.61845e-06
-1.70998e-06
-1.79872e-06
-1.88511e-06
-1.96944e-06
-2.05207e-06
-2.13329e-06
-2.21312e-06
-2.29174e-06
-2.36938e-06
-2.44597e-06
-2.52159e-06
-2.59637e-06
-2.67024e-06
-2.74326e-06
-2.81547e-06
-2.88673e-06
-2.95709e-06
-3.02664e-06
-3.09524e-06
-3.16284e-06
-3.22958e-06
-3.29532e-06
-3.35989e-06
-3.4234e-06
-3.48596e-06
-3.54745e-06
-3.60784e-06
-3.66726e-06
-3.72568e-06
-3.78309e-06
-3.83978e-06
-3.89591e-06
-3.95135e-06
-4.00612e-06
-4.06052e-06
-4.11469e-06
-4.16864e-06
-4.22261e-06
-4.27691e-06
-4.33155e-06
-4.38645e-06
-4.44184e-06
-4.49797e-06
-4.55473e-06
-4.61211e-06
-4.67036e-06
-4.72967e-06
-4.78986e-06
-4.85076e-06
-4.91239e-06
-4.97478e-06
-5.03776e-06
-5.10126e-06
-5.16539e-06
-5.23016e-06
-5.29527e-06
-5.36049e-06
-5.4259e-06
-5.4916e-06
-5.55746e-06
-5.62335e-06
-5.68932e-06
-5.75549e-06
-5.82183e-06
-5.88831e-06
-5.95508e-06
-6.02237e-06
-6.09024e-06
-6.15867e-06
-6.22775e-06
-6.29778e-06
-6.369e-06
-6.44144e-06
-6.51507e-06
-6.59004e-06
-6.66662e-06
-6.74494e-06
-6.82493e-06
-6.90652e-06
-6.98983e-06
-7.075e-06
-7.16201e-06
-7.25068e-06
-7.34096e-06
-7.43292e-06
-7.52661e-06
-7.62189e-06
-7.71859e-06
-7.81659e-06
-7.91591e-06
-8.01649e-06
-8.11821e-06
-8.22094e-06
-8.32467e-06
-8.42933e-06
-8.53467e-06
-8.64043e-06
-8.74641e-06
-8.85261e-06
-8.95896e-06
-9.06518e-06
-9.17085e-06
-9.27565e-06
-9.3794e-06
-9.48196e-06
-9.58305e-06
-9.68225e-06
-9.77921e-06
-9.87374e-06
-9.96563e-06
-1.00546e-05
-1.01402e-05
-1.02224e-05
-1.0301e-05
-1.03759e-05
-1.04471e-05
-1.05145e-05
-1.0578e-05
-1.06376e-05
-1.06936e-05
-1.0746e-05
-1.07951e-05
-1.08411e-05
-1.08841e-05
-1.09245e-05
-1.09626e-05
-1.09986e-05
-1.10325e-05
-1.10645e-05
-1.10948e-05
-1.11233e-05
-1.115e-05
-1.11745e-05
-1.11969e-05
-1.12168e-05
-1.12341e-05
-1.12488e-05
-1.12605e-05
-1.1269e-05
-1.12744e-05
-1.12768e-05
-1.12763e-05
-1.12729e-05
-1.12668e-05
-1.12583e-05
-1.12476e-05
-1.1235e-05
-1.12208e-05
-1.12051e-05
-1.11882e-05
-1.11704e-05
-1.11517e-05
-1.11327e-05
-1.11135e-05
-1.10944e-05
-1.10754e-05
-1.10566e-05
-1.10382e-05
-1.10204e-05
-1.10029e-05
-1.09858e-05
-1.09689e-05
-1.09522e-05
-1.09353e-05
-1.09184e-05
-1.0901e-05
-1.08832e-05
-1.08647e-05
-1.08453e-05
-1.0825e-05
-1.08036e-05
-1.07811e-05
-1.07572e-05
-1.07319e-05
-1.0705e-05
-1.06764e-05
-1.06458e-05
-1.0613e-05
-1.05777e-05
-1.05395e-05
-1.04981e-05
-1.04533e-05
-1.0405e-05
-1.03532e-05
-1.0298e-05
-1.02394e-05
-1.01775e-05
-1.01127e-05
-1.00448e-05
-9.97382e-06
-9.8995e-06
-9.82149e-06
-9.7395e-06
-9.65288e-06
-9.56122e-06
-9.46395e-06
-9.36051e-06
-9.25047e-06
-9.13329e-06
-9.00865e-06
-8.87624e-06
-8.73573e-06
-8.58707e-06
-8.43007e-06
-8.265e-06
-8.09203e-06
-7.91159e-06
-7.72422e-06
-7.53046e-06
-7.33088e-06
-7.12602e-06
-6.91641e-06
-6.70234e-06
-6.48417e-06
-6.2622e-06
-6.03654e-06
-5.80746e-06
-5.57522e-06
-5.34011e-06
-5.10248e-06
-4.86273e-06
-4.62127e-06
-4.37856e-06
-4.13495e-06
-3.89077e-06
-3.64632e-06
-3.40181e-06
-3.15738e-06
-2.91322e-06
-2.66954e-06
-2.42663e-06
-2.18481e-06
-1.9445e-06
-1.70617e-06
-1.47028e-06
-1.2372e-06
-1.00715e-06
-7.80083e-07
-5.55707e-07
-3.34268e-07
-1.12186e-07
2.8779e-07
4.50696e-07
1.83594e-07
-6.38087e-08
-2.97478e-07
-5.12454e-07
-7.08188e-07
-8.86349e-07
-1.04946e-06
-1.19995e-06
-1.33999e-06
-1.47152e-06
-1.59598e-06
-1.71466e-06
-1.82861e-06
-1.93861e-06
-2.04528e-06
-2.14904e-06
-2.25031e-06
-2.34951e-06
-2.44674e-06
-2.54223e-06
-2.63627e-06
-2.72889e-06
-2.82014e-06
-2.91015e-06
-2.99892e-06
-3.08648e-06
-3.17295e-06
-3.25824e-06
-3.34235e-06
-3.42536e-06
-3.50714e-06
-3.58759e-06
-3.66687e-06
-3.74494e-06
-3.8216e-06
-3.89686e-06
-3.97084e-06
-4.04345e-06
-4.11464e-06
-4.18456e-06
-4.2532e-06
-4.32046e-06
-4.38654e-06
-4.45169e-06
-4.51589e-06
-4.57914e-06
-4.64177e-06
-4.70399e-06
-4.76578e-06
-4.82727e-06
-4.8888e-06
-4.95055e-06
-5.01252e-06
-5.07493e-06
-5.1381e-06
-5.20208e-06
-5.26681e-06
-5.33242e-06
-5.39911e-06
-5.46682e-06
-5.53548e-06
-5.6052e-06
-5.67608e-06
-5.74788e-06
-5.82036e-06
-5.89356e-06
-5.96759e-06
-6.04231e-06
-6.11748e-06
-6.19303e-06
-6.26902e-06
-6.34531e-06
-6.42172e-06
-6.49828e-06
-6.57518e-06
-6.65243e-06
-6.7299e-06
-6.80759e-06
-6.88578e-06
-6.96468e-06
-7.04433e-06
-7.12473e-06
-7.20608e-06
-7.28872e-06
-7.37285e-06
-7.4585e-06
-7.54579e-06
-7.63494e-06
-7.72618e-06
-7.81957e-06
-7.91511e-06
-8.01287e-06
-8.11303e-06
-8.21563e-06
-8.32059e-06
-8.42783e-06
-8.53743e-06
-8.64941e-06
-8.76363e-06
-8.87992e-06
-8.99822e-06
-9.11856e-06
-9.24088e-06
-9.36494e-06
-9.4905e-06
-9.6175e-06
-9.74593e-06
-9.87569e-06
-1.00065e-05
-1.0138e-05
-1.02701e-05
-1.04026e-05
-1.05352e-05
-1.06676e-05
-1.07996e-05
-1.09308e-05
-1.10609e-05
-1.11896e-05
-1.13165e-05
-1.14412e-05
-1.15635e-05
-1.16829e-05
-1.17991e-05
-1.19118e-05
-1.20207e-05
-1.21255e-05
-1.22262e-05
-1.23225e-05
-1.24142e-05
-1.25014e-05
-1.25839e-05
-1.26619e-05
-1.27355e-05
-1.28047e-05
-1.28699e-05
-1.29312e-05
-1.29889e-05
-1.30433e-05
-1.30948e-05
-1.31436e-05
-1.31899e-05
-1.32338e-05
-1.32754e-05
-1.33147e-05
-1.33517e-05
-1.33862e-05
-1.34179e-05
-1.34466e-05
-1.34721e-05
-1.34943e-05
-1.35129e-05
-1.35276e-05
-1.35385e-05
-1.35456e-05
-1.35492e-05
-1.35493e-05
-1.3546e-05
-1.35398e-05
-1.35309e-05
-1.35196e-05
-1.35062e-05
-1.34911e-05
-1.34744e-05
-1.34565e-05
-1.34376e-05
-1.34182e-05
-1.33983e-05
-1.33784e-05
-1.33586e-05
-1.33391e-05
-1.33199e-05
-1.33012e-05
-1.32828e-05
-1.32649e-05
-1.32471e-05
-1.32294e-05
-1.32116e-05
-1.31936e-05
-1.31751e-05
-1.3156e-05
-1.3136e-05
-1.3115e-05
-1.30928e-05
-1.30693e-05
-1.30444e-05
-1.30178e-05
-1.29895e-05
-1.29591e-05
-1.29267e-05
-1.28918e-05
-1.28542e-05
-1.28135e-05
-1.27692e-05
-1.27211e-05
-1.26687e-05
-1.26121e-05
-1.25511e-05
-1.24857e-05
-1.24163e-05
-1.23429e-05
-1.22656e-05
-1.21845e-05
-1.20994e-05
-1.20101e-05
-1.19161e-05
-1.18172e-05
-1.17125e-05
-1.16014e-05
-1.14835e-05
-1.1358e-05
-1.12244e-05
-1.10822e-05
-1.09309e-05
-1.07703e-05
-1.05998e-05
-1.04195e-05
-1.02292e-05
-1.0029e-05
-9.81939e-06
-9.60066e-06
-9.3735e-06
-9.13857e-06
-8.89651e-06
-8.64789e-06
-8.39342e-06
-8.13354e-06
-7.86854e-06
-7.59889e-06
-7.32486e-06
-7.0467e-06
-6.76477e-06
-6.47946e-06
-6.1912e-06
-5.90044e-06
-5.60766e-06
-5.3133e-06
-5.01784e-06
-4.72161e-06
-4.42493e-06
-4.12809e-06
-3.83131e-06
-3.53481e-06
-3.23888e-06
-2.94387e-06
-2.65023e-06
-2.35848e-06
-2.06919e-06
-1.78291e-06
-1.50009e-06
-1.22099e-06
-9.45589e-07
-6.73596e-07
-4.05292e-07
-1.36089e-07
2.37378e-07
3.56541e-07
1.11833e-07
-1.22317e-07
-3.508e-07
-5.67909e-07
-7.71273e-07
-9.60858e-07
-1.13768e-06
-1.30321e-06
-1.45906e-06
-1.60663e-06
-1.74719e-06
-1.88189e-06
-2.01162e-06
-2.13713e-06
-2.25896e-06
-2.3776e-06
-2.49355e-06
-2.607e-06
-2.71818e-06
-2.82743e-06
-2.93484e-06
-3.04049e-06
-3.14453e-06
-3.24699e-06
-3.3479e-06
-3.44735e-06
-3.54531e-06
-3.64177e-06
-3.73684e-06
-3.83042e-06
-3.92238e-06
-4.01282e-06
-4.10176e-06
-4.18901e-06
-4.27453e-06
-4.35846e-06
-4.4407e-06
-4.52119e-06
-4.60001e-06
-4.67721e-06
-4.75271e-06
-4.82665e-06
-4.89929e-06
-4.97064e-06
-5.04066e-06
-5.10959e-06
-5.17777e-06
-5.24531e-06
-5.3123e-06
-5.37909e-06
-5.4459e-06
-5.51273e-06
-5.57978e-06
-5.64743e-06
-5.71587e-06
-5.78509e-06
-5.85528e-06
-5.9267e-06
-5.99935e-06
-6.07306e-06
-6.14789e-06
-6.22404e-06
-6.30149e-06
-6.38002e-06
-6.45955e-06
-6.54014e-06
-6.62166e-06
-6.70388e-06
-6.78671e-06
-6.87023e-06
-6.95438e-06
-7.03891e-06
-7.12369e-06
-7.20884e-06
-7.29447e-06
-7.38054e-06
-7.46699e-06
-7.55394e-06
-7.64164e-06
-7.73019e-06
-7.81963e-06
-7.91014e-06
-8.00205e-06
-8.09559e-06
-8.1909e-06
-8.28809e-06
-8.38744e-06
-8.48926e-06
-8.59368e-06
-8.7007e-06
-8.81045e-06
-8.92316e-06
-9.03899e-06
-9.1579e-06
-9.27979e-06
-9.40472e-06
-9.53284e-06
-9.66412e-06
-9.79832e-06
-9.93526e-06
-1.00749e-05
-1.02174e-05
-1.03624e-05
-1.05098e-05
-1.06594e-05
-1.0811e-05
-1.09646e-05
-1.11198e-05
-1.12764e-05
-1.14343e-05
-1.1593e-05
-1.17525e-05
-1.19123e-05
-1.20719e-05
-1.22311e-05
-1.23896e-05
-1.25471e-05
-1.27031e-05
-1.2857e-05
-1.30086e-05
-1.31574e-05
-1.33031e-05
-1.34452e-05
-1.35834e-05
-1.37173e-05
-1.38466e-05
-1.39712e-05
-1.40907e-05
-1.4205e-05
-1.43141e-05
-1.44179e-05
-1.45164e-05
-1.46098e-05
-1.46981e-05
-1.47816e-05
-1.48605e-05
-1.49352e-05
-1.5006e-05
-1.50731e-05
-1.5137e-05
-1.51977e-05
-1.52555e-05
-1.53106e-05
-1.53628e-05
-1.54121e-05
-1.54584e-05
-1.55014e-05
-1.55409e-05
-1.55766e-05
-1.56082e-05
-1.56355e-05
-1.56583e-05
-1.56767e-05
-1.56906e-05
-1.57002e-05
-1.57056e-05
-1.57072e-05
-1.57051e-05
-1.56998e-05
-1.56918e-05
-1.56811e-05
-1.56683e-05
-1.56536e-05
-1.56374e-05
-1.562e-05
-1.56018e-05
-1.5583e-05
-1.55638e-05
-1.55447e-05
-1.55258e-05
-1.55072e-05
-1.54889e-05
-1.5471e-05
-1.54533e-05
-1.54358e-05
-1.54183e-05
-1.54005e-05
-1.53825e-05
-1.53638e-05
-1.53444e-05
-1.5324e-05
-1.53023e-05
-1.52793e-05
-1.52547e-05
-1.52283e-05
-1.51999e-05
-1.51694e-05
-1.51366e-05
-1.51013e-05
-1.50631e-05
-1.50215e-05
-1.49764e-05
-1.49269e-05
-1.48731e-05
-1.48142e-05
-1.47503e-05
-1.46813e-05
-1.46071e-05
-1.4528e-05
-1.44441e-05
-1.43556e-05
-1.42624e-05
-1.41644e-05
-1.40613e-05
-1.39525e-05
-1.38376e-05
-1.37158e-05
-1.35865e-05
-1.34488e-05
-1.33021e-05
-1.31459e-05
-1.29795e-05
-1.28024e-05
-1.26142e-05
-1.24146e-05
-1.22033e-05
-1.19805e-05
-1.1746e-05
-1.15005e-05
-1.12444e-05
-1.09783e-05
-1.07031e-05
-1.04195e-05
-1.01283e-05
-9.83e-06
-9.52542e-06
-9.21487e-06
-8.89878e-06
-8.57759e-06
-8.25163e-06
-7.92132e-06
-7.58709e-06
-7.24946e-06
-6.90897e-06
-6.56616e-06
-6.22154e-06
-5.87558e-06
-5.52872e-06
-5.18128e-06
-4.83358e-06
-4.48588e-06
-4.13848e-06
-3.79171e-06
-3.44601e-06
-3.10193e-06
-2.76012e-06
-2.42127e-06
-2.08601e-06
-1.75489e-06
-1.4282e-06
-1.10594e-06
-7.87804e-07
-4.74077e-07
-1.59231e-07
1.9341e-07
2.71826e-07
3.61016e-08
-1.91292e-07
-4.1612e-07
-6.33437e-07
-8.40675e-07
-1.03699e-06
-1.22264e-06
-1.39855e-06
-1.56572e-06
-1.72527e-06
-1.87828e-06
-2.02562e-06
-2.16808e-06
-2.30625e-06
-2.44065e-06
-2.57184e-06
-2.70007e-06
-2.82558e-06
-2.94874e-06
-3.06968e-06
-3.18846e-06
-3.30527e-06
-3.42015e-06
-3.53313e-06
-3.64434e-06
-3.75375e-06
-3.86131e-06
-3.96714e-06
-4.07118e-06
-4.17329e-06
-4.27354e-06
-4.372e-06
-4.46847e-06
-4.56288e-06
-4.65531e-06
-4.74575e-06
-4.8341e-06
-4.92042e-06
-5.00476e-06
-5.087e-06
-5.16723e-06
-5.24573e-06
-5.32263e-06
-5.39784e-06
-5.47154e-06
-5.54406e-06
-5.61554e-06
-5.68609e-06
-5.75606e-06
-5.82578e-06
-5.89533e-06
-5.96484e-06
-6.03471e-06
-6.10524e-06
-6.17648e-06
-6.24854e-06
-6.32175e-06
-6.39632e-06
-6.47216e-06
-6.54927e-06
-6.62782e-06
-6.70785e-06
-6.78919e-06
-6.87177e-06
-6.95569e-06
-7.04092e-06
-7.12718e-06
-7.2143e-06
-7.3023e-06
-7.39119e-06
-7.4808e-06
-7.57095e-06
-7.66165e-06
-7.75299e-06
-7.84492e-06
-7.93739e-06
-8.0305e-06
-8.12449e-06
-8.21948e-06
-8.31548e-06
-8.41262e-06
-8.51125e-06
-8.61172e-06
-8.71421e-06
-8.81881e-06
-8.92577e-06
-9.03549e-06
-9.14825e-06
-9.26414e-06
-9.38324e-06
-9.50579e-06
-9.63207e-06
-9.76221e-06
-9.89614e-06
-1.00339e-05
-1.01755e-05
-1.03212e-05
-1.04708e-05
-1.06242e-05
-1.07812e-05
-1.09419e-05
-1.1106e-05
-1.12735e-05
-1.1444e-05
-1.16174e-05
-1.17937e-05
-1.19725e-05
-1.21536e-05
-1.23364e-05
-1.25209e-05
-1.27068e-05
-1.28938e-05
-1.30813e-05
-1.32689e-05
-1.34562e-05
-1.36429e-05
-1.38287e-05
-1.40129e-05
-1.4195e-05
-1.43745e-05
-1.45512e-05
-1.47245e-05
-1.4894e-05
-1.50592e-05
-1.52196e-05
-1.53751e-05
-1.55254e-05
-1.56702e-05
-1.58091e-05
-1.59422e-05
-1.60694e-05
-1.61907e-05
-1.63062e-05
-1.64159e-05
-1.652e-05
-1.66189e-05
-1.67128e-05
-1.68022e-05
-1.68872e-05
-1.69683e-05
-1.70456e-05
-1.71194e-05
-1.71899e-05
-1.72571e-05
-1.73207e-05
-1.73808e-05
-1.7437e-05
-1.74891e-05
-1.75369e-05
-1.75799e-05
-1.76178e-05
-1.76507e-05
-1.76785e-05
-1.77012e-05
-1.77188e-05
-1.77315e-05
-1.77398e-05
-1.77438e-05
-1.77441e-05
-1.77412e-05
-1.77352e-05
-1.77266e-05
-1.77157e-05
-1.7703e-05
-1.76889e-05
-1.76736e-05
-1.76575e-05
-1.76408e-05
-1.7624e-05
-1.76071e-05
-1.75904e-05
-1.7574e-05
-1.75577e-05
-1.75416e-05
-1.75255e-05
-1.75092e-05
-1.74927e-05
-1.74756e-05
-1.74579e-05
-1.74392e-05
-1.74194e-05
-1.73981e-05
-1.73752e-05
-1.73505e-05
-1.73236e-05
-1.72945e-05
-1.72628e-05
-1.72285e-05
-1.71913e-05
-1.71507e-05
-1.71064e-05
-1.70577e-05
-1.70043e-05
-1.69456e-05
-1.68815e-05
-1.68115e-05
-1.67355e-05
-1.66538e-05
-1.65663e-05
-1.64733e-05
-1.63747e-05
-1.62707e-05
-1.6161e-05
-1.60452e-05
-1.59229e-05
-1.57931e-05
-1.56554e-05
-1.55087e-05
-1.53523e-05
-1.51855e-05
-1.50076e-05
-1.48179e-05
-1.46159e-05
-1.44011e-05
-1.41733e-05
-1.3932e-05
-1.36775e-05
-1.34098e-05
-1.31294e-05
-1.28368e-05
-1.25329e-05
-1.22184e-05
-1.18944e-05
-1.15617e-05
-1.12209e-05
-1.08728e-05
-1.0518e-05
-1.01569e-05
-9.78994e-06
-9.41758e-06
-9.0403e-06
-8.65863e-06
-8.27314e-06
-7.88442e-06
-7.49311e-06
-7.09978e-06
-6.70494e-06
-6.30905e-06
-5.91246e-06
-5.51553e-06
-5.11853e-06
-4.72182e-06
-4.32579e-06
-3.931e-06
-3.53809e-06
-3.14783e-06
-2.76104e-06
-2.37845e-06
-2.00066e-06
-1.62802e-06
-1.26051e-06
-8.9782e-07
-5.40222e-07
-1.81434e-07
1.57062e-07
1.98857e-07
-3.4436e-08
-2.5905e-07
-4.81976e-07
-6.99307e-07
-9.08625e-07
-1.10897e-06
-1.30039e-06
-1.48333e-06
-1.65858e-06
-1.82702e-06
-1.98946e-06
-2.14663e-06
-2.29913e-06
-2.44747e-06
-2.59222e-06
-2.73367e-06
-2.87204e-06
-3.00771e-06
-3.14084e-06
-3.27151e-06
-3.39987e-06
-3.52599e-06
-3.64988e-06
-3.77166e-06
-3.89133e-06
-4.00885e-06
-4.1243e-06
-4.23766e-06
-4.34876e-06
-4.45763e-06
-4.56437e-06
-4.66884e-06
-4.7709e-06
-4.87062e-06
-4.96799e-06
-5.0629e-06
-5.1554e-06
-5.24557e-06
-5.33328e-06
-5.41855e-06
-5.50162e-06
-5.58265e-06
-5.66159e-06
-5.73856e-06
-5.81391e-06
-5.88783e-06
-5.9604e-06
-6.03193e-06
-6.10279e-06
-6.17314e-06
-6.24311e-06
-6.31309e-06
-6.38347e-06
-6.45441e-06
-6.52602e-06
-6.59864e-06
-6.67249e-06
-6.7476e-06
-6.82399e-06
-6.9019e-06
-6.98149e-06
-7.06261e-06
-7.14513e-06
-7.22913e-06
-7.31469e-06
-7.40163e-06
-7.48974e-06
-7.579e-06
-7.66944e-06
-7.76091e-06
-7.85317e-06
-7.94621e-06
-8.04014e-06
-8.13497e-06
-8.23055e-06
-8.32691e-06
-8.42425e-06
-8.5228e-06
-8.6226e-06
-8.7237e-06
-8.82636e-06
-8.93098e-06
-9.03785e-06
-9.14712e-06
-9.25901e-06
-9.37389e-06
-9.49215e-06
-9.614e-06
-9.73957e-06
-9.8691e-06
-1.00029e-05
-1.01413e-05
-1.02842e-05
-1.04318e-05
-1.05841e-05
-1.07414e-05
-1.09036e-05
-1.10705e-05
-1.12422e-05
-1.14185e-05
-1.15994e-05
-1.17847e-05
-1.19741e-05
-1.21674e-05
-1.23645e-05
-1.25653e-05
-1.27693e-05
-1.29761e-05
-1.31854e-05
-1.33969e-05
-1.36102e-05
-1.38249e-05
-1.40406e-05
-1.42567e-05
-1.44729e-05
-1.46886e-05
-1.49034e-05
-1.51167e-05
-1.53279e-05
-1.55365e-05
-1.57422e-05
-1.59444e-05
-1.61425e-05
-1.63361e-05
-1.65245e-05
-1.67078e-05
-1.68856e-05
-1.70574e-05
-1.7223e-05
-1.73821e-05
-1.75348e-05
-1.7681e-05
-1.78207e-05
-1.7954e-05
-1.8081e-05
-1.82021e-05
-1.83175e-05
-1.84276e-05
-1.85327e-05
-1.8633e-05
-1.8729e-05
-1.88208e-05
-1.89087e-05
-1.89927e-05
-1.90725e-05
-1.91481e-05
-1.92194e-05
-1.9286e-05
-1.93475e-05
-1.94038e-05
-1.94543e-05
-1.94991e-05
-1.95382e-05
-1.95714e-05
-1.95989e-05
-1.96208e-05
-1.96376e-05
-1.96497e-05
-1.96574e-05
-1.96614e-05
-1.96619e-05
-1.96593e-05
-1.96541e-05
-1.96467e-05
-1.96375e-05
-1.96269e-05
-1.96151e-05
-1.96026e-05
-1.95895e-05
-1.95762e-05
-1.95629e-05
-1.95495e-05
-1.95362e-05
-1.95228e-05
-1.95092e-05
-1.94954e-05
-1.94812e-05
-1.94662e-05
-1.94504e-05
-1.94335e-05
-1.94153e-05
-1.93954e-05
-1.93736e-05
-1.93497e-05
-1.93234e-05
-1.92945e-05
-1.92627e-05
-1.9228e-05
-1.91898e-05
-1.91479e-05
-1.91017e-05
-1.90506e-05
-1.89943e-05
-1.89321e-05
-1.88637e-05
-1.87888e-05
-1.87073e-05
-1.86192e-05
-1.85245e-05
-1.84236e-05
-1.83164e-05
-1.82029e-05
-1.80827e-05
-1.79556e-05
-1.78207e-05
-1.76774e-05
-1.75248e-05
-1.73619e-05
-1.71879e-05
-1.7002e-05