/*--------------------------------*- C++ -*----------------------------------*\
| =========                 |                                                 |
| \\      /  F ield         | OpenFOAM: The Open Source CFD Toolbox           |
|  \\    /   O peration     | Version:  v2012                                 |
|   \\  /    A nd           | Website:  www.openfoam.com                      |
|    \\/     M anipulation  |                                                 |
\*---------------------------------------------------------------------------*/
FoamFile
{
    version     2.0;
    format      ascii;
    class       volScalarField;
    location    "0";
    object      pRec;
}
// * * * * * * * * * * * * * * * * * * * * * * * * * * * * * * * * * * * * * //

dimensions      [0 2 -2 0 0 0 0];


internalField   nonuniform List<scalar> 
4000
(
-7.11914e-13
-7.05771e-13
-7.07275e-13
-7.10992e-13
-7.08457e-13
-7.08862e-13
-7.07801e-13
-7.02472e-13
-6.90996e-13
-6.87553e-13
-6.89492e-13
-6.83598e-13
-6.70218e-13
-6.54269e-13
-6.40497e-13
-6.33438e-13
-6.27986e-13
-6.25304e-13
-6.17685e-13
-6.02147e-13
-5.90589e-13
-5.83505e-13
-5.77881e-13
-5.71679e-13
-5.61068e-13
-5.50171e-13
-5.49236e-13
-5.43005e-13
-5.36452e-13
-5.25707e-13
-5.08004e-13
-5.0148e-13
-5.00395e-13
-4.99625e-13
-4.95209e-13
-4.9367e-13
-4.85105e-13
-4.64792e-13
-4.46246e-13
-4.43452e-13
-4.45541e-13
-4.44672e-13
-4.46015e-13
-4.39344e-13
-4.26587e-13
-4.17626e-13
-4.09056e-13
-3.99552e-13
-3.89514e-13
-3.81424e-13
-3.71523e-13
-3.62816e-13
-3.54919e-13
-3.45241e-13
-3.36303e-13
-3.22886e-13
-3.16437e-13
-3.13264e-13
-3.10712e-13
-3.07876e-13
-2.99623e-13
-2.92094e-13
-2.81468e-13
-2.68609e-13
-2.60231e-13
-2.52857e-13
-2.48839e-13
-2.41091e-13
-2.30108e-13
-2.22139e-13
-2.14747e-13
-2.08886e-13
-1.95879e-13
-1.89024e-13
-1.88728e-13
-1.84496e-13
-1.82135e-13
-1.76121e-13
-1.67657e-13
-1.54741e-13
-1.41378e-13
-1.3587e-13
-1.27282e-13
-1.23514e-13
-1.20309e-13
-1.14561e-13
-1.04165e-13
-9.56983e-14
-9.17781e-14
-8.80023e-14
-8.13556e-14
-7.4881e-14
-6.68137e-14
-5.97381e-14
-5.0691e-14
-4.10015e-14
-3.18458e-14
-2.29558e-14
-1.33455e-14
-3.43111e-15
-7.08093e-13
-7.07041e-13
-7.10643e-13
-7.10528e-13
-7.10943e-13
-7.07286e-13
-7.04529e-13
-7.01869e-13
-6.96388e-13
-6.91675e-13
-6.8551e-13
-6.79216e-13
-6.68179e-13
-6.55678e-13
-6.43864e-13
-6.36818e-13
-6.31552e-13
-6.23791e-13
-6.13568e-13
-6.0565e-13
-5.95059e-13
-5.82503e-13
-5.7366e-13
-5.67893e-13
-5.58769e-13
-5.52645e-13
-5.50224e-13
-5.43917e-13
-5.3508e-13
-5.21324e-13
-5.11739e-13
-5.05236e-13
-4.99716e-13
-4.96253e-13
-4.92476e-13
-4.89635e-13
-4.82622e-13
-4.69319e-13
-4.54068e-13
-4.4815e-13
-4.45307e-13
-4.43462e-13
-4.42238e-13
-4.3698e-13
-4.28896e-13
-4.18015e-13
-4.07355e-13
-3.99367e-13
-3.90085e-13
-3.78649e-13
-3.70351e-13
-3.61891e-13
-3.54655e-13
-3.46222e-13
-3.37374e-13
-3.25943e-13
-3.16437e-13
-3.11375e-13
-3.0891e-13
-3.0638e-13
-3.02032e-13
-2.92068e-13
-2.8298e-13
-2.70504e-13
-2.61784e-13
-2.52272e-13
-2.46236e-13
-2.40286e-13
-2.32209e-13
-2.23699e-13
-2.15358e-13
-2.08791e-13
-2.01464e-13
-1.92146e-13
-1.88347e-13
-1.81257e-13
-1.80657e-13
-1.73738e-13
-1.64435e-13
-1.52426e-13
-1.42559e-13
-1.37537e-13
-1.31435e-13
-1.26426e-13
-1.17738e-13
-1.11825e-13
-1.02328e-13
-9.35653e-14
-8.99619e-14
-8.64355e-14
-8.33003e-14
-7.75591e-14
-7.09392e-14
-5.79714e-14
-4.90458e-14
-4.17698e-14
-3.15539e-14
-2.32028e-14
-1.53789e-14
-5.36409e-15
-7.07852e-13
-7.06823e-13
-7.09123e-13
-7.12833e-13
-7.13973e-13
-7.08879e-13
-7.03694e-13
-7.00737e-13
-6.94849e-13
-6.91296e-13
-6.85508e-13
-6.7846e-13
-6.68044e-13
-6.56912e-13
-6.45757e-13
-6.37114e-13
-6.31414e-13
-6.2358e-13
-6.13984e-13
-6.04687e-13
-5.93475e-13
-5.84145e-13
-5.74861e-13
-5.68751e-13
-5.60789e-13
-5.55137e-13
-5.51148e-13
-5.43298e-13
-5.32729e-13
-5.19023e-13
-5.12553e-13
-5.05701e-13
-5.00059e-13
-4.97598e-13
-4.94281e-13
-4.91094e-13
-4.81495e-13
-4.71369e-13
-4.59804e-13
-4.48405e-13
-4.44381e-13
-4.39776e-13
-4.41104e-13
-4.37748e-13
-4.30479e-13
-4.18633e-13
-4.06413e-13
-3.96402e-13
-3.90234e-13
-3.85005e-13
-3.73044e-13
-3.61991e-13
-3.52201e-13
-3.42992e-13
-3.35768e-13
-3.27235e-13
-3.16321e-13
-3.13627e-13
-3.1434e-13
-3.07469e-13
-2.99528e-13
-2.86651e-13
-2.77719e-13
-2.72045e-13
-2.64953e-13
-2.56373e-13
-2.49391e-13
-2.38769e-13
-2.30878e-13
-2.20656e-13
-2.12035e-13
-2.05723e-13
-1.97347e-13
-1.91727e-13
-1.87877e-13
-1.84182e-13
-1.78995e-13
-1.73863e-13
-1.63657e-13
-1.52893e-13
-1.48399e-13
-1.4e-13
-1.27404e-13
-1.22278e-13
-1.17085e-13
-1.14164e-13
-1.07681e-13
-9.69884e-14
-8.98545e-14
-8.4136e-14
-8.07607e-14
-7.66539e-14
-6.89356e-14
-5.96374e-14
-4.81199e-14
-3.87108e-14
-3.2011e-14
-2.43514e-14
-1.94348e-14
-6.13567e-15
-7.09018e-13
-7.10494e-13
-7.11526e-13
-7.07403e-13
-7.12116e-13
-7.05521e-13
-7.0361e-13
-7.00966e-13
-6.99232e-13
-6.9403e-13
-6.83422e-13
-6.73196e-13
-6.64577e-13
-6.58291e-13
-6.55481e-13
-6.44447e-13
-6.29243e-13
-6.19579e-13
-6.13262e-13
-6.03482e-13
-5.94323e-13
-5.86524e-13
-5.75856e-13
-5.62131e-13
-5.5537e-13
-5.52596e-13
-5.50367e-13
-5.45108e-13
-5.32268e-13
-5.23558e-13
-5.17035e-13
-5.0966e-13
-5.00885e-13
-4.95255e-13
-4.89639e-13
-4.90422e-13
-4.81364e-13
-4.69661e-13
-4.60974e-13
-4.5156e-13
-4.4819e-13
-4.4576e-13
-4.41054e-13
-4.34598e-13
-4.24903e-13
-4.14265e-13
-4.05964e-13
-4.00962e-13
-3.92488e-13
-3.77812e-13
-3.67475e-13
-3.61005e-13
-3.54619e-13
-3.47436e-13
-3.35119e-13
-3.28074e-13
-3.18481e-13
-3.13786e-13
-3.13207e-13
-3.06551e-13
-2.97585e-13
-2.8764e-13
-2.82317e-13
-2.74645e-13
-2.64129e-13
-2.55646e-13
-2.47994e-13
-2.3876e-13
-2.31776e-13
-2.23213e-13
-2.16317e-13
-2.09414e-13
-2.0068e-13
-1.93292e-13
-1.87276e-13
-1.82578e-13
-1.79777e-13
-1.72773e-13
-1.63501e-13
-1.53751e-13
-1.46668e-13
-1.41067e-13
-1.29726e-13
-1.19993e-13
-1.1615e-13
-1.11309e-13
-1.04742e-13
-9.67598e-14
-8.91615e-14
-8.46558e-14
-8.28707e-14
-7.66735e-14
-7.10417e-14
-5.80963e-14
-4.85807e-14
-4.14584e-14
-3.36397e-14
-2.32982e-14
-1.56447e-14
-5.55988e-15
-7.10616e-13
-7.15384e-13
-7.1171e-13
-7.06418e-13
-7.02283e-13
-7.06184e-13
-7.06724e-13
-7.05313e-13
-6.98531e-13
-6.9059e-13
-6.81328e-13
-6.75065e-13
-6.64559e-13
-6.55244e-13
-6.54045e-13
-6.4826e-13
-6.36524e-13
-6.24971e-13
-6.11077e-13
-5.97694e-13
-5.92581e-13
-5.85433e-13
-5.70281e-13
-5.60611e-13
-5.5867e-13
-5.56537e-13
-5.5238e-13
-5.43812e-13
-5.3468e-13
-5.25995e-13
-5.17732e-13
-5.11313e-13
-5.02393e-13
-4.95992e-13
-4.90432e-13
-4.89331e-13
-4.80437e-13
-4.69513e-13
-4.57931e-13
-4.50436e-13
-4.48036e-13
-4.48302e-13
-4.41433e-13
-4.3294e-13
-4.22077e-13
-4.12475e-13
-4.0444e-13
-3.98971e-13
-3.91051e-13
-3.81707e-13
-3.71349e-13
-3.64523e-13
-3.56065e-13
-3.46547e-13
-3.36275e-13
-3.26503e-13
-3.19804e-13
-3.1545e-13
-3.11938e-13
-3.04672e-13
-2.96943e-13
-2.88208e-13
-2.7972e-13
-2.73471e-13
-2.68226e-13
-2.61683e-13
-2.53765e-13
-2.40431e-13
-2.31319e-13
-2.20822e-13
-2.12238e-13
-2.06136e-13
-2.00099e-13
-1.93643e-13
-1.83652e-13
-1.79192e-13
-1.77499e-13
-1.72551e-13
-1.65852e-13
-1.5574e-13
-1.48239e-13
-1.43461e-13
-1.3034e-13
-1.19344e-13
-1.1247e-13
-1.07595e-13
-1.03853e-13
-9.99282e-14
-9.17411e-14
-8.63937e-14
-8.16799e-14
-7.63371e-14
-6.85669e-14
-6.25143e-14
-5.39682e-14
-4.21304e-14
-3.40597e-14
-2.58482e-14
-1.51658e-14
-3.13099e-15
-7.06885e-13
-7.17328e-13
-7.13739e-13
-7.03537e-13
-7.07374e-13
-7.12e-13
-7.10283e-13
-7.05802e-13
-6.96732e-13
-6.82092e-13
-6.78126e-13
-6.73578e-13
-6.69318e-13
-6.5803e-13
-6.50844e-13
-6.5047e-13
-6.38796e-13
-6.27755e-13
-6.15823e-13
-6.01001e-13
-5.9041e-13
-5.78489e-13
-5.60275e-13
-5.57057e-13
-5.59134e-13
-5.60066e-13
-5.5223e-13
-5.42027e-13
-5.33491e-13
-5.29709e-13
-5.19949e-13
-5.10392e-13
-5.01524e-13
-4.99491e-13
-4.96962e-13
-4.88178e-13
-4.77914e-13
-4.68913e-13
-4.58215e-13
-4.53213e-13
-4.51239e-13
-4.48944e-13
-4.39685e-13
-4.33647e-13
-4.22453e-13
-4.09956e-13
-3.99646e-13
-3.94741e-13
-3.91156e-13
-3.81572e-13
-3.74281e-13
-3.6381e-13
-3.54119e-13
-3.44278e-13
-3.34557e-13
-3.28409e-13
-3.22815e-13
-3.17126e-13
-3.09984e-13
-3.05732e-13
-2.98941e-13
-2.89064e-13
-2.81021e-13
-2.73547e-13
-2.64059e-13
-2.59838e-13
-2.54886e-13
-2.41668e-13
-2.32405e-13
-2.24224e-13
-2.13972e-13
-2.06526e-13
-2.01641e-13
-1.95934e-13
-1.85897e-13
-1.81918e-13
-1.76015e-13
-1.69067e-13
-1.64346e-13
-1.585e-13
-1.51121e-13
-1.42516e-13
-1.279e-13
-1.16672e-13
-1.12834e-13
-1.10373e-13
-1.06631e-13
-9.7538e-14
-9.08408e-14
-8.6156e-14
-8.11568e-14
-7.6469e-14
-6.66751e-14
-6.20774e-14
-5.45815e-14
-4.625e-14
-3.40846e-14
-2.43628e-14
-1.2883e-14
-1.85201e-15
-7.12852e-13
-7.14083e-13
-7.13399e-13
-7.09581e-13
-7.0695e-13
-7.10582e-13
-7.10047e-13
-7.0331e-13
-6.9485e-13
-6.8251e-13
-6.73671e-13
-6.72497e-13
-6.71701e-13
-6.59578e-13
-6.52197e-13
-6.46833e-13
-6.42479e-13
-6.33615e-13
-6.12923e-13
-5.93451e-13
-5.76378e-13
-5.73321e-13
-5.71449e-13
-5.69466e-13
-5.65623e-13
-5.5965e-13
-5.48184e-13
-5.38971e-13
-5.35894e-13
-5.31728e-13
-5.23276e-13
-5.09539e-13
-5.03055e-13
-4.94963e-13
-4.90493e-13
-4.85391e-13
-4.79804e-13
-4.7505e-13
-4.64214e-13
-4.5189e-13
-4.45315e-13
-4.41619e-13
-4.37122e-13
-4.3327e-13
-4.26811e-13
-4.15956e-13
-4.03848e-13
-3.94028e-13
-3.8772e-13
-3.80931e-13
-3.73224e-13
-3.66971e-13
-3.57735e-13
-3.4482e-13
-3.36122e-13
-3.29688e-13
-3.22882e-13
-3.10846e-13
-3.05707e-13
-3.04762e-13
-3.03362e-13
-2.95222e-13
-2.83606e-13
-2.7074e-13
-2.60887e-13
-2.5645e-13
-2.49023e-13
-2.36822e-13
-2.27299e-13
-2.23165e-13
-2.23244e-13
-2.13789e-13
-2.03192e-13
-1.98932e-13
-1.88838e-13
-1.79577e-13
-1.71925e-13
-1.65385e-13
-1.5983e-13
-1.56114e-13
-1.49998e-13
-1.41469e-13
-1.33471e-13
-1.23924e-13
-1.1745e-13
-1.0624e-13
-1.03177e-13
-9.99891e-14
-9.10151e-14
-8.80378e-14
-8.06752e-14
-7.15571e-14
-6.7205e-14
-6.19193e-14
-5.54137e-14
-4.34203e-14
-3.38806e-14
-2.29739e-14
-1.26819e-14
-4.26577e-15
-7.127e-13
-7.1273e-13
-7.10268e-13
-7.10352e-13
-7.13585e-13
-7.13306e-13
-7.1027e-13
-7.03173e-13
-6.93437e-13
-6.84381e-13
-6.77351e-13
-6.71126e-13
-6.67745e-13
-6.57456e-13
-6.53262e-13
-6.46433e-13
-6.42751e-13
-6.32428e-13
-6.07246e-13
-5.94418e-13
-5.90476e-13
-5.83936e-13
-5.73473e-13
-5.63285e-13
-5.60442e-13
-5.5481e-13
-5.42899e-13
-5.36393e-13
-5.3253e-13
-5.29111e-13
-5.22742e-13
-5.15704e-13
-5.09639e-13
-5.0363e-13
-4.91628e-13
-4.84116e-13
-4.78557e-13
-4.69547e-13
-4.61107e-13
-4.51915e-13
-4.47004e-13
-4.46498e-13
-4.39107e-13
-4.3777e-13
-4.31581e-13
-4.15973e-13
-4.0006e-13
-3.85034e-13
-3.83722e-13
-3.83313e-13
-3.79306e-13
-3.70752e-13
-3.57299e-13
-3.44904e-13
-3.33419e-13
-3.266e-13
-3.2323e-13
-3.17571e-13
-3.08103e-13
-3.01178e-13
-2.98204e-13
-2.91638e-13
-2.8451e-13
-2.75977e-13
-2.67335e-13
-2.58695e-13
-2.4946e-13
-2.38647e-13
-2.32931e-13
-2.25957e-13
-2.18581e-13
-2.13663e-13
-2.02367e-13
-1.89618e-13
-1.82121e-13
-1.80504e-13
-1.76399e-13
-1.69394e-13
-1.65401e-13
-1.59567e-13
-1.50511e-13
-1.4163e-13
-1.29362e-13
-1.18141e-13
-1.09096e-13
-1.0555e-13
-1.04255e-13
-1.01641e-13
-9.36535e-14
-8.63971e-14
-7.80365e-14
-7.23966e-14
-6.78514e-14
-6.31123e-14
-5.35919e-14
-4.17012e-14
-3.42231e-14
-2.4453e-14
-1.40435e-14
-2.45864e-15
-7.15494e-13
-7.18069e-13
-7.12177e-13
-7.04416e-13
-7.09533e-13
-7.13018e-13
-7.1296e-13
-7.05016e-13
-6.90523e-13
-6.86325e-13
-6.78443e-13
-6.67388e-13
-6.61365e-13
-6.56986e-13
-6.53641e-13
-6.49248e-13
-6.42242e-13
-6.30083e-13
-6.10856e-13
-5.97114e-13
-5.89682e-13
-5.81598e-13
-5.78116e-13
-5.70137e-13
-5.59874e-13
-5.49994e-13
-5.42075e-13
-5.36756e-13
-5.3595e-13
-5.30594e-13
-5.2377e-13
-5.16878e-13
-5.06186e-13
-4.95859e-13
-4.92328e-13
-4.85195e-13
-4.77091e-13
-4.6796e-13
-4.64158e-13
-4.5957e-13
-4.53938e-13
-4.47399e-13
-4.35816e-13
-4.26679e-13
-4.23846e-13
-4.16614e-13
-4.06144e-13
-3.94441e-13
-3.87594e-13
-3.80188e-13
-3.7298e-13
-3.65693e-13
-3.55551e-13
-3.46361e-13
-3.38173e-13
-3.33124e-13
-3.24108e-13
-3.16985e-13
-3.08839e-13
-3.01854e-13
-2.95069e-13
-2.88753e-13
-2.8289e-13
-2.75142e-13
-2.64315e-13
-2.53858e-13
-2.47494e-13
-2.39248e-13
-2.31564e-13
-2.24454e-13
-2.17216e-13
-2.14176e-13
-2.06801e-13
-1.96472e-13
-1.85129e-13
-1.81071e-13
-1.77224e-13
-1.70988e-13
-1.65901e-13
-1.56516e-13
-1.51277e-13
-1.42498e-13
-1.29451e-13
-1.19731e-13
-1.11529e-13
-1.06508e-13
-1.05319e-13
-1.00757e-13
-9.2768e-14
-8.644e-14
-7.78846e-14
-7.13678e-14
-6.46863e-14
-6.02002e-14
-5.32464e-14
-4.3355e-14
-3.25044e-14
-2.00348e-14
-9.37047e-15
6.72056e-16
-7.15951e-13
-7.15264e-13
-7.14757e-13
-7.11837e-13
-7.08021e-13
-7.11022e-13
-7.08898e-13
-7.08067e-13
-6.99028e-13
-6.8221e-13
-6.72876e-13
-6.64402e-13
-6.62796e-13
-6.60795e-13
-6.55991e-13
-6.48676e-13
-6.37586e-13
-6.29691e-13
-6.18286e-13
-6.02109e-13
-5.89953e-13
-5.7683e-13
-5.71741e-13
-5.64175e-13
-5.62023e-13
-5.55898e-13
-5.45065e-13
-5.3954e-13
-5.34333e-13
-5.29962e-13
-5.25408e-13
-5.16993e-13
-5.06127e-13
-4.94354e-13
-4.88408e-13
-4.8357e-13
-4.79917e-13
-4.69959e-13
-4.64367e-13
-4.5997e-13
-4.50639e-13
-4.41387e-13
-4.35268e-13
-4.27443e-13
-4.26838e-13
-4.21094e-13
-4.10427e-13
-3.96971e-13
-3.87632e-13
-3.77092e-13
-3.69415e-13
-3.65663e-13
-3.57418e-13
-3.47739e-13
-3.38844e-13
-3.30787e-13
-3.23324e-13
-3.15618e-13
-3.08485e-13
-3.04485e-13
-2.99253e-13
-2.95866e-13
-2.88149e-13
-2.75637e-13
-2.60681e-13
-2.4595e-13
-2.38951e-13
-2.34115e-13
-2.30828e-13
-2.31264e-13
-2.25347e-13
-2.17191e-13
-2.10035e-13
-1.99468e-13
-1.86683e-13
-1.7791e-13
-1.73499e-13
-1.68393e-13
-1.64777e-13
-1.56663e-13
-1.50873e-13
-1.42815e-13
-1.31176e-13
-1.23423e-13
-1.14551e-13
-1.05723e-13
-1.01341e-13
-9.52484e-14
-9.19986e-14
-8.78693e-14
-7.63238e-14
-6.70275e-14
-6.19852e-14
-5.71338e-14
-4.78961e-14
-3.828e-14
-2.89708e-14
-1.78254e-14
-7.00267e-15
-4.77446e-16
-7.1432e-13
-7.13747e-13
-7.1299e-13
-7.14335e-13
-7.14485e-13
-7.08843e-13
-7.06655e-13
-7.04106e-13
-6.97163e-13
-6.88232e-13
-6.73555e-13
-6.62749e-13
-6.62013e-13
-6.61395e-13
-6.55984e-13
-6.5164e-13
-6.38058e-13
-6.28286e-13
-6.18673e-13
-6.03852e-13
-5.94705e-13
-5.78231e-13
-5.67398e-13
-5.63015e-13
-5.56407e-13
-5.51664e-13
-5.47649e-13
-5.41165e-13
-5.36395e-13
-5.32497e-13
-5.2432e-13
-5.15442e-13
-5.05101e-13
-4.97068e-13
-4.92916e-13
-4.84749e-13
-4.76525e-13
-4.70378e-13
-4.66841e-13
-4.58568e-13
-4.50112e-13
-4.40909e-13
-4.34829e-13
-4.3317e-13
-4.31031e-13
-4.1959e-13
-4.06539e-13
-3.93051e-13
-3.83948e-13
-3.75473e-13
-3.72817e-13
-3.67592e-13
-3.57029e-13
-3.47196e-13
-3.36887e-13
-3.33549e-13
-3.26332e-13
-3.18152e-13
-3.07302e-13
-2.97688e-13
-2.96285e-13
-2.88297e-13
-2.82445e-13
-2.78574e-13
-2.63706e-13
-2.4877e-13
-2.38426e-13
-2.33474e-13
-2.31274e-13
-2.34938e-13
-2.27262e-13
-2.1998e-13
-2.10862e-13
-1.98282e-13
-1.84248e-13
-1.73673e-13
-1.73196e-13
-1.72964e-13
-1.6919e-13
-1.60817e-13
-1.55329e-13
-1.46782e-13
-1.30913e-13
-1.19498e-13
-1.08638e-13
-9.97965e-14
-1.0252e-13
-1.01046e-13
-9.2962e-14
-8.60646e-14
-7.49019e-14
-6.87618e-14
-6.16245e-14
-5.51077e-14
-4.981e-14
-4.19672e-14
-2.47031e-14
-8.19211e-15
1.04621e-15
-2.15972e-15
-7.18286e-13
-7.1627e-13
-7.13924e-13
-7.15912e-13
-7.14035e-13
-7.08623e-13
-7.08512e-13
-7.0502e-13
-6.96547e-13
-6.84776e-13
-6.75706e-13
-6.66859e-13
-6.58346e-13
-6.54622e-13
-6.50609e-13
-6.44164e-13
-6.41619e-13
-6.34545e-13
-6.21328e-13
-6.05657e-13
-5.9406e-13
-5.86049e-13
-5.7405e-13
-5.63602e-13
-5.56246e-13
-5.45777e-13
-5.42485e-13
-5.40111e-13
-5.37774e-13
-5.35479e-13
-5.26969e-13
-5.16359e-13
-5.03733e-13
-4.94677e-13
-4.88909e-13
-4.82128e-13
-4.79041e-13
-4.73485e-13
-4.69612e-13
-4.56667e-13
-4.4867e-13
-4.37807e-13
-4.34533e-13
-4.3586e-13
-4.29085e-13
-4.19855e-13
-4.07564e-13
-3.97221e-13
-3.85491e-13
-3.75437e-13
-3.67923e-13
-3.65415e-13
-3.56682e-13
-3.50319e-13
-3.42719e-13
-3.32595e-13
-3.24054e-13
-3.15195e-13
-3.0703e-13
-3.0118e-13
-2.99138e-13
-2.99284e-13
-2.87592e-13
-2.74898e-13
-2.55069e-13
-2.44585e-13
-2.38173e-13
-2.3574e-13
-2.31572e-13
-2.30267e-13
-2.24048e-13
-2.23746e-13
-2.17956e-13
-2.0498e-13
-1.8267e-13
-1.65453e-13
-1.65582e-13
-1.74384e-13
-1.72211e-13
-1.61054e-13
-1.54447e-13
-1.43639e-13
-1.33548e-13
-1.24892e-13
-1.14471e-13
-1.03139e-13
-9.69277e-14
-9.6348e-14
-9.12329e-14
-8.45959e-14
-7.27441e-14
-6.8102e-14
-6.18083e-14
-5.39554e-14
-4.50471e-14
-3.74287e-14
-2.36269e-14
-1.05145e-14
-3.49442e-15
-2.49265e-15
-7.1569e-13
-7.15748e-13
-7.07524e-13
-7.17444e-13
-7.1692e-13
-7.13552e-13
-7.07173e-13
-6.99585e-13
-6.91153e-13
-6.79244e-13
-6.73612e-13
-6.67888e-13
-6.67235e-13
-6.60535e-13
-6.53127e-13
-6.48538e-13
-6.4366e-13
-6.36363e-13
-6.22598e-13
-6.07333e-13
-5.86547e-13
-5.71771e-13
-5.61556e-13
-5.60806e-13
-5.56826e-13
-5.52894e-13
-5.46106e-13
-5.39792e-13
-5.38847e-13
-5.37569e-13
-5.30634e-13
-5.1734e-13
-5.07055e-13
-4.98992e-13
-4.94874e-13
-4.84371e-13
-4.7532e-13
-4.71523e-13
-4.66526e-13
-4.56573e-13
-4.47529e-13
-4.4394e-13
-4.3996e-13
-4.34565e-13
-4.2257e-13
-4.13427e-13
-4.05764e-13
-3.97781e-13
-3.87981e-13
-3.7961e-13
-3.72623e-13
-3.65696e-13
-3.53595e-13
-3.42731e-13
-3.45046e-13
-3.44468e-13
-3.27703e-13
-3.12122e-13
-3.03518e-13
-2.94536e-13
-2.92164e-13
-2.8948e-13
-2.88605e-13
-2.78078e-13
-2.60187e-13
-2.5059e-13
-2.37206e-13
-2.36528e-13
-2.31795e-13
-2.26901e-13
-2.23875e-13
-2.24873e-13
-2.19154e-13
-2.02451e-13
-1.84109e-13
-1.71084e-13
-1.69635e-13
-1.7474e-13
-1.68475e-13
-1.59033e-13
-1.52284e-13
-1.44585e-13
-1.36593e-13
-1.27046e-13
-1.15938e-13
-1.02484e-13
-9.71911e-14
-9.72924e-14
-9.04735e-14
-8.32068e-14
-7.37108e-14
-6.63378e-14
-5.78786e-14
-5.15883e-14
-4.56584e-14
-3.63397e-14
-2.40741e-14
-1.27344e-14
-2.4581e-15
-4.52556e-17
-7.12378e-13
-7.23417e-13
-7.18167e-13
-7.12721e-13
-7.1308e-13
-7.11206e-13
-7.06212e-13
-7.04281e-13
-6.91722e-13
-6.75414e-13
-6.7142e-13
-6.68758e-13
-6.65676e-13
-6.60857e-13
-6.55876e-13
-6.45111e-13
-6.33855e-13
-6.25093e-13
-6.19119e-13
-6.10371e-13
-6.03737e-13
-5.94528e-13
-5.80098e-13
-5.60429e-13
-5.45784e-13
-5.39919e-13
-5.43099e-13
-5.42e-13
-5.40958e-13
-5.40334e-13
-5.31757e-13
-5.18481e-13
-5.02218e-13
-4.89539e-13
-4.8496e-13
-4.81191e-13
-4.82159e-13
-4.79121e-13
-4.67641e-13
-4.61866e-13
-4.50891e-13
-4.40188e-13
-4.38512e-13
-4.31198e-13
-4.2213e-13
-4.12907e-13
-4.0282e-13
-3.97741e-13
-3.92758e-13
-3.82542e-13
-3.74053e-13
-3.63489e-13
-3.55252e-13
-3.47549e-13
-3.42553e-13
-3.36892e-13
-3.29708e-13
-3.22918e-13
-3.13789e-13
-3.01027e-13
-2.90794e-13
-2.83819e-13
-2.78001e-13
-2.72102e-13
-2.61431e-13
-2.52932e-13
-2.4438e-13
-2.37845e-13
-2.32441e-13
-2.30475e-13
-2.26557e-13
-2.18846e-13
-2.11443e-13
-2.03832e-13
-1.87866e-13
-1.76694e-13
-1.70491e-13
-1.69274e-13
-1.68374e-13
-1.5993e-13
-1.53069e-13
-1.42321e-13
-1.35589e-13
-1.26089e-13
-1.14727e-13
-1.04791e-13
-9.99701e-14
-9.58825e-14
-9.19474e-14
-8.27677e-14
-7.4023e-14
-7.0013e-14
-6.09273e-14
-5.12602e-14
-4.01214e-14
-3.0918e-14
-2.26014e-14
-1.43089e-14
-5.6495e-15
-4.90919e-16
-7.12195e-13
-7.1649e-13
-7.19397e-13
-7.15146e-13
-7.13825e-13
-7.14914e-13
-7.02876e-13
-6.89741e-13
-6.83508e-13
-6.80956e-13
-6.77969e-13
-6.73003e-13
-6.69425e-13
-6.62786e-13
-6.5627e-13
-6.46823e-13
-6.39841e-13
-6.35294e-13
-6.24878e-13
-6.09993e-13
-5.88108e-13
-5.74088e-13
-5.63487e-13
-5.52441e-13
-5.54405e-13
-5.53767e-13
-5.49463e-13
-5.4287e-13
-5.39223e-13
-5.39021e-13
-5.33752e-13
-5.22251e-13
-5.08744e-13
-4.90082e-13
-4.79203e-13
-4.81933e-13
-4.84229e-13
-4.8091e-13
-4.74493e-13
-4.6338e-13
-4.47981e-13
-4.39228e-13
-4.32002e-13
-4.26574e-13
-4.21216e-13
-4.16253e-13
-4.09061e-13
-3.99465e-13
-3.92431e-13
-3.9019e-13
-3.80483e-13
-3.60827e-13
-3.49146e-13
-3.41784e-13
-3.35721e-13
-3.34754e-13
-3.31034e-13
-3.22143e-13
-3.0866e-13
-2.97287e-13
-2.94203e-13
-2.89565e-13
-2.81835e-13
-2.72043e-13
-2.56913e-13
-2.4584e-13
-2.42492e-13
-2.40843e-13
-2.36696e-13
-2.30304e-13
-2.2309e-13
-2.19035e-13
-2.12286e-13
-2.0248e-13
-1.89629e-13
-1.73206e-13
-1.69494e-13
-1.68218e-13
-1.70344e-13
-1.65962e-13
-1.5711e-13
-1.46654e-13
-1.35604e-13
-1.2314e-13
-1.12547e-13
-1.05525e-13
-1.0132e-13
-9.58064e-14
-8.92689e-14
-8.19643e-14
-7.46211e-14
-6.87006e-14
-6.20273e-14
-5.1382e-14
-3.92358e-14
-2.7765e-14
-1.80124e-14
-1.13634e-14
-3.55116e-15
-1.49126e-15
-7.10775e-13
-7.21169e-13
-7.22321e-13
-7.1598e-13
-7.12373e-13
-7.18696e-13
-7.13919e-13
-6.97355e-13
-6.76344e-13
-6.70953e-13
-6.69753e-13
-6.70956e-13
-6.69781e-13
-6.66007e-13
-6.60409e-13
-6.48291e-13
-6.3798e-13
-6.2874e-13
-6.14656e-13
-6.05616e-13
-5.96615e-13
-5.82883e-13
-5.69807e-13
-5.54117e-13
-5.53452e-13
-5.52123e-13
-5.51511e-13
-5.47581e-13
-5.39839e-13
-5.38412e-13
-5.29941e-13
-5.17354e-13
-5.07462e-13
-4.91462e-13
-4.78966e-13
-4.79169e-13
-4.82121e-13
-4.81942e-13
-4.73877e-13
-4.64099e-13
-4.47784e-13
-4.38414e-13
-4.35958e-13
-4.29555e-13
-4.21515e-13
-4.13732e-13
-4.11687e-13
-4.04286e-13
-3.92049e-13
-3.79328e-13
-3.70295e-13
-3.64131e-13
-3.53575e-13
-3.39773e-13
-3.41169e-13
-3.38976e-13
-3.30935e-13
-3.24182e-13
-3.1584e-13
-2.9997e-13
-2.92308e-13
-2.84723e-13
-2.76484e-13
-2.68548e-13
-2.56257e-13
-2.48801e-13
-2.39634e-13
-2.37423e-13
-2.33134e-13
-2.33925e-13
-2.26035e-13
-2.22894e-13
-2.16159e-13
-2.01733e-13
-1.86627e-13
-1.7444e-13
-1.72983e-13
-1.71335e-13
-1.65894e-13
-1.61339e-13
-1.55717e-13
-1.46976e-13
-1.36717e-13
-1.23741e-13
-1.16413e-13
-1.10073e-13
-1.02173e-13
-9.48089e-14
-8.89655e-14
-8.11128e-14
-7.3486e-14
-6.6608e-14
-5.76015e-14
-4.75268e-14
-3.90261e-14
-3.13975e-14
-1.58758e-14
-8.27124e-15
-6.15291e-16
-3.53787e-17
-7.19054e-13
-7.17862e-13
-7.14318e-13
-7.09956e-13
-7.11218e-13
-7.05469e-13
-6.99749e-13
-7.01286e-13
-6.95195e-13
-6.85991e-13
-6.79689e-13
-6.69322e-13
-6.62371e-13
-6.6111e-13
-6.59026e-13
-6.50155e-13
-6.40113e-13
-6.37284e-13
-6.24285e-13
-6.05618e-13
-5.83903e-13
-5.69219e-13
-5.6361e-13
-5.62212e-13
-5.55436e-13
-5.55754e-13
-5.51925e-13
-5.45351e-13
-5.40454e-13
-5.36348e-13
-5.29565e-13
-5.17129e-13
-5.04158e-13
-4.907e-13
-4.82528e-13
-4.82588e-13
-4.8798e-13
-4.82154e-13
-4.73505e-13
-4.62001e-13
-4.48342e-13
-4.35024e-13
-4.33234e-13
-4.30864e-13
-4.27191e-13
-4.15478e-13
-4.05976e-13
-4.01787e-13
-3.96051e-13
-3.83125e-13
-3.69289e-13
-3.63486e-13
-3.5517e-13
-3.44314e-13
-3.35332e-13
-3.33503e-13
-3.28312e-13
-3.23248e-13
-3.1669e-13
-3.05787e-13
-2.94359e-13
-2.85343e-13
-2.75728e-13
-2.67613e-13
-2.61105e-13
-2.50158e-13
-2.40085e-13
-2.31834e-13
-2.29887e-13
-2.33581e-13
-2.25632e-13
-2.21025e-13
-2.13859e-13
-2.02489e-13
-1.91446e-13
-1.78465e-13
-1.68653e-13
-1.65528e-13
-1.65107e-13
-1.67612e-13
-1.61805e-13
-1.45908e-13
-1.35524e-13
-1.22344e-13
-1.17402e-13
-1.12542e-13
-1.04792e-13
-9.40703e-14
-8.43737e-14
-8.00255e-14
-7.37951e-14
-6.63165e-14
-5.97329e-14
-5.02536e-14
-3.78582e-14
-2.62537e-14
-1.61273e-14
-9.70629e-15
-1.28148e-15
1.34195e-15
-7.188e-13
-7.17268e-13
-7.14897e-13
-7.12607e-13
-7.18707e-13
-7.15459e-13
-7.00073e-13
-6.92554e-13
-6.86396e-13
-6.82329e-13
-6.81008e-13
-6.77698e-13
-6.64516e-13
-6.56856e-13
-6.53011e-13
-6.47295e-13
-6.41939e-13
-6.34272e-13
-6.20245e-13
-6.02651e-13
-5.87188e-13
-5.71128e-13
-5.61327e-13
-5.62678e-13
-5.63617e-13
-5.55264e-13
-5.47491e-13
-5.45748e-13
-5.43821e-13
-5.39272e-13
-5.3222e-13
-5.19463e-13
-5.04736e-13
-4.89935e-13
-4.79032e-13
-4.8124e-13
-4.81343e-13
-4.7946e-13
-4.77474e-13
-4.6783e-13
-4.52871e-13
-4.39306e-13
-4.32485e-13
-4.24858e-13
-4.2267e-13
-4.17445e-13
-4.08358e-13
-3.98404e-13
-3.91093e-13
-3.83235e-13
-3.70055e-13
-3.64526e-13
-3.55889e-13
-3.45621e-13
-3.4219e-13
-3.37998e-13
-3.26209e-13
-3.16714e-13
-3.11089e-13
-3.02243e-13
-2.96713e-13
-2.85834e-13
-2.76591e-13
-2.68803e-13
-2.59657e-13
-2.48887e-13
-2.42464e-13
-2.32122e-13
-2.2689e-13
-2.24687e-13
-2.24018e-13
-2.22086e-13
-2.15915e-13
-2.0242e-13
-1.8979e-13
-1.80065e-13
-1.74699e-13
-1.68353e-13
-1.67664e-13
-1.65129e-13
-1.58444e-13
-1.48357e-13
-1.37187e-13
-1.26077e-13
-1.16404e-13
-1.06925e-13
-1.00157e-13
-9.56809e-14
-8.9718e-14
-8.04335e-14
-7.29226e-14
-6.53084e-14
-5.65517e-14
-4.71613e-14
-3.62615e-14
-2.85594e-14
-1.80973e-14
-7.27069e-15
-1.02428e-15
-2.74999e-16
-7.13287e-13
-7.1676e-13
-7.16858e-13
-7.15118e-13
-7.13087e-13
-7.05831e-13
-7.00139e-13
-6.96074e-13
-6.94494e-13
-6.88647e-13
-6.82002e-13
-6.76531e-13
-6.67475e-13
-6.58027e-13
-6.51386e-13
-6.42932e-13
-6.3999e-13
-6.32906e-13
-6.18817e-13
-6.05139e-13
-5.86371e-13
-5.71976e-13
-5.67525e-13
-5.64309e-13
-5.5558e-13
-5.51732e-13
-5.52514e-13
-5.50814e-13
-5.43434e-13
-5.33978e-13
-5.26315e-13
-5.17896e-13
-5.04414e-13
-4.91347e-13
-4.8129e-13
-4.87624e-13
-4.90347e-13
-4.82372e-13
-4.72027e-13
-4.59897e-13
-4.48767e-13
-4.42071e-13
-4.34819e-13
-4.24752e-13
-4.19454e-13
-4.12713e-13
-4.11288e-13
-4.09675e-13
-3.93756e-13
-3.79689e-13
-3.68382e-13
-3.6586e-13
-3.55987e-13
-3.44958e-13
-3.41257e-13
-3.38439e-13
-3.29683e-13
-3.17497e-13
-3.08311e-13
-3.01965e-13
-2.99282e-13
-2.89592e-13
-2.77868e-13
-2.67271e-13
-2.55277e-13
-2.48276e-13
-2.38749e-13
-2.33736e-13
-2.2748e-13
-2.23258e-13
-2.19647e-13
-2.21431e-13
-2.16367e-13
-2.02283e-13
-1.89897e-13
-1.79964e-13
-1.76776e-13
-1.71431e-13
-1.63206e-13
-1.56075e-13
-1.61813e-13
-1.56885e-13
-1.39209e-13
-1.26287e-13
-1.16945e-13
-1.06488e-13
-9.84648e-14
-9.53042e-14
-8.93628e-14
-8.07375e-14
-7.25305e-14
-6.50743e-14
-5.77821e-14
-4.56321e-14
-3.90155e-14
-2.73593e-14
-1.53536e-14
-5.28105e-15
6.33349e-17
-6.30573e-16
-7.21788e-13
-7.18241e-13
-7.16339e-13
-7.12706e-13
-7.06959e-13
-7.03703e-13
-7.00043e-13
-6.9983e-13
-6.95988e-13
-6.88858e-13
-6.81336e-13
-6.76416e-13
-6.6928e-13
-6.62906e-13
-6.53871e-13
-6.40996e-13
-6.2973e-13
-6.23187e-13
-6.18481e-13
-6.09249e-13
-5.88929e-13
-5.76667e-13
-5.67519e-13
-5.60726e-13
-5.58166e-13
-5.54731e-13
-5.5413e-13
-5.50948e-13
-5.41637e-13
-5.3745e-13
-5.27773e-13
-5.17009e-13
-5.02419e-13
-4.89361e-13
-4.84035e-13
-4.86839e-13
-4.86195e-13
-4.80811e-13
-4.72278e-13
-4.60922e-13
-4.48992e-13
-4.3958e-13
-4.35546e-13
-4.29567e-13
-4.24843e-13
-4.17521e-13
-4.06445e-13
-3.98846e-13
-3.93107e-13
-3.84634e-13
-3.76847e-13
-3.65593e-13
-3.54748e-13
-3.45787e-13
-3.39332e-13
-3.3225e-13
-3.27438e-13
-3.19575e-13
-3.07465e-13
-3.01757e-13
-3.00269e-13
-2.91579e-13
-2.79339e-13
-2.65273e-13
-2.5668e-13
-2.48194e-13
-2.38703e-13
-2.31733e-13
-2.27068e-13
-2.23311e-13
-2.21235e-13
-2.21165e-13
-2.15e-13
-1.98548e-13
-1.88747e-13
-1.80426e-13
-1.76204e-13
-1.71455e-13
-1.67513e-13
-1.63614e-13
-1.58087e-13
-1.49893e-13
-1.40711e-13
-1.31177e-13
-1.22692e-13
-1.05775e-13
-9.69907e-14
-9.21457e-14
-8.9496e-14
-7.70445e-14
-6.93662e-14
-6.38895e-14
-6.22871e-14
-4.7936e-14
-3.51251e-14
-2.65456e-14
-1.72523e-14
-2.26766e-15
-5.93875e-16
-2.12622e-15
-7.24879e-13
-7.17859e-13
-7.11442e-13
-7.12276e-13
-7.03339e-13
-7.04355e-13
-7.00489e-13
-7.01059e-13
-6.99865e-13
-6.87897e-13
-6.8061e-13
-6.76855e-13
-6.74855e-13
-6.64205e-13
-6.54152e-13
-6.44652e-13
-6.35018e-13
-6.24127e-13
-6.17985e-13
-6.02152e-13
-5.88733e-13
-5.75715e-13
-5.64211e-13
-5.5909e-13
-5.55851e-13
-5.58789e-13
-5.55608e-13
-5.49843e-13
-5.4287e-13
-5.35035e-13
-5.28118e-13
-5.18996e-13
-5.02888e-13
-4.92836e-13
-4.82781e-13
-4.81542e-13
-4.84003e-13
-4.81097e-13
-4.72945e-13
-4.62292e-13
-4.52492e-13
-4.43601e-13
-4.35355e-13
-4.28959e-13
-4.22941e-13
-4.15537e-13
-4.05808e-13
-4.01207e-13
-3.96599e-13
-3.84695e-13
-3.7313e-13
-3.61108e-13
-3.54211e-13
-3.49148e-13
-3.43101e-13
-3.36364e-13
-3.28995e-13
-3.17939e-13
-3.10548e-13
-3.05718e-13
-3.0082e-13
-2.90018e-13
-2.74636e-13
-2.63681e-13
-2.54543e-13
-2.45465e-13
-2.3629e-13
-2.32869e-13
-2.26335e-13
-2.27539e-13
-2.22305e-13
-2.16985e-13
-2.07528e-13
-1.95544e-13
-1.86817e-13
-1.78571e-13
-1.79888e-13
-1.79232e-13
-1.6981e-13
-1.61202e-13
-1.55091e-13
-1.47074e-13
-1.39131e-13
-1.2995e-13
-1.1694e-13
-1.03785e-13
-9.84842e-14
-9.52863e-14
-8.86017e-14
-8.37007e-14
-7.73645e-14
-6.49567e-14
-5.3925e-14
-4.48486e-14
-3.54023e-14
-2.40307e-14
-1.56432e-14
-9.83934e-15
-3.1765e-15
-1.64057e-15
-7.229e-13
-7.16064e-13
-7.14678e-13
-7.12853e-13
-7.08463e-13
-7.04423e-13
-6.97643e-13
-7.00072e-13
-6.99151e-13
-6.92086e-13
-6.85041e-13
-6.76449e-13
-6.73095e-13
-6.61894e-13
-6.51036e-13
-6.39863e-13
-6.28315e-13
-6.2389e-13
-6.18547e-13
-6.04792e-13
-5.90664e-13
-5.77455e-13
-5.66052e-13
-5.63013e-13
-5.63086e-13
-5.56179e-13
-5.50362e-13
-5.43582e-13
-5.37231e-13
-5.35997e-13
-5.31084e-13
-5.2389e-13
-5.11223e-13
-5.00093e-13
-4.80287e-13
-4.77543e-13
-4.78543e-13
-4.77435e-13
-4.73412e-13
-4.6228e-13
-4.54641e-13
-4.43731e-13
-4.384e-13
-4.27061e-13
-4.23227e-13
-4.17467e-13
-4.12476e-13
-4.03446e-13
-3.92483e-13
-3.7662e-13
-3.72888e-13
-3.66705e-13
-3.59116e-13
-3.44755e-13
-3.36998e-13
-3.30113e-13
-3.22487e-13
-3.20159e-13
-3.11411e-13
-3.10351e-13
-3.11601e-13
-2.87075e-13
-2.72458e-13
-2.65846e-13
-2.57128e-13
-2.49889e-13
-2.3964e-13
-2.32581e-13
-2.22931e-13
-2.2099e-13
-2.16303e-13
-2.20155e-13
-2.13873e-13
-2.01098e-13
-1.84792e-13
-1.73505e-13
-1.80308e-13
-1.77845e-13
-1.70253e-13
-1.63778e-13
-1.57036e-13
-1.47599e-13
-1.3845e-13
-1.27521e-13
-1.17402e-13
-1.05337e-13
-9.76737e-14
-9.62144e-14
-9.04396e-14
-7.92806e-14
-7.01609e-14
-6.43274e-14
-5.53846e-14
-4.40852e-14
-4.04332e-14
-3.1874e-14
-1.61535e-14
-5.17364e-15
2.17467e-15
-7.75711e-16
-7.1692e-13
-7.19194e-13
-7.1879e-13
-7.1241e-13
-7.05808e-13
-7.06111e-13
-7.03278e-13
-6.99146e-13
-6.96742e-13
-6.90872e-13
-6.86793e-13
-6.80903e-13
-6.71101e-13
-6.6057e-13
-6.52027e-13
-6.43526e-13
-6.36958e-13
-6.32061e-13
-6.21235e-13
-6.01886e-13
-5.80521e-13
-5.66063e-13
-5.63326e-13
-5.64546e-13
-5.63081e-13
-5.55904e-13
-5.46675e-13
-5.43431e-13
-5.3747e-13
-5.37407e-13
-5.3585e-13
-5.18212e-13
-5.05032e-13
-4.96876e-13
-4.8788e-13
-4.84399e-13
-4.81517e-13
-4.76263e-13
-4.70745e-13
-4.62283e-13
-4.54746e-13
-4.43571e-13
-4.36556e-13
-4.31466e-13
-4.28988e-13
-4.18388e-13
-4.10725e-13
-3.96909e-13
-3.93132e-13
-3.84298e-13
-3.71465e-13
-3.65371e-13
-3.5882e-13
-3.49804e-13
-3.39952e-13
-3.25457e-13
-3.12728e-13
-3.17254e-13
-3.22439e-13
-3.12782e-13
-3.02246e-13
-2.89541e-13