/*--------------------------------*- C++ -*----------------------------------*\
| =========                 |                                                 |
| \\      /  F ield         | OpenFOAM: The Open Source CFD Toolbox           |
|  \\    /   O peration     | Version:  v2012                                 |
|   \\  /    A nd           | Website:  www.openfoam.com                      |
|    \\/     M anipulation  |                                                 |
\*---------------------------------------------------------------------------*/
FoamFile
{
    version     2.0;
    format      ascii;
    class       volScalarField;
    location    "8";
    object      W;
}
// * * * * * * * * * * * * * * * * * * * * * * * * * * * * * * * * * * * * * //

dimensions      [0 0 -1 0 0 0 0];


internalField   nonuniform List<scalar> 
65536
(
3.18916e-18
3.28674e-18
3.53289e-18
3.93494e-18
4.50589e-18
5.2647e-18
6.23684e-18
7.45501e-18
8.96008e-18
1.08023e-17
1.30425e-17
1.57542e-17
1.90251e-17
2.29598e-17
2.76825e-17
3.33398e-17
4.0105e-17
4.81818e-17
5.78097e-17
6.92692e-17
8.28886e-17
9.90514e-17
1.18205e-16
1.40869e-16
1.67649e-16
1.99246e-16
2.36473e-16
2.80269e-16
3.31717e-16
3.92066e-16
4.62754e-16
5.45428e-16
6.41978e-16
7.54569e-16
8.85668e-16
1.03809e-15
1.21505e-15
1.42017e-15
1.6576e-15
1.93199e-15
2.24864e-15
2.61349e-15
3.03324e-15
3.51541e-15
4.06846e-15
4.70182e-15
5.42604e-15
6.25288e-15
7.19541e-15
8.26816e-15
9.48721e-15
1.08704e-14
1.24372e-14
1.42094e-14
1.62106e-14
1.84668e-14
2.10066e-14
2.38609e-14
2.70635e-14
3.06512e-14
3.46636e-14
3.91438e-14
4.4138e-14
4.9696e-14
5.58713e-14
6.27209e-14
7.03056e-14
7.86903e-14
8.79434e-14
9.81374e-14
1.09349e-13
1.21657e-13
1.35147e-13
1.49904e-13
1.66021e-13
1.83589e-13
2.02706e-13
2.23469e-13
2.45979e-13
2.70336e-13
2.96643e-13
3.25001e-13
3.55511e-13
3.88271e-13
4.23377e-13
4.60921e-13
5.0099e-13
5.43663e-13
5.89015e-13
6.37107e-13
6.87993e-13
7.41715e-13
7.98298e-13
8.57756e-13
9.20083e-13
9.85257e-13
1.05323e-12
1.12395e-12
1.19731e-12
1.27321e-12
1.3515e-12
1.43203e-12
1.51459e-12
1.59897e-12
1.68492e-12
1.77214e-12
1.86034e-12
1.94917e-12
2.03825e-12
2.12721e-12
2.21561e-12
2.30301e-12
2.38894e-12
2.47292e-12
2.55444e-12
2.63299e-12
2.70806e-12
2.77913e-12
2.84566e-12
2.90715e-12
2.96309e-12
3.01302e-12
3.05647e-12
3.09301e-12
3.12226e-12
3.14387e-12
3.15755e-12
3.16306e-12
3.1602e-12
3.14887e-12
3.129e-12
3.10062e-12
3.06381e-12
3.01875e-12
2.96565e-12
2.90485e-12
2.83672e-12
2.7617e-12
2.68033e-12
2.59317e-12
2.50086e-12
2.40407e-12
2.30353e-12
2.19997e-12
2.09418e-12
1.98695e-12
1.87906e-12
1.7713e-12
1.66445e-12
1.55926e-12
1.45646e-12
1.35673e-12
1.26072e-12
1.16903e-12
1.08218e-12
1.00067e-12
9.24922e-13
8.5528e-13
7.92042e-13
7.35433e-13
6.85612e-13
6.42677e-13
6.06657e-13
5.77521e-13
5.55176e-13
5.3947e-13
5.30191e-13
5.27073e-13
5.29795e-13
5.37982e-13
5.51209e-13
5.69004e-13
5.90849e-13
6.16182e-13
6.44404e-13
6.74884e-13
7.06961e-13
7.39954e-13
7.73171e-13
8.05913e-13
8.3749e-13
8.67227e-13
8.94481e-13
9.18644e-13
9.39165e-13
9.55553e-13
9.67392e-13
9.74351e-13
9.76188e-13
9.72756e-13
9.64012e-13
9.50009e-13
9.30902e-13
9.06939e-13
8.78456e-13
8.45866e-13
8.09647e-13
7.70333e-13
7.28494e-13
6.84723e-13
6.39624e-13
5.93792e-13
5.47802e-13
5.02196e-13
4.57472e-13
4.14076e-13
3.72393e-13
3.32746e-13
2.95392e-13
2.6052e-13
2.28257e-13
1.98672e-13
1.71776e-13
1.47532e-13
1.25862e-13
1.06654e-13
8.97669e-14
7.50421e-14
6.23058e-14
5.13779e-14
4.20762e-14
3.42215e-14
2.7641e-14
2.21712e-14
1.76602e-14
1.3969e-14
1.0972e-14
8.5576e-15
6.62754e-15
5.09659e-15
3.89157e-15
2.9504e-15
2.22096e-15
1.65995e-15
1.23179e-15
9.07523e-16
6.63825e-16
4.82077e-16
3.47568e-16
2.4878e-16
1.76783e-16
1.24711e-16
8.73383e-17
6.07204e-17
4.19073e-17
2.87123e-17
1.95288e-17
1.31868e-17
8.84157e-18
5.88916e-18
3.90157e-18
2.57891e-18
1.71389e-18
1.16609e-18
8.4384e-19
6.91841e-19
4.58496e-18
4.72493e-18
5.07832e-18
5.65559e-18
6.47536e-18
7.56481e-18
8.96042e-18
1.07091e-17
1.28692e-17
1.55129e-17
1.87273e-17
2.26174e-17
2.7309e-17
3.29517e-17
3.97229e-17
4.78325e-17
5.75279e-17
6.91003e-17
8.28914e-17
9.93018e-17
1.188e-16
1.41932e-16
1.69337e-16
2.01754e-16
2.40044e-16
2.85206e-16
3.38395e-16
4.00943e-16
4.74391e-16
5.60509e-16
6.61332e-16
7.79196e-16
9.16774e-16
1.07712e-15
1.26373e-15
1.48057e-15
1.73215e-15
2.02359e-15
2.36071e-15
2.75005e-15
3.19902e-15
3.71595e-15
4.31019e-15
4.99227e-15
5.77393e-15
6.6683e-15
7.69004e-15
8.85544e-15
1.01826e-14
1.16915e-14
1.34044e-14
1.53457e-14
1.75423e-14
2.00237e-14
2.28224e-14
2.59737e-14
2.95163e-14
3.34921e-14
3.79468e-14
4.29296e-14
4.8494e-14
5.46973e-14
6.16012e-14
6.92718e-14
7.77795e-14
8.71995e-14
9.76116e-14
1.091e-13
1.21754e-13
1.35668e-13
1.50938e-13
1.67668e-13
1.85965e-13
2.05937e-13
2.27699e-13
2.51367e-13
2.77059e-13
3.04897e-13
3.35002e-13
3.67496e-13
4.02499e-13
4.40132e-13
4.8051e-13
5.23746e-13
5.69948e-13
6.19215e-13
6.71641e-13
7.27308e-13
7.86285e-13
8.48632e-13
9.14391e-13
9.83586e-13
1.05623e-12
1.1323e-12
1.21176e-12
1.29457e-12
1.38062e-12
1.4698e-12
1.56198e-12
1.65697e-12
1.75458e-12
1.85456e-12
1.95664e-12
2.06051e-12
2.16584e-12
2.27225e-12
2.37934e-12
2.48665e-12
2.59372e-12
2.70005e-12
2.80511e-12
2.90835e-12
3.00919e-12
3.10705e-12
3.20132e-12
3.2914e-12
3.37666e-12
3.45651e-12
3.53034e-12
3.59757e-12
3.65763e-12
3.70999e-12
3.75416e-12
3.78969e-12
3.81616e-12
3.83322e-12
3.8406e-12
3.83807e-12
3.82548e-12
3.80277e-12
3.76994e-12
3.72709e-12
3.6744e-12
3.61212e-12
3.54062e-12
3.46032e-12
3.37174e-12
3.27545e-12
3.17212e-12
3.06247e-12
2.94727e-12
2.82735e-12
2.70358e-12
2.57685e-12
2.44807e-12
2.31816e-12
2.18805e-12
2.05863e-12
1.9308e-12
1.80541e-12
1.68327e-12
1.56515e-12
1.45175e-12
1.34374e-12
1.24169e-12
1.14611e-12
1.05745e-12
9.76063e-13
9.02253e-13
8.3623e-13
7.78135e-13
7.28036e-13
6.8593e-13
6.51742e-13
6.25331e-13
6.06492e-13
5.94957e-13
5.90394e-13
5.92418e-13
6.00584e-13
6.14396e-13
6.33307e-13
6.56722e-13
6.84003e-13
7.14474e-13
7.47422e-13
7.82111e-13
8.17783e-13
8.53669e-13
8.88999e-13
9.23013e-13
9.54973e-13
9.84173e-13
1.00996e-12
1.03172e-12
1.04894e-12
1.06116e-12
1.06805e-12
1.06933e-12
1.06486e-12
1.0546e-12
1.03863e-12
1.01711e-12
9.9034e-13
9.58681e-13
9.22593e-13
8.82604e-13
8.39299e-13
7.93302e-13
7.45261e-13
6.95833e-13
6.45665e-13
5.95382e-13
5.45569e-13
4.96766e-13
4.49452e-13
4.04042e-13
3.60882e-13
3.20244e-13
2.82333e-13
2.47279e-13
2.15153e-13
1.85962e-13
1.59663e-13
1.36168e-13
1.15351e-13
9.70583e-14
8.1114e-14
6.73284e-14
5.55046e-14
4.54441e-14
3.69514e-14
2.98387e-14
2.39284e-14
1.90557e-14
1.50695e-14
1.1834e-14
9.22804e-15
7.1454e-15
5.49381e-15
4.19414e-15
3.17925e-15
2.39284e-15
1.78813e-15
1.32671e-15
9.7732e-16
7.14782e-16
5.19015e-16
3.74153e-16
2.67778e-16
1.90261e-16
1.34205e-16
9.39775e-17
6.53299e-17
4.50845e-17
3.08865e-17
2.10059e-17
1.41831e-17
9.50891e-18
6.33322e-18
4.19549e-18
2.77302e-18
1.84278e-18
1.25371e-18
9.072e-19
7.4378e-19
7.86803e-18
8.10762e-18
8.71301e-18
9.70208e-18
1.11066e-17
1.29731e-17
1.53638e-17
1.83589e-17
2.20583e-17
2.65849e-17
3.20877e-17
3.8746e-17
4.67743e-17
5.64278e-17
6.80092e-17
8.18761e-17
9.84502e-17
1.18227e-16
1.41789e-16
1.69817e-16
2.03107e-16
2.42589e-16
2.89344e-16
3.4463e-16
4.09907e-16
4.86866e-16
5.77462e-16
6.83951e-16
8.08935e-16
9.55404e-16
1.12679e-15
1.32703e-15
1.56063e-15
1.83272e-15
2.14916e-15
2.51661e-15
2.94264e-15
3.43581e-15
4.00582e-15
4.6636e-15
5.42148e-15
6.2933e-15
7.29461e-15
8.44281e-15
9.75732e-15
1.12598e-14
1.29745e-14
1.49279e-14
1.71499e-14
1.96732e-14
2.2534e-14
2.57719e-14
2.94306e-14
3.35579e-14
3.82061e-14
4.3432e-14
4.92974e-14
5.58694e-14
6.32205e-14
7.14289e-14
8.05787e-14
9.076e-14
1.02069e-13
1.14609e-13
1.2849e-13
1.43826e-13
1.6074e-13
1.79361e-13
1.99823e-13
2.22268e-13
2.46842e-13
2.73697e-13
3.02989e-13
3.34878e-13
3.6953e-13
4.07111e-13
4.47789e-13
4.91732e-13
5.39108e-13
5.90083e-13
6.4482e-13
7.03474e-13
7.66196e-13
8.33125e-13
9.04392e-13
9.80113e-13
1.06039e-12
1.1453e-12
1.23492e-12
1.32927e-12
1.42838e-12
1.53224e-12
1.6408e-12
1.75399e-12
1.87169e-12
1.99377e-12
2.12004e-12
2.25026e-12
2.38419e-12
2.52149e-12
2.66182e-12
2.80477e-12
2.94989e-12
3.0967e-12
3.24466e-12
3.39317e-12
3.54163e-12
3.68937e-12
3.83569e-12
3.97986e-12
4.12111e-12
4.25868e-12
4.39174e-12
4.51949e-12
4.64111e-12
4.75578e-12
4.86269e-12
4.96105e-12
5.05008e-12
5.12905e-12
5.19728e-12
5.25411e-12
5.29898e-12
5.33137e-12
5.35084e-12
5.35705e-12
5.34973e-12
5.32872e-12
5.29395e-12
5.24548e-12
5.18346e-12
5.10815e-12
5.01994e-12
4.91929e-12
4.80682e-12
4.68321e-12
4.54925e-12
4.40584e-12
4.25394e-12
4.09457e-12
3.92885e-12
3.75791e-12
3.58294e-12
3.40514e-12
3.22573e-12
3.04593e-12
2.86693e-12
2.68988e-12
2.51593e-12
2.34613e-12
2.1815e-12
2.02297e-12
1.87139e-12
1.72753e-12
1.59208e-12
1.46559e-12
1.34858e-12
1.24141e-12
1.14437e-12
1.05767e-12
9.81399e-13
9.15562e-13
8.60082e-13
8.14793e-13
7.79449e-13
7.5373e-13
7.37238e-13
7.29509e-13
7.3001e-13
7.38147e-13
7.53266e-13
7.74657e-13
8.0156e-13
8.33165e-13
8.68626e-13
9.07058e-13
9.47553e-13
9.89183e-13
1.03101e-12
1.07211e-12
1.11157e-12
1.14851e-12
1.18208e-12
1.21151e-12
1.23611e-12
1.25524e-12
1.2684e-12
1.27519e-12
1.27531e-12
1.26863e-12
1.2551e-12
1.23484e-12
1.20807e-12
1.17514e-12
1.1365e-12
1.09272e-12
1.04443e-12
9.92321e-13
9.37145e-13
8.7967e-13
8.2067e-13
7.60909e-13
7.01119e-13
6.41986e-13
5.84139e-13
5.28135e-13
4.74454e-13
4.23494e-13
3.75566e-13
3.309e-13
2.89643e-13
2.51865e-13
2.1757e-13
1.86699e-13
1.59141e-13
1.34743e-13
1.13318e-13
9.46572e-14
7.85333e-14
6.47127e-14
5.296e-14
4.30446e-14
3.4745e-14
2.7852e-14
2.21718e-14
1.75275e-14
1.37594e-14
1.07258e-14
8.30245e-15
6.38143e-15
4.87031e-15
3.69074e-15
2.77704e-15
2.07469e-15
1.53893e-15
1.13338e-15
8.28725e-16
6.01617e-16
4.33608e-16
3.10266e-16
2.20407e-16
1.55441e-16
1.08829e-16
7.56417e-17
5.21925e-17
3.57508e-17
2.43107e-17
1.64123e-17
1.10021e-17
7.32683e-18
4.85316e-18
3.20736e-18
2.13119e-18
1.44978e-18
1.04898e-18
8.59971e-19
1.42821e-17
1.4716e-17
1.58133e-17
1.7606e-17
2.01518e-17
2.35346e-17
2.78672e-17
3.32944e-17
3.9997e-17
4.81969e-17
5.81635e-17
7.02208e-17
8.4756e-17
1.0223e-16
1.23189e-16
1.48279e-16
1.78259e-16
2.14023e-16
2.5662e-16
3.07277e-16
3.67427e-16
4.38741e-16
5.23165e-16
6.22959e-16
7.40744e-16
8.79553e-16
1.04289e-15
1.23481e-15
1.45995e-15
1.72368e-15
2.03212e-15
2.39231e-15
2.81227e-15
3.30116e-15
3.86941e-15
4.52886e-15
5.29293e-15
6.17684e-15
7.19775e-15
8.37499e-15
9.73034e-15
1.12882e-14
1.3076e-14
1.51242e-14
1.7467e-14
2.01424e-14
2.31924e-14
2.66637e-14
3.0608e-14
3.50821e-14
4.01487e-14
4.58765e-14
5.23406e-14
5.96233e-14
6.78139e-14
7.70097e-14
8.7316e-14
9.88467e-14
1.11724e-13
1.26081e-13
1.42057e-13
1.59804e-13
1.79483e-13
2.01263e-13
2.25325e-13
2.51859e-13
2.81065e-13
3.13151e-13
3.48334e-13
3.86841e-13
4.28904e-13
4.74764e-13
5.24665e-13
5.78857e-13
6.37592e-13
7.01124e-13
7.69705e-13
8.43586e-13
9.23011e-13
1.00822e-12
1.09944e-12
1.19689e-12
1.30076e-12
1.41123e-12
1.52848e-12
1.65262e-12
1.78376e-12
1.92198e-12
2.0673e-12
2.21973e-12
2.37922e-12
2.54566e-12
2.71892e-12
2.89879e-12
3.08502e-12
3.27729e-12
3.47524e-12
3.67841e-12
3.8863e-12
4.09835e-12
4.31391e-12
4.53229e-12
4.75272e-12
4.97436e-12
5.19632e-12
5.41766e-12
5.63738e-12
5.85441e-12
6.06767e-12
6.27602e-12
6.47831e-12
6.67335e-12
6.85995e-12
7.03692e-12
7.20308e-12
7.35725e-12
7.49832e-12
7.62517e-12
7.73679e-12
7.83221e-12
7.91053e-12
7.97096e-12
8.01281e-12
8.0355e-12
8.03857e-12
8.0217e-12
7.9847e-12
7.92756e-12
7.85037e-12
7.75341e-12
7.63712e-12
7.50208e-12
7.34902e-12
7.17884e-12
6.99257e-12
6.79138e-12
6.57654e-12
6.34948e-12
6.11168e-12
5.86473e-12
5.61027e-12
5.35e-12
5.08564e-12
4.81892e-12
4.55158e-12
4.2853e-12
4.02175e-12
3.76252e-12
3.50912e-12
3.26297e-12
3.0254e-12
2.79761e-12
2.58068e-12
2.37557e-12
2.18309e-12
2.00392e-12
1.83861e-12
1.68756e-12
1.55103e-12
1.42918e-12
1.32202e-12
1.22944e-12
1.15122e-12
1.08703e-12
1.03645e-12
9.98949e-13
9.73912e-13
9.60639e-13
9.58352e-13
9.662e-13
9.83261e-13
1.00855e-12
1.04103e-12
1.07961e-12
1.12315e-12
1.17049e-12
1.22042e-12
1.27174e-12
1.32324e-12
1.37373e-12
1.42204e-12
1.46705e-12
1.50772e-12
1.54305e-12
1.57219e-12
1.59438e-12
1.60898e-12
1.61552e-12
1.61367e-12
1.60326e-12
1.58429e-12
1.5569e-12
1.52143e-12
1.47833e-12
1.42819e-12
1.37173e-12
1.30976e-12
1.24318e-12
1.17291e-12
1.09993e-12
1.02521e-12
9.49699e-13
8.74306e-13
7.99883e-13
7.27203e-13
6.56951e-13
5.89712e-13
5.25969e-13
4.66097e-13
4.10366e-13
3.58948e-13
3.11918e-13
2.69267e-13
2.30912e-13
1.96705e-13
1.66447e-13
1.399e-13
1.16795e-13
9.68469e-14
7.97609e-14
6.52417e-14
5.30006e-14
4.27607e-14
3.42616e-14
2.7262e-14
2.15421e-14
1.69039e-14
1.31718e-14
1.01918e-14
7.83073e-15
5.97428e-15
4.52578e-15
3.40423e-15
2.54245e-15
1.88533e-15
1.38808e-15
1.01468e-15
7.36418e-16
5.30629e-16
3.79597e-16
2.69596e-16
1.90089e-16
1.33059e-16
9.24643e-17
6.3788e-17
4.36855e-17
2.97013e-17
2.00483e-17
1.34374e-17
8.94737e-18
5.92577e-18
3.91571e-18
2.60153e-18
1.76951e-18
1.28017e-18
1.04942e-18
2.62003e-17
2.69948e-17
2.90048e-17
3.22892e-17
3.69531e-17
4.315e-17
5.10863e-17
6.10264e-17
7.3301e-17
8.83156e-17
1.06562e-16
1.28633e-16
1.55235e-16
1.8721e-16
2.25553e-16
2.71444e-16
3.26268e-16
3.91654e-16
4.69513e-16
5.6208e-16
6.71964e-16
8.02207e-16
9.56347e-16
1.13849e-15
1.3534e-15
1.60659e-15
1.90442e-15
2.25421e-15
2.66441e-15
3.14469e-15
3.70617e-15
4.36154e-15
5.1253e-15
6.01398e-15
7.04635e-15
8.24376e-15
9.63035e-15
1.12334e-14
1.30838e-14
1.52161e-14
1.76693e-14
2.04871e-14
2.37182e-14
2.74172e-14
3.16447e-14
3.6468e-14
4.1962e-14
4.82091e-14
5.53006e-14
6.33365e-14
7.24271e-14
8.26927e-14
9.4265e-14
1.07287e-13
1.21916e-13
1.38318e-13
1.56678e-13
1.77191e-13
2.00067e-13
2.25534e-13
2.53832e-13
2.85217e-13
3.19961e-13
3.58352e-13
4.00693e-13
4.473e-13
4.98505e-13
5.54654e-13
6.16103e-13
6.8322e-13
7.56385e-13
8.35982e-13
9.22402e-13
1.01604e-12
1.11729e-12
1.22655e-12
1.3442e-12
1.47061e-12
1.60616e-12
1.75118e-12
1.90601e-12
2.07093e-12
2.24621e-12
2.43208e-12
2.62872e-12
2.83627e-12
3.0548e-12
3.28436e-12
3.52488e-12
3.77626e-12
4.03832e-12
4.31078e-12
4.5933e-12
4.88543e-12
5.18665e-12
5.49631e-12
5.81371e-12
6.138e-12
6.46828e-12
6.8035e-12
7.14254e-12
7.48419e-12
7.82712e-12
8.16993e-12
8.51115e-12
8.84919e-12
9.18243e-12
9.50918e-12
9.82771e-12
1.01362e-11
1.0433e-11
1.07161e-11
1.09838e-11
1.12343e-11
1.14659e-11
1.16769e-11
1.18657e-11
1.20307e-11
1.21706e-11
1.2284e-11
1.23699e-11
1.24272e-11
1.24552e-11
1.24531e-11
1.24206e-11
1.23576e-11
1.22639e-11
1.21398e-11
1.19859e-11
1.18027e-11
1.15913e-11
1.13527e-11
1.10884e-11
1.07999e-11
1.0489e-11
1.01576e-11
9.80787e-12
9.44201e-12
9.06241e-12
8.67151e-12
8.27183e-12
7.86593e-12
7.45639e-12
7.04575e-12
6.63653e-12
6.23117e-12
5.83203e-12
5.44134e-12
5.0612e-12
4.69356e-12
4.34018e-12
4.00267e-12
3.68243e-12
3.38066e-12
3.09836e-12
2.83633e-12
2.59518e-12
2.37529e-12
2.17689e-12
2.00001e-12
1.8445e-12
1.71005e-12
1.59622e-12
1.50239e-12
1.42783e-12
1.3717e-12
1.33301e-12
1.3107e-12
1.3036e-12
1.31046e-12
1.32993e-12
1.36062e-12
1.40104e-12
1.44967e-12
1.50494e-12
1.56525e-12
1.62896e-12
1.69445e-12
1.76008e-12
1.82428e-12
1.8855e-12
1.94227e-12
1.99321e-12
2.03706e-12
2.07269e-12
2.09914e-12
2.11563e-12
2.12155e-12
2.1165e-12
2.10032e-12
2.07302e-12
2.03485e-12
1.98626e-12
1.92787e-12
1.86049e-12
1.78508e-12
1.7027e-12
1.61453e-12
1.52179e-12
1.42574e-12
1.32766e-12
1.22876e-12
1.13021e-12
1.03312e-12
9.38459e-13
8.47106e-13
7.59801e-13
6.77148e-13
5.99615e-13
5.27534e-13
4.61106e-13
4.00414e-13
3.4543e-13
2.96033e-13
2.52019e-13
2.13121e-13
1.79023e-13
1.4937e-13
1.23789e-13
1.01895e-13
8.33025e-14
6.76382e-14
5.45435e-14
4.36817e-14
3.47417e-14
2.74402e-14
2.15229e-14
1.67641e-14
1.29663e-14
9.95861e-15
7.5949e-15
5.75143e-15
4.32467e-15
3.22883e-15
2.39355e-15
1.76174e-15
1.28745e-15
9.34125e-16
6.7291e-16
4.81259e-16
3.41716e-16
2.40884e-16
1.68578e-16
1.17123e-16
8.0783e-17
5.53142e-17
3.76008e-17
2.53761e-17
1.70057e-17
1.13216e-17
7.49712e-18
4.95335e-18
3.29047e-18
2.23782e-18
1.61878e-18
1.32688e-18
4.79129e-17
4.93633e-17
5.3034e-17
5.90325e-17
6.75505e-17
7.8868e-17
9.33607e-17
1.11511e-16
1.33921e-16
1.61331e-16
1.94636e-16
2.34915e-16
2.83456e-16
3.4179e-16
4.11731e-16
4.95422e-16
5.95384e-16
7.1458e-16
8.56481e-16
1.02515e-15
1.22532e-15
1.46252e-15
1.74316e-15
2.07469e-15
2.46575e-15
2.92631e-15
3.46789e-15
4.10374e-15
4.84912e-15
5.72153e-15
6.74101e-15
7.93046e-15
9.31602e-15
1.09274e-14
1.27985e-14
1.49676e-14
1.7478e-14
2.03787e-14
2.37249e-14
2.75786e-14
3.20094e-14
3.70953e-14
4.29231e-14
4.95899e-14
5.72034e-14
6.58831e-14
7.57614e-14
8.69842e-14
9.97122e-14
1.14122e-13
1.30407e-13
1.48778e-13
1.69466e-13
1.92721e-13
2.18814e-13
2.48037e-13
2.80706e-13
3.17161e-13
3.57763e-13
4.02901e-13
4.52985e-13
5.08452e-13
5.69764e-13
6.37405e-13
7.11884e-13
7.93731e-13
8.83498e-13
9.81756e-13
1.08909e-12
1.20611e-12
1.33342e-12
1.47164e-12
1.6214e-12
1.78332e-12
1.95802e-12
2.1461e-12
2.34815e-12
2.56474e-12
2.79641e-12
3.04364e-12
3.30688e-12
3.58654e-12
3.88294e-12
4.19635e-12
4.52695e-12
4.87484e-12
5.24001e-12
5.62236e-12
6.02167e-12
6.4376e-12
6.86968e-12
7.3173e-12
7.77972e-12
8.25606e-12
8.74526e-12
9.24613e-12
9.75733e-12
1.02773e-11
1.08045e-11
1.13371e-11
1.1873e-11
1.24103e-11
1.29466e-11
1.34796e-11
1.4007e-11
1.4526e-11
1.50341e-11
1.55286e-11
1.60067e-11
1.64656e-11
1.69027e-11
1.7315e-11
1.76999e-11
1.80548e-11
1.83771e-11
1.86644e-11
1.89144e-11
1.91249e-11
1.92942e-11
1.94205e-11
1.95025e-11
1.95388e-11
1.95287e-11
1.94716e-11
1.93673e-11
1.92159e-11
1.90177e-11
1.87735e-11
1.84846e-11
1.81523e-11
1.77784e-11
1.73651e-11
1.69148e-11
1.64302e-11
1.59142e-11
1.53702e-11
1.48014e-11
1.42115e-11
1.36041e-11
1.29832e-11
1.23525e-11
1.17159e-11
1.10773e-11
1.04404e-11
9.80899e-12
9.18655e-12
8.57646e-12
7.98188e-12
7.40574e-12
6.85072e-12
6.31922e-12
5.81336e-12
5.33497e-12
4.88556e-12
4.46634e-12
4.07824e-12
3.72187e-12
3.39758e-12
3.10544e-12
2.84525e-12
2.6166e-12
2.41882e-12
2.25106e-12
2.11227e-12
2.00123e-12
1.91658e-12
1.85677e-12
1.82018e-12
1.80504e-12
1.80947e-12
1.83152e-12
1.86914e-12
1.92023e-12
1.9826e-12
2.05405e-12
2.13233e-12
2.2152e-12
2.30039e-12
2.38569e-12
2.46895e-12
2.54807e-12
2.6211e-12
2.68618e-12
2.74165e-12
2.78604e-12
2.81808e-12
2.83675e-12
2.84132e-12
2.83128e-12
2.80645e-12
2.76692e-12
2.71304e-12
2.64545e-12
2.56503e-12
2.47288e-12
2.3703e-12
2.25874e-12
2.13975e-12
2.01499e-12
1.88612e-12
1.75482e-12
1.6227e-12
1.49132e-12
1.36209e-12
1.2363e-12
1.11509e-12
9.99407e-13
8.90033e-13
7.87559e-13
6.92401e-13
6.04801e-13
5.24848e-13
4.52486e-13
3.87537e-13
3.29718e-13
2.78663e-13
2.33944e-13
1.95087e-13
1.61589e-13
1.32939e-13
1.08628e-13
8.81582e-14
7.10571e-14
5.68807e-14
4.52194e-14
3.57006e-14
2.79904e-14
2.17929e-14
1.68494e-14
1.29362e-14
9.86222e-15
7.46586e-15
5.61194e-15
4.18858e-15
3.10408e-15
2.28404e-15
1.66867e-15
1.2104e-15
8.71704e-16
6.23282e-16
4.42454e-16
3.11827e-16
2.1818e-16
1.51553e-16
1.04511e-16
7.15479e-17
4.86274e-17
3.28123e-17
2.19856e-17
1.46348e-17
9.68969e-18
6.4011e-18
4.25162e-18
2.8911e-18
2.09108e-18
1.71388e-18
8.70096e-17
8.96389e-17
9.62963e-17
1.07176e-16
1.22626e-16
1.43152e-16
1.69436e-16
2.0235e-16
2.42984e-16
2.92678e-16
3.53052e-16
4.26058e-16
5.14025e-16
6.19722e-16
7.46431e-16
8.98021e-16
1.07905e-15
1.29487e-15
1.55175e-15
1.85701e-15
2.2192e-15
2.64829e-15
3.15584e-15
3.75527e-15
4.46213e-15
5.29436e-15
6.27268e-15
7.42094e-15
8.76653e-15
1.03409e-14
1.21799e-14
1.43247e-14
1.6822e-14
1.97252e-14
2.30946e-14
2.69987e-14
3.1515e-14
3.67307e-14
4.2744e-14
4.96654e-14
5.76184e-14
6.67413e-14
7.71882e-14
8.91308e-14
1.02759e-13
1.18285e-13
1.3594e-13
1.55982e-13
1.78692e-13
2.04381e-13
2.33385e-13
2.66073e-13
3.02847e-13
3.4414e-13
3.90421e-13
4.42198e-13
5.00013e-13
5.64447e-13
6.36123e-13
7.15701e-13
8.03881e-13
9.01403e-13
1.00904e-12
1.12762e-12
1.25798e-12
1.40101e-12
1.55761e-12
1.72874e-12
1.91535e-12
2.11842e-12
2.33893e-12
2.57789e-12
2.83627e-12
3.11506e-12
3.41521e-12
3.73766e-12
4.08327e-12
4.4529e-12
4.8473e-12
5.26717e-12
5.7131e-12
6.18561e-12
6.68506e-12
7.21172e-12
7.76568e-12
8.34691e-12
8.95518e-12
9.59009e-12
1.0251e-11
1.09372e-11
1.16476e-11
1.2381e-11
1.31359e-11
1.39106e-11
1.47031e-11
1.55113e-11
1.63327e-11
1.71646e-11
1.80042e-11
1.88482e-11
1.96935e-11
2.05364e-11
2.13732e-11
2.22e-11
2.30129e-11
2.38076e-11
2.458e-11
2.53258e-11
2.60407e-11
2.67203e-11
2.73605e-11
2.7957e-11
2.85058e-11
2.90031e-11
2.94451e-11
2.98284e-11
3.01499e-11
3.04067e-11
3.05963e-11
3.07166e-11
3.07659e-11
3.07431e-11
3.06472e-11
3.04781e-11
3.02359e-11
2.99215e-11
2.9536e-11
2.90814e-11
2.85598e-11
2.7974e-11
2.73275e-11
2.66238e-11
2.58673e-11
2.50623e-11
2.42139e-11
2.33272e-11
2.24077e-11
2.14611e-11
2.0493e-11
1.95095e-11
1.85163e-11
1.75194e-11
1.65244e-11
1.5537e-11
1.45625e-11
1.36061e-11
1.26725e-11
1.17663e-11
1.08915e-11
1.00517e-11
9.25032e-12
8.49003e-12
7.7732e-12
7.10171e-12
6.477e-12
5.90004e-12
5.3714e-12
4.89124e-12
4.45931e-12
4.07503e-12
3.73747e-12
3.44539e-12
3.19729e-12
2.99141e-12
2.82575e-12
2.69814e-12
2.6062e-12
2.54741e-12
2.51912e-12
2.51854e-12
2.54278e-12
2.58888e-12
2.65377e-12
2.73436e-12
2.8275e-12
2.93003e-12
3.03881e-12
3.15071e-12
3.26267e-12
3.37173e-12
3.47505e-12
3.56995e-12
3.65396e-12
3.72485e-12
3.78065e-12
3.81969e-12
3.84067e-12
3.84261e-12
3.82491e-12
3.78739e-12
3.73019e-12
3.65388e-12
3.55935e-12
3.44783e-12
3.32084e-12
3.18016e-12
3.02775e-12
2.86573e-12
2.69631e-12
2.52175e-12
2.34427e-12
2.16604e-12
1.98911e-12
1.81535e-12
1.64648e-12
1.48397e-12
1.32908e-12
1.18281e-12
1.04592e-12
9.18941e-13
8.02168e-13
6.9569e-13
5.99411e-13
5.1307e-13
4.36272e-13
3.68514e-13
3.09209e-13
2.57715e-13
2.13355e-13
1.75441e-13
1.43288e-13
1.16234e-13
9.36444e-14
7.49292e-14
5.95426e-14
4.69898e-14
3.6827e-14
2.86621e-14
2.21523e-14
1.70015e-14
1.29571e-14
9.80556e-15
7.36834e-15
5.49784e-15
4.07316e-15
2.99627e-15
2.18843e-15
1.58701e-15
1.14265e-15
8.16819e-16
5.79711e-16
4.08474e-16
2.85743e-16
1.98445e-16
1.36821e-16
9.36513e-17
6.36392e-17
4.29349e-17
2.87637e-17
1.91439e-17
1.26734e-17
8.37105e-18
5.55932e-18
3.77984e-18
2.73356e-18
2.24027e-18
1.56748e-16
1.61476e-16
1.73455e-16
1.93032e-16
2.20832e-16
2.57765e-16
3.05054e-16
3.64268e-16
4.37364e-16
5.26746e-16
6.35327e-16
7.66608e-16
9.2477e-16
1.11478e-15
1.34253e-15
1.61496e-15
1.94024e-15
2.32795e-15
2.78934e-15
3.33752e-15
3.98781e-15
4.75802e-15
5.66884e-15
6.74429e-15
8.01213e-15
9.50444e-15
1.12582e-14
1.3316e-14
1.57266e-14
1.8546e-14
2.18383e-14
2.56765e-14
3.01439e-14
3.53351e-14
4.13574e-14
4.83322e-14
5.63967e-14
6.57055e-14
7.64322e-14
8.87719e-14
1.02943e-13
1.19188e-13
1.37779e-13
1.59018e-13
1.83239e-13
2.10811e-13
2.42141e-13
2.77679e-13
3.17916e-13
3.63389e-13
4.14687e-13
4.72448e-13
5.37364e-13
6.10185e-13
6.91719e-13
7.82835e-13
8.84461e-13
9.97593e-13
1.12329e-12
1.26266e-12
1.4169e-12
1.58725e-12
1.77501e-12
1.98155e-12
2.20828e-12
2.45665e-12
2.72817e-12
3.02437e-12
3.34682e-12
3.69709e-12
4.07677e-12
4.48741e-12
4.93059e-12
5.40781e-12
5.92054e-12
6.47017e-12
7.05802e-12
7.68528e-12
8.35302e-12
9.06218e-12
9.8135e-12
1.06076e-11
1.14447e-11
1.23251e-11
1.32485e-11
1.42146e-11
1.52226e-11
1.62716e-11
1.73602e-11
1.84867e-11
1.9649e-11
2.08447e-11
2.2071e-11
2.33248e-11
2.46026e-11
2.59003e-11
2.72137e-11
2.85381e-11
2.98686e-11
3.11998e-11
3.25262e-11
3.38418e-11
3.51405e-11
3.64159e-11
3.76617e-11
3.88711e-11
4.00376e-11
4.11543e-11
4.22147e-11
4.32122e-11
4.41403e-11
4.49929e-11
4.5764e-11
4.6448e-11
4.70396e-11
4.75342e-11
4.79273e-11
4.82153e-11
4.83952e-11
4.84643e-11
4.84209e-11
4.82641e-11
4.79934e-11
4.76094e-11
4.71134e-11
4.65073e-11
4.5794e-11
4.49772e-11
4.40612e-11
4.30511e-11
4.19526e-11
4.07723e-11
3.9517e-11
3.81943e-11
3.68122e-11
3.53789e-11
3.39031e-11
3.23936e-11
3.08594e-11
2.93093e-11
2.77524e-11
2.61973e-11
2.46525e-11
2.31264e-11
2.16266e-11
2.01606e-11
1.87351e-11
1.73564e-11
1.60302e-11
1.47614e-11
1.35544e-11
1.24128e-11
1.13395e-11
1.03368e-11
9.40621e-12
8.54875e-12
7.76471e-12
7.05382e-12
6.41526e-12
5.84772e-12
5.34944e-12
4.9182e-12
4.55147e-12
4.24634e-12
3.99963e-12
3.80792e-12
3.66755e-12
3.57468e-12
3.52531e-12
3.51532e-12
3.54045e-12
3.59637e-12
3.67867e-12
3.78291e-12
3.90462e-12
4.03934e-12
4.18265e-12
4.3302e-12
4.47775e-12
4.62123e-12
4.75673e-12
4.88062e-12
4.98955e-12
5.0805e-12
5.15086e-12
5.19842e-12
5.22144e-12
5.2187e-12
5.18945e-12
5.13348e-12
5.0511e-12
4.94311e-12
4.8108e-12
4.65588e-12
4.48045e-12
4.28694e-12
4.07805e-12
3.85665e-12
3.62573e-12
3.38833e-12
3.14744e-12
2.90596e-12
2.66662e-12
2.43193e-12
2.20416e-12
1.98525e-12
1.77685e-12
1.58027e-12
1.3965e-12
1.2262e-12
1.06974e-12
9.27199e-13
7.98425e-13
6.83038e-13
5.80486e-13
4.90072e-13
4.10995e-13
3.42381e-13
2.83311e-13
2.32857e-13
1.90096e-13
1.54136e-13
1.24128e-13
9.92795e-14
7.88613e-14
6.22117e-14
4.87387e-14
3.79192e-14
2.92967e-14
2.24773e-14
1.71248e-14
1.29555e-14
9.73239e-15
7.25967e-15
5.37696e-15
3.95431e-15
2.88743e-15
2.09339e-15
1.50689e-15
1.07695e-15
7.64169e-16
5.38334e-16
3.76512e-16
2.61434e-16
1.80218e-16
1.23334e-16
8.37958e-17
5.65251e-17
3.78627e-17
2.51962e-17
1.66779e-17
1.10146e-17
7.31399e-18
4.97222e-18
3.59545e-18
2.94639e-18
2.80051e-16
2.88486e-16
3.09862e-16
3.44801e-16
3.94414e-16
4.60324e-16
5.44709e-16
6.50365e-16
7.80782e-16
9.4024e-16
1.13393e-15
1.36808e-15
1.65014e-15
1.98896e-15
2.395e-15
2.88063e-15
3.46037e-15
4.15129e-15
4.97333e-15
5.94983e-15
7.10799e-15
8.47944e-15
1.01009e-14
1.2015e-14
1.4271e-14
1.69257e-14
2.00446e-14
2.37031e-14
2.79877e-14
3.29973e-14
3.88451e-14
4.56603e-14
5.35896e-14
6.28e-14
7.34805e-14
8.5845e-14
1.00135e-13
1.16621e-13
1.3561e-13
1.57442e-13
1.825e-13
2.1121e-13
2.44046e-13
2.81535e-13
3.24259e-13
3.7286e-13
4.28047e-13
4.90598e-13
5.61364e-13
6.41275e-13
7.31343e-13
8.32669e-13
9.46442e-13
1.07395e-12
1.21656e-12
1.37577e-12
1.55316e-12
1.7504e-12
1.96929e-12
2.21171e-12
2.47965e-12
2.77519e-12
3.1005e-12
3.45784e-12
3.84954e-12
4.27799e-12
4.74564e-12
5.25499e-12
5.80855e-12
6.40884e-12
7.05837e-12
7.7596e-12
8.51495e-12
9.32674e-12
1.01972e-11
1.11283e-11
1.21221e-11
1.31801e-11
1.43038e-11
1.54945e-11
1.67529e-11
1.80795e-11
1.94745e-11
2.09376e-11
2.2468e-11
2.40647e-11
2.57258e-11
2.74491e-11
2.92318e-11
3.10707e-11
3.29617e-11
3.49003e-11
3.68815e-11
3.88994e-11
4.09478e-11
4.30198e-11
4.5108e-11
4.72044e-11
4.93006e-11
5.13876e-11
5.34562e-11
5.54967e-11
5.7499e-11
5.94531e-11
6.13486e-11
6.3175e-11
6.4922e-11
6.65791e-11
6.81363e-11
6.95835e-11
7.09112e-11
7.21103e-11
7.31723e-11
7.40892e-11
7.48536e-11
7.54593e-11
7.59006e-11
7.61728e-11
7.62724e-11
7.61969e-11
7.59447e-11
7.55156e-11
7.49105e-11
7.41316e-11
7.31821e-11
7.20666e-11
7.07906e-11
6.93611e-11
6.77859e-11
6.60738e-11
6.42349e-11
6.22799e-11
6.02201e-11
5.80679e-11
5.5836e-11
5.35374e-11
5.11857e-11
4.87945e-11
4.63774e-11
4.39481e-11
4.15199e-11
3.91057e-11
3.67181e-11
3.4369e-11
3.20697e-11
2.98306e-11
2.76613e-11
2.55706e-11
2.3566e-11
2.16544e-11
1.98413e-11
1.81313e-11
1.6528e-11
1.5034e-11
1.36507e-11
1.23789e-11
1.12183e-11
1.01678e-11
9.22549e-12
8.38884e-12
7.65467e-12
7.01924e-12
6.47832e-12
6.02725e-12
5.66102e-12
5.37429e-12
5.16147e-12
5.01675e-12
4.93415e-12
4.90755e-12
4.93071e-12
4.99734e-12
5.10108e-12
5.23555e-12
5.39442e-12
5.57138e-12
5.76023e-12
5.9549e-12
6.14952e-12
6.33845e-12
6.51635e-12
6.67827e-12
6.81964e-12
6.9364e-12
7.02504e-12
7.08264e-12
7.10692e-12
7.09627e-12
7.04979e-12
6.96729e-12
6.84926e-12
6.69688e-12
6.51196e-12
6.2969e-12
6.0546e-12
5.7884e-12
5.50195e-12
5.19919e-12
4.88416e-12
4.56096e-12
4.23361e-12
3.90601e-12
3.58181e-12
3.26436e-12
2.95666e-12
2.66129e-12
2.38041e-12
2.11575e-12
1.86858e-12
1.63975e-12
1.4297e-12
1.23851e-12
1.06592e-12
9.11396e-13
7.7416e-13
6.53254e-13
5.47581e-13
4.55948e-13
3.77113e-13
3.09816e-13
2.52813e-13
2.04903e-13
1.64945e-13
1.31874e-13
1.04712e-13
8.25744e-14
6.46685e-14
5.02955e-14
3.88458e-14
2.97941e-14
2.26922e-14
1.71623e-14
1.28889e-14
9.61158e-15
7.11703e-15
5.23265e-15
3.81993e-15
2.7688e-15
1.99262e-15
1.42379e-15
1.01006e-15
7.11417e-16
4.97471e-16
3.4536e-16
2.3803e-16
1.62872e-16
1.10641e-16
7.46225e-17
4.99779e-17
3.32539e-17
2.20084e-17
1.45332e-17
9.64922e-18
6.55893e-18
4.74224e-18
3.88585e-18
4.96194e-16
5.11116e-16
5.48947e-16
6.10787e-16
6.98598e-16
8.15249e-16
9.64593e-16
1.15157e-15
1.38234e-15
1.66448e-15
2.00715e-15
2.42136e-15
2.92026e-15
3.51948e-15
4.23751e-15
5.09614e-15
6.12102e-15
7.34224e-15
8.79501e-15
1.05204e-14
1.25665e-14
1.49889e-14
1.78523e-14
2.12317e-14
2.52138e-14
2.98987e-14
3.54013e-14
4.18543e-14
4.94093e-14
5.82401e-14
6.85453e-14
8.05512e-14
9.45149e-14
1.10729e-13
1.29523e-13
1.51272e-13
1.76397e-13
2.05371e-13
2.38726e-13
2.77057e-13
3.2103e-13
3.71383e-13
4.2894e-13
4.94613e-13
5.69409e-13
6.54439e-13
7.50925e-13
8.60207e-13
9.83748e-13
1.12315e-12
1.28013e-12
1.45659e-12
1.65455e-12
1.8762e-12
2.12388e-12
2.40009e-12
2.70752e-12
3.049e-12
3.42752e-12
3.84625e-12
4.30849e-12
4.8177e-12
5.37747e-12
5.99152e-12
6.66367e-12
7.39782e-12
8.19794e-12
9.06804e-12
1.00121e-11
1.10342e-11
1.21382e-11
1.3328e-11
1.46072e-11
1.59794e-11
1.74478e-11
1.90155e-11
2.0685e-11
2.24587e-11
2.43383e-11
2.63252e-11
2.84201e-11
3.06233e-11
3.2934e-11
3.53512e-11
3.78729e-11
4.04961e-11
4.32174e-11
4.60321e-11
4.89348e-11
5.19192e-11
5.4978e-11
5.8103e-11
6.12849e-11
6.45137e-11
6.77785e-11
7.10672e-11
7.43674e-11
7.76656e-11
8.09476e-11
8.41988e-11
8.74039e-11
9.05472e-11
9.36128e-11
9.65843e-11
9.94456e-11
1.0218e-10
1.04772e-10
1.07206e-10
1.09466e-10
1.11537e-10
1.13406e-10
1.15059e-10
1.16484e-10
1.17671e-10
1.18608e-10
1.19289e-10
1.19706e-10
1.19854e-10
1.19729e-10
1.1933e-10
1.18655e-10
1.17707e-10
1.16489e-10
1.15007e-10
1.13268e-10
1.1128e-10
1.09054e-10
1.06602e-10
1.03939e-10
1.01079e-10
9.80385e-11
9.48358e-11
9.14893e-11
8.80184e-11
8.44433e-11
8.07844e-11
7.70627e-11
7.32989e-11
6.95137e-11
6.57275e-11
6.19602e-11
5.82308e-11
5.45576e-11
5.09578e-11
4.74475e-11
4.40415e-11