/*--------------------------------*- C++ -*----------------------------------*\
| =========                 |                                                 |
| \\      /  F ield         | OpenFOAM: The Open Source CFD Toolbox           |
|  \\    /   O peration     | Version:  v2012                                 |
|   \\  /    A nd           | Website:  www.openfoam.com                      |
|    \\/     M anipulation  |                                                 |
\*---------------------------------------------------------------------------*/
FoamFile
{
    version     2.0;
    format      ascii;
    class       volVectorField;
    location    "0";
    object      U;
}
// * * * * * * * * * * * * * * * * * * * * * * * * * * * * * * * * * * * * * //

dimensions      [0 1 -1 0 0 0 0];


internalField   nonuniform List<vector> 
4000
(
(1 -3.38904e-15 0)
(1 9.17868e-15 0)
(1 -2.89002e-15 0)
(1 -9.47195e-16 0)
(1 1.27198e-15 0)
(1 -1.97701e-15 0)
(1 1.43102e-15 0)
(1 1.21297e-15 0)
(1 -1.00104e-15 0)
(1 -1.1125e-15 0)
(1 1.25648e-15 0)
(1 -5.41919e-16 0)
(1 4.16064e-15 0)
(1 2.1595e-15 0)
(1 6.37084e-15 0)
(1 -1.2241e-15 0)
(1 -6.38263e-15 0)
(1 -8.40996e-15 0)
(1 -1.64805e-15 0)
(1 -2.64496e-15 0)
(1 1.27007e-15 0)
(1 -1.07008e-14 0)
(1 6.80314e-16 0)
(1 -5.94822e-15 0)
(1 5.4436e-15 0)
(1 -5.11245e-15 0)
(1 4.93492e-15 0)
(1 4.56723e-15 0)
(1 5.16758e-15 0)
(1 7.79344e-15 0)
(1 4.37127e-15 0)
(1 -5.59799e-15 0)
(1 -3.4333e-15 0)
(1 2.6834e-15 0)
(1 1.21197e-15 0)
(1 3.48949e-15 0)
(1 5.02628e-15 0)
(1 2.33627e-15 0)
(1 1.97529e-16 0)
(1 -1.07469e-15 0)
(1 -2.50447e-15 0)
(1 -3.57626e-15 0)
(1 -4.43771e-15 0)
(1 -3.33674e-15 0)
(1 9.59686e-16 0)
(1 2.19533e-15 0)
(1 2.84453e-15 0)
(1 4.05127e-15 0)
(1 -4.84185e-15 0)
(1 1.98267e-16 0)
(1 3.48667e-16 0)
(1 9.93513e-16 0)
(1 -9.37291e-16 0)
(1 9.55838e-16 0)
(1 3.62365e-15 0)
(1 -6.54628e-15 0)
(1 -1.75955e-15 0)
(1 -5.04876e-16 0)
(1 4.04805e-15 0)
(1 6.37702e-15 0)
(1 3.79425e-15 0)
(1 2.25924e-15 0)
(1 4.75413e-16 0)
(1 -2.29373e-15 0)
(1 -2.59826e-15 0)
(1 -4.28891e-16 0)
(1 -1.37574e-15 0)
(1 6.78719e-15 0)
(1 2.82821e-16 0)
(1 -3.46872e-16 0)
(1 -5.69665e-15 0)
(1 -1.88574e-15 0)
(1 -1.72248e-15 0)
(1 -2.53056e-15 0)
(1 -4.26447e-15 0)
(1 -1.64318e-15 0)
(1 -3.02499e-15 0)
(1 5.08407e-16 0)
(1 1.82955e-15 0)
(1 -1.64167e-15 0)
(1 1.02278e-15 0)
(1 2.57073e-15 0)
(1 -8.68524e-16 0)
(1 1.69822e-15 0)
(1 6.18985e-16 0)
(1 -2.3474e-15 0)
(1 6.49854e-16 0)
(1 -2.99265e-15 0)
(1 1.97691e-15 0)
(1 7.12976e-15 0)
(1 -2.66598e-16 0)
(1 3.02626e-15 0)
(1 -5.13934e-15 0)
(1 -2.28116e-15 0)
(1 -6.84729e-16 0)
(1 -2.25042e-15 0)
(1 -3.73765e-15 0)
(1 -2.04822e-15 0)
(1 1.78773e-16 0)
(1 1.0548e-16 0)
(1 -3.78485e-16 0)
(1 5.74288e-15 0)
(1 3.36238e-16 0)
(1 -4.52798e-15 0)
(1 6.23024e-15 0)
(1 -3.33659e-15 0)
(1 8.84561e-16 0)
(1 -6.56051e-17 0)
(1 -6.26836e-17 0)
(1 -5.34427e-15 0)
(1 5.66964e-15 0)
(1 2.12895e-16 0)
(1 5.15043e-15 0)
(1 8.75842e-15 0)
(1 1.02852e-14 0)
(1 -1.74831e-15 0)
(1 -9.82804e-15 0)
(1 -1.38025e-14 0)
(1 -2.09827e-15 0)
(1 -3.57345e-15 0)
(1 1.36598e-15 0)
(1 -1.26198e-14 0)
(1 1.89232e-15 0)
(1 -8.51362e-15 0)
(1 4.29769e-15 0)
(1 -6.90853e-15 0)
(1 3.67882e-15 0)
(1 4.43e-15 0)
(1 3.41569e-15 0)
(1 8.69564e-15 0)
(1 6.91143e-15 0)
(1 3.41677e-15 0)
(1 -1.09268e-15 0)
(1 -3.00426e-15 0)
(1 -2.22048e-15 0)
(1 1.94396e-15 0)
(1 4.98422e-15 0)
(1 7.20191e-15 0)
(1 -4.01827e-16 0)
(1 -2.14124e-15 0)
(1 -3.79184e-15 0)
(1 -6.07597e-15 0)
(1 -7.7532e-15 0)
(1 -6.46069e-15 0)
(1 1.6954e-15 0)
(1 4.3327e-16 0)
(1 1.45694e-16 0)
(1 2.89951e-15 0)
(1 -7.21387e-16 0)
(1 -3.96559e-17 0)
(1 -1.93235e-15 0)
(1 -4.73278e-16 0)
(1 -1.18426e-15 0)
(1 1.14057e-15 0)
(1 1.56098e-15 0)
(1 8.26217e-16 0)
(1 -9.4455e-16 0)
(1 4.19322e-15 0)
(1 -1.09242e-15 0)
(1 4.29816e-15 0)
(1 -8.35828e-16 0)
(1 -8.93639e-16 0)
(1 4.59236e-15 0)
(1 1.90683e-15 0)
(1 -2.41502e-15 0)
(1 -7.70621e-16 0)
(1 -3.57984e-15 0)
(1 3.85788e-15 0)
(1 -1.51325e-15 0)
(1 -3.42047e-15 0)
(1 1.16739e-15 0)
(1 -3.50731e-15 0)
(1 2.39849e-15 0)
(1 1.497e-15 0)
(1 2.8541e-15 0)
(1 -3.41665e-16 0)
(1 -2.21753e-15 0)
(1 3.11742e-15 0)
(1 5.71152e-15 0)
(1 -1.30967e-15 0)
(1 -7.1907e-16 0)
(1 -2.84894e-16 0)
(1 2.85107e-17 0)
(1 4.87078e-15 0)
(1 2.18108e-15 0)
(1 1.06157e-15 0)
(1 -3.29056e-15 0)
(1 -4.2092e-15 0)
(1 -3.44093e-15 0)
(1 3.35092e-15 0)
(1 3.52936e-15 0)
(1 4.41618e-15 0)
(1 -6.84614e-15 0)
(1 -3.72908e-15 0)
(1 -1.76995e-15 0)
(1 2.10477e-15 0)
(1 -3.61446e-15 0)
(1 3.51254e-16 0)
(1 1.27526e-17 0)
(1 -2.06786e-15 0)
(1 3.1497e-15 0)
(1 -7.25651e-15 0)
(1 2.31813e-15 0)
(1 -9.04342e-15 0)
(1 4.81616e-15 0)
(1 1.82473e-15 0)
(1 1.15577e-15 0)
(1 2.72867e-15 0)
(1 4.8769e-15 0)
(1 -1.00423e-15 0)
(1 2.82423e-15 0)
(1 2.73363e-15 0)
(1 3.18999e-15 0)
(1 1.39074e-14 0)
(1 1.97029e-15 0)
(1 -2.82843e-15 0)
(1 -6.93815e-15 0)
(1 -6.10836e-15 0)
(1 -2.47291e-15 0)
(1 4.45217e-15 0)
(1 2.43919e-15 0)
(1 3.92447e-15 0)
(1 -8.17428e-15 0)
(1 -5.63446e-15 0)
(1 -4.28622e-15 0)
(1 -4.53092e-15 0)
(1 3.40737e-15 0)
(1 8.85126e-15 0)
(1 1.20365e-14 0)
(1 9.14998e-15 0)
(1 9.08217e-15 0)
(1 9.03387e-15 0)
(1 3.21622e-15 0)
(1 2.33388e-15 0)
(1 -3.52302e-16 0)
(1 -4.28756e-15 0)
(1 -6.33559e-15 0)
(1 2.07405e-15 0)
(1 3.14573e-15 0)
(1 -5.62298e-15 0)
(1 -7.09939e-15 0)
(1 -5.6536e-15 0)
(1 -9.03558e-15 0)
(1 -7.50637e-15 0)
(1 -6.09083e-15 0)
(1 5.23158e-15 0)
(1 6.64368e-16 0)
(1 1.51535e-15 0)
(1 3.86645e-15 0)
(1 -2.30206e-15 0)
(1 -3.30841e-17 0)
(1 4.36069e-16 0)
(1 3.64385e-15 0)
(1 -5.61851e-16 0)
(1 -2.54317e-15 0)
(1 4.34525e-15 0)
(1 9.66055e-16 0)
(1 1.47328e-15 0)
(1 -1.84856e-15 0)
(1 -2.18686e-16 0)
(1 2.10336e-15 0)
(1 -3.32795e-15 0)
(1 3.76508e-15 0)
(1 2.02803e-16 0)
(1 9.89599e-16 0)
(1 4.72256e-16 0)
(1 1.58485e-15 0)
(1 5.78181e-16 0)
(1 9.84287e-16 0)
(1 -2.66343e-16 0)
(1 6.26732e-16 0)
(1 -2.94472e-15 0)
(1 -2.26252e-15 0)
(1 -6.44105e-16 0)
(1 -1.21885e-16 0)
(1 2.35226e-15 0)
(1 -4.52237e-15 0)
(1 1.70345e-15 0)
(1 2.38334e-15 0)
(1 -2.33898e-15 0)
(1 -1.435e-15 0)
(1 -4.39009e-15 0)
(1 3.65635e-16 0)
(1 -2.95755e-16 0)
(1 6.425e-15 0)
(1 2.48727e-15 0)
(1 -1.01173e-15 0)
(1 -9.11783e-16 0)
(1 -6.51875e-15 0)
(1 -1.8642e-15 0)
(1 -3.92873e-15 0)
(1 -1.28743e-15 0)
(1 -1.24208e-17 0)
(1 3.55381e-16 0)
(1 -2.11155e-15 0)
(1 -2.00364e-15 0)
(1 -3.10606e-15 0)
(1 -9.01374e-16 0)
(1 -5.88654e-16 0)
(1 -2.31903e-16 0)
(1 3.512e-15 0)
(1 -8.22209e-15 0)
(1 -3.82059e-16 0)
(1 -1.19127e-14 0)
(1 2.52025e-15 0)
(1 2.7699e-15 0)
(1 3.57899e-15 0)
(1 3.87041e-15 0)
(1 -2.07784e-15 0)
(1 2.52486e-15 0)
(1 3.71031e-15 0)
(1 9.71259e-15 0)
(1 1.29845e-14 0)
(1 6.41517e-15 0)
(1 3.56361e-15 0)
(1 -2.64405e-15 0)
(1 -5.85959e-15 0)
(1 -6.66953e-15 0)
(1 -1.02424e-14 0)
(1 -1.94596e-15 0)
(1 2.61899e-15 0)
(1 4.53574e-15 0)
(1 2.95547e-15 0)
(1 5.0628e-15 0)
(1 -2.03168e-15 0)
(1 3.48589e-15 0)
(1 4.37111e-15 0)
(1 4.29223e-15 0)
(1 1.21702e-14 0)
(1 6.97811e-15 0)
(1 7.49159e-15 0)
(1 3.25779e-15 0)
(1 5.52282e-16 0)
(1 2.34264e-16 0)
(1 5.31962e-15 0)
(1 1.01231e-15 0)
(1 -2.85584e-15 0)
(1 -5.77473e-15 0)
(1 6.08483e-15 0)
(1 -2.92149e-16 0)
(1 -2.79771e-15 0)
(1 -1.60573e-15 0)
(1 -5.73459e-15 0)
(1 -8.73109e-15 0)
(1 -8.12371e-15 0)
(1 5.8133e-15 0)
(1 7.35797e-15 0)
(1 5.97263e-15 0)
(1 2.74875e-15 0)
(1 2.08701e-15 0)
(1 2.56631e-15 0)
(1 -3.61857e-15 0)
(1 -2.55161e-15 0)
(1 -3.06084e-15 0)
(1 -3.21042e-15 0)
(1 -2.47377e-15 0)
(1 -3.9035e-15 0)
(1 -2.39005e-15 0)
(1 -1.99824e-15 0)
(1 -1.12428e-15 0)
(1 6.02054e-15 0)
(1 6.40734e-15 0)
(1 2.6004e-15 0)
(1 4.75254e-15 0)
(1 2.61457e-15 0)
(1 -1.33634e-15 0)
(1 4.67318e-17 0)
(1 -2.86544e-15 0)
(1 -1.40878e-15 0)
(1 -2.73978e-15 0)
(1 -5.22228e-15 0)
(1 2.22972e-16 0)
(1 -2.42116e-15 0)
(1 -3.92603e-15 0)
(1 -1.95511e-15 0)
(1 -3.65126e-16 0)
(1 7.27301e-16 0)
(1 2.32449e-15 0)
(1 -4.31758e-16 0)
(1 -3.37197e-15 0)
(1 -8.46967e-17 0)
(1 4.75796e-15 0)
(1 -9.30958e-16 0)
(1 -2.10765e-15 0)
(1 6.22701e-15 0)
(1 2.78364e-15 0)
(1 6.31418e-15 0)
(1 3.82429e-15 0)
(1 -7.814e-16 0)
(1 1.64794e-15 0)
(1 -4.72425e-15 0)
(1 -3.69603e-15 0)
(1 6.84005e-16 0)
(1 -2.90583e-16 0)
(1 -2.88062e-15 0)
(1 -3.15935e-15 0)
(1 -1.06406e-14 0)
(1 -7.81836e-15 0)
(1 -8.26691e-16 0)
(1 4.76499e-16 0)
(1 2.01495e-15 0)
(1 -4.85978e-16 0)
(1 -4.70678e-15 0)
(1 -6.85325e-15 0)
(1 9.42261e-16 0)
(1 4.32466e-15 0)
(1 1.77315e-15 0)
(1 -1.41702e-15 0)
(1 -4.90265e-15 0)
(1 1.53784e-15 0)
(1 1.86679e-15 0)
(1 2.59451e-15 0)
(1 1.30902e-14 0)
(1 -4.50824e-15 0)
(1 1.26293e-14 0)
(1 3.95105e-15 0)
(1 -1.17104e-15 0)
(1 -9.12843e-15 0)
(1 -7.58416e-15 0)
(1 -1.28876e-14 0)
(1 -1.87929e-15 0)
(1 -2.91444e-15 0)
(1 1.28106e-14 0)
(1 1.20455e-14 0)
(1 1.24024e-14 0)
(1 6.90393e-15 0)
(1 4.70991e-15 0)
(1 -2.57784e-15 0)
(1 8.34277e-15 0)
(1 5.87279e-15 0)
(1 3.38427e-15 0)
(1 9.83563e-15 0)
(1 1.06213e-14 0)
(1 6.60895e-17 0)
(1 -5.99045e-15 0)
(1 -7.31611e-15 0)
(1 -4.63454e-15 0)
(1 -5.44453e-15 0)
(1 -5.54133e-15 0)
(1 -3.81809e-15 0)
(1 -4.02741e-15 0)
(1 -3.18232e-15 0)
(1 -2.68695e-15 0)
(1 -7.62408e-15 0)
(1 -4.22054e-15 0)
(1 -2.0286e-15 0)
(1 3.73145e-15 0)
(1 1.06213e-14 0)
(1 7.40092e-15 0)
(1 5.23719e-15 0)
(1 -6.93383e-17 0)
(1 -2.14786e-15 0)
(1 -5.93489e-15 0)
(1 -3.12537e-15 0)
(1 1.01595e-15 0)
(1 4.20735e-15 0)
(1 3.66588e-15 0)
(1 3.06578e-15 0)
(1 -2.55898e-15 0)
(1 -3.81698e-16 0)
(1 2.92597e-15 0)
(1 1.05136e-15 0)
(1 2.489e-15 0)
(1 3.4486e-15 0)
(1 1.67793e-15 0)
(1 1.25428e-15 0)
(1 -8.88445e-16 0)
(1 -4.6519e-15 0)
(1 2.41227e-16 0)
(1 -1.20645e-15 0)
(1 3.37459e-15 0)
(1 -1.96765e-15 0)
(1 7.17065e-16 0)
(1 -3.72667e-15 0)
(1 4.0395e-15 0)
(1 -2.8366e-15 0)
(1 4.1178e-15 0)
(1 5.94897e-15 0)
(1 7.06173e-15 0)
(1 1.79801e-15 0)
(1 -3.54999e-15 0)
(1 4.22899e-15 0)
(1 -2.35509e-16 0)
(1 5.77204e-15 0)
(1 1.19197e-15 0)
(1 5.32196e-15 0)
(1 3.02261e-15 0)
(1 -2.1254e-16 0)
(1 -8.38862e-17 0)
(1 -5.35824e-15 0)
(1 8.59382e-16 0)
(1 -6.41188e-15 0)
(1 -2.60918e-15 0)
(1 -2.98073e-15 0)
(1 -1.88102e-15 0)
(1 7.70344e-16 0)
(1 -8.19926e-15 0)
(1 -3.35239e-15 0)
(1 1.22861e-15 0)
(1 4.87743e-16 0)
(1 -3.52782e-15 0)
(1 3.49356e-15 0)
(1 -5.94262e-15 0)
(1 1.61724e-16 0)
(1 -2.32927e-15 0)
(1 1.83415e-15 0)
(1 -3.0734e-15 0)
(1 -8.36208e-15 0)
(1 1.67615e-15 0)
(1 9.0609e-16 0)
(1 2.55899e-15 0)
(1 5.13917e-15 0)
(1 4.72702e-15 0)
(1 -3.23698e-16 0)
(1 4.26226e-15 0)
(1 5.05447e-15 0)
(1 2.60676e-15 0)
(1 -8.04611e-16 0)
(1 6.26042e-15 0)
(1 -3.98849e-15 0)
(1 4.19189e-15 0)
(1 8.26344e-15 0)
(1 2.06056e-15 0)
(1 -3.23871e-15 0)
(1 1.7212e-16 0)
(1 -3.60332e-15 0)
(1 -7.532e-15 0)
(1 6.99057e-15 0)
(1 1.11272e-14 0)
(1 1.89885e-14 0)
(1 9.08793e-15 0)
(1 1.36888e-14 0)
(1 9.99259e-15 0)
(1 2.01723e-15 0)
(1 -8.25388e-15 0)
(1 -7.07905e-15 0)
(1 -4.87003e-15 0)
(1 3.99434e-15 0)
(1 -4.69505e-15 0)
(1 -8.66345e-15 0)
(1 -8.37263e-15 0)
(1 -4.38972e-15 0)
(1 2.59505e-15 0)
(1 4.73137e-15 0)
(1 3.89065e-15 0)
(1 -3.98016e-15 0)
(1 -3.74599e-15 0)
(1 -5.42232e-16 0)
(1 7.8393e-16 0)
(1 4.9442e-15 0)
(1 5.25807e-15 0)
(1 3.52356e-15 0)
(1 -5.68335e-15 0)
(1 -5.27274e-15 0)
(1 1.86576e-15 0)
(1 1.57636e-16 0)
(1 3.28298e-15 0)
(1 1.0142e-15 0)
(1 8.89717e-15 0)
(1 5.79627e-15 0)
(1 8.08317e-15 0)
(1 -1.88939e-16 0)
(1 -2.07514e-15 0)
(1 -3.08697e-15 0)
(1 3.27648e-15 0)
(1 5.24855e-15 0)
(1 5.70969e-15 0)
(1 7.52927e-15 0)
(1 1.06116e-14 0)
(1 1.641e-14 0)
(1 5.5959e-15 0)
(1 -2.47608e-15 0)
(1 -3.45904e-15 0)
(1 -3.54518e-15 0)
(1 -8.57001e-15 0)
(1 -6.86229e-15 0)
(1 -6.20629e-15 0)
(1 2.98424e-15 0)
(1 5.26769e-15 0)
(1 5.18948e-15 0)
(1 1.45937e-15 0)
(1 6.28021e-15 0)
(1 8.9944e-15 0)
(1 3.73999e-15 0)
(1 -2.25887e-15 0)
(1 2.77917e-15 0)
(1 2.70789e-15 0)
(1 -2.712e-16 0)
(1 -3.33759e-15 0)
(1 -3.93767e-15 0)
(1 -6.21278e-15 0)
(1 -4.27796e-15 0)
(1 -1.00547e-15 0)
(1 9.71688e-17 0)
(1 -1.36692e-15 0)
(1 -3.82067e-15 0)
(1 3.54995e-15 0)
(1 3.83925e-15 0)
(1 5.17771e-15 0)
(1 4.46352e-15 0)
(1 -4.96047e-15 0)
(1 -1.51888e-15 0)
(1 -2.69716e-15 0)
(1 4.76572e-15 0)
(1 -7.23348e-17 0)
(1 -1.61993e-15 0)
(1 -4.83086e-15 0)
(1 -1.18387e-14 0)
(1 5.57182e-15 0)
(1 -1.59092e-15 0)
(1 4.37935e-15 0)
(1 1.2502e-15 0)
(1 2.44259e-15 0)
(1 6.08894e-15 0)
(1 -2.20493e-16 0)
(1 1.56231e-15 0)
(1 7.26779e-15 0)
(1 6.32864e-15 0)
(1 5.88353e-15 0)
(1 6.90973e-15 0)
(1 3.88434e-15 0)
(1 5.68834e-15 0)
(1 3.16135e-16 0)
(1 2.89032e-15 0)
(1 -9.26694e-15 0)
(1 -4.6465e-15 0)
(1 -6.12345e-15 0)
(1 1.16568e-15 0)
(1 6.39134e-15 0)
(1 1.27791e-14 0)
(1 1.4635e-14 0)
(1 1.06105e-14 0)
(1 1.77614e-15 0)
(1 -7.91174e-15 0)
(1 -2.81121e-15 0)
(1 1.95829e-15 0)
(1 5.0307e-15 0)
(1 7.23165e-16 0)
(1 2.94614e-15 0)
(1 -3.18818e-15 0)
(1 -3.47983e-15 0)
(1 -5.44903e-15 0)
(1 3.23131e-15 0)
(1 1.28164e-14 0)
(1 4.76894e-15 0)
(1 -8.9339e-15 0)
(1 -4.693e-15 0)
(1 -1.66742e-15 0)
(1 3.33817e-15 0)
(1 4.14504e-15 0)
(1 9.13771e-15 0)
(1 -4.93193e-16 0)
(1 -5.64809e-15 0)
(1 -4.02701e-15 0)
(1 -8.72205e-16 0)
(1 3.99308e-15 0)
(1 -1.52756e-16 0)
(1 -1.9555e-15 0)
(1 6.29952e-16 0)
(1 3.54364e-15 0)
(1 4.31993e-15 0)
(1 6.59083e-15 0)
(1 1.14307e-15 0)
(1 7.90553e-15 0)
(1 3.36281e-15 0)
(1 4.77684e-16 0)
(1 -8.32427e-17 0)
(1 1.23023e-16 0)
(1 2.60395e-15 0)
(1 -1.51386e-16 0)
(1 -7.0267e-17 0)
(1 8.85497e-16 0)
(1 -2.38893e-16 0)
(1 1.45259e-15 0)
(1 3.28056e-16 0)
(1 3.66357e-15 0)
(1 5.16207e-15 0)
(1 4.70024e-15 0)
(1 2.3605e-15 0)
(1 2.0749e-15 0)
(1 4.38022e-15 0)
(1 5.29479e-15 0)
(1 7.45356e-15 0)
(1 4.60198e-15 0)
(1 2.95885e-15 0)
(1 5.09861e-15 0)
(1 7.42148e-15 0)
(1 5.70045e-15 0)
(1 -1.59691e-15 0)
(1 3.93486e-16 0)
(1 -1.15439e-15 0)
(1 3.36559e-15 0)
(1 -6.58098e-16 0)
(1 -1.17922e-16 0)
(1 7.05548e-16 0)
(1 3.0792e-15 0)
(1 7.30799e-15 0)
(1 4.90812e-15 0)
(1 6.61456e-15 0)
(1 7.62521e-15 0)
(1 -1.97896e-15 0)
(1 -2.11591e-15 0)
(1 -4.51715e-15 0)
(1 4.46861e-15 0)
(1 9.82691e-16 0)
(1 -1.28007e-15 0)
(1 5.17923e-16 0)
(1 -6.56265e-15 0)
(1 6.88771e-16 0)
(1 -6.57332e-15 0)
(1 -8.75482e-16 0)
(1 -5.43414e-15 0)
(1 -4.42612e-16 0)
(1 8.81221e-15 0)
(1 6.86744e-15 0)
(1 5.52816e-15 0)
(1 4.1482e-15 0)
(1 6.14066e-15 0)
(1 6.03681e-15 0)
(1 8.88832e-15 0)
(1 -4.02437e-15 0)
(1 -2.54707e-15 0)
(1 -9.52886e-15 0)
(1 -1.39326e-15 0)
(1 -3.28609e-15 0)
(1 9.22077e-15 0)
(1 8.42395e-15 0)
(1 1.86562e-15 0)
(1 8.51312e-16 0)
(1 -1.68076e-15 0)
(1 5.68688e-15 0)
(1 2.55268e-15 0)
(1 7.06165e-16 0)
(1 6.08496e-15 0)
(1 4.97323e-15 0)
(1 -1.06748e-15 0)
(1 3.23248e-16 0)
(1 -2.65976e-15 0)
(1 3.98022e-17 0)
(1 -5.1915e-15 0)
(1 -4.74355e-15 0)
(1 -3.51104e-15 0)
(1 5.66455e-16 0)
(1 8.57782e-15 0)
(1 5.60875e-15 0)
(1 3.95283e-15 0)
(1 3.78825e-16 0)
(1 2.75317e-15 0)
(1 1.65666e-15 0)
(1 -7.10747e-16 0)
(1 1.9807e-15 0)
(1 1.29897e-15 0)
(1 9.09131e-15 0)
(1 2.41397e-15 0)
(1 -9.96097e-16 0)
(1 -2.57405e-15 0)
(1 4.08252e-15 0)
(1 -1.7425e-15 0)
(1 1.34078e-15 0)
(1 2.33271e-15 0)
(1 4.36197e-15 0)
(1 4.44802e-15 0)
(1 6.60986e-15 0)
(1 4.15073e-15 0)
(1 2.47591e-15 0)
(1 6.12538e-15 0)
(1 6.68346e-15 0)
(1 4.22401e-15 0)
(1 2.75913e-15 0)
(1 -1.21606e-15 0)
(1 6.0737e-15 0)
(1 4.19256e-15 0)
(1 2.09503e-15 0)
(1 3.01081e-15 0)
(1 1.60986e-15 0)
(1 7.91473e-15 0)
(1 9.98644e-15 0)
(1 5.17222e-15 0)
(1 4.52083e-16 0)
(1 -3.83963e-16 0)
(1 8.18454e-16 0)
(1 -3.07168e-15 0)
(1 -3.68812e-16 0)
(1 8.7707e-15 0)
(1 6.06749e-15 0)
(1 4.42403e-15 0)
(1 3.16059e-15 0)
(1 2.80857e-16 0)
(1 -1.02878e-15 0)
(1 -5.06539e-16 0)
(1 2.39497e-15 0)
(1 9.1262e-16 0)
(1 2.84705e-16 0)
(1 4.7238e-16 0)
(1 1.83302e-15 0)
(1 1.53533e-15 0)
(1 7.17658e-17 0)
(1 5.01767e-15 0)
(1 6.72165e-15 0)
(1 1.33605e-14 0)
(1 9.13176e-16 0)
(1 -2.87382e-15 0)
(1 4.53123e-15 0)
(1 -6.81138e-15 0)
(1 -3.22269e-15 0)
(1 -8.6679e-15 0)
(1 -1.50695e-15 0)
(1 4.88516e-15 0)
(1 -1.32998e-14 0)
(1 -1.68081e-15 0)
(1 6.53508e-15 0)
(1 4.01182e-15 0)
(1 1.73027e-15 0)
(1 8.80976e-15 0)
(1 5.19002e-15 0)
(1 4.14291e-15 0)
(1 4.94545e-16 0)
(1 6.67031e-15 0)
(1 4.57438e-15 0)
(1 6.37927e-15 0)
(1 -9.53172e-15 0)
(1 1.07454e-15 0)
(1 7.35539e-16 0)
(1 3.14974e-15 0)
(1 5.79275e-15 0)
(1 5.13143e-15 0)
(1 -5.69803e-15 0)
(1 -1.32154e-16 0)
(1 -9.14414e-15 0)
(1 -2.05221e-15 0)
(1 -5.2445e-15 0)
(1 -5.4106e-15 0)
(1 -3.34837e-15 0)
(1 7.84119e-15 0)
(1 8.76353e-15 0)
(1 9.74252e-16 0)
(1 1.22699e-15 0)
(1 1.76433e-15 0)
(1 2.80167e-15 0)
(1 6.09927e-16 0)
(1 -4.57027e-15 0)
(1 7.74638e-15 0)
(1 4.90876e-15 0)
(1 8.3591e-15 0)
(1 1.27633e-14 0)
(1 1.60199e-14 0)
(1 3.8455e-15 0)
(1 -9.84381e-16 0)
(1 -4.50032e-15 0)
(1 -5.38515e-15 0)
(1 -4.53005e-15 0)
(1 2.63714e-15 0)
(1 3.40913e-15 0)
(1 2.1181e-15 0)
(1 6.13046e-16 0)
(1 -6.28218e-15 0)
(1 -1.45231e-15 0)
(1 7.4521e-15 0)
(1 7.37521e-15 0)
(1 7.75648e-15 0)
(1 -1.35589e-15 0)
(1 8.67653e-15 0)
(1 -8.66411e-15 0)
(1 -1.67314e-15 0)
(1 2.47327e-15 0)
(1 1.38668e-14 0)
(1 1.5236e-14 0)
(1 1.72841e-14 0)
(1 1.7289e-14 0)
(1 1.64687e-14 0)
(1 7.12435e-15 0)
(1 7.30894e-15 0)
(1 1.17255e-15 0)
(1 -5.4436e-16 0)
(1 -8.44626e-15 0)
(1 -3.69852e-15 0)
(1 1.90409e-15 0)
(1 3.2605e-15 0)
(1 -1.73546e-15 0)
(1 6.14137e-15 0)
(1 3.41531e-15 0)
(1 8.63665e-15 0)
(1 6.50641e-15 0)
(1 7.41369e-15 0)
(1 1.63912e-15 0)
(1 -4.79561e-15 0)
(1 -4.05046e-15 0)
(1 1.17485e-16 0)
(1 3.76003e-15 0)
(1 1.09846e-15 0)
(1 3.14807e-15 0)
(1 1.82717e-15 0)
(1 6.33309e-15 0)
(1 4.7639e-15 0)
(1 8.87796e-15 0)
(1 6.31195e-15 0)
(1 9.60387e-15 0)
(1 1.25158e-14 0)
(1 1.93203e-14 0)
(1 2.12377e-14 0)
(1 5.87334e-16 0)
(1 1.52039e-15 0)
(1 6.47606e-15 0)
(1 1.40858e-15 0)
(1 -8.36067e-15 0)
(1 -9.21846e-16 0)
(1 -2.44263e-15 0)
(1 3.76291e-15 0)
(1 -4.85284e-15 0)
(1 1.45966e-15 0)
(1 6.08534e-15 0)
(1 3.72375e-15 0)
(1 8.17372e-15 0)
(1 6.79849e-16 0)
(1 1.5756e-15 0)
(1 -1.9413e-15 0)
(1 1.37775e-15 0)
(1 1.12775e-15 0)
(1 -3.62927e-15 0)
(1 -5.59691e-15 0)
(1 -7.19668e-15 0)
(1 -4.76001e-15 0)
(1 1.15809e-14 0)
(1 4.22023e-15 0)
(1 7.3078e-15 0)
(1 2.65685e-15 0)
(1 3.7716e-15 0)
(1 -2.33605e-16 0)
(1 1.29799e-15 0)
(1 -1.61532e-16 0)
(1 -4.00992e-15 0)
(1 -9.90228e-15 0)
(1 -4.23268e-15 0)
(1 -1.13404e-15 0)
(1 -6.08895e-15 0)
(1 -5.10619e-16 0)
(1 2.62607e-15 0)
(1 3.33523e-15 0)
(1 -2.11856e-15 0)
(1 3.62455e-15 0)
(1 1.6865e-15 0)
(1 8.00067e-15 0)
(1 6.66638e-15 0)
(1 5.66902e-15 0)
(1 4.57772e-15 0)
(1 4.86344e-15 0)
(1 1.40914e-16 0)
(1 -4.40165e-15 0)
(1 -1.76776e-15 0)
(1 1.76102e-15 0)
(1 7.01268e-15 0)
(1 8.75867e-15 0)
(1 2.74236e-15 0)
(1 2.0509e-15 0)
(1 4.32532e-15 0)
(1 5.86144e-15 0)
(1 -1.41405e-15 0)
(1 4.71083e-15 0)
(1 6.33251e-16 0)
(1 8.72896e-15 0)
(1 2.8487e-15 0)
(1 5.21996e-15 0)
(1 8.28982e-15 0)
(1 6.6064e-15 0)
(1 8.67415e-15 0)
(1 4.25875e-15 0)
(1 1.08491e-14 0)
(1 1.3094e-14 0)
(1 1.17121e-14 0)
(1 1.01935e-14 0)
(1 -1.47774e-16 0)
(1 5.16029e-15 0)
(1 -7.96022e-16 0)
(1 -1.41758e-15 0)
(1 4.91829e-16 0)
(1 7.15093e-15 0)
(1 7.46188e-15 0)
(1 5.88444e-15 0)
(1 5.86003e-15 0)
(1 5.3989e-15 0)
(1 1.03186e-15 0)
(1 2.87849e-15 0)
(1 3.43806e-15 0)
(1 1.22228e-15 0)
(1 3.0315e-15 0)
(1 -2.50277e-15 0)
(1 3.00431e-15 0)
(1 7.74807e-16 0)
(1 4.24962e-15 0)
(1 -3.85165e-15 0)
(1 5.47506e-15 0)
(1 5.59848e-15 0)
(1 6.71016e-15 0)
(1 1.94498e-15 0)
(1 1.00997e-14 0)
(1 5.53414e-15 0)
(1 9.60022e-15 0)
(1 1.45933e-14 0)
(1 2.60941e-14 0)
(1 2.18075e-14 0)
(1 -4.14995e-16 0)
(1 2.12589e-16 0)
(1 -6.01287e-16 0)
(1 3.20205e-15 0)
(1 -4.90295e-15 0)
(1 -2.91507e-15 0)
(1 -4.23825e-16 0)
(1 -4.3939e-15 0)
(1 1.15111e-15 0)
(1 -5.75975e-15 0)
(1 -1.0591e-14 0)
(1 -2.25136e-16 0)
(1 6.18426e-15 0)
(1 -3.4776e-15 0)
(1 6.47082e-15 0)
(1 1.32071e-15 0)
(1 9.96799e-15 0)
(1 -7.78508e-16 0)
(1 -3.04747e-15 0)
(1 -2.16974e-15 0)
(1 3.14664e-15 0)
(1 1.74559e-17 0)
(1 6.57681e-16 0)
(1 -6.52083e-15 0)
(1 -4.67434e-15 0)
(1 -2.73123e-15 0)
(1 8.71172e-15 0)
(1 7.37152e-15 0)
(1 9.16202e-15 0)
(1 2.87683e-15 0)
(1 -4.05978e-16 0)
(1 -1.1829e-14 0)
(1 -1.11586e-14 0)
(1 -3.67103e-15 0)
(1 3.26772e-15 0)
(1 8.89943e-15 0)
(1 5.79337e-15 0)
(1 3.03153e-15 0)
(1 -9.33943e-16 0)
(1 -2.30619e-15 0)
(1 1.42489e-14 0)
(1 3.24859e-15 0)
(1 8.09538e-15 0)
(1 -4.29519e-15 0)
(1 1.73842e-15 0)
(1 -2.96113e-17 0)
(1 4.42894e-15 0)
(1 -3.64019e-15 0)
(1 1.1764e-15 0)
(1 7.19412e-15 0)
(1 5.40418e-15 0)
(1 4.10711e-15 0)
(1 8.27127e-15 0)
(1 6.46655e-16 0)
(1 4.08945e-15 0)
(1 2.56572e-15 0)
(1 4.44336e-15 0)
(1 -1.14001e-15 0)
(1 8.23941e-15 0)
(1 1.47475e-15 0)
(1 1.07194e-14 0)
(1 -3.37165e-15 0)
(1 1.00518e-14 0)
(1 1.72107e-15 0)
(1 5.11687e-15 0)
(1 5.06056e-16 0)
(1 1.50285e-14 0)
(1 1.31691e-14 0)
(1 1.24435e-14 0)
(1 3.7126e-15 0)
(1 9.00746e-15 0)
(1 2.14442e-15 0)
(1 9.4717e-16 0)
(1 -4.64437e-15 0)
(1 -2.35254e-15 0)
(1 4.94553e-15 0)
(1 1.272e-14 0)
(1 8.06743e-15 0)
(1 8.63428e-15 0)
(1 -4.69735e-17 0)
(1 4.32471e-15 0)
(1 -2.53214e-16 0)
(1 6.98994e-15 0)
(1 4.79924e-15 0)
(1 2.77069e-15 0)
(1 2.01941e-15 0)
(1 6.9756e-15 0)
(1 3.10826e-15 0)
(1 4.01199e-15 0)
(1 -1.84717e-15 0)
(1 8.01052e-16 0)
(1 3.74565e-15 0)
(1 4.96948e-15 0)
(1 2.83972e-15 0)
(1 1.99537e-15 0)
(1 3.44452e-15 0)
(1 9.74043e-15 0)
(1 1.58328e-14 0)
(1 1.62169e-14 0)
(1 1.14205e-14 0)
(1 3.12686e-15 0)
(1 -6.63516e-15 0)
(1 3.7631e-15 0)
(1 -1.08768e-15 0)
(1 -1.67563e-15 0)
(1 -9.95355e-15 0)
(1 -6.85658e-15 0)
(1 -9.47794e-16 0)
(1 1.47948e-15 0)
(1 1.07187e-14 0)
(1 8.53686e-15 0)
(1 6.14222e-15 0)
(1 -4.43762e-16 0)
(1 -5.95273e-15 0)
(1 -1.86781e-15 0)
(1 5.77534e-15 0)
(1 7.96071e-15 0)
(1 -7.25649e-15 0)
(1 -1.23988e-14 0)
(1 -3.98871e-15 0)
(1 1.56521e-15 0)
(1 2.78438e-15 0)
(1 -4.03871e-15 0)
(1 6.12589e-15 0)
(1 8.68595e-15 0)
(1 3.93004e-15 0)
(1 -2.43937e-16 0)
(1 -3.06518e-16 0)
(1 4.34132e-15 0)
(1 6.99498e-15 0)
(1 4.91711e-15 0)
(1 -1.57338e-15 0)
(1 -7.42974e-15 0)
(1 -1.0967e-14 0)
(1 -2.9896e-15 0)
(1 4.27547e-16 0)
(1 9.89476e-17 0)
(1 -5.65992e-15 0)
(1 1.48551e-15 0)
(1 -2.7573e-15 0)
(1 7.42524e-15 0)
(1 -6.18416e-17 0)
(1 -1.49763e-15 0)
(1 -1.28165e-14 0)
(1 3.15701e-15 0)
(1 1.08969e-14 0)
(1 1.89316e-14 0)
(1 1.24696e-14 0)
(1 5.77686e-15 0)
(1 1.61446e-15 0)
(1 -4.17922e-15 0)
(1 -2.26136e-15 0)
(1 2.94914e-15 0)
(1 8.92519e-15 0)
(1 8.70452e-15 0)
(1 4.86737e-15 0)
(1 3.39798e-15 0)
(1 1.94147e-15 0)
(1 6.08214e-15 0)
(1 2.32071e-16 0)
(1 1.68934e-15 0)
(1 8.52303e-15 0)
(1 4.86604e-15 0)
(1 2.37676e-15 0)
(1 2.1399e-15 0)
(1 1.49512e-15 0)
(1 6.22698e-15 0)
(1 6.89236e-15 0)
(1 4.74499e-15 0)
(1 4.84299e-15 0)
(1 1.01824e-14 0)
(1 9.93191e-15 0)
(1 1.231e-15 0)
(1 -1.95499e-15 0)
(1 3.92025e-15 0)
(1 2.27697e-15 0)
(1 6.8232e-15 0)
(1 8.06365e-15 0)
(1 1.06648e-14 0)
(1 2.61668e-15 0)
(1 6.65374e-15 0)
(1 1.14921e-14 0)
(1 8.96706e-15 0)
(1 7.37583e-15 0)
(1 -2.4108e-15 0)
(1 -2.50669e-15 0)
(1 1.80301e-15 0)
(1 1.08899e-15 0)
(1 3.3818e-15 0)
(1 1.09003e-15 0)
(1 2.16931e-16 0)
(1 6.302e-15 0)
(1 4.61362e-15 0)
(1 7.25917e-15 0)
(1 1.99312e-15 0)
(1 1.579e-14 0)
(1 1.36623e-14 0)
(1 1.32996e-14 0)
(1 3.34634e-15 0)
(1 3.92646e-15 0)
(1 4.39811e-15 0)
(1 2.91766e-17 0)
(1 -2.58057e-15 0)
(1 5.35235e-16 0)
(1 -8.17457e-16 0)
(1 1.05711e-15 0)
(1 1.76633e-15 0)
(1 1.94704e-15 0)
(1 -2.79141e-15 0)
(1 6.72915e-15 0)
(1 1.08611e-14 0)
(1 1.18267e-14 0)
(1 -3.73222e-15 0)
(1 -2.08272e-15 0)
(1 -6.21299e-15 0)
(1 4.37473e-16 0)
(1 3.01248e-16 0)
(1 -7.18522e-15 0)
(1 -2.91677e-15 0)
(1 8.10883e-16 0)
(1 5.05476e-15 0)
(1 -9.38112e-15 0)
(1 -4.81431e-15 0)
(1 -1.08848e-14 0)
(1 2.39407e-15 0)
(1 8.6315e-15 0)
(1 2.69992e-15 0)
(1 -3.28239e-15 0)
(1 -3.9367e-15 0)
(1 -1.05709e-15 0)
(1 3.62715e-18 0)
(1 5.63394e-16 0)
(1 -4.18474e-16 0)
(1 -5.00568e-15 0)
(1 -4.51242e-15 0)
(1 4.428e-15 0)
(1 7.74546e-15 0)
(1 4.39392e-15 0)
(1 1.18663e-17 0)
(1 8.42703e-16 0)
(1 -1.04114e-14 0)
(1 -3.5881e-15 0)
(1 -4.77347e-15 0)
(1 2.20794e-15 0)
(1 1.48405e-15 0)
(1 7.60253e-15 0)
(1 8.17769e-15 0)
(1 1.27874e-14 0)
(1 7.14182e-15 0)
(1 1.30998e-15 0)
(1 1.54083e-15 0)
(1 -2.53598e-15 0)
(1 2.68463e-15 0)
(1 5.54087e-15 0)
(1 7.10496e-15 0)
(1 3.45325e-15 0)
(1 4.82262e-16 0)
(1 2.48968e-15 0)
(1 -5.82366e-16 0)
(1 -8.15326e-16 0)
(1 -3.63805e-15 0)
(1 7.54735e-15 0)
(1 1.75955e-14 0)
(1 1.62037e-14 0)
(1 1.30255e-14 0)
(1 4.75426e-15 0)
(1 -4.34549e-15 0)
(1 -4.38624e-15 0)
(1 -5.02278e-15 0)
(1 4.9588e-15 0)
(1 5.86891e-15 0)
(1 5.96484e-15 0)
(1 3.1565e-15 0)
(1 1.0946e-14 0)
(1 1.09714e-14 0)
(1 3.25069e-15 0)
(1 -2.42578e-15 0)
(1 4.9978e-15 0)
(1 4.97087e-15 0)
(1 5.29513e-15 0)
(1 5.13664e-15 0)
(1 6.30312e-15 0)
(1 2.40109e-15 0)
(1 4.16066e-15 0)
(1 4.92737e-15 0)
(1 6.29063e-15 0)
(1 -3.03129e-16 0)
(1 1.19467e-15 0)
(1 -2.21906e-15 0)
(1 8.43141e-16 0)
(1 3.56518e-15 0)
(1 1.19243e-15 0)
(1 1.62625e-15 0)
(1 4.53856e-15 0)
(1 3.39699e-15 0)
(1 1.22075e-14 0)
(1 7.22133e-15 0)
(1 6.98042e-15 0)
(1 4.59602e-15 0)
(1 6.42669e-15 0)
(1 -4.44056e-15 0)
(1 7.67547e-15 0)
(1 -1.54354e-15 0)
(1 -3.46014e-15 0)
(1 2.13365e-15 0)
(1 3.23726e-15 0)
(1 2.72205e-15 0)
(1 6.90471e-15 0)
(1 5.67742e-15 0)
(1 -4.03143e-15 0)
(1 -5.18554e-15 0)
(1 5.57735e-15 0)
(1 1.47318e-15 0)
(1 7.73614e-15 0)
(1 1.20655e-15 0)
(1 -6.29221e-15 0)
(1 -9.92617e-15 0)
(1 -5.67699e-15 0)
(1 4.90372e-15 0)
(1 -4.75907e-15 0)
(1 -5.10411e-16 0)
(1 -1.10013e-14 0)
(1 -4.14918e-15 0)
(1 -3.46087e-15 0)
(1 1.77539e-15 0)
(1 -1.5029e-15 0)
(1 1.54082e-15 0)
(1 -1.46275e-15 0)
(1 -7.23949e-15 0)
(1 -7.40114e-17 0)
(1 -1.46334e-15 0)
(1 -5.98475e-16 0)
(1 1.36061e-15 0)
(1 -2.56706e-15 0)
(1 1.2433e-14 0)
(1 1.32561e-14 0)
(1 7.65399e-15 0)
(1 1.69682e-15 0)
(1 -3.97453e-15 0)
(1 -2.99828e-15 0)
(1 -1.17269e-14 0)
(1 -3.03849e-15 0)
(1 -7.22238e-15 0)
(1 1.25136e-14 0)
(1 6.86582e-15 0)
(1 3.72867e-15 0)
(1 2.18645e-15 0)
(1 5.18751e-15 0)
(1 8.9196e-15 0)
(1 -2.09127e-16 0)
(1 -2.9197e-15 0)
(1 -6.32247e-15 0)
(1 3.46643e-15 0)
(1 -1.66838e-15 0)
(1 3.92559e-15 0)
(1 3.65159e-15 0)
(1 8.97751e-15 0)
(1 1.07536e-14 0)
(1 1.06903e-14 0)
(1 5.03437e-15 0)
(1 4.34756e-15 0)
(1 -8.67677e-16 0)
(1 -1.59471e-15 0)
(1 5.52291e-15 0)
(1 1.39955e-14 0)
(1 1.29674e-14 0)
(1 2.2988e-15 0)
(1 2.56357e-15 0)
(1 6.80598e-15 0)
(1 5.13499e-15 0)
(1 4.43162e-15 0)
(1 -6.34961e-16 0)
(1 6.74557e-15 0)
(1 1.64218e-14 0)
(1 5.70278e-15 0)
(1 7.37974e-15 0)
(1 7.92439e-15 0)
(1 9.68799e-15 0)
(1 7.20077e-15 0)
(1 1.03778e-14 0)
(1 3.20201e-15 0)
(1 1.30611e-15 0)
(1 -2.27292e-16 0)
(1 4.34179e-15 0)
(1 8.62862e-15 0)
(1 8.97921e-15 0)
(1 -2.40531e-15 0)
(1 1.43788e-15 0)
(1 7.67818e-16 0)
(1 5.55078e-15 0)
(1 1.46779e-15 0)
(1 6.69958e-16 0)
(1 6.32395e-16 0)
(1 6.06877e-15 0)
(1 6.80207e-15 0)
(1 4.77233e-15 0)
(1 8.10524e-15 0)
(1 8.38522e-15 0)
(1 1.42827e-14 0)
(1 9.95577e-15 0)
(1 6.06707e-16 0)
(1 2.37219e-15 0)
(1 4.23043e-15 0)
(1 4.97831e-15 0)
(1 7.28388e-15 0)
(1 -1.74059e-15 0)
(1 -1.18158e-14 0)
(1 -7.64366e-15 0)
(1 2.83715e-15 0)
(1 6.92037e-15 0)
(1 8.63348e-16 0)
(1 1.19224e-15 0)
(1 1.93664e-15 0)
(1 5.17372e-15 0)
(1 -8.16767e-15 0)
(1 -3.54299e-15 0)
(1 -1.78496e-14 0)
(1 -8.44446e-15 0)
(1 -9.29765e-16 0)
(1 -1.08546e-14 0)
(1 -4.15377e-15 0)
(1 7.5084e-15 0)
(1 9.21096e-16 0)
(1 1.3898e-14 0)
(1 8.52215e-15 0)
(1 1.04103e-15 0)
(1 -5.83696e-16 0)
(1 -1.49549e-15 0)
(1 -3.20675e-15 0)
(1 2.628e-16 0)
(1 -2.19292e-15 0)
(1 3.93254e-15 0)
(1 4.16033e-16 0)
(1 -9.65232e-15 0)
(1 -3.50596e-15 0)
(1 -1.03422e-15 0)
(1 1.9312e-15 0)
(1 -6.78124e-16 0)
(1 7.19361e-16 0)
(1 3.07732e-15 0)
(1 4.55513e-15 0)
(1 5.06738e-15 0)
(1 -7.04152e-15 0)
(1 3.30161e-15 0)
(1 1.54048e-15 0)
(1 1.33798e-14 0)
(1 6.09604e-15 0)
(1 -4.11048e-15 0)
(1 1.79135e-15 0)
(1 1.69578e-15 0)
(1 -6.02527e-16 0)
(1 6.21617e-15 0)
(1 1.60829e-15 0)
(1 2.42732e-15 0)
(1 -1.58609e-15 0)
(1 2.3407e-15 0)
(1 4.46608e-15 0)
(1 4.54393e-15 0)
(1 5.4519e-15 0)
(1 8.01185e-15 0)
(1 9.66288e-15 0)
(1 5.48248e-15 0)
(1 1.90342e-15 0)
(1 7.80792e-15 0)
(1 8.56223e-15 0)
(1 5.9534e-15 0)
(1 7.06975e-15 0)
(1 9.03499e-15 0)
(1 1.26635e-14 0)
(1 9.21363e-15 0)
(1 1.89283e-15 0)
(1 6.42892e-15 0)
(1 4.24721e-15 0)
(1 8.20884e-15 0)
(1 9.26699e-15 0)
(1 1.36535e-14 0)
(1 1.32938e-14 0)
(1 3.78791e-15 0)
(1 6.61954e-15 0)
(1 9.69921e-15 0)
(1 4.99323e-15 0)
(1 3.14415e-15 0)
(1 3.02196e-15 0)
(1 5.04722e-15 0)
(1 5.43994e-15 0)
(1 5.79335e-16 0)
(1 -3.648e-15 0)
(1 -8.14833e-15 0)
(1 -3.37265e-16 0)
(1 2.80329e-16 0)
(1 3.06225e-15 0)
(1 4.23958e-15 0)
(1 4.69227e-15 0)
(1 4.87479e-15 0)
(1 9.87991e-15 0)
(1 6.07555e-15 0)
(1 1.04293e-14 0)
(1 1.12138e-14 0)
(1 1.18063e-14 0)
(1 1.04322e-14 0)
(1 -1.77635e-15 0)
(1 -1.97972e-15 0)
(1 -2.48605e-15 0)
(1 8.06901e-15 0)
(1 6.0304e-16 0)
(1 5.56127e-15 0)
(1 7.65341e-15 0)
(1 8.30617e-15 0)
(1 5.73433e-17 0)
(1 2.19906e-15 0)
(1 -7.65906e-15 0)
(1 -1.25744e-14 0)
(1 1.24283e-15 0)
(1 -2.29412e-15 0)
(1 1.0067e-15 0)
(1 -1.13416e-15 0)
(1 -7.43545e-16 0)
(1 -1.12192e-14 0)
(1 -1.16594e-14 0)
(1 -4.1575e-15 0)
(1 -4.35775e-15 0)
(1 7.31016e-15 0)
(1 2.63071e-15 0)
(1 -3.76695e-15 0)
(1 -7.67934e-15 0)
(1 -7.09604e-15 0)
(1 -9.16198e-15 0)
(1 -1.98621e-15 0)
(1 2.75755e-15 0)
(1 -5.93987e-15 0)
(1 4.73855e-15 0)
(1 4.61886e-15 0)
(1 5.13838e-15 0)
(1 8.11098e-15 0)
(1 -1.21556e-15 0)
(1 5.0358e-15 0)
(1 7.16176e-15 0)
(1 2.57618e-16 0)
(1 2.745e-15 0)
(1 1.17533e-15 0)
(1 3.81054e-15 0)
(1 7.03799e-15 0)
(1 7.54432e-15 0)
(1 -3.80423e-15 0)
(1 -1.06649e-14 0)
(1 -9.0295e-15 0)
(1 1.80015e-15 0)
(1 1.36064e-15 0)
(1 -2.94169e-15 0)
(1 1.64698e-15 0)
(1 7.98757e-15 0)
(1 7.03014e-15 0)
(1 2.48115e-15 0)
(1 -2.40589e-15 0)
(1 -3.60654e-16 0)
(1 3.55754e-15 0)
(1 8.22969e-15 0)
(1 2.46844e-15 0)
(1 4.66079e-16 0)
(1 1.1406e-15 0)
(1 3.69212e-15 0)
(1 -6.23214e-15 0)
(1 5.16451e-15 0)
(1 5.86779e-15 0)
(1 2.75352e-15 0)
(1 3.34266e-15 0)
(1 8.84404e-15 0)
(1 4.6941e-15 0)
(1 1.15588e-14 0)
(1 3.75151e-15 0)
(1 5.80273e-15 0)
(1 5.39803e-15 0)
(1 8.48007e-15 0)
(1 5.27586e-15 0)
(1 1.24702e-14 0)
(1 8.32445e-15 0)
(1 6.01471e-15 0)
(1 2.09568e-15 0)
(1 9.68235e-15 0)
(1 1.00717e-14 0)
(1 9.4013e-16 0)
(1 3.29538e-15 0)
(1 9.09538e-16 0)
(1 3.95391e-15 0)
(1 2.21515e-15 0)
(1 -5.59499e-15 0)
(1 -2.65854e-15 0)
(1 -5.96288e-15 0)
(1 -1.63315e-15 0)
(1 2.76429e-15 0)
(1 9.84589e-15 0)
(1 3.93049e-15 0)
(1 9.15981e-15 0)
(1 5.60969e-15 0)
(1 7.67263e-15 0)