/*--------------------------------*- C++ -*----------------------------------*\
| =========                 |                                                 |
| \\      /  F ield         | OpenFOAM: The Open Source CFD Toolbox           |
|  \\    /   O peration     | Version:  v2012                                 |
|   \\  /    A nd           | Website:  www.openfoam.com                      |
|    \\/     M anipulation  |                                                 |
\*---------------------------------------------------------------------------*/
FoamFile
{
    version     2.0;
    format      ascii;
    class       volScalarField;
    location    "11.5";
    object      Psi_z;
}
// * * * * * * * * * * * * * * * * * * * * * * * * * * * * * * * * * * * * * //

dimensions      [0 2 -1 0 0 0 0];


internalField   nonuniform List<scalar> 
65536
(
9.05371e-06
2.71615e-05
4.52706e-05
6.33815e-05
8.14952e-05
9.96123e-05
0.000117734
0.00013586
0.000153992
0.00017213
0.000190275
0.000208428
0.000226588
0.000244758
0.000262936
0.000281124
0.000299321
0.000317529
0.000335748
0.000353977
0.000372216
0.000390467
0.000408728
0.000427
0.000445282
0.000463574
0.000481876
0.000500188
0.000518508
0.000536836
0.000555171
0.000573513
0.000591859
0.00061021
0.000628564
0.000646919
0.000665274
0.000683627
0.000701977
0.000720321
0.000738657
0.000756983
0.000775297
0.000793595
0.000811876
0.000830137
0.000848373
0.000866583
0.000884762
0.000902908
0.000921015
0.000939081
0.000957101
0.00097507
0.000992986
0.00101084
0.00102863
0.00104636
0.001064
0.00108157
0.00109906
0.00111645
0.00113374
0.00115094
0.00116802
0.00118499
0.00120183
0.00121855
0.00123513
0.00125157
0.00126786
0.001284
0.00129997
0.00131576
0.00133138
0.00134681
0.00136205
0.00137709
0.00139192
0.00140653
0.00142091
0.00143506
0.00144897
0.00146263
0.00147604
0.00148918
0.00150205
0.00151463
0.00152693
0.00153894
0.00155065
0.00156204
0.00157312
0.00158388
0.0015943
0.00160439
0.00161414
0.00162353
0.00163257
0.00164125
0.00164957
0.00165751
0.00166508
0.00167226
0.00167906
0.00168548
0.00169149
0.00169711
0.00170234
0.00170716
0.00171157
0.00171558
0.00171918
0.00172237
0.00172514
0.00172751
0.00172947
0.00173101
0.00173214
0.00173286
0.00173317
0.00173308
0.00173257
0.00173166
0.00173035
0.00172864
0.00172654
0.00172404
0.00172115
0.00171787
0.00171422
0.00171018
0.00170578
0.001701
0.00169586
0.00169037
0.00168452
0.00167833
0.0016718
0.00166493
0.00165774
0.00165022
0.00164239
0.00163425
0.0016258
0.00161706
0.00160804
0.00159873
0.00158914
0.00157929
0.00156917
0.0015588
0.00154819
0.00153733
0.00152624
0.00151493
0.00150339
0.00149164
0.00147969
0.00146754
0.00145519
0.00144266
0.00142995
0.00141707
0.00140402
0.00139081
0.00137745
0.00136394
0.00135029
0.0013365
0.00132259
0.00130855
0.00129439
0.00128012
0.00126574
0.00125125
0.00123667
0.001222
0.00120724
0.00119239
0.00117747
0.00116247
0.0011474
0.00113226
0.00111707
0.00110181
0.0010865
0.00107114
0.00105574
0.00104028
0.00102479
0.00100926
0.000993698
0.000978103
0.000962478
0.000946827
0.000931152
0.000915457
0.000899742
0.000884011
0.000868265
0.000852506
0.000836737
0.000820959
0.000805174
0.000789383
0.000773588
0.000757791
0.000741993
0.000726194
0.000710397
0.000694602
0.000678811
0.000663023
0.000647241
0.000631465
0.000615696
0.000599933
0.000584179
0.000568433
0.000552697
0.000536969
0.000521251
0.000505544
0.000489846
0.000474159
0.000458482
0.000442816
0.000427161
0.000411517
0.000395883
0.00038026
0.000364647
0.000349045
0.000333452
0.00031787
0.000302297
0.000286734
0.00027118
0.000255634
0.000240097
0.000224568
0.000209046
0.000193532
0.000178024
0.000162522
0.000147026
0.000131535
0.000116049
0.000100568
8.50895e-05
6.96144e-05
5.41419e-05
3.86714e-05
2.32023e-05
7.73399e-06
2.71608e-05
8.14835e-05
0.00013581
0.000190142
0.000244482
0.000298833
0.000353196
0.000407574
0.000461969
0.000516383
0.000570818
0.000625275
0.000679757
0.000734264
0.000788799
0.000843362
0.000897955
0.000952578
0.00100723
0.00106192
0.00111664
0.00117139
0.00122617
0.00128099
0.00133584
0.00139071
0.00144562
0.00150056
0.00155552
0.0016105
0.00166551
0.00172053
0.00177558
0.00183063
0.00188569
0.00194076
0.00199582
0.00205089
0.00210594
0.00216097
0.00221598
0.00227096
0.00232591
0.00238081
0.00243565
0.00249044
0.00254515
0.00259978
0.00265432
0.00270876
0.00276309
0.00281729
0.00287135
0.00292527
0.00297902
0.00303259
0.00308597
0.00313914
0.00319209
0.0032448
0.00329726
0.00334944
0.00340134
0.00345292
0.00350418
0.00355509
0.00360563
0.00365579
0.00370554
0.00375487
0.00380375
0.00385215
0.00390007
0.00394747
0.00399433
0.00404064
0.00408636
0.00413148
0.00417596
0.0042198
0.00426296
0.00430542
0.00434716
0.00438815
0.00442837
0.0044678
0.00450641
0.00454419
0.0045811
0.00461713
0.00465225
0.00468644
0.00471968
0.00475196
0.00478324
0.00481351
0.00484276
0.00487095
0.00489808
0.00492413
0.00494908
0.00497291
0.00499562
0.00501718
0.00503758
0.00505682
0.00507487
0.00509174
0.00510741
0.00512187
0.00513511
0.00514714
0.00515794
0.00516751
0.00517584
0.00518295
0.00518881
0.00519344
0.00519683
0.00519899
0.00519993
0.00519963
0.00519812
0.00519539
0.00519146
0.00518632
0.00518
0.0051725
0.00516383
0.005154
0.00514302
0.00513092
0.00511769
0.00510337
0.00508795
0.00507146
0.00505392
0.00503534
0.00501573
0.00499513
0.00497353
0.00495098
0.00492747
0.00490304
0.0048777
0.00485148
0.00482439
0.00479645
0.00476769
0.00473812
0.00470777
0.00467666
0.0046448
0.00461223
0.00457895
0.00454499
0.00451038
0.00447513
0.00443926
0.0044028
0.00436576
0.00432816
0.00429002
0.00425137
0.00421222
0.00417259
0.0041325
0.00409196
0.00405101
0.00400964
0.00396789
0.00392576
0.00388328
0.00384045
0.00379731
0.00375385
0.00371011
0.00366608
0.00362179
0.00357725
0.00353247
0.00348747
0.00344226
0.00339685
0.00335126
0.00330549
0.00325956
0.00321347
0.00316725
0.00312089
0.00307441
0.00302782
0.00298112
0.00293433
0.00288746
0.0028405
0.00279348
0.00274639
0.00269924
0.00265205
0.00260481
0.00255753
0.00251022
0.00246288
0.00241553
0.00236815
0.00232077
0.00227337
0.00222598
0.00217858
0.00213119
0.0020838
0.00203643
0.00198906
0.00194172
0.00189439
0.00184708
0.00179979
0.00175253
0.00170529
0.00165808
0.0016109
0.00156374
0.00151662
0.00146953
0.00142247
0.00137544
0.00132844
0.00128147
0.00123454
0.00118764
0.00114077
0.00109393
0.00104712
0.00100035
0.0009536
0.000906882
0.000860192
0.00081353
0.000766894
0.000720283
0.000673695
0.000627131
0.000580588
0.000534065
0.00048756
0.000441073
0.000394602
0.000348144
0.000301699
0.000255265
0.000208841
0.000162424
0.000116013
6.96059e-05
2.32017e-05
4.52667e-05
0.000135802
0.000226343
0.000316894
0.000407459
0.000498041
0.000588644
0.000679272
0.000769928
0.000860616
0.000951338
0.0010421
0.0011329
0.00122374
0.00131463
0.00140557
0.00149656
0.0015876
0.00167869
0.00176983
0.00186103
0.00195228
0.00204359
0.00213495
0.00222636
0.00231782
0.00240934
0.0025009
0.0025925
0.00268414
0.00277583
0.00286754
0.00295928
0.00305104
0.00314281
0.0032346
0.00332638
0.00341816
0.00350991
0.00360164
0.00369334
0.00378498
0.00387656
0.00396807
0.00405949
0.0041508
0.004242
0.00433307
0.00442398
0.00451473
0.00460528
0.00469563
0.00478576
0.00487563
0.00496523
0.00505453
0.00514351
0.00523215
0.00532042
0.00540829
0.00549574
0.00558273
0.00566924
0.00575523
0.00584068
0.00592555
0.00600982
0.00609344
0.00617638
0.00625861
0.0063401
0.0064208
0.00650068
0.00657971
0.00665784
0.00673504
0.00681127
0.00688649
0.00696067
0.00703375
0.00710571
0.00717651
0.00724609
0.00731444
0.0073815
0.00744724
0.00751162
0.0075746
0.00763615
0.00769622
0.00775478
0.00781179
0.00786722
0.00792103
0.00797319
0.00802366
0.00807242
0.00811944
0.00816467
0.0082081
0.0082497
0.00828944
0.0083273
0.00836325
0.00839727
0.00842934
0.00845945
0.00848757
0.00851369
0.0085378
0.00855988
0.00857993
0.00859793
0.00861388
0.00862778
0.00863962
0.00864939
0.0086571
0.00866276
0.00866636
0.0086679
0.00866741
0.00866488
0.00866032
0.00865376
0.00864519
0.00863464
0.00862213
0.00860766
0.00859127
0.00857296
0.00855277
0.00853071
0.00850682
0.00848111
0.00845361
0.00842435
0.00839336
0.00836067
0.0083263
0.0082903
0.00825268
0.00821348
0.00817274
0.00813049
0.00808676
0.00804159
0.007995
0.00794704
0.00789774
0.00784713
0.00779525
0.00774214
0.00768782
0.00763234
0.00757572
0.00751801
0.00745924
0.00739943
0.00733864
0.00727688
0.00721419
0.00715061
0.00708617
0.0070209
0.00695483
0.00688799
0.00682041
0.00675213
0.00668317
0.00661356
0.00654333
0.00647251
0.00640112
0.00632919
0.00625675
0.00618382
0.00611043
0.00603659
0.00596234
0.0058877
0.00581269
0.00573732
0.00566163
0.00558563
0.00550933
0.00543277
0.00535595
0.00527889
0.00520162
0.00512414
0.00504648
0.00496865
0.00489065
0.00481252
0.00473425
0.00465587
0.00457737
0.00449879
0.00442012
0.00434138
0.00426258
0.00418373
0.00410483
0.00402589
0.00394693
0.00386795
0.00378896
0.00370996
0.00363096
0.00355197
0.00347299
0.00339403
0.00331509
0.00323617
0.00315729
0.00307844
0.00299963
0.00292085
0.00284212
0.00276343
0.0026848
0.00260621
0.00252767
0.00244918
0.00237074
0.00229236
0.00221403
0.00213575
0.00205753
0.00197936
0.00190124
0.00182318
0.00174517
0.00166721
0.0015893
0.00151144
0.00143362
0.00135585
0.00127813
0.00120044
0.0011228
0.00104519
0.000967624
0.000890087
0.000812581
0.000735104
0.000657654
0.000580226
0.00050282
0.000425432
0.000348059
0.0002707
0.00019335
0.000116007
3.86685e-05
6.33706e-05
0.000190115
0.000316867
0.000443633
0.000570418
0.000697228
0.000824067
0.000950941
0.00107786
0.00120481
0.00133182
0.00145888
0.001586
0.00171318
0.00184042
0.00196773
0.00209511
0.00222256
0.00235009
0.00247769
0.00260536
0.00273312
0.00286095
0.00298885
0.00311683
0.00324488
0.00337301
0.00350119
0.00362944
0.00375775
0.00388611
0.00401452
0.00414296
0.00427143
0.00439993
0.00452844
0.00465695
0.00478544
0.00491392
0.00504235
0.00517074
0.00529906
0.00542729
0.00555542
0.00568343
0.00581129
0.00593899
0.00606651
0.00619381
0.00632088
0.00644769
0.00657421
0.00670041
0.00682626
0.00695173
0.00707679
0.0072014
0.00732553
0.00744915
0.0075722
0.00769467
0.0078165
0.00793765
0.00805809
0.00817776
0.00829663
0.00841464
0.00853176
0.00864793
0.0087631
0.00887723
0.00899027
0.00910216
0.00921285
0.00932228
0.00943042
0.00953719
0.00964256
0.00974645
0.00984883
0.00994963
0.0100488
0.0101463
0.010242
0.010336
0.010428
0.0105182
0.0106065
0.0106927
0.0107768
0.0108589
0.0109387
0.0110164
0.0110918
0.0111648
0.0112355
0.0113038
0.0113697
0.0114331
0.0114939
0.0115522
0.0116079
0.0116609
0.0117112
0.0117589
0.0118038
0.011846
0.0118854
0.011922
0.0119558
0.0119867
0.0120148
0.01204
0.0120623
0.0120818
0.0120983
0.012112
0.0121228
0.0121307
0.0121358
0.0121379
0.0121372
0.0121337
0.0121273
0.0121181
0.012106
0.0120913
0.0120737
0.0120534
0.0120304
0.0120048
0.0119765
0.0119456
0.0119121
0.0118761
0.0118375
0.0117965
0.0117531
0.0117073
0.0116591
0.0116087
0.011556
0.011501
0.011444
0.0113848
0.0113235
0.0112602
0.0111949
0.0111277
0.0110587
0.0109878
0.0109151
0.0108407
0.0107646
0.0106869
0.0106075
0.0105267
0.0104444
0.0103606
0.0102754
0.0101889
0.0101011
0.0100121
0.0099218
0.00983038
0.00973783
0.00964422
0.00954957
0.00945393
0.00935734
0.00925985
0.00916149
0.0090623
0.00896232
0.00886158
0.00876013
0.00865799
0.00855521
0.00845181
0.00834783
0.0082433
0.00813825
0.00803271
0.00792672
0.00782028
0.00771345
0.00760623
0.00749866
0.00739076
0.00728255
0.00717406
0.00706532
0.00695633
0.00684712
0.00673771
0.00662812
0.00651836
0.00640846
0.00629842
0.00618827
0.00607802
0.00596769
0.00585728
0.00574681
0.00563629
0.00552573
0.00541515
0.00530455
0.00519394
0.00508334
0.00497274
0.00486216
0.00475161
0.00464109
0.0045306
0.00442016
0.00430976
0.00419942
0.00408913
0.00397891
0.00386874
0.00375865
0.00364862
0.00353866
0.00342877
0.00331896
0.00320922
0.00309956
0.00298998
0.00288047
0.00277103
0.00266167
0.00255238
0.00244317
0.00233403
0.00222495
0.00211595
0.00200701
0.00189813
0.00178932
0.00168057
0.00157187
0.00146322
0.00135463
0.00124608
0.00113757
0.00102911
0.000920682
0.000812287
0.000703922
0.000595583
0.000487265
0.000378965
0.00027068
0.000162404
5.41339e-05
8.14718e-05
0.000244419
0.000407377
0.000570352
0.000733353
0.000896385
0.00105946
0.00122257
0.00138574
0.00154896
0.00171225
0.00187561
0.00203904
0.00220255
0.00236614
0.00252982
0.00269359
0.00285745
0.00302141
0.00318547
0.00334962
0.00351388
0.00367823
0.00384268
0.00400723
0.00417188
0.00433661
0.00450143
0.00466633
0.00483131
0.00499635
0.00516146
0.00532661
0.00549181
0.00565703
0.00582228
0.00598752
0.00615275
0.00631796
0.00648312
0.00664821
0.00681322
0.00697812
0.00714289
0.00730751
0.00747194
0.00763617
0.00780016
0.00796388
0.0081273
0.00829038
0.0084531
0.00861541
0.00877727
0.00893865
0.0090995
0.00925977
0.00941943
0.00957843
0.00973671
0.00989423
0.0100509
0.0102068
0.0103617
0.0105156
0.0106686
0.0108204
0.010971
0.0111205
0.0112686
0.0114155
0.0115609
0.0117048
0.0118472
0.011988
0.0121272
0.0122645
0.0124001
0.0125338
0.0126655
0.0127952
0.0129228
0.0130482
0.0131714
0.0132923
0.0134108
0.0135268
0.0136403
0.0137513
0.0138595
0.0139651
0.0140679
0.0141678
0.0142648
0.0143588
0.0144498
0.0145377
0.0146225
0.014704
0.0147823
0.0148573
0.0149289
0.0149971
0.0150619
0.0151233
0.0151811
0.0152353
0.015286
0.0153331
0.0153765
0.0154163
0.0154525
0.0154849
0.0155136
0.0155387
0.01556
0.0155776
0.0155914
0.0156016
0.0156081
0.0156108
0.0156099
0.0156053
0.015597
0.0155852
0.0155697
0.0155506
0.015528
0.0155019
0.0154723
0.0154393
0.0154028
0.015363
0.0153199
0.0152735
0.0152239
0.0151711
0.0151152
0.0150562
0.0149942
0.0149293
0.0148615
0.0147908
0.0147173
0.0146411
0.0145622
0.0144808
0.0143968
0.0143103
0.0142214
0.0141302
0.0140366
0.0139409
0.013843
0.013743
0.0136409
0.0135369
0.0134309
0.0133232
0.0132136
0.0131023
0.0129893
0.0128747
0.0127586
0.012641
0.0125219
0.0124015
0.0122797
0.0121567
0.0120324
0.011907
0.0117805
0.0116529
0.0115243
0.0113947
0.0112642
0.0111328
0.0110006
0.0108676
0.0107339
0.0105994
0.0104643
0.0103286
0.0101922
0.0100553
0.00991794
0.00978005
0.0096417
0.00950293
0.00936377
0.00922425
0.00908439
0.00894423
0.00880378
0.00866308
0.00852215
0.008381
0.00823967
0.00809817
0.00795653
0.00781475
0.00767287
0.00753089
0.00738884
0.00724672
0.00710456
0.00696237
0.00682015
0.00667793
0.00653571
0.0063935
0.00625131
0.00610916
0.00596705
0.00582499
0.00568298
0.00554104
0.00539916
0.00525735
0.00511563
0.00497399
0.00483243
0.00469096
0.00454958
0.0044083
0.00426711
0.00412602
0.00398502
0.00384413
0.00370333
0.00356263
0.00342202
0.00328151
0.00314109
0.00300077
0.00286054
0.00272039
0.00258033
0.00244035
0.00230045
0.00216063
0.00202088
0.0018812
0.00174158
0.00160203
0.00146253
0.00132308
0.00118368
0.00104432
0.000904999
0.000765712
0.000626453
0.000487217
0.000348
0.000208795
6.95973e-05
9.95693e-05
0.000298712
0.000497869
0.000697047
0.000896256
0.0010955
0.0012948
0.00149415
0.00169356
0.00189305
0.00209261
0.00229226
0.002492
0.00269183
0.00289177
0.00309182
0.00329197
0.00349225
0.00369264
0.00389315
0.00409378
0.00429454
0.00449542
0.00469642
0.00489754
0.00509878
0.00530013
0.00550158
0.00570314
0.00590479
0.00610653
0.00630834
0.00651022
0.00671215
0.00691412
0.00711611
0.00731811
0.00752009
0.00772204
0.00792394
0.00812577
0.00832749
0.00852908
0.00873052
0.00893177
0.0091328
0.00933358
0.00953408
0.00973424
0.00993405
0.0101334
0.0103324
0.0105309
0.0107288
0.0109261
0.0111228
0.0113188
0.011514
0.0117084
0.011902
0.0120946
0.0122863
0.0124768
0.0126663
0.0128546
0.0130416
0.0132272
0.0134115
0.0135943
0.0137755
0.0139551
0.014133
0.014309
0.0144832
0.0146555
0.0148256
0.0149937
0.0151595
0.015323
0.0154842
0.0156428
0.0157989
0.0159524
0.0161031
0.0162509
0.0163959
0.0165379
0.0166768
0.0168125
0.016945
0.0170741
0.0171999
0.0173221
0.0174408
0.0175558
0.0176672
0.0177747
0.0178784
0.0179782
0.018074
0.0181657
0.0182534
0.0183368
0.0184161
0.0184911
0.0185619
0.0186283
0.0186903
0.0187478
0.018801
0.0188497
0.0188938
0.0189335
0.0189687
0.0189993
0.0190253
0.0190468
0.0190638
0.0190762
0.019084
0.0190874
0.0190862
0.0190806
0.0190704
0.0190559
0.0190369
0.0190135
0.0189858
0.0189539
0.0189176
0.0188771
0.0188325
0.0187838
0.018731
0.0186742
0.0186134
0.0185488
0.0184804
0.0184082
0.0183323
0.0182528
0.0181698
0.0180833
0.0179933
0.0179001
0.0178036
0.0177039
0.0176011
0.0174953
0.0173865
0.0172749
0.0171604
0.0170433
0.0169235
0.0168011
0.0166762
0.016549
0.0164194
0.0162875
0.0161535
0.0160173
0.0158791
0.0157389
0.0155969
0.015453
0.0153074
0.0151601
0.0150111
0.0148606
0.0147087
0.0145553
0.0144005
0.0142445
0.0140872
0.0139287
0.0137691
0.0136085
0.0134468
0.0132842
0.0131206
0.0129562
0.012791
0.012625
0.0124583
0.0122909
0.0121229
0.0119543
0.0117852
0.0116155
0.0114453
0.0112748
0.0111038
0.0109324
0.0107607
0.0105887
0.0104164
0.0102438
0.0100711
0.00989807
0.00972491
0.00955159
0.00937814
0.00920458
0.00903093
0.00885721
0.00868342
0.0085096
0.00833576
0.00816191
0.00798806
0.00781423
0.00764043
0.00746667
0.00729296
0.00711932
0.00694574
0.00677224
0.00659882
0.0064255
0.00625227
0.00607914
0.00590612
0.00573321
0.00556041
0.00538773
0.00521516
0.00504271
0.00487039
0.00469818
0.00452609
0.00435412
0.00418228
0.00401054
0.00383893
0.00366743
0.00349603
0.00332475
0.00315357
0.00298249
0.00281151
0.00264063
0.00246983
0.00229911
0.00212848
0.00195792
0.00178743
0.001617
0.00144663
0.00127631
0.00110604
0.000935813
0.000765618
0.000595451
0.000425307
0.000255178
8.50582e-05
0.000117663
0.000352993
0.000588339
0.000823711
0.00105912
0.00129457
0.00153009
0.00176566
0.00200132
0.00223705
0.00247289
0.00270882
0.00294486
0.00318102
0.00341729
0.0036537
0.00389024
0.00412692
0.00436374
0.00460071
0.00483782
0.00507508
0.00531248
0.00555003
0.00578773
0.00602556
0.00626353
0.00650163
0.00673986
0.00697819
0.00721663
0.00745517
0.00769378
0.00793246
0.00817118
0.00840994
0.00864871
0.00888746
0.00912618
0.00936485
0.00960342
0.00984188
0.0100802
0.0103183
0.0105562
0.0107939
0.0110313
0.0112683
0.011505
0.0117412
0.011977
0.0122122
0.0124468
0.0126809
0.0129142
0.0131467
0.0133785
0.0136094
0.0138393
0.0140682
0.014296
0.0145226
0.014748
0.0149721
0.0151948
0.0154159
0.0156355
0.0158535
0.0160697
0.016284
0.0164965
0.0167069
0.0169151
0.0171212
0.0173249
0.0175262
0.017725
0.0179212
0.0181147
0.0183053
0.018493
0.0186777
0.0188593
0.0190376
0.0192125
0.0193841
0.0195521
0.0197164
0.019877
0.0200338
0.0201866
0.0203354
0.02048
0.0206205
0.0207566
0.0208883
0.0210156
0.0211383
0.0212563
0.0213697
0.0214783
0.021582
0.0216807
0.0217746
0.0218633
0.021947
0.0220255
0.0220989
0.022167
0.0222299
0.0222875
0.0223397
0.0223867
0.0224282
0.0224644
0.0224952
0.0225206
0.0225406
0.0225553
0.0225645
0.0225685
0.022567
0.0225603
0.0225483
0.022531
0.0225085
0.0224808
0.022448
0.0224101
0.0223671
0.0223192
0.0222663
0.0222086
0.0221461
0.0220788
0.0220069
0.0219304
0.0218493
0.0217638
0.021674
0.0215799
0.0214816
0.0213792
0.0212727
0.0211624
0.0210481
0.0209301
0.0208085
0.0206832
0.0205545
0.0204224
0.0202869
0.0201483
0.0200065
0.0198617
0.019714
0.0195634
0.0194101
0.019254
0.0190954
0.0189344
0.0187709
0.018605
0.018437
0.0182668
0.0180945
0.0179203
0.0177441
0.0175661
0.0173864
0.0172049
0.0170219
0.0168373
0.0166513
0.0164639
0.0162751
0.0160851
0.015894
0.0157016
0.0155082
0.0153138
0.0151184
0.0149222
0.0147251
0.0145271
0.0143285
0.0141291
0.0139291
0.0137285
0.0135274
0.0133257
0.0131235
0.0129209
0.0127179
0.0125146
0.0123109
0.0121069
0.0119026
0.0116981
0.0114934
0.0112886
0.0110835
0.0108784
0.0106731
0.0104677
0.0102623
0.0100569
0.00985138
0.00964588
0.0094404
0.00923493
0.00902951
0.00882413
0.00861882
0.00841358
0.00820842
0.00800336
0.0077984
0.00759355
0.00738881
0.00718419
0.0069797
0.00677535
0.00657112
0.00636704
0.00616309
0.00595929
0.00575563
0.00555211
0.00534874
0.00514551
0.00494241
0.00473946
0.00453665
0.00433397
0.00413142
0.003929
0.00372671
0.00352454
0.00332248
0.00312053
0.00291869
0.00271695
0.0025153
0.00231374
0.00211226
0.00191086
0.00170953
0.00150826
0.00130705
0.00110588
0.000904755
0.000703663
0.000502598
0.000301551
0.000100516
0.00013575
0.000407257
0.000678783
0.000950339
0.00122194
0.00149359
0.00176531
0.0020371
0.00230899
0.00258097
0.00285306
0.00312527
0.0033976
0.00367008
0.00394269
0.00421545
0.00448838
0.00476146
0.0050347
0.00530812
0.00558171
0.00585547
0.0061294
0.0064035
0.00667778
0.00695222
0.00722681
0.00750156
0.00777646
0.00805149
0.00832665
0.00860191
0.00887727
0.00915272
0.00942822
0.00970376
0.00997932
0.0102549
0.0105304
0.0108058
0.0110812
0.0113564
0.0116315
0.0119064
0.012181
0.0124553
0.0127293
0.0130029
0.0132761
0.0135488
0.013821
0.0140926
0.0143635
0.0146336
0.014903
0.0151715
0.0154391
0.0157057
0.0159712
0.0162355
0.0164985
0.0167602
0.0170205
0.0172793
0.0175364
0.0177919
0.0180455
0.0182972
0.0185469
0.0187945
0.0190398
0.0192829
0.0195234
0.0197615
0.0199968
0.0202294
0.020459
0.0206857
0.0209092
0.0211294
0.0213463
0.0215596
0.0217694
0.0219754
0.0221776
0.0223758
0.0225699
0.0227598
0.0229453
0.0231265
0.0233031
0.023475
0.0236421
0.0238044
0.0239617
0.024114
0.024261
0.0244028
0.0245392
0.0246702
0.0247956
0.0249155
0.0250296
0.025138
0.0252406
0.0253373
0.025428
0.0255128
0.0255915
0.0256641
0.0257306
0.025791
0.0258452
0.0258932
0.0259349
0.0259705
0.0259998
0.0260229
0.0260398
0.0260504
0.0260549
0.0260532
0.0260453
0.0260314
0.0260113
0.0259853
0.0259532
0.0259152
0.0258713
0.0258216
0.0257661
0.025705
0.0256382
0.0255659
0.0254881
0.0254049
0.0253164
0.0252227
0.0251239
0.02502
0.0249112
0.0247975
0.0246791
0.0245561
0.0244285
0.0242964
0.02416
0.0240194
0.0238747
0.0237259
0.0235732
0.0234167
0.0232564
0.0230926
0.0229253
0.0227546
0.0225806
0.0224034
0.0222232
0.0220399
0.0218538
0.0216649
0.0214734
0.0212793
0.0210826
0.0208837
0.0206824
0.0204789
0.0202733
0.0200657
0.0198562
0.0196448
0.0194316
0.0192168
0.0190004
0.0187824
0.018563
0.0183422
0.0181202
0.0178968
0.0176724
0.0174468
0.0172202
0.0169926
0.0167641
0.0165348
0.0163046
0.0160737
0.0158421
0.0156099
0.0153771
0.0151437
0.0149099
0.0146755
0.0144408
0.0142057
0.0139702
0.0137345
0.0134984
0.0132622
0.0130257
0.012789
0.0125523
0.0123153
0.0120783
0.0118413
0.0116042
0.011367
0.0111299
0.0108927
0.0106556
0.0104185
0.0101815
0.0099446
0.00970776
0.00947101
0.00923438
0.00899786
0.00876148
0.00852523
0.00828912
0.00805316
0.00781735
0.0075817
0.00734621
0.00711089
0.00687572
0.00664073
0.0064059
0.00617124
0.00593674
0.00570241
0.00546824
0.00523424
0.00500038
0.00476668
0.00453313
0.00429973
0.00406646
0.00383333
0.00360033
0.00336745
0.00313469
0.00290203
0.00266948
0.00243702
0.00220466
0.00197237
0.00174015
0.001508
0.00127591
0.00104386
0.000811849
0.00057987
0.000347913
0.00011597
0.000153832
0.000461504
0.000769196
0.00107692
0.0013847
0.00169254
0.00200045
0.00230845
0.00261656
0.00292477
0.00323312
0.00354159
0.00385022
0.00415899
0.00446794
0.00477705
0.00508635
0.00539583
0.0057055
0.00601536
0.00632543
0.00663569
0.00694615
0.00725681
0.00756766
0.00787871
0.00818994
0.00850135
0.00881293
0.00912466
0.00943655
0.00974856
0.0100607
0.0103729
0.0106852
0.0109976
0.0113099
0.0116223
0.0119346
0.0122469
0.0125591
0.0128711
0.013183
0.0134946
0.013806
0.0141171
0.0144277
0.014738
0.0150478
0.015357
0.0156656
0.0159736
0.0162808
0.0165872
0.0168927
0.0171973
0.0175007
0.0178031
0.0181042
0.018404
0.0187024
0.0189993
0.0192945
0.0195881
0.0198798
0.0201696
0.0204573
0.0207429
0.0210262
0.0213072
0.0215856
0.0218613
0.0221343
0.0224044
0.0226715
0.0229354
0.023196
0.0234533
0.0237069
0.0239569
0.024203
0.0244452
0.0246833
0.0249171
0.0251466
0.0253716
0.0255919
0.0258074
0.0260181
0.0262237
0.0264242
0.0266194
0.0268091
0.0269934
0.0271719
0.0273448
0.0275117
0.0276727
0.0278275
0.0279762
0.0281187
0.0282547
0.0283843
0.0285073
0.0286238
0.0287335
0.0288365
0.0289327
0.029022
0.0291045
0.0291799
0.0292484
0.0293099
0.0293643
0.0294117
0.029452
0.0294852
0.0295114
0.0295304
0.0295425
0.0295475
0.0295455
0.0295365
0.0295205
0.0294977
0.029468
0.0294315
0.0293883
0.0293384
0.0292819
0.0292188
0.0291493
0.0290734
0.0289912
0.0289027
0.0288082
0.0287077
0.0286012
0.0284889
0.0283709
0.0282473
0.0281182
0.0279837
0.0278439
0.027699
0.0275491
0.0273942
0.0272345
0.0270701
0.0269012
0.0267278
0.0265501
0.0263682
0.0261822
0.0259923
0.0257985
0.025601
0.0253998
0.0251952
0.0249873
0.0247761
0.0245617
0.0243443
0.024124
0.0239009
0.0236751
0.0234467
0.0232158
0.0229825
0.022747
0.0225093
0.0222694
0.0220276
0.0217839
0.0215384
0.0212911
0.0210423
0.0207918
0.0205399
0.0202866
0.020032
0.0197762
0.0195192
0.0192611
0.0190019
0.0187418
0.0184808
0.018219
0.0179564
0.017693
0.017429
0.0171644
0.0168992
0.0166335
0.0163674
0.0161008
0.0158338
0.0155665
0.0152989
0.0150311
0.014763
0.0144947
0.0142263
0.0139577
0.013689
0.0134203
0.0131515
0.0128826
0.0126138
0.012345
0.0120762
0.0118075
0.0115389
0.0112703
0.0110018
0.0107335
0.0104653
0.0101972
0.00992928
0.0096615
0.0093939
0.00912646
0.0088592
0.00859212
0.00832522
0.00805851
0.00779199
0.00752566
0.00725952
0.00699358
0.00672782
0.00646225
0.00619687
0.00593167
0.00566664
0.0054018
0.00513712
0.00487261
0.00460826
0.00434406
0.00408001
0.00381609
0.00355232
0.00328866
0.00302513
0.0027617
0.00249837
0.00223513
0.00197198
0.0017089
0.00144588
0.00118292
0.000920004
0.000657121
0.000394263
0.000131419
0.000171907
0.000515729
0.000859575
0.00120346
0.0015474
0.00189141
0.00223551
0.0025797
0.00292402
0.00326846
0.00361304
0.00395777
0.00430267
0.00464775
0.00499301
0.00533847
0.00568413
0.00603
0.00637609
0.00672241
0.00706894
0.00741571
0.0077627
0.00810991
0.00845735
0.00880501
0.00915289
0.00950096
0.00984924
0.0101977
0.0105463
0.0108951
0.011244
0.011593
0.0119422
0.0122913
0.0126406
0.0129898
0.013339
0.0136881
0.0140371
0.014386
0.0147347
0.0150832
0.0154313
0.0157792
0.0161266
0.0164735
0.01682
0.0171658
0.017511
0.0178554
0.018199
0.0185417
0.0188834
0.019224
0.0195635
0.0199017
0.0202386
0.020574
0.0209078
0.0212399
0.0215703
0.0218987
0.0222251
0.0225494
0.0228714
0.0231909
0.023508
0.0238224
0.0241339
0.0244425
0.0247481
0.0250504
0.0253493
0.0256447
0.0259365
0.0262244
0.0265083
0.0267882
0.0270637
0.0273348
0.0276014
0.0278632
0.0281201
0.028372
0.0286187
0.02886
0.0290959
0.0293262
0.0295506
0.0297692
0.0299817
0.030188
0.0303879
0.0305814
0.0307684
0.0309486
0.0311221
0.0312886
0.031448
0.0316004
0.0317455
0.0318832
0.0320136
0.0321365
0.0322518
0.0323595
0.0324595
0.0325517
0.0326362
0.0327129
0.0327816
0.0328425
0.0328955
0.0329406
0.0329777
0.0330069
0.0330282
0.0330416
0.0330471
0.0330447
0.0330346
0.0330166
0.0329909
0.0329576
0.0329166
0.0328681
0.0328121
0.0327487
0.0326779
0.0325999
0.0325148
0.0324227
0.0323235
0.0322176
0.0321049
0.0319855
0.0318597
0.0317274
0.0315889
0.0314443
0.0312936
0.031137
0.0309746
0.0308066
0.0306331
0.0304542
0.0302701
0.0300809
0.0298867
0.0296877
0.029484
0.0292758
0.0290631
0.0288461
0.0286249
0.0283998
0.0281707
0.0279379
0.0277014
0.0274615
0.0272181
0.0269715
0.0267218
0.0264691
0.0262135
0.0259551
0.025694
0.0254305
0.0251644
0.0248961
0.0246255
0.0243528
0.0240781
0.0238015
0.0235231
0.0232429
0.0229611
0.0226777
0.0223929
0.0221067
0.0218193
0.0215306
0.0212407
0.0209498
0.0206579
0.020365
0.0200713
0.0197768
0.0194816
0.0191857
0.0188891
0.018592
0.0182944
0.0179963
0.0176978
0.0173989
0.0170997
0.0168002
0.0165005
0.0162005
0.0159004
0.0156001
0.0152998
0.0149993
0.0146988
0.0143983
0.0140977
0.0137972
0.0134968
0.0131964
0.0128961
0.0125959
0.0122958
0.0119958
0.011696
0.0113964
0.0110969
0.0107976
0.0104985
0.0101996
0.00990086
0.00960235
0.00930404
0.00900595
0.00870807
0.00841041
0.00811296
0.00781573
0.00751871
0.0072219
0.00692531
0.00662892
0.00633273
0.00603674
0.00574094
0.00544533
0.0051499
0.00485464
0.00455954
0.00426461
0.00396982
0.00367518
0.00338066
0.00308627
0.00279199
0.00249782
0.00220374
0.00190974
0.00161581
0.00132194
0.00102812
0.000734347
0.000440597
0.000146864
0.000189974
0.00056993
0.000949914
0.00132994
0.00171003
0.0020902
0.00247046
0.00285084
0.00323135
0.00361199
0.0039928
0.00437378
0.00475495
0.00513631
0.00551789
0.00589968
0.00628171
0.00666397
0.00704647
0.00742923
0.00781223
0.0081955
0.00857902
0.0089628
0.00934683
0.00973111
0.0101156
0.0105004
0.0108854
0.0112705
0.0116559
0.0120415
0.0124272
0.0128131
0.013199
0.0135851
0.0139712
0.0143573
0.0147434
0.0151294
0.0155153
0.0159011
0.0162867
0.016672
0.017057
0.0174417
0.0178259
0.0182096
0.0185927
0.0189752
0.019357
0.019738
0.020118
0.0204971
0.0208752
0.021252
0.0216276
0.0220017
0.0223744
0.0227455
0.0231149
0.0234824
0.0238479
0.0242114
0.0245726
0.0249314
0.0252878
0.0256415
0.0259924
0.0263404
0.0266852
0.0270269
0.0273651
0.0276997
0.0280307
0.0283577
0.0286807
0.0289995
0.0293139
0.0296237
0.0299288
0.0302291
0.0305242
0.0308141
0.0310987
0.0313776
0.0316508
0.0319181
0.0321794
0.0324344
0.032683
0.032925
0.0331604
0.0333889
0.0336104
0.0338247
0.0340318
0.0342314
0.0344235
0.0346079
0.0347845
0.0349533
0.035114
0.0352666
0.0354109
0.035547
0.0356747
0.0357939
0.0359047
0.0360068
0.0361003
0.0361852
0.0362613
0.0363286
0.0363872
0.0364371
0.0364781
0.0365104
0.0365338
0.0365486
0.0365545
0.0365518
0.0365404
0.0365204
0.0364918
0.0364548
0.0364092
0.0363553
0.0362932
0.0362228
0.0361443
0.0360578
0.0359633
0.0358611
0.0357512
0.0356337
0.0355087
0.0353764
0.0352368
0.0350902
0.0349367
0.0347763
0.0346093
0.0344358
0.0342558
0.0340697
0.0338774
0.0336792
0.0334753
0.0332656
0.0330505
0.0328301
0.0326044
0.0323737
0.0321382
0.0318978
0.0316529
0.0314036
0.0311499
0.0308921
0.0306303
0.0303646
0.0300952
0.0298222
0.0295458
0.029266
0.0289831
0.028697
0.0284081
0.0281164
0.0278219
0.0275249
0.0272255
0.0269237
0.0266198
0.0263137
0.0260056
0.0256956
0.0253838
0.0250703
0.0247552
0.0244386
0.0241206
0.0238012
0.0234806
0.0231588
0.0228359
0.022512
0.0221871
0.0218614
0.0215348
0.0212076
0.0208796
0.020551
0.0202219
0.0198923
0.0195622
0.0192317
0.0189008
0.0185696
0.0182382
0.0179065
0.0175747
0.0172427
0.0169106
0.0165784