/*--------------------------------*- C++ -*----------------------------------*\
| =========                 |                                                 |
| \\      /  F ield         | OpenFOAM: The Open Source CFD Toolbox           |
|  \\    /   O peration     | Version:  v2012                                 |
|   \\  /    A nd           | Website:  www.openfoam.com                      |
|    \\/     M anipulation  |                                                 |
\*---------------------------------------------------------------------------*/
FoamFile
{
    version     2.0;
    format      ascii;
    class       volVectorField;
    location    "0";
    object      uRec;
}
// * * * * * * * * * * * * * * * * * * * * * * * * * * * * * * * * * * * * * //

dimensions      [0 1 -1 0 0 0 0];


internalField   nonuniform List<vector> 
4000
(
(1 -1.00564e-16 0)
(1 2.80447e-15 0)
(1 2.30208e-15 0)
(1 -8.89592e-16 0)
(1 5.45996e-16 0)
(1 -5.95002e-16 0)
(1 2.61293e-16 0)
(1 -9.53884e-16 0)
(1 -2.57306e-15 0)
(1 1.75278e-15 0)
(1 7.30799e-16 0)
(1 -1.78515e-16 0)
(1 5.17792e-16 0)
(1 -1.59499e-16 0)
(1 1.30052e-15 0)
(1 -2.44903e-15 0)
(1 -2.65661e-15 0)
(1 -1.95496e-15 0)
(1 -1.88473e-16 0)
(1 -2.32563e-15 0)
(1 -2.39539e-15 0)
(1 -1.2567e-16 0)
(1 2.68889e-15 0)
(1 2.25922e-15 0)
(1 2.61871e-15 0)
(1 8.79568e-16 0)
(1 1.28619e-15 0)
(1 -7.93331e-16 0)
(1 -1.48855e-15 0)
(1 -3.08338e-16 0)
(1 -1.45433e-15 0)
(1 -1.36823e-15 0)
(1 -1.7874e-15 0)
(1 -1.79753e-17 0)
(1 2.28564e-15 0)
(1 1.52201e-15 0)
(1 2.50871e-15 0)
(1 1.18779e-15 0)
(1 2.79219e-15 0)
(1 4.1216e-16 0)
(1 3.51284e-16 0)
(1 -1.74023e-15 0)
(1 -1.94403e-16 0)
(1 -2.32091e-15 0)
(1 -3.24375e-16 0)
(1 -6.96285e-16 0)
(1 -6.96398e-16 0)
(1 1.31586e-16 0)
(1 -2.10534e-16 0)
(1 1.58821e-15 0)
(1 5.18287e-17 0)
(1 1.78462e-15 0)
(1 4.3169e-16 0)
(1 5.77094e-16 0)
(1 -7.59573e-16 0)
(1 -1.06581e-15 0)
(1 -1.95015e-15 0)
(1 3.84656e-16 0)
(1 1.24196e-15 0)
(1 4.23473e-15 0)
(1 1.79893e-15 0)
(1 -2.15149e-16 0)
(1 8.8292e-16 0)
(1 5.36692e-16 0)
(1 -4.92039e-16 0)
(1 -1.43021e-15 0)
(1 4.9936e-16 0)
(1 -4.52206e-16 0)
(1 5.92054e-16 0)
(1 -7.05825e-16 0)
(1 -9.79664e-16 0)
(1 -4.63238e-16 0)
(1 1.12478e-16 0)
(1 -1.90321e-15 0)
(1 -1.19044e-15 0)
(1 -1.4072e-15 0)
(1 -2.65552e-16 0)
(1 -5.8734e-16 0)
(1 8.43488e-16 0)
(1 2.17938e-15 0)
(1 4.66781e-16 0)
(1 4.32312e-16 0)
(1 -2.84814e-16 0)
(1 -7.7178e-16 0)
(1 -1.8994e-15 0)
(1 -8.84461e-16 0)
(1 -2.30255e-15 0)
(1 7.57625e-16 0)
(1 2.29743e-15 0)
(1 1.3364e-15 0)
(1 1.96892e-16 0)
(1 -4.44134e-16 0)
(1 -8.73123e-16 0)
(1 1.84699e-16 0)
(1 -1.8157e-15 0)
(1 -2.33493e-15 0)
(1 -1.2406e-15 0)
(1 1.69366e-15 0)
(1 1.28576e-15 0)
(1 4.99946e-17 0)
(1 1.78011e-16 0)
(1 4.47893e-15 0)
(1 2.89638e-15 0)
(1 -2.23362e-15 0)
(1 1.05396e-16 0)
(1 -1.40006e-15 0)
(1 -1.63515e-16 0)
(1 -1.99264e-15 0)
(1 -1.81101e-15 0)
(1 1.29929e-16 0)
(1 8.81918e-16 0)
(1 1.71542e-15 0)
(1 2.53684e-15 0)
(1 1.04202e-15 0)
(1 9.48908e-16 0)
(1 -3.87011e-15 0)
(1 -4.16869e-15 0)
(1 -8.02516e-17 0)
(1 9.11201e-16 0)
(1 -2.28736e-15 0)
(1 -3.26255e-15 0)
(1 -9.81412e-16 0)
(1 6.80703e-16 0)
(1 1.86997e-15 0)
(1 1.37525e-15 0)
(1 1.92133e-16 0)
(1 2.09759e-16 0)
(1 -1.85079e-15 0)
(1 -1.71823e-15 0)
(1 7.48919e-16 0)
(1 5.18769e-17 0)
(1 -3.48988e-17 0)
(1 3.60558e-16 0)
(1 -1.62516e-15 0)
(1 4.85404e-16 0)
(1 -6.87621e-16 0)
(1 1.1238e-15 0)
(1 1.2585e-15 0)
(1 2.92392e-15 0)
(1 1.15283e-15 0)
(1 -8.57078e-16 0)
(1 -6.66839e-16 0)
(1 -1.83647e-15 0)
(1 -3.81843e-15 0)
(1 -1.41735e-15 0)
(1 -2.95119e-15 0)
(1 7.97367e-16 0)
(1 1.12415e-15 0)
(1 2.2361e-15 0)
(1 -1.18965e-15 0)
(1 -1.31181e-15 0)
(1 -5.8788e-16 0)
(1 3.47878e-15 0)
(1 2.6123e-15 0)
(1 2.72979e-15 0)
(1 1.53715e-15 0)
(1 -5.25758e-16 0)
(1 1.23527e-15 0)
(1 -1.0067e-15 0)
(1 -1.45695e-15 0)
(1 -2.38237e-15 0)
(1 -5.31667e-16 0)
(1 9.36922e-16 0)
(1 1.6336e-15 0)
(1 7.27107e-17 0)
(1 -4.71162e-16 0)
(1 -1.14783e-15 0)
(1 -1.35399e-15 0)
(1 -3.42486e-16 0)
(1 -6.2949e-16 0)
(1 -3.62625e-16 0)
(1 1.56139e-15 0)
(1 1.55889e-15 0)
(1 -1.66869e-15 0)
(1 -8.94149e-16 0)
(1 2.46133e-16 0)
(1 4.24448e-16 0)
(1 1.50621e-15 0)
(1 1.81722e-15 0)
(1 2.51873e-15 0)
(1 -7.67705e-17 0)
(1 -2.45453e-15 0)
(1 1.07642e-15 0)
(1 -5.99786e-16 0)
(1 4.19928e-17 0)
(1 2.42154e-16 0)
(1 -1.98086e-15 0)
(1 -3.00973e-15 0)
(1 -6.93891e-16 0)
(1 -4.88843e-16 0)
(1 -7.69246e-16 0)
(1 -1.89402e-15 0)
(1 -6.0201e-16 0)
(1 -1.52838e-16 0)
(1 -3.34557e-15 0)
(1 -2.37859e-15 0)
(1 -7.33714e-16 0)
(1 2.89758e-15 0)
(1 9.42785e-16 0)
(1 2.30458e-17 0)
(1 5.15189e-16 0)
(1 1.14252e-15 0)
(1 -6.94576e-17 0)
(1 3.60351e-16 0)
(1 1.12138e-15 0)
(1 8.26705e-16 0)
(1 1.0343e-15 0)
(1 1.52121e-15 0)
(1 -7.94012e-16 0)
(1 -1.21869e-15 0)
(1 -4.77596e-16 0)
(1 1.56851e-15 0)
(1 3.78897e-15 0)
(1 1.75551e-15 0)
(1 2.91232e-16 0)
(1 -3.21307e-15 0)
(1 -3.3853e-15 0)
(1 -1.85536e-15 0)
(1 -4.61079e-16 0)
(1 1.4603e-15 0)
(1 -1.46748e-15 0)
(1 6.36216e-16 0)
(1 -5.47875e-16 0)
(1 2.71757e-15 0)
(1 2.56338e-15 0)
(1 2.80551e-15 0)
(1 1.86953e-15 0)
(1 -4.41541e-16 0)
(1 -6.09159e-16 0)
(1 -4.25184e-16 0)
(1 1.87309e-15 0)
(1 -2.06322e-15 0)
(1 2.82275e-16 0)
(1 -1.80996e-15 0)
(1 -3.47538e-16 0)
(1 -1.72428e-15 0)
(1 -7.72159e-16 0)
(1 -2.52095e-16 0)
(1 7.68724e-16 0)
(1 1.17094e-15 0)
(1 -1.30777e-15 0)
(1 -3.52607e-16 0)
(1 -2.76866e-15 0)
(1 -3.82208e-15 0)
(1 -2.08778e-15 0)
(1 -1.7152e-15 0)
(1 -1.01612e-15 0)
(1 -5.87595e-16 0)
(1 2.29846e-15 0)
(1 9.80018e-16 0)
(1 6.81504e-16 0)
(1 8.46633e-16 0)
(1 4.84162e-15 0)
(1 2.14968e-15 0)
(1 3.51164e-15 0)
(1 4.15543e-16 0)
(1 2.8654e-16 0)
(1 -1.4781e-15 0)
(1 -1.39124e-15 0)
(1 -2.83803e-15 0)
(1 -3.29389e-16 0)
(1 3.87377e-16 0)
(1 1.31776e-15 0)
(1 1.20275e-16 0)
(1 -8.54467e-16 0)
(1 3.70101e-16 0)
(1 -1.21567e-15 0)
(1 1.33359e-16 0)
(1 -6.16895e-16 0)
(1 7.26648e-16 0)
(1 6.01698e-16 0)
(1 1.94905e-15 0)
(1 1.78577e-15 0)
(1 -4.88156e-16 0)
(1 -1.90761e-15 0)
(1 -9.26803e-16 0)
(1 -5.10847e-16 0)
(1 2.05691e-16 0)
(1 1.04535e-15 0)
(1 -3.12855e-16 0)
(1 -2.45971e-15 0)
(1 -3.32549e-15 0)
(1 -1.43289e-15 0)
(1 -3.88066e-16 0)
(1 2.10291e-16 0)
(1 9.46905e-17 0)
(1 -4.31972e-16 0)
(1 -4.18514e-15 0)
(1 -2.33373e-15 0)
(1 -7.43894e-16 0)
(1 -7.42011e-16 0)
(1 -1.54794e-15 0)
(1 -1.27226e-15 0)
(1 -5.8022e-16 0)
(1 -1.0216e-15 0)
(1 -1.85632e-15 0)
(1 -4.49882e-16 0)
(1 -4.0428e-16 0)
(1 -3.10077e-16 0)
(1 4.00713e-16 0)
(1 1.08376e-15 0)
(1 -1.20557e-16 0)
(1 1.19525e-15 0)
(1 4.07305e-16 0)
(1 1.8773e-16 0)
(1 7.10189e-16 0)
(1 5.03981e-16 0)
(1 1.07175e-15 0)
(1 6.54913e-16 0)
(1 -8.41412e-16 0)
(1 1.71939e-15 0)
(1 3.99347e-15 0)
(1 3.72326e-15 0)
(1 -9.52533e-16 0)
(1 6.96595e-16 0)
(1 -7.00833e-16 0)
(1 -1.92462e-15 0)
(1 -6.23588e-15 0)
(1 -5.24416e-15 0)
(1 2.07607e-15 0)
(1 -1.47106e-16 0)
(1 1.16535e-15 0)
(1 1.93004e-15 0)
(1 3.55166e-15 0)
(1 2.77947e-15 0)
(1 5.01881e-15 0)
(1 2.32718e-15 0)
(1 4.11776e-15 0)
(1 -3.43863e-16 0)
(1 5.35903e-16 0)
(1 -1.87938e-15 0)
(1 -2.79838e-15 0)
(1 -2.69251e-15 0)
(1 2.34051e-16 0)
(1 1.85262e-15 0)
(1 2.95899e-16 0)
(1 8.36864e-16 0)
(1 1.18179e-16 0)
(1 7.41056e-16 0)
(1 2.81397e-16 0)
(1 -4.22143e-16 0)
(1 -2.93601e-15 0)
(1 -2.6091e-15 0)
(1 -3.30492e-15 0)
(1 -2.52545e-15 0)
(1 8.93714e-16 0)
(1 1.75348e-16 0)
(1 -5.99291e-17 0)
(1 1.87129e-15 0)
(1 3.70672e-15 0)
(1 1.5761e-15 0)
(1 1.49516e-15 0)
(1 1.25679e-15 0)
(1 1.31063e-15 0)
(1 6.84808e-16 0)
(1 -7.44525e-16 0)
(1 -1.05423e-15 0)
(1 -1.7849e-15 0)
(1 -8.26323e-16 0)
(1 1.77506e-15 0)
(1 7.19432e-16 0)
(1 1.15603e-15 0)
(1 3.46237e-16 0)
(1 4.39622e-16 0)
(1 -1.8839e-15 0)
(1 -9.90645e-16 0)
(1 -2.85208e-15 0)
(1 4.26702e-17 0)
(1 -5.54331e-16 0)
(1 4.45675e-16 0)
(1 5.87898e-16 0)
(1 1.68132e-15 0)
(1 5.27367e-16 0)
(1 -2.78386e-16 0)
(1 -2.8128e-15 0)
(1 -2.26799e-15 0)
(1 -1.54694e-16 0)
(1 2.42576e-17 0)
(1 1.85363e-16 0)
(1 3.84622e-16 0)
(1 -3.04826e-16 0)
(1 -1.63404e-15 0)
(1 -1.00867e-15 0)
(1 -1.41302e-15 0)
(1 -7.43045e-17 0)
(1 -3.30585e-16 0)
(1 3.12211e-16 0)
(1 -1.18667e-15 0)
(1 -3.55496e-16 0)
(1 -7.45554e-16 0)
(1 -1.38605e-15 0)
(1 -1.55521e-15 0)
(1 -1.39334e-15 0)
(1 -7.95972e-16 0)
(1 -1.70705e-16 0)
(1 -1.85824e-15 0)
(1 -2.20915e-15 0)
(1 -2.67812e-15 0)
(1 -2.09812e-15 0)
(1 -6.08527e-17 0)
(1 1.86824e-15 0)
(1 -5.37537e-16 0)
(1 -3.39503e-16 0)
(1 -1.50089e-15 0)
(1 1.09044e-16 0)
(1 9.66162e-17 0)
(1 -4.05027e-16 0)
(1 -1.76459e-15 0)
(1 2.21858e-15 0)
(1 1.7848e-15 0)
(1 4.08272e-15 0)
(1 2.9363e-15 0)
(1 8.36344e-16 0)
(1 -4.52912e-15 0)
(1 3.68296e-16 0)
(1 8.31491e-17 0)
(1 1.03172e-15 0)
(1 -3.15862e-16 0)
(1 -1.31906e-15 0)
(1 -3.5638e-15 0)
(1 -1.18935e-15 0)
(1 -4.00041e-15 0)
(1 2.81307e-15 0)
(1 6.43803e-15 0)
(1 5.12985e-15 0)
(1 3.38232e-15 0)
(1 1.84637e-15 0)
(1 1.97855e-15 0)
(1 1.62718e-15 0)
(1 -1.32713e-15 0)
(1 -9.8178e-16 0)
(1 7.31067e-16 0)
(1 -1.12688e-15 0)
(1 -6.41429e-16 0)
(1 -3.57683e-15 0)
(1 -2.16534e-15 0)
(1 -2.35137e-15 0)
(1 -7.96192e-16 0)
(1 -1.01659e-15 0)
(1 -1.92219e-16 0)
(1 -1.89106e-15 0)
(1 -8.25431e-16 0)
(1 -2.74708e-15 0)
(1 5.12224e-16 0)
(1 -2.61499e-15 0)
(1 4.92223e-17 0)
(1 2.49545e-15 0)
(1 1.92017e-15 0)
(1 1.58074e-15 0)
(1 -1.02863e-15 0)
(1 1.53807e-15 0)
(1 4.84797e-16 0)
(1 5.16791e-16 0)
(1 2.36196e-15 0)
(1 2.52281e-15 0)
(1 3.78568e-15 0)
(1 8.44586e-16 0)
(1 -3.07467e-17 0)
(1 -2.38567e-15 0)
(1 -3.82398e-15 0)
(1 -2.21216e-15 0)
(1 -3.09832e-17 0)
(1 9.28998e-16 0)
(1 4.88838e-16 0)
(1 1.24328e-15 0)
(1 -7.35367e-16 0)
(1 -2.7084e-15 0)
(1 -1.06644e-15 0)
(1 6.41891e-16 0)
(1 5.10352e-16 0)
(1 1.30446e-15 0)
(1 2.60731e-15 0)
(1 1.20932e-15 0)
(1 9.67514e-16 0)
(1 -7.65473e-16 0)
(1 -3.7948e-16 0)
(1 -5.3419e-16 0)
(1 2.99152e-15 0)
(1 2.23308e-15 0)
(1 -8.15538e-16 0)
(1 -3.24416e-16 0)
(1 -2.04655e-15 0)
(1 7.56489e-16 0)
(1 -1.52844e-15 0)
(1 4.40828e-16 0)
(1 -3.01019e-15 0)
(1 -1.60765e-15 0)
(1 -2.47315e-15 0)
(1 -3.26502e-15 0)
(1 -1.67717e-15 0)
(1 -1.60556e-15 0)
(1 -3.0149e-15 0)
(1 -6.43472e-16 0)
(1 -1.04581e-15 0)
(1 -4.50213e-16 0)
(1 -6.83186e-16 0)
(1 -1.23348e-15 0)
(1 -1.01012e-15 0)
(1 -2.45693e-15 0)
(1 -5.82237e-16 0)
(1 -5.99029e-16 0)
(1 -2.0977e-15 0)
(1 -1.33589e-15 0)
(1 -7.73186e-16 0)
(1 1.0874e-15 0)
(1 3.08847e-16 0)
(1 6.16992e-16 0)
(1 8.08999e-16 0)
(1 1.48712e-15 0)
(1 4.25751e-15 0)
(1 3.98892e-15 0)
(1 1.98874e-15 0)
(1 -1.20771e-15 0)
(1 -4.55406e-16 0)
(1 1.86124e-15 0)
(1 -1.53236e-15 0)
(1 -1.14099e-15 0)
(1 -3.16817e-15 0)
(1 -1.57846e-15 0)
(1 -1.42317e-15 0)
(1 1.68843e-15 0)
(1 1.59783e-15 0)
(1 3.92136e-15 0)
(1 2.2895e-15 0)
(1 5.16996e-16 0)
(1 2.15701e-15 0)
(1 3.66306e-15 0)
(1 -3.16404e-15 0)
(1 2.666e-15 0)
(1 -1.62859e-15 0)
(1 -2.04444e-15 0)
(1 -2.67091e-15 0)
(1 -1.23358e-15 0)
(1 6.03892e-16 0)
(1 -2.85832e-15 0)
(1 1.91789e-15 0)
(1 1.31057e-15 0)
(1 2.30363e-15 0)
(1 -4.67794e-16 0)
(1 -1.69704e-15 0)
(1 -7.28225e-16 0)
(1 -7.81443e-16 0)
(1 -1.22284e-15 0)
(1 -4.00706e-16 0)
(1 -1.00237e-15 0)
(1 -1.61236e-15 0)
(1 -1.94425e-15 0)
(1 5.58603e-16 0)
(1 1.99206e-15 0)
(1 3.43518e-15 0)
(1 3.56978e-15 0)
(1 1.1596e-15 0)
(1 7.38592e-16 0)
(1 2.11949e-15 0)
(1 2.44666e-15 0)
(1 1.65517e-15 0)
(1 1.2282e-15 0)
(1 1.51667e-15 0)
(1 1.00685e-15 0)
(1 4.77221e-16 0)
(1 2.97587e-15 0)
(1 -7.71997e-16 0)
(1 -6.09852e-16 0)
(1 -1.88925e-15 0)
(1 6.93482e-16 0)
(1 3.39165e-16 0)
(1 3.7471e-15 0)
(1 4.6868e-15 0)
(1 4.80692e-15 0)
(1 4.57141e-15 0)
(1 2.3354e-15 0)
(1 1.18511e-15 0)
(1 1.97112e-15 0)
(1 -3.77068e-16 0)
(1 -3.32806e-15 0)
(1 -4.2787e-15 0)
(1 -2.50825e-15 0)
(1 2.19005e-15 0)
(1 2.52991e-15 0)
(1 -1.02261e-16 0)
(1 -2.12959e-15 0)
(1 8.54991e-16 0)
(1 -2.17013e-15 0)
(1 -1.71106e-15 0)
(1 -1.72834e-15 0)
(1 -3.97774e-15 0)
(1 -2.19318e-15 0)
(1 -3.05054e-15 0)
(1 -3.38394e-15 0)
(1 -1.649e-15 0)
(1 -2.66383e-15 0)
(1 -2.0587e-15 0)
(1 -3.78381e-16 0)
(1 7.77849e-16 0)
(1 1.73874e-15 0)
(1 1.68917e-15 0)
(1 1.28542e-15 0)
(1 8.82482e-16 0)
(1 1.64648e-15 0)
(1 1.25854e-15 0)
(1 -1.15496e-15 0)
(1 -1.36055e-15 0)
(1 3.86313e-15 0)
(1 1.26425e-16 0)
(1 9.69611e-16 0)
(1 -2.1949e-15 0)
(1 -3.69949e-15 0)
(1 -1.22266e-16 0)
(1 1.21278e-15 0)
(1 1.37057e-15 0)
(1 2.44329e-15 0)
(1 6.79407e-16 0)
(1 1.02493e-15 0)
(1 3.35788e-15 0)
(1 2.4154e-15 0)
(1 2.45066e-15 0)
(1 3.62799e-15 0)
(1 -2.55109e-15 0)
(1 1.09043e-15 0)
(1 2.51832e-15 0)
(1 3.20168e-15 0)
(1 -1.63401e-15 0)
(1 -8.32384e-16 0)
(1 -6.25488e-16 0)
(1 -2.77583e-15 0)
(1 -3.1191e-16 0)
(1 -9.34669e-16 0)
(1 -6.75575e-16 0)
(1 9.88049e-16 0)
(1 3.51971e-15 0)
(1 -4.37696e-16 0)
(1 -7.77917e-16 0)
(1 -1.69643e-15 0)
(1 -3.23393e-16 0)
(1 -6.91364e-16 0)
(1 9.09857e-16 0)
(1 4.52616e-15 0)
(1 2.09577e-15 0)
(1 -2.28802e-16 0)
(1 -5.0813e-15 0)
(1 3.23889e-16 0)
(1 -2.6511e-15 0)
(1 2.47541e-15 0)
(1 4.77116e-16 0)
(1 -7.02011e-16 0)
(1 -3.01281e-15 0)
(1 -3.49661e-15 0)
(1 1.71614e-15 0)
(1 1.10316e-15 0)
(1 5.75418e-15 0)
(1 3.08187e-15 0)
(1 -4.31093e-16 0)
(1 2.97306e-16 0)
(1 2.07402e-15 0)
(1 2.03796e-15 0)
(1 2.72248e-16 0)
(1 -1.33396e-15 0)
(1 3.98022e-16 0)
(1 5.49046e-16 0)
(1 2.36937e-15 0)
(1 6.76663e-16 0)
(1 1.52979e-17 0)
(1 -7.11814e-16 0)
(1 -3.77224e-16 0)
(1 -1.26475e-15 0)
(1 -1.08348e-15 0)
(1 -4.89366e-16 0)
(1 2.56654e-15 0)
(1 2.3382e-15 0)
(1 1.53959e-15 0)
(1 1.30367e-15 0)
(1 7.57833e-16 0)
(1 3.96596e-17 0)
(1 5.36832e-16 0)
(1 2.14904e-15 0)
(1 9.49233e-16 0)
(1 2.77546e-15 0)
(1 1.01987e-15 0)
(1 1.39807e-15 0)
(1 1.33837e-15 0)
(1 -1.11836e-16 0)
(1 1.23228e-16 0)
(1 -1.57886e-15 0)
(1 -1.85159e-15 0)
(1 -1.81376e-15 0)
(1 -1.19314e-15 0)
(1 -1.01064e-15 0)
(1 -1.51743e-15 0)
(1 -5.28632e-16 0)
(1 -2.53049e-15 0)
(1 -2.54214e-15 0)
(1 1.09432e-15 0)
(1 6.80186e-17 0)
(1 1.31061e-15 0)
(1 8.05521e-16 0)
(1 2.28435e-15 0)
(1 1.21261e-15 0)
(1 1.02976e-15 0)
(1 2.28563e-15 0)
(1 2.15089e-15 0)
(1 -4.35017e-17 0)
(1 -5.83035e-16 0)
(1 1.67515e-15 0)
(1 -2.97704e-17 0)
(1 -5.7776e-16 0)
(1 -5.2964e-16 0)
(1 -2.86949e-15 0)
(1 -1.52188e-15 0)
(1 4.27952e-16 0)
(1 2.60901e-15 0)
(1 -1.39651e-16 0)
(1 -2.21161e-15 0)
(1 1.46121e-15 0)
(1 4.10405e-15 0)
(1 4.54715e-16 0)
(1 3.36642e-15 0)
(1 1.13352e-15 0)
(1 4.97327e-15 0)
(1 6.56286e-15 0)
(1 -1.07717e-15 0)
(1 -3.52832e-15 0)
(1 -4.41755e-15 0)
(1 -5.068e-15 0)
(1 -5.02291e-16 0)
(1 1.69837e-15 0)
(1 -1.78127e-15 0)
(1 -3.11351e-15 0)
(1 1.53069e-15 0)
(1 -2.97932e-15 0)
(1 -6.26662e-16 0)
(1 2.81806e-15 0)
(1 9.88739e-16 0)
(1 -2.18319e-15 0)
(1 -1.85685e-15 0)
(1 9.55492e-16 0)
(1 -1.56891e-15 0)
(1 -4.84463e-16 0)
(1 -1.43023e-15 0)
(1 -9.89394e-16 0)
(1 4.60412e-16 0)
(1 3.91614e-16 0)
(1 -1.31643e-15 0)
(1 2.25144e-15 0)
(1 2.29148e-15 0)
(1 1.96191e-15 0)
(1 1.40608e-15 0)
(1 9.22564e-16 0)
(1 2.51527e-15 0)
(1 -1.48288e-15 0)
(1 -2.34959e-16 0)
(1 2.01859e-15 0)
(1 4.04484e-15 0)
(1 2.45301e-15 0)
(1 2.06088e-15 0)
(1 2.8072e-15 0)
(1 2.65698e-15 0)
(1 1.72307e-15 0)
(1 -2.50345e-15 0)
(1 2.09569e-15 0)
(1 1.10239e-15 0)
(1 -5.83729e-16 0)
(1 7.60091e-16 0)
(1 1.80048e-15 0)
(1 1.28129e-15 0)
(1 7.64751e-17 0)
(1 1.17522e-15 0)
(1 2.73334e-15 0)
(1 -1.19567e-15 0)
(1 1.08394e-15 0)
(1 1.11632e-15 0)
(1 4.34208e-15 0)
(1 4.79205e-15 0)
(1 2.314e-15 0)
(1 1.78354e-15 0)
(1 2.75469e-15 0)
(1 4.50765e-15 0)
(1 3.6066e-15 0)
(1 3.34686e-18 0)
(1 -4.08675e-16 0)
(1 -2.03915e-15 0)
(1 -2.39962e-15 0)
(1 -3.38422e-15 0)
(1 -2.86845e-15 0)
(1 -2.1629e-16 0)
(1 -3.98096e-15 0)
(1 -2.70304e-15 0)
(1 -2.59973e-15 0)
(1 -4.4918e-16 0)
(1 -1.22371e-15 0)
(1 -4.08186e-15 0)
(1 -3.71018e-15 0)
(1 -1.01989e-15 0)
(1 -2.25964e-15 0)
(1 4.80502e-16 0)
(1 2.07294e-15 0)
(1 2.68435e-15 0)
(1 1.04247e-15 0)
(1 2.12907e-15 0)
(1 2.60913e-15 0)
(1 3.77653e-15 0)
(1 -1.08624e-15 0)
(1 2.43262e-15 0)
(1 -3.34793e-15 0)
(1 -3.31006e-15 0)
(1 -3.04088e-15 0)
(1 4.46502e-16 0)
(1 4.80979e-16 0)
(1 -3.15746e-15 0)
(1 -1.63724e-15 0)
(1 3.3599e-15 0)
(1 1.54318e-15 0)
(1 5.06427e-15 0)
(1 4.71663e-15 0)
(1 5.40079e-15 0)
(1 1.40716e-15 0)
(1 2.81187e-15 0)
(1 2.05059e-15 0)
(1 5.40158e-15 0)
(1 5.68537e-16 0)
(1 -2.66901e-15 0)
(1 -6.55286e-15 0)
(1 1.71402e-15 0)
(1 -2.26433e-15 0)
(1 -3.05844e-15 0)
(1 -1.12446e-15 0)
(1 -2.5322e-15 0)
(1 -2.66648e-15 0)
(1 -4.83995e-15 0)
(1 -5.3043e-15 0)
(1 -1.9453e-15 0)
(1 2.65638e-16 0)
(1 7.52995e-16 0)
(1 6.78523e-16 0)
(1 1.53657e-15 0)
(1 8.82586e-16 0)
(1 1.93752e-15 0)
(1 -1.59222e-15 0)
(1 2.51153e-16 0)
(1 -5.54686e-16 0)
(1 1.26045e-15 0)
(1 -4.0773e-16 0)
(1 9.81781e-16 0)
(1 1.87136e-15 0)
(1 1.45352e-15 0)
(1 5.68584e-15 0)
(1 4.25357e-15 0)
(1 2.01964e-15 0)
(1 -8.72095e-16 0)
(1 -1.85173e-15 0)
(1 -3.37441e-15 0)
(1 1.68175e-15 0)
(1 3.20414e-15 0)
(1 2.6173e-15 0)
(1 2.09781e-15 0)
(1 3.3834e-15 0)
(1 2.79244e-15 0)
(1 4.92479e-15 0)
(1 1.16619e-15 0)
(1 4.17008e-15 0)
(1 6.60446e-16 0)
(1 1.04247e-15 0)
(1 8.77393e-16 0)
(1 -3.80974e-15 0)
(1 -3.03647e-15 0)
(1 -2.07572e-15 0)
(1 1.13444e-16 0)
(1 7.66031e-15 0)
(1 5.03588e-15 0)
(1 5.69956e-15 0)
(1 6.64582e-15 0)
(1 5.63955e-15 0)
(1 4.42404e-15 0)
(1 3.31334e-15 0)
(1 7.75104e-16 0)
(1 -2.45045e-15 0)
(1 6.0532e-16 0)
(1 1.61222e-15 0)
(1 7.62594e-16 0)
(1 -2.56454e-15 0)
(1 -1.21841e-16 0)
(1 1.01241e-16 0)
(1 2.50268e-15 0)
(1 -2.5841e-15 0)
(1 8.05963e-17 0)
(1 -4.35139e-15 0)
(1 -3.41095e-15 0)
(1 -3.52285e-15 0)
(1 -2.22495e-15 0)
(1 -3.42639e-15 0)
(1 -2.4852e-15 0)
(1 -2.5464e-15 0)
(1 -2.15652e-15 0)
(1 1.12284e-15 0)
(1 2.83855e-15 0)
(1 6.21762e-15 0)
(1 5.55502e-15 0)
(1 5.67748e-15 0)
(1 3.46837e-15 0)
(1 7.07258e-15 0)
(1 7.53695e-15 0)
(1 4.0132e-16 0)
(1 1.01325e-15 0)
(1 -6.1407e-16 0)
(1 1.99701e-16 0)
(1 -1.36463e-15 0)
(1 8.63101e-17 0)
(1 7.86436e-16 0)
(1 6.93016e-16 0)
(1 8.10008e-16 0)
(1 2.47153e-15 0)
(1 1.20297e-15 0)
(1 4.8069e-15 0)
(1 3.68774e-15 0)
(1 -1.44774e-15 0)
(1 -9.0983e-16 0)
(1 -5.62626e-16 0)
(1 9.16643e-16 0)
(1 2.95814e-15 0)
(1 -4.68857e-16 0)
(1 -1.22343e-15 0)
(1 -4.39364e-15 0)
(1 -2.07713e-15 0)
(1 8.46081e-16 0)
(1 -8.74558e-16 0)
(1 7.75732e-16 0)
(1 1.26318e-16 0)
(1 -6.4398e-16 0)
(1 -6.78895e-15 0)
(1 -3.45709e-15 0)
(1 -1.9808e-15 0)
(1 -2.3188e-15 0)
(1 2.05058e-15 0)
(1 1.73955e-15 0)
(1 1.47651e-15 0)
(1 -1.02335e-15 0)
(1 -1.06187e-16 0)
(1 -3.202e-15 0)
(1 -2.58679e-15 0)
(1 -2.92887e-15 0)
(1 -6.80886e-16 0)
(1 -2.15243e-15 0)
(1 2.37897e-15 0)
(1 1.71685e-15 0)
(1 3.15959e-15 0)
(1 3.56101e-15 0)
(1 2.80064e-15 0)
(1 8.4439e-16 0)
(1 -8.72018e-16 0)
(1 2.83479e-15 0)
(1 1.84626e-15 0)
(1 3.60501e-15 0)
(1 7.27131e-16 0)
(1 1.3209e-15 0)
(1 2.42096e-15 0)
(1 3.70576e-15 0)
(1 2.37978e-15 0)
(1 1.90341e-15 0)
(1 2.27533e-15 0)
(1 1.52597e-15 0)
(1 3.97355e-16 0)
(1 1.96744e-15 0)
(1 4.29897e-15 0)
(1 5.7025e-15 0)
(1 1.53017e-15 0)
(1 1.71816e-15 0)
(1 6.18561e-16 0)
(1 2.96545e-15 0)
(1 4.87526e-15 0)
(1 5.23847e-15 0)
(1 4.04975e-15 0)
(1 2.83865e-15 0)
(1 2.71004e-15 0)
(1 2.31388e-15 0)
(1 1.86242e-16 0)
(1 -4.38343e-16 0)
(1 2.38341e-15 0)
(1 4.66484e-15 0)
(1 1.64029e-15 0)
(1 -9.10928e-16 0)
(1 -4.55187e-17 0)
(1 7.13036e-16 0)
(1 -6.42177e-16 0)
(1 -2.73556e-15 0)
(1 -3.23663e-15 0)
(1 -3.35116e-15 0)
(1 -4.22225e-15 0)
(1 -2.94439e-15 0)
(1 -4.05548e-15 0)
(1 -1.94441e-15 0)
(1 -2.35024e-15 0)
(1 1.65053e-15 0)
(1 -2.43722e-15 0)
(1 4.31001e-15 0)
(1 9.7624e-16 0)
(1 4.76362e-15 0)
(1 4.27055e-15 0)
(1 3.48596e-15 0)
(1 5.74741e-15 0)
(1 1.05573e-14 0)
(1 8.71594e-15 0)
(1 3.55753e-16 0)
(1 -2.40757e-15 0)
(1 -7.44853e-17 0)
(1 2.23918e-15 0)
(1 -1.21257e-15 0)
(1 5.49196e-16 0)
(1 -1.66312e-16 0)
(1 3.13033e-15 0)
(1 1.9774e-15 0)
(1 -1.79633e-15 0)
(1 -2.4464e-15 0)
(1 5.39723e-16 0)
(1 -3.13669e-16 0)
(1 2.11697e-15 0)
(1 2.13667e-15 0)
(1 1.4175e-15 0)
(1 -1.07669e-15 0)
(1 -1.27193e-15 0)
(1 1.31311e-15 0)
(1 -1.34347e-16 0)
(1 -8.86344e-16 0)
(1 -2.11567e-16 0)
(1 -6.28121e-16 0)
(1 -1.41349e-15 0)
(1 -3.44713e-15 0)
(1 -8.65415e-16 0)
(1 3.07997e-15 0)
(1 -9.44356e-16 0)
(1 1.99e-16 0)
(1 -4.21668e-15 0)
(1 -3.97053e-15 0)
(1 -3.86261e-15 0)
(1 -9.83721e-16 0)
(1 -6.29704e-16 0)
(1 1.78343e-15 0)
(1 -4.29595e-16 0)
(1 -6.49003e-16 0)
(1 -4.19698e-15 0)
(1 -2.44537e-15 0)
(1 -1.05648e-16 0)
(1 1.16411e-15 0)
(1 4.66893e-16 0)
(1 1.87976e-16 0)
(1 4.41946e-16 0)
(1 2.02188e-15 0)
(1 1.78809e-15 0)
(1 3.1584e-15 0)
(1 1.0422e-15 0)
(1 4.88025e-15 0)
(1 4.22397e-15 0)
(1 2.28653e-15 0)
(1 1.60083e-15 0)
(1 3.76564e-15 0)
(1 3.46997e-15 0)
(1 4.48395e-15 0)
(1 2.83079e-15 0)
(1 5.10039e-15 0)
(1 1.2556e-15 0)
(1 4.24079e-15 0)
(1 1.48039e-15 0)
(1 3.2406e-15 0)
(1 6.47967e-17 0)
(1 4.06235e-15 0)
(1 1.04873e-15 0)
(1 2.25807e-15 0)
(1 5.55384e-15 0)
(1 1.74539e-15 0)
(1 2.08186e-15 0)
(1 3.5038e-15 0)
(1 2.41697e-15 0)
(1 4.73321e-15 0)
(1 1.66756e-15 0)
(1 7.22999e-16 0)
(1 -8.20318e-17 0)
(1 -4.20195e-16 0)
(1 -3.80686e-16 0)
(1 2.46645e-15 0)
(1 2.64764e-15 0)
(1 1.45774e-15 0)
(1 -2.62065e-15 0)
(1 -4.1627e-16 0)
(1 -2.88852e-15 0)
(1 1.78141e-15 0)
(1 -2.67128e-15 0)
(1 -2.11866e-15 0)
(1 -3.36252e-15 0)
(1 -1.88723e-15 0)
(1 -1.55622e-15 0)
(1 -1.65209e-15 0)
(1 -3.7471e-15 0)
(1 -4.00097e-16 0)
(1 -1.2985e-15 0)
(1 2.08291e-16 0)
(1 5.85188e-16 0)
(1 9.21231e-16 0)
(1 1.91864e-15 0)
(1 2.62455e-15 0)
(1 6.95657e-15 0)
(1 7.01716e-15 0)
(1 6.29674e-15 0)
(1 2.70421e-16 0)
(1 -2.04347e-15 0)
(1 1.73823e-15 0)
(1 1.48646e-15 0)
(1 -6.67879e-17 0)
(1 -2.24831e-15 0)
(1 -3.22541e-15 0)
(1 1.04379e-15 0)
(1 2.35288e-15 0)
(1 2.37274e-15 0)
(1 2.68675e-15 0)
(1 -4.49089e-16 0)
(1 -4.10817e-15 0)
(1 -5.51339e-16 0)
(1 1.02938e-15 0)
(1 3.33298e-15 0)
(1 2.03573e-15 0)
(1 -1.36001e-15 0)
(1 -1.71062e-15 0)
(1 -1.86196e-15 0)
(1 1.64328e-15 0)
(1 -1.52984e-16 0)
(1 -6.87888e-16 0)
(1 -2.1068e-15 0)
(1 -1.07554e-15 0)
(1 -2.62631e-15 0)
(1 -8.85447e-16 0)
(1 7.28604e-16 0)
(1 1.59656e-15 0)
(1 -8.81492e-16 0)
(1 -1.52029e-15 0)
(1 -1.22003e-15 0)
(1 -8.39377e-16 0)
(1 -2.17054e-15 0)
(1 -3.58464e-15 0)
(1 -4.87829e-15 0)
(1 1.41818e-15 0)
(1 -2.04843e-15 0)
(1 -1.64439e-15 0)
(1 -2.47488e-15 0)
(1 2.85477e-16 0)
(1 -8.77429e-16 0)
(1 -2.02989e-15 0)
(1 -2.18318e-15 0)
(1 2.85116e-15 0)
(1 5.30757e-15 0)
(1 5.7359e-15 0)
(1 5.53283e-15 0)
(1 1.75143e-15 0)
(1 4.18554e-15 0)
(1 1.40154e-15 0)
(1 2.82319e-15 0)
(1 3.45516e-15 0)
(1 4.66291e-15 0)
(1 5.05801e-15 0)
(1 1.6142e-16 0)
(1 -7.23165e-16 0)
(1 1.0693e-15 0)
(1 3.89645e-15 0)
(1 4.25558e-15 0)
(1 5.23606e-15 0)
(1 2.40152e-15 0)
(1 1.01644e-15 0)
(1 2.66658e-15 0)
(1 1.2998e-15 0)
(1 9.36842e-17 0)
(1 1.91973e-15 0)
(1 2.41721e-15 0)
(1 3.21018e-15 0)
(1 2.46679e-15 0)
(1 4.58397e-15 0)
(1 3.36547e-15 0)
(1 7.96969e-16 0)
(1 1.47623e-15 0)
(1 2.34234e-15 0)
(1 5.71603e-16 0)
(1 2.00888e-15 0)
(1 -6.96021e-16 0)
(1 -2.26619e-15 0)
(1 -2.25902e-15 0)
(1 1.91582e-15 0)
(1 9.95858e-16 0)
(1 -9.68566e-17 0)
(1 -1.78864e-15 0)
(1 -2.41073e-15 0)
(1 -1.83913e-15 0)
(1 -2.96293e-15 0)
(1 -2.38894e-15 0)
(1 -3.93481e-15 0)
(1 5.80166e-16 0)
(1 -2.81433e-16 0)
(1 2.04933e-15 0)
(1 1.28705e-16 0)
(1 1.55334e-15 0)
(1 7.36992e-16 0)
(1 2.68568e-15 0)
(1 5.82527e-15 0)
(1 4.69944e-15 0)
(1 3.20753e-15 0)
(1 4.64321e-15 0)
(1 2.71281e-15 0)
(1 -1.00332e-15 0)
(1 1.44886e-17 0)
(1 1.27177e-15 0)
(1 1.93993e-15 0)
(1 6.6214e-16 0)
(1 1.20198e-15 0)
(1 7.0568e-16 0)
(1 -1.43837e-15 0)
(1 1.92204e-15 0)
(1 6.57571e-15 0)
(1 7.0293e-15 0)
(1 6.52255e-16 0)
(1 -1.69193e-15 0)
(1 -3.93318e-15 0)
(1 -4.32311e-15 0)
(1 -3.98686e-15 0)
(1 -3.49679e-15 0)
(1 -1.56064e-15 0)
(1 -1.45937e-15 0)
(1 2.78262e-15 0)
(1 -1.20767e-15 0)
(1 2.18587e-15 0)
(1 -4.98481e-15 0)
(1 4.03085e-15 0)
(1 4.59628e-17 0)
(1 -6.66685e-15 0)
(1 -2.90294e-15 0)
(1 -4.46e-15 0)
(1 -3.29373e-16 0)
(1 -9.695e-16 0)
(1 1.30288e-15 0)
(1 -2.02317e-15 0)
(1 -1.04562e-15 0)
(1 -1.99607e-15 0)
(1 3.02528e-16 0)
(1 -7.3447e-16 0)
(1 -1.18222e-15 0)
(1 -2.00285e-15 0)
(1 -1.02164e-15 0)
(1 -3.92959e-15 0)
(1 8.26231e-16 0)
(1 -4.73716e-15 0)
(1 -1.01935e-15 0)
(1 1.24966e-15 0)
(1 4.31952e-15 0)
(1 6.78264e-15 0)
(1 7.07432e-15 0)
(1 2.58828e-15 0)
(1 4.06456e-15 0)
(1 -1.23915e-16 0)
(1 3.68517e-15 0)
(1 4.02127e-15 0)
(1 6.24912e-15 0)
(1 3.03312e-15 0)
(1 3.89629e-15 0)
(1 -1.59463e-15 0)
(1 3.58703e-15 0)
(1 -1.45717e-15 0)
(1 1.26402e-15 0)
(1 6.31774e-16 0)
(1 5.48291e-15 0)
(1 5.44429e-15 0)
(1 7.86144e-15 0)
(1 3.00505e-15 0)
(1 -4.12546e-16 0)
(1 5.56238e-16 0)
(1 1.00426e-15 0)
(1 -9.08421e-16 0)
(1 3.50446e-16 0)
(1 1.48028e-15 0)
(1 1.96523e-15 0)
(1 3.78885e-15 0)
(1 2.94869e-15 0)
(1 2.8504e-15 0)
(1 1.28834e-16 0)
(1 -9.89358e-16 0)
(1 -2.32838e-15 0)
(1 -1.175e-15 0)
(1 2.52438e-15 0)
(1 -8.54214e-16 0)
(1 -1.43806e-15 0)
(1 -2.38632e-15 0)
(1 -6.41818e-16 0)
(1 -2.10484e-15 0)
(1 1.33497e-15 0)
(1 -3.31262e-15 0)
(1 -2.20275e-15 0)
(1 -2.41199e-15 0)
(1 -3.0463e-16 0)
(1 2.17407e-16 0)
(1 -8.29956e-16 0)
(1 -1.00973e-15 0)
(1 -2.31104e-15 0)
(1 -1.19446e-15 0)
(1 3.44942e-15 0)
(1 3.3005e-15 0)
(1 2.70845e-15 0)
(1 1.03822e-15 0)
(1 2.60629e-15 0)
(1 -5.10759e-17 0)
(1 3.17552e-15 0)
(1 -4.23808e-15 0)
(1 1.84905e-15 0)
(1 1.41413e-15 0)
(1 5.01061e-15 0)
(1 1.90812e-15 0)
(1 1.73295e-15 0)
(1 -2.98997e-15 0)
(1 -3.43376e-15 0)
(1 1.92933e-15 0)
(1 4.54785e-15 0)
(1 2.9534e-15 0)
(1 3.52964e-15 0)
(1 -3.48319e-15 0)
(1 -6.29454e-15 0)
(1 -5.1863e-15 0)
(1 -4.53014e-15 0)
(1 -2.311e-15 0)
(1 -1.98868e-15 0)
(1 4.90524e-17 0)
(1 3.6036e-16 0)
(1 4.70732e-15 0)
(1 -1.20999e-16 0)
(1 1.60174e-15 0)
(1 -1.06231e-15 0)
(1 -3.39336e-15 0)
(1 -4.48122e-15 0)
(1 -2.11077e-15 0)
(1 4.55038e-16 0)
(1 1.10944e-15 0)
(1 -2.15353e-15 0)
(1 -2.39892e-15 0)
(1 -2.23163e-15 0)
(1 7.32043e-16 0)
(1 -7.71937e-16 0)
(1 -5.01244e-16 0)
(1 -3.52633e-15 0)
(1 -4.72658e-16 0)
(1 -3.11884e-15 0)
(1 -1.46635e-15 0)
(1 -2.03424e-15 0)
(1 6.39947e-16 0)
(1 4.76296e-15 0)
(1 7.53672e-16 0)
(1 3.92016e-15 0)
(1 3.23254e-15 0)
(1 6.10236e-15 0)
(1 3.54801e-15 0)
(1 2.49645e-15 0)
(1 3.27443e-16 0)
(1 -8.02005e-18 0)
(1 1.58606e-15 0)
(1 3.61896e-15 0)
(1 1.41562e-15 0)
(1 5.51606e-15 0)
(1 6.62206e-15 0)
(1 5.42805e-15 0)
(1 1.38418e-15 0)
(1 6.68183e-17 0)
(1 -1.61258e-16 0)
(1 1.59468e-15 0)
(1 2.72406e-16 0)
(1 1.93575e-15 0)
(1 3.64153e-15 0)
(1 5.97498e-15 0)
(1 1.05441e-15 0)
(1 4.0841e-15 0)
(1 1.93537e-16 0)
(1 2.66612e-15 0)
(1 2.66763e-15 0)
(1 2.0453e-15 0)
(1 4.41762e-15 0)
(1 3.91425e-15 0)
(1 2.9114e-15 0)
(1 8.06328e-16 0)
(1 -3.61732e-16 0)
(1 2.39737e-15 0)
(1 3.21831e-15 0)
(1 2.04595e-15 0)
(1 -2.16302e-15 0)
(1 -1.69742e-15 0)
(1 -2.1881e-15 0)
(1 -4.23028e-16 0)
(1 -1.30941e-15 0)
(1 -1.64936e-15 0)
(1 -3.51483e-15 0)
(1 -2.88493e-16 0)
(1 1.63256e-15 0)
(1 -4.45888e-16 0)
(1 -3.11622e-16 0)
(1 -9.82976e-16 0)
(1 -1.03899e-15 0)
(1 -2.40236e-16 0)
(1 -8.80163e-16 0)
(1 2.25296e-15 0)
(1 1.11362e-15 0)
(1 4.77668e-15 0)
(1 2.14568e-15 0)
(1 -2.19256e-16 0)
(1 3.28491e-16 0)
(1 2.13119e-15 0)
(1 3.39181e-15 0)
(1 2.93316e-15 0)
(1 1.66138e-15 0)
(1 -7.41089e-16 0)
(1 -1.68721e-15 0)
(1 -3.62719e-15 0)
(1 1.68238e-15 0)
(1 2.58269e-15 0)
(1 1.64655e-15 0)
(1 -1.44047e-15 0)
(1 3.93218e-16 0)
(1 -3.72831e-15 0)
(1 -4.50043e-15 0)
(1 -3.91771e-15 0)
(1 -7.22817e-15 0)
(1 -4.8011e-16 0)
(1 -1.03549e-15 0)
(1 7.01646e-16 0)
(1 -1.10361e-15 0)
(1 -5.48033e-16 0)
(1 -2.94848e-15 0)
(1 8.66911e-15 0)
(1 4.73719e-15 0)
(1 2.03619e-15 0)
(1 -1.04163e-15 0)
(1 -1.5234e-15 0)
(1 -3.0592e-15 0)
(1 -3.06331e-15 0)
(1 -2.22071e-15 0)
(1 -1.56014e-15 0)
(1 -2.46191e-15 0)
(1 -5.43704e-15 0)
(1 -2.46939e-16 0)
(1 -2.0317e-15 0)
(1 -1.39339e-15 0)
(1 1.58006e-17 0)
(1 -6.50928e-16 0)
(1 -1.74591e-15 0)
(1 1.03592e-15 0)
(1 1.54688e-16 0)
(1 4.2864e-15 0)
(1 4.15082e-15 0)
(1 2.16507e-15 0)
(1 3.44695e-15 0)
(1 -1.63889e-16 0)
(1 3.36841e-15 0)
(1 4.39994e-16 0)
(1 -1.75674e-15 0)
(1 1.63166e-15 0)
(1 1.90562e-15 0)
(1 1.31685e-15 0)
(1 2.63296e-15 0)
(1 3.04198e-15 0)
(1 3.40972e-15 0)
(1 6.7755e-15 0)
(1 5.66804e-15 0)
(1 6.34187e-15 0)
(1 4.50151e-15 0)
(1 3.82934e-15 0)
(1 9.3255e-18 0)
(1 1.22838e-15 0)
(1 1.31007e-15 0)
(1 5.10678e-15 0)
(1 4.53452e-15 0)
(1 5.00621e-15 0)
(1 3.81716e-15 0)
(1 3.87845e-15 0)
(1 3.68196e-15 0)
(1 2.55061e-15 0)
(1 6.45854e-15 0)
(1 4.04011e-15 0)
(1 3.63112e-15 0)
(1 1.07828e-15 0)
(1 3.39141e-15 0)
(1 1.9121e-15 0)
(1 2.17197e-15 0)
(1 2.61587e-15 0)
(1 -2.55331e-15 0)
(1 -6.20429e-16 0)
(1 -4.10441e-16 0)
(1 -2.36632e-15 0)
(1 -1.75934e-15 0)
(1 -3.3485e-15 0)
(1 -7.0608e-15 0)
(1 -4.87349e-15 0)
(1 -3.3566e-15 0)
(1 -1.79296e-15 0)
(1 -2.29811e-15 0)
(1 -2.70349e-17 0)
(1 -3.75065e-16 0)
(1 2.45905e-15 0)
(1 2.36611e-15 0)
(1 5.25099e-15 0)
(1 1.06324e-15 0)
(1 -3.28677e-16 0)
(1 3.18329e-15 0)
(1 3.07985e-15 0)
(1 2.47244e-15 0)
(1 -6.12428e-16 0)
(1 -7.66444e-16 0)
(1 1.36977e-15 0)
(1 1.38838e-15 0)
(1 8.35255e-16 0)
(1 3.014e-15 0)
(1 4.65581e-15 0)
(1 1.28917e-15 0)
(1 8.74635e-16 0)
(1 1.75738e-15 0)
(1 -3.71644e-15 0)
(1 -4.66585e-15 0)
(1 -1.77795e-15 0)
(1 -4.01188e-15 0)
(1 6.84448e-16 0)
(1 -1.21296e-16 0)
(1 -5.30948e-15 0)
(1 -2.74106e-15 0)
(1 -2.50925e-15 0)
(1 1.4966e-15 0)
(1 2.35769e-16 0)
(1 3.24957e-15 0)
(1 -4.80195e-15 0)
(1 1.14607e-15 0)
(1 -3.02112e-15 0)
(1 1.5103e-15 0)
(1 7.24272e-17 0)
(1 3.37095e-15 0)
(1 -2.75214e-15 0)
(1 -3.77966e-15 0)
(1 -1.75114e-15 0)
(1 -4.27226e-15 0)
(1 9.16086e-16 0)
(1 -2.29887e-15 0)
(1 7.25128e-17 0)
(1 8.6116e-17 0)
(1 -2.8034e-15 0)
(1 3.69284e-16 0)
(1 -5.17083e-16 0)
(1 1.50512e-15 0)
(1 -2.17234e-16 0)
(1 3.34126e-15 0)
(1 3.00643e-15 0)
(1 -1.75208e-15 0)
(1 4.55588e-16 0)
(1 -4.85392e-15 0)
(1 3.56146e-15 0)
(1 1.13783e-15 0)
(1 3.23432e-15 0)
(1 -1.65352e-15 0)
(1 2.45667e-15 0)
(1 2.8421e-15 0)
(1 5.05879e-15 0)
(1 1.16244e-15 0)
(1 3.79543e-15 0)
(1 5.58483e-15 0)
(1 6.46657e-15 0)
(1 4.04855e-15 0)
(1 4.99375e-15 0)
(1 8.38759e-16 0)
(1 1.0639e-15 0)
(1 4.22854e-18 0)
(1 1.34397e-15 0)
(1 2.00083e-16 0)
(1 2.64186e-15 0)
(1 2.58967e-15 0)
(1 4.73832e-15 0)
(1 2.66826e-15 0)
(1 5.27973e-15 0)
(1 2.54169e-15 0)
(1 2.4334e-15 0)
(1 3.39343e-15 0)
(1 2.10442e-15 0)
(1 4.23222e-15 0)
(1 1.52178e-15 0)
(1 -3.81283e-16 0)
(1 -1.24068e-15 0)
(1 -4.60107e-16 0)
(1 1.25247e-15 0)
(1 -9.11112e-17 0)
(1 7.20395e-17 0)
(1 -2.32172e-15 0)
(1 1.25509e-15 0)
(1 -6.03618e-16 0)
(1 -2.07502e-15 0)
(1 -4.91871e-15 0)
(1 -4.81344e-15 0)
(1 -4.85648e-15 0)