/*--------------------------------*- C++ -*----------------------------------*\
| =========                 |                                                 |
| \\      /  F ield         | OpenFOAM: The Open Source CFD Toolbox           |
|  \\    /   O peration     | Version:  v2012                                 |
|   \\  /    A nd           | Website:  www.openfoam.com                      |
|    \\/     M anipulation  |                                                 |
\*---------------------------------------------------------------------------*/
FoamFile
{
    version     2.0;
    format      ascii;
    class       volScalarField;
    location    "0";
    object      pRec;
}
// * * * * * * * * * * * * * * * * * * * * * * * * * * * * * * * * * * * * * //

dimensions      [0 2 -2 0 0 0 0];


internalField   nonuniform List<scalar> 
4000
(
-6.88543e-13
-6.83233e-13
-6.84199e-13
-6.86699e-13
-6.84808e-13
-6.85713e-13
-6.83779e-13
-6.78729e-13
-6.69417e-13
-6.64861e-13
-6.65358e-13
-6.59989e-13
-6.51156e-13
-6.38568e-13
-6.24493e-13
-6.18392e-13
-6.14645e-13
-6.11994e-13
-6.04515e-13
-5.92275e-13
-5.8163e-13
-5.74353e-13
-5.6904e-13
-5.60287e-13
-5.4931e-13
-5.38238e-13
-5.35297e-13
-5.30148e-13
-5.23725e-13
-5.12126e-13
-4.97006e-13
-4.89345e-13
-4.86585e-13
-4.83682e-13
-4.78158e-13
-4.73879e-13
-4.63775e-13
-4.46307e-13
-4.29147e-13
-4.24632e-13
-4.24112e-13
-4.21832e-13
-4.21168e-13
-4.15142e-13
-4.0506e-13
-3.96013e-13
-3.86785e-13
-3.77498e-13
-3.68803e-13
-3.61271e-13
-3.53156e-13
-3.45643e-13
-3.38615e-13
-3.30408e-13
-3.22714e-13
-3.10547e-13
-3.03158e-13
-3.00795e-13
-2.98485e-13
-2.95497e-13
-2.87478e-13
-2.80471e-13
-2.70727e-13
-2.59411e-13
-2.51577e-13
-2.4439e-13
-2.39878e-13
-2.31417e-13
-2.2096e-13
-2.13835e-13
-2.06503e-13
-1.98887e-13
-1.85717e-13
-1.78588e-13
-1.77065e-13
-1.72881e-13
-1.67902e-13
-1.61364e-13
-1.51751e-13
-1.38413e-13
-1.26159e-13
-1.20311e-13
-1.11816e-13
-1.07031e-13
-1.01532e-13
-9.57191e-14
-8.72742e-14
-7.97849e-14
-7.67037e-14
-7.25877e-14
-6.68702e-14
-6.03094e-14
-5.41179e-14
-4.98035e-14
-4.05629e-14
-3.18192e-14
-2.47722e-14
-1.72248e-14
-9.33383e-15
-2.12777e-15
-6.85298e-13
-6.83825e-13
-6.86681e-13
-6.86668e-13
-6.87568e-13
-6.8444e-13
-6.81163e-13
-6.78916e-13
-6.73394e-13
-6.67794e-13
-6.62048e-13
-6.57338e-13
-6.49496e-13
-6.38471e-13
-6.27794e-13
-6.21587e-13
-6.16948e-13
-6.10526e-13
-6.02459e-13
-5.95468e-13
-5.84506e-13
-5.72554e-13
-5.6542e-13
-5.57476e-13
-5.47199e-13
-5.40934e-13
-5.36793e-13
-5.30924e-13
-5.22616e-13
-5.08958e-13
-4.99676e-13
-4.92611e-13
-4.86103e-13
-4.80466e-13
-4.75542e-13
-4.703e-13
-4.62236e-13
-4.4926e-13
-4.35512e-13
-4.28472e-13
-4.24071e-13
-4.21604e-13
-4.18245e-13
-4.13524e-13
-4.06034e-13
-3.96031e-13
-3.85605e-13
-3.77431e-13
-3.68718e-13
-3.58985e-13
-3.52092e-13
-3.44724e-13
-3.38914e-13
-3.31796e-13
-3.24094e-13
-3.13094e-13
-3.02808e-13
-2.98976e-13
-2.96758e-13
-2.93998e-13
-2.89612e-13
-2.80591e-13
-2.71423e-13
-2.61132e-13
-2.5346e-13
-2.4461e-13
-2.3745e-13
-2.30429e-13
-2.23193e-13
-2.15265e-13
-2.0655e-13
-1.98976e-13
-1.90269e-13
-1.81837e-13
-1.76902e-13
-1.69124e-13
-1.66582e-13
-1.59238e-13
-1.48874e-13
-1.3703e-13
-1.2717e-13
-1.21615e-13
-1.15588e-13
-1.08979e-13
-1.00063e-13
-9.3766e-14
-8.53286e-14
-7.77763e-14
-7.51101e-14
-7.11918e-14
-6.80877e-14
-6.28606e-14
-5.77076e-14
-4.77012e-14
-3.91191e-14
-3.2456e-14
-2.42047e-14
-1.72896e-14
-1.05739e-14
-3.89072e-15
-6.84721e-13
-6.83755e-13
-6.85905e-13
-6.88784e-13
-6.89649e-13
-6.85557e-13
-6.80181e-13
-6.77786e-13
-6.71468e-13
-6.67514e-13
-6.62931e-13
-6.56682e-13
-6.48819e-13
-6.39896e-13
-6.2978e-13
-6.22574e-13
-6.15969e-13
-6.09394e-13
-6.03008e-13
-5.94088e-13
-5.83697e-13
-5.74433e-13
-5.66128e-13
-5.58325e-13
-5.4896e-13
-5.43412e-13
-5.3775e-13
-5.29331e-13
-5.20288e-13
-5.07291e-13
-4.99985e-13
-4.92784e-13
-4.85805e-13
-4.82324e-13
-4.77594e-13
-4.71432e-13
-4.60795e-13
-4.50446e-13
-4.39538e-13
-4.28652e-13
-4.23219e-13
-4.18552e-13
-4.18247e-13
-4.13987e-13
-4.06687e-13
-3.96086e-13
-3.83955e-13
-3.74849e-13
-3.69997e-13
-3.64711e-13
-3.53603e-13
-3.4526e-13
-3.36658e-13
-3.2869e-13
-3.21943e-13
-3.13865e-13
-3.03452e-13
-3.01296e-13
-3.0105e-13
-2.95797e-13
-2.87416e-13
-2.75905e-13
-2.68135e-13
-2.62327e-13
-2.56023e-13
-2.48e-13
-2.40029e-13
-2.29701e-13
-2.21791e-13
-2.1204e-13
-2.03793e-13
-1.96601e-13
-1.87253e-13
-1.81237e-13
-1.76418e-13
-1.71155e-13
-1.65891e-13
-1.59141e-13
-1.48548e-13
-1.38208e-13
-1.32005e-13
-1.23428e-13
-1.11589e-13
-1.0553e-13
-9.9939e-14
-9.60661e-14
-8.98188e-14
-8.13594e-14
-7.50522e-14
-6.93065e-14
-6.56204e-14
-6.25754e-14
-5.60162e-14
-4.82319e-14
-3.86442e-14
-3.0213e-14
-2.49134e-14
-1.82096e-14
-1.40672e-14
-4.52715e-15
-6.85721e-13
-6.86582e-13
-6.87204e-13
-6.83546e-13
-6.87961e-13
-6.82877e-13
-6.80311e-13
-6.78127e-13
-6.75427e-13
-6.6958e-13
-6.61332e-13
-6.52292e-13
-6.45031e-13
-6.40086e-13
-6.37947e-13
-6.28075e-13
-6.14228e-13
-6.06517e-13
-6.01919e-13
-5.93119e-13
-5.83917e-13
-5.76025e-13
-5.66605e-13
-5.52746e-13
-5.44969e-13
-5.41249e-13
-5.37015e-13
-5.31422e-13
-5.20677e-13
-5.11176e-13
-5.03832e-13
-4.95104e-13
-4.86605e-13
-4.8053e-13
-4.73303e-13
-4.71004e-13
-4.61481e-13
-4.49241e-13
-4.4071e-13
-4.31023e-13
-4.26279e-13
-4.23052e-13
-4.17919e-13
-4.11307e-13
-4.01975e-13
-3.92756e-13
-3.84052e-13
-3.78257e-13
-3.70444e-13
-3.58855e-13
-3.49876e-13
-3.44302e-13
-3.38608e-13
-3.326e-13
-3.21349e-13
-3.14941e-13
-3.05793e-13
-3.00491e-13
-2.99962e-13
-2.9409e-13
-2.85908e-13
-2.7766e-13
-2.72164e-13
-2.64773e-13
-2.55723e-13
-2.46787e-13
-2.3896e-13
-2.29782e-13
-2.22233e-13
-2.14452e-13
-2.07357e-13
-1.99695e-13
-1.90245e-13
-1.82611e-13
-1.75971e-13
-1.69727e-13
-1.6579e-13
-1.58654e-13
-1.4845e-13
-1.38654e-13
-1.31189e-13
-1.23844e-13
-1.13706e-13
-1.04415e-13
-9.91256e-14
-9.43843e-14
-8.78851e-14
-8.04908e-14
-7.33453e-14
-6.97905e-14
-6.77655e-14
-6.32634e-14
-5.75491e-14
-4.68683e-14
-3.824e-14
-3.25902e-14
-2.65098e-14
-1.75395e-14
-1.12519e-14
-4.26198e-15
-6.86378e-13
-6.90564e-13
-6.87093e-13
-6.82937e-13
-6.79728e-13
-6.83227e-13
-6.82989e-13
-6.80804e-13
-6.74369e-13
-6.66787e-13
-6.58669e-13
-6.53857e-13
-6.44398e-13
-6.38554e-13
-6.37023e-13
-6.30871e-13
-6.20949e-13
-6.10674e-13
-5.99078e-13
-5.88242e-13
-5.83265e-13
-5.75169e-13
-5.61383e-13
-5.52222e-13
-5.48276e-13
-5.435e-13
-5.38404e-13
-5.30363e-13
-5.22952e-13
-5.13646e-13
-5.04515e-13
-4.95951e-13
-4.86655e-13
-4.80874e-13
-4.74744e-13
-4.70537e-13
-4.60261e-13
-4.49276e-13
-4.38719e-13
-4.31297e-13
-4.26563e-13
-4.2484e-13
-4.18064e-13
-4.09942e-13
-4.0018e-13
-3.89827e-13
-3.82766e-13
-3.7702e-13
-3.69515e-13
-3.62496e-13
-3.53526e-13
-3.46464e-13
-3.38887e-13
-3.32148e-13
-3.21396e-13
-3.13532e-13
-3.07041e-13
-3.01957e-13
-2.9934e-13
-2.93087e-13
-2.86065e-13
-2.78121e-13
-2.69977e-13
-2.6404e-13
-2.5821e-13
-2.51584e-13
-2.43274e-13
-2.30966e-13
-2.22075e-13
-2.11716e-13
-2.0386e-13
-1.97271e-13
-1.90393e-13
-1.82631e-13
-1.72875e-13
-1.66959e-13
-1.64676e-13
-1.58267e-13
-1.50868e-13
-1.40651e-13
-1.32319e-13
-1.2583e-13
-1.13361e-13
-1.03321e-13
-9.6058e-14
-9.1404e-14
-8.8045e-14
-8.30753e-14
-7.55678e-14
-7.10757e-14
-6.66966e-14
-6.29051e-14
-5.54736e-14
-5.00661e-14
-4.23231e-14
-3.29225e-14
-2.62271e-14
-1.96143e-14
-1.08031e-14
-1.67455e-15
-6.83126e-13
-6.91958e-13
-6.88394e-13
-6.80025e-13
-6.8409e-13
-6.86936e-13
-6.84809e-13
-6.80617e-13
-6.7257e-13
-6.60082e-13
-6.5641e-13
-6.52995e-13
-6.49122e-13
-6.40013e-13
-6.33602e-13
-6.32307e-13
-6.22235e-13
-6.1318e-13
-6.04312e-13
-5.915e-13
-5.80434e-13
-5.69392e-13
-5.52808e-13
-5.48812e-13
-5.48982e-13
-5.46783e-13
-5.38559e-13
-5.30018e-13
-5.22184e-13
-5.16236e-13
-5.05498e-13
-4.95792e-13
-4.8769e-13
-4.83774e-13
-4.79678e-13
-4.69274e-13
-4.58147e-13
-4.49424e-13
-4.38624e-13
-4.33578e-13
-4.29061e-13
-4.25172e-13
-4.16395e-13
-4.10037e-13
-4.00359e-13
-3.88571e-13
-3.79792e-13
-3.7378e-13
-3.6974e-13
-3.6237e-13
-3.55038e-13
-3.45975e-13
-3.3787e-13
-3.29718e-13
-3.20127e-13
-3.14895e-13
-3.09613e-13
-3.02983e-13
-2.97955e-13
-2.93572e-13
-2.88352e-13
-2.7915e-13
-2.70531e-13
-2.6375e-13
-2.55018e-13
-2.49762e-13
-2.43743e-13
-2.32231e-13
-2.23108e-13
-2.14812e-13
-2.05347e-13
-1.97374e-13
-1.91658e-13
-1.8414e-13
-1.7455e-13
-1.69373e-13
-1.63512e-13
-1.55059e-13
-1.50111e-13
-1.42697e-13
-1.3508e-13
-1.2496e-13
-1.11144e-13
-1.01479e-13
-9.70146e-14
-9.34259e-14
-8.95425e-14
-8.13024e-14
-7.45476e-14
-7.03989e-14
-6.64565e-14
-6.31154e-14
-5.38448e-14
-4.88821e-14
-4.193e-14
-3.54032e-14
-2.65518e-14
-1.8764e-14
-8.98311e-15
-6.13924e-16
-6.87903e-13
-6.88373e-13
-6.87697e-13
-6.84572e-13
-6.8167e-13
-6.85203e-13
-6.84214e-13
-6.78341e-13
-6.7038e-13
-6.60861e-13
-6.52985e-13
-6.52315e-13
-6.51061e-13
-6.4118e-13
-6.3488e-13
-6.30188e-13
-6.26696e-13
-6.18222e-13
-6.01281e-13
-5.84309e-13
-5.69141e-13
-5.64241e-13
-5.62568e-13
-5.59613e-13
-5.53319e-13
-5.46179e-13
-5.36361e-13
-5.27997e-13
-5.2329e-13
-5.18206e-13
-5.08392e-13
-4.94738e-13
-4.88402e-13
-4.79924e-13
-4.74181e-13
-4.67216e-13
-4.6022e-13
-4.54062e-13
-4.43173e-13
-4.32203e-13
-4.25238e-13
-4.19734e-13
-4.14983e-13
-4.10554e-13
-4.03533e-13
-3.93132e-13
-3.81835e-13
-3.72685e-13
-3.66498e-13
-3.62345e-13
-3.55296e-13
-3.49587e-13
-3.40753e-13
-3.30183e-13
-3.21742e-13
-3.15846e-13
-3.08904e-13
-2.98001e-13
-2.94129e-13
-2.93122e-13
-2.92938e-13
-2.84532e-13
-2.72908e-13
-2.61517e-13
-2.52138e-13
-2.46117e-13
-2.38409e-13
-2.2813e-13
-2.19185e-13
-2.14495e-13
-2.13218e-13
-2.03051e-13
-1.92711e-13
-1.86923e-13
-1.77599e-13
-1.67843e-13
-1.59338e-13
-1.51183e-13
-1.46026e-13
-1.41309e-13
-1.34258e-13
-1.24379e-13
-1.15985e-13
-1.07079e-13
-9.99949e-14
-9.05463e-14
-8.67468e-14
-8.2458e-14
-7.54863e-14
-7.20238e-14
-6.58783e-14
-5.86104e-14
-5.39235e-14
-4.79267e-14
-4.15553e-14
-3.33088e-14
-2.62462e-14
-1.71948e-14
-9.18561e-15
-2.82157e-15
-6.86652e-13
-6.85814e-13
-6.83898e-13
-6.85672e-13
-6.87893e-13
-6.8738e-13
-6.83552e-13
-6.76638e-13
-6.68385e-13
-6.61805e-13
-6.56844e-13
-6.51655e-13
-6.47558e-13
-6.3893e-13
-6.35e-13
-6.30523e-13
-6.26548e-13
-6.18087e-13
-5.96934e-13
-5.86416e-13
-5.81303e-13
-5.73588e-13
-5.6248e-13
-5.53104e-13
-5.50068e-13
-5.4267e-13
-5.32615e-13
-5.26877e-13
-5.21225e-13
-5.15362e-13
-5.08642e-13
-5.00183e-13
-4.94011e-13
-4.86704e-13
-4.75151e-13
-4.66475e-13
-4.58631e-13
-4.4963e-13
-4.41846e-13
-4.32689e-13
-4.26039e-13
-4.22218e-13
-4.15558e-13
-4.1384e-13
-4.08534e-13
-3.93575e-13
-3.78014e-13
-3.65567e-13
-3.65102e-13
-3.63679e-13
-3.59553e-13
-3.52968e-13
-3.40862e-13
-3.30142e-13
-3.19164e-13
-3.13092e-13
-3.09539e-13
-3.03837e-13
-2.96123e-13
-2.90915e-13
-2.88935e-13
-2.81591e-13
-2.73961e-13
-2.65496e-13
-2.57257e-13
-2.48305e-13
-2.39635e-13
-2.30112e-13
-2.23705e-13
-2.16553e-13
-2.0923e-13
-2.03134e-13
-1.91375e-13
-1.79073e-13
-1.72304e-13
-1.67721e-13
-1.62929e-13
-1.55e-13
-1.50232e-13
-1.44028e-13
-1.35127e-13
-1.24586e-13
-1.12513e-13
-1.01956e-13
-9.3981e-14
-9.01634e-14
-8.7673e-14
-8.38692e-14
-7.70714e-14
-7.05248e-14
-6.36093e-14
-5.83354e-14
-5.40407e-14
-4.92696e-14
-4.02093e-14
-3.17539e-14
-2.57028e-14
-1.86654e-14
-1.06059e-14
-1.37381e-15
-6.88746e-13
-6.8983e-13
-6.85316e-13
-6.80156e-13
-6.83147e-13
-6.85508e-13
-6.8515e-13
-6.77256e-13
-6.66071e-13
-6.6341e-13
-6.57642e-13
-6.48459e-13
-6.42045e-13
-6.39198e-13
-6.36964e-13
-6.32939e-13
-6.26418e-13
-6.15968e-13
-6.01227e-13
-5.88276e-13
-5.79766e-13
-5.7098e-13
-5.65712e-13
-5.59082e-13
-5.5059e-13
-5.40368e-13
-5.31657e-13
-5.26836e-13
-5.24488e-13
-5.15992e-13
-5.0954e-13
-5.01523e-13
-4.90774e-13
-4.80102e-13
-4.75268e-13
-4.67712e-13
-4.58303e-13
-4.49561e-13
-4.43321e-13
-4.36988e-13
-4.3203e-13
-4.24532e-13
-4.12452e-13
-4.05486e-13
-4.01343e-13
-3.9441e-13
-3.82985e-13
-3.74108e-13
-3.68077e-13
-3.61667e-13
-3.55597e-13
-3.4882e-13
-3.39661e-13
-3.31334e-13
-3.23365e-13
-3.18217e-13
-3.10891e-13
-3.04168e-13
-2.96794e-13
-2.9211e-13
-2.86133e-13
-2.79063e-13
-2.72668e-13
-2.65022e-13
-2.546e-13
-2.44605e-13
-2.38647e-13
-2.31113e-13
-2.23167e-13
-2.15796e-13
-2.07726e-13
-2.03493e-13
-1.95369e-13
-1.8525e-13
-1.73975e-13
-1.6789e-13
-1.63865e-13
-1.56438e-13
-1.50646e-13
-1.41869e-13
-1.35186e-13
-1.25314e-13
-1.12954e-13
-1.03392e-13
-9.61756e-14
-9.06823e-14
-8.82076e-14
-8.31182e-14
-7.67023e-14
-7.0318e-14
-6.30088e-14
-5.76308e-14
-5.09873e-14
-4.61413e-14
-3.97136e-14
-3.21043e-14
-2.45663e-14
-1.52974e-14
-7.08212e-15
1.16387e-15
-6.88264e-13
-6.8757e-13
-6.87982e-13
-6.84481e-13
-6.81396e-13
-6.83208e-13
-6.82384e-13
-6.79682e-13
-6.72381e-13
-6.59783e-13
-6.5212e-13
-6.45695e-13
-6.42882e-13
-6.41635e-13
-6.38135e-13
-6.32003e-13
-6.2289e-13
-6.16941e-13
-6.08506e-13
-5.93062e-13
-5.79735e-13
-5.67035e-13
-5.61573e-13
-5.54986e-13
-5.51419e-13
-5.44992e-13
-5.35545e-13
-5.29338e-13
-5.23081e-13
-5.16538e-13
-5.09994e-13
-5.01263e-13
-4.91322e-13
-4.79775e-13
-4.72499e-13
-4.66166e-13
-4.60804e-13
-4.50423e-13
-4.44746e-13
-4.38074e-13
-4.28216e-13
-4.18824e-13
-4.11477e-13
-4.05744e-13
-4.03868e-13
-3.99047e-13
-3.87495e-13
-3.76107e-13
-3.68484e-13
-3.59738e-13
-3.53053e-13
-3.48463e-13
-3.40998e-13
-3.32405e-13
-3.23916e-13
-3.16754e-13
-3.10411e-13
-3.0342e-13
-2.96811e-13
-2.93851e-13
-2.89581e-13
-2.85211e-13
-2.78412e-13
-2.65622e-13
-2.51689e-13
-2.38048e-13
-2.30962e-13
-2.26234e-13
-2.22428e-13
-2.21677e-13
-2.15362e-13
-2.05356e-13
-1.97818e-13
-1.8721e-13
-1.74656e-13
-1.65366e-13
-1.60898e-13
-1.54697e-13
-1.50124e-13
-1.41124e-13
-1.34132e-13
-1.25581e-13
-1.14898e-13
-1.06808e-13
-9.74341e-14
-8.92376e-14
-8.52097e-14
-7.99738e-14
-7.57395e-14
-6.98971e-14
-6.15879e-14
-5.32932e-14
-4.76654e-14
-4.35274e-14
-3.58506e-14
-2.80138e-14
-2.05201e-14
-1.36846e-14
-5.17977e-15
4.12822e-16
-6.86437e-13
-6.85664e-13
-6.84651e-13
-6.86141e-13
-6.86444e-13
-6.81077e-13
-6.79145e-13
-6.75969e-13
-6.70525e-13
-6.64625e-13
-6.53106e-13
-6.44431e-13
-6.4325e-13
-6.43862e-13
-6.3882e-13
-6.34287e-13
-6.22245e-13
-6.14963e-13
-6.07504e-13
-5.94011e-13
-5.83541e-13
-5.68238e-13
-5.58377e-13
-5.53647e-13
-5.48157e-13
-5.42826e-13
-5.37931e-13
-5.31146e-13
-5.24811e-13
-5.18076e-13
-5.09368e-13
-5.00132e-13
-4.90104e-13
-4.81543e-13
-4.76395e-13
-4.68244e-13
-4.59272e-13
-4.50587e-13
-4.45544e-13
-4.36216e-13
-4.28442e-13
-4.18892e-13
-4.12286e-13
-4.09478e-13
-4.06159e-13
-3.97492e-13
-3.84961e-13
-3.72397e-13
-3.65629e-13
-3.58492e-13
-3.55711e-13
-3.50565e-13
-3.40456e-13
-3.31961e-13
-3.2314e-13
-3.20124e-13
-3.1327e-13
-3.05783e-13
-2.96446e-13
-2.88108e-13
-2.85707e-13
-2.77984e-13
-2.73184e-13
-2.68187e-13
-2.5481e-13
-2.41082e-13
-2.31665e-13
-2.25343e-13
-2.22926e-13
-2.24282e-13
-2.15907e-13
-2.07906e-13
-1.98396e-13
-1.86665e-13
-1.72788e-13
-1.61775e-13
-1.60491e-13
-1.57533e-13
-1.53317e-13
-1.44527e-13
-1.37629e-13
-1.28953e-13
-1.14551e-13
-1.03503e-13
-9.31453e-14
-8.3797e-14
-8.56017e-14
-8.35258e-14
-7.57261e-14
-6.85695e-14
-5.94329e-14
-5.29733e-14
-4.70691e-14
-4.14862e-14
-3.74472e-14
-3.09452e-14
-1.73283e-14
-5.47886e-15
2.19596e-15
-6.38897e-16
-6.88932e-13
-6.87092e-13
-6.8502e-13
-6.86205e-13
-6.85125e-13
-6.80094e-13
-6.80438e-13
-6.76967e-13
-6.70212e-13
-6.62378e-13
-6.54278e-13
-6.47238e-13
-6.39695e-13
-6.37124e-13
-6.34624e-13
-6.29346e-13
-6.25262e-13
-6.19928e-13
-6.09651e-13
-5.95238e-13
-5.8268e-13
-5.74719e-13
-5.64486e-13
-5.54874e-13
-5.48552e-13
-5.37594e-13
-5.34045e-13
-5.30834e-13
-5.26204e-13
-5.20131e-13
-5.11367e-13
-5.00849e-13
-4.89175e-13
-4.7902e-13
-4.7352e-13
-4.66325e-13
-4.60977e-13
-4.53433e-13
-4.4758e-13
-4.35303e-13
-4.27154e-13
-4.162e-13
-4.11943e-13
-4.11541e-13
-4.04722e-13
-3.97038e-13
-3.85839e-13
-3.75484e-13
-3.66655e-13
-3.58186e-13
-3.52477e-13
-3.48946e-13
-3.40855e-13
-3.34948e-13
-3.278e-13
-3.18959e-13
-3.11966e-13
-3.04213e-13
-2.96106e-13
-2.90262e-13
-2.879e-13
-2.876e-13
-2.77589e-13
-2.65454e-13
-2.47682e-13
-2.3836e-13
-2.31803e-13
-2.27767e-13
-2.22506e-13
-2.19376e-13
-2.13186e-13
-2.11184e-13
-2.04624e-13
-1.91622e-13
-1.71964e-13
-1.5611e-13
-1.54e-13
-1.58028e-13
-1.54578e-13
-1.44492e-13
-1.36347e-13
-1.2624e-13
-1.16027e-13
-1.0737e-13
-9.68481e-14
-8.65196e-14
-8.05551e-14
-7.96696e-14
-7.42064e-14
-6.7104e-14
-5.7418e-14
-5.21816e-14
-4.66595e-14
-4.00306e-14
-3.31137e-14
-2.74758e-14
-1.60949e-14
-6.51142e-15
-8.14237e-16
-4.87824e-16
-6.86799e-13
-6.86116e-13
-6.78658e-13
-6.87257e-13
-6.86977e-13
-6.84087e-13
-6.77687e-13
-6.71345e-13
-6.65742e-13
-6.57835e-13
-6.5373e-13
-6.49072e-13
-6.47744e-13
-6.41849e-13
-6.36226e-13
-6.32541e-13
-6.2757e-13
-6.20903e-13
-6.10195e-13
-5.95712e-13
-5.77352e-13
-5.639e-13
-5.55759e-13
-5.53406e-13
-5.48183e-13
-5.43004e-13
-5.36496e-13
-5.30204e-13
-5.26748e-13
-5.22692e-13
-5.14224e-13
-5.01371e-13
-4.91368e-13
-4.83139e-13
-4.78419e-13
-4.68274e-13
-4.58051e-13
-4.52414e-13
-4.4567e-13
-4.3523e-13
-4.25341e-13
-4.21028e-13
-4.16145e-13
-4.09917e-13
-3.9977e-13
-3.90398e-13
-3.83468e-13
-3.75758e-13
-3.68472e-13
-3.61875e-13
-3.55348e-13
-3.49597e-13
-3.38978e-13
-3.29578e-13
-3.30489e-13
-3.29703e-13
-3.15212e-13
-3.00481e-13
-2.91333e-13
-2.84438e-13
-2.82261e-13
-2.79449e-13
-2.78393e-13
-2.68858e-13
-2.52556e-13
-2.43613e-13
-2.30659e-13
-2.28461e-13
-2.22702e-13
-2.17231e-13
-2.12571e-13
-2.11432e-13
-2.05061e-13
-1.89849e-13
-1.73775e-13
-1.60287e-13
-1.56267e-13
-1.58742e-13
-1.5097e-13
-1.41231e-13
-1.34691e-13
-1.27007e-13
-1.18761e-13
-1.08508e-13
-9.80018e-14
-8.61635e-14
-7.99385e-14
-7.92533e-14
-7.2335e-14
-6.49476e-14
-5.73311e-14
-5.10531e-14
-4.38552e-14
-3.84418e-14
-3.35997e-14
-2.60696e-14
-1.61953e-14
-7.78696e-15
1.00636e-16
1.11554e-15
-6.83401e-13
-6.92579e-13
-6.87025e-13
-6.8245e-13
-6.83102e-13
-6.82e-13
-6.77256e-13
-6.76442e-13
-6.66931e-13
-6.54006e-13
-6.49645e-13
-6.48628e-13
-6.46196e-13
-6.43465e-13
-6.39211e-13
-6.30205e-13
-6.19891e-13
-6.12785e-13
-6.07133e-13
-5.97699e-13
-5.90201e-13
-5.81927e-13
-5.70437e-13
-5.53712e-13
-5.39993e-13
-5.33381e-13
-5.35051e-13
-5.31954e-13
-5.27634e-13
-5.24108e-13
-5.14791e-13
-5.0283e-13
-4.88125e-13
-4.76007e-13
-4.69797e-13
-4.64878e-13
-4.642e-13
-4.58455e-13
-4.4639e-13
-4.39275e-13
-4.27604e-13
-4.17751e-13
-4.14758e-13
-4.07786e-13
-3.98777e-13
-3.90044e-13
-3.80772e-13
-3.75944e-13
-3.71353e-13
-3.64112e-13
-3.56393e-13
-3.4755e-13
-3.40834e-13
-3.33625e-13
-3.28752e-13
-3.231e-13
-3.17243e-13
-3.09243e-13
-3.00866e-13
-2.89835e-13
-2.81123e-13
-2.74688e-13
-2.6945e-13
-2.64032e-13
-2.54344e-13
-2.45964e-13
-2.36616e-13
-2.29511e-13
-2.23209e-13
-2.18811e-13
-2.15051e-13
-2.06941e-13
-1.99079e-13
-1.9018e-13
-1.76286e-13
-1.6532e-13
-1.56446e-13
-1.53756e-13
-1.50206e-13
-1.42132e-13
-1.35621e-13
-1.25047e-13
-1.16845e-13
-1.07073e-13
-9.6422e-14
-8.72788e-14
-8.23134e-14
-7.75737e-14
-7.29409e-14
-6.454e-14
-5.76233e-14
-5.35176e-14
-4.61898e-14
-3.80684e-14
-2.92449e-14
-2.12051e-14
-1.48114e-14
-9.22023e-15
-2.37367e-15
6.16786e-16
-6.82349e-13
-6.86719e-13
-6.88004e-13
-6.83607e-13
-6.83108e-13
-6.84428e-13
-6.74515e-13
-6.64322e-13
-6.59877e-13
-6.57921e-13
-6.55765e-13
-6.52713e-13
-6.49725e-13
-6.4477e-13
-6.39628e-13
-6.31254e-13
-6.24547e-13
-6.20882e-13
-6.12065e-13
-5.97291e-13
-5.79014e-13
-5.65076e-13
-5.56922e-13
-5.481e-13
-5.47165e-13
-5.44861e-13
-5.39366e-13
-5.31e-13
-5.25748e-13
-5.23727e-13
-5.17065e-13
-5.06167e-13
-4.93072e-13
-4.76304e-13
-4.65976e-13
-4.65114e-13
-4.65214e-13
-4.59654e-13
-4.51915e-13
-4.40229e-13
-4.25874e-13
-4.16071e-13
-4.07883e-13
-4.03722e-13
-3.98807e-13
-3.92489e-13
-3.85369e-13
-3.76983e-13
-3.71148e-13
-3.70786e-13
-3.62809e-13
-3.46124e-13
-3.36339e-13
-3.28977e-13
-3.23731e-13
-3.21618e-13
-3.17595e-13
-3.08315e-13
-2.96283e-13
-2.87735e-13
-2.84109e-13
-2.79699e-13
-2.72817e-13
-2.6397e-13
-2.50279e-13
-2.40326e-13
-2.34865e-13
-2.3207e-13
-2.26407e-13
-2.18617e-13
-2.12086e-13
-2.06765e-13
-1.99251e-13
-1.88605e-13
-1.77328e-13
-1.6216e-13
-1.54602e-13
-1.52904e-13
-1.52574e-13
-1.47323e-13
-1.38615e-13
-1.28045e-13
-1.163e-13
-1.04326e-13
-9.51656e-14
-8.74562e-14
-8.23174e-14
-7.61022e-14
-7.03593e-14
-6.36121e-14
-5.76561e-14
-5.22679e-14
-4.63691e-14
-3.81787e-14
-2.85594e-14
-1.89419e-14
-1.14812e-14
-6.43807e-15
-8.02066e-16
1.04766e-16
-6.80891e-13
-6.88857e-13
-6.89137e-13
-6.84976e-13
-6.81818e-13
-6.86756e-13
-6.83557e-13
-6.70384e-13
-6.53426e-13
-6.50224e-13
-6.49602e-13
-6.51133e-13
-6.50185e-13
-6.47896e-13
-6.42414e-13
-6.32276e-13
-6.22757e-13
-6.15664e-13
-6.03519e-13
-5.94597e-13
-5.86728e-13
-5.73271e-13
-5.61598e-13
-5.48452e-13
-5.4689e-13
-5.44458e-13
-5.41347e-13
-5.35386e-13
-5.26903e-13
-5.22538e-13
-5.13902e-13
-5.02028e-13
-4.92054e-13
-4.76982e-13
-4.64643e-13
-4.62812e-13
-4.63714e-13
-4.60437e-13
-4.51544e-13
-4.41028e-13
-4.2422e-13
-4.14451e-13
-4.11399e-13
-4.06546e-13
-3.99083e-13
-3.91444e-13
-3.8781e-13
-3.81197e-13
-3.71771e-13
-3.61384e-13
-3.54296e-13
-3.48482e-13
-3.40308e-13
-3.27714e-13
-3.28109e-13
-3.25006e-13
-3.16543e-13
-3.10388e-13
-3.03276e-13
-2.89935e-13
-2.82482e-13
-2.76838e-13
-2.68195e-13
-2.60657e-13
-2.50315e-13
-2.42445e-13
-2.33099e-13
-2.29599e-13
-2.23116e-13
-2.21487e-13
-2.14394e-13
-2.09509e-13
-2.02512e-13
-1.88566e-13
-1.74189e-13
-1.62247e-13
-1.57693e-13
-1.53505e-13
-1.49041e-13
-1.43533e-13
-1.37541e-13
-1.28583e-13
-1.16793e-13
-1.04774e-13
-9.80521e-14
-8.98062e-14
-8.24784e-14
-7.62888e-14
-7.06089e-14
-6.20588e-14
-5.55297e-14
-4.99636e-14
-4.25913e-14
-3.45429e-14
-2.7845e-14
-2.2743e-14
-1.02975e-14
-3.17153e-15
2.03767e-15
8.82973e-16
-6.87084e-13
-6.86417e-13
-6.82451e-13
-6.78572e-13
-6.80594e-13
-6.75355e-13
-6.71728e-13
-6.72858e-13
-6.695e-13
-6.62557e-13
-6.57992e-13
-6.50019e-13
-6.44417e-13
-6.43197e-13
-6.40711e-13
-6.34272e-13
-6.25662e-13
-6.21897e-13
-6.10742e-13
-5.94368e-13
-5.75478e-13
-5.6357e-13
-5.57514e-13
-5.55456e-13
-5.48396e-13
-5.45645e-13
-5.41258e-13
-5.33963e-13
-5.27554e-13
-5.21508e-13
-5.13977e-13
-5.01411e-13
-4.89518e-13
-4.76978e-13
-4.67995e-13
-4.65808e-13
-4.67482e-13
-4.6045e-13
-4.50064e-13
-4.39828e-13
-4.25276e-13
-4.12603e-13
-4.09788e-13
-4.06698e-13
-4.02717e-13
-3.92296e-13
-3.83065e-13
-3.79836e-13
-3.75101e-13
-3.64242e-13
-3.53754e-13
-3.48636e-13
-3.42198e-13
-3.3096e-13
-3.23522e-13
-3.20401e-13
-3.14245e-13
-3.09484e-13
-3.04181e-13
-2.95304e-13
-2.84651e-13
-2.77195e-13
-2.67811e-13
-2.60381e-13
-2.53471e-13
-2.43641e-13
-2.33499e-13
-2.24521e-13
-2.20504e-13
-2.21871e-13
-2.13231e-13
-2.07757e-13
-2.01006e-13
-1.89215e-13
-1.77826e-13
-1.65601e-13
-1.54614e-13
-1.48982e-13
-1.48443e-13
-1.48281e-13
-1.41541e-13
-1.27001e-13
-1.15496e-13
-1.0258e-13
-9.77638e-14
-9.20697e-14
-8.48906e-14
-7.48587e-14
-6.6165e-14
-6.08551e-14
-5.54332e-14
-4.89918e-14
-4.38692e-14
-3.60656e-14
-2.7002e-14
-1.85295e-14
-1.07537e-14
-4.3917e-15
1.85335e-15
2.35003e-15
-6.86354e-13
-6.85329e-13
-6.82492e-13
-6.79901e-13
-6.86178e-13
-6.83612e-13
-6.72067e-13
-6.65806e-13
-6.61825e-13
-6.59348e-13
-6.58362e-13
-6.57135e-13
-6.46263e-13
-6.38708e-13
-6.36148e-13
-6.31504e-13
-6.27553e-13
-6.20255e-13
-6.08391e-13
-5.923e-13
-5.78732e-13
-5.65175e-13
-5.55976e-13
-5.55739e-13
-5.55082e-13
-5.45742e-13
-5.38156e-13
-5.34278e-13
-5.31369e-13
-5.24168e-13
-5.16137e-13
-5.02725e-13
-4.89027e-13
-4.76099e-13
-4.64976e-13
-4.64231e-13
-4.62007e-13
-4.59348e-13
-4.54047e-13
-4.43126e-13
-4.28238e-13
-4.17142e-13
-4.10255e-13
-4.0131e-13
-3.99357e-13
-3.93437e-13
-3.86064e-13
-3.76829e-13
-3.70605e-13
-3.64576e-13
-3.5471e-13
-3.4871e-13
-3.4188e-13
-3.32354e-13
-3.29544e-13
-3.24643e-13
-3.12789e-13
-3.03764e-13
-3.00511e-13
-2.93098e-13
-2.86534e-13
-2.7684e-13
-2.69395e-13
-2.62443e-13
-2.5343e-13
-2.41983e-13
-2.35271e-13
-2.25043e-13
-2.17183e-13
-2.15623e-13
-2.1292e-13
-2.08612e-13
-2.02555e-13
-1.89547e-13
-1.76851e-13
-1.6591e-13
-1.57859e-13
-1.50778e-13
-1.50542e-13
-1.46832e-13
-1.38959e-13
-1.28238e-13
-1.16777e-13
-1.04535e-13
-9.62744e-14
-8.73126e-14
-8.05711e-14
-7.65924e-14
-7.06151e-14
-6.10354e-14
-5.44298e-14
-4.75074e-14
-4.08014e-14
-3.35137e-14
-2.54577e-14
-1.98365e-14
-1.23142e-14
-2.83928e-15
2.35936e-15
4.67697e-16
-6.81428e-13
-6.83937e-13
-6.84018e-13
-6.82578e-13
-6.81108e-13
-6.7544e-13
-6.71324e-13
-6.68339e-13
-6.67492e-13
-6.64383e-13
-6.59728e-13
-6.55693e-13
-6.49118e-13
-6.40759e-13
-6.34981e-13
-6.28321e-13
-6.2546e-13
-6.18558e-13
-6.06357e-13
-5.94587e-13
-5.79281e-13
-5.66323e-13
-5.61016e-13
-5.56466e-13
-5.48114e-13
-5.43677e-13
-5.42033e-13
-5.38142e-13
-5.30723e-13
-5.20313e-13
-5.11653e-13
-5.01619e-13
-4.88705e-13
-4.77108e-13
-4.67942e-13
-4.6931e-13
-4.68968e-13
-4.60932e-13
-4.49591e-13
-4.36126e-13
-4.2568e-13
-4.20108e-13
-4.11699e-13
-4.01898e-13
-3.96781e-13
-3.90091e-13
-3.88276e-13
-3.86522e-13
-3.75034e-13
-3.61298e-13
-3.52235e-13
-3.49905e-13
-3.42748e-13
-3.31696e-13
-3.27642e-13
-3.23601e-13
-3.16321e-13
-3.06531e-13
-2.98768e-13
-2.91544e-13
-2.88697e-13
-2.8005e-13
-2.70343e-13
-2.61497e-13
-2.49921e-13
-2.41425e-13
-2.32772e-13
-2.26404e-13
-2.18536e-13
-2.13746e-13
-2.09084e-13
-2.08762e-13
-2.03534e-13
-1.89718e-13
-1.76973e-13
-1.66013e-13
-1.59816e-13
-1.53872e-13
-1.4624e-13
-1.38235e-13
-1.40641e-13
-1.34494e-13
-1.1809e-13
-1.0568e-13
-9.59494e-14
-8.53576e-14
-7.84413e-14
-7.5747e-14
-7.00986e-14
-6.11212e-14
-5.33471e-14
-4.80684e-14
-4.12946e-14
-3.23628e-14
-2.76283e-14
-1.83941e-14
-9.2933e-15
-1.52962e-15
3.18274e-15
-9.8422e-18
-6.87914e-13
-6.85063e-13
-6.82712e-13
-6.79985e-13
-6.75513e-13
-6.73322e-13
-6.70558e-13
-6.70731e-13
-6.68902e-13
-6.65156e-13
-6.58843e-13
-6.54878e-13
-6.49586e-13
-6.43812e-13
-6.36661e-13
-6.26992e-13
-6.1728e-13
-6.11226e-13
-6.06308e-13
-5.98782e-13
-5.82039e-13
-5.70247e-13
-5.61585e-13
-5.54201e-13
-5.49931e-13
-5.45897e-13
-5.42722e-13
-5.39071e-13
-5.29067e-13
-5.22841e-13
-5.13052e-13
-5.00959e-13
-4.87235e-13
-4.75021e-13
-4.70335e-13
-4.69234e-13
-4.66044e-13
-4.59462e-13
-4.4911e-13
-4.37852e-13
-4.26273e-13
-4.17309e-13
-4.12546e-13
-4.065e-13
-4.01162e-13
-3.94412e-13
-3.84821e-13
-3.78034e-13
-3.73602e-13
-3.65315e-13
-3.58963e-13
-3.49868e-13
-3.4086e-13
-3.32859e-13
-3.26654e-13
-3.18959e-13
-3.15092e-13
-3.08372e-13
-2.98984e-13
-2.92314e-13
-2.89533e-13
-2.82502e-13
-2.71333e-13
-2.59778e-13
-2.50881e-13
-2.41896e-13
-2.32419e-13
-2.24841e-13
-2.18495e-13
-2.13926e-13
-2.11099e-13
-2.09641e-13
-2.0246e-13
-1.87175e-13
-1.75881e-13
-1.6598e-13
-1.59163e-13
-1.52876e-13
-1.49008e-13
-1.44069e-13
-1.37242e-13
-1.2906e-13
-1.1886e-13
-1.08324e-13
-1.00567e-13
-8.63934e-14
-7.76505e-14
-7.26976e-14
-6.92773e-14
-5.82589e-14
-5.08153e-14
-4.72498e-14
-4.50611e-14
-3.36793e-14
-2.32713e-14
-1.73324e-14
-1.04687e-14
5.06358e-16
1.82472e-15
-1.02246e-15
-6.90185e-13
-6.84158e-13
-6.78705e-13
-6.78944e-13
-6.71875e-13
-6.73027e-13
-6.70926e-13
-6.72058e-13
-6.71925e-13
-6.63409e-13
-6.58001e-13
-6.55798e-13
-6.54054e-13
-6.4554e-13
-6.36838e-13
-6.2983e-13
-6.21869e-13
-6.11291e-13
-6.04785e-13
-5.92376e-13
-5.82206e-13
-5.70455e-13
-5.58866e-13
-5.5254e-13
-5.4876e-13
-5.49417e-13
-5.43598e-13
-5.37902e-13
-5.2927e-13
-5.21756e-13
-5.13462e-13
-5.0307e-13
-4.8773e-13
-4.77311e-13
-4.68891e-13
-4.6549e-13
-4.6486e-13
-4.59917e-13
-4.49776e-13
-4.38324e-13
-4.29605e-13
-4.20204e-13
-4.11744e-13
-4.05313e-13
-3.99386e-13
-3.92862e-13
-3.85334e-13
-3.80473e-13
-3.75834e-13
-3.66416e-13
-3.56074e-13
-3.46099e-13
-3.4045e-13
-3.3521e-13
-3.29773e-13
-3.23541e-13
-3.1626e-13
-3.0705e-13
-3.01176e-13
-2.96415e-13
-2.911e-13
-2.815e-13
-2.67926e-13
-2.5824e-13
-2.4914e-13
-2.40313e-13
-2.30865e-13
-2.2565e-13
-2.18448e-13
-2.17298e-13
-2.12222e-13
-2.05935e-13
-1.96435e-13
-1.84884e-13
-1.74558e-13
-1.64298e-13
-1.62603e-13
-1.59674e-13
-1.50224e-13
-1.41116e-13
-1.34362e-13
-1.2696e-13
-1.17812e-13
-1.07157e-13
-9.56242e-14
-8.36144e-14
-7.88416e-14
-7.49787e-14
-6.81287e-14
-6.34274e-14
-5.78504e-14
-4.7239e-14
-3.83779e-14
-3.16963e-14
-2.33164e-14
-1.48174e-14
-8.37272e-15
-4.68117e-15
-1.41558e-15
-1.30854e-15
-6.87977e-13
-6.82545e-13
-6.80609e-13
-6.78507e-13
-6.7588e-13
-6.72677e-13
-6.68081e-13
-6.70986e-13
-6.71171e-13
-6.67003e-13
-6.6107e-13
-6.55016e-13
-6.53082e-13
-6.44132e-13
-6.33953e-13
-6.24567e-13
-6.16061e-13
-6.1182e-13
-6.05613e-13
-5.95049e-13
-5.83559e-13
-5.71998e-13
-5.61382e-13
-5.56156e-13
-5.53828e-13
-5.47322e-13
-5.40522e-13
-5.32417e-13
-5.25384e-13
-5.22e-13
-5.1451e-13
-5.07443e-13
-4.95741e-13
-4.84093e-13
-4.67344e-13
-4.6207e-13
-4.60467e-13
-4.56507e-13
-4.49003e-13
-4.38382e-13
-4.31444e-13
-4.20629e-13
-4.14312e-13
-4.04072e-13
-3.99921e-13
-3.9406e-13
-3.89776e-13
-3.82049e-13
-3.72312e-13
-3.59748e-13
-3.55041e-13
-3.51445e-13
-3.44263e-13
-3.31899e-13
-3.25124e-13
-3.18868e-13
-3.11609e-13
-3.09863e-13
-3.02381e-13
-3.00423e-13
-2.99822e-13
-2.79001e-13
-2.66029e-13
-2.59989e-13
-2.51973e-13
-2.42816e-13
-2.33233e-13
-2.26483e-13
-2.15904e-13
-2.11815e-13
-2.07847e-13
-2.08764e-13
-2.01074e-13
-1.88211e-13
-1.72379e-13
-1.60375e-13
-1.62024e-13
-1.5816e-13
-1.49852e-13
-1.43849e-13
-1.36483e-13
-1.27363e-13
-1.16274e-13
-1.05603e-13
-9.64484e-14
-8.50107e-14
-7.79671e-14
-7.50774e-14
-6.92162e-14
-5.92755e-14
-5.20408e-14
-4.68524e-14
-3.89113e-14
-3.12113e-14
-2.68686e-14
-2.08081e-14
-8.63059e-15
-1.623e-15
3.19752e-15
-1.45114e-18
-6.82608e-13
-6.84643e-13
-6.84341e-13
-6.78345e-13
-6.73365e-13
-6.7377e-13
-6.72197e-13
-6.68516e-13
-6.6919e-13
-6.65853e-13
-6.62708e-13
-6.58555e-13
-6.51479e-13
-6.42729e-13
-6.34865e-13
-6.28017e-13
-6.23375e-13
-6.18688e-13
-6.07997e-13
-5.92798e-13
-5.7557e-13
-5.62344e-13
-5.58363e-13
-5.58345e-13
-5.54869e-13
-5.46782e-13
-5.37662e-13
-5.32704e-13
-5.25433e-13
-5.23129e-13
-5.18481e-13
-5.04239e-13
-4.91004e-13
-4.82016e-13
-4.73503e-13
-4.67977e-13
-4.62812e-13
-4.55379e-13
-4.48217e-13
-4.39727e-13
-4.29941e-13
-4.20228e-13
-4.11323e-13
-4.06505e-13
-4.04925e-13
-3.95741e-13
-3.87673e-13
-3.7617e-13
-3.73475e-13
-3.66282e-13
-3.54822e-13
-3.50088e-13
-3.43585e-13
-3.35266e-13
-3.28352e-13
-3.15753e-13
-3.04821e-13
-3.07869e-13
-3.10689e-13
-3.02119e-13
-2.92165e-13
-2.81133e-13
-2.69638e-13