/*--------------------------------*- C++ -*----------------------------------*\
| =========                 |                                                 |
| \\      /  F ield         | OpenFOAM: The Open Source CFD Toolbox           |
|  \\    /   O peration     | Version:  v2012                                 |
|   \\  /    A nd           | Website:  www.openfoam.com                      |
|    \\/     M anipulation  |                                                 |
\*---------------------------------------------------------------------------*/
FoamFile
{
    version     2.0;
    format      ascii;
    class       surfaceScalarField;
    location    "8";
    object      phi;
}
// * * * * * * * * * * * * * * * * * * * * * * * * * * * * * * * * * * * * * //

dimensions      [0 3 -1 0 0 0 0];
oriented        oriented;


internalField   nonuniform List<scalar> 
130560
(
3.71948e-06
-3.71948e-06
7.43894e-06
-3.71946e-06
1.11584e-05
-3.71942e-06
1.48777e-05
-3.71936e-06
1.8597e-05
-3.71928e-06
2.23162e-05
-3.71917e-06
2.60352e-05
-3.71902e-06
2.9754e-05
-3.71885e-06
3.34727e-05
-3.71863e-06
3.7191e-05
-3.71836e-06
4.09091e-05
-3.71804e-06
4.46267e-05
-3.71766e-06
4.83439e-05
-3.7172e-06
5.20606e-05
-3.71666e-06
5.57766e-05
-3.71603e-06
5.94919e-05
-3.7153e-06
6.32064e-05
-3.71446e-06
6.69198e-05
-3.71348e-06
7.06322e-05
-3.71237e-06
7.43433e-05
-3.7111e-06
7.8053e-05
-3.70966e-06
8.1761e-05
-3.70804e-06
8.54672e-05
-3.70621e-06
8.91714e-05
-3.70417e-06
9.28733e-05
-3.70189e-06
9.65726e-05
-3.69935e-06
0.000100269
-3.69654e-06
0.000103963
-3.69344e-06
0.000107653
-3.69002e-06
0.000111339
-3.68627e-06
0.000115021
-3.68216e-06
0.000118699
-3.67767e-06
0.000122372
-3.67277e-06
0.000126039
-3.66746e-06
0.000129701
-3.66169e-06
0.000133356
-3.65545e-06
0.000137005
-3.64871e-06
0.000140646
-3.64144e-06
0.00014428
-3.63363e-06
0.000147905
-3.62524e-06
0.000151521
-3.61625e-06
0.000155128
-3.60663e-06
0.000158724
-3.59636e-06
0.00016231
-3.58541e-06
0.000165884
-3.57375e-06
0.000169445
-3.56135e-06
0.000172993
-3.54819e-06
0.000176527
-3.53425e-06
0.000180047
-3.51948e-06
0.000183551
-3.50388e-06
0.000187038
-3.48741e-06
0.000190508
-3.47004e-06
0.00019396
-3.45175e-06
0.000197392
-3.43252e-06
0.000200805
-3.41232e-06
0.000204196
-3.39113e-06
0.000207565
-3.36891e-06
0.00021091
-3.34566e-06
0.000214232
-3.32135e-06
0.000217528
-3.29595e-06
0.000220797
-3.26945e-06
0.000224039
-3.24183e-06
0.000227252
-3.21307e-06
0.000230435
-3.18315e-06
0.000233587
-3.15206e-06
0.000236707
-3.11979e-06
0.000239793
-3.08632e-06
0.000242845
-3.05163e-06
0.000245861
-3.01573e-06
0.000248839
-2.9786e-06
0.00025178
-2.94023e-06
0.00025468
-2.90063e-06
0.00025754
-2.85978e-06
0.000260358
-2.81769e-06
0.000263132
-2.77436e-06
0.000265862
-2.72979e-06
0.000268546
-2.68398e-06
0.000271183
-2.63695e-06
0.000273771
-2.58869e-06
0.000276311
-2.53923e-06
0.000278799
-2.48856e-06
0.000281236
-2.43672e-06
0.00028362
-2.3837e-06
0.000285949
-2.32955e-06
0.000288223
-2.27426e-06
0.000290441
-2.21787e-06
0.000292602
-2.1604e-06
0.000294704
-2.10188e-06
0.000296746
-2.04234e-06
0.000298728
-1.9818e-06
0.000300648
-1.92031e-06
0.000302506
-1.85789e-06
0.000304301
-1.79457e-06
0.000306031
-1.73041e-06
0.000307696
-1.66543e-06
0.000309296
-1.59968e-06
0.000310829
-1.53319e-06
0.000312295
-1.46602e-06
0.000313693
-1.39821e-06
0.000315023
-1.3298e-06
0.000316284
-1.26084e-06
0.000317475
-1.19138e-06
0.000318597
-1.12146e-06
0.000319648
-1.05114e-06
0.000320629
-9.80466e-07
0.000321538
-9.09486e-07
0.000322376
-8.38252e-07
0.000323143
-7.66815e-07
0.000323838
-6.95226e-07
0.000324462
-6.23536e-07
0.000325014
-5.51797e-07
0.000325494
-4.80059e-07
0.000325902
-4.08373e-07
0.000326239
-3.36788e-07
0.000326504
-2.65355e-07
0.000326698
-1.94122e-07
0.000326822
-1.23137e-07
0.000326874
-5.24481e-08
0.000326856
1.78989e-08
0.000326768
8.78583e-08
0.000326611
1.57386e-07
0.000326384
2.26438e-07
0.000326089
2.94974e-07
0.000325726
3.62952e-07
0.000325296
4.30333e-07
0.000324799
4.97079e-07
0.000324236
5.63154e-07
0.000323607
6.28523e-07
0.000322914
6.93153e-07
0.000322157
7.57012e-07
0.000321337
8.2007e-07
0.000320455
8.82299e-07
0.000319511
9.43672e-07
0.000318507
1.00416e-06
0.000317443
1.06375e-06
0.000316321
1.12241e-06
0.000315141
1.18012e-06
0.000313904
1.23687e-06
0.000312611
1.29264e-06
0.000311264
1.34741e-06
0.000309863
1.40117e-06
0.000308409
1.45391e-06
0.000306903
1.50561e-06
0.000305347
1.55628e-06
0.000303741
1.60589e-06
0.000302086
1.65446e-06
0.000300385
1.70196e-06
0.000298636
1.7484e-06
0.000296842
1.79378e-06
0.000295004
1.8381e-06
0.000293123
1.88135e-06
0.000291199
1.92355e-06
0.000289235
1.96468e-06
0.00028723
2.00477e-06
0.000285186
2.04381e-06
0.000283104
2.0818e-06
0.000280986
2.11877e-06
0.000278831
2.15471e-06
0.000276641
2.18964e-06
0.000274418
2.22356e-06
0.000272161
2.25649e-06
0.000269873
2.28843e-06
0.000267553
2.31941e-06
0.000265204
2.34943e-06
0.000262825
2.3785e-06
0.000260419
2.40665e-06
0.000257985
2.43388e-06
0.000255525
2.46021e-06
0.000253039
2.48566e-06
0.000250529
2.51023e-06
0.000247995
2.53396e-06
0.000245438
2.55684e-06
0.000242859
2.57891e-06
0.000240259
2.60017e-06
0.000237638
2.62065e-06
0.000234998
2.64035e-06
0.000232339
2.65931e-06
0.000229661
2.67753e-06
0.000226966
2.69503e-06
0.000224254
2.71183e-06
0.000221526
2.72794e-06
0.000218783
2.7434e-06
0.000216025
2.7582e-06
0.000213252
2.77237e-06
0.000210466
2.78593e-06
0.000207667
2.79889e-06
0.000204856
2.81127e-06
0.000202033
2.82309e-06
0.000199199
2.83436e-06
0.000196354
2.8451e-06
0.000193498
2.85533e-06
0.000190633
2.86506e-06
0.000187759
2.8743e-06
0.000184876
2.88309e-06
0.000181984
2.89142e-06
0.000179085
2.89931e-06
0.000176178
2.90679e-06
0.000173264
2.91386e-06
0.000170344
2.92054e-06
0.000167417
2.92684e-06
0.000164484
2.93278e-06
0.000161546
2.93837e-06
0.000158602
2.94363e-06
0.000155654
2.94857e-06
0.000152701
2.95319e-06
0.000149743
2.95752e-06
0.000146781
2.96157e-06
0.000143816
2.96535e-06
0.000140847
2.96886e-06
0.000137875
2.97213e-06
0.0001349
2.97516e-06
0.000131922
2.97797e-06
0.000128941
2.98056e-06
0.000125958
2.98295e-06
0.000122973
2.98515e-06
0.000119986
2.98716e-06
0.000116997
2.989e-06
0.000114006
2.99067e-06
0.000111014
2.99219e-06
0.000108021
2.99356e-06
0.000105026
2.9948e-06
0.00010203
2.9959e-06
9.90331e-05
2.99689e-06
9.60354e-05
2.99776e-06
9.30369e-05
2.99853e-06
9.00377e-05
2.9992e-06
8.70379e-05
2.99978e-06
8.40376e-05
3.00027e-06
8.10369e-05
3.00069e-06
7.80359e-05
3.00104e-06
7.50346e-05
3.00132e-06
7.2033e-05
3.00155e-06
6.90313e-05
3.00172e-06
6.60294e-05
3.00184e-06
6.30275e-05
3.00193e-06
6.00255e-05
3.00197e-06
5.70236e-05
3.00198e-06
5.40216e-05
3.00197e-06
5.10197e-05
3.00193e-06
4.80178e-05
3.00187e-06
4.5016e-05
3.0018e-06
4.20143e-05
3.00171e-06
3.90127e-05
3.00161e-06
3.60112e-05
3.00151e-06
3.30098e-05
3.0014e-06
3.00085e-05
3.0013e-06
2.70073e-05
3.00119e-06
2.40062e-05
3.00109e-06
2.10052e-05
3.001e-06
1.80043e-05
3.00091e-06
1.50034e-05
3.00084e-06
1.20027e-05
3.00077e-06
9.00195e-06
3.00072e-06
6.00128e-06
3.00067e-06
3.00063e-06
3.00065e-06
3.00063e-06
3.7195e-06
-7.43897e-06
7.43898e-06
-7.43894e-06
1.11584e-05
-7.43886e-06
1.48778e-05
-7.43874e-06
1.85971e-05
-7.43858e-06
2.23163e-05
-7.43836e-06
2.60354e-05
-7.43808e-06
2.97542e-05
-7.43773e-06
3.34729e-05
-7.4373e-06
3.71913e-05
-7.43678e-06
4.09094e-05
-7.43614e-06
4.46272e-05
-7.43538e-06
4.83444e-05
-7.43448e-06
5.20612e-05
-7.43341e-06
5.57773e-05
-7.43217e-06
5.94928e-05
-7.43072e-06
6.32073e-05
-7.42904e-06
6.6921e-05
-7.4271e-06
7.06335e-05
-7.42489e-06
7.43447e-05
-7.42237e-06
7.80546e-05
-7.41951e-06
8.17628e-05
-7.41628e-06
8.54693e-05
-7.41264e-06
8.91737e-05
-7.40857e-06
9.28758e-05
-7.40403e-06
9.65754e-05
-7.39898e-06
0.000100272
-7.39338e-06
0.000103966
-7.38719e-06
0.000107656
-7.38038e-06
0.000111343
-7.37289e-06
0.000115026
-7.36469e-06
0.000118704
-7.35574e-06
0.000122377
-7.34597e-06
0.000126045
-7.33536e-06
0.000129707
-7.32385e-06
0.000133363
-7.31139e-06
0.000137012
-7.29794e-06
0.000140654
-7.28343e-06
0.000144288
-7.26783e-06
0.000147914
-7.25108e-06
0.000151531
-7.23313e-06
0.000155138
-7.21392e-06
0.000158735
-7.1934e-06
0.000162321
-7.17152e-06
0.000165896
-7.14823e-06
0.000169458
-7.12346e-06
0.000173007
-7.09717e-06
0.000176542
-7.0693e-06
0.000180062
-7.03981e-06
0.000183567
-7.00862e-06
0.000187055
-6.97571e-06
0.000190526
-6.941e-06
0.000193979
-6.90445e-06
0.000197413
-6.86601e-06
0.000200826
-6.82563e-06
0.000204218
-6.78327e-06
0.000207588
-6.73886e-06
0.000210935
-6.69238e-06
0.000214257
-6.64378e-06
0.000217554
-6.593e-06
0.000220825
-6.54002e-06
0.000224068
-6.4848e-06
0.000227282
-6.42729e-06
0.000230466
-6.36748e-06
0.000233619
-6.30531e-06
0.00023674
-6.24078e-06
0.000239828
-6.17384e-06
0.000242881
-6.10448e-06
0.000245898
-6.03269e-06
0.000248878
-5.95843e-06
0.000251819
-5.88171e-06
0.000254721
-5.8025e-06
0.000257582
-5.72081e-06
0.000260401
-5.63663e-06
0.000263177
-5.54996e-06
0.000265908
-5.46082e-06
0.000268593
-5.36919e-06
0.000271231
-5.27511e-06
0.000273821
-5.17859e-06
0.000276361
-5.07965e-06
0.000278851
-4.9783e-06
0.000281289
-4.8746e-06
0.000283674
-4.76855e-06
0.000286004
-4.66022e-06
0.00028828
-4.54962e-06
0.000290499
-4.43682e-06
0.00029266
-4.32186e-06
0.000294763
-4.20479e-06
0.000296806
-4.08567e-06
0.000298789
-3.96457e-06
0.00030071
-3.84154e-06
0.000302569
-3.71666e-06
0.000304365
-3.59e-06
0.000306096
-3.46163e-06
0.000307762
-3.33163e-06
0.000309362
-3.20008e-06
0.000310896
-3.06707e-06
0.000312363
-2.93269e-06
0.000313762
-2.79702e-06
0.000315092
-2.66015e-06
0.000316353
-2.52219e-06
0.000317545
-2.38321e-06
0.000318667
-2.24333e-06
0.000319719
-2.10264e-06
0.000320699
-1.96124e-06
0.000321609
-1.81922e-06
0.000322448
-1.67671e-06
0.000323215
-1.53378e-06
0.00032391
-1.39055e-06
0.000324534
-1.24712e-06
0.000325085
-1.10359e-06
0.000325565
-9.60067e-07
0.000325974
-8.16644e-07
0.00032631
-6.73425e-07
0.000326575
-5.3051e-07
0.000326769
-3.87995e-07
0.000326892
-2.45978e-07
0.000326944
-1.04554e-07
0.000326926
3.61855e-08
0.000326838
1.76149e-07
0.00032668
3.15247e-07
0.000326453
4.53394e-07
0.000326157
5.90505e-07
0.000325794
7.265e-07
0.000325363
8.613e-07
0.000324865
9.94829e-07
0.000324301
1.12701e-06
0.000323672
1.25779e-06
0.000322978
1.38708e-06
0.00032222
1.51483e-06
0.000321399
1.64097e-06
0.000320516
1.76545e-06
0.000319572
1.88822e-06
0.000318566
2.00923e-06
0.000317502
2.12842e-06
0.000316378
2.24576e-06
0.000315197
2.36121e-06
0.00031396
2.47472e-06
0.000312666
2.58627e-06
0.000311317
2.69583e-06
0.000309915
2.80336e-06
0.00030846
2.90884e-06
0.000306954
3.01226e-06
0.000305396
3.1136e-06
0.000303789
3.21284e-06
0.000302134
3.30997e-06
0.000300431
3.40498e-06
0.000298681
3.49786e-06
0.000296887
3.58862e-06
0.000295047
3.67726e-06
0.000293165
3.76376e-06
0.00029124
3.84815e-06
0.000289275
3.93042e-06
0.000287269
4.01058e-06
0.000285224
4.08865e-06
0.000283141
4.16464e-06
0.000281021
4.23856e-06
0.000278866
4.31044e-06
0.000276675
4.38028e-06
0.00027445
4.44811e-06
0.000272193
4.51396e-06
0.000269904
4.57784e-06
0.000267583
4.63978e-06
0.000265233
4.6998e-06
0.000262853
4.75794e-06
0.000260446
4.81421e-06
0.000258011
4.86866e-06
0.00025555
4.92131e-06
0.000253063
4.97218e-06
0.000250552
5.02132e-06
0.000248018
5.06875e-06
0.00024546
5.1145e-06
0.00024288
5.15862e-06
0.000240279
5.20113e-06
0.000237658
5.24206e-06
0.000235017
5.28146e-06
0.000232357
5.31935e-06
0.000229678
5.35577e-06
0.000226983
5.39075e-06
0.00022427
5.42434e-06
0.000221542
5.45655e-06
0.000218798
5.48744e-06
0.000216039
5.51703e-06
0.000213266
5.54536e-06
0.000210479
5.57245e-06
0.00020768
5.59836e-06
0.000204868
5.6231e-06
0.000202044
5.64672e-06
0.000199209
5.66925e-06
0.000196364
5.69071e-06
0.000193508
5.71115e-06
0.000190642
5.73059e-06
0.000187768
5.74907e-06
0.000184884
5.76662e-06
0.000181992
5.78327e-06
0.000179093
5.79904e-06
0.000176185
5.81398e-06
0.000173271
5.82811e-06
0.00017035
5.84145e-06
0.000167423
5.85404e-06
0.00016449
5.86591e-06
0.000161551
5.87708e-06
0.000158607
5.88758e-06
0.000155658
5.89744e-06
0.000152705
5.90668e-06
0.000149747
5.91533e-06
0.000146785
5.92341e-06
0.00014382
5.93095e-06
0.00014085
5.93797e-06
0.000137878
5.9445e-06
0.000134903
5.95055e-06
0.000131925
5.95615e-06
0.000128944
5.96133e-06
0.000125961
5.96609e-06
0.000122975
5.97047e-06
0.000119988
5.97449e-06
0.000116999
5.97815e-06
0.000114008
5.98149e-06
0.000111016
5.98452e-06
0.000108022
5.98726e-06
0.000105027
5.98972e-06
0.000102031
5.99192e-06
9.9034e-05
5.99389e-06
9.60361e-05
5.99562e-06
9.30375e-05
5.99715e-06
9.00382e-05
5.99849e-06
8.70384e-05
5.99964e-06
8.4038e-05
6.00062e-06
8.10373e-05
6.00145e-06
7.80362e-05
6.00214e-06
7.50348e-05
6.0027e-06
7.20332e-05
6.00315e-06
6.90314e-05
6.00349e-06
6.60295e-05
6.00373e-06
6.30276e-05
6.00389e-06
6.00256e-05
6.00398e-06
5.70235e-05
6.004e-06
5.40215e-05
6.00396e-06
5.10196e-05
6.00388e-06
4.80177e-05
6.00376e-06
4.50159e-05
6.0036e-06
4.20142e-05
6.00342e-06
3.90126e-05
6.00323e-06
3.60111e-05
6.00302e-06
3.30097e-05
6.00281e-06
3.00084e-05
6.00259e-06
2.70072e-05
6.00238e-06
2.40061e-05
6.00218e-06
2.10051e-05
6.00199e-06
1.80042e-05
6.00181e-06
1.50034e-05
6.00166e-06
1.20026e-05
6.00153e-06
9.00191e-06
6.00142e-06
6.00125e-06
6.00133e-06
3.00062e-06
6.00128e-06
6.00125e-06
3.71953e-06
-1.11585e-05
7.43905e-06
-1.11585e-05
1.11585e-05
-1.11583e-05
1.4878e-05
-1.11582e-05
1.85973e-05
-1.11579e-05
2.23166e-05
-1.11576e-05
2.60357e-05
-1.11572e-05
2.97547e-05
-1.11567e-05
3.34735e-05
-1.11561e-05
3.7192e-05
-1.11553e-05
4.09102e-05
-1.11544e-05
4.46281e-05
-1.11533e-05
4.83455e-05
-1.11519e-05
5.20624e-05
-1.11504e-05
5.57788e-05
-1.11485e-05
5.94944e-05
-1.11464e-05
6.32093e-05
-1.11439e-05
6.69232e-05
-1.1141e-05
7.0636e-05
-1.11377e-05
7.43476e-05
-1.1134e-05
7.80578e-05
-1.11297e-05
8.17665e-05
-1.11249e-05
8.54733e-05
-1.11195e-05
8.91782e-05
-1.11135e-05
9.28809e-05
-1.11067e-05
9.6581e-05
-1.10992e-05
0.000100278
-1.10908e-05
0.000103973
-1.10816e-05
0.000107664
-1.10714e-05
0.000111351
-1.10602e-05
0.000115035
-1.1048e-05
0.000118713
-1.10346e-05
0.000122387
-1.102e-05
0.000126056
-1.10042e-05
0.000129719
-1.0987e-05
0.000133376
-1.09683e-05
0.000137027
-1.09482e-05
0.00014067
-1.09265e-05
0.000144305
-1.09032e-05
0.000147932
-1.08781e-05
0.00015155
-1.08513e-05
0.000155159
-1.08225e-05
0.000158757
-1.07918e-05
0.000162345
-1.07591e-05
0.000165921
-1.07242e-05
0.000169484
-1.06871e-05
0.000173035
-1.06477e-05
0.000176572
-1.0606e-05
0.000180094
-1.05618e-05
0.0001836
-1.05151e-05
0.00018709
-1.04658e-05
0.000190563
-1.04138e-05
0.000194018
-1.0359e-05
0.000197453
-1.03014e-05
0.000200868
-1.02409e-05
0.000204262
-1.01774e-05
0.000207634
-1.01109e-05
0.000210983
-1.00412e-05
0.000214308
-9.96837e-06
0.000217607
-9.89226e-06
0.00022088
-9.81284e-06
0.000224125
-9.73005e-06
0.000227342
-9.64383e-06
0.000230528
-9.55414e-06
0.000233684
-9.46093e-06
0.000236807
-9.36416e-06
0.000239897
-9.26379e-06
0.000242953
-9.15977e-06
0.000245972
-9.0521e-06
0.000248954
-8.94073e-06
0.000251898
-8.82566e-06
0.000254803
-8.70686e-06
0.000257666
-8.58432e-06
0.000260488
-8.45805e-06
0.000263266
-8.32805e-06
0.000265999
-8.19431e-06
0.000268687
-8.05687e-06
0.000271327
-7.91572e-06
0.00027392
-7.77091e-06
0.000276463
-7.62246e-06
0.000278955
-7.47042e-06
0.000281395
-7.31481e-06
0.000283782
-7.1557e-06
0.000286115
-6.99314e-06
0.000288393
-6.82719e-06
0.000290614
-6.65793e-06
0.000292777
-6.48542e-06
0.000294882
-6.30974e-06
0.000296928
-6.13099e-06
0.000298912
-5.94925e-06
0.000300835
-5.76463e-06
0.000302696
-5.57722e-06
0.000304493
-5.38713e-06
0.000306226
-5.19448e-06
0.000307894
-4.99938e-06
0.000309495
-4.80195e-06
0.000311031
-4.60233e-06
0.000312499
-4.40064e-06
0.000313899
-4.19702e-06
0.00031523
-3.9916e-06
0.000316492
-3.78453e-06
0.000317685
-3.57595e-06
0.000318808
-3.36601e-06
0.00031986
-3.15484e-06
0.000320841
-2.94262e-06
0.000321752
-2.72947e-06
0.000322591
-2.51557e-06
0.000323358
-2.30105e-06
0.000324053
-2.08608e-06
0.000324677
-1.87081e-06
0.000325229
-1.65539e-06
0.000325709
-1.43997e-06
0.000326117
-1.22471e-06
0.000326453
-1.00976e-06
0.000326718
-7.95263e-07
0.000326911
-5.81371e-07
0.000327034
-3.68227e-07
0.000327085
-1.55974e-07
0.000327066
5.52483e-08
0.000326977
2.65304e-07
0.000326818
4.74059e-07
0.00032659
6.81384e-07
0.000326293
8.87153e-07
0.000325929
1.09124e-06
0.000325496
1.29354e-06
0.000324997
1.49392e-06
0.000324432
1.69229e-06
0.000323801
1.88853e-06
0.000323106
2.08254e-06
0.000322346
2.27424e-06
0.000321524
2.46353e-06
0.000320639
2.65032e-06
0.000319693
2.83454e-06
0.000318686
3.01611e-06
0.000317619
3.19495e-06
0.000316494
3.37101e-06
0.000315311
3.54423e-06
0.000314071
3.71454e-06
0.000312775
3.8819e-06
0.000311425
4.04627e-06
0.000310021
4.20759e-06
0.000308564
4.36585e-06
0.000307055
4.521e-06
0.000305496
4.67302e-06
0.000303887
4.8219e-06
0.000302229
4.9676e-06
0.000300524
5.11012e-06
0.000298772
5.24946e-06
0.000296975
5.3856e-06
0.000295134
5.51854e-06
0.000293249
5.64829e-06
0.000291323
5.77486e-06
0.000289355
5.89826e-06
0.000287347
6.01849e-06
0.0002853
6.13558e-06
0.000283215
6.24954e-06
0.000281093
6.36041e-06
0.000278936
6.46819e-06
0.000276743
6.57293e-06
0.000274516
6.67465e-06
0.000272257
6.77339e-06
0.000269966
6.86918e-06
0.000267643
6.96206e-06
0.000265291
7.05206e-06
0.00026291
7.13923e-06
0.0002605
7.22361e-06
0.000258064
7.30524e-06
0.000255601
7.38417e-06
0.000253113
7.46045e-06
0.0002506
7.53411e-06
0.000248063
7.60521e-06
0.000245504
7.67381e-06
0.000242923
7.73994e-06
0.00024032
7.80366e-06
0.000237697
7.86502e-06
0.000235055
7.92407e-06
0.000232393
7.98086e-06
0.000229713
8.03545e-06
0.000227016
8.08788e-06
0.000224302
8.13821e-06
0.000221573
8.1865e-06
0.000218827
8.23278e-06
0.000216067
8.27712e-06
0.000213293
8.31957e-06
0.000210505
8.36017e-06
0.000207705
8.39899e-06
0.000204892
8.43606e-06
0.000202067
8.47145e-06
0.000199231
8.5052e-06
0.000196384
8.53735e-06
0.000193527
8.56797e-06
0.000190661
8.59709e-06
0.000187785
8.62477e-06
0.000184901
8.65106e-06
0.000182008
8.67599e-06
0.000179107
8.69962e-06
0.000176199
8.72198e-06
0.000173284
8.74314e-06
0.000170363
8.76312e-06
0.000167435
8.78197e-06
0.000164501
8.79974e-06
0.000161562
8.81646e-06
0.000158617
8.83218e-06
0.000155668
8.84693e-06
0.000152713
8.86076e-06
0.000149755
8.8737e-06
0.000146793
8.88579e-06
0.000143827
8.89707e-06
0.000140857
8.90757e-06
0.000137884
8.91733e-06
0.000134908
8.92639e-06
0.00013193
8.93476e-06
0.000128949
8.9425e-06
0.000125965
8.94962e-06
0.000122979
8.95617e-06
0.000119992
8.96217e-06
0.000117002
8.96764e-06
0.000114011
8.97263e-06
0.000111018
8.97715e-06
0.000108024
8.98123e-06
0.000105029
8.9849e-06
0.000102033
8.98819e-06
9.90357e-05
8.99111e-06
9.60377e-05
8.9937e-06
9.30389e-05
8.99597e-06
9.00394e-05
8.99795e-06
8.70394e-05
8.99966e-06
8.40389e-05
9.00112e-06
8.1038e-05
9.00236e-06
7.80367e-05
9.00337e-06
7.50352e-05
9.0042e-06
7.20335e-05
9.00485e-06
6.90317e-05
9.00535e-06
6.60297e-05
9.0057e-06
6.30276e-05
9.00593e-06
6.00256e-05
9.00605e-06
5.70235e-05
9.00607e-06
5.40215e-05
9.006e-06
5.10195e-05
9.00587e-06
4.80176e-05
9.00568e-06
4.50157e-05
9.00544e-06
4.2014e-05
9.00516e-06
3.90124e-05
9.00486e-06
3.60108e-05
9.00454e-06
3.30094e-05
9.00421e-06
3.00082e-05
9.00388e-06
2.7007e-05
9.00356e-06
2.40059e-05
9.00325e-06
2.10049e-05
9.00296e-06
1.8004e-05
9.0027e-06
1.50032e-05
9.00246e-06
1.20025e-05
9.00226e-06
9.00183e-06
9.00209e-06
6.0012e-06
9.00197e-06
3.00059e-06
9.00188e-06
9.00184e-06
3.71959e-06
-1.48781e-05
7.43916e-06
-1.4878e-05
1.11587e-05
-1.48779e-05
1.48782e-05
-1.48777e-05
1.85976e-05
-1.48774e-05
2.2317e-05
-1.4877e-05
2.60362e-05
-1.48764e-05
2.97553e-05
-1.48758e-05
3.34742e-05
-1.4875e-05
3.71929e-05
-1.4874e-05
4.09113e-05
-1.48728e-05
4.46294e-05
-1.48713e-05
4.83471e-05
-1.48696e-05
5.20643e-05
-1.48676e-05
5.57809e-05
-1.48652e-05
5.94969e-05
-1.48623e-05
6.32121e-05
-1.48591e-05
6.69265e-05
-1.48553e-05
7.06398e-05
-1.4851e-05
7.43519e-05
-1.48461e-05
7.80626e-05
-1.48405e-05
8.17719e-05
-1.48342e-05
8.54794e-05
-1.4827e-05
8.9185e-05
-1.4819e-05
9.28884e-05
-1.48101e-05
9.65894e-05
-1.48001e-05
0.000100288
-1.47891e-05
0.000103983
-1.47769e-05
0.000107675
-1.47634e-05
0.000111363
-1.47486e-05
0.000115048
-1.47324e-05
0.000118728
-1.47147e-05
0.000122403
-1.46953e-05
0.000126073
-1.46743e-05
0.000129738
-1.46515e-05
0.000133396
-1.46268e-05
0.000137048
-1.46001e-05
0.000140693
-1.45713e-05
0.00014433
-1.45403e-05
0.000147959
-1.4507e-05
0.000151579
-1.44713e-05
0.00015519
-1.44331e-05
0.00015879
-1.43923e-05
0.00016238
-1.43487e-05
0.000165958
-1.43023e-05
0.000169524
-1.4253e-05
0.000173077
-1.42007e-05
0.000176616
-1.41451e-05
0.00018014
-1.40864e-05
0.000183649
-1.40242e-05
0.000187142
-1.39586e-05
0.000190618
-1.38894e-05
0.000194075
-1.38165e-05
0.000197513
-1.37398e-05
0.000200932
-1.36592e-05
0.000204329
-1.35747e-05
0.000207704
-1.34861e-05
0.000211056
-1.33933e-05
0.000214384
-1.32962e-05
0.000217687
-1.31948e-05
0.000220963
-1.3089e-05
0.000224211
-1.29787e-05
0.000227431
-1.28638e-05
0.000230622
-1.27443e-05
0.000233781
-1.26201e-05
0.000236908
-1.24911e-05
0.000240001
-1.23574e-05
0.00024306
-1.22187e-05
0.000246083
-1.20752e-05
0.00024907
-1.19267e-05
0.000252017
-1.17733e-05
0.000254925
-1.16149e-05
0.000257793
-1.14516e-05
0.000260618
-1.12832e-05
0.000263399
-1.11099e-05
0.000266137
-1.09315e-05
0.000268828
-1.07482e-05
0.000271472
-1.056e-05
0.000274068
-1.03669e-05
0.000276615
-1.01689e-05
0.00027911
-9.96608e-06
0.000281554
-9.75853e-06
0.000283945
-9.5463e-06
0.000286281
-9.32945e-06
0.000288562
-9.10808e-06
0.000290786
-8.88228e-06
0.000292953
-8.65214e-06
0.000295061
-8.41778e-06
0.000297109
-8.1793e-06
0.000299097
-7.93683e-06
0.000301023
-7.6905e-06
0.000302886
-7.44045e-06
0.000304686
-7.18682e-06
0.000306421
-6.92977e-06
0.000308091
-6.66945e-06
0.000309695
-6.40602e-06
0.000311232
-6.13966e-06
0.000312702
-5.87053e-06
0.000314104
-5.59882e-06
0.000315437
-5.32471e-06
0.000316701
-5.04839e-06
0.000317895
-4.77006e-06
0.000319019
-4.4899e-06
0.000320072
-4.20812e-06
0.000321055
-3.92491e-06
0.000321966
-3.64048e-06
0.000322805
-3.35503e-06
0.000323573
-3.06878e-06
0.000324269
-2.78191e-06
0.000324893
-2.49464e-06
0.000325444
-2.20717e-06
0.000325924
-1.91972e-06
0.000326332
-1.63247e-06
0.000326668
-1.34564e-06
0.000326932
-1.05941e-06
0.000327125
-7.73999e-07
0.000327246
-4.89586e-07
0.000327296
-2.06365e-07
0.000327276
7.5478e-08
0.000327186
3.55759e-07
0.000327025
6.34302e-07
0.000326796
9.10931e-07
0.000326497
1.18548e-06
0.000326131
1.45778e-06
0.000325697
1.72769e-06
0.000325196
1.99504e-06
0.000324628
2.25968e-06
0.000323995
2.52149e-06
0.000323298
2.78033e-06
0.000322536
3.03607e-06
0.000321711
3.28859e-06
0.000320823
3.53777e-06
0.000319874
3.78351e-06
0.000318865
4.02571e-06
0.000317795
4.26427e-06
0.000316667
4.49911e-06
0.000315481
4.73015e-06
0.000314239
4.95731e-06
0.00031294
5.18053e-06
0.000311586
5.39974e-06
0.000310179
5.6149e-06
0.000308719
5.82596e-06
0.000307207
6.03287e-06
0.000305645
6.2356e-06
0.000304032
6.43412e-06
0.000302372
6.62841e-06
0.000300663
6.81846e-06
0.000298908
7.00424e-06
0.000297108
7.18576e-06
0.000295264
7.36302e-06
0.000293376
7.53601e-06
0.000291446
7.70475e-06
0.000289475
7.86926e-06
0.000287464
8.02954e-06
0.000285414
8.18563e-06
0.000283326
8.33755e-06
0.000281201
8.48532e-06
0.00027904
8.629e-06
0.000276845
8.7686e-06
0.000274615
8.90418e-06
0.000272353
9.03578e-06
0.000270058
9.16344e-06
0.000267733
9.28721e-06
0.000265378
9.40715e-06
0.000262994
9.52331e-06
0.000260582
9.63575e-06
0.000258143
9.74452e-06
0.000255677
9.84969e-06
0.000253186
9.95132e-06
0.000250671
1.00495e-05
0.000248132
1.01442e-05
0.00024557
1.02356e-05
0.000242986
1.03237e-05
0.000240382
1.04086e-05
0.000237756
1.04903e-05
0.000235111
1.05689e-05
0.000232448
1.06446e-05
0.000229766
1.07173e-05
0.000227067
1.07871e-05
0.000224351
1.08541e-05
0.000221619
1.09184e-05
0.000218872
1.09801e-05
0.00021611
1.10391e-05
0.000213333
1.10956e-05
0.000210544
1.11497e-05
0.000207742
1.12014e-05
0.000204927
1.12507e-05
0.000202101
1.12978e-05
0.000199263
1.13427e-05
0.000196415
1.13855e-05
0.000193557
1.14263e-05
0.000190689
1.1465e-05
0.000187812
1.15019e-05
0.000184926
1.15368e-05
0.000182032
1.157e-05
0.00017913
1.16014e-05
0.000176221
1.16312e-05
0.000173304
1.16593e-05
0.000170382
1.16859e-05
0.000167453
1.1711e-05
0.000164518
1.17346e-05
0.000161577
1.17568e-05
0.000158632
1.17777e-05
0.000155681
1.17973e-05
0.000152726
1.18157e-05
0.000149767
1.18329e-05
0.000146804
1.1849e-05
0.000143837
1.1864e-05
0.000140867
1.18779e-05
0.000137893
1.18909e-05
0.000134917
1.19029e-05
0.000131937
1.1914e-05
0.000128956
1.19243e-05
0.000125972
1.19337e-05
0.000122985
1.19424e-05
0.000119997
1.19504e-05
0.000117007
1.19576e-05
0.000114016
1.19642e-05
0.000111022
1.19702e-05
0.000108028
1.19756e-05
0.000105033
1.19805e-05
0.000102036
1.19848e-05
9.90383e-05
1.19887e-05
9.604e-05
1.19921e-05
9.30408e-05
1.19951e-05
9.00411e-05
1.19977e-05
8.70408e-05
1.19999e-05
8.40401e-05
1.20019e-05
8.1039e-05
1.20035e-05
7.80376e-05
1.20048e-05
7.50359e-05
1.20059e-05
7.2034e-05
1.20067e-05
6.9032e-05
1.20074e-05
6.60299e-05
1.20078e-05
6.30278e-05
1.20081e-05
6.00256e-05
1.20082e-05
5.70234e-05
1.20082e-05
5.40213e-05
1.20081e-05
5.10193e-05
1.20079e-05
4.80173e-05
1.20076e-05
4.50155e-05
1.20073e-05
4.20137e-05
1.20069e-05
3.9012e-05
1.20065e-05
3.60105e-05
1.20061e-05
3.30091e-05
1.20056e-05
3.00078e-05
1.20052e-05
2.70067e-05
1.20047e-05
2.40056e-05
1.20043e-05
2.10047e-05
1.20039e-05
1.80038e-05
1.20036e-05
1.5003e-05
1.20032e-05
1.20023e-05
1.2003e-05
9.0017e-06
1.20027e-05
6.00111e-06
1.20026e-05
3.00055e-06
1.20024e-05
1.20024e-05
3.71966e-06
-1.85978e-05
7.4393e-06
-1.85977e-05
1.11589e-05
-1.85975e-05
1.48785e-05
-1.85973e-05
1.8598e-05
-1.85969e-05
2.23175e-05
-1.85964e-05
2.60369e-05
-1.85958e-05
2.97561e-05
-1.8595e-05
3.34752e-05
-1.85941e-05
3.71941e-05
-1.85929e-05
4.09128e-05
-1.85914e-05
4.46311e-05
-1.85897e-05
4.83491e-05
-1.85876e-05
5.20667e-05
-1.85851e-05
5.57838e-05
-1.85822e-05
5.95002e-05
-1.85788e-05
6.32159e-05
-1.85748e-05
6.69308e-05
-1.85702e-05
7.06447e-05
-1.85649e-05
7.43575e-05
-1.85589e-05
7.8069e-05
-1.8552e-05
8.1779e-05
-1.85442e-05
8.54874e-05
-1.85354e-05
8.91939e-05
-1.85256e-05
9.28984e-05
-1.85145e-05
9.66005e-05
-1.85022e-05
0.0001003
-1.84886e-05
0.000103997
-1.84735e-05
0.00010769
-1.84568e-05
0.00011138
-1.84385e-05
0.000115066
-1.84184e-05
0.000118747
-1.83964e-05
0.000122424
-1.83724e-05
0.000126096
-1.83463e-05
0.000129763
-1.83179e-05
0.000133423
-1.82872e-05
0.000137077
-1.8254e-05
0.000140724
-1.82182e-05
0.000144363
-1.81796e-05
0.000147995
-1.81382e-05
0.000151617
-1.80938e-05
0.00015523
-1.80462e-05
0.000158834
-1.79954e-05
0.000162426
-1.79412e-05
0.000166007
-1.78834e-05
0.000169576
-1.7822e-05
0.000173132
-1.77567e-05
0.000176675
-1.76875e-05
0.000180202
-1.76143e-05
0.000183715
-1.75368e-05
0.000187211
-1.74549e-05
0.000190691
-1.73686e-05
0.000194152
-1.72777e-05
0.000197594
-1.7182e-05
0.000201016
-1.70815e-05
0.000204418
-1.6976e-05
0.000207797
-1.68654e-05
0.000211153
-1.67496e-05
0.000214485
-1.66284e-05
0.000217792
-1.65018e-05
0.000221073
-1.63697e-05
0.000224326
-1.6232e-05
0.000227551
-1.60885e-05
0.000230746
-1.59392e-05
0.00023391
-1.57841e-05
0.000237042
-1.56229e-05
0.00024014
-1.54558e-05
0.000243204
-1.52826e-05
0.000246232
-1.51032e-05
0.000249223
-1.49177e-05
0.000252176
-1.4726e-05
0.000255089
-1.4528e-05
0.000257961
-1.43238e-05
0.000260791
-1.41134e-05
0.000263578
-1.38966e-05
0.00026632
-1.36737e-05
0.000269016
-1.34445e-05
0.000271666
-1.32092e-05
0.000274266
-1.29677e-05
0.000276818
-1.27201e-05
0.000279318
-1.24665e-05
0.000281766
-1.22069e-05
0.000284162
-1.19415e-05
0.000286502
-1.16703e-05
0.000288788
-1.13934e-05
0.000291016
-1.1111e-05
0.000293187
-1.08231e-05
0.0002953
-1.05299e-05
0.000297352
-1.02316e-05
0.000299343
-9.92826e-06
0.000301273
-9.6201e-06
0.00030314
-9.30726e-06
0.000304943
-8.98995e-06
0.000306681
-8.66834e-06
0.000308355
-8.34263e-06
0.000309962
-8.01302e-06
0.000311502
-7.67974e-06
0.000312974
-7.343e-06
0.000314378
-7.00302e-06
0.000315714
-6.66003e-06
0.00031698
-6.31427e-06
0.000318175
-5.96599e-06
0.000319301
-5.61542e-06
0.000320356
-5.26282e-06
0.000321339
-4.90843e-06
0.000322251
-4.55251e-06
0.000323092
-4.19532e-06
0.00032386
-3.83711e-06
0.000324556
-3.47814e-06
0.00032518
-3.11867e-06
0.000325732
-2.75896e-06
0.000326211
-2.39925e-06
0.000326619
-2.03982e-06
0.000326954
-1.6809e-06
0.000327217
-1.32276e-06
0.000327409
-9.65625e-07
0.000327529
-6.09752e-07
0.000327578
-2.55376e-07
0.000327556
9.72687e-08
0.000327464
4.47954e-07
0.000327302
7.96457e-07
0.00032707
1.14256e-06
0.00032677
1.48605e-06
0.000326401
1.82673e-06
0.000325964
2.16439e-06
0.00032546
2.49885e-06
0.00032489
2.82992e-06
0.000324254
3.15743e-06
0.000323553
3.48122e-06
0.000322788
3.80112e-06
0.00032196
4.11698e-06
0.000321069
4.42865e-06
0.000320116
4.73602e-06
0.000319103
5.03894e-06
0.00031803
5.33731e-06
0.000316898
5.63101e-06
0.000315709
5.91995e-06
0.000314462
6.20402e-06
0.000313159
6.48316e-06
0.000311802
6.75728e-06
0.00031039
7.02632e-06
0.000308926
7.29021e-06
0.00030741
7.54891e-06
0.000305843
7.80238e-06
0.000304227
8.05058e-06
0.000302562
8.29347e-06
0.000300849
8.53105e-06
0.00029909
8.76329e-06
0.000297286
8.99019e-06
0.000295437
9.21175e-06
0.000293545
9.42798e-06
0.000291611
9.63888e-06
0.000289635
9.84448e-06
0.00028762
1.00448e-05
0.000285566
1.02399e-05
0.000283474
1.04297e-05
0.000281345
1.06143e-05
0.00027918
1.07939e-05
0.00027698
1.09683e-05
0.000274747
1.11377e-05
0.00027248
1.13021e-05
0.000270182
1.14616e-05
0.000267853
1.16162e-05
0.000265494
1.1766e-05
0.000263107
1.19111e-05
0.000260691
1.20516e-05
0.000258248
1.21874e-05
0.000255779
1.23188e-05
0.000253285
1.24457e-05
0.000250766
1.25682e-05
0.000248223
1.26865e-05
0.000245658
1.28006e-05
0.000243071
1.29106e-05
0.000240463
1.30166e-05
0.000237835
1.31186e-05
0.000235187
1.32168e-05
0.00023252
1.33112e-05