/*--------------------------------*- C++ -*----------------------------------*\
| =========                 |                                                 |
| \\      /  F ield         | OpenFOAM: The Open Source CFD Toolbox           |
|  \\    /   O peration     | Version:  v2012                                 |
|   \\  /    A nd           | Website:  www.openfoam.com                      |
|    \\/     M anipulation  |                                                 |
\*---------------------------------------------------------------------------*/
FoamFile
{
    version     2.0;
    format      ascii;
    class       volScalarField;
    location    "8";
    object      Psi_z;
}
// * * * * * * * * * * * * * * * * * * * * * * * * * * * * * * * * * * * * * //

dimensions      [0 2 -1 0 0 0 0];


internalField   nonuniform List<scalar> 
65536
(
9.29876e-06
2.78962e-05
4.64936e-05
6.50906e-05
8.36874e-05
0.000102284
0.000120879
0.000139474
0.000158068
0.000176661
0.000195252
0.000213842
0.000232429
0.000251014
0.000269596
0.000288175
0.00030675
0.00032532
0.000343885
0.000362445
0.000380997
0.000399542
0.000418079
0.000436605
0.000455121
0.000473625
0.000492116
0.000510592
0.000529052
0.000547494
0.000565916
0.000584317
0.000602695
0.000621047
0.000639372
0.000657666
0.000675928
0.000694156
0.000712345
0.000730495
0.0007486
0.00076666
0.00078467
0.000802627
0.000820527
0.000838367
0.000856144
0.000873853
0.00089149
0.000909052
0.000926533
0.00094393
0.000961238
0.000978452
0.000995567
0.00101258
0.00102948
0.00104627
0.00106295
0.00107949
0.00109591
0.00111219
0.00112833
0.00114433
0.00116017
0.00117585
0.00119137
0.00120672
0.0012219
0.00123689
0.00125169
0.0012663
0.0012807
0.0012949
0.00130889
0.00132265
0.00133619
0.0013495
0.00136257
0.00137539
0.00138797
0.00140028
0.00141234
0.00142413
0.00143564
0.00144688
0.00145783
0.00146849
0.00147885
0.00148892
0.00149868
0.00150813
0.00151726
0.00152608
0.00153457
0.00154274
0.00155058
0.00155808
0.00156524
0.00157207
0.00157855
0.00158468
0.00159047
0.0015959
0.00160098
0.00160571
0.00161008
0.0016141
0.00161776
0.00162106
0.001624
0.00162658
0.0016288
0.00163067
0.00163217
0.00163332
0.00163412
0.00163456
0.00163464
0.00163438
0.00163377
0.00163281
0.0016315
0.00162986
0.00162788
0.00162556
0.00162291
0.00161993
0.00161662
0.00161299
0.00160905
0.00160479
0.00160023
0.00159535
0.00159018
0.00158471
0.00157896
0.00157291
0.00156658
0.00155998
0.00155311
0.00154597
0.00153857
0.00153091
0.001523
0.00151484
0.00150645
0.00149782
0.00148896
0.00147988
0.00147058
0.00146106
0.00145134
0.00144141
0.00143128
0.00142096
0.00141046
0.00139977
0.00138891
0.00137787
0.00136666
0.0013553
0.00134377
0.0013321
0.00132027
0.00130831
0.0012962
0.00128396
0.00127159
0.0012591
0.00124648
0.00123375
0.00122091
0.00120796
0.0011949
0.00118174
0.00116849
0.00115515
0.00114171
0.00112819
0.00111459
0.0011009
0.00108715
0.00107331
0.00105942
0.00104545
0.00103142
0.00101733
0.00100318
0.000988982
0.000974728
0.000960423
0.000946072
0.000931675
0.000917236
0.000902756
0.000888237
0.000873683
0.000859094
0.000844473
0.000829821
0.00081514
0.000800433
0.0007857
0.000770943
0.000756164
0.000741364
0.000726544
0.000711707
0.000696852
0.000681982
0.000667097
0.000652199
0.000637288
0.000622366
0.000607433
0.000592491
0.00057754
0.000562582
0.000547616
0.000532643
0.000517665
0.000502682
0.000487694
0.000472702
0.000457707
0.000442708
0.000427707
0.000412703
0.000397698
0.000382691
0.000367683
0.000352674
0.000337664
0.000322654
0.000307643
0.000292633
0.000277622
0.000262612
0.000247602
0.000232592
0.000217582
0.000202574
0.000187565
0.000172557
0.00015755
0.000142543
0.000127537
0.000112532
9.75264e-05
8.25216e-05
6.75171e-05
5.2513e-05
3.75091e-05
2.25054e-05
7.50179e-06
2.78963e-05
8.36888e-05
0.000139481
0.000195272
0.000251063
0.000306852
0.000362639
0.000418423
0.000474205
0.000529984
0.000585758
0.000641527
0.000697289
0.000753045
0.000808792
0.000864529
0.000920254
0.000975965
0.00103166
0.00108734
0.001143
0.00119863
0.00125425
0.00130983
0.00136538
0.00142089
0.00147636
0.00153179
0.00158717
0.0016425
0.00169777
0.00175298
0.00180811
0.00186317
0.00191814
0.00197303
0.00202782
0.0020825
0.00213708
0.00219153
0.00224585
0.00230003
0.00235406
0.00240794
0.00246164
0.00251517
0.0025685
0.00262163
0.00267455
0.00272723
0.00277968
0.00283188
0.00288381
0.00293545
0.0029868
0.00303785
0.00308856
0.00313894
0.00318896
0.00323861
0.00328786
0.00333672
0.00338515
0.00343314
0.00348067
0.00352773
0.00357429
0.00362035
0.00366587
0.00371085
0.00375526
0.00379909
0.00384231
0.00388491
0.00392688
0.00396818
0.0040088
0.00404873
0.00408794
0.00412642
0.00416415
0.00420111
0.00423729
0.00427266
0.0043072
0.00434091
0.00437377
0.00440576
0.00443686
0.00446706
0.00449634
0.0045247
0.00455211
0.00457856
0.00460405
0.00462855
0.00465207
0.00467457
0.00469607
0.00471654
0.00473599
0.00475439
0.00477175
0.00478806
0.0048033
0.00481749
0.00483061
0.00484265
0.00485363
0.00486352
0.00487235
0.00488009
0.00488676
0.00489235
0.00489687
0.00490032
0.0049027
0.00490402
0.00490428
0.00490349
0.00490164
0.00489876
0.00489485
0.00488991
0.00488396
0.004877
0.00486904
0.0048601
0.00485018
0.0048393
0.00482746
0.00481468
0.00480098
0.00478636
0.00477084
0.00475443
0.00473715
0.00471901
0.00470003
0.00468022
0.00465959
0.00463816
0.00461595
0.00459297
0.00456924
0.00454477
0.00451958
0.00449369
0.00446711
0.00443985
0.00441194
0.00438339
0.00435421
0.00432442
0.00429404
0.00426308
0.00423156
0.00419949
0.00416689
0.00413377
0.00410016
0.00406605
0.00403147
0.00399644
0.00396096
0.00392506
0.00388874
0.00385201
0.0038149
0.00377742
0.00373957
0.00370137
0.00366283
0.00362398
0.0035848
0.00354533
0.00350557
0.00346552
0.00342521
0.00338465
0.00334383
0.00330278
0.00326151
0.00322001
0.00317831
0.00313641
0.00309432
0.00305205
0.00300961
0.002967
0.00292423
0.00288132
0.00283826
0.00279507
0.00275175
0.0027083
0.00266475
0.00262108
0.00257731
0.00253345
0.00248949
0.00244545
0.00240132
0.00235712
0.00231285
0.00226851
0.00222411
0.00217965
0.00213514
0.00209057
0.00204596
0.0020013
0.00195661
0.00191187
0.00186711
0.00182231
0.00177748
0.00173263
0.00168775
0.00164285
0.00159794
0.001553
0.00150805
0.00146309
0.00141811
0.00137312
0.00132813
0.00128312
0.00123811
0.0011931
0.00114807
0.00110305
0.00105802
0.00101299
0.000967962
0.00092293
0.000877898
0.000832866
0.000787835
0.000742804
0.000697775
0.000652747
0.00060772
0.000562695
0.000517672
0.00047265
0.00042763
0.000382611
0.000337594
0.000292579
0.000247564
0.000202551
0.000157539
0.000112527
6.75161e-05
2.25053e-05
4.6494e-05
0.000139482
0.000232469
0.000325455
0.000418439
0.000511421
0.0006044
0.000697376
0.000790346
0.000883311
0.000976269
0.00106922
0.00116216
0.00125508
0.001348
0.00144089
0.00153377
0.00162663
0.00171946
0.00181226
0.00190502
0.00199775
0.00209044
0.00218308
0.00227567
0.00236819
0.00246065
0.00255304
0.00264535
0.00273757
0.00282969
0.0029217
0.0030136
0.00310537
0.00319701
0.00328849
0.00337982
0.00347097
0.00356193
0.00365269
0.00374323
0.00383355
0.00392361
0.00401341
0.00410293
0.00419216
0.00428106
0.00436962
0.00445783
0.00454566
0.00463309
0.00472009
0.00480666
0.00489275
0.00497835
0.00506344
0.00514798
0.00523196
0.00531534
0.00539811
0.00548022
0.00556166
0.0056424
0.0057224
0.00580164
0.00588009
0.00595772
0.0060345
0.0061104
0.00618538
0.00625942
0.00633248
0.00640454
0.00647557
0.00654552
0.00661438
0.00668211
0.00674868
0.00681405
0.0068782
0.00694111
0.00700273
0.00706304
0.007122
0.0071796
0.00723581
0.00729059
0.00734391
0.00739577
0.00744611
0.00749494
0.00754221
0.00758791
0.00763201
0.0076745
0.00771536
0.00775456
0.00779208
0.00782792
0.00786205
0.00789447
0.00792515
0.00795409
0.00798127
0.00800669
0.00803033
0.0080522
0.00807228
0.00809057
0.00810707
0.00812177
0.00813468
0.00814579
0.00815511
0.00816264
0.00816839
0.00817235
0.00817454
0.00817497
0.00817364
0.00817056
0.00816575
0.00815922
0.00815098
0.00814105
0.00812944
0.00811617
0.00810125
0.0080847
0.00806655
0.00804681
0.0080255
0.00800265
0.00797827
0.00795239
0.00792502
0.00789621
0.00786596
0.0078343
0.00780126
0.00776687
0.00773114
0.0076941
0.00765579
0.00761622
0.00757542
0.00753342
0.00749025
0.00744593
0.00740048
0.00735395
0.00730634
0.00725769
0.00720803
0.00715737
0.00710576
0.0070532
0.00699974
0.00694539
0.00689018
0.00683413
0.00677728
0.00671963
0.00666123
0.00660208
0.00654222
0.00648167
0.00642045
0.00635859
0.00629609
0.006233
0.00616932
0.00610508
0.00604031
0.00597501
0.0059092
0.00584292
0.00577617
0.00570897
0.00564135
0.00557332
0.00550489
0.00543609
0.00536692
0.00529741
0.00522756
0.0051574
0.00508694
0.00501619
0.00494517
0.00487389
0.00480235
0.00473058
0.00465859
0.00458638
0.00451397
0.00444137
0.00436858
0.00429563
0.00422252
0.00414925
0.00407584
0.00400229
0.00392862
0.00385483
0.00378092
0.00370692
0.00363281
0.00355862
0.00348434
0.00340998
0.00333555
0.00326105
0.0031865
0.00311188
0.00303721
0.0029625
0.00288774
0.00281294
0.00273811
0.00266325
0.00258835
0.00251343
0.00243849
0.00236353
0.00228855
0.00221355
0.00213854
0.00206353
0.0019885
0.00191346
0.00183842
0.00176337
0.00168832
0.00161327
0.00153822
0.00146316
0.00138811
0.00131306
0.00123801
0.00116296
0.00108791
0.00101287
0.000937823
0.000862784
0.000787748
0.000712715
0.000637684
0.000562656
0.00048763
0.000412606
0.000337584
0.000262564
0.000187545
0.000112526
3.75087e-05
6.50919e-05
0.000195275
0.000325458
0.000455639
0.000585818
0.000715994
0.000846166
0.000976332
0.00110649
0.00123665
0.00136679
0.00149692
0.00162704
0.00175714
0.00188722
0.00201728
0.00214731
0.00227731
0.00240728
0.00253721
0.00266709
0.00279691
0.00292668
0.00305639
0.00318602
0.00331556
0.00344502
0.00357437
0.00370361
0.00383273
0.00396171
0.00409055
0.00421922
0.00434772
0.00447602
0.00460412
0.00473199
0.00485961
0.00498698
0.00511407
0.00524085
0.00536731
0.00549343
0.00561918
0.00574453
0.00586946
0.00599395
0.00611797
0.00624149
0.00636448
0.00648691
0.00660875
0.00672997
0.00685054
0.00697042
0.00708957
0.00720797
0.00732558
0.00744235
0.00755826
0.00767326
0.00778731
0.00790038
0.00801243
0.00812341
0.00823328
0.008342
0.00844953
0.00855583
0.00866085
0.00876455
0.00886689
0.00896781
0.00906729
0.00916527
0.00926172
0.00935658
0.00944981
0.00954138
0.00963124
0.00971934
0.00980565
0.00989013
0.00997272
0.0100534
0.0101321
0.0102089
0.0102835
0.0103562
0.0104267
0.0104951
0.0105613
0.0106253
0.0106871
0.0107466
0.0108038
0.0108587
0.0109113
0.0109615
0.0110093
0.0110547
0.0110977
0.0111382
0.0111762
0.0112118
0.011245
0.0112756
0.0113037
0.0113293
0.0113524
0.011373
0.0113911
0.0114066
0.0114197
0.0114302
0.0114382
0.0114438
0.0114468
0.0114474
0.0114455
0.0114412
0.0114345
0.0114253
0.0114137
0.0113998
0.0113835
0.0113649
0.011344
0.0113208
0.0112954
0.0112677
0.0112379
0.0112058
0.0111717
0.0111354
0.0110971
0.0110567
0.0110143
0.01097
0.0109237
0.0108755
0.0108254
0.0107735
0.0107199
0.0106644
0.0106073
0.0105484
0.010488
0.0104259
0.0103622
0.010297
0.0102303
0.0101622
0.0100926
0.0100217
0.00994937
0.00987576
0.00980088
0.00972475
0.00964742
0.00956892
0.00948929
0.00940855
0.00932675
0.00924392
0.00916008
0.00907528
0.00898954
0.0089029
0.00881538
0.00872702
0.00863784
0.00854788
0.00845716
0.00836571
0.00827356
0.00818074
0.00808726
0.00799316
0.00789847
0.0078032
0.00770738
0.00761103
0.00751417
0.00741683
0.00731903
0.00722079
0.00712212
0.00702306
0.0069236
0.00682379
0.00672362
0.00662313
0.00652232
0.00642121
0.00631982
0.00621817
0.00611626
0.00601411
0.00591174
0.00580915
0.00570636
0.00560338
0.00550023
0.00539691
0.00529344
0.00518982
0.00508606
0.00498218
0.00487818
0.00477407
0.00466986
0.00456556
0.00446117
0.00435671
0.00425217
0.00414756
0.00404289
0.00393817
0.0038334
0.00372858
0.00362373
0.00351884
0.00341391
0.00330896
0.00320399
0.00309899
0.00299398
0.00288895
0.00278391
0.00267885
0.00257379
0.00246873
0.00236366
0.00225858
0.00215351
0.00204843
0.00194335
0.00183828
0.00173321
0.00162814
0.00152307
0.00141801
0.00131295
0.00120789
0.00110284
0.000997797
0.000892754
0.000787715
0.000682679
0.000577646
0.000472616
0.000367587
0.000262561
0.000157536
5.2512e-05
8.36901e-05
0.00025107
0.000418449
0.000585826
0.0007532
0.000920571
0.00108794
0.0012553
0.00142265
0.00158999
0.00175732
0.00192463
0.00209193
0.00225921
0.00242646
0.00259369
0.00276088
0.00292803
0.00309514
0.0032622
0.0034292
0.00359613
0.00376299
0.00392977
0.00409645
0.00426303
0.00442948
0.00459581
0.004762
0.00492803
0.00509389
0.00525955
0.00542501
0.00559025
0.00575524
0.00591996
0.0060844
0.00624853
0.00641232
0.00657575
0.00673879
0.00690142
0.00706361
0.00722533
0.00738654
0.00754722
0.00770732
0.00786682
0.00802568
0.00818386
0.00834133
0.00849804
0.00865395
0.00880902
0.0089632
0.00911646
0.00926875
0.00942002
0.00957023
0.00971932
0.00986724
0.010014
0.0101594
0.0103035
0.0104463
0.0105876
0.0107275
0.0108658
0.0110025
0.0111376
0.011271
0.0114027
0.0115325
0.0116605
0.0117866
0.0119106
0.0120327
0.0121526
0.0122704
0.012386
0.0124994
0.0126104
0.0127191
0.0128254
0.0129292
0.0130304
0.0131291
0.0132252
0.0133187
0.0134094
0.0134974
0.0135826
0.0136649
0.0137444
0.013821
0.0138946
0.0139652
0.0140328
0.0140974
0.0141589
0.0142173
0.0142726
0.0143247
0.0143737
0.0144195
0.0144621
0.0145015
0.0145376
0.0145706
0.0146003
0.0146267
0.01465
0.01467
0.0146867
0.0147003
0.0147106
0.0147177
0.0147216
0.0147223
0.0147199
0.0147143
0.0147056
0.0146938
0.0146789
0.0146609
0.01464
0.014616
0.0145891
0.0145592
0.0145265
0.0144908
0.0144524
0.0144112
0.0143672
0.0143205
0.0142712
0.0142192
0.0141646
0.0141076
0.014048
0.013986
0.0139215
0.0138548
0.0137857
0.0137144
0.0136408
0.0135651
0.0134873
0.0134074
0.0133255
0.0132416
0.0131558
0.0130681
0.0129786
0.0128873
0.0127943
0.0126996
0.0126033
0.0125053
0.0124058
0.0123048
0.0122024
0.0120985
0.0119933
0.0118868
0.0117789
0.0116698
0.0115595
0.0114481
0.0113355
0.0112218
0.0111071
0.0109914
0.0108747
0.0107571
0.0106386
0.0105192
0.010399
0.010278
0.0101562
0.0100336
0.00991039
0.00978647
0.00966191
0.00953672
0.00941094
0.00928459
0.00915771
0.0090303
0.0089024
0.00877404
0.00864523
0.00851599
0.00838635
0.00825633
0.00812595
0.00799522
0.00786417
0.00773281
0.00760117
0.00746925
0.00733707
0.00720465
0.00707201
0.00693915
0.0068061
0.00667286
0.00653944
0.00640586
0.00627213
0.00613827
0.00600427
0.00587016
0.00573593
0.0056016
0.00546718
0.00533268
0.0051981
0.00506345
0.00492873
0.00479396
0.00465914
0.00452427
0.00438937
0.00425442
0.00411945
0.00398445
0.00384943
0.00371438
0.00357933
0.00344426
0.00330917
0.00317409
0.00303899
0.00290389
0.00276879
0.00263369
0.00249859
0.0023635
0.0022284
0.00209331
0.00195823
0.00182315
0.00168807
0.001553
0.00141793
0.00128288
0.00114782
0.00101277
0.000877725
0.000742683
0.000607645
0.00047261
0.000337577
0.000202545
6.7515e-05
0.000102289
0.000306866
0.000511442
0.000716015
0.000920586
0.00112515
0.00132971
0.00153427
0.00173881
0.00194334
0.00214786
0.00235237
0.00255685
0.00276131
0.00296574
0.00317013
0.00337449
0.0035788
0.00378306
0.00398725
0.00419138
0.00439543
0.00459939
0.00480324
0.00500699
0.0052106
0.00541408
0.0056174
0.00582055
0.0060235
0.00622625
0.00642877
0.00663104
0.00683303
0.00703473
0.0072361
0.00743712
0.00763777
0.00783801
0.00803781
0.00823715
0.00843598
0.00863427
0.00883199
0.00902909
0.00922554
0.0094213
0.00961631
0.00981055
0.010004
0.0101965
0.0103881
0.0105788
0.0107684
0.0109569
0.0111443
0.0113306
0.0115155
0.0116992
0.0118815
0.0120624
0.0122419
0.0124197
0.012596
0.0127706
0.0129434
0.0131145
0.0132837
0.0134509
0.0136161
0.0137793
0.0139403
0.0140991
0.0142556
0.0144098
0.0145616
0.0147109
0.0148576
0.0150017
0.0151431
0.0152817
0.0154175
0.0155505
0.0156805
0.0158074
0.0159313
0.0160521
0.0161696
0.0162839
0.0163949
0.0165025
0.0166067
0.0167074
0.0168047
0.0168983
0.0169884
0.0170747
0.0171575
0.0172364
0.0173117
0.0173831
0.0174507
0.0175144
0.0175743
0.0176303
0.0176824
0.0177306
0.0177748
0.017815
0.0178514
0.0178837
0.0179121
0.0179365
0.017957
0.0179735
0.0179861
0.0179948
0.0179995
0.0180004
0.0179974
0.0179905
0.0179798
0.0179653
0.0179471
0.0179251
0.0178994
0.01787
0.0178371
0.0178005
0.0177604
0.0177168
0.0176697
0.0176192
0.0175654
0.0175083
0.0174479
0.0173843
0.0173175
0.0172476
0.0171747
0.0170988
0.01702
0.0169383
0.0168538
0.0167665
0.0166765
0.0165839
0.0164887
0.0163909
0.0162907
0.0161881
0.0160831
0.0159759
0.0158664
0.0157547
0.0156409
0.0155251
0.0154072
0.0152874
0.0151657
0.0150422
0.0149169
0.0147899
0.0146612
0.0145309
0.014399
0.0142656
0.0141307
0.0139944
0.0138567
0.0137177
0.0135775
0.0134359
0.0132933
0.0131494
0.0130045
0.0128585
0.0127115
0.0125635
0.0124146
0.0122648
0.0121141
0.0119626
0.0118103
0.0116572
0.0115034
0.0113489
0.0111938
0.011038
0.0108817
0.0107247
0.0105673
0.0104093
0.0102508
0.0100918
0.00993242
0.0097726
0.00961239
0.00945181
0.00929087
0.00912961
0.00896803
0.00880615
0.008644
0.00848159
0.00831894
0.00815607
0.00799298
0.0078297
0.00766623
0.00750259
0.0073388
0.00717486
0.00701079
0.00684659
0.00668229
0.00651788
0.00635338
0.00618879
0.00602413
0.00585939
0.0056946
0.00552975
0.00536485
0.00519992
0.00503494
0.00486993
0.0047049
0.00453984
0.00437476
0.00420967
0.00404456
0.00387945
0.00371433
0.00354921
0.00338408
0.00321896
0.00305383
0.00288871
0.0027236
0.00255849
0.00239338
0.00222828
0.00206319
0.0018981
0.00173302
0.00156795
0.00140288
0.00123782
0.00107277
0.000907717
0.000742671
0.000577629
0.00041259
0.000247553
8.25176e-05
0.000120888
0.000362663
0.000604436
0.000846208
0.00108798
0.00132974
0.0015715
0.00181325
0.00205499
0.00229671
0.00253843
0.00278012
0.00302179
0.00326343
0.00350505
0.00374662
0.00398815
0.00422962
0.00447103
0.00471238
0.00495364
0.00519481
0.00543588
0.00567683
0.00591765
0.00615832
0.00639883
0.00663916
0.00687928
0.00711919
0.00735884
0.00759823
0.00783733
0.00807611
0.00831453
0.00855258
0.00879022
0.00902742
0.00926414
0.00950035
0.00973601
0.00997107
0.0102055
0.0104393
0.0106723
0.0109046
0.011136
0.0113666
0.0115962
0.0118249
0.0120526
0.0122792
0.0125046
0.0127288
0.0129518
0.0131734
0.0133936
0.0136124
0.0138296
0.0140452
0.0142591
0.0144713
0.0146817
0.0148901
0.0150966
0.0153011
0.0155034
0.0157035
0.0159013
0.0160967
0.0162897
0.0164801
0.016668
0.0168531
0.0170355
0.017215
0.0173916
0.0175652
0.0177356
0.0179029
0.0180669
0.0182276
0.0183848
0.0185386
0.0186888
0.0188353
0.0189782
0.0191172
0.0192524
0.0193837
0.019511
0.0196343
0.0197535
0.0198685
0.0199793
0.0200858
0.020188
0.0202858
0.0203792
0.0204682
0.0205527
0.0206326
0.020708
0.0207789
0.0208451
0.0209067
0.0209636
0.0210159
0.0210635
0.0211064
0.0211447
0.0211782
0.0212071
0.0212312
0.0212508
0.0212656
0.0212758
0.0212814
0.0212823
0.0212787
0.0212705
0.0212578
0.0212407
0.021219
0.0211929
0.0211625
0.0211277
0.0210886
0.0210453
0.0209978
0.0209462
0.0208904
0.0208307
0.0207669
0.0206993
0.0206278
0.0205525
0.0204735
0.0203908
0.0203045
0.0202146
0.0201214
0.0200247
0.0199246
0.0198213
0.0197148
0.0196052
0.0194926
0.0193769
0.0192583
0.0191369
0.0190127
0.0188858
0.0187563
0.0186242
0.0184896
0.0183525
0.0182131
0.0180714
0.0179275
0.0177814
0.0176332
0.0174829
0.0173307
0.0171766
0.0170206
0.0168628
0.0167033
0.0165421
0.0163793
0.0162149
0.016049
0.0158817
0.0157129
0.0155428
0.0153715
0.0151988
0.015025
0.01485
0.0146739
0.0144968
0.0143186
0.0141395
0.0139594
0.0137784
0.0135966
0.013414
0.0132305
0.0130464
0.0128615
0.012676
0.0124898
0.012303
0.0121156
0.0119277
0.0117393
0.0115504
0.011361
0.0111712
0.0109809
0.0107903
0.0105993
0.0104079
0.0102163
0.0100243
0.00983202
0.00963949
0.00944672
0.00925371
0.00906049
0.00886707
0.00867347
0.0084797
0.00828577
0.0080917
0.00789749
0.00770317
0.00750874
0.00731421
0.00711959
0.00692489
0.00673011
0.00653528
0.00634038
0.00614544
0.00595046
0.00575544
0.00556039
0.00536531
0.00517021
0.00497509
0.00477996
0.00458482
0.00438967
0.00419452
0.00399937
0.00380422
0.00360907
0.00341392
0.00321878
0.00302365
0.00282853
0.00263341
0.0024383
0.00224319
0.0020481
0.00185302
0.00165794
0.00146287
0.0012678
0.00107275
0.000877694
0.000682646
0.000487602
0.00029256
9.75198e-05
0.000139487
0.000418461
0.000697433
0.000976403
0.00125537
0.00153433
0.00181329
0.00209224
0.00237117
0.0026501
0.00292901
0.0032079
0.00348676
0.00376559
0.00404439
0.00432315
0.00460185
0.0048805
0.00515908
0.00543758
0.00571599
0.0059943
0.00627249
0.00655055
0.00682846
0.00710621
0.00738377
0.00766112
0.00793824
0.00821511
0.0084917
0.00876799
0.00904394
0.00931953
0.00959472
0.00986948
0.0101438
0.0104176
0.0106908
0.0109634
0.0112355
0.0115068
0.0117774
0.0120473
0.0123163
0.0125844
0.0128516
0.0131178
0.0133829
0.0136469
0.0139098
0.0141714
0.0144316
0.0146905
0.0149479
0.0152038
0.0154581
0.0157107
0.0159615
0.0162105
0.0164575
0.0167026
0.0169455
0.0171862
0.0174247
0.0176608
0.0178944
0.0181255
0.018354
0.0185797
0.0188026
0.0190226
0.0192396
0.0194534
0.0196641
0.0198714
0.0200754
0.0202758
0.0204727
0.0206659
0.0208554
0.021041
0.0212226
0.0214003
0.0215738
0.0217431
0.0219081
0.0220687
0.0222249
0.0223766
0.0225236
0.022666
0.0228037
0.0229365
0.0230645
0.0231875
0.0233055
0.0234185
0.0235264
0.0236292
0.0237268
0.0238191
0.0239062
0.023988
0.0240645
0.0241356
0.0242013
0.0242617
0.0243166
0.0243662
0.0244103
0.024449
0.0244823
0.0245102
0.0245326
0.0245497
0.0245614
0.0245678
0.0245689
0.0245646
0.0245551
0.0245404
0.0245204
0.0244954
0.0244652
0.0244299
0.0243897
0.0243445
0.0242943
0.0242394
0.0241797
0.0241152
0.0240461
0.0239724
0.0238942
0.0238115
0.0237245
0.0236331
0.0235375
0.0234378
0.0233339
0.0232261
0.0231143
0.0229987
0.0228794
0.0227563
0.0226297
0.0224995
0.0223658
0.0222288
0.0220886
0.0219451
0.0217985
0.0216488
0.0214962
0.0213407
0.0211824
0.0210214
0.0208577
0.0206914
0.0205227
0.0203515
0.0201779
0.0200021
0.0198241
0.019644
0.0194617
0.0192775
0.0190914
0.0189034
0.0187135
0.018522
0.0183288
0.0181339
0.0179375
0.0177397
0.0175403
0.0173396
0.0171376
0.0169343
0.0167298
0.0165241
0.0163173
0.0161094
0.0159005
0.0156906
0.0154797
0.015268
0.0150554
0.014842
0.0146279
0.014413
0.0141973
0.0139811
0.0137642
0.0135467
0.0133286
0.01311
0.0128909
0.0126713
0.0124513
0.0122309
0.01201
0.0117888
0.0115672
0.0113454
0.0111232
0.0109007
0.0106779
0.010455
0.0102317
0.0100083
0.00978469
0.00956089
0.00933693
0.00911282
0.00888857
0.0086642
0.00843971
0.00821513
0.00799045
0.00776569
0.00754086
0.00731596
0.00709101
0.00686602
0.00664098
0.0064159
0.0061908
0.00596567
0.00574053
0.00551537
0.0052902
0.00506502
0.00483984
0.00461466
0.00438948
0.0041643
0.00393913
0.00371397
0.00348881
0.00326366
0.00303853
0.0028134
0.00258828
0.00236317
0.00213807
0.00191299
0.00168791
0.00146283
0.00123777
0.00101271
0.000787659
0.000562611
0.000337565
0.000112522
0.000158087
0.00047426
0.000790432
0.0011066
0.00142277
0.00173893
0.00205509
0.00237124
0.00268738
0.0030035
0.00331961
0.0036357
0.00395176
0.00426779
0.00458378
0.00489973
0.00521562
0.00553145
0.0058472
0.00616287
0.00647845
0.00679391
0.00710924
0.00742442
0.00773944
0.00805428
0.00836891
0.00868331
0.00899745
0.00931132
0.00962487
0.00993808
0.0102509
0.0105634
0.0108753
0.0111868
0.0114978
0.0118082
0.012118
0.0124272
0.0127356
0.0130433
0.0133501
0.0136561
0.0139611
0.0142652
0.0145682
0.01487
0.0151707
0.0154701
0.0157682
0.0160649
0.0163601
0.0166537
0.0169457
0.0172359
0.0175243
0.0178108
0.0180953
0.0183777
0.018658
0.0189359
0.0192115
0.0194846
0.0197552
0.020023
0.0202881
0.0205503
0.0208095
0.0210656
0.0213185
0.021568
0.0218142
0.0220569
0.0222959
0.0225312
0.0227626
0.0229901
0.0232135
0.0234328
0.0236478
0.0238584
0.0240645
0.0242661
0.024463
0.0246551
0.0248423
0.0250246
0.0252019
0.025374
0.0255409
0.0257025
0.0258587
0.0260094
0.0261546
0.0262942
0.0264282
0.0265564
0.0266788
0.0267954
0.0269061
0.0270109
0.0271097
0.0272025
0.0272892
0.0273698
0.0274444
0.0275128
0.0275752
0.0276313
0.0276813
0.0277252
0.0277629
0.0277945
0.0278199
0.0278392
0.0278524
0.0278596
0.0278607
0.0278558
0.0278449
0.0278281
0.0278054
0.0277768
0.0277425
0.0277024
0.0276566
0.0276052
0.0275482
0.0274857
0.0274179
0.0273446
0.0272661
0.0271824
0.0270935
0.0269996
0.0269007
0.026797
0.0266884
0.0265751
0.0264572
0.0263348
0.0262079
0.0260766
0.0259411
0.0258014
0.0256576
0.0255098
0.0253581
0.0252026
0.0250434
0.0248805
0.0247141
0.0245443
0.0243711
0.0241946
0.024015
0.0238322
0.0236465
0.0234578
0.0232664
0.0230721
0.0228752
0.0226758
0.0224738
0.0222694
0.0220627
0.0218537
0.0216425
0.0214293
0.0212139
0.0209967
0.0207775
0.0205565
0.0203337
0.0201093
0.0198832
0.0196556
0.0194265
0.0191959
0.018964
0.0187307
0.0184962
0.0182604
0.0180235
0.0177855
0.0175464
0.0173063
0.0170653
0.0168233
0.0165805
0.0163368
0.0160923
0.0158471
0.0156012
0.0153546
0.0151074
0.0148596
0.0146112
0.0143622
0.0141128
0.0138629
0.0136125
0.0133617
0.0131105
0.012859
0.0126071
0.0123549
0.0121024
0.0118496
0.0115966
0.0113433
0.0110899
0.0108362
0.0105823
0.0103283
0.0100741
0.00981977
0.00956532
0.00931076
0.00905609
0.00880134
0.0085465
0.0082916
0.00803663
0.00778162
0.00752655
0.00727145
0.00701632
0.00676116
0.00650598
0.00625079
0.00599558
0.00574037
0.00548516
0.00522995
0.00497473
0.00471953
0.00446433
0.00420914
0.00395396
0.00369879
0.00344363
0.00318849
0.00293336
0.00267823
0.00242312
0.00216803
0.00191294
0.00165786
0.00140279
0.00114773
0.000892668
0.000637617
0.000382569
0.000127523
0.000176687
0.000530061
0.000883434
0.0012368
0.00159017
0.00194354
0.0022969
0.00265025
0.00300359
0.00335692
0.00371023
0.00406352
0.00441679
0.00477002
0.00512321
0.00547636
0.00582945
0.00618247
0.00653542
0.00688827
0.00724101
0.00759364
0.00794613
0.00829845
0.0086506
0.00900255
0.00935428
0.00970575
0.0100569
0.0104078
0.0107584
0.0111086
0.0114583
0.0118076
0.0121564
0.0125047
0.0128524
0.0131995
0.0135459
0.0138916
0.0142365
0.0145805
0.0149237
0.0152658
0.015607
0.015947
0.0162859
0.0166235
0.0169598
0.0172946
0.0176281
0.0179599
0.0182901
0.0186185
0.0189451
0.0192698
0.0195924
0.0199129
0.0202312
0.0205472
0.0208607
0.0211717
0.02148
0.0217856
0.0220883
0.022388
0.0226846
0.022978
0.023268
0.0235546
0.0238376
0.0241169
0.0243924
0.024664
0.0249315
0.0251948
0.0254538
0.0257084
0.0259585
0.0262039
0.0264445
0.0266802
0.0269109
0.0271366
0.0273569
0.027572
0.0277816
0.0279856
0.028184
0.0283766
0.0285634
0.0287443
0.0289191
0.0290878
0.0292504
0.0294066
0.0295565
0.0297
0.029837
0.0299675
0.0300914
0.0302086
0.0303192
0.030423
0.03052
0.0306102
0.0306936
0.0307702
0.0308398
0.0309026
0.0309585
0.0310075
0.0310497
0.0310849
0.0311133
0.0311348
0.0311495
0.0311574
0.0311585
0.0311529
0.0311406
0.0311217
0.0310961
0.0310641
0.0310255
0.0309805
0.0309291
0.0308715
0.0308076
0.0307375
0.0306614
0.0305793
0.0304913
0.0303975
0.0302979
0.0301927
0.0300819
0.0299656
0.029844
0.0297171
0.029585
0.0294479
0.0293058
0.0291588
0.029007
0.0288506
0.0286895
0.0285241
0.0283542
0.0281801
0.0280018
0.0278195
0.0276332
0.0274431
0.0272492
0.0270517
0.0268506
0.0266461
0.0264382
0.0262271
0.0260128
0.0257954
0.0255751
0.0253519
0.0251259
0.0248972
0.0246659
0.0244321
0.0241958
0.0239572
0.0237163
0.0234732
0.023228
0.0229808
0.0227316
0.0224806
0.0222277
0.0219731
0.0217168
0.0214589
0.0211995
0.0209386
0.0206763
0.0204126
0.0201477
0.0198815
0.0196141
0.0193456
0.0190761
0.0188055
0.0185339
0.0182614
0.0179881
0.0177139
0.0174389
0.0171632
0.0168868
0.0166097
0.0163319
0.0160536
0.0157747
0.0154953
0.0152154
0.014935
0.0146542
0.014373
0.0140914
0.0138094
0.0135272
0.0132446
0.0129617
0.0126786
0.0123952
0.0121117
0.0118279
0.0115439
0.0112598
0.0109755
0.010691
0.0104065
0.0101218
0.00983707
0.00955222
0.0092673
0.00898231
0.00869726
0.00841216
0.00812703
0.00784186
0.00755666
0.00727145
0.00698622
0.00670097
0.00641573
0.00613048
0.00584523
0.00555999
0.00527475
0.00498952
0.00470431
0.0044191
0.00413391
0.00384873
0.00356357
0.00327842
0.00299328
0.00270816
0.00242305
0.00213796
0.00185287
0.0015678
0.00128273
0.000997673
0.000712619
0.00042757
0.000142523
0.000195288
0.000585862
0.000976437
0.00136701
0.00175758
0.00214815
0.00253871
0.00292927
0.00331982
0.00371035
0.00410088
0.00449138
0.00488185
0.00527229
0.0056627
0.00605305
0.00644335
0.00683357
0.00722372
0.00761377
0.0080037
0.00839351
0.00878317
0.00917267
0.00956197
0.00995105
0.0103399
0.0107285
0.0111168
0.0115047
0.0118923
0.0122794
0.0126662
0.0130524
0.0134381
0.0138232
0.0142077
0.0145915
0.0149745
0.0153568
0.0157382
0.0161187
0.0164982
0.0168766
0.0172539
0.01763
0.0180048
0.0183782
0.0187502
0.0191207
0.0194895
0.0198565
0.0202218
0.0205852
0.0209465
0.0213057
0.0216627
0.0220173
0.0223695
0.0227191
0.023066
0.0234101
0.0237513
0.0240894
0.0244244
0.0247561
0.0250843
0.025409
0.02573
0.0260472
0.0263605
0.0266696
0.0269746
0.0272751
0.0275712
0.0278627
0.0281494
0.0284313
0.0287081
0.0289797
0.0292461
0.0295071
0.0297625
0.0300123
0.0302562
0.0304943
0.0307263
0.0309522
0.0311719
0.0313851
0.0315919
0.0317921
0.0319857
0.0321725
0.0323524
0.0325253
0.0326913
0.0328501
0.0330018
0.0331462
0.0332833
0.033413
0.0335354
0.0336502
0.0337576
0.0338574
0.0339497
0.0340344
0.0341114
0.0341808
0.0342426
0.0342968
0.0343433
0.0343822
0.0344135
0.0344372
0.0344534
0.034462
0.0344631
0.0344568
0.034443
0.0344219
0.0343935
0.0343578
0.0343149
0.034265
0.0342079
0.034144
0.0340731
0.0339954
0.033911
0.0338199
0.0337223
0.0336183
0.0335079
0.0333913
0.0332685
0.0331397
0.0330049
0.0328643
0.0327179
0.032566
0.0324085
0.0322457
0.0320776
0.0319043
0.0317259
0.0315427
0.0313546
0.0311618
0.0309644
0.0307625
0.0305562
0.0303457
0.030131
0.0299124
0.0296897
0.0294633
0.0292332
0.0289995
0.0287623
0.0285217
0.0282778
0.0280308
0.0277807
0.0275276
0.0272716
0.0270129
0.0267514
0.0264874
0.0262209
0.0259519
0.0256806
0.0254071
0.0251314
0.0248537
0.0245739
0.0242922
0.0240087
0.0237235
0.0234365
0.0231479
0.0228577
0.0225661
0.0222731
0.0219786
0.0216829
0.021386
0.0210879
0.0207886
0.0204883
0.020187
0.0198847
0.0195815
0.0192774
0.0189725
0.0186668
0.0183604
0.0180533
0.0177455
0.0174372
0.0171282
0.0168187