/*--------------------------------*- C++ -*----------------------------------*\
| =========                 |                                                 |
| \\      /  F ield         | OpenFOAM: The Open Source CFD Toolbox           |
|  \\    /   O peration     | Version:  v2012                                 |
|   \\  /    A nd           | Website:  www.openfoam.com                      |
|    \\/     M anipulation  |                                                 |
\*---------------------------------------------------------------------------*/
FoamFile
{
    version     2.0;
    format      ascii;
    class       volScalarField;
    location    "11.5";
    object      p;
}
// * * * * * * * * * * * * * * * * * * * * * * * * * * * * * * * * * * * * * //

dimensions      [0 2 -2 0 0 0 0];


internalField   nonuniform List<scalar> 
65536
(
9.60691e-10
-1.61521e-06
-4.86408e-06
-9.76055e-06
-1.63084e-05
-2.45076e-05
-3.43603e-05
-4.58701e-05
-5.90419e-05
-7.38814e-05
-9.03947e-05
-0.000108589
-0.000128472
-0.000150052
-0.000173339
-0.00019834
-0.000225068
-0.000253531
-0.000283742
-0.000315712
-0.000349453
-0.000384977
-0.000422296
-0.000461423
-0.000502372
-0.000545155
-0.000589785
-0.000636277
-0.000684642
-0.000734895
-0.000787047
-0.000841111
-0.000897101
-0.000955027
-0.0010149
-0.00107673
-0.00114053
-0.00120631
-0.00127408
-0.00134384
-0.0014156
-0.00148937
-0.00156514
-0.00164293
-0.00172273
-0.00180454
-0.00188837
-0.0019742
-0.00206203
-0.00215185
-0.00224366
-0.00233743
-0.00243316
-0.00253082
-0.0026304
-0.00273187
-0.00283521
-0.00294038
-0.00304737
-0.00315612
-0.0032666
-0.00337878
-0.0034926
-0.00360802
-0.00372498
-0.00384343
-0.00396331
-0.00408455
-0.0042071
-0.00433087
-0.00445579
-0.00458179
-0.00470878
-0.00483668
-0.0049654
-0.00509484
-0.00522491
-0.00535552
-0.00548654
-0.00561789
-0.00574945
-0.00588112
-0.00601276
-0.00614428
-0.00627554
-0.00640644
-0.00653683
-0.00666661
-0.00679564
-0.0069238
-0.00705097
-0.007177
-0.00730177
-0.00742516
-0.00754704
-0.00766727
-0.00778574
-0.00790232
-0.00801688
-0.00812931
-0.00823948
-0.00834728
-0.0084526
-0.00855533
-0.00865536
-0.00875258
-0.00884691
-0.00893824
-0.00902649
-0.00911157
-0.0091934
-0.00927191
-0.00934703
-0.00941869
-0.00948685
-0.00955143
-0.00961241
-0.00966974
-0.00972339
-0.00977332
-0.00981953
-0.00986198
-0.00990067
-0.00993561
-0.00996678
-0.0099942
-0.0100179
-0.0100379
-0.0100541
-0.0100667
-0.0100757
-0.0100811
-0.010083
-0.0100813
-0.0100763
-0.0100678
-0.0100561
-0.0100411
-0.0100229
-0.0100016
-0.00997723
-0.00994995
-0.00991979
-0.00988685
-0.0098512
-0.00981293
-0.00977214
-0.00972891
-0.00968333
-0.0096355
-0.0095855
-0.00953344
-0.00947939
-0.00942347
-0.00936575
-0.00930633
-0.00924531
-0.00918277
-0.00911881
-0.00905351
-0.00898697
-0.00891928
-0.00885051
-0.00878075
-0.00871009
-0.00863862
-0.0085664
-0.00849352
-0.00842006
-0.00834608
-0.00827167
-0.0081969
-0.00812183
-0.00804653
-0.00797107
-0.00789552
-0.00781992
-0.00774435
-0.00766886
-0.0075935
-0.00751833
-0.00744341
-0.00736877
-0.00729448
-0.00722057
-0.00714709
-0.00707409
-0.00700159
-0.00692965
-0.0068583
-0.00678757
-0.0067175
-0.00664812
-0.00657947
-0.00651156
-0.00644444
-0.00637812
-0.00631263
-0.006248
-0.00618424
-0.00612138
-0.00605944
-0.00599844
-0.0059384
-0.00587933
-0.00582124
-0.00576416
-0.0057081
-0.00565306
-0.00559907
-0.00554613
-0.00549426
-0.00544346
-0.00539375
-0.00534512
-0.0052976
-0.00525118
-0.00520588
-0.00516169
-0.00511864
-0.00507671
-0.00503592
-0.00499627
-0.00495776
-0.0049204
-0.00488419
-0.00484913
-0.00481523
-0.00478248
-0.0047509
-0.00472048
-0.00469122
-0.00466313
-0.00463621
-0.00461045
-0.00458586
-0.00456244
-0.00454018
-0.0045191
-0.00449919
-0.00448045
-0.00446288
-0.00444648
-0.00443125
-0.0044172
-0.00440431
-0.0043926
-0.00438206
-0.00437269
-0.00436449
-0.00435746
-0.0043516
-0.00434692
-0.0043434
-0.00434106
-0.00433989
-2.69699e-06
-4.3166e-06
-7.5727e-06
-1.24733e-05
-1.90219e-05
-2.72202e-05
-3.70713e-05
-4.8579e-05
-6.17482e-05
-7.65844e-05
-9.30943e-05
-0.000111285
-0.000131164
-0.000152739
-0.00017602
-0.000201017
-0.000227739
-0.000256196
-0.000286401
-0.000318364
-0.000352098
-0.000387615
-0.000424926
-0.000464046
-0.000504987
-0.000547761
-0.000592383
-0.000638866
-0.000687223
-0.000737466
-0.000789609
-0.000843664
-0.000899644
-0.000957561
-0.00101742
-0.00107925
-0.00114304
-0.00120881
-0.00127657
-0.00134632
-0.00141807
-0.00149182
-0.00156759
-0.00164537
-0.00172516
-0.00180697
-0.00189078
-0.00197661
-0.00206443
-0.00215424
-0.00224604
-0.00233981
-0.00243553
-0.00253319
-0.00263276
-0.00273423
-0.00283757
-0.00294274
-0.00304972
-0.00315847
-0.00326896
-0.00338114
-0.00349496
-0.00361038
-0.00372735
-0.00384581
-0.00396569
-0.00408694
-0.0042095
-0.00433328
-0.00445821
-0.00458422
-0.00471123
-0.00483914
-0.00496788
-0.00509734
-0.00522743
-0.00535805
-0.0054891
-0.00562047
-0.00575206
-0.00588374
-0.00601542
-0.00614696
-0.00627825
-0.00640917
-0.0065396
-0.00666941
-0.00679848
-0.00692667
-0.00705386
-0.00717993
-0.00730473
-0.00742816
-0.00755007
-0.00767034
-0.00778884
-0.00790545
-0.00802005
-0.00813251
-0.00824272
-0.00835056
-0.00845591
-0.00855867
-0.00865873
-0.00875599
-0.00885034
-0.00894171
-0.00902998
-0.00911509
-0.00919695
-0.00927549
-0.00935063
-0.00942232
-0.00949049
-0.0095551
-0.0096161
-0.00967344
-0.00972711
-0.00977706
-0.00982327
-0.00986573
-0.00990444
-0.00993938
-0.00997056
-0.00999798
-0.0100217
-0.0100416
-0.0100579
-0.0100705
-0.0100795
-0.0100849
-0.0100868
-0.0100851
-0.01008
-0.0100716
-0.0100598
-0.0100448
-0.0100266
-0.0100053
-0.00998091
-0.00995361
-0.00992343
-0.00989047
-0.0098548
-0.00981652
-0.0097757
-0.00973245
-0.00968685
-0.00963899
-0.00958897
-0.00953688
-0.00948282
-0.00942686
-0.00936912
-0.00930968
-0.00924863
-0.00918607
-0.00912208
-0.00905676
-0.00899019
-0.00892247
-0.00885367
-0.00878389
-0.00871321
-0.00864171
-0.00856946
-0.00849656
-0.00842307
-0.00834907
-0.00827464
-0.00819984
-0.00812475
-0.00804942
-0.00797394
-0.00789836
-0.00782274
-0.00774715
-0.00767163
-0.00759625
-0.00752107
-0.00744612
-0.00737146
-0.00729715
-0.00722322
-0.00714972
-0.00707669
-0.00700418
-0.00693222
-0.00686085
-0.0067901
-0.00672002
-0.00665062
-0.00658195
-0.00651403
-0.00644688
-0.00638055
-0.00631505
-0.0062504
-0.00618662
-0.00612375
-0.0060618
-0.00600078
-0.00594073
-0.00588164
-0.00582354
-0.00576645
-0.00571037
-0.00565533
-0.00560132
-0.00554837
-0.00549649
-0.00544568
-0.00539595
-0.00534732
-0.00529979
-0.00525336
-0.00520805
-0.00516385
-0.00512079
-0.00507885
-0.00503805
-0.00499839
-0.00495987
-0.0049225
-0.00488629
-0.00485122
-0.00481731
-0.00478456
-0.00475297
-0.00472255
-0.00469328
-0.00466519
-0.00463826
-0.00461249
-0.0045879
-0.00456447
-0.00454222
-0.00452113
-0.00450121
-0.00448247
-0.0044649
-0.00444849
-0.00443326
-0.0044192
-0.00440632
-0.0043946
-0.00438406
-0.00437468
-0.00436648
-0.00435945
-0.0043536
-0.00434891
-0.0043454
-0.00434305
-0.00434188
-8.11254e-06
-9.73915e-06
-1.30031e-05
-1.79075e-05
-2.44562e-05
-3.26525e-05
-4.25003e-05
-5.40037e-05
-6.71676e-05
-8.19977e-05
-9.85006e-05
-0.000116683
-0.000136554
-0.00015812
-0.000181391
-0.000206377
-0.000233087
-0.000261533
-0.000291725
-0.000323675
-0.000357395
-0.000392897
-0.000430194
-0.000469298
-0.000510223
-0.000552981
-0.000597586
-0.000644052
-0.00069239
-0.000742616
-0.00079474
-0.000848777
-0.000904738
-0.000962635
-0.00102248
-0.00108428
-0.00114806
-0.00121381
-0.00128154
-0.00135128
-0.00142301
-0.00149675
-0.00157249
-0.00165026
-0.00173003
-0.00181182
-0.00189562
-0.00198142
-0.00206923
-0.00215903
-0.00225082
-0.00234457
-0.00244028
-0.00253793
-0.0026375
-0.00273896
-0.00284229
-0.00294746
-0.00305444
-0.00316319
-0.00327368
-0.00338586
-0.00349969
-0.00361512
-0.0037321
-0.00385056
-0.00397046
-0.00409173
-0.0042143
-0.0043381
-0.00446306
-0.0045891
-0.00471614
-0.00484408
-0.00497285
-0.00510234
-0.00523247
-0.00536314
-0.00549423
-0.00562565
-0.00575728
-0.00588901
-0.00602074
-0.00615233
-0.00628368
-0.00641466
-0.00654515
-0.00667502
-0.00680415
-0.00693241
-0.00705966
-0.0071858
-0.00731067
-0.00743416
-0.00755614
-0.00767648
-0.00779506
-0.00791174
-0.00802641
-0.00813894
-0.00824921
-0.00835712
-0.00846254
-0.00856537
-0.00866549
-0.00876281
-0.00885723
-0.00894865
-0.00903699
-0.00912215
-0.00920406
-0.00928265
-0.00935784
-0.00942958
-0.00949779
-0.00956244
-0.00962348
-0.00968086
-0.00973456
-0.00978453
-0.00983077
-0.00987326
-0.00991198
-0.00994694
-0.00997813
-0.0100056
-0.0100293
-0.0100492
-0.0100655
-0.0100781
-0.0100871
-0.0100925
-0.0100943
-0.0100927
-0.0100876
-0.0100791
-0.0100673
-0.0100522
-0.010034
-0.0100127
-0.00998828
-0.00996094
-0.00993073
-0.00989773
-0.00986202
-0.0098237
-0.00978284
-0.00973954
-0.0096939
-0.009646
-0.00959593
-0.00954379
-0.00948967
-0.00943367
-0.00937588
-0.00931639
-0.00925529
-0.00919267
-0.00912863
-0.00906326
-0.00899664
-0.00892887
-0.00886002
-0.00879019
-0.00871945
-0.0086479
-0.0085756
-0.00850265
-0.00842911
-0.00835506
-0.00828058
-0.00820573
-0.00813059
-0.00805522
-0.00797969
-0.00790406
-0.00782839
-0.00775275
-0.00767719
-0.00760177
-0.00752654
-0.00745155
-0.00737685
-0.00730249
-0.00722852
-0.00715498
-0.00708192
-0.00700937
-0.00693737
-0.00686596
-0.00679518
-0.00672505
-0.00665562
-0.00658692
-0.00651896
-0.00645179
-0.00638542
-0.00631988
-0.0062552
-0.0061914
-0.0061285
-0.00606652
-0.00600547
-0.00594539
-0.00588627
-0.00582815
-0.00577103
-0.00571493
-0.00565986
-0.00560583
-0.00555286
-0.00550095
-0.00545012
-0.00540037
-0.00535172
-0.00530416
-0.00525772
-0.00521238
-0.00516817
-0.00512509
-0.00508313
-0.00504232
-0.00500264
-0.00496411
-0.00492672
-0.00489049
-0.00485541
-0.00482149
-0.00478873
-0.00475713
-0.00472669
-0.00469741
-0.0046693
-0.00464236
-0.00461659
-0.00459198
-0.00456855
-0.00454628
-0.00452519
-0.00450527
-0.00448651
-0.00446893
-0.00445253
-0.00443729
-0.00442322
-0.00441033
-0.00439861
-0.00438806
-0.00437869
-0.00437048
-0.00436345
-0.00435759
-0.0043529
-0.00434939
-0.00434704
-0.00434587
-1.62571e-05
-1.78875e-05
-2.11549e-05
-2.60603e-05
-3.26076e-05
-4.08004e-05
-5.06429e-05
-6.21395e-05
-7.52954e-05
-9.01162e-05
-0.000106609
-0.00012478
-0.000144637
-0.00016619
-0.000189446
-0.000214416
-0.000241109
-0.000269537
-0.00029971
-0.000331641
-0.00036534
-0.00040082
-0.000438095
-0.000477176
-0.000518076
-0.00056081
-0.00060539
-0.00065183
-0.000700142
-0.00075034
-0.000802437
-0.000856446
-0.000912379
-0.000970248
-0.00103006
-0.00109184
-0.00115558
-0.0012213
-0.00128901
-0.00135872
-0.00143042
-0.00150413
-0.00157985
-0.00165758
-0.00173733
-0.0018191
-0.00190287
-0.00198866
-0.00207644
-0.00216622
-0.00225799
-0.00235173
-0.00244742
-0.00254506
-0.00264461
-0.00274606
-0.00284938
-0.00295455
-0.00306152
-0.00317028
-0.00328077
-0.00339295
-0.00350679
-0.00362223
-0.00373922
-0.00385771
-0.00397763
-0.00409892
-0.00422152
-0.00434535
-0.00447035
-0.00459642
-0.0047235
-0.00485149
-0.00498031
-0.00510986
-0.00524004
-0.00537077
-0.00550192
-0.00563341
-0.00576511
-0.00589692
-0.00602873
-0.0061604
-0.00629184
-0.0064229
-0.00655348
-0.00668345
-0.00681267
-0.00694102
-0.00706838
-0.00719461
-0.00731959
-0.00744318
-0.00756527
-0.00768571
-0.00780439
-0.00792118
-0.00803595
-0.00814858
-0.00825896
-0.00836697
-0.00847249
-0.00857542
-0.00867564
-0.00877306
-0.00886757
-0.00895908
-0.0090475
-0.00913275
-0.00921475
-0.00929341
-0.00936868
-0.00944048
-0.00950876
-0.00957348
-0.00963457
-0.009692
-0.00974574
-0.00979576
-0.00984204
-0.00988456
-0.00992331
-0.00995829
-0.0099895
-0.010017
-0.0100407
-0.0100606
-0.0100769
-0.0100895
-0.0100985
-0.0101038
-0.0101057
-0.010104
-0.0100989
-0.0100904
-0.0100785
-0.0100634
-0.0100452
-0.0100238
-0.00999934
-0.00997195
-0.00994169
-0.00990863
-0.00987286
-0.00983447
-0.00979355
-0.00975019
-0.00970448
-0.00965651
-0.00960637
-0.00955416
-0.00949997
-0.00944389
-0.00938602
-0.00932645
-0.00926528
-0.00920258
-0.00913847
-0.00907302
-0.00900632
-0.00893847
-0.00886954
-0.00879963
-0.00872882
-0.00865719
-0.00858482
-0.00851178
-0.00843817
-0.00836404
-0.00828949
-0.00821456
-0.00813935
-0.00806391
-0.00798831
-0.00791261
-0.00783687
-0.00776116
-0.00768554
-0.00761005
-0.00753475
-0.00745969
-0.00738493
-0.00731051
-0.00723648
-0.00716288
-0.00708976
-0.00701715
-0.00694509
-0.00687363
-0.00680279
-0.00673261
-0.00666313
-0.00659437
-0.00652636
-0.00645914
-0.00639272
-0.00632714
-0.00626241
-0.00619856
-0.00613562
-0.00607359
-0.00601251
-0.00595238
-0.00589322
-0.00583506
-0.0057779
-0.00572176
-0.00566666
-0.00561259
-0.00555959
-0.00550765
-0.00545678
-0.005407
-0.00535831
-0.00531073
-0.00526425
-0.00521889
-0.00517465
-0.00513154
-0.00508956
-0.00504872
-0.00500902
-0.00497046
-0.00493305
-0.0048968
-0.0048617
-0.00482776
-0.00479497
-0.00476335
-0.0047329
-0.0047036
-0.00467548
-0.00464852
-0.00462273
-0.00459811
-0.00457466
-0.00455238
-0.00453128
-0.00451134
-0.00449258
-0.00447499
-0.00445857
-0.00444332
-0.00442925
-0.00441635
-0.00440462
-0.00439407
-0.00438469
-0.00437648
-0.00436944
-0.00436358
-0.00435889
-0.00435537
-0.00435302
-0.00435185
-2.7132e-05
-2.8763e-05
-3.20304e-05
-3.69341e-05
-4.34779e-05
-5.16654e-05
-6.15004e-05
-7.29877e-05
-8.61327e-05
-0.000100941
-0.000117419
-0.000135575
-0.000155415
-0.000176949
-0.000200186
-0.000225135
-0.000251806
-0.00028021
-0.000310358
-0.000342262
-0.000375934
-0.000411386
-0.00044863
-0.000487681
-0.00052855
-0.000571251
-0.000615797
-0.000662202
-0.000710479
-0.000760642
-0.000812702
-0.000866674
-0.00092257
-0.000980401
-0.00104018
-0.00110192
-0.00116562
-0.0012313
-0.00129897
-0.00136864
-0.00144031
-0.00151398
-0.00158966
-0.00166736
-0.00174708
-0.00182881
-0.00191255
-0.0019983
-0.00208606
-0.00217581
-0.00226755
-0.00236127
-0.00245694
-0.00255456
-0.0026541
-0.00275553
-0.00285885
-0.00296401
-0.00307098
-0.00317973
-0.00329022
-0.00340242
-0.00351626
-0.00363172
-0.00374873
-0.00386724
-0.00398719
-0.00410851
-0.00423115
-0.00435502
-0.00448007
-0.00460619
-0.00473333
-0.00486138
-0.00499026
-0.00511989
-0.00525015
-0.00538095
-0.0055122
-0.00564378
-0.00577557
-0.00590749
-0.00603939
-0.00617118
-0.00630273
-0.00643391
-0.00656461
-0.0066947
-0.00682404
-0.00695253
-0.00708002
-0.00720638
-0.0073315
-0.00745523
-0.00757745
-0.00769804
-0.00781685
-0.00793378
-0.00804869
-0.00816147
-0.00827199
-0.00838013
-0.00848579
-0.00858885
-0.0086892
-0.00878675
-0.00888138
-0.00897301
-0.00906155
-0.00914691
-0.00922902
-0.00930778
-0.00938315
-0.00945505
-0.00952342
-0.00958821
-0.00964938
-0.00970688
-0.00976069
-0.00981076
-0.00985709
-0.00989966
-0.00993845
-0.00997346
-0.0100047
-0.0100322
-0.0100559
-0.0100759
-0.0100921
-0.0101047
-0.0101137
-0.010119
-0.0101208
-0.0101191
-0.010114
-0.0101054
-0.0100935
-0.0100784
-0.0100601
-0.0100386
-0.0100141
-0.00998666
-0.00995632
-0.00992318
-0.00988734
-0.00984887
-0.00980786
-0.00976441
-0.00971861
-0.00967054
-0.00962031
-0.009568
-0.00951371
-0.00945753
-0.00939956
-0.00933989
-0.00927861
-0.00921582
-0.0091516
-0.00908604
-0.00901924
-0.00895128
-0.00888225
-0.00881224
-0.00874132
-0.00866959
-0.00859711
-0.00852398
-0.00845026
-0.00837604
-0.00830138
-0.00822636
-0.00815104
-0.0080755
-0.00799981
-0.00792401
-0.00784819
-0.00777238
-0.00769667
-0.00762109
-0.0075457
-0.00747056
-0.00739571
-0.00732121
-0.0072471
-0.00717342
-0.00710021
-0.00702752
-0.00695539
-0.00688385
-0.00681294
-0.00674269
-0.00667314
-0.00660431
-0.00653623
-0.00646894
-0.00640246
-0.00633681
-0.00627203
-0.00620812
-0.00614511
-0.00608303
-0.00602189
-0.0059617
-0.00590249
-0.00584428
-0.00578707
-0.00573088
-0.00567572
-0.00562161
-0.00556856
-0.00551657
-0.00546566
-0.00541584
-0.00536711
-0.00531948
-0.00527297
-0.00522757
-0.00518329
-0.00514014
-0.00509813
-0.00505725
-0.00501752
-0.00497893
-0.00494149
-0.00490521
-0.00487008
-0.00483611
-0.0048033
-0.00477165
-0.00474117
-0.00471186
-0.00468371
-0.00465673
-0.00463092
-0.00460628
-0.00458281
-0.00456051
-0.00453939
-0.00451944
-0.00450066
-0.00448306
-0.00446663
-0.00445137
-0.00443729
-0.00442437
-0.00441264
-0.00440208
-0.00439269
-0.00438447
-0.00437743
-0.00437156
-0.00436687
-0.00436335
-0.004361
-0.00435983
-4.0734e-05
-4.23642e-05
-4.56297e-05
-5.05299e-05
-5.70681e-05
-6.5248e-05
-7.50734e-05
-8.6549e-05
-9.96802e-05
-0.000114473
-0.000130934
-0.00014907
-0.000168889
-0.0001904
-0.000213612
-0.000238535
-0.000265178
-0.000293552
-0.00032367
-0.000355541
-0.000389179
-0.000424595
-0.000461803
-0.000500815
-0.000541645
-0.000584305
-0.00062881
-0.000675172
-0.000723405
-0.000773523
-0.000825539
-0.000879464
-0.000935313
-0.000993097
-0.00105283
-0.00111452
-0.00117817
-0.00124381
-0.00131143
-0.00138105
-0.00145267
-0.0015263
-0.00160194
-0.00167959
-0.00175927
-0.00184095
-0.00192466
-0.00201037
-0.00209809
-0.00218781
-0.00227952
-0.00237321
-0.00246886
-0.00256645
-0.00266597
-0.00276739
-0.00287069
-0.00297584
-0.00308281
-0.00319156
-0.00330206
-0.00341426
-0.00352812
-0.0036436
-0.00376063
-0.00387917
-0.00399916
-0.00412052
-0.00424321
-0.00436714
-0.00449224
-0.00461843
-0.00474563
-0.00487377
-0.00500273
-0.00513245
-0.00526281
-0.00539371
-0.00552507
-0.00565676
-0.00578868
-0.00592071
-0.00605275
-0.00618468
-0.00631637
-0.0064477
-0.00657854
-0.00670879
-0.0068383
-0.00696694
-0.0070946
-0.00722113
-0.00734642
-0.00747032
-0.00759272
-0.00771348
-0.00783247
-0.00794958
-0.00806466
-0.00817761
-0.00828831
-0.00839662
-0.00850245
-0.00860568
-0.00870619
-0.0088039
-0.00889869
-0.00899047
-0.00907916
-0.00916466
-0.0092469
-0.0093258
-0.00940128
-0.0094733
-0.00954178
-0.00960667
-0.00966794
-0.00972553
-0.00977941
-0.00982956
-0.00987595
-0.00991857
-0.00995741
-0.00999246
-0.0100237
-0.0100512
-0.0100749
-0.0100949
-0.0101112
-0.0101238
-0.0101327
-0.0101381
-0.0101398
-0.0101381
-0.0101329
-0.0101243
-0.0101123
-0.0100971
-0.0100787
-0.0100572
-0.0100326
-0.0100051
-0.00997464
-0.00994141
-0.00990547
-0.00986689
-0.00982578
-0.00978221
-0.0097363
-0.00968811
-0.00963776
-0.00958533
-0.00953092
-0.00947462
-0.00941652
-0.00935672
-0.00929531
-0.00923238
-0.00916803
-0.00910235
-0.00903541
-0.00896732
-0.00889816
-0.00882802
-0.00875697
-0.0086851
-0.0086125
-0.00853924
-0.00846539
-0.00839104
-0.00831626
-0.00824111
-0.00816568
-0.00809002
-0.0080142
-0.00793829
-0.00786234
-0.00778642
-0.00771059
-0.0076349
-0.00755941
-0.00748416
-0.0074092
-0.0073346
-0.00726038
-0.0071866
-0.00711329
-0.0070405
-0.00696828
-0.00689664
-0.00682564
-0.0067553
-0.00668565
-0.00661674
-0.00654858
-0.00648121
-0.00641464
-0.00634892
-0.00628405
-0.00622006
-0.00615698
-0.00609483
-0.00603361
-0.00597336
-0.00591408
-0.0058558
-0.00579852
-0.00574227
-0.00568705
-0.00563288
-0.00557977
-0.00552773
-0.00547676
-0.00542689
-0.0053781
-0.00533043
-0.00528386
-0.00523841
-0.00519409
-0.0051509
-0.00510884
-0.00506792
-0.00502814
-0.00498952
-0.00495204
-0.00491572
-0.00488055
-0.00484655
-0.0048137
-0.00478203
-0.00475151
-0.00472217
-0.00469399
-0.00466699
-0.00464115
-0.00461649
-0.00459299
-0.00457068
-0.00454953
-0.00452956
-0.00451076
-0.00449314
-0.00447669
-0.00446142
-0.00444732
-0.0044344
-0.00442265
-0.00441208
-0.00440268
-0.00439446
-0.00438741
-0.00438154
-0.00437684
-0.00437331
-0.00437096
-0.00436979
-5.70615e-05
-5.86903e-05
-6.19527e-05
-6.68477e-05
-7.33785e-05
-8.15487e-05
-9.13622e-05
-0.000102824
-0.000115938
-0.000130712
-0.000147152
-0.000165265
-0.000185059
-0.000206543
-0.000229726
-0.000254617
-0.000281226
-0.000309566
-0.000339646
-0.000371478
-0.000405075
-0.00044045
-0.000477613
-0.00051658
-0.000557363
-0.000599975
-0.00064443
-0.000690741
-0.000738923
-0.000788987
-0.000840949
-0.00089482
-0.000950613
-0.00100834
-0.00106802
-0.00112965
-0.00119325
-0.00125883
-0.0013264
-0.00139596
-0.00146752
-0.0015411
-0.00161668
-0.00169428
-0.00177391
-0.00185554
-0.0019392
-0.00202487
-0.00211255
-0.00220223
-0.0022939
-0.00238755
-0.00248317
-0.00258074
-0.00268023
-0.00278164
-0.00288492
-0.00299006
-0.00309702
-0.00320578
-0.00331628
-0.0034285
-0.00354238
-0.00365787
-0.00377494
-0.00389352
-0.00401354
-0.00413496
-0.0042577
-0.0043817
-0.00450687
-0.00463314
-0.00476043
-0.00488866
-0.00501773
-0.00514755
-0.00527803
-0.00540906
-0.00554054
-0.00567237
-0.00580444
-0.00593663
-0.00606882
-0.00620091
-0.00633277
-0.00646428
-0.00659531
-0.00672574
-0.00685544
-0.00698428
-0.00711214
-0.00723888
-0.00736437
-0.00748848
-0.00761109
-0.00773206
-0.00785127
-0.00796858
-0.00808388
-0.00819704
-0.00830795
-0.00841647
-0.0085225
-0.00862593
-0.00872664
-0.00882454
-0.00891952
-0.00901149
-0.00910035
-0.00918602
-0.00926842
-0.00934748
-0.00942311
-0.00949527
-0.00956388
-0.0096289
-0.00969027
-0.00974797
-0.00980195
-0.00985219
-0.00989866
-0.00994134
-0.00998023
-0.0100153
-0.0100466
-0.0100742
-0.0100979
-0.0101179
-0.0101342
-0.0101467
-0.0101557
-0.0101609
-0.0101627
-0.0101609
-0.0101556
-0.010147
-0.0101349
-0.0101197
-0.0101012
-0.0100796
-0.0100549
-0.0100272
-0.00999669
-0.00996334
-0.00992727
-0.00988857
-0.00984733
-0.00980363
-0.00975757
-0.00970925
-0.00965875
-0.00960617
-0.00955161
-0.00949516
-0.00943691
-0.00937695
-0.00931539
-0.0092523
-0.00918779
-0.00912195
-0.00905486
-0.00898661
-0.00891729
-0.00884698
-0.00877578
-0.00870376
-0.008631
-0.00855758
-0.00848358
-0.00840908
-0.00833414
-0.00825884
-0.00818326
-0.00810745
-0.00803149
-0.00795543
-0.00787935
-0.00780329
-0.00772732
-0.0076515
-0.00757587
-0.00750049
-0.0074254
-0.00735067
-0.00727633
-0.00720242
-0.007129
-0.00705609
-0.00698375
-0.006912
-0.00684089
-0.00677044
-0.00670069
-0.00663167
-0.0065634
-0.00649593
-0.00642927
-0.00636344
-0.00629848
-0.0062344
-0.00617123
-0.00610899
-0.00604769
-0.00598735
-0.00592799
-0.00586963
-0.00581228
-0.00575595
-0.00570066
-0.00564641
-0.00559323
-0.00554112
-0.00549008
-0.00544014
-0.0053913
-0.00534356
-0.00529693
-0.00525143
-0.00520705
-0.0051638
-0.00512169
-0.00508072
-0.00504089
-0.00500222
-0.00496469
-0.00492833
-0.00489312
-0.00485907
-0.00482619
-0.00479447
-0.00476392
-0.00473454
-0.00470633
-0.00467929
-0.00465342
-0.00462873
-0.00460521
-0.00458287
-0.0045617
-0.0045417
-0.00452288
-0.00450524
-0.00448877
-0.00447348
-0.00445937
-0.00444643
-0.00443467
-0.00442408
-0.00441467
-0.00440644
-0.00439938
-0.0043935
-0.0043888
-0.00438527
-0.00438292
-0.00438174
-7.6114e-05
-7.77406e-05
-8.09989e-05
-8.58873e-05
-9.2409e-05
-0.000100568
-0.000110367
-0.000121812
-0.000134907
-0.000149659
-0.000166075
-0.000184161
-0.000203926
-0.000225378
-0.000248526
-0.000273381
-0.000299952
-0.000328251
-0.000358288
-0.000390076
-0.000423626
-0.000458951
-0.000496064
-0.000534978
-0.000575706
-0.000618263
-0.00066266
-0.000708913
-0.000757034
-0.000807037
-0.000858936
-0.000912744
-0.000968474
-0.00102614
-0.00108575
-0.00114731
-0.00121085
-0.00127636
-0.00134386
-0.00141336
-0.00148486
-0.00155837
-0.0016339
-0.00171144
-0.001791
-0.00187259
-0.00195619
-0.00204181
-0.00212944
-0.00221907
-0.0023107
-0.00240431
-0.00249989
-0.00259743
-0.0026969
-0.00279828
-0.00290155
-0.00300668
-0.00311364
-0.00322239
-0.00333291
-0.00344513
-0.00355904
-0.00367456
-0.00379166
-0.00391028
-0.00403037
-0.00415184
-0.00427465
-0.00439872
-0.00452398
-0.00465035
-0.00477774
-0.00490608
-0.00503527
-0.00516522
-0.00529583
-0.00542701
-0.00555865
-0.00569064
-0.00582288
-0.00595524
-0.00608763
-0.00621991
-0.00635197
-0.00648369
-0.00661493
-0.00674558
-0.00687551
-0.00700458
-0.00713267
-0.00725965
-0.00738538
-0.00750974
-0.00763259
-0.00775381
-0.00787327
-0.00799083
-0.00810638
-0.00821979
-0.00833094
-0.0084397
-0.00854598
-0.00864964
-0.00875058
-0.00884871
-0.00894391
-0.00903609
-0.00912516
-0.00921103
-0.00929362
-0.00937286
-0.00944867
-0.00952099
-0.00958975
-0.00965492
-0.00971643
-0.00977425
-0.00982834
-0.00987867
-0.00992523
-0.009968
-0.010007
-0.0100421
-0.0100735
-0.010101
-0.0101248
-0.0101448
-0.010161
-0.0101736
-0.0101825
-0.0101877
-0.0101894
-0.0101876
-0.0101822
-0.0101735
-0.0101614
-0.010146
-0.0101274
-0.0101057
-0.0100809
-0.0100532
-0.0100225
-0.00998899
-0.00995278
-0.00991393
-0.00987253
-0.00982868
-0.00978246
-0.00973397
-0.0096833
-0.00963055
-0.00957581
-0.00951918
-0.00946075
-0.00940061
-0.00933886
-0.00927559
-0.0092109
-0.00914487
-0.00907759
-0.00900915
-0.00893965
-0.00886916
-0.00879776
-0.00872556
-0.00865261
-0.00857901
-0.00850483
-0.00843015
-0.00835504
-0.00827956
-0.00820381
-0.00812783
-0.00805169
-0.00797547
-0.00789922
-0.007823
-0.00774687
-0.00767088
-0.0075951
-0.00751956
-0.00744433
-0.00736944
-0.00729495
-0.00722091
-0.00714734
-0.0070743
-0.00700182
-0.00692993
-0.00685869
-0.00678811
-0.00671823
-0.00664909
-0.00658071
-0.00651311
-0.00644634
-0.0063804
-0.00631533
-0.00625114
-0.00618787
-0.00612552
-0.00606412
-0.00600368
-0.00594423
-0.00588577
-0.00582832
-0.00577191
-0.00571653
-0.0056622
-0.00560893
-0.00555674
-0.00550563
-0.00545561
-0.00540669
-0.00535888
-0.00531218
-0.00526661
-0.00522216
-0.00517885
-0.00513668
-0.00509565
-0.00505576
-0.00501703
-0.00497945
-0.00494303
-0.00490777
-0.00487368
-0.00484075
-0.00480899
-0.00477839
-0.00474897
-0.00472072
-0.00469364
-0.00466774
-0.00464301
-0.00461946
-0.00459708
-0.00457588
-0.00455586
-0.00453701
-0.00451935
-0.00450286
-0.00448754
-0.00447341
-0.00446045
-0.00444868
-0.00443808
-0.00442865
-0.00442041
-0.00441334
-0.00440745
-0.00440274
-0.00439921
-0.00439686
-0.00439568
-9.78908e-05
-9.95149e-05
-0.000102768
-0.000107649
-0.00011416
-0.000122305
-0.000132088
-0.000143513
-0.000156587
-0.000171314
-0.000187702
-0.000205758
-0.000225489
-0.000246906
-0.000270016
-0.00029483
-0.000321357
-0.00034961
-0.000379598
-0.000411335
-0.000444832
-0.000480102
-0.000517157
-0.000556012
-0.000596679
-0.000639172
-0.000683504
-0.00072969
-0.000777743
-0.000827677
-0.000879506
-0.000933242
-0.000988899
-0.00104649
-0.00110603
-0.00116752
-0.00123098
-0.00129642
-0.00136385
-0.00143327
-0.0015047
-0.00157814
-0.0016536
-0.00173107
-0.00181057
-0.00189209
-0.00197563
-0.00206119
-0.00214876
-0.00223834
-0.00232993
-0.00242349
-0.00251904
-0.00261654
-0.00271598
-0.00281734
-0.00292059
-0.00302571
-0.00313267
-0.00324142
-0.00335195
-0.00346419
-0.00357812
-0.00369368
-0.00381082
-0.0039295
-0.00404964
-0.00417118
-0.00429407
-0.00441823
-0.00454359
-0.00467006
-0.00479757
-0.00492604
-0.00505537
-0.00518547
-0.00531624
-0.00544758
-0.0055794
-0.00571158
-0.00584401
-0.00597659
-0.00610919
-0.00624169
-0.00637399
-0.00650594
-0.00663743
-0.00676834
-0.00689852
-0.00702786
-0.00715622
-0.00728347
-0.00740948
-0.00753412
-0.00765726
-0.00777877
-0.00789851
-0.00801636
-0.00813219
-0.00824589
-0.00835732
-0.00846636
-0.00857291
-0.00867685
-0.00877806
-0.00887644
-0.00897189
-0.00906432
-0.00915363
-0.00923973
-0.00932254
-0.00940199
-0.009478
-0.0095505
-0.00961945
-0.00968478
-0.00974644
-0.0098044
-0.00985862
-0.00990907
-0.00995573
-0.00999858
-0.0100376
-0.0100728
-0.0101042
-0.0101318
-0.0101556
-0.0101756
-0.0101919
-0.0102044
-0.0102133
-0.0102185
-0.0102201
-0.0102182
-0.0102128
-0.010204
-0.0101918
-0.0101763
-0.0101576
-0.0101357
-0.0101108
-0.0100829
-0.0100521
-0.0100184
-0.00998203
-0.00994301
-0.00990143
-0.00985739
-0.00981099
-0.0097623
-0.00971144
-0.00965849
-0.00960355
-0.00954671
-0.00948807
-0.00942772
-0.00936576
-0.00930228
-0.00923737
-0.00917112
-0.00910363
-0.00903498
-0.00896526
-0.00889455
-0.00882295
-0.00875053
-0.00867737
-0.00860356
-0.00852917
-0.00845428
-0.00837896
-0.00830329
-0.00822733
-0.00815115
-0.00807482
-0.0079984
-0.00792196
-0.00784555
-0.00776923
-0.00769307
-0.0076171
-0.00754139
-0.00746598
-0.00739092
-0.00731627
-0.00724205
-0.00716832
-0.00709512
-0.00702248
-0.00695045
-0.00687905
-0.00680833
-0.00673831
-0.00666902
-0.0066005
-0.00653277
-0.00646586
-0.00639979
-0.00633459
-0.00627028
-0.00620688
-0.00614442
-0.0060829
-0.00602235
-0.00596278
-0.00590422
-0.00584667
-0.00579015
-0.00573467
-0.00568024
-0.00562688
-0.00557459
-0.00552339
-0.00547329
-0.00542428
-0.00537639
-0.00532961
-0.00528396
-0.00523944
-0.00519605
-0.00515381
-0.0051127
-0.00507275
-0.00503396
-0.00499632
-0.00495984
-0.00492452
-0.00489037
-0.00485738
-0.00482557
-0.00479492
-0.00476545
-0.00473716
-0.00471004
-0.00468409
-0.00465932
-0.00463573
-0.00461332
-0.00459209
-0.00457203
-0.00455316
-0.00453546
-0.00451894
-0.00450361
-0.00448945
-0.00447647
-0.00446468
-0.00445406
-0.00444462
-0.00443637
-0.00442929
-0.00442339
-0.00441867
-0.00441513
-0.00441277
-0.0044116
-0.000122391
-0.000124012
-0.000127259
-0.000132131
-0.00013863
-0.00014676
-0.000156525
-0.000167929
-0.000180978
-0.000195677
-0.000212034
-0.000230056
-0.000249751
-0.000271128
-0.000294195
-0.000318963
-0.000345442
-0.000373643
-0.000403578
-0.000435258
-0.000468696
-0.000503904
-0.000540896
-0.000579684
-0.000620283
-0.000662705
-0.000706965
-0.000753077
-0.000801055
-0.000850912
-0.000902662
-0.000956318
-0.00101189
-0.0010694
-0.00112886
-0.00119027
-0.00125365
-0.00131901
-0.00138635
-0.0014557
-0.00152705
-0.00160041
-0.00167578
-0.00175318
-0.00183261
-0.00191406
-0.00199753
-0.00208302
-0.00217054
-0.00226006
-0.00235159
-0.00244511
-0.00254062
-0.00263808
-0.00273749
-0.00283883
-0.00294206
-0.00304717
-0.00315412
-0.00326288
-0.00337342
-0.00348568
-0.00359964
-0.00371524
-0.00383244
-0.00395117
-0.00407138
-0.004193
-0.00431598
-0.00444024
-0.00456571
-0.00469231
-0.00481996
-0.00494857
-0.00507805
-0.00520832
-0.00533927
-0.00547081
-0.00560283
-0.00573522
-0.00586788
-0.00600069
-0.00613353
-0.00626629
-0.00639885
-0.00653108
-0.00666285
-0.00679404
-0.00692452
-0.00705416
-0.00718282
-0.00731039
-0.00743671
-0.00756167
-0.00768513
-0.00780696
-0.00792703
-0.00804521
-0.00816136
-0.00827538
-0.00838713
-0.00849649
-0.00860335
-0.00870759
-0.00880911
-0.00890778
-0.00900353
-0.00909623
-0.00918581
-0.00927217
-0.00935523
-0.00943491
-0.00951115
-0.00958386
-0.00965301
-0.00971852
-0.00978036
-0.00983848
-0.00989284
-0.00994342
-0.0099902
-0.0100331
-0.0100723
-0.0101075
-0.010139
-0.0101666
-0.0101904
-0.0102104
-0.0102267
-0.0102392
-0.010248