/*--------------------------------*- C++ -*----------------------------------*\
| =========                 |                                                 |
| \\      /  F ield         | OpenFOAM: The Open Source CFD Toolbox           |
|  \\    /   O peration     | Version:  v2012                                 |
|   \\  /    A nd           | Website:  www.openfoam.com                      |
|    \\/     M anipulation  |                                                 |
\*---------------------------------------------------------------------------*/
FoamFile
{
    version     2.0;
    format      ascii;
    class       surfaceScalarField;
    location    "11.5";
    object      phi;
}
// * * * * * * * * * * * * * * * * * * * * * * * * * * * * * * * * * * * * * //

dimensions      [0 3 -1 0 0 0 0];
oriented        oriented;


internalField   nonuniform List<scalar> 
130560
(
3.62503e-06
-3.62504e-06
7.25021e-06
-3.62518e-06
1.08757e-05
-3.6255e-06
1.45017e-05
-3.62597e-06
1.81283e-05
-3.6266e-06
2.17557e-05
-3.62738e-06
2.5384e-05
-3.62831e-06
2.90134e-05
-3.62938e-06
3.26439e-05
-3.63059e-06
3.62759e-05
-3.63193e-06
3.99093e-05
-3.6334e-06
4.35443e-05
-3.63499e-06
4.71809e-05
-3.63668e-06
5.08194e-05
-3.63848e-06
5.44598e-05
-3.64037e-06
5.81021e-05
-3.64234e-06
6.17465e-05
-3.64437e-06
6.5393e-05
-3.64647e-06
6.90416e-05
-3.64861e-06
7.26924e-05
-3.65079e-06
7.63453e-05
-3.65298e-06
8.00005e-05
-3.65517e-06
8.36579e-05
-3.65735e-06
8.73174e-05
-3.6595e-06
9.0979e-05
-3.6616e-06
9.46426e-05
-3.66363e-06
9.83082e-05
-3.66558e-06
0.000101976
-3.66742e-06
0.000105645
-3.66913e-06
0.000109315
-3.6707e-06
0.000112987
-3.67209e-06
0.000116661
-3.67329e-06
0.000120335
-3.67427e-06
0.00012401
-3.67501e-06
0.000127686
-3.67547e-06
0.000131361
-3.67564e-06
0.000135037
-3.67549e-06
0.000138712
-3.67499e-06
0.000142386
-3.6741e-06
0.000146059
-3.6728e-06
0.00014973
-3.67107e-06
0.000153398
-3.66886e-06
0.000157065
-3.66615e-06
0.000160728
-3.6629e-06
0.000164387
-3.65909e-06
0.000168041
-3.65467e-06
0.000171691
-3.64962e-06
0.000175335
-3.6439e-06
0.000178972
-3.63748e-06
0.000182603
-3.63031e-06
0.000186225
-3.62237e-06
0.000189839
-3.61362e-06
0.000193443
-3.60402e-06
0.000197036
-3.59353e-06
0.000200618
-3.58213e-06
0.000204188
-3.56978e-06
0.000207744
-3.55643e-06
0.000211287
-3.54205e-06
0.000214813
-3.52661e-06
0.000218323
-3.51007e-06
0.000221816
-3.4924e-06
0.000225289
-3.47356e-06
0.000228743
-3.45352e-06
0.000232175
-3.43225e-06
0.000235585
-3.40971e-06
0.000238971
-3.38587e-06
0.000242331
-3.36071e-06
0.000245665
-3.33419e-06
0.000248972
-3.30629e-06
0.000252249
-3.27697e-06
0.000255495
-3.24623e-06
0.000258709
-3.21402e-06
0.000261889
-3.18034e-06
0.000265034
-3.14515e-06
0.000268143
-3.10845e-06
0.000271213
-3.07022e-06
0.000274244
-3.03044e-06
0.000277233
-2.98911e-06
0.000280179
-2.94621e-06
0.000283081
-2.90174e-06
0.000285936
-2.85569e-06
0.000288744
-2.80806e-06
0.000291503
-2.75886e-06
0.000294211
-2.70809e-06
0.000296867
-2.65575e-06
0.000299469
-2.60186e-06
0.000302015
-2.54642e-06
0.000304505
-2.48946e-06
0.000306936
-2.43099e-06
0.000309307
-2.37103e-06
0.000311616
-2.3096e-06
0.000313863
-2.24674e-06
0.000316046
-2.18248e-06
0.000318162
-2.11684e-06
0.000320212
-2.04986e-06
0.000322194
-1.98159e-06
0.000324106
-1.91206e-06
0.000325947
-1.84132e-06
0.000327717
-1.76941e-06
0.000329413
-1.69639e-06
0.000331035
-1.6223e-06
0.000332583
-1.54721e-06
0.000334054
-1.47116e-06
0.000335448
-1.39421e-06
0.000336764
-1.31643e-06
0.000338002
-1.23788e-06
0.000339161
-1.15862e-06
0.00034024
-1.07871e-06
0.000341238
-9.9823e-07
0.000342155
-9.17237e-07
0.000342991
-8.35803e-07
0.000343745
-7.53997e-07
0.000344417
-6.7189e-07
0.000345006
-5.89551e-07
0.000345513
-5.07051e-07
0.000345938
-4.2446e-07
0.00034628
-3.41851e-07
0.000346539
-2.59292e-07
0.000346716
-1.76853e-07
0.00034681
-9.4604e-08
0.000346823
-1.26148e-08
0.000346754
6.90515e-08
0.000346604
1.50324e-07
0.000346373
2.31141e-07
0.000346061
3.11437e-07
0.00034567
3.91151e-07
0.0003452
4.70223e-07
0.000344651
5.48594e-07
0.000344025
6.26208e-07
0.000343322
7.0301e-07
0.000342543
7.78948e-07
0.000341689
8.53972e-07
0.000340761
9.28034e-07
0.00033976
1.00109e-06
0.000338687
1.07309e-06
0.000337543
1.14401e-06
0.000336329
1.21379e-06
0.000335047
1.28241e-06
0.000333697
1.34983e-06
0.000332281
1.41602e-06
0.0003308
1.48096e-06
0.000329255
1.54461e-06
0.000327648
1.60696e-06
0.00032598
1.66798e-06
0.000324253
1.72767e-06
0.000322467
1.78599e-06
0.000320624
1.84294e-06
0.000318725
1.89851e-06
0.000316772
1.95268e-06
0.000314767
2.00546e-06
0.00031271
2.05684e-06
0.000310603
2.10681e-06
0.000308448
2.15539e-06
0.000306245
2.20256e-06
0.000303997
2.24833e-06
0.000301704
2.29271e-06
0.000299369
2.33571e-06
0.000296991
2.37733e-06
0.000294574
2.41759e-06
0.000292117
2.45649e-06
0.000289623
2.49406e-06
0.000287093
2.5303e-06
0.000284528
2.56524e-06
0.000281929
2.59888e-06
0.000279298
2.63126e-06
0.000276635
2.66238e-06
0.000273943
2.69227e-06
0.000271222
2.72095e-06
0.000268473
2.74843e-06
0.000265699
2.77476e-06
0.000262899
2.79994e-06
0.000260075
2.824e-06
0.000257228
2.84696e-06
0.000254359
2.86885e-06
0.000251469
2.8897e-06
0.00024856
2.90953e-06
0.000245631
2.92837e-06
0.000242685
2.94623e-06
0.000239722
2.96315e-06
0.000236743
2.97916e-06
0.000233749
2.99427e-06
0.00023074
3.00853e-06
0.000227718
3.02194e-06
0.000224684
3.03454e-06
0.000221637
3.04635e-06
0.00021858
3.05741e-06
0.000215512
3.06773e-06
0.000212435
3.07734e-06
0.000209348
3.08626e-06
0.000206254
3.09453e-06
0.000203152
3.10216e-06
0.000200043
3.10918e-06
0.000196927
3.11561e-06
0.000193806
3.12148e-06
0.000190679
3.12681e-06
0.000187547
3.13162e-06
0.000184411
3.13594e-06
0.000181271
3.13978e-06
0.000178128
3.14318e-06
0.000174982
3.14614e-06
0.000171833
3.1487e-06
0.000168682
3.15087e-06
0.00016553
3.15267e-06
0.000162376
3.15412e-06
0.00015922
3.15524e-06
0.000156064
3.15605e-06
0.000152908
3.15657e-06
0.000149751
3.15681e-06
0.000146594
3.1568e-06
0.000143438
3.15654e-06
0.000140282
3.15607e-06
0.000137126
3.15538e-06
0.000133972
3.1545e-06
0.000130818
3.15344e-06
0.000127666
3.15222e-06
0.000124515
3.15085e-06
0.000121366
3.14934e-06
0.000118218
3.14772e-06
0.000115072
3.14598e-06
0.000111928
3.14415e-06
0.000108786
3.14223e-06
0.000105646
3.14024e-06
0.000102507
3.13819e-06
9.93713e-05
3.13609e-06
9.62373e-05
3.13395e-06
9.31056e-05
3.13177e-06
8.9976e-05
3.12958e-06
8.68486e-05
3.12738e-06
8.37234e-05
3.12517e-06
8.06005e-05
3.12297e-06
7.74797e-05
3.12078e-06
7.43611e-05
3.11862e-06
7.12446e-05
3.11649e-06
6.81302e-05
3.11439e-06
6.50179e-05
3.11234e-06
6.19075e-05
3.11033e-06
5.87991e-05
3.10839e-06
5.56926e-05
3.1065e-06
5.2588e-05
3.10469e-06
4.9485e-05
3.10294e-06
4.63837e-05
3.10128e-06
4.3284e-05
3.0997e-06
4.01858e-05
3.0982e-06
3.7089e-05
3.0968e-06
3.39936e-05
3.09548e-06
3.08993e-05
3.09427e-06
2.78061e-05
3.09316e-06
2.4714e-05
3.09215e-06
2.16227e-05
3.09125e-06
1.85323e-05
3.09045e-06
1.54425e-05
3.08977e-06
1.23533e-05
3.08919e-06
9.26459e-06
3.08873e-06
6.1762e-06
3.08839e-06
3.08804e-06
3.08816e-06
3.08804e-06
3.62489e-06
-7.24993e-06
7.24992e-06
-7.25021e-06
1.08753e-05
-7.25085e-06
1.45011e-05
-7.25179e-06
1.81275e-05
-7.25305e-06
2.17548e-05
-7.25461e-06
2.53829e-05
-7.25648e-06
2.90122e-05
-7.25863e-06
3.26426e-05
-7.26105e-06
3.62745e-05
-7.26374e-06
3.99077e-05
-7.26668e-06
4.35426e-05
-7.26986e-06
4.71792e-05
-7.27326e-06
5.08176e-05
-7.27687e-06
5.44579e-05
-7.28065e-06
5.81001e-05
-7.2846e-06
6.17445e-05
-7.28869e-06
6.53909e-05
-7.2929e-06
6.90395e-05
-7.2972e-06
7.26902e-05
-7.30156e-06
7.63432e-05
-7.30595e-06
7.99984e-05
-7.31035e-06
8.36558e-05
-7.31473e-06
8.73153e-05
-7.31904e-06
9.0977e-05
-7.32326e-06
9.46407e-05
-7.32735e-06
9.83064e-05
-7.33126e-06
0.000101974
-7.33496e-06
0.000105643
-7.33841e-06
0.000109314
-7.34156e-06
0.000112986
-7.34438e-06
0.00011666
-7.3468e-06
0.000120334
-7.34878e-06
0.00012401
-7.35028e-06
0.000127685
-7.35124e-06
0.000131361
-7.35161e-06
0.000135037
-7.35133e-06
0.000138713
-7.35035e-06
0.000142387
-7.34861e-06
0.00014606
-7.34605e-06
0.000149732
-7.34261e-06
0.000153401
-7.33823e-06
0.000157068
-7.33284e-06
0.000160731
-7.32638e-06
0.000164391
-7.31878e-06
0.000168046
-7.30999e-06
0.000171697
-7.29992e-06
0.000175341
-7.28851e-06
0.00017898
-7.27569e-06
0.000182611
-7.2614e-06
0.000186234
-7.24555e-06
0.000189848
-7.22808e-06
0.000193453
-7.20892e-06
0.000197048
-7.18799e-06
0.000200631
-7.16522e-06
0.000204202
-7.14054e-06
0.000207759
-7.11388e-06
0.000211302
-7.08516e-06
0.00021483
-7.05432e-06
0.000218341
-7.02128e-06
0.000221835
-6.98597e-06
0.000225309
-6.94833e-06
0.000228764
-6.90828e-06
0.000232198
-6.86577e-06
0.000235609
-6.82072e-06
0.000238996
-6.77308e-06
0.000242358
-6.72278e-06
0.000245693
-6.66977e-06
0.000249001
-6.61399e-06
0.00025228
-6.55538e-06
0.000255527
-6.49391e-06
0.000258743
-6.42952e-06
0.000261925
-6.36217e-06
0.000265071
-6.29182e-06
0.000268181
-6.21844e-06
0.000271253
-6.14199e-06
0.000274285
-6.06244e-06
0.000277276
-5.97978e-06
0.000280223
-5.89399e-06
0.000283127
-5.80505e-06
0.000285984
-5.71296e-06
0.000288794
-5.6177e-06
0.000291554
-5.5193e-06
0.000294264
-5.41775e-06
0.000296921
-5.31306e-06
0.000299524
-5.20526e-06
0.000302072
-5.09437e-06
0.000304563
-4.98043e-06
0.000306996
-4.86346e-06
0.000309368
-4.74351e-06
0.000311679
-4.62064e-06
0.000313928
-4.49489e-06
0.000316111
-4.36633e-06
0.00031823
-4.23501e-06
0.000320281
-4.10102e-06
0.000322264
-3.96444e-06
0.000324177
-3.82533e-06
0.000326019
-3.6838e-06
0.00032779
-3.53994e-06
0.000329487
-3.39384e-06
0.000331111
-3.24562e-06
0.000332659
-3.09537e-06
0.000334131
-2.94321e-06
0.000335526
-2.78926e-06
0.000336843
-2.63364e-06
0.000338082
-2.47647e-06
0.000339241
-2.31788e-06
0.00034032
-2.158e-06
0.000341319
-1.99697e-06
0.000342237
-1.83492e-06
0.000343073
-1.67198e-06
0.000343827
-1.5083e-06
0.000344499
-1.34401e-06
0.000345089
-1.17926e-06
0.000345596
-1.01419e-06
0.000346021
-8.48943e-07
0.000346362
-6.83653e-07
0.000346622
-5.18466e-07
0.000346798
-3.5352e-07
0.000346893
-1.88954e-07
0.000346905
-2.49047e-08
0.000346835
1.38491e-07
0.000346685
3.01102e-07
0.000346453
4.62798e-07
0.000346141
6.23453e-07
0.000345749
7.82942e-07
0.000345278
9.41144e-07
0.000344729
1.09794e-06
0.000344102
1.25322e-06
0.000343398
1.40688e-06
0.000342618
1.55881e-06
0.000341763
1.7089e-06
0.000340834
1.85707e-06
0.000339832
2.00323e-06
0.000338758
2.14727e-06
0.000337613
2.28914e-06
0.000336398
2.42874e-06
0.000335114
2.56601e-06
0.000333763
2.70088e-06
0.000332346
2.8333e-06
0.000330864
2.9632e-06
0.000329318
3.09053e-06
0.000327709
3.21525e-06
0.00032604
3.33731e-06
0.000324311
3.45669e-06
0.000322524
3.57335e-06
0.000320679
3.68726e-06
0.00031878
3.7984e-06
0.000316825
3.90676e-06
0.000314819
4.01232e-06
0.00031276
4.11508e-06
0.000310652
4.21503e-06
0.000308495
4.31217e-06
0.000306291
4.40651e-06
0.000304042
4.49805e-06
0.000301748
4.5868e-06
0.000299411
4.67279e-06
0.000297032
4.75602e-06
0.000294613
4.83652e-06
0.000292155
4.91432e-06
0.00028966
4.98944e-06
0.000287128
5.06191e-06
0.000284562
5.13176e-06
0.000281961
5.19904e-06
0.000279329
5.26377e-06
0.000276665
5.32599e-06
0.000273972
5.38575e-06
0.00027125
5.44308e-06
0.0002685
5.49804e-06
0.000265724
5.55066e-06
0.000262923
5.60099e-06
0.000260098
5.64909e-06
0.00025725
5.69499e-06
0.00025438
5.73875e-06
0.000251489
5.78043e-06
0.000248579
5.82006e-06
0.000245649
5.8577e-06
0.000242702
5.89341e-06
0.000239738
5.92722e-06
0.000236758
5.95921e-06
0.000233763
5.98942e-06
0.000230754
6.01789e-06
0.000227731
6.04469e-06
0.000224696
6.06987e-06
0.000221648
6.09347e-06
0.00021859
6.11555e-06
0.000215522
6.13616e-06
0.000212444
6.15536e-06
0.000209357
6.17318e-06
0.000206262
6.18969e-06
0.000203159
6.20493e-06
0.000200049
6.21894e-06
0.000196933
6.23178e-06
0.000193811
6.2435e-06
0.000190684
6.25414e-06
0.000187552
6.26374e-06
0.000184415
6.27235e-06
0.000181275
6.28002e-06
0.000178131
6.28679e-06
0.000174985
6.2927e-06
0.000171836
6.29779e-06
0.000168684
6.30211e-06
0.000165531
6.30569e-06
0.000162377
6.30857e-06
0.000159221
6.3108e-06
0.000156065
6.3124e-06
0.000152908
6.31342e-06
0.000149751
6.31389e-06
0.000146594
6.31384e-06
0.000143437
6.31332e-06
0.000140281
6.31234e-06
0.000137126
6.31095e-06
0.000133971
6.30918e-06
0.000130817
6.30705e-06
0.000127665
6.30459e-06
0.000124514
6.30184e-06
0.000121364
6.29881e-06
0.000118217
6.29555e-06
0.00011507
6.29206e-06
0.000111926
6.28838e-06
0.000108784
6.28454e-06
0.000105644
6.28055e-06
0.000102505
6.27643e-06
9.93693e-05
6.27222e-06
9.62353e-05
6.26792e-06
9.31035e-05
6.26357e-06
8.99739e-05
6.25917e-06
8.68465e-05
6.25476e-06
8.37213e-05
6.25033e-06
8.05984e-05
6.24593e-06
7.74776e-05
6.24155e-06
7.4359e-05
6.23721e-06
7.12426e-05
6.23294e-06
6.81282e-05
6.22874e-06
6.50159e-05
6.22463e-06
6.19057e-05
6.22061e-06
5.87973e-05
6.21672e-06
5.56909e-05
6.21294e-06
5.25863e-05
6.20931e-06
4.94834e-05
6.20581e-06
4.63822e-05
6.20248e-06
4.32826e-05
6.19931e-06
4.01845e-05
6.19631e-06
3.70878e-05
6.1935e-06
3.39924e-05
6.19087e-06
3.08982e-05
6.18844e-06
2.78051e-05
6.18622e-06
2.47131e-05
6.1842e-06
2.1622e-05
6.18239e-06
1.85316e-05
6.1808e-06
1.5442e-05
6.17942e-06
1.23529e-05
6.17828e-06
9.26425e-06
6.17736e-06
6.17597e-06
6.17666e-06
3.08793e-06
6.1762e-06
6.17597e-06
3.62456e-06
-1.08745e-05
7.24929e-06
-1.08749e-05
1.08743e-05
-1.08759e-05
1.44999e-05
-1.08773e-05
1.8126e-05
-1.08792e-05
2.1753e-05
-1.08816e-05
2.53808e-05
-1.08844e-05
2.90098e-05
-1.08876e-05
3.264e-05
-1.08913e-05
3.62716e-05
-1.08953e-05
3.99046e-05
-1.08997e-05
4.35393e-05
-1.09045e-05
4.71757e-05
-1.09096e-05
5.08139e-05
-1.09151e-05
5.4454e-05
-1.09208e-05
5.80961e-05
-1.09267e-05
6.17403e-05
-1.09329e-05
6.53867e-05
-1.09392e-05
6.90352e-05
-1.09457e-05
7.26859e-05
-1.09523e-05
7.63389e-05
-1.09589e-05
7.99941e-05
-1.09656e-05
8.36516e-05
-1.09722e-05
8.73112e-05
-1.09787e-05
9.0973e-05
-1.09851e-05
9.46369e-05
-1.09912e-05
9.83028e-05
-1.09972e-05
0.000101971
-1.10028e-05
0.00010564
-1.1008e-05
0.000109311
-1.10128e-05
0.000112984
-1.10171e-05
0.000116658
-1.10207e-05
0.000120333
-1.10238e-05
0.000124009
-1.10261e-05
0.000127685
-1.10276e-05
0.000131362
-1.10282e-05
0.000135038
-1.10279e-05
0.000138715
-1.10265e-05
0.00014239
-1.10239e-05
0.000146064
-1.10202e-05
0.000149736
-1.10151e-05
0.000153407
-1.10086e-05
0.000157075
-1.10006e-05
0.000160739
-1.0991e-05
0.0001644
-1.09797e-05
0.000168057
-1.09666e-05
0.000171708
-1.09516e-05
0.000175354
-1.09345e-05
0.000178994
-1.09154e-05
0.000182627
-1.0894e-05
0.000186252
-1.08704e-05
0.000189868
-1.08442e-05
0.000193474
-1.08156e-05
0.000197071
-1.07843e-05
0.000200656
-1.07502e-05
0.000204228
-1.07133e-05
0.000207788
-1.06734e-05
0.000211333
-1.06304e-05
0.000214863
-1.05842e-05
0.000218377
-1.05348e-05
0.000221872
-1.04819e-05
0.00022535
-1.04255e-05
0.000228807
-1.03655e-05
0.000232243
-1.03018e-05
0.000235657
-1.02343e-05
0.000239046
-1.01629e-05
0.000242411
-1.00876e-05
0.00024575
-1.00081e-05
0.00024906
-9.92451e-06
0.000252341
-9.83667e-06
0.000255592
-9.74451e-06
0.00025881
-9.64798e-06
0.000261995
-9.54701e-06
0.000265145
-9.44153e-06
0.000268258
-9.33149e-06
0.000271333
-9.21685e-06
0.000274368
-9.09756e-06
0.000277362
-8.97359e-06
0.000280313
-8.84492e-06
0.000283219
-8.71152e-06
0.00028608
-8.57338e-06
0.000288892
-8.4305e-06
0.000291656
-8.28288e-06
0.000294369
-8.13054e-06
0.000297029
-7.97348e-06
0.000299636
-7.81175e-06
0.000302187
-7.64538e-06
0.000304681
-7.47442e-06
0.000307116
-7.29891e-06
0.000309492
-7.11893e-06
0.000311805
-6.93455e-06
0.000314056
-6.74585e-06
0.000316243
-6.55292e-06
0.000318364
-6.35586e-06
0.000320418
-6.15478e-06
0.000322403
-5.9498e-06
0.000324319
-5.74103e-06
0.000326164
-5.52862e-06
0.000327936
-5.3127e-06
0.000329636
-5.09343e-06
0.000331261
-4.87095e-06
0.000332811
-4.64544e-06
0.000334285
-4.41706e-06
0.000335682
-4.18598e-06
0.000337001
-3.95239e-06
0.000338241
-3.71648e-06
0.000339401
-3.47844e-06
0.000340482
-3.23845e-06
0.000341481
-2.99674e-06
0.0003424
-2.75348e-06
0.000343237
-2.5089e-06
0.000343992
-2.26321e-06
0.000344664
-2.0166e-06
0.000345254
-1.7693e-06
0.000345762
-1.52152e-06
0.000346186
-1.27347e-06
0.000346528
-1.02536e-06
0.000346787
-7.77401e-07
0.000346963
-5.29809e-07
0.000347057
-2.8279e-07
0.000347069
-3.65448e-08
0.000346998
2.08711e-07
0.000346847
4.52791e-07
0.000346614
6.95495e-07
0.000346301
9.36631e-07
0.000345908
1.17602e-06
0.000345435
1.41346e-06
0.000344885
1.6488e-06
0.000344256
1.88186e-06
0.00034355
2.11248e-06
0.000342769
2.34049e-06
0.000341912
2.56576e-06
0.000340981
2.78813e-06
0.000339977
3.00746e-06
0.0003389
3.22364e-06
0.000337753
3.43653e-06
0.000336536
3.64602e-06
0.00033525
3.85201e-06
0.000333896
4.0544e-06
0.000332476
4.25309e-06
0.000330991
4.448e-06
0.000329443
4.63905e-06
0.000327832
4.82618e-06
0.00032616
5.00932e-06
0.000324428
5.18843e-06
0.000322638
5.36345e-06
0.000320791
5.53434e-06
0.000318888
5.70108e-06
0.000316931
5.86363e-06
0.000314922
6.02199e-06
0.000312861
6.17613e-06
0.00031075
6.32605e-06
0.00030859
6.47176e-06
0.000306383
6.61325e-06
0.000304131
6.75055e-06
0.000301834
6.88366e-06
0.000299494
7.01262e-06
0.000297113
7.13744e-06
0.000294691
7.25817e-06
0.000292231
7.37483e-06
0.000289733
7.48747e-06
0.000287198
7.59613e-06
0.000284629
7.70087e-06
0.000282027
7.80174e-06
0.000279392
7.89878e-06
0.000276725
7.99206e-06
0.00027403
8.08165e-06
0.000271305
8.16759e-06
0.000268553
8.24997e-06
0.000265775
8.32885e-06
0.000262972
8.40429e-06
0.000260144
8.47637e-06
0.000257294
8.54517e-06
0.000254422
8.61075e-06
0.000251529
8.67319e-06
0.000248617
8.73258e-06
0.000245686
8.78897e-06
0.000242737
8.84247e-06
0.000239771
8.89313e-06
0.000236789
8.94104e-06
0.000233792
8.98629e-06
0.000230781
9.02894e-06
0.000227757
9.06907e-06
0.00022472
9.10677e-06
0.000221671
9.14211e-06
0.000218611
9.17517e-06
0.000215541
9.20602e-06
0.000212462
9.23475e-06
0.000209374
9.26143e-06
0.000206277
9.28613e-06
0.000203173
9.30892e-06
0.000200062
9.32988e-06
0.000196945
9.34909e-06
0.000193822
9.3666e-06
0.000190694
9.3825e-06
0.000187561
9.39685e-06
0.000184423
9.40971e-06
0.000181282
9.42116e-06
0.000178138
9.43126e-06
0.00017499
9.44007e-06
0.00017184
9.44766e-06
0.000168688
9.45408e-06
0.000165535
9.45941e-06
0.00016238
9.46368e-06
0.000159223
9.46698e-06
0.000156066
9.46934e-06
0.000152909
9.47082e-06
0.000149751
9.47148e-06
0.000146594
9.47137e-06
0.000143437
9.47054e-06
0.00014028
9.46904e-06
0.000137124
9.46692e-06
0.000133969
9.46422e-06
0.000130815
9.46098e-06
0.000127662
9.45726e-06
0.000124511
9.4531e-06
0.000121361
9.44853e-06
0.000118213
9.4436e-06
0.000115067
9.43834e-06
0.000111923
9.4328e-06
0.00010878
9.427e-06
0.00010564
9.42098e-06
0.000102501
9.41479e-06
9.93652e-05
9.40844e-06
9.62311e-05
9.40197e-06
9.30993e-05
9.39541e-06
8.99697e-05
9.3888e-06
8.68423e-05
9.38215e-06
8.37171e-05
9.3755e-06
8.05942e-05
9.36886e-06
7.74735e-05
9.36227e-06
7.43549e-05
9.35575e-06
7.12385e-05
9.34932e-06
6.81243e-05
9.34301e-06
6.50121e-05
9.33682e-06
6.19019e-05
9.33079e-06
5.87937e-05
9.32493e-06
5.56874e-05
9.31925e-06
5.25829e-05
9.31379e-06
4.94802e-05
9.30854e-06
4.63791e-05
9.30352e-06
4.32797e-05
9.29876e-06
4.01817e-05
9.29425e-06
3.70852e-05
9.29002e-06
3.399e-05
9.28608e-06
3.0896e-05
9.28242e-06
2.78032e-05
9.27907e-06
2.47113e-05
9.27604e-06
2.16204e-05
9.27332e-06
1.85303e-05
9.27093e-06
1.54408e-05
9.26887e-06
1.2352e-05
9.26714e-06
9.26358e-06
9.26576e-06
6.17552e-06
9.26472e-06
3.0877e-06
9.26402e-06
9.26367e-06
3.6241e-06
-1.44986e-05
7.24835e-06
-1.44992e-05
1.08729e-05
-1.45005e-05
1.4498e-05
-1.45024e-05
1.81237e-05
-1.45049e-05
2.17502e-05
-1.45081e-05
2.53777e-05
-1.45118e-05
2.90062e-05
-1.45162e-05
3.2636e-05
-1.45211e-05
3.62672e-05
-1.45265e-05
3.98999e-05
-1.45324e-05
4.35343e-05
-1.45389e-05
4.71703e-05
-1.45457e-05
5.08083e-05
-1.4553e-05
5.44482e-05
-1.45607e-05
5.80901e-05
-1.45687e-05
6.17341e-05
-1.45769e-05
6.53803e-05
-1.45854e-05
6.90288e-05
-1.45941e-05
7.26795e-05
-1.4603e-05
7.63324e-05
-1.46119e-05
7.99877e-05
-1.46208e-05
8.36452e-05
-1.46297e-05
8.7305e-05
-1.46385e-05
9.0967e-05
-1.46471e-05
9.46312e-05
-1.46554e-05
9.82974e-05
-1.46634e-05
0.000101966
-1.4671e-05
0.000105636
-1.4678e-05
0.000109307
-1.46845e-05
0.000112981
-1.46903e-05
0.000116655
-1.46954e-05
0.000120331
-1.46995e-05
0.000124008
-1.47027e-05
0.000127685
-1.47049e-05
0.000131362
-1.47058e-05
0.00013504
-1.47055e-05
0.000138717
-1.47038e-05
0.000142394
-1.47005e-05
0.000146069
-1.46956e-05
0.000149743
-1.4689e-05
0.000153415
-1.46805e-05
0.000157085
-1.467e-05
0.000160751
-1.46573e-05
0.000164414
-1.46424e-05
0.000168072
-1.46251e-05
0.000171726
-1.46052e-05
0.000175374
-1.45827e-05
0.000179016
-1.45573e-05
0.000182651
-1.4529e-05
0.000186278
-1.44976e-05
0.000189897
-1.4463e-05
0.000193506
-1.44249e-05
0.000197105
-1.43833e-05
0.000200693
-1.43381e-05
0.000204269
-1.4289e-05
0.000207831
-1.4236e-05
0.00021138
-1.41788e-05
0.000214913
-1.41174e-05
0.00021843
-1.40516e-05
0.000221929
-1.39813e-05
0.00022541
-1.39063e-05
0.000228871
-1.38264e-05
0.000232311
-1.37417e-05
0.000235728
-1.36518e-05
0.000239122
-1.35568e-05
0.000242491
-1.34564e-05
0.000245834
-1.33506e-05
0.000249148
-1.32393e-05
0.000252434
-1.31223e-05
0.000255689
-1.29995e-05
0.000258912
-1.28709e-05
0.000262101
-1.27363e-05
0.000265255
-1.25958e-05
0.000268373
-1.24491e-05
0.000271453
-1.22964e-05
0.000274492
-1.21374e-05
0.000277491
-1.19721e-05
0.000280447
-1.18006e-05
0.000283358
-1.16227e-05
0.000286223
-1.14386e-05
0.00028904
-1.1248e-05
0.000291809
-1.10512e-05
0.000294526
-1.0848e-05
0.000297191
-1.06386e-05
0.000299802
-1.04229e-05
0.000302358
-1.0201e-05
0.000304857
-9.97295e-06
0.000307297
-9.73884e-06
0.000309676
-9.49876e-06
0.000311995
-9.25279e-06
0.00031425
-9.00105e-06
0.000316441
-8.74365e-06
0.000318565
-8.48074e-06
0.000320623
-8.21245e-06
0.000322612
-7.93894e-06
0.000324532
-7.66038e-06
0.00032638
-7.37695e-06
0.000328156
-7.08883e-06
0.000329859
-6.79622e-06
0.000331487
-6.49933e-06
0.00033304
-6.19838e-06
0.000334517
-5.8936e-06
0.000335916
-5.58522e-06
0.000337237
-5.27348e-06
0.000338479
-4.95863e-06
0.000339642
-4.64093e-06
0.000340724
-4.32064e-06
0.000341725
-3.99803e-06
0.000342645
-3.67338e-06
0.000343483
-3.34695e-06
0.000344239
-3.01902e-06
0.000344912
-2.68989e-06
0.000345503
-2.35983e-06
0.00034601
-2.02912e-06
0.000346435
-1.69805e-06
0.000346776
-1.36691e-06
0.000347035
-1.03598e-06
0.000347211
-7.0553e-07
0.000347304
-3.75851e-07
0.000347314
-4.72101e-08
0.000347243
2.80108e-07
0.00034709
6.05851e-07
0.000346856
9.29753e-07
0.000346541
1.25156e-06
0.000346146
1.57102e-06
0.000345671
1.88789e-06
0.000345118
2.20194e-06
0.000344487
2.51294e-06
0.000343779
2.82067e-06
0.000342995
3.12493e-06
0.000342135
3.4255e-06
0.000341201
3.72221e-06
0.000340193
4.01486e-06
0.000339114
4.30328e-06
0.000337963
4.58731e-06
0.000336742
4.86681e-06
0.000335452
5.14161e-06
0.000334095
5.4116e-06
0.000332672
5.67665e-06
0.000331183
5.93665e-06
0.000329631
6.1915e-06
0.000328016
6.4411e-06
0.00032634
6.68537e-06
0.000324604
6.92425e-06
0.00032281
7.15767e-06
0.000320958
7.38558e-06
0.000319052
7.60794e-06
0.00031709
7.82471e-06
0.000315077
8.03586e-06
0.000313011
8.2414e-06
0.000310896
8.44129e-06
0.000308732
8.63556e-06
0.000306521
8.8242e-06
0.000304265
9.00723e-06
0.000301964
9.18468e-06
0.00029962
9.35658e-06
0.000297234
9.52296e-06
0.000294808
9.68387e-06
0.000292344
9.83936e-06
0.000289842
9.98947e-06
0.000287304
1.01343e-05
0.000284731
1.02739e-05
0.000282124
1.04083e-05
0.000279485
1.05376e-05
0.000276816
1.06618e-05
0.000274116
1.07812e-05
0.000271388
1.08957e-05
0.000268633
1.10054e-05
0.000265851
1.11105e-05
0.000263044
1.12109e-05
0.000260214
1.13069e-05
0.00025736
1.13986e-05
0.000254485
1.14859e-05
0.000251589
1.1569e-05
0.000248674
1.16481e-05
0.00024574
1.17232e-05
0.000242788
1.17944e-05
0.000239819
1.18618e-05
0.000236835
1.19256e-05
0.000233835
1.19858e-05
0.000230822
1.20425e-05
0.000227795
1.20959e-05
0.000224756
1.2146e-05
0.000221705
1.2193e-05
0.000218643
1.2237e-05
0.000215571
1.2278e-05
0.000212489
1.23162e-05
0.000209399
1.23517e-05
0.000206301
1.23845e-05
0.000203195
1.24148e-05
0.000200082
1.24426e-05
0.000196963
1.24681e-05
0.000193839
1.24913e-05
0.000190709
1.25124e-05
0.000187574
1.25314e-05
0.000184435
1.25485e-05
0.000181293
1.25637e-05
0.000178147
1.2577e-05
0.000174998
1.25887e-05
0.000171847
1.25987e-05
0.000168694
1.26072e-05
0.000165539
1.26142e-05
0.000162383
1.26198e-05
0.000159226
1.26241e-05
0.000156068
1.26272e-05
0.00015291
1.26291e-05
0.000149752
1.26299e-05
0.000146594
1.26296e-05
0.000143436
1.26284e-05
0.000140278
1.26264e-05
0.000137122
1.26235e-05
0.000133966
1.26198e-05
0.000130812
1.26154e-05
0.000127659
1.26104e-05
0.000124507
1.26048e-05
0.000121357
1.25986e-05
0.000118208
1.2592e-05
0.000115062
1.25849e-05
0.000111917
1.25775e-05
0.000108775
1.25697e-05
0.000105634
1.25616e-05
0.000102495
1.25533e-05
9.93591e-05
1.25448e-05
9.62249e-05
1.25361e-05
9.3093e-05
1.25273e-05
8.99633e-05
1.25185e-05
8.68359e-05
1.25096e-05
8.37108e-05
1.25006e-05
8.05879e-05
1.24918e-05
7.74672e-05
1.24829e-05
7.43487e-05
1.24742e-05
7.12325e-05
1.24656e-05
6.81183e-05
1.24572e-05
6.50063e-05
1.24489e-05
6.18962e-05
1.24408e-05
5.87882e-05
1.2433e-05
5.56821e-05
1.24254e-05
5.25778e-05
1.24181e-05
4.94753e-05
1.2411e-05
4.63745e-05
1.24043e-05
4.32753e-05
1.2398e-05
4.01776e-05
1.23919e-05
3.70814e-05
1.23863e-05
3.39865e-05
1.2381e-05
3.08928e-05
1.23761e-05
2.78002e-05
1.23716e-05
2.47087e-05
1.23676e-05
2.16181e-05
1.23639e-05
1.85283e-05
1.23607e-05
1.54392e-05
1.2358e-05
1.23506e-05
1.23557e-05
9.26256e-06
1.23538e-05
6.17485e-06
1.23524e-05
3.08737e-06
1.23515e-05
1.2351e-05
3.62346e-06
-1.8122e-05
7.24709e-06
-1.81228e-05
1.0871e-05
-1.81244e-05
1.44955e-05
-1.81268e-05
1.81206e-05
-1.813e-05
2.17465e-05
-1.8134e-05
2.53734e-05
-1.81387e-05
2.90014e-05
-1.81442e-05
3.26307e-05
-1.81503e-05
3.62614e-05
-1.81572e-05
3.98936e-05
-1.81647e-05
4.35275e-05
-1.81727e-05
4.71632e-05
-1.81814e-05
5.08008e-05
-1.81906e-05
5.44403e-05
-1.82002e-05
5.8082e-05
-1.82103e-05
6.17258e-05
-1.82207e-05
6.53718e-05
-1.82315e-05
6.90201e-05
-1.82425e-05
7.26707e-05
-1.82536e-05
7.63237e-05
-1.82649e-05
7.9979e-05
-1.82761e-05
8.36367e-05
-1.82874e-05
8.72966e-05
-1.82985e-05
9.09589e-05
-1.83093e-05
9.46234e-05
-1.83199e-05
9.82901e-05
-1.833e-05
0.000101959
-1.83396e-05
0.000105629
-1.83486e-05
0.000109302
-1.83569e-05
0.000112976
-1.83644e-05
0.000116651
-1.83708e-05
0.000120328
-1.83762e-05
0.000124006
-1.83804e-05
0.000127684
-1.83833e-05
0.000131363
-1.83847e-05
0.000135042
-1.83845e-05
0.000138721
-1.83826e-05
0.000142399
-1.83787e-05
0.000146076
-1.83729e-05
0.000149752
-1.83648e-05
0.000153426
-1.83544e-05
0.000157098
-1.83415e-05
0.000160766
-1.83259e-05
0.000164431
-1.83075e-05
0.000168092
-1.82861e-05
0.000171749
-1.82615e-05
0.0001754
-1.82336e-05
0.000179044
-1.82022e-05
0.000182683
-1.81671e-05
0.000186313
-1.81281e-05
0.000189935
-1.80851e-05
0.000193548
-1.80378e-05
0.000197151
-1.79861e-05
0.000200742
-1.79298e-05
0.000204322
-1.78687e-05
0.000207889
-1.78027e-05
0.000211442
-1.77315e-05
0.000214979
-1.76551e-05
0.000218501
-1.75731e-05
0.000222005
-1.74854e-05
0.00022549
-1.73919e-05
0.000228956
-1.72923e-05
0.000232401
-1.71866e-05
0.000235824
-1.70745e-05
0.000239223
-1.6956e-05
0.000242597
-1.68307e-05
0.000245945
-1.66987e-05
0.000249266
-1.65597e-05
0.000252557
-1.64136e-05
0.000255818
-1.62603e-05
0.000259047
-1.60997e-05
0.000262242
-1.59317e-05
0.000265403
-1.57561e-05
0.000268526
-1.5573e-05
0.000271612
-1.53821e-05
0.000274658
-1.51834e-05
0.000277663
-1.49769e-05
0.000280625
-1.47625e-05
0.000283542
-1.45403e-05
0.000286414
-1.43101e-05
0.000289238
-1.40719e-05
0.000292012
-1.38258e-05
0.000294736
-1.35718e-05
0.000297408
-1.33099e-05
0.000300025
-1.30402e-05
0.000302587
-1.27627e-05
0.000305091
-1.24775e-05
0.000307537
-1.21848e-05
0.000309923
-1.18845e-05
0.000312247
-1.15768e-05
0.000314508
-1.12619e-05
0.000316704
-1.09399e-05
0.000318834
-1.0611e-05
0.000320897
-1.02753e-05
0.000322891
-9.93314e-06
0.000324816
-9.58461e-06
0.000326669
-9.22996e-06
0.000328449
-8.86944e-06
0.000330156
-8.50329e-06
0.000331789
-8.13177e-06
0.000333345
-7.75516e-06
0.000334826
-7.37374e-06
0.000336228
-6.98781e-06
0.000337552
-6.59767e-06
0.000338797
-6.20363e-06
0.000339963
-5.80601e-06
0.000341047
-5.40516e-06
0.00034205
-5.00139e-06
0.000342972
-4.59505e-06
0.000343812
-4.18649e-06
0.000344569
-3.77606e-06
0.000345243
-3.36411e-06
0.000345834
-2.951e-06
0.000346342
-2.53708e-06
0.000346767
-2.12272e-06
0.000347108
-1.70826e-06
0.000347366
-1.29407e-06
0.000347541
-8.8049e-07
0.000347633
-4.67877e-07
0.000347642
-5.65673e-08
0.000347569
3.53077e-07
0.000347415
7.60745e-07
0.000347178
1.1661e-06
0.000346861
1.56882e-06
0.000346463
1.9686e-06
0.000345986
2.36513e-06
0.00034543
2.75812e-06
0.000344796
3.14728e-06
0.000344084
3.53234e-06
0.000343296
3.91303e-06
0.000342432
4.28911e-06
0.000341494
4.66033e-06
0.000340482
5.02647e-06
0.000339398
5.38731e-06
0.000338243
5.74263e-06
0.000337018
6.09227e-06
0.000335723
6.43602e-06
0.000334361
6.77374e-06
0.000332933
7.10526e-06
0.000331439
7.43045e-06
0.000329881
7.74918e-06
0.000328261
8.06134e-06
0.000326579
8.36682e-06
0.000324838
8.66553e-06
0.000323038
8.9574e-06
0.000321182
9.24237e-06
0.000319269
9.52038e-06
0.000317302
9.79139e-06
0.000315283
1.00554e-05
0.000313212
1.03123e-05
0.000311091
1.05622e-05
0.000308922
1.0805e-05
0.000306705
1.10407e-05
0.000304443
1.12695e-05
0.000302136
1.14913e-05
0.000299787
1.17061e-05
0.000297396
1.19139e-05
0.000294965
1.2115e-05
0.000292495
1.23092e-05
0.000289988
1.24968e-05
0.000287444
1.26777e-05
0.000284866
1.2852e-05
0.000282254
1.30199e-05
0.000279611
1.31814e-05
0.000276936
1.33366e-05
0.000274232
1.34856e-05
0.000271499
1.36285e-05
0.000268739
1.37655e-05
0.000265952
1.38967e-05
0.000263141
1.40221e-05
0.000260306
1.41419e-05
0.000257449
1.42562e-05
0.000254569
1.43652e-05
0.000251669
1.44689e-05
0.00024875
1.45676e-05