/*--------------------------------*- C++ -*----------------------------------*\
| =========                 |                                                 |
| \\      /  F ield         | OpenFOAM: The Open Source CFD Toolbox           |
|  \\    /   O peration     | Version:  v2012                                 |
|   \\  /    A nd           | Website:  www.openfoam.com                      |
|    \\/     M anipulation  |                                                 |
\*---------------------------------------------------------------------------*/
FoamFile
{
    version     2.0;
    format      ascii;
    class       volVectorField;
    location    "11.5";
    object      U;
}
// * * * * * * * * * * * * * * * * * * * * * * * * * * * * * * * * * * * * * //

dimensions      [0 1 -1 0 0 0 0];


internalField   nonuniform List<vector> 
65536
(
(0.000738475 -0.000738502 0)
(0.00221549 -0.000738524 0)
(0.00369256 -0.000738598 0)
(0.00516978 -0.000738696 0)
(0.00664725 -0.000738825 0)
(0.00812501 -0.000738985 0)
(0.00960311 -0.000739174 0)
(0.0110816 -0.000739392 0)
(0.0125606 -0.000739638 0)
(0.0140401 -0.000739911 0)
(0.0155202 -0.00074021 0)
(0.0170009 -0.000740532 0)
(0.0184822 -0.000740877 0)
(0.0199643 -0.000741243 0)
(0.0214471 -0.000741627 0)
(0.0229307 -0.000742027 0)
(0.0244152 -0.000742442 0)
(0.0259004 -0.000742868 0)
(0.0273866 -0.000743304 0)
(0.0288736 -0.000743746 0)
(0.0303615 -0.000744191 0)
(0.0318503 -0.000744637 0)
(0.03334 -0.00074508 0)
(0.0348306 -0.000745517 0)
(0.036322 -0.000745943 0)
(0.0378143 -0.000746357 0)
(0.0393074 -0.000746752 0)
(0.0408013 -0.000747126 0)
(0.0422959 -0.000747474 0)
(0.0437912 -0.000747792 0)
(0.0452871 -0.000748074 0)
(0.0467835 -0.000748317 0)
(0.0482803 -0.000748516 0)
(0.0497775 -0.000748664 0)
(0.051275 -0.000748758 0)
(0.0527726 -0.000748791 0)
(0.0542702 -0.000748759 0)
(0.0557676 -0.000748654 0)
(0.0572648 -0.000748472 0)
(0.0587616 -0.000748207 0)
(0.0602577 -0.000747852 0)
(0.061753 -0.0007474 0)
(0.0632473 -0.000746846 0)
(0.0647404 -0.000746183 0)
(0.0662321 -0.000745404 0)
(0.0677221 -0.000744503 0)
(0.0692102 -0.000743472 0)
(0.0706961 -0.000742305 0)
(0.0721795 -0.000740994 0)
(0.0736602 -0.000739532 0)
(0.0751378 -0.000737913 0)
(0.076612 -0.000736128 0)
(0.0780824 -0.00073417 0)
(0.0795488 -0.000732033 0)
(0.0810107 -0.000729708 0)
(0.0824677 -0.000727189 0)
(0.0839196 -0.000724467 0)
(0.0853658 -0.000721537 0)
(0.0868059 -0.00071839 0)
(0.0882395 -0.000715019 0)
(0.0896661 -0.000711417 0)
(0.0910854 -0.000707578 0)
(0.0924967 -0.000703494 0)
(0.0938995 -0.000699158 0)
(0.0952935 -0.000694565 0)
(0.096678 -0.000689707 0)
(0.0980525 -0.00068458 0)
(0.0994166 -0.000679176 0)
(0.100769 -0.00067349 0)
(0.102111 -0.000667517 0)
(0.10344 -0.000661252 0)
(0.104756 -0.00065469 0)
(0.106059 -0.000647827 0)
(0.107348 -0.000640658 0)
(0.108622 -0.000633181 0)
(0.109881 -0.000625392 0)
(0.111124 -0.000617288 0)
(0.11235 -0.000608867 0)
(0.113559 -0.000600127 0)
(0.114751 -0.000591068 0)
(0.115924 -0.000581687 0)
(0.117078 -0.000571985 0)
(0.118212 -0.000561962 0)
(0.119326 -0.000551619 0)
(0.120419 -0.000540957 0)
(0.12149 -0.000529979 0)
(0.122539 -0.000518687 0)
(0.123565 -0.000507083 0)
(0.124568 -0.000495172 0)
(0.125546 -0.000482958 0)
(0.1265 -0.000470447 0)
(0.127428 -0.000457643 0)
(0.12833 -0.000444552 0)
(0.129206 -0.000431183 0)
(0.130055 -0.000417541 0)
(0.130877 -0.000403634 0)
(0.13167 -0.000389472 0)
(0.132435 -0.000375063 0)
(0.133171 -0.000360417 0)
(0.133877 -0.000345544 0)
(0.134553 -0.000330454 0)
(0.135199 -0.000315159 0)
(0.135814 -0.000299669 0)
(0.136398 -0.000283997 0)
(0.13695 -0.000268155 0)
(0.13747 -0.000252156 0)
(0.137959 -0.000236012 0)
(0.138414 -0.000219738 0)
(0.138838 -0.000203345 0)
(0.139228 -0.000186849 0)
(0.139585 -0.000170263 0)
(0.139909 -0.000153602 0)
(0.140199 -0.000136879 0)
(0.140456 -0.000120108 0)
(0.14068 -0.000103305 0)
(0.14087 -8.64837e-05 0)
(0.141026 -6.96582e-05 0)
(0.141148 -5.28431e-05 0)
(0.141237 -3.60524e-05 0)
(0.141292 -1.93003e-05 0)
(0.141314 -2.60057e-06 0)
(0.141303 1.40325e-05 0)
(0.141258 3.05858e-05 0)
(0.14118 4.70463e-05 0)
(0.14107 6.34009e-05 0)
(0.140926 7.9637e-05 0)
(0.140751 9.57424e-05 0)
(0.140543 0.000111705 0)
(0.140304 0.000127514 0)
(0.140033 0.000143157 0)
(0.139731 0.000158624 0)
(0.139398 0.000173906 0)
(0.139035 0.000188991 0)
(0.138642 0.000203871 0)
(0.138219 0.000218538 0)
(0.137768 0.000232982 0)
(0.137287 0.000247197 0)
(0.136779 0.000261174 0)
(0.136242 0.000274907 0)
(0.135679 0.00028839 0)
(0.135088 0.000301618 0)
(0.134472 0.000314584 0)
(0.13383 0.000327285 0)
(0.133162 0.000339716 0)
(0.13247 0.000351873 0)
(0.131755 0.000363754 0)
(0.131015 0.000375355 0)
(0.130253 0.000386675 0)
(0.129468 0.000397711 0)
(0.128662 0.000408463 0)
(0.127834 0.00041893 0)
(0.126986 0.000429111 0)
(0.126117 0.000439006 0)
(0.125229 0.000448615 0)
(0.124322 0.00045794 0)
(0.123397 0.000466982 0)
(0.122454 0.000475742 0)
(0.121494 0.000484221 0)
(0.120517 0.000492423 0)
(0.119524 0.00050035 0)
(0.118515 0.000508004 0)
(0.117491 0.000515388 0)
(0.116453 0.000522506 0)
(0.115401 0.000529361 0)
(0.114335 0.000535958 0)
(0.113257 0.000542299 0)
(0.112166 0.000548389 0)
(0.111063 0.000554232 0)
(0.109949 0.000559833 0)
(0.108823 0.000565197 0)
(0.107688 0.000570328 0)
(0.106542 0.000575231 0)
(0.105386 0.00057991 0)
(0.104222 0.000584372 0)
(0.103049 0.00058862 0)
(0.101867 0.000592661 0)
(0.100678 0.000596499 0)
(0.0994809 0.00060014 0)
(0.0982769 0.000603589 0)
(0.0970663 0.000606851 0)
(0.0958493 0.000609932 0)
(0.0946263 0.000612836 0)
(0.0933977 0.00061557 0)
(0.0921638 0.000618139 0)
(0.0909249 0.000620547 0)
(0.0896814 0.0006228 0)
(0.0884335 0.000624904 0)
(0.0871816 0.000626863 0)
(0.0859259 0.000628682 0)
(0.0846667 0.000630367 0)
(0.0834042 0.000631923 0)
(0.0821388 0.000633354 0)
(0.0808707 0.000634666 0)
(0.0796 0.000635863 0)
(0.078327 0.00063695 0)
(0.077052 0.000637931 0)
(0.0757752 0.000638812 0)
(0.0744966 0.000639597 0)
(0.0732166 0.000640289 0)
(0.0719353 0.000640895 0)
(0.0706529 0.000641416 0)
(0.0693695 0.000641859 0)
(0.0680854 0.000642227 0)
(0.0668005 0.000642524 0)
(0.0655151 0.000642753 0)
(0.0642294 0.000642919 0)
(0.0629434 0.000643026 0)
(0.0616572 0.000643076 0)
(0.060371 0.000643074 0)
(0.0590848 0.000643023 0)
(0.0577988 0.000642927 0)
(0.056513 0.000642787 0)
(0.0552275 0.000642609 0)
(0.0539425 0.000642394 0)
(0.0526579 0.000642146 0)
(0.0513738 0.000641868 0)
(0.0500903 0.000641562 0)
(0.0488075 0.000641231 0)
(0.0475253 0.000640878 0)
(0.0462439 0.000640505 0)
(0.0449633 0.000640116 0)
(0.0436834 0.000639711 0)
(0.0424044 0.000639293 0)
(0.0411262 0.000638866 0)
(0.0398488 0.00063843 0)
(0.0385724 0.000637988 0)
(0.0372968 0.000637541 0)
(0.0360222 0.000637093 0)
(0.0347484 0.000636644 0)
(0.0334756 0.000636196 0)
(0.0322036 0.000635751 0)
(0.0309325 0.000635311 0)
(0.0296623 0.000634876 0)
(0.028393 0.00063445 0)
(0.0271245 0.000634032 0)
(0.0258568 0.000633624 0)
(0.02459 0.000633228 0)
(0.0233239 0.000632845 0)
(0.0220586 0.000632475 0)
(0.020794 0.00063212 0)
(0.0195301 0.000631781 0)
(0.0182668 0.000631459 0)
(0.0170042 0.000631154 0)
(0.0157422 0.000630868 0)
(0.0144807 0.000630601 0)
(0.0132197 0.000630354 0)
(0.0119593 0.000630128 0)
(0.0106992 0.000629922 0)
(0.00943955 0.000629739 0)
(0.00818024 0.000629577 0)
(0.00692122 0.000629437 0)
(0.00566247 0.000629321 0)
(0.00440392 0.000629227 0)
(0.00314554 0.000629157 0)
(0.00188728 0.00062911 0)
(0.000629091 0.000629086 0)
(0.000738452 -0.00221544 0)
(0.00221539 -0.00221553 0)
(0.0036924 -0.00221574 0)
(0.00516957 -0.00221603 0)
(0.00664698 -0.00221642 0)
(0.00812468 -0.0022169 0)
(0.00960272 -0.00221746 0)
(0.0110812 -0.00221812 0)
(0.0125601 -0.00221886 0)
(0.0140395 -0.00221968 0)
(0.0155196 -0.00222058 0)
(0.0170002 -0.00222155 0)
(0.0184815 -0.00222258 0)
(0.0199636 -0.00222368 0)
(0.0214464 -0.00222484 0)
(0.0229299 -0.00222604 0)
(0.0244143 -0.00222729 0)
(0.0258996 -0.00222857 0)
(0.0273857 -0.00222988 0)
(0.0288727 -0.00223121 0)
(0.0303606 -0.00223255 0)
(0.0318494 -0.00223389 0)
(0.0333391 -0.00223522 0)
(0.0348297 -0.00223653 0)
(0.0363212 -0.00223782 0)
(0.0378135 -0.00223906 0)
(0.0393067 -0.00224025 0)
(0.0408006 -0.00224138 0)
(0.0422953 -0.00224243 0)
(0.0437906 -0.00224338 0)
(0.0452866 -0.00224424 0)
(0.0467831 -0.00224497 0)
(0.04828 -0.00224557 0)
(0.0497773 -0.00224602 0)
(0.0512749 -0.00224631 0)
(0.0527726 -0.00224642 0)
(0.0542703 -0.00224632 0)
(0.0557679 -0.00224602 0)
(0.0572653 -0.00224548 0)
(0.0587622 -0.00224469 0)
(0.0602585 -0.00224363 0)
(0.061754 -0.00224228 0)
(0.0632486 -0.00224062 0)
(0.0647419 -0.00223864 0)
(0.0662338 -0.00223631 0)
(0.0677241 -0.00223361 0)
(0.0692125 -0.00223053 0)
(0.0706986 -0.00222703 0)
(0.0721823 -0.00222311 0)
(0.0736633 -0.00221873 0)
(0.0751412 -0.00221388 0)
(0.0766157 -0.00220853 0)
(0.0780865 -0.00220267 0)
(0.0795533 -0.00219626 0)
(0.0810156 -0.0021893 0)
(0.082473 -0.00218174 0)
(0.0839253 -0.00217359 0)
(0.0853719 -0.0021648 0)
(0.0868125 -0.00215537 0)
(0.0882465 -0.00214526 0)
(0.0896736 -0.00213447 0)
(0.0910933 -0.00212295 0)
(0.0925051 -0.00211071 0)
(0.0939085 -0.00209771 0)
(0.095303 -0.00208394 0)
(0.096688 -0.00206937 0)
(0.0980631 -0.00205399 0)
(0.0994277 -0.00203779 0)
(0.100781 -0.00202073 0)
(0.102123 -0.00200282 0)
(0.103453 -0.00198403 0)
(0.104769 -0.00196435 0)
(0.106073 -0.00194376 0)
(0.107362 -0.00192226 0)
(0.108637 -0.00189983 0)
(0.109896 -0.00187647 0)
(0.11114 -0.00185216 0)
(0.112367 -0.00182689 0)
(0.113577 -0.00180068 0)
(0.114769 -0.0017735 0)
(0.115943 -0.00174536 0)
(0.117098 -0.00171625 0)
(0.118232 -0.00168618 0)
(0.119347 -0.00165515 0)
(0.12044 -0.00162316 0)
(0.121512 -0.00159022 0)
(0.122562 -0.00155634 0)
(0.123589 -0.00152153 0)
(0.124592 -0.00148579 0)
(0.125571 -0.00144915 0)
(0.126525 -0.0014116 0)
(0.127454 -0.00137319 0)
(0.128357 -0.00133391 0)
(0.129233 -0.00129379 0)
(0.130083 -0.00125286 0)
(0.130905 -0.00121113 0)
(0.131699 -0.00116863 0)
(0.132464 -0.0011254 0)
(0.1332 -0.00108145 0)
(0.133907 -0.00103682 0)
(0.134583 -0.000991537 0)
(0.13523 -0.000945638 0)
(0.135845 -0.000899157 0)
(0.136429 -0.000852129 0)
(0.136982 -0.00080459 0)
(0.137502 -0.000756579 0)
(0.137991 -0.000708135 0)
(0.138447 -0.000659297 0)
(0.138871 -0.000610106 0)
(0.139261 -0.000560604 0)
(0.139618 -0.000510831 0)
(0.139942 -0.000460832 0)
(0.140233 -0.000410648 0)
(0.14049 -0.000360322 0)
(0.140714 -0.000309898 0)
(0.140903 -0.000259419 0)
(0.141059 -0.000208929 0)
(0.141182 -0.000158469 0)
(0.141271 -0.000108083 0)
(0.141326 -5.78125e-05 0)
(0.141348 -7.69984e-06 0)
(0.141336 4.22132e-05 0)
(0.141291 9.18868e-05 0)
(0.141213 0.000141281 0)
(0.141102 0.000190358 0)
(0.140959 0.000239079 0)
(0.140783 0.000287407 0)
(0.140575 0.000335306 0)
(0.140335 0.000382743 0)
(0.140064 0.000429684 0)
(0.139762 0.000476096 0)
(0.139429 0.00052195 0)
(0.139065 0.000567215 0)
(0.138672 0.000611865 0)
(0.138249 0.000655873 0)
(0.137796 0.000699213 0)
(0.137315 0.000741864 0)
(0.136806 0.000783802 0)
(0.136269 0.000825008 0)
(0.135705 0.000865463 0)
(0.135115 0.000905151 0)
(0.134498 0.000944054 0)
(0.133855 0.00098216 0)
(0.133187 0.00101946 0)
(0.132495 0.00105593 0)
(0.131778 0.00109158 0)
(0.131038 0.00112638 0)
(0.130275 0.00116034 0)
(0.12949 0.00119345 0)
(0.128683 0.00122571 0)
(0.127855 0.00125711 0)
(0.127006 0.00128765 0)
(0.126137 0.00131734 0)
(0.125248 0.00134616 0)
(0.124341 0.00137414 0)
(0.123415 0.00140126 0)
(0.122471 0.00142754 0)
(0.121511 0.00145298 0)
(0.120533 0.00147758 0)
(0.119539 0.00150135 0)
(0.11853 0.00152431 0)
(0.117506 0.00154646 0)
(0.116467 0.00156781 0)
(0.115415 0.00158837 0)
(0.114348 0.00160816 0)
(0.113269 0.00162718 0)
(0.112178 0.00164544 0)
(0.111075 0.00166297 0)
(0.10996 0.00167977 0)
(0.108834 0.00169585 0)
(0.107698 0.00171124 0)
(0.106551 0.00172594 0)
(0.105396 0.00173998 0)
(0.104231 0.00175336 0)
(0.103057 0.0017661 0)
(0.101875 0.00177821 0)
(0.100685 0.00178972 0)
(0.099488 0.00180064 0)
(0.0982837 0.00181098 0)
(0.0970727 0.00182076 0)
(0.0958554 0.00183 0)
(0.094632 0.00183871 0)
(0.0934031 0.0018469 0)
(0.0921689 0.0018546 0)
(0.0909297 0.00186182 0)
(0.0896859 0.00186858 0)
(0.0884377 0.00187488 0)
(0.0871855 0.00188075 0)
(0.0859295 0.00188621 0)
(0.08467 0.00189126 0)
(0.0834073 0.00189592 0)
(0.0821416 0.00190021 0)
(0.0808732 0.00190414 0)
(0.0796023 0.00190772 0)
(0.0783292 0.00191098 0)
(0.077054 0.00191392 0)
(0.0757769 0.00191656 0)
(0.0744982 0.00191891 0)
(0.073218 0.00192098 0)
(0.0719365 0.00192279 0)
(0.070654 0.00192435 0)
(0.0693704 0.00192568 0)
(0.0680861 0.00192678 0)
(0.0668011 0.00192766 0)
(0.0655156 0.00192835 0)
(0.0642297 0.00192884 0)
(0.0629436 0.00192916 0)
(0.0616573 0.0019293 0)
(0.060371 0.0019293 0)
(0.0590847 0.00192914 0)
(0.0577986 0.00192884 0)
(0.0565127 0.00192842 0)
(0.0552272 0.00192789 0)
(0.0539421 0.00192724 0)
(0.0526574 0.00192649 0)
(0.0513733 0.00192565 0)
(0.0500898 0.00192473 0)
(0.0488069 0.00192374 0)
(0.0475247 0.00192268 0)
(0.0462432 0.00192156 0)
(0.0449625 0.00192038 0)
(0.0436826 0.00191917 0)
(0.0424036 0.00191791 0)
(0.0411254 0.00191663 0)
(0.039848 0.00191532 0)
(0.0385716 0.00191399 0)
(0.037296 0.00191265 0)
(0.0360213 0.0019113 0)
(0.0347476 0.00190995 0)
(0.0334747 0.00190861 0)
(0.0322028 0.00190727 0)
(0.0309317 0.00190595 0)
(0.0296615 0.00190464 0)
(0.0283922 0.00190336 0)
(0.0271237 0.00190211 0)
(0.0258561 0.00190088 0)
(0.0245892 0.00189969 0)
(0.0233232 0.00189854 0)
(0.0220579 0.00189743 0)
(0.0207933 0.00189637 0)
(0.0195294 0.00189535 0)
(0.0182662 0.00189438 0)
(0.0170036 0.00189347 0)
(0.0157416 0.00189261 0)
(0.0144802 0.0018918 0)
(0.0132193 0.00189106 0)
(0.0119588 0.00189038 0)
(0.0106988 0.00188977 0)
(0.00943921 0.00188921 0)
(0.00817994 0.00188873 0)
(0.00692098 0.00188831 0)
(0.00566226 0.00188796 0)
(0.00440376 0.00188768 0)
(0.00314543 0.00188747 0)
(0.00188722 0.00188733 0)
(0.000629068 0.00188725 0)
(0.000738378 -0.00369231 0)
(0.00221518 -0.00369246 0)
(0.00369208 -0.00369278 0)
(0.00516914 -0.00369327 0)
(0.00664642 -0.00369391 0)
(0.008124 -0.00369471 0)
(0.00960192 -0.00369566 0)
(0.0110803 -0.00369675 0)
(0.0125591 -0.00369799 0)
(0.0140384 -0.00369936 0)
(0.0155183 -0.00370086 0)
(0.0169989 -0.00370248 0)
(0.0184801 -0.00370422 0)
(0.0199621 -0.00370605 0)
(0.0214448 -0.00370798 0)
(0.0229283 -0.00371 0)
(0.0244127 -0.00371208 0)
(0.0258979 -0.00371423 0)
(0.027384 -0.00371642 0)
(0.028871 -0.00371865 0)
(0.0303589 -0.00372089 0)
(0.0318477 -0.00372313 0)
(0.0333374 -0.00372537 0)
(0.0348281 -0.00372757 0)
(0.0363196 -0.00372972 0)
(0.037812 -0.00373181 0)
(0.0393052 -0.0037338 0)
(0.0407992 -0.0037357 0)
(0.042294 -0.00373746 0)
(0.0437894 -0.00373907 0)
(0.0452855 -0.00374051 0)
(0.0467822 -0.00374175 0)
(0.0482793 -0.00374276 0)
(0.0497769 -0.00374353 0)
(0.0512747 -0.00374403 0)
(0.0527726 -0.00374422 0)
(0.0542707 -0.00374409 0)
(0.0557686 -0.0037436 0)
(0.0572662 -0.00374272 0)
(0.0587635 -0.00374142 0)
(0.0602602 -0.00373968 0)
(0.0617561 -0.00373745 0)
(0.0632511 -0.00373472 0)
(0.0647449 -0.00373143 0)
(0.0662373 -0.00372758 0)
(0.067728 -0.0037231 0)
(0.0692169 -0.00371798 0)
(0.0707036 -0.00371218 0)
(0.0721879 -0.00370566 0)
(0.0736695 -0.00369839 0)
(0.0751481 -0.00369033 0)
(0.0766233 -0.00368144 0)
(0.0780948 -0.00367169 0)
(0.0795623 -0.00366104 0)
(0.0810253 -0.00364946 0)
(0.0824836 -0.0036369 0)
(0.0839366 -0.00362333 0)
(0.0853841 -0.00360871 0)
(0.0868256 -0.00359301 0)
(0.0882605 -0.00357619 0)
(0.0896886 -0.00355822 0)
(0.0911093 -0.00353905 0)
(0.092522 -0.00351867 0)
(0.0939264 -0.00349702 0)
(0.095322 -0.00347409 0)
(0.0967081 -0.00344983 0)
(0.0980843 -0.00342422 0)
(0.09945 -0.00339723 0)
(0.100805 -0.00336883 0)
(0.102148 -0.00333899 0)
(0.103478 -0.00330768 0)
(0.104796 -0.0032749 0)
(0.106101 -0.0032406 0)
(0.107392 -0.00320477 0)
(0.108668 -0.0031674 0)
(0.109928 -0.00312847 0)
(0.111173 -0.00308796 0)
(0.112402 -0.00304587 0)
(0.113613 -0.00300217 0)
(0.114806 -0.00295688 0)
(0.115981 -0.00290998 0)
(0.117137 -0.00286146 0)
(0.118273 -0.00281134 0)
(0.119389 -0.00275962 0)
(0.120484 -0.0027063 0)
(0.121557 -0.0026514 0)
(0.122608 -0.00259492 0)
(0.123636 -0.00253688 0)
(0.12464 -0.00247731 0)
(0.12562 -0.00241621 0)
(0.126576 -0.00235362 0)
(0.127506 -0.00228957 0)
(0.12841 -0.00222409 0)
(0.129288 -0.0021572 0)
(0.130138 -0.00208895 0)
(0.130961 -0.00201938 0)
(0.131756 -0.00194852 0)
(0.132522 -0.00187643 0)
(0.133259 -0.00180314 0)
(0.133967 -0.00172873 0)
(0.134644 -0.00165322 0)
(0.135291 -0.00157668 0)
(0.135907 -0.00149918 0)
(0.136492 -0.00142075 0)
(0.137046 -0.00134148 0)
(0.137567 -0.00126142 0)
(0.138056 -0.00118063 0)
(0.138513 -0.00109919 0)
(0.138937 -0.00101716 0)
(0.139327 -0.00093461 0)
(0.139685 -0.000851609 0)
(0.140009 -0.000768228 0)
(0.1403 -0.00068454 0)
(0.140557 -0.000600616 0)
(0.140781 -0.000516529 0)
(0.140971 -0.000432349 0)
(0.141127 -0.00034815 0)
(0.141249 -0.000264002 0)
(0.141338 -0.000179978 0)
(0.141393 -9.61485e-05 0)
(0.141414 -1.25823e-05 0)
(0.141402 7.06515e-05 0)
(0.141357 0.000153485 0)
(0.141279 0.000235853 0)
(0.141168 0.000317689 0)
(0.141024 0.000398931 0)
(0.140847 0.000479518 0)
(0.140639 0.000559389 0)
(0.140398 0.000638487 0)
(0.140127 0.000716757 0)
(0.139824 0.000794145 0)
(0.13949 0.0008706 0)
(0.139125 0.000946074 0)
(0.138731 0.00102052 0)
(0.138307 0.00109389 0)
(0.137854 0.00116615 0)
(0.137372 0.00123726 0)
(0.136862 0.00130718 0)
(0.136324 0.00137588 0)
(0.135759 0.00144332 0)
(0.135167 0.00150949 0)
(0.134549 0.00157434 0)
(0.133905 0.00163786 0)
(0.133236 0.00170004 0)
(0.132543 0.00176084 0)
(0.131825 0.00182025 0)
(0.131084 0.00187827 0)
(0.13032 0.00193488 0)
(0.129534 0.00199007 0)
(0.128726 0.00204383 0)
(0.127896 0.00209616 0)
(0.127046 0.00214707 0)
(0.126176 0.00219654 0)
(0.125286 0.00224458 0)
(0.124378 0.0022912 0)
(0.123451 0.0023364 0)
(0.122506 0.00238019 0)
(0.121544 0.00242258 0)
(0.120565 0.00246358 0)
(0.119571 0.00250319 0)
(0.11856 0.00254145 0)
(0.117535 0.00257835 0)
(0.116495 0.00261392 0)
(0.115442 0.00264818 0)
(0.114374 0.00268114 0)
(0.113294 0.00271283 0)
(0.112202 0.00274326 0)
(0.111098 0.00277245 0)
(0.109982 0.00280043 0)
(0.108855 0.00282723 0)
(0.107718 0.00285285 0)
(0.106571 0.00287734 0)
(0.105414 0.00290072 0)
(0.104248 0.002923 0)
(0.103074 0.00294421 0)
(0.101891 0.00296439 0)
(0.1007 0.00298356 0)
(0.0995024 0.00300173 0)
(0.0982973 0.00301895 0)
(0.0970855 0.00303523 0)
(0.0958675 0.00305061 0)
(0.0946435 0.00306511 0)
(0.0934138 0.00307875 0)
(0.092179 0.00309156 0)
(0.0909392 0.00310358 0)
(0.0896947 0.00311482 0)
(0.0884459 0.00312531 0)
(0.0871932 0.00313508 0)
(0.0859366 0.00314415 0)
(0.0846766 0.00315255 0)
(0.0834134 0.0031603 0)
(0.0821473 0.00316743 0)
(0.0808784 0.00317397 0)
(0.0796071 0.00317993 0)
(0.0783335 0.00318534 0)
(0.0770578 0.00319022 0)
(0.0757804 0.00319461 0)
(0.0745013 0.00319851 0)
(0.0732207 0.00320195 0)
(0.0719389 0.00320495 0)
(0.070656 0.00320754 0)
(0.0693722 0.00320973 0)
(0.0680875 0.00321155 0)
(0.0668023 0.00321301 0)
(0.0655165 0.00321414 0)
(0.0642304 0.00321496 0)
(0.062944 0.00321547 0)
(0.0616575 0.0032157 0)
(0.060371 0.00321568 0)
(0.0590845 0.0032154 0)
(0.0577982 0.0032149 0)
(0.0565122 0.00321419 0)
(0.0552265 0.00321328 0)
(0.0539413 0.0032122 0)
(0.0526565 0.00321094 0)
(0.0513722 0.00320953 0)
(0.0500886 0.00320799 0)
(0.0488056 0.00320632 0)
(0.0475233 0.00320455 0)
(0.0462418 0.00320267 0)
(0.044961 0.00320071 0)
(0.0436811 0.00319867 0)
(0.042402 0.00319658 0)
(0.0411237 0.00319443 0)
(0.0398463 0.00319224 0)
(0.0385699 0.00319002 0)
(0.0372943 0.00318777 0)
(0.0360196 0.00318552 0)
(0.0347459 0.00318327 0)
(0.033473 0.00318102 0)
(0.0322011 0.00317879 0)
(0.03093 0.00317658 0)
(0.0296598 0.0031744 0)
(0.0283905 0.00317226 0)
(0.0271221 0.00317016 0)
(0.0258545 0.00316812 0)
(0.0245877 0.00316613 0)
(0.0233217 0.00316421 0)
(0.0220565 0.00316236 0)
(0.0207919 0.00316058 0)
(0.0195281 0.00315888 0)
(0.018265 0.00315726 0)
(0.0170025 0.00315573 0)
(0.0157406 0.0031543 0)
(0.0144792 0.00315296 0)
(0.0132184 0.00315172 0)
(0.011958 0.00315059 0)
(0.0106981 0.00314956 0)
(0.00943854 0.00314864 0)
(0.00817936 0.00314783 0)
(0.00692048 0.00314713 0)
(0.00566185 0.00314654 0)
(0.00440344 0.00314607 0)
(0.0031452 0.00314572 0)
(0.00188708 0.00314548 0)
(0.000629022 0.00314537 0)
(0.00073828 -0.00516902 0)
(0.00221489 -0.00516924 0)
(0.0036916 -0.00516968 0)
(0.00516847 -0.00517036 0)
(0.00664557 -0.00517126 0)
(0.00812296 -0.00517238 0)
(0.00960072 -0.00517372 0)
(0.0110789 -0.00517526 0)
(0.0125575 -0.005177 0)
(0.0140367 -0.00517893 0)
(0.0155165 -0.00518104 0)
(0.0169969 -0.00518332 0)
(0.018478 -0.00518576 0)
(0.0199599 -0.00518835 0)
(0.0214425 -0.00519106 0)
(0.0229259 -0.0051939 0)
(0.0244102 -0.00519684 0)
(0.0258953 -0.00519986 0)
(0.0273814 -0.00520295 0)
(0.0288683 -0.00520608 0)
(0.0303562 -0.00520924 0)
(0.0318451 -0.00521241 0)
(0.0333348 -0.00521556 0)
(0.0348255 -0.00521867 0)
(0.0363171 -0.00522171 0)
(0.0378096 -0.00522465 0)
(0.0393029 -0.00522748 0)
(0.0407971 -0.00523016 0)
(0.042292 -0.00523266 0)
(0.0437877 -0.00523494 0)
(0.045284 -0.00523699 0)
(0.0467809 -0.00523876 0)
(0.0482783 -0.00524022 0)
(0.0497762 -0.00524133 0)
(0.0512743 -0.00524207 0)
(0.0527727 -0.00524238 0)
(0.0542711 -0.00524223 0)
(0.0557695 -0.00524158 0)
(0.0572676 -0.00524039 0)
(0.0587654 -0.00523862 0)
(0.0602626 -0.00523622 0)
(0.0617592 -0.00523315 0)
(0.0632548 -0.00522937 0)
(0.0647492 -0.00522482 0)
(0.0662423 -0.00521947 0)
(0.0677339 -0.00521325 0)
(0.0692235 -0.00520614 0)
(0.0707111 -0.00519806 0)
(0.0721963 -0.00518899 0)
(0.0736788 -0.00517886 0)
(0.0751583 -0.00516762 0)
(0.0766346 -0.00515523 0)
(0.0781071 -0.00514163 0)
(0.0795757 -0.00512677 0)
(0.0810399 -0.0051106 0)
(0.0824994 -0.00509307 0)
(0.0839537 -0.00507412 0)
(0.0854024 -0.00505371 0)
(0.0868452 -0.00503178 0)
(0.0882815 -0.00500828 0)
(0.089711 -0.00498317 0)
(0.0911331 -0.00495639 0)
(0.0925474 -0.0049279 0)
(0.0939533 -0.00489764 0)
(0.0953504 -0.00486557 0)
(0.0967381 -0.00483166 0)
(0.098116 -0.00479585 0)
(0.0994833 -0.0047581 0)
(0.10084 -0.00471837 0)
(0.102184 -0.00467663 0)
(0.103517 -0.00463284 0)
(0.104837 -0.00458697 0)
(0.106143 -0.00453898 0)
(0.107436 -0.00448885 0)
(0.108714 -0.00443655 0)
(0.109976 -0.00438207 0)
(0.111223 -0.00432537 0)
(0.112453 -0.00426645 0)
(0.113666 -0.00420529 0)
(0.114862 -0.00414188 0)
(0.116039 -0.00407622 0)
(0.117196 -0.0040083 0)
(0.118335 -0.00393813 0)
(0.119452 -0.00386571 0)
(0.120549 -0.00379105 0)
(0.121624 -0.00371416 0)
(0.122677 -0.00363507 0)
(0.123706 -0.00355379 0)
(0.124713 -0.00347035 0)
(0.125695 -0.00338479 0)
(0.126652 -0.00329713 0)
(0.127584 -0.00320741 0)
(0.12849 -0.00311568 0)
(0.129369 -0.00302199 0)
(0.130221 -0.00292638 0)
(0.131046 -0.00282892 0)
(0.131842 -0.00272966 0)
(0.13261 -0.00262866 0)
(0.133348 -0.002526 0)
(0.134057 -0.00242174 0)
(0.134736 -0.00231595 0)
(0.135384 -0.00220872 0)
(0.136001 -0.00210013 0)
(0.136587 -0.00199025 0)
(0.137141 -0.00187918 0)
(0.137664 -0.001767 0)
(0.138154 -0.00165381 0)
(0.138611 -0.00153969 0)
(0.139036 -0.00142475 0)
(0.139427 -0.00130909 0)
(0.139785 -0.00119278 0)
(0.14011 -0.00107595 0)
(0.140401 -0.000958689 0)
(0.140659 -0.000841095 0)
(0.140882 -0.000723271 0)
(0.141072 -0.000605319 0)
(0.141228 -0.000487339 0)
(0.141351 -0.000369434 0)
(0.141439 -0.000251702 0)
(0.141494 -0.000134242 0)
(0.141515 -1.71532e-05 0)
(0.141502 9.94687e-05 0)
(0.141457 0.000215529 0)
(0.141378 0.000330934 0)
(0.141266 0.000445593 0)
(0.141121 0.000559418 0)
(0.140944 0.000672323 0)
(0.140735 0.000784223 0)
(0.140493 0.000895038 0)
(0.14022 0.00100469 0)
(0.139916 0.00111311 0)
(0.139581 0.00122021 0)
(0.139216 0.00132594 0)
(0.13882 0.00143022 0)
(0.138395 0.00153301 0)
(0.13794 0.00163422 0)
(0.137457 0.00173383 0)
(0.136945 0.00183176 0)
(0.136406 0.00192798 0)
(0.135839 0.00202244 0)
(0.135246 0.00211511 0)
(0.134626 0.00220594 0)
(0.133981 0.0022949 0)
(0.13331 0.00238197 0)
(0.132615 0.00246711 0)
(0.131896 0.00255031 0)
(0.131153 0.00263155 0)
(0.130387 0.00271081 0)
(0.129599 0.00278809 0)
(0.128789 0.00286336 0)
(0.127958 0.00293663 0)
(0.127106 0.0030079 0)
(0.126235 0.00307716 0)
(0.125343 0.00314441 0)
(0.124433 0.00320967 0)
(0.123504 0.00327294 0)
(0.122558 0.00333423 0)
(0.121594 0.00339356 0)
(0.120614 0.00345094 0)
(0.119618 0.00350638 0)
(0.118606 0.00355992 0)
(0.117579 0.00361156 0)
(0.116537 0.00366134 0)
(0.115482 0.00370927 0)
(0.114414 0.00375539 0)
(0.113332 0.00379971 0)
(0.112238 0.00384228 0)
(0.111132 0.00388313 0)
(0.110015 0.00392227 0)
(0.108887 0.00395975 0)
(0.107748 0.00399559 0)
(0.1066 0.00402984 0)
(0.105442 0.00406253 0)
(0.104275 0.00409369 0)
(0.103099 0.00412336 0)
(0.101915 0.00415157 0)
(0.100723 0.00417836 0)
(0.0995238 0.00420377 0)
(0.0983176 0.00422784 0)
(0.0971048 0.0042506 0)
(0.0958856 0.00427209 0)
(0.0946606 0.00429235 0)
(0.09343 0.00431141 0)
(0.0921941 0.00432931 0)
(0.0909533 0.00434609 0)
(0.089708 0.00436179 0)
(0.0884583 0.00437645 0)
(0.0872047 0.00439009 0)
(0.0859473 0.00440275 0)
(0.0846865 0.00441448 0)
(0.0834226 0.0044253 0)
(0.0821557 0.00443525 0)
(0.0808861 0.00444436 0)
(0.0796141 0.00445267 0)
(0.0783398 0.00446022 0)
(0.0770636 0.00446702 0)
(0.0757855 0.00447312 0)
(0.0745059 0.00447855 0)
(0.0732248 0.00448334 0)
(0.0719425 0.00448752 0)
(0.0706591 0.00449111 0)
(0.0693748 0.00449415 0)
(0.0680897 0.00449667 0)
(0.066804 0.00449869 0)
(0.0655179 0.00450025 0)
(0.0642314 0.00450136 0)
(0.0629447 0.00450205 0)
(0.0616578 0.00450236 0)
(0.060371 0.00450229 0)
(0.0590842 0.00450189 0)
(0.0577977 0.00450117 0)
(0.0565114 0.00450015 0)
(0.0552255 0.00449885 0)
(0.05394 0.00449731 0)
(0.052655 0.00449553 0)
(0.0513706 0.00449355 0)
(0.0500868 0.00449137 0)
(0.0488037 0.00448901 0)
(0.0475213 0.00448651 0)
(0.0462396 0.00448386 0)
(0.0449588 0.0044811 0)
(0.0436787 0.00447824 0)
(0.0423995 0.00447528 0)
(0.0411212 0.00447226 0)
(0.0398438 0.00446918 0)
(0.0385673 0.00446606 0)
(0.0372917 0.00446291 0)
(0.036017 0.00445974 0)
(0.0347433 0.00445657 0)
(0.0334704 0.00445341 0)
(0.0321985 0.00445028 0)
(0.0309275 0.00444717 0)
(0.0296573 0.00444411 0)
(0.0283881 0.00444111 0)
(0.0271197 0.00443816 0)
(0.0258522 0.00443529 0)
(0.0245854 0.0044325 0)
(0.0233195 0.0044298 0)
(0.0220543 0.0044272 0)
(0.0207899 0.0044247 0)
(0.0195262 0.00442231 0)
(0.0182632 0.00442005 0)
(0.0170008 0.0044179 0)
(0.0157389 0.00441589 0)
(0.0144777 0.00441401 0)
(0.013217 0.00441227 0)
(0.0119567 0.00441068 0)
(0.0106969 0.00440923 0)
(0.00943753 0.00440794 0)
(0.00817848 0.0044068 0)
(0.00691973 0.00440582 0)
(0.00566124 0.004405 0)
(0.00440296 0.00440434 0)
(0.00314485 0.00440385 0)
(0.00188687 0.00440352 0)
(0.000628953 0.00440335 0)
(0.00073815 -0.0066455 0)
(0.0022145 -0.00664578 0)
(0.00369096 -0.00664636 0)
(0.00516757 -0.00664724 0)
(0.00664443 -0.0066484 0)
(0.00812158 -0.00664985 0)
(0.00959909 -0.00665158 0)
(0.011077 -0.00665357 0)
(0.0125555 -0.00665582 0)
(0.0140344 -0.00665832 0)
(0.015514 -0.00666105 0)
(0.0169942 -0.006664 0)
(0.0184752 -0.00666716 0)
(0.0199569 -0.00667051 0)
(0.0214393 -0.00667403 0)
(0.0229226 -0.0066777 0)
(0.0244068 -0.00668151 0)
(0.0258919 -0.00668543 0)
(0.0273779 -0.00668943 0)
(0.0288648 -0.0066935 0)
(0.0303527 -0.0066976 0)
(0.0318415 -0.00670171 0)
(0.0333313 -0.0067058 0)
(0.034822 -0.00670984 0)
(0.0363137 -0.00671379 0)
(0.0378063 -0.00671763 0)
(0.0392998 -0.00672131 0)
(0.0407942 -0.0067248 0)
(0.0422893 -0.00672807 0)
(0.0437853 -0.00673106 0)
(0.0452819 -0.00673375 0)
(0.0467791 -0.00673609 0)
(0.0482769 -0.00673803 0)
(0.0497752 -0.00673952 0)
(0.0512738 -0.00674053 0)
(0.0527727 -0.006741 0)
(0.0542716 -0.00674087 0)
(0.0557706 -0.00674011 0)
(0.0572694 -0.00673866 0)
(0.0587679 -0.00673645 0)
(0.0602658 -0.00673344 0)
(0.0617632 -0.00672957 0)
(0.0632596 -0.00672479 0)
(0.064755 -0.00671902 0)
(0.066249 -0.00671222 0)
(0.0677416 -0.00670431 0)
(0.0692323 -0.00669524 0)
(0.070721 -0.00668495 0)
(0.0722074 -0.00667337 0)
(0.0736911 -0.00666043 0)
(0.075172 -0.00664607 0)
(0.0766495 -0.00663023 0)
(0.0781235 -0.00661283 0)
(0.0795935 -0.00659382 0)
(0.0810593 -0.00657312 0)
(0.0825203 -0.00655066 0)
(0.0839763 -0.00652639 0)
(0.0854267 -0.00650023 0)
(0.0868713 -0.00647212 0)
(0.0883094 -0.006442 0)
(0.0897408 -0.00640979 0)
(0.0911648 -0.00637544 0)
(0.0925811 -0.00633889 0)
(0.0939891 -0.00630007 0)
(0.0953883 -0.00625892 0)
(0.0967781 -0.00621538 0)
(0.0981582 -0.00616941 0)
(0.0995278 -0.00612094 0)
(0.100886 -0.00606993 0)
(0.102233 -0.00601633 0)
(0.103568 -0.00596008 0)
(0.104891 -0.00590115 0)
(0.1062 -0.0058395 0)
(0.107494 -0.00577509 0)
(0.108775 -0.00570789 0)
(0.11004 -0.00563787 0)
(0.111289 -0.00556501 0)
(0.112522 -0.00548927 0)
(0.113738 -0.00541065 0)
(0.114936 -0.00532914 0)
(0.116115 -0.00524472 0)
(0.117276 -0.00515739 0)
(0.118416 -0.00506716 0)
(0.119537 -0.00497403 0)
(0.120636 -0.00487802 0)
(0.121713 -0.00477913 0)
(0.122769 -0.0046774 0)
(0.123801 -0.00457286 0)
(0.12481 -0.00446553 0)
(0.125794 -0.00435546 0)
(0.126754 -0.00424268 0)
(0.127688 -0.00412726 0)
(0.128596 -0.00400924 0)
(0.129477 -0.00388869 0)
(0.130332 -0.00376568 0)
(0.131158 -0.00364027 0)
(0.131957 -0.00351253 0)
(0.132726 -0.00338257 0)
(0.133467 -0.00325045 0)
(0.134177 -0.00311627 0)
(0.134858 -0.00298013 0)
(0.135508 -0.00284212 0)
(0.136126 -0.00270236 0)
(0.136714 -0.00256094 0)
(0.137269 -0.00241798 0)
(0.137793 -0.0022736 0)
(0.138284 -0.00212791 0)
(0.138742 -0.00198103 0)
(0.139168 -0.00183308 0)
(0.13956 -0.00168419 0)
(0.139919 -0.0015345 0)
(0.140244 -0.00138411 0)
(0.140536 -0.00123317 0)
(0.140793 -0.00108181 0)
(0.141017 -0.000930144 0)
(0.141207 -0.000778318 0)
(0.141363 -0.000626459 0)
(0.141486 -0.000474695 0)
(0.141574 -0.000323155 0)
(0.141628 -0.000171969 0)
(0.141649 -2.12606e-05 0)
(0.141636 0.000128844 0)
(0.141589 0.000278223 0)
(0.14151 0.000426757 0)
(0.141397 0.000574328 0)
(0.141251 0.000720822 0)
(0.141073 0.000866128 0)
(0.140862 0.00101014 0)
(0.14062 0.00115275 0)
(0.140345 0.00129386 0)