/*--------------------------------*- C++ -*----------------------------------*\
| =========                 |                                                 |
| \\      /  F ield         | OpenFOAM: The Open Source CFD Toolbox           |
|  \\    /   O peration     | Version:  v2012                                 |
|   \\  /    A nd           | Website:  www.openfoam.com                      |
|    \\/     M anipulation  |                                                 |
\*---------------------------------------------------------------------------*/
FoamFile
{
    version     2.0;
    format      ascii;
    class       volScalarField;
    location    "0";
    object      p;
}
// * * * * * * * * * * * * * * * * * * * * * * * * * * * * * * * * * * * * * //

dimensions      [0 2 -2 0 0 0 0];


internalField   nonuniform List<scalar> 
4000
(
-3.79322e-13
-3.86832e-13
-3.84282e-13
-3.84513e-13
-3.87751e-13
-3.82875e-13
-3.81289e-13
-3.91606e-13
-3.91852e-13
-3.9251e-13
-3.89353e-13
-3.76425e-13
-3.77818e-13
-3.92392e-13
-3.96945e-13
-3.82584e-13
-3.75834e-13
-3.83872e-13
-3.79908e-13
-3.79471e-13
-3.87575e-13
-3.9827e-13
-3.99794e-13
-4.04009e-13
-4.016e-13
-4.07011e-13
-4.02644e-13
-4.00125e-13
-4.02497e-13
-4.10048e-13
-4.11869e-13
-4.09528e-13
-3.9844e-13
-3.95114e-13
-4.00831e-13
-3.8798e-13
-4.04597e-13
-4.10622e-13
-4.16821e-13
-4.20942e-13
-4.14671e-13
-4.02661e-13
-3.92344e-13
-3.90662e-13
-3.9322e-13
-3.93812e-13
-3.968e-13
-3.95745e-13
-3.89025e-13
-3.90035e-13
-3.82572e-13
-3.73737e-13
-3.62025e-13
-3.55287e-13
-3.50021e-13
-3.44456e-13
-3.30875e-13
-3.23154e-13
-3.14685e-13
-3.0866e-13
-3.08802e-13
-3.03028e-13
-2.93368e-13
-2.88177e-13
-2.81596e-13
-2.74169e-13
-2.64764e-13
-2.62088e-13
-2.57861e-13
-2.47568e-13
-2.39859e-13
-2.27988e-13
-2.1606e-13
-2.16818e-13
-2.15375e-13
-2.0476e-13
-1.93139e-13
-1.82977e-13
-1.70813e-13
-1.62197e-13
-1.65445e-13
-1.65854e-13
-1.50164e-13
-1.39055e-13
-1.35215e-13
-1.3338e-13
-1.18904e-13
-1.1832e-13
-1.0861e-13
-1.0008e-13
-9.0532e-14
-7.88549e-14
-6.50753e-14
-6.14852e-14
-5.14949e-14
-4.1917e-14
-3.32363e-14
-2.37661e-14
-1.17213e-14
-1.21565e-15
-3.86854e-13
-3.85442e-13
-3.84815e-13
-3.83429e-13
-3.82806e-13
-3.86243e-13
-3.85251e-13
-3.89384e-13
-3.93912e-13
-3.91994e-13
-3.86478e-13
-3.82984e-13
-3.79567e-13
-3.86428e-13
-3.88839e-13
-3.85976e-13
-3.73359e-13
-3.84237e-13
-3.80882e-13
-3.82286e-13
-3.90545e-13
-3.95889e-13
-4.01948e-13
-4.01845e-13
-4.00865e-13
-4.02403e-13
-4.04102e-13
-4.01929e-13
-4.07717e-13
-4.12142e-13
-4.09907e-13
-4.05401e-13
-4.03651e-13
-4.01348e-13
-3.99013e-13
-3.95582e-13
-4.02449e-13
-4.03683e-13
-4.08047e-13
-4.15742e-13
-4.14717e-13
-4.06579e-13
-4.00508e-13
-3.92917e-13
-3.90658e-13
-3.94763e-13
-3.98241e-13
-3.97899e-13
-3.93443e-13
-3.87015e-13
-3.79315e-13
-3.71861e-13
-3.62367e-13
-3.58353e-13
-3.51221e-13
-3.43074e-13
-3.30908e-13
-3.25444e-13
-3.14046e-13
-3.09254e-13
-3.07989e-13
-2.9881e-13
-2.89969e-13
-2.90017e-13
-2.83741e-13
-2.74196e-13
-2.67298e-13
-2.62732e-13
-2.55499e-13
-2.45968e-13
-2.37496e-13
-2.272e-13
-2.16167e-13
-2.16053e-13
-2.10726e-13
-2.03937e-13
-1.96814e-13
-1.874e-13
-1.71671e-13
-1.63841e-13
-1.69116e-13
-1.5924e-13
-1.49308e-13
-1.43088e-13
-1.34363e-13
-1.29995e-13
-1.25653e-13
-1.16912e-13
-1.09557e-13
-9.93694e-14
-8.4892e-14
-7.77739e-14
-6.70306e-14
-6.40331e-14
-4.99341e-14
-3.906e-14
-3.65485e-14
-2.3899e-14
-1.29454e-14
-4.56071e-15
-3.8741e-13
-3.85339e-13
-3.83649e-13
-3.81756e-13
-3.79386e-13
-3.85175e-13
-3.89018e-13
-3.94131e-13
-3.98051e-13
-3.8958e-13
-3.80161e-13
-3.84224e-13
-3.81576e-13
-3.86007e-13
-3.90319e-13
-3.84565e-13
-3.78518e-13
-3.86067e-13
-3.79261e-13
-3.80952e-13
-3.87412e-13
-3.98638e-13
-3.99043e-13
-4.00918e-13
-4.00003e-13
-4.05433e-13
-4.04668e-13
-4.05848e-13
-4.05899e-13
-4.07678e-13
-4.10388e-13
-4.01486e-13
-4.02993e-13
-4.01146e-13
-3.98529e-13
-4.00869e-13
-4.0003e-13
-4.00544e-13
-4.09352e-13
-4.14891e-13
-4.14864e-13
-4.10807e-13
-4.0221e-13
-3.92574e-13
-3.8741e-13
-3.93491e-13
-4.02108e-13
-4.02795e-13
-3.89664e-13
-3.83625e-13
-3.78068e-13
-3.68591e-13
-3.63618e-13
-3.63021e-13
-3.51407e-13
-3.40039e-13
-3.3019e-13
-3.25019e-13
-3.14013e-13
-3.0893e-13
-3.08469e-13
-3.09336e-13
-2.97823e-13
-2.86832e-13
-2.82782e-13
-2.72822e-13
-2.65933e-13
-2.6096e-13
-2.5165e-13
-2.48425e-13
-2.44083e-13
-2.30523e-13
-2.18067e-13
-2.18646e-13
-2.06135e-13
-2.01672e-13
-1.94879e-13
-1.8627e-13
-1.73893e-13
-1.63944e-13
-1.61362e-13
-1.5616e-13
-1.53418e-13
-1.47972e-13
-1.34311e-13
-1.26903e-13
-1.19321e-13
-1.15237e-13
-1.07558e-13
-9.87897e-14
-8.71429e-14
-7.68621e-14
-6.73121e-14
-6.3518e-14
-4.9146e-14
-4.38413e-14
-3.63627e-14
-2.20031e-14
-9.32162e-15
-4.41357e-15
-3.85221e-13
-3.84516e-13
-3.852e-13
-3.8787e-13
-3.79683e-13
-3.88859e-13
-3.95259e-13
-3.95189e-13
-3.8869e-13
-3.84144e-13
-3.86702e-13
-3.89907e-13
-3.81437e-13
-3.81232e-13
-3.81827e-13
-3.86722e-13
-3.86149e-13
-3.8452e-13
-3.82888e-13
-3.84795e-13
-3.86934e-13
-3.98397e-13
-3.99391e-13
-4.02886e-13
-4.02705e-13
-4.093e-13
-4.1056e-13
-4.07885e-13
-4.02965e-13
-4.06209e-13
-4.04536e-13
-4.04067e-13
-4.08512e-13
-4.02991e-13
-4.09048e-13
-3.98309e-13
-3.94231e-13
-4.01697e-13
-4.12473e-13
-4.18898e-13
-4.0794e-13
-4.05764e-13
-4.0348e-13
-3.97224e-13
-3.9532e-13
-3.94796e-13
-3.97892e-13
-3.95963e-13
-3.8833e-13
-3.86879e-13
-3.8216e-13
-3.70658e-13
-3.66048e-13
-3.55505e-13
-3.51982e-13
-3.4142e-13
-3.29927e-13
-3.25273e-13
-3.16374e-13
-3.11308e-13
-3.10167e-13
-3.00693e-13
-2.96021e-13
-2.86814e-13
-2.84134e-13
-2.76593e-13
-2.70783e-13
-2.58999e-13
-2.49915e-13
-2.47022e-13
-2.3899e-13
-2.26342e-13
-2.15264e-13
-2.19417e-13
-2.10322e-13
-2.00111e-13
-1.94339e-13
-1.86041e-13
-1.73816e-13
-1.64595e-13
-1.64029e-13
-1.58505e-13
-1.4938e-13
-1.42592e-13
-1.36146e-13
-1.28288e-13
-1.1802e-13
-1.16478e-13
-1.07519e-13
-9.67731e-14
-8.72068e-14
-7.47585e-14
-6.49432e-14
-5.82841e-14
-5.28375e-14
-4.15499e-14
-3.5054e-14
-2.22748e-14
-1.3359e-14
-6.37271e-15
-3.83414e-13
-3.8047e-13
-3.8575e-13
-3.88455e-13
-3.90701e-13
-3.87697e-13
-3.92702e-13
-3.94309e-13
-3.91082e-13
-3.85516e-13
-3.85029e-13
-3.88304e-13
-3.8457e-13
-3.81331e-13
-3.80924e-13
-3.87894e-13
-3.88618e-13
-3.8297e-13
-3.85692e-13
-3.92544e-13
-3.8593e-13
-3.98797e-13
-4.10555e-13
-4.04727e-13
-3.9792e-13
-3.97241e-13
-4.06042e-13
-4.17121e-13
-4.09532e-13
-4.03278e-13
-4.0672e-13
-4.07601e-13
-4.08865e-13
-4.04062e-13
-4.04198e-13
-4.03403e-13
-4.00984e-13
-4.05758e-13
-4.08696e-13
-4.11613e-13
-4.14961e-13
-4.03521e-13
-4.00222e-13
-3.98195e-13
-3.9968e-13
-3.99981e-13
-3.96904e-13
-3.94356e-13
-3.85542e-13
-3.7836e-13
-3.77633e-13
-3.65734e-13
-3.67921e-13
-3.61782e-13
-3.50739e-13
-3.41824e-13
-3.35243e-13
-3.25299e-13
-3.14519e-13
-3.15155e-13
-3.10582e-13
-3.03943e-13
-2.97434e-13
-2.89994e-13
-2.81237e-13
-2.71997e-13
-2.65564e-13
-2.6137e-13
-2.52167e-13
-2.48396e-13
-2.39785e-13
-2.26709e-13
-2.19702e-13
-2.18887e-13
-2.13864e-13
-2.01038e-13
-1.92552e-13
-1.83756e-13
-1.74296e-13
-1.64049e-13
-1.62016e-13
-1.62205e-13
-1.52016e-13
-1.4803e-13
-1.35209e-13
-1.30689e-13
-1.1761e-13
-1.12081e-13
-1.04116e-13
-9.35063e-14
-8.47244e-14
-7.42952e-14
-6.65383e-14
-5.48614e-14
-4.69642e-14
-3.86143e-14
-3.47572e-14
-2.47749e-14
-1.08402e-14
-7.55834e-15
-3.87079e-13
-3.80927e-13
-3.87582e-13
-3.9434e-13
-3.86469e-13
-3.82116e-13
-3.86333e-13
-3.92786e-13
-3.93098e-13
-3.92552e-13
-3.903e-13
-3.86471e-13
-3.81098e-13
-3.82854e-13
-3.87869e-13
-3.81849e-13
-3.8723e-13
-3.84831e-13
-3.80472e-13
-3.8492e-13
-3.97408e-13
-4.00543e-13
-4.13985e-13
-4.12463e-13
-4.05857e-13
-4.04186e-13
-4.14218e-13
-4.11117e-13
-4.07913e-13
-4.04779e-13
-4.07226e-13
-4.0573e-13
-4.13405e-13
-4.09258e-13
-3.97894e-13
-4.00851e-13
-4.00865e-13
-4.07993e-13
-4.14349e-13
-4.13882e-13
-4.11947e-13
-4.00868e-13
-4.00526e-13
-3.99935e-13
-3.94535e-13
-4.02219e-13
-4.02093e-13
-3.93947e-13
-3.81812e-13
-3.76925e-13
-3.73384e-13
-3.67765e-13
-3.63763e-13
-3.5982e-13
-3.52649e-13
-3.47641e-13
-3.36156e-13
-3.29275e-13
-3.22472e-13
-3.15445e-13
-3.06128e-13
-3.01337e-13
-2.95484e-13
-2.91057e-13
-2.86012e-13
-2.70998e-13
-2.63619e-13
-2.5861e-13
-2.54253e-13
-2.41866e-13
-2.37704e-13
-2.3128e-13
-2.18768e-13
-2.12552e-13
-2.11606e-13
-2.01198e-13
-1.88352e-13
-1.82502e-13
-1.80697e-13
-1.67533e-13
-1.61633e-13
-1.62433e-13
-1.57682e-13
-1.49352e-13
-1.34093e-13
-1.30014e-13
-1.20279e-13
-1.13792e-13
-1.01689e-13
-9.21303e-14
-8.36274e-14
-7.27204e-14
-7.01334e-14
-5.57885e-14
-4.59014e-14
-3.91305e-14
-2.83824e-14
-2.35941e-14
-1.3509e-14
-7.39552e-15
-3.86343e-13
-3.85429e-13
-3.8603e-13
-3.88851e-13
-3.90524e-13
-3.92161e-13
-3.85898e-13
-3.91481e-13
-3.96334e-13
-3.978e-13
-3.92257e-13
-3.87445e-13
-3.83398e-13
-3.84024e-13
-3.87572e-13
-3.82485e-13
-3.81014e-13
-3.80088e-13
-3.8993e-13
-4.01271e-13
-4.12518e-13
-4.09167e-13
-4.01309e-13
-4.02497e-13
-4.0514e-13
-4.0386e-13
-4.18539e-13
-4.19412e-13
-4.06958e-13
-4.03299e-13
-4.08344e-13
-4.04667e-13
-4.13737e-13
-4.14729e-13
-4.03688e-13
-4.03168e-13
-4.02401e-13
-4.06664e-13
-4.10784e-13
-4.11869e-13
-4.14397e-13
-4.05583e-13
-4.01603e-13
-3.99843e-13
-3.9186e-13
-3.99193e-13
-3.99336e-13
-3.94254e-13
-3.83548e-13
-3.78563e-13
-3.74795e-13
-3.71066e-13
-3.61404e-13
-3.55275e-13
-3.53875e-13
-3.52236e-13
-3.41793e-13
-3.34443e-13
-3.22554e-13
-3.16216e-13
-3.03793e-13
-3.0063e-13
-2.9659e-13
-2.92196e-13
-2.87163e-13
-2.72988e-13
-2.70179e-13
-2.65435e-13
-2.59816e-13
-2.39874e-13
-2.26894e-13
-2.27939e-13
-2.18288e-13
-2.09093e-13
-2.08829e-13
-2.07209e-13
-1.98312e-13
-1.84547e-13
-1.77919e-13
-1.70504e-13
-1.62931e-13
-1.63126e-13
-1.54989e-13
-1.45364e-13
-1.37665e-13
-1.27418e-13
-1.21235e-13
-1.10877e-13
-1.02933e-13
-8.81784e-14
-8.46709e-14
-7.31584e-14
-6.83718e-14
-5.98415e-14
-4.29922e-14
-3.96198e-14
-2.99121e-14
-1.7924e-14
-1.16307e-14
-4.16998e-15
-3.89974e-13
-3.92188e-13
-3.91681e-13
-3.90066e-13
-3.84534e-13
-3.85969e-13
-3.85403e-13
-3.93484e-13
-3.9605e-13
-3.93015e-13
-3.87844e-13
-3.87902e-13
-3.90278e-13
-3.89231e-13
-3.89048e-13
-3.87227e-13
-3.86318e-13
-3.86024e-13
-3.96702e-13
-4.0129e-13
-4.01889e-13
-3.97043e-13
-4.02107e-13
-4.15704e-13
-4.18161e-13
-4.14021e-13
-4.19049e-13
-4.15452e-13
-4.10655e-13
-4.08499e-13
-4.05182e-13
-4.05792e-13
-4.14462e-13
-4.0764e-13
-4.04058e-13
-4.00805e-13
-4.05283e-13
-4.10442e-13
-4.14132e-13
-4.17711e-13
-4.14029e-13
-4.07365e-13
-3.96411e-13
-3.958e-13
-3.91154e-13
-3.96327e-13
-3.9975e-13
-3.9757e-13
-3.87861e-13
-3.76771e-13
-3.66415e-13
-3.63177e-13
-3.66785e-13
-3.63166e-13
-3.60474e-13
-3.54657e-13
-3.43374e-13
-3.37051e-13
-3.25949e-13
-3.19966e-13
-3.09403e-13
-3.02491e-13
-2.96464e-13
-2.93769e-13
-2.79512e-13
-2.69654e-13
-2.69012e-13
-2.63129e-13
-2.56823e-13
-2.42952e-13
-2.3108e-13
-2.25684e-13
-2.21377e-13
-2.19755e-13
-2.1136e-13
-2.09649e-13
-1.94946e-13
-1.86191e-13
-1.77323e-13
-1.73058e-13
-1.62813e-13
-1.6496e-13
-1.55449e-13
-1.47739e-13
-1.43507e-13
-1.3054e-13
-1.19977e-13
-1.08244e-13
-9.89171e-14
-8.90251e-14
-8.56203e-14
-7.69571e-14
-6.67115e-14
-5.49983e-14
-4.32942e-14
-4.31017e-14
-3.09097e-14
-1.41136e-14
-8.15776e-15
-5.26994e-15
-3.88532e-13
-3.86147e-13
-3.87952e-13
-3.92967e-13
-3.91919e-13
-3.85166e-13
-3.88219e-13
-3.94576e-13
-3.96471e-13
-3.92647e-13
-3.89798e-13
-3.88282e-13
-3.99311e-13
-3.93406e-13
-3.87526e-13
-3.93264e-13
-3.88054e-13
-3.88647e-13
-3.95536e-13
-3.99446e-13
-4.06526e-13
-4.0921e-13
-4.01342e-13
-4.10119e-13
-4.14857e-13
-4.15484e-13
-4.23975e-13
-4.19869e-13
-4.13817e-13
-4.06822e-13
-4.03694e-13
-4.03968e-13
-4.13818e-13
-4.13169e-13
-4.05334e-13
-4.03779e-13
-4.07452e-13
-4.15112e-13
-4.17878e-13
-4.05037e-13
-4.03842e-13
-4.04762e-13
-4.00789e-13
-4.00507e-13
-3.98021e-13
-4.00214e-13
-3.98569e-13
-3.97527e-13
-3.85404e-13
-3.75938e-13
-3.7194e-13
-3.689e-13
-3.66327e-13
-3.66936e-13
-3.61745e-13
-3.4636e-13
-3.4461e-13
-3.35303e-13
-3.32352e-13
-3.27486e-13
-3.13262e-13
-3.06519e-13
-2.96544e-13
-2.96136e-13
-2.80912e-13
-2.75857e-13
-2.65559e-13
-2.63659e-13
-2.58613e-13
-2.4556e-13
-2.36543e-13
-2.25169e-13
-2.16408e-13
-2.12702e-13
-2.14108e-13
-2.09551e-13
-1.96812e-13
-1.87851e-13
-1.79719e-13
-1.71702e-13
-1.64069e-13
-1.65553e-13
-1.57209e-13
-1.49522e-13
-1.36806e-13
-1.29546e-13
-1.18497e-13
-1.07779e-13
-9.90384e-14
-8.85893e-14
-8.47623e-14
-7.65844e-14
-7.32787e-14
-5.98587e-14
-4.56581e-14
-4.03031e-14
-2.78781e-14
-1.40951e-14
-9.57924e-15
-6.63032e-15
-3.88386e-13
-3.8699e-13
-3.88952e-13
-3.90918e-13
-3.95612e-13
-3.89792e-13
-3.92037e-13
-3.90961e-13
-3.94333e-13
-3.92425e-13
-4.01792e-13
-3.91104e-13
-3.97754e-13
-3.93657e-13
-3.84096e-13
-3.95908e-13
-3.99675e-13
-3.88291e-13
-3.88486e-13
-4.00263e-13
-4.11174e-13
-4.13286e-13
-4.08903e-13
-4.12241e-13
-4.14084e-13
-4.16406e-13
-4.14724e-13
-4.17603e-13
-4.13047e-13
-4.09932e-13
-4.03964e-13
-4.07947e-13
-4.10391e-13
-4.17638e-13
-4.16001e-13
-4.12179e-13
-4.06991e-13
-4.09995e-13
-4.15249e-13
-4.05854e-13
-4.07137e-13
-4.07836e-13
-4.00986e-13
-4.02213e-13
-3.99224e-13
-3.92776e-13
-3.95788e-13
-3.93359e-13
-3.88321e-13
-3.77289e-13
-3.74824e-13
-3.73628e-13
-3.63608e-13
-3.64345e-13
-3.64698e-13
-3.57209e-13
-3.49737e-13
-3.37481e-13
-3.32408e-13
-3.21971e-13
-3.11653e-13
-3.05681e-13
-2.94954e-13
-2.93135e-13
-2.83083e-13
-2.79642e-13
-2.77591e-13
-2.63081e-13
-2.64308e-13
-2.41591e-13
-2.31063e-13
-2.25612e-13
-2.16259e-13
-2.12151e-13
-2.11828e-13
-2.11575e-13
-1.99268e-13
-1.93809e-13
-1.84021e-13
-1.73874e-13
-1.70199e-13
-1.65784e-13
-1.52295e-13
-1.47223e-13
-1.39851e-13
-1.33051e-13
-1.17839e-13
-1.07867e-13
-9.79091e-14
-8.9747e-14
-8.38348e-14
-7.56478e-14
-7.46539e-14
-6.03529e-14
-4.67963e-14
-4.22907e-14
-3.22366e-14
-1.24542e-14
-9.37061e-15
-9.68893e-15
-3.88998e-13
-3.87937e-13
-3.90609e-13
-3.89908e-13
-3.94277e-13
-3.88711e-13
-3.9281e-13
-3.94426e-13
-3.95404e-13
-3.94319e-13
-3.98066e-13
-3.96829e-13
-3.97535e-13
-3.95453e-13
-3.98991e-13
-3.93726e-13
-3.98034e-13
-3.95554e-13
-3.95128e-13
-3.97091e-13
-3.98375e-13
-4.14676e-13
-4.21254e-13
-4.16725e-13
-4.12948e-13
-4.21997e-13
-4.20892e-13
-4.13206e-13
-4.09652e-13
-4.09622e-13
-4.08017e-13
-4.14821e-13
-4.12242e-13
-4.0858e-13
-4.14418e-13
-4.14857e-13
-4.09938e-13
-4.11135e-13
-4.11233e-13
-4.09543e-13
-4.05593e-13
-4.0126e-13
-4.00834e-13
-4.01508e-13
-3.96561e-13
-3.94119e-13
-3.96225e-13
-3.9722e-13
-3.90369e-13
-3.80375e-13
-3.75131e-13
-3.73547e-13
-3.77192e-13
-3.69711e-13
-3.63326e-13
-3.50452e-13
-3.44969e-13
-3.38593e-13
-3.33051e-13
-3.27142e-13
-3.18193e-13
-3.10697e-13
-3.03242e-13
-2.92853e-13
-2.82342e-13
-2.78373e-13
-2.77414e-13
-2.65036e-13
-2.55476e-13
-2.36645e-13
-2.30992e-13
-2.27055e-13
-2.19854e-13
-2.13987e-13
-2.1775e-13
-2.18423e-13
-1.99924e-13
-1.91254e-13
-1.81659e-13
-1.71946e-13
-1.68362e-13
-1.62473e-13
-1.57077e-13
-1.48739e-13
-1.43814e-13
-1.35781e-13
-1.20388e-13
-1.05529e-13
-9.87223e-14
-9.16988e-14
-8.20366e-14
-7.35375e-14
-6.95914e-14
-5.82857e-14
-4.82129e-14
-4.26119e-14
-3.42676e-14
-1.50913e-14
-1.56849e-14
-7.92007e-15
-3.90187e-13
-3.88325e-13
-3.90745e-13
-3.87035e-13
-3.91336e-13
-3.97403e-13
-3.93505e-13
-3.91109e-13
-3.95478e-13
-4.02594e-13
-3.98604e-13
-4.0062e-13
-3.97284e-13
-3.99331e-13
-3.98662e-13
-3.99055e-13
-4.02036e-13
-3.94001e-13
-3.99067e-13
-3.98418e-13
-4.01895e-13
-4.11789e-13
-4.15255e-13
-4.12069e-13
-4.1411e-13
-4.2277e-13
-4.20163e-13
-4.16772e-13
-4.10081e-13
-4.10569e-13
-4.07667e-13
-4.0851e-13
-4.19865e-13
-4.20469e-13
-4.2152e-13
-4.15886e-13
-4.12053e-13
-4.05663e-13
-4.08457e-13
-4.09698e-13
-4.07057e-13
-4.02047e-13
-4.03335e-13
-3.98516e-13
-3.9926e-13
-3.96587e-13
-3.96529e-13
-3.92806e-13
-3.88074e-13
-3.8419e-13
-3.81917e-13
-3.72357e-13
-3.78166e-13
-3.69849e-13
-3.64255e-13
-3.527e-13
-3.49994e-13
-3.40861e-13
-3.33068e-13
-3.26805e-13
-3.14268e-13
-3.02932e-13
-2.97809e-13
-2.9522e-13
-2.91182e-13
-2.79524e-13
-2.73049e-13
-2.62069e-13
-2.56917e-13
-2.50954e-13
-2.31862e-13
-2.18107e-13
-2.1756e-13
-2.18101e-13
-2.20099e-13
-2.20048e-13
-2.13678e-13
-1.95888e-13
-1.80504e-13
-1.66277e-13
-1.67513e-13
-1.66138e-13
-1.5579e-13
-1.47617e-13
-1.4079e-13
-1.31991e-13
-1.22642e-13
-1.08412e-13
-9.81586e-14
-9.04316e-14
-8.53772e-14
-7.69158e-14
-6.78858e-14
-6.291e-14
-4.70632e-14
-3.9641e-14
-3.70572e-14
-2.00658e-14
-1.39446e-14
-6.62793e-15
-3.88516e-13
-3.88109e-13
-3.94695e-13
-3.87239e-13
-3.91809e-13
-3.94942e-13
-3.94009e-13
-3.93472e-13
-3.99765e-13
-4.09144e-13
-4.06212e-13
-3.97191e-13
-3.94215e-13
-3.93067e-13
-3.97168e-13
-3.95291e-13
-4.00139e-13
-3.98987e-13
-3.98057e-13
-3.99567e-13
-4.15006e-13
-4.21019e-13
-4.2529e-13
-4.13848e-13
-4.18278e-13
-4.2481e-13
-4.18688e-13
-4.18576e-13
-4.09667e-13
-4.03101e-13
-4.04692e-13
-4.17687e-13
-4.19561e-13
-4.23015e-13
-4.19383e-13
-4.14823e-13
-4.14319e-13
-4.10464e-13
-4.05048e-13
-4.09631e-13
-4.07519e-13
-4.00746e-13
-3.99918e-13
-3.92203e-13
-3.97329e-13
-4.04035e-13
-4.00137e-13
-3.93648e-13
-3.86074e-13
-3.82249e-13
-3.80561e-13
-3.7706e-13
-3.85063e-13
-3.8267e-13
-3.63513e-13
-3.41846e-13
-3.4789e-13
-3.47316e-13
-3.3911e-13
-3.29898e-13
-3.13321e-13
-3.08992e-13
-3.05468e-13
-2.96542e-13
-2.89705e-13
-2.74863e-13
-2.7285e-13
-2.61384e-13
-2.55754e-13
-2.47974e-13
-2.38604e-13
-2.19472e-13
-2.12832e-13
-2.14968e-13
-2.21557e-13
-2.18729e-13
-2.09199e-13
-1.94531e-13
-1.85258e-13
-1.74063e-13
-1.67769e-13
-1.63666e-13
-1.49793e-13
-1.49181e-13
-1.40388e-13
-1.3539e-13
-1.23973e-13
-1.11328e-13
-9.76598e-14
-8.93966e-14
-8.25591e-14
-7.3497e-14
-6.91411e-14
-6.1227e-14
-4.8471e-14
-4.00481e-14
-3.49768e-14
-2.52446e-14
-1.22058e-14
-8.52806e-15
-3.90938e-13
-3.82182e-13
-3.89131e-13
-3.91882e-13
-3.9269e-13
-3.94408e-13
-3.92796e-13
-3.95189e-13
-4.01923e-13
-4.1246e-13
-4.08531e-13
-4.00931e-13
-3.89773e-13
-3.89514e-13
-4.0175e-13
-4.01924e-13
-4.14855e-13
-4.10469e-13
-4.03032e-13
-3.98636e-13
-3.91936e-13
-3.96492e-13
-4.12232e-13
-4.20176e-13
-4.31641e-13
-4.30911e-13
-4.26637e-13
-4.24381e-13
-4.09474e-13
-4.03052e-13
-4.00045e-13
-4.18042e-13
-4.23148e-13
-4.2703e-13
-4.25052e-13
-4.15409e-13
-4.0842e-13
-4.08938e-13
-4.10041e-13
-4.07036e-13
-4.04661e-13
-3.94449e-13
-3.94667e-13
-3.97518e-13
-4.07261e-13
-4.04996e-13
-3.99978e-13
-3.95206e-13
-3.85263e-13
-3.80439e-13
-3.74471e-13
-3.81355e-13
-3.84628e-13
-3.80097e-13
-3.64911e-13
-3.52838e-13
-3.51318e-13
-3.45183e-13
-3.34693e-13
-3.2978e-13
-3.17803e-13
-3.132e-13
-3.09078e-13
-2.97311e-13
-2.89397e-13
-2.76381e-13
-2.72329e-13
-2.60113e-13
-2.54033e-13
-2.44793e-13
-2.38313e-13
-2.25049e-13
-2.22908e-13
-2.20694e-13
-2.18157e-13
-2.16715e-13
-2.1468e-13
-2.0165e-13
-1.8495e-13
-1.71969e-13
-1.71121e-13
-1.65128e-13
-1.54084e-13
-1.51453e-13
-1.41108e-13
-1.31729e-13
-1.22835e-13
-1.10283e-13
-9.68289e-14
-8.78166e-14
-8.48506e-14
-6.94247e-14
-6.7763e-14
-6.13004e-14
-5.10033e-14
-4.35338e-14
-3.08927e-14
-1.98592e-14
-1.13743e-14
-6.04396e-15
-3.90375e-13
-3.84523e-13
-3.8287e-13
-3.9077e-13
-3.9349e-13
-3.91394e-13
-4.00592e-13
-4.08911e-13
-4.08487e-13
-4.07461e-13
-3.98325e-13
-3.95553e-13
-3.90974e-13
-3.94631e-13
-4.00749e-13
-3.98635e-13
-4.05536e-13
-4.02283e-13
-4.00372e-13
-3.99858e-13
-4.15597e-13
-4.2132e-13
-4.24366e-13
-4.28547e-13
-4.26983e-13
-4.22616e-13
-4.19623e-13
-4.21406e-13
-4.09438e-13
-4.05786e-13
-4.04452e-13
-4.10097e-13
-4.20243e-13
-4.29821e-13
-4.3327e-13
-4.18141e-13
-4.0715e-13
-4.07942e-13
-3.99024e-13
-4.0246e-13
-4.07209e-13
-4.04091e-13
-4.01219e-13
-3.96583e-13
-4.0061e-13
-4.00079e-13
-3.98157e-13
-3.91981e-13
-3.88396e-13
-3.81749e-13
-3.79661e-13
-3.83485e-13
-3.81935e-13
-3.83298e-13
-3.74246e-13
-3.56698e-13
-3.48556e-13
-3.42854e-13
-3.40212e-13
-3.35478e-13
-3.16155e-13
-3.09553e-13
-3.12545e-13
-2.99155e-13
-2.90688e-13
-2.90122e-13
-2.76167e-13
-2.57071e-13
-2.49169e-13
-2.43693e-13
-2.38249e-13
-2.23766e-13
-2.24205e-13
-2.21394e-13
-2.20869e-13
-2.24307e-13
-2.166e-13
-2.01888e-13
-1.82261e-13
-1.75474e-13
-1.69053e-13
-1.61544e-13
-1.54692e-13
-1.54532e-13
-1.44921e-13
-1.31757e-13
-1.22064e-13
-1.079e-13
-9.81754e-14
-9.2788e-14
-8.11107e-14
-6.85055e-14
-6.77306e-14
-6.08414e-14
-4.72802e-14
-4.22374e-14
-3.02683e-14
-1.73154e-14
-1.11743e-14
-3.33041e-15
-3.92993e-13
-3.83372e-13
-3.84324e-13
-3.90736e-13
-3.96584e-13
-3.87296e-13
-3.91478e-13
-4.04945e-13
-4.14069e-13
-4.11856e-13
-4.09204e-13
-4.01511e-13
-3.94944e-13
-3.93358e-13
-3.95521e-13
-4.01397e-13
-4.06759e-13
-4.11428e-13
-4.10244e-13
-4.02312e-13
-4.03957e-13
-4.15562e-13
-4.24952e-13
-4.30734e-13
-4.30918e-13
-4.25036e-13
-4.21307e-13
-4.20443e-13
-4.10447e-13
-4.07014e-13
-4.08994e-13
-4.16782e-13
-4.24978e-13
-4.27886e-13
-4.27686e-13
-4.18987e-13
-4.14884e-13
-4.08742e-13
-3.97324e-13
-4.01282e-13
-4.09252e-13
-4.08678e-13
-4.00822e-13
-3.99676e-13
-4.04553e-13
-3.97598e-13
-3.97649e-13
-3.91937e-13
-3.88563e-13
-3.86634e-13
-3.81021e-13
-3.84578e-13
-3.78782e-13
-3.79802e-13
-3.66912e-13
-3.58345e-13
-3.54076e-13
-3.45572e-13
-3.38472e-13
-3.29685e-13
-3.19477e-13
-3.13786e-13
-3.15133e-13
-3.06817e-13
-2.97774e-13
-2.81605e-13
-2.76864e-13
-2.64152e-13
-2.52114e-13
-2.3817e-13
-2.35456e-13
-2.27673e-13
-2.20896e-13
-2.22492e-13
-2.25425e-13
-2.2342e-13
-2.11369e-13
-2.07373e-13
-1.84608e-13
-1.78815e-13
-1.72608e-13
-1.62889e-13
-1.58955e-13
-1.49071e-13
-1.43069e-13
-1.2968e-13
-1.19901e-13
-1.04368e-13
-9.93121e-14
-9.14171e-14
-8.00858e-14
-7.15365e-14
-6.7691e-14
-5.99037e-14
-4.64022e-14
-3.36186e-14
-2.40944e-14
-1.82817e-14
-8.28637e-15
-7.69566e-15
-3.89224e-13
-3.87443e-13
-3.90129e-13
-3.95109e-13
-4.00303e-13
-4.01544e-13
-4.03954e-13
-3.97076e-13
-4.0109e-13
-4.01258e-13
-4.007e-13
-4.0109e-13
-4.04124e-13
-3.95182e-13
-3.98449e-13
-4.01111e-13
-4.06419e-13
-4.01939e-13
-4.02793e-13
-4.09032e-13
-4.22022e-13
-4.30271e-13
-4.21937e-13
-4.21669e-13
-4.29225e-13
-4.25909e-13
-4.23892e-13
-4.22867e-13
-4.13199e-13
-4.11776e-13
-4.12602e-13
-4.146e-13
-4.27305e-13
-4.33632e-13
-4.23807e-13
-4.19972e-13
-4.11015e-13
-4.03554e-13
-3.97302e-13
-4.04575e-13
-4.11183e-13
-4.11394e-13
-4.05056e-13
-4.00039e-13
-4.01632e-13
-3.98643e-13
-4.02864e-13
-3.94502e-13
-3.91848e-13
-3.86765e-13
-3.83493e-13
-3.79485e-13
-3.77149e-13
-3.7589e-13
-3.68015e-13
-3.58933e-13
-3.56937e-13
-3.4743e-13
-3.38804e-13
-3.31035e-13
-3.22966e-13
-3.16324e-13
-3.16259e-13
-3.09361e-13
-2.92136e-13
-2.80402e-13
-2.77031e-13
-2.68166e-13
-2.53557e-13
-2.3919e-13
-2.36772e-13
-2.32353e-13
-2.3007e-13
-2.26082e-13
-2.20362e-13
-2.22187e-13
-2.1638e-13
-2.07768e-13
-1.92404e-13
-1.74836e-13
-1.70628e-13
-1.714e-13
-1.61505e-13
-1.55604e-13
-1.40849e-13
-1.2521e-13
-1.15552e-13
-1.09478e-13
-1.01918e-13
-9.06696e-14
-7.64227e-14
-7.28081e-14
-6.46072e-14
-5.62912e-14
-4.65504e-14
-3.38811e-14
-1.84587e-14
-1.49767e-14
-5.738e-15
-8.45357e-15
-3.90294e-13
-3.90445e-13
-3.92358e-13
-3.90782e-13
-3.92997e-13
-3.98761e-13
-4.01916e-13
-4.05811e-13
-4.08755e-13
-4.05806e-13
-3.95841e-13
-3.93987e-13
-4.02749e-13
-4.0267e-13
-4.06968e-13
-4.10177e-13
-4.01067e-13
-4.00674e-13
-4.00155e-13
-4.12373e-13
-4.1777e-13
-4.28386e-13
-4.22989e-13
-4.24608e-13
-4.27685e-13
-4.2946e-13
-4.27873e-13
-4.21323e-13
-4.10955e-13
-4.13917e-13
-4.13101e-13
-4.15327e-13
-4.18794e-13
-4.29127e-13
-4.32588e-13
-4.20679e-13
-4.16211e-13
-4.0264e-13
-3.98272e-13
-4.03156e-13
-4.10614e-13
-4.09091e-13
-4.08738e-13
-4.05408e-13
-4.01998e-13
-3.97452e-13
-4.01627e-13
-3.99994e-13
-3.94392e-13
-3.89906e-13
-3.83663e-13
-3.80248e-13
-3.78035e-13
-3.75457e-13
-3.62728e-13
-3.57116e-13
-3.54158e-13
-3.51515e-13
-3.41553e-13
-3.35966e-13
-3.22636e-13
-3.18709e-13
-3.17666e-13
-3.06881e-13
-2.93506e-13
-2.86813e-13
-2.77649e-13
-2.70588e-13
-2.52853e-13
-2.48863e-13
-2.41654e-13
-2.38208e-13
-2.31928e-13
-2.23994e-13
-2.22287e-13
-2.21627e-13
-2.11753e-13
-2.03925e-13
-1.96069e-13
-1.82239e-13
-1.75639e-13
-1.72342e-13
-1.60088e-13
-1.48297e-13
-1.42577e-13
-1.3119e-13
-1.19646e-13
-1.0793e-13
-9.80415e-14
-9.22975e-14
-8.07462e-14
-7.46529e-14
-6.26526e-14
-5.22094e-14
-4.66298e-14
-2.90747e-14
-1.97363e-14
-1.23841e-14
-8.97892e-15
-4.35042e-15
-3.99025e-13
-3.91456e-13
-3.91139e-13
-3.92034e-13
-3.99079e-13
-4.06495e-13
-4.04473e-13
-4.0427e-13
-4.02045e-13
-3.98292e-13
-3.98494e-13
-4.00608e-13
-3.99112e-13
-4.03633e-13
-4.0701e-13
-4.1214e-13
-3.99289e-13
-3.96787e-13
-4.08956e-13
-4.14293e-13
-4.21834e-13
-4.25401e-13
-4.24584e-13
-4.22295e-13
-4.28942e-13
-4.2914e-13
-4.25438e-13
-4.18536e-13
-4.11851e-13
-4.15912e-13
-4.18765e-13
-4.20014e-13
-4.23388e-13
-4.28006e-13
-4.29044e-13
-4.17994e-13
-4.0818e-13
-4.0411e-13
-4.07204e-13
-4.12482e-13
-4.12906e-13
-4.04566e-13
-4.06827e-13
-4.05784e-13
-4.06736e-13
-4.09524e-13
-3.99405e-13
-3.94261e-13
-3.91139e-13
-3.97051e-13
-3.87644e-13
-3.80691e-13
-3.85429e-13
-3.71554e-13
-3.62214e-13
-3.58458e-13
-3.52669e-13
-3.48958e-13
-3.48039e-13
-3.37445e-13
-3.24694e-13
-3.16065e-13
-3.14595e-13
-3.13517e-13
-2.98848e-13
-2.88933e-13
-2.77446e-13
-2.68608e-13
-2.59725e-13
-2.52492e-13
-2.45646e-13
-2.36386e-13
-2.33154e-13
-2.28223e-13
-2.22532e-13
-2.22833e-13
-2.08979e-13
-2.03957e-13
-2.04283e-13
-1.91639e-13
-1.74308e-13
-1.65969e-13
-1.57458e-13
-1.49862e-13
-1.40806e-13
-1.29962e-13
-1.17324e-13
-1.06508e-13
-1.06392e-13
-9.09689e-14
-7.61578e-14
-6.7184e-14
-6.1432e-14
-5.22046e-14
-4.77186e-14
-3.14271e-14
-2.18094e-14
-1.6556e-14
-8.90144e-15
-2.43712e-15
-4.00255e-13
-3.93635e-13
-3.89009e-13
-3.95208e-13
-4.06002e-13
-4.06894e-13
-4.07304e-13
-4.00746e-13
-4.02083e-13
-4.00227e-13
-4.05394e-13
-3.98723e-13
-3.99189e-13
-4.05781e-13
-4.0539e-13
-4.09592e-13
-4.09368e-13
-4.09558e-13
-4.07858e-13
-4.05291e-13
-4.10653e-13
-4.23355e-13
-4.28083e-13
-4.2868e-13
-4.27533e-13
-4.23147e-13
-4.22836e-13
-4.14946e-13
-4.1546e-13
-4.17971e-13
-4.2065e-13
-4.19573e-13
-4.18921e-13
-4.25584e-13
-4.28349e-13
-4.19993e-13
-4.14558e-13
-4.06425e-13
-4.11704e-13
-4.16284e-13
-4.22702e-13
-4.13564e-13
-3.97405e-13
-3.99131e-13
-4.01674e-13
-4.08255e-13
-4.02095e-13
-3.99401e-13
-3.94961e-13
-3.95116e-13
-3.85641e-13
-3.80524e-13
-3.84779e-13
-3.72321e-13
-3.6902e-13
-3.63376e-13
-3.56586e-13
-3.47319e-13
-3.43605e-13
-3.39128e-13
-3.25995e-13
-3.19424e-13
-3.13606e-13
-3.10393e-13
-3.05297e-13
-2.93298e-13
-2.79745e-13
-2.70158e-13
-2.64887e-13
-2.5333e-13
-2.49187e-13
-2.39063e-13
-2.32572e-13
-2.35643e-13
-2.24001e-13
-2.22604e-13
-2.09842e-13
-2.06643e-13
-1.98808e-13
-1.85782e-13
-1.79528e-13
-1.71755e-13
-1.57315e-13
-1.43878e-13
-1.36072e-13
-1.27436e-13
-1.24058e-13
-1.11772e-13
-1.03406e-13
-9.11121e-14
-7.91019e-14
-6.75203e-14
-5.81513e-14
-5.30516e-14
-4.57306e-14
-2.75605e-14
-1.56161e-14
-2.11937e-14
-1.06419e-14
-3.51683e-15
-3.97339e-13
-3.97546e-13
-3.99476e-13
-4.0282e-13
-4.09891e-13
-4.01236e-13
-4.07241e-13
-4.05697e-13
-4.03586e-13
-4.05486e-13
-4.0535e-13
-3.98986e-13
-3.98259e-13
-4.01342e-13
-4.05973e-13
-4.10931e-13
-4.05907e-13
-4.07529e-13
-4.12578e-13
-4.14318e-13
-4.13614e-13
-4.2301e-13
-4.32346e-13
-4.30034e-13
-4.27208e-13
-4.19804e-13
-4.19595e-13
-4.17684e-13
-4.17473e-13
-4.17049e-13
-4.1859e-13
-4.17315e-13
-4.22333e-13
-4.28061e-13
-4.23592e-13
-4.26107e-13
-4.19929e-13
-4.11876e-13
-4.07419e-13
-4.07972e-13
-4.15569e-13
-4.13832e-13
-4.08903e-13
-4.01899e-13
-4.06936e-13
-4.09058e-13
-4.01332e-13
-4.00271e-13
-3.99019e-13
-3.93907e-13
-3.88749e-13
-3.89644e-13
-3.83304e-13
-3.69267e-13
-3.64431e-13
-3.59269e-13
-3.56648e-13
-3.49152e-13
-3.37622e-13
-3.34601e-13
-3.28406e-13
-3.24457e-13
-3.18378e-13
-3.17804e-13
-3.11949e-13
-2.89774e-13
-2.80903e-13
-2.79427e-13
-2.67479e-13
-2.50932e-13
-2.45256e-13
-2.44977e-13
-2.34585e-13
-2.35064e-13
-2.2508e-13
-2.18561e-13
-2.16075e-13
-2.02514e-13
-1.96279e-13
-1.88852e-13
-1.81127e-13
-1.72757e-13
-1.56508e-13
-1.45862e-13
-1.4186e-13
-1.29441e-13
-1.25652e-13
-1.09461e-13
-1.02135e-13
-8.81032e-14
-7.75033e-14
-6.74629e-14
-6.18353e-14
-4.90255e-14
-3.99524e-14
-3.2929e-14
-2.2548e-14
-2.13274e-14
-9.3789e-15
-4.52885e-15
-4.02054e-13
-4.02208e-13
-4.03131e-13
-4.06839e-13
-4.06438e-13
-4.06691e-13
-4.0878e-13
-4.10429e-13
-4.05099e-13
-4.01896e-13
-4.04134e-13
-4.04588e-13
-4.01969e-13
-4.03489e-13
-4.0462e-13
-4.15297e-13
-4.1745e-13
-4.09372e-13
-4.14228e-13
-4.10193e-13
-4.08823e-13
-4.17508e-13
-4.28919e-13
-4.28902e-13
-4.29556e-13
-4.23867e-13
-4.18537e-13
-4.18194e-13
-4.19157e-13
-4.15393e-13
-4.12683e-13
-4.12252e-13
-4.13808e-13
-4.23204e-13
-4.33026e-13
-4.29365e-13
-4.21932e-13
-4.17903e-13
-4.11427e-13
-4.13127e-13
-4.11825e-13
-4.18218e-13
-4.07466e-13
-4.06879e-13
-4.05752e-13
-4.03877e-13
-4.03575e-13
-3.99541e-13
-4.01099e-13
-4.03036e-13
-3.86805e-13
-3.76607e-13
-3.79801e-13
-3.75214e-13
-3.68457e-13
-3.64628e-13
-3.61903e-13
-3.47322e-13
-3.41692e-13
-3.30472e-13
-3.18157e-13
-3.25895e-13
-3.2023e-13
-3.15698e-13
-3.0738e-13
-2.95411e-13
-2.82468e-13
-2.77608e-13
-2.67191e-13
-2.61027e-13
-2.53977e-13
-2.44064e-13
-2.34958e-13
-2.32016e-13
-2.26002e-13
-2.23933e-13
-2.0943e-13
-2.06761e-13
-1.95567e-13
-1.85804e-13
-1.77805e-13
-1.69669e-13
-1.59521e-13
-1.39763e-13
-1.42515e-13
-1.31717e-13
-1.245e-13
-1.10799e-13
-9.82185e-14
-9.37482e-14
-7.91532e-14
-6.95915e-14
-6.09884e-14
-4.77814e-14
-3.49028e-14
-3.0623e-14
-2.71666e-14
-2.35932e-14
-1.40308e-14
-7.80331e-15
-4.06685e-13
-4.03593e-13
-4.03471e-13
-4.05004e-13
-4.09192e-13
-4.09792e-13
-4.12694e-13
-4.13971e-13
-4.06869e-13
-4.05246e-13
-4.0276e-13
-3.97753e-13
-4.05755e-13
-4.06172e-13
-4.07928e-13
-4.10339e-13
-4.08233e-13
-4.06636e-13
-4.09302e-13
-4.14505e-13
-4.18395e-13
-4.32635e-13
-4.35538e-13
-4.24526e-13
-4.18654e-13
-4.23505e-13
-4.24184e-13
-4.21978e-13
-4.2346e-13
-4.11616e-13
-4.08213e-13
-4.23271e-13
-4.21567e-13
-4.20507e-13
-4.20244e-13
-4.21484e-13
-4.20745e-13
-4.15519e-13
-4.18395e-13
-4.12433e-13
-4.13635e-13
-4.19525e-13
-4.15639e-13
-4.05898e-13
-3.98924e-13
-4.02775e-13
-4.03106e-13
-4.03336e-13
-3.95549e-13
-3.98245e-13
-3.94294e-13
-3.80081e-13
-3.79629e-13
-3.74522e-13
-3.69819e-13
-3.69474e-13
-3.63122e-13
-3.47194e-13
-3.35318e-13