/*--------------------------------*- C++ -*----------------------------------*\
| =========                 |                                                 |
| \\      /  F ield         | OpenFOAM: The Open Source CFD Toolbox           |
|  \\    /   O peration     | Version:  v2012                                 |
|   \\  /    A nd           | Website:  www.openfoam.com                      |
|    \\/     M anipulation  |                                                 |
\*---------------------------------------------------------------------------*/
FoamFile
{
    version     2.0;
    format      ascii;
    class       volVectorField;
    location    "0";
    object      U;
}
// * * * * * * * * * * * * * * * * * * * * * * * * * * * * * * * * * * * * * //

dimensions      [0 1 -1 0 0 0 0];


internalField   nonuniform List<vector> 
4000
(
(1 2.96476e-15 0)
(1 3.25395e-15 0)
(1 -1.24143e-15 0)
(1 4.26017e-15 0)
(1 -3.68632e-15 0)
(1 -1.19728e-15 0)
(1 5.67239e-15 0)
(1 -1.25964e-15 0)
(1 2.15198e-17 0)
(1 -5.87007e-15 0)
(1 -3.09006e-15 0)
(1 -1.78248e-15 0)
(1 5.91197e-15 0)
(1 4.84302e-15 0)
(1 -5.20827e-15 0)
(1 -2.43166e-15 0)
(1 1.42043e-15 0)
(1 -3.74801e-15 0)
(1 -2.15445e-15 0)
(1 -2.42237e-17 0)
(1 -5.94095e-17 0)
(1 4.69833e-16 0)
(1 -1.35726e-15 0)
(1 1.71033e-15 0)
(1 1.4147e-15 0)
(1 -4.68841e-15 0)
(1 -3.16408e-15 0)
(1 -1.4662e-16 0)
(1 -7.87485e-16 0)
(1 4.26158e-15 0)
(1 -1.63196e-15 0)
(1 -1.06839e-15 0)
(1 -3.65286e-15 0)
(1 5.90292e-15 0)
(1 8.08707e-16 0)
(1 8.39696e-15 0)
(1 5.02155e-15 0)
(1 6.50019e-15 0)
(1 -1.34494e-15 0)
(1 -5.4077e-15 0)
(1 -2.71742e-15 0)
(1 -7.62832e-15 0)
(1 -2.28599e-16 0)
(1 3.22167e-15 0)
(1 3.87396e-15 0)
(1 -2.13841e-15 0)
(1 2.76397e-16 0)
(1 1.63947e-16 0)
(1 2.82915e-15 0)
(1 3.79716e-15 0)
(1 -8.83848e-19 0)
(1 1.38316e-15 0)
(1 -5.57404e-16 0)
(1 1.39623e-15 0)
(1 3.27392e-15 0)
(1 3.4231e-15 0)
(1 -3.283e-15 0)
(1 3.05853e-15 0)
(1 6.23425e-16 0)
(1 3.50919e-15 0)
(1 -7.57351e-16 0)
(1 6.35594e-16 0)
(1 -3.71941e-15 0)
(1 -2.41638e-15 0)
(1 -1.38553e-15 0)
(1 1.47831e-17 0)
(1 1.90246e-15 0)
(1 2.69803e-15 0)
(1 -4.65433e-16 0)
(1 -1.55919e-15 0)
(1 -3.00219e-15 0)
(1 -4.09894e-15 0)
(1 -4.17312e-15 0)
(1 -1.22401e-15 0)
(1 -3.63108e-15 0)
(1 -2.33799e-15 0)
(1 -5.59851e-15 0)
(1 -1.3649e-15 0)
(1 9.87097e-16 0)
(1 1.98358e-15 0)
(1 4.20377e-15 0)
(1 1.9715e-15 0)
(1 -3.01093e-15 0)
(1 7.96484e-16 0)
(1 2.5056e-15 0)
(1 -1.9491e-15 0)
(1 -1.94309e-15 0)
(1 -1.1422e-16 0)
(1 1.09205e-15 0)
(1 4.23212e-15 0)
(1 -3.70041e-16 0)
(1 1.92545e-15 0)
(1 2.28778e-15 0)
(1 2.07722e-15 0)
(1 -1.16781e-15 0)
(1 -1.7167e-15 0)
(1 -1.27053e-15 0)
(1 7.9896e-16 0)
(1 5.85562e-20 0)
(1 -1.0505e-15 0)
(1 3.40207e-15 0)
(1 3.00657e-15 0)
(1 8.31866e-17 0)
(1 2.45439e-15 0)
(1 -2.33288e-15 0)
(1 -4.22383e-15 0)
(1 4.49165e-15 0)
(1 -1.88989e-15 0)
(1 2.27806e-15 0)
(1 -4.01913e-16 0)
(1 -6.12085e-15 0)
(1 -5.47344e-15 0)
(1 5.72003e-15 0)
(1 6.61211e-15 0)
(1 -5.61002e-16 0)
(1 -9.70031e-16 0)
(1 1.99135e-15 0)
(1 9.5771e-16 0)
(1 8.66721e-16 0)
(1 -6.69716e-16 0)
(1 -3.9403e-15 0)
(1 -2.8065e-16 0)
(1 -2.84517e-15 0)
(1 2.50875e-15 0)
(1 -1.26556e-15 0)
(1 -4.55422e-15 0)
(1 -4.75394e-15 0)
(1 -3.1282e-15 0)
(1 2.29616e-16 0)
(1 4.75205e-16 0)
(1 -2.31487e-15 0)
(1 -1.64173e-15 0)
(1 -2.45263e-15 0)
(1 4.9061e-15 0)
(1 -5.29516e-15 0)
(1 1.05802e-14 0)
(1 7.76843e-15 0)
(1 7.13325e-15 0)
(1 -5.39933e-15 0)
(1 -3.08679e-15 0)
(1 -5.42308e-15 0)
(1 -5.91852e-15 0)
(1 -2.42037e-16 0)
(1 4.0616e-15 0)
(1 -2.428e-15 0)
(1 -7.28121e-15 0)
(1 -2.77459e-15 0)
(1 4.25326e-15 0)
(1 8.49127e-15 0)
(1 3.29088e-15 0)
(1 -1.08863e-15 0)
(1 -3.72145e-15 0)
(1 -6.59086e-16 0)
(1 -1.6527e-15 0)
(1 2.12301e-15 0)
(1 4.18842e-15 0)
(1 -1.78429e-16 0)
(1 -1.3527e-15 0)
(1 -1.44822e-15 0)
(1 -2.12401e-15 0)
(1 -1.79706e-15 0)
(1 7.99992e-16 0)
(1 2.05264e-15 0)
(1 3.72492e-15 0)
(1 -6.55489e-16 0)
(1 3.03747e-15 0)
(1 -3.84978e-16 0)
(1 2.26584e-15 0)
(1 6.75168e-16 0)
(1 -4.33258e-15 0)
(1 -6.1296e-16 0)
(1 -1.17444e-15 0)
(1 6.03071e-15 0)
(1 6.95966e-15 0)
(1 1.20589e-15 0)
(1 -3.21057e-15 0)
(1 -2.7132e-15 0)
(1 -1.4884e-15 0)
(1 5.48223e-16 0)
(1 3.15375e-15 0)
(1 5.05178e-15 0)
(1 4.90674e-16 0)
(1 -2.99937e-15 0)
(1 1.68383e-15 0)
(1 3.51648e-15 0)
(1 6.61277e-16 0)
(1 -3.08834e-15 0)
(1 -3.3616e-15 0)
(1 -2.77102e-15 0)
(1 -9.50946e-17 0)
(1 1.21321e-15 0)
(1 1.35517e-15 0)
(1 1.97971e-16 0)
(1 1.97242e-15 0)
(1 -5.94321e-15 0)
(1 -8.6842e-16 0)
(1 -8.33656e-16 0)
(1 2.67167e-15 0)
(1 -1.09781e-15 0)
(1 -1.18975e-15 0)
(1 -3.84417e-15 0)
(1 4.79343e-15 0)
(1 -7.69604e-15 0)
(1 3.14647e-15 0)
(1 6.22833e-16 0)
(1 1.26491e-15 0)
(1 3.51627e-15 0)
(1 8.9339e-15 0)
(1 1.95138e-15 0)
(1 -2.9e-15 0)
(1 -6.6761e-15 0)
(1 -1.5596e-15 0)
(1 3.36485e-15 0)
(1 6.73677e-15 0)
(1 -4.91879e-16 0)
(1 -1.83843e-15 0)
(1 1.94922e-15 0)
(1 -1.18559e-15 0)
(1 1.37503e-15 0)
(1 9.49074e-16 0)
(1 -9.72358e-16 0)
(1 -2.51016e-15 0)
(1 -1.61879e-16 0)
(1 3.47055e-15 0)
(1 3.32347e-16 0)
(1 3.49146e-15 0)
(1 7.02631e-15 0)
(1 8.39519e-15 0)
(1 4.43579e-15 0)
(1 -3.21413e-15 0)
(1 -3.08171e-15 0)
(1 -5.25898e-15 0)
(1 -3.90959e-16 0)
(1 -8.50194e-15 0)
(1 -3.22472e-15 0)
(1 8.32619e-15 0)
(1 2.85254e-15 0)
(1 2.33835e-15 0)
(1 3.32628e-15 0)
(1 5.07212e-15 0)
(1 5.09885e-15 0)
(1 -1.93983e-15 0)
(1 -1.23513e-15 0)
(1 -2.81491e-15 0)
(1 -1.02692e-15 0)
(1 -7.45524e-16 0)
(1 -3.84133e-16 0)
(1 4.33688e-15 0)
(1 2.01187e-15 0)
(1 -2.25942e-15 0)
(1 -1.39962e-15 0)
(1 -3.40194e-15 0)
(1 4.42851e-15 0)
(1 -1.90798e-15 0)
(1 1.12818e-15 0)
(1 1.71867e-15 0)
(1 2.69917e-15 0)
(1 -5.00329e-16 0)
(1 -1.14192e-15 0)
(1 -6.3103e-15 0)
(1 7.18272e-16 0)
(1 -1.02537e-15 0)
(1 1.41226e-17 0)
(1 4.30431e-15 0)
(1 6.60604e-16 0)
(1 2.30725e-15 0)
(1 1.15677e-15 0)
(1 -6.67952e-16 0)
(1 -1.6122e-15 0)
(1 -2.35764e-15 0)
(1 4.21651e-16 0)
(1 -3.63742e-15 0)
(1 2.135e-15 0)
(1 1.7118e-16 0)
(1 -1.72234e-15 0)
(1 -1.66397e-15 0)
(1 -4.01993e-16 0)
(1 -1.97198e-15 0)
(1 -1.34782e-15 0)
(1 -7.79727e-16 0)
(1 8.97687e-16 0)
(1 1.56377e-15 0)
(1 -4.6032e-16 0)
(1 3.02155e-17 0)
(1 -2.84463e-16 0)
(1 2.48998e-15 0)
(1 8.22195e-16 0)
(1 -4.99662e-18 0)
(1 -2.60308e-15 0)
(1 -4.93084e-17 0)
(1 9.3223e-16 0)
(1 1.08677e-15 0)
(1 -2.13862e-15 0)
(1 -1.67552e-15 0)
(1 -3.22189e-15 0)
(1 1.93998e-15 0)
(1 -2.29122e-15 0)
(1 -3.15208e-15 0)
(1 5.35573e-16 0)
(1 7.12025e-16 0)
(1 -1.06321e-15 0)
(1 -2.40532e-15 0)
(1 -7.3789e-15 0)
(1 -4.93991e-15 0)
(1 3.71788e-15 0)
(1 5.35489e-15 0)
(1 7.47225e-15 0)
(1 8.20126e-15 0)
(1 -1.07023e-15 0)
(1 -3.85446e-15 0)
(1 -5.12809e-15 0)
(1 3.63168e-15 0)
(1 6.66136e-15 0)
(1 1.15773e-14 0)
(1 -2.58178e-16 0)
(1 -4.88166e-15 0)
(1 2.0237e-15 0)
(1 -3.09492e-15 0)
(1 -4.9378e-15 0)
(1 4.34293e-15 0)
(1 5.85253e-15 0)
(1 -1.0671e-15 0)
(1 6.87953e-15 0)
(1 1.30834e-14 0)
(1 1.16561e-14 0)
(1 1.46755e-15 0)
(1 -3.38745e-15 0)
(1 4.21238e-15 0)
(1 2.73616e-15 0)
(1 2.49704e-16 0)
(1 -8.81624e-15 0)
(1 -4.76476e-15 0)
(1 -6.1908e-15 0)
(1 -1.0471e-14 0)
(1 -2.14613e-15 0)
(1 -7.21643e-16 0)
(1 4.52976e-15 0)
(1 5.08091e-15 0)
(1 1.3219e-14 0)
(1 -1.4181e-15 0)
(1 1.00935e-14 0)
(1 -4.06791e-15 0)
(1 -3.77864e-15 0)
(1 -9.74173e-15 0)
(1 4.68253e-15 0)
(1 6.22028e-15 0)
(1 8.66292e-15 0)
(1 3.31708e-15 0)
(1 3.61091e-15 0)
(1 2.38512e-15 0)
(1 -1.08483e-15 0)
(1 8.92117e-16 0)
(1 -1.6591e-15 0)
(1 9.27236e-16 0)
(1 -3.95987e-16 0)
(1 -6.32724e-15 0)
(1 -1.16029e-15 0)
(1 7.96628e-15 0)
(1 -5.00213e-15 0)
(1 -1.20909e-15 0)
(1 2.55038e-15 0)
(1 -2.93237e-15 0)
(1 -6.88245e-16 0)
(1 9.67865e-16 0)
(1 3.32561e-15 0)
(1 -1.14068e-15 0)
(1 1.15679e-15 0)
(1 -4.789e-15 0)
(1 -3.30942e-15 0)
(1 1.47741e-15 0)
(1 -2.87718e-15 0)
(1 -8.25768e-15 0)
(1 -6.69037e-15 0)
(1 -9.90121e-15 0)
(1 -5.45531e-15 0)
(1 2.0146e-15 0)
(1 1.67363e-15 0)
(1 -7.41459e-16 0)
(1 4.75833e-15 0)
(1 1.58216e-15 0)
(1 -5.48582e-16 0)
(1 3.07096e-15 0)
(1 2.57548e-15 0)
(1 -1.96858e-16 0)
(1 9.05697e-16 0)
(1 2.95362e-16 0)
(1 7.39086e-15 0)
(1 5.73249e-15 0)
(1 4.50886e-15 0)
(1 4.10804e-15 0)
(1 -1.23405e-15 0)
(1 9.43383e-17 0)
(1 1.86427e-15 0)
(1 -8.00197e-16 0)
(1 -1.40103e-15 0)
(1 -4.13564e-15 0)
(1 -4.72359e-15 0)
(1 -5.99798e-15 0)
(1 -4.45965e-15 0)
(1 4.48694e-16 0)
(1 4.8833e-15 0)
(1 -3.83888e-15 0)
(1 4.56548e-16 0)
(1 -2.4743e-15 0)
(1 7.29327e-15 0)
(1 5.19614e-15 0)
(1 -2.29773e-15 0)
(1 -4.93678e-15 0)
(1 -6.82192e-15 0)
(1 -3.74622e-15 0)
(1 3.1409e-15 0)
(1 1.97879e-15 0)
(1 2.20502e-15 0)
(1 -1.1441e-15 0)
(1 1.20022e-14 0)
(1 1.634e-15 0)
(1 -1.30729e-15 0)
(1 -3.43351e-15 0)
(1 -4.80416e-16 0)
(1 -1.0396e-14 0)
(1 8.91657e-16 0)
(1 5.62489e-16 0)
(1 7.39589e-15 0)
(1 1.14647e-14 0)
(1 1.27889e-14 0)
(1 7.89116e-15 0)
(1 5.56752e-15 0)
(1 1.04344e-15 0)
(1 4.79254e-15 0)
(1 2.0047e-15 0)
(1 -4.19771e-15 0)
(1 -2.67198e-15 0)
(1 -8.06847e-15 0)
(1 3.08019e-15 0)
(1 -8.7903e-15 0)
(1 -1.26612e-14 0)
(1 1.02071e-15 0)
(1 5.72087e-16 0)
(1 6.61917e-15 0)
(1 2.74912e-16 0)
(1 2.31398e-15 0)
(1 3.7026e-15 0)
(1 -3.12075e-15 0)
(1 -2.65403e-15 0)
(1 -6.02711e-15 0)
(1 8.24091e-16 0)
(1 6.16726e-15 0)
(1 5.62679e-15 0)
(1 7.71004e-15 0)
(1 3.21933e-15 0)
(1 1.12377e-15 0)
(1 -2.93336e-15 0)
(1 -9.26666e-15 0)
(1 -1.07702e-15 0)
(1 -3.13711e-15 0)
(1 -4.27567e-15 0)
(1 3.41895e-15 0)
(1 7.11848e-15 0)
(1 1.42799e-15 0)
(1 4.58153e-15 0)
(1 2.69507e-15 0)
(1 -1.65365e-15 0)
(1 4.95667e-15 0)
(1 4.20753e-15 0)
(1 5.95559e-15 0)
(1 4.08502e-15 0)
(1 9.97006e-16 0)
(1 -5.69793e-15 0)
(1 -2.61696e-15 0)
(1 5.2699e-16 0)
(1 -6.5744e-15 0)
(1 -2.58774e-15 0)
(1 2.01397e-15 0)
(1 -5.58489e-15 0)
(1 9.39781e-16 0)
(1 8.08659e-16 0)
(1 -8.76255e-16 0)
(1 -6.17867e-15 0)
(1 2.93499e-15 0)
(1 7.0706e-15 0)
(1 6.78298e-16 0)
(1 -1.90833e-15 0)
(1 4.0547e-15 0)
(1 4.40156e-15 0)
(1 6.65322e-15 0)
(1 1.7109e-15 0)
(1 6.72332e-15 0)
(1 3.17585e-15 0)
(1 3.44866e-15 0)
(1 -2.1888e-15 0)
(1 1.84265e-15 0)
(1 -3.10047e-15 0)
(1 4.00989e-15 0)
(1 1.52097e-15 0)
(1 1.31657e-15 0)
(1 -1.72122e-15 0)
(1 -2.55049e-15 0)
(1 -3.88393e-15 0)
(1 -1.6611e-15 0)
(1 3.29937e-15 0)
(1 -1.05659e-15 0)
(1 1.94335e-15 0)
(1 2.41222e-16 0)
(1 1.69577e-15 0)
(1 -4.12051e-15 0)
(1 8.44023e-15 0)
(1 -2.83091e-15 0)
(1 -5.62079e-15 0)
(1 -7.28381e-15 0)
(1 -7.08679e-15 0)
(1 8.57787e-15 0)
(1 3.56739e-15 0)
(1 2.84569e-15 0)
(1 -3.98463e-15 0)
(1 8.65829e-15 0)
(1 5.72999e-15 0)
(1 5.86373e-16 0)
(1 -1.34408e-14 0)
(1 -2.35371e-15 0)
(1 -9.60672e-15 0)
(1 7.22129e-15 0)
(1 1.92096e-14 0)
(1 1.53776e-14 0)
(1 3.52596e-15 0)
(1 1.76902e-15 0)
(1 2.87925e-15 0)
(1 4.83018e-15 0)
(1 4.7517e-15 0)
(1 2.95469e-15 0)
(1 1.151e-15 0)
(1 -2.02738e-15 0)
(1 -7.11654e-15 0)
(1 -9.31143e-15 0)
(1 2.44492e-15 0)
(1 6.13193e-16 0)
(1 -8.21551e-16 0)
(1 7.7765e-16 0)
(1 -4.84399e-16 0)
(1 5.86273e-15 0)
(1 1.61189e-15 0)
(1 2.42979e-15 0)
(1 8.37549e-15 0)
(1 3.98829e-15 0)
(1 6.13284e-15 0)
(1 -3.82318e-15 0)
(1 6.56709e-17 0)
(1 1.22284e-15 0)
(1 4.28839e-15 0)
(1 3.47553e-15 0)
(1 3.08168e-15 0)
(1 2.31211e-16 0)
(1 -6.68865e-16 0)
(1 2.80161e-15 0)
(1 -1.75725e-15 0)
(1 -8.0962e-15 0)
(1 -2.48378e-15 0)
(1 1.89249e-15 0)
(1 5.07802e-15 0)
(1 1.07335e-14 0)
(1 9.2721e-15 0)
(1 1.05852e-15 0)
(1 6.46522e-16 0)
(1 2.79229e-15 0)
(1 2.43139e-16 0)
(1 3.28728e-15 0)
(1 6.83559e-15 0)
(1 2.50058e-15 0)
(1 6.62598e-15 0)
(1 9.01811e-15 0)
(1 1.15248e-14 0)
(1 4.58557e-16 0)
(1 -9.74626e-16 0)
(1 -2.59458e-16 0)
(1 -5.15292e-15 0)
(1 -2.9061e-15 0)
(1 -7.51124e-15 0)
(1 -4.62977e-15 0)
(1 -8.63978e-16 0)
(1 -4.85436e-16 0)
(1 3.1966e-15 0)
(1 2.08946e-15 0)
(1 4.45592e-15 0)
(1 9.68544e-16 0)
(1 4.17051e-15 0)
(1 1.80366e-15 0)
(1 -4.5726e-15 0)
(1 1.02127e-15 0)
(1 2.77425e-15 0)
(1 1.78573e-15 0)
(1 2.16917e-15 0)
(1 1.21137e-16 0)
(1 3.05639e-15 0)
(1 -1.26034e-15 0)
(1 3.70481e-15 0)
(1 5.33987e-15 0)
(1 7.10651e-15 0)
(1 4.32388e-15 0)
(1 1.081e-15 0)
(1 6.55732e-15 0)
(1 6.17808e-15 0)
(1 -2.25807e-16 0)
(1 3.05858e-16 0)
(1 7.34188e-15 0)
(1 2.95501e-15 0)
(1 -3.13529e-15 0)
(1 2.22282e-15 0)
(1 2.02861e-15 0)
(1 -2.73904e-15 0)
(1 -3.39975e-15 0)
(1 -8.22418e-16 0)
(1 -2.42602e-15 0)
(1 -1.72834e-15 0)
(1 -1.51917e-16 0)
(1 7.41141e-15 0)
(1 1.88802e-15 0)
(1 5.10925e-15 0)
(1 -8.62287e-17 0)
(1 -4.81004e-15 0)
(1 -8.93464e-15 0)
(1 8.4704e-15 0)
(1 7.81349e-15 0)
(1 1.36332e-14 0)
(1 3.72253e-15 0)
(1 -4.88558e-15 0)
(1 4.83267e-16 0)
(1 4.44301e-15 0)
(1 2.38476e-15 0)
(1 9.98828e-16 0)
(1 7.62268e-16 0)
(1 4.67874e-15 0)
(1 2.23812e-15 0)
(1 -4.75994e-16 0)
(1 -3.82497e-16 0)
(1 -7.76016e-15 0)
(1 8.76203e-16 0)
(1 -1.41459e-15 0)
(1 -1.86034e-16 0)
(1 9.67586e-16 0)
(1 4.78997e-15 0)
(1 2.99536e-15 0)
(1 1.55188e-14 0)
(1 1.32826e-14 0)
(1 1.06853e-14 0)
(1 -7.27159e-16 0)
(1 -6.02878e-17 0)
(1 -2.84626e-15 0)
(1 -4.39136e-15 0)
(1 -3.32841e-15 0)
(1 3.67351e-15 0)
(1 5.35341e-15 0)
(1 1.85765e-15 0)
(1 -5.52551e-15 0)
(1 -6.24924e-15 0)
(1 -3.30326e-15 0)
(1 -2.91881e-15 0)
(1 -2.44376e-16 0)
(1 1.16378e-16 0)
(1 2.8707e-16 0)
(1 6.79021e-15 0)
(1 3.9688e-15 0)
(1 3.87418e-15 0)
(1 7.40535e-15 0)
(1 7.11525e-15 0)
(1 3.39804e-15 0)
(1 3.57766e-15 0)
(1 -3.25816e-16 0)
(1 -3.58624e-15 0)
(1 4.01854e-15 0)
(1 6.91735e-15 0)
(1 3.38723e-15 0)
(1 1.45878e-15 0)
(1 -1.30075e-15 0)
(1 -6.69789e-15 0)
(1 2.97863e-16 0)
(1 1.86034e-16 0)
(1 2.39311e-15 0)
(1 1.86196e-15 0)
(1 8.89374e-15 0)
(1 2.52282e-15 0)
(1 1.18951e-15 0)
(1 5.3637e-15 0)
(1 1.07652e-15 0)
(1 2.386e-15 0)
(1 1.66102e-15 0)
(1 5.78304e-15 0)
(1 3.9652e-15 0)
(1 7.43329e-15 0)
(1 7.41189e-15 0)
(1 3.50726e-15 0)
(1 3.7391e-15 0)
(1 3.63349e-16 0)
(1 7.06817e-15 0)
(1 3.91764e-15 0)
(1 5.67275e-15 0)
(1 2.6158e-15 0)
(1 8.58528e-15 0)
(1 1.09656e-14 0)
(1 9.68593e-15 0)
(1 2.82242e-15 0)
(1 6.32821e-15 0)
(1 6.49868e-16 0)
(1 -3.60214e-16 0)
(1 1.13237e-15 0)
(1 1.59358e-15 0)
(1 5.77278e-15 0)
(1 -3.49414e-15 0)
(1 8.45259e-16 0)
(1 1.31241e-17 0)
(1 -2.69042e-15 0)
(1 -5.83286e-17 0)
(1 -7.81874e-15 0)
(1 -2.26953e-16 0)
(1 9.74857e-16 0)
(1 1.16859e-14 0)
(1 9.05585e-16 0)
(1 7.44891e-15 0)
(1 -3.45175e-15 0)
(1 5.78429e-15 0)
(1 -5.2667e-15 0)
(1 7.26866e-15 0)
(1 -2.4431e-15 0)
(1 1.75393e-15 0)
(1 -4.32397e-15 0)
(1 2.92572e-17 0)
(1 -5.63116e-15 0)
(1 3.8997e-15 0)
(1 1.08372e-14 0)
(1 2.0723e-15 0)
(1 4.97682e-16 0)
(1 7.82099e-15 0)
(1 2.90621e-15 0)
(1 8.56739e-16 0)
(1 3.83168e-17 0)
(1 -8.83127e-15 0)
(1 -4.79545e-15 0)
(1 -2.24368e-15 0)
(1 -1.6501e-15 0)
(1 1.06629e-15 0)
(1 4.12625e-15 0)
(1 1.07471e-14 0)
(1 5.4913e-15 0)
(1 -1.65476e-15 0)
(1 1.28292e-15 0)
(1 -1.53024e-15 0)
(1 7.49193e-16 0)
(1 5.57878e-15 0)
(1 3.31616e-16 0)
(1 1.04073e-15 0)
(1 5.15723e-15 0)
(1 6.57266e-15 0)
(1 5.21077e-15 0)
(1 -2.2678e-15 0)
(1 -1.14117e-15 0)
(1 2.94282e-15 0)
(1 1.04364e-14 0)
(1 -1.5057e-15 0)
(1 -2.31569e-15 0)
(1 -9.8252e-15 0)
(1 1.33622e-15 0)
(1 -2.3377e-15 0)
(1 1.00282e-14 0)
(1 1.48207e-14 0)
(1 1.1416e-14 0)
(1 7.94719e-15 0)
(1 5.15073e-15 0)
(1 3.11064e-15 0)
(1 1.62706e-15 0)
(1 1.35439e-15 0)
(1 2.76866e-16 0)
(1 -6.01987e-15 0)
(1 3.3344e-15 0)
(1 8.98778e-15 0)
(1 9.72062e-16 0)
(1 -1.03696e-15 0)
(1 3.36001e-15 0)
(1 7.49684e-15 0)
(1 -2.01986e-16 0)
(1 -1.18851e-15 0)
(1 1.17255e-15 0)
(1 1.42893e-15 0)
(1 4.38e-15 0)
(1 -2.13125e-15 0)
(1 2.11286e-15 0)
(1 2.17643e-15 0)
(1 4.74251e-15 0)
(1 4.65725e-15 0)
(1 3.16656e-15 0)
(1 1.0754e-15 0)
(1 2.32702e-15 0)
(1 5.21405e-16 0)
(1 1.30063e-15 0)
(1 1.05903e-15 0)
(1 7.93211e-15 0)
(1 5.90618e-15 0)
(1 1.09199e-14 0)
(1 1.18338e-14 0)
(1 8.19641e-15 0)
(1 1.03825e-14 0)
(1 5.91148e-15 0)
(1 1.12238e-14 0)
(1 -2.52952e-15 0)
(1 -2.32789e-15 0)
(1 -4.49059e-15 0)
(1 -5.15075e-15 0)
(1 -2.33052e-15 0)
(1 5.59527e-16 0)
(1 1.57388e-15 0)
(1 3.34914e-15 0)
(1 -5.71061e-15 0)
(1 -1.09547e-15 0)
(1 1.5784e-16 0)
(1 2.91606e-15 0)
(1 6.18185e-15 0)
(1 1.27345e-14 0)
(1 7.68653e-16 0)
(1 -1.31092e-16 0)
(1 5.88065e-16 0)
(1 1.05235e-14 0)
(1 -7.27987e-15 0)
(1 -2.76078e-15 0)
(1 -2.88697e-15 0)
(1 7.39008e-15 0)
(1 9.54894e-15 0)
(1 1.42448e-14 0)
(1 -4.38694e-16 0)
(1 2.96407e-15 0)
(1 -1.92945e-15 0)
(1 -7.07624e-15 0)
(1 -2.71399e-15 0)
(1 2.32989e-16 0)
(1 -7.23821e-15 0)
(1 -6.99313e-15 0)
(1 -8.38398e-15 0)
(1 -6.65634e-15 0)
(1 -4.75773e-16 0)
(1 8.56912e-15 0)
(1 7.2031e-15 0)
(1 2.40863e-15 0)
(1 2.78525e-16 0)
(1 5.48615e-15 0)
(1 -6.93183e-15 0)
(1 -3.4311e-15 0)
(1 3.57763e-16 0)
(1 5.65235e-15 0)
(1 1.0361e-14 0)
(1 7.24873e-15 0)
(1 6.61789e-15 0)
(1 2.62475e-15 0)
(1 4.23999e-15 0)
(1 2.83951e-16 0)
(1 5.15612e-16 0)
(1 8.76004e-15 0)
(1 1.21551e-14 0)
(1 -1.5392e-15 0)
(1 4.02909e-15 0)
(1 -9.54857e-16 0)
(1 3.49867e-15 0)
(1 -2.53449e-15 0)
(1 4.72464e-15 0)
(1 1.74502e-15 0)
(1 3.8773e-15 0)
(1 5.78716e-16 0)
(1 7.12671e-16 0)
(1 4.56963e-16 0)
(1 -2.26545e-15 0)
(1 2.93753e-15 0)
(1 9.46249e-15 0)
(1 1.36369e-14 0)
(1 1.83343e-14 0)
(1 1.31828e-14 0)
(1 9.92833e-15 0)
(1 1.10905e-14 0)
(1 7.83895e-15 0)
(1 5.77513e-16 0)
(1 -8.04004e-16 0)
(1 -1.27368e-15 0)
(1 -2.17522e-15 0)
(1 2.67028e-16 0)
(1 4.97269e-15 0)
(1 3.72586e-15 0)
(1 5.64131e-15 0)
(1 7.6752e-15 0)
(1 2.64854e-15 0)
(1 1.40367e-15 0)
(1 -2.14455e-15 0)
(1 -2.04755e-15 0)
(1 -4.11975e-16 0)
(1 -3.83581e-15 0)
(1 3.42184e-15 0)
(1 1.31712e-15 0)
(1 2.00854e-15 0)
(1 4.88459e-16 0)
(1 5.98929e-15 0)
(1 8.75703e-15 0)
(1 1.60446e-14 0)
(1 1.84372e-14 0)
(1 2.22473e-14 0)
(1 2.02787e-14 0)
(1 1.85501e-14 0)
(1 1.91965e-14 0)
(1 -1.31724e-16 0)
(1 1.81779e-15 0)
(1 4.23795e-15 0)
(1 4.46512e-15 0)
(1 -6.00957e-15 0)
(1 -1.28346e-15 0)
(1 2.08323e-15 0)
(1 4.64337e-16 0)
(1 7.30768e-16 0)
(1 -3.15608e-15 0)
(1 -2.04826e-15 0)
(1 -2.99588e-15 0)
(1 2.6713e-15 0)
(1 -5.08684e-15 0)
(1 9.08367e-15 0)
(1 1.1681e-15 0)
(1 1.72977e-15 0)
(1 5.40709e-15 0)
(1 6.05442e-15 0)
(1 -8.79425e-16 0)
(1 -5.16692e-15 0)
(1 -1.17197e-14 0)
(1 2.74171e-15 0)
(1 1.0708e-14 0)
(1 7.85459e-15 0)
(1 7.07566e-15 0)
(1 4.90156e-15 0)
(1 3.25426e-15 0)
(1 -3.81429e-15 0)
(1 -9.07682e-15 0)
(1 -6.00349e-16 0)
(1 1.2499e-15 0)
(1 7.32152e-15 0)
(1 -1.64424e-15 0)
(1 -3.32438e-15 0)
(1 -3.14844e-15 0)
(1 -1.40083e-15 0)
(1 -1.9275e-15 0)
(1 -8.58647e-15 0)
(1 4.40578e-15 0)
(1 8.47321e-16 0)
(1 6.97004e-15 0)
(1 4.87689e-15 0)
(1 5.27412e-15 0)
(1 1.05658e-14 0)
(1 1.7017e-15 0)
(1 1.68271e-15 0)
(1 -1.03071e-15 0)
(1 2.08085e-15 0)
(1 4.65288e-15 0)
(1 3.20495e-15 0)
(1 3.85432e-15 0)
(1 3.37182e-15 0)
(1 3.93998e-15 0)
(1 2.93978e-15 0)
(1 7.45221e-15 0)
(1 3.44898e-15 0)
(1 5.2087e-15 0)
(1 2.46414e-15 0)
(1 3.53477e-15 0)
(1 2.24247e-15 0)
(1 1.83318e-15 0)
(1 4.52185e-15 0)
(1 4.69895e-15 0)
(1 3.85659e-15 0)
(1 2.56553e-15 0)
(1 1.30648e-14 0)
(1 1.35541e-14 0)
(1 1.68935e-14 0)
(1 1.26667e-14 0)
(1 7.65445e-15 0)
(1 5.72349e-15 0)
(1 4.79701e-15 0)
(1 1.46053e-15 0)
(1 -1.43301e-15 0)
(1 2.11509e-15 0)
(1 5.88644e-15 0)
(1 3.98727e-15 0)
(1 5.48997e-15 0)
(1 9.82106e-16 0)
(1 5.03473e-15 0)
(1 -7.14199e-16 0)
(1 5.92791e-16 0)
(1 2.25358e-15 0)
(1 -2.7411e-15 0)
(1 4.73487e-15 0)
(1 5.79779e-15 0)
(1 -4.49147e-16 0)
(1 4.67198e-15 0)
(1 1.70323e-15 0)
(1 7.83536e-15 0)
(1 4.71767e-15 0)
(1 6.18208e-15 0)
(1 7.16326e-15 0)
(1 1.23628e-14 0)
(1 1.29083e-14 0)
(1 2.26738e-14 0)
(1 1.73029e-14 0)
(1 2.53237e-14 0)
(1 2.33993e-14 0)
(1 5.82569e-16 0)
(1 -2.02741e-16 0)
(1 2.28973e-15 0)
(1 1.13527e-15 0)
(1 -5.9444e-15 0)
(1 -6.05262e-15 0)
(1 -1.20595e-16 0)
(1 -4.86073e-15 0)
(1 8.5526e-16 0)
(1 4.61271e-16 0)
(1 -1.80829e-15 0)
(1 -1.68279e-15 0)
(1 -6.79897e-15 0)
(1 -4.21218e-15 0)
(1 1.20322e-14 0)
(1 1.12871e-14 0)
(1 1.16598e-14 0)
(1 2.8307e-15 0)
(1 1.89915e-14 0)
(1 3.97199e-15 0)
(1 1.54062e-15 0)
(1 -1.06054e-14 0)
(1 -8.40498e-15 0)
(1 -1.10446e-14 0)
(1 -4.26261e-15 0)
(1 -9.56425e-15 0)
(1 1.64898e-15 0)
(1 6.11638e-15 0)
(1 -3.45634e-15 0)
(1 -7.92791e-15 0)
(1 3.71599e-15 0)
(1 8.54883e-17 0)
(1 4.59648e-15 0)
(1 3.16488e-15 0)
(1 1.5586e-16 0)
(1 -3.55098e-15 0)
(1 -4.34706e-15 0)
(1 -1.26665e-15 0)
(1 -7.51059e-15 0)
(1 2.20931e-15 0)
(1 -1.44869e-15 0)
(1 7.55095e-16 0)
(1 4.05623e-15 0)
(1 6.23054e-15 0)
(1 5.70665e-15 0)
(1 4.86782e-15 0)
(1 8.37919e-15 0)
(1 4.05368e-15 0)
(1 6.28586e-15 0)
(1 4.45567e-15 0)
(1 9.74298e-15 0)
(1 5.77319e-16 0)
(1 1.47372e-15 0)
(1 1.00023e-14 0)
(1 5.30174e-15 0)
(1 1.78014e-16 0)
(1 -1.07808e-15 0)
(1 2.50284e-15 0)
(1 2.79742e-15 0)
(1 1.00144e-15 0)
(1 7.81287e-15 0)
(1 5.56753e-15 0)
(1 2.55132e-15 0)
(1 3.63264e-15 0)
(1 8.02394e-15 0)
(1 9.32463e-15 0)
(1 8.48778e-15 0)
(1 4.3243e-15 0)
(1 2.10539e-15 0)
(1 1.04224e-14 0)
(1 2.00214e-14 0)
(1 1.15124e-14 0)
(1 7.67498e-15 0)
(1 8.44959e-16 0)
(1 -9.43897e-16 0)
(1 1.31388e-15 0)
(1 9.88993e-15 0)
(1 1.28927e-14 0)
(1 7.11266e-15 0)
(1 3.43416e-15 0)
(1 -1.02005e-16 0)
(1 2.41305e-15 0)
(1 4.56662e-15 0)
(1 5.66233e-15 0)
(1 -1.34639e-15 0)
(1 -2.73998e-15 0)
(1 -3.51799e-15 0)
(1 7.76497e-16 0)
(1 9.82881e-16 0)
(1 1.94171e-16 0)
(1 5.32659e-15 0)
(1 5.6953e-15 0)
(1 1.10978e-14 0)
(1 7.5355e-15 0)
(1 1.57288e-14 0)
(1 7.15941e-15 0)
(1 1.1984e-14 0)
(1 1.06701e-14 0)
(1 2.09764e-14 0)
(1 1.86087e-14 0)
(1 2.30266e-15 0)
(1 -4.60624e-15 0)
(1 2.70702e-15 0)
(1 3.74908e-17 0)
(1 -6.308e-16 0)
(1 -2.28306e-15 0)
(1 -2.38914e-15 0)
(1 -2.23486e-15 0)
(1 -7.56146e-15 0)
(1 2.74389e-15 0)
(1 5.07818e-15 0)
(1 5.65518e-15 0)
(1 -1.51879e-15 0)
(1 5.9097e-15 0)
(1 -3.28863e-15 0)
(1 -4.12172e-15 0)
(1 3.56772e-15 0)
(1 -1.79117e-15 0)
(1 8.81701e-15 0)
(1 -7.20222e-15 0)
(1 4.99393e-15 0)
(1 8.55278e-15 0)
(1 4.41229e-15 0)
(1 -1.52796e-15 0)
(1 3.38353e-15 0)
(1 5.3333e-15 0)
(1 3.45741e-15 0)
(1 3.46555e-16 0)
(1 2.03551e-15 0)
(1 -1.01308e-15 0)
(1 -5.82654e-15 0)
(1 -1.73006e-15 0)
(1 -5.82904e-15 0)
(1 4.20667e-15 0)
(1 -9.02645e-16 0)
(1 -5.5245e-16 0)
(1 -3.65604e-15 0)
(1 -5.53397e-15 0)
(1 -4.12754e-15 0)
(1 -5.80392e-15 0)
(1 1.86454e-15 0)
(1 5.67426e-15 0)
(1 8.30653e-15 0)
(1 5.9708e-15 0)
(1 1.41171e-15 0)
(1 6.46397e-15 0)
(1 1.13575e-14 0)
(1 8.28062e-15 0)
(1 5.30058e-15 0)
(1 -1.36354e-15 0)
(1 4.3269e-15 0)
(1 1.02071e-15 0)
(1 -2.23113e-15 0)
(1 8.24217e-15 0)
(1 7.12174e-15 0)
(1 2.27582e-15 0)
(1 -3.79987e-15 0)
(1 2.54247e-15 0)
(1 7.71721e-15 0)
(1 6.04022e-15 0)
(1 3.62659e-15 0)
(1 2.58472e-15 0)
(1 8.13158e-16 0)
(1 -9.08996e-16 0)
(1 1.21328e-14 0)
(1 7.5517e-15 0)
(1 3.06997e-15 0)
(1 4.76306e-15 0)
(1 1.7032e-15 0)
(1 1.07074e-14 0)
(1 1.66949e-14 0)
(1 1.75561e-14 0)
(1 1.2892e-15 0)
(1 6.26054e-16 0)
(1 1.37311e-15 0)
(1 1.10496e-15 0)
(1 -1.39357e-15 0)
(1 4.99192e-15 0)
(1 2.48673e-15 0)
(1 8.68323e-15 0)
(1 6.84558e-15 0)
(1 1.5349e-14 0)
(1 6.41558e-15 0)
(1 1.33051e-15 0)
(1 4.70884e-15 0)
(1 -3.1503e-15 0)
(1 -4.75766e-15 0)
(1 4.84364e-15 0)
(1 3.23027e-15 0)
(1 3.67199e-15 0)
(1 -2.40513e-15 0)
(1 8.66292e-16 0)
(1 9.53459e-15 0)
(1 1.14192e-14 0)
(1 1.13991e-14 0)
(1 1.24819e-14 0)
(1 1.1464e-14 0)
(1 1.4068e-14 0)
(1 1.46097e-14 0)
(1 1.34245e-14 0)
(1 1.99052e-15 0)
(1 1.39153e-16 0)
(1 -4.34843e-15 0)
(1 -1.80378e-15 0)
(1 -7.4424e-16 0)
(1 -2.04137e-16 0)
(1 -4.94752e-15 0)
(1 1.77131e-15 0)
(1 -5.69738e-15 0)
(1 3.62539e-15 0)
(1 -1.06697e-15 0)
(1 1.74972e-14 0)
(1 6.6252e-15 0)
(1 -1.90075e-15 0)
(1 -1.0211e-14 0)
(1 -2.99301e-15 0)
(1 -5.1049e-15 0)
(1 1.53706e-14 0)
(1 1.23627e-14 0)
(1 1.7903e-14 0)
(1 3.40234e-15 0)
(1 -9.39853e-15 0)
(1 -2.37175e-14 0)
(1 -1.34616e-14 0)
(1 -1.0457e-14 0)
(1 1.77237e-15 0)
(1 3.20429e-15 0)
(1 4.58351e-15 0)
(1 8.27232e-15 0)
(1 1.48254e-15 0)
(1 -6.19705e-15 0)
(1 2.37019e-16 0)
(1 -1.65525e-15 0)
(1 -3.11149e-17 0)
(1 -2.45356e-15 0)
(1 -1.71268e-15 0)
(1 -4.86511e-15 0)
(1 -6.49374e-15 0)
(1 1.19864e-15 0)
(1 -9.451e-16 0)
(1 3.34727e-15 0)
(1 2.94185e-15 0)
(1 3.60703e-16 0)
(1 -1.12e-15 0)
(1 5.76643e-15 0)
(1 1.60988e-14 0)
(1 7.35972e-15 0)
(1 1.61894e-14 0)
(1 8.08225e-15 0)
(1 1.19266e-14 0)
(1 -3.12162e-15 0)
(1 -1.53288e-16 0)
(1 6.41218e-18 0)
(1 5.53916e-15 0)
(1 3.49593e-15 0)
(1 2.90398e-15 0)
(1 -6.94118e-15 0)
(1 -2.60839e-15 0)
(1 -3.44794e-15 0)
(1 -2.27085e-15 0)
(1 -4.33898e-15 0)
(1 5.40419e-15 0)
(1 8.9326e-15 0)
(1 1.15169e-14 0)
(1 1.20761e-14 0)
(1 7.17219e-15 0)
(1 6.71006e-15 0)
(1 6.45975e-15 0)
(1 3.78367e-15 0)
(1 8.03922e-16 0)
(1 -3.03704e-15 0)
(1 5.92349e-15 0)
(1 9.17456e-16 0)
(1 9.46588e-15 0)
(1 1.05936e-14 0)
(1 5.10759e-15 0)
(1 -1.74312e-15 0)
(1 -2.0823e-15 0)
(1 -8.72344e-16 0)
(1 6.07831e-15 0)
(1 6.90324e-15 0)
(1 1.09016e-14 0)
(1 4.35938e-15 0)
(1 6.18315e-15 0)
(1 6.07109e-15 0)
(1 5.34254e-15 0)
(1 2.44714e-15 0)
(1 5.90354e-15 0)
(1 3.81379e-15 0)
(1 3.85683e-15 0)
(1 -9.85757e-16 0)
(1 1.80205e-15 0)
(1 4.64099e-16 0)
(1 3.72758e-15 0)
(1 2.68167e-15 0)
(1 1.06162e-14 0)
(1 1.08776e-14 0)
(1 1.31924e-14 0)
(1 7.05819e-15 0)
(1 7.12375e-15 0)
(1 -9.62681e-16 0)
(1 3.70001e-15 0)
(1 -3.63335e-15 0)
(1 -5.84229e-15 0)
(1 1.47975e-15 0)
(1 -5.62717e-15 0)
(1 -7.94675e-15 0)
(1 5.21095e-15 0)
(1 1.30093e-14 0)
(1 1.00002e-14 0)
(1 2.40182e-15 0)
(1 1.07524e-15 0)
(1 -6.55605e-15 0)
(1 -4.07971e-15 0)
(1 -1.27601e-15 0)
(1 2.79501e-15 0)
(1 -2.89817e-15 0)
(1 4.80985e-15 0)
(1 -4.4581e-15 0)
(1 1.13693e-14 0)
(1 -2.92414e-15 0)
(1 2.75475e-15 0)
(1 -1.26065e-14 0)
(1 -6.68301e-15 0)
(1 1.93837e-15 0)
(1 -1.61468e-15 0)
(1 1.8466e-16 0)
(1 1.19294e-15 0)
(1 -8.97329e-16 0)
(1 -1.46682e-15 0)
(1 4.64756e-15 0)
(1 -4.56432e-15 0)
(1 -4.17454e-15 0)
(1 -6.95925e-15 0)
(1 -3.23924e-15 0)
(1 5.14016e-15 0)
(1 -1.21235e-15 0)
(1 4.23305e-18 0)
(1 3.64842e-15 0)
(1 -7.00427e-15 0)
(1 -5.04827e-15 0)
(1 8.08857e-16 0)
(1 7.63506e-15 0)
(1 9.27372e-15 0)
(1 1.43171e-14 0)
(1 1.03459e-14 0)
(1 2.8747e-15 0)
(1 4.30587e-15 0)
(1 3.29025e-15 0)
(1 6.07642e-15 0)
(1 -3.75075e-16 0)
(1 3.9763e-15 0)
(1 4.67536e-15 0)
(1 -1.70461e-15 0)
(1 1.74899e-15 0)
(1 1.15249e-14 0)
(1 6.02534e-15 0)
(1 3.70399e-15 0)
(1 -2.00463e-15 0)
(1 -1.33015e-15 0)
(1 3.85817e-16 0)
(1 1.54618e-15 0)
(1 4.87515e-16 0)
(1 1.16265e-14 0)
(1 -4.29461e-15 0)
(1 1.02028e-14 0)
(1 1.43718e-14 0)
(1 9.66143e-15 0)
(1 6.3057e-15 0)
(1 3.7808e-15 0)
(1 -7.34127e-16 0)
(1 -4.77222e-15 0)
(1 3.21944e-15 0)
(1 1.38681e-14 0)
(1 1.05835e-14 0)
(1 1.07978e-14 0)
(1 1.1555e-14 0)
(1 1.13635e-14 0)
(1 4.06516e-15 0)
(1 7.01201e-15 0)
(1 5.26665e-15 0)
(1 6.23245e-15 0)
(1 2.24867e-15 0)
(1 5.19582e-15 0)
(1 6.49026e-15 0)
(1 7.5338e-15 0)
(1 4.66237e-15 0)
(1 4.87413e-15 0)
(1 4.57777e-15 0)
(1 4.56587e-15 0)
(1 1.1387e-15 0)
(1 2.37212e-15 0)
(1 2.1283e-15 0)
(1 3.97499e-15 0)
(1 3.59306e-15 0)
(1 8.32576e-15 0)
(1 1.48947e-14 0)
(1 1.40429e-14 0)
(1 6.52687e-15 0)
(1 5.62759e-15 0)
(1 6.0242e-16 0)
(1 -5.713e-16 0)
(1 3.26557e-15 0)
(1 -1.02268e-14 0)
(1 8.11416e-15 0)
(1 -3.53787e-15 0)
(1 -1.16768e-14 0)
(1 -1.16748e-14 0)
(1 8.57508e-15 0)
(1 -4.01098e-16 0)
(1 1.29128e-14 0)
(1 -3.83582e-15 0)
(1 2.87387e-15 0)
(1 2.25115e-15 0)
(1 6.73917e-16 0)
(1 -3.54537e-15 0)
(1 -2.08869e-15 0)
(1 -1.35524e-14 0)
(1 -8.65577e-15 0)
(1 -4.81748e-15 0)
(1 -5.93548e-15 0)
(1 8.59134e-15 0)
(1 1.36352e-14 0)
(1 8.38586e-15 0)
(1 1.42996e-14 0)
(1 7.09982e-15 0)
(1 2.20659e-15 0)
(1 -1.60677e-15 0)
(1 -6.04592e-15 0)
(1 -8.0494e-15 0)
(1 -2.41969e-15 0)
(1 -4.38827e-15 0)
(1 6.38853e-16 0)
(1 -8.54363e-15 0)
(1 -3.80435e-15 0)
(1 -2.41109e-15 0)
(1 1.65443e-15 0)
(1 1.06e-14 0)
(1 1.8524e-15 0)
(1 -8.18211e-15 0)
(1 -4.59992e-15 0)
(1 8.50754e-15 0)
(1 1.01105e-14 0)
(1 1.26738e-14 0)
(1 6.6308e-15 0)
(1 -6.38002e-17 0)
(1 1.12026e-15 0)
(1 -6.15342e-15 0)
(1 -6.67309e-15 0)
(1 2.63808e-15 0)
(1 7.64036e-15 0)
(1 1.4129e-14 0)
(1 8.09168e-15 0)
(1 5.95931e-15 0)
(1 6.54432e-15 0)
(1 5.32442e-15 0)
(1 6.57895e-15 0)
(1 4.282e-15 0)
(1 1.24939e-15 0)
(1 3.96421e-15 0)
(1 5.56117e-16 0)
(1 -2.82431e-15 0)
(1 2.56625e-15 0)
(1 4.48455e-16 0)
(1 3.18893e-15 0)
(1 4.61175e-15 0)
(1 1.09366e-14 0)
(1 1.31382e-14 0)
(1 1.47562e-14 0)
(1 9.43525e-15 0)
(1 8.07453e-15 0)
(1 2.23674e-15 0)
(1 5.27573e-15 0)
(1 4.51611e-15 0)
(1 7.37473e-15 0)
(1 1.35081e-14 0)
(1 1.21108e-14 0)
(1 5.64745e-15 0)
(1 6.40007e-15 0)
(1 6.50122e-15 0)
(1 1.18039e-14 0)
(1 1.45581e-15 0)
(1 2.67743e-15 0)
(1 -2.82243e-15 0)
(1 2.44577e-15 0)
(1 1.08502e-15 0)
(1 3.84022e-15 0)
(1 1.94882e-15 0)
(1 -4.67566e-16 0)
(1 1.38476e-15 0)
(1 1.07944e-15 0)
(1 1.83014e-15 0)
(1 4.92053e-15 0)
(1 1.24295e-14 0)
(1 1.18097e-14 0)
(1 5.83083e-15 0)
(1 4.92279e-15 0)
(1 1.01174e-14 0)
(1 1.00468e-14 0)
(1 8.8186e-15 0)
(1 -2.73912e-15 0)
(1 -2.20113e-15 0)
(1 -1.99699e-15 0)
(1 -2.95821e-15 0)
(1 6.03124e-15 0)
(1 5.06176e-15 0)
(1 1.1803e-14 0)
(1 5.04319e-15 0)
(1 2.68465e-16 0)
(1 -1.06666e-14 0)
(1 -2.00326e-15 0)
(1 -8.3496e-15 0)
(1 5.0228e-16 0)
(1 -6.46086e-16 0)
(1 -2.98409e-15 0)
(1 -4.76554e-15 0)
(1 -1.27378e-16 0)
(1 3.35695e-15 0)
(1 -6.34578e-15 0)
(1 2.23111e-16 0)
(1 1.27014e-15 0)
(1 4.4774e-15 0)
(1 6.45134e-15 0)
(1 -1.04735e-14 0)
(1 -8.07022e-15 0)
(1 -1.17152e-15 0)
(1 -7.00961e-16 0)
(1 -4.91849e-15 0)
(1 -1.27935e-15 0)
(1 -2.94866e-15 0)
(1 -3.31568e-16 0)
(1 -9.80076e-16 0)
(1 2.27225e-15 0)
(1 4.8874e-15 0)
(1 2.22555e-15 0)
(1 -3.22455e-15 0)
(1 3.47138e-15 0)
(1 4.88538e-15 0)
(1 -4.93826e-15 0)
(1 -3.55274e-15 0)
(1 2.25423e-15 0)
(1 5.73894e-15 0)
(1 2.89054e-15 0)
(1 6.50435e-15 0)
(1 -3.73406e-16 0)
(1 -6.78027e-15 0)
(1 4.50595e-15 0)
(1 -1.23433e-15 0)
(1 7.03302e-16 0)
(1 6.58222e-15 0)
(1 1.27124e-14 0)
(1 1.17016e-14 0)
(1 8.45636e-15 0)
(1 2.1173e-15 0)
(1 4.14399e-15 0)
(1 -6.37604e-15 0)
(1 3.5958e-15 0)
(1 1.94964e-15 0)
(1 2.58949e-15 0)
(1 3.97152e-15 0)
(1 -4.81772e-15 0)
(1 5.72616e-16 0)
(1 3.9081e-16 0)
(1 8.59521e-16 0)
(1 5.00823e-15 0)
(1 -5.22988e-15 0)
(1 -2.61743e-15 0)
(1 2.78061e-15 0)
(1 9.79567e-15 0)
(1 7.49415e-15 0)
(1 6.44577e-15 0)
(1 3.89773e-15 0)
(1 1.12239e-14 0)
(1 9.5742e-15 0)
(1 9.56417e-15 0)
(1 4.45424e-15 0)
(1 6.62425e-15 0)
(1 2.40855e-15 0)
(1 1.52366e-14 0)
(1 1.09018e-14 0)
(1 3.99963e-15 0)
(1 2.32373e-15 0)
(1 7.5928e-15 0)
(1 5.17237e-15 0)
(1 5.97434e-15 0)
(1 4.2286e-16 0)
(1 -2.67356e-15 0)
(1 -4.00918e-15 0)
(1 -2.07215e-15 0)
(1 -2.67229e-15 0)
(1 3.43493e-15 0)
(1 3.38868e-15 0)
(1 1.18886e-14 0)
(1 9.86742e-15 0)
(1 1.03589e-14 0)
(1 9.16131e-15 0)
(1 1.33113e-15 0)