/*--------------------------------*- C++ -*----------------------------------*\
| =========                 |                                                 |
| \\      /  F ield         | OpenFOAM: The Open Source CFD Toolbox           |
|  \\    /   O peration     | Version:  v2012                                 |
|   \\  /    A nd           | Website:  www.openfoam.com                      |
|    \\/     M anipulation  |                                                 |
\*---------------------------------------------------------------------------*/
FoamFile
{
    version     2.0;
    format      ascii;
    class       surfaceScalarField;
    location    "3.5";
    object      phi;
}
// * * * * * * * * * * * * * * * * * * * * * * * * * * * * * * * * * * * * * //

dimensions      [0 3 -1 0 0 0 0];
oriented        oriented;


internalField   nonuniform List<scalar> 
130560
(
3.55856e-06
-3.55856e-06
7.11691e-06
-3.55836e-06
1.06749e-05
-3.55796e-06
1.42322e-05
-3.55735e-06
1.77888e-05
-3.55655e-06
2.13443e-05
-3.55554e-06
2.48986e-05
-3.55432e-06
2.84515e-05
-3.55289e-06
3.20028e-05
-3.55124e-06
3.55521e-05
-3.54937e-06
3.90994e-05
-3.54728e-06
4.26444e-05
-3.54496e-06
4.61868e-05
-3.54239e-06
4.97264e-05
-3.53958e-06
5.32629e-05
-3.53652e-06
5.67961e-05
-3.5332e-06
6.03257e-05
-3.52961e-06
6.38514e-05
-3.52574e-06
6.7373e-05
-3.52159e-06
7.08901e-05
-3.51713e-06
7.44025e-05
-3.51237e-06
7.79098e-05
-3.50729e-06
8.14117e-05
-3.50189e-06
8.49078e-05
-3.49614e-06
8.83979e-05
-3.49003e-06
9.18814e-05
-3.48357e-06
9.53581e-05
-3.47672e-06
9.88276e-05
-3.46948e-06
0.000102289
-3.46183e-06
0.000105743
-3.45377e-06
0.000109189
-3.44527e-06
0.000112625
-3.43633e-06
0.000116052
-3.42692e-06
0.000119469
-3.41703e-06
0.000122875
-3.40666e-06
0.000126271
-3.39577e-06
0.000129656
-3.38437e-06
0.000133028
-3.37242e-06
0.000136388
-3.35993e-06
0.000139735
-3.34686e-06
0.000143068
-3.33321e-06
0.000146387
-3.31897e-06
0.000149691
-3.30411e-06
0.00015298
-3.28862e-06
0.000156252
-3.27248e-06
0.000159508
-3.25569e-06
0.000162746
-3.23822e-06
0.000165966
-3.22007e-06
0.000169167
-3.20121e-06
0.000172349
-3.18164e-06
0.00017551
-3.16135e-06
0.000178651
-3.14031e-06
0.000181769
-3.11852e-06
0.000184865
-3.09596e-06
0.000187938
-3.07263e-06
0.000190986
-3.04852e-06
0.00019401
-3.02361e-06
0.000197008
-2.99789e-06
0.000199979
-2.97136e-06
0.000202923
-2.94401e-06
0.000205839
-2.91583e-06
0.000208726
-2.88681e-06
0.000211583
-2.85696e-06
0.000214409
-2.82626e-06
0.000217204
-2.79472e-06
0.000219966
-2.76232e-06
0.000222695
-2.72907e-06
0.00022539
-2.69497e-06
0.00022805
-2.66002e-06
0.000230674
-2.62422e-06
0.000233262
-2.58757e-06
0.000235812
-2.55008e-06
0.000238324
-2.51175e-06
0.000240796
-2.47258e-06
0.000243229
-2.43259e-06
0.000245621
-2.39178e-06
0.000247971
-2.35016e-06
0.000250279
-2.30775e-06
0.000252543
-2.26454e-06
0.000254764
-2.22056e-06
0.00025694
-2.17582e-06
0.00025907
-2.13033e-06
0.000261154
-2.08411e-06
0.000263191
-2.03718e-06
0.000265181
-1.98955e-06
0.000267122
-1.94124e-06
0.000269014
-1.89227e-06
0.000270857
-1.84267e-06
0.000272649
-1.79245e-06
0.000274391
-1.74163e-06
0.000276081
-1.69025e-06
0.00027772
-1.63832e-06
0.000279305
-1.58586e-06
0.000280838
-1.53291e-06
0.000282318
-1.47949e-06
0.000283743
-1.42563e-06
0.000285115
-1.37134e-06
0.000286431
-1.31667e-06
0.000287693
-1.26164e-06
0.000288899
-1.20627e-06
0.00029005
-1.1506e-06
0.000291145
-1.09465e-06
0.000292183
-1.03846e-06
0.000293165
-9.82044e-07
0.000294091
-9.25441e-07
0.000294959
-8.6868e-07
0.000295771
-8.11787e-07
0.000296526
-7.54793e-07
0.000297224
-6.97727e-07
0.000297864
-6.40617e-07
0.000298448
-5.83492e-07
0.000298974
-5.26379e-07
0.000299443
-4.69307e-07
0.000299856
-4.12303e-07
0.000300211
-3.55393e-07
0.00030051
-2.98605e-07
0.000300752
-2.41965e-07
0.000300937
-1.85497e-07
0.000301066
-1.29226e-07
0.00030114
-7.31773e-08
0.000301157
-1.73734e-08
0.000301119
3.81626e-08
0.000301025
9.34086e-08
0.000300877
1.48343e-07
0.000300674
2.02946e-07
0.000300417
2.57197e-07
0.000300106
3.11076e-07
0.000299741
3.64567e-07
0.000299324
4.17651e-07
0.000298853
4.70311e-07
0.000298331
5.22531e-07
0.000297756
5.74297e-07
0.000297131
6.25594e-07
0.000296454
6.76409e-07
0.000295728
7.26728e-07
0.000294951
7.7654e-07
0.000294125
8.25833e-07
0.000293251
8.74597e-07
0.000292328
9.22823e-07
0.000291357
9.70501e-07
0.00029034
1.01762e-06
0.000289276
1.06418e-06
0.000288165
1.11017e-06
0.00028701
1.15558e-06
0.000285809
1.2004e-06
0.000284565
1.24464e-06
0.000283276
1.28829e-06
0.000281945
1.33134e-06
0.000280571
1.37379e-06
0.000279156
1.41564e-06
0.000277699
1.45688e-06
0.000276201
1.49752e-06
0.000274664
1.53755e-06
0.000273087
1.57697e-06
0.000271471
1.61578e-06
0.000269817
1.65398e-06
0.000268125
1.69156e-06
0.000266397
1.72854e-06
0.000264632
1.76491e-06
0.000262831
1.80068e-06
0.000260996
1.83583e-06
0.000259125
1.87038e-06
0.000257221
1.90433e-06
0.000255283
1.93768e-06
0.000253313
1.97043e-06
0.00025131
2.00259e-06
0.000249276
2.03415e-06
0.000247211
2.06512e-06
0.000245115
2.09551e-06
0.00024299
2.12531e-06
0.000240835
2.15454e-06
0.000238652
2.18318e-06
0.000236441
2.21126e-06
0.000234202
2.23877e-06
0.000231937
2.26572e-06
0.000229644
2.2921e-06
0.000227326
2.31794e-06
0.000224983
2.34322e-06
0.000222615
2.36795e-06
0.000220223
2.39215e-06
0.000217807
2.4158e-06
0.000215368
2.43893e-06
0.000212907
2.46153e-06
0.000210423
2.48361e-06
0.000207918
2.50517e-06
0.000205392
2.52623e-06
0.000202845
2.54678e-06
0.000200278
2.56682e-06
0.000197692
2.58638e-06
0.000195086
2.60544e-06
0.000192462
2.62403e-06
0.00018982
2.64213e-06
0.000187161
2.65977e-06
0.000184484
2.67694e-06
0.00018179
2.69365e-06
0.00017908
2.70991e-06
0.000176354
2.72572e-06
0.000173613
2.74109e-06
0.000170857
2.75603e-06
0.000168087
2.77054e-06
0.000165302
2.78463e-06
0.000162504
2.79831e-06
0.000159692
2.81158e-06
0.000156868
2.82444e-06
0.000154031
2.83691e-06
0.000151182
2.849e-06
0.000148321
2.8607e-06
0.000145449
2.87203e-06
0.000142566
2.88299e-06
0.000139672
2.8936e-06
0.000136769
2.90384e-06
0.000133855
2.91374e-06
0.000130932
2.9233e-06
0.000127999
2.93253e-06
0.000125058
2.94143e-06
0.000122108
2.95001e-06
0.000119149
2.95827e-06
0.000116183
2.96623e-06
0.000113209
2.97389e-06
0.000110228
2.98126e-06
0.00010724
2.98834e-06
0.000104244
2.99514e-06
0.000101243
3.00166e-06
9.82349e-05
3.00792e-06
9.5221e-05
3.01391e-06
9.22013e-05
3.01965e-06
8.91762e-05
3.02514e-06
8.61458e-05
3.03039e-06
8.31104e-05
3.0354e-06
8.00702e-05
3.04017e-06
7.70255e-05
3.04472e-06
7.39765e-05
3.04905e-06
7.09233e-05
3.05316e-06
6.78663e-05
3.05706e-06
6.48055e-05
3.06075e-06
6.17413e-05
3.06424e-06
5.86737e-05
3.06754e-06
5.56031e-05
3.07064e-06
5.25295e-05
3.07355e-06
4.94533e-05
3.07628e-06
4.63744e-05
3.07883e-06
4.32932e-05
3.0812e-06
4.02098e-05
3.08339e-06
3.71244e-05
3.08542e-06
3.40371e-05
3.08728e-06
3.09482e-05
3.08897e-06
2.78577e-05
3.0905e-06
2.47658e-05
3.09188e-06
2.16727e-05
3.09309e-06
1.85786e-05
3.09415e-06
1.54835e-05
3.09505e-06
1.23877e-05
3.0958e-06
9.2913e-06
3.0964e-06
6.19445e-06
3.09685e-06
3.0973e-06
3.09715e-06
3.0973e-06
3.55875e-06
-7.11731e-06
7.11731e-06
-7.11691e-06
1.06755e-05
-7.11611e-06
1.4233e-05
-7.11491e-06
1.77898e-05
-7.1133e-06
2.13455e-05
-7.11129e-06
2.49001e-05
-7.10885e-06
2.84532e-05
-7.10599e-06
3.20046e-05
-7.1027e-06
3.55542e-05
-7.09897e-06
3.91017e-05
-7.09479e-06
4.26469e-05
-7.09015e-06
4.61896e-05
-7.08503e-06
4.97294e-05
-7.07942e-06
5.32662e-05
-7.0733e-06
5.67996e-05
-7.06667e-06
6.03295e-05
-7.05949e-06
6.38555e-05
-7.05177e-06
6.73774e-05
-7.04347e-06
7.08949e-05
-7.03457e-06
7.44076e-05
-7.02506e-06
7.79152e-05
-7.01492e-06
8.14174e-05
-7.00411e-06
8.49139e-05
-6.99263e-06
8.84043e-05
-6.98043e-06
9.18882e-05
-6.96751e-06
9.53653e-05
-6.95383e-06
9.88352e-05
-6.93936e-06
0.000102297
-6.92409e-06
0.000105752
-6.90797e-06
0.000109197
-6.89099e-06
0.000112634
-6.87311e-06
0.000116062
-6.85431e-06
0.000119479
-6.83456e-06
0.000122886
-6.81382e-06
0.000126283
-6.79207e-06
0.000129667
-6.76927e-06
0.00013304
-6.7454e-06
0.000136401
-6.72042e-06
0.000139748
-6.69431e-06
0.000143082
-6.66703e-06
0.000146402
-6.63855e-06
0.000149707
-6.60884e-06
0.000152996
-6.57787e-06
0.000156269
-6.54562e-06
0.000159525
-6.51205e-06
0.000162764
-6.47713e-06
0.000165985
-6.44084e-06
0.000169187
-6.40314e-06
0.000172369
-6.36401e-06
0.000175531
-6.32343e-06
0.000178672
-6.28137e-06
0.000181792
-6.2378e-06
0.000184888
-6.1927e-06
0.000187962
-6.14605e-06
0.000191011
-6.09783e-06
0.000194036
-6.04802e-06
0.000197034
-5.99659e-06
0.000200006
-5.94354e-06
0.000202951
-5.88884e-06
0.000205868
-5.83249e-06
0.000208756
-5.77447e-06
0.000211613
-5.71476e-06
0.00021444
-5.65337e-06
0.000217236
-5.59028e-06
0.000219999
-5.52549e-06
0.000222729
-5.459e-06
0.000225425
-5.3908e-06
0.000228086
-5.3209e-06
0.000230711
-5.24929e-06
0.000233299
-5.17599e-06
0.00023585
-5.101e-06
0.000238363
-5.02433e-06
0.000240836
-4.946e-06
0.00024327
-4.866e-06
0.000245662
-4.78438e-06
0.000248013
-4.70113e-06
0.000250322
-4.61628e-06
0.000252587
-4.52986e-06
0.000254808
-4.44188e-06
0.000256985
-4.35238e-06
0.000259116
-4.26139e-06
0.000261201
-4.16893e-06
0.000263239
-4.07505e-06
0.000265229
-3.97977e-06
0.000267171
-3.88313e-06
0.000269064
-3.78518e-06
0.000270907
-3.68595e-06
0.0002727
-3.58548e-06
0.000274442
-3.48383e-06
0.000276133
-3.38104e-06
0.000277772
-3.27715e-06
0.000279358
-3.17222e-06
0.000280892
-3.0663e-06
0.000282372
-2.95943e-06
0.000283798
-2.85167e-06
0.000285169
-2.74308e-06
0.000286486
-2.63371e-06
0.000287748
-2.52361e-06
0.000288955
-2.41285e-06
0.000290106
-2.30148e-06
0.000291201
-2.18955e-06
0.000292239
-2.07713e-06
0.000293222
-1.96428e-06
0.000294147
-1.85104e-06
0.000295016
-1.73749e-06
0.000295828
-1.62368e-06
0.000296583
-1.50966e-06
0.000297281
-1.3955e-06
0.000297921
-1.28125e-06
0.000298505
-1.16697e-06
0.000299031
-1.05272e-06
0.0002995
-9.38547e-07
0.000299912
-8.24512e-07
0.000300268
-7.10667e-07
0.000300566
-5.97065e-07
0.000300808
-4.83758e-07
0.000300993
-3.70798e-07
0.000301122
-2.58232e-07
0.000301195
-1.46111e-07
0.000301212
-3.44803e-08
0.000301174
7.66137e-08
0.00030108
1.87127e-07
0.000300931
2.97017e-07
0.000300728
4.06242e-07
0.000300471
5.14763e-07
0.000300159
6.2254e-07
0.000299794
7.29539e-07
0.000299376
8.35723e-07
0.000298905
9.41059e-07
0.000298382
1.04552e-06
0.000297808
1.14906e-06
0.000297182
1.25167e-06
0.000296505
1.35331e-06
0.000295777
1.45396e-06
0.000295
1.5536e-06
0.000294174
1.65219e-06
0.000293299
1.74973e-06
0.000292375
1.84619e-06
0.000291404
1.94156e-06
0.000290386
2.03581e-06
0.000289322
2.12893e-06
0.000288211
2.22091e-06
0.000287055
2.31174e-06
0.000285854
2.40139e-06
0.000284608
2.48988e-06
0.00028332
2.57718e-06
0.000281988
2.66328e-06
0.000280613
2.74819e-06
0.000279197
2.83189e-06
0.000277739
2.91437e-06
0.000276241
2.99565e-06
0.000274703
3.07571e-06
0.000273126
3.15454e-06
0.000271509
3.23216e-06
0.000269855
3.30856e-06
0.000268162
3.38374e-06
0.000266433
3.45769e-06
0.000264668
3.53043e-06
0.000262866
3.60195e-06
0.00026103
3.67227e-06
0.000259159
3.74137e-06
0.000257254
3.80926e-06
0.000255316
3.87596e-06
0.000253345
3.94145e-06
0.000251342
4.00576e-06
0.000249307
4.06888e-06
0.000247241
4.13083e-06
0.000245145
4.1916e-06
0.000243019
4.2512e-06
0.000240864
4.30965e-06
0.00023868
4.36694e-06
0.000236469
4.42309e-06
0.000234229
4.4781e-06
0.000231963
4.53199e-06
0.00022967
4.58476e-06
0.000227352
4.63642e-06
0.000225008
4.68698e-06
0.00022264
4.73644e-06
0.000220247
4.78483e-06
0.000217831
4.83214e-06
0.000215391
4.87839e-06
0.000212929
4.92358e-06
0.000210445
4.96774e-06
0.000207939
5.01086e-06
0.000205412
5.05296e-06
0.000202865
5.09405e-06
0.000200298
5.13414e-06
0.000197711
5.17324e-06
0.000195105
5.21137e-06
0.000192481
5.24853e-06
0.000189838
5.28473e-06
0.000187178
5.32e-06
0.0001845
5.35433e-06
0.000181806
5.38775e-06
0.000179096
5.42026e-06
0.00017637
5.45188e-06
0.000173628
5.48262e-06
0.000170872
5.51249e-06
0.000168101
5.5415e-06
0.000165316
5.56968e-06
0.000162517
5.59702e-06
0.000159705
5.62355e-06
0.00015688
5.64928e-06
0.000154043
5.67422e-06
0.000151194
5.69838e-06
0.000148332
5.72178e-06
0.00014546
5.74443e-06
0.000142577
5.76635e-06
0.000139683
5.78755e-06
0.000136779
5.80803e-06
0.000133864
5.82783e-06
0.000130941
5.84694e-06
0.000128008
5.86539e-06
0.000125066
5.88318e-06
0.000122116
5.90033e-06
0.000119157
5.91686e-06
0.000116191
5.93277e-06
0.000113217
5.94808e-06
0.000110235
5.96281e-06
0.000107246
5.97696e-06
0.000104251
5.99055e-06
0.000101249
6.00359e-06
9.82409e-05
6.0161e-06
9.52268e-05
6.02808e-06
9.22069e-05
6.03956e-06
8.91815e-05
6.05053e-06
8.61508e-05
6.06102e-06
8.31152e-05
6.07103e-06
8.00748e-05
6.08057e-06
7.70299e-05
6.08966e-06
7.39806e-05
6.09831e-06
7.09272e-05
6.10653e-06
6.787e-05
6.11432e-06
6.4809e-05
6.1217e-06
6.17446e-05
6.12868e-06
5.86769e-05
6.13527e-06
5.5606e-05
6.14147e-06
5.25323e-05
6.14729e-06
4.94558e-05
6.15274e-06
4.63768e-05
6.15783e-06
4.32955e-05
6.16257e-06
4.02119e-05
6.16696e-06
3.71263e-05
6.17101e-06
3.40389e-05
6.17472e-06
3.09497e-05
6.17811e-06
2.78591e-05
6.18117e-06
2.4767e-05
6.18391e-06
2.16738e-05
6.18634e-06
1.85795e-05
6.18845e-06
1.54843e-05
6.19026e-06
1.23883e-05
6.19176e-06
9.29175e-06
6.19296e-06
6.19475e-06
6.19385e-06
3.09745e-06
6.19445e-06
6.19475e-06
3.55915e-06
-1.06765e-05
7.11811e-06
-1.06759e-05
1.06767e-05
-1.06747e-05
1.42346e-05
-1.06729e-05
1.77918e-05
-1.06705e-05
2.1348e-05
-1.06675e-05
2.49029e-05
-1.06638e-05
2.84565e-05
-1.06595e-05
3.20084e-05
-1.06546e-05
3.55584e-05
-1.0649e-05
3.91064e-05
-1.06428e-05
4.26521e-05
-1.06358e-05
4.61952e-05
-1.06282e-05
4.97355e-05
-1.06198e-05
5.32728e-05
-1.06106e-05
5.68068e-05
-1.06007e-05
6.03373e-05
-1.05899e-05
6.38639e-05
-1.05784e-05
6.73863e-05
-1.05659e-05
7.09044e-05
-1.05526e-05
7.44177e-05
-1.05384e-05
7.7926e-05
-1.05232e-05
8.14289e-05
-1.0507e-05
8.49261e-05
-1.04898e-05
8.84172e-05
-1.04716e-05
9.19019e-05
-1.04522e-05
9.53798e-05
-1.04317e-05
9.88505e-05
-1.04101e-05
0.000102314
-1.03872e-05
0.000105769
-1.0363e-05
0.000109215
-1.03376e-05
0.000112653
-1.03108e-05
0.000116081
-1.02827e-05
0.0001195
-1.02531e-05
0.000122908
-1.0222e-05
0.000126305
-1.01894e-05
0.000129691
-1.01553e-05
0.000133065
-1.01195e-05
0.000136427
-1.00821e-05
0.000139776
-1.00429e-05
0.000143111
-1.0002e-05
0.000146432
-9.95935e-06
0.000149737
-9.91483e-06
0.000153028
-9.86842e-06
0.000156303
-9.82007e-06
0.00015956
-9.76975e-06
0.0001628
-9.71741e-06
0.000166023
-9.66301e-06
0.000169226
-9.6065e-06
0.00017241
-9.54784e-06
0.000175573
-9.487e-06
0.000178716
-9.42394e-06
0.000181837
-9.35861e-06
0.000184935
-9.291e-06
0.00018801
-9.22105e-06
0.000191061
-9.14874e-06
0.000194087
-9.07404e-06
0.000197087
-8.99692e-06
0.000200061
-8.91736e-06
0.000203008
-8.83534e-06
0.000205926
-8.75082e-06
0.000208815
-8.6638e-06
0.000211675
-8.57426e-06
0.000214504
-8.48218e-06
0.000217301
-8.38755e-06
0.000220066
-8.29037e-06
0.000222797
-8.19063e-06
0.000225495
-8.08833e-06
0.000228157
-7.98347e-06
0.000230784
-7.87606e-06
0.000233374
-7.7661e-06
0.000235927
-7.6536e-06
0.000238441
-7.53858e-06
0.000240916
-7.42106e-06
0.000243351
-7.30105e-06
0.000245746
-7.17859e-06
0.000248098
-7.05369e-06
0.000250408
-6.92639e-06
0.000252675
-6.79672e-06
0.000254898
-6.66473e-06
0.000257076
-6.53044e-06
0.000259209
-6.39391e-06
0.000261295
-6.25519e-06
0.000263334
-6.11432e-06
0.000265326
-5.97135e-06
0.000267269
-5.82634e-06
0.000269163
-5.67936e-06
0.000271008
-5.53046e-06
0.000272802
-5.37971e-06
0.000274545
-5.22718e-06
0.000276237
-5.07293e-06
0.000277877
-4.91704e-06
0.000279464
-4.75957e-06
0.000280999
-4.60062e-06
0.000282479
-4.44025e-06
0.000283906
-4.27855e-06
0.000285279
-4.11559e-06
0.000286597
-3.95147e-06
0.000287859
-3.78625e-06
0.000289066
-3.62004e-06
0.000290218
-3.45291e-06
0.000291313
-3.28495e-06
0.000292352
-3.11624e-06
0.000293335
-2.94689e-06
0.000294261
-2.77696e-06
0.00029513
-2.60656e-06
0.000295942
-2.43577e-06
0.000296697
-2.26467e-06
0.000297395
-2.09336e-06
0.000298036
-1.92191e-06
0.000298619
-1.75043e-06
0.000299145
-1.57898e-06
0.000299614
-1.40765e-06
0.000300026
-1.23653e-06
0.000300381
-1.0657e-06
0.00030068
-8.95229e-07
0.000300921
-7.25205e-07
0.000301106
-5.55702e-07
0.000301234
-3.86794e-07
0.000301307
-2.18553e-07
0.000301323
-5.10503e-08
0.000301284
1.15646e-07
0.00030119
2.8147e-07
0.000301041
4.46356e-07
0.000300837
6.10243e-07
0.000300578
7.73072e-07
0.000300266
9.34784e-07
0.0002999
1.09533e-06
0.000299481
1.25464e-06
0.00029901
1.41269e-06
0.000298486
1.56941e-06
0.00029791
1.72477e-06
0.000297283
1.87871e-06
0.000296605
2.03121e-06
0.000295877
2.18221e-06
0.000295099
2.33169e-06
0.000294272
2.47961e-06
0.000293395
2.62595e-06
0.000292471
2.77066e-06
0.000291499
2.91372e-06
0.000290479
3.05512e-06
0.000289414
3.19482e-06
0.000288302
3.33281e-06
0.000287144
3.46906e-06
0.000285942
3.60356e-06
0.000284696
3.7363e-06
0.000283406
3.86726e-06
0.000282072
3.99642e-06
0.000280697
4.12379e-06
0.000279279
4.24934e-06
0.000277821
4.37308e-06
0.000276321
4.49499e-06
0.000274782
4.61508e-06
0.000273203
4.73334e-06
0.000271586
4.84977e-06
0.00026993
4.96436e-06
0.000268236
5.07713e-06
0.000266506
5.18806e-06
0.000264739
5.29717e-06
0.000262937
5.40445e-06
0.000261099
5.50991e-06
0.000259227
5.61356e-06
0.000257321
5.71539e-06
0.000255381
5.81543e-06
0.000253409
5.91367e-06
0.000251405
6.01012e-06
0.000249369
6.1048e-06
0.000247302
6.1977e-06
0.000245205
6.28885e-06
0.000243078
6.37825e-06
0.000240921
6.46591e-06
0.000238737
6.55184e-06
0.000236524
6.63605e-06
0.000234283
6.71857e-06
0.000232016
6.79939e-06
0.000229722
6.87853e-06
0.000227402
6.95601e-06
0.000225058
7.03183e-06
0.000222688
7.10602e-06
0.000220294
7.17858e-06
0.000217877
7.24954e-06
0.000215436
7.3189e-06
0.000212973
7.38668e-06
0.000210488
7.4529e-06
0.000207981
7.51757e-06
0.000205454
7.5807e-06
0.000202905
7.64232e-06
0.000200337
7.70245e-06
0.000197749
7.76108e-06
0.000195142
7.81826e-06
0.000192517
7.87398e-06
0.000189873
7.92828e-06
0.000187212
7.98116e-06
0.000184534
8.03264e-06
0.000181839
8.08275e-06
0.000179128
8.13151e-06
0.0001764
8.17892e-06
0.000173658
8.22501e-06
0.000170901
8.2698e-06
0.000168129
8.31331e-06
0.000165343
8.35555e-06
0.000162544
8.39655e-06
0.000159731
8.43633e-06
0.000156905
8.4749e-06
0.000154067
8.5123e-06
0.000151217
8.54852e-06
0.000148355
8.58361e-06
0.000145482
8.61757e-06
0.000142598
8.65043e-06
0.000139703
8.6822e-06
0.000136798
8.71292e-06
0.000133884
8.74259e-06
0.000130959
8.77124e-06
0.000128026
8.7989e-06
0.000125083
8.82557e-06
0.000122132
8.85128e-06
0.000119173
8.87605e-06
0.000116206
8.8999e-06
0.000113231
8.92286e-06
0.000110249
8.94493e-06
0.00010726
8.96614e-06
0.000104264
8.98651e-06
0.000101262
9.00606e-06
9.82529e-05
9.0248e-06
9.52382e-05
9.04276e-06
9.22178e-05
9.05996e-06
8.9192e-05
9.0764e-06
8.61609e-05
9.09212e-06
8.31248e-05
9.10712e-06
8.00839e-05
9.12142e-06
7.70385e-05
9.13505e-06
7.39888e-05
9.14801e-06
7.0935e-05
9.16032e-06
6.78774e-05
9.172e-06
6.4816e-05
9.18306e-06
6.17512e-05
9.19352e-06
5.8683e-05
9.20338e-06
5.56118e-05
9.21267e-06
5.25377e-05
9.22139e-06
4.94609e-05
9.22956e-06
4.63816e-05
9.23719e-06
4.32998e-05
9.24429e-06
4.02159e-05
9.25087e-06
3.713e-05
9.25693e-06
3.40422e-05
9.2625e-06
3.09528e-05
9.26757e-06
2.78618e-05
9.27215e-06
2.47694e-05
9.27626e-06
2.16759e-05
9.2799e-06
1.85813e-05
9.28306e-06
1.54858e-05
9.28577e-06
1.23895e-05
9.28802e-06
9.29264e-06
9.28981e-06
6.19534e-06
9.29115e-06
3.09775e-06
9.29205e-06
9.29249e-06
3.55975e-06
-1.42362e-05
7.11931e-06
-1.42354e-05
1.06785e-05
-1.42338e-05
1.4237e-05
-1.42314e-05
1.77948e-05
-1.42283e-05
2.13516e-05
-1.42242e-05
2.49072e-05
-1.42194e-05
2.84614e-05
-1.42137e-05
3.2014e-05
-1.42072e-05
3.55647e-05
-1.41998e-05
3.91133e-05
-1.41914e-05
4.26597e-05
-1.41822e-05
4.62036e-05
-1.4172e-05
4.97447e-05
-1.41608e-05
5.32828e-05
-1.41487e-05
5.68176e-05
-1.41355e-05
6.03488e-05
-1.41212e-05
6.38763e-05
-1.41058e-05
6.73997e-05
-1.40893e-05
7.09187e-05
-1.40716e-05
7.44329e-05
-1.40527e-05
7.79422e-05
-1.40325e-05
8.14461e-05
-1.4011e-05
8.49444e-05
-1.39881e-05
8.84366e-05
-1.39638e-05
9.19225e-05
-1.3938e-05
9.54015e-05
-1.39108e-05
9.88734e-05
-1.3882e-05
0.000102338
-1.38515e-05
0.000105794
-1.38194e-05
0.000109242
-1.37856e-05
0.000112681
-1.37499e-05
0.000116111
-1.37124e-05
0.000119531
-1.36731e-05
0.000122941
-1.36317e-05
0.00012634
-1.35883e-05
0.000129727
-1.35428e-05
0.000133103
-1.34952e-05
0.000136466
-1.34454e-05
0.000139817
-1.33933e-05
0.000143153
-1.33388e-05
0.000146476
-1.3282e-05
0.000149784
-1.32227e-05
0.000153076
-1.31609e-05
0.000156353
-1.30965e-05
0.000159613
-1.30295e-05
0.000162855
-1.29598e-05
0.000166079
-1.28873e-05
0.000169285
-1.2812e-05
0.000172471
-1.27339e-05
0.000175637
-1.26528e-05
0.000178781
-1.25688e-05
0.000181904
-1.24817e-05
0.000185005
-1.23916e-05
0.000188082
-1.22984e-05
0.000191136
-1.2202e-05
0.000194164
-1.21025e-05
0.000197167
-1.19997e-05
0.000200143
-1.18937e-05
0.000203092
-1.17843e-05
0.000206013
-1.16717e-05
0.000208905
-1.15557e-05
0.000211767
-1.14363e-05
0.000214598
-1.13135e-05
0.000217398
-1.11874e-05
0.000220166
-1.10578e-05
0.0002229
-1.09248e-05
0.0002256
-1.07884e-05
0.000228265
-1.06486e-05
0.000230894
-1.05054e-05
0.000233487
-1.03587e-05
0.000236042
-1.02087e-05
0.000238559
-1.00553e-05
0.000241036
-9.89861e-06
0.000243474
-9.73856e-06
0.000245871
-9.57523e-06
0.000248225
-9.40865e-06
0.000250538
-9.23887e-06
0.000252807
-9.06592e-06
0.000255032
-8.88986e-06
0.000257213
-8.71075e-06
0.000259347
-8.52864e-06
0.000261436
-8.34359e-06
0.000263477
-8.15568e-06
0.000265471
-7.96497e-06
0.000267416
-7.77153e-06
0.000269312
-7.57546e-06
0.000271158
-7.37683e-06
0.000272954
-7.17572e-06
0.000274699
-6.97224e-06
0.000276393
-6.76646e-06
0.000278034
-6.55849e-06
0.000279623
-6.34842e-06
0.000281159
-6.13636e-06
0.000282641
-5.92241e-06
0.000284069
-5.70668e-06
0.000285443
-5.48928e-06
0.000286762
-5.27031e-06
0.000288025
-5.0499e-06
0.000289234
-4.82814e-06
0.000290386
-4.60516e-06
0.000291482
-4.38108e-06
0.000292522
-4.15601e-06
0.000293505
-3.93006e-06
0.000294431
-3.70336e-06
0.000295301
-3.47602e-06
0.000296113
-3.24816e-06
0.000296868
-3.0199e-06
0.000297566
-2.79135e-06
0.000298207
-2.56262e-06
0.00029879
-2.33384e-06
0.000299317
-2.10511e-06
0.000299785
-1.87655e-06
0.000300197
-1.64826e-06
0.000300552
-1.42036e-06
0.00030085
-1.19295e-06
0.000301091
-9.66131e-07
0.000301275
-7.40012e-07
0.000301403
-5.14688e-07
0.000301474
-2.90257e-07
0.00030149
-6.68131e-08
0.00030145
1.55552e-07
0.000301355
3.7675e-07
0.000301205
5.96695e-07
0.000301
8.15304e-07
0.00030074
1.0325e-06
0.000300427
1.2482e-06
0.00030006
1.46234e-06
0.00029964
1.67484e-06
0.000299167
1.88564e-06
0.000298641
2.09467e-06
0.000298064
2.30188e-06
0.000297436
2.5072e-06
0.000296756
2.71059e-06
0.000296027
2.91199e-06
0.000295247
3.11135e-06
0.000294418
3.30862e-06
0.00029354
3.50378e-06
0.000292614
3.69677e-06
0.00029164
3.88757e-06
0.000290619
4.07613e-06
0.000289552
4.26243e-06
0.000288438
4.44644e-06
0.000287279
4.62814e-06
0.000286075
4.8075e-06
0.000284827
4.9845e-06
0.000283535
5.15913e-06
0.0002822
5.33136e-06
0.000280822
5.5012e-06
0.000279403
5.66861e-06
0.000277943
5.83361e-06
0.000276441
5.99617e-06
0.0002749
6.15629e-06
0.00027332
6.31397e-06
0.0002717
6.46921e-06
0.000270043
6.622e-06
0.000268347
6.77235e-06
0.000266615
6.92026e-06
0.000264847
7.06573e-06
0.000263042
7.20876e-06
0.000261203
7.34937e-06
0.000259329
7.48755e-06
0.000257421
7.62333e-06
0.00025548
7.7567e-06
0.000253506
7.88767e-06
0.000251499
8.01626e-06
0.000249462
8.14248e-06
0.000247393
8.26634e-06
0.000245294
8.38786e-06
0.000243165
8.50704e-06
0.000241007
8.6239e-06
0.000238821
8.73845e-06
0.000236606
8.85072e-06
0.000234364
8.96072e-06
0.000232095
9.06846e-06
0.000229799
9.17396e-06
0.000227478
9.27725e-06
0.000225132
9.37832e-06
0.00022276
9.47722e-06
0.000220365
9.57395e-06
0.000217946
9.66853e-06
0.000215504
9.76099e-06
0.000213039
9.85134e-06
0.000210553
9.9396e-06
0.000208044
1.00258e-05
0.000205515
1.011e-05
0.000202965
1.01921e-05
0.000200396
1.02722e-05
0.000197806
1.03504e-05
0.000195198
1.04266e-05
0.000192571
1.05009e-05
0.000189926
1.05732e-05
0.000187264
1.06437e-05
0.000184584
1.07123e-05
0.000181888
1.07791e-05
0.000179175
1.08441e-05
0.000176447
1.09073e-05
0.000173703
1.09687e-05
0.000170944
1.10284e-05
0.000168171
1.10864e-05
0.000165384
1.11427e-05
0.000162583
1.11973e-05
0.000159769
1.12503e-05
0.000156943
1.13017e-05
0.000154103
1.13515e-05
0.000151252
1.13998e-05
0.000148389
1.14466e-05
0.000145515
1.14918e-05
0.00014263
1.15356e-05
0.000139734
1.15779e-05
0.000136828
1.16188e-05
0.000133912
1.16584e-05
0.000130987
1.16965e-05
0.000128052
1.17334e-05
0.000125109
1.17689e-05
0.000122157
1.18032e-05
0.000119197
1.18362e-05
0.000116229
1.18679e-05
0.000113253
1.18985e-05
0.00011027
1.19279e-05
0.00010728
1.19562e-05
0.000104284
1.19833e-05
0.00010128
1.20093e-05
9.82709e-05
1.20343e-05
9.52554e-05
1.20582e-05
9.22343e-05
1.20811e-05
8.92077e-05
1.2103e-05
8.61758e-05
1.21239e-05
8.31391e-05
1.21439e-05
8.00975e-05
1.2163e-05
7.70515e-05
1.21811e-05
7.40011e-05
1.21984e-05
7.09467e-05
1.22147e-05
6.78884e-05
1.22303e-05
6.48264e-05
1.2245e-05
6.1761e-05
1.22589e-05
5.86923e-05
1.22721e-05
5.56206e-05
1.22844e-05
5.25459e-05
1.2296e-05
4.94685e-05
1.23069e-05
4.63887e-05
1.23171e-05
4.33064e-05
1.23265e-05
4.0222e-05
1.23353e-05
3.71356e-05
1.23434e-05
3.40473e-05
1.23508e-05
3.09574e-05
1.23575e-05
2.78659e-05
1.23636e-05
2.47731e-05
1.23691e-05
2.1679e-05
1.23739e-05
1.8584e-05
1.23781e-05
1.5488e-05
1.23817e-05
1.23913e-05
1.23847e-05
9.29399e-06
1.23871e-05
6.19624e-06
1.23889e-05
3.09819e-06
1.23901e-05
1.23907e-05
3.56055e-06
-1.77968e-05
7.1209e-06
-1.77958e-05
1.06809e-05
-1.77938e-05
1.42402e-05
-1.77908e-05
1.77988e-05
-1.77868e-05
2.13565e-05
-1.77819e-05
2.49129e-05
-1.77758e-05
2.84679e-05
-1.77688e-05
3.20214e-05
-1.77606e-05
3.5573e-05
-1.77514e-05
3.91226e-05
-1.7741e-05
4.26699e-05
-1.77295e-05
4.62148e-05
-1.77168e-05
4.97569e-05
-1.77029e-05
5.3296e-05
-1.76878e-05
5.68319e-05
-1.76714e-05
6.03642e-05
-1.76536e-05
6.38929e-05
-1.76344e-05
6.74174e-05
-1.76139e-05
7.09376e-05
-1.75918e-05
7.44532e-05
-1.75682e-05
7.79637e-05
-1.75431e-05
8.1469e-05
-1.75162e-05
8.49687e-05
-1.74877e-05
8.84624e-05
-1.74575e-05
9.19497e-05
-1.74254e-05
9.54304e-05
-1.73914e-05
9.89039e-05
-1.73555e-05
0.00010237
-1.73175e-05
0.000105828
-1.72775e-05
0.000109278
-1.72353e-05
0.000112719
-1.71909e-05
0.00011615
-1.71441e-05
0.000119572
-1.7095e-05
0.000122984
-1.70434e-05
0.000126385
-1.69893e-05
0.000129775
-1.69326e-05
0.000133153
-1.68732e-05
0.000136518
-1.6811e-05
0.000139871
-1.6746e-05
0.00014321
-1.6678e-05
0.000146535
-1.66071e-05
0.000149846
-1.65331e-05
0.000153141
-1.6456e-05
0.00015642
-1.63756e-05
0.000159682
-1.62919e-05
0.000162927
-1.62049e-05
0.000166155
-1.61144e-05
0.000169363
-1.60204e-05
0.000172552
-1.59228e-05
0.000175721
-1.58216e-05
0.000178868
-1.57166e-05
0.000181995
-1.56079e-05
0.000185098
-1.54953e-05
0.000188179
-1.53789e-05
0.000191235
-1.52585e-05
0.000194267
-1.51342e-05
0.000197273
-1.50057e-05
0.000200253
-1.48732e-05
0.000203205
-1.47366e-05
0.000206129
-1.45958e-05
0.000209024
-1.44509e-05
0.00021189
-1.43017e-05
0.000214725
-1.41483e-05
0.000217528
-1.39906e-05
0.000220299
-1.38287e-05
0.000223036
-1.36624e-05
0.00022574
-1.34919e-05
0.000228408
-1.33171e-05
0.000231041
-1.31381e-05
0.000233637
-1.29548e-05
0.000236196
-1.27672e-05
0.000238716
-1.25754e-05
0.000241196
-1.23795e-05
0.000243637
-1.21794e-05
0.000246037
-1.19751e-05
0.000248395
-1.17668e-05
0.000250711
-1.15545e-05
0.000252983
-1.13382e-05
0.000255211
-1.11181e-05
0.000257395
-1.0894e-05
0.000259532
-1.06663e-05
0.000261624
-1.04349e-05
0.000263668
-1.01998e-05
0.000265664
-9.9613e-06
0.000267612
-9.71937e-06
0.000269511
-9.47412e-06
0.00027136
-9.22567e-06
0.000273158
-8.97412e-06
0.000274905
-8.71958e-06
0.000276601
-8.46218e-06
0.000278245
-8.20203e-06
0.000279835
-7.93926e-06
0.000281373
-7.67399e-06
0.000282857
-7.40635e-06
0.000284287
-7.13649e-06
0.000285662
-6.86453e-06
0.000286982
-6.59061e-06
0.000288247
-6.31487e-06
0.000289457
-6.03747e-06
0.00029061
-5.75853e-06
0.000291707
-5.47821e-06
0.000292748
-5.19665e-06
0.000293732
-4.914e-06
0.000294659
-4.6304e-06
0.000295529
-4.34601e-06
0.000296341
-4.06096e-06
0.000297097
-3.77541e-06
0.000297795
-3.48951e-06
0.000298436
-3.20339e-06
0.000299019
-2.9172e-06
0.000299545
-2.63108e-06
0.000300014
-2.34517e-06
0.000300425
-2.05961e-06
0.000300779
-1.77453e-06
0.000301076
-1.49007e-06
0.000301317
-1.20636e-06
0.0003015
-9.23524e-07
0.000301627
-6.41688e-07
0.000301698
-3.60972e-07
0.000301713
-8.14964e-08
0.000301672
1.96626e-07
0.000301575
4.73284e-07
0.000301423
7.4837e-07
0.000301217
1.02178e-06
0.000300956
1.29342e-06
0.000300641
1.56318e-06
0.000300272
1.83099e-06
0.00029985
2.09674e-06
0.000299376
2.36036e-06
0.000298849
2.62176e-06
0.00029827
2.88088e-06
0.000297639
3.13764e-06
0.000296958
3.39196e-06
0.000296226
3.6438e-06
0.000295444
3.89308e-06
0.000294613
4.13976e-06
0.000293733
4.38378e-06
0.000292805
4.62508e-06
0.000291829
4.86364e-06
0.000290805
5.0994e-06
0.000289736
5.33233e-06
0.00028862
5.56239e-06
0.000287458
5.78955e-06
0.000286252
6.01379e-06
0.000285001
6.23508e-06
0.000283707
6.45339e-06
0.00028237
6.66871e-06
0.00028099
6.88102e-06
0.000279568
7.09031e-06
0.000278105
7.29657e-06
0.000276602
7.49978e-06
0.000275058
7.69994e-06
0.000273475
7.89705e-06
0.000271853
8.09109e-06
0.000270193
8.28208e-06
0.000268495
8.47002e-06
0.000266761
8.65489e-06
0.00026499
8.83672e-06
0.000263183
9.0155e-06
0.000261341
9.19125e-06
0.000259465
9.36397e-06
0.000257554
9.53367e-06
0.000255611
9.70036e-06
0.000253634
9.86406e-06
0.000251626
1.00248e-05
0.000249586
1.01825e-05
0.000247515
1.03373e-05
0.000245413
1.04892e-05
0.000243282
1.06381e-05
0.000241122
1.07842e-05
0.000238933
1.09274e-05
0.000236716
1.10677e-05
0.000234472
1.12051e-05
0.0002322
1.13398e-05
0.000229903
1.14716e-05
0.000227579