/*--------------------------------*- C++ -*----------------------------------*\
| =========                 |                                                 |
| \\      /  F ield         | OpenFOAM: The Open Source CFD Toolbox           |
|  \\    /   O peration     | Version:  v2012                                 |
|   \\  /    A nd           | Website:  www.openfoam.com                      |
|    \\/     M anipulation  |                                                 |
\*---------------------------------------------------------------------------*/
FoamFile
{
    version     2.0;
    format      ascii;
    class       surfaceScalarField;
    location    "16";
    object      phi;
}
// * * * * * * * * * * * * * * * * * * * * * * * * * * * * * * * * * * * * * //

dimensions      [0 3 -1 0 0 0 0];
oriented        oriented;


internalField   nonuniform List<scalar> 
130560
(
3.34502e-06
-3.34502e-06
6.69025e-06
-3.34523e-06
1.00359e-05
-3.34564e-06
1.33822e-05
-3.34626e-06
1.67292e-05
-3.34709e-06
2.00774e-05
-3.34811e-06
2.34267e-05
-3.34934e-06
2.67775e-05
-3.35076e-06
3.01298e-05
-3.35238e-06
3.3484e-05
-3.35419e-06
3.68402e-05
-3.35619e-06
4.01986e-05
-3.35837e-06
4.35593e-05
-3.36073e-06
4.69226e-05
-3.36327e-06
5.02886e-05
-3.36596e-06
5.36574e-05
-3.36882e-06
5.70292e-05
-3.37184e-06
6.04042e-05
-3.37499e-06
6.37825e-05
-3.37829e-06
6.71642e-05
-3.38172e-06
7.05495e-05
-3.38527e-06
7.39384e-05
-3.38892e-06
7.73311e-05
-3.39268e-06
8.07276e-05
-3.39653e-06
8.41281e-05
-3.40046e-06
8.75326e-05
-3.40446e-06
9.09411e-05
-3.40851e-06
9.43537e-05
-3.4126e-06
9.77704e-05
-3.41672e-06
0.000101191
-3.42085e-06
0.000104616
-3.42498e-06
0.000108045
-3.4291e-06
0.000111479
-3.43318e-06
0.000114916
-3.4372e-06
0.000118357
-3.44116e-06
0.000121802
-3.44503e-06
0.000125251
-3.44879e-06
0.000128703
-3.45243e-06
0.000132159
-3.45591e-06
0.000135618
-3.45923e-06
0.000139081
-3.46235e-06
0.000142546
-3.46525e-06
0.000146014
-3.46792e-06
0.000149484
-3.47032e-06
0.000152957
-3.47243e-06
0.000156431
-3.47422e-06
0.000159906
-3.47566e-06
0.000163383
-3.47673e-06
0.000166861
-3.4774e-06
0.000170338
-3.47764e-06
0.000173816
-3.47742e-06
0.000177292
-3.47671e-06
0.000180768
-3.47547e-06
0.000184241
-3.47367e-06
0.000187713
-3.47128e-06
0.000191181
-3.46827e-06
0.000194646
-3.4646e-06
0.000198106
-3.46023e-06
0.000201561
-3.45514e-06
0.00020501
-3.44928e-06
0.000208453
-3.44261e-06
0.000211888
-3.43511e-06
0.000215315
-3.42673e-06
0.000218732
-3.41744e-06
0.000222139
-3.4072e-06
0.000225535
-3.39596e-06
0.000228919
-3.3837e-06
0.000232289
-3.37037e-06
0.000235645
-3.35594e-06
0.000238986
-3.34036e-06
0.000242309
-3.32361e-06
0.000245615
-3.30563e-06
0.000248901
-3.28641e-06
0.000252167
-3.26589e-06
0.000255411
-3.24405e-06
0.000258632
-3.22085e-06
0.000261828
-3.19626e-06
0.000264999
-3.17024e-06
0.000268141
-3.14276e-06
0.000271255
-3.1138e-06
0.000274338
-3.08331e-06
0.00027739
-3.05129e-06
0.000280407
-3.01769e-06
0.00028339
-2.98249e-06
0.000286336
-2.94568e-06
0.000289243
-2.90723e-06
0.00029211
-2.86713e-06
0.000294935
-2.82535e-06
0.000297717
-2.7819e-06
0.000300454
-2.73674e-06
0.000303144
-2.68988e-06
0.000305785
-2.64131e-06
0.000308376
-2.59103e-06
0.000310915
-2.53904e-06
0.000313401
-2.48534e-06
0.000315831
-2.42994e-06
0.000318203
-2.37284e-06
0.000320517
-2.31406e-06
0.000322771
-2.25362e-06
0.000324963
-2.19153e-06
0.00032709
-2.12782e-06
0.000329153
-2.06252e-06
0.000331149
-1.99564e-06
0.000333076
-1.92723e-06
0.000334933
-1.85733e-06
0.000336719
-1.78596e-06
0.000338432
-1.71318e-06
0.000340071
-1.63903e-06
0.000341635
-1.56356e-06
0.000343122
-1.48682e-06
0.000344531
-1.40887e-06
0.00034586
-1.32977e-06
0.00034711
-1.24957e-06
0.000348278
-1.16835e-06
0.000349364
-1.08616e-06
0.000350368
-1.00308e-06
0.000351287
-9.19174e-07
0.000352121
-8.3452e-07
0.00035287
-7.49191e-07
0.000353534
-6.63264e-07
0.00035411
-5.76816e-07
0.0003546
-4.89927e-07
0.000355003
-4.02676e-07
0.000355318
-3.15145e-07
0.000355546
-2.27416e-07
0.000355685
-1.39569e-07
0.000355737
-5.16871e-08
0.000355701
3.6148e-08
0.000355577
1.23855e-07
0.000355366
2.11352e-07
0.000355067
2.98561e-07
0.000354682
3.854e-07
0.00035421
4.71793e-07
0.000353652
5.57663e-07
0.000353009
6.42935e-07
0.000352282
7.27535e-07
0.00035147
8.11392e-07
0.000350576
8.94437e-07
0.000349599
9.76604e-07
0.000348541
1.05783e-06
0.000347403
1.13805e-06
0.000346186
1.2172e-06
0.000344891
1.29523e-06
0.000343519
1.37209e-06
0.000342071
1.44772e-06
0.000340549
1.52208e-06
0.000338954
1.59513e-06
0.000337287
1.66681e-06
0.00033555
1.7371e-06
0.000333744
1.80595e-06
0.000331871
1.87334e-06
0.000329931
1.93924e-06
0.000327928
2.00361e-06
0.000325861
2.06645e-06
0.000323734
2.12773e-06
0.000321546
2.18743e-06
0.000319301
2.24554e-06
0.000316999
2.30204e-06
0.000314642
2.35694e-06
0.000312231
2.41023e-06
0.00030977
2.4619e-06
0.000307258
2.51196e-06
0.000304697
2.56041e-06
0.00030209
2.60724e-06
0.000299437
2.65249e-06
0.000296741
2.69614e-06
0.000294003
2.73822e-06
0.000291224
2.77873e-06
0.000288407
2.8177e-06
0.000285552
2.85514e-06
0.00028266
2.89107e-06
0.000279735
2.92552e-06
0.000276776
2.9585e-06
0.000273786
2.99004e-06
0.000270766
3.02016e-06
0.000267717
3.0489e-06
0.000264641
3.07627e-06
0.000261539
3.10231e-06
0.000258412
3.12704e-06
0.000255261
3.1505e-06
0.000252089
3.17272e-06
0.000248895
3.19372e-06
0.000245681
3.21354e-06
0.000242449
3.23221e-06
0.000239199
3.24977e-06
0.000235933
3.26624e-06
0.000232651
3.28166e-06
0.000229355
3.29605e-06
0.000226046
3.30947e-06
0.000222724
3.32193e-06
0.00021939
3.33347e-06
0.000216046
3.34412e-06
0.000212692
3.35391e-06
0.00020933
3.36289e-06
0.000205958
3.37107e-06
0.00020258
3.3785e-06
0.000199195
3.38519e-06
0.000195804
3.39119e-06
0.000192407
3.39653e-06
0.000189006
3.40122e-06
0.000185601
3.40532e-06
0.000182192
3.40883e-06
0.00017878
3.4118e-06
0.000175366
3.41424e-06
0.000171949
3.4162e-06
0.000168532
3.41768e-06
0.000165113
3.41873e-06
0.000161694
3.41937e-06
0.000158274
3.41962e-06
0.000154855
3.4195e-06
0.000151436
3.41905e-06
0.000148017
3.41828e-06
0.0001446
3.41721e-06
0.000141184
3.41588e-06
0.00013777
3.4143e-06
0.000134357
3.41249e-06
0.000130947
3.41047e-06
0.000127539
3.40826e-06
0.000124133
3.40589e-06
0.000120729
3.40337e-06
0.000117329
3.40071e-06
0.000113931
3.39794e-06
0.000110536
3.39507e-06
0.000107144
3.39212e-06
0.000103754
3.3891e-06
0.000100368
3.38603e-06
9.69855e-05
3.38293e-06
9.36057e-05
3.3798e-06
9.0229e-05
3.37667e-06
8.68555e-05
3.37353e-06
8.3485e-05
3.37042e-06
8.01177e-05
3.36733e-06
7.67534e-05
3.36428e-06
7.33922e-05
3.36127e-06
7.00338e-05
3.35833e-06
6.66784e-05
3.35546e-06
6.33257e-05
3.35267e-06
5.99758e-05
3.34996e-06
5.66284e-05
3.34735e-06
5.32836e-05
3.34484e-06
4.99411e-05
3.34244e-06
4.6601e-05
3.34016e-06
4.3263e-05
3.338e-06
3.9927e-05
3.33598e-06
3.65929e-05
3.33409e-06
3.32606e-05
3.33233e-06
2.99298e-05
3.33073e-06
2.66006e-05
3.32927e-06
2.32726e-05
3.32796e-06
1.99458e-05
3.32681e-06
1.662e-05
3.32582e-06
1.3295e-05
3.32499e-06
9.97065e-06
3.32433e-06
6.64682e-06
3.32383e-06
3.32333e-06
3.32349e-06
3.32333e-06
3.34482e-06
-6.68984e-06
6.68984e-06
-6.69025e-06
1.00353e-05
-6.69108e-06
1.33813e-05
-6.69232e-06
1.67282e-05
-6.69397e-06
2.00761e-05
-6.69603e-06
2.34253e-05
-6.69848e-06
2.67759e-05
-6.70134e-06
3.01281e-05
-6.70458e-06
3.34821e-05
-6.70821e-06
3.68381e-05
-6.71221e-06
4.01963e-05
-6.71657e-06
4.35568e-05
-6.7213e-06
4.69199e-05
-6.72637e-06
5.02857e-05
-6.73177e-06
5.36544e-05
-6.7375e-06
5.70261e-05
-6.74353e-06
6.0401e-05
-6.74985e-06
6.37791e-05
-6.75646e-06
6.71607e-05
-6.76332e-06
7.05459e-05
-6.77042e-06
7.39347e-05
-6.77775e-06
7.73273e-05
-6.78528e-06
8.07238e-05
-6.79299e-06
8.41242e-05
-6.80086e-06
8.75286e-05
-6.80886e-06
9.0937e-05
-6.81698e-06
9.43496e-05
-6.82518e-06
9.77663e-05
-6.83343e-06
0.000101187
-6.84171e-06
0.000104612
-6.84999e-06
0.000108041
-6.85823e-06
0.000111475
-6.86641e-06
0.000114912
-6.87448e-06
0.000118353
-6.88241e-06
0.000121798
-6.89017e-06
0.000125247
-6.89772e-06
0.0001287
-6.90501e-06
0.000132156
-6.912e-06
0.000135615
-6.91865e-06
0.000139078
-6.92492e-06
0.000142543
-6.93075e-06
0.000146011
-6.9361e-06
0.000149482
-6.94093e-06
0.000152955
-6.94517e-06
0.000156429
-6.94878e-06
0.000159905
-6.9517e-06
0.000163383
-6.95387e-06
0.00016686
-6.95524e-06
0.000170339
-6.95575e-06
0.000173816
-6.95534e-06
0.000177294
-6.95394e-06
0.00018077
-6.95149e-06
0.000184244
-6.94793e-06
0.000187716
-6.94319e-06
0.000191185
-6.9372e-06
0.00019465
-6.92989e-06
0.000198111
-6.9212e-06
0.000201567
-6.91104e-06
0.000205017
-6.89936e-06
0.000208461
-6.88607e-06
0.000211896
-6.8711e-06
0.000215324
-6.85438e-06
0.000218743
-6.83584e-06
0.000222151
-6.81538e-06
0.000225548
-6.79295e-06
0.000228932
-6.76846e-06
0.000232304
-6.74184e-06
0.000235661
-6.71301e-06
0.000239003
-6.6819e-06
0.000242327
-6.64843e-06
0.000245634
-6.61252e-06
0.000248922
-6.57411e-06
0.000252189
-6.53311e-06
0.000255435
-6.48947e-06
0.000258657
-6.4431e-06
0.000261855
-6.39395e-06
0.000265026
-6.34194e-06
0.000268171
-6.28702e-06
0.000271286
-6.22911e-06
0.000274371
-6.16817e-06
0.000277424
-6.10414e-06
0.000280443
-6.03697e-06
0.000283427
-5.9666e-06
0.000286374
-5.893e-06
0.000289283
-5.81612e-06
0.000292152
-5.73593e-06
0.000294979
-5.65239e-06
0.000297763
-5.56549e-06
0.000300501
-5.47518e-06
0.000303193
-5.38147e-06
0.000305836
-5.28434e-06
0.000308428
-5.18378e-06
0.000310969
-5.07979e-06
0.000313456
-4.97238e-06
0.000315888
-4.86156e-06
0.000318262
-4.74736e-06
0.000320578
-4.62979e-06
0.000322833
-4.50888e-06
0.000325026
-4.38468e-06
0.000327156
-4.25724e-06
0.00032922
-4.1266e-06
0.000331217
-3.99282e-06
0.000333146
-3.85596e-06
0.000335005
-3.71611e-06
0.000336792
-3.57334e-06
0.000338507
-3.42773e-06
0.000340147
-3.27938e-06
0.000341712
-3.12839e-06
0.0003432
-2.97486e-06
0.00034461
-2.8189e-06
0.000345941
-2.66063e-06
0.000347191
-2.50017e-06
0.000348361
-2.33765e-06
0.000349448
-2.17321e-06
0.000350451
-2.00697e-06
0.000351371
-1.83909e-06
0.000352207
-1.66971e-06
0.000352956
-1.49898e-06
0.00035362
-1.32704e-06
0.000354197
-1.15407e-06
0.000354688
-9.80211e-07
0.000355091
-8.05629e-07
0.000355406
-6.30485e-07
0.000355634
-4.54944e-07
0.000355773
-2.79169e-07
0.000355825
-1.03323e-07
0.000355788
7.24286e-08
0.000355664
2.47923e-07
0.000355453
4.22999e-07
0.000355154
5.97494e-07
0.000354768
7.71251e-07
0.000354296
9.44114e-07
0.000353737
1.11593e-06
0.000353094
1.28654e-06
0.000352365
1.45582e-06
0.000351553
1.6236e-06
0.000350658
1.78976e-06
0.00034968
1.95415e-06
0.000348622
2.11666e-06
0.000347482
2.27716e-06
0.000346264
2.43552e-06
0.000344968
2.59164e-06
0.000343594
2.74541e-06
0.000342145
2.89672e-06
0.000340622
3.04549e-06
0.000339026
3.19161e-06
0.000337357
3.33502e-06
0.000335619
3.47563e-06
0.000333811
3.61337e-06
0.000331937
3.74817e-06
0.000329996
3.87999e-06
0.000327991
4.00877e-06
0.000325923
4.13447e-06
0.000323793
4.25703e-06
0.000321604
4.37645e-06
0.000319357
4.49267e-06
0.000317053
4.6057e-06
0.000314695
4.7155e-06
0.000312283
4.82208e-06
0.00030982
4.92542e-06
0.000307306
5.02553e-06
0.000304744
5.12242e-06
0.000302135
5.21609e-06
0.000299481
5.30656e-06
0.000296783
5.39386e-06
0.000294044
5.478e-06
0.000291263
5.55901e-06
0.000288444
5.63693e-06
0.000285587
5.71179e-06
0.000282695
5.78364e-06
0.000279768
5.85251e-06
0.000276808
5.91844e-06
0.000273816
5.9815e-06
0.000270795
6.04172e-06
0.000267745
6.09916e-06
0.000264667
6.15388e-06
0.000261563
6.20593e-06
0.000258435
6.25536e-06
0.000255283
6.30225e-06
0.000252109
6.34665e-06
0.000248914
6.38863e-06
0.0002457
6.42823e-06
0.000242466
6.46554e-06
0.000239216
6.50062e-06
0.000235948
6.53353e-06
0.000232666
6.56433e-06
0.000229369
6.59309e-06
0.000226058
6.61989e-06
0.000222735
6.64477e-06
0.000219401
6.66782e-06
0.000216056
6.68909e-06
0.000212701
6.70865e-06
0.000209338
6.72657e-06
0.000205966
6.7429e-06
0.000202587
6.75772e-06
0.000199201
6.77108e-06
0.000195809
6.78305e-06
0.000192412
6.79369e-06
0.00018901
6.80305e-06
0.000185604
6.81121e-06
0.000182195
6.81821e-06
0.000178782
6.82411e-06
0.000175368
6.82898e-06
0.000171951
6.83286e-06
0.000168533
6.83581e-06
0.000165114
6.83788e-06
0.000161694
6.83912e-06
0.000158274
6.83959e-06
0.000154854
6.83934e-06
0.000151435
6.83841e-06
0.000148016
6.83684e-06
0.000144599
6.8347e-06
0.000141182
6.83201e-06
0.000137768
6.82882e-06
0.000134355
6.82518e-06
0.000130945
6.82112e-06
0.000127536
6.81669e-06
0.00012413
6.81193e-06
0.000120727
6.80686e-06
0.000117326
6.80153e-06
0.000113928
6.79597e-06
0.000110533
6.79022e-06
0.00010714
6.7843e-06
0.000103751
6.77825e-06
0.000100365
6.7721e-06
9.69823e-05
6.76588e-06
9.36025e-05
6.75961e-06
9.02258e-05
6.75333e-06
8.68523e-05
6.74705e-06
8.34819e-05
6.7408e-06
8.01146e-05
6.73461e-06
7.67504e-05
6.7285e-06
7.33892e-05
6.72249e-06
7.00309e-05
6.71659e-06
6.66755e-05
6.71084e-06
6.3323e-05
6.70524e-06
5.99731e-05
6.69982e-06
5.66259e-05
6.69459e-06
5.32811e-05
6.68956e-06
4.99388e-05
6.68476e-06
4.65988e-05
6.6802e-06
4.32609e-05
6.67588e-06
3.99251e-05
6.67182e-06
3.65911e-05
6.66803e-06
3.32589e-05
6.66452e-06
2.99284e-05
6.6613e-06
2.65993e-05
6.65838e-06
2.32714e-05
6.65577e-06
1.99448e-05
6.65347e-06
1.66191e-05
6.65148e-06
1.32943e-05
6.64982e-06
9.97015e-06
6.64849e-06
6.64649e-06
6.64749e-06
3.32316e-06
6.64682e-06
6.64649e-06
3.3444e-06
-1.00342e-05
6.68901e-06
-1.00349e-05
1.0034e-05
-1.00361e-05
1.33797e-05
-1.0038e-05
1.67262e-05
-1.00405e-05
2.00737e-05
-1.00435e-05
2.34224e-05
-1.00472e-05
2.67726e-05
-1.00515e-05
3.01244e-05
-1.00564e-05
3.34781e-05
-1.00618e-05
3.68337e-05
-1.00679e-05
4.01915e-05
-1.00744e-05
4.35518e-05
-1.00815e-05
4.69145e-05
-1.00891e-05
5.028e-05
-1.00973e-05
5.36484e-05
-1.01059e-05
5.70198e-05
-1.01149e-05
6.03944e-05
-1.01244e-05
6.37723e-05
-1.01344e-05
6.71536e-05
-1.01447e-05
7.05385e-05
-1.01554e-05
7.39272e-05
-1.01664e-05
7.73196e-05
-1.01777e-05
8.07159e-05
-1.01893e-05
8.41161e-05
-1.02011e-05
8.75204e-05
-1.02132e-05
9.09288e-05
-1.02254e-05
9.43413e-05
-1.02377e-05
9.7758e-05
-1.02501e-05
0.000101179
-1.02626e-05
0.000104604
-1.0275e-05
0.000108033
-1.02874e-05
0.000111466
-1.02997e-05
0.000114904
-1.03119e-05
0.000118345
-1.03238e-05
0.000121791
-1.03355e-05
0.00012524
-1.03469e-05
0.000128693
-1.03579e-05
0.000132149
-1.03684e-05
0.000135609
-1.03785e-05
0.000139072
-1.03879e-05
0.000142538
-1.03967e-05
0.000146007
-1.04048e-05
0.000149478
-1.04121e-05
0.000152951
-1.04185e-05
0.000156426
-1.0424e-05
0.000159903
-1.04285e-05
0.000163381
-1.04318e-05
0.00016686
-1.04339e-05
0.000170339
-1.04348e-05
0.000173818
-1.04342e-05
0.000177296
-1.04322e-05
0.000180773
-1.04286e-05
0.000184249
-1.04234e-05
0.000187722
-1.04163e-05
0.000191192
-1.04074e-05
0.000194659
-1.03966e-05
0.000198121
-1.03836e-05
0.000201579
-1.03685e-05
0.00020503
-1.0351e-05
0.000208475
-1.03312e-05
0.000211913
-1.03088e-05
0.000215343
-1.02839e-05
0.000218763
-1.02561e-05
0.000222173
-1.02256e-05
0.000225572
-1.0192e-05
0.000228959
-1.01554e-05
0.000232333
-1.01155e-05
0.000235692
-1.00724e-05
0.000239036
-1.00258e-05
0.000242363
-9.97568e-06
0.000245673
-9.92192e-06
0.000248963
-9.86438e-06
0.000252233
-9.80298e-06
0.000255481
-9.7376e-06
0.000258706
-9.66814e-06
0.000261907
-9.59449e-06
0.000265081
-9.51656e-06
0.000268228
-9.43425e-06
0.000271347
-9.34746e-06
0.000274435
-9.25613e-06
0.000277491
-9.16014e-06
0.000280513
-9.05944e-06
0.0002835
-8.95395e-06
0.000286451
-8.8436e-06
0.000289363
-8.72832e-06
0.000292235
-8.60808e-06
0.000295066
-8.4828e-06
0.000297853
-8.35247e-06
0.000300595
-8.21704e-06
0.00030329
-8.07648e-06
0.000305936
-7.93079e-06
0.000308532
-7.77995e-06
0.000311076
-7.62396e-06
0.000313567
-7.46283e-06
0.000316002
-7.29658e-06
0.00031838
-7.12524e-06
0.000320699
-6.94884e-06
0.000322957
-6.76744e-06
0.000325154
-6.58109e-06
0.000327286
-6.38985e-06
0.000329354
-6.19382e-06
0.000331354
-5.99306e-06
0.000333286
-5.78769e-06
0.000335147
-5.57782e-06
0.000336938
-5.36355e-06
0.000338655
-5.14502e-06
0.000340298
-4.92238e-06
0.000341865
-4.69576e-06
0.000343356
-4.46532e-06
0.000344768
-4.23123e-06
0.000346101
-3.99368e-06
0.000347354
-3.75283e-06
0.000348525
-3.50889e-06
0.000349614
-3.26205e-06
0.000350619
-3.01252e-06
0.000351541
-2.76051e-06
0.000352377
-2.50625e-06
0.000353128
-2.24996e-06
0.000353793
-1.99187e-06
0.000354371
-1.73221e-06
0.000354862
-1.47122e-06
0.000355266
-1.20914e-06
0.000355582
-9.46225e-07
0.000355809
-6.82708e-07
0.000355949
-4.18839e-07
0.000356001
-1.54866e-07
0.000355964
1.08965e-07
0.000355839
3.7241e-07
0.000355627
6.35224e-07
0.000355328
8.97165e-07
0.000354941
1.158e-06
0.000354467
1.41748e-06
0.000353908
1.67539e-06
0.000353263
1.9315e-06
0.000352533
2.18558e-06
0.000351719
2.43743e-06
0.000350822
2.68684e-06
0.000349843
2.93359e-06
0.000348782
3.17751e-06
0.000347641
3.4184e-06
0.00034642
3.65609e-06
0.000345122
3.8904e-06
0.000343746
4.12118e-06
0.000342294
4.34827e-06
0.000340768
4.57153e-06
0.000339169
4.79082e-06
0.000337498
5.00602e-06
0.000335757
5.21702e-06
0.000333946
5.42371e-06
0.000332068
5.626e-06
0.000330125
5.82379e-06
0.000328116
6.01702e-06
0.000326045
6.2056e-06
0.000323913
6.3895e-06
0.000321721
6.56865e-06
0.00031947
6.74302e-06
0.000317163
6.91257e-06
0.000314802
7.07729e-06
0.000312386
7.23716e-06
0.00030992
7.39217e-06
0.000307403
7.54233e-06
0.000304838
7.68765e-06
0.000302226
7.82813e-06
0.000299568
7.96382e-06
0.000296868
8.09473e-06
0.000294125
8.2209e-06
0.000291341
8.34238e-06
0.000288519
8.45922e-06
0.000285659
8.57146e-06
0.000282764
8.67918e-06
0.000279834
8.78242e-06
0.000276871
8.88127e-06
0.000273877
8.97579e-06
0.000270852
9.06605e-06
0.000267799
9.15215e-06
0.000264719
9.23415e-06
0.000261613
9.31215e-06
0.000258482
9.38624e-06
0.000255328
9.45649e-06
0.000252151
9.52301e-06
0.000248954
9.58589e-06
0.000245737
9.64523e-06
0.000242502
9.70111e-06
0.000239249
9.75364e-06
0.000235979
9.80292e-06
0.000232694
9.84904e-06
0.000229395
9.89211e-06
0.000226083
9.93221e-06
0.000222758
9.96946e-06
0.000219422
1.00039e-05
0.000216076
1.00358e-05
0.000212719
1.0065e-05
0.000209354
1.00918e-05
0.000205981
1.01162e-05
0.0002026
1.01384e-05
0.000199213
1.01584e-05
0.000195819
1.01762e-05
0.000192421
1.01921e-05
0.000189018
1.02061e-05
0.000185611
1.02183e-05
0.0001822
1.02287e-05
0.000178787
1.02375e-05
0.000175371
1.02447e-05
0.000171954
1.02504e-05
0.000168535
1.02548e-05
0.000165115
1.02578e-05
0.000161694
1.02597e-05
0.000158274
1.02603e-05
0.000154853
1.02599e-05
0.000151433
1.02584e-05
0.000148014
1.0256e-05
0.000144596
1.02527e-05
0.000141179
1.02486e-05
0.000137764
1.02438e-05
0.000134351
1.02383e-05
0.00013094
1.02322e-05
0.000127531
1.02255e-05
0.000124125
1.02183e-05
0.000120721
1.02106e-05
0.00011732
1.02026e-05
0.000113922
1.01942e-05
0.000110527
1.01855e-05
0.000107134
1.01766e-05
0.000103745
1.01675e-05
0.000100359
1.01582e-05
9.6976e-05
1.01489e-05
9.35962e-05
1.01394e-05
9.02195e-05
1.013e-05
8.68461e-05
1.01205e-05
8.34757e-05
1.01111e-05
8.01085e-05
1.01018e-05
7.67444e-05
1.00926e-05
7.33833e-05
1.00836e-05
7.00252e-05
1.00747e-05
6.667e-05
1.00661e-05
6.33176e-05
1.00576e-05
5.99679e-05
1.00495e-05
5.66208e-05
1.00416e-05
5.32763e-05
1.00341e-05
4.99343e-05
1.00268e-05
4.65945e-05
1.002e-05
4.32569e-05
1.00135e-05
3.99213e-05
1.00074e-05
3.65876e-05
1.00017e-05
3.32557e-05
9.99642e-06
2.99254e-05
9.99158e-06
2.65966e-05
9.98719e-06
2.32691e-05
9.98326e-06
1.99428e-05
9.9798e-06
1.66175e-05
9.97682e-06
1.3293e-05
9.97432e-06
9.96914e-06
9.97232e-06
6.64582e-06
9.97081e-06
3.32282e-06
9.96981e-06
9.96931e-06
3.34378e-06
-1.3378e-05
6.68777e-06
-1.33789e-05
1.00322e-05
-1.33805e-05
1.33772e-05
-1.3383e-05
1.67231e-05
-1.33863e-05
2.007e-05
-1.33904e-05
2.34181e-05
-1.33954e-05
2.67677e-05
-1.34011e-05
3.0119e-05
-1.34076e-05
3.3472e-05
-1.34149e-05
3.68271e-05
-1.34229e-05
4.01844e-05
-1.34317e-05
4.35441e-05
-1.34412e-05
4.69064e-05
-1.34514e-05
5.02714e-05
-1.34623e-05
5.36393e-05
-1.34738e-05
5.70102e-05
-1.34859e-05
6.03844e-05
-1.34986e-05
6.37619e-05
-1.35119e-05
6.71429e-05
-1.35257e-05
7.05275e-05
-1.354e-05
7.39158e-05
-1.35547e-05
7.7308e-05
-1.35698e-05
8.0704e-05
-1.35853e-05
8.41041e-05
-1.36012e-05
8.75082e-05
-1.36173e-05
9.09165e-05
-1.36336e-05
9.43289e-05
-1.36501e-05
9.77455e-05
-1.36668e-05
0.000101166
-1.36834e-05
0.000104591
-1.37001e-05
0.000108021
-1.37167e-05
0.000111454
-1.37332e-05
0.000114892
-1.37495e-05
0.000118334
-1.37655e-05
0.000121779
-1.37812e-05
0.000125229
-1.37965e-05
0.000128682
-1.38112e-05
0.000132139
-1.38254e-05
0.000135599
-1.38388e-05
0.000139063
-1.38516e-05
0.00014253
-1.38634e-05
0.000145999
-1.38743e-05
0.000149471
-1.38842e-05
0.000152946
-1.38929e-05
0.000156422
-1.39003e-05
0.0001599
-1.39064e-05
0.000163379
-1.3911e-05
0.000166859
-1.39139e-05
0.000170339
-1.39152e-05
0.00017382
-1.39146e-05
0.0001773
-1.39121e-05
0.000180778
-1.39074e-05
0.000184256
-1.39006e-05
0.000187731
-1.38914e-05
0.000191203
-1.38797e-05
0.000194672
-1.38653e-05
0.000198136
-1.38482e-05
0.000201596
-1.38282e-05
0.00020505
-1.38051e-05
0.000208498
-1.37789e-05
0.000211938
-1.37492e-05
0.00021537
-1.37161e-05
0.000218793
-1.36793e-05
0.000222207
-1.36387e-05
0.000225609
-1.35941e-05
0.000228999
-1.35455e-05
0.000232376
-1.34925e-05
0.000235739
-1.34352e-05
0.000239086
-1.33732e-05
0.000242417
-1.33066e-05
0.00024573
-1.32351e-05
0.000249024
-1.31585e-05
0.000252298
-1.30768e-05
0.00025555
-1.29898e-05
0.00025878
-1.28974e-05
0.000261984
-1.27993e-05
0.000265163
-1.26956e-05
0.000268315
-1.25859e-05
0.000271438
-1.24704e-05
0.000274531
-1.23487e-05
0.000277591
-1.22209e-05
0.000280619
-1.20867e-05
0.000283611
-1.19462e-05
0.000286566
-1.17991e-05
0.000289483
-1.16455e-05
0.000292361
-1.14852e-05
0.000295196
-1.13183e-05
0.000297988
-1.11446e-05
0.000300735
-1.0964e-05
0.000303435
-1.07766e-05
0.000306087
-1.05824e-05
0.000308688
-1.03813e-05
0.000311238
-1.01733e-05
0.000313733
-9.9584e-06
0.000316173
-9.73669e-06
0.000318556
-9.50818e-06
0.00032088
-9.27291e-06
0.000323144
-9.03095e-06
0.000325345
-8.78237e-06
0.000327482
-8.52727e-06
0.000329554
-8.26575e-06
0.000331559
-7.99793e-06
0.000333496
-7.72393e-06
0.000335362
-7.44391e-06
0.000337156
-7.15802e-06
0.000338878
-6.86644e-06
0.000340524
-6.56935e-06
0.000342096
-6.26694e-06
0.00034359
-5.95943e-06
0.000345006
-5.64704e-06
0.000346342
-5.33001e-06
0.000347598
-5.00859e-06
0.000348772
-4.68302e-06
0.000349863
-4.35358e-06
0.000350871
-4.02054e-06
0.000351795
-3.68419e-06
0.000352634
-3.34483e-06
0.000353386
-3.00275e-06
0.000354053
-2.65826e-06
0.000354632
-2.31167e-06
0.000355124
-1.96332e-06
0.000355529
-1.6135e-06
0.000355845
-1.26256e-06
0.000356073
-9.10825e-07
0.000356213
-5.58617e-07
0.000356264
-2.06269e-07
0.000356227
1.45887e-07
0.000356102
4.97526e-07
0.000355889
8.48319e-07
0.000355588
1.19795e-06
0.0003552
1.54608e-06
0.000354725
1.89242e-06
0.000354164
2.23665e-06
0.000353517
2.57847e-06
0.000352785
2.91759e-06
0.000351969
3.25371e-06
0.000351069
3.58656e-06
0.000350087
3.91587e-06
0.000349023
4.24139e-06
0.000347879
4.56285e-06
0.000346655
4.88003e-06
0.000345352
5.1927e-06
0.000343973
5.50064e-06
0.000342517
5.80365e-06
0.000340987
6.10153e-06
0.000339384
6.39412e-06
0.000337709
6.68123e-06
0.000335963
6.96273e-06
0.000334149
7.23847e-06
0.000332266
7.50831e-06
0.000330318
7.77216e-06
0.000328305
8.02989e-06
0.000326229
8.28143e-06
0.000324092
8.5267e-06
0.000321895
8.76563e-06
0.00031964
8.99817e-06
0.000317328
9.22428e-06
0.000314961
9.44393e-06
0.000312542
9.6571e-06
0.00031007
9.86378e-06
0.000307548
1.0064e-05
0.000304978
1.02577e-05
0.000302361
1.0445e-05
0.000299699
1.06258e-05
0.000296994
1.08003e-05
0.000294246
1.09685e-05
0.000291458
1.11304e-05
0.000288631
1.12861e-05
0.000285767
1.14357e-05
0.000282867
1.15792e-05
0.000279933
1.17167e-05
0.000276966
1.18484e-05
0.000273967
1.19743e-05
0.000270939
1.20946e-05
0.000267881
1.22092e-05
0.000264797
1.23184e-05
0.000261687
1.24223e-05
0.000258552
1.25209e-05
0.000255394
1.26145e-05
0.000252214
1.2703e-05
0.000249014
1.27867e-05
0.000245793
1.28657e-05
0.000242554
1.294e-05
0.000239298
1.30099e-05
0.000236025
1.30755e-05
0.000232738
1.31368e-05
0.000229436
1.31941e-05
0.00022612
1.32474e-05
0.000222793
1.32969e-05
0.000219454
1.33427e-05
0.000216105
1.3385e-05
0.000212746
1.34239e-05
0.000209378
1.34595e-05
0.000206003
1.34919e-05
0.00020262
1.35213e-05
0.000199231
1.35477e-05
0.000195835
1.35714e-05
0.000192435
1.35925e-05
0.00018903
1.3611e-05
0.000185621
1.3627e-05
0.000182209
1.36408e-05
0.000178794
1.36524e-05
0.000175377
1.36619e-05
0.000171958
1.36694e-05
0.000168538
1.36751e-05
0.000165117
1.36791e-05
0.000161695
1.36813e-05
0.000158273
1.36821e-05
0.000154852
1.36814e-05
0.000151431
1.36793e-05
0.000148011
1.3676e-05
0.000144592
1.36716e-05
0.000141175
1.3666e-05
0.000137759
1.36595e-05
0.000134345
1.3652e-05
0.000130934
1.36437e-05
0.000127524
1.36347e-05
0.000124117
1.36251e-05
0.000120713
1.36148e-05
0.000117312
1.3604e-05
0.000113913
1.35927e-05
0.000110518
1.35811e-05
0.000107125
1.35691e-05
0.000103736
1.35569e-05
0.00010035
1.35445e-05
9.69666e-05
1.35319e-05
9.35868e-05
1.35193e-05
9.02101e-05
1.35066e-05
8.68367e-05
1.3494e-05
8.34664e-05
1.34814e-05
8.00993e-05
1.34689e-05
7.67354e-05
1.34566e-05
7.33745e-05
1.34445e-05
7.00165e-05
1.34326e-05
6.66616e-05
1.3421e-05
6.33094e-05
1.34098e-05
5.996e-05
1.33989e-05
5.66133e-05
1.33883e-05
5.32691e-05
1.33782e-05
4.99274e-05
1.33686e-05
4.6588e-05
1.33594e-05
4.32508e-05
1.33507e-05
3.99156e-05
1.33425e-05
3.65824e-05
1.33349e-05
3.32509e-05
1.33279e-05
2.99211e-05
1.33214e-05
2.65927e-05
1.33155e-05
2.32657e-05
1.33103e-05
1.99398e-05
1.33057e-05
1.6615e-05
1.33017e-05
1.3291e-05
1.32983e-05
9.96764e-06
1.32957e-05
6.64481e-06
1.32936e-05
3.32232e-06
1.32923e-05
1.32916e-05
3.34294e-06
-1.6721e-05
6.6861e-06
-1.6722e-05
1.00297e-05
-1.67241e-05
1.33739e-05
-1.67272e-05
1.67189e-05
-1.67314e-05
2.0065e-05
-1.67365e-05
2.34124e-05
-1.67427e-05
2.67612e-05
-1.67499e-05
3.01117e-05
-1.67581e-05
3.3464e-05
-1.67672e-05
3.68183e-05
-1.67773e-05
4.01749e-05
-1.67883e-05
4.35339e-05
-1.68002e-05
4.68955e-05
-1.6813e-05
5.02599e-05
-1.68266e-05
5.36271e-05
-1.6841e-05
5.69975e-05
-1.68563e-05
6.03711e-05
-1.68722e-05
6.37481e-05
-1.68889e-05
6.71286e-05
-1.69062e-05
7.05127e-05
-1.69241e-05
7.39006e-05
-1.69426e-05
7.72924e-05
-1.69616e-05
8.06881e-05
-1.69811e-05
8.40879e-05
-1.7001e-05
8.74918e-05
-1.70212e-05
9.08999e-05
-1.70417e-05
9.43122e-05
-1.70624e-05
9.77288e-05
-1.70833e-05
0.00010115
-1.71043e-05
0.000104575
-1.71253e-05
0.000108004
-1.71462e-05
0.000111438
-1.71669e-05
0.000114876
-1.71874e-05
0.000118318
-1.72076e-05
0.000121764
-1.72273e-05
0.000125214
-1.72465e-05
0.000128668
-1.72651e-05
0.000132126
-1.7283e-05
0.000135587
-1.73e-05
0.000139051
-1.73161e-05
0.000142519
-1.73311e-05
0.000145989
-1.73449e-05
0.000149463
-1.73574e-05
0.000152938
-1.73685e-05
0.000156416
-1.7378e-05
0.000159895
-1.73858e-05
0.000163376
-1.73917e-05
0.000166858
-1.73956e-05
0.00017034
-1.73974e-05
0.000173822
-1.7397e-05
0.000177304
-1.7394e-05
0.000180785
-1.73885e-05
0.000184265
-1.73801e-05
0.000187742
-1.73689e-05
0.000191217
-1.73545e-05
0.000194689
-1.73369e-05
0.000198156
-1.73157e-05
0.000201619
-1.7291e-05
0.000205076
-1.72624e-05
0.000208527
-1.72299e-05
0.000211971
-1.71931e-05
0.000215407
-1.7152e-05
0.000218834
-1.71063e-05
0.000222251
-1.70558e-05
0.000225657
-1.70004e-05
0.000229052
-1.69398e-05
0.000232433
-1.68739e-05
0.0002358
-1.68025e-05
0.000239153
-1.67254e-05
0.000242488
-1.66424e-05
0.000245807
-1.65533e-05
0.000249106
-1.64579e-05
0.000252385
-1.6356e-05
0.000255643
-1.62475e-05
0.000258878
-1.61322e-05
0.000262088
-1.60099e-05
0.000265273
-1.58804e-05
0.000268431
-1.57436e-05
0.00027156
-1.55994e-05
0.000274658
-1.54475e-05
0.000277725
-1.52879e-05
0.000280759
-1.51204e-05
0.000283758
-1.49449e-05
0.00028672
-1.47612e-05
0.000289644
-1.45693e-05
0.000292528
-1.43691e-05
0.00029537
-1.41605e-05
0.000298169
-1.39434e-05
0.000300923
-1.37178e-05
0.00030363
-1.34837e-05
0.000306288
-1.32409e-05
0.000308896
-1.29895e-05
0.000311452
-1.27294e-05
0.000313955
-1.24608e-05
0.000316402
-1.21836e-05
0.000318791
-1.18979e-05
0.000321122
-1.16037e-05
0.000323392
-1.13011e-05
0.0003256
-1.09902e-05
0.000327744
-1.06711e-05
0.000329822
-1.0344e-05
0.000331833
-1.0009e-05
0.000333776
-9.6662e-06
0.000335647
-9.31588e-06
0.000337448
-8.95819e-06
0.000339175
-8.59337e-06
0.000340827
-8.22163e-06
0.000342403
-7.84323e-06
0.000343902
-7.45842e-06
0.000345323
-7.0675e-06
0.000346663
-6.67075e-06
0.000347923
-6.26849e-06
0.000349101
-5.86103e-06
0.000350196
-5.44871e-06
0.000351208
-5.03188e-06
0.000352134
-4.61089e-06
0.000352976
-4.18612e-06
0.000353731
-3.75794e-06
0.000354399
-3.32675e-06
0.000354981
-2.89292e-06
0.000355474
-2.45687e-06
0.00035588
-2.01899e-06
0.000356197
-1.5797e-06
0.000356425
-1.13941e-06
0.000356565
-6.98535e-07
0.000356617
-2.57484e-07
0.000356579
1.83327e-07
0.000356453
6.23485e-07
0.000356239
1.06258e-06
0.000355937
1.50021e-06
0.000355547
1.93597e-06
0.00035507
2.36947e-06
0.000354506
2.80033e-06
0.000353856
3.22815e-06
0.000353121
3.65258e-06
0.000352302
4.07325e-06
0.000351399
4.48982e-06
0.000350412
4.90195e-06
0.000349345
5.30931e-06
0.000348196
5.71158e-06
0.000346967
6.10848e-06
0.00034566
6.49972e-06
0.000344276
6.88503e-06
0.000342815
7.26414e-06
0.00034128
7.63684e-06
0.000339671
8.00288e-06
0.000337991
8.36206e-06
0.000336239
8.7142e-06
0.000334418
9.05911e-06
0.00033253
9.39663e-06
0.000330576
9.72663e-06
0.000328557
1.0049e-05
0.000326474
1.03635e-05
0.000324331
1.06702e-05
0.000322128
1.0969e-05
0.000319866
1.12598e-05
0.000317548
1.15425e-05
0.000315175
1.1817e-05
0.000312748
1.20835e-05
0.00031027
1.23419e-05
0.000307742
1.25921e-05
0.000305166
1.28342e-05
0.000302542
1.30682e-05
0.000299874
1.32942e-05
0.000297162
1.35123e-05
0.000294408
1.37224e-05
0.000291614
1.39246e-05
0.000288781
1.41191e-05
0.000285911
1.43059e-05
0.000283005
1.44852e-05
0.000280064
1.46569e-05
0.000277092
1.48214e-05
0.000274087
1.49785e-05
0.000271053
1.51286e-05