/*--------------------------------*- C++ -*----------------------------------*\
| =========                 |                                                 |
| \\      /  F ield         | OpenFOAM: The Open Source CFD Toolbox           |
|  \\    /   O peration     | Version:  v2012                                 |
|   \\  /    A nd           | Website:  www.openfoam.com                      |
|    \\/     M anipulation  |                                                 |
\*---------------------------------------------------------------------------*/
FoamFile
{
    version     2.0;
    format      ascii;
    class       volVectorField;
    location    "16";
    object      Psi;
}
// * * * * * * * * * * * * * * * * * * * * * * * * * * * * * * * * * * * * * //

dimensions      [0 2 -1 0 0 0 0];


internalField   nonuniform List<vector> 
65536
(
(0 0 8.36104e-06)
(0 0 2.50837e-05)
(0 0 4.18079e-05)
(0 0 5.85347e-05)
(0 0 7.52651e-05)
(0 0 9.20001e-05)
(0 0 0.000108741)
(0 0 0.000125488)
(0 0 0.000142243)
(0 0 0.000159006)
(0 0 0.000175779)
(0 0 0.000192563)
(0 0 0.000209357)
(0 0 0.000226164)
(0 0 0.000242985)
(0 0 0.000259818)
(0 0 0.000276667)
(0 0 0.000293531)
(0 0 0.000310411)
(0 0 0.000327308)
(0 0 0.000344223)
(0 0 0.000361155)
(0 0 0.000378106)
(0 0 0.000395076)
(0 0 0.000412065)
(0 0 0.000429074)
(0 0 0.000446104)
(0 0 0.000463153)
(0 0 0.000480224)
(0 0 0.000497314)
(0 0 0.000514426)
(0 0 0.000531558)
(0 0 0.00054871)
(0 0 0.000565883)
(0 0 0.000583076)
(0 0 0.000600288)
(0 0 0.00061752)
(0 0 0.00063477)
(0 0 0.000652037)
(0 0 0.000669322)
(0 0 0.000686623)
(0 0 0.000703939)
(0 0 0.000721269)
(0 0 0.000738611)
(0 0 0.000755965)
(0 0 0.000773329)
(0 0 0.0007907)
(0 0 0.000808078)
(0 0 0.00082546)
(0 0 0.000842845)
(0 0 0.00086023)
(0 0 0.000877612)
(0 0 0.00089499)
(0 0 0.00091236)
(0 0 0.00092972)
(0 0 0.000947066)
(0 0 0.000964395)
(0 0 0.000981705)
(0 0 0.000998991)
(0 0 0.00101625)
(0 0 0.00103348)
(0 0 0.00105067)
(0 0 0.00106782)
(0 0 0.00108493)
(0 0 0.00110199)
(0 0 0.00111899)
(0 0 0.00113594)
(0 0 0.00115282)
(0 0 0.00116964)
(0 0 0.00118638)
(0 0 0.00120304)
(0 0 0.00121961)
(0 0 0.00123609)
(0 0 0.00125247)
(0 0 0.00126874)
(0 0 0.0012849)
(0 0 0.00130094)
(0 0 0.00131686)
(0 0 0.00133264)
(0 0 0.00134828)
(0 0 0.00136378)
(0 0 0.00137911)
(0 0 0.00139429)
(0 0 0.00140929)
(0 0 0.00142411)
(0 0 0.00143874)
(0 0 0.00145318)
(0 0 0.00146741)
(0 0 0.00148143)
(0 0 0.00149523)
(0 0 0.00150879)
(0 0 0.00152212)
(0 0 0.00153521)
(0 0 0.00154804)
(0 0 0.0015606)
(0 0 0.00157289)
(0 0 0.0015849)
(0 0 0.00159662)
(0 0 0.00160804)
(0 0 0.00161916)
(0 0 0.00162996)
(0 0 0.00164044)
(0 0 0.00165059)
(0 0 0.0016604)
(0 0 0.00166987)
(0 0 0.00167898)
(0 0 0.00168773)
(0 0 0.00169612)
(0 0 0.00170413)
(0 0 0.00171176)
(0 0 0.001719)
(0 0 0.00172586)
(0 0 0.00173231)
(0 0 0.00173836)
(0 0 0.001744)
(0 0 0.00174923)
(0 0 0.00175404)
(0 0 0.00175843)
(0 0 0.0017624)
(0 0 0.00176594)
(0 0 0.00176904)
(0 0 0.00177172)
(0 0 0.00177395)
(0 0 0.00177575)
(0 0 0.00177712)
(0 0 0.00177804)
(0 0 0.00177853)
(0 0 0.00177857)
(0 0 0.00177818)
(0 0 0.00177735)
(0 0 0.00177608)
(0 0 0.00177437)
(0 0 0.00177224)
(0 0 0.00176967)
(0 0 0.00176667)
(0 0 0.00176325)
(0 0 0.00175941)
(0 0 0.00175515)
(0 0 0.00175048)
(0 0 0.0017454)
(0 0 0.00173992)
(0 0 0.00173404)
(0 0 0.00172776)
(0 0 0.0017211)
(0 0 0.00171405)
(0 0 0.00170663)
(0 0 0.00169884)
(0 0 0.00169069)
(0 0 0.00168219)
(0 0 0.00167334)
(0 0 0.00166414)
(0 0 0.00165462)
(0 0 0.00164476)
(0 0 0.00163459)
(0 0 0.00162411)
(0 0 0.00161332)
(0 0 0.00160225)
(0 0 0.00159088)
(0 0 0.00157924)
(0 0 0.00156732)
(0 0 0.00155514)
(0 0 0.00154271)
(0 0 0.00153003)
(0 0 0.00151711)
(0 0 0.00150397)
(0 0 0.0014906)
(0 0 0.00147701)
(0 0 0.00146322)
(0 0 0.00144923)
(0 0 0.00143505)
(0 0 0.00142069)
(0 0 0.00140615)
(0 0 0.00139144)
(0 0 0.00137657)
(0 0 0.00136154)
(0 0 0.00134637)
(0 0 0.00133106)
(0 0 0.00131561)
(0 0 0.00130004)
(0 0 0.00128434)
(0 0 0.00126854)
(0 0 0.00125262)
(0 0 0.0012366)
(0 0 0.00122049)
(0 0 0.00120428)
(0 0 0.00118799)
(0 0 0.00117162)
(0 0 0.00115517)
(0 0 0.00113866)
(0 0 0.00112208)
(0 0 0.00110544)
(0 0 0.00108874)
(0 0 0.001072)
(0 0 0.0010552)
(0 0 0.00103837)
(0 0 0.00102149)
(0 0 0.00100458)
(0 0 0.000987639)
(0 0 0.000970667)
(0 0 0.000953671)
(0 0 0.000936653)
(0 0 0.000919616)
(0 0 0.000902562)
(0 0 0.000885495)
(0 0 0.000868417)
(0 0 0.00085133)
(0 0 0.000834237)
(0 0 0.00081714)
(0 0 0.00080004)
(0 0 0.00078294)
(0 0 0.000765841)
(0 0 0.000748746)
(0 0 0.000731655)
(0 0 0.000714569)
(0 0 0.000697492)
(0 0 0.000680422)
(0 0 0.000663363)
(0 0 0.000646313)
(0 0 0.000629275)
(0 0 0.00061225)
(0 0 0.000595237)
(0 0 0.000578238)
(0 0 0.000561253)
(0 0 0.000544282)
(0 0 0.000527327)
(0 0 0.000510387)
(0 0 0.000493462)
(0 0 0.000476552)
(0 0 0.000459658)
(0 0 0.00044278)
(0 0 0.000425918)
(0 0 0.000409071)
(0 0 0.000392239)
(0 0 0.000375423)
(0 0 0.000358621)
(0 0 0.000341834)
(0 0 0.000325061)
(0 0 0.000308302)
(0 0 0.000291556)
(0 0 0.000274823)
(0 0 0.000258102)
(0 0 0.000241393)
(0 0 0.000224695)
(0 0 0.000208008)
(0 0 0.00019133)
(0 0 0.000174661)
(0 0 0.000158001)
(0 0 0.000141348)
(0 0 0.000124703)
(0 0 0.000108063)
(0 0 9.14288e-05)
(0 0 7.47992e-05)
(0 0 5.81732e-05)
(0 0 4.15502e-05)
(0 0 2.49293e-05)
(0 0 8.30963e-06)
(0 0 2.50827e-05)
(0 0 7.52497e-05)
(0 0 0.000125421)
(0 0 0.000175601)
(0 0 0.000225791)
(0 0 0.000275995)
(0 0 0.000326216)
(0 0 0.000376457)
(0 0 0.000426721)
(0 0 0.00047701)
(0 0 0.000527328)
(0 0 0.000577678)
(0 0 0.000628061)
(0 0 0.000678481)
(0 0 0.000728941)
(0 0 0.000779442)
(0 0 0.000829987)
(0 0 0.000880578)
(0 0 0.000931218)
(0 0 0.000981908)
(0 0 0.00103265)
(0 0 0.00108345)
(0 0 0.0011343)
(0 0 0.00118521)
(0 0 0.00123618)
(0 0 0.0012872)
(0 0 0.00133829)
(0 0 0.00138944)
(0 0 0.00144065)
(0 0 0.00149192)
(0 0 0.00154326)
(0 0 0.00159466)
(0 0 0.00164611)
(0 0 0.00169763)
(0 0 0.00174921)
(0 0 0.00180085)
(0 0 0.00185254)
(0 0 0.00190429)
(0 0 0.0019561)
(0 0 0.00200795)
(0 0 0.00205986)
(0 0 0.0021118)
(0 0 0.0021638)
(0 0 0.00221582)
(0 0 0.00226789)
(0 0 0.00231998)
(0 0 0.0023721)
(0 0 0.00242423)
(0 0 0.00247638)
(0 0 0.00252854)
(0 0 0.00258069)
(0 0 0.00263284)
(0 0 0.00268498)
(0 0 0.00273709)
(0 0 0.00278917)
(0 0 0.00284122)
(0 0 0.00289321)
(0 0 0.00294514)
(0 0 0.002997)
(0 0 0.00304878)
(0 0 0.00310047)
(0 0 0.00315205)
(0 0 0.00320351)
(0 0 0.00325484)
(0 0 0.00330602)
(0 0 0.00335704)
(0 0 0.00340789)
(0 0 0.00345855)
(0 0 0.003509)
(0 0 0.00355922)
(0 0 0.0036092)
(0 0 0.00365892)
(0 0 0.00370836)
(0 0 0.00375751)
(0 0 0.00380634)
(0 0 0.00385483)
(0 0 0.00390296)
(0 0 0.00395072)
(0 0 0.00399807)
(0 0 0.004045)
(0 0 0.00409149)
(0 0 0.0041375)
(0 0 0.00418303)
(0 0 0.00422804)
(0 0 0.00427251)
(0 0 0.00431642)
(0 0 0.00435974)
(0 0 0.00440244)
(0 0 0.00444451)
(0 0 0.00448591)
(0 0 0.00452663)
(0 0 0.00456662)
(0 0 0.00460588)
(0 0 0.00464437)
(0 0 0.00468207)
(0 0 0.00471895)
(0 0 0.00475499)
(0 0 0.00479016)
(0 0 0.00482443)
(0 0 0.00485779)
(0 0 0.00489021)
(0 0 0.00492165)
(0 0 0.00495211)
(0 0 0.00498155)
(0 0 0.00500995)
(0 0 0.0050373)
(0 0 0.00506356)
(0 0 0.00508873)
(0 0 0.00511277)
(0 0 0.00513567)
(0 0 0.00515741)
(0 0 0.00517797)
(0 0 0.00519733)
(0 0 0.00521549)
(0 0 0.00523242)
(0 0 0.00524811)
(0 0 0.00526255)
(0 0 0.00527572)
(0 0 0.00528762)
(0 0 0.00529824)
(0 0 0.00530756)
(0 0 0.00531558)
(0 0 0.0053223)
(0 0 0.0053277)
(0 0 0.00533179)
(0 0 0.00533456)
(0 0 0.00533602)
(0 0 0.00533615)
(0 0 0.00533497)
(0 0 0.00533247)
(0 0 0.00532867)
(0 0 0.00532355)
(0 0 0.00531714)
(0 0 0.00530944)
(0 0 0.00530045)
(0 0 0.00529018)
(0 0 0.00527865)
(0 0 0.00526587)
(0 0 0.00525185)
(0 0 0.00523661)
(0 0 0.00522015)
(0 0 0.0052025)
(0 0 0.00518367)
(0 0 0.00516367)
(0 0 0.00514253)
(0 0 0.00512027)
(0 0 0.00509689)
(0 0 0.00507244)
(0 0 0.00504691)
(0 0 0.00502035)
(0 0 0.00499276)
(0 0 0.00496417)
(0 0 0.0049346)
(0 0 0.00490408)
(0 0 0.00487263)
(0 0 0.00484027)
(0 0 0.00480702)
(0 0 0.00477292)
(0 0 0.00473797)
(0 0 0.00470222)
(0 0 0.00466568)
(0 0 0.00462837)
(0 0 0.00459033)
(0 0 0.00455157)
(0 0 0.00451212)
(0 0 0.00447201)
(0 0 0.00443124)
(0 0 0.00438986)
(0 0 0.00434789)
(0 0 0.00430534)
(0 0 0.00426224)
(0 0 0.00421861)
(0 0 0.00417447)
(0 0 0.00412985)
(0 0 0.00408477)
(0 0 0.00403925)
(0 0 0.0039933)
(0 0 0.00394696)
(0 0 0.00390023)
(0 0 0.00385314)
(0 0 0.00380571)
(0 0 0.00375796)
(0 0 0.00370989)
(0 0 0.00366154)
(0 0 0.00361292)
(0 0 0.00356404)
(0 0 0.00351493)
(0 0 0.00346559)
(0 0 0.00341604)
(0 0 0.00336629)
(0 0 0.00331637)
(0 0 0.00326628)
(0 0 0.00321604)
(0 0 0.00316565)
(0 0 0.00311514)
(0 0 0.00306451)
(0 0 0.00301377)
(0 0 0.00296294)
(0 0 0.00291203)
(0 0 0.00286103)
(0 0 0.00280998)
(0 0 0.00275886)
(0 0 0.0027077)
(0 0 0.00265649)
(0 0 0.00260526)
(0 0 0.00255399)
(0 0 0.00250271)
(0 0 0.00245142)
(0 0 0.00240012)
(0 0 0.00234882)
(0 0 0.00229752)
(0 0 0.00224623)
(0 0 0.00219496)
(0 0 0.0021437)
(0 0 0.00209246)
(0 0 0.00204126)
(0 0 0.00199008)
(0 0 0.00193893)
(0 0 0.00188781)
(0 0 0.00183673)
(0 0 0.0017857)
(0 0 0.0017347)
(0 0 0.00168374)
(0 0 0.00163283)
(0 0 0.00158196)
(0 0 0.00153114)
(0 0 0.00148037)
(0 0 0.00142964)
(0 0 0.00137896)
(0 0 0.00132832)
(0 0 0.00127774)
(0 0 0.0012272)
(0 0 0.0011767)
(0 0 0.00112625)
(0 0 0.00107585)
(0 0 0.00102549)
(0 0 0.000975169)
(0 0 0.000924892)
(0 0 0.000874655)
(0 0 0.000824456)
(0 0 0.000774295)
(0 0 0.000724168)
(0 0 0.000674075)
(0 0 0.000624013)
(0 0 0.00057398)
(0 0 0.000523975)
(0 0 0.000473995)
(0 0 0.000424038)
(0 0 0.000374101)
(0 0 0.000324184)
(0 0 0.000274282)
(0 0 0.000224394)
(0 0 0.000174517)
(0 0 0.000124649)
(0 0 7.47866e-05)
(0 0 2.49285e-05)
(0 0 4.18028e-05)
(0 0 0.000125411)
(0 0 0.000209027)
(0 0 0.000292656)
(0 0 0.000376303)
(0 0 0.000459973)
(0 0 0.000543671)
(0 0 0.000627403)
(0 0 0.000711173)
(0 0 0.000794985)
(0 0 0.000878846)
(0 0 0.000962758)
(0 0 0.00104673)
(0 0 0.00113076)
(0 0 0.00121485)
(0 0 0.00129902)
(0 0 0.00138326)
(0 0 0.00146758)
(0 0 0.00155197)
(0 0 0.00163646)
(0 0 0.00172103)
(0 0 0.00180568)
(0 0 0.00189044)
(0 0 0.00197528)
(0 0 0.00206023)
(0 0 0.00214527)
(0 0 0.00223042)
(0 0 0.00231567)
(0 0 0.00240102)
(0 0 0.00248647)
(0 0 0.00257203)
(0 0 0.00265769)
(0 0 0.00274345)
(0 0 0.00282932)
(0 0 0.00291529)
(0 0 0.00300135)
(0 0 0.00308751)
(0 0 0.00317376)
(0 0 0.00326011)
(0 0 0.00334653)
(0 0 0.00343304)
(0 0 0.00351963)
(0 0 0.00360628)
(0 0 0.003693)
(0 0 0.00377978)
(0 0 0.00386661)
(0 0 0.00395347)
(0 0 0.00404037)
(0 0 0.0041273)
(0 0 0.00421423)
(0 0 0.00430117)
(0 0 0.00438809)
(0 0 0.00447499)
(0 0 0.00456186)
(0 0 0.00464867)
(0 0 0.00473542)
(0 0 0.00482208)
(0 0 0.00490865)
(0 0 0.00499509)
(0 0 0.00508141)
(0 0 0.00516756)
(0 0 0.00525355)
(0 0 0.00533933)
(0 0 0.00542489)
(0 0 0.00551022)
(0 0 0.00559527)
(0 0 0.00568003)
(0 0 0.00576448)
(0 0 0.00584858)
(0 0 0.0059323)
(0 0 0.00601562)
(0 0 0.00609851)
(0 0 0.00618094)
(0 0 0.00626287)
(0 0 0.00634427)
(0 0 0.00642511)
(0 0 0.00650536)
(0 0 0.00658497)
(0 0 0.00666392)
(0 0 0.00674216)
(0 0 0.00681967)
(0 0 0.00689639)
(0 0 0.00697229)
(0 0 0.00704734)
(0 0 0.00712148)
(0 0 0.00719469)
(0 0 0.00726691)
(0 0 0.00733812)
(0 0 0.00740826)
(0 0 0.00747729)
(0 0 0.00754517)
(0 0 0.00761186)
(0 0 0.00767732)
(0 0 0.0077415)
(0 0 0.00780436)
(0 0 0.00786586)
(0 0 0.00792595)
(0 0 0.00798459)
(0 0 0.00804175)
(0 0 0.00809737)
(0 0 0.00815142)
(0 0 0.00820386)
(0 0 0.00825464)
(0 0 0.00830374)
(0 0 0.0083511)
(0 0 0.0083967)
(0 0 0.0084405)
(0 0 0.00848246)
(0 0 0.00852255)
(0 0 0.00856073)
(0 0 0.00859698)
(0 0 0.00863127)
(0 0 0.00866357)
(0 0 0.00869385)
(0 0 0.00872208)
(0 0 0.00874824)
(0 0 0.00877232)
(0 0 0.00879429)
(0 0 0.00881413)
(0 0 0.00883183)
(0 0 0.00884738)
(0 0 0.00886075)
(0 0 0.00887195)
(0 0 0.00888096)
(0 0 0.00888778)
(0 0 0.0088924)
(0 0 0.00889482)
(0 0 0.00889505)
(0 0 0.00889308)
(0 0 0.00888891)
(0 0 0.00888256)
(0 0 0.00887403)
(0 0 0.00886334)
(0 0 0.00885049)
(0 0 0.00883549)
(0 0 0.00881838)
(0 0 0.00879915)
(0 0 0.00877783)
(0 0 0.00875445)
(0 0 0.00872903)
(0 0 0.00870158)
(0 0 0.00867214)
(0 0 0.00864073)
(0 0 0.00860739)
(0 0 0.00857214)
(0 0 0.00853501)
(0 0 0.00849603)
(0 0 0.00845525)
(0 0 0.00841268)
(0 0 0.00836838)
(0 0 0.00832238)
(0 0 0.0082747)
(0 0 0.0082254)
(0 0 0.0081745)
(0 0 0.00812205)
(0 0 0.00806809)
(0 0 0.00801266)
(0 0 0.00795579)
(0 0 0.00789752)
(0 0 0.00783791)
(0 0 0.00777698)
(0 0 0.00771478)
(0 0 0.00765135)
(0 0 0.00758672)
(0 0 0.00752094)
(0 0 0.00745406)
(0 0 0.0073861)
(0 0 0.0073171)
(0 0 0.00724712)
(0 0 0.00717617)
(0 0 0.00710431)
(0 0 0.00703157)
(0 0 0.00695799)
(0 0 0.0068836)
(0 0 0.00680844)
(0 0 0.00673255)
(0 0 0.00665595)
(0 0 0.00657869)
(0 0 0.00650079)
(0 0 0.00642228)
(0 0 0.00634321)
(0 0 0.0062636)
(0 0 0.00618348)
(0 0 0.00610288)
(0 0 0.00602182)
(0 0 0.00594034)
(0 0 0.00585846)
(0 0 0.00577621)
(0 0 0.00569361)
(0 0 0.00561069)
(0 0 0.00552747)
(0 0 0.00544397)
(0 0 0.00536022)
(0 0 0.00527623)
(0 0 0.00519203)
(0 0 0.00510763)
(0 0 0.00502306)
(0 0 0.00493833)
(0 0 0.00485346)
(0 0 0.00476846)
(0 0 0.00468336)
(0 0 0.00459816)
(0 0 0.00451287)
(0 0 0.00442753)
(0 0 0.00434212)
(0 0 0.00425668)
(0 0 0.0041712)
(0 0 0.00408571)
(0 0 0.0040002)
(0 0 0.00391469)
(0 0 0.00382919)
(0 0 0.0037437)
(0 0 0.00365824)
(0 0 0.00357281)
(0 0 0.00348741)
(0 0 0.00340206)
(0 0 0.00331676)
(0 0 0.00323151)
(0 0 0.00314631)
(0 0 0.00306118)
(0 0 0.00297611)
(0 0 0.00289112)
(0 0 0.00280619)
(0 0 0.00272134)
(0 0 0.00263656)
(0 0 0.00255185)
(0 0 0.00246723)
(0 0 0.00238268)
(0 0 0.00229821)
(0 0 0.00221382)
(0 0 0.00212951)
(0 0 0.00204528)
(0 0 0.00196112)
(0 0 0.00187704)
(0 0 0.00179303)
(0 0 0.0017091)
(0 0 0.00162524)
(0 0 0.00154144)
(0 0 0.00145772)
(0 0 0.00137405)
(0 0 0.00129045)
(0 0 0.00120691)
(0 0 0.00112342)
(0 0 0.00103999)
(0 0 0.000956603)
(0 0 0.000873263)
(0 0 0.000789965)
(0 0 0.000706706)
(0 0 0.000623482)
(0 0 0.000540288)
(0 0 0.000457121)
(0 0 0.000373977)
(0 0 0.000290851)
(0 0 0.000207741)
(0 0 0.00012464)
(0 0 4.1546e-05)
(0 0 5.85203e-05)
(0 0 0.000175565)
(0 0 0.00029262)
(0 0 0.000409693)
(0 0 0.000526792)
(0 0 0.000643923)
(0 0 0.000761093)
(0 0 0.000878311)
(0 0 0.000995581)
(0 0 0.00111291)
(0 0 0.00123031)
(0 0 0.00134778)
(0 0 0.00146533)
(0 0 0.00158297)
(0 0 0.0017007)
(0 0 0.00181853)
(0 0 0.00193646)
(0 0 0.00205449)
(0 0 0.00217265)
(0 0 0.00229092)
(0 0 0.00240931)
(0 0 0.00252783)
(0 0 0.00264648)
(0 0 0.00276526)
(0 0 0.00288418)
(0 0 0.00300324)
(0 0 0.00312244)
(0 0 0.00324179)
(0 0 0.00336128)
(0 0 0.00348092)
(0 0 0.0036007)
(0 0 0.00372062)
(0 0 0.00384069)
(0 0 0.00396091)
(0 0 0.00408126)
(0 0 0.00420176)
(0 0 0.00432238)
(0 0 0.00444314)
(0 0 0.00456403)
(0 0 0.00468503)
(0 0 0.00480615)
(0 0 0.00492738)
(0 0 0.00504871)
(0 0 0.00517013)
(0 0 0.00529162)
(0 0 0.00541319)
(0 0 0.00553482)
(0 0 0.00565649)
(0 0 0.0057782)
(0 0 0.00589992)
(0 0 0.00602165)
(0 0 0.00614336)
(0 0 0.00626504)
(0 0 0.00638667)
(0 0 0.00650823)
(0 0 0.0066297)
(0 0 0.00675105)
(0 0 0.00687227)
(0 0 0.00699332)
(0 0 0.00711419)
(0 0 0.00723484)
(0 0 0.00735524)
(0 0 0.00747537)
(0 0 0.00759519)
(0 0 0.00771468)
(0 0 0.00783379)
(0 0 0.00795249)
(0 0 0.00807075)
(0 0 0.00818853)
(0 0 0.00830578)
(0 0 0.00842248)
(0 0 0.00853857)
(0 0 0.00865401)
(0 0 0.00876876)
(0 0 0.00888277)
(0 0 0.00899599)
(0 0 0.00910839)
(0 0 0.0092199)
(0 0 0.00933048)
(0 0 0.00944007)
(0 0 0.00954862)
(0 0 0.00965609)
(0 0 0.00976241)
(0 0 0.00986753)
(0 0 0.00997139)
(0 0 0.0100739)
(0 0 0.0101751)
(0 0 0.0102749)
(0 0 0.0103731)
(0 0 0.0104698)
(0 0 0.0105649)
(0 0 0.0106583)
(0 0 0.01075)
(0 0 0.01084)
(0 0 0.010928)
(0 0 0.0110142)
(0 0 0.0110984)
(0 0 0.0111805)
(0 0 0.0112606)
(0 0 0.0113385)
(0 0 0.0114142)
(0 0 0.0114877)
(0 0 0.0115589)
(0 0 0.0116276)
(0 0 0.011694)
(0 0 0.0117579)
(0 0 0.0118193)
(0 0 0.0118781)
(0 0 0.0119342)
(0 0 0.0119877)
(0 0 0.0120385)
(0 0 0.0120866)
(0 0 0.0121318)
(0 0 0.0121742)
(0 0 0.0122138)
(0 0 0.0122505)
(0 0 0.0122842)
(0 0 0.012315)
(0 0 0.0123428)
(0 0 0.0123676)
(0 0 0.0123894)
(0 0 0.0124081)
(0 0 0.0124238)
(0 0 0.0124364)
(0 0 0.012446)
(0 0 0.0124524)
(0 0 0.0124558)
(0 0 0.0124561)
(0 0 0.0124534)
(0 0 0.0124475)
(0 0 0.0124386)
(0 0 0.0124267)
(0 0 0.0124117)
(0 0 0.0123937)
(0 0 0.0123727)
(0 0 0.0123487)
(0 0 0.0123217)
(0 0 0.0122919)
(0 0 0.0122591)
(0 0 0.0122235)
(0 0 0.012185)
(0 0 0.0121438)
(0 0 0.0120997)
(0 0 0.012053)
(0 0 0.0120036)
(0 0 0.0119516)
(0 0 0.011897)
(0 0 0.0118398)
(0 0 0.0117802)
(0 0 0.0117181)
(0 0 0.0116537)
(0 0 0.0115869)
(0 0 0.0115178)
(0 0 0.0114465)
(0 0 0.011373)
(0 0 0.0112974)
(0 0 0.0112197)
(0 0 0.0111401)
(0 0 0.0110584)
(0 0 0.0109749)
(0 0 0.0108896)
(0 0 0.0108024)
(0 0 0.0107136)
(0 0 0.010623)
(0 0 0.0105309)
(0 0 0.0104372)
(0 0 0.010342)
(0 0 0.0102453)
(0 0 0.0101473)
(0 0 0.0100479)
(0 0 0.00994727)
(0 0 0.00984538)
(0 0 0.00974232)
(0 0 0.00963812)
(0 0 0.00953285)
(0 0 0.00942655)
(0 0 0.00931926)
(0 0 0.00921105)
(0 0 0.00910194)
(0 0 0.008992)
(0 0 0.00888125)
(0 0 0.00876976)
(0 0 0.00865754)
(0 0 0.00854466)
(0 0 0.00843114)
(0 0 0.00831703)
(0 0 0.00820237)
(0 0 0.00808718)
(0 0 0.00797151)
(0 0 0.00785538)
(0 0 0.00773884)
(0 0 0.00762192)
(0 0 0.00750463)
(0 0 0.00738702)
(0 0 0.00726911)
(0 0 0.00715093)
(0 0 0.00703251)
(0 0 0.00691386)
(0 0 0.00679502)
(0 0 0.006676)
(0 0 0.00655683)
(0 0 0.00643753)
(0 0 0.00631812)
(0 0 0.00619861)
(0 0 0.00607903)
(0 0 0.00595939)
(0 0 0.00583971)
(0 0 0.00572)
(0 0 0.00560028)
(0 0 0.00548055)
(0 0 0.00536084)
(0 0 0.00524115)
(0 0 0.00512149)
(0 0 0.00500188)
(0 0 0.00488232)
(0 0 0.00476282)
(0 0 0.00464338)
(0 0 0.00452403)
(0 0 0.00440475)
(0 0 0.00428556)
(0 0 0.00416647)
(0 0 0.00404746)
(0 0 0.00392856)
(0 0 0.00380976)
(0 0 0.00369107)
(0 0 0.00357249)
(0 0 0.00345401)
(0 0 0.00333564)
(0 0 0.00321739)
(0 0 0.00309924)
(0 0 0.0029812)
(0 0 0.00286328)
(0 0 0.00274546)
(0 0 0.00262775)
(0 0 0.00251014)
(0 0 0.00239264)
(0 0 0.00227523)
(0 0 0.00215793)
(0 0 0.00204071)
(0 0 0.00192359)
(0 0 0.00180655)
(0 0 0.0016896)
(0 0 0.00157272)
(0 0 0.00145591)
(0 0 0.00133918)
(0 0 0.00122251)
(0 0 0.0011059)
(0 0 0.00098934)
(0 0 0.000872831)
(0 0 0.000756366)
(0 0 0.000639937)
(0 0 0.000523541)
(0 0 0.000407171)
(0 0 0.000290822)
(0 0 0.000174487)
(0 0 5.81615e-05)
(0 0 7.52341e-05)
(0 0 0.000225707)
(0 0 0.000376194)
(0 0 0.000526705)
(0 0 0.000677248)
(0 0 0.000827833)
(0 0 0.000978469)
(0 0 0.00112916)
(0 0 0.00127993)
(0 0 0.00143077)
(0 0 0.0015817)
(0 0 0.00173273)
(0 0 0.00188385)
(0 0 0.00203509)
(0 0 0.00218645)
(0 0 0.00233793)
(0 0 0.00248954)
(0 0 0.0026413)
(0 0 0.0027932)
(0 0 0.00294525)
(0 0 0.00309747)
(0 0 0.00324984)
(0 0 0.00340239)
(0 0 0.0035551)
(0 0 0.003708)
(0 0 0.00386107)
(0 0 0.00401433)
(0 0 0.00416777)
(0 0 0.0043214)
(0 0 0.00447521)
(0 0 0.00462922)
(0 0 0.00478341)
(0 0 0.00493779)
(0 0 0.00509235)
(0 0 0.0052471)
(0 0 0.00540203)
(0 0 0.00555713)
(0 0 0.0057124)
(0 0 0.00586783)
(0 0 0.00602342)
(0 0 0.00617916)
(0 0 0.00633504)
(0 0 0.00649104)
(0 0 0.00664717)
(0 0 0.0068034)
(0 0 0.00695972)
(0 0 0.00711612)
(0 0 0.00727258)
(0 0 0.00742908)
(0 0 0.00758561)
(0 0 0.00774214)
(0 0 0.00789866)
(0 0 0.00805514)
(0 0 0.00821156)
(0 0 0.00836788)
(0 0 0.0085241)
(0 0 0.00868016)
(0 0 0.00883605)
(0 0 0.00899174)
(0 0 0.00914718)
(0 0 0.00930235)
(0 0 0.00945721)
(0 0 0.00961171)
(0 0 0.00976583)
(0 0 0.00991951)
(0 0 0.0100727)
(0 0 0.0102254)
(0 0 0.0103775)
(0 0 0.010529)
(0 0 0.0106798)
(0 0 0.0108299)
(0 0 0.0109793)
(0 0 0.0111278)
(0 0 0.0112754)
(0 0 0.011422)
(0 0 0.0115677)
(0 0 0.0117123)
(0 0 0.0118558)
(0 0 0.011998)
(0 0 0.012139)
(0 0 0.0122787)
(0 0 0.0124169)
(0 0 0.0125537)
(0 0 0.012689)
(0 0 0.0128226)
(0 0 0.0129546)
(0 0 0.0130847)
(0 0 0.0132131)
(0 0 0.0133395)
(0 0 0.0134639)
(0 0 0.0135863)
(0 0 0.0137065)
(0 0 0.0138245)
(0 0 0.0139402)
(0 0 0.0140536)
(0 0 0.0141644)
(0 0 0.0142728)
(0 0 0.0143785)
(0 0 0.0144816)
(0 0 0.0145819)
(0 0 0.0146793)
(0 0 0.0147739)
(0 0 0.0148655)
(0 0 0.014954)
(0 0 0.0150394)
(0 0 0.0151216)
(0 0 0.0152006)
(0 0 0.0152763)
(0 0 0.0153486)
(0 0 0.0154174)
(0 0 0.0154828)
(0 0 0.0155447)
(0 0 0.0156029)
(0 0 0.0156575)
(0 0 0.0157084)
(0 0 0.0157556)
(0 0 0.015799)
(0 0 0.0158387)
(0 0 0.0158744)
(0 0 0.0159064)
(0 0 0.0159344)
(0 0 0.0159585)
(0 0 0.0159787)
(0 0 0.0159949)
(0 0 0.0160072)
(0 0 0.0160156)
(0 0 0.0160199)
(0 0 0.0160203)
(0 0 0.0160167)
(0 0 0.0160092)
(0 0 0.0159978)
(0 0 0.0159824)
(0 0 0.0159631)
(0 0 0.0159399)
(0 0 0.0159128)
(0 0 0.0158819)
(0 0 0.0158472)
(0 0 0.0158088)
(0 0 0.0157666)
(0 0 0.0157207)
(0 0 0.0156712)
(0 0 0.0156181)
(0 0 0.0155615)
(0 0 0.0155013)
(0 0 0.0154377)
(0 0 0.0153708)
(0 0 0.0153005)
(0 0 0.0152269)
(0 0 0.0151501)
(0 0 0.0150702)
(0 0 0.0149873)
(0 0 0.0149013)
(0 0 0.0148124)
(0 0 0.0147206)
(0 0 0.0146261)
(0 0 0.0145288)
(0 0 0.0144288)
(0 0 0.0143263)
(0 0 0.0142212)
(0 0 0.0141138)
(0 0 0.0140039)
(0 0 0.0138918)
(0 0 0.0137774)
(0 0 0.0136609)
(0 0 0.0135424)
(0 0 0.0134218)
(0 0 0.0132993)
(0 0 0.013175)
(0 0 0.0130488)
(0 0 0.012921)
(0 0 0.0127915)
(0 0 0.0126604)
(0 0 0.0125278)
(0 0 0.0123937)
(0 0 0.0122583)
(0 0 0.0121215)
(0 0 0.0119835)
(0 0 0.0118443)
(0 0 0.0117039)
(0 0 0.0115625)
(0 0 0.0114201)
(0 0 0.0112766)
(0 0 0.0111323)
(0 0 0.0109871)
(0 0 0.0108411)
(0 0 0.0106943)
(0 0 0.0105468)
(0 0 0.0103986)
(0 0 0.0102499)
(0 0 0.0101005)
(0 0 0.00995061)
(0 0 0.00980022)
(0 0 0.00964937)
(0 0 0.00949811)
(0 0 0.00934647)
(0 0 0.00919448)
(0 0 0.00904217)
(0 0 0.00888959)
(0 0 0.00873675)
(0 0 0.00858369)
(0 0 0.00843044)
(0 0 0.00827702)
(0 0 0.00812346)
(0 0 0.00796978)
(0 0 0.007816)
(0 0 0.00766215)
(0 0 0.00750825)
(0 0 0.00735431)
(0 0 0.00720036)
(0 0 0.00704641)
(0 0 0.00689247)
(0 0 0.00673856)
(0 0 0.0065847)
(0 0 0.0064309)
(0 0 0.00627716)
(0 0 0.00612351)
(0 0 0.00596994)
(0 0 0.00581647)
(0 0 0.0056631)
(0 0 0.00550985)
(0 0 0.00535672)
(0 0 0.00520371)
(0 0 0.00505083)
(0 0 0.00489809)
(0 0 0.00474548)
(0 0 0.00459301)
(0 0 0.00444068)
(0 0 0.00428849)
(0 0 0.00413645)
(0 0 0.00398455)
(0 0 0.00383279)
(0 0 0.00368117)
(0 0 0.0035297)
(0 0 0.00337836)
(0 0 0.00322715)
(0 0 0.00307608)
(0 0 0.00292514)
(0 0 0.00277432)
(0 0 0.00262362)
(0 0 0.00247304)
(0 0 0.00232257)
(0 0 0.0021722)
(0 0 0.00202194)
(0 0 0.00187177)
(0 0 0.00172169)
(0 0 0.0015717)
(0 0 0.00142178)
(0 0 0.00127193)
(0 0 0.00112214)
(0 0 0.000972406)
(0 0 0.000822722)
(0 0 0.00067308)
(0 0 0.000523471)
(0 0 0.000373889)
(0 0 0.000224326)
(0 0 7.4774e-05)
(0 0 9.19433e-05)
(0 0 0.000275836)
(0 0 0.000459745)
(0 0 0.000643684)
(0 0 0.000827662)
(0 0 0.00101169)
(0 0 0.00119578)
(0 0 0.00137995)
(0 0 0.0015642)
(0 0 0.00174855)
(0 0 0.001933)
(0 0 0.00211757)
(0 0 0.00230226)
(0 0 0.00248709)
(0 0 0.00267207)
(0 0 0.0028572)
(0 0 0.00304249)
(0 0 0.00322795)
(0 0 0.0034136)
(0 0 0.00359943)
(0 0 0.00378546)
(0 0 0.00397169)
(0 0 0.00415812)
(0 0 0.00434477)
(0 0 0.00453163)
(0 0 0.00471871)
(0 0 0.00490602)
(0 0 0.00509356)
(0 0 0.00528132)
(0 0 0.00546932)
(0 0 0.00565755)
(0 0 0.00584601)
(0 0 0.0060347)
(0 0 0.00622362)
(0 0 0.00641276)
(0 0 0.00660212)
(0 0 0.0067917)
(0 0 0.00698149)
(0 0 0.00717147)
(0 0 0.00736166)
(0 0 0.00755202)
(0 0 0.00774256)
(0 0 0.00793326)
(0 0 0.0081241)
(0 0 0.00831507)
(0 0 0.00850616)
(0 0 0.00869735)
(0 0 0.00888862)
(0 0 0.00907994)
(0 0 0.00927129)
(0 0 0.00946265)
(0 0 0.009654)
(0 0 0.0098453)
(0 0 0.0100365)
(0 0 0.0102277)
(0 0 0.0104186)
(0 0 0.0106094)
(0 0 0.0108)
(0 0 0.0109904)
(0 0 0.0111805)
(0 0 0.0113702)
(0 0 0.0115595)
(0 0 0.0117484)
(0 0 0.0119369)
(0 0 0.0121248)
(0 0 0.0123122)
(0 0 0.0124989)
(0 0 0.0126849)
(0 0 0.0128701)
(0 0 0.0130546)
(0 0 0.0132382)
(0 0 0.0134208)
(0 0 0.0136024)
(0 0 0.0137829)
(0 0 0.0139623)
(0 0 0.0141405)
(0 0 0.0143173)
(0 0 0.0144928)
(0 0 0.0146668)
(0 0 0.0148393)
(0 0 0.0150101)
(0 0 0.0151793)
(0 0 0.0153466)
(0 0 0.015512)
(0 0 0.0156755)
(0 0 0.0158369)
(0 0 0.0159962)
(0 0 0.0161532)
(0 0 0.0163079)
(0 0 0.0164601)
(0 0 0.0166099)
(0 0 0.016757)
(0 0 0.0169013)
(0 0 0.0170429)
(0 0 0.0171816)
(0 0 0.0173173)
(0 0 0.0174498)
(0 0 0.0175792)
(0 0 0.0177053)
(0 0 0.017828)
(0 0 0.0179473)
(0 0 0.018063)
(0 0 0.0181751)
(0 0 0.0182834)
(0 0 0.018388)
(0 0 0.0184886)
(0 0 0.0185853)
(0 0 0.0186779)
(0 0 0.0187664)
(0 0 0.0188506)
(0 0 0.0189307)
(0 0 0.0190063)
(0 0 0.0190776)
(0 0 0.0191445)
(0 0 0.0192068)
(0 0 0.0192645)
(0 0 0.0193177)
(0 0 0.0193662)
(0 0 0.01941)
(0 0 0.019449)
(0 0 0.0194833)
(0 0 0.0195128)
(0 0 0.0195375)
(0 0 0.0195574)
(0 0 0.0195725)
(0 0 0.0195826)
(0 0 0.019588)
(0 0 0.0195884)
(0 0 0.0195841)
(0 0 0.0195749)
(0 0 0.0195608)
(0 0 0.019542)
(0 0 0.0195183)
(0 0 0.0194899)
(0 0 0.0194568)
(0 0 0.019419)
(0 0 0.0193765)
(0 0 0.0193294)
(0 0 0.0192778)
(0 0 0.0192216)
(0 0 0.019161)
(0 0 0.019096)
(0 0 0.0190267)
(0 0 0.0189531)
(0 0 0.0188752)
(0 0 0.0187932)
(0 0 0.0187072)
(0 0 0.0186172)
(0 0 0.0185232)
(0 0 0.0184254)
(0 0 0.0183239)
(0 0 0.0182187)
(0 0 0.0181099)
(0 0 0.0179976)
(0 0 0.0178818)
(0 0 0.0177628)
(0 0 0.0176405)
(0 0 0.017515)
(0 0 0.0173865)
(0 0 0.017255)
(0 0 0.0171206)
(0 0 0.0169834)
(0 0 0.0168434)
(0 0 0.0167009)
(0 0 0.0165559)
(0 0 0.0164084)
(0 0 0.0162585)
(0 0 0.0161064)
(0 0 0.0159521)
(0 0 0.0157957)
(0 0 0.0156372)
(0 0 0.0154769)
(0 0 0.0153147)
(0 0 0.0151507)
(0 0 0.014985)
(0 0 0.0148178)
(0 0 0.014649)
(0 0 0.0144787)
(0 0 0.014307)
(0 0 0.014134)
(0 0 0.0139598)
(0 0 0.0137844)
(0 0 0.0136079)
(0 0 0.0134303)
(0 0 0.0132517)
(0 0 0.0130722)
(0 0 0.0128919)
(0 0 0.0127107)
(0 0 0.0125288)
(0 0 0.0123462)
(0 0 0.0121629)
(0 0 0.011979)
(0 0 0.0117945)
(0 0 0.0116096)
(0 0 0.0114242)
(0 0 0.0112383)
(0 0 0.0110521)
(0 0 0.0108656)
(0 0 0.0106787)
(0 0 0.0104916)
(0 0 0.0103042)
(0 0 0.0101166)
(0 0 0.00992891)
(0 0 0.00974104)
(0 0 0.00955304)
(0 0 0.00936497)
(0 0 0.00917682)
(0 0 0.00898864)
(0 0 0.00880044)
(0 0 0.00861225)
(0 0 0.00842407)
(0 0 0.00823594)
(0 0 0.00804786)
(0 0 0.00785985)
(0 0 0.00767193)
(0 0 0.00748411)
(0 0 0.00729639)
(0 0 0.0071088)
(0 0 0.00692134)
(0 0 0.00673402)
(0 0 0.00654685)
(0 0 0.00635983)
(0 0 0.00617297)
(0 0 0.00598628)
(0 0 0.00579975)
(0 0 0.00561339)
(0 0 0.00542721)
(0 0 0.0052412)
(0 0 0.00505537)
(0 0 0.00486972)
(0 0 0.00468424)
(0 0 0.00449893)
(0 0 0.00431379)
(0 0 0.00412883)
(0 0 0.00394403)
(0 0 0.00375939)
(0 0 0.00357491)
(0 0 0.00339059)
(0 0 0.00320641)
(0 0 0.00302237)
(0 0 0.00283848)
(0 0 0.00265471)
(0 0 0.00247107)
(0 0 0.00228754)
(0 0 0.00210412)
(0 0 0.00192081)
(0 0 0.00173759)
(0 0 0.00155445)
(0 0 0.00137139)
(0 0 0.0011884)
(0 0 0.00100547)
(0 0 0.000822584)
(0 0 0.000639744)
(0 0 0.000456937)
(0 0 0.000274153)
(0 0 9.13828e-05)
(0 0 0.000108647)
(0 0 0.000325947)
(0 0 0.000543268)
(0 0 0.000760622)
(0 0 0.000978025)
(0 0 0.00119549)
(0 0 0.00141303)
(0 0 0.00163065)
(0 0 0.00184838)
(0 0 0.00206621)
(0 0 0.00228418)
(0 0 0.00250228)
(0 0 0.00272053)
(0 0 0.00293895)
(0 0 0.00315753)
(0 0 0.0033763)
(0 0 0.00359526)
(0 0 0.00381443)
(0 0 0.00403381)
(0 0 0.00425342)
(0 0 0.00447325)
(0 0 0.00469332)
(0 0 0.00491364)
(0 0 0.00513421)
(0 0 0.00535504)
(0 0 0.00557613)
(0 0 0.00579749)
(0 0 0.00601912)
(0 0 0.00624102)
(0 0 0.0064632)
(0 0 0.00668565)
(0 0 0.00690838)
(0 0 0.00713138)
(0 0 0.00735465)
(0 0 0.0075782)
(0 0 0.007802)
(0 0 0.00802606)
(0 0 0.00825037)
(0 0 0.00847493)
(0 0 0.00869971)
(0 0 0.00892471)
(0 0 0.00914992)
(0 0 0.00937532)
(0 0 0.0096009)
(0 0 0.00982664)
(0 0 0.0100525)
(0 0 0.0102785)
(0 0 0.0105046)
(0 0 0.0107308)
(0 0 0.010957)
(0 0 0.0111832)
(0 0 0.0114094)
(0 0 0.0116355)
(0 0 0.0118616)
(0 0 0.0120876)
(0 0 0.0123133)
(0 0 0.0125389)
(0 0 0.0127643)
(0 0 0.0129893)
(0 0 0.0132141)
(0 0 0.0134384)
(0 0 0.0136623)
(0 0 0.0138857)
(0 0 0.0141085)
(0 0 0.0143307)
(0 0 0.0145522)
(0 0 0.014773)
(0 0 0.014993)
(0 0 0.0152121)
(0 0 0.0154302)
(0 0 0.0156473)
(0 0 0.0158633)
(0 0 0.0160781)
(0 0 0.0162917)
(0 0 0.0165038)
(0 0 0.0167146)
(0 0 0.0169238)
(0 0 0.0171313)
(0 0 0.0173372)
(0 0 0.0175412)
(0 0 0.0177433)
(0 0 0.0179434)
(0 0 0.0181413)
(0 0 0.0183371)
(0 0 0.0185305)
(0 0 0.0187215)
(0 0 0.0189099)
(0 0 0.0190957)
(0 0 0.0192787)
(0 0 0.0194589)
(0 0 0.019636)
(0 0 0.0198101)
(0 0 0.019981)
(0 0 0.0201485)
(0 0 0.0203126)
(0 0 0.0204732)
(0 0 0.0206301)
(0 0 0.0207832)
(0 0 0.0209324)
(0 0 0.0210777)
(0 0 0.0212189)
(0 0 0.0213558)
(0 0 0.0214885)
(0 0 0.0216167)
(0 0 0.0217404)
(0 0 0.0218596)
(0 0 0.021974)
(0 0 0.0220836)
(0 0 0.0221883)
(0 0 0.0222881)
(0 0 0.0223828)
(0 0 0.0224724)
(0 0 0.0225568)
(0 0 0.0226359)
(0 0 0.0227097)
(0 0 0.0227781)
(0 0 0.022841)
(0 0 0.0228984)
(0 0 0.0229502)
(0 0 0.0229964)
(0 0 0.0230371)
(0 0 0.023072)
(0 0 0.0231012)
(0 0 0.0231247)
(0 0 0.0231425)
(0 0 0.0231546)
(0 0 0.0231609)
(0 0 0.0231614)
(0 0 0.0231562)
(0 0 0.0231453)
(0 0 0.0231287)
(0 0 0.0231063)
(0 0 0.0230783)
(0 0 0.0230447)
(0 0 0.0230055)
(0 0 0.0229607)
(0 0 0.0229104)
(0 0 0.0228547)
(0 0 0.0227935)
(0 0 0.022727)
(0 0 0.0226553)
(0 0 0.0225783)
(0 0 0.0224962)
(0 0 0.022409)
(0 0 0.0223169)
(0 0 0.0222198)
(0 0 0.022118)
(0 0 0.0220114)
(0 0 0.0219002)
(0 0 0.0217844)
(0 0 0.0216642)
(0 0 0.0215397)
(0 0 0.0214109)
(0 0 0.0212779)
(0 0 0.021141)
(0 0 0.021)
(0 0 0.0208553)
(0 0 0.0207068)
(0 0 0.0205547)
(0 0 0.020399)
(0 0 0.02024)
(0 0 0.0200776)
(0 0 0.0199121)
(0 0 0.0197434)
(0 0 0.0195718)
(0 0 0.0193973)
(0 0 0.01922)
(0 0 0.01904)
(0 0 0.0188574)
(0 0 0.0186724)
(0 0 0.0184849)
(0 0 0.0182952)
(0 0 0.0181034)
(0 0 0.0179094)
(0 0 0.0177134)
(0 0 0.0175156)
(0 0 0.0173159)
(0 0 0.0171145)
(0 0 0.0169114)
(0 0 0.0167068)
(0 0 0.0165008)
(0 0 0.0162933)
(0 0 0.0160845)
(0 0 0.0158745)
(0 0 0.0156633)
(0 0 0.0154511)
(0 0 0.0152378)
(0 0 0.0150235)
(0 0 0.0148084)
(0 0 0.0145925)
(0 0 0.0143757)
(0 0 0.0141583)
(0 0 0.0139402)
(0 0 0.0137215)
(0 0 0.0135023)
(0 0 0.0132826)
(0 0 0.0130624)
(0 0 0.0128418)
(0 0 0.0126209)
(0 0 0.0123997)
(0 0 0.0121782)
(0 0 0.0119565)
(0 0 0.0117345)
(0 0 0.0115124)
(0 0 0.0112902)
(0 0 0.0110678)
(0 0 0.0108454)