/*--------------------------------*- C++ -*----------------------------------*\
| =========                 |                                                 |
| \\      /  F ield         | OpenFOAM: The Open Source CFD Toolbox           |
|  \\    /   O peration     | Version:  v2012                                 |
|   \\  /    A nd           | Website:  www.openfoam.com                      |
|    \\/     M anipulation  |                                                 |
\*---------------------------------------------------------------------------*/
FoamFile
{
    version     2.0;
    format      ascii;
    class       volScalarField;
    location    "16";
    object      W;
}
// * * * * * * * * * * * * * * * * * * * * * * * * * * * * * * * * * * * * * //

dimensions      [0 0 -1 0 0 0 0];


internalField   nonuniform List<scalar> 
65536
(
1.72354e-14
1.72848e-14
1.76204e-14
1.82431e-14
1.91582e-14
2.03756e-14
2.1909e-14
2.37769e-14
2.60018e-14
2.86113e-14
3.16374e-14
3.51178e-14
3.90955e-14
4.36193e-14
4.87447e-14
5.4534e-14
6.10571e-14
6.8392e-14
7.66257e-14
8.58548e-14
9.61865e-14
1.07739e-13
1.20644e-13
1.35046e-13
1.51104e-13
1.68993e-13
1.88906e-13
2.11053e-13
2.35668e-13
2.63002e-13
2.93334e-13
3.26964e-13
3.64224e-13
4.05471e-13
4.51097e-13
5.01526e-13
5.57217e-13
6.18668e-13
6.86418e-13
7.61049e-13
8.43188e-13
9.3351e-13
1.03274e-12
1.14166e-12
1.26111e-12
1.39197e-12
1.53519e-12
1.69181e-12
1.86289e-12
2.04958e-12
2.25309e-12
2.47472e-12
2.71581e-12
2.97779e-12
3.26215e-12
3.57046e-12
3.90435e-12
4.26553e-12
4.65576e-12
5.07687e-12
5.53074e-12
6.01931e-12
6.54458e-12
7.10855e-12
7.7133e-12
8.36089e-12
9.05342e-12
9.79298e-12
1.05816e-11
1.14215e-11
1.23145e-11
1.32626e-11
1.42677e-11
1.53316e-11
1.6456e-11
1.76424e-11
1.88922e-11
2.02065e-11
2.15865e-11
2.30328e-11
2.45461e-11
2.61266e-11
2.77743e-11
2.94889e-11
3.12697e-11
3.31159e-11
3.5026e-11
3.69982e-11
3.90306e-11
4.11206e-11
4.32653e-11
4.54614e-11
4.77051e-11
4.99923e-11
5.23186e-11
5.46789e-11
5.7068e-11
5.94802e-11
6.19097e-11
6.43501e-11
6.67948e-11
6.92373e-11
7.16703e-11
7.4087e-11
7.64799e-11
7.88418e-11
8.11654e-11
8.34434e-11
8.56686e-11
8.78339e-11
8.99323e-11
9.19572e-11
9.39022e-11
9.57612e-11
9.75283e-11
9.91982e-11
1.00766e-10
1.02227e-10
1.03578e-10
1.04814e-10
1.05934e-10
1.06933e-10
1.07811e-10
1.08566e-10
1.09197e-10
1.09703e-10
1.10085e-10
1.10342e-10
1.10477e-10
1.1049e-10
1.10383e-10
1.10159e-10
1.09818e-10
1.09365e-10
1.08802e-10
1.08132e-10
1.07358e-10
1.06484e-10
1.05512e-10
1.04448e-10
1.03293e-10
1.02052e-10
1.00728e-10
9.93246e-11
9.78444e-11
9.62909e-11
9.46672e-11
9.29762e-11
9.12208e-11
8.94036e-11
8.75273e-11
8.55942e-11
8.36069e-11
8.15677e-11
7.94789e-11
7.73429e-11
7.51619e-11
7.29384e-11
7.0675e-11
6.83744e-11
6.60394e-11
6.36732e-11
6.12793e-11
5.88613e-11
5.64235e-11
5.39702e-11
5.15064e-11
4.90374e-11
4.65691e-11
4.41075e-11
4.16593e-11
3.92314e-11
3.68312e-11
3.44661e-11
3.21438e-11
2.98722e-11
2.7659e-11
2.5512e-11
2.34385e-11
2.14456e-11
1.954e-11
1.77277e-11
1.6014e-11
1.44034e-11
1.28996e-11
1.15052e-11
1.02219e-11
9.05052e-12
7.99058e-12
7.04075e-12
6.19867e-12
5.46103e-12
4.82365e-12
4.28155e-12
3.829e-12
3.45964e-12
3.16657e-12
2.94242e-12
2.77947e-12
2.66974e-12
2.6051e-12
2.5774e-12
2.57854e-12
2.60065e-12
2.63615e-12
2.67795e-12
2.71952e-12
2.75501e-12
2.77941e-12
2.78861e-12
2.77944e-12
2.74977e-12
2.69849e-12
2.62546e-12
2.53149e-12
2.4182e-12
2.28794e-12
2.14358e-12
1.9884e-12
1.82588e-12
1.65955e-12
1.49284e-12
1.32892e-12
1.1706e-12
1.02025e-12
8.79763e-13
7.50507e-13
6.33354e-13
5.28707e-13
4.36551e-13
3.5652e-13
2.87965e-13
2.30026e-13
1.8171e-13
1.41945e-13
1.09643e-13
8.37422e-14
6.32393e-14
4.7216e-14
3.48523e-14
2.54328e-14
1.83467e-14
1.30828e-14
9.22159e-15
6.42467e-15
4.42404e-15
3.01089e-15
2.02525e-15
1.34649e-15
8.85094e-16
5.75739e-16
3.71532e-16
2.39472e-16
1.56923e-16
1.08979e-16
8.66062e-17
2.59172e-14
2.59926e-14
2.64999e-14
2.74405e-14
2.88227e-14
3.06611e-14
3.29771e-14
3.57983e-14
3.91595e-14
4.31023e-14
4.76759e-14
5.29373e-14
5.89522e-14
6.57951e-14
7.35504e-14
8.23133e-14
9.21903e-14
1.03301e-13
1.15777e-13
1.29767e-13
1.45434e-13
1.6296e-13
1.82545e-13
2.0441e-13
2.28799e-13
2.5598e-13
2.86247e-13
3.19926e-13
3.57369e-13
3.98966e-13
4.45141e-13
4.96358e-13
5.53121e-13
6.15983e-13
6.8554e-13
7.62444e-13
8.474e-13
9.41171e-13
1.04458e-12
1.15853e-12
1.28397e-12
1.42193e-12
1.57354e-12
1.73998e-12
1.92253e-12
2.12255e-12
2.34149e-12
2.58092e-12
2.84246e-12
3.12788e-12
3.439e-12
3.77778e-12
4.14627e-12
4.54662e-12
4.98108e-12
5.45201e-12
5.96186e-12
6.51317e-12
7.10857e-12
7.75078e-12
8.44259e-12
9.18683e-12
9.98642e-12
1.08443e-11
1.17634e-11
1.27468e-11
1.37974e-11
1.49181e-11
1.61119e-11
1.73815e-11
1.87296e-11
2.0159e-11
2.16719e-11
2.32706e-11
2.49571e-11
2.67333e-11
2.86005e-11
3.056e-11
3.26126e-11
3.47586e-11
3.69981e-11
3.93307e-11
4.17554e-11
4.42707e-11
4.68747e-11
4.95648e-11
5.23379e-11
5.51902e-11
5.81174e-11
6.11146e-11
6.41762e-11
6.7296e-11
7.04673e-11
7.36826e-11
7.69341e-11
8.02133e-11
8.35114e-11
8.68189e-11
9.0126e-11
9.34227e-11
9.66986e-11
9.99431e-11
1.03145e-10
1.06295e-10
1.0938e-10
1.12392e-10
1.15318e-10
1.18148e-10
1.20874e-10
1.23484e-10
1.25971e-10
1.28325e-10
1.30538e-10
1.32604e-10
1.34515e-10
1.36265e-10
1.37851e-10
1.39266e-10
1.40509e-10
1.41575e-10
1.42465e-10
1.43176e-10
1.43709e-10
1.44064e-10
1.44243e-10
1.44248e-10
1.44081e-10
1.43748e-10
1.43251e-10
1.42595e-10
1.41785e-10
1.40828e-10
1.39727e-10
1.38491e-10
1.37124e-10
1.35633e-10
1.34025e-10
1.32306e-10
1.30483e-10
1.28561e-10
1.26548e-10
1.24449e-10
1.2227e-10
1.20016e-10
1.17694e-10
1.15307e-10
1.12862e-10
1.10362e-10
1.07811e-10
1.05214e-10
1.02574e-10
9.98948e-11
9.71796e-11
9.44313e-11
9.16528e-11
8.88471e-11
8.60168e-11
8.31646e-11
8.02934e-11
7.74059e-11
7.45052e-11
7.15945e-11
6.86771e-11
6.57568e-11
6.28375e-11
5.99237e-11
5.70202e-11
5.41321e-11
5.12649e-11
4.84247e-11
4.56178e-11
4.28508e-11
4.01308e-11
3.74651e-11
3.48608e-11
3.23255e-11
2.98666e-11
2.74913e-11
2.52065e-11
2.30188e-11
2.09343e-11
1.89584e-11
1.70958e-11
1.53503e-11
1.3725e-11
1.22217e-11
1.08415e-11
9.58422e-12
8.44883e-12
7.43317e-12
6.53411e-12
5.74759e-12
5.06869e-12
4.4917e-12
4.01018e-12
3.61711e-12
3.30493e-12
3.06567e-12
2.89102e-12
2.77248e-12
2.70142e-12
2.6692e-12
2.66734e-12
2.68754e-12
2.72193e-12
2.76308e-12
2.8042e-12
2.83925e-12
2.86302e-12
2.87125e-12
2.8607e-12
2.82917e-12
2.7755e-12
2.69957e-12
2.6022e-12
2.48509e-12
2.35062e-12
2.20178e-12
2.04192e-12
1.87461e-12
1.70349e-12
1.53206e-12
1.36358e-12
1.20091e-12
1.04649e-12
9.02239e-13
7.69559e-13
6.49333e-13
5.41967e-13
4.47438e-13
3.65363e-13
2.95069e-13
2.35673e-13
1.86149e-13
1.45396e-13
1.12297e-13
8.57606e-14
6.47572e-14
4.83449e-14
3.56825e-14
2.60364e-14
1.87806e-14
1.33912e-14
9.43825e-15
6.57516e-15
4.52736e-15
3.08102e-15
2.07229e-15
1.37768e-15
9.0555e-16
5.89014e-16
3.80078e-16
2.44968e-16
1.60516e-16
1.11469e-16
8.85839e-17
4.67334e-14
4.68721e-14
4.77932e-14
4.94991e-14
5.20047e-14
5.53373e-14
5.95355e-14
6.46505e-14
7.07455e-14
7.78969e-14
8.61947e-14
9.57434e-14
1.06663e-13
1.1909e-13
1.3318e-13
1.49107e-13
1.67066e-13
1.87276e-13
2.09981e-13
2.35451e-13
2.63988e-13
2.95925e-13
3.31631e-13
3.71512e-13
4.16017e-13
4.65641e-13
5.20925e-13
5.82468e-13
6.50921e-13
7.27003e-13
8.11495e-13
9.05254e-13
1.00921e-12
1.12438e-12
1.25188e-12
1.39289e-12
1.54873e-12
1.7208e-12
1.91063e-12
2.11986e-12
2.35027e-12
2.60376e-12
2.88239e-12
3.18834e-12
3.52398e-12
3.89181e-12
4.29451e-12
4.73492e-12
5.21606e-12
5.74113e-12
6.3135e-12
6.93673e-12
7.61455e-12
8.35089e-12
9.14982e-12
1.00156e-11
1.09527e-11
1.19656e-11
1.30591e-11
1.4238e-11
1.55073e-11
1.6872e-11
1.83371e-11
1.99079e-11
2.15894e-11
2.33868e-11
2.5305e-11
2.7349e-11
2.95237e-11
3.18334e-11
3.42826e-11
3.68752e-11
3.96149e-11
4.25048e-11
4.55477e-11
4.87456e-11
5.21002e-11
5.56123e-11
5.92819e-11
6.31084e-11
6.70902e-11
7.12247e-11
7.55086e-11
7.99373e-11
8.45053e-11
8.92059e-11
9.40314e-11
9.89728e-11
1.0402e-10
1.09162e-10
1.14387e-10
1.19681e-10
1.2503e-10
1.30418e-10
1.35829e-10
1.41246e-10
1.46652e-10
1.52027e-10
1.57353e-10
1.62611e-10
1.67781e-10
1.72843e-10
1.77778e-10
1.82566e-10
1.87189e-10
1.91627e-10
1.95864e-10
1.99881e-10
2.03664e-10
2.07196e-10
2.10465e-10
2.13458e-10
2.16165e-10
2.18575e-10
2.20681e-10
2.22477e-10
2.23959e-10
2.25123e-10
2.25968e-10
2.26496e-10
2.26708e-10
2.26608e-10
2.26201e-10
2.25495e-10
2.24496e-10
2.23214e-10
2.21659e-10
2.19842e-10
2.17776e-10
2.15473e-10
2.12947e-10
2.1021e-10
2.07277e-10
2.04163e-10
2.0088e-10
1.97444e-10
1.93868e-10
1.90165e-10
1.8635e-10
1.82434e-10
1.7843e-10
1.7435e-10
1.70204e-10
1.66004e-10
1.61758e-10
1.57477e-10
1.53167e-10
1.48837e-10
1.44494e-10
1.40144e-10
1.35793e-10
1.31445e-10
1.27107e-10
1.22781e-10
1.18472e-10
1.14183e-10
1.09917e-10
1.05678e-10
1.01468e-10
9.72894e-11
9.3146e-11
8.90405e-11
8.49758e-11
8.09553e-11
7.69826e-11
7.30616e-11
6.91965e-11
6.53919e-11
6.16528e-11
5.79846e-11
5.43929e-11
5.08838e-11
4.74635e-11
4.41386e-11
4.09156e-11
3.78011e-11
3.48016e-11
3.19234e-11
2.91724e-11
2.65541e-11
2.40734e-11
2.17346e-11
1.95411e-11
1.74952e-11
1.55987e-11
1.38519e-11
1.22542e-11
1.08042e-11
9.49897e-12
8.33483e-12
7.30701e-12
6.40985e-12
5.63681e-12
4.98062e-12
4.43333e-12
3.98641e-12
3.6309e-12
3.35746e-12
3.1565e-12
3.01828e-12
2.93305e-12
2.89111e-12
2.88299e-12
2.89953e-12
2.93202e-12
2.97234e-12
3.01308e-12
3.04766e-12
3.07044e-12
3.07683e-12
3.06332e-12
3.02757e-12
2.96833e-12
2.88549e-12
2.77995e-12
2.6535e-12
2.50874e-12
2.34882e-12
2.17735e-12
1.99813e-12
1.81502e-12
1.63176e-12
1.45178e-12
1.27815e-12
1.11343e-12
9.59651e-13
8.18279e-13
6.90241e-13
5.75951e-13
4.75367e-13
3.88069e-13
3.1333e-13
2.50199e-13
1.97578e-13
1.5429e-13
1.19142e-13
9.09697e-14
6.86776e-14
5.12624e-14
3.78293e-14
2.75983e-14
1.99041e-14
1.41902e-14
9.99993e-15
6.9655e-15
4.7955e-15
3.26309e-15
2.1945e-15
1.45876e-15
9.58738e-16
6.23545e-16
4.0232e-16
2.59278e-16
1.69876e-16
1.17957e-16
9.3735e-17
8.82315e-14
8.84997e-14
9.02509e-14
9.34902e-14
9.82464e-14
1.04572e-13
1.1254e-13
1.2225e-13
1.33822e-13
1.47403e-13
1.63165e-13
1.81309e-13
2.02064e-13
2.25693e-13
2.52493e-13
2.82799e-13
3.16985e-13
3.55472e-13
3.98728e-13
4.47274e-13
5.01688e-13
5.62612e-13
6.30756e-13
7.06903e-13
7.91917e-13
8.8675e-13
9.9245e-13
1.11017e-12
1.24116e-12
1.38682e-12
1.54865e-12
1.7283e-12
1.92758e-12
2.14846e-12
2.39305e-12
2.6637e-12
2.96291e-12
3.29341e-12
3.65815e-12
4.0603e-12
4.5033e-12
4.99082e-12
5.52684e-12
6.1156e-12
6.76162e-12
7.46975e-12
8.24516e-12
9.09331e-12
1.002e-11
1.10314e-11
1.21341e-11
1.33347e-11
1.46404e-11
1.60589e-11
1.75977e-11
1.92651e-11
2.10695e-11
2.30194e-11
2.51239e-11
2.73919e-11
2.98328e-11
3.2456e-11
3.52707e-11
3.82866e-11
4.1513e-11
4.49591e-11
4.86339e-11
5.25462e-11
5.67043e-11
6.1116e-11
6.57884e-11
7.07282e-11
7.59409e-11
8.14312e-11
8.72028e-11
9.32579e-11
9.95976e-11
1.06222e-10
1.13128e-10
1.20313e-10
1.2777e-10
1.35494e-10
1.43473e-10
1.51697e-10
1.60153e-10
1.68823e-10
1.77691e-10
1.86736e-10
1.95935e-10
2.05265e-10
2.14698e-10
2.24206e-10
2.33759e-10
2.43324e-10
2.52868e-10
2.62356e-10
2.71752e-10
2.81018e-10
2.90119e-10
2.99015e-10
3.07669e-10
3.16045e-10
3.24104e-10
3.31812e-10
3.39133e-10
3.46036e-10
3.52488e-10
3.58462e-10
3.63931e-10
3.68871e-10
3.73262e-10
3.77085e-10
3.80327e-10
3.82977e-10
3.85026e-10
3.86471e-10
3.87311e-10
3.87549e-10
3.8719e-10
3.86244e-10
3.84724e-10
3.82643e-10
3.80021e-10
3.76878e-10
3.73237e-10
3.69121e-10
3.64557e-10
3.59572e-10
3.54196e-10
3.48458e-10
3.42387e-10
3.36014e-10
3.29369e-10
3.22482e-10
3.15382e-10
3.08099e-10
3.00659e-10
2.93091e-10
2.85419e-10
2.77668e-10
2.69861e-10
2.62019e-10
2.54162e-10
2.46309e-10
2.38476e-10
2.30679e-10
2.22931e-10
2.15244e-10
2.0763e-10
2.00098e-10
1.92657e-10
1.85312e-10
1.78071e-10
1.70938e-10
1.63918e-10
1.57014e-10
1.50229e-10
1.43565e-10
1.37024e-10
1.30609e-10
1.24321e-10
1.18161e-10
1.1213e-10
1.06232e-10
1.00467e-10
9.48386e-11
8.93484e-11
8.39997e-11
7.87957e-11
7.37402e-11
6.88372e-11
6.4091e-11
5.95062e-11
5.50875e-11
5.08398e-11
4.67679e-11
4.28764e-11
3.91697e-11
3.56519e-11
3.23264e-11
2.91959e-11
2.62625e-11
2.35272e-11
2.09902e-11
1.86505e-11
1.65061e-11
1.45538e-11
1.27894e-11
1.12074e-11
9.80137e-12
8.56391e-12
7.48665e-12
6.56044e-12
5.77543e-12
5.12117e-12
4.58672e-12
4.16079e-12
3.83183e-12
3.58815e-12
3.41803e-12
3.30986e-12
3.25223e-12
3.23406e-12
3.24476e-12
3.2743e-12
3.31341e-12
3.35365e-12
3.3876e-12
3.40889e-12
3.41239e-12
3.39418e-12
3.35164e-12
3.28341e-12
3.18938e-12
3.07055e-12
2.92893e-12
2.76739e-12
2.58942e-12
2.399e-12
2.20033e-12
1.99764e-12
1.79503e-12
1.59628e-12
1.40471e-12
1.22314e-12
1.05375e-12
8.98148e-13
7.57314e-13
6.31678e-13
5.21174e-13
4.25315e-13
3.43288e-13
2.74033e-13
2.16333e-13
1.68886e-13
1.30376e-13
9.95207e-14
7.51137e-14
5.60526e-14
4.13544e-14
3.01633e-14
2.17492e-14
1.55024e-14
1.09225e-14
7.60673e-15
5.23603e-15
3.56224e-15
2.39529e-15
1.59199e-15
1.04615e-15
6.80298e-16
4.38878e-16
2.828e-16
1.85262e-16
1.28625e-16
1.02203e-16
1.66744e-13
1.67264e-13
1.70598e-13
1.76756e-13
1.85794e-13
1.97813e-13
2.12955e-13
2.31408e-13
2.53404e-13
2.79224e-13
3.09198e-13
3.43712e-13
3.83206e-13
4.28184e-13
4.79216e-13
5.36945e-13
6.02092e-13
6.75464e-13
7.57963e-13
8.5059e-13
9.54459e-13
1.07081e-12
1.201e-12
1.34654e-12
1.50911e-12
1.69054e-12
1.89285e-12
2.11825e-12
2.3692e-12
2.64835e-12
2.95864e-12
3.30326e-12
3.68568e-12
4.10972e-12
4.57951e-12
5.09953e-12
5.67466e-12
6.31018e-12
7.0118e-12
7.78567e-12
8.63842e-12
9.57721e-12
1.06097e-11
1.17441e-11
1.29891e-11
1.43542e-11
1.58494e-11
1.74851e-11
1.92727e-11
2.12239e-11
2.33513e-11
2.5668e-11
2.81878e-11
3.0925e-11
3.38945e-11
3.7112e-11
4.05933e-11
4.4355e-11
4.8414e-11
5.27874e-11
5.74928e-11
6.25477e-11
6.79698e-11
7.37765e-11
7.99852e-11
8.66128e-11
9.36757e-11
1.01189e-10
1.09168e-10
1.17627e-10
1.26576e-10
1.36027e-10
1.45988e-10
1.56467e-10
1.67467e-10
1.7899e-10
1.91036e-10
2.03599e-10
2.16673e-10
2.30247e-10
2.44305e-10
2.58831e-10
2.738e-10
2.89187e-10
3.0496e-10
3.21084e-10
3.3752e-10
3.54224e-10
3.71147e-10
3.88239e-10
4.05443e-10
4.227e-10
4.39948e-10
4.5712e-10
4.74149e-10
4.90966e-10
5.07497e-10
5.23673e-10
5.39418e-10
5.54662e-10
5.69331e-10
5.83357e-10
5.96671e-10
6.09208e-10
6.20907e-10
6.3171e-10
6.41563e-10
6.50419e-10
6.58236e-10
6.64978e-10
6.70615e-10
6.75124e-10
6.78488e-10
6.80699e-10
6.81754e-10
6.81657e-10
6.80422e-10
6.78064e-10
6.74611e-10
6.70091e-10
6.64541e-10
6.58003e-10
6.50523e-10
6.4215e-10
6.32938e-10
6.22944e-10
6.12227e-10
6.00847e-10
5.88866e-10
5.76346e-10
5.63349e-10
5.49938e-10
5.36172e-10
5.22111e-10
5.07812e-10
4.9333e-10
4.78717e-10
4.64024e-10
4.49297e-10
4.34579e-10
4.19911e-10
4.0533e-10
3.90869e-10
3.76559e-10
3.62427e-10
3.48496e-10
3.34787e-10
3.21317e-10
3.08103e-10
2.95157e-10
2.82487e-10
2.70103e-10
2.5801e-10
2.46213e-10
2.34713e-10
2.23512e-10
2.1261e-10
2.02007e-10
1.91701e-10
1.81689e-10
1.71969e-10
1.6254e-10
1.53397e-10
1.44539e-10
1.35964e-10
1.27669e-10
1.19653e-10
1.11914e-10
1.04452e-10
9.72672e-11
9.0359e-11
8.37282e-11
7.73756e-11
7.13023e-11
6.55096e-11
5.99986e-11
5.47705e-11
4.9826e-11
4.51654e-11
4.07886e-11
3.66945e-11
3.28814e-11
2.93464e-11
2.60858e-11
2.30946e-11
2.03666e-11
1.78946e-11
1.56702e-11
1.36838e-11
1.19249e-11
1.03819e-11
9.04241e-12
7.8934e-12
6.92116e-12
6.11153e-12
5.44999e-12
4.92184e-12
4.51229e-12
4.20656e-12
3.99008e-12
3.84851e-12
3.76797e-12
3.73507e-12
3.73712e-12
3.76222e-12
3.7994e-12
3.8388e-12
3.87173e-12
3.89083e-12
3.89014e-12
3.86518e-12
3.81294e-12
3.73189e-12
3.6219e-12
3.48414e-12
3.32091e-12
3.13547e-12
2.93181e-12
2.71442e-12
2.48805e-12
2.25749e-12
2.02734e-12
1.80186e-12
1.58477e-12
1.37921e-12
1.18762e-12
1.01177e-12
8.52729e-13
7.10952e-13
5.86331e-13
4.78295e-13
3.859e-13
3.07933e-13
2.43008e-13
1.89646e-13
1.46354e-13
1.11682e-13
8.42668e-14
6.28648e-14
4.63675e-14
3.38108e-14
2.43731e-14
1.73685e-14
1.22345e-14
8.51854e-15
5.86245e-15
3.98762e-15
2.68082e-15
1.78144e-15
1.17044e-15
7.60998e-16
4.90861e-16
3.16247e-16
2.07141e-16
1.43794e-16
1.14245e-16
3.11694e-13
3.1269e-13
3.18971e-13
3.30555e-13
3.4755e-13
3.70146e-13
3.98614e-13
4.33311e-13
4.74677e-13
5.23246e-13
5.79645e-13
6.44603e-13
7.1896e-13
8.03671e-13
8.99819e-13
1.00863e-12
1.13147e-12
1.26987e-12
1.42556e-12
1.60043e-12
1.79662e-12
2.01648e-12
2.26261e-12
2.53789e-12
2.84551e-12
3.18897e-12
3.57214e-12
3.99926e-12
4.47499e-12
5.00444e-12
5.5932e-12
6.2474e-12
6.9737e-12
7.77938e-12
8.67237e-12
9.66127e-12
1.07554e-11
1.1965e-11
1.33008e-11
1.47748e-11
1.63997e-11
1.81891e-11
2.01578e-11
2.23214e-11
2.4697e-11
2.73023e-11
3.01565e-11
3.32799e-11
3.6694e-11
4.04214e-11
4.44861e-11
4.8913e-11
5.37286e-11
5.896e-11
6.46358e-11
7.07854e-11
7.74393e-11
8.46286e-11
9.23851e-11
1.00741e-10
1.0973e-10
1.19384e-10
1.29736e-10
1.40818e-10
1.52662e-10
1.653e-10
1.7876e-10
1.9307e-10
2.08257e-10
2.24343e-10
2.41349e-10
2.59291e-10
2.78183e-10
2.98034e-10
3.18847e-10
3.40622e-10
3.6335e-10
3.87018e-10
4.11607e-10
4.3709e-10
4.63431e-10
4.90588e-10
5.18511e-10
5.47142e-10
5.76414e-10
6.06251e-10
6.36571e-10
6.67282e-10
6.98284e-10
7.29472e-10
7.60732e-10
7.91943e-10
8.22981e-10
8.53716e-10
8.84012e-10
9.13734e-10
9.42743e-10
9.70899e-10
9.98064e-10
1.0241e-09
1.04888e-09
1.07226e-09
1.09413e-09
1.11437e-09
1.13287e-09
1.14954e-09
1.16428e-09
1.17702e-09
1.18769e-09
1.19625e-09
1.20265e-09
1.20686e-09
1.20889e-09
1.20873e-09
1.2064e-09
1.20193e-09
1.19536e-09
1.18675e-09
1.17617e-09
1.1637e-09
1.14942e-09
1.13344e-09
1.11586e-09
1.09678e-09
1.07633e-09
1.05463e-09
1.03179e-09
1.00795e-09
9.83233e-10
9.57755e-10
9.31642e-10
9.05014e-10
8.77985e-10
8.50668e-10
8.23167e-10
7.95584e-10
7.68011e-10
7.40538e-10
7.13244e-10
6.86204e-10
6.59483e-10
6.33143e-10
6.07237e-10
5.8181e-10
5.56902e-10
5.32548e-10
5.08776e-10
4.85607e-10
4.63059e-10
4.41144e-10
4.19872e-10
3.99246e-10
3.79267e-10
3.59935e-10
3.41243e-10
3.23186e-10
3.05754e-10
2.88939e-10
2.72728e-10
2.57111e-10
2.42075e-10
2.27607e-10
2.13695e-10
2.00326e-10
1.87489e-10
1.75173e-10
1.63366e-10
1.5206e-10
1.41243e-10
1.30909e-10
1.21049e-10
1.11656e-10
1.02724e-10
9.42462e-11
8.62172e-11
7.86314e-11
7.14831e-11
6.47667e-11
5.84759e-11
5.26042e-11
4.71442e-11
4.20878e-11
3.74257e-11
3.31479e-11
2.92431e-11
2.56988e-11
2.25014e-11
1.96363e-11
1.70878e-11
1.48391e-11
1.28728e-11
1.11706e-11
9.71373e-12
8.48308e-12
7.45918e-12
6.62248e-12
5.95348e-12
5.43284e-12
5.04153e-12
4.76097e-12
4.57312e-12
4.46065e-12
4.40703e-12
4.39671e-12
4.41522e-12
4.44932e-12
4.48717e-12
4.51839e-12
4.53427e-12
4.52776e-12
4.49359e-12
4.42824e-12
4.32994e-12
4.19855e-12
4.03543e-12
3.8433e-12
3.62592e-12
3.38794e-12
3.13454e-12
2.87122e-12
2.60349e-12
2.33663e-12
2.07552e-12
1.82443e-12
1.58691e-12
1.36576e-12
1.16294e-12
9.79659e-13
8.16396e-13
6.7299e-13
5.48749e-13
4.4256e-13
3.53005e-13
2.7847e-13
2.17241e-13
1.67591e-13
1.27844e-13
9.64308e-14
7.19171e-14
5.30286e-14
3.8657e-14
2.78591e-14
1.98475e-14
1.39773e-14
9.72973e-15
6.69449e-15
4.55261e-15
3.06003e-15
2.03304e-15
1.3355e-15
8.68167e-16
5.59893e-16
3.60662e-16
2.36194e-16
1.63937e-16
1.30234e-16
5.7462e-13
5.76509e-13
5.88183e-13
6.09682e-13
6.41209e-13
6.8312e-13
7.35924e-13
8.00288e-13
8.77039e-13
9.67174e-13
1.07187e-12
1.19249e-12
1.33061e-12
1.48802e-12
1.66675e-12
1.86909e-12
2.09763e-12
2.35523e-12
2.64512e-12
2.9709e-12
3.33654e-12
3.74648e-12
4.20563e-12
4.71941e-12
5.29381e-12
5.93545e-12
6.65161e-12
7.45029e-12
8.34031e-12
9.3313e-12
1.04338e-11
1.16595e-11
1.30209e-11
1.45317e-11
1.62071e-11
1.80632e-11
2.01178e-11
2.23901e-11
2.49007e-11
2.76721e-11
3.07284e-11
3.40955e-11
3.78013e-11
4.18757e-11
4.63506e-11
5.12599e-11
5.66399e-11
6.25291e-11
6.8968e-11
7.59995e-11
8.3669e-11
9.20237e-11
1.01113e-10
1.10989e-10
1.21705e-10
1.33317e-10
1.45881e-10
1.59456e-10
1.74101e-10
1.89878e-10
2.06846e-10
2.25067e-10
2.44602e-10
2.65509e-10
2.87847e-10
3.11672e-10
3.37036e-10
3.63989e-10
3.92575e-10
4.22835e-10
4.54802e-10
4.88503e-10
5.23957e-10
5.61172e-10
6.00151e-10
6.40881e-10
6.83341e-10
7.27496e-10
7.73299e-10
8.20687e-10
8.69584e-10
9.19898e-10
9.71522e-10
1.02433e-09
1.07819e-09
1.13295e-09
1.18842e-09
1.24444e-09
1.30079e-09
1.35727e-09
1.41365e-09
1.46969e-09
1.52515e-09
1.57977e-09
1.6333e-09
1.68547e-09
1.73602e-09
1.78469e-09
1.83121e-09
1.87533e-09
1.91681e-09
1.95541e-09
1.99093e-09
2.02314e-09
2.05187e-09
2.07695e-09
2.09825e-09
2.11563e-09
2.12902e-09
2.13834e-09
2.14356e-09
2.14466e-09
2.14165e-09
2.13459e-09
2.12354e-09
2.10859e-09
2.08987e-09
2.06752e-09
2.04169e-09
2.01257e-09
1.98036e-09
1.94526e-09
1.90751e-09
1.86734e-09
1.82498e-09
1.78068e-09
1.73468e-09
1.68723e-09
1.63857e-09
1.58894e-09
1.53857e-09
1.48768e-09
1.43648e-09
1.38518e-09
1.33396e-09
1.28299e-09
1.23245e-09
1.18247e-09
1.13319e-09
1.08473e-09
1.0372e-09
9.90686e-10
9.45267e-10
9.01009e-10
8.57966e-10
8.16179e-10
7.75681e-10
7.36491e-10
6.98624e-10
6.62083e-10
6.26866e-10
5.92963e-10
5.60361e-10
5.2904e-10
4.98976e-10
4.70142e-10
4.42511e-10
4.1605e-10
3.90727e-10
3.66509e-10
3.43362e-10
3.21254e-10
3.0015e-10
2.80019e-10
2.60829e-10
2.4255e-10
2.25154e-10
2.08613e-10
1.92901e-10
1.77994e-10
1.63869e-10
1.50505e-10
1.37881e-10
1.25977e-10
1.14776e-10
1.0426e-10
9.44109e-11
8.52119e-11
7.66459e-11
6.86954e-11
6.13426e-11
5.4569e-11
4.83553e-11
4.26815e-11
3.75264e-11
3.2868e-11
2.86833e-11
2.49482e-11
2.1638e-11
1.87272e-11
1.61896e-11
1.39988e-11
1.21279e-11
1.05501e-11
9.23866e-12
8.16704e-12
7.30917e-12
6.63954e-12
6.13332e-12
5.76654e-12
5.51618e-12
5.36031e-12
5.27822e-12
5.25055e-12
5.25944e-12
5.28867e-12
5.32377e-12
5.35221e-12
5.36343e-12
5.34899e-12
5.3026e-12
5.22006e-12
5.09927e-12
4.9401e-12
4.74417e-12
4.51467e-12
4.25609e-12
3.97385e-12
3.67408e-12
3.36319e-12
3.04762e-12
2.73356e-12
2.42665e-12
2.13186e-12
1.8533e-12
1.59417e-12
1.35674e-12
1.14236e-12
9.51532e-13
7.84032e-13
6.39012e-13
5.1514e-13
4.10732e-13
3.23882e-13
2.52574e-13
1.94779e-13
1.48534e-13
1.12e-13
8.3502e-14
6.15523e-14
4.48578e-14
3.2319e-14
2.30188e-14
1.62066e-14
1.12789e-14
7.75863e-15
5.27514e-15
3.54496e-15
2.35476e-15
1.54655e-15
1.00519e-15
6.48152e-16
4.17446e-16
2.73336e-16
1.89687e-16
1.50675e-16
1.04404e-12
1.04757e-12
1.06897e-12
1.10831e-12
1.16597e-12
1.24262e-12
1.33918e-12
1.4569e-12
1.59731e-12
1.76223e-12
1.95385e-12
2.1747e-12
2.42766e-12
2.71607e-12
3.04367e-12
3.4147e-12
3.83393e-12
4.30671e-12
4.83899e-12
5.43743e-12
6.10943e-12
6.86321e-12
7.70787e-12
8.6535e-12
9.71124e-12
1.08934e-11
1.22135e-11
1.36865e-11
1.53287e-11
1.71581e-11
1.91945e-11
2.14594e-11
2.39764e-11
2.67711e-11
2.98716e-11
3.33082e-11
3.71142e-11
4.13252e-11
4.59802e-11
5.11209e-11
5.67925e-11
6.30436e-11
6.99264e-11
7.74967e-11
8.58142e-11
9.49428e-11
1.0495e-10
1.15908e-10
1.27892e-10
1.40984e-10
1.55267e-10
1.7083e-10
1.87765e-10
2.0617e-10
2.26143e-10
2.47788e-10
2.71212e-10
2.96521e-10
3.23828e-10
3.53244e-10
3.8488e-10
4.18849e-10
4.55262e-10
4.94226e-10
5.35847e-10
5.80226e-10
6.27455e-10
6.77624e-10
7.30808e-10
7.87075e-10
8.46481e-10
9.09067e-10
9.74857e-10
1.04386e-09
1.11606e-09
1.19143e-09
1.26991e-09
1.35142e-09
1.43586e-09
1.52309e-09
1.61295e-09
1.70525e-09
1.79978e-09
1.89627e-09
1.99445e-09
2.09401e-09
2.19461e-09
2.29588e-09
2.39744e-09
2.49886e-09
2.59971e-09
2.69952e-09
2.79783e-09
2.89415e-09
2.98799e-09
3.07885e-09
3.16625e-09
3.24968e-09
3.32868e-09
3.40278e-09
3.47154e-09
3.53454e-09
3.59141e-09
3.6418e-09
3.68539e-09
3.72192e-09
3.75116e-09
3.77295e-09
3.78717e-09
3.79373e-09
3.79264e-09
3.78393e-09
3.76769e-09
3.74405e-09
3.71322e-09
3.67542e-09
3.63095e-09
3.58011e-09
3.52327e-09
3.46083e-09
3.39318e-09
3.32078e-09
3.24407e-09
3.16353e-09
3.07962e-09
2.99282e-09
2.90361e-09
2.81244e-09
2.71978e-09
2.62606e-09
2.5317e-09
2.43711e-09
2.34265e-09
2.24869e-09
2.15555e-09
2.06352e-09
1.97288e-09
1.88386e-09
1.79668e-09
1.71152e-09
1.62854e-09
1.54787e-09
1.46961e-09
1.39385e-09
1.32065e-09
1.25006e-09
1.18208e-09
1.11673e-09
1.054e-09
9.93863e-10
9.36284e-10
8.8122e-10
8.28617e-10
7.78415e-10
7.30548e-10
6.84946e-10
6.41537e-10
6.00245e-10
5.60993e-10
5.23706e-10
4.88308e-10
4.54724e-10
4.22881e-10
3.92708e-10
3.64138e-10
3.37105e-10
3.11546e-10
2.87403e-10
2.64618e-10
2.4314e-10
2.22917e-10
2.03902e-10
1.8605e-10
1.69319e-10
1.53669e-10
1.3906e-10
1.25456e-10
1.12819e-10
1.01116e-10
9.03095e-11
8.03663e-11
7.12511e-11
6.29289e-11
5.53642e-11
4.8521e-11
4.23628e-11
3.68526e-11
3.19528e-11
2.76254e-11
2.38323e-11
2.05353e-11
1.7696e-11
1.52765e-11
1.32395e-11
1.1548e-11
1.01662e-11
9.05901e-12
8.19262e-12
7.53448e-12
7.05346e-12
6.71992e-12
6.50591e-12
6.38523e-12
6.33356e-12
6.32863e-12
6.35034e-12
6.38088e-12
6.40486e-12
6.40944e-12
6.38436e-12
6.32199e-12
6.21731e-12
6.0678e-12
5.87328e-12
5.63572e-12
5.35894e-12
5.04826e-12
4.71017e-12
4.35191e-12
3.98107e-12
3.60528e-12
3.2318e-12
2.86729e-12
2.51757e-12
2.18743e-12
1.88061e-12
1.59972e-12
1.3463e-12
1.12088e-12
9.23159e-13
7.52082e-13
6.06041e-13
4.83018e-13
3.80738e-13
2.96803e-13
2.28807e-13
1.74424e-13
1.31479e-13
9.79948e-14
7.22141e-14
5.26131e-14
3.78963e-14
2.69842e-14
1.89938e-14
1.32155e-14
9.08882e-15
6.17825e-15
4.15103e-15
2.75682e-15
1.8103e-15
1.17641e-15
7.5843e-16
4.88393e-16
3.19741e-16
2.21858e-16
1.76211e-16
1.86934e-12
1.87585e-12
1.91452e-12
1.9855e-12
2.08947e-12
2.22765e-12
2.40175e-12
2.61401e-12
2.86722e-12
3.16473e-12
3.5105e-12
3.90913e-12
4.3659e-12
4.88687e-12
5.47888e-12
6.14968e-12
6.90795e-12
7.76346e-12
8.72711e-12
9.81106e-12
1.10288e-11
1.23955e-11
1.39278e-11
1.5644e-11
1.75648e-11
1.97125e-11
2.21122e-11
2.47911e-11
2.77795e-11
3.11102e-11
3.48197e-11
3.89476e-11
4.35372e-11
4.86359e-11
5.42953e-11
6.05717e-11
6.75258e-11
7.5224e-11
8.37378e-11
9.31445e-11
1.03528e-10
1.14977e-10
1.27588e-10
1.41466e-10
1.5672e-10
1.73468e-10
1.91835e-10
2.11954e-10
2.33967e-10
2.58021e-10
2.84273e-10
3.12885e-10
3.4403e-10
3.77884e-10
4.14633e-10
4.54465e-10
4.97577e-10
5.44168e-10
5.9444e-10
6.48597e-10
7.06846e-10
7.69388e-10
8.36427e-10
9.08156e-10
9.84766e-10
1.06643e-09
1.15333e-09
1.2456e-09
1.34339e-09
1.4468e-09
1.55593e-09
1.67083e-09
1.79153e-09
1.91804e-09
2.05032e-09
2.18827e-09
2.33177e-09
2.48065e-09
2.63469e-09
2.79361e-09
2.95709e-09
3.12473e-09
3.29611e-09
3.47072e-09
3.64801e-09
3.82738e-09
4.00816e-09
4.18964e-09
4.37108e-09
4.55166e-09
4.73055e-09
4.90688e-09
5.07976e-09
5.24828e-09
5.41151e-09
5.56854e-09
5.71846e-09
5.86036e-09
5.99339e-09
6.11672e-09
6.22956e-09
6.33119e-09
6.42094e-09
6.49823e-09
6.56256e-09
6.61349e-09
6.6507e-09
6.67395e-09
6.68312e-09
6.67818e-09
6.65918e-09
6.62631e-09
6.57983e-09
6.52012e-09
6.44761e-09
6.36285e-09
6.26647e-09
6.15913e-09
6.0416e-09
5.91466e-09
5.77915e-09
5.63595e-09
5.48594e-09
5.33003e-09
5.16913e-09
5.00414e-09
4.83593e-09
4.66537e-09
4.49329e-09
4.32049e-09
4.14771e-09
3.97566e-09
3.80499e-09
3.6363e-09
3.47014e-09
3.307e-09
3.1473e-09
2.99144e-09
2.83972e-09
2.69242e-09
2.54977e-09
2.41192e-09
2.27901e-09
2.15112e-09
2.02831e-09
1.91057e-09
1.7979e-09
1.69024e-09
1.58753e-09
1.48966e-09
1.39654e-09
1.30803e-09
1.224e-09
1.1443e-09
1.06879e-09
9.97295e-10
9.29665e-10
8.65736e-10
8.05349e-10
7.48344e-10
6.94567e-10
6.43866e-10
5.96095e-10
5.51113e-10
5.08786e-10
4.68983e-10
4.31584e-10
3.96471e-10
3.63535e-10
3.32673e-10
3.03788e-10
2.76786e-10
2.51582e-10
2.28094e-10
2.06245e-10
1.8596e-10
1.6717e-10
1.49808e-10
1.33808e-10
1.19108e-10
1.05646e-10
9.33621e-11
8.21965e-11
7.20907e-11
6.29864e-11
5.48256e-11
4.75507e-11
4.11045e-11
3.54303e-11
3.04719e-11
2.61738e-11
2.24817e-11
1.93421e-11
1.6703e-11
1.4514e-11
1.27263e-11
1.12931e-11
1.01693e-11
9.31217e-12
8.68117e-12
8.238e-12
7.94684e-12
7.77434e-12
7.68981e-12
7.66531e-12
7.67575e-12
7.69904e-12
7.7162e-12
7.71143e-12
7.6722e-12
7.5892e-12
7.45632e-12
7.27051e-12
7.03158e-12
6.74189e-12
6.40603e-12
6.03038e-12
5.62272e-12
5.19168e-12
4.74633e-12
4.29572e-12
3.8485e-12
3.41253e-12
2.99469e-12
2.60064e-12
2.23475e-12
1.90005e-12
1.5983e-12
1.3301e-12
1.095e-12
8.91706e-13
7.18265e-13
5.72241e-13
4.50901e-13
3.51374e-13
2.70784e-13
2.06356e-13
1.55501e-13
1.15864e-13
8.5358e-14
6.21723e-14
4.47699e-14
3.18707e-14
2.24281e-14
1.56015e-14
1.07275e-14
7.29066e-15
4.8975e-15
3.25199e-15
2.13509e-15
1.38725e-15
8.94217e-16
5.75747e-16
3.76874e-16
2.61464e-16
2.07649e-16
3.2984e-12
3.31025e-12
3.37916e-12
3.50541e-12
3.69025e-12
3.93585e-12
4.2453e-12
4.62263e-12
5.07283e-12
5.60195e-12
6.21707e-12
6.92648e-12
7.73967e-12
8.66752e-12
9.72235e-12
1.09181e-11
1.22704e-11
1.37968e-11
1.55171e-11
1.7453e-11
1.96292e-11
2.20726e-11
2.48135e-11
2.78853e-11
3.13248e-11
3.5173e-11
3.94748e-11
4.42799e-11
4.96429e-11
5.56238e-11
6.22882e-11
6.97084e-11
7.79631e-11
8.71384e-11
9.73282e-11
1.08635e-10
1.21169e-10
1.35051e-10
1.50413e-10
1.67393e-10
1.86146e-10
2.06835e-10
2.29635e-10
2.54735e-10
2.82337e-10
3.12657e-10
3.45922e-10
3.82376e-10
4.22277e-10
4.65894e-10
5.13514e-10
5.65435e-10
6.21969e-10
6.8344e-10
7.50185e-10
8.22551e-10
9.00892e-10
9.85571e-10
1.07696e-09
1.17542e-09
1.28133e-09
1.39506e-09
1.51697e-09
1.6474e-09
1.7867e-09
1.93519e-09
2.09316e-09
2.26087e-09
2.43855e-09
2.6264e-09
2.82455e-09
3.0331e-09
3.25207e-09
3.48143e-09
3.72108e-09
3.97083e-09
4.23042e-09
4.49947e-09
4.77756e-09
5.06412e-09
5.35851e-09
5.65998e-09
5.96767e-09
6.28063e-09
6.59778e-09
6.91796e-09
7.23992e-09
7.5623e-09
7.88366e-09
8.20251e-09
8.51726e-09
8.82629e-09
9.12794e-09
9.42052e-09
9.70234e-09
9.97171e-09
1.0227e-08
1.04665e-08
1.06888e-08
1.08923e-08
1.10757e-08
1.12377e-08
1.13772e-08
1.14933e-08
1.1585e-08
1.16519e-08
1.16933e-08
1.1709e-08
1.1699e-08
1.16633e-08
1.16022e-08
1.15162e-08
1.1406e-08
1.12724e-08
1.11164e-08
1.09392e-08
1.0742e-08
1.05262e-08
1.02933e-08
1.00449e-08
9.78268e-09
9.50823e-09
9.22329e-09
8.92956e-09
8.62874e-09
8.32249e-09
8.01242e-09
7.7001e-09
7.387e-09
7.07453e-09
6.764e-09
6.45661e-09
6.15348e-09
5.85561e-09
5.56389e-09
5.27909e-09
5.0019e-09
4.73289e-09
4.47251e-09
4.22115e-09
3.97908e-09
3.7465e-09
3.52352e-09
3.31019e-09
3.10648e-09
2.91231e-09
2.72756e-09