/*--------------------------------*- C++ -*----------------------------------*\
| =========                 |                                                 |
| \\      /  F ield         | OpenFOAM: The Open Source CFD Toolbox           |
|  \\    /   O peration     | Version:  v2012                                 |
|   \\  /    A nd           | Website:  www.openfoam.com                      |
|    \\/     M anipulation  |                                                 |
\*---------------------------------------------------------------------------*/
FoamFile
{
    version     2.0;
    format      ascii;
    class       volVectorField;
    location    "0";
    object      U;
}
// * * * * * * * * * * * * * * * * * * * * * * * * * * * * * * * * * * * * * //

dimensions      [0 1 -1 0 0 0 0];


internalField   nonuniform List<vector> 
4000
(
(-0.000674936 0.0137061 0)
(-0.000572777 -0.0153814 0)
(0.01842 -0.052824 0)
(0.0843612 0.0478394 0)
(-0.220044 0.0408409 0)
(-0.18682 -0.0425302 0)
(0.00923063 -0.0403266 0)
(0.045865 0.0348952 0)
(0.0662045 -0.0965288 0)
(0.151413 -0.00154508 0)
(-0.0285133 0.161847 0)
(0.0197874 0.0174986 0)
(0.0315798 -0.0622925 0)
(0.0973293 -0.117062 0)
(0.131019 0.0680696 0)
(-0.0184056 0.0874348 0)
(0.0406853 0.0915765 0)
(-0.0683687 -0.0883587 0)
(-0.0146247 -0.0380703 0)
(0.0312851 0.0540264 0)
(0.200246 0.0167751 0)
(-0.105008 -0.0610371 0)
(-0.0590217 -0.0820612 0)
(0.0313066 -0.00611682 0)
(-0.058113 0.0148034 0)
(0.160964 0.0120442 0)
(0.0436921 0.0390908 0)
(0.0364953 0.061936 0)
(0.00428957 -0.0761551 0)
(-0.121151 -0.143139 0)
(0.0529409 -0.0498473 0)
(0.107482 0.198698 0)
(-0.165823 0.131043 0)
(0.0156055 -0.147139 0)
(0.0146512 -0.0809851 0)
(-0.0137648 0.0404368 0)
(0.0183386 0.0383397 0)
(-0.00346916 0.073615 0)
(-0.0199035 -0.053186 0)
(-0.123649 0.0550062 0)
(0.0576877 -0.0172282 0)
(0.0330531 -0.0144158 0)
(0.00363529 -0.0187107 0)
(0.0366944 0.00718584 0)
(0.00947212 0.0184745 0)
(-0.108771 0.0400639 0)
(-0.0479436 -0.0051874 0)
(-0.111182 0.0597691 0)
(-0.156413 0.00637655 0)
(-0.142093 -0.126974 0)
(0.100859 -0.0726151 0)
(0.0067885 0.0452506 0)
(0.0431637 0.0419079 0)
(-0.0485133 0.029228 0)
(-0.0353331 0.0238301 0)
(0.00765433 -0.0274072 0)
(0.0559401 0.0430841 0)
(-0.0273668 0.035335 0)
(0.0283279 -0.012086 0)
(-0.149994 -0.077395 0)
(-0.00289629 -0.0704764 0)
(0.0275731 -0.0418181 0)
(0.00289508 0.0882112 0)
(-0.0401385 0.119035 0)
(-0.0653984 -0.0668315 0)
(0.0653291 -0.0244096 0)
(-0.0532668 0.036802 0)
(0.000566252 -0.0443082 0)
(0.049054 -0.0802332 0)
(-0.0637037 0.045386 0)
(-0.0334825 -0.00162901 0)
(0.0426465 0.0548703 0)
(-0.0161954 -0.0129066 0)
(0.0162455 -0.0143271 0)
(-0.0347059 0.01898 0)
(0.0187313 0.0501467 0)
(-0.186413 -0.0421896 0)
(-0.0851572 0.0230363 0)
(0.0783471 -0.063709 0)
(0.0760465 -0.0840946 0)
(0.00918083 0.0733485 0)
(0.0044646 0.0364507 0)
(-0.113039 0.00840108 0)
(-0.0249071 0.0611126 0)
(0.0431223 -0.00922408 0)
(0.00531798 -0.0232682 0)
(0.0858909 -0.0248044 0)
(0.0306933 -0.078964 0)
(-0.022263 0.0211451 0)
(-0.0477151 0.0263936 0)
(0.0414284 -0.0627205 0)
(0.0505036 0.0154855 0)
(0.109522 0.0695915 0)
(-0.0622002 0.051243 0)
(-0.0598874 -0.0215588 0)
(-0.0723921 -0.0428963 0)
(-0.0496924 0.0208597 0)
(0.101972 0.0372971 0)
(-0.0329469 0.00150964 0)
(-0.00399499 0.00519585 0)
(-0.04109 0.0181342 0)
(0.090598 -0.0606133 0)
(0.0710086 -0.0941561 0)
(-0.00103211 0.113557 0)
(0.0164116 0.184612 0)
(0.030613 -0.114572 0)
(-0.0164599 -0.0936653 0)
(-0.0107413 -0.00231962 0)
(0.0868054 -0.042192 0)
(-0.129939 0.0235561 0)
(0.0428794 0.102663 0)
(-0.0330471 -0.0957229 0)
(0.0285174 0.00735136 0)
(0.0125819 0.0373649 0)
(-0.00219133 0.0286828 0)
(-0.00635715 0.10775 0)
(0.0431386 -0.0239198 0)
(0.022918 -0.156926 0)
(0.134498 0.0044679 0)
(-0.013563 0.0335052 0)
(0.0210181 0.115734 0)
(0.0182372 0.0927393 0)
(-0.0257231 -0.0605503 0)
(-0.0438493 -0.0973005 0)
(-0.0443006 -0.0421262 0)
(-0.0552894 -0.0957412 0)
(0.0621664 0.0143427 0)
(0.0280188 0.117208 0)
(0.0158873 0.0385878 0)
(-0.00112832 -0.0990276 0)
(-0.227081 -0.0480181 0)
(-0.0174152 0.0743591 0)
(0.0357142 0.0446049 0)
(0.0262292 -0.235778 0)
(-0.0796233 0.00965385 0)
(0.10769 0.14183 0)
(0.200568 0.0358865 0)
(-0.0295136 -0.0278923 0)
(-0.0223293 0.0475088 0)
(-0.0657791 0.133287 0)
(0.0454701 -0.079894 0)
(0.024318 -0.108788 0)
(0.044116 0.00734391 0)
(-0.0200294 0.0821939 0)
(-0.156312 0.0379496 0)
(0.0136473 0.0194415 0)
(0.0245805 0.0261906 0)
(0.0144554 0.0258773 0)
(0.0156841 0.0227368 0)
(0.0271953 -0.0954725 0)
(0.000286895 -0.124513 0)
(0.00757179 0.0287707 0)
(-0.0391738 0.0402403 0)
(0.0278378 0.0543092 0)
(-0.0325052 0.00363054 0)
(0.032915 -0.0221708 0)
(0.0381879 -0.016034 0)
(0.0637296 -0.0414638 0)
(0.138882 0.0962201 0)
(0.0170182 0.120041 0)
(-0.20149 -0.098271 0)
(-0.0935959 -0.0278545 0)
(-0.059327 0.043604 0)
(0.154082 -0.0706417 0)
(0.204187 -0.0350594 0)
(-0.0856568 -0.0260238 0)
(0.0197013 0.0735547 0)
(-0.00949486 -0.00694374 0)
(-0.0342176 0.0183267 0)
(0.0240805 0.0858969 0)
(-0.0327683 -0.0545802 0)
(0.0759038 -0.0443706 0)
(-0.0361358 0.048781 0)
(0.0184011 -0.0615849 0)
(-0.0413829 -0.0230911 0)
(-0.010871 0.188224 0)
(0.00788865 -0.0115592 0)
(0.0156187 -0.0896706 0)
(0.062424 -0.137596 0)
(0.0333912 -0.0875342 0)
(0.000874977 0.149493 0)
(-0.00698914 0.12346 0)
(-0.121889 -0.109394 0)
(0.0694057 -0.0372866 0)
(0.102979 -0.00623684 0)
(0.0194335 -0.0109386 0)
(-0.108918 0.0600928 0)
(-0.0446886 0.0379264 0)
(0.00696908 -0.030479 0)
(-0.0748193 0.00828547 0)
(0.0354946 -0.0373845 0)
(-0.0229373 -0.034768 0)
(0.0186834 -0.0744387 0)
(-0.0456668 0.110268 0)
(-0.0386394 0.101663 0)
(0.0346944 -0.0523097 0)
(0.0474446 -0.0103711 0)
(-0.00377173 0.0242791 0)
(0.0327165 0.00976972 0)
(-0.00221313 0.0299109 0)
(0.00462529 0.00187473 0)
(0.000140427 -0.0529097 0)
(-0.00100276 -0.0833143 0)
(0.00126006 0.0801888 0)
(-0.000274397 0.118847 0)
(0.0172392 -0.0281235 0)
(-0.0117899 -0.081049 0)
(-0.027472 -0.0562697 0)
(0.0664933 0.0253733 0)
(-0.11149 0.0646553 0)
(-0.0314867 0.112507 0)
(-0.0736747 -0.0310906 0)
(0.0103671 -0.107669 0)
(0.0969381 0.0528802 0)
(-0.0135012 0.0980549 0)
(0.0141726 -0.0469265 0)
(-0.0160846 -0.0561354 0)
(-0.00681927 0.0173504 0)
(0.0346433 -0.10865 0)
(-0.0128386 0.0328115 0)
(0.00241525 0.144868 0)
(-0.00804921 0.0544112 0)
(0.0533885 -0.0434177 0)
(0.0176374 -0.0267575 0)
(-0.041213 -0.136109 0)
(0.0609619 -0.0478191 0)
(-0.00165739 0.153949 0)
(-0.0610592 0.0305198 0)
(-0.0393075 -0.0141881 0)
(-0.117124 -0.0449813 0)
(-0.0361927 -0.0714455 0)
(0.00645467 -0.0315782 0)
(0.0398228 0.0401255 0)
(0.0345813 -0.0878491 0)
(-0.0828582 -0.0319096 0)
(0.00952255 -0.0090499 0)
(0.209908 0.0244733 0)
(-0.132187 0.267473 0)
(0.0964822 -0.0264756 0)
(0.10612 -0.263136 0)
(0.115726 0.068029 0)
(-0.142699 -0.00101951 0)
(0.0273066 0.0779212 0)
(0.0895407 0.108162 0)
(0.0180364 -0.0776949 0)
(-0.0300585 -0.0253095 0)
(-0.088199 0.163715 0)
(-0.0791822 0.0265753 0)
(-0.056615 -0.111692 0)
(0.13019 -0.102316 0)
(0.0337096 -0.0251123 0)
(-0.059227 0.0282405 0)
(-0.137102 0.0281141 0)
(-0.0684287 0.0523135 0)
(-0.0244965 -0.0459893 0)
(0.0847967 0.00557771 0)
(-0.00290375 -0.0319016 0)
(-0.0423073 0.0397123 0)
(-0.127908 -0.0086688 0)
(0.0806746 0.0692332 0)
(-0.0734126 -0.0128244 0)
(0.1232 -0.0840086 0)
(0.116976 -0.0364295 0)
(0.10871 -0.07533 0)
(0.177696 0.0456149 0)
(-0.0702019 0.171343 0)
(-0.0520286 0.0122383 0)
(0.0157008 -0.117184 0)
(-0.00822529 0.00929147 0)
(0.0639237 0.0191902 0)
(0.0302276 -0.036678 0)
(0.0576461 0.020797 0)
(-0.00991367 0.0257125 0)
(-0.017205 -0.0251298 0)
(-0.056633 0.0474998 0)
(-0.100737 0.0787529 0)
(0.0566353 0.0458273 0)
(0.0503516 -0.0747966 0)
(0.0535764 -0.190889 0)
(0.0309198 -0.0552086 0)
(0.0218249 0.226131 0)
(-0.0603415 0.0966461 0)
(0.0311606 -0.139536 0)
(-0.131667 -0.0466665 0)
(-0.036095 0.0690557 0)
(0.0413179 0.00121602 0)
(0.0456204 0.0526413 0)
(-0.0269799 0.00269725 0)
(-0.0633361 -0.0618656 0)
(-0.109092 -0.0140748 0)
(0.0418 -0.0598617 0)
(0.0126406 0.0675149 0)
(-0.168588 0.0943395 0)
(-0.0240835 -0.0492574 0)
(0.0219891 0.00348214 0)
(-0.00672106 0.0650401 0)
(-0.0284834 -0.0851835 0)
(0.0657529 -0.0104464 0)
(-0.0373688 0.0366779 0)
(-0.00275818 0.00970378 0)
(-0.000326624 0.00832816 0)
(-0.00145045 -0.0390376 0)
(-0.000837599 -0.170798 0)
(0.0183323 0.05469 0)
(0.00391383 0.181548 0)
(-0.109728 0.054625 0)
(0.0192399 -0.0594077 0)
(-0.018965 -0.0635589 0)
(-0.110704 -0.0677714 0)
(0.0799181 0.0781708 0)
(0.00488045 0.113488 0)
(-0.0268504 -0.04015 0)
(0.0394098 -0.000366469 0)
(0.0027893 -0.0833216 0)
(0.0117373 -0.0999951 0)
(0.00716001 -0.0350281 0)
(-0.0194758 0.214726 0)
(0.0338975 0.0218037 0)
(0.14666 -0.159972 0)
(-0.0228935 0.043824 0)
(-0.07317 0.268023 0)
(-0.0273419 -0.0146106 0)
(-0.0428395 -0.0529475 0)
(-0.0419915 -0.077448 0)
(0.110881 -0.304857 0)
(0.205942 -0.0727153 0)
(0.0397723 0.191085 0)
(-0.0130446 0.234351 0)
(-0.0444339 -0.00422106 0)
(-0.0937098 -0.143906 0)
(-0.0346835 -0.112485 0)
(-0.0439059 0.0707425 0)
(-0.00677722 0.0431832 0)
(0.0862072 -0.0555323 0)
(0.0374862 -0.151551 0)
(0.0438964 -0.0708908 0)
(-0.0767646 0.114989 0)
(0.166237 0.154258 0)
(-0.0167432 -0.0554564 0)
(0.0157599 -0.0594493 0)
(-0.000108402 0.1008 0)
(-0.0180451 0.0451479 0)
(-0.0552983 -0.0806567 0)
(0.0401697 0.0441803 0)
(0.0746462 0.0307741 0)
(0.0158274 0.0475729 0)
(-0.00681399 0.130924 0)
(0.0155036 0.0226452 0)
(0.00156682 -0.109086 0)
(0.0311204 -0.12617 0)
(-0.044162 -0.0804401 0)
(0.0289585 0.109054 0)
(-0.0216575 0.0452365 0)
(0.00252163 0.0277921 0)
(-0.0527715 -0.164108 0)
(0.0747711 -0.153894 0)
(0.0380894 0.0857439 0)
(0.0203326 0.102175 0)
(0.00287108 -0.023701 0)
(-0.0652474 0.00842834 0)
(-0.0204566 -0.0513535 0)
(0.00750374 -0.166695 0)
(0.0190109 -0.00492688 0)
(0.0880249 0.00623247 0)
(0.0130293 -0.00918553 0)
(0.0379973 0.216522 0)
(0.116187 0.0636813 0)
(-0.0464971 -0.0963673 0)
(-0.0271854 0.0251769 0)
(0.00866023 0.0124223 0)
(0.0466935 -0.134497 0)
(-0.0289643 0.0601942 0)
(0.0171989 0.0855238 0)
(0.039489 -0.0523057 0)
(-0.0276532 0.190255 0)
(-0.08407 0.119132 0)
(-0.038638 -0.223155 0)
(0.130764 -0.142223 0)
(0.0116314 -0.0714567 0)
(-0.0107354 -0.0382248 0)
(-0.0839416 0.265065 0)
(-0.0527621 0.0527099 0)
(0.0333288 -0.037851 0)
(-0.144389 -0.0645232 0)
(0.0611123 -0.149178 0)
(0.0296102 -0.0137305 0)
(0.0248369 0.152068 0)
(0.153897 0.0182506 0)
(0.024324 -0.0062143 0)
(-0.0675427 0.00443852 0)
(-0.0587179 -0.0725518 0)
(-0.0427445 0.107953 0)
(0.0714105 0.0942013 0)
(-0.0531693 -0.0535225 0)
(-0.0850914 -0.0346832 0)
(0.0444738 -0.0085466 0)
(0.0192061 -0.114927 0)
(-0.0350633 0.0100648 0)
(-0.0567326 0.0509495 0)
(0.0326586 0.0140396 0)
(0.000543081 0.0196073 0)
(0.000849688 -0.0393324 0)
(-0.12835 -0.0728259 0)
(-0.0210704 0.0159773 0)
(0.113901 0.170943 0)
(-0.0216249 0.0459571 0)
(-0.0120151 -0.125213 0)
(0.0524068 -0.113885 0)
(-0.076947 -0.0221475 0)
(0.0404022 0.0368853 0)
(-0.0396187 0.0399033 0)
(-0.0585546 -0.0619771 0)
(0.0622237 0.0172707 0)
(0.0321735 0.126493 0)
(-0.0492285 -0.112647 0)
(-0.00571041 -0.0750001 0)
(0.0564544 0.0182928 0)
(0.14988 -0.055543 0)
(-0.0893624 0.0381567 0)
(-0.122635 0.121702 0)
(-0.0414952 0.128043 0)
(0.178437 0.128091 0)
(0.0633094 0.0111616 0)
(0.142768 -0.261603 0)
(-0.124379 -0.266315 0)
(-0.384434 0.0619165 0)
(-0.121693 0.147073 0)
(0.0771023 0.130466 0)
(0.0465346 0.0609254 0)
(0.0893467 -0.00381096 0)
(0.0441899 -0.0716542 0)
(-0.203595 0.044979 0)
(-0.139675 -0.0950169 0)
(0.0699826 -0.199904 0)
(0.0383139 -0.00772139 0)
(0.0247364 0.0548056 0)
(0.0575057 0.156877 0)
(-0.0440221 -0.028822 0)
(-0.0758133 -0.0189026 0)
(-0.0257655 0.12402 0)
(-0.00928987 0.0564085 0)
(-0.00612221 0.02333 0)
(0.0269417 -0.0842859 0)
(-0.00934523 -0.175411 0)
(0.0993079 0.112214 0)
(0.0972503 0.181601 0)
(0.0122965 0.0664726 0)
(0.116475 -0.0919877 0)
(0.223272 -0.105381 0)
(0.106329 0.0442355 0)
(-0.0740968 -0.0750118 0)
(-0.0105858 -0.0344135 0)
(0.12857 0.0736949 0)
(0.0537328 0.0659596 0)
(0.0599877 -0.0726928 0)
(-0.107144 -0.108677 0)
(-0.100982 0.106567 0)
(0.0195662 0.0319349 0)
(0.0516469 0.00114092 0)
(0.0867518 0.091637 0)
(-0.0928037 -0.0693877 0)
(-0.012177 -0.0921345 0)
(0.0464396 -0.126559 0)
(0.00235823 0.00498636 0)
(-0.0360484 0.0325089 0)
(-0.14928 0.117501 0)
(-0.0116403 0.12199 0)
(0.0923442 -0.0911752 0)
(0.00643497 0.0270278 0)
(0.00752072 0.0133006 0)
(0.0372163 -0.124683 0)
(0.00692306 -0.0116731 0)
(-0.00247141 0.041296 0)
(-0.0147969 -0.0409882 0)
(-0.131854 0.157658 0)
(0.119664 0.119376 0)
(0.0622366 -0.162272 0)
(-0.135505 -0.168913 0)
(0.168671 -0.079225 0)
(-0.0478577 0.0674665 0)
(-0.0759098 0.223665 0)
(0.0592202 0.0387417 0)
(0.0716288 -0.04271 0)
(-0.0770791 0.011343 0)
(-0.162424 -0.123592 0)
(-0.0240184 -0.00152575 0)
(0.0124693 0.0507805 0)
(0.108606 -0.0098738 0)
(0.00249597 0.0830187 0)
(0.0452933 0.0168516 0)
(-0.0515238 -0.015191 0)
(-0.042495 0.0223594 0)
(0.015878 -0.00452766 0)
(-0.0496985 0.0743724 0)
(-0.0150073 -0.000767174 0)
(-0.00511565 -0.0818744 0)
(-0.0492672 -0.102919 0)
(-0.122829 0.00562137 0)
(-0.0590568 0.082256 0)
(0.0030105 0.0160073 0)
(0.000901468 0.0182083 0)
(-0.000832312 0.0526997 0)
(0.021954 -0.123172 0)
(-0.0201762 -0.0142557 0)
(-0.00252688 0.103841 0)
(0.0177851 0.0901759 0)
(-0.0137811 -0.0133282 0)
(-0.0351399 -0.216596 0)
(-0.0947538 -0.115971 0)
(-0.0993583 0.038051 0)
(0.0756661 0.0736376 0)
(0.048122 0.157953 0)
(0.00806715 0.00192956 0)
(0.00668143 -0.0466175 0)
(0.158447 -0.0132036 0)
(0.0196072 -0.0743564 0)
(-0.0281311 0.0182378 0)
(-0.0246237 0.0638361 0)
(-0.00363726 0.154197 0)
(0.00790895 0.0346126 0)
(0.0333871 -0.143512 0)
(0.0105512 0.052062 0)
(-0.0190193 -0.0989968 0)
(0.0296177 -0.0353213 0)
(-0.0741273 0.0738595 0)
(0.000834107 -0.0342093 0)
(-0.100616 -0.00117191 0)
(-0.0483093 0.0257452 0)
(0.0105329 0.00755837 0)
(-0.0496283 -0.0439944 0)
(-0.000429566 -0.0171444 0)
(0.040636 0.0766689 0)
(0.0522677 -0.103141 0)
(0.00871036 -0.0697342 0)
(-0.0747933 -0.0263051 0)
(0.0079689 -0.0849706 0)
(0.0660959 0.100055 0)
(0.0390364 0.306383 0)
(0.00156986 0.00516029 0)
(-0.0293332 -0.168546 0)
(0.0610285 0.0132467 0)
(0.01076 0.0311855 0)
(-0.0289455 -0.0601618 0)
(-0.000708359 -0.0959966 0)
(-0.0124237 0.0203755 0)
(-0.00722993 0.126188 0)
(0.0275403 0.162144 0)
(0.0725972 -0.116571 0)
(-0.0298745 -0.0646119 0)
(0.0300368 0.00927666 0)
(0.0157311 -0.0176549 0)
(0.0209466 -0.0423193 0)
(-0.00565707 0.0857896 0)
(-0.0149217 0.0574087 0)
(0.028408 -0.0498764 0)
(-0.0322906 -0.0673531 0)
(0.00820425 0.048997 0)
(-0.00659831 0.132013 0)
(-0.0791535 -0.062631 0)
(-0.0755483 -0.0488234 0)
(0.0702664 -0.0254844 0)
(0.148014 -0.125359 0)
(-0.0391686 -0.0666622 0)
(-0.0300172 0.101432 0)
(-0.0738915 -0.0298627 0)
(-0.0362535 0.0455595 0)
(0.126024 0.0126393 0)
(0.0269478 -0.0230834 0)
(0.0786711 0.112558 0)
(-0.0907331 -0.0171082 0)
(-0.0307127 -0.0925901 0)
(-0.0418703 0.056567 0)
(-0.0145039 -0.0284921 0)
(-0.0163025 0.0249668 0)
(0.0197404 0.169088 0)
(-0.0618879 -0.0302461 0)
(-0.028951 -0.0544216 0)
(0.00338722 -0.155951 0)
(-0.00666438 -0.180432 0)
(0.048335 0.155632 0)
(-0.0356934 0.180791 0)
(0.0396452 0.0621265 0)
(-0.10188 -0.00585906 0)
(-0.0760606 0.0518147 0)
(0.0914474 -0.154929 0)
(0.121476 -0.120347 0)
(-0.0674029 0.0156093 0)
(-0.0724001 0.0219748 0)
(0.062328 0.0902887 0)
(0.0498277 0.0283417 0)
(-0.0210946 -0.0131149 0)
(-0.0118674 0.0485238 0)
(0.0491029 0.0417736 0)
(0.0896853 -0.00570037 0)
(0.108662 -0.0434447 0)
(0.0173667 0.0229358 0)
(-0.0913614 -0.0488533 0)
(-0.005642 -0.0241558 0)
(-0.0136777 0.00410354 0)
(0.0526563 -0.00999748 0)
(-0.000529087 0.0461865 0)
(-0.000610874 -0.0597026 0)
(0.00478506 -0.0819461 0)
(0.0400217 0.127695 0)
(0.0200237 -0.00651087 0)
(0.00141437 0.0741714 0)
(-0.0104803 0.0918255 0)
(0.0382596 -0.260748 0)
(-0.0069455 -0.0718667 0)
(0.035556 -0.00875412 0)
(-0.0335142 -0.0281265 0)
(-0.00195735 0.162475 0)
(-0.00498262 0.119135 0)
(-0.0911348 -0.106156 0)
(0.0347498 -0.115325 0)
(0.0470323 -0.109671 0)
(-0.00975991 0.142563 0)
(0.0652339 0.0518228 0)
(0.0276617 0.0225802 0)
(0.000502984 -0.0516169 0)
(0.041832 0.00612309 0)
(-0.0965625 0.159733 0)
(0.00728228 -0.114537 0)
(-0.000154044 -0.228753 0)
(-0.0623268 0.1075 0)
(0.0408362 0.105345 0)
(0.000792967 -0.0992733 0)
(0.020577 0.0576622 0)
(0.0126482 0.131092 0)
(-0.0964264 -0.097061 0)
(-0.11637 -0.0164583 0)
(-0.05626 -0.104664 0)
(0.0216965 -0.0593137 0)
(0.106769 0.0644446 0)
(-0.0648094 -0.103239 0)
(-0.00147517 -0.018062 0)
(-0.0509712 0.103824 0)
(-0.0575759 0.0467003 0)
(0.178546 0.0403315 0)
(-0.0916723 -0.0488717 0)
(-0.0051172 0.0679768 0)
(0.157964 0.0465885 0)
(-0.0367464 -0.167841 0)
(0.107565 -0.0883565 0)
(-0.0068486 0.0664404 0)
(-0.0977294 0.139045 0)
(0.0335955 0.11064 0)
(0.0235899 -0.0255811 0)
(-0.0871921 -0.0188237 0)
(0.0692665 -0.0378885 0)
(-0.0403577 -0.0547926 0)
(-0.0755706 0.00944377 0)
(-0.00232736 0.0950011 0)
(0.0767844 0.0350194 0)
(-0.0766317 -0.0711786 0)
(0.0289631 -0.0229127 0)
(-0.135025 0.0454536 0)
(-0.0650346 0.103707 0)
(-0.177948 -0.0462025 0)
(0.00324723 -0.164932 0)
(0.0460259 -0.0577915 0)
(0.0155704 -0.0565547 0)
(-0.0964511 0.144003 0)
(-0.0119881 0.0275366 0)
(-0.0356964 -0.0757548 0)
(-0.113358 0.0019601 0)
(-0.0190249 -0.0350365 0)
(-0.0117786 0.0854973 0)
(0.00204613 0.123117 0)
(0.0137312 0.0523698 0)
(-0.00599135 -0.0871986 0)
(-0.0155866 -0.103113 0)
(0.0461027 -0.0060418 0)
(0.0802905 0.0641708 0)
(0.0232421 0.14761 0)
(-0.0432498 -0.00767938 0)
(-0.00373674 -0.161461 0)
(0.0383456 -0.12252 0)
(-0.00275282 -0.0844124 0)
(-0.204032 0.12121 0)
(0.11754 0.143441 0)
(-0.077767 0.0488385 0)
(-0.0811969 0.00544128 0)
(0.189575 -0.107122 0)
(0.0843912 -0.19549 0)
(0.0224982 0.0283194 0)
(-0.0735981 0.139266 0)
(-0.0164251 0.0366173 0)
(0.0498514 -0.046144 0)
(0.041359 -0.0302452 0)
(-0.0389522 0.0139283 0)
(0.0562786 0.0613009 0)
(0.0194945 0.0288741 0)
(0.0786581 -0.00885251 0)
(-0.0162075 0.0592459 0)
(0.00474344 0.0165726 0)
(0.0261136 -0.0817586 0)
(-0.0644289 -0.0443826 0)
(0.0141753 -0.0238424 0)
(-0.0461681 0.0292769 0)
(0.00343805 0.0162653 0)
(-0.00116685 -0.0361496 0)
(0.0059025 0.0662118 0)
(0.0877887 0.0682372 0)
(-0.00537469 -0.188818 0)
(0.0238913 0.0526823 0)
(0.155324 0.110503 0)
(0.066058 -0.0547181 0)
(-0.147986 -0.050145 0)
(-0.187344 -0.0582846 0)
(0.0121731 -0.0532185 0)
(0.0701634 0.0899074 0)
(-0.0143475 0.0630863 0)
(0.0067883 -0.015274 0)
(0.00865335 -0.0433399 0)
(-0.0308918 -0.202453 0)
(-0.0238127 0.0192086 0)
(0.0680852 0.0688194 0)
(0.046673 -0.0485198 0)
(0.0224664 0.208912 0)
(-0.0149281 -0.0267221 0)
(0.0167902 -0.031237 0)
(-0.033619 0.118759 0)
(-0.0500295 -0.175455 0)
(4.77155e-05 -0.0286031 0)
(0.079531 0.207027 0)
(0.076716 -0.0341731 0)
(-0.0565057 -0.131535 0)
(-0.0111433 0.127784 0)
(-0.0474814 0.0617331 0)
(-0.0316974 -0.144085 0)
(-0.00136141 -0.0534566 0)
(-0.0123352 -0.0591075 0)
(0.0133765 0.0100763 0)
(0.0122152 -0.00322702 0)
(0.00752474 -0.0191928 0)
(0.040371 0.106761 0)
(0.0314712 -0.0239494 0)
(0.0933796 0.0252888 0)
(-0.0882032 0.0806533 0)
(-0.111244 -0.0212728 0)
(0.0791009 -0.0798084 0)
(-0.0015936 -0.0995206 0)
(-0.0119723 -0.0877405 0)
(-0.113125 0.0869749 0)
(0.054476 0.174942 0)
(0.185869 0.0166057 0)
(0.0771383 0.00673714 0)
(0.0125974 0.0161997 0)
(0.119414 -0.0433981 0)
(-0.0453406 -0.0475654 0)
(0.0693904 0.0644305 0)
(0.0936619 0.0567083 0)
(0.0511644 -0.0390901 0)
(-0.0418299 -0.0204543 0)
(0.0667343 0.00244543 0)
(-0.0520046 0.156901 0)
(-0.0241204 0.135566 0)
(0.0105106 -0.0732111 0)
(-0.0702139 -0.167645 0)
(-0.00764427 -0.0855021 0)
(-0.0199167 -0.0320901 0)
(0.0643208 0.0539856 0)
(-0.00186 -0.0178555 0)
(-0.0446471 0.100377 0)
(-0.0153206 0.0109737 0)
(0.0961669 -0.0547809 0)
(-0.0235006 0.0538148 0)
(-0.042904 0.0401818 0)
(0.0202434 -0.0480085 0)
(0.127819 -0.0511437 0)
(0.0208459 -0.0189904 0)
(0.0240996 -0.0456863 0)
(-0.0038446 0.0665273 0)
(-0.0254462 0.223948 0)
(-0.0178283 -0.0439282 0)
(0.203941 -0.238553 0)
(-0.0781782 -0.0244279 0)
(-0.104012 0.00486694 0)
(0.0621953 0.107039 0)
(-0.0137583 0.0876049 0)
(0.0591388 0.0331262 0)
(-0.0568341 -0.00651223 0)
(0.258479 -0.203834 0)
(0.144877 -0.0169838 0)
(-0.0239216 0.17591 0)
(0.108985 0.0466931 0)
(-0.0464209 -0.111293 0)
(-0.0552691 0.073941 0)
(-0.0407646 0.0483553 0)
(0.0253265 -0.0284069 0)
(0.00629903 -0.0442948 0)
(-0.0413118 5.11538e-05 0)
(0.127178 0.116626 0)
(0.0552004 0.0464972 0)
(0.179259 -0.0648379 0)
(0.0354303 0.00696671 0)
(0.00041803 -0.0276442 0)
(-0.11632 0.0365324 0)
(-0.0669678 0.0249945 0)
(0.00081757 0.0414034 0)
(-0.00175257 -0.0111623 0)
(-0.000415334 -0.028653 0)
(-0.00549983 0.0459814 0)
(0.0575903 -0.133477 0)
(0.0848828 0.0101235 0)
(0.0111881 0.114508 0)
(0.0106779 -0.0257039 0)
(0.0106014 0.00170545 0)
(-0.0330369 0.0710216 0)
(0.0383498 -0.228474 0)
(0.039071 -0.0335012 0)
(0.0800113 0.354147 0)
(-0.071615 -0.0194685 0)
(0.021889 -0.20921 0)
(0.0070714 0.00662466 0)
(-0.120789 0.0572194 0)
(-0.106793 0.0656667 0)
(-0.177932 -0.0436826 0)
(0.0547594 0.0212393 0)
(0.163544 0.08193 0)
(-0.076243 0.0635877 0)
(-0.0335632 -0.100811 0)
(0.0323048 -0.0889597 0)
(-0.0445863 0.0430264 0)
(-0.11563 -0.112906 0)
(0.254359 -0.0564362 0)
(-0.158864 0.0619192 0)
(0.0256143 0.118114 0)
(0.0422785 0.0817577 0)
(-0.0195481 -0.222014 0)
(0.062648 -0.0605946 0)
(-0.0441698 0.0918729 0)
(-0.121694 -0.0590761 0)
(0.0182698 -0.0693392 0)
(-0.194649 0.0254761 0)
(-0.0725192 -0.0402657 0)
(0.123751 -0.036585 0)
(0.0778606 0.207605 0)
(0.0290044 0.185259 0)
(-0.0558797 -0.0889498 0)
(-0.101338 -0.189261 0)
(-0.0537769 -0.0130257 0)
(-0.153654 0.0256981 0)
(0.000206888 -0.0241962 0)
(-0.0505988 0.00981308 0)
(0.136724 0.0111255 0)
(0.0767372 0.147043 0)
(0.00719462 0.125949 0)
(0.12562 -0.141976 0)
(-0.0599659 -0.126274 0)
(-0.0644804 0.0526436 0)
(0.140973 0.0413029 0)
(-0.0112543 -0.0362183 0)
(0.0633088 -0.0292586 0)
(-0.0175287 0.00978553 0)
(0.0462363 0.133857 0)
(-0.158448 0.135974 0)
(-0.109107 -0.0738308 0)
(0.00527038 -0.143487 0)
(0.114547 -0.133652 0)
(0.0281552 -0.0427006 0)
(0.0485757 0.0957892 0)
(0.0390755 -0.0780419 0)
(-0.0605531 0.0176243 0)
(0.154118 -0.00337777 0)
(0.0575824 -0.0364481 0)
(-0.153214 0.148622 0)
(0.0108611 0.105893 0)
(-0.0612698 -0.052072 0)
(-0.00941923 -0.116263 0)
(-0.123591 -0.0622667 0)
(0.0222084 0.0565321 0)
(0.0121985 0.0615517 0)
(0.00400939 0.142639 0)
(0.118672 -0.139778 0)
(0.0266945 -0.146797 0)
(0.0489633 0.0399077 0)
(-0.0593691 -0.00649386 0)
(-0.0115137 0.0101336 0)
(0.00216715 0.139534 0)
(0.0168875 0.118747 0)
(0.0136736 -0.0604662 0)
(0.00091736 -0.289525 0)
(0.00310089 0.0298644 0)
(-0.0652632 0.110511 0)
(-0.0047865 0.0214904 0)
(0.0310909 0.12961 0)
(-0.150368 0.0553403 0)
(0.058216 -0.0685296 0)
(0.00312963 -0.0243872 0)
(-0.00748739 -0.0275849 0)
(-0.040277 -0.0701982 0)
(0.0205276 0.067884 0)
(-0.0505997 0.0552464 0)
(-0.0594456 -0.0320644 0)
(-0.0876465 0.0847339 0)
(-0.00662556 0.0505428 0)
(0.00156306 -0.0238819 0)
(0.0112368 -0.0475998 0)
(0.0100581 0.0160872 0)
(0.00813049 -0.0348284 0)
(-0.000670086 0.0341289 0)
(-0.0224424 -0.0503316 0)
(-0.00792048 -0.0724701 0)
(-0.0171158 0.0668635 0)
(0.00181617 0.0732437 0)
(-0.0657624 -0.0304409 0)
(-0.0105652 -0.0297803 0)
(0.0238784 0.0252853 0)
(-0.02703 -0.11515 0)
(-0.106368 -0.111246 0)
(0.0466008 0.299122 0)
(-0.0454743 0.0618354 0)
(0.045357 -0.286424 0)
(-0.061401 0.0373942 0)
(-0.0709791 -0.0328156 0)
(0.266998 0.12448 0)
(-0.0958666 0.0416258 0)
(-0.0379436 -0.0283767 0)
(0.00529453 0.113247 0)
(0.117458 -0.0798927 0)
(0.314952 -0.20101 0)
(-0.0526331 0.034769 0)
(-0.144806 -0.0491601 0)
(0.169181 -0.0610791 0)
(0.0602062 0.204633 0)
(-0.223249 0.139247 0)
(-0.0244902 -0.0657004 0)
(0.00625372 0.0213328 0)
(0.00912616 -0.097061 0)
(0.0630719 -0.111356 0)
(-0.0226095 0.0481242 0)
(0.0303113 -0.0709745 0)
(-0.0612261 0.0982215 0)
(-0.0400506 0.18557 0)
(-9.73828e-05 -0.253714 0)
(0.00705729 -0.190973 0)
(0.0380777 0.251611 0)
(0.00625632 0.176088 0)
(0.00199014 -0.0420911 0)
(-0.0212697 -0.030632 0)
(-0.0333761 0.0662323 0)
(-0.00414644 -0.0851501 0)
(-0.0628762 -0.13161 0)
(0.020224 -0.018069 0)
(0.171985 -0.0372407 0)
(0.0740769 0.136246 0)
(0.0722778 0.0829478 0)
(0.146189 -0.0854002 0)
(-0.0342276 -0.0039423 0)
(-0.167384 0.0321188 0)
(-0.0635741 -0.039063 0)
(-0.00277941 -0.0818848 0)
(0.0343261 0.0994796 0)
(-0.0156441 -0.0355324 0)
(0.00686591 0.127054 0)
(-0.0432999 0.309769 0)
(-0.0617588 -0.0518992 0)
(-0.0474279 -0.319664 0)
(0.0117907 -0.0755221 0)
(-0.0865736 0.0315432 0)
(0.0681828 -0.00163227 0)
(-0.0154691 0.0781349 0)
(-0.232089 -0.0719213 0)
(-0.000136988 -0.0334071 0)
(0.0322417 0.0809379 0)
(-0.0870148 0.105208 0)
(0.0697235 -0.0313486 0)
(0.130329 -0.0534346 0)
(0.0761918 0.0049723 0)
(-0.0326014 -0.0975795 0)
(0.131464 -0.0721697 0)
(-0.0555136 0.196943 0)
(0.0383147 0.0895213 0)
(0.00475104 -0.180218 0)
(-0.0781249 -0.0479818 0)
(-0.0167334 0.078844 0)
(0.0311582 0.00620273 0)
(-0.12262 0.0361353 0)
(-0.0787503 0.0342389 0)
(0.0444037 0.0648434 0)
(-0.038176 -0.0544993 0)
(-0.000880502 -0.148466 0)
(-0.0346317 -0.0255825 0)
(0.0630186 0.11836 0)
(0.00869526 0.0338664 0)
(0.0138565 0.084602 0)
(0.0139432 0.0440433 0)
(-0.012689 -0.135552 0)
(0.0139718 0.0398536 0)
(0.0186617 0.0233115 0)
(-0.00225136 -0.134258 0)
(0.028794 0.117662 0)
(-0.0515341 0.0489219 0)
(0.0122889 -0.0050617 0)
(-0.0835396 0.0214159 0)
(0.0222521 -0.0715713 0)
(0.00221491 -0.0190079 0)
(0.0340383 0.0173677 0)
(-0.000324391 -0.0164162 0)
(-0.000553719 0.0433096 0)
(0.000769634 -0.0210329 0)
(-0.000578255 -0.0787651 0)
(-2.58131e-05 0.00391579 0)
(-0.00195384 0.066357 0)
(0.0128754 0.102016 0)
(0.00299235 0.060124 0)
(-0.00048256 -0.157282 0)
(-0.00418757 -0.116854 0)
(0.00170499 0.119651 0)
(0.0351787 -0.0591667 0)
(0.0231023 -0.0742604 0)
(0.108371 0.119828 0)
(-0.0110597 0.134575 0)
(0.00064506 -0.0297143 0)
(-0.00450992 -0.0533806 0)
(-0.00268756 0.0961413 0)
(0.00148302 0.170475 0)
(0.0841583 -0.0245708 0)
(-0.165942 -0.0775368 0)
(-3.52544e-06 -0.140764 0)
(-0.0161741 0.00241197 0)
(-0.0222986 0.0905743 0)
(0.0343059 -0.099128 0)
(-0.144453 -0.234625 0)
(-0.0305903 0.249149 0)
(-0.0186639 0.1987 0)
(-0.00110068 -0.191467 0)
(0.0793881 -0.0452386 0)
(-0.0171756 -0.0538766 0)
(-0.00329992 -0.00636694 0)
(0.0282113 0.011185 0)
(-0.0393427 -0.0121182 0)
(-0.0794427 0.131679 0)
(0.0264631 0.0676466 0)
(0.109935 -0.268445 0)
(0.0490455 -0.0661661 0)
(-0.0911001 0.232901 0)
(0.0258326 0.14714 0)
(0.0229361 -0.0940304 0)
(-0.0900533 -0.0826481 0)
(0.110658 0.0694135 0)
(0.0642745 0.101728 0)
(-0.0026062 -0.191487 0)
(-0.00630968 -0.134357 0)
(0.0276228 0.059583 0)
(0.0472892 0.0131101 0)
(0.140926 0.0367915 0)
(-0.112616 -0.00650353 0)
(0.0194685 0.0937252 0)
(0.0617828 0.101861 0)
(0.0293934 -0.111183 0)
(0.0288054 -0.0839418 0)
(0.0276039 0.0861165 0)
(0.0393864 -0.00283445 0)
(-0.0177519 0.111915 0)
(0.010328 0.168091 0)
(0.0831017 -0.0750809 0)
(0.008905 -0.127247 0)
(-0.0318705 -0.0178992 0)
(0.0147614 -0.133156 0)
(0.00712955 -0.0742538 0)
(-0.00840203 0.237644 0)
(-0.0827217 0.0449755 0)
(-0.10414 -0.159028 0)
(0.0224095 0.054702 0)
(0.0877761 -0.031835 0)
(0.0396624 0.0240232 0)
(-0.0567439 0.0290424 0)
(0.0158413 0.00994231 0)
(-0.0265282 0.0544654 0)
(-0.0305835 -0.169912 0)
(-0.0173897 0.0422284 0)
(0.0722925 0.00666732 0)
(-0.00273836 0.0715926 0)
(-0.167196 0.0517588 0)
(0.0260306 -0.167873 0)
(0.0790686 -0.00517962 0)
(0.0127561 0.11787 0)
(0.0403166 -0.0291602 0)
(-0.0366597 0.00459996 0)
(-0.0153966 -0.00409611 0)
(-0.0165617 -0.0447833 0)
(-0.0495195 -0.121417 0)
(-0.00182825 0.0669113 0)
(0.00189848 0.0416306 0)
(0.0322286 0.0267995 0)
(-0.0427883 0.0848039 0)
(-0.0332565 0.0916561 0)
(-0.0761526 0.0112239 0)
(0.0226629 -0.0626105 0)
(-2.33683e-05 -0.0883886 0)
(-0.139666 -0.0174525 0)
(-0.0234726 0.0372493 0)
(0.0623369 0.118941 0)
(0.0644923 0.0830813 0)
(-0.0274336 -0.0710883 0)
(0.00328815 -0.0470591 0)
(-0.00802041 0.00156469 0)
(-0.000779186 0.0197815 0)
(0.00460234 -0.000752754 0)
(-0.00429739 0.00151674 0)
(3.31765e-05 -0.0528966 0)
(-0.000343123 -0.0196484 0)
(0.00156842 -0.0141459 0)
(0.0480203 0.092845 0)
(0.146422 0.0176011 0)
(0.0115728 0.00829129 0)
(-0.0100628 -0.0279448 0)
(0.00250539 -0.116486 0)
(-0.00172726 -0.0118928 0)
(-0.00248284 -0.0361444 0)
(-0.0117944 0.168703 0)
(0.0312629 0.268353 0)
(0.0335764 -0.152906 0)
(-0.0107945 -0.15296 0)
(0.0199454 -0.0082415 0)
(0.0744686 0.0742407 0)
(0.180386 -0.00981727 0)
(-0.026622 0.161045 0)
(0.0683697 -0.12932 0)
(0.0456531 -0.205063 0)
(0.0434582 0.0405842 0)
(-0.0142494 0.0616185 0)
(-0.00139811 0.00402922 0)
(0.0201892 0.0270802 0)
(0.0570913 0.0295291 0)
(-0.0615993 -0.0390629 0)
(-0.0697489 0.0118027 0)
(-0.0416152 -0.021398 0)
(-0.0831581 -0.140911 0)
(0.179957 0.023784 0)
(0.215146 0.017697 0)
(-0.198131 0.0908182 0)
(-0.0486676 -0.0524372 0)
(0.154524 -0.263518 0)
(-0.00429752 0.0865959 0)
(-0.111551 0.212181 0)
(0.0523736 0.0710357 0)
(0.00118941 0.0307441 0)
(0.0230969 -0.111411 0)
(0.00158294 -0.105545 0)
(0.0718608 0.225548 0)
(-0.0173739 0.0550791 0)
(-0.0352343 -0.265908 0)
(-0.0261704 -0.121587 0)
(0.0172372 0.0704899 0)
(0.00963054 0.104177 0)
(0.00555983 0.046532 0)
(-0.0441755 0.0448841 0)
(-0.0145107 -0.017142 0)
(0.0598044 0.0304672 0)
(-0.0259943 -0.0501121 0)
(0.0194413 -0.17708 0)
(0.0405088 0.249147 0)
(-0.0035981 0.175271 0)
(-0.0200026 0.00571586 0)
(0.000554524 0.0543628 0)
(-0.0216658 -0.12611 0)
(-0.00296462 -0.181629 0)
(-0.00502438 -0.0758359 0)
(-0.114662 -0.00706431 0)
(-0.00994402 0.190582 0)
(0.0563647 0.0771494 0)
(0.0362269 -0.143545 0)
(-0.046553 0.00547563 0)
(-0.0953465 -0.0432199 0)
(-0.0200202 0.00129163 0)
(0.0860561 0.103452 0)
(0.0311556 -0.0552164 0)
(0.0386099 -0.204454 0)
(0.0118729 0.0467525 0)
(-0.0386278 0.277543 0)
(-0.00404103 0.0394722 0)
(-0.126273 -0.0730316 0)
(-0.0565898 -0.0442449 0)
(0.048342 -0.134355 0)
(0.0508528 0.00233853 0)
(-0.0176898 0.185358 0)
(-0.0206623 0.0935454 0)
(-0.0495298 -0.0658034 0)