/*--------------------------------*- C++ -*----------------------------------*\
| =========                 |                                                 |
| \\      /  F ield         | OpenFOAM: The Open Source CFD Toolbox           |
|  \\    /   O peration     | Version:  v2012                                 |
|   \\  /    A nd           | Website:  www.openfoam.com                      |
|    \\/     M anipulation  |                                                 |
\*---------------------------------------------------------------------------*/
FoamFile
{
    version     2.0;
    format      ascii;
    class       surfaceScalarField;
    location    "10.5";
    object      phi;
}
// * * * * * * * * * * * * * * * * * * * * * * * * * * * * * * * * * * * * * //

dimensions      [0 3 -1 0 0 0 0];
oriented        oriented;


internalField   nonuniform List<scalar> 
130560
(
3.66948e-06
-3.66948e-06
7.33907e-06
-3.66959e-06
1.10089e-05
-3.66982e-06
1.4679e-05
-3.67016e-06
1.83497e-05
-3.67061e-06
2.20208e-05
-3.67116e-06
2.56926e-05
-3.67182e-06
2.93652e-05
-3.67258e-06
3.30386e-05
-3.67342e-06
3.6713e-05
-3.67436e-06
4.03884e-05
-3.67537e-06
4.40648e-05
-3.67646e-06
4.77424e-05
-3.6776e-06
5.14212e-05
-3.6788e-06
5.51013e-05
-3.68005e-06
5.87826e-05
-3.68133e-06
6.24652e-05
-3.68262e-06
6.61492e-05
-3.68393e-06
6.98344e-05
-3.68523e-06
7.35209e-05
-3.68651e-06
7.72086e-05
-3.68776e-06
8.08976e-05
-3.68895e-06
8.45877e-05
-3.69008e-06
8.82788e-05
-3.69112e-06
9.19709e-05
-3.69207e-06
9.56638e-05
-3.69289e-06
9.93573e-05
-3.69357e-06
0.000103051
-3.69408e-06
0.000106746
-3.69441e-06
0.00011044
-3.69454e-06
0.000114135
-3.69444e-06
0.000117829
-3.69408e-06
0.000121522
-3.69345e-06
0.000125215
-3.69252e-06
0.000128906
-3.69125e-06
0.000132596
-3.68964e-06
0.000136283
-3.68763e-06
0.000139969
-3.68522e-06
0.000143651
-3.68237e-06
0.00014733
-3.67905e-06
0.000151005
-3.67523e-06
0.000154676
-3.67088e-06
0.000158342
-3.66596e-06
0.000162003
-3.66046e-06
0.000165657
-3.65433e-06
0.000169304
-3.64755e-06
0.000172944
-3.64007e-06
0.000176576
-3.63187e-06
0.000180199
-3.62292e-06
0.000183812
-3.61317e-06
0.000187415
-3.6026e-06
0.000191006
-3.59118e-06
0.000194585
-3.57886e-06
0.000198151
-3.56562e-06
0.000201702
-3.55142e-06
0.000205238
-3.53623e-06
0.000208758
-3.52001e-06
0.000212261
-3.50274e-06
0.000215745
-3.48437e-06
0.00021921
-3.46489e-06
0.000222655
-3.44425e-06
0.000226077
-3.42243e-06
0.000229476
-3.3994e-06
0.000232852
-3.37513e-06
0.000236201
-3.34959e-06
0.000239524
-3.32276e-06
0.000242819
-3.29461e-06
0.000246084
-3.26511e-06
0.000249318
-3.23426e-06
0.00025252
-3.20201e-06
0.000255688
-3.16837e-06
0.000258822
-3.1333e-06
0.000261918
-3.09679e-06
0.000264977
-3.05884e-06
0.000267997
-3.01942e-06
0.000270975
-2.97854e-06
0.000273911
-2.93617e-06
0.000276804
-2.89232e-06
0.000279651
-2.84698e-06
0.000282451
-2.80016e-06
0.000285203
-2.75186e-06
0.000287905
-2.70208e-06
0.000290556
-2.65082e-06
0.000293154
-2.59811e-06
0.000295698
-2.54394e-06
0.000298186
-2.48834e-06
0.000300617
-2.43133e-06
0.00030299
-2.37292e-06
0.000305303
-2.31315e-06
0.000307555
-2.25202e-06
0.000309745
-2.18958e-06
0.000311871
-2.12586e-06
0.000313932
-2.06088e-06
0.000315926
-1.9947e-06
0.000317854
-1.92733e-06
0.000319713
-1.85883e-06
0.000321502
-1.78925e-06
0.00032322
-1.71862e-06
0.000324867
-1.64699e-06
0.000326442
-1.57442e-06
0.000327943
-1.50096e-06
0.000329369
-1.42666e-06
0.000330721
-1.35157e-06
0.000331997
-1.27576e-06
0.000333196
-1.19929e-06
0.000334318
-1.1222e-06
0.000335363
-1.04458e-06
0.000336329
-9.66469e-07
0.000337217
-8.87941e-07
0.000338026
-8.09058e-07
0.000338756
-7.29884e-07
0.000339407
-6.50484e-07
0.000339978
-5.70922e-07
0.000340469
-4.91265e-07
0.00034088
-4.11577e-07
0.000341212
-3.31922e-07
0.000341465
-2.52365e-07
0.000341638
-1.7297e-07
0.000341732
-9.37992e-08
0.000341746
-1.49148e-08
0.000341683
6.36221e-08
0.000341541
1.41752e-07
0.000341322
2.19415e-07
0.000341025
2.96555e-07
0.000340652
3.73116e-07
0.000340203
4.49044e-07
0.000339679
5.24287e-07
0.00033908
5.98793e-07
0.000338407
6.72514e-07
0.000337662
7.45404e-07
0.000336845
8.17418e-07
0.000335956
8.88513e-07
0.000334997
9.58648e-07
0.00033397
1.02779e-06
0.000332874
1.09589e-06
0.000331711
1.16293e-06
0.000330482
1.22887e-06
0.000329188
1.29368e-06
0.000327831
1.35733e-06
0.000326411
1.4198e-06
0.00032493
1.48108e-06
0.000323389
1.54113e-06
0.000321789
1.59994e-06
0.000320131
1.65749e-06
0.000318418
1.71378e-06
0.000316649
1.76878e-06
0.000314826
1.82249e-06
0.000312951
1.87491e-06
0.000311025
1.92602e-06
0.00030905
1.97583e-06
0.000307025
2.02432e-06
0.000304954
2.07151e-06
0.000302836
2.1174e-06
0.000300674
2.16198e-06
0.000298469
2.20527e-06
0.000296222
2.24726e-06
0.000293934
2.28798e-06
0.000291607
2.32742e-06
0.000289241
2.3656e-06
0.000286838
2.40253e-06
0.0002844
2.43823e-06
0.000281927
2.47271e-06
0.000279421
2.50598e-06
0.000276883
2.53806e-06
0.000274314
2.56897e-06
0.000271716
2.59873e-06
0.000269088
2.62736e-06
0.000266433
2.65486e-06
0.000263752
2.68128e-06
0.000261046
2.70662e-06
0.000258315
2.73091e-06
0.00025556
2.75417e-06
0.000252784
2.77643e-06
0.000249986
2.79769e-06
0.000247168
2.818e-06
0.000244331
2.83736e-06
0.000241475
2.85581e-06
0.000238602
2.87337e-06
0.000235712
2.89005e-06
0.000232806
2.9059e-06
0.000229885
2.92091e-06
0.00022695
2.93514e-06
0.000224001
2.94858e-06
0.00022104
2.96128e-06
0.000218067
2.97324e-06
0.000215082
2.98451e-06
0.000212087
2.99508e-06
0.000209082
3.00501e-06
0.000206068
3.01429e-06
0.000203045
3.02296e-06
0.000200014
3.03104e-06
0.000196975
3.03855e-06
0.00019393
3.0455e-06
0.000190878
3.05194e-06
0.00018782
3.05786e-06
0.000184757
3.0633e-06
0.000181688
3.06827e-06
0.000178616
3.0728e-06
0.000175539
3.0769e-06
0.000172458
3.0806e-06
0.000169374
3.0839e-06
0.000166287
3.08684e-06
0.000163198
3.08942e-06
0.000160106
3.09167e-06
0.000157013
3.09361e-06
0.000153917
3.09524e-06
0.000150821
3.09659e-06
0.000147723
3.09766e-06
0.000144625
3.09849e-06
0.000141526
3.09908e-06
0.000138426
3.09945e-06
0.000135327
3.09961e-06
0.000132227
3.09957e-06
0.000129128
3.09936e-06
0.000126029
3.09898e-06
0.00012293
3.09844e-06
0.000119832
3.09777e-06
0.000116735
3.09696e-06
0.000113639
3.09603e-06
0.000110544
3.095e-06
0.000107451
3.09388e-06
0.000104358
3.09267e-06
0.000101266
3.09138e-06
9.81765e-05
3.09003e-06
9.50878e-05
3.08862e-06
9.20007e-05
3.08717e-06
8.8915e-05
3.08568e-06
8.58308e-05
3.08417e-06
8.27482e-05
3.08263e-06
7.96671e-05
3.08108e-06
7.65876e-05
3.07953e-06
7.35096e-05
3.07797e-06
7.04332e-05
3.07643e-06
6.73583e-05
3.0749e-06
6.42849e-05
3.0734e-06
6.1213e-05
3.07192e-06
5.81425e-05
3.07048e-06
5.50734e-05
3.06908e-06
5.20057e-05
3.06772e-06
4.89393e-05
3.06641e-06
4.58741e-05
3.06516e-06
4.28101e-05
3.06396e-06
3.97473e-05
3.06283e-06
3.66855e-05
3.06176e-06
3.36248e-05
3.06076e-06
3.0565e-05
3.05983e-06
2.7506e-05
3.05898e-06
2.44478e-05
3.05821e-06
2.13903e-05
3.05751e-06
1.83334e-05
3.0569e-06
1.5277e-05
3.05637e-06
1.22211e-05
3.05593e-06
9.16548e-06
3.05558e-06
6.11017e-06
3.05531e-06
3.05504e-06
3.05513e-06
3.05504e-06
3.66936e-06
-7.33884e-06
7.33884e-06
-7.33907e-06
1.10086e-05
-7.33953e-06
1.46786e-05
-7.34021e-06
1.83491e-05
-7.34111e-06
2.20202e-05
-7.34222e-06
2.56919e-05
-7.34354e-06
2.93644e-05
-7.34506e-06
3.30377e-05
-7.34676e-06
3.6712e-05
-7.34864e-06
4.03873e-05
-7.35067e-06
4.40637e-05
-7.35285e-06
4.77412e-05
-7.35515e-06
5.142e-05
-7.35757e-06
5.51e-05
-7.36007e-06
5.87813e-05
-7.36263e-06
6.24639e-05
-7.36524e-06
6.61479e-05
-7.36786e-06
6.98331e-05
-7.37048e-06
7.35197e-05
-7.37306e-06
7.72075e-05
-7.37556e-06
8.08965e-05
-7.37797e-06
8.45867e-05
-7.38025e-06
8.82779e-05
-7.38235e-06
9.19701e-05
-7.38426e-06
9.56631e-05
-7.38592e-06
9.93568e-05
-7.38729e-06
0.000103051
-7.38835e-06
0.000106746
-7.38904e-06
0.00011044
-7.38931e-06
0.000114135
-7.38913e-06
0.00011783
-7.38845e-06
0.000121523
-7.38721e-06
0.000125216
-7.38536e-06
0.000128908
-7.38286e-06
0.000132598
-7.37965e-06
0.000136286
-7.37568e-06
0.000139971
-7.37088e-06
0.000143654
-7.36521e-06
0.000147334
-7.35859e-06
0.00015101
-7.35098e-06
0.000154681
-7.34231e-06
0.000158348
-7.33252e-06
0.000162009
-7.32155e-06
0.000165664
-7.30932e-06
0.000169312
-7.29578e-06
0.000172953
-7.28086e-06
0.000176585
-7.2645e-06
0.000180209
-7.24662e-06
0.000183823
-7.22717e-06
0.000187427
-7.20606e-06
0.000191019
-7.18325e-06
0.000194598
-7.15865e-06
0.000198165
-7.1322e-06
0.000201717
-7.10383e-06
0.000205255
-7.07348e-06
0.000208776
-7.04108e-06
0.000212279
-7.00656e-06
0.000215765
-6.96986e-06
0.000219231
-6.93093e-06
0.000222676
-6.88968e-06
0.0002261
-6.84607e-06
0.000229501
-6.80004e-06
0.000232877
-6.75152e-06
0.000236228
-6.70047e-06
0.000239552
-6.64683e-06
0.000242848
-6.59055e-06
0.000246115
-6.53159e-06
0.00024935
-6.4699e-06
0.000252554
-6.40543e-06
0.000255723
-6.33815e-06
0.000258858
-6.26803e-06
0.000261956
-6.19504e-06
0.000265017
-6.11914e-06
0.000268038
-6.04032e-06
0.000271018
-5.95855e-06
0.000273955
-5.87382e-06
0.000276849
-5.78612e-06
0.000279697
-5.69545e-06
0.000282499
-5.60181e-06
0.000285252
-5.5052e-06
0.000287956
-5.40562e-06
0.000290608
-5.3031e-06
0.000293208
-5.19766e-06
0.000295753
-5.08932e-06
0.000298243
-4.9781e-06
0.000300676
-4.86406e-06
0.00030305
-4.74722e-06
0.000305364
-4.62764e-06
0.000307618
-4.50536e-06
0.000309809
-4.38045e-06
0.000311936
-4.25297e-06
0.000313998
-4.12298e-06
0.000315994
-3.99057e-06
0.000317922
-3.8558e-06
0.000319782
-3.71876e-06
0.000321572
-3.57954e-06
0.000323292
-3.43823e-06
0.00032494
-3.29493e-06
0.000326515
-3.14973e-06
0.000328017
-3.00275e-06
0.000329444
-2.85409e-06
0.000330797
-2.70387e-06
0.000332073
-2.55219e-06
0.000333273
-2.39918e-06
0.000334396
-2.24495e-06
0.000335441
-2.08964e-06
0.000336408
-1.93336e-06
0.000337296
-1.77624e-06
0.000338105
-1.6184e-06
0.000338836
-1.45999e-06
0.000339486
-1.30113e-06
0.000340057
-1.14194e-06
0.000340549
-9.8256e-07
0.00034096
-8.23119e-07
0.000341292
-6.63746e-07
0.000341544
-5.04568e-07
0.000341717
-3.45715e-07
0.00034181
-1.87311e-07
0.000341825
-2.9481e-08
0.000341761
1.27653e-07
0.000341619
2.8397e-07
0.000341399
4.39354e-07
0.000341102
5.9369e-07
0.000340728
7.46867e-07
0.000340278
8.98775e-07
0.000339753
1.04931e-06
0.000339153
1.19837e-06
0.00033848
1.34586e-06
0.000337734
1.49169e-06
0.000336916
1.63576e-06
0.000336026
1.77799e-06
0.000335066
1.9183e-06
0.000334038
2.05661e-06
0.000332941
2.19285e-06
0.000331777
2.32695e-06
0.000330547
2.45886e-06
0.000329252
2.58851e-06
0.000327893
2.71584e-06
0.000326472
2.84081e-06
0.00032499
2.96338e-06
0.000323448
3.0835e-06
0.000321846
3.20113e-06
0.000320188
3.31625e-06
0.000318473
3.42883e-06
0.000316703
3.53885e-06
0.000314879
3.64628e-06
0.000313003
3.75112e-06
0.000311075
3.85335e-06
0.000309098
3.95296e-06
0.000307072
4.04995e-06
0.000305
4.14433e-06
0.000302881
4.2361e-06
0.000300718
4.32526e-06
0.000298511
4.41182e-06
0.000296263
4.49581e-06
0.000293973
4.57723e-06
0.000291645
4.6561e-06
0.000289278
4.73245e-06
0.000286874
4.8063e-06
0.000284435
4.87768e-06
0.000281961
4.94662e-06
0.000279453
5.01315e-06
0.000276914
5.07729e-06
0.000274344
5.1391e-06
0.000271744
5.1986e-06
0.000269116
5.25582e-06
0.00026646
5.31082e-06
0.000263777
5.36363e-06
0.00026107
5.4143e-06
0.000258338
5.46285e-06
0.000255583
5.50935e-06
0.000252805
5.55383e-06
0.000250007
5.59635e-06
0.000247188
5.63693e-06
0.000244349
5.67564e-06
0.000241493
5.71251e-06
0.000238618
5.7476e-06
0.000235728
5.78095e-06
0.000232821
5.81261e-06
0.000229899
5.84263e-06
0.000226963
5.87105e-06
0.000224014
5.89791e-06
0.000221052
5.92328e-06
0.000218078
5.94719e-06
0.000215093
5.96969e-06
0.000212097
5.99083e-06
0.000209091
6.01065e-06
0.000206076
6.02919e-06
0.000203053
6.04651e-06
0.000200021
6.06264e-06
0.000196982
6.07764e-06
0.000193936
6.09154e-06
0.000190884
6.10438e-06
0.000187825
6.11621e-06
0.000184762
6.12707e-06
0.000181693
6.13699e-06
0.00017862
6.14603e-06
0.000175542
6.15421e-06
0.000172461
6.16158e-06
0.000169377
6.16818e-06
0.00016629
6.17403e-06
0.0001632
6.17918e-06
0.000160108
6.18366e-06
0.000157014
6.18751e-06
0.000153919
6.19076e-06
0.000150822
6.19344e-06
0.000147724
6.19558e-06
0.000144625
6.19722e-06
0.000141526
6.19839e-06
0.000138426
6.19911e-06
0.000135326
6.19941e-06
0.000132227
6.19933e-06
0.000129127
6.19889e-06
0.000126028
6.19811e-06
0.000122929
6.19703e-06
0.000119832
6.19566e-06
0.000116735
6.19404e-06
0.000113638
6.19217e-06
0.000110543
6.1901e-06
0.000107449
6.18784e-06
0.000104357
6.1854e-06
0.000101265
6.18282e-06
9.8175e-05
6.18011e-06
9.50864e-05
6.17729e-06
9.19992e-05
6.17438e-06
8.89135e-05
6.17139e-06
8.58293e-05
6.16835e-06
8.27466e-05
6.16527e-06
7.96655e-05
6.16216e-06
7.6586e-05
6.15905e-06
7.35081e-05
6.15594e-06
7.04316e-05
6.15285e-06
6.73568e-05
6.14979e-06
6.42834e-05
6.14677e-06
6.12115e-05
6.14381e-06
5.81411e-05
6.14093e-06
5.5072e-05
6.13812e-06
5.20044e-05
6.13539e-06
4.8938e-05
6.13277e-06
4.58729e-05
6.13026e-06
4.2809e-05
6.12786e-06
3.97462e-05
6.12559e-06
3.66845e-05
6.12345e-06
3.36239e-05
6.12145e-06
3.05641e-05
6.11959e-06
2.75052e-05
6.11788e-06
2.44471e-05
6.11633e-06
2.13896e-05
6.11494e-06
1.83328e-05
6.11372e-06
1.52765e-05
6.11266e-06
1.22207e-05
6.11177e-06
9.16521e-06
6.11106e-06
6.10999e-06
6.11053e-06
3.05495e-06
6.11017e-06
6.10999e-06
3.66913e-06
-1.1008e-05
7.33839e-06
-1.10083e-05
1.10079e-05
-1.1009e-05
1.46777e-05
-1.101e-05
1.8348e-05
-1.10114e-05
2.20188e-05
-1.10131e-05
2.56904e-05
-1.10151e-05
2.93627e-05
-1.10174e-05
3.30358e-05
-1.10199e-05
3.67099e-05
-1.10228e-05
4.03851e-05
-1.10258e-05
4.40614e-05
-1.10291e-05
4.77388e-05
-1.10326e-05
5.14175e-05
-1.10362e-05
5.50974e-05
-1.104e-05
5.87787e-05
-1.10439e-05
6.24613e-05
-1.10478e-05
6.61453e-05
-1.10518e-05
6.98305e-05
-1.10558e-05
7.35172e-05
-1.10597e-05
7.72051e-05
-1.10635e-05
8.08942e-05
-1.10671e-05
8.45845e-05
-1.10706e-05
8.8276e-05
-1.10738e-05
9.19684e-05
-1.10767e-05
9.56617e-05
-1.10792e-05
9.93558e-05
-1.10813e-05
0.00010305
-1.1083e-05
0.000106745
-1.10841e-05
0.000110441
-1.10845e-05
0.000114136
-1.10843e-05
0.000117831
-1.10834e-05
0.000121525
-1.10816e-05
0.000125219
-1.10789e-05
0.000128911
-1.10752e-05
0.000132602
-1.10704e-05
0.000136291
-1.10645e-05
0.000139977
-1.10574e-05
0.000143661
-1.1049e-05
0.000147341
-1.10391e-05
0.000151018
-1.10278e-05
0.000154691
-1.10149e-05
0.000158359
-1.10003e-05
0.000162021
-1.09839e-05
0.000165677
-1.09656e-05
0.000169327
-1.09454e-05
0.000172969
-1.09231e-05
0.000176603
-1.08986e-05
0.000180229
-1.08719e-05
0.000183844
-1.08428e-05
0.000187449
-1.08112e-05
0.000191043
-1.07771e-05
0.000194625
-1.07403e-05
0.000198193
-1.07007e-05
0.000201748
-1.06582e-05
0.000205287
-1.06128e-05
0.00020881
-1.05643e-05
0.000212316
-1.05126e-05
0.000215804
-1.04576e-05
0.000219272
-1.03993e-05
0.00022272
-1.03375e-05
0.000226146
-1.02721e-05
0.000229549
-1.02032e-05
0.000232928
-1.01305e-05
0.000236282
-1.00539e-05
0.000239608
-9.97355e-06
0.000242907
-9.88919e-06
0.000246176
-9.8008e-06
0.000249415
-9.70831e-06
0.000252621
-9.61166e-06
0.000255793
-9.51079e-06
0.000258931
-9.40564e-06
0.000262032
-9.29618e-06
0.000265095
-9.18237e-06
0.000268119
-9.06415e-06
0.000271102
-8.94152e-06
0.000274043
-8.81444e-06
0.00027694
-8.6829e-06
0.000279791
-8.5469e-06
0.000282596
-8.40643e-06
0.000285352
-8.26149e-06
0.000288059
-8.11212e-06
0.000290714
-7.95831e-06
0.000293316
-7.80011e-06
0.000295864
-7.63756e-06
0.000298357
-7.47069e-06
0.000300793
-7.29957e-06
0.00030317
-7.12426e-06
0.000305487
-6.94482e-06
0.000307743
-6.76133e-06
0.000309936
-6.57389e-06
0.000312066
-6.38258e-06
0.00031413
-6.18751e-06
0.000316129
-5.98879e-06
0.000318059
-5.78653e-06
0.000319921
-5.58086e-06
0.000321714
-5.37192e-06
0.000323435
-5.15983e-06
0.000325085
-4.94475e-06
0.000326662
-4.72683e-06
0.000328166
-4.50622e-06
0.000329595
-4.2831e-06
0.000330949
-4.05761e-06
0.000332226
-3.82995e-06
0.000333427
-3.60028e-06
0.000334551
-3.36879e-06
0.000335597
-3.13566e-06
0.000336565
-2.90108e-06
0.000337454
-2.66524e-06
0.000338264
-2.42833e-06
0.000338994
-2.19055e-06
0.000339645
-1.95209e-06
0.000340217
-1.71315e-06
0.000340708
-1.47392e-06
0.000341119
-1.23459e-06
0.000341451
-9.95373e-07
0.000341703
-7.56448e-07
0.000341875
-5.1801e-07
0.000341968
-2.80249e-07
0.000341982
-4.33513e-08
0.000341917
1.92499e-07
0.000341774
4.27122e-07
0.000341553
6.60342e-07
0.000341255
8.91985e-07
0.00034088
1.12188e-06
0.000340429
1.34988e-06
0.000339902
1.57581e-06
0.000339301
1.79952e-06
0.000338626
2.02087e-06
0.000337878
2.23972e-06
0.000337058
2.45593e-06
0.000336166
2.66938e-06
0.000335205
2.87994e-06
0.000334174
3.0875e-06
0.000333075
3.29194e-06
0.000331909
3.49318e-06
0.000330676
3.69111e-06
0.000329379
3.88565e-06
0.000328018
4.07671e-06
0.000326595
4.26423e-06
0.00032511
4.44812e-06
0.000323565
4.62835e-06
0.000321962
4.80484e-06
0.0003203
4.97756e-06
0.000318583
5.14645e-06
0.00031681
5.3115e-06
0.000314984
5.47267e-06
0.000313105
5.62994e-06
0.000311175
5.78329e-06
0.000309195
5.93271e-06
0.000307167
6.0782e-06
0.000305091
6.21976e-06
0.00030297
6.3574e-06
0.000300804
6.49113e-06
0.000298595
6.62096e-06
0.000296344
6.74691e-06
0.000294052
6.86902e-06
0.000291721
6.9873e-06
0.000289352
7.1018e-06
0.000286945
7.21254e-06
0.000284504
7.31958e-06
0.000282027
7.42294e-06
0.000279518
7.52269e-06
0.000276976
7.61887e-06
0.000274404
7.71153e-06
0.000271801
7.80073e-06
0.000269171
7.88652e-06
0.000266513
7.96897e-06
0.000263828
8.04813e-06
0.000261118
8.12407e-06
0.000258384
8.19686e-06
0.000255627
8.26655e-06
0.000252848
8.33322e-06
0.000250047
8.39692e-06
0.000247226
8.45775e-06
0.000244386
8.51575e-06
0.000241528
8.571e-06
0.000238652
8.62358e-06
0.000235759
8.67354e-06
0.000232851
8.72097e-06
0.000229928
8.76594e-06
0.00022699
8.80851e-06
0.000224039
8.84875e-06
0.000221076
8.88674e-06
0.0002181
8.92255e-06
0.000215114
8.95624e-06
0.000212117
8.98789e-06
0.00020911
9.01756e-06
0.000206094
9.04532e-06
0.000203069
9.07124e-06
0.000200036
9.09539e-06
0.000196996
9.11783e-06
0.000193949
9.13862e-06
0.000190896
9.15783e-06
0.000187836
9.17553e-06
0.000184772
9.19176e-06
0.000181702
9.20661e-06
0.000178628
9.22011e-06
0.00017555
9.23234e-06
0.000172468
9.24335e-06
0.000169383
9.25319e-06
0.000166295
9.26193e-06
0.000163205
9.26961e-06
0.000160112
9.27629e-06
0.000157018
9.28202e-06
0.000153921
9.28685e-06
0.000150824
9.29083e-06
0.000147726
9.294e-06
0.000144626
9.29642e-06
0.000141527
9.29813e-06
0.000138427
9.29918e-06
0.000135326
9.2996e-06
0.000132226
9.29944e-06
0.000129126
9.29875e-06
0.000126027
9.29755e-06
0.000122928
9.29589e-06
0.00011983
9.29381e-06
0.000116733
9.29135e-06
0.000113636
9.28853e-06
0.000110541
9.28539e-06
0.000107447
9.28197e-06
0.000104354
9.27829e-06
0.000101262
9.27439e-06
9.81722e-05
9.2703e-06
9.50835e-05
9.26605e-06
9.19962e-05
9.26166e-06
8.89104e-05
9.25716e-06
8.58262e-05
9.25258e-06
8.27435e-05
9.24793e-06
7.96624e-05
9.24326e-06
7.65829e-05
9.23856e-06
7.3505e-05
9.23388e-06
7.04286e-05
9.22923e-06
6.73538e-05
9.22462e-06
6.42804e-05
9.22009e-06
6.12086e-05
9.21564e-06
5.81383e-05
9.21129e-06
5.50693e-05
9.20706e-06
5.20017e-05
9.20297e-06
4.89355e-05
9.19902e-06
4.58705e-05
9.19524e-06
4.28067e-05
9.19164e-06
3.97441e-05
9.18822e-06
3.66825e-05
9.185e-06
3.3622e-05
9.18199e-06
3.05624e-05
9.17919e-06
2.75036e-05
9.17663e-06
2.44457e-05
9.1743e-06
2.13884e-05
9.17221e-06
1.83318e-05
9.17036e-06
1.52757e-05
9.16877e-06
1.222e-05
9.16744e-06
9.16468e-06
9.16637e-06
6.10963e-06
9.16557e-06
3.05477e-06
9.16503e-06
9.16476e-06
3.66879e-06
-1.46768e-05
7.3377e-06
-1.46772e-05
1.10068e-05
-1.46782e-05
1.46763e-05
-1.46795e-05
1.83463e-05
-1.46814e-05
2.20168e-05
-1.46836e-05
2.56881e-05
-1.46863e-05
2.93601e-05
-1.46894e-05
3.3033e-05
-1.46928e-05
3.67069e-05
-1.46966e-05
4.03818e-05
-1.47008e-05
4.40579e-05
-1.47052e-05
4.77352e-05
-1.47099e-05
5.14137e-05
-1.47148e-05
5.50936e-05
-1.47199e-05
5.87748e-05
-1.47251e-05
6.24573e-05
-1.47304e-05
6.61413e-05
-1.47358e-05
6.98266e-05
-1.47411e-05
7.35133e-05
-1.47464e-05
7.72014e-05
-1.47515e-05
8.08908e-05
-1.47565e-05
8.45813e-05
-1.47612e-05
8.82731e-05
-1.47655e-05
9.19659e-05
-1.47695e-05
9.56596e-05
-1.4773e-05
9.93541e-05
-1.47759e-05
0.000103049
-1.47782e-05
0.000106745
-1.47797e-05
0.000110441
-1.47805e-05
0.000114137
-1.47803e-05
0.000117833
-1.47791e-05
0.000121528
-1.47768e-05
0.000125222
-1.47734e-05
0.000128916
-1.47686e-05
0.000132608
-1.47624e-05
0.000136298
-1.47546e-05
0.000139986
-1.47453e-05
0.000143671
-1.47342e-05
0.000147353
-1.47212e-05
0.000151031
-1.47062e-05
0.000154705
-1.46891e-05
0.000158375
-1.46698e-05
0.000162039
-1.46481e-05
0.000165697
-1.46239e-05
0.000169349
-1.45971e-05
0.000172994
-1.45675e-05
0.00017663
-1.4535e-05
0.000180258
-1.44996e-05
0.000183876
-1.44609e-05
0.000187483
-1.4419e-05
0.00019108
-1.43736e-05
0.000194664
-1.43247e-05
0.000198236
-1.42721e-05
0.000201793
-1.42156e-05
0.000205336
-1.41552e-05
0.000208862
-1.40906e-05
0.000212371
-1.40218e-05
0.000215862
-1.39487e-05
0.000219334
-1.38711e-05
0.000222785
-1.37888e-05
0.000226215
-1.37018e-05
0.000229622
-1.361e-05
0.000233005
-1.35132e-05
0.000236362
-1.34113e-05
0.000239693
-1.33042e-05
0.000242995
-1.31919e-05
0.000246269
-1.30741e-05
0.000249511
-1.29509e-05
0.000252722
-1.28221e-05
0.000255899
-1.26877e-05
0.000259041
-1.25476e-05
0.000262146
-1.24017e-05
0.000265214
-1.225e-05
0.000268242
-1.20924e-05
0.000271229
-1.19289e-05
0.000274174
-1.17595e-05
0.000277076
-1.15841e-05
0.000279932
-1.14028e-05
0.000282741
-1.12155e-05
0.000285501
-1.10222e-05
0.000288212
-1.0823e-05
0.000290872
-1.06179e-05
0.000293479
-1.04069e-05
0.000296031
-1.01901e-05
0.000298528
-9.96754e-06
0.000300968
-9.73929e-06
0.000303349
-9.50542e-06
0.00030567
-9.26605e-06
0.00030793
-9.02127e-06
0.000310128
-8.77119e-06
0.000312261
-8.51596e-06
0.000314329
-8.25569e-06
0.000316331
-7.99055e-06
0.000318265
-7.72067e-06
0.00032013
-7.44625e-06
0.000321926
-7.16744e-06
0.00032365
-6.88443e-06
0.000325303
-6.59742e-06
0.000326883
-6.30662e-06
0.000328389
-6.01222e-06
0.00032982
-5.71445e-06
0.000331176
-5.41354e-06
0.000332456
-5.10971e-06
0.000333659
-4.80321e-06
0.000334784
-4.49427e-06
0.000335832
-4.18314e-06
0.000336801
-3.87007e-06
0.000337691
-3.55532e-06
0.000338502
-3.23914e-06
0.000339233
-2.92179e-06
0.000339884
-2.60354e-06
0.000340456
-2.28465e-06
0.000340947
-1.96537e-06
0.000341359
-1.64597e-06
0.00034169
-1.3267e-06
0.000341941
-1.00784e-06
0.000342113
-6.89629e-07
0.000342205
-3.72324e-07
0.000342218
-5.61747e-08
0.000342152
2.58573e-07
0.000342007
5.71678e-07
0.000341785
8.82904e-07
0.000341485
1.19202e-06
0.000341108
1.49881e-06
0.000340655
1.80305e-06
0.000340126
2.10452e-06
0.000339522
2.40303e-06
0.000338845
2.69839e-06
0.000338094
2.99039e-06
0.000337271
3.27888e-06
0.000336377
3.56366e-06
0.000335412
3.84458e-06
0.000334378
4.1215e-06
0.000333276
4.39425e-06
0.000332107
4.66271e-06
0.000330871
4.92676e-06
0.00032957
5.18627e-06
0.000328206
5.44113e-06
0.000326779
5.69126e-06
0.00032529
5.93655e-06
0.000323742
6.17693e-06
0.000322134
6.41232e-06
0.000320469
6.64267e-06
0.000318748
6.86793e-06
0.000316971
7.08803e-06
0.000315141
7.30296e-06
0.000313258
7.51267e-06
0.000311324
7.71715e-06
0.000309341
7.91639e-06
0.000307308
8.11038e-06
0.000305229
8.29912e-06
0.000303104
8.48262e-06
0.000300934
8.6609e-06
0.000298721
8.83397e-06
0.000296466
9.00187e-06
0.000294171
9.16463e-06
0.000291836
9.32229e-06
0.000289462
9.4749e-06
0.000287052
9.62249e-06
0.000284607
9.76514e-06
0.000282127
9.90289e-06
0.000279614
1.00358e-05
0.000277069
1.0164e-05
0.000274493
1.02874e-05
0.000271887
1.04063e-05
0.000269253
1.05206e-05
0.000266592
1.06304e-05
0.000263904
1.07359e-05
0.000261191
1.0837e-05
0.000258454
1.0934e-05
0.000255694
1.10268e-05
0.000252912
1.11156e-05
0.000250108
1.12004e-05
0.000247284
1.12814e-05
0.000244442
1.13586e-05
0.00024158
1.14322e-05
0.000238702
1.15022e-05
0.000235807
1.15687e-05
0.000232896
1.16318e-05
0.00022997
1.16916e-05
0.00022703
1.17483e-05
0.000224077
1.18018e-05
0.000221112
1.18524e-05
0.000218134
1.19e-05
0.000215146
1.19448e-05
0.000212147
1.19869e-05
0.000209138
1.20264e-05
0.00020612
1.20633e-05
0.000203093
1.20978e-05
0.000200059
1.21298e-05
0.000197017
1.21597e-05
0.000193968
1.21873e-05
0.000190913
1.22128e-05
0.000187853
1.22363e-05
0.000184786
1.22579e-05
0.000181715
1.22776e-05
0.00017864
1.22955e-05
0.000175561
1.23117e-05
0.000172478
1.23263e-05
0.000169392
1.23393e-05
0.000166303
1.23509e-05
0.000163211
1.2361e-05
0.000160118
1.23699e-05
0.000157022
1.23774e-05
0.000153925
1.23838e-05
0.000150827
1.2389e-05
0.000147728
1.23932e-05
0.000144628
1.23963e-05
0.000141528
1.23985e-05
0.000138427
1.23999e-05
0.000135326
1.24004e-05
0.000132226
1.24001e-05
0.000129125
1.23991e-05
0.000126025
1.23975e-05
0.000122926
1.23952e-05
0.000119828
1.23924e-05
0.00011673
1.2389e-05
0.000113633
1.23852e-05
0.000110538
1.2381e-05
0.000107443
1.23764e-05
0.00010435
1.23714e-05
0.000101258
1.23662e-05
9.8168e-05
1.23607e-05
9.50791e-05
1.23549e-05
9.19917e-05
1.23491e-05
8.89059e-05
1.2343e-05
8.58216e-05
1.23369e-05
8.27389e-05
1.23306e-05
7.96578e-05
1.23244e-05
7.65782e-05
1.23181e-05
7.35003e-05
1.23118e-05
7.0424e-05
1.23056e-05
6.73492e-05
1.22994e-05
6.4276e-05
1.22933e-05
6.12043e-05
1.22874e-05
5.8134e-05
1.22815e-05
5.50652e-05
1.22759e-05
5.19978e-05
1.22704e-05
4.89317e-05
1.22651e-05
4.58669e-05
1.22601e-05
4.28033e-05
1.22552e-05
3.97409e-05
1.22507e-05
3.66795e-05
1.22463e-05
3.36192e-05
1.22423e-05
3.05598e-05
1.22386e-05
2.75013e-05
1.22351e-05
2.44436e-05
1.2232e-05
2.13866e-05
1.22292e-05
1.83302e-05
1.22268e-05
1.52743e-05
1.22246e-05
1.22189e-05
1.22229e-05
9.16387e-06
1.22214e-05
6.1091e-06
1.22203e-05
3.0545e-06
1.22196e-05
1.22193e-05
3.66832e-06
-1.83451e-05
7.33677e-06
-1.83457e-05
1.10055e-05
-1.83468e-05
1.46745e-05
-1.83486e-05
1.8344e-05
-1.83509e-05
2.20142e-05
-1.83537e-05
2.5685e-05
-1.83571e-05
2.93566e-05
-1.8361e-05
3.30292e-05
-1.83654e-05
3.67027e-05
-1.83702e-05
4.03774e-05
-1.83754e-05
4.40532e-05
-1.8381e-05
4.77303e-05
-1.83869e-05
5.14086e-05
-1.83931e-05
5.50883e-05
-1.83996e-05
5.87694e-05
-1.84062e-05
6.2452e-05
-1.84129e-05
6.61359e-05
-1.84197e-05
6.98214e-05
-1.84265e-05
7.35082e-05
-1.84332e-05
7.71964e-05
-1.84398e-05
8.08861e-05
-1.84461e-05
8.4577e-05
-1.84521e-05
8.82691e-05
-1.84577e-05
9.19624e-05
-1.84628e-05
9.56567e-05
-1.84673e-05
9.93519e-05
-1.84711e-05
0.000103048
-1.84741e-05
0.000106744
-1.84762e-05
0.000110441
-1.84773e-05
0.000114138
-1.84772e-05
0.000117835
-1.8476e-05
0.000121531
-1.84733e-05
0.000125227
-1.84691e-05
0.000128922
-1.84634e-05
0.000132615
-1.84558e-05
0.000136307
-1.84464e-05
0.000139997
-1.84349e-05
0.000143684
-1.84212e-05
0.000147368
-1.84052e-05
0.000151048
-1.83867e-05
0.000154725
-1.83656e-05
0.000158397
-1.83417e-05
0.000162063
-1.83148e-05
0.000165724
-1.82848e-05
0.000169379
-1.82515e-05
0.000173026
-1.82148e-05
0.000176665
-1.81745e-05
0.000180296
-1.81304e-05
0.000183918
-1.80823e-05
0.000187529
-1.80302e-05
0.000191129
-1.79737e-05
0.000194717
-1.79128e-05
0.000198292
-1.78473e-05
0.000201854
-1.77769e-05
0.0002054
-1.77016e-05
0.000208931
-1.76212e-05
0.000212444
-1.75355e-05
0.00021594
-1.74443e-05
0.000219416
-1.73475e-05
0.000222872
-1.72449e-05
0.000226307
-1.71364e-05
0.000229719
-1.70218e-05
0.000233107
-1.6901e-05
0.000236469
-1.67738e-05
0.000239805
-1.66402e-05
0.000243113
-1.64999e-05
0.000246392
-1.63529e-05
0.00024964
-1.6199e-05
0.000252856
-1.60382e-05
0.000256039
-1.58703e-05
0.000259186
-1.56953e-05
0.000262298
-1.5513e-05
0.000265371
-1.53235e-05
0.000268405
-1.51266e-05
0.000271399
-1.49223e-05
0.00027435
-1.47106e-05
0.000277257
-1.44914e-05
0.000280119
-1.42647e-05
0.000282934
-1.40305e-05
0.000285701
-1.37889e-05
0.000288418
-1.35399e-05
0.000291083
-1.32834e-05
0.000293696
-1.30196e-05
0.000296254
-1.27484e-05
0.000298756
-1.24701e-05
0.000301202
-1.21846e-05
0.000303588
-1.18921e-05
0.000305915
-1.15927e-05
0.00030818
-1.12865e-05
0.000310383
-1.09737e-05
0.000312521
-1.06544e-05
0.000314594
-1.03288e-05
0.000316601
-9.99703e-06
0.000318539
-9.65938e-06
0.000320409
-9.31601e-06
0.000322209
-8.96715e-06
0.000323938
-8.61303e-06
0.000325594
-8.25389e-06
0.000327177
-7.88999e-06
0.000328687
-7.52159e-06
0.000330121
-7.14896e-06
0.00033148
-6.77239e-06
0.000332763
-6.39216e-06
0.000333968
-6.00857e-06
0.000335096
-5.62193e-06
0.000336145
-5.23255e-06
0.000337116
-4.84074e-06
0.000338007
-4.44682e-06
0.000338819
-4.05111e-06
0.000339551
-3.65394e-06
0.000340203
-3.25564e-06
0.000340775
-2.85653e-06
0.000341267
-2.45694e-06
0.000341678
-2.0572e-06
0.000342009
-1.65764e-06
0.00034226
-1.25858e-06
0.00034243
-8.60342e-07
0.000342521
-4.63243e-07
0.000342533
-6.7597e-08
0.000342465
3.26288e-07
0.000342319
7.18111e-07
0.000342094
1.10758e-06
0.000341792
1.49439e-06
0.000341412
1.87828e-06
0.000340956
2.25897e-06
0.000340425
2.6362e-06
0.000339818
3.00971e-06
0.000339137
3.37925e-06
0.000338383
3.74459e-06
0.000337556
4.10551e-06
0.000336658
4.4618e-06
0.000335689
4.81324e-06
0.000334651
5.15965e-06
0.000333545
5.50085e-06
0.000332371
5.83667e-06
0.00033113
6.16694e-06
0.000329825
6.49153e-06
0.000328456
6.8103e-06
0.000327024
7.12312e-06
0.000325531
7.42988e-06
0.000323977
7.73049e-06
0.000322365
8.02485e-06
0.000320695
8.31289e-06
0.000318968
8.59454e-06
0.000317186
8.86975e-06
0.000315351
9.13846e-06
0.000313463
9.40064e-06
0.000311524
9.65626e-06
0.000309535
9.90532e-06
0.000307497
1.01478e-05
0.000305413
1.03837e-05
0.000303282
1.06131e-05
0.000301107
1.08359e-05
0.000298889
1.10522e-05
0.000296629
1.1262e-05
0.000294328
1.14654e-05
0.000291988
1.16623e-05
0.00028961
1.1853e-05
0.000287195
1.20374e-05
0.000284745
1.22156e-05
0.00028226
1.23877e-05
0.000279742
1.25537e-05
0.000277192
1.27138e-05
0.000274612
1.28679e-05
0.000272002
1.30164e-05
0.000269363
1.31591e-05
0.000266697
1.32962e-05
0.000264005
1.34279e-05
0.000261288
1.35542e-05
0.000258547
1.36752e-05
0.000255783
1.3791e-05
0.000252996
1.39018e-05
0.000250189
1.40077e-05
0.000247362
1.41088e-05
0.000244515