/*--------------------------------*- C++ -*----------------------------------*\
| =========                 |                                                 |
| \\      /  F ield         | OpenFOAM: The Open Source CFD Toolbox           |
|  \\    /   O peration     | Version:  v2012                                 |
|   \\  /    A nd           | Website:  www.openfoam.com                      |
|    \\/     M anipulation  |                                                 |
\*---------------------------------------------------------------------------*/
FoamFile
{
    version     2.0;
    format      ascii;
    class       volVectorField;
    location    "10.5";
    object      Psi;
}
// * * * * * * * * * * * * * * * * * * * * * * * * * * * * * * * * * * * * * //

dimensions      [0 2 -1 0 0 0 0];


internalField   nonuniform List<vector> 
65536
(
(0 0 9.17266e-06)
(0 0 2.75183e-05)
(0 0 4.58648e-05)
(0 0 6.42127e-05)
(0 0 8.25625e-05)
(0 0 0.000100915)
(0 0 0.00011927)
(0 0 0.000137629)
(0 0 0.000155992)
(0 0 0.00017436)
(0 0 0.000192732)
(0 0 0.00021111)
(0 0 0.000229493)
(0 0 0.000247882)
(0 0 0.000266278)
(0 0 0.000284679)
(0 0 0.000303087)
(0 0 0.000321502)
(0 0 0.000339923)
(0 0 0.000358351)
(0 0 0.000376785)
(0 0 0.000395225)
(0 0 0.000413672)
(0 0 0.000432123)
(0 0 0.00045058)
(0 0 0.000469041)
(0 0 0.000487506)
(0 0 0.000505974)
(0 0 0.000524444)
(0 0 0.000542915)
(0 0 0.000561387)
(0 0 0.000579857)
(0 0 0.000598325)
(0 0 0.00061679)
(0 0 0.000635248)
(0 0 0.0006537)
(0 0 0.000672143)
(0 0 0.000690575)
(0 0 0.000708993)
(0 0 0.000727397)
(0 0 0.000745782)
(0 0 0.000764148)
(0 0 0.00078249)
(0 0 0.000800806)
(0 0 0.000819094)
(0 0 0.000837349)
(0 0 0.000855569)
(0 0 0.000873749)
(0 0 0.000891887)
(0 0 0.000909979)
(0 0 0.000928019)
(0 0 0.000946005)
(0 0 0.000963932)
(0 0 0.000981794)
(0 0 0.000999589)
(0 0 0.00101731)
(0 0 0.00103495)
(0 0 0.00105251)
(0 0 0.00106998)
(0 0 0.00108736)
(0 0 0.00110463)
(0 0 0.0011218)
(0 0 0.00113886)
(0 0 0.0011558)
(0 0 0.00117261)
(0 0 0.0011893)
(0 0 0.00120584)
(0 0 0.00122225)
(0 0 0.0012385)
(0 0 0.00125459)
(0 0 0.00127052)
(0 0 0.00128628)
(0 0 0.00130186)
(0 0 0.00131726)
(0 0 0.00133246)
(0 0 0.00134745)
(0 0 0.00136225)
(0 0 0.00137682)
(0 0 0.00139118)
(0 0 0.0014053)
(0 0 0.00141918)
(0 0 0.00143282)
(0 0 0.00144621)
(0 0 0.00145934)
(0 0 0.0014722)
(0 0 0.00148479)
(0 0 0.00149709)
(0 0 0.00150911)
(0 0 0.00152083)
(0 0 0.00153225)
(0 0 0.00154336)
(0 0 0.00155415)
(0 0 0.00156463)
(0 0 0.00157477)
(0 0 0.00158458)
(0 0 0.00159405)
(0 0 0.00160318)
(0 0 0.00161196)
(0 0 0.00162038)
(0 0 0.00162843)
(0 0 0.00163613)
(0 0 0.00164345)
(0 0 0.00165041)
(0 0 0.00165698)
(0 0 0.00166317)
(0 0 0.00166898)
(0 0 0.0016744)
(0 0 0.00167944)
(0 0 0.00168408)
(0 0 0.00168833)
(0 0 0.00169218)
(0 0 0.00169564)
(0 0 0.00169869)
(0 0 0.00170135)
(0 0 0.00170362)
(0 0 0.00170548)
(0 0 0.00170694)
(0 0 0.00170801)
(0 0 0.00170868)
(0 0 0.00170896)
(0 0 0.00170884)
(0 0 0.00170833)
(0 0 0.00170743)
(0 0 0.00170614)
(0 0 0.00170447)
(0 0 0.00170242)
(0 0 0.00169999)
(0 0 0.00169718)
(0 0 0.00169401)
(0 0 0.00169046)
(0 0 0.00168656)
(0 0 0.0016823)
(0 0 0.00167768)
(0 0 0.00167271)
(0 0 0.00166741)
(0 0 0.00166176)
(0 0 0.00165578)
(0 0 0.00164948)
(0 0 0.00164285)
(0 0 0.00163591)
(0 0 0.00162865)
(0 0 0.0016211)
(0 0 0.00161324)
(0 0 0.0016051)
(0 0 0.00159667)
(0 0 0.00158796)
(0 0 0.00157898)
(0 0 0.00156974)
(0 0 0.00156024)
(0 0 0.00155048)
(0 0 0.00154048)
(0 0 0.00153024)
(0 0 0.00151976)
(0 0 0.00150906)
(0 0 0.00149814)
(0 0 0.00148701)
(0 0 0.00147567)
(0 0 0.00146413)
(0 0 0.00145239)
(0 0 0.00144047)
(0 0 0.00142836)
(0 0 0.00141608)
(0 0 0.00140363)
(0 0 0.00139102)
(0 0 0.00137825)
(0 0 0.00136533)
(0 0 0.00135226)
(0 0 0.00133905)
(0 0 0.00132571)
(0 0 0.00131223)
(0 0 0.00129864)
(0 0 0.00128492)
(0 0 0.00127109)
(0 0 0.00125715)
(0 0 0.00124311)
(0 0 0.00122897)
(0 0 0.00121473)
(0 0 0.0012004)
(0 0 0.00118599)
(0 0 0.0011715)
(0 0 0.00115693)
(0 0 0.00114228)
(0 0 0.00112757)
(0 0 0.00111279)
(0 0 0.00109795)
(0 0 0.00108305)
(0 0 0.0010681)
(0 0 0.0010531)
(0 0 0.00103804)
(0 0 0.00102295)
(0 0 0.00100781)
(0 0 0.000992631)
(0 0 0.000977417)
(0 0 0.00096217)
(0 0 0.000946892)
(0 0 0.000931586)
(0 0 0.000916254)
(0 0 0.000900897)
(0 0 0.00088552)
(0 0 0.000870123)
(0 0 0.000854708)
(0 0 0.000839278)
(0 0 0.000823834)
(0 0 0.000808378)
(0 0 0.000792912)
(0 0 0.000777437)
(0 0 0.000761954)
(0 0 0.000746465)
(0 0 0.000730972)
(0 0 0.000715475)
(0 0 0.000699976)
(0 0 0.000684476)
(0 0 0.000668975)
(0 0 0.000653475)
(0 0 0.000637976)
(0 0 0.00062248)
(0 0 0.000606987)
(0 0 0.000591497)
(0 0 0.000576012)
(0 0 0.000560532)
(0 0 0.000545057)
(0 0 0.000529589)
(0 0 0.000514126)
(0 0 0.00049867)
(0 0 0.000483221)
(0 0 0.000467779)
(0 0 0.000452345)
(0 0 0.000436918)
(0 0 0.000421499)
(0 0 0.000406088)
(0 0 0.000390684)
(0 0 0.000375288)
(0 0 0.0003599)
(0 0 0.00034452)
(0 0 0.000329147)
(0 0 0.000313781)
(0 0 0.000298424)
(0 0 0.000283073)
(0 0 0.000267729)
(0 0 0.000252392)
(0 0 0.000237061)
(0 0 0.000221736)
(0 0 0.000206417)
(0 0 0.000191104)
(0 0 0.000175796)
(0 0 0.000160493)
(0 0 0.000145194)
(0 0 0.000129899)
(0 0 0.000114608)
(0 0 9.93202e-05)
(0 0 8.40353e-05)
(0 0 6.87528e-05)
(0 0 5.34723e-05)
(0 0 3.81934e-05)
(0 0 2.29156e-05)
(0 0 7.63846e-06)
(0 0 2.75177e-05)
(0 0 8.2554e-05)
(0 0 0.000137593)
(0 0 0.000192636)
(0 0 0.000247685)
(0 0 0.000302742)
(0 0 0.000357808)
(0 0 0.000412884)
(0 0 0.000467973)
(0 0 0.000523075)
(0 0 0.000578192)
(0 0 0.000633324)
(0 0 0.000688474)
(0 0 0.000743641)
(0 0 0.000798827)
(0 0 0.000854032)
(0 0 0.000909256)
(0 0 0.0009645)
(0 0 0.00101976)
(0 0 0.00107505)
(0 0 0.00113035)
(0 0 0.00118567)
(0 0 0.00124101)
(0 0 0.00129636)
(0 0 0.00135174)
(0 0 0.00140712)
(0 0 0.00146251)
(0 0 0.00151792)
(0 0 0.00157333)
(0 0 0.00162875)
(0 0 0.00168416)
(0 0 0.00173957)
(0 0 0.00179498)
(0 0 0.00185037)
(0 0 0.00190575)
(0 0 0.00196111)
(0 0 0.00201644)
(0 0 0.00207174)
(0 0 0.002127)
(0 0 0.00218221)
(0 0 0.00223737)
(0 0 0.00229247)
(0 0 0.0023475)
(0 0 0.00240245)
(0 0 0.00245731)
(0 0 0.00251208)
(0 0 0.00256675)
(0 0 0.00262129)
(0 0 0.00267571)
(0 0 0.00272999)
(0 0 0.00278411)
(0 0 0.00283807)
(0 0 0.00289186)
(0 0 0.00294545)
(0 0 0.00299884)
(0 0 0.00305201)
(0 0 0.00310494)
(0 0 0.00315762)
(0 0 0.00321004)
(0 0 0.00326217)
(0 0 0.003314)
(0 0 0.00336552)
(0 0 0.0034167)
(0 0 0.00346752)
(0 0 0.00351797)
(0 0 0.00356803)
(0 0 0.00361768)
(0 0 0.00366689)
(0 0 0.00371566)
(0 0 0.00376395)
(0 0 0.00381174)
(0 0 0.00385903)
(0 0 0.00390577)
(0 0 0.00395196)
(0 0 0.00399757)
(0 0 0.00404257)
(0 0 0.00408695)
(0 0 0.00413069)
(0 0 0.00417376)
(0 0 0.00421613)
(0 0 0.0042578)
(0 0 0.00429872)
(0 0 0.0043389)
(0 0 0.00437829)
(0 0 0.00441688)
(0 0 0.00445464)
(0 0 0.00449156)
(0 0 0.00452762)
(0 0 0.00456279)
(0 0 0.00459705)
(0 0 0.00463039)
(0 0 0.00466278)
(0 0 0.0046942)
(0 0 0.00472464)
(0 0 0.00475408)
(0 0 0.0047825)
(0 0 0.00480989)
(0 0 0.00483622)
(0 0 0.00486148)
(0 0 0.00488567)
(0 0 0.00490876)
(0 0 0.00493073)
(0 0 0.00495159)
(0 0 0.00497132)
(0 0 0.0049899)
(0 0 0.00500733)
(0 0 0.0050236)
(0 0 0.0050387)
(0 0 0.00505263)
(0 0 0.00506537)
(0 0 0.00507693)
(0 0 0.0050873)
(0 0 0.00509648)
(0 0 0.00510446)
(0 0 0.00511124)
(0 0 0.00511683)
(0 0 0.00512123)
(0 0 0.00512443)
(0 0 0.00512644)
(0 0 0.00512727)
(0 0 0.00512691)
(0 0 0.00512538)
(0 0 0.00512268)
(0 0 0.00511881)
(0 0 0.0051138)
(0 0 0.00510763)
(0 0 0.00510034)
(0 0 0.00509192)
(0 0 0.00508239)
(0 0 0.00507175)
(0 0 0.00506003)
(0 0 0.00504724)
(0 0 0.00503338)
(0 0 0.00501849)
(0 0 0.00500256)
(0 0 0.00498561)
(0 0 0.00496767)
(0 0 0.00494875)
(0 0 0.00492886)
(0 0 0.00490802)
(0 0 0.00488626)
(0 0 0.00486359)
(0 0 0.00484002)
(0 0 0.00481558)
(0 0 0.00479029)
(0 0 0.00476416)
(0 0 0.00473722)
(0 0 0.00470948)
(0 0 0.00468096)
(0 0 0.00465168)
(0 0 0.00462167)
(0 0 0.00459094)
(0 0 0.00455951)
(0 0 0.0045274)
(0 0 0.00449464)
(0 0 0.00446123)
(0 0 0.0044272)
(0 0 0.00439257)
(0 0 0.00435736)
(0 0 0.00432158)
(0 0 0.00428526)
(0 0 0.00424842)
(0 0 0.00421106)
(0 0 0.00417322)
(0 0 0.0041349)
(0 0 0.00409612)
(0 0 0.00405691)
(0 0 0.00401728)
(0 0 0.00397724)
(0 0 0.00393682)
(0 0 0.00389602)
(0 0 0.00385487)
(0 0 0.00381337)
(0 0 0.00377155)
(0 0 0.00372942)
(0 0 0.00368699)
(0 0 0.00364427)
(0 0 0.00360129)
(0 0 0.00355805)
(0 0 0.00351456)
(0 0 0.00347085)
(0 0 0.00342691)
(0 0 0.00338277)
(0 0 0.00333843)
(0 0 0.00329391)
(0 0 0.00324921)
(0 0 0.00320435)
(0 0 0.00315933)
(0 0 0.00311418)
(0 0 0.00306888)
(0 0 0.00302346)
(0 0 0.00297793)
(0 0 0.00293228)
(0 0 0.00288654)
(0 0 0.0028407)
(0 0 0.00279478)
(0 0 0.00274878)
(0 0 0.00270271)
(0 0 0.00265658)
(0 0 0.00261038)
(0 0 0.00256414)
(0 0 0.00251785)
(0 0 0.00247151)
(0 0 0.00242514)
(0 0 0.00237874)
(0 0 0.00233232)
(0 0 0.00228587)
(0 0 0.0022394)
(0 0 0.00219292)
(0 0 0.00214643)
(0 0 0.00209993)
(0 0 0.00205343)
(0 0 0.00200692)
(0 0 0.00196042)
(0 0 0.00191393)
(0 0 0.00186744)
(0 0 0.00182096)
(0 0 0.00177449)
(0 0 0.00172803)
(0 0 0.00168159)
(0 0 0.00163517)
(0 0 0.00158876)
(0 0 0.00154237)
(0 0 0.001496)
(0 0 0.00144966)
(0 0 0.00140333)
(0 0 0.00135703)
(0 0 0.00131075)
(0 0 0.00126449)
(0 0 0.00121825)
(0 0 0.00117204)
(0 0 0.00112586)
(0 0 0.00107969)
(0 0 0.00103355)
(0 0 0.000987433)
(0 0 0.000941337)
(0 0 0.000895263)
(0 0 0.000849211)
(0 0 0.000803179)
(0 0 0.000757168)
(0 0 0.000711176)
(0 0 0.000665202)
(0 0 0.000619246)
(0 0 0.000573306)
(0 0 0.000527382)
(0 0 0.000481473)
(0 0 0.000435577)
(0 0 0.000389693)
(0 0 0.000343821)
(0 0 0.000297958)
(0 0 0.000252103)
(0 0 0.000206256)
(0 0 0.000160415)
(0 0 0.000114579)
(0 0 6.87461e-05)
(0 0 2.29151e-05)
(0 0 4.58619e-05)
(0 0 0.000137587)
(0 0 0.000229317)
(0 0 0.000321054)
(0 0 0.0004128)
(0 0 0.00050456)
(0 0 0.000596334)
(0 0 0.000688127)
(0 0 0.00077994)
(0 0 0.000871775)
(0 0 0.000963635)
(0 0 0.00105552)
(0 0 0.00114744)
(0 0 0.00123938)
(0 0 0.00133136)
(0 0 0.00142336)
(0 0 0.00151541)
(0 0 0.00160748)
(0 0 0.00169958)
(0 0 0.00179172)
(0 0 0.0018839)
(0 0 0.0019761)
(0 0 0.00206833)
(0 0 0.00216059)
(0 0 0.00225288)
(0 0 0.00234519)
(0 0 0.00243751)
(0 0 0.00252986)
(0 0 0.00262221)
(0 0 0.00271458)
(0 0 0.00280694)
(0 0 0.0028993)
(0 0 0.00299165)
(0 0 0.00308398)
(0 0 0.00317628)
(0 0 0.00326855)
(0 0 0.00336077)
(0 0 0.00345294)
(0 0 0.00354504)
(0 0 0.00363707)
(0 0 0.00372901)
(0 0 0.00382085)
(0 0 0.00391258)
(0 0 0.00400418)
(0 0 0.00409563)
(0 0 0.00418692)
(0 0 0.00427804)
(0 0 0.00436896)
(0 0 0.00445967)
(0 0 0.00455015)
(0 0 0.00464037)
(0 0 0.00473032)
(0 0 0.00481998)
(0 0 0.00490931)
(0 0 0.00499831)
(0 0 0.00508694)
(0 0 0.00517518)
(0 0 0.005263)
(0 0 0.00535038)
(0 0 0.00543728)
(0 0 0.00552369)
(0 0 0.00560957)
(0 0 0.00569489)
(0 0 0.00577961)
(0 0 0.00586372)
(0 0 0.00594717)
(0 0 0.00602994)
(0 0 0.00611199)
(0 0 0.00619328)
(0 0 0.00627379)
(0 0 0.00635348)
(0 0 0.0064323)
(0 0 0.00651024)
(0 0 0.00658724)
(0 0 0.00666328)
(0 0 0.00673831)
(0 0 0.00681231)
(0 0 0.00688523)
(0 0 0.00695703)
(0 0 0.00702768)
(0 0 0.00709715)
(0 0 0.00716538)
(0 0 0.00723236)
(0 0 0.00729803)
(0 0 0.00736237)
(0 0 0.00742534)
(0 0 0.0074869)
(0 0 0.00754702)
(0 0 0.00760566)
(0 0 0.00766278)
(0 0 0.00771837)
(0 0 0.00777237)
(0 0 0.00782477)
(0 0 0.00787552)
(0 0 0.00792461)
(0 0 0.00797199)
(0 0 0.00801765)
(0 0 0.00806155)
(0 0 0.00810368)
(0 0 0.008144)
(0 0 0.00818249)
(0 0 0.00821914)
(0 0 0.00825391)
(0 0 0.0082868)
(0 0 0.00831778)
(0 0 0.00834684)
(0 0 0.00837397)
(0 0 0.00839915)
(0 0 0.00842236)
(0 0 0.00844361)
(0 0 0.00846288)
(0 0 0.00848016)
(0 0 0.00849546)
(0 0 0.00850876)
(0 0 0.00852007)
(0 0 0.00852938)
(0 0 0.0085367)
(0 0 0.00854204)
(0 0 0.00854539)
(0 0 0.00854676)
(0 0 0.00854616)
(0 0 0.00854359)
(0 0 0.00853908)
(0 0 0.00853264)
(0 0 0.00852426)
(0 0 0.00851398)
(0 0 0.00850181)
(0 0 0.00848777)
(0 0 0.00847187)
(0 0 0.00845413)
(0 0 0.00843458)
(0 0 0.00841324)
(0 0 0.00839014)
(0 0 0.00836529)
(0 0 0.00833872)
(0 0 0.00831046)
(0 0 0.00828054)
(0 0 0.00824898)
(0 0 0.00821582)
(0 0 0.00818107)
(0 0 0.00814478)
(0 0 0.00810697)
(0 0 0.00806767)
(0 0 0.00802692)
(0 0 0.00798474)
(0 0 0.00794118)
(0 0 0.00789625)
(0 0 0.00784999)
(0 0 0.00780244)
(0 0 0.00775363)
(0 0 0.00770358)
(0 0 0.00765234)
(0 0 0.00759994)
(0 0 0.0075464)
(0 0 0.00749177)
(0 0 0.00743607)
(0 0 0.00737933)
(0 0 0.0073216)
(0 0 0.00726289)
(0 0 0.00720324)
(0 0 0.00714269)
(0 0 0.00708126)
(0 0 0.00701898)
(0 0 0.00695588)
(0 0 0.006892)
(0 0 0.00682736)
(0 0 0.00676199)
(0 0 0.00669592)
(0 0 0.00662917)
(0 0 0.00656178)
(0 0 0.00649377)
(0 0 0.00642516)
(0 0 0.00635599)
(0 0 0.00628627)
(0 0 0.00621603)
(0 0 0.0061453)
(0 0 0.00607409)
(0 0 0.00600243)
(0 0 0.00593035)
(0 0 0.00585786)
(0 0 0.00578499)
(0 0 0.00571175)
(0 0 0.00563817)
(0 0 0.00556426)
(0 0 0.00549004)
(0 0 0.00541553)
(0 0 0.00534075)
(0 0 0.00526572)
(0 0 0.00519044)
(0 0 0.00511494)
(0 0 0.00503923)
(0 0 0.00496333)
(0 0 0.00488725)
(0 0 0.004811)
(0 0 0.0047346)
(0 0 0.00465806)
(0 0 0.00458138)
(0 0 0.00450459)
(0 0 0.00442769)
(0 0 0.0043507)
(0 0 0.00427362)
(0 0 0.00419646)
(0 0 0.00411923)
(0 0 0.00404194)
(0 0 0.0039646)
(0 0 0.00388722)
(0 0 0.0038098)
(0 0 0.00373235)
(0 0 0.00365488)
(0 0 0.00357739)
(0 0 0.00349988)
(0 0 0.00342238)
(0 0 0.00334487)
(0 0 0.00326736)
(0 0 0.00318987)
(0 0 0.00311238)
(0 0 0.00303491)
(0 0 0.00295746)
(0 0 0.00288003)
(0 0 0.00280263)
(0 0 0.00272526)
(0 0 0.00264791)
(0 0 0.0025706)
(0 0 0.00249332)
(0 0 0.00241607)
(0 0 0.00233886)
(0 0 0.00226169)
(0 0 0.00218455)
(0 0 0.00210746)
(0 0 0.0020304)
(0 0 0.00195338)
(0 0 0.0018764)
(0 0 0.00179946)
(0 0 0.00172256)
(0 0 0.0016457)
(0 0 0.00156887)
(0 0 0.00149208)
(0 0 0.00141533)
(0 0 0.00133861)
(0 0 0.00126192)
(0 0 0.00118527)
(0 0 0.00110865)
(0 0 0.00103206)
(0 0 0.000955493)
(0 0 0.000878955)
(0 0 0.00080244)
(0 0 0.000725948)
(0 0 0.000649476)
(0 0 0.000573023)
(0 0 0.000496587)
(0 0 0.000420164)
(0 0 0.000343754)
(0 0 0.000267354)
(0 0 0.000190961)
(0 0 0.000114575)
(0 0 3.81912e-05)
(0 0 6.42047e-05)
(0 0 0.000192616)
(0 0 0.000321033)
(0 0 0.000449461)
(0 0 0.000577903)
(0 0 0.000706362)
(0 0 0.000834843)
(0 0 0.000963349)
(0 0 0.00109188)
(0 0 0.00122045)
(0 0 0.00134905)
(0 0 0.00147769)
(0 0 0.00160637)
(0 0 0.00173509)
(0 0 0.00186386)
(0 0 0.00199267)
(0 0 0.00212152)
(0 0 0.00225042)
(0 0 0.00237937)
(0 0 0.00250837)
(0 0 0.00263741)
(0 0 0.0027665)
(0 0 0.00289562)
(0 0 0.00302479)
(0 0 0.003154)
(0 0 0.00328323)
(0 0 0.0034125)
(0 0 0.00354179)
(0 0 0.00367109)
(0 0 0.00380041)
(0 0 0.00392972)
(0 0 0.00405903)
(0 0 0.00418833)
(0 0 0.0043176)
(0 0 0.00444684)
(0 0 0.00457603)
(0 0 0.00470515)
(0 0 0.00483421)
(0 0 0.00496317)
(0 0 0.00509203)
(0 0 0.00522076)
(0 0 0.00534936)
(0 0 0.00547779)
(0 0 0.00560605)
(0 0 0.00573411)
(0 0 0.00586194)
(0 0 0.00598953)
(0 0 0.00611684)
(0 0 0.00624386)
(0 0 0.00637056)
(0 0 0.0064969)
(0 0 0.00662286)
(0 0 0.00674841)
(0 0 0.00687352)
(0 0 0.00699815)
(0 0 0.00712226)
(0 0 0.00724583)
(0 0 0.00736882)
(0 0 0.00749119)
(0 0 0.0076129)
(0 0 0.00773391)
(0 0 0.00785418)
(0 0 0.00797367)
(0 0 0.00809233)
(0 0 0.00821012)
(0 0 0.008327)
(0 0 0.00844293)
(0 0 0.00855784)
(0 0 0.0086717)
(0 0 0.00878446)
(0 0 0.00889607)
(0 0 0.00900648)
(0 0 0.00911564)
(0 0 0.00922349)
(0 0 0.00933)
(0 0 0.0094351)
(0 0 0.00953874)
(0 0 0.00964088)
(0 0 0.00974145)
(0 0 0.00984042)
(0 0 0.00993772)
(0 0 0.0100333)
(0 0 0.0101271)
(0 0 0.0102191)
(0 0 0.0103092)
(0 0 0.0103974)
(0 0 0.0104837)
(0 0 0.0105679)
(0 0 0.01065)
(0 0 0.0107301)
(0 0 0.0108079)
(0 0 0.0108836)
(0 0 0.010957)
(0 0 0.0110281)
(0 0 0.0110968)
(0 0 0.0111632)
(0 0 0.0112272)
(0 0 0.0112887)
(0 0 0.0113477)
(0 0 0.0114042)
(0 0 0.0114581)
(0 0 0.0115094)
(0 0 0.0115581)
(0 0 0.0116042)
(0 0 0.0116476)
(0 0 0.0116883)
(0 0 0.0117263)
(0 0 0.0117615)
(0 0 0.0117941)
(0 0 0.0118238)
(0 0 0.0118508)
(0 0 0.011875)
(0 0 0.0118964)
(0 0 0.0119151)
(0 0 0.0119309)
(0 0 0.0119439)
(0 0 0.0119542)
(0 0 0.0119616)
(0 0 0.0119663)
(0 0 0.0119682)
(0 0 0.0119674)
(0 0 0.0119638)
(0 0 0.0119574)
(0 0 0.0119484)
(0 0 0.0119366)
(0 0 0.0119222)
(0 0 0.0119052)
(0 0 0.0118855)
(0 0 0.0118632)
(0 0 0.0118383)
(0 0 0.0118109)
(0 0 0.011781)
(0 0 0.0117486)
(0 0 0.0117138)
(0 0 0.0116766)
(0 0 0.011637)
(0 0 0.011595)
(0 0 0.0115508)
(0 0 0.0115044)
(0 0 0.0114557)
(0 0 0.0114048)
(0 0 0.0113518)
(0 0 0.0112968)
(0 0 0.0112397)
(0 0 0.0111806)
(0 0 0.0111195)
(0 0 0.0110566)
(0 0 0.0109918)
(0 0 0.0109252)
(0 0 0.0108568)
(0 0 0.0107867)
(0 0 0.0107149)
(0 0 0.0106415)
(0 0 0.0105665)
(0 0 0.01049)
(0 0 0.0104119)
(0 0 0.0103325)
(0 0 0.0102516)
(0 0 0.0101694)
(0 0 0.0100858)
(0 0 0.010001)
(0 0 0.00991495)
(0 0 0.00982772)
(0 0 0.00973934)
(0 0 0.00964986)
(0 0 0.00955933)
(0 0 0.00946777)
(0 0 0.00937523)
(0 0 0.00928175)
(0 0 0.00918736)
(0 0 0.00909211)
(0 0 0.00899602)
(0 0 0.00889914)
(0 0 0.0088015)
(0 0 0.00870313)
(0 0 0.00860408)
(0 0 0.00850436)
(0 0 0.00840401)
(0 0 0.00830306)
(0 0 0.00820155)
(0 0 0.0080995)
(0 0 0.00799694)
(0 0 0.00789389)
(0 0 0.00779039)
(0 0 0.00768646)
(0 0 0.00758213)
(0 0 0.00747741)
(0 0 0.00737234)
(0 0 0.00726693)
(0 0 0.00716121)
(0 0 0.0070552)
(0 0 0.00694892)
(0 0 0.00684239)
(0 0 0.00673562)
(0 0 0.00662864)
(0 0 0.00652146)
(0 0 0.0064141)
(0 0 0.00630658)
(0 0 0.00619891)
(0 0 0.0060911)
(0 0 0.00598317)
(0 0 0.00587514)
(0 0 0.005767)
(0 0 0.00565879)
(0 0 0.0055505)
(0 0 0.00544216)
(0 0 0.00533376)
(0 0 0.00522532)
(0 0 0.00511685)
(0 0 0.00500836)
(0 0 0.00489985)
(0 0 0.00479133)
(0 0 0.00468281)
(0 0 0.0045743)
(0 0 0.0044658)
(0 0 0.00435731)
(0 0 0.00424885)
(0 0 0.00414042)
(0 0 0.00403201)
(0 0 0.00392365)
(0 0 0.00381532)
(0 0 0.00370703)
(0 0 0.00359879)
(0 0 0.00349059)
(0 0 0.00338245)
(0 0 0.00327435)
(0 0 0.00316631)
(0 0 0.00305832)
(0 0 0.00295038)
(0 0 0.0028425)
(0 0 0.00273468)
(0 0 0.00262691)
(0 0 0.00251919)
(0 0 0.00241153)
(0 0 0.00230392)
(0 0 0.00219637)
(0 0 0.00208886)
(0 0 0.00198141)
(0 0 0.00187401)
(0 0 0.00176665)
(0 0 0.00165934)
(0 0 0.00155207)
(0 0 0.00144484)
(0 0 0.00133765)
(0 0 0.0012305)
(0 0 0.00112338)
(0 0 0.0010163)
(0 0 0.000909241)
(0 0 0.00080221)
(0 0 0.000695201)
(0 0 0.000588213)
(0 0 0.000481241)
(0 0 0.000374284)
(0 0 0.000267338)
(0 0 0.0001604)
(0 0 5.3466e-05)
(0 0 8.25454e-05)
(0 0 0.000247639)
(0 0 0.00041274)
(0 0 0.000577854)
(0 0 0.000742987)
(0 0 0.000908143)
(0 0 0.00107333)
(0 0 0.00123854)
(0 0 0.0014038)
(0 0 0.00156909)
(0 0 0.00173443)
(0 0 0.00189982)
(0 0 0.00206526)
(0 0 0.00223076)
(0 0 0.00239631)
(0 0 0.00256192)
(0 0 0.00272759)
(0 0 0.00289332)
(0 0 0.00305911)
(0 0 0.00322497)
(0 0 0.00339088)
(0 0 0.00355685)
(0 0 0.00372288)
(0 0 0.00388896)
(0 0 0.00405508)
(0 0 0.00422125)
(0 0 0.00438746)
(0 0 0.0045537)
(0 0 0.00471996)
(0 0 0.00488623)
(0 0 0.00505251)
(0 0 0.00521878)
(0 0 0.00538504)
(0 0 0.00555127)
(0 0 0.00571745)
(0 0 0.00588357)
(0 0 0.00604961)
(0 0 0.00621556)
(0 0 0.0063814)
(0 0 0.0065471)
(0 0 0.00671265)
(0 0 0.00687802)
(0 0 0.00704319)
(0 0 0.00720812)
(0 0 0.00737281)
(0 0 0.00753721)
(0 0 0.00770129)
(0 0 0.00786502)
(0 0 0.00802838)
(0 0 0.00819132)
(0 0 0.00835382)
(0 0 0.00851582)
(0 0 0.00867729)
(0 0 0.0088382)
(0 0 0.00899849)
(0 0 0.00915813)
(0 0 0.00931707)
(0 0 0.00947527)
(0 0 0.00963266)
(0 0 0.00978921)
(0 0 0.00994487)
(0 0 0.0100996)
(0 0 0.0102533)
(0 0 0.0104059)
(0 0 0.0105574)
(0 0 0.0107078)
(0 0 0.0108569)
(0 0 0.0110047)
(0 0 0.0111512)
(0 0 0.0112963)
(0 0 0.0114399)
(0 0 0.0115819)
(0 0 0.0117223)
(0 0 0.0118611)
(0 0 0.0119981)
(0 0 0.0121333)
(0 0 0.0122667)
(0 0 0.0123981)
(0 0 0.0125275)
(0 0 0.0126548)
(0 0 0.01278)
(0 0 0.012903)
(0 0 0.0130237)
(0 0 0.0131421)
(0 0 0.013258)
(0 0 0.0133715)
(0 0 0.0134825)
(0 0 0.0135908)
(0 0 0.0136965)
(0 0 0.0137995)
(0 0 0.0138997)
(0 0 0.013997)
(0 0 0.0140915)
(0 0 0.014183)
(0 0 0.0142714)
(0 0 0.0143568)
(0 0 0.0144391)
(0 0 0.0145183)
(0 0 0.0145942)
(0 0 0.0146669)
(0 0 0.0147363)
(0 0 0.0148023)
(0 0 0.014865)
(0 0 0.0149242)
(0 0 0.0149801)
(0 0 0.0150325)
(0 0 0.0150813)
(0 0 0.0151267)
(0 0 0.0151685)
(0 0 0.0152068)
(0 0 0.0152415)
(0 0 0.0152726)
(0 0 0.0153002)
(0 0 0.0153241)
(0 0 0.0153445)
(0 0 0.0153613)
(0 0 0.0153744)
(0 0 0.015384)
(0 0 0.01539)
(0 0 0.0153924)
(0 0 0.0153913)
(0 0 0.0153867)
(0 0 0.0153785)
(0 0 0.0153668)
(0 0 0.0153517)
(0 0 0.0153331)
(0 0 0.0153111)
(0 0 0.0152858)
(0 0 0.0152571)
(0 0 0.0152251)
(0 0 0.0151898)
(0 0 0.0151513)
(0 0 0.0151096)
(0 0 0.0150647)
(0 0 0.0150168)
(0 0 0.0149658)
(0 0 0.0149118)
(0 0 0.0148549)
(0 0 0.0147951)
(0 0 0.0147324)
(0 0 0.014667)
(0 0 0.0145988)
(0 0 0.0145279)
(0 0 0.0144544)
(0 0 0.0143784)
(0 0 0.0142998)
(0 0 0.0142188)
(0 0 0.0141354)
(0 0 0.0140497)
(0 0 0.0139617)
(0 0 0.0138715)
(0 0 0.0137791)
(0 0 0.0136846)
(0 0 0.0135881)
(0 0 0.0134897)
(0 0 0.0133893)
(0 0 0.013287)
(0 0 0.013183)
(0 0 0.0130771)
(0 0 0.0129697)
(0 0 0.0128605)
(0 0 0.0127498)
(0 0 0.0126376)
(0 0 0.0125239)
(0 0 0.0124088)
(0 0 0.0122923)
(0 0 0.0121745)
(0 0 0.0120555)
(0 0 0.0119352)
(0 0 0.0118138)
(0 0 0.0116913)
(0 0 0.0115677)
(0 0 0.0114431)
(0 0 0.0113175)
(0 0 0.0111909)
(0 0 0.0110635)
(0 0 0.0109353)
(0 0 0.0108062)
(0 0 0.0106763)
(0 0 0.0105458)
(0 0 0.0104145)
(0 0 0.0102826)
(0 0 0.0101501)
(0 0 0.010017)
(0 0 0.00988329)
(0 0 0.0097491)
(0 0 0.00961443)
(0 0 0.00947929)
(0 0 0.00934373)
(0 0 0.00920777)
(0 0 0.00907144)
(0 0 0.00893476)
(0 0 0.00879775)
(0 0 0.00866045)
(0 0 0.00852288)
(0 0 0.00838505)
(0 0 0.00824699)
(0 0 0.00810872)
(0 0 0.00797026)
(0 0 0.00783162)
(0 0 0.00769283)
(0 0 0.00755391)
(0 0 0.00741486)
(0 0 0.00727571)
(0 0 0.00713647)
(0 0 0.00699715)
(0 0 0.00685776)
(0 0 0.00671833)
(0 0 0.00657885)
(0 0 0.00643934)
(0 0 0.00629982)
(0 0 0.00616028)
(0 0 0.00602075)
(0 0 0.00588122)
(0 0 0.00574171)
(0 0 0.00560222)
(0 0 0.00546276)
(0 0 0.00532334)
(0 0 0.00518396)
(0 0 0.00504462)
(0 0 0.00490534)
(0 0 0.00476611)
(0 0 0.00462693)
(0 0 0.00448782)
(0 0 0.00434877)
(0 0 0.00420979)
(0 0 0.00407088)
(0 0 0.00393203)
(0 0 0.00379326)
(0 0 0.00365455)
(0 0 0.00351592)
(0 0 0.00337736)
(0 0 0.00323887)
(0 0 0.00310045)
(0 0 0.0029621)
(0 0 0.00282381)
(0 0 0.0026856)
(0 0 0.00254744)
(0 0 0.00240936)
(0 0 0.00227133)
(0 0 0.00213336)
(0 0 0.00199545)
(0 0 0.00185759)
(0 0 0.00171978)
(0 0 0.00158202)
(0 0 0.0014443)
(0 0 0.00130662)
(0 0 0.00116898)
(0 0 0.00103137)
(0 0 0.000893796)
(0 0 0.000756244)
(0 0 0.000618715)
(0 0 0.000481204)
(0 0 0.000343707)
(0 0 0.00020622)
(0 0 6.87394e-05)
(0 0 0.000100883)
(0 0 0.000302654)
(0 0 0.000504434)
(0 0 0.00070623)
(0 0 0.000908048)
(0 0 0.0011099)
(0 0 0.00131178)
(0 0 0.0015137)
(0 0 0.00171567)
(0 0 0.00191769)
(0 0 0.00211976)
(0 0 0.0023219)
(0 0 0.0025241)
(0 0 0.00272636)
(0 0 0.0029287)
(0 0 0.00313111)
(0 0 0.0033336)
(0 0 0.00353616)
(0 0 0.0037388)
(0 0 0.00394151)
(0 0 0.00414429)
(0 0 0.00434715)
(0 0 0.00455008)
(0 0 0.00475307)
(0 0 0.00495613)
(0 0 0.00515923)
(0 0 0.00536239)
(0 0 0.00556558)
(0 0 0.00576881)
(0 0 0.00597205)
(0 0 0.00617531)
(0 0 0.00637855)
(0 0 0.00658178)
(0 0 0.00678497)
(0 0 0.00698811)
(0 0 0.00719118)
(0 0 0.00739416)
(0 0 0.00759703)
(0 0 0.00779976)
(0 0 0.00800233)
(0 0 0.00820471)
(0 0 0.00840688)
(0 0 0.00860881)
(0 0 0.00881045)
(0 0 0.00901179)
(0 0 0.00921278)
(0 0 0.00941339)
(0 0 0.00961358)
(0 0 0.00981331)
(0 0 0.0100125)
(0 0 0.0102112)
(0 0 0.0104093)
(0 0 0.0106067)
(0 0 0.0108035)
(0 0 0.0109995)
(0 0 0.0111947)
(0 0 0.0113891)
(0 0 0.0115825)
(0 0 0.011775)
(0 0 0.0119664)
(0 0 0.0121568)
(0 0 0.012346)
(0 0 0.0125339)
(0 0 0.0127206)
(0 0 0.0129059)
(0 0 0.0130898)
(0 0 0.0132722)
(0 0 0.013453)
(0 0 0.0136322)
(0 0 0.0138096)
(0 0 0.0139852)
(0 0 0.0141589)
(0 0 0.0143307)
(0 0 0.0145004)
(0 0 0.014668)
(0 0 0.0148334)
(0 0 0.0149966)
(0 0 0.0151573)
(0 0 0.0153156)
(0 0 0.0154714)
(0 0 0.0156245)
(0 0 0.015775)
(0 0 0.0159226)
(0 0 0.0160674)
(0 0 0.0162093)
(0 0 0.0163481)
(0 0 0.0164839)
(0 0 0.0166164)
(0 0 0.0167458)
(0 0 0.0168717)
(0 0 0.0169943)
(0 0 0.0171134)
(0 0 0.0172289)
(0 0 0.0173409)
(0 0 0.0174491)
(0 0 0.0175536)
(0 0 0.0176543)
(0 0 0.0177511)
(0 0 0.017844)
(0 0 0.0179329)
(0 0 0.0180178)
(0 0 0.0180986)
(0 0 0.0181752)
(0 0 0.0182477)
(0 0 0.018316)
(0 0 0.0183801)
(0 0 0.0184399)
(0 0 0.0184954)
(0 0 0.0185465)
(0 0 0.0185934)
(0 0 0.0186358)
(0 0 0.0186739)
(0 0 0.0187076)
(0 0 0.0187368)
(0 0 0.0187617)
(0 0 0.0187822)
(0 0 0.0187983)
(0 0 0.01881)
(0 0 0.0188173)
(0 0 0.0188202)
(0 0 0.0188188)
(0 0 0.0188131)
(0 0 0.018803)
(0 0 0.0187887)
(0 0 0.0187702)
(0 0 0.0187474)
(0 0 0.0187205)
(0 0 0.0186894)
(0 0 0.0186543)
(0 0 0.0186151)
(0 0 0.0185719)
(0 0 0.0185247)
(0 0 0.0184736)
(0 0 0.0184188)
(0 0 0.0183601)
(0 0 0.0182977)
(0 0 0.0182316)
(0 0 0.0181619)
(0 0 0.0180887)
(0 0 0.018012)
(0 0 0.0179319)
(0 0 0.0178484)
(0 0 0.0177617)
(0 0 0.0176718)
(0 0 0.0175787)
(0 0 0.0174826)
(0 0 0.0173834)
(0 0 0.0172814)
(0 0 0.0171765)
(0 0 0.0170688)
(0 0 0.0169584)
(0 0 0.0168454)
(0 0 0.0167298)
(0 0 0.0166118)
(0 0 0.0164913)
(0 0 0.0163685)
(0 0 0.0162434)
(0 0 0.0161161)
(0 0 0.0159866)
(0 0 0.0158551)
(0 0 0.0157216)
(0 0 0.0155862)
(0 0 0.0154489)
(0 0 0.0153099)
(0 0 0.0151691)
(0 0 0.0150266)
(0 0 0.0148826)
(0 0 0.0147369)
(0 0 0.0145899)
(0 0 0.0144414)
(0 0 0.0142915)
(0 0 0.0141404)
(0 0 0.013988)
(0 0 0.0138344)
(0 0 0.0136796)
(0 0 0.0135238)
(0 0 0.013367)
(0 0 0.0132091)
(0 0 0.0130503)
(0 0 0.0128907)
(0 0 0.0127302)
(0 0 0.0125689)
(0 0 0.0124068)
(0 0 0.0122441)
(0 0 0.0120806)
(0 0 0.0119166)
(0 0 0.0117519)
(0 0 0.0115867)
(0 0 0.0114209)
(0 0 0.0112547)
(0 0 0.011088)
(0 0 0.0109209)
(0 0 0.0107534)
(0 0 0.0105856)
(0 0 0.0104174)
(0 0 0.0102489)
(0 0 0.0100801)
(0 0 0.00991105)
(0 0 0.00974178)
(0 0 0.0095723)
(0 0 0.00940264)
(0 0 0.00923281)
(0 0 0.00906283)
(0 0 0.00889272)
(0 0 0.00872251)
(0 0 0.0085522)
(0 0 0.00838182)
(0 0 0.00821137)
(0 0 0.00804088)
(0 0 0.00787035)
(0 0 0.0076998)
(0 0 0.00752924)
(0 0 0.00735868)
(0 0 0.00718813)
(0 0 0.0070176)
(0 0 0.0068471)
(0 0 0.00667664)
(0 0 0.00650622)
(0 0 0.00633586)
(0 0 0.00616555)
(0 0 0.0059953)
(0 0 0.00582512)
(0 0 0.00565502)
(0 0 0.00548499)
(0 0 0.00531503)
(0 0 0.00514516)
(0 0 0.00497538)
(0 0 0.00480567)
(0 0 0.00463606)
(0 0 0.00446653)
(0 0 0.00429709)
(0 0 0.00412774)
(0 0 0.00395847)
(0 0 0.00378929)
(0 0 0.0036202)
(0 0 0.00345119)
(0 0 0.00328226)
(0 0 0.00311342)
(0 0 0.00294465)
(0 0 0.00277595)
(0 0 0.00260733)
(0 0 0.00243877)
(0 0 0.00227028)
(0 0 0.00210186)
(0 0 0.00193349)
(0 0 0.00176517)
(0 0 0.00159691)
(0 0 0.00142869)
(0 0 0.00126051)
(0 0 0.00109236)
(0 0 0.000924254)
(0 0 0.00075617)
(0 0 0.000588109)
(0 0 0.000420066)
(0 0 0.000252034)
(0 0 8.40106e-05)
(0 0 0.000119218)
(0 0 0.000357659)
(0 0 0.000596111)
(0 0 0.000834582)
(0 0 0.00107308)
(0 0 0.00131161)
(0 0 0.00155019)
(0 0 0.00178881)
(0 0 0.00202749)
(0 0 0.00226623)
(0 0 0.00250503)
(0 0 0.00274391)
(0 0 0.00298287)
(0 0 0.0032219)
(0 0 0.00346102)
(0 0 0.00370023)
(0 0 0.00393953)
(0 0 0.00417892)
(0 0 0.0044184)
(0 0 0.00465797)
(0 0 0.00489763)
(0 0 0.00513738)
(0 0 0.00537722)
(0 0 0.00561713)
(0 0 0.00585711)
(0 0 0.00609717)
(0 0 0.00633728)
(0 0 0.00657744)
(0 0 0.00681764)
(0 0 0.00705787)
(0 0 0.00729811)
(0 0 0.00753834)
(0 0 0.00777856)
(0 0 0.00801873)
(0 0 0.00825885)
(0 0 0.00849889)
(0 0 0.00873883)
(0 0 0.00897863)
(0 0 0.00921828)
(0 0 0.00945775)
(0 0 0.009697)
(0 0 0.00993599)
(0 0 0.0101747)
(0 0 0.0104131)
(0 0 0.0106511)
(0 0 0.0108887)
(0 0 0.0111259)
(0 0 0.0113626)
(0 0 0.0115987)
(0 0 0.0118343)
(0 0 0.0120692)
(0 0 0.0123034)
(0 0 0.0125369)
(0 0 0.0127695)
(0 0 0.0130013)
(0 0 0.0132321)
(0 0 0.013462)
(0 0 0.0136907)
(0 0 0.0139183)
(0 0 0.0141447)
(0 0 0.0143698)
(0 0 0.0145936)
(0 0 0.0148159)
(0 0 0.0150367)
(0 0 0.0152559)
(0 0 0.0154733)
(0 0 0.0156891)
(0 0 0.0159029)
(0 0 0.0161148)
(0 0 0.0163247)
(0 0 0.0165324)
(0 0 0.0167379)
(0 0 0.0169411)
(0 0 0.0171419)
(0 0 0.0173402)
(0 0 0.0175358)
(0 0 0.0177288)
(0 0 0.017919)
(0 0 0.0181062)
(0 0 0.0182905)
(0 0 0.0184717)
(0 0 0.0186497)
(0 0 0.0188244)
(0 0 0.0189957)
(0 0 0.0191636)
(0 0 0.0193279)
(0 0 0.0194885)
(0 0 0.0196453)
(0 0 0.0197983)
(0 0 0.0199474)
(0 0 0.0200924)
(0 0 0.0202333)
(0 0 0.02037)
(0 0 0.0205024)
(0 0 0.0206305)
(0 0 0.0207541)
(0 0 0.0208733)
(0 0 0.0209878)
(0 0 0.0210977)
(0 0 0.0212029)
(0 0 0.0213033)
(0 0 0.0213989)
(0 0 0.0214897)
(0 0 0.0215754)
(0 0 0.0216562)
(0 0 0.021732)
(0 0 0.0218028)
(0 0 0.0218684)
(0 0 0.0219289)
(0 0 0.0219843)
(0 0 0.0220345)
(0 0 0.0220795)
(0 0 0.0221193)
(0 0 0.0221539)
(0 0 0.0221833)
(0 0 0.0222075)
(0 0 0.0222265)
(0 0 0.0222403)
(0 0 0.0222489)
(0 0 0.0222523)
(0 0 0.0222506)
(0 0 0.0222438)
(0 0 0.0222319)
(0 0 0.0222149)
(0 0 0.0221929)
(0 0 0.0221659)
(0 0 0.022134)
(0 0 0.0220972)
(0 0 0.0220555)
(0 0 0.0220091)
(0 0 0.0219579)
(0 0 0.021902)
(0 0 0.0218416)
(0 0 0.0217766)
(0 0 0.0217071)
(0 0 0.0216332)
(0 0 0.0215549)
(0 0 0.0214724)
(0 0 0.0213858)
(0 0 0.021295)
(0 0 0.0212001)
(0 0 0.0211013)
(0 0 0.0209987)
(0 0 0.0208922)
(0 0 0.0207821)
(0 0 0.0206683)
(0 0 0.020551)
(0 0 0.0204302)
(0 0 0.020306)
(0 0 0.0201786)
(0 0 0.020048)
(0 0 0.0199143)
(0 0 0.0197775)
(0 0 0.0196378)
(0 0 0.0194952)
(0 0 0.0193499)
(0 0 0.0192019)
(0 0 0.0190513)
(0 0 0.0188982)
(0 0 0.0187426)
(0 0 0.0185847)
(0 0 0.0184245)
(0 0 0.0182621)
(0 0 0.0180976)
(0 0 0.017931)
(0 0 0.0177625)
(0 0 0.0175921)
(0 0 0.0174199)
(0 0 0.0172459)
(0 0 0.0170703)
(0 0 0.0168931)
(0 0 0.0167143)
(0 0 0.016534)
(0 0 0.0163524)
(0 0 0.0161694)
(0 0 0.0159851)
(0 0 0.0157996)
(0 0 0.015613)
(0 0 0.0154252)
(0 0 0.0152364)
(0 0 0.0150467)
(0 0 0.0148559)
(0 0 0.0146643)
(0 0 0.0144719)
(0 0 0.0142786)
(0 0 0.0140846)
(0 0 0.0138899)
(0 0 0.0136946)
(0 0 0.0134986)
(0 0 0.0133021)
(0 0 0.013105)
(0 0 0.0129075)
(0 0 0.0127094)
(0 0 0.012511)
(0 0 0.0123122)
(0 0 0.012113)
(0 0 0.0119134)
(0 0 0.0117136)
(0 0 0.0115135)
(0 0 0.0113132)
(0 0 0.0111126)
(0 0 0.0109118)
(0 0 0.0107109)
(0 0 0.0105098)
(0 0 0.0103086)
(0 0 0.0101073)