/*--------------------------------*- C++ -*----------------------------------*\
| =========                 |                                                 |
| \\      /  F ield         | OpenFOAM: The Open Source CFD Toolbox           |
|  \\    /   O peration     | Version:  v2012                                 |
|   \\  /    A nd           | Website:  www.openfoam.com                      |
|    \\/     M anipulation  |                                                 |
\*---------------------------------------------------------------------------*/
FoamFile
{
    version     2.0;
    format      ascii;
    class       volScalarField;
    location    "10.5";
    object      W;
}
// * * * * * * * * * * * * * * * * * * * * * * * * * * * * * * * * * * * * * //

dimensions      [0 0 -1 0 0 0 0];


internalField   nonuniform List<scalar> 
65536
(
4.03041e-17
4.15301e-17
4.40342e-17
4.78776e-17
5.31545e-17
5.99938e-17
6.8562e-17
7.90665e-17
9.17601e-17
1.06946e-16
1.24983e-16
1.46296e-16
1.71378e-16
2.00806e-16
2.35247e-16
2.75473e-16
3.22372e-16
3.76968e-16
4.40434e-16
5.14114e-16
5.99545e-16
6.98481e-16
8.12922e-16
9.45143e-16
1.09773e-15
1.27362e-15
1.47613e-15
1.70903e-15
1.97656e-15
2.28353e-15
2.63533e-15
3.03803e-15
3.49847e-15
4.02429e-15
4.62407e-15
5.30739e-15
6.08495e-15
6.96867e-15
7.97184e-15
9.1092e-15
1.03971e-14
1.18537e-14
1.34991e-14
1.53553e-14
1.74468e-14
1.98004e-14
2.24456e-14
2.54147e-14
2.87432e-14
3.24696e-14
3.66363e-14
4.1289e-14
4.64777e-14
5.22565e-14
5.8684e-14
6.58235e-14
7.37433e-14
8.25168e-14
9.22229e-14
1.02946e-13
1.14777e-13
1.27812e-13
1.42153e-13
1.5791e-13
1.75199e-13
1.94141e-13
2.14865e-13
2.37508e-13
2.62212e-13
2.89124e-13
3.18402e-13
3.50205e-13
3.84703e-13
4.22069e-13
4.62481e-13
5.06122e-13
5.53182e-13
6.03852e-13
6.58326e-13
7.16801e-13
7.79474e-13
8.46545e-13
9.1821e-13
9.94664e-13
1.0761e-12
1.1627e-12
1.25465e-12
1.35212e-12
1.45527e-12
1.56425e-12
1.6792e-12
1.80024e-12
1.92748e-12
2.061e-12
2.20086e-12
2.3471e-12
2.49973e-12
2.65874e-12
2.82408e-12
2.99567e-12
3.17339e-12
3.35708e-12
3.54656e-12
3.74158e-12
3.94188e-12
4.14711e-12
4.35692e-12
4.57087e-12
4.78851e-12
5.00929e-12
5.23266e-12
5.45798e-12
5.68458e-12
5.91173e-12
6.13864e-12
6.3645e-12
6.58842e-12
6.80949e-12
7.02673e-12
7.23916e-12
7.44573e-12
7.6454e-12
7.83706e-12
8.01962e-12
8.19197e-12
8.353e-12
8.50161e-12
8.63671e-12
8.75724e-12
8.86217e-12
8.95054e-12
9.02143e-12
9.074e-12
9.10749e-12
9.12123e-12
9.11467e-12
9.08736e-12
9.03901e-12
8.96943e-12
8.87859e-12
8.76663e-12
8.63384e-12
8.48067e-12
8.30775e-12
8.11585e-12
7.90594e-12
7.67914e-12
7.43671e-12
7.18007e-12
6.91077e-12
6.63049e-12
6.34099e-12
6.04414e-12
5.74186e-12
5.43611e-12
5.12888e-12
4.82217e-12
4.51793e-12
4.21807e-12
3.92443e-12
3.63878e-12
3.36275e-12
3.09785e-12
2.84546e-12
2.60679e-12
2.38289e-12
2.17465e-12
1.98277e-12
1.80778e-12
1.65002e-12
1.50967e-12
1.38674e-12
1.28106e-12
1.19232e-12
1.12005e-12
1.06363e-12
1.02232e-12
9.95258e-13
9.81442e-13
9.79778e-13
9.89071e-13
1.00803e-12
1.0353e-12
1.06943e-12
1.10896e-12
1.15236e-12
1.19808e-12
1.24461e-12
1.29042e-12
1.33407e-12
1.37415e-12
1.40938e-12
1.43861e-12
1.46083e-12
1.47519e-12
1.48106e-12
1.47799e-12
1.46575e-12
1.44434e-12
1.41397e-12
1.37505e-12
1.32818e-12
1.27413e-12
1.21381e-12
1.14823e-12
1.07851e-12
1.00578e-12
9.31177e-13
8.55835e-13
7.80818e-13
7.0711e-13
6.35591e-13
5.67023e-13
5.02034e-13
4.41119e-13
3.84634e-13
3.32805e-13
2.85735e-13
2.43417e-13
2.05748e-13
1.72543e-13
1.43557e-13
1.18495e-13
9.70304e-14
7.88193e-14
6.35127e-14
5.07666e-14
4.02505e-14
3.16538e-14
2.46906e-14
1.91017e-14
1.46568e-14
1.11536e-14
8.41775e-15
6.30034e-15
4.67639e-15
3.4421e-15
2.51241e-15
1.81846e-15
1.30512e-15
9.288e-16
6.55399e-16
4.58556e-16
3.18106e-16
2.18794e-16
1.49203e-16
1.00878e-16
6.76259e-17
4.49561e-17
2.9649e-17
1.94214e-17
1.26742e-17
8.30423e-18
5.56722e-18
3.97976e-18
3.25334e-18
5.93669e-17
6.11697e-17
6.48543e-17
7.05101e-17
7.82754e-17
8.83398e-17
1.00948e-16
1.16404e-16
1.35081e-16
1.57423e-16
1.83959e-16
2.1531e-16
2.52203e-16
2.95484e-16
3.46133e-16
4.05282e-16
4.74237e-16
5.54498e-16
6.47784e-16
7.56068e-16
8.81602e-16
1.02696e-15
1.19506e-15
1.38924e-15
1.61328e-15
1.87147e-15
2.16868e-15
2.51039e-15
2.90281e-15
3.35293e-15
3.86862e-15
4.45874e-15
5.13321e-15
5.90316e-15
6.78104e-15
7.78075e-15
8.9178e-15
1.02095e-14
1.16749e-14
1.33355e-14
1.52148e-14
1.73389e-14
1.97367e-14
2.24399e-14
2.54834e-14
2.89058e-14
3.2749e-14
3.70591e-14
4.18866e-14
4.72861e-14
5.33175e-14
6.00456e-14
6.75405e-14
7.58784e-14
8.51412e-14
9.54173e-14
1.06802e-13
1.19396e-13
1.3331e-13
1.48659e-13
1.65567e-13
1.84167e-13
2.04597e-13
2.27005e-13
2.51548e-13
2.78388e-13
3.07698e-13
3.39657e-13
3.74453e-13
4.1228e-13
4.53341e-13
4.97844e-13
5.46004e-13
5.98041e-13
6.54181e-13
7.14653e-13
7.79689e-13
8.49523e-13
9.24391e-13
1.00453e-12
1.09016e-12
1.18153e-12
1.27886e-12
1.38235e-12
1.49223e-12
1.6087e-12
1.73193e-12
1.8621e-12
1.99936e-12
2.14386e-12
2.2957e-12
2.45498e-12
2.62176e-12
2.79607e-12
2.97792e-12
3.16728e-12
3.36409e-12
3.56823e-12
3.77956e-12
3.99789e-12
4.22299e-12
4.45458e-12
4.69233e-12
4.93584e-12
5.18469e-12
5.43839e-12
5.6964e-12
5.9581e-12
6.22286e-12
6.48994e-12
6.7586e-12
7.02799e-12
7.29725e-12
7.56543e-12
7.83157e-12
8.09463e-12
8.35354e-12
8.60717e-12
8.85438e-12
9.09399e-12
9.32479e-12
9.54555e-12
9.75503e-12
9.95198e-12
1.01352e-11
1.03034e-11
1.04554e-11
1.05901e-11
1.07064e-11
1.08031e-11
1.08793e-11
1.0934e-11
1.09666e-11
1.09762e-11
1.09623e-11
1.09243e-11
1.08621e-11
1.07754e-11
1.06642e-11
1.05288e-11
1.03693e-11
1.01864e-11
9.98076e-12
9.75327e-12
9.50499e-12
9.23718e-12
8.95124e-12
8.64877e-12
8.33149e-12
8.00127e-12
7.66008e-12
7.31002e-12
6.95322e-12
6.59192e-12
6.22834e-12
5.86473e-12
5.50333e-12
5.14631e-12
4.79577e-12
4.45374e-12
4.12211e-12
3.80265e-12
3.49697e-12
3.2065e-12
2.93251e-12
2.67608e-12
2.43806e-12
2.21915e-12
2.01983e-12
1.84037e-12
1.68087e-12
1.54122e-12
1.42117e-12
1.32027e-12
1.23791e-12
1.17335e-12
1.12568e-12
1.09388e-12
1.07681e-12
1.07321e-12
1.08172e-12
1.10089e-12
1.1292e-12
1.16505e-12
1.2068e-12
1.25278e-12
1.3013e-12
1.3507e-12
1.39931e-12
1.44557e-12
1.48796e-12
1.52511e-12
1.55576e-12
1.57883e-12
1.59343e-12
1.59888e-12
1.5947e-12
1.58068e-12
1.55682e-12
1.52334e-12
1.48072e-12
1.42959e-12
1.37081e-12
1.30535e-12
1.23433e-12
1.15891e-12
1.08034e-12
9.99831e-13
9.186e-13
8.37786e-13
7.58441e-13
6.81505e-13
6.07789e-13
5.37961e-13
4.72545e-13
4.11917e-13
3.56311e-13
3.05834e-13
2.60471e-13
2.20107e-13
1.84541e-13
1.53503e-13
1.26676e-13
1.03706e-13
8.42243e-14
6.78543e-14
5.42262e-14
4.29853e-14
3.37984e-14
2.63587e-14
2.03889e-14
1.56419e-14
1.19014e-14
8.98078e-15
6.72079e-15
4.98777e-15
3.67081e-15
2.67902e-15
1.93882e-15
1.39134e-15
9.90049e-16
6.98546e-16
4.88695e-16
3.38982e-16
2.33131e-16
1.58966e-16
1.0747e-16
7.20395e-17
4.78867e-17
3.15795e-17
2.06846e-17
1.34976e-17
8.84318e-18
5.92815e-18
4.23753e-18
3.464e-18
1.0562e-16
1.08822e-16
1.1537e-16
1.25421e-16
1.39222e-16
1.57108e-16
1.79513e-16
2.0698e-16
2.40166e-16
2.79862e-16
3.27006e-16
3.827e-16
4.48233e-16
5.25105e-16
6.15053e-16
7.20084e-16
8.4251e-16
9.84988e-16
1.15057e-15
1.34273e-15
1.56547e-15
1.82332e-15
2.12146e-15
2.46578e-15
2.86296e-15
3.32056e-15
3.84716e-15
4.45243e-15
5.14731e-15
5.94408e-15
6.8566e-15
7.90039e-15
9.09289e-15
1.04536e-14
1.20043e-14
1.37693e-14
1.57758e-14
1.80537e-14
2.06366e-14
2.35615e-14
2.68694e-14
3.06054e-14
3.48196e-14
3.95667e-14
4.4907e-14
5.09065e-14
5.76375e-14
6.51787e-14
7.3616e-14
8.30428e-14
9.35605e-14
1.05279e-13
1.18316e-13
1.328e-13
1.48868e-13
1.66668e-13
1.86357e-13
2.08104e-13
2.32088e-13
2.585e-13
2.87543e-13
3.1943e-13
3.54386e-13
3.92647e-13
4.34463e-13
4.80091e-13
5.29802e-13
5.83877e-13
6.42604e-13
7.06282e-13
7.75219e-13
8.49727e-13
9.30126e-13
1.01674e-12
1.1099e-12
1.20992e-12
1.31714e-12
1.43188e-12
1.55447e-12
1.6852e-12
1.8244e-12
1.97233e-12
2.1293e-12
2.29554e-12
2.47129e-12
2.65677e-12
2.85217e-12
3.05764e-12
3.27329e-12
3.49922e-12
3.73546e-12
3.98203e-12
4.23886e-12
4.50587e-12
4.78291e-12
5.06978e-12
5.3662e-12
5.67187e-12
5.98639e-12
6.30931e-12
6.64013e-12
6.97825e-12
7.32302e-12
7.67371e-12
8.02954e-12
8.38963e-12
8.75306e-12
9.11883e-12
9.48585e-12
9.853e-12
1.02191e-11
1.05828e-11
1.09429e-11
1.1298e-11
1.16466e-11
1.19874e-11
1.23188e-11
1.26392e-11
1.29472e-11
1.32412e-11
1.35197e-11
1.3781e-11
1.40236e-11
1.4246e-11
1.44467e-11
1.46244e-11
1.47775e-11
1.49049e-11
1.50053e-11
1.50777e-11
1.5121e-11
1.51343e-11
1.5117e-11
1.50685e-11
1.49884e-11
1.48766e-11
1.47329e-11
1.45576e-11
1.4351e-11
1.41138e-11
1.38468e-11
1.3551e-11
1.32277e-11
1.28784e-11
1.25047e-11
1.21085e-11
1.16919e-11
1.12572e-11
1.08067e-11
1.0343e-11
9.86874e-12
9.38661e-12
8.89941e-12
8.40996e-12
7.92107e-12
7.43552e-12
6.95603e-12
6.48523e-12
6.02562e-12
5.57958e-12
5.14928e-12
4.73674e-12
4.34375e-12
3.97187e-12
3.62245e-12
3.29657e-12
2.99509e-12
2.71861e-12
2.46749e-12
2.24186e-12
2.04163e-12
1.86648e-12
1.71588e-12
1.58913e-12
1.48533e-12
1.40341e-12
1.34217e-12
1.30025e-12
1.27618e-12
1.26834e-12
1.27504e-12
1.29449e-12
1.32482e-12
1.3641e-12
1.41037e-12
1.46162e-12
1.51586e-12
1.57112e-12
1.62548e-12
1.67709e-12
1.72422e-12
1.76526e-12
1.79879e-12
1.82358e-12
1.83862e-12
1.84314e-12
1.83664e-12
1.81887e-12
1.78986e-12
1.74992e-12
1.69958e-12
1.63961e-12
1.571e-12
1.49489e-12
1.41254e-12
1.32532e-12
1.23463e-12
1.14188e-12
1.04845e-12
9.5563e-13
8.64613e-13
7.76461e-13
6.9209e-13
6.12248e-13
5.37518e-13
4.68317e-13
4.04901e-13
3.47376e-13
2.95717e-13
2.49781e-13
2.0933e-13
1.74052e-13
1.43576e-13
1.17497e-13
9.53894e-14
7.68219e-14
6.13716e-14
4.86334e-14
3.82272e-14
2.98035e-14
2.30467e-14
1.76759e-14
1.34454e-14
1.01432e-14
7.58876e-15
5.63057e-15
4.14293e-15
3.02291e-15
2.18723e-15
1.56929e-15
1.11646e-15
7.87589e-16
5.50891e-16
3.82059e-16
2.62715e-16
1.79111e-16
1.21072e-16
8.11458e-17
5.39328e-17
3.55623e-17
2.32905e-17
1.51963e-17
9.95496e-18
6.67268e-18
4.76923e-18
3.89838e-18
1.98345e-16
2.04352e-16
2.16637e-16
2.35496e-16
2.6139e-16
2.94949e-16
3.36986e-16
3.88516e-16
4.50774e-16
5.25242e-16
6.13675e-16
7.1814e-16
8.41051e-16
9.85216e-16
1.15389e-15
1.35083e-15
1.58036e-15
1.84745e-15
2.15781e-15
2.51795e-15
2.93533e-15
3.41843e-15
3.97693e-15
4.62181e-15
5.36553e-15
6.22222e-15
7.20785e-15
8.34044e-15
9.64034e-15
1.11304e-14
1.28364e-14
1.47872e-14
1.70152e-14
1.95564e-14
2.24512e-14
2.57447e-14
2.94869e-14
3.37333e-14
3.85457e-14
4.39923e-14
5.01482e-14
5.70967e-14
6.49291e-14
7.37457e-14
8.36565e-14
9.47819e-14
1.07253e-13
1.21213e-13
1.36817e-13
1.54235e-13
1.73647e-13
1.95252e-13
2.19261e-13
2.45903e-13
2.75421e-13
3.08077e-13
3.44149e-13
3.83934e-13
4.27746e-13
4.75917e-13
5.28798e-13
5.86757e-13
6.50181e-13
7.19473e-13
7.95053e-13
8.77358e-13
9.66837e-13
1.06396e-12
1.16919e-12
1.28303e-12
1.40596e-12
1.53849e-12
1.68112e-12
1.83435e-12
1.99869e-12
2.17463e-12
2.36265e-12
2.56322e-12
2.7768e-12
3.00381e-12
3.24467e-12
3.49974e-12
3.76936e-12
4.05382e-12
4.35337e-12
4.66821e-12
4.99848e-12
5.34426e-12
5.70556e-12
6.08232e-12
6.47442e-12
6.88162e-12
7.30365e-12
7.74012e-12
8.19054e-12
8.65435e-12
9.13089e-12
9.61939e-12
1.0119e-11
1.06287e-11
1.11475e-11
1.16742e-11
1.22076e-11
1.27462e-11
1.32886e-11
1.38333e-11
1.43786e-11
1.49227e-11
1.5464e-11
1.60005e-11
1.65302e-11
1.70511e-11
1.75612e-11
1.80584e-11
1.85406e-11
1.90055e-11
1.9451e-11
1.98749e-11
2.0275e-11
2.06493e-11
2.09956e-11
2.13118e-11
2.1596e-11
2.18463e-11
2.20608e-11
2.22379e-11
2.23761e-11
2.24738e-11
2.25298e-11
2.25431e-11
2.25129e-11
2.24383e-11
2.2319e-11
2.21548e-11
2.19457e-11
2.1692e-11
2.13943e-11
2.10534e-11
2.06705e-11
2.0247e-11
1.97845e-11
1.92851e-11
1.8751e-11
1.81846e-11
1.75887e-11
1.69664e-11
1.63207e-11
1.5655e-11
1.49729e-11
1.42781e-11
1.35741e-11
1.28648e-11
1.21541e-11
1.14457e-11
1.07433e-11
1.00506e-11
9.37099e-12
8.70788e-12
8.06436e-12
7.44332e-12
6.84739e-12
6.27891e-12
5.73992e-12
5.23217e-12
4.75705e-12
4.31565e-12
3.90873e-12
3.53674e-12
3.19981e-12
2.89777e-12
2.63017e-12
2.39632e-12
2.19524e-12
2.02577e-12
1.88649e-12
1.77585e-12
1.69207e-12
1.63326e-12
1.59737e-12
1.58224e-12
1.58561e-12
1.60512e-12
1.63835e-12
1.68281e-12
1.73601e-12
1.79542e-12
1.85856e-12
1.92297e-12
1.98628e-12
2.04623e-12
2.10071e-12
2.14778e-12
2.18574e-12
2.2131e-12
2.22868e-12
2.23158e-12
2.22122e-12
2.19736e-12
2.16007e-12
2.10972e-12
2.04702e-12
1.97292e-12
1.88862e-12
1.7955e-12
1.69512e-12
1.58911e-12
1.47916e-12
1.36695e-12
1.25414e-12
1.14225e-12
1.03271e-12
9.26765e-13
8.25497e-13
7.29782e-13
6.40296e-13
5.57517e-13
4.81732e-13
4.13052e-13
3.51428e-13
2.96676e-13
2.485e-13
2.06515e-13
1.70271e-13
1.39278e-13
1.1302e-13
9.09802e-14
7.26515e-14
5.75483e-14
4.52167e-14
3.52394e-14
2.72401e-14
2.08847e-14
1.58808e-14
1.19765e-14
8.95762e-15
6.64421e-15
4.88735e-15
3.56509e-15
2.57884e-15
1.84979e-15
1.3157e-15
9.27927e-16
6.48909e-16
4.49943e-16
3.09332e-16
2.10853e-16
1.42502e-16
9.5492e-17
6.34573e-17
4.18359e-17
2.73951e-17
1.78718e-17
1.1706e-17
7.84522e-18
5.60654e-18
4.58238e-18
3.75101e-16
3.86452e-16
4.09668e-16
4.4531e-16
4.94246e-16
5.57666e-16
6.37107e-16
7.34486e-16
8.52133e-16
9.92848e-16
1.15995e-15
1.35732e-15
1.58954e-15
1.8619e-15
2.18054e-15
2.55255e-15
2.98608e-15
3.49053e-15
4.07662e-15
4.75666e-15
5.54468e-15
6.45668e-15
7.51086e-15
8.7279e-15
1.01312e-14
1.17475e-14
1.36066e-14
1.57424e-14
1.81933e-14
2.1002e-14
2.42169e-14
2.7892e-14
3.20879e-14
3.68722e-14
4.23203e-14
4.85164e-14
5.55538e-14
6.3536e-14
7.25779e-14
8.28062e-14
9.43607e-14
1.07395e-13
1.2208e-13
1.38599e-13
1.57155e-13
1.77972e-13
2.01288e-13
2.27368e-13
2.56496e-13
2.88979e-13
3.2515e-13
3.65367e-13
4.10014e-13
4.59503e-13
5.14273e-13
5.74794e-13
6.41563e-13
7.15109e-13
7.95989e-13
8.84789e-13
9.82126e-13
1.08865e-12
1.20502e-12
1.33194e-12
1.47014e-12
1.62036e-12
1.78336e-12
1.95992e-12
2.15084e-12
2.35692e-12
2.57897e-12
2.8178e-12
3.0742e-12
3.34897e-12
3.64289e-12
3.9567e-12
4.29112e-12
4.64684e-12
5.02449e-12
5.42465e-12
5.84784e-12
6.29451e-12
6.76504e-12
7.2597e-12
7.77869e-12
8.32209e-12
8.88988e-12
9.48192e-12
1.00979e-11
1.07375e-11
1.14002e-11
1.20852e-11
1.27917e-11
1.35188e-11
1.42654e-11
1.503e-11
1.58114e-11
1.66078e-11
1.74175e-11
1.82387e-11
1.90691e-11
1.99067e-11
2.07491e-11
2.15937e-11
2.2438e-11
2.32792e-11
2.41145e-11
2.4941e-11
2.57555e-11
2.65551e-11
2.73366e-11
2.80967e-11
2.88322e-11
2.954e-11
3.02167e-11
3.08592e-11
3.14643e-11
3.20288e-11
3.25498e-11
3.30242e-11
3.34494e-11
3.38226e-11
3.41413e-11
3.44032e-11
3.46061e-11
3.47482e-11
3.48278e-11
3.48434e-11
3.4794e-11
3.46787e-11
3.44971e-11
3.4249e-11
3.39345e-11
3.35541e-11
3.31089e-11
3.26e-11
3.20291e-11
3.13983e-11
3.07099e-11
2.99668e-11
2.91722e-11
2.83295e-11
2.74425e-11
2.65155e-11
2.55528e-11
2.45593e-11
2.35397e-11
2.24991e-11
2.14429e-11
2.03762e-11
1.93046e-11
1.82333e-11
1.71676e-11
1.61129e-11
1.5074e-11
1.40558e-11
1.30629e-11
1.20997e-11
1.11699e-11
1.02774e-11
9.4251e-12
8.61591e-12
7.85212e-12
7.1356e-12
6.46778e-12
5.84964e-12
5.28171e-12
4.76411e-12
4.29654e-12
3.87832e-12
3.50843e-12
3.1855e-12
2.90785e-12
2.67356e-12
2.48044e-12
2.3261e-12
2.20793e-12
2.12319e-12
2.06898e-12
2.04226e-12
2.03994e-12
2.05879e-12
2.09556e-12
2.14697e-12
2.2097e-12
2.28048e-12
2.35606e-12
2.43332e-12
2.5092e-12
2.58086e-12
2.64563e-12
2.70109e-12
2.74511e-12
2.77588e-12
2.79194e-12
2.79222e-12
2.77604e-12
2.74313e-12
2.69364e-12
2.62808e-12
2.54736e-12
2.4527e-12
2.34562e-12
2.22788e-12
2.1014e-12
1.96823e-12
1.83047e-12
1.6902e-12
1.54945e-12
1.4101e-12
1.27389e-12
1.14236e-12
1.01679e-12
8.98269e-13
7.87587e-13
6.85314e-13
5.9178e-13
5.07096e-13
4.31183e-13
3.63794e-13
3.04548e-13
2.52956e-13
2.08453e-13
1.70422e-13
1.38225e-13
1.11218e-13
8.87714e-14
7.02862e-14
5.52016e-14
4.30035e-14
3.32287e-14
2.54664e-14
1.93577e-14
1.45935e-14
1.09112e-14
8.09068e-15
5.94949e-15
4.33858e-15
3.13745e-15
2.24987e-15
1.59984e-15
1.12804e-15
7.88663e-16
5.46721e-16
3.75784e-16
2.56096e-16
1.73045e-16
1.15937e-16
7.703e-17
5.07754e-17
3.32434e-17
2.16836e-17
1.42005e-17
9.51552e-18
6.7992e-18
5.55662e-18
7.05132e-16
7.26455e-16
7.70073e-16
8.37037e-16
9.28979e-16
1.04813e-15
1.19739e-15
1.38034e-15
1.60137e-15
1.86573e-15
2.17964e-15
2.55043e-15
2.98665e-15
3.49826e-15
4.09676e-15
4.79548e-15
5.60971e-15
6.55705e-15
7.65765e-15
8.93455e-15
1.04141e-14
1.21262e-14
1.4105e-14
1.63893e-14
1.90228e-14
2.20554e-14
2.55432e-14
2.95495e-14
3.41456e-14
3.94119e-14
4.54382e-14
5.23256e-14
6.01868e-14
6.91478e-14
7.93491e-14
9.09469e-14
1.04115e-13
1.19045e-13
1.3595e-13
1.55064e-13
1.76647e-13
2.00983e-13
2.28383e-13
2.5919e-13
2.93776e-13
3.32548e-13
3.75948e-13
4.24457e-13
4.78593e-13
5.38917e-13
6.06033e-13
6.8059e-13
7.63281e-13
8.54849e-13
9.56084e-13
1.06783e-12
1.19096e-12
1.32643e-12
1.47523e-12
1.63837e-12
1.81696e-12
2.0121e-12
2.22498e-12
2.45679e-12
2.70878e-12
2.98221e-12
3.27838e-12
3.59859e-12
3.94417e-12
4.31643e-12
4.71669e-12
5.14624e-12
5.60637e-12
6.09829e-12
6.62319e-12
7.18219e-12
7.77633e-12
8.40657e-12
9.07376e-12
9.77864e-12
1.05218e-11
1.13037e-11
1.21247e-11
1.29849e-11
1.38842e-11
1.48223e-11
1.57989e-11
1.68132e-11
1.78644e-11
1.89512e-11
2.00723e-11
2.12261e-11
2.24106e-11
2.36237e-11
2.4863e-11
2.61259e-11
2.74094e-11
2.87104e-11
3.00254e-11
3.1351e-11
3.26831e-11
3.40179e-11
3.5351e-11
3.6678e-11
3.79945e-11
3.92957e-11
4.05768e-11
4.18329e-11
4.30592e-11
4.42504e-11
4.54018e-11
4.65082e-11
4.75647e-11
4.85665e-11
4.95087e-11
5.03866e-11
5.11957e-11
5.19318e-11
5.25906e-11
5.31683e-11
5.36613e-11
5.40661e-11
5.438e-11
5.46001e-11
5.47242e-11
5.47504e-11
5.46773e-11
5.45039e-11
5.42295e-11
5.38542e-11
5.33783e-11
5.28028e-11
5.21292e-11
5.13594e-11
5.04959e-11
4.95419e-11
4.85008e-11
4.73767e-11
4.61743e-11
4.48986e-11
4.35552e-11
4.215e-11
4.06893e-11
3.91801e-11
3.76291e-11
3.60438e-11
3.44317e-11
3.28005e-11
3.11577e-11
2.95113e-11
2.7869e-11
2.62383e-11
2.46266e-11
2.30411e-11
2.14887e-11
1.99758e-11
1.85084e-11
1.70921e-11
1.57318e-11
1.44319e-11
1.31964e-11
1.20283e-11
1.09303e-11
9.90414e-12
8.95124e-12
8.07222e-12
7.26714e-12
6.53548e-12
5.8762e-12
5.28776e-12
4.76816e-12
4.31498e-12
3.92544e-12
3.59642e-12
3.32454e-12
3.10616e-12
2.93742e-12
2.8143e-12
2.73264e-12
2.68815e-12
2.67647e-12
2.69317e-12
2.73378e-12
2.79385e-12
2.86894e-12
2.95468e-12
3.0468e-12
3.14116e-12
3.23382e-12
3.32107e-12
3.39949e-12
3.46599e-12
3.51786e-12
3.55282e-12
3.56905e-12
3.56525e-12
3.54059e-12
3.4948e-12
3.4281e-12
3.34123e-12
3.23536e-12
3.11211e-12
2.97343e-12
2.82158e-12
2.65902e-12
2.48835e-12
2.31222e-12
2.13328e-12
1.95406e-12
1.77695e-12
1.60409e-12
1.43741e-12
1.27851e-12
1.12869e-12
9.88953e-13
8.59971e-13
7.4213e-13
6.35541e-13
5.40079e-13
4.55409e-13
3.81031e-13
3.16312e-13
2.60526e-13
2.12888e-13
1.72584e-13
1.38798e-13
1.10735e-13
8.76376e-14
6.87999e-14
5.3575e-14
4.1381e-14
3.17023e-14
2.4089e-14
1.8154e-14
1.35688e-14
1.0058e-14
7.39383e-15
5.39023e-15
3.89684e-15
2.79366e-15
1.986e-15
1.39997e-15
9.78545e-16
6.78196e-16
4.6605e-16
3.17546e-16
2.14524e-16
1.437e-16
9.5459e-17
6.29123e-17
4.11827e-17
2.68579e-17
1.75863e-17
1.17824e-17
8.41773e-18
6.87865e-18
1.31319e-15
1.35288e-15
1.43408e-15
1.55874e-15
1.72989e-15
1.95171e-15
2.22956e-15
2.57014e-15
2.98159e-15
3.47371e-15
4.05806e-15
4.74828e-15
5.56028e-15
6.51258e-15
7.62661e-15
8.9271e-15
1.04426e-14
1.22057e-14
1.42539e-14
1.66301e-14
1.93831e-14
2.25687e-14
2.62503e-14
3.04996e-14
3.53982e-14
4.10384e-14
4.75242e-14
5.49731e-14
6.35174e-14
7.33055e-14
8.45043e-14
9.73003e-14
1.11902e-13
1.28543e-13
1.47481e-13
1.69006e-13
1.93436e-13
2.21126e-13
2.52468e-13
2.87892e-13
3.27873e-13
3.72932e-13
4.23642e-13
4.80626e-13
5.44565e-13
6.162e-13
6.96337e-13
7.85846e-13
8.85668e-13
9.96818e-13
1.12038e-12
1.25753e-12
1.40952e-12
1.57766e-12
1.76337e-12
1.96814e-12
2.19355e-12
2.44126e-12
2.713e-12
3.01059e-12
3.33592e-12
3.69093e-12
4.07763e-12
4.49811e-12
4.95446e-12
5.44884e-12
5.98341e-12
6.56035e-12
7.18183e-12
7.85001e-12
8.567e-12
9.33485e-12
1.01555e-11
1.1031e-11
1.19629e-11
1.29529e-11
1.40024e-11
1.51128e-11
1.62851e-11
1.752e-11
1.88182e-11
2.01798e-11
2.16049e-11
2.30931e-11
2.46437e-11
2.62555e-11
2.79272e-11
2.96568e-11
3.14421e-11
3.32804e-11
3.51686e-11
3.71032e-11
3.90802e-11
4.10952e-11
4.31435e-11
4.52199e-11
4.73189e-11
4.94344e-11
5.15603e-11
5.36899e-11
5.58163e-11
5.79325e-11
6.00309e-11
6.21041e-11
6.41443e-11
6.61437e-11
6.80944e-11
6.99884e-11
7.18178e-11
7.35747e-11
7.52514e-11
7.68402e-11
7.83338e-11
7.97249e-11
8.10067e-11
8.21725e-11
8.32162e-11
8.4132e-11
8.49145e-11
8.55589e-11
8.60609e-11
8.64166e-11
8.66228e-11
8.66772e-11
8.65776e-11
8.63229e-11
8.59125e-11
8.53467e-11
8.46262e-11
8.37528e-11
8.27289e-11
8.15575e-11
8.02427e-11
7.8789e-11
7.7202e-11
7.54876e-11
7.36527e-11
7.17049e-11
6.96523e-11
6.75036e-11
6.52681e-11
6.29557e-11
6.05766e-11
5.81414e-11
5.56611e-11
5.31468e-11
5.06099e-11
4.80616e-11
4.55133e-11
4.29763e-11
4.04614e-11
3.79795e-11
3.55406e-11
3.31546e-11
3.08307e-11
2.85775e-11
2.64027e-11
2.43134e-11
2.23157e-11
2.04151e-11
1.86159e-11
1.69217e-11
1.5335e-11
1.38575e-11
1.24901e-11
1.12327e-11
1.00844e-11
9.0436e-12
8.10799e-12
7.27457e-12
6.53981e-12
5.89964e-12
5.34953e-12
4.8846e-12
4.49963e-12
4.18911e-12
3.94736e-12
3.76847e-12
3.64646e-12
3.57523e-12
3.54861e-12
3.56045e-12
3.60459e-12
3.67492e-12
3.76542e-12
3.87021e-12
3.98359e-12
4.10006e-12
4.21442e-12
4.32183e-12
4.4178e-12
4.49836e-12
4.56002e-12
4.59986e-12
4.6156e-12
4.60559e-12
4.56886e-12
4.5051e-12
4.41469e-12
4.29862e-12
4.15848e-12
3.99637e-12
3.81486e-12
3.61688e-12
3.4056e-12
3.18437e-12
2.9566e-12
2.72566e-12
2.49477e-12
2.26696e-12
2.04496e-12
1.83118e-12
1.62764e-12
1.43596e-12
1.25738e-12
1.0927e-12
9.42399e-13
8.06573e-13
6.85029e-13
5.77316e-13
4.82769e-13
4.00562e-13
3.29752e-13
2.69325e-13
2.18233e-13
1.75431e-13
1.399e-13
1.10672e-13
8.68477e-14
6.76023e-14
5.21957e-14
3.99728e-14
3.03626e-14
2.28742e-14
1.70912e-14
1.2665e-14
9.30751e-15
6.78338e-15
4.90265e-15
3.51379e-15
2.4973e-15
1.75996e-15
1.22989e-15
8.52202e-16
5.85501e-16
3.98853e-16
2.694e-16
1.80427e-16
1.19835e-16
7.89639e-17
5.16819e-17
3.36997e-17
2.20628e-17
1.47793e-17
1.05573e-17
8.62613e-18
2.4208e-15
2.49394e-15
2.64357e-15
2.87332e-15
3.18875e-15
3.59756e-15
4.10964e-15
4.73733e-15
5.49565e-15
6.40262e-15
7.4796e-15
8.75169e-15
1.02482e-14
1.20033e-14
1.40564e-14
1.64532e-14
1.9246e-14
2.24951e-14
2.62696e-14
3.06483e-14
3.57212e-14
4.15908e-14
4.83737e-14
5.62021e-14
6.5226e-14
7.56148e-14
8.756e-14
1.01277e-13
1.1701e-13
1.35029e-13
1.55643e-13
1.79191e-13
2.06058e-13
2.36669e-13
2.71499e-13
3.11074e-13
3.55979e-13
4.0686e-13
4.64431e-13
5.29478e-13
6.02864e-13
6.85537e-13
7.78535e-13
8.82989e-13
1.00013e-12
1.13131e-12
1.27796e-12
1.44167e-12
1.62412e-12
1.82713e-12
2.05265e-12
2.30277e-12
2.57971e-12
2.88583e-12
3.22362e-12
3.59573e-12
4.00493e-12
4.45413e-12
4.94635e-12
5.48475e-12
6.07259e-12
6.71324e-12
7.41014e-12
8.16681e-12
8.98682e-12
9.87377e-12
1.08313e-11
1.18629e-11
1.29721e-11
1.41626e-11
1.54374e-11
1.68e-11
1.82532e-11
1.98e-11
2.14428e-11
2.31839e-11
2.50251e-11
2.6968e-11
2.90136e-11
3.11627e-11
3.34152e-11
3.57708e-11
3.82285e-11
4.07866e-11
4.34428e-11
4.61944e-11
4.90377e-11
5.19684e-11
5.49815e-11
5.80714e-11
6.12315e-11
6.44549e-11
6.77337e-11
7.10594e-11
7.4423e-11
7.78147e-11
8.12243e-11
8.4641e-11
8.80536e-11
9.14502e-11
9.4819e-11
9.81475e-11
1.01423e-10
1.04633e-10
1.07765e-10
1.10806e-10
1.13743e-10
1.16563e-10
1.19255e-10
1.21806e-10
1.24204e-10
1.26438e-10
1.28497e-10
1.30372e-10
1.32052e-10
1.33529e-10
1.34795e-10
1.35842e-10
1.36664e-10
1.37256e-10
1.37613e-10
1.37731e-10
1.37609e-10
1.37244e-10
1.36636e-10
1.35786e-10
1.34696e-10
1.33368e-10
1.31807e-10
1.30018e-10
1.28007e-10
1.25781e-10
1.23349e-10
1.20719e-10
1.17903e-10
1.14912e-10
1.11758e-10
1.08454e-10
1.05013e-10
1.01451e-10
9.77823e-11
9.40229e-11
9.01887e-11
8.62963e-11
8.23623e-11
7.84034e-11
7.44364e-11
7.04779e-11
6.65443e-11
6.26514e-11
5.88147e-11
5.50489e-11
5.13681e-11
4.77853e-11
4.43128e-11
4.09615e-11
3.77416e-11
3.46616e-11
3.17291e-11
2.89501e-11
2.63296e-11
2.3871e-11
2.15766e-11
1.94473e-11
1.74829e-11
1.56818e-11
1.40415e-11
1.25586e-11
1.12285e-11
1.0046e-11
9.00506e-12
8.09907e-12
7.32088e-12
6.66288e-12
6.11714e-12
5.67544e-12
5.32935e-12
5.0703e-12
4.88964e-12
4.77869e-12
4.72877e-12
4.73126e-12
4.77763e-12
4.8595e-12
4.96867e-12
5.09716e-12
5.23732e-12
5.3818e-12
5.52373e-12
5.65667e-12
5.7748e-12
5.87288e-12
5.94641e-12
5.99166e-12
6.0057e-12
5.98646e-12
5.93275e-12
5.84428e-12
5.72159e-12
5.56604e-12
5.37977e-12
5.16557e-12
4.92679e-12
4.66726e-12
4.3911e-12
4.10265e-12
3.8063e-12
3.50639e-12
3.20705e-12
2.91216e-12
2.62518e-12
2.34919e-12
2.08672e-12
1.83982e-12
1.61002e-12
1.39834e-12
1.2053e-12
1.031e-12
8.75166e-13
7.37168e-13
6.16128e-13
5.10959e-13
4.20432e-13
3.43229e-13
2.77993e-13
2.23373e-13
1.78057e-13
1.40801e-13
1.10447e-13
8.59396e-14
6.63297e-14
5.07792e-14
3.85579e-14
2.90388e-14
2.16904e-14
1.60683e-14
1.18052e-14
8.60131e-15
6.21489e-15
4.45316e-15
3.16414e-15
2.2294e-15
1.55758e-15
1.07904e-15
7.41194e-16
5.04815e-16
3.40908e-16
2.28277e-16
1.5159e-16
9.98726e-17
6.53565e-17
4.261e-17
2.78921e-17
1.86814e-17
1.33427e-17
1.0901e-17
4.41653e-15
4.54994e-15
4.82289e-15
5.24198e-15
5.81741e-15
6.56317e-15
7.49734e-15
8.64243e-15
1.00259e-14
1.16805e-14
1.36453e-14
1.59661e-14
1.86965e-14
2.18985e-14
2.56444e-14
3.00172e-14
3.51126e-14
4.10405e-14
4.79268e-14
5.59153e-14
6.51701e-14
7.5878e-14
8.82515e-14
1.02532e-13
1.18991e-13
1.3794e-13
1.59725e-13
1.84739e-13
2.13425e-13
2.46278e-13
2.83853e-13
3.26774e-13
3.75733e-13
4.31505e-13
4.94949e-13
5.67022e-13
6.48781e-13
7.41394e-13
8.46153e-13
9.64477e-13
1.09792e-12
1.2482e-12
1.41718e-12
1.60689e-12
1.81955e-12
2.05756e-12
2.32352e-12
2.62023e-12
2.95071e-12
3.3182e-12
3.72616e-12
4.17829e-12
4.67851e-12
5.23098e-12
5.84011e-12
6.51049e-12
7.24699e-12
8.05466e-12
8.93875e-12
9.9047e-12
1.09581e-11
1.21047e-11
1.33504e-11
1.47011e-11
1.61627e-11
1.77413e-11
1.94428e-11
2.12729e-11
2.32375e-11
2.5342e-11
2.75917e-11
2.99913e-11
3.25454e-11
3.52581e-11
3.81328e-11
4.11724e-11
4.43792e-11
4.77545e-11
5.1299e-11
5.50125e-11
5.88938e-11
6.29406e-11
6.71498e-11
7.15169e-11
7.60365e-11
8.0702e-11
8.55054e-11
9.04378e-11
9.54889e-11
1.00647e-10
1.059e-10
1.11234e-10
1.16635e-10
1.22085e-10
1.2757e-10
1.3307e-10
1.38568e-10
1.44044e-10
1.49479e-10
1.54852e-10
1.60143e-10
1.65331e-10
1.70395e-10
1.75314e-10
1.80067e-10
1.84635e-10
1.88996e-10
1.93132e-10
1.97023e-10
2.00651e-10
2.04e-10
2.07053e-10
2.09796e-10
2.12213e-10
2.14294e-10
2.16026e-10
2.174e-10
2.18409e-10
2.19045e-10
2.19303e-10
2.19181e-10
2.18676e-10
2.17788e-10
2.1652e-10
2.14875e-10
2.12857e-10
2.10474e-10
2.07735e-10
2.04648e-10
2.01227e-10
1.97484e-10
1.93433e-10
1.89092e-10
1.84477e-10
1.79607e-10
1.74502e-10
1.69183e-10
1.63671e-10
1.5799e-10
1.52163e-10
1.46214e-10
1.40167e-10
1.34048e-10
1.2788e-10
1.2169e-10
1.15502e-10
1.0934e-10
1.03228e-10
9.71889e-11
9.12456e-11
8.54191e-11
7.97295e-11
7.41955e-11
6.88344e-11
6.36619e-11
5.86921e-11
5.39372e-11
4.94075e-11
4.51116e-11
4.10562e-11
3.72458e-11
3.36834e-11
3.037e-11
2.73048e-11
2.44854e-11
2.19078e-11
1.95665e-11
1.74549e-11
1.55651e-11
1.38881e-11
1.24141e-11
1.11325e-11
1.00323e-11
9.10176e-12
8.32894e-12
7.70163e-12
7.20745e-12
6.83396e-12
6.56875e-12
6.39944e-12
6.31381e-12
6.29982e-12
6.34564e-12
6.43973e-12
6.5709e-12
6.72835e-12
6.90173e-12
7.08123e-12
7.25768e-12
7.42259e-12
7.56824e-12
7.68783e-12
7.77548e-12
7.82636e-12
7.83673e-12
7.80398e-12
7.72665e-12
7.60444e-12
7.43817e-12
7.2297e-12
6.98187e-12
6.69839e-12
6.38366e-12
6.04267e-12
5.68082e-12
5.30373e-12
4.91709e-12
4.52648e-12
4.13723e-12
3.7543e-12
3.38216e-12
3.02467e-12
2.68508e-12
2.36598e-12
2.06926e-12
1.79618e-12
1.54737e-12
1.32291e-12
1.12237e-12
9.44917e-13
7.89381e-13
6.54331e-13
5.38156e-13
4.39141e-13
3.55523e-13
2.85551e-13
2.2753e-13
1.79852e-13
1.41027e-13
1.09695e-13
8.46347e-14
6.47709e-14
4.91662e-14
3.70166e-14
2.76411e-14
2.04707e-14
1.50354e-14
1.09519e-14
7.91129e-15
5.66729e-15
4.02589e-15
2.83593e-15
1.98091e-15
1.37202e-15
9.4226e-16
6.41637e-16
4.33228e-16
2.90046e-16
1.92577e-16
1.26857e-16
8.30024e-17
5.41066e-17
3.54125e-17
2.37149e-17
1.69355e-17
1.38351e-17
7.97411e-15
8.21496e-15
8.70779e-15
9.46448e-15
1.05035e-14
1.18501e-14
1.35369e-14
1.56046e-14
1.81028e-14
2.10908e-14
2.46391e-14
2.88304e-14
3.37614e-14
3.95446e-14
4.631e-14
5.4208e-14
6.34113e-14
7.41185e-14
8.65567e-14
1.00986e-13
1.17702e-13
1.37043e-13
1.59392e-13
1.85185e-13
2.14912e-13
2.49133e-13
2.88475e-13
3.33646e-13
3.85442e-13
4.44757e-13
5.12592e-13
5.90066e-13
6.78428e-13
7.79069e-13
8.93537e-13
1.02355e-12
1.17099e-12
1.33798e-12
1.52682e-12
1.74004e-12
1.98045e-12
2.25108e-12
2.55528e-12
2.89668e-12
3.2792e-12
3.70713e-12
4.18508e-12
4.71801e-12
5.31127e-12
5.97058e-12
6.70203e-12
7.51212e-12
8.40774e-12
9.39616e-12
1.04851e-11
1.16825e-11
1.29968e-11
1.44367e-11
1.60113e-11
1.77298e-11
1.96019e-11
2.16372e-11
2.38457e-11
2.62372e-11
2.88216e-11
3.16088e-11
3.46085e-11
3.783e-11
4.12825e-11
4.49744e-11
4.89138e-11
5.3108e-11
5.75634e-11
6.22856e-11
6.72792e-11
7.25473e-11
7.8092e-11
8.39138e-11
9.00119e-11
9.63836e-11
1.03025e-10
1.09929e-10
1.17088e-10
1.24492e-10
1.3213e-10
1.39986e-10
1.48046e-10
1.56291e-10
1.64701e-10
1.73254e-10
1.81926e-10
1.90692e-10
1.99525e-10
2.08394e-10
2.17272e-10
2.26125e-10
2.34922e-10
2.4363e-10
2.52213e-10
2.60639e-10
2.68873e-10
2.7688e-10
2.84626e-10
2.92077e-10
2.992e-10
3.05964e-10
3.12337e-10
3.1829e-10
3.23796e-10
3.28827e-10
3.3336e-10
3.37373e-10
3.40845e-10
3.4376e-10
3.46102e-10
3.47859e-10
3.4902e-10
3.49579e-10
3.49531e-10
3.48874e-10
3.47609e-10
3.4574e-10
3.43273e-10
3.40217e-10
3.36584e-10
3.32388e-10
3.27645e-10
3.22375e-10
3.16598e-10
3.10338e-10
3.03621e-10
2.96474e-10
2.88925e-10
2.81007e-10
2.7275e-10
2.64189e-10
2.55358e-10
2.46293e-10
2.3703e-10
2.27606e-10
2.18059e-10
2.08426e-10
1.98744e-10
1.89051e-10
1.79384e-10
1.69777e-10
1.60266e-10
1.50885e-10