/*--------------------------------*- C++ -*----------------------------------*\
| =========                 |                                                 |
| \\      /  F ield         | OpenFOAM: The Open Source CFD Toolbox           |
|  \\    /   O peration     | Version:  v2012                                 |
|   \\  /    A nd           | Website:  www.openfoam.com                      |
|    \\/     M anipulation  |                                                 |
\*---------------------------------------------------------------------------*/
FoamFile
{
    version     2.0;
    format      ascii;
    class       surfaceScalarField;
    location    "10.5";
    object      phi;
}
// * * * * * * * * * * * * * * * * * * * * * * * * * * * * * * * * * * * * * //

dimensions      [0 3 -1 0 0 0 0];
oriented        oriented;


internalField   nonuniform List<scalar> 
130560
(
3.67329e-06
-3.67329e-06
7.34669e-06
-3.6734e-06
1.10203e-05
-3.67364e-06
1.46943e-05
-3.67398e-06
1.83687e-05
-3.67444e-06
2.20437e-05
-3.67501e-06
2.57194e-05
-3.67568e-06
2.93959e-05
-3.67645e-06
3.30732e-05
-3.67732e-06
3.67515e-05
-3.67827e-06
4.04308e-05
-3.67931e-06
4.41112e-05
-3.68042e-06
4.77928e-05
-3.68159e-06
5.14756e-05
-3.68282e-06
5.51597e-05
-3.68409e-06
5.88451e-05
-3.6854e-06
6.25318e-05
-3.68673e-06
6.62199e-05
-3.68807e-06
6.99093e-05
-3.6894e-06
7.36e-05
-3.69072e-06
7.7292e-05
-3.692e-06
8.09852e-05
-3.69323e-06
8.46796e-05
-3.6944e-06
8.83751e-05
-3.69548e-06
9.20716e-05
-3.69646e-06
9.57689e-05
-3.69732e-06
9.94669e-05
-3.69804e-06
0.000103166
-3.6986e-06
0.000106865
-3.69897e-06
0.000110564
-3.69914e-06
0.000114263
-3.69908e-06
0.000117961
-3.69877e-06
0.00012166
-3.69817e-06
0.000125357
-3.69728e-06
0.000129053
-3.69606e-06
0.000132747
-3.69448e-06
0.00013644
-3.69251e-06
0.00014013
-3.69013e-06
0.000143817
-3.68732e-06
0.000147501
-3.68403e-06
0.000151182
-3.68024e-06
0.000154858
-3.67592e-06
0.000158529
-3.67103e-06
0.000162194
-3.66555e-06
0.000165854
-3.65944e-06
0.000169506
-3.65268e-06
0.000173152
-3.64522e-06
0.000176789
-3.63703e-06
0.000180417
-3.62809e-06
0.000184035
-3.61835e-06
0.000187643
-3.60778e-06
0.000191239
-3.59635e-06
0.000194823
-3.58403e-06
0.000198394
-3.57078e-06
0.000201951
-3.55656e-06
0.000205492
-3.54135e-06
0.000209017
-3.52511e-06
0.000212525
-3.5078e-06
0.000216014
-3.4894e-06
0.000219484
-3.46987e-06
0.000222933
-3.44918e-06
0.000226361
-3.42731e-06
0.000229765
-3.40422e-06
0.000233145
-3.37988e-06
0.000236499
-3.35426e-06
0.000239826
-3.32735e-06
0.000243125
-3.2991e-06
0.000246395
-3.26951e-06
0.000249633
-3.23855e-06
0.00025284
-3.2062e-06
0.000256012
-3.17243e-06
0.000259149
-3.13723e-06
0.00026225
-3.10059e-06
0.000265312
-3.06249e-06
0.000268335
-3.02292e-06
0.000271317
-2.98188e-06
0.000274256
-2.93934e-06
0.000277152
-2.89532e-06
0.000280002
-2.8498e-06
0.000282804
-2.80279e-06
0.000285559
-2.75429e-06
0.000288263
-2.7043e-06
0.000290916
-2.65283e-06
0.000293516
-2.59989e-06
0.000296061
-2.5455e-06
0.000298551
-2.48967e-06
0.000300983
-2.43242e-06
0.000303357
-2.37377e-06
0.000305671
-2.31374e-06
0.000307923
-2.25236e-06
0.000310113
-2.18966e-06
0.000312238
-2.12567e-06
0.000314299
-2.06042e-06
0.000316293
-1.99396e-06
0.000318219
-1.92632e-06
0.000320077
-1.85755e-06
0.000321864
-1.78768e-06
0.000323581
-1.71677e-06
0.000325226
-1.64486e-06
0.000326798
-1.572e-06
0.000328296
-1.49825e-06
0.00032972
-1.42367e-06
0.000331068
-1.3483e-06
0.00033234
-1.27221e-06
0.000333536
-1.19545e-06
0.000334654
-1.11809e-06
0.000335694
-1.04019e-06
0.000336656
-9.61814e-07
0.000337539
-8.8302e-07
0.000338343
-8.03876e-07
0.000339067
-7.24447e-07
0.000339712
-6.44797e-07
0.000340277
-5.64994e-07
0.000340762
-4.85101e-07
0.000341167
-4.05185e-07
0.000341493
-3.25311e-07
0.000341738
-2.45543e-07
0.000341904
-1.65945e-07
0.000341991
-8.65805e-08
0.000341998
-7.51498e-09
0.000341927
7.1197e-08
0.000341778
1.49488e-07
0.00034155
2.27304e-07
0.000341246
3.04586e-07
0.000340864
3.81278e-07
0.000340407
4.57325e-07
0.000339874
5.32676e-07
0.000339267
6.0728e-07
0.000338586
6.81088e-07
0.000337832
7.54052e-07
0.000337006
8.2613e-07
0.000336109
8.97277e-07
0.000335141
9.67454e-07
0.000334105
1.03662e-06
0.000333
1.10474e-06
0.000331828
1.17179e-06
0.00033059
1.23773e-06
0.000329288
1.30252e-06
0.000327922
1.36615e-06
0.000326493
1.42859e-06
0.000325003
1.48982e-06
0.000323453
1.54982e-06
0.000321845
1.60857e-06
0.000320179
1.66605e-06
0.000318457
1.72226e-06
0.000316679
1.77717e-06
0.000314849
1.83079e-06
0.000312965
1.8831e-06
0.000311031
1.9341e-06
0.000309048
1.98379e-06
0.000307015
2.03216e-06
0.000304936
2.07922e-06
0.000302811
2.12497e-06
0.000300642
2.16941e-06
0.000298429
2.21254e-06
0.000296175
2.25439e-06
0.00029388
2.29494e-06
0.000291546
2.33422e-06
0.000289173
2.37224e-06
0.000286764
2.409e-06
0.00028432
2.44453e-06
0.000281841
2.47883e-06
0.000279329
2.51192e-06
0.000276785
2.54382e-06
0.000274211
2.57455e-06
0.000271607
2.60412e-06
0.000268974
2.63256e-06
0.000266314
2.65988e-06
0.000263628
2.68611e-06
0.000260917
2.71126e-06
0.000258182
2.73536e-06
0.000255423
2.75843e-06
0.000252643
2.78049e-06
0.000249841
2.80157e-06
0.000247019
2.82168e-06
0.000244178
2.84086e-06
0.000241319
2.85912e-06
0.000238443
2.87648e-06
0.00023555
2.89298e-06
0.000232641
2.90864e-06
0.000229718
2.92347e-06
0.00022678
2.9375e-06
0.00022383
2.95077e-06
0.000220866
2.96328e-06
0.000217891
2.97507e-06
0.000214905
2.98615e-06
0.000211908
2.99655e-06
0.000208902
3.0063e-06
0.000205887
3.01541e-06
0.000202863
3.02391e-06
0.000199831
3.03182e-06
0.000196792
3.03916e-06
0.000193746
3.04595e-06
0.000190694
3.05222e-06
0.000187636
3.05799e-06
0.000184572
3.06327e-06
0.000181504
3.06809e-06
0.000178432
3.07246e-06
0.000175355
3.07641e-06
0.000172276
3.07996e-06
0.000169192
3.08312e-06
0.000166106
3.08591e-06
0.000163018
3.08836e-06
0.000159928
3.09047e-06
0.000156835
3.09227e-06
0.000153742
3.09377e-06
0.000150647
3.09499e-06
0.000147551
3.09594e-06
0.000144454
3.09665e-06
0.000141357
3.09712e-06
0.00013826
3.09737e-06
0.000135162
3.09741e-06
0.000132065
3.09727e-06
0.000128968
3.09695e-06
0.000125871
3.09646e-06
0.000122776
3.09583e-06
0.000119681
3.09505e-06
0.000116586
3.09415e-06
0.000113493
3.09314e-06
0.000110401
3.09202e-06
0.00010731
3.09081e-06
0.000104221
3.08951e-06
0.000101133
3.08815e-06
9.80461e-05
3.08672e-06
9.49609e-05
3.08524e-06
9.18772e-05
3.08372e-06
8.8795e-05
3.08216e-06
8.57144e-05
3.08058e-06
8.26354e-05
3.07898e-06
7.95581e-05
3.07737e-06
7.64823e-05
3.07576e-06
7.34081e-05
3.07416e-06
7.03356e-05
3.07256e-06
6.72646e-05
3.07099e-06
6.41951e-05
3.06944e-06
6.11272e-05
3.06792e-06
5.80608e-05
3.06644e-06
5.49958e-05
3.06499e-06
5.19322e-05
3.0636e-06
4.88699e-05
3.06226e-06
4.5809e-05
3.06097e-06
4.27492e-05
3.05975e-06
3.96906e-05
3.05858e-06
3.66331e-05
3.05749e-06
3.35767e-05
3.05647e-06
3.05212e-05
3.05552e-06
2.74665e-05
3.05465e-06
2.44127e-05
3.05386e-06
2.13595e-05
3.05315e-06
1.8307e-05
3.05253e-06
1.5255e-05
3.05199e-06
1.22034e-05
3.05154e-06
9.15226e-06
3.05118e-06
6.10136e-06
3.05091e-06
3.05063e-06
3.05072e-06
3.05063e-06
3.67319e-06
-7.34648e-06
7.34648e-06
-7.34669e-06
1.102e-05
-7.34716e-06
1.46939e-05
-7.34785e-06
1.83682e-05
-7.34877e-06
2.20431e-05
-7.34991e-06
2.57187e-05
-7.35126e-06
2.93951e-05
-7.35281e-06
3.30723e-05
-7.35455e-06
3.67505e-05
-7.35647e-06
4.04297e-05
-7.35855e-06
4.41101e-05
-7.36077e-06
4.77916e-05
-7.36313e-06
5.14744e-05
-7.3656e-06
5.51584e-05
-7.36815e-06
5.88438e-05
-7.37078e-06
6.25305e-05
-7.37345e-06
6.62186e-05
-7.37614e-06
6.9908e-05
-7.37882e-06
7.35988e-05
-7.38147e-06
7.72908e-05
-7.38405e-06
8.09841e-05
-7.38653e-06
8.46786e-05
-7.38888e-06
8.83742e-05
-7.39106e-06
9.20708e-05
-7.39305e-06
9.57683e-05
-7.39479e-06
9.94665e-05
-7.39625e-06
0.000103165
-7.39738e-06
0.000106864
-7.39815e-06
0.000110564
-7.39851e-06
0.000114263
-7.39841e-06
0.000117962
-7.39781e-06
0.000121661
-7.39665e-06
0.000125358
-7.39489e-06
0.000129055
-7.39247e-06
0.00013275
-7.38934e-06
0.000136442
-7.38544e-06
0.000140133
-7.38071e-06
0.000143821
-7.3751e-06
0.000147505
-7.36856e-06
0.000151186
-7.36101e-06
0.000154863
-7.35239e-06
0.000158534
-7.34266e-06
0.0001622
-7.33173e-06
0.000165861
-7.31955e-06
0.000169514
-7.30605e-06
0.00017316
-7.29116e-06
0.000176798
-7.27482e-06
0.000180427
-7.25697e-06
0.000184046
-7.23752e-06
0.000187654
-7.21642e-06
0.000191252
-7.1936e-06
0.000194837
-7.16899e-06
0.000198408
-7.14252e-06
0.000201966
-7.11412e-06
0.000205508
-7.08373e-06
0.000209034
-7.05127e-06
0.000212543
-7.0167e-06
0.000216034
-6.97993e-06
0.000219505
-6.9409e-06
0.000222955
-6.89956e-06
0.000226384
-6.85584e-06
0.000229789
-6.80968e-06
0.00023317
-6.76103e-06
0.000236526
-6.70982e-06
0.000239855
-6.65602e-06
0.000243155
-6.59956e-06
0.000246426
-6.5404e-06
0.000249666
-6.47849e-06
0.000252873
-6.4138e-06
0.000256047
-6.34629e-06
0.000259186
-6.27591e-06
0.000262288
-6.20264e-06
0.000265352
-6.12645e-06
0.000268376
-6.04733e-06
0.00027136
-5.96524e-06
0.000274301
-5.88018e-06
0.000277197
-5.79213e-06
0.000280049
-5.70109e-06
0.000282853
-5.60707e-06
0.000285609
-5.51006e-06
0.000288315
-5.41007e-06
0.000290969
-5.30713e-06
0.00029357
-5.20124e-06
0.000296117
-5.09245e-06
0.000298608
-4.98077e-06
0.000301042
-4.86624e-06
0.000303417
-4.74891e-06
0.000305732
-4.62883e-06
0.000307986
-4.50604e-06
0.000310177
-4.38061e-06
0.000312304
-4.25259e-06
0.000314365
-4.12207e-06
0.000316361
-3.98911e-06
0.000318288
-3.85378e-06
0.000320147
-3.71619e-06
0.000321935
-3.5764e-06
0.000323653
-3.43453e-06
0.000325299
-3.29066e-06
0.000326872
-3.14489e-06
0.000328371
-2.99734e-06
0.000329795
-2.84812e-06
0.000331144
-2.69732e-06
0.000332417
-2.54508e-06
0.000333613
-2.39151e-06
0.000334732
-2.23673e-06
0.000335773
-2.08087e-06
0.000336735
-1.92404e-06
0.000337618
-1.76639e-06
0.000338422
-1.60804e-06
0.000339147
-1.44912e-06
0.000339792
-1.28975e-06
0.000340357
-1.13008e-06
0.000340842
-9.70228e-07
0.000341247
-8.10331e-07
0.000341573
-6.50518e-07
0.000341818
-4.90918e-07
0.000341984
-3.3166e-07
0.00034207
-1.72869e-07
0.000342077
-1.46714e-08
0.000342006
1.42807e-07
0.000341856
2.9945e-07
0.000341628
4.55139e-07
0.000341323
6.09758e-07
0.000340941
7.63196e-07
0.000340483
9.15344e-07
0.000339949
1.0661e-06
0.000339341
1.21535e-06
0.000338659
1.36302e-06
0.000337904
1.50899e-06
0.000337077
1.65319e-06
0.000336179
1.79552e-06
0.000335211
1.93591e-06
0.000334173
2.07429e-06
0.000333067
2.21057e-06
0.000331894
2.34469e-06
0.000330655
2.47659e-06
0.000329352
2.60621e-06
0.000327984
2.73349e-06
0.000326555
2.8584e-06
0.000325063
2.98088e-06
0.000323512
3.10089e-06
0.000321903
3.2184e-06
0.000320235
3.33338e-06
0.000318512
3.4458e-06
0.000316733
3.55564e-06
0.000314901
3.66288e-06
0.000313017
3.76751e-06
0.000311081
3.86952e-06
0.000309096
3.96889e-06
0.000307063
4.06564e-06
0.000304982
4.15975e-06
0.000302856
4.25124e-06
0.000300685
4.34012e-06
0.000298471
4.42638e-06
0.000296216
4.51006e-06
0.000293919
4.59116e-06
0.000291584
4.66971e-06
0.00028921
4.74573e-06
0.0002868
4.81924e-06
0.000284354
4.89028e-06
0.000281874
4.95886e-06
0.000279361
5.02503e-06
0.000276816
5.08882e-06
0.000274241
5.15025e-06
0.000271635
5.20938e-06
0.000269002
5.26624e-06
0.000266341
5.32086e-06
0.000263654
5.37329e-06
0.000260941
5.42358e-06
0.000258205
5.47175e-06
0.000255445
5.51787e-06
0.000252664
5.56197e-06
0.000249861
5.6041e-06
0.000247039
5.6443e-06
0.000244197
5.68263e-06
0.000241337
5.71912e-06
0.00023846
5.75384e-06
0.000235566
5.78681e-06
0.000232656
5.81809e-06
0.000229732
5.84774e-06
0.000226794
5.87578e-06
0.000223842
5.90229e-06
0.000220878
5.92729e-06
0.000217902
5.95084e-06
0.000214916
5.97298e-06
0.000211918
5.99377e-06
0.000208912
6.01324e-06
0.000205895
6.03144e-06
0.000202871
6.04841e-06
0.000199839
6.06421e-06
0.000196799
6.07887e-06
0.000193752
6.09244e-06
0.0001907
6.10495e-06
0.000187641
6.11646e-06
0.000184577
6.127e-06
0.000181509
6.13662e-06
0.000178436
6.14535e-06
0.000175359
6.15323e-06
0.000172279
6.16031e-06
0.000169195
6.16661e-06
0.000166109
6.17218e-06
0.00016302
6.17705e-06
0.00015993
6.18126e-06
0.000156837
6.18483e-06
0.000153743
6.18782e-06
0.000150648
6.19024e-06
0.000147552
6.19213e-06
0.000144455
6.19353e-06
0.000141357
6.19445e-06
0.00013826
6.19494e-06
0.000135162
6.19502e-06
0.000132065
6.19472e-06
0.000128968
6.19407e-06
0.000125871
6.19308e-06
0.000122775
6.1918e-06
0.00011968
6.19024e-06
0.000116586
6.18842e-06
0.000113492
6.18638e-06
0.0001104
6.18413e-06
0.000107309
6.1817e-06
0.00010422
6.1791e-06
0.000101132
6.17636e-06
9.80447e-05
6.17349e-06
9.49595e-05
6.17053e-06
9.18757e-05
6.16747e-06
8.87935e-05
6.16435e-06
8.57129e-05
6.16118e-06
8.26339e-05
6.15798e-06
7.95565e-05
6.15475e-06
7.64808e-05
6.15152e-06
7.34066e-05
6.1483e-06
7.03341e-05
6.14511e-06
6.72631e-05
6.14195e-06
6.41937e-05
6.13885e-06
6.11258e-05
6.1358e-06
5.80594e-05
6.13283e-06
5.49945e-05
6.12995e-06
5.19309e-05
6.12715e-06
4.88687e-05
6.12446e-06
4.58078e-05
6.12189e-06
4.27481e-05
6.11943e-06
3.96896e-05
6.1171e-06
3.66322e-05
6.11491e-06
3.35758e-05
6.11287e-06
3.05203e-05
6.11097e-06
2.74658e-05
6.10922e-06
2.4412e-05
6.10764e-06
2.13589e-05
6.10622e-06
1.83065e-05
6.10497e-06
1.52545e-05
6.1039e-06
1.22031e-05
6.10299e-06
9.152e-06
6.10227e-06
6.10118e-06
6.10173e-06
3.05055e-06
6.10136e-06
6.10118e-06
3.67295e-06
-1.10194e-05
7.34602e-06
-1.10198e-05
1.10193e-05
-1.10205e-05
1.4693e-05
-1.10215e-05
1.83671e-05
-1.10229e-05
2.20418e-05
-1.10246e-05
2.57172e-05
-1.10266e-05
2.93934e-05
-1.1029e-05
3.30704e-05
-1.10316e-05
3.67485e-05
-1.10345e-05
4.04276e-05
-1.10376e-05
4.41078e-05
-1.1041e-05
4.77892e-05
-1.10446e-05
5.14719e-05
-1.10483e-05
5.51559e-05
-1.10521e-05
5.88412e-05
-1.10561e-05
6.2528e-05
-1.10602e-05
6.6216e-05
-1.10642e-05
6.99055e-05
-1.10683e-05
7.35963e-05
-1.10723e-05
7.72885e-05
-1.10762e-05
8.09819e-05
-1.108e-05
8.46766e-05
-1.10835e-05
8.83723e-05
-1.10869e-05
9.20692e-05
-1.10899e-05
9.57669e-05
-1.10925e-05
9.94655e-05
-1.10948e-05
0.000103165
-1.10965e-05
0.000106864
-1.10977e-05
0.000110564
-1.10983e-05
0.000114264
-1.10983e-05
0.000117963
-1.10974e-05
0.000121663
-1.10957e-05
0.000125361
-1.10932e-05
0.000129058
-1.10896e-05
0.000132754
-1.1085e-05
0.000136447
-1.10792e-05
0.000140139
-1.10722e-05
0.000143828
-1.10638e-05
0.000147513
-1.10541e-05
0.000151195
-1.10428e-05
0.000154873
-1.103e-05
0.000158545
-1.10155e-05
0.000162213
-1.09992e-05
0.000165874
-1.0981e-05
0.000169529
-1.09608e-05
0.000173176
-1.09386e-05
0.000176816
-1.09141e-05
0.000180446
-1.08874e-05
0.000184067
-1.08584e-05
0.000187677
-1.08268e-05
0.000191276
-1.07926e-05
0.000194863
-1.07558e-05
0.000198437
-1.07162e-05
0.000201996
-1.06737e-05
0.000205541
-1.06282e-05
0.000209069
-1.05796e-05
0.00021258
-1.05278e-05
0.000216073
-1.04727e-05
0.000219546
-1.04142e-05
0.000222999
-1.03523e-05
0.00022643
-1.02868e-05
0.000229838
-1.02176e-05
0.000233222
-1.01447e-05
0.00023658
-1.0068e-05
0.000239911
-9.98734e-06
0.000243214
-9.90272e-06
0.000246488
-9.81403e-06
0.000249731
-9.72123e-06
0.000252941
-9.62424e-06
0.000256118
-9.52301e-06
0.00025926
-9.41748e-06
0.000262365
-9.30761e-06
0.000265431
-9.19336e-06
0.000268459
-9.07469e-06
0.000271445
-8.95158e-06
0.000274389
-8.824e-06
0.000277289
-8.69193e-06
0.000280143
-8.55538e-06
0.00028295
-8.41434e-06
0.000285709
-8.26881e-06
0.000288418
-8.11881e-06
0.000291075
-7.96437e-06
0.000293679
-7.80551e-06
0.000296229
-7.64227e-06
0.000298723
-7.47471e-06
0.00030116
-7.30287e-06
0.000303538
-7.12681e-06
0.000305855
-6.94662e-06
0.000308112
-6.76237e-06
0.000310305
-6.57414e-06
0.000312435
-6.38203e-06
0.000314499
-6.18615e-06
0.000316496
-5.98661e-06
0.000318426
-5.78352e-06
0.000320287
-5.57701e-06
0.000322078
-5.36722e-06
0.000323797
-5.15429e-06
0.000325445
-4.93836e-06
0.00032702
-4.71958e-06
0.000328521
-4.49812e-06
0.000329947
-4.27413e-06
0.000331297
-4.0478e-06
0.000332571
-3.81928e-06
0.000333769
-3.58878e-06
0.000334888
-3.35645e-06
0.00033593
-3.1225e-06
0.000336893
-2.88711e-06
0.000337777
-2.65047e-06
0.000338582
-2.41278e-06
0.000339307
-2.17423e-06
0.000339952
-1.93502e-06
0.000340517
-1.69534e-06
0.000341003
-1.45541e-06
0.000341408
-1.2154e-06
0.000341733
-9.75515e-07
0.000341978
-7.35955e-07
0.000342143
-4.96909e-07
0.000342229
-2.58568e-07
0.000342235
-2.11136e-08
0.000342163
2.15251e-07
0.000342012
4.50363e-07
0.000341783
6.8404e-07
0.000341476
9.16109e-07
0.000341093
1.1464e-06
0.000340634
1.37476e-06
0.000340099
1.60101e-06
0.000339489
1.82502e-06
0.000338806
2.04663e-06
0.000338049
2.2657e-06
0.00033722
2.4821e-06
0.00033632
2.69571e-06
0.000335349
2.90639e-06
0.00033431
3.11404e-06
0.000333202
3.31854e-06
0.000332027
3.5198e-06
0.000330785
3.71773e-06
0.000329479
3.91222e-06
0.00032811
4.10322e-06
0.000326677
4.29063e-06
0.000325184
4.4744e-06
0.00032363
4.65446e-06
0.000322018
4.83077e-06
0.000320348
5.00327e-06
0.000318622
5.17193e-06
0.000316841
5.33671e-06
0.000315006
5.49759e-06
0.000313119
5.65454e-06
0.000311181
5.80756e-06
0.000309193
5.95662e-06
0.000307157
6.10174e-06
0.000305074
6.24291e-06
0.000302945
6.38013e-06
0.000300772
6.51343e-06
0.000298555
6.64281e-06
0.000296297
6.76831e-06
0.000293998
6.88994e-06
0.00029166
7.00773e-06
0.000289284
7.12173e-06
0.000286872
7.23196e-06
0.000284424
7.33848e-06
0.000281941
7.44131e-06
0.000279426
7.54053e-06
0.000276878
7.63616e-06
0.0002743
7.72827e-06
0.000271693
7.81691e-06
0.000269057
7.90215e-06
0.000266394
7.98403e-06
0.000263704
8.06263e-06
0.00026099
8.138e-06
0.000258251
8.21021e-06
0.00025549
8.27933e-06
0.000252707
8.34542e-06
0.000249902
8.40856e-06
0.000247078
8.46881e-06
0.000244234
8.52624e-06
0.000241372
8.58092e-06
0.000238493
8.63293e-06
0.000235598
8.68233e-06
0.000232686
8.72919e-06
0.000229761
8.7736e-06
0.000226821
8.81561e-06
0.000223868
8.85531e-06
0.000220902
8.89275e-06
0.000217925
8.92802e-06
0.000214937
8.96118e-06
0.000211938
8.9923e-06
0.00020893
9.02144e-06
0.000205913
9.04869e-06
0.000202887
9.0741e-06
0.000199854
9.09774e-06
0.000196813
9.11967e-06
0.000193765
9.13997e-06
0.000190712
9.15869e-06
0.000187652
9.17591e-06
0.000184587
9.19167e-06
0.000181518
9.20604e-06
0.000178444
9.21909e-06
0.000175367
9.23087e-06
0.000172286
9.24143e-06
0.000169201
9.25084e-06
0.000166114
9.25915e-06
0.000163025
9.26641e-06
0.000159934
9.27268e-06
0.00015684
9.278e-06
0.000153746
9.28244e-06
0.00015065
9.28603e-06
0.000147553
9.28883e-06
0.000144456
9.29089e-06
0.000141358
9.29224e-06
0.00013826
9.29293e-06
0.000135162
9.29302e-06
0.000132064
9.29253e-06
0.000128967
9.29152e-06
0.00012587
9.29001e-06
0.000122774
9.28805e-06
0.000119678
9.28568e-06
0.000116584
9.28293e-06
0.00011349
9.27984e-06
0.000110398
9.27643e-06
0.000107307
9.27276e-06
0.000104217
9.26884e-06
0.000101129
9.2647e-06
9.8042e-05
9.26038e-06
9.49566e-05
9.25591e-06
9.18728e-05
9.25131e-06
8.87906e-05
9.2466e-06
8.57099e-05
9.24183e-06
8.26309e-05
9.237e-06
7.95535e-05
9.23214e-06
7.64777e-05
9.22728e-06
7.34036e-05
9.22244e-06
7.03311e-05
9.21763e-06
6.72602e-05
9.21288e-06
6.41908e-05
9.2082e-06
6.1123e-05
9.20362e-06
5.80567e-05
9.19915e-06
5.49918e-05
9.19481e-06
5.19283e-05
9.19061e-06
4.88662e-05
9.18656e-06
4.58054e-05
9.18269e-06
4.27459e-05
9.17899e-06
3.96875e-05
9.17549e-06
3.66302e-05
9.1722e-06
3.35739e-05
9.16912e-06
3.05187e-05
9.16627e-06
2.74642e-05
9.16365e-06
2.44106e-05
9.16126e-06
2.13577e-05
9.15913e-06
1.83054e-05
9.15725e-06
1.52537e-05
9.15563e-06
1.22024e-05
9.15428e-06
9.15148e-06
9.15319e-06
6.10083e-06
9.15237e-06
3.05037e-06
9.15182e-06
9.15155e-06
3.67261e-06
-1.4692e-05
7.34534e-06
-1.46925e-05
1.10183e-05
-1.46934e-05
1.46916e-05
-1.46948e-05
1.83654e-05
-1.46967e-05
2.20398e-05
-1.4699e-05
2.57149e-05
-1.47017e-05
2.93908e-05
-1.47049e-05
3.30676e-05
-1.47084e-05
3.67454e-05
-1.47123e-05
4.04243e-05
-1.47165e-05
4.41043e-05
-1.4721e-05
4.77856e-05
-1.47258e-05
5.14682e-05
-1.47308e-05
5.51521e-05
-1.4736e-05
5.88373e-05
-1.47414e-05
6.2524e-05
-1.47468e-05
6.62121e-05
-1.47523e-05
6.99016e-05
-1.47578e-05
7.35926e-05
-1.47632e-05
7.72849e-05
-1.47685e-05
8.09785e-05
-1.47736e-05
8.46734e-05
-1.47784e-05
8.83695e-05
-1.4783e-05
9.20667e-05
-1.47871e-05
9.57649e-05
-1.47907e-05
9.94639e-05
-1.47938e-05
0.000103164
-1.47962e-05
0.000106864
-1.4798e-05
0.000110564
-1.47989e-05
0.000114265
-1.47989e-05
0.000117965
-1.47979e-05
0.000121665
-1.47957e-05
0.000125365
-1.47924e-05
0.000129063
-1.47878e-05
0.00013276
-1.47818e-05
0.000136455
-1.47742e-05
0.000140147
-1.4765e-05
0.000143838
-1.4754e-05
0.000147525
-1.47411e-05
0.000151208
-1.47263e-05
0.000154887
-1.47093e-05
0.000158562
-1.46901e-05
0.000162231
-1.46685e-05
0.000165895
-1.46444e-05
0.000169552
-1.46177e-05
0.000173201
-1.45881e-05
0.000176843
-1.45557e-05
0.000180476
-1.45203e-05
0.000184099
-1.44817e-05
0.000187712
-1.44398e-05
0.000191314
-1.43944e-05
0.000194903
-1.43454e-05
0.00019848
-1.42928e-05
0.000202042
-1.42362e-05
0.00020559
-1.41757e-05
0.000209121
-1.41111e-05
0.000212636
-1.40422e-05
0.000216132
-1.39689e-05
0.000219609
-1.38911e-05
0.000223065
-1.38086e-05
0.0002265
-1.37214e-05
0.000229911
-1.36293e-05
0.000233299
-1.35323e-05
0.000236661
-1.34301e-05
0.000239996
-1.33227e-05
0.000243304
-1.32099e-05
0.000246581
-1.30918e-05
0.000249828
-1.29681e-05
0.000253043
-1.28389e-05
0.000256224
-1.2704e-05
0.00025937
-1.25634e-05
0.000262479
-1.2417e-05
0.000265551
-1.22647e-05
0.000268582
-1.21065e-05
0.000271573
-1.19424e-05
0.000274521
-1.17723e-05
0.000277426
-1.15962e-05
0.000280285
-1.14142e-05
0.000283096
-1.12261e-05
0.00028586
-1.1032e-05
0.000288573
-1.0832e-05
0.000291234
-1.0626e-05
0.000293843
-1.04142e-05
0.000296397
-1.01964e-05
0.000298895
-9.97293e-06
0.000301336
-9.74371e-06
0.000303718
-9.50886e-06
0.00030604
-9.26848e-06
0.0003083
-9.02267e-06
0.000310498
-8.77155e-06
0.000312631
-8.51525e-06
0.000314699
-8.2539e-06
0.0003167
-7.98766e-06
0.000318633
-7.71668e-06
0.000320497
-7.44113e-06
0.000322291
-7.16119e-06
0.000324014
-6.87705e-06
0.000325664
-6.5889e-06
0.000327242
-6.29695e-06
0.000328745
-6.00141e-06
0.000330173
-5.7025e-06
0.000331526
-5.40045e-06
0.000332802
-5.09549e-06
0.000334001
-4.78786e-06
0.000335123
-4.4778e-06
0.000336166
-4.16557e-06
0.00033713
-3.85142e-06
0.000338015
-3.5356e-06
0.000338821
-3.21837e-06
0.000339547
-2.9e-06
0.000340192
-2.58075e-06
0.000340758
-2.26088e-06
0.000341243
-1.94066e-06
0.000341648
-1.62034e-06
0.000341973
-1.30019e-06
0.000342217
-9.80482e-07
0.000342382
-6.61459e-07
0.000342467
-3.4338e-07
0.000342472
-2.64808e-08
0.000342398
2.88947e-07
0.000342246
6.02707e-07
0.000342015
9.14545e-07
0.000341707
1.22423e-06
0.000341322
1.53154e-06
0.000340861
1.83626e-06
0.000340324
2.13817e-06
0.000339712
2.43707e-06
0.000339025
2.73277e-06
0.000338266
3.02508e-06
0.000337434
3.31382e-06
0.000336531
3.59881e-06
0.000335558
3.8799e-06
0.000334515
4.15693e-06
0.000333404
4.42976e-06
0.000332225
4.69825e-06
0.000330981
4.96229e-06
0.000329671
5.22174e-06
0.000328298
5.47651e-06
0.000326862
5.7265e-06
0.000325365
5.97162e-06
0.000323807
6.21178e-06
0.000322191
6.44693e-06
0.000320517
6.67699e-06
0.000318787
6.90192e-06
0.000317002
7.12168e-06
0.000315164
7.33621e-06
0.000313273
7.54551e-06
0.000311331
7.74954e-06
0.000309339
7.94831e-06
0.000307299
8.14179e-06
0.000305212
8.33e-06
0.000303079
8.51295e-06
0.000300902
8.69065e-06
0.000298682
8.86313e-06
0.00029642
9.03042e-06
0.000294117
9.19254e-06
0.000291775
9.34955e-06
0.000289395
9.50149e-06
0.000286979
9.6484e-06
0.000284527
9.79035e-06
0.000282041
9.92739e-06
0.000279522
1.00596e-05
0.000276971
1.0187e-05
0.00027439
1.03098e-05
0.000271779
1.04279e-05
0.000269139
1.05414e-05
0.000266473
1.06505e-05
0.00026378
1.07552e-05
0.000261063
1.08556e-05
0.000258321
1.09518e-05
0.000255557
1.10438e-05
0.00025277
1.11318e-05
0.000249963
1.12159e-05
0.000247136
1.12961e-05
0.000244289
1.13726e-05
0.000241425
1.14454e-05
0.000238543
1.15146e-05
0.000235645
1.15804e-05
0.000232731
1.16428e-05
0.000229803
1.17019e-05
0.000226861
1.17578e-05
0.000223906
1.18106e-05
0.000220938
1.18604e-05
0.000217959
1.19073e-05
0.000214969
1.19514e-05
0.000211968
1.19928e-05
0.000208958
1.20316e-05
0.000205939
1.20678e-05
0.000202911
1.21016e-05
0.000199876
1.2133e-05
0.000196834
1.21621e-05
0.000193785
1.21891e-05
0.000190729
1.2214e-05
0.000187669
1.22368e-05
0.000184602
1.22577e-05
0.000181532
1.22768e-05
0.000178457
1.22941e-05
0.000175378
1.23097e-05
0.000172296
1.23237e-05
0.00016921
1.23362e-05
0.000166122
1.23472e-05
0.000163032
1.23568e-05
0.000159939
1.2365e-05
0.000156845
1.23721e-05
0.00015375
1.23779e-05
0.000150653
1.23826e-05
0.000147556
1.23863e-05
0.000144458
1.2389e-05
0.000141359
1.23907e-05
0.000138261
1.23915e-05
0.000135162
1.23916e-05
0.000132064
1.23909e-05
0.000128966
1.23895e-05
0.000125868
1.23874e-05
0.000122772
1.23847e-05
0.000119676
1.23815e-05
0.000116581
1.23778e-05
0.000113487
1.23736e-05
0.000110395
1.2369e-05
0.000107303
1.23641e-05
0.000104213
1.23588e-05
0.000101125
1.23532e-05
9.80379e-05
1.23474e-05
9.49524e-05
1.23414e-05
9.18684e-05
1.23352e-05
8.87861e-05
1.23289e-05
8.57054e-05
1.23225e-05
8.26263e-05
1.23161e-05
7.95489e-05
1.23095e-05
7.64732e-05
1.2303e-05
7.33991e-05
1.22965e-05
7.03266e-05
1.22901e-05
6.72557e-05
1.22837e-05
6.41864e-05
1.22775e-05
6.11187e-05
1.22713e-05
5.80525e-05
1.22654e-05
5.49878e-05
1.22595e-05
5.19245e-05
1.22539e-05
4.88625e-05
1.22485e-05
4.58019e-05
1.22433e-05
4.27425e-05
1.22384e-05
3.96843e-05
1.22337e-05
3.66272e-05
1.22293e-05
3.35712e-05
1.22252e-05
3.05161e-05
1.22213e-05
2.74619e-05
1.22178e-05
2.44086e-05
1.22147e-05
2.13559e-05
1.22118e-05
1.83039e-05
1.22093e-05
1.52524e-05
1.22071e-05
1.22013e-05
1.22053e-05
9.15068e-06
1.22038e-05
6.1003e-06
1.22028e-05
3.0501e-06
1.2202e-05
1.22017e-05
3.67215e-06
-1.83642e-05
7.34442e-06
-1.83648e-05
1.10169e-05
-1.83659e-05
1.46898e-05
-1.83677e-05
1.83632e-05
-1.83701e-05
2.20372e-05
-1.8373e-05
2.57119e-05
-1.83764e-05
2.93874e-05
-1.83804e-05
3.30638e-05
-1.83849e-05
3.67413e-05
-1.83898e-05
4.04199e-05
-1.83951e-05
4.40997e-05
-1.84008e-05
4.77807e-05
-1.84069e-05
5.14631e-05
-1.84132e-05
5.51469e-05
-1.84198e-05
5.88321e-05
-1.84266e-05
6.25187e-05
-1.84335e-05
6.62068e-05
-1.84404e-05
6.98964e-05
-1.84474e-05
7.35875e-05
-1.84543e-05
7.728e-05
-1.8461e-05
8.09739e-05
-1.84675e-05
8.46691e-05
-1.84737e-05
8.83656e-05
-1.84795e-05
9.20633e-05
-1.84848e-05
9.5762e-05
-1.84895e-05
9.94617e-05
-1.84935e-05
0.000103162
-1.84967e-05
0.000106863
-1.8499e-05
0.000110565
-1.85003e-05
0.000114266
-1.85005e-05
0.000117968
-1.84994e-05
0.000121669
-1.8497e-05
0.00012537
-1.8493e-05
0.000129069
-1.84874e-05
0.000132768
-1.84801e-05
0.000136464
-1.84708e-05
0.000140159
-1.84595e-05
0.000143851
-1.8446e-05
0.00014754
-1.84302e-05
0.000151225
-1.84119e-05
0.000154907
-1.83909e-05
0.000158584
-1.83671e-05
0.000162256
-1.83403e-05
0.000165922
-1.83104e-05
0.000169581
-1.82773e-05
0.000173234
-1.82406e-05
0.000176879
-1.82004e-05
0.000180515
-1.81563e-05
0.000184141
-1.81083e-05
0.000187758
-1.80562e-05
0.000191363
-1.79997e-05
0.000194956
-1.79388e-05
0.000198537
-1.78732e-05
0.000202103
-1.78028e-05
0.000205655
-1.77274e-05
0.000209191
-1.76468e-05
0.00021271
-1.75609e-05
0.00021621
-1.74696e-05
0.000219692
-1.73726e-05
0.000223153
-1.72697e-05
0.000226592
-1.7161e-05
0.000230009
-1.70461e-05
0.000233402
-1.69249e-05
0.000236769
-1.67974e-05
0.00024011
-1.66633e-05
0.000243422
-1.65226e-05
0.000246706
-1.63751e-05
0.000249958
-1.62207e-05
0.000253178
-1.60593e-05
0.000256365
-1.58908e-05
0.000259517
-1.57151e-05
0.000262632
-1.55322e-05
0.000265709
-1.53419e-05
0.000268747
-1.51443e-05
0.000271744
-1.49392e-05
0.000274698
-1.47266e-05
0.000277608
-1.45065e-05
0.000280473
-1.42789e-05
0.000283291
-1.40438e-05
0.00028606
-1.38012e-05
0.000288779
-1.35511e-05
0.000291447
-1.32936e-05
0.000294061
-1.30286e-05
0.000296621
-1.27564e-05
0.000299125
-1.24769e-05
0.000301572
-1.21902e-05
0.000303959
-1.18964e-05
0.000306287
-1.15958e-05
0.000308552
-1.12883e-05
0.000310755
-1.09741e-05
0.000312893
-1.06535e-05
0.000314966
-1.03265e-05
0.000316971
-9.99345e-06
0.000318909
-9.65441e-06
0.000320778
-9.30964e-06
0.000322576
-8.95936e-06
0.000324303
-8.60382e-06
0.000325957
-8.24325e-06
0.000327538
-7.87791e-06
0.000329045
-7.50808e-06
0.000330476
-7.13401e-06
0.000331832
-6.75601e-06
0.000333111
-6.37437e-06
0.000334312
-5.98937e-06
0.000335436
-5.60134e-06
0.000336481
-5.21057e-06
0.000337447
-4.8174e-06
0.000338333
-4.42214e-06
0.00033914
-4.02512e-06
0.000339867
-3.62667e-06
0.000340513
-3.22711e-06
0.000341079
-2.82678e-06
0.000341564
-2.426e-06
0.000341969
-2.02512e-06
0.000342293
-1.62445e-06
0.000342537
-1.22433e-06
0.000342701
-8.2507e-07
0.000342784
-4.27e-07
0.000342788
-3.04219e-08
0.000342713
3.64324e-07
0.000342559
7.56965e-07
0.000342326
1.14719e-06
0.000342015
1.53472e-06
0.000341628
1.91927e-06
0.000341163
2.30056e-06
0.000340623
2.67833e-06
0.000340008
3.05233e-06
0.000339318
3.4223e-06
0.000338556
3.78802e-06
0.00033772
4.14926e-06
0.000336813
4.50581e-06
0.000335836
4.85746e-06
0.000334788
5.20402e-06
0.000333673
5.54531e-06
0.00033249
5.88116e-06
0.000331241
6.21142e-06
0.000329927
6.53594e-06
0.000328549
6.85459e-06
0.000327108
7.16724e-06
0.000325606
7.47378e-06
0.000324043
7.77412e-06
0.000322422
8.06817e-06
0.000320743
8.35585e-06
0.000319008
8.6371e-06
0.000317218
8.91185e-06
0.000315374
9.18008e-06
0.000313478
9.44173e-06
0.000311531
9.6968e-06
0.000309534
9.94526e-06
0.000307488
1.01871e-05
0.000305396
1.04224e-05
0.000303258
1.0651e-05
0.000301075
1.08731e-05
0.00029885
1.10886e-05
0.000296583
1.12977e-05
0.000294275
1.15003e-05
0.000291928
1.16964e-05
0.000289543
1.18863e-05
0.000287122
1.20698e-05
0.000284665
1.22471e-05
0.000282174
1.24183e-05
0.00027965
1.25834e-05
0.000277095
1.27426e-05
0.000274509
1.28959e-05
0.000271893
1.30433e-05
0.000269249
1.31851e-05
0.000266579
1.33213e-05
0.000263882
1.3452e-05
0.00026116
1.35774e-05
0.000258414
1.36974e-05
0.000255646
1.38123e-05
0.000252855
1.39222e-05
0.000250044
1.40271e-05
0.000247213
1.41272e-05
0.000244363
1.42226e-05
0.000241495