/*--------------------------------*- C++ -*----------------------------------*\
| =========                 |                                                 |
| \\      /  F ield         | OpenFOAM: The Open Source CFD Toolbox           |
|  \\    /   O peration     | Version:  v2012                                 |
|   \\  /    A nd           | Website:  www.openfoam.com                      |
|    \\/     M anipulation  |                                                 |
\*---------------------------------------------------------------------------*/
FoamFile
{
    version     2.0;
    format      ascii;
    class       volVectorField;
    location    "10.5";
    object      Psi;
}
// * * * * * * * * * * * * * * * * * * * * * * * * * * * * * * * * * * * * * //

dimensions      [0 2 -1 0 0 0 0];


internalField   nonuniform List<vector> 
65536
(
(0 0 9.18452e-06)
(0 0 2.75538e-05)
(0 0 4.5924e-05)
(0 0 6.42956e-05)
(0 0 8.26692e-05)
(0 0 0.000101045)
(0 0 0.000119425)
(0 0 0.000137808)
(0 0 0.000156195)
(0 0 0.000174586)
(0 0 0.000192983)
(0 0 0.000211384)
(0 0 0.000229792)
(0 0 0.000248205)
(0 0 0.000266625)
(0 0 0.000285051)
(0 0 0.000303484)
(0 0 0.000321923)
(0 0 0.000340369)
(0 0 0.000358822)
(0 0 0.000377281)
(0 0 0.000395747)
(0 0 0.000414218)
(0 0 0.000432695)
(0 0 0.000451177)
(0 0 0.000469664)
(0 0 0.000488154)
(0 0 0.000506648)
(0 0 0.000525144)
(0 0 0.000543641)
(0 0 0.000562138)
(0 0 0.000580635)
(0 0 0.000599129)
(0 0 0.000617619)
(0 0 0.000636105)
(0 0 0.000654582)
(0 0 0.000673052)
(0 0 0.00069151)
(0 0 0.000709955)
(0 0 0.000728384)
(0 0 0.000746796)
(0 0 0.000765188)
(0 0 0.000783556)
(0 0 0.000801899)
(0 0 0.000820212)
(0 0 0.000838493)
(0 0 0.000856739)
(0 0 0.000874945)
(0 0 0.000893108)
(0 0 0.000911225)
(0 0 0.00092929)
(0 0 0.000947301)
(0 0 0.000965252)
(0 0 0.000983138)
(0 0 0.00100096)
(0 0 0.0010187)
(0 0 0.00103637)
(0 0 0.00105395)
(0 0 0.00107144)
(0 0 0.00108884)
(0 0 0.00110613)
(0 0 0.00112332)
(0 0 0.0011404)
(0 0 0.00115736)
(0 0 0.00117419)
(0 0 0.0011909)
(0 0 0.00120746)
(0 0 0.00122388)
(0 0 0.00124015)
(0 0 0.00125626)
(0 0 0.0012722)
(0 0 0.00128797)
(0 0 0.00130357)
(0 0 0.00131897)
(0 0 0.00133418)
(0 0 0.00134919)
(0 0 0.00136399)
(0 0 0.00137857)
(0 0 0.00139293)
(0 0 0.00140706)
(0 0 0.00142095)
(0 0 0.00143459)
(0 0 0.00144798)
(0 0 0.00146111)
(0 0 0.00147397)
(0 0 0.00148655)
(0 0 0.00149885)
(0 0 0.00151087)
(0 0 0.00152258)
(0 0 0.00153399)
(0 0 0.00154509)
(0 0 0.00155588)
(0 0 0.00156634)
(0 0 0.00157647)
(0 0 0.00158627)
(0 0 0.00159572)
(0 0 0.00160483)
(0 0 0.00161359)
(0 0 0.00162199)
(0 0 0.00163003)
(0 0 0.0016377)
(0 0 0.001645)
(0 0 0.00165193)
(0 0 0.00165848)
(0 0 0.00166465)
(0 0 0.00167043)
(0 0 0.00167582)
(0 0 0.00168082)
(0 0 0.00168543)
(0 0 0.00168965)
(0 0 0.00169347)
(0 0 0.00169689)
(0 0 0.00169991)
(0 0 0.00170253)
(0 0 0.00170476)
(0 0 0.00170658)
(0 0 0.00170801)
(0 0 0.00170904)
(0 0 0.00170967)
(0 0 0.0017099)
(0 0 0.00170974)
(0 0 0.00170919)
(0 0 0.00170825)
(0 0 0.00170692)
(0 0 0.00170521)
(0 0 0.00170311)
(0 0 0.00170064)
(0 0 0.00169779)
(0 0 0.00169457)
(0 0 0.00169098)
(0 0 0.00168703)
(0 0 0.00168272)
(0 0 0.00167806)
(0 0 0.00167306)
(0 0 0.0016677)
(0 0 0.00166201)
(0 0 0.00165599)
(0 0 0.00164964)
(0 0 0.00164297)
(0 0 0.00163599)
(0 0 0.00162869)
(0 0 0.0016211)
(0 0 0.0016132)
(0 0 0.00160502)
(0 0 0.00159655)
(0 0 0.0015878)
(0 0 0.00157879)
(0 0 0.0015695)
(0 0 0.00155996)
(0 0 0.00155017)
(0 0 0.00154013)
(0 0 0.00152986)
(0 0 0.00151935)
(0 0 0.00150861)
(0 0 0.00149766)
(0 0 0.00148649)
(0 0 0.00147512)
(0 0 0.00146355)
(0 0 0.00145179)
(0 0 0.00143984)
(0 0 0.0014277)
(0 0 0.0014154)
(0 0 0.00140292)
(0 0 0.00139028)
(0 0 0.00137749)
(0 0 0.00136455)
(0 0 0.00135145)
(0 0 0.00133823)
(0 0 0.00132486)
(0 0 0.00131137)
(0 0 0.00129775)
(0 0 0.00128402)
(0 0 0.00127017)
(0 0 0.00125622)
(0 0 0.00124216)
(0 0 0.00122801)
(0 0 0.00121376)
(0 0 0.00119942)
(0 0 0.001185)
(0 0 0.00117049)
(0 0 0.00115591)
(0 0 0.00114126)
(0 0 0.00112654)
(0 0 0.00111176)
(0 0 0.00109691)
(0 0 0.00108201)
(0 0 0.00106705)
(0 0 0.00105205)
(0 0 0.00103699)
(0 0 0.00102189)
(0 0 0.00100675)
(0 0 0.000991577)
(0 0 0.000976364)
(0 0 0.000961119)
(0 0 0.000945843)
(0 0 0.00093054)
(0 0 0.000915212)
(0 0 0.00089986)
(0 0 0.000884488)
(0 0 0.000869097)
(0 0 0.000853689)
(0 0 0.000838266)
(0 0 0.000822831)
(0 0 0.000807383)
(0 0 0.000791926)
(0 0 0.000776461)
(0 0 0.000760989)
(0 0 0.000745511)
(0 0 0.00073003)
(0 0 0.000714545)
(0 0 0.000699058)
(0 0 0.000683571)
(0 0 0.000668084)
(0 0 0.000652598)
(0 0 0.000637114)
(0 0 0.000621633)
(0 0 0.000606156)
(0 0 0.000590683)
(0 0 0.000575214)
(0 0 0.000559751)
(0 0 0.000544293)
(0 0 0.000528842)
(0 0 0.000513398)
(0 0 0.00049796)
(0 0 0.00048253)
(0 0 0.000467107)
(0 0 0.000451692)
(0 0 0.000436285)
(0 0 0.000420886)
(0 0 0.000405494)
(0 0 0.000390111)
(0 0 0.000374736)
(0 0 0.000359369)
(0 0 0.000344009)
(0 0 0.000328658)
(0 0 0.000313314)
(0 0 0.000297978)
(0 0 0.000282649)
(0 0 0.000267327)
(0 0 0.000252012)
(0 0 0.000236704)
(0 0 0.000221401)
(0 0 0.000206105)
(0 0 0.000190815)
(0 0 0.000175529)
(0 0 0.000160249)
(0 0 0.000144973)
(0 0 0.000129701)
(0 0 0.000114433)
(0 0 9.91688e-05)
(0 0 8.39071e-05)
(0 0 6.86479e-05)
(0 0 5.33907e-05)
(0 0 3.81351e-05)
(0 0 2.28806e-05)
(0 0 7.62679e-06)
(0 0 2.75533e-05)
(0 0 8.26607e-05)
(0 0 0.000137771)
(0 0 0.000192885)
(0 0 0.000248005)
(0 0 0.000303133)
(0 0 0.000358271)
(0 0 0.000413419)
(0 0 0.000468579)
(0 0 0.000523754)
(0 0 0.000578943)
(0 0 0.000634148)
(0 0 0.00068937)
(0 0 0.00074461)
(0 0 0.000799869)
(0 0 0.000855148)
(0 0 0.000910446)
(0 0 0.000965764)
(0 0 0.0010211)
(0 0 0.00107646)
(0 0 0.00113184)
(0 0 0.00118723)
(0 0 0.00124265)
(0 0 0.00129808)
(0 0 0.00135353)
(0 0 0.00140899)
(0 0 0.00146446)
(0 0 0.00151994)
(0 0 0.00157543)
(0 0 0.00163092)
(0 0 0.00168642)
(0 0 0.00174191)
(0 0 0.00179739)
(0 0 0.00185286)
(0 0 0.00190832)
(0 0 0.00196376)
(0 0 0.00201917)
(0 0 0.00207454)
(0 0 0.00212988)
(0 0 0.00218517)
(0 0 0.00224041)
(0 0 0.00229559)
(0 0 0.0023507)
(0 0 0.00240573)
(0 0 0.00246067)
(0 0 0.00251552)
(0 0 0.00257026)
(0 0 0.00262488)
(0 0 0.00267937)
(0 0 0.00273373)
(0 0 0.00278793)
(0 0 0.00284196)
(0 0 0.00289582)
(0 0 0.00294948)
(0 0 0.00300294)
(0 0 0.00305618)
(0 0 0.00310918)
(0 0 0.00316193)
(0 0 0.00321442)
(0 0 0.00326661)
(0 0 0.00331851)
(0 0 0.00337009)
(0 0 0.00342132)
(0 0 0.00347221)
(0 0 0.00352271)
(0 0 0.00357283)
(0 0 0.00362253)
(0 0 0.00367179)
(0 0 0.0037206)
(0 0 0.00376894)
(0 0 0.00381678)
(0 0 0.0038641)
(0 0 0.00391088)
(0 0 0.00395711)
(0 0 0.00400274)
(0 0 0.00404778)
(0 0 0.00409219)
(0 0 0.00413594)
(0 0 0.00417903)
(0 0 0.00422142)
(0 0 0.0042631)
(0 0 0.00430403)
(0 0 0.00434421)
(0 0 0.0043836)
(0 0 0.00442218)
(0 0 0.00445994)
(0 0 0.00449685)
(0 0 0.0045329)
(0 0 0.00456805)
(0 0 0.00460229)
(0 0 0.0046356)
(0 0 0.00466796)
(0 0 0.00469935)
(0 0 0.00472975)
(0 0 0.00475915)
(0 0 0.00478752)
(0 0 0.00481485)
(0 0 0.00484113)
(0 0 0.00486634)
(0 0 0.00489046)
(0 0 0.00491348)
(0 0 0.00493539)
(0 0 0.00495617)
(0 0 0.00497582)
(0 0 0.00499432)
(0 0 0.00501167)
(0 0 0.00502785)
(0 0 0.00504286)
(0 0 0.00505669)
(0 0 0.00506934)
(0 0 0.0050808)
(0 0 0.00509106)
(0 0 0.00510013)
(0 0 0.005108)
(0 0 0.00511467)
(0 0 0.00512015)
(0 0 0.00512443)
(0 0 0.00512751)
(0 0 0.0051294)
(0 0 0.0051301)
(0 0 0.00512962)
(0 0 0.00512797)
(0 0 0.00512514)
(0 0 0.00512115)
(0 0 0.005116)
(0 0 0.00510971)
(0 0 0.00510228)
(0 0 0.00509373)
(0 0 0.00508407)
(0 0 0.0050733)
(0 0 0.00506145)
(0 0 0.00504853)
(0 0 0.00503454)
(0 0 0.00501951)
(0 0 0.00500345)
(0 0 0.00498637)
(0 0 0.0049683)
(0 0 0.00494925)
(0 0 0.00492923)
(0 0 0.00490827)
(0 0 0.00488638)
(0 0 0.00486359)
(0 0 0.0048399)
(0 0 0.00481534)
(0 0 0.00478993)
(0 0 0.00476368)
(0 0 0.00473662)
(0 0 0.00470877)
(0 0 0.00468014)
(0 0 0.00465075)
(0 0 0.00462063)
(0 0 0.0045898)
(0 0 0.00455827)
(0 0 0.00452606)
(0 0 0.00449319)
(0 0 0.00445969)
(0 0 0.00442557)
(0 0 0.00439085)
(0 0 0.00435555)
(0 0 0.00431969)
(0 0 0.00428329)
(0 0 0.00424636)
(0 0 0.00420893)
(0 0 0.00417101)
(0 0 0.00413262)
(0 0 0.00409378)
(0 0 0.0040545)
(0 0 0.00401481)
(0 0 0.00397471)
(0 0 0.00393423)
(0 0 0.00389338)
(0 0 0.00385217)
(0 0 0.00381063)
(0 0 0.00376876)
(0 0 0.00372659)
(0 0 0.00368411)
(0 0 0.00364136)
(0 0 0.00359834)
(0 0 0.00355507)
(0 0 0.00351156)
(0 0 0.00346781)
(0 0 0.00342385)
(0 0 0.00337969)
(0 0 0.00333533)
(0 0 0.00329079)
(0 0 0.00324608)
(0 0 0.00320121)
(0 0 0.00315618)
(0 0 0.00311102)
(0 0 0.00306572)
(0 0 0.0030203)
(0 0 0.00297477)
(0 0 0.00292912)
(0 0 0.00288339)
(0 0 0.00283756)
(0 0 0.00279165)
(0 0 0.00274566)
(0 0 0.0026996)
(0 0 0.00265348)
(0 0 0.00260731)
(0 0 0.00256108)
(0 0 0.00251481)
(0 0 0.0024685)
(0 0 0.00242216)
(0 0 0.00237579)
(0 0 0.00232939)
(0 0 0.00228297)
(0 0 0.00223654)
(0 0 0.00219009)
(0 0 0.00214364)
(0 0 0.00209718)
(0 0 0.00205071)
(0 0 0.00200425)
(0 0 0.00195779)
(0 0 0.00191134)
(0 0 0.0018649)
(0 0 0.00181846)
(0 0 0.00177204)
(0 0 0.00172564)
(0 0 0.00167925)
(0 0 0.00163287)
(0 0 0.00158652)
(0 0 0.00154019)
(0 0 0.00149387)
(0 0 0.00144758)
(0 0 0.00140131)
(0 0 0.00135507)
(0 0 0.00130885)
(0 0 0.00126265)
(0 0 0.00121647)
(0 0 0.00117033)
(0 0 0.0011242)
(0 0 0.0010781)
(0 0 0.00103202)
(0 0 0.000985966)
(0 0 0.000939935)
(0 0 0.000893926)
(0 0 0.00084794)
(0 0 0.000801974)
(0 0 0.000756029)
(0 0 0.000710104)
(0 0 0.000664198)
(0 0 0.00061831)
(0 0 0.000572438)
(0 0 0.000526583)
(0 0 0.000480742)
(0 0 0.000434915)
(0 0 0.0003891)
(0 0 0.000343297)
(0 0 0.000297504)
(0 0 0.000251719)
(0 0 0.000205942)
(0 0 0.000160171)
(0 0 0.000114404)
(0 0 6.86411e-05)
(0 0 2.28801e-05)
(0 0 4.59213e-05)
(0 0 0.000137765)
(0 0 0.000229613)
(0 0 0.000321469)
(0 0 0.000413334)
(0 0 0.000505212)
(0 0 0.000597106)
(0 0 0.000689018)
(0 0 0.000780951)
(0 0 0.000872907)
(0 0 0.000964887)
(0 0 0.00105689)
(0 0 0.00114893)
(0 0 0.001241)
(0 0 0.00133309)
(0 0 0.00142523)
(0 0 0.00151739)
(0 0 0.00160959)
(0 0 0.00170182)
(0 0 0.00179408)
(0 0 0.00188638)
(0 0 0.0019787)
(0 0 0.00207106)
(0 0 0.00216345)
(0 0 0.00225586)
(0 0 0.0023483)
(0 0 0.00244076)
(0 0 0.00253323)
(0 0 0.00262571)
(0 0 0.00271821)
(0 0 0.0028107)
(0 0 0.00290319)
(0 0 0.00299567)
(0 0 0.00308813)
(0 0 0.00318056)
(0 0 0.00327296)
(0 0 0.00336531)
(0 0 0.00345762)
(0 0 0.00354985)
(0 0 0.00364201)
(0 0 0.00373409)
(0 0 0.00382606)
(0 0 0.00391791)
(0 0 0.00400964)
(0 0 0.00410122)
(0 0 0.00419265)
(0 0 0.00428389)
(0 0 0.00437494)
(0 0 0.00446578)
(0 0 0.00455638)
(0 0 0.00464673)
(0 0 0.0047368)
(0 0 0.00482658)
(0 0 0.00491604)
(0 0 0.00500515)
(0 0 0.0050939)
(0 0 0.00518226)
(0 0 0.00527019)
(0 0 0.00535768)
(0 0 0.00544469)
(0 0 0.00553121)
(0 0 0.00561719)
(0 0 0.00570261)
(0 0 0.00578743)
(0 0 0.00587163)
(0 0 0.00595518)
(0 0 0.00603803)
(0 0 0.00612016)
(0 0 0.00620154)
(0 0 0.00628212)
(0 0 0.00636187)
(0 0 0.00644077)
(0 0 0.00651876)
(0 0 0.00659583)
(0 0 0.00667192)
(0 0 0.006747)
(0 0 0.00682103)
(0 0 0.00689399)
(0 0 0.00696582)
(0 0 0.0070365)
(0 0 0.00710598)
(0 0 0.00717423)
(0 0 0.00724122)
(0 0 0.00730689)
(0 0 0.00737123)
(0 0 0.00743418)
(0 0 0.00749573)
(0 0 0.00755582)
(0 0 0.00761443)
(0 0 0.00767152)
(0 0 0.00772705)
(0 0 0.00778101)
(0 0 0.00783335)
(0 0 0.00788404)
(0 0 0.00793305)
(0 0 0.00798036)
(0 0 0.00802593)
(0 0 0.00806974)
(0 0 0.00811177)
(0 0 0.00815199)
(0 0 0.00819037)
(0 0 0.0082269)
(0 0 0.00826155)
(0 0 0.00829431)
(0 0 0.00832516)
(0 0 0.00835408)
(0 0 0.00838105)
(0 0 0.00840608)
(0 0 0.00842914)
(0 0 0.00845022)
(0 0 0.00846932)
(0 0 0.00848643)
(0 0 0.00850155)
(0 0 0.00851467)
(0 0 0.00852579)
(0 0 0.00853492)
(0 0 0.00854204)
(0 0 0.00854718)
(0 0 0.00855033)
(0 0 0.00855149)
(0 0 0.00855068)
(0 0 0.00854791)
(0 0 0.00854319)
(0 0 0.00853653)
(0 0 0.00852794)
(0 0 0.00851745)
(0 0 0.00850506)
(0 0 0.00849079)
(0 0 0.00847467)
(0 0 0.00845672)
(0 0 0.00843695)
(0 0 0.00841539)
(0 0 0.00839206)
(0 0 0.00836699)
(0 0 0.00834021)
(0 0 0.00831173)
(0 0 0.00828159)
(0 0 0.00824982)
(0 0 0.00821644)
(0 0 0.00818149)
(0 0 0.00814499)
(0 0 0.00810697)
(0 0 0.00806747)
(0 0 0.00802652)
(0 0 0.00798414)
(0 0 0.00794038)
(0 0 0.00789526)
(0 0 0.00784881)
(0 0 0.00780107)
(0 0 0.00775208)
(0 0 0.00770185)
(0 0 0.00765044)
(0 0 0.00759787)
(0 0 0.00754416)
(0 0 0.00748937)
(0 0 0.00743351)
(0 0 0.00737662)
(0 0 0.00731873)
(0 0 0.00725988)
(0 0 0.00720009)
(0 0 0.0071394)
(0 0 0.00707783)
(0 0 0.00701543)
(0 0 0.00695221)
(0 0 0.00688821)
(0 0 0.00682345)
(0 0 0.00675797)
(0 0 0.0066918)
(0 0 0.00662495)
(0 0 0.00655746)
(0 0 0.00648936)
(0 0 0.00642067)
(0 0 0.00635141)
(0 0 0.00628162)
(0 0 0.00621131)
(0 0 0.00614051)
(0 0 0.00606924)
(0 0 0.00599752)
(0 0 0.00592539)
(0 0 0.00585285)
(0 0 0.00577993)
(0 0 0.00570665)
(0 0 0.00563303)
(0 0 0.00555909)
(0 0 0.00548484)
(0 0 0.00541031)
(0 0 0.00533552)
(0 0 0.00526046)
(0 0 0.00518518)
(0 0 0.00510967)
(0 0 0.00503396)
(0 0 0.00495806)
(0 0 0.00488199)
(0 0 0.00480575)
(0 0 0.00472936)
(0 0 0.00465283)
(0 0 0.00457618)
(0 0 0.00449941)
(0 0 0.00442254)
(0 0 0.00434557)
(0 0 0.00426852)
(0 0 0.0041914)
(0 0 0.00411421)
(0 0 0.00403697)
(0 0 0.00395967)
(0 0 0.00388234)
(0 0 0.00380497)
(0 0 0.00372758)
(0 0 0.00365016)
(0 0 0.00357274)
(0 0 0.0034953)
(0 0 0.00341786)
(0 0 0.00334042)
(0 0 0.00326298)
(0 0 0.00318556)
(0 0 0.00310815)
(0 0 0.00303076)
(0 0 0.00295339)
(0 0 0.00287605)
(0 0 0.00279873)
(0 0 0.00272144)
(0 0 0.00264418)
(0 0 0.00256696)
(0 0 0.00248977)
(0 0 0.00241261)
(0 0 0.0023355)
(0 0 0.00225842)
(0 0 0.00218139)
(0 0 0.00210439)
(0 0 0.00202743)
(0 0 0.00195052)
(0 0 0.00187364)
(0 0 0.00179681)
(0 0 0.00172001)
(0 0 0.00164325)
(0 0 0.00156653)
(0 0 0.00148985)
(0 0 0.00141321)
(0 0 0.0013366)
(0 0 0.00126003)
(0 0 0.00118349)
(0 0 0.00110698)
(0 0 0.0010305)
(0 0 0.000954047)
(0 0 0.000877622)
(0 0 0.000801222)
(0 0 0.000724845)
(0 0 0.000648489)
(0 0 0.000572151)
(0 0 0.00049583)
(0 0 0.000419524)
(0 0 0.00034323)
(0 0 0.000266946)
(0 0 0.00019067)
(0 0 0.0001144)
(0 0 3.81328e-05)
(0 0 6.42878e-05)
(0 0 0.000192865)
(0 0 0.000321449)
(0 0 0.000450042)
(0 0 0.00057865)
(0 0 0.000707276)
(0 0 0.000835924)
(0 0 0.000964598)
(0 0 0.0010933)
(0 0 0.00122204)
(0 0 0.00135081)
(0 0 0.00147961)
(0 0 0.00160846)
(0 0 0.00173735)
(0 0 0.00186629)
(0 0 0.00199527)
(0 0 0.0021243)
(0 0 0.00225337)
(0 0 0.0023825)
(0 0 0.00251167)
(0 0 0.00264088)
(0 0 0.00277015)
(0 0 0.00289945)
(0 0 0.0030288)
(0 0 0.00315818)
(0 0 0.00328759)
(0 0 0.00341704)
(0 0 0.00354651)
(0 0 0.00367599)
(0 0 0.00380549)
(0 0 0.00393499)
(0 0 0.00406448)
(0 0 0.00419396)
(0 0 0.00432342)
(0 0 0.00445284)
(0 0 0.00458221)
(0 0 0.00471152)
(0 0 0.00484076)
(0 0 0.0049699)
(0 0 0.00509895)
(0 0 0.00522787)
(0 0 0.00535664)
(0 0 0.00548526)
(0 0 0.0056137)
(0 0 0.00574194)
(0 0 0.00586996)
(0 0 0.00599773)
(0 0 0.00612522)
(0 0 0.00625242)
(0 0 0.00637929)
(0 0 0.00650581)
(0 0 0.00663194)
(0 0 0.00675766)
(0 0 0.00688294)
(0 0 0.00700773)
(0 0 0.00713202)
(0 0 0.00725575)
(0 0 0.0073789)
(0 0 0.00750142)
(0 0 0.00762328)
(0 0 0.00774444)
(0 0 0.00786485)
(0 0 0.00798448)
(0 0 0.00810328)
(0 0 0.00822121)
(0 0 0.00833822)
(0 0 0.00845426)
(0 0 0.00856929)
(0 0 0.00868326)
(0 0 0.00879613)
(0 0 0.00890784)
(0 0 0.00901834)
(0 0 0.00912758)
(0 0 0.00923552)
(0 0 0.0093421)
(0 0 0.00944726)
(0 0 0.00955097)
(0 0 0.00965316)
(0 0 0.00975378)
(0 0 0.00985278)
(0 0 0.00995011)
(0 0 0.0100457)
(0 0 0.0101395)
(0 0 0.0102315)
(0 0 0.0103217)
(0 0 0.0104098)
(0 0 0.0104961)
(0 0 0.0105802)
(0 0 0.0106623)
(0 0 0.0107423)
(0 0 0.0108201)
(0 0 0.0108957)
(0 0 0.010969)
(0 0 0.01104)
(0 0 0.0111087)
(0 0 0.0111749)
(0 0 0.0112388)
(0 0 0.0113001)
(0 0 0.011359)
(0 0 0.0114154)
(0 0 0.0114691)
(0 0 0.0115203)
(0 0 0.0115688)
(0 0 0.0116147)
(0 0 0.0116579)
(0 0 0.0116984)
(0 0 0.0117362)
(0 0 0.0117713)
(0 0 0.0118036)
(0 0 0.0118331)
(0 0 0.0118598)
(0 0 0.0118838)
(0 0 0.011905)
(0 0 0.0119233)
(0 0 0.0119389)
(0 0 0.0119517)
(0 0 0.0119617)
(0 0 0.0119688)
(0 0 0.0119732)
(0 0 0.0119749)
(0 0 0.0119737)
(0 0 0.0119698)
(0 0 0.0119632)
(0 0 0.0119538)
(0 0 0.0119418)
(0 0 0.0119271)
(0 0 0.0119097)
(0 0 0.0118897)
(0 0 0.0118671)
(0 0 0.011842)
(0 0 0.0118142)
(0 0 0.011784)
(0 0 0.0117513)
(0 0 0.0117162)
(0 0 0.0116787)
(0 0 0.0116388)
(0 0 0.0115965)
(0 0 0.011552)
(0 0 0.0115052)
(0 0 0.0114563)
(0 0 0.0114051)
(0 0 0.0113518)
(0 0 0.0112965)
(0 0 0.0112391)
(0 0 0.0111798)
(0 0 0.0111184)
(0 0 0.0110552)
(0 0 0.0109901)
(0 0 0.0109233)
(0 0 0.0108546)
(0 0 0.0107843)
(0 0 0.0107122)
(0 0 0.0106386)
(0 0 0.0105634)
(0 0 0.0104866)
(0 0 0.0104084)
(0 0 0.0103287)
(0 0 0.0102476)
(0 0 0.0101651)
(0 0 0.0100814)
(0 0 0.00999639)
(0 0 0.00991016)
(0 0 0.00982274)
(0 0 0.0097342)
(0 0 0.00964455)
(0 0 0.00955386)
(0 0 0.00946215)
(0 0 0.00936946)
(0 0 0.00927584)
(0 0 0.00918132)
(0 0 0.00908594)
(0 0 0.00898973)
(0 0 0.00889274)
(0 0 0.00879499)
(0 0 0.00869652)
(0 0 0.00859737)
(0 0 0.00849756)
(0 0 0.00839713)
(0 0 0.00829611)
(0 0 0.00819453)
(0 0 0.00809242)
(0 0 0.0079898)
(0 0 0.0078867)
(0 0 0.00778316)
(0 0 0.00767919)
(0 0 0.00757482)
(0 0 0.00747008)
(0 0 0.00736499)
(0 0 0.00725957)
(0 0 0.00715384)
(0 0 0.00704782)
(0 0 0.00694154)
(0 0 0.00683502)
(0 0 0.00672826)
(0 0 0.0066213)
(0 0 0.00651414)
(0 0 0.00640681)
(0 0 0.00629932)
(0 0 0.00619169)
(0 0 0.00608392)
(0 0 0.00597604)
(0 0 0.00586806)
(0 0 0.00575998)
(0 0 0.00565183)
(0 0 0.00554361)
(0 0 0.00543533)
(0 0 0.00532701)
(0 0 0.00521865)
(0 0 0.00511026)
(0 0 0.00500185)
(0 0 0.00489343)
(0 0 0.004785)
(0 0 0.00467658)
(0 0 0.00456817)
(0 0 0.00445977)
(0 0 0.00435139)
(0 0 0.00424304)
(0 0 0.00413472)
(0 0 0.00402643)
(0 0 0.00391818)
(0 0 0.00380997)
(0 0 0.00370181)
(0 0 0.00359369)
(0 0 0.00348563)
(0 0 0.00337761)
(0 0 0.00326965)
(0 0 0.00316174)
(0 0 0.00305389)
(0 0 0.00294609)
(0 0 0.00283835)
(0 0 0.00273067)
(0 0 0.00262304)
(0 0 0.00251547)
(0 0 0.00240796)
(0 0 0.0023005)
(0 0 0.0021931)
(0 0 0.00208575)
(0 0 0.00197845)
(0 0 0.0018712)
(0 0 0.001764)
(0 0 0.00165684)
(0 0 0.00154973)
(0 0 0.00144266)
(0 0 0.00133563)
(0 0 0.00122864)
(0 0 0.00112168)
(0 0 0.00101475)
(0 0 0.000907859)
(0 0 0.000800989)
(0 0 0.000694142)
(0 0 0.000587316)
(0 0 0.000480508)
(0 0 0.000373713)
(0 0 0.00026693)
(0 0 0.000160155)
(0 0 5.33844e-05)
(0 0 8.26522e-05)
(0 0 0.000247959)
(0 0 0.000413274)
(0 0 0.000578602)
(0 0 0.000743949)
(0 0 0.000909319)
(0 0 0.00107472)
(0 0 0.00124015)
(0 0 0.00140562)
(0 0 0.00157113)
(0 0 0.00173669)
(0 0 0.00190229)
(0 0 0.00206795)
(0 0 0.00223367)
(0 0 0.00239944)
(0 0 0.00256527)
(0 0 0.00273116)
(0 0 0.00289712)
(0 0 0.00306313)
(0 0 0.00322921)
(0 0 0.00339535)
(0 0 0.00356155)
(0 0 0.0037278)
(0 0 0.00389411)
(0 0 0.00406046)
(0 0 0.00422686)
(0 0 0.0043933)
(0 0 0.00455977)
(0 0 0.00472626)
(0 0 0.00489277)
(0 0 0.00505928)
(0 0 0.00522579)
(0 0 0.00539228)
(0 0 0.00555874)
(0 0 0.00572516)
(0 0 0.00589152)
(0 0 0.0060578)
(0 0 0.00622399)
(0 0 0.00639006)
(0 0 0.006556)
(0 0 0.00672179)
(0 0 0.00688739)
(0 0 0.0070528)
(0 0 0.00721797)
(0 0 0.00738289)
(0 0 0.00754752)
(0 0 0.00771184)
(0 0 0.0078758)
(0 0 0.00803939)
(0 0 0.00820256)
(0 0 0.00836528)
(0 0 0.0085275)
(0 0 0.0086892)
(0 0 0.00885032)
(0 0 0.00901083)
(0 0 0.00917068)
(0 0 0.00932983)
(0 0 0.00948823)
(0 0 0.00964583)
(0 0 0.00980257)
(0 0 0.00995842)
(0 0 0.0101133)
(0 0 0.0102672)
(0 0 0.01042)
(0 0 0.0105717)
(0 0 0.0107222)
(0 0 0.0108715)
(0 0 0.0110195)
(0 0 0.0111661)
(0 0 0.0113113)
(0 0 0.011455)
(0 0 0.0115972)
(0 0 0.0117377)
(0 0 0.0118766)
(0 0 0.0120137)
(0 0 0.012149)
(0 0 0.0122824)
(0 0 0.0124139)
(0 0 0.0125434)
(0 0 0.0126707)
(0 0 0.012796)
(0 0 0.012919)
(0 0 0.0130397)
(0 0 0.0131581)
(0 0 0.013274)
(0 0 0.0133875)
(0 0 0.0134984)
(0 0 0.0136067)
(0 0 0.0137124)
(0 0 0.0138153)
(0 0 0.0139154)
(0 0 0.0140126)
(0 0 0.014107)
(0 0 0.0141983)
(0 0 0.0142867)
(0 0 0.0143719)
(0 0 0.0144541)
(0 0 0.0145331)
(0 0 0.0146088)
(0 0 0.0146813)
(0 0 0.0147505)
(0 0 0.0148163)
(0 0 0.0148788)
(0 0 0.0149378)
(0 0 0.0149934)
(0 0 0.0150455)
(0 0 0.0150941)
(0 0 0.0151392)
(0 0 0.0151808)
(0 0 0.0152187)
(0 0 0.0152532)
(0 0 0.015284)
(0 0 0.0153112)
(0 0 0.0153348)
(0 0 0.0153548)
(0 0 0.0153713)
(0 0 0.0153841)
(0 0 0.0153933)
(0 0 0.0153989)
(0 0 0.015401)
(0 0 0.0153995)
(0 0 0.0153945)
(0 0 0.0153859)
(0 0 0.0153739)
(0 0 0.0153583)
(0 0 0.0153394)
(0 0 0.015317)
(0 0 0.0152912)
(0 0 0.0152621)
(0 0 0.0152297)
(0 0 0.0151941)
(0 0 0.0151551)
(0 0 0.0151131)
(0 0 0.0150678)
(0 0 0.0150195)
(0 0 0.0149681)
(0 0 0.0149138)
(0 0 0.0148564)
(0 0 0.0147962)
(0 0 0.0147332)
(0 0 0.0146674)
(0 0 0.0145988)
(0 0 0.0145276)
(0 0 0.0144537)
(0 0 0.0143773)
(0 0 0.0142984)
(0 0 0.014217)
(0 0 0.0141333)
(0 0 0.0140472)
(0 0 0.0139589)
(0 0 0.0138684)
(0 0 0.0137757)
(0 0 0.0136809)
(0 0 0.0135841)
(0 0 0.0134853)
(0 0 0.0133847)
(0 0 0.0132821)
(0 0 0.0131778)
(0 0 0.0130717)
(0 0 0.012964)
(0 0 0.0128546)
(0 0 0.0127437)
(0 0 0.0126312)
(0 0 0.0125173)
(0 0 0.012402)
(0 0 0.0122853)
(0 0 0.0121673)
(0 0 0.0120481)
(0 0 0.0119276)
(0 0 0.011806)
(0 0 0.0116833)
(0 0 0.0115596)
(0 0 0.0114348)
(0 0 0.0113091)
(0 0 0.0111824)
(0 0 0.0110549)
(0 0 0.0109265)
(0 0 0.0107973)
(0 0 0.0106674)
(0 0 0.0105368)
(0 0 0.0104054)
(0 0 0.0102734)
(0 0 0.0101408)
(0 0 0.0100077)
(0 0 0.00987394)
(0 0 0.00973971)
(0 0 0.00960501)
(0 0 0.00946985)
(0 0 0.00933427)
(0 0 0.00919829)
(0 0 0.00906195)
(0 0 0.00892527)
(0 0 0.00878828)
(0 0 0.00865099)
(0 0 0.00851344)
(0 0 0.00837564)
(0 0 0.00823762)
(0 0 0.00809939)
(0 0 0.00796098)
(0 0 0.0078224)
(0 0 0.00768367)
(0 0 0.00754481)
(0 0 0.00740584)
(0 0 0.00726676)
(0 0 0.0071276)
(0 0 0.00698837)
(0 0 0.00684908)
(0 0 0.00670975)
(0 0 0.00657037)
(0 0 0.00643098)
(0 0 0.00629157)
(0 0 0.00615215)
(0 0 0.00601274)
(0 0 0.00587334)
(0 0 0.00573396)
(0 0 0.00559461)
(0 0 0.00545529)
(0 0 0.00531602)
(0 0 0.00517678)
(0 0 0.0050376)
(0 0 0.00489847)
(0 0 0.0047594)
(0 0 0.00462038)
(0 0 0.00448144)
(0 0 0.00434256)
(0 0 0.00420375)
(0 0 0.00406501)
(0 0 0.00392634)
(0 0 0.00378774)
(0 0 0.00364922)
(0 0 0.00351077)
(0 0 0.00337239)
(0 0 0.00323409)
(0 0 0.00309586)
(0 0 0.0029577)
(0 0 0.00281961)
(0 0 0.00268159)
(0 0 0.00254364)
(0 0 0.00240575)
(0 0 0.00226792)
(0 0 0.00213015)
(0 0 0.00199244)
(0 0 0.00185478)
(0 0 0.00171718)
(0 0 0.00157962)
(0 0 0.00144211)
(0 0 0.00130464)
(0 0 0.0011672)
(0 0 0.0010298)
(0 0 0.000892435)
(0 0 0.000755092)
(0 0 0.000617772)
(0 0 0.00048047)
(0 0 0.000343183)
(0 0 0.000205905)
(0 0 6.86345e-05)
(0 0 0.000101014)
(0 0 0.000303045)
(0 0 0.000505086)
(0 0 0.000707144)
(0 0 0.000909224)
(0 0 0.00111133)
(0 0 0.00131348)
(0 0 0.00151566)
(0 0 0.0017179)
(0 0 0.00192018)
(0 0 0.00212252)
(0 0 0.00232492)
(0 0 0.00252739)
(0 0 0.00272992)
(0 0 0.00293253)
(0 0 0.00313521)
(0 0 0.00333797)
(0 0 0.0035408)
(0 0 0.00374371)
(0 0 0.00394669)
(0 0 0.00414976)
(0 0 0.00435289)
(0 0 0.0045561)
(0 0 0.00475937)
(0 0 0.0049627)
(0 0 0.00516609)
(0 0 0.00536953)
(0 0 0.00557301)
(0 0 0.00577652)
(0 0 0.00598005)
(0 0 0.00618359)
(0 0 0.00638712)
(0 0 0.00659064)
(0 0 0.00679412)
(0 0 0.00699755)
(0 0 0.00720091)
(0 0 0.00740418)
(0 0 0.00760734)
(0 0 0.00781036)
(0 0 0.00801322)
(0 0 0.00821589)
(0 0 0.00841835)
(0 0 0.00862056)
(0 0 0.0088225)
(0 0 0.00902412)
(0 0 0.0092254)
(0 0 0.0094263)
(0 0 0.00962677)
(0 0 0.00982678)
(0 0 0.0100263)
(0 0 0.0102252)
(0 0 0.0104236)
(0 0 0.0106213)
(0 0 0.0108183)
(0 0 0.0110146)
(0 0 0.0112101)
(0 0 0.0114047)
(0 0 0.0115984)
(0 0 0.0117911)
(0 0 0.0119828)
(0 0 0.0121734)
(0 0 0.0123628)
(0 0 0.012551)
(0 0 0.0127379)
(0 0 0.0129234)
(0 0 0.0131075)
(0 0 0.0132901)
(0 0 0.013471)
(0 0 0.0136504)
(0 0 0.013828)
(0 0 0.0140037)
(0 0 0.0141776)
(0 0 0.0143495)
(0 0 0.0145194)
(0 0 0.0146871)
(0 0 0.0148526)
(0 0 0.0150158)
(0 0 0.0151767)
(0 0 0.015335)
(0 0 0.0154908)
(0 0 0.015644)
(0 0 0.0157945)
(0 0 0.0159422)
(0 0 0.016087)
(0 0 0.0162289)
(0 0 0.0163677)
(0 0 0.0165034)
(0 0 0.0166359)
(0 0 0.0167651)
(0 0 0.016891)
(0 0 0.0170135)
(0 0 0.0171325)
(0 0 0.0172479)
(0 0 0.0173597)
(0 0 0.0174678)
(0 0 0.0175721)
(0 0 0.0176726)
(0 0 0.0177692)
(0 0 0.0178619)
(0 0 0.0179506)
(0 0 0.0180352)
(0 0 0.0181157)
(0 0 0.0181921)
(0 0 0.0182644)
(0 0 0.0183324)
(0 0 0.0183961)
(0 0 0.0184556)
(0 0 0.0185107)
(0 0 0.0185615)
(0 0 0.018608)
(0 0 0.0186501)
(0 0 0.0186878)
(0 0 0.018721)
(0 0 0.0187499)
(0 0 0.0187744)
(0 0 0.0187944)
(0 0 0.0188101)
(0 0 0.0188213)
(0 0 0.0188282)
(0 0 0.0188307)
(0 0 0.0188288)
(0 0 0.0188226)
(0 0 0.0188121)
(0 0 0.0187974)
(0 0 0.0187783)
(0 0 0.0187551)
(0 0 0.0187277)
(0 0 0.0186961)
(0 0 0.0186605)
(0 0 0.0186208)
(0 0 0.0185771)
(0 0 0.0185295)
(0 0 0.0184779)
(0 0 0.0184226)
(0 0 0.0183634)
(0 0 0.0183005)
(0 0 0.0182339)
(0 0 0.0181638)
(0 0 0.0180901)
(0 0 0.0180129)
(0 0 0.0179324)
(0 0 0.0178485)
(0 0 0.0177613)
(0 0 0.0176709)
(0 0 0.0175774)
(0 0 0.0174808)
(0 0 0.0173813)
(0 0 0.0172788)
(0 0 0.0171735)
(0 0 0.0170654)
(0 0 0.0169546)
(0 0 0.0168412)
(0 0 0.0167253)
(0 0 0.0166068)
(0 0 0.016486)
(0 0 0.0163628)
(0 0 0.0162374)
(0 0 0.0161098)
(0 0 0.01598)
(0 0 0.0158482)
(0 0 0.0157144)
(0 0 0.0155787)
(0 0 0.0154411)
(0 0 0.0153018)
(0 0 0.0151607)
(0 0 0.015018)
(0 0 0.0148737)
(0 0 0.0147279)
(0 0 0.0145806)
(0 0 0.0144319)
(0 0 0.0142818)
(0 0 0.0141305)
(0 0 0.0139779)
(0 0 0.0138241)
(0 0 0.0136692)
(0 0 0.0135133)
(0 0 0.0133563)
(0 0 0.0131983)
(0 0 0.0130394)
(0 0 0.0128797)
(0 0 0.0127191)
(0 0 0.0125577)
(0 0 0.0123955)
(0 0 0.0122327)
(0 0 0.0120692)
(0 0 0.0119051)
(0 0 0.0117404)
(0 0 0.0115751)
(0 0 0.0114094)
(0 0 0.0112431)
(0 0 0.0110764)
(0 0 0.0109093)
(0 0 0.0107418)
(0 0 0.010574)
(0 0 0.0104058)
(0 0 0.0102374)
(0 0 0.0100686)
(0 0 0.00989965)
(0 0 0.00973044)
(0 0 0.00956103)
(0 0 0.00939144)
(0 0 0.00922169)
(0 0 0.0090518)
(0 0 0.00888179)
(0 0 0.00871168)
(0 0 0.00854148)
(0 0 0.00837121)
(0 0 0.00820089)
(0 0 0.00803052)
(0 0 0.00786013)
(0 0 0.00768972)
(0 0 0.0075193)
(0 0 0.0073489)
(0 0 0.0071785)
(0 0 0.00700814)
(0 0 0.00683781)
(0 0 0.00666752)
(0 0 0.00649727)
(0 0 0.00632709)
(0 0 0.00615697)
(0 0 0.00598691)
(0 0 0.00581693)
(0 0 0.00564702)
(0 0 0.00547719)
(0 0 0.00530744)
(0 0 0.00513778)
(0 0 0.0049682)
(0 0 0.00479872)
(0 0 0.00462932)
(0 0 0.00446002)
(0 0 0.0042908)
(0 0 0.00412167)
(0 0 0.00395264)
(0 0 0.00378369)
(0 0 0.00361483)
(0 0 0.00344606)
(0 0 0.00327737)
(0 0 0.00310876)
(0 0 0.00294023)
(0 0 0.00277178)
(0 0 0.00260341)
(0 0 0.0024351)
(0 0 0.00226686)
(0 0 0.00209868)
(0 0 0.00193056)
(0 0 0.0017625)
(0 0 0.00159448)
(0 0 0.00142652)
(0 0 0.00125859)
(0 0 0.0010907)
(0 0 0.000922846)
(0 0 0.000755018)
(0 0 0.000587213)
(0 0 0.000419425)
(0 0 0.00025165)
(0 0 8.38825e-05)
(0 0 0.000119373)
(0 0 0.000358122)
(0 0 0.000596883)
(0 0 0.000835663)
(0 0 0.00107447)
(0 0 0.00131331)
(0 0 0.0015522)
(0 0 0.00179113)
(0 0 0.00203012)
(0 0 0.00226917)
(0 0 0.00250829)
(0 0 0.00274748)
(0 0 0.00298676)
(0 0 0.00322611)
(0 0 0.00346555)
(0 0 0.00370508)
(0 0 0.00394469)
(0 0 0.00418441)
(0 0 0.00442421)
(0 0 0.00466411)
(0 0 0.00490409)
(0 0 0.00514417)
(0 0 0.00538433)
(0 0 0.00562457)
(0 0 0.00586489)
(0 0 0.00610528)
(0 0 0.00634572)
(0 0 0.00658622)
(0 0 0.00682676)
(0 0 0.00706732)
(0 0 0.0073079)
(0 0 0.00754847)
(0 0 0.00778903)
(0 0 0.00802955)
(0 0 0.00827001)
(0 0 0.00851039)
(0 0 0.00875067)
(0 0 0.00899082)
(0 0 0.00923082)
(0 0 0.00947062)
(0 0 0.00971021)
(0 0 0.00994955)
(0 0 0.0101886)
(0 0 0.0104273)
(0 0 0.0106657)
(0 0 0.0109037)
(0 0 0.0111412)
(0 0 0.0113782)
(0 0 0.0116147)
(0 0 0.0118506)
(0 0 0.0120858)
(0 0 0.0123203)
(0 0 0.0125541)
(0 0 0.0127871)
(0 0 0.0130192)
(0 0 0.0132503)
(0 0 0.0134804)
(0 0 0.0137095)
(0 0 0.0139374)
(0 0 0.0141641)
(0 0 0.0143895)
(0 0 0.0146135)
(0 0 0.0148361)
(0 0 0.0150571)
(0 0 0.0152765)
(0 0 0.0154943)
(0 0 0.0157102)
(0 0 0.0159243)
(0 0 0.0161364)
(0 0 0.0163465)
(0 0 0.0165544)
(0 0 0.0167601)
(0 0 0.0169634)
(0 0 0.0171643)
(0 0 0.0173628)
(0 0 0.0175586)
(0 0 0.0177516)
(0 0 0.0179419)
(0 0 0.0181292)
(0 0 0.0183136)
(0 0 0.0184948)
(0 0 0.0186729)
(0 0 0.0188476)
(0 0 0.0190189)
(0 0 0.0191868)
(0 0 0.019351)
(0 0 0.0195116)
(0 0 0.0196684)
(0 0 0.0198213)
(0 0 0.0199702)
(0 0 0.0201151)
(0 0 0.0202559)
(0 0 0.0203925)
(0 0 0.0205248)
(0 0 0.0206526)
(0 0 0.0207761)
(0 0 0.020895)
(0 0 0.0210093)
(0 0 0.0211189)
(0 0 0.0212239)
(0 0 0.021324)
(0 0 0.0214193)
(0 0 0.0215097)
(0 0 0.0215951)
(0 0 0.0216756)
(0 0 0.021751)
(0 0 0.0218213)
(0 0 0.0218866)
(0 0 0.0219467)
(0 0 0.0220016)
(0 0 0.0220514)
(0 0 0.0220959)
(0 0 0.0221353)
(0 0 0.0221694)
(0 0 0.0221983)
(0 0 0.022222)
(0 0 0.0222405)
(0 0 0.0222538)
(0 0 0.0222619)
(0 0 0.0222648)
(0 0 0.0222625)
(0 0 0.0222551)
(0 0 0.0222427)
(0 0 0.0222251)
(0 0 0.0222026)
(0 0 0.022175)
(0 0 0.0221425)
(0 0 0.0221051)
(0 0 0.0220629)
(0 0 0.0220159)
(0 0 0.0219641)
(0 0 0.0219077)
(0 0 0.0218467)
(0 0 0.0217811)
(0 0 0.021711)
(0 0 0.0216366)
(0 0 0.0215578)
(0 0 0.0214747)
(0 0 0.0213874)
(0 0 0.0212961)
(0 0 0.0212007)
(0 0 0.0211014)
(0 0 0.0209982)
(0 0 0.0208912)
(0 0 0.0207805)
(0 0 0.0206662)
(0 0 0.0205484)
(0 0 0.0204271)
(0 0 0.0203025)
(0 0 0.0201746)
(0 0 0.0200435)
(0 0 0.0199093)
(0 0 0.0197721)
(0 0 0.019632)
(0 0 0.019489)
(0 0 0.0193433)
(0 0 0.0191949)
(0 0 0.0190439)
(0 0 0.0188903)
(0 0 0.0187344)
(0 0 0.0185761)
(0 0 0.0184156)
(0 0 0.0182529)
(0 0 0.018088)
(0 0 0.0179212)
(0 0 0.0177524)
(0 0 0.0175817)
(0 0 0.0174092)
(0 0 0.017235)
(0 0 0.0170591)
(0 0 0.0168816)
(0 0 0.0167026)
(0 0 0.0165222)
(0 0 0.0163403)
(0 0 0.0161571)
(0 0 0.0159727)
(0 0 0.015787)
(0 0 0.0156002)
(0 0 0.0154123)
(0 0 0.0152234)
(0 0 0.0150335)
(0 0 0.0148427)
(0 0 0.014651)
(0 0 0.0144584)
(0 0 0.0142651)
(0 0 0.0140711)
(0 0 0.0138763)
(0 0 0.0136809)
(0 0 0.013485)
(0 0 0.0132884)
(0 0 0.0130913)
(0 0 0.0128938)
(0 0 0.0126958)
(0 0 0.0124973)
(0 0 0.0122985)
(0 0 0.0120994)
(0 0 0.0118999)
(0 0 0.0117001)
(0 0 0.0115001)
(0 0 0.0112998)
(0 0 0.0110994)
(0 0 0.0108987)
(0 0 0.0106979)
(0 0 0.0104969)
(0 0 0.0102959)
(0 0 0.0100947)