/*--------------------------------*- C++ -*----------------------------------*\
| =========                 |                                                 |
| \\      /  F ield         | OpenFOAM: The Open Source CFD Toolbox           |
|  \\    /   O peration     | Version:  v2012                                 |
|   \\  /    A nd           | Website:  www.openfoam.com                      |
|    \\/     M anipulation  |                                                 |
\*---------------------------------------------------------------------------*/
FoamFile
{
    version     2.0;
    format      ascii;
    class       volVectorField;
    location    "10.5";
    object      U;
}
// * * * * * * * * * * * * * * * * * * * * * * * * * * * * * * * * * * * * * //

dimensions      [0 1 -1 0 0 0 0];


internalField   nonuniform List<vector> 
65536
(
(0.000748306 -0.000748332 0)
(0.00224497 -0.000748347 0)
(0.00374168 -0.000748402 0)
(0.0052385 -0.000748474 0)
(0.0067355 -0.000748568 0)
(0.00823271 -0.000748684 0)
(0.00973017 -0.000748821 0)
(0.0112279 -0.000748979 0)
(0.012726 -0.000749155 0)
(0.0142245 -0.000749349 0)
(0.0157233 -0.000749559 0)
(0.0172226 -0.000749785 0)
(0.0187224 -0.000750023 0)
(0.0202227 -0.000750273 0)
(0.0217234 -0.000750532 0)
(0.0232247 -0.000750797 0)
(0.0247266 -0.000751067 0)
(0.026229 -0.000751339 0)
(0.0277319 -0.00075161 0)
(0.0292354 -0.000751877 0)
(0.0307394 -0.000752137 0)
(0.0322439 -0.000752388 0)
(0.0337489 -0.000752624 0)
(0.0352543 -0.000752844 0)
(0.0367602 -0.000753043 0)
(0.0382665 -0.000753217 0)
(0.0397731 -0.000753362 0)
(0.0412799 -0.000753475 0)
(0.042787 -0.00075355 0)
(0.0442941 -0.000753583 0)
(0.0458013 -0.000753569 0)
(0.0473084 -0.000753504 0)
(0.0488153 -0.000753382 0)
(0.0503219 -0.000753198 0)
(0.0518281 -0.000752947 0)
(0.0533337 -0.000752624 0)
(0.0548387 -0.000752222 0)
(0.0563427 -0.000751737 0)
(0.0578456 -0.000751161 0)
(0.0593474 -0.000750489 0)
(0.0608477 -0.000749715 0)
(0.0623463 -0.000748833 0)
(0.0638431 -0.000747837 0)
(0.0653377 -0.000746718 0)
(0.06683 -0.000745473 0)
(0.0683197 -0.000744092 0)
(0.0698065 -0.000742571 0)
(0.0712901 -0.000740902 0)
(0.0727702 -0.000739077 0)
(0.0742465 -0.000737092 0)
(0.0757187 -0.000734937 0)
(0.0771864 -0.000732607 0)
(0.0786492 -0.000730095 0)
(0.0801069 -0.000727394 0)
(0.081559 -0.000724496 0)
(0.083005 -0.000721395 0)
(0.0844447 -0.000718084 0)
(0.0858775 -0.000714557 0)
(0.0873031 -0.000710807 0)
(0.0887209 -0.000706827 0)
(0.0901306 -0.000702611 0)
(0.0915316 -0.000698153 0)
(0.0929234 -0.000693447 0)
(0.0943056 -0.000688487 0)
(0.0956776 -0.000683268 0)
(0.0970389 -0.000677783 0)
(0.0983889 -0.000672029 0)
(0.0997272 -0.000666 0)
(0.101053 -0.000659691 0)
(0.102366 -0.000653099 0)
(0.103666 -0.000646219 0)
(0.104951 -0.000639048 0)
(0.106222 -0.000631583 0)
(0.107478 -0.000623821 0)
(0.108718 -0.00061576 0)
(0.109941 -0.000607397 0)
(0.111148 -0.000598732 0)
(0.112336 -0.000589764 0)
(0.113507 -0.000580491 0)
(0.114659 -0.000570914 0)
(0.115791 -0.000561033 0)
(0.116903 -0.00055085 0)
(0.117994 -0.000540366 0)
(0.119065 -0.000529583 0)
(0.120113 -0.000518503 0)
(0.121139 -0.000507131 0)
(0.122142 -0.000495468 0)
(0.123121 -0.000483521 0)
(0.124076 -0.000471293 0)
(0.125006 -0.000458791 0)
(0.125912 -0.00044602 0)
(0.126791 -0.000432986 0)
(0.127644 -0.000419696 0)
(0.12847 -0.000406159 0)
(0.129269 -0.000392381 0)
(0.130039 -0.000378373 0)
(0.130782 -0.000364142 0)
(0.131496 -0.000349698 0)
(0.132181 -0.000335052 0)
(0.132837 -0.000320212 0)
(0.133462 -0.000305192 0)
(0.134057 -0.00029 0)
(0.134622 -0.000274649 0)
(0.135156 -0.000259151 0)
(0.135659 -0.000243518 0)
(0.13613 -0.000227762 0)
(0.13657 -0.000211895 0)
(0.136978 -0.000195932 0)
(0.137354 -0.000179883 0)
(0.137698 -0.000163764 0)
(0.138009 -0.000147586 0)
(0.138288 -0.000131363 0)
(0.138534 -0.000115109 0)
(0.138748 -9.88371e-05 0)
(0.13893 -8.25601e-05 0)
(0.139078 -6.62916e-05 0)
(0.139195 -5.00447e-05 0)
(0.139279 -3.38325e-05 0)
(0.13933 -1.76679e-05 0)
(0.139349 -1.56314e-06 0)
(0.139336 1.44681e-05 0)
(0.139291 3.04144e-05 0)
(0.139214 4.62639e-05 0)
(0.139106 6.20046e-05 0)
(0.138966 7.76253e-05 0)
(0.138795 9.31148e-05 0)
(0.138594 0.000108463 0)
(0.138361 0.000123658 0)
(0.138099 0.000138692 0)
(0.137806 0.000153554 0)
(0.137484 0.000168235 0)
(0.137133 0.000182727 0)
(0.136753 0.000197021 0)
(0.136345 0.00021111 0)
(0.135908 0.000224986 0)
(0.135444 0.000238643 0)
(0.134954 0.000252074 0)
(0.134436 0.000265273 0)
(0.133892 0.000278234 0)
(0.133323 0.000290954 0)
(0.132728 0.000303426 0)
(0.132109 0.000315648 0)
(0.131465 0.000327615 0)
(0.130798 0.000339325 0)
(0.130107 0.000350774 0)
(0.129394 0.000361961 0)
(0.128659 0.000372884 0)
(0.127903 0.00038354 0)
(0.127125 0.00039393 0)
(0.126327 0.000404052 0)
(0.125508 0.000413907 0)
(0.124671 0.000423494 0)
(0.123814 0.000432813 0)
(0.122939 0.000441867 0)
(0.122046 0.000450655 0)
(0.121136 0.00045918 0)
(0.120209 0.000467443 0)
(0.119266 0.000475445 0)
(0.118307 0.00048319 0)
(0.117333 0.00049068 0)
(0.116344 0.000497918 0)
(0.115341 0.000504907 0)
(0.114324 0.000511649 0)
(0.113294 0.000518149 0)
(0.112251 0.00052441 0)
(0.111196 0.000530436 0)
(0.110129 0.00053623 0)
(0.109051 0.000541797 0)
(0.107962 0.000547141 0)
(0.106862 0.000552266 0)
(0.105752 0.000557177 0)
(0.104633 0.000561878 0)
(0.103505 0.000566374 0)
(0.102367 0.000570669 0)
(0.101222 0.000574767 0)
(0.100068 0.000578675 0)
(0.0989067 0.000582396 0)
(0.0977382 0.000585935 0)
(0.0965627 0.000589297 0)
(0.0953807 0.000592488 0)
(0.0941926 0.000595511 0)
(0.0929985 0.000598371 0)
(0.0917989 0.000601075 0)
(0.090594 0.000603625 0)
(0.0893842 0.000606027 0)
(0.0881697 0.000608287 0)
(0.0869508 0.000610407 0)
(0.0857279 0.000612394 0)
(0.0845011 0.000614251 0)
(0.0832707 0.000615984 0)
(0.082037 0.000617596 0)
(0.0808001 0.000619093 0)
(0.0795604 0.000620478 0)
(0.0783181 0.000621756 0)
(0.0770732 0.000622932 0)
(0.0758262 0.000624009 0)
(0.0745771 0.000624991 0)
(0.0733261 0.000625884 0)
(0.0720734 0.00062669 0)
(0.0708192 0.000627413 0)
(0.0695636 0.000628058 0)
(0.0683068 0.000628628 0)
(0.067049 0.000629127 0)
(0.0657902 0.000629558 0)
(0.0645306 0.000629925 0)
(0.0632704 0.000630232 0)
(0.0620096 0.000630481 0)
(0.0607484 0.000630676 0)
(0.0594868 0.000630821 0)
(0.058225 0.000630917 0)
(0.056963 0.000630969 0)
(0.055701 0.00063098 0)
(0.054439 0.000630951 0)
(0.0531771 0.000630886 0)
(0.0519154 0.000630788 0)
(0.0506539 0.000630659 0)
(0.0493927 0.000630502 0)
(0.0481318 0.000630319 0)
(0.0468714 0.000630113 0)
(0.0456113 0.000629885 0)
(0.0443518 0.000629639 0)
(0.0430927 0.000629376 0)
(0.0418342 0.000629099 0)
(0.0405763 0.000628808 0)
(0.0393189 0.000628508 0)
(0.0380622 0.000628198 0)
(0.0368061 0.000627881 0)
(0.0355506 0.00062756 0)
(0.0342958 0.000627234 0)
(0.0330416 0.000626907 0)
(0.0317881 0.000626579 0)
(0.0305353 0.000626253 0)
(0.0292831 0.000625928 0)
(0.0280315 0.000625608 0)
(0.0267806 0.000625292 0)
(0.0255303 0.000624983 0)
(0.0242806 0.000624681 0)
(0.0230316 0.000624388 0)
(0.0217831 0.000624104 0)
(0.0205351 0.000623831 0)
(0.0192877 0.000623569 0)
(0.0180408 0.00062332 0)
(0.0167944 0.000623083 0)
(0.0155484 0.000622861 0)
(0.0143029 0.000622653 0)
(0.0130578 0.00062246 0)
(0.0118131 0.000622282 0)
(0.0105687 0.000622122 0)
(0.00932456 0.000621977 0)
(0.00808073 0.00062185 0)
(0.00683714 0.000621741 0)
(0.00559374 0.000621649 0)
(0.00435052 0.000621576 0)
(0.00310742 0.00062152 0)
(0.00186442 0.000621483 0)
(0.000621472 0.000621464 0)
(0.00074829 -0.00224494 0)
(0.0022449 -0.00224501 0)
(0.00374157 -0.00224516 0)
(0.00523835 -0.00224537 0)
(0.0067353 -0.00224566 0)
(0.00823247 -0.002246 0)
(0.00972989 -0.00224642 0)
(0.0112276 -0.00224689 0)
(0.0127257 -0.00224742 0)
(0.0142241 -0.002248 0)
(0.0157229 -0.00224864 0)
(0.0172222 -0.00224931 0)
(0.0187219 -0.00225003 0)
(0.0202222 -0.00225078 0)
(0.0217229 -0.00225156 0)
(0.0232242 -0.00225236 0)
(0.0247261 -0.00225317 0)
(0.0262284 -0.00225399 0)
(0.0277314 -0.00225481 0)
(0.0292349 -0.00225561 0)
(0.0307389 -0.0022564 0)
(0.0322434 -0.00225715 0)
(0.0337484 -0.00225787 0)
(0.0352539 -0.00225853 0)
(0.0367599 -0.00225913 0)
(0.0382662 -0.00225966 0)
(0.0397728 -0.0022601 0)
(0.0412798 -0.00226044 0)
(0.0427869 -0.00226067 0)
(0.0442941 -0.00226077 0)
(0.0458014 -0.00226073 0)
(0.0473086 -0.00226054 0)
(0.0488156 -0.00226018 0)
(0.0503224 -0.00225964 0)
(0.0518287 -0.00225889 0)
(0.0533345 -0.00225793 0)
(0.0548396 -0.00225673 0)
(0.0563438 -0.00225528 0)
(0.0578469 -0.00225356 0)
(0.0593488 -0.00225155 0)
(0.0608493 -0.00224923 0)
(0.0623482 -0.00224659 0)
(0.0638452 -0.00224361 0)
(0.0653401 -0.00224026 0)
(0.0668327 -0.00223653 0)
(0.0683226 -0.0022324 0)
(0.0698097 -0.00222784 0)
(0.0712936 -0.00222284 0)
(0.072774 -0.00221737 0)
(0.0742507 -0.00221142 0)
(0.0757232 -0.00220497 0)
(0.0771913 -0.00219798 0)
(0.0786545 -0.00219045 0)
(0.0801125 -0.00218235 0)
(0.081565 -0.00217367 0)
(0.0830115 -0.00216437 0)
(0.0844516 -0.00215445 0)
(0.0858849 -0.00214387 0)
(0.0873109 -0.00213263 0)
(0.0887292 -0.0021207 0)
(0.0901393 -0.00210805 0)
(0.0915408 -0.00209469 0)
(0.0929331 -0.00208057 0)
(0.0943158 -0.0020657 0)
(0.0956883 -0.00205005 0)
(0.0970502 -0.0020336 0)
(0.0984008 -0.00201634 0)
(0.0997396 -0.00199826 0)
(0.101066 -0.00197933 0)
(0.10238 -0.00195956 0)
(0.10368 -0.00193892 0)
(0.104966 -0.00191742 0)
(0.106238 -0.00189502 0)
(0.107494 -0.00187174 0)
(0.108734 -0.00184756 0)
(0.109958 -0.00182247 0)
(0.111165 -0.00179648 0)
(0.112355 -0.00176957 0)
(0.113526 -0.00174175 0)
(0.114678 -0.00171302 0)
(0.115811 -0.00168338 0)
(0.116924 -0.00165283 0)
(0.118016 -0.00162137 0)
(0.119087 -0.00158902 0)
(0.120136 -0.00155578 0)
(0.121162 -0.00152165 0)
(0.122166 -0.00148666 0)
(0.123145 -0.00145082 0)
(0.124101 -0.00141413 0)
(0.125032 -0.00137661 0)
(0.125937 -0.00133829 0)
(0.126817 -0.00129918 0)
(0.127671 -0.00125931 0)
(0.128497 -0.00121869 0)
(0.129296 -0.00117735 0)
(0.130068 -0.00113531 0)
(0.130811 -0.00109261 0)
(0.131525 -0.00104927 0)
(0.132211 -0.00100532 0)
(0.132867 -0.000960788 0)
(0.133492 -0.000915714 0)
(0.134088 -0.000870127 0)
(0.134653 -0.000824063 0)
(0.135187 -0.000777557 0)
(0.13569 -0.000730644 0)
(0.136162 -0.000683363 0)
(0.136602 -0.00063575 0)
(0.13701 -0.000587846 0)
(0.137386 -0.000539687 0)
(0.13773 -0.000491315 0)
(0.138041 -0.000442768 0)
(0.13832 -0.000394087 0)
(0.138567 -0.000345311 0)
(0.138781 -0.000296481 0)
(0.138962 -0.000247637 0)
(0.139111 -0.000198818 0)
(0.139227 -0.000150064 0)
(0.139311 -0.000101414 0)
(0.139362 -5.29075e-05 0)
(0.139381 -4.58134e-06 0)
(0.139368 4.35252e-05 0)
(0.139323 9.13765e-05 0)
(0.139246 0.000138937 0)
(0.139137 0.000186171 0)
(0.138997 0.000233044 0)
(0.138826 0.000279523 0)
(0.138624 0.000325577 0)
(0.138392 0.000371174 0)
(0.138129 0.000416284 0)
(0.137836 0.000460879 0)
(0.137513 0.000504931 0)
(0.137162 0.000548415 0)
(0.136782 0.000591306 0)
(0.136373 0.00063358 0)
(0.135936 0.000675216 0)
(0.135472 0.000716192 0)
(0.13498 0.00075649 0)
(0.134462 0.000796092 0)
(0.133918 0.000834982 0)
(0.133348 0.000873145 0)
(0.132753 0.000910566 0)
(0.132133 0.000947235 0)
(0.131489 0.00098314 0)
(0.130821 0.00101827 0)
(0.13013 0.00105262 0)
(0.129417 0.00108618 0)
(0.128681 0.00111895 0)
(0.127924 0.00115092 0)
(0.127145 0.00118209 0)
(0.126347 0.00121246 0)
(0.125528 0.00124202 0)
(0.12469 0.00127078 0)
(0.123832 0.00129874 0)
(0.122957 0.0013259 0)
(0.122064 0.00135226 0)
(0.121153 0.00137783 0)
(0.120226 0.00140262 0)
(0.119282 0.00142663 0)
(0.118322 0.00144986 0)
(0.117348 0.00147233 0)
(0.116358 0.00149404 0)
(0.115355 0.001515 0)
(0.114337 0.00153522 0)
(0.113307 0.00155472 0)
(0.112264 0.0015735 0)
(0.111208 0.00159157 0)
(0.110141 0.00160895 0)
(0.109062 0.00162565 0)
(0.107972 0.00164167 0)
(0.106872 0.00165704 0)
(0.105762 0.00167177 0)
(0.104642 0.00168587 0)
(0.103513 0.00169935 0)
(0.102376 0.00171223 0)
(0.10123 0.00172452 0)
(0.100076 0.00173624 0)
(0.0989141 0.0017474 0)
(0.0977452 0.00175801 0)
(0.0965694 0.00176809 0)
(0.095387 0.00177766 0)
(0.0941985 0.00178672 0)
(0.0930041 0.0017953 0)
(0.0918042 0.0018034 0)
(0.090599 0.00181105 0)
(0.0893889 0.00181825 0)
(0.0881741 0.00182502 0)
(0.086955 0.00183138 0)
(0.0857318 0.00183734 0)
(0.0845047 0.0018429 0)
(0.0832741 0.0018481 0)
(0.0820401 0.00185293 0)
(0.0808031 0.00185741 0)
(0.0795632 0.00186157 0)
(0.0783206 0.0018654 0)
(0.0770756 0.00186892 0)
(0.0758283 0.00187215 0)
(0.074579 0.00187509 0)
(0.0733278 0.00187776 0)
(0.072075 0.00188018 0)
(0.0708206 0.00188234 0)
(0.0695649 0.00188427 0)
(0.068308 0.00188598 0)
(0.06705 0.00188747 0)
(0.0657911 0.00188876 0)
(0.0645314 0.00188986 0)
(0.063271 0.00189078 0)
(0.0620101 0.00189152 0)
(0.0607488 0.0018921 0)
(0.0594871 0.00189253 0)
(0.0582252 0.00189282 0)
(0.0569632 0.00189297 0)
(0.0557011 0.001893 0)
(0.054439 0.00189291 0)
(0.053177 0.00189271 0)
(0.0519152 0.00189242 0)
(0.0506537 0.00189203 0)
(0.0493924 0.00189155 0)
(0.0481315 0.001891 0)
(0.046871 0.00189038 0)
(0.0456109 0.0018897 0)
(0.0443513 0.00188896 0)
(0.0430922 0.00188816 0)
(0.0418337 0.00188733 0)
(0.0405757 0.00188646 0)
(0.0393183 0.00188555 0)
(0.0380616 0.00188462 0)
(0.0368055 0.00188367 0)
(0.03555 0.0018827 0)
(0.0342952 0.00188173 0)
(0.033041 0.00188074 0)
(0.0317875 0.00187976 0)
(0.0305347 0.00187878 0)
(0.0292825 0.0018778 0)
(0.0280309 0.00187684 0)
(0.02678 0.00187589 0)
(0.0255297 0.00187496 0)
(0.0242801 0.00187406 0)
(0.023031 0.00187317 0)
(0.0217825 0.00187232 0)
(0.0205346 0.0018715 0)
(0.0192872 0.00187071 0)
(0.0180403 0.00186997 0)
(0.016794 0.00186926 0)
(0.015548 0.00186859 0)
(0.0143025 0.00186796 0)
(0.0130575 0.00186738 0)
(0.0118127 0.00186685 0)
(0.0105684 0.00186637 0)
(0.0093243 0.00186593 0)
(0.0080805 0.00186555 0)
(0.00683694 0.00186522 0)
(0.00559358 0.00186495 0)
(0.00435039 0.00186473 0)
(0.00310733 0.00186456 0)
(0.00186437 0.00186445 0)
(0.000621454 0.00186439 0)
(0.000748236 -0.00374149 0)
(0.00224475 -0.00374161 0)
(0.00374133 -0.00374185 0)
(0.00523803 -0.0037422 0)
(0.0067349 -0.00374267 0)
(0.00823198 -0.00374325 0)
(0.00972932 -0.00374394 0)
(0.011227 -0.00374473 0)
(0.0127249 -0.00374562 0)
(0.0142233 -0.0037466 0)
(0.0157221 -0.00374766 0)
(0.0172213 -0.00374879 0)
(0.018721 -0.00375 0)
(0.0202212 -0.00375125 0)
(0.0217219 -0.00375256 0)
(0.0232232 -0.0037539 0)
(0.024725 -0.00375526 0)
(0.0262274 -0.00375664 0)
(0.0277303 -0.003758 0)
(0.0292338 -0.00375936 0)
(0.0307379 -0.00376067 0)
(0.0322425 -0.00376194 0)
(0.0337476 -0.00376314 0)
(0.0352531 -0.00376426 0)
(0.0367592 -0.00376528 0)
(0.0382656 -0.00376617 0)
(0.0397724 -0.00376692 0)
(0.0412794 -0.0037675 0)
(0.0427867 -0.0037679 0)
(0.0442941 -0.00376809 0)
(0.0458016 -0.00376804 0)
(0.047309 -0.00376774 0)
(0.0488163 -0.00376716 0)
(0.0503233 -0.00376627 0)
(0.0518299 -0.00376504 0)
(0.053336 -0.00376345 0)
(0.0548414 -0.00376147 0)
(0.0563459 -0.00375907 0)
(0.0578495 -0.00375623 0)
(0.0593518 -0.0037529 0)
(0.0608527 -0.00374906 0)
(0.062352 -0.00374468 0)
(0.0638495 -0.00373973 0)
(0.0653449 -0.00373417 0)
(0.066838 -0.00372798 0)
(0.0683285 -0.00372111 0)
(0.0698161 -0.00371354 0)
(0.0713007 -0.00370523 0)
(0.0727817 -0.00369614 0)
(0.074259 -0.00368625 0)
(0.0757322 -0.00367551 0)
(0.077201 -0.00366389 0)
(0.078665 -0.00365137 0)
(0.0801238 -0.00363789 0)
(0.0815771 -0.00362344 0)
(0.0830244 -0.00360797 0)
(0.0844653 -0.00359145 0)
(0.0858995 -0.00357385 0)
(0.0873264 -0.00355513 0)
(0.0887457 -0.00353526 0)
(0.0901568 -0.00351421 0)
(0.0915592 -0.00349195 0)
(0.0929525 -0.00346845 0)
(0.0943363 -0.00344368 0)
(0.0957098 -0.00341761 0)
(0.0970727 -0.00339021 0)
(0.0984244 -0.00336146 0)
(0.0997644 -0.00333134 0)
(0.101092 -0.00329982 0)
(0.102407 -0.00326687 0)
(0.103708 -0.00323249 0)
(0.104995 -0.00319665 0)
(0.106268 -0.00315934 0)
(0.107526 -0.00312054 0)
(0.108767 -0.00308025 0)
(0.109992 -0.00303844 0)
(0.111201 -0.00299512 0)
(0.112391 -0.00295028 0)
(0.113564 -0.00290391 0)
(0.114717 -0.00285603 0)
(0.115851 -0.00280662 0)
(0.116965 -0.00275569 0)
(0.118058 -0.00270326 0)
(0.119131 -0.00264933 0)
(0.120181 -0.00259392 0)
(0.121208 -0.00253703 0)
(0.122213 -0.0024787 0)
(0.123194 -0.00241894 0)
(0.124151 -0.00235777 0)
(0.125083 -0.00229523 0)
(0.125989 -0.00223134 0)
(0.12687 -0.00216613 0)
(0.127724 -0.00209965 0)
(0.128552 -0.00203192 0)
(0.129352 -0.00196299 0)
(0.130124 -0.0018929 0)
(0.130868 -0.0018217 0)
(0.131584 -0.00174943 0)
(0.13227 -0.00167614 0)
(0.132926 -0.00160189 0)
(0.133553 -0.00152673 0)
(0.134149 -0.00145072 0)
(0.134715 -0.0013739 0)
(0.13525 -0.00129635 0)
(0.135753 -0.00121812 0)
(0.136225 -0.00113928 0)
(0.136666 -0.00105988 0)
(0.137074 -0.000979996 0)
(0.137451 -0.000899688 0)
(0.137795 -0.000819023 0)
(0.138106 -0.000738067 0)
(0.138386 -0.000656887 0)
(0.138632 -0.000575549 0)
(0.138846 -0.000494121 0)
(0.139028 -0.000412669 0)
(0.139176 -0.000331261 0)
(0.139292 -0.000249961 0)
(0.139376 -0.000168835 0)
(0.139427 -8.7948e-05 0)
(0.139446 -7.36325e-06 0)
(0.139432 7.28558e-05 0)
(0.139387 0.000152648 0)
(0.139309 0.000231955 0)
(0.1392 0.000310716 0)
(0.13906 0.000388875 0)
(0.138888 0.000466376 0)
(0.138685 0.000543167 0)
(0.138452 0.000619195 0)
(0.138189 0.00069441 0)
(0.137895 0.000768766 0)
(0.137572 0.000842216 0)
(0.13722 0.000914716 0)
(0.136839 0.000986227 0)
(0.136429 0.00105671 0)
(0.135991 0.00112612 0)
(0.135526 0.00119444 0)
(0.135034 0.00126162 0)
(0.134515 0.00132764 0)
(0.133969 0.00139248 0)
(0.133399 0.0014561 0)
(0.132802 0.00151848 0)
(0.132182 0.0015796 0)
(0.131536 0.00163946 0)
(0.130868 0.00169802 0)
(0.130176 0.00175528 0)
(0.129461 0.00181122 0)
(0.128724 0.00186584 0)
(0.127966 0.00191912 0)
(0.127187 0.00197108 0)
(0.126387 0.00202169 0)
(0.125567 0.00207096 0)
(0.124728 0.00211889 0)
(0.123869 0.00216549 0)
(0.122993 0.00221075 0)
(0.122098 0.00225468 0)
(0.121187 0.00229729 0)
(0.120258 0.0023386 0)
(0.119313 0.0023786 0)
(0.118353 0.00241731 0)
(0.117377 0.00245475 0)
(0.116387 0.00249092 0)
(0.115382 0.00252585 0)
(0.114364 0.00255954 0)
(0.113333 0.00259202 0)
(0.112288 0.00262331 0)
(0.111232 0.00265341 0)
(0.110164 0.00268237 0)
(0.109084 0.00271018 0)
(0.107993 0.00273688 0)
(0.106892 0.00276248 0)
(0.105781 0.00278701 0)
(0.104661 0.00281049 0)
(0.103531 0.00283295 0)
(0.102393 0.0028544 0)
(0.101246 0.00287487 0)
(0.100091 0.00289438 0)
(0.0989287 0.00291296 0)
(0.0977591 0.00293063 0)
(0.0965826 0.00294742 0)
(0.0953996 0.00296335 0)
(0.0942105 0.00297844 0)
(0.0930154 0.00299271 0)
(0.0918149 0.00300621 0)
(0.0906091 0.00301893 0)
(0.0893984 0.00303092 0)
(0.0881831 0.00304219 0)
(0.0869634 0.00305277 0)
(0.0857396 0.00306268 0)
(0.0845121 0.00307194 0)
(0.0832809 0.00308058 0)
(0.0820465 0.00308862 0)
(0.080809 0.00309608 0)
(0.0795686 0.00310299 0)
(0.0783256 0.00310936 0)
(0.0770802 0.00311521 0)
(0.0758326 0.00312058 0)
(0.0745829 0.00312547 0)
(0.0733314 0.00312991 0)
(0.0720782 0.00313392 0)
(0.0708235 0.00313752 0)
(0.0695675 0.00314072 0)
(0.0683102 0.00314356 0)
(0.067052 0.00314603 0)
(0.0657928 0.00314817 0)
(0.0645329 0.00314999 0)
(0.0632723 0.0031515 0)
(0.0620111 0.00315273 0)
(0.0607496 0.00315369 0)
(0.0594877 0.0031544 0)
(0.0582256 0.00315487 0)
(0.0569634 0.00315511 0)
(0.0557012 0.00315515 0)
(0.0544389 0.00315499 0)
(0.0531768 0.00315465 0)
(0.0519149 0.00315415 0)
(0.0506532 0.00315349 0)
(0.0493918 0.0031527 0)
(0.0481308 0.00315177 0)
(0.0468702 0.00315073 0)
(0.0456101 0.00314958 0)
(0.0443504 0.00314833 0)
(0.0430912 0.00314701 0)
(0.0418326 0.00314561 0)
(0.0405746 0.00314415 0)
(0.0393172 0.00314264 0)
(0.0380604 0.00314108 0)
(0.0368043 0.00313949 0)
(0.0355488 0.00313787 0)
(0.0342939 0.00313623 0)
(0.0330398 0.00313459 0)
(0.0317863 0.00313294 0)
(0.0305334 0.0031313 0)
(0.0292812 0.00312968 0)
(0.0280297 0.00312807 0)
(0.0267788 0.00312648 0)
(0.0255286 0.00312493 0)
(0.0242789 0.00312342 0)
(0.0230299 0.00312194 0)
(0.0217815 0.00312052 0)
(0.0205336 0.00311915 0)
(0.0192862 0.00311784 0)
(0.0180394 0.00311658 0)
(0.0167931 0.0031154 0)
(0.0155472 0.00311428 0)
(0.0143018 0.00311324 0)
(0.0130567 0.00311227 0)
(0.0118121 0.00311138 0)
(0.0105678 0.00311058 0)
(0.00932377 0.00310985 0)
(0.00808004 0.00310922 0)
(0.00683655 0.00310867 0)
(0.00559326 0.00310821 0)
(0.00435014 0.00310784 0)
(0.00310715 0.00310756 0)
(0.00186426 0.00310737 0)
(0.000621418 0.00310728 0)
(0.000748164 -0.00523794 0)
(0.00224454 -0.0052381 0)
(0.00374099 -0.00523843 0)
(0.00523755 -0.00523893 0)
(0.00673428 -0.00523959 0)
(0.00823123 -0.00524041 0)
(0.00972845 -0.00524138 0)
(0.011226 -0.00524249 0)
(0.0127238 -0.00524374 0)
(0.0142221 -0.00524512 0)
(0.0157208 -0.00524662 0)
(0.0172199 -0.00524822 0)
(0.0187195 -0.00524992 0)
(0.0202197 -0.00525169 0)
(0.0217204 -0.00525354 0)
(0.0232216 -0.00525543 0)
(0.0247234 -0.00525736 0)
(0.0262258 -0.0052593 0)
(0.0277287 -0.00526124 0)
(0.0292323 -0.00526315 0)
(0.0307364 -0.00526502 0)
(0.032241 -0.00526682 0)
(0.0337462 -0.00526852 0)
(0.0352519 -0.00527012 0)
(0.0367581 -0.00527156 0)
(0.0382647 -0.00527284 0)
(0.0397716 -0.00527392 0)
(0.0412789 -0.00527477 0)
(0.0427864 -0.00527535 0)
(0.0442941 -0.00527565 0)
(0.0458019 -0.00527562 0)
(0.0473096 -0.00527524 0)
(0.0488173 -0.00527446 0)
(0.0503247 -0.00527325 0)
(0.0518317 -0.00527157 0)
(0.0533382 -0.00526938 0)
(0.0548441 -0.00526665 0)
(0.0563492 -0.00526334 0)
(0.0578532 -0.00525939 0)
(0.0593562 -0.00525478 0)
(0.0608577 -0.00524945 0)
(0.0623577 -0.00524336 0)
(0.0638559 -0.00523648 0)
(0.065352 -0.00522874 0)
(0.0668459 -0.00522011 0)
(0.0683372 -0.00521055 0)
(0.0698258 -0.00519999 0)
(0.0713112 -0.0051884 0)
(0.0727932 -0.00517573 0)
(0.0742715 -0.00516193 0)
(0.0757457 -0.00514694 0)
(0.0772156 -0.00513073 0)
(0.0786807 -0.00511324 0)
(0.0801407 -0.00509443 0)
(0.0815951 -0.00507424 0)
(0.0830437 -0.00505263 0)
(0.0844859 -0.00502955 0)
(0.0859214 -0.00500495 0)
(0.0873497 -0.00497879 0)
(0.0887703 -0.00495102 0)
(0.0901829 -0.0049216 0)
(0.0915868 -0.00489047 0)
(0.0929816 -0.00485761 0)
(0.0943669 -0.00482297 0)
(0.0957421 -0.00478651 0)
(0.0971066 -0.00474819 0)
(0.0984599 -0.00470798 0)
(0.0998015 -0.00466584 0)
(0.101131 -0.00462173 0)
(0.102447 -0.00457564 0)
(0.10375 -0.00452753 0)
(0.105039 -0.00447738 0)
(0.106314 -0.00442516 0)
(0.107573 -0.00437086 0)
(0.108817 -0.00431446 0)
(0.110044 -0.00425594 0)
(0.111254 -0.0041953 0)
(0.112446 -0.00413252 0)
(0.11362 -0.00406761 0)
(0.114776 -0.00400057 0)
(0.115912 -0.00393139 0)
(0.117027 -0.00386008 0)
(0.118123 -0.00378666 0)
(0.119196 -0.00371114 0)
(0.120248 -0.00363354 0)
(0.121278 -0.00355388 0)
(0.122284 -0.00347218 0)
(0.123267 -0.00338848 0)
(0.124225 -0.00330281 0)
(0.125159 -0.00321521 0)
(0.126067 -0.00312572 0)
(0.126949 -0.00303438 0)
(0.127805 -0.00294125 0)
(0.128634 -0.00284637 0)
(0.129436 -0.00274981 0)
(0.130209 -0.00265162 0)
(0.130955 -0.00255187 0)
(0.131671 -0.00245063 0)
(0.132359 -0.00234795 0)
(0.133016 -0.00224393 0)
(0.133644 -0.00213862 0)
(0.134241 -0.00203212 0)
(0.134808 -0.0019245 0)
(0.135344 -0.00181584 0)
(0.135848 -0.00170623 0)
(0.136321 -0.00159576 0)
(0.136762 -0.00148452 0)
(0.137171 -0.00137259 0)
(0.137547 -0.00126007 0)
(0.137892 -0.00114704 0)
(0.138204 -0.00103361 0)
(0.138483 -0.000919864 0)
(0.13873 -0.000805898 0)
(0.138944 -0.000691805 0)
(0.139126 -0.00057768 0)
(0.139274 -0.000463616 0)
(0.13939 -0.000349704 0)
(0.139473 -0.000236038 0)
(0.139524 -0.000122708 0)
(0.139543 -9.8025e-06 0)
(0.139529 0.000102591 0)
(0.139483 0.000214385 0)
(0.139405 0.000325496 0)
(0.139295 0.000435842 0)
(0.139153 0.000545342 0)
(0.138981 0.000653919 0)
(0.138777 0.000761498 0)
(0.138543 0.000868007 0)
(0.138279 0.000973375 0)
(0.137984 0.00107754 0)
(0.13766 0.00118043 0)
(0.137306 0.00128199 0)
(0.136924 0.00138215 0)
(0.136513 0.00148088 0)
(0.136074 0.00157811 0)
(0.135608 0.0016738 0)
(0.135114 0.00176789 0)
(0.134593 0.00186036 0)
(0.134047 0.00195116 0)
(0.133474 0.00204026 0)
(0.132877 0.00212763 0)
(0.132254 0.00221323 0)
(0.131608 0.00229704 0)
(0.130937 0.00237905 0)
(0.130244 0.00245922 0)
(0.129528 0.00253756 0)
(0.128789 0.00261403 0)
(0.128029 0.00268864 0)
(0.127248 0.00276138 0)
(0.126447 0.00283224 0)
(0.125625 0.00290122 0)
(0.124785 0.00296832 0)
(0.123925 0.00303354 0)
(0.123047 0.0030969 0)
(0.122151 0.0031584 0)
(0.121237 0.00321805 0)
(0.120307 0.00327585 0)
(0.119361 0.00333184 0)
(0.118399 0.00338602 0)
(0.117422 0.00343841 0)
(0.11643 0.00348903 0)
(0.115424 0.00353791 0)
(0.114404 0.00358506 0)
(0.113371 0.0036305 0)
(0.112325 0.00367428 0)
(0.111268 0.0037164 0)
(0.110198 0.0037569 0)
(0.109117 0.00379581 0)
(0.108025 0.00383316 0)
(0.106923 0.00386897 0)
(0.105811 0.00390329 0)
(0.104689 0.00393613 0)
(0.103558 0.00396753 0)
(0.102418 0.00399753 0)
(0.10127 0.00402615 0)
(0.100114 0.00405344 0)
(0.0989507 0.00407942 0)
(0.09778 0.00410412 0)
(0.0966025 0.00412759 0)
(0.0954185 0.00414986 0)
(0.0942283 0.00417095 0)
(0.0930323 0.00419091 0)
(0.0918308 0.00420976 0)
(0.0906241 0.00422754 0)
(0.0894126 0.00424429 0)
(0.0881964 0.00426004 0)
(0.0869759 0.00427482 0)
(0.0857514 0.00428866 0)
(0.084523 0.0043016 0)
(0.0832912 0.00431366 0)
(0.082056 0.00432489 0)
(0.0808178 0.0043353 0)
(0.0795768 0.00434494 0)
(0.0783332 0.00435382 0)
(0.0770872 0.00436199 0)
(0.075839 0.00436947 0)
(0.0745887 0.00437629 0)
(0.0733367 0.00438248 0)
(0.072083 0.00438807 0)
(0.0708278 0.00439308 0)
(0.0695713 0.00439754 0)
(0.0683136 0.00440148 0)
(0.0670549 0.00440492 0)
(0.0657954 0.00440789 0)
(0.0645351 0.00441041 0)
(0.0632741 0.00441251 0)
(0.0620126 0.00441421 0)
(0.0607508 0.00441553 0)
(0.0594886 0.0044165 0)
(0.0582262 0.00441713 0)
(0.0569638 0.00441745 0)
(0.0557013 0.00441749 0)
(0.0544388 0.00441725 0)
(0.0531765 0.00441675 0)
(0.0519144 0.00441603 0)
(0.0506525 0.00441509 0)
(0.049391 0.00441396 0)
(0.0481298 0.00441264 0)
(0.0468691 0.00441117 0)
(0.0456088 0.00440954 0)
(0.044349 0.00440779 0)
(0.0430897 0.00440592 0)
(0.0418311 0.00440395 0)
(0.040573 0.00440189 0)
(0.0393155 0.00439976 0)
(0.0380587 0.00439756 0)
(0.0368025 0.00439532 0)
(0.0355469 0.00439305 0)
(0.0342921 0.00439075 0)
(0.0330379 0.00438843 0)
(0.0317844 0.00438612 0)
(0.0305316 0.00438381 0)
(0.0292794 0.00438152 0)
(0.0280279 0.00437926 0)
(0.026777 0.00437704 0)
(0.0255268 0.00437486 0)
(0.0242772 0.00437273 0)
(0.0230282 0.00437066 0)
(0.0217798 0.00436866 0)
(0.020532 0.00436673 0)
(0.0192848 0.00436489 0)
(0.018038 0.00436313 0)
(0.0167917 0.00436147 0)
(0.015546 0.0043599 0)
(0.0143006 0.00435843 0)
(0.0130557 0.00435707 0)
(0.0118111 0.00435583 0)
(0.0105669 0.00435469 0)
(0.00932299 0.00435368 0)
(0.00807936 0.00435278 0)
(0.00683597 0.00435201 0)
(0.00559278 0.00435137 0)
(0.00434977 0.00435085 0)
(0.00310688 0.00435046 0)
(0.0018641 0.0043502 0)
(0.000621364 0.00435007 0)
(0.000748069 -0.00673421 0)
(0.00224425 -0.00673442 0)
(0.00374052 -0.00673485 0)
(0.0052369 -0.0067355 0)
(0.00673345 -0.00673636 0)
(0.00823023 -0.00673742 0)
(0.00972728 -0.00673868 0)
(0.0112246 -0.00674012 0)
(0.0127224 -0.00674175 0)
(0.0142205 -0.00674354 0)
(0.015719 -0.00674548 0)
(0.0172181 -0.00674756 0)
(0.0187176 -0.00674976 0)
(0.0202177 -0.00675207 0)
(0.0217183 -0.00675447 0)
(0.0232195 -0.00675693 0)
(0.0247212 -0.00675944 0)
(0.0262236 -0.00676197 0)
(0.0277266 -0.00676449 0)
(0.0292302 -0.00676699 0)
(0.0307343 -0.00676943 0)
(0.0322391 -0.00677179 0)
(0.0337444 -0.00677403 0)
(0.0352502 -0.00677612 0)
(0.0367566 -0.00677802 0)
(0.0382634 -0.00677971 0)
(0.0397706 -0.00678115 0)
(0.0412781 -0.00678229 0)
(0.042786 -0.00678311 0)
(0.044294 -0.00678354 0)
(0.0458022 -0.00678357 0)
(0.0473104 -0.00678313 0)
(0.0488185 -0.00678219 0)
(0.0503264 -0.0067807 0)
(0.051834 -0.00677861 0)
(0.0533411 -0.00677587 0)
(0.0548476 -0.00677242 0)
(0.0563534 -0.00676823 0)
(0.0578582 -0.00676323 0)
(0.0593619 -0.00675737 0)
(0.0608643 -0.0067506 0)
(0.0623652 -0.00674285 0)
(0.0638643 -0.00673407 0)
(0.0653615 -0.00672421 0)
(0.0668564 -0.00671319 0)
(0.0683489 -0.00670097 0)
(0.0698385 -0.00668749 0)
(0.0713252 -0.00667267 0)
(0.0728085 -0.00665646 0)
(0.0742881 -0.00663879 0)
(0.0757637 -0.00661961 0)
(0.077235 -0.00659885 0)
(0.0787016 -0.00657645 0)
(0.0801631 -0.00655234 0)
(0.0816192 -0.00652647 0)
(0.0830694 -0.00649876 0)
(0.0845133 -0.00646917 0)
(0.0859506 -0.00643762 0)
(0.0873807 -0.00640406 0)
(0.0888032 -0.00636843 0)
(0.0902176 -0.00633068 0)
(0.0916235 -0.00629074 0)
(0.0930204 -0.00624856 0)
(0.0944077 -0.00620409 0)
(0.095785 -0.00615727 0)
(0.0971516 -0.00610807 0)
(0.0985071 -0.00605642 0)
(0.099851 -0.00600229 0)
(0.101183 -0.00594564 0)
(0.102501 -0.00588643 0)
(0.103807 -0.00582461 0)
(0.105098 -0.00576017 0)
(0.106375 -0.00569307 0)
(0.107637 -0.00562328 0)
(0.108883 -0.00555078 0)
(0.110112 -0.00547557 0)
(0.111325 -0.00539761 0)
(0.112519 -0.00531691 0)
(0.113696 -0.00523345 0)
(0.114854 -0.00514724 0)
(0.115992 -0.00505828 0)
(0.11711 -0.00496659 0)
(0.118208 -0.00487217 0)
(0.119284 -0.00477504 0)
(0.120338 -0.00467523 0)
(0.12137 -0.00457276 0)
(0.122379 -0.00446767 0)
(0.123364 -0.00436 0)
(0.124324 -0.00424978 0)
(0.12526 -0.00413708 0)
(0.126171 -0.00402194 0)
(0.127055 -0.00390442 0)
(0.127913 -0.00378459 0)
(0.128744 -0.00366251 0)
(0.129547 -0.00353826 0)
(0.130323 -0.00341191 0)
(0.13107 -0.00328354 0)
(0.131788 -0.00315325 0)
(0.132477 -0.00302112 0)
(0.133136 -0.00288724 0)
(0.133765 -0.00275172 0)
(0.134364 -0.00261464 0)
(0.134932 -0.00247613 0)
(0.135469 -0.00233628 0)
(0.135974 -0.00219521 0)
(0.136448 -0.00205303 0)
(0.13689 -0.00190984 0)
(0.137299 -0.00176578 0)
(0.137677 -0.00162095 0)
(0.138022 -0.00147547 0)
(0.138334 -0.00132947 0)
(0.138614 -0.00118306 0)
(0.138861 -0.00103638 0)
(0.139075 -0.000889526 0)
(0.139256 -0.000742634 0)
(0.139405 -0.000595821 0)
(0.139521 -0.000449207 0)
(0.139604 -0.000302909 0)
(0.139654 -0.000157045 0)
(0.139672 -1.17308e-05 0)
(0.139657 0.000132922 0)
(0.13961 0.000276802 0)
(0.139531 0.0004198 0)
(0.139421 0.000561809 0)
(0.139278 0.000702728 0)
(0.139105 0.000842456 0)
(0.1389 0.000980897 0)
(0.138665 0.00111796 0)
(0.138399 0.00125354 0)