/*--------------------------------*- C++ -*----------------------------------*\
| =========                 |                                                 |
| \\      /  F ield         | OpenFOAM: The Open Source CFD Toolbox           |
|  \\    /   O peration     | Version:  v2012                                 |
|   \\  /    A nd           | Website:  www.openfoam.com                      |
|    \\/     M anipulation  |                                                 |
\*---------------------------------------------------------------------------*/
FoamFile
{
    version     2.0;
    format      ascii;
    class       volScalarField;
    location    "10.5";
    object      W_z;
}
// * * * * * * * * * * * * * * * * * * * * * * * * * * * * * * * * * * * * * //

dimensions      [0 0 -1 0 0 0 0];


internalField   nonuniform List<scalar> 
65536
(
4.43783e-09
1.91825e-09
-2.51762e-07
-3.16368e-07
-3.32805e-07
-3.34972e-07
-3.3419e-07
-3.33842e-07
-3.3486e-07
-3.37733e-07
-3.42565e-07
-3.48896e-07
-3.5595e-07
-3.63616e-07
-3.71881e-07
-3.80918e-07
-3.90732e-07
-4.01156e-07
-4.12124e-07
-4.23287e-07
-4.34846e-07
-4.47034e-07
-4.5956e-07
-4.72396e-07
-4.85418e-07
-4.98478e-07
-5.11779e-07
-5.25253e-07
-5.38829e-07
-5.52658e-07
-5.66506e-07
-5.80158e-07
-5.93819e-07
-6.07601e-07
-6.21569e-07
-6.35843e-07
-6.50141e-07
-6.64161e-07
-6.78206e-07
-6.92652e-07
-7.07479e-07
-7.22586e-07
-7.37795e-07
-7.52894e-07
-7.68089e-07
-7.83771e-07
-7.9981e-07
-8.15811e-07
-8.31713e-07
-8.47582e-07
-8.63392e-07
-8.79278e-07
-8.95397e-07
-9.11552e-07
-9.27493e-07
-9.43341e-07
-9.59306e-07
-9.75326e-07
-9.91341e-07
-1.00749e-06
-1.02386e-06
-1.04038e-06
-1.05709e-06
-1.07416e-06
-1.09159e-06
-1.10923e-06
-1.12708e-06
-1.14515e-06
-1.16329e-06
-1.1813e-06
-1.19921e-06
-1.21716e-06
-1.23511e-06
-1.25284e-06
-1.27029e-06
-1.28748e-06
-1.30439e-06
-1.32097e-06
-1.33741e-06
-1.35393e-06
-1.37062e-06
-1.38731e-06
-1.40393e-06
-1.42061e-06
-1.43746e-06
-1.45447e-06
-1.4716e-06
-1.48887e-06
-1.50626e-06
-1.52365e-06
-1.54084e-06
-1.55771e-06
-1.57431e-06
-1.5907e-06
-1.60683e-06
-1.62259e-06
-1.63783e-06
-1.65254e-06
-1.6668e-06
-1.68066e-06
-1.6941e-06
-1.70695e-06
-1.71909e-06
-1.73053e-06
-1.74145e-06
-1.75212e-06
-1.76263e-06
-1.77296e-06
-1.78312e-06
-1.7932e-06
-1.80334e-06
-1.81355e-06
-1.82377e-06
-1.83394e-06
-1.844e-06
-1.85392e-06
-1.86369e-06
-1.87327e-06
-1.88255e-06
-1.89128e-06
-1.89921e-06
-1.90621e-06
-1.91241e-06
-1.91819e-06
-1.92369e-06
-1.92857e-06
-1.9325e-06
-1.93563e-06
-1.93845e-06
-1.94119e-06
-1.94378e-06
-1.94584e-06
-1.94711e-06
-1.94776e-06
-1.9482e-06
-1.94844e-06
-1.94827e-06
-1.94747e-06
-1.94608e-06
-1.94443e-06
-1.94281e-06
-1.94119e-06
-1.93943e-06
-1.93753e-06
-1.93557e-06
-1.93378e-06
-1.93233e-06
-1.93101e-06
-1.92965e-06
-1.92795e-06
-1.9259e-06
-1.92378e-06
-1.9215e-06
-1.91889e-06
-1.9158e-06
-1.9125e-06
-1.909e-06
-1.90519e-06
-1.90115e-06
-1.89697e-06
-1.8927e-06
-1.88815e-06
-1.88324e-06
-1.8779e-06
-1.87231e-06
-1.86654e-06
-1.86062e-06
-1.85452e-06
-1.84826e-06
-1.84192e-06
-1.83546e-06
-1.82891e-06
-1.82223e-06
-1.81539e-06
-1.80825e-06
-1.80047e-06
-1.79193e-06
-1.78272e-06
-1.77295e-06
-1.76257e-06
-1.75147e-06
-1.73973e-06
-1.72759e-06
-1.7153e-06
-1.7031e-06
-1.69097e-06
-1.67901e-06
-1.66729e-06
-1.65569e-06
-1.64397e-06
-1.63197e-06
-1.61968e-06
-1.60711e-06
-1.5942e-06
-1.58068e-06
-1.56648e-06
-1.55158e-06
-1.5362e-06
-1.52037e-06
-1.50406e-06
-1.48711e-06
-1.46952e-06
-1.45117e-06
-1.43203e-06
-1.41211e-06
-1.39147e-06
-1.36999e-06
-1.3476e-06
-1.32431e-06
-1.30015e-06
-1.27516e-06
-1.24954e-06
-1.22344e-06
-1.19695e-06
-1.1702e-06
-1.14327e-06
-1.11639e-06
-1.08964e-06
-1.063e-06
-1.03643e-06
-1.0097e-06
-9.82767e-07
-9.55518e-07
-9.27995e-07
-9.0018e-07
-8.72043e-07
-8.43606e-07
-8.14856e-07
-7.85846e-07
-7.56574e-07
-7.27057e-07
-6.97385e-07
-6.67636e-07
-6.37857e-07
-6.08133e-07
-5.7851e-07
-5.49078e-07
-5.19926e-07
-4.91013e-07
-4.62229e-07
-4.33472e-07
-4.04619e-07
-3.75657e-07
-3.46579e-07
-3.17385e-07
-2.88053e-07
-2.58596e-07
-2.2913e-07
-1.9989e-07
-1.71129e-07
-1.4302e-07
-1.15664e-07
-8.91021e-08
-6.33461e-08
-3.84808e-08
-1.30633e-08
6.37351e-09
-1.20817e-08
-4.27316e-07
-5.78318e-07
-6.51893e-07
-6.94692e-07
-7.26643e-07
-7.55622e-07
-7.84463e-07
-8.13997e-07
-8.44409e-07
-8.75504e-07
-9.07125e-07
-9.39475e-07
-9.72873e-07
-1.00749e-06
-1.04305e-06
-1.07954e-06
-1.11688e-06
-1.15492e-06
-1.194e-06
-1.23403e-06
-1.27478e-06
-1.31617e-06
-1.35787e-06
-1.4e-06
-1.44275e-06
-1.48581e-06
-1.52904e-06
-1.5724e-06
-1.61564e-06
-1.65895e-06
-1.70253e-06
-1.74621e-06
-1.79006e-06
-1.83422e-06
-1.8784e-06
-1.92265e-06
-1.96739e-06
-2.01272e-06
-2.05853e-06
-2.10487e-06
-2.15156e-06
-2.19848e-06
-2.246e-06
-2.29423e-06
-2.34275e-06
-2.39131e-06
-2.44007e-06
-2.4889e-06
-2.53753e-06
-2.58608e-06
-2.63468e-06
-2.68305e-06
-2.73108e-06
-2.77897e-06
-2.82686e-06
-2.87473e-06
-2.92285e-06
-2.97149e-06
-3.02046e-06
-3.06958e-06
-3.11921e-06
-3.16985e-06
-3.22147e-06
-3.27377e-06
-3.32662e-06
-3.37992e-06
-3.43339e-06
-3.48678e-06
-3.54014e-06
-3.59345e-06
-3.64638e-06
-3.69859e-06
-3.74999e-06
-3.80067e-06
-3.85064e-06
-3.9e-06
-3.94905e-06
-3.99804e-06
-4.04706e-06
-4.09612e-06
-4.14539e-06
-4.19511e-06
-4.24535e-06
-4.29602e-06
-4.34712e-06
-4.3986e-06
-4.45024e-06
-4.5017e-06
-4.55279e-06
-4.60344e-06
-4.65351e-06
-4.70275e-06
-4.75091e-06
-4.79787e-06
-4.84364e-06
-4.88813e-06
-4.93122e-06
-4.97284e-06
-5.0129e-06
-5.05131e-06
-5.08794e-06
-5.1229e-06
-5.15652e-06
-5.18917e-06
-5.22101e-06
-5.25213e-06
-5.2828e-06
-5.31342e-06
-5.34419e-06
-5.37513e-06
-5.40609e-06
-5.43695e-06
-5.46771e-06
-5.49829e-06
-5.52834e-06
-5.55733e-06
-5.58485e-06
-5.61067e-06
-5.63477e-06
-5.65704e-06
-5.67728e-06
-5.6953e-06
-5.71109e-06
-5.72482e-06
-5.73693e-06
-5.74779e-06
-5.75753e-06
-5.76592e-06
-5.77278e-06
-5.77818e-06
-5.78236e-06
-5.78563e-06
-5.78793e-06
-5.78878e-06
-5.78786e-06
-5.78542e-06
-5.782e-06
-5.77798e-06
-5.77346e-06
-5.76844e-06
-5.76307e-06
-5.75772e-06
-5.75264e-06
-5.74797e-06
-5.74373e-06
-5.7396e-06
-5.73529e-06
-5.73056e-06
-5.72521e-06
-5.7193e-06
-5.71252e-06
-5.70484e-06
-5.69617e-06
-5.68673e-06
-5.67652e-06
-5.66559e-06
-5.65413e-06
-5.64222e-06
-5.62976e-06
-5.6164e-06
-5.60213e-06
-5.58692e-06
-5.57097e-06
-5.55438e-06
-5.53717e-06
-5.51938e-06
-5.50113e-06
-5.48271e-06
-5.46417e-06
-5.44545e-06
-5.42626e-06
-5.40628e-06
-5.38518e-06
-5.36254e-06
-5.33805e-06
-5.31163e-06
-5.28318e-06
-5.25259e-06
-5.21987e-06
-5.18549e-06
-5.15014e-06
-5.11442e-06
-5.0788e-06
-5.04346e-06
-5.00855e-06
-4.97423e-06
-4.94021e-06
-4.90606e-06
-4.87131e-06
-4.83576e-06
-4.79911e-06
-4.76121e-06
-4.72152e-06
-4.68001e-06
-4.63669e-06
-4.59187e-06
-4.54548e-06
-4.49742e-06
-4.44738e-06
-4.39541e-06
-4.34145e-06
-4.28542e-06
-4.22712e-06
-4.16645e-06
-4.10329e-06
-4.03749e-06
-3.96908e-06
-3.89828e-06
-3.82532e-06
-3.75056e-06
-3.6743e-06
-3.59683e-06
-3.51859e-06
-3.43996e-06
-3.36116e-06
-3.28224e-06
-3.2029e-06
-3.12302e-06
-3.04223e-06
-2.96041e-06
-2.87738e-06
-2.79312e-06
-2.70776e-06
-2.62136e-06
-2.53414e-06
-2.44623e-06
-2.35778e-06
-2.2689e-06
-2.17968e-06
-2.0903e-06
-2.00094e-06
-1.91172e-06
-1.82274e-06
-1.73415e-06
-1.64601e-06
-1.55842e-06
-1.47127e-06
-1.38435e-06
-1.29746e-06
-1.21047e-06
-1.12331e-06
-1.03596e-06
-9.48345e-07
-8.6047e-07
-7.72489e-07
-6.84799e-07
-5.97919e-07
-5.12376e-07
-4.28531e-07
-3.46671e-07
-2.66959e-07
-1.89499e-07
-1.14639e-07
-3.88589e-08
2.16252e-07
2.70221e-07
-1.84792e-07
-4.49745e-07
-6.26473e-07
-7.54661e-07
-8.56563e-07
-9.43712e-07
-1.02207e-06
-1.09511e-06
-1.16488e-06
-1.23254e-06
-1.29885e-06
-1.36434e-06
-1.42965e-06
-1.49512e-06
-1.56111e-06
-1.62776e-06
-1.69494e-06
-1.76301e-06
-1.832e-06
-1.90182e-06
-1.9726e-06
-2.04406e-06
-2.11601e-06
-2.18857e-06
-2.2615e-06
-2.33472e-06
-2.40822e-06
-2.48165e-06
-2.55506e-06
-2.62869e-06
-2.70234e-06
-2.77597e-06
-2.84984e-06
-2.9239e-06
-2.99815e-06
-3.07297e-06
-3.14836e-06
-3.22425e-06
-3.30088e-06
-3.37833e-06
-3.4564e-06
-3.53518e-06
-3.61483e-06
-3.69503e-06
-3.77554e-06
-3.8565e-06
-3.93778e-06
-4.01897e-06
-4.1e-06
-4.18093e-06
-4.26145e-06
-4.34136e-06
-4.42088e-06
-4.50014e-06
-4.57901e-06
-4.6577e-06
-4.73675e-06
-4.81642e-06
-4.89658e-06
-4.97733e-06
-5.05898e-06
-5.14172e-06
-5.22552e-06
-5.31045e-06
-5.39651e-06
-5.48338e-06
-5.57062e-06
-5.65803e-06
-5.74544e-06
-5.83243e-06
-5.91859e-06
-6.00378e-06
-6.08802e-06
-6.17119e-06
-6.25327e-06
-6.33453e-06
-6.41535e-06
-6.49595e-06
-6.57647e-06
-6.65726e-06
-6.73871e-06
-6.82103e-06
-6.90414e-06
-6.98803e-06
-7.07275e-06
-7.15814e-06
-7.24371e-06
-7.32902e-06
-7.41389e-06
-7.4982e-06
-7.5816e-06
-7.66357e-06
-7.74383e-06
-7.82237e-06
-7.89908e-06
-7.97363e-06
-8.0457e-06
-8.11522e-06
-8.18224e-06
-8.24673e-06
-8.30856e-06
-8.36786e-06
-8.42501e-06
-8.4804e-06
-8.53437e-06
-8.58721e-06
-8.63938e-06
-8.69135e-06
-8.74343e-06
-8.79574e-06
-8.84832e-06
-8.90101e-06
-8.95354e-06
-9.00554e-06
-9.05649e-06
-9.10577e-06
-9.15283e-06
-9.19722e-06
-9.23866e-06
-9.27683e-06
-9.31157e-06
-9.34279e-06
-9.37056e-06
-9.39514e-06
-9.41684e-06
-9.43593e-06
-9.45268e-06
-9.46728e-06
-9.47981e-06
-9.49034e-06
-9.49885e-06
-9.50534e-06
-9.50983e-06
-9.51215e-06
-9.51221e-06
-9.51009e-06
-9.50609e-06
-9.50055e-06
-9.49387e-06
-9.48643e-06
-9.47872e-06
-9.47119e-06
-9.4641e-06
-9.45751e-06
-9.45117e-06
-9.44502e-06
-9.43877e-06
-9.43204e-06
-9.42443e-06
-9.41544e-06
-9.40503e-06
-9.39323e-06
-9.38008e-06
-9.36565e-06
-9.34996e-06
-9.33327e-06
-9.31552e-06
-9.29688e-06
-9.27721e-06
-9.25639e-06
-9.23417e-06
-9.21046e-06
-9.18526e-06
-9.1588e-06
-9.13138e-06
-9.10322e-06
-9.07445e-06
-9.04523e-06
-9.01573e-06
-8.98584e-06
-8.95523e-06
-8.92339e-06
-8.88973e-06
-8.85374e-06
-8.81475e-06
-8.77235e-06
-8.72643e-06
-8.67705e-06
-8.62448e-06
-8.56925e-06
-8.51224e-06
-8.45448e-06
-8.39683e-06
-8.33982e-06
-8.28353e-06
-8.22797e-06
-8.17287e-06
-8.11771e-06
-8.06168e-06
-8.00418e-06
-7.94455e-06
-7.88261e-06
-7.81815e-06
-7.75089e-06
-7.6807e-06
-7.60761e-06
-7.53165e-06
-7.45283e-06
-7.37097e-06
-7.28598e-06
-7.19771e-06
-7.10607e-06
-7.01079e-06
-6.9116e-06
-6.80833e-06
-6.70091e-06
-6.58924e-06
-6.47358e-06
-6.35434e-06
-6.23209e-06
-6.10748e-06
-5.9811e-06
-5.85347e-06
-5.72502e-06
-5.59578e-06
-5.46576e-06
-5.33449e-06
-5.20165e-06
-5.06684e-06
-4.92975e-06
-4.7904e-06
-4.64875e-06
-4.50516e-06
-4.35996e-06
-4.21352e-06
-4.0662e-06
-3.91826e-06
-3.76997e-06
-3.62152e-06
-3.4731e-06
-3.32486e-06
-3.17699e-06
-3.02951e-06
-2.88253e-06
-2.73603e-06
-2.59e-06
-2.44436e-06
-2.29891e-06
-2.15346e-06
-2.00788e-06
-1.86205e-06
-1.71603e-06
-1.56985e-06
-1.42367e-06
-1.27777e-06
-1.13272e-06
-9.89131e-07
-8.47714e-07
-7.09042e-07
-5.73599e-07
-4.41646e-07
-3.13316e-07
-1.89352e-07
-6.42709e-08
2.12069e-07
2.37049e-07
-1.74455e-07
-4.66847e-07
-6.91839e-07
-8.71542e-07
-1.02191e-06
-1.15317e-06
-1.27173e-06
-1.38169e-06
-1.48569e-06
-1.58554e-06
-1.68243e-06
-1.77745e-06
-1.87132e-06
-1.96476e-06
-2.05825e-06
-2.1519e-06
-2.24617e-06
-2.34124e-06
-2.43707e-06
-2.53388e-06
-2.63154e-06
-2.72987e-06
-2.82891e-06
-2.92839e-06
-3.02818e-06
-3.12833e-06
-3.22852e-06
-3.3286e-06
-3.42874e-06
-3.52883e-06
-3.6288e-06
-3.72892e-06
-3.82917e-06
-3.92946e-06
-4.03018e-06
-4.13158e-06
-4.23367e-06
-4.33666e-06
-4.44073e-06
-4.54574e-06
-4.6518e-06
-4.75918e-06
-4.86767e-06
-4.97691e-06
-5.08694e-06
-5.19763e-06
-5.30852e-06
-5.41941e-06
-5.53037e-06
-5.6411e-06
-5.75118e-06
-5.86062e-06
-5.96957e-06
-6.07795e-06
-6.18576e-06
-6.29339e-06
-6.40115e-06
-6.50921e-06
-6.61791e-06
-6.72775e-06
-6.83891e-06
-6.9513e-06
-7.06501e-06
-7.18028e-06
-7.29703e-06
-7.41485e-06
-7.5334e-06
-7.65242e-06
-7.77153e-06
-7.89014e-06
-8.00789e-06
-8.12465e-06
-8.2403e-06
-8.35465e-06
-8.46774e-06
-8.57998e-06
-8.69176e-06
-8.80331e-06
-8.91493e-06
-9.02713e-06
-9.14035e-06
-9.25478e-06
-9.37042e-06
-9.48728e-06
-9.60531e-06
-9.72421e-06
-9.84343e-06
-9.96249e-06
-1.00811e-05
-1.01988e-05
-1.03152e-05
-1.04297e-05
-1.05422e-05
-1.06522e-05
-1.07597e-05
-1.08642e-05
-1.09655e-05
-1.10634e-05
-1.11579e-05
-1.12487e-05
-1.13361e-05
-1.14202e-05
-1.15015e-05
-1.15802e-05
-1.1657e-05
-1.17324e-05
-1.1807e-05
-1.18813e-05
-1.19556e-05
-1.20302e-05
-1.21052e-05
-1.21805e-05
-1.22555e-05
-1.23298e-05
-1.24026e-05
-1.24734e-05
-1.25413e-05
-1.26055e-05
-1.26655e-05
-1.27209e-05
-1.27715e-05
-1.28174e-05
-1.28587e-05
-1.28954e-05
-1.2928e-05
-1.29569e-05
-1.29824e-05
-1.30049e-05
-1.30246e-05
-1.30415e-05
-1.30558e-05
-1.30672e-05
-1.30758e-05
-1.30816e-05
-1.30843e-05
-1.30841e-05
-1.30813e-05
-1.30763e-05
-1.30696e-05
-1.30617e-05
-1.30532e-05
-1.30449e-05
-1.3037e-05
-1.30299e-05
-1.30231e-05
-1.30165e-05
-1.30096e-05
-1.30019e-05
-1.29931e-05
-1.29824e-05
-1.29699e-05
-1.29552e-05
-1.29389e-05
-1.29208e-05
-1.29012e-05
-1.28801e-05
-1.28578e-05
-1.2834e-05
-1.28087e-05
-1.27818e-05
-1.27529e-05
-1.2722e-05
-1.26891e-05
-1.26542e-05
-1.26179e-05
-1.25805e-05
-1.25424e-05
-1.25037e-05
-1.24645e-05
-1.24247e-05
-1.2384e-05
-1.23415e-05
-1.22965e-05
-1.22483e-05
-1.21961e-05
-1.21393e-05
-1.20775e-05
-1.20109e-05
-1.19399e-05
-1.18654e-05
-1.17885e-05
-1.17103e-05
-1.16321e-05
-1.15547e-05
-1.14785e-05
-1.14031e-05
-1.13282e-05
-1.12529e-05
-1.11764e-05
-1.10977e-05
-1.10162e-05
-1.09311e-05
-1.08423e-05
-1.07497e-05
-1.06532e-05
-1.05524e-05
-1.04477e-05
-1.03389e-05
-1.02259e-05
-1.01087e-05
-9.98698e-06
-9.86054e-06
-9.72909e-06
-9.59225e-06
-9.44969e-06
-9.30126e-06
-9.14694e-06
-8.98701e-06
-8.82198e-06
-8.65269e-06
-8.48004e-06
-8.30493e-06
-8.12806e-06
-7.94993e-06
-7.77063e-06
-7.59003e-06
-7.40772e-06
-7.22306e-06
-7.03566e-06
-6.84506e-06
-6.65131e-06
-6.45456e-06
-6.25516e-06
-6.05364e-06
-5.85053e-06
-5.64631e-06
-5.44135e-06
-5.23595e-06
-5.03036e-06
-4.82481e-06
-4.61938e-06
-4.41426e-06
-4.20957e-06
-4.00533e-06
-3.80152e-06
-3.5981e-06
-3.39495e-06
-3.19192e-06
-2.98884e-06
-2.78563e-06
-2.58215e-06
-2.37846e-06
-2.1747e-06
-1.97123e-06
-1.76846e-06
-1.56709e-06
-1.36795e-06
-1.17195e-06
-9.79908e-07
-7.92451e-07
-6.09965e-07
-4.32563e-07
-2.61284e-07
-8.86851e-08
1.63733e-07
1.35609e-07
-2.46247e-07
-5.46592e-07
-7.96722e-07
-1.00893e-06
-1.19369e-06
-1.35881e-06
-1.50982e-06
-1.65064e-06
-1.78405e-06
-1.91199e-06
-2.03598e-06
-2.15715e-06
-2.27654e-06
-2.395e-06
-2.51291e-06
-2.63085e-06
-2.74922e-06
-2.86811e-06
-2.98782e-06
-3.10837e-06
-3.22961e-06
-3.35164e-06
-3.47424e-06
-3.59717e-06
-3.72045e-06
-3.84379e-06
-3.96699e-06
-4.09017e-06
-4.21317e-06
-4.3358e-06
-4.45832e-06
-4.58086e-06
-4.70337e-06
-4.82613e-06
-4.94943e-06
-5.07336e-06
-5.19826e-06
-5.3245e-06
-5.45207e-06
-5.58102e-06
-5.71168e-06
-5.84402e-06
-5.97775e-06
-6.11288e-06
-6.24937e-06
-6.38675e-06
-6.52458e-06
-6.66274e-06
-6.80097e-06
-6.93877e-06
-7.07594e-06
-7.21248e-06
-7.3482e-06
-7.48303e-06
-7.6173e-06
-7.75136e-06
-7.88525e-06
-8.01916e-06
-8.1537e-06
-8.2895e-06
-8.42672e-06
-8.56543e-06
-8.7059e-06
-8.84829e-06
-8.99242e-06
-9.13795e-06
-9.28466e-06
-9.43218e-06
-9.57992e-06
-9.72737e-06
-9.87422e-06
-1.00202e-05
-1.01651e-05
-1.03087e-05
-1.04513e-05
-1.0593e-05
-1.07344e-05
-1.08757e-05
-1.10174e-05
-1.11601e-05
-1.13042e-05
-1.14498e-05
-1.15971e-05
-1.17461e-05
-1.18965e-05
-1.2048e-05
-1.21999e-05
-1.23519e-05
-1.25034e-05
-1.26538e-05
-1.28024e-05
-1.29488e-05
-1.30928e-05
-1.32339e-05
-1.33716e-05
-1.35056e-05
-1.36357e-05
-1.37619e-05
-1.38836e-05
-1.4001e-05
-1.41141e-05
-1.42234e-05
-1.43291e-05
-1.44318e-05
-1.4532e-05
-1.46305e-05
-1.47281e-05
-1.48253e-05
-1.49226e-05
-1.50202e-05
-1.51183e-05
-1.52167e-05
-1.53149e-05
-1.54122e-05
-1.55078e-05
-1.56007e-05
-1.56902e-05
-1.57753e-05
-1.58552e-05
-1.59292e-05
-1.59971e-05
-1.60591e-05
-1.61151e-05
-1.61654e-05
-1.62104e-05
-1.62506e-05
-1.62864e-05
-1.63183e-05
-1.63466e-05
-1.63714e-05
-1.63929e-05
-1.64112e-05
-1.64259e-05
-1.6437e-05
-1.64443e-05
-1.6448e-05
-1.64484e-05
-1.6446e-05
-1.64412e-05
-1.64348e-05
-1.64276e-05
-1.64202e-05
-1.64133e-05
-1.64069e-05
-1.64011e-05
-1.63953e-05
-1.6389e-05
-1.63816e-05
-1.63727e-05
-1.63617e-05
-1.63483e-05
-1.63325e-05
-1.63144e-05
-1.62941e-05
-1.62721e-05
-1.62482e-05
-1.62228e-05
-1.61957e-05
-1.61667e-05
-1.61353e-05
-1.61015e-05
-1.6065e-05
-1.60259e-05
-1.59843e-05
-1.59407e-05
-1.58956e-05
-1.58496e-05
-1.5803e-05
-1.57557e-05
-1.57076e-05
-1.56582e-05
-1.56067e-05
-1.55521e-05
-1.54934e-05
-1.54297e-05
-1.53602e-05
-1.52846e-05
-1.52028e-05
-1.51155e-05
-1.50239e-05
-1.49293e-05
-1.48331e-05
-1.47366e-05
-1.46409e-05
-1.45466e-05
-1.44533e-05
-1.43603e-05
-1.42666e-05
-1.4171e-05
-1.40725e-05
-1.39703e-05
-1.38634e-05
-1.37517e-05
-1.36348e-05
-1.35129e-05
-1.33858e-05
-1.32534e-05
-1.31157e-05
-1.29729e-05
-1.28247e-05
-1.26709e-05
-1.25111e-05
-1.23449e-05
-1.21718e-05
-1.19914e-05
-1.18033e-05
-1.16077e-05
-1.14048e-05
-1.11953e-05
-1.09803e-05
-1.07609e-05
-1.05383e-05
-1.03136e-05
-1.00872e-05
-9.85935e-06
-9.62982e-06
-9.3982e-06
-9.16365e-06
-8.92564e-06
-8.6837e-06
-8.43778e-06
-8.18811e-06
-7.93518e-06
-7.67962e-06
-7.4221e-06
-7.16323e-06
-6.90348e-06
-6.6432e-06
-6.38266e-06
-6.12211e-06
-5.8617e-06
-5.60154e-06
-5.34175e-06
-5.08238e-06
-4.82338e-06
-4.56469e-06
-4.30619e-06
-4.04775e-06
-3.78921e-06
-3.53051e-06
-3.2716e-06
-3.01255e-06
-2.75352e-06
-2.49503e-06
-2.23766e-06
-1.98227e-06
-1.72988e-06
-1.4816e-06
-1.23848e-06
-1.00129e-06
-7.70501e-07
-5.4625e-07
-3.29829e-07
-1.11932e-07
1.12071e-07
3.11324e-08
-3.38902e-07
-6.45131e-07
-9.11251e-07
-1.14544e-06
-1.35512e-06
-1.5462e-06
-1.72318e-06
-1.88949e-06
-2.04766e-06
-2.19973e-06
-2.34716e-06
-2.49125e-06
-2.63311e-06
-2.77339e-06
-2.91284e-06
-3.05209e-06
-3.19139e-06
-3.33113e-06
-3.47148e-06
-3.61241e-06
-3.75402e-06
-3.89621e-06
-4.03877e-06
-4.18169e-06
-4.32468e-06
-4.46742e-06
-4.60999e-06
-4.7523e-06
-4.89409e-06
-5.03547e-06
-5.17654e-06
-5.31726e-06
-5.45796e-06
-5.59904e-06
-5.74065e-06
-5.88308e-06
-6.02685e-06
-6.17218e-06
-6.31925e-06
-6.46846e-06
-6.61999e-06
-6.77361e-06
-6.92927e-06
-7.08704e-06
-7.2466e-06
-7.40746e-06
-7.56939e-06
-7.73203e-06
-7.89474e-06
-8.05707e-06
-8.21891e-06
-8.37997e-06
-8.53988e-06
-8.69867e-06
-8.85672e-06
-9.0142e-06
-9.1712e-06
-9.32818e-06
-9.48574e-06
-9.6443e-06
-9.80414e-06
-9.9657e-06
-1.01293e-05
-1.02951e-05
-1.04629e-05
-1.06325e-05
-1.08038e-05
-1.09763e-05
-1.11493e-05
-1.13226e-05
-1.14956e-05
-1.16682e-05
-1.18398e-05
-1.20106e-05
-1.21807e-05
-1.23503e-05
-1.25197e-05
-1.26894e-05
-1.286e-05
-1.3032e-05
-1.32057e-05
-1.33813e-05
-1.3559e-05
-1.3739e-05
-1.39206e-05
-1.41034e-05
-1.42868e-05
-1.44705e-05
-1.46537e-05
-1.48354e-05
-1.50152e-05
-1.51925e-05
-1.5367e-05
-1.55381e-05
-1.57053e-05
-1.58681e-05
-1.60266e-05
-1.61803e-05
-1.6329e-05
-1.64727e-05
-1.66116e-05
-1.6746e-05
-1.68765e-05
-1.70034e-05
-1.71275e-05
-1.72496e-05
-1.73706e-05
-1.74912e-05
-1.76118e-05
-1.77328e-05
-1.78544e-05
-1.79763e-05
-1.8098e-05
-1.82187e-05
-1.83375e-05
-1.84532e-05
-1.85649e-05
-1.86715e-05
-1.8772e-05
-1.88657e-05
-1.89523e-05
-1.90316e-05
-1.91036e-05
-1.91687e-05
-1.92273e-05
-1.928e-05
-1.93275e-05
-1.93701e-05
-1.94084e-05
-1.94425e-05
-1.94729e-05
-1.94995e-05
-1.9522e-05
-1.95403e-05
-1.95543e-05
-1.9564e-05
-1.95697e-05
-1.95718e-05
-1.95709e-05
-1.9568e-05
-1.95639e-05
-1.95594e-05
-1.9555e-05
-1.95508e-05
-1.95471e-05
-1.95433e-05
-1.95389e-05
-1.95332e-05
-1.95253e-05
-1.95151e-05
-1.95021e-05
-1.94863e-05
-1.94678e-05
-1.9447e-05
-1.9424e-05
-1.93991e-05
-1.93723e-05
-1.93435e-05
-1.93124e-05
-1.92785e-05
-1.92415e-05
-1.92011e-05
-1.91576e-05
-1.9111e-05
-1.9062e-05
-1.90111e-05
-1.89588e-05
-1.89058e-05
-1.88521e-05
-1.87973e-05
-1.8741e-05
-1.86822e-05
-1.86198e-05
-1.85526e-05
-1.84794e-05
-1.83994e-05
-1.83122e-05
-1.82178e-05
-1.81168e-05
-1.80105e-05
-1.79008e-05
-1.77892e-05
-1.76772e-05
-1.75659e-05
-1.74558e-05
-1.73467e-05
-1.72378e-05
-1.71276e-05
-1.70148e-05
-1.68983e-05
-1.67768e-05
-1.66497e-05
-1.65165e-05
-1.6377e-05
-1.62311e-05
-1.6079e-05
-1.59205e-05
-1.57556e-05
-1.55845e-05
-1.54069e-05
-1.52227e-05
-1.50312e-05
-1.4832e-05
-1.46245e-05
-1.44081e-05
-1.41824e-05
-1.39473e-05
-1.37033e-05
-1.34512e-05
-1.31923e-05
-1.29281e-05
-1.26599e-05
-1.23892e-05
-1.21165e-05
-1.18423e-05
-1.15661e-05
-1.12874e-05
-1.10053e-05
-1.07191e-05
-1.04283e-05
-1.01327e-05
-9.8326e-06
-9.5287e-06
-9.2217e-06
-8.91238e-06
-8.60143e-06
-8.28951e-06
-7.97701e-06
-7.66421e-06
-7.35139e-06
-7.03872e-06
-6.72631e-06
-6.4142e-06
-6.10244e-06
-5.79098e-06
-5.47974e-06
-5.16859e-06
-4.85744e-06
-4.54614e-06
-4.23468e-06
-3.92308e-06
-3.61147e-06
-3.30011e-06
-2.98949e-06
-2.68043e-06
-2.37391e-06
-2.07119e-06
-1.77352e-06
-1.48217e-06
-1.19806e-06
-9.2172e-07
-6.53299e-07
-3.94323e-07
-1.33785e-07
6.81372e-08
-5.77537e-08
-4.25708e-07
-7.3806e-07
-1.01601e-06
-1.26624e-06
-1.49458e-06
-1.70581e-06
-1.90364e-06
-2.09092e-06
-2.26997e-06
-2.44257e-06
-2.61023e-06
-2.7743e-06
-2.93558e-06
-3.09497e-06
-3.25327e-06
-3.4109e-06
-3.56838e-06
-3.72604e-06
-3.88396e-06
-4.04231e-06
-4.20109e-06
-4.36013e-06
-4.51946e-06
-4.67887e-06
-4.83798e-06
-4.99675e-06
-5.15507e-06
-5.31267e-06
-5.46957e-06
-5.62588e-06
-5.7815e-06
-5.9366e-06
-6.09164e-06
-6.2469e-06
-6.40276e-06
-6.55982e-06
-6.71845e-06
-6.87891e-06
-7.04178e-06
-7.2075e-06
-7.37605e-06
-7.54743e-06
-7.72181e-06
-7.89896e-06
-8.07842e-06
-8.25989e-06
-8.44307e-06
-8.62726e-06
-8.81174e-06
-8.99615e-06
-9.18009e-06
-9.36302e-06
-9.54468e-06
-9.72512e-06
-9.90439e-06
-1.00825e-05
-1.02597e-05
-1.04369e-05
-1.06143e-05
-1.07924e-05
-1.09716e-05
-1.11526e-05
-1.13358e-05
-1.15212e-05
-1.17089e-05
-1.18989e-05
-1.20911e-05
-1.22849e-05
-1.24799e-05
-1.26757e-05
-1.2872e-05
-1.30682e-05
-1.32642e-05
-1.34599e-05
-1.36555e-05
-1.38511e-05
-1.40469e-05
-1.42436e-05
-1.44417e-05
-1.46416e-05
-1.48435e-05
-1.50479e-05
-1.52548e-05
-1.54642e-05
-1.56755e-05
-1.58881e-05
-1.61016e-05
-1.63154e-05
-1.65285e-05
-1.67401e-05
-1.69496e-05
-1.71565e-05
-1.736e-05
-1.75597e-05
-1.77552e-05
-1.7946e-05
-1.81318e-05
-1.83124e-05
-1.84874e-05
-1.8657e-05
-1.88215e-05
-1.8981e-05
-1.9136e-05
-1.92872e-05
-1.94353e-05
-1.95814e-05
-1.9726e-05
-1.98701e-05
-2.00141e-05
-2.01587e-05
-2.03037e-05
-2.0449e-05
-2.0594e-05
-2.0738e-05
-2.08799e-05
-2.10186e-05
-2.11526e-05
-2.12808e-05
-2.14024e-05
-2.15163e-05
-2.16222e-05
-2.17195e-05
-2.18084e-05
-2.18892e-05
-2.19624e-05
-2.20287e-05
-2.20887e-05
-2.2143e-05
-2.21924e-05
-2.22371e-05
-2.22775e-05
-2.23137e-05
-2.23454e-05
-2.23725e-05
-2.23948e-05
-2.24123e-05
-2.24252e-05
-2.24338e-05
-2.24388e-05
-2.24411e-05
-2.24416e-05
-2.24414e-05
-2.24409e-05
-2.24404e-05
-2.24399e-05
-2.24391e-05
-2.24375e-05
-2.24342e-05
-2.24286e-05
-2.242e-05
-2.24083e-05
-2.23936e-05
-2.23759e-05
-2.23555e-05
-2.2333e-05
-2.23084e-05
-2.22818e-05
-2.22529e-05
-2.22213e-05
-2.21866e-05
-2.21481e-05
-2.21057e-05
-2.20594e-05
-2.20096e-05
-2.19568e-05
-2.19017e-05
-2.18451e-05
-2.17873e-05
-2.17288e-05
-2.16691e-05
-2.16076e-05
-2.15433e-05
-2.14749e-05
-2.1401e-05
-2.13205e-05
-2.12322e-05
-2.11357e-05
-2.10312e-05
-2.09193e-05
-2.08014e-05
-2.06794e-05
-2.05552e-05
-2.04305e-05
-2.03063e-05
-2.01831e-05
-2.00607e-05
-1.9938e-05
-1.98136e-05
-1.96857e-05
-1.95529e-05
-1.94141e-05
-1.92685e-05
-1.91155e-05
-1.8955e-05
-1.8787e-05
-1.86114e-05
-1.84286e-05
-1.82384e-05
-1.80408e-05
-1.78357e-05
-1.76228e-05
-1.74017e-05
-1.71716e-05
-1.69318e-05
-1.66816e-05
-1.64203e-05
-1.6148e-05
-1.58651e-05
-1.55727e-05
-1.52721e-05
-1.49653e-05
-1.46539e-05
-1.43394e-05
-1.40229e-05
-1.37046e-05
-1.33842e-05
-1.3061e-05
-1.2734e-05
-1.24023e-05
-1.20653e-05
-1.17228e-05
-1.13753e-05
-1.10233e-05
-1.06678e-05
-1.03097e-05
-9.94981e-06
-9.58881e-06
-9.22723e-06
-8.86541e-06
-8.50356e-06
-8.1419e-06
-7.78047e-06
-7.41931e-06
-7.05839e-06
-6.69762e-06
-6.33692e-06
-5.97619e-06
-5.61536e-06
-5.25436e-06
-4.89318e-06
-4.53198e-06
-4.1709e-06
-3.81037e-06
-3.45089e-06
-3.09341e-06
-2.73904e-06
-2.38922e-06
-2.04542e-06
-1.70905e-06
-1.3812e-06
-1.0624e-06
-7.52833e-07
-4.54203e-07
-1.54031e-07
3.36788e-08
-1.2849e-07
-4.9727e-07
-8.14956e-07
-1.102e-06
-1.36442e-06
-1.60715e-06
-1.83429e-06
-2.04895e-06
-2.25363e-06
-2.45025e-06
-2.64045e-06
-2.82571e-06
-3.007e-06
-3.18529e-06
-3.36147e-06
-3.5361e-06
-3.70979e-06
-3.88303e-06
-4.056e-06
-4.22897e-06
-4.40207e-06
-4.5752e-06
-4.74842e-06
-4.92161e-06
-5.09439e-06
-5.26669e-06
-5.4384e-06
-5.60917e-06
-5.7789e-06
-5.94765e-06
-6.11532e-06
-6.28201e-06
-6.4481e-06
-6.61387e-06
-6.77971e-06
-6.94633e-06
-7.11433e-06
-7.28409e-06
-7.45626e-06
-7.63154e-06
-7.81018e-06
-7.99233e-06
-8.17832e-06
-8.36819e-06
-8.56157e-06
-8.75812e-06
-8.95754e-06
-9.15919e-06
-9.36224e-06
-9.5661e-06
-9.77019e-06
-9.97372e-06
-1.01761e-05
-1.03772e-05
-1.05769e-05
-1.07749e-05
-1.09712e-05
-1.11663e-05
-1.13608e-05
-1.15551e-05
-1.17497e-05
-1.19453e-05
-1.21425e-05
-1.23418e-05
-1.25434e-05
-1.27476e-05
-1.29545e-05
-1.3164e-05
-1.33757e-05
-1.35894e-05
-1.38047e-05
-1.40212e-05
-1.42385e-05
-1.44564e-05
-1.46749e-05
-1.4894e-05
-1.51137e-05
-1.53345e-05
-1.55567e-05
-1.57809e-05
-1.60072e-05
-1.62361e-05
-1.64678e-05
-1.67024e-05
-1.69396e-05
-1.71788e-05
-1.74196e-05
-1.76614e-05
-1.79034e-05
-1.81446e-05
-1.83842e-05
-1.86217e-05
-1.88563e-05
-1.90873e-05
-1.93142e-05
-1.95365e-05
-1.97539e-05
-1.99659e-05
-2.01723e-05
-2.03728e-05
-2.05677e-05
-2.07572e-05
-2.09413e-05
-2.11207e-05
-2.1296e-05
-2.14681e-05
-2.16379e-05
-2.18061e-05
-2.19734e-05
-2.21407e-05
-2.23082e-05
-2.24763e-05
-2.26444e-05
-2.28121e-05
-2.29787e-05
-2.3143e-05
-2.33039e-05
-2.34599e-05
-2.36094e-05
-2.37519e-05
-2.38859e-05
-2.4011e-05
-2.41266e-05
-2.42326e-05
-2.43295e-05
-2.44177e-05
-2.44979e-05
-2.45709e-05
-2.46375e-05
-2.46984e-05
-2.47543e-05
-2.48055e-05
-2.48521e-05
-2.4894e-05
-2.4931e-05
-2.49629e-05
-2.49895e-05
-2.50109e-05
-2.50275e-05
-2.50398e-05
-2.50488e-05
-2.50553e-05
-2.50604e-05
-2.50648e-05
-2.50689e-05
-2.50725e-05
-2.50754e-05
-2.50771e-05
-2.50768e-05
-2.50738e-05
-2.50674e-05
-2.50577e-05
-2.50445e-05
-2.50282e-05
-2.50093e-05
-2.4988e-05
-2.49648e-05
-2.49394e-05
-2.49116e-05
-2.48809e-05
-2.48466e-05
-2.48081e-05
-2.47652e-05
-2.47178e-05
-2.46662e-05
-2.46112e-05
-2.45535e-05
-2.4494e-05
-2.44332e-05
-2.43714e-05
-2.43083e-05
-2.42432e-05
-2.4175e-05
-2.41023e-05
-2.40236e-05
-2.39376e-05
-2.38432e-05
-2.37399e-05
-2.36278e-05
-2.35078e-05
-2.33812e-05
-2.32498e-05
-2.3116e-05
-2.29813e-05
-2.28471e-05
-2.27136e-05
-2.25803e-05
-2.24462e-05
-2.23096e-05
-2.21687e-05
-2.20217e-05
-2.18675e-05
-2.17051e-05
-2.15343e-05
-2.13547e-05
-2.11663e-05
-2.09693e-05
-2.07639e-05
-2.05501e-05
-2.03279e-05
-2.00973e-05
-1.98579e-05
-1.96092e-05
-1.93505e-05
-1.90806e-05
-1.87988e-05
-1.85045e-05
-1.81974e-05
-1.7878e-05
-1.75476e-05
-1.72079e-05
-1.68608e-05
-1.65087e-05
-1.61531e-05
-1.57952e-05
-1.54355e-05
-1.50736e-05
-1.47086e-05
-1.43395e-05
-1.39652e-05
-1.3585e-05
-1.31988e-05
-1.28069e-05
-1.24101e-05
-1.20094e-05
-1.16059e-05
-1.12004e-05
-1.07939e-05
-1.03868e-05
-9.97948e-06
-9.57227e-06
-9.16525e-06
-8.75843e-06
-8.3518e-06
-7.94527e-06
-7.53868e-06
-7.13193e-06
-6.72494e-06
-6.31769e-06
-5.91025e-06
-5.50264e-06
-5.09513e-06
-4.68795e-06
-4.2816e-06
-3.87672e-06
-3.47429e-06
-3.07561e-06
-2.68219e-06
-2.29574e-06
-1.91779e-06
-1.54958e-06
-1.19169e-06
-8.44237e-07
-5.09072e-07
-1.72523e-07
6.9666e-09
-1.83168e-07
-5.5219e-07
-8.73818e-07
-1.16762e-06
-1.43935e-06
-1.69339e-06
-1.93325e-06
-2.16173e-06
-2.38091e-06
-2.59249e-06
-2.79801e-06
-2.99848e-06
-3.1949e-06
-3.38824e-06
-3.57912e-06
-3.7682e-06
-3.95605e-06
-4.14297e-06
-4.32928e-06
-4.51524e-06
-4.70083e-06
-4.88621e-06
-5.07135e-06
-5.25591e-06
-5.43977e-06
-5.62285e-06
-5.80482e-06
-5.98547e-06
-6.16478e-06
-6.34257e-06
-6.5188e-06
-6.6938e-06
-6.86787e-06
-7.04134e-06
-7.21491e-06
-7.38929e-06
-7.56502e-06
-7.74289e-06
-7.92382e-06
-8.10837e-06
-8.29687e-06
-8.48985e-06
-8.68762e-06
-8.89006e-06
-9.09692e-06
-9.30803e-06
-9.52281e-06
-9.74036e-06
-9.95997e-06
-1.0181e-05
-1.04024e-05
-1.06233e-05
-1.08431e-05
-1.10615e-05
-1.12781e-05
-1.14925e-05
-1.17049e-05
-1.19156e-05
-1.21251e-05
-1.23338e-05
-1.25424e-05
-1.27517e-05
-1.29622e-05
-1.31746e-05
-1.33894e-05
-1.36072e-05
-1.38279e-05
-1.40516e-05
-1.42783e-05
-1.45078e-05
-1.47399e-05
-1.4974e-05
-1.52099e-05
-1.54476e-05
-1.56869e-05
-1.59276e-05
-1.61699e-05
-1.64141e-05
-1.66604e-05
-1.69092e-05
-1.71606e-05
-1.74151e-05
-1.76728e-05
-1.79335e-05
-1.81968e-05
-1.84622e-05
-1.87294e-05
-1.89976e-05
-1.92658e-05
-1.9533e-05
-1.97988e-05
-2.00622e-05
-2.03226e-05
-2.05793e-05
-2.08316e-05
-2.10792e-05
-2.13217e-05
-2.15586e-05
-2.17897e-05
-2.20149e-05
-2.22343e-05
-2.2448e-05
-2.26562e-05
-2.28595e-05
-2.30586e-05
-2.32542e-05
-2.34473e-05
-2.36385e-05
-2.38287e-05
-2.40185e-05
-2.42083e-05
-2.43983e-05
-2.45882e-05
-2.47775e-05
-2.49655e-05
-2.5151e-05
-2.53328e-05
-2.55095e-05
-2.56797e-05
-2.58419e-05
-2.59952e-05
-2.61388e-05
-2.6272e-05
-2.63949e-05
-2.65076e-05
-2.66106e-05
-2.67046e-05
-2.67905e-05
-2.68693e-05
-2.69418e-05
-2.70089e-05
-2.70711e-05
-2.71284e-05
-2.71809e-05
-2.72283e-05
-2.72703e-05
-2.73068e-05
-2.73376e-05
-2.73629e-05
-2.73835e-05
-2.73999e-05
-2.74133e-05
-2.74244e-05
-2.74342e-05
-2.74431e-05
-2.74511e-05
-2.74581e-05
-2.74632e-05
-2.74659e-05
-2.74653e-05
-2.74613e-05
-2.74534e-05
-2.7442e-05
-2.74273e-05
-2.74099e-05
-2.73903e-05
-2.73688e-05
-2.73453e-05
-2.73193e-05
-2.72903e-05
-2.72573e-05
-2.72199e-05
-2.71776e-05
-2.71303e-05
-2.70782e-05
-2.70222e-05
-2.69632e-05
-2.69021e-05
-2.68396e-05
-2.67757e-05
-2.67105e-05
-2.66431e-05
-2.65722e-05
-2.64966e-05
-2.64147e-05
-2.63251e-05
-2.62267e-05
-2.61187e-05
-2.60014e-05
-2.58757e-05
-2.57431e-05
-2.56053e-05
-2.54646e-05
-2.53229e-05
-2.51812e-05
-2.50399e-05
-2.48983e-05
-2.4755e-05
-2.46083e-05
-2.44563e-05
-2.42971e-05
-2.41294e-05
-2.39523e-05
-2.37654e-05
-2.35685e-05
-2.33617e-05
-2.31451e-05
-2.2919e-05
-2.26835e-05
-2.24387e-05
-2.21846e-05
-2.19207e-05
-2.16466e-05
-2.13613e-05
-2.10636e-05
-2.07527e-05
-2.04276e-05
-2.00882e-05
-1.97349e-05
-1.93691e-05
-1.89927e-05
-1.86081e-05
-1.82178e-05