/*--------------------------------*- C++ -*----------------------------------*\
| =========                 |                                                 |
| \\      /  F ield         | OpenFOAM: The Open Source CFD Toolbox           |
|  \\    /   O peration     | Version:  v2012                                 |
|   \\  /    A nd           | Website:  www.openfoam.com                      |
|    \\/     M anipulation  |                                                 |
\*---------------------------------------------------------------------------*/
FoamFile
{
    version     2.0;
    format      ascii;
    class       volVectorField;
    location    "0";
    object      uRec;
}
// * * * * * * * * * * * * * * * * * * * * * * * * * * * * * * * * * * * * * //

dimensions      [0 1 -1 0 0 0 0];


internalField   nonuniform List<vector> 
4000
(
(1 2.35034e-15 0)
(1 6.42242e-16 0)
(1 -1.36795e-15 0)
(1 4.99245e-17 0)
(1 -7.26024e-17 0)
(1 -2.98497e-16 0)
(1 2.79971e-15 0)
(1 -1.6393e-15 0)
(1 4.77575e-15 0)
(1 -5.4356e-16 0)
(1 -4.87612e-15 0)
(1 -6.46348e-17 0)
(1 1.47168e-15 0)
(1 9.97677e-16 0)
(1 -2.09174e-15 0)
(1 7.09608e-16 0)
(1 -9.27425e-16 0)
(1 -8.01058e-16 0)
(1 2.46946e-15 0)
(1 2.38078e-15 0)
(1 -2.75953e-16 0)
(1 3.16232e-15 0)
(1 -1.97096e-15 0)
(1 2.52086e-15 0)
(1 -1.37619e-15 0)
(1 -4.8446e-16 0)
(1 7.20121e-16 0)
(1 -2.83543e-15 0)
(1 -8.35279e-16 0)
(1 -1.66807e-15 0)
(1 1.48454e-15 0)
(1 2.6127e-15 0)
(1 -1.43433e-15 0)
(1 -1.78645e-15 0)
(1 -1.91416e-16 0)
(1 -1.62892e-15 0)
(1 -1.30693e-15 0)
(1 2.08108e-15 0)
(1 2.08898e-15 0)
(1 -1.52522e-15 0)
(1 7.53541e-16 0)
(1 -2.99886e-15 0)
(1 -8.36879e-16 0)
(1 2.24861e-15 0)
(1 1.88224e-15 0)
(1 -2.04432e-15 0)
(1 4.12212e-16 0)
(1 -7.03708e-16 0)
(1 8.87856e-16 0)
(1 -3.55965e-16 0)
(1 -4.11759e-16 0)
(1 7.52294e-16 0)
(1 8.80055e-16 0)
(1 3.9271e-15 0)
(1 2.11132e-15 0)
(1 3.08019e-15 0)
(1 4.43265e-16 0)
(1 -1.83509e-16 0)
(1 -4.65689e-16 0)
(1 3.98201e-16 0)
(1 -2.10175e-15 0)
(1 -2.27485e-15 0)
(1 -1.21765e-15 0)
(1 1.30484e-15 0)
(1 8.95096e-16 0)
(1 3.42397e-16 0)
(1 -3.98172e-16 0)
(1 -1.09703e-15 0)
(1 6.33332e-16 0)
(1 -1.54239e-15 0)
(1 -3.96831e-16 0)
(1 5.12148e-16 0)
(1 -8.71183e-16 0)
(1 -1.24721e-15 0)
(1 -1.91883e-15 0)
(1 -2.25553e-15 0)
(1 -5.46998e-16 0)
(1 -2.86393e-16 0)
(1 4.33737e-17 0)
(1 1.4242e-15 0)
(1 7.33425e-16 0)
(1 1.63365e-15 0)
(1 -1.62371e-15 0)
(1 -4.85943e-16 0)
(1 -2.2984e-15 0)
(1 -1.81549e-15 0)
(1 1.1085e-15 0)
(1 1.45958e-15 0)
(1 6.17652e-16 0)
(1 1.11692e-15 0)
(1 2.0017e-16 0)
(1 -3.82351e-16 0)
(1 1.75213e-15 0)
(1 2.12018e-15 0)
(1 -6.36272e-16 0)
(1 -1.01357e-15 0)
(1 5.51082e-16 0)
(1 7.92536e-16 0)
(1 -5.20448e-16 0)
(1 -5.94204e-16 0)
(1 1.38242e-15 0)
(1 3.37877e-15 0)
(1 -1.62594e-15 0)
(1 -7.70857e-16 0)
(1 -2.63155e-15 0)
(1 9.17508e-16 0)
(1 2.58747e-15 0)
(1 -9.93953e-16 0)
(1 4.537e-15 0)
(1 1.71319e-15 0)
(1 -2.23842e-15 0)
(1 -2.05317e-15 0)
(1 -2.80402e-16 0)
(1 -2.03739e-15 0)
(1 -3.36582e-15 0)
(1 3.36767e-15 0)
(1 5.82969e-16 0)
(1 5.33852e-16 0)
(1 2.48443e-15 0)
(1 1.91103e-15 0)
(1 -6.04633e-16 0)
(1 1.77907e-15 0)
(1 -2.34795e-15 0)
(1 1.96749e-15 0)
(1 -1.90638e-15 0)
(1 7.4265e-17 0)
(1 2.80139e-15 0)
(1 -4.90806e-15 0)
(1 -7.90195e-16 0)
(1 -5.22717e-16 0)
(1 -4.86753e-16 0)
(1 2.0274e-15 0)
(1 -3.29207e-15 0)
(1 -1.85049e-15 0)
(1 1.27134e-15 0)
(1 -1.46182e-15 0)
(1 5.88607e-16 0)
(1 3.75113e-15 0)
(1 -7.90146e-16 0)
(1 -3.20413e-15 0)
(1 -3.27501e-15 0)
(1 -3.2116e-15 0)
(1 -1.10457e-15 0)
(1 1.80582e-15 0)
(1 1.15549e-15 0)
(1 -1.85227e-15 0)
(1 2.59842e-15 0)
(1 2.48757e-15 0)
(1 3.60112e-15 0)
(1 9.75158e-16 0)
(1 8.41175e-16 0)
(1 -1.2749e-15 0)
(1 1.29285e-15 0)
(1 1.0917e-15 0)
(1 1.97891e-15 0)
(1 4.33925e-16 0)
(1 1.57041e-15 0)
(1 1.51972e-15 0)
(1 1.1853e-15 0)
(1 -2.81754e-15 0)
(1 7.0896e-17 0)
(1 3.03698e-16 0)
(1 -1.03481e-15 0)
(1 9.33263e-16 0)
(1 -4.13477e-16 0)
(1 1.43359e-15 0)
(1 -2.74623e-15 0)
(1 -2.28534e-15 0)
(1 1.30785e-15 0)
(1 -9.97347e-16 0)
(1 -1.2002e-15 0)
(1 5.37173e-16 0)
(1 1.75052e-15 0)
(1 -4.01186e-16 0)
(1 1.81596e-17 0)
(1 -1.13395e-15 0)
(1 5.41022e-16 0)
(1 1.19483e-15 0)
(1 -5.36729e-16 0)
(1 2.95613e-15 0)
(1 1.87038e-15 0)
(1 4.02752e-16 0)
(1 8.97627e-18 0)
(1 -2.03197e-15 0)
(1 -2.01269e-15 0)
(1 -2.8036e-15 0)
(1 -4.62627e-16 0)
(1 8.02303e-16 0)
(1 6.0161e-16 0)
(1 1.86588e-15 0)
(1 8.87367e-17 0)
(1 -1.56178e-15 0)
(1 2.82592e-15 0)
(1 2.50911e-15 0)
(1 -3.04552e-15 0)
(1 -1.22244e-15 0)
(1 1.1942e-15 0)
(1 -1.16184e-15 0)
(1 -1.57781e-15 0)
(1 -1.37768e-15 0)
(1 -2.22541e-15 0)
(1 5.47227e-15 0)
(1 -2.68953e-15 0)
(1 1.06232e-15 0)
(1 -1.64975e-15 0)
(1 1.24046e-15 0)
(1 2.62191e-15 0)
(1 6.03151e-15 0)
(1 -1.90263e-15 0)
(1 -1.47187e-15 0)
(1 3.00269e-17 0)
(1 1.26078e-15 0)
(1 1.64945e-15 0)
(1 -1.73322e-15 0)
(1 -6.06809e-16 0)
(1 1.37278e-15 0)
(1 2.06499e-15 0)
(1 3.54777e-15 0)
(1 -1.10576e-15 0)
(1 -1.66839e-16 0)
(1 -1.09454e-15 0)
(1 -4.56316e-15 0)
(1 -6.10553e-16 0)
(1 9.57095e-17 0)
(1 5.47743e-15 0)
(1 3.32741e-15 0)
(1 3.69697e-15 0)
(1 -3.83994e-15 0)
(1 -1.14865e-15 0)
(1 -3.5152e-17 0)
(1 -1.37378e-15 0)
(1 -3.69915e-15 0)
(1 -1.72372e-15 0)
(1 -1.36463e-15 0)
(1 -1.70058e-15 0)
(1 8.37907e-17 0)
(1 -1.23414e-15 0)
(1 3.30661e-15 0)
(1 2.80804e-15 0)
(1 -3.73922e-15 0)
(1 -2.21183e-15 0)
(1 -2.00616e-15 0)
(1 -1.34232e-16 0)
(1 -1.44606e-15 0)
(1 4.78638e-16 0)
(1 -1.60579e-15 0)
(1 1.26239e-15 0)
(1 4.47677e-15 0)
(1 4.36015e-15 0)
(1 1.74478e-15 0)
(1 3.93356e-15 0)
(1 -1.0495e-16 0)
(1 2.10016e-15 0)
(1 -2.35375e-15 0)
(1 1.52623e-15 0)
(1 -1.60776e-16 0)
(1 2.87547e-15 0)
(1 3.10685e-15 0)
(1 5.19473e-15 0)
(1 -3.82174e-17 0)
(1 -1.10595e-15 0)
(1 8.61395e-16 0)
(1 -1.05084e-16 0)
(1 -2.38963e-15 0)
(1 -2.03182e-15 0)
(1 -6.07824e-16 0)
(1 -1.71818e-15 0)
(1 -3.64625e-16 0)
(1 2.2955e-15 0)
(1 4.09058e-16 0)
(1 5.79624e-16 0)
(1 -1.09367e-15 0)
(1 -9.22608e-16 0)
(1 -2.76498e-15 0)
(1 1.9208e-16 0)
(1 -1.74238e-15 0)
(1 4.70342e-16 0)
(1 -3.56282e-16 0)
(1 3.62629e-16 0)
(1 -7.36836e-16 0)
(1 -1.4202e-15 0)
(1 5.97623e-16 0)
(1 9.21224e-16 0)
(1 -1.2228e-15 0)
(1 -2.05342e-15 0)
(1 -9.18825e-16 0)
(1 -2.26727e-15 0)
(1 1.44371e-16 0)
(1 -1.05575e-16 0)
(1 2.28953e-15 0)
(1 6.31898e-16 0)
(1 2.8247e-16 0)
(1 -9.38685e-16 0)
(1 1.36262e-15 0)
(1 -1.62509e-15 0)
(1 9.75787e-16 0)
(1 1.61161e-15 0)
(1 -3.34545e-15 0)
(1 -7.89552e-16 0)
(1 -1.16246e-15 0)
(1 -7.45285e-16 0)
(1 2.23846e-15 0)
(1 -8.54322e-16 0)
(1 -2.39757e-15 0)
(1 2.45015e-15 0)
(1 4.08589e-16 0)
(1 4.04357e-15 0)
(1 4.55238e-15 0)
(1 4.75845e-16 0)
(1 -2.12269e-15 0)
(1 -3.32236e-15 0)
(1 2.43455e-15 0)
(1 -2.08025e-15 0)
(1 2.38897e-15 0)
(1 4.97834e-15 0)
(1 -1.44038e-15 0)
(1 2.21544e-15 0)
(1 7.08735e-16 0)
(1 -2.16864e-15 0)
(1 4.29497e-15 0)
(1 -1.74391e-15 0)
(1 -7.5842e-16 0)
(1 -1.42292e-15 0)
(1 2.29044e-16 0)
(1 7.51281e-15 0)
(1 3.50177e-15 0)
(1 3.37584e-15 0)
(1 -1.57163e-15 0)
(1 1.81949e-16 0)
(1 -3.03685e-17 0)
(1 -8.84746e-16 0)
(1 -2.19354e-15 0)
(1 -1.71868e-15 0)
(1 -2.03976e-15 0)
(1 -3.66857e-15 0)
(1 -3.38211e-15 0)
(1 -2.87433e-15 0)
(1 -1.57463e-15 0)
(1 3.64808e-15 0)
(1 -1.57482e-15 0)
(1 1.99635e-15 0)
(1 -2.12342e-15 0)
(1 -2.33805e-15 0)
(1 -3.54565e-16 0)
(1 1.71424e-15 0)
(1 1.25631e-15 0)
(1 8.55739e-18 0)
(1 2.67473e-15 0)
(1 2.84497e-15 0)
(1 2.48782e-15 0)
(1 3.97375e-15 0)
(1 2.09203e-15 0)
(1 1.85628e-15 0)
(1 1.6448e-15 0)
(1 3.02307e-15 0)
(1 2.23458e-15 0)
(1 3.97998e-15 0)
(1 4.70452e-15 0)
(1 4.16112e-15 0)
(1 4.51278e-15 0)
(1 9.70731e-16 0)
(1 -4.29605e-15 0)
(1 -2.66905e-15 0)
(1 -1.75539e-15 0)
(1 -1.85002e-15 0)
(1 -4.9429e-16 0)
(1 -5.20589e-16 0)
(1 2.15428e-15 0)
(1 -4.44459e-16 0)
(1 -1.18673e-15 0)
(1 1.68809e-16 0)
(1 -3.02139e-15 0)
(1 -3.22536e-15 0)
(1 -3.36526e-15 0)
(1 -2.72619e-15 0)
(1 8.81045e-16 0)
(1 3.00511e-15 0)
(1 -4.60128e-16 0)
(1 2.967e-15 0)
(1 -5.45969e-16 0)
(1 -4.2177e-15 0)
(1 1.40139e-15 0)
(1 -1.46203e-15 0)
(1 -4.58731e-16 0)
(1 -9.74106e-16 0)
(1 -2.57104e-15 0)
(1 1.02864e-15 0)
(1 -8.53e-16 0)
(1 5.90391e-16 0)
(1 1.29685e-15 0)
(1 -9.9954e-16 0)
(1 1.99416e-15 0)
(1 -1.76222e-16 0)
(1 1.54139e-15 0)
(1 1.04647e-15 0)
(1 1.00337e-16 0)
(1 3.35311e-16 0)
(1 7.94942e-16 0)
(1 -3.20096e-15 0)
(1 -2.76336e-15 0)
(1 1.75937e-15 0)
(1 -1.65557e-15 0)
(1 3.53078e-15 0)
(1 -1.93647e-15 0)
(1 2.04856e-15 0)
(1 1.63516e-15 0)
(1 1.95559e-16 0)
(1 -1.07294e-15 0)
(1 3.98325e-15 0)
(1 2.26303e-15 0)
(1 1.82534e-15 0)
(1 3.81618e-15 0)
(1 -1.82749e-15 0)
(1 -9.10295e-16 0)
(1 1.51048e-15 0)
(1 5.60999e-16 0)
(1 4.22517e-15 0)
(1 1.67607e-15 0)
(1 -6.43386e-16 0)
(1 -1.58167e-15 0)
(1 -8.29881e-16 0)
(1 3.00028e-15 0)
(1 3.28568e-16 0)
(1 2.11676e-15 0)
(1 -2.74325e-15 0)
(1 -1.80283e-15 0)
(1 -1.88487e-15 0)
(1 1.2866e-15 0)
(1 1.72724e-16 0)
(1 -1.38407e-15 0)
(1 -1.89292e-15 0)
(1 9.52092e-16 0)
(1 -4.68807e-15 0)
(1 2.79787e-15 0)
(1 -3.22768e-15 0)
(1 -5.11025e-15 0)
(1 -8.43633e-16 0)
(1 -3.47801e-15 0)
(1 5.36357e-16 0)
(1 2.42909e-15 0)
(1 1.64554e-15 0)
(1 -1.43389e-15 0)
(1 -4.64288e-15 0)
(1 -1.58275e-15 0)
(1 -2.28446e-15 0)
(1 4.26561e-15 0)
(1 2.94378e-15 0)
(1 4.98528e-15 0)
(1 2.53224e-15 0)
(1 2.3993e-15 0)
(1 5.90887e-16 0)
(1 4.12846e-16 0)
(1 2.62599e-17 0)
(1 2.72459e-15 0)
(1 2.54529e-15 0)
(1 1.22419e-15 0)
(1 1.89505e-15 0)
(1 1.69899e-15 0)
(1 1.39369e-16 0)
(1 1.6643e-15 0)
(1 5.0746e-15 0)
(1 -6.89858e-16 0)
(1 2.63302e-16 0)
(1 -3.2353e-16 0)
(1 1.17227e-15 0)
(1 2.50054e-15 0)
(1 2.30616e-15 0)
(1 2.72363e-15 0)
(1 -3.01975e-15 0)
(1 8.79847e-16 0)
(1 -3.627e-15 0)
(1 -2.18035e-15 0)
(1 1.67774e-15 0)
(1 -3.93737e-16 0)
(1 -1.51365e-15 0)
(1 2.362e-16 0)
(1 1.37179e-15 0)
(1 1.03865e-16 0)
(1 6.5978e-16 0)
(1 -1.30097e-15 0)
(1 -2.22669e-15 0)
(1 -2.976e-15 0)
(1 -2.19022e-15 0)
(1 -2.63147e-15 0)
(1 1.43557e-15 0)
(1 -1.51987e-15 0)
(1 1.02572e-15 0)
(1 -7.78713e-16 0)
(1 -3.36315e-16 0)
(1 -4.32885e-16 0)
(1 -3.04485e-16 0)
(1 2.1338e-16 0)
(1 2.98507e-15 0)
(1 1.15421e-15 0)
(1 3.54749e-15 0)
(1 5.53462e-16 0)
(1 -8.28932e-16 0)
(1 1.29113e-15 0)
(1 -2.43859e-15 0)
(1 -5.09455e-16 0)
(1 5.4482e-16 0)
(1 -2.72419e-15 0)
(1 4.23751e-15 0)
(1 2.73071e-15 0)
(1 1.42923e-16 0)
(1 2.1239e-16 0)
(1 -1.18592e-15 0)
(1 3.10133e-15 0)
(1 1.46771e-15 0)
(1 2.54276e-15 0)
(1 4.24863e-15 0)
(1 3.45246e-15 0)
(1 1.02215e-15 0)
(1 -7.21857e-16 0)
(1 5.2397e-16 0)
(1 1.43215e-15 0)
(1 -7.36508e-16 0)
(1 1.16447e-16 0)
(1 -2.64711e-15 0)
(1 -5.54334e-15 0)
(1 -5.09788e-16 0)
(1 6.95745e-17 0)
(1 7.88103e-15 0)
(1 4.85345e-15 0)
(1 8.31753e-16 0)
(1 1.95687e-15 0)
(1 -9.13682e-17 0)
(1 1.1169e-15 0)
(1 -5.17005e-15 0)
(1 -2.9309e-15 0)
(1 -5.01513e-15 0)
(1 -1.19653e-15 0)
(1 -3.71942e-15 0)
(1 1.87474e-15 0)
(1 -2.91365e-15 0)
(1 -1.0191e-15 0)
(1 1.0213e-15 0)
(1 9.94183e-16 0)
(1 -6.81783e-16 0)
(1 1.18508e-15 0)
(1 3.44048e-16 0)
(1 1.15696e-15 0)
(1 -3.06769e-15 0)
(1 -4.07472e-15 0)
(1 -3.2137e-16 0)
(1 2.03654e-15 0)
(1 1.9707e-15 0)
(1 4.97067e-15 0)
(1 5.47792e-15 0)
(1 2.99475e-15 0)
(1 -5.5957e-16 0)
(1 1.49894e-15 0)
(1 3.66844e-15 0)
(1 3.46002e-15 0)
(1 3.83875e-16 0)
(1 1.98831e-15 0)
(1 2.98391e-15 0)
(1 3.13497e-15 0)
(1 3.06621e-15 0)
(1 6.1482e-15 0)
(1 1.27333e-15 0)
(1 -8.86413e-17 0)
(1 -1.18476e-15 0)
(1 -8.48223e-16 0)
(1 2.03653e-15 0)
(1 2.70727e-15 0)
(1 4.88564e-15 0)
(1 1.718e-15 0)
(1 1.01535e-15 0)
(1 -8.14073e-16 0)
(1 4.10889e-16 0)
(1 2.71008e-16 0)
(1 2.5012e-15 0)
(1 -1.07599e-15 0)
(1 -9.20816e-16 0)
(1 -1.25394e-15 0)
(1 3.87508e-16 0)
(1 1.59343e-15 0)
(1 -3.63331e-15 0)
(1 -3.51839e-15 0)
(1 -1.58854e-15 0)
(1 -5.24765e-16 0)
(1 -1.93257e-15 0)
(1 -4.05529e-16 0)
(1 -1.57715e-15 0)
(1 -2.32515e-15 0)
(1 -3.35635e-15 0)
(1 -4.42183e-15 0)
(1 -2.73619e-15 0)
(1 -9.2821e-16 0)
(1 7.50938e-16 0)
(1 9.03511e-16 0)
(1 2.69776e-15 0)
(1 3.63479e-15 0)
(1 4.963e-15 0)
(1 4.15853e-15 0)
(1 9.28111e-16 0)
(1 -2.24445e-15 0)
(1 2.47623e-15 0)
(1 3.14999e-15 0)
(1 5.07711e-17 0)
(1 -1.92676e-16 0)
(1 4.49547e-15 0)
(1 3.17416e-16 0)
(1 1.36232e-15 0)
(1 -1.94579e-15 0)
(1 1.02141e-15 0)
(1 8.51824e-15 0)
(1 6.49756e-16 0)
(1 4.29084e-15 0)
(1 1.3417e-15 0)
(1 -1.56349e-16 0)
(1 -1.46146e-15 0)
(1 2.67369e-15 0)
(1 1.08605e-15 0)
(1 4.11635e-15 0)
(1 2.32247e-16 0)
(1 -2.78563e-15 0)
(1 -2.25824e-15 0)
(1 1.03984e-15 0)
(1 8.0756e-16 0)
(1 -5.14069e-15 0)
(1 3.80488e-15 0)
(1 -5.04587e-15 0)
(1 4.04094e-15 0)
(1 5.94329e-16 0)
(1 9.39793e-16 0)
(1 -3.51892e-16 0)
(1 -8.66636e-16 0)
(1 2.88403e-16 0)
(1 -9.31068e-16 0)
(1 -1.3104e-15 0)
(1 4.98712e-16 0)
(1 -3.66917e-15 0)
(1 -2.00708e-15 0)
(1 1.58018e-15 0)
(1 -1.6122e-15 0)
(1 8.09626e-16 0)
(1 -4.55624e-15 0)
(1 2.18376e-15 0)
(1 -7.49611e-16 0)
(1 9.60227e-16 0)
(1 4.99265e-16 0)
(1 -1.6182e-15 0)
(1 1.27523e-16 0)
(1 2.22997e-15 0)
(1 3.92224e-15 0)
(1 9.52001e-16 0)
(1 1.91465e-15 0)
(1 1.06223e-15 0)
(1 1.26417e-16 0)
(1 1.36354e-15 0)
(1 3.59804e-15 0)
(1 3.20635e-15 0)
(1 1.04075e-15 0)
(1 1.10655e-15 0)
(1 3.0623e-15 0)
(1 4.60309e-15 0)
(1 4.40794e-15 0)
(1 4.78893e-15 0)
(1 4.28689e-16 0)
(1 2.24925e-15 0)
(1 -2.30424e-17 0)
(1 5.75783e-16 0)
(1 -5.54536e-16 0)
(1 -9.28566e-16 0)
(1 -6.76503e-16 0)
(1 2.59153e-15 0)
(1 2.45474e-15 0)
(1 -6.35219e-16 0)
(1 4.46083e-15 0)
(1 2.01357e-15 0)
(1 -1.73136e-15 0)
(1 -2.11407e-15 0)
(1 -2.42013e-15 0)
(1 2.9176e-15 0)
(1 -4.02523e-16 0)
(1 3.00167e-15 0)
(1 -1.07609e-15 0)
(1 -1.9332e-15 0)
(1 -9.72542e-16 0)
(1 -9.03439e-16 0)
(1 -1.99081e-16 0)
(1 -9.09828e-16 0)
(1 -1.61405e-15 0)
(1 5.85893e-16 0)
(1 -1.53065e-15 0)
(1 -5.67481e-16 0)
(1 -6.99026e-16 0)
(1 -9.4985e-16 0)
(1 -2.28495e-16 0)
(1 1.79419e-15 0)
(1 3.52751e-15 0)
(1 3.62384e-15 0)
(1 1.20012e-15 0)
(1 3.8647e-15 0)
(1 1.82729e-15 0)
(1 1.01081e-15 0)
(1 2.49912e-15 0)
(1 1.68787e-15 0)
(1 -4.84299e-16 0)
(1 8.9766e-16 0)
(1 -1.6335e-15 0)
(1 7.29878e-16 0)
(1 2.58005e-15 0)
(1 1.83394e-15 0)
(1 2.57232e-16 0)
(1 3.7711e-15 0)
(1 6.20313e-15 0)
(1 7.46339e-15 0)
(1 3.46853e-15 0)
(1 -2.77345e-15 0)
(1 1.02511e-15 0)
(1 4.653e-16 0)
(1 7.49609e-16 0)
(1 4.30376e-15 0)
(1 2.80635e-15 0)
(1 4.56418e-15 0)
(1 5.35445e-16 0)
(1 -2.01718e-15 0)
(1 -2.20466e-16 0)
(1 -6.09724e-15 0)
(1 8.74479e-17 0)
(1 -3.47039e-15 0)
(1 -4.48338e-15 0)
(1 -8.36578e-15 0)
(1 -5.55948e-15 0)
(1 -1.98352e-15 0)
(1 3.56704e-15 0)
(1 5.78436e-15 0)
(1 7.54717e-15 0)
(1 -3.13973e-16 0)
(1 6.77545e-16 0)
(1 -5.8785e-15 0)
(1 -4.29221e-15 0)
(1 -1.44569e-15 0)
(1 -2.13896e-15 0)
(1 -1.12597e-15 0)
(1 1.78056e-15 0)
(1 5.49127e-15 0)
(1 5.63385e-16 0)
(1 -2.30761e-15 0)
(1 -3.2532e-16 0)
(1 -4.44926e-15 0)
(1 -2.98244e-15 0)
(1 3.76533e-15 0)
(1 6.12659e-15 0)
(1 3.59688e-15 0)
(1 -1.2487e-15 0)
(1 1.73377e-15 0)
(1 3.49006e-15 0)
(1 1.7321e-15 0)
(1 -1.38712e-15 0)
(1 4.27544e-15 0)
(1 6.64578e-15 0)
(1 7.79534e-15 0)
(1 1.91425e-15 0)
(1 2.18004e-15 0)
(1 2.19025e-15 0)
(1 -1.53524e-15 0)
(1 -2.00344e-15 0)
(1 4.59347e-15 0)
(1 6.24727e-15 0)
(1 5.92163e-15 0)
(1 1.6528e-15 0)
(1 8.42253e-16 0)
(1 1.35698e-15 0)
(1 6.97545e-17 0)
(1 1.9827e-15 0)
(1 1.95955e-15 0)
(1 1.83019e-15 0)
(1 6.24625e-16 0)
(1 2.28354e-16 0)
(1 -2.2224e-15 0)
(1 -3.29303e-16 0)
(1 2.66427e-15 0)
(1 -1.17848e-15 0)
(1 -1.70826e-15 0)
(1 -2.18989e-15 0)
(1 -3.00386e-15 0)
(1 -2.85447e-16 0)
(1 -2.75723e-15 0)
(1 3.82185e-16 0)
(1 -8.55261e-16 0)
(1 -3.4592e-15 0)
(1 -7.68491e-16 0)
(1 -4.49365e-16 0)
(1 1.00846e-15 0)
(1 1.0288e-15 0)
(1 -3.31675e-15 0)
(1 -1.02877e-15 0)
(1 1.10742e-15 0)
(1 3.17578e-15 0)
(1 3.31114e-15 0)
(1 2.67262e-15 0)
(1 3.53453e-15 0)
(1 4.60669e-16 0)
(1 1.58319e-15 0)
(1 3.45084e-15 0)
(1 3.65747e-15 0)
(1 -1.11486e-15 0)
(1 -7.11311e-16 0)
(1 -3.42821e-15 0)
(1 9.33495e-16 0)
(1 3.91865e-16 0)
(1 6.56461e-15 0)
(1 2.03337e-15 0)
(1 -1.26015e-15 0)
(1 6.62577e-15 0)
(1 1.07473e-15 0)
(1 1.81888e-15 0)
(1 -1.33442e-15 0)
(1 1.17848e-15 0)
(1 3.91622e-15 0)
(1 2.35506e-15 0)
(1 3.15545e-15 0)
(1 -5.32361e-17 0)
(1 4.02871e-15 0)
(1 3.59331e-15 0)
(1 -3.03609e-15 0)
(1 -5.66833e-15 0)
(1 -2.22523e-15 0)
(1 -1.01453e-16 0)
(1 3.46082e-15 0)
(1 -2.66519e-15 0)
(1 -5.32998e-15 0)
(1 -2.14126e-15 0)
(1 -3.99015e-15 0)
(1 7.89951e-16 0)
(1 3.17139e-15 0)
(1 3.1939e-15 0)
(1 -2.27272e-15 0)
(1 -1.37855e-15 0)
(1 -3.40914e-15 0)
(1 -4.77529e-15 0)
(1 -1.22577e-15 0)
(1 4.13816e-16 0)
(1 2.16579e-15 0)
(1 1.21794e-15 0)
(1 -6.82051e-17 0)
(1 -2.71888e-15 0)
(1 -1.32601e-15 0)
(1 1.19333e-16 0)
(1 -1.04063e-15 0)
(1 4.49592e-15 0)
(1 -9.21558e-16 0)
(1 3.54714e-15 0)
(1 1.43279e-15 0)
(1 -1.45952e-15 0)
(1 1.95854e-15 0)
(1 2.52758e-15 0)
(1 4.91711e-15 0)
(1 9.7165e-16 0)
(1 5.62668e-15 0)
(1 8.21458e-15 0)
(1 6.74072e-15 0)
(1 6.16883e-15 0)
(1 -4.96385e-16 0)
(1 5.60901e-15 0)
(1 6.20447e-16 0)
(1 4.04478e-15 0)
(1 4.38386e-16 0)
(1 2.47992e-15 0)
(1 5.96831e-15 0)
(1 -3.85765e-15 0)
(1 1.08524e-15 0)
(1 7.7546e-17 0)
(1 -6.48175e-16 0)
(1 7.14217e-15 0)
(1 4.55298e-15 0)
(1 4.70492e-15 0)
(1 9.26569e-17 0)
(1 2.5921e-15 0)
(1 -8.27994e-16 0)
(1 7.18239e-16 0)
(1 1.9732e-15 0)
(1 -7.27216e-16 0)
(1 -6.45659e-16 0)
(1 6.54252e-16 0)
(1 1.59965e-15 0)
(1 4.13934e-16 0)
(1 6.16398e-16 0)
(1 -2.48223e-15 0)
(1 -1.85231e-15 0)
(1 -4.94558e-15 0)
(1 -4.36807e-15 0)
(1 -2.4088e-15 0)
(1 -1.84368e-15 0)
(1 -1.04857e-15 0)
(1 -1.23345e-15 0)
(1 -1.97659e-15 0)
(1 6.03573e-16 0)
(1 1.62933e-15 0)
(1 4.2646e-15 0)
(1 5.24591e-15 0)
(1 4.79121e-15 0)
(1 3.47185e-15 0)
(1 3.89976e-15 0)
(1 6.14908e-15 0)
(1 6.1262e-15 0)
(1 2.48708e-16 0)
(1 3.01664e-16 0)
(1 2.57955e-15 0)
(1 -1.12636e-15 0)
(1 1.97502e-15 0)
(1 -2.74623e-15 0)
(1 3.38102e-15 0)
(1 2.43084e-15 0)
(1 4.46096e-15 0)
(1 1.43808e-15 0)
(1 1.33074e-16 0)
(1 6.96033e-15 0)
(1 2.32063e-15 0)
(1 3.51566e-15 0)
(1 1.82124e-15 0)
(1 -1.21145e-15 0)
(1 -2.22525e-15 0)
(1 7.08205e-16 0)
(1 2.16081e-15 0)
(1 4.59717e-15 0)
(1 -2.224e-15 0)
(1 -1.76154e-15 0)
(1 -9.64979e-15 0)
(1 -1.07686e-15 0)
(1 9.93515e-16 0)
(1 1.98475e-15 0)
(1 -2.1258e-15 0)
(1 4.7823e-16 0)
(1 2.57823e-16 0)
(1 -2.22571e-15 0)
(1 -2.21201e-15 0)
(1 1.91647e-15 0)
(1 3.0008e-17 0)
(1 7.97617e-16 0)
(1 2.11262e-16 0)
(1 -1.73969e-15 0)
(1 -4.99118e-15 0)
(1 -3.76283e-16 0)
(1 -4.33514e-15 0)
(1 -5.9182e-15 0)
(1 -2.81428e-15 0)
(1 1.77186e-15 0)
(1 2.58348e-15 0)
(1 3.06162e-15 0)
(1 5.98966e-15 0)
(1 -9.3977e-16 0)
(1 9.29147e-16 0)
(1 5.93179e-16 0)
(1 1.2173e-15 0)
(1 2.54085e-15 0)
(1 -1.33027e-15 0)
(1 -1.17961e-15 0)
(1 4.35807e-15 0)
(1 4.76554e-15 0)
(1 8.22648e-15 0)
(1 5.56361e-15 0)
(1 3.65302e-15 0)
(1 -1.84634e-15 0)
(1 3.99128e-15 0)
(1 4.78548e-15 0)
(1 5.99121e-15 0)
(1 4.53132e-15 0)
(1 5.91136e-16 0)
(1 2.53979e-15 0)
(1 1.93539e-15 0)
(1 -7.73828e-16 0)
(1 2.65337e-15 0)
(1 3.05311e-15 0)
(1 6.65413e-15 0)
(1 6.04505e-15 0)
(1 5.71197e-15 0)
(1 1.36026e-15 0)
(1 1.13098e-17 0)
(1 2.74337e-16 0)
(1 6.83183e-16 0)
(1 -1.04867e-15 0)
(1 -3.26088e-16 0)
(1 -1.69918e-15 0)
(1 1.33518e-15 0)
(1 -2.87157e-16 0)
(1 9.96279e-16 0)
(1 -3.46085e-16 0)
(1 -2.54709e-15 0)
(1 -1.61114e-15 0)
(1 -4.77176e-15 0)
(1 -2.06743e-15 0)
(1 2.77659e-16 0)
(1 5.53924e-16 0)
(1 -2.78786e-15 0)
(1 -9.08212e-16 0)
(1 1.65071e-15 0)
(1 4.32592e-16 0)
(1 1.24662e-15 0)
(1 -4.91147e-16 0)
(1 6.89108e-15 0)
(1 1.92406e-15 0)
(1 4.06944e-15 0)
(1 5.66997e-15 0)
(1 6.10087e-15 0)
(1 6.75703e-15 0)
(1 -6.06968e-17 0)
(1 4.9364e-16 0)
(1 1.68557e-15 0)
(1 1.18055e-15 0)
(1 -1.05446e-15 0)
(1 -4.11623e-15 0)
(1 3.4199e-15 0)
(1 1.48563e-15 0)
(1 3.74877e-15 0)
(1 7.26369e-15 0)
(1 2.48134e-15 0)
(1 4.25176e-15 0)
(1 -9.56439e-16 0)
(1 -2.52439e-16 0)
(1 -4.99314e-16 0)
(1 -2.23939e-15 0)
(1 3.17516e-15 0)
(1 2.939e-15 0)
(1 3.60665e-15 0)
(1 2.13295e-15 0)
(1 -3.32849e-15 0)
(1 -4.01695e-15 0)
(1 -8.62632e-15 0)
(1 -2.47454e-15 0)
(1 -4.81539e-15 0)
(1 6.26152e-15 0)
(1 2.80063e-15 0)
(1 3.95693e-15 0)
(1 -9.24808e-16 0)
(1 -4.37544e-15 0)
(1 -3.70155e-15 0)
(1 8.71718e-17 0)
(1 -1.00671e-15 0)
(1 3.88848e-16 0)
(1 -5.01311e-16 0)
(1 -5.13343e-15 0)
(1 -2.63017e-15 0)
(1 -4.3997e-15 0)
(1 -4.99667e-15 0)
(1 -3.29675e-15 0)
(1 4.68048e-16 0)
(1 8.80439e-16 0)
(1 1.17636e-15 0)
(1 1.29245e-15 0)
(1 2.25127e-15 0)
(1 2.76367e-15 0)
(1 1.47618e-15 0)
(1 1.63494e-15 0)
(1 5.92916e-15 0)
(1 1.50953e-15 0)
(1 2.66287e-15 0)
(1 2.22619e-15 0)
(1 5.51453e-15 0)
(1 6.84325e-15 0)
(1 6.0943e-15 0)
(1 4.29524e-15 0)
(1 2.97005e-15 0)
(1 2.17857e-15 0)
(1 2.81856e-15 0)
(1 2.49823e-15 0)
(1 3.49394e-15 0)
(1 5.55831e-15 0)
(1 2.12671e-15 0)
(1 2.10229e-15 0)
(1 5.75329e-15 0)
(1 2.29841e-15 0)
(1 1.70629e-15 0)
(1 1.94395e-15 0)
(1 -4.68208e-15 0)
(1 9.6757e-16 0)
(1 3.48404e-15 0)
(1 6.63494e-15 0)
(1 3.03844e-15 0)
(1 1.39149e-15 0)
(1 -2.05748e-16 0)
(1 -4.43034e-15 0)
(1 3.25587e-15 0)
(1 -2.20445e-15 0)
(1 -3.31582e-15 0)
(1 1.738e-15 0)
(1 3.03548e-15 0)
(1 1.65668e-15 0)
(1 3.9039e-15 0)
(1 -9.54227e-16 0)
(1 -3.51542e-15 0)
(1 -2.23973e-15 0)
(1 -2.35564e-15 0)
(1 -4.49026e-15 0)
(1 -4.02008e-15 0)
(1 -4.57646e-15 0)
(1 5.43514e-15 0)
(1 -4.92157e-16 0)
(1 1.63919e-15 0)
(1 6.51668e-16 0)
(1 4.85753e-15 0)
(1 3.34258e-15 0)
(1 3.50898e-15 0)
(1 3.87874e-15 0)
(1 3.73877e-15 0)
(1 5.22749e-15 0)
(1 -3.97161e-16 0)
(1 1.26141e-15 0)
(1 -1.30173e-16 0)
(1 3.06939e-15 0)
(1 -2.90439e-15 0)
(1 4.80907e-15 0)
(1 -1.13527e-16 0)
(1 2.44275e-15 0)
(1 1.72288e-15 0)
(1 3.30429e-15 0)
(1 3.57056e-15 0)
(1 -1.38065e-15 0)
(1 7.57877e-16 0)
(1 1.32457e-15 0)
(1 3.38261e-15 0)
(1 -8.9554e-16 0)
(1 -4.13879e-17 0)
(1 -3.75526e-15 0)
(1 5.40942e-15 0)
(1 -3.09319e-15 0)
(1 -2.08874e-15 0)
(1 1.23161e-15 0)
(1 1.78269e-15 0)
(1 -2.56619e-15 0)
(1 -9.72134e-16 0)
(1 -3.59981e-16 0)
(1 2.65104e-15 0)
(1 1.23192e-15 0)
(1 1.01836e-15 0)
(1 -3.28869e-15 0)
(1 -1.99786e-15 0)
(1 -1.52528e-15 0)
(1 -4.91293e-15 0)
(1 -3.51411e-15 0)
(1 -4.6341e-15 0)
(1 -3.03435e-15 0)
(1 -2.23329e-15 0)
(1 -3.98048e-15 0)
(1 -1.34329e-15 0)
(1 2.75446e-16 0)
(1 2.982e-15 0)
(1 1.46749e-15 0)
(1 -1.5049e-15 0)
(1 4.87939e-15 0)
(1 2.16534e-15 0)
(1 5.50903e-16 0)
(1 1.98078e-15 0)
(1 -2.96839e-15 0)
(1 4.53133e-15 0)
(1 2.0889e-15 0)
(1 3.888e-15 0)
(1 4.39512e-15 0)
(1 4.20274e-15 0)
(1 5.18921e-15 0)
(1 3.59708e-15 0)
(1 -3.51967e-15 0)
(1 9.60885e-16 0)
(1 2.69717e-15 0)
(1 3.95188e-15 0)
(1 2.37517e-15 0)
(1 7.08482e-15 0)
(1 5.95966e-15 0)
(1 7.82182e-15 0)
(1 2.57597e-15 0)
(1 3.26382e-15 0)
(1 4.40481e-15 0)
(1 -1.10381e-16 0)
(1 1.1271e-15 0)
(1 -4.77336e-16 0)
(1 2.95243e-16 0)
(1 4.88473e-15 0)
(1 4.01134e-15 0)
(1 -1.80739e-15 0)
(1 -7.32135e-16 0)
(1 -6.05944e-16 0)
(1 -4.05091e-15 0)
(1 -8.53838e-16 0)
(1 -5.86863e-16 0)
(1 -2.1655e-15 0)
(1 4.12108e-15 0)
(1 3.18617e-15 0)
(1 1.05566e-15 0)
(1 2.43987e-15 0)
(1 -3.53899e-15 0)
(1 2.01834e-16 0)
(1 3.21955e-17 0)
(1 -4.36141e-15 0)
(1 -3.88571e-15 0)
(1 -1.38451e-15 0)
(1 1.30643e-15 0)
(1 2.43368e-15 0)
(1 -2.2347e-15 0)
(1 -9.39732e-16 0)
(1 1.11844e-15 0)
(1 2.37285e-15 0)
(1 5.65549e-15 0)
(1 4.7746e-15 0)
(1 4.76664e-15 0)
(1 3.06251e-15 0)
(1 2.21716e-15 0)
(1 1.77487e-16 0)
(1 8.98536e-16 0)
(1 -7.69935e-16 0)
(1 -1.68998e-15 0)
(1 2.16011e-15 0)
(1 4.68296e-16 0)
(1 -4.34761e-16 0)
(1 2.03188e-15 0)
(1 4.7319e-16 0)
(1 3.05459e-15 0)
(1 3.98163e-15 0)
(1 -6.33642e-16 0)
(1 1.70913e-15 0)
(1 3.94534e-16 0)
(1 3.19708e-15 0)
(1 -8.43572e-16 0)
(1 -2.9366e-15 0)
(1 -9.66428e-17 0)
(1 5.17325e-15 0)
(1 3.65101e-15 0)
(1 4.5475e-15 0)
(1 2.93417e-15 0)
(1 -4.99036e-15 0)
(1 -7.81431e-15 0)
(1 1.55535e-15 0)
(1 -2.94814e-15 0)
(1 -2.20563e-15 0)
(1 -1.39849e-15 0)
(1 2.43157e-15 0)
(1 1.79506e-16 0)
(1 -4.21894e-15 0)
(1 -3.20262e-15 0)
(1 -5.77187e-15 0)
(1 -7.08447e-15 0)
(1 9.0249e-16 0)
(1 -2.83692e-15 0)
(1 -9.35805e-16 0)
(1 -5.91022e-15 0)
(1 -5.43463e-16 0)
(1 1.7001e-15 0)
(1 4.39614e-15 0)
(1 2.91056e-15 0)
(1 -1.8397e-15 0)
(1 2.83791e-15 0)
(1 -4.03492e-16 0)
(1 4.44518e-15 0)
(1 3.02234e-15 0)
(1 3.21304e-15 0)
(1 -5.28659e-16 0)
(1 3.47611e-15 0)
(1 3.84798e-15 0)
(1 2.62786e-15 0)
(1 5.45131e-15 0)
(1 5.05587e-15 0)
(1 2.6878e-15 0)
(1 4.46643e-15 0)
(1 1.9292e-15 0)
(1 3.76582e-15 0)
(1 -2.70603e-15 0)
(1 1.3304e-15 0)
(1 -6.0093e-16 0)
(1 1.96241e-15 0)
(1 3.38631e-15 0)
(1 3.93637e-15 0)
(1 6.15705e-15 0)
(1 5.43431e-15 0)
(1 5.68414e-15 0)
(1 3.24335e-15 0)
(1 2.98239e-15 0)
(1 4.01163e-16 0)
(1 -6.02196e-15 0)
(1 -2.12395e-15 0)
(1 3.54328e-16 0)
(1 2.40841e-15 0)
(1 1.28123e-15 0)
(1 9.49855e-16 0)
(1 -3.47916e-15 0)
(1 1.42612e-16 0)
(1 2.14791e-15 0)
(1 -1.69011e-15 0)
(1 -1.76843e-15 0)
(1 -1.78565e-15 0)
(1 -1.23472e-15 0)
(1 -3.53807e-16 0)
(1 1.36181e-15 0)
(1 -6.18241e-16 0)
(1 -1.69484e-15 0)
(1 9.25483e-16 0)
(1 8.67538e-16 0)
(1 3.32894e-15 0)
(1 -2.38142e-15 0)
(1 -3.08911e-16 0)
(1 -2.52763e-16 0)
(1 -1.0924e-15 0)
(1 1.68695e-15 0)
(1 2.6443e-15 0)
(1 4.24249e-16 0)
(1 2.15065e-15 0)
(1 1.15293e-15 0)
(1 3.49954e-16 0)
(1 6.17418e-16 0)
(1 3.86601e-16 0)
(1 -8.83439e-16 0)
(1 -4.25939e-16 0)
(1 2.3798e-15 0)
(1 5.64989e-16 0)
(1 1.09532e-15 0)
(1 -6.83389e-16 0)
(1 5.75928e-16 0)
(1 4.45918e-15 0)
(1 4.55607e-15 0)
(1 3.27795e-15 0)
(1 -4.82349e-16 0)
(1 -1.95157e-15 0)
(1 -2.84409e-15 0)
(1 3.20333e-15 0)
(1 1.30274e-16 0)
(1 3.83325e-15 0)
(1 -5.01977e-15 0)
(1 1.8094e-15 0)
(1 1.71851e-15 0)
(1 4.58635e-15 0)
(1 -3.03193e-15 0)
(1 -2.28863e-15 0)
(1 -2.59644e-15 0)
(1 1.29617e-15 0)
(1 1.87918e-15 0)
(1 -1.63324e-15 0)
(1 3.06627e-15 0)
(1 -8.62302e-16 0)
(1 -1.99051e-15 0)
(1 -8.51732e-15 0)
(1 -4.61089e-15 0)
(1 -4.43874e-15 0)
(1 -5.92758e-15 0)
(1 -3.69198e-15 0)
(1 9.47276e-16 0)
(1 -4.00986e-15 0)
(1 2.13533e-15 0)
(1 -2.10074e-15 0)
(1 -9.845e-16 0)
(1 -1.45138e-16 0)
(1 7.40264e-15 0)
(1 3.76058e-15 0)
(1 2.17244e-15 0)
(1 6.16693e-15 0)
(1 -4.50826e-16 0)
(1 6.72869e-15 0)
(1 -2.70598e-15 0)
(1 -3.69133e-16 0)
(1 -3.20576e-15 0)
(1 6.96536e-16 0)
(1 5.84375e-15 0)
(1 7.41212e-15 0)
(1 1.2301e-15 0)
(1 9.85104e-15 0)
(1 4.22802e-15 0)
(1 4.08545e-15 0)
(1 7.89868e-17 0)
(1 2.69361e-15 0)
(1 1.01537e-15 0)
(1 4.28604e-16 0)
(1 2.4498e-16 0)
(1 7.40054e-15 0)
(1 1.39199e-15 0)
(1 3.85992e-15 0)
(1 5.86449e-15 0)
(1 4.29993e-15 0)
(1 1.04267e-15 0)
(1 2.21036e-16 0)
(1 -4.78222e-15 0)
(1 3.91333e-15 0)
(1 3.32871e-15 0)
(1 2.94713e-15 0)
(1 3.8498e-16 0)
(1 3.78725e-15 0)
(1 -6.70823e-16 0)
(1 1.91769e-15 0)
(1 -9.24286e-17 0)
(1 -4.81706e-15 0)
(1 -6.86989e-16 0)
(1 4.37834e-17 0)
(1 -3.57812e-15 0)
(1 9.84992e-16 0)
(1 -5.45056e-17 0)
(1 -1.49378e-15 0)
(1 -1.61722e-15 0)
(1 1.42753e-15 0)
(1 3.48281e-16 0)
(1 5.88981e-16 0)
(1 1.64243e-16 0)
(1 5.05975e-16 0)
(1 4.62334e-16 0)
(1 2.43333e-15 0)
(1 -2.93632e-16 0)
(1 2.20073e-15 0)
(1 -6.86352e-17 0)
(1 3.16651e-15 0)
(1 -2.78848e-16 0)
(1 -9.69925e-16 0)
(1 -4.2906e-17 0)
(1 1.15863e-15 0)
(1 -1.87644e-16 0)
(1 1.04866e-15 0)
(1 -1.77055e-16 0)
(1 2.62444e-15 0)
(1 -1.06435e-15 0)
(1 -2.13639e-16 0)
(1 3.31489e-15 0)
(1 -1.5507e-15 0)
(1 6.4813e-15 0)
(1 4.91159e-15 0)
(1 3.92567e-15 0)
(1 -4.79114e-15 0)
(1 -3.79604e-15 0)
(1 2.13603e-15 0)
(1 -2.93107e-15 0)
(1 3.21702e-15 0)
(1 -6.43595e-15 0)
(1 2.91214e-15 0)
(1 4.89065e-15 0)
(1 2.87887e-16 0)
(1 3.17282e-15 0)
(1 -2.19791e-15 0)
(1 -5.28632e-15 0)
(1 -4.80825e-15 0)
(1 -2.23393e-15 0)
(1 -5.43499e-16 0)
(1 2.61411e-16 0)
(1 -2.31156e-15 0)
(1 -2.19088e-15 0)
(1 -2.93947e-15 0)
(1 -1.66924e-15 0)
(1 -1.39179e-15 0)
(1 -4.15727e-15 0)
(1 -2.8196e-16 0)
(1 -4.80708e-15 0)
(1 -1.02552e-15 0)
(1 1.65556e-15 0)
(1 -3.53573e-15 0)
(1 -3.78333e-15 0)
(1 -1.05349e-15 0)
(1 7.76821e-15 0)
(1 2.58001e-15 0)
(1 4.97932e-15 0)
(1 1.88862e-15 0)
(1 -3.72621e-15 0)
(1 2.11121e-15 0)
(1 -9.97372e-16 0)
(1 -2.11056e-15 0)
(1 -5.32695e-16 0)
(1 3.45958e-15 0)
(1 7.3432e-15 0)
(1 7.10096e-15 0)
(1 7.72605e-15 0)
(1 7.02558e-15 0)
(1 3.0296e-15 0)
(1 5.50567e-15 0)
(1 3.44191e-15 0)
(1 1.16219e-15 0)
(1 3.82546e-15 0)
(1 2.56831e-16 0)
(1 5.15599e-15 0)
(1 2.23842e-15 0)
(1 4.51072e-15 0)
(1 4.7673e-15 0)
(1 5.4012e-15 0)
(1 3.44776e-15 0)
(1 4.02722e-15 0)
(1 2.27481e-15 0)
(1 4.87932e-15 0)
(1 9.41317e-16 0)
(1 -8.6881e-16 0)
(1 6.99813e-16 0)
(1 -6.42501e-16 0)
(1 9.0005e-16 0)
(1 1.49273e-16 0)
(1 2.36747e-15 0)
(1 -1.91323e-15 0)
(1 -4.76626e-15 0)
(1 4.27413e-16 0)
(1 -3.4557e-16 0)
(1 -3.01177e-15 0)
(1 -6.75835e-16 0)
(1 -1.95397e-15 0)
(1 -6.62987e-16 0)
(1 -1.6112e-15 0)
(1 1.87319e-15 0)
(1 -2.44025e-16 0)
(1 -1.96609e-15 0)
(1 -7.92377e-16 0)
(1 -1.29187e-15 0)
(1 -1.36886e-16 0)
(1 2.388e-15 0)
(1 1.01603e-15 0)
(1 1.07716e-16 0)
(1 -2.40159e-15 0)
(1 1.10496e-15 0)
(1 2.7133e-15 0)
(1 2.81434e-15 0)
(1 -6.41852e-16 0)
(1 1.04394e-15 0)
(1 1.35626e-15 0)
(1 -3.13471e-16 0)
(1 4.06122e-15 0)
(1 2.84263e-15 0)
(1 3.89051e-15 0)
(1 1.57756e-15 0)
(1 2.26763e-15 0)
(1 -2.487e-15 0)
(1 -7.84655e-16 0)
(1 4.52512e-16 0)
(1 2.25952e-15 0)
(1 4.59975e-17 0)
(1 -2.438e-15 0)
(1 -2.47663e-15 0)
(1 -2.37281e-15 0)
(1 1.41313e-15 0)
(1 5.37304e-15 0)
(1 -8.77377e-16 0)
(1 -1.15157e-15 0)
(1 -4.14401e-15 0)
(1 4.04222e-15 0)
(1 2.96389e-16 0)
(1 -3.66362e-15 0)
(1 -3.17111e-15 0)
(1 -1.19217e-15 0)
(1 1.88696e-15 0)
(1 -5.40738e-15 0)
(1 -1.47411e-15 0)
(1 -5.39431e-15 0)
(1 -2.97453e-16 0)
(1 -2.38318e-15 0)
(1 -3.68568e-15 0)
(1 -1.85636e-15 0)
(1 -3.21176e-15 0)
(1 -4.22833e-15 0)
(1 -1.68777e-15 0)
(1 -2.28832e-15 0)
(1 5.41165e-16 0)
(1 7.68906e-16 0)
(1 1.10091e-15 0)
(1 -7.01031e-16 0)
(1 3.82368e-15 0)
(1 4.08239e-15 0)
(1 2.56251e-15 0)
(1 1.53417e-15 0)
(1 -1.07768e-15 0)
(1 -2.64393e-15 0)
(1 -5.33095e-15 0)
(1 4.51495e-15 0)
(1 9.32824e-15 0)
(1 7.57949e-15 0)
(1 4.95979e-15 0)
(1 8.71442e-15 0)
(1 4.54706e-15 0)
(1 2.12907e-15 0)
(1 4.14492e-15 0)
(1 2.18287e-15 0)
(1 3.1056e-16 0)
(1 -5.86544e-16 0)
(1 2.73363e-15 0)
(1 2.68217e-15 0)
(1 -2.10044e-15 0)
(1 7.74313e-15 0)
(1 2.48223e-15 0)
(1 1.73644e-15 0)
(1 1.74227e-15 0)
(1 2.30633e-15 0)
(1 2.90163e-15 0)
(1 1.78824e-15 0)
(1 -2.53936e-15 0)
(1 -3.70106e-17 0)
(1 3.11217e-15 0)
(1 -2.31377e-16 0)
(1 4.03428e-16 0)
(1 -2.31853e-16 0)
(1 2.51964e-16 0)
(1 -4.63173e-16 0)
(1 3.98959e-16 0)
(1 -3.46826e-15 0)
(1 -3.57473e-15 0)
(1 1.96562e-16 0)
(1 -4.41238e-16 0)
(1 -4.09367e-16 0)
(1 -7.11934e-16 0)
(1 -4.82358e-16 0)
(1 2.16973e-15 0)
(1 1.29322e-15 0)
(1 -4.35487e-16 0)