/*--------------------------------*- C++ -*----------------------------------*\
| =========                 |                                                 |
| \\      /  F ield         | OpenFOAM: The Open Source CFD Toolbox           |
|  \\    /   O peration     | Version:  v2012                                 |
|   \\  /    A nd           | Website:  www.openfoam.com                      |
|    \\/     M anipulation  |                                                 |
\*---------------------------------------------------------------------------*/
FoamFile
{
    version     2.0;
    format      ascii;
    class       volVectorField;
    location    "0";
    object      U;
}
// * * * * * * * * * * * * * * * * * * * * * * * * * * * * * * * * * * * * * //

dimensions      [0 1 -1 0 0 0 0];


internalField   nonuniform List<vector> 
4000
(
(1 -1.46538e-15 0)
(1 3.6615e-15 0)
(1 -2.82104e-16 0)
(1 2.85009e-15 0)
(1 -9.43746e-16 0)
(1 -1.18898e-15 0)
(1 -1.43262e-15 0)
(1 1.80555e-15 0)
(1 -4.17955e-16 0)
(1 -5.22347e-15 0)
(1 1.00605e-15 0)
(1 2.58416e-15 0)
(1 3.31433e-15 0)
(1 1.48004e-15 0)
(1 2.65426e-15 0)
(1 3.88975e-15 0)
(1 -1.48515e-15 0)
(1 -9.55855e-15 0)
(1 -2.14217e-15 0)
(1 -5.53246e-15 0)
(1 1.39321e-16 0)
(1 -1.48799e-14 0)
(1 3.50835e-15 0)
(1 -3.70861e-15 0)
(1 4.10725e-15 0)
(1 -8.62542e-16 0)
(1 -2.89981e-15 0)
(1 3.63556e-15 0)
(1 5.9896e-15 0)
(1 9.24453e-15 0)
(1 4.58317e-15 0)
(1 -1.10042e-15 0)
(1 -1.65696e-15 0)
(1 2.75543e-15 0)
(1 -1.40993e-15 0)
(1 5.08797e-15 0)
(1 6.29988e-15 0)
(1 2.70752e-15 0)
(1 -2.52494e-15 0)
(1 -2.56212e-15 0)
(1 -1.59112e-15 0)
(1 3.09449e-16 0)
(1 -2.04631e-15 0)
(1 -1.22836e-15 0)
(1 -3.58928e-15 0)
(1 -2.09421e-15 0)
(1 2.20454e-15 0)
(1 2.32382e-15 0)
(1 -4.77697e-16 0)
(1 1.50238e-15 0)
(1 1.85752e-15 0)
(1 3.23444e-15 0)
(1 4.40127e-15 0)
(1 -2.52458e-15 0)
(1 -1.5968e-15 0)
(1 -3.38978e-15 0)
(1 -3.64926e-16 0)
(1 -2.1955e-15 0)
(1 -5.57429e-16 0)
(1 2.96951e-15 0)
(1 1.53985e-15 0)
(1 2.38084e-15 0)
(1 2.34376e-15 0)
(1 3.1655e-17 0)
(1 -4.86251e-15 0)
(1 2.08368e-16 0)
(1 -2.23516e-15 0)
(1 3.97878e-15 0)
(1 7.4027e-16 0)
(1 1.60961e-15 0)
(1 -3.37348e-15 0)
(1 2.77809e-16 0)
(1 -4.50418e-15 0)
(1 -2.52793e-15 0)
(1 -4.65105e-15 0)
(1 -9.97769e-16 0)
(1 -2.07565e-15 0)
(1 -1.1547e-15 0)
(1 4.00397e-15 0)
(1 -6.25676e-16 0)
(1 1.04436e-15 0)
(1 1.37276e-15 0)
(1 -1.37194e-15 0)
(1 -2.63759e-15 0)
(1 1.79721e-15 0)
(1 -1.70808e-15 0)
(1 8.33511e-16 0)
(1 5.60655e-15 0)
(1 -1.13246e-15 0)
(1 3.01211e-15 0)
(1 1.99751e-15 0)
(1 1.9018e-15 0)
(1 -4.07444e-15 0)
(1 -5.40155e-15 0)
(1 -2.39554e-15 0)
(1 -2.7243e-17 0)
(1 2.15007e-15 0)
(1 1.63862e-15 0)
(1 -3.00744e-15 0)
(1 -2.32966e-15 0)
(1 2.97783e-15 0)
(1 -3.26799e-15 0)
(1 3.95704e-15 0)
(1 5.60028e-15 0)
(1 7.61901e-16 0)
(1 -5.21495e-15 0)
(1 -1.85834e-15 0)
(1 -9.58997e-16 0)
(1 4.75948e-15 0)
(1 -7.21321e-15 0)
(1 9.11441e-16 0)
(1 4.90173e-15 0)
(1 4.30683e-15 0)
(1 3.88235e-15 0)
(1 6.3228e-15 0)
(1 6.08747e-15 0)
(1 -1.95066e-17 0)
(1 -1.38236e-14 0)
(1 -3.81784e-15 0)
(1 -7.82506e-15 0)
(1 3.31028e-15 0)
(1 -1.50236e-14 0)
(1 2.39704e-15 0)
(1 -7.12394e-15 0)
(1 6.90465e-15 0)
(1 -2.5039e-15 0)
(1 -6.54373e-15 0)
(1 1.88931e-15 0)
(1 2.8215e-15 0)
(1 6.91577e-15 0)
(1 4.03297e-15 0)
(1 -2.68207e-15 0)
(1 1.51788e-15 0)
(1 7.328e-15 0)
(1 1.86221e-15 0)
(1 5.57512e-15 0)
(1 2.54783e-15 0)
(1 3.79624e-15 0)
(1 -4.06964e-15 0)
(1 -5.76649e-15 0)
(1 -3.31733e-15 0)
(1 -2.90608e-15 0)
(1 -3.39301e-15 0)
(1 -3.2922e-15 0)
(1 -4.14153e-15 0)
(1 -1.62675e-15 0)
(1 -8.1558e-16 0)
(1 1.64978e-15 0)
(1 2.14219e-15 0)
(1 2.66142e-15 0)
(1 -2.31755e-15 0)
(1 1.90605e-15 0)
(1 1.19137e-15 0)
(1 3.16992e-15 0)
(1 -9.65696e-16 0)
(1 -3.28063e-15 0)
(1 -2.74585e-15 0)
(1 2.57281e-15 0)
(1 -2.11706e-15 0)
(1 1.53971e-15 0)
(1 -1.30769e-15 0)
(1 3.05389e-15 0)
(1 6.17655e-15 0)
(1 3.14497e-15 0)
(1 -6.48554e-16 0)
(1 -2.23641e-15 0)
(1 -3.68196e-15 0)
(1 -3.2e-16 0)
(1 1.31555e-15 0)
(1 -9.40175e-16 0)
(1 1.12282e-16 0)
(1 -1.03878e-16 0)
(1 1.27853e-15 0)
(1 -2.68562e-16 0)
(1 -1.31911e-15 0)
(1 3.48739e-15 0)
(1 2.37374e-15 0)
(1 3.72544e-16 0)
(1 8.06913e-15 0)
(1 1.36226e-15 0)
(1 -1.57952e-15 0)
(1 1.9708e-15 0)
(1 -4.144e-15 0)
(1 1.57256e-16 0)
(1 2.74467e-15 0)
(1 4.1343e-16 0)
(1 -2.34478e-15 0)
(1 6.4601e-16 0)
(1 -5.47059e-15 0)
(1 1.15555e-16 0)
(1 2.35137e-16 0)
(1 1.94399e-15 0)
(1 -6.25356e-15 0)
(1 -1.5855e-15 0)
(1 -2.40063e-15 0)
(1 1.17197e-15 0)
(1 2.7292e-15 0)
(1 6.65676e-15 0)
(1 -5.06709e-15 0)
(1 -4.20578e-15 0)
(1 5.28574e-15 0)
(1 -1.03795e-14 0)
(1 4.77301e-17 0)
(1 -1.24965e-16 0)
(1 -2.16569e-16 0)
(1 -1.32793e-15 0)
(1 1.17417e-16 0)
(1 4.30572e-18 0)
(1 3.38755e-15 0)
(1 3.44573e-15 0)
(1 2.38716e-15 0)
(1 7.0369e-15 0)
(1 -9.37286e-16 0)
(1 1.21598e-14 0)
(1 3.09286e-15 0)
(1 -4.37674e-15 0)
(1 -1.53265e-15 0)
(1 -1.45619e-15 0)
(1 -5.87245e-15 0)
(1 1.04381e-15 0)
(1 4.30795e-15 0)
(1 5.19301e-15 0)
(1 -7.98432e-15 0)
(1 -5.71272e-15 0)
(1 -2.40751e-15 0)
(1 -1.11576e-15 0)
(1 1.26305e-15 0)
(1 4.95418e-15 0)
(1 6.68745e-15 0)
(1 7.96378e-15 0)
(1 1.91457e-15 0)
(1 1.65374e-15 0)
(1 5.22189e-15 0)
(1 7.97385e-15 0)
(1 8.40958e-15 0)
(1 4.57394e-15 0)
(1 2.64193e-15 0)
(1 -1.12769e-15 0)
(1 -6.57385e-15 0)
(1 -3.75529e-15 0)
(1 -2.96333e-15 0)
(1 -8.20016e-15 0)
(1 -1.10267e-14 0)
(1 -8.35236e-15 0)
(1 -5.38921e-15 0)
(1 2.9243e-15 0)
(1 2.87292e-15 0)
(1 1.38118e-15 0)
(1 2.26303e-16 0)
(1 1.50791e-15 0)
(1 5.91191e-16 0)
(1 4.45738e-15 0)
(1 1.83795e-15 0)
(1 4.48701e-15 0)
(1 3.62556e-16 0)
(1 -7.18116e-16 0)
(1 -2.79783e-15 0)
(1 1.27303e-15 0)
(1 -3.79045e-15 0)
(1 -6.69541e-15 0)
(1 7.94914e-16 0)
(1 2.23122e-15 0)
(1 3.65541e-15 0)
(1 2.30276e-15 0)
(1 3.06272e-15 0)
(1 -1.06457e-15 0)
(1 -1.51147e-15 0)
(1 1.68422e-16 0)
(1 1.48917e-15 0)
(1 3.17857e-15 0)
(1 2.52022e-15 0)
(1 -2.92829e-15 0)
(1 -2.27476e-15 0)
(1 -2.5998e-15 0)
(1 -3.10515e-15 0)
(1 1.8754e-15 0)
(1 1.07662e-15 0)
(1 -9.06872e-16 0)
(1 1.44129e-15 0)
(1 2.51851e-17 0)
(1 1.05755e-15 0)
(1 -7.79941e-15 0)
(1 -3.65908e-15 0)
(1 -1.11974e-15 0)
(1 6.3368e-15 0)
(1 3.08141e-15 0)
(1 -1.31629e-15 0)
(1 6.84202e-16 0)
(1 -3.16782e-15 0)
(1 -1.30593e-16 0)
(1 -2.94323e-15 0)
(1 1.4763e-15 0)
(1 -4.48494e-15 0)
(1 -2.56403e-15 0)
(1 -6.97944e-16 0)
(1 -3.05821e-16 0)
(1 -2.03906e-15 0)
(1 2.73657e-15 0)
(1 -4.99221e-16 0)
(1 -1.31237e-15 0)
(1 5.01484e-15 0)
(1 -9.6922e-15 0)
(1 -4.32669e-15 0)
(1 -1.16793e-15 0)
(1 4.70994e-15 0)
(1 -1.26932e-15 0)
(1 9.95637e-16 0)
(1 4.10148e-15 0)
(1 -3.94045e-16 0)
(1 -1.43265e-16 0)
(1 8.79285e-15 0)
(1 5.02168e-15 0)
(1 6.57109e-15 0)
(1 1.05596e-14 0)
(1 2.74273e-15 0)
(1 -5.73297e-15 0)
(1 -1.69439e-15 0)
(1 -1.84012e-15 0)
(1 -8.12043e-15 0)
(1 -4.59618e-15 0)
(1 5.4938e-15 0)
(1 6.99931e-15 0)
(1 -2.31764e-15 0)
(1 6.50733e-15 0)
(1 1.67367e-15 0)
(1 -5.25509e-16 0)
(1 4.41975e-15 0)
(1 4.14992e-15 0)
(1 8.0063e-15 0)
(1 8.48905e-15 0)
(1 2.89694e-15 0)
(1 -1.23798e-15 0)
(1 -1.68281e-15 0)
(1 6.29152e-16 0)
(1 5.46866e-15 0)
(1 2.75094e-15 0)
(1 5.80876e-15 0)
(1 -4.00258e-15 0)
(1 -9.0316e-16 0)
(1 3.45259e-15 0)
(1 1.82189e-15 0)
(1 -3.99757e-15 0)
(1 -8.36187e-15 0)
(1 -6.04153e-15 0)
(1 -8.43659e-15 0)
(1 7.53222e-16 0)
(1 9.93728e-15 0)
(1 5.60896e-15 0)
(1 2.19118e-15 0)
(1 3.36417e-15 0)
(1 4.16772e-15 0)
(1 3.34293e-15 0)
(1 -7.63103e-16 0)
(1 -4.50263e-15 0)
(1 -4.83164e-15 0)
(1 1.00245e-15 0)
(1 -2.41405e-15 0)
(1 -7.69825e-15 0)
(1 -5.2917e-15 0)
(1 -4.97411e-15 0)
(1 1.83163e-15 0)
(1 4.78507e-15 0)
(1 4.84331e-15 0)
(1 5.06557e-15 0)
(1 1.54752e-15 0)
(1 -1.73963e-15 0)
(1 -2.51419e-15 0)
(1 -5.22538e-16 0)
(1 -1.15652e-15 0)
(1 1.54337e-15 0)
(1 -1.8709e-15 0)
(1 -1.27692e-15 0)
(1 -4.3709e-15 0)
(1 -5.38871e-15 0)
(1 -1.92797e-15 0)
(1 -9.75107e-16 0)
(1 5.93508e-16 0)
(1 1.29584e-15 0)
(1 9.63392e-16 0)
(1 2.982e-15 0)
(1 3.89674e-15 0)
(1 -4.62428e-15 0)
(1 -2.37692e-15 0)
(1 -4.84913e-15 0)
(1 -3.56116e-16 0)
(1 5.90881e-15 0)
(1 5.70451e-15 0)
(1 7.94094e-15 0)
(1 5.68806e-15 0)
(1 2.7955e-15 0)
(1 5.62368e-16 0)
(1 -1.84496e-15 0)
(1 -1.50534e-15 0)
(1 -7.23831e-16 0)
(1 -3.92034e-15 0)
(1 -5.06742e-15 0)
(1 -3.67694e-15 0)
(1 -8.96693e-15 0)
(1 -4.47077e-15 0)
(1 -8.8929e-16 0)
(1 3.38321e-15 0)
(1 -1.59068e-15 0)
(1 -2.9765e-15 0)
(1 2.26732e-15 0)
(1 4.49634e-15 0)
(1 -1.83554e-15 0)
(1 -5.38482e-15 0)
(1 -7.99119e-16 0)
(1 -4.10794e-15 0)
(1 -2.55485e-15 0)
(1 3.74918e-15 0)
(1 6.17242e-17 0)
(1 1.20407e-14 0)
(1 3.02947e-16 0)
(1 1.05388e-14 0)
(1 4.61397e-15 0)
(1 2.36594e-15 0)
(1 -8.72614e-15 0)
(1 -7.0581e-15 0)
(1 -1.03075e-14 0)
(1 -7.31695e-15 0)
(1 -5.72136e-15 0)
(1 1.37471e-14 0)
(1 1.09108e-14 0)
(1 1.56956e-14 0)
(1 2.87564e-15 0)
(1 4.83658e-15 0)
(1 7.39631e-15 0)
(1 4.25512e-15 0)
(1 5.89423e-15 0)
(1 4.05831e-15 0)
(1 -2.63151e-15 0)
(1 2.70407e-16 0)
(1 1.02689e-15 0)
(1 1.5309e-15 0)
(1 -3.26673e-16 0)
(1 8.30157e-16 0)
(1 -1.79447e-15 0)
(1 -4.69153e-15 0)
(1 -5.52558e-15 0)
(1 -4.96139e-15 0)
(1 -5.63621e-15 0)
(1 -4.2751e-15 0)
(1 -4.69628e-15 0)
(1 -5.45706e-15 0)
(1 -3.93887e-15 0)
(1 3.07321e-15 0)
(1 6.36955e-15 0)
(1 8.37403e-15 0)
(1 1.07642e-14 0)
(1 4.64698e-15 0)
(1 -1.30009e-15 0)
(1 -5.38928e-15 0)
(1 -2.17722e-15 0)
(1 -6.51233e-16 0)
(1 2.63609e-15 0)
(1 -3.84905e-16 0)
(1 -2.55117e-15 0)
(1 4.11204e-15 0)
(1 3.52442e-15 0)
(1 -3.68087e-15 0)
(1 -1.06286e-15 0)
(1 3.44254e-15 0)
(1 3.6735e-15 0)
(1 3.62384e-15 0)
(1 -3.97733e-15 0)
(1 1.91232e-15 0)
(1 -2.11121e-15 0)
(1 1.5339e-15 0)
(1 -1.38876e-17 0)
(1 4.22552e-15 0)
(1 -1.40396e-16 0)
(1 1.21504e-15 0)
(1 -5.26186e-15 0)
(1 -8.21843e-16 0)
(1 -1.51619e-15 0)
(1 3.05402e-15 0)
(1 4.09292e-15 0)
(1 8.67993e-16 0)
(1 8.73915e-15 0)
(1 2.72144e-15 0)
(1 1.82829e-15 0)
(1 -3.48362e-15 0)
(1 5.26842e-15 0)
(1 -1.01597e-15 0)
(1 3.81283e-15 0)
(1 5.00617e-15 0)
(1 1.23769e-17 0)
(1 5.9032e-15 0)
(1 -2.5782e-15 0)
(1 4.10875e-15 0)
(1 -5.63237e-15 0)
(1 -2.34765e-15 0)
(1 4.92453e-15 0)
(1 -6.73886e-15 0)
(1 -7.40735e-15 0)
(1 -1.99552e-15 0)
(1 -7.06036e-15 0)
(1 -4.82575e-15 0)
(1 1.08935e-15 0)
(1 -3.27666e-15 0)
(1 4.94369e-15 0)
(1 -1.00224e-16 0)
(1 4.18275e-15 0)
(1 6.70224e-16 0)
(1 3.70326e-16 0)
(1 -8.79139e-15 0)
(1 -1.04855e-14 0)
(1 -6.68887e-15 0)
(1 9.76558e-16 0)
(1 1.06704e-15 0)
(1 3.38526e-15 0)
(1 9.3379e-15 0)
(1 3.79904e-15 0)
(1 4.62659e-16 0)
(1 5.90528e-15 0)
(1 7.17048e-15 0)
(1 -1.62115e-15 0)
(1 1.31634e-15 0)
(1 -1.2352e-15 0)
(1 -1.01443e-15 0)
(1 1.10231e-14 0)
(1 1.04294e-14 0)
(1 -5.60861e-16 0)
(1 -3.86967e-15 0)
(1 -7.6169e-15 0)
(1 -3.24789e-15 0)
(1 6.24013e-15 0)
(1 3.8781e-15 0)
(1 1.07826e-14 0)
(1 7.27598e-15 0)
(1 8.99119e-15 0)
(1 3.61548e-15 0)
(1 6.41981e-15 0)
(1 2.96829e-15 0)
(1 7.95242e-15 0)
(1 6.65231e-15 0)
(1 -2.23869e-16 0)
(1 -1.54354e-14 0)
(1 -1.34377e-14 0)
(1 -3.46826e-15 0)
(1 -4.54257e-15 0)
(1 3.49844e-15 0)
(1 8.7746e-16 0)
(1 3.79616e-15 0)
(1 -1.35168e-15 0)
(1 6.36432e-16 0)
(1 -4.57423e-15 0)
(1 7.06549e-16 0)
(1 7.16495e-16 0)
(1 5.28385e-15 0)
(1 2.97615e-15 0)
(1 -5.5923e-16 0)
(1 -1.23065e-15 0)
(1 1.22207e-15 0)
(1 -1.7481e-16 0)
(1 -2.23079e-16 0)
(1 8.57086e-16 0)
(1 6.48048e-15 0)
(1 4.9801e-15 0)
(1 3.12941e-15 0)
(1 -5.60913e-16 0)
(1 -5.68031e-16 0)
(1 -5.10682e-15 0)
(1 7.14865e-16 0)
(1 5.13896e-15 0)
(1 8.35445e-15 0)
(1 8.74381e-15 0)
(1 1.00647e-14 0)
(1 1.76156e-14 0)
(1 9.30445e-15 0)
(1 1.34989e-15 0)
(1 -3.66996e-15 0)
(1 -3.21048e-15 0)
(1 -8.28493e-15 0)
(1 -8.62781e-15 0)
(1 -7.68013e-15 0)
(1 -2.7017e-15 0)
(1 3.50732e-15 0)
(1 1.61004e-14 0)
(1 8.25754e-15 0)
(1 3.61236e-15 0)
(1 -4.37386e-16 0)
(1 2.86536e-15 0)
(1 -2.49797e-15 0)
(1 -2.3416e-15 0)
(1 1.55659e-15 0)
(1 3.66667e-15 0)
(1 3.60947e-15 0)
(1 -9.04145e-16 0)
(1 -2.05607e-15 0)
(1 -8.12688e-16 0)
(1 -3.16783e-15 0)
(1 -3.72067e-15 0)
(1 1.30518e-15 0)
(1 -3.49347e-15 0)
(1 2.74353e-15 0)
(1 2.70699e-15 0)
(1 2.34698e-15 0)
(1 3.88384e-15 0)
(1 -4.15916e-15 0)
(1 1.37354e-16 0)
(1 -2.3738e-16 0)
(1 3.98813e-15 0)
(1 5.71075e-15 0)
(1 1.46879e-15 0)
(1 -1.66269e-15 0)
(1 -1.62378e-14 0)
(1 1.18989e-16 0)
(1 -3.8228e-15 0)
(1 -1.36912e-15 0)
(1 4.12571e-15 0)
(1 5.97722e-15 0)
(1 6.75102e-15 0)
(1 6.13713e-18 0)
(1 2.74007e-15 0)
(1 7.96109e-15 0)
(1 5.75677e-15 0)
(1 4.0907e-15 0)
(1 8.72069e-15 0)
(1 2.65636e-15 0)
(1 1.06537e-14 0)
(1 -4.57075e-15 0)
(1 -2.86805e-15 0)
(1 -1.04162e-14 0)
(1 -7.62393e-15 0)
(1 1.38836e-15 0)
(1 7.15477e-15 0)
(1 7.76636e-15 0)
(1 3.04785e-15 0)
(1 7.85428e-15 0)
(1 4.9127e-15 0)
(1 5.69058e-15 0)
(1 -5.06913e-16 0)
(1 -1.01601e-15 0)
(1 -3.12821e-16 0)
(1 6.58923e-15 0)
(1 6.88524e-16 0)
(1 -1.08762e-15 0)
(1 -3.87952e-15 0)
(1 1.90952e-15 0)
(1 6.8967e-16 0)
(1 2.60479e-15 0)
(1 3.74783e-15 0)
(1 5.37378e-15 0)
(1 -2.27375e-16 0)
(1 -6.8702e-15 0)
(1 -7.2893e-15 0)
(1 1.18556e-14 0)
(1 8.71708e-15 0)
(1 6.08822e-15 0)
(1 -2.11755e-15 0)
(1 -3.84355e-15 0)
(1 -7.76278e-16 0)
(1 -3.90323e-15 0)
(1 7.08293e-16 0)
(1 2.84825e-15 0)
(1 -7.00306e-16 0)
(1 -2.63092e-15 0)
(1 -1.27934e-16 0)
(1 3.37182e-15 0)
(1 5.11287e-15 0)
(1 4.55768e-15 0)
(1 1.3315e-15 0)
(1 1.4754e-16 0)
(1 1.77529e-15 0)
(1 4.42689e-15 0)
(1 4.13887e-15 0)
(1 5.31085e-15 0)
(1 4.76302e-15 0)
(1 -2.41824e-15 0)
(1 -2.27493e-15 0)
(1 -1.27211e-15 0)
(1 5.82895e-15 0)
(1 5.17766e-15 0)
(1 -6.76178e-16 0)
(1 -1.0683e-15 0)
(1 1.45667e-15 0)
(1 4.61223e-15 0)
(1 7.5169e-15 0)
(1 6.25959e-15 0)
(1 6.19751e-15 0)
(1 4.94759e-16 0)
(1 8.07777e-16 0)
(1 3.45606e-15 0)
(1 3.34127e-15 0)
(1 6.01181e-15 0)
(1 9.37135e-15 0)
(1 3.81192e-15 0)
(1 2.82362e-15 0)
(1 -2.87063e-16 0)
(1 1.51118e-15 0)
(1 5.89642e-16 0)
(1 1.34551e-15 0)
(1 5.76397e-15 0)
(1 1.86046e-15 0)
(1 2.88894e-15 0)
(1 5.44511e-15 0)
(1 4.31497e-15 0)
(1 5.11519e-15 0)
(1 -1.27945e-15 0)
(1 -7.58601e-16 0)
(1 -4.77373e-15 0)
(1 4.18527e-15 0)
(1 5.39714e-15 0)
(1 -2.7725e-17 0)
(1 3.59125e-15 0)
(1 -8.27544e-15 0)
(1 -2.11359e-15 0)
(1 -5.97224e-15 0)
(1 -1.15851e-14 0)
(1 8.50671e-16 0)
(1 2.27877e-15 0)
(1 9.8508e-15 0)
(1 1.16485e-14 0)
(1 6.09512e-15 0)
(1 5.71644e-16 0)
(1 6.92176e-15 0)
(1 2.69523e-15 0)
(1 1.69366e-14 0)
(1 -5.08464e-15 0)
(1 -5.08391e-16 0)
(1 -1.5105e-14 0)
(1 -8.4767e-15 0)
(1 -7.03919e-15 0)
(1 7.77711e-15 0)
(1 1.17516e-14 0)
(1 8.93261e-15 0)
(1 5.43513e-15 0)
(1 -8.21235e-15 0)
(1 -3.7149e-15 0)
(1 3.25109e-16 0)
(1 5.18888e-15 0)
(1 4.85815e-15 0)
(1 2.5151e-15 0)
(1 -3.75495e-15 0)
(1 5.66599e-16 0)
(1 7.51505e-15 0)
(1 2.42207e-15 0)
(1 -5.92824e-15 0)
(1 -9.58849e-15 0)
(1 5.35541e-16 0)
(1 -6.25869e-15 0)
(1 6.46028e-15 0)
(1 8.38996e-15 0)
(1 2.80069e-15 0)
(1 -3.31881e-15 0)
(1 -1.16579e-15 0)
(1 7.71833e-15 0)
(1 5.9414e-15 0)
(1 4.60838e-15 0)
(1 -2.82012e-15 0)
(1 7.60025e-15 0)
(1 7.55119e-15 0)
(1 4.81703e-15 0)
(1 -3.01257e-15 0)
(1 2.23724e-15 0)
(1 -5.31797e-15 0)
(1 -1.84795e-15 0)
(1 -2.32524e-15 0)
(1 1.49179e-15 0)
(1 4.89595e-15 0)
(1 6.28789e-15 0)
(1 4.64511e-15 0)
(1 2.14801e-15 0)
(1 2.68701e-15 0)
(1 8.00324e-15 0)
(1 5.78791e-15 0)
(1 5.87437e-15 0)
(1 -2.42154e-15 0)
(1 3.50918e-15 0)
(1 8.61794e-15 0)
(1 4.87235e-15 0)
(1 3.95151e-15 0)
(1 4.20383e-15 0)
(1 1.47262e-15 0)
(1 4.30448e-15 0)
(1 5.79477e-15 0)
(1 -2.22111e-15 0)
(1 -9.99869e-16 0)
(1 2.90033e-15 0)
(1 1.74958e-15 0)
(1 -1.25827e-16 0)
(1 -1.87e-15 0)
(1 7.78292e-15 0)
(1 8.62249e-15 0)
(1 3.51876e-15 0)
(1 1.08844e-15 0)
(1 -4.45057e-16 0)
(1 -7.41773e-16 0)
(1 3.45325e-15 0)
(1 3.48881e-16 0)
(1 4.06448e-15 0)
(1 6.00805e-15 0)
(1 3.97072e-15 0)
(1 2.58345e-15 0)
(1 -3.42399e-16 0)
(1 4.75264e-15 0)
(1 4.88355e-15 0)
(1 1.17046e-14 0)
(1 1.75014e-15 0)
(1 -2.63515e-15 0)
(1 5.11344e-15 0)
(1 -4.52285e-15 0)
(1 7.51701e-16 0)
(1 -4.16681e-15 0)
(1 -3.96751e-15 0)
(1 5.94512e-15 0)
(1 -1.23543e-14 0)
(1 -6.8374e-15 0)
(1 -2.12016e-15 0)
(1 7.65779e-15 0)
(1 7.47113e-15 0)
(1 4.88465e-15 0)
(1 4.90899e-15 0)
(1 1.03689e-14 0)
(1 -1.5341e-16 0)
(1 1.13178e-14 0)
(1 -2.27019e-15 0)
(1 3.48825e-15 0)
(1 4.06651e-15 0)
(1 -2.02484e-15 0)
(1 -8.10316e-15 0)
(1 -2.21984e-15 0)
(1 1.58304e-15 0)
(1 1.09829e-14 0)
(1 4.34277e-15 0)
(1 3.71356e-15 0)
(1 -4.38167e-15 0)
(1 -7.9722e-15 0)
(1 -1.5921e-14 0)
(1 -5.59414e-15 0)
(1 -3.37049e-15 0)
(1 3.73108e-15 0)
(1 7.98231e-15 0)
(1 6.1581e-15 0)
(1 -1.33521e-15 0)
(1 2.90103e-15 0)
(1 3.56834e-15 0)
(1 3.05081e-15 0)
(1 -4.13701e-15 0)
(1 4.50951e-15 0)
(1 2.50427e-15 0)
(1 9.90002e-15 0)
(1 5.41949e-15 0)
(1 9.05879e-15 0)
(1 8.50785e-15 0)
(1 2.15518e-15 0)
(1 -9.32965e-15 0)
(1 -3.9862e-15 0)
(1 1.48718e-15 0)
(1 4.02849e-15 0)
(1 1.02857e-14 0)
(1 5.90728e-15 0)
(1 2.98163e-15 0)
(1 -3.277e-15 0)
(1 -4.59651e-15 0)
(1 3.91531e-15 0)
(1 -4.09485e-15 0)
(1 5.893e-15 0)
(1 -2.12592e-15 0)
(1 7.45791e-15 0)
(1 -2.14344e-15 0)
(1 -8.00827e-15 0)
(1 -6.31018e-16 0)
(1 1.33011e-14 0)
(1 1.62994e-14 0)
(1 1.51233e-14 0)
(1 1.55489e-14 0)
(1 1.34735e-14 0)
(1 9.51634e-15 0)
(1 1.31201e-14 0)
(1 6.53982e-15 0)
(1 8.89555e-16 0)
(1 -7.01747e-15 0)
(1 -4.27779e-15 0)
(1 -2.21744e-16 0)
(1 2.25846e-15 0)
(1 -1.67498e-15 0)
(1 8.16157e-15 0)
(1 6.03594e-15 0)
(1 4.59381e-15 0)
(1 6.41866e-15 0)
(1 2.54291e-15 0)
(1 -2.58205e-15 0)
(1 -2.02224e-15 0)
(1 -4.95393e-15 0)
(1 5.80486e-16 0)
(1 4.93303e-15 0)
(1 3.26071e-15 0)
(1 3.95743e-15 0)
(1 5.18463e-15 0)
(1 8.5292e-15 0)
(1 8.17569e-15 0)
(1 1.07235e-14 0)
(1 6.11369e-15 0)
(1 1.14353e-14 0)
(1 1.13825e-14 0)
(1 1.55243e-14 0)
(1 2.12425e-14 0)
(1 1.13227e-15 0)
(1 3.05878e-15 0)
(1 6.85247e-15 0)
(1 -2.00782e-16 0)
(1 -3.34781e-15 0)
(1 2.14973e-15 0)
(1 -4.80193e-16 0)
(1 1.68304e-15 0)
(1 -6.17746e-15 0)
(1 -7.93155e-15 0)
(1 3.97724e-15 0)
(1 1.90114e-15 0)
(1 7.13728e-15 0)
(1 4.15256e-15 0)
(1 5.12074e-15 0)
(1 3.0097e-15 0)
(1 1.44899e-15 0)
(1 5.1864e-15 0)
(1 -1.97455e-16 0)
(1 -1.16665e-14 0)
(1 5.96866e-16 0)
(1 -1.22814e-14 0)
(1 7.80023e-16 0)
(1 2.48119e-15 0)
(1 5.30202e-15 0)
(1 1.18089e-14 0)
(1 6.43949e-15 0)
(1 7.01922e-16 0)
(1 2.70552e-15 0)
(1 -2.1643e-15 0)
(1 -9.75427e-15 0)
(1 -7.98732e-15 0)
(1 -5.76431e-15 0)
(1 -3.83428e-15 0)
(1 -2.6589e-15 0)
(1 2.84142e-15 0)
(1 8.82554e-16 0)
(1 1.53273e-15 0)
(1 5.742e-15 0)
(1 8.49094e-15 0)
(1 3.77095e-15 0)
(1 2.81919e-15 0)
(1 7.69258e-15 0)
(1 1.97444e-15 0)
(1 -3.81519e-15 0)
(1 4.70871e-15 0)
(1 -1.82673e-15 0)
(1 1.32373e-15 0)
(1 -4.57074e-15 0)
(1 6.89542e-15 0)
(1 5.42563e-15 0)
(1 9.22365e-15 0)
(1 5.71219e-15 0)
(1 4.78181e-15 0)
(1 2.39941e-15 0)
(1 6.43863e-15 0)
(1 1.14678e-15 0)
(1 9.16169e-15 0)
(1 -3.46875e-15 0)
(1 2.59984e-15 0)
(1 3.91757e-15 0)
(1 4.55281e-15 0)
(1 8.30354e-15 0)
(1 4.77143e-15 0)
(1 5.10107e-15 0)
(1 9.57722e-15 0)
(1 9.3968e-15 0)
(1 1.05811e-14 0)
(1 1.21961e-14 0)
(1 7.9708e-15 0)
(1 2.65608e-15 0)
(1 3.4915e-15 0)
(1 1.75209e-15 0)
(1 4.44428e-15 0)
(1 6.61887e-17 0)
(1 4.14017e-15 0)
(1 4.78659e-15 0)
(1 6.95237e-15 0)
(1 7.63777e-15 0)
(1 5.32969e-15 0)
(1 9.46105e-16 0)
(1 3.90696e-16 0)
(1 2.42594e-15 0)
(1 -1.05651e-15 0)
(1 1.94532e-15 0)
(1 7.08253e-16 0)
(1 4.68235e-15 0)
(1 1.15329e-15 0)
(1 8.18629e-15 0)
(1 4.05722e-15 0)
(1 3.73191e-15 0)
(1 2.8763e-15 0)
(1 7.58881e-15 0)
(1 9.44444e-15 0)
(1 1.05213e-14 0)
(1 5.07333e-15 0)
(1 1.23428e-14 0)
(1 9.11336e-15 0)
(1 2.52924e-14 0)
(1 2.23132e-14 0)
(1 4.06542e-16 0)
(1 -1.32676e-16 0)
(1 1.07681e-15 0)
(1 4.24903e-15 0)
(1 -3.31035e-15 0)
(1 1.71011e-15 0)
(1 -7.70319e-16 0)
(1 -8.84896e-15 0)
(1 2.39313e-15 0)
(1 -8.13696e-15 0)
(1 -1.03469e-15 0)
(1 -1.2412e-14 0)
(1 5.41484e-15 0)
(1 7.12187e-15 0)
(1 8.38333e-15 0)
(1 6.86098e-15 0)
(1 3.86971e-15 0)
(1 -2.73887e-16 0)
(1 5.42229e-15 0)
(1 -5.72644e-15 0)
(1 -1.8234e-15 0)
(1 -7.55907e-15 0)
(1 -4.52991e-15 0)
(1 -5.89219e-15 0)
(1 -5.08292e-15 0)
(1 2.5644e-15 0)
(1 8.64022e-15 0)
(1 6.91115e-15 0)
(1 7.01326e-15 0)
(1 -1.25973e-15 0)
(1 -6.47569e-15 0)
(1 -4.72794e-15 0)
(1 -5.10184e-15 0)
(1 -4.9097e-15 0)
(1 1.43053e-16 0)
(1 5.09276e-15 0)
(1 6.08062e-15 0)
(1 3.5654e-15 0)
(1 5.47062e-15 0)
(1 8.10038e-16 0)
(1 1.03939e-14 0)
(1 -3.09859e-16 0)
(1 1.20428e-14 0)
(1 -2.43496e-15 0)
(1 -1.4109e-15 0)
(1 -3.70181e-15 0)
(1 1.50339e-15 0)
(1 2.88362e-15 0)
(1 -3.64794e-17 0)
(1 2.4288e-15 0)
(1 6.47409e-15 0)
(1 5.62242e-15 0)
(1 6.15592e-15 0)
(1 4.20929e-15 0)
(1 7.36935e-15 0)
(1 1.74958e-15 0)
(1 3.46292e-15 0)
(1 -2.97765e-15 0)
(1 7.42946e-15 0)
(1 -3.70923e-15 0)
(1 1.07465e-14 0)
(1 -4.74659e-15 0)
(1 8.60964e-15 0)
(1 6.04936e-15 0)
(1 1.07712e-14 0)
(1 2.53166e-15 0)
(1 8.76114e-15 0)
(1 6.87561e-15 0)
(1 9.59988e-15 0)
(1 7.9037e-15 0)
(1 6.75318e-15 0)
(1 4.23296e-15 0)
(1 5.01899e-15 0)
(1 -3.89255e-15 0)
(1 -3.67965e-15 0)
(1 4.23869e-15 0)
(1 1.18145e-14 0)
(1 1.33239e-14 0)
(1 1.3339e-14 0)
(1 1.88147e-15 0)
(1 1.79419e-15 0)
(1 3.89094e-15 0)
(1 1.42685e-15 0)
(1 -4.03043e-15 0)
(1 8.9981e-16 0)
(1 -8.48911e-16 0)
(1 6.37562e-15 0)
(1 2.75928e-15 0)
(1 7.10801e-15 0)
(1 7.66937e-15 0)
(1 4.17143e-15 0)
(1 2.05546e-15 0)
(1 3.11036e-15 0)
(1 1.26741e-15 0)
(1 7.07746e-15 0)
(1 8.93217e-15 0)
(1 1.09567e-14 0)
(1 1.01907e-14 0)
(1 1.36615e-14 0)
(1 1.22358e-14 0)
(1 3.83362e-15 0)
(1 -4.29903e-15 0)
(1 2.69573e-15 0)
(1 -1.15629e-15 0)
(1 2.54537e-15 0)
(1 -2.78763e-16 0)
(1 -6.03695e-15 0)
(1 -9.29105e-15 0)
(1 -3.2468e-15 0)
(1 4.73415e-15 0)
(1 6.07492e-15 0)
(1 6.85687e-15 0)
(1 1.1484e-15 0)
(1 -1.57699e-15 0)
(1 1.09031e-15 0)
(1 5.26786e-15 0)
(1 8.88041e-15 0)
(1 -1.92375e-15 0)
(1 -4.11374e-15 0)
(1 -8.51265e-15 0)
(1 -1.10416e-14 0)
(1 -6.18877e-15 0)
(1 3.42029e-16 0)
(1 8.16329e-15 0)
(1 1.01429e-14 0)
(1 4.83572e-15 0)
(1 6.06174e-15 0)
(1 4.72322e-15 0)
(1 4.87002e-15 0)
(1 2.71481e-15 0)
(1 -2.24497e-15 0)
(1 -7.3735e-15 0)
(1 -4.62212e-15 0)
(1 -6.43274e-15 0)
(1 1.42994e-15 0)
(1 -1.86264e-15 0)
(1 -1.65707e-15 0)
(1 -4.99626e-15 0)
(1 5.69684e-15 0)
(1 1.17314e-15 0)
(1 8.27048e-15 0)
(1 -2.77614e-15 0)
(1 -3.33829e-16 0)
(1 -7.88384e-15 0)
(1 3.95409e-15 0)
(1 3.30244e-15 0)
(1 1.50037e-14 0)
(1 1.07314e-14 0)
(1 8.07303e-15 0)
(1 2.34211e-15 0)
(1 2.82549e-15 0)
(1 2.44855e-15 0)
(1 -3.82103e-16 0)
(1 6.40831e-15 0)
(1 8.45655e-15 0)
(1 3.77824e-15 0)
(1 1.06035e-15 0)
(1 1.20651e-15 0)
(1 5.42938e-15 0)
(1 2.28537e-15 0)
(1 1.12404e-15 0)
(1 3.79611e-15 0)
(1 6.63961e-15 0)
(1 5.03538e-15 0)
(1 6.05385e-15 0)
(1 4.20454e-16 0)
(1 3.32731e-15 0)
(1 7.59634e-15 0)
(1 5.61734e-16 0)
(1 6.28282e-15 0)
(1 2.86224e-15 0)
(1 3.35132e-15 0)
(1 1.1587e-14 0)
(1 1.78132e-15 0)
(1 2.60324e-15 0)
(1 2.65672e-15 0)
(1 6.46261e-15 0)
(1 1.94923e-15 0)
(1 8.96157e-15 0)
(1 8.25235e-15 0)
(1 7.22243e-15 0)
(1 1.16322e-14 0)
(1 7.03012e-15 0)
(1 4.38208e-15 0)
(1 6.24613e-16 0)
(1 -7.71863e-15 0)
(1 5.42188e-17 0)
(1 3.59478e-15 0)
(1 4.57132e-15 0)
(1 9.38245e-15 0)
(1 3.88799e-15 0)
(1 7.44995e-15 0)
(1 2.30453e-15 0)
(1 7.22886e-15 0)
(1 4.33391e-15 0)
(1 1.12994e-14 0)
(1 9.98636e-15 0)
(1 1.61213e-14 0)
(1 3.02582e-15 0)
(1 4.08846e-15 0)
(1 4.29141e-15 0)
(1 4.00902e-15 0)
(1 -4.62047e-15 0)
(1 -2.01883e-15 0)
(1 3.35375e-16 0)
(1 2.30427e-15 0)
(1 1.44318e-15 0)
(1 1.96376e-15 0)
(1 -3.47891e-15 0)
(1 1.2315e-14 0)
(1 4.29084e-15 0)
(1 1.22829e-14 0)
(1 -3.82579e-16 0)
(1 -5.98962e-15 0)
(1 -6.78196e-15 0)
(1 -4.93327e-15 0)
(1 1.45773e-15 0)
(1 3.95843e-15 0)
(1 4.06549e-15 0)
(1 -3.40319e-15 0)
(1 -4.10042e-15 0)
(1 -4.22974e-15 0)
(1 -6.97171e-15 0)
(1 -8.91314e-15 0)
(1 -4.27545e-15 0)
(1 2.12232e-15 0)
(1 7.84146e-15 0)
(1 -1.40211e-15 0)
(1 -3.07056e-15 0)
(1 -5.3313e-15 0)
(1 2.35216e-16 0)
(1 -5.58079e-15 0)
(1 -4.93986e-15 0)
(1 6.07035e-15 0)
(1 9.49047e-16 0)
(1 3.744e-15 0)
(1 3.70131e-15 0)
(1 7.53206e-15 0)
(1 5.47148e-15 0)
(1 8.39844e-16 0)
(1 -1.00679e-14 0)
(1 -4.99087e-15 0)
(1 -9.82735e-15 0)
(1 -1.29419e-15 0)
(1 6.40446e-15 0)
(1 6.34097e-15 0)
(1 4.77954e-15 0)
(1 8.85976e-15 0)
(1 1.56874e-14 0)
(1 4.6342e-15 0)
(1 -2.32855e-15 0)
(1 1.05529e-15 0)
(1 4.8045e-16 0)
(1 4.15372e-15 0)
(1 3.68247e-15 0)
(1 4.95078e-15 0)
(1 1.93934e-15 0)
(1 3.44125e-15 0)
(1 -2.86284e-15 0)
(1 -2.12144e-15 0)
(1 -4.02972e-15 0)
(1 8.57872e-15 0)
(1 1.41906e-14 0)
(1 1.79898e-14 0)
(1 1.08886e-14 0)
(1 6.16577e-15 0)
(1 -1.1164e-15 0)
(1 7.89691e-16 0)
(1 -3.32611e-15 0)
(1 -2.64832e-16 0)
(1 3.22995e-15 0)
(1 6.47763e-15 0)
(1 4.98022e-15 0)
(1 8.91204e-15 0)
(1 1.10852e-14 0)
(1 4.06043e-15 0)
(1 -6.81954e-15 0)
(1 -9.08782e-16 0)
(1 5.23598e-15 0)
(1 7.11268e-15 0)
(1 5.40833e-15 0)
(1 7.36351e-15 0)
(1 4.90935e-15 0)
(1 2.19647e-15 0)
(1 2.94633e-15 0)
(1 6.58391e-15 0)
(1 3.00505e-15 0)
(1 2.93324e-15 0)
(1 2.03758e-15 0)
(1 3.16414e-15 0)
(1 2.67365e-15 0)
(1 3.39288e-15 0)
(1 -8.30926e-16 0)
(1 4.06781e-15 0)
(1 5.06771e-17 0)
(1 7.53132e-15 0)
(1 1.08175e-14 0)
(1 1.0394e-14 0)
(1 6.9765e-15 0)
(1 7.38349e-15 0)
(1 -3.04753e-15 0)
(1 8.20885e-15 0)
(1 -1.60381e-15 0)
(1 -3.05647e-15 0)
(1 -2.03975e-15 0)
(1 -1.99592e-16 0)
(1 7.20527e-16 0)
(1 8.1274e-15 0)
(1 1.22201e-14 0)
(1 1.06508e-14 0)
(1 -3.20294e-15 0)
(1 -1.17416e-15 0)
(1 2.82241e-16 0)
(1 1.11885e-16 0)
(1 -1.96425e-15 0)
(1 -4.37766e-15 0)
(1 -2.72035e-15 0)
(1 -5.3145e-17 0)
(1 3.0957e-15 0)
(1 -5.72163e-15 0)
(1 -6.51353e-15 0)
(1 -6.49452e-15 0)
(1 -5.27126e-15 0)
(1 -6.10364e-15 0)
(1 1.16574e-15 0)
(1 2.23108e-16 0)
(1 -2.13235e-15 0)
(1 9.44301e-16 0)
(1 -3.03708e-15 0)
(1 -6.57112e-15 0)
(1 -4.13361e-15 0)
(1 -4.68375e-15 0)
(1 -3.30974e-15 0)
(1 9.22689e-16 0)
(1 9.28678e-15 0)
(1 1.28842e-14 0)
(1 9.68405e-15 0)
(1 8.15356e-15 0)
(1 -1.70001e-15 0)
(1 4.02062e-15 0)
(1 -7.98832e-15 0)
(1 -4.98585e-15 0)
(1 -6.02432e-15 0)
(1 6.46314e-15 0)
(1 8.36777e-15 0)
(1 2.04783e-15 0)
(1 1.47568e-15 0)
(1 2.24754e-15 0)
(1 9.90883e-15 0)
(1 6.74074e-15 0)
(1 -3.66536e-16 0)
(1 -6.55771e-15 0)
(1 -1.52566e-15 0)
(1 -5.44469e-15 0)
(1 5.49767e-15 0)
(1 6.17651e-15 0)
(1 7.73831e-15 0)
(1 5.83471e-15 0)
(1 8.77894e-15 0)
(1 4.39566e-15 0)
(1 1.14961e-15 0)
(1 1.08817e-15 0)
(1 4.51897e-15 0)
(1 5.57565e-15 0)
(1 1.09262e-14 0)
(1 1.17965e-14 0)
(1 5.14527e-15 0)
(1 3.6969e-15 0)
(1 2.50296e-15 0)
(1 4.28279e-15 0)
(1 6.64776e-15 0)
(1 1.00931e-14 0)
(1 2.48561e-15 0)
(1 7.78372e-15 0)
(1 5.89116e-15 0)
(1 6.92421e-15 0)
(1 1.99692e-15 0)
(1 1.25984e-14 0)
(1 1.19656e-14 0)
(1 6.36684e-15 0)
(1 4.94936e-15 0)
(1 -7.90506e-17 0)
(1 1.07291e-15 0)
(1 -6.34486e-16 0)
(1 3.43223e-15 0)
(1 1.0201e-14 0)
(1 3.49214e-15 0)
(1 3.80756e-15 0)
(1 5.44234e-15 0)
(1 5.48818e-15 0)
(1 -8.17308e-17 0)
(1 2.30628e-15 0)
(1 -8.89714e-16 0)
(1 -3.57575e-16 0)
(1 8.54484e-16 0)
(1 6.93735e-15 0)
(1 1.72778e-14 0)
(1 9.26914e-15 0)
(1 1.45479e-14 0)
(1 1.2926e-14 0)
(1 3.74687e-16 0)
(1 5.03338e-15 0)
(1 3.29084e-15 0)
(1 -2.83404e-15 0)
(1 1.2596e-15 0)
(1 4.1526e-15 0)
(1 -5.92578e-15 0)
(1 -7.8161e-15 0)
(1 3.63236e-15 0)
(1 6.52718e-15 0)
(1 3.42036e-15 0)
(1 3.22288e-15 0)
(1 -7.25457e-15 0)
(1 4.58702e-15 0)
(1 1.79627e-15 0)
(1 -8.84491e-15 0)
(1 -4.01968e-15 0)
(1 -8.39955e-15 0)
(1 -4.14095e-15 0)
(1 -5.16376e-15 0)
(1 -1.3142e-14 0)
(1 6.61058e-15 0)
(1 9.74169e-15 0)
(1 1.6388e-14 0)
(1 1.4317e-14 0)
(1 6.84253e-15 0)
(1 -9.79756e-15 0)
(1 -9.44702e-15 0)
(1 -6.82731e-15 0)
(1 -1.93996e-15 0)
(1 -4.53774e-15 0)
(1 -1.27905e-15 0)
(1 1.05991e-15 0)
(1 -8.27653e-15 0)
(1 2.83146e-15 0)
(1 -2.22785e-15 0)
(1 8.24504e-15 0)
(1 4.62471e-15 0)
(1 -1.84963e-15 0)
(1 3.98435e-15 0)
(1 5.81248e-16 0)
(1 8.19773e-15 0)
(1 -5.80145e-16 0)
(1 1.45769e-15 0)
(1 -3.1735e-16 0)
(1 -4.73682e-16 0)
(1 4.23579e-15 0)
(1 2.4408e-15 0)
(1 4.37036e-16 0)
(1 8.41693e-15 0)
(1 5.75291e-15 0)
(1 2.96246e-15 0)
(1 -4.89365e-15 0)
(1 1.50642e-15 0)
(1 7.46628e-15 0)
(1 3.18935e-15 0)
(1 4.4123e-15 0)
(1 2.12061e-15 0)
(1 3.82717e-15 0)
(1 3.84769e-15 0)
(1 6.75247e-15 0)
(1 5.29333e-15 0)
(1 6.30214e-15 0)
(1 7.68298e-15 0)
(1 8.35603e-15 0)
(1 6.31407e-15 0)
(1 1.1831e-14 0)
(1 9.60351e-15 0)
(1 1.06082e-14 0)
(1 8.73549e-15 0)
(1 7.60589e-15 0)
(1 7.81974e-15 0)
(1 3.16086e-15 0)
(1 2.09384e-15 0)
(1 4.93728e-15 0)
(1 7.93581e-15 0)
(1 9.37535e-15 0)
(1 7.82867e-15 0)
(1 8.37373e-15 0)
(1 1.06266e-14 0)
(1 4.17381e-15 0)
(1 5.74181e-16 0)
(1 3.43791e-15 0)
(1 2.14602e-15 0)
(1 4.16712e-15 0)
(1 1.39022e-16 0)
(1 -1.38853e-16 0)
(1 -1.26493e-15 0)
(1 4.60298e-16 0)
(1 4.54849e-16 0)
(1 1.12861e-15 0)
(1 6.37363e-16 0)
(1 6.84281e-15 0)
(1 4.07732e-15 0)
(1 8.2645e-15 0)
(1 5.18596e-15 0)
(1 9.94824e-15 0)
(1 1.26626e-14 0)
(1 1.61168e-14 0)
(1 1.35772e-14 0)
(1 -6.31334e-16 0)
(1 2.18958e-16 0)
(1 -6.38948e-15 0)
(1 6.09658e-15 0)
(1 5.06033e-16 0)
(1 6.1156e-15 0)
(1 9.28108e-15 0)
(1 1.09237e-14 0)
(1 3.63139e-15 0)
(1 -5.70981e-16 0)
(1 -1.07219e-15 0)
(1 -1.16351e-14 0)
(1 -4.75637e-15 0)
(1 -1.54936e-15 0)
(1 2.84581e-15 0)
(1 -2.2161e-15 0)
(1 -3.07281e-15 0)
(1 -3.03981e-15 0)
(1 -9.4236e-15 0)
(1 -7.50512e-15 0)
(1 -5.37475e-15 0)
(1 -1.06611e-15 0)
(1 3.17198e-15 0)
(1 -2.53854e-15 0)
(1 1.27876e-15 0)
(1 -1.66042e-15 0)
(1 -4.32155e-15 0)
(1 -1.47451e-14 0)
(1 -9.40864e-15 0)
(1 -2.76186e-15 0)
(1 -3.84769e-15 0)
(1 3.65882e-15 0)
(1 9.8979e-16 0)
(1 1.02756e-14 0)
(1 4.12649e-15 0)
(1 6.43962e-15 0)
(1 7.67097e-15 0)
(1 9.60848e-16 0)
(1 8.49491e-16 0)
(1 -2.25531e-15 0)
(1 2.49752e-15 0)
(1 6.02664e-15 0)
(1 8.76478e-15 0)
(1 1.51796e-15 0)
(1 -6.89275e-15 0)
(1 -5.93412e-15 0)
(1 -1.31658e-15 0)
(1 1.70028e-15 0)
(1 2.41405e-15 0)
(1 -2.09621e-15 0)
(1 8.73882e-15 0)
(1 5.53087e-15 0)
(1 2.12654e-15 0)
(1 4.42617e-16 0)
(1 2.40399e-16 0)
(1 6.88183e-16 0)
(1 8.70042e-15 0)
(1 3.26401e-15 0)
(1 2.02976e-15 0)
(1 -5.02721e-15 0)
(1 3.07679e-15 0)
(1 7.62512e-16 0)
(1 6.07948e-16 0)
(1 1.06913e-14 0)
(1 7.92586e-16 0)
(1 -5.44e-15 0)
(1 8.45997e-15 0)
(1 4.18215e-15 0)
(1 1.51743e-14 0)
(1 4.75731e-15 0)
(1 9.3476e-15 0)
(1 5.91966e-15 0)
(1 7.32284e-15 0)
(1 2.31908e-15 0)
(1 7.92775e-15 0)
(1 1.36768e-15 0)
(1 8.36812e-15 0)
(1 9.09435e-15 0)
(1 4.92945e-15 0)
(1 1.16245e-14 0)
(1 -1.33055e-15 0)
(1 6.89893e-15 0)
(1 2.48956e-15 0)
(1 2.62057e-15 0)
(1 -9.67554e-16 0)
(1 -3.19008e-15 0)
(1 -1.49647e-15 0)
(1 -2.97624e-15 0)
(1 -1.58459e-15 0)
(1 6.53075e-16 0)
(1 6.96255e-15 0)
(1 1.84327e-15 0)
(1 7.70726e-15 0)
(1 4.15051e-15 0)
(1 5.73964e-15 0)