/*--------------------------------*- C++ -*----------------------------------*\
| =========                 |                                                 |
| \\      /  F ield         | OpenFOAM: The Open Source CFD Toolbox           |
|  \\    /   O peration     | Version:  v2012                                 |
|   \\  /    A nd           | Website:  www.openfoam.com                      |
|    \\/     M anipulation  |                                                 |
\*---------------------------------------------------------------------------*/
FoamFile
{
    version     2.0;
    format      ascii;
    class       volScalarField;
    location    "19";
    object      Psi_z;
}
// * * * * * * * * * * * * * * * * * * * * * * * * * * * * * * * * * * * * * //

dimensions      [0 2 -1 0 0 0 0];


internalField   nonuniform List<scalar> 
65536
(
8.0029e-06
2.40091e-05
4.00164e-05
5.60255e-05
7.20372e-05
8.80521e-05
0.000104071
0.000120095
0.000136123
0.000152158
0.0001682
0.000184249
0.000200306
0.000216372
0.000232446
0.000248531
0.000264626
0.000280732
0.000296849
0.000312978
0.000329119
0.000345273
0.00036144
0.00037762
0.000393814
0.000410022
0.000426243
0.00044248
0.00045873
0.000474996
0.000491275
0.000507569
0.000523878
0.0005402
0.000556537
0.000572888
0.000589251
0.000605628
0.000622017
0.000638418
0.000654831
0.000671253
0.000687686
0.000704127
0.000720576
0.000737032
0.000753494
0.000769959
0.000786428
0.000802898
0.000819367
0.000835835
0.000852299
0.000868757
0.000885208
0.000901648
0.000918076
0.00093449
0.000950886
0.000967262
0.000983615
0.000999942
0.00101624
0.00103251
0.00104874
0.00106493
0.00108107
0.00109717
0.00111322
0.00112921
0.00114515
0.00116102
0.00117681
0.00119254
0.00120819
0.00122375
0.00123922
0.0012546
0.00126987
0.00128504
0.0013001
0.00131503
0.00132984
0.00134452
0.00135906
0.00137346
0.0013877
0.00140179
0.00141571
0.00142945
0.00144301
0.00145639
0.00146957
0.00148254
0.00149531
0.00150786
0.00152017
0.00153226
0.0015441
0.00155569
0.00156702
0.00157809
0.00158888
0.00159939
0.00160961
0.00161954
0.00162915
0.00163846
0.00164744
0.0016561
0.00166442
0.0016724
0.00168004
0.00168731
0.00169423
0.00170077
0.00170695
0.00171274
0.00171815
0.00172317
0.00172779
0.00173201
0.00173583
0.00173925
0.00174224
0.00174483
0.001747
0.00174874
0.00175007
0.00175097
0.00175144
0.00175149
0.00175111
0.00175031
0.00174907
0.00174741
0.00174533
0.00174282
0.00173989
0.00173653
0.00173276
0.00172858
0.00172398
0.00171898
0.00171357
0.00170776
0.00170156
0.00169497
0.00168799
0.00168063
0.0016729
0.0016648
0.00165634
0.00164753
0.00163837
0.00162886
0.00161902
0.00160886
0.00159837
0.00158758
0.00157647
0.00156507
0.00155339
0.00154142
0.00152917
0.00151666
0.0015039
0.00149088
0.00147762
0.00146413
0.00145042
0.00143648
0.00142234
0.00140799
0.00139344
0.00137871
0.0013638
0.00134872
0.00133347
0.00131807
0.00130251
0.00128681
0.00127097
0.00125501
0.00123891
0.0012227
0.00120638
0.00118995
0.00117342
0.0011568
0.00114009
0.0011233
0.00110643
0.00108948
0.00107247
0.0010554
0.00103826
0.00102107
0.00100383
0.000986547
0.000969219
0.000951853
0.000934452
0.000917019
0.000899558
0.000882072
0.000864563
0.000847035
0.00082949
0.000811931
0.00079436
0.000776779
0.000759191
0.000741597
0.000724
0.0007064
0.0006888
0.000671201
0.000653604
0.000636011
0.000618423
0.000600841
0.000583265
0.000565697
0.000548138
0.000530588
0.000513047
0.000495516
0.000477996
0.000460487
0.000442989
0.000425502
0.000408027
0.000390562
0.00037311
0.000355668
0.000338238
0.000320818
0.000303409
0.000286011
0.000268623
0.000251244
0.000233874
0.000216513
0.000199161
0.000181816
0.000164478
0.000147146
0.000129821
0.000112501
9.5185e-05
7.78732e-05
6.05647e-05
4.32587e-05
2.59545e-05
8.65138e-06
2.40084e-05
7.20263e-05
0.000120048
0.000168074
0.000216108
0.000264153
0.000312208
0.000360278
0.000408365
0.000456469
0.000504593
0.000552739
0.00060091
0.000649106
0.00069733
0.000745583
0.000793867
0.000842184
0.000890535
0.000938921
0.000987344
0.00103581
0.00108431
0.00113285
0.00118143
0.00123005
0.00127872
0.00132743
0.00137618
0.00142497
0.00147381
0.00152269
0.00157162
0.00162059
0.0016696
0.00171865
0.00176774
0.00181687
0.00186604
0.00191525
0.00196448
0.00201375
0.00206305
0.00211238
0.00216172
0.00221109
0.00226048
0.00230988
0.00235928
0.00240869
0.00245811
0.00250751
0.0025569
0.00260628
0.00265564
0.00270496
0.00275425
0.00280349
0.00285268
0.00290181
0.00295087
0.00299986
0.00304876
0.00309756
0.00314625
0.00319482
0.00324327
0.00329157
0.00333972
0.0033877
0.00343551
0.00348312
0.00353052
0.0035777
0.00362464
0.00367133
0.00371776
0.00376389
0.00380972
0.00385524
0.00390041
0.00394523
0.00398967
0.00403371
0.00407734
0.00412053
0.00416327
0.00420553
0.00424729
0.00428854
0.00432923
0.00436937
0.00440891
0.00444785
0.00448615
0.0045238
0.00456076
0.00459702
0.00463255
0.00466734
0.00470134
0.00473455
0.00476693
0.00479847
0.00482914
0.00485892
0.00488778
0.0049157
0.00494266
0.00496864
0.00499361
0.00501756
0.00504046
0.0050623
0.00508305
0.0051027
0.00512123
0.00513861
0.00515484
0.0051699
0.00518378
0.00519645
0.00520791
0.00521815
0.00522715
0.00523491
0.00524141
0.00524666
0.00525063
0.00525333
0.00525476
0.0052549
0.00525377
0.00525135
0.00524765
0.00524266
0.00523641
0.00522888
0.00522008
0.00521002
0.00519871
0.00518615
0.00517236
0.00515734
0.00514111
0.00512368
0.00510507
0.00508529
0.00506435
0.00504227
0.00501907
0.00499477
0.00496939
0.00494294
0.00491544
0.00488692
0.0048574
0.00482689
0.00479543
0.00476303
0.00472972
0.00469551
0.00466044
0.00462452
0.00458778
0.00455025
0.00451194
0.00447289
0.00443311
0.00439263
0.00435147
0.00430965
0.00426721
0.00422416
0.00418052
0.00413632
0.00409158
0.00404633
0.00400058
0.00395436
0.00390768
0.00386057
0.00381305
0.00376514
0.00371686
0.00366822
0.00361925
0.00356996
0.00352037
0.0034705
0.00342036
0.00336997
0.00331936
0.00326852
0.00321748
0.00316624
0.00311484
0.00306326
0.00301154
0.00295968
0.0029077
0.00285559
0.00280339
0.00275109
0.0026987
0.00264624
0.00259371
0.00254112
0.00248848
0.0024358
0.00238309
0.00233034
0.00227758
0.00222479
0.002172
0.0021192
0.0020664
0.0020136
0.00196081
0.00190803
0.00185526
0.00180251
0.00174979
0.00169708
0.0016444
0.00159175
0.00153913
0.00148654
0.00143398
0.00138145
0.00132896
0.00127649
0.00122407
0.00117168
0.00111932
0.00106699
0.0010147
0.000962444
0.000910217
0.000858023
0.000805858
0.000753722
0.000701613
0.000649531
0.000597474
0.00054544
0.000493426
0.000441433
0.000389457
0.000337497
0.000285551
0.000233616
0.000181692
0.000129774
7.78624e-05
2.59538e-05
4.00128e-05
0.00012004
0.000200073
0.000280115
0.00036017
0.000440241
0.000520332
0.000600446
0.000680587
0.000760759
0.000840964
0.000921206
0.00100149
0.00108181
0.00116218
0.0012426
0.00132308
0.0014036
0.00148419
0.00156483
0.00164553
0.0017263
0.00180713
0.00188803
0.001969
0.00205004
0.00213115
0.00221233
0.00229358
0.00237491
0.00245631
0.00253778
0.00261932
0.00270093
0.00278262
0.00286437
0.00294619
0.00302808
0.00311003
0.00319204
0.0032741
0.00335622
0.00343839
0.0035206
0.00360285
0.00368514
0.00376745
0.00384978
0.00393213
0.00401449
0.00409685
0.0041792
0.00426153
0.00434383
0.00442609
0.00450831
0.00459046
0.00467254
0.00475453
0.00483643
0.00491821
0.00499986
0.00508137
0.00516271
0.00524388
0.00532485
0.0054056
0.00548612
0.00556639
0.00564637
0.00572606
0.00580543
0.00588445
0.0059631
0.00604136
0.00611919
0.00619658
0.00627349
0.0063499
0.00642577
0.00650108
0.00657579
0.00664988
0.00672331
0.00679605
0.00686806
0.00693932
0.00700978
0.0070794
0.00714816
0.00721602
0.00728293
0.00734887
0.00741379
0.00747765
0.00754042
0.00760205
0.00766251
0.00772176
0.00777975
0.00783646
0.00789183
0.00794583
0.00799842
0.00804956
0.00809921
0.00814734
0.0081939
0.00823886
0.00828218
0.00832383
0.00836377
0.00840196
0.00843837
0.00847298
0.00850575
0.00853664
0.00856564
0.00859271
0.00861782
0.00864096
0.0086621
0.00868122
0.00869829
0.0087133
0.00872624
0.00873709
0.00874583
0.00875247
0.00875697
0.00875935
0.00875959
0.0087577
0.00875367
0.0087475
0.00873919
0.00872876
0.0087162
0.00870153
0.00868476
0.00866589
0.00864495
0.00862196
0.00859692
0.00856985
0.00854079
0.00850975
0.00847676
0.00844185
0.00840503
0.00836635
0.00832583
0.00828349
0.00823939
0.00819354
0.00814598
0.00809675
0.00804589
0.00799342
0.0079394
0.00788385
0.00782682
0.00776834
0.00770845
0.00764719
0.00758461
0.00752074
0.00745562
0.00738929
0.00732179
0.00725317
0.00718345
0.00711269
0.00704091
0.00696816
0.00689447
0.00681988
0.00674443
0.00666816
0.0065911
0.00651328
0.00643474
0.00635552
0.00627565
0.00619515
0.00611407
0.00603243
0.00595026
0.00586759
0.00578446
0.00570088
0.00561688
0.0055325
0.00544776
0.00536267
0.00527727
0.00519157
0.00510561
0.00501939
0.00493294
0.00484629
0.00475944
0.00467242
0.00458524
0.00449791
0.00441047
0.00432291
0.00423526
0.00414752
0.00405971
0.00397185
0.00388393
0.00379598
0.003708
0.00362001
0.003532
0.00344399
0.00335599
0.003268
0.00318003
0.00309208
0.00300417
0.00291629
0.00282844
0.00274064
0.00265289
0.00256518
0.00247753
0.00238993
0.00230238
0.00221489
0.00212745
0.00204007
0.00195275
0.00186549
0.00177828
0.00169113
0.00160404
0.00151699
0.00143
0.00134306
0.00125617
0.00116933
0.00108252
0.000995764
0.000909042
0.000822356
0.000735702
0.000649078
0.00056248
0.000475905
0.00038935
0.000302811
0.000216284
0.000129767
4.32551e-05
5.60154e-05
0.000168049
0.00028009
0.000392143
0.000504215
0.00061631
0.000728432
0.000840587
0.00095278
0.00106502
0.0011773
0.00128963
0.00140202
0.00151447
0.00162699
0.00173957
0.00185223
0.00196496
0.00207778
0.00219067
0.00230366
0.00241673
0.00252989
0.00264315
0.0027565
0.00286995
0.00298351
0.00309716
0.00321091
0.00332477
0.00343873
0.00355279
0.00366695
0.00378121
0.00389557
0.00401003
0.00412458
0.00423923
0.00435396
0.00446877
0.00458367
0.00469864
0.00481368
0.00492878
0.00504394
0.00515915
0.0052744
0.00538968
0.00550498
0.00562029
0.0057356
0.0058509
0.00596618
0.00608141
0.0061966
0.00631171
0.00642675
0.00654168
0.00665649
0.00677116
0.00688567
0.00700001
0.00711414
0.00722805
0.00734171
0.00745509
0.00756817
0.00768093
0.00779333
0.00790534
0.00801694
0.00812808
0.00823874
0.00834889
0.00845849
0.00856749
0.00867588
0.00878359
0.0088906
0.00899687
0.00910234
0.00920699
0.00931076
0.00941361
0.00951549
0.00961635
0.00971616
0.00981485
0.00991238
0.0100087
0.0101037
0.0101975
0.0102898
0.0103808
0.0104702
0.0105582
0.0106445
0.0107292
0.0108122
0.0108935
0.0109729
0.0110505
0.0111261
0.0111998
0.0112715
0.011341
0.0114085
0.0114737
0.0115367
0.0115974
0.0116558
0.0117117
0.0117652
0.0118163
0.0118648
0.0119107
0.011954
0.0119946
0.0120325
0.0120677
0.0121001
0.0121298
0.0121566
0.0121805
0.0122015
0.0122197
0.0122349
0.0122471
0.0122564
0.0122627
0.0122661
0.0122664
0.0122638
0.0122581
0.0122495
0.0122379
0.0122232
0.0122056
0.0121851
0.0121616
0.0121352
0.0121058
0.0120736
0.0120385
0.0120006
0.0119599
0.0119164
0.0118702
0.0118212
0.0117697
0.0117155
0.0116587
0.0115994
0.0115376
0.0114733
0.0114067
0.0113377
0.0112665
0.011193
0.0111173
0.0110395
0.0109596
0.0108776
0.0107937
0.0107079
0.0106203
0.0105308
0.0104396
0.0103466
0.0102521
0.010156
0.0100583
0.00995918
0.00985864
0.00975673
0.00965351
0.00954904
0.00944336
0.00933653
0.00922859
0.0091196
0.0090096
0.00889864
0.00878677
0.00867404
0.00856048
0.00844614
0.00833106
0.00821529
0.00809886
0.00798181
0.00786418
0.00774601
0.00762733
0.00750818
0.00738859
0.00726858
0.0071482
0.00702747
0.00690642
0.00678507
0.00666346
0.0065416
0.00641953
0.00629726
0.00617481
0.00605221
0.00592948
0.00580663
0.00568368
0.00556065
0.00543756
0.00531441
0.00519123
0.00506802
0.0049448
0.00482158
0.00469837
0.00457517
0.00445201
0.00432887
0.00420579
0.00408275
0.00395976
0.00383684
0.00371398
0.00359118
0.00346847
0.00334582
0.00322325
0.00310076
0.00297835
0.00285602
0.00273378
0.00261161
0.00248952
0.00236751
0.00224558
0.00212372
0.00200194
0.00188022
0.00175858
0.001637
0.00151548
0.00139402
0.00127261
0.00115125
0.00102994
0.000908672
0.00078744
0.00066624
0.000545067
0.000423918
0.000302786
0.000181666
6.05546e-05
7.20153e-05
0.000216049
0.000360093
0.000504154
0.000648237
0.00079235
0.000936499
0.00108069
0.00122493
0.00136922
0.00151358
0.001658
0.0018025
0.00194707
0.00209173
0.00223647
0.00238131
0.00252624
0.00267128
0.00281643
0.00296169
0.00310706
0.00325256
0.00339817
0.00354391
0.00368977
0.00383576
0.00398189
0.00412814
0.00427453
0.00442104
0.00456769
0.00471448
0.00486139
0.00500842
0.00515559
0.00530288
0.00545028
0.0055978
0.00574543
0.00589316
0.00604099
0.00618891
0.00633691
0.00648499
0.00663313
0.00678132
0.00692955
0.00707781
0.00722609
0.00737437
0.00752263
0.00767086
0.00781905
0.00796717
0.00811521
0.00826313
0.00841093
0.00855858
0.00870605
0.00885332
0.00900036
0.00914714
0.00929363
0.00943981
0.00958563
0.00973107
0.00987609
0.0100207
0.0101647
0.0103083
0.0104512
0.0105936
0.0107352
0.0108762
0.0110164
0.0111558
0.0112944
0.0114321
0.0115688
0.0117044
0.0118391
0.0119726
0.0121049
0.0122359
0.0123657
0.0124941
0.0126211
0.0127466
0.0128705
0.0129928
0.0131134
0.0132322
0.0133492
0.0134644
0.0135775
0.0136886
0.0137976
0.0139044
0.014009
0.0141112
0.0142111
0.0143084
0.0144032
0.0144955
0.014585
0.0146718
0.0147557
0.0148368
0.014915
0.0149901
0.0150621
0.015131
0.0151967
0.0152591
0.0153182
0.0153739
0.0154262
0.0154751
0.0155204
0.0155621
0.0156003
0.0156348
0.0156656
0.0156927
0.015716
0.0157356
0.0157514
0.0157634
0.0157715
0.0157758
0.0157762
0.0157728
0.0157656
0.0157545
0.0157395
0.0157207
0.015698
0.0156716
0.0156413
0.0156073
0.0155696
0.0155281
0.0154829
0.0154341
0.0153817
0.0153258
0.0152663
0.0152033
0.0151369
0.0150672
0.0149941
0.0149177
0.0148382
0.0147555
0.0146698
0.014581
0.0144893
0.0143947
0.0142973
0.0141972
0.0140943
0.0139889
0.0138809
0.0137705
0.0136577
0.0135426
0.0134252
0.0133056
0.013184
0.0130603
0.0129346
0.0128071
0.0126777
0.0125466
0.0124138
0.0122794
0.0121434
0.012006
0.0118671
0.0117269
0.0115854
0.0114427
0.0112988
0.0111537
0.0110077
0.0108606
0.0107126
0.0105636
0.0104139
0.0102633
0.010112
0.00996003
0.00980739
0.00965413
0.00950031
0.00934597
0.00919114
0.00903587
0.00888018
0.00872412
0.00856772
0.00841101
0.00825402
0.00809677
0.00793931
0.00778165
0.00762381
0.00746583
0.00730773
0.00714952
0.00699124
0.00683288
0.00667448
0.00651605
0.0063576
0.00619916
0.00604073
0.00588232
0.00572395
0.00556562
0.00540736
0.00524915
0.00509102
0.00493296
0.004775
0.00461711
0.00445933
0.00430164
0.00414405
0.00398656
0.00382917
0.00367189
0.00351472
0.00335764
0.00320068
0.00304381
0.00288704
0.00273037
0.0025738
0.00241731
0.00226092
0.0021046
0.00194837
0.00179221
0.00163613
0.0014801
0.00132414
0.00116823
0.00101237
0.000856547
0.000700762
0.000545007
0.000389274
0.000233558
7.78515e-05
8.8012e-05
0.00026404
0.00044008
0.000616141
0.00079223
0.000968355
0.00114452
0.00132074
0.00149703
0.00167337
0.0018498
0.0020263
0.00220289
0.00237958
0.00255637
0.00273327
0.00291029
0.00308742
0.00326469
0.00344208
0.00361961
0.00379728
0.0039751
0.00415306
0.00433118
0.00450946
0.00468789
0.00486648
0.00504524
0.00522415
0.00540323
0.00558247
0.00576187
0.00594143
0.00612115
0.00630103
0.00648105
0.00666122
0.00684153
0.00702198
0.00720256
0.00738325
0.00756406
0.00774497
0.00792597
0.00810705
0.00828819
0.00846939
0.00865062
0.00883188
0.00901314
0.00919439
0.0093756
0.00955675
0.00973783
0.0099188
0.0100996
0.0102803
0.0104608
0.0106411
0.0108212
0.011001
0.0111804
0.0113595
0.0115383
0.0117166
0.0118944
0.0120717
0.0122485
0.0124246
0.0126002
0.012775
0.012949
0.0131223
0.0132947
0.0134662
0.0136366
0.0138061
0.0139745
0.0141416
0.0143076
0.0144723
0.0146355
0.0147974
0.0149577
0.0151164
0.0152735
0.0154288
0.0155823
0.0157339
0.0158835
0.0160311
0.0161765
0.0163196
0.0164605
0.0165989
0.0167348
0.0168682
0.0169989
0.0171268
0.0172519
0.0173741
0.0174932
0.0176093
0.0177221
0.0178317
0.0179379
0.0180407
0.0181399
0.0182355
0.0183275
0.0184156
0.0185
0.0185804
0.0186568
0.0187291
0.0187973
0.0188614
0.0189211
0.0189766
0.0190277
0.0190744
0.0191166
0.0191544
0.0191875
0.0192161
0.0192401
0.0192594
0.0192741
0.0192841
0.0192894
0.0192899
0.0192858
0.0192769
0.0192633
0.019245
0.019222
0.0191943
0.0191619
0.0191249
0.0190832
0.019037
0.0189863
0.018931
0.0188713
0.0188071
0.0187386
0.0186658
0.0185888
0.0185075
0.0184222
0.0183327
0.0182393
0.018142
0.0180408
0.0179359
0.0178273
0.017715
0.0175993
0.0174801
0.0173575
0.0172317
0.0171027
0.0169706
0.0168355
0.0166975
0.0165566
0.016413
0.0162667
0.0161179
0.0159666
0.0158128
0.0156568
0.0154986
0.0153382
0.0151757
0.0150113
0.014845
0.0146769
0.014507
0.0143355
0.0141625
0.0139879
0.0138119
0.0136345
0.0134559
0.013276
0.0130949
0.0129128
0.0127297
0.0125456
0.0123606
0.0121747
0.011988
0.0118006
0.0116126
0.0114238
0.0112345
0.0110447
0.0108543
0.0106635
0.0104723
0.0102807
0.0100888
0.00989651
0.009704
0.00951125
0.0093183
0.00912517
0.00893188
0.00873848
0.00854498
0.0083514
0.00815776
0.00796409
0.00777041
0.00757673
0.00738306
0.00718943
0.00699584
0.00680232
0.00660886
0.00641549
0.0062222
0.00602901
0.00583593
0.00564295
0.00545009
0.00525736
0.00506474
0.00487225
0.00467989
0.00448766
0.00429555
0.00410358
0.00391173
0.00372001
0.00352841
0.00333693
0.00314557
0.00295431
0.00276317
0.00257213
0.00238119
0.00219034
0.00199958
0.00180889
0.00161828
0.00142774
0.00123725
0.00104682
0.000856427
0.000666073
0.000475746
0.00028544
9.51452e-05
0.000104005
0.000312019
0.000520047
0.0007281
0.000936186
0.00114432
0.0013525
0.00156074
0.00176905
0.00197745
0.00218593
0.00239451
0.00260319
0.00281199
0.00302091
0.00322996
0.00343914
0.00364847
0.00385795
0.00406759
0.00427739
0.00448735
0.00469749
0.00490781
0.00511831
0.00532899
0.00553986
0.00575092
0.00596217
0.00617361
0.00638525
0.00659709
0.00680911
0.00702132
0.00723373
0.00744631
0.00765908
0.00787202
0.00808513
0.0082984
0.00851183
0.0087254
0.0089391
0.00915293
0.00936687
0.0095809
0.00979501
0.0100092
0.0102234
0.0104377
0.0106519
0.0108662
0.0110804
0.0112945
0.0115086
0.0117225
0.0119363
0.0121499
0.0123633
0.0125765
0.0127893
0.0130019
0.0132141
0.0134258
0.0136371
0.0138479
0.0140582
0.0142679
0.0144769
0.0146852
0.0148928
0.0150995
0.0153053
0.0155102
0.0157141
0.0159169
0.0161185
0.0163189
0.016518
0.0167158
0.0169121
0.0171068
0.0173
0.0174914
0.017681
0.0178688
0.0180546
0.0182384
0.01842
0.0185993
0.0187763
0.0189509
0.0191229
0.0192923
0.019459
0.0196228
0.0197836
0.0199414
0.0200961
0.0202475
0.0203956
0.0205401
0.0206812
0.0208185
0.0209521
0.0210818
0.0212075
0.0213291
0.0214466
0.0215598
0.0216686
0.021773
0.0218728
0.021968
0.0220585
0.0221441
0.0222249
0.0223007
0.0223715
0.0224372
0.0224977
0.022553
0.022603
0.0226477
0.022687
0.0227209
0.0227493
0.0227722
0.0227896
0.0228014
0.0228077
0.0228083
0.0228034
0.0227929
0.0227768
0.0227552
0.0227279
0.0226951
0.0226568
0.022613
0.0225637
0.022509
0.022449
0.0223835
0.0223128
0.0222369
0.0221558
0.0220697
0.0219784
0.0218823
0.0217812
0.0216754
0.0215648
0.0214496
0.0213299
0.0212057
0.0210771
0.0209443
0.0208073
0.0206662
0.0205212
0.0203723
0.0202196
0.0200633
0.0199034
0.0197401
0.0195734
0.0194035
0.0192304
0.0190543
0.0188752
0.0186934
0.0185088
0.0183215
0.0181318
0.0179396
0.0177451
0.0175484
0.0173495
0.0171486
0.0169457
0.016741
0.0165345
0.0163263
0.0161166
0.0159053
0.0156925
0.0154784
0.0152631
0.0150465
0.0148287
0.01461
0.0143902
0.0141694
0.0139479
0.0137255
0.0135023
0.0132785
0.013054
0.0128289
0.0126033
0.0123772
0.0121507
0.0119238
0.0116965
0.0114689
0.0112411
0.011013
0.0107846
0.0105562
0.0103275
0.0100988
0.00986997
0.00964108
0.00941215
0.00918321
0.00895428
0.00872536
0.00849649
0.00826768
0.00803894
0.00781029
0.00758173
0.00735328
0.00712495
0.00689674
0.00666867
0.00644074
0.00621295
0.00598531
0.00575782
0.00553048
0.00530329
0.00507626
0.00484939
0.00462266
0.00439608
0.00416966
0.00394337
0.00371722
0.00349121
0.00326532
0.00303956
0.00281392
0.00258838
0.00236295
0.00213761
0.00191236
0.00168719
0.00146209
0.00123705
0.00101206
0.000787111
0.000562198
0.000337309
0.000112435
0.000119992
0.000359983
0.00059999
0.000840025
0.0010801
0.00132022
0.00156041
0.00180066
0.002041
0.00228143
0.00252196
0.00276261
0.00300338
0.00324428
0.00348532
0.00372651
0.00396786
0.00420937
0.00445107
0.00469294
0.004935
0.00517725
0.00541971
0.00566237
0.00590524
0.00614833
0.00639163
0.00663516
0.00687891
0.00712288
0.00736708
0.00761151
0.00785616
0.00810103
0.00834611
0.00859142
0.00883693
0.00908265
0.00932857
0.00957467
0.00982096
0.0100674
0.010314
0.0105608
0.0108077
0.0110547
0.0113018
0.0115489
0.0117962
0.0120435
0.0122907
0.012538
0.0127852
0.0130324
0.0132795
0.0135264
0.0137732
0.0140197
0.0142661
0.0145121
0.0147578
0.0150032
0.0152481
0.0154926
0.0157365
0.0159799
0.0162226
0.0164647
0.016706
0.0169465
0.0171862
0.0174249
0.0176625
0.0178991
0.0181345
0.0183687
0.0186016
0.018833
0.019063
0.0192914
0.0195181
0.019743
0.0199661
0.0201872
0.0204062
0.0206232
0.0208378
0.0210501
0.0212598
0.021467
0.0216716
0.0218732
0.022072
0.0222677
0.0224603
0.0226496
0.0228355
0.0230178
0.0231966
0.0233716
0.0235427
0.0237098
0.0238728
0.0240315
0.0241859
0.0243358
0.0244811
0.0246218
0.0247576
0.0248884
0.0250143
0.0251349
0.0252504
0.0253604
0.025465
0.0255641
0.0256575
0.0257452
0.025827
0.025903
0.025973
0.0260369
0.0260948
0.0261464
0.0261919
0.0262311
0.0262639
0.0262904
0.0263106
0.0263243
0.0263315
0.0263323
0.0263267
0.0263145
0.026296
0.0262709
0.0262394
0.0262015
0.0261573
0.0261066
0.0260497
0.0259864
0.025917
0.0258414
0.0257596
0.0256719
0.0255781
0.0254785
0.0253731
0.0252619
0.0251451
0.0250227
0.0248949
0.0247618
0.0246233
0.0244798
0.0243312
0.0241777
0.0240193
0.0238563
0.0236887
0.0235166
0.0233402
0.0231595
0.0229748
0.022786
0.0225934
0.0223971
0.0221971
0.0219936
0.0217867
0.0215766
0.0213633
0.0211471
0.0209278
0.0207058
0.0204812
0.0202539
0.0200242
0.0197921
0.0195578
0.0193213
0.0190828
0.0188424
0.0186001
0.0183561
0.0181104
0.0178632
0.0176145
0.0173644
0.017113
0.0168603
0.0166066
0.0163517
0.0160959
0.0158391
0.0155815
0.015323
0.0150639
0.0148041
0.0145436
0.0142826
0.0140211
0.0137592
0.0134968
0.0132341
0.0129711
0.0127078
0.0124443
0.0121806
0.0119167
0.0116527
0.0113886
0.0111244
0.0108602
0.010596
0.0103318
0.0100676
0.0098035
0.00953945
0.00927548
0.00901161
0.00874787
0.00848425
0.00822076
0.00795743
0.00769425
0.00743124
0.0071684
0.00690573
0.00664323
0.00638091
0.00611878
0.00585682
0.00559504
0.00533344
0.00507201
0.00481076
0.00454967
0.00428874
0.00402797
0.00376735
0.00350688
0.00324654
0.00298632
0.00272623
0.00246624
0.00220636
0.00194657
0.00168686
0.00142722
0.00116764
0.000908115
0.000648626
0.000389164
0.00012972
0.000135975
0.00040793
0.000679905
0.000951912
0.00122396
0.00149607
0.00176825
0.00204051
0.00231286
0.00258531
0.00285789
0.00313059
0.00340343
0.00367642
0.00394958
0.0042229
0.00449641
0.0047701
0.00504399
0.0053181
0.00559241
0.00586695
0.00614172
0.00641672
0.00669196
0.00696745
0.00724319
0.00751918
0.00779542
0.00807193
0.00834869
0.0086257
0.00890298
0.00918051
0.00945829
0.00973631
0.0100146
0.0102931
0.0105718
0.0108508
0.0111299
0.0114093
0.0116888
0.0119685
0.0122484
0.0125283
0.0128084
0.0130886
0.0133689
0.0136492
0.0139296
0.0142099
0.0144902
0.0147704
0.0150505
0.0153304
0.0156102
0.0158898
0.0161691
0.016448
0.0167267
0.0170049
0.0172826
0.0175598
0.0178365
0.0181125
0.0183877
0.0186623
0.018936
0.0192087
0.0194805
0.0197513
0.0200209
0.0202892
0.0205563
0.0208219
0.0210861
0.0213486
0.0216095
0.0218686
0.0221258
0.022381
0.0226341
0.022885
0.0231336
0.0233798
0.0236233
0.0238642
0.0241023
0.0243375
0.0245696
0.0247985
0.0250241
0.0252463
0.0254649
0.0256798
0.0258908
0.0260979
0.0263008
0.0264995
0.0266938
0.0268835
0.0270686
0.0272489
0.0274242
0.0275945
0.0277595
0.0279192
0.0280735
0.0282221
0.028365
0.0285021
0.0286332
0.0287583
0.0288771
0.0289896
0.0290958
0.0291954
0.0292884
0.0293747
0.0294542
0.0295269
0.0295927
0.0296514
0.0297031
0.0297476
0.029785
0.0298151
0.029838
0.0298536
0.0298618
0.0298628
0.0298564
0.0298426
0.0298215
0.0297931
0.0297574
0.0297143
0.0296641
0.0296065
0.0295419
0.02947
0.0293912
0.0293053
0.0292125
0.0291128
0.0290063
0.0288932
0.0287734
0.0286472
0.0285145
0.0283755
0.0282304
0.0280792
0.027922
0.027759
0.0275902
0.0274159
0.0272361
0.027051
0.0268607
0.0266653
0.026465
0.0262599
0.0260501
0.0258358
0.0256172
0.0253943
0.0251673
0.0249363
0.0247015
0.024463
0.024221
0.0239755
0.0237267
0.0234747
0.0232198
0.0229619
0.0227012
0.0224379
0.022172
0.0219037
0.0216331
0.0213603
0.0210855
0.0208086
0.0205299
0.0202494
0.0199673
0.0196836
0.0193984
0.0191119
0.018824
0.018535
0.0182448
0.0179536
0.0176614
0.0173683
0.0170745
0.0167798
0.0164845
0.0161885
0.015892
0.015595
0.0152975
0.0149997
0.0147014
0.0144029
0.0141041
0.0138052
0.013506
0.0132067
0.0129073
0.0126078
0.0123083
0.0120088
0.0117093
0.0114098
0.0111104
0.0108111
0.0105119
0.0102128
0.00991387
0.00961507
0.00931643
0.00901796
0.00871967
0.00842158
0.00812367
0.00782597
0.00752847
0.00723117
0.00693408
0.0066372
0.00634052
0.00604405
0.00574777
0.0054517
0.00515581
0.00486011
0.00456459
0.00426924
0.00397406
0.00367903
0.00338414
0.0030894
0.00279478
0.00250027
0.00220587
0.00191156
0.00161734
0.00132318
0.00102908
0.000735026
0.000441003
0.000146999
0.000151951
0.000455859
0.000759789
0.00106375
0.00136777
0.00167185
0.001976
0.00228025
0.00258461
0.00288908
0.00319368
0.00349843
0.00380334
0.00410841
0.00441366
0.00471911
0.00502476
0.00533063
0.00563672
0.00594304
0.0062496
0.00655642
0.00686349
0.00717083
0.00747844
0.00778632
0.00809449
0.00840294
0.00871168
0.00902071
0.00933003
0.00963965
0.00994955
0.0102597
0.0105702
0.010881
0.011192
0.0115033
0.0118148
0.0121266
0.0124387
0.0127509
0.0130634
0.0133761
0.0136889
0.0140019
0.014315
0.0146283
0.0149416
0.015255
0.0155684
0.0158818
0.0161952
0.0165084
0.0168216
0.0171347
0.0174475
0.0177601
0.0180724
0.0183843
0.0186959
0.019007
0.0193176
0.0196276
0.019937
0.0202457
0.0205536
0.0208607
0.0211668
0.0214719
0.021776
0.0220788
0.0223804
0.0226806
0.0229794
0.0232766
0.0235721
0.0238659
0.0241578
0.0244477
0.0247356
0.0250212
0.0253044
0.0255852
0.0258634
0.0261389
0.0264116
0.0266812
0.0269477
0.027211
0.0274708
0.0277271
0.0279797
0.0282285
0.0284732
0.0287138
0.0289502
0.029182
0.0294093
0.0296318
0.0298494
0.0300619
0.0302692
0.0304712
0.0306676
0.0308583
0.0310432
0.0312221
0.031395
0.0315615
0.0317217
0.0318753
0.0320222
0.0321623
0.0322955
0.0324216
0.0325405
0.0326522
0.0327565
0.0328532
0.0329424
0.0330239
0.0330976
0.0331634
0.0332213
0.0332713
0.0333132
0.033347
0.0333727
0.0333902
0.0333995
0.0334006
0.0333934
0.033378
0.0333544
0.0333226
0.0332826
0.0332344
0.0331781
0.0331136
0.0330412
0.0329607
0.0328724
0.0327761
0.0326722
0.0325605
0.0324412
0.0323144
0.0321803
0.0320388
0.0318902
0.0317345
0.0315719
0.0314025
0.0312265
0.0310438
0.0308548
0.0306596
0.0304582
0.0302509
0.0300377
0.0298189
0.0295946
0.0293649
0.02913
0.02889
0.0286452
0.0283956
0.0281415
0.0278829
0.02762
0.027353
0.027082
0.0268072
0.0265287
0.0262467
0.0259613
0.0256726
0.0253809
0.0250862
0.0247886
0.0244884
0.0241856
0.0238803
0.0235727
0.023263
0.0229511
0.0226373
0.0223217
0.0220043
0.0216853
0.0213647
0.0210427
0.0207194
0.0203948
0.0200691
0.0197423
0.0194145
0.0190858
0.0187562
0.018426
0.018095
0.0177634
0.0174312
0.0170986
0.0167655
0.0164321
0.0160983
0.0157642
0.0154299
0.0150954
0.0147608
0.0144261
0.0140913
0.0137564
0.0134216
0.0130867
0.012752
0.0124173
0.0120827
0.0117482
0.0114139
0.0110797
0.0107457
0.0104119
0.0100783
0.00974491
0.00941171
0.00907875
0.008746
0.00841349
0.00808122
0.00774918
0.00741737
0.0070858
0.00675445
0.00642334
0.00609244
0.00576177
0.0054313
0.00510103
0.00477096
0.00444108
0.00411137
0.00378183
0.00345244
0.00312319
0.00279407
0.00246508
0.00213618
0.00180738
0.00147866
0.00115
0.000821394
0.000492822
0.000164272
0.000167919
0.000503766
0.000839636
0.00117555
0.00151151
0.00184755
0.00218367
0.0025199
0.00285624
0.00319271
0.00352933
0.00386611
0.00420307
0.00454021
0.00487756
0.00521512
0.00555291
0.00589093
0.00622921
0.00656774
0.00690654
0.00724563
0.007585
0.00792467
0.00826463
0.00860491
0.00894551
0.00928642
0.00962765
0.00996921
0.0103111
0.0106533
0.0109958
0.0113387
0.0116819
0.0120253
0.0123691
0.0127132
0.0130576
0.0134023
0.0137472
0.0140924
0.0144378
0.0147835
0.0151293
0.0154753
0.0158215
0.0161678
0.0165142
0.0168607
0.0172072
0.0175537
0.0179002
0.0182466
0.0185929
0.0189391
0.019285
0.0196307
0.019976
0.020321
0.0206656
0.0210097
0.0213532
0.0216961
0.0220383
0.0223798
0.0227204
0.02306
0.0233987
0.0237362
0.0240726
0.0244076
0.0247413
0.0250735
0.025404
0.0257329
0.02606
0.0263851
0.0267081
0.027029
0.0273475
0.0276636
0.0279772
0.028288
0.028596
0.0289009
0.0292028
0.0295013
0.0297964
0.0300879
0.0303756
0.0306594
0.0309391
0.0312146
0.0314857
0.0317522
0.0320139
0.0322708
0.0325225
0.032769
0.0330101
0.0332455
0.0334752
0.033699
0.0339166
0.034128
0.0343329
0.0345312
0.0347227
0.0349073
0.0350848
0.0352551
0.0354179
0.0355733
0.0357209
0.0358607
0.0359926
0.0361164
0.036232
0.0363393
0.0364382
0.0365286
0.0366103
0.0366834
0.0367476
0.036803
0.0368495
0.036887
0.0369155
0.036935
0.0369453
0.0369466
0.0369387
0.0369217
0.0368956
0.0368603
0.036816
0.0367626
0.0367002
0.0366288
0.0365485
0.0364593
0.0363614
0.0362548
0.0361395
0.0360158
0.0358836
0.0357431
0.0355944
0.0354377
0.035273
0.0351005
0.0349203
0.0347326
0.0345375
0.0343351
0.0341257
0.0339094
0.0336863
0.0334566
0.0332204
0.032978
0.0327295
0.0324751
0.0322149
0.0319491
0.031678
0.0314015
0.0311201
0.0308337
0.0305426
0.0302469
0.0299468
0.0296426
0.0293342
0.029022
0.028706
0.0283865
0.0280635
0.0277373
0.0274079
0.0270756
0.0267405
0.0264026
0.0260622
0.0257194
0.0253743
0.0250271
0.0246778
0.0243266
0.0239736
0.023619
0.0232627
0.022905
0.0225459
0.0221856
0.0218241
0.0214615
0.0210979
0.0207334
0.0203681
0.0200021
0.0196353
0.019268
0.0189001
0.0185318
0.018163
0.0177939
0.0174245