/*--------------------------------*- C++ -*----------------------------------*\
| =========                 |                                                 |
| \\      /  F ield         | OpenFOAM: The Open Source CFD Toolbox           |
|  \\    /   O peration     | Version:  v2012                                 |
|   \\  /    A nd           | Website:  www.openfoam.com                      |
|    \\/     M anipulation  |                                                 |
\*---------------------------------------------------------------------------*/
FoamFile
{
    version     2.0;
    format      ascii;
    class       volScalarField;
    location    "19";
    object      W;
}
// * * * * * * * * * * * * * * * * * * * * * * * * * * * * * * * * * * * * * //

dimensions      [0 0 -1 0 0 0 0];


internalField   nonuniform List<scalar> 
65536
(
3.71678e-13
3.71488e-13
3.75961e-13
3.85074e-13
3.98867e-13
4.17436e-13
4.40934e-13
4.69569e-13
5.03603e-13
5.43359e-13
5.89214e-13
6.41609e-13
7.01048e-13
7.68105e-13
8.43424e-13
9.27727e-13
1.02182e-12
1.12659e-12
1.24304e-12
1.37224e-12
1.51541e-12
1.67386e-12
1.84904e-12
2.04254e-12
2.25609e-12
2.49158e-12
2.7511e-12
3.03688e-12
3.35139e-12
3.69729e-12
4.07747e-12
4.49509e-12
4.95354e-12
5.45652e-12
6.00802e-12
6.61233e-12
7.2741e-12
7.99835e-12
8.79047e-12
9.65624e-12
1.06019e-11
1.16341e-11
1.276e-11
1.39872e-11
1.53239e-11
1.67788e-11
1.83611e-11
2.00808e-11
2.19481e-11
2.39742e-11
2.61708e-11
2.85501e-11
3.11253e-11
3.39099e-11
3.69183e-11
4.01655e-11
4.3667e-11
4.74392e-11
5.1499e-11
5.58639e-11
6.05519e-11
6.55816e-11
7.09721e-11
7.67427e-11
8.29134e-11
8.9504e-11
9.65348e-11
1.04026e-10
1.11998e-10
1.2047e-10
1.29462e-10
1.38993e-10
1.49081e-10
1.59744e-10
1.70998e-10
1.82857e-10
1.95337e-10
2.08447e-10
2.22198e-10
2.36596e-10
2.51648e-10
2.67354e-10
2.83713e-10
3.00722e-10
3.18371e-10
3.36649e-10
3.5554e-10
3.75022e-10
3.95072e-10
4.15658e-10
4.36748e-10
4.583e-10
4.8027e-10
5.02609e-10
5.2526e-10
5.48165e-10
5.71258e-10
5.94469e-10
6.17723e-10
6.40943e-10
6.64045e-10
6.86943e-10
7.09549e-10
7.3177e-10
7.53513e-10
7.74683e-10
7.95185e-10
8.14923e-10
8.33804e-10
8.51734e-10
8.68624e-10
8.84387e-10
8.98941e-10
9.12207e-10
9.24115e-10
9.34599e-10
9.43601e-10
9.51071e-10
9.56968e-10
9.61257e-10
9.63917e-10
9.64933e-10
9.643e-10
9.62025e-10
9.58123e-10
9.52619e-10
9.45548e-10
9.36954e-10
9.2689e-10
9.15416e-10
9.02599e-10
8.88516e-10
8.73248e-10
8.56879e-10
8.39501e-10
8.21207e-10
8.02093e-10
7.82258e-10
7.618e-10
7.40816e-10
7.19403e-10
6.97657e-10
6.75671e-10
6.53532e-10
6.31326e-10
6.09134e-10
5.87032e-10
5.65089e-10
5.43371e-10
5.21937e-10
5.00841e-10
4.80129e-10
4.59842e-10
4.40017e-10
4.20683e-10
4.01865e-10
3.83581e-10
3.65847e-10
3.48671e-10
3.3206e-10
3.16013e-10
3.0053e-10
2.85604e-10
2.71228e-10
2.57391e-10
2.44081e-10
2.31282e-10
2.18979e-10
2.07156e-10
1.95796e-10
1.8488e-10
1.74392e-10
1.64313e-10
1.54627e-10
1.45318e-10
1.3637e-10
1.2777e-10
1.19505e-10
1.11563e-10
1.03934e-10
9.66107e-11
8.95856e-11
8.28536e-11
7.64109e-11
7.02551e-11
6.4385e-11
5.88001e-11
5.35012e-11
4.8489e-11
4.37649e-11
3.93301e-11
3.51851e-11
3.13303e-11
2.77646e-11
2.44862e-11
2.14917e-11
1.8776e-11
1.63328e-11
1.41536e-11
1.22286e-11
1.05461e-11
9.09298e-12
7.85463e-12
6.8152e-12
5.95781e-12
5.26475e-12
4.71773e-12
4.29813e-12
3.98727e-12
3.76671e-12
3.61849e-12
3.52547e-12
3.47155e-12
3.44202e-12
3.42371e-12
3.40531e-12
3.37744e-12
3.33284e-12
3.26637e-12
3.17498e-12
3.05762e-12
2.915e-12
2.74943e-12
2.5644e-12
2.36436e-12
2.15427e-12
1.93931e-12
1.72455e-12
1.51467e-12
1.31378e-12
1.12524e-12
9.51559e-13
7.94448e-13
6.54785e-13
5.32727e-13
4.27814e-13
3.39095e-13
2.65265e-13
2.04787e-13
1.56014e-13
1.17285e-13
8.69984e-14
6.36715e-14
4.59749e-14
3.27502e-14
2.30145e-14
1.59538e-14
1.09092e-14
7.35896e-15
4.89836e-15
3.2201e-15
2.09575e-15
1.35953e-15
8.94694e-16
6.2266e-16
4.9502e-16
5.42414e-13
5.42174e-13
5.48787e-13
5.62219e-13
5.82527e-13
6.09858e-13
6.44439e-13
6.8658e-13
7.36675e-13
7.95202e-13
8.62726e-13
9.39904e-13
1.02749e-12
1.12633e-12
1.2374e-12
1.36177e-12
1.50065e-12
1.65536e-12
1.82739e-12
2.01837e-12
2.23009e-12
2.46454e-12
2.72388e-12
3.0105e-12
3.327e-12
3.67622e-12
4.06127e-12
4.48553e-12
4.95271e-12
5.46681e-12
6.03219e-12
6.65359e-12
7.33615e-12
8.08542e-12
8.90743e-12
9.80866e-12
1.07961e-11
1.18774e-11
1.30607e-11
1.43547e-11
1.57688e-11
1.73131e-11
1.89985e-11
2.08364e-11
2.28393e-11
2.50203e-11
2.73933e-11
2.99734e-11
3.27762e-11
3.58186e-11
3.91181e-11
4.26934e-11
4.65643e-11
5.07512e-11
5.52757e-11
6.01605e-11
6.54291e-11
7.1106e-11
7.72165e-11
8.37868e-11
9.0844e-11
9.84158e-11
1.0653e-10
1.15217e-10
1.24504e-10
1.34422e-10
1.45e-10
1.56268e-10
1.68254e-10
1.80987e-10
1.94496e-10
2.08806e-10
2.23945e-10
2.39934e-10
2.56797e-10
2.74553e-10
2.93218e-10
3.12807e-10
3.3333e-10
3.54794e-10
3.772e-10
4.00547e-10
4.24827e-10
4.50027e-10
4.76127e-10
5.03104e-10
5.30925e-10
5.59552e-10
5.88939e-10
6.19033e-10
6.49773e-10
6.8109e-10
7.1291e-10
7.45147e-10
7.77711e-10
8.10502e-10
8.43415e-10
8.76338e-10
9.09151e-10
9.41729e-10
9.73944e-10
1.00566e-09
1.03674e-09
1.06705e-09
1.09644e-09
1.12478e-09
1.15192e-09
1.17772e-09
1.20205e-09
1.22477e-09
1.24578e-09
1.26493e-09
1.28213e-09
1.29728e-09
1.31029e-09
1.32107e-09
1.32957e-09
1.33572e-09
1.33951e-09
1.34089e-09
1.33986e-09
1.33643e-09
1.33061e-09
1.32246e-09
1.312e-09
1.29932e-09
1.28448e-09
1.26759e-09
1.24873e-09
1.22803e-09
1.2056e-09
1.18158e-09
1.15609e-09
1.12929e-09
1.10132e-09
1.07233e-09
1.04246e-09
1.01186e-09
9.80677e-10
9.4906e-10
9.17144e-10
8.85065e-10
8.52948e-10
8.20916e-10
7.89081e-10
7.57548e-10
7.26414e-10
6.95767e-10
6.65683e-10
6.36232e-10
6.07475e-10
5.79463e-10
5.52237e-10
5.25831e-10
5.00273e-10
4.7558e-10
4.51765e-10
4.28831e-10
4.06779e-10
3.85602e-10
3.6529e-10
3.45827e-10
3.27194e-10
3.09371e-10
2.92333e-10
2.76053e-10
2.60504e-10
2.45657e-10
2.31483e-10
2.17953e-10
2.05035e-10
1.92703e-10
1.80926e-10
1.69679e-10
1.58935e-10
1.48671e-10
1.38862e-10
1.2949e-10
1.20534e-10
1.11979e-10
1.03808e-10
9.60106e-11
8.85747e-11
8.14917e-11
7.47545e-11
6.83575e-11
6.22962e-11
5.65674e-11
5.11685e-11
4.60976e-11
4.13525e-11
3.69313e-11
3.28313e-11
2.90491e-11
2.55803e-11
2.24192e-11
1.95586e-11
1.69901e-11
1.47033e-11
1.26865e-11
1.09263e-11
9.40801e-12
8.11547e-12
7.03145e-12
6.13777e-12
5.41553e-12
4.84535e-12
4.40763e-12
4.08282e-12
3.85166e-12
3.69552e-12
3.59662e-12
3.53837e-12
3.50557e-12
3.4847e-12
3.46414e-12
3.43428e-12
3.38767e-12
3.31904e-12
3.22528e-12
3.10528e-12
2.95979e-12
2.7911e-12
2.60279e-12
2.39933e-12
2.18578e-12
1.96737e-12
1.74925e-12
1.53616e-12
1.33225e-12
1.14091e-12
9.64704e-13
8.05333e-13
6.63686e-13
5.39914e-13
4.33544e-13
3.43606e-13
2.6877e-13
2.07476e-13
1.5805e-13
1.18807e-13
8.81206e-14
6.44884e-14
4.65618e-14
3.31662e-14
2.33054e-14
1.61545e-14
1.10459e-14
7.45078e-15
4.95924e-15
3.25996e-15
2.1216e-15
1.37624e-15
9.05647e-16
6.30257e-16
5.01056e-16
9.43018e-13
9.42692e-13
9.54378e-13
9.78014e-13
1.01371e-12
1.06172e-12
1.12247e-12
1.19649e-12
1.2845e-12
1.38735e-12
1.50604e-12
1.64176e-12
1.79583e-12
1.96979e-12
2.16536e-12
2.38445e-12
2.62923e-12
2.90209e-12
3.20565e-12
3.54285e-12
3.91692e-12
4.33139e-12
4.79017e-12
5.29752e-12
5.85813e-12
6.47711e-12
7.16006e-12
7.91308e-12
8.74281e-12
9.6565e-12
1.0662e-11
1.17679e-11
1.29835e-11
1.43187e-11
1.57846e-11
1.73929e-11
1.91562e-11
2.10883e-11
2.3204e-11
2.55191e-11
2.80507e-11
3.08172e-11
3.38382e-11
3.71346e-11
4.07289e-11
4.46451e-11
4.89085e-11
5.35462e-11
5.8587e-11
6.40611e-11
7.00009e-11
7.644e-11
8.34142e-11
9.09608e-11
9.91189e-11
1.0793e-10
1.17435e-10
1.2768e-10
1.3871e-10
1.50572e-10
1.63315e-10
1.76989e-10
1.91644e-10
2.07331e-10
2.24103e-10
2.42012e-10
2.6111e-10
2.81448e-10
3.03077e-10
3.26047e-10
3.50405e-10
3.76197e-10
4.03464e-10
4.32246e-10
4.62577e-10
4.94488e-10
5.28003e-10
5.6314e-10
5.9991e-10
6.38317e-10
6.78356e-10
7.20013e-10
7.63263e-10
8.08072e-10
8.54393e-10
9.02168e-10
9.51326e-10
1.00178e-09
1.05344e-09
1.10619e-09
1.1599e-09
1.21443e-09
1.26964e-09
1.32535e-09
1.38138e-09
1.43754e-09
1.49363e-09
1.54942e-09
1.60468e-09
1.65919e-09
1.7127e-09
1.76496e-09
1.81571e-09
1.86471e-09
1.9117e-09
1.95642e-09
1.99864e-09
2.0381e-09
2.07458e-09
2.10786e-09
2.13774e-09
2.16403e-09
2.18656e-09
2.20518e-09
2.21977e-09
2.23023e-09
2.23647e-09
2.23846e-09
2.23616e-09
2.22959e-09
2.21878e-09
2.20379e-09
2.18471e-09
2.16166e-09
2.13478e-09
2.10423e-09
2.07021e-09
2.03291e-09
1.99257e-09
1.94941e-09
1.90371e-09
1.85571e-09
1.80569e-09
1.75392e-09
1.70069e-09
1.64625e-09
1.59089e-09
1.53487e-09
1.47845e-09
1.42188e-09
1.36538e-09
1.30919e-09
1.2535e-09
1.19851e-09
1.1444e-09
1.09131e-09
1.03939e-09
9.88756e-10
9.39518e-10
8.9176e-10
8.45553e-10
8.00951e-10
7.57994e-10
7.16708e-10
6.77106e-10
6.39189e-10
6.02947e-10
5.68361e-10
5.35403e-10
5.04037e-10
4.74221e-10
4.4591e-10
4.19051e-10
3.9359e-10
3.69471e-10
3.46634e-10
3.2502e-10
3.0457e-10
2.85224e-10
2.66923e-10
2.49611e-10
2.33232e-10
2.17734e-10
2.03065e-10
1.89177e-10
1.76027e-10
1.63571e-10
1.51771e-10
1.40592e-10
1.30001e-10
1.1997e-10
1.10472e-10
1.01485e-10
9.29886e-11
8.49651e-11
7.73997e-11
7.02792e-11
6.35922e-11
5.73287e-11
5.14796e-11
4.60364e-11
4.09911e-11
3.63352e-11
3.20599e-11
2.81557e-11
2.46121e-11
2.14174e-11
1.85587e-11
1.60217e-11
1.37905e-11
1.18483e-11
1.01767e-11
8.75623e-12
7.56667e-12
6.58693e-12
5.79544e-12
5.17033e-12
4.68975e-12
4.33207e-12
4.07618e-12
3.90175e-12
3.78954e-12
3.72164e-12
3.68175e-12
3.65539e-12
3.63017e-12
3.59585e-12
3.54453e-12
3.47061e-12
3.37077e-12
3.24383e-12
3.09053e-12
2.91326e-12
2.71573e-12
2.50262e-12
2.27916e-12
2.05082e-12
1.82294e-12
1.60045e-12
1.38766e-12
1.18808e-12
1.00436e-12
8.38255e-13
6.90675e-13
5.61759e-13
4.51001e-13
3.57377e-13
2.79493e-13
2.15718e-13
1.64304e-13
1.23489e-13
9.15805e-14
6.70114e-14
4.83771e-14
3.4455e-14
2.42082e-14
1.67785e-14
1.14713e-14
7.73696e-15
5.14923e-15
3.38454e-15
2.20248e-15
1.42858e-15
9.40009e-16
6.54117e-16
5.19999e-16
1.7179e-12
1.71749e-12
1.73912e-12
1.78269e-12
1.84842e-12
1.93679e-12
2.04856e-12
2.18478e-12
2.34676e-12
2.53608e-12
2.75464e-12
3.00462e-12
3.28853e-12
3.60922e-12
3.9699e-12
4.37419e-12
4.82609e-12
5.33007e-12
5.89111e-12
6.51466e-12
7.20678e-12
7.97413e-12
8.82401e-12
9.76445e-12
1.08043e-11
1.19531e-11
1.32214e-11
1.46207e-11
1.61636e-11
1.78638e-11
1.9736e-11
2.17964e-11
2.40626e-11
2.65536e-11
2.929e-11
3.2294e-11
3.55899e-11
3.92035e-11
4.31629e-11
4.74982e-11
5.22418e-11
5.74286e-11
6.30959e-11
6.92835e-11
7.60341e-11
8.33932e-11
9.14092e-11
1.00134e-10
1.09621e-10
1.19929e-10
1.3112e-10
1.43256e-10
1.56407e-10
1.70643e-10
1.86038e-10
2.02671e-10
2.20622e-10
2.39974e-10
2.60816e-10
2.83235e-10
3.07324e-10
3.33176e-10
3.60887e-10
3.90553e-10
4.22271e-10
4.5614e-10
4.92254e-10
5.30711e-10
5.71602e-10
6.15019e-10
6.61047e-10
7.09767e-10
7.61255e-10
8.15577e-10
8.72792e-10
9.32948e-10
9.96084e-10
1.06222e-09
1.13137e-09
1.20353e-09
1.27867e-09
1.35675e-09
1.43771e-09
1.52147e-09
1.60792e-09
1.69692e-09
1.78833e-09
1.88195e-09
1.97759e-09
2.07501e-09
2.17394e-09
2.27411e-09
2.37518e-09
2.47682e-09
2.57867e-09
2.68033e-09
2.7814e-09
2.88143e-09
2.97999e-09
3.07661e-09
3.17082e-09
3.26214e-09
3.35008e-09
3.43417e-09
3.51392e-09
3.58887e-09
3.65856e-09
3.72256e-09
3.78046e-09
3.83188e-09
3.87646e-09
3.91391e-09
3.94393e-09
3.96632e-09
3.98088e-09
3.9875e-09
3.98609e-09
3.97665e-09
3.95919e-09
3.93381e-09
3.90065e-09
3.85991e-09
3.81183e-09
3.75671e-09
3.6949e-09
3.62676e-09
3.55273e-09
3.47326e-09
3.38883e-09
3.29994e-09
3.20711e-09
3.11087e-09
3.01176e-09
2.91032e-09
2.80708e-09
2.70256e-09
2.59727e-09
2.49169e-09
2.3863e-09
2.28152e-09
2.17778e-09
2.07545e-09
1.97487e-09
1.87636e-09
1.78019e-09
1.6866e-09
1.59579e-09
1.50794e-09
1.42318e-09
1.34162e-09
1.26333e-09
1.18837e-09
1.11674e-09
1.04845e-09
9.83468e-10
9.21754e-10
8.63244e-10
8.07863e-10
7.55521e-10
7.0612e-10
6.59552e-10
6.15704e-10
5.74458e-10
5.35692e-10
4.99283e-10
4.6511e-10
4.3305e-10
4.02983e-10
3.74792e-10
3.48364e-10
3.23588e-10
3.00361e-10
2.78582e-10
2.58157e-10
2.38999e-10
2.21023e-10
2.04152e-10
1.88316e-10
1.73449e-10
1.59491e-10
1.46387e-10
1.34088e-10
1.2255e-10
1.11733e-10
1.01602e-10
9.21252e-11
8.32739e-11
7.50231e-11
6.73498e-11
6.02332e-11
5.36539e-11
4.75933e-11
4.20335e-11
3.69568e-11
3.23452e-11
2.81804e-11
2.4443e-11
2.1113e-11
1.81694e-11
1.55901e-11
1.3352e-11
1.14311e-11
9.80283e-12
8.44173e-12
7.32211e-12
6.41806e-12
5.70374e-12
5.15359e-12
4.74263e-12
4.44671e-12
4.24279e-12
4.10918e-12
4.02585e-12
3.97467e-12
3.93961e-12
3.90699e-12
3.86556e-12
3.80666e-12
3.72414e-12
3.61435e-12
3.47597e-12
3.30976e-12
3.11824e-12
2.90538e-12
2.67614e-12
2.43614e-12
2.19118e-12
1.94695e-12
1.7087e-12
1.481e-12
1.26757e-12
1.07122e-12
8.93786e-13
7.36216e-13
5.98634e-13
4.80478e-13
3.80639e-13
2.97614e-13
2.29652e-13
1.74878e-13
1.31409e-13
9.74344e-14
7.12812e-14
5.14503e-14
3.66374e-14
2.57374e-14
1.78355e-14
1.21922e-14
8.222e-15
5.4713e-15
3.59578e-15
2.33965e-15
1.51737e-15
9.9831e-16
6.94608e-16
5.52145e-16
3.13306e-12
3.13263e-12
3.17271e-12
3.25313e-12
3.37428e-12
3.53708e-12
3.74298e-12
3.99391e-12
4.29233e-12
4.64121e-12
5.04406e-12
5.50499e-12
6.02867e-12
6.62044e-12
7.28631e-12
8.03301e-12
8.86807e-12
9.79986e-12
1.08377e-11
1.19918e-11
1.32735e-11
1.46953e-11
1.6271e-11
1.80157e-11
1.99459e-11
2.20796e-11
2.44369e-11
2.70392e-11
2.99103e-11
3.3076e-11
3.65642e-11
4.04056e-11
4.46332e-11
4.92831e-11
5.43943e-11
6.0009e-11
6.61728e-11
7.2935e-11
8.03489e-11
8.84716e-11
9.73647e-11
1.07094e-10
1.17731e-10
1.29352e-10
1.42037e-10
1.55873e-10
1.70952e-10
1.87373e-10
2.05239e-10
2.2466e-10
2.45754e-10
2.68642e-10
2.93453e-10
3.20324e-10
3.49396e-10
3.80816e-10
4.14738e-10
4.51323e-10
4.90733e-10
5.3314e-10
5.78716e-10
6.2764e-10
6.80092e-10
7.36253e-10
7.96307e-10
8.60436e-10
9.28821e-10
1.00164e-09
1.07907e-09
1.16127e-09
1.2484e-09
1.34061e-09
1.43802e-09
1.54077e-09
1.64895e-09
1.76264e-09
1.8819e-09
2.00675e-09
2.13719e-09
2.27321e-09
2.41472e-09
2.56163e-09
2.7138e-09
2.87103e-09
3.03309e-09
3.19971e-09
3.37056e-09
3.54525e-09
3.72337e-09
3.90441e-09
4.08786e-09
4.27312e-09
4.45956e-09
4.64649e-09
4.83318e-09
5.01885e-09
5.20269e-09
5.38386e-09
5.56148e-09
5.73465e-09
5.90246e-09
6.06398e-09
6.2183e-09
6.36451e-09
6.5017e-09
6.62901e-09
6.74561e-09
6.85071e-09
6.94358e-09
7.02355e-09
7.09002e-09
7.14248e-09
7.18049e-09
7.20372e-09
7.21192e-09
7.20497e-09
7.18284e-09
7.14559e-09
7.09341e-09
7.02659e-09
6.94553e-09
6.85071e-09
6.74274e-09
6.62227e-09
6.49008e-09
6.34699e-09
6.19389e-09
6.03173e-09
5.86149e-09
5.6842e-09
5.50088e-09
5.31259e-09
5.12037e-09
4.92524e-09
4.72822e-09
4.53028e-09
4.33236e-09
4.13533e-09
3.94004e-09
3.74725e-09
3.55768e-09
3.37195e-09
3.19065e-09
3.01426e-09
2.84323e-09
2.6779e-09
2.51858e-09
2.36547e-09
2.21876e-09
2.07854e-09
1.94486e-09
1.81773e-09
1.69711e-09
1.58289e-09
1.47498e-09
1.37321e-09
1.27741e-09
1.18738e-09
1.1029e-09
1.02375e-09
9.4969e-10
8.80471e-10
8.15846e-10
7.55567e-10
6.99387e-10
6.47064e-10
5.98358e-10
5.53042e-10
5.10891e-10
4.71694e-10
4.35248e-10
4.0136e-10
3.69849e-10
3.40545e-10
3.13288e-10
2.8793e-10
2.64334e-10
2.42373e-10
2.21931e-10
2.02902e-10
1.85187e-10
1.68701e-10
1.53362e-10
1.39098e-10
1.25846e-10
1.13547e-10
1.02147e-10
9.15995e-11
8.18612e-11
7.28922e-11
6.46559e-11
5.71178e-11
5.02451e-11
4.40064e-11
3.83708e-11
3.33078e-11
2.8787e-11
2.47776e-11
2.12485e-11
1.81682e-11
1.55048e-11
1.32261e-11
1.12994e-11
9.69232e-12
8.37221e-12
7.30693e-12
6.46485e-12
5.81514e-12
5.32797e-12
4.97482e-12
4.72875e-12
4.56459e-12
4.45926e-12
4.392e-12
4.34458e-12
4.30146e-12
4.24997e-12
4.18031e-12
4.08559e-12
3.96167e-12
3.80703e-12
3.62245e-12
3.41065e-12
3.17595e-12
2.92375e-12
2.66016e-12
2.39151e-12
2.12397e-12
1.86323e-12
1.61426e-12
1.38108e-12
1.1667e-12
9.73094e-13
8.01262e-13
6.51308e-13
5.22588e-13
4.13873e-13
3.23505e-13
2.4956e-13
1.89987e-13
1.42726e-13
1.058e-13
7.73838e-14
5.58428e-14
3.9757e-14
2.79233e-14
1.93466e-14
1.32228e-14
8.91549e-15
5.93182e-15
3.89783e-15
2.5358e-15
1.64434e-15
1.08169e-15
7.52522e-16
5.98125e-16
5.64718e-12
5.64702e-12
5.72045e-12
5.86716e-12
6.08791e-12
6.38441e-12
6.75934e-12
7.21628e-12
7.75975e-12
8.39526e-12
9.1293e-12
9.96942e-12
1.09243e-11
1.20037e-11
1.32189e-11
1.45822e-11
1.61075e-11
1.78105e-11
1.97082e-11
2.18197e-11
2.41661e-11
2.67704e-11
2.96582e-11
3.28576e-11
3.63993e-11
4.0317e-11
4.46477e-11
4.94316e-11
5.47129e-11
6.05397e-11
6.69642e-11
7.40436e-11
8.18397e-11
9.042e-11
9.98573e-11
1.10231e-10
1.21626e-10
1.34135e-10
1.47858e-10
1.62903e-10
1.79384e-10
1.97426e-10
2.17163e-10
2.38738e-10
2.62302e-10
2.88019e-10
3.16063e-10
3.46618e-10
3.7988e-10
4.16057e-10
4.55369e-10
4.98046e-10
5.44333e-10
5.94484e-10
6.48767e-10
7.0746e-10
7.70853e-10
8.39247e-10
9.12951e-10
9.92285e-10
1.07758e-09
1.16916e-09
1.26736e-09
1.37254e-09
1.48503e-09
1.60517e-09
1.73331e-09
1.86975e-09
2.01484e-09
2.16887e-09
2.33214e-09
2.50489e-09
2.68739e-09
2.87983e-09
3.08238e-09
3.29519e-09
3.51832e-09
3.75181e-09
3.99565e-09
4.24973e-09
4.5139e-09
4.78793e-09
5.07151e-09
5.36424e-09
5.66565e-09
5.97515e-09
6.29207e-09
6.61565e-09
6.94502e-09
7.27922e-09
7.61717e-09
7.95772e-09
8.2996e-09
8.64147e-09
8.9819e-09
9.31938e-09
9.65232e-09
9.97908e-09
1.0298e-08
1.06073e-08
1.09054e-08
1.11903e-08
1.14605e-08
1.17142e-08
1.19498e-08
1.21655e-08
1.23601e-08
1.2532e-08
1.26799e-08
1.28027e-08
1.28994e-08
1.29691e-08
1.30111e-08
1.30251e-08
1.30107e-08
1.29678e-08
1.28965e-08
1.27973e-08
1.26706e-08
1.25172e-08
1.2338e-08
1.21342e-08
1.1907e-08
1.16578e-08
1.13884e-08
1.11004e-08
1.07956e-08
1.04759e-08
1.01432e-08
9.79966e-09
9.44717e-09
9.08776e-09
8.72341e-09
8.35604e-09
7.98752e-09
7.61963e-09
7.25406e-09
6.89239e-09
6.53606e-09
6.18642e-09
5.84465e-09
5.51181e-09
5.18883e-09
4.87647e-09
4.57539e-09
4.28609e-09
4.00896e-09
3.74426e-09
3.49214e-09
3.25264e-09
3.02572e-09
2.81125e-09
2.609e-09
2.41872e-09
2.24005e-09
2.07264e-09
1.91605e-09
1.76985e-09
1.63357e-09
1.50672e-09
1.38881e-09
1.27936e-09
1.17786e-09
1.08383e-09
9.968e-10
9.1631e-10
8.41915e-10
7.73188e-10
7.09722e-10
6.51132e-10
5.97053e-10
5.47142e-10
5.0108e-10
4.58565e-10
4.19322e-10
3.83091e-10
3.49637e-10
3.18742e-10
2.90206e-10
2.63846e-10
2.39498e-10
2.17011e-10
1.96249e-10
1.77089e-10
1.59419e-10
1.4314e-10
1.2816e-10
1.14397e-10
1.01777e-10
9.02314e-11
7.9697e-11
7.01155e-11
6.1432e-11
5.35946e-11
4.65535e-11
4.02606e-11
3.4669e-11
2.97327e-11
2.54064e-11
2.16451e-11
1.84045e-11
1.56406e-11
1.33101e-11
1.13702e-11
9.77919e-12
8.49622e-12
7.48176e-12
6.69773e-12
6.10778e-12
5.67746e-12
5.37452e-12
5.16912e-12
5.03409e-12
4.94514e-12
4.88103e-12
4.8238e-12
4.75882e-12
4.67482e-12
4.56387e-12
4.4212e-12
4.24501e-12
4.03608e-12
3.79744e-12
3.53382e-12
3.25124e-12
2.95645e-12
2.65644e-12
2.35806e-12
2.06759e-12
1.79048e-12
1.53117e-12
1.29294e-12
1.07795e-12
8.87264e-13
7.20948e-13
5.78261e-13
4.57809e-13
3.57732e-13
2.75879e-13
2.09962e-13
1.57687e-13
1.16859e-13
8.54505e-14
6.16489e-14
4.38805e-14
3.08126e-14
2.1344e-14
1.45851e-14
9.83214e-15
6.54053e-15
4.29708e-15
2.79509e-15
1.81218e-15
1.19191e-15
8.29078e-16
6.58906e-16
1.0026e-11
1.00269e-11
1.01595e-11
1.04232e-11
1.08196e-11
1.13517e-11
1.20244e-11
1.28443e-11
1.38195e-11
1.49602e-11
1.62781e-11
1.7787e-11
1.95025e-11
2.14428e-11
2.36279e-11
2.60806e-11
2.88262e-11
3.18931e-11
3.53125e-11
3.91194e-11
4.3352e-11
4.80528e-11
5.32684e-11
5.90501e-11
6.54543e-11
7.25429e-11
8.03835e-11
8.90502e-11
9.8624e-11
1.09193e-10
1.20854e-10
1.33712e-10
1.47881e-10
1.63485e-10
1.80658e-10
1.99547e-10
2.2031e-10
2.43117e-10
2.68152e-10
2.95616e-10
3.25721e-10
3.58699e-10
3.94795e-10
4.34276e-10
4.77424e-10
5.24542e-10
5.75953e-10
6.31999e-10
6.93046e-10
7.59479e-10
8.31707e-10
9.1016e-10
9.95292e-10
1.08758e-09
1.18751e-09
1.29562e-09
1.41243e-09
1.53852e-09
1.67445e-09
1.82081e-09
1.97823e-09
2.14731e-09
2.32868e-09
2.52298e-09
2.73084e-09
2.95289e-09
3.18975e-09
3.44203e-09
3.71031e-09
3.99515e-09
4.29707e-09
4.61655e-09
4.95402e-09
5.30984e-09
5.68431e-09
6.07763e-09
6.48995e-09
6.92127e-09
7.3715e-09
7.84044e-09
8.32773e-09
8.83289e-09
9.35528e-09
9.8941e-09
1.04484e-08
1.10169e-08
1.15985e-08
1.21915e-08
1.27943e-08
1.34049e-08
1.40213e-08
1.46413e-08
1.52624e-08
1.58819e-08
1.64972e-08
1.71054e-08
1.77034e-08
1.82882e-08
1.88565e-08
1.94051e-08
1.99308e-08
2.04302e-08
2.09002e-08
2.13377e-08
2.17396e-08
2.2103e-08
2.24252e-08
2.27037e-08
2.29363e-08
2.31209e-08
2.32559e-08
2.33401e-08
2.33722e-08
2.33518e-08
2.32786e-08
2.31528e-08
2.29749e-08
2.27459e-08
2.2467e-08
2.214e-08
2.1767e-08
2.13504e-08
2.08928e-08
2.03973e-08
1.9867e-08
1.93054e-08
1.87161e-08
1.81028e-08
1.74692e-08
1.68191e-08
1.61565e-08
1.54849e-08
1.48081e-08
1.41296e-08
1.34529e-08
1.2781e-08
1.2117e-08
1.14636e-08
1.08233e-08
1.01984e-08
9.59091e-09
9.00242e-09
8.43442e-09
7.88809e-09
7.36433e-09
6.86382e-09
6.38699e-09
5.93408e-09
5.50509e-09
5.09989e-09
4.71814e-09
4.35939e-09
4.02306e-09
3.70846e-09
3.41481e-09
3.14129e-09
2.88699e-09
2.65099e-09
2.43234e-09
2.23007e-09
2.04323e-09
1.87086e-09
1.71204e-09
1.56584e-09
1.43139e-09
1.30786e-09
1.19442e-09
1.09031e-09
9.94813e-10
9.07244e-10
8.26963e-10
7.53376e-10
6.85928e-10
6.24106e-10
5.67438e-10
5.15487e-10
4.67855e-10
4.24176e-10
3.84118e-10
3.47378e-10
3.13681e-10
2.82779e-10
2.54446e-10
2.28481e-10
2.047e-10
1.82939e-10
1.63048e-10
1.44892e-10
1.2835e-10
1.13311e-10
9.96711e-11
8.73378e-11
7.62235e-11
6.62464e-11
5.73296e-11
4.93997e-11
4.23866e-11
3.62228e-11
3.08429e-11
2.61835e-11
2.2183e-11
1.87816e-11
1.59211e-11
1.35452e-11
1.15996e-11
1.0032e-11
8.79222e-12
7.83276e-12
7.10855e-12
6.5774e-12
6.20012e-12
5.94076e-12
5.76681e-12
5.6494e-12
5.56344e-12
5.48779e-12
5.4053e-12
5.3028e-12
5.17102e-12
5.00438e-12
4.80069e-12
4.56078e-12
4.28799e-12
3.98763e-12
3.66646e-12
3.33204e-12
2.99225e-12
2.65474e-12
2.32655e-12
2.01376e-12
1.72132e-12
1.45287e-12
1.21078e-12
9.96188e-13
8.09141e-13
6.48759e-13
5.13441e-13
4.01067e-13
3.09198e-13
2.35247e-13
1.76625e-13
1.30857e-13
9.56601e-14
6.89971e-14
4.90988e-14
3.44689e-14
2.38715e-14
1.63088e-14
1.0992e-14
7.31071e-15
4.80223e-15
3.12313e-15
2.02454e-15
1.33136e-15
9.25935e-16
7.35805e-16
1.75192e-11
1.75229e-11
1.77586e-11
1.82254e-11
1.89261e-11
1.98664e-11
2.10548e-11
2.25033e-11
2.42265e-11
2.62424e-11
2.85722e-11
3.12405e-11
3.42755e-11
3.77094e-11
4.15784e-11
4.59234e-11
5.07898e-11
5.62284e-11
6.22957e-11
6.90542e-11
7.65729e-11
8.49282e-11
9.42041e-11
1.04493e-10
1.15897e-10
1.28528e-10
1.42508e-10
1.5797e-10
1.75062e-10
1.93943e-10
2.14788e-10
2.37787e-10
2.63148e-10
2.91095e-10
3.21874e-10
3.5575e-10
3.93011e-10
4.33966e-10
4.78953e-10
5.28335e-10
5.82501e-10
6.41873e-10
7.06901e-10
7.78071e-10
8.55899e-10
9.40941e-10
1.03379e-09
1.13506e-09
1.24544e-09
1.36563e-09
1.49637e-09
1.63847e-09
1.79274e-09
1.96007e-09
2.14136e-09
2.33757e-09
2.54969e-09
2.77875e-09
3.0258e-09
3.29195e-09
3.5783e-09
3.88599e-09
4.21617e-09
4.57001e-09
4.94866e-09
5.35327e-09
5.78499e-09
6.24491e-09
6.7341e-09
7.25357e-09
7.80425e-09
8.38702e-09
9.00262e-09
9.6517e-09
1.03348e-08
1.10521e-08
1.18041e-08
1.25904e-08
1.34111e-08
1.42656e-08
1.51531e-08
1.60728e-08
1.70233e-08
1.8003e-08
1.90101e-08
2.00423e-08
2.1097e-08
2.21715e-08
2.32622e-08
2.43657e-08
2.54781e-08
2.65949e-08
2.77115e-08
2.88232e-08
2.99246e-08
3.10103e-08
3.20747e-08
3.3112e-08
3.41161e-08
3.50812e-08
3.60011e-08
3.687e-08
3.76818e-08
3.84309e-08
3.91119e-08
3.97194e-08
4.02489e-08
4.06957e-08
4.10561e-08
4.13268e-08
4.15049e-08
4.15884e-08
4.15758e-08
4.14665e-08
4.12606e-08
4.09587e-08
4.05623e-08
4.00739e-08
3.94963e-08
3.88331e-08
3.80888e-08
3.72681e-08
3.63766e-08
3.54201e-08
3.4405e-08
3.33378e-08
3.22255e-08
3.10751e-08
2.98938e-08
2.86886e-08
2.74666e-08
2.62347e-08
2.49996e-08
2.37676e-08
2.25448e-08
2.13367e-08
2.01487e-08
1.89853e-08
1.78508e-08
1.67489e-08
1.56829e-08
1.46554e-08
1.36686e-08
1.27241e-08
1.18233e-08
1.09668e-08
1.0155e-08
9.3879e-09
8.66516e-09
7.98609e-09
7.34976e-09
6.75499e-09
6.20044e-09
5.68457e-09
5.20576e-09
4.76226e-09
4.35228e-09
3.97399e-09
3.62554e-09
3.30508e-09
3.01082e-09
2.74096e-09
2.49379e-09
2.26765e-09
2.06096e-09
1.8722e-09
1.69995e-09
1.54286e-09
1.39966e-09
1.26919e-09
1.15033e-09
1.04208e-09
9.43506e-10
8.53739e-10
7.71992e-10
6.9754e-10
6.29726e-10
5.6795e-10
5.11668e-10
4.60387e-10
4.13663e-10
3.71094e-10
3.3232e-10
2.97014e-10
2.64885e-10
2.35669e-10
2.09129e-10
1.85053e-10
1.63246e-10
1.43536e-10
1.25761e-10
1.09777e-10
9.54486e-11
8.26523e-11
7.12719e-11
6.11985e-11
5.23293e-11
4.4567e-11
3.78185e-11
3.19952e-11
2.70121e-11
2.27878e-11
1.92446e-11
1.63078e-11
1.39067e-11
1.19737e-11
1.0445e-11
9.26069e-12
8.3644e-12
7.70395e-12
7.23126e-12
6.90255e-12
6.67851e-12
6.52442e-12
6.41032e-12
6.31104e-12
6.20624e-12
6.08036e-12
5.92243e-12
5.72584e-12
5.48792e-12
5.2095e-12
4.89432e-12
4.54842e-12
4.17944e-12
3.79599e-12
3.40697e-12
3.02107e-12
2.64624e-12
2.28936e-12
1.95599e-12
1.6502e-12
1.37465e-12
1.13055e-12
9.1792e-13
7.35701e-13
5.82039e-13
4.54496e-13
3.50274e-13
2.66415e-13
1.99966e-13
1.48107e-13
1.08241e-13
7.80515e-14
5.55284e-14
3.89736e-14
2.69853e-14
1.84322e-14
1.24207e-14
8.25939e-15
5.42443e-15
3.52718e-15
2.28608e-15
1.50312e-15
1.04523e-15
8.30516e-16
3.01252e-11
3.01354e-11
3.05479e-11
3.13617e-11
3.25812e-11
3.42169e-11
3.6284e-11
3.88033e-11
4.1801e-11
4.53086e-11
4.93635e-11
5.40091e-11
5.92954e-11
6.5279e-11
7.2024e-11
7.96024e-11
8.80948e-11
9.75909e-11
1.08191e-10
1.20005e-10
1.33156e-10
1.47779e-10
1.64023e-10
1.82053e-10
2.0205e-10
2.24211e-10
2.48755e-10
2.7592e-10
3.05968e-10
3.39183e-10
3.75877e-10
4.16391e-10
4.61095e-10
5.10391e-10
5.64718e-10
6.24551e-10
6.90405e-10
7.62839e-10
8.42456e-10
9.29908e-10
1.0259e-09
1.13118e-09
1.24657e-09
1.37293e-09
1.51121e-09
1.6624e-09
1.82757e-09
2.00785e-09
2.20446e-09
2.41866e-09
2.65182e-09
2.90536e-09
3.1808e-09
3.47971e-09
3.80375e-09
4.15465e-09
4.53419e-09
4.94426e-09
5.38676e-09
5.86368e-09
6.37705e-09
6.92891e-09
7.52137e-09
8.15653e-09
8.83648e-09
9.56332e-09
1.03391e-08
1.11658e-08
1.20453e-08
1.29795e-08
1.39701e-08
1.50185e-08
1.61262e-08
1.72942e-08
1.85234e-08
1.98144e-08
2.11674e-08
2.25824e-08
2.40588e-08
2.55957e-08
2.71917e-08
2.88448e-08
3.05527e-08
3.23123e-08
3.412e-08
3.59715e-08
3.78621e-08
3.97861e-08
4.17376e-08
4.37096e-08
4.56948e-08
4.76852e-08
4.96721e-08
5.16464e-08
5.35985e-08
5.55182e-08
5.73953e-08
5.92188e-08
6.0978e-08
6.26619e-08
6.42594e-08
6.57596e-08
6.7152e-08
6.84262e-08
6.95725e-08
7.05817e-08
7.14453e-08
7.21557e-08
7.27064e-08
7.30917e-08
7.33071e-08
7.33495e-08
7.3217e-08
7.29091e-08
7.24264e-08
7.17713e-08
7.09473e-08
6.99594e-08
6.88137e-08
6.75178e-08
6.60803e-08
6.45107e-08
6.28198e-08
6.10189e-08
5.91201e-08
5.71359e-08
5.50793e-08
5.29634e-08
5.08013e-08
4.86063e-08
4.6391e-08
4.41679e-08
4.19489e-08
3.97454e-08
3.75679e-08
3.54262e-08
3.33291e-08
3.12846e-08
2.92998e-08
2.73807e-08
2.55323e-08
2.37588e-08
2.20633e-08
2.04481e-08
1.89148e-08
1.74639e-08
1.60953e-08
1.48085e-08
1.3602e-08
1.24741e-08
1.14226e-08
1.04447e-08
9.53778e-09
8.69854e-09
7.92373e-09
7.20993e-09
6.55368e-09
5.95148e-09
5.39987e-09
4.89543e-09
4.43483e-09
4.01487e-09
3.63243e-09
3.28457e-09
2.96849e-09
2.68154e-09
2.42124e-09
2.18527e-09
1.97147e-09
1.77785e-09
1.60255e-09
1.44387e-09
1.30026e-09
1.1703e-09
1.05267e-09
9.4622e-10
8.4986e-10
7.62628e-10
6.83649e-10
6.12137e-10
5.47385e-10
4.88755e-10
4.35678e-10
3.87644e-10
3.44193e-10
3.04917e-10
2.69447e-10
2.37454e-10
2.0864e-10
1.82737e-10
1.59503e-10
1.38718e-10
1.2018e-10
1.03703e-10
8.9118e-11
7.62652e-11
6.49967e-11
5.51739e-11
4.66663e-11
3.93506e-11
3.31105e-11
2.78359e-11
2.34227e-11
1.97726e-11
1.67929e-11
1.43964e-11
1.25016e-11
1.10324e-11
9.9181e-12
9.09379e-12
8.50006e-12
8.08324e-12
7.79543e-12
7.59462e-12
7.44468e-12
7.31543e-12
7.18257e-12
7.02752e-12
6.83722e-12
6.60373e-12
6.32381e-12
5.99827e-12
5.63133e-12
5.22988e-12
4.80264e-12
4.35946e-12
3.91054e-12
3.46579e-12
3.03427e-12
2.6238e-12
2.2407e-12
1.88958e-12
1.57339e-12
1.29348e-12
1.0498e-12
8.4109e-13
6.65181e-13
5.19242e-13
4.00043e-13
3.04175e-13
2.28241e-13
1.69002e-13
1.23478e-13
8.9016e-14
6.33135e-14
4.44275e-14
3.07549e-14
2.10027e-14
1.41501e-14
9.40768e-15
6.17751e-15
4.0162e-15
2.60261e-15
1.71097e-15
1.18959e-15
9.45134e-16
5.09794e-11
5.10034e-11
5.17146e-11
5.3111e-11
5.5201e-11
5.80026e-11
6.15425e-11
6.58568e-11
7.0991e-11
7.7e-11
8.39486e-11
9.19124e-11
1.00978e-10
1.11244e-10
1.22822e-10
1.35837e-10
1.5043e-10
1.66757e-10
1.84991e-10
2.05327e-10
2.27977e-10
2.53178e-10
2.81192e-10
3.12305e-10
3.46833e-10
3.85125e-10
4.27561e-10
4.74562e-10
5.26584e-10
5.84129e-10
6.47745e-10
7.18031e-10
7.95638e-10
8.81276e-10
9.75719e-10
1.0798e-09
1.19444e-09
1.32062e-09
1.45941e-09
1.61195e-09
1.77951e-09
1.9634e-09
2.16509e-09
2.38611e-09
2.62813e-09
2.89292e-09
3.18238e-09
3.49853e-09
3.84352e-09
4.21964e-09
4.62929e-09
5.07504e-09
5.55957e-09
6.08571e-09
6.65641e-09
7.27477e-09
7.944e-09
8.66744e-09
9.44853e-09
1.02908e-08
1.11979e-08
1.21735e-08
1.32214e-08
1.43453e-08
1.5549e-08
1.68362e-08
1.82106e-08
1.96758e-08
2.12351e-08
2.28919e-08
2.46492e-08
2.65095e-08
2.84754e-08
3.05488e-08
3.27311e-08
3.50234e-08
3.7426e-08
3.99386e-08
4.25603e-08
4.52891e-08
4.81225e-08
5.10568e-08
5.40874e-08
5.72087e-08
6.04141e-08
6.36956e-08
6.70443e-08
7.04501e-08
7.39016e-08
7.73863e-08
8.08907e-08
8.44e-08
8.78985e-08
9.13694e-08
9.47951e-08
9.81572e-08
1.01437e-07
1.04615e-07
1.07671e-07
1.10585e-07
1.13338e-07
1.1591e-07
1.18282e-07
1.20436e-07
1.22355e-07
1.24022e-07
1.25423e-07
1.26544e-07
1.27374e-07
1.27905e-07
1.28129e-07
1.28041e-07
1.27638e-07
1.26922e-07
1.25894e-07
1.2456e-07
1.22928e-07
1.21007e-07
1.1881e-07
1.16352e-07
1.1365e-07
1.10721e-07
1.07587e-07
1.04268e-07
1.00788e-07
9.71687e-08
9.34348e-08
8.96102e-08
8.57189e-08
8.17843e-08
7.78296e-08
7.38768e-08
6.99469e-08
6.60597e-08
6.22336e-08
5.84851e-08
5.48293e-08
5.12796e-08
4.78474e-08
4.45424e-08
4.13724e-08
3.83436e-08
3.54604e-08
3.27257e-08
3.0141e-08
2.77061e-08
2.54199e-08