/*--------------------------------*- C++ -*----------------------------------*\
| =========                 |                                                 |
| \\      /  F ield         | OpenFOAM: The Open Source CFD Toolbox           |
|  \\    /   O peration     | Version:  v2012                                 |
|   \\  /    A nd           | Website:  www.openfoam.com                      |
|    \\/     M anipulation  |                                                 |
\*---------------------------------------------------------------------------*/
FoamFile
{
    version     2.0;
    format      ascii;
    class       volScalarField;
    location    "0";
    object      p;
}
// * * * * * * * * * * * * * * * * * * * * * * * * * * * * * * * * * * * * * //

dimensions      [0 2 -2 0 0 0 0];


internalField   nonuniform List<scalar> 
4000
(
0.0864287
0.126781
0.149937
0.153723
0.163048
0.197805
0.164346
0.22447
0.272839
0.245295
0.203523
0.243068
0.241329
0.25087
0.316442
0.331636
0.277007
0.263299
0.312551
0.317513
0.336469
0.333561
0.32455
0.259767
0.228743
0.184985
0.11984
0.127693
0.187945
0.286807
0.225368
0.145109
0.145183
0.139501
0.0890866
0.0372317
0.0883982
0.134457
0.163866
0.150474
0.0910542
0.0682605
0.0434392
0.0588768
0.140205
0.174868
0.163481
0.127757
0.12889
0.179621
0.0916542
0.0545469
0.0694452
0.0893496
0.123016
0.133009
0.148766
0.109096
0.0593222
0.0431967
0.0587553
0.0696757
0.075237
0.0591001
0.0580421
0.0782885
0.038863
0.0384423
0.0450815
0.0177858
0.0155312
-0.0365864
-0.0316172
0.00252773
-0.0332276
-0.0232892
0.00394999
-0.0160178
-0.0416665
-0.057474
-0.0220201
-0.0666322
-0.118858
-0.0904539
-0.0946405
-0.178096
-0.109556
-0.0218918
-0.0423395
-0.0142505
0.00593703
-0.0235242
-0.0181901
0.00917885
0.0458817
0.0656897
0.0718137
0.0386437
0.0186521
0.0188718
0.115172
0.126622
0.123392
0.125326
0.117881
0.207025
0.241122
0.267219
0.222011
0.183921
0.248038
0.246281
0.231038
0.27951
0.297241
0.313617
0.316199
0.282244
0.302858
0.310448
0.295547
0.321847
0.325196
0.281114
0.272617
0.19733
0.139447
0.134952
0.191397
0.245363
0.183797
0.132571
0.145593
0.109724
0.0932259
0.0656555
0.118621
0.160114
0.125426
0.100364
0.0847684
0.0983879
0.0597482
0.0647406
0.117501
0.154885
0.144958
0.118585
0.171314
0.176072
0.100566
0.0814205
0.0803067
0.0868364
0.100129
0.0900381
0.150537
0.14036
0.0577091
0.0395423
0.0472522
0.0873143
0.0958481
0.0191266
0.0529269
0.0753461
0.05713
0.0541405
0.00837026
0.0166142
0.0400974
-0.0328136
-0.0386774
-0.0318445
-0.0380747
0.00791747
-0.002492
-0.0178109
-0.0534103
-0.0102992
-0.0352972
-0.0806866
-0.136644
-0.119162
-0.0804666
-0.13636
-0.0991004
-0.0479336
-0.0103134
-0.0294426
-0.00271787
-0.0416413
-0.0346978
0.0173626
0.0713982
0.0853452
0.0641464
0.0328824
0.0278009
0.0148289
0.10008
0.113663
0.13471
0.0973293
0.127244
0.187637
0.234792
0.269562
0.215581
0.191782
0.188215
0.18078
0.254948
0.255364
0.292254
0.301096
0.278098
0.297872
0.311922
0.309953
0.292475
0.314614
0.300454
0.241111
0.251845
0.172681
0.142862
0.149802
0.187839
0.233922
0.216218
0.153294
0.120791
0.103549
0.114886
0.085863
0.128141
0.0861394
0.092348
0.124728
0.129819
0.110089
0.0834485
0.0852339
0.0849078
0.127223
0.126288
0.146428
0.129466
0.111813
0.110292
0.102461
0.0610449
0.0848795
0.123065
0.129197
0.16249
0.0920102
0.0288062
0.0286719
0.0568693
0.0852581
0.0876956
0.037372
0.0288411
0.054491
0.0480803
0.0739861
0.0423933
0.0250855
0.0406099
-0.029934
-0.0100709
0.0041067
-0.0056138
-0.0467448
0.00356659
0.00433957
-0.0354096
-0.0364434
-0.0598658
-0.0962113
-0.0847704
-0.0813653
-0.079176
-0.137101
-0.112244
-0.0846114
0.00166586
0.00747165
-0.00041786
-0.066167
-0.0193325
0.0458379
0.109052
0.0652376
0.0489917
0.0348491
0.00866459
0.0041376
0.0939212
0.119657
0.102775
0.122325
0.133438
0.180019
0.205619
0.244439
0.195776
0.144224
0.183911
0.211569
0.251864
0.247725
0.222565
0.270614
0.283933
0.285401
0.266932
0.288381
0.283624
0.299002
0.276028
0.251679
0.24389
0.167341
0.164448
0.149112
0.169804
0.188132
0.165049
0.125826
0.101217
0.0848914
0.0830831
0.07875
0.123357
0.140353
0.0973077
0.0823177
0.109522
0.096091
0.0834317
0.0868712
0.0499705
0.124164
0.109029
0.0992183
0.119083
0.143441
0.104242
0.0699298
0.0478531
0.06527
0.132957
0.126246
0.115717
0.103887
0.031426
0.0352855
0.0301687
0.0846183
0.0701724
0.0544033
0.039724
0.0363146
0.0630954
0.0721222
0.0471124
-0.0032713
0.00987363
-0.00596461
-0.00703919
-0.0190985
-0.0263134
-0.001368
-0.00479467
0.00561945
-0.015427
-0.0275777
-0.0538052
-0.0828853
-0.0993996
-0.0671515
-0.0706407
-0.137905
-0.0946659
-0.0769642
-0.00748562
0.00968986
-0.0269765
-0.0261331
-0.00608764
0.0447156
0.0812365
0.0763854
0.0412215
0.046598
0.0186238
9.63023e-05
0.0601963
0.0882939
0.0904013
0.118187
0.16968
0.144881
0.158795
0.162699
0.175365
0.177519
0.143253
0.155262
0.272038
0.270153
0.23561
0.180745
0.184408
0.264003
0.257168
0.27973
0.270295
0.28862
0.250957
0.248428
0.241643
0.195704
0.142205
0.136697
0.139378
0.140831
0.131114
0.0673233
0.108036
0.0561729
0.093655
0.0867038
0.0925977
0.0726799
0.12516
0.098932
0.120211
0.100118
0.0802024
0.0432538
0.0483809
0.107353
0.0716637
0.0651263
0.0825265
0.0962366
0.0824195
0.0766651
0.0400905
0.0346759
0.110962
0.122879
0.135346
0.090051
0.00226744
0.0414736
0.0369341
0.0495833
0.0932767
0.0818062
0.0615456
0.0106967
0.0156374
0.0418324
0.0560856
0.0541301
0.0569341
-0.00499639
-0.00902047
-0.00223883
-0.00458236
0.0383356
0.00979528
0.0221516
-0.0706377
-0.0428542
-0.0310201
-0.0874356
-0.0769343
-0.048426
-0.0521148
-0.113116
-0.105661
-0.0856108
-0.00487111
0.00189057
-0.00201092
0.00307272
-0.0103705
0.05399
0.0537784
0.0486497
0.0305484
0.014579
0.00759348
0.0109573
0.0663546
0.0895607
0.0703214
0.105771
0.106188
0.125822
0.142745
0.15897
0.124164
0.158208
0.16838
0.174133
0.195053
0.210738
0.205232
0.205126
0.167051
0.190955
0.203054
0.300609
0.305139
0.258914
0.216091
0.224087
0.190865
0.174655
0.13156
0.0926239
0.12754
0.0879904
0.11985
0.0804058
0.0362139
-0.00304724
0.0468841
0.0890702
0.08205
0.0772807
0.134416
0.101579
0.0713821
0.0622082
0.0813067
0.0307142
0.0766112
0.0690256
0.0449449
0.0539008
0.0528342
0.0657855
0.0474847
0.0325965
0.0358692
0.0713706
0.0876914
0.106586
0.0745573
0.0550372
0.0112372
0.0552032
0.0418293
0.0685803
0.0860379
0.0810013
0.041408
0.0283138
0.0410958
0.0434518
0.0602763
0.0212171
0.0345557
0.0603132
-0.00955621
-0.0166137
-0.00221258
0.0134938
0.0500242
0.0504457
-0.0426932
-0.0548896
-0.0587574
-0.0755416
-0.0625997
-0.0140666
-0.0313453
-0.10173
-0.109874
-0.052539
0.0102058
0.0294616
0.015989
-0.00479665
0.0370246
0.0525162
0.0566919
0.0455683
0.0381579
0.0327602
-0.00324849
0.0177251
0.0181027
0.0471879
0.0825543
0.068345
0.0631073
0.0711421
0.0817418
0.144459
0.129209
0.114811
0.129615
0.162665
0.139143
0.179552
0.204461
0.170888
0.145397
0.169451
0.144345
0.254381
0.283017
0.265029
0.242448
0.192624
0.162104
0.138916
0.120172
0.0703589
0.100702
0.0841989
0.0198319
0.0330232
0.0175069
0.0253719
0.0681209
0.0631954
0.0680133
0.0760644
0.0800903
0.0805569
0.0702779
0.0994566
0.0483561
0.025665
0.00050505
-0.0146316
0.0341884
0.0730448
0.0547173
0.0440478
0.0234572
-0.0122118
0.0269032
0.0677029
0.0627395
0.0522278
0.0599892
0.0633477
0.0798382
0.0392459
0.0128275
0.0120889
0.0450902
0.0960636
0.0523152
0.0379642
0.0330569
0.0598554
0.0674057
0.0436189
-0.00125871
0.0259136
0.00892499
-0.0246804
-0.000701851
0.0221527
0.048113
0.00887911
-0.002202
-0.0119968
-0.0281318
-0.0561048
-0.0775767
-0.0822513
-0.0518353
-0.0250683
-0.0599157
-0.0159052
0.0312021
0.0303083
0.0229443
0.0312686
0.0422915
0.046012
0.0659328
0.0698534
0.0295021
0.043766
0.00673548
-0.00404886
0.00827339
0.0362922
0.0913189
0.0367057
-0.0360438
0.00497678
0.0993379
0.134439
0.0869492
0.0956293
0.0821239
0.10465
0.114466
0.186408
0.133219
0.141679
0.13531
0.125415
0.175267
0.191228
0.193877
0.19486
0.156652
0.150906
0.183424
0.125492
0.105222
0.101895
0.0732604
0.0943567
0.0229089
-0.0376857
-0.039253
-0.0158902
0.0446841
0.0655439
0.0633857
0.0837895
0.0621691
0.0334713
0.0529792
0.093145
0.0336047
-0.0549891
-0.0137354
0.00289161
0.0115615
0.0456325
-0.0230673
0.0280176
-0.0115545
-0.0122406
-0.00704745
0.0209
0.0925621
0.0786701
0.0539596
0.0182873
0.0303573
0.052382
0.0379888
0.0095363
0.0319406
0.0317212
0.0329967
0.0378255
0.0428981
0.0763164
0.0514003
0.0310661
-0.00646945
0.00545545
0.00948663
0.00406766
0.00653317
0.0592708
0.012468
0.0194373
-0.0192405
-0.0147855
-0.0063281
-0.037903
-0.0456887
-0.0754797
-0.0169903
0.000916988
-0.0313942
-0.00303989
0.0620966
0.0604397
0.0439644
0.0434051
0.0394354
0.0410193
0.0486018
0.107147
0.0565757
0.0227148
-0.00619343
0.0136105
-0.0264689
-0.0280591
0.0113907
0.0259327
-0.0041606
-0.00388714
0.00136819
0.0720644
0.0548121
0.0605774
0.0749143
0.0923428
0.143593
0.142612
0.129597
0.104799
0.0763714
0.081091
0.116338
0.142981
0.142358
0.130337
0.148586
0.120978
0.161945
0.120984
0.0613573
0.0966808
0.0289742
0.0292584
0.000769144
-0.0442015
-0.0239133
0.024355
0.0368805
0.0469056
0.0535632
0.0237982
0.0648245
0.0396278
0.024654
0.0121645
0.0113077
0.0133156
0.0353162
-0.0382777
-0.0489434
-0.0290767
-0.00481574
0.0129308
-0.0375964
-0.0211601
-0.010907
0.0113385
0.0472922
0.0712087
0.0557177
0.00866709
0.000308088
0.0304864
0.0562338
0.0398452
0.0501994
0.0382027
0.0200118
0.0433327
0.0401676
0.0653024
0.0322379
0.0209917
0.00262591
0.00661385
-0.0100889
-0.00604024
0.0290827
0.0261915
0.000311983
0.0123277
0.00190894
-0.00496366
-0.0195699
-0.0308076
-0.0160614
-0.0279244
-0.0150326
-0.00550626
-0.0144885
0.037175
0.0754667
0.0773261
0.0220075
0.0440812
0.059602
0.0682679
0.0696779
0.0730944
0.0857625
0.0631187
0.0363025
0.0240374
-0.053465
-0.047718
-0.0307038
-0.048079
-0.00984181
-0.0288139
-0.029178
-0.00296979
0.00436965
0.0161125
0.00459763
0.0782235
0.115332
0.10385
0.0744091
0.0233558
0.0253556
0.106856
0.108465
0.0411001
0.0692592
0.123838
0.126719
0.0931057
0.0781801
0.0980972
0.0826518
0.0422554
0.015276
-0.0170512
-0.0289668
-0.0744801
-0.0604523
-0.0385168
0.0431022
0.0201054
0.0388172
0.0497058
-0.0138783
0.00372732
0.0572088
0.0636447
0.0213835
-0.00343494
-0.0203677
-0.0817647
-0.105218
-0.072857
-0.030958
-0.0305552
-0.0459576
-0.0490859
-0.00911159
0.00476532
-0.00781994
0.0803962
0.0290751
0.0539374
0.0249172
-0.00949595
0.00542823
-0.0154389
0.0221311
0.0611218
0.0422051
0.0267168
0.081567
0.0885299
0.0159209
-0.0322833
-0.0297178
0.00273783
-0.0662326
-0.0128671
0.0357878
0.0427464
0.061144
0.0459032
0.0115616
-0.0585615
-0.0457522
0.00173687
0.0144201
-0.0441345
-0.0103388
0.0305729
0.0319082
0.0424582
0.0709436
0.0711818
0.059961
0.112689
0.109578
0.0971949
0.0982794
0.107479
0.130004
0.0995507
0.0107755
-0.0135738
-0.0782568
-0.0800074
-0.0629115
-0.0889222
-0.105001
-0.0803063
-0.0306414
-0.0424053
-0.0245039
-0.0065978
-0.0323686
0.0258914
0.0382152
0.0710546
0.0446541
0.012218
0.0471897
-9.29259e-05
0.0175292
0.0408353
0.0325498
0.0379666
0.0950925
0.122062
0.119228
0.0735402
0.00782499
-0.00157384
-0.033622
-0.0619491
-0.0156618
-0.125764
-0.124549
-0.0239066
-0.0101543
-0.00360697
-0.0151942
0.0180551
-0.00252635
0.00556119
0.0287991
0.0237353
-0.00989693
-0.0129592
-0.0394856
-0.0884375
-0.0565637
-0.0741744
-0.0595172
-0.0283267
-0.0882605
-0.0357094
-0.0603221
-0.00338372
0.0199565
0.0486574
0.00152748
0.0494443
0.0496047
0.0350666
-0.0570299
0.00680926
0.018721
0.0652143
-0.00527418
0.0116431
0.0566445
0.0607532
0.0401057
-0.0423998
-0.04044
-0.0459045
-0.0240943
0.00854737
0.0407041
0.041372
0.0101019
0.0277313
-0.0205964
-0.028485
-0.0284329
-0.0306275
0.0297272
0.00137064
0.0424764
0.0364928
0.0498393
0.050334
0.0853323
0.0882012
0.1032
0.0944665
0.151162
0.120736
0.0738216
0.0905612
0.142126
0.162239
0.0766248
0.00145736
-0.100301
-0.119497
-0.106795
-0.144616
-0.116997
-0.11238
-0.0953068
-0.0939475
-0.0675645
-0.0540664
-0.088094
-0.0154879
0.0124741
0.0115594
0.0469948
0.0344019
0.00820988
-0.0543725
-0.0250794
-0.0182199
0.0317671
0.0256619
0.0269728
0.0637593
0.0453717
0.0733786
0.0244365
-0.053701
-0.0567981
-0.0774953
-0.0761799
-0.134034
-0.164353
-0.0834628
-0.0116943
-0.000360701
-0.0357712
-0.038546
-0.0410834
-0.0499513
0.0113802
0.0390095
0.000318661
-0.056745
-0.0556997
-0.0669153
-0.0698066
-0.0969717
-0.069659
-0.0295783
-0.10117
-0.0984097
-0.0665268
-0.0365845
-0.00970541
-0.000952599
0.00602379
0.0457293
0.0548096
0.0143054
-0.0135406
-0.0269972
-0.0142173
0.00606854
-0.00163775
0.0123148
0.0546301
0.010016
-0.00916034
0.00483435
0.0067096
-0.0365611
-0.0794755
-0.00888012
0.0653398
0.0484153
0.018629
0.00319172
0.0114066
-0.0353055
-0.0269
-0.010394
0.0594765
-0.000315075
0.0479954
0.0366772
0.0374226
0.0955883
0.113236
0.0912826
0.0689159
0.135694
0.167076
0.13794
0.125876
0.17154
0.161072
0.145834
0.0703286
-0.0128626
-0.12825
-0.147216
-0.110962
-0.175141
-0.184953
-0.181354
-0.149379
-0.0226234
-0.0483171
-0.0716097
-0.157884
-0.0847288
-0.0156561
-0.0281792
-0.00549137
-0.0109169
-0.0637657
-0.105311
-0.0801854
-0.0410017
0.0297433
0.0399494
0.0669501
0.0215587
0.00978218
-0.0528961
-0.0298257
-0.0144121
-0.0604252
-0.118184
-0.152733
-0.175375
-0.172763
-0.109192
-0.125996
-0.0556326
0.000273319
-0.0306393
-0.0586472
-0.0530784
-0.026007
-0.0387435
-0.0533089
-0.0732097
-0.0717653
-0.0515318
-0.0334617
-0.0662275
-0.069709
-0.110045
-0.126811
-0.111532
-0.0769749
-0.00648661
-0.00171181
-0.0476685
-0.0249631
0.0278977
0.0674832
0.0683308
0.0609025
-0.0229771
-0.0815998
0.0011481
-0.0200495
-0.0361105
-0.00450366
-0.0175509
0.0215457
0.0161167
-0.0481919
-0.0719909
-0.0600067
0.0027453
0.0127835
0.0663692
0.0613493
-0.00751913
-0.0231744
-0.0449277
-0.0306607
-0.00600108
0.0536373
0.0310874
0.0397567
0.0726975
0.0654586
0.127112
0.112471
0.102006
0.138626
0.120916
0.152068
0.160363
0.201211
0.172253
0.162536
0.13735
0.0818069
0.0192169
-0.165837
-0.201994
-0.193653
-0.176167
-0.183041
-0.202054
-0.167241
-0.119336
-0.1088
-0.111876
-0.137641
-0.110994
-0.0201526
-0.0369909
-0.0543978
-0.0411564
-0.0540456
-0.0980746
-0.0833653
-0.099064
-0.0686938
-0.0976941
-0.00832635
-0.00116241
-0.0212816
-0.0699677
-0.0515654
-0.0583738
-0.120393
-0.174579
-0.134646
-0.173603
-0.174586
-0.10437
-0.0911528
-0.0575785
-0.0662771
-0.113765
-0.0970802
-0.0838275
-0.0286474
-0.0327515
-0.0608978
-0.0744833
-0.0573927
-0.105717
-0.0220551
-0.033017
-0.116032
-0.135071
-0.144252
-0.147016
-0.0829258
0.00757612
-0.012808
-0.0282075
-0.0299756
-0.0544392
-0.010649
-0.0104155
0.0221744
-0.00307985
-0.0158619
0.0241561
-0.0281556
-0.0473965
-0.066732
-0.0208205
0.0220739
-0.0240668
-0.06859
-0.0115852
0.000503989
0.00362001
0.0166952
0.0417399
0.039396
-0.0229808
-0.0421348
-0.0209763
-0.0251159
0.0167568
0.0402705
0.0580063
0.0655792
0.062129
0.0992153
0.138557
0.110742
0.120971
0.136168
0.128843
0.187634
0.170476
0.202366
0.192894
0.156414
0.155512
0.093446
0.0202823
-0.174065
-0.219714
-0.181597
-0.211056
-0.218766
-0.234396
-0.175766
-0.0963694
-0.105361
-0.144619
-0.146411
-0.158197
-0.134406
-0.0753513
-0.0990283
-0.0722696
-0.0657066
-0.139325
-0.175168
-0.169133
-0.0954565
-0.0971644
-0.0235872
0.0452263
-0.0621324
-0.108882
-0.0882031
-0.0706814
-0.144891
-0.216381
-0.184714
-0.192271
-0.184841
-0.134684
-0.113564
-0.119437
-0.105815
-0.123751
-0.12712
-0.120951
-0.0512082
-0.0396977
-0.0386808
-0.0668472
-0.0756793
-0.0923351
-0.037476
-0.0788902
-0.116113
-0.19983
-0.180883
-0.0837059
-0.0569085
-0.0178693
-0.0196002
-0.0487945
-0.0172947
-0.0168287
-0.00417865
-0.0242736
-0.00637546
-0.023207
-5.78673e-05
-0.00999148
-0.00563528
0.00284568
-0.032216
-0.0383482
-0.0281208
-0.0593615
-0.0353798
-0.00224671
0.0135693
-0.0018632
-0.0223848
0.0334331
0.0646794
0.00233194
-0.060346
-0.0183588
-0.0566045
0.0101098
0.0428777
0.0676127
0.0644597
0.0776284
0.0974443
0.149866
0.108778
0.118736
0.140802
0.152841
0.204083
0.140731
0.208127
0.19242
0.15535
0.164433
0.101928
0.0521788
-0.204015
-0.233097
-0.209687
-0.214527
-0.254374
-0.26163
-0.230991
-0.168964
-0.0861463
-0.150806
-0.183611
-0.164659
-0.139175
-0.127115
-0.106771
-0.111196
-0.126237
-0.197938
-0.115399
-0.138384
-0.168721
-0.135186
-0.149755
-0.140036
-0.0802584
-0.0934769
-0.0780206
-0.138058
-0.167996
-0.194457
-0.174801
-0.19644
-0.189192
-0.203432
-0.142675
-0.141355
-0.12697
-0.133878
-0.118048
-0.169988
-0.0656462
-0.0830753
-0.0894736
-0.105096
-0.061839
-0.0783787
-0.0932673
-0.0758437
-0.131847
-0.1619
-0.128172
-0.136832
-0.0629119
-0.0461312
-0.0329942
-0.0489828
-0.0699491
-0.0917421
-0.0600121
-0.0255669
0.0167911
-0.00447974
0.00479462
0.0130086
-0.0369245
-0.0545089
-0.0211526
-0.0143564
-0.0183174
-0.0763063
-0.0723298
-0.028876
0.0272759
-0.0274329
-0.00320665
0.03633
0.0581791
-0.0254507
-0.0294148
-0.0248764
-0.0545554
-0.0177045
0.0340669
0.0669142
0.0344107
0.0366507
0.103195
0.15849
0.112795
0.13859
0.138668
0.17784
0.16841
0.177207
0.189285
0.179084
0.188157
0.171671
0.112163
0.0104077
-0.243885
-0.222225
-0.201894
-0.221727
-0.233317
-0.220916
-0.221584
-0.204078
-0.201759
-0.197134
-0.193274
-0.177873
-0.188381
-0.170566
-0.151385
-0.17158
-0.173051
-0.21533
-0.201988
-0.198304
-0.131715
-0.135346
-0.0705325
-0.12208
-0.161625
-0.149047
-0.131354
-0.133684
-0.225601
-0.239244
-0.207743
-0.196066
-0.198366
-0.27836
-0.17025
-0.183665
-0.150872
-0.111716
-0.139457
-0.175218
-0.0991857
-0.0981156
-0.127719
-0.0753057
-0.0727473
-0.151527
-0.124961
-0.0845951
-0.140865
-0.161122
-0.131686
-0.0950312
-0.111391
-0.052225
-0.0346529
-0.0671077
-0.051605
-0.0406832
-0.0730341
-0.0519839
-0.0258725
0.000640739
0.00466801
-0.0250676
-0.0331011
-0.0343117
-0.0180142
-0.0276783
-0.00459233
-0.070505
-0.0179108
-0.0179015
-0.0417114
-0.0219564
-0.0438435
0.0224977
0.0602034
-0.00732603
-0.0246409
-0.0899958
-0.0685983
-0.0138484
0.043594
0.0853767
0.0217854
0.0329307
0.0631168
0.132948
0.133628
0.151831
0.144234
0.175377
0.151983
0.186797
0.185281
0.175908
0.181026
0.151362
0.116868
0.0304368
-0.247182
-0.227071
-0.217393
-0.209598
-0.259032
-0.310005
-0.22507
-0.186791
-0.19837
-0.213541
-0.225258
-0.235665
-0.187918
-0.170172
-0.168118
-0.222763
-0.202992
-0.243412
-0.186482
-0.216713
-0.189803
-0.137002
-0.0928114
-0.149731
-0.211548
-0.163333
-0.150102
-0.172439
-0.249833
-0.286527
-0.250819
-0.206282
-0.17779
-0.260329
-0.275841
-0.152451
-0.121297
-0.13755
-0.199201
-0.158951
-0.128495
-0.149243
-0.163191
-0.0659824
-0.0763648
-0.11714
-0.106926
-0.0934256
-0.139673
-0.128662
-0.13015
-0.114816
-0.113279
-0.0900961
-0.0779196
-0.0572597
-0.0451278
-0.0404044
-0.0750872
-0.0321312
-0.0398494
-0.0458849
-0.0317165
-0.0258646
-0.0416616
-0.0139836
-0.0217051
-0.0144781
0.00674828
-0.0315486
-0.0368473
-0.0440846
-0.0749981
-0.0451793
-0.0202024
0.0251818
0.0449065
-0.0135928
-0.0662464
-0.132768
-0.0584005
-0.0294969
0.0289165
0.0856541
0.0443884
0.018312
0.0822581
0.135004
0.118694
0.172916
0.128473
0.142828
0.178214
0.212816
0.158631
0.165459
0.197852
0.175487
0.108512
0.0140832
-0.246794
-0.218275
-0.219179
-0.256387
-0.228432
-0.246462
-0.230899
-0.202707
-0.209013
-0.242795
-0.282628
-0.268621
-0.231831
-0.190397
-0.190494
-0.226677
-0.234627
-0.241942
-0.184656
-0.219371
-0.210864
-0.170817
-0.153801
-0.188692
-0.196396
-0.193222
-0.164159
-0.240676
-0.265186
-0.249127
-0.267083
-0.244196
-0.196468
-0.187956
-0.251663
-0.19772
-0.14734
-0.178981
-0.225438
-0.178231
-0.11113
-0.151893
-0.132593
-0.0427827
-0.0833504
-0.129985
-0.140292
-0.187796
-0.158062
-0.106369
-0.120275
-0.116028
-0.101326
-0.047755
-0.0618112
-0.0386143
-0.0508933
-0.0499546
-0.0736271
-0.0570877
-0.0630945
-0.0503647
-0.0396606
-0.0551706
-0.0358916
-0.0220066
0.00340131
0.00978657
0.00316361
-0.018612
-0.0134921
-0.0258641
-0.0714188
-0.0531459
-0.0444223
0.00507391
0.00194057
-0.0435613
-0.0644368
-0.0472276
-0.0649766
-0.0262568
-0.00985557
0.0173092
0.0378752
0.0615546
0.0903949
0.115576
0.116437
0.134324
0.130618
0.158587
0.176817
0.210916
0.190288
0.162907
0.184653
0.16285
0.128325
0.0490744
-0.264788
-0.239251
-0.204399
-0.226581
-0.208614
-0.223104
-0.281399
-0.248261
-0.245653
-0.253694
-0.294164
-0.256503
-0.242747
-0.265465
-0.201611
-0.217142
-0.216505
-0.205058
-0.244608
-0.259968
-0.182448
-0.201269
-0.171159
-0.166982
-0.232181
-0.221618
-0.188964
-0.23274
-0.269665
-0.300547
-0.300916
-0.239451
-0.172709
-0.168064
-0.198003
-0.22561
-0.21003
-0.200113
-0.189567
-0.166938
-0.139976
-0.11377
-0.089039
-0.107566
-0.111986
-0.146993
-0.113017
-0.133947
-0.11809
-0.126798
-0.158833
-0.101662
-0.0539447
-0.0475593
-0.0725049
-0.0622102
-0.049692
-0.0550821
-0.0677889
-0.0904074
-0.0823341
-0.0770251
-0.0689657
-0.0569763
-0.0321058
0.000512351
0.0249462
0.0477802
0.00412321
-0.0168151
-0.0431708
-0.0652705
-0.0714034
-0.0253135
-0.0350719
0.000286182
-0.019035
-0.0764547
-0.0541005
-0.0420754
-0.0286085
0.010252
-0.022296
0.0158076
0.00979936
0.0464296
0.103681
0.113071
0.104212
0.148253
0.166224
0.172207
0.127363
0.192085
0.224754
0.202225
0.195161
0.172114
0.103767
0.0550621
-0.260506
-0.220507
-0.196443
-0.228223
-0.2004
-0.232113
-0.258994
-0.269506
-0.248832
-0.255982
-0.270792
-0.26616
-0.270204
-0.274943
-0.259545
-0.22719
-0.187464
-0.206201
-0.242077
-0.231779
-0.201963
-0.21783
-0.170862
-0.19655
-0.225947
-0.212466
-0.246458
-0.245494
-0.257342
-0.235764
-0.291624
-0.261434
-0.219717
-0.210163
-0.198961
-0.175705
-0.20968
-0.21802
-0.161173
-0.153096
-0.138275
-0.14527
-0.107808
-0.0845053
-0.114602
-0.120799
-0.118067
-0.164863
-0.171184
-0.14203
-0.110569
-0.0595409
-0.0434249
-0.0476515
-0.0677652
-0.0537594
-0.0731662
-0.0855922
-0.102654
-0.0813781
-0.0398454
-0.0798
-0.0868991
-0.103872
-0.0343897
0.0514552
0.0380913
0.0385921
-0.00154079
-0.00253865
-0.029579
-0.085127
-0.03537
0.00565196
-0.0082038
0.0069491
-0.0437168
-0.11799
-0.0639171
-0.0168342
-0.0491587
0.015374
0.00185812
-0.0139418
0.0173772
0.0546076
0.0827333
0.106235
0.12049
0.111401
0.108716
0.12578
0.14767
0.199749
0.227724
0.204052
0.192015
0.154178
0.0940548
0.0583414
-0.236265
-0.208878
-0.190263
-0.231224
-0.224446
-0.180863
-0.186186
-0.234973
-0.239142
-0.268381
-0.292616
-0.287354
-0.282625
-0.293653
-0.191269
-0.178257
-0.198798
-0.239359
-0.221255
-0.217314
-0.187879
-0.195791
-0.202806
-0.223057
-0.245142
-0.178066
-0.219848
-0.225665
-0.287017
-0.292394
-0.277613
-0.267028
-0.278887
-0.245545
-0.151038
-0.125546
-0.184278
-0.201399
-0.15931
-0.153179
-0.136597
-0.118743
-0.142541
-0.0817929
-0.105454
-0.133533
-0.124147
-0.155713
-0.161335
-0.135833
-0.0836284
-0.0641849
-0.0488158
-0.0299128
-0.0192792
-0.0614308
-0.0535022
-0.0902608
-0.119439
-0.112346
-0.0924665
-0.0875123
-0.0671195
-0.111194
0.0147146
0.00886165
0.00120011
0.0107584
0.0246312
0.025248
-0.00694577
-0.0738486
-0.0409272
-0.00397221
-0.0117918
-0.00539123
-0.0480856
-0.0876597
-0.0637918
-0.0375171
-0.0615176
-0.0149396
0.00146058
0.0147924
-0.015675
0.0323215
0.112191
0.0745172
0.106128
0.0868863
0.171641
0.133885
0.152315
0.155639
0.176452
0.189439
0.180638
0.148989
0.104594
0.0217004
-0.179618
-0.189879
-0.197089
-0.188549
-0.170697
-0.137543
-0.213766
-0.259239
-0.239231
-0.260534
-0.249697
-0.226194
-0.250117
-0.271297
-0.250925
-0.236019
-0.261209
-0.254956
-0.206429
-0.200125
-0.16081
-0.135391
-0.169986
-0.213274
-0.248426
-0.229431
-0.174641
-0.207892
-0.264449
-0.26584
-0.25431
-0.269841
-0.278299
-0.225277
-0.164032
-0.182065
-0.178692
-0.142519
-0.163659
-0.150344
-0.135168
-0.143998
-0.134747
-0.115806
-0.12361
-0.147044
-0.121902
-0.0876096
-0.161627
-0.116028
-0.101159
-0.0812976
-0.0492055
-0.0460606
-0.0421203
-0.0494484
-0.0190565
-0.0927611
-0.148798
-0.122297
-0.0852819
-0.0938507
-0.0785679
-0.0808759
-0.0399193
-0.00424434
0.0318076
0.0170659
0.0121686
-0.00736909
-0.00152024
-0.0235032
-0.0102686
-0.00303287
-0.026002
-0.0293238
-0.00463823
-0.0638844
-0.133772
-0.0622963
-0.0558214
-0.00962186
0.0255037
0.0312085
0.00748564
0.0273749
0.0655773
0.046576
0.0836708
0.110444
0.12591
0.123778
0.115027
0.164714
0.191186
0.205848
0.168112
0.10832
0.0611474
0.011399
-0.184427
-0.144867
-0.118138
-0.141866
-0.20122
-0.124541
-0.154801
-0.183914
-0.235008
-0.30269
-0.23101
-0.226677
-0.238422
-0.292086
-0.233746
-0.174092
-0.160706
-0.214919
-0.21064
-0.176783
-0.179967
-0.199753
-0.183589
-0.181115
-0.237698
-0.213874
-0.253671
-0.239832
-0.232362
-0.2269
-0.24365
-0.217061
-0.267866
-0.220114
-0.129404
-0.162918
-0.156003
-0.127954
-0.158696
-0.13009
-0.103017
-0.125182
-0.148137
-0.104353
-0.113278
-0.107358
-0.105377
-0.117061
-0.142099
-0.106398
-0.0751555
-0.0501271
-0.0398965
-0.00950712
-0.0399958
-0.0798309
-0.115898
-0.150941
-0.141332
-0.1398
-0.100279
-0.103767
-0.0753854
-0.0757652
-0.038567
0.0137617
-0.012178
0.0378524
-0.0174626
-0.00787594
0.0114023
-0.010752
-0.0186762
-0.0344685
-0.0599227
-0.00164722
-0.0188423
-0.0310618
-0.081319
-0.0714129
-0.0614595
-0.00366009
0.0263129
0.0232962
-0.016409
0.0291497
0.0606802
0.0189095
0.0767435
0.0978145
0.0763663
0.108477
0.102603
0.135255
0.182776
0.198393
0.138851
0.069147
0.0726347
0.0278757
-0.145546
-0.117643
-0.14772
-0.108826
-0.119592
-0.082554
-0.105352
-0.162438
-0.168217
-0.223529
-0.267432
-0.251306
-0.236361
-0.263092
-0.253331
-0.206086
-0.149474
-0.18904
-0.193475
-0.165333
-0.199743
-0.19805
-0.172988
-0.14747
-0.194263
-0.206494
-0.220098
-0.223328
-0.204171
-0.203879
-0.216351
-0.22631
-0.21849
-0.200274
-0.0828502
-0.139048
-0.138743
-0.128586
-0.111997
-0.128834
-0.113905
-0.0565891
-0.10243
-0.103452
-0.126066
-0.123736
-0.0910132
-0.052322
-0.0945337
-0.0861984
-0.114359
-0.0718719
-0.0377589
-0.0503843
-0.0636217
-0.0660422
-0.0891511
-0.0730522
-0.166477
-0.126618
-0.122749
-0.115114
-0.0591156
-0.0829848
-0.0508614
0.000544851
-0.00419953
0.0488222
-0.00527113
-0.0133824
-0.0226956
-0.0202605
-0.0483262
-0.0438481
-0.0449988
-0.00533621
0.0105595
-0.0231335
-0.0818294
-0.0734272
-0.0635618
0.0210631
0.0616003
-0.0101395
-0.0754924
0.0184762
0.0308582
0.0404821
0.0542935
0.0598548
0.0588324
0.089508
0.0886644
0.127763
0.125305
0.154687
0.148079
0.104113
0.072681
0.0166182
-0.0622942
-0.063782
-0.0810103
-0.0946227
-0.115555
-0.075031
-0.0838175
-0.0953968
-0.140928
-0.201863
-0.224117
-0.200127
-0.185746
-0.206026
-0.238344
-0.217772
-0.141937
-0.16248
-0.16932
-0.143007
-0.184763
-0.192964
-0.205579
-0.159126
-0.15837
-0.186662
-0.205284
-0.203711
-0.203698
-0.216961
-0.215213
-0.188878
-0.147872
-0.0930831
-0.0967914
-0.110689
-0.0857411
-0.110569
-0.155373
-0.0989834
-0.0776349
-0.0327638
-0.100321
-0.0963208
-0.0945689
-0.0843332
-0.079899
-0.0596089
-0.0801576
-0.0708719
-0.0505425
-0.0428143
-0.0403995
-0.0458599
-0.0641605
-0.0692991
-0.116724
-0.088434
-0.149681
-0.120583
-0.0988591
-0.0817659
-0.0749147
-0.0967519
-0.0343978
0.00327082
-0.00907934
0.0565895
0.0359648
-0.0426632
-0.0370409
-0.0286513
-0.0466128
-0.0402735
-0.0349876
0.0500535
0.0174821
-0.0281496
-0.0716385
-0.0583297
-0.0494717
0.010923
0.0249726
0.0269485
-0.0984354
0.0147992
0.0182156
0.0106079
0.0181806
0.0127932
0.0369419
0.0491386
0.0633637
0.0867024
0.0946139
0.118483
0.100262
0.0807257
0.0679575
0.021524
-0.0206645
-0.0516522
-0.0882866
-0.0603774
-0.0700242
0.0187538
-0.00437265
-0.0626004
-0.147781
-0.192131
-0.171643
-0.153359
-0.164197
-0.188097
-0.181709
-0.168706
-0.154627
-0.140544
-0.188718
-0.147972
-0.167581
-0.198992
-0.14697
-0.125865
-0.14408
-0.160337
-0.182994
-0.215273
-0.192173
-0.170761
-0.14029
-0.135808
-0.167622
-0.0887906
-0.0494153
-0.0459621
-0.0835356
-0.0884892
-0.0904542
-0.0525854
-0.0482979
-0.0255495
-0.0754347
-0.109702
-0.0942394
-0.0918165
-0.0521312
-0.0548644
-0.0407401
-0.0378565
-0.0555348
-0.0212835
-0.0124356
-0.0161503
-0.0596609
-0.0777076
-0.0885061
-0.0830624
-0.109216
-0.116915
-0.114635
-0.0971678
-0.0737803
-0.0305867
-0.0299553
-0.0644517
-0.0603089
0.028504
0.0362254
0.0224704
-0.0358439
-0.0158395
-0.0562214
-0.0528025
-0.031035
0.0232377
0.0176504
0.0214212
0.0240875
-0.00581819
-0.040152
-0.00129179
-0.0199598
-0.0430127
-0.0482638
0.00596324
-0.0201415
-0.00768515
-0.00503589
0.0173536
0.0268707
-0.00544342
0.0121371
0.0514703
0.0229809
0.0675187
0.103542
0.0847987
0.0733454
0.0354328
0.0122544
0.00684062
0.0147864
-0.0140043
-0.00691572
0.00911012
-0.0178802
-0.0473996
-0.0788424
-0.119346
-0.118444
-0.116391
-0.114783
-0.116983
-0.142076
-0.184255
-0.135596
-0.106069
-0.0970867
-0.125813
-0.127968
-0.12475
-0.097955
-0.147233
-0.169885
-0.122176
-0.161814
-0.142533
-0.158967
-0.149121
-0.113348
-0.173048
-0.0991804
-0.024852
0.0140774
-0.034611
-0.0846557
-0.0679239
-0.0660207
-0.0241757
-0.0251928
-0.0205909
-0.0472303
-0.0525181
-0.0305458
-0.0622989
-0.0344702
-0.0386025
-0.0494259
-0.0243266
0.00245701
-0.00194992
0.0280803
-0.00546011
-0.0636236
-0.0395594
-0.0598684
-0.0337086
-0.0718483
-0.124576
-0.147179
-0.0766462
-0.0930539
-0.0461553
-0.0117229
-0.0455337
-0.0325237
0.0382406
-0.0064385
0.0164577
-0.0239318
-0.0284597
-0.0739835
-0.0138288
0.0271966
0.0145841
0.031105
0.036135
-0.00341186
-0.004149
-0.0204054
-0.00414086
-0.0349178
-0.0352167
-0.0250288
-0.0269423
-0.0550166
-0.00136409
-0.0134839
-0.0125632
0.0137198
-0.0146522
-0.014443
-0.00392908
0.00211901
0.033652
0.0864883
0.0817178
0.0879898
0.0450833
0.0689601
0.0346737
-0.00521083
0.0299267
0.061746
0.0872055
0.0515774
0.0151562
-0.0295142
-0.0616196
-0.0964211
-0.121777
-0.0761057
-0.0684349
-0.059273
-0.112205
-0.135248
-0.10253
-0.0632715
-0.140746
-0.109991
-0.132375
-0.114784
-0.12546
-0.101132
-0.0832075
-0.105692
-0.0901874
-0.150524
-0.145057
-0.124147
-0.0817921
-0.0627871
-0.0117007
0.0251327
0.0242884
-0.0166126
-0.0298495
-0.0367793
-0.0216552
-0.0138996
0.00929675
-0.0245005
-0.0669046
-0.0255708
-0.0286246
-0.0146319
-0.0185102
0.00745702
-0.00243058
0.0440849
0.0597906
0.0578725
0.0238473
-0.0166761
-0.0218491
-0.112401
-0.0137602
-0.0635498
-0.102597
-0.0979018
-0.101688
-0.110186
-0.08462
-0.02607
0.0149737
-0.00113987
-0.00982786
-0.0348788
-0.0141776
0.00974874
-0.0238807
-0.0328904
0.000879166
0.0400909
0.0380641
0.0438603
-0.0115181