/*--------------------------------*- C++ -*----------------------------------*\
| =========                 |                                                 |
| \\      /  F ield         | OpenFOAM: The Open Source CFD Toolbox           |
|  \\    /   O peration     | Version:  v2012                                 |
|   \\  /    A nd           | Website:  www.openfoam.com                      |
|    \\/     M anipulation  |                                                 |
\*---------------------------------------------------------------------------*/
FoamFile
{
    version     2.0;
    format      ascii;
    class       surfaceScalarField;
    location    "0.75";
    object      phi;
}
// * * * * * * * * * * * * * * * * * * * * * * * * * * * * * * * * * * * * * //

dimensions      [0 3 -1 0 0 0 0];
oriented        oriented;


internalField   nonuniform List<scalar> 
130560
(
3.37187e-06
-3.37187e-06
6.74352e-06
-3.37165e-06
1.01147e-05
-3.37119e-06
1.34852e-05
-3.37051e-06
1.68548e-05
-3.3696e-06
2.02233e-05
-3.36845e-06
2.35904e-05
-3.36708e-06
2.69558e-05
-3.36547e-06
3.03194e-05
-3.36361e-06
3.3681e-05
-3.36152e-06
3.70401e-05
-3.35918e-06
4.03967e-05
-3.35659e-06
4.37505e-05
-3.35375e-06
4.71011e-05
-3.35064e-06
5.04484e-05
-3.34728e-06
5.3792e-05
-3.34364e-06
5.71317e-05
-3.33972e-06
6.04673e-05
-3.33552e-06
6.37983e-05
-3.33103e-06
6.71245e-05
-3.32624e-06
7.04457e-05
-3.32115e-06
7.37614e-05
-3.31575e-06
7.70715e-05
-3.31002e-06
8.03754e-05
-3.30397e-06
8.3673e-05
-3.29758e-06
8.69638e-05
-3.29084e-06
9.02476e-05
-3.28375e-06
9.35239e-05
-3.2763e-06
9.67924e-05
-3.26847e-06
0.000100053
-3.26026e-06
0.000103304
-3.25165e-06
0.000106547
-3.24264e-06
0.00010978
-3.23322e-06
0.000113004
-3.22338e-06
0.000116217
-3.2131e-06
0.000119419
-3.20238e-06
0.00012261
-3.19121e-06
0.00012579
-3.17957e-06
0.000128957
-3.16745e-06
0.000132112
-3.15485e-06
0.000135254
-3.14176e-06
0.000138382
-3.12816e-06
0.000141496
-3.11404e-06
0.000144595
-3.0994e-06
0.00014768
-3.08423e-06
0.000150748
-3.06851e-06
0.0001538
-3.05224e-06
0.000156836
-3.0354e-06
0.000159854
-3.01799e-06
0.000162854
-3e-06
0.000165835
-2.98142e-06
0.000168797
-2.96225e-06
0.00017174
-2.94247e-06
0.000174662
-2.92208e-06
0.000177563
-2.90107e-06
0.000180443
-2.87944e-06
0.0001833
-2.85717e-06
0.000186134
-2.83428e-06
0.000188945
-2.81074e-06
0.000191731
-2.78655e-06
0.000194493
-2.76172e-06
0.000197229
-2.73623e-06
0.000199939
-2.71009e-06
0.000202623
-2.68329e-06
0.000205278
-2.65584e-06
0.000207906
-2.62772e-06
0.000210505
-2.59895e-06
0.000213075
-2.56951e-06
0.000215614
-2.53942e-06
0.000218123
-2.50867e-06
0.0002206
-2.47727e-06
0.000223045
-2.44522e-06
0.000225458
-2.41251e-06
0.000227837
-2.37917e-06
0.000230182
-2.34519e-06
0.000232493
-2.31057e-06
0.000234768
-2.27533e-06
0.000237007
-2.23947e-06
0.00023921
-2.20299e-06
0.000241376
-2.16592e-06
0.000243505
-2.12825e-06
0.000245595
-2.08999e-06
0.000247646
-2.05116e-06
0.000249658
-2.01176e-06
0.000251629
-1.97181e-06
0.000253561
-1.93131e-06
0.000255451
-1.89029e-06
0.0002573
-1.84875e-06
0.000259106
-1.8067e-06
0.000260871
-1.76416e-06
0.000262592
-1.72115e-06
0.000264269
-1.67767e-06
0.000265903
-1.63375e-06
0.000267492
-1.58939e-06
0.000269037
-1.54461e-06
0.000270537
-1.49942e-06
0.00027199
-1.45386e-06
0.000273398
-1.40791e-06
0.00027476
-1.36162e-06
0.000276075
-1.31498e-06
0.000277343
-1.26802e-06
0.000278564
-1.22075e-06
0.000279737
-1.1732e-06
0.000280862
-1.12536e-06
0.000281939
-1.07727e-06
0.000282968
-1.02894e-06
0.000283949
-9.80385e-07
0.00028488
-9.31619e-07
0.000285763
-8.82659e-07
0.000286597
-8.33522e-07
0.000287381
-7.84224e-07
0.000288116
-7.3478e-07
0.000288801
-6.85206e-07
0.000289436
-6.35518e-07
0.000290022
-5.8573e-07
0.000290558
-5.35858e-07
0.000291044
-4.85915e-07
0.00029148
-4.35918e-07
0.000291866
-3.85879e-07
0.000292201
-3.35814e-07
0.000292487
-2.85735e-07
0.000292723
-2.35657e-07
0.000292908
-1.85594e-07
0.000293044
-1.35557e-07
0.00029313
-8.556e-08
0.000293165
-3.5616e-08
0.000293151
1.42627e-08
0.000293087
6.40639e-08
0.000292973
1.13775e-07
0.00029281
1.63386e-07
0.000292597
2.12882e-07
0.000292335
2.62254e-07
0.000292023
3.1149e-07
0.000291662
3.60579e-07
0.000291253
4.09509e-07
0.000290795
4.5827e-07
0.000290288
5.0685e-07
0.000289733
5.5524e-07
0.000289129
6.03428e-07
0.000288478
6.51404e-07
0.000287779
6.99158e-07
0.000287032
7.46679e-07
0.000286238
7.93956e-07
0.000285397
8.40981e-07
0.000284509
8.87741e-07
0.000283575
9.34229e-07
0.000282595
9.80432e-07
0.000281568
1.02634e-06
0.000280496
1.07195e-06
0.000279379
1.11724e-06
0.000278217
1.16221e-06
0.00027701
1.20684e-06
0.000275759
1.25113e-06
0.000274464
1.29507e-06
0.000273125
1.33865e-06
0.000271743
1.38185e-06
0.000270319
1.42467e-06
0.000268852
1.4671e-06
0.000267342
1.50913e-06
0.000265792
1.55075e-06
0.0002642
1.59195e-06
0.000262567
1.63272e-06
0.000260894
1.67305e-06
0.000259181
1.71294e-06
0.000257429
1.75237e-06
0.000255637
1.79134e-06
0.000253807
1.82984e-06
0.00025194
1.86786e-06
0.000250034
1.90539e-06
0.000248092
1.94242e-06
0.000246113
1.97896e-06
0.000244098
2.01498e-06
0.000242047
2.05049e-06
0.000239962
2.08547e-06
0.000237842
2.11993e-06
0.000235688
2.15385e-06
0.000233501
2.18724e-06
0.000231281
2.22008e-06
0.000229028
2.25237e-06
0.000226744
2.2841e-06
0.000224429
2.31528e-06
0.000222083
2.34589e-06
0.000219707
2.37594e-06
0.000217302
2.40543e-06
0.000214867
2.43434e-06
0.000212405
2.46269e-06
0.000209914
2.49046e-06
0.000207397
2.51765e-06
0.000204852
2.54427e-06
0.000202282
2.57032e-06
0.000199686
2.5958e-06
0.000197066
2.6207e-06
0.000194421
2.64502e-06
0.000191752
2.66878e-06
0.00018906
2.69197e-06
0.000186345
2.71459e-06
0.000183609
2.73665e-06
0.00018085
2.75815e-06
0.000178071
2.77909e-06
0.000175272
2.79948e-06
0.000172453
2.81932e-06
0.000169614
2.83861e-06
0.000166757
2.85737e-06
0.000163881
2.8756e-06
0.000160988
2.8933e-06
0.000158077
2.91047e-06
0.00015515
2.92713e-06
0.000152207
2.94329e-06
0.000149248
2.95894e-06
0.000146274
2.97409e-06
0.000143285
2.98876e-06
0.000140282
3.00295e-06
0.000137265
3.01666e-06
0.000134235
3.02991e-06
0.000131193
3.0427e-06
0.000128138
3.05504e-06
0.000125071
3.06695e-06
0.000121992
3.07841e-06
0.000118903
3.08946e-06
0.000115803
3.10009e-06
0.000112692
3.11031e-06
0.000109572
3.12012e-06
0.000106443
3.12955e-06
0.000103304
3.1386e-06
0.000100157
3.14727e-06
9.70014e-05
3.15557e-06
9.38378e-05
3.16351e-06
9.06667e-05
3.17111e-06
8.74884e-05
3.17836e-06
8.43031e-05
3.18527e-06
8.11113e-05
3.19186e-06
7.79131e-05
3.19813e-06
7.4709e-05
3.20408e-06
7.14993e-05
3.20973e-06
6.82842e-05
3.21508e-06
6.50641e-05
3.22014e-06
6.18392e-05
3.22491e-06
5.86098e-05
3.22941e-06
5.53761e-05
3.23363e-06
5.21386e-05
3.23758e-06
4.88973e-05
3.24127e-06
4.56526e-05
3.24471e-06
4.24047e-05
3.24789e-06
3.91539e-05
3.25083e-06
3.59003e-05
3.25352e-06
3.26444e-05
3.25597e-06
2.93862e-05
3.25819e-06
2.6126e-05
3.26018e-06
2.28641e-05
3.26194e-06
1.96006e-05
3.26347e-06
1.63358e-05
3.26478e-06
1.307e-05
3.26586e-06
9.80322e-06
3.26673e-06
6.53584e-06
3.26738e-06
3.26803e-06
3.26781e-06
3.26803e-06
3.3721e-06
-6.74397e-06
6.74397e-06
-6.74352e-06
1.01154e-05
-6.74261e-06
1.34861e-05
-6.74125e-06
1.6856e-05
-6.73942e-06
2.02246e-05
-6.73714e-06
2.3592e-05
-6.73439e-06
2.69577e-05
-6.73117e-06
3.03215e-05
-6.72747e-06
3.36833e-05
-6.72329e-06
3.70427e-05
-6.71861e-06
4.03996e-05
-6.71344e-06
4.37536e-05
-6.70775e-06
4.71045e-05
-6.70155e-06
5.0452e-05
-6.69482e-06
5.37959e-05
-6.68755e-06
5.71359e-05
-6.67972e-06
6.04717e-05
-6.67133e-06
6.38031e-05
-6.66235e-06
6.71296e-05
-6.65279e-06
7.04511e-05
-6.64261e-06
7.37671e-05
-6.63181e-06
7.70775e-05
-6.62037e-06
8.03818e-05
-6.60827e-06
8.36797e-05
-6.5955e-06
8.69709e-05
-6.58204e-06
9.0255e-05
-6.56787e-06
9.35317e-05
-6.55297e-06
9.68005e-05
-6.53732e-06
0.000100061
-6.5209e-06
0.000103313
-6.5037e-06
0.000106556
-6.4857e-06
0.00010979
-6.46687e-06
0.000113014
-6.44719e-06
0.000116227
-6.42665e-06
0.00011943
-6.40521e-06
0.000122622
-6.38287e-06
0.000125802
-6.35961e-06
0.00012897
-6.33539e-06
0.000132125
-6.3102e-06
0.000135267
-6.28402e-06
0.000138396
-6.25683e-06
0.000141511
-6.22861e-06
0.000144611
-6.19934e-06
0.000147695
-6.169e-06
0.000150764
-6.13757e-06
0.000153817
-6.10503e-06
0.000156853
-6.07137e-06
0.000159872
-6.03656e-06
0.000162872
-6.00059e-06
0.000165854
-5.96344e-06
0.000168817
-5.9251e-06
0.00017176
-5.88555e-06
0.000174683
-5.84478e-06
0.000177585
-5.80277e-06
0.000180465
-5.75951e-06
0.000183323
-5.71498e-06
0.000186157
-5.66919e-06
0.000188969
-5.62212e-06
0.000191756
-5.57375e-06
0.000194518
-5.52409e-06
0.000197255
-5.47312e-06
0.000199966
-5.42084e-06
0.00020265
-5.36725e-06
0.000205306
-5.31234e-06
0.000207935
-5.25611e-06
0.000210534
-5.19856e-06
0.000213105
-5.13969e-06
0.000215645
-5.0795e-06
0.000218154
-5.018e-06
0.000220632
-4.95519e-06
0.000223078
-4.89108e-06
0.000225491
-4.82567e-06
0.000227871
-4.75898e-06
0.000230217
-4.69101e-06
0.000232528
-4.62177e-06
0.000234804
-4.55128e-06
0.000237044
-4.47955e-06
0.000239247
-4.40659e-06
0.000241414
-4.33243e-06
0.000243543
-4.25708e-06
0.000245633
-4.18055e-06
0.000247685
-4.10288e-06
0.000249697
-4.02407e-06
0.00025167
-3.94416e-06
0.000253602
-3.86316e-06
0.000255492
-3.7811e-06
0.000257342
-3.698e-06
0.000259149
-3.61389e-06
0.000260913
-3.52881e-06
0.000262635
-3.44276e-06
0.000264313
-3.35579e-06
0.000265947
-3.26793e-06
0.000267537
-3.17919e-06
0.000269082
-3.08962e-06
0.000270582
-2.99924e-06
0.000272036
-2.90808e-06
0.000273445
-2.81619e-06
0.000274806
-2.72358e-06
0.000276122
-2.63029e-06
0.00027739
-2.53635e-06
0.000278611
-2.4418e-06
0.000279785
-2.34667e-06
0.00028091
-2.25099e-06
0.000281988
-2.15479e-06
0.000283017
-2.05811e-06
0.000283998
-1.96098e-06
0.000284929
-1.86343e-06
0.000285812
-1.7655e-06
0.000286646
-1.66721e-06
0.00028743
-1.5686e-06
0.000288165
-1.46969e-06
0.00028885
-1.37053e-06
0.000289486
-1.27114e-06
0.000290072
-1.17155e-06
0.000290608
-1.07179e-06
0.000291094
-9.71888e-07
0.00029153
-8.71878e-07
0.000291916
-7.71787e-07
0.000292252
-6.71643e-07
0.000292537
-5.71472e-07
0.000292773
-4.71303e-07
0.000292958
-3.71162e-07
0.000293094
-2.71076e-07
0.000293179
-1.71069e-07
0.000293215
-7.11689e-08
0.000293201
2.86009e-08
0.000293137
1.28215e-07
0.000293023
2.2765e-07
0.000292859
3.26882e-07
0.000292646
4.25887e-07
0.000292384
5.24643e-07
0.000292072
6.23126e-07
0.000291711
7.21314e-07
0.000291302
8.19186e-07
0.000290843
9.16718e-07
0.000290336
1.01389e-06
0.000289781
1.11068e-06
0.000289177
1.20707e-06
0.000288526
1.30303e-06
0.000287826
1.39855e-06
0.000287079
1.4936e-06
0.000286285
1.58816e-06
0.000285444
1.68222e-06
0.000284556
1.77575e-06
0.000283621
1.86874e-06
0.000282641
1.96116e-06
0.000281614
2.05298e-06
0.000280542
2.14421e-06
0.000279424
2.2348e-06
0.000278262
2.32475e-06
0.000277054
2.41403e-06
0.000275803
2.50262e-06
0.000274507
2.59051e-06
0.000273168
2.67767e-06
0.000271786
2.76408e-06
0.000270361
2.84974e-06
0.000268894
2.93461e-06
0.000267384
3.01867e-06
0.000265833
3.10192e-06
0.000264241
3.18433e-06
0.000262607
3.26588e-06
0.000260934
3.34655e-06
0.00025922
3.42633e-06
0.000257468
3.50521e-06
0.000255676
3.58315e-06
0.000253846
3.66016e-06
0.000251977
3.7362e-06
0.000250071
3.81127e-06
0.000248128
3.88535e-06
0.000246149
3.95842e-06
0.000244133
4.03048e-06
0.000242082
4.1015e-06
0.000239996
4.17148e-06
0.000237876
4.2404e-06
0.000235722
4.30825e-06
0.000233534
4.37502e-06
0.000231313
4.4407e-06
0.00022906
4.50528e-06
0.000226776
4.56876e-06
0.00022446
4.63112e-06
0.000222113
4.69235e-06
0.000219737
4.75246e-06
0.000217331
4.81143e-06
0.000214896
4.86926e-06
0.000212433
4.92594e-06
0.000209942
4.98149e-06
0.000207423
5.03588e-06
0.000204878
5.08912e-06
0.000202308
5.14122e-06
0.000199711
5.19217e-06
0.00019709
5.24196e-06
0.000194444
5.29062e-06
0.000191775
5.33813e-06
0.000189082
5.3845e-06
0.000186367
5.42974e-06
0.00018363
5.47386e-06
0.000180871
5.51685e-06
0.000178092
5.55873e-06
0.000175292
5.5995e-06
0.000172472
5.63918e-06
0.000169633
5.67777e-06
0.000166775
5.71528e-06
0.000163899
5.75173e-06
0.000161005
5.78711e-06
0.000158094
5.82146e-06
0.000155166
5.85478e-06
0.000152222
5.88707e-06
0.000149263
5.91837e-06
0.000146288
5.94867e-06
0.000143299
5.978e-06
0.000140296
6.00637e-06
0.000137279
6.03379e-06
0.000134248
6.06028e-06
0.000131205
6.08585e-06
0.00012815
6.11053e-06
0.000125082
6.13433e-06
0.000122003
6.15725e-06
0.000118914
6.17933e-06
0.000115813
6.20058e-06
0.000112702
6.22101e-06
0.000109582
6.24064e-06
0.000106452
6.25949e-06
0.000103313
6.27757e-06
0.000100165
6.2949e-06
9.70093e-05
6.3115e-06
9.38455e-05
6.32738e-06
9.0674e-05
6.34256e-06
8.74953e-05
6.35705e-06
8.43097e-05
6.37087e-06
8.11176e-05
6.38404e-06
7.79191e-05
6.39657e-06
7.47147e-05
6.40847e-06
7.15047e-05
6.41976e-06
6.82893e-05
6.43046e-06
6.50689e-05
6.44057e-06
6.18437e-05
6.45011e-06
5.8614e-05
6.45909e-06
5.53801e-05
6.46753e-06
5.21423e-05
6.47543e-06
4.89007e-05
6.4828e-06
4.56558e-05
6.48967e-06
4.24076e-05
6.49603e-06
3.91566e-05
6.5019e-06
3.59028e-05
6.50728e-06
3.26466e-05
6.51218e-06
2.93882e-05
6.51661e-06
2.61278e-05
6.52058e-06
2.28656e-05
6.5241e-06
1.96019e-05
6.52716e-06
1.63369e-05
6.52978e-06
1.30708e-05
6.53195e-06
9.80388e-06
6.53368e-06
6.53628e-06
6.53498e-06
3.26825e-06
6.53584e-06
6.53627e-06
3.37255e-06
-1.01165e-05
6.74488e-06
-1.01158e-05
1.01168e-05
-1.01145e-05
1.3488e-05
-1.01124e-05
1.68582e-05
-1.01097e-05
2.02274e-05
-1.01063e-05
2.35952e-05
-1.01022e-05
2.69614e-05
-1.00974e-05
3.03257e-05
-1.00918e-05
3.3688e-05
-1.00855e-05
3.70479e-05
-1.00785e-05
4.04052e-05
-1.00708e-05
4.37598e-05
-1.00623e-05
4.71112e-05
-1.0053e-05
5.04593e-05
-1.00429e-05
5.38038e-05
-1.0032e-05
5.71443e-05
-1.00203e-05
6.04807e-05
-1.00077e-05
6.38126e-05
-9.99427e-06
6.71398e-05
-9.97994e-06
7.04619e-05
-9.96469e-06
7.37786e-05
-9.94851e-06
7.70896e-05
-9.93137e-06
8.03946e-05
-9.91325e-06
8.36932e-05
-9.89412e-06
8.69851e-05
-9.87394e-06
9.02699e-05
-9.85271e-06
9.35473e-05
-9.83038e-06
9.6817e-05
-9.80693e-06
0.000100078
-9.78234e-06
0.000103331
-9.75656e-06
0.000106575
-9.72958e-06
0.00010981
-9.70136e-06
0.000113034
-9.67187e-06
0.000116249
-9.64108e-06
0.000119452
-9.60896e-06
0.000122645
-9.57547e-06
0.000125826
-9.5406e-06
0.000128995
-9.50429e-06
0.000132151
-9.46654e-06
0.000135295
-9.4273e-06
0.000138424
-9.38654e-06
0.00014154
-9.34423e-06
0.000144641
-9.30035e-06
0.000147727
-9.25486e-06
0.000150797
-9.20774e-06
0.000153851
-9.15896e-06
0.000156888
-9.10848e-06
0.000159908
-9.05629e-06
0.000162909
-9.00236e-06
0.000165893
-8.94665e-06
0.000168857
-8.88916e-06
0.000171801
-8.82985e-06
0.000174725
-8.76871e-06
0.000177628
-8.70571e-06
0.000180509
-8.64083e-06
0.000183368
-8.57407e-06
0.000186205
-8.50539e-06
0.000189017
-8.43479e-06
0.000191806
-8.36225e-06
0.000194569
-8.28776e-06
0.000197308
-8.21132e-06
0.00020002
-8.1329e-06
0.000202705
-8.05252e-06
0.000205363
-7.97015e-06
0.000207992
-7.88581e-06
0.000210593
-7.79948e-06
0.000213165
-7.71118e-06
0.000215706
-7.62089e-06
0.000218217
-7.52864e-06
0.000220696
-7.43442e-06
0.000223143
-7.33824e-06
0.000225558
-7.24012e-06
0.000227939
-7.14006e-06
0.000230286
-7.03809e-06
0.000232598
-6.93422e-06
0.000234876
-6.82847e-06
0.000237117
-6.72085e-06
0.000239322
-6.6114e-06
0.000241489
-6.50013e-06
0.000243619
-6.38708e-06
0.000245711
-6.27227e-06
0.000247764
-6.15573e-06
0.000249777
-6.03749e-06
0.000251751
-5.91759e-06
0.000253684
-5.79606e-06
0.000255576
-5.67294e-06
0.000257426
-5.54826e-06
0.000259234
-5.42207e-06
0.000261
-5.2944e-06
0.000262722
-5.1653e-06
0.000264401
-5.03481e-06
0.000266036
-4.90297e-06
0.000267627
-4.76983e-06
0.000269173
-4.63543e-06
0.000270673
-4.49983e-06
0.000272128
-4.36306e-06
0.000273537
-4.22517e-06
0.0002749
-4.08622e-06
0.000276216
-3.94624e-06
0.000277485
-3.8053e-06
0.000278706
-3.66343e-06
0.00027988
-3.52069e-06
0.000281006
-3.37713e-06
0.000282084
-3.23279e-06
0.000283114
-3.08773e-06
0.000284095
-2.942e-06
0.000285027
-2.79563e-06
0.00028591
-2.64869e-06
0.000286745
-2.50121e-06
0.000287529
-2.35326e-06
0.000288264
-2.20486e-06
0.00028895
-2.05608e-06
0.000289586
-1.90696e-06
0.000290172
-1.75753e-06
0.000290708
-1.60785e-06
0.000291194
-1.45797e-06
0.00029163
-1.30792e-06
0.000292016
-1.15775e-06
0.000292352
-1.0075e-06
0.000292637
-8.57207e-07
0.000292873
-7.0692e-07
0.000293059
-5.56675e-07
0.000293194
-4.06513e-07
0.000293279
-2.56472e-07
0.000293315
-1.0659e-07
0.0002933
4.30949e-08
0.000293236
1.92547e-07
0.000293122
3.41729e-07
0.000292958
4.90606e-07
0.000292745
6.39143e-07
0.000292482
7.87305e-07
0.00029217
9.35057e-07
0.000291809
1.08237e-06
0.000291399
1.2292e-06
0.00029094
1.37553e-06
0.000290433
1.52131e-06
0.000289877
1.66652e-06
0.000289273
1.81113e-06
0.000288621
1.9551e-06
0.000287921
2.0984e-06
0.000287174
2.24101e-06
0.000286379
2.38288e-06
0.000285537
2.52399e-06
0.000284649
2.66432e-06
0.000283714
2.80382e-06
0.000282732
2.94247e-06
0.000281705
3.08024e-06
0.000280632
3.21709e-06
0.000279514
3.35301e-06
0.000278351
3.48795e-06
0.000277143
3.6219e-06
0.000275891
3.75481e-06
0.000274595
3.88667e-06
0.000273255
4.01743e-06
0.000271872
4.14708e-06
0.000270446
4.27558e-06
0.000268978
4.40291e-06
0.000267467
4.52903e-06
0.000265915
4.65393e-06
0.000264322
4.77756e-06
0.000262688
4.89991e-06
0.000261014
5.02094e-06
0.000259299
5.14064e-06
0.000257546
5.25897e-06
0.000255753
5.37591e-06
0.000253922
5.49143e-06
0.000252052
5.60552e-06
0.000250145
5.71814e-06
0.000248201
5.82928e-06
0.000246221
5.9389e-06
0.000244204
6.047e-06
0.000242152
6.15355e-06
0.000240065
6.25854e-06
0.000237944
6.36193e-06
0.000235788
6.46372e-06
0.000233599
6.56389e-06
0.000231378
6.66243e-06
0.000229124
6.75931e-06
0.000226838
6.85453e-06
0.000224521
6.94808e-06
0.000222173
7.03994e-06
0.000219796
7.1301e-06
0.000217389
7.21856e-06
0.000214953
7.30531e-06
0.000212488
7.39035e-06
0.000209996
7.47366e-06
0.000207477
7.55526e-06
0.000204931
7.63512e-06
0.000202359
7.71326e-06
0.000199761
7.78968e-06
0.000197139
7.86438e-06
0.000194492
7.93735e-06
0.000191821
8.00862e-06
0.000189128
8.07817e-06
0.000186411
8.14603e-06
0.000183673
8.21219e-06
0.000180913
8.27667e-06
0.000178133
8.33948e-06
0.000175331
8.40063e-06
0.00017251
8.46013e-06
0.00016967
8.518e-06
0.000166811
8.57425e-06
0.000163934
8.62891e-06
0.000161039
8.68198e-06
0.000158127
8.73348e-06
0.000155199
8.78344e-06
0.000152254
8.83187e-06
0.000149293
8.87879e-06
0.000146318
8.92423e-06
0.000143328
8.9682e-06
0.000140323
9.01073e-06
0.000137305
9.05184e-06
0.000134274
9.09156e-06
0.00013123
9.1299e-06
0.000128173
9.1669e-06
0.000125105
9.20257e-06
0.000122025
9.23694e-06
0.000118935
9.27004e-06
0.000115833
9.30189e-06
0.000112722
9.33252e-06
0.000109601
9.36194e-06
0.00010647
9.39019e-06
0.00010333
9.41729e-06
0.000100182
9.44327e-06
9.70252e-05
9.46815e-06
9.38606e-05
9.49195e-06
9.06885e-05
9.51469e-06
8.75091e-05
9.53641e-06
8.43229e-05
9.55713e-06
8.11301e-05
9.57686e-06
7.7931e-05
9.59564e-06
7.4726e-05
9.61347e-06
7.15154e-05
9.63039e-06
6.82994e-05
9.64642e-06
6.50784e-05
9.66157e-06
6.18527e-05
9.67586e-06
5.86224e-05
9.68932e-06
5.5388e-05
9.70196e-06
5.21496e-05
9.7138e-06
4.89076e-05
9.72485e-06
4.56621e-05
9.73513e-06
4.24135e-05
9.74466e-06
3.91619e-05
9.75345e-06
3.59077e-05
9.76151e-06
3.2651e-05
9.76886e-06
2.93921e-05
9.7755e-06
2.61313e-05
9.78145e-06
2.28687e-05
9.78671e-06
1.96045e-05
9.7913e-06
1.63391e-05
9.79522e-06
1.30726e-05
9.79847e-06
9.80517e-06
9.80107e-06
6.53714e-06
9.80302e-06
3.26868e-06
9.80431e-06
9.80495e-06
3.37323e-06
-1.34898e-05
6.74624e-06
-1.34889e-05
1.01188e-05
-1.3487e-05
1.34907e-05
-1.34843e-05
1.68617e-05
-1.34807e-05
2.02315e-05
-1.34761e-05
2.36e-05
-1.34707e-05
2.69669e-05
-1.34642e-05
3.0332e-05
-1.34569e-05
3.3695e-05
-1.34485e-05
3.70557e-05
-1.34392e-05
4.04138e-05
-1.34289e-05
4.37691e-05
-1.34176e-05
4.71213e-05
-1.34052e-05
5.04702e-05
-1.33918e-05
5.38155e-05
-1.33773e-05
5.71569e-05
-1.33617e-05
6.04942e-05
-1.3345e-05
6.3827e-05
-1.33271e-05
6.7155e-05
-1.3308e-05
7.04781e-05
-1.32877e-05
7.37957e-05
-1.32662e-05
7.71077e-05
-1.32434e-05
8.04137e-05
-1.32192e-05
8.37134e-05
-1.31938e-05
8.70063e-05
-1.31669e-05
9.02923e-05
-1.31386e-05
9.35708e-05
-1.31089e-05
9.68416e-05
-1.30777e-05
0.000100104
-1.3045e-05
0.000103358
-1.30106e-05
0.000106603
-1.29747e-05
0.000109839
-1.29371e-05
0.000113065
-1.28978e-05
0.000116281
-1.28568e-05
0.000119486
-1.28141e-05
0.00012268
-1.27695e-05
0.000125862
-1.2723e-05
0.000129033
-1.26747e-05
0.000132191
-1.26244e-05
0.000135335
-1.25721e-05
0.000138467
-1.25178e-05
0.000141584
-1.24614e-05
0.000144686
-1.2403e-05
0.000147774
-1.23424e-05
0.000150846
-1.22796e-05
0.000153901
-1.22146e-05
0.00015694
-1.21473e-05
0.000159962
-1.20778e-05
0.000162965
-1.20059e-05
0.00016595
-1.19317e-05
0.000168916
-1.1855e-05
0.000171862
-1.1776e-05
0.000174788
-1.16945e-05
0.000177693
-1.16105e-05
0.000180576
-1.15241e-05
0.000183437
-1.14351e-05
0.000186275
-1.13435e-05
0.00018909
-1.12494e-05
0.00019188
-1.11527e-05
0.000194646
-1.10534e-05
0.000197386
-1.09515e-05
0.0002001
-1.08469e-05
0.000202787
-1.07398e-05
0.000205447
-1.06299e-05
0.000208079
-1.05175e-05
0.000210682
-1.04024e-05
0.000213255
-1.02846e-05
0.000215799
-1.01643e-05
0.000218311
-1.00412e-05
0.000220792
-9.9156e-06
0.000223241
-9.78734e-06
0.000225658
-9.65649e-06
0.000228041
-9.52307e-06
0.00023039
-9.38708e-06
0.000232704
-9.24855e-06
0.000234983
-9.10751e-06
0.000237226
-8.96399e-06
0.000239433
-8.81802e-06
0.000241602
-8.66962e-06
0.000243734
-8.51884e-06
0.000245828
-8.36571e-06
0.000247882
-8.21028e-06
0.000249897
-8.05257e-06
0.000251872
-7.89265e-06
0.000253807
-7.73056e-06
0.0002557
-7.56634e-06
0.000257552
-7.40004e-06
0.000259362
-7.23172e-06
0.000261129
-7.06143e-06
0.000262853
-6.88923e-06
0.000264533
-6.71518e-06
0.000266169
-6.53932e-06
0.000267761
-6.36173e-06
0.000269308
-6.18246e-06
0.00027081
-6.00158e-06
0.000272266
-5.81914e-06
0.000273676
-5.63522e-06
0.00027504
-5.44987e-06
0.000276357
-5.26316e-06
0.000277627
-5.07516e-06
0.000278849
-4.88593e-06
0.000280024
-4.69554e-06
0.000281151
-4.50404e-06
0.00028223
-4.31152e-06
0.00028326
-4.11803e-06
0.000284241
-3.92364e-06
0.000285174
-3.72841e-06
0.000286058
-3.53241e-06
0.000286892
-3.3357e-06
0.000287678
-3.13835e-06
0.000288413
-2.94042e-06
0.000289099
-2.74197e-06
0.000289735
-2.54307e-06
0.000290321
-2.34377e-06
0.000290858
-2.14413e-06
0.000291344
-1.94422e-06
0.00029178
-1.74408e-06
0.000292166
-1.54379e-06
0.000292502
-1.34339e-06
0.000292788
-1.14294e-06
0.000293023
-9.42493e-07
0.000293209
-7.42106e-07
0.000293344
-5.41829e-07
0.000293429
-3.41715e-07
0.000293465
-1.41814e-07
0.00029345
5.78235e-08
0.000293385
2.57149e-07
0.000293271
4.56114e-07
0.000293107
6.54672e-07
0.000292893
8.52774e-07
0.00029263
1.05038e-06
0.000292318
1.24743e-06
0.000291956
1.4439e-06
0.000291546
1.63973e-06
0.000291086
1.83488e-06
0.000290578
2.02931e-06
0.000290022
2.22297e-06
0.000289417
2.41583e-06
0.000288764
2.60784e-06
0.000288064
2.79896e-06
0.000287316
2.98914e-06
0.00028652
3.17836e-06
0.000285678
3.36655e-06
0.000284788
3.5537e-06
0.000283852
3.73975e-06
0.00028287
3.92466e-06
0.000281842
4.1084e-06
0.000280768
4.29092e-06
0.000279649
4.47219e-06
0.000278485
4.65216e-06
0.000277276
4.8308e-06
0.000276023
5.00807e-06
0.000274725
5.18392e-06
0.000273384
5.35832e-06
0.000272
5.53123e-06
0.000270573
5.70261e-06
0.000269104
5.87242e-06
0.000267592
6.04063e-06
0.000266039
6.20719e-06
0.000264444
6.37208e-06
0.000262809
6.53525e-06
0.000261133
6.69667e-06
0.000259418
6.85631e-06
0.000257662
7.01412e-06
0.000255868
7.17008e-06
0.000254036
7.32415e-06
0.000252165
7.4763e-06
0.000250256
7.6265e-06
0.000248311
7.77471e-06
0.000246329
7.92092e-06
0.000244311
8.06508e-06
0.000242257
8.20718e-06
0.000240169
8.34718e-06
0.000238046
8.48507e-06
0.000235888
8.62082e-06
0.000233698
8.7544e-06
0.000231475
8.8858e-06
0.000229219
9.015e-06
0.000226931
9.14198e-06
0.000224613
9.26672e-06
0.000222263
9.38922e-06
0.000219884
9.50945e-06
0.000217475
9.62741e-06
0.000215038
9.74309e-06
0.000212571
9.85647e-06
0.000210077
9.96757e-06
0.000207556
1.00764e-05
0.000205009
1.01828e-05
0.000202435
1.0287e-05
0.000199836
1.03889e-05
0.000197212
1.04885e-05
0.000194563
1.05858e-05
0.000191891
1.06808e-05
0.000189196
1.07735e-05
0.000186478
1.0864e-05
0.000183738
1.09522e-05
0.000180976
1.10382e-05
0.000178194
1.11219e-05
0.000175391
1.12034e-05
0.000172568
1.12827e-05
0.000169726
1.13598e-05
0.000166866
1.14348e-05
0.000163987
1.15077e-05
0.000161091
1.15784e-05
0.000158177
1.1647e-05
0.000155247
1.17136e-05
0.000152301
1.17782e-05
0.000149339
1.18407e-05
0.000146362
1.19012e-05
0.00014337
1.19598e-05
0.000140364
1.20165e-05
0.000137345
1.20713e-05
0.000134312
1.21242e-05
0.000131267
1.21753e-05
0.000128209
1.22246e-05
0.00012514
1.22721e-05
0.000122059
1.23179e-05
0.000118967
1.2362e-05
0.000115864
1.24044e-05
0.000112751
1.24452e-05
0.000109629
1.24844e-05
0.000106497
1.2522e-05
0.000103356
1.25581e-05
0.000100207
1.25927e-05
9.7049e-05
1.26259e-05
9.38834e-05
1.26576e-05
9.07102e-05
1.26879e-05
8.75298e-05
1.27168e-05
8.43426e-05
1.27444e-05
8.11488e-05
1.27706e-05
7.79488e-05
1.27956e-05
7.47429e-05
1.28194e-05
7.15314e-05
1.28419e-05
6.83146e-05
1.28633e-05
6.50927e-05
1.28834e-05
6.18661e-05
1.29025e-05
5.86351e-05
1.29204e-05
5.53998e-05
1.29372e-05
5.21607e-05
1.29529e-05
4.89179e-05
1.29677e-05
4.56716e-05
1.29814e-05
4.24223e-05
1.2994e-05
3.917e-05
1.30057e-05
3.5915e-05
1.30165e-05
3.26577e-05
1.30262e-05
2.93981e-05
1.30351e-05
2.61365e-05
1.3043e-05
2.28732e-05
1.305e-05
1.96084e-05
1.30561e-05
1.63423e-05
1.30613e-05
1.30752e-05
1.30657e-05
9.80712e-06
1.30691e-05
6.53843e-06
1.30717e-05
3.26932e-06
1.30734e-05
1.30743e-05
3.37414e-06
-1.68639e-05
6.74805e-06
-1.68628e-05
1.01215e-05
-1.68605e-05
1.34943e-05
-1.68571e-05
1.68662e-05
-1.68526e-05
2.0237e-05
-1.68469e-05
2.36064e-05
-1.68401e-05
2.69743e-05
-1.68321e-05
3.03403e-05
-1.68229e-05
3.37043e-05
-1.68125e-05
3.7066e-05
-1.68009e-05
4.04251e-05
-1.6788e-05
4.37815e-05
-1.67739e-05
4.71347e-05
-1.67585e-05
5.04847e-05
-1.67418e-05
5.38311e-05
-1.67237e-05
5.71737e-05
-1.67042e-05
6.05121e-05
-1.66834e-05
6.38461e-05
-1.66611e-05
6.71754e-05
-1.66373e-05
7.04996e-05
-1.6612e-05
7.38186e-05
-1.65851e-05
7.71319e-05
-1.65567e-05
8.04392e-05
-1.65266e-05
8.37402e-05
-1.64948e-05
8.70346e-05
-1.64613e-05
9.0322e-05
-1.6426e-05
9.36021e-05
-1.6389e-05
9.68744e-05
-1.635e-05
0.000100139
-1.63091e-05
0.000103394
-1.62663e-05
0.000106641
-1.62215e-05
0.000109878
-1.61746e-05
0.000113106
-1.61256e-05
0.000116324
-1.60744e-05
0.000119531
-1.6021e-05
0.000122726
-1.59653e-05
0.000125911
-1.59073e-05
0.000129083
-1.5847e-05
0.000132243
-1.57842e-05
0.00013539
-1.57189e-05
0.000138523
-1.56511e-05
0.000141642
-1.55807e-05
0.000144747
-1.55077e-05
0.000147837
-1.5432e-05
0.000150911
-1.53536e-05
0.000153969
-1.52724e-05
0.00015701
-1.51884e-05
0.000160034
-1.51016e-05
0.00016304
-1.50118e-05
0.000166027
-1.49191e-05
0.000168995
-1.48233e-05
0.000171944
-1.47246e-05
0.000174872
-1.46228e-05
0.000177779
-1.45179e-05
0.000180665
-1.44098e-05
0.000183529
-1.42986e-05
0.000186369
-1.41842e-05
0.000189187
-1.40666e-05
0.00019198
-1.39457e-05
0.000194748
-1.38216e-05
0.000197491
-1.36943e-05
0.000200207
-1.35636e-05
0.000202897
-1.34297e-05
0.00020556
-1.32924e-05
0.000208194
-1.31518e-05
0.0002108
-1.30079e-05
0.000213376
-1.28607e-05
0.000215922
-1.27103e-05
0.000218437
-1.25565e-05
0.000220921
-1.23994e-05
0.000223372
-1.2239e-05
0.000225791
-1.20755e-05
0.000228177
-1.19086e-05
0.000230528
-1.17386e-05
0.000232845
-1.15654e-05
0.000235127
-1.1389e-05
0.000237372
-1.12096e-05
0.000239581
-1.10271e-05
0.000241753
-1.08415e-05
0.000243887
-1.06529e-05
0.000245983
-1.04615e-05
0.00024804
-1.02671e-05
0.000250057
-1.00699e-05
0.000252034
-9.86989e-06
0.000253971
-9.66718e-06
0.000255867
-9.46181e-06
0.00025772
-9.25384e-06
0.000259532
-9.04334e-06
0.000261301
-8.83037e-06
0.000263027
-8.61502e-06
0.000264709
-8.39734e-06
0.000266347
-8.17741e-06
0.000267941
-7.9553e-06
0.000269489
-7.7311e-06
0.000270992
-7.50488e-06
0.00027245
-7.27672e-06
0.000273862
-7.04669e-06
0.000275227
-6.81489e-06
0.000276545
-6.58138e-06
0.000277816
-6.34625e-06
0.00027904
-6.10959e-06
0.000280215
-5.87148e-06
0.000281343
-5.63199e-06
0.000282423
-5.39121e-06
0.000283454
-5.14922e-06
0.000284437
-4.90611e-06
0.00028537
-4.66196e-06
0.000286255
-4.41684e-06
0.00028709
-4.17084e-06
0.000287876
-3.92403e-06
0.000288612
-3.6765e-06
0.000289298
-3.42832e-06
0.000289934
-3.17958e-06
0.000290521
-2.93034e-06
0.000291058
-2.68068e-06
0.000291544
-2.43068e-06
0.00029198
-2.18041e-06
0.000292367
-1.92993e-06
0.000292702
-1.67933e-06
0.000292988
-1.42866e-06
0.000293224
-1.17801e-06
0.000293409
-9.27424e-07
0.000293544
-6.76981e-07
0.000293629
-4.26744e-07
0.000293664
-1.76774e-07
0.000293649
7.28652e-08
0.000293584
3.22113e-07
0.000293469
5.70908e-07
0.000293305
8.19193e-07
0.000293091
1.06691e-06
0.000292827
1.31399e-06
0.000292514
1.5604e-06
0.000292152
1.80606e-06
0.000291741
2.05093e-06
0.000291281
2.29495e-06
0.000290772
2.53807e-06
0.000290215
2.78023e-06
0.000289609
3.02138e-06
0.000288955
3.26147e-06
0.000288254
3.50044e-06
0.000287505
3.73825e-06
0.000286708
3.97485e-06
0.000285865
4.21017e-06
0.000284974
4.44418e-06
0.000284037
4.67682e-06
0.000283054
4.90803e-06
0.000282024
5.13778e-06
0.000280949
5.36601e-06
0.000279829
5.59267e-06
0.000278663
5.81771e-06
0.000277453
6.04108e-06
0.000276198
6.26273e-06
0.0002749
6.48262e-06
0.000273557
6.70069e-06
0.000272172
6.9169e-06
0.000270743
7.1312e-06
0.000269272
7.34353e-06
0.000267759
7.55386e-06
0.000266204
7.76214e-06
0.000264608
7.96832e-06
0.00026297
8.17235e-06
0.000261293
8.37419e-06
0.000259575
8.5738e-06
0.000257818
8.77113e-06
0.000256022
8.96614e-06
0.000254188
9.15879e-06
0.000252315
9.34903e-06
0.000250405
9.53684e-06
0.000248457
9.72216e-06
0.000246473
9.90497e-06
0.000244453
1.00852e-05
0.000242397
1.02629e-05
0.000240307
1.04379e-05
0.000238181
1.06104e-05
0.000236022
1.07801e-05