/*--------------------------------*- C++ -*----------------------------------*\
| =========                 |                                                 |
| \\      /  F ield         | OpenFOAM: The Open Source CFD Toolbox           |
|  \\    /   O peration     | Version:  v2012                                 |
|   \\  /    A nd           | Website:  www.openfoam.com                      |
|    \\/     M anipulation  |                                                 |
\*---------------------------------------------------------------------------*/
FoamFile
{
    version     2.0;
    format      ascii;
    class       volVectorField;
    location    "0.75";
    object      U;
}
// * * * * * * * * * * * * * * * * * * * * * * * * * * * * * * * * * * * * * //

dimensions      [0 1 -1 0 0 0 0];


internalField   nonuniform List<vector> 
65536
(
(0.000686924 -0.000686902 0)
(0.00206073 -0.000686855 0)
(0.00343439 -0.000686762 0)
(0.00480782 -0.000686623 0)
(0.00618093 -0.000686437 0)
(0.00755362 -0.000686204 0)
(0.00892579 -0.000685924 0)
(0.0102974 -0.000685595 0)
(0.0116682 -0.000685218 0)
(0.0130383 -0.000684791 0)
(0.0144074 -0.000684315 0)
(0.0157756 -0.000683787 0)
(0.0171426 -0.000683207 0)
(0.0185085 -0.000682574 0)
(0.019873 -0.000681888 0)
(0.0212361 -0.000681146 0)
(0.0225976 -0.000680348 0)
(0.0239575 -0.000679492 0)
(0.0253156 -0.000678577 0)
(0.0266719 -0.000677601 0)
(0.0280261 -0.000676563 0)
(0.0293782 -0.000675462 0)
(0.030728 -0.000674296 0)
(0.0320754 -0.000673062 0)
(0.0334203 -0.00067176 0)
(0.0347626 -0.000670387 0)
(0.036102 -0.000668942 0)
(0.0374384 -0.000667423 0)
(0.0387717 -0.000665828 0)
(0.0401018 -0.000664154 0)
(0.0414284 -0.000662401 0)
(0.0427515 -0.000660565 0)
(0.0440708 -0.000658646 0)
(0.0453861 -0.00065664 0)
(0.0466974 -0.000654545 0)
(0.0480044 -0.000652361 0)
(0.0493069 -0.000650084 0)
(0.0506048 -0.000647712 0)
(0.0518979 -0.000645244 0)
(0.0531859 -0.000642676 0)
(0.0544687 -0.000640008 0)
(0.055746 -0.000637237 0)
(0.0570177 -0.000634361 0)
(0.0582836 -0.000631378 0)
(0.0595434 -0.000628287 0)
(0.0607969 -0.000625084 0)
(0.0620438 -0.000621768 0)
(0.063284 -0.000618337 0)
(0.0645173 -0.000614791 0)
(0.0657433 -0.000611125 0)
(0.0669619 -0.00060734 0)
(0.0681728 -0.000603434 0)
(0.0693758 -0.000599404 0)
(0.0705705 -0.00059525 0)
(0.0717569 -0.00059097 0)
(0.0729345 -0.000586562 0)
(0.0741033 -0.000582027 0)
(0.0752628 -0.000577361 0)
(0.0764128 -0.000572566 0)
(0.0775532 -0.000567639 0)
(0.0786835 -0.000562579 0)
(0.0798036 -0.000557387 0)
(0.0809132 -0.000552062 0)
(0.082012 -0.000546603 0)
(0.0830997 -0.000541009 0)
(0.0841762 -0.000535282 0)
(0.085241 -0.00052942 0)
(0.086294 -0.000523424 0)
(0.0873348 -0.000517293 0)
(0.0883633 -0.000511029 0)
(0.0893791 -0.000504632 0)
(0.090382 -0.000498102 0)
(0.0913716 -0.000491441 0)
(0.0923479 -0.000484648 0)
(0.0933104 -0.000477725 0)
(0.0942589 -0.000470674 0)
(0.0951932 -0.000463495 0)
(0.096113 -0.000456189 0)
(0.0970181 -0.000448759 0)
(0.0979081 -0.000441207 0)
(0.098783 -0.000433533 0)
(0.0996424 -0.000425739 0)
(0.100486 -0.000417829 0)
(0.101314 -0.000409804 0)
(0.102125 -0.000401665 0)
(0.102921 -0.000393417 0)
(0.103699 -0.00038506 0)
(0.104461 -0.000376598 0)
(0.105206 -0.000368033 0)
(0.105933 -0.000359368 0)
(0.106643 -0.000350606 0)
(0.107336 -0.000341749 0)
(0.10801 -0.000332801 0)
(0.108667 -0.000323765 0)
(0.109305 -0.000314644 0)
(0.109926 -0.00030544 0)
(0.110527 -0.000296158 0)
(0.11111 -0.0002868 0)
(0.111675 -0.000277369 0)
(0.11222 -0.000267869 0)
(0.112746 -0.000258303 0)
(0.113253 -0.000248675 0)
(0.113741 -0.000238987 0)
(0.114209 -0.000229244 0)
(0.114658 -0.000219448 0)
(0.115087 -0.000209603 0)
(0.115496 -0.000199711 0)
(0.115886 -0.000189778 0)
(0.116256 -0.000179804 0)
(0.116605 -0.000169795 0)
(0.116935 -0.000159753 0)
(0.117244 -0.000149681 0)
(0.117534 -0.000139583 0)
(0.117803 -0.000129461 0)
(0.118051 -0.000119319 0)
(0.11828 -0.00010916 0)
(0.118488 -9.89866e-05 0)
(0.118676 -8.88019e-05 0)
(0.118843 -7.86089e-05 0)
(0.11899 -6.84103e-05 0)
(0.119117 -5.82091e-05 0)
(0.119223 -4.8008e-05 0)
(0.119309 -3.78097e-05 0)
(0.119374 -2.7617e-05 0)
(0.119419 -1.74324e-05 0)
(0.119444 -7.25852e-06 0)
(0.119448 2.90207e-06 0)
(0.119432 1.30469e-05 0)
(0.119396 2.31734e-05 0)
(0.11934 3.32793e-05 0)
(0.119263 4.33621e-05 0)
(0.119166 5.34195e-05 0)
(0.119049 6.34492e-05 0)
(0.118912 7.34489e-05 0)
(0.118756 8.34163e-05 0)
(0.118579 9.33492e-05 0)
(0.118382 0.000103245 0)
(0.118166 0.000113103 0)
(0.11793 0.000122919 0)
(0.117674 0.000132692 0)
(0.117399 0.00014242 0)
(0.117104 0.0001521 0)
(0.11679 0.000161731 0)
(0.116457 0.00017131 0)
(0.116105 0.000180836 0)
(0.115734 0.000190305 0)
(0.115344 0.000199717 0)
(0.114935 0.000209069 0)
(0.114507 0.00021836 0)
(0.114061 0.000227586 0)
(0.113597 0.000236746 0)
(0.113114 0.000245839 0)
(0.112614 0.000254861 0)
(0.112095 0.000263812 0)
(0.111558 0.000272689 0)
(0.111004 0.000281489 0)
(0.110432 0.000290212 0)
(0.109843 0.000298856 0)
(0.109237 0.000307417 0)
(0.108613 0.000315895 0)
(0.107973 0.000324288 0)
(0.107316 0.000332593 0)
(0.106643 0.000340809 0)
(0.105953 0.000348934 0)
(0.105247 0.000356967 0)
(0.104525 0.000364905 0)
(0.103787 0.000372748 0)
(0.103034 0.000380492 0)
(0.102265 0.000388137 0)
(0.101481 0.000395682 0)
(0.100682 0.000403124 0)
(0.0998685 0.000410462 0)
(0.0990403 0.000417696 0)
(0.0981977 0.000424823 0)
(0.0973409 0.000431842 0)
(0.0964702 0.000438752 0)
(0.0955858 0.000445553 0)
(0.0946879 0.000452242 0)
(0.0937767 0.00045882 0)
(0.0928525 0.000465285 0)
(0.0919154 0.000471636 0)
(0.0909658 0.000477873 0)
(0.0900038 0.000483995 0)
(0.0890297 0.000490001 0)
(0.0880437 0.000495891 0)
(0.087046 0.000501665 0)
(0.0860369 0.000507322 0)
(0.0850166 0.000512863 0)
(0.0839854 0.000518286 0)
(0.0829434 0.000523593 0)
(0.0818909 0.000528782 0)
(0.0808281 0.000533855 0)
(0.0797553 0.000538811 0)
(0.0786728 0.00054365 0)
(0.0775806 0.000548374 0)
(0.0764791 0.000552983 0)
(0.0753686 0.000557477 0)
(0.0742491 0.000561857 0)
(0.073121 0.000566123 0)
(0.0719845 0.000570277 0)
(0.0708398 0.000574319 0)
(0.0696871 0.00057825 0)
(0.0685267 0.000582072 0)
(0.0673587 0.000585785 0)
(0.0661835 0.000589391 0)
(0.0650011 0.00059289 0)
(0.0638118 0.000596285 0)
(0.0626158 0.000599576 0)
(0.0614134 0.000602764 0)
(0.0602047 0.000605852 0)
(0.0589899 0.00060884 0)
(0.0577692 0.000611731 0)
(0.0565429 0.000614525 0)
(0.055311 0.000617225 0)
(0.0540739 0.000619831 0)
(0.0528316 0.000622346 0)
(0.0515844 0.000624771 0)
(0.0503324 0.000627108 0)
(0.0490759 0.000629358 0)
(0.0478149 0.000631523 0)
(0.0465497 0.000633606 0)
(0.0452804 0.000635606 0)
(0.0440072 0.000637527 0)
(0.0427302 0.00063937 0)
(0.0414496 0.000641137 0)
(0.0401656 0.000642829 0)
(0.0388782 0.000644447 0)
(0.0375877 0.000645995 0)
(0.0362942 0.000647472 0)
(0.0349978 0.000648881 0)
(0.0336986 0.000650224 0)
(0.0323968 0.000651501 0)
(0.0310925 0.000652714 0)
(0.0297859 0.000653866 0)
(0.028477 0.000654956 0)
(0.027166 0.000655987 0)
(0.025853 0.00065696 0)
(0.0245381 0.000657875 0)
(0.0232214 0.000658736 0)
(0.0219031 0.000659541 0)
(0.0205832 0.000660293 0)
(0.0192619 0.000660993 0)
(0.0179392 0.000661642 0)
(0.0166153 0.00066224 0)
(0.0152902 0.000662789 0)
(0.0139641 0.000663289 0)
(0.012637 0.000663741 0)
(0.011309 0.000664146 0)
(0.00998034 0.000664504 0)
(0.00865097 0.000664816 0)
(0.00732103 0.000665083 0)
(0.00599059 0.000665305 0)
(0.00465976 0.000665482 0)
(0.00332862 0.000665614 0)
(0.00199726 0.000665702 0)
(0.000665768 0.000665746 0)
(0.00068697 -0.00206075 0)
(0.00206086 -0.00206061 0)
(0.00343462 -0.00206033 0)
(0.00480814 -0.00205991 0)
(0.00618134 -0.00205936 0)
(0.00755412 -0.00205866 0)
(0.00892639 -0.00205782 0)
(0.0102981 -0.00205683 0)
(0.011669 -0.0020557 0)
(0.0130392 -0.00205442 0)
(0.0144084 -0.00205299 0)
(0.0157767 -0.00205141 0)
(0.0171438 -0.00204967 0)
(0.0185098 -0.00204778 0)
(0.0198744 -0.00204572 0)
(0.0212376 -0.00204349 0)
(0.0225993 -0.0020411 0)
(0.0239593 -0.00203853 0)
(0.0253175 -0.00203579 0)
(0.0266739 -0.00203286 0)
(0.0280282 -0.00202975 0)
(0.0293805 -0.00202645 0)
(0.0307304 -0.00202295 0)
(0.032078 -0.00201925 0)
(0.033423 -0.00201535 0)
(0.0347654 -0.00201123 0)
(0.0361049 -0.0020069 0)
(0.0374415 -0.00200234 0)
(0.038775 -0.00199756 0)
(0.0401052 -0.00199254 0)
(0.041432 -0.00198728 0)
(0.0427552 -0.00198178 0)
(0.0440747 -0.00197602 0)
(0.0453902 -0.00197001 0)
(0.0467017 -0.00196373 0)
(0.0480088 -0.00195717 0)
(0.0493116 -0.00195034 0)
(0.0506096 -0.00194323 0)
(0.0519029 -0.00193583 0)
(0.0531911 -0.00192813 0)
(0.0544741 -0.00192013 0)
(0.0557517 -0.00191182 0)
(0.0570236 -0.00190319 0)
(0.0582896 -0.00189424 0)
(0.0595496 -0.00188497 0)
(0.0608033 -0.00187536 0)
(0.0620505 -0.00186542 0)
(0.063291 -0.00185513 0)
(0.0645245 -0.00184449 0)
(0.0657507 -0.0018335 0)
(0.0669696 -0.00182214 0)
(0.0681807 -0.00181042 0)
(0.0693839 -0.00179834 0)
(0.0705789 -0.00178587 0)
(0.0717655 -0.00177304 0)
(0.0729435 -0.00175981 0)
(0.0741124 -0.00174621 0)
(0.0752722 -0.00173221 0)
(0.0764225 -0.00171783 0)
(0.0775631 -0.00170305 0)
(0.0786937 -0.00168787 0)
(0.0798141 -0.0016723 0)
(0.080924 -0.00165632 0)
(0.082023 -0.00163994 0)
(0.083111 -0.00162316 0)
(0.0841877 -0.00160598 0)
(0.0852528 -0.00158839 0)
(0.0863061 -0.0015704 0)
(0.0873472 -0.00155201 0)
(0.0883759 -0.00153322 0)
(0.089392 -0.00151403 0)
(0.0903951 -0.00149444 0)
(0.0913851 -0.00147445 0)
(0.0923615 -0.00145407 0)
(0.0933243 -0.0014333 0)
(0.0942731 -0.00141215 0)
(0.0952076 -0.00139061 0)
(0.0961277 -0.00136869 0)
(0.097033 -0.0013464 0)
(0.0979233 -0.00132374 0)
(0.0987984 -0.00130072 0)
(0.0996581 -0.00127734 0)
(0.100502 -0.0012536 0)
(0.10133 -0.00122952 0)
(0.102142 -0.00120511 0)
(0.102937 -0.00118036 0)
(0.103716 -0.00115529 0)
(0.104478 -0.0011299 0)
(0.105223 -0.0011042 0)
(0.105951 -0.0010782 0)
(0.106661 -0.00105191 0)
(0.107353 -0.00102534 0)
(0.108028 -0.000998494 0)
(0.108685 -0.000971382 0)
(0.109324 -0.000944015 0)
(0.109944 -0.000916401 0)
(0.110546 -0.00088855 0)
(0.111129 -0.000860472 0)
(0.111694 -0.000832177 0)
(0.112239 -0.000803674 0)
(0.112765 -0.000774974 0)
(0.113272 -0.000746086 0)
(0.11376 -0.00071702 0)
(0.114229 -0.000687786 0)
(0.114678 -0.000658394 0)
(0.115107 -0.000628855 0)
(0.115516 -0.000599178 0)
(0.115906 -0.000569374 0)
(0.116276 -0.000539451 0)
(0.116625 -0.00050942 0)
(0.116955 -0.00047929 0)
(0.117264 -0.000449072 0)
(0.117554 -0.000418774 0)
(0.117823 -0.000388405 0)
(0.118072 -0.000357977 0)
(0.1183 -0.000327496 0)
(0.118508 -0.000296973 0)
(0.118696 -0.000266416 0)
(0.118864 -0.000235834 0)
(0.119011 -0.000205235 0)
(0.119137 -0.000174629 0)
(0.119244 -0.000144023 0)
(0.119329 -0.000113425 0)
(0.119395 -8.28446e-05 0)
(0.11944 -5.22882e-05 0)
(0.119464 -2.1764e-05 0)
(0.119469 8.72021e-06 0)
(0.119453 3.91571e-05 0)
(0.119416 6.95392e-05 0)
(0.11936 9.98592e-05 0)
(0.119283 0.00013011 0)
(0.119186 0.000160285 0)
(0.119069 0.000190376 0)
(0.118932 0.000220377 0)
(0.118775 0.000250282 0)
(0.118599 0.000280083 0)
(0.118402 0.000309773 0)
(0.118185 0.000339348 0)
(0.117949 0.000368799 0)
(0.117694 0.00039812 0)
(0.117418 0.000427305 0)
(0.117124 0.000456348 0)
(0.11681 0.000485243 0)
(0.116476 0.000513983 0)
(0.116124 0.000542561 0)
(0.115753 0.000570972 0)
(0.115363 0.00059921 0)
(0.114954 0.000627269 0)
(0.114526 0.000655142 0)
(0.11408 0.000682823 0)
(0.113615 0.000710306 0)
(0.113133 0.000737585 0)
(0.112632 0.000764655 0)
(0.112113 0.000791508 0)
(0.111576 0.000818141 0)
(0.111022 0.000844545 0)
(0.11045 0.000870716 0)
(0.10986 0.000896647 0)
(0.109254 0.000922334 0)
(0.10863 0.00094777 0)
(0.10799 0.000972949 0)
(0.107333 0.000997867 0)
(0.106659 0.00102252 0)
(0.105969 0.00104689 0)
(0.105263 0.00107099 0)
(0.104541 0.00109481 0)
(0.103803 0.00111834 0)
(0.103049 0.00114157 0)
(0.10228 0.00116451 0)
(0.101496 0.00118715 0)
(0.100697 0.00120947 0)
(0.0998831 0.00123149 0)
(0.0990547 0.00125319 0)
(0.0982118 0.00127457 0)
(0.0973548 0.00129563 0)
(0.0964839 0.00131637 0)
(0.0955993 0.00133677 0)
(0.0947011 0.00135684 0)
(0.0937898 0.00137657 0)
(0.0928653 0.00139597 0)
(0.091928 0.00141502 0)
(0.0909782 0.00143373 0)
(0.090016 0.0014521 0)
(0.0890416 0.00147012 0)
(0.0880554 0.00148779 0)
(0.0870575 0.00150511 0)
(0.0860482 0.00152208 0)
(0.0850276 0.00153871 0)
(0.0839961 0.00155498 0)
(0.0829539 0.00157089 0)
(0.0819012 0.00158646 0)
(0.0808382 0.00160168 0)
(0.0797652 0.00161655 0)
(0.0786824 0.00163107 0)
(0.07759 0.00164524 0)
(0.0764883 0.00165906 0)
(0.0753775 0.00167255 0)
(0.0742578 0.00168568 0)
(0.0731295 0.00169848 0)
(0.0719927 0.00171094 0)
(0.0708478 0.00172307 0)
(0.0696949 0.00173486 0)
(0.0685343 0.00174633 0)
(0.0673661 0.00175746 0)
(0.0661906 0.00176828 0)
(0.065008 0.00177878 0)
(0.0638185 0.00178896 0)
(0.0626223 0.00179883 0)
(0.0614197 0.00180839 0)
(0.0602108 0.00181766 0)
(0.0589958 0.00182662 0)
(0.0577749 0.00183529 0)
(0.0565484 0.00184367 0)
(0.0553163 0.00185177 0)
(0.054079 0.00185959 0)
(0.0528366 0.00186713 0)
(0.0515892 0.0018744 0)
(0.050337 0.00188141 0)
(0.0490803 0.00188816 0)
(0.0478192 0.00189465 0)
(0.0465538 0.0019009 0)
(0.0452843 0.0019069 0)
(0.044011 0.00191266 0)
(0.0427338 0.00191819 0)
(0.0414531 0.00192349 0)
(0.0401689 0.00192856 0)
(0.0388814 0.00193342 0)
(0.0375908 0.00193806 0)
(0.0362971 0.00194249 0)
(0.0350005 0.00194671 0)
(0.0337012 0.00195074 0)
(0.0323993 0.00195457 0)
(0.0310949 0.00195821 0)
(0.0297881 0.00196166 0)
(0.0284791 0.00196493 0)
(0.027168 0.00196802 0)
(0.0258549 0.00197094 0)
(0.0245399 0.00197368 0)
(0.0232231 0.00197626 0)
(0.0219047 0.00197868 0)
(0.0205847 0.00198093 0)
(0.0192632 0.00198303 0)
(0.0179404 0.00198498 0)
(0.0166164 0.00198677 0)
(0.0152912 0.00198842 0)
(0.013965 0.00198992 0)
(0.0126378 0.00199127 0)
(0.0113098 0.00199249 0)
(0.00998102 0.00199356 0)
(0.00865156 0.0019945 0)
(0.00732152 0.0019953 0)
(0.005991 0.00199596 0)
(0.00466007 0.00199649 0)
(0.00332884 0.00199689 0)
(0.00199739 0.00199715 0)
(0.000665812 0.00199728 0)
(0.000687062 -0.00343473 0)
(0.00206114 -0.0034345 0)
(0.00343508 -0.00343404 0)
(0.00480879 -0.00343335 0)
(0.00618218 -0.00343242 0)
(0.00755515 -0.00343126 0)
(0.00892761 -0.00342986 0)
(0.0102995 -0.00342822 0)
(0.0116706 -0.00342633 0)
(0.013041 -0.0034242 0)
(0.0144104 -0.00342182 0)
(0.0157789 -0.00341919 0)
(0.0171463 -0.0034163 0)
(0.0185124 -0.00341314 0)
(0.0198773 -0.00340971 0)
(0.0212407 -0.00340601 0)
(0.0226026 -0.00340202 0)
(0.0239628 -0.00339775 0)
(0.0253213 -0.00339318 0)
(0.0266779 -0.00338831 0)
(0.0280325 -0.00338313 0)
(0.029385 -0.00337763 0)
(0.0307352 -0.00337181 0)
(0.032083 -0.00336565 0)
(0.0334283 -0.00335915 0)
(0.034771 -0.00335229 0)
(0.0361108 -0.00334508 0)
(0.0374477 -0.00333749 0)
(0.0387815 -0.00332953 0)
(0.040112 -0.00332117 0)
(0.0414392 -0.00331241 0)
(0.0427627 -0.00330324 0)
(0.0440825 -0.00329366 0)
(0.0453984 -0.00328364 0)
(0.0467102 -0.00327318 0)
(0.0480178 -0.00326226 0)
(0.0493209 -0.00325089 0)
(0.0506193 -0.00323904 0)
(0.051913 -0.00322671 0)
(0.0532016 -0.00321388 0)
(0.054485 -0.00320055 0)
(0.055763 -0.00318671 0)
(0.0570353 -0.00317234 0)
(0.0583018 -0.00315744 0)
(0.0595622 -0.00314199 0)
(0.0608164 -0.00312598 0)
(0.062064 -0.00310941 0)
(0.0633049 -0.00309227 0)
(0.0645389 -0.00307454 0)
(0.0657656 -0.00305623 0)
(0.0669849 -0.00303731 0)
(0.0681966 -0.00301778 0)
(0.0694003 -0.00299764 0)
(0.0705958 -0.00297688 0)
(0.0717829 -0.00295548 0)
(0.0729613 -0.00293345 0)
(0.0741308 -0.00291078 0)
(0.0752911 -0.00288746 0)
(0.076442 -0.00286348 0)
(0.0775831 -0.00283885 0)
(0.0787143 -0.00281356 0)
(0.0798351 -0.0027876 0)
(0.0809455 -0.00276098 0)
(0.0820451 -0.00273368 0)
(0.0831337 -0.00270572 0)
(0.0842109 -0.00267708 0)
(0.0852766 -0.00264777 0)
(0.0863303 -0.00261779 0)
(0.087372 -0.00258714 0)
(0.0884013 -0.00255581 0)
(0.0894179 -0.00252382 0)
(0.0904215 -0.00249117 0)
(0.091412 -0.00245786 0)
(0.092389 -0.00242389 0)
(0.0933523 -0.00238927 0)
(0.0943016 -0.00235401 0)
(0.0952366 -0.0023181 0)
(0.0961572 -0.00228157 0)
(0.097063 -0.00224441 0)
(0.0979538 -0.00220664 0)
(0.0988294 -0.00216826 0)
(0.0996895 -0.00212928 0)
(0.100534 -0.00208972 0)
(0.101362 -0.00204958 0)
(0.102175 -0.00200888 0)
(0.10297 -0.00196762 0)
(0.10375 -0.00192583 0)
(0.104512 -0.0018835 0)
(0.105257 -0.00184067 0)
(0.105985 -0.00179733 0)
(0.106696 -0.0017535 0)
(0.107389 -0.00170921 0)
(0.108064 -0.00166445 0)
(0.108721 -0.00161925 0)
(0.10936 -0.00157363 0)
(0.109981 -0.0015276 0)
(0.110583 -0.00148117 0)
(0.111167 -0.00143436 0)
(0.111731 -0.00138719 0)
(0.112277 -0.00133968 0)
(0.112804 -0.00129183 0)
(0.113311 -0.00124367 0)
(0.113799 -0.00119522 0)
(0.114268 -0.00114649 0)
(0.114717 -0.00109749 0)
(0.115146 -0.00104825 0)
(0.115556 -0.000998773 0)
(0.115946 -0.000949088 0)
(0.116315 -0.000899205 0)
(0.116665 -0.000849143 0)
(0.116995 -0.000798916 0)
(0.117305 -0.000748541 0)
(0.117594 -0.000698034 0)
(0.117863 -0.00064741 0)
(0.118112 -0.000596685 0)
(0.118341 -0.000545874 0)
(0.118549 -0.000494993 0)
(0.118737 -0.000444055 0)
(0.118904 -0.000393075 0)
(0.119051 -0.000342068 0)
(0.119178 -0.000291048 0)
(0.119284 -0.000240029 0)
(0.11937 -0.000189025 0)
(0.119435 -0.000138048 0)
(0.11948 -8.71116e-05 0)
(0.119505 -3.62296e-05 0)
(0.119509 1.45859e-05 0)
(0.119493 6.53222e-05 0)
(0.119457 0.000115967 0)
(0.1194 0.000166508 0)
(0.119324 0.000216934 0)
(0.119227 0.000267233 0)
(0.119109 0.000317393 0)
(0.118972 0.000367403 0)
(0.118815 0.000417251 0)
(0.118638 0.000466926 0)
(0.118441 0.000516418 0)
(0.118225 0.000565716 0)
(0.117988 0.000614808 0)
(0.117733 0.000663684 0)
(0.117457 0.000712333 0)
(0.117162 0.000760745 0)
(0.116848 0.00080891 0)
(0.116515 0.000856816 0)
(0.116162 0.000904454 0)
(0.115791 0.000951813 0)
(0.1154 0.000998883 0)
(0.114991 0.00104565 0)
(0.114563 0.00109212 0)
(0.114117 0.00113826 0)
(0.113652 0.00118407 0)
(0.113169 0.00122954 0)
(0.112668 0.00127466 0)
(0.112148 0.00131943 0)
(0.111611 0.00136382 0)
(0.111057 0.00140783 0)
(0.110484 0.00145146 0)
(0.109895 0.00149468 0)
(0.109288 0.0015375 0)
(0.108664 0.0015799 0)
(0.108023 0.00162187 0)
(0.107366 0.00166341 0)
(0.106692 0.0017045 0)
(0.106001 0.00174513 0)
(0.105295 0.00178531 0)
(0.104572 0.00182501 0)
(0.103834 0.00186422 0)
(0.10308 0.00190295 0)
(0.102311 0.00194119 0)
(0.101526 0.00197892 0)
(0.100727 0.00201614 0)
(0.0999123 0.00205284 0)
(0.0990834 0.00208901 0)
(0.0982401 0.00212465 0)
(0.0973827 0.00215975 0)
(0.0965113 0.00219431 0)
(0.0956263 0.00222832 0)
(0.0947277 0.00226177 0)
(0.0938158 0.00229466 0)
(0.0928909 0.00232699 0)
(0.0919532 0.00235875 0)
(0.0910029 0.00238994 0)
(0.0900402 0.00242055 0)
(0.0890654 0.00245058 0)
(0.0880787 0.00248004 0)
(0.0870803 0.00250891 0)
(0.0860705 0.0025372 0)
(0.0850495 0.0025649 0)
(0.0840176 0.00259202 0)
(0.0829749 0.00261855 0)
(0.0819217 0.00264449 0)
(0.0808582 0.00266986 0)
(0.0797847 0.00269463 0)
(0.0787015 0.00271883 0)
(0.0776086 0.00274245 0)
(0.0765065 0.00276549 0)
(0.0753952 0.00278796 0)
(0.0742751 0.00280985 0)
(0.0731463 0.00283118 0)
(0.0720091 0.00285194 0)
(0.0708637 0.00287215 0)
(0.0697104 0.0028918 0)
(0.0685493 0.0029109 0)
(0.0673807 0.00292946 0)
(0.0662048 0.00294749 0)
(0.0650218 0.00296498 0)
(0.0638319 0.00298194 0)
(0.0626353 0.00299839 0)
(0.0614322 0.00301433 0)
(0.0602229 0.00302976 0)
(0.0590075 0.00304469 0)
(0.0577863 0.00305914 0)
(0.0565593 0.0030731 0)
(0.0553269 0.00308659 0)
(0.0540892 0.00309961 0)
(0.0528464 0.00311218 0)
(0.0515987 0.0031243 0)
(0.0503462 0.00313597 0)
(0.0490891 0.00314722 0)
(0.0478277 0.00315803 0)
(0.0465619 0.00316844 0)
(0.0452922 0.00317843 0)
(0.0440185 0.00318803 0)
(0.042741 0.00319724 0)
(0.04146 0.00320606 0)
(0.0401755 0.00321451 0)
(0.0388877 0.0032226 0)
(0.0375968 0.00323033 0)
(0.0363028 0.0032377 0)
(0.035006 0.00324474 0)
(0.0337065 0.00325145 0)
(0.0324043 0.00325783 0)
(0.0310996 0.00326389 0)
(0.0297926 0.00326964 0)
(0.0284834 0.00327508 0)
(0.027172 0.00328023 0)
(0.0258587 0.00328508 0)
(0.0245434 0.00328966 0)
(0.0232264 0.00329395 0)
(0.0219078 0.00329798 0)
(0.0205876 0.00330173 0)
(0.0192659 0.00330523 0)
(0.0179429 0.00330846 0)
(0.0166187 0.00331145 0)
(0.0152933 0.00331419 0)
(0.0139669 0.00331669 0)
(0.0126395 0.00331894 0)
(0.0113113 0.00332096 0)
(0.00998235 0.00332275 0)
(0.00865271 0.00332431 0)
(0.00732249 0.00332564 0)
(0.00599179 0.00332675 0)
(0.00466069 0.00332763 0)
(0.00332928 0.00332829 0)
(0.00199766 0.00332873 0)
(0.0006659 0.00332895 0)
(0.000687201 -0.00480895 0)
(0.00206156 -0.00480863 0)
(0.00343578 -0.00480798 0)
(0.00480976 -0.00480701 0)
(0.00618343 -0.00480572 0)
(0.00755669 -0.00480409 0)
(0.00892944 -0.00480214 0)
(0.0103016 -0.00479984 0)
(0.011673 -0.00479721 0)
(0.0130437 -0.00479424 0)
(0.0144134 -0.00479091 0)
(0.0157822 -0.00478723 0)
(0.0171499 -0.00478319 0)
(0.0185164 -0.00477877 0)
(0.0198815 -0.00477398 0)
(0.0212453 -0.00476881 0)
(0.0226075 -0.00476324 0)
(0.0239681 -0.00475727 0)
(0.025327 -0.00475088 0)
(0.0266839 -0.00474407 0)
(0.0280389 -0.00473683 0)
(0.0293918 -0.00472914 0)
(0.0307424 -0.004721 0)
(0.0320906 -0.00471239 0)
(0.0334364 -0.0047033 0)
(0.0347794 -0.00469372 0)
(0.0361197 -0.00468363 0)
(0.0374571 -0.00467302 0)
(0.0387913 -0.00466188 0)
(0.0401223 -0.0046502 0)
(0.0414499 -0.00463795 0)
(0.042774 -0.00462513 0)
(0.0440943 -0.00461172 0)
(0.0454107 -0.00459771 0)
(0.046723 -0.00458308 0)
(0.0480311 -0.00456782 0)
(0.0493348 -0.00455191 0)
(0.0506338 -0.00453533 0)
(0.0519281 -0.00451809 0)
(0.0532173 -0.00450014 0)
(0.0545013 -0.0044815 0)
(0.0557799 -0.00446213 0)
(0.0570529 -0.00444203 0)
(0.05832 -0.00442117 0)
(0.0595811 -0.00439956 0)
(0.0608359 -0.00437716 0)
(0.0620843 -0.00435398 0)
(0.0633259 -0.00432999 0)
(0.0645605 -0.00430519 0)
(0.065788 -0.00427956 0)
(0.067008 -0.00425308 0)
(0.0682204 -0.00422576 0)
(0.0694248 -0.00419757 0)
(0.0706211 -0.00416851 0)
(0.071809 -0.00413857 0)
(0.0729882 -0.00410773 0)
(0.0741584 -0.004076 0)
(0.0753195 -0.00404336 0)
(0.0764712 -0.0040098 0)
(0.0776131 -0.00397532 0)
(0.078745 -0.00393991 0)
(0.0798667 -0.00390358 0)
(0.0809779 -0.00386631 0)
(0.0820783 -0.0038281 0)
(0.0831677 -0.00378895 0)
(0.0842457 -0.00374885 0)
(0.0853122 -0.00370782 0)
(0.0863667 -0.00366584 0)
(0.0874092 -0.00362293 0)
(0.0884393 -0.00357907 0)
(0.0894567 -0.00353428 0)
(0.0904611 -0.00348856 0)
(0.0914524 -0.00344192 0)
(0.0924302 -0.00339436 0)
(0.0933942 -0.00334588 0)
(0.0943443 -0.0032965 0)
(0.0952801 -0.00324623 0)
(0.0962014 -0.00319507 0)
(0.097108 -0.00314304 0)
(0.0979995 -0.00309014 0)
(0.0988758 -0.0030364 0)
(0.0997366 -0.00298182 0)
(0.100582 -0.00292642 0)
(0.101411 -0.00287021 0)
(0.102224 -0.00281321 0)
(0.10302 -0.00275543 0)
(0.1038 -0.0026969 0)
(0.104563 -0.00263763 0)
(0.105309 -0.00257763 0)
(0.106038 -0.00251694 0)
(0.106749 -0.00245556 0)
(0.107443 -0.00239353 0)
(0.108118 -0.00233085 0)
(0.108776 -0.00226755 0)
(0.109415 -0.00220366 0)
(0.110037 -0.00213919 0)
(0.110639 -0.00207417 0)
(0.111223 -0.00200862 0)
(0.111788 -0.00194255 0)
(0.112334 -0.00187601 0)
(0.112861 -0.001809 0)
(0.113369 -0.00174156 0)
(0.113858 -0.0016737 0)
(0.114326 -0.00160545 0)
(0.114776 -0.00153683 0)
(0.115206 -0.00146787 0)
(0.115615 -0.00139858 0)
(0.116005 -0.001329 0)
(0.116375 -0.00125914 0)
(0.116726 -0.00118903 0)
(0.117055 -0.00111869 0)
(0.117365 -0.00104814 0)
(0.117655 -0.000977411 0)
(0.117924 -0.000906516 0)
(0.118173 -0.00083548 0)
(0.118402 -0.000764324 0)
(0.11861 -0.000693068 0)
(0.118798 -0.000621735 0)
(0.118966 -0.000550343 0)
(0.119113 -0.000478914 0)
(0.119239 -0.000407467 0)
(0.119346 -0.000336021 0)
(0.119431 -0.000264595 0)
(0.119497 -0.000193209 0)
(0.119542 -0.000121881 0)
(0.119566 -5.06281e-05 0)
(0.11957 2.05311e-05 0)
(0.119554 9.15791e-05 0)
(0.119518 0.000162499 0)
(0.119461 0.000233273 0)
(0.119384 0.000303886 0)
(0.119287 0.00037432 0)
(0.11917 0.00044456 0)
(0.119032 0.00051459 0)
(0.118875 0.000584393 0)
(0.118698 0.000653954 0)
(0.118501 0.000723258 0)
(0.118284 0.000792289 0)
(0.118047 0.000861033 0)
(0.117791 0.000929475 0)
(0.117515 0.000997599 0)
(0.11722 0.00106539 0)
(0.116906 0.00113284 0)
(0.116572 0.00119992 0)
(0.116219 0.00126663 0)
(0.115847 0.00133294 0)
(0.115456 0.00139886 0)
(0.115047 0.00146435 0)
(0.114619 0.00152941 0)
(0.114172 0.00159402 0)
(0.113707 0.00165817 0)
(0.113223 0.00172185 0)
(0.112722 0.00178503 0)
(0.112202 0.00184772 0)
(0.111664 0.00190988 0)
(0.111109 0.00197151 0)
(0.110537 0.0020326 0)
(0.109946 0.00209313 0)
(0.109339 0.00215309 0)
(0.108715 0.00221246 0)
(0.108073 0.00227123 0)
(0.107415 0.0023294 0)
(0.106741 0.00238693 0)
(0.10605 0.00244384 0)
(0.105343 0.00250009 0)
(0.10462 0.00255568 0)
(0.103881 0.0026106 0)
(0.103126 0.00266483 0)
(0.102356 0.00271837 0)
(0.101571 0.0027712 0)
(0.100771 0.00282332 0)
(0.099956 0.00287471 0)
(0.0991265 0.00292536 0)
(0.0982826 0.00297526 0)
(0.0974245 0.00302442 0)
(0.0965525 0.0030728 0)
(0.0956667 0.00312042 0)
(0.0947675 0.00316726 0)
(0.093855 0.00321332 0)
(0.0929294 0.00325858 0)
(0.091991 0.00330305 0)
(0.09104 0.00334672 0)
(0.0900766 0.00338958 0)
(0.0891011 0.00343163 0)
(0.0881137 0.00347287 0)
(0.0871146 0.00351329 0)
(0.0861041 0.00355289 0)
(0.0850824 0.00359168 0)
(0.0840497 0.00362964 0)
(0.0830063 0.00366679 0)
(0.0819524 0.00370311 0)
(0.0808883 0.00373862 0)
(0.0798141 0.0037733 0)
(0.0787301 0.00380718 0)
(0.0776366 0.00384024 0)
(0.0765338 0.00387249 0)
(0.0754218 0.00390394 0)
(0.074301 0.00393459 0)
(0.0731715 0.00396444 0)
(0.0720337 0.0039935 0)
(0.0708876 0.00402178 0)
(0.0697336 0.00404929 0)
(0.0685719 0.00407603 0)
(0.0674026 0.004102 0)
(0.0662261 0.00412722 0)
(0.0650424 0.0041517 0)
(0.0638519 0.00417545 0)
(0.0626547 0.00419846 0)
(0.061451 0.00422076 0)
(0.0602411 0.00424236 0)
(0.0590251 0.00426325 0)
(0.0578033 0.00428347 0)
(0.0565758 0.004303 0)
(0.0553428 0.00432188 0)
(0.0541046 0.0043401 0)
(0.0528612 0.00435768 0)
(0.0516129 0.00437463 0)
(0.0503599 0.00439097 0)
(0.0491023 0.0044067 0)
(0.0478404 0.00442183 0)
(0.0465742 0.00443638 0)
(0.0453039 0.00445036 0)
(0.0440297 0.00446379 0)
(0.0427518 0.00447666 0)
(0.0414704 0.00448901 0)
(0.0401854 0.00450083 0)
(0.0388972 0.00451214 0)
(0.0376058 0.00452294 0)
(0.0363115 0.00453326 0)
(0.0350143 0.00454311 0)
(0.0337143 0.00455248 0)
(0.0324117 0.0045614 0)
(0.0311067 0.00456988 0)
(0.0297993 0.00457791 0)
(0.0284897 0.00458553 0)
(0.027178 0.00459273 0)
(0.0258643 0.00459952 0)
(0.0245487 0.00460591 0)
(0.0232314 0.00461191 0)
(0.0219124 0.00461754 0)
(0.0205919 0.00462279 0)
(0.01927 0.00462767 0)
(0.0179467 0.0046322 0)
(0.0166221 0.00463638 0)
(0.0152965 0.00464021 0)
(0.0139698 0.0046437 0)
(0.0126421 0.00464685 0)
(0.0113136 0.00464968 0)
(0.00998436 0.00465218 0)
(0.00865444 0.00465436 0)
(0.00732395 0.00465622 0)
(0.00599298 0.00465776 0)
(0.00466162 0.004659 0)
(0.00332994 0.00465992 0)
(0.00199805 0.00466053 0)
(0.000666032 0.00466084 0)
(0.000687385 -0.00618349 0)
(0.00206211 -0.00618308 0)
(0.0034367 -0.00618225 0)
(0.00481106 -0.00618101 0)
(0.0061851 -0.00617934 0)
(0.00755873 -0.00617726 0)
(0.00893186 -0.00617475 0)
(0.0103044 -0.00617181 0)
(0.0116762 -0.00616844 0)
(0.0130473 -0.00616462 0)
(0.0144174 -0.00616035 0)
(0.0157866 -0.00615563 0)
(0.0171547 -0.00615045 0)
(0.0185216 -0.00614478 0)
(0.0198872 -0.00613864 0)
(0.0212514 -0.006132 0)
(0.0226141 -0.00612486 0)
(0.0239752 -0.00611719 0)
(0.0253345 -0.006109 0)
(0.026692 -0.00610027 0)
(0.0280474 -0.00609097 0)
(0.0294008 -0.00608111 0)
(0.030752 -0.00607066 0)
(0.0321007 -0.00605961 0)
(0.033447 -0.00604795 0)
(0.0347907 -0.00603565 0)
(0.0361315 -0.0060227 0)
(0.0374695 -0.00600909 0)
(0.0388043 -0.00599479 0)
(0.040136 -0.00597979 0)
(0.0414642 -0.00596407 0)
(0.042789 -0.00594761 0)
(0.04411 -0.00593039 0)
(0.0454271 -0.0059124 0)
(0.0467401 -0.00589362 0)
(0.048049 -0.00587402 0)
(0.0493534 -0.00585359 0)
(0.0506532 -0.00583231 0)
(0.0519482 -0.00581015 0)
(0.0532382 -0.00578711 0)
(0.054523 -0.00576316 0)
(0.0558024 -0.00573828 0)
(0.0570763 -0.00571246 0)
(0.0583443 -0.00568567 0)
(0.0596063 -0.00565791 0)
(0.060862 -0.00562914 0)
(0.0621112 -0.00559935 0)
(0.0633538 -0.00556853 0)
(0.0645893 -0.00553666 0)
(0.0658178 -0.00550373 0)
(0.0670388 -0.00546971 0)
(0.0682521 -0.0054346 0)
(0.0694576 -0.00539837 0)
(0.0706548 -0.00536103 0)
(0.0718437 -0.00532254 0)
(0.0730239 -0.00528291 0)
(0.0741952 -0.00524212 0)
(0.0753574 -0.00520017 0)
(0.07651 -0.00515703 0)
(0.077653 -0.00511271 0)
(0.078786 -0.0050672 0)
(0.0799088 -0.00502049 0)
(0.0810211 -0.00497257 0)
(0.0821225 -0.00492345 0)
(0.083213 -0.00487312 0)
(0.0842921 -0.00482157 0)
(0.0853596 -0.00476881 0)
(0.0864153 -0.00471484 0)
(0.0874588 -0.00465966 0)
(0.0884899 -0.00460327 0)
(0.0895084 -0.00454567 0)
(0.0905139 -0.00448688 0)
(0.0915062 -0.0044269 0)
(0.0924851 -0.00436574 0)
(0.0934502 -0.0043034 0)
(0.0944013 -0.00423989 0)
(0.0953381 -0.00417524 0)
(0.0962604 -0.00410945 0)
(0.097168 -0.00404253 0)
(0.0980605 -0.0039745 0)
(0.0989378 -0.00390538 0)
(0.0997995 -0.00383518 0)
(0.100646 -0.00376392 0)
(0.101476 -0.00369162 0)
(0.102289 -0.00361831 0)
(0.103087 -0.00354399 0)
(0.103867 -0.00346871 0)
(0.104631 -0.00339247 0)
(0.105378 -0.0033153 0)
(0.106108 -0.00323723 0)
(0.10682 -0.00315829 0)
(0.107514 -0.00307849 0)
(0.10819 -0.00299787 0)
(0.108849 -0.00291645 0)
(0.109489 -0.00283426 0)
(0.110111 -0.00275134 0)
(0.110714 -0.0026677 0)
(0.111298 -0.00258337 0)
(0.111864 -0.0024984 0)
(0.112411 -0.0024128 0)
(0.112938 -0.00232661 0)
(0.113446 -0.00223986 0)
(0.113935 -0.00215257 0)
(0.114405 -0.00206478 0)
(0.114854 -0.00197651 0)
(0.115285 -0.00188781 0)
(0.115695 -0.00179869 0)
(0.116085 -0.00170918 0)
(0.116456 -0.00161933 0)
(0.116806 -0.00152915 0)
(0.117136 -0.00143867 0)
(0.117446 -0.00134793 0)
(0.117736 -0.00125695 0)
(0.118005 -0.00116576 0)
(0.118255 -0.00107439 0)
(0.118483 -0.000982871 0)
(0.118692 -0.000891222 0)
(0.11888 -0.000799472 0)
(0.119047 -0.000707648 0)
(0.119194 -0.000615777 0)
(0.119321 -0.000523883 0)
(0.119427 -0.000431991 0)
(0.119513 -0.000340127 0)
(0.119578 -0.000248313 0)