/*--------------------------------*- C++ -*----------------------------------*\
| =========                 |                                                 |
| \\      /  F ield         | OpenFOAM: The Open Source CFD Toolbox           |
|  \\    /   O peration     | Version:  v2012                                 |
|   \\  /    A nd           | Website:  www.openfoam.com                      |
|    \\/     M anipulation  |                                                 |
\*---------------------------------------------------------------------------*/
FoamFile
{
    version     2.0;
    format      ascii;
    class       volVectorField;
    location    "70";
    object      Usup;
}
// * * * * * * * * * * * * * * * * * * * * * * * * * * * * * * * * * * * * * //

dimensions      [0 1 -1 0 0 0 0];


internalField   nonuniform List<vector> 
4000
(
(-1.03142e-16 -3.48339e-17 0)
(-4.52102e-17 3.67593e-16 0)
(1.16387e-16 5.37542e-16 0)
(2.21235e-16 5.56123e-16 0)
(3.48726e-16 6.15221e-16 0)
(-2.60863e-17 5.37576e-16 0)
(-6.2428e-16 4.58007e-16 0)
(-9.10343e-16 7.06522e-16 0)
(-4.39481e-16 1.24356e-15 0)
(1.43883e-16 1.15177e-15 0)
(9.2675e-17 8.90981e-16 0)
(-2.32597e-16 5.64089e-16 0)
(-6.99128e-16 6.6472e-16 0)
(-6.23566e-16 1.05008e-15 0)
(8.24386e-17 1.20503e-15 0)
(3.28355e-16 5.79766e-16 0)
(-7.02536e-16 -5.06903e-18 0)
(-1.7276e-15 2.80324e-16 0)
(-1.48538e-15 4.03345e-16 0)
(-1.01342e-15 4.64925e-16 0)
(-8.36014e-16 3.13856e-16 0)
(-4.50085e-16 3.72945e-17 0)
(-1.16443e-16 1.2025e-16 0)
(-1.71651e-16 2.39675e-18 0)
(3.25667e-16 2.67108e-16 0)
(1.42065e-15 6.80099e-16 0)
(1.70838e-15 5.73844e-16 0)
(1.28752e-15 6.21077e-16 0)
(8.17769e-16 9.45555e-17 0)
(1.48205e-16 4.45948e-17 0)
(3.70785e-16 3.09419e-16 0)
(1.26189e-15 4.02501e-16 0)
(1.96261e-15 1.37679e-16 0)
(2.88558e-15 -6.63325e-17 0)
(3.48459e-15 -3.89016e-16 0)
(3.72213e-15 -3.61129e-16 0)
(3.54885e-15 -3.83583e-16 0)
(3.51086e-15 -7.83609e-17 0)
(3.92997e-15 5.97477e-17 0)
(4.67596e-15 2.52239e-16 0)
(5.94459e-15 -6.5782e-17 0)
(6.30667e-15 -6.71628e-16 0)
(5.65038e-15 -7.36696e-16 0)
(5.59848e-15 -4.29206e-16 0)
(6.17582e-15 -2.79531e-16 0)
(6.86847e-15 3.51566e-17 0)
(7.08776e-15 -7.11256e-17 0)
(7.24779e-15 -1.69707e-16 0)
(7.77741e-15 -8.48107e-17 0)
(7.97435e-15 -6.56229e-17 0)
(7.63205e-15 -1.57497e-16 0)
(7.19373e-15 -1.72027e-16 0)
(7.04243e-15 -1.32273e-16 0)
(7.00019e-15 -4.61324e-17 0)
(7.35708e-15 2.52383e-16 0)
(7.94532e-15 4.67118e-16 0)
(8.46082e-15 5.00483e-16 0)
(8.59144e-15 5.79469e-16 0)
(8.11269e-15 4.12351e-16 0)
(7.85336e-15 1.44428e-16 0)
(7.91995e-15 4.92033e-17 0)
(7.90733e-15 -1.96895e-16 0)
(8.60496e-15 -6.75784e-17 0)
(9.9948e-15 9.33249e-17 0)
(1.09682e-14 1.74441e-18 0)
(1.12889e-14 -2.14289e-16 0)
(1.13611e-14 -4.14927e-16 0)
(1.17827e-14 -6.55182e-17 0)
(1.21138e-14 4.53683e-17 0)
(1.18324e-14 -1.19228e-16 0)
(1.1493e-14 -1.4638e-16 0)
(1.13464e-14 7.00033e-17 0)
(1.12099e-14 1.09447e-16 0)
(1.11132e-14 -1.95825e-16 0)
(1.09513e-14 -3.52018e-16 0)
(1.08476e-14 -4.13059e-16 0)
(1.09384e-14 -2.73663e-16 0)
(1.09003e-14 -3.65297e-16 0)
(1.05239e-14 -3.87688e-16 0)
(9.98843e-15 -3.72559e-16 0)
(9.94835e-15 -1.65208e-16 0)
(1.04091e-14 1.1012e-18 0)
(1.08645e-14 -1.99457e-16 0)
(1.115e-14 -3.8215e-16 0)
(1.06056e-14 -8.31764e-16 0)
(9.85274e-15 -6.22576e-16 0)
(9.46771e-15 -7.61289e-16 0)
(9.00921e-15 -8.18726e-16 0)
(8.61298e-15 -7.39894e-16 0)
(7.93672e-15 -6.40051e-16 0)
(7.22297e-15 -6.29234e-16 0)
(6.7654e-15 -3.11116e-16 0)
(6.13426e-15 -1.82537e-16 0)
(5.36393e-15 -2.01528e-16 0)
(4.60474e-15 -4.76896e-16 0)
(3.96869e-15 -3.55184e-16 0)
(3.93577e-15 8.86267e-17 0)
(3.58878e-15 -5.39442e-17 0)
(2.4039e-15 1.34628e-16 0)
(9.80005e-16 4.5111e-17 0)
(2.26009e-18 2.72124e-16 0)
(9.89682e-17 1.09236e-15 0)
(1.37236e-16 1.46319e-15 0)
(2.9746e-16 1.49841e-15 0)
(3.87055e-16 1.76344e-15 0)
(-5.04005e-16 1.87674e-15 0)
(-1.46446e-15 2.08167e-15 0)
(-1.55174e-15 2.28807e-15 0)
(-9.11785e-16 3.03412e-15 0)
(-3.74916e-16 3.0991e-15 0)
(-5.82097e-16 2.83354e-15 0)
(-9.68137e-16 2.26658e-15 0)
(-1.31244e-15 2.38436e-15 0)
(-1.11178e-15 2.78113e-15 0)
(-6.03419e-16 2.92796e-15 0)
(-8.40418e-16 1.82334e-15 0)
(-2.19822e-15 5.44915e-16 0)
(-3.69308e-15 6.84208e-16 0)
(-3.55637e-15 1.04153e-15 0)
(-2.80939e-15 1.06824e-15 0)
(-2.47096e-15 6.89519e-16 0)
(-1.35818e-15 2.2827e-16 0)
(-3.90568e-16 3.29213e-16 0)
(1.98717e-17 4.63172e-16 0)
(1.69259e-15 1.23567e-15 0)
(3.67757e-15 1.80845e-15 0)
(4.16148e-15 1.41345e-15 0)
(3.14852e-15 1.30448e-15 0)
(2.11308e-15 5.38523e-16 0)
(1.53995e-15 4.24541e-16 0)
(2.23771e-15 1.08081e-15 0)
(3.84559e-15 1.11272e-15 0)
(5.50895e-15 3.78935e-16 0)
(7.68624e-15 -1.46459e-17 0)
(9.43124e-15 -7.40474e-16 0)
(1.04258e-14 -9.15953e-16 0)
(1.0609e-14 -1.05998e-15 0)
(1.09636e-14 -4.17912e-16 0)
(1.20453e-14 -4.05923e-16 0)
(1.3622e-14 -1.56181e-16 0)
(1.57633e-14 -4.66208e-16 0)
(1.6959e-14 -1.4586e-15 0)
(1.67576e-14 -1.70098e-15 0)
(1.70228e-14 -1.10711e-15 0)
(1.83467e-14 -6.72582e-16 0)
(1.97358e-14 -3.11296e-16 0)
(2.01951e-14 -2.86581e-16 0)
(2.09437e-14 -1.92426e-16 0)
(2.21635e-14 -1.00469e-16 0)
(2.24858e-14 -1.08638e-16 0)
(2.18489e-14 -4.59879e-16 0)
(2.10943e-14 -4.17472e-16 0)
(2.08433e-14 -1.75186e-16 0)
(2.1062e-14 -1.02404e-16 0)
(2.20076e-14 6.43888e-16 0)
(2.31478e-14 1.18383e-15 0)
(2.42129e-14 1.56249e-15 0)
(2.4411e-14 1.53721e-15 0)
(2.33641e-14 1.20137e-15 0)
(2.29668e-14 5.40921e-16 0)
(2.3195e-14 2.69003e-17 0)
(2.3709e-14 -6.23919e-16 0)
(2.58118e-14 -1.70844e-16 0)
(2.87706e-14 3.08504e-16 0)
(3.08862e-14 3.82418e-17 0)
(3.19033e-14 -3.96362e-16 0)
(3.28384e-14 -6.58912e-16 0)
(3.40474e-14 -2.55579e-16 0)
(3.43641e-14 -1.64453e-16 0)
(3.37869e-14 -7.9066e-16 0)
(3.33677e-14 -6.48032e-16 0)
(3.30092e-14 -1.55219e-16 0)
(3.22584e-14 -1.36144e-16 0)
(3.18156e-14 -5.00206e-16 0)
(3.16032e-14 -8.97849e-16 0)
(3.15502e-14 -9.27619e-16 0)
(3.15747e-14 -9.3997e-16 0)
(3.12346e-14 -1.05772e-15 0)
(3.04543e-14 -1.11451e-15 0)
(2.95308e-14 -8.70499e-16 0)
(2.95131e-14 -3.30806e-16 0)
(3.00731e-14 -1.14106e-16 0)
(3.06996e-14 -7.66711e-16 0)
(3.09137e-14 -1.24232e-15 0)
(2.99839e-14 -2.07993e-15 0)
(2.84651e-14 -1.90656e-15 0)
(2.70581e-14 -2.01417e-15 0)
(2.58948e-14 -1.96151e-15 0)
(2.47208e-14 -2.02887e-15 0)
(2.28624e-14 -1.994e-15 0)
(2.11153e-14 -1.94053e-15 0)
(1.96856e-14 -1.25859e-15 0)
(1.76115e-14 -8.52031e-16 0)
(1.52134e-14 -6.96843e-16 0)
(1.32407e-14 -1.0827e-15 0)
(1.19912e-14 -9.3758e-16 0)
(1.101e-14 -1.48315e-16 0)
(9.36183e-15 -2.13725e-16 0)
(6.27129e-15 1.68701e-16 0)
(2.26839e-15 4.6057e-17 0)
(-5.22432e-17 8.07015e-16 0)
(-6.91775e-17 1.79075e-15 0)
(-1.59139e-16 2.34052e-15 0)
(1.13206e-16 2.45911e-15 0)
(3.27205e-16 2.99168e-15 0)
(-7.25251e-16 3.46586e-15 0)
(-2.15426e-15 4.2387e-15 0)
(-2.4106e-15 4.30296e-15 0)
(-1.42849e-15 4.7686e-15 0)
(-7.87035e-16 4.98211e-15 0)
(-1.247e-15 4.70528e-15 0)
(-1.76457e-15 4.09805e-15 0)
(-2.0975e-15 4.04633e-15 0)
(-1.88201e-15 4.23598e-15 0)
(-1.54481e-15 4.35337e-15 0)
(-2.3457e-15 3.36682e-15 0)
(-3.96484e-15 1.51785e-15 0)
(-5.27184e-15 9.62953e-16 0)
(-5.07805e-15 1.47318e-15 0)
(-4.39965e-15 1.25244e-15 0)
(-3.82149e-15 8.86188e-16 0)
(-2.09168e-15 6.41084e-16 0)
(-3.55968e-16 4.51764e-16 0)
(8.43918e-16 9.13707e-16 0)
(3.06524e-15 2.01371e-15 0)
(5.18152e-15 2.48668e-15 0)
(5.81516e-15 2.19495e-15 0)
(4.82365e-15 1.76407e-15 0)
(3.68813e-15 1.47542e-15 0)
(3.48939e-15 1.31683e-15 0)
(4.54854e-15 1.971e-15 0)
(6.31158e-15 1.38136e-15 0)
(8.81915e-15 7.66845e-16 0)
(1.2029e-14 1.86792e-16 0)
(1.45805e-14 -7.24561e-16 0)
(1.63496e-14 -1.02302e-15 0)
(1.73082e-14 -1.59545e-15 0)
(1.80959e-14 -1.52449e-15 0)
(1.96519e-14 -1.51065e-15 0)
(2.22361e-14 -1.30753e-15 0)
(2.5031e-14 -8.75403e-16 0)
(2.66899e-14 -1.38759e-15 0)
(2.71917e-14 -1.84066e-15 0)
(2.81076e-14 -1.61879e-15 0)
(2.98201e-14 -1.15801e-15 0)
(3.17417e-14 -9.10404e-16 0)
(3.28257e-14 -4.74399e-16 0)
(3.39229e-14 8.11679e-17 0)
(3.54013e-14 1.06682e-16 0)
(3.57399e-14 -2.20448e-16 0)
(3.51039e-14 -6.01107e-16 0)
(3.45321e-14 -4.65528e-16 0)
(3.41819e-14 -4.73262e-17 0)
(3.47103e-14 4.49671e-16 0)
(3.62715e-14 1.2718e-15 0)
(3.78429e-14 1.81924e-15 0)
(3.90422e-14 2.30924e-15 0)
(3.90818e-14 1.90608e-15 0)
(3.78026e-14 1.46157e-15 0)
(3.72426e-14 8.16828e-16 0)
(3.76847e-14 4.07735e-17 0)
(3.92075e-14 -4.3937e-16 0)
(4.27229e-14 1.0284e-16 0)
(4.65024e-14 2.53236e-16 0)
(4.92933e-14 -1.63565e-16 0)
(5.11389e-14 -6.87906e-16 0)
(5.27861e-14 -5.49689e-16 0)
(5.44649e-14 -4.26327e-16 0)
(5.46637e-14 -7.75179e-16 0)
(5.41881e-14 -1.52221e-15 0)
(5.41274e-14 -1.27266e-15 0)
(5.34376e-14 -7.64157e-16 0)
(5.22529e-14 -4.57452e-16 0)
(5.1467e-14 -6.90644e-16 0)
(5.11353e-14 -1.39903e-15 0)
(5.09897e-14 -1.65998e-15 0)
(5.0845e-14 -1.78973e-15 0)
(5.03875e-14 -1.71163e-15 0)
(4.94615e-14 -1.52214e-15 0)
(4.84711e-14 -1.03999e-15 0)
(4.82138e-14 -5.68541e-16 0)
(4.83225e-14 -3.69945e-16 0)
(4.88276e-14 -1.06392e-15 0)
(4.89951e-14 -1.85443e-15 0)
(4.77449e-14 -2.75888e-15 0)
(4.57859e-14 -3.17871e-15 0)
(4.37167e-14 -3.2476e-15 0)
(4.16049e-14 -3.10543e-15 0)
(3.94215e-14 -3.03037e-15 0)
(3.66944e-14 -3.1639e-15 0)
(3.41959e-14 -2.97882e-15 0)
(3.18836e-14 -2.287e-15 0)
(2.85421e-14 -1.76192e-15 0)
(2.46568e-14 -1.49262e-15 0)
(2.13704e-14 -1.43336e-15 0)
(1.93283e-14 -1.0883e-15 0)
(1.7349e-14 -6.25513e-16 0)
(1.43112e-14 -6.94161e-16 0)
(9.40272e-15 -4.48986e-16 0)
(3.23333e-15 -1.74724e-16 0)
(-1.74859e-16 1.18875e-15 0)
(-3.53355e-16 2.57725e-15 0)
(-5.9094e-16 3.31282e-15 0)
(-2.25896e-16 3.81983e-15 0)
(1.36884e-16 4.26096e-15 0)
(-8.94963e-16 5.45641e-15 0)
(-2.58773e-15 6.35816e-15 0)
(-3.05497e-15 6.61385e-15 0)
(-2.00508e-15 6.81841e-15 0)
(-1.61286e-15 6.50568e-15 0)
(-2.34296e-15 6.24411e-15 0)
(-2.76675e-15 5.9476e-15 0)
(-2.77007e-15 5.34366e-15 0)
(-2.40256e-15 5.3791e-15 0)
(-2.51602e-15 5.34993e-15 0)
(-4.33301e-15 4.53415e-15 0)
(-6.1439e-15 3.09065e-15 0)
(-6.64445e-15 1.99746e-15 0)
(-6.30118e-15 1.78412e-15 0)
(-5.74458e-15 1.21881e-15 0)
(-4.78825e-15 1.36281e-15 0)
(-2.74988e-15 1.33866e-15 0)
(-4.22728e-16 8.71951e-16 0)
(1.78093e-15 1.2656e-15 0)
(4.57215e-15 2.47307e-15 0)
(6.7575e-15 2.97536e-15 0)
(7.29149e-15 2.91166e-15 0)
(6.38765e-15 2.18739e-15 0)
(5.418e-15 2.26579e-15 0)
(5.5548e-15 2.21257e-15 0)
(6.65449e-15 2.48458e-15 0)
(8.73691e-15 1.45499e-15 0)
(1.2099e-14 1.14846e-15 0)
(1.58289e-14 4.52955e-16 0)
(1.92994e-14 -4.58569e-16 0)
(2.16771e-14 -1.09957e-15 0)
(2.29803e-14 -2.18631e-15 0)
(2.47006e-14 -2.6876e-15 0)
(2.71815e-14 -2.32379e-15 0)
(3.07116e-14 -1.81495e-15 0)
(3.40511e-14 -1.13373e-15 0)
(3.57524e-14 -1.11231e-15 0)
(3.66663e-14 -1.28681e-15 0)
(3.82945e-14 -1.52095e-15 0)
(4.06847e-14 -1.49867e-15 0)
(4.32212e-14 -1.0332e-15 0)
(4.48868e-14 -6.06266e-16 0)
(4.61736e-14 1.15271e-16 0)
(4.75041e-14 3.38934e-16 0)
(4.79443e-14 -1.17559e-16 0)
(4.76377e-14 -4.16554e-16 0)
(4.7303e-14 -1.89424e-16 0)
(4.73122e-14 2.92303e-16 0)
(4.81122e-14 1.32497e-15 0)
(4.97538e-14 2.25552e-15 0)
(5.15288e-14 2.45652e-15 0)
(5.26897e-14 2.48837e-15 0)
(5.26485e-14 1.85454e-15 0)
(5.15243e-14 1.43662e-15 0)
(5.1051e-14 1.03161e-15 0)
(5.19028e-14 3.15536e-16 0)
(5.43165e-14 1.59289e-16 0)
(5.84783e-14 4.11709e-16 0)
(6.28029e-14 -2.50885e-16 0)
(6.6326e-14 -6.89697e-16 0)
(6.91502e-14 -9.34219e-16 0)
(7.15643e-14 -7.06011e-16 0)
(7.32297e-14 -1.09447e-15 0)
(7.33919e-14 -1.68725e-15 0)
(7.32534e-14 -1.83237e-15 0)
(7.34893e-14 -1.86963e-15 0)
(7.28533e-14 -1.52143e-15 0)
(7.12243e-14 -9.78193e-16 0)
(6.97016e-14 -1.12763e-15 0)
(6.91249e-14 -2.07904e-15 0)
(6.91866e-14 -2.46596e-15 0)
(6.91812e-14 -2.54113e-15 0)
(6.86765e-14 -2.35257e-15 0)
(6.76078e-14 -1.62684e-15 0)
(6.63137e-14 -1.01702e-15 0)
(6.58485e-14 -4.26056e-16 0)
(6.56517e-14 -4.18108e-16 0)
(6.56406e-14 -9.82563e-16 0)
(6.54104e-14 -2.14972e-15 0)
(6.38028e-14 -3.34217e-15 0)
(6.15305e-14 -4.23048e-15 0)
(5.90685e-14 -4.24069e-15 0)
(5.64291e-14 -3.99258e-15 0)
(5.33385e-14 -3.64112e-15 0)
(4.96339e-14 -3.81928e-15 0)
(4.64496e-14 -3.63668e-15 0)
(4.32068e-14 -3.13153e-15 0)
(3.86335e-14 -2.84292e-15 0)
(3.35797e-14 -2.46609e-15 0)
(2.933e-14 -1.79275e-15 0)
(2.61278e-14 -1.1064e-15 0)
(2.26621e-14 -1.01104e-15 0)
(1.82511e-14 -1.38492e-15 0)
(1.20531e-14 -1.49715e-15 0)
(4.22841e-15 -5.87893e-16 0)
(-2.4463e-16 1.03518e-15 0)
(-6.8781e-16 3.04534e-15 0)
(-1.03327e-15 4.41543e-15 0)
(-7.53766e-16 5.70917e-15 0)
(2.75465e-17 6.53775e-15 0)
(-8.0429e-16 7.69348e-15 0)
(-3.09781e-15 8.27198e-15 0)
(-3.90274e-15 8.64596e-15 0)
(-3.16243e-15 8.5857e-15 0)
(-2.63501e-15 7.53516e-15 0)
(-2.99771e-15 7.41296e-15 0)
(-3.83032e-15 7.69621e-15 0)
(-4.01207e-15 7.06663e-15 0)
(-3.36046e-15 6.65205e-15 0)
(-3.58586e-15 5.9575e-15 0)
(-5.55601e-15 5.26587e-15 0)
(-7.77754e-15 4.42626e-15 0)
(-8.53893e-15 3.74705e-15 0)
(-7.95718e-15 2.66513e-15 0)
(-6.68702e-15 1.56332e-15 0)
(-5.18697e-15 1.72552e-15 0)
(-3.24392e-15 1.85315e-15 0)
(-4.65223e-16 1.73852e-15 0)
(2.75436e-15 2.06261e-15 0)
(5.95715e-15 3.22948e-15 0)
(8.04288e-15 3.27441e-15 0)
(8.41026e-15 2.75676e-15 0)
(7.83663e-15 2.14865e-15 0)
(7.37567e-15 2.28933e-15 0)
(7.62965e-15 2.59645e-15 0)
(8.68673e-15 2.82695e-15 0)
(1.11637e-14 2.17052e-15 0)
(1.52915e-14 1.5844e-15 0)
(1.94963e-14 6.69496e-16 0)
(2.34044e-14 -9.37523e-18 0)
(2.61552e-14 -1.20947e-15 0)
(2.81815e-14 -2.48436e-15 0)
(3.10419e-14 -3.10726e-15 0)
(3.45322e-14 -2.71479e-15 0)
(3.87101e-14 -1.92105e-15 0)
(4.25046e-14 -1.20931e-15 0)
(4.46072e-14 -1.11797e-15 0)
(4.5704e-14 -7.53891e-16 0)
(4.75463e-14 -6.91729e-16 0)
(5.06908e-14 -9.86114e-16 0)
(5.38753e-14 -7.12608e-16 0)
(5.60209e-14 -7.72708e-16 0)
(5.7729e-14 6.27958e-17 0)
(5.89789e-14 4.55998e-16 0)
(5.9344e-14 3.63138e-16 0)
(5.93759e-14 2.18339e-16 0)
(5.94407e-14 5.05672e-16 0)
(5.98238e-14 1.03834e-15 0)
(6.10046e-14 1.85688e-15 0)
(6.24948e-14 2.85309e-15 0)
(6.40749e-14 3.05176e-15 0)
(6.52923e-14 2.841e-15 0)
(6.54628e-14 2.1833e-15 0)
(6.46615e-14 1.3599e-15 0)
(6.42431e-14 1.07809e-15 0)
(6.54547e-14 8.15937e-16 0)
(6.85978e-14 7.3853e-16 0)
(7.3047e-14 5.12104e-16 0)
(7.78862e-14 -4.91598e-16 0)
(8.2485e-14 -8.44591e-16 0)
(8.60409e-14 -1.28838e-15 0)
(8.85167e-14 -1.67564e-15 0)
(9.02998e-14 -2.35793e-15 0)
(9.1109e-14 -2.67102e-15 0)
(9.11523e-14 -2.09018e-15 0)
(9.1346e-14 -2.17668e-15 0)
(9.08757e-14 -2.18107e-15 0)
(8.90706e-14 -2.02781e-15 0)
(8.69066e-14 -2.01505e-15 0)
(8.61047e-14 -2.512e-15 0)
(8.63079e-14 -2.61967e-15 0)
(8.62807e-14 -2.94437e-15 0)
(8.60357e-14 -2.88334e-15 0)
(8.49593e-14 -1.9696e-15 0)
(8.34284e-14 -8.70148e-16 0)
(8.24477e-14 6.49497e-17 0)
(8.15713e-14 -8.24429e-17 0)
(8.10322e-14 -8.51165e-16 0)
(8.02932e-14 -2.09206e-15 0)
(7.83987e-14 -3.63168e-15 0)
(7.61446e-14 -4.42592e-15 0)
(7.35774e-14 -4.6438e-15 0)
(7.02602e-14 -4.4845e-15 0)
(6.61536e-14 -4.25856e-15 0)
(6.15359e-14 -4.23243e-15 0)
(5.7659e-14 -4.20731e-15 0)
(5.34707e-14 -4.14763e-15 0)
(4.79798e-14 -4.05481e-15 0)
(4.22267e-14 -3.51989e-15 0)
(3.69668e-14 -2.53324e-15 0)
(3.22785e-14 -1.48454e-15 0)
(2.72164e-14 -1.49257e-15 0)
(2.13925e-14 -1.83466e-15 0)
(1.4272e-14 -2.03901e-15 0)
(5.36976e-15 -7.80979e-16 0)
(-6.69748e-17 9.87312e-16 0)
(-4.38818e-16 3.31156e-15 0)
(-8.96765e-16 5.54321e-15 0)
(-7.03491e-16 7.59057e-15 0)
(-3.22713e-16 8.76763e-15 0)
(-1.52402e-15 9.05942e-15 0)
(-3.81206e-15 9.81888e-15 0)
(-4.70708e-15 1.03405e-14 0)
(-4.56625e-15 1.04114e-14 0)
(-4.05751e-15 9.50729e-15 0)
(-3.7139e-15 8.88407e-15 0)
(-4.49845e-15 8.84372e-15 0)
(-5.02921e-15 8.79779e-15 0)
(-4.69441e-15 8.24448e-15 0)
(-4.99691e-15 7.23544e-15 0)
(-7.00372e-15 6.38338e-15 0)
(-8.99862e-15 5.61001e-15 0)
(-9.8274e-15 5.22409e-15 0)
(-9.74008e-15 3.66587e-15 0)
(-7.99221e-15 2.381e-15 0)
(-5.68907e-15 1.92497e-15 0)
(-3.29011e-15 2.32663e-15 0)
(-1.75479e-16 3.00856e-15 0)
(3.67023e-15 3.30833e-15 0)
(7.00862e-15 3.59838e-15 0)
(8.68651e-15 2.999e-15 0)
(9.32589e-15 2.29423e-15 0)
(9.32336e-15 1.91168e-15 0)
(9.38201e-15 2.0856e-15 0)
(1.00395e-14 2.67705e-15 0)
(1.11339e-14 3.0249e-15 0)
(1.35887e-14 2.95558e-15 0)
(1.79102e-14 2.00075e-15 0)
(2.27828e-14 6.28832e-16 0)
(2.72027e-14 -3.14948e-16 0)
(3.01967e-14 -1.35206e-15 0)
(3.29048e-14 -2.2374e-15 0)
(3.68507e-14 -2.93759e-15 0)
(4.14637e-14 -2.65e-15 0)
(4.63956e-14 -2.11934e-15 0)
(5.03636e-14 -1.3902e-15 0)
(5.28011e-14 -1.24692e-15 0)
(5.45275e-14 -6.53965e-16 0)
(5.64702e-14 1.03547e-17 0)
(5.98511e-14 8.49568e-17 0)
(6.34002e-14 -6.19417e-17 0)
(6.62574e-14 -2.63947e-16 0)
(6.85635e-14 2.9951e-16 0)
(6.97832e-14 4.54371e-16 0)
(7.02431e-14 7.30509e-16 0)
(7.04795e-14 7.96383e-16 0)
(7.08372e-14 1.35423e-15 0)
(7.1469e-14 2.05291e-15 0)
(7.29507e-14 2.77317e-15 0)
(7.46065e-14 3.49392e-15 0)
(7.60442e-14 3.75247e-15 0)
(7.71162e-14 3.34958e-15 0)
(7.70904e-14 2.42526e-15 0)
(7.66513e-14 1.14595e-15 0)
(7.70502e-14 9.40823e-16 0)
(7.8671e-14 1.28398e-15 0)
(8.19556e-14 1.24022e-15 0)
(8.65269e-14 8.69015e-16 0)
(9.20017e-14 2.5819e-16 0)
(9.71489e-14 -6.19494e-16 0)
(1.00991e-13 -1.93214e-15 0)
(1.04064e-13 -2.9737e-15 0)
(1.06413e-13 -3.70219e-15 0)
(1.07905e-13 -3.81661e-15 0)
(1.081e-13 -2.83938e-15 0)
(1.07892e-13 -2.23865e-15 0)
(1.07309e-13 -2.40441e-15 0)
(1.05504e-13 -3.05445e-15 0)
(1.03275e-13 -3.10641e-15 0)
(1.02353e-13 -2.90335e-15 0)
(1.02267e-13 -2.90342e-15 0)
(1.02086e-13 -3.12324e-15 0)
(1.02146e-13 -2.82931e-15 0)
(1.0145e-13 -1.98177e-15 0)
(9.97902e-14 -6.46737e-16 0)
(9.80936e-14 3.07624e-16 0)
(9.63759e-14 3.41573e-16 0)
(9.52296e-14 -3.90342e-16 0)
(9.39083e-14 -1.56906e-15 0)
(9.18325e-14 -3.19829e-15 0)
(8.94919e-14 -4.34923e-15 0)
(8.65153e-14 -5.00779e-15 0)
(8.28417e-14 -5.11246e-15 0)
(7.81575e-14 -4.84901e-15 0)
(7.26763e-14 -4.62828e-15 0)
(6.77769e-14 -4.8212e-15 0)
(6.2754e-14 -5.24889e-15 0)
(5.66061e-14 -5.12958e-15 0)
(5.01966e-14 -4.51895e-15 0)
(4.42389e-14 -3.3485e-15 0)
(3.81456e-14 -2.27952e-15 0)
(3.13654e-14 -1.93837e-15 0)
(2.42495e-14 -1.88721e-15 0)
(1.6278e-14 -1.75441e-15 0)
(6.32769e-15 -7.25318e-16 0)
(-7.19141e-17 1.33623e-15 0)
(-2.91037e-16 3.78751e-15 0)
(-5.84827e-16 6.26492e-15 0)
(-8.37043e-16 8.61002e-15 0)
(-1.16974e-15 9.92559e-15 0)
(-2.19964e-15 1.05048e-14 0)
(-4.24416e-15 1.132e-14 0)
(-5.45409e-15 1.19884e-14 0)
(-5.6221e-15 1.19502e-14 0)
(-5.45944e-15 1.19444e-14 0)
(-5.0802e-15 1.09384e-14 0)
(-5.42956e-15 9.93287e-15 0)
(-5.95452e-15 9.76478e-15 0)
(-5.97836e-15 9.55281e-15 0)
(-6.4047e-15 8.96806e-15 0)
(-8.23199e-15 7.8861e-15 0)
(-1.01814e-14 7.10119e-15 0)
(-1.15485e-14 6.19924e-15 0)
(-1.15271e-14 4.55681e-15 0)
(-9.19266e-15 3.78776e-15 0)
(-6.06651e-15 3.34773e-15 0)
(-2.79777e-15 3.7351e-15 0)
(4.68242e-16 4.10242e-15 0)
(4.01276e-15 3.89285e-15 0)
(7.1977e-15 3.35781e-15 0)
(9.17729e-15 2.4794e-15 0)
(1.02519e-14 1.98186e-15 0)
(1.0788e-14 1.74617e-15 0)
(1.14856e-14 2.08471e-15 0)
(1.23858e-14 2.61864e-15 0)
(1.3636e-14 2.99363e-15 0)
(1.6012e-14 3.37685e-15 0)
(2.01685e-14 2.47907e-15 0)
(2.54248e-14 8.39729e-16 0)
(3.06091e-14 -6.73253e-16 0)
(3.43847e-14 -1.69755e-15 0)
(3.76047e-14 -2.0139e-15 0)
(4.2282e-14 -2.38813e-15 0)
(4.7674e-14 -2.17567e-15 0)
(5.32039e-14 -1.85451e-15 0)
(5.77161e-14 -1.58332e-15 0)
(6.06321e-14 -1.05325e-15 0)
(6.29311e-14 -6.35985e-16 0)
(6.51688e-14 4.14325e-16 0)
(6.84867e-14 9.10285e-16 0)
(7.22196e-14 5.05936e-16 0)
(7.55874e-14 4.43317e-16 0)
(7.81813e-14 7.26198e-16 0)
(7.97485e-14 8.77326e-16 0)
(8.04654e-14 1.12775e-15 0)
(8.10216e-14 1.44489e-15 0)
(8.18198e-14 2.32787e-15 0)
(8.26069e-14 3.25621e-15 0)
(8.41523e-14 3.81236e-15 0)
(8.57293e-14 4.08877e-15 0)
(8.69621e-14 4.29159e-15 0)
(8.77949e-14 3.75907e-15 0)
(8.77813e-14 2.86169e-15 0)
(8.79585e-14 1.38871e-15 0)
(8.92327e-14 8.48849e-16 0)
(9.11777e-14 1.05635e-15 0)
(9.45657e-14 1.14218e-15 0)
(9.95237e-14 1.3425e-15 0)
(1.05008e-13 1.19382e-15 0)
(1.1009e-13 -3.91241e-16 0)
(1.14413e-13 -1.9625e-15 0)
(1.18051e-13 -3.33274e-15 0)
(1.21076e-13 -4.25813e-15 0)
(1.23516e-13 -4.40438e-15 0)
(1.24279e-13 -3.79413e-15 0)
(1.23675e-13 -2.99353e-15 0)
(1.22222e-13 -3.39314e-15 0)
(1.20365e-13 -4.11036e-15 0)
(1.18643e-13 -4.25725e-15 0)
(1.17657e-13 -3.67076e-15 0)
(1.17299e-13 -3.26378e-15 0)
(1.17206e-13 -2.7357e-15 0)
(1.17429e-13 -2.05978e-15 0)
(1.16769e-13 -1.32116e-15 0)
(1.14963e-13 -2.32621e-16 0)
(1.12688e-13 7.10427e-16 0)
(1.1023e-13 6.83834e-16 0)
(1.08388e-13 -1.7947e-16 0)
(1.06428e-13 -1.44631e-15 0)
(1.03794e-13 -2.81091e-15 0)
(1.01301e-13 -4.26794e-15 0)
(9.83887e-14 -5.06888e-15 0)
(9.44947e-14 -5.25726e-15 0)
(8.92445e-14 -5.13099e-15 0)
(8.27878e-14 -5.20811e-15 0)
(7.68244e-14 -5.52512e-15 0)
(7.11616e-14 -6.00397e-15 0)
(6.46387e-14 -5.84654e-15 0)
(5.77742e-14 -5.19126e-15 0)
(5.08816e-14 -4.06217e-15 0)
(4.35169e-14 -3.27122e-15 0)
(3.54994e-14 -2.16852e-15 0)
(2.71004e-14 -1.58069e-15 0)
(1.79999e-14 -1.13602e-15 0)
(7.05988e-15 -6.43063e-16 0)
(-7.71069e-17 1.68299e-15 0)
(-2.69109e-16 4.41241e-15 0)
(-4.75693e-16 6.86084e-15 0)
(-8.45789e-16 8.81854e-15 0)
(-1.5287e-15 1.04142e-14 0)
(-2.91536e-15 1.1664e-14 0)
(-4.98453e-15 1.2487e-14 0)
(-6.3557e-15 1.36348e-14 0)
(-6.55113e-15 1.35885e-14 0)
(-6.60089e-15 1.37075e-14 0)
(-6.86656e-15 1.23716e-14 0)
(-6.94237e-15 1.08691e-14 0)
(-6.82012e-15 1.05057e-14 0)
(-6.73441e-15 1.09041e-14 0)
(-7.6348e-15 1.06015e-14 0)
(-9.77132e-15 9.35878e-15 0)
(-1.16263e-14 8.40905e-15 0)
(-1.30402e-14 7.43118e-15 0)
(-1.27215e-14 6.48889e-15 0)
(-9.84687e-15 5.66359e-15 0)
(-6.34841e-15 4.81827e-15 0)
(-2.92602e-15 4.54074e-15 0)
(2.43275e-16 4.37012e-15 0)
(3.96301e-15 3.97917e-15 0)
(7.3698e-15 3.31019e-15 0)
(9.62705e-15 2.46017e-15 0)
(1.12527e-14 1.94852e-15 0)
(1.23409e-14 1.89926e-15 0)
(1.34422e-14 2.32126e-15 0)
(1.46628e-14 2.85439e-15 0)
(1.62918e-14 3.27941e-15 0)
(1.85779e-14 3.63757e-15 0)
(2.2275e-14 2.47592e-15 0)
(2.76087e-14 6.48242e-16 0)
(3.34012e-14 -7.9481e-16 0)
(3.81776e-14 -1.51791e-15 0)
(4.22508e-14 -1.69914e-15 0)
(4.74767e-14 -1.32386e-15 0)
(5.351e-14 -1.04645e-15 0)
(5.9403e-14 -7.51974e-16 0)
(6.44193e-14 -6.18534e-16 0)
(6.78025e-14 -5.48116e-16 0)
(7.06873e-14 -7.68186e-16 0)
(7.34228e-14 -2.06789e-16 0)
(7.64448e-14 5.77191e-16 0)
(8.02649e-14 1.13349e-15 0)
(8.4262e-14 1.334e-15 0)
(8.72959e-14 1.5605e-15 0)
(8.89864e-14 1.72214e-15 0)
(8.99812e-14 1.80028e-15 0)
(9.10259e-14 2.25281e-15 0)
(9.21395e-14 2.9659e-15 0)
(9.28426e-14 4.11644e-15 0)
(9.41932e-14 4.68855e-15 0)
(9.59854e-14 4.96054e-15 0)
(9.7261e-14 5.03395e-15 0)
(9.79707e-14 4.41303e-15 0)
(9.77002e-14 3.32701e-15 0)
(9.79822e-14 1.90369e-15 0)
(1.00121e-13 1.02609e-15 0)
(1.02791e-13 7.15799e-16 0)
(1.06766e-13 1.04582e-15 0)
(1.1196e-13 1.40698e-15 0)
(1.16973e-13 8.73342e-16 0)
(1.21911e-13 -5.92462e-16 0)
(1.26668e-13 -2.16946e-15 0)
(1.30855e-13 -3.6172e-15 0)
(1.34602e-13 -4.29717e-15 0)
(1.37574e-13 -4.43423e-15 0)
(1.38668e-13 -4.50838e-15 0)
(1.37794e-13 -4.37051e-15 0)
(1.36073e-13 -4.82587e-15 0)
(1.34359e-13 -4.74186e-15 0)
(1.32939e-13 -4.52122e-15 0)
(1.32233e-13 -3.87147e-15 0)
(1.31878e-13 -3.19419e-15 0)
(1.31635e-13 -2.30979e-15 0)
(1.31557e-13 -1.47452e-15 0)
(1.30844e-13 -7.88534e-16 0)
(1.28997e-13 2.75782e-16 0)
(1.26131e-13 1.04594e-15 0)
(1.22707e-13 8.88859e-16 0)
(1.20198e-13 -2.83488e-17 0)
(1.17937e-13 -1.53618e-15 0)
(1.14997e-13 -2.54676e-15 0)
(1.12188e-13 -3.60813e-15 0)
(1.09119e-13 -4.70986e-15 0)
(1.04972e-13 -5.31328e-15 0)
(9.9095e-14 -5.58925e-15 0)
(9.19025e-14 -5.86607e-15 0)
(8.52212e-14 -6.02789e-15 0)
(7.89678e-14 -6.29945e-15 0)
(7.19849e-14 -6.08929e-15 0)
(6.45327e-14 -5.64817e-15 0)
(5.68273e-14 -4.77767e-15 0)
(4.87643e-14 -3.54226e-15 0)
(3.97531e-14 -2.35085e-15 0)
(2.99035e-14 -1.6508e-15 0)
(1.9431e-14 -1.05153e-15 0)
(7.54551e-15 -4.41107e-16 0)
(-1.63611e-16 1.8737e-15 0)
(-4.42535e-16 4.71724e-15 0)
(-8.75987e-16 7.31512e-15 0)
(-1.40756e-15 9.17577e-15 0)
(-1.97024e-15 1.08152e-14 0)
(-3.32452e-15 1.22427e-14 0)
(-5.23214e-15 1.33989e-14 0)
(-6.88531e-15 1.47896e-14 0)
(-7.62313e-15 1.50344e-14 0)
(-8.2367e-15 1.47716e-14 0)
(-8.90175e-15 1.34287e-14 0)
(-8.41501e-15 1.20506e-14 0)
(-7.44302e-15 1.18653e-14 0)
(-7.33858e-15 1.23786e-14 0)
(-8.90198e-15 1.18372e-14 0)
(-1.11475e-14 1.07497e-14 0)
(-1.28422e-14 9.76619e-15 0)
(-1.41117e-14 8.73004e-15 0)
(-1.38225e-14 8.33e-15 0)
(-1.11819e-14 7.41063e-15 0)
(-7.33939e-15 5.70806e-15 0)
(-3.1926e-15 4.72513e-15 0)
(4.25736e-16 4.51576e-15 0)
(4.07731e-15 4.2367e-15 0)
(7.41857e-15 3.50372e-15 0)
(1.00081e-14 2.84402e-15 0)
(1.2151e-14 2.6402e-15 0)
(1.38409e-14 2.54435e-15 0)
(1.54462e-14 2.85439e-15 0)
(1.68761e-14 3.24325e-15 0)
(1.86027e-14 3.69763e-15 0)
(2.05035e-14 3.72827e-15 0)
(2.38161e-14 2.71874e-15 0)
(2.9673e-14 1.03463e-15 0)
(3.64932e-14 -3.50465e-16 0)
(4.20187e-14 -7.29559e-16 0)
(4.6864e-14 -4.88662e-16 0)
(5.26988e-14 1.52741e-16 0)
(5.88581e-14 4.6698e-16 0)
(6.51075e-14 3.88103e-16 0)
(7.02601e-14 -1.81856e-16 0)
(7.36821e-14 -6.0652e-16 0)
(7.70634e-14 -5.81165e-16 0)
(8.07236e-14 -3.42577e-16 0)
(8.46921e-14 7.20674e-16 0)
(8.86173e-14 2.15292e-15 0)
(9.23208e-14 2.53855e-15 0)
(9.54107e-14 2.55167e-15 0)
(9.73327e-14 2.5386e-15 0)
(9.86656e-14 2.7665e-15 0)
(1.0004e-13 3.01009e-15 0)
(1.01674e-13 3.41861e-15 0)
(1.02679e-13 4.50528e-15 0)
(1.0392e-13 5.34606e-15 0)
(1.05503e-13 5.76321e-15 0)
(1.06478e-13 5.3658e-15 0)
(1.06874e-13 4.60358e-15 0)
(1.06697e-13 3.14519e-15 0)
(1.07475e-13 2.36408e-15 0)
(1.10056e-13 1.9203e-15 0)
(1.13441e-13 1.39088e-15 0)
(1.17947e-13 1.54998e-15 0)
(1.22959e-13 1.24894e-15 0)
(1.27823e-13 1.47671e-16 0)
(1.32846e-13 -1.16417e-15 0)
(1.37831e-13 -2.87271e-15 0)
(1.42683e-13 -4.57282e-15 0)
(1.47116e-13 -4.8658e-15 0)
(1.50323e-13 -4.81163e-15 0)
(1.5149e-13 -5.0494e-15 0)
(1.50701e-13 -5.25263e-15 0)
(1.49214e-13 -5.43452e-15 0)
(1.47789e-13 -5.07749e-15 0)
(1.46362e-13 -4.45269e-15 0)
(1.45548e-13 -3.67738e-15 0)
(1.45159e-13 -3.04845e-15 0)
(1.44946e-13 -2.19987e-15 0)
(1.44752e-13 -1.25729e-15 0)
(1.43962e-13 -4.75782e-16 0)
(1.41893e-13 7.09073e-16 0)
(1.38369e-13 1.1322e-15 0)
(1.34278e-13 8.64407e-16 0)
(1.3098e-13 2.34157e-16 0)
(1.28387e-13 -1.22452e-15 0)
(1.25394e-13 -2.21797e-15 0)
(1.22015e-13 -3.15607e-15 0)
(1.18495e-13 -4.52148e-15 0)
(1.14147e-13 -5.23937e-15 0)
(1.07966e-13 -5.84274e-15 0)
(1.00321e-13 -6.24533e-15 0)
(9.29935e-14 -6.52527e-15 0)
(8.61476e-14 -6.5054e-15 0)
(7.86057e-14 -6.19234e-15 0)
(7.05979e-14 -5.60168e-15 0)
(6.25708e-14 -4.61454e-15 0)
(5.36235e-14 -3.43905e-15 0)
(4.32761e-14 -2.75927e-15 0)
(3.23709e-14 -2.07803e-15 0)
(2.10092e-14 -1.37282e-15 0)
(8.04608e-15 -3.11238e-16 0)
(-2.96392e-16 1.65912e-15 0)
(-6.29956e-16 4.81293e-15 0)
(-1.09099e-15 7.62601e-15 0)
(-1.77366e-15 1.00549e-14 0)
(-2.43449e-15 1.20127e-14 0)
(-3.87978e-15 1.34067e-14 0)
(-5.7139e-15 1.43425e-14 0)
(-7.51827e-15 1.50894e-14 0)
(-8.71267e-15 1.53788e-14 0)
(-9.73396e-15 1.52409e-14 0)
(-1.0648e-14 1.47442e-14 0)
(-9.72586e-15 1.37904e-14 0)
(-8.08743e-15 1.38137e-14 0)
(-8.15449e-15 1.36137e-14 0)
(-1.01354e-14 1.26681e-14 0)
(-1.25071e-14 1.17644e-14 0)
(-1.42283e-14 1.05479e-14 0)
(-1.50909e-14 9.73508e-15 0)
(-1.45174e-14 9.48151e-15 0)
(-1.23731e-14 8.94491e-15 0)
(-8.63374e-15 7.26718e-15 0)
(-3.77136e-15 5.88329e-15 0)
(3.0195e-16 4.87921e-15 0)
(4.05557e-15 4.19004e-15 0)
(7.62083e-15 3.61234e-15 0)
(1.07122e-14 3.25767e-15 0)
(1.31962e-14 3.37713e-15 0)
(1.51077e-14 3.53106e-15 0)
(1.70284e-14 3.74604e-15 0)
(1.88576e-14 3.79961e-15 0)
(2.07833e-14 4.08588e-15 0)
(2.26166e-14 4.08619e-15 0)
(2.57316e-14 3.83876e-15 0)
(3.15061e-14 2.94965e-15 0)
(3.89946e-14 1.72962e-15 0)
(4.57097e-14 1.02066e-15 0)
(5.12781e-14 1.05488e-15 0)
(5.7305e-14 1.22022e-15 0)
(6.35572e-14 1.49164e-15 0)
(6.95431e-14 1.33458e-15 0)
(7.5031e-14 4.22243e-16 0)
(7.95486e-14 4.64216e-18 0)
(8.35836e-14 3.37154e-16 0)
(8.77121e-14 9.68794e-16 0)
(9.22113e-14 1.98991e-15 0)
(9.60996e-14 2.53476e-15 0)
(9.95808e-14 2.90838e-15 0)
(1.02804e-13 3.18983e-15 0)
(1.05086e-13 2.9751e-15 0)
(1.06655e-13 3.66429e-15 0)
(1.08179e-13 4.01893e-15 0)
(1.10237e-13 4.469e-15 0)
(1.11577e-13 4.8871e-15 0)
(1.12766e-13 5.40973e-15 0)
(1.13998e-13 5.30749e-15 0)
(1.14777e-13 5.34576e-15 0)
(1.15093e-13 4.34836e-15 0)
(1.15212e-13 3.17141e-15 0)
(1.16666e-13 2.85223e-15 0)
(1.19451e-13 2.40394e-15 0)
(1.23072e-13 1.87162e-15 0)
(1.27773e-13 1.75411e-15 0)
(1.32641e-13 1.11063e-15 0)
(1.3753e-13 -5.59442e-17 0)
(1.42626e-13 -1.34158e-15 0)
(1.47655e-13 -3.055e-15 0)
(1.53366e-13 -4.72997e-15 0)
(1.58796e-13 -5.31371e-15 0)
(1.62101e-13 -5.43626e-15 0)
(1.63201e-13 -5.69647e-15 0)
(1.6247e-13 -6.17492e-15 0)
(1.61184e-13 -5.7697e-15 0)
(1.60021e-13 -5.29194e-15 0)
(1.58811e-13 -4.70139e-15 0)
(1.57967e-13 -3.9915e-15 0)
(1.57484e-13 -3.08938e-15 0)
(1.57257e-13 -1.73161e-15 0)
(1.5688e-13 -4.83691e-16 0)
(1.56065e-13 1.89574e-16 0)
(1.53643e-13 1.13855e-15 0)
(1.49365e-13 1.1584e-15 0)
(1.44775e-13 8.40335e-16 0)
(1.40933e-13 3.41278e-17 0)
(1.3786e-13 -1.02367e-15 0)
(1.34654e-13 -2.05436e-15 0)
(1.30814e-13 -3.04298e-15 0)
(1.2704e-13 -4.12866e-15 0)
(1.22481e-13 -4.74183e-15 0)
(1.15765e-13 -5.71332e-15 0)
(1.07647e-13 -6.46567e-15 0)
(1.00024e-13 -6.66678e-15 0)
(9.28714e-14 -6.37597e-15 0)
(8.48912e-14 -6.03252e-15 0)
(7.64358e-14 -5.14263e-15 0)
(6.75765e-14 -3.54167e-15 0)
(5.76105e-14 -3.09433e-15 0)
(4.64538e-14 -2.87844e-15 0)
(3.47258e-14 -2.50494e-15 0)
(2.25255e-14 -1.78356e-15 0)
(8.51156e-15 -4.87645e-16 0)
(-2.65109e-16 1.88138e-15 0)
(-6.92766e-16 5.49436e-15 0)
(-1.23662e-15 8.29882e-15 0)
(-1.97375e-15 1.07663e-14 0)
(-2.91081e-15 1.28642e-14 0)
(-4.67178e-15 1.42319e-14 0)
(-6.74824e-15 1.51756e-14 0)
(-8.6016e-15 1.54547e-14 0)
(-9.74229e-15 1.54901e-14 0)
(-1.07123e-14 1.54218e-14 0)
(-1.17817e-14 1.58362e-14 0)
(-1.07419e-14 1.56624e-14 0)
(-9.06647e-15 1.55843e-14 0)
(-9.54221e-15 1.47092e-14 0)
(-1.15028e-14 1.36602e-14 0)
(-1.38322e-14 1.24553e-14 0)
(-1.53389e-14 1.12563e-14 0)
(-1.57588e-14 1.09299e-14 0)
(-1.50907e-14 1.06041e-14 0)
(-1.32782e-14 9.79309e-15 0)
(-9.79392e-15 8.45191e-15 0)
(-4.84421e-15 7.39968e-15 0)
(-3.71374e-16 6.05222e-15 0)