/*--------------------------------*- C++ -*----------------------------------*\
| =========                 |                                                 |
| \\      /  F ield         | OpenFOAM: The Open Source CFD Toolbox           |
|  \\    /   O peration     | Version:  v2012                                 |
|   \\  /    A nd           | Website:  www.openfoam.com                      |
|    \\/     M anipulation  |                                                 |
\*---------------------------------------------------------------------------*/
FoamFile
{
    version     2.0;
    format      ascii;
    class       volScalarField;
    location    "0";
    object      p;
}
// * * * * * * * * * * * * * * * * * * * * * * * * * * * * * * * * * * * * * //

dimensions      [0 2 -2 0 0 0 0];


internalField   nonuniform List<scalar> 
4000
(
4.37671e-14
4.68778e-14
4.07417e-14
4.54667e-14
4.71655e-14
4.40182e-14
4.12362e-14
4.58485e-14
4.32535e-14
4.42196e-14
4.00512e-14
4.03893e-14
4.04634e-14
3.88284e-14
2.41164e-14
1.01993e-14
2.32614e-14
3.12337e-14
1.53806e-14
8.10285e-15
-2.34798e-16
-9.28207e-15
-1.76447e-14
-3.07964e-14
-3.90901e-14
-4.45425e-14
-4.90626e-14
-4.98774e-14
-4.79139e-14
-4.87052e-14
-5.43866e-14
-6.23881e-14
-5.93212e-14
-6.45544e-14
-6.75641e-14
-7.16166e-14
-6.68202e-14
-7.49783e-14
-7.59457e-14
-8.76728e-14
-7.03992e-14
-6.2353e-14
-7.08629e-14
-6.0609e-14
-5.89618e-14
-5.04704e-14
-5.72349e-14
-6.55365e-14
-7.09727e-14
-7.77563e-14
-7.66519e-14
-7.25827e-14
-7.85196e-14
-8.32949e-14
-6.91382e-14
-7.23954e-14
-7.32717e-14
-7.402e-14
-6.77142e-14
-5.30004e-14
-5.93888e-14
-4.93587e-14
-5.21915e-14
-6.63733e-14
-6.39337e-14
-5.73611e-14
-4.55054e-14
-3.88181e-14
-4.29303e-14
-4.39407e-14
-3.68339e-14
-3.69104e-14
-4.97931e-14
-5.16352e-14
-4.59837e-14
-3.60509e-14
-3.05816e-14
-3.13328e-14
-2.28754e-14
-3.56939e-14
-3.66919e-14
-2.87382e-14
-2.80854e-14
-3.444e-14
-3.95325e-14
-4.02818e-14
-4.00617e-14
-3.1215e-14
-2.73301e-14
-2.5836e-14
-1.87318e-14
-2.11504e-14
-2.15073e-14
-1.65781e-14
-1.43935e-14
-1.97802e-14
-1.16519e-14
-1.28223e-14
-1.10341e-14
-4.71123e-15
4.20766e-14
4.32355e-14
4.30729e-14
4.71611e-14
4.74993e-14
4.71276e-14
4.43932e-14
4.77262e-14
3.95668e-14
3.81817e-14
4.27589e-14
4.13624e-14
3.96578e-14
3.50176e-14
2.41854e-14
2.17866e-14
2.54565e-14
2.42674e-14
1.70593e-14
5.69859e-15
-4.64479e-16
-1.51268e-14
-2.48566e-14
-2.72019e-14
-3.67942e-14
-4.2169e-14
-4.74126e-14
-4.62511e-14
-4.74297e-14
-5.23769e-14
-5.42088e-14
-5.4656e-14
-6.06737e-14
-6.82315e-14
-7.05738e-14
-7.55277e-14
-7.0114e-14
-7.52495e-14
-7.62093e-14
-8.26134e-14
-7.11101e-14
-6.33398e-14
-6.46377e-14
-5.87679e-14
-6.2715e-14
-5.33218e-14
-6.16007e-14
-6.41093e-14
-6.93046e-14
-7.79375e-14
-7.88035e-14
-7.62674e-14
-7.48609e-14
-7.35375e-14
-7.22337e-14
-7.36833e-14
-7.13285e-14
-8.06255e-14
-7.23924e-14
-5.93869e-14
-5.36352e-14
-4.70155e-14
-5.61785e-14
-6.24086e-14
-5.88934e-14
-5.6471e-14
-4.44156e-14
-3.8569e-14
-4.38976e-14
-4.16629e-14
-3.65686e-14
-3.78281e-14
-4.56426e-14
-5.00423e-14
-4.69889e-14
-4.02457e-14
-3.24501e-14
-3.11036e-14
-3.001e-14
-3.01163e-14
-3.46404e-14
-2.97559e-14
-2.59646e-14
-3.14129e-14
-3.91982e-14
-4.01257e-14
-3.8288e-14
-3.83709e-14
-3.22702e-14
-2.21145e-14
-1.86794e-14
-2.04086e-14
-1.90024e-14
-1.63937e-14
-1.35291e-14
-1.83322e-14
-1.8333e-14
-1.44854e-14
-5.55523e-15
-2.50197e-15
4.36278e-14
4.45805e-14
4.6876e-14
4.47563e-14
5.00063e-14
4.83104e-14
4.42708e-14
4.524e-14
3.57835e-14
3.98182e-14
3.8383e-14
3.88273e-14
4.12603e-14
3.76962e-14
2.63778e-14
2.64074e-14
2.08816e-14
1.90337e-14
1.92723e-14
7.02535e-15
-2.19588e-15
-1.21678e-14
-2.36892e-14
-2.94827e-14
-3.51362e-14
-4.13392e-14
-4.33333e-14
-4.52776e-14
-5.48165e-14
-5.57195e-14
-5.63592e-14
-6.00603e-14
-6.06005e-14
-5.69342e-14
-6.54893e-14
-6.80163e-14
-7.78414e-14
-7.9992e-14
-8.00286e-14
-7.5967e-14
-7.09162e-14
-6.55205e-14
-5.84097e-14
-6.2803e-14
-6.41049e-14
-5.83552e-14
-6.30079e-14
-6.64133e-14
-6.65964e-14
-6.84943e-14
-7.80701e-14
-8.17115e-14
-8.2816e-14
-7.61968e-14
-7.58985e-14
-7.28027e-14
-7.18464e-14
-7.40271e-14
-6.50761e-14
-6.22407e-14
-5.55176e-14
-5.24267e-14
-5.59589e-14
-6.22499e-14
-5.83809e-14
-5.07727e-14
-4.59024e-14
-4.15268e-14
-4.21894e-14
-4.30785e-14
-3.96985e-14
-3.67588e-14
-4.51451e-14
-5.11457e-14
-4.66786e-14
-4.15369e-14
-3.08923e-14
-2.86993e-14
-3.02262e-14
-2.63642e-14
-3.20009e-14
-3.05353e-14
-2.96314e-14
-3.23712e-14
-4.1819e-14
-3.61132e-14
-3.31434e-14
-3.56503e-14
-3.46115e-14
-2.24426e-14
-2.04552e-14
-2.22051e-14
-1.95636e-14
-1.07722e-14
-1.04125e-14
-2.17377e-14
-1.84155e-14
-1.40465e-14
-3.90597e-15
-1.33933e-15
4.46613e-14
4.71964e-14
4.49071e-14
4.09797e-14
4.79338e-14
4.9136e-14
4.85522e-14
4.80285e-14
3.91006e-14
3.34405e-14
4.44343e-14
4.14701e-14
3.4835e-14
3.41375e-14
3.59812e-14
2.59861e-14
1.70992e-14
1.42802e-14
1.23254e-14
5.08096e-15
-5.12451e-15
-8.10445e-15
-2.00734e-14
-3.41656e-14
-3.77552e-14
-4.11372e-14
-3.93913e-14
-4.26445e-14
-5.39348e-14
-5.54719e-14
-5.52226e-14
-5.92626e-14
-6.12355e-14
-5.96197e-14
-6.22882e-14
-6.6543e-14
-7.61838e-14
-7.68662e-14
-7.72115e-14
-7.4995e-14
-6.86377e-14
-6.33243e-14
-5.8951e-14
-6.15152e-14
-6.54989e-14
-5.92651e-14
-6.23281e-14
-7.10001e-14
-7.59108e-14
-7.14655e-14
-7.81604e-14
-8.32362e-14
-7.86188e-14
-7.19556e-14
-7.55979e-14
-7.52136e-14
-7.54776e-14
-7.63946e-14
-6.94402e-14
-6.84918e-14
-5.69072e-14
-4.96604e-14
-5.50645e-14
-5.49363e-14
-5.84981e-14
-5.59442e-14
-4.46824e-14
-4.61221e-14
-4.42653e-14
-4.58715e-14
-3.70537e-14
-3.65252e-14
-4.35025e-14
-4.45094e-14
-4.59517e-14
-4.05536e-14
-3.37442e-14
-2.81571e-14
-3.04206e-14
-2.27365e-14
-2.9912e-14
-3.23457e-14
-2.96624e-14
-3.33161e-14
-4.02921e-14
-3.73498e-14
-3.54686e-14
-3.59769e-14
-3.3847e-14
-2.14237e-14
-1.78782e-14
-1.80057e-14
-1.20097e-14
-1.3079e-14
-9.72943e-15
-1.49824e-14
-1.80211e-14
-1.43363e-14
-6.51825e-15
-4.09995e-15
4.43173e-14
4.66928e-14
4.45244e-14
4.23437e-14
4.99989e-14
5.33165e-14
4.98892e-14
4.79959e-14
3.8356e-14
3.70722e-14
3.20471e-14
4.12289e-14
3.94665e-14
3.51706e-14
3.08384e-14
2.32996e-14
2.07516e-14
2.08945e-14
5.88919e-15
-1.49385e-15
-5.30675e-15
-1.00071e-14
-1.83201e-14
-2.75137e-14
-3.64209e-14
-4.44141e-14
-3.98384e-14
-4.15888e-14
-5.31193e-14
-5.25583e-14
-5.42862e-14
-5.99985e-14
-6.18067e-14
-5.5692e-14
-6.10798e-14
-6.33423e-14
-7.74612e-14
-7.65634e-14
-7.72126e-14
-7.17443e-14
-6.57338e-14
-6.30105e-14
-6.31708e-14
-6.04353e-14
-6.57177e-14
-6.8474e-14
-6.90825e-14
-6.79205e-14
-7.70477e-14
-7.07421e-14
-7.51616e-14
-8.57572e-14
-8.23651e-14
-7.9628e-14
-7.84068e-14
-7.34078e-14
-7.21159e-14
-7.8281e-14
-6.87059e-14
-6.34874e-14
-5.67092e-14
-5.6174e-14
-5.72125e-14
-5.39344e-14
-5.47428e-14
-5.29625e-14
-4.73938e-14
-5.05777e-14
-4.91461e-14
-4.63921e-14
-4.09812e-14
-4.22798e-14
-3.88095e-14
-4.46144e-14
-4.41883e-14
-4.29382e-14
-3.41311e-14
-2.87044e-14
-2.85418e-14
-2.234e-14
-2.63442e-14
-2.91258e-14
-2.97095e-14
-3.49479e-14
-3.85969e-14
-3.99731e-14
-3.50118e-14
-3.4252e-14
-2.90638e-14
-1.94342e-14
-1.42116e-14
-1.49393e-14
-1.34539e-14
-8.71515e-15
-1.23177e-14
-1.4918e-14
-1.37452e-14
-1.38449e-14
-8.6682e-15
-6.11092e-15
4.26824e-14
5.23292e-14
4.557e-14
3.86565e-14
4.48057e-14
5.1192e-14
5.28735e-14
4.60344e-14
3.91462e-14
3.73842e-14
4.11373e-14
4.60059e-14
4.07195e-14
3.5532e-14
2.00384e-14
1.93274e-14
1.42551e-14
1.51556e-14
1.36526e-14
8.12724e-15
-7.52902e-15
-1.89952e-14
-3.12564e-14
-3.32798e-14
-3.40232e-14
-3.37731e-14
-3.65222e-14
-4.31301e-14
-5.00996e-14
-5.24883e-14
-5.26075e-14
-5.72076e-14
-5.57425e-14
-5.32999e-14
-5.99258e-14
-6.73095e-14
-7.6322e-14
-7.31635e-14
-7.60333e-14
-7.22124e-14
-6.4864e-14
-6.45107e-14
-6.60983e-14
-6.46996e-14
-6.29318e-14
-7.1158e-14
-7.00422e-14
-6.95836e-14
-7.43516e-14
-7.55612e-14
-8.01536e-14
-8.75374e-14
-8.42665e-14
-8.32353e-14
-8.03645e-14
-7.08915e-14
-7.22329e-14
-7.66946e-14
-6.68502e-14
-6.412e-14
-6.13581e-14
-5.74177e-14
-5.72013e-14
-5.45024e-14
-5.4496e-14
-5.06608e-14
-4.64697e-14
-5.27851e-14
-5.09365e-14
-4.58794e-14
-3.98774e-14
-4.3506e-14
-4.27619e-14
-4.22726e-14
-3.81718e-14
-3.71017e-14
-3.55076e-14
-3.18565e-14
-2.36474e-14
-1.99011e-14
-2.24882e-14
-2.83163e-14
-3.27254e-14
-2.89244e-14
-3.07742e-14
-3.44826e-14
-3.15049e-14
-3.17612e-14
-2.85213e-14
-2.397e-14
-1.4563e-14
-1.23989e-14
-1.59311e-14
-1.12617e-14
-1.24969e-14
-1.31575e-14
-1.47666e-14
-1.31256e-14
-9.21761e-15
-5.60194e-15
4.74202e-14
4.75691e-14
4.46672e-14
3.89538e-14
4.13473e-14
5.5173e-14
4.54109e-14
4.45864e-14
4.12449e-14
3.73164e-14
3.53469e-14
4.32524e-14
4.31997e-14
3.38868e-14
2.21395e-14
1.79571e-14
2.19565e-14
1.39413e-14
2.74007e-15
-1.61518e-15
-1.70105e-14
-1.61742e-14
-1.75174e-14
-1.84086e-14
-3.40357e-14
-4.16963e-14
-3.51616e-14
-4.4183e-14
-5.2393e-14
-4.40431e-14
-4.94428e-14
-5.98712e-14
-6.15604e-14
-5.50112e-14
-6.13702e-14
-7.0064e-14
-7.24353e-14
-7.14456e-14
-6.70089e-14
-7.11482e-14
-6.7578e-14
-6.88552e-14
-6.63047e-14
-6.23172e-14
-6.18182e-14
-6.99692e-14
-7.24993e-14
-7.64249e-14
-7.8294e-14
-7.56031e-14
-7.45165e-14
-7.87008e-14
-8.41347e-14
-8.74095e-14
-8.18322e-14
-7.36719e-14
-8.03396e-14
-7.89736e-14
-6.70988e-14
-6.46136e-14
-5.82983e-14
-5.20103e-14
-5.12872e-14
-5.90375e-14
-5.59141e-14
-5.49322e-14
-5.69613e-14
-5.5167e-14
-4.92535e-14
-4.53927e-14
-4.31997e-14
-4.38425e-14
-3.8617e-14
-3.38473e-14
-3.12002e-14
-3.51975e-14
-3.96199e-14
-3.72609e-14
-2.45473e-14
-2.11641e-14
-2.10803e-14
-2.70796e-14
-2.78929e-14
-2.67086e-14
-3.0873e-14
-3.3451e-14
-2.72288e-14
-2.76649e-14
-2.41506e-14
-2.23138e-14
-1.85676e-14
-1.6597e-14
-1.42635e-14
-1.49006e-14
-1.44415e-14
-1.30648e-14
-1.28523e-14
-1.4883e-14
-5.28491e-15
-5.31701e-15
4.82056e-14
4.33341e-14
4.28101e-14
4.53785e-14
4.33541e-14
5.69471e-14
4.73925e-14
3.80646e-14
4.07754e-14
3.81658e-14
3.63605e-14
3.92568e-14
3.63933e-14
3.11593e-14
2.00162e-14
1.01981e-14
1.55545e-14
1.23185e-14
5.10029e-15
2.43372e-15
-6.26015e-15
-1.24703e-14
-3.19528e-14
-3.16248e-14
-3.30406e-14
-3.60954e-14
-3.92755e-14
-4.3951e-14
-5.09219e-14
-4.82807e-14
-4.81988e-14
-5.47224e-14
-5.65942e-14
-5.7659e-14
-6.22423e-14
-7.24711e-14
-7.17982e-14
-6.85059e-14
-6.17376e-14
-6.78668e-14
-7.26403e-14
-7.46132e-14
-7.41278e-14
-6.22274e-14
-5.33721e-14
-6.2979e-14
-7.36483e-14
-8.17274e-14
-7.98653e-14
-7.69392e-14
-7.31413e-14
-7.90093e-14
-8.83944e-14
-8.56237e-14
-8.2831e-14
-7.226e-14
-7.03541e-14
-7.80513e-14
-7.01047e-14
-6.60651e-14
-5.6585e-14
-5.78391e-14
-5.4701e-14
-5.54473e-14
-5.31767e-14
-4.79207e-14
-5.4811e-14
-5.45557e-14
-4.79909e-14
-4.91159e-14
-4.66975e-14
-3.85263e-14
-3.97292e-14
-4.34048e-14
-3.96825e-14
-3.3594e-14
-3.26687e-14
-2.59003e-14
-2.18766e-14
-2.08392e-14
-1.94281e-14
-2.55525e-14
-2.74919e-14
-2.37876e-14
-3.08387e-14
-2.68473e-14
-2.42723e-14
-2.63259e-14
-2.07015e-14
-2.32236e-14
-1.62923e-14
-1.4017e-14
-1.50638e-14
-1.50705e-14
-1.15333e-14
-1.11438e-14
-1.20544e-14
-1.39362e-14
-8.26505e-15
-6.92958e-15
4.77665e-14
4.67018e-14
4.25913e-14
4.07691e-14
4.46027e-14
5.07497e-14
4.58723e-14
3.95262e-14
3.5377e-14
3.42341e-14
4.26181e-14
3.6912e-14
3.34272e-14
2.75933e-14
2.25737e-14
1.66657e-14
9.75267e-15
2.04563e-15
9.15852e-15
3.67313e-15
-1.10556e-14
-1.91882e-14
-2.56349e-14
-2.97868e-14
-3.01127e-14
-3.77057e-14
-4.22973e-14
-4.33156e-14
-4.31904e-14
-4.91819e-14
-5.36702e-14
-5.28788e-14
-5.60494e-14
-6.55201e-14
-6.03941e-14
-6.82409e-14
-6.91532e-14
-6.62977e-14
-6.8969e-14
-7.5466e-14
-7.10131e-14
-7.33303e-14
-7.35028e-14
-6.39281e-14
-6.27114e-14
-6.36016e-14
-6.65619e-14
-7.91109e-14
-7.59166e-14
-7.40159e-14
-7.66134e-14
-7.81129e-14
-8.69769e-14
-8.4355e-14
-7.94297e-14
-7.1024e-14
-7.15183e-14
-7.66406e-14
-7.68471e-14
-6.36566e-14
-5.6066e-14
-5.96006e-14
-5.62521e-14
-5.67325e-14
-5.90196e-14
-5.84851e-14
-5.70133e-14
-5.18335e-14
-5.03439e-14
-5.41599e-14
-4.98355e-14
-3.90306e-14
-3.30733e-14
-3.46195e-14
-3.64011e-14
-3.4042e-14
-2.77897e-14
-2.34524e-14
-2.22935e-14
-1.90181e-14
-1.81303e-14
-2.10593e-14
-2.57761e-14
-1.98045e-14
-2.21161e-14
-2.67269e-14
-2.54433e-14
-2.13874e-14
-1.59476e-14
-2.11e-14
-1.45951e-14
-1.44746e-14
-2.08392e-14
-1.53236e-14
-1.26084e-14
-8.61159e-15
-9.02921e-15
-1.3715e-14
-5.20405e-15
-7.57114e-15
4.40344e-14
4.7277e-14
5.29972e-14
4.25481e-14
3.99439e-14
4.70209e-14
4.7627e-14
4.44811e-14
2.95655e-14
2.44626e-14
3.6599e-14
3.03417e-14
3.257e-14
3.00088e-14
2.14904e-14
7.48682e-15
7.58983e-15
1.29987e-14
1.37205e-14
4.14656e-15
-1.10659e-14
-1.98769e-14
-2.81454e-14
-3.58428e-14
-3.1816e-14
-3.12701e-14
-3.43686e-14
-4.15247e-14
-4.8142e-14
-4.98764e-14
-5.5577e-14
-5.83119e-14
-5.34183e-14
-5.80725e-14
-6.23928e-14
-6.76148e-14
-7.26313e-14
-6.8151e-14
-6.47002e-14
-7.02086e-14
-7.76654e-14
-7.7457e-14
-7.70977e-14
-6.60992e-14
-6.52456e-14
-5.70533e-14
-6.49786e-14
-7.64928e-14
-7.49195e-14
-7.54904e-14
-8.02025e-14
-7.74893e-14
-8.01245e-14
-8.1706e-14
-7.78089e-14
-6.84979e-14
-7.40638e-14
-7.36734e-14
-7.11159e-14
-7.03998e-14
-5.98212e-14
-4.99827e-14
-4.53863e-14
-5.82363e-14
-6.37792e-14
-6.53514e-14
-6.73402e-14
-5.87177e-14
-5.06067e-14
-4.45565e-14
-4.21774e-14
-3.66442e-14
-3.59977e-14
-3.26023e-14
-3.47204e-14
-3.83745e-14
-2.97609e-14
-1.88569e-14
-1.79794e-14
-2.15748e-14
-2.30219e-14
-1.66371e-14
-1.63211e-14
-1.48279e-14
-1.529e-14
-2.30556e-14
-2.38209e-14
-1.77915e-14
-1.95641e-14
-2.05134e-14
-1.65149e-14
-1.64787e-14
-2.10989e-14
-1.49667e-14
-1.32555e-14
-1.02254e-14
-5.60278e-15
-7.93721e-15
-1.57906e-14
-6.07748e-15
4.62834e-14
4.82523e-14
4.65973e-14
4.28951e-14
4.26272e-14
4.26156e-14
4.28961e-14
3.92684e-14
2.97664e-14
2.85871e-14
3.55516e-14
3.27321e-14
3.447e-14
3.09758e-14
2.46015e-14
1.03784e-14
8.48823e-15
2.34785e-15
6.24382e-15
8.68059e-16
-1.10675e-14
-2.58184e-14
-3.08806e-14
-2.94498e-14
-3.1135e-14
-3.10025e-14
-3.24265e-14
-4.10759e-14
-4.8361e-14
-4.59643e-14
-5.58863e-14
-6.18288e-14
-5.73591e-14
-5.8491e-14
-5.53414e-14
-6.1996e-14
-6.67063e-14
-7.01197e-14
-6.62665e-14
-7.29142e-14
-8.08232e-14
-8.00287e-14
-7.48603e-14
-6.80947e-14
-6.50024e-14
-5.84999e-14
-6.53769e-14
-7.74891e-14
-7.56789e-14
-7.59383e-14
-8.05267e-14
-7.93693e-14
-7.66552e-14
-7.78473e-14
-7.47397e-14
-6.62855e-14
-7.04629e-14
-7.10723e-14
-7.20791e-14
-7.22025e-14
-6.63476e-14
-6.01526e-14
-5.37265e-14
-5.13159e-14
-6.2163e-14
-6.53244e-14
-6.32038e-14
-5.23391e-14
-5.13921e-14
-4.44928e-14
-4.15992e-14
-3.94728e-14
-3.61353e-14
-3.19407e-14
-3.36437e-14
-4.12608e-14
-2.92745e-14
-1.67339e-14
-1.326e-14
-1.99524e-14
-1.38755e-14
-1.52701e-14
-1.48449e-14
-1.17114e-14
-1.65933e-14
-2.43816e-14
-2.19541e-14
-1.62726e-14
-1.83704e-14
-1.66714e-14
-2.25955e-14
-1.50131e-14
-1.95612e-14
-1.73361e-14
-7.29658e-15
-2.40974e-15
-9.03769e-15
-1.71647e-14
-1.28586e-14
-5.87903e-15
5.1334e-14
4.95359e-14
5.10824e-14
4.34051e-14
4.19897e-14
4.15485e-14
4.3337e-14
3.71104e-14
3.52744e-14
2.99199e-14
3.07642e-14
2.88937e-14
2.57373e-14
2.40384e-14
1.89318e-14
8.02492e-15
1.10216e-14
8.23253e-15
7.16876e-15
4.43886e-16
-1.0967e-14
-2.6351e-14
-3.0277e-14
-2.89809e-14
-3.46997e-14
-3.81614e-14
-3.53476e-14
-3.82461e-14
-4.49327e-14
-4.6151e-14
-5.77716e-14
-6.32068e-14
-6.44023e-14
-6.14796e-14
-5.78119e-14
-5.8049e-14
-6.53274e-14
-6.8803e-14
-7.24142e-14
-7.55017e-14
-8.07829e-14
-7.91451e-14
-7.70924e-14
-6.78957e-14
-6.61752e-14
-6.13594e-14
-7.01763e-14
-7.57313e-14
-7.63352e-14
-7.56025e-14
-8.12102e-14
-7.6233e-14
-7.77393e-14
-7.44666e-14
-7.29426e-14
-6.99617e-14
-6.79657e-14
-6.89416e-14
-6.91719e-14
-6.89824e-14
-5.78025e-14
-5.13249e-14
-5.23403e-14
-5.8404e-14
-6.54764e-14
-6.961e-14
-6.29651e-14
-5.63426e-14
-5.19e-14
-4.03333e-14
-4.04688e-14
-3.53868e-14
-3.48072e-14
-2.92051e-14
-3.35491e-14
-4.42412e-14
-3.55496e-14
-1.43342e-14
-8.28522e-15
-1.94395e-14
-2.11911e-14
-1.41535e-14
-9.71975e-15
-8.04149e-15
-1.50171e-14
-2.30174e-14
-2.19706e-14
-1.64243e-14
-1.13551e-14
-1.82244e-14
-2.50603e-14
-9.96054e-15
-1.46634e-14
-1.47495e-14
-8.16648e-15
-5.54255e-15
-1.03334e-14
-8.14969e-15
-1.02674e-14
-4.37689e-15
4.96186e-14
4.8319e-14
4.05072e-14
4.81992e-14
4.74381e-14
4.87891e-14
3.6989e-14
2.59435e-14
2.24931e-14
3.19733e-14
3.52696e-14
4.04511e-14
3.18188e-14
1.60786e-14
1.58595e-14
1.07906e-14
1.09285e-14
6.04879e-15
2.33368e-15
-4.12595e-15
-1.5074e-14
-2.44323e-14
-3.2662e-14
-3.30361e-14
-3.87125e-14
-3.6323e-14
-3.59696e-14
-3.99815e-14
-4.7387e-14
-4.56707e-14
-6.15083e-14
-6.16562e-14
-6.09323e-14
-5.54299e-14
-5.5263e-14
-5.91778e-14
-6.72654e-14
-6.94029e-14
-6.64172e-14
-7.49573e-14
-8.6028e-14
-7.85659e-14
-7.50225e-14
-7.82805e-14
-7.68032e-14
-6.81308e-14
-7.05738e-14
-7.64234e-14
-7.6676e-14
-7.56474e-14
-7.73363e-14
-7.39959e-14
-7.62209e-14
-7.87404e-14
-6.35704e-14
-6.20501e-14
-6.72452e-14
-7.13407e-14
-7.20405e-14
-7.00298e-14
-6.55791e-14
-6.05598e-14
-5.45341e-14
-4.7932e-14
-6.0225e-14
-6.78468e-14
-6.84996e-14
-5.46433e-14
-4.84836e-14
-4.38392e-14
-4.28625e-14
-4.02861e-14
-3.52973e-14
-3.15899e-14
-3.76352e-14
-3.59813e-14
-2.80834e-14
-1.47952e-14
-1.16468e-14
-2.31814e-14
-1.8712e-14
-1.01308e-14
-6.0408e-15
-1.07686e-14
-1.37938e-14
-1.96892e-14
-1.82217e-14
-1.26059e-14
-1.54507e-14
-2.02014e-14
-2.01795e-14
-9.76255e-15
-1.0903e-14
-8.77133e-15
-9.26837e-15
-6.53334e-15
-7.27664e-15
-8.93556e-15
-1.16167e-14
-4.40768e-15
4.47379e-14
5.137e-14
4.4118e-14
4.1583e-14
4.18511e-14
4.3861e-14
4.06485e-14
3.78354e-14
2.88908e-14
1.99106e-14
1.62141e-14
2.75053e-14
3.48693e-14
2.64605e-14
2.03145e-14
1.74008e-14
6.59201e-15
1.41933e-15
-3.43553e-15
-9.5873e-15
-1.70024e-14
-2.73097e-14
-2.57036e-14
-3.12478e-14
-4.56276e-14
-3.2385e-14
-2.88086e-14
-3.92208e-14
-5.33884e-14
-5.46831e-14
-6.04082e-14
-5.77879e-14
-6.00852e-14
-6.41682e-14
-6.28891e-14
-6.29405e-14
-6.19534e-14
-6.67232e-14
-6.59148e-14
-7.38423e-14
-8.27169e-14
-8.02261e-14
-7.6882e-14
-7.86998e-14
-7.75502e-14
-7.72668e-14
-7.46702e-14
-7.37871e-14
-7.8401e-14
-7.62042e-14
-7.25096e-14
-8.17581e-14
-7.9891e-14
-7.60634e-14
-6.36874e-14
-6.50388e-14
-6.1949e-14
-6.23071e-14
-6.18632e-14
-6.53323e-14
-6.7854e-14
-6.84355e-14
-5.51582e-14
-5.07806e-14
-6.0032e-14
-6.62497e-14
-6.30873e-14
-5.35846e-14
-4.84741e-14
-4.79971e-14
-4.00567e-14
-4.13906e-14
-3.65494e-14
-3.00571e-14
-3.23344e-14
-2.8216e-14
-3.07499e-14
-2.51878e-14
-1.78095e-14
-1.35059e-14
-1.37803e-14
-1.39706e-14
-1.05735e-14
-9.51651e-15
-1.6985e-14
-1.91513e-14
-1.38347e-14
-8.32385e-15
-1.32641e-14
-1.45917e-14
-1.38159e-14
-6.27546e-15
-6.48513e-15
-7.58879e-15
-9.73769e-15
-1.58087e-14
-7.11846e-15
-6.00379e-15
-9.49307e-15
-5.28843e-15
4.39965e-14
4.53653e-14
4.75217e-14
4.05625e-14
4.302e-14
4.63315e-14
3.91615e-14
3.26435e-14
2.80124e-14
2.1685e-14
1.93907e-14
2.60923e-14
2.90949e-14
2.72553e-14
2.4512e-14
1.54531e-14
6.08935e-15
3.08372e-16
-7.58836e-15
-1.27466e-14
-2.29928e-14
-3.39146e-14
-3.37734e-14
-3.25475e-14
-3.76301e-14
-2.8992e-14
-2.95027e-14
-4.57504e-14
-5.52203e-14
-5.08116e-14
-5.4768e-14
-5.42088e-14
-6.13692e-14
-6.15846e-14
-5.99146e-14
-6.53491e-14
-6.57501e-14
-6.50594e-14
-6.63215e-14
-7.21358e-14
-8.16703e-14
-8.20117e-14
-8.35381e-14
-7.9885e-14
-7.74747e-14
-8.39027e-14
-7.92402e-14
-7.76803e-14
-7.83943e-14
-7.41429e-14
-6.80744e-14
-7.37059e-14
-8.10589e-14
-8.09369e-14
-6.79204e-14
-6.32139e-14
-6.60024e-14
-6.30396e-14
-6.32474e-14
-6.54439e-14
-6.59725e-14
-6.64871e-14
-5.10408e-14
-5.42382e-14
-6.37497e-14
-6.49778e-14
-5.99584e-14
-5.18424e-14
-5.1329e-14
-5.13665e-14
-4.26187e-14
-3.99564e-14
-3.55603e-14
-3.40408e-14
-3.40524e-14
-3.28687e-14
-3.03987e-14
-2.42456e-14
-1.50142e-14
-9.99136e-15
-6.92025e-15
-8.77151e-15
-1.03326e-14
-1.48098e-14
-1.47976e-14
-1.31571e-14
-1.92685e-14
-9.74648e-15
-1.24793e-14
-1.30791e-14
-8.22587e-15
-3.27041e-15
-6.5012e-15
-7.14814e-15
-6.15369e-15
-1.34388e-14
-1.14368e-14
-1.2969e-14
-1.1479e-15
-1.86498e-15
3.86398e-14
4.43107e-14
3.94733e-14
4.68745e-14
4.39018e-14
4.92941e-14
4.25707e-14
2.8934e-14
1.75857e-14
1.03141e-14
1.38715e-14
2.63217e-14
3.27199e-14
2.88809e-14
1.74861e-14
1.4183e-14
2.76962e-15
-7.71135e-15
-9.15172e-15
-1.00808e-14
-2.03946e-14
-2.47552e-14
-4.31061e-14
-4.9786e-14
-3.58638e-14
-2.31666e-14
-2.59377e-14
-4.10356e-14
-4.93472e-14
-5.56143e-14
-5.36531e-14
-5.65012e-14
-6.06746e-14
-6.789e-14
-7.28665e-14
-6.52539e-14
-6.83451e-14
-6.86833e-14
-6.88347e-14
-7.6608e-14
-8.46106e-14
-8.51242e-14
-7.81004e-14
-7.72634e-14
-7.8632e-14
-8.1968e-14
-7.81171e-14
-7.17173e-14
-7.74228e-14
-8.25793e-14
-7.81431e-14
-8.14311e-14
-7.68561e-14
-7.75497e-14
-6.79896e-14
-6.51349e-14
-6.62689e-14
-6.02467e-14
-6.11518e-14
-6.37747e-14
-6.17126e-14
-6.55384e-14
-5.76076e-14
-5.55723e-14
-5.84571e-14
-6.25514e-14
-5.95172e-14
-5.27528e-14
-5.3918e-14
-5.083e-14
-4.42705e-14
-3.78839e-14
-3.50142e-14
-3.55843e-14
-3.09039e-14
-3.71623e-14
-3.18637e-14
-2.64461e-14
-1.67286e-14
-1.02925e-14
-5.73703e-15
-1.06893e-14
-9.72958e-15
-9.64964e-15
-7.31464e-15
-1.50673e-14
-1.74319e-14
-9.26023e-15
-7.37883e-15
-1.26571e-14
-1.00936e-14
-4.87421e-15
-9.79373e-15
-6.27675e-15
-8.40039e-15
-5.39017e-15
-1.40719e-14
-1.36583e-14
-4.37598e-15
-4.71701e-15
4.56876e-14
4.2906e-14
3.7713e-14
3.83448e-14
3.72682e-14
3.54855e-14
3.44307e-14
3.06076e-14
2.70025e-14
2.16001e-14
2.06122e-14
2.07255e-14
1.77156e-14
1.63868e-14
1.36972e-14
1.78819e-14
6.54524e-15
-2.36824e-15
-8.68535e-15
-1.51511e-14
-2.91916e-14
-3.03609e-14
-3.58551e-14
-4.02428e-14
-4.32998e-14
-3.54664e-14
-2.95517e-14
-4.24923e-14
-4.77251e-14
-4.72088e-14
-5.25323e-14
-5.78214e-14
-6.64976e-14
-6.80079e-14
-6.32885e-14
-6.69783e-14
-6.50445e-14
-7.37418e-14
-7.82586e-14
-8.00971e-14
-8.17448e-14
-8.66409e-14
-7.39644e-14
-7.00411e-14
-7.49478e-14
-9.01936e-14
-9.28675e-14
-7.47889e-14
-7.97236e-14
-8.31857e-14
-7.63936e-14
-7.7694e-14
-7.95189e-14
-7.24609e-14
-7.28255e-14
-6.74976e-14
-6.41019e-14
-6.06928e-14
-6.33005e-14
-6.0393e-14
-6.30053e-14
-6.34715e-14
-6.09562e-14
-5.85081e-14
-5.99448e-14
-6.35652e-14
-6.22599e-14
-5.83498e-14
-5.32262e-14
-4.73472e-14
-4.23734e-14
-3.30875e-14
-4.00724e-14
-3.88267e-14
-3.00867e-14
-3.28786e-14
-3.11037e-14
-2.10497e-14
-1.71662e-14
-1.40964e-14
-5.04565e-15
-9.94916e-15
-1.36636e-14
-6.82021e-15
-8.9595e-15
-1.00065e-14
-1.39767e-14
-7.95868e-15
-1.00411e-14
-1.11079e-14
-9.20457e-15
-9.78198e-15
-1.00382e-14
-6.77196e-15
-7.59267e-15
-4.4584e-15
-1.12686e-14
-9.61455e-15
-6.3591e-15
-5.11626e-15
4.26325e-14
4.22069e-14
3.75071e-14
3.80735e-14
3.70897e-14
3.46157e-14
3.33863e-14
2.82063e-14
2.50917e-14
1.27771e-14
8.5116e-15
1.95333e-14
1.78744e-14
1.14915e-14
1.79275e-14
1.53697e-14
1.80574e-15
-4.01451e-15
-9.09074e-15
-1.21626e-14
-2.88441e-14
-3.42533e-14
-3.95868e-14
-3.56474e-14
-3.63688e-14
-3.62469e-14
-3.748e-14
-3.86165e-14
-3.76586e-14
-4.27382e-14
-5.10224e-14
-5.75308e-14
-7.29456e-14
-7.34834e-14
-7.02418e-14
-6.92195e-14
-6.5258e-14
-7.16994e-14
-7.92738e-14
-8.10815e-14
-8.22603e-14
-8.21936e-14
-7.44974e-14
-8.05851e-14
-8.09178e-14
-8.7029e-14
-8.12685e-14
-7.76658e-14
-7.92704e-14
-8.10652e-14
-7.7095e-14
-8.74189e-14
-8.09599e-14
-7.17112e-14
-6.1511e-14
-6.66323e-14
-6.88992e-14
-7.58637e-14
-6.76875e-14
-5.78973e-14
-6.18449e-14
-6.8848e-14
-6.33444e-14
-5.73133e-14
-6.01495e-14
-6.03332e-14
-6.17309e-14
-6.09869e-14
-5.37326e-14
-4.45525e-14
-3.81135e-14
-3.793e-14
-3.53047e-14
-4.13421e-14
-3.09954e-14
-3.31069e-14
-2.96691e-14
-2.50762e-14
-1.87117e-14
-1.70589e-14
-7.88331e-15
-1.00944e-14
-1.53632e-14
-8.62591e-15
-4.94866e-15
-8.82373e-15
-1.02773e-14
-6.82277e-15
-5.06442e-15
-4.81422e-15
-7.89626e-15
-1.46176e-14
-1.31209e-14
-1.11712e-14
-1.10371e-14
-3.1089e-15
-8.94054e-15
-1.02632e-14
-7.48339e-15
-6.50335e-15
3.98085e-14
4.20978e-14
4.06417e-14
3.79155e-14
3.72134e-14
3.16312e-14
2.94384e-14
2.56383e-14
2.11575e-14
1.54807e-14
9.79772e-15
1.53314e-14
1.50896e-14
1.27117e-14
1.39981e-14
9.86535e-15
-4.77058e-17
-9.11901e-15
-1.02125e-14
-9.24868e-15
-2.41131e-14
-3.4502e-14
-3.86101e-14
-4.52465e-14
-3.9479e-14
-3.74507e-14
-3.16915e-14
-3.36589e-14
-3.84617e-14
-4.46548e-14
-5.51e-14
-6.14389e-14
-6.8279e-14
-6.69778e-14
-6.72444e-14
-7.16641e-14
-7.09293e-14
-7.67204e-14
-8.80357e-14
-9.15095e-14
-8.81557e-14
-8.24573e-14
-6.93117e-14
-7.46814e-14
-8.47119e-14
-9.07774e-14
-8.16225e-14
-7.3895e-14
-7.56287e-14
-8.95485e-14
-8.93872e-14
-7.93239e-14
-7.51523e-14
-7.52604e-14
-6.94817e-14
-6.63784e-14
-6.52098e-14
-6.50811e-14
-6.69063e-14
-6.47018e-14
-6.48982e-14
-6.42597e-14
-6.13693e-14
-6.47686e-14
-6.58297e-14
-6.54658e-14
-6.45891e-14
-5.31576e-14
-5.17245e-14
-4.78253e-14
-4.25932e-14
-3.44222e-14
-2.99945e-14
-3.47972e-14
-3.07041e-14
-3.22231e-14
-3.0126e-14
-2.42881e-14
-2.39625e-14
-1.90541e-14
-1.30773e-14
-9.30921e-15
-1.53732e-14
-2.82776e-15
-2.49448e-15
-1.28434e-14
-1.07225e-14
-4.56634e-15
-7.13801e-15
-5.13816e-15
-1.44592e-14
-8.92721e-15
-1.36616e-14
-7.15316e-15
-5.86921e-15
-6.23973e-15
-9.51469e-15
-1.18451e-14
-1.03338e-14
-2.78234e-15
4.34837e-14
4.49568e-14
3.61895e-14
3.51375e-14
3.12819e-14
2.81397e-14
2.17728e-14
2.67105e-14
2.43692e-14
1.71165e-14
4.8714e-15
8.3904e-15
1.06259e-14
1.13684e-14
1.14709e-14
5.28012e-15
-3.69858e-15
-7.85158e-15
-1.10075e-14
-1.14953e-14
-2.15056e-14
-3.26511e-14
-2.97283e-14
-3.64265e-14
-4.19685e-14
-4.18028e-14
-3.67499e-14
-3.10005e-14
-3.93951e-14
-4.83045e-14
-4.67008e-14
-6.07278e-14
-7.01664e-14
-7.21382e-14
-6.93119e-14
-7.22888e-14
-7.54143e-14
-8.83289e-14
-8.96403e-14
-8.51714e-14
-8.59161e-14
-8.59342e-14
-7.35733e-14
-8.00383e-14
-8.62675e-14
-8.80572e-14
-8.31339e-14
-8.0778e-14
-8.11927e-14
-8.74678e-14
-8.57293e-14
-8.20904e-14
-7.89583e-14
-7.23677e-14
-6.98221e-14
-7.02522e-14
-7.22128e-14
-6.98708e-14
-6.72715e-14
-6.41598e-14
-6.05739e-14
-6.22282e-14
-6.96902e-14
-6.80333e-14
-6.85229e-14
-6.10524e-14
-6.41754e-14
-5.69806e-14
-4.84674e-14
-4.71236e-14
-4.11743e-14
-3.21338e-14
-2.64629e-14
-3.24059e-14
-3.70436e-14
-2.97843e-14
-3.47488e-14
-3.18194e-14
-2.13836e-14
-1.88409e-14
-1.64089e-14
-9.343e-15
-1.6261e-14
-3.39632e-15
2.48404e-17
-4.41451e-15
-1.02648e-14
-4.91562e-15
-5.31289e-15
-1.07565e-14
-1.71535e-14
-9.57649e-15
-6.96473e-15
-1.55438e-15
-8.1888e-15
-9.85747e-15
-1.10255e-14
-8.96807e-15
-8.07835e-15
-1.83703e-15
5.02298e-14
4.35968e-14
3.55572e-14
3.60311e-14
2.57704e-14
2.38392e-14
2.27528e-14
2.59126e-14
2.25126e-14
1.02635e-14
2.67914e-15
8.46403e-15
8.11427e-15
6.96294e-15
6.22891e-15
6.53562e-15
3.0146e-15
-5.71744e-15
-1.62127e-14
-2.02389e-14
-1.96265e-14
-2.91329e-14
-3.77444e-14
-4.22698e-14
-3.85233e-14
-3.71437e-14
-3.60207e-14
-3.70941e-14
-3.92338e-14
-4.19898e-14
-4.61089e-14
-5.96229e-14
-7.19949e-14
-7.71799e-14
-7.23177e-14
-7.54192e-14
-7.32711e-14
-8.31038e-14
-9.17674e-14
-9.41573e-14
-8.69174e-14
-8.56335e-14
-7.91532e-14
-8.30221e-14
-8.9624e-14
-9.20727e-14
-8.67567e-14
-8.35612e-14
-9.0341e-14
-8.81508e-14
-8.75264e-14
-8.41311e-14
-7.77301e-14
-7.34958e-14
-6.52942e-14
-6.82538e-14
-7.46207e-14
-7.74534e-14
-7.18945e-14
-5.8298e-14
-5.41146e-14
-6.63664e-14
-7.60301e-14
-7.27701e-14
-6.31618e-14
-6.34582e-14
-6.50477e-14
-5.64023e-14
-5.69958e-14
-3.83264e-14
-4.19017e-14
-3.73386e-14
-3.47911e-14
-2.86004e-14
-3.45672e-14
-3.22394e-14
-3.08428e-14
-2.40218e-14
-2.3231e-14
-2.41615e-14
-2.01288e-14
-9.22448e-15
-1.22089e-14
-6.84725e-15
-7.56413e-15
-1.22777e-14
-6.88758e-15
-5.70706e-15
-2.59459e-15
-5.94207e-15
-8.85511e-15
-1.72178e-14
-9.78747e-15
-2.65833e-15
-6.32705e-15
-9.19832e-15
-1.08219e-14
-9.29287e-15
-7.38038e-16
5.12312e-16
4.89658e-14
4.23366e-14
3.54509e-14
3.24274e-14
2.5021e-14
2.52403e-14
2.17032e-14
2.45739e-14
2.26551e-14
1.46165e-14
2.75359e-15
2.63502e-15
4.03117e-15
5.52961e-15
1.21621e-15
-2.37359e-17
-4.59154e-15
-4.36065e-15
-1.02299e-14
-1.09023e-14
-2.02338e-14
-2.77705e-14
-3.48966e-14
-3.44651e-14
-3.205e-14
-3.07858e-14
-3.86175e-14
-4.77161e-14
-5.0344e-14
-4.49013e-14
-5.57633e-14
-5.72102e-14
-6.06347e-14
-6.99277e-14
-6.89576e-14
-8.0222e-14
-8.60094e-14
-8.91014e-14
-9.63987e-14
-9.45217e-14
-8.09522e-14
-8.12735e-14
-8.35957e-14
-8.77727e-14
-9.1174e-14
-9.93643e-14
-8.5543e-14
-8.4754e-14
-9.53475e-14
-9.69037e-14
-8.52085e-14
-7.99676e-14
-7.60956e-14
-7.87304e-14
-6.93421e-14
-7.20692e-14
-7.77509e-14
-7.10644e-14
-7.09633e-14
-6.17725e-14
-6.07831e-14
-7.01042e-14
-7.89873e-14
-7.13635e-14
-5.55497e-14
-6.11557e-14
-6.78609e-14
-6.2794e-14
-6.01087e-14
-4.06701e-14
-3.74479e-14
-3.69656e-14
-3.28916e-14
-3.14122e-14
-3.88184e-14
-3.82444e-14
-3.35882e-14
-2.43855e-14
-2.38038e-14
-1.70823e-14
-1.54673e-14
-1.28784e-14
-1.85165e-14
-1.22918e-14
-4.65804e-15
-4.01953e-15
-6.77168e-15
-8.71812e-15
-8.96369e-15
-9.2235e-15
-8.73026e-15
-1.15414e-14
-6.68803e-15
-7.04795e-15
-1.95729e-15
-9.29156e-15
-9.44116e-15
-1.08976e-14
-1.13984e-14
-3.64375e-15
4.35609e-14
4.33908e-14
4.1089e-14
3.17207e-14
2.56698e-14
2.78811e-14
1.96826e-14
1.25147e-14
1.53793e-14
1.1228e-14
4.64004e-15
7.45067e-15
1.0998e-15
2.73127e-15
2.41127e-15
2.69087e-15
3.33005e-15
2.91393e-15
-7.30349e-15
-1.39156e-14
-3.07309e-14
-3.3985e-14
-3.16097e-14
-3.30202e-14
-4.04786e-14
-3.73295e-14
-3.57468e-14
-4.31851e-14
-4.62447e-14
-4.26319e-14
-4.98897e-14
-6.50597e-14
-6.76083e-14
-7.4407e-14
-7.33491e-14
-7.95283e-14
-8.6893e-14
-8.72071e-14
-9.64919e-14
-9.19232e-14
-8.72098e-14
-8.54924e-14
-9.28786e-14
-9.23093e-14
-8.82967e-14
-9.41947e-14
-9.33252e-14
-9.3791e-14
-9.2142e-14
-8.88159e-14
-8.4291e-14
-8.02919e-14
-7.95454e-14
-8.24133e-14
-7.4047e-14
-7.47452e-14
-7.48074e-14
-7.15058e-14
-6.69413e-14
-6.34504e-14
-6.52824e-14
-7.07428e-14
-7.50025e-14
-7.17247e-14
-6.43413e-14
-6.52942e-14
-6.15011e-14
-6.07266e-14
-5.99939e-14
-4.78555e-14
-3.56714e-14
-4.14884e-14
-3.89274e-14
-3.63292e-14
-3.74162e-14
-4.11974e-14
-3.5573e-14
-1.84347e-14
-1.72231e-14
-1.92649e-14
-2.15774e-14
-1.37983e-14
-1.64515e-14
-1.13797e-14
-7.28425e-15
-6.22604e-15
-1.31492e-14
-1.07662e-14
-1.35739e-14
-1.00544e-14
-6.561e-15
-1.28291e-14
-9.29287e-15