/*--------------------------------*- C++ -*----------------------------------*\
| =========                 |                                                 |
| \\      /  F ield         | OpenFOAM: The Open Source CFD Toolbox           |
|  \\    /   O peration     | Version:  v2012                                 |
|   \\  /    A nd           | Website:  www.openfoam.com                      |
|    \\/     M anipulation  |                                                 |
\*---------------------------------------------------------------------------*/
FoamFile
{
    version     2.0;
    format      ascii;
    class       volVectorField;
    location    "7.5";
    object      U;
}
// * * * * * * * * * * * * * * * * * * * * * * * * * * * * * * * * * * * * * //

dimensions      [0 1 -1 0 0 0 0];


internalField   nonuniform List<vector> 
65536
(
(0.000757386 -0.000757381 0)
(0.00227215 -0.000757372 0)
(0.00378688 -0.000757352 0)
(0.00530157 -0.000757324 0)
(0.00681619 -0.000757284 0)
(0.00833072 -0.000757234 0)
(0.00984513 -0.000757172 0)
(0.0113594 -0.000757097 0)
(0.0128735 -0.000757008 0)
(0.0143875 -0.000756904 0)
(0.0159012 -0.000756784 0)
(0.0174146 -0.000756645 0)
(0.0189278 -0.000756486 0)
(0.0204406 -0.000756305 0)
(0.021953 -0.000756101 0)
(0.023465 -0.00075587 0)
(0.0249765 -0.00075561 0)
(0.0264875 -0.00075532 0)
(0.0279978 -0.000754995 0)
(0.0295075 -0.000754635 0)
(0.0310164 -0.000754234 0)
(0.0325245 -0.000753791 0)
(0.0340316 -0.000753302 0)
(0.0355377 -0.000752764 0)
(0.0370427 -0.000752172 0)
(0.0385465 -0.000751525 0)
(0.0400489 -0.000750817 0)
(0.0415498 -0.000750044 0)
(0.0430491 -0.000749204 0)
(0.0445467 -0.000748291 0)
(0.0460424 -0.000747301 0)
(0.047536 -0.00074623 0)
(0.0490274 -0.000745074 0)
(0.0505164 -0.000743827 0)
(0.0520028 -0.000742486 0)
(0.0534864 -0.000741044 0)
(0.0549671 -0.000739499 0)
(0.0564445 -0.000737844 0)
(0.0579185 -0.000736074 0)
(0.0593889 -0.000734185 0)
(0.0608554 -0.000732172 0)
(0.0623177 -0.000730029 0)
(0.0637757 -0.000727751 0)
(0.0652289 -0.000725333 0)
(0.0666771 -0.00072277 0)
(0.0681201 -0.000720056 0)
(0.0695575 -0.000717187 0)
(0.070989 -0.000714158 0)
(0.0724143 -0.000710962 0)
(0.073833 -0.000707596 0)
(0.0752449 -0.000704054 0)
(0.0766494 -0.000700331 0)
(0.0780464 -0.000696422 0)
(0.0794353 -0.000692323 0)
(0.0808159 -0.000688029 0)
(0.0821876 -0.000683535 0)
(0.0835502 -0.000678838 0)
(0.0849032 -0.000673932 0)
(0.0862461 -0.000668814 0)
(0.0875787 -0.00066348 0)
(0.0889003 -0.000657927 0)
(0.0902106 -0.00065215 0)
(0.0915091 -0.000646147 0)
(0.0927954 -0.000639914 0)
(0.094069 -0.00063345 0)
(0.0953294 -0.00062675 0)
(0.0965762 -0.000619815 0)
(0.0978089 -0.00061264 0)
(0.099027 -0.000605225 0)
(0.10023 -0.000597569 0)
(0.101418 -0.00058967 0)
(0.102589 -0.000581529 0)
(0.103744 -0.000573144 0)
(0.104882 -0.000564516 0)
(0.106002 -0.000555645 0)
(0.107105 -0.000546532 0)
(0.108189 -0.000537178 0)
(0.109254 -0.000527586 0)
(0.110299 -0.000517756 0)
(0.111325 -0.000507692 0)
(0.11233 -0.000497395 0)
(0.113315 -0.00048687 0)
(0.114278 -0.00047612 0)
(0.115219 -0.000465148 0)
(0.116139 -0.000453959 0)
(0.117035 -0.000442558 0)
(0.117909 -0.00043095 0)
(0.118759 -0.00041914 0)
(0.119586 -0.000407134 0)
(0.120388 -0.000394939 0)
(0.121166 -0.00038256 0)
(0.121919 -0.000370005 0)
(0.122646 -0.00035728 0)
(0.123348 -0.000344394 0)
(0.124024 -0.000331354 0)
(0.124673 -0.000318168 0)
(0.125297 -0.000304844 0)
(0.125893 -0.000291392 0)
(0.126462 -0.000277819 0)
(0.127004 -0.000264134 0)
(0.127519 -0.000250348 0)
(0.128006 -0.000236468 0)
(0.128465 -0.000222505 0)
(0.128896 -0.000208468 0)
(0.129299 -0.000194367 0)
(0.129673 -0.000180212 0)
(0.13002 -0.000166012 0)
(0.130337 -0.000151777 0)
(0.130627 -0.000137518 0)
(0.130888 -0.000123243 0)
(0.13112 -0.000108963 0)
(0.131323 -9.46874e-05 0)
(0.131498 -8.04263e-05 0)
(0.131645 -6.61889e-05 0)
(0.131763 -5.1985e-05 0)
(0.131853 -3.78237e-05 0)
(0.131914 -2.37143e-05 0)
(0.131948 -9.66598e-06 0)
(0.131953 4.31255e-06 0)
(0.13193 1.82126e-05 0)
(0.13188 3.20257e-05 0)
(0.131802 4.57436e-05 0)
(0.131697 5.93583e-05 0)
(0.131565 7.28622e-05 0)
(0.131405 8.62477e-05 0)
(0.13122 9.95077e-05 0)
(0.131007 0.000112635 0)
(0.130769 0.000125624 0)
(0.130505 0.000138467 0)
(0.130215 0.000151159 0)
(0.1299 0.000163694 0)
(0.12956 0.000176066 0)
(0.129195 0.000188271 0)
(0.128807 0.000200304 0)
(0.128394 0.00021216 0)
(0.127958 0.000223835 0)
(0.127499 0.000235326 0)
(0.127016 0.000246629 0)
(0.126512 0.000257741 0)
(0.125985 0.000268659 0)
(0.125437 0.00027938 0)
(0.124867 0.000289902 0)
(0.124277 0.000300224 0)
(0.123666 0.000310344 0)
(0.123036 0.000320259 0)
(0.122385 0.000329971 0)
(0.121716 0.000339476 0)
(0.121027 0.000348775 0)
(0.12032 0.000357869 0)
(0.119595 0.000366755 0)
(0.118853 0.000375436 0)
(0.118093 0.00038391 0)
(0.117317 0.000392179 0)
(0.116524 0.000400245 0)
(0.115716 0.000408106 0)
(0.114892 0.000415766 0)
(0.114053 0.000423225 0)
(0.113199 0.000430485 0)
(0.112331 0.000437548 0)
(0.111448 0.000444416 0)
(0.110553 0.00045109 0)
(0.109644 0.000457573 0)
(0.108722 0.000463867 0)
(0.107788 0.000469975 0)
(0.106842 0.0004759 0)
(0.105884 0.000481643 0)
(0.104915 0.000487207 0)
(0.103935 0.000492596 0)
(0.102945 0.000497813 0)
(0.101944 0.000502859 0)
(0.100933 0.000507739 0)
(0.0999129 0.000512455 0)
(0.0988832 0.000517011 0)
(0.0978447 0.000521409 0)
(0.0967974 0.000525653 0)
(0.0957419 0.000529746 0)
(0.0946783 0.000533691 0)
(0.093607 0.000537492 0)
(0.0925282 0.000541152 0)
(0.0914422 0.000544673 0)
(0.0903494 0.000548061 0)
(0.0892499 0.000551316 0)
(0.088144 0.000554444 0)
(0.087032 0.000557447 0)
(0.0859141 0.000560328 0)
(0.0847905 0.000563091 0)
(0.0836616 0.000565739 0)
(0.0825275 0.000568274 0)
(0.0813884 0.000570701 0)
(0.0802446 0.000573023 0)
(0.0790962 0.000575242 0)
(0.0779435 0.000577361 0)
(0.0767867 0.000579383 0)
(0.0756259 0.000581313 0)
(0.0744613 0.000583151 0)
(0.0732932 0.000584902 0)
(0.0721216 0.000586569 0)
(0.0709468 0.000588153 0)
(0.0697689 0.000589658 0)
(0.0685881 0.000591087 0)
(0.0674045 0.000592442 0)
(0.0662183 0.000593725 0)
(0.0650296 0.000594941 0)
(0.0638385 0.00059609 0)
(0.0626451 0.000597176 0)
(0.0614497 0.0005982 0)
(0.0602523 0.000599166 0)
(0.059053 0.000600076 0)
(0.0578519 0.000600932 0)
(0.0566492 0.000601736 0)
(0.0554449 0.00060249 0)
(0.0542392 0.000603197 0)
(0.0530321 0.000603858 0)
(0.0518237 0.000604477 0)
(0.0506141 0.000605053 0)
(0.0494035 0.000605591 0)
(0.0481917 0.000606091 0)
(0.0469791 0.000606555 0)
(0.0457655 0.000606986 0)
(0.0445511 0.000607384 0)
(0.0433359 0.000607752 0)
(0.0421201 0.000608091 0)
(0.0409035 0.000608403 0)
(0.0396864 0.000608689 0)
(0.0384688 0.000608951 0)
(0.0372506 0.000609191 0)
(0.036032 0.000609409 0)
(0.0348129 0.000609607 0)
(0.0335935 0.000609786 0)
(0.0323738 0.000609949 0)
(0.0311537 0.000610095 0)
(0.0299334 0.000610225 0)
(0.0287128 0.000610342 0)
(0.027492 0.000610447 0)
(0.026271 0.000610539 0)
(0.0250498 0.00061062 0)
(0.0238285 0.000610692 0)
(0.0226071 0.000610755 0)
(0.0213855 0.000610809 0)
(0.0201638 0.000610856 0)
(0.0189421 0.000610896 0)
(0.0177202 0.000610931 0)
(0.0164983 0.00061096 0)
(0.0152764 0.000610985 0)
(0.0140544 0.000611005 0)
(0.0128324 0.000611022 0)
(0.0116103 0.000611036 0)
(0.0103882 0.000611047 0)
(0.0091661 0.000611056 0)
(0.00794398 0.000611063 0)
(0.00672185 0.000611069 0)
(0.0054997 0.000611073 0)
(0.00427755 0.000611076 0)
(0.0030554 0.000611078 0)
(0.00183324 0.000611079 0)
(0.00061108 0.00061108 0)
(0.000757395 -0.00227215 0)
(0.00227218 -0.00227212 0)
(0.00378693 -0.00227207 0)
(0.00530163 -0.00227198 0)
(0.00681627 -0.00227186 0)
(0.00833083 -0.00227171 0)
(0.00984527 -0.00227153 0)
(0.0113596 -0.0022713 0)
(0.0128737 -0.00227104 0)
(0.0143877 -0.00227073 0)
(0.0159014 -0.00227037 0)
(0.0174149 -0.00226995 0)
(0.0189281 -0.00226948 0)
(0.020441 -0.00226894 0)
(0.0219534 -0.00226833 0)
(0.0234655 -0.00226764 0)
(0.0249771 -0.00226686 0)
(0.0264881 -0.00226599 0)
(0.0279985 -0.00226502 0)
(0.0295083 -0.00226394 0)
(0.0310172 -0.00226274 0)
(0.0325254 -0.00226142 0)
(0.0340326 -0.00225995 0)
(0.0355389 -0.00225834 0)
(0.037044 -0.00225657 0)
(0.0385478 -0.00225463 0)
(0.0400504 -0.00225251 0)
(0.0415514 -0.0022502 0)
(0.0430509 -0.00224768 0)
(0.0445486 -0.00224495 0)
(0.0460444 -0.00224198 0)
(0.0475382 -0.00223878 0)
(0.0490298 -0.00223531 0)
(0.0505189 -0.00223158 0)
(0.0520055 -0.00222756 0)
(0.0534894 -0.00222324 0)
(0.0549702 -0.0022186 0)
(0.0564479 -0.00221364 0)
(0.0579222 -0.00220834 0)
(0.0593928 -0.00220268 0)
(0.0608596 -0.00219664 0)
(0.0623221 -0.00219022 0)
(0.0637803 -0.00218339 0)
(0.0652339 -0.00217614 0)
(0.0666824 -0.00216846 0)
(0.0681257 -0.00216032 0)
(0.0695634 -0.00215172 0)
(0.0709952 -0.00214264 0)
(0.0724209 -0.00213306 0)
(0.0738399 -0.00212296 0)
(0.0752521 -0.00211234 0)
(0.076657 -0.00210118 0)
(0.0780544 -0.00208946 0)
(0.0794437 -0.00207716 0)
(0.0808246 -0.00206428 0)
(0.0821968 -0.00205081 0)
(0.0835598 -0.00203672 0)
(0.0849132 -0.00202201 0)
(0.0862566 -0.00200666 0)
(0.0875895 -0.00199066 0)
(0.0889116 -0.001974 0)
(0.0902223 -0.00195667 0)
(0.0915213 -0.00193867 0)
(0.0928081 -0.00191997 0)
(0.0940821 -0.00190058 0)
(0.095343 -0.00188049 0)
(0.0965903 -0.00185968 0)
(0.0978235 -0.00183816 0)
(0.0990421 -0.00181592 0)
(0.100246 -0.00179295 0)
(0.101434 -0.00176925 0)
(0.102605 -0.00174483 0)
(0.103761 -0.00171967 0)
(0.104899 -0.00169379 0)
(0.10602 -0.00166717 0)
(0.107123 -0.00163984 0)
(0.108207 -0.00161177 0)
(0.109273 -0.00158299 0)
(0.110319 -0.0015535 0)
(0.111345 -0.00152331 0)
(0.112351 -0.00149241 0)
(0.113336 -0.00146084 0)
(0.1143 -0.00142858 0)
(0.115241 -0.00139566 0)
(0.116161 -0.00136209 0)
(0.117058 -0.00132788 0)
(0.117932 -0.00129305 0)
(0.118783 -0.00125762 0)
(0.11961 -0.00122159 0)
(0.120413 -0.001185 0)
(0.121191 -0.00114786 0)
(0.121944 -0.00111018 0)
(0.122672 -0.001072 0)
(0.123374 -0.00103334 0)
(0.12405 -0.000994208 0)
(0.1247 -0.000954641 0)
(0.125323 -0.000914662 0)
(0.12592 -0.000874295 0)
(0.126489 -0.000833567 0)
(0.127032 -0.000792504 0)
(0.127546 -0.000751135 0)
(0.128034 -0.000709487 0)
(0.128493 -0.000667589 0)
(0.128924 -0.000625469 0)
(0.129327 -0.000583156 0)
(0.129702 -0.00054068 0)
(0.130048 -0.00049807 0)
(0.130366 -0.000455356 0)
(0.130655 -0.000412567 0)
(0.130916 -0.000369733 0)
(0.131148 -0.000326884 0)
(0.131352 -0.000284048 0)
(0.131527 -0.000241255 0)
(0.131673 -0.000198533 0)
(0.131792 -0.000155912 0)
(0.131881 -0.000113419 0)
(0.131943 -7.1082e-05 0)
(0.131976 -2.89281e-05 0)
(0.131981 1.30161e-05 0)
(0.131958 5.47246e-05 0)
(0.131908 9.6172e-05 0)
(0.13183 0.000137334 0)
(0.131724 0.000178186 0)
(0.131592 0.000218705 0)
(0.131432 0.000258868 0)
(0.131246 0.000298655 0)
(0.131033 0.000338045 0)
(0.130795 0.000377016 0)
(0.13053 0.000415552 0)
(0.13024 0.000453633 0)
(0.129925 0.000491243 0)
(0.129584 0.000528366 0)
(0.12922 0.000564985 0)
(0.128831 0.000601088 0)
(0.128418 0.00063666 0)
(0.127981 0.00067169 0)
(0.127521 0.000706166 0)
(0.127039 0.000740078 0)
(0.126534 0.000773416 0)
(0.126007 0.000806171 0)
(0.125458 0.000838337 0)
(0.124888 0.000869907 0)
(0.124298 0.000900874 0)
(0.123686 0.000931234 0)
(0.123055 0.000960982 0)
(0.122404 0.000990116 0)
(0.121734 0.00101863 0)
(0.121045 0.00104653 0)
(0.120338 0.00107381 0)
(0.119613 0.00110047 0)
(0.11887 0.00112651 0)
(0.11811 0.00115193 0)
(0.117333 0.00117674 0)
(0.11654 0.00120094 0)
(0.115731 0.00122452 0)
(0.114907 0.0012475 0)
(0.114067 0.00126987 0)
(0.113213 0.00129165 0)
(0.112344 0.00131284 0)
(0.111462 0.00133344 0)
(0.110566 0.00135346 0)
(0.109657 0.00137291 0)
(0.108735 0.00139179 0)
(0.1078 0.00141011 0)
(0.106854 0.00142788 0)
(0.105896 0.00144511 0)
(0.104926 0.0014618 0)
(0.103946 0.00147796 0)
(0.102955 0.00149361 0)
(0.101954 0.00150874 0)
(0.100943 0.00152338 0)
(0.0999221 0.00153752 0)
(0.0988922 0.00155119 0)
(0.0978533 0.00156438 0)
(0.0968058 0.00157711 0)
(0.0957499 0.00158938 0)
(0.094686 0.00160122 0)
(0.0936144 0.00161262 0)
(0.0925354 0.00162359 0)
(0.0914491 0.00163415 0)
(0.090356 0.00164431 0)
(0.0892562 0.00165408 0)
(0.0881501 0.00166346 0)
(0.0870378 0.00167246 0)
(0.0859197 0.0016811 0)
(0.0847959 0.00168939 0)
(0.0836668 0.00169733 0)
(0.0825324 0.00170493 0)
(0.0813931 0.00171221 0)
(0.0802491 0.00171917 0)
(0.0791005 0.00172582 0)
(0.0779476 0.00173218 0)
(0.0767906 0.00173824 0)
(0.0756296 0.00174403 0)
(0.0744649 0.00174954 0)
(0.0732966 0.00175479 0)
(0.0721249 0.00175979 0)
(0.0709499 0.00176454 0)
(0.0697719 0.00176905 0)
(0.0685909 0.00177333 0)
(0.0674072 0.0017774 0)
(0.0662208 0.00178124 0)
(0.0650319 0.00178489 0)
(0.0638407 0.00178833 0)
(0.0626472 0.00179159 0)
(0.0614517 0.00179466 0)
(0.0602541 0.00179755 0)
(0.0590547 0.00180028 0)
(0.0578536 0.00180285 0)
(0.0566507 0.00180526 0)
(0.0554464 0.00180752 0)
(0.0542406 0.00180964 0)
(0.0530334 0.00181162 0)
(0.0518249 0.00181347 0)
(0.0506153 0.0018152 0)
(0.0494045 0.00181681 0)
(0.0481927 0.00181831 0)
(0.04698 0.0018197 0)
(0.0457663 0.00182099 0)
(0.0445518 0.00182218 0)
(0.0433366 0.00182328 0)
(0.0421207 0.0018243 0)
(0.0409041 0.00182523 0)
(0.039687 0.00182609 0)
(0.0384692 0.00182688 0)
(0.037251 0.00182759 0)
(0.0360324 0.00182825 0)
(0.0348133 0.00182884 0)
(0.0335939 0.00182938 0)
(0.0323741 0.00182986 0)
(0.031154 0.0018303 0)
(0.0299336 0.00183069 0)
(0.028713 0.00183104 0)
(0.0274922 0.00183135 0)
(0.0262712 0.00183163 0)
(0.02505 0.00183187 0)
(0.0238286 0.00183208 0)
(0.0226072 0.00183227 0)
(0.0213856 0.00183243 0)
(0.0201639 0.00183257 0)
(0.0189421 0.00183269 0)
(0.0177203 0.0018328 0)
(0.0164984 0.00183288 0)
(0.0152764 0.00183296 0)
(0.0140544 0.00183302 0)
(0.0128324 0.00183307 0)
(0.0116103 0.00183311 0)
(0.0103882 0.00183314 0)
(0.00916612 0.00183317 0)
(0.00794399 0.00183319 0)
(0.00672186 0.00183321 0)
(0.00549971 0.00183322 0)
(0.00427756 0.00183323 0)
(0.0030554 0.00183323 0)
(0.00183324 0.00183324 0)
(0.000611081 0.00183324 0)
(0.000757413 -0.00378695 0)
(0.00227223 -0.0037869 0)
(0.00378702 -0.00378681 0)
(0.00530177 -0.00378667 0)
(0.00681645 -0.00378648 0)
(0.00833105 -0.00378623 0)
(0.00984554 -0.00378592 0)
(0.0113599 -0.00378555 0)
(0.0128741 -0.00378512 0)
(0.0143881 -0.0037846 0)
(0.0159019 -0.00378401 0)
(0.0174155 -0.00378332 0)
(0.0189288 -0.00378254 0)
(0.0204417 -0.00378165 0)
(0.0219543 -0.00378063 0)
(0.0234665 -0.00377949 0)
(0.0249782 -0.00377821 0)
(0.0264893 -0.00377677 0)
(0.0279999 -0.00377516 0)
(0.0295098 -0.00377337 0)
(0.0310189 -0.00377138 0)
(0.0325273 -0.00376918 0)
(0.0340347 -0.00376676 0)
(0.0355411 -0.00376408 0)
(0.0370464 -0.00376114 0)
(0.0385505 -0.00375792 0)
(0.0400533 -0.0037544 0)
(0.0415546 -0.00375056 0)
(0.0430544 -0.00374638 0)
(0.0445524 -0.00374184 0)
(0.0460485 -0.00373691 0)
(0.0475426 -0.00373158 0)
(0.0490346 -0.00372582 0)
(0.0505241 -0.00371961 0)
(0.0520111 -0.00371292 0)
(0.0534953 -0.00370574 0)
(0.0549766 -0.00369804 0)
(0.0564548 -0.00368979 0)
(0.0579295 -0.00368097 0)
(0.0594006 -0.00367155 0)
(0.0608679 -0.0036615 0)
(0.062331 -0.00365082 0)
(0.0637897 -0.00363945 0)
(0.0652438 -0.00362739 0)
(0.0666929 -0.0036146 0)
(0.0681368 -0.00360106 0)
(0.0695752 -0.00358674 0)
(0.0710077 -0.00357161 0)
(0.072434 -0.00355566 0)
(0.0738537 -0.00353886 0)
(0.0752666 -0.00352117 0)
(0.0766723 -0.00350258 0)
(0.0780704 -0.00348306 0)
(0.0794605 -0.00346259 0)
(0.0808422 -0.00344114 0)
(0.0822152 -0.00341869 0)
(0.083579 -0.00339523 0)
(0.0849332 -0.00337072 0)
(0.0862775 -0.00334515 0)
(0.0876113 -0.0033185 0)
(0.0889342 -0.00329075 0)
(0.0902459 -0.00326188 0)
(0.0915458 -0.00323188 0)
(0.0928335 -0.00320073 0)
(0.0941085 -0.00316842 0)
(0.0953703 -0.00313493 0)
(0.0966185 -0.00310026 0)
(0.0978527 -0.0030644 0)
(0.0990722 -0.00302733 0)
(0.100277 -0.00298906 0)
(0.101466 -0.00294957 0)
(0.102639 -0.00290886 0)
(0.103795 -0.00286693 0)
(0.104934 -0.00282379 0)
(0.106056 -0.00277943 0)
(0.10716 -0.00273386 0)
(0.108245 -0.00268709 0)
(0.109312 -0.00263911 0)
(0.110359 -0.00258995 0)
(0.111386 -0.00253962 0)
(0.112393 -0.00248812 0)
(0.113378 -0.00243548 0)
(0.114343 -0.0023817 0)
(0.115286 -0.00232682 0)
(0.116206 -0.00227086 0)
(0.117104 -0.00221383 0)
(0.117979 -0.00215576 0)
(0.118831 -0.00209668 0)
(0.119658 -0.00203662 0)
(0.120462 -0.00197561 0)
(0.121241 -0.00191368 0)
(0.121994 -0.00185087 0)
(0.122723 -0.00178721 0)
(0.123426 -0.00172274 0)
(0.124102 -0.0016575 0)
(0.124753 -0.00159153 0)
(0.125377 -0.00152487 0)
(0.125974 -0.00145756 0)
(0.126544 -0.00138965 0)
(0.127087 -0.00132118 0)
(0.127602 -0.0012522 0)
(0.128089 -0.00118276 0)
(0.128549 -0.00111289 0)
(0.12898 -0.00104266 0)
(0.129384 -0.000972108 0)
(0.129758 -0.000901282 0)
(0.130105 -0.000830233 0)
(0.130423 -0.00075901 0)
(0.130712 -0.000687662 0)
(0.130973 -0.000616239 0)
(0.131205 -0.000544791 0)
(0.131409 -0.000473365 0)
(0.131584 -0.000402012 0)
(0.13173 -0.000330777 0)
(0.131848 -0.000259711 0)
(0.131938 -0.000188858 0)
(0.131999 -0.000118267 0)
(0.132032 -4.79805e-05 0)
(0.132037 2.19555e-05 0)
(0.132014 9.14978e-05 0)
(0.131963 0.000160604 0)
(0.131884 0.000229234 0)
(0.131778 0.000297346 0)
(0.131645 0.000364902 0)
(0.131485 0.000431866 0)
(0.131299 0.0004982 0)
(0.131086 0.000563871 0)
(0.130846 0.000628845 0)
(0.130581 0.000693091 0)
(0.130291 0.000756579 0)
(0.129975 0.00081928 0)
(0.129634 0.000881168 0)
(0.129268 0.000942216 0)
(0.128878 0.0010024 0)
(0.128465 0.0010617 0)
(0.128027 0.0011201 0)
(0.127567 0.00117757 0)
(0.127084 0.0012341 0)
(0.126578 0.00128967 0)
(0.12605 0.00134427 0)
(0.125501 0.00139789 0)
(0.12493 0.00145051 0)
(0.124338 0.00150213 0)
(0.123726 0.00155273 0)
(0.123094 0.00160232 0)
(0.122443 0.00165088 0)
(0.121772 0.00169841 0)
(0.121082 0.00174491 0)
(0.120374 0.00179037 0)
(0.119648 0.00183481 0)
(0.118904 0.00187821 0)
(0.118144 0.00192057 0)
(0.117366 0.00196192 0)
(0.116572 0.00200224 0)
(0.115762 0.00204154 0)
(0.114937 0.00207983 0)
(0.114097 0.00211712 0)
(0.113242 0.00215341 0)
(0.112372 0.00218872 0)
(0.111489 0.00222304 0)
(0.110592 0.0022564 0)
(0.109682 0.00228881 0)
(0.108759 0.00232027 0)
(0.107824 0.00235079 0)
(0.106877 0.0023804 0)
(0.105918 0.0024091 0)
(0.104948 0.00243691 0)
(0.103967 0.00246384 0)
(0.102976 0.00248991 0)
(0.101974 0.00251513 0)
(0.100962 0.00253951 0)
(0.0999406 0.00256308 0)
(0.0989101 0.00258584 0)
(0.0978706 0.00260781 0)
(0.0968224 0.00262902 0)
(0.095766 0.00264947 0)
(0.0947015 0.00266918 0)
(0.0936293 0.00268816 0)
(0.0925497 0.00270645 0)
(0.0914629 0.00272404 0)
(0.0903693 0.00274096 0)
(0.089269 0.00275722 0)
(0.0881624 0.00277284 0)
(0.0870496 0.00278784 0)
(0.085931 0.00280223 0)
(0.0848068 0.00281603 0)
(0.0836771 0.00282925 0)
(0.0825423 0.00284191 0)
(0.0814026 0.00285403 0)
(0.0802582 0.00286562 0)
(0.0791092 0.0028767 0)
(0.0779559 0.00288728 0)
(0.0767985 0.00289738 0)
(0.0756372 0.00290701 0)
(0.0744721 0.00291619 0)
(0.0733034 0.00292493 0)
(0.0721314 0.00293325 0)
(0.0709561 0.00294116 0)
(0.0697777 0.00294867 0)
(0.0685965 0.0029558 0)
(0.0674124 0.00296256 0)
(0.0662258 0.00296897 0)
(0.0650366 0.00297503 0)
(0.0638451 0.00298077 0)
(0.0626514 0.00298618 0)
(0.0614557 0.00299129 0)
(0.0602579 0.00299611 0)
(0.0590583 0.00300065 0)
(0.0578569 0.00300492 0)
(0.0566539 0.00300893 0)
(0.0554493 0.00301269 0)
(0.0542433 0.00301621 0)
(0.0530359 0.00301951 0)
(0.0518273 0.00302259 0)
(0.0506175 0.00302546 0)
(0.0494066 0.00302814 0)
(0.0481946 0.00303063 0)
(0.0469817 0.00303294 0)
(0.045768 0.00303509 0)
(0.0445534 0.00303707 0)
(0.043338 0.0030389 0)
(0.042122 0.00304059 0)
(0.0409053 0.00304214 0)
(0.0396881 0.00304357 0)
(0.0384702 0.00304487 0)
(0.037252 0.00304606 0)
(0.0360332 0.00304714 0)
(0.0348141 0.00304813 0)
(0.0335945 0.00304902 0)
(0.0323747 0.00304982 0)
(0.0311545 0.00305055 0)
(0.0299341 0.0030512 0)
(0.0287135 0.00305178 0)
(0.0274926 0.00305229 0)
(0.0262715 0.00305275 0)
(0.0250503 0.00305315 0)
(0.0238289 0.0030535 0)
(0.0226074 0.00305381 0)
(0.0213858 0.00305408 0)
(0.0201641 0.00305431 0)
(0.0189423 0.00305451 0)
(0.0177204 0.00305468 0)
(0.0164985 0.00305482 0)
(0.0152765 0.00305494 0)
(0.0140545 0.00305504 0)
(0.0128324 0.00305512 0)
(0.0116104 0.00305519 0)
(0.0103883 0.00305525 0)
(0.00916615 0.00305529 0)
(0.00794402 0.00305532 0)
(0.00672187 0.00305535 0)
(0.00549972 0.00305537 0)
(0.00427757 0.00305538 0)
(0.00305541 0.00305539 0)
(0.00183325 0.0030554 0)
(0.000611082 0.0030554 0)
(0.000757441 -0.0053018 0)
(0.00227231 -0.00530173 0)
(0.00378716 -0.0053016 0)
(0.00530197 -0.00530141 0)
(0.00681671 -0.00530114 0)
(0.00833138 -0.0053008 0)
(0.00984594 -0.00530038 0)
(0.0113604 -0.00529987 0)
(0.0128747 -0.00529927 0)
(0.0143888 -0.00529856 0)
(0.0159027 -0.00529774 0)
(0.0174164 -0.00529679 0)
(0.0189298 -0.00529571 0)
(0.0204429 -0.00529447 0)
(0.0219556 -0.00529307 0)
(0.0234679 -0.00529149 0)
(0.0249798 -0.0052897 0)
(0.0264911 -0.00528771 0)
(0.0280019 -0.00528548 0)
(0.029512 -0.00528299 0)
(0.0310214 -0.00528023 0)
(0.03253 -0.00527718 0)
(0.0340377 -0.0052738 0)
(0.0355445 -0.00527008 0)
(0.0370501 -0.005266 0)
(0.0385546 -0.00526152 0)
(0.0400577 -0.00525661 0)
(0.0415594 -0.00525126 0)
(0.0430596 -0.00524544 0)
(0.0445581 -0.00523911 0)
(0.0460547 -0.00523224 0)
(0.0475493 -0.00522481 0)
(0.0490417 -0.00521678 0)
(0.0505318 -0.00520812 0)
(0.0520194 -0.00519879 0)
(0.0535043 -0.00518877 0)
(0.0549862 -0.00517802 0)
(0.056465 -0.0051665 0)
(0.0579404 -0.00515419 0)
(0.0594123 -0.00514104 0)
(0.0608803 -0.00512701 0)
(0.0623442 -0.00511208 0)
(0.0638038 -0.00509621 0)
(0.0652587 -0.00507936 0)
(0.0667087 -0.00506149 0)
(0.0681535 -0.00504257 0)
(0.0695928 -0.00502256 0)
(0.0710263 -0.00500142 0)
(0.0724536 -0.00497912 0)
(0.0738744 -0.00495563 0)
(0.0752884 -0.0049309 0)
(0.0766952 -0.00490491 0)
(0.0780943 -0.00487762 0)
(0.0794856 -0.00484899 0)
(0.0808685 -0.00481899 0)
(0.0822427 -0.0047876 0)
(0.0836078 -0.00475478 0)
(0.0849633 -0.00472049 0)
(0.0863088 -0.00468472 0)
(0.0876439 -0.00464744 0)
(0.0889682 -0.00460861 0)
(0.0902812 -0.00456822 0)
(0.0915825 -0.00452624 0)
(0.0928715 -0.00448265 0)
(0.0941479 -0.00443743 0)
(0.0954112 -0.00439057 0)
(0.0966609 -0.00434204 0)
(0.0978964 -0.00429184 0)
(0.0991174 -0.00423996 0)
(0.100323 -0.00418638 0)
(0.101514 -0.00413109 0)
(0.102688 -0.00407411 0)
(0.103846 -0.00401541 0)
(0.104987 -0.00395501 0)
(0.10611 -0.0038929 0)
(0.107215 -0.00382909 0)
(0.108302 -0.0037636 0)
(0.10937 -0.00369642 0)
(0.110419 -0.00362758 0)
(0.111447 -0.00355709 0)
(0.112455 -0.00348497 0)
(0.113442 -0.00341125 0)
(0.114408 -0.00333594 0)
(0.115352 -0.00325907 0)
(0.116274 -0.00318069 0)
(0.117174 -0.00310081 0)
(0.11805 -0.00301948 0)
(0.118902 -0.00293672 0)
(0.119731 -0.0028526 0)
(0.120536 -0.00276714 0)
(0.121316 -0.00268039 0)
(0.12207 -0.0025924 0)
(0.1228 -0.00250323 0)
(0.123504 -0.00241291 0)
(0.124181 -0.00232152 0)
(0.124833 -0.0022291 0)
(0.125457 -0.00213572 0)
(0.126055 -0.00204143 0)
(0.126626 -0.00194629 0)
(0.127169 -0.00185037 0)
(0.127685 -0.00175373 0)
(0.128173 -0.00165644 0)
(0.128633 -0.00155857 0)
(0.129065 -0.00146018 0)
(0.129468 -0.00136133 0)
(0.129844 -0.00126211 0)
(0.13019 -0.00116257 0)
(0.130509 -0.00106279 0)
(0.130798 -0.000962832 0)
(0.131059 -0.000862772 0)
(0.131291 -0.000762675 0)
(0.131495 -0.000662611 0)
(0.13167 -0.000562649 0)
(0.131816 -0.000462854 0)
(0.131934 -0.000363295 0)
(0.132023 -0.000264037 0)
(0.132084 -0.000165145 0)
(0.132116 -6.66827e-05 0)
(0.13212 3.12884e-05 0)
(0.132097 0.000128707 0)
(0.132045 0.000225514 0)
(0.131966 0.000321651 0)
(0.13186 0.000417062 0)
(0.131726 0.000511693 0)
(0.131565 0.000605493 0)
(0.131378 0.000698409 0)
(0.131164 0.000790395 0)
(0.130924 0.000881403 0)
(0.130658 0.000971389 0)
(0.130366 0.00106031 0)
(0.130049 0.00114813 0)
(0.129707 0.00123481 0)
(0.129341 0.00132031 0)
(0.12895 0.0014046 0)
(0.128535 0.00148765 0)
(0.128097 0.00156943 0)
(0.127635 0.00164992 0)
(0.127151 0.00172908 0)
(0.126644 0.0018069 0)
(0.126115 0.00188336 0)
(0.125564 0.00195844 0)
(0.124993 0.00203213 0)
(0.1244 0.0021044 0)
(0.123787 0.00217526 0)
(0.123153 0.00224468 0)
(0.1225 0.00231267 0)
(0.121828 0.00237922 0)
(0.121137 0.00244432 0)
(0.120428 0.00250797 0)
(0.119701 0.00257017 0)
(0.118956 0.00263093 0)
(0.118194 0.00269024 0)
(0.117415 0.00274812 0)
(0.11662 0.00280456 0)
(0.115809 0.00285957 0)
(0.114983 0.00291317 0)
(0.114141 0.00296536 0)
(0.113285 0.00301616 0)
(0.112414 0.00306557 0)
(0.11153 0.00311361 0)
(0.110632 0.0031603 0)
(0.10972 0.00320565 0)
(0.108797 0.00324968 0)
(0.10786 0.0032924 0)
(0.106912 0.00333383 0)
(0.105952 0.00337399 0)
(0.104981 0.00341291 0)
(0.103999 0.00345059 0)
(0.103006 0.00348706 0)
(0.102003 0.00352235 0)
(0.100991 0.00355646 0)
(0.0999684 0.00358943 0)
(0.0989369 0.00362128 0)
(0.0978965 0.00365202 0)
(0.0968474 0.00368168 0)
(0.0957901 0.00371029 0)
(0.0947247 0.00373786 0)
(0.0936517 0.00376442 0)
(0.0925712 0.00378999 0)
(0.0914837 0.0038146 0)
(0.0903892 0.00383826 0)
(0.0892881 0.003861 0)
(0.0881807 0.00388285 0)
(0.0870672 0.00390383 0)
(0.0859479 0.00392395 0)
(0.084823 0.00394325 0)
(0.0836927 0.00396174 0)
(0.0825572 0.00397944 0)
(0.0814168 0.00399639 0)
(0.0802718 0.00401259 0)
(0.0791222 0.00402808 0)
(0.0779683 0.00404287 0)
(0.0768103 0.00405699 0)
(0.0756484 0.00407045 0)
(0.0744828 0.00408328 0)
(0.0733137 0.0040955 0)
(0.0721411 0.00410713 0)
(0.0709653 0.00411818 0)
(0.0697865 0.00412867 0)
(0.0686048 0.00413864 0)
(0.0674203 0.00414809 0)
(0.0662332 0.00415704 0)
(0.0650437 0.00416551 0)
(0.0638518 0.00417352 0)
(0.0626578 0.00418108 0)
(0.0614616 0.00418822 0)
(0.0602635 0.00419495 0)
(0.0590635 0.00420129 0)
(0.0578618 0.00420725 0)
(0.0566585 0.00421284 0)
(0.0554537 0.00421809 0)
(0.0542474 0.00422301 0)
(0.0530397 0.00422761 0)
(0.0518309 0.00423191 0)
(0.0506208 0.00423592 0)
(0.0494097 0.00423966 0)
(0.0481975 0.00424313 0)
(0.0469844 0.00424636 0)
(0.0457704 0.00424935 0)
(0.0445557 0.00425211 0)
(0.0433401 0.00425466 0)
(0.0421239 0.00425702 0)
(0.0409071 0.00425918 0)
(0.0396897 0.00426116 0)
(0.0384717 0.00426298 0)
(0.0372533 0.00426463 0)
(0.0360344 0.00426614 0)
(0.0348152 0.00426751 0)
(0.0335956 0.00426875 0)
(0.0323756 0.00426987 0)
(0.0311554 0.00427087 0)
(0.0299348 0.00427177 0)
(0.0287141 0.00427258 0)
(0.0274932 0.00427329 0)
(0.026272 0.00427392 0)
(0.0250507 0.00427448 0)
(0.0238293 0.00427497 0)
(0.0226077 0.0042754 0)
(0.0213861 0.00427577 0)
(0.0201643 0.00427608 0)
(0.0189425 0.00427636 0)
(0.0177206 0.00427659 0)
(0.0164986 0.00427678 0)
(0.0152766 0.00427695 0)
(0.0140546 0.00427708 0)
(0.0128325 0.0042772 0)
(0.0116104 0.00427729 0)
(0.0103883 0.00427736 0)
(0.00916619 0.00427742 0)
(0.00794405 0.00427746 0)
(0.0067219 0.0042775 0)
(0.00549974 0.00427752 0)
(0.00427758 0.00427754 0)
(0.00305542 0.00427756 0)
(0.00183325 0.00427757 0)
(0.000611084 0.00427757 0)
(0.000757477 -0.00681671 0)
(0.00227242 -0.00681663 0)
(0.00378734 -0.00681646 0)
(0.00530223 -0.00681622 0)
(0.00681705 -0.00681589 0)
(0.00833181 -0.00681546 0)
(0.00984646 -0.00681493 0)
(0.011361 -0.00681429 0)
(0.0128754 -0.00681353 0)
(0.0143897 -0.00681263 0)
(0.0159037 -0.0068116 0)
(0.0174175 -0.0068104 0)
(0.0189311 -0.00680903 0)
(0.0204444 -0.00680746 0)
(0.0219573 -0.00680569 0)
(0.0234698 -0.00680368 0)
(0.0249819 -0.00680142 0)
(0.0264935 -0.00679889 0)
(0.0280046 -0.00679605 0)
(0.029515 -0.00679289 0)
(0.0310247 -0.00678938 0)
(0.0325337 -0.00678549 0)
(0.0340418 -0.00678119 0)
(0.0355489 -0.00677645 0)
(0.037055 -0.00677124 0)
(0.0385599 -0.00676553 0)
(0.0400635 -0.00675927 0)
(0.0415658 -0.00675244 0)
(0.0430665 -0.006745 0)
(0.0445656 -0.00673691 0)
(0.0460628 -0.00672814 0)
(0.0475581 -0.00671864 0)
(0.0490512 -0.00670837 0)
(0.0505421 -0.00669729 0)
(0.0520304 -0.00668536 0)
(0.0535161 -0.00667253 0)
(0.0549989 -0.00665877 0)
(0.0564786 -0.00664402 0)
(0.0579549 -0.00662825 0)
(0.0594278 -0.0066114 0)
(0.0608968 -0.00659343 0)
(0.0623618 -0.0065743 0)
(0.0638224 -0.00655395 0)
(0.0652785 -0.00653235 0)
(0.0667297 -0.00650943 0)
(0.0681757 -0.00648517 0)
(0.0696163 -0.0064595 0)
(0.0710511 -0.00643239 0)
(0.0724797 -0.00640378 0)
(0.0739019 -0.00637364 0)
(0.0753173 -0.00634191 0)
(0.0767256 -0.00630854 0)
(0.0781263 -0.00627351 0)
(0.0795191 -0.00623676 0)
(0.0809036 -0.00619825 0)
(0.0822794 -0.00615793 0)
(0.0836461 -0.00611578 0)
(0.0850033 -0.00607175 0)
(0.0863505 -0.00602581 0)
(0.0876874 -0.00597791 0)
(0.0890135 -0.00592804 0)
(0.0903283 -0.00587614 0)
(0.0916314 -0.0058222 0)
(0.0929223 -0.00576619 0)
(0.0942006 -0.00570809 0)
(0.0954657 -0.00564786 0)
(0.0967173 -0.00558549 0)
(0.0979548 -0.00552097 0)
(0.0991777 -0.00545428 0)
(0.100386 -0.0053854 0)
(0.101578 -0.00531433 0)
(0.102754 -0.00524106 0)
(0.103914 -0.0051656 0)
(0.105057 -0.00508793 0)
(0.106182 -0.00500807 0)
(0.107289 -0.00492601 0)
(0.108378 -0.00484178 0)
(0.109448 -0.00475539 0)
(0.110498 -0.00466685 0)
(0.111529 -0.00457619 0)
(0.112539 -0.00448343 0)
(0.113528 -0.0043886 0)
(0.114495 -0.00429173 0)
(0.115441 -0.00419285 0)
(0.116365 -0.00409201 0)
(0.117266 -0.00398925 0)
(0.118144 -0.00388461 0)
(0.118998 -0.00377815 0)
(0.119828 -0.00366991 0)
(0.120634 -0.00355995 0)
(0.121415 -0.00344834 0)
(0.122172 -0.00333512 0)
(0.122902 -0.00322038 0)
(0.123607 -0.00310417 0)
(0.124286 -0.00298657 0)
(0.124939 -0.00286765 0)
(0.125565 -0.00274748 0)
(0.126164 -0.00262614 0)
(0.126735 -0.00250371 0)
(0.127279 -0.00238028 0)
(0.127796 -0.00225592 0)
(0.128285 -0.00213072 0)
(0.128745 -0.00200476 0)
(0.129178 -0.00187814 0)
(0.129582 -0.00175094 0)
(0.129957 -0.00162325 0)
(0.130304 -0.00149515 0)
(0.130623 -0.00136674 0)
(0.130913 -0.00123811 0)
(0.131174 -0.00110934 0)
(0.131406 -0.000980526 0)
(0.131609 -0.000851756 0)
(0.131784 -0.000723117 0)
(0.13193 -0.000594696 0)
(0.132047 -0.000466579 0)
(0.132136 -0.000338851 0)
(0.132196 -0.000211595 0)
(0.132228 -8.48932e-05 0)
(0.132232 4.11738e-05 0)
(0.132208 0.000166528 0)
(0.132156 0.000291092 0)
(0.132076 0.000414793 0)
(0.131969 0.000537558 0)
(0.131834 0.000659317 0)
(0.131672 0.000780002 0)
(0.131484 0.000899549 0)
(0.131269 0.0010179 0)