/*--------------------------------*- C++ -*----------------------------------*\
| =========                 |                                                 |
| \\      /  F ield         | OpenFOAM: The Open Source CFD Toolbox           |
|  \\    /   O peration     | Version:  v2012                                 |
|   \\  /    A nd           | Website:  www.openfoam.com                      |
|    \\/     M anipulation  |                                                 |
\*---------------------------------------------------------------------------*/
FoamFile
{
    version     2.0;
    format      ascii;
    class       volScalarField;
    location    "7.5";
    object      W;
}
// * * * * * * * * * * * * * * * * * * * * * * * * * * * * * * * * * * * * * //

dimensions      [0 0 -1 0 0 0 0];


internalField   nonuniform List<scalar> 
65536
(
1.89847e-18
1.98832e-18
2.17226e-18
2.45708e-18
2.8533e-18
3.37551e-18
4.04285e-18
4.87966e-18
5.91623e-18
7.18975e-18
8.74545e-18
1.0638e-17
1.29329e-17
1.57088e-17
1.90591e-17
2.3095e-17
2.79485e-17
3.37754e-17
4.07598e-17
4.91185e-17
5.91067e-17
7.10237e-17
8.52201e-17
1.02106e-16
1.22161e-16
1.45942e-16
1.741e-16
2.07387e-16
2.46679e-16
2.92986e-16
3.47478e-16
4.115e-16
4.86604e-16
5.7457e-16
6.7744e-16
7.97551e-16
9.37572e-16
1.10055e-15
1.28994e-15
1.50968e-15
1.76423e-15
2.05864e-15
2.3986e-15
2.79054e-15
3.24166e-15
3.76008e-15
4.35486e-15
5.03616e-15
5.81528e-15
6.70481e-15
7.71875e-15
8.87257e-15
1.01834e-14
1.16702e-14
1.33537e-14
1.52568e-14
1.74044e-14
1.9824e-14
2.25454e-14
2.56009e-14
2.90257e-14
3.28579e-14
3.71385e-14
4.19116e-14
4.72246e-14
5.31281e-14
5.96762e-14
6.69261e-14
7.49388e-14
8.37784e-14
9.35125e-14
1.04212e-13
1.1595e-13
1.28805e-13
1.42854e-13
1.58181e-13
1.7487e-13
1.93004e-13
2.12672e-13
2.33961e-13
2.56956e-13
2.81745e-13
3.08412e-13
3.37038e-13
3.67702e-13
4.00478e-13
4.35434e-13
4.72631e-13
5.12122e-13
5.5395e-13
5.9815e-13
6.4474e-13
6.93729e-13
7.45107e-13
7.9885e-13
8.54916e-13
9.13242e-13
9.73747e-13
1.03633e-12
1.10085e-12
1.16717e-12
1.23512e-12
1.30448e-12
1.37504e-12
1.44655e-12
1.51872e-12
1.59127e-12
1.66386e-12
1.73615e-12
1.80778e-12
1.87835e-12
1.94746e-12
2.01471e-12
2.07967e-12
2.1419e-12
2.20096e-12
2.25643e-12
2.30788e-12
2.35489e-12
2.39705e-12
2.43399e-12
2.46536e-12
2.49082e-12
2.51009e-12
2.52292e-12
2.52911e-12
2.5285e-12
2.52099e-12
2.50653e-12
2.48515e-12
2.4569e-12
2.42192e-12
2.38041e-12
2.33261e-12
2.27885e-12
2.21949e-12
2.15495e-12
2.08571e-12
2.01226e-12
1.93518e-12
1.85504e-12
1.77245e-12
1.68804e-12
1.60244e-12
1.51631e-12
1.43028e-12
1.34497e-12
1.26099e-12
1.17894e-12
1.09937e-12
1.0228e-12
9.49704e-13
8.80531e-13
8.15667e-13
7.55456e-13
7.00187e-13
6.50101e-13
6.05385e-13
5.66173e-13
5.32548e-13
5.04542e-13
4.82137e-13
4.65265e-13
4.5381e-13
4.47611e-13
4.46459e-13
4.50103e-13
4.58247e-13
4.70556e-13
4.86653e-13
5.06123e-13
5.28518e-13
5.53356e-13
5.80126e-13
6.08293e-13
6.37303e-13
6.66589e-13
6.95576e-13
7.23695e-13
7.50384e-13
7.75101e-13
7.97335e-13
8.1661e-13
8.32501e-13
8.44639e-13
8.5272e-13
8.56509e-13
8.55852e-13
8.50673e-13
8.40978e-13
8.26857e-13
8.08478e-13
7.86083e-13
7.59984e-13
7.30552e-13
6.98206e-13
6.63407e-13
6.2664e-13
5.88406e-13
5.49209e-13
5.09542e-13
4.69879e-13
4.30662e-13
3.92297e-13
3.55145e-13
3.19514e-13
2.85663e-13
2.53793e-13
2.24056e-13
1.96546e-13
1.71315e-13
1.48365e-13
1.27662e-13
1.09137e-13
9.26935e-14
7.82139e-14
6.55637e-14
5.45979e-14
4.51659e-14
3.71157e-14
3.02975e-14
2.45667e-14
1.97865e-14
1.58295e-14
1.25784e-14
9.92753e-15
7.78221e-15
6.05904e-15
4.68528e-15
3.59824e-15
2.74449e-15
2.07893e-15
1.56394e-15
1.16841e-15
8.6688e-16
6.38711e-16
4.67331e-16
3.39558e-16
2.45e-16
1.75541e-16
1.24893e-16
8.82365e-17
6.19011e-17
4.31206e-17
2.98267e-17
2.0486e-17
1.39717e-17
9.46257e-18
6.36532e-18
4.25504e-18
2.83031e-18
1.87957e-18
1.25639e-18
8.61517e-19
6.302e-19
5.23626e-19
2.67734e-18
2.80386e-18
3.06296e-18
3.46418e-18
4.0223e-18
4.75783e-18
5.69769e-18
6.87607e-18
8.33556e-18
1.01284e-17
1.23181e-17
1.49815e-17
1.82106e-17
2.21155e-17
2.68277e-17
3.25029e-17
3.93261e-17
4.75158e-17
5.73299e-17
6.9072e-17
8.30992e-17
9.98302e-17
1.19755e-16
1.43448e-16
1.71577e-16
2.04921e-16
2.44386e-16
2.91024e-16
3.46051e-16
4.10876e-16
4.87125e-16
5.76668e-16
6.81659e-16
8.04569e-16
9.48226e-16
1.11587e-15
1.31119e-15
1.53839e-15
1.80226e-15
2.10821e-15
2.46239e-15
2.87173e-15
3.34407e-15
3.88819e-15
4.514e-15
5.23256e-15
6.05627e-15
6.99895e-15
8.076e-15
9.30451e-15
1.07034e-14
1.22938e-14
1.40986e-14
1.61434e-14
1.84561e-14
2.10674e-14
2.40108e-14
2.73227e-14
3.10428e-14
3.52142e-14
3.98834e-14
4.51006e-14
5.09197e-14
5.73987e-14
6.45994e-14
7.25878e-14
8.14339e-14
9.12119e-14
1.02e-13
1.1388e-13
1.26939e-13
1.41267e-13
1.56956e-13
1.74103e-13
1.92807e-13
2.1317e-13
2.35295e-13
2.59287e-13
2.85251e-13
3.1329e-13
3.43509e-13
3.76009e-13
4.10888e-13
4.48239e-13
4.8815e-13
5.30702e-13
5.75966e-13
6.24006e-13
6.74872e-13
7.28602e-13
7.85217e-13
8.44726e-13
9.07115e-13
9.72353e-13
1.04039e-12
1.11114e-12
1.18451e-12
1.26038e-12
1.33858e-12
1.41895e-12
1.50126e-12
1.58527e-12
1.67073e-12
1.75732e-12
1.84473e-12
1.93259e-12
2.02051e-12
2.10809e-12
2.1949e-12
2.28046e-12
2.36432e-12
2.44597e-12
2.52491e-12
2.60063e-12
2.67261e-12
2.74034e-12
2.80332e-12
2.86103e-12
2.91302e-12
2.95881e-12
2.99799e-12
3.03016e-12
3.05497e-12
3.07213e-12
3.08138e-12
3.08252e-12
3.07542e-12
3.06001e-12
3.03629e-12
3.00432e-12
2.96425e-12
2.91627e-12
2.86067e-12
2.7978e-12
2.72808e-12
2.65197e-12
2.57002e-12
2.48282e-12
2.391e-12
2.29524e-12
2.19624e-12
2.09474e-12
1.99149e-12
1.88724e-12
1.78274e-12
1.67875e-12
1.57598e-12
1.47513e-12
1.37688e-12
1.28186e-12
1.19064e-12
1.10377e-12
1.02173e-12
9.44936e-13
8.73765e-13
8.0852e-13
7.49449e-13
6.96736e-13
6.50506e-13
6.10826e-13
5.77704e-13
5.5109e-13
5.30881e-13
5.1692e-13
5.08999e-13
5.06858e-13
5.10191e-13
5.18645e-13
5.31823e-13
5.49283e-13
5.70545e-13
5.95091e-13
6.22369e-13
6.51797e-13
6.82769e-13
7.14658e-13
7.46827e-13
7.78632e-13
8.09438e-13
8.38617e-13
8.65571e-13
8.89732e-13
9.10578e-13
9.27641e-13
9.40519e-13
9.4888e-13
9.52475e-13
9.5114e-13
9.44798e-13
9.33466e-13
9.17252e-13
8.96349e-13
8.71032e-13
8.41653e-13
8.08628e-13
7.72425e-13
7.33556e-13
6.9256e-13
6.49993e-13
6.06411e-13
5.62357e-13
5.18353e-13
4.74887e-13
4.32402e-13
3.91292e-13
3.51895e-13
3.14493e-13
2.79303e-13
2.46487e-13
2.16148e-13
1.88335e-13
1.63051e-13
1.40254e-13
1.19864e-13
1.01774e-13
8.5851e-14
7.19452e-14
5.98957e-14
4.95355e-14
4.06961e-14
3.32119e-14
2.69235e-14
2.16797e-14
1.73402e-14
1.37759e-14
1.08704e-14
8.51966e-15
6.63193e-15
5.12734e-15
3.93704e-15
3.00239e-15
2.27392e-15
1.71036e-15
1.27761e-15
9.47763e-16
6.98209e-16
5.10798e-16
3.71094e-16
2.67723e-16
1.91799e-16
1.36446e-16
9.63887e-17
6.76136e-17
4.70956e-17
3.25733e-17
2.23706e-17
1.52559e-17
1.03315e-17
6.94938e-18
4.64517e-18
3.08962e-18
2.05165e-18
1.37134e-18
9.40285e-19
6.87786e-19
5.71468e-19
4.52723e-18
4.74081e-18
5.17832e-18
5.85582e-18
6.79819e-18
8.03998e-18
9.62655e-18
1.16155e-17
1.40784e-17
1.71034e-17
2.07973e-17
2.52891e-17
3.07338e-17
3.73166e-17
4.5258e-17
5.482e-17
6.63128e-17
8.01032e-17
9.66238e-17
1.16383e-16
1.3998e-16
1.68115e-16
2.01609e-16
2.4142e-16
2.88666e-16
3.44648e-16
4.10876e-16
4.89103e-16
5.81357e-16
6.89981e-16
8.17676e-16
9.67551e-16
1.14318e-15
1.34865e-15
1.58866e-15
1.86854e-15
2.1944e-15
2.57318e-15
3.01273e-15
3.52199e-15
4.11104e-15
4.79123e-15
5.57539e-15
6.47788e-15
7.51483e-15
8.70426e-15
1.00663e-14
1.16234e-14
1.34003e-14
1.54248e-14
1.77272e-14
2.03413e-14
2.33041e-14
2.66562e-14
3.04423e-14
3.47108e-14
3.95149e-14
4.4912e-14
5.09645e-14
5.77399e-14
6.53108e-14
7.37551e-14
8.31564e-14
9.3604e-14
1.05193e-13
1.18023e-13
1.32202e-13
1.47841e-13
1.65057e-13
1.83975e-13
2.0472e-13
2.27427e-13
2.5223e-13
2.79271e-13
3.08691e-13
3.40635e-13
3.7525e-13
4.12681e-13
4.53072e-13
4.96565e-13
5.43299e-13
5.93406e-13
6.47011e-13
7.04232e-13
7.65172e-13
8.29926e-13
8.9857e-13
9.71166e-13
1.04775e-12
1.12835e-12
1.21296e-12
1.30154e-12
1.39405e-12
1.49038e-12
1.59041e-12
1.694e-12
1.80095e-12
1.91103e-12
2.02397e-12
2.13947e-12
2.25718e-12
2.37671e-12
2.49763e-12
2.61948e-12
2.74175e-12
2.86391e-12
2.98539e-12
3.10556e-12
3.22381e-12
3.33948e-12
3.45189e-12
3.56036e-12
3.66419e-12
3.76267e-12
3.85512e-12
3.94085e-12
4.01919e-12
4.08951e-12
4.15121e-12
4.20371e-12
4.24651e-12
4.27914e-12
4.30122e-12
4.31241e-12
4.31247e-12
4.30124e-12
4.27862e-12
4.24464e-12
4.19938e-12
4.14305e-12
4.07594e-12
3.99843e-12
3.91099e-12
3.81418e-12
3.70865e-12
3.59512e-12
3.47437e-12
3.34727e-12
3.2147e-12
3.07762e-12
2.93701e-12
2.79386e-12
2.64918e-12
2.50398e-12
2.35924e-12
2.21594e-12
2.07501e-12
1.93735e-12
1.80379e-12
1.67513e-12
1.55207e-12
1.43526e-12
1.32528e-12
1.22263e-12
1.1277e-12
1.04085e-12
9.62326e-13
8.92307e-13
8.30891e-13
7.78104e-13
7.33898e-13
6.98156e-13
6.70692e-13
6.51258e-13
6.39542e-13
6.35176e-13
6.37734e-13
6.46736e-13
6.61651e-13
6.81902e-13
7.06865e-13
7.35875e-13
7.68229e-13
8.03196e-13
8.40014e-13
8.77908e-13
9.1609e-13
9.53771e-13
9.90172e-13
1.02453e-12
1.05614e-12
1.08429e-12
1.10838e-12
1.12785e-12
1.14223e-12
1.15112e-12
1.15425e-12
1.15143e-12
1.1426e-12
1.12777e-12
1.10712e-12
1.08087e-12
1.04937e-12
1.01307e-12
9.72465e-13
9.28134e-13
8.80696e-13
8.30803e-13
7.79122e-13
7.26321e-13
6.73051e-13
6.19932e-13
5.67543e-13
5.16411e-13
4.66999e-13
4.19705e-13
3.74855e-13
3.32705e-13
2.93438e-13
2.57169e-13
2.23951e-13
1.93779e-13
1.66596e-13
1.42303e-13
1.20766e-13
1.01822e-13
8.52887e-14
7.0972e-14
5.86699e-14
4.81799e-14
3.93032e-14
3.18487e-14
2.56358e-14
2.04967e-14
1.62778e-14
1.28402e-14
1.00601e-14
7.82853e-15
6.05059e-15
4.64458e-15
3.54095e-15
2.68107e-15
2.01608e-15
1.50559e-15
1.11662e-15
8.22411e-16
6.01528e-16
4.36918e-16
3.15147e-16
2.25731e-16
1.60556e-16
1.134e-16
7.95335e-17
5.53896e-17
3.83041e-17
2.63027e-17
1.7935e-17
1.21443e-17
8.16777e-18
5.45896e-18
3.63051e-18
2.41058e-18
1.61109e-18
1.10457e-18
8.07882e-19
6.71217e-19
8.12972e-18
8.51269e-18
9.29734e-18
1.05124e-17
1.22023e-17
1.4429e-17
1.72736e-17
2.08391e-17
2.52536e-17
3.06746e-17
3.72931e-17
4.53399e-17
5.50915e-17
6.68789e-17
8.10956e-17
9.82094e-17
1.18774e-16
1.43442e-16
1.72986e-16
2.08312e-16
2.50485e-16
3.00752e-16
3.60572e-16
4.3165e-16
5.1597e-16
6.15841e-16
7.33943e-16
8.73381e-16
1.03775e-15
1.23119e-15
1.45848e-15
1.72511e-15
2.03738e-15
2.40252e-15
2.82876e-15
3.32553e-15
3.90352e-15
4.57491e-15
5.35349e-15
6.25488e-15
7.29668e-15
8.49873e-15
9.88335e-15
1.14755e-14
1.33033e-14
1.53979e-14
1.7794e-14
2.05305e-14
2.36502e-14
2.72004e-14
3.12337e-14
3.58074e-14
4.09849e-14
4.68354e-14
5.34345e-14
6.08645e-14
6.92149e-14
7.85825e-14
8.90719e-14
1.00796e-13
1.13875e-13
1.28439e-13
1.44626e-13
1.62582e-13
1.82463e-13
2.04433e-13
2.28665e-13
2.55338e-13
2.84643e-13
3.16773e-13
3.51932e-13
3.90327e-13
4.32172e-13
4.77682e-13
5.27077e-13
5.80575e-13
6.38395e-13
7.00753e-13
7.6786e-13
8.3992e-13
9.17126e-13
9.99661e-13
1.08769e-12
1.18137e-12
1.28082e-12
1.38614e-12
1.49742e-12
1.61471e-12
1.738e-12
1.86728e-12
2.00249e-12
2.14351e-12
2.29018e-12
2.44231e-12
2.59964e-12
2.76185e-12
2.92858e-12
3.0994e-12
3.27384e-12
3.45135e-12
3.63133e-12
3.81312e-12
3.99602e-12
4.17925e-12
4.36199e-12
4.54339e-12
4.72254e-12
4.89848e-12
5.07025e-12
5.23684e-12
5.39724e-12
5.55042e-12
5.69537e-12
5.83106e-12
5.95651e-12
6.07076e-12
6.17289e-12
6.26202e-12
6.33737e-12
6.3982e-12
6.44387e-12
6.47383e-12
6.48764e-12
6.48495e-12
6.46556e-12
6.42938e-12
6.37644e-12
6.30691e-12
6.22111e-12
6.11947e-12
6.00256e-12
5.8711e-12
5.7259e-12
5.56792e-12
5.39819e-12
5.21788e-12
5.0282e-12
4.83048e-12
4.62608e-12
4.4164e-12
4.20288e-12
3.98698e-12
3.77013e-12
3.55376e-12
3.33927e-12
3.128e-12
2.92123e-12
2.72016e-12
2.52591e-12
2.33952e-12
2.16192e-12
1.99391e-12
1.83622e-12
1.68943e-12
1.55404e-12
1.43041e-12
1.3188e-12
1.21935e-12
1.13212e-12
1.05705e-12
9.93982e-13
9.42675e-13
9.02798e-13
8.73942e-13
8.55617e-13
8.47262e-13
8.48246e-13
8.57876e-13
8.75395e-13
8.99993e-13
9.30807e-13
9.66925e-13
1.0074e-12
1.05124e-12
1.09744e-12
1.14498e-12
1.19281e-12
1.23991e-12
1.28527e-12
1.32792e-12
1.36693e-12
1.40144e-12
1.43065e-12
1.45387e-12
1.47052e-12
1.48013e-12
1.48235e-12
1.47698e-12
1.46395e-12
1.44332e-12
1.41531e-12
1.38026e-12
1.33863e-12
1.29099e-12
1.238e-12
1.1804e-12
1.119e-12
1.05462e-12
9.88109e-13
9.20324e-13
8.52084e-13
7.8417e-13
7.1731e-13
6.52159e-13
5.89296e-13
5.29213e-13
4.7231e-13
4.18899e-13
3.69199e-13
3.23346e-13
2.81393e-13
2.43325e-13
2.09061e-13
1.78467e-13
1.51367e-13
1.2755e-13
1.0678e-13
8.88081e-14
7.33762e-14
6.02264e-14
4.91064e-14
3.97738e-14
3.20004e-14
2.55742e-14
2.03015e-14
1.60076e-14
1.25368e-14
9.75212e-15
7.53456e-15
5.78168e-15
4.40636e-15
3.33524e-15
2.50721e-15
1.8718e-15
1.38781e-15
1.02187e-15
7.47222e-16
5.42604e-16
3.91284e-16
2.80201e-16
1.99255e-16
1.40704e-16
9.86636e-17
6.86994e-17
4.74999e-17
3.26117e-17
2.22333e-17
1.50526e-17
1.01223e-17
6.76436e-18
4.49808e-18
2.98626e-18
1.9956e-18
1.36803e-18
1.00047e-18
8.31164e-19
1.47828e-17
1.54783e-17
1.69034e-17
1.91101e-17
2.21791e-17
2.62226e-17
3.13876e-17
3.78607e-17
4.58743e-17
5.57132e-17
6.77236e-17
8.23231e-17
1.00013e-16
1.21391e-16
1.47169e-16
1.78194e-16
2.15465e-16
2.60165e-16
3.13684e-16
3.77661e-16
4.54016e-16
5.44998e-16
6.5324e-16
7.81808e-16
9.34277e-16
1.1148e-15
1.3282e-15
1.58006e-15
1.87681e-15
2.22591e-15
2.63592e-15
3.11666e-15
3.67943e-15
4.33711e-15
5.10446e-15
5.99826e-15
7.0376e-15
8.24415e-15
9.64244e-15
1.12602e-14
1.31287e-14
1.5283e-14
1.77626e-14
2.06117e-14
2.38797e-14
2.76216e-14
3.18984e-14
3.67782e-14
4.23359e-14
4.86546e-14
5.58253e-14
6.39483e-14
7.31334e-14
8.35005e-14
9.51801e-14
1.08314e-13
1.23056e-13
1.39572e-13
1.5804e-13
1.78653e-13
2.01614e-13
2.27144e-13
2.55474e-13
2.8685e-13
3.21531e-13
3.59791e-13
4.01914e-13
4.48197e-13
4.98949e-13
5.54487e-13
6.15139e-13
6.81238e-13
7.53121e-13
8.31131e-13
9.1561e-13
1.0069e-12
1.10532e-12
1.21121e-12
1.32489e-12
1.44663e-12
1.57673e-12
1.71542e-12
1.86294e-12
2.01947e-12
2.18516e-12
2.36011e-12
2.54437e-12
2.73795e-12
2.94078e-12
3.15274e-12
3.37365e-12
3.60322e-12
3.84113e-12
4.08694e-12
4.34015e-12
4.60016e-12
4.8663e-12
5.13778e-12
5.41375e-12
5.69326e-12
5.97527e-12
6.25867e-12
6.54225e-12
6.82473e-12
7.10479e-12
7.381e-12
7.65193e-12
7.91605e-12
8.17185e-12
8.41778e-12
8.65226e-12
8.87376e-12
9.08075e-12
9.27172e-12
9.44523e-12
9.59992e-12
9.73448e-12
9.84774e-12
9.93861e-12
1.00062e-11
1.00496e-11
1.00682e-11
1.00616e-11
1.00295e-11
9.97168e-12
9.88834e-12
9.77971e-12
9.6463e-12
9.48878e-12
9.30804e-12
9.10515e-12
8.88136e-12
8.6381e-12
8.37695e-12
8.09964e-12
7.80802e-12
7.50405e-12
7.18978e-12
6.8673e-12
6.53877e-12
6.20636e-12
5.8722e-12
5.53845e-12
5.20717e-12
4.88036e-12
4.55994e-12
4.2477e-12
3.94532e-12
3.65434e-12
3.37615e-12
3.11196e-12
2.86285e-12
2.6297e-12
2.41325e-12
2.21405e-12
2.0325e-12
1.86883e-12
1.72312e-12
1.59531e-12
1.48519e-12
1.39243e-12
1.31656e-12
1.25703e-12
1.21314e-12
1.18412e-12
1.16911e-12
1.16714e-12
1.17719e-12
1.19814e-12
1.22882e-12
1.268e-12
1.31439e-12
1.36666e-12
1.42344e-12
1.48334e-12
1.54496e-12
1.60688e-12
1.66773e-12
1.72615e-12
1.78085e-12
1.83058e-12
1.87423e-12
1.91075e-12
1.93926e-12
1.95899e-12
1.96935e-12
1.96993e-12
1.96048e-12
1.94094e-12
1.91144e-12
1.87229e-12
1.82396e-12
1.76708e-12
1.70244e-12
1.63091e-12
1.55351e-12
1.47128e-12
1.38533e-12
1.29677e-12
1.20673e-12
1.11628e-12
1.02643e-12
9.38137e-13
8.52238e-13
7.6948e-13
6.90493e-13
6.15787e-13
5.45752e-13
4.8066e-13
4.20672e-13
3.65846e-13
3.16145e-13
2.71454e-13
2.31587e-13
1.96303e-13
1.65319e-13
1.38321e-13
1.14977e-13
9.49478e-14
7.78921e-14
6.34787e-14
5.139e-14
4.1327e-14
3.30131e-14
2.61953e-14
2.06462e-14
1.6163e-14
1.2568e-14
9.70649e-15
7.44562e-15
5.67251e-15
4.29218e-15
3.22553e-15
2.40734e-15
1.78435e-15
1.31347e-15
9.60185e-16
6.97068e-16
5.02546e-16
3.59791e-16
2.55795e-16
1.80591e-16
1.26606e-16
8.81385e-17
6.09289e-17
4.18242e-17
2.85092e-17
1.92985e-17
1.29756e-17
8.66986e-18
5.76439e-18
3.82646e-18
2.55674e-18
1.75248e-18
1.28148e-18
1.06454e-18
2.68216e-17
2.80819e-17
3.06647e-17
3.46639e-17
4.02256e-17
4.75527e-17
5.6911e-17
6.86382e-17
8.31543e-17
1.00974e-16
1.22724e-16
1.49158e-16
1.81181e-16
2.19875e-16
2.66524e-16
3.22655e-16
3.90072e-16
4.70908e-16
5.67671e-16
6.83313e-16
8.21292e-16
9.85661e-16
1.18115e-15
1.41329e-15
1.68849e-15
2.01422e-15
2.39913e-15
2.85325e-15
3.38812e-15
4.01709e-15
4.75548e-15
5.62089e-15
6.63349e-15
7.81632e-15
9.19567e-15
1.08015e-14
1.26678e-14
1.48331e-14
1.7341e-14
2.02408e-14
2.35877e-14
2.74441e-14
3.18797e-14
3.69726e-14
4.28096e-14
4.94878e-14
5.71145e-14
6.58088e-14
7.57022e-14
8.69396e-14
9.96802e-14
1.14098e-13
1.30385e-13
1.48747e-13
1.69411e-13
1.92621e-13
2.18641e-13
2.47756e-13
2.80272e-13
3.16514e-13
3.56831e-13
4.01593e-13
4.51192e-13
5.0604e-13
5.66573e-13
6.33242e-13
7.06521e-13
7.86899e-13
8.74881e-13
9.70986e-13
1.07574e-12
1.18968e-12
1.31335e-12
1.44728e-12
1.59201e-12
1.74806e-12
1.91594e-12
2.09614e-12
2.28912e-12
2.49531e-12
2.71509e-12
2.9488e-12
3.19672e-12
3.45906e-12
3.73598e-12
4.02754e-12
4.33371e-12
4.65439e-12
4.98935e-12
5.33826e-12
5.70068e-12
6.07605e-12
6.46366e-12
6.86269e-12
7.27219e-12
7.69105e-12
8.11803e-12
8.55177e-12
8.99075e-12
9.43332e-12
9.87773e-12
1.03221e-11
1.07644e-11
1.12025e-11
1.16342e-11
1.20573e-11
1.24694e-11
1.28682e-11
1.32513e-11
1.36162e-11
1.39605e-11
1.4282e-11
1.45782e-11
1.48471e-11
1.50865e-11
1.52945e-11
1.54692e-11
1.5609e-11
1.57126e-11
1.57787e-11
1.58063e-11
1.57948e-11
1.57437e-11
1.5653e-11
1.55227e-11
1.53533e-11
1.51457e-11
1.49007e-11
1.46199e-11
1.43048e-11
1.39574e-11
1.35798e-11
1.31744e-11
1.2744e-11
1.22912e-11
1.18191e-11
1.13308e-11
1.08295e-11
1.03183e-11
9.80069e-12
9.27983e-12
8.75898e-12
8.24129e-12
7.72981e-12
7.22743e-12
6.7369e-12
6.26078e-12
5.8014e-12
5.36089e-12
4.94111e-12
4.54372e-12
4.17007e-12
3.8213e-12
3.49828e-12
3.20163e-12
2.93174e-12
2.68876e-12
2.47262e-12
2.28304e-12
2.11957e-12
1.98155e-12
1.86817e-12
1.77847e-12
1.71135e-12
1.66557e-12
1.63979e-12
1.63254e-12
1.64229e-12
1.66738e-12
1.7061e-12
1.75666e-12
1.81721e-12
1.88586e-12
1.96068e-12
2.03971e-12
2.12101e-12
2.20264e-12
2.28268e-12
2.35929e-12
2.43072e-12
2.49529e-12
2.5515e-12
2.59796e-12
2.6335e-12
2.65713e-12
2.66808e-12
2.66583e-12
2.65009e-12
2.62083e-12
2.57825e-12
2.52281e-12
2.45518e-12
2.37625e-12
2.28708e-12
2.18891e-12
2.08307e-12
1.97101e-12
1.85421e-12
1.73417e-12
1.61239e-12
1.49029e-12
1.36922e-12
1.25045e-12
1.13507e-12
1.02408e-12
9.18279e-13
8.18341e-13
7.24761e-13
6.37884e-13
5.57904e-13
4.84879e-13
4.18745e-13
3.59331e-13
3.06376e-13
2.59547e-13
2.18458e-13
1.82683e-13
1.51773e-13
1.25269e-13
1.02716e-13
8.36689e-14
6.77037e-14
5.44218e-14
4.34546e-14
3.4466e-14
2.71538e-14
2.12493e-14
1.65167e-14
1.27515e-14
9.77792e-15
7.44687e-15
5.63293e-15
4.23176e-15
3.15738e-15
2.33961e-15
1.72173e-15
1.2583e-15
9.13257e-16
6.58245e-16
4.71151e-16
3.34892e-16
2.36383e-16
1.65687e-16
1.15323e-16
7.97065e-17
5.47044e-17
3.72828e-17
2.52336e-17
1.69635e-17
1.13329e-17
7.53395e-18
5.00046e-18
3.34075e-18
2.28957e-18
1.67403e-18
1.39052e-18
4.83543e-17
5.06238e-17
5.52749e-17
6.24767e-17
7.24919e-17
8.56849e-17
1.02534e-16
1.23646e-16
1.49775e-16
1.81847e-16
2.20986e-16
2.68547e-16
3.26154e-16
3.95749e-16
4.79638e-16
5.80559e-16
7.01748e-16
8.47027e-16
1.02089e-15
1.22863e-15
1.47643e-15
1.77155e-15
2.12246e-15
2.53902e-15
3.03272e-15
3.61689e-15
4.30698e-15
5.12085e-15
6.07911e-15
7.20553e-15
8.52739e-15
1.0076e-14
1.18872e-14
1.4002e-14
1.64669e-14
1.93352e-14
2.26669e-14
2.65304e-14
3.10027e-14
3.61706e-14
4.21319e-14
4.89962e-14
5.68862e-14
6.59389e-14
7.6307e-14
8.81601e-14
1.01686e-13
1.17093e-13
1.3461e-13
1.54489e-13
1.77006e-13
2.02463e-13
2.31191e-13
2.63547e-13
2.9992e-13
3.40729e-13
3.86428e-13
4.37501e-13
4.94468e-13
5.57884e-13
6.28338e-13
7.06453e-13
7.92887e-13
8.8833e-13
9.93505e-13
1.10916e-12
1.23609e-12
1.37508e-12
1.52696e-12
1.69257e-12
1.87276e-12
2.06838e-12
2.2803e-12
2.50935e-12
2.75637e-12
3.02215e-12
3.30747e-12
3.61305e-12
3.93956e-12
4.28759e-12
4.65766e-12
5.05022e-12
5.46558e-12
5.90396e-12
6.36544e-12
6.84996e-12
7.35733e-12
7.88716e-12
8.4389e-12
9.01184e-12
9.60504e-12
1.02174e-11
1.08475e-11
1.14939e-11
1.21548e-11
1.28282e-11
1.35119e-11
1.42036e-11
1.49006e-11
1.56001e-11
1.62992e-11
1.69946e-11
1.76832e-11
1.83613e-11
1.90256e-11
1.96722e-11
2.02977e-11
2.08981e-11
2.14697e-11
2.2009e-11
2.25121e-11
2.29757e-11
2.33962e-11
2.37706e-11
2.40957e-11
2.43688e-11
2.45875e-11
2.47496e-11
2.48533e-11
2.4897e-11
2.48799e-11
2.48012e-11
2.46608e-11
2.4459e-11
2.41964e-11
2.38742e-11
2.34942e-11
2.30583e-11
2.25691e-11
2.20295e-11
2.14429e-11
2.08129e-11
2.01436e-11
1.94393e-11
1.87044e-11
1.79437e-11
1.71621e-11
1.63646e-11
1.55562e-11
1.47418e-11
1.39264e-11
1.31149e-11
1.23119e-11
1.15218e-11
1.07488e-11
9.99695e-12
9.26978e-12
8.57057e-12
7.90223e-12
7.26731e-12
6.66794e-12
6.10591e-12
5.58259e-12
5.09899e-12
4.65575e-12
4.25315e-12
3.89115e-12
3.5694e-12
3.28725e-12
3.04379e-12
2.83784e-12
2.66803e-12
2.53277e-12
2.43029e-12
2.35866e-12
2.31578e-12
2.29945e-12
2.30733e-12
2.337e-12
2.38592e-12
2.4515e-12
2.53106e-12
2.62189e-12
2.72126e-12
2.8264e-12
2.93459e-12
3.04311e-12
3.14933e-12
3.25071e-12
3.34483e-12
3.42943e-12
3.50245e-12
3.56206e-12
3.60667e-12
3.63498e-12
3.646e-12
3.63906e-12
3.61381e-12
3.57027e-12
3.50877e-12
3.42997e-12
3.33484e-12
3.22462e-12
3.10078e-12
2.96503e-12
2.8192e-12
2.66525e-12
2.50521e-12
2.34111e-12
2.17496e-12
2.00868e-12
1.8441e-12
1.68287e-12
1.52649e-12
1.37624e-12
1.2332e-12
1.09825e-12
9.72017e-13
8.54951e-13
7.47286e-13
6.49077e-13
5.60215e-13
4.8045e-13
4.09416e-13
3.46649e-13
2.91616e-13
2.43735e-13
2.02393e-13
1.66969e-13
1.36844e-13
1.11417e-13
9.01176e-14
7.24076e-14
5.77919e-14
4.58194e-14
3.60844e-14
2.82274e-14
2.19328e-14
1.6927e-14
1.29754e-14
9.87886e-15
7.4702e-15
5.61034e-15
4.18475e-15
3.10003e-15
2.28072e-15
1.6664e-15
1.20916e-15
8.71316e-16
6.23521e-16
4.43101e-16
3.12698e-16
2.19135e-16
1.52496e-16
1.0538e-16
7.23126e-17
4.92754e-17
3.33453e-17
2.24134e-17
1.49718e-17
9.95172e-18
6.60434e-18
4.41172e-18
3.02319e-18
2.21015e-18
1.8357e-18
8.65172e-17
9.05732e-17
9.88863e-17
1.11758e-16
1.29658e-16
1.53235e-16
1.83343e-16
2.21065e-16
2.67746e-16
3.25038e-16
3.94944e-16
4.7988e-16
5.82743e-16
7.06988e-16
8.56728e-16
1.03684e-15
1.25307e-15
1.51224e-15
1.82234e-15
2.19278e-15
2.63455e-15
3.16056e-15
3.78584e-15
4.52791e-15
5.40715e-15
6.4472e-15
7.67544e-15
9.12353e-15
1.0828e-14
1.28308e-14
1.51802e-14
1.79316e-14
2.11482e-14
2.49023e-14
2.92761e-14
3.4363e-14
4.02692e-14
4.71144e-14
5.50339e-14
6.41803e-14
7.47245e-14
8.68585e-14
1.00797e-13
1.16778e-13
1.35069e-13
1.55965e-13
1.79792e-13
2.06911e-13
2.37718e-13
2.7265e-13
3.12183e-13
3.56838e-13
4.0718e-13
4.63825e-13
5.27437e-13
5.98731e-13
6.78479e-13
7.67504e-13
8.66685e-13
9.76958e-13
1.09931e-12
1.23479e-12
1.3845e-12
1.54958e-12
1.73123e-12
1.93068e-12
2.14922e-12
2.38816e-12
2.64882e-12
2.93257e-12
3.24075e-12
3.57474e-12
3.93586e-12
4.32543e-12
4.74472e-12
5.19496e-12
5.67727e-12
6.19272e-12
6.74224e-12
7.32665e-12
7.94661e-12
8.60264e-12
9.29505e-12
1.0024e-11
1.07892e-11
1.15906e-11
1.24273e-11
1.32985e-11
1.42031e-11
1.51395e-11
1.6106e-11
1.71003e-11
1.81201e-11
1.91624e-11
2.02243e-11
2.13021e-11
2.23921e-11
2.34901e-11
2.45918e-11
2.56924e-11
2.67869e-11
2.78702e-11
2.89369e-11
2.99813e-11
3.09978e-11
3.19806e-11
3.2924e-11
3.3822e-11
3.46689e-11
3.54591e-11
3.61871e-11
3.68478e-11
3.7436e-11
3.79473e-11
3.83773e-11
3.87222e-11
3.89788e-11
3.91443e-11
3.92165e-11
3.91938e-11
3.90753e-11
3.88606e-11
3.85503e-11
3.81455e-11
3.7648e-11
3.70602e-11
3.63855e-11
3.56276e-11
3.47911e-11
3.38811e-11
3.29031e-11
3.18634e-11
3.07684e-11
2.96252e-11
2.84409e-11
2.7223e-11
2.59791e-11
2.47168e-11
2.34439e-11
2.21678e-11
2.08959e-11
1.96355e-11
1.83934e-11
1.71761e-11
1.59895e-11
1.48394e-11
1.37308e-11
1.26682e-11
1.16556e-11
1.06964e-11
9.79334e-12
8.94866e-12
8.16399e-12
7.4404e-12
6.77845e-12
6.17815e-12
5.63906e-12
5.1603e-12
4.74056e-12
4.37819e-12
4.07117e-12
3.81721e-12
3.61374e-12
3.45795e-12
3.34683e-12
3.27719e-12
3.24567e-12
3.24878e-12
3.28292e-12
3.34436e-12
3.42932e-12
3.53395e-12
3.65437e-12
3.78666e-12
3.92693e-12
4.07134e-12
4.2161e-12
4.35755e-12
4.49217e-12
4.61664e-12
4.72789e-12
4.82309e-12
4.89977e-12
4.95582e-12
4.98949e-12
4.99951e-12
4.985e-12
4.94558e-12
4.88133e-12
4.79275e-12
4.68083e-12
4.54692e-12
4.39277e-12
4.22045e-12
4.03227e-12
3.83079e-12
3.61869e-12
3.39871e-12
3.17363e-12
2.94617e-12
2.71893e-12
2.49435e-12
2.27467e-12
2.06187e-12
1.85767e-12
1.66351e-12
1.48052e-12
1.30953e-12
1.15112e-12
1.00556e-12
8.72902e-13
7.52974e-13
6.4541e-13
5.49694e-13
4.6518e-13
3.91133e-13
3.26752e-13
2.712e-13
2.23629e-13
1.83199e-13
1.49095e-13
1.20542e-13
9.68134e-14
7.72409e-14
6.12157e-14
4.81919e-14
3.76851e-14
2.92714e-14
2.25831e-14
1.73055e-14
1.31716e-14
9.95712e-15
7.47593e-15
5.57475e-15
4.12864e-15
3.0367e-15
2.21821e-15
1.60918e-15
1.15931e-15
8.29432e-16
5.89309e-16
4.15795e-16
2.91329e-16
2.02699e-16
1.40048e-16
9.60865e-17
6.54652e-17
4.42946e-17
2.97689e-17
1.98824e-17
1.32141e-17
8.76828e-18
5.85651e-18
4.01275e-18
2.93325e-18
2.4361e-18
1.53587e-16
1.60779e-16
1.75522e-16
1.98348e-16
2.3009e-16
2.71897e-16
3.2528e-16
3.92155e-16
4.74906e-16
5.76454e-16
7.00345e-16
8.50853e-16
1.0331e-15
1.2532e-15
1.51842e-15
1.83737e-15
2.22023e-15
2.67903e-15
3.22788e-15
3.88337e-15
4.66494e-15
5.59531e-15
6.70101e-15
8.0129e-15
9.56688e-15
1.14046e-14
1.35742e-14
1.61313e-14
1.91401e-14
2.26745e-14
2.68191e-14
3.1671e-14
3.73411e-14
4.39559e-14
5.16593e-14
6.06149e-14
7.10077e-14
8.30471e-14
9.69689e-14
1.13039e-13
1.31554e-13
1.52849e-13
1.77294e-13
2.05306e-13
2.37344e-13
2.73919e-13
3.15595e-13
3.62993e-13
4.16795e-13
4.7775e-13
5.46676e-13
6.24462e-13
7.12076e-13
8.10564e-13
9.21056e-13
1.04477e-12
1.183e-12
1.33713e-12
1.50866e-12
1.69915e-12
1.91024e-12
2.14368e-12
2.4013e-12
2.68498e-12
2.99669e-12
3.33847e-12
3.71238e-12
4.12055e-12
4.56513e-12
5.04828e-12
5.57215e-12
6.13887e-12
6.75052e-12
7.40913e-12
8.11663e-12
8.87481e-12
9.68536e-12
1.05497e-11
1.14693e-11
1.2445e-11
1.34777e-11
1.45679e-11
1.57157e-11
1.69209e-11
1.8183e-11
1.9501e-11
2.08734e-11
2.22983e-11
2.37733e-11
2.52956e-11
2.68618e-11
2.84678e-11
3.01093e-11
3.17813e-11
3.34782e-11
3.5194e-11
3.69223e-11
3.8656e-11
4.03877e-11
4.21096e-11
4.38136e-11
4.54911e-11
4.71335e-11
4.87318e-11
5.0277e-11
5.176e-11
5.31719e-11
5.45036e-11
5.57464e-11
5.68918e-11
5.79317e-11
5.88585e-11
5.9665e-11
6.03446e-11
6.08916e-11
6.13008e-11
6.1568e-11
6.16898e-11
6.16638e-11
6.14887e-11
6.1164e-11
6.06904e-11
6.00696e-11
5.93044e-11
5.83988e-11
5.73575e-11
5.61866e-11
5.4893e-11
5.34843e-11
5.19692e-11
5.03571e-11
4.8658e-11
4.68825e-11
4.50416e-11
4.31467e-11
4.12095e-11
3.92416e-11
3.72549e-11
3.52608e-11
3.32708e-11
3.12959e-11
2.93465e-11
2.74328e-11
2.55641e-11
2.37491e-11
2.19955e-11
2.03106e-11
1.87005e-11
1.71706e-11
1.57252e-11
1.4368e-11
1.31015e-11
1.19276e-11
1.08474e-11
9.86087e-12
8.96764e-12
8.16647e-12
7.45554e-12
6.83244e-12
6.29429e-12
5.83773e-12
5.45901e-12
5.15404e-12
4.91843e-12
4.74751e-12
4.63643e-12
4.58012e-12
4.57338e-12
4.61086e-12
4.68714e-12
4.79669e-12
4.93396e-12
5.09339e-12
5.26941e-12
5.45652e-12
5.64929e-12
5.84245e-12
6.0309e-12
6.20976e-12
6.37448e-12
6.52082e-12
6.64497e-12
6.74356e-12
6.81375e-12
6.85324e-12
6.86034e-12
6.83396e-12
6.77364e-12
6.67957e-12
6.55255e-12
6.39396e-12
6.20576e-12
5.99038e-12
5.75068e-12
5.48989e-12
5.2115e-12
4.91917e-12
4.61667e-12
4.30778e-12
3.99616e-12
3.68534e-12
3.37862e-12
3.07899e-12
2.78912e-12
2.51129e-12
2.2474e-12
1.99896e-12
1.76705e-12
1.55239e-12
1.35532e-12
1.17587e-12
1.01377e-12
8.68501e-13
7.39322e-13
6.25344e-13
5.25548e-13
4.38837e-13
3.64064e-13
3.00071e-13
2.45716e-13
1.99891e-13
1.61544e-13
1.29694e-13
1.03435e-13
8.19451e-14
6.44881e-14
5.04112e-14
3.91432e-14
3.01897e-14
2.31273e-14
1.75974e-14
1.3299e-14
9.98229e-15
7.44174e-15
5.5099e-15
4.05165e-15
2.9589e-15
2.14602e-15
1.54573e-15
1.10566e-15
7.85414e-16
5.54053e-16
3.88129e-16
2.70003e-16
1.86518e-16
1.27949e-16
8.71603e-17
5.89651e-17
3.9623e-17
2.64604e-17
1.75837e-17
1.16663e-17
7.79117e-18
5.33767e-18
3.9013e-18
3.23983e-18
2.70494e-16
2.83148e-16
3.09087e-16
3.49249e-16
4.05093e-16
4.78642e-16
5.72549e-16
6.9018e-16
8.35722e-16
1.0143e-15
1.23215e-15
1.49677e-15
1.81715e-15
2.20401e-15
2.67011e-15
3.23055e-15
3.90319e-15
4.70908e-15
5.67298e-15
6.82395e-15
8.19602e-15
9.82897e-15
1.17692e-14
1.40707e-14
1.67963e-14
2.00186e-14
2.38218e-14
2.83031e-14
3.35745e-14
3.97645e-14
4.70209e-14
5.55127e-14
6.54327e-14
7.70012e-14
9.04681e-14
1.06117e-13
1.2427e-13
1.45288e-13
1.69582e-13
1.97609e-13
2.29884e-13
2.66983e-13
3.09547e-13
3.5829e-13
4.14004e-13
4.77565e-13
5.4994e-13
6.32192e-13
7.25488e-13
8.31105e-13
9.50435e-13
1.08499e-12
1.23641e-12
1.40647e-12
1.59707e-12
1.81027e-12
2.04823e-12
2.31331e-12
2.60796e-12
2.9348e-12
3.29657e-12
3.69616e-12
4.13655e-12
4.62086e-12
5.1523e-12
5.73417e-12
6.36983e-12
7.06268e-12
7.81616e-12
8.63367e-12
9.51862e-12
1.04743e-11
1.15039e-11
1.26106e-11
1.37971e-11
1.50662e-11
1.64202e-11
1.78612e-11
1.93908e-11
2.10103e-11
2.27205e-11
2.45216e-11
2.64134e-11
2.83949e-11
3.04645e-11
3.262e-11
3.48584e-11
3.71758e-11
3.95677e-11
4.20286e-11
4.45525e-11
4.71322e-11
4.97598e-11
5.24267e-11
5.51234e-11
5.78395e-11
6.05642e-11
6.32857e-11
6.59918e-11
6.86696e-11
7.1306e-11
7.38872e-11
7.63992e-11
7.88281e-11
8.11597e-11
8.33798e-11
8.54745e-11
8.74303e-11
8.9234e-11
9.0873e-11
9.23354e-11
9.36102e-11
9.46873e-11
9.55577e-11
9.62136e-11
9.66483e-11
9.68568e-11
9.68354e-11
9.65819e-11
9.60957e-11
9.53778e-11
9.4431e-11
9.32595e-11
9.18692e-11
9.02678e-11
8.84641e-11
8.64688e-11
8.42937e-11
8.19521e-11
7.94581e-11
7.68271e-11
7.40754e-11
7.12197e-11
6.82775e-11
6.52665e-11
6.22048e-11
5.91103e-11
5.60007e-11
5.28935e-11
4.98056e-11
4.67533e-11
4.37519e-11
4.08161e-11
3.79591e-11
3.51933e-11