/*--------------------------------*- C++ -*----------------------------------*\
| =========                 |                                                 |
| \\      /  F ield         | OpenFOAM: The Open Source CFD Toolbox           |
|  \\    /   O peration     | Version:  v2012                                 |
|   \\  /    A nd           | Website:  www.openfoam.com                      |
|    \\/     M anipulation  |                                                 |
\*---------------------------------------------------------------------------*/
FoamFile
{
    version     2.0;
    format      ascii;
    class       volVectorField;
    location    "6.75";
    object      Psi;
}
// * * * * * * * * * * * * * * * * * * * * * * * * * * * * * * * * * * * * * //

dimensions      [0 2 -1 0 0 0 0];


internalField   nonuniform List<vector> 
65536
(
(0 0 9.26849e-06)
(0 0 2.78053e-05)
(0 0 4.63414e-05)
(0 0 6.48765e-05)
(0 0 8.341e-05)
(0 0 0.000101942)
(0 0 0.000120471)
(0 0 0.000138997)
(0 0 0.00015752)
(0 0 0.000176039)
(0 0 0.000194554)
(0 0 0.000213063)
(0 0 0.000231567)
(0 0 0.000250064)
(0 0 0.000268554)
(0 0 0.000287036)
(0 0 0.000305509)
(0 0 0.000323972)
(0 0 0.000342425)
(0 0 0.000360866)
(0 0 0.000379294)
(0 0 0.000397708)
(0 0 0.000416106)
(0 0 0.000434489)
(0 0 0.000452853)
(0 0 0.000471198)
(0 0 0.000489522)
(0 0 0.000507823)
(0 0 0.000526099)
(0 0 0.00054435)
(0 0 0.000562572)
(0 0 0.000580764)
(0 0 0.000598923)
(0 0 0.000617048)
(0 0 0.000635135)
(0 0 0.000653183)
(0 0 0.000671189)
(0 0 0.00068915)
(0 0 0.000707063)
(0 0 0.000724926)
(0 0 0.000742735)
(0 0 0.000760487)
(0 0 0.00077818)
(0 0 0.000795808)
(0 0 0.00081337)
(0 0 0.000830861)
(0 0 0.000848278)
(0 0 0.000865617)
(0 0 0.000882873)
(0 0 0.000900044)
(0 0 0.000917123)
(0 0 0.000934108)
(0 0 0.000950994)
(0 0 0.000967777)
(0 0 0.00098445)
(0 0 0.00100101)
(0 0 0.00101745)
(0 0 0.00103377)
(0 0 0.00104997)
(0 0 0.00106603)
(0 0 0.00108195)
(0 0 0.00109773)
(0 0 0.00111336)
(0 0 0.00112883)
(0 0 0.00114415)
(0 0 0.0011593)
(0 0 0.00117428)
(0 0 0.00118909)
(0 0 0.00120371)
(0 0 0.00121815)
(0 0 0.00123239)
(0 0 0.00124644)
(0 0 0.00126028)
(0 0 0.00127392)
(0 0 0.00128733)
(0 0 0.00130053)
(0 0 0.0013135)
(0 0 0.00132624)
(0 0 0.00133874)
(0 0 0.001351)
(0 0 0.00136301)
(0 0 0.00137477)
(0 0 0.00138627)
(0 0 0.00139751)
(0 0 0.00140848)
(0 0 0.00141917)
(0 0 0.00142959)
(0 0 0.00143972)
(0 0 0.00144957)
(0 0 0.00145912)
(0 0 0.00146838)
(0 0 0.00147734)
(0 0 0.001486)
(0 0 0.00149435)
(0 0 0.00150239)
(0 0 0.00151012)
(0 0 0.00151753)
(0 0 0.00152462)
(0 0 0.00153138)
(0 0 0.00153782)
(0 0 0.00154394)
(0 0 0.00154972)
(0 0 0.00155517)
(0 0 0.00156029)
(0 0 0.00156508)
(0 0 0.00156953)
(0 0 0.00157364)
(0 0 0.00157742)
(0 0 0.00158085)
(0 0 0.00158395)
(0 0 0.00158671)
(0 0 0.00158913)
(0 0 0.00159122)
(0 0 0.00159296)
(0 0 0.00159437)
(0 0 0.00159545)
(0 0 0.00159619)
(0 0 0.00159659)
(0 0 0.00159666)
(0 0 0.00159641)
(0 0 0.00159582)
(0 0 0.00159492)
(0 0 0.00159368)
(0 0 0.00159213)
(0 0 0.00159026)
(0 0 0.00158807)
(0 0 0.00158557)
(0 0 0.00158276)
(0 0 0.00157964)
(0 0 0.00157623)
(0 0 0.00157251)
(0 0 0.0015685)
(0 0 0.0015642)
(0 0 0.00155961)
(0 0 0.00155473)
(0 0 0.00154958)
(0 0 0.00154415)
(0 0 0.00153845)
(0 0 0.00153248)
(0 0 0.00152625)
(0 0 0.00151976)
(0 0 0.00151302)
(0 0 0.00150604)
(0 0 0.0014988)
(0 0 0.00149133)
(0 0 0.00148362)
(0 0 0.00147568)
(0 0 0.00146752)
(0 0 0.00145914)
(0 0 0.00145054)
(0 0 0.00144172)
(0 0 0.00143271)
(0 0 0.00142348)
(0 0 0.00141407)
(0 0 0.00140446)
(0 0 0.00139466)
(0 0 0.00138468)
(0 0 0.00137451)
(0 0 0.00136418)
(0 0 0.00135367)
(0 0 0.001343)
(0 0 0.00133217)
(0 0 0.00132118)
(0 0 0.00131004)
(0 0 0.00129875)
(0 0 0.00128732)
(0 0 0.00127575)
(0 0 0.00126404)
(0 0 0.0012522)
(0 0 0.00124023)
(0 0 0.00122814)
(0 0 0.00121592)
(0 0 0.0012036)
(0 0 0.00119115)
(0 0 0.0011786)
(0 0 0.00116595)
(0 0 0.00115319)
(0 0 0.00114033)
(0 0 0.00112738)
(0 0 0.00111433)
(0 0 0.0011012)
(0 0 0.00108798)
(0 0 0.00107468)
(0 0 0.0010613)
(0 0 0.00104784)
(0 0 0.00103431)
(0 0 0.0010207)
(0 0 0.00100703)
(0 0 0.000993291)
(0 0 0.000979489)
(0 0 0.000965626)
(0 0 0.000951705)
(0 0 0.000937727)
(0 0 0.000923695)
(0 0 0.000909612)
(0 0 0.000895479)
(0 0 0.000881299)
(0 0 0.000867073)
(0 0 0.000852804)
(0 0 0.000838493)
(0 0 0.000824143)
(0 0 0.000809755)
(0 0 0.000795331)
(0 0 0.000780872)
(0 0 0.00076638)
(0 0 0.000751857)
(0 0 0.000737304)
(0 0 0.000722723)
(0 0 0.000708115)
(0 0 0.000693481)
(0 0 0.000678824)
(0 0 0.000664143)
(0 0 0.00064944)
(0 0 0.000634716)
(0 0 0.000619973)
(0 0 0.000605212)
(0 0 0.000590433)
(0 0 0.000575637)
(0 0 0.000560826)
(0 0 0.000546001)
(0 0 0.000531161)
(0 0 0.000516309)
(0 0 0.000501445)
(0 0 0.000486569)
(0 0 0.000471682)
(0 0 0.000456785)
(0 0 0.000441879)
(0 0 0.000426965)
(0 0 0.000412042)
(0 0 0.000397111)
(0 0 0.000382174)
(0 0 0.000367229)
(0 0 0.000352279)
(0 0 0.000337323)
(0 0 0.000322362)
(0 0 0.000307396)
(0 0 0.000292425)
(0 0 0.00027745)
(0 0 0.000262472)
(0 0 0.00024749)
(0 0 0.000232505)
(0 0 0.000217517)
(0 0 0.000202526)
(0 0 0.000187533)
(0 0 0.000172537)
(0 0 0.00015754)
(0 0 0.000142541)
(0 0 0.000127541)
(0 0 0.000112539)
(0 0 9.75362e-05)
(0 0 8.25323e-05)
(0 0 6.75275e-05)
(0 0 5.25221e-05)
(0 0 3.75161e-05)
(0 0 2.25098e-05)
(0 0 7.5033e-06)
(0 0 2.78057e-05)
(0 0 8.34163e-05)
(0 0 0.000139025)
(0 0 0.000194631)
(0 0 0.000250232)
(0 0 0.000305827)
(0 0 0.000361416)
(0 0 0.000416995)
(0 0 0.000472564)
(0 0 0.000528122)
(0 0 0.000583666)
(0 0 0.000639195)
(0 0 0.000694706)
(0 0 0.000750198)
(0 0 0.000805669)
(0 0 0.000861115)
(0 0 0.000916536)
(0 0 0.000971926)
(0 0 0.00102729)
(0 0 0.00108261)
(0 0 0.00113789)
(0 0 0.00119314)
(0 0 0.00124834)
(0 0 0.00130348)
(0 0 0.00135858)
(0 0 0.00141361)
(0 0 0.00146859)
(0 0 0.00152349)
(0 0 0.00157832)
(0 0 0.00163308)
(0 0 0.00168775)
(0 0 0.00174232)
(0 0 0.0017968)
(0 0 0.00185118)
(0 0 0.00190544)
(0 0 0.00195959)
(0 0 0.00201361)
(0 0 0.0020675)
(0 0 0.00212124)
(0 0 0.00217483)
(0 0 0.00222826)
(0 0 0.00228152)
(0 0 0.0023346)
(0 0 0.00238749)
(0 0 0.00244018)
(0 0 0.00249266)
(0 0 0.00254491)
(0 0 0.00259693)
(0 0 0.00264871)
(0 0 0.00270022)
(0 0 0.00275146)
(0 0 0.00280242)
(0 0 0.00285309)
(0 0 0.00290344)
(0 0 0.00295346)
(0 0 0.00300315)
(0 0 0.00305248)
(0 0 0.00310145)
(0 0 0.00315003)
(0 0 0.00319822)
(0 0 0.00324599)
(0 0 0.00329333)
(0 0 0.00334022)
(0 0 0.00338666)
(0 0 0.00343261)
(0 0 0.00347807)
(0 0 0.00352302)
(0 0 0.00356744)
(0 0 0.00361132)
(0 0 0.00365464)
(0 0 0.00369738)
(0 0 0.00373953)
(0 0 0.00378106)
(0 0 0.00382196)
(0 0 0.00386222)
(0 0 0.00390182)
(0 0 0.00394074)
(0 0 0.00397896)
(0 0 0.00401647)
(0 0 0.00405325)
(0 0 0.00408929)
(0 0 0.00412457)
(0 0 0.00415907)
(0 0 0.00419279)
(0 0 0.0042257)
(0 0 0.00425779)
(0 0 0.00428904)
(0 0 0.00431945)
(0 0 0.00434899)
(0 0 0.00437766)
(0 0 0.00440545)
(0 0 0.00443234)
(0 0 0.00445831)
(0 0 0.00448337)
(0 0 0.00450749)
(0 0 0.00453067)
(0 0 0.0045529)
(0 0 0.00457417)
(0 0 0.00459447)
(0 0 0.0046138)
(0 0 0.00463214)
(0 0 0.00464949)
(0 0 0.00466585)
(0 0 0.00468122)
(0 0 0.00469557)
(0 0 0.00470892)
(0 0 0.00472126)
(0 0 0.00473259)
(0 0 0.0047429)
(0 0 0.00475219)
(0 0 0.00476047)
(0 0 0.00476774)
(0 0 0.00477399)
(0 0 0.00477923)
(0 0 0.00478345)
(0 0 0.00478667)
(0 0 0.00478889)
(0 0 0.0047901)
(0 0 0.00479032)
(0 0 0.00478955)
(0 0 0.0047878)
(0 0 0.00478507)
(0 0 0.00478137)
(0 0 0.0047767)
(0 0 0.00477108)
(0 0 0.00476452)
(0 0 0.00475701)
(0 0 0.00474858)
(0 0 0.00473924)
(0 0 0.00472898)
(0 0 0.00471783)
(0 0 0.00470579)
(0 0 0.00469287)
(0 0 0.0046791)
(0 0 0.00466447)
(0 0 0.004649)
(0 0 0.00463271)
(0 0 0.00461561)
(0 0 0.0045977)
(0 0 0.00457901)
(0 0 0.00455955)
(0 0 0.00453932)
(0 0 0.00451835)
(0 0 0.00449664)
(0 0 0.00447422)
(0 0 0.00445109)
(0 0 0.00442727)
(0 0 0.00440278)
(0 0 0.00437762)
(0 0 0.00435182)
(0 0 0.00432538)
(0 0 0.00429832)
(0 0 0.00427065)
(0 0 0.00424239)
(0 0 0.00421356)
(0 0 0.00418416)
(0 0 0.00415421)
(0 0 0.00412372)
(0 0 0.00409271)
(0 0 0.00406119)
(0 0 0.00402917)
(0 0 0.00399667)
(0 0 0.0039637)
(0 0 0.00393027)
(0 0 0.0038964)
(0 0 0.0038621)
(0 0 0.00382738)
(0 0 0.00379225)
(0 0 0.00375672)
(0 0 0.00372081)
(0 0 0.00368453)
(0 0 0.00364789)
(0 0 0.0036109)
(0 0 0.00357357)
(0 0 0.00353591)
(0 0 0.00349794)
(0 0 0.00345966)
(0 0 0.00342109)
(0 0 0.00338223)
(0 0 0.00334309)
(0 0 0.00330369)
(0 0 0.00326403)
(0 0 0.00322412)
(0 0 0.00318397)
(0 0 0.00314359)
(0 0 0.00310299)
(0 0 0.00306218)
(0 0 0.00302116)
(0 0 0.00297994)
(0 0 0.00293853)
(0 0 0.00289694)
(0 0 0.00285517)
(0 0 0.00281323)
(0 0 0.00277114)
(0 0 0.00272888)
(0 0 0.00268648)
(0 0 0.00264394)
(0 0 0.00260126)
(0 0 0.00255845)
(0 0 0.00251552)
(0 0 0.00247247)
(0 0 0.0024293)
(0 0 0.00238603)
(0 0 0.00234265)
(0 0 0.00229917)
(0 0 0.0022556)
(0 0 0.00221194)
(0 0 0.0021682)
(0 0 0.00212437)
(0 0 0.00208047)
(0 0 0.00203649)
(0 0 0.00199245)
(0 0 0.00194834)
(0 0 0.00190417)
(0 0 0.00185994)
(0 0 0.00181565)
(0 0 0.00177131)
(0 0 0.00172693)
(0 0 0.00168249)
(0 0 0.00163802)
(0 0 0.0015935)
(0 0 0.00154894)
(0 0 0.00150435)
(0 0 0.00145972)
(0 0 0.00141506)
(0 0 0.00137037)
(0 0 0.00132565)
(0 0 0.0012809)
(0 0 0.00123613)
(0 0 0.00119134)
(0 0 0.00114653)
(0 0 0.00110169)
(0 0 0.00105684)
(0 0 0.00101197)
(0 0 0.00096709)
(0 0 0.000922191)
(0 0 0.000877279)
(0 0 0.000832355)
(0 0 0.000787419)
(0 0 0.000742472)
(0 0 0.000697517)
(0 0 0.000652552)
(0 0 0.00060758)
(0 0 0.0005626)
(0 0 0.000517614)
(0 0 0.000472623)
(0 0 0.000427626)
(0 0 0.000382624)
(0 0 0.000337619)
(0 0 0.00029261)
(0 0 0.000247598)
(0 0 0.000202583)
(0 0 0.000157567)
(0 0 0.000112549)
(0 0 6.75297e-05)
(0 0 2.251e-05)
(0 0 4.63435e-05)
(0 0 0.000139029)
(0 0 0.000231712)
(0 0 0.00032439)
(0 0 0.00041706)
(0 0 0.00050972)
(0 0 0.000602369)
(0 0 0.000695003)
(0 0 0.000787621)
(0 0 0.000880218)
(0 0 0.000972794)
(0 0 0.00106534)
(0 0 0.00115787)
(0 0 0.00125035)
(0 0 0.00134281)
(0 0 0.00143522)
(0 0 0.00152759)
(0 0 0.00161991)
(0 0 0.00171218)
(0 0 0.00180439)
(0 0 0.00189654)
(0 0 0.00198861)
(0 0 0.00208061)
(0 0 0.00217253)
(0 0 0.00226436)
(0 0 0.00235609)
(0 0 0.00244772)
(0 0 0.00253924)
(0 0 0.00263063)
(0 0 0.00272189)
(0 0 0.00281301)
(0 0 0.00290398)
(0 0 0.00299479)
(0 0 0.00308542)
(0 0 0.00317587)
(0 0 0.00326613)
(0 0 0.00335617)
(0 0 0.00344599)
(0 0 0.00353557)
(0 0 0.0036249)
(0 0 0.00371396)
(0 0 0.00380274)
(0 0 0.00389121)
(0 0 0.00397937)
(0 0 0.0040672)
(0 0 0.00415468)
(0 0 0.00424178)
(0 0 0.00432849)
(0 0 0.0044148)
(0 0 0.00450067)
(0 0 0.00458609)
(0 0 0.00467104)
(0 0 0.00475549)
(0 0 0.00483942)
(0 0 0.00492281)
(0 0 0.00500564)
(0 0 0.00508788)
(0 0 0.00516951)
(0 0 0.0052505)
(0 0 0.00533082)
(0 0 0.00541045)
(0 0 0.00548937)
(0 0 0.00556755)
(0 0 0.00564496)
(0 0 0.00572157)
(0 0 0.00579735)
(0 0 0.00587229)
(0 0 0.00594635)
(0 0 0.0060195)
(0 0 0.00609171)
(0 0 0.00616296)
(0 0 0.00623322)
(0 0 0.00630246)
(0 0 0.00637065)
(0 0 0.00643777)
(0 0 0.00650378)
(0 0 0.00656866)
(0 0 0.00663239)
(0 0 0.00669492)
(0 0 0.00675625)
(0 0 0.00681633)
(0 0 0.00687514)
(0 0 0.00693267)
(0 0 0.00698887)
(0 0 0.00704374)
(0 0 0.00709723)
(0 0 0.00714934)
(0 0 0.00720003)
(0 0 0.00724929)
(0 0 0.00729709)
(0 0 0.00734341)
(0 0 0.00738824)
(0 0 0.00743154)
(0 0 0.00747331)
(0 0 0.00751353)
(0 0 0.00755217)
(0 0 0.00758923)
(0 0 0.00762469)
(0 0 0.00765853)
(0 0 0.00769075)
(0 0 0.00772133)
(0 0 0.00775026)
(0 0 0.00777753)
(0 0 0.00780314)
(0 0 0.00782707)
(0 0 0.00784932)
(0 0 0.00786989)
(0 0 0.00788877)
(0 0 0.00790596)
(0 0 0.00792145)
(0 0 0.00793525)
(0 0 0.00794736)
(0 0 0.00795777)
(0 0 0.0079665)
(0 0 0.00797354)
(0 0 0.0079789)
(0 0 0.00798259)
(0 0 0.00798461)
(0 0 0.00798497)
(0 0 0.00798368)
(0 0 0.00798075)
(0 0 0.00797619)
(0 0 0.00797001)
(0 0 0.00796223)
(0 0 0.00795285)
(0 0 0.0079419)
(0 0 0.00792939)
(0 0 0.00791533)
(0 0 0.00789973)
(0 0 0.00788263)
(0 0 0.00786403)
(0 0 0.00784395)
(0 0 0.00782241)
(0 0 0.00779944)
(0 0 0.00777505)
(0 0 0.00774926)
(0 0 0.00772209)
(0 0 0.00769357)
(0 0 0.00766371)
(0 0 0.00763254)
(0 0 0.00760009)
(0 0 0.00756636)
(0 0 0.00753139)
(0 0 0.0074952)
(0 0 0.00745782)
(0 0 0.00741925)
(0 0 0.00737954)
(0 0 0.0073387)
(0 0 0.00729676)
(0 0 0.00725373)
(0 0 0.00720965)
(0 0 0.00716453)
(0 0 0.00711841)
(0 0 0.0070713)
(0 0 0.00702322)
(0 0 0.0069742)
(0 0 0.00692427)
(0 0 0.00687344)
(0 0 0.00682174)
(0 0 0.0067692)
(0 0 0.00671582)
(0 0 0.00666164)
(0 0 0.00660667)
(0 0 0.00655095)
(0 0 0.00649448)
(0 0 0.0064373)
(0 0 0.00637941)
(0 0 0.00632085)
(0 0 0.00626162)
(0 0 0.00620176)
(0 0 0.00614128)
(0 0 0.0060802)
(0 0 0.00601854)
(0 0 0.00595631)
(0 0 0.00589354)
(0 0 0.00583024)
(0 0 0.00576644)
(0 0 0.00570213)
(0 0 0.00563736)
(0 0 0.00557212)
(0 0 0.00550643)
(0 0 0.00544032)
(0 0 0.0053738)
(0 0 0.00530687)
(0 0 0.00523957)
(0 0 0.00517189)
(0 0 0.00510386)
(0 0 0.00503548)
(0 0 0.00496677)
(0 0 0.00489775)
(0 0 0.00482842)
(0 0 0.0047588)
(0 0 0.0046889)
(0 0 0.00461873)
(0 0 0.00454831)
(0 0 0.00447763)
(0 0 0.00440672)
(0 0 0.00433558)
(0 0 0.00426423)
(0 0 0.00419266)
(0 0 0.0041209)
(0 0 0.00404895)
(0 0 0.00397682)
(0 0 0.00390452)
(0 0 0.00383206)
(0 0 0.00375943)
(0 0 0.00368666)
(0 0 0.00361375)
(0 0 0.0035407)
(0 0 0.00346753)
(0 0 0.00339423)
(0 0 0.00332082)
(0 0 0.0032473)
(0 0 0.00317368)
(0 0 0.00309996)
(0 0 0.00302615)
(0 0 0.00295225)
(0 0 0.00287826)
(0 0 0.00280421)
(0 0 0.00273007)
(0 0 0.00265587)
(0 0 0.00258161)
(0 0 0.00250728)
(0 0 0.0024329)
(0 0 0.00235846)
(0 0 0.00228397)
(0 0 0.00220944)
(0 0 0.00213486)
(0 0 0.00206025)
(0 0 0.00198559)
(0 0 0.0019109)
(0 0 0.00183618)
(0 0 0.00176142)
(0 0 0.00168664)
(0 0 0.00161183)
(0 0 0.001537)
(0 0 0.00146215)
(0 0 0.00138727)
(0 0 0.00131238)
(0 0 0.00123746)
(0 0 0.00116254)
(0 0 0.0010876)
(0 0 0.00101264)
(0 0 0.000937674)
(0 0 0.000862697)
(0 0 0.00078771)
(0 0 0.000712715)
(0 0 0.000637711)
(0 0 0.000562702)
(0 0 0.000487686)
(0 0 0.000412666)
(0 0 0.000337641)
(0 0 0.000262613)
(0 0 0.000187583)
(0 0 0.00011255)
(0 0 3.75169e-05)
(0 0 6.48823e-05)
(0 0 0.000194645)
(0 0 0.000324404)
(0 0 0.000454156)
(0 0 0.000583897)
(0 0 0.000713625)
(0 0 0.000843337)
(0 0 0.000973028)
(0 0 0.0011027)
(0 0 0.00123234)
(0 0 0.00136195)
(0 0 0.00149152)
(0 0 0.00162106)
(0 0 0.00175055)
(0 0 0.00187999)
(0 0 0.00200937)
(0 0 0.0021387)
(0 0 0.00226795)
(0 0 0.00239714)
(0 0 0.00252624)
(0 0 0.00265525)
(0 0 0.00278417)
(0 0 0.00291298)
(0 0 0.00304167)
(0 0 0.00317024)
(0 0 0.00329868)
(0 0 0.00342697)
(0 0 0.0035551)
(0 0 0.00368306)
(0 0 0.00381084)
(0 0 0.00393843)
(0 0 0.0040658)
(0 0 0.00419295)
(0 0 0.00431985)
(0 0 0.0044465)
(0 0 0.00457287)
(0 0 0.00469895)
(0 0 0.00482471)
(0 0 0.00495015)
(0 0 0.00507523)
(0 0 0.00519994)
(0 0 0.00532425)
(0 0 0.00544814)
(0 0 0.00557159)
(0 0 0.00569458)
(0 0 0.00581707)
(0 0 0.00593904)
(0 0 0.00606047)
(0 0 0.00618132)
(0 0 0.00630157)
(0 0 0.00642119)
(0 0 0.00654014)
(0 0 0.00665841)
(0 0 0.00677595)
(0 0 0.00689273)
(0 0 0.00700872)
(0 0 0.00712389)
(0 0 0.00723821)
(0 0 0.00735162)
(0 0 0.00746411)
(0 0 0.00757564)
(0 0 0.00768616)
(0 0 0.00779565)
(0 0 0.00790405)
(0 0 0.00801135)
(0 0 0.00811749)
(0 0 0.00822244)
(0 0 0.00832615)
(0 0 0.0084286)
(0 0 0.00852974)
(0 0 0.00862953)
(0 0 0.00872794)
(0 0 0.00882491)
(0 0 0.00892042)
(0 0 0.00901442)
(0 0 0.00910688)
(0 0 0.00919775)
(0 0 0.009287)
(0 0 0.00937459)
(0 0 0.00946048)
(0 0 0.00954463)
(0 0 0.00962701)
(0 0 0.00970758)
(0 0 0.0097863)
(0 0 0.00986315)
(0 0 0.00993808)
(0 0 0.0100111)
(0 0 0.0100821)
(0 0 0.010151)
(0 0 0.010218)
(0 0 0.0102829)
(0 0 0.0103457)
(0 0 0.0104063)
(0 0 0.0104648)
(0 0 0.0105211)
(0 0 0.0105753)
(0 0 0.0106272)
(0 0 0.0106768)
(0 0 0.0107242)
(0 0 0.0107693)
(0 0 0.0108122)
(0 0 0.0108527)
(0 0 0.0108909)
(0 0 0.0109267)
(0 0 0.0109603)
(0 0 0.0109914)
(0 0 0.0110202)
(0 0 0.0110466)
(0 0 0.0110707)
(0 0 0.0110924)
(0 0 0.0111117)
(0 0 0.0111287)
(0 0 0.0111432)
(0 0 0.0111555)
(0 0 0.0111653)
(0 0 0.0111728)
(0 0 0.011178)
(0 0 0.0111808)
(0 0 0.0111813)
(0 0 0.0111794)
(0 0 0.0111753)
(0 0 0.0111689)
(0 0 0.0111603)
(0 0 0.0111493)
(0 0 0.0111362)
(0 0 0.0111209)
(0 0 0.0111033)
(0 0 0.0110836)
(0 0 0.0110617)
(0 0 0.0110378)
(0 0 0.0110117)
(0 0 0.0109836)
(0 0 0.0109534)
(0 0 0.0109212)
(0 0 0.010887)
(0 0 0.0108509)
(0 0 0.0108128)
(0 0 0.0107729)
(0 0 0.010731)
(0 0 0.0106874)
(0 0 0.0106419)
(0 0 0.0105946)
(0 0 0.0105457)
(0 0 0.010495)
(0 0 0.0104426)
(0 0 0.0103886)
(0 0 0.0103329)
(0 0 0.0102757)
(0 0 0.010217)
(0 0 0.0101567)
(0 0 0.010095)
(0 0 0.0100318)
(0 0 0.00996715)
(0 0 0.00990116)
(0 0 0.00983382)
(0 0 0.00976517)
(0 0 0.00969523)
(0 0 0.00962404)
(0 0 0.00955163)
(0 0 0.00947803)
(0 0 0.00940328)
(0 0 0.00932739)
(0 0 0.00925041)
(0 0 0.00917237)
(0 0 0.00909328)
(0 0 0.00901319)
(0 0 0.00893213)
(0 0 0.00885011)
(0 0 0.00876717)
(0 0 0.00868334)
(0 0 0.00859864)
(0 0 0.0085131)
(0 0 0.00842674)
(0 0 0.0083396)
(0 0 0.0082517)
(0 0 0.00816306)
(0 0 0.0080737)
(0 0 0.00798365)
(0 0 0.00789294)
(0 0 0.00780159)
(0 0 0.00770961)
(0 0 0.00761703)
(0 0 0.00752388)
(0 0 0.00743016)
(0 0 0.00733591)
(0 0 0.00724114)
(0 0 0.00714588)
(0 0 0.00705013)
(0 0 0.00695393)
(0 0 0.00685728)
(0 0 0.0067602)
(0 0 0.00666272)
(0 0 0.00656484)
(0 0 0.00646659)
(0 0 0.00636798)
(0 0 0.00626902)
(0 0 0.00616973)
(0 0 0.00607012)
(0 0 0.00597021)
(0 0 0.00587001)
(0 0 0.00576953)
(0 0 0.00566879)
(0 0 0.0055678)
(0 0 0.00546656)
(0 0 0.0053651)
(0 0 0.00526342)
(0 0 0.00516153)
(0 0 0.00505944)
(0 0 0.00495716)
(0 0 0.00485471)
(0 0 0.00475209)
(0 0 0.0046493)
(0 0 0.00454637)
(0 0 0.00444329)
(0 0 0.00434007)
(0 0 0.00423673)
(0 0 0.00413326)
(0 0 0.00402968)
(0 0 0.00392599)
(0 0 0.0038222)
(0 0 0.00371831)
(0 0 0.00361433)
(0 0 0.00351027)
(0 0 0.00340613)
(0 0 0.00330191)
(0 0 0.00319763)
(0 0 0.00309328)
(0 0 0.00298887)
(0 0 0.0028844)
(0 0 0.00277988)
(0 0 0.00267531)
(0 0 0.00257069)
(0 0 0.00246603)
(0 0 0.00236133)
(0 0 0.0022566)
(0 0 0.00215183)
(0 0 0.00204703)
(0 0 0.0019422)
(0 0 0.00183735)
(0 0 0.00173247)
(0 0 0.00162757)
(0 0 0.00152265)
(0 0 0.00141771)
(0 0 0.00131276)
(0 0 0.00120779)
(0 0 0.00110281)
(0 0 0.000997811)
(0 0 0.000892805)
(0 0 0.00078779)
(0 0 0.000682767)
(0 0 0.000577738)
(0 0 0.000472702)
(0 0 0.000367662)
(0 0 0.000262618)
(0 0 0.000157572)
(0 0 5.25241e-05)
(0 0 8.34226e-05)
(0 0 0.000250266)
(0 0 0.000417104)
(0 0 0.000583932)
(0 0 0.000750748)
(0 0 0.000917547)
(0 0 0.00108432)
(0 0 0.00125108)
(0 0 0.0014178)
(0 0 0.00158449)
(0 0 0.00175114)
(0 0 0.00191774)
(0 0 0.00208429)
(0 0 0.00225079)
(0 0 0.00241722)
(0 0 0.00258358)
(0 0 0.00274987)
(0 0 0.00291607)
(0 0 0.00308217)
(0 0 0.00324817)
(0 0 0.00341406)
(0 0 0.00357982)
(0 0 0.00374545)
(0 0 0.00391093)
(0 0 0.00407626)
(0 0 0.00424141)
(0 0 0.00440637)
(0 0 0.00457114)
(0 0 0.00473568)
(0 0 0.00489999)
(0 0 0.00506405)
(0 0 0.00522784)
(0 0 0.00539135)
(0 0 0.00555454)
(0 0 0.0057174)
(0 0 0.00587991)
(0 0 0.00604204)
(0 0 0.00620378)
(0 0 0.00636508)
(0 0 0.00652594)
(0 0 0.00668631)
(0 0 0.00684618)
(0 0 0.00700551)
(0 0 0.00716428)
(0 0 0.00732244)
(0 0 0.00747998)
(0 0 0.00763684)
(0 0 0.00779301)
(0 0 0.00794844)
(0 0 0.0081031)
(0 0 0.00825695)
(0 0 0.00840995)
(0 0 0.00856205)
(0 0 0.00871323)
(0 0 0.00886344)
(0 0 0.00901263)
(0 0 0.00916076)
(0 0 0.0093078)
(0 0 0.00945368)
(0 0 0.00959837)
(0 0 0.00974182)
(0 0 0.00988399)
(0 0 0.0100248)
(0 0 0.0101643)
(0 0 0.0103023)
(0 0 0.0104388)
(0 0 0.0105738)
(0 0 0.0107072)
(0 0 0.010839)
(0 0 0.0109691)
(0 0 0.0110975)
(0 0 0.0112241)
(0 0 0.0113488)
(0 0 0.0114717)
(0 0 0.0115926)
(0 0 0.0117116)
(0 0 0.0118285)
(0 0 0.0119433)
(0 0 0.012056)
(0 0 0.0121665)
(0 0 0.0122747)
(0 0 0.0123807)
(0 0 0.0124843)
(0 0 0.0125856)
(0 0 0.0126845)
(0 0 0.0127809)
(0 0 0.0128748)
(0 0 0.0129661)
(0 0 0.0130548)
(0 0 0.013141)
(0 0 0.0132244)
(0 0 0.0133052)
(0 0 0.0133832)
(0 0 0.0134585)
(0 0 0.0135309)
(0 0 0.0136006)
(0 0 0.0136673)
(0 0 0.0137312)
(0 0 0.0137922)
(0 0 0.0138502)
(0 0 0.0139053)
(0 0 0.0139574)
(0 0 0.0140066)
(0 0 0.0140527)
(0 0 0.0140958)
(0 0 0.0141359)
(0 0 0.0141729)
(0 0 0.0142069)
(0 0 0.0142378)
(0 0 0.0142657)
(0 0 0.0142906)
(0 0 0.0143124)
(0 0 0.0143311)
(0 0 0.0143468)
(0 0 0.0143594)
(0 0 0.0143691)
(0 0 0.0143757)
(0 0 0.0143793)
(0 0 0.0143799)
(0 0 0.0143775)
(0 0 0.0143722)
(0 0 0.0143639)
(0 0 0.0143528)
(0 0 0.0143387)
(0 0 0.0143218)
(0 0 0.014302)
(0 0 0.0142794)
(0 0 0.014254)
(0 0 0.0142259)
(0 0 0.014195)
(0 0 0.0141615)
(0 0 0.0141252)
(0 0 0.0140864)
(0 0 0.014045)
(0 0 0.014001)
(0 0 0.0139544)
(0 0 0.0139055)
(0 0 0.013854)
(0 0 0.0138002)
(0 0 0.013744)
(0 0 0.0136855)
(0 0 0.0136247)
(0 0 0.0135616)
(0 0 0.0134964)
(0 0 0.013429)
(0 0 0.0133595)
(0 0 0.0132879)
(0 0 0.0132143)
(0 0 0.0131387)
(0 0 0.0130612)
(0 0 0.0129817)
(0 0 0.0129004)
(0 0 0.0128173)
(0 0 0.0127324)
(0 0 0.0126457)
(0 0 0.0125574)
(0 0 0.0124674)
(0 0 0.0123759)
(0 0 0.0122827)
(0 0 0.012188)
(0 0 0.0120919)
(0 0 0.0119942)
(0 0 0.0118952)
(0 0 0.0117948)
(0 0 0.0116931)
(0 0 0.0115901)
(0 0 0.0114858)
(0 0 0.0113803)
(0 0 0.0112736)
(0 0 0.0111658)
(0 0 0.0110568)
(0 0 0.0109468)
(0 0 0.0108357)
(0 0 0.0107237)
(0 0 0.0106106)
(0 0 0.0104966)
(0 0 0.0103817)
(0 0 0.0102658)
(0 0 0.0101492)
(0 0 0.0100317)
(0 0 0.00991338)
(0 0 0.00979432)
(0 0 0.00967451)
(0 0 0.00955399)
(0 0 0.00943277)
(0 0 0.0093109)
(0 0 0.00918838)
(0 0 0.00906525)
(0 0 0.00894152)
(0 0 0.00881723)
(0 0 0.00869239)
(0 0 0.00856702)
(0 0 0.00844116)
(0 0 0.0083148)
(0 0 0.00818799)
(0 0 0.00806073)
(0 0 0.00793305)
(0 0 0.00780496)
(0 0 0.00767648)
(0 0 0.00754763)
(0 0 0.00741842)
(0 0 0.00728888)
(0 0 0.00715901)
(0 0 0.00702883)
(0 0 0.00689836)
(0 0 0.00676761)
(0 0 0.00663659)
(0 0 0.00650532)
(0 0 0.0063738)
(0 0 0.00624206)
(0 0 0.0061101)
(0 0 0.00597794)
(0 0 0.00584558)
(0 0 0.00571303)
(0 0 0.00558031)
(0 0 0.00544743)
(0 0 0.00531439)
(0 0 0.0051812)
(0 0 0.00504788)
(0 0 0.00491442)
(0 0 0.00478084)
(0 0 0.00464715)
(0 0 0.00451334)
(0 0 0.00437944)
(0 0 0.00424544)
(0 0 0.00411135)
(0 0 0.00397718)
(0 0 0.00384293)
(0 0 0.0037086)
(0 0 0.00357421)
(0 0 0.00343976)
(0 0 0.00330525)
(0 0 0.00317068)
(0 0 0.00303606)
(0 0 0.0029014)
(0 0 0.00276669)
(0 0 0.00263195)
(0 0 0.00249717)
(0 0 0.00236235)
(0 0 0.0022275)
(0 0 0.00209263)
(0 0 0.00195773)
(0 0 0.0018228)
(0 0 0.00168786)
(0 0 0.0015529)
(0 0 0.00141791)
(0 0 0.00128292)
(0 0 0.00114791)
(0 0 0.00101289)
(0 0 0.000877856)
(0 0 0.000742815)
(0 0 0.000607768)
(0 0 0.000472714)
(0 0 0.000337656)
(0 0 0.000202595)
(0 0 6.75319e-05)
(0 0 0.000101965)
(0 0 0.000305892)
(0 0 0.000509812)
(0 0 0.000713722)
(0 0 0.000917616)
(0 0 0.00112149)
(0 0 0.00132534)
(0 0 0.00152915)
(0 0 0.00173294)
(0 0 0.00193668)
(0 0 0.00214037)
(0 0 0.00234401)
(0 0 0.00254758)
(0 0 0.00275109)
(0 0 0.00295453)
(0 0 0.00315787)
(0 0 0.00336113)
(0 0 0.00356428)
(0 0 0.00376731)
(0 0 0.00397022)
(0 0 0.00417299)
(0 0 0.00437562)
(0 0 0.00457808)
(0 0 0.00478036)
(0 0 0.00498245)
(0 0 0.00518433)
(0 0 0.00538598)
(0 0 0.00558739)
(0 0 0.00578853)
(0 0 0.00598939)
(0 0 0.00618995)
(0 0 0.00639018)
(0 0 0.00659005)
(0 0 0.00678956)
(0 0 0.00698865)
(0 0 0.00718732)
(0 0 0.00738554)
(0 0 0.00758326)
(0 0 0.00778047)
(0 0 0.00797713)
(0 0 0.0081732)
(0 0 0.00836865)
(0 0 0.00856346)
(0 0 0.00875756)
(0 0 0.00895094)
(0 0 0.00914355)
(0 0 0.00933535)
(0 0 0.00952629)
(0 0 0.00971634)
(0 0 0.00990544)
(0 0 0.0100936)
(0 0 0.0102806)
(0 0 0.0104666)
(0 0 0.0106515)
(0 0 0.0108352)
(0 0 0.0110176)
(0 0 0.0111987)
(0 0 0.0113785)
(0 0 0.0115569)
(0 0 0.0117339)
(0 0 0.0119093)
(0 0 0.0120832)
(0 0 0.0122554)
(0 0 0.0124259)
(0 0 0.0125947)
(0 0 0.0127617)
(0 0 0.0129268)
(0 0 0.0130899)
(0 0 0.0132511)
(0 0 0.0134102)
(0 0 0.0135672)
(0 0 0.0137221)
(0 0 0.0138746)
(0 0 0.0140249)
(0 0 0.0141728)
(0 0 0.0143183)
(0 0 0.0144613)
(0 0 0.0146017)
(0 0 0.0147395)
(0 0 0.0148747)
(0 0 0.0150071)
(0 0 0.0151367)
(0 0 0.0152635)
(0 0 0.0153873)
(0 0 0.0155083)
(0 0 0.0156262)
(0 0 0.015741)
(0 0 0.0158527)
(0 0 0.0159613)
(0 0 0.0160666)
(0 0 0.0161687)
(0 0 0.0162675)
(0 0 0.0163629)
(0 0 0.016455)
(0 0 0.0165436)
(0 0 0.0166287)
(0 0 0.0167104)
(0 0 0.0167885)
(0 0 0.0168631)
(0 0 0.0169341)
(0 0 0.0170014)
(0 0 0.0170652)
(0 0 0.0171253)
(0 0 0.0171816)
(0 0 0.0172344)
(0 0 0.0172834)
(0 0 0.0173286)
(0 0 0.0173702)
(0 0 0.017408)
(0 0 0.0174421)
(0 0 0.0174725)
(0 0 0.0174991)
(0 0 0.017522)
(0 0 0.0175411)
(0 0 0.0175566)
(0 0 0.0175683)
(0 0 0.0175764)
(0 0 0.0175807)
(0 0 0.0175815)
(0 0 0.0175785)
(0 0 0.017572)
(0 0 0.0175619)
(0 0 0.0175482)
(0 0 0.0175309)
(0 0 0.0175102)
(0 0 0.0174859)
(0 0 0.0174583)
(0 0 0.0174272)
(0 0 0.0173927)
(0 0 0.0173549)
(0 0 0.0173139)
(0 0 0.0172695)
(0 0 0.017222)
(0 0 0.0171713)
(0 0 0.0171174)
(0 0 0.0170605)
(0 0 0.0170005)
(0 0 0.0169376)
(0 0 0.0168717)
(0 0 0.0168029)
(0 0 0.0167313)
(0 0 0.0166569)
(0 0 0.0165798)
(0 0 0.0165)
(0 0 0.0164175)
(0 0 0.0163325)
(0 0 0.0162449)
(0 0 0.0161549)
(0 0 0.0160624)
(0 0 0.0159675)
(0 0 0.0158703)
(0 0 0.0157709)
(0 0 0.0156692)
(0 0 0.0155653)
(0 0 0.0154594)
(0 0 0.0153513)
(0 0 0.0152413)
(0 0 0.0151292)
(0 0 0.0150153)
(0 0 0.0148995)
(0 0 0.0147819)
(0 0 0.0146625)
(0 0 0.0145414)
(0 0 0.0144186)
(0 0 0.0142942)
(0 0 0.0141682)
(0 0 0.0140407)
(0 0 0.0139117)
(0 0 0.0137812)
(0 0 0.0136493)
(0 0 0.0135161)
(0 0 0.0133816)
(0 0 0.0132457)
(0 0 0.0131087)
(0 0 0.0129704)
(0 0 0.012831)
(0 0 0.0126905)
(0 0 0.0125489)
(0 0 0.0124062)
(0 0 0.0122626)
(0 0 0.0121179)
(0 0 0.0119723)
(0 0 0.0118259)
(0 0 0.0116785)
(0 0 0.0115303)
(0 0 0.0113813)
(0 0 0.0112315)
(0 0 0.011081)
(0 0 0.0109297)
(0 0 0.0107777)
(0 0 0.0106251)
(0 0 0.0104718)
(0 0 0.010318)
(0 0 0.0101635)
(0 0 0.0100084)
(0 0 0.00985287)
(0 0 0.00969678)
(0 0 0.00954019)
(0 0 0.00938312)
(0 0 0.0092256)
(0 0 0.00906765)
(0 0 0.00890929)
(0 0 0.00875053)
(0 0 0.00859139)
(0 0 0.0084319)
(0 0 0.00827206)
(0 0 0.0081119)
(0 0 0.00795143)
(0 0 0.00779067)
(0 0 0.00762963)
(0 0 0.00746832)
(0 0 0.00730677)
(0 0 0.00714497)
(0 0 0.00698295)
(0 0 0.00682072)
(0 0 0.00665829)
(0 0 0.00649566)
(0 0 0.00633286)
(0 0 0.00616989)
(0 0 0.00600676)
(0 0 0.00584349)
(0 0 0.00568007)
(0 0 0.00551652)
(0 0 0.00535284)
(0 0 0.00518905)
(0 0 0.00502515)
(0 0 0.00486115)
(0 0 0.00469706)
(0 0 0.00453288)
(0 0 0.00436861)
(0 0 0.00420427)
(0 0 0.00403986)
(0 0 0.00387538)
(0 0 0.00371084)
(0 0 0.00354624)
(0 0 0.0033816)
(0 0 0.0032169)
(0 0 0.00305216)
(0 0 0.00288738)
(0 0 0.00272256)
(0 0 0.00255771)
(0 0 0.00239283)
(0 0 0.00222791)
(0 0 0.00206298)
(0 0 0.00189802)
(0 0 0.00173304)
(0 0 0.00156804)
(0 0 0.00140302)
(0 0 0.00123799)
(0 0 0.00107295)
(0 0 0.0009079)
(0 0 0.000742839)
(0 0 0.000577771)
(0 0 0.000412698)
(0 0 0.00024762)
(0 0 8.25403e-05)
(0 0 0.000120509)
(0 0 0.000361524)
(0 0 0.000602532)
(0 0 0.000843527)
(0 0 0.0010845)
(0 0 0.00132546)
(0 0 0.00156638)
(0 0 0.00180727)
(0 0 0.00204812)
(0 0 0.00228891)
(0 0 0.00252966)
(0 0 0.00277034)
(0 0 0.00301095)
(0 0 0.00325148)
(0 0 0.00349192)
(0 0 0.00373226)
(0 0 0.00397249)
(0 0 0.0042126)
(0 0 0.00445258)
(0 0 0.00469241)
(0 0 0.00493208)
(0 0 0.00517157)
(0 0 0.00541088)
(0 0 0.00564997)
(0 0 0.00588884)
(0 0 0.00612747)
(0 0 0.00636583)
(0 0 0.0066039)
(0 0 0.00684167)
(0 0 0.0070791)
(0 0 0.00731617)
(0 0 0.00755286)
(0 0 0.00778914)
(0 0 0.00802498)
(0 0 0.00826034)
(0 0 0.0084952)
(0 0 0.00872952)
(0 0 0.00896327)
(0 0 0.0091964)
(0 0 0.0094289)
(0 0 0.0096607)
(0 0 0.00989178)
(0 0 0.0101221)
(0 0 0.0103516)
(0 0 0.0105802)
(0 0 0.0108079)
(0 0 0.0110347)
(0 0 0.0112605)
(0 0 0.0114852)
(0 0 0.0117088)
(0 0 0.0119312)
(0 0 0.0121524)
(0 0 0.0123723)
(0 0 0.0125909)
(0 0 0.0128081)
(0 0 0.0130239)
(0 0 0.0132381)
(0 0 0.0134507)
(0 0 0.0136616)
(0 0 0.0138709)
(0 0 0.0140783)
(0 0 0.0142839)
(0 0 0.0144876)
(0 0 0.0146893)
(0 0 0.0148889)
(0 0 0.0150864)
(0 0 0.0152817)
(0 0 0.0154747)
(0 0 0.0156653)
(0 0 0.0158535)
(0 0 0.0160392)
(0 0 0.0162223)
(0 0 0.0164028)
(0 0 0.0165805)
(0 0 0.0167554)
(0 0 0.0169275)
(0 0 0.0170966)
(0 0 0.0172627)
(0 0 0.0174257)
(0 0 0.0175856)
(0 0 0.0177422)
(0 0 0.0178955)
(0 0 0.0180455)
(0 0 0.018192)
(0 0 0.0183351)
(0 0 0.0184745)
(0 0 0.0186104)
(0 0 0.0187425)
(0 0 0.0188709)
(0 0 0.0189955)
(0 0 0.0191163)
(0 0 0.0192331)
(0 0 0.019346)
(0 0 0.0194549)
(0 0 0.0195597)
(0 0 0.0196604)
(0 0 0.019757)
(0 0 0.0198494)
(0 0 0.0199376)
(0 0 0.0200215)
(0 0 0.0201012)
(0 0 0.0201766)
(0 0 0.0202476)
(0 0 0.0203143)
(0 0 0.0203766)
(0 0 0.0204346)
(0 0 0.0204881)
(0 0 0.0205372)
(0 0 0.0205819)
(0 0 0.0206222)
(0 0 0.0206581)
(0 0 0.0206895)
(0 0 0.0207166)
(0 0 0.0207392)
(0 0 0.0207574)
(0 0 0.0207713)
(0 0 0.0207808)
(0 0 0.0207859)
(0 0 0.0207867)
(0 0 0.0207832)
(0 0 0.0207754)
(0 0 0.0207634)
(0 0 0.0207471)
(0 0 0.0207267)
(0 0 0.0207021)
(0 0 0.0206733)
(0 0 0.0206406)
(0 0 0.0206037)
(0 0 0.0205629)
(0 0 0.0205182)
(0 0 0.0204695)
(0 0 0.020417)
(0 0 0.0203607)
(0 0 0.0203007)
(0 0 0.0202369)
(0 0 0.0201696)
(0 0 0.0200986)
(0 0 0.0200241)
(0 0 0.0199461)
(0 0 0.0198647)
(0 0 0.01978)
(0 0 0.019692)
(0 0 0.0196007)
(0 0 0.0195062)
(0 0 0.0194087)
(0 0 0.019308)
(0 0 0.0192044)
(0 0 0.0190979)
(0 0 0.0189884)
(0 0 0.0188762)
(0 0 0.0187612)
(0 0 0.0186435)
(0 0 0.0185233)
(0 0 0.0184004)
(0 0 0.018275)
(0 0 0.0181472)
(0 0 0.0180171)
(0 0 0.0178846)
(0 0 0.0177498)
(0 0 0.0176128)
(0 0 0.0174737)
(0 0 0.0173325)
(0 0 0.0171892)
(0 0 0.017044)
(0 0 0.0168969)
(0 0 0.0167479)
(0 0 0.0165971)
(0 0 0.0164445)
(0 0 0.0162902)
(0 0 0.0161342)
(0 0 0.0159767)
(0 0 0.0158176)
(0 0 0.015657)
(0 0 0.0154949)
(0 0 0.0153314)
(0 0 0.0151666)
(0 0 0.0150004)
(0 0 0.014833)
(0 0 0.0146643)
(0 0 0.0144944)
(0 0 0.0143234)
(0 0 0.0141513)
(0 0 0.0139781)
(0 0 0.0138039)
(0 0 0.0136286)
(0 0 0.0134525)
(0 0 0.0132754)
(0 0 0.0130974)
(0 0 0.0129185)
(0 0 0.0127389)
(0 0 0.0125585)
(0 0 0.0123773)
(0 0 0.0121953)
(0 0 0.0120127)
(0 0 0.0118294)
(0 0 0.0116455)
(0 0 0.011461)
(0 0 0.0112759)
(0 0 0.0110902)
(0 0 0.010904)
(0 0 0.0107173)
(0 0 0.0105301)
(0 0 0.0103424)
(0 0 0.0101543)