/*--------------------------------*- C++ -*----------------------------------*\
| =========                 |                                                 |
| \\      /  F ield         | OpenFOAM: The Open Source CFD Toolbox           |
|  \\    /   O peration     | Version:  v2012                                 |
|   \\  /    A nd           | Website:  www.openfoam.com                      |
|    \\/     M anipulation  |                                                 |
\*---------------------------------------------------------------------------*/
FoamFile
{
    version     2.0;
    format      ascii;
    class       volVectorField;
    location    "6.75";
    object      U;
}
// * * * * * * * * * * * * * * * * * * * * * * * * * * * * * * * * * * * * * //

dimensions      [0 1 -1 0 0 0 0];


internalField   nonuniform List<vector> 
65536
(
(0.000755219 -0.00075521 0)
(0.00226564 -0.000755193 0)
(0.00377601 -0.000755158 0)
(0.00528629 -0.000755106 0)
(0.00679645 -0.000755036 0)
(0.00830645 -0.000754947 0)
(0.00981626 -0.000754839 0)
(0.0113258 -0.00075471 0)
(0.0128351 -0.000754559 0)
(0.0143441 -0.000754386 0)
(0.0158527 -0.000754188 0)
(0.0173609 -0.000753965 0)
(0.0188686 -0.000753715 0)
(0.0203758 -0.000753435 0)
(0.0218823 -0.000753124 0)
(0.0233883 -0.00075278 0)
(0.0248935 -0.000752399 0)
(0.0263979 -0.000751981 0)
(0.0279015 -0.000751522 0)
(0.029404 -0.00075102 0)
(0.0309056 -0.000750472 0)
(0.032406 -0.000749874 0)
(0.0339051 -0.000749224 0)
(0.0354029 -0.000748519 0)
(0.0368993 -0.000747754 0)
(0.038394 -0.000746927 0)
(0.039887 -0.000746034 0)
(0.0413782 -0.000745071 0)
(0.0428674 -0.000744035 0)
(0.0443544 -0.000742921 0)
(0.0458392 -0.000741725 0)
(0.0473214 -0.000740444 0)
(0.048801 -0.000739073 0)
(0.0502778 -0.000737607 0)
(0.0517516 -0.000736043 0)
(0.0532221 -0.000734375 0)
(0.0546892 -0.0007326 0)
(0.0561526 -0.000730713 0)
(0.0576121 -0.000728708 0)
(0.0590675 -0.000726582 0)
(0.0605186 -0.00072433 0)
(0.061965 -0.000721946 0)
(0.0634065 -0.000719427 0)
(0.0648428 -0.000716767 0)
(0.0662737 -0.000713962 0)
(0.0676988 -0.000711006 0)
(0.0691179 -0.000707896 0)
(0.0705306 -0.000704626 0)
(0.0719366 -0.000701193 0)
(0.0733355 -0.00069759 0)
(0.0747271 -0.000693814 0)
(0.0761109 -0.000689861 0)
(0.0774867 -0.000685726 0)
(0.078854 -0.000681405 0)
(0.0802125 -0.000676893 0)
(0.0815618 -0.000672187 0)
(0.0829015 -0.000667283 0)
(0.0842311 -0.000662178 0)
(0.0855504 -0.000656867 0)
(0.0868588 -0.000651348 0)
(0.088156 -0.000645617 0)
(0.0894415 -0.000639672 0)
(0.0907149 -0.000633509 0)
(0.0919757 -0.000627128 0)
(0.0932236 -0.000620524 0)
(0.0944581 -0.000613697 0)
(0.0956786 -0.000606644 0)
(0.0968849 -0.000599365 0)
(0.0980763 -0.000591858 0)
(0.0992525 -0.000584123 0)
(0.100413 -0.000576158 0)
(0.101557 -0.000567965 0)
(0.102685 -0.000559542 0)
(0.103796 -0.000550891 0)
(0.104889 -0.000542012 0)
(0.105964 -0.000532907 0)
(0.107021 -0.000523578 0)
(0.108059 -0.000514025 0)
(0.109077 -0.000504251 0)
(0.110076 -0.000494259 0)
(0.111054 -0.000484053 0)
(0.112012 -0.000473634 0)
(0.112949 -0.000463007 0)
(0.113864 -0.000452176 0)
(0.114758 -0.000441146 0)
(0.115629 -0.00042992 0)
(0.116478 -0.000418505 0)
(0.117303 -0.000406905 0)
(0.118106 -0.000395126 0)
(0.118884 -0.000383174 0)
(0.119639 -0.000371056 0)
(0.120369 -0.000358777 0)
(0.121074 -0.000346346 0)
(0.121754 -0.000333769 0)
(0.122409 -0.000321054 0)
(0.123038 -0.000308208 0)
(0.123642 -0.000295239 0)
(0.124219 -0.000282155 0)
(0.124771 -0.000268964 0)
(0.125295 -0.000255675 0)
(0.125793 -0.000242297 0)
(0.126265 -0.000228838 0)
(0.126709 -0.000215306 0)
(0.127126 -0.000201711 0)
(0.127516 -0.000188062 0)
(0.127878 -0.000174368 0)
(0.128213 -0.000160638 0)
(0.128521 -0.000146881 0)
(0.128801 -0.000133106 0)
(0.129053 -0.000119321 0)
(0.129278 -0.000105537 0)
(0.129475 -9.17624e-05 0)
(0.129645 -7.80054e-05 0)
(0.129787 -6.4275e-05 0)
(0.129902 -5.058e-05 0)
(0.12999 -3.6929e-05 0)
(0.13005 -2.33302e-05 0)
(0.130083 -9.79195e-06 0)
(0.130089 3.67775e-06 0)
(0.130068 1.7071e-05 0)
(0.130021 3.03802e-05 0)
(0.129947 4.3598e-05 0)
(0.129846 5.67169e-05 0)
(0.12972 6.97302e-05 0)
(0.129567 8.26311e-05 0)
(0.129389 9.54131e-05 0)
(0.129185 0.00010807 0)
(0.128957 0.000120596 0)
(0.128703 0.000132985 0)
(0.128424 0.000145232 0)
(0.128122 0.000157331 0)
(0.127795 0.000169279 0)
(0.127444 0.00018107 0)
(0.127071 0.0001927 0)
(0.126673 0.000204166 0)
(0.126254 0.000215463 0)
(0.125811 0.000226588 0)
(0.125347 0.000237538 0)
(0.124861 0.00024831 0)
(0.124354 0.000258903 0)
(0.123825 0.000269312 0)
(0.123276 0.000279537 0)
(0.122707 0.000289576 0)
(0.122118 0.000299426 0)
(0.121509 0.000309088 0)
(0.120881 0.00031856 0)
(0.120235 0.000327842 0)
(0.11957 0.000336932 0)
(0.118887 0.00034583 0)
(0.118186 0.000354538 0)
(0.117468 0.000363054 0)
(0.116734 0.000371378 0)
(0.115983 0.000379513 0)
(0.115216 0.000387458 0)
(0.114433 0.000395214 0)
(0.113635 0.000402783 0)
(0.112821 0.000410165 0)
(0.111994 0.000417362 0)
(0.111152 0.000424376 0)
(0.110296 0.000431208 0)
(0.109427 0.00043786 0)
(0.108544 0.000444334 0)
(0.107649 0.000450632 0)
(0.106742 0.000456756 0)
(0.105822 0.000462709 0)
(0.104891 0.000468492 0)
(0.103948 0.000474108 0)
(0.102994 0.00047956 0)
(0.10203 0.000484851 0)
(0.101055 0.000489982 0)
(0.100069 0.000494956 0)
(0.0990745 0.000499776 0)
(0.0980702 0.000504446 0)
(0.0970566 0.000508967 0)
(0.0960342 0.000513342 0)
(0.0950031 0.000517575 0)
(0.0939637 0.000521668 0)
(0.0929163 0.000525624 0)
(0.0918611 0.000529445 0)
(0.0907984 0.000533136 0)
(0.0897284 0.000536699 0)
(0.0886515 0.000540136 0)
(0.0875678 0.00054345 0)
(0.0864775 0.000546645 0)
(0.0853811 0.000549723 0)
(0.0842785 0.000552688 0)
(0.0831702 0.000555541 0)
(0.0820563 0.000558286 0)
(0.0809369 0.000560926 0)
(0.0798125 0.000563463 0)
(0.078683 0.0005659 0)
(0.0775488 0.00056824 0)
(0.0764099 0.000570486 0)
(0.0752667 0.00057264 0)
(0.0741193 0.000574705 0)
(0.0729678 0.000576683 0)
(0.0718125 0.000578577 0)
(0.0706534 0.00058039 0)
(0.0694908 0.000582124 0)
(0.0683249 0.000583782 0)
(0.0671556 0.000585365 0)
(0.0659833 0.000586877 0)
(0.0648081 0.000588319 0)
(0.06363 0.000589694 0)
(0.0624492 0.000591005 0)
(0.0612659 0.000592253 0)
(0.0600802 0.00059344 0)
(0.0588921 0.00059457 0)
(0.0577018 0.000595643 0)
(0.0565095 0.000596662 0)
(0.0553151 0.000597629 0)
(0.0541189 0.000598546 0)
(0.0529209 0.000599414 0)
(0.0517212 0.000600237 0)
(0.0505199 0.000601014 0)
(0.0493171 0.000601749 0)
(0.0481129 0.000602444 0)
(0.0469073 0.000603098 0)
(0.0457004 0.000603716 0)
(0.0444924 0.000604297 0)
(0.0432832 0.000604844 0)
(0.042073 0.000605358 0)
(0.0408617 0.000605841 0)
(0.0396496 0.000606294 0)
(0.0384365 0.000606718 0)
(0.0372227 0.000607116 0)
(0.036008 0.000607487 0)
(0.0347927 0.000607834 0)
(0.0335767 0.000608158 0)
(0.03236 0.000608459 0)
(0.0311428 0.00060874 0)
(0.0299251 0.000609001 0)
(0.0287068 0.000609243 0)
(0.0274881 0.000609467 0)
(0.0262689 0.000609674 0)
(0.0250494 0.000609866 0)
(0.0238294 0.000610043 0)
(0.0226092 0.000610205 0)
(0.0213886 0.000610355 0)
(0.0201678 0.000610491 0)
(0.0189466 0.000610616 0)
(0.0177253 0.00061073 0)
(0.0165037 0.000610834 0)
(0.0152819 0.000610927 0)
(0.01406 0.000611012 0)
(0.0128379 0.000611087 0)
(0.0116156 0.000611154 0)
(0.0103933 0.000611213 0)
(0.00917076 0.000611265 0)
(0.00794818 0.000611309 0)
(0.00672552 0.000611347 0)
(0.00550279 0.000611378 0)
(0.00428 0.000611402 0)
(0.00305718 0.00061142 0)
(0.00183432 0.000611432 0)
(0.000611441 0.000611438 0)
(0.000755235 -0.00226565 0)
(0.00226569 -0.0022656 0)
(0.00377609 -0.00226549 0)
(0.00528641 -0.00226534 0)
(0.00679661 -0.00226513 0)
(0.00830665 -0.00226486 0)
(0.00981649 -0.00226454 0)
(0.0113261 -0.00226415 0)
(0.0128354 -0.0022637 0)
(0.0143445 -0.00226318 0)
(0.0158531 -0.00226259 0)
(0.0173613 -0.00226192 0)
(0.0188691 -0.00226117 0)
(0.0203763 -0.00226034 0)
(0.021883 -0.0022594 0)
(0.023389 -0.00225837 0)
(0.0248943 -0.00225724 0)
(0.0263988 -0.00225598 0)
(0.0279024 -0.00225461 0)
(0.0294051 -0.00225311 0)
(0.0309067 -0.00225146 0)
(0.0324072 -0.00224967 0)
(0.0339065 -0.00224773 0)
(0.0354044 -0.00224561 0)
(0.0369008 -0.00224332 0)
(0.0383957 -0.00224085 0)
(0.0398889 -0.00223817 0)
(0.0413802 -0.00223529 0)
(0.0428695 -0.00223218 0)
(0.0443567 -0.00222884 0)
(0.0458416 -0.00222526 0)
(0.0473241 -0.00222142 0)
(0.0488039 -0.00221731 0)
(0.0502808 -0.00221292 0)
(0.0517548 -0.00220823 0)
(0.0532255 -0.00220323 0)
(0.0546928 -0.00219791 0)
(0.0561565 -0.00219225 0)
(0.0576162 -0.00218624 0)
(0.0590719 -0.00217987 0)
(0.0605232 -0.00217312 0)
(0.0619699 -0.00216597 0)
(0.0634117 -0.00215842 0)
(0.0648483 -0.00215044 0)
(0.0662795 -0.00214203 0)
(0.0677049 -0.00213317 0)
(0.0691243 -0.00212385 0)
(0.0705373 -0.00211404 0)
(0.0719436 -0.00210375 0)
(0.0733429 -0.00209294 0)
(0.0747348 -0.00208162 0)
(0.076119 -0.00206976 0)
(0.0774952 -0.00205736 0)
(0.0788628 -0.0020444 0)
(0.0802217 -0.00203087 0)
(0.0815714 -0.00201676 0)
(0.0829115 -0.00200205 0)
(0.0842415 -0.00198674 0)
(0.0855612 -0.00197081 0)
(0.08687 -0.00195425 0)
(0.0881676 -0.00193706 0)
(0.0894536 -0.00191923 0)
(0.0907274 -0.00190075 0)
(0.0919887 -0.0018816 0)
(0.093237 -0.00186179 0)
(0.0944719 -0.00184131 0)
(0.0956929 -0.00182016 0)
(0.0968996 -0.00179832 0)
(0.0980915 -0.0017758 0)
(0.0992682 -0.0017526 0)
(0.100429 -0.0017287 0)
(0.101574 -0.00170412 0)
(0.102702 -0.00167885 0)
(0.103813 -0.0016529 0)
(0.104907 -0.00162626 0)
(0.105982 -0.00159895 0)
(0.10704 -0.00157095 0)
(0.108078 -0.00154229 0)
(0.109097 -0.00151297 0)
(0.110096 -0.00148299 0)
(0.111075 -0.00145237 0)
(0.112033 -0.00142111 0)
(0.112971 -0.00138922 0)
(0.113886 -0.00135673 0)
(0.11478 -0.00132363 0)
(0.115652 -0.00128995 0)
(0.116501 -0.0012557 0)
(0.117327 -0.00122089 0)
(0.118129 -0.00118555 0)
(0.118908 -0.00114969 0)
(0.119663 -0.00111333 0)
(0.120393 -0.00107648 0)
(0.121099 -0.00103918 0)
(0.121779 -0.00100145 0)
(0.122435 -0.000963292 0)
(0.123064 -0.000924746 0)
(0.123668 -0.00088583 0)
(0.124246 -0.00084657 0)
(0.124797 -0.00080699 0)
(0.125322 -0.000767115 0)
(0.12582 -0.000726971 0)
(0.126292 -0.000686584 0)
(0.126736 -0.000645981 0)
(0.127153 -0.000605188 0)
(0.127543 -0.000564232 0)
(0.127906 -0.000523141 0)
(0.128241 -0.000481941 0)
(0.128548 -0.00044066 0)
(0.128828 -0.000399326 0)
(0.129081 -0.000357964 0)
(0.129306 -0.000316603 0)
(0.129503 -0.000275269 0)
(0.129673 -0.000233989 0)
(0.129815 -0.00019279 0)
(0.12993 -0.000151696 0)
(0.130017 -0.000110735 0)
(0.130077 -6.99304e-05 0)
(0.13011 -2.93076e-05 0)
(0.130116 1.11094e-05 0)
(0.130095 5.12968e-05 0)
(0.130047 9.12319e-05 0)
(0.129973 0.000130892 0)
(0.129872 0.000170256 0)
(0.129745 0.000209303 0)
(0.129593 0.000248012 0)
(0.129414 0.000286364 0)
(0.12921 0.00032434 0)
(0.128981 0.000361923 0)
(0.128727 0.000399096 0)
(0.128449 0.000435842 0)
(0.128146 0.000472146 0)
(0.127819 0.000507993 0)
(0.127468 0.000543371 0)
(0.127094 0.000578265 0)
(0.126696 0.000612665 0)
(0.126276 0.00064656 0)
(0.125833 0.000679938 0)
(0.125369 0.000712791 0)
(0.124882 0.000745111 0)
(0.124375 0.000776889 0)
(0.123846 0.00080812 0)
(0.123297 0.000838796 0)
(0.122727 0.000868914 0)
(0.122137 0.000898467 0)
(0.121528 0.000927454 0)
(0.1209 0.000955871 0)
(0.120253 0.000983715 0)
(0.119588 0.00101099 0)
(0.118904 0.00103768 0)
(0.118203 0.0010638 0)
(0.117485 0.00108935 0)
(0.11675 0.00111432 0)
(0.115999 0.00113873 0)
(0.115231 0.00116256 0)
(0.114448 0.00118583 0)
(0.113649 0.00120853 0)
(0.112836 0.00123068 0)
(0.112008 0.00125227 0)
(0.111166 0.00127331 0)
(0.110309 0.0012938 0)
(0.10944 0.00131376 0)
(0.108557 0.00133318 0)
(0.107662 0.00135207 0)
(0.106754 0.00137044 0)
(0.105834 0.00138829 0)
(0.104902 0.00140564 0)
(0.103959 0.00142249 0)
(0.103005 0.00143884 0)
(0.10204 0.00145471 0)
(0.101065 0.0014701 0)
(0.100079 0.00148502 0)
(0.099084 0.00149948 0)
(0.0980793 0.00151348 0)
(0.0970655 0.00152704 0)
(0.0960427 0.00154017 0)
(0.0950114 0.00155286 0)
(0.0939717 0.00156514 0)
(0.0929241 0.001577 0)
(0.0918686 0.00158847 0)
(0.0908056 0.00159954 0)
(0.0897354 0.00161022 0)
(0.0886582 0.00162053 0)
(0.0875742 0.00163047 0)
(0.0864838 0.00164005 0)
(0.0853871 0.00164928 0)
(0.0842843 0.00165817 0)
(0.0831758 0.00166673 0)
(0.0820616 0.00167496 0)
(0.0809421 0.00168288 0)
(0.0798174 0.00169049 0)
(0.0786878 0.0016978 0)
(0.0775533 0.00170481 0)
(0.0764143 0.00171155 0)
(0.0752709 0.00171801 0)
(0.0741233 0.0017242 0)
(0.0729717 0.00173013 0)
(0.0718162 0.00173581 0)
(0.070657 0.00174125 0)
(0.0694942 0.00174645 0)
(0.0683281 0.00175142 0)
(0.0671587 0.00175617 0)
(0.0659863 0.0017607 0)
(0.0648109 0.00176502 0)
(0.0636327 0.00176915 0)
(0.0624518 0.00177308 0)
(0.0612683 0.00177682 0)
(0.0600825 0.00178038 0)
(0.0588943 0.00178376 0)
(0.0577039 0.00178698 0)
(0.0565114 0.00179004 0)
(0.055317 0.00179294 0)
(0.0541207 0.00179568 0)
(0.0529226 0.00179829 0)
(0.0517228 0.00180075 0)
(0.0505214 0.00180309 0)
(0.0493185 0.00180529 0)
(0.0481142 0.00180737 0)
(0.0469085 0.00180933 0)
(0.0457016 0.00181118 0)
(0.0444935 0.00181293 0)
(0.0432843 0.00181457 0)
(0.042074 0.00181611 0)
(0.0408627 0.00181755 0)
(0.0396505 0.00181891 0)
(0.0384374 0.00182018 0)
(0.0372234 0.00182137 0)
(0.0360088 0.00182249 0)
(0.0347934 0.00182353 0)
(0.0335773 0.0018245 0)
(0.0323606 0.0018254 0)
(0.0311434 0.00182624 0)
(0.0299256 0.00182702 0)
(0.0287073 0.00182775 0)
(0.0274885 0.00182842 0)
(0.0262693 0.00182904 0)
(0.0250497 0.00182961 0)
(0.0238298 0.00183014 0)
(0.0226095 0.00183063 0)
(0.0213889 0.00183108 0)
(0.020168 0.00183149 0)
(0.0189469 0.00183186 0)
(0.0177255 0.0018322 0)
(0.0165039 0.00183251 0)
(0.0152821 0.00183279 0)
(0.0140601 0.00183304 0)
(0.012838 0.00183327 0)
(0.0116158 0.00183347 0)
(0.0103934 0.00183365 0)
(0.00917086 0.0018338 0)
(0.00794827 0.00183393 0)
(0.00672559 0.00183405 0)
(0.00550285 0.00183414 0)
(0.00428005 0.00183421 0)
(0.00305721 0.00183427 0)
(0.00183434 0.0018343 0)
(0.000611447 0.00183432 0)
(0.00075527 -0.00377614 0)
(0.00226579 -0.00377605 0)
(0.00377626 -0.00377588 0)
(0.00528665 -0.00377562 0)
(0.00679692 -0.00377527 0)
(0.00830704 -0.00377483 0)
(0.00981696 -0.00377429 0)
(0.0113267 -0.00377365 0)
(0.0128361 -0.00377291 0)
(0.0143452 -0.00377205 0)
(0.0158539 -0.00377107 0)
(0.0173623 -0.00376996 0)
(0.0188702 -0.00376872 0)
(0.0203775 -0.00376733 0)
(0.0218843 -0.00376579 0)
(0.0233904 -0.00376407 0)
(0.0248959 -0.00376219 0)
(0.0264005 -0.00376011 0)
(0.0279043 -0.00375783 0)
(0.0294072 -0.00375533 0)
(0.030909 -0.0037526 0)
(0.0324097 -0.00374963 0)
(0.0339092 -0.0037464 0)
(0.0354073 -0.00374289 0)
(0.036904 -0.00373908 0)
(0.0383992 -0.00373496 0)
(0.0398926 -0.00373052 0)
(0.0413842 -0.00372572 0)
(0.0428738 -0.00372056 0)
(0.0443613 -0.00371501 0)
(0.0458466 -0.00370905 0)
(0.0473294 -0.00370267 0)
(0.0488095 -0.00369583 0)
(0.0502869 -0.00368853 0)
(0.0517612 -0.00368073 0)
(0.0532324 -0.00367241 0)
(0.0547001 -0.00366356 0)
(0.0561642 -0.00365415 0)
(0.0576245 -0.00364415 0)
(0.0590806 -0.00363354 0)
(0.0605325 -0.0036223 0)
(0.0619797 -0.00361041 0)
(0.063422 -0.00359784 0)
(0.0648592 -0.00358456 0)
(0.066291 -0.00357056 0)
(0.067717 -0.0035558 0)
(0.069137 -0.00354028 0)
(0.0705507 -0.00352395 0)
(0.0719576 -0.0035068 0)
(0.0733576 -0.00348881 0)
(0.0747502 -0.00346996 0)
(0.0761352 -0.00345021 0)
(0.0775121 -0.00342956 0)
(0.0788805 -0.00340797 0)
(0.0802401 -0.00338543 0)
(0.0815906 -0.00336192 0)
(0.0829315 -0.00333742 0)
(0.0842624 -0.00331191 0)
(0.0855828 -0.00328537 0)
(0.0868925 -0.00325779 0)
(0.088191 -0.00322915 0)
(0.0894778 -0.00319944 0)
(0.0907525 -0.00316864 0)
(0.0920147 -0.00313674 0)
(0.0932639 -0.00310374 0)
(0.0944997 -0.00306961 0)
(0.0957216 -0.00303435 0)
(0.0969292 -0.00299796 0)
(0.098122 -0.00296043 0)
(0.0992996 -0.00292176 0)
(0.100461 -0.00288194 0)
(0.101607 -0.00284097 0)
(0.102736 -0.00279885 0)
(0.103848 -0.00275559 0)
(0.104943 -0.00271119 0)
(0.106019 -0.00266566 0)
(0.107077 -0.002619 0)
(0.108117 -0.00257123 0)
(0.109136 -0.00252234 0)
(0.110136 -0.00247237 0)
(0.111116 -0.00242132 0)
(0.112075 -0.00236921 0)
(0.113013 -0.00231606 0)
(0.11393 -0.00226188 0)
(0.114825 -0.0022067 0)
(0.115697 -0.00215055 0)
(0.116547 -0.00209344 0)
(0.117374 -0.00203542 0)
(0.118177 -0.00197649 0)
(0.118956 -0.0019167 0)
(0.119712 -0.00185608 0)
(0.120443 -0.00179465 0)
(0.121149 -0.00173246 0)
(0.12183 -0.00166954 0)
(0.122486 -0.00160592 0)
(0.123116 -0.00154165 0)
(0.12372 -0.00147677 0)
(0.124298 -0.00141131 0)
(0.12485 -0.00134531 0)
(0.125375 -0.00127882 0)
(0.125874 -0.00121189 0)
(0.126346 -0.00114455 0)
(0.12679 -0.00107685 0)
(0.127208 -0.00100883 0)
(0.127598 -0.000940538 0)
(0.127961 -0.000872022 0)
(0.128296 -0.000803326 0)
(0.128603 -0.000734494 0)
(0.128884 -0.000665572 0)
(0.129136 -0.000596607 0)
(0.129361 -0.000527642 0)
(0.129558 -0.000458722 0)
(0.129728 -0.000389893 0)
(0.12987 -0.000321198 0)
(0.129984 -0.000252681 0)
(0.130071 -0.000184384 0)
(0.130131 -0.000116349 0)
(0.130164 -4.86173e-05 0)
(0.13017 1.87704e-05 0)
(0.130148 8.57751e-05 0)
(0.1301 0.000152358 0)
(0.130026 0.000218483 0)
(0.129925 0.000284113 0)
(0.129797 0.000349213 0)
(0.129644 0.000413749 0)
(0.129465 0.00047769 0)
(0.129261 0.000541004 0)
(0.129031 0.000603661 0)
(0.128777 0.000665634 0)
(0.128497 0.000726894 0)
(0.128194 0.000787417 0)
(0.127866 0.000847178 0)
(0.127515 0.000906154 0)
(0.12714 0.000964325 0)
(0.126742 0.00102167 0)
(0.126321 0.00107817 0)
(0.125878 0.00113381 0)
(0.125412 0.00118858 0)
(0.124925 0.00124245 0)
(0.124417 0.00129542 0)
(0.123887 0.00134748 0)
(0.123337 0.00139861 0)
(0.122767 0.00144882 0)
(0.122176 0.00149808 0)
(0.121566 0.00154639 0)
(0.120938 0.00159375 0)
(0.12029 0.00164016 0)
(0.119624 0.00168561 0)
(0.11894 0.00173011 0)
(0.118238 0.00177364 0)
(0.117519 0.00181622 0)
(0.116783 0.00185784 0)
(0.116031 0.00189851 0)
(0.115263 0.00193823 0)
(0.114479 0.00197701 0)
(0.113679 0.00201484 0)
(0.112865 0.00205175 0)
(0.112036 0.00208773 0)
(0.111193 0.00212279 0)
(0.110336 0.00215694 0)
(0.109466 0.00219019 0)
(0.108583 0.00222255 0)
(0.107686 0.00225403 0)
(0.106778 0.00228464 0)
(0.105857 0.00231439 0)
(0.104925 0.00234329 0)
(0.103981 0.00237136 0)
(0.103026 0.00239861 0)
(0.102061 0.00242505 0)
(0.101085 0.00245069 0)
(0.100099 0.00247555 0)
(0.099103 0.00249963 0)
(0.0980977 0.00252297 0)
(0.0970833 0.00254556 0)
(0.09606 0.00256742 0)
(0.0950281 0.00258857 0)
(0.0939878 0.00260902 0)
(0.0929396 0.00262879 0)
(0.0918836 0.00264788 0)
(0.0908201 0.00266632 0)
(0.0897494 0.00268412 0)
(0.0886717 0.00270129 0)
(0.0875873 0.00271785 0)
(0.0864963 0.00273381 0)
(0.0853992 0.00274918 0)
(0.084296 0.00276399 0)
(0.083187 0.00277824 0)
(0.0820724 0.00279196 0)
(0.0809525 0.00280514 0)
(0.0798274 0.00281781 0)
(0.0786973 0.00282999 0)
(0.0775625 0.00284167 0)
(0.0764231 0.00285289 0)
(0.0752794 0.00286364 0)
(0.0741314 0.00287395 0)
(0.0729794 0.00288383 0)
(0.0718236 0.00289329 0)
(0.0706641 0.00290234 0)
(0.069501 0.002911 0)
(0.0683346 0.00291928 0)
(0.0671649 0.00292718 0)
(0.0659922 0.00293473 0)
(0.0648165 0.00294193 0)
(0.063638 0.00294879 0)
(0.0624569 0.00295534 0)
(0.0612732 0.00296156 0)
(0.0600871 0.00296749 0)
(0.0588987 0.00297313 0)
(0.0577081 0.00297848 0)
(0.0565154 0.00298357 0)
(0.0553208 0.00298839 0)
(0.0541242 0.00299297 0)
(0.052926 0.0029973 0)
(0.051726 0.0030014 0)
(0.0505244 0.00300528 0)
(0.0493214 0.00300895 0)
(0.0481169 0.00301241 0)
(0.0469111 0.00301568 0)
(0.045704 0.00301876 0)
(0.0444958 0.00302166 0)
(0.0432864 0.00302438 0)
(0.042076 0.00302695 0)
(0.0408645 0.00302935 0)
(0.0396522 0.00303161 0)
(0.038439 0.00303373 0)
(0.037225 0.00303571 0)
(0.0360102 0.00303756 0)
(0.0347947 0.00303929 0)
(0.0335786 0.0030409 0)
(0.0323618 0.0030424 0)
(0.0311444 0.0030438 0)
(0.0299266 0.0030451 0)
(0.0287082 0.0030463 0)
(0.0274894 0.00304742 0)
(0.0262701 0.00304845 0)
(0.0250505 0.00304941 0)
(0.0238305 0.00305028 0)
(0.0226101 0.00305109 0)
(0.0213895 0.00305184 0)
(0.0201685 0.00305252 0)
(0.0189473 0.00305314 0)
(0.0177259 0.0030537 0)
(0.0165043 0.00305422 0)
(0.0152825 0.00305468 0)
(0.0140605 0.0030551 0)
(0.0128383 0.00305548 0)
(0.011616 0.00305581 0)
(0.0103936 0.0030561 0)
(0.00917105 0.00305636 0)
(0.00794843 0.00305658 0)
(0.00672573 0.00305677 0)
(0.00550296 0.00305692 0)
(0.00428013 0.00305704 0)
(0.00305727 0.00305713 0)
(0.00183437 0.00305719 0)
(0.000611459 0.00305722 0)
(0.00075532 -0.00528671 0)
(0.00226595 -0.00528659 0)
(0.00377652 -0.00528635 0)
(0.00528702 -0.005286 0)
(0.0067974 -0.00528551 0)
(0.00830762 -0.0052849 0)
(0.00981767 -0.00528415 0)
(0.0113275 -0.00528327 0)
(0.012837 -0.00528223 0)
(0.0143463 -0.00528104 0)
(0.0158552 -0.00527968 0)
(0.0173637 -0.00527814 0)
(0.0188717 -0.00527641 0)
(0.0203793 -0.00527448 0)
(0.0218862 -0.00527233 0)
(0.0233926 -0.00526995 0)
(0.0248982 -0.00526733 0)
(0.0264031 -0.00526444 0)
(0.0279072 -0.00526126 0)
(0.0294103 -0.00525779 0)
(0.0309124 -0.00525399 0)
(0.0324134 -0.00524985 0)
(0.0339132 -0.00524534 0)
(0.0354117 -0.00524045 0)
(0.0369088 -0.00523515 0)
(0.0384043 -0.00522941 0)
(0.0398981 -0.00522321 0)
(0.0413902 -0.00521653 0)
(0.0428802 -0.00520933 0)
(0.0443682 -0.00520159 0)
(0.045854 -0.00519328 0)
(0.0473373 -0.00518437 0)
(0.048818 -0.00517483 0)
(0.0502959 -0.00516463 0)
(0.0517709 -0.00515374 0)
(0.0532427 -0.00514213 0)
(0.0547111 -0.00512977 0)
(0.0561759 -0.00511662 0)
(0.0576368 -0.00510266 0)
(0.0590937 -0.00508784 0)
(0.0605463 -0.00507214 0)
(0.0619943 -0.00505552 0)
(0.0634375 -0.00503795 0)
(0.0648756 -0.0050194 0)
(0.0663082 -0.00499983 0)
(0.0677352 -0.00497921 0)
(0.0691561 -0.0049575 0)
(0.0705707 -0.00493468 0)
(0.0719787 -0.00491071 0)
(0.0733797 -0.00488555 0)
(0.0747734 -0.00485919 0)
(0.0761594 -0.00483157 0)
(0.0775374 -0.00480269 0)
(0.078907 -0.00477249 0)
(0.0802678 -0.00474097 0)
(0.0816194 -0.00470808 0)
(0.0829615 -0.0046738 0)
(0.0842936 -0.00463811 0)
(0.0856153 -0.00460098 0)
(0.0869263 -0.00456239 0)
(0.088226 -0.00452232 0)
(0.0895141 -0.00448074 0)
(0.0907901 -0.00443764 0)
(0.0920536 -0.004393 0)
(0.0933042 -0.0043468 0)
(0.0945413 -0.00429903 0)
(0.0957646 -0.00424968 0)
(0.0969736 -0.00419874 0)
(0.0981678 -0.00414621 0)
(0.0993467 -0.00409206 0)
(0.10051 -0.00403632 0)
(0.101657 -0.00397896 0)
(0.102788 -0.00391999 0)
(0.103901 -0.00385942 0)
(0.104997 -0.00379726 0)
(0.106075 -0.0037335 0)
(0.107134 -0.00366816 0)
(0.108175 -0.00360126 0)
(0.109196 -0.00353281 0)
(0.110197 -0.00346283 0)
(0.111178 -0.00339133 0)
(0.112139 -0.00331835 0)
(0.113078 -0.00324391 0)
(0.113996 -0.00316803 0)
(0.114892 -0.00309075 0)
(0.115765 -0.0030121 0)
(0.116616 -0.00293212 0)
(0.117444 -0.00285084 0)
(0.118248 -0.0027683 0)
(0.119029 -0.00268455 0)
(0.119785 -0.00259963 0)
(0.120517 -0.00251358 0)
(0.121224 -0.00242647 0)
(0.121906 -0.00233832 0)
(0.122562 -0.00224921 0)
(0.123193 -0.00215918 0)
(0.123798 -0.00206828 0)
(0.124377 -0.00197658 0)
(0.12493 -0.00188412 0)
(0.125456 -0.00179098 0)
(0.125955 -0.00169721 0)
(0.126427 -0.00160287 0)
(0.126872 -0.00150803 0)
(0.12729 -0.00141274 0)
(0.12768 -0.00131707 0)
(0.128043 -0.00122108 0)
(0.128378 -0.00112485 0)
(0.128686 -0.00102842 0)
(0.128966 -0.000931863 0)
(0.129219 -0.000835248 0)
(0.129444 -0.000738634 0)
(0.129641 -0.000642085 0)
(0.12981 -0.000545663 0)
(0.129952 -0.000449429 0)
(0.130066 -0.000353445 0)
(0.130153 -0.00025777 0)
(0.130213 -0.000162464 0)
(0.130245 -6.75832e-05 0)
(0.13025 2.68147e-05 0)
(0.130228 0.000120675 0)
(0.13018 0.000213943 0)
(0.130105 0.000306568 0)
(0.130003 0.000398499 0)
(0.129875 0.000489686 0)
(0.129721 0.000580083 0)
(0.129542 0.000669643 0)
(0.129337 0.000758325 0)
(0.129106 0.000846085 0)
(0.128851 0.000932884 0)
(0.128571 0.00101868 0)
(0.128266 0.00110345 0)
(0.127937 0.00118715 0)
(0.127585 0.00126974 0)
(0.127209 0.00135121 0)
(0.12681 0.00143152 0)
(0.126388 0.00151065 0)
(0.125944 0.00158856 0)
(0.125478 0.00166526 0)
(0.124989 0.0017407 0)
(0.12448 0.00181487 0)
(0.123949 0.00188777 0)
(0.123398 0.00195937 0)
(0.122826 0.00202966 0)
(0.122235 0.00209863 0)
(0.121624 0.00216628 0)
(0.120994 0.00223259 0)
(0.120345 0.00229757 0)
(0.119678 0.0023612 0)
(0.118992 0.00242349 0)
(0.11829 0.00248444 0)
(0.117569 0.00254405 0)
(0.116833 0.00260231 0)
(0.116079 0.00265924 0)
(0.11531 0.00271485 0)
(0.114525 0.00276912 0)
(0.113724 0.00282209 0)
(0.112909 0.00287374 0)
(0.112079 0.0029241 0)
(0.111235 0.00297317 0)
(0.110377 0.00302097 0)
(0.109505 0.00306751 0)
(0.108621 0.0031128 0)
(0.107724 0.00315685 0)
(0.106814 0.00319969 0)
(0.105892 0.00324133 0)
(0.104959 0.00328178 0)
(0.104014 0.00332106 0)
(0.103058 0.00335919 0)
(0.102092 0.00339618 0)
(0.101115 0.00343206 0)
(0.100128 0.00346684 0)
(0.0991314 0.00350055 0)
(0.0981253 0.00353319 0)
(0.0971099 0.0035648 0)
(0.0960858 0.00359539 0)
(0.095053 0.00362498 0)
(0.094012 0.00365359 0)
(0.0929629 0.00368124 0)
(0.0919061 0.00370795 0)
(0.0908419 0.00373375 0)
(0.0897704 0.00375864 0)
(0.0886919 0.00378266 0)
(0.0876068 0.00380582 0)
(0.0865151 0.00382815 0)
(0.0854173 0.00384965 0)
(0.0843134 0.00387037 0)
(0.0832037 0.0038903 0)
(0.0820885 0.00390948 0)
(0.080968 0.00392792 0)
(0.0798423 0.00394564 0)
(0.0787116 0.00396266 0)
(0.0775762 0.003979 0)
(0.0764363 0.00399468 0)
(0.075292 0.00400973 0)
(0.0741435 0.00402414 0)
(0.072991 0.00403795 0)
(0.0718347 0.00405118 0)
(0.0706747 0.00406383 0)
(0.0695112 0.00407594 0)
(0.0683443 0.00408751 0)
(0.0671742 0.00409856 0)
(0.066001 0.00410911 0)
(0.0648249 0.00411917 0)
(0.0636461 0.00412877 0)
(0.0624645 0.00413791 0)
(0.0612805 0.00414661 0)
(0.060094 0.0041549 0)
(0.0589053 0.00416277 0)
(0.0577143 0.00417026 0)
(0.0565213 0.00417736 0)
(0.0553264 0.0041841 0)
(0.0541296 0.00419049 0)
(0.052931 0.00419655 0)
(0.0517308 0.00420228 0)
(0.0505289 0.0042077 0)
(0.0493256 0.00421282 0)
(0.0481209 0.00421765 0)
(0.0469149 0.00422221 0)
(0.0457076 0.00422651 0)
(0.0444991 0.00423056 0)
(0.0432896 0.00423437 0)
(0.0420789 0.00423795 0)
(0.0408673 0.00424131 0)
(0.0396548 0.00424446 0)
(0.0384414 0.00424741 0)
(0.0372273 0.00425017 0)
(0.0360123 0.00425275 0)
(0.0347967 0.00425516 0)
(0.0335804 0.00425741 0)
(0.0323635 0.00425951 0)
(0.0311461 0.00426146 0)
(0.0299281 0.00426327 0)
(0.0287096 0.00426495 0)
(0.0274907 0.0042665 0)
(0.0262713 0.00426794 0)
(0.0250516 0.00426927 0)
(0.0238315 0.0042705 0)
(0.022611 0.00427162 0)
(0.0213903 0.00427266 0)
(0.0201693 0.00427361 0)
(0.0189481 0.00427447 0)
(0.0177266 0.00427526 0)
(0.0165049 0.00427597 0)
(0.015283 0.00427662 0)
(0.0140609 0.0042772 0)
(0.0128387 0.00427773 0)
(0.0116164 0.00427819 0)
(0.0103939 0.0042786 0)
(0.00917134 0.00427895 0)
(0.00794867 0.00427926 0)
(0.00672593 0.00427952 0)
(0.00550312 0.00427973 0)
(0.00428026 0.0042799 0)
(0.00305736 0.00428003 0)
(0.00183443 0.00428011 0)
(0.000611477 0.00428015 0)
(0.000755387 -0.0067974 0)
(0.00226615 -0.00679725 0)
(0.00377686 -0.00679695 0)
(0.00528749 -0.00679649 0)
(0.00679802 -0.00679588 0)
(0.0083084 -0.0067951 0)
(0.00981859 -0.00679415 0)
(0.0113286 -0.00679303 0)
(0.0128383 -0.00679171 0)
(0.0143477 -0.00679019 0)
(0.0158568 -0.00678846 0)
(0.0173655 -0.0067865 0)
(0.0188738 -0.0067843 0)
(0.0203816 -0.00678185 0)
(0.0218888 -0.00677911 0)
(0.0233954 -0.00677608 0)
(0.0249014 -0.00677273 0)
(0.0264066 -0.00676905 0)
(0.027911 -0.006765 0)
(0.0294144 -0.00676056 0)
(0.0309169 -0.00675572 0)
(0.0324183 -0.00675043 0)
(0.0339186 -0.00674468 0)
(0.0354175 -0.00673843 0)
(0.0369151 -0.00673165 0)
(0.0384111 -0.00672432 0)
(0.0399055 -0.0067164 0)
(0.0413981 -0.00670785 0)
(0.0428888 -0.00669864 0)
(0.0443774 -0.00668873 0)
(0.0458638 -0.0066781 0)
(0.0473478 -0.00666669 0)
(0.0488292 -0.00665448 0)
(0.0503079 -0.00664142 0)
(0.0517837 -0.00662748 0)
(0.0532563 -0.0066126 0)
(0.0547256 -0.00659677 0)
(0.0561913 -0.00657992 0)
(0.0576533 -0.00656202 0)
(0.0591112 -0.00654303 0)
(0.0605648 -0.0065229 0)
(0.0620138 -0.00650159 0)
(0.0634581 -0.00647906 0)
(0.0648973 -0.00645526 0)
(0.0663312 -0.00643016 0)
(0.0677593 -0.0064037 0)
(0.0691815 -0.00637585 0)
(0.0705974 -0.00634656 0)
(0.0720068 -0.00631579 0)
(0.0734091 -0.00628351 0)
(0.0748042 -0.00624966 0)
(0.0761917 -0.00621421 0)
(0.0775711 -0.00617712 0)
(0.0789422 -0.00613835 0)
(0.0803046 -0.00609786 0)
(0.0816578 -0.00605562 0)
(0.0830014 -0.0060116 0)
(0.0843352 -0.00596575 0)
(0.0856586 -0.00591806 0)
(0.0869712 -0.00586848 0)
(0.0882727 -0.00581699 0)
(0.0895625 -0.00576356 0)
(0.0908403 -0.00570817 0)
(0.0921055 -0.0056508 0)
(0.0933579 -0.00559143 0)
(0.0945968 -0.00553003 0)
(0.0958219 -0.0054666 0)
(0.0970327 -0.00540112 0)
(0.0982287 -0.00533358 0)
(0.0994095 -0.00526398 0)
(0.100575 -0.0051923 0)
(0.101724 -0.00511856 0)
(0.102856 -0.00504274 0)
(0.103971 -0.00496485 0)
(0.105069 -0.00488491 0)
(0.106149 -0.00480292 0)
(0.10721 -0.00471889 0)
(0.108252 -0.00463285 0)
(0.109275 -0.00454481 0)
(0.110278 -0.0044548 0)
(0.111261 -0.00436283 0)
(0.112223 -0.00426896 0)
(0.113164 -0.00417319 0)
(0.114083 -0.00407559 0)
(0.114981 -0.00397617 0)
(0.115856 -0.00387499 0)
(0.116708 -0.00377208 0)
(0.117538 -0.00366751 0)
(0.118343 -0.00356132 0)
(0.119125 -0.00345357 0)
(0.119883 -0.0033443 0)
(0.120616 -0.00323359 0)
(0.121324 -0.0031215 0)
(0.122007 -0.00300808 0)
(0.122665 -0.00289341 0)
(0.123297 -0.00277756 0)
(0.123903 -0.0026606 0)
(0.124483 -0.00254259 0)
(0.125036 -0.00242363 0)
(0.125562 -0.00230377 0)
(0.126062 -0.0021831 0)
(0.126535 -0.0020617 0)
(0.126981 -0.00193965 0)
(0.127399 -0.00181703 0)
(0.12779 -0.00169392 0)
(0.128153 -0.0015704 0)
(0.128489 -0.00144655 0)
(0.128797 -0.00132247 0)
(0.129077 -0.00119822 0)
(0.129329 -0.00107389 0)
(0.129554 -0.000949563 0)
(0.129751 -0.000825321 0)
(0.12992 -0.000701244 0)
(0.130062 -0.000577411 0)
(0.130176 -0.0004539 0)
(0.130263 -0.000330788 0)
(0.130322 -0.000208152 0)
(0.130353 -8.60664e-05 0)
(0.130358 3.53968e-05 0)
(0.130336 0.000156166 0)
(0.130286 0.000276172 0)
(0.13021 0.000395348 0)
(0.130108 0.000513629 0)
(0.129979 0.00063095 0)
(0.129824 0.000747252 0)
(0.129644 0.000862477 0)
(0.129437 0.000976567 0)
(0.129206 0.00108947 0)