/*--------------------------------*- C++ -*----------------------------------*\
| =========                 |                                                 |
| \\      /  F ield         | OpenFOAM: The Open Source CFD Toolbox           |
|  \\    /   O peration     | Version:  v2012                                 |
|   \\  /    A nd           | Website:  www.openfoam.com                      |
|    \\/     M anipulation  |                                                 |
\*---------------------------------------------------------------------------*/
FoamFile
{
    version     2.0;
    format      ascii;
    class       volScalarField;
    location    "0";
    object      p;
}
// * * * * * * * * * * * * * * * * * * * * * * * * * * * * * * * * * * * * * //

dimensions      [0 2 -2 0 0 0 0];


internalField   nonuniform List<scalar> 
4000
(
0.144415
0.233524
0.182519
0.183233
0.034924
-0.0454009
-0.0409335
-0.0178824
0.0924051
0.0101971
-0.243369
-0.406126
-0.302379
-0.0556629
-0.0917781
-0.340089
-0.278805
-0.190938
-0.225823
-0.261789
-0.133683
0.0981707
0.0874597
0.0634223
0.0122649
0.0495283
-0.0160764
-0.014249
0.113875
0.149614
0.214048
0.195537
0.166886
0.126507
0.0449737
0.0118836
0.0648767
0.188016
0.311638
0.234718
0.150014
0.0674268
-0.0568028
-0.0863591
0.00986795
-0.0170892
-0.0354505
-0.107481
-0.200031
-0.285981
-0.265471
-0.214271
-0.198526
-0.237582
-0.208905
-0.0871232
-0.0663612
-0.0491867
0.0061949
0.031744
0.0767256
0.125572
0.131613
0.0965395
0.0431333
0.0780766
0.145852
0.149784
0.182948
0.220497
0.228425
0.153295
0.0586435
0.0646815
0.131456
0.133255
0.0492956
-0.0249516
-0.0701674
-0.0795563
-0.0289256
-0.00450624
-0.0416542
-0.153374
-0.238434
-0.250136
-0.157574
-0.0626163
-0.159819
-0.180405
-0.16174
-0.123911
-0.0490095
-0.0641085
-0.101671
-0.0663501
0.00954639
0.0361493
0.0160913
0.0194009
0.211171
0.167172
0.178495
0.177241
0.0907539
0.00886327
0.00349825
-0.0415412
-0.0286554
-0.0593562
-0.227824
-0.261502
-0.237754
-0.215213
-0.172897
-0.215998
-0.263487
-0.266454
-0.238192
-0.202993
-0.122018
0.0068417
0.0630934
0.0706751
0.00638456
0.00709282
0.00134469
0.019768
0.173124
0.221289
0.178054
0.20601
0.193721
0.145769
0.0467173
0.0500782
0.0552029
0.120636
0.182444
0.157832
0.163821
0.120784
0.063384
-0.00279842
-0.0643102
-0.0598066
-0.0488629
-0.0924396
-0.159144
-0.255718
-0.270514
-0.236014
-0.206477
-0.19119
-0.171368
-0.130908
-0.114502
-0.0738207
-0.0026444
0.0585673
0.0878516
0.109807
0.0368011
0.106418
0.104019
0.123629
0.157557
0.158945
0.156983
0.195584
0.192058
0.123137
0.100738
0.0908035
0.103785
0.0706714
0.0300332
-0.000105186
-0.0445594
-0.0478143
-0.0290736
-0.014611
-0.051836
-0.092748
-0.210788
-0.221498
-0.187218
-0.145391
-0.113016
-0.122959
-0.147023
-0.140131
-0.101076
-0.0771903
-0.0894964
-0.0503215
-0.0249254
0.01494
-0.00824232
-0.00501686
0.211605
0.196064
0.230635
0.179967
0.09089
0.0120038
-0.029011
-0.0407983
0.0344267
-0.0531587
-0.25442
-0.262715
-0.225244
-0.140448
-0.130325
-0.197764
-0.273441
-0.312801
-0.239375
-0.21606
-0.0774091
0.0235193
0.0439732
0.0139957
-0.0326305
0.0676031
0.04308
0.0313091
0.125022
0.176193
0.208571
0.18028
0.222096
0.139648
0.0534701
0.0862045
0.0490546
0.0935474
0.167942
0.181081
0.183857
0.134196
0.0723394
-0.0437669
-0.15485
-0.103678
-0.0761325
-0.0226143
-0.081693
-0.188984
-0.313833
-0.284889
-0.288965
-0.182699
-0.150808
-0.155353
-0.112637
-0.0707304
-0.0318279
0.0610405
0.170427
0.182817
0.15486
0.0982553
0.0858003
0.113642
0.124737
0.148272
0.128686
0.194429
0.237617
0.217049
0.135787
0.0542426
0.0453489
0.0429305
0.0480691
-0.0180535
-0.0102006
-0.0369483
-0.0385729
-0.0413894
-0.0371374
-0.0870071
-0.185524
-0.236583
-0.21124
-0.135106
-0.137942
-0.125771
-0.133334
-0.124386
-0.0951324
-0.0877943
-0.0716501
-0.042135
-0.00611664
0.00780277
-0.0056032
-0.00214795
0.224589
0.187744
0.200282
0.208404
0.0516439
0.096502
0.0513523
0.0787133
-0.0389894
-0.17929
-0.15466
-0.142935
-0.206714
-0.235724
-0.209339
-0.217484
-0.265506
-0.252716
-0.182504
-0.21326
-0.117985
0.014207
0.0822411
-0.00627786
-0.0311947
0.0377368
0.0821699
0.0591049
0.0859365
0.172501
0.157362
0.174264
0.218184
0.182061
0.185742
0.0645224
0.0258453
0.0966875
0.159822
0.187488
0.0947025
0.0902872
0.0658599
-0.0313347
-0.0428677
-0.0610802
-0.103032
-0.177162
-0.203465
-0.18287
-0.182056
-0.188159
-0.221247
-0.250867
-0.148694
-0.12896
-0.105209
-0.117373
-0.0589283
0.0312479
0.120302
0.178057
0.152142
0.158679
0.118115
0.152764
0.13726
0.140208
0.127723
0.17017
0.182531
0.159019
0.111565
0.0914185
0.0793573
0.0641131
0.0313921
0.00931448
-0.0276825
-0.02547
0.0418281
-0.0688543
-0.0605613
-0.078367
-0.153252
-0.196405
-0.22081
-0.162082
-0.148078
-0.103574
-0.11884
-0.111437
-0.138512
-0.0783677
-0.06436
-0.0725111
-0.00930391
-0.00463563
-0.00701493
-0.000916506
0.157523
0.162668
0.204504
0.243644
0.154042
0.104456
0.124634
0.0564296
-0.0319365
-0.200812
-0.202907
-0.137507
-0.157229
-0.193188
-0.224303
-0.157726
-0.164946
-0.230635
-0.22495
-0.150523
-0.0770701
0.00104382
0.107079
0.0493484
-0.0683695
-0.0874244
-0.0748684
0.0701745
0.152653
0.155397
0.154735
0.155737
0.126434
0.198182
0.217304
0.131907
0.108095
0.14245
0.121976
0.11036
0.11657
0.0281662
0.018482
0.00132773
-0.00885249
-0.13003
-0.137198
-0.138859
-0.188785
-0.197091
-0.135845
-0.228985
-0.262582
-0.259817
-0.17722
-0.121153
-0.0852238
-0.101702
-0.0639666
0.0702861
0.141098
0.19438
0.192224
0.175077
0.113985
0.135023
0.121795
0.131277
0.165936
0.164471
0.153052
0.136924
0.158226
0.0986033
0.165683
0.105888
0.043011
-0.00650656
-0.0100065
-0.0259901
-0.0515173
-0.0554489
-0.0441867
-0.0780419
-0.111906
-0.172545
-0.227756
-0.209239
-0.145486
-0.126971
-0.135077
-0.149231
-0.138492
-0.0708671
-0.0997329
-0.0649835
-0.00533579
0.00390452
0.0259981
0.0400137
0.229598
0.177391
0.206477
0.272863
0.0795903
-0.0486182
0.00707627
0.0587266
0.0101004
-0.0265984
-0.092616
-0.111527
-0.17502
-0.158883
-0.215199
-0.265117
-0.225871
-0.181119
-0.159421
-0.160067
-0.121097
-0.0129352
0.111882
0.0602199
-0.0099589
-0.0575346
0.0131789
0.0891541
0.171254
0.150635
0.06185
0.109134
0.240476
0.237388
0.138894
0.0988059
0.0733964
0.157604
0.159892
0.127411
0.0784675
-0.0366609
-0.0523276
-0.0583022
-0.0875003
-0.0641386
-0.0759713
-0.103195
-0.198162
-0.186801
-0.201837
-0.267435
-0.248168
-0.276956
-0.165961
-0.0584524
-0.0237449
-0.0798991
-0.0170369
0.0203691
0.0613057
0.15025
0.135981
0.188845
0.189346
0.180377
0.133637
0.13981
0.146942
0.113208
0.147031
0.181697
0.131199
0.0650485
0.109777
0.0918559
-0.0139463
0.0082373
0.130922
0.0285768
-0.0763446
-0.0709939
-0.0358968
-0.0372644
-0.0968792
-0.176113
-0.188662
-0.187466
-0.21061
-0.155171
-0.119103
-0.121059
-0.14233
-0.0819178
-0.075057
-0.0937315
-0.0259872
0.0571329
0.0631633
-0.0134918
0.212053
0.222255
0.186338
0.129015
0.0985935
0.110323
0.00374584
0.0618368
-0.00408134
0.0202738
-0.0342109
-0.113313
-0.164503
-0.171561
-0.206477
-0.215777
-0.198657
-0.234311
-0.209095
-0.0931324
0.092146
0.0269866
0.0118612
-0.0276974
-0.114165
-0.162476
0.0225015
0.141493
0.108038
0.188491
0.109271
0.0848166
0.211607
0.223096
0.173408
0.132771
0.103899
0.116714
0.0326785
0.0546756
0.160077
0.0422486
0.0451232
-0.0346749
-0.0823684
-0.130006
-0.169853
-0.238421
-0.235036
-0.164541
-0.0874083
-0.165768
-0.275795
-0.298219
-0.148588
-0.008147
-0.0436463
-0.0826706
-0.0393568
-0.0388933
0.0828528
0.254137
0.175655
0.136385
0.151694
0.151792
0.185684
0.231154
0.258534
0.197428
0.0674537
0.0830422
0.146895
0.102643
0.157132
0.153674
0.038508
-0.0524231
0.0040392
0.029636
-0.0238181
-0.0580101
-0.0695638
-0.0886622
-0.152623
-0.118808
-0.145509
-0.172671
-0.201346
-0.179808
-0.156872
-0.135029
-0.121435
-0.0780839
-0.0890779
-0.0218455
-0.0295384
0.0315058
0.0300114
0.00718048
0.228672
0.224888
0.244771
0.20762
0.110867
0.0880931
-0.0451972
-0.00639603
0.00378423
-0.0419959
-0.051149
-0.0626635
-0.1286
-0.167169
-0.236562
-0.238562
-0.22644
-0.219229
-0.134009
0.0242915
0.0324447
-0.072942
-0.156332
-0.0320359
0.035652
0.015425
0.0419388
0.0433033
0.101966
0.163309
0.141185
0.142907
0.148236
0.140224
0.132459
0.105409
0.0621611
0.174427
0.203831
0.269579
0.103404
-0.132461
-0.145989
-0.121082
-0.0764172
-0.164062
-0.194933
-0.1199
-0.118499
-0.201745
-0.289886
-0.276834
-0.191955
-0.15415
-0.108945
-0.0532501
0.0250306
-0.0478064
-0.013187
0.030408
0.106341
0.116608
0.146339
0.110244
0.148676
0.144491
0.192087
0.243339
0.212511
0.131853
0.106429
0.140198
0.150156
0.119534
0.174956
0.12718
0.0144087
-0.0155214
-0.00621957
0.0556492
-0.0391567
-0.0586603
-0.0667872
-0.0564464
0.00940883
-0.0510995
-0.144705
-0.20286
-0.225501
-0.220193
-0.158018
-0.101145
-0.152693
-0.0967577
-0.0377872
0.0230702
-0.0235037
0.00129679
-0.0134416
0.0310727
0.212783
0.178448
0.197583
0.233385
0.160408
0.10038
0.0502352
-0.0262135
0.0240844
-0.0397344
0.0231708
-0.00354788
-0.120538
-0.179213
-0.214912
-0.178895
-0.224246
-0.244076
-0.117632
0.0257453
0.0128083
-0.0254249
-0.184998
-0.0887274
0.0188303
0.0215192
0.0482296
0.0914216
0.121601
0.00183583
0.0252989
0.106174
0.127281
0.112213
0.169315
0.174385
0.163575
0.28952
0.157827
-0.0310116
-0.135658
-0.0789453
0.0369921
-0.00848618
-0.0561765
-0.0993646
-0.1781
-0.128745
-0.141172
-0.19512
-0.227774
-0.257209
-0.175772
-0.146142
-0.130538
-0.119519
-0.0750965
-0.0295415
-0.00157348
0.0902715
0.165735
0.142002
0.165356
0.101165
0.108501
0.160114
0.221238
0.281533
0.256722
0.175532
0.146193
0.104951
0.111638
0.116801
0.130425
0.101424
0.0439724
-0.0372801
-0.013004
0.0385984
-0.0173108
-0.0900246
-0.0959573
-0.0551218
-0.0244037
-0.0680185
-0.182004
-0.200625
-0.168593
-0.182117
-0.169696
-0.105934
-0.0968575
-0.0629829
-0.0556129
-0.000900364
-0.000747723
-0.0028579
-0.00447702
0.0574376
0.182772
0.221505
0.296069
0.202909
0.148151
0.144884
0.109934
0.0201664
-0.114506
-0.0627276
0.0299361
-0.0104882
-0.100262
-0.223526
-0.308809
-0.212008
-0.14868
-0.181587
-0.119871
0.0833507
0.0463678
0.032411
-0.0397525
-0.0630326
-0.0330775
-0.085047
-0.027445
0.0739135
0.0776948
-0.0215186
0.00431897
-0.00110792
0.125064
0.276826
0.289929
0.163335
0.0857161
0.148086
0.162797
0.0634019
-0.0935225
-0.0763967
-0.066638
-0.035572
-0.0211236
-0.137303
-0.180988
-0.11106
-0.0997673
-0.171232
-0.193356
-0.210636
-0.25064
-0.195958
-0.0699966
-0.0723196
-0.0508654
-0.0139024
0.0570226
0.0301418
0.0619166
0.12274
0.211415
0.101963
0.106641
0.192756
0.317878
0.306541
0.270851
0.174605
0.126418
0.123912
0.125084
0.119858
0.0761022
0.0570604
0.0334736
-0.0183133
0.0154796
0.00769978
-0.0506393
-0.08967
-0.0848674
-0.0203421
0.024207
-0.119281
-0.158665
-0.169723
-0.17199
-0.178927
-0.114598
-0.0813809
-0.0830948
-0.0512986
0.0026441
0.0343477
0.0214996
-0.0269769
-0.00710492
0.0550898
0.231559
0.253804
0.246949
0.181806
0.134463
0.107952
0.0202411
0.0126978
-0.0391408
-0.109845
0.0552432
0.0630534
-0.0154905
-0.0690426
-0.0802007
-0.242402
-0.270216
-0.18847
-0.145872
-0.117171
-0.111836
0.0664166
0.0738524
-0.0327303
-0.0507253
0.0311867
0.0409321
0.0255361
-0.0131636
0.0117872
0.0359863
0.0996228
0.0759456
0.108891
0.187272
0.206124
0.233953
0.169606
0.116766
0.00254064
-0.0573587
-0.0697652
-0.0253733
-0.0355833
-0.0995535
-0.140772
-0.128986
-0.126499
-0.0880874
-0.177977
-0.269222
-0.218325
-0.150637
-0.145476
-0.0430846
-0.0391798
-0.129743
-0.0859954
0.0684101
0.115092
0.0836718
0.124425
0.165303
0.148452
0.165602
0.306566
0.347633
0.312834
0.22085
0.125053
0.121058
0.124465
0.0994375
0.0850862
0.107763
0.109235
-0.00418892
-0.076239
-0.0244888
-0.067564
-0.0889473
-0.109633
-0.00600356
-0.0298745
0.0163963
-0.0494442
-0.167229
-0.199046
-0.196315
-0.153805
-0.114238
-0.119135
-0.0664742
-0.0308377
-0.0286809
0.00405687
0.0459964
0.0508386
0.0309157
0.022226
0.237928
0.251522
0.222851
0.169329
0.123679
0.127691
0.0602754
-0.000977328
0.0980036
0.026009
-0.0524097
0.0109848
-0.0252141
-0.118486
-0.14266
-0.137395
-0.16308
-0.185134
-0.1404
-0.0662989
-0.103169
-0.109335
-0.0647529
0.00527305
-0.0160846
-0.0731848
0.0188549
0.0643085
0.0681588
0.00476886
-0.0397373
0.0270494
0.142124
0.174309
0.166858
0.19394
0.166873
0.0668278
0.0612147
0.0124107
0.00419764
0.0041339
-0.078397
0.00934077
-0.106228
-0.114134
-0.15835
-0.186365
-0.139113
-0.139274
-0.173177
-0.228897
-0.189435
-0.130295
-0.0937134
-0.101961
-0.0526887
-0.00631272
0.0985328
0.0653789
0.0816078
0.0975243
0.161521
0.190844
0.20454
0.272641
0.27625
0.293113
0.260686
0.199439
0.150824
0.0734398
0.0164052
0.0869288
0.0887265
0.0935206
0.131501
0.0357229
-0.128222
-0.154007
-0.163296
-0.139102
-0.0778291
-0.0591476
-0.091719
-0.0923377
-0.0635425
-0.15638
-0.156143
-0.139691
-0.10868
-0.00213463
-0.0661283
-0.0352375
-0.0330865
-0.0247111
0.0432176
0.0795529
0.0308104
-0.012895
0.274902
0.245969
0.248555
0.188909
0.155978
0.137764
-0.0467187
-0.119904
-0.0416197
0.122759
0.220013
0.0754823
-0.0649513
-0.111111
-0.203638
-0.155857
-0.140906
-0.207387
-0.206068
-0.168066
0.038778
0.0408999
0.0794091
-0.0337181
-0.0764508
0.0110208
0.00773623
-0.0488518
-0.0301517
-0.0628302
-0.0743599
0.0921325
0.152973
0.131898
0.168535
0.213615
0.169999
0.104997
0.0616089
0.0533146
0.0523021
0.0148052
-0.0744582
-0.146137
-0.173955
-0.0499816
-0.122485
-0.184951
-0.176422
-0.189111
-0.171764
-0.19067
-0.0780288
-0.0660032
-0.095961
-0.186733
-0.0786415
0.0240385
0.0386634
0.0523955
0.0544363
0.11297
0.251379
0.265432
0.243397
0.186777
0.276602
0.279494
0.247881
0.225397
0.144191
0.0306358
-0.0647911
-0.00221305
0.0887835
0.097945
-0.0279161
-0.00349698
-0.0359456
-0.0943854
-0.104741
-0.0975821
-0.104661
-0.103171
-0.114729
-0.0897888
-0.0869373
-0.139947
-0.163531
-0.220788
-0.146753
0.050411
0.0371001
-0.0385869
-0.0918647
-0.0158561
0.0394197
0.0831924
0.0425412
-0.0341356
0.276943
0.214497
0.194714
0.184364
0.135234
0.114326
0.0437806
0.0314688
0.0724705
0.15524
0.0254473
-0.0224891
-0.151685
-0.115771
-0.0715389
-0.065384
0.0254931
0.0205573
-0.154051
-0.218722
-0.450889
-0.382931
-0.105929
0.0395304
0.0625712
0.159205
0.113782
0.104063
-0.0132452
-0.140371
-0.122951
0.0787816
0.130041
0.129706
0.175989
0.124288
0.0622229
0.137118
0.196649
0.124392
-0.0673003
-0.0839845
-0.0861579
-0.0405402
-0.0520606
-0.0644879
-0.106346
-0.145197
-0.233002
-0.273302
-0.233818
-0.205433
-0.140118
-0.0505897
-0.126455
-0.162017
-0.0626943
0.0391563
0.0696508
0.0411488
0.0926081
0.143937
0.238396
0.244579
0.27027
0.208714
0.204288
0.247809
0.199073
0.157376
0.13365
0.0652978
0.0187318
0.0247144
0.056667
0.048024
0.0242424
-0.0232269
-0.065352
-0.116879
-0.120998
-0.130116
-0.109226
-0.0969715
-0.145927
-0.128233
-0.0809376
-0.101219
-0.189041
-0.15061
-0.0773138
-0.0234824
-0.0458781
-0.00456819
-0.0239445
-0.0107631
0.0196197
0.0584606
0.00927306
-0.0336516
0.273975
0.277068
0.213405
0.0934522
0.118757
0.0879935
0.135716
0.133701
0.14719
0.0292812
-0.0579809
-0.0686109
-0.113205
-0.043683
0.0284473
-0.135779
-0.200538
-0.179001
-0.15713
-0.178758
-0.0778745
-0.047559
-0.013549
0.0764239
-0.0203059
-0.00106657
-0.0789078
-0.0614327
-0.0371009
-0.0311228
-0.0569923
-0.00535177
0.0640621
0.177944
0.367872
0.199229
0.0492801
0.0890613
0.0661844
0.0527428
0.068899
-0.0659941
-0.130864
-0.0770845
-0.0359685
-0.110033
-0.17727
-0.20619
-0.208097
-0.22805
-0.165839
-0.115448
-0.07852
-0.0882195
-0.0608986
-0.0979319
-0.161244
-0.0782651
0.0352665
0.152305
0.0541645
0.100639
0.225076
0.244016
0.260191
0.295401
0.234388
0.189808
0.164316
0.0837009
0.0962801
0.00725425
-0.027076
0.0027887
0.0425113
0.128464
0.0677596
-0.0499135
-0.0771268
-0.157083
-0.21451
-0.15888
-0.118555
-0.0895086
-0.0580193
-0.0722736
-0.130039
-0.140767
-0.189111
-0.129115
-0.073285
-0.0652994
-0.0675588
0.00986699
-0.0220598
0.00989835
0.0395482
0.0590206
0.0333261
-0.0347866
0.24738
0.149204
0.122072
0.239585
0.162932
0.0987708
0.0214016
0.0849711
0.163997
0.155194
0.0887755
-0.0102739
-0.0661322
-0.145523
-0.134024
-0.157635
-0.1471
-0.103602
-0.0663624
-0.19405
-0.251573
-0.196181
-0.0284647
0.0500253
0.0231431
0.0100327
-0.0274165
-0.0112815
-0.028302
-0.117621
-0.0771192
0.0391427
0.14027
0.188306
0.245998
0.183968
0.103913
-0.00550275
0.0380689
0.0338135
0.0116744
-0.0174361
-0.0999979
-0.0604093
-0.034284
-0.0658982
-0.212909
-0.204687
-0.129162
-0.160677
-0.202849
-0.217945
-0.148814
-0.0885371
-0.106379
-0.134069
-0.114849
-0.0384952
-0.00948838
0.038073
0.0915553
0.146985
0.236483
0.259228
0.279926
0.23295
0.245306
0.294266
0.179551
0.0668371
0.0628728
-0.0291489
-0.0919499
-0.0354248
0.0941147
0.0648739
0.0047258
-0.0753913
-0.0546914
-0.0800684
-0.189624
-0.233593
-0.169369
-0.0589838
-0.0610265
-0.0942243
-0.133577
-0.160526
-0.120124
-0.134109
-0.0960446
-0.0378688
-0.0334548
-0.00882928
-0.0459685
0.00233877
-0.000437765
0.060663
0.0299473
0.0224391
0.230554
0.232131
0.172962
0.228563
0.212462
0.124031
0.16992
-0.0156761
-0.0192244
0.0510543
0.0131646
-0.00220335
-0.0300195
-0.110642
-0.172958
-0.0687424
-0.0394592
-0.253737
-0.252937
-0.155604
-0.0459364
0.0575988
-0.0522548
-0.0919152
-0.0131711
-0.0794717
-0.0755184
-0.0189212
-0.00425251
-0.0439816
-0.0720394
-0.00401331
0.178241
0.314617
0.274844
0.164981
0.00567346
-0.127121
-0.0843713
0.0286827
0.0984464
0.0997957
0.0225875
-0.0470836
-0.126864
-0.150899
-0.178531
-0.162898
-0.147044
-0.182713
-0.197584
-0.189893
-0.135536
-0.103296
-0.103323
-0.119708
-0.0669465
-0.0861119
-0.00606262
0.135645
0.143429
0.0956381
0.13618
0.224076
0.132194
0.154994
0.245334
0.292916
0.242492
0.126939
-0.00986656
-0.0296304
-0.0743499
-0.0776701
0.0238677
0.0963602
0.089267
0.00449613
-0.0387065
-0.217627
-0.277275
-0.194571
-0.164946
-0.0375014
-0.0448664
-0.098602
-0.152455
-0.136571
-0.127608
-0.147776
-0.0997963
0.0116993
-0.000960553
-0.0972214
-0.000248569
0.0260539
0.0319739
0.0494791
-0.0351709
-0.0100038
0.197959
0.230413
0.20429
0.103523
0.052272
0.0594832
0.168857
0.145044
0.122388
0.0339573
-0.0759533
-0.0584301
-0.0717667
-0.0953423
-0.0111691
0.000301576
-0.14125
-0.201231
-0.226357
-0.138756
-0.121011
-0.0135445
-0.0203207
-0.0278588
-0.0313854
-0.0548651
-0.0388958
-0.0338304
0.0106738
-0.0114082
-0.0379714
-0.0254646
-0.00859069
0.223536
0.343157
0.146073
0.0472296
-0.0514942
-0.0512856
-0.0832122
-0.0173255
0.0800766
0.121757
-0.0307148
-0.115144
-0.242372
-0.193357
-0.0722163
-0.137519
-0.179495
-0.174542
-0.228856
-0.185142
-0.0732575
-0.0748087
-0.120315
-0.0717878
-0.146117
0.0101501
0.15312
0.106255
-0.00192711
0.0687954
0.208849
0.207694
0.229845
0.226668
0.177284
0.24098
0.233932
0.0986902
-0.0606953
-0.115663
-0.0826663
0.0163969
-0.00433132
-0.0208317
-0.0971507
-0.0992035
-0.113888
-0.186214
-0.176943
-0.221831
-0.199861
-0.0530386
0.0583752
-0.0564448
-0.147415
-0.150285
-0.103607
-0.0142077
0.0203233
-0.0237599
-0.100548
-0.0421935
0.0325005
0.0313419
0.0281073
-0.0301164
-0.00502271
0.269393
0.159441
0.158025
0.232781
0.154045
0.120029
0.10737
0.038931
-0.0367406
-0.030437
0.00750327
-0.0145994
-0.0706771
-0.0935688
-0.0280514
0.0082562
-0.181627
-0.250471
-0.194276
-0.092551
0.0502038
0.0400977
-0.109053
-0.172699
-0.0124977
0.00398766
-0.0496532
-0.0576225
-0.0563427
-0.0310055
-0.0217679
0.0208935
0.125
0.228939
0.334906
0.0958576
-0.116287
-0.0678001
0.00987475
0.0626312
-0.00173259
0.00172143
0.0545513
-0.0381151
-0.0648929
-0.118538
-0.19379
-0.195109
-0.169333
-0.0999625
-0.190365
-0.208085
-0.14119
-0.140279
-0.131889
-0.186145
-0.0670799
0.0388211
0.108744
0.0478461
-0.0458803
-0.0458999
0.0657203
0.265277
0.254442
0.188254
0.201772
0.202518
0.201434
0.170035
0.0797072
-0.103498
-0.124976
-0.082932
0.0163498
0.0395639
-0.0660875
-0.0751777
-0.0329097
0.00220902
-0.281778
-0.352828
-0.148865
0.00137488
-0.014529
-0.123196
-0.160831
-0.129867
-0.0872952
-0.0926586
-0.0766592
-0.0171641
0.0196164
0.00895564
-0.0147462
0.0126712
0.0264839
0.00507749
-0.0113575
-0.00142159
0.265537
0.207167
0.0815375
0.15997
0.161915
0.0971667
0.0538138
-0.0148473
-0.0205043
0.0584619
0.042588
-0.0528745
-0.100217
-0.125934
-0.0333458
-0.0467149
-0.107278
-0.0544563
-0.137241
-0.118471
-0.0791264
-0.0238008
-0.0164231
-0.0579013
-0.0657858
-0.0718818
-0.135038
-0.0591914
-0.0340856
-0.00719004
0.0549491
0.0428836
-0.0121055
0.158203
0.192891
0.166011
0.00593393
-0.0844325
0.0245488
0.153824
0.0846182
-0.026317
-0.0886958
-0.07352
-0.103149
-0.0817531
-0.144844
-0.184986
-0.19924
-0.218511
-0.240624
-0.225344
-0.147379
-0.129482
-0.0684149
-0.0630106
-0.101463
-0.0729599
0.0432386
0.0841109
-0.00788731
-0.00599038
-0.00345423
0.121914
0.210142
0.205843
0.182871
0.177998
0.176284
0.160883
0.0955786
-0.0467409
-0.0274298
-0.0437295
-0.0647104
-0.0521846
-0.064612
-0.117794
-0.114779
-0.0956356
-0.182823
-0.235453
-0.178389
-0.143227
-0.106303
0.0219517
-0.00455377
-0.0447889
-0.0881562
-0.0718124
-0.0502823
0.00671628
0.0309297
0.00825329
-0.00888784
-0.0403913
0.0159457
0.0710723
-0.0384496
-0.0438688
0.241487
0.233766
0.208047
0.164723
0.15057
0.0694658
0.0334285
-0.000324687
-0.0149094
0.0163136
-0.0258811
-0.0838956
-0.160451
-0.075683
-0.0347354
0.0174758
-0.147051
-0.184805
-0.116888
-0.0585878
-0.0354053
-0.0121666
0.0202376
-0.0183003
-0.00557221
-0.158156
-0.131241
-0.0423078
-0.0376107
-0.00795368
0.0185037
0.0251921
0.019103
0.0799883
0.218391
0.188554
0.134401
0.0018135
-0.0335415
-0.0528022
0.0326255
0.00629348
-0.0249945
-0.0475404
-0.0935016
-0.0959923
-0.122654
-0.202494
-0.255777
-0.217349
-0.224694
-0.148239
-0.118143
-0.10088
-0.0925676
-0.144249
-0.0844844
-0.121775
-0.0904098
0.00887731
0.00515534
-0.00778261
0.106051
0.191552
0.212139
0.11163
0.128524
0.215199
0.161586
0.0922184
0.00579595
0.0196308
-0.0503026
-0.008352
-0.0417498
-0.0102341
-0.063336
-0.159467
-0.173463
-0.182768
-0.147766
-0.0998223
-0.118717
-0.121331
-0.126594
-0.0155353
0.0486568
-0.0851042
-0.0394136
-0.079311
-0.0703552
0.0209315
0.0297678
0.0307347
0.0100278
0.0516964
0.0129965
-0.00981965
0.0471942
0.0098973
0.230246
0.266303
0.183069
0.11224
0.101604
0.0848569
0.0470165
0.0040943
-0.0601386
-0.07216
-0.060546
-0.00516269
-0.129366
-0.0359571
-0.0764217
-0.0688154
-0.0752889
-0.0505263
-0.0572168
-0.0685204
-0.110234
-0.132412
0.00525458
0.0232231
0.00202433
-0.0570979
-0.0795448
-0.134383
-0.0222803
-0.0263801
-0.117958
-0.0719352
0.040543
0.101901
0.321736
0.151416
0.0560463
-0.0232339
-0.0381657
-0.00263698
0.082797
0.0512158
0.01109
-0.014073
-0.111393
-0.119478
-0.136529
-0.17285
-0.167911
-0.221603
-0.365833
-0.244912
-0.124714
-0.103572
-0.0808498
-0.0591656
-0.00755665
0.00657755
0.00227458
-0.0744408
-0.200259
-0.0696045
0.00629695
0.15447
0.184118
0.139249
0.105038
0.109141
0.106878
0.168257
0.132285
0.0103002
-0.094019
-0.0722489
-0.0455868
-0.00639338
-0.16233
-0.156166
-0.130752
-0.145608
-0.132448
-0.119822
-0.119716
-0.126399
-0.0895193
0.0073309
0.0380924
-0.0347072
-0.0491012
0.00459346
0.0390837
0.0273283
0.00999718
0.0225541
-0.00663977
-0.00193109
0.0377154
0.0669293
0.0975876
0.0265176
0.251369
0.230101
0.196629
0.111884
0.115788
0.0807479
0.0732694
-0.0118573
-0.0981935
-0.0599389
-0.112985
-0.147429
-0.115082
-0.0342556
-0.0426767
-0.0648753
-0.0689174
-0.1185
-0.129123
-0.0437865
0.0108551
0.087707
0.0488961
-0.0460855
-0.13083
-0.0991071
0.0167711
0.0206294
-0.0238946
-0.150146
-0.143377
0.0502085
0.0923029
0.0411173
0.0877084
0.131766
0.0573549
0.00994863
0.0235154
0.0991153
0.0232778
0.0391661
0.0369546
-0.0404935
-0.128144
-0.0876917
-0.189759
-0.195158
-0.176117
-0.199173
-0.20345
-0.207258
-0.200271
-0.173565
-0.0711125
0.0555997
0.0752637
-0.00373053
-0.158282
-0.12072
-0.0229719
-0.0263842
-0.0475236
0.0510169
0.165369
0.165962
0.163058
0.119367
0.0317705
0.0854119
0.137283
-0.0225308
-0.115521
-0.0897488
-0.058321
-0.0382717
-0.0845922
-0.129411
-0.176314
-0.231112
-0.168449
-0.0764808
-0.00214238
0.0128874
-0.0466002
-0.0163806
0.0117267
0.0101864
0.0122679
0.0240725
-0.0105571
-0.00174197
-0.0368855
-0.0263877
0.0823351
0.0990716
0.0124443
-0.0168863
0.0741413
0.058301
0.235415
0.273456
0.182111
0.20097
0.0775425
-0.0487363
-0.107139
-0.131201
-0.0579797
-0.0232078
-0.0518127
-0.0993078
-0.0959647
0.00156608
0.00857366
-0.0152958
-0.109148
-0.167267
-0.118069
0.00960075
-0.0430715
0.0162256
0.0063774
0.0276834
-0.0330821
0.0211141
0.0980908
-0.0620333
-0.175642
-0.0805055
-0.0151386
-0.114489
-0.0632282
0.0407729
0.113125
0.0928898
0.0275756
0.0530755
0.099253
0.0604781
0.0530771
0.0277061
-0.0242911
-0.0646041
-0.0904875
-0.0289592
-0.0715853
-0.232593
-0.224498
-0.19404
-0.158774
-0.159545
-0.133203
-0.0314915
0.00562837
-0.0595414
-0.0297731
-0.0341083
-0.142864
-0.0269341
-0.155409
-0.129223
-0.0628589
0.0222529
0.157148
0.171529
0.132502
0.114603
-0.0236444
-0.0490696
0.0877391
0.0267618
-0.0387413
-0.0595473
-0.0304888
-0.00563048
-0.131204
-0.196508
-0.203692
-0.197317
-0.144484
-0.036691
0.000146786
-0.0817337
-0.0643582
0.0192714
-0.0224223
0.0464134
0.121126
0.114735
0.0497617
0.0137541
0.00758366
-0.0689819
-0.00545757
0.0656797
0.100315
0.0239111
0.0476767
0.0323456
0.263347
0.284842
0.0896677
0.0567041
0.113828
0.04736
-0.0437221
-0.0405184
-0.0977142
-0.212779
-0.139965
-0.0701309
0.0232498
-0.0395208
-0.0338067
-0.0718175
-0.118926
-0.193504
-0.129377
-0.00184819
0.0806326
0.0591132
0.032934
0.0152128
-0.0223746
-0.118358
-0.0922525
0.0389266
0.0546903
-0.0411397
-0.148839
-0.0505391
-0.040745
-0.0198153
-0.0103103
0.0735209
0.120046
0.056637
0.0791678
0.0462139
0.0926746
0.0868239
0.0492553
-0.0697671
-0.0931667
-0.00204538
-0.0795382
-0.204697
-0.304208
-0.15595
-0.0778355
-0.168817
-0.104613
-0.115748
-0.187093
-0.0361411
-0.0728057
-0.0665811
-0.0796781
-0.0301544
-0.0754867
-0.0527054
0.00742011
-0.0249771
0.0807366
0.106222
0.16195
0.178609
0.0363883
0.0126302
0.0663362
-0.0186609
-0.0650171
-0.0694346
-0.0423201
-0.0515979
-0.137394
-0.197361
-0.256468
-0.198714
-0.143155
-0.0769673
-0.0309147
0.00809978
0.00896873
0.079758
0.0382266
0.0544816
0.0608284
0.0318375
-0.0267171
0.0308499
0.11469
0.0628182
0.0485856
0.066189
0.0651154
0.0731007
0.103561
0.0333439
0.278987
0.144208
0.126866
0.10369
0.0172221
-0.0344081
-0.020809
-0.0498119
-0.112377
-0.198691
-0.0665172
-0.053706
-0.0873774
-0.0424224
0.00574342
-0.10216
-0.133251
-0.119681
-0.0314928
-0.0575593
-0.0127264
0.0764743
0.120671
0.0136687
0.00567616
-0.00866903
-0.0652059
0.000661217
-0.0679161
-0.0561014
-0.147744
-0.0794298
0.0187382
0.0830665
0.0879793
-0.0203474
-0.0460112
-0.0221078
0.139686
0.0888705
0.0519025
0.0481087
-0.0114832
-0.0758707
-0.0426978
-0.0651784
-0.125366
-0.128376
-0.155769
-0.128562
-0.121956
-0.0616374
-0.129073
-0.0697357
-0.100041
-0.126975
-0.0941208
-0.100177
-0.0568223
-0.00343646
-0.0178104
-0.0622258
-0.0776166
-0.108376
-0.041642
0.0561129
0.151183
0.137103
0.0607362
0.0521161
-0.000660247
-0.0194651
-0.0328663
-0.0161812
-0.102917
-0.0510308
-0.0273063
-0.137931
-0.33613
-0.303184
-0.164063
-0.0740168
0.00524049
0.0875355
0.0305982
-0.0175955
-0.0384207
0.0679243
0.114778
0.158237
0.134306
-0.0098526
-0.0060125
-0.0107676
0.116797
0.107748
0.0904039
0.0828375
0.119254
0.0612139
0.268095
0.16659
0.128169
0.134852
0.0852875
-0.0956859
-0.197418
-0.15376
-0.154963
-0.06075
0.00370679
-0.0690477
-0.0301702
0.00737066
-0.0704537
-0.149434
-0.0827146
0.00816728
-0.0395574
-0.155122
-0.0410756
0.0432298
0.0409854
-0.00249123
0.0488251
0.0901764
-0.0864322
-0.0754188
-0.0310688
-0.0611292
-0.0562466
-0.0803166
-0.137541
-0.121343
0.00609556
0.101791
0.145156
0.18838
0.122727
0.0340541
0.0660318
0.0564064
-0.0385361
-0.0740449
-0.108026
-0.0883474
-0.0485189
-0.0971572
-0.15268
-0.118559
-0.0633524
-0.0467408
-0.0831504
-0.110156
-0.13453
-0.150862
-0.13745
-0.131567
-0.0896772
-0.0403504
0.000336758
0.00757677
-0.00354888
-0.0756116
0.014122
-0.00860656
-0.0346843
0.0895402
0.0692122
0.140116
0.102435
0.00345228
-0.0807914
-0.129743
-0.145782
-0.0230278
-0.0129141
-0.142338
-0.238807
-0.274352
-0.164884
-0.0718964
0.0207207
0.0868063
0.0595901
0.0171038
0.0427847
0.118879
0.0929213
0.124615
0.129988
0.0700446
-0.040168
0.00685683
0.142774
0.13101
0.134609
0.0876531
0.130019
0.085198
0.193384
0.213247
0.126222
0.0923902
-0.0106105
-0.0583945
-0.0300856
-0.121094
-0.117665
-0.0708353
-0.0330612
-0.163581
-0.152657
0.0285221
0.0353359
-0.0602825
-0.0832942
-0.160146
-0.116839
-0.0106614
0.0217475
0.0699802
0.100482
0.0612928
0.00724734
-0.0193148
-0.00817216
-0.00292663
-0.020275
-0.109532
-0.127768
-0.0696225
-0.000767335
-0.00230554
-0.00448129
0.114766
0.117313
0.0868518
0.0185427
0.00576204
0.0266964
0.0280527
-0.0175651
-0.0494099
-0.0832807
-0.0663812
-0.00977674
-0.107687
-0.155537
0.0084793
0.0695569
-0.00276789
-0.204376
-0.276453
-0.109091
-0.0711557
-0.0520886
-0.0660681
-0.0446441
-0.0232798
-0.059514
-0.051672
-0.00525211
-0.0202759
0.0119995
-0.0778447
-0.0215178
0.075066
0.147003
0.0375947
-0.018754
-0.0125698
-0.0502352
-0.121968
-0.0749989
0.0321805
-0.0102422
-0.139893
-0.237377
-0.279023
-0.198883
-0.0797965
0.025335
0.124487
-0.00695345
-0.0214971
0.0582812
0.0571818
0.123728
0.174327
0.12532
0.0861391
0.145495
0.112494
0.119601
0.0864859
0.140774
0.146783
0.129624
0.0272358
0.182331
0.148251
0.0481183
0.0718792
0.0316682
0.0742975
0.0939724
-0.0638809
-0.197706
-0.259218
-0.139025
-0.132192
-0.00386397
0.0374835
-0.00359014
-0.0946623
-0.13772
-0.116102
-0.0197355
0.00665687
-0.0350031
0.00931833
0.117687
0.0746939
0.0424363
0.0493547
-0.0142358
-0.00459444
-0.0821635
-0.205643
-0.147685
-0.139874
-0.0699432
0.0716336
0.129587
0.129037
0.176929
0.113987
0.0412876
0.0103269
0.00274543
-0.0163127
-0.0620231
-0.0306182
-0.0179275
-0.0435868
-0.0210749
-0.0422579
-0.100552
-0.0428555
0.0306031
-0.00908765
-0.0500466
-0.138104
-0.153346
-0.125642
-0.100157
-0.0415189
-0.0160029
-0.0164676
-0.0869915
-0.0634134
-0.110706
-0.0641191
-0.0226454
0.0701119
0.121607
0.0262934
0.0373751
0.0776355
0.0658829
-0.0482921
-0.157558
-0.142885
-0.00398393
0.0809026
-0.0767223
-0.204299
-0.216406
-0.173835
-0.137564
-0.109534
0.0191193
0.0520308
0.00776448
0.0643157
0.0969008
0.0354215
0.0761647
0.156844
0.197267
0.18608
0.160292
0.0899989