/*--------------------------------*- C++ -*----------------------------------*\
| =========                 |                                                 |
| \\      /  F ield         | OpenFOAM: The Open Source CFD Toolbox           |
|  \\    /   O peration     | Version:  v2012                                 |
|   \\  /    A nd           | Website:  www.openfoam.com                      |
|    \\/     M anipulation  |                                                 |
\*---------------------------------------------------------------------------*/
FoamFile
{
    version     2.0;
    format      ascii;
    class       volVectorField;
    location    "0";
    object      U;
}
// * * * * * * * * * * * * * * * * * * * * * * * * * * * * * * * * * * * * * //

dimensions      [0 1 -1 0 0 0 0];


internalField   nonuniform List<vector> 
4000
(
(-0.000707663 -0.010038 0)
(0.00738849 -0.0796059 0)
(0.00254098 -0.0363105 0)
(0.126398 0.0680906 0)
(0.0475406 0.0713654 0)
(-0.0558214 0.00293647 0)
(-0.00324772 -0.0665526 0)
(0.0262202 -0.0393068 0)
(0.0233338 0.0478398 0)
(0.0613547 -0.0388854 0)
(-0.0424937 -0.0300612 0)
(0.111969 0.101398 0)
(-0.0686192 0.134888 0)
(0.0339413 -0.0422712 0)
(0.0575931 -0.171489 0)
(-0.0264594 -0.00799339 0)
(0.128523 0.0773731 0)
(-0.0160389 -0.0390358 0)
(-0.00206696 0.126535 0)
(-0.0866099 -0.00991583 0)
(-0.101146 0.0122531 0)
(0.0848075 0.104257 0)
(-0.104361 -0.0804844 0)
(-0.0201735 -0.0116162 0)
(0.0218786 -0.058952 0)
(-0.0347416 0.0632634 0)
(-0.0362353 0.15583 0)
(0.0337096 -0.0460369 0)
(0.0229043 -0.227594 0)
(0.14014 -0.128979 0)
(0.0329322 0.0399344 0)
(-0.0402967 0.0951621 0)
(0.0507191 0.0644631 0)
(-0.0908396 0.044409 0)
(0.0244325 -0.0385167 0)
(0.0328806 -0.113673 0)
(0.0747926 -0.0188839 0)
(0.0906647 -0.0562278 0)
(0.112786 0.0666458 0)
(0.0235115 0.103833 0)
(-0.137244 0.00847321 0)
(0.0319728 0.0409866 0)
(-0.0266947 0.0347564 0)
(0.0527625 -0.10419 0)
(0.170108 -0.00904949 0)
(0.154736 0.0157898 0)
(0.0434516 0.0655533 0)
(0.0101132 0.052645 0)
(-0.117368 -0.0658413 0)
(0.0143591 -0.0542626 0)
(0.155264 0.00437225 0)
(0.0106671 -0.0189848 0)
(0.121193 0.0215781 0)
(0.004754 0.113234 0)
(-0.075768 0.00287388 0)
(0.0103046 -0.125844 0)
(0.0381003 0.0286563 0)
(-0.0512109 0.0920195 0)
(-0.0614124 0.0349839 0)
(-0.150541 -0.0791519 0)
(-0.0432839 -0.0415258 0)
(0.00207982 -0.0132891 0)
(0.0743048 -0.128397 0)
(-0.0246903 0.100861 0)
(0.0190096 0.0647855 0)
(-0.0229885 -0.0454228 0)
(0.0291498 0.057491 0)
(-0.0103124 -0.0296762 0)
(0.0458197 -0.0185963 0)
(0.127138 0.0535006 0)
(0.0481448 -0.00160155 0)
(-0.0189461 0.085199 0)
(-0.0861758 0.0280437 0)
(-0.146812 -0.12277 0)
(0.0975654 -0.0693598 0)
(0.0606859 -0.0880695 0)
(0.279062 0.115057 0)
(-0.019826 0.0481608 0)
(0.0121858 -0.101625 0)
(0.0984529 0.00166813 0)
(-0.00763349 -0.0544 0)
(-0.0348508 0.0869352 0)
(-0.0802928 0.0557235 0)
(-0.101985 0.00040497 0)
(0.0300388 -0.0238134 0)
(-0.0839801 0.0330539 0)
(-0.00750905 -0.0496447 0)
(-0.090714 -0.113343 0)
(0.116197 0.0902482 0)
(0.0793343 -0.0562173 0)
(-0.000737272 0.0520298 0)
(0.0366147 0.101094 0)
(-0.00638222 0.00742562 0)
(-0.0395224 -0.0312523 0)
(0.00532589 0.0642806 0)
(-0.0425346 -0.029807 0)
(0.0583656 -0.104683 0)
(0.0420031 0.0223148 0)
(-0.0156639 0.0411879 0)
(-0.0368482 -0.00475201 0)
(0.0614897 -0.015555 0)
(-0.149584 0.0176009 0)
(-0.229481 -0.0749785 0)
(-0.000361015 0.0558107 0)
(0.00663833 -0.00844099 0)
(0.00727389 -0.0396637 0)
(-0.0371798 0.0305378 0)
(-0.0160895 -0.0521214 0)
(0.0198458 0.0508581 0)
(0.0871121 -0.0237507 0)
(-0.0116129 -0.0608839 0)
(0.0476379 0.159113 0)
(-0.0257299 0.157266 0)
(-0.0659821 -0.0974596 0)
(0.000698646 -0.256132 0)
(0.00625269 -0.0355094 0)
(-0.0153794 0.193604 0)
(0.0149094 -0.0239392 0)
(-0.056825 0.0396153 0)
(0.028431 -0.0384697 0)
(-0.00750298 0.0501137 0)
(0.0750438 0.043032 0)
(-0.0173292 -0.0353279 0)
(0.0428459 -0.0265517 0)
(0.102444 -0.0758034 0)
(-0.0222012 -0.0356636 0)
(0.0997153 0.168575 0)
(0.0793039 0.0780613 0)
(0.042859 -0.276404 0)
(-0.00941327 0.0146158 0)
(-0.197013 0.202098 0)
(-0.0831102 0.0381809 0)
(-0.000758006 -0.0629221 0)
(0.0412176 -0.107723 0)
(0.0227593 0.00855495 0)
(-0.0755081 -0.0359941 0)
(-0.0124395 -0.127148 0)
(0.0348306 -0.00470204 0)
(-0.0603821 0.214888 0)
(-0.0259289 0.120734 0)
(-0.0352187 -0.161236 0)
(-0.0326558 -0.00135297 0)
(0.0488765 -0.0104579 0)
(0.0311217 -0.13464 0)
(0.182099 -0.0296339 0)
(0.0209503 0.110184 0)
(0.0354897 0.184891 0)
(0.0149059 0.0392732 0)
(-0.00499579 -0.0756617 0)
(-0.0504923 -0.0587408 0)
(-0.106379 0.0517405 0)
(0.0170905 -0.0361512 0)
(0.0318942 -0.081154 0)
(0.0935434 0.0254968 0)
(0.0431709 0.122619 0)
(-0.0236319 -0.0360614 0)
(-0.0169053 -0.0270888 0)
(-0.0363198 0.0564353 0)
(0.10208 0.0337337 0)
(0.0513682 -1.79432e-05 0)
(-0.08927 -0.0594652 0)
(0.0107383 -0.0890058 0)
(-0.0731898 0.0452093 0)
(-0.169245 0.0315414 0)
(0.0146849 -0.0651517 0)
(0.0172918 -0.00872162 0)
(0.0729618 0.0779978 0)
(0.094469 -0.00960564 0)
(0.00433494 -0.124564 0)
(0.0654003 0.00363972 0)
(0.0225876 0.059811 0)
(-0.0112187 0.110784 0)
(0.140702 0.00623046 0)
(-0.0357132 -0.113163 0)
(-0.000789967 -0.117031 0)
(-0.0190437 -0.154794 0)
(0.00395377 0.185047 0)
(-0.0138365 0.154095 0)
(0.0215755 -0.102169 0)
(-0.0752812 0.0825629 0)
(-0.0118007 -0.0731274 0)
(-0.0154673 0.0969664 0)
(-0.0528921 0.0357488 0)
(0.123053 -0.127436 0)
(0.057924 -0.0328561 0)
(0.00548479 0.0352145 0)
(0.0994152 0.0972488 0)
(-0.228503 -0.0245626 0)
(-0.0223419 0.0268657 0)
(-0.0226751 -0.050416 0)
(0.00868252 0.00530013 0)
(0.00306866 0.0571749 0)
(0.0437504 0.0597026 0)
(-0.0742536 -0.100182 0)
(0.0131049 0.0040383 0)
(0.0164516 0.0501881 0)
(0.0636206 -0.165376 0)
(-0.00116414 0.075488 0)
(0.0358728 0.132735 0)
(0.00733834 -0.0146481 0)
(-0.000144538 0.0197219 0)
(-0.00367981 0.0587865 0)
(-3.78207e-05 -0.0495551 0)
(-0.00154283 -0.00126456 0)
(-0.00274963 -0.0774672 0)
(-0.0302006 -0.0149157 0)
(0.00022821 0.104368 0)
(-0.0287827 -0.137331 0)
(-0.0144901 -0.0815852 0)
(0.0921936 0.044595 0)
(0.0800625 -0.0447241 0)
(0.0323106 0.165759 0)
(0.0689444 0.182171 0)
(0.107081 -0.202359 0)
(0.0401056 -0.0341549 0)
(-0.023833 0.0024251 0)
(-0.00551918 -0.0602035 0)
(0.0140862 0.132124 0)
(0.150837 0.0444551 0)
(0.0844093 -0.0367875 0)
(-0.0738665 0.139795 0)
(0.00263076 -0.00762728 0)
(0.0241456 -0.0544748 0)
(-0.086971 -0.104797 0)
(0.0457453 -0.00475867 0)
(-0.0846953 -0.0018768 0)
(-0.0449969 -0.00500477 0)
(0.0874921 0.0097561 0)
(-0.03267 -0.148773 0)
(0.0213891 -0.0140446 0)
(0.0118935 0.256553 0)
(0.0393696 0.0572361 0)
(-0.0373173 -0.0986276 0)
(0.0326635 -0.172324 0)
(-0.064295 0.0564513 0)
(0.141881 0.0146391 0)
(0.067326 -0.17374 0)
(-0.0611149 0.126601 0)
(-0.0381341 0.235204 0)
(0.042425 0.00752881 0)
(-0.057745 -0.0588289 0)
(-0.10426 -0.0600078 0)
(0.0555621 -0.0331314 0)
(0.063523 -0.0759837 0)
(0.00399932 -0.0704656 0)
(0.131782 0.107909 0)
(0.0927496 0.105263 0)
(-0.043375 -0.00307742 0)
(-0.0760028 0.0482125 0)
(-0.0918817 -0.00946812 0)
(0.0868472 -0.0403377 0)
(0.0561992 -0.0352109 0)
(-0.0560658 -0.0683976 0)
(-0.0573529 0.0177007 0)
(0.000754699 0.108736 0)
(0.133088 0.0506473 0)
(-0.0140736 -0.0674459 0)
(0.0474968 -0.0455798 0)
(-0.0196872 -0.0100585 0)
(-0.00717473 0.13774 0)
(0.0363614 -0.0756516 0)
(-0.083541 -0.0973466 0)
(-0.0637376 0.324432 0)
(-0.0718549 -0.00311116 0)
(-0.0240059 -0.226633 0)
(0.0535919 -0.0522564 0)
(0.0470059 0.00850054 0)
(0.0115813 -0.00513511 0)
(-0.0156985 -0.0443423 0)
(-0.091018 -0.00989551 0)
(-0.0453208 0.0219804 0)
(-0.0107298 0.0817009 0)
(0.0358712 0.0882399 0)
(-0.01131 -0.0750884 0)
(0.031721 -0.064566 0)
(-0.28833 -0.0305349 0)
(-0.10615 -0.0478539 0)
(0.101521 0.116742 0)
(0.041076 -0.0253683 0)
(0.0167587 0.0712372 0)
(0.0141904 0.0249093 0)
(-0.105869 0.0368978 0)
(0.029978 -0.0120533 0)
(-0.0280409 -0.0857928 0)
(-0.151175 -0.0341811 0)
(-0.0139529 0.0323094 0)
(-0.0154664 0.113972 0)
(0.102359 -0.000678147 0)
(-0.17323 -0.0656052 0)
(0.0768024 -0.052797 0)
(0.0317742 -0.0101233 0)
(0.00228178 0.00496472 0)
(0.035869 0.133701 0)
(-0.0063602 -0.0035561 0)
(-0.066385 -0.0778553 0)
(0.0320542 -0.0194233 0)
(-0.0839146 -0.0864505 0)
(-0.0516285 0.0684179 0)
(-0.016165 0.0718275 0)
(-0.037146 -0.0452193 0)
(-0.000134408 0.0148685 0)
(0.00158028 -0.0152991 0)
(0.00244971 0.0385844 0)
(0.00682796 -0.0721308 0)
(0.134052 -0.0998127 0)
(-0.00761897 0.0417585 0)
(-0.039598 0.0721218 0)
(0.0255507 -0.0825877 0)
(-0.00323157 -0.0311727 0)
(0.0549533 0.0156127 0)
(0.0100398 -0.0554947 0)
(-0.00284718 0.178179 0)
(0.0622701 0.0691031 0)
(0.00666815 -0.0877002 0)
(-0.0378117 0.0223566 0)
(-0.0936594 0.029193 0)
(-0.0671562 -0.22785 0)
(-0.0384777 0.133475 0)
(-0.0776904 0.0978328 0)
(0.165564 -0.123661 0)
(-0.0555499 0.111857 0)
(-0.0519697 0.142541 0)
(0.00587938 0.00566932 0)
(-0.0337575 -0.117772 0)
(-0.0168156 -0.00233305 0)
(-0.0960632 0.00119024 0)
(0.00610111 -0.0660401 0)
(0.0135003 0.0837855 0)
(0.0241999 -0.0211928 0)
(0.0400969 -0.117712 0)
(0.00605496 0.04446 0)
(0.0431362 0.114066 0)
(-0.0353633 -0.00862208 0)
(-0.0736525 -0.110245 0)
(-0.0533219 0.108582 0)
(-0.0209853 -0.118666 0)
(0.0594518 -0.110906 0)
(-0.0233673 0.183714 0)
(0.0443117 -0.0155386 0)
(-0.0438921 0.100877 0)
(-0.0561054 0.105531 0)
(0.00314661 -0.0674031 0)
(0.154122 -0.209737 0)
(0.0594063 -0.0700789 0)
(0.0122752 0.117224 0)
(0.0863295 0.0239891 0)
(0.00286945 0.0702707 0)
(-0.019954 0.142276 0)
(-0.00231698 -0.0124296 0)
(0.0899488 -0.151137 0)
(-0.0368714 -0.054548 0)
(0.0127528 -0.00817103 0)
(-0.00754082 0.0525122 0)
(-0.00647218 0.140274 0)
(-0.0222781 -0.128361 0)
(0.0119012 -0.050474 0)
(-0.0745404 0.0999499 0)
(0.012562 -0.0906905 0)
(0.0101649 -0.00995659 0)
(0.0485096 0.144925 0)
(0.0220212 -0.00972488 0)
(0.00377041 -0.0221461 0)
(0.0301918 0.033321 0)
(0.119643 -0.045474 0)
(0.0620876 -0.0661079 0)
(-0.0942199 -0.00414578 0)
(0.0423286 -0.0617696 0)
(-0.0469086 -0.0273174 0)
(-0.0698775 0.137881 0)
(-0.0128892 -0.0146901 0)
(-0.046286 -0.0895642 0)
(-0.0428371 0.0311049 0)
(0.0166024 0.107827 0)
(0.0496756 -0.0980805 0)
(0.0144487 -0.0300897 0)
(0.0255879 -0.00337062 0)
(-0.133366 -0.0604005 0)
(0.121201 0.0380307 0)
(-0.0268304 0.0290554 0)
(-0.0328458 0.011786 0)
(0.0218824 0.0641167 0)
(0.0373458 0.101861 0)
(-0.0126224 -0.0682817 0)
(-0.0589228 0.0105951 0)
(-0.106524 -0.0229615 0)
(0.00879023 -0.0298752 0)
(0.00908164 -0.00522313 0)
(0.0979211 0.0376555 0)
(-0.0200479 -0.0551304 0)
(0.0421376 -0.0366393 0)
(-0.165611 0.0112856 0)
(-0.00141985 0.0753966 0)
(0.0259081 -0.0326754 0)
(0.19868 -0.0163416 0)
(-0.0814562 0.0145909 0)
(-0.0327595 -0.0292689 0)
(0.0715771 -0.0343772 0)
(-0.108455 0.0996825 0)
(0.0894902 0.0617142 0)
(-0.106183 -0.0288219 0)
(-0.0013998 -0.0270451 0)
(0.00387178 -7.61203e-05 0)
(-0.0264512 0.0632921 0)
(0.010232 -0.105556 0)
(-0.0679986 -0.0080644 0)
(-0.190351 0.0894744 0)
(0.116893 -0.0352661 0)
(-0.0565932 -0.0191145 0)
(-0.0042843 -0.108701 0)
(-0.00920068 -0.0388037 0)
(-0.0494 0.101253 0)
(0.190965 -0.0394108 0)
(0.0600591 0.0771774 0)
(-0.0015261 0.0853602 0)
(-0.0197448 0.0291569 0)
(-0.0342596 -0.0879455 0)
(-0.101473 -0.155294 0)
(-0.0548957 0.189711 0)
(0.086948 -0.137049 0)
(-0.172695 0.103706 0)
(-0.22179 0.187177 0)
(0.0869772 -0.104385 0)
(0.16581 -0.114943 0)
(-0.0410312 0.0185199 0)
(-0.205838 0.0589419 0)
(-0.0706452 0.0194975 0)
(-0.165736 -0.255684 0)
(0.0684228 -0.0407716 0)
(0.137025 0.0667595 0)
(0.0263019 -0.0168631 0)
(-0.0206408 0.0941653 0)
(0.0412164 0.0973236 0)
(-0.0613591 0.154456 0)
(-0.0254134 -0.0858769 0)
(0.107038 -0.186066 0)
(0.055552 -0.0961778 0)
(-0.0186325 -0.0759537 0)
(-0.011985 0.181048 0)
(-0.0129463 0.140442 0)
(-0.0191681 0.115444 0)
(-0.051863 -0.0810383 0)
(0.00740922 -0.182996 0)
(-0.0660243 -0.10632 0)
(-0.034302 -0.0509822 0)
(0.11589 0.0826849 0)
(-0.0868493 0.00385982 0)
(0.0209635 0.041469 0)
(-0.0880842 0.14962 0)
(0.010431 -0.0533591 0)
(-0.0231656 -0.0233368 0)
(-0.024808 0.0055284 0)
(0.026606 -0.0253908 0)
(-0.0513991 0.126625 0)
(0.151824 -0.033752 0)
(0.0724226 -0.0711328 0)
(-0.191352 0.108701 0)
(-0.0236342 0.152447 0)
(-0.0529311 -0.169346 0)
(-0.0329683 -0.112801 0)
(-0.0322649 0.0174192 0)
(0.0985813 0.0295235 0)
(-0.0201765 0.0152164 0)
(0.010817 0.0725361 0)
(-0.0145612 -0.0565677 0)
(-0.0270804 -0.0322853 0)
(0.0748181 0.0243933 0)
(0.00340267 -0.128044 0)
(-0.0382771 0.0522487 0)
(0.0417473 0.118232 0)
(0.0340758 -0.0640848 0)
(-0.0273483 0.0356183 0)
(-0.00119853 0.0421121 0)
(-0.0300465 -0.0617117 0)
(-0.00758887 0.0156185 0)
(0.0224078 0.0450683 0)
(0.102331 -0.131413 0)
(0.0168272 -0.0832858 0)
(-0.0612044 0.0286523 0)
(-0.0295642 0.187371 0)
(-0.0654201 -0.0588601 0)
(0.0956808 -0.0670289 0)
(-0.0163945 0.100933 0)
(0.0652055 -0.0294059 0)
(-0.00823452 0.0334658 0)
(-0.109426 0.00353096 0)
(-0.0418954 -0.119202 0)
(-0.0123966 -0.0322439 0)
(0.0699356 0.0701423 0)
(-0.00710885 0.000456702 0)
(0.0122792 0.0730349 0)
(-0.0628762 -0.0437097 0)
(0.0376378 0.0349542 0)
(0.0232453 -0.0608532 0)
(-0.0230515 -0.0574582 0)
(-0.0520883 0.141946 0)
(-0.0593847 -0.0973508 0)
(0.00443092 -0.0585261 0)
(0.108614 0.119626 0)
(0.0855881 0.0298738 0)
(0.0589792 -0.00531284 0)
(0.000660234 -0.0249137 0)
(-0.000408426 -0.0326012 0)
(0.0322637 0.106857 0)
(-0.042302 -0.00954664 0)
(-0.0021499 0.00395794 0)
(-0.00596899 -0.0904998 0)
(0.0182405 -0.0435271 0)
(0.0414822 0.0767214 0)
(-0.0539933 -0.0725922 0)
(-0.0472775 -0.112722 0)
(-0.0318084 0.133035 0)
(-0.00884152 -0.0763077 0)
(0.0311676 -0.0302628 0)
(0.00151784 0.148273 0)
(-0.0216787 0.0477448 0)
(0.00320806 -0.0536718 0)
(0.0462249 -0.144969 0)
(-0.00769439 0.1798 0)
(-0.0124981 0.0235 0)
(-0.0634493 0.0993832 0)
(0.00095521 0.113219 0)
(-0.0227004 -0.2008 0)
(-0.0279632 -0.162204 0)
(-0.0770923 0.0919626 0)
(-0.0776357 0.128498 0)
(0.0920856 0.0361346 0)
(-0.000243622 -0.196555 0)
(-0.0277809 -0.0639802 0)
(-0.0051686 0.0374839 0)
(-0.0490636 -0.0084052 0)
(-0.0459353 -0.043793 0)
(0.0946451 0.0139919 0)
(0.0179283 0.16499 0)
(0.135228 -0.0269669 0)
(0.0578571 -0.228431 0)
(-0.00828217 -0.078004 0)
(-0.0243773 0.0767034 0)
(-0.0864548 0.117852 0)
(0.237661 0.17807 0)
(0.00304691 0.0640003 0)
(0.0411955 -0.0381644 0)
(-0.0658078 -0.143694 0)
(-0.00188919 -0.0509108 0)
(-0.00237514 -0.0745849 0)
(-0.00219964 -0.0635816 0)
(0.0838401 0.134796 0)
(0.0717988 0.0496678 0)
(-0.113413 0.0195438 0)
(0.0773134 -0.0495905 0)
(-0.0242138 0.0898284 0)
(0.00907576 -0.14089 0)
(-0.0191974 -0.00996444 0)
(-0.000201776 0.0186785 0)
(0.00423021 -0.0751674 0)
(-0.0243601 0.0216507 0)
(-0.0176947 0.189262 0)
(0.0242155 -0.00571244 0)
(-0.00926651 0.0478102 0)
(-0.0639124 -0.0379456 0)
(-0.184754 -0.139519 0)
(-0.0795046 0.042115 0)
(0.0541202 0.0100352 0)
(-0.00935216 0.0689805 0)
(-0.0288125 0.0463727 0)
(-0.02426 -0.0616815 0)
(0.0455634 -0.164988 0)
(-0.0371978 -0.00350479 0)
(-0.0686534 0.132766 0)
(0.0766061 0.0657254 0)
(0.100328 -0.0271432 0)
(-0.0224779 0.065909 0)
(0.0533917 -0.0113442 0)
(-0.193701 -0.138923 0)
(0.036658 -0.0113187 0)
(0.203847 -0.0771984 0)
(0.0261399 0.0352447 0)
(-0.0601795 0.0195866 0)
(0.00861424 -0.00797726 0)
(-0.0293214 0.123617 0)
(0.0104519 0.0161375 0)
(-0.177279 -0.0331082 0)
(0.00686483 -0.000639365 0)
(-0.033447 0.0170236 0)
(0.0394612 0.0809306 0)
(0.0754821 0.0526787 0)
(-0.00364374 -0.0577406 0)
(-0.0199431 -0.0818067 0)
(-0.0666492 -0.0966128 0)
(0.0448827 0.0198903 0)
(0.0224613 0.0709702 0)
(-0.0349772 -0.0116802 0)
(0.000108707 -0.0625071 0)
(-0.050024 0.101268 0)
(-0.151982 0.148685 0)
(0.0343492 -0.0956661 0)
(0.00552236 -0.119195 0)
(-0.025348 0.00517408 0)
(0.0200654 -0.0165895 0)
(-0.0389532 0.0461444 0)
(0.00707728 0.0239997 0)
(-0.00107367 -0.0532481 0)
(0.0044524 -7.37059e-05 0)
(-0.00431349 0.0815268 0)
(0.0131516 -0.0767813 0)
(0.0492302 0.00628951 0)
(-0.0120853 -0.0168223 0)
(0.0140404 0.00619326 0)
(0.00789171 0.0666322 0)
(-0.0142674 -0.0486919 0)
(-0.00514397 -0.00452932 0)
(-0.0397791 0.0117072 0)
(-0.0151712 -0.0405918 0)
(-0.0469524 -0.0352293 0)
(-0.00931953 0.0259944 0)
(0.0354516 -0.0661564 0)
(0.0349275 0.0177654 0)
(-0.0224881 0.0201135 0)
(-0.120002 0.0205134 0)
(-0.0170202 0.0824803 0)
(0.000486846 -0.0871989 0)
(0.0242915 0.0410048 0)
(-0.0226435 0.0160669 0)
(0.140159 0.018098 0)
(-0.147661 0.0391651 0)
(0.021427 -0.030776 0)
(-0.00965687 -0.0595864 0)
(0.00860365 -0.105158 0)
(-0.0302582 0.0169769 0)
(0.065833 0.108679 0)
(0.0311945 0.136558 0)
(-0.0358632 -0.0655968 0)
(-0.288444 0.00280913 0)
(-0.0581972 -0.0513725 0)
(0.181802 -0.10207 0)
(0.152521 -0.0758463 0)
(-0.0718274 0.0236331 0)
(-0.0404374 0.0883957 0)
(0.0209586 -0.00832533 0)
(-0.136633 0.0334322 0)
(0.050651 0.210427 0)
(0.0975251 0.0209334 0)
(0.103894 -0.150365 0)
(0.0826002 -0.23293 0)
(0.109408 0.000232917 0)
(-0.00238104 0.0198412 0)
(0.0013291 0.103264 0)
(0.0494297 0.209565 0)
(-0.0269778 0.0609789 0)
(-0.0794845 -0.122608 0)
(0.0763206 -0.0321065 0)
(-0.0927467 -0.0185422 0)
(-0.0945576 -0.0696368 0)
(0.0332566 0.00621196 0)
(0.0423681 0.0791311 0)
(0.0935789 -0.0529494 0)
(-0.00748849 0.119986 0)
(0.0790977 0.0303711 0)
(-0.0680054 0.11701 0)
(0.173216 -0.027045 0)
(-0.0806032 -0.133643 0)
(-0.031692 -0.00124129 0)
(-0.057419 -0.00132488 0)
(0.0936452 -0.0872969 0)
(0.0815777 0.140318 0)
(0.0145506 0.0429861 0)
(-0.136566 -0.267148 0)
(-0.0113574 0.01562 0)
(0.00958495 0.0235824 0)
(0.00131984 -0.017848 0)
(0.0377009 0.0482512 0)
(0.0183025 0.0881793 0)
(-0.016599 -0.0358842 0)
(-0.0236014 -0.0506102 0)
(-0.0374658 -0.11185 0)
(0.0414092 -0.148114 0)
(-0.0831923 0.226577 0)
(0.120766 0.093605 0)
(-0.0128565 -0.124532 0)
(0.00556913 -0.0125028 0)
(0.0846419 0.0798328 0)
(0.0869129 0.0544935 0)
(0.0633317 -0.0653238 0)
(-0.0484397 0.0320005 0)
(-0.0434219 -0.0121418 0)
(0.199795 -0.0138162 0)
(-0.0249869 0.0436448 0)
(0.081386 -0.0761823 0)
(-0.0401065 -0.0676452 0)
(-0.0922042 0.0258151 0)
(0.0814641 0.108311 0)
(0.0483877 -0.0109118 0)
(-0.136794 -0.0510555 0)
(0.0518656 0.104609 0)
(0.00692913 0.0149368 0)
(0.107603 -0.156327 0)
(-0.0301436 0.108545 0)
(-0.00498148 0.0758437 0)
(-0.133553 -0.137655 0)
(0.00458639 0.0693302 0)
(-0.0336412 0.0544361 0)
(-0.0015425 -0.0372582 0)
(-0.00211644 0.0292237 0)
(0.0111592 -0.0503962 0)
(0.0199666 -0.00600306 0)
(0.0160638 0.0861844 0)
(0.000845885 0.00958444 0)
(0.00144154 -0.0173221 0)
(-0.0108498 -0.0891689 0)
(0.0291604 -0.0574222 0)
(-0.101959 0.175762 0)
(0.0646035 0.0318406 0)
(0.00436147 -0.0220388 0)
(0.0597849 0.0103793 0)
(0.0112117 -0.160763 0)
(0.00294939 -0.0307552 0)
(-0.0247688 -0.0607274 0)
(-0.0743022 0.0346115 0)
(0.00281005 0.0606461 0)
(-0.0165315 -0.0667386 0)
(-0.000464104 0.102063 0)
(0.0398474 0.143339 0)
(-0.0157271 -0.136464 0)
(-0.00151367 0.0998111 0)
(-0.0431917 -0.01658 0)
(0.0399394 -0.157302 0)
(0.0344352 0.0981047 0)
(-0.000196642 -0.0673878 0)
(0.0681926 -0.172289 0)
(-0.0704131 0.131136 0)
(0.0292373 0.123541 0)
(-0.0273251 0.147854 0)
(-0.0264272 -0.0696397 0)
(-0.00565379 -0.222322 0)
(-0.0207007 -0.063361 0)
(-0.00882917 -0.00799545 0)
(0.00454773 0.133707 0)
(-0.0400378 0.0579156 0)
(-0.0364181 0.0376083 0)
(-0.00644394 -0.00573712 0)
(-0.0443163 0.100287 0)
(0.0709143 -0.0507474 0)
(0.00817231 -0.108077 0)
(-0.00204397 -0.0617767 0)
(-0.000555388 -0.17643 0)
(-0.00757745 0.0927248 0)
(0.0626839 0.0258524 0)
(0.0253843 0.0735176 0)
(0.0651588 0.148854 0)
(0.0284603 -0.0243969 0)
(-0.00671874 -0.00476268 0)
(-0.19699 0.145127 0)
(-0.120313 -0.0127982 0)
(-0.0718117 -0.0848543 0)
(0.0804698 -0.174396 0)
(0.0298318 -0.0309441 0)
(0.0135621 0.084158 0)
(0.0785772 0.0917899 0)
(0.00788898 0.12707 0)
(0.0325409 0.0329774 0)
(-0.0128245 -0.0770227 0)
(0.0285029 -0.0549166 0)
(-0.00416611 -0.0831357 0)
(0.0522275 -0.0923853 0)
(0.182251 0.0826633 0)
(0.0554951 0.0805587 0)
(0.0265066 -0.086603 0)
(-0.0261553 -0.0435737 0)
(-0.0204129 -0.0512102 0)
(0.0901476 -0.0435075 0)
(-0.157798 0.270706 0)
(-0.0313959 0.0976449 0)
(0.0325729 -0.172709 0)
(0.0145267 -0.0604899 0)
(0.0231586 -0.0477703 0)
(-0.0512234 -0.00416094 0)
(-0.107869 0.0385391 0)
(0.0704986 -0.0790305 0)
(-0.0196447 0.0380084 0)
(-0.0587805 0.0141327 0)
(0.04659 -0.0819809 0)
(0.112467 0.14164 0)
(0.0995915 0.0125674 0)
(-0.0924844 0.0690095 0)
(-0.0724041 0.0240656 0)
(-0.0334606 -0.101558 0)
(-0.0561413 0.0953499 0)
(0.0438517 -0.0502084 0)
(-0.0831076 -0.1486 0)
(-0.0798141 0.113573 0)
(-0.0116432 -0.0253453 0)
(-0.0792907 0.012349 0)
(0.0110187 0.129839 0)
(0.0521315 -0.0268398 0)
(-0.0777797 -0.0502726 0)
(-0.00421419 0.00347414 0)
(-0.0378218 0.0228395 0)
(-0.0154715 0.0393821 0)
(0.0164834 -0.0978273 0)
(0.122782 -0.0367544 0)
(0.0224193 0.0707053 0)
(0.000541875 -0.00242746 0)
(0.00543919 0.0143029 0)
(0.00133833 0.00527544 0)
(-0.0113428 0.0220188 0)
(0.0218315 0.0348006 0)
(-0.0125778 -0.121232 0)
(0.00734181 -0.0303189 0)
(0.0980171 0.0686816 0)
(-0.0975954 0.0822863 0)
(-0.119049 0.045507 0)
(0.00153082 -0.191374 0)
(0.0179523 0.04561 0)
(0.0925411 -0.0364725 0)
(0.0622248 -0.0780385 0)
(-0.0666457 0.0424707 0)
(-0.0549132 -0.0401461 0)
(0.104385 -0.00649908 0)
(0.0543116 -0.0234082 0)
(0.0277417 0.143518 0)
(-0.0425717 -0.0397754 0)
(0.164185 -0.208262 0)
(0.0850428 0.234041 0)
(-0.0324696 0.300205 0)
(-0.00484332 -0.193453 0)
(0.0299392 -0.230553 0)
(0.00401433 -0.033014 0)
(0.180777 0.054767 0)
(0.0943828 0.109589 0)
(0.0417854 -0.00476522 0)
(0.0725326 0.0324521 0)
(0.00461195 0.107895 0)
(-0.0293381 -0.0850514 0)
(0.0907638 -0.170699 0)
(-0.168099 -0.0255751 0)
(0.165301 -0.0446617 0)
(0.14864 -0.0357862 0)
(-0.0803938 0.0571289 0)
(0.298712 0.078029 0)
(-0.0815719 0.118814 0)
(-0.0110678 0.0129864 0)
(0.0408894 -0.0650437 0)
(-0.0983792 0.0611024 0)
(0.206312 -0.0115067 0)
(-0.139619 -0.139551 0)
(-0.0613456 0.0019036 0)
(0.0405493 0.0610444 0)
(-0.0576349 -0.0888859 0)
(0.124596 0.154371 0)
(0.0134684 0.122325 0)
(-0.117094 -0.0490917 0)
(0.0934199 0.0267485 0)
(0.140295 -0.0654865 0)
(0.0528025 -0.206005 0)
(-0.113519 -0.0517111 0)
(-0.0795764 0.184462 0)
(0.0462598 0.116909 0)
(-0.071821 -0.162805 0)
(0.0480867 0.0708392 0)
(0.00947373 0.0588028 0)
(0.0197093 -0.0421561 0)
(-0.0283577 0.0127642 0)
(-0.0310653 -0.117965 0)
(-0.165437 -0.0825337 0)
(-0.0569463 0.0147329 0)
(0.0448092 0.074066 0)
(-0.092124 0.0829915 0)
(0.0641594 0.0183738 0)
(0.0055512 -0.0727799 0)
(-0.184126 -0.102376 0)
(-0.0746095 0.199411 0)
(0.147059 0.0707622 0)
(-0.016977 -0.17387 0)
(0.00255238 -0.125726 0)
(0.0349908 0.0419348 0)
(-0.0172635 0.0869912 0)
(0.0621387 -0.0325594 0)
(-0.0418452 -0.0717682 0)
(-0.0823407 0.112783 0)
(0.0782452 -0.136874 0)
(0.0259822 -0.149859 0)
(0.0642716 0.155784 0)
(0.0327675 0.130553 0)
(0.00410763 0.154743 0)
(0.0037492 -0.0136962 0)
(0.00592854 -0.0732145 0)
(0.0130832 0.059953 0)
(0.169251 -0.104835 0)
(0.0156863 0.0380174 0)
(0.00486578 0.0208638 0)
(-0.00697244 -0.0872706 0)
(0.0136347 0.0641065 0)
(0.00892206 0.0142524 0)
(0.0965911 0.0127032 0)
(-0.0554232 0.0419847 0)
(-0.0714536 -0.0265764 0)
(-0.181034 0.0608249 0)
(-0.100318 -0.0653333 0)
(0.00482177 -0.144714 0)
(0.040408 0.0616916 0)
(0.00275555 0.109609 0)
(0.00777238 -0.00508474 0)
(-0.0164005 0.0113458 0)
(0.00322433 0.0630464 0)
(-0.00366768 -0.0697963 0)
(-0.00596047 -0.0155046 0)
(0.0220068 0.0819474 0)
(0.0206297 -0.133384 0)
(0.0853971 -0.0312813 0)
(0.0122436 0.141936 0)
(-0.0164556 0.074444 0)
(-0.0524092 -0.124884 0)
(-0.0531694 -0.134836 0)
(-0.0894246 0.0532019 0)
(-0.0655482 0.120952 0)
(0.011659 -0.0525238 0)
(-0.0250522 -0.0569392 0)
(-0.00800124 0.00663179 0)
(0.057364 -0.0763624 0)
(-0.0213636 0.0959875 0)
(0.0134553 -0.0389838 0)
(0.167214 -0.153539 0)
(-0.225468 0.412001 0)
(0.178345 0.164292 0)
(0.0564903 -0.286832 0)
(0.0813963 -0.231701 0)
(-0.0232584 -0.177545 0)
(0.00215568 0.0939623 0)
(0.308211 0.096055 0)
(0.100426 0.0394195 0)
(-0.0122317 0.188994 0)
(-0.00340328 0.0304049 0)
(0.0305452 -0.056163 0)
(0.0972905 -0.0564669 0)
(-0.0543808 -0.0769626 0)
(0.0325555 -0.133081 0)
(0.101167 -0.15026 0)
(0.038811 0.151996 0)
(0.00205503 0.132052 0)
(0.0233382 0.328386 0)
(0.0314749 -0.0799171 0)
(0.0511852 -0.103424 0)
(-0.00180668 -0.123499 0)
(0.0327218 -0.0167649 0)
(-0.00202426 0.100239 0)
(-0.0341776 -0.132125 0)
(-0.0378456 -0.00220073 0)
(0.0519475 0.0500892 0)
(-0.0868727 0.135476 0)
(0.283146 0.182285 0)
(0.04072 0.00432072 0)
(-0.113935 -0.0250768 0)
(-0.0540943 -0.128642 0)
(0.0908197 -0.0302051 0)
(-0.0879753 0.0996123 0)
(-0.0761506 0.0358784 0)
(0.0432479 -0.0347145 0)
(0.039502 -0.100655 0)
(-0.117378 0.0674386 0)
(0.0196004 0.0436518 0)
(-0.0291443 0.0309852 0)
(-0.0355189 -0.0667091 0)
(0.0107929 -0.0571273 0)
(-0.0712444 0.031486 0)
(0.0466114 -0.152147 0)
(0.296652 -0.0810456 0)
(0.029756 0.0960403 0)
(0.0278364 0.0464168 0)
(0.0864214 0.0392996 0)
(-0.154532 0.134347 0)
(0.0592038 -0.0334074 0)
(0.126713 -0.121433 0)
(0.0780666 0.00230167 0)
(-0.0422508 -0.162106 0)
(0.0678022 -0.124513 0)
(-0.00635094 0.139516 0)
(-0.0660952 0.0778448 0)
(-0.0283718 0.072736 0)
(0.0161141 -0.00641001 0)
(0.0754743 -0.129924 0)
(-0.120673 -0.00331832 0)
(0.00527427 0.00743037 0)
(0.1006 0.100614 0)
(0.0415351 0.0853259 0)
(0.0047933 0.0381962 0)
(-0.0961466 0.038328 0)
(-0.00482555 -0.0554633 0)
(0.0696203 -0.112759 0)
(0.0225071 0.0882751 0)
(0.0465286 -0.0787608 0)
(0.00572994 -0.0418271 0)
(0.0363607 0.11825 0)
(0.0041041 -0.074248 0)
(-0.0567044 -0.0440811 0)
(0.0479379 0.0524535 0)
(-0.0040743 0.108466 0)
(0.00135989 0.0837952 0)
(-0.0750615 -0.0891765 0)
(0.0243197 -0.231248 0)
(0.0383579 -0.00265651 0)
(0.0100246 0.0962784 0)
(-0.000133775 -0.0154456 0)
(-8.51269e-05 0.0474972 0)
(0.000609491 -0.0340728 0)
(0.000128753 0.027418 0)
(-0.000225968 -0.0797072 0)
(0.00995074 0.0237326 0)
(0.00232229 -0.0985624 0)
(0.00186453 -0.117258 0)
(-0.00123265 0.284096 0)
(-0.000252041 0.0744225 0)
(0.0251547 0.0219454 0)
(-0.0569647 -0.0478738 0)
(-0.135774 -0.2036 0)
(-0.0342708 -0.00152833 0)
(0.00691444 -0.0698796 0)
(0.00338156 -0.0299075 0)
(-0.000758664 0.13296 0)
(-0.00140606 -0.132444 0)
(-0.00325905 -0.0626207 0)
(0.0382802 0.0915789 0)
(-0.130093 0.155267 0)
(-0.251105 0.00645705 0)
(0.226862 -0.117328 0)
(0.200881 0.114337 0)
(-0.0173621 -0.107799 0)
(0.00418147 -0.135518 0)
(0.00249627 -0.0768519 0)
(0.0209002 0.0161876 0)
(0.00204725 0.178061 0)
(0.0159878 0.20618 0)
(-0.0117676 0.076012 0)
(-0.016982 -0.118324 0)
(-0.00441143 -0.125471 0)
(0.0650569 -0.117113 0)
(0.152229 -0.0870673 0)
(0.00602125 0.0451968 0)
(-0.137623 0.13436 0)
(0.0469112 0.236885 0)
(0.19683 0.0322473 0)
(0.145436 -0.217676 0)
(0.014505 0.069724 0)
(0.0245538 0.0649158 0)
(-0.132786 -0.153063 0)
(0.0727838 0.0106517 0)
(0.0291806 0.0485383 0)
(-0.0289056 -0.0682076 0)
(0.0556275 0.0328216 0)
(0.069158 0.0110775 0)
(0.164529 0.239589 0)
(-0.0504081 0.126677 0)
(0.0880872 -0.150074 0)
(0.00470593 -0.0573367 0)
(0.0142173 0.0174137 0)
(0.00203017 -0.0640714 0)
(0.036704 -0.0590325 0)
(0.0327307 -0.0301027 0)
(0.0151988 0.16037 0)
(0.0207703 0.0556333 0)
(0.109001 0.0224281 0)
(-0.025798 0.0742975 0)
(-0.0210694 -0.0596768 0)
(-0.0181649 -0.0531033 0)
(-0.0123372 -0.0684169 0)
(-0.00575292 -0.240124 0)
(0.0366643 -0.079278 0)
(-0.0911899 0.287034 0)
(-0.0139112 0.0351947 0)
(-0.043004 0.0355193 0)
(0.00606584 0.188102 0)
(0.0536498 -0.161623 0)
(0.00847698 -0.164105 0)
(0.0876322 -0.0776553 0)
(-0.0344999 0.00186522 0)
(-0.082776 -0.0482892 0)
(-0.191605 0.0924389 0)
(0.16118 0.0531642 0)
(-0.0741279 0.0937362 0)
(-0.0667253 -0.0313945 0)
(0.0583254 -0.0593584 0)
(-0.0472256 0.0709041 0)
(-0.04264 -0.0724268 0)
(0.0642883 0.0119427 0)
(0.0149789 0.0304591 0)
(0.0312162 0.160017 0)
(0.0148508 0.0704029 0)
(0.000226877 -0.0847966 0)
(-0.000247147 0.0282001 0)
(-0.048182 -0.0597286 0)
(0.048761 -0.0935749 0)
(0.0747267 -0.116957 0)
(0.0744539 0.0948576 0)
(-0.0180545 0.119869 0)
(-0.0229392 -0.036344 0)
(-0.00978086 0.0458309 0)
(-0.0262722 0.0170549 0)
(0.00801733 -0.0657842 0)
(0.0901626 -0.03468 0)
(0.01904 0.00561891 0)
(-0.0123467 -0.0212943 0)
(-0.0114699 0.00991223 0)
(-0.000440184 -0.0237396 0)
(-0.00709013 0.0890419 0)
(-0.00466599 -0.00730594 0)
(-0.000337191 0.03122 0)
(-0.000325943 -0.0856771 0)
(-0.00143032 -0.161195 0)
(-0.0405602 0.0420994 0)
(-0.0905692 0.0431583 0)
(-0.00903231 0.115134 0)
(0.00761022 0.157343 0)
(0.000514339 -0.0543876 0)
(-0.00283826 0.0162871 0)
(0.00530108 -0.129603 0)
(-0.042181 -0.198635 0)
(0.0110647 -0.0349911 0)
(-0.0528116 0.00877142 0)
(0.0158974 0.0834594 0)
(-0.0345132 -0.0234222 0)
(-0.098409 -0.0369814 0)
(-0.0086872 0.00278543 0)
(-0.0729266 0.0670205 0)
(0.202529 -0.00387983 0)
(-0.0585934 -0.132346 0)
(0.099951 0.0514372 0)
(0.0490161 0.162632 0)
(-3.334e-05 -0.235389 0)
(-0.0115689 -0.21996 0)
(-0.0742152 0.210696 0)
(-0.0681905 0.031546 0)
(0.0573904 0.115759 0)
(0.080366 0.077415 0)
(-0.0679054 0.0254385 0)
(-0.286681 -0.0808144 0)
(0.0231045 -0.25186 0)
(0.019585 -0.109348 0)
(-0.235118 0.164995 0)
(-0.0681451 0.0411128 0)
(0.0312028 0.0159452 0)
(0.162055 -0.0261318 0)
(0.0117104 -0.0932389 0)
(0.00116831 0.193102 0)
(-0.01839 0.160488 0)
(-0.0036389 -0.203723 0)
(-0.046943 -0.0871977 0)
(0.0147319 0.0525833 0)
(-0.0300332 0.0108402 0)
(0.0115422 -0.0248241 0)
(-0.0435209 -0.0178747 0)
(-0.00977912 0.126633 0)
(0.0293077 0.159293 0)
(0.0278123 -0.16228 0)
(0.00183359 -0.100398 0)
(-0.0668564 0.0823189 0)
(0.0306268 -0.0170409 0)
(-0.0777818 0.0595698 0)
(0.000183402 0.067289 0)
(0.0185122 -0.0213602 0)
(0.0672032 -0.0575075 0)
(-0.00410923 0.0420411 0)
(0.0174175 0.0957942 0)
(0.00232318 -0.00210652 0)
(0.00118264 -0.0893634 0)
(0.000317074 -0.153743 0)
(0.000889122 -0.0605808 0)
(0.0447538 -0.0595449 0)
(0.0640521 0.100586 0)
(0.00292356 0.191739 0)
(0.0810441 0.0380025 0)
(-0.0240179 -0.0251388 0)
(0.0725464 -0.124391 0)
(-0.0511176 -0.0133665 0)
(-0.0417291 0.0499288 0)
(0.019665 -0.0822412 0)
(-0.100772 0.156557 0)
(-0.106372 0.112179 0)
(-0.136087 -0.147261 0)
(-0.047058 0.0501672 0)
(0.103659 0.0677897 0)
(-0.0575819 -0.122107 0)
(0.0536931 -0.0254162 0)