/*--------------------------------*- C++ -*----------------------------------*\
| =========                 |                                                 |
| \\      /  F ield         | OpenFOAM: The Open Source CFD Toolbox           |
|  \\    /   O peration     | Version:  v2012                                 |
|   \\  /    A nd           | Website:  www.openfoam.com                      |
|    \\/     M anipulation  |                                                 |
\*---------------------------------------------------------------------------*/
FoamFile
{
    version     2.0;
    format      ascii;
    class       volVectorField;
    location    "0";
    object      uRec;
}
// * * * * * * * * * * * * * * * * * * * * * * * * * * * * * * * * * * * * * //

dimensions      [0 1 -1 0 0 0 0];


internalField   nonuniform List<vector> 
4000
(
(1 3.54875e-16 0)
(1 2.75534e-15 0)
(1 -2.05126e-15 0)
(1 -1.26213e-15 0)
(1 2.23489e-15 0)
(1 -4.1793e-16 0)
(1 3.40153e-15 0)
(1 -3.08124e-15 0)
(1 2.88255e-15 0)
(1 2.61707e-15 0)
(1 -4.56669e-15 0)
(1 9.5543e-17 0)
(1 1.20561e-15 0)
(1 6.25024e-16 0)
(1 -4.50842e-16 0)
(1 6.46669e-16 0)
(1 -2.73572e-15 0)
(1 -2.91738e-15 0)
(1 1.42958e-15 0)
(1 4.73549e-16 0)
(1 3.78758e-16 0)
(1 2.42967e-15 0)
(1 -2.04927e-17 0)
(1 3.08072e-15 0)
(1 -1.08817e-16 0)
(1 -1.39117e-15 0)
(1 1.84816e-15 0)
(1 -2.58164e-15 0)
(1 6.09893e-17 0)
(1 -7.91498e-17 0)
(1 1.78467e-15 0)
(1 3.18288e-15 0)
(1 -1.52343e-15 0)
(1 -8.69479e-16 0)
(1 5.15152e-16 0)
(1 -2.32031e-15 0)
(1 -1.89539e-15 0)
(1 6.77489e-16 0)
(1 3.20101e-15 0)
(1 -4.02146e-16 0)
(1 2.28918e-15 0)
(1 -2.58693e-15 0)
(1 -1.39905e-15 0)
(1 1.16914e-17 0)
(1 2.06219e-15 0)
(1 -2.341e-15 0)
(1 1.78611e-15 0)
(1 2.2213e-16 0)
(1 -8.28e-16 0)
(1 -3.70752e-16 0)
(1 -1.66134e-15 0)
(1 1.02933e-15 0)
(1 -2.00198e-16 0)
(1 3.17244e-15 0)
(1 1.62693e-15 0)
(1 4.42797e-16 0)
(1 1.54704e-17 0)
(1 -1.10463e-15 0)
(1 1.23608e-15 0)
(1 3.18501e-15 0)
(1 -4.97935e-16 0)
(1 -2.54886e-15 0)
(1 -1.15862e-15 0)
(1 1.10764e-15 0)
(1 4.69323e-16 0)
(1 3.94425e-16 0)
(1 4.19609e-16 0)
(1 -7.44385e-16 0)
(1 1.47907e-15 0)
(1 -1.03857e-15 0)
(1 -9.14725e-16 0)
(1 4.98224e-16 0)
(1 -1.52893e-16 0)
(1 -4.28526e-16 0)
(1 -1.3374e-15 0)
(1 -2.66425e-15 0)
(1 -4.88731e-16 0)
(1 -7.80873e-16 0)
(1 9.34903e-16 0)
(1 1.09743e-15 0)
(1 4.92637e-16 0)
(1 2.31568e-15 0)
(1 -1.39617e-15 0)
(1 2.85779e-16 0)
(1 -1.41343e-15 0)
(1 -1.88935e-15 0)
(1 -1.76246e-16 0)
(1 7.29234e-16 0)
(1 1.4623e-15 0)
(1 7.32213e-16 0)
(1 4.07238e-19 0)
(1 -1.49157e-15 0)
(1 9.65552e-16 0)
(1 2.05217e-15 0)
(1 -1.29244e-15 0)
(1 -2.70015e-15 0)
(1 2.93835e-16 0)
(1 2.01029e-15 0)
(1 -5.01249e-16 0)
(1 -3.03959e-16 0)
(1 2.91697e-16 0)
(1 5.84358e-15 0)
(1 -2.34218e-15 0)
(1 -2.7633e-15 0)
(1 -9.39378e-17 0)
(1 1.13332e-15 0)
(1 3.47874e-15 0)
(1 -3.51095e-15 0)
(1 3.26071e-15 0)
(1 1.82742e-15 0)
(1 -1.41134e-15 0)
(1 1.98901e-16 0)
(1 7.05781e-16 0)
(1 -1.26905e-15 0)
(1 -1.7924e-15 0)
(1 3.12373e-15 0)
(1 -1.4406e-15 0)
(1 -2.09184e-15 0)
(1 1.69094e-15 0)
(1 -1.39032e-16 0)
(1 -3.85752e-17 0)
(1 -2.80231e-16 0)
(1 -1.48572e-15 0)
(1 1.07882e-15 0)
(1 -8.27411e-17 0)
(1 3.23354e-16 0)
(1 4.86509e-15 0)
(1 -3.45828e-15 0)
(1 -1.1868e-15 0)
(1 1.62889e-15 0)
(1 -5.44618e-16 0)
(1 3.96059e-15 0)
(1 -2.83107e-15 0)
(1 -1.63739e-15 0)
(1 1.53753e-15 0)
(1 -2.53709e-15 0)
(1 -7.42115e-17 0)
(1 4.17611e-15 0)
(1 2.2298e-15 0)
(1 -1.52792e-15 0)
(1 -1.59445e-15 0)
(1 -3.81697e-15 0)
(1 -4.4447e-15 0)
(1 -1.85438e-15 0)
(1 1.82386e-16 0)
(1 -2.06408e-15 0)
(1 4.38325e-15 0)
(1 4.15108e-15 0)
(1 3.4094e-15 0)
(1 1.72465e-15 0)
(1 -3.26002e-16 0)
(1 -6.06911e-16 0)
(1 2.66473e-15 0)
(1 1.46913e-15 0)
(1 8.41827e-16 0)
(1 -1.20382e-15 0)
(1 3.28132e-16 0)
(1 2.88817e-15 0)
(1 1.04894e-15 0)
(1 -1.66174e-15 0)
(1 1.82014e-16 0)
(1 4.1395e-16 0)
(1 -8.21901e-16 0)
(1 1.25762e-15 0)
(1 -5.01507e-16 0)
(1 2.27889e-15 0)
(1 -2.5757e-15 0)
(1 -2.5781e-15 0)
(1 1.71478e-15 0)
(1 -1.31748e-15 0)
(1 -2.03617e-15 0)
(1 -9.49356e-17 0)
(1 1.82515e-15 0)
(1 -1.39122e-15 0)
(1 1.53021e-17 0)
(1 -4.85101e-16 0)
(1 6.62715e-16 0)
(1 2.25462e-15 0)
(1 1.37447e-16 0)
(1 2.11612e-15 0)
(1 -2.22452e-16 0)
(1 2.07812e-15 0)
(1 2.27584e-15 0)
(1 -1.76349e-15 0)
(1 -1.18407e-16 0)
(1 -2.48202e-15 0)
(1 -2.66399e-15 0)
(1 -1.07641e-15 0)
(1 8.03916e-16 0)
(1 2.39695e-15 0)
(1 -2.93339e-17 0)
(1 -2.29781e-15 0)
(1 3.43524e-15 0)
(1 2.37652e-15 0)
(1 -4.02508e-15 0)
(1 -3.10096e-15 0)
(1 1.67846e-15 0)
(1 9.62745e-16 0)
(1 -1.22965e-15 0)
(1 -9.87895e-16 0)
(1 4.48787e-16 0)
(1 2.96183e-15 0)
(1 5.45602e-17 0)
(1 -1.91751e-15 0)
(1 -1.02629e-15 0)
(1 1.14387e-15 0)
(1 2.82531e-15 0)
(1 6.63864e-15 0)
(1 -2.72958e-15 0)
(1 -2.26212e-15 0)
(1 1.15891e-15 0)
(1 3.77151e-15 0)
(1 2.13123e-15 0)
(1 -1.53488e-15 0)
(1 -8.80604e-16 0)
(1 4.73997e-16 0)
(1 1.87174e-15 0)
(1 1.92337e-15 0)
(1 -6.9556e-16 0)
(1 1.84244e-15 0)
(1 -1.98377e-16 0)
(1 -2.72609e-15 0)
(1 -2.05063e-15 0)
(1 -1.64197e-15 0)
(1 3.11468e-15 0)
(1 3.75446e-15 0)
(1 3.52744e-15 0)
(1 -3.37564e-15 0)
(1 -1.21449e-15 0)
(1 2.27278e-15 0)
(1 1.11843e-15 0)
(1 -1.76548e-15 0)
(1 5.84724e-16 0)
(1 1.92808e-15 0)
(1 -6.68251e-16 0)
(1 -7.16738e-16 0)
(1 -2.44113e-15 0)
(1 2.57225e-15 0)
(1 3.23225e-15 0)
(1 -3.86169e-15 0)
(1 -3.3319e-15 0)
(1 -1.95137e-15 0)
(1 -3.67888e-15 0)
(1 -3.74264e-15 0)
(1 -2.44493e-15 0)
(1 -4.19219e-16 0)
(1 -7.26976e-16 0)
(1 5.04422e-15 0)
(1 6.5876e-15 0)
(1 3.99759e-15 0)
(1 3.88034e-15 0)
(1 8.57778e-16 0)
(1 3.71844e-15 0)
(1 -3.14482e-15 0)
(1 2.94439e-17 0)
(1 -2.04087e-15 0)
(1 1.58926e-15 0)
(1 3.65496e-15 0)
(1 4.89589e-15 0)
(1 -2.52984e-16 0)
(1 -1.126e-15 0)
(1 1.00247e-15 0)
(1 1.42281e-15 0)
(1 -2.92903e-15 0)
(1 -1.23027e-15 0)
(1 3.57199e-16 0)
(1 -1.51089e-15 0)
(1 4.43666e-16 0)
(1 2.94582e-15 0)
(1 9.09914e-16 0)
(1 1.22463e-15 0)
(1 5.37916e-16 0)
(1 -6.59758e-16 0)
(1 -3.89914e-15 0)
(1 -1.16451e-15 0)
(1 -2.30557e-17 0)
(1 -2.37872e-16 0)
(1 1.41775e-15 0)
(1 1.22992e-15 0)
(1 -8.86825e-16 0)
(1 -2.55092e-15 0)
(1 -7.48989e-16 0)
(1 2.98899e-15 0)
(1 -1.56024e-15 0)
(1 -2.1868e-17 0)
(1 -2.94715e-16 0)
(1 -3.3759e-15 0)
(1 -1.64911e-15 0)
(1 -9.65696e-16 0)
(1 2.5091e-15 0)
(1 3.85319e-16 0)
(1 -1.97985e-16 0)
(1 -4.59853e-16 0)
(1 1.79935e-15 0)
(1 -2.3528e-15 0)
(1 -1.25373e-15 0)
(1 1.98611e-15 0)
(1 -2.89675e-15 0)
(1 1.12378e-16 0)
(1 2.92944e-17 0)
(1 3.04312e-16 0)
(1 2.69163e-15 0)
(1 2.13422e-15 0)
(1 -2.3539e-15 0)
(1 1.17537e-15 0)
(1 -2.52371e-15 0)
(1 2.18212e-15 0)
(1 7.44433e-15 0)
(1 -4.90166e-16 0)
(1 -6.52831e-16 0)
(1 -1.86159e-15 0)
(1 6.47481e-15 0)
(1 -9.81142e-16 0)
(1 -1.43743e-15 0)
(1 5.48769e-15 0)
(1 -3.34435e-15 0)
(1 1.76942e-15 0)
(1 -1.76826e-15 0)
(1 -4.2636e-15 0)
(1 5.68648e-15 0)
(1 -1.48584e-15 0)
(1 1.57559e-15 0)
(1 -5.99434e-16 0)
(1 -2.74937e-16 0)
(1 5.78204e-15 0)
(1 3.1245e-15 0)
(1 2.73689e-15 0)
(1 -1.68049e-15 0)
(1 -3.41276e-16 0)
(1 2.95595e-15 0)
(1 5.6434e-16 0)
(1 -3.356e-16 0)
(1 5.05785e-16 0)
(1 2.88747e-15 0)
(1 2.98918e-16 0)
(1 -1.55152e-15 0)
(1 -4.11444e-15 0)
(1 -3.52396e-15 0)
(1 2.82561e-15 0)
(1 5.79507e-16 0)
(1 1.53299e-15 0)
(1 -1.57877e-15 0)
(1 -4.27314e-15 0)
(1 -2.96845e-15 0)
(1 -1.19733e-15 0)
(1 7.87417e-16 0)
(1 -8.81634e-16 0)
(1 3.44521e-15 0)
(1 5.01866e-15 0)
(1 4.31206e-15 0)
(1 5.27095e-15 0)
(1 2.02125e-15 0)
(1 8.63863e-16 0)
(1 -2.16255e-16 0)
(1 1.65394e-15 0)
(1 -1.18021e-16 0)
(1 2.14667e-15 0)
(1 4.00277e-15 0)
(1 3.94698e-15 0)
(1 4.68751e-15 0)
(1 1.56514e-15 0)
(1 -2.26055e-15 0)
(1 -1.52038e-15 0)
(1 -3.40549e-16 0)
(1 -2.45689e-15 0)
(1 -6.94013e-16 0)
(1 -1.38013e-15 0)
(1 4.49152e-15 0)
(1 8.52004e-16 0)
(1 9.60449e-17 0)
(1 1.08406e-15 0)
(1 -7.1986e-17 0)
(1 -1.12379e-15 0)
(1 -2.59738e-15 0)
(1 -3.59307e-15 0)
(1 -7.97235e-16 0)
(1 2.88e-15 0)
(1 -2.28456e-16 0)
(1 2.24633e-15 0)
(1 2.25842e-15 0)
(1 -3.94608e-15 0)
(1 1.75161e-15 0)
(1 -5.27496e-16 0)
(1 2.20408e-16 0)
(1 1.597e-16 0)
(1 -2.47533e-15 0)
(1 -5.63352e-16 0)
(1 -1.85838e-15 0)
(1 1.85434e-17 0)
(1 1.1883e-15 0)
(1 -1.51759e-15 0)
(1 9.82372e-16 0)
(1 -6.91295e-16 0)
(1 1.51239e-15 0)
(1 9.24592e-16 0)
(1 -3.44506e-16 0)
(1 2.08375e-17 0)
(1 -1.25534e-16 0)
(1 -2.41182e-15 0)
(1 -2.17256e-15 0)
(1 6.74431e-16 0)
(1 -2.6593e-16 0)
(1 2.57322e-15 0)
(1 -1.92624e-15 0)
(1 -6.12381e-16 0)
(1 1.87989e-15 0)
(1 4.09615e-16 0)
(1 1.39169e-15 0)
(1 7.16637e-15 0)
(1 3.39029e-15 0)
(1 1.77741e-15 0)
(1 3.62222e-15 0)
(1 -1.88142e-15 0)
(1 -4.00859e-15 0)
(1 2.36669e-15 0)
(1 1.49352e-15 0)
(1 5.10412e-15 0)
(1 2.44601e-15 0)
(1 -1.03674e-15 0)
(1 -2.22642e-15 0)
(1 -2.29195e-15 0)
(1 1.54124e-16 0)
(1 3.0408e-15 0)
(1 4.27003e-15 0)
(1 -4.89375e-16 0)
(1 -1.61864e-15 0)
(1 -1.89896e-15 0)
(1 8.32637e-16 0)
(1 5.30185e-16 0)
(1 -1.29194e-15 0)
(1 1.54771e-15 0)
(1 3.12952e-15 0)
(1 -1.81488e-15 0)
(1 3.62025e-15 0)
(1 -2.30727e-15 0)
(1 -3.86174e-15 0)
(1 -1.7629e-15 0)
(1 -2.28878e-15 0)
(1 -5.28301e-17 0)
(1 2.43749e-15 0)
(1 1.10613e-15 0)
(1 -1.88993e-15 0)
(1 -5.29204e-15 0)
(1 -2.34099e-15 0)
(1 -3.70298e-15 0)
(1 1.93549e-15 0)
(1 4.20891e-15 0)
(1 7.14996e-15 0)
(1 4.42859e-15 0)
(1 3.00417e-15 0)
(1 3.23146e-15 0)
(1 1.85327e-16 0)
(1 -7.54355e-16 0)
(1 2.17155e-15 0)
(1 2.77166e-15 0)
(1 2.48338e-15 0)
(1 1.21929e-15 0)
(1 2.217e-15 0)
(1 -1.94055e-15 0)
(1 -1.76607e-15 0)
(1 4.55515e-15 0)
(1 -1.60548e-16 0)
(1 8.24652e-16 0)
(1 7.47263e-16 0)
(1 -3.38058e-16 0)
(1 1.15837e-16 0)
(1 2.34399e-16 0)
(1 3.80315e-15 0)
(1 -1.5746e-15 0)
(1 2.62212e-15 0)
(1 -3.28921e-16 0)
(1 -8.44489e-16 0)
(1 3.05442e-15 0)
(1 -6.47365e-16 0)
(1 -1.47983e-15 0)
(1 -1.04047e-15 0)
(1 3.42481e-15 0)
(1 3.21302e-15 0)
(1 1.45301e-15 0)
(1 -6.24549e-16 0)
(1 -2.19247e-15 0)
(1 1.34657e-16 0)
(1 -1.53535e-15 0)
(1 -1.07881e-15 0)
(1 6.15613e-16 0)
(1 -2.60013e-15 0)
(1 2.97412e-16 0)
(1 -1.26695e-15 0)
(1 -1.82647e-15 0)
(1 -4.96915e-16 0)
(1 -1.2683e-15 0)
(1 -8.08118e-16 0)
(1 1.72149e-15 0)
(1 -1.92261e-16 0)
(1 2.45413e-15 0)
(1 8.06693e-16 0)
(1 -1.04745e-15 0)
(1 4.58789e-16 0)
(1 -4.41578e-15 0)
(1 -1.84509e-15 0)
(1 -9.5541e-17 0)
(1 -3.65764e-15 0)
(1 2.68658e-15 0)
(1 2.64513e-15 0)
(1 1.01065e-16 0)
(1 2.27557e-15 0)
(1 3.67924e-16 0)
(1 2.51928e-15 0)
(1 3.96336e-15 0)
(1 3.69318e-15 0)
(1 6.56461e-15 0)
(1 1.29836e-15 0)
(1 -2.36765e-15 0)
(1 7.16207e-16 0)
(1 -8.19032e-16 0)
(1 2.22581e-15 0)
(1 2.21891e-16 0)
(1 1.75478e-15 0)
(1 1.14142e-15 0)
(1 -3.49915e-15 0)
(1 -1.24221e-16 0)
(1 -3.4373e-15 0)
(1 5.50119e-15 0)
(1 3.48845e-15 0)
(1 -1.2892e-15 0)
(1 2.08668e-15 0)
(1 -9.93562e-16 0)
(1 -8.81532e-17 0)
(1 -1.71342e-15 0)
(1 -2.21352e-16 0)
(1 1.15871e-17 0)
(1 1.819e-15 0)
(1 9.13923e-16 0)
(1 1.52352e-15 0)
(1 -5.06754e-15 0)
(1 -3.05471e-17 0)
(1 2.43933e-15 0)
(1 2.46697e-15 0)
(1 -1.49466e-15 0)
(1 -1.81611e-15 0)
(1 6.79963e-16 0)
(1 -8.05266e-16 0)
(1 -3.27411e-15 0)
(1 -4.19085e-15 0)
(1 -4.33925e-16 0)
(1 1.70087e-15 0)
(1 1.0301e-15 0)
(1 4.60734e-15 0)
(1 5.65827e-15 0)
(1 4.44654e-15 0)
(1 6.31338e-16 0)
(1 1.33454e-15 0)
(1 2.85066e-15 0)
(1 3.38957e-15 0)
(1 1.4398e-15 0)
(1 2.04815e-15 0)
(1 3.33658e-15 0)
(1 3.0642e-15 0)
(1 3.10433e-15 0)
(1 4.81334e-15 0)
(1 2.90248e-15 0)
(1 -1.76533e-15 0)
(1 -1.0596e-15 0)
(1 -1.93575e-15 0)
(1 1.74001e-15 0)
(1 1.23393e-15 0)
(1 5.76985e-15 0)
(1 2.03265e-15 0)
(1 1.56458e-15 0)
(1 1.37694e-15 0)
(1 2.20106e-15 0)
(1 1.36158e-15 0)
(1 2.58422e-15 0)
(1 -1.13131e-15 0)
(1 -2.48572e-15 0)
(1 -1.5502e-15 0)
(1 5.04621e-17 0)
(1 4.44728e-15 0)
(1 -5.68295e-17 0)
(1 -2.75648e-15 0)
(1 -8.76426e-16 0)
(1 5.64729e-16 0)
(1 -1.42121e-15 0)
(1 7.8569e-16 0)
(1 -9.04259e-16 0)
(1 -1.60084e-15 0)
(1 -1.53442e-15 0)
(1 -4.36603e-15 0)
(1 -3.8141e-15 0)
(1 -1.26632e-15 0)
(1 -4.03825e-16 0)
(1 -7.2999e-16 0)
(1 1.8438e-15 0)
(1 2.53624e-15 0)
(1 4.64824e-15 0)
(1 2.48229e-15 0)
(1 2.65483e-16 0)
(1 -3.65287e-15 0)
(1 -3.1989e-16 0)
(1 2.00739e-15 0)
(1 -1.58009e-15 0)
(1 -3.22479e-16 0)
(1 2.76854e-15 0)
(1 -1.77868e-16 0)
(1 3.93791e-15 0)
(1 -1.82562e-15 0)
(1 -2.22036e-17 0)
(1 5.39478e-15 0)
(1 1.41634e-15 0)
(1 2.68024e-15 0)
(1 5.79554e-15 0)
(1 -6.6805e-16 0)
(1 -2.36927e-16 0)
(1 3.77088e-15 0)
(1 5.04616e-16 0)
(1 5.71729e-15 0)
(1 3.56389e-15 0)
(1 -6.66737e-16 0)
(1 2.66946e-16 0)
(1 9.34199e-16 0)
(1 8.92349e-16 0)
(1 -8.32295e-15 0)
(1 4.09122e-15 0)
(1 -2.44998e-15 0)
(1 2.20599e-15 0)
(1 3.67308e-17 0)
(1 -7.70333e-16 0)
(1 -7.46643e-16 0)
(1 9.87392e-16 0)
(1 3.57239e-15 0)
(1 1.90543e-16 0)
(1 9.00005e-16 0)
(1 2.81318e-15 0)
(1 -2.94966e-15 0)
(1 -2.37841e-15 0)
(1 3.40675e-15 0)
(1 3.21435e-15 0)
(1 1.03921e-15 0)
(1 -5.79862e-15 0)
(1 -7.00192e-16 0)
(1 -2.11451e-15 0)
(1 -3.12154e-15 0)
(1 1.00781e-16 0)
(1 -1.1915e-15 0)
(1 1.81129e-15 0)
(1 2.48852e-15 0)
(1 3.74528e-15 0)
(1 6.1621e-16 0)
(1 2.81807e-15 0)
(1 4.83271e-15 0)
(1 1.85148e-15 0)
(1 1.587e-15 0)
(1 3.41728e-15 0)
(1 5.29197e-15 0)
(1 1.23944e-15 0)
(1 9.12107e-16 0)
(1 1.77706e-15 0)
(1 3.24539e-15 0)
(1 3.95398e-15 0)
(1 4.4299e-15 0)
(1 -1.51107e-15 0)
(1 9.36167e-16 0)
(1 -7.46688e-16 0)
(1 8.84964e-16 0)
(1 -3.36986e-17 0)
(1 -1.28653e-15 0)
(1 -3.90888e-16 0)
(1 2.88214e-15 0)
(1 3.08212e-15 0)
(1 -1.07062e-15 0)
(1 4.29556e-15 0)
(1 4.25275e-15 0)
(1 -1.8041e-16 0)
(1 -7.42279e-16 0)
(1 -1.31993e-15 0)
(1 2.52582e-15 0)
(1 -6.82027e-16 0)
(1 1.93768e-15 0)
(1 7.7802e-16 0)
(1 -8.11065e-17 0)
(1 6.35447e-16 0)
(1 3.85637e-16 0)
(1 5.65517e-16 0)
(1 4.02987e-16 0)
(1 -7.55585e-16 0)
(1 4.64708e-16 0)
(1 -1.76869e-15 0)
(1 -6.67119e-16 0)
(1 -2.24751e-16 0)
(1 -1.58109e-15 0)
(1 -1.11353e-15 0)
(1 5.15752e-16 0)
(1 2.61738e-15 0)
(1 2.65883e-15 0)
(1 1.41587e-15 0)
(1 3.28821e-15 0)
(1 -6.36754e-16 0)
(1 -1.65299e-15 0)
(1 1.88783e-15 0)
(1 9.69164e-16 0)
(1 -1.57211e-15 0)
(1 3.21093e-16 0)
(1 -3.98796e-16 0)
(1 6.56777e-16 0)
(1 3.96098e-15 0)
(1 1.28546e-15 0)
(1 -4.83917e-16 0)
(1 2.16205e-15 0)
(1 6.33799e-15 0)
(1 7.44308e-15 0)
(1 3.80373e-15 0)
(1 -4.82147e-15 0)
(1 2.99928e-15 0)
(1 -1.28585e-15 0)
(1 2.21509e-15 0)
(1 5.79428e-15 0)
(1 3.15797e-15 0)
(1 6.61928e-15 0)
(1 3.26557e-15 0)
(1 -3.55643e-15 0)
(1 -2.55405e-15 0)
(1 -6.67128e-15 0)
(1 -2.00606e-15 0)
(1 -8.24249e-17 0)
(1 -2.91092e-16 0)
(1 -5.33543e-15 0)
(1 -3.97211e-15 0)
(1 -6.11463e-16 0)
(1 1.3642e-15 0)
(1 2.88659e-15 0)
(1 8.30774e-15 0)
(1 7.86787e-16 0)
(1 1.47731e-15 0)
(1 -2.74345e-15 0)
(1 -9.49038e-16 0)
(1 -1.29937e-15 0)
(1 -1.72044e-15 0)
(1 -4.84439e-16 0)
(1 -3.09603e-16 0)
(1 3.56699e-15 0)
(1 -2.53773e-15 0)
(1 -1.14172e-15 0)
(1 3.11892e-15 0)
(1 -8.32961e-16 0)
(1 -1.91049e-15 0)
(1 3.33544e-15 0)
(1 5.40067e-15 0)
(1 4.73865e-15 0)
(1 -1.24941e-15 0)
(1 2.3455e-15 0)
(1 4.9632e-15 0)
(1 2.4441e-15 0)
(1 -1.33874e-15 0)
(1 4.34671e-15 0)
(1 6.09788e-15 0)
(1 7.03623e-15 0)
(1 1.84704e-15 0)
(1 -5.71989e-16 0)
(1 4.74332e-15 0)
(1 -1.32129e-15 0)
(1 -4.8184e-15 0)
(1 2.49027e-15 0)
(1 4.68655e-15 0)
(1 4.35951e-15 0)
(1 6.23333e-16 0)
(1 2.44632e-15 0)
(1 2.59024e-15 0)
(1 -2.25384e-16 0)
(1 3.35181e-15 0)
(1 3.04674e-15 0)
(1 4.17061e-15 0)
(1 2.5371e-15 0)
(1 7.91075e-16 0)
(1 -1.49918e-15 0)
(1 -4.71795e-16 0)
(1 4.16022e-15 0)
(1 1.15107e-15 0)
(1 -1.29776e-15 0)
(1 -1.73267e-15 0)
(1 -2.78085e-15 0)
(1 1.729e-15 0)
(1 -1.99798e-15 0)
(1 1.05443e-15 0)
(1 1.52806e-15 0)
(1 -4.09201e-15 0)
(1 -2.03847e-16 0)
(1 -1.29203e-16 0)
(1 1.57206e-15 0)
(1 1.27187e-15 0)
(1 -5.47783e-15 0)
(1 -2.37686e-15 0)
(1 1.37175e-15 0)
(1 1.68814e-15 0)
(1 2.95123e-15 0)
(1 2.5256e-15 0)
(1 3.05751e-15 0)
(1 -2.7416e-15 0)
(1 -1.60309e-15 0)
(1 1.82773e-15 0)
(1 2.26998e-15 0)
(1 -1.32782e-16 0)
(1 -4.41147e-16 0)
(1 -5.07005e-16 0)
(1 1.34446e-15 0)
(1 4.01811e-16 0)
(1 4.12487e-15 0)
(1 1.95396e-16 0)
(1 -1.69087e-15 0)
(1 4.57012e-15 0)
(1 3.65131e-15 0)
(1 2.76509e-15 0)
(1 8.47677e-16 0)
(1 7.25162e-16 0)
(1 2.51663e-15 0)
(1 3.75813e-15 0)
(1 3.80115e-15 0)
(1 1.47544e-15 0)
(1 4.39984e-15 0)
(1 5.40749e-15 0)
(1 -2.53153e-15 0)
(1 -6.99869e-15 0)
(1 -9.39089e-16 0)
(1 -4.14895e-15 0)
(1 7.11365e-16 0)
(1 -1.47033e-16 0)
(1 -3.36025e-15 0)
(1 5.394e-16 0)
(1 -3.72261e-15 0)
(1 -2.18033e-15 0)
(1 3.2348e-15 0)
(1 3.88758e-15 0)
(1 -1.3638e-15 0)
(1 1.89146e-15 0)
(1 6.51474e-16 0)
(1 -1.62601e-15 0)
(1 -1.61692e-15 0)
(1 -1.41102e-15 0)
(1 2.26469e-15 0)
(1 2.11449e-15 0)
(1 1.91735e-15 0)
(1 -2.69176e-15 0)
(1 1.53933e-15 0)
(1 2.43364e-15 0)
(1 6.36651e-16 0)
(1 3.67626e-15 0)
(1 -1.1774e-15 0)
(1 2.75073e-15 0)
(1 2.83367e-15 0)
(1 -2.18997e-15 0)
(1 3.93769e-16 0)
(1 2.54026e-15 0)
(1 4.87061e-15 0)
(1 9.93278e-16 0)
(1 5.25469e-15 0)
(1 7.91963e-15 0)
(1 5.70458e-15 0)
(1 5.04048e-15 0)
(1 4.44548e-16 0)
(1 5.44683e-15 0)
(1 8.46481e-16 0)
(1 2.41752e-15 0)
(1 2.26581e-15 0)
(1 -5.74352e-16 0)
(1 5.137e-15 0)
(1 -4.44234e-15 0)
(1 4.27934e-15 0)
(1 3.37622e-15 0)
(1 -2.49489e-15 0)
(1 7.66476e-15 0)
(1 6.00221e-15 0)
(1 5.63824e-15 0)
(1 -3.59771e-16 0)
(1 1.86877e-15 0)
(1 -7.39742e-17 0)
(1 -1.34133e-15 0)
(1 2.51167e-15 0)
(1 9.26543e-17 0)
(1 -8.19222e-16 0)
(1 -2.71429e-15 0)
(1 2.89842e-15 0)
(1 2.32424e-15 0)
(1 3.02926e-15 0)
(1 -4.23568e-16 0)
(1 1.21496e-15 0)
(1 -4.29501e-15 0)
(1 -4.07948e-15 0)
(1 -3.18153e-15 0)
(1 -7.11722e-16 0)
(1 -1.29726e-16 0)
(1 -9.34873e-16 0)
(1 -9.76865e-16 0)
(1 1.16986e-15 0)
(1 2.33961e-15 0)
(1 4.64549e-15 0)
(1 4.74045e-15 0)
(1 2.98377e-15 0)
(1 -4.75543e-17 0)
(1 -1.15782e-15 0)
(1 3.97076e-15 0)
(1 4.82254e-15 0)
(1 5.04773e-16 0)
(1 4.39599e-16 0)
(1 1.89021e-15 0)
(1 -1.37645e-15 0)
(1 1.7861e-15 0)
(1 -8.35874e-16 0)
(1 2.9117e-15 0)
(1 2.60111e-15 0)
(1 2.69334e-15 0)
(1 3.05871e-15 0)
(1 1.27679e-15 0)
(1 9.9161e-15 0)
(1 3.38732e-15 0)
(1 3.33e-15 0)
(1 3.02893e-15 0)
(1 -3.16809e-16 0)
(1 -1.03842e-15 0)
(1 3.8368e-16 0)
(1 4.81329e-16 0)
(1 2.47349e-15 0)
(1 -2.14384e-15 0)
(1 2.85476e-17 0)
(1 -6.0665e-15 0)
(1 -2.95018e-15 0)
(1 1.39395e-15 0)
(1 2.45697e-15 0)
(1 -1.30178e-15 0)
(1 -2.45989e-15 0)
(1 1.41853e-15 0)
(1 -1.90749e-15 0)
(1 -2.81644e-15 0)
(1 2.02596e-15 0)
(1 1.37997e-15 0)
(1 2.19642e-15 0)
(1 1.91776e-15 0)
(1 -7.84745e-16 0)
(1 -4.23318e-15 0)
(1 -1.76182e-15 0)
(1 -2.3996e-15 0)
(1 -3.08651e-15 0)
(1 -1.83722e-15 0)
(1 2.78209e-15 0)
(1 2.51706e-15 0)
(1 3.57017e-15 0)
(1 6.48687e-15 0)
(1 1.21222e-15 0)
(1 1.03134e-15 0)
(1 3.85342e-16 0)
(1 1.71431e-15 0)
(1 3.15313e-15 0)
(1 -3.80591e-16 0)
(1 -1.62893e-16 0)
(1 3.87585e-15 0)
(1 6.26165e-15 0)
(1 8.05139e-15 0)
(1 4.80967e-15 0)
(1 1.44197e-15 0)
(1 -1.24854e-15 0)
(1 2.7401e-15 0)
(1 3.7739e-15 0)
(1 5.086e-15 0)
(1 6.34367e-15 0)
(1 1.653e-15 0)
(1 2.20089e-15 0)
(1 3.53829e-15 0)
(1 -5.2432e-16 0)
(1 2.34154e-15 0)
(1 2.18879e-15 0)
(1 4.34614e-15 0)
(1 4.46851e-15 0)
(1 5.33749e-15 0)
(1 2.89648e-15 0)
(1 4.44344e-16 0)
(1 6.92944e-16 0)
(1 1.0045e-15 0)
(1 7.44032e-16 0)
(1 9.43664e-16 0)
(1 -1.467e-15 0)
(1 3.77434e-16 0)
(1 5.38386e-16 0)
(1 1.64163e-15 0)
(1 1.49401e-15 0)
(1 -5.05235e-16 0)
(1 1.18733e-16 0)
(1 -2.21181e-15 0)
(1 -4.00383e-15 0)
(1 -3.56646e-16 0)
(1 1.79429e-16 0)
(1 -2.26303e-15 0)
(1 -7.51359e-16 0)
(1 2.95785e-15 0)
(1 -7.8993e-16 0)
(1 2.6741e-15 0)
(1 -1.89901e-15 0)
(1 6.14072e-15 0)
(1 1.53228e-15 0)
(1 9.36811e-16 0)
(1 3.26802e-15 0)
(1 3.95491e-15 0)
(1 4.5053e-15 0)
(1 -6.72742e-17 0)
(1 -3.39355e-16 0)
(1 1.57682e-15 0)
(1 3.04571e-15 0)
(1 -3.40326e-16 0)
(1 -2.89998e-15 0)
(1 4.35462e-15 0)
(1 2.25833e-15 0)
(1 4.95233e-15 0)
(1 5.14132e-15 0)
(1 -9.91433e-16 0)
(1 6.31194e-15 0)
(1 1.08195e-15 0)
(1 1.79746e-15 0)
(1 -1.34511e-16 0)
(1 -4.42653e-15 0)
(1 -3.48432e-16 0)
(1 1.33951e-15 0)
(1 3.15478e-15 0)
(1 2.77058e-15 0)
(1 -3.2339e-15 0)
(1 -1.79749e-15 0)
(1 -6.50045e-15 0)
(1 -7.40703e-16 0)
(1 -5.35709e-15 0)
(1 8.7815e-15 0)
(1 5.82273e-15 0)
(1 5.30372e-15 0)
(1 2.81603e-15 0)
(1 -6.12532e-15 0)
(1 -4.99491e-15 0)
(1 4.63809e-16 0)
(1 -2.213e-15 0)
(1 -7.94042e-16 0)
(1 2.90058e-15 0)
(1 -1.7744e-15 0)
(1 -1.22292e-15 0)
(1 -5.68426e-15 0)
(1 -3.44938e-15 0)
(1 -2.14767e-15 0)
(1 6.39335e-15 0)
(1 2.60815e-15 0)
(1 8.84768e-16 0)
(1 3.72264e-16 0)
(1 3.06823e-15 0)
(1 2.9055e-15 0)
(1 8.10327e-16 0)
(1 1.26376e-15 0)
(1 6.90684e-15 0)
(1 3.12368e-15 0)
(1 2.84045e-17 0)
(1 8.8956e-16 0)
(1 5.16161e-15 0)
(1 6.85757e-15 0)
(1 7.18765e-15 0)
(1 4.81352e-15 0)
(1 4.68333e-15 0)
(1 7.04132e-16 0)
(1 5.08882e-15 0)
(1 2.18885e-15 0)
(1 4.06611e-15 0)
(1 2.83654e-15 0)
(1 3.08409e-15 0)
(1 5.66939e-16 0)
(1 6.09242e-15 0)
(1 2.66811e-15 0)
(1 2.20752e-15 0)
(1 4.09088e-15 0)
(1 -3.58175e-15 0)
(1 -5.55655e-16 0)
(1 2.88241e-15 0)
(1 4.55236e-15 0)
(1 2.48417e-15 0)
(1 1.64682e-15 0)
(1 -8.58225e-16 0)
(1 -4.13823e-15 0)
(1 4.56393e-15 0)
(1 -4.17753e-16 0)
(1 -3.20498e-15 0)
(1 -8.31019e-16 0)
(1 3.42411e-15 0)
(1 2.18978e-15 0)
(1 7.08681e-15 0)
(1 -3.12441e-16 0)
(1 -2.2554e-15 0)
(1 -2.1207e-16 0)
(1 1.03713e-16 0)
(1 -4.05797e-15 0)
(1 -2.98603e-15 0)
(1 -4.73428e-15 0)
(1 5.25514e-15 0)
(1 -6.36069e-16 0)
(1 5.29511e-16 0)
(1 -6.62574e-17 0)
(1 2.62483e-15 0)
(1 3.71745e-15 0)
(1 2.68896e-15 0)
(1 5.89935e-15 0)
(1 5.6767e-16 0)
(1 1.60201e-15 0)
(1 -4.40111e-16 0)
(1 1.0083e-15 0)
(1 7.25637e-16 0)
(1 3.60386e-15 0)
(1 -2.79504e-15 0)
(1 2.22033e-15 0)
(1 -1.17676e-15 0)
(1 2.20521e-15 0)
(1 4.07956e-15 0)
(1 5.4006e-15 0)
(1 4.41045e-15 0)
(1 -1.46092e-15 0)
(1 -1.56054e-15 0)
(1 1.31184e-15 0)
(1 2.68789e-15 0)
(1 1.02565e-15 0)
(1 2.25045e-15 0)
(1 -2.18961e-15 0)
(1 3.70746e-15 0)
(1 1.22929e-15 0)
(1 -3.36252e-15 0)
(1 3.08364e-17 0)
(1 -1.57587e-15 0)
(1 -2.36751e-15 0)
(1 -6.56305e-16 0)
(1 -1.06438e-15 0)
(1 3.88683e-15 0)
(1 2.44432e-15 0)
(1 2.2651e-15 0)
(1 -2.06e-15 0)
(1 6.45327e-16 0)
(1 1.38921e-15 0)
(1 -4.39151e-15 0)
(1 -5.2109e-15 0)
(1 -4.25423e-15 0)
(1 -1.00506e-15 0)
(1 9.3894e-16 0)
(1 -6.41471e-15 0)
(1 -7.84786e-16 0)
(1 -1.81365e-16 0)
(1 5.22155e-15 0)
(1 3.95462e-17 0)
(1 -3.7364e-15 0)
(1 1.25391e-15 0)
(1 6.29176e-15 0)
(1 2.76167e-15 0)
(1 5.51281e-15 0)
(1 -9.51453e-16 0)
(1 3.56899e-15 0)
(1 3.48975e-15 0)
(1 1.20562e-15 0)
(1 3.31535e-15 0)
(1 4.23301e-15 0)
(1 5.95153e-15 0)
(1 5.25566e-15 0)
(1 -1.79121e-15 0)
(1 3.34401e-15 0)
(1 3.87695e-15 0)
(1 4.01115e-15 0)
(1 1.54618e-15 0)
(1 5.48318e-15 0)
(1 4.54572e-15 0)
(1 7.54109e-15 0)
(1 3.64554e-15 0)
(1 -2.76405e-16 0)
(1 2.42766e-15 0)
(1 2.11555e-16 0)
(1 1.91302e-15 0)
(1 9.36544e-16 0)
(1 -8.58538e-16 0)
(1 4.52358e-15 0)
(1 2.84059e-15 0)
(1 -2.10149e-15 0)
(1 9.9582e-16 0)
(1 2.56771e-15 0)
(1 -2.35571e-15 0)
(1 7.03531e-16 0)
(1 -1.24364e-15 0)
(1 -1.68818e-15 0)
(1 2.25021e-15 0)
(1 4.93592e-15 0)
(1 1.81378e-15 0)
(1 3.72977e-15 0)
(1 -2.86129e-15 0)
(1 -1.15372e-15 0)
(1 2.42627e-15 0)
(1 -3.50826e-15 0)
(1 -3.81898e-15 0)
(1 -1.2917e-15 0)
(1 3.46868e-15 0)
(1 3.71955e-15 0)
(1 7.39098e-16 0)
(1 -2.46771e-15 0)
(1 1.69174e-15 0)
(1 -7.86067e-16 0)
(1 5.6799e-15 0)
(1 3.95995e-15 0)
(1 5.00439e-15 0)
(1 3.88525e-16 0)
(1 -9.66938e-16 0)
(1 7.13906e-16 0)
(1 1.23927e-15 0)
(1 -9.94652e-17 0)
(1 1.44489e-17 0)
(1 2.51485e-15 0)
(1 2.1711e-15 0)
(1 2.11515e-15 0)
(1 2.36884e-15 0)
(1 3.1055e-16 0)
(1 6.1021e-15 0)
(1 8.04458e-15 0)
(1 -2.23228e-16 0)
(1 -1.38917e-15 0)
(1 -1.72949e-15 0)
(1 2.52988e-15 0)
(1 -1.30113e-15 0)
(1 -1.94475e-15 0)
(1 -3.21335e-15 0)
(1 2.1275e-15 0)
(1 8.19107e-16 0)
(1 4.64318e-15 0)
(1 5.71734e-15 0)
(1 -7.36725e-16 0)
(1 -8.98949e-15 0)
(1 6.96302e-15 0)
(1 -2.31657e-15 0)
(1 -3.56458e-15 0)
(1 -2.58539e-15 0)
(1 -3.46778e-16 0)
(1 1.91621e-15 0)
(1 -1.67984e-15 0)
(1 1.11106e-15 0)
(1 -4.44011e-15 0)
(1 -4.23777e-15 0)
(1 1.48542e-15 0)
(1 -6.43544e-16 0)
(1 1.64439e-15 0)
(1 -3.94062e-15 0)
(1 -7.48941e-16 0)
(1 1.53143e-15 0)
(1 2.71545e-16 0)
(1 1.19857e-15 0)
(1 -3.84187e-15 0)
(1 2.83368e-15 0)
(1 4.21473e-16 0)
(1 5.60948e-15 0)
(1 6.0447e-15 0)
(1 1.87873e-15 0)
(1 -1.51101e-15 0)
(1 1.55889e-15 0)
(1 3.81226e-15 0)
(1 1.90771e-15 0)
(1 7.91355e-15 0)
(1 6.97952e-15 0)
(1 4.20584e-15 0)
(1 4.41539e-15 0)
(1 2.31895e-15 0)
(1 6.29535e-15 0)
(1 -1.97107e-15 0)
(1 1.67848e-15 0)
(1 4.5685e-16 0)
(1 3.53268e-15 0)
(1 5.05328e-15 0)
(1 5.1274e-15 0)
(1 4.31947e-15 0)
(1 2.30835e-15 0)
(1 3.9107e-15 0)
(1 2.22404e-15 0)
(1 7.49493e-16 0)
(1 9.85599e-16 0)
(1 -3.69303e-15 0)
(1 1.25973e-15 0)
(1 6.32865e-16 0)
(1 1.68861e-15 0)
(1 2.66226e-15 0)
(1 1.9295e-15 0)
(1 -2.66352e-15 0)
(1 -3.17393e-16 0)
(1 5.19749e-15 0)
(1 4.42136e-16 0)
(1 -1.24652e-15 0)
(1 -2.64261e-15 0)
(1 -1.81065e-15 0)
(1 -9.91665e-16 0)
(1 1.17037e-15 0)
(1 8.58899e-16 0)
(1 -1.93931e-15 0)
(1 9.49658e-16 0)
(1 -8.38725e-16 0)
(1 4.27331e-15 0)
(1 -1.23955e-15 0)
(1 -7.11177e-17 0)
(1 1.51413e-15 0)
(1 -1.64598e-15 0)
(1 2.1676e-15 0)
(1 3.81666e-15 0)
(1 -3.63014e-16 0)
(1 1.19938e-15 0)
(1 4.11098e-16 0)
(1 -7.86377e-16 0)
(1 2.44569e-16 0)
(1 6.17036e-16 0)
(1 -8.17353e-16 0)
(1 1.66312e-15 0)
(1 4.07681e-15 0)
(1 4.97267e-15 0)
(1 3.5831e-15 0)
(1 7.68654e-16 0)
(1 -2.21798e-15 0)
(1 5.15525e-16 0)
(1 3.66406e-15 0)
(1 4.46713e-15 0)
(1 3.03347e-15 0)
(1 7.66957e-16 0)
(1 -2.18487e-15 0)
(1 -1.08008e-15 0)
(1 -3.42485e-15 0)
(1 5.48855e-16 0)
(1 -2.14013e-15 0)
(1 -2.1274e-15 0)
(1 5.47556e-15 0)
(1 3.23362e-15 0)
(1 2.42397e-15 0)
(1 -4.10764e-15 0)
(1 -2.26366e-15 0)
(1 5.62121e-16 0)
(1 6.65615e-16 0)
(1 -2.54399e-15 0)
(1 2.48812e-15 0)
(1 1.14333e-15 0)
(1 -9.33512e-16 0)
(1 -6.12019e-15 0)
(1 -1.16304e-15 0)
(1 9.28866e-16 0)
(1 -3.10925e-15 0)
(1 -5.28193e-15 0)
(1 2.55398e-16 0)
(1 -3.31484e-15 0)
(1 1.99568e-15 0)
(1 2.10544e-16 0)
(1 -1.7272e-15 0)
(1 -1.14863e-15 0)
(1 6.73876e-15 0)
(1 6.53546e-15 0)
(1 6.20657e-16 0)
(1 4.77649e-15 0)
(1 -2.06898e-15 0)
(1 6.90999e-15 0)
(1 -7.83652e-16 0)
(1 -1.51294e-15 0)
(1 -1.58737e-15 0)
(1 -1.37707e-15 0)
(1 7.40102e-15 0)
(1 7.19916e-15 0)
(1 1.0795e-15 0)
(1 8.35164e-15 0)
(1 4.33382e-15 0)
(1 4.20292e-15 0)
(1 2.02379e-15 0)
(1 1.68899e-15 0)
(1 2.61356e-15 0)
(1 1.07848e-15 0)
(1 3.58127e-16 0)
(1 5.69808e-15 0)
(1 5.54615e-15 0)
(1 2.89429e-15 0)
(1 3.86979e-15 0)
(1 3.46269e-15 0)
(1 7.6267e-16 0)
(1 1.72759e-15 0)
(1 -2.48971e-15 0)
(1 4.82608e-15 0)
(1 4.79177e-15 0)
(1 1.97528e-15 0)
(1 -4.86785e-16 0)
(1 3.8326e-15 0)
(1 -3.00862e-17 0)
(1 3.42717e-15 0)
(1 1.91643e-15 0)
(1 -4.17792e-15 0)
(1 -8.10497e-16 0)
(1 5.24441e-16 0)
(1 -3.70477e-15 0)
(1 9.56734e-16 0)
(1 7.37347e-16 0)
(1 -1.41023e-15 0)
(1 -2.76542e-15 0)
(1 1.41872e-15 0)
(1 1.3311e-15 0)
(1 1.65922e-15 0)
(1 1.52348e-16 0)
(1 -1.12979e-15 0)
(1 1.68774e-15 0)
(1 3.2248e-15 0)
(1 1.17207e-15 0)
(1 1.22004e-15 0)
(1 -4.85358e-16 0)
(1 4.11749e-15 0)
(1 2.85779e-16 0)
(1 -2.64346e-15 0)
(1 -1.34188e-16 0)
(1 3.18361e-15 0)
(1 2.93822e-16 0)
(1 5.2579e-15 0)
(1 7.03536e-16 0)
(1 5.01374e-15 0)
(1 -2.50351e-15 0)
(1 5.99478e-16 0)
(1 3.0055e-15 0)
(1 -1.48468e-15 0)
(1 4.91766e-15 0)
(1 5.29694e-15 0)
(1 4.02958e-15 0)
(1 -4.89395e-15 0)
(1 -6.82031e-15 0)
(1 8.13215e-16 0)
(1 -8.88606e-15 0)
(1 7.1442e-15 0)
(1 -1.61059e-15 0)
(1 1.97495e-15 0)
(1 6.37116e-15 0)
(1 -2.17076e-15 0)
(1 2.33768e-15 0)
(1 2.37612e-15 0)
(1 -4.88522e-15 0)
(1 -3.93238e-15 0)
(1 -3.39969e-15 0)
(1 -3.03443e-16 0)
(1 1.21279e-15 0)
(1 -1.29467e-15 0)
(1 -2.02783e-15 0)
(1 -1.11696e-15 0)
(1 -3.35202e-16 0)
(1 -1.97171e-15 0)
(1 -2.81607e-15 0)
(1 -1.60454e-15 0)
(1 -5.31908e-15 0)
(1 -9.26457e-16 0)
(1 2.13027e-15 0)
(1 -9.552e-16 0)
(1 -1.24026e-15 0)
(1 3.30438e-16 0)
(1 8.65914e-15 0)
(1 2.69219e-15 0)
(1 5.33311e-15 0)
(1 2.59405e-15 0)
(1 -5.86162e-15 0)
(1 3.81139e-15 0)
(1 -4.35822e-16 0)
(1 -3.28683e-15 0)
(1 -1.0825e-15 0)
(1 3.72079e-15 0)
(1 5.45581e-15 0)
(1 5.08052e-15 0)
(1 4.4157e-15 0)
(1 7.71368e-15 0)
(1 2.80826e-15 0)
(1 5.13663e-15 0)
(1 4.74923e-15 0)
(1 2.33975e-15 0)
(1 5.02502e-15 0)
(1 2.48207e-16 0)
(1 4.6689e-15 0)
(1 3.15698e-15 0)
(1 6.06606e-15 0)
(1 5.54451e-15 0)
(1 4.83474e-15 0)
(1 3.32926e-15 0)
(1 3.44365e-15 0)
(1 1.864e-15 0)
(1 3.69585e-15 0)
(1 2.19686e-15 0)
(1 7.86304e-16 0)
(1 1.08618e-15 0)
(1 -6.65267e-16 0)
(1 1.84202e-15 0)
(1 5.181e-16 0)
(1 4.58741e-15 0)
(1 -1.00198e-15 0)
(1 -5.47693e-15 0)
(1 5.7967e-16 0)
(1 1.0625e-15 0)
(1 -2.85055e-15 0)
(1 9.39625e-16 0)
(1 -6.60452e-16 0)
(1 -2.13883e-15 0)
(1 -2.844e-15 0)
(1 1.47016e-15 0)
(1 7.8213e-16 0)
(1 -1.89093e-15 0)
(1 -9.89358e-17 0)
(1 -1.13496e-15 0)
(1 1.22538e-15 0)
(1 2.78429e-15 0)
(1 3.10691e-15 0)
(1 -6.12673e-16 0)
(1 -1.74726e-15 0)
(1 2.30107e-15 0)
(1 2.10503e-15 0)
(1 1.67288e-15 0)
(1 -1.92625e-16 0)
(1 3.26656e-15 0)
(1 1.31768e-15 0)
(1 1.77831e-15 0)
(1 2.37825e-15 0)
(1 3.22991e-15 0)
(1 1.42349e-15 0)
(1 1.84567e-15 0)
(1 4.15382e-15 0)
(1 1.83757e-15 0)
(1 -1.23231e-15 0)
(1 -1.0974e-16 0)
(1 1.83664e-15 0)
(1 -5.60835e-16 0)
(1 -1.41987e-15 0)
(1 -8.76083e-16 0)
(1 -3.81936e-15 0)
(1 2.84857e-16 0)
(1 3.52181e-15 0)
(1 5.27075e-16 0)
(1 -1.70451e-15 0)
(1 -1.03606e-15 0)
(1 1.004e-15 0)
(1 1.43706e-15 0)
(1 -4.26702e-15 0)
(1 -2.39554e-15 0)
(1 -5.10912e-16 0)
(1 5.49868e-15 0)
(1 -4.76169e-15 0)
(1 -1.29001e-15 0)
(1 -4.00037e-15 0)
(1 -3.7912e-17 0)
(1 -1.17319e-15 0)
(1 -3.90859e-15 0)
(1 6.74622e-17 0)
(1 -1.72909e-15 0)
(1 -2.59023e-15 0)
(1 -8.00754e-16 0)
(1 -2.43057e-15 0)
(1 -9.66081e-16 0)
(1 1.97205e-15 0)
(1 6.14032e-15 0)
(1 1.44074e-15 0)
(1 3.36589e-15 0)
(1 3.63235e-16 0)
(1 -4.42421e-16 0)
(1 1.80899e-15 0)
(1 -7.2679e-16 0)
(1 -2.63482e-15 0)
(1 -8.47611e-15 0)
(1 2.24902e-15 0)
(1 8.17096e-15 0)
(1 7.20925e-15 0)
(1 3.50992e-15 0)
(1 8.3046e-15 0)
(1 7.59627e-15 0)
(1 3.08383e-15 0)
(1 3.37909e-15 0)
(1 1.01663e-15 0)
(1 1.39454e-15 0)
(1 1.36838e-15 0)
(1 1.9641e-15 0)
(1 2.70405e-15 0)
(1 -3.08225e-15 0)
(1 6.34873e-15 0)
(1 5.37609e-15 0)
(1 5.49137e-15 0)
(1 4.24172e-15 0)
(1 3.12314e-15 0)
(1 2.29255e-15 0)
(1 1.63832e-15 0)
(1 -3.74384e-15 0)
(1 -6.62129e-17 0)
(1 3.58973e-15 0)
(1 1.36164e-16 0)
(1 2.02831e-16 0)
(1 8.05543e-16 0)
(1 1.63014e-15 0)
(1 -5.92602e-16 0)
(1 1.96595e-15 0)
(1 -3.72338e-15 0)
(1 -3.81679e-15 0)
(1 1.03208e-15 0)
(1 -1.57241e-15 0)
(1 -2.32576e-15 0)
(1 -3.57398e-15 0)
(1 -3.78974e-16 0)
(1 2.76649e-15 0)
(1 2.8848e-15 0)
(1 -5.69316e-16 0)
(1 4.24286e-16 0)
(1 1.25195e-15 0)