/*--------------------------------*- C++ -*----------------------------------*\
| =========                 |                                                 |
| \\      /  F ield         | OpenFOAM: The Open Source CFD Toolbox           |
|  \\    /   O peration     | Version:  v2012                                 |
|   \\  /    A nd           | Website:  www.openfoam.com                      |
|    \\/     M anipulation  |                                                 |
\*---------------------------------------------------------------------------*/
FoamFile
{
    version     2.0;
    format      ascii;
    class       volScalarField;
    location    "0";
    object      p;
}
// * * * * * * * * * * * * * * * * * * * * * * * * * * * * * * * * * * * * * //

dimensions      [0 2 -2 0 0 0 0];


internalField   nonuniform List<scalar> 
4000
(
-3.80854e-13
-3.84499e-13
-3.80197e-13
-3.8595e-13
-3.90323e-13
-3.83701e-13
-3.74705e-13
-3.80552e-13
-3.91983e-13
-3.9387e-13
-3.89912e-13
-3.90854e-13
-3.85589e-13
-3.93113e-13
-4.03035e-13
-3.95996e-13
-3.88514e-13
-3.8725e-13
-3.98668e-13
-4.05069e-13
-4.02099e-13
-4.00255e-13
-4.01773e-13
-4.02793e-13
-4.04932e-13
-3.99078e-13
-3.96683e-13
-3.92023e-13
-3.9564e-13
-4.05471e-13
-4.03785e-13
-3.97088e-13
-3.93684e-13
-3.91202e-13
-3.888e-13
-3.82493e-13
-3.863e-13
-3.92551e-13
-3.98264e-13
-3.86788e-13
-3.797e-13
-3.65196e-13
-3.51267e-13
-3.49807e-13
-3.58708e-13
-3.57364e-13
-3.45416e-13
-3.40735e-13
-3.38343e-13
-3.3354e-13
-3.24222e-13
-3.20592e-13
-3.18998e-13
-3.10431e-13
-2.9723e-13
-2.9861e-13
-2.87969e-13
-2.74523e-13
-2.68488e-13
-2.57722e-13
-2.52445e-13
-2.4402e-13
-2.35007e-13
-2.29303e-13
-2.19568e-13
-2.11141e-13
-2.0789e-13
-1.994e-13
-1.94877e-13
-1.90263e-13
-1.77384e-13
-1.80859e-13
-1.82378e-13
-1.75938e-13
-1.70543e-13
-1.57935e-13
-1.42886e-13
-1.40597e-13
-1.38391e-13
-1.3596e-13
-1.33604e-13
-1.31123e-13
-1.2152e-13
-1.15752e-13
-9.88857e-14
-8.85071e-14
-8.98984e-14
-8.80989e-14
-8.14039e-14
-7.83397e-14
-5.89682e-14
-4.4518e-14
-3.8318e-14
-4.24346e-14
-3.58999e-14
-3.18444e-14
-2.80449e-14
-1.61391e-14
-1.30454e-14
-3.61794e-15
-3.82745e-13
-3.81209e-13
-3.79983e-13
-3.83929e-13
-3.86792e-13
-3.83988e-13
-3.8225e-13
-3.83924e-13
-3.86968e-13
-3.8438e-13
-3.94714e-13
-3.92681e-13
-3.88617e-13
-3.93628e-13
-3.99856e-13
-3.9275e-13
-3.95325e-13
-3.90654e-13
-3.98461e-13
-4.00899e-13
-3.98213e-13
-3.97636e-13
-4.05399e-13
-4.08587e-13
-4.05401e-13
-3.9746e-13
-3.96829e-13
-3.91731e-13
-3.97598e-13
-4.06932e-13
-3.99246e-13
-3.95132e-13
-3.92498e-13
-3.94726e-13
-3.87748e-13
-3.86535e-13
-3.8799e-13
-3.92054e-13
-3.91536e-13
-3.82822e-13
-3.79922e-13
-3.68981e-13
-3.57526e-13
-3.52969e-13
-3.53705e-13
-3.48731e-13
-3.48072e-13
-3.43437e-13
-3.40332e-13
-3.34888e-13
-3.27049e-13
-3.19921e-13
-3.19078e-13
-3.11245e-13
-3.00339e-13
-2.97246e-13
-2.84573e-13
-2.75981e-13
-2.64103e-13
-2.55941e-13
-2.5422e-13
-2.4952e-13
-2.35879e-13
-2.26386e-13
-2.15079e-13
-2.12545e-13
-2.08877e-13
-2.00695e-13
-1.91933e-13
-1.88361e-13
-1.83882e-13
-1.79917e-13
-1.7422e-13
-1.71881e-13
-1.68118e-13
-1.62817e-13
-1.48062e-13
-1.39088e-13
-1.41496e-13
-1.413e-13
-1.33366e-13
-1.23161e-13
-1.1425e-13
-1.10569e-13
-1.03221e-13
-9.84876e-14
-9.50928e-14
-9.09432e-14
-8.32805e-14
-7.24606e-14
-5.61209e-14
-4.69588e-14
-3.88528e-14
-3.81013e-14
-3.8137e-14
-3.13253e-14
-2.34233e-14
-1.44119e-14
-1.03073e-14
-6.27765e-15
-3.81599e-13
-3.82529e-13
-3.8033e-13
-3.83673e-13
-3.82583e-13
-3.83138e-13
-3.84571e-13
-3.87759e-13
-3.88381e-13
-3.86422e-13
-3.9115e-13
-3.90527e-13
-3.87161e-13
-3.92279e-13
-3.98508e-13
-3.95849e-13
-3.98744e-13
-3.96054e-13
-3.98595e-13
-4.00663e-13
-4.03257e-13
-3.96244e-13
-4.05882e-13
-4.05887e-13
-3.96511e-13
-3.9478e-13
-3.97361e-13
-3.96953e-13
-4.00661e-13
-4.05458e-13
-4.03521e-13
-3.96404e-13
-3.95424e-13
-3.93285e-13
-3.86926e-13
-3.85995e-13
-3.8584e-13
-3.83351e-13
-3.92628e-13
-3.85782e-13
-3.80988e-13
-3.73531e-13
-3.62464e-13
-3.56551e-13
-3.50591e-13
-3.48916e-13
-3.48123e-13
-3.42683e-13
-3.40464e-13
-3.32034e-13
-3.29523e-13
-3.22188e-13
-3.16561e-13
-3.12517e-13
-3.00439e-13
-2.97324e-13
-2.85999e-13
-2.76582e-13
-2.61638e-13
-2.52188e-13
-2.57273e-13
-2.54551e-13
-2.35824e-13
-2.24688e-13
-2.12985e-13
-2.09157e-13
-2.12472e-13
-1.99692e-13
-1.9683e-13
-1.90324e-13
-1.86706e-13
-1.82481e-13
-1.77877e-13
-1.73039e-13
-1.66992e-13
-1.59446e-13
-1.51521e-13
-1.4038e-13
-1.42304e-13
-1.36689e-13
-1.27385e-13
-1.22201e-13
-1.1736e-13
-1.12636e-13
-1.05711e-13
-9.91173e-14
-9.2688e-14
-8.86301e-14
-7.96485e-14
-7.24015e-14
-5.73538e-14
-4.53045e-14
-4.2367e-14
-3.8094e-14
-3.72188e-14
-2.83344e-14
-2.03872e-14
-1.09899e-14
-9.85813e-15
-5.79812e-15
-3.83819e-13
-3.80478e-13
-3.80665e-13
-3.86742e-13
-3.80929e-13
-3.88022e-13
-3.842e-13
-3.91631e-13
-3.83461e-13
-3.85366e-13
-3.91174e-13
-3.91118e-13
-3.92718e-13
-3.9286e-13
-3.88899e-13
-3.91264e-13
-4.00191e-13
-4.01937e-13
-4.00117e-13
-3.97943e-13
-4.00296e-13
-4.01732e-13
-4.08614e-13
-4.06116e-13
-3.9809e-13
-3.95284e-13
-3.98244e-13
-3.95847e-13
-4.00659e-13
-4.04138e-13
-3.99972e-13
-3.95387e-13
-3.94901e-13
-3.93078e-13
-3.91202e-13
-3.89037e-13
-3.85411e-13
-3.87807e-13
-3.93349e-13
-3.86009e-13
-3.7372e-13
-3.69908e-13
-3.65821e-13
-3.62693e-13
-3.51327e-13
-3.49519e-13
-3.47652e-13
-3.38225e-13
-3.40058e-13
-3.37553e-13
-3.30276e-13
-3.18064e-13
-3.15992e-13
-3.12528e-13
-3.03045e-13
-2.95903e-13
-2.862e-13
-2.75459e-13
-2.58409e-13
-2.53747e-13
-2.56804e-13
-2.51e-13
-2.37171e-13
-2.25688e-13
-2.11916e-13
-2.09687e-13
-2.07306e-13
-2.01905e-13
-1.95291e-13
-1.88148e-13
-1.88646e-13
-1.83761e-13
-1.78646e-13
-1.67524e-13
-1.65374e-13
-1.60573e-13
-1.51558e-13
-1.41478e-13
-1.43707e-13
-1.35589e-13
-1.29639e-13
-1.25058e-13
-1.20088e-13
-1.129e-13
-1.06511e-13
-9.74626e-14
-9.65529e-14
-8.93809e-14
-7.90097e-14
-7.08632e-14
-6.02284e-14
-4.94419e-14
-4.26045e-14
-3.57225e-14
-3.57921e-14
-2.84627e-14
-1.45209e-14
-1.17177e-14
-8.17774e-15
-5.51338e-15
-3.80112e-13
-3.77865e-13
-3.80721e-13
-3.87648e-13
-3.92596e-13
-3.86127e-13
-3.79413e-13
-3.8342e-13
-3.89274e-13
-3.86594e-13
-3.85565e-13
-3.8485e-13
-3.96677e-13
-4.00287e-13
-3.89902e-13
-3.87091e-13
-3.90854e-13
-4.01234e-13
-4.06629e-13
-4.03169e-13
-3.99478e-13
-4.01162e-13
-4.05876e-13
-4.02995e-13
-4.0128e-13
-3.98522e-13
-3.97748e-13
-3.97841e-13
-3.96239e-13
-4.02118e-13
-4.00617e-13
-3.94473e-13
-3.97651e-13
-3.91219e-13
-3.92896e-13
-3.90524e-13
-3.91719e-13
-3.87248e-13
-3.91784e-13
-3.88994e-13
-3.78568e-13
-3.70478e-13
-3.65488e-13
-3.64078e-13
-3.53223e-13
-3.50835e-13
-3.43729e-13
-3.40592e-13
-3.36644e-13
-3.32177e-13
-3.25288e-13
-3.19309e-13
-3.15984e-13
-3.11622e-13
-3.03213e-13
-2.94918e-13
-2.8921e-13
-2.79942e-13
-2.578e-13
-2.50885e-13
-2.5404e-13
-2.51053e-13
-2.38969e-13
-2.28785e-13
-2.13694e-13
-2.08383e-13
-2.02666e-13
-1.98033e-13
-1.95259e-13
-1.9423e-13
-1.93957e-13
-1.85863e-13
-1.79967e-13
-1.68238e-13
-1.66415e-13
-1.63823e-13
-1.5385e-13
-1.41144e-13
-1.39227e-13
-1.35474e-13
-1.30097e-13
-1.18328e-13
-1.19571e-13
-1.15341e-13
-1.1163e-13
-1.03323e-13
-9.22696e-14
-8.55352e-14
-8.14326e-14
-6.66408e-14
-6.0707e-14
-4.81788e-14
-4.43722e-14
-3.39744e-14
-2.97159e-14
-2.76794e-14
-1.55347e-14
-1.40239e-14
-8.5699e-15
-5.87369e-15
-3.85368e-13
-3.79432e-13
-3.81381e-13
-3.8223e-13
-3.84076e-13
-3.79343e-13
-3.8255e-13
-3.9024e-13
-3.89311e-13
-3.94666e-13
-3.94234e-13
-3.87555e-13
-3.89791e-13
-3.94474e-13
-3.93206e-13
-3.90181e-13
-3.92463e-13
-3.97567e-13
-4.01422e-13
-4.06653e-13
-4.04461e-13
-4.01551e-13
-4.0034e-13
-4.00995e-13
-4.01651e-13
-4.0055e-13
-3.94289e-13
-3.95568e-13
-4.00133e-13
-4.00564e-13
-4.01695e-13
-3.96851e-13
-3.93566e-13
-3.90594e-13
-3.89767e-13
-3.914e-13
-3.89179e-13
-3.91446e-13
-3.94598e-13
-3.90519e-13
-3.7453e-13
-3.65943e-13
-3.67719e-13
-3.64898e-13
-3.54995e-13
-3.5127e-13
-3.46411e-13
-3.41407e-13
-3.36112e-13
-3.29656e-13
-3.21138e-13
-3.18233e-13
-3.12412e-13
-3.13615e-13
-3.04472e-13
-2.94104e-13
-2.84236e-13
-2.7508e-13
-2.6383e-13
-2.56444e-13
-2.52076e-13
-2.51012e-13
-2.43741e-13
-2.33241e-13
-2.15301e-13
-2.09837e-13
-2.00057e-13
-2.00114e-13
-1.96682e-13
-1.88048e-13
-1.90406e-13
-1.901e-13
-1.78194e-13
-1.69171e-13
-1.62172e-13
-1.56747e-13
-1.51214e-13
-1.50429e-13
-1.41752e-13
-1.34369e-13
-1.2469e-13
-1.20917e-13
-1.18894e-13
-1.16365e-13
-1.10648e-13
-1.01735e-13
-9.0514e-14
-8.47497e-14
-8.18376e-14
-6.63936e-14
-5.88933e-14
-4.92671e-14
-4.52549e-14
-3.56743e-14
-2.91104e-14
-2.51727e-14
-2.05349e-14
-1.87645e-14
-1.37846e-14
-7.25135e-15
-3.82236e-13
-3.82889e-13
-3.83686e-13
-3.80414e-13
-3.80115e-13
-3.8087e-13
-3.81931e-13
-3.88434e-13
-3.93851e-13
-3.88364e-13
-3.88906e-13
-3.93979e-13
-3.89563e-13
-3.98044e-13
-3.9756e-13
-3.9247e-13
-3.90519e-13
-3.89814e-13
-3.98594e-13
-4.07738e-13
-4.06692e-13
-4.09497e-13
-4.01639e-13
-3.98396e-13
-3.99077e-13
-3.99701e-13
-3.9354e-13
-3.93371e-13
-4.01785e-13
-4.00099e-13
-3.974e-13
-3.99685e-13
-3.9447e-13
-3.94986e-13
-3.94755e-13
-3.9192e-13
-3.87827e-13
-3.89203e-13
-3.90869e-13
-3.87875e-13
-3.79128e-13
-3.70622e-13
-3.68271e-13
-3.69148e-13
-3.54777e-13
-3.46046e-13
-3.46345e-13
-3.42489e-13
-3.40189e-13
-3.3001e-13
-3.24021e-13
-3.13337e-13
-3.08521e-13
-3.09467e-13
-3.02573e-13
-2.93198e-13
-2.83661e-13
-2.77065e-13
-2.70994e-13
-2.60628e-13
-2.47141e-13
-2.46053e-13
-2.43256e-13
-2.37176e-13
-2.25251e-13
-2.1412e-13
-2.03584e-13
-2.00687e-13
-1.97974e-13
-1.90637e-13
-1.8624e-13
-1.7946e-13
-1.75467e-13
-1.66251e-13
-1.58906e-13
-1.55631e-13
-1.51437e-13
-1.5079e-13
-1.42784e-13
-1.32076e-13
-1.25268e-13
-1.22487e-13
-1.14371e-13
-1.10608e-13
-1.06767e-13
-1.0536e-13
-9.06979e-14
-8.26052e-14
-8.10612e-14
-6.68312e-14
-5.88803e-14
-5.19101e-14
-4.41469e-14
-3.62255e-14
-2.87593e-14
-2.49099e-14
-2.08161e-14
-2.05207e-14
-1.21665e-14
-5.18237e-15
-3.86492e-13
-3.85215e-13
-3.88015e-13
-3.77614e-13
-3.70948e-13
-3.79707e-13
-3.92861e-13
-3.93464e-13
-3.89488e-13
-3.88234e-13
-3.86761e-13
-3.91607e-13
-3.92589e-13
-3.98208e-13
-3.94711e-13
-3.95786e-13
-3.91477e-13
-3.93923e-13
-4.03843e-13
-4.02415e-13
-3.95334e-13
-3.93967e-13
-3.94566e-13
-4.0527e-13
-4.012e-13
-3.99773e-13
-4.0052e-13
-3.95799e-13
-4.02728e-13
-4.01762e-13
-4.01485e-13
-3.97145e-13
-3.90473e-13
-3.88659e-13
-3.96713e-13
-3.91855e-13
-3.93294e-13
-3.92539e-13
-3.96201e-13
-3.86897e-13
-3.78572e-13
-3.74838e-13
-3.66947e-13
-3.60121e-13
-3.5351e-13
-3.52522e-13
-3.48909e-13
-3.46315e-13
-3.31919e-13
-3.27138e-13
-3.26581e-13
-3.16036e-13
-3.02927e-13
-3.08225e-13
-3.0337e-13
-2.96666e-13
-2.87052e-13
-2.74458e-13
-2.69449e-13
-2.62773e-13
-2.53712e-13
-2.49632e-13
-2.41711e-13
-2.3396e-13
-2.27666e-13
-2.18006e-13
-2.04091e-13
-1.98267e-13
-2.00325e-13
-1.91773e-13
-1.82561e-13
-1.76845e-13
-1.7585e-13
-1.73306e-13
-1.63792e-13
-1.5595e-13
-1.47627e-13
-1.50022e-13
-1.38716e-13
-1.30848e-13
-1.23605e-13
-1.19271e-13
-1.15106e-13
-1.15185e-13
-1.12572e-13
-1.04043e-13
-8.89663e-14
-8.02437e-14
-7.35347e-14
-6.72597e-14
-6.05877e-14
-4.94392e-14
-4.19949e-14
-3.9937e-14
-2.98429e-14
-2.7838e-14
-2.39225e-14
-1.8903e-14
-9.75444e-15
-4.9232e-15
-3.83699e-13
-3.80646e-13
-3.82149e-13
-3.82289e-13
-3.84247e-13
-3.81225e-13
-3.84167e-13
-3.92006e-13
-3.88841e-13
-3.89083e-13
-3.92873e-13
-3.93248e-13
-3.99608e-13
-3.98871e-13
-3.97532e-13
-3.97263e-13
-3.94698e-13
-3.91566e-13
-3.91814e-13
-3.96269e-13
-3.97063e-13
-3.9681e-13
-3.91572e-13
-3.972e-13
-4.01922e-13
-4.0844e-13
-4.00805e-13
-4.01705e-13
-4.02303e-13
-3.9903e-13
-3.98707e-13
-3.9415e-13
-3.93124e-13
-3.99444e-13
-3.94491e-13
-3.91657e-13
-3.93764e-13
-3.96166e-13
-3.94552e-13
-3.84519e-13
-3.74561e-13
-3.70796e-13
-3.66347e-13
-3.68592e-13
-3.65075e-13
-3.52379e-13
-3.44855e-13
-3.3984e-13
-3.32328e-13
-3.2731e-13
-3.26772e-13
-3.19176e-13
-3.10989e-13
-3.06513e-13
-3.00458e-13
-2.97304e-13
-2.85482e-13
-2.72607e-13
-2.68173e-13
-2.63852e-13
-2.59889e-13
-2.57262e-13
-2.47398e-13
-2.37522e-13
-2.25957e-13
-2.27457e-13
-2.08478e-13
-1.99383e-13
-2.02096e-13
-1.93483e-13
-1.86135e-13
-1.77487e-13
-1.72202e-13
-1.66525e-13
-1.6462e-13
-1.5265e-13
-1.46969e-13
-1.49776e-13
-1.40018e-13
-1.3178e-13
-1.22245e-13
-1.18343e-13
-1.13057e-13
-1.1213e-13
-1.09797e-13
-1.04848e-13
-8.67409e-14
-7.61928e-14
-7.34899e-14
-6.64311e-14
-5.87775e-14
-5.05117e-14
-4.33732e-14
-4.10017e-14
-3.27976e-14
-2.64622e-14
-2.30327e-14
-2.2341e-14
-1.25437e-14
-7.36309e-15
-3.82566e-13
-3.83323e-13
-3.83845e-13
-3.82264e-13
-3.87139e-13
-3.83724e-13
-3.85564e-13
-3.88104e-13
-3.86388e-13
-3.91788e-13
-3.95874e-13
-3.97193e-13
-4.02007e-13
-3.96957e-13
-3.93074e-13
-3.92981e-13
-3.92085e-13
-3.98896e-13
-3.9432e-13
-3.93721e-13
-3.98106e-13
-3.94796e-13
-4.03863e-13
-4.01215e-13
-3.98629e-13
-4.03865e-13
-4.02143e-13
-3.96806e-13
-3.99715e-13
-3.97963e-13
-4.00754e-13
-3.95296e-13
-3.8958e-13
-3.99742e-13
-4.02496e-13
-3.99282e-13
-3.9375e-13
-3.95635e-13
-3.90959e-13
-3.85238e-13
-3.81022e-13
-3.74884e-13
-3.71349e-13
-3.69065e-13
-3.5802e-13
-3.50578e-13
-3.41112e-13
-3.36585e-13
-3.31899e-13
-3.29384e-13
-3.29661e-13
-3.20805e-13
-3.12522e-13
-3.0533e-13
-2.97797e-13
-2.98148e-13
-2.87058e-13
-2.79453e-13
-2.73586e-13
-2.62204e-13
-2.57079e-13
-2.47205e-13
-2.48089e-13
-2.40599e-13
-2.32087e-13
-2.30477e-13
-2.23734e-13
-2.12578e-13
-1.98544e-13
-1.90692e-13
-1.80557e-13
-1.77255e-13
-1.70463e-13
-1.65613e-13
-1.64524e-13
-1.58308e-13
-1.49535e-13
-1.49867e-13
-1.38756e-13
-1.28827e-13
-1.22607e-13
-1.14992e-13
-1.12198e-13
-1.08415e-13
-1.08291e-13
-1.02632e-13
-8.68347e-14
-7.80519e-14
-6.98883e-14
-6.39123e-14
-5.67238e-14
-5.64618e-14
-4.98088e-14
-4.35552e-14
-3.5306e-14
-3.47899e-14
-2.49946e-14
-2.25074e-14
-9.50573e-15
-3.34267e-15
-3.84892e-13
-3.85618e-13
-3.83651e-13
-3.79954e-13
-3.83371e-13
-3.85792e-13
-3.89104e-13
-3.91333e-13
-3.95168e-13
-3.93563e-13
-3.95141e-13
-3.98794e-13
-3.97346e-13
-3.96684e-13
-3.97493e-13
-3.91078e-13
-3.96558e-13
-3.98295e-13
-3.96838e-13
-3.94278e-13
-3.90263e-13
-3.94963e-13
-4.0465e-13
-4.022e-13
-4.02458e-13
-4.04706e-13
-4.0512e-13
-3.98198e-13
-3.97992e-13
-3.94494e-13
-4.02502e-13
-3.97107e-13
-3.93016e-13
-3.96881e-13
-3.94105e-13
-4.00003e-13
-3.96361e-13
-3.99571e-13
-3.91488e-13
-3.90481e-13
-3.78689e-13
-3.75049e-13
-3.72361e-13
-3.67551e-13
-3.57449e-13
-3.52196e-13
-3.49277e-13
-3.40603e-13
-3.34076e-13
-3.30161e-13
-3.24338e-13
-3.21617e-13
-3.10553e-13
-3.0568e-13
-3.03828e-13
-2.93301e-13
-2.84171e-13
-2.78628e-13
-2.7365e-13
-2.67873e-13
-2.59674e-13
-2.52328e-13
-2.55736e-13
-2.41616e-13
-2.35288e-13
-2.32703e-13
-2.23642e-13
-2.13235e-13
-2.09654e-13
-1.88583e-13
-1.80566e-13
-1.76188e-13
-1.7356e-13
-1.66569e-13
-1.64635e-13
-1.63782e-13
-1.49012e-13
-1.40993e-13
-1.39098e-13
-1.30316e-13
-1.2138e-13
-1.11418e-13
-1.11021e-13
-1.07753e-13
-1.10083e-13
-1.02652e-13
-8.48356e-14
-7.8163e-14
-6.68544e-14
-6.55933e-14
-5.60479e-14
-5.49899e-14
-5.43256e-14
-4.61806e-14
-3.04311e-14
-2.72665e-14
-2.89139e-14
-2.91592e-14
-2.06515e-14
-3.45809e-15
-3.82952e-13
-3.82693e-13
-3.82833e-13
-3.81551e-13
-3.86273e-13
-3.91646e-13
-3.84639e-13
-3.92417e-13
-3.95211e-13
-3.9337e-13
-3.89991e-13
-3.98551e-13
-4.01979e-13
-3.96125e-13
-4.00273e-13
-3.99622e-13
-3.98451e-13
-3.90787e-13
-3.93128e-13
-3.91983e-13
-3.94669e-13
-3.97481e-13
-3.98129e-13
-4.05074e-13
-4.01789e-13
-4.04468e-13
-4.06985e-13
-3.94669e-13
-4.00881e-13
-3.95611e-13
-4.02484e-13
-4.01464e-13
-3.93325e-13
-3.95418e-13
-3.99044e-13
-4.03011e-13
-3.96951e-13
-3.96754e-13
-3.88557e-13
-3.88359e-13
-3.85654e-13
-3.8507e-13
-3.77099e-13
-3.682e-13
-3.6224e-13
-3.53121e-13
-3.47381e-13
-3.3874e-13
-3.37028e-13
-3.36699e-13
-3.27397e-13
-3.17408e-13
-3.1313e-13
-3.02977e-13
-2.97031e-13
-2.90567e-13
-2.88422e-13
-2.84092e-13
-2.7524e-13
-2.68123e-13
-2.64721e-13
-2.525e-13
-2.52172e-13
-2.42573e-13
-2.37181e-13
-2.33515e-13
-2.23034e-13
-2.16402e-13
-2.10481e-13
-2.00522e-13
-1.92122e-13
-1.79789e-13
-1.6267e-13
-1.64637e-13
-1.67208e-13
-1.66378e-13
-1.54498e-13
-1.43541e-13
-1.43191e-13
-1.30555e-13
-1.19194e-13
-1.15007e-13
-1.11001e-13
-1.07735e-13
-1.07381e-13
-9.72184e-14
-8.50664e-14
-7.95101e-14
-7.05342e-14
-6.67568e-14
-5.52621e-14
-5.47586e-14
-5.67778e-14
-4.46005e-14
-4.05837e-14
-3.6671e-14
-3.30451e-14
-2.56955e-14
-1.46092e-14
-5.71149e-15
-3.81152e-13
-3.8051e-13
-3.87278e-13
-3.8099e-13
-3.84382e-13
-3.84595e-13
-3.87167e-13
-3.97436e-13
-3.95524e-13
-3.97185e-13
-3.91994e-13
-3.97744e-13
-4.0233e-13
-3.97516e-13
-3.96453e-13
-3.90908e-13
-3.93096e-13
-3.93202e-13
-3.93542e-13
-3.91807e-13
-4.03244e-13
-4.0801e-13
-4.12334e-13
-3.99607e-13
-3.99644e-13
-4.00176e-13
-4.06717e-13
-4.00017e-13
-4.01252e-13
-3.96174e-13
-3.95292e-13
-3.94656e-13
-3.98314e-13
-3.97994e-13
-3.89796e-13
-4.01989e-13
-4.08303e-13
-3.98529e-13
-3.87168e-13
-3.8886e-13
-3.87952e-13
-3.84834e-13
-3.72796e-13
-3.64695e-13
-3.6219e-13
-3.62408e-13
-3.53414e-13
-3.45773e-13
-3.40512e-13
-3.3026e-13
-3.23914e-13
-3.1642e-13
-3.10471e-13
-3.06106e-13
-3.00031e-13
-2.88825e-13
-2.85536e-13
-2.87858e-13
-2.84233e-13
-2.7658e-13
-2.7272e-13
-2.57619e-13
-2.49268e-13
-2.47789e-13
-2.42585e-13
-2.28776e-13
-2.19583e-13
-2.14438e-13
-2.13933e-13
-2.05849e-13
-1.92452e-13
-1.76745e-13
-1.65806e-13
-1.6077e-13
-1.6546e-13
-1.66151e-13
-1.58874e-13
-1.45158e-13
-1.42988e-13
-1.32802e-13
-1.22623e-13
-1.14074e-13
-1.1433e-13
-1.09383e-13
-1.03095e-13
-9.52338e-14
-8.98959e-14
-7.98562e-14
-7.22622e-14
-6.12802e-14
-5.84382e-14
-5.62339e-14
-5.63862e-14
-4.9723e-14
-4.30787e-14
-3.69347e-14
-3.75712e-14
-1.80214e-14
-1.4695e-14
-9.30735e-15
-3.83573e-13
-3.74916e-13
-3.79469e-13
-3.85772e-13
-3.88174e-13
-3.85855e-13
-3.91691e-13
-3.90808e-13
-3.94701e-13
-4.03796e-13
-3.9481e-13
-3.95803e-13
-4.03875e-13
-3.92601e-13
-3.92228e-13
-4.01987e-13
-4.0639e-13
-4.00811e-13
-3.92746e-13
-3.9243e-13
-3.9206e-13
-3.9321e-13
-4.06832e-13
-4.05634e-13
-4.06399e-13
-4.02188e-13
-4.06158e-13
-4.03235e-13
-4.0101e-13
-3.93202e-13
-3.91387e-13
-3.95262e-13
-4.02427e-13
-4.0441e-13
-4.02047e-13
-4.09635e-13
-4.00036e-13
-3.87581e-13
-3.87967e-13
-3.88243e-13
-3.90148e-13
-3.82307e-13
-3.71507e-13
-3.70513e-13
-3.70866e-13
-3.66442e-13
-3.56329e-13
-3.47883e-13
-3.35065e-13
-3.29958e-13
-3.23778e-13
-3.15786e-13
-3.09979e-13
-3.07165e-13
-3.02477e-13
-2.9545e-13
-2.87359e-13
-2.817e-13
-2.80325e-13
-2.69471e-13
-2.68746e-13
-2.63602e-13
-2.57067e-13
-2.55061e-13
-2.38811e-13
-2.25113e-13
-2.17212e-13
-2.15965e-13
-2.13265e-13
-2.05441e-13
-1.92413e-13
-1.85804e-13
-1.7149e-13
-1.66978e-13
-1.65267e-13
-1.65529e-13
-1.60303e-13
-1.49488e-13
-1.42843e-13
-1.32551e-13
-1.2507e-13
-1.18833e-13
-1.12924e-13
-1.09171e-13
-1.05577e-13
-9.70345e-14
-8.76303e-14
-7.73364e-14
-7.35225e-14
-6.31811e-14
-5.78172e-14
-5.58463e-14
-5.78409e-14
-5.08347e-14
-4.53024e-14
-4.13343e-14
-3.64922e-14
-2.02454e-14
-1.56082e-14
-8.4328e-15
-3.82955e-13
-3.79324e-13
-3.81552e-13
-3.85326e-13
-3.89297e-13
-3.86104e-13
-3.94215e-13
-3.99393e-13
-3.99822e-13
-4.03663e-13
-3.93702e-13
-3.8766e-13
-3.99597e-13
-3.96475e-13
-3.94642e-13
-3.99713e-13
-4.00252e-13
-3.93448e-13
-3.88539e-13
-3.95007e-13
-4.03236e-13
-4.13189e-13
-4.15527e-13
-4.13617e-13
-4.04406e-13
-4.03416e-13
-4.04963e-13
-4.06588e-13
-3.96698e-13
-3.89949e-13
-3.83754e-13
-3.89127e-13
-3.99732e-13
-4.06247e-13
-4.10836e-13
-4.10503e-13
-4.00868e-13
-3.90841e-13
-3.87151e-13
-3.86612e-13
-3.89211e-13
-3.87052e-13
-3.75797e-13
-3.75606e-13
-3.70803e-13
-3.61814e-13
-3.5497e-13
-3.48609e-13
-3.37623e-13
-3.23409e-13
-3.1751e-13
-3.23812e-13
-3.1875e-13
-3.0757e-13
-3.0758e-13
-2.95196e-13
-2.94558e-13
-2.87988e-13
-2.86027e-13
-2.74323e-13
-2.65036e-13
-2.61191e-13
-2.54803e-13
-2.49865e-13
-2.40558e-13
-2.36616e-13
-2.25418e-13
-2.17133e-13
-2.12104e-13
-2.05003e-13
-1.97177e-13
-1.8731e-13
-1.76524e-13
-1.73851e-13
-1.61556e-13
-1.65828e-13
-1.64998e-13
-1.53524e-13
-1.40287e-13
-1.30307e-13
-1.20082e-13
-1.1917e-13
-1.18707e-13
-1.11782e-13
-1.07546e-13
-9.46283e-14
-8.72481e-14
-7.98209e-14
-7.37287e-14
-6.34653e-14
-6.04035e-14
-5.52846e-14
-5.64912e-14
-4.83718e-14
-4.61517e-14
-4.29498e-14
-3.62596e-14
-2.4281e-14
-1.5167e-14
-8.90961e-15
-3.8431e-13
-3.76645e-13
-3.76609e-13
-3.86841e-13
-3.89563e-13
-3.87127e-13
-3.87557e-13
-3.91414e-13
-4.02875e-13
-4.09687e-13
-3.96e-13
-3.94904e-13
-3.97736e-13
-3.94164e-13
-3.91918e-13
-3.97928e-13
-4.05732e-13
-3.98447e-13
-4.01924e-13
-4.0078e-13
-3.94243e-13
-4.04045e-13
-4.07408e-13
-4.08653e-13
-4.05957e-13
-4.0441e-13
-4.04487e-13
-4.02971e-13
-4.00236e-13
-3.93674e-13
-3.94103e-13
-3.96095e-13
-3.9989e-13
-4.06301e-13
-4.1407e-13
-4.08371e-13
-3.98453e-13
-3.94654e-13
-3.887e-13
-3.88674e-13
-3.90238e-13
-3.86559e-13
-3.80427e-13
-3.71829e-13
-3.69076e-13
-3.66032e-13
-3.5549e-13
-3.41707e-13
-3.39711e-13
-3.34452e-13
-3.29173e-13
-3.23085e-13
-3.1699e-13
-3.08624e-13
-3.06095e-13
-2.97836e-13
-2.94853e-13
-2.86184e-13
-2.77895e-13
-2.75614e-13
-2.72108e-13
-2.65405e-13
-2.58415e-13
-2.57351e-13
-2.39915e-13
-2.2311e-13
-2.31069e-13
-2.22495e-13
-2.15763e-13
-2.05917e-13
-1.97504e-13
-1.84875e-13
-1.8108e-13
-1.73933e-13
-1.65577e-13
-1.70131e-13
-1.60513e-13
-1.50792e-13
-1.43711e-13
-1.32849e-13
-1.22131e-13
-1.15499e-13
-1.16078e-13
-1.10867e-13
-1.0526e-13
-9.41259e-14
-8.62825e-14
-8.50513e-14
-7.29873e-14
-6.75389e-14
-5.96233e-14
-6.02806e-14
-5.81728e-14
-4.65202e-14
-4.53498e-14
-4.11208e-14
-3.61142e-14
-2.90839e-14
-1.9074e-14
-7.88276e-15
-3.78216e-13
-3.79813e-13
-3.81676e-13
-3.89621e-13
-3.9051e-13
-3.92881e-13
-3.9431e-13
-3.86196e-13
-3.87764e-13
-3.92984e-13
-3.99079e-13
-4.0012e-13
-3.99699e-13
-3.95275e-13
-3.96449e-13
-3.92729e-13
-4.05901e-13
-4.00658e-13
-3.89314e-13
-3.93706e-13
-4.10189e-13
-4.235e-13
-4.18879e-13
-4.09096e-13
-4.00852e-13
-4.01946e-13
-4.01264e-13
-4.02929e-13
-4.00002e-13
-3.95999e-13
-3.9372e-13
-3.94324e-13
-3.94786e-13
-4.02933e-13
-4.13512e-13
-4.08386e-13
-3.975e-13
-4.01325e-13
-3.93102e-13
-3.86462e-13
-3.87041e-13
-3.94307e-13
-3.84107e-13
-3.72078e-13
-3.67458e-13
-3.59307e-13
-3.57018e-13
-3.47193e-13
-3.35679e-13
-3.326e-13
-3.30099e-13
-3.26058e-13
-3.17338e-13
-3.11022e-13
-3.07956e-13
-3.01087e-13
-2.98699e-13
-2.91398e-13
-2.81835e-13
-2.76612e-13
-2.73781e-13
-2.6614e-13
-2.57546e-13
-2.48095e-13
-2.36192e-13
-2.29103e-13
-2.32457e-13
-2.26642e-13
-2.14842e-13
-2.09551e-13
-2.03198e-13
-1.88044e-13
-1.8215e-13
-1.68825e-13
-1.66774e-13
-1.69387e-13
-1.63177e-13
-1.51482e-13
-1.4548e-13
-1.25482e-13
-1.23062e-13
-1.21159e-13
-1.17448e-13
-1.15243e-13
-1.04362e-13
-9.34976e-14
-7.92466e-14
-8.40239e-14
-7.91497e-14
-7.32408e-14
-6.13383e-14
-6.43293e-14
-5.20008e-14
-4.66331e-14
-4.72294e-14
-4.21252e-14
-3.16217e-14
-2.56041e-14
-2.24031e-14
-9.30029e-15
-3.78997e-13
-3.80341e-13
-3.78876e-13
-3.89052e-13
-3.82621e-13
-3.82702e-13
-3.92737e-13
-3.92649e-13
-3.94778e-13
-3.95501e-13
-3.96083e-13
-3.96096e-13
-3.99837e-13
-3.97998e-13
-3.99355e-13
-3.98683e-13
-4.01231e-13
-3.97996e-13
-3.97392e-13
-3.97898e-13
-4.04223e-13
-4.19814e-13
-4.22283e-13
-4.11982e-13
-3.99876e-13
-4.0004e-13
-4.0293e-13
-4.01329e-13
-3.99255e-13
-3.95637e-13
-3.89215e-13
-3.93646e-13
-3.98879e-13
-4.02094e-13
-4.13018e-13
-4.13949e-13
-4.06416e-13
-4.03039e-13
-3.92078e-13
-3.86382e-13
-3.8173e-13
-3.91219e-13
-3.78047e-13
-3.77821e-13
-3.72316e-13
-3.63551e-13
-3.62072e-13
-3.48394e-13
-3.4393e-13
-3.37411e-13
-3.29036e-13
-3.26318e-13
-3.18535e-13
-3.1294e-13
-3.05481e-13
-2.99506e-13
-2.97619e-13
-2.9491e-13
-2.85798e-13
-2.78615e-13
-2.76834e-13
-2.66245e-13
-2.50767e-13
-2.46846e-13
-2.39434e-13
-2.34889e-13
-2.30826e-13
-2.24221e-13
-2.17834e-13
-2.13631e-13
-2.02072e-13
-1.89748e-13
-1.81613e-13
-1.72616e-13
-1.6972e-13
-1.72286e-13
-1.61933e-13
-1.54291e-13
-1.41005e-13
-1.23157e-13
-1.20825e-13
-1.19047e-13
-1.14851e-13
-1.15443e-13
-1.0996e-13
-9.53619e-14
-8.59696e-14
-8.17086e-14
-7.63393e-14
-7.29328e-14
-6.36222e-14
-6.36195e-14
-5.76441e-14
-4.99136e-14
-4.36658e-14
-3.92726e-14
-3.18651e-14
-2.74209e-14
-2.21917e-14
-9.78729e-15
-3.82919e-13
-3.79317e-13
-3.80999e-13
-3.83558e-13
-3.83589e-13
-3.90047e-13
-3.95895e-13
-3.91902e-13
-3.90535e-13
-3.8991e-13
-3.93314e-13
-3.96535e-13
-3.96658e-13
-3.97277e-13
-4.03537e-13
-4.04599e-13
-4.03307e-13
-4.01016e-13
-4.03102e-13
-3.9659e-13
-4.05549e-13
-4.22159e-13
-4.14532e-13
-4.10915e-13
-4.08728e-13
-4.04215e-13
-4.00989e-13
-3.97846e-13
-3.9688e-13
-3.96495e-13
-3.92683e-13
-3.95647e-13
-4.02176e-13
-4.10938e-13
-4.12488e-13
-4.11899e-13
-4.0495e-13
-3.9899e-13
-3.98841e-13
-3.93311e-13
-3.84832e-13
-3.89777e-13
-3.87805e-13
-3.82208e-13
-3.74025e-13
-3.67379e-13
-3.54951e-13
-3.37497e-13
-3.3964e-13
-3.44169e-13
-3.3104e-13
-3.25703e-13
-3.17933e-13
-3.19245e-13
-3.07666e-13
-3.06132e-13
-3.00441e-13
-2.93119e-13
-2.85845e-13
-2.78665e-13
-2.73766e-13
-2.63651e-13
-2.59309e-13
-2.50338e-13
-2.44649e-13
-2.39404e-13
-2.30776e-13
-2.24355e-13
-2.20227e-13
-2.12914e-13
-2.07694e-13
-1.94427e-13
-1.76472e-13
-1.7718e-13
-1.74086e-13
-1.71324e-13
-1.58797e-13
-1.48449e-13
-1.46874e-13
-1.31908e-13
-1.18338e-13
-1.13192e-13
-1.10647e-13
-1.10455e-13
-1.07442e-13
-9.89695e-14
-8.69428e-14
-8.24706e-14
-7.74962e-14
-7.07722e-14
-6.82718e-14
-5.91756e-14
-5.62543e-14
-5.08158e-14
-4.21413e-14
-3.72476e-14
-3.193e-14
-3.18267e-14
-2.23366e-14
-6.38046e-15
-3.77183e-13
-3.791e-13
-3.8272e-13
-3.83401e-13
-3.89713e-13
-3.92119e-13
-3.91548e-13
-3.88754e-13
-3.85091e-13
-3.89823e-13
-3.94797e-13
-3.97482e-13
-3.93434e-13
-3.96063e-13
-4.05347e-13
-4.12147e-13
-4.09805e-13
-4.13578e-13
-4.00311e-13
-3.97776e-13
-4.07258e-13
-4.18672e-13
-4.1619e-13
-4.14322e-13
-4.08127e-13
-4.0246e-13
-4.00968e-13
-3.98184e-13
-3.93925e-13
-3.91567e-13
-3.92292e-13
-3.96922e-13
-4.09038e-13
-4.20014e-13
-4.14066e-13
-4.09836e-13
-4.03266e-13
-3.94884e-13
-3.99058e-13
-3.93332e-13
-3.89364e-13
-3.96625e-13
-3.91016e-13
-3.75818e-13
-3.68491e-13
-3.65423e-13
-3.62937e-13
-3.51963e-13
-3.4565e-13
-3.39502e-13
-3.26363e-13
-3.30186e-13
-3.26512e-13
-3.22496e-13
-3.08702e-13
-3.06085e-13
-2.97817e-13
-2.94388e-13
-2.87414e-13
-2.79734e-13
-2.70735e-13
-2.64015e-13
-2.56982e-13
-2.54721e-13
-2.46767e-13
-2.39865e-13
-2.33401e-13
-2.28512e-13
-2.23692e-13
-2.11434e-13
-2.03152e-13
-1.90589e-13
-1.81074e-13
-1.81871e-13
-1.77207e-13
-1.68501e-13
-1.60064e-13
-1.50163e-13
-1.38947e-13
-1.32568e-13
-1.24199e-13
-1.18903e-13
-1.0834e-13
-1.04322e-13
-1.00466e-13
-9.92059e-14
-9.21509e-14
-7.97393e-14
-7.36449e-14
-7.36763e-14
-6.73111e-14
-6.02294e-14
-4.62189e-14
-4.4626e-14
-4.48915e-14
-4.29654e-14
-3.25385e-14
-3.02475e-14
-2.13246e-14
-5.07442e-15
-3.74278e-13
-3.78263e-13
-3.85377e-13
-3.84824e-13
-3.90192e-13
-3.89004e-13
-3.93857e-13
-3.86765e-13
-3.81913e-13
-3.87093e-13
-3.94023e-13
-3.9554e-13
-3.94392e-13
-3.97016e-13
-4.03895e-13
-4.15652e-13
-4.11045e-13
-4.10516e-13
-4.06344e-13
-4.09284e-13
-4.0825e-13
-4.18105e-13
-4.20226e-13
-4.13964e-13
-4.13951e-13
-3.99307e-13
-3.9443e-13
-3.96211e-13
-3.98505e-13
-4.00605e-13
-3.95037e-13
-3.92148e-13
-4.11431e-13
-4.13158e-13
-4.14773e-13
-4.17365e-13
-4.0878e-13
-3.97335e-13
-3.99367e-13
-3.94836e-13
-3.87907e-13
-3.91807e-13
-3.87562e-13
-3.82915e-13
-3.71752e-13
-3.63982e-13
-3.65213e-13
-3.55539e-13
-3.42827e-13
-3.3777e-13
-3.38232e-13
-3.39956e-13
-3.24071e-13
-3.18092e-13
-3.10022e-13
-3.07636e-13
-2.99514e-13
-2.92887e-13
-2.85625e-13
-2.77019e-13
-2.72959e-13
-2.66744e-13
-2.55996e-13
-2.52075e-13
-2.50251e-13
-2.45272e-13
-2.35844e-13
-2.31932e-13
-2.25014e-13
-2.11743e-13
-2.00854e-13
-1.92826e-13
-1.87769e-13
-1.85221e-13
-1.81004e-13
-1.74092e-13
-1.60973e-13
-1.43167e-13
-1.38654e-13
-1.31702e-13
-1.22072e-13
-1.18878e-13
-1.15164e-13
-1.02347e-13
-1.03775e-13
-1.0459e-13
-9.46747e-14
-8.00572e-14
-7.21604e-14
-6.63714e-14
-5.9097e-14
-5.35128e-14
-4.90182e-14
-5.06242e-14
-4.38401e-14
-4.25952e-14
-3.5228e-14
-2.36316e-14
-1.85638e-14
-8.16649e-15
-3.76949e-13
-3.80229e-13
-3.82306e-13
-3.84375e-13
-3.85551e-13
-3.88223e-13
-3.99345e-13
-3.91069e-13
-3.85154e-13
-3.87547e-13
-3.9248e-13
-3.92511e-13
-3.96361e-13
-3.97718e-13
-4.12353e-13
-4.18326e-13
-4.14413e-13
-4.12142e-13
-4.09605e-13
-4.11921e-13
-4.16762e-13
-4.19085e-13
-4.15073e-13
-4.10414e-13
-4.12056e-13
-4.06035e-13
-4.00131e-13
-4.01326e-13
-3.98461e-13
-3.98194e-13
-3.90572e-13
-3.88616e-13
-4.02685e-13
-4.14715e-13
-4.22251e-13
-4.22014e-13
-4.0772e-13
-3.98973e-13
-3.99015e-13
-3.99635e-13
-3.93492e-13
-3.93611e-13
-3.86376e-13
-3.84887e-13
-3.7283e-13
-3.67101e-13
-3.5888e-13
-3.60847e-13
-3.4957e-13
-3.43334e-13
-3.39141e-13
-3.32078e-13
-3.22818e-13
-3.24382e-13
-3.20246e-13
-3.07604e-13
-3.02614e-13
-2.93207e-13
-2.88265e-13
-2.75115e-13
-2.64363e-13
-2.6325e-13
-2.56924e-13
-2.52643e-13
-2.50678e-13
-2.39947e-13
-2.38163e-13
-2.35128e-13
-2.27972e-13
-2.19382e-13
-2.03576e-13
-1.95003e-13
-1.84947e-13
-1.81242e-13
-1.81993e-13
-1.75032e-13
-1.61514e-13
-1.45481e-13
-1.41659e-13
-1.33773e-13
-1.22051e-13
-1.17435e-13
-1.09779e-13
-1.07781e-13
-1.0041e-13
-1.00931e-13
-9.3476e-14
-8.18525e-14
-6.97991e-14
-6.70531e-14
-6.76012e-14
-5.39959e-14
-4.84009e-14
-4.66722e-14
-4.41651e-14
-3.64294e-14
-3.16572e-14
-2.50248e-14
-1.9651e-14
-6.7024e-15
-3.8171e-13
-3.78576e-13
-3.76964e-13
-3.88497e-13
-3.90793e-13
-3.89593e-13
-3.90485e-13
-3.90529e-13
-3.90185e-13
-3.90888e-13
-3.91747e-13
-3.92461e-13
-4.01666e-13
-4.02073e-13
-4.08286e-13
-4.13954e-13
-4.0557e-13
-4.10446e-13
-4.12007e-13
-4.1733e-13
-4.25797e-13
-4.35273e-13
-4.18311e-13
-4.11469e-13
-4.05881e-13
-4.01159e-13
-4.08076e-13
-4.0434e-13
-4.08205e-13
-4.02827e-13
-3.96417e-13
-3.95921e-13
-3.99748e-13
-4.13005e-13
-4.14904e-13
-4.17099e-13
-4.07078e-13
-4.10589e-13
-4.01783e-13
-4.00352e-13
-3.93561e-13
-3.91149e-13
-3.85181e-13
-3.78636e-13
-3.724e-13
-3.72693e-13
-3.63103e-13
-3.65218e-13
-3.5019e-13
-3.44579e-13
-3.40137e-13
-3.32782e-13
-3.25402e-13
-3.18573e-13
-3.19991e-13
-3.14576e-13
-3.11985e-13
-2.9449e-13
-2.83004e-13
-2.72355e-13
-2.67176e-13
-2.60824e-13