/*--------------------------------*- C++ -*----------------------------------*\
| =========                 |                                                 |
| \\      /  F ield         | OpenFOAM: The Open Source CFD Toolbox           |
|  \\    /   O peration     | Version:  v2012                                 |
|   \\  /    A nd           | Website:  www.openfoam.com                      |
|    \\/     M anipulation  |                                                 |
\*---------------------------------------------------------------------------*/
FoamFile
{
    version     2.0;
    format      ascii;
    class       volVectorField;
    location    "0";
    object      U;
}
// * * * * * * * * * * * * * * * * * * * * * * * * * * * * * * * * * * * * * //

dimensions      [0 1 -1 0 0 0 0];


internalField   nonuniform List<vector> 
4000
(
(0.000219662 0.0256558 0)
(0.00478329 -0.0120855 0)
(0.00428975 -0.071243 0)
(0.18581 0.01089 0)
(0.0209124 0.0513484 0)
(-0.219066 -0.00784363 0)
(-0.0015992 -0.0223746 0)
(-0.0551838 0.047066 0)
(0.0515372 -0.0609751 0)
(-0.0157428 -0.0742387 0)
(0.157959 0.0414919 0)
(-0.00397835 0.0404308 0)
(-0.0239304 0.0563551 0)
(-0.0487627 0.0298064 0)
(-0.0652085 -0.0637401 0)
(0.041031 -0.0996099 0)
(0.11858 0.0496614 0)
(-0.0468626 0.183206 0)
(-0.0688853 -0.057656 0)
(0.0399927 -0.0662498 0)
(0.0158066 0.0338014 0)
(0.0503084 0.0318878 0)
(0.0598028 -0.0469246 0)
(0.00415558 -0.120952 0)
(0.020265 0.0576878 0)
(-0.0685698 0.0479121 0)
(-0.0244471 -0.0491954 0)
(-0.0198739 0.00448341 0)
(0.0493836 0.0894768 0)
(0.0735962 0.030865 0)
(-0.0801317 -0.0551335 0)
(0.045537 -0.179556 0)
(0.0806541 0.138318 0)
(-0.084058 0.166705 0)
(0.0243585 -0.0850351 0)
(0.000623378 -0.107344 0)
(0.00152439 0.00770073 0)
(-0.062111 0.08479 0)
(0.0158891 -0.114088 0)
(0.0248172 0.0218847 0)
(0.0131791 0.0748864 0)
(0.0406762 -0.0167966 0)
(-0.0593387 -0.0801646 0)
(0.230428 -0.0305829 0)
(0.111114 0.05352 0)
(-0.0746206 0.0591436 0)
(-0.0025984 -0.0254086 0)
(0.0681121 0.0195529 0)
(0.0703776 -0.0452104 0)
(-0.0704206 0.137058 0)
(-0.170011 -0.0393303 0)
(0.012036 -0.0905196 0)
(0.141405 0.0934274 0)
(0.00662991 -0.0487291 0)
(-0.122467 -0.0274412 0)
(0.0071102 -0.0235262 0)
(-0.0410591 0.00607582 0)
(0.0302768 0.0332262 0)
(0.0535487 0.0181793 0)
(-0.00785824 -0.0391735 0)
(-0.0695749 -0.0367245 0)
(-0.00754608 -0.0325324 0)
(0.00630049 0.0304509 0)
(0.0142265 0.0229197 0)
(0.0811327 -0.0107754 0)
(0.0594333 -0.0442202 0)
(0.0970435 0.110847 0)
(-0.0665938 0.0355761 0)
(-0.0557015 -0.0627928 0)
(0.113759 0.00414208 0)
(0.00548645 0.0326631 0)
(0.0290087 -0.0313718 0)
(0.0449288 -0.0421681 0)
(0.0498901 0.00174901 0)
(-0.00488008 0.0190126 0)
(-0.0101979 0.0762513 0)
(-0.0453259 0.0300177 0)
(0.0759112 -0.0428386 0)
(0.0369838 -0.0178035 0)
(0.0722877 -0.0566704 0)
(0.0339987 0.00215676 0)
(0.0465188 0.0154416 0)
(0.130343 0.0380401 0)
(-0.0951641 0.00894287 0)
(-0.0341705 -0.00691686 0)
(-0.0327319 -0.0443505 0)
(0.122767 0.00798867 0)
(-0.00917577 -0.0226998 0)
(0.0759195 0.0915678 0)
(-0.0232418 -0.0262132 0)
(0.0607283 -0.00922896 0)
(-0.0879134 -0.0175292 0)
(0.183917 -0.0923164 0)
(0.166913 0.127361 0)
(-0.0294955 0.110682 0)
(-0.0387824 -0.097207 0)
(-0.0815171 -0.0909213 0)
(0.0999341 0.0695231 0)
(-0.000627764 0.0697062 0)
(0.0204837 -0.0388819 0)
(-0.0065971 0.0377816 0)
(-0.0283586 -0.0049238 0)
(0.0749891 -0.168829 0)
(-0.000553077 -0.0131498 0)
(0.0104091 0.160458 0)
(-0.0510365 -0.0521185 0)
(0.0216468 0.0177122 0)
(0.0127153 0.0373667 0)
(0.0766687 -0.181389 0)
(-0.0846303 0.0985718 0)
(-0.0486691 0.108992 0)
(0.0168392 -0.0573951 0)
(-0.0108045 0.00398581 0)
(0.036293 0.102497 0)
(0.000408201 -0.106335 0)
(-0.015926 -0.230045 0)
(-0.0107292 0.154667 0)
(-0.0114616 0.243922 0)
(0.0653954 -0.0695637 0)
(0.011832 -0.100923 0)
(0.011792 -0.0481331 0)
(-0.0653752 0.0503445 0)
(0.0403502 0.0527498 0)
(-0.117859 -0.0440632 0)
(0.0319796 0.0373966 0)
(-0.00557759 0.0602165 0)
(0.0120714 -0.100521 0)
(-0.128194 -0.0358946 0)
(-0.0411434 0.122959 0)
(-0.00835975 0.0621321 0)
(-0.0133776 -0.0197415 0)
(-0.291093 -0.190511 0)
(0.0203475 0.00438467 0)
(0.0919493 0.112161 0)
(0.152006 -0.0960703 0)
(0.0538081 -0.037726 0)
(0.019235 0.151703 0)
(0.11436 -0.0140633 0)
(0.0131048 -0.143442 0)
(0.0383113 0.031938 0)
(-0.0280601 0.163802 0)
(-0.000587379 0.0122932 0)
(-0.0234442 -0.138618 0)
(0.0661911 0.0351252 0)
(-0.184658 0.101487 0)
(-0.0979834 0.00180374 0)
(-0.0220474 -0.142193 0)
(0.0219661 -0.088704 0)
(-0.0841444 0.0606386 0)
(-0.0113088 0.166003 0)
(0.0647352 0.0306774 0)
(-0.0353453 -0.191395 0)
(0.0152256 -0.0454838 0)
(0.0635675 0.0488188 0)
(-0.0583583 0.0569405 0)
(-0.0502594 0.0424181 0)
(-0.050927 0.00589512 0)
(0.00708068 -0.123251 0)
(0.0206613 -0.0920714 0)
(-0.0453747 0.210974 0)
(-0.122029 0.028519 0)
(-0.052128 -0.137547 0)
(-0.0186503 -0.00622113 0)
(-0.0178322 -0.0149286 0)
(-0.0105823 -0.0239597 0)
(-0.0220234 0.0248743 0)
(-0.0885088 0.0913066 0)
(0.040946 0.00182551 0)
(-0.025002 -0.100182 0)
(0.0437279 0.0925655 0)
(0.00560402 0.0759144 0)
(0.11362 -0.159643 0)
(0.0173791 -0.0323542 0)
(-0.00600409 0.139944 0)
(-0.0572304 0.00224315 0)
(-0.0131191 -0.0524453 0)
(-0.00141804 0.0217512 0)
(0.0163192 0.0168063 0)
(-0.00322955 -0.0630387 0)
(0.119961 -0.0439693 0)
(-0.00487725 -0.0492521 0)
(0.0996339 0.0139204 0)
(0.0137677 0.116325 0)
(-0.128825 0.0599604 0)
(0.0380945 -0.0486989 0)
(0.0254502 -0.0520953 0)
(0.00970917 -0.0783143 0)
(0.00436537 0.017087 0)
(-0.0556499 0.0794023 0)
(0.0137644 -0.0218127 0)
(0.0185842 0.0470533 0)
(0.00403913 0.0126083 0)
(-0.0214231 -0.218267 0)
(0.0247858 0.0312086 0)
(0.133251 0.214944 0)
(0.0303652 -0.0464848 0)
(0.0042304 -0.138203 0)
(0.00133561 0.108418 0)
(0.0368745 0.0833445 0)
(0.0530093 -0.0710739 0)
(0.00446944 0.0169665 0)
(-0.00189937 0.0133091 0)
(-0.00246478 -0.17022 0)
(-0.00217378 0.0430328 0)
(0.00194595 0.173981 0)
(-0.0121101 -0.0443636 0)
(-0.0153274 -0.0529337 0)
(-0.0219843 0.082994 0)
(0.0487059 0.00306849 0)
(-0.133917 0.0117636 0)
(0.0605061 0.0330804 0)
(0.00918646 -0.133878 0)
(0.0644514 -0.0867213 0)
(0.0734356 0.140683 0)
(-0.0130073 0.0146403 0)
(-0.0356966 -0.05523 0)
(-0.0291415 0.00239238 0)
(-0.0302792 0.0889425 0)
(0.0152935 0.0767331 0)
(-0.0541163 -0.107816 0)
(0.0358617 -0.091974 0)
(0.0357024 0.0897845 0)
(0.0157964 0.0407437 0)
(-0.0121721 0.0530377 0)
(0.0122559 -0.099321 0)
(-0.0186696 -0.0802637 0)
(0.111296 0.0664536 0)
(-0.0245155 0.115 0)
(-0.0730062 0.0792859 0)
(-0.104789 -0.027303 0)
(0.14584 0.0341411 0)
(-0.0167495 -0.056421 0)
(-0.130363 -0.116862 0)
(-0.0111905 -0.061561 0)
(-0.0448028 -0.0840384 0)
(-0.0906475 0.0490283 0)
(0.104077 0.0937789 0)
(-0.0202237 -0.0561169 0)
(0.051112 0.0842602 0)
(-0.0214432 -0.000477455 0)
(0.129935 -0.0298303 0)
(0.0979977 0.0574768 0)
(-0.100814 -0.0213223 0)
(-0.0915962 0.0693401 0)
(0.00944568 0.116044 0)
(-0.0280357 -0.109584 0)
(0.0131901 -0.143707 0)
(-0.0259986 0.0337477 0)
(-0.0972477 0.0852949 0)
(-0.0765655 -0.0629136 0)
(0.114978 0.0428443 0)
(0.0643845 -0.04615 0)
(-0.0775928 -0.0529016 0)
(-0.0602717 0.0392375 0)
(-0.0135112 0.029283 0)
(-0.0161921 0.0932636 0)
(-0.0272761 -0.0387536 0)
(-0.0494951 -0.0676019 0)
(-0.010348 0.0554642 0)
(-0.0658254 0.0761419 0)
(0.0139092 -0.0346788 0)
(-0.0916624 -0.0581973 0)
(0.000354011 -0.0978672 0)
(-0.0586531 -0.0404294 0)
(-0.0314877 0.00546749 0)
(0.0242682 0.113588 0)
(-0.0518914 0.0873683 0)
(0.0158907 -0.0388054 0)
(-0.0881127 -0.124555 0)
(0.055323 -0.0235512 0)
(-0.0593044 0.00103738 0)
(-0.0164375 -0.0969118 0)
(0.0100759 0.0275122 0)
(0.0252803 0.127275 0)
(0.0907008 0.03827 0)
(-0.0732682 -0.0740565 0)
(0.0238688 0.0532893 0)
(-0.0442527 0.0421583 0)
(0.0748972 -0.134737 0)
(0.0717108 -0.0690268 0)
(0.0153025 0.0188334 0)
(-0.0893663 0.0365212 0)
(0.0298586 0.10048 0)
(0.0318317 0.0616778 0)
(-0.079194 -0.0955136 0)
(-0.0641167 -0.0317511 0)
(-0.0433524 -0.00505316 0)
(0.0634126 0.0292471 0)
(0.0603447 0.0168418 0)
(0.0165045 -0.0490571 0)
(0.0432546 -0.0451658 0)
(0.145242 0.0473645 0)
(0.0345182 -0.0116146 0)
(-0.0994451 -0.0601776 0)
(-0.0137638 0.027213 0)
(0.0368125 0.0370211 0)
(-0.0142956 0.0371072 0)
(-0.0748009 -0.00091528 0)
(-0.039826 -0.0088423 0)
(-1.21627e-05 -0.0146234 0)
(-0.000615826 0.00227045 0)
(-0.00146001 0.0145596 0)
(-0.00208204 -0.132106 0)
(0.00242844 -0.0931801 0)
(0.136887 0.178632 0)
(-0.0777717 0.197093 0)
(-0.0518531 -0.0800663 0)
(0.0508241 -0.117663 0)
(-0.0647829 0.0403282 0)
(0.0493369 -0.0291941 0)
(0.000924591 -0.00335914 0)
(-0.052988 -0.0372097 0)
(-0.046662 -0.0223973 0)
(0.00212376 0.0621486 0)
(0.00314377 0.105656 0)
(-0.0125785 -0.108957 0)
(-0.00579591 -0.10071 0)
(0.048416 0.264639 0)
(0.131133 0.00941728 0)
(0.183521 -0.194563 0)
(0.0553265 -0.157023 0)
(0.0397949 0.0610289 0)
(0.0412885 0.113836 0)
(-0.0537764 0.0167079 0)
(-0.0141388 0.0151344 0)
(-0.120741 -0.147805 0)
(0.0210679 -0.143524 0)
(0.0525345 0.246997 0)
(-0.00632931 0.173503 0)
(-0.0039822 -0.0732601 0)
(-0.0509574 -0.0318884 0)
(-0.0313123 -0.0367053 0)
(-0.0836617 -0.0737761 0)
(0.0563342 -0.0609241 0)
(0.0294324 -0.027278 0)
(0.0350024 -0.0179153 0)
(0.00454085 0.0326691 0)
(-0.0104811 0.151119 0)
(0.02325 -0.0299471 0)
(0.0116972 -0.225348 0)
(0.0628066 -0.0521869 0)
(0.106252 0.165738 0)
(0.0293089 0.178221 0)
(-0.0773142 0.0321696 0)
(-0.0286361 -0.0051715 0)
(-0.0383384 -0.104327 0)
(-0.0850195 0.00283747 0)
(-0.0173212 0.136356 0)
(-0.0561177 -0.0176818 0)
(-0.104578 -0.0465463 0)
(0.0705301 -0.162804 0)
(0.0850983 0.0584903 0)
(-0.0129453 0.0804271 0)
(0.00884988 -0.0998282 0)
(-0.0389416 0.0795448 0)
(0.0179578 0.0674817 0)
(-0.0521531 -0.147961 0)
(0.0249532 0.0224099 0)
(0.0013687 0.128183 0)
(-0.0635239 -0.134247 0)
(-0.0876934 0.0538404 0)
(-0.00152812 0.0353526 0)
(0.00847468 -0.0968266 0)
(-0.0940643 0.0115127 0)
(-0.0190176 -0.0361605 0)
(-0.0249939 -0.0418545 0)
(0.159139 0.11372 0)
(0.0760211 -0.0363952 0)
(0.0304555 -0.0908265 0)
(-0.0157566 0.00862782 0)
(-0.0288985 0.0708058 0)
(-0.0658524 -0.0264954 0)
(0.00326908 -0.0389265 0)
(-0.0320351 0.0328834 0)
(0.0340945 0.0749015 0)
(-0.000519827 0.0699464 0)
(0.0120475 0.0778871 0)
(-0.0722429 -0.0636133 0)
(0.0955526 -0.203265 0)
(0.0454408 -0.126632 0)
(0.0864878 0.123772 0)
(-0.00484007 -0.00412261 0)
(0.0133057 0.057115 0)
(0.0408636 0.18983 0)
(-0.0622379 0.0670628 0)
(0.00861416 -0.192193 0)
(0.0369719 -0.0895965 0)
(0.0378102 -0.0496584 0)
(0.0729582 0.00876177 0)
(0.0478533 0.0396883 0)
(-0.143725 -0.0212578 0)
(0.0679285 -0.0111897 0)
(0.0909043 0.0102596 0)
(0.123471 -0.0365721 0)
(-0.140588 0.0263261 0)
(-0.0202255 0.0231448 0)
(0.121868 0.00801056 0)
(-0.0846207 0.146658 0)
(-0.208945 0.021509 0)
(-0.129873 -0.0671436 0)
(-0.000819752 0.0215544 0)
(0.00442918 0.00484309 0)
(-0.0934725 -0.121882 0)
(-0.0458472 -0.0777982 0)
(-0.0164941 0.0695128 0)
(0.140847 0.161816 0)
(-0.0381891 0.0326557 0)
(-0.0319395 -0.172878 0)
(-0.0830534 0.00730366 0)
(-0.0294645 0.0440805 0)
(0.125165 -0.0512285 0)
(-0.0481995 0.124253 0)
(-0.053498 -0.0924132 0)
(0.0365861 -0.0134914 0)
(0.0264788 0.109675 0)
(0.0161248 -0.0912187 0)
(-0.0344513 -0.100979 0)
(0.0725084 0.024088 0)
(0.0916514 -0.0537074 0)
(0.122583 -0.0230723 0)
(0.0336531 0.0446935 0)
(-0.0707386 0.0424528 0)
(-0.0358678 0.201674 0)
(0.0384906 -0.0482168 0)
(0.0839397 -0.0501378 0)
(-0.258918 -0.0715173 0)
(-0.106558 -0.206527 0)
(0.0654316 0.0663351 0)
(0.0857413 0.202842 0)
(0.155036 0.014137 0)
(0.0480354 -0.0483894 0)
(-0.0990539 0.0971116 0)
(-0.146553 -0.0928841 0)
(0.0251737 -0.226003 0)
(0.112283 -0.0110804 0)
(0.0848163 0.0467328 0)
(0.105496 0.0862233 0)
(-0.00540039 0.171093 0)
(-0.0313806 -0.0715145 0)
(-0.092951 -0.221501 0)
(-0.0315389 -0.0871039 0)
(-0.0128951 0.110665 0)
(-0.003217 0.14943 0)
(-0.0599539 0.132626 0)
(-0.115581 -0.0265984 0)
(0.0180768 -0.0502542 0)
(0.0391764 0.0217908 0)
(0.0663113 0.0494161 0)
(0.157868 -0.0427288 0)
(0.0351109 -0.0499075 0)
(-0.0896205 -0.0799978 0)
(-0.085289 0.00351345 0)
(0.135439 -0.0818807 0)
(0.0247765 0.0139588 0)
(0.00672255 0.0771043 0)
(0.0501801 0.0376024 0)
(0.0406235 -0.0501946 0)
(-0.00116176 -0.0347468 0)
(0.0916062 0.063803 0)
(0.0184235 0.141678 0)
(-0.033274 -0.00892687 0)
(0.00132682 -0.103606 0)
(-0.0356547 -0.0451539 0)
(0.0163546 -0.0786197 0)
(0.0414422 0.0361555 0)
(-0.0125841 9.69987e-05 0)
(-0.0655107 -0.0152549 0)
(-0.0496355 0.0714055 0)
(0.0406917 -0.0805684 0)
(-0.0531048 -0.0689218 0)
(0.0122627 0.136093 0)
(-0.00679606 -0.113252 0)
(-0.0139113 -0.0497959 0)
(0.0339627 0.101324 0)
(0.0521041 0.00703339 0)
(-0.0493606 0.0301486 0)
(0.0418716 0.0763099 0)
(0.0234983 -0.00837789 0)
(-0.0569186 -0.238164 0)
(0.0524179 -0.10928 0)
(-0.0297264 0.113539 0)
(-0.0214328 0.0990318 0)
(-0.076936 -0.016644 0)
(0.085951 0.0577807 0)
(0.116021 0.0799391 0)
(0.0580389 -0.0571722 0)
(0.0345262 -0.0697525 0)
(-0.0541793 0.00152818 0)
(-0.127868 0.0242412 0)
(0.0258892 0.050884 0)
(0.0353169 -0.0229203 0)
(-0.0778101 0.00102904 0)
(-0.0965135 -0.0972542 0)
(-0.0618566 0.000437938 0)
(-0.0250879 0.0979229 0)
(0.0247563 -0.0195399 0)
(-0.0268112 0.0606332 0)
(-0.0163349 0.191868 0)
(-0.0488873 -0.0377847 0)
(0.0136187 -0.0884883 0)
(-0.000628234 0.0164805 0)
(-0.00132671 0.022151 0)
(-0.0214839 -0.0877361 0)
(0.0321775 -0.0773169 0)
(-0.00145029 0.00117797 0)
(0.0106216 0.0858977 0)
(-0.00691083 0.149287 0)
(0.0246316 0.114995 0)
(-0.122481 -0.0763946 0)
(-0.0886331 -0.231257 0)
(0.063414 -0.0382645 0)
(0.0887646 0.118054 0)
(0.040495 -0.0414704 0)
(0.018011 -0.0284416 0)
(0.124183 0.0332891 0)
(0.0161216 0.0697741 0)
(-0.0143096 0.0113947 0)
(-0.0293276 -0.190865 0)
(0.00367819 -0.0276573 0)
(0.00254144 0.0934433 0)
(-0.0151666 0.210372 0)
(-0.00337565 0.179696 0)
(0.00620618 -0.0715001 0)
(-0.0163746 -0.125442 0)
(0.018618 0.0435769 0)
(0.00515477 -0.032567 0)
(0.0481595 -0.0602184 0)
(-0.00293444 0.0148417 0)
(-0.0120607 0.104347 0)
(0.0315503 -0.037316 0)
(0.0200928 0.0100186 0)
(-0.117981 0.0768788 0)
(0.0313026 -0.135202 0)
(0.12245 -0.224129 0)
(-0.025864 -0.0683653 0)
(-0.0514866 0.0612583 0)
(0.0864116 0.0107976 0)
(0.0630743 0.0568035 0)
(0.16598 0.211932 0)
(-0.114414 -0.0304351 0)
(-0.0143978 -0.223656 0)
(-0.0382415 0.0471079 0)
(-0.0261599 0.159181 0)
(-0.0024451 0.169077 0)
(-0.0155176 -0.0444876 0)
(-0.032346 -0.167134 0)
(-0.0491964 -0.040065 0)
(0.0674572 0.0183415 0)
(0.104006 -0.0318827 0)
(-0.0333918 0.171232 0)
(-0.0300669 0.0428929 0)
(-0.0211891 -0.182146 0)
(0.0190184 -0.172553 0)
(-0.0194668 0.0736801 0)
(0.0758908 0.0717138 0)
(0.0403284 0.0626168 0)
(-0.0124622 -0.0210887 0)
(0.0107631 0.05753 0)
(0.0267508 0.0342023 0)
(-0.00637722 -0.0136573 0)
(0.00440217 -0.00827136 0)
(0.0119441 -0.0300592 0)
(-0.0114398 -0.0869059 0)
(0.00169909 -0.0851763 0)
(0.0305519 0.101267 0)
(0.0201459 0.00936163 0)
(-0.0825388 0.00251231 0)
(0.0462601 0.042675 0)
(0.0928275 -0.0553809 0)
(-0.118996 -0.00195245 0)
(-0.0641765 -0.0485508 0)
(0.043537 -0.0909516 0)
(-0.110072 0.00721474 0)
(0.064983 -0.00117877 0)
(0.062115 0.0915562 0)
(-0.0529844 0.166277 0)
(-0.124263 -0.000553115 0)
(-0.00216993 -0.0644388 0)
(-0.0518484 -0.17525 0)
(-0.0598036 -0.0712082 0)
(0.0998761 0.120885 0)
(0.00764073 0.128198 0)
(0.045878 -0.0465909 0)
(-0.0964247 -0.00938072 0)
(-0.071856 0.156018 0)
(-0.0129351 -0.0418417 0)
(-0.0329579 -0.0777252 0)
(-0.089878 0.0217333 0)
(0.0683145 -0.0202352 0)
(0.106867 -0.0116211 0)
(-0.0553612 0.0480942 0)
(-0.0315103 0.0508914 0)
(-0.0428635 0.01844 0)
(-0.069872 -0.136875 0)
(0.0442634 -0.0392787 0)
(0.016216 0.0353492 0)
(0.0237769 0.150575 0)
(-0.0639648 0.164186 0)
(-0.0948832 -0.0767603 0)
(0.0218418 -0.0977545 0)
(-0.00190471 0.0158467 0)
(-0.00100168 0.0248661 0)
(-0.00648583 -0.0539261 0)
(0.0198376 -0.110392 0)
(-0.037621 0.0389197 0)
(0.0141188 0.0818818 0)
(-0.0161384 0.134606 0)
(0.0301953 0.110634 0)
(-0.000852851 -0.157422 0)
(-0.0168138 -0.149784 0)
(0.0329242 -0.0989436 0)
(-0.00776382 0.0309762 0)
(0.0365347 0.0663973 0)
(-0.0482209 0.0577544 0)
(-0.0243609 0.0752624 0)
(-0.00535289 -0.127606 0)
(-0.0212667 -0.0128652 0)
(0.00161917 0.0385695 0)
(-0.00829594 0.00426796 0)
(-0.00167859 0.018575 0)
(0.0567758 0.086985 0)
(-0.0787909 0.0978037 0)
(-0.0757157 -0.0380144 0)
(-0.0591452 0.0811832 0)
(-0.142044 -0.17363 0)
(0.0658776 -0.0839514 0)
(0.0420388 0.0328312 0)
(-0.0131546 0.0121446 0)
(0.0711021 0.0451211 0)
(0.045457 0.0575266 0)
(-0.0582284 0.0751376 0)
(0.0177166 -0.0446457 0)
(0.0137476 -0.242019 0)
(0.109738 -0.0427681 0)
(-0.0474595 0.141505 0)
(-0.196554 -0.0509093 0)
(0.00526832 -0.11637 0)
(-0.00259264 0.105323 0)
(-0.0215146 0.216039 0)
(0.016384 -0.179664 0)
(-0.000617183 -0.215335 0)
(-0.0214283 0.0651754 0)
(0.212539 0.292038 0)
(-0.0727437 0.172798 0)
(0.196389 -0.128269 0)
(-0.0093699 -0.103442 0)
(-0.0717487 0.089675 0)
(-0.0071155 -0.197905 0)
(0.100033 -0.04737 0)
(0.128835 0.149801 0)
(0.0566448 0.0744334 0)
(0.138462 -0.0993006 0)
(-0.118724 -0.0583145 0)
(-0.00164133 -0.0641867 0)
(0.0308953 0.0744163 0)
(0.108848 0.0447413 0)
(0.108009 -0.00901259 0)
(0.0220544 -0.017933 0)
(0.0105705 -0.0473845 0)
(-0.030953 -0.0175065 0)
(0.0616535 0.0854657 0)
(0.0172549 -0.0501233 0)
(0.0604821 -0.047928 0)
(-0.0284085 0.0635034 0)
(0.00264965 -0.0317358 0)
(-0.00843585 0.0241061 0)
(-0.0157429 0.0550723 0)
(-0.0250866 -0.165331 0)
(-0.0043019 -0.0039677 0)
(0.00430443 0.141619 0)
(0.00623192 -0.0263038 0)
(0.0141643 0.00455967 0)
(-0.0322006 -0.0326114 0)
(-0.0393543 -0.0775597 0)
(0.052229 0.103685 0)
(-0.0560292 0.203891 0)
(0.0195515 0.0195783 0)
(-0.0197543 -0.0785228 0)
(-0.0574674 -0.116158 0)
(0.025475 -0.175268 0)
(-0.0784969 0.0433934 0)
(0.0252107 0.0963108 0)
(-0.0720557 0.0801782 0)
(-0.100884 0.0401389 0)
(-0.0668691 0.07754 0)
(0.0940227 -0.109279 0)
(0.0523388 -0.0687816 0)
(0.0159887 -0.0444043 0)
(0.0772132 -0.0553853 0)
(-0.0212487 0.0877748 0)
(-0.112077 0.10186 0)
(-0.0621175 0.00332562 0)
(0.00888266 -0.043128 0)
(0.0231639 -0.172107 0)
(0.056085 0.0472116 0)
(0.00223548 0.175829 0)
(-0.0143708 0.0763839 0)
(-0.0715 0.0611449 0)
(0.0296714 -0.0416847 0)
(-0.0482605 -0.0868593 0)
(-0.00013279 0.0274916 0)
(-0.00212248 0.00601287 0)
(0.0138962 0.0124933 0)
(0.0618249 -0.00334587 0)
(-0.0488436 -0.0196444 0)
(-0.0284763 -0.0289395 0)
(0.119865 0.0243822 0)
(0.0209386 0.111946 0)
(0.17589 0.0236329 0)
(-0.126153 -0.0906371 0)
(-0.0528235 -0.0819807 0)
(0.0291086 -0.192438 0)
(0.0583271 0.00142353 0)
(0.00800641 0.161884 0)
(0.0387699 0.0290889 0)
(0.0278411 0.0271405 0)
(-0.0046461 -0.0431792 0)
(-0.0451526 -0.0639904 0)
(-0.0179724 0.000190955 0)
(0.0233278 0.168651 0)
(0.0166672 0.209385 0)
(0.00539174 -0.0267426 0)
(-0.0180723 0.0494648 0)
(-0.0606482 0.0250997 0)
(0.0120906 -0.253458 0)
(0.041827 -0.179153 0)
(0.0958875 0.0949524 0)
(0.0514162 0.139309 0)
(-0.0951967 -0.0180471 0)
(0.0191682 0.0982631 0)
(-0.0856075 -0.143172 0)
(-0.0191177 -0.172994 0)
(-0.00224041 0.0080154 0)
(-0.000868253 -0.00739446 0)
(0.0209887 0.128715 0)
(-0.031022 0.00936701 0)
(-0.0532031 -0.197259 0)
(-0.0284674 0.0729234 0)
(0.000531992 0.0281793 0)
(0.154274 -0.0844629 0)
(-0.0303681 0.0484517 0)
(-0.0220558 -0.0237312 0)
(0.00167718 0.140779 0)
(0.0059811 0.160051 0)
(0.0413724 -0.0149788 0)
(-0.25284 -0.00854075 0)
(0.052896 -0.0507222 0)
(0.054977 -0.183457 0)
(0.00600937 -0.0352113 0)
(-0.140363 0.0184266 0)
(0.10519 0.0286607 0)
(0.15867 0.114212 0)
(-0.0563863 0.0754603 0)
(0.0516807 -0.161189 0)
(-0.000928707 -0.106417 0)
(0.115959 -0.0804584 0)
(0.120771 0.100955 0)
(-0.0175332 0.0395678 0)
(0.021044 -0.000380511 0)
(-0.0537939 0.14319 0)
(-0.0177869 -0.0399468 0)
(-0.0590569 -0.058318 0)
(0.0817017 -0.00951195 0)
(0.00927855 0.0205832 0)
(0.000792057 -0.00369138 0)
(-0.00471333 0.0226541 0)
(0.0729553 -0.0130654 0)
(-0.0520918 0.0167892 0)
(-0.143624 0.0173984 0)
(-0.113925 -0.0207217 0)
(0.0127936 -0.138661 0)
(0.0542768 -0.0297401 0)
(0.0244789 0.109441 0)
(0.0192998 -0.0530948 0)
(-0.0316479 0.0489197 0)
(-0.0637861 0.190209 0)
(0.17926 -0.0109549 0)
(0.0544102 -0.156141 0)
(0.053669 -0.080804 0)
(-0.0674836 0.0107415 0)
(-0.0613396 -0.038788 0)
(0.121694 0.0565444 0)
(-0.0494713 0.189157 0)
(-0.101745 -0.0181177 0)
(-0.0399973 -0.19174 0)
(0.0852568 -0.0422815 0)
(-0.00159551 0.0615478 0)
(0.0322349 -0.0347297 0)
(0.0532585 -0.054572 0)
(-0.047268 0.206425 0)
(-0.0356339 0.0721741 0)
(-0.077019 -0.0456971 0)
(-0.0963831 -0.0895676 0)
(-0.0311831 -0.122613 0)
(0.0182096 -0.015751 0)
(0.0673148 0.0902612 0)
(0.0921893 0.16806 0)
(0.0141995 0.0535727 0)
(0.0393247 -0.045504 0)
(0.0565994 -0.0474931 0)
(0.000377477 0.0193274 0)
(0.0066451 0.0521371 0)
(-0.00202843 -0.0595285 0)
(0.00209664 0.0354728 0)
(0.0206327 -0.0203416 0)
(0.0734066 -0.13747 0)
(0.0405803 0.16147 0)
(-0.0393315 0.119157 0)
(0.0311517 -0.0918849 0)
(0.0391341 -0.000480401 0)
(-0.030131 0.0388295 0)
(-0.0255759 -0.184622 0)
(-0.0518806 -0.0540148 0)
(0.0844165 0.122354 0)
(-0.0202199 -0.0326796 0)
(0.0815204 0.0039122 0)
(-0.0338517 0.0496663 0)
(-0.102091 -0.0249452 0)
(-0.15787 0.040841 0)
(0.0634572 -0.08489 0)
(0.152023 0.141252 0)
(0.0610096 0.325175 0)
(0.0178018 0.0809584 0)
(-0.0564233 -0.162834 0)
(0.00762268 -0.0743973 0)
(0.0153805 -0.24706 0)
(-0.0558271 -0.0632714 0)
(0.0243285 0.14031 0)
(-0.0562024 -0.0274076 0)
(-0.0274874 0.0858365 0)
(0.00697589 -0.0213688 0)
(0.00785283 -0.249629 0)
(-0.0186891 -0.0394696 0)
(-0.00194736 0.107443 0)
(0.0114702 0.0176734 0)
(0.112709 0.0449602 0)
(-0.0724831 0.0449213 0)
(-0.268999 -0.110505 0)
(-0.174616 -0.167346 0)
(0.0555052 0.017751 0)
(-0.0570195 0.209618 0)
(0.0380684 -0.0524903 0)
(-0.12605 -0.0154441 0)
(0.00992335 0.08033 0)
(0.0223821 0.171629 0)
(0.0555137 0.00369691 0)
(-0.0311186 -0.24132 0)
(0.0483606 -0.0658956 0)
(-0.0790768 0.0978894 0)
(0.0271482 0.0494022 0)
(0.0156949 -0.113223 0)
(-0.0262989 -0.0409965 0)
(0.143695 0.0822199 0)
(-0.0509012 -0.0159086 0)
(0.0226017 -0.156082 0)
(-0.0701152 -0.141707 0)
(0.0726255 0.131359 0)
(0.00382843 0.204585 0)
(-0.117907 -0.0161992 0)
(-0.0849558 -0.0215296 0)
(9.0623e-05 -0.000371988 0)
(0.0113996 -0.0204623 0)
(0.046597 -0.0416795 0)
(0.0241796 0.0951829 0)
(0.0374706 0.0316352 0)
(-0.0531889 -0.0227524 0)
(-0.00240307 -0.0226821 0)
(0.0422145 0.0631925 0)
(0.040667 0.0613966 0)
(-0.0910267 -0.0258496 0)
(-0.09791 -0.0434053 0)
(-0.115069 -0.0470311 0)
(-0.00070567 -0.0245787 0)
(0.116524 0.0166463 0)
(-0.0738279 -0.0247629 0)
(0.00389088 0.107745 0)
(0.0538374 -0.0888682 0)
(-0.0307806 -0.0356094 0)
(-0.0564124 0.044315 0)
(-0.00181995 -0.0179656 0)
(-0.0204648 -0.0165551 0)
(-0.0531453 0.0780245 0)
(-0.00485758 0.141204 0)
(-0.00223827 0.0412118 0)
(0.011337 -0.13504 0)
(-0.0795878 -0.0560988 0)
(-0.0923912 0.0191828 0)
(0.048283 -0.101158 0)
(-0.093706 0.00913474 0)
(-0.010277 0.11836 0)
(0.0198334 0.0860255 0)
(-0.0108174 0.0305995 0)
(-0.0999683 -0.0688413 0)
(-0.0149119 -0.143592 0)
(-0.083568 -0.116219 0)
(0.145578 -0.0228667 0)
(0.0638023 0.111394 0)
(0.00140899 0.199407 0)
(-0.0169336 0.0118669 0)
(0.0432939 -0.0585914 0)
(0.0160593 0.00303256 0)
(0.0310469 0.00580272 0)
(-0.0051528 -0.000453742 0)
(-0.0142475 0.0161992 0)
(-0.00345469 -0.0830363 0)
(-0.00770826 -0.0236727 0)
(0.0319539 0.0848348 0)
(0.0179484 0.116727 0)
(-0.04476 -0.0516733 0)
(0.00608042 0.0959064 0)
(0.00606915 -0.0458528 0)
(-0.0222701 -0.152231 0)
(0.164233 -0.0256733 0)
(0.0118638 0.0556754 0)
(0.000233515 -0.0596287 0)
(0.0114597 0.0390818 0)
(-0.0917192 0.0542008 0)
(-0.168492 -0.0536832 0)
(0.0732702 0.0601652 0)
(0.0519385 -0.18119 0)
(-0.152087 0.132426 0)
(-0.0818144 0.369193 0)
(0.136139 -0.0125345 0)
(0.0629295 -0.106156 0)
(0.095696 -0.153031 0)
(-0.00851583 -0.244023 0)
(0.0236199 0.040403 0)
(0.0817839 0.145159 0)
(0.000523185 0.0798654 0)
(-0.12286 0.113712 0)
(0.0100538 -0.0336079 0)
(0.0536628 -0.302105 0)
(0.0191183 0.0153295 0)
(0.0532772 0.0440063 0)
(0.0324976 -0.105535 0)
(0.0510058 0.176303 0)
(-0.0210392 0.277162 0)
(0.00495872 -0.110911 0)
(-0.0807541 -0.405456 0)
(0.0528614 0.0154612 0)
(-0.04327 0.206603 0)
(0.0230352 0.0408394 0)
(-0.000175616 -0.0288795 0)
(0.00309637 0.0453132 0)
(0.00205531 0.019758 0)
(-0.0736325 -0.00455828 0)
(0.155106 -0.0478089 0)
(0.121658 -0.0921536 0)
(-0.093361 0.0122131 0)
(-0.0197028 -0.0561616 0)
(0.0733165 0.0265052 0)
(0.072746 0.0691861 0)
(-0.0903062 0.0673428 0)
(0.017215 -0.0317607 0)
(-0.0161671 -0.0786769 0)
(-0.0249428 -0.14918 0)
(-0.0602815 -0.003104 0)
(-0.01161 0.168368 0)
(0.0479801 0.109703 0)
(0.000962889 -0.0432347 0)
(0.0419468 -0.0567914 0)
(0.00763866 -0.00225237 0)
(-0.0704593 0.0306438 0)
(0.0988103 -0.0299656 0)
(0.0517021 0.0130802 0)
(0.118952 0.00490717 0)
(0.141624 0.0251087 0)
(-3.18738e-05 -0.0773819 0)
(-0.0314885 0.122747 0)
(0.00763621 0.0258526 0)
(0.0122625 -0.151453 0)
(0.0435064 -0.0536854 0)
(0.110998 -0.0581333 0)
(-0.10315 0.0546876 0)
(0.0409927 0.15312 0)
(-0.0292158 0.0358829 0)
(0.0402387 -0.132775 0)
(0.0349153 2.18366e-05 0)
(-0.0932911 0.0176849 0)
(0.01918 -0.0916108 0)
(-0.132516 0.0093532 0)
(0.0991977 0.126003 0)
(0.0167411 0.11239 0)
(0.131125 -0.00742856 0)
(0.00225201 -0.064862 0)
(0.0076603 -0.0674146 0)
(-0.0253965 0.0458319 0)
(-0.00894892 -0.0735953 0)
(0.012338 0.017391 0)
(-0.0313313 0.0591128 0)
(-0.0258355 0.0835011 0)
(0.011202 0.106674 0)
(-0.0371671 -0.122169 0)
(-0.0178172 -0.112194 0)
(0.0220846 -0.0891602 0)
(0.0033683 -0.014493 0)
(0.0557489 0.164048 0)
(-0.0435343 0.0994918 0)
(0.0145731 -0.0844546 0)
(-0.012397 -0.0133373 0)
(-0.000608548 -0.0225612 0)
(-0.00252762 0.014722 0)
(-0.00219476 0.0750272 0)
(-0.00122751 -0.099053 0)
(0.00138272 -0.0563727 0)
(-0.00871107 0.036995 0)
(0.0192441 -0.0519652 0)
(3.47198e-06 0.0810295 0)
(0.00221221 0.115111 0)
(0.00128191 -0.0739874 0)
(0.0122978 -0.0352106 0)
(0.00585122 0.0335326 0)
(0.0361136 0.00786404 0)
(-0.0612535 -0.0343257 0)
(0.00716205 0.0418082 0)
(-0.00121965 0.180973 0)
(-0.00227404 0.0636589 0)
(-0.00238513 -0.197673 0)
(-0.00037786 -0.123213 0)
(0.00295206 0.191503 0)
(-0.0608003 0.184835 0)
(-0.165679 0.0770693 0)
(0.16727 -0.0761389 0)
(0.118327 -0.111768 0)
(0.0889192 0.024463 0)
(-0.177789 -0.207959 0)
(-0.0721211 -0.173316 0)
(-0.000935406 0.190363 0)
(0.000225021 0.199373 0)
(0.0879652 0.111503 0)
(-0.00771105 -0.250094 0)
(-0.0183978 -0.339433 0)
(0.0405914 0.00944313 0)
(0.0621559 0.101063 0)
(0.00132888 0.0256693 0)
(-0.107541 0.167312 0)
(-0.0570943 0.124629 0)
(0.119822 -0.0966087 0)
(-0.0233918 -0.266899 0)
(-0.130333 0.0976199 0)
(-0.00802986 0.179058 0)
(0.0580477 0.0668304 0)
(0.005481 -0.0743167 0)
(-0.0411954 0.0966889 0)
(-0.0253872 0.0544415 0)
(0.00620695 -0.154205 0)
(-0.040268 -0.177098 0)
(-0.0330702 0.0419071 0)
(-0.120892 -0.0122823 0)
(-0.017278 -0.0503429 0)
(0.0552501 0.0238559 0)
(0.0938068 0.187679 0)
(-0.0477991 0.0255457 0)
(-0.00348976 -0.164037 0)
(0.0739398 0.0169302 0)
(0.0516676 -0.00926728 0)
(0.0112657 -0.0514614 0)
(-0.0448715 0.158583 0)
(-0.0601628 0.0424403 0)
(0.0922982 -0.0823845 0)
(0.000593244 0.0103069 0)
(0.00756098 0.0673312 0)
(-0.00555954 -0.0301664 0)
(-0.0571911 -0.0677984 0)
(0.0149274 0.0316585 0)
(0.000575664 -0.000968477 0)
(-0.117565 -0.0120252 0)
(0.0222684 0.0305173 0)
(0.134148 -0.0589035 0)
(-0.00492395 0.0183283 0)
(0.00870717 0.0168498 0)
(-0.0686722 -0.109824 0)
(0.00743076 0.043235 0)
(-0.033014 -0.0358649 0)
(0.0958126 0.0709405 0)
(0.260446 0.0860386 0)
(-0.163609 0.00888672 0)
(-0.0229542 -0.06869 0)
(-0.00830876 -0.0833217 0)
(0.0474014 0.0184823 0)
(-0.0333511 -0.0187618 0)
(0.0291877 0.0423498 0)
(0.0115599 0.0941015 0)
(0.0166316 0.0459667 0)
(0.0315274 -0.0687552 0)
(0.0067009 0.00295067 0)
(0.00654203 0.00367804 0)
(0.0426757 -0.0557799 0)
(0.0239319 -0.0695814 0)
(0.053521 -0.0227882 0)
(-0.0321838 0.110502 0)
(0.0436468 0.146176 0)
(0.00271643 0.00689977 0)
(-0.0605959 -0.134834 0)
(-0.0522854 -0.242565 0)
(0.0303461 -0.0545659 0)
(-0.0650289 0.198751 0)
(0.0304681 0.137657 0)
(-0.00345675 0.0428869 0)
(0.0141659 0.00303139 0)
(-0.000183682 -0.0144594 0)
(-0.00384945 0.0106281 0)
(0.00485138 0.00991474 0)
(-0.0019986 -0.0547692 0)
(0.000567906 0.00419145 0)
(0.000291371 -0.0669425 0)
(-0.0409895 0.158023 0)
(-0.0617049 0.0393252 0)
(-0.00197699 -0.0300906 0)
(-0.00452715 0.0595286 0)
(0.00279822 -0.024704 0)
(-7.18248e-05 -0.0222514 0)
(0.00538485 -0.0235637 0)
(-0.0369542 0.000108835 0)
(-0.0230053 0.149996 0)
(-0.0137458 0.00313415 0)
(0.0261289 -0.121241 0)
(0.0301641 -0.103198 0)
(-0.0546763 -0.0458932 0)
(-0.0139589 0.198854 0)
(0.133431 0.105432 0)
(0.190822 0.0509582 0)
(-0.0155595 -0.120645 0)
(0.0476211 -0.0959411 0)
(-0.014318 0.107719 0)
(-0.0016419 0.0541889 0)
(-0.027595 -0.157243 0)
(-0.0264632 -0.105458 0)
(0.159771 0.0525002 0)
(0.0629896 0.103427 0)
(0.0319635 -0.0344853 0)
(-0.215 -0.0849427 0)
(-0.186604 -0.167725 0)
(0.00175474 0.00010487 0)
(0.103218 0.201607 0)
(0.00903748 0.144942 0)
(-0.0100979 0.0243125 0)
(0.018721 -0.128184 0)
(-0.0695194 -0.066919 0)
(-0.123027 0.0140169 0)
(-0.00496982 -0.0200009 0)
(0.0179964 0.0714908 0)
(-0.00589448 0.0435305 0)
(0.0187144 -0.100193 0)
(0.0729547 0.120796 0)
(0.0174895 0.092596 0)
(-0.0142024 -0.159594 0)
(0.00265948 -0.0333561 0)
(0.00255154 -0.0510929 0)
(0.0253816 -0.141048 0)
(-0.0082362 0.0232754 0)
(-0.103168 0.251187 0)
(0.0270901 0.0250428 0)
(-0.0127738 -0.0758788 0)
(-0.0836613 -0.059772 0)
(-0.0179712 -0.121826 0)
(-0.0491462 0.0131028 0)
(-0.0110426 0.102434 0)
(0.00834145 0.0687842 0)
(0.0106708 -0.00831011 0)
(-0.00311525 -0.061217 0)
(-0.00629423 0.058806 0)
(0.0898121 -0.110949 0)
(-0.015977 -0.0155714 0)
(-0.0599975 0.118202 0)
(-0.0465289 0.0619479 0)
(0.0744043 -0.0432433 0)
(0.069834 -0.00442522 0)
(-0.0817556 -0.0299133 0)
(-0.0609191 -0.0153371 0)
(-0.033775 0.107467 0)
(0.000995027 -0.0483882 0)
(0.0624189 -0.181307 0)
(-0.00981866 -0.128294 0)
(0.0684085 0.0720635 0)
(0.0320407 0.17586 0)
(0.0381881 0.101035 0)
(-0.107311 -0.00130374 0)
(-0.103807 -0.0883735 0)
(0.0396269 -0.0919491 0)
(0.0200379 0.0288901 0)