/*--------------------------------*- C++ -*----------------------------------*\
| =========                 |                                                 |
| \\      /  F ield         | OpenFOAM: The Open Source CFD Toolbox           |
|  \\    /   O peration     | Version:  v2012                                 |
|   \\  /    A nd           | Website:  www.openfoam.com                      |
|    \\/     M anipulation  |                                                 |
\*---------------------------------------------------------------------------*/
FoamFile
{
    version     2.0;
    format      ascii;
    class       volScalarField;
    location    "0";
    object      pRec;
}
// * * * * * * * * * * * * * * * * * * * * * * * * * * * * * * * * * * * * * //

dimensions      [0 2 -2 0 0 0 0];


internalField   nonuniform List<scalar> 
4000
(
-6.80529e-13
-6.7556e-13
-6.76445e-13
-6.78643e-13
-6.77337e-13
-6.777e-13
-6.76089e-13
-6.71581e-13
-6.62921e-13
-6.58323e-13
-6.58807e-13
-6.53852e-13
-6.45734e-13
-6.34258e-13
-6.2124e-13
-6.15834e-13
-6.12212e-13
-6.09549e-13
-6.02342e-13
-5.91285e-13
-5.81196e-13
-5.74024e-13
-5.68677e-13
-5.60035e-13
-5.49595e-13
-5.39042e-13
-5.3529e-13
-5.30465e-13
-5.23898e-13
-5.12764e-13
-4.9889e-13
-4.91198e-13
-4.87725e-13
-4.8385e-13
-4.77817e-13
-4.73013e-13
-4.62871e-13
-4.46846e-13
-4.30498e-13
-4.25644e-13
-4.24088e-13
-4.20886e-13
-4.1935e-13
-4.13044e-13
-4.03582e-13
-3.94601e-13
-3.85489e-13
-3.76413e-13
-3.6782e-13
-3.60183e-13
-3.51915e-13
-3.44594e-13
-3.37659e-13
-3.29563e-13
-3.22076e-13
-3.10483e-13
-3.03182e-13
-3.01021e-13
-2.98442e-13
-2.95233e-13
-2.87134e-13
-2.8022e-13
-2.71132e-13
-2.60497e-13
-2.53138e-13
-2.46029e-13
-2.4128e-13
-2.33209e-13
-2.23469e-13
-2.16747e-13
-2.09602e-13
-2.01784e-13
-1.89112e-13
-1.82107e-13
-1.8026e-13
-1.75932e-13
-1.70379e-13
-1.63797e-13
-1.54522e-13
-1.41464e-13
-1.29579e-13
-1.23502e-13
-1.15251e-13
-1.10171e-13
-1.0442e-13
-9.8318e-14
-8.99982e-14
-8.23387e-14
-7.87661e-14
-7.42806e-14
-6.84765e-14
-6.1744e-14
-5.54932e-14
-5.04028e-14
-4.14204e-14
-3.25355e-14
-2.51445e-14
-1.73095e-14
-9.41635e-15
-2.23064e-15
-6.77577e-13
-6.76198e-13
-6.78646e-13
-6.78688e-13
-6.79543e-13
-6.76718e-13
-6.73914e-13
-6.7183e-13
-6.66472e-13
-6.61141e-13
-6.55821e-13
-6.51521e-13
-6.44187e-13
-6.34048e-13
-6.24187e-13
-6.18579e-13
-6.14236e-13
-6.08254e-13
-6.00733e-13
-5.94143e-13
-5.83583e-13
-5.72355e-13
-5.65539e-13
-5.57661e-13
-5.47723e-13
-5.41525e-13
-5.36922e-13
-5.31046e-13
-5.22994e-13
-5.09959e-13
-5.01023e-13
-4.93969e-13
-4.87348e-13
-4.80982e-13
-4.75414e-13
-4.69839e-13
-4.61703e-13
-4.49319e-13
-4.3632e-13
-4.28859e-13
-4.24001e-13
-4.20795e-13
-4.16815e-13
-4.11712e-13
-4.04442e-13
-3.94548e-13
-3.84441e-13
-3.76178e-13
-3.67601e-13
-3.58158e-13
-3.51076e-13
-3.43764e-13
-3.37946e-13
-3.30823e-13
-3.23169e-13
-3.12772e-13
-3.03064e-13
-2.99427e-13
-2.96958e-13
-2.937e-13
-2.89023e-13
-2.80268e-13
-2.71628e-13
-2.62102e-13
-2.54923e-13
-2.46288e-13
-2.3913e-13
-2.3232e-13
-2.25472e-13
-2.1799e-13
-2.09613e-13
-2.01954e-13
-1.93194e-13
-1.85068e-13
-1.80094e-13
-1.72437e-13
-1.69261e-13
-1.61918e-13
-1.51803e-13
-1.40367e-13
-1.30613e-13
-1.24666e-13
-1.1867e-13
-1.11966e-13
-1.03004e-13
-9.65236e-14
-8.81654e-14
-8.0678e-14
-7.74097e-14
-7.29291e-14
-6.95203e-14
-6.40814e-14
-5.86987e-14
-4.85902e-14
-3.99552e-14
-3.30078e-14
-2.46009e-14
-1.74563e-14
-1.05789e-14
-3.85196e-15
-6.76853e-13
-6.76051e-13
-6.78052e-13
-6.80569e-13
-6.81528e-13
-6.7783e-13
-6.72919e-13
-6.70735e-13
-6.64522e-13
-6.6093e-13
-6.56713e-13
-6.50932e-13
-6.4368e-13
-6.35475e-13
-6.25897e-13
-6.1938e-13
-6.13142e-13
-6.07241e-13
-6.01469e-13
-5.92701e-13
-5.82895e-13
-5.74257e-13
-5.66133e-13
-5.5852e-13
-5.49477e-13
-5.43781e-13
-5.37843e-13
-5.29518e-13
-5.20874e-13
-5.08721e-13
-5.01322e-13
-4.93895e-13
-4.86769e-13
-4.82724e-13
-4.77434e-13
-4.70992e-13
-4.60427e-13
-4.50242e-13
-4.39617e-13
-4.29019e-13
-4.23247e-13
-4.17937e-13
-4.16891e-13
-4.12322e-13
-4.04893e-13
-3.94383e-13
-3.82904e-13
-3.73973e-13
-3.68704e-13
-3.63294e-13
-3.52444e-13
-3.44388e-13
-3.35866e-13
-3.28e-13
-3.21174e-13
-3.13591e-13
-3.03675e-13
-3.01393e-13
-3.0064e-13
-2.95307e-13
-2.8688e-13
-2.76143e-13
-2.68846e-13
-2.63206e-13
-2.57164e-13
-2.49254e-13
-2.41394e-13
-2.31716e-13
-2.24247e-13
-2.15043e-13
-2.07104e-13
-1.99692e-13
-1.90549e-13
-1.84695e-13
-1.79634e-13
-1.74e-13
-1.68729e-13
-1.6184e-13
-1.51438e-13
-1.41427e-13
-1.35088e-13
-1.26399e-13
-1.15019e-13
-1.08845e-13
-1.02961e-13
-9.86032e-14
-9.2176e-14
-8.3831e-14
-7.73738e-14
-7.13842e-14
-6.73373e-14
-6.3641e-14
-5.70518e-14
-4.91582e-14
-3.97259e-14
-3.10487e-14
-2.54367e-14
-1.82403e-14
-1.35137e-14
-4.41365e-15
-6.77708e-13
-6.78608e-13
-6.7891e-13
-6.75748e-13
-6.8014e-13
-6.75324e-13
-6.72967e-13
-6.70865e-13
-6.68407e-13
-6.62806e-13
-6.55434e-13
-6.47047e-13
-6.40252e-13
-6.35407e-13
-6.33248e-13
-6.24358e-13
-6.11663e-13
-6.04662e-13
-6.00291e-13
-5.91888e-13
-5.83158e-13
-5.75554e-13
-5.66485e-13
-5.53638e-13
-5.45955e-13
-5.42003e-13
-5.3737e-13
-5.31641e-13
-5.21305e-13
-5.12132e-13
-5.04621e-13
-4.95751e-13
-4.87418e-13
-4.80986e-13
-4.73362e-13
-4.70589e-13
-4.61282e-13
-4.49259e-13
-4.40648e-13
-4.31019e-13
-4.2586e-13
-4.21914e-13
-4.16561e-13
-4.09929e-13
-4.00669e-13
-3.91467e-13
-3.83011e-13
-3.77062e-13
-3.6895e-13
-3.57993e-13
-3.49224e-13
-3.43376e-13
-3.3743e-13
-3.31632e-13
-3.20745e-13
-3.14498e-13
-3.05802e-13
-3.00498e-13
-2.99646e-13
-2.93699e-13
-2.85677e-13
-2.77902e-13
-2.72308e-13
-2.65364e-13
-2.56947e-13
-2.48148e-13
-2.40577e-13
-2.31799e-13
-2.24655e-13
-2.17174e-13
-2.10279e-13
-2.02479e-13
-1.93253e-13
-1.85845e-13
-1.79271e-13
-1.72778e-13
-1.68413e-13
-1.61477e-13
-1.51329e-13
-1.41897e-13
-1.34404e-13
-1.26877e-13
-1.16908e-13
-1.07916e-13
-1.02364e-13
-9.70349e-14
-9.04665e-14
-8.29983e-14
-7.57297e-14
-7.18157e-14
-6.92205e-14
-6.44525e-14
-5.83951e-14
-4.78873e-14
-3.92491e-14
-3.33126e-14
-2.69328e-14
-1.78851e-14
-1.12038e-14
-4.1935e-15
-6.78189e-13
-6.81984e-13
-6.78785e-13
-6.75224e-13
-6.72638e-13
-6.75569e-13
-6.75335e-13
-6.73243e-13
-6.6737e-13
-6.60547e-13
-6.53024e-13
-6.4853e-13
-6.39686e-13
-6.34204e-13
-6.32397e-13
-6.2657e-13
-6.17555e-13
-6.08276e-13
-5.97762e-13
-5.87695e-13
-5.82752e-13
-5.7484e-13
-5.61864e-13
-5.53104e-13
-5.49125e-13
-5.43865e-13
-5.38506e-13
-5.30501e-13
-5.23446e-13
-5.14367e-13
-5.05166e-13
-4.9649e-13
-4.87404e-13
-4.81261e-13
-4.74808e-13
-4.70175e-13
-4.59979e-13
-4.49262e-13
-4.38969e-13
-4.31379e-13
-4.26056e-13
-4.2352e-13
-4.16673e-13
-4.08571e-13
-3.99063e-13
-3.88755e-13
-3.81821e-13
-3.75894e-13
-3.6824e-13
-3.61343e-13
-3.5237e-13
-3.45202e-13
-3.37657e-13
-3.31302e-13
-3.20752e-13
-3.13326e-13
-3.06998e-13
-3.01644e-13
-2.98893e-13
-2.9277e-13
-2.86022e-13
-2.78263e-13
-2.70447e-13
-2.64762e-13
-2.59014e-13
-2.52325e-13
-2.44389e-13
-2.32798e-13
-2.24463e-13
-2.14707e-13
-2.07149e-13
-2.00388e-13
-1.93478e-13
-1.85845e-13
-1.76375e-13
-1.70159e-13
-1.67494e-13
-1.61064e-13
-1.53586e-13
-1.43702e-13
-1.35698e-13
-1.28727e-13
-1.16528e-13
-1.06903e-13
-9.95738e-14
-9.43483e-14
-9.07652e-14
-8.53686e-14
-7.77091e-14
-7.30196e-14
-6.82678e-14
-6.41218e-14
-5.65989e-14
-5.0749e-14
-4.28589e-14
-3.3533e-14
-2.66006e-14
-1.97996e-14
-1.07633e-14
-1.82694e-15
-6.75189e-13
-6.83203e-13
-6.79952e-13
-6.72466e-13
-6.76514e-13
-6.79079e-13
-6.76927e-13
-6.72904e-13
-6.65441e-13
-6.54257e-13
-6.50936e-13
-6.47875e-13
-6.44084e-13
-6.35368e-13
-6.29442e-13
-6.27886e-13
-6.1857e-13
-6.1042e-13
-6.02396e-13
-5.90818e-13
-5.80246e-13
-5.69567e-13
-5.54022e-13
-5.50111e-13
-5.49682e-13
-5.4694e-13
-5.38728e-13
-5.30307e-13
-5.22731e-13
-5.16576e-13
-5.06024e-13
-4.96572e-13
-4.88353e-13
-4.83594e-13
-4.79057e-13
-4.68972e-13
-4.58269e-13
-4.49382e-13
-4.38722e-13
-4.33309e-13
-4.28203e-13
-4.23872e-13
-4.15193e-13
-4.08683e-13
-3.99194e-13
-3.87665e-13
-3.79194e-13
-3.72978e-13
-3.68499e-13
-3.61194e-13
-3.53615e-13
-3.44745e-13
-3.3675e-13
-3.29135e-13
-3.19747e-13
-3.1452e-13
-3.09093e-13
-3.02514e-13
-2.97682e-13
-2.93143e-13
-2.88215e-13
-2.79353e-13
-2.7096e-13
-2.64436e-13
-2.56057e-13
-2.50639e-13
-2.44824e-13
-2.33949e-13
-2.25444e-13
-2.17344e-13
-2.0831e-13
-2.0049e-13
-1.9473e-13
-1.87122e-13
-1.78004e-13
-1.72395e-13
-1.66669e-13
-1.58219e-13
-1.52845e-13
-1.45442e-13
-1.38025e-13
-1.28009e-13
-1.14575e-13
-1.05295e-13
-1.00629e-13
-9.62247e-14
-9.1941e-14
-8.3696e-14
-7.6768e-14
-7.23453e-14
-6.80663e-14
-6.44104e-14
-5.50948e-14
-4.95229e-14
-4.23223e-14
-3.58637e-14
-2.70463e-14
-1.90622e-14
-9.18131e-15
-9.93774e-16
-6.79411e-13
-6.79796e-13
-6.79454e-13
-6.76502e-13
-6.74157e-13
-6.77316e-13
-6.7603e-13
-6.70834e-13
-6.63537e-13
-6.54931e-13
-6.47668e-13
-6.47154e-13
-6.45775e-13
-6.36408e-13
-6.30533e-13
-6.26055e-13
-6.22875e-13
-6.15114e-13
-5.99775e-13
-5.84251e-13
-5.6988e-13
-5.64907e-13
-5.62949e-13
-5.59859e-13
-5.53345e-13
-5.46311e-13
-5.36889e-13
-5.2876e-13
-5.23626e-13
-5.18408e-13
-5.08472e-13
-4.95431e-13
-4.88837e-13
-4.80332e-13
-4.74294e-13
-4.66945e-13
-4.59951e-13
-4.53604e-13
-4.42938e-13
-4.32155e-13
-4.24688e-13
-4.19064e-13
-4.1385e-13
-4.09144e-13
-4.01768e-13
-3.91702e-13
-3.80912e-13
-3.72045e-13
-3.65584e-13
-3.61235e-13
-3.5414e-13
-3.48066e-13
-3.39362e-13
-3.29365e-13
-3.21288e-13
-3.15294e-13
-3.08416e-13
-2.98175e-13
-2.94373e-13
-2.92801e-13
-2.92295e-13
-2.84101e-13
-2.73154e-13
-2.62428e-13
-2.53494e-13
-2.47227e-13
-2.39849e-13
-2.30296e-13
-2.21862e-13
-2.17e-13
-2.15168e-13
-2.05588e-13
-1.95738e-13
-1.89697e-13
-1.8061e-13
-1.71026e-13
-1.6287e-13
-1.54665e-13
-1.49309e-13
-1.44329e-13
-1.37422e-13
-1.27538e-13
-1.18798e-13
-1.1018e-13
-1.03284e-13
-9.38557e-14
-8.95663e-14
-8.46798e-14
-7.7684e-14
-7.38162e-14
-6.76014e-14
-6.02261e-14
-5.50196e-14
-4.86236e-14
-4.17889e-14
-3.39724e-14
-2.68802e-14
-1.76719e-14
-9.55174e-15
-2.90604e-15
-6.78027e-13
-6.77289e-13
-6.75777e-13
-6.77713e-13
-6.79567e-13
-6.79039e-13
-6.75243e-13
-6.69182e-13
-6.61613e-13
-6.55782e-13
-6.51174e-13
-6.46342e-13
-6.42476e-13
-6.34427e-13
-6.30713e-13
-6.26412e-13
-6.22694e-13
-6.14982e-13
-5.95969e-13
-5.86121e-13
-5.80966e-13
-5.73506e-13
-5.62795e-13
-5.53643e-13
-5.50497e-13
-5.43207e-13
-5.33694e-13
-5.27931e-13
-5.21893e-13
-5.15766e-13
-5.08917e-13
-5.00026e-13
-4.93686e-13
-4.86287e-13
-4.75284e-13
-4.66415e-13
-4.58343e-13
-4.49503e-13
-4.41727e-13
-4.324e-13
-4.25408e-13
-4.21233e-13
-4.14477e-13
-4.11913e-13
-4.06099e-13
-3.92202e-13
-3.77447e-13
-3.65488e-13
-3.64364e-13
-3.62377e-13
-3.57977e-13
-3.51236e-13
-3.39477e-13
-3.29455e-13
-3.19013e-13
-3.12983e-13
-3.08869e-13
-3.03332e-13
-2.96045e-13
-2.90914e-13
-2.88855e-13
-2.81693e-13
-2.74102e-13
-2.65796e-13
-2.57893e-13
-2.49241e-13
-2.41011e-13
-2.31964e-13
-2.25807e-13
-2.18883e-13
-2.11701e-13
-2.05714e-13
-1.94415e-13
-1.82633e-13
-1.75928e-13
-1.7104e-13
-1.66028e-13
-1.58192e-13
-1.52988e-13
-1.46864e-13
-1.38182e-13
-1.27725e-13
-1.15856e-13
-1.05543e-13
-9.77187e-14
-9.35583e-14
-9.05279e-14
-8.60388e-14
-7.917e-14
-7.25603e-14
-6.55313e-14
-5.98276e-14
-5.51233e-14
-4.9893e-14
-4.05665e-14
-3.24937e-14
-2.62823e-14
-1.90506e-14
-1.08287e-14
-1.65401e-15
-6.79829e-13
-6.80936e-13
-6.76967e-13
-6.7252e-13
-6.74986e-13
-6.77088e-13
-6.76502e-13
-6.69448e-13
-6.59311e-13
-6.57103e-13
-6.51928e-13
-6.4351e-13
-6.37568e-13
-6.34815e-13
-6.3261e-13
-6.28525e-13
-6.22492e-13
-6.13023e-13
-5.99922e-13
-5.87663e-13
-5.7926e-13
-5.70868e-13
-5.6584e-13
-5.59424e-13
-5.51249e-13
-5.41374e-13
-5.32566e-13
-5.27715e-13
-5.24758e-13
-5.16311e-13
-5.09807e-13
-5.01419e-13
-4.90996e-13
-4.80616e-13
-4.75182e-13
-4.67468e-13
-4.57889e-13
-4.49193e-13
-4.42637e-13
-4.36289e-13
-4.31113e-13
-4.23376e-13
-4.1147e-13
-4.04487e-13
-3.99631e-13
-3.92613e-13
-3.81678e-13
-3.73151e-13
-3.6707e-13
-3.60542e-13
-3.54421e-13
-3.47704e-13
-3.38565e-13
-3.30442e-13
-3.22613e-13
-3.174e-13
-3.10387e-13
-3.03717e-13
-2.96726e-13
-2.9214e-13
-2.86345e-13
-2.79231e-13
-2.72786e-13
-2.65371e-13
-2.55553e-13
-2.45967e-13
-2.40178e-13
-2.32948e-13
-2.25383e-13
-2.18092e-13
-2.10255e-13
-2.06068e-13
-1.97999e-13
-1.883e-13
-1.77354e-13
-1.71253e-13
-1.67027e-13
-1.59465e-13
-1.53385e-13
-1.44888e-13
-1.38162e-13
-1.28389e-13
-1.16397e-13
-1.06988e-13
-9.97809e-14
-9.3889e-14
-9.0961e-14
-8.54704e-14
-7.88942e-14
-7.23973e-14
-6.49571e-14
-5.92108e-14
-5.23278e-14
-4.70698e-14
-4.00616e-14
-3.25524e-14
-2.52499e-14
-1.60965e-14
-7.75244e-15
5.90304e-16
-6.79354e-13
-6.78915e-13
-6.79302e-13
-6.75989e-13
-6.73334e-13
-6.74765e-13
-6.74165e-13
-6.71574e-13
-6.65088e-13
-6.53865e-13
-6.46799e-13
-6.40843e-13
-6.38201e-13
-6.37005e-13
-6.33673e-13
-6.27625e-13
-6.19196e-13
-6.14119e-13
-6.06369e-13
-5.9168e-13
-5.79211e-13
-5.67441e-13
-5.61918e-13
-5.55549e-13
-5.51874e-13
-5.45775e-13
-5.3646e-13
-5.29974e-13
-5.23646e-13
-5.16816e-13
-5.09952e-13
-5.01243e-13
-4.9139e-13
-4.80063e-13
-4.72567e-13
-4.65974e-13
-4.60247e-13
-4.49934e-13
-4.44022e-13
-4.37192e-13
-4.27736e-13
-4.18267e-13
-4.10451e-13
-4.04651e-13
-4.01922e-13
-3.96842e-13
-3.85555e-13
-3.74796e-13
-3.67263e-13
-3.5874e-13
-3.5214e-13
-3.47313e-13
-3.39811e-13
-3.31555e-13
-3.23053e-13
-3.16209e-13
-3.10078e-13
-3.03153e-13
-2.96652e-13
-2.93633e-13
-2.8946e-13
-2.84674e-13
-2.77994e-13
-2.66156e-13
-2.53088e-13
-2.40134e-13
-2.3301e-13
-2.28453e-13
-2.24469e-13
-2.2324e-13
-2.17152e-13
-2.07703e-13
-2.00062e-13
-1.89948e-13
-1.77917e-13
-1.69188e-13
-1.64525e-13
-1.57924e-13
-1.5308e-13
-1.44329e-13
-1.37178e-13
-1.2866e-13
-1.18106e-13
-1.09936e-13
-1.0064e-13
-9.26053e-14
-8.84473e-14
-8.27579e-14
-7.80869e-14
-7.18738e-14
-6.36634e-14
-5.52023e-14
-4.92645e-14
-4.47666e-14
-3.66433e-14
-2.88152e-14
-2.16427e-14
-1.46584e-14
-5.95116e-15
9.78417e-17
-6.77662e-13
-6.76974e-13
-6.76084e-13
-6.77453e-13
-6.77647e-13
-6.72854e-13
-6.71072e-13
-6.68167e-13
-6.63226e-13
-6.58161e-13
-6.47795e-13
-6.3967e-13
-6.38572e-13
-6.39077e-13
-6.3425e-13
-6.29618e-13
-6.18718e-13
-6.11875e-13
-6.05025e-13
-5.92739e-13
-5.82811e-13
-5.68417e-13
-5.59019e-13
-5.54494e-13
-5.49357e-13
-5.4373e-13
-5.38381e-13
-5.31512e-13
-5.25206e-13
-5.17914e-13
-5.09292e-13
-5.00112e-13
-4.90326e-13
-4.81667e-13
-4.76054e-13
-4.67825e-13
-4.58933e-13
-4.499e-13
-4.44473e-13
-4.35416e-13
-4.27983e-13
-4.18341e-13
-4.11278e-13
-4.07829e-13
-4.03882e-13
-3.95444e-13
-3.83197e-13
-3.71443e-13
-3.6477e-13
-3.57621e-13
-3.54582e-13
-3.49244e-13
-3.3911e-13
-3.31152e-13
-3.22547e-13
-3.19146e-13
-3.12617e-13
-3.0535e-13
-2.96473e-13
-2.88447e-13
-2.85712e-13
-2.78141e-13
-2.73479e-13
-2.6837e-13
-2.55663e-13
-2.42699e-13
-2.33915e-13
-2.27733e-13
-2.24739e-13
-2.25583e-13
-2.17802e-13
-2.09867e-13
-2.00514e-13
-1.89521e-13
-1.76354e-13
-1.6585e-13
-1.64165e-13
-1.60494e-13
-1.56009e-13
-1.47268e-13
-1.40188e-13
-1.31636e-13
-1.17724e-13
-1.07113e-13
-9.67046e-14
-8.75466e-14
-8.8633e-14
-8.58e-14
-7.80718e-14
-7.08404e-14
-6.16518e-14
-5.47246e-14
-4.86094e-14
-4.27099e-14
-3.8012e-14
-3.13098e-14
-1.86949e-14
-7.3337e-15
6.94777e-16
-7.99356e-16
-6.79723e-13
-6.78048e-13
-6.76229e-13
-6.77327e-13
-6.76367e-13
-6.71755e-13
-6.72106e-13
-6.68954e-13
-6.62679e-13
-6.55899e-13
-6.48833e-13
-6.42198e-13
-6.35165e-13
-6.32817e-13
-6.30659e-13
-6.25327e-13
-6.2135e-13
-6.16321e-13
-6.07013e-13
-5.93609e-13
-5.81908e-13
-5.74329e-13
-5.64567e-13
-5.55338e-13
-5.49406e-13
-5.39179e-13
-5.35099e-13
-5.31376e-13
-5.26384e-13
-5.19759e-13
-5.10835e-13
-5.00521e-13
-4.89271e-13
-4.79298e-13
-4.73576e-13
-4.66117e-13
-4.60435e-13
-4.52518e-13
-4.46425e-13
-4.34673e-13
-4.26534e-13
-4.15773e-13
-4.11062e-13
-4.09612e-13
-4.02664e-13
-3.95029e-13
-3.84054e-13
-3.7405e-13
-3.65678e-13
-3.57173e-13
-3.51571e-13
-3.4772e-13
-3.39596e-13
-3.33764e-13
-3.26666e-13
-3.18085e-13
-3.11454e-13
-3.03937e-13
-2.95988e-13
-2.90302e-13
-2.87685e-13
-2.86817e-13
-2.77276e-13
-2.65863e-13
-2.49526e-13
-2.40501e-13
-2.34144e-13
-2.29853e-13
-2.24366e-13
-2.21138e-13
-2.1506e-13
-2.12678e-13
-2.06155e-13
-1.93884e-13
-1.75796e-13
-1.60868e-13
-1.581e-13
-1.60755e-13
-1.57192e-13
-1.47303e-13
-1.39098e-13
-1.29385e-13
-1.19128e-13
-1.10279e-13
-9.99788e-14
-9.00441e-14
-8.38789e-14
-8.24155e-14
-7.66454e-14
-6.93103e-14
-5.96312e-14
-5.39672e-14
-4.82436e-14
-4.13647e-14
-3.42641e-14
-2.8429e-14
-1.7421e-14
-7.98453e-15
-1.76953e-15
-6.8636e-16
-6.77675e-13
-6.76991e-13
-6.70342e-13
-6.78106e-13
-6.77817e-13
-6.75263e-13
-6.69401e-13
-6.63856e-13
-6.58975e-13
-6.51807e-13
-6.47908e-13
-6.43798e-13
-6.4224e-13
-6.36749e-13
-6.32043e-13
-6.28318e-13
-6.23223e-13
-6.16984e-13
-6.07448e-13
-5.93939e-13
-5.77141e-13
-5.64678e-13
-5.57052e-13
-5.54257e-13
-5.4881e-13
-5.43629e-13
-5.36894e-13
-5.31009e-13
-5.26937e-13
-5.2199e-13
-5.13306e-13
-5.00807e-13
-4.91145e-13
-4.82941e-13
-4.77676e-13
-4.6775e-13
-4.57719e-13
-4.51777e-13
-4.44782e-13
-4.34403e-13
-4.24677e-13
-4.19895e-13
-4.1462e-13
-4.08312e-13
-3.98485e-13
-3.8899e-13
-3.81784e-13
-3.74191e-13
-3.67067e-13
-3.60501e-13
-3.5398e-13
-3.48235e-13
-3.37866e-13
-3.29065e-13
-3.28993e-13
-3.27848e-13
-3.14159e-13
-3.00347e-13
-2.91603e-13
-2.85076e-13
-2.8261e-13
-2.79481e-13
-2.77856e-13
-2.68851e-13
-2.53782e-13
-2.45295e-13
-2.32867e-13
-2.30511e-13
-2.24665e-13
-2.19299e-13
-2.14423e-13
-2.1296e-13
-2.06462e-13
-1.92342e-13
-1.77324e-13
-1.64566e-13
-1.60246e-13
-1.61775e-13
-1.53674e-13
-1.44167e-13
-1.37624e-13
-1.29882e-13
-1.21531e-13
-1.1126e-13
-1.00955e-13
-8.97408e-14
-8.32955e-14
-8.19124e-14
-7.47829e-14
-6.71904e-14
-5.95164e-14
-5.28716e-14
-4.56126e-14
-3.99427e-14
-3.47792e-14
-2.72321e-14
-1.73388e-14
-9.08859e-15
-8.40859e-16
6.13759e-16
-6.744e-13
-6.82692e-13
-6.77631e-13
-6.73656e-13
-6.74287e-13
-6.73308e-13
-6.68827e-13
-6.68074e-13
-6.59587e-13
-6.48132e-13
-6.44103e-13
-6.43313e-13
-6.40957e-13
-6.38421e-13
-6.34382e-13
-6.26035e-13
-6.16174e-13
-6.09728e-13
-6.0472e-13
-5.95711e-13
-5.88609e-13
-5.80723e-13
-5.70181e-13
-5.54353e-13
-5.41411e-13
-5.34837e-13
-5.35693e-13
-5.32147e-13
-5.27326e-13
-5.23202e-13
-5.13927e-13
-5.02266e-13
-4.88249e-13
-4.76603e-13
-4.70075e-13
-4.64847e-13
-4.63269e-13
-4.57081e-13
-4.45092e-13
-4.3769e-13
-4.26671e-13
-4.17172e-13
-4.13344e-13
-4.06299e-13
-3.97253e-13
-3.88422e-13
-3.79316e-13
-3.74455e-13
-3.69529e-13
-3.62432e-13
-3.54875e-13
-3.46253e-13
-3.39595e-13
-3.32478e-13
-3.27501e-13
-3.21943e-13
-3.16232e-13
-3.0798e-13
-3.00098e-13
-2.89851e-13
-2.81502e-13
-2.75155e-13
-2.69875e-13
-2.64665e-13
-2.5539e-13
-2.47345e-13
-2.38255e-13
-2.31417e-13
-2.25234e-13
-2.20591e-13
-2.16603e-13
-2.08826e-13
-2.01217e-13
-1.92504e-13
-1.79619e-13
-1.69094e-13
-1.60252e-13
-1.57075e-13
-1.52899e-13
-1.45024e-13
-1.38543e-13
-1.28157e-13
-1.19686e-13
-1.09896e-13
-9.95356e-14
-9.06128e-14
-8.54968e-14
-8.02929e-14
-7.51883e-14
-6.67887e-14
-5.96639e-14
-5.50272e-14
-4.77442e-14
-3.95123e-14
-3.09325e-14
-2.27524e-14
-1.6072e-14
-1.03972e-14
-3.22603e-15
1.35479e-16
-6.73334e-13
-6.77266e-13
-6.78378e-13
-6.74507e-13
-6.74169e-13
-6.75256e-13
-6.66227e-13
-6.57192e-13
-6.53139e-13
-6.51555e-13
-6.49661e-13
-6.46937e-13
-6.43911e-13
-6.39198e-13
-6.34281e-13
-6.26973e-13
-6.20763e-13
-6.17172e-13
-6.08988e-13
-5.9491e-13
-5.7827e-13
-5.65207e-13
-5.58062e-13
-5.49727e-13
-5.4796e-13
-5.45023e-13
-5.39514e-13
-5.31096e-13
-5.25566e-13
-5.22898e-13
-5.16044e-13
-5.05379e-13
-4.9253e-13
-4.76754e-13
-4.66606e-13
-4.64716e-13
-4.63971e-13
-4.57998e-13
-4.49988e-13
-4.38596e-13
-4.25149e-13
-4.15353e-13
-4.07174e-13
-4.02763e-13
-3.9719e-13
-3.90526e-13
-3.83327e-13
-3.75143e-13
-3.69171e-13
-3.68357e-13
-3.60866e-13
-3.45252e-13
-3.35597e-13
-3.28293e-13
-3.23073e-13
-3.20577e-13
-3.16538e-13
-3.07418e-13
-2.95867e-13
-2.87786e-13
-2.84e-13
-2.79408e-13
-2.72858e-13
-2.64646e-13
-2.5172e-13
-2.42363e-13
-2.36599e-13
-2.33653e-13
-2.27981e-13
-2.20481e-13
-2.14166e-13
-2.08736e-13
-2.0132e-13
-1.90934e-13
-1.80309e-13
-1.66178e-13
-1.58538e-13
-1.56242e-13
-1.55118e-13
-1.49694e-13
-1.41284e-13
-1.30715e-13
-1.19015e-13
-1.07409e-13
-9.84063e-14
-9.07158e-14
-8.53462e-14
-7.89837e-14
-7.26891e-14
-6.57815e-14
-5.96347e-14
-5.40019e-14
-4.79248e-14
-3.94084e-14
-3.01175e-14
-2.07471e-14
-1.30411e-14
-7.68999e-15
-1.97182e-15
-2.35199e-16
-6.71922e-13
-6.78932e-13
-6.79212e-13
-6.75639e-13
-6.7274e-13
-6.76998e-13
-6.74133e-13
-6.62482e-13
-6.472e-13
-6.44419e-13
-6.439e-13
-6.45275e-13
-6.44209e-13
-6.42355e-13
-6.36882e-13
-6.2775e-13
-6.18941e-13
-6.1232e-13
-6.01072e-13
-5.92764e-13
-5.8557e-13
-5.73051e-13
-5.61626e-13
-5.4923e-13
-5.4758e-13
-5.44845e-13
-5.41265e-13
-5.34898e-13
-5.2676e-13
-5.21689e-13
-5.13117e-13
-5.01506e-13
-4.91475e-13
-4.77072e-13
-4.65309e-13
-4.62976e-13
-4.62705e-13
-4.58585e-13
-4.49677e-13
-4.39361e-13
-4.23481e-13
-4.13574e-13
-4.10176e-13
-4.05127e-13
-3.9751e-13
-3.89435e-13
-3.8542e-13
-3.79105e-13
-3.69803e-13
-3.59647e-13
-3.52973e-13
-3.47203e-13
-3.39241e-13
-3.27263e-13
-3.2706e-13
-3.23682e-13
-3.15285e-13
-3.0913e-13
-3.02279e-13
-2.90022e-13
-2.82513e-13
-2.76821e-13
-2.68627e-13
-2.6162e-13
-2.51702e-13
-2.44237e-13
-2.35112e-13
-2.31292e-13
-2.24862e-13
-2.22906e-13
-2.16238e-13
-2.11154e-13
-2.04241e-13
-1.90974e-13
-1.77405e-13
-1.66016e-13
-1.61181e-13
-1.56406e-13
-1.51917e-13
-1.46399e-13
-1.40215e-13
-1.31307e-13
-1.1958e-13
-1.07674e-13
-1.00762e-13
-9.25602e-14
-8.53819e-14
-7.92092e-14
-7.31455e-14
-6.44362e-14
-5.7675e-14
-5.17102e-14
-4.4285e-14
-3.61758e-14
-2.94482e-14
-2.43235e-14
-1.20633e-14
-4.58666e-15
7.11568e-16
4.10565e-16
-6.77292e-13
-6.76629e-13
-6.73042e-13
-6.69475e-13
-6.7139e-13
-6.66883e-13
-6.6357e-13
-6.6454e-13
-6.61633e-13
-6.55188e-13
-6.51402e-13
-6.4418e-13
-6.38951e-13
-6.3792e-13
-6.35209e-13
-6.29386e-13
-6.21391e-13
-6.17767e-13
-6.07707e-13
-5.92513e-13
-5.75124e-13
-5.64042e-13
-5.57996e-13
-5.55633e-13
-5.48677e-13
-5.45566e-13
-5.41199e-13
-5.3377e-13
-5.27251e-13
-5.20665e-13
-5.13196e-13
-5.01024e-13
-4.89308e-13
-4.7691e-13
-4.6818e-13
-4.6547e-13
-4.65846e-13
-4.58561e-13
-4.48128e-13
-4.38208e-13
-4.24291e-13
-4.11933e-13
-4.08545e-13
-4.04839e-13
-4.00583e-13
-3.90173e-13
-3.81165e-13
-3.77804e-13
-3.72776e-13
-3.62336e-13
-3.52447e-13
-3.47369e-13
-3.40874e-13
-3.30194e-13
-3.22963e-13
-3.19575e-13
-3.13205e-13
-3.08247e-13
-3.03065e-13
-2.94529e-13
-2.84231e-13
-2.77227e-13
-2.68395e-13
-2.61384e-13
-2.54723e-13
-2.45278e-13
-2.35285e-13
-2.26469e-13
-2.2237e-13
-2.23417e-13
-2.15201e-13
-2.09623e-13
-2.02837e-13
-1.91553e-13
-1.80511e-13
-1.68968e-13
-1.58338e-13
-1.52398e-13
-1.51341e-13
-1.50408e-13
-1.43655e-13
-1.29605e-13
-1.18421e-13
-1.05569e-13
-1.00376e-13
-9.45634e-14
-8.75922e-14
-7.78423e-14
-6.91952e-14
-6.34416e-14
-5.74879e-14
-5.05676e-14
-4.53379e-14
-3.7456e-14
-2.88535e-14
-2.04724e-14
-1.24322e-14
-5.74956e-15
6.67642e-16
1.76563e-15
-6.76479e-13
-6.75571e-13
-6.729e-13
-6.70705e-13
-6.76382e-13
-6.73941e-13
-6.63774e-13
-6.58026e-13
-6.54452e-13
-6.52272e-13
-6.5135e-13
-6.5036e-13
-6.40474e-13
-6.33606e-13
-6.31205e-13
-6.26683e-13
-6.23125e-13
-6.16297e-13
-6.05572e-13
-5.90601e-13
-5.77936e-13
-5.65476e-13
-5.56633e-13
-5.55802e-13
-5.54554e-13
-5.45478e-13
-5.38282e-13
-5.33911e-13
-5.30637e-13
-5.22888e-13
-5.14986e-13
-5.01982e-13
-4.88766e-13
-4.76158e-13
-4.6528e-13
-4.63886e-13
-4.60915e-13
-4.57654e-13
-4.51713e-13
-4.41152e-13
-4.2699e-13
-4.1605e-13
-4.08736e-13
-3.99729e-13
-3.97599e-13
-3.91264e-13
-3.83981e-13
-3.74754e-13
-3.6844e-13
-3.62743e-13
-3.53241e-13
-3.47266e-13
-3.40543e-13
-3.31391e-13
-3.28254e-13
-3.23305e-13
-3.12002e-13
-3.03083e-13
-2.99848e-13
-2.92721e-13
-2.8582e-13
-2.76769e-13
-2.70004e-13
-2.63431e-13
-2.54693e-13
-2.43563e-13
-2.36727e-13
-2.27016e-13
-2.19366e-13
-2.1779e-13
-2.14853e-13
-2.10308e-13
-2.04245e-13
-1.91855e-13
-1.79796e-13
-1.69171e-13
-1.60856e-13
-1.53943e-13
-1.53104e-13
-1.49074e-13
-1.41294e-13
-1.3066e-13
-1.19463e-13
-1.07367e-13
-9.90892e-14
-8.99328e-14
-8.35653e-14
-7.94464e-14
-7.31797e-14
-6.35404e-14
-5.64324e-14
-4.92204e-14
-4.25382e-14
-3.53353e-14
-2.73649e-14
-2.15058e-14
-1.38168e-14
-4.45441e-15
1.15162e-15
3.33887e-17
-6.71855e-13
-6.74263e-13
-6.7427e-13
-6.72806e-13
-6.71613e-13
-6.66429e-13
-6.62938e-13
-6.60263e-13
-6.59336e-13
-6.56572e-13
-6.5236e-13
-6.48895e-13
-6.42965e-13
-6.35403e-13
-6.30001e-13
-6.23771e-13
-6.21144e-13
-6.14619e-13
-6.03488e-13
-5.9259e-13
-5.78349e-13
-5.66246e-13
-5.60984e-13
-5.5631e-13
-5.48194e-13
-5.43559e-13
-5.41571e-13
-5.37359e-13
-5.29899e-13
-5.19588e-13
-5.10876e-13
-5.00837e-13
-4.88369e-13
-4.77235e-13
-4.67949e-13
-4.68205e-13
-4.66969e-13
-4.58685e-13
-4.47558e-13
-4.34557e-13
-4.24541e-13
-4.1871e-13
-4.10208e-13
-4.00398e-13
-3.95168e-13
-3.87923e-13
-3.85734e-13
-3.83638e-13
-3.72773e-13
-3.59616e-13
-3.50858e-13
-3.48232e-13
-3.41381e-13
-3.30797e-13
-3.26428e-13
-3.22166e-13
-3.15076e-13
-3.05523e-13
-2.98209e-13
-2.9109e-13
-2.88134e-13
-2.79857e-13
-2.70651e-13
-2.62292e-13
-2.51421e-13
-2.43039e-13
-2.34685e-13
-2.28363e-13
-2.20658e-13
-2.15876e-13
-2.11288e-13
-2.10745e-13
-2.053e-13
-1.91988e-13
-1.79846e-13
-1.69167e-13
-1.62641e-13
-1.56631e-13
-1.49138e-13
-1.41161e-13
-1.42697e-13
-1.36466e-13
-1.20494e-13
-1.08064e-13
-9.83918e-14
-8.82696e-14
-8.1671e-14
-7.84819e-14
-7.25933e-14
-6.35048e-14
-5.55409e-14
-4.99461e-14
-4.28241e-14
-3.41842e-14
-2.92188e-14
-2.00853e-14
-1.11612e-14
-3.26663e-15
1.95174e-15
-4.59163e-16
-6.77411e-13
-6.75064e-13
-6.73084e-13
-6.70537e-13
-6.66426e-13
-6.64479e-13
-6.61961e-13
-6.62057e-13
-6.60399e-13
-6.57075e-13
-6.51281e-13
-6.47978e-13
-6.43197e-13
-6.37872e-13
-6.31305e-13
-6.22546e-13
-6.13763e-13
-6.08031e-13
-6.03334e-13
-5.96181e-13
-5.80836e-13
-5.69708e-13
-5.61531e-13
-5.54235e-13
-5.49616e-13
-5.45422e-13
-5.42052e-13
-5.38159e-13
-5.28258e-13
-5.21579e-13
-5.11899e-13
-4.99994e-13
-4.87251e-13
-4.7519e-13
-4.7011e-13
-4.67874e-13
-4.64175e-13
-4.57323e-13
-4.47025e-13
-4.36087e-13
-4.24992e-13
-4.15945e-13
-4.10795e-13
-4.04361e-13
-3.9886e-13
-3.91935e-13
-3.82683e-13
-3.75747e-13
-3.71374e-13
-3.63328e-13
-3.56873e-13
-3.48166e-13
-3.39536e-13
-3.31647e-13
-3.25507e-13
-3.17899e-13
-3.14075e-13
-3.07392e-13
-2.98584e-13
-2.91819e-13
-2.88733e-13
-2.81864e-13
-2.71368e-13
-2.60766e-13
-2.5228e-13
-2.43673e-13
-2.34383e-13
-2.26895e-13
-2.20658e-13
-2.16003e-13
-2.13004e-13
-2.11451e-13
-2.04273e-13
-1.89736e-13
-1.78985e-13
-1.69267e-13
-1.61961e-13
-1.5546e-13
-1.51498e-13
-1.46321e-13
-1.39426e-13
-1.31435e-13
-1.21115e-13
-1.10604e-13
-1.02562e-13
-8.92365e-14
-8.08004e-14
-7.5666e-14
-7.18238e-14
-6.08229e-14
-5.32162e-14
-4.91881e-14
-4.60608e-14
-3.51723e-14
-2.52283e-14
-1.92009e-14
-1.22889e-14
-1.46708e-15
6.18142e-16
-1.22263e-15
-6.79378e-13
-6.74138e-13
-6.69158e-13
-6.69409e-13
-6.63024e-13
-6.63907e-13
-6.62193e-13
-6.6311e-13
-6.62929e-13
-6.55341e-13
-6.50606e-13
-6.48739e-13
-6.46979e-13
-6.3931e-13
-6.31212e-13
-6.24786e-13
-6.17816e-13
-6.0826e-13
-6.01638e-13
-5.90083e-13
-5.80901e-13
-5.70025e-13
-5.58874e-13
-5.52434e-13
-5.48368e-13
-5.48596e-13
-5.42755e-13
-5.36869e-13
-5.28129e-13
-5.20608e-13
-5.12144e-13
-5.01842e-13
-4.87354e-13
-4.77301e-13
-4.68588e-13
-4.64525e-13
-4.62879e-13
-4.57471e-13
-4.47424e-13
-4.36359e-13
-4.2791e-13
-4.18405e-13
-4.09696e-13
-4.03063e-13
-3.97142e-13
-3.90524e-13
-3.83098e-13
-3.78065e-13
-3.73314e-13
-3.64323e-13
-3.54161e-13
-3.44617e-13
-3.39036e-13
-3.3376e-13
-3.28086e-13
-3.2209e-13
-3.1485e-13
-3.06207e-13
-3.00681e-13
-2.95653e-13
-2.90176e-13
-2.80808e-13
-2.68151e-13
-2.59345e-13
-2.50773e-13
-2.42242e-13
-2.33124e-13
-2.27713e-13
-2.20613e-13
-2.19097e-13
-2.14132e-13
-2.0798e-13
-1.98609e-13
-1.87779e-13
-1.77753e-13
-1.67715e-13
-1.64962e-13
-1.61608e-13
-1.52467e-13
-1.43693e-13
-1.36874e-13
-1.29376e-13
-1.20093e-13
-1.09521e-13
-9.82602e-14
-8.65447e-14
-8.16519e-14
-7.76322e-14
-7.06205e-14
-6.54604e-14
-5.95079e-14
-4.90075e-14
-4.0424e-14
-3.33402e-14
-2.52342e-14
-1.69038e-14
-1.02328e-14
-6.01893e-15
-2.34867e-15
-1.59611e-15
-6.77273e-13
-6.72469e-13
-6.70745e-13
-6.68716e-13
-6.66446e-13
-6.63528e-13
-6.59459e-13
-6.62135e-13
-6.62232e-13
-6.58412e-13
-6.52871e-13
-6.47551e-13
-6.46153e-13
-6.37815e-13
-6.28564e-13
-6.20042e-13
-6.12364e-13
-6.08295e-13
-6.02248e-13
-5.9239e-13
-5.82207e-13
-5.71502e-13
-5.61108e-13
-5.55625e-13
-5.52704e-13
-5.46367e-13
-5.39765e-13
-5.32002e-13
-5.24507e-13
-5.20566e-13
-5.12902e-13
-5.05907e-13
-4.94467e-13
-4.83067e-13
-4.67062e-13
-4.61459e-13
-4.59087e-13
-4.54541e-13
-4.46487e-13
-4.36113e-13
-4.29367e-13
-4.1869e-13
-4.11894e-13
-4.01768e-13
-3.97582e-13
-3.91427e-13
-3.86968e-13
-3.7935e-13
-3.69912e-13
-3.58169e-13
-3.53227e-13
-3.49583e-13
-3.423e-13
-3.30476e-13
-3.23883e-13
-3.17765e-13
-3.10725e-13
-3.08795e-13
-3.01458e-13
-2.98935e-13
-2.97952e-13
-2.78774e-13
-2.6651e-13
-2.60841e-13
-2.53438e-13
-2.44313e-13
-2.35248e-13
-2.28605e-13
-2.1845e-13
-2.14183e-13
-2.10285e-13
-2.10158e-13
-2.02729e-13
-1.90563e-13
-1.75713e-13
-1.6409e-13
-1.64372e-13
-1.60257e-13
-1.52076e-13
-1.45894e-13
-1.38544e-13
-1.29746e-13
-1.18732e-13
-1.08208e-13
-9.91491e-14
-8.79639e-14
-8.08487e-14
-7.74648e-14
-7.14725e-14
-6.14697e-14
-5.43396e-14
-4.86815e-14
-4.0908e-14
-3.30947e-14
-2.83672e-14
-2.21397e-14
-1.04917e-14
-3.29683e-15
1.82615e-15
-3.33882e-16
-6.72317e-13
-6.74179e-13
-6.73962e-13
-6.68353e-13
-6.64012e-13
-6.64383e-13
-6.6299e-13
-6.59492e-13
-6.60241e-13
-6.57228e-13
-6.54417e-13
-6.50852e-13
-6.4445e-13
-6.3636e-13
-6.29246e-13
-6.22974e-13
-6.18889e-13
-6.14145e-13
-6.04286e-13
-5.90407e-13
-5.74812e-13
-5.62571e-13
-5.58306e-13
-5.57669e-13
-5.53813e-13
-5.45883e-13
-5.36992e-13
-5.31943e-13
-5.24297e-13
-5.21461e-13
-5.16172e-13
-5.02875e-13
-4.90257e-13
-4.81353e-13
-4.72705e-13
-4.66661e-13
-4.60902e-13
-4.5332e-13
-4.45821e-13
-4.37272e-13
-4.2776e-13
-4.18124e-13
-4.09005e-13
-4.03928e-13
-4.01905e-13
-3.92968e-13
-3.84948e-13
-3.74126e-13
-3.70949e-13
-3.63941e-13
-3.52873e-13
-3.48192e-13
-3.4153e-13
-3.33318e-13
-3.26731e-13
-3.14973e-13
-3.04827e-13
-3.06953e-13
-3.08885e-13
-3.00441e-13
-2.91034e-13