/*--------------------------------*- C++ -*----------------------------------*\
| =========                 |                                                 |
| \\      /  F ield         | OpenFOAM: The Open Source CFD Toolbox           |
|  \\    /   O peration     | Version:  v2012                                 |
|   \\  /    A nd           | Website:  www.openfoam.com                      |
|    \\/     M anipulation  |                                                 |
\*---------------------------------------------------------------------------*/
FoamFile
{
    version     2.0;
    format      ascii;
    class       volVectorField;
    location    "70";
    object      Usup;
}
// * * * * * * * * * * * * * * * * * * * * * * * * * * * * * * * * * * * * * //

dimensions      [0 1 -1 0 0 0 0];


internalField   nonuniform List<vector> 
4000
(
(0.00904621 0.00129844 0)
(0.0102947 -0.0107692 0)
(0.0040059 -0.0127728 0)
(0.00862517 -0.0142615 0)
(0.0161453 -0.00865984 0)
(0.0232205 -0.00397833 0)
(0.0228784 -0.0136006 0)
(0.0222277 -0.0198663 0)
(0.0127588 -0.0290785 0)
(-0.0107386 -0.0229861 0)
(-0.0246425 -0.0035805 0)
(-0.0183254 0.00698289 0)
(0.000297737 -0.00237874 0)
(-0.0107372 -0.0101663 0)
(-0.0438333 0.00386192 0)
(-0.038444 0.0220761 0)
(-0.0169016 0.0161549 0)
(-0.00230532 0.0156447 0)
(0.00742372 0.0216586 0)
(0.0107106 0.0284997 0)
(0.0110307 0.0165025 0)
(0.00937556 -0.000268633 0)
(-0.00222833 -0.00873985 0)
(-0.0218876 -0.0121514 0)
(-0.0198427 -0.000936297 0)
(-0.000377452 0.0106891 0)
(0.017256 0.0146196 0)
(0.03624 0.0194671 0)
(0.0457706 0.0142952 0)
(0.033188 0.00530052 0)
(0.0116065 -0.00679858 0)
(0.00118749 -0.00243697 0)
(0.0102552 -0.00294433 0)
(0.00841853 -0.0108025 0)
(-0.00304669 -0.00691742 0)
(-0.00642443 -0.00404208 0)
(-0.0194986 -0.0145222 0)
(-0.0341161 -0.0165415 0)
(-0.0307552 -0.0168858 0)
(-0.022533 -0.0121689 0)
(-0.0205249 -0.00856196 0)
(-0.0113653 -0.000869794 0)
(0.0081186 -0.0041188 0)
(0.0117633 -0.0125457 0)
(0.00978835 -0.0180802 0)
(0.0198546 -0.0159901 0)
(0.0270198 -0.00634322 0)
(0.021827 0.00286369 0)
(0.00940126 0.0055589 0)
(0.00426815 0.000572975 0)
(0.00498807 0.00220972 0)
(0.00355655 -0.00624117 0)
(0.00179499 -0.00606321 0)
(-0.00567035 -0.00403245 0)
(-0.0189548 -0.00132097 0)
(-0.0257981 -0.00836711 0)
(-0.02482 -0.00934001 0)
(-0.015402 -0.00324526 0)
(-0.0101516 -0.00751854 0)
(-0.0125167 0.00121292 0)
(-0.00889341 0.00832875 0)
(-0.00617232 0.00151727 0)
(-0.00774937 0.001636 0)
(-0.00322251 0.00302244 0)
(0.0132998 0.0126764 0)
(0.0277053 0.0119489 0)
(0.0335105 0.00312773 0)
(0.0293612 -0.00750228 0)
(0.0168141 -0.0108764 0)
(0.00573514 -0.0125085 0)
(-0.000668856 -0.0052661 0)
(-0.00401415 -0.0048823 0)
(0.00298541 0.000777105 0)
(0.0184396 -0.00484828 0)
(0.0115905 -0.021165 0)
(-0.00704635 -0.0244211 0)
(-0.0169068 -0.0160183 0)
(-0.0253432 -0.00694463 0)
(-0.0278274 0.00447348 0)
(-0.0132286 0.00956868 0)
(-0.00210188 0.00556446 0)
(-0.00798288 -0.00111336 0)
(-0.014999 0.00407743 0)
(-0.0215055 0.00973236 0)
(-0.0143291 0.00993454 0)
(0.00639159 0.00614028 0)
(0.01674 -0.00331954 0)
(0.00750324 -0.00915962 0)
(0.00277093 -0.000464827 0)
(0.0174017 -0.000519104 0)
(0.0325837 -0.00946023 0)
(0.0418744 -0.0106175 0)
(0.0402196 -0.0130907 0)
(0.0294062 -0.0102136 0)
(0.0225502 -0.00765665 0)
(0.0197338 -0.00738765 0)
(0.00792599 -0.0152194 0)
(-0.00930158 -0.0183786 0)
(-0.0220357 -0.0084778 0)
(-0.0132 -0.00382691 0)
(0.00915475 -0.000810326 0)
(0.0150918 -0.020775 0)
(0.0152866 -0.0305576 0)
(0.0308588 -0.0371 0)
(0.0514848 -0.0347089 0)
(0.0544893 -0.0343812 0)
(0.0459393 -0.049589 0)
(0.0406943 -0.0515178 0)
(0.0249973 -0.0663117 0)
(-0.0035283 -0.0640929 0)
(-0.0310492 -0.0276877 0)
(-0.0436474 0.0031075 0)
(-0.027861 0.00183613 0)
(-0.0340749 -0.00703396 0)
(-0.0748394 0.0224524 0)
(-0.0809551 0.0463936 0)
(-0.0511621 0.0436827 0)
(-0.00754874 0.0520129 0)
(0.0220727 0.063917 0)
(0.0189038 0.0720305 0)
(0.00302627 0.0475904 0)
(-0.000148058 0.0158089 0)
(-0.0154384 -0.0121638 0)
(-0.0374207 -0.0183945 0)
(-0.0210728 -0.00303062 0)
(0.0148887 0.0252101 0)
(0.0521634 0.0366552 0)
(0.0874991 0.0435202 0)
(0.0968118 0.0252935 0)
(0.0667262 0.00298829 0)
(0.0323412 -0.00900084 0)
(0.0168424 -0.00970374 0)
(0.0182334 -0.00729753 0)
(0.0144224 -0.0187177 0)
(-0.0023999 -0.0211771 0)
(-0.0268645 -0.0214162 0)
(-0.0601489 -0.0398147 0)
(-0.082467 -0.0382004 0)
(-0.0734294 -0.0346301 0)
(-0.0539498 -0.0270258 0)
(-0.042141 -0.0268741 0)
(-0.0234627 -0.0227758 0)
(0.00541887 -0.0281259 0)
(0.0171108 -0.0402612 0)
(0.0270552 -0.0402152 0)
(0.0588659 -0.0291119 0)
(0.0779816 -0.0143354 0)
(0.0623275 -0.0014287 0)
(0.0267634 0.00143915 0)
(0.0128239 0.00225844 0)
(0.00806059 0.00523967 0)
(0.00171199 -0.0154805 0)
(0.00200977 -0.0269227 0)
(-0.0148313 -0.0202101 0)
(-0.0500769 -0.0094473 0)
(-0.068644 -0.0139833 0)
(-0.0575698 -0.0138842 0)
(-0.0418797 -0.00673598 0)
(-0.0281181 -0.0176968 0)
(-0.0207622 -0.00609518 0)
(-0.0239192 0.0151277 0)
(-0.0218181 0.0150527 0)
(-0.0143208 0.0201803 0)
(0.00690191 0.0192092 0)
(0.0415658 0.0282782 0)
(0.0602978 0.0215319 0)
(0.0666922 0.00683608 0)
(0.0620183 -0.021472 0)
(0.0419845 -0.0269255 0)
(0.0243775 -0.0256839 0)
(0.00991569 -0.0109837 0)
(0.0017069 -0.00966047 0)
(0.0106231 -0.00384751 0)
(0.0204865 -0.0249566 0)
(0.00742698 -0.059596 0)
(-0.0130618 -0.0645331 0)
(-0.0291448 -0.0457917 0)
(-0.0461607 -0.0213499 0)
(-0.0532049 0.0092918 0)
(-0.0370278 0.0223662 0)
(-0.0238621 0.0110458 0)
(-0.0260544 0.000263092 0)
(-0.0302852 0.00986761 0)
(-0.0437962 0.0244501 0)
(-0.0332631 0.0278487 0)
(0.00199897 0.01869 0)
(0.0238904 -0.00303955 0)
(0.0253479 -0.0167145 0)
(0.0254683 -0.00714139 0)
(0.0432409 -0.0129744 0)
(0.0758882 -0.0254364 0)
(0.101129 -0.0220042 0)
(0.101054 -0.0352532 0)
(0.0823727 -0.0356285 0)
(0.0623305 -0.033993 0)
(0.0416039 -0.034333 0)
(0.00958856 -0.0397211 0)
(-0.0160843 -0.0414994 0)
(-0.0369963 -0.0251709 0)
(-0.0229106 -0.00820675 0)
(0.0106312 -0.00541106 0)
(0.0183258 -0.0244223 0)
(0.0219365 -0.0458465 0)
(0.0442149 -0.0624579 0)
(0.0699691 -0.0764057 0)
(0.0744795 -0.073794 0)
(0.0713104 -0.0882989 0)
(0.06065 -0.0774627 0)
(0.0274061 -0.0911527 0)
(-0.000433303 -0.0931544 0)
(-0.0216241 -0.057512 0)
(-0.0431361 -0.012628 0)
(-0.0419501 0.00409466 0)
(-0.0500936 -0.00112055 0)
(-0.0972179 0.0278279 0)
(-0.110791 0.0542418 0)
(-0.0666016 0.0690847 0)
(-0.00757776 0.0937299 0)
(0.0270465 0.105402 0)
(0.0162772 0.0941416 0)
(-0.0100725 0.0744469 0)
(-0.0211222 0.0454861 0)
(-0.0345632 0.0141855 0)
(-0.0460482 -0.00187921 0)
(-0.0122295 0.000633767 0)
(0.0395417 0.0269475 0)
(0.0824195 0.0468292 0)
(0.116971 0.0528863 0)
(0.120893 0.0294147 0)
(0.0942622 0.000866215 0)
(0.0534549 -0.0150854 0)
(0.0304645 -0.0188476 0)
(0.0290248 -0.00839992 0)
(0.0125002 -0.0199359 0)
(-0.0133843 -0.0256893 0)
(-0.0485345 -0.0410704 0)
(-0.0880107 -0.0496019 0)
(-0.110495 -0.0457289 0)
(-0.102822 -0.0410489 0)
(-0.0839773 -0.0379808 0)
(-0.0698798 -0.0527257 0)
(-0.0392663 -0.0575968 0)
(0.00290967 -0.0588 0)
(0.0291822 -0.0641307 0)
(0.0543494 -0.0397275 0)
(0.0924066 -0.0201041 0)
(0.111155 -0.021093 0)
(0.0889929 -0.0249304 0)
(0.0479215 -0.0218636 0)
(0.0288275 -0.00621247 0)
(0.00670802 0.00448145 0)
(-0.0135157 -0.0148477 0)
(-0.00647851 -0.0370094 0)
(-0.0172359 -0.042415 0)
(-0.0636629 -0.0269697 0)
(-0.0934218 -0.0095359 0)
(-0.0838682 -0.0072022 0)
(-0.0697033 -0.0142838 0)
(-0.0502866 -0.0195965 0)
(-0.0248274 -0.0110273 0)
(-0.0212393 0.0108001 0)
(-0.0214876 0.0276786 0)
(-0.0158186 0.0405868 0)
(0.00978315 0.0430048 0)
(0.05448 0.0381914 0)
(0.0807976 0.0198573 0)
(0.0840247 0.00566092 0)
(0.0798526 -0.0190477 0)
(0.0667683 -0.0287706 0)
(0.046946 -0.0310026 0)
(0.0242244 -0.0237552 0)
(0.00766879 -0.0171586 0)
(0.00631695 -0.0104196 0)
(0.00512525 -0.0388611 0)
(-0.00347691 -0.0803181 0)
(-0.0147648 -0.0898569 0)
(-0.0290336 -0.0735798 0)
(-0.0467616 -0.0424763 0)
(-0.0604549 -0.00359342 0)
(-0.0580831 0.017629 0)
(-0.0484229 0.0147296 0)
(-0.0420811 0.00906927 0)
(-0.0385915 0.0167738 0)
(-0.0524391 0.0341028 0)
(-0.044915 0.0445937 0)
(-0.00839438 0.0351882 0)
(0.0209189 0.00541144 0)
(0.0349599 -0.01227 0)
(0.0406268 -0.021104 0)
(0.0653362 -0.0222954 0)
(0.116796 -0.0294607 0)
(0.143482 -0.034471 0)
(0.136879 -0.0537037 0)
(0.118273 -0.0626471 0)
(0.0909718 -0.0678826 0)
(0.0623578 -0.0698718 0)
(0.0180911 -0.0614723 0)
(-0.0193072 -0.0550876 0)
(-0.0417218 -0.0391627 0)
(-0.0252999 -0.00748048 0)
(0.0101996 -0.0116994 0)
(0.0161476 -0.0350615 0)
(0.020634 -0.0620737 0)
(0.0467922 -0.0835701 0)
(0.088245 -0.113389 0)
(0.0950399 -0.1182 0)
(0.0897479 -0.120477 0)
(0.0746529 -0.115577 0)
(0.0293902 -0.118019 0)
(0.0106276 -0.10295 0)
(-0.00213544 -0.0738883 0)
(-0.0349452 -0.0297136 0)
(-0.0570285 -0.00746291 0)
(-0.0662961 -0.00402355 0)
(-0.100273 0.024363 0)
(-0.114007 0.0687607 0)
(-0.0662229 0.094594 0)
(-0.00258863 0.119929 0)
(0.0188284 0.129187 0)
(0.00327963 0.112667 0)
(-0.0223807 0.0994959 0)
(-0.0379007 0.0725783 0)
(-0.0540581 0.0452237 0)
(-0.0603843 0.0290385 0)
(-0.00662392 0.0234227 0)
(0.0641277 0.0313402 0)
(0.113595 0.047078 0)
(0.140526 0.0553793 0)
(0.134042 0.0397884 0)
(0.100059 0.00409457 0)
(0.0640964 -0.027786 0)
(0.0515011 -0.02869 0)
(0.0381635 -0.018177 0)
(0.0107443 -0.0257214 0)
(-0.0256406 -0.0289537 0)
(-0.0694042 -0.0408264 0)
(-0.107495 -0.0476472 0)
(-0.134665 -0.0506669 0)
(-0.128063 -0.0548839 0)
(-0.115067 -0.0587781 0)
(-0.0964196 -0.0696092 0)
(-0.0487439 -0.0810363 0)
(0.00240799 -0.079758 0)
(0.0492505 -0.0717673 0)
(0.0889228 -0.038776 0)
(0.113241 -0.0209809 0)
(0.120828 -0.0258937 0)
(0.103719 -0.0347396 0)
(0.0711926 -0.0323712 0)
(0.0523482 -0.0167665 0)
(0.0138049 -0.00280303 0)
(-0.0252868 -0.0157262 0)
(-0.0255887 -0.0365807 0)
(-0.0294659 -0.0572733 0)
(-0.0639421 -0.0451785 0)
(-0.102443 -0.0136528 0)
(-0.110646 0.00182594 0)
(-0.0943092 -0.0100832 0)
(-0.0617642 -0.0060719 0)
(-0.0287628 0.00346323 0)
(-0.0183999 0.0154787 0)
(-0.0144039 0.0354235 0)
(-0.00769471 0.0453668 0)
(0.0159651 0.053088 0)
(0.0568135 0.0439696 0)
(0.0877666 0.0234826 0)
(0.0986996 0.00126507 0)
(0.093993 -0.00560275 0)
(0.077504 -0.0178103 0)
(0.0571574 -0.0338736 0)
(0.0374193 -0.0319689 0)
(0.02311 -0.0274559 0)
(0.00754737 -0.0236098 0)
(-0.0161686 -0.0499398 0)
(-0.025554 -0.0823783 0)
(-0.0231483 -0.0993589 0)
(-0.0274814 -0.0951033 0)
(-0.040194 -0.0701216 0)
(-0.0570008 -0.027935 0)
(-0.0634138 0.000495314 0)
(-0.061791 0.0089616 0)
(-0.0553856 0.019089 0)
(-0.0442824 0.0317956 0)
(-0.0531765 0.0419727 0)
(-0.0491271 0.0547475 0)
(-0.0226186 0.0497012 0)
(0.00944035 0.0241644 0)
(0.0336763 -0.00338258 0)
(0.0547141 -0.0215932 0)
(0.0908871 -0.0239989 0)
(0.138953 -0.031858 0)
(0.166158 -0.0572944 0)
(0.161681 -0.0739049 0)
(0.14098 -0.0900977 0)
(0.10924 -0.0964881 0)
(0.0789111 -0.100543 0)
(0.0282926 -0.0926184 0)
(-0.0176003 -0.0685251 0)
(-0.0373436 -0.0459914 0)
(-0.0257573 -0.010803 0)
(0.0106554 -0.0130067 0)
(0.0158106 -0.044057 0)
(0.021577 -0.0752635 0)
(0.0437791 -0.100704 0)
(0.0842174 -0.143905 0)
(0.109435 -0.176409 0)
(0.109357 -0.165518 0)
(0.0890813 -0.16103 0)
(0.0481079 -0.132755 0)
(0.0252739 -0.0934548 0)
(0.0107681 -0.0711524 0)
(-0.0238207 -0.0441233 0)
(-0.0575782 -0.0228336 0)
(-0.0691329 -0.00452367 0)
(-0.0937102 0.0218077 0)
(-0.106916 0.0655904 0)
(-0.0649982 0.106224 0)
(-0.00323804 0.131144 0)
(0.0137645 0.139638 0)
(-0.00482864 0.135564 0)
(-0.0352453 0.115371 0)
(-0.057825 0.0965603 0)
(-0.067601 0.0655675 0)
(-0.0655651 0.0612233 0)
(-0.00811399 0.0645257 0)
(0.0739935 0.061876 0)
(0.135059 0.0719697 0)
(0.161657 0.0636681 0)
(0.139524 0.0389398 0)
(0.0959939 -0.00439726 0)
(0.06888 -0.0427009 0)
(0.0649315 -0.0348243 0)
(0.0487136 -0.0234932 0)
(0.0110753 -0.0276318 0)
(-0.0312647 -0.0401105 0)
(-0.0828722 -0.0457279 0)
(-0.129303 -0.05083 0)
(-0.159486 -0.0468824 0)
(-0.154387 -0.0546163 0)
(-0.135366 -0.0714346 0)
(-0.116925 -0.0797925 0)
(-0.063315 -0.0952884 0)
(0.00905433 -0.0960507 0)
(0.0719037 -0.0756641 0)
(0.11442 -0.0529799 0)
(0.132643 -0.0276899 0)
(0.135531 -0.0174432 0)
(0.116279 -0.0281315 0)
(0.0862298 -0.0310486 0)
(0.0677743 -0.0227366 0)
(0.0171725 -0.0168676 0)
(-0.0367012 -0.0213733 0)
(-0.0448159 -0.0383181 0)
(-0.0424628 -0.0580548 0)
(-0.0614926 -0.0491151 0)
(-0.0960626 -0.0157923 0)
(-0.120113 0.0110272 0)
(-0.111198 0.0131539 0)
(-0.0709528 0.0203838 0)
(-0.034177 0.0264847 0)
(-0.0162988 0.027898 0)
(-0.0102183 0.0435962 0)
(-0.00404035 0.0427342 0)
(0.0201131 0.0493206 0)
(0.0590213 0.0424007 0)
(0.0886552 0.0335832 0)
(0.108506 0.0124317 0)
(0.110308 0.00564606 0)
(0.0827493 -0.00536473 0)
(0.0633567 -0.0242522 0)
(0.0472056 -0.0285636 0)
(0.0267754 -0.034677 0)
(0.00065134 -0.0514071 0)
(-0.0297573 -0.0758874 0)
(-0.0397776 -0.0952077 0)
(-0.0371116 -0.102686 0)
(-0.033158 -0.109492 0)
(-0.0317569 -0.0918092 0)
(-0.0454937 -0.0463249 0)
(-0.0645823 -0.0148813 0)
(-0.0639448 0.00140193 0)
(-0.0524514 0.0229634 0)
(-0.0474384 0.0451074 0)
(-0.0568187 0.0485016 0)
(-0.0503629 0.061703 0)
(-0.0279373 0.0599032 0)
(-0.00263934 0.0476413 0)
(0.0257252 0.00976228 0)
(0.0590626 -0.0121327 0)
(0.103412 -0.0243263 0)
(0.149491 -0.0384358 0)
(0.176123 -0.0745231 0)
(0.174611 -0.0954225 0)
(0.154225 -0.117803 0)
(0.121786 -0.128363 0)
(0.0863289 -0.128611 0)
(0.0424022 -0.121295 0)
(-0.00465767 -0.0791576 0)
(-0.0342747 -0.0515722 0)
(-0.0252292 -0.0186563 0)
(0.00668239 -0.0158645 0)
(0.00827075 -0.0524115 0)
(0.0156321 -0.0888073 0)
(0.0322755 -0.128656 0)
(0.0679652 -0.165258 0)
(0.112622 -0.196776 0)
(0.129729 -0.20083 0)
(0.119021 -0.189433 0)
(0.0875734 -0.152382 0)
(0.0511558 -0.110938 0)
(0.0179226 -0.0774982 0)
(-0.0235406 -0.0496282 0)
(-0.0577359 -0.0282375 0)
(-0.0688751 -0.010511 0)
(-0.0879073 0.0116224 0)
(-0.0892193 0.0566454 0)
(-0.0476891 0.108274 0)
(0.00248557 0.132601 0)
(0.0121628 0.140435 0)
(-0.0175017 0.151512 0)
(-0.0502948 0.141616 0)
(-0.0729864 0.114333 0)
(-0.0792535 0.0807344 0)
(-0.0596564 0.0796884 0)
(0.00072753 0.0967048 0)
(0.0866728 0.10284 0)
(0.144004 0.108636 0)
(0.155245 0.0726202 0)
(0.127253 0.0297835 0)
(0.0805748 -0.0155921 0)
(0.0746622 -0.0531762 0)
(0.0894714 -0.037339 0)
(0.0583297 -0.0269539 0)
(0.00370944 -0.028951 0)
(-0.0445032 -0.0417147 0)
(-0.0937106 -0.0528907 0)
(-0.134625 -0.0470983 0)
(-0.170461 -0.0417265 0)
(-0.180761 -0.0526455 0)
(-0.164793 -0.0758324 0)
(-0.137743 -0.0878871 0)
(-0.0740475 -0.0981351 0)
(0.0151339 -0.0953491 0)
(0.08966 -0.0774293 0)
(0.14129 -0.059681 0)
(0.162551 -0.0298674 0)
(0.146424 -0.0215032 0)
(0.118289 -0.0266188 0)
(0.0951766 -0.0288047 0)
(0.0768217 -0.0225931 0)
(0.0224003 -0.0174753 0)
(-0.0405205 -0.0143581 0)
(-0.0599068 -0.033845 0)
(-0.0532683 -0.0483175 0)
(-0.0566387 -0.0379009 0)
(-0.0873439 -0.0196352 0)
(-0.120144 0.00242282 0)
(-0.11651 0.0210785 0)
(-0.0773816 0.0340427 0)
(-0.0439354 0.0441519 0)
(-0.0206603 0.0477617 0)
(-0.0113169 0.0574821 0)
(-0.00292965 0.0446659 0)
(0.0263141 0.0418197 0)
(0.0666718 0.038578 0)
(0.0962788 0.0379939 0)
(0.113597 0.0351304 0)
(0.115993 0.0252849 0)
(0.0859488 0.0103854 0)
(0.0638942 -0.00411444 0)
(0.0471879 -0.0346168 0)
(0.0188961 -0.0570701 0)
(-0.0136685 -0.0759034 0)
(-0.0433496 -0.0915276 0)
(-0.0471461 -0.10694 0)
(-0.0448094 -0.105723 0)
(-0.0396509 -0.116373 0)
(-0.0203674 -0.112271 0)
(-0.0295723 -0.0771381 0)
(-0.0563192 -0.027239 0)
(-0.0594214 0.00514417 0)
(-0.0464429 0.0258241 0)
(-0.0460338 0.0441073 0)
(-0.0567389 0.0490371 0)
(-0.0484809 0.0711171 0)
(-0.0304283 0.0750605 0)
(-0.0149857 0.0619777 0)
(0.0105851 0.026515 0)
(0.0586818 0.00242132 0)
(0.109258 -0.0169487 0)
(0.147173 -0.0410611 0)
(0.172889 -0.0844116 0)
(0.176318 -0.115369 0)
(0.155418 -0.141407 0)
(0.127848 -0.155933 0)
(0.0953809 -0.147587 0)
(0.0583841 -0.141734 0)
(0.00958999 -0.106553 0)
(-0.0321816 -0.070478 0)
(-0.0238989 -0.0224739 0)
(0.00570195 -0.0210382 0)
(0.00383372 -0.0636998 0)
(0.00320619 -0.0946483 0)
(0.0221094 -0.135313 0)
(0.0659131 -0.166606 0)
(0.111621 -0.191751 0)
(0.137923 -0.207324 0)
(0.140467 -0.20842 0)
(0.112198 -0.183837 0)
(0.0765563 -0.14976 0)
(0.04296 -0.0936513 0)
(-0.00751742 -0.0568048 0)
(-0.0540169 -0.0268591 0)
(-0.0691638 -0.0103842 0)
(-0.0757792 0.00774793 0)
(-0.0657392 0.0552086 0)
(-0.0338503 0.107529 0)
(0.00283185 0.137052 0)
(0.0171826 0.139308 0)
(-0.00879689 0.156273 0)
(-0.0637749 0.153796 0)
(-0.101909 0.118561 0)
(-0.0912668 0.0858747 0)
(-0.0498782 0.101142 0)
(0.0176163 0.128774 0)
(0.0988619 0.140593 0)
(0.137192 0.115513 0)
(0.134698 0.0672541 0)
(0.108601 0.0181735 0)
(0.067307 -0.0304082 0)
(0.0800325 -0.0477383 0)
(0.104434 -0.0435536 0)
(0.0675166 -0.0395649 0)
(0.00465042 -0.038022 0)
(-0.0531439 -0.041057 0)
(-0.0996393 -0.046087 0)
(-0.141295 -0.0416546 0)
(-0.188679 -0.0398256 0)
(-0.205896 -0.043402 0)
(-0.185312 -0.0686564 0)
(-0.151845 -0.0964077 0)
(-0.0795732 -0.113535 0)
(0.0221865 -0.101309 0)
(0.104147 -0.075145 0)
(0.162069 -0.0435382 0)
(0.178114 -0.0294481 0)
(0.157475 -0.0212622 0)
(0.129736 -0.00663324 0)
(0.104891 0.00140883 0)
(0.087247 -0.00703693 0)
(0.0290326 -0.0210914 0)
(-0.0488678 -0.0172998 0)
(-0.0763551 -0.0216186 0)
(-0.0586023 -0.0343734 0)
(-0.0594315 -0.0407453 0)
(-0.0894602 -0.039164 0)
(-0.114693 -0.0102832 0)
(-0.111488 0.0223369 0)
(-0.0747793 0.0428921 0)
(-0.0409085 0.0582595 0)
(-0.0182583 0.0640655 0)
(-0.0181717 0.0532219 0)
(-0.0141387 0.046734 0)
(0.0250307 0.0370875 0)
(0.0736801 0.0381807 0)
(0.110238 0.0399144 0)
(0.127002 0.0459076 0)
(0.120123 0.0433224 0)
(0.0862845 0.0199562 0)
(0.0508814 0.00024269 0)
(0.0240511 -0.0432458 0)
(0.00788522 -0.0779024 0)
(-0.0170808 -0.0915437 0)
(-0.04932 -0.103871 0)
(-0.0527571 -0.110906 0)
(-0.0535185 -0.115169 0)
(-0.0540716 -0.124014 0)
(-0.0238974 -0.119084 0)
(-0.00625908 -0.0929871 0)
(-0.0272118 -0.0361049 0)
(-0.0465026 -0.00468174 0)
(-0.0432493 0.0217808 0)
(-0.0468948 0.0384069 0)
(-0.0489998 0.0582898 0)
(-0.0367856 0.0866568 0)
(-0.0323536 0.0852986 0)
(-0.028118 0.0705115 0)
(-0.000625945 0.042913 0)
(0.0512994 0.0204316 0)
(0.101919 -0.0109512 0)
(0.135081 -0.0444239 0)
(0.15826 -0.0871231 0)
(0.166815 -0.126909 0)
(0.151483 -0.157353 0)
(0.133576 -0.169664 0)
(0.0994116 -0.164289 0)
(0.0594041 -0.158619 0)
(0.0178359 -0.139388 0)
(-0.0186957 -0.091927 0)
(-0.0183959 -0.0270281 0)
(0.000254132 -0.0241827 0)
(-0.000238495 -0.0762536 0)
(0.00126424 -0.102304 0)
(0.0122879 -0.125547 0)
(0.0550149 -0.152252 0)
(0.106825 -0.181404 0)
(0.136338 -0.20202 0)
(0.148609 -0.224535 0)
(0.135366 -0.207627 0)
(0.114113 -0.165109 0)
(0.0755821 -0.10167 0)
(0.008913 -0.0601786 0)
(-0.0448031 -0.0273602 0)
(-0.0678047 -0.00378186 0)
(-0.0653721 0.0168702 0)
(-0.0403135 0.0585636 0)
(-0.00829568 0.101708 0)
(0.0102059 0.132719 0)
(0.016013 0.137755 0)
(-0.0125033 0.14202 0)
(-0.0802197 0.131275 0)
(-0.122701 0.118767 0)
(-0.0897826 0.107444 0)
(-0.023143 0.127553 0)
(0.0388551 0.159459 0)
(0.0915674 0.154969 0)
(0.110549 0.109292 0)
(0.10873 0.0609248 0)
(0.0825154 0.00369045 0)
(0.0581018 -0.0509527 0)
(0.0872869 -0.0555849 0)
(0.112431 -0.0596705 0)
(0.0731217 -0.0533146 0)
(0.00655134 -0.0477304 0)
(-0.0535273 -0.039342 0)
(-0.103963 -0.0359259 0)
(-0.145485 -0.0373884 0)
(-0.190909 -0.0333299 0)
(-0.222191 -0.046888 0)
(-0.222309 -0.0813801 0)
(-0.185213 -0.116718 0)
(-0.0863514 -0.119848 0)
(0.0411844 -0.0867857 0)
(0.136212 -0.056059 0)
(0.184194 -0.0220247 0)
(0.191932 -0.0115737 0)
(0.177945 0.00356399 0)
(0.149329 0.0202736 0)
(0.107035 0.0296745 0)
(0.0689322 0.0161767 0)
(0.0191901 -0.0131546 0)
(-0.0414388 -0.0198411 0)
(-0.0781764 -0.017214 0)
(-0.0781744 -0.0321576 0)
(-0.0754531 -0.0586209 0)
(-0.0832994 -0.0565508 0)
(-0.0945005 -0.0240294 0)
(-0.0963705 0.0186261 0)
(-0.0678003 0.0525167 0)
(-0.0418976 0.067056 0)
(-0.0336036 0.0686887 0)
(-0.0281438 0.0433945 0)
(-0.0129932 0.0424138 0)
(0.0281593 0.0396805 0)
(0.0830339 0.0377279 0)
(0.121224 0.0462772 0)
(0.138261 0.0516031 0)
(0.119478 0.0424527 0)
(0.0750527 0.0141411 0)
(0.035011 -0.0133217 0)
(0.00357897 -0.0521756 0)
(-0.00651308 -0.0877566 0)
(-0.0263829 -0.110637 0)
(-0.0553139 -0.123095 0)
(-0.0580435 -0.127387 0)
(-0.0623977 -0.133055 0)
(-0.055502 -0.129599 0)
(-0.0143162 -0.111794 0)
(0.0126691 -0.0870063 0)
(-0.0104114 -0.0489332 0)
(-0.034862 -0.0171256 0)
(-0.030893 0.012619 0)
(-0.0325553 0.0438952 0)
(-0.030662 0.0717204 0)
(-0.0327462 0.0944798 0)
(-0.0402513 0.083523 0)
(-0.0377901 0.0697411 0)
(-0.011966 0.0549373 0)
(0.0386869 0.0356084 0)
(0.0856654 -0.00290933 0)
(0.118121 -0.0450995 0)
(0.139448 -0.0843545 0)
(0.148802 -0.127081 0)
(0.141501 -0.158551 0)
(0.130451 -0.181737 0)
(0.09866 -0.187532 0)
(0.0571198 -0.176561 0)
(0.0226955 -0.15314 0)
(-0.00330766 -0.105318 0)
(-0.0105462 -0.0314071 0)
(-0.00556118 -0.0290477 0)
(-0.00562361 -0.0734642 0)
(0.00478549 -0.0984819 0)
(0.0161463 -0.123111 0)
(0.050171 -0.139719 0)
(0.095438 -0.165607 0)
(0.121457 -0.19358 0)
(0.145814 -0.216058 0)
(0.159031 -0.212275 0)
(0.151162 -0.168445 0)
(0.110883 -0.114717 0)
(0.0329487 -0.0632842 0)
(-0.0304891 -0.0205089 0)
(-0.0570612 0.0107979 0)
(-0.0512606 0.0236173 0)
(-0.0237197 0.0573489 0)
(0.00301212 0.0911386 0)
(0.0154957 0.115085 0)
(0.0143372 0.126241 0)
(-0.019406 0.124284 0)
(-0.0835175 0.113204 0)
(-0.11946 0.128302 0)
(-0.0824077 0.151939 0)
(-0.00643078 0.148131 0)
(0.0465596 0.154021 0)
(0.0750044 0.137704 0)
(0.0852928 0.0947039 0)
(0.0775297 0.0484174 0)
(0.0482152 -0.0104997 0)
(0.0448038 -0.0548697 0)
(0.0919417 -0.0652099 0)
(0.120254 -0.0758753 0)
(0.0854083 -0.0679538 0)
(0.0185027 -0.0429273 0)
(-0.0465498 -0.0324222 0)
(-0.105604 -0.0298279 0)
(-0.151174 -0.0337174 0)
(-0.210306 -0.0422176 0)
(-0.256752 -0.0637333 0)
(-0.251 -0.0950196 0)
(-0.191474 -0.118221 0)
(-0.0646043 -0.0964765 0)
(0.0669693 -0.0600584 0)
(0.154444 -0.0311646 0)
(0.201531 -0.00333543 0)
(0.206586 0.0109725 0)
(0.191968 0.0216865 0)
(0.159839 0.0384615 0)
(0.111179 0.0461512 0)
(0.0623596 0.0394426 0)
(0.00570745 0.0172574 0)
(-0.0526168 -0.00653322 0)
(-0.0903097 -0.0264605 0)
(-0.0979474 -0.0471403 0)
(-0.0896777 -0.0626269 0)
(-0.0786854 -0.0574558 0)
(-0.0750549 -0.0319778 0)
(-0.0704058 0.00893773 0)
(-0.0526813 0.0460395 0)
(-0.0398007 0.0549698 0)
(-0.0428461 0.0571191 0)
(-0.0403791 0.0481548 0)
(-0.0149369 0.0476633 0)
(0.0285549 0.0498596 0)
(0.0902528 0.0442674 0)
(0.135973 0.0459722 0)
(0.142005 0.0575285 0)
(0.110884 0.024516 0)
(0.0624363 -0.00378582 0)
(0.0169731 -0.0310964 0)
(-0.0187626 -0.0647155 0)
(-0.026378 -0.100872 0)
(-0.037706 -0.131495 0)
(-0.0599437 -0.139711 0)
(-0.0624542 -0.143603 0)
(-0.0617615 -0.148452 0)
(-0.0489534 -0.135442 0)
(-0.00608235 -0.110399 0)
(0.0247496 -0.088457 0)
(0.0085675 -0.0640357 0)
(-0.0161395 -0.0251262 0)
(-0.011687 0.00665002 0)
(-0.0142967 0.0551209 0)
(-0.0192774 0.0802745 0)
(-0.0312862 0.0897716 0)
(-0.0488284 0.0864289 0)
(-0.0424149 0.0736074 0)
(-0.0143117 0.0641714 0)
(0.0242523 0.0404143 0)
(0.0611612 -0.001772 0)
(0.0953248 -0.0422587 0)
(0.117428 -0.0761007 0)
(0.128292 -0.122881 0)
(0.12099 -0.158846 0)
(0.112814 -0.185245 0)
(0.092072 -0.198712 0)
(0.0595933 -0.188701 0)
(0.0290415 -0.154094 0)
(0.0109545 -0.106385 0)
(-0.00115263 -0.0340146 0)
(-0.0046358 -0.0242074 0)
(-0.00334151 -0.0575858 0)
(0.000442514 -0.0871981 0)
(0.00968937 -0.116192 0)
(0.0455962 -0.134833 0)
(0.0840335 -0.163117 0)
(0.111202 -0.191531 0)
(0.141782 -0.194527 0)
(0.172048 -0.190315 0)
(0.182315 -0.16151 0)
(0.144597 -0.107826 0)
(0.065857 -0.050925 0)
(-0.0057104 -0.00838089 0)
(-0.0526769 0.0323413 0)
(-0.0491079 0.0434143 0)
(-0.00786614 0.0562921 0)
(0.0190044 0.0739349 0)
(0.023796 0.0931421 0)
(0.0138588 0.0963315 0)
(-0.0277803 0.0799136 0)
(-0.0800473 0.0828424 0)
(-0.0944035 0.121995 0)
(-0.0728898 0.16533 0)
(-0.0166038 0.155295 0)
(0.0392746 0.137144 0)
(0.0593747 0.125418 0)
(0.0594608 0.0853915 0)
(0.0482643 0.027733 0)
(0.0244312 -0.0242309 0)
(0.0351055 -0.0435633 0)
(0.0869464 -0.0539549 0)
(0.122233 -0.069509 0)
(0.105112 -0.0747261 0)
(0.0359618 -0.0572591 0)
(-0.0451648 -0.0478534 0)
(-0.110409 -0.0289636 0)
(-0.163538 -0.0344622 0)
(-0.22417 -0.0575014 0)
(-0.272956 -0.0635261 0)
(-0.2735 -0.0861512 0)
(-0.195211 -0.087477 0)
(-0.0493011 -0.0650203 0)
(0.0872052 -0.0362782 0)
(0.179592 -0.0145032 0)
(0.22001 0.0129451 0)
(0.217441 0.0349193 0)
(0.206422 0.0451133 0)
(0.175525 0.0546164 0)
(0.114789 0.0553609 0)
(0.0526438 0.0463483 0)
(-0.0123801 0.0231952 0)
(-0.0744711 0.00200256 0)
(-0.112191 -0.0259764 0)
(-0.112044 -0.0492619 0)
(-0.0929433 -0.0585389 0)
(-0.0724736 -0.0540385 0)
(-0.0581514 -0.0323069 0)
(-0.0511298 0.00235889 0)
(-0.0447099 0.0308212 0)
(-0.0422578 0.0378125 0)
(-0.0441408 0.0344179 0)
(-0.0370722 0.0439638 0)
(-0.00979476 0.054994 0)
(0.031618 0.07073 0)
(0.0898426 0.0662996 0)
(0.143599 0.0518696 0)
(0.136922 0.0373708 0)
(0.0893204 -0.00101546 0)
(0.0483325 -0.0285852 0)
(0.00266521 -0.0549804 0)
(-0.0376047 -0.0832894 0)
(-0.0481842 -0.121408 0)
(-0.0504431 -0.155785 0)
(-0.0628932 -0.158956 0)
(-0.0665338 -0.154413 0)
(-0.061868 -0.152802 0)
(-0.0360743 -0.137028 0)
(0.00929506 -0.110466 0)
(0.0343925 -0.0913382 0)
(0.023375 -0.0765503 0)
(0.00484551 -0.034277 0)
(0.0171679 0.00517653 0)
(0.0127194 0.0545545 0)
(-0.0112184 0.0816903 0)
(-0.0307808 0.0850708 0)
(-0.0508164 0.0987776 0)
(-0.0489033 0.0942795 0)
(-0.0274903 0.0797257 0)
(0.00208961 0.0305609 0)
(0.0387929 -0.0105998 0)
(0.0779716 -0.0448495 0)
(0.0933333 -0.0690273 0)
(0.0974822 -0.115451 0)
(0.0990321 -0.161679 0)
(0.0959045 -0.188044 0)
(0.079893 -0.202668 0)
(0.0604528 -0.181316 0)
(0.0382023 -0.141159 0)
(0.0215808 -0.0933911 0)
(0.00620067 -0.0352956 0)
(-0.00557027 -0.0158179 0)
(-0.00957461 -0.0467689 0)
(-0.00709662 -0.0775116 0)
(0.00468346 -0.0982712 0)
(0.0335191 -0.11629 0)
(0.0668713 -0.150272 0)
(0.107134 -0.16796 0)
(0.151188 -0.170661 0)
(0.183489 -0.151428 0)
(0.207823 -0.123226 0)
(0.184395 -0.0903512 0)
(0.0950653 -0.0426753 0)
(0.0173123 -0.0102475 0)
(-0.0338947 0.0200645 0)
(-0.049021 0.0495654 0)
(-0.0160157 0.0595851 0)
(0.0169826 0.0630718 0)
(0.0211612 0.0647915 0)
(-0.00350493 0.0607394 0)
(-0.0346953 0.0378718 0)
(-0.0553283 0.0492209 0)
(-0.0590981 0.08341 0)
(-0.0558091 0.125374 0)
(-0.0225519 0.140614 0)
(0.0318358 0.118318 0)
(0.0468685 0.0952615 0)
(0.0257791 0.0691393 0)
(0.0109528 0.0117086 0)
(0.0105006 -0.0243154 0)
(0.0371344 -0.0446084 0)
(0.0853756 -0.059623 0)
(0.114883 -0.0649228 0)
(0.101057 -0.0664128 0)
(0.0412877 -0.0719581 0)
(-0.0263801 -0.0627858 0)
(-0.0997669 -0.0438496 0)
(-0.178909 -0.046436 0)
(-0.240229 -0.0707127 0)
(-0.287023 -0.0689863 0)
(-0.277275 -0.0709713 0)
(-0.182997 -0.043175 0)
(-0.0316276 -0.017672 0)
(0.102247 -0.00143427 0)
(0.191578 0.0101983 0)
(0.241255 0.0284195 0)
(0.235409 0.0607769 0)
(0.212555 0.071601 0)
(0.173486 0.0648157 0)
(0.110347 0.0470776 0)
(0.0423631 0.041197 0)
(-0.0253745 0.0192991 0)
(-0.089706 -0.000384311 0)
(-0.131504 -0.0233192 0)
(-0.127816 -0.0408572 0)
(-0.10114 -0.057571 0)
(-0.0687272 -0.0562236 0)
(-0.0434875 -0.0340245 0)
(-0.0335936 0.00480314 0)
(-0.0350946 0.0231915 0)
(-0.0437859 0.0246995 0)
(-0.042498 0.028612 0)
(-0.0265175 0.0476343 0)
(0.00664843 0.0682116 0)
(0.0419671 0.0857578 0)
(0.0844006 0.078103 0)
(0.125031 0.0474468 0)
(0.114891 0.00110621 0)
(0.0746016 -0.0225276 0)
(0.0344516 -0.0523769 0)
(-0.0128633 -0.0707765 0)
(-0.0590923 -0.10639 0)
(-0.0734158 -0.148056 0)
(-0.0615501 -0.180154 0)
(-0.0578682 -0.174793 0)
(-0.0596742 -0.163696 0)
(-0.0534841 -0.148644 0)
(-0.0247959 -0.120548 0)
(0.0186242 -0.0951275 0)
(0.0396138 -0.0972936 0)
(0.0400636 -0.0890089 0)
(0.0338745 -0.0445588 0)
(0.0446342 0.00864261 0)
(0.0346966 0.040463 0)
(-0.00178961 0.0747156 0)
(-0.0208838 0.0814303 0)
(-0.0411617 0.104232 0)
(-0.0524788 0.119797 0)
(-0.0544758 0.0896508 0)
(-0.03334 0.0344295 0)
(0.0157361 -0.00858251 0)
(0.0622805 -0.045005 0)
(0.0736448 -0.0616701 0)
(0.0645242 -0.110822 0)
(0.0660362 -0.158659 0)
(0.0729436 -0.198002 0)
(0.0769329 -0.201691 0)
(0.0722132 -0.173967 0)
(0.0463667 -0.137667 0)
(0.0243833 -0.085921 0)
(0.00941274 -0.0336812 0)
(-0.00845524 -0.0108555 0)
(-0.0155013 -0.0341714 0)
(-0.0125861 -0.0563953 0)
(-0.000469738 -0.0752014 0)
(0.0207028 -0.0904524 0)
(0.0552672 -0.115911 0)
(0.101761 -0.130838 0)
(0.155981 -0.139829 0)
(0.205546 -0.123906 0)
(0.222572 -0.0868512 0)
(0.196204 -0.0702091 0)
(0.114647 -0.0509598 0)
(0.0284513 -0.0248032 0)
(-0.0217807 -0.00522916 0)
(-0.033417 0.022267 0)
(-0.0107416 0.0480016 0)
(0.0113489 0.0517187 0)
(0.0124963 0.0402699 0)
(-0.0132812 0.0264861 0)
(-0.0412346 0.0145008 0)
(-0.0492071 0.0273802 0)
(-0.0387789 0.0483711 0)
(-0.0289626 0.0878984 0)
(-0.0176765 0.106446 0)
(0.0123093 0.0859885 0)
(0.031773 0.0602113 0)
(0.00845341 0.0334565 0)
(-0.0087315 -0.00616005 0)
(-0.00477437 -0.030264 0)
(0.0209052 -0.0615184 0)
(0.0824304 -0.0824873 0)
(0.125572 -0.0736606 0)
(0.105646 -0.0658079 0)
(0.0414181 -0.069821 0)
(-0.0246571 -0.0629482 0)
(-0.101258 -0.0656425 0)
(-0.188363 -0.0645229 0)
(-0.247288 -0.0769889 0)
(-0.280262 -0.05983 0)
(-0.2613 -0.0376482 0)
(-0.161642 -0.00382321 0)
(-0.0224565 0.0267782 0)
(0.105961 0.0258037 0)
(0.201948 0.0288865 0)
(0.259488 0.0469977 0)
(0.252878 0.0785846 0)
(0.213833 0.0895315 0)
(0.161981 0.0780558 0)
(0.101277 0.0482442 0)
(0.0348588 0.0274289 0)
(-0.0419637 0.0110637 0)
(-0.106733 -0.00779743 0)
(-0.14487 -0.0171399 0)
(-0.142024 -0.0293467 0)
(-0.110587 -0.0472135 0)
(-0.0625495 -0.05176 0)
(-0.0210823 -0.0375472 0)
(-0.0165945 -0.000612125 0)
(-0.0366842 0.0186563 0)
(-0.0433529 0.0184774 0)
(-0.0303472 0.0268858 0)
(-0.00866017 0.0530115 0)
(0.0200863 0.0873158 0)
(0.0432825 0.093708 0)
(0.0683609 0.0729078 0)
(0.0954866 0.0295511 0)
(0.0951166 -0.0138394 0)
(0.0600155 -0.0460485 0)
(0.0224993 -0.0725882 0)
(-0.0284277 -0.0874421 0)
(-0.0873208 -0.125576 0)
(-0.0971815 -0.165698 0)
(-0.0669688 -0.190355 0)
(-0.0499222 -0.190055 0)
(-0.0487624 -0.161427 0)