/*--------------------------------*- C++ -*----------------------------------*\
| =========                 |                                                 |
| \\      /  F ield         | OpenFOAM: The Open Source CFD Toolbox           |
|  \\    /   O peration     | Version:  v2012                                 |
|   \\  /    A nd           | Website:  www.openfoam.com                      |
|    \\/     M anipulation  |                                                 |
\*---------------------------------------------------------------------------*/
FoamFile
{
    version     2.0;
    format      ascii;
    class       volVectorField;
    location    "0";
    object      U;
}
// * * * * * * * * * * * * * * * * * * * * * * * * * * * * * * * * * * * * * //

dimensions      [0 1 -1 0 0 0 0];


internalField   nonuniform List<vector> 
4000
(
(-0.00707467 -0.00388559 0)
(-0.0378348 0.0546114 0)
(0.0106641 -0.0306985 0)
(0.039968 0.0244403 0)
(-0.159661 -0.00892531 0)
(0.0372864 -0.0613909 0)
(0.158367 -0.0425495 0)
(0.0038628 0.101084 0)
(-0.122306 -0.0188664 0)
(-0.0143549 0.000621929 0)
(-0.154602 -0.0703641 0)
(0.0421777 0.0610394 0)
(0.00573752 0.0696169 0)
(0.0716003 -0.062551 0)
(0.0238644 -0.073976 0)
(-0.00854805 -0.0534811 0)
(0.284371 -0.034954 0)
(0.141468 0.0839777 0)
(-0.0594631 0.0719357 0)
(0.0402497 -0.0353992 0)
(0.0337648 0.013757 0)
(-0.0164414 0.0414063 0)
(-0.0260069 0.0917745 0)
(0.00850527 -0.0449925 0)
(0.0524696 -0.051114 0)
(0.0538789 0.0221617 0)
(0.00376292 0.0276972 0)
(0.0427303 0.00250686 0)
(-0.0625728 -0.00865521 0)
(0.00907131 -0.0398009 0)
(-0.0361711 -0.0616121 0)
(-0.000689141 -0.0102209 0)
(0.10494 0.0242379 0)
(-0.00854881 -0.0688951 0)
(0.0540345 0.0991029 0)
(0.0409363 -0.0244978 0)
(-0.070431 -0.0643638 0)
(0.0452782 0.0993353 0)
(0.0832514 0.0877671 0)
(-0.0920231 -0.0469866 0)
(0.00543082 0.00544209 0)
(0.0249066 0.0401996 0)
(0.00665729 -0.0452879 0)
(0.0195785 -0.00516189 0)
(0.067812 -0.0473494 0)
(0.0745996 -0.0483835 0)
(-0.0681883 0.0567643 0)
(0.0519067 -0.00557348 0)
(-0.0342357 -0.0234208 0)
(0.0153663 0.0447053 0)
(0.0220718 -0.0349601 0)
(-0.0112994 -0.00895979 0)
(0.0940862 0.0868674 0)
(-0.0648737 0.0404058 0)
(-0.0944443 -0.0685911 0)
(0.0252671 -0.045668 0)
(0.00627741 0.0556993 0)
(-0.0459534 -0.0408286 0)
(-0.0579358 0.0974883 0)
(-0.0958698 0.0896083 0)
(0.00692807 -0.14963 0)
(0.0908564 -0.117117 0)
(-0.0558965 0.0053563 0)
(0.074985 0.120505 0)
(-0.0738285 0.0125686 0)
(-0.091125 -0.0771186 0)
(0.0995437 0.0278536 0)
(-0.00789236 0.0305017 0)
(0.0143715 0.00908975 0)
(-0.0708737 -0.0646131 0)
(0.0564733 -0.0375673 0)
(-0.0325191 0.0495424 0)
(-0.0193662 0.018395 0)
(-0.036787 0.044079 0)
(0.0681791 -0.00121038 0)
(-0.0175506 -0.0634527 0)
(0.0599354 0.0489112 0)
(-0.0778197 0.112067 0)
(-0.121456 -0.0487536 0)
(0.204516 -0.126659 0)
(-0.0178715 0.0148543 0)
(-0.00704287 0.00872975 0)
(-0.0166432 -0.0195091 0)
(0.163998 0.0619034 0)
(-0.0518531 0.0311502 0)
(-0.0769247 -0.0277024 0)
(0.0561271 -0.0239963 0)
(-0.0520959 -0.0687339 0)
(0.0541511 0.0725731 0)
(-0.0369855 -0.0210736 0)
(0.045877 -0.0275361 0)
(0.0640213 0.0609271 0)
(0.139214 -0.0417038 0)
(0.150745 -0.0652038 0)
(0.0962421 0.066504 0)
(-0.0824748 0.0604954 0)
(-0.11047 0.00669286 0)
(-0.0463959 0.026366 0)
(0.0405083 -0.0460372 0)
(0.0244404 -0.00434493 0)
(0.0125879 0.00243213 0)
(-0.00128283 0.0108865 0)
(0.0495283 -0.0207471 0)
(0.0016017 0.0424884 0)
(-0.0263282 0.0348603 0)
(-0.0187598 -0.103746 0)
(-0.0617993 -0.118447 0)
(0.00311379 0.198835 0)
(-0.0258521 -0.0433699 0)
(0.114844 -0.0753919 0)
(-0.0740857 0.00730326 0)
(-0.00391422 -0.0461112 0)
(0.0314916 -0.0172136 0)
(-0.0408815 0.012468 0)
(-0.0023479 0.070667 0)
(0.00302947 -0.0788834 0)
(-0.00823255 -0.168043 0)
(-0.0731551 0.150905 0)
(-0.0669307 0.0738502 0)
(0.00996502 -0.0748163 0)
(0.00516094 0.0253484 0)
(0.0302883 0.241121 0)
(0.0272825 0.0339361 0)
(-0.0413908 -0.182352 0)
(-0.00548832 -0.013939 0)
(0.119332 -0.0532178 0)
(0.0354687 -0.0437805 0)
(0.0334279 0.0106123 0)
(0.0110985 0.140671 0)
(-0.111555 0.00432713 0)
(-0.0921213 -0.0636793 0)
(-0.13153 0.00111229 0)
(-0.0346861 -0.0348358 0)
(-0.178483 -0.0709335 0)
(-0.0998226 0.127513 0)
(-0.00034793 0.0202042 0)
(-0.0392985 0.0501086 0)
(-0.0181655 0.0139717 0)
(0.0103287 0.0593292 0)
(-0.00624895 -0.01218 0)
(0.0304235 0.00410945 0)
(-0.0492879 -0.103568 0)
(0.0447325 -0.116718 0)
(0.0785916 0.0022921 0)
(0.0346418 0.0451964 0)
(-0.128002 -0.000907965 0)
(-0.0325013 0.0488591 0)
(-0.0691105 -0.0569139 0)
(0.0769687 -0.0263444 0)
(0.0423398 0.0852474 0)
(0.076186 -0.077462 0)
(-0.0132791 0.0143041 0)
(-0.165471 0.0103218 0)
(0.117581 0.0873667 0)
(-0.0370865 0.000601456 0)
(0.000698206 -0.108321 0)
(0.0344935 0.0723742 0)
(0.058364 0.0493328 0)
(0.00336309 -0.108549 0)
(0.0765898 0.0112934 0)
(0.0913406 -0.0200687 0)
(-0.0455543 0.0537498 0)
(-0.129461 -0.0311734 0)
(0.0464714 -0.040083 0)
(0.177828 0.02833 0)
(0.0803909 -0.0294908 0)
(-0.0500962 -0.0155611 0)
(-0.0623192 -0.000293655 0)
(0.0601351 -0.0180089 0)
(0.0287008 0.0124618 0)
(-0.0800761 0.0398719 0)
(0.0125407 0.0729517 0)
(-0.0795983 -0.119583 0)
(0.143056 -0.0738162 0)
(0.032586 0.0857887 0)
(-0.0475391 0.0393044 0)
(-0.0320274 0.0537153 0)
(-0.0405561 0.144425 0)
(0.022409 -0.101698 0)
(0.0729569 -0.194459 0)
(-0.0099545 0.0284762 0)
(0.00501959 0.0438723 0)
(0.0162832 -0.0370407 0)
(-0.0930061 0.0101931 0)
(0.0453387 0.0215541 0)
(-0.0146873 -0.0358282 0)
(-0.047546 -0.0179725 0)
(0.12116 -0.0320625 0)
(0.0491568 0.11706 0)
(0.0228287 -0.0542102 0)
(0.00941057 -0.127477 0)
(0.06735 0.0369113 0)
(-0.0291891 -0.0489642 0)
(-0.0250725 0.0279601 0)
(-0.0389333 0.171244 0)
(0.0207787 0.039811 0)
(-0.00301378 0.0164338 0)
(0.00945077 -0.0498644 0)
(0.050859 -0.100689 0)
(0.0916309 -0.0179265 0)
(-0.00662271 0.00305234 0)
(-0.00163006 0.00203676 0)
(-0.00796988 -0.0348411 0)
(-0.0077337 0.00731759 0)
(-0.0120848 0.133227 0)
(0.00196753 -0.0377535 0)
(-0.0140729 -0.0712792 0)
(-0.00984163 0.0802353 0)
(-0.0412762 -0.061344 0)
(0.162867 -0.066352 0)
(0.0315292 0.0976886 0)
(0.0121722 0.0537951 0)
(-0.0437749 -0.117252 0)
(-0.043952 0.0032557 0)
(-0.0102534 -0.00255022 0)
(0.000556208 -0.0715448 0)
(-0.00580856 -0.0110244 0)
(0.0377945 0.12754 0)
(-0.0518526 -0.0314779 0)
(-0.0404556 -0.0105957 0)
(-0.0462769 0.0270966 0)
(-0.0171825 0.126731 0)
(-0.0260613 -0.0025053 0)
(-0.0660898 0.0223024 0)
(-0.039346 -0.0998259 0)
(-0.00351358 -0.0665083 0)
(-0.137688 0.010329 0)
(-0.0153222 0.0432644 0)
(0.0945367 0.0600604 0)
(-0.0623173 -0.0100502 0)
(-0.213454 -0.0588756 0)
(0.014094 0.0212905 0)
(0.058876 0.102434 0)
(-0.214208 0.0418458 0)
(-0.0609416 -0.125784 0)
(-0.0651177 -0.0635109 0)
(0.058712 0.0851761 0)
(0.101505 0.0100973 0)
(-0.0575465 -0.0801721 0)
(0.122856 -0.0175052 0)
(0.169298 0.0338548 0)
(-0.025315 -0.0602036 0)
(-0.0403079 -0.0509111 0)
(0.0481147 0.00517682 0)
(-0.0736844 0.0991124 0)
(-0.0114662 -0.00887584 0)
(0.0180339 0.0200423 0)
(-0.133237 0.0613361 0)
(-0.206095 -0.0791326 0)
(0.0251523 -0.0632789 0)
(0.11703 0.0442444 0)
(-0.0349967 0.0998989 0)
(-0.095245 -0.0270879 0)
(0.0614973 -0.00131481 0)
(0.0652237 -0.0411848 0)
(0.149639 -0.0326667 0)
(-0.0150526 0.0603329 0)
(-0.0214105 0.0591506 0)
(0.0261358 -0.0258631 0)
(-0.0156344 0.0115698 0)
(-0.0839076 -0.0348411 0)
(-0.0264395 -0.00345305 0)
(0.00196329 -0.0277855 0)
(0.0729879 -0.0680339 0)
(0.068957 -0.0388131 0)
(0.221112 -0.000589486 0)
(-0.067893 0.0814985 0)
(0.0410371 0.0318695 0)
(0.0106101 -0.028324 0)
(-0.0602824 0.0303379 0)
(-0.00386387 -0.0887068 0)
(-0.0623849 0.0535955 0)
(0.0531621 -0.0517559 0)
(0.00328573 -0.08633 0)
(0.0108616 0.0849978 0)
(0.204998 0.00134803 0)
(-0.00243265 0.111804 0)
(0.0341136 0.202423 0)
(0.154502 -0.202747 0)
(0.0780753 -0.229304 0)
(-0.0279981 0.139022 0)
(-0.0951688 0.0663757 0)
(-0.0126706 -0.0830315 0)
(0.0226535 0.0457923 0)
(0.00890545 0.0784865 0)
(-0.0303495 -0.109467 0)
(0.0262515 -0.120785 0)
(0.00757063 -0.00555076 0)
(0.109891 0.166879 0)
(0.00810311 0.0201088 0)
(-0.00356982 -0.101281 0)
(-0.0971305 0.0313942 0)
(0.00945062 0.0414319 0)
(-0.0533262 -0.0299044 0)
(0.0221633 0.10311 0)
(0.0482352 0.0699116 0)
(0.00284837 -0.0226853 0)
(0.185985 -0.0802974 0)
(0.0497234 -0.0175319 0)
(-0.0454823 -0.0344002 0)
(0.00130081 0.0160899 0)
(0.00188647 0.0393233 0)
(-0.00942936 -0.0131857 0)
(-0.0592746 0.0330247 0)
(0.0717317 -0.0197035 0)
(-0.133347 -0.182232 0)
(0.0383324 0.0638032 0)
(0.108686 0.149954 0)
(-0.00266406 -0.0244851 0)
(-0.0568226 -0.0413912 0)
(-0.0618509 0.0771083 0)
(0.00161126 0.00703909 0)
(-0.0110593 0.0299375 0)
(-0.00134915 -0.092594 0)
(0.00814832 -0.160429 0)
(-0.0142257 -0.088627 0)
(0.0225848 0.0468892 0)
(-0.0183034 0.140305 0)
(0.00742713 -0.0360221 0)
(0.0947157 -0.13142 0)
(0.0176406 0.112523 0)
(0.0304558 0.172924 0)
(0.0738228 -0.0759795 0)
(-0.0964409 -0.00934362 0)
(0.06927 0.0401299 0)
(0.124275 0.0879243 0)
(-0.0331481 -0.247461 0)
(0.060966 -0.0392332 0)
(0.283868 0.169302 0)
(-0.0671116 0.259719 0)
(-0.229679 -0.0416088 0)
(-0.180518 -0.255061 0)
(0.0201717 0.0372471 0)
(0.255696 0.104823 0)
(0.0703609 -0.0380951 0)
(0.0470098 0.000399288 0)
(-0.00149058 -0.0282996 0)
(0.0193589 0.0567566 0)
(0.0363539 -0.0491404 0)
(-0.00318122 -0.0709113 0)
(0.0221525 0.0347798 0)
(-0.0362309 0.062343 0)
(-0.0266962 -0.0240173 0)
(0.0290765 -0.0602142 0)
(-0.0273876 0.0523292 0)
(0.0575042 0.109715 0)
(-0.1407 0.00560784 0)
(-0.136923 0.0277424 0)
(0.0321738 -0.0758283 0)
(-0.048626 -0.0425509 0)
(-0.0909592 0.00282894 0)
(0.00918098 0.0279356 0)
(-0.0241575 0.169372 0)
(-0.0127983 -0.111984 0)
(0.00114532 -0.116595 0)
(-0.0190825 0.0774375 0)
(-0.0505763 0.0687878 0)
(0.0551769 -0.0285886 0)
(0.00130642 0.0102021 0)
(0.057055 0.0491486 0)
(-0.0463911 0.00032978 0)
(-0.0273535 -0.0298068 0)
(0.0764918 -0.0871077 0)
(-0.0358169 -0.0456221 0)
(-0.0262031 -0.131097 0)
(-0.0158032 -0.0574612 0)
(0.0687693 0.0685493 0)
(-0.0645581 0.125663 0)
(-0.00872779 -0.0120721 0)
(-0.0303582 -0.000790326 0)
(0.0556672 -0.0619967 0)
(-0.0434663 0.0478698 0)
(-0.012917 0.0531664 0)
(0.00897925 -0.0876343 0)
(0.00207433 -0.0569669 0)
(0.00175314 0.132412 0)
(-0.0556078 0.119048 0)
(0.0249006 0.00837353 0)
(0.0991324 -0.234035 0)
(-0.0233157 -0.0517937 0)
(-0.0205123 0.218348 0)
(-0.0352684 -0.0452305 0)
(0.0317082 -0.14585 0)
(0.0799979 0.0331919 0)
(0.096293 0.0802418 0)
(0.0148183 -0.0329506 0)
(-0.0300723 -0.0902957 0)
(-0.0600253 -0.0639923 0)
(0.0849727 0.106381 0)
(0.103077 0.055517 0)
(-0.161476 -0.095436 0)
(0.110282 0.0512995 0)
(0.0982662 0.0634474 0)
(-0.0881317 -0.0196746 0)
(-0.0350852 0.0772686 0)
(0.0702385 0.109265 0)
(0.178732 -0.182937 0)
(0.0235254 -0.0865172 0)
(0.0165712 0.119527 0)
(0.00063893 0.0616555 0)
(-0.00466861 0.00279236 0)
(-0.00481 0.073243 0)
(0.158221 -0.0219643 0)
(-0.0091697 -0.00416091 0)
(-0.0114564 0.0222142 0)
(-0.0561278 -0.0724906 0)
(0.0508794 -0.043177 0)
(0.0509736 0.0287421 0)
(-0.0281961 0.0821914 0)
(0.0678778 -0.0556123 0)
(0.0572307 -0.0272294 0)
(0.0579596 0.0626127 0)
(-0.00623471 -0.0112952 0)
(0.0253244 -0.144568 0)
(-0.0263624 0.00490826 0)
(0.0198008 -0.0303002 0)
(0.0502773 0.095165 0)
(-0.0924116 0.00578605 0)
(-0.0024576 -0.174014 0)
(-0.0529 0.0323409 0)
(-0.0722142 0.0493419 0)
(0.0744448 0.135408 0)
(-0.0358783 0.101009 0)
(-0.159923 -0.0823031 0)
(0.0648887 -0.0538843 0)
(0.176936 -0.120112 0)
(0.027802 -0.00988412 0)
(-0.272264 -4.77519e-05 0)
(-0.0135073 0.0446997 0)
(0.105264 0.193133 0)
(0.231582 0.101149 0)
(-0.136936 -0.0561607 0)
(-0.273037 -0.0943125 0)
(0.108771 -0.0877858 0)
(0.207396 -0.0230233 0)
(0.16635 0.115095 0)
(0.000920377 0.00384592 0)
(0.015358 -0.100113 0)
(0.0491661 -0.0303535 0)
(0.0958284 0.0950701 0)
(-0.0208119 0.0911343 0)
(-0.0169391 -0.0758618 0)
(0.0241237 -0.114986 0)
(-0.000888977 0.00185619 0)
(0.00880978 0.014793 0)
(-0.0278569 0.206618 0)
(-0.016885 0.106119 0)
(-0.00484555 -0.0913644 0)
(-0.00701487 -0.251854 0)
(0.0589454 0.0862964 0)
(0.0318431 0.0840258 0)
(-0.229791 -0.107057 0)
(0.0916261 -0.00978083 0)
(0.0756208 0.0168832 0)
(-0.0889558 0.0462698 0)
(-0.0393435 -0.00830225 0)
(0.149022 -0.0317729 0)
(0.071926 0.00439906 0)
(0.137709 0.0823432 0)
(-0.0276927 -0.019687 0)
(-0.0616443 0.00114804 0)
(0.0232505 0.0215817 0)
(-0.0274005 -0.150913 0)
(-0.0146908 -0.0272134 0)
(-0.00790882 -0.00799195 0)
(-0.0577448 -0.0894519 0)
(-0.0338495 0.0294165 0)
(-0.0384428 0.073514 0)
(-0.0175989 0.0402382 0)
(-0.00281804 -0.0388318 0)
(-0.0349244 -0.0115593 0)
(-0.0226642 0.0778878 0)
(-0.0144392 0.00339749 0)
(-0.0337525 -0.114986 0)
(0.019304 -0.0602139 0)
(0.087222 0.113005 0)
(-0.0372812 0.134989 0)
(-0.136797 0.028066 0)
(0.0930977 -0.1781 0)
(-0.0138561 -0.0337099 0)
(0.000396592 0.196396 0)
(0.00938714 -0.0174013 0)
(-0.0544955 -0.135387 0)
(-0.00539786 0.0273704 0)
(0.0437187 0.07913 0)
(-0.264376 -0.0211452 0)
(-0.117225 -0.123772 0)
(-0.0707031 -0.113196 0)
(-0.115912 0.069087 0)
(0.0221902 0.170339 0)
(-0.0515392 -0.0923899 0)
(-0.0352813 -0.115901 0)
(-0.138791 0.0488446 0)
(-0.139448 0.138592 0)
(-0.101247 -0.0177107 0)
(0.0390976 -0.0763252 0)
(0.0765845 -0.0428113 0)
(0.00945362 0.0392896 0)
(0.0180748 0.101867 0)
(-0.0305875 0.0250419 0)
(0.0010427 0.00518663 0)
(0.00223762 0.031944 0)
(-0.0117498 -0.0048275 0)
(0.0167485 0.111677 0)
(-0.0118466 -0.0802848 0)
(0.00446733 -0.0244555 0)
(0.0183758 -0.0568345 0)
(-0.0515011 -0.0186536 0)
(0.151719 0.106471 0)
(-0.0262306 -0.0240404 0)
(0.0356301 -0.154946 0)
(0.116623 0.146405 0)
(-0.00810947 0.0134085 0)
(0.0308274 -0.0800897 0)
(-0.0610573 -0.0667943 0)
(-0.00670172 -0.130641 0)
(0.0244585 0.120461 0)
(0.0250869 0.0476346 0)
(-0.00531447 -0.194161 0)
(-0.0548691 0.0440716 0)
(0.0631095 0.152987 0)
(0.0119946 -0.00291382 0)
(-0.0239527 0.0901837 0)
(-0.0377196 0.0505693 0)
(-0.0440553 -0.141907 0)
(-0.0262921 -0.0143972 0)
(-0.124823 0.178447 0)
(0.0231213 -0.0192761 0)
(0.0116231 -0.0819252 0)
(0.00301309 -0.0145462 0)
(0.0606658 0.133454 0)
(-0.0740539 0.245561 0)
(0.0143373 -0.119853 0)
(-0.120054 -0.144949 0)
(-0.00318448 -0.217997 0)
(0.0383069 0.00514007 0)
(0.13269 0.140656 0)
(-0.0757342 3.92501e-05 0)
(-0.164356 -0.256267 0)
(-0.102027 0.13374 0)
(0.0114764 0.19573 0)
(0.0677459 -0.0203361 0)
(-0.00195044 -0.131767 0)
(-0.0121566 0.0593787 0)
(-0.00899902 0.0408582 0)
(-0.0274671 0.0251173 0)
(0.0167665 0.151161 0)
(-0.0114276 -0.118334 0)
(0.0251165 -0.266335 0)
(-0.0805 0.0210668 0)
(-0.0507668 0.299384 0)
(-0.00572591 0.00827845 0)
(0.00934521 -0.160908 0)
(-0.0310156 0.105248 0)
(-0.057961 -0.0215272 0)
(-0.0467694 -0.080955 0)
(0.0162368 -0.0713983 0)
(-0.00238249 0.032192 0)
(0.00401146 0.215877 0)
(0.149687 0.0436733 0)
(0.0186248 -0.15258 0)
(0.086607 -0.0994541 0)
(0.0444315 0.0345572 0)
(-0.0799677 -0.0292272 0)
(-0.00843181 -0.0993044 0)
(-0.00654495 -0.0539852 0)
(0.0451089 0.0707782 0)
(-0.0142066 -0.0253106 0)
(0.12278 0.0558698 0)
(-0.0490159 0.0521348 0)
(0.0174511 -0.0186127 0)
(0.0124327 -0.047932 0)
(0.0609932 0.0474171 0)
(-0.0221289 -0.0755183 0)
(0.014782 -0.0512039 0)
(-0.138869 0.13811 0)
(-0.133514 0.214251 0)
(-0.0190545 -0.0729655 0)
(-0.0918645 -0.327097 0)
(0.0321666 0.0262391 0)
(0.081509 0.212676 0)
(-0.0537459 0.0457228 0)
(-0.051199 -0.169645 0)
(0.0337458 -0.0352579 0)
(0.098985 0.200497 0)
(-0.0471252 0.00461631 0)
(0.0511913 -0.126657 0)
(-0.113246 0.00138255 0)
(-0.0928402 0.0747566 0)
(0.131654 -0.0375948 0)
(-0.016801 -0.0247277 0)
(-0.0322433 0.0450151 0)
(-0.0575598 0.0627497 0)
(-0.0403617 0.0243456 0)
(-0.0721671 -0.0472332 0)
(-0.0346726 -0.0260311 0)
(-0.0493923 -0.0116906 0)
(0.0104683 0.000231226 0)
(-0.0199296 0.0799555 0)
(-0.00346324 0.0289147 0)
(0.0022648 -0.00753455 0)
(0.00539605 0.081404 0)
(0.00415283 -0.135725 0)
(0.0328087 0.0235176 0)
(-0.00314233 0.107162 0)
(-0.0253678 0.0712973 0)
(-0.0279054 -0.0898063 0)
(-0.060638 -0.0806994 0)
(-0.00344198 0.0320504 0)
(0.0434787 -0.151244 0)
(0.0327191 -0.120006 0)
(0.0108146 0.161644 0)
(-0.00219261 0.106704 0)
(0.0591285 -0.0349916 0)
(-0.0716294 -0.108586 0)
(-0.0191701 -0.0657734 0)
(0.0514446 -0.026636 0)
(0.0254218 0.0431852 0)
(0.012768 0.0450521 0)
(0.00794949 -0.168062 0)
(0.0366111 0.00714546 0)
(-0.200698 0.159686 0)
(0.0853626 0.123177 0)
(-0.0480829 0.0696392 0)
(-0.0848116 -0.165943 0)
(-0.073435 -0.0137865 0)
(0.0323201 -0.112563 0)
(0.0104335 0.198954 0)
(-0.0475063 0.158302 0)
(-0.131126 0.00555632 0)
(0.0516918 0.0402329 0)
(0.232012 0.0381133 0)
(0.0405396 -0.0830069 0)
(0.0683834 -0.0628394 0)
(-0.0906904 -0.156038 0)
(0.0910617 0.0145577 0)
(-0.133252 0.184021 0)
(0.0513982 -0.0303577 0)
(0.0639398 -0.0900304 0)
(-0.0612219 -0.00626156 0)
(-0.0739783 0.0279921 0)
(-0.0397631 -0.0693515 0)
(-0.0503227 -0.0168065 0)
(-0.0406376 -0.0463345 0)
(0.107122 0.00203172 0)
(0.0880176 0.168407 0)
(-0.0657775 0.193319 0)
(-0.016663 -0.205608 0)
(-0.0916587 -0.151179 0)
(-0.175497 0.183254 0)
(-0.0119376 0.0123306 0)
(0.117143 -0.136093 0)
(0.0401123 0.0818141 0)
(-0.0862225 0.254328 0)
(0.0198028 -0.0846482 0)
(-0.00392071 -0.195212 0)
(0.00482857 -0.0279189 0)
(-0.0465137 0.142007 0)
(-0.0339224 0.0671121 0)
(-0.0275725 -0.0761646 0)
(0.0997445 -0.138319 0)
(0.00523325 -0.0202833 0)
(-0.0455668 0.147776 0)
(-0.0252077 -0.113834 0)
(-0.0509144 -0.157179 0)
(0.0467317 0.00398715 0)
(-0.0358436 -0.0537313 0)
(0.000979255 0.0249676 0)
(0.00180591 0.0276094 0)
(0.0305933 0.124602 0)
(-0.00736591 0.0708478 0)
(0.00499501 -0.19392 0)
(0.0624229 -0.0167068 0)
(-4.40989e-05 0.0473581 0)
(0.120984 -0.0419865 0)
(0.0871398 0.199184 0)
(0.105706 0.118068 0)
(-0.0600457 -0.1283 0)
(-0.098665 -0.104773 0)
(-0.131408 -0.0404625 0)
(0.0816914 0.109791 0)
(0.000157526 0.167001 0)
(-0.0532433 -0.0964961 0)
(-0.116782 -0.157293 0)
(0.00170039 0.0107459 0)
(-0.0403613 0.0671946 0)
(-0.0459835 -0.00571775 0)
(-0.0727632 -0.028982 0)
(0.0427263 -0.0530717 0)
(0.0695891 -0.0141581 0)
(-0.0597126 0.0586068 0)
(4.46912e-05 -0.0273792 0)
(0.0352208 0.138808 0)
(-0.136541 0.0872992 0)
(0.0214102 -0.0986742 0)
(0.176178 -0.0716891 0)
(0.112563 -0.0952309 0)
(0.0389755 0.0399972 0)
(-0.141466 0.0658983 0)
(0.0451882 -0.00726267 0)
(0.0138227 0.00334317 0)
(0.00536712 0.0117805 0)
(-0.0379279 -0.013879 0)
(-0.161385 -0.0429503 0)
(-0.0769257 0.141686 0)
(-0.170628 0.0424787 0)
(0.112899 -0.0613643 0)
(0.0180333 -0.117751 0)
(-0.014278 -0.0386487 0)
(-0.133771 0.0814077 0)
(-0.289146 0.00230641 0)
(0.0906201 -0.0426591 0)
(0.0103296 -0.00600798 0)
(0.00831502 0.0112218 0)
(-0.0443435 -0.0810996 0)
(0.0204529 -0.00868333 0)
(-0.0064694 -0.0700956 0)
(0.019179 0.000707698 0)
(-0.00694037 -0.0158093 0)
(-0.012967 0.00662709 0)
(-0.0153276 0.0981471 0)
(0.00853431 -0.110394 0)
(0.0663743 -0.0152962 0)
(0.0076932 0.194999 0)
(-0.186496 0.0990499 0)
(-0.109069 -0.217836 0)
(0.0300799 -0.140949 0)
(-0.00833187 0.187201 0)
(0.0982181 0.228717 0)
(-0.0229571 -0.0330618 0)
(0.083872 -0.0600167 0)
(0.00625309 0.0197135 0)
(0.0346905 0.0637714 0)
(0.00750264 -0.0448451 0)
(0.0318376 -0.147339 0)
(0.024506 -0.0419036 0)
(0.057367 0.192213 0)
(0.029565 0.0234858 0)
(0.0329506 0.0330547 0)
(-0.00691174 -0.123202 0)
(-0.0635716 -0.0902284 0)
(-0.0233473 -0.0247222 0)
(0.0243428 -0.0427553 0)
(0.00363042 -0.021599 0)
(-0.107661 0.0913199 0)
(-0.0203772 0.12252 0)
(0.0848275 0.0305701 0)
(0.052969 -0.0538993 0)
(-0.115964 -0.0484672 0)
(-0.0944342 0.0958667 0)
(-0.148965 -0.0239087 0)
(-0.154985 -0.0827107 0)
(-0.0275481 0.130204 0)
(0.0930349 0.106227 0)
(6.62466e-05 -0.0525911 0)
(-0.0164063 -0.0697205 0)
(-0.062889 -0.097728 0)
(0.0648589 0.109847 0)
(0.046688 0.172769 0)
(0.0962731 -0.128588 0)
(-0.096484 -0.130355 0)
(-0.0800978 -0.00560716 0)
(-0.0539149 0.0704502 0)
(0.0931975 -0.0427173 0)
(-0.021981 -0.0951868 0)
(-0.0306043 0.0510983 0)
(-0.178132 -0.0586994 0)
(-0.0605522 -0.0330725 0)
(0.0105012 0.0828898 0)
(-0.0234296 0.0016717 0)
(0.0818715 -0.0560729 0)
(-0.0787062 -0.0159369 0)
(0.0300126 -0.00634677 0)
(-0.0240367 -0.120535 0)
(0.0251053 -0.0281884 0)
(-0.128696 0.18641 0)
(-0.0151524 0.165581 0)
(-0.0932332 0.0145684 0)
(-0.0374955 -0.0642799 0)
(0.0140219 -0.152914 0)
(0.0190128 0.0659879 0)
(0.235511 0.13906 0)
(0.0788791 0.0920445 0)
(-0.0489641 -0.112068 0)
(0.00269306 -0.137657 0)
(-0.00879197 0.10684 0)
(0.10787 0.0219238 0)
(0.0242036 -0.0978252 0)
(0.0207957 -0.0558524 0)
(-0.125617 0.0259409 0)
(0.0120607 0.120915 0)
(-0.208092 -0.0386928 0)
(-0.108203 0.0516156 0)
(0.165559 0.0842102 0)
(-0.0589686 -0.0878343 0)
(-0.0213411 -0.184756 0)
(0.0286188 0.0216341 0)
(-0.0162979 0.158564 0)
(-0.0179032 0.00270665 0)
(-0.00321537 -0.0637806 0)
(0.0024688 0.0487061 0)
(-0.00465208 -0.00471906 0)
(-0.0110432 -0.0372187 0)
(0.0096264 -0.0358925 0)
(0.0390613 0.0725 0)
(0.0241208 -0.0492244 0)
(-0.0329374 -0.0154127 0)
(-0.0195217 -0.0437794 0)
(0.0233424 0.0320239 0)
(0.0450006 0.119705 0)
(0.0243447 -0.203279 0)
(0.0246303 -0.066393 0)
(0.0904635 0.204213 0)
(0.00130673 -0.0397329 0)
(-0.0149728 -0.175577 0)
(-0.0248879 0.0250462 0)
(0.0177594 -0.0756623 0)
(0.11638 0.0368917 0)
(0.0400688 0.167526 0)
(-0.181771 -0.193361 0)
(0.224644 -0.0386159 0)
(0.154641 0.189901 0)
(0.025918 0.11384 0)
(0.0103822 0.0810257 0)
(0.0416853 0.0662744 0)
(-0.0183078 -0.308181 0)
(-0.0733475 -0.2253 0)
(-0.0198693 0.128445 0)
(-0.0552502 0.283145 0)
(0.0498651 0.045236 0)
(-0.0254247 -0.0516485 0)
(0.0229526 -0.0187148 0)
(-0.0147138 0.0511695 0)
(0.163119 -0.0366577 0)
(0.0076582 -0.0501701 0)
(-0.134014 -0.00972413 0)
(-0.190422 0.0441066 0)
(0.00230984 0.0422547 0)
(-0.0715721 -0.0394993 0)
(0.0369862 -0.0149429 0)
(0.00580829 0.00793601 0)
(-0.0903703 -0.00508785 0)
(0.0223833 -0.0509465 0)
(-0.205819 -0.0918408 0)
(0.072442 0.0550565 0)
(-0.0375046 0.151672 0)
(-0.0583374 0.0300805 0)
(-0.0480646 -0.14558 0)
(-0.075121 0.0484084 0)
(-0.00616629 0.0990323 0)
(-0.0100147 0.0210437 0)
(-0.127101 -0.121445 0)
(0.187464 -0.0751562 0)
(0.030806 0.102389 0)
(0.0238405 0.0216687 0)
(0.0242854 -0.00820463 0)
(-0.0350506 -0.0155828 0)
(0.0551211 0.0692941 0)
(0.121846 0.0685544 0)
(0.0362488 -0.112446 0)
(-0.0240508 -0.0717777 0)
(-0.00724431 0.0231304 0)
(0.0323193 0.00394934 0)
(0.00829796 -0.0646412 0)
(-0.0369372 -0.0472711 0)
(0.0518022 -0.0105796 0)
(-0.0591694 -0.0223321 0)
(-0.0751866 0.0291675 0)
(-0.0177923 -0.00941359 0)
(-0.0740553 -0.034109 0)
(0.00851371 0.0826713 0)
(-0.0874357 -0.0359197 0)
(0.222718 -0.0856319 0)
(-0.0413455 -0.0809009 0)
(-0.0824427 0.0647131 0)
(-0.243287 0.165057 0)
(0.00839444 0.0957124 0)
(0.0645486 -0.0884346 0)
(0.0299073 0.00349823 0)
(-0.00855103 0.00456631 0)
(-0.0047174 -0.1322 0)
(-0.0615534 -0.00429688 0)
(-0.00139545 0.160173 0)
(-0.0164862 -0.051008 0)
(0.0211761 -0.106194 0)
(-0.0252655 -0.00316645 0)
(0.0668979 -0.00703091 0)
(0.0426731 0.0873522 0)
(-0.101796 0.047551 0)
(-0.0857579 -0.0664978 0)
(-0.0640529 0.000706329 0)
(-0.0154822 0.12056 0)
(0.00654157 -0.0435433 0)
(0.000773335 0.0776654 0)
(-0.0472584 -0.00404962 0)
(-0.0579157 -0.149363 0)
(0.0384369 0.0373293 0)
(-0.0266633 0.0575452 0)
(-0.0200882 -0.00800169 0)
(-0.00652097 -0.0344708 0)
(0.0218571 0.00137634 0)
(0.0499032 0.0399107 0)
(-0.00786672 -0.036598 0)
(0.0518429 -0.0415398 0)
(0.0235192 0.0628126 0)
(-0.00095325 0.0892293 0)
(-0.0300377 -0.00481368 0)
(-0.0356391 -0.166908 0)
(-0.00197426 -0.0636495 0)
(-0.0296968 0.122214 0)
(-0.0420422 0.0741587 0)
(-0.012447 -0.104875 0)
(-0.109792 -0.0527385 0)
(0.0417014 0.0713062 0)
(0.0422197 -0.0851899 0)
(-0.04107 -0.114446 0)
(0.0164135 -0.00680097 0)
(0.118301 0.061232 0)
(-0.0169151 0.220016 0)
(0.0447655 -0.205943 0)
(-0.0234159 -0.214363 0)
(-0.240335 0.189939 0)
(0.144091 0.150316 0)
(0.065069 0.0389255 0)
(0.0622538 0.00138946 0)
(-0.0140555 -0.124235 0)
(-0.239592 -0.026035 0)
(-0.154416 0.0839556 0)
(0.0457651 0.0704911 0)
(-0.092327 -0.0458789 0)
(-0.063205 0.0534082 0)
(0.1041 -0.038043 0)
(-0.125745 -0.0499737 0)
(0.0512268 0.0119623 0)
(-0.0776384 0.135978 0)
(-0.00961115 0.0645365 0)
(0.039055 -0.17206 0)
(-0.011915 -0.0273414 0)
(-0.0889209 0.110116 0)
(-0.000879497 -0.0324439 0)
(0.172812 -0.0585 0)
(-0.0265612 -0.00623881 0)
(0.0531242 -0.0358181 0)
(0.0104934 -0.0342889 0)
(0.0416679 0.0419814 0)
(-0.231772 0.151047 0)
(0.0725672 -0.0554579 0)
(0.200719 -0.16063 0)
(0.0597226 0.139292 0)
(-0.0342007 0.115734 0)
(-0.0359841 -0.19681 0)
(0.00952406 -0.0681046 0)
(-0.0643795 0.0151147 0)
(0.0262067 0.0396573 0)
(0.0659071 0.212216 0)
(0.0127751 -0.203455 0)
(0.0824775 -0.203957 0)
(0.0441606 0.225946 0)
(0.0311465 0.129575 0)
(0.0303552 -0.126121 0)
(0.061678 -0.0938967 0)
(0.00507481 0.0607345 0)
(0.0307774 0.0345443 0)
(-0.0757891 0.0581093 0)
(-0.0495526 -0.069617 0)
(0.0903855 -0.0500952 0)
(-0.152581 -0.0165616 0)
(0.0891605 0.0107528 0)
(-0.0304932 -0.0305226 0)
(-0.119694 0.0361395 0)
(0.138548 0.0295035 0)
(0.0411886 -0.075637 0)
(-0.042367 -0.0652856 0)
(-0.117769 0.00182188 0)
(-0.141404 0.165142 0)
(-0.0424245 0.0917767 0)
(-0.019841 -0.0791804 0)
(-0.00455216 -0.109669 0)
(0.139258 0.00966082 0)
(0.119277 0.0177924 0)
(0.0415347 0.0152175 0)
(0.152151 0.0634851 0)
(-0.0554701 0.0624505 0)
(0.122069 -0.100089 0)
(-0.0539805 -0.0831988 0)
(0.124894 -0.00652105 0)
(-0.0749878 0.0189588 0)
(-0.0625527 0.0464224 0)
(-0.000672863 0.0327285 0)
(-0.0313494 0.0420369 0)
(-0.150701 0.0227203 0)
(-0.0495655 0.0172139 0)
(-0.00192349 0.0208014 0)
(-0.047379 0.0570577 0)
(0.0483437 -0.0431488 0)
(-0.0168726 -0.248764 0)
(-0.0236678 0.0273179 0)
(0.0780875 0.162466 0)
(0.0237498 -0.0333274 0)
(-0.007242 -0.0843401 0)
(0.00129954 -0.021379 0)
(0.000628639 -0.0284165 0)
(0.000145985 0.143669 0)
(-0.00349475 0.00285831 0)
(0.00706156 -0.0958208 0)
(0.0208598 0.0529839 0)
(-2.62317e-06 -0.017648 0)
(-0.00239509 -0.140695 0)
(0.0110923 0.031481 0)
(-0.000158973 0.211271 0)
(0.0220453 0.105738 0)
(0.000551575 -0.0721711 0)
(0.0373008 -0.092057 0)
(0.0151084 -0.181696 0)
(0.108847 0.0336586 0)
(0.00940422 -0.0735373 0)
(0.00817897 -0.053531 0)
(0.0095528 0.0794667 0)
(0.0164096 0.08794 0)
(0.0451659 0.0577325 0)
(0.0102083 -0.116112 0)
(-0.0925802 -0.0347014 0)
(-0.12405 0.0583159 0)
(-0.127486 0.0653776 0)
(0.0949299 0.0660477 0)
(-0.227438 0.0777438 0)
(-0.0288584 0.0244895 0)
(-0.00475999 -0.084261 0)
(-0.00272637 0.0924761 0)
(-0.104421 0.0618658 0)
(0.00788193 -0.134126 0)
(-0.0270251 -0.0815224 0)
(-0.0170677 0.0127287 0)
(-0.0866244 0.00381677 0)
(-0.0228058 0.0540606 0)
(0.0777035 0.0902491 0)
(0.0630576 -0.0797143 0)
(-0.00146973 -0.11086 0)
(-0.0387383 0.0600685 0)
(0.0132548 0.0491028 0)
(-0.0211539 -0.0298745 0)
(0.01265 -0.0399087 0)
(0.0531582 -0.115739 0)
(-0.02874 0.0305823 0)
(0.000975491 0.180408 0)
(-0.0209954 -0.0454634 0)
(-0.00152752 -0.154782 0)
(-0.0330317 -0.00908439 0)
(0.0133058 0.129295 0)
(0.0517358 0.11306 0)
(-0.00372632 -0.0436531 0)
(0.0876077 -0.0139456 0)
(0.121143 -0.0806357 0)
(-0.030685 -0.18124 0)
(0.106924 0.165804 0)
(0.101295 0.0212567 0)
(-0.0359894 -0.153405 0)
(0.0196202 0.143434 0)
(-0.0409968 0.16897 0)
(-0.00453991 -0.0424811 0)
(0.0238126 -0.1403 0)
(0.0275151 0.0133113 0)
(0.0282544 0.0825325 0)
(-0.0572913 0.0461734 0)
(-0.0287669 -0.0237769 0)
(0.0142437 -0.0443185 0)
(0.111532 0.00938195 0)
(0.0693515 -0.112602 0)
(-0.0268469 -0.0321058 0)
(0.0428907 0.125576 0)
(0.053071 0.0447144 0)
(0.0469141 0.117823 0)
(-0.0118928 -0.0388887 0)
(0.0391899 -0.0829641 0)
(-0.10059 -0.100361 0)
(0.266923 0.00516278 0)
(0.0758716 0.0942542 0)
(-0.209396 -0.0298312 0)
(-0.0064255 -0.0909498 0)
(-0.0278523 -0.0413995 0)
(-0.0468032 0.083902 0)
(-0.0148917 0.122042 0)
(0.0109965 0.0466556 0)
(-0.00463466 -0.0582774 0)
(0.0230181 -0.124822 0)
(0.00144947 0.0220384 0)
(0.00625959 0.0988917 0)
(0.0161685 0.00846558 0)
(0.0608429 -0.0449468 0)
(0.0524851 0.07992 0)
(-0.0310768 0.0990274 0)
(0.03246 -0.0673367 0)
(0.140978 -0.110553 0)
(0.10449 -0.0384247 0)
(-0.00376217 0.047387 0)
(0.042671 -0.0349652 0)
(-0.0202794 0.0795466 0)
(0.0195756 0.0831903 0)
(0.0089302 -0.118849 0)
(0.0325053 -0.0358354 0)
(0.00629814 -0.0219912 0)
(-0.0060733 0.0530517 0)
(0.00215489 0.0579871 0)
(-0.01351 -0.0664415 0)
(0.00460969 0.00580969 0)
(-0.0101246 0.118318 0)
(-0.0060133 -0.103022 0)
(0.0446431 -0.132498 0)
(0.000437989 -0.0570339 0)
(-0.0153355 0.161309 0)
(0.0126486 0.12388 0)
(-0.00837892 -0.125824 0)
(0.00341299 -0.275965 0)
(0.00543249 -0.166349 0)
(0.00285483 0.258581 0)
(-0.00538888 0.19286 0)
(0.0225906 -0.24308 0)
(0.0114703 -0.125684 0)
(0.0341984 0.131197 0)
(0.118107 0.0352394 0)
(0.0156565 -0.106401 0)
(0.140551 0.0995249 0)
(-0.0527597 0.177483 0)
(0.0791223 -0.0148946 0)
(-0.0118559 -0.00743098 0)
(0.00401521 -0.0306148 0)
(0.0422613 -0.123179 0)
(0.0867216 0.054294 0)
(-0.108109 0.102091 0)
(0.099791 0.13221 0)
(0.166728 -0.119537 0)
(-0.236301 -0.0456575 0)
(0.13861 0.0764386 0)
(0.203736 -0.131669 0)
(-0.0862727 0.0448421 0)
(-0.0454951 0.0591738 0)
(0.0204611 -0.0446913 0)
(0.0266885 -0.0181274 0)
(0.0384828 0.0125369 0)
(0.0066117 0.0864538 0)
(-0.000225009 -0.0301335 0)
(0.0120175 -0.151927 0)
(0.000518206 -0.129371 0)
(0.0344996 0.0622996 0)
(-0.0822045 0.146976 0)
(0.0174828 0.0101327 0)
(-0.00837897 -0.00500938 0)
(0.00880025 -0.0249019 0)
(-0.00188947 0.0578442 0)
(0.0187311 0.0777608 0)
(0.0922081 -0.0747311 0)
(0.0525079 -0.0567536 0)
(-0.0115031 -0.00716223 0)
(0.0536072 -0.00668676 0)
(0.0322829 -0.0164459 0)
(0.0249416 0.00743922 0)
(0.0726108 0.0106177 0)
(-0.0418748 0.0380929 0)
(0.000950765 0.1392 0)
(0.00820591 0.0594838 0)
(0.0170643 -0.1461 0)
(0.0180102 -0.158679 0)
(-0.0249844 0.136281 0)
(-0.00835145 0.142308 0)
(-0.00413907 -0.000882178 0)
(-0.00177948 -0.250329 0)
(-0.0139315 0.0123046 0)
(0.0688018 0.0403001 0)
(-0.0693926 0.102583 0)
(0.00402836 0.123107 0)
(-0.00487913 -0.0168438 0)
(-0.0145816 -0.11719 0)
(-0.0103324 0.00589031 0)
(0.0368268 0.0980867 0)
(0.00216639 -0.0690415 0)
(-0.0929324 -0.0430981 0)
(-0.0429767 0.0560679 0)
(-0.0162386 -0.0691465 0)
(-0.00195244 -0.0460727 0)
(0.0295314 0.0766695 0)
(-0.100222 0.0319286 0)