/*--------------------------------*- C++ -*----------------------------------*\
| =========                 |                                                 |
| \\      /  F ield         | OpenFOAM: The Open Source CFD Toolbox           |
|  \\    /   O peration     | Version:  v2012                                 |
|   \\  /    A nd           | Website:  www.openfoam.com                      |
|    \\/     M anipulation  |                                                 |
\*---------------------------------------------------------------------------*/
FoamFile
{
    version     2.0;
    format      ascii;
    class       volVectorField;
    location    "70";
    object      Usup;
}
// * * * * * * * * * * * * * * * * * * * * * * * * * * * * * * * * * * * * * //

dimensions      [0 1 -1 0 0 0 0];


internalField   nonuniform List<vector> 
4000
(
(-3.01915e-16 -2.8526e-17 0)
(-4.83003e-16 3.284e-16 0)
(-6.06391e-16 6.06682e-16 0)
(-9.02243e-16 7.87311e-16 0)
(-1.26795e-15 6.01866e-16 0)
(-1.83861e-15 2.25387e-16 0)
(-2.09714e-15 6.72425e-16 0)
(-2.43713e-15 9.41933e-16 0)
(-2.67907e-15 1.16277e-15 0)
(-2.39509e-15 7.09383e-16 0)
(-2.57043e-15 9.78185e-17 0)
(-3.31987e-15 1.12666e-16 0)
(-3.84949e-15 4.71032e-16 0)
(-3.78309e-15 8.59709e-16 0)
(-3.09777e-15 7.69203e-16 0)
(-2.74573e-15 5.19286e-16 0)
(-3.08423e-15 4.00296e-16 0)
(-3.85301e-15 1.55805e-16 0)
(-4.88765e-15 -1.94727e-16 0)
(-5.18964e-15 2.12354e-17 0)
(-4.44359e-15 3.28713e-16 0)
(-3.27475e-15 1.33786e-16 0)
(-2.38954e-15 -3.62396e-17 0)
(-1.58822e-15 -1.14019e-16 0)
(-8.3763e-16 -3.5906e-16 0)
(-4.58748e-16 -3.29791e-16 0)
(-6.36398e-16 -4.81317e-16 0)
(-1.03647e-15 -5.49896e-16 0)
(-1.08769e-15 -7.36803e-16 0)
(-1.5216e-15 -9.31333e-16 0)
(-1.92683e-15 -5.80998e-16 0)
(-1.83039e-15 -7.5881e-16 0)
(-1.7762e-15 -9.87139e-16 0)
(-1.56658e-15 -1.05434e-15 0)
(-1.63276e-15 -1.34547e-15 0)
(-2.32603e-15 -1.35544e-15 0)
(-3.0852e-15 -1.01097e-15 0)
(-3.20244e-15 -4.74341e-16 0)
(-2.55233e-15 -3.57005e-16 0)
(-1.90747e-15 -8.03433e-16 0)
(-1.36126e-15 -9.66945e-16 0)
(-8.28124e-16 -1.16675e-15 0)
(-5.36323e-16 -1.20376e-15 0)
(-1.04248e-15 -1.31746e-15 0)
(-1.97118e-15 -1.16769e-15 0)
(-1.95939e-15 -1.07179e-15 0)
(-1.23435e-15 -1.2297e-15 0)
(-8.59492e-16 -1.55088e-15 0)
(-5.76386e-16 -1.5918e-15 0)
(-2.41813e-16 -1.67801e-15 0)
(-6.35171e-17 -1.69486e-15 0)
(1.738e-18 -1.63303e-15 0)
(-1.63541e-16 -1.67309e-15 0)
(-1.70734e-16 -1.57512e-15 0)
(-3.1345e-17 -1.53419e-15 0)
(2.8814e-16 -1.43033e-15 0)
(6.9184e-16 -1.56462e-15 0)
(6.40687e-16 -1.70067e-15 0)
(4.49382e-16 -1.80849e-15 0)
(2.65156e-16 -1.95733e-15 0)
(-1.65384e-16 -2.05435e-15 0)
(-8.0802e-16 -1.99707e-15 0)
(-1.2283e-15 -1.78082e-15 0)
(-9.99016e-16 -1.73436e-15 0)
(-1.15688e-15 -2.19701e-15 0)
(-1.99798e-15 -2.31437e-15 0)
(-2.90089e-15 -2.32635e-15 0)
(-3.1637e-15 -2.10547e-15 0)
(-3.20957e-15 -2.1257e-15 0)
(-3.43653e-15 -2.22494e-15 0)
(-3.74474e-15 -2.30627e-15 0)
(-4.03572e-15 -2.33842e-15 0)
(-4.5681e-15 -2.34106e-15 0)
(-5.17583e-15 -1.84569e-15 0)
(-5.20265e-15 -1.94442e-15 0)
(-5.21935e-15 -1.97009e-15 0)
(-5.37169e-15 -2.02895e-15 0)
(-5.67984e-15 -2.04648e-15 0)
(-6.10618e-15 -2.27325e-15 0)
(-6.39424e-15 -1.94401e-15 0)
(-6.34182e-15 -1.61434e-15 0)
(-6.37759e-15 -1.66614e-15 0)
(-6.69747e-15 -1.96511e-15 0)
(-6.96874e-15 -1.94589e-15 0)
(-6.92815e-15 -1.76512e-15 0)
(-7.0146e-15 -1.50431e-15 0)
(-7.35933e-15 -1.38363e-15 0)
(-6.80863e-15 -1.37179e-15 0)
(-5.85286e-15 -1.7172e-15 0)
(-5.37152e-15 -1.75046e-15 0)
(-5.33125e-15 -1.654e-15 0)
(-5.31903e-15 -1.28589e-15 0)
(-5.27226e-15 -1.18497e-15 0)
(-4.91708e-15 -1.05133e-15 0)
(-4.02154e-15 -9.80356e-16 0)
(-3.41019e-15 -8.39203e-16 0)
(-3.13537e-15 -6.15766e-16 0)
(-2.51361e-15 -3.38119e-16 0)
(-1.53382e-15 5.11578e-19 0)
(-5.57825e-16 1.4545e-16 0)
(-5.13058e-16 1.99234e-16 0)
(-1.0787e-15 9.9989e-16 0)
(-1.738e-15 1.51966e-15 0)
(-2.89554e-15 1.92234e-15 0)
(-4.30451e-15 1.77882e-15 0)
(-5.17571e-15 1.47362e-15 0)
(-5.51328e-15 2.00594e-15 0)
(-6.54144e-15 2.44848e-15 0)
(-7.67204e-15 2.84334e-15 0)
(-8.01038e-15 2.14635e-15 0)
(-8.21406e-15 1.00317e-15 0)
(-9.0758e-15 7.47327e-16 0)
(-9.94341e-15 1.36218e-15 0)
(-1.01951e-14 2.23532e-15 0)
(-9.42446e-15 2.19953e-15 0)
(-8.82324e-15 1.64137e-15 0)
(-9.58719e-15 1.01868e-15 0)
(-1.14606e-14 2.08835e-16 0)
(-1.32023e-14 -2.76535e-16 0)
(-1.32546e-14 6.54917e-17 0)
(-1.19064e-14 3.87972e-16 0)
(-9.59303e-15 3.98072e-16 0)
(-7.21007e-15 -4.47844e-17 0)
(-5.18202e-15 -2.06599e-16 0)
(-3.273e-15 -8.5957e-16 0)
(-2.2418e-15 -9.92579e-16 0)
(-2.53711e-15 -1.34775e-15 0)
(-3.32235e-15 -1.51113e-15 0)
(-3.71665e-15 -2.04979e-15 0)
(-4.26102e-15 -2.52752e-15 0)
(-5.10445e-15 -2.17331e-15 0)
(-5.48004e-15 -2.60355e-15 0)
(-5.31655e-15 -3.0183e-15 0)
(-5.06883e-15 -3.06199e-15 0)
(-5.32783e-15 -3.59003e-15 0)
(-6.32566e-15 -3.59381e-15 0)
(-7.45935e-15 -3.15426e-15 0)
(-7.84336e-15 -2.1339e-15 0)
(-7.22439e-15 -1.83927e-15 0)
(-5.90904e-15 -2.77622e-15 0)
(-4.35785e-15 -2.95463e-15 0)
(-3.03335e-15 -3.27125e-15 0)
(-2.38147e-15 -3.29523e-15 0)
(-3.22039e-15 -3.59472e-15 0)
(-4.77495e-15 -3.50696e-15 0)
(-4.97662e-15 -3.44825e-15 0)
(-3.84624e-15 -3.87649e-15 0)
(-2.78047e-15 -4.41784e-15 0)
(-1.81323e-15 -4.48913e-15 0)
(-9.77194e-16 -4.75015e-15 0)
(-3.77968e-16 -4.82762e-15 0)
(-1.93156e-16 -4.88651e-15 0)
(-3.87597e-16 -4.93947e-15 0)
(-2.81448e-16 -4.84676e-15 0)
(8.61496e-17 -4.77106e-15 0)
(6.67583e-16 -4.35737e-15 0)
(1.28239e-15 -4.66139e-15 0)
(1.22706e-15 -4.81189e-15 0)
(7.53307e-16 -5.04389e-15 0)
(1.69296e-16 -5.6854e-15 0)
(-7.86566e-16 -6.20028e-15 0)
(-2.05248e-15 -6.21154e-15 0)
(-3.1146e-15 -5.92097e-15 0)
(-3.56942e-15 -5.83087e-15 0)
(-4.36144e-15 -6.56464e-15 0)
(-5.98549e-15 -6.74467e-15 0)
(-7.82013e-15 -6.71482e-15 0)
(-8.74722e-15 -6.29949e-15 0)
(-9.42043e-15 -6.61353e-15 0)
(-1.01723e-14 -6.85057e-15 0)
(-1.10021e-14 -6.92314e-15 0)
(-1.18571e-14 -6.79867e-15 0)
(-1.28081e-14 -6.97648e-15 0)
(-1.428e-14 -6.09654e-15 0)
(-1.50212e-14 -6.1012e-15 0)
(-1.52457e-14 -6.15111e-15 0)
(-1.57388e-14 -6.02951e-15 0)
(-1.6674e-14 -6.18143e-15 0)
(-1.74333e-14 -6.42904e-15 0)
(-1.77465e-14 -5.82092e-15 0)
(-1.81234e-14 -5.08534e-15 0)
(-1.88079e-14 -5.19924e-15 0)
(-1.94591e-14 -5.68652e-15 0)
(-1.9703e-14 -5.75494e-15 0)
(-1.95562e-14 -5.33176e-15 0)
(-1.97713e-14 -4.58325e-15 0)
(-2.03752e-14 -3.97775e-15 0)
(-1.94619e-14 -3.94603e-15 0)
(-1.74197e-14 -4.68931e-15 0)
(-1.58388e-14 -5.03723e-15 0)
(-1.51526e-14 -4.93455e-15 0)
(-1.4878e-14 -4.19503e-15 0)
(-1.46447e-14 -3.7814e-15 0)
(-1.35785e-14 -3.13687e-15 0)
(-1.14709e-14 -2.93086e-15 0)
(-9.66911e-15 -2.4705e-15 0)
(-8.40369e-15 -1.82485e-15 0)
(-6.48581e-15 -1.01688e-15 0)
(-3.99195e-15 -2.42975e-16 0)
(-1.66949e-15 8.73926e-17 0)
(-7.46387e-16 5.75394e-16 0)
(-1.85597e-15 1.75103e-15 0)
(-3.06062e-15 2.34305e-15 0)
(-4.81543e-15 2.5685e-15 0)
(-6.8608e-15 3.02572e-15 0)
(-8.27574e-15 3.22716e-15 0)
(-9.03253e-15 3.32097e-15 0)
(-1.04308e-14 3.49305e-15 0)
(-1.21965e-14 3.92021e-15 0)
(-1.32588e-14 3.68542e-15 0)
(-1.38281e-14 2.41995e-15 0)
(-1.46222e-14 1.77688e-15 0)
(-1.53238e-14 2.3648e-15 0)
(-1.57887e-14 3.24254e-15 0)
(-1.54141e-14 3.50283e-15 0)
(-1.51631e-14 2.83321e-15 0)
(-1.64032e-14 1.59029e-15 0)
(-1.85496e-14 3.00865e-16 0)
(-2.03034e-14 -1.71014e-16 0)
(-2.02866e-14 9.33952e-17 0)
(-1.82685e-14 1.09045e-16 0)
(-1.51478e-14 2.96342e-16 0)
(-1.18999e-14 -3.13773e-16 0)
(-8.97089e-15 -6.15823e-16 0)
(-6.30222e-15 -1.09518e-15 0)
(-4.63945e-15 -1.51446e-15 0)
(-4.79206e-15 -2.29043e-15 0)
(-5.8326e-15 -2.5494e-15 0)
(-6.56727e-15 -3.03489e-15 0)
(-7.1609e-15 -3.5773e-15 0)
(-8.26093e-15 -3.88274e-15 0)
(-8.88426e-15 -4.48679e-15 0)
(-8.56049e-15 -5.24175e-15 0)
(-8.39752e-15 -5.35906e-15 0)
(-8.889e-15 -5.7961e-15 0)
(-1.00879e-14 -5.74403e-15 0)
(-1.12732e-14 -5.36697e-15 0)
(-1.16239e-14 -4.6831e-15 0)
(-1.13104e-14 -4.36049e-15 0)
(-9.54308e-15 -4.71962e-15 0)
(-7.12332e-15 -4.80419e-15 0)
(-5.2985e-15 -5.03332e-15 0)
(-4.48991e-15 -5.0165e-15 0)
(-5.55897e-15 -5.78418e-15 0)
(-7.30301e-15 -6.2248e-15 0)
(-7.60531e-15 -6.14481e-15 0)
(-6.19953e-15 -6.53437e-15 0)
(-4.50464e-15 -6.6966e-15 0)
(-3.08315e-15 -7.11188e-15 0)
(-1.89306e-15 -7.79234e-15 0)
(-9.8449e-16 -8.07848e-15 0)
(-6.12709e-16 -8.24303e-15 0)
(-6.66375e-16 -8.04289e-15 0)
(-4.35932e-16 -7.97486e-15 0)
(3.34013e-16 -7.94166e-15 0)
(9.99687e-16 -7.66372e-15 0)
(1.56421e-15 -7.6549e-15 0)
(1.50996e-15 -8.02805e-15 0)
(4.59099e-16 -8.49933e-15 0)
(-7.15199e-16 -9.51744e-15 0)
(-1.90183e-15 -1.01533e-14 0)
(-3.44217e-15 -1.02698e-14 0)
(-4.97291e-15 -1.03108e-14 0)
(-6.08965e-15 -1.04854e-14 0)
(-7.52457e-15 -1.12399e-14 0)
(-9.75395e-15 -1.14086e-14 0)
(-1.22726e-14 -1.12962e-14 0)
(-1.40989e-14 -1.08419e-14 0)
(-1.55171e-14 -1.1258e-14 0)
(-1.65511e-14 -1.11966e-14 0)
(-1.77113e-14 -1.11733e-14 0)
(-1.92909e-14 -1.07628e-14 0)
(-2.07297e-14 -1.12773e-14 0)
(-2.26179e-14 -1.09966e-14 0)
(-2.40696e-14 -1.07111e-14 0)
(-2.4561e-14 -1.05365e-14 0)
(-2.54986e-14 -1.00018e-14 0)
(-2.70118e-14 -1.01943e-14 0)
(-2.79192e-14 -1.0232e-14 0)
(-2.82824e-14 -9.63997e-15 0)
(-2.91384e-14 -8.93277e-15 0)
(-3.04752e-14 -8.7561e-15 0)
(-3.14102e-14 -9.15842e-15 0)
(-3.15518e-14 -9.50274e-15 0)
(-3.10615e-14 -9.02438e-15 0)
(-3.11061e-14 -8.22688e-15 0)
(-3.19345e-14 -6.96888e-15 0)
(-3.11625e-14 -6.36674e-15 0)
(-2.86281e-14 -7.0476e-15 0)
(-2.61208e-14 -7.75077e-15 0)
(-2.44886e-14 -7.84535e-15 0)
(-2.35985e-14 -7.16494e-15 0)
(-2.27866e-14 -6.30318e-15 0)
(-2.11489e-14 -5.02654e-15 0)
(-1.82354e-14 -4.52166e-15 0)
(-1.52558e-14 -3.75029e-15 0)
(-1.28797e-14 -2.99541e-15 0)
(-9.81564e-15 -1.88296e-15 0)
(-6.20215e-15 -1.01392e-15 0)
(-2.56463e-15 -2.76811e-16 0)
(-8.87753e-16 9.15346e-16 0)
(-2.56178e-15 2.51681e-15 0)
(-4.62139e-15 3.20572e-15 0)
(-6.70527e-15 3.39119e-15 0)
(-9.08835e-15 4.04489e-15 0)
(-1.12592e-14 4.70437e-15 0)
(-1.2534e-14 4.77416e-15 0)
(-1.41273e-14 4.79757e-15 0)
(-1.61955e-14 4.7203e-15 0)
(-1.82405e-14 4.51066e-15 0)
(-1.93949e-14 3.42717e-15 0)
(-1.97601e-14 3.05993e-15 0)
(-2.01737e-14 3.70172e-15 0)
(-2.08333e-14 4.13665e-15 0)
(-2.09904e-14 4.19647e-15 0)
(-2.14639e-14 3.66971e-15 0)
(-2.31643e-14 2.44079e-15 0)
(-2.53209e-14 1.09587e-15 0)
(-2.66825e-14 1.37663e-16 0)
(-2.63592e-14 -1.34901e-16 0)
(-2.40034e-14 -1.7077e-16 0)
(-2.04005e-14 -3.79822e-16 0)
(-1.64832e-14 -9.79528e-16 0)
(-1.25826e-14 -1.30705e-15 0)
(-9.30539e-15 -1.14127e-15 0)
(-7.60349e-15 -1.74226e-15 0)
(-7.53635e-15 -3.0876e-15 0)
(-8.28754e-15 -3.67301e-15 0)
(-9.21644e-15 -4.10196e-15 0)
(-1.01311e-14 -4.66188e-15 0)
(-1.14827e-14 -5.46152e-15 0)
(-1.24083e-14 -6.19363e-15 0)
(-1.20048e-14 -7.12545e-15 0)
(-1.16601e-14 -7.61395e-15 0)
(-1.21901e-14 -7.84599e-15 0)
(-1.32977e-14 -7.99045e-15 0)
(-1.45789e-14 -7.51784e-15 0)
(-1.50184e-14 -7.09791e-15 0)
(-1.44871e-14 -6.92688e-15 0)
(-1.24699e-14 -6.77324e-15 0)
(-9.80353e-15 -6.9669e-15 0)
(-7.57786e-15 -6.87673e-15 0)
(-6.93696e-15 -7.17075e-15 0)
(-8.30683e-15 -8.25892e-15 0)
(-9.61119e-15 -8.71375e-15 0)
(-9.63379e-15 -8.67088e-15 0)
(-7.99363e-15 -8.74886e-15 0)
(-6.15326e-15 -9.18796e-15 0)
(-4.8089e-15 -9.68339e-15 0)
(-3.1992e-15 -1.05326e-14 0)
(-1.71802e-15 -1.1088e-14 0)
(-8.68375e-16 -1.12362e-14 0)
(-7.38403e-16 -1.11967e-14 0)
(-5.67063e-16 -1.13221e-14 0)
(2.5248e-16 -1.11859e-14 0)
(1.18871e-15 -1.1258e-14 0)
(1.59583e-15 -1.10059e-14 0)
(1.09898e-15 -1.18788e-14 0)
(-2.76302e-16 -1.28238e-14 0)
(-1.68608e-15 -1.36516e-14 0)
(-2.97039e-15 -1.41392e-14 0)
(-4.95092e-15 -1.45822e-14 0)
(-7.10659e-15 -1.49284e-14 0)
(-8.96274e-15 -1.54122e-14 0)
(-1.08693e-14 -1.59887e-14 0)
(-1.33738e-14 -1.62853e-14 0)
(-1.6329e-14 -1.6347e-14 0)
(-1.89064e-14 -1.6127e-14 0)
(-2.08944e-14 -1.61611e-14 0)
(-2.23361e-14 -1.56301e-14 0)
(-2.3979e-14 -1.55368e-14 0)
(-2.63631e-14 -1.50577e-14 0)
(-2.86269e-14 -1.52262e-14 0)
(-3.06482e-14 -1.56329e-14 0)
(-3.22984e-14 -1.55125e-14 0)
(-3.30333e-14 -1.48848e-14 0)
(-3.45217e-14 -1.40848e-14 0)
(-3.66885e-14 -1.40987e-14 0)
(-3.76982e-14 -1.37958e-14 0)
(-3.81459e-14 -1.31938e-14 0)
(-3.92985e-14 -1.26187e-14 0)
(-4.12243e-14 -1.22798e-14 0)
(-4.27245e-14 -1.27523e-14 0)
(-4.2684e-14 -1.305e-14 0)
(-4.1831e-14 -1.26265e-14 0)
(-4.14411e-14 -1.19189e-14 0)
(-4.18956e-14 -1.01979e-14 0)
(-4.15048e-14 -8.90696e-15 0)
(-3.91439e-14 -9.20901e-15 0)
(-3.5976e-14 -9.82318e-15 0)
(-3.33724e-14 -1.019e-14 0)
(-3.15575e-14 -9.68004e-15 0)
(-2.98924e-14 -8.68451e-15 0)
(-2.77254e-14 -6.85037e-15 0)
(-2.42331e-14 -5.60184e-15 0)
(-2.04095e-14 -4.80225e-15 0)
(-1.70211e-14 -4.18731e-15 0)
(-1.2851e-14 -2.95152e-15 0)
(-8.09256e-15 -1.90755e-15 0)
(-3.19669e-15 -6.72806e-16 0)
(-1.06172e-15 1.11896e-15 0)
(-3.39147e-15 2.98351e-15 0)
(-6.18627e-15 3.69708e-15 0)
(-8.64818e-15 4.17886e-15 0)
(-1.11276e-14 5.15011e-15 0)
(-1.37997e-14 6.29121e-15 0)
(-1.58014e-14 6.64642e-15 0)
(-1.80067e-14 6.51172e-15 0)
(-2.05375e-14 5.34983e-15 0)
(-2.28511e-14 4.64848e-15 0)
(-2.41043e-14 4.37891e-15 0)
(-2.42508e-14 4.41389e-15 0)
(-2.48486e-14 4.75614e-15 0)
(-2.59572e-14 4.66318e-15 0)
(-2.6311e-14 4.64156e-15 0)
(-2.70974e-14 4.26501e-15 0)
(-2.92608e-14 3.23144e-15 0)
(-3.16764e-14 1.93241e-15 0)
(-3.29751e-14 5.41024e-16 0)
(-3.21153e-14 1.28484e-16 0)
(-2.9242e-14 -8.4023e-17 0)
(-2.52589e-14 -8.29019e-16 0)
(-2.06572e-14 -1.62189e-15 0)
(-1.57844e-14 -1.55604e-15 0)
(-1.21731e-14 -1.57928e-15 0)
(-1.08663e-14 -2.484e-15 0)
(-1.06846e-14 -3.9485e-15 0)
(-1.10549e-14 -4.92791e-15 0)
(-1.19547e-14 -5.51285e-15 0)
(-1.31272e-14 -6.09558e-15 0)
(-1.46596e-14 -7.01908e-15 0)
(-1.55881e-14 -8.03608e-15 0)
(-1.52411e-14 -8.87535e-15 0)
(-1.47445e-14 -9.53598e-15 0)
(-1.52899e-14 -9.53024e-15 0)
(-1.63915e-14 -9.70923e-15 0)
(-1.74775e-14 -9.69371e-15 0)
(-1.80069e-14 -9.559e-15 0)
(-1.74318e-14 -9.33379e-15 0)
(-1.52362e-14 -9.29218e-15 0)
(-1.21272e-14 -9.48541e-15 0)
(-9.76663e-15 -9.31888e-15 0)
(-9.48402e-15 -9.69442e-15 0)
(-1.06323e-14 -1.02841e-14 0)
(-1.15869e-14 -1.04022e-14 0)
(-1.14115e-14 -1.07592e-14 0)
(-9.86806e-15 -1.11108e-14 0)
(-7.87446e-15 -1.18907e-14 0)
(-6.14658e-15 -1.22484e-14 0)
(-4.45104e-15 -1.27258e-14 0)
(-2.59299e-15 -1.34676e-14 0)
(-1.48019e-15 -1.40413e-14 0)
(-1.31232e-15 -1.44882e-14 0)
(-8.18466e-16 -1.47149e-14 0)
(2.09935e-16 -1.47023e-14 0)
(1.17643e-15 -1.49519e-14 0)
(1.25798e-15 -1.50892e-14 0)
(1.91367e-16 -1.62576e-14 0)
(-1.21558e-15 -1.73384e-14 0)
(-2.67599e-15 -1.78103e-14 0)
(-4.41106e-15 -1.84585e-14 0)
(-6.80322e-15 -1.94013e-14 0)
(-9.32008e-15 -1.98216e-14 0)
(-1.15415e-14 -2.04601e-14 0)
(-1.39131e-14 -2.13067e-14 0)
(-1.70333e-14 -2.17218e-14 0)
(-2.048e-14 -2.17053e-14 0)
(-2.34549e-14 -2.16997e-14 0)
(-2.56829e-14 -2.13842e-14 0)
(-2.76264e-14 -2.06091e-14 0)
(-2.98435e-14 -2.03325e-14 0)
(-3.26608e-14 -1.99395e-14 0)
(-3.58116e-14 -1.93914e-14 0)
(-3.8478e-14 -1.96614e-14 0)
(-3.99983e-14 -1.94597e-14 0)
(-4.07184e-14 -1.89708e-14 0)
(-4.2839e-14 -1.84086e-14 0)
(-4.54428e-14 -1.79691e-14 0)
(-4.65993e-14 -1.73484e-14 0)
(-4.73648e-14 -1.66918e-14 0)
(-4.88872e-14 -1.62406e-14 0)
(-5.1397e-14 -1.59437e-14 0)
(-5.31612e-14 -1.59686e-14 0)
(-5.28987e-14 -1.60301e-14 0)
(-5.17502e-14 -1.56384e-14 0)
(-5.07372e-14 -1.4748e-14 0)
(-5.07825e-14 -1.31397e-14 0)
(-5.07777e-14 -1.187e-14 0)
(-4.86759e-14 -1.13871e-14 0)
(-4.52362e-14 -1.16733e-14 0)
(-4.18741e-14 -1.21065e-14 0)
(-3.90758e-14 -1.16078e-14 0)
(-3.62538e-14 -1.06737e-14 0)
(-3.31516e-14 -8.69174e-15 0)
(-2.94708e-14 -7.05761e-15 0)
(-2.53008e-14 -6.31329e-15 0)
(-2.08468e-14 -5.40911e-15 0)
(-1.55199e-14 -4.08676e-15 0)
(-9.75267e-15 -2.57424e-15 0)
(-3.63335e-15 -9.18805e-16 0)
(-1.21634e-15 1.31584e-15 0)
(-4.23147e-15 3.10821e-15 0)
(-7.72366e-15 4.17439e-15 0)
(-1.017e-14 5.40747e-15 0)
(-1.27072e-14 6.34108e-15 0)
(-1.60063e-14 7.26284e-15 0)
(-1.88728e-14 8.00237e-15 0)
(-2.21838e-14 7.54241e-15 0)
(-2.5205e-14 6.3189e-15 0)
(-2.708e-14 5.59754e-15 0)
(-2.81802e-14 5.63796e-15 0)
(-2.85731e-14 5.39163e-15 0)
(-2.94615e-14 5.37617e-15 0)
(-3.06123e-14 5.21283e-15 0)
(-3.10882e-14 5.45361e-15 0)
(-3.24278e-14 4.83372e-15 0)
(-3.50153e-14 3.6897e-15 0)
(-3.76736e-14 2.23724e-15 0)
(-3.84841e-14 7.59953e-16 0)
(-3.70601e-14 3.08243e-16 0)
(-3.43013e-14 1.35975e-16 0)
(-3.01563e-14 -2.18818e-16 0)
(-2.45338e-14 -6.31713e-16 0)
(-1.89861e-14 -1.12847e-15 0)
(-1.55077e-14 -2.62775e-15 0)
(-1.42204e-14 -4.24341e-15 0)
(-1.38645e-14 -5.43127e-15 0)
(-1.38754e-14 -6.52713e-15 0)
(-1.45857e-14 -7.16957e-15 0)
(-1.59254e-14 -7.78646e-15 0)
(-1.77978e-14 -8.60301e-15 0)
(-1.88332e-14 -9.60372e-15 0)
(-1.83199e-14 -1.05544e-14 0)
(-1.75242e-14 -1.15712e-14 0)
(-1.79249e-14 -1.15059e-14 0)
(-1.92771e-14 -1.14961e-14 0)
(-2.04839e-14 -1.18925e-14 0)
(-2.06977e-14 -1.18259e-14 0)
(-1.99046e-14 -1.13966e-14 0)
(-1.76957e-14 -1.17853e-14 0)
(-1.43953e-14 -1.23796e-14 0)
(-1.18342e-14 -1.2488e-14 0)
(-1.1436e-14 -1.25816e-14 0)
(-1.24631e-14 -1.2135e-14 0)
(-1.34827e-14 -1.20909e-14 0)
(-1.34438e-14 -1.2399e-14 0)
(-1.17221e-14 -1.29782e-14 0)
(-9.40829e-15 -1.3996e-14 0)
(-7.35094e-15 -1.4591e-14 0)
(-5.57228e-15 -1.49624e-14 0)
(-3.7886e-15 -1.57964e-14 0)
(-2.43918e-15 -1.65651e-14 0)
(-1.84461e-15 -1.74e-14 0)
(-1.16026e-15 -1.77922e-14 0)
(-1.99925e-16 -1.82266e-14 0)
(7.41849e-16 -1.87578e-14 0)
(4.83634e-16 -1.94037e-14 0)
(-8.72579e-16 -2.06243e-14 0)
(-2.09991e-15 -2.16865e-14 0)
(-3.74477e-15 -2.23537e-14 0)
(-6.09239e-15 -2.32148e-14 0)
(-8.73208e-15 -2.42539e-14 0)
(-1.15368e-14 -2.46938e-14 0)
(-1.4614e-14 -2.55199e-14 0)
(-1.73559e-14 -2.68091e-14 0)
(-2.03311e-14 -2.72378e-14 0)
(-2.41098e-14 -2.73106e-14 0)
(-2.7539e-14 -2.72794e-14 0)
(-2.99611e-14 -2.6673e-14 0)
(-3.23975e-14 -2.58876e-14 0)
(-3.52825e-14 -2.49927e-14 0)
(-3.84299e-14 -2.45161e-14 0)
(-4.21317e-14 -2.41172e-14 0)
(-4.53004e-14 -2.38343e-14 0)
(-4.71871e-14 -2.32777e-14 0)
(-4.83749e-14 -2.30288e-14 0)
(-5.05803e-14 -2.27928e-14 0)
(-5.33632e-14 -2.14234e-14 0)
(-5.48314e-14 -2.05245e-14 0)
(-5.5943e-14 -2.0063e-14 0)
(-5.78032e-14 -1.98231e-14 0)
(-6.04437e-14 -1.95337e-14 0)
(-6.24985e-14 -1.89425e-14 0)
(-6.23347e-14 -1.85915e-14 0)
(-6.08158e-14 -1.80544e-14 0)
(-5.93918e-14 -1.71494e-14 0)
(-5.92147e-14 -1.5943e-14 0)
(-5.90498e-14 -1.46944e-14 0)
(-5.70474e-14 -1.35759e-14 0)
(-5.37012e-14 -1.33736e-14 0)
(-4.96569e-14 -1.36279e-14 0)
(-4.59294e-14 -1.29839e-14 0)
(-4.21546e-14 -1.18426e-14 0)
(-3.82832e-14 -1.03694e-14 0)
(-3.43361e-14 -9.0184e-15 0)
(-2.95595e-14 -8.18134e-15 0)
(-2.41521e-14 -6.65576e-15 0)
(-1.78175e-14 -5.07579e-15 0)
(-1.09907e-14 -2.99632e-15 0)
(-4.01779e-15 -1.03438e-15 0)
(-1.58948e-15 1.25237e-15 0)
(-5.09502e-15 3.20611e-15 0)
(-8.61596e-15 4.76712e-15 0)
(-1.16244e-14 6.54503e-15 0)
(-1.48556e-14 7.24957e-15 0)
(-1.82243e-14 7.9649e-15 0)
(-2.17879e-14 8.4576e-15 0)
(-2.59503e-14 8.18791e-15 0)
(-2.91435e-14 7.53382e-15 0)
(-3.09608e-14 7.19388e-15 0)
(-3.22771e-14 6.9244e-15 0)
(-3.28459e-14 6.28737e-15 0)
(-3.36907e-14 6.03144e-15 0)
(-3.48189e-14 5.98576e-15 0)
(-3.56399e-14 6.22331e-15 0)
(-3.75581e-14 5.38972e-15 0)
(-4.04603e-14 4.14351e-15 0)
(-4.32211e-14 2.57419e-15 0)
(-4.37579e-14 1.34751e-15 0)
(-4.16784e-14 7.39573e-16 0)
(-3.81976e-14 1.02143e-15 0)
(-3.36328e-14 1.2855e-15 0)
(-2.82678e-14 7.742e-16 0)
(-2.33372e-14 -1.36227e-15 0)
(-1.9807e-14 -3.88597e-15 0)
(-1.77187e-14 -6.18007e-15 0)
(-1.68179e-14 -7.17975e-15 0)
(-1.66419e-14 -8.12805e-15 0)
(-1.7186e-14 -8.94147e-15 0)
(-1.85743e-14 -9.70661e-15 0)
(-2.05161e-14 -1.03546e-14 0)
(-2.16732e-14 -1.10245e-14 0)
(-2.14665e-14 -1.17487e-14 0)
(-2.03623e-14 -1.27791e-14 0)
(-2.03111e-14 -1.33298e-14 0)
(-2.19009e-14 -1.36997e-14 0)
(-2.30136e-14 -1.41586e-14 0)
(-2.28527e-14 -1.42705e-14 0)
(-2.23608e-14 -1.40305e-14 0)
(-2.0547e-14 -1.43507e-14 0)
(-1.68212e-14 -1.48436e-14 0)
(-1.37179e-14 -1.48975e-14 0)
(-1.2739e-14 -1.47824e-14 0)
(-1.35827e-14 -1.43405e-14 0)
(-1.49093e-14 -1.43454e-14 0)
(-1.49478e-14 -1.41526e-14 0)
(-1.35932e-14 -1.47724e-14 0)
(-1.12217e-14 -1.61473e-14 0)
(-8.61742e-15 -1.68522e-14 0)
(-6.72331e-15 -1.69382e-14 0)
(-4.8381e-15 -1.77435e-14 0)
(-3.47293e-15 -1.87988e-14 0)
(-2.83521e-15 -2.01891e-14 0)
(-1.89795e-15 -2.08805e-14 0)
(-8.62591e-16 -2.14183e-14 0)
(-1.13181e-18 -2.2136e-14 0)
(-4.74006e-16 -2.35907e-14 0)
(-2.03358e-15 -2.48054e-14 0)
(-3.37775e-15 -2.6101e-14 0)
(-5.188e-15 -2.74586e-14 0)
(-7.82857e-15 -2.83058e-14 0)
(-1.06428e-14 -2.90904e-14 0)
(-1.37988e-14 -3.00426e-14 0)
(-1.74936e-14 -3.09055e-14 0)
(-2.04907e-14 -3.15891e-14 0)
(-2.36998e-14 -3.19699e-14 0)
(-2.78141e-14 -3.23212e-14 0)
(-3.12697e-14 -3.23172e-14 0)
(-3.38838e-14 -3.16428e-14 0)
(-3.65288e-14 -3.11587e-14 0)
(-3.98729e-14 -3.03548e-14 0)
(-4.39431e-14 -2.95325e-14 0)
(-4.81014e-14 -2.90416e-14 0)
(-5.14684e-14 -2.83464e-14 0)
(-5.37618e-14 -2.76541e-14 0)
(-5.5404e-14 -2.6975e-14 0)
(-5.73424e-14 -2.65363e-14 0)
(-6.00624e-14 -2.46493e-14 0)
(-6.24411e-14 -2.33468e-14 0)
(-6.41764e-14 -2.27942e-14 0)
(-6.62293e-14 -2.26932e-14 0)
(-6.88048e-14 -2.27627e-14 0)
(-7.07632e-14 -2.20692e-14 0)
(-7.06741e-14 -2.124e-14 0)
(-6.91187e-14 -2.05321e-14 0)
(-6.74591e-14 -1.96197e-14 0)
(-6.69201e-14 -1.84243e-14 0)
(-6.64619e-14 -1.69312e-14 0)
(-6.44629e-14 -1.56861e-14 0)
(-6.12792e-14 -1.49651e-14 0)
(-5.67857e-14 -1.4759e-14 0)
(-5.20902e-14 -1.40935e-14 0)
(-4.76885e-14 -1.27657e-14 0)
(-4.33338e-14 -1.17127e-14 0)
(-3.8892e-14 -1.0559e-14 0)
(-3.32591e-14 -9.53029e-15 0)
(-2.68383e-14 -7.82322e-15 0)
(-1.9608e-14 -5.72268e-15 0)
(-1.20181e-14 -3.39658e-15 0)
(-4.37672e-15 -1.24644e-15 0)
(-1.66155e-15 1.07484e-15 0)
(-5.5357e-15 3.61265e-15 0)
(-9.45553e-15 5.52887e-15 0)
(-1.29104e-14 6.93076e-15 0)
(-1.66589e-14 7.77281e-15 0)
(-2.05673e-14 8.31807e-15 0)
(-2.46096e-14 8.5703e-15 0)
(-2.91949e-14 9.01274e-15 0)
(-3.26687e-14 8.72776e-15 0)
(-3.46316e-14 8.52024e-15 0)
(-3.62939e-14 7.96237e-15 0)
(-3.69841e-14 7.26372e-15 0)
(-3.76875e-14 6.80727e-15 0)
(-3.86552e-14 6.92965e-15 0)
(-3.98315e-14 7.12303e-15 0)
(-4.23505e-14 6.1707e-15 0)
(-4.55447e-14 4.75286e-15 0)
(-4.82041e-14 3.34159e-15 0)
(-4.82134e-14 2.81689e-15 0)
(-4.54166e-14 2.40346e-15 0)
(-4.15625e-14 2.30337e-15 0)
(-3.73909e-14 1.69588e-15 0)
(-3.28422e-14 4.54266e-16 0)
(-2.8086e-14 -1.90442e-15 0)
(-2.4115e-14 -4.40303e-15 0)
(-2.12329e-14 -7.00895e-15 0)
(-1.95703e-14 -8.46956e-15 0)
(-1.92744e-14 -9.66654e-15 0)
(-1.97969e-14 -1.03501e-14 0)
(-2.10428e-14 -1.09844e-14 0)
(-2.29176e-14 -1.17288e-14 0)
(-2.40994e-14 -1.24485e-14 0)
(-2.39493e-14 -1.33726e-14 0)
(-2.31307e-14 -1.41734e-14 0)
(-2.31522e-14 -1.52867e-14 0)
(-2.45211e-14 -1.61575e-14 0)
(-2.55573e-14 -1.67436e-14 0)
(-2.51714e-14 -1.72361e-14 0)
(-2.43319e-14 -1.68791e-14 0)
(-2.23771e-14 -1.61619e-14 0)
(-1.85605e-14 -1.63469e-14 0)
(-1.52453e-14 -1.6867e-14 0)
(-1.42204e-14 -1.69667e-14 0)
(-1.51175e-14 -1.71244e-14 0)
(-1.61121e-14 -1.71449e-14 0)
(-1.62843e-14 -1.65384e-14 0)
(-1.54246e-14 -1.68504e-14 0)
(-1.2848e-14 -1.76249e-14 0)
(-9.51049e-15 -1.86481e-14 0)
(-7.49332e-15 -1.92119e-14 0)
(-6.15106e-15 -2.01125e-14 0)
(-5.01192e-15 -2.14264e-14 0)
(-3.98176e-15 -2.28753e-14 0)
(-2.55017e-15 -2.37871e-14 0)
(-1.53834e-15 -2.44839e-14 0)
(-1.26432e-15 -2.57015e-14 0)
(-1.97116e-15 -2.76427e-14 0)
(-3.40853e-15 -2.89534e-14 0)
(-5.067e-15 -3.05279e-14 0)
(-6.83486e-15 -3.22103e-14 0)
(-9.32683e-15 -3.34019e-14 0)
(-1.27001e-14 -3.4129e-14 0)
(-1.62869e-14 -3.52374e-14 0)
(-1.99479e-14 -3.62416e-14 0)
(-2.31731e-14 -3.6634e-14 0)
(-2.67887e-14 -3.69665e-14 0)
(-3.11892e-14 -3.7256e-14 0)
(-3.47605e-14 -3.70891e-14 0)
(-3.7704e-14 -3.67221e-14 0)
(-4.08992e-14 -3.63752e-14 0)
(-4.43731e-14 -3.58257e-14 0)
(-4.85704e-14 -3.45744e-14 0)
(-5.31587e-14 -3.3376e-14 0)
(-5.69308e-14 -3.22132e-14 0)
(-5.95274e-14 -3.15211e-14 0)
(-6.1547e-14 -3.06352e-14 0)
(-6.34633e-14 -2.96285e-14 0)
(-6.61653e-14 -2.80073e-14 0)
(-6.91167e-14 -2.65159e-14 0)
(-7.15496e-14 -2.54568e-14 0)
(-7.42312e-14 -2.53706e-14 0)
(-7.67217e-14 -2.54142e-14 0)
(-7.83156e-14 -2.47817e-14 0)
(-7.82398e-14 -2.38732e-14 0)
(-7.66384e-14 -2.2815e-14 0)
(-7.46987e-14 -2.19757e-14 0)
(-7.3789e-14 -2.07766e-14 0)
(-7.31326e-14 -1.92044e-14 0)
(-7.11169e-14 -1.77152e-14 0)
(-6.78618e-14 -1.64438e-14 0)
(-6.31146e-14 -1.54806e-14 0)
(-5.7746e-14 -1.50789e-14 0)
(-5.27817e-14 -1.41103e-14 0)
(-4.80322e-14 -1.29035e-14 0)
(-4.29966e-14 -1.13683e-14 0)
(-3.66234e-14 -1.01122e-14 0)
(-2.91754e-14 -8.57341e-15 0)
(-2.10941e-14 -6.052e-15 0)
(-1.29394e-14 -3.80514e-15 0)
(-4.60521e-15 -1.50678e-15 0)
(-1.59539e-15 1.26938e-15 0)
(-5.71977e-15 3.72952e-15 0)
(-1.03863e-14 6.03704e-15 0)
(-1.4509e-14 7.51555e-15 0)
(-1.87218e-14 8.19202e-15 0)
(-2.28916e-14 8.3442e-15 0)
(-2.68978e-14 8.67482e-15 0)
(-3.18088e-14 9.50718e-15 0)
(-3.58118e-14 9.75066e-15 0)
(-3.81364e-14 9.25717e-15 0)
(-4.00934e-14 8.68495e-15 0)
(-4.08326e-14 8.38171e-15 0)
(-4.12722e-14 8.02981e-15 0)
(-4.20678e-14 8.20539e-15 0)
(-4.37755e-14 8.02555e-15 0)
(-4.69363e-14 6.98959e-15 0)
(-5.01959e-14 5.5883e-15 0)
(-5.22626e-14 4.91317e-15 0)
(-5.19356e-14 4.95706e-15 0)
(-4.92881e-14 3.99455e-15 0)
(-4.55594e-14 2.80267e-15 0)
(-4.13329e-14 1.05523e-15 0)
(-3.66944e-14 -5.0402e-16 0)
(-3.21272e-14 -2.10006e-15 0)
(-2.82738e-14 -4.20461e-15 0)
(-2.50141e-14 -6.53796e-15 0)
(-2.27854e-14 -8.74642e-15 0)
(-2.18597e-14 -1.07064e-14 0)
(-2.19071e-14 -1.16422e-14 0)
(-2.33276e-14 -1.20512e-14 0)
(-2.53644e-14 -1.2844e-14 0)
(-2.67098e-14 -1.38439e-14 0)
(-2.6631e-14 -1.54341e-14 0)
(-2.57387e-14 -1.69063e-14 0)
(-2.58063e-14 -1.79203e-14 0)
(-2.70515e-14 -1.8698e-14 0)
(-2.78773e-14 -1.90951e-14 0)
(-2.69393e-14 -1.90272e-14 0)
(-2.53947e-14 -1.88065e-14 0)
(-2.37541e-14 -1.81453e-14 0)
(-2.06813e-14 -1.84655e-14 0)
(-1.72589e-14 -1.9363e-14 0)
(-1.57777e-14 -1.9648e-14 0)
(-1.63489e-14 -1.99555e-14 0)
(-1.6903e-14 -1.96357e-14 0)
(-1.69272e-14 -1.88103e-14 0)
(-1.63317e-14 -1.86264e-14 0)
(-1.4207e-14 -1.92344e-14 0)
(-1.11694e-14 -2.04264e-14 0)
(-8.92338e-15 -2.19049e-14 0)
(-7.36058e-15 -2.29147e-14 0)
(-6.2118e-15 -2.40671e-14 0)
(-5.13777e-15 -2.52389e-14 0)
(-3.55453e-15 -2.68265e-14 0)
(-2.70371e-15 -2.81646e-14 0)
(-2.781e-15 -2.99461e-14 0)
(-3.42728e-15 -3.18179e-14 0)
(-4.91978e-15 -3.30882e-14 0)
(-6.84621e-15 -3.48475e-14 0)
(-8.78974e-15 -3.65446e-14 0)
(-1.12393e-14 -3.83221e-14 0)
(-1.45855e-14 -3.93073e-14 0)
(-1.86044e-14 -4.00049e-14 0)
(-2.24871e-14 -4.11869e-14 0)
(-2.57533e-14 -4.17128e-14 0)
(-2.96872e-14 -4.2403e-14 0)
(-3.42538e-14 -4.29669e-14 0)
(-3.80458e-14 -4.23679e-14 0)
(-4.13352e-14 -4.20144e-14 0)
(-4.46383e-14 -4.12228e-14 0)
(-4.80933e-14 -4.01762e-14 0)
(-5.24426e-14 -3.89568e-14 0)
(-5.73951e-14 -3.73147e-14 0)
(-6.18268e-14 -3.58946e-14 0)
(-6.49716e-14 -3.52565e-14 0)
(-6.69837e-14 -3.43641e-14 0)
(-6.89369e-14 -3.29291e-14 0)
(-7.18091e-14 -3.14503e-14 0)
(-7.50573e-14 -2.98498e-14 0)
(-7.82212e-14 -2.87063e-14 0)
(-8.14115e-14 -2.83162e-14 0)
(-8.38368e-14 -2.77999e-14 0)
(-8.52635e-14 -2.70464e-14 0)
(-8.49351e-14 -2.61974e-14 0)
(-8.33964e-14 -2.49106e-14 0)
(-8.14798e-14 -2.41193e-14 0)
(-8.01223e-14 -2.31161e-14 0)
(-7.9047e-14 -2.13617e-14 0)
(-7.67551e-14 -1.9498e-14 0)
(-7.33543e-14 -1.77364e-14 0)
(-6.88206e-14 -1.64965e-14 0)
(-6.33678e-14 -1.61591e-14 0)
(-5.75422e-14 -1.50495e-14 0)
(-5.18561e-14 -1.35852e-14 0)
(-4.63852e-14 -1.19639e-14 0)
(-3.96936e-14 -1.03298e-14 0)
(-3.1245e-14 -8.67175e-15 0)
(-2.23861e-14 -6.10292e-15 0)
(-1.38906e-14 -4.13364e-15 0)
(-4.73211e-15 -1.56217e-15 0)
(-1.78797e-15 1.31877e-15 0)
(-6.01505e-15 3.52723e-15 0)
(-1.08975e-14 5.923e-15 0)
(-1.58145e-14 7.85063e-15 0)
(-2.08181e-14 8.81656e-15 0)
(-2.52705e-14 9.06211e-15 0)
(-2.91023e-14 9.27714e-15 0)
(-3.40323e-14 9.79899e-15 0)
(-3.87454e-14 1.07e-14 0)
(-4.15521e-14 1.04112e-14 0)
(-4.3294e-14 9.58345e-15 0)
(-4.40111e-14 9.28343e-15 0)
(-4.45135e-14 9.24098e-15 0)
(-4.54629e-14 9.14071e-15 0)
(-4.75964e-14 8.59483e-15 0)
(-5.10406e-14 7.98216e-15 0)
(-5.39542e-14 7.07587e-15 0)
(-5.54797e-14 6.70736e-15 0)
(-5.55522e-14 6.69651e-15 0)
(-5.3421e-14 5.78608e-15 0)
(-4.98037e-14 3.89823e-15 0)
(-4.54828e-14 1.37126e-15 0)
(-4.03595e-14 -6.79374e-16 0)
(-3.55405e-14 -2.32093e-15 0)
(-3.1688e-14 -4.42146e-15 0)
(-2.85297e-14 -6.75776e-15 0)
(-2.63273e-14 -9.10465e-15 0)
(-2.49185e-14 -1.08683e-14 0)
(-2.42011e-14 -1.23485e-14 0)
(-2.5303e-14 -1.3269e-14 0)
(-2.76154e-14 -1.42794e-14 0)
(-2.94123e-14 -1.56002e-14 0)
(-2.96517e-14 -1.72003e-14 0)
(-2.84555e-14 -1.89439e-14 0)
(-2.80053e-14 -2.02899e-14 0)
(-2.8937e-14 -2.12808e-14 0)
(-2.93275e-14 -2.11865e-14 0)
(-2.84084e-14 -2.05325e-14 0)
(-2.69964e-14 -2.08223e-14 0)
(-2.52564e-14 -2.10142e-14 0)
(-2.23759e-14 -2.11771e-14 0)
(-1.88182e-14 -2.1731e-14 0)
(-1.71494e-14 -2.22374e-14 0)
(-1.74008e-14 -2.2038e-14 0)
(-1.73619e-14 -2.15125e-14 0)
(-1.74227e-14 -2.1291e-14 0)
(-1.73907e-14 -2.12938e-14 0)
(-1.55893e-14 -2.18344e-14 0)
(-1.2657e-14 -2.26824e-14 0)
(-1.02863e-14 -2.39271e-14 0)
(-8.5121e-15 -2.50259e-14 0)
(-7.33636e-15 -2.66043e-14 0)
(-6.51213e-15 -2.795e-14 0)
(-5.1346e-15 -3.01967e-14 0)
(-4.24906e-15 -3.23256e-14 0)
(-4.41237e-15 -3.4058e-14 0)
(-4.8613e-15 -3.57886e-14 0)
(-6.41802e-15 -3.75007e-14 0)
(-8.6825e-15 -3.94999e-14 0)
(-1.08456e-14 -4.12847e-14 0)
(-1.32795e-14 -4.30075e-14 0)
(-1.6397e-14 -4.42048e-14 0)
(-2.07282e-14 -4.50226e-14 0)
(-2.4914e-14 -4.59946e-14 0)
(-2.84717e-14 -4.66865e-14 0)
(-3.28414e-14 -4.75399e-14 0)
(-3.70384e-14 -4.80865e-14 0)
(-4.06836e-14 -4.75905e-14 0)
(-4.42282e-14 -4.70082e-14 0)
(-4.7645e-14 -4.57284e-14 0)
(-5.15204e-14 -4.44363e-14 0)
(-5.59763e-14 -4.31731e-14 0)
(-6.10877e-14 -4.13861e-14 0)
(-6.62357e-14 -4.01366e-14 0)
(-6.9819e-14 -3.92132e-14 0)
(-7.18091e-14 -3.82486e-14 0)
(-7.38066e-14 -3.68565e-14 0)
(-7.68531e-14 -3.51022e-14 0)
(-8.04659e-14 -3.33432e-14 0)
(-8.41459e-14 -3.20928e-14 0)
(-8.75813e-14 -3.09637e-14 0)
(-9.00263e-14 -3.04368e-14 0)
(-9.15188e-14 -2.96226e-14 0)
(-9.11066e-14 -2.82588e-14 0)
(-8.95066e-14 -2.7335e-14 0)
(-8.76299e-14 -2.62524e-14 0)