/*--------------------------------*- C++ -*----------------------------------*\
| =========                 |                                                 |
| \\      /  F ield         | OpenFOAM: The Open Source CFD Toolbox           |
|  \\    /   O peration     | Version:  v2012                                 |
|   \\  /    A nd           | Website:  www.openfoam.com                      |
|    \\/     M anipulation  |                                                 |
\*---------------------------------------------------------------------------*/
FoamFile
{
    version     2.0;
    format      ascii;
    class       volVectorField;
    location    "13";
    object      U;
}
// * * * * * * * * * * * * * * * * * * * * * * * * * * * * * * * * * * * * * //

dimensions      [0 1 -1 0 0 0 0];


internalField   nonuniform List<vector> 
65536
(
(0.000720011 -0.00072004 0)
(0.0021601 -0.000720069 0)
(0.00360027 -0.000720161 0)
(0.00504064 -0.000720285 0)
(0.00648131 -0.000720449 0)
(0.00792235 -0.000720653 0)
(0.00936383 -0.000720895 0)
(0.0108058 -0.000721175 0)
(0.0122484 -0.000721492 0)
(0.0136917 -0.000721845 0)
(0.0151357 -0.000722234 0)
(0.0165806 -0.000722656 0)
(0.0180263 -0.00072311 0)
(0.0194729 -0.000723596 0)
(0.0209206 -0.00072411 0)
(0.0223693 -0.000724651 0)
(0.0238191 -0.000725218 0)
(0.0252701 -0.000725808 0)
(0.0267223 -0.000726418 0)
(0.0281757 -0.000727046 0)
(0.0296304 -0.000727691 0)
(0.0310864 -0.000728348 0)
(0.0325437 -0.000729015 0)
(0.0340024 -0.000729689 0)
(0.0354624 -0.000730367 0)
(0.0369238 -0.000731045 0)
(0.0383865 -0.00073172 0)
(0.0398506 -0.000732388 0)
(0.041316 -0.000733045 0)
(0.0427828 -0.000733688 0)
(0.0442508 -0.000734312 0)
(0.04572 -0.000734912 0)
(0.0471904 -0.000735484 0)
(0.0486619 -0.000736024 0)
(0.0501345 -0.000736527 0)
(0.051608 -0.000736987 0)
(0.0530824 -0.000737399 0)
(0.0545576 -0.000737758 0)
(0.0560334 -0.000738058 0)
(0.0575098 -0.000738295 0)
(0.0589866 -0.00073846 0)
(0.0604637 -0.00073855 0)
(0.0619409 -0.000738557 0)
(0.063418 -0.000738476 0)
(0.0648948 -0.000738298 0)
(0.0663712 -0.000738019 0)
(0.067847 -0.000737632 0)
(0.0693218 -0.000737128 0)
(0.0707955 -0.000736502 0)
(0.0722679 -0.000735745 0)
(0.0737386 -0.000734852 0)
(0.0752074 -0.000733814 0)
(0.076674 -0.000732623 0)
(0.078138 -0.000731273 0)
(0.0795992 -0.000729756 0)
(0.0810571 -0.000728064 0)
(0.0825115 -0.000726188 0)
(0.083962 -0.000724123 0)
(0.0854082 -0.000721859 0)
(0.0868496 -0.000719388 0)
(0.0882859 -0.000716704 0)
(0.0897166 -0.000713798 0)
(0.0911413 -0.000710663 0)
(0.0925594 -0.000707291 0)
(0.0939706 -0.000703675 0)
(0.0953743 -0.000699806 0)
(0.0967701 -0.000695678 0)
(0.0981573 -0.000691284 0)
(0.0995354 -0.000686617 0)
(0.100904 -0.00068167 0)
(0.102262 -0.000676436 0)
(0.10361 -0.00067091 0)
(0.104946 -0.000665085 0)
(0.106271 -0.000658955 0)
(0.107582 -0.000652516 0)
(0.108881 -0.000645762 0)
(0.110166 -0.000638689 0)
(0.111436 -0.000631292 0)
(0.112691 -0.000623568 0)
(0.11393 -0.000615513 0)
(0.115153 -0.000607125 0)
(0.116359 -0.0005984 0)
(0.117547 -0.000589338 0)
(0.118717 -0.000579936 0)
(0.119867 -0.000570195 0)
(0.120998 -0.000560113 0)
(0.122108 -0.000549692 0)
(0.123197 -0.000538932 0)
(0.124264 -0.000527834 0)
(0.125309 -0.000516402 0)
(0.12633 -0.000504637 0)
(0.127327 -0.000492544 0)
(0.1283 -0.000480126 0)
(0.129248 -0.000467389 0)
(0.13017 -0.000454337 0)
(0.131066 -0.000440978 0)
(0.131934 -0.000427317 0)
(0.132775 -0.000413362 0)
(0.133588 -0.000399122 0)
(0.134372 -0.000384605 0)
(0.135127 -0.00036982 0)
(0.135852 -0.000354777 0)
(0.136546 -0.000339487 0)
(0.13721 -0.000323961 0)
(0.137842 -0.00030821 0)
(0.138443 -0.000292247 0)
(0.139011 -0.000276083 0)
(0.139547 -0.000259733 0)
(0.14005 -0.000243209 0)
(0.14052 -0.000226525 0)
(0.140956 -0.000209697 0)
(0.141359 -0.000192737 0)
(0.141727 -0.000175661 0)
(0.142062 -0.000158484 0)
(0.142361 -0.000141221 0)
(0.142627 -0.000123888 0)
(0.142857 -0.0001065 0)
(0.143053 -8.90731e-05 0)
(0.143213 -7.16223e-05 0)
(0.143339 -5.41636e-05 0)
(0.14343 -3.67126e-05 0)
(0.143486 -1.92847e-05 0)
(0.143507 -1.89511e-06 0)
(0.143493 1.54401e-05 0)
(0.143445 3.27066e-05 0)
(0.143362 4.98895e-05 0)
(0.143245 6.69742e-05 0)
(0.143094 8.39466e-05 0)
(0.142909 0.000100793 0)
(0.142691 0.000117499 0)
(0.142439 0.000134053 0)
(0.142155 0.000150441 0)
(0.141837 0.000166652 0)
(0.141488 0.000182673 0)
(0.141106 0.000198494 0)
(0.140693 0.000214103 0)
(0.14025 0.000229491 0)
(0.139775 0.000244648 0)
(0.139271 0.000259565 0)
(0.138737 0.000274233 0)
(0.138173 0.000288644 0)
(0.137582 0.000302792 0)
(0.136962 0.000316668 0)
(0.136315 0.000330268 0)
(0.135641 0.000343585 0)
(0.13494 0.000356615 0)
(0.134214 0.000369353 0)
(0.133462 0.000381794 0)
(0.132686 0.000393937 0)
(0.131886 0.000405777 0)
(0.131063 0.000417313 0)
(0.130217 0.000428543 0)
(0.129348 0.000439466 0)
(0.128458 0.000450081 0)
(0.127548 0.000460387 0)
(0.126616 0.000470386 0)
(0.125666 0.000480077 0)
(0.124696 0.000489462 0)
(0.123707 0.000498542 0)
(0.122701 0.00050732 0)
(0.121678 0.000515797 0)
(0.120638 0.000523976 0)
(0.119582 0.00053186 0)
(0.11851 0.000539452 0)
(0.117423 0.000546756 0)
(0.116323 0.000553777 0)
(0.115208 0.000560516 0)
(0.11408 0.000566981 0)
(0.11294 0.000573174 0)
(0.111787 0.0005791 0)
(0.110623 0.000584765 0)
(0.109448 0.000590174 0)
(0.108262 0.000595332 0)
(0.107066 0.000600244 0)
(0.105861 0.000604915 0)
(0.104646 0.000609353 0)
(0.103423 0.000613561 0)
(0.102192 0.000617547 0)
(0.100953 0.000621315 0)
(0.0997061 0.000624873 0)
(0.0984528 0.000628225 0)
(0.097193 0.000631377 0)
(0.095927 0.000634336 0)
(0.0946554 0.000637108 0)
(0.0933784 0.000639698 0)
(0.0920963 0.000642112 0)
(0.0908097 0.000644357 0)
(0.0895187 0.000646438 0)
(0.0882237 0.000648361 0)
(0.086925 0.000650132 0)
(0.085623 0.000651757 0)
(0.0843178 0.000653241 0)
(0.0830098 0.000654589 0)
(0.0816993 0.000655808 0)
(0.0803864 0.000656903 0)
(0.0790715 0.000657879 0)
(0.0777547 0.000658741 0)
(0.0764364 0.000659495 0)
(0.0751166 0.000660146 0)
(0.0737956 0.000660698 0)
(0.0724737 0.000661157 0)
(0.0711509 0.000661527 0)
(0.0698274 0.000661813 0)
(0.0685035 0.00066202 0)
(0.0671792 0.000662152 0)
(0.0658548 0.000662214 0)
(0.0645303 0.000662209 0)
(0.0632058 0.000662143 0)
(0.0618816 0.000662018 0)
(0.0605576 0.00066184 0)
(0.0592341 0.000661611 0)
(0.0579111 0.000661336 0)
(0.0565887 0.000661019 0)
(0.0552669 0.000660662 0)
(0.053946 0.00066027 0)
(0.0526258 0.000659845 0)
(0.0513065 0.000659392 0)
(0.0499881 0.000658912 0)
(0.0486708 0.000658409 0)
(0.0473544 0.000657887 0)
(0.0460392 0.000657347 0)
(0.044725 0.000656793 0)
(0.0434119 0.000656227 0)
(0.0421 0.000655652 0)
(0.0407893 0.00065507 0)
(0.0394797 0.000654483 0)
(0.0381713 0.000653894 0)
(0.0368641 0.000653305 0)
(0.035558 0.000652719 0)
(0.0342532 0.000652136 0)
(0.0329494 0.000651559 0)
(0.0316469 0.000650991 0)
(0.0303454 0.000650431 0)
(0.0290451 0.000649883 0)
(0.0277459 0.000649348 0)
(0.0264477 0.000648828 0)
(0.0251505 0.000648322 0)
(0.0238544 0.000647835 0)
(0.0225592 0.000647365 0)
(0.0212649 0.000646915 0)
(0.0199715 0.000646486 0)
(0.0186789 0.000646079 0)
(0.0173872 0.000645694 0)
(0.0160961 0.000645333 0)
(0.0148058 0.000644997 0)
(0.0135161 0.000644686 0)
(0.012227 0.000644401 0)
(0.0109385 0.000644143 0)
(0.00965045 0.000643912 0)
(0.00836284 0.000643709 0)
(0.0070756 0.000643534 0)
(0.00578869 0.000643387 0)
(0.00450204 0.00064327 0)
(0.00321559 0.000643182 0)
(0.0019293 0.000643122 0)
(0.000643096 0.000643093 0)
(0.000719981 -0.00216004 0)
(0.00215998 -0.00216016 0)
(0.00360007 -0.00216042 0)
(0.00504037 -0.00216079 0)
(0.00648096 -0.00216128 0)
(0.00792192 -0.00216189 0)
(0.00936333 -0.00216262 0)
(0.0108053 -0.00216346 0)
(0.0122478 -0.00216441 0)
(0.013691 -0.00216547 0)
(0.0151349 -0.00216664 0)
(0.0165797 -0.00216791 0)
(0.0180254 -0.00216927 0)
(0.0194719 -0.00217073 0)
(0.0209195 -0.00217228 0)
(0.0223682 -0.0021739 0)
(0.023818 -0.0021756 0)
(0.0252689 -0.00217738 0)
(0.026721 -0.00217921 0)
(0.0281744 -0.0021811 0)
(0.0296291 -0.00218303 0)
(0.0310851 -0.00218501 0)
(0.0325424 -0.00218701 0)
(0.034001 -0.00218904 0)
(0.0354611 -0.00219107 0)
(0.0369225 -0.00219311 0)
(0.0383852 -0.00219514 0)
(0.0398493 -0.00219715 0)
(0.0413148 -0.00219912 0)
(0.0427815 -0.00220106 0)
(0.0442496 -0.00220293 0)
(0.0457188 -0.00220474 0)
(0.0471893 -0.00220646 0)
(0.0486609 -0.00220808 0)
(0.0501335 -0.0022096 0)
(0.0516072 -0.00221098 0)
(0.0530817 -0.00221222 0)
(0.054557 -0.00221331 0)
(0.0560329 -0.00221421 0)
(0.0575095 -0.00221493 0)
(0.0589864 -0.00221543 0)
(0.0604636 -0.00221571 0)
(0.061941 -0.00221573 0)
(0.0634183 -0.0022155 0)
(0.0648953 -0.00221497 0)
(0.0663719 -0.00221414 0)
(0.0678479 -0.00221299 0)
(0.069323 -0.00221148 0)
(0.070797 -0.00220961 0)
(0.0722696 -0.00220735 0)
(0.0737406 -0.00220467 0)
(0.0752097 -0.00220157 0)
(0.0766765 -0.002198 0)
(0.0781409 -0.00219396 0)
(0.0796024 -0.00218942 0)
(0.0810607 -0.00218435 0)
(0.0825155 -0.00217873 0)
(0.0839664 -0.00217254 0)
(0.085413 -0.00216576 0)
(0.0868548 -0.00215835 0)
(0.0882915 -0.00215031 0)
(0.0897227 -0.0021416 0)
(0.0911478 -0.0021322 0)
(0.0925665 -0.00212209 0)
(0.0939782 -0.00211125 0)
(0.0953824 -0.00209965 0)
(0.0967786 -0.00208728 0)
(0.0981664 -0.0020741 0)
(0.0995451 -0.00206011 0)
(0.100914 -0.00204527 0)
(0.102273 -0.00202958 0)
(0.103621 -0.002013 0)
(0.104958 -0.00199553 0)
(0.106283 -0.00197715 0)
(0.107596 -0.00195784 0)
(0.108895 -0.00193758 0)
(0.11018 -0.00191636 0)
(0.111451 -0.00189418 0)
(0.112707 -0.00187101 0)
(0.113947 -0.00184685 0)
(0.115171 -0.00182168 0)
(0.116377 -0.00179551 0)
(0.117566 -0.00176833 0)
(0.118736 -0.00174012 0)
(0.119887 -0.0017109 0)
(0.121018 -0.00168065 0)
(0.122129 -0.00164939 0)
(0.123219 -0.0016171 0)
(0.124287 -0.00158381 0)
(0.125332 -0.00154951 0)
(0.126354 -0.00151421 0)
(0.127352 -0.00147793 0)
(0.128326 -0.00144067 0)
(0.129274 -0.00140245 0)
(0.130197 -0.00136329 0)
(0.131093 -0.0013232 0)
(0.131962 -0.00128221 0)
(0.132804 -0.00124034 0)
(0.133617 -0.00119761 0)
(0.134401 -0.00115405 0)
(0.135157 -0.00110969 0)
(0.135882 -0.00106455 0)
(0.136577 -0.00101867 0)
(0.137241 -0.000972074 0)
(0.137874 -0.000924809 0)
(0.138475 -0.000876906 0)
(0.139044 -0.000828402 0)
(0.13958 -0.000779338 0)
(0.140084 -0.000729752 0)
(0.140554 -0.000679687 0)
(0.14099 -0.000629186 0)
(0.141393 -0.000578291 0)
(0.141762 -0.000527048 0)
(0.142096 -0.000475502 0)
(0.142396 -0.000423699 0)
(0.142661 -0.000371684 0)
(0.142892 -0.000319504 0)
(0.143088 -0.000267207 0)
(0.143248 -0.000214839 0)
(0.143374 -0.000162447 0)
(0.143465 -0.000110078 0)
(0.143521 -5.7779e-05 0)
(0.143542 -5.59551e-06 0)
(0.143528 4.64255e-05 0)
(0.14348 9.82399e-05 0)
(0.143397 0.000149803 0)
(0.14328 0.000201072 0)
(0.143128 0.000252003 0)
(0.142943 0.000302555 0)
(0.142724 0.000352688 0)
(0.142472 0.000402362 0)
(0.142187 0.000451539 0)
(0.14187 0.000500182 0)
(0.14152 0.000548257 0)
(0.141138 0.00059573 0)
(0.140725 0.000642568 0)
(0.14028 0.000688742 0)
(0.139805 0.000734221 0)
(0.1393 0.000778979 0)
(0.138766 0.000822991 0)
(0.138202 0.000866233 0)
(0.13761 0.000908681 0)
(0.13699 0.000950318 0)
(0.136342 0.000991122 0)
(0.135667 0.00103108 0)
(0.134966 0.00107017 0)
(0.134239 0.00110839 0)
(0.133487 0.00114572 0)
(0.13271 0.00118215 0)
(0.13191 0.00121767 0)
(0.131086 0.00125228 0)
(0.130239 0.00128597 0)
(0.12937 0.00131874 0)
(0.128479 0.00135058 0)
(0.127568 0.0013815 0)
(0.126636 0.0014115 0)
(0.125685 0.00144057 0)
(0.124714 0.00146872 0)
(0.123725 0.00149596 0)
(0.122719 0.00152229 0)
(0.121695 0.00154772 0)
(0.120654 0.00157225 0)
(0.119597 0.0015959 0)
(0.118525 0.00161868 0)
(0.117438 0.00164058 0)
(0.116336 0.00166164 0)
(0.115221 0.00168186 0)
(0.114093 0.00170124 0)
(0.112952 0.00171982 0)
(0.111799 0.00173759 0)
(0.110634 0.00175458 0)
(0.109458 0.0017708 0)
(0.108272 0.00178627 0)
(0.107076 0.001801 0)
(0.10587 0.00181501 0)
(0.104655 0.00182832 0)
(0.103431 0.00184094 0)
(0.102199 0.00185289 0)
(0.10096 0.00186419 0)
(0.0997131 0.00187485 0)
(0.0984594 0.0018849 0)
(0.0971991 0.00189435 0)
(0.0959328 0.00190322 0)
(0.0946608 0.00191153 0)
(0.0933834 0.0019193 0)
(0.0921011 0.00192653 0)
(0.0908141 0.00193326 0)
(0.0895228 0.0019395 0)
(0.0882275 0.00194526 0)
(0.0869285 0.00195057 0)
(0.0856262 0.00195544 0)
(0.0843207 0.00195988 0)
(0.0830125 0.00196392 0)
(0.0817017 0.00196757 0)
(0.0803886 0.00197085 0)
(0.0790734 0.00197378 0)
(0.0777564 0.00197636 0)
(0.0764378 0.00197861 0)
(0.0751179 0.00198056 0)
(0.0737967 0.00198221 0)
(0.0724746 0.00198358 0)
(0.0711516 0.00198469 0)
(0.069828 0.00198554 0)
(0.0685039 0.00198616 0)
(0.0671795 0.00198655 0)
(0.0658549 0.00198673 0)
(0.0645302 0.00198671 0)
(0.0632057 0.00198651 0)
(0.0618813 0.00198613 0)
(0.0605573 0.00198559 0)
(0.0592337 0.0019849 0)
(0.0579106 0.00198408 0)
(0.0565881 0.00198312 0)
(0.0552662 0.00198205 0)
(0.0539452 0.00198087 0)
(0.052625 0.00197959 0)
(0.0513056 0.00197822 0)
(0.0499872 0.00197678 0)
(0.0486698 0.00197527 0)
(0.0473534 0.0019737 0)
(0.0460381 0.00197208 0)
(0.0447239 0.00197041 0)
(0.0434108 0.00196871 0)
(0.0420989 0.00196698 0)
(0.0407881 0.00196524 0)
(0.0394786 0.00196347 0)
(0.0381702 0.00196171 0)
(0.0368629 0.00195994 0)
(0.0355569 0.00195817 0)
(0.034252 0.00195642 0)
(0.0329483 0.00195469 0)
(0.0316458 0.00195299 0)
(0.0303444 0.00195131 0)
(0.0290441 0.00194966 0)
(0.0277449 0.00194805 0)
(0.0264467 0.00194649 0)
(0.0251496 0.00194497 0)
(0.0238534 0.00194351 0)
(0.0225583 0.0019421 0)
(0.021264 0.00194075 0)
(0.0199707 0.00193946 0)
(0.0186782 0.00193823 0)
(0.0173864 0.00193708 0)
(0.0160954 0.001936 0)
(0.0148052 0.00193499 0)
(0.0135155 0.00193405 0)
(0.0122265 0.0019332 0)
(0.010938 0.00193242 0)
(0.00965003 0.00193173 0)
(0.00836247 0.00193112 0)
(0.00707529 0.00193059 0)
(0.00578843 0.00193015 0)
(0.00450184 0.0019298 0)
(0.00321545 0.00192954 0)
(0.00192922 0.00192936 0)
(0.000643066 0.00192927 0)
(0.000719888 -0.00359995 0)
(0.00215972 -0.00360015 0)
(0.00359966 -0.00360056 0)
(0.00503981 -0.00360117 0)
(0.00648025 -0.00360199 0)
(0.00792105 -0.003603 0)
(0.0093623 -0.00360421 0)
(0.0108041 -0.00360562 0)
(0.0122465 -0.00360721 0)
(0.0136895 -0.00360898 0)
(0.0151333 -0.00361093 0)
(0.016578 -0.00361305 0)
(0.0180235 -0.00361533 0)
(0.01947 -0.00361776 0)
(0.0209174 -0.00362035 0)
(0.022366 -0.00362306 0)
(0.0238157 -0.00362591 0)
(0.0252665 -0.00362887 0)
(0.0267186 -0.00363193 0)
(0.0281719 -0.00363509 0)
(0.0296265 -0.00363832 0)
(0.0310825 -0.00364162 0)
(0.0325397 -0.00364497 0)
(0.0339984 -0.00364836 0)
(0.0354584 -0.00365177 0)
(0.0369198 -0.00365517 0)
(0.0383826 -0.00365857 0)
(0.0398467 -0.00366193 0)
(0.0413122 -0.00366523 0)
(0.042779 -0.00366847 0)
(0.0442471 -0.00367161 0)
(0.0457165 -0.00367463 0)
(0.0471871 -0.00367752 0)
(0.0486588 -0.00368024 0)
(0.0501316 -0.00368278 0)
(0.0516054 -0.00368511 0)
(0.0530802 -0.00368719 0)
(0.0545557 -0.00368902 0)
(0.0560319 -0.00369055 0)
(0.0575087 -0.00369176 0)
(0.0589859 -0.00369262 0)
(0.0604635 -0.0036931 0)
(0.0619412 -0.00369317 0)
(0.0634188 -0.00369279 0)
(0.0648963 -0.00369194 0)
(0.0663733 -0.00369058 0)
(0.0678497 -0.00368867 0)
(0.0693253 -0.00368619 0)
(0.0707998 -0.00368309 0)
(0.0722729 -0.00367935 0)
(0.0737445 -0.00367492 0)
(0.0752142 -0.00366977 0)
(0.0766817 -0.00366385 0)
(0.0781467 -0.00365714 0)
(0.0796089 -0.00364959 0)
(0.0810679 -0.00364117 0)
(0.0825235 -0.00363183 0)
(0.0839751 -0.00362154 0)
(0.0854225 -0.00361026 0)
(0.0868652 -0.00359795 0)
(0.0883028 -0.00358457 0)
(0.0897348 -0.00357008 0)
(0.0911609 -0.00355444 0)
(0.0925805 -0.00353762 0)
(0.0939932 -0.00351957 0)
(0.0953984 -0.00350026 0)
(0.0967957 -0.00347966 0)
(0.0981846 -0.00345772 0)
(0.0995644 -0.00343442 0)
(0.100935 -0.00340972 0)
(0.102295 -0.00338358 0)
(0.103644 -0.00335598 0)
(0.104982 -0.00332688 0)
(0.106308 -0.00329626 0)
(0.107622 -0.00326409 0)
(0.108922 -0.00323034 0)
(0.110209 -0.003195 0)
(0.111481 -0.00315803 0)
(0.112739 -0.00311943 0)
(0.11398 -0.00307917 0)
(0.115205 -0.00303723 0)
(0.116413 -0.00299362 0)
(0.117603 -0.00294832 0)
(0.118774 -0.00290131 0)
(0.119927 -0.0028526 0)
(0.12106 -0.00280219 0)
(0.122172 -0.00275008 0)
(0.123263 -0.00269627 0)
(0.124332 -0.00264077 0)
(0.125378 -0.00258359 0)
(0.126402 -0.00252475 0)
(0.127401 -0.00246427 0)
(0.128376 -0.00240215 0)
(0.129326 -0.00233844 0)
(0.13025 -0.00227315 0)
(0.131147 -0.00220632 0)
(0.132017 -0.00213797 0)
(0.13286 -0.00206816 0)
(0.133675 -0.00199692 0)
(0.13446 -0.00192428 0)
(0.135216 -0.00185031 0)
(0.135943 -0.00177504 0)
(0.136639 -0.00169853 0)
(0.137304 -0.00162084 0)
(0.137937 -0.00154203 0)
(0.138539 -0.00146215 0)
(0.139109 -0.00138126 0)
(0.139646 -0.00129945 0)
(0.14015 -0.00121676 0)
(0.140621 -0.00113327 0)
(0.141058 -0.00104905 0)
(0.141461 -0.000964176 0)
(0.14183 -0.000878721 0)
(0.142165 -0.00079276 0)
(0.142465 -0.000706369 0)
(0.142731 -0.000619625 0)
(0.142962 -0.000532607 0)
(0.143157 -0.000445392 0)
(0.143318 -0.00035806 0)
(0.143444 -0.000270688 0)
(0.143535 -0.000183355 0)
(0.143591 -9.61388e-05 0)
(0.143611 -9.11608e-06 0)
(0.143597 7.76362e-05 0)
(0.143549 0.000164043 0)
(0.143465 0.00025003 0)
(0.143348 0.000335526 0)
(0.143196 0.000420457 0)
(0.14301 0.000504756 0)
(0.142791 0.000588354 0)
(0.142538 0.000671185 0)
(0.142253 0.000753188 0)
(0.141934 0.0008343 0)
(0.141583 0.000914462 0)
(0.141201 0.000993619 0)
(0.140787 0.00107172 0)
(0.140342 0.0011487 0)
(0.139866 0.00122453 0)
(0.13936 0.00129916 0)
(0.138824 0.00137254 0)
(0.138259 0.00144463 0)
(0.137666 0.0015154 0)
(0.137045 0.00158482 0)
(0.136396 0.00165284 0)
(0.13572 0.00171945 0)
(0.135018 0.00178462 0)
(0.13429 0.00184833 0)
(0.133536 0.00191056 0)
(0.132758 0.00197128 0)
(0.131957 0.00203049 0)
(0.131131 0.00208818 0)
(0.130283 0.00214434 0)
(0.129413 0.00219895 0)
(0.128521 0.00225203 0)
(0.127609 0.00230356 0)
(0.126676 0.00235355 0)
(0.125723 0.002402 0)
(0.124751 0.00244892 0)
(0.123761 0.00249431 0)
(0.122753 0.00253818 0)
(0.121728 0.00258055 0)
(0.120686 0.00262143 0)
(0.119628 0.00266084 0)
(0.118555 0.00269878 0)
(0.117467 0.00273528 0)
(0.116364 0.00277036 0)
(0.115248 0.00280404 0)
(0.114118 0.00283634 0)
(0.112976 0.00286728 0)
(0.111822 0.00289688 0)
(0.110656 0.00292518 0)
(0.10948 0.0029522 0)
(0.108292 0.00297796 0)
(0.107095 0.00300249 0)
(0.105888 0.00302582 0)
(0.104672 0.00304798 0)
(0.103448 0.00306899 0)
(0.102215 0.00308889 0)
(0.100975 0.0031077 0)
(0.099727 0.00312546 0)
(0.0984725 0.00314219 0)
(0.0972115 0.00315792 0)
(0.0959444 0.00317269 0)
(0.0946717 0.00318651 0)
(0.0933936 0.00319943 0)
(0.0921105 0.00321148 0)
(0.0908229 0.00322267 0)
(0.0895309 0.00323305 0)
(0.088235 0.00324263 0)
(0.0869354 0.00325146 0)
(0.0856325 0.00325956 0)
(0.0843265 0.00326695 0)
(0.0830177 0.00327366 0)
(0.0817064 0.00327973 0)
(0.0803928 0.00328518 0)
(0.0790772 0.00329003 0)
(0.0777598 0.00329431 0)
(0.0764408 0.00329806 0)
(0.0751204 0.00330128 0)
(0.0737989 0.00330402 0)
(0.0724763 0.00330629 0)
(0.071153 0.00330812 0)
(0.0698291 0.00330953 0)
(0.0685047 0.00331054 0)
(0.06718 0.00331117 0)
(0.0658551 0.00331146 0)
(0.0645302 0.00331142 0)
(0.0632054 0.00331106 0)
(0.0618808 0.00331042 0)
(0.0605566 0.00330951 0)
(0.0592328 0.00330835 0)
(0.0579095 0.00330696 0)
(0.0565868 0.00330535 0)
(0.0552649 0.00330355 0)
(0.0539437 0.00330157 0)
(0.0526233 0.00329943 0)
(0.0513038 0.00329715 0)
(0.0499853 0.00329474 0)
(0.0486678 0.00329221 0)
(0.0473514 0.00328958 0)
(0.046036 0.00328687 0)
(0.0447218 0.00328408 0)
(0.0434086 0.00328124 0)
(0.0420967 0.00327835 0)
(0.0407859 0.00327543 0)
(0.0394763 0.00327249 0)
(0.0381679 0.00326953 0)
(0.0368607 0.00326658 0)
(0.0355546 0.00326363 0)
(0.0342498 0.00326071 0)
(0.0329461 0.00325782 0)
(0.0316436 0.00325496 0)
(0.0303422 0.00325216 0)
(0.029042 0.00324941 0)
(0.0277428 0.00324673 0)
(0.0264447 0.00324412 0)
(0.0251476 0.00324159 0)
(0.0238516 0.00323914 0)
(0.0225565 0.00323679 0)
(0.0212623 0.00323453 0)
(0.019969 0.00323238 0)
(0.0186766 0.00323034 0)
(0.017385 0.00322841 0)
(0.0160941 0.0032266 0)
(0.0148039 0.00322492 0)
(0.0135144 0.00322336 0)
(0.0122254 0.00322193 0)
(0.0109371 0.00322063 0)
(0.00964918 0.00321948 0)
(0.00836173 0.00321846 0)
(0.00707466 0.00321758 0)
(0.00578791 0.00321685 0)
(0.00450143 0.00321626 0)
(0.00321516 0.00321582 0)
(0.00192904 0.00321552 0)
(0.000643008 0.00321538 0)
(0.000719763 -0.00503967 0)
(0.00215935 -0.00503994 0)
(0.00359905 -0.00504051 0)
(0.00503896 -0.00504136 0)
(0.00647916 -0.00504251 0)
(0.00791973 -0.00504393 0)
(0.00936075 -0.00504564 0)
(0.0108023 -0.00504761 0)
(0.0122445 -0.00504984 0)
(0.0136873 -0.00505233 0)
(0.0151309 -0.00505507 0)
(0.0165754 -0.00505804 0)
(0.0180207 -0.00506125 0)
(0.019467 -0.00506467 0)
(0.0209143 -0.0050683 0)
(0.0223627 -0.00507211 0)
(0.0238122 -0.00507611 0)
(0.0252629 -0.00508027 0)
(0.0267149 -0.00508458 0)
(0.0281681 -0.00508901 0)
(0.0296226 -0.00509356 0)
(0.0310785 -0.0050982 0)
(0.0325357 -0.00510291 0)
(0.0339943 -0.00510768 0)
(0.0354543 -0.00511247 0)
(0.0369157 -0.00511727 0)
(0.0383786 -0.00512204 0)
(0.0398427 -0.00512678 0)
(0.0413083 -0.00513143 0)
(0.0427753 -0.00513599 0)
(0.0442435 -0.00514042 0)
(0.045713 -0.00514468 0)
(0.0471838 -0.00514876 0)
(0.0486557 -0.0051526 0)
(0.0501288 -0.00515619 0)
(0.0516029 -0.00515949 0)
(0.0530779 -0.00516245 0)
(0.0545537 -0.00516504 0)
(0.0560303 -0.00516722 0)
(0.0575075 -0.00516896 0)
(0.0589852 -0.0051702 0)
(0.0604632 -0.00517092 0)
(0.0619414 -0.00517106 0)
(0.0634196 -0.00517058 0)
(0.0648977 -0.00516943 0)
(0.0663753 -0.00516757 0)
(0.0678524 -0.00516495 0)
(0.0693287 -0.00516153 0)
(0.0708039 -0.00515724 0)
(0.0722779 -0.00515205 0)
(0.0737503 -0.0051459 0)
(0.0752209 -0.00513874 0)
(0.0766893 -0.00513051 0)
(0.0781553 -0.00512117 0)
(0.0796186 -0.00511066 0)
(0.0810787 -0.00509892 0)
(0.0825353 -0.0050859 0)
(0.0839881 -0.00507155 0)
(0.0854367 -0.00505581 0)
(0.0868807 -0.00503863 0)
(0.0883196 -0.00501995 0)
(0.089753 -0.00499971 0)
(0.0911805 -0.00497788 0)
(0.0926015 -0.00495438 0)
(0.0940157 -0.00492916 0)
(0.0954225 -0.00490219 0)
(0.0968214 -0.00487339 0)
(0.0982118 -0.00484273 0)
(0.0995933 -0.00481015 0)
(0.100965 -0.00477561 0)
(0.102327 -0.00473907 0)
(0.103678 -0.00470046 0)
(0.105018 -0.00465977 0)
(0.106346 -0.00461694 0)
(0.107662 -0.00457193 0)
(0.108964 -0.00452472 0)
(0.110253 -0.00447526 0)
(0.111527 -0.00442354 0)
(0.112786 -0.00436952 0)
(0.114029 -0.00431317 0)
(0.115256 -0.00425448 0)
(0.116466 -0.00419344 0)
(0.117658 -0.00413002 0)
(0.118832 -0.00406422 0)
(0.119987 -0.00399603 0)
(0.121121 -0.00392545 0)
(0.122235 -0.00385249 0)
(0.123328 -0.00377714 0)
(0.1244 -0.00369943 0)
(0.125448 -0.00361936 0)
(0.126473 -0.00353696 0)
(0.127475 -0.00345225 0)
(0.128452 -0.00336525 0)
(0.129403 -0.00327602 0)
(0.130329 -0.00318457 0)
(0.131228 -0.00309096 0)
(0.1321 -0.00299523 0)
(0.132945 -0.00289743 0)
(0.133761 -0.00279763 0)
(0.134548 -0.00269587 0)
(0.135306 -0.00259224 0)
(0.136034 -0.00248679 0)
(0.136731 -0.00237961 0)
(0.137398 -0.00227076 0)
(0.138033 -0.00216033 0)
(0.138636 -0.00204841 0)
(0.139207 -0.00193508 0)
(0.139745 -0.00182044 0)
(0.14025 -0.00170458 0)
(0.140722 -0.0015876 0)
(0.14116 -0.00146959 0)
(0.141564 -0.00135066 0)
(0.141934 -0.00123092 0)
(0.142269 -0.00111047 0)
(0.14257 -0.000989411 0)
(0.142836 -0.000867861 0)
(0.143066 -0.000745927 0)
(0.143262 -0.000623717 0)
(0.143423 -0.000501342 0)
(0.143549 -0.000378912 0)
(0.14364 -0.000256537 0)
(0.143695 -0.000134326 0)
(0.143716 -1.23881e-05 0)
(0.143702 0.000109171 0)
(0.143652 0.000230244 0)
(0.143569 0.000350728 0)
(0.14345 0.000470521 0)
(0.143298 0.000589522 0)
(0.143111 0.000707635 0)
(0.142891 0.000824764 0)
(0.142637 0.000940817 0)
(0.142351 0.00105571 0)
(0.142031 0.00116934 0)
(0.141679 0.00128165 0)
(0.141295 0.00139255 0)
(0.14088 0.00150195 0)
(0.140433 0.0016098 0)
(0.139956 0.00171603 0)
(0.139449 0.00182056 0)
(0.138912 0.00192335 0)
(0.138345 0.00202433 0)
(0.13775 0.00212346 0)
(0.137127 0.00222068 0)
(0.136477 0.00231596 0)
(0.135799 0.00240925 0)
(0.135095 0.00250052 0)
(0.134365 0.00258974 0)
(0.13361 0.00267687 0)
(0.132831 0.00276191 0)
(0.132027 0.00284482 0)
(0.1312 0.0029256 0)
(0.13035 0.00300423 0)
(0.129478 0.00308069 0)
(0.128584 0.003155 0)
(0.12767 0.00322714 0)
(0.126735 0.00329712 0)
(0.125781 0.00336494 0)
(0.124807 0.00343062 0)
(0.123815 0.00349415 0)
(0.122805 0.00355556 0)
(0.121778 0.00361486 0)
(0.120735 0.00367207 0)
(0.119675 0.00372721 0)
(0.1186 0.00378031 0)
(0.11751 0.00383138 0)
(0.116406 0.00388047 0)
(0.115288 0.00392758 0)
(0.114156 0.00397277 0)
(0.113013 0.00401605 0)
(0.111857 0.00405747 0)
(0.11069 0.00409705 0)
(0.109512 0.00413484 0)
(0.108323 0.00417086 0)
(0.107124 0.00420517 0)
(0.105916 0.00423779 0)
(0.104698 0.00426878 0)
(0.103473 0.00429815 0)
(0.102239 0.00432597 0)
(0.100997 0.00435227 0)
(0.0997479 0.00437708 0)
(0.0984922 0.00440046 0)
(0.09723 0.00442245 0)
(0.0959618 0.00444307 0)
(0.0946879 0.00446239 0)
(0.0934088 0.00448044 0)
(0.0921247 0.00449726 0)
(0.090836 0.00451289 0)
(0.0895431 0.00452737 0)
(0.0882463 0.00454076 0)
(0.0869458 0.00455307 0)
(0.085642 0.00456436 0)
(0.0843352 0.00457467 0)
(0.0830256 0.00458403 0)
(0.0817135 0.00459249 0)
(0.0803992 0.00460008 0)
(0.0790829 0.00460684 0)
(0.0777648 0.0046128 0)
(0.0764452 0.004618 0)
(0.0751242 0.00462249 0)
(0.0738021 0.00462628 0)
(0.072479 0.00462943 0)
(0.0711552 0.00463195 0)
(0.0698307 0.00463389 0)
(0.0685059 0.00463528 0)
(0.0671807 0.00463614 0)
(0.0658554 0.00463651 0)
(0.0645302 0.00463642 0)
(0.063205 0.0046359 0)
(0.0618801 0.00463497 0)
(0.0605555 0.00463367 0)
(0.0592314 0.00463201 0)
(0.0579079 0.00463004 0)
(0.0565849 0.00462777 0)
(0.0552627 0.00462522 0)
(0.0539413 0.00462243 0)
(0.0526208 0.00461941 0)
(0.0513012 0.00461619 0)
(0.0499825 0.00461279 0)
(0.0486649 0.00460923 0)
(0.0473483 0.00460554 0)
(0.0460329 0.00460172 0)
(0.0447185 0.0045978 0)
(0.0434053 0.00459381 0)
(0.0420933 0.00458974 0)
(0.0407825 0.00458564 0)
(0.0394729 0.0045815 0)
(0.0381644 0.00457735 0)
(0.0368572 0.0045732 0)
(0.0355512 0.00456906 0)
(0.0342464 0.00456496 0)
(0.0329428 0.00456089 0)
(0.0316403 0.00455689 0)
(0.030339 0.00455295 0)
(0.0290388 0.00454909 0)
(0.0277397 0.00454532 0)
(0.0264417 0.00454166 0)
(0.0251447 0.0045381 0)
(0.0238488 0.00453467 0)
(0.0225538 0.00453137 0)
(0.0212597 0.0045282 0)
(0.0199666 0.00452518 0)
(0.0186743 0.00452232 0)
(0.0173828 0.00451961 0)
(0.016092 0.00451707 0)
(0.014802 0.00451471 0)
(0.0135126 0.00451252 0)
(0.0122239 0.00451052 0)
(0.0109356 0.0045087 0)
(0.0096479 0.00450708 0)
(0.00836062 0.00450565 0)
(0.00707371 0.00450442 0)
(0.00578714 0.00450339 0)
(0.00450083 0.00450257 0)
(0.00321473 0.00450194 0)
(0.00192878 0.00450153 0)
(0.000642921 0.00450132 0)
(0.000719598 -0.00647908 0)
(0.00215885 -0.00647944 0)
(0.00359823 -0.00648017 0)
(0.00503782 -0.00648128 0)
(0.0064777 -0.00648276 0)
(0.00791796 -0.0064846 0)
(0.00935867 -0.00648679 0)
(0.0107999 -0.00648934 0)
(0.0122418 -0.00649222 0)
(0.0136844 -0.00649544 0)
(0.0151277 -0.00649897 0)
(0.0165719 -0.00650281 0)
(0.0180169 -0.00650695 0)
(0.019463 -0.00651137 0)
(0.0209101 -0.00651606 0)
(0.0223583 -0.00652099 0)
(0.0238076 -0.00652615 0)
(0.0252581 -0.00653153 0)
(0.0267099 -0.0065371 0)
(0.028163 -0.00654283 0)
(0.0296174 -0.00654871 0)
(0.0310732 -0.00655471 0)
(0.0325304 -0.00656081 0)
(0.0339889 -0.00656697 0)
(0.0354489 -0.00657317 0)
(0.0369103 -0.00657938 0)
(0.0383732 -0.00658557 0)
(0.0398374 -0.0065917 0)
(0.0413031 -0.00659774 0)
(0.0427702 -0.00660365 0)
(0.0442386 -0.00660939 0)
(0.0457083 -0.00661493 0)
(0.0471793 -0.00662022 0)
(0.0486516 -0.00662523 0)
(0.0501249 -0.0066299 0)
(0.0515994 -0.0066342 0)
(0.0530748 -0.00663807 0)
(0.0545511 -0.00664147 0)
(0.0560282 -0.00664435 0)
(0.0575059 -0.00664665 0)
(0.0589842 -0.00664832 0)
(0.0604628 -0.00664931 0)
(0.0619417 -0.00664957 0)
(0.0634206 -0.00664903 0)
(0.0648995 -0.00664764 0)
(0.066378 -0.00664533 0)
(0.0678559 -0.00664205 0)
(0.0693332 -0.00663773 0)
(0.0708094 -0.00663231 0)
(0.0722845 -0.00662572 0)
(0.073758 -0.0066179 0)
(0.0752298 -0.00660878 0)
(0.0766995 -0.00659829 0)
(0.0781668 -0.00658637 0)
(0.0796314 -0.00657295 0)
(0.0810929 -0.00655795 0)
(0.0825511 -0.00654131 0)
(0.0840054 -0.00652295 0)
(0.0854556 -0.00650281 0)
(0.0869013 -0.00648081 0)
(0.0883419 -0.00645688 0)
(0.0897772 -0.00643096 0)
(0.0912065 -0.00640297 0)
(0.0926295 -0.00637285 0)
(0.0940456 -0.00634052 0)
(0.0954545 -0.00630593 0)
(0.0968555 -0.00626899 0)
(0.0982481 -0.00622965 0)
(0.0996318 -0.00618785 0)
(0.101006 -0.00614352 0)
(0.10237 -0.0060966 0)
(0.103724 -0.00604705 0)
(0.105066 -0.00599479 0)
(0.106397 -0.00593979 0)
(0.107715 -0.00588198 0)
(0.109019 -0.00582134 0)
(0.110311 -0.0057578 0)
(0.111587 -0.00569134 0)
(0.112849 -0.00562193 0)
(0.114095 -0.00554952 0)
(0.115325 -0.00547409 0)
(0.116538 -0.00539563 0)
(0.117732 -0.00531411 0)
(0.118909 -0.00522952 0)
(0.120066 -0.00514185 0)
(0.121203 -0.0050511 0)
(0.12232 -0.00495728 0)
(0.123416 -0.00486039 0)
(0.12449 -0.00476044 0)
(0.125541 -0.00465746 0)
(0.126569 -0.00455147 0)
(0.127573 -0.00444251 0)
(0.128553 -0.0043306 0)
(0.129507 -0.0042158 0)
(0.130435 -0.00409815 0)
(0.131337 -0.00397771 0)
(0.132211 -0.00385454 0)
(0.133058 -0.00372871 0)
(0.133876 -0.00360028 0)
(0.134666 -0.00346935 0)
(0.135426 -0.00333598 0)
(0.136156 -0.00320028 0)
(0.136855 -0.00306234 0)
(0.137523 -0.00292226 0)
(0.13816 -0.00278013 0)
(0.138765 -0.00263608 0)
(0.139337 -0.00249022 0)
(0.139877 -0.00234266 0)
(0.140383 -0.00219353 0)
(0.140856 -0.00204295 0)
(0.141295 -0.00189105 0)
(0.1417 -0.00173797 0)
(0.142071 -0.00158383 0)
(0.142407 -0.00142878 0)
(0.142709 -0.00127295 0)
(0.142975 -0.00111649 0)
(0.143206 -0.000959524 0)
(0.143403 -0.000802208 0)
(0.143564 -0.000644681 0)
(0.143689 -0.000487083 0)
(0.14378 -0.000329557 0)
(0.143835 -0.000172244 0)
(0.143855 -1.52829e-05 0)
(0.143841 0.000141188 0)
(0.143791 0.000297032 0)
(0.143706 0.000452114 0)
(0.143587 0.000606304 0)
(0.143434 0.000759473 0)
(0.143246 0.000911494 0)
(0.143025 0.00106225 0)