/*--------------------------------*- C++ -*----------------------------------*\
| =========                 |                                                 |
| \\      /  F ield         | OpenFOAM: The Open Source CFD Toolbox           |
|  \\    /   O peration     | Version:  v2012                                 |
|   \\  /    A nd           | Website:  www.openfoam.com                      |
|    \\/     M anipulation  |                                                 |
\*---------------------------------------------------------------------------*/
FoamFile
{
    version     2.0;
    format      ascii;
    class       volVectorField;
    location    "13";
    object      W;
}
// * * * * * * * * * * * * * * * * * * * * * * * * * * * * * * * * * * * * * //

dimensions      [0 0 -1 0 0 0 0];


internalField   nonuniform List<vector> 
65536
(
(0 -0 1.91058e-08)
(0 -0 3.56317e-08)
(0 -0 -3.23637e-07)
(0 -0 -4.09442e-07)
(0 -0 -4.22146e-07)
(0 -0 -4.14169e-07)
(0 -0 -4.02392e-07)
(0 -0 -3.92205e-07)
(0 -0 -3.85608e-07)
(0 -0 -3.82276e-07)
(0 -0 -3.80219e-07)
(0 -0 -3.78687e-07)
(0 -0 -3.78741e-07)
(0 -0 -3.80949e-07)
(0 -0 -3.85002e-07)
(0 -0 -3.90116e-07)
(0 -0 -3.95631e-07)
(0 -0 -4.01263e-07)
(0 -0 -4.07107e-07)
(0 -0 -4.13708e-07)
(0 -0 -4.21093e-07)
(0 -0 -4.2883e-07)
(0 -0 -4.368e-07)
(0 -0 -4.44919e-07)
(0 -0 -4.53206e-07)
(0 -0 -4.61727e-07)
(0 -0 -4.70336e-07)
(0 -0 -4.79121e-07)
(0 -0 -4.88163e-07)
(0 -0 -4.97153e-07)
(0 -0 -5.06013e-07)
(0 -0 -5.14939e-07)
(0 -0 -5.23973e-07)
(0 -0 -5.33134e-07)
(0 -0 -5.42329e-07)
(0 -0 -5.51302e-07)
(0 -0 -5.6014e-07)
(0 -0 -5.69138e-07)
(0 -0 -5.78213e-07)
(0 -0 -5.87179e-07)
(0 -0 -5.96136e-07)
(0 -0 -6.052e-07)
(0 -0 -6.14385e-07)
(0 -0 -6.23767e-07)
(0 -0 -6.33317e-07)
(0 -0 -6.42879e-07)
(0 -0 -6.52505e-07)
(0 -0 -6.624e-07)
(0 -0 -6.72556e-07)
(0 -0 -6.82833e-07)
(0 -0 -6.93238e-07)
(0 -0 -7.03822e-07)
(0 -0 -7.14569e-07)
(0 -0 -7.25543e-07)
(0 -0 -7.3687e-07)
(0 -0 -7.48484e-07)
(0 -0 -7.60133e-07)
(0 -0 -7.71671e-07)
(0 -0 -7.83148e-07)
(0 -0 -7.94685e-07)
(0 -0 -8.06406e-07)
(0 -0 -8.18405e-07)
(0 -0 -8.30567e-07)
(0 -0 -8.42585e-07)
(0 -0 -8.54323e-07)
(0 -0 -8.66024e-07)
(0 -0 -8.77981e-07)
(0 -0 -8.90167e-07)
(0 -0 -9.02374e-07)
(0 -0 -9.14558e-07)
(0 -0 -9.26845e-07)
(0 -0 -9.39275e-07)
(0 -0 -9.51779e-07)
(0 -0 -9.64353e-07)
(0 -0 -9.7707e-07)
(0 -0 -9.89987e-07)
(0 -0 -1.00313e-06)
(0 -0 -1.01648e-06)
(0 -0 -1.02997e-06)
(0 -0 -1.04346e-06)
(0 -0 -1.05693e-06)
(0 -0 -1.07052e-06)
(0 -0 -1.08428e-06)
(0 -0 -1.09808e-06)
(0 -0 -1.1118e-06)
(0 -0 -1.12547e-06)
(0 -0 -1.13912e-06)
(0 -0 -1.15279e-06)
(0 -0 -1.16645e-06)
(0 -0 -1.18014e-06)
(0 -0 -1.19388e-06)
(0 -0 -1.20759e-06)
(0 -0 -1.22119e-06)
(0 -0 -1.23473e-06)
(0 -0 -1.2484e-06)
(0 -0 -1.26225e-06)
(0 -0 -1.27617e-06)
(0 -0 -1.29009e-06)
(0 -0 -1.30402e-06)
(0 -0 -1.31805e-06)
(0 -0 -1.33214e-06)
(0 -0 -1.34613e-06)
(0 -0 -1.35988e-06)
(0 -0 -1.37343e-06)
(0 -0 -1.38687e-06)
(0 -0 -1.40018e-06)
(0 -0 -1.41326e-06)
(0 -0 -1.42597e-06)
(0 -0 -1.43832e-06)
(0 -0 -1.45031e-06)
(0 -0 -1.46186e-06)
(0 -0 -1.47294e-06)
(0 -0 -1.48355e-06)
(0 -0 -1.49375e-06)
(0 -0 -1.50352e-06)
(0 -0 -1.51276e-06)
(0 -0 -1.52147e-06)
(0 -0 -1.52974e-06)
(0 -0 -1.53769e-06)
(0 -0 -1.54536e-06)
(0 -0 -1.55267e-06)
(0 -0 -1.55959e-06)
(0 -0 -1.56621e-06)
(0 -0 -1.57274e-06)
(0 -0 -1.57935e-06)
(0 -0 -1.5859e-06)
(0 -0 -1.59217e-06)
(0 -0 -1.59817e-06)
(0 -0 -1.60403e-06)
(0 -0 -1.60983e-06)
(0 -0 -1.61542e-06)
(0 -0 -1.62067e-06)
(0 -0 -1.62551e-06)
(0 -0 -1.63e-06)
(0 -0 -1.63416e-06)
(0 -0 -1.63783e-06)
(0 -0 -1.64085e-06)
(0 -0 -1.64317e-06)
(0 -0 -1.64502e-06)
(0 -0 -1.64655e-06)
(0 -0 -1.64767e-06)
(0 -0 -1.6483e-06)
(0 -0 -1.64841e-06)
(0 -0 -1.64808e-06)
(0 -0 -1.64739e-06)
(0 -0 -1.64644e-06)
(0 -0 -1.64512e-06)
(0 -0 -1.64347e-06)
(0 -0 -1.64159e-06)
(0 -0 -1.63938e-06)
(0 -0 -1.63675e-06)
(0 -0 -1.63395e-06)
(0 -0 -1.63109e-06)
(0 -0 -1.62815e-06)
(0 -0 -1.62507e-06)
(0 -0 -1.62184e-06)
(0 -0 -1.61865e-06)
(0 -0 -1.61562e-06)
(0 -0 -1.61256e-06)
(0 -0 -1.60937e-06)
(0 -0 -1.60636e-06)
(0 -0 -1.60335e-06)
(0 -0 -1.60031e-06)
(0 -0 -1.59695e-06)
(0 -0 -1.59357e-06)
(0 -0 -1.5902e-06)
(0 -0 -1.58682e-06)
(0 -0 -1.58324e-06)
(0 -0 -1.57938e-06)
(0 -0 -1.57533e-06)
(0 -0 -1.57116e-06)
(0 -0 -1.56689e-06)
(0 -0 -1.56246e-06)
(0 -0 -1.55773e-06)
(0 -0 -1.55288e-06)
(0 -0 -1.54781e-06)
(0 -0 -1.54258e-06)
(0 -0 -1.53715e-06)
(0 -0 -1.53162e-06)
(0 -0 -1.52596e-06)
(0 -0 -1.52005e-06)
(0 -0 -1.51387e-06)
(0 -0 -1.50737e-06)
(0 -0 -1.50065e-06)
(0 -0 -1.49363e-06)
(0 -0 -1.48607e-06)
(0 -0 -1.47794e-06)
(0 -0 -1.46921e-06)
(0 -0 -1.46003e-06)
(0 -0 -1.45049e-06)
(0 -0 -1.44055e-06)
(0 -0 -1.43021e-06)
(0 -0 -1.41958e-06)
(0 -0 -1.40889e-06)
(0 -0 -1.39824e-06)
(0 -0 -1.38751e-06)
(0 -0 -1.3767e-06)
(0 -0 -1.36578e-06)
(0 -0 -1.35479e-06)
(0 -0 -1.34372e-06)
(0 -0 -1.33245e-06)
(0 -0 -1.32088e-06)
(0 -0 -1.30904e-06)
(0 -0 -1.29683e-06)
(0 -0 -1.28436e-06)
(0 -0 -1.2714e-06)
(0 -0 -1.258e-06)
(0 -0 -1.24399e-06)
(0 -0 -1.22941e-06)
(0 -0 -1.21419e-06)
(0 -0 -1.19819e-06)
(0 -0 -1.18123e-06)
(0 -0 -1.1633e-06)
(0 -0 -1.14433e-06)
(0 -0 -1.12424e-06)
(0 -0 -1.10308e-06)
(0 -0 -1.08086e-06)
(0 -0 -1.05761e-06)
(0 -0 -1.03339e-06)
(0 -0 -1.00826e-06)
(0 -0 -9.82341e-07)
(0 -0 -9.55742e-07)
(0 -0 -9.28591e-07)
(0 -0 -9.01087e-07)
(0 -0 -8.7325e-07)
(0 -0 -8.4519e-07)
(0 -0 -8.16987e-07)
(0 -0 -7.88707e-07)
(0 -0 -7.60543e-07)
(0 -0 -7.32598e-07)
(0 -0 -7.04846e-07)
(0 -0 -6.77201e-07)
(0 -0 -6.49535e-07)
(0 -0 -6.21823e-07)
(0 -0 -5.94033e-07)
(0 -0 -5.66057e-07)
(0 -0 -5.37823e-07)
(0 -0 -5.09253e-07)
(0 -0 -4.80417e-07)
(0 -0 -4.51479e-07)
(0 -0 -4.22632e-07)
(0 -0 -3.93987e-07)
(0 -0 -3.65568e-07)
(0 -0 -3.37369e-07)
(0 -0 -3.09394e-07)
(0 -0 -2.81677e-07)
(0 -0 -2.54177e-07)
(0 -0 -2.26804e-07)
(0 -0 -1.9944e-07)
(0 -0 -1.72036e-07)
(0 -0 -1.44712e-07)
(0 -0 -1.17618e-07)
(0 -0 -9.08829e-08)
(0 -0 -6.45465e-08)
(0 -0 -3.86948e-08)
(0 -0 -1.29575e-08)
(0 -0 5.09139e-08)
(0 -0 8.87247e-08)
(0 -0 -4.76702e-07)
(0 -0 -6.64999e-07)
(0 -0 -7.42217e-07)
(0 -0 -7.77486e-07)
(0 -0 -7.97335e-07)
(0 -0 -8.13025e-07)
(0 -0 -8.28557e-07)
(0 -0 -8.44264e-07)
(0 -0 -8.60421e-07)
(0 -0 -8.78227e-07)
(0 -0 -8.98612e-07)
(0 -0 -9.21284e-07)
(0 -0 -9.44979e-07)
(0 -0 -9.68769e-07)
(0 -0 -9.92973e-07)
(0 -0 -1.01805e-06)
(0 -0 -1.04407e-06)
(0 -0 -1.07108e-06)
(0 -0 -1.09879e-06)
(0 -0 -1.12694e-06)
(0 -0 -1.15531e-06)
(0 -0 -1.1839e-06)
(0 -0 -1.21309e-06)
(0 -0 -1.24278e-06)
(0 -0 -1.27252e-06)
(0 -0 -1.30238e-06)
(0 -0 -1.33246e-06)
(0 -0 -1.36263e-06)
(0 -0 -1.39285e-06)
(0 -0 -1.42298e-06)
(0 -0 -1.45302e-06)
(0 -0 -1.48319e-06)
(0 -0 -1.51334e-06)
(0 -0 -1.54315e-06)
(0 -0 -1.57283e-06)
(0 -0 -1.60262e-06)
(0 -0 -1.63239e-06)
(0 -0 -1.66207e-06)
(0 -0 -1.69177e-06)
(0 -0 -1.72147e-06)
(0 -0 -1.75131e-06)
(0 -0 -1.78157e-06)
(0 -0 -1.81219e-06)
(0 -0 -1.84301e-06)
(0 -0 -1.87421e-06)
(0 -0 -1.90599e-06)
(0 -0 -1.93826e-06)
(0 -0 -1.9709e-06)
(0 -0 -2.00396e-06)
(0 -0 -2.03742e-06)
(0 -0 -2.07128e-06)
(0 -0 -2.10575e-06)
(0 -0 -2.14097e-06)
(0 -0 -2.17669e-06)
(0 -0 -2.21253e-06)
(0 -0 -2.24832e-06)
(0 -0 -2.28414e-06)
(0 -0 -2.32008e-06)
(0 -0 -2.35624e-06)
(0 -0 -2.39267e-06)
(0 -0 -2.42919e-06)
(0 -0 -2.46549e-06)
(0 -0 -2.50159e-06)
(0 -0 -2.53775e-06)
(0 -0 -2.57408e-06)
(0 -0 -2.61044e-06)
(0 -0 -2.64684e-06)
(0 -0 -2.68352e-06)
(0 -0 -2.72059e-06)
(0 -0 -2.75789e-06)
(0 -0 -2.7953e-06)
(0 -0 -2.83299e-06)
(0 -0 -2.87118e-06)
(0 -0 -2.90996e-06)
(0 -0 -2.9493e-06)
(0 -0 -2.9891e-06)
(0 -0 -3.02918e-06)
(0 -0 -3.06936e-06)
(0 -0 -3.10973e-06)
(0 -0 -3.15051e-06)
(0 -0 -3.19171e-06)
(0 -0 -3.23299e-06)
(0 -0 -3.27407e-06)
(0 -0 -3.31503e-06)
(0 -0 -3.35603e-06)
(0 -0 -3.39708e-06)
(0 -0 -3.43813e-06)
(0 -0 -3.47918e-06)
(0 -0 -3.52029e-06)
(0 -0 -3.56148e-06)
(0 -0 -3.60264e-06)
(0 -0 -3.64382e-06)
(0 -0 -3.68518e-06)
(0 -0 -3.72684e-06)
(0 -0 -3.76875e-06)
(0 -0 -3.81077e-06)
(0 -0 -3.85287e-06)
(0 -0 -3.89509e-06)
(0 -0 -3.93741e-06)
(0 -0 -3.97955e-06)
(0 -0 -4.02128e-06)
(0 -0 -4.06259e-06)
(0 -0 -4.10343e-06)
(0 -0 -4.14357e-06)
(0 -0 -4.18278e-06)
(0 -0 -4.22099e-06)
(0 -0 -4.25833e-06)
(0 -0 -4.29475e-06)
(0 -0 -4.32997e-06)
(0 -0 -4.36377e-06)
(0 -0 -4.39611e-06)
(0 -0 -4.42701e-06)
(0 -0 -4.45645e-06)
(0 -0 -4.48439e-06)
(0 -0 -4.51098e-06)
(0 -0 -4.53639e-06)
(0 -0 -4.56074e-06)
(0 -0 -4.58404e-06)
(0 -0 -4.6062e-06)
(0 -0 -4.62734e-06)
(0 -0 -4.64782e-06)
(0 -0 -4.66797e-06)
(0 -0 -4.68783e-06)
(0 -0 -4.70724e-06)
(0 -0 -4.72612e-06)
(0 -0 -4.74461e-06)
(0 -0 -4.76272e-06)
(0 -0 -4.78035e-06)
(0 -0 -4.79728e-06)
(0 -0 -4.8133e-06)
(0 -0 -4.82825e-06)
(0 -0 -4.84202e-06)
(0 -0 -4.85448e-06)
(0 -0 -4.8654e-06)
(0 -0 -4.87466e-06)
(0 -0 -4.88229e-06)
(0 -0 -4.88842e-06)
(0 -0 -4.89323e-06)
(0 -0 -4.89667e-06)
(0 -0 -4.89866e-06)
(0 -0 -4.89926e-06)
(0 -0 -4.89863e-06)
(0 -0 -4.8969e-06)
(0 -0 -4.89425e-06)
(0 -0 -4.89065e-06)
(0 -0 -4.88615e-06)
(0 -0 -4.88085e-06)
(0 -0 -4.87468e-06)
(0 -0 -4.86762e-06)
(0 -0 -4.85993e-06)
(0 -0 -4.85187e-06)
(0 -0 -4.84353e-06)
(0 -0 -4.83484e-06)
(0 -0 -4.82591e-06)
(0 -0 -4.81706e-06)
(0 -0 -4.80841e-06)
(0 -0 -4.8e-06)
(0 -0 -4.79141e-06)
(0 -0 -4.78306e-06)
(0 -0 -4.77456e-06)
(0 -0 -4.76599e-06)
(0 -0 -4.75702e-06)
(0 -0 -4.74797e-06)
(0 -0 -4.7387e-06)
(0 -0 -4.72911e-06)
(0 -0 -4.71905e-06)
(0 -0 -4.70848e-06)
(0 -0 -4.69746e-06)
(0 -0 -4.68604e-06)
(0 -0 -4.67418e-06)
(0 -0 -4.6618e-06)
(0 -0 -4.64868e-06)
(0 -0 -4.63506e-06)
(0 -0 -4.62098e-06)
(0 -0 -4.60649e-06)
(0 -0 -4.59145e-06)
(0 -0 -4.57583e-06)
(0 -0 -4.55966e-06)
(0 -0 -4.54299e-06)
(0 -0 -4.52579e-06)
(0 -0 -4.50789e-06)
(0 -0 -4.48908e-06)
(0 -0 -4.46908e-06)
(0 -0 -4.44756e-06)
(0 -0 -4.42455e-06)
(0 -0 -4.40004e-06)
(0 -0 -4.37411e-06)
(0 -0 -4.3468e-06)
(0 -0 -4.3183e-06)
(0 -0 -4.28879e-06)
(0 -0 -4.25855e-06)
(0 -0 -4.22788e-06)
(0 -0 -4.19701e-06)
(0 -0 -4.16585e-06)
(0 -0 -4.13434e-06)
(0 -0 -4.10237e-06)
(0 -0 -4.06993e-06)
(0 -0 -4.03678e-06)
(0 -0 -4.00274e-06)
(0 -0 -3.96739e-06)
(0 -0 -3.93095e-06)
(0 -0 -3.89305e-06)
(0 -0 -3.85386e-06)
(0 -0 -3.81301e-06)
(0 -0 -3.77042e-06)
(0 -0 -3.72595e-06)
(0 -0 -3.67956e-06)
(0 -0 -3.63115e-06)
(0 -0 -3.58043e-06)
(0 -0 -3.52713e-06)
(0 -0 -3.47107e-06)
(0 -0 -3.41236e-06)
(0 -0 -3.35096e-06)
(0 -0 -3.28693e-06)
(0 -0 -3.22028e-06)
(0 -0 -3.15121e-06)
(0 -0 -3.07988e-06)
(0 -0 -3.00658e-06)
(0 -0 -2.93144e-06)
(0 -0 -2.85472e-06)
(0 -0 -2.77653e-06)
(0 -0 -2.69706e-06)
(0 -0 -2.61641e-06)
(0 -0 -2.53463e-06)
(0 -0 -2.45195e-06)
(0 -0 -2.36856e-06)
(0 -0 -2.28473e-06)
(0 -0 -2.20064e-06)
(0 -0 -2.11633e-06)
(0 -0 -2.0319e-06)
(0 -0 -1.94737e-06)
(0 -0 -1.86276e-06)
(0 -0 -1.77807e-06)
(0 -0 -1.69315e-06)
(0 -0 -1.60791e-06)
(0 -0 -1.52235e-06)
(0 -0 -1.43653e-06)
(0 -0 -1.35066e-06)
(0 -0 -1.26485e-06)
(0 -0 -1.17924e-06)
(0 -0 -1.09389e-06)
(0 -0 -1.00893e-06)
(0 -0 -9.2448e-07)
(0 -0 -8.40588e-07)
(0 -0 -7.57221e-07)
(0 -0 -6.74293e-07)
(0 -0 -5.91819e-07)
(0 -0 -5.09884e-07)
(0 -0 -4.28722e-07)
(0 -0 -3.48498e-07)
(0 -0 -2.693e-07)
(0 -0 -1.91187e-07)
(0 -0 -1.14496e-07)
(0 -0 -3.82889e-08)
(0 -0 3.87735e-07)
(0 -0 5.8271e-07)
(0 -0 -2.35939e-09)
(0 -0 -3.3229e-07)
(0 -0 -5.41281e-07)
(0 -0 -6.82831e-07)
(0 -0 -7.87384e-07)
(0 -0 -8.71251e-07)
(0 -0 -9.42988e-07)
(0 -0 -1.00714e-06)
(0 -0 -1.06663e-06)
(0 -0 -1.12332e-06)
(0 -0 -1.17832e-06)
(0 -0 -1.23232e-06)
(0 -0 -1.28546e-06)
(0 -0 -1.33795e-06)
(0 -0 -1.39008e-06)
(0 -0 -1.44203e-06)
(0 -0 -1.49402e-06)
(0 -0 -1.54604e-06)
(0 -0 -1.59823e-06)
(0 -0 -1.65068e-06)
(0 -0 -1.7032e-06)
(0 -0 -1.75592e-06)
(0 -0 -1.80895e-06)
(0 -0 -1.86207e-06)
(0 -0 -1.9153e-06)
(0 -0 -1.96864e-06)
(0 -0 -2.02197e-06)
(0 -0 -2.07535e-06)
(0 -0 -2.1287e-06)
(0 -0 -2.18179e-06)
(0 -0 -2.23473e-06)
(0 -0 -2.28757e-06)
(0 -0 -2.34005e-06)
(0 -0 -2.39228e-06)
(0 -0 -2.44442e-06)
(0 -0 -2.49636e-06)
(0 -0 -2.54811e-06)
(0 -0 -2.59984e-06)
(0 -0 -2.65155e-06)
(0 -0 -2.70324e-06)
(0 -0 -2.75516e-06)
(0 -0 -2.80743e-06)
(0 -0 -2.85998e-06)
(0 -0 -2.91298e-06)
(0 -0 -2.96668e-06)
(0 -0 -3.02109e-06)
(0 -0 -3.07615e-06)
(0 -0 -3.13199e-06)
(0 -0 -3.18862e-06)
(0 -0 -3.24592e-06)
(0 -0 -3.30386e-06)
(0 -0 -3.36251e-06)
(0 -0 -3.42179e-06)
(0 -0 -3.48156e-06)
(0 -0 -3.54182e-06)
(0 -0 -3.60255e-06)
(0 -0 -3.66345e-06)
(0 -0 -3.72429e-06)
(0 -0 -3.7851e-06)
(0 -0 -3.84593e-06)
(0 -0 -3.90666e-06)
(0 -0 -3.96725e-06)
(0 -0 -4.02783e-06)
(0 -0 -4.08843e-06)
(0 -0 -4.14889e-06)
(0 -0 -4.20922e-06)
(0 -0 -4.26972e-06)
(0 -0 -4.33053e-06)
(0 -0 -4.39158e-06)
(0 -0 -4.45291e-06)
(0 -0 -4.51482e-06)
(0 -0 -4.57753e-06)
(0 -0 -4.64093e-06)
(0 -0 -4.70488e-06)
(0 -0 -4.76948e-06)
(0 -0 -4.83487e-06)
(0 -0 -4.90096e-06)
(0 -0 -4.96756e-06)
(0 -0 -5.03458e-06)
(0 -0 -5.10208e-06)
(0 -0 -5.17003e-06)
(0 -0 -5.23825e-06)
(0 -0 -5.30655e-06)
(0 -0 -5.37488e-06)
(0 -0 -5.44328e-06)
(0 -0 -5.51172e-06)
(0 -0 -5.58018e-06)
(0 -0 -5.64868e-06)
(0 -0 -5.71731e-06)
(0 -0 -5.78618e-06)
(0 -0 -5.85533e-06)
(0 -0 -5.9247e-06)
(0 -0 -5.99433e-06)
(0 -0 -6.06432e-06)
(0 -0 -6.1347e-06)
(0 -0 -6.20541e-06)
(0 -0 -6.27633e-06)
(0 -0 -6.34734e-06)
(0 -0 -6.41834e-06)
(0 -0 -6.48915e-06)
(0 -0 -6.55948e-06)
(0 -0 -6.62913e-06)
(0 -0 -6.69794e-06)
(0 -0 -6.76565e-06)
(0 -0 -6.832e-06)
(0 -0 -6.8968e-06)
(0 -0 -6.95998e-06)
(0 -0 -7.0214e-06)
(0 -0 -7.08087e-06)
(0 -0 -7.13815e-06)
(0 -0 -7.19314e-06)
(0 -0 -7.24578e-06)
(0 -0 -7.29608e-06)
(0 -0 -7.34398e-06)
(0 -0 -7.38952e-06)
(0 -0 -7.43292e-06)
(0 -0 -7.47442e-06)
(0 -0 -7.51426e-06)
(0 -0 -7.55253e-06)
(0 -0 -7.58932e-06)
(0 -0 -7.62488e-06)
(0 -0 -7.65952e-06)
(0 -0 -7.69332e-06)
(0 -0 -7.72647e-06)
(0 -0 -7.75905e-06)
(0 -0 -7.79106e-06)
(0 -0 -7.82232e-06)
(0 -0 -7.85264e-06)
(0 -0 -7.8818e-06)
(0 -0 -7.90951e-06)
(0 -0 -7.93543e-06)
(0 -0 -7.95931e-06)
(0 -0 -7.98094e-06)
(0 -0 -8.00013e-06)
(0 -0 -8.01676e-06)
(0 -0 -8.03082e-06)
(0 -0 -8.04223e-06)
(0 -0 -8.05114e-06)
(0 -0 -8.0577e-06)
(0 -0 -8.06196e-06)
(0 -0 -8.06409e-06)
(0 -0 -8.06427e-06)
(0 -0 -8.06261e-06)
(0 -0 -8.05933e-06)
(0 -0 -8.05447e-06)
(0 -0 -8.0481e-06)
(0 -0 -8.04037e-06)
(0 -0 -8.03143e-06)
(0 -0 -8.02133e-06)
(0 -0 -8.01014e-06)
(0 -0 -7.99806e-06)
(0 -0 -7.98542e-06)
(0 -0 -7.97241e-06)
(0 -0 -7.95915e-06)
(0 -0 -7.94596e-06)
(0 -0 -7.93285e-06)
(0 -0 -7.92008e-06)
(0 -0 -7.90748e-06)
(0 -0 -7.89477e-06)
(0 -0 -7.88206e-06)
(0 -0 -7.86926e-06)
(0 -0 -7.85618e-06)
(0 -0 -7.84264e-06)
(0 -0 -7.82851e-06)
(0 -0 -7.81384e-06)
(0 -0 -7.79856e-06)
(0 -0 -7.78271e-06)
(0 -0 -7.76618e-06)
(0 -0 -7.74882e-06)
(0 -0 -7.73069e-06)
(0 -0 -7.71168e-06)
(0 -0 -7.69177e-06)
(0 -0 -7.67077e-06)
(0 -0 -7.64898e-06)
(0 -0 -7.62641e-06)
(0 -0 -7.60307e-06)
(0 -0 -7.57897e-06)
(0 -0 -7.55393e-06)
(0 -0 -7.52812e-06)
(0 -0 -7.50139e-06)
(0 -0 -7.47345e-06)
(0 -0 -7.4439e-06)
(0 -0 -7.41251e-06)
(0 -0 -7.37895e-06)
(0 -0 -7.34297e-06)
(0 -0 -7.30448e-06)
(0 -0 -7.26351e-06)
(0 -0 -7.2202e-06)
(0 -0 -7.17501e-06)
(0 -0 -7.1283e-06)
(0 -0 -7.08038e-06)
(0 -0 -7.03147e-06)
(0 -0 -6.98187e-06)
(0 -0 -6.93175e-06)
(0 -0 -6.881e-06)
(0 -0 -6.82926e-06)
(0 -0 -6.77613e-06)
(0 -0 -6.72133e-06)
(0 -0 -6.66472e-06)
(0 -0 -6.60577e-06)
(0 -0 -6.5444e-06)
(0 -0 -6.48019e-06)
(0 -0 -6.41305e-06)
(0 -0 -6.34292e-06)
(0 -0 -6.26956e-06)
(0 -0 -6.19294e-06)
(0 -0 -6.11277e-06)
(0 -0 -6.02906e-06)
(0 -0 -5.94138e-06)
(0 -0 -5.84978e-06)
(0 -0 -5.75399e-06)
(0 -0 -5.65408e-06)
(0 -0 -5.55011e-06)
(0 -0 -5.44235e-06)
(0 -0 -5.33096e-06)
(0 -0 -5.21637e-06)
(0 -0 -5.09882e-06)
(0 -0 -4.97876e-06)
(0 -0 -4.85631e-06)
(0 -0 -4.73171e-06)
(0 -0 -4.60499e-06)
(0 -0 -4.47618e-06)
(0 -0 -4.34534e-06)
(0 -0 -4.21241e-06)
(0 -0 -4.07749e-06)
(0 -0 -3.94071e-06)
(0 -0 -3.80234e-06)
(0 -0 -3.66267e-06)
(0 -0 -3.52195e-06)
(0 -0 -3.38051e-06)
(0 -0 -3.2386e-06)
(0 -0 -3.09637e-06)
(0 -0 -2.95399e-06)
(0 -0 -2.81157e-06)
(0 -0 -2.66913e-06)
(0 -0 -2.52677e-06)
(0 -0 -2.38443e-06)
(0 -0 -2.2422e-06)
(0 -0 -2.10008e-06)
(0 -0 -1.95814e-06)
(0 -0 -1.81634e-06)
(0 -0 -1.67478e-06)
(0 -0 -1.53358e-06)
(0 -0 -1.3929e-06)
(0 -0 -1.25301e-06)
(0 -0 -1.11412e-06)
(0 -0 -9.76517e-07)
(0 -0 -8.40433e-07)
(0 -0 -7.06086e-07)
(0 -0 -5.73616e-07)
(0 -0 -4.43031e-07)
(0 -0 -3.1434e-07)
(0 -0 -1.88067e-07)
(0 -0 -6.28266e-08)
(0 -0 4.05146e-07)
(0 -0 6.0477e-07)
(0 -0 1.23106e-07)
(0 -0 -2.16741e-07)
(0 -0 -4.72666e-07)
(0 -0 -6.69947e-07)
(0 -0 -8.28293e-07)
(0 -0 -9.61009e-07)
(0 -0 -1.07637e-06)
(0 -0 -1.17975e-06)
(0 -0 -1.27481e-06)
(0 -0 -1.36408e-06)
(0 -0 -1.44934e-06)
(0 -0 -1.53156e-06)
(0 -0 -1.61146e-06)
(0 -0 -1.68959e-06)
(0 -0 -1.76638e-06)
(0 -0 -1.84229e-06)
(0 -0 -1.9175e-06)
(0 -0 -1.99229e-06)
(0 -0 -2.06693e-06)
(0 -0 -2.14133e-06)
(0 -0 -2.21562e-06)
(0 -0 -2.28996e-06)
(0 -0 -2.36428e-06)
(0 -0 -2.43864e-06)
(0 -0 -2.51303e-06)
(0 -0 -2.58727e-06)
(0 -0 -2.66139e-06)
(0 -0 -2.73541e-06)
(0 -0 -2.80918e-06)
(0 -0 -2.88273e-06)
(0 -0 -2.95605e-06)
(0 -0 -3.02891e-06)
(0 -0 -3.10133e-06)
(0 -0 -3.17348e-06)
(0 -0 -3.24527e-06)
(0 -0 -3.31662e-06)
(0 -0 -3.38776e-06)
(0 -0 -3.4588e-06)
(0 -0 -3.52977e-06)
(0 -0 -3.60087e-06)
(0 -0 -3.67226e-06)
(0 -0 -3.74396e-06)
(0 -0 -3.81613e-06)
(0 -0 -3.88907e-06)
(0 -0 -3.96285e-06)
(0 -0 -4.03743e-06)
(0 -0 -4.11298e-06)
(0 -0 -4.18968e-06)
(0 -0 -4.26749e-06)
(0 -0 -4.3464e-06)
(0 -0 -4.42644e-06)
(0 -0 -4.50748e-06)
(0 -0 -4.58925e-06)
(0 -0 -4.67165e-06)
(0 -0 -4.75471e-06)
(0 -0 -4.83829e-06)
(0 -0 -4.92218e-06)
(0 -0 -5.00629e-06)
(0 -0 -5.09054e-06)
(0 -0 -5.17469e-06)
(0 -0 -5.25852e-06)
(0 -0 -5.3421e-06)
(0 -0 -5.42561e-06)
(0 -0 -5.50901e-06)
(0 -0 -5.59219e-06)
(0 -0 -5.67533e-06)
(0 -0 -5.75867e-06)
(0 -0 -5.84229e-06)
(0 -0 -5.92613e-06)
(0 -0 -6.01041e-06)
(0 -0 -6.09544e-06)
(0 -0 -6.1814e-06)
(0 -0 -6.26825e-06)
(0 -0 -6.35605e-06)
(0 -0 -6.44487e-06)
(0 -0 -6.53469e-06)
(0 -0 -6.62545e-06)
(0 -0 -6.71713e-06)
(0 -0 -6.80968e-06)
(0 -0 -6.90293e-06)
(0 -0 -6.99671e-06)
(0 -0 -7.09095e-06)
(0 -0 -7.18564e-06)
(0 -0 -7.2807e-06)
(0 -0 -7.37602e-06)
(0 -0 -7.47152e-06)
(0 -0 -7.56723e-06)
(0 -0 -7.66319e-06)
(0 -0 -7.75937e-06)
(0 -0 -7.85584e-06)
(0 -0 -7.95283e-06)
(0 -0 -8.05045e-06)
(0 -0 -8.14868e-06)
(0 -0 -8.24743e-06)
(0 -0 -8.34664e-06)
(0 -0 -8.44633e-06)
(0 -0 -8.54644e-06)
(0 -0 -8.64668e-06)
(0 -0 -8.7468e-06)
(0 -0 -8.84662e-06)
(0 -0 -8.94593e-06)
(0 -0 -9.0444e-06)
(0 -0 -9.14172e-06)
(0 -0 -9.23763e-06)
(0 -0 -9.33183e-06)
(0 -0 -9.42399e-06)
(0 -0 -9.51379e-06)
(0 -0 -9.60104e-06)
(0 -0 -9.68557e-06)
(0 -0 -9.76715e-06)
(0 -0 -9.84568e-06)
(0 -0 -9.92105e-06)
(0 -0 -9.99324e-06)
(0 -0 -1.00623e-05)
(0 -0 -1.01282e-05)
(0 -0 -1.01912e-05)
(0 -0 -1.02514e-05)
(0 -0 -1.0309e-05)
(0 -0 -1.03644e-05)
(0 -0 -1.0418e-05)
(0 -0 -1.047e-05)
(0 -0 -1.05208e-05)
(0 -0 -1.05703e-05)
(0 -0 -1.06188e-05)
(0 -0 -1.06663e-05)
(0 -0 -1.07131e-05)
(0 -0 -1.07588e-05)
(0 -0 -1.08031e-05)
(0 -0 -1.08458e-05)
(0 -0 -1.08865e-05)
(0 -0 -1.09248e-05)
(0 -0 -1.09603e-05)
(0 -0 -1.09927e-05)
(0 -0 -1.10216e-05)
(0 -0 -1.1047e-05)
(0 -0 -1.10688e-05)
(0 -0 -1.10871e-05)
(0 -0 -1.11017e-05)
(0 -0 -1.11129e-05)
(0 -0 -1.11209e-05)
(0 -0 -1.1126e-05)
(0 -0 -1.11284e-05)
(0 -0 -1.11284e-05)
(0 -0 -1.1126e-05)
(0 -0 -1.11214e-05)
(0 -0 -1.11148e-05)
(0 -0 -1.11063e-05)
(0 -0 -1.10959e-05)
(0 -0 -1.1084e-05)
(0 -0 -1.10707e-05)
(0 -0 -1.10561e-05)
(0 -0 -1.10407e-05)
(0 -0 -1.10246e-05)
(0 -0 -1.10084e-05)
(0 -0 -1.09921e-05)
(0 -0 -1.09759e-05)
(0 -0 -1.09597e-05)
(0 -0 -1.0944e-05)
(0 -0 -1.09283e-05)
(0 -0 -1.09123e-05)
(0 -0 -1.08961e-05)
(0 -0 -1.08795e-05)
(0 -0 -1.08624e-05)
(0 -0 -1.08445e-05)
(0 -0 -1.08259e-05)
(0 -0 -1.08063e-05)
(0 -0 -1.0786e-05)
(0 -0 -1.07646e-05)
(0 -0 -1.07422e-05)
(0 -0 -1.07187e-05)
(0 -0 -1.06939e-05)
(0 -0 -1.0668e-05)
(0 -0 -1.06407e-05)
(0 -0 -1.0612e-05)
(0 -0 -1.05822e-05)
(0 -0 -1.05513e-05)
(0 -0 -1.05194e-05)
(0 -0 -1.04864e-05)
(0 -0 -1.04521e-05)
(0 -0 -1.04166e-05)
(0 -0 -1.03794e-05)
(0 -0 -1.03401e-05)
(0 -0 -1.02981e-05)
(0 -0 -1.02532e-05)
(0 -0 -1.0205e-05)
(0 -0 -1.01534e-05)
(0 -0 -1.00984e-05)
(0 -0 -1.00402e-05)
(0 -0 -9.97927e-06)
(0 -0 -9.91618e-06)
(0 -0 -9.85142e-06)
(0 -0 -9.78536e-06)
(0 -0 -9.71818e-06)
(0 -0 -9.64998e-06)
(0 -0 -9.58069e-06)
(0 -0 -9.51001e-06)
(0 -0 -9.43724e-06)
(0 -0 -9.36201e-06)
(0 -0 -9.28373e-06)
(0 -0 -9.20221e-06)
(0 -0 -9.11684e-06)
(0 -0 -9.02748e-06)
(0 -0 -8.93372e-06)
(0 -0 -8.83554e-06)
(0 -0 -8.73271e-06)
(0 -0 -8.62523e-06)
(0 -0 -8.51261e-06)
(0 -0 -8.39484e-06)
(0 -0 -8.27153e-06)
(0 -0 -8.14263e-06)
(0 -0 -8.00798e-06)
(0 -0 -7.86763e-06)
(0 -0 -7.72164e-06)
(0 -0 -7.57045e-06)
(0 -0 -7.41445e-06)
(0 -0 -7.25417e-06)
(0 -0 -7.09012e-06)
(0 -0 -6.9228e-06)
(0 -0 -6.75257e-06)
(0 -0 -6.57956e-06)
(0 -0 -6.40387e-06)
(0 -0 -6.22547e-06)
(0 -0 -6.04433e-06)
(0 -0 -5.8604e-06)
(0 -0 -5.67373e-06)
(0 -0 -5.48443e-06)
(0 -0 -5.29273e-06)
(0 -0 -5.099e-06)
(0 -0 -4.90359e-06)
(0 -0 -4.70692e-06)
(0 -0 -4.50935e-06)
(0 -0 -4.31122e-06)
(0 -0 -4.11276e-06)
(0 -0 -3.91421e-06)
(0 -0 -3.71564e-06)
(0 -0 -3.51722e-06)
(0 -0 -3.31894e-06)
(0 -0 -3.1208e-06)
(0 -0 -2.9228e-06)
(0 -0 -2.72495e-06)
(0 -0 -2.52729e-06)
(0 -0 -2.32988e-06)
(0 -0 -2.13287e-06)
(0 -0 -1.93652e-06)
(0 -0 -1.74119e-06)
(0 -0 -1.5473e-06)
(0 -0 -1.35533e-06)
(0 -0 -1.16572e-06)
(0 -0 -9.78793e-07)
(0 -0 -7.94706e-07)
(0 -0 -6.13442e-07)
(0 -0 -4.3495e-07)
(0 -0 -2.59918e-07)
(0 -0 -8.67296e-08)
(0 -0 3.50481e-07)
(0 -0 5.09518e-07)
(0 -0 1.03999e-07)
(0 -0 -2.17844e-07)
(0 -0 -4.85938e-07)
(0 -0 -7.10027e-07)
(0 -0 -9.00607e-07)
(0 -0 -1.06646e-06)
(0 -0 -1.21422e-06)
(0 -0 -1.34855e-06)
(0 -0 -1.47278e-06)
(0 -0 -1.58956e-06)
(0 -0 -1.70072e-06)
(0 -0 -1.80763e-06)
(0 -0 -1.91125e-06)
(0 -0 -2.01224e-06)
(0 -0 -2.11124e-06)
(0 -0 -2.20863e-06)
(0 -0 -2.30479e-06)
(0 -0 -2.40017e-06)
(0 -0 -2.4949e-06)
(0 -0 -2.58912e-06)
(0 -0 -2.68306e-06)
(0 -0 -2.77669e-06)
(0 -0 -2.87011e-06)
(0 -0 -2.96343e-06)
(0 -0 -3.05651e-06)
(0 -0 -3.14932e-06)
(0 -0 -3.24187e-06)
(0 -0 -3.33402e-06)
(0 -0 -3.42577e-06)
(0 -0 -3.5172e-06)
(0 -0 -3.60807e-06)
(0 -0 -3.69829e-06)
(0 -0 -3.78804e-06)
(0 -0 -3.87729e-06)
(0 -0 -3.96591e-06)
(0 -0 -4.05403e-06)
(0 -0 -4.1418e-06)
(0 -0 -4.22929e-06)
(0 -0 -4.31672e-06)
(0 -0 -4.40434e-06)
(0 -0 -4.49218e-06)
(0 -0 -4.58039e-06)
(0 -0 -4.66938e-06)
(0 -0 -4.75938e-06)
(0 -0 -4.85041e-06)
(0 -0 -4.94259e-06)
(0 -0 -5.03613e-06)
(0 -0 -5.13109e-06)
(0 -0 -5.22748e-06)
(0 -0 -5.3254e-06)
(0 -0 -5.42486e-06)
(0 -0 -5.52567e-06)
(0 -0 -5.62763e-06)
(0 -0 -5.73066e-06)
(0 -0 -5.83454e-06)
(0 -0 -5.93899e-06)
(0 -0 -6.04384e-06)
(0 -0 -6.14909e-06)
(0 -0 -6.25457e-06)
(0 -0 -6.35995e-06)
(0 -0 -6.4651e-06)
(0 -0 -6.57002e-06)
(0 -0 -6.67468e-06)
(0 -0 -6.77898e-06)
(0 -0 -6.88304e-06)
(0 -0 -6.9871e-06)
(0 -0 -7.09128e-06)
(0 -0 -7.19564e-06)
(0 -0 -7.30039e-06)
(0 -0 -7.4058e-06)
(0 -0 -7.51205e-06)
(0 -0 -7.6192e-06)
(0 -0 -7.72742e-06)
(0 -0 -7.83699e-06)
(0 -0 -7.94798e-06)
(0 -0 -8.06026e-06)
(0 -0 -8.17378e-06)
(0 -0 -8.28867e-06)
(0 -0 -8.4049e-06)
(0 -0 -8.52221e-06)
(0 -0 -8.64035e-06)
(0 -0 -8.7593e-06)
(0 -0 -8.8791e-06)
(0 -0 -8.99965e-06)
(0 -0 -9.12075e-06)
(0 -0 -9.24236e-06)
(0 -0 -9.36455e-06)
(0 -0 -9.48738e-06)
(0 -0 -9.61076e-06)
(0 -0 -9.73468e-06)
(0 -0 -9.85934e-06)
(0 -0 -9.98497e-06)
(0 -0 -1.01115e-05)
(0 -0 -1.02388e-05)
(0 -0 -1.03668e-05)
(0 -0 -1.04954e-05)
(0 -0 -1.06247e-05)
(0 -0 -1.07542e-05)
(0 -0 -1.08836e-05)
(0 -0 -1.10127e-05)
(0 -0 -1.11412e-05)
(0 -0 -1.12687e-05)
(0 -0 -1.13948e-05)
(0 -0 -1.15191e-05)
(0 -0 -1.16413e-05)
(0 -0 -1.17611e-05)
(0 -0 -1.18781e-05)
(0 -0 -1.19919e-05)
(0 -0 -1.21022e-05)
(0 -0 -1.2209e-05)
(0 -0 -1.2312e-05)
(0 -0 -1.2411e-05)
(0 -0 -1.25061e-05)
(0 -0 -1.25972e-05)
(0 -0 -1.26847e-05)
(0 -0 -1.27685e-05)
(0 -0 -1.28488e-05)
(0 -0 -1.29258e-05)
(0 -0 -1.3e-05)
(0 -0 -1.30719e-05)
(0 -0 -1.31417e-05)
(0 -0 -1.32098e-05)
(0 -0 -1.32764e-05)
(0 -0 -1.33417e-05)
(0 -0 -1.34058e-05)
(0 -0 -1.34687e-05)
(0 -0 -1.35302e-05)
(0 -0 -1.35899e-05)
(0 -0 -1.36475e-05)
(0 -0 -1.37026e-05)
(0 -0 -1.37547e-05)
(0 -0 -1.38034e-05)
(0 -0 -1.3848e-05)
(0 -0 -1.38883e-05)
(0 -0 -1.39241e-05)
(0 -0 -1.39553e-05)
(0 -0 -1.39819e-05)
(0 -0 -1.40039e-05)
(0 -0 -1.40215e-05)
(0 -0 -1.4035e-05)
(0 -0 -1.40448e-05)
(0 -0 -1.40511e-05)
(0 -0 -1.40542e-05)
(0 -0 -1.40544e-05)
(0 -0 -1.40518e-05)
(0 -0 -1.40467e-05)
(0 -0 -1.40391e-05)
(0 -0 -1.40292e-05)
(0 -0 -1.40172e-05)
(0 -0 -1.40034e-05)
(0 -0 -1.3988e-05)
(0 -0 -1.39714e-05)
(0 -0 -1.3954e-05)
(0 -0 -1.39362e-05)
(0 -0 -1.39182e-05)
(0 -0 -1.39002e-05)
(0 -0 -1.38823e-05)
(0 -0 -1.38645e-05)
(0 -0 -1.38468e-05)
(0 -0 -1.38289e-05)
(0 -0 -1.38104e-05)
(0 -0 -1.37914e-05)
(0 -0 -1.37717e-05)
(0 -0 -1.37511e-05)
(0 -0 -1.37295e-05)
(0 -0 -1.37068e-05)
(0 -0 -1.3683e-05)
(0 -0 -1.3658e-05)
(0 -0 -1.36317e-05)
(0 -0 -1.36039e-05)
(0 -0 -1.35745e-05)
(0 -0 -1.35435e-05)
(0 -0 -1.35109e-05)
(0 -0 -1.34766e-05)
(0 -0 -1.34407e-05)
(0 -0 -1.34034e-05)
(0 -0 -1.33646e-05)
(0 -0 -1.33246e-05)
(0 -0 -1.3283e-05)
(0 -0 -1.32397e-05)
(0 -0 -1.31942e-05)
(0 -0 -1.31461e-05)
(0 -0 -1.30947e-05)
(0 -0 -1.30396e-05)
(0 -0 -1.29803e-05)
(0 -0 -1.29167e-05)
(0 -0 -1.28489e-05)
(0 -0 -1.27771e-05)
(0 -0 -1.27018e-05)
(0 -0 -1.26235e-05)
(0 -0 -1.25432e-05)
(0 -0 -1.24611e-05)
(0 -0 -1.23776e-05)
(0 -0 -1.22926e-05)
(0 -0 -1.2206e-05)
(0 -0 -1.21174e-05)
(0 -0 -1.2026e-05)
(0 -0 -1.19315e-05)
(0 -0 -1.18327e-05)
(0 -0 -1.17296e-05)
(0 -0 -1.16214e-05)
(0 -0 -1.15079e-05)
(0 -0 -1.13888e-05)
(0 -0 -1.12639e-05)
(0 -0 -1.11329e-05)
(0 -0 -1.09957e-05)
(0 -0 -1.0852e-05)
(0 -0 -1.07014e-05)
(0 -0 -1.05438e-05)
(0 -0 -1.0379e-05)
(0 -0 -1.02067e-05)
(0 -0 -1.00271e-05)
(0 -0 -9.84031e-06)
(0 -0 -9.64678e-06)
(0 -0 -9.4472e-06)
(0 -0 -9.24214e-06)
(0 -0 -9.03242e-06)
(0 -0 -8.81858e-06)
(0 -0 -8.60115e-06)
(0 -0 -8.38037e-06)
(0 -0 -8.15636e-06)
(0 -0 -7.92902e-06)
(0 -0 -7.69835e-06)
(0 -0 -7.46423e-06)
(0 -0 -7.22671e-06)
(0 -0 -6.98594e-06)
(0 -0 -6.74218e-06)
(0 -0 -6.49582e-06)
(0 -0 -6.24731e-06)
(0 -0 -5.99712e-06)
(0 -0 -5.7457e-06)
(0 -0 -5.49347e-06)
(0 -0 -5.24073e-06)
(0 -0 -4.98778e-06)
(0 -0 -4.73477e-06)
(0 -0 -4.48179e-06)
(0 -0 -4.22898e-06)
(0 -0 -3.97627e-06)
(0 -0 -3.72367e-06)
(0 -0 -3.4712e-06)
(0 -0 -3.21891e-06)
(0 -0 -2.96693e-06)
(0 -0 -2.71547e-06)
(0 -0 -2.46488e-06)
(0 -0 -2.21561e-06)
(0 -0 -1.96825e-06)
(0 -0 -1.72342e-06)
(0 -0 -1.48173e-06)
(0 -0 -1.24365e-06)
(0 -0 -1.00938e-06)
(0 -0 -7.78849e-07)
(0 -0 -5.51971e-07)
(0 -0 -3.29551e-07)
(0 -0 -1.09853e-07)
(0 -0 2.86973e-07)
(0 -0 3.93472e-07)
(0 -0 2.9255e-08)
(0 -0 -2.76407e-07)
(0 -0 -5.45583e-07)
(0 -0 -7.82217e-07)
(0 -0 -9.91578e-07)
(0 -0 -1.17923e-06)
(0 -0 -1.35003e-06)
(0 -0 -1.50768e-06)
(0 -0 -1.65506e-06)
(0 -0 -1.79433e-06)
(0 -0 -1.92723e-06)
(0 -0 -2.05518e-06)
(0 -0 -2.17921e-06)
(0 -0 -2.30016e-06)
(0 -0 -2.41856e-06)
(0 -0 -2.53489e-06)
(0 -0 -2.64969e-06)
(0 -0 -2.76321e-06)
(0 -0 -2.87569e-06)
(0 -0 -2.98747e-06)
(0 -0 -3.09862e-06)
(0 -0 -3.20924e-06)
(0 -0 -3.31945e-06)
(0 -0 -3.4292e-06)
(0 -0 -3.53848e-06)
(0 -0 -3.64736e-06)
(0 -0 -3.75568e-06)
(0 -0 -3.86341e-06)
(0 -0 -3.97062e-06)
(0 -0 -4.07712e-06)
(0 -0 -4.18275e-06)
(0 -0 -4.28764e-06)
(0 -0 -4.39179e-06)
(0 -0 -4.49509e-06)
(0 -0 -4.59762e-06)
(0 -0 -4.69953e-06)
(0 -0 -4.80086e-06)
(0 -0 -4.90183e-06)
(0 -0 -5.00275e-06)
(0 -0 -5.10373e-06)
(0 -0 -5.20492e-06)
(0 -0 -5.30669e-06)
(0 -0 -5.40941e-06)
(0 -0 -5.51324e-06)
(0 -0 -5.61838e-06)
(0 -0 -5.72513e-06)
(0 -0 -5.83365e-06)
(0 -0 -5.94396e-06)
(0 -0 -6.0562e-06)
(0 -0 -6.17043e-06)
(0 -0 -6.2865e-06)
(0 -0 -6.40426e-06)
(0 -0 -6.52368e-06)
(0 -0 -6.64462e-06)
(0 -0 -6.76673e-06)
(0 -0 -6.88968e-06)
(0 -0 -7.01333e-06)
(0 -0 -7.13747e-06)
(0 -0 -7.26178e-06)
(0 -0 -7.38603e-06)
(0 -0 -7.51022e-06)
(0 -0 -7.6342e-06)
(0 -0 -7.75776e-06)
(0 -0 -7.88086e-06)
(0 -0 -8.00375e-06)
(0 -0 -8.12659e-06)
(0 -0 -8.24935e-06)
(0 -0 -8.37219e-06)
(0 -0 -8.49551e-06)
(0 -0 -8.61965e-06)
(0 -0 -8.74469e-06)
(0 -0 -8.87077e-06)
(0 -0 -8.99818e-06)
(0 -0 -9.12721e-06)
(0 -0 -9.25794e-06)
(0 -0 -9.39034e-06)
(0 -0 -9.52444e-06)
(0 -0 -9.66033e-06)
(0 -0 -9.798e-06)
(0 -0 -9.93725e-06)
(0 -0 -1.00779e-05)
(0 -0 -1.022e-05)
(0 -0 -1.03634e-05)
(0 -0 -1.05079e-05)
(0 -0 -1.06536e-05)
(0 -0 -1.08002e-05)
(0 -0 -1.09479e-05)
(0 -0 -1.10966e-05)
(0 -0 -1.12464e-05)
(0 -0 -1.13973e-05)
(0 -0 -1.15493e-05)
(0 -0 -1.17025e-05)
(0 -0 -1.1857e-05)
(0 -0 -1.20125e-05)
(0 -0 -1.2169e-05)
(0 -0 -1.23264e-05)
(0 -0 -1.24846e-05)
(0 -0 -1.26431e-05)
(0 -0 -1.28018e-05)
(0 -0 -1.296e-05)
(0 -0 -1.31176e-05)
(0 -0 -1.32741e-05)
(0 -0 -1.34291e-05)
(0 -0 -1.3582e-05)
(0 -0 -1.37323e-05)
(0 -0 -1.38799e-05)
(0 -0 -1.40244e-05)
(0 -0 -1.41651e-05)
(0 -0 -1.43019e-05)
(0 -0 -1.44345e-05)
(0 -0 -1.45628e-05)
(0 -0 -1.46865e-05)
(0 -0 -1.48056e-05)
(0 -0 -1.49201e-05)
(0 -0 -1.50301e-05)
(0 -0 -1.51358e-05)
(0 -0 -1.52374e-05)
(0 -0 -1.53354e-05)
(0 -0 -1.54299e-05)
(0 -0 -1.55216e-05)
(0 -0 -1.56106e-05)
(0 -0 -1.56975e-05)
(0 -0 -1.57826e-05)
(0 -0 -1.5866e-05)
(0 -0 -1.59481e-05)
(0 -0 -1.60285e-05)
(0 -0 -1.61071e-05)
(0 -0 -1.61836e-05)
(0 -0 -1.62577e-05)
(0 -0 -1.63286e-05)
(0 -0 -1.63959e-05)
(0 -0 -1.6459e-05)
(0 -0 -1.65175e-05)
(0 -0 -1.65708e-05)
(0 -0 -1.66187e-05)
(0 -0 -1.66609e-05)
(0 -0 -1.66974e-05)
(0 -0 -1.67285e-05)
(0 -0 -1.67543e-05)
(0 -0 -1.67752e-05)
(0 -0 -1.67914e-05)
(0 -0 -1.68035e-05)
(0 -0 -1.68117e-05)
(0 -0 -1.68162e-05)
(0 -0 -1.68174e-05)
(0 -0 -1.68155e-05)
(0 -0 -1.68108e-05)
(0 -0 -1.68032e-05)
(0 -0 -1.6793e-05)
(0 -0 -1.67806e-05)
(0 -0 -1.67664e-05)
(0 -0 -1.67506e-05)
(0 -0 -1.67335e-05)
(0 -0 -1.67158e-05)
(0 -0 -1.66976e-05)
(0 -0 -1.66794e-05)
(0 -0 -1.66612e-05)
(0 -0 -1.66429e-05)
(0 -0 -1.66244e-05)
(0 -0 -1.66057e-05)
(0 -0 -1.65864e-05)
(0 -0 -1.65663e-05)
(0 -0 -1.65451e-05)
(0 -0 -1.6523e-05)
(0 -0 -1.64995e-05)
(0 -0 -1.64749e-05)
(0 -0 -1.64488e-05)
(0 -0 -1.64214e-05)
(0 -0 -1.63925e-05)
(0 -0 -1.63618e-05)
(0 -0 -1.63291e-05)
(0 -0 -1.62944e-05)
(0 -0 -1.62577e-05)
(0 -0 -1.6219e-05)
(0 -0 -1.61783e-05)
(0 -0 -1.61358e-05)
(0 -0 -1.60916e-05)
(0 -0 -1.60457e-05)
(0 -0 -1.59979e-05)
(0 -0 -1.5948e-05)
(0 -0 -1.58956e-05)
(0 -0 -1.58399e-05)
(0 -0 -1.57804e-05)