/*--------------------------------*- C++ -*----------------------------------*\
| =========                 |                                                 |
| \\      /  F ield         | OpenFOAM: The Open Source CFD Toolbox           |
|  \\    /   O peration     | Version:  v2012                                 |
|   \\  /    A nd           | Website:  www.openfoam.com                      |
|    \\/     M anipulation  |                                                 |
\*---------------------------------------------------------------------------*/
FoamFile
{
    version     2.0;
    format      ascii;
    class       volScalarField;
    location    "15.5";
    object      Psi_z;
}
// * * * * * * * * * * * * * * * * * * * * * * * * * * * * * * * * * * * * * //

dimensions      [0 2 -1 0 0 0 0];


internalField   nonuniform List<scalar> 
65536
(
8.43675e-06
2.53108e-05
4.21865e-05
5.90648e-05
7.59468e-05
9.28336e-05
0.000109726
0.000126625
0.000143532
0.000160448
0.000177374
0.00019431
0.000211258
0.000228218
0.000245192
0.000262179
0.000279182
0.0002962
0.000313235
0.000330287
0.000347357
0.000364445
0.000381552
0.000398678
0.000415823
0.000432989
0.000450175
0.000467382
0.000484609
0.000501857
0.000519126
0.000536415
0.000553725
0.000571055
0.000588405
0.000605774
0.000623162
0.000640568
0.000657991
0.000675431
0.000692887
0.000710356
0.000727839
0.000745334
0.000762839
0.000780352
0.000797873
0.000815398
0.000832926
0.000850454
0.000867981
0.000885504
0.000903019
0.000920524
0.000938017
0.000955493
0.00097295
0.000990383
0.00100779
0.00102517
0.00104251
0.00105981
0.00107707
0.00109428
0.00111143
0.00112853
0.00114556
0.00116253
0.00117942
0.00119622
0.00121295
0.00122958
0.00124611
0.00126253
0.00127884
0.00129503
0.0013111
0.00132703
0.00134282
0.00135846
0.00137394
0.00138926
0.00140441
0.00141938
0.00143416
0.00144874
0.00146311
0.00147727
0.00149121
0.00150492
0.00151839
0.00153162
0.00154458
0.00155728
0.00156971
0.00158185
0.00159371
0.00160526
0.00161651
0.00162744
0.00163805
0.00164833
0.00165827
0.00166786
0.0016771
0.00168598
0.00169449
0.00170262
0.00171037
0.00171774
0.00172471
0.00173129
0.00173745
0.00174322
0.00174856
0.00175349
0.001758
0.00176208
0.00176573
0.00176896
0.00177175
0.0017741
0.00177602
0.00177749
0.00177853
0.00177913
0.00177929
0.00177902
0.0017783
0.00177715
0.00177556
0.00177354
0.00177109
0.00176822
0.00176491
0.00176119
0.00175705
0.0017525
0.00174754
0.00174218
0.00173642
0.00173026
0.00172372
0.0017168
0.00170951
0.00170185
0.00169382
0.00168544
0.00167671
0.00166765
0.00165825
0.00164852
0.00163848
0.00162813
0.00161747
0.00160652
0.00159529
0.00158378
0.00157199
0.00155994
0.00154764
0.0015351
0.00152231
0.0015093
0.00149606
0.00148261
0.00146895
0.00145509
0.00144104
0.00142681
0.0014124
0.00139782
0.00138308
0.00136819
0.00135315
0.00133797
0.00132265
0.00130721
0.00129164
0.00127596
0.00126017
0.00124428
0.0012283
0.00121222
0.00119605
0.00117981
0.00116349
0.0011471
0.00113065
0.00111413
0.00109756
0.00108094
0.00106427
0.00104755
0.0010308
0.00101401
0.000997187
0.000980336
0.00096346
0.000946561
0.000929642
0.000912707
0.000895758
0.000878797
0.000861828
0.000844851
0.00082787
0.000810886
0.000793902
0.000776919
0.000759938
0.000742962
0.000725992
0.000709028
0.000692073
0.000675128
0.000658192
0.000641269
0.000624357
0.000607458
0.000590573
0.000573702
0.000556845
0.000540004
0.000523178
0.000506367
0.000489572
0.000472793
0.00045603
0.000439283
0.000422552
0.000405837
0.000389136
0.000372452
0.000355782
0.000339127
0.000322486
0.000305858
0.000289245
0.000272644
0.000256055
0.000239478
0.000222912
0.000206357
0.000189811
0.000173274
0.000156746
0.000140226
0.000123712
0.000107205
9.07025e-05
7.42049e-05
5.77111e-05
4.12201e-05
2.47312e-05
8.24361e-06
2.53098e-05
7.59311e-05
0.000126557
0.000177191
0.000227836
0.000278495
0.000329172
0.000379869
0.000430589
0.000481335
0.000532111
0.000582919
0.000633761
0.000684641
0.000735561
0.000786524
0.000837531
0.000888586
0.00093969
0.000990845
0.00104205
0.00109332
0.00114464
0.00119601
0.00124745
0.00129895
0.00135051
0.00140213
0.00145381
0.00150555
0.00155736
0.00160923
0.00166116
0.00171315
0.0017652
0.0018173
0.00186947
0.00192169
0.00197396
0.00202628
0.00207865
0.00213106
0.00218351
0.00223599
0.00228851
0.00234105
0.00239362
0.00244619
0.00249878
0.00255137
0.00260395
0.00265652
0.00270907
0.00276159
0.00281407
0.0028665
0.00291888
0.00297118
0.0030234
0.00307554
0.00312756
0.00317947
0.00323125
0.00328288
0.00333435
0.00338565
0.00343676
0.00348766
0.00353833
0.00358876
0.00363894
0.00368883
0.00373843
0.00378771
0.00383665
0.00388523
0.00393343
0.00398123
0.00402861
0.00407554
0.004122
0.00416797
0.00421342
0.00425832
0.00430267
0.00434642
0.00438955
0.00443205
0.00447388
0.00451501
0.00455543
0.0045951
0.00463401
0.00467212
0.00470941
0.00474585
0.00478142
0.00481609
0.00484985
0.00488265
0.00491449
0.00494533
0.00497515
0.00500394
0.00503166
0.0050583
0.00508383
0.00510824
0.00513151
0.00515361
0.00517453
0.00519426
0.00521277
0.00523006
0.0052461
0.0052609
0.00527442
0.00528667
0.00529763
0.0053073
0.00531567
0.00532273
0.00532848
0.00533292
0.00533604
0.00533784
0.00533832
0.00533749
0.00533534
0.00533188
0.00532712
0.00532106
0.0053137
0.00530507
0.00529516
0.00528399
0.00527157
0.00525791
0.00524302
0.00522693
0.00520964
0.00519118
0.00517155
0.00515078
0.00512889
0.0051059
0.00508181
0.00505667
0.00503048
0.00500328
0.00497507
0.00494589
0.00491575
0.00488469
0.00485271
0.00481986
0.00478614
0.00475159
0.00471623
0.00468009
0.00464318
0.00460553
0.00456716
0.00452811
0.00448839
0.00444802
0.00440704
0.00436546
0.00432331
0.0042806
0.00423737
0.00419363
0.0041494
0.00410471
0.00405958
0.00401403
0.00396807
0.00392174
0.00387504
0.00382799
0.00378062
0.00373295
0.00368498
0.00363674
0.00358824
0.0035395
0.00349054
0.00344137
0.003392
0.00334245
0.00329273
0.00324286
0.00319284
0.00314269
0.00309243
0.00304206
0.00299159
0.00294103
0.0028904
0.0028397
0.00278894
0.00273813
0.00268728
0.0026364
0.00258549
0.00253456
0.00248361
0.00243266
0.0023817
0.00233075
0.00227981
0.00222888
0.00217797
0.00212708
0.00207621
0.00202537
0.00197456
0.00192379
0.00187306
0.00182236
0.0017717
0.00172109
0.00167052
0.00161999
0.00156952
0.00151908
0.0014687
0.00141836
0.00136807
0.00131783
0.00126764
0.00121749
0.00116739
0.00111734
0.00106733
0.00101736
0.000967442
0.000917561
0.00086772
0.000817918
0.000768152
0.000718422
0.000668725
0.000619059
0.000569423
0.000519814
0.000470231
0.00042067
0.00037113
0.000321608
0.000272103
0.000222611
0.00017313
0.000123658
7.41924e-05
2.47304e-05
4.21813e-05
0.000126547
0.00021092
0.000295306
0.000379711
0.00046414
0.000548597
0.000633089
0.000717619
0.000802193
0.000886816
0.000971493
0.00105623
0.00114102
0.00122589
0.00131082
0.00139583
0.00148092
0.00156609
0.00165135
0.0017367
0.00182213
0.00190766
0.00199329
0.00207902
0.00216485
0.00225078
0.00233681
0.00242294
0.00250918
0.00259553
0.00268198
0.00276853
0.00285518
0.00294193
0.00302878
0.00311572
0.00320276
0.00328988
0.00337708
0.00346437
0.00355172
0.00363914
0.00372662
0.00381416
0.00390173
0.00398934
0.00407698
0.00416463
0.00425229
0.00433993
0.00442756
0.00451515
0.00460269
0.00469017
0.00477757
0.00486487
0.00495206
0.00503911
0.00512601
0.00521274
0.00529927
0.00538558
0.00547165
0.00555745
0.00564297
0.00572816
0.00581301
0.00589749
0.00598156
0.00606521
0.00614838
0.00623107
0.00631322
0.00639481
0.00647581
0.00655617
0.00663586
0.00671485
0.00679309
0.00687055
0.00694719
0.00702296
0.00709784
0.00717177
0.00724472
0.00731664
0.00738749
0.00745723
0.00752582
0.00759321
0.00765936
0.00772423
0.00778778
0.00784995
0.00791072
0.00797003
0.00802785
0.00808413
0.00813883
0.00819192
0.00824335
0.00829308
0.00834108
0.00838731
0.00843173
0.00847431
0.00851501
0.00855381
0.00859066
0.00862555
0.00865845
0.00868932
0.00871815
0.0087449
0.00876957
0.00879212
0.00881254
0.00883083
0.00884695
0.0088609
0.00887268
0.00888227
0.00888966
0.00889486
0.00889786
0.00889866
0.00889727
0.00889369
0.00888792
0.00887997
0.00886986
0.0088576
0.0088432
0.00882667
0.00880804
0.00878732
0.00876454
0.00873972
0.00871288
0.00868405
0.00865325
0.00862052
0.00858589
0.00854938
0.00851103
0.00847087
0.00842894
0.00838527
0.0083399
0.00829287
0.0082442
0.00819395
0.00814215
0.00808884
0.00803405
0.00797783
0.00792022
0.00786126
0.00780099
0.00773945
0.00767667
0.00761271
0.00754759
0.00748136
0.00741406
0.00734573
0.0072764
0.00720612
0.00713492
0.00706284
0.00698991
0.00691618
0.00684168
0.00676644
0.00669049
0.00661388
0.00653663
0.00645878
0.00638035
0.00630138
0.0062219
0.00614194
0.00606152
0.00598067
0.00589942
0.0058178
0.00573583
0.00565353
0.00557093
0.00548806
0.00540492
0.00532155
0.00523796
0.00515417
0.0050702
0.00498608
0.0049018
0.00481741
0.0047329
0.00464829
0.0045636
0.00447884
0.00439403
0.00430917
0.00422427
0.00413936
0.00405443
0.0039695
0.00388458
0.00379967
0.00371478
0.00362992
0.0035451
0.00346032
0.00337558
0.0032909
0.00320628
0.00312172
0.00303722
0.00295279
0.00286843
0.00278415
0.00269994
0.00261581
0.00253175
0.00244778
0.00236389
0.00228007
0.00219634
0.00211268
0.0020291
0.0019456
0.00186218
0.00177883
0.00169556
0.00161236
0.00152922
0.00144616
0.00136315
0.00128021
0.00119733
0.00111451
0.00103173
0.000949008
0.000866329
0.000783692
0.000701093
0.000618529
0.000535996
0.000453489
0.000371006
0.000288541
0.00020609
0.00012365
4.12159e-05
5.90501e-05
0.000177154
0.000295269
0.000413403
0.000531562
0.000649755
0.000767988
0.000886269
0.00100461
0.001123
0.00124147
0.00136001
0.00147863
0.00159734
0.00171614
0.00183505
0.00195406
0.00207318
0.00219241
0.00231177
0.00243125
0.00255085
0.00267059
0.00279047
0.00291049
0.00303064
0.00315094
0.00327139
0.00339198
0.00351271
0.00363359
0.00375462
0.00387579
0.00399711
0.00411856
0.00424016
0.00436188
0.00448374
0.00460571
0.00472781
0.00485001
0.00497232
0.00509472
0.0052172
0.00533976
0.00546238
0.00558505
0.00570775
0.00583048
0.00595321
0.00607594
0.00619863
0.00632128
0.00644386
0.00656635
0.00668873
0.00681098
0.00693307
0.00705497
0.00717666
0.0072981
0.00741928
0.00754015
0.00766068
0.00778084
0.0079006
0.00801991
0.00813874
0.00825705
0.0083748
0.00849194
0.00860843
0.00872423
0.0088393
0.00895357
0.00906701
0.00917957
0.00929119
0.00940183
0.00951142
0.00961992
0.00972727
0.00983341
0.00993829
0.0100419
0.010144
0.0102448
0.010344
0.0104417
0.0105378
0.0106322
0.0107249
0.0108158
0.0109048
0.0109919
0.011077
0.0111601
0.0112411
0.01132
0.0113966
0.011471
0.0115431
0.0116127
0.01168
0.0117448
0.011807
0.0118667
0.0119237
0.011978
0.0120297
0.0120786
0.0121247
0.0121679
0.0122083
0.0122458
0.0122803
0.0123119
0.0123406
0.0123662
0.0123888
0.0124083
0.0124248
0.0124382
0.0124486
0.0124559
0.0124601
0.0124612
0.0124592
0.0124542
0.0124461
0.012435
0.0124208
0.0124036
0.0123834
0.0123603
0.0123342
0.0123051
0.0122732
0.0122384
0.0122008
0.0121604
0.0121173
0.0120714
0.0120229
0.0119717
0.011918
0.0118617
0.011803
0.0117418
0.0116782
0.0116123
0.0115441
0.0114737
0.0114011
0.0113264
0.0112497
0.0111709
0.0110902
0.0110076
0.0109232
0.0108369
0.010749
0.0106594
0.0105682
0.0104754
0.0103811
0.0102854
0.0101883
0.0100899
0.00999012
0.00988916
0.00978701
0.00968374
0.00957938
0.00947399
0.00936763
0.00926032
0.00915213
0.00904309
0.00893325
0.00882265
0.00871134
0.00859935
0.00848672
0.0083735
0.00825972
0.00814541
0.00803062
0.00791537
0.0077997
0.00768364
0.00756722
0.00745047
0.00733341
0.00721609
0.00709851
0.00698071
0.00686271
0.00674453
0.00662619
0.00650772
0.00638914
0.00627046
0.0061517
0.00603288
0.00591402
0.00579512
0.00567621
0.00555729
0.00543839
0.0053195
0.00520065
0.00508184
0.00496308
0.00484438
0.00472574
0.00460718
0.0044887
0.00437031
0.00425201
0.00413381
0.0040157
0.0038977
0.00377981
0.00366202
0.00354435
0.00342678
0.00330933
0.00319199
0.00307476
0.00295764
0.00284064
0.00272374
0.00260695
0.00249026
0.00237368
0.0022572
0.00214082
0.00202453
0.00190833
0.00179222
0.00167619
0.00156024
0.00144436
0.00132855
0.0012128
0.00109712
0.000981482
0.000865898
0.000750357
0.000634853
0.000519382
0.000403936
0.000288511
0.000173101
5.76994e-05
7.59151e-05
0.00022775
0.0003796
0.000531473
0.00068338
0.00083533
0.000987332
0.0011394
0.00129153
0.00144374
0.00159604
0.00174844
0.00190095
0.00205356
0.0022063
0.00235917
0.00251217
0.00266531
0.00281861
0.00297206
0.00312567
0.00327944
0.00343339
0.00358751
0.00374181
0.0038963
0.00405096
0.00420582
0.00436086
0.00451609
0.00467152
0.00482712
0.00498292
0.0051389
0.00529506
0.0054514
0.00560791
0.00576459
0.00592143
0.00607842
0.00623555
0.00639282
0.0065502
0.0067077
0.00686529
0.00702297
0.00718071
0.0073385
0.00749632
0.00765415
0.00781197
0.00796975
0.00812747
0.00828511
0.00844264
0.00860003
0.00875725
0.00891426
0.00907104
0.00922755
0.00938374
0.00953959
0.00969505
0.00985008
0.0100046
0.0101587
0.0103121
0.010465
0.0106172
0.0107686
0.0109193
0.0110692
0.0112181
0.0113662
0.0115132
0.0116591
0.0118039
0.0119475
0.0120898
0.0122308
0.0123704
0.0125086
0.0126451
0.0127801
0.0129133
0.0130448
0.0131744
0.0133021
0.0134279
0.0135515
0.013673
0.0137922
0.0139092
0.0140237
0.0141358
0.0142454
0.0143523
0.0144566
0.0145581
0.0146567
0.0147524
0.0148452
0.0149348
0.0150214
0.0151047
0.0151848
0.0152616
0.015335
0.015405
0.0154715
0.0155344
0.0155937
0.0156494
0.0157014
0.0157496
0.0157941
0.0158348
0.0158716
0.0159046
0.0159336
0.0159588
0.01598
0.0159973
0.0160106
0.01602
0.0160254
0.0160268
0.0160243
0.0160178
0.0160074
0.0159931
0.0159748
0.0159527
0.0159267
0.0158969
0.0158632
0.0158259
0.0157848
0.01574
0.0156915
0.0156395
0.015584
0.0155249
0.0154625
0.0153966
0.0153274
0.015255
0.0151794
0.0151006
0.0150188
0.014934
0.0148462
0.0147556
0.0146622
0.0145661
0.0144673
0.0143659
0.0142621
0.0141558
0.0140471
0.0139362
0.013823
0.0137077
0.0135903
0.013471
0.0133497
0.0132265
0.0131015
0.0129749
0.0128466
0.0127167
0.0125852
0.0124524
0.0123181
0.0121825
0.0120457
0.0119077
0.0117685
0.0116282
0.0114869
0.0113446
0.0112014
0.0110574
0.0109125
0.0107669
0.0106205
0.0104735
0.0103259
0.0101776
0.0100289
0.00987958
0.00972985
0.00957969
0.00942915
0.00927825
0.00912704
0.00897554
0.00882378
0.0086718
0.00851962
0.00836727
0.00821477
0.00806216
0.00790944
0.00775664
0.00760379
0.0074509
0.00729799
0.00714508
0.00699218
0.00683931
0.00668648
0.0065337
0.006381
0.00622837
0.00607583
0.00592338
0.00577104
0.00561882
0.00546671
0.00531473
0.00516287
0.00501115
0.00485957
0.00470813
0.00455683
0.00440567
0.00425466
0.00410379
0.00395307
0.00380249
0.00365206
0.00350177
0.00335161
0.00320159
0.00305171
0.00290195
0.00275232
0.00260281
0.00245342
0.00230414
0.00215496
0.00200589
0.00185691
0.00170802
0.00155922
0.00141048
0.00126182
0.00111322
0.000964681
0.000816186
0.000667732
0.000519312
0.000370918
0.000222543
7.41799e-05
9.27754e-05
0.000278332
0.000463907
0.00064951
0.000835155
0.00102085
0.00120661
0.00139245
0.00157837
0.0017644
0.00195052
0.00213677
0.00232315
0.00250966
0.00269633
0.00288315
0.00307014
0.0032573
0.00344465
0.00363219
0.00381992
0.00400786
0.00419601
0.00438437
0.00457295
0.00476176
0.0049508
0.00514006
0.00532956
0.00551929
0.00570925
0.00589944
0.00608986
0.00628051
0.00647138
0.00666247
0.00685378
0.00704529
0.00723699
0.00742889
0.00762096
0.0078132
0.00800558
0.00819811
0.00839075
0.0085835
0.00877633
0.00896922
0.00916215
0.00935509
0.00954803
0.00974092
0.00993375
0.0101265
0.0103191
0.0105115
0.0107037
0.0108957
0.0110874
0.0112787
0.0114697
0.0116603
0.0118504
0.01204
0.012229
0.0124173
0.012605
0.0127919
0.012978
0.0131632
0.0133475
0.0135308
0.013713
0.013894
0.0140738
0.0142523
0.0144294
0.0146051
0.0147792
0.0149517
0.0151224
0.0152914
0.0154584
0.0156235
0.0157865
0.0159474
0.016106
0.0162622
0.0164161
0.0165673
0.016716
0.0168619
0.017005
0.0171452
0.0172823
0.0174164
0.0175472
0.0176748
0.017799
0.0179197
0.0180368
0.0181503
0.01826
0.018366
0.018468
0.018566
0.01866
0.0187498
0.0188354
0.0189168
0.0189938
0.0190664
0.0191345
0.0191981
0.0192572
0.0193116
0.0193614
0.0194065
0.0194468
0.0194824
0.0195132
0.0195392
0.0195603
0.0195766
0.0195881
0.0195946
0.0195964
0.0195933
0.0195853
0.0195726
0.019555
0.0195327
0.0195056
0.0194737
0.0194372
0.0193961
0.0193503
0.0193
0.0192451
0.0191859
0.0191222
0.0190542
0.0189819
0.0189055
0.0188248
0.0187402
0.0186515
0.018559
0.0184626
0.0183624
0.0182586
0.0181512
0.0180403
0.017926
0.0178084
0.0176875
0.0175635
0.0174364
0.0173063
0.0171734
0.0170376
0.0168992
0.0167581
0.0166145
0.0164684
0.01632
0.0161694
0.0160165
0.0158615
0.0157046
0.0155457
0.0153849
0.0152224
0.0150582
0.0148923
0.014725
0.0145561
0.0143859
0.0142143
0.0140415
0.0138675
0.0136924
0.0135163
0.0133391
0.013161
0.012982
0.0128022
0.0126217
0.0124404
0.0122585
0.012076
0.0118929
0.0117093
0.0115252
0.0113407
0.0111559
0.0109706
0.0107851
0.0105993
0.0104132
0.010227
0.0100405
0.00985395
0.00966725
0.00948046
0.0092936
0.0091067
0.00891977
0.00873285
0.00854594
0.00835907
0.00817225
0.00798551
0.00779884
0.00761228
0.00742582
0.00723948
0.00705327
0.0068672
0.00668128
0.00649551
0.00630991
0.00612446
0.00593919
0.00575409
0.00556916
0.00538441
0.00519984
0.00501545
0.00483124
0.0046472
0.00446334
0.00427965
0.00409614
0.00391279
0.0037296
0.00354658
0.0033637
0.00318098
0.0029984
0.00281595
0.00263364
0.00245145
0.00226938
0.00208742
0.00190555
0.00172378
0.0015421
0.00136049
0.00117896
0.000997476
0.000816048
0.000634661
0.000453306
0.000271974
9.06566e-05
0.00010963
0.000328896
0.000548184
0.000767506
0.000986877
0.00120631
0.00142582
0.00164542
0.00186512
0.00208494
0.00230488
0.00252497
0.00274521
0.00296562
0.0031862
0.00340697
0.00362793
0.00384911
0.0040705
0.00429212
0.00451397
0.00473607
0.00495841
0.00518101
0.00540387
0.005627
0.0058504
0.00607407
0.00629802
0.00652224
0.00674675
0.00697152
0.00719657
0.0074219
0.00764748
0.00787333
0.00809944
0.00832579
0.00855237
0.00877918
0.0090062
0.00923342
0.00946082
0.00968839
0.0099161
0.0101439
0.0103719
0.0105999
0.010828
0.0110561
0.0112841
0.0115122
0.0117401
0.011968
0.0121957
0.0124232
0.0126504
0.0128774
0.0131041
0.0133303
0.0135561
0.0137815
0.0140062
0.0142304
0.0144539
0.0146766
0.0148986
0.0151196
0.0153397
0.0155588
0.0157767
0.0159935
0.016209
0.0164231
0.0166358
0.0168469
0.0170565
0.0172642
0.0174702
0.0176742
0.0178762
0.0180761
0.0182738
0.0184691
0.0186619
0.0188523
0.0190399
0.0192248
0.0194068
0.0195858
0.0197617
0.0199343
0.0201037
0.0202696
0.0204319
0.0205905
0.0207454
0.0208964
0.0210434
0.0211862
0.0213249
0.0214592
0.0215891
0.0217145
0.0218352
0.0219512
0.0220625
0.0221688
0.0222702
0.0223665
0.0224576
0.0225435
0.0226242
0.0226995
0.0227694
0.0228338
0.0228928
0.0229461
0.0229938
0.023036
0.0230724
0.0231031
0.0231281
0.0231474
0.023161
0.0231688
0.0231708
0.0231671
0.0231577
0.0231426
0.0231218
0.0230953
0.0230632
0.0230255
0.0229822
0.0229335
0.0228793
0.0228197
0.0227548
0.0226846
0.0226092
0.0225287
0.0224431
0.0223526
0.0222571
0.0221569
0.022052
0.0219424
0.0218283
0.0217097
0.0215869
0.0214597
0.0213285
0.0211932
0.0210539
0.0209109
0.0207641
0.0206137
0.0204597
0.0203024
0.0201418
0.0199779
0.019811
0.0196411
0.0194683
0.0192927
0.0191144
0.0189336
0.0187502
0.0185645
0.0183765
0.0181864
0.0179941
0.0177999
0.0176037
0.0174057
0.017206
0.0170046
0.0168017
0.0165974
0.0163916
0.0161845
0.0159761
0.0157666
0.015556
0.0153443
0.0151317
0.0149182
0.0147039
0.0144888
0.014273
0.0140565
0.0138394
0.0136217
0.0134036
0.013185
0.012966
0.0127467
0.012527
0.012307
0.0120868
0.0118664
0.0116459
0.0114252
0.0112043
0.0109835
0.0107625
0.0105416
0.0103206
0.0100997
0.00987878
0.00965796
0.00943722
0.00921659
0.00899607
0.00877569
0.00855545
0.00833536
0.00811544
0.0078957
0.00767614
0.00745678
0.00723761
0.00701864
0.00679988
0.00658132
0.00636298
0.00614485
0.00592693
0.00570923
0.00549174
0.00527445
0.00505737
0.0048405
0.00462382
0.00440734
0.00419104
0.00397494
0.003759
0.00354324
0.00332764
0.00311219
0.0028969
0.00268174
0.00246671
0.0022518
0.002037
0.0018223
0.0016077
0.00139317
0.00117872
0.000964323
0.000749977
0.000535671
0.000321392
0.000107129
0.000126477
0.00037944
0.000632426
0.000885454
0.00113854
0.00139169
0.00164494
0.00189829
0.00215175
0.00240535
0.0026591
0.00291302
0.00316711
0.00342139
0.00367588
0.00393058
0.00418552
0.00444069
0.00469612
0.00495181
0.00520778
0.00546402
0.00572056
0.00597739
0.00623453
0.00649197
0.00674973
0.00700781
0.00726621
0.00752493
0.00778397
0.00804333
0.00830302
0.00856301
0.00882332
0.00908394
0.00934485
0.00960605
0.00986752
0.0101293
0.0103912
0.0106535
0.0109159
0.0111785
0.0114413
0.0117043
0.0119674
0.0122305
0.0124938
0.012757
0.0130203
0.0132835
0.0135466
0.0138096
0.0140725
0.0143351
0.0145974
0.0148595
0.0151211
0.0153823
0.015643
0.0159032
0.0161627
0.0164215
0.0166796
0.0169368
0.0171931
0.0174483
0.0177025
0.0179555
0.0182072
0.0184575
0.0187064
0.0189537
0.0191993
0.0194432
0.0196852
0.0199252
0.0201631
0.0203988
0.0206321
0.0208631
0.0210914
0.0213171
0.0215399
0.0217598
0.0219766
0.0221902
0.0224005
0.0226074
0.0228106
0.0230102
0.0232058
0.0233975
0.0235851
0.0237685
0.0239475
0.024122
0.0242919
0.024457
0.0246172
0.0247725
0.0249226
0.0250676
0.0252072
0.0253413
0.0254699
0.0255928
0.02571
0.0258213
0.0259266
0.026026
0.0261192
0.0262063
0.0262871
0.0263616
0.0264297
0.0264913
0.0265465
0.0265952
0.0266373
0.0266728
0.0267017
0.026724
0.0267396
0.0267486
0.026751
0.0267467
0.0267358
0.0267183
0.0266942
0.0266635
0.0266264
0.0265828
0.0265327
0.0264764
0.0264137
0.0263447
0.0262697
0.0261885
0.0261013
0.0260082
0.0259093
0.0258046
0.0256942
0.0255783
0.025457
0.0253303
0.0251984
0.0250614
0.0249193
0.0247724
0.0246206
0.0244643
0.0243033
0.024138
0.0239683
0.0237945
0.0236166
0.0234348
0.0232491
0.0230598
0.0228669
0.0226705
0.0224709
0.022268
0.022062
0.0218531
0.0216413
0.0214268
0.0212096
0.0209899
0.0207678
0.0205434
0.0203169
0.0200882
0.0198575
0.019625
0.0193906
0.0191546
0.0189169
0.0186777
0.0184371
0.0181952
0.017952
0.0177076
0.0174621
0.0172156
0.0169681
0.0167198
0.0164706
0.0162206
0.01597
0.0157188
0.0154669
0.0152146
0.0149618
0.0147086
0.014455
0.0142011
0.0139469
0.0136925
0.0134379
0.0131832
0.0129283
0.0126734
0.0124184
0.0121633
0.0119083
0.0116533
0.0113984
0.0111436
0.0108888
0.0106342
0.0103797
0.0101254
0.00987126
0.00961728
0.00936351
0.00910994
0.00885658
0.00860345
0.00835055
0.00809788
0.00784545
0.00759327
0.00734133
0.00708965
0.0068382
0.00658701
0.00633606
0.00608535
0.00583489
0.00558466
0.00533466
0.00508489
0.00483533
0.00458599
0.00433686
0.00408792
0.00383917
0.0035906
0.0033422
0.00309397
0.00284588
0.00259793
0.00235011
0.00210241
0.00185482
0.00160732
0.0013599
0.00111255
0.000865256
0.000618008
0.000370792
0.000123595
0.000143316
0.000429958
0.000716628
0.00100334
0.00129012
0.00157699
0.00186395
0.00215103
0.00243825
0.00272562
0.00301316
0.00330089
0.00358882
0.00387696
0.00416534
0.00445397
0.00474286
0.00503203
0.00532148
0.00561124
0.0059013
0.00619169
0.00648241
0.00677346
0.00706487
0.00735662
0.00764874
0.00794122
0.00823407
0.00852729
0.00882087
0.00911482
0.00940914
0.00970382
0.00999886
0.0102942
0.01059
0.010886
0.0111824
0.0114791
0.0117761
0.0120733
0.0123708
0.0126685
0.0129664
0.0132645
0.0135627
0.0138611
0.0141595
0.014458
0.0147565
0.0150549
0.0153532
0.0156514
0.0159495
0.0162473
0.0165448
0.0168419
0.0171386
0.0174348
0.0177305
0.0180255
0.0183199
0.0186134
0.0189061
0.0191979
0.0194885
0.0197781
0.0200664
0.0203534
0.0206389
0.0209229
0.0212053
0.0214859
0.0217646
0.0220413
0.0223159
0.0225882
0.0228582
0.0231257
0.0233905
0.0236526
0.0239117
0.0241679
0.0244208
0.0246704
0.0249165
0.025159
0.0253977
0.0256325
0.0258633
0.0260898
0.026312
0.0265296
0.0267426
0.0269508
0.0271541
0.0273522
0.0275451
0.0277326
0.0279146
0.0280909
0.0282614
0.028426
0.0285845
0.0287369
0.0288829
0.0290225
0.0291556
0.029282
0.0294017
0.0295145
0.0296204
0.0297193
0.0298111
0.0298957
0.029973
0.030043
0.0301057
0.030161
0.0302088
0.0302491
0.0302819
0.0303072
0.030325
0.0303351
0.0303378
0.0303329
0.0303205
0.0303005
0.0302731
0.0302383
0.030196
0.0301465
0.0300896
0.0300255
0.0299543
0.029876
0.0297906
0.0296984
0.0295994
0.0294936
0.0293812
0.0292622
0.0291369
0.0290052
0.0288674
0.0287235
0.0285737
0.028418
0.0282567
0.0280898
0.0279175
0.0277399
0.0275571
0.0273694
0.0271767
0.0269793
0.0267774
0.0265709
0.0263602
0.0261452
0.0259262
0.0257034
0.0254767
0.0252464
0.0250126
0.0247755
0.0245351
0.0242916
0.0240452
0.0237959
0.0235438
0.0232892
0.0230321
0.0227726
0.0225109
0.0222471
0.0219812
0.0217134
0.0214438
0.0211725
0.0208995
0.0206251
0.0203492
0.020072
0.0197935
0.0195139
0.0192332
0.0189516
0.018669
0.0183855
0.0181013
0.0178164
0.0175308
0.0172446
0.016958
0.0166708
0.0163833
0.0160954
0.0158072
0.0155188
0.0152301
0.0149413
0.0146524
0.0143633
0.0140742
0.0137851
0.013496
0.013207
0.012918
0.0126291
0.0123403
0.0120517
0.0117633
0.011475
0.0111869
0.010899
0.0106114
0.010324
0.0100368
0.00974989
0.00946325
0.00917688
0.00889079
0.00860497
0.00831944
0.00803419
0.00774923
0.00746454
0.00718014
0.00689602
0.00661217
0.00632859
0.00604527
0.00576221
0.00547941
0.00519684
0.00491451
0.00463241
0.00435052
0.00406884
0.00378735
0.00350604
0.00322491
0.00294394
0.00266311
0.00238242
0.00210185
0.00182138
0.00154101
0.00126072
0.000980489
0.000700313
0.000420174
0.000140055
0.000160146
0.00048045
0.000800784
0.00112117
0.00144163
0.00176218
0.00208284
0.00240364
0.00272459
0.00304571
0.00336703
0.00368855
0.0040103
0.0043323
0.00465456
0.0049771
0.00529993
0.00562307
0.00594654
0.00627035
0.0065945
0.00691902
0.00724391
0.00756919
0.00789485
0.00822092
0.00854739
0.00887427
0.00920156
0.00952927
0.0098574
0.0101859
0.0105149
0.0108443
0.011174
0.0115042
0.0118348
0.0121657
0.012497
0.0128286
0.0131606
0.0134929
0.0138254
0.0141583
0.0144913
0.0148246
0.015158
0.0154916
0.0158252
0.0161589
0.0164927
0.0168264
0.01716
0.0174934
0.0178267
0.0181597
0.0184924
0.0188247
0.0191566
0.0194879
0.0198186
0.0201486
0.0204778
0.0208062
0.0211336
0.02146
0.0217852
0.0221091
0.0224317
0.0227528
0.0230723
0.02339
0.023706
0.02402
0.0243319
0.0246415
0.0249489
0.0252537
0.0255558
0.0258552
0.0261517
0.026445
0.0267351
0.0270218
0.027305
0.0275844
0.02786
0.0281315
0.0283988
0.0286617
0.0289201
0.0291738
0.0294226
0.0296664
0.0299049
0.0301381
0.0303657
0.0305877
0.0308037
0.0310138
0.0312176
0.0314151
0.0316061
0.0317905
0.0319681
0.0321388
0.0323024
0.0324588
0.0326079
0.0327495
0.0328836
0.03301
0.0331287
0.0332394
0.0333422
0.033437
0.0335237
0.0336021
0.0336723
0.0337342
0.0337878
0.0338329
0.0338697
0.033898
0.0339178
0.0339292
0.0339321
0.0339266
0.0339126
0.0338903
0.0338595
0.0338204
0.0337731
0.0337175
0.0336537
0.0335819
0.033502
0.0334142
0.0333185
0.0332152
0.0331041
0.0329856
0.0328596
0.0327263
0.0325858
0.0324383
0.0322838
0.0321226
0.0319547
0.0317803
0.0315996
0.0314126
0.0312196
0.0310206
0.0308159
0.0306056
0.0303899
0.0301688
0.0299426
0.0297114
0.0294754
0.0292347
0.0289895
0.0287399
0.0284861
0.0282283
0.0279666
0.0277011
0.027432
0.0271595
0.0268836
0.0266045
0.0263225
0.0260375
0.0257497
0.0254593
0.0251665
0.0248712
0.0245737
0.024274
0.0239724
0.0236688
0.0233634
0.0230564
0.0227477
0.0224376
0.0221261
0.0218133
0.0214994
0.0211843
0.0208682
0.0205511
0.0202333
0.0199146
0.0195952
0.0192752
0.0189546
0.0186335
0.018312
0.01799
0.0176678
0.0173453
0.0170225
0.0166996
0.0163765
0.0160533
0.0157301
0.0154069
0.0150837
0.0147605
0.0144375
0.0141145
0.0137917
0.013469
0.0131466
0.0128243
0.0125023
0.0121805
0.011859
0.0115377
0.0112168
0.0108961
0.0105757
0.0102556
0.00993585
0.0096164
0.00929727
0.00897846
0.00865997
0.0083418
0.00802395
0.00770641
0.00738918
0.00707225
0.00675563
0.00643929
0.00612324
0.00580746
0.00549194
0.00517668
0.00486166
0.00454688
0.00423231
0.00391795
0.00360378
0.00328979
0.00297597
0.0026623
0.00234877
0.00203535
0.00172204
0.00140882
0.00109567
0.000782582
0.000469533
0.000156508
0.000176966
0.00053091
0.000884888
0.00123892
0.00159304
0.00194726
0.00230161
0.0026561
0.00301076
0.00336562
0.00372069
0.00407599
0.00443154
0.00478737
0.0051435
0.00549993
0.00585669
0.0062138
0.00657126
0.00692911
0.00728734
0.00764598
0.00800504
0.00836452
0.00872444
0.00908481
0.00944563
0.0098069
0.0101686
0.0105308
0.0108935
0.0112567
0.0116203
0.0119843
0.0123488
0.0127138
0.0130792
0.013445
0.0138112
0.0141778
0.0145448
0.0149122
0.0152798
0.0156478
0.016016
0.0163845
0.0167531
0.017122
0.0174909
0.0178599
0.0182289
0.0185979
0.0189669
0.0193356
0.0197042
0.0200725
0.0204405
0.020808
0.0211751
0.0215416
0.0219074
0.0222724
0.0226367
0.0229999
0.0233622
0.0237232
0.024083
0.0244415
0.0247984
0.0251537
0.0255073
0.025859
0.0262086
0.0265562
0.0269014
0.0272441
0.0275843
0.0279217
0.0282563
0.0285877
0.0289159
0.0292407
0.0295619
0.0298794
0.0301929
0.0305024
0.0308075
0.0311082
0.0314043
0.0316955
0.0319817
0.0322627
0.0325383
0.0328083
0.0330726
0.0333309
0.0335831
0.033829
0.0340684
0.0343011
0.034527
0.0347458
0.0349575
0.0351618
0.0353586
0.0355477
0.035729
0.0359024
0.0360676
0.0362246
0.0363732
0.0365133
0.0366448
0.0367675
0.0368815
0.0369865
0.0370825
0.0371694
0.0372472
0.0373158
0.0373752
0.0374252
0.0374659
0.0374972
0.0375192
0.0375317
0.0375349
0.0375287
0.0375132
0.0374884
0.0374542
0.0374109
0.0373583
0.0372966
0.0372259
0.0371462
0.0370576
0.0369603
0.0368542
0.0367396
0.0366164
0.036485
0.0363453
0.0361975
0.0360418
0.0358783
0.0357071
0.0355284
0.0353423
0.035149
0.0349487
0.0347415
0.0345276
0.0343072
0.0340804
0.0338473
0.0336083
0.0333634
0.0331128
0.0328567
0.0325953
0.0323287
0.0320571
0.0317807
0.0314997
0.0312141
0.0309243
0.0306303
0.0303324
0.0300306
0.0297252
0.0294162
0.029104
0.0287885
0.02847
0.0281486
0.0278244
0.0274976
0.0271683
0.0268367
0.0265028
0.0261669
0.025829
0.0254892
0.0251477
0.0248046
0.02446
0.0241139
0.0237666
0.023418
0.0230683
0.0227176
0.022366
0.0220135
0.0216603
0.0213063
0.0209517
0.0205966
0.020241
0.019885
0.0195286
0.019172
0.018815
0.018458
0.0181007
0.0177434
0.017386
0.0170286
0.0166713
0.016314