/*--------------------------------*- C++ -*----------------------------------*\
| =========                 |                                                 |
| \\      /  F ield         | OpenFOAM: The Open Source CFD Toolbox           |
|  \\    /   O peration     | Version:  v2012                                 |
|   \\  /    A nd           | Website:  www.openfoam.com                      |
|    \\/     M anipulation  |                                                 |
\*---------------------------------------------------------------------------*/
FoamFile
{
    version     2.0;
    format      ascii;
    class       volScalarField;
    location    "15.5";
    object      W;
}
// * * * * * * * * * * * * * * * * * * * * * * * * * * * * * * * * * * * * * //

dimensions      [0 0 -1 0 0 0 0];


internalField   nonuniform List<scalar> 
65536
(
1.0061e-14
1.00975e-14
1.031e-14
1.06995e-14
1.12696e-14
1.20267e-14
1.298e-14
1.41415e-14
1.55261e-14
1.71517e-14
1.90395e-14
2.12139e-14
2.37031e-14
2.65393e-14
2.97587e-14
3.34024e-14
3.75165e-14
4.21523e-14
4.73672e-14
5.32253e-14
5.97975e-14
6.71626e-14
7.54076e-14
8.46289e-14
9.49327e-14
1.06436e-13
1.19268e-13
1.33571e-13
1.49499e-13
1.67223e-13
1.8693e-13
2.08824e-13
2.33128e-13
2.60085e-13
2.8996e-13
3.2304e-13
3.59639e-13
4.00096e-13
4.44777e-13
4.94081e-13
5.48437e-13
6.08307e-13
6.74189e-13
7.46619e-13
8.2617e-13
9.13457e-13
1.00914e-12
1.11391e-12
1.22853e-12
1.35378e-12
1.49052e-12
1.63961e-12
1.80202e-12
1.97873e-12
2.17078e-12
2.37927e-12
2.60534e-12
2.85017e-12
3.11502e-12
3.40115e-12
3.70991e-12
4.04265e-12
4.40078e-12
4.78573e-12
5.19896e-12
5.64195e-12
6.1162e-12
6.6232e-12
7.16444e-12
7.74141e-12
8.35557e-12
9.00835e-12
9.70112e-12
1.04352e-11
1.12119e-11
1.20323e-11
1.28975e-11
1.38085e-11
1.47661e-11
1.5771e-11
1.68237e-11
1.79246e-11
1.90738e-11
2.02713e-11
2.15169e-11
2.28101e-11
2.41502e-11
2.55362e-11
2.69668e-11
2.84407e-11
2.99561e-11
3.15108e-11
3.31027e-11
3.47291e-11
3.63871e-11
3.80738e-11
3.97856e-11
4.15191e-11
4.32702e-11
4.50351e-11
4.68094e-11
4.85887e-11
5.03685e-11
5.21439e-11
5.39103e-11
5.56627e-11
5.73962e-11
5.91059e-11
6.07869e-11
6.24342e-11
6.40432e-11
6.56091e-11
6.71274e-11
6.85936e-11
7.00037e-11
7.13536e-11
7.26395e-11
7.38581e-11
7.50059e-11
7.60802e-11
7.70782e-11
7.79976e-11
7.88364e-11
7.95927e-11
8.02652e-11
8.08527e-11
8.13544e-11
8.17695e-11
8.20979e-11
8.23395e-11
8.24944e-11
8.2563e-11
8.25459e-11
8.24439e-11
8.22577e-11
8.19886e-11
8.16375e-11
8.12058e-11
8.06948e-11
8.01058e-11
7.94403e-11
7.86997e-11
7.78853e-11
7.69988e-11
7.60414e-11
7.50147e-11
7.39201e-11
7.2759e-11
7.15329e-11
7.02432e-11
6.88913e-11
6.74789e-11
6.60074e-11
6.44786e-11
6.28943e-11
6.12565e-11
5.95672e-11
5.78288e-11
5.60439e-11
5.42153e-11
5.23464e-11
5.04405e-11
4.85015e-11
4.65338e-11
4.45421e-11
4.25313e-11
4.05072e-11
3.84754e-11
3.64423e-11
3.44146e-11
3.23992e-11
3.04031e-11
2.84338e-11
2.64986e-11
2.46049e-11
2.27602e-11
2.09715e-11
1.92456e-11
1.7589e-11
1.60075e-11
1.45064e-11
1.30904e-11
1.17633e-11
1.05281e-11
9.38689e-12
8.34094e-12
7.39058e-12
6.53521e-12
5.77338e-12
5.10276e-12
4.52026e-12
4.02202e-12
3.60351e-12
3.25961e-12
2.98466e-12
2.77256e-12
2.61682e-12
2.5107e-12
2.44724e-12
2.41937e-12
2.42002e-12
2.4422e-12
2.47913e-12
2.52432e-12
2.57169e-12
2.61572e-12
2.6515e-12
2.67483e-12
2.68233e-12
2.67151e-12
2.64071e-12
2.58923e-12
2.5172e-12
2.42556e-12
2.31598e-12
2.19074e-12
2.05258e-12
1.90455e-12
1.74989e-12
1.59188e-12
1.43365e-12
1.27811e-12
1.12786e-12
9.85074e-13
8.51489e-13
7.2838e-13
6.16565e-13
5.16436e-13
4.28003e-13
3.50951e-13
2.84704e-13
2.2849e-13
1.81404e-13
1.42465e-13
1.10671e-13
8.50367e-14
6.46253e-14
4.85741e-14
3.61072e-14
2.65429e-14
1.92954e-14
1.38703e-14
9.85895e-15
6.92891e-15
4.81473e-15
3.30776e-15
2.24667e-15
1.50864e-15
1.00163e-15
6.57707e-16
4.27514e-16
2.75775e-16
1.77752e-16
1.16526e-16
8.0985e-17
6.44063e-17
1.51751e-14
1.52306e-14
1.55526e-14
1.61423e-14
1.70052e-14
1.81513e-14
1.95944e-14
2.1353e-14
2.34497e-14
2.59117e-14
2.87714e-14
3.20662e-14
3.58389e-14
4.01387e-14
4.5021e-14
5.05484e-14
5.67913e-14
6.38282e-14
7.1747e-14
8.06453e-14
9.06317e-14
1.01827e-13
1.14364e-13
1.2839e-13
1.44069e-13
1.61579e-13
1.81118e-13
2.02903e-13
2.27173e-13
2.54188e-13
2.84236e-13
3.17628e-13
3.54706e-13
3.95844e-13
4.41448e-13
4.91957e-13
5.47853e-13
6.09655e-13
6.77926e-13
7.53274e-13
8.36356e-13
9.27881e-13
1.02861e-12
1.13936e-12
1.261e-12
1.39449e-12
1.5408e-12
1.70103e-12
1.87629e-12
2.06779e-12
2.27682e-12
2.50471e-12
2.75288e-12
3.02284e-12
3.31614e-12
3.63443e-12
3.97939e-12
4.35282e-12
4.75655e-12
5.19247e-12
5.66253e-12
6.16873e-12
6.71311e-12
7.29774e-12
7.92471e-12
8.59613e-12
9.31411e-12
1.00807e-11
1.08981e-11
1.17681e-11
1.26928e-11
1.36741e-11
1.47137e-11
1.58132e-11
1.69743e-11
1.81982e-11
1.94861e-11
2.08389e-11
2.22574e-11
2.3742e-11
2.5293e-11
2.69101e-11
2.85931e-11
3.0341e-11
3.21528e-11
3.4027e-11
3.59616e-11
3.79545e-11
4.00028e-11
4.21036e-11
4.42532e-11
4.64479e-11
4.86831e-11
5.09543e-11
5.32563e-11
5.55837e-11
5.79307e-11
6.02912e-11
6.26588e-11
6.50269e-11
6.73887e-11
6.97372e-11
7.20652e-11
7.43657e-11
7.66314e-11
7.88551e-11
8.10296e-11
8.31481e-11
8.52036e-11
8.71896e-11
8.90996e-11
9.09278e-11
9.26683e-11
9.43159e-11
9.58656e-11
9.73131e-11
9.86542e-11
9.98855e-11
1.01004e-10
1.02007e-10
1.02893e-10
1.0366e-10
1.04307e-10
1.04834e-10
1.05241e-10
1.05528e-10
1.05695e-10
1.05745e-10
1.05679e-10
1.05498e-10
1.05205e-10
1.04802e-10
1.04293e-10
1.0368e-10
1.02965e-10
1.02153e-10
1.01246e-10
1.00248e-10
9.91614e-11
9.79904e-11
9.67379e-11
9.5407e-11
9.4001e-11
9.25229e-11
9.09754e-11
8.93616e-11
8.76842e-11
8.59457e-11
8.41487e-11
8.22957e-11
8.03891e-11
7.84313e-11
7.64246e-11
7.43715e-11
7.22744e-11
7.01357e-11
6.79582e-11
6.57447e-11
6.34981e-11
6.12216e-11
5.89188e-11
5.65935e-11
5.42498e-11
5.18922e-11
4.95256e-11
4.71551e-11
4.47865e-11
4.24257e-11
4.0079e-11
3.77531e-11
3.54548e-11
3.31913e-11
3.09699e-11
2.87977e-11
2.6682e-11
2.46299e-11
2.26483e-11
2.07437e-11
1.89222e-11
1.71892e-11
1.55496e-11
1.40075e-11
1.25663e-11
1.12283e-11
9.99509e-12
8.86734e-12
7.84471e-12
6.92597e-12
6.10901e-12
5.39085e-12
4.76774e-12
4.23518e-12
3.78802e-12
3.42052e-12
3.12645e-12
2.89913e-12
2.73156e-12
2.61648e-12
2.54646e-12
2.514e-12
2.51161e-12
2.53194e-12
2.56787e-12
2.61261e-12
2.65982e-12
2.70374e-12
2.73927e-12
2.76207e-12
2.76864e-12
2.75639e-12
2.72364e-12
2.66965e-12
2.59457e-12
2.49937e-12
2.3858e-12
2.25618e-12
2.11336e-12
1.96047e-12
1.80087e-12
1.63789e-12
1.47477e-12
1.31451e-12
1.15976e-12
1.01275e-12
8.75258e-13
7.48586e-13
6.33567e-13
5.30595e-13
4.39672e-13
3.60469e-13
2.92386e-13
2.34625e-13
1.86251e-13
1.46254e-13
1.13602e-13
8.72792e-14
6.63227e-14
4.9845e-14
3.70483e-14
2.72324e-14
1.97948e-14
1.42282e-14
1.01125e-14
7.10659e-15
4.93784e-15
3.39211e-15
2.3038e-15
1.54691e-15
1.02698e-15
6.74313e-16
4.38284e-16
2.82708e-16
1.82211e-16
1.19443e-16
8.30077e-17
6.60142e-17
2.7467e-14
2.7569e-14
2.8155e-14
2.92274e-14
3.07963e-14
3.28799e-14
3.55038e-14
3.87016e-14
4.25149e-14
4.69937e-14
5.21972e-14
5.8194e-14
6.5063e-14
7.2894e-14
8.17891e-14
9.18633e-14
1.03246e-13
1.1608e-13
1.30529e-13
1.46772e-13
1.65009e-13
1.85461e-13
2.08374e-13
2.3402e-13
2.62698e-13
2.94739e-13
3.30508e-13
3.70404e-13
4.14868e-13
4.64382e-13
5.19474e-13
5.80721e-13
6.48754e-13
7.24262e-13
8.07994e-13
9.00765e-13
1.00346e-12
1.11704e-12
1.24254e-12
1.38108e-12
1.53388e-12
1.70224e-12
1.88756e-12
2.09134e-12
2.3152e-12
2.56087e-12
2.83017e-12
3.12507e-12
3.44764e-12
3.80008e-12
4.18472e-12
4.60401e-12
5.06054e-12
5.557e-12
6.09624e-12
6.68118e-12
7.31491e-12
8.00059e-12
8.74149e-12
9.54098e-12
1.04025e-11
1.13295e-11
1.23257e-11
1.33945e-11
1.45395e-11
1.57644e-11
1.70727e-11
1.84677e-11
1.9953e-11
2.15317e-11
2.32069e-11
2.49814e-11
2.68579e-11
2.88388e-11
3.09259e-11
3.3121e-11
3.54253e-11
3.78395e-11
4.0364e-11
4.29985e-11
4.57421e-11
4.85935e-11
5.15505e-11
5.46103e-11
5.77695e-11
6.10239e-11
6.43685e-11
6.77977e-11
7.13049e-11
7.48829e-11
7.85239e-11
8.22191e-11
8.59592e-11
8.97341e-11
9.35334e-11
9.73456e-11
1.01159e-10
1.04962e-10
1.08742e-10
1.12486e-10
1.16181e-10
1.19814e-10
1.23372e-10
1.26842e-10
1.30212e-10
1.33469e-10
1.36601e-10
1.39596e-10
1.42444e-10
1.45134e-10
1.47657e-10
1.50003e-10
1.52166e-10
1.54137e-10
1.55912e-10
1.57484e-10
1.58851e-10
1.60009e-10
1.60957e-10
1.61692e-10
1.62217e-10
1.62531e-10
1.62637e-10
1.62539e-10
1.62238e-10
1.61741e-10
1.61052e-10
1.60178e-10
1.59124e-10
1.57898e-10
1.56506e-10
1.54957e-10
1.53259e-10
1.51418e-10
1.49444e-10
1.47345e-10
1.45128e-10
1.42801e-10
1.40372e-10
1.37849e-10
1.35239e-10
1.32549e-10
1.29786e-10
1.26956e-10
1.24065e-10
1.21119e-10
1.18124e-10
1.15084e-10
1.12004e-10
1.08889e-10
1.05743e-10
1.02569e-10
9.93727e-11
9.61564e-11
9.29239e-11
8.96789e-11
8.64246e-11
8.31648e-11
7.9903e-11
7.66429e-11
7.33887e-11
7.01443e-11
6.69144e-11
6.37036e-11
6.0517e-11
5.73601e-11
5.42385e-11
5.11582e-11
4.81256e-11
4.51474e-11
4.22301e-11
3.93809e-11
3.66067e-11
3.39144e-11
3.13109e-11
2.88029e-11
2.63965e-11
2.40978e-11
2.1912e-11
1.98438e-11
1.78972e-11
1.60751e-11
1.43799e-11
1.28129e-11
1.13744e-11
1.00636e-11
8.87902e-12
7.818e-12
6.87705e-12
6.0518e-12
5.33709e-12
4.72705e-12
4.21517e-12
3.79438e-12
3.45715e-12
3.19558e-12
3.00147e-12
2.86644e-12
2.78198e-12
2.7396e-12
2.73089e-12
2.74764e-12
2.78193e-12
2.82629e-12
2.87374e-12
2.91798e-12
2.95346e-12
2.97546e-12
2.98021e-12
2.9649e-12
2.92773e-12
2.86792e-12
2.78564e-12
2.68197e-12
2.55877e-12
2.41857e-12
2.2644e-12
2.09964e-12
1.92788e-12
1.75268e-12
1.57751e-12
1.40556e-12
1.23964e-12
1.08212e-12
9.349e-13
7.9934e-13
6.76315e-13
5.66228e-13
4.69067e-13
3.84464e-13
3.11768e-13
2.50115e-13
1.985e-13
1.55837e-13
1.21019e-13
9.2958e-14
7.06237e-14
5.30672e-14
3.9436e-14
2.89823e-14
2.10633e-14
1.51375e-14
1.07572e-14
7.55851e-15
5.25111e-15
3.60683e-15
2.44933e-15
1.64442e-15
1.09159e-15
7.16658e-16
4.65758e-16
3.00398e-16
1.93593e-16
1.26891e-16
8.81758e-17
7.012e-17
5.20581e-14
5.22547e-14
5.33719e-14
5.54142e-14
5.84015e-14
6.23684e-14
6.73642e-14
7.34533e-14
8.07158e-14
8.92476e-14
9.91623e-14
1.10592e-13
1.23687e-13
1.38622e-13
1.55591e-13
1.74817e-13
1.96546e-13
2.21059e-13
2.48664e-13
2.79708e-13
3.14577e-13
3.53697e-13
3.97543e-13
4.46636e-13
5.01558e-13
5.62944e-13
6.31499e-13
7.07996e-13
7.93283e-13
8.88293e-13
9.94047e-13
1.11166e-12
1.24235e-12
1.38745e-12
1.54841e-12
1.72681e-12
1.92435e-12
2.14289e-12
2.38443e-12
2.65116e-12
2.9454e-12
3.26967e-12
3.62669e-12
4.01935e-12
4.45076e-12
4.92425e-12
5.44334e-12
6.01181e-12
6.63364e-12
7.31306e-12
8.05452e-12
8.86272e-12
9.74258e-12
1.06993e-11
1.17381e-11
1.28648e-11
1.4085e-11
1.54048e-11
1.68303e-11
1.83678e-11
2.00236e-11
2.18044e-11
2.37165e-11
2.57666e-11
2.79612e-11
3.03066e-11
3.28092e-11
3.5475e-11
3.83099e-11
4.13193e-11
4.45082e-11
4.78814e-11
5.14427e-11
5.51955e-11
5.91426e-11
6.32858e-11
6.76259e-11
7.21629e-11
7.68959e-11
8.18224e-11
8.69391e-11
9.22413e-11
9.77229e-11
1.03377e-10
1.09193e-10
1.15163e-10
1.21274e-10
1.27512e-10
1.33864e-10
1.40313e-10
1.46842e-10
1.53432e-10
1.60062e-10
1.66713e-10
1.73361e-10
1.79984e-10
1.86558e-10
1.93059e-10
1.99461e-10
2.05741e-10
2.11874e-10
2.17833e-10
2.23596e-10
2.29138e-10
2.34437e-10
2.39469e-10
2.44216e-10
2.48656e-10
2.52772e-10
2.56547e-10
2.59968e-10
2.63021e-10
2.65696e-10
2.67985e-10
2.6988e-10
2.71379e-10
2.72477e-10
2.73177e-10
2.73479e-10
2.73389e-10
2.72911e-10
2.72055e-10
2.70829e-10
2.69246e-10
2.67316e-10
2.65056e-10
2.62479e-10
2.59601e-10
2.5644e-10
2.53012e-10
2.49335e-10
2.45428e-10
2.41308e-10
2.36993e-10
2.32501e-10
2.2785e-10
2.23058e-10
2.18139e-10
2.13111e-10
2.07989e-10
2.02788e-10
1.9752e-10
1.922e-10
1.86838e-10
1.81448e-10
1.76038e-10
1.70618e-10
1.65198e-10
1.59785e-10
1.54386e-10
1.49009e-10
1.4366e-10
1.38343e-10
1.33064e-10
1.27828e-10
1.2264e-10
1.17503e-10
1.12421e-10
1.07399e-10
1.02441e-10
9.75495e-11
9.27301e-11
8.79868e-11
8.33241e-11
7.87468e-11
7.42599e-11
6.98689e-11
6.55793e-11
6.1397e-11
5.73279e-11
5.33782e-11
4.95542e-11
4.5862e-11
4.23077e-11
3.88973e-11
3.56362e-11
3.25296e-11
2.95821e-11
2.67974e-11
2.41788e-11
2.17285e-11
1.94478e-11
1.7337e-11
1.53954e-11
1.36213e-11
1.20117e-11
1.05628e-11
9.26968e-12
8.12659e-12
7.12682e-12
6.26291e-12
5.52671e-12
4.90946e-12
4.40194e-12
3.99451e-12
3.67722e-12
3.43997e-12
3.27252e-12
3.16464e-12
3.1062e-12
3.08728e-12
3.09828e-12
3.13001e-12
3.17384e-12
3.22178e-12
3.26666e-12
3.30216e-12
3.32296e-12
3.32483e-12
3.30462e-12
3.26035e-12
3.19114e-12
3.09722e-12
2.9798e-12
2.84097e-12
2.68354e-12
2.51091e-12
2.32683e-12
2.13526e-12
1.94015e-12
1.74533e-12
1.55429e-12
1.37015e-12
1.19549e-12
1.03238e-12
8.82307e-13
7.46203e-13
6.24492e-13
5.17135e-13
4.23707e-13
3.4347e-13
2.75455e-13
2.1854e-13
1.71517e-13
1.33156e-13
1.02251e-13
7.76629e-14
5.83412e-14
4.33445e-14
3.18471e-14
2.31401e-14
1.66264e-14
1.18127e-14
8.29853e-15
5.76413e-15
3.95849e-15
2.68767e-15
1.80414e-15
1.19742e-15
7.86025e-16
5.10766e-16
3.29381e-16
2.12242e-16
1.39096e-16
9.66443e-17
7.68475e-17
9.87805e-14
9.91603e-14
1.01293e-13
1.05188e-13
1.10884e-13
1.18446e-13
1.27971e-13
1.39581e-13
1.5343e-13
1.69704e-13
1.88621e-13
2.10433e-13
2.35432e-13
2.63951e-13
2.96367e-13
3.33105e-13
3.74644e-13
4.21518e-13
4.74328e-13
5.3374e-13
6.00498e-13
6.75425e-13
7.59435e-13
8.5354e-13
9.58857e-13
1.07662e-12
1.20819e-12
1.35506e-12
1.51887e-12
1.70142e-12
1.9047e-12
2.13086e-12
2.38226e-12
2.66149e-12
2.97134e-12
3.31487e-12
3.69539e-12
4.11651e-12
4.58209e-12
5.09636e-12
5.66383e-12
6.28939e-12
6.97827e-12
7.7361e-12
8.56888e-12
9.48303e-12
1.04854e-11
1.15832e-11
1.27841e-11
1.40964e-11
1.55285e-11
1.70896e-11
1.87889e-11
2.06365e-11
2.26425e-11
2.48177e-11
2.71731e-11
2.97199e-11
3.24699e-11
3.54348e-11
3.86267e-11
4.20576e-11
4.57398e-11
4.96852e-11
5.39058e-11
5.84132e-11
6.32186e-11
6.83329e-11
7.37662e-11
7.95277e-11
8.5626e-11
9.20683e-11
9.88608e-11
1.06008e-10
1.13513e-10
1.21378e-10
1.29602e-10
1.38181e-10
1.47113e-10
1.56388e-10
1.65999e-10
1.75932e-10
1.86173e-10
1.96705e-10
2.07505e-10
2.18553e-10
2.2982e-10
2.41279e-10
2.52897e-10
2.64641e-10
2.76473e-10
2.88355e-10
3.00245e-10
3.12099e-10
3.23874e-10
3.35523e-10
3.46998e-10
3.58253e-10
3.69239e-10
3.79909e-10
3.90215e-10
4.00111e-10
4.09551e-10
4.18494e-10
4.26898e-10
4.34724e-10
4.41938e-10
4.48506e-10
4.54401e-10
4.59597e-10
4.64074e-10
4.67815e-10
4.70807e-10
4.73043e-10
4.74519e-10
4.75235e-10
4.75198e-10
4.74415e-10
4.72901e-10
4.70672e-10
4.6775e-10
4.64157e-10
4.59921e-10
4.55072e-10
4.4964e-10
4.4366e-10
4.37167e-10
4.30198e-10
4.22789e-10
4.14979e-10
4.06806e-10
3.98308e-10
3.89522e-10
3.80484e-10
3.71231e-10
3.61798e-10
3.52216e-10
3.42519e-10
3.32736e-10
3.22895e-10
3.13023e-10
3.03145e-10
2.93282e-10
2.83457e-10
2.73687e-10
2.6399e-10
2.54381e-10
2.44874e-10
2.35481e-10
2.26212e-10
2.17077e-10
2.08083e-10
1.99238e-10
1.90548e-10
1.82016e-10
1.73649e-10
1.6545e-10
1.57421e-10
1.49567e-10
1.4189e-10
1.34392e-10
1.27078e-10
1.19948e-10
1.13006e-10
1.06256e-10
9.9701e-11
9.3344e-11
8.71891e-11
8.12402e-11
7.55017e-11
6.99776e-11
6.46723e-11
5.959e-11
5.47345e-11
5.01096e-11
4.57186e-11
4.15641e-11
3.76482e-11
3.39721e-11
3.0536e-11
2.73393e-11
2.43804e-11
2.16562e-11
1.91628e-11
1.68951e-11
1.48467e-11
1.30103e-11
1.13774e-11
9.93876e-12
8.68408e-12
7.60244e-12
6.68228e-12
5.91151e-12
5.27766e-12
4.76799e-12
4.36958e-12
4.06946e-12
3.85473e-12
3.71261e-12
3.63063e-12
3.59665e-12
3.59906e-12
3.62682e-12
3.66965e-12
3.71811e-12
3.76373e-12
3.79914e-12
3.81815e-12
3.81584e-12
3.7886e-12
3.73415e-12
3.65152e-12
3.54097e-12
3.40393e-12
3.24281e-12
3.06084e-12
2.8619e-12
2.65029e-12
2.43049e-12
2.20703e-12
1.98421e-12
1.766e-12
1.55591e-12
1.35684e-12
1.17112e-12
1.00038e-12
8.45657e-13
7.074e-13
5.85533e-13
4.79544e-13
3.88575e-13
3.11507e-13
2.4705e-13
1.93823e-13
1.50421e-13
1.15471e-13
8.76758e-14
6.5843e-14
4.89037e-14
3.59217e-14
2.60937e-14
1.87438e-14
1.33139e-14
9.35095e-15
6.4937e-15
4.45858e-15
3.02661e-15
2.03127e-15
1.34793e-15
8.84666e-16
5.74769e-16
3.70595e-16
2.38761e-16
1.56451e-16
1.08687e-16
8.64142e-17
1.85446e-13
1.86173e-13
1.90204e-13
1.97556e-13
2.08302e-13
2.2257e-13
2.40541e-13
2.6245e-13
2.88589e-13
3.1931e-13
3.55028e-13
3.96226e-13
4.43458e-13
4.97357e-13
5.58642e-13
6.28124e-13
7.06713e-13
7.95433e-13
8.95425e-13
1.00796e-12
1.13447e-12
1.27651e-12
1.43584e-12
1.61438e-12
1.81429e-12
2.03791e-12
2.28785e-12
2.56697e-12
2.87842e-12
3.22565e-12
3.61245e-12
4.04297e-12
4.52173e-12
5.05367e-12
5.64418e-12
6.29912e-12
7.02485e-12
7.82827e-12
8.71683e-12
9.69861e-12
1.07823e-11
1.19773e-11
1.32935e-11
1.47419e-11
1.63339e-11
1.80819e-11
1.99988e-11
2.20986e-11
2.43961e-11
2.69068e-11
2.9647e-11
3.2634e-11
3.58858e-11
3.94211e-11
4.32594e-11
4.7421e-11
5.19266e-11
5.67977e-11
6.20561e-11
6.7724e-11
7.38237e-11
8.03778e-11
8.74087e-11
9.49386e-11
1.02989e-10
1.11581e-10
1.20735e-10
1.3047e-10
1.40803e-10
1.51751e-10
1.63326e-10
1.75541e-10
1.88405e-10
2.01922e-10
2.16097e-10
2.30928e-10
2.4641e-10
2.62534e-10
2.79287e-10
2.96651e-10
3.14601e-10
3.3311e-10
3.52144e-10
3.71664e-10
3.91625e-10
4.11977e-10
4.32665e-10
4.53627e-10
4.74798e-10
4.96107e-10
5.1748e-10
5.38835e-10
5.60092e-10
5.81163e-10
6.0196e-10
6.22394e-10
6.42373e-10
6.61805e-10
6.80599e-10
6.98665e-10
7.15917e-10
7.32268e-10
7.47639e-10
7.61953e-10
7.75138e-10
7.8713e-10
7.97871e-10
8.07308e-10
8.154e-10
8.2211e-10
8.27411e-10
8.31287e-10
8.33726e-10
8.3473e-10
8.34306e-10
8.3247e-10
8.29248e-10
8.24672e-10
8.18782e-10
8.11625e-10
8.03255e-10
7.93729e-10
7.83112e-10
7.7147e-10
7.58875e-10
7.45401e-10
7.31122e-10
7.16116e-10
7.00459e-10
6.84229e-10
6.675e-10
6.50349e-10
6.32846e-10
6.15063e-10
5.97067e-10
5.7892e-10
5.60685e-10
5.42417e-10
5.2417e-10
5.05993e-10
4.8793e-10
4.70022e-10
4.52306e-10
4.34815e-10
4.17577e-10
4.0062e-10
3.83963e-10
3.67627e-10
3.51626e-10
3.35974e-10
3.20681e-10
3.05755e-10
2.91202e-10
2.77027e-10
2.63231e-10
2.49816e-10
2.36784e-10
2.24132e-10
2.1186e-10
1.99967e-10
1.8845e-10
1.77308e-10
1.66538e-10
1.5614e-10
1.4611e-10
1.36449e-10
1.27154e-10
1.18225e-10
1.09661e-10
1.01463e-10
9.36285e-11
8.6159e-11
7.90537e-11
7.23122e-11
6.59336e-11
5.99167e-11
5.42597e-11
4.89597e-11
4.40134e-11
3.94161e-11
3.51624e-11
3.12453e-11
2.76569e-11
2.43879e-11
2.14281e-11
1.87657e-11
1.63881e-11
1.42816e-11
1.24315e-11
1.08226e-11
9.43879e-12
8.2636e-12
7.28019e-12
6.47147e-12
5.82031e-12
5.30959e-12
4.92237e-12
4.642e-12
4.4522e-12
4.33723e-12
4.28193e-12
4.27191e-12
4.29362e-12
4.33453e-12
4.38318e-12
4.42941e-12
4.46436e-12
4.48069e-12
4.47255e-12
4.43569e-12
4.36745e-12
4.26671e-12
4.13381e-12
3.97043e-12
3.77942e-12
3.56458e-12
3.33042e-12
3.08197e-12
2.82444e-12
2.56307e-12
2.30285e-12
2.04835e-12
1.80361e-12
1.57197e-12
1.35606e-12
1.15775e-12
9.782e-13
8.17877e-13
6.76662e-13
5.5393e-13
4.48656e-13
3.59523e-13
2.85017e-13
2.23524e-13
1.73408e-13
1.3307e-13
1.01005e-13
7.58283e-14
5.63027e-14
4.13443e-14
3.00242e-14
2.15614e-14
1.53113e-14
1.07512e-14
7.46432e-15
5.12386e-15
3.47747e-15
2.33339e-15
1.54811e-15
1.01586e-15
6.59893e-16
4.25409e-16
2.7403e-16
1.79532e-16
1.24701e-16
9.91363e-17
3.43455e-13
3.4483e-13
3.52348e-13
3.66042e-13
3.86053e-13
4.12619e-13
4.46081e-13
4.8688e-13
5.35565e-13
5.92798e-13
6.59357e-13
7.3615e-13
8.24218e-13
9.24752e-13
1.0391e-12
1.1688e-12
1.31555e-12
1.48128e-12
1.66814e-12
1.87855e-12
2.11515e-12
2.38094e-12
2.6792e-12
3.01358e-12
3.38813e-12
3.80729e-12
4.276e-12
4.79965e-12
5.38421e-12
6.03622e-12
6.76283e-12
7.57191e-12
8.47202e-12
9.47254e-12
1.05837e-11
1.18165e-11
1.31832e-11
1.46966e-11
1.63712e-11
1.8222e-11
2.02656e-11
2.25199e-11
2.50037e-11
2.77377e-11
3.07435e-11
3.40446e-11
3.76657e-11
4.16332e-11
4.59749e-11
5.07203e-11
5.59002e-11
6.15472e-11
6.76953e-11
7.43796e-11
8.16371e-11
8.95055e-11
9.80239e-11
1.07232e-10
1.17171e-10
1.27882e-10
1.39406e-10
1.51786e-10
1.65061e-10
1.79272e-10
1.94459e-10
2.1066e-10
2.2791e-10
2.46242e-10
2.65686e-10
2.8627e-10
3.08016e-10
3.3094e-10
3.55056e-10
3.80368e-10
4.06878e-10
4.34576e-10
4.63448e-10
4.93468e-10
5.24604e-10
5.56814e-10
5.90046e-10
6.24236e-10
6.59313e-10
6.95193e-10
7.31784e-10
7.6898e-10
8.06668e-10
8.44725e-10
8.83016e-10
9.21401e-10
9.59728e-10
9.97843e-10
1.03558e-09
1.07278e-09
1.10926e-09
1.14486e-09
1.17939e-09
1.2127e-09
1.2446e-09
1.27494e-09
1.30355e-09
1.33028e-09
1.35499e-09
1.37755e-09
1.39783e-09
1.41574e-09
1.43117e-09
1.44405e-09
1.45432e-09
1.46193e-09
1.46686e-09
1.4691e-09
1.46866e-09
1.46555e-09
1.45982e-09
1.45153e-09
1.44074e-09
1.42756e-09
1.41206e-09
1.39438e-09
1.37462e-09
1.35291e-09
1.3294e-09
1.30423e-09
1.27755e-09
1.24951e-09
1.22025e-09
1.18994e-09
1.15872e-09
1.12674e-09
1.09415e-09
1.06108e-09
1.02767e-09
9.94049e-10
9.60336e-10
9.26644e-10
8.93078e-10
8.59735e-10
8.26703e-10
7.94063e-10
7.61887e-10
7.30238e-10
6.99171e-10
6.68736e-10
6.38973e-10
6.09915e-10
5.8159e-10
5.54021e-10
5.27222e-10
5.01205e-10
4.75977e-10
4.5154e-10
4.27894e-10
4.05035e-10
3.82956e-10
3.61649e-10
3.41105e-10
3.21311e-10
3.02256e-10
2.83927e-10
2.66311e-10
2.49395e-10
2.33164e-10
2.17608e-10
2.02712e-10
1.88466e-10
1.74858e-10
1.61877e-10
1.49512e-10
1.37755e-10
1.26595e-10
1.16024e-10
1.06033e-10
9.66118e-11
8.77521e-11
7.94441e-11
7.16778e-11
6.44421e-11
5.77256e-11
5.15156e-11
4.57983e-11
4.05588e-11
3.57811e-11
3.14479e-11
2.75407e-11
2.404e-11
2.09252e-11
1.81748e-11
1.57667e-11
1.36781e-11
1.18857e-11
1.03661e-11
9.09587e-12
8.05141e-12
7.20955e-12
6.54741e-12
6.04263e-12
5.67347e-12
5.41893e-12
5.25884e-12
5.17402e-12
5.14638e-12
5.15903e-12
5.19643e-12
5.24451e-12
5.29081e-12
5.3246e-12
5.33695e-12
5.32085e-12
5.2712e-12
5.18483e-12
5.06042e-12
4.89841e-12
4.70084e-12
4.47108e-12
4.21368e-12
3.93398e-12
3.63793e-12
3.33168e-12
3.02139e-12
2.71292e-12
2.41164e-12
2.12225e-12
1.84864e-12
1.59386e-12
1.36007e-12
1.14856e-12
9.59846e-13
7.93746e-13
6.49485e-13
5.25823e-13
4.21183e-13
3.33765e-13
2.61654e-13
2.02913e-13
1.55657e-13
1.18109e-13
8.86401e-14
6.5795e-14
4.83003e-14
3.50656e-14
2.51749e-14
1.78727e-14
1.25466e-14
8.70879e-15
5.97678e-15
4.05546e-15
2.72067e-15
1.80471e-15
1.18402e-15
7.68993e-16
4.95657e-16
3.19228e-16
2.09109e-16
1.45223e-16
1.15439e-16
6.27102e-13
6.29667e-13
6.43497e-13
6.68658e-13
7.05408e-13
7.54191e-13
8.15638e-13
8.90569e-13
9.80001e-13
1.08516e-12
1.20748e-12
1.34866e-12
1.51062e-12
1.69557e-12
1.90602e-12
2.14479e-12
2.41508e-12
2.72045e-12
3.06491e-12
3.45293e-12
3.88947e-12
4.38006e-12
4.93084e-12
5.54861e-12
6.24089e-12
7.016e-12
7.88312e-12
8.85234e-12
9.93479e-12
1.11427e-11
1.24894e-11
1.39896e-11
1.56594e-11
1.75163e-11
1.95793e-11
2.18693e-11
2.44089e-11
2.72225e-11
3.03367e-11
3.37801e-11
3.75837e-11
4.17807e-11
4.64069e-11
5.15006e-11
5.71026e-11
6.32567e-11
7.00093e-11
7.74097e-11
8.55101e-11
9.43654e-11
1.04034e-10
1.14575e-10
1.26054e-10
1.38535e-10
1.52087e-10
1.6678e-10
1.82688e-10
1.99883e-10
2.18441e-10
2.38438e-10
2.59951e-10
2.83054e-10
3.07823e-10
3.34331e-10
3.62648e-10
3.92842e-10
4.24976e-10
4.59108e-10
4.95289e-10
5.33562e-10
5.73964e-10
6.16521e-10
6.61247e-10
7.08144e-10
7.57203e-10
8.08399e-10
8.61691e-10
9.17023e-10
9.74321e-10
1.03349e-09
1.09442e-09
1.15699e-09
1.22103e-09
1.28639e-09
1.35286e-09
1.42025e-09
1.48832e-09
1.55683e-09
1.62551e-09
1.69409e-09
1.76228e-09
1.82976e-09
1.89624e-09
1.96139e-09
2.02489e-09
2.08641e-09
2.14563e-09
2.20223e-09
2.2559e-09
2.30635e-09
2.35328e-09
2.39643e-09
2.43555e-09
2.47042e-09
2.50084e-09
2.52664e-09
2.54768e-09
2.56385e-09
2.57507e-09
2.5813e-09
2.58253e-09
2.57878e-09
2.57011e-09
2.55661e-09
2.5384e-09
2.51562e-09
2.48845e-09
2.4571e-09
2.42178e-09
2.38274e-09
2.34023e-09
2.29453e-09
2.24593e-09
2.19471e-09
2.14116e-09
2.08559e-09
2.02829e-09
1.96955e-09
1.90965e-09
1.84887e-09
1.78747e-09
1.72572e-09
1.66384e-09
1.60206e-09
1.5406e-09
1.47963e-09
1.41935e-09
1.3599e-09
1.30144e-09
1.24407e-09
1.18792e-09
1.13308e-09
1.07962e-09
1.0276e-09
9.7709e-10
9.28113e-10
8.80699e-10
8.34865e-10
7.90618e-10
7.47957e-10
7.06872e-10
6.67349e-10
6.29367e-10
5.92901e-10
5.57922e-10
5.24398e-10
4.92295e-10
4.61577e-10
4.32208e-10
4.04151e-10
3.77368e-10
3.51823e-10
3.27479e-10
3.04301e-10
2.82255e-10
2.61309e-10
2.4143e-10
2.22589e-10
2.04757e-10
1.87905e-10
1.72008e-10
1.57039e-10
1.42974e-10
1.29788e-10
1.17457e-10
1.05957e-10
9.5264e-11
8.53531e-11
7.61993e-11
6.77766e-11
6.00583e-11
5.30169e-11
4.66237e-11
4.08491e-11
3.56626e-11
3.10327e-11
2.69275e-11
2.33143e-11
2.01598e-11
1.74308e-11
1.5094e-11
1.31163e-11
1.14647e-11
1.01072e-11
9.01213e-12
8.14889e-12
7.4878e-12
7.00031e-12
6.65909e-12
6.43818e-12
6.31306e-12
6.26077e-12
6.26006e-12
6.2915e-12
6.3376e-12
6.38296e-12
6.41439e-12
6.42096e-12
6.39414e-12
6.32774e-12
6.21795e-12
6.06319e-12
5.86402e-12
5.6229e-12
5.34392e-12
5.03252e-12
4.69513e-12
4.33882e-12
3.97095e-12
3.59883e-12
3.22943e-12
2.8691e-12
2.52338e-12
2.19685e-12
1.89308e-12
1.61456e-12
1.3628e-12
1.13835e-12
9.4093e-13
7.69579e-13
6.22787e-13
4.98647e-13
3.94996e-13
3.09539e-13
2.39962e-13
1.84013e-13
1.39578e-13
1.04719e-13
7.77063e-14
5.70277e-14
4.13901e-14
2.97075e-14
2.10852e-14
1.47982e-14
1.02693e-14
7.04618e-15
4.7801e-15
3.20617e-15
2.12635e-15
1.3948e-15
9.05731e-16
5.83697e-16
3.7587e-16
2.46173e-16
1.70938e-16
1.35866e-16
1.12868e-12
1.13341e-12
1.1585e-12
1.20409e-12
1.27064e-12
1.35898e-12
1.47026e-12
1.60597e-12
1.76797e-12
1.95851e-12
2.18022e-12
2.43617e-12
2.72991e-12
3.06546e-12
3.44742e-12
3.88097e-12
4.37195e-12
4.92691e-12
5.55317e-12
6.25894e-12
7.05334e-12
7.94652e-12
8.94976e-12
1.00756e-11
1.13377e-11
1.27516e-11
1.43341e-11
1.61038e-11
1.80812e-11
2.02887e-11
2.27512e-11
2.54957e-11
2.85518e-11
3.19518e-11
3.57312e-11
3.99282e-11
4.45847e-11
4.9746e-11
5.54611e-11
6.17831e-11
6.87692e-11
7.6481e-11
8.49847e-11
9.43511e-11
1.04656e-10
1.1598e-10
1.2841e-10
1.42036e-10
1.56955e-10
1.73269e-10
1.91085e-10
2.10514e-10
2.31675e-10
2.54687e-10
2.79677e-10
3.06775e-10
3.36114e-10
3.67829e-10
4.02058e-10
4.38939e-10
4.78612e-10
5.21213e-10
5.66877e-10
6.15737e-10
6.67919e-10
7.2354e-10
7.82712e-10
8.45534e-10
9.12094e-10
9.82463e-10
1.0567e-09
1.13483e-09
1.21688e-09
1.30284e-09
1.39267e-09
1.48631e-09
1.58367e-09
1.68462e-09
1.789e-09
1.89663e-09
2.00727e-09
2.12066e-09
2.2365e-09
2.35445e-09
2.47413e-09
2.59514e-09
2.71702e-09
2.83929e-09
2.96146e-09
3.08299e-09
3.20331e-09
3.32186e-09
3.43805e-09
3.55127e-09
3.66092e-09
3.76641e-09
3.86714e-09
3.96252e-09
4.052e-09
4.13505e-09
4.21117e-09
4.27989e-09
4.34079e-09
4.3935e-09
4.4377e-09
4.47313e-09
4.49959e-09
4.51693e-09
4.52508e-09
4.52403e-09
4.51382e-09
4.49458e-09
4.46647e-09
4.42974e-09
4.38468e-09
4.33162e-09
4.27097e-09
4.20315e-09
4.12863e-09
4.04793e-09
3.96155e-09
3.87005e-09
3.77399e-09
3.67393e-09
3.57044e-09
3.46408e-09
3.3554e-09
3.24495e-09
3.13325e-09
3.02078e-09
2.90804e-09
2.79546e-09
2.68345e-09
2.5724e-09
2.46267e-09
2.35456e-09
2.24836e-09
2.14433e-09
2.04267e-09
1.94357e-09
1.84719e-09
1.75365e-09
1.66305e-09
1.57546e-09
1.49094e-09
1.40951e-09
1.33118e-09
1.25593e-09
1.18376e-09
1.11461e-09
1.04844e-09
9.85194e-10
9.248e-10
8.67187e-10
8.12275e-10
7.59984e-10
7.1023e-10
6.62926e-10
6.17987e-10
5.75328e-10
5.34864e-10
4.96514e-10
4.60196e-10
4.25833e-10
3.9335e-10
3.62676e-10
3.33742e-10
3.06482e-10
2.80833e-10
2.56736e-10
2.34134e-10
2.12971e-10
1.93194e-10
1.74754e-10
1.576e-10
1.41684e-10
1.26959e-10
1.13377e-10
1.00891e-10
8.94548e-11
7.90212e-11
6.95428e-11
6.0972e-11
5.32606e-11
4.63602e-11
4.0222e-11
3.47972e-11
3.0037e-11
2.58927e-11
2.23164e-11
1.92604e-11
1.66783e-11
1.45245e-11
1.27549e-11
1.13267e-11
1.01988e-11
9.33176e-12
8.68797e-12
8.23181e-12
7.92965e-12
7.75001e-12
7.66363e-12
7.64359e-12
7.66544e-12
7.70732e-12
7.75005e-12
7.77729e-12
7.7756e-12
7.73448e-12
7.64638e-12
7.50666e-12
7.31343e-12
7.06738e-12
6.77151e-12
6.43077e-12
6.05174e-12
5.64218e-12
5.21058e-12
4.7658e-12
4.31657e-12
3.87123e-12
3.43734e-12
3.0215e-12
2.62912e-12
2.26442e-12
1.93033e-12
1.62856e-12
1.35971e-12
1.12341e-12
9.18436e-13
7.42946e-13
5.94621e-13
4.70842e-13
3.68842e-13
2.85834e-13
2.19117e-13
1.66151e-13
1.24617e-13
9.24443e-14
6.78246e-14
4.92131e-14
3.53134e-14
2.50578e-14
1.75822e-14
1.21985e-14
8.36816e-15
5.67578e-15
3.80621e-15
2.52386e-15
1.65526e-15
1.07469e-15
6.92477e-16
4.45851e-16
2.91963e-16
2.02706e-16
1.61101e-16
2.00254e-12
2.01113e-12
2.05604e-12
2.13749e-12
2.25636e-12
2.41412e-12
2.61284e-12
2.85523e-12
3.14464e-12
3.48511e-12
3.8814e-12
4.33905e-12
4.86444e-12
5.46486e-12
6.14859e-12
6.925e-12
7.80464e-12
8.79936e-12
9.92242e-12
1.11886e-11
1.26146e-11
1.42186e-11
1.60211e-11
1.80449e-11
2.0315e-11
2.28592e-11
2.57082e-11
2.88959e-11
3.24594e-11
3.64399e-11
4.08822e-11
4.58357e-11
5.13544e-11
5.74973e-11
6.43287e-11
7.19189e-11
8.0344e-11
8.96868e-11
1.00037e-10
1.11491e-10
1.24155e-10
1.38139e-10
1.53567e-10
1.70566e-10
1.89276e-10
2.09845e-10
2.3243e-10
2.57198e-10
2.84325e-10
3.13997e-10
3.4641e-10
3.81769e-10
4.20287e-10
4.62185e-10
5.07694e-10
5.57049e-10
6.10493e-10
6.68271e-10
7.30633e-10
7.97831e-10
8.70113e-10
9.47728e-10
1.03092e-09
1.11992e-09
1.21495e-09
1.31622e-09
1.42393e-09
1.53824e-09
1.6593e-09
1.78723e-09
1.92212e-09
2.06401e-09
2.2129e-09
2.36877e-09
2.53151e-09
2.701e-09
2.87703e-09
3.05934e-09
3.24761e-09
3.44146e-09
3.64043e-09
3.844e-09
4.05157e-09
4.26249e-09
4.47603e-09
4.6914e-09
4.90775e-09
5.12416e-09
5.33968e-09
5.55329e-09
5.76395e-09
5.97058e-09
6.1721e-09
6.36738e-09
6.55532e-09
6.73483e-09
6.90482e-09
7.06427e-09
7.21217e-09
7.34759e-09
7.46966e-09
7.57758e-09
7.67066e-09
7.74829e-09
7.80997e-09
7.85531e-09
7.88404e-09
7.89601e-09
7.89119e-09
7.86968e-09
7.83167e-09
7.77751e-09
7.70763e-09
7.62258e-09
7.52302e-09
7.40968e-09
7.28337e-09
7.145e-09
6.9955e-09
6.83589e-09
6.66718e-09
6.49043e-09
6.30672e-09
6.11711e-09
5.92266e-09
5.72442e-09
5.5234e-09
5.32057e-09
5.11686e-09
4.91315e-09
4.71027e-09
4.50898e-09
4.30998e-09
4.1139e-09
3.92133e-09
3.73276e-09
3.54864e-09
3.36934e-09
3.19518e-09
3.02641e-09
2.86325e-09
2.70583e-09
2.55426e-09
2.4086e-09
2.26886e-09
2.13504e-09