/*--------------------------------*- C++ -*----------------------------------*\
| =========                 |                                                 |
| \\      /  F ield         | OpenFOAM: The Open Source CFD Toolbox           |
|  \\    /   O peration     | Version:  v2012                                 |
|   \\  /    A nd           | Website:  www.openfoam.com                      |
|    \\/     M anipulation  |                                                 |
\*---------------------------------------------------------------------------*/
FoamFile
{
    version     2.0;
    format      ascii;
    class       volScalarField;
    location    "0";
    object      p;
}
// * * * * * * * * * * * * * * * * * * * * * * * * * * * * * * * * * * * * * //

dimensions      [0 2 -2 0 0 0 0];


internalField   nonuniform List<scalar> 
4000
(
0.188958
0.167257
0.172322
0.186011
0.171009
0.204157
0.223868
0.178499
0.157816
0.142955
0.194725
0.201489
0.171157
0.100424
0.115777
0.149035
0.156343
0.0973514
0.0741415
0.0611061
-0.00153842
-0.048736
-0.0890715
-0.147994
-0.131342
-0.138043
-0.15205
-0.171767
-0.190904
-0.208169
-0.235946
-0.252804
-0.297714
-0.296484
-0.278769
-0.24879
-0.249456
-0.241174
-0.204504
-0.191728
-0.17414
-0.125863
-0.0797919
-0.070384
-0.0290902
-0.0162868
0.0496018
0.106606
0.124592
0.169006
0.198038
0.230952
0.203674
0.193806
0.229996
0.217483
0.230587
0.217984
0.219486
0.214583
0.204935
0.189842
0.185572
0.161678
0.163716
0.164222
0.148223
0.127852
0.0944664
0.0626616
0.0490591
0.0417458
0.0211089
0.0179278
-0.0057916
-0.0547442
-0.0410479
-0.0507756
-0.0801724
-0.0848351
-0.11955
-0.171657
-0.176411
-0.15371
-0.192225
-0.212817
-0.222932
-0.219944
-0.158663
-0.133314
-0.156975
-0.170383
-0.172746
-0.138902
-0.127939
-0.106725
-0.0806781
-0.0317067
-0.0337639
-0.00856502
0.170581
0.184098
0.176099
0.181324
0.175983
0.20222
0.19407
0.21221
0.169716
0.147979
0.199299
0.185423
0.15044
0.122681
0.152977
0.124741
0.144941
0.130886
0.0830561
0.0273253
-0.00581259
-0.0549663
-0.0794856
-0.133202
-0.123517
-0.140043
-0.148274
-0.16938
-0.203628
-0.231351
-0.231581
-0.261326
-0.298955
-0.296744
-0.291489
-0.256044
-0.242491
-0.232693
-0.185039
-0.185961
-0.168921
-0.135006
-0.104657
-0.0776128
-0.0412903
0.0040347
0.0443191
0.0948773
0.13775
0.176741
0.208316
0.231834
0.209006
0.191813
0.21638
0.229214
0.232495
0.214967
0.20518
0.212325
0.215585
0.209844
0.193595
0.150563
0.14902
0.154483
0.147641
0.129118
0.0943404
0.0801285
0.0565052
0.0459336
0.0111352
0.00656099
0.0099316
-0.0401432
-0.0324501
-0.0512474
-0.0912862
-0.0882773
-0.143607
-0.170407
-0.166562
-0.16925
-0.194453
-0.216291
-0.209929
-0.208898
-0.168082
-0.14484
-0.153306
-0.168699
-0.171485
-0.152323
-0.122083
-0.096798
-0.0820393
-0.0444189
-0.0240667
-0.0213986
0.168984
0.176951
0.178683
0.176351
0.178968
0.196187
0.200087
0.196742
0.168772
0.160617
0.203096
0.187442
0.146808
0.126201
0.13924
0.144037
0.140068
0.105807
0.073484
0.0403315
-0.00594142
-0.0595432
-0.0800497
-0.113114
-0.107017
-0.16293
-0.170143
-0.160655
-0.190412
-0.213179
-0.246812
-0.268476
-0.28433
-0.279043
-0.284559
-0.288265
-0.247191
-0.223138
-0.189547
-0.195687
-0.17665
-0.150273
-0.0928436
-0.0608077
-0.00807832
0.00641497
0.0342182
0.0769135
0.13077
0.170245
0.203534
0.225964
0.228552
0.1972
0.199012
0.2233
0.232535
0.221205
0.218322
0.217279
0.195701
0.186738
0.171256
0.168492
0.146093
0.147591
0.141637
0.121168
0.0988452
0.0845116
0.0366844
0.0280706
0.0186824
0.0028673
0.0166594
-0.0282364
-0.0394204
-0.0551552
-0.0746945
-0.104112
-0.142354
-0.180723
-0.179397
-0.174993
-0.191338
-0.208191
-0.189452
-0.189306
-0.176366
-0.144115
-0.15554
-0.169923
-0.157441
-0.155244
-0.125531
-0.105384
-0.0933556
-0.0587913
-0.01266
-0.0213274
0.160772
0.159403
0.182151
0.167855
0.189673
0.18759
0.177799
0.166937
0.191782
0.184221
0.194715
0.158437
0.156515
0.150422
0.139134
0.133494
0.144273
0.110625
0.0788036
0.0434512
-0.00666329
-0.0607985
-0.0941219
-0.0841829
-0.104014
-0.140556
-0.175355
-0.168313
-0.163662
-0.213346
-0.242521
-0.276888
-0.295739
-0.267779
-0.302511
-0.279631
-0.226457
-0.209667
-0.211446
-0.198309
-0.164814
-0.146508
-0.0950242
-0.0754045
-0.038003
0.0109856
0.0505128
0.0848707
0.126727
0.159096
0.188404
0.199554
0.209344
0.214262
0.211149
0.221349
0.204603
0.24003
0.231711
0.210832
0.186358
0.196953
0.189583
0.155441
0.14664
0.129637
0.138224
0.110912
0.0978542
0.0688056
0.0464536
0.0302766
-0.00278034
0.0102396
0.0235985
-0.0200719
-0.0556378
-0.0624702
-0.073414
-0.105302
-0.156369
-0.163019
-0.16143
-0.177504
-0.185138
-0.198101
-0.184826
-0.183463
-0.172803
-0.15886
-0.149472
-0.150075
-0.150476
-0.150199
-0.122234
-0.123873
-0.100441
-0.0724101
-0.0206716
-0.0166397
0.147311
0.14917
0.16568
0.153743
0.170345
0.176563
0.162963
0.169224
0.180804
0.185201
0.196804
0.16701
0.133828
0.146269
0.132313
0.127602
0.122715
0.0862075
0.0715849
0.0247831
0.0129014
-0.0535793
-0.0805621
-0.105944
-0.117988
-0.100221
-0.128202
-0.164365
-0.179856
-0.199388
-0.249871
-0.277809
-0.299883
-0.27054
-0.293453
-0.276154
-0.239949
-0.233321
-0.194488
-0.16826
-0.159867
-0.126854
-0.0958738
-0.0806783
-0.0629297
0.0224309
0.0483064
0.0655916
0.0996833
0.145065
0.179854
0.195301
0.192358
0.200106
0.221903
0.230718
0.20035
0.230695
0.251934
0.21498
0.175252
0.176345
0.183935
0.16109
0.139132
0.154371
0.143012
0.0946534
0.0914759
0.0511585
0.044021
0.0249995
0.00351718
0.00939974
0.00498324
-0.00324703
-0.0419868
-0.0587302
-0.0866357
-0.113866
-0.122013
-0.175128
-0.17183
-0.186638
-0.165256
-0.190096
-0.179322
-0.171905
-0.172523
-0.161238
-0.150121
-0.153063
-0.159073
-0.128608
-0.115041
-0.120824
-0.10562
-0.0761076
-0.0435877
-0.0297497
0.111727
0.130189
0.138385
0.140502
0.178972
0.186056
0.168629
0.16384
0.186038
0.167222
0.167169
0.173423
0.134122
0.122842
0.122099
0.140929
0.108964
0.0823005
0.0659396
0.0414045
-0.00126946
-0.0399974
-0.100194
-0.118202
-0.120295
-0.108679
-0.146346
-0.160933
-0.179034
-0.206419
-0.217912
-0.241918
-0.290712
-0.273025
-0.276756
-0.248109
-0.239237
-0.239844
-0.213057
-0.185174
-0.155904
-0.107844
-0.0917285
-0.071891
-0.0538428
0.00667026
0.0403864
0.0711087
0.106109
0.12448
0.171785
0.201617
0.196731
0.185219
0.213529
0.21428
0.210019
0.226285
0.225509
0.202205
0.185455
0.17737
0.182008
0.138749
0.145167
0.162323
0.139142
0.0990533
0.0834471
0.072045
0.0493142
0.0100697
0.0112394
0.0194428
0.000452019
-0.0208903
-0.0247683
-0.0609069
-0.105723
-0.124681
-0.138056
-0.164813
-0.16313
-0.174282
-0.165786
-0.182778
-0.177135
-0.17769
-0.1812
-0.175678
-0.161475
-0.154875
-0.155868
-0.124482
-0.12063
-0.118651
-0.094455
-0.0926238
-0.047749
-0.0272704
0.107641
0.110545
0.138904
0.140663
0.125416
0.135275
0.176296
0.166118
0.149639
0.157519
0.150609
0.163439
0.13055
0.121923
0.135651
0.119505
0.104411
0.0868736
0.0481919
0.0182897
-0.0397569
-0.0603396
-0.0675014
-0.113286
-0.120039
-0.102176
-0.137351
-0.158039
-0.172233
-0.207833
-0.217724
-0.22816
-0.28084
-0.272361
-0.276035
-0.239218
-0.232485
-0.252564
-0.216763
-0.163698
-0.154027
-0.112958
-0.0928758
-0.062682
-0.0423977
-0.000577606
0.0257179
0.0779568
0.123871
0.118291
0.124171
0.175596
0.193504
0.207577
0.217003
0.199521
0.201048
0.222357
0.205831
0.203235
0.181538
0.126588
0.149069
0.159955
0.163848
0.149314
0.140675
0.0908054
0.0550629
0.0550722
0.0641752
0.0284378
0.0168797
0.00833295
-0.00696135
-0.0118918
-0.0496297
-0.0548819
-0.0605266
-0.119027
-0.145096
-0.164302
-0.155778
-0.170537
-0.158754
-0.181552
-0.177786
-0.180179
-0.188125
-0.191801
-0.16418
-0.145079
-0.135211
-0.137076
-0.123237
-0.115452
-0.091752
-0.0923307
-0.0614665
-0.0153207
0.0681014
0.0784661
0.103293
0.112658
0.114634
0.145068
0.183186
0.142807
0.140115
0.15648
0.139649
0.150402
0.130428
0.113824
0.109633
0.1169
0.0976299
0.0662
0.0200759
-0.0146096
-0.051104
-0.052322
-0.047964
-0.0993872
-0.136642
-0.144383
-0.132786
-0.153118
-0.168987
-0.218589
-0.208479
-0.226116
-0.264997
-0.255613
-0.251896
-0.236236
-0.213889
-0.236254
-0.236851
-0.191891
-0.165316
-0.106092
-0.0514799
-0.0275003
-0.00861112
-0.000872811
0.0143502
0.078208
0.113525
0.0928517
0.158187
0.188376
0.181166
0.168331
0.1882
0.192686
0.189945
0.192611
0.178864
0.179748
0.163257
0.137965
0.153544
0.144059
0.149558
0.144602
0.150116
0.109193
0.0767642
0.0677735
0.0458951
0.0360771
0.0140123
-0.000242896
-0.000914679
-0.0350762
-0.0447291
-0.0601723
-0.0819132
-0.123314
-0.128469
-0.143426
-0.147815
-0.17042
-0.178144
-0.176144
-0.166609
-0.179935
-0.18531
-0.186498
-0.168759
-0.147911
-0.137855
-0.139335
-0.120345
-0.114575
-0.084411
-0.0823057
-0.0583625
-0.0335384
0.0627818
0.0522275
0.0893828
0.0956208
0.0903977
0.114152
0.139315
0.118186
0.12776
0.148952
0.118019
0.110148
0.123742
0.122723
0.111475
0.090154
0.0866463
0.0715436
0.0135089
-0.0219257
-0.068573
-0.0520958
-0.0694278
-0.132971
-0.116864
-0.113211
-0.144454
-0.171307
-0.176022
-0.196541
-0.182768
-0.211856
-0.25804
-0.24938
-0.251909
-0.243876
-0.218824
-0.210427
-0.215482
-0.161605
-0.093905
-0.105035
-0.0871171
-0.0572173
-0.0205436
-0.0140648
0.0162707
0.0687865
0.0964269
0.10976
0.140511
0.167597
0.160779
0.155914
0.204437
0.217807
0.185503
0.177992
0.148639
0.144223
0.130389
0.125316
0.148574
0.138089
0.140008
0.146067
0.153702
0.0991177
0.0694239
0.055405
0.0311114
0.0451839
0.00852824
0.0214362
-0.0105849
-0.0451348
-0.0504506
-0.0728943
-0.0926486
-0.107334
-0.123759
-0.14272
-0.132736
-0.167811
-0.164328
-0.144366
-0.157
-0.19113
-0.188522
-0.186126
-0.155071
-0.151303
-0.161164
-0.149082
-0.132654
-0.121462
-0.0764199
-0.068247
-0.0489397
-0.0191784
0.0506605
0.0461845
0.0540356
0.0654229
0.0752355
0.0985439
0.113906
0.0894529
0.121423
0.13623
0.129768
0.104653
0.106775
0.114194
0.128589
0.0797142
0.0604339
0.0640615
0.0259529
-0.0358995
-0.0856837
-0.083464
-0.0860466
-0.0877742
-0.10464
-0.141526
-0.131817
-0.162297
-0.174415
-0.194103
-0.175772
-0.19266
-0.21837
-0.242462
-0.270919
-0.233758
-0.197427
-0.167384
-0.192695
-0.167179
-0.128486
-0.126269
-0.0716655
-0.0545046
-0.0446268
0.0164149
0.0315445
0.0613034
0.0816176
0.105936
0.11689
0.142303
0.167576
0.179138
0.182019
0.194357
0.176298
0.157557
0.143312
0.14669
0.130153
0.126931
0.120833
0.132177
0.138642
0.142492
0.127254
0.0882794
0.052762
0.0589421
0.0513065
0.0185142
-0.00358747
-0.00176577
0.00274668
-0.0389965
-0.0388351
-0.0619609
-0.1213
-0.113113
-0.134018
-0.131651
-0.123467
-0.160299
-0.176786
-0.124599
-0.138768
-0.181211
-0.172718
-0.174239
-0.167691
-0.157191
-0.161279
-0.145725
-0.134593
-0.11983
-0.0905506
-0.062975
-0.0334052
-0.00864522
0.0377923
0.039926
0.0460569
0.0454862
0.063742
0.0942534
0.104411
0.0833594
0.105049
0.132179
0.124437
0.0865333
0.0967327
0.0751894
0.0572964
0.0917221
0.0826592
0.0490089
0.0258423
-0.00847256
-0.061286
-0.0981102
-0.117376
-0.109683
-0.102057
-0.128153
-0.148129
-0.141549
-0.141043
-0.189733
-0.197995
-0.209628
-0.193463
-0.206207
-0.222893
-0.203089
-0.182744
-0.172581
-0.196737
-0.132828
-0.105453
-0.100621
-0.0878272
-0.0598015
-0.0141802
0.0180192
0.0404172
0.0570648
0.062466
0.090838
0.108025
0.124251
0.14248
0.175015
0.191231
0.166694
0.17824
0.158685
0.128824
0.108364
0.114706
0.117977
0.120413
0.119866
0.122645
0.123879
0.0975695
0.0818297
0.076991
0.0438064
0.0272404
0.00553885
0.00619645
0.0167697
0.00559782
-0.0589466
-0.0464794
-0.0620254
-0.106228
-0.106161
-0.131348
-0.120698
-0.160001
-0.138371
-0.132942
-0.137312
-0.14796
-0.154296
-0.167213
-0.166865
-0.165715
-0.161149
-0.157262
-0.131123
-0.133812
-0.117337
-0.0856955
-0.0622157
-0.0287111
0.00474819
0.0178038
0.0312696
0.0450366
0.0422364
0.0541348
0.0730054
0.081149
0.0787559
0.0693662
0.0941078
0.100624
0.091968
0.111413
0.0700148
0.0670555
0.0656645
0.0456143
0.0193739
0.00877608
-0.0253515
-0.0644163
-0.0582566
-0.081161
-0.10218
-0.101653
-0.117329
-0.149185
-0.1367
-0.157183
-0.201141
-0.200926
-0.172271
-0.161633
-0.181281
-0.190915
-0.189808
-0.174968
-0.153271
-0.162391
-0.138916
-0.100877
-0.0921285
-0.0817512
-0.0552187
-0.00756951
0.00455195
0.0457199
0.0655157
0.0649336
0.0642383
0.0980927
0.12874
0.128694
0.153764
0.165419
0.145122
0.168541
0.134408
0.119912
0.113568
0.110642
0.107158
0.117032
0.118704
0.0987601
0.106788
0.100217
0.090008
0.0428771
0.0172467
0.0338965
0.0359299
-0.00369136
-0.0189651
0.00936231
-0.0181838
-0.0481493
-0.0847647
-0.0700451
-0.0724721
-0.128756
-0.132263
-0.149156
-0.135024
-0.140117
-0.139967
-0.140521
-0.153296
-0.153222
-0.139983
-0.174209
-0.168914
-0.16266
-0.137803
-0.119548
-0.0850802
-0.0659358
-0.0735502
-0.0440186
-0.0221222
0.012544
0.0213977
0.0180253
0.0320164
0.0311927
0.0512365
0.0873911
0.0840565
0.0771502
0.0764043
0.0542612
0.0732251
0.106113
0.0663744
0.0580439
0.0441516
0.0300672
0.00804026
0.016897
0.00790446
-0.0743382
-0.0975671
-0.123309
-0.0912281
-0.075021
-0.170497
-0.146008
-0.118055
-0.157098
-0.156447
-0.16824
-0.18885
-0.16611
-0.161093
-0.16574
-0.164826
-0.166876
-0.127549
-0.132968
-0.136691
-0.110071
-0.0984335
-0.0638866
-0.0223815
0.02561
-0.00804217
0.0220978
0.0711753
0.0820194
0.0652631
0.0801902
0.0838672
0.101011
0.110377
0.139061
0.141332
0.141142
0.122079
0.106562
0.113575
0.114656
0.107733
0.0808303
0.0838469
0.0938312
0.10417
0.0848246
0.0666272
0.0331851
0.0255347
0.0147505
0.0325691
0.0282127
0.0195733
0.00347288
-0.0322796
-0.0524597
-0.0713369
-0.0732307
-0.118374
-0.126519
-0.142635
-0.1197
-0.122571
-0.140148
-0.146249
-0.14362
-0.149777
-0.13371
-0.116611
-0.146863
-0.161651
-0.158658
-0.121949
-0.108306
-0.0872668
-0.0711413
-0.0804496
-0.0575458
-0.0141458
0.00722502
0.00822556
-0.00857428
0.00506517
0.0243896
0.0492125
0.0765316
0.0656053
0.0605158
0.0549555
0.0637096
0.0739847
0.0949233
0.0752481
0.0439859
0.0303274
0.00871487
-0.0319564
-0.0142791
0.0014202
0.0151507
-0.00919633
-0.0891875
-0.103868
-0.0949052
-0.134355
-0.154495
-0.166602
-0.160678
-0.15599
-0.138138
-0.166096
-0.130857
-0.128405
-0.15296
-0.148218
-0.122341
-0.137957
-0.148444
-0.150906
-0.0975748
-0.0783913
-0.029214
-0.0290553
-0.0322891
1.2703e-05
0.0338975
0.0412076
0.0624856
0.0701606
0.0951204
0.0779204
0.0842713
0.0715404
0.139834
0.129777
0.126778
0.0988288
0.0828906
0.106731
0.0935089
0.0778819
0.076656
0.0908634
0.0885563
0.0769408
0.0670501
0.0578717
0.041274
0.0150517
0.0132937
0.0378419
0.0276182
-0.000414954
-0.01285
-0.0249203
-0.0626407
-0.0791287
-0.0927443
-0.105705
-0.110785
-0.145159
-0.144112
-0.129711
-0.140794
-0.128613
-0.140032
-0.126144
-0.105641
-0.120456
-0.13566
-0.152962
-0.124816
-0.103807
-0.111728
-0.107586
-0.0778137
-0.0691091
-0.0418873
-0.00958591
0.00721907
-0.00984401
-0.0351718
-0.00419128
0.00473742
0.0363024
0.0434401
0.053564
0.0451845
0.0631278
0.0814163
0.0733081
0.0880707
0.05524
0.0170762
0.0274253
0.0229432
0.0120833
-0.00614052
0.00320304
-0.033405
-0.0631501
-0.0763711
-0.121755
-0.0999046
-0.113323
-0.107021
-0.144834
-0.15227
-0.159368
-0.137731
-0.129873
-0.114274
-0.143847
-0.141853
-0.15544
-0.136286
-0.126524
-0.101084
-0.112688
-0.119919
-0.0747888
-0.0394639
-0.0258596
-0.0168869
0.0158513
0.0368249
0.0530218
0.05262
0.0334479
0.0419638
0.0309674
0.0637483
0.0800689
0.0932136
0.0969111
0.142613
0.0957762
0.0780491
0.0804508
0.095096
0.0554761
0.0504669
0.0664435
0.0602541
0.0485945
0.0487871
0.0543269
0.0414621
0.0309283
0.0236409
0.0261145
0.0177995
-0.0055456
-0.00360035
-0.0420989
-0.0858872
-0.0672676
-0.0844813
-0.105806
-0.0966171
-0.137488
-0.137897
-0.143039
-0.138194
-0.141984
-0.120538
-0.0948929
-0.0836655
-0.119848
-0.121564
-0.12857
-0.106556
-0.0879809
-0.101051
-0.125032
-0.0784517
-0.0649073
-0.0366689
-0.00574686
-0.0149783
-0.0164168
-0.02987
-0.0285994
-0.0167644
0.00643104
0.0634402
0.0446034
0.0298302
0.0390645
0.035904
0.0412272
0.0519706
0.0530638
0.0462866
0.0399829
0.00320562
-0.0124125
-0.0257479
0.02484
0.00518471
-0.0419125
-0.0846766
-0.0869122
-0.101526
-0.107668
-0.0839282
-0.141681
-0.138496
-0.13587
-0.131662
-0.112068
-0.128328
-0.120869
-0.104318
-0.141946
-0.14882
-0.113408
-0.0859894
-0.101202
-0.114692
-0.0838609
-0.0379604
-0.040484
-0.0163474
0.0370965
0.0388237
0.0320276
0.0155421
0.0405865
0.0466634
0.0366276
0.0542521
0.0613561
0.072622
0.0709838
0.100713
0.0678957
0.0803266
0.0677632
0.0720269
0.0399978
0.0392022
0.0434086
0.0397644
0.0638233
0.0381019
0.020187
0.029689
0.0339934
-0.000511926
0.00180697
0.0165923
0.0110744
-0.0124773
-0.0373771
-0.0599441
-0.0744555
-0.0869421
-0.11117
-0.0922953
-0.10167
-0.135624
-0.121144
-0.118493
-0.118476
-0.111243
-0.0795924
-0.0799374
-0.109909
-0.0944774
-0.108982
-0.108243
-0.0791761
-0.113941
-0.0945241
-0.0825864
-0.0501003
-0.0454591
-0.0157235
-0.0293199
-0.0257344
-0.0445156
-0.0449594
-0.041777
0.0129777
0.02068
0.0321525
0.0433444
0.0338765
0.0255467
0.045791
0.0476201
0.036228
0.052993
0.0206755
-0.0240032
0.0198617
-0.00547601
-0.00869309
-0.0349373
-0.0477061
-0.0493513
-0.0615067
-0.0921836
-0.102789
-0.0840461
-0.132572
-0.124635
-0.119235
-0.101222
-0.094416
-0.1316
-0.136401
-0.105068
-0.113984
-0.113825
-0.0761022
-0.0521235
-0.0821245
-0.110401
-0.0937371
-0.0372716
-0.0230035
-0.00803065
0.0288391
0.0229301
0.0294053
-0.00598908
0.0275955
0.0487902
0.0443808
0.0231522
0.0412244
0.0426528
0.0589428
0.0665325
0.0641136
0.0657821
0.0321673
0.0253685
0.0097686
0.0395551
0.0348664
0.0471882
0.0418943
0.0333276
0.0267357
0.00607593
0.00647353
0.0105249
0.00335847
0.0198863
0.0123472
-0.000984237
-0.0514237
-0.067006
-0.0711295
-0.071281
-0.0794437
-0.0717188
-0.0927173
-0.126261
-0.109421
-0.124219
-0.102907
-0.0647981
-0.0677652
-0.0627363
-0.0701149
-0.0915287
-0.105864
-0.102404
-0.0664761
-0.0949571
-0.087424
-0.0736311
-0.043015
-0.0309302
-0.0114375
-0.0347147
-0.0536852
-0.0489802
-0.015289
-0.0223571
-0.000715431
-0.00633209
-0.00798681
0.00182822
0.0146541
0.0316199
0.0472502
0.0425041
0.0204908
0.0124052
-0.00982048
-0.011658
0.0105463
0.0101489
-0.00476286
0.0123935
-0.0455428
-0.0651835
-0.0666337
-0.0694131
-0.0928702
-0.0787605
-0.0933745
-0.101674
-0.092689
-0.0994784
-0.0862667
-0.0766068
-0.092582
-0.120205
-0.105867
-0.0756328
-0.0569814
-0.057776
-0.0699377
-0.0886311
-0.0633577
-0.034894
-0.0178689
0.00921154
0.0458693
0.0324672
-0.0258438
0.00243324
0.012668
0.0560973
0.0534501
0.0158131
0.0217451
0.00688636
0.0216048
0.0371332
0.0472821
0.0330925
0.00792743
0.0283953
0.00379011
0.0150276
0.0179332
0.0175484
0.0275761
0.0192884
0.00803824
-0.0179339
-0.0120947
-0.0199447
0.022915
0.0234381
0.00656772
0.000273216
-0.0233465
-0.0277151
-0.0533991
-0.0583687
-0.071756
-0.0804269
-0.0779362
-0.0793041
-0.0672859
-0.11833
-0.0922667
-0.0651366
-0.0361937
-0.0373637
-0.0709676
-0.0938031
-0.0955757
-0.0769971
-0.056761
-0.0798845
-0.0717318
-0.0791079
-0.0252958
-0.017538
-0.00870931
-0.0564909
-0.0449268
-0.0479077
-0.0596136
-0.0396966
-0.00925184
-0.0124912
-0.0166306
0.0101168
0.0315826
0.00769364
0.00227279
0.0237901
0.0224427
0.0124795
-0.012481
-0.0120018
0.00391707
0.00319688
-0.0391517
-0.0157536
-0.0310685
-0.0359497
-0.0410378
-0.05429
-0.0853117
-0.0577173
-0.0618908
-0.0729561
-0.0610218
-0.0801117
-0.0957807
-0.108299
-0.098156
-0.078159
-0.0773725
-0.031716
-0.0376217
-0.0657616
-0.0820221
-0.055514
-0.0154571
-0.0229044
-0.000202386
0.00156187
0.00719981
0.0116295
-0.00854042
0.0109226
-0.00473355
0.0277349
0.0480234
-0.00258913
0.00920311
0.00633648
0.00984108
0.0215573
0.00247152
-0.0140181
0.00569143
0.0119603
0.000901164
0.00588982
-0.0122407
-0.00279001
0.00862728
0.0281503
-0.0127446
-0.0161871
-0.0173336
-0.00443633
0.0183365
0.00725253
0.00751696
-0.000268155
-0.00924146
-0.00788038
-0.0462712
-0.0540298
-0.0843117
-0.0544924
-0.0603121
-0.0777014
-0.0707559
-0.0803579
-0.0448484
-0.0249337
-0.0249261
-0.0266607
-0.0579793
-0.0711379
-0.0594585
-0.0617886
-0.0643217
-0.0769879
-0.0579954
-0.045577
-0.0307682
-0.0109006
0.0032564
-0.0757954
-0.0678514
-0.0331032
-0.0557313
-0.0568451
-0.0190366
-0.0194707
-0.010821
0.00399507
0.00104362
-0.0157618
-0.00430309
-0.00216815
-0.00793182
0.00532776
0.000585277
-0.0180451
-0.0292079
-0.0170895
0.0063266
0.0157575
-0.00952007
-0.0431911
-0.055497
-0.0557945
-0.0447501
-0.0353114
-0.0327545
-0.044616
-0.0702375
-0.0620946
-0.0629274
-0.0497352
-0.0556579
-0.0520152
-0.0633672
-0.047764
-0.0212341
-0.0475574
-0.094552
-0.0719146
-0.00637658
0.0168444
0.0145978
0.0060541
-0.00819032
0.00426321
0.00256073
0.0026344
-0.00884399
0.0335347
0.0315293
0.000758335
-0.0178393
-0.00577958
-0.0216281
-0.00470874
-0.00263479
-0.0230768
-0.0188893
-0.0256302
-0.0100773
-0.00785848
-0.00137313
-0.00306743
-0.0146289
0.0228322
-0.00454616
-0.015705
-0.0214102
-0.0190874
0.00606961
-0.0189947
-0.016771
0.0125324
-0.00348781
-0.0112314
-0.0275288
-0.0180249
-0.07396
-0.0462235
-0.0495713
-0.0570255
-0.0406797
-0.0449848
-0.0101403
-0.021911
-0.0252464
-0.0132118
-0.0469684
-0.035476
-0.0381576
-0.0614661
-0.059611
-0.049282
-0.0452829
-0.0451598
-0.0340666
0.00229038
0.0124307
-0.0811241
-0.0847037
-0.0490163
-0.0635208
-0.075984
-0.0316425
-0.00924883
-0.0344025
-0.02378
-0.0315801
-0.00744675
-0.00075112
-0.00739002
-0.00778847
-0.00911001
-0.0286679
0.00263734
-0.0285903
-0.0131058
0.00218091
0.00987377
0.000562299
-0.0433824
-0.0483641
-0.0447238
-0.021243
-0.00881036
-0.0139225
-0.0272904
-0.0373564
-0.0407068
-0.0441449
-0.0255195
-0.0471019
-0.0227126
-0.0499492
-0.0255808
-0.00917034
-0.0128527
-0.0342109
-0.0350078
-0.0256765
-0.00428355
-0.00597807
-0.0118112
0.00433364
0.00490546
0.00708149
-0.00348719
-0.0108499
0.0247741
0.0204813
-0.0138331
-0.0223681
-0.0121016
-0.00890924
-0.0394515
-0.0313697
-0.0251367
-0.0272773
-0.0189423
-0.0348686
-0.0357082
-0.0598255
-0.0217766
0.0436695
0.0378124
-0.0375972
-0.0165735
-0.0172596
-0.00640092
-0.0010426
-0.0229809
-0.00178272
0.00911754
0.00940225
-0.0148332
-0.0230864
-0.0213775
-0.0283102
-0.061558
-0.0419903
-0.0320065
-0.0241045
-0.0347403
0.00194345
0.00466119
0.0159543
0.00403165
-0.0176284
-0.0198769
-0.0465234
-0.043934
-0.0173024
-0.028644
-0.0637573
-0.0523266
-0.056728
-0.00457334
8.04079e-05
-0.0891385
-0.0896316
-0.0710073
-0.0739191
-0.0757249
-0.0501178
-0.0184122
-0.0478583
-0.0333463
-0.0335638
-0.0326677
-0.0420321
-0.0219658
-0.0148752
-0.00954547
-0.00260133
-0.0102288
-0.0355493
-0.038824
0.02106
0.0438994
0.0486898
-0.0148697
-0.0464814
-0.0656691
-0.0105017
0.018915
0.025331
0.00736687
-0.0152606
-0.0106522
-0.0207473
-0.0112529
-0.0324495
-0.0299326
-0.0093798
0.0202226
0.00443037
-0.0135842
-0.0346502
-0.0179485
-0.0291452
0.00011393
0.000792281
0.00238109
-0.000352828
-0.0228469
-0.0172023
-0.0228241
-0.00458197
0.0257485
0.0133401
-0.020554
0.00786849
-0.0298361
-0.0468115
-0.0756159
-0.0659746
-0.0648432
-0.0351438
-0.012702
-0.0334187
-0.0381364
-0.0484112
-0.0223686
-0.000605913
0.00892982
-0.00357055
-0.017617
-0.0352586
-0.0283268
-0.0111449
0.00415038
-0.0118187
0.0033462
0.0133185
0.0104122
-0.0143848
-0.0230402
-0.0120407
-0.0310482
-0.0371348
-0.0325466
0.00918675
0.00171926
0.00680509
0.0228875
0.0175654
0.0163807
0.0117638
-0.0149744
-0.0270329
-0.0153973
-0.00790821
0.00281032
-0.0432874
-0.0476094
-0.0506366
-0.0274819
-0.0112279
-0.103242
-0.104317
-0.0960857
-0.0739982
-0.06272
-0.0671272
-0.0614856
-0.078216
-0.0415069
-0.0335627
-0.0348142
-0.0385837
-0.0366847
-0.00749483
-0.00910202
-0.0120627
-0.015214
-0.0193342
-0.00993289
0.0186839
0.0455301
0.0155619
-0.0241534
-0.00663419
0.0152081
0.0210326
0.000504534
0.0140451
0.00922096
0.0216187
0.0233162
-0.0179357
-0.0137923
0.00547814
0.0365219
0.0287189
0.02546
0.0273288
0.000917004
-0.0202338
-0.00276064
-0.0130896
-0.0133641
-0.00367708
0.00331506
0.0108102
-0.00369859
-0.019179
-0.022965
-0.012827
-0.0241608
-0.0045209
-0.0114362
-0.00679825
-0.0522346
-0.0834834
-0.084039
-0.0791897
-0.0661666
-0.0484714
-0.0653267
-0.061692
-0.0325166
-0.0209935
-0.0574563
-0.0208818
-0.0130123
-0.0274396
-0.0235433
-0.0169676
-0.0220055
-0.0184486
0.0121818
0.0228192
0.0053803
0.00725663
0.0177653
-0.00132711
-0.00912732
0.0018648
-0.00790548
-0.0246231
-0.0491889
0.00562639
0.040374
0.0282173
0.0442102
0.0463475
0.0134652
0.0276382
-0.0100853
0.00205371
0.0230811
0.0397142
-0.000137725
-0.0257256
-0.0450675
-0.0379476
-0.0350924
-0.0246841
-0.114074
-0.123667
-0.108254
-0.0890996
-0.0582321
-0.0639788
-0.0658787
-0.0643077
-0.0445511
-0.045156
-0.0413071
-0.0687956
-0.0552239
-0.0114998
-0.0256572
0.00234128
0.015741
0.00162552
-0.0275063
0.00176246
0.078378
0.0635743
-0.000315042
0.00483177
0.0228888
0.0332701
0.00984832
0.039235
0.0833058
0.0278415
0.0154695
0.0442453
0.0536827
0.0205314
0.0245575
0.0512351
0.0501207
0.0427884
-0.00719065
-0.00198707
-0.000775513
-0.012326
0.00358789
0.0128567
0.0119429
0.00308505
-0.0228711
-0.020685
-0.0286806
-0.0328825
-0.00890496
-0.0212162
-0.0361607
-0.0639646
-0.0570232
-0.084839
-0.105715
-0.0912947
-0.0767475
-0.0701856
-0.0475942
-0.0551016
-0.0530652
-0.0653645
-0.0427136
-0.0355786
-0.0278737
-0.0173524
-0.0270727
-0.0180579
-0.021833
0.00805915
-0.000137284
0.00729076
-0.00105711
0.0236753
0.0328061
0.0198332
0.0115552
0.00210157
-0.00592216
-0.00484521
0.0057171
0.0499715
0.0489307
0.0347616
0.0426977
0.0480484
0.0271757
-0.00394476
0.00794302
0.0242674
0.0354847
0.0532945
0.0406036
-0.00804459
-0.0508307
-0.0485687
-0.0395395
0.00134789
-0.124233
-0.131412
-0.093775
-0.08385
-0.0943604
-0.104423
-0.0671427
-0.0901067
-0.0590832
-0.0348776
-0.0587154
-0.0632298
-0.0565238
-0.0227362
-0.00845604
-0.0121705
-0.000837115
0.0498046
0.0144166
-0.00983232
0.0298415
0.0463532
0.0330547
0.0459967
0.0528242
0.055088
0.0636646
0.0314956
0.0396955
0.0424318
0.0799685
0.0683479
0.0583422
0.0600461
0.0838109
0.0704125
0.0519908
0.0408197
-0.00135129
0.0170663
0.0182601
0.0131211
0.00677276
0.0107439
-0.000442528
-0.00491913
-0.0338724
-0.0145795
0.0127394
-0.0511649
-0.0693837
-0.0318389
-0.0636083
-0.0583986
-0.036419
-0.100227
-0.116362
-0.11171
-0.0958871
-0.0914897
-0.0861886
-0.0917921
-0.091898
-0.074474
-0.0494545
-0.034154
-0.0496172
-0.0281548
-0.0456537
-0.0239411
-0.00670714
0.0194796
0.00990401
0.0121952
-0.00547786
0.0416649
0.0452954
0.0281801
0.0289226
0.0210166
0.0173085
0.0321479
0.0492282
0.0414437
0.0305814
0.0301075
0.0623774
0.0618384
0.0386567
0.0333385
0.0401915
0.0446103
0.0192446
0.0203349
0.0316849
0.0105391
-0.0171244
-0.0535501
-0.0529816
-0.00275201
-0.133661
-0.125261
-0.113626
-0.101428
-0.101288
-0.0981711
-0.0810214
-0.107318
-0.0890717
-0.0536382
-0.0539195
-0.0380421
-0.0302261
-0.0353857
-0.0550182
-0.00762474
0.0141705
0.0686529
0.0172018
0.00965186
0.0715562
0.0394585
0.0454381
0.074052
0.0654996
0.0731384
0.0929316
0.0717708
0.0645927
0.0636319
0.0887759
0.104156
0.0927892
0.0992473
0.0872319
0.0845482
0.0804431
0.0683732
0.0250257
0.0217952
0.0315385
0.0288289
0.0105741
0.0260528
0.00065881
-0.0232687
-0.0177993
-0.0401283
-0.0306755
-0.0628156
-0.0414033
-0.0799194
-0.055088
-0.0811186
-0.0852114
-0.0914515
-0.119882
-0.133676
-0.124898
-0.111963
-0.113736
-0.094535
-0.0971866
-0.0817158
-0.0684982
-0.0471745
-0.0328296
-0.0395469
-0.0575959
-0.0303104
0.000171261
0.0134724
0.0241154
0.0105296
0.0211366
0.0401062
0.0283809
0.0490395
0.0612068
0.0511456
0.0355405
0.046912
0.0432554
0.064395
0.0614448
0.0574885
0.0733715
0.0572685
0.0513837
0.0316708
0.036166
0.0509455
0.0516946
0.0459627
0.0320588
-0.00251909
-0.00572592
-0.0413455
-0.045705
-0.0185441
-0.125099
-0.130745
-0.142652
-0.126136
-0.110871
-0.0994093
-0.0488397
-0.0838648
-0.0860674
-0.103795
-0.112306
-0.0583708
-0.0338629
-0.0415453
-0.00916858
0.016419
0.0219707
0.0443525
0.0283541
0.0349947
0.0643708
0.0565326
0.0927245
0.116768
0.0764631
0.0650323
0.0792409
0.112493
0.079942
0.101563
0.132537
0.131719
0.138526
0.14898
0.116159
0.0830369
0.0723492
0.0413575
0.0387014
0.0472472
0.0560189
0.047326
0.037672
0.0329724
0.013234
-0.0229386
-0.0226453
-0.0457635
-0.0352597
-0.0579037
-0.0611499
-0.080702
-0.0820809
-0.0849063
-0.0979885
-0.112388
-0.118927
-0.122926
-0.125682
-0.119278
-0.147395
-0.129676
-0.132339
-0.128607
-0.0970397
-0.0541534
-0.0154829
-0.0329999
-0.053608
-0.0518156
-0.00819747
0.0234842
0.0413464
0.0478659
0.0256857
0.0268959
0.0258835
0.0679933
0.0712032
0.080891
0.0565663
0.0814014
0.080888
0.0696895
0.0670984
0.0612273
0.0663233
0.0701934
0.0637485
0.0460724
0.0493182
0.0689043
0.0519295
0.0397308
0.0284106
0.0113767
0.0104695
-0.0129677
-0.0316423
-0.0166238
-0.125409
-0.138555
-0.155251
-0.133446
-0.121214
-0.0988846
-0.0843094
-0.0907711
-0.121397
-0.118043
-0.0908782
-0.0476316
-0.0207491
-0.0413437
-0.0354085
-0.0143194
0.0389104
0.0824322
0.071032
0.0271817
0.0593937
0.0718548
0.103188
0.106243
0.0845757
0.102938
0.0892698
0.103618
0.10378
0.131332
0.162406
0.159151
0.146125
0.127407
0.130696
0.117289
0.0792958
0.0732753
0.0762443
0.107079
0.0944014
0.0614481
0.0380012
0.0278946
0.0243519
-0.0164098
-0.0133613
-0.0464233
-0.0493513
-0.0848399
-0.0880297
-0.0943137
-0.0754357
-0.0567401
-0.103478
-0.140547
-0.142547
-0.142661
-0.157127
-0.138123
-0.158217
-0.138617
-0.140368
-0.137104
-0.109199
-0.066051
-0.0622334
-0.0314876
-0.0507856
-0.0482306
-0.00933746
0.0227468
0.0506378
0.0380626
0.0262716
0.0279488
0.0261102
0.0801429
0.105861
0.0909883
0.0696258
0.0966878
0.102308
0.0834798
0.0797393
0.0806112
0.089115
0.0992316
0.101189
0.0512589
0.0551207
0.0805195
0.0328307
0.0350701
0.0563006
0.0387011
0.0162814
-0.0146795
-0.0163924
-0.0155341
-0.131306
-0.135336
-0.151863
-0.147321
-0.121669
-0.135523
-0.131929
-0.117904
-0.0894055
-0.100121
-0.0786899
-0.0521301
-0.0446109
-0.0363241
-0.022944
0.0190533
0.0408566
0.079097
0.0424307
0.0120141
0.0912875
0.111336
0.112763
0.093375
0.084044
0.116627
0.105028
0.122008
0.14393
0.182302
0.19445
0.174063
0.172803
0.143293
0.124532
0.124082
0.105887
0.0942979
0.104495
0.121278
0.0953422
0.0918698
0.0555689
0.0271883
0.0153473
0.00592635
-0.00322351
-0.0284252
-0.0562493
-0.0722925
-0.0946119
-0.0902623
-0.099739
-0.0856232
-0.120502
-0.124555
-0.155919
-0.15884
-0.170825
-0.184977
-0.166624
-0.144869
-0.157732
-0.140626
-0.0924502