/*--------------------------------*- C++ -*----------------------------------*\
| =========                 |                                                 |
| \\      /  F ield         | OpenFOAM: The Open Source CFD Toolbox           |
|  \\    /   O peration     | Version:  v2012                                 |
|   \\  /    A nd           | Website:  www.openfoam.com                      |
|    \\/     M anipulation  |                                                 |
\*---------------------------------------------------------------------------*/
FoamFile
{
    version     2.0;
    format      ascii;
    class       surfaceScalarField;
    location    "18.25";
    object      phi;
}
// * * * * * * * * * * * * * * * * * * * * * * * * * * * * * * * * * * * * * //

dimensions      [0 3 -1 0 0 0 0];
oriented        oriented;


internalField   nonuniform List<scalar> 
130560
(
3.2302e-06
-3.2302e-06
6.46057e-06
-3.23037e-06
9.69128e-06
-3.2307e-06
1.29225e-05
-3.23119e-06
1.61543e-05
-3.23185e-06
1.9387e-05
-3.23267e-06
2.26206e-05
-3.23365e-06
2.58554e-05
-3.23478e-06
2.90915e-05
-3.23607e-06
3.2329e-05
-3.23752e-06
3.55681e-05
-3.23911e-06
3.8809e-05
-3.24085e-06
4.20517e-05
-3.24274e-06
4.52965e-05
-3.24476e-06
4.85434e-05
-3.24692e-06
5.17926e-05
-3.2492e-06
5.50442e-05
-3.25161e-06
5.82983e-05
-3.25414e-06
6.15551e-05
-3.25678e-06
6.48146e-05
-3.25952e-06
6.8077e-05
-3.26237e-06
7.13423e-05
-3.26531e-06
7.46106e-05
-3.26833e-06
7.78821e-05
-3.27143e-06
8.11567e-05
-3.27459e-06
8.44345e-05
-3.27781e-06
8.77155e-05
-3.28108e-06
9.09999e-05
-3.28439e-06
9.42877e-05
-3.28773e-06
9.75787e-05
-3.29108e-06
0.000100873
-3.29444e-06
0.000104171
-3.29779e-06
0.000107472
-3.30113e-06
0.000110777
-3.30443e-06
0.000114084
-3.30768e-06
0.000117395
-3.31087e-06
0.000120709
-3.31399e-06
0.000124026
-3.31701e-06
0.000127346
-3.31993e-06
0.000130669
-3.32272e-06
0.000133994
-3.32537e-06
0.000137322
-3.32786e-06
0.000140652
-3.33017e-06
0.000143984
-3.33229e-06
0.000147319
-3.33418e-06
0.000150654
-3.33584e-06
0.000153992
-3.33723e-06
0.00015733
-3.33834e-06
0.000160669
-3.33915e-06
0.000164009
-3.33962e-06
0.000167349
-3.33974e-06
0.000170688
-3.33949e-06
0.000174027
-3.33883e-06
0.000177365
-3.33774e-06
0.000180701
-3.33619e-06
0.000184035
-3.33415e-06
0.000187367
-3.33161e-06
0.000190695
-3.32852e-06
0.00019402
-3.32486e-06
0.000197341
-3.3206e-06
0.000200656
-3.3157e-06
0.000203966
-3.31014e-06
0.00020727
-3.30389e-06
0.000210567
-3.2969e-06
0.000213856
-3.28916e-06
0.000217137
-3.28062e-06
0.000220408
-3.27126e-06
0.000223669
-3.26103e-06
0.000226919
-3.24991e-06
0.000230157
-3.23786e-06
0.000233382
-3.22484e-06
0.000236593
-3.21083e-06
0.000239788
-3.19579e-06
0.000242968
-3.17967e-06
0.000246131
-3.16246e-06
0.000249275
-3.14411e-06
0.000252399
-3.12459e-06
0.000255503
-3.10387e-06
0.000258585
-3.08191e-06
0.000261644
-3.05868e-06
0.000264678
-3.03415e-06
0.000267686
-3.00829e-06
0.000270667
-2.98107e-06
0.00027362
-2.95246e-06
0.000276542
-2.92244e-06
0.000279433
-2.89096e-06
0.000282291
-2.85802e-06
0.000285115
-2.82358e-06
0.000287902
-2.78763e-06
0.000290652
-2.75013e-06
0.000293364
-2.71108e-06
0.000296034
-2.67046e-06
0.000298662
-2.62824e-06
0.000301247
-2.58443e-06
0.000303786
-2.539e-06
0.000306278
-2.49195e-06
0.000308721
-2.44327e-06
0.000311114
-2.39296e-06
0.000313455
-2.34103e-06
0.000315742
-2.28746e-06
0.000317975
-2.23227e-06
0.00032015
-2.17546e-06
0.000322267
-2.11705e-06
0.000324324
-2.05705e-06
0.00032632
-1.99547e-06
0.000328252
-1.93234e-06
0.00033012
-1.86768e-06
0.000331921
-1.80152e-06
0.000333655
-1.73389e-06
0.00033532
-1.66481e-06
0.000336914
-1.59434e-06
0.000338437
-1.5225e-06
0.000339886
-1.44934e-06
0.000341261
-1.37491e-06
0.00034256
-1.29925e-06
0.000343783
-1.22243e-06
0.000344927
-1.14449e-06
0.000345993
-1.06549e-06
0.000346978
-9.8549e-07
0.000347883
-9.04559e-07
0.000348705
-8.22762e-07
0.000349446
-7.40165e-07
0.000350102
-6.56838e-07
0.000350675
-5.72856e-07
0.000351164
-4.88291e-07
0.000351567
-4.03219e-07
0.000351884
-3.17717e-07
0.000352116
-2.31864e-07
0.000352262
-1.45738e-07
0.000352322
-5.94198e-08
0.000352294
2.70106e-08
0.000352181
1.13473e-07
0.000351981
1.99885e-07
0.000351695
2.86168e-07
0.000351323
3.72242e-07
0.000350865
4.58026e-07
0.000350321
5.43442e-07
0.000349693
6.28413e-07
0.00034898
7.12863e-07
0.000348183
7.96716e-07
0.000347303
8.799e-07
0.000346341
9.62344e-07
0.000345297
1.04398e-06
0.000344172
1.12474e-06
0.000342968
1.20456e-06
0.000341684
1.28337e-06
0.000340323
1.36112e-06
0.000338885
1.43776e-06
0.000337372
1.51322e-06
0.000335785
1.58746e-06
0.000334124
1.66043e-06
0.000332392
1.73209e-06
0.00033059
1.80239e-06
0.000328719
1.8713e-06
0.00032678
1.93877e-06
0.000324775
2.00479e-06
0.000322706
2.06931e-06
0.000320573
2.13233e-06
0.00031838
2.1938e-06
0.000316126
2.25372e-06
0.000313814
2.31207e-06
0.000311445
2.36883e-06
0.000309021
2.424e-06
0.000306543
2.47757e-06
0.000304014
2.52953e-06
0.000301434
2.57989e-06
0.000298805
2.62864e-06
0.00029613
2.67579e-06
0.000293408
2.72134e-06
0.000290643
2.76531e-06
0.000287835
2.8077e-06
0.000284987
2.84853e-06
0.000282099
2.88782e-06
0.000279173
2.92557e-06
0.000276211
2.96181e-06
0.000273215
2.99656e-06
0.000270185
3.02984e-06
0.000267123
3.06168e-06
0.000264031
3.0921e-06
0.00026091
3.12112e-06
0.000257761
3.14877e-06
0.000254586
3.17509e-06
0.000251386
3.20009e-06
0.000248162
3.22382e-06
0.000244916
3.2463e-06
0.000241649
3.26756e-06
0.000238361
3.28763e-06
0.000235054
3.30656e-06
0.00023173
3.32436e-06
0.000228389
3.34107e-06
0.000225032
3.35673e-06
0.000221661
3.37137e-06
0.000218276
3.38502e-06
0.000214878
3.39772e-06
0.000211469
3.40949e-06
0.000208048
3.42038e-06
0.000204618
3.43042e-06
0.000201178
3.43963e-06
0.00019773
3.44806e-06
0.000194274
3.45573e-06
0.000190812
3.46267e-06
0.000187343
3.46892e-06
0.000183868
3.47451e-06
0.000180389
3.47947e-06
0.000176905
3.48383e-06
0.000173417
3.48762e-06
0.000169926
3.49087e-06
0.000166433
3.49361e-06
0.000162937
3.49586e-06
0.000159439
3.49765e-06
0.00015594
3.49902e-06
0.00015244
3.49998e-06
0.00014894
3.50056e-06
0.000145439
3.50079e-06
0.000141938
3.50069e-06
0.000138438
3.50029e-06
0.000134938
3.4996e-06
0.00013144
3.49866e-06
0.000127942
3.49748e-06
0.000124446
3.49608e-06
0.000120952
3.49449e-06
0.000117459
3.49273e-06
0.000113968
3.4908e-06
0.000110479
3.48875e-06
0.000106993
3.48657e-06
0.000103509
3.48429e-06
0.000100027
3.48192e-06
9.65472e-05
3.47949e-06
9.30702e-05
3.477e-06
8.95957e-05
3.47448e-06
8.61238e-05
3.47193e-06
8.26544e-05
3.46937e-06
7.91876e-05
3.46681e-06
7.57233e-05
3.46427e-06
7.22616e-05
3.46176e-06
6.88023e-05
3.45928e-06
6.53454e-05
3.45686e-06
6.18909e-05
3.45449e-06
5.84387e-05
3.45219e-06
5.49888e-05
3.44997e-06
5.15409e-05
3.44784e-06
4.80951e-05
3.4458e-06
4.46513e-05
3.44387e-06
4.12092e-05
3.44204e-06
3.77689e-05
3.44033e-06
3.43301e-05
3.43874e-06
3.08929e-05
3.43728e-06
2.74569e-05
3.43595e-06
2.40221e-05
3.43476e-06
2.05884e-05
3.43371e-06
1.71556e-05
3.4328e-06
1.37236e-05
3.43204e-06
1.02921e-05
3.43143e-06
6.86118e-06
3.43097e-06
3.43051e-06
3.43066e-06
3.43051e-06
3.23004e-06
-6.46025e-06
6.46025e-06
-6.46058e-06
9.69079e-06
-6.46124e-06
1.29218e-05
-6.46223e-06
1.61535e-05
-6.46354e-06
1.9386e-05
-6.46518e-06
2.26195e-05
-6.46714e-06
2.58541e-05
-6.46941e-06
2.90901e-05
-6.472e-06
3.23274e-05
-6.47489e-06
3.55664e-05
-6.47808e-06
3.88071e-05
-6.48157e-06
4.20497e-05
-6.48534e-06
4.52943e-05
-6.48939e-06
4.85411e-05
-6.4937e-06
5.17902e-05
-6.49828e-06
5.50417e-05
-6.5031e-06
5.82957e-05
-6.50817e-06
6.15524e-05
-6.51345e-06
6.48118e-05
-6.51895e-06
6.80741e-05
-6.52465e-06
7.13393e-05
-6.53053e-06
7.46076e-05
-6.53658e-06
7.78789e-05
-6.54278e-06
8.11535e-05
-6.54912e-06
8.44312e-05
-6.55558e-06
8.77123e-05
-6.56213e-06
9.09967e-05
-6.56876e-06
9.42844e-05
-6.57544e-06
9.75754e-05
-6.58216e-06
0.00010087
-6.58889e-06
0.000104168
-6.59561e-06
0.000107469
-6.60229e-06
0.000110773
-6.6089e-06
0.000114081
-6.61542e-06
0.000117392
-6.62182e-06
0.000120706
-6.62807e-06
0.000124023
-6.63413e-06
0.000127343
-6.63999e-06
0.000130666
-6.64559e-06
0.000133992
-6.65091e-06
0.00013732
-6.65591e-06
0.00014065
-6.66055e-06
0.000143983
-6.66479e-06
0.000147317
-6.6686e-06
0.000150653
-6.67193e-06
0.000153991
-6.67474e-06
0.000157329
-6.67699e-06
0.000160669
-6.67862e-06
0.000164009
-6.6796e-06
0.000167349
-6.67987e-06
0.000170689
-6.67938e-06
0.000174028
-6.67809e-06
0.000177366
-6.67593e-06
0.000180703
-6.67286e-06
0.000184038
-6.66883e-06
0.00018737
-6.66376e-06
0.000190699
-6.65761e-06
0.000194024
-6.65032e-06
0.000197346
-6.64183e-06
0.000200662
-6.63207e-06
0.000203973
-6.62098e-06
0.000207277
-6.6085e-06
0.000210575
-6.59457e-06
0.000213865
-6.57911e-06
0.000217146
-6.56207e-06
0.000220419
-6.54338e-06
0.00022368
-6.52296e-06
0.000226931
-6.50075e-06
0.00023017
-6.47668e-06
0.000233396
-6.45069e-06
0.000236608
-6.4227e-06
0.000239805
-6.39264e-06
0.000242985
-6.36045e-06
0.000246149
-6.32605e-06
0.000249294
-6.28939e-06
0.00025242
-6.25038e-06
0.000255525
-6.20897e-06
0.000258608
-6.16508e-06
0.000261668
-6.11866e-06
0.000264704
-6.06964e-06
0.000267714
-6.01795e-06
0.000270696
-5.96354e-06
0.00027365
-5.90635e-06
0.000276574
-5.84632e-06
0.000279466
-5.7834e-06
0.000282326
-5.71753e-06
0.000285151
-5.64868e-06
0.00028794
-5.57679e-06
0.000290692
-5.50182e-06
0.000293404
-5.42374e-06
0.000296076
-5.3425e-06
0.000298706
-5.25809e-06
0.000301292
-5.17047e-06
0.000303833
-5.07962e-06
0.000306326
-4.98552e-06
0.000308771
-4.88817e-06
0.000311166
-4.78756e-06
0.000313509
-4.68368e-06
0.000315798
-4.57654e-06
0.000318032
-4.46615e-06
0.000320209
-4.35252e-06
0.000322327
-4.23568e-06
0.000324386
-4.11566e-06
0.000326383
-3.99249e-06
0.000328317
-3.86621e-06
0.000330186
-3.73686e-06
0.000331989
-3.60451e-06
0.000333724
-3.46921e-06
0.00033539
-3.33102e-06
0.000336986
-3.19003e-06
0.00033851
-3.04631e-06
0.000339961
-2.89995e-06
0.000341337
-2.75104e-06
0.000342637
-2.59968e-06
0.000343861
-2.44597e-06
0.000345006
-2.29003e-06
0.000346073
-2.13197e-06
0.000347059
-1.97191e-06
0.000347965
-1.80998e-06
0.000348788
-1.64632e-06
0.000349529
-1.48105e-06
0.000350186
-1.31433e-06
0.00035076
-1.14629e-06
0.000351249
-9.77085e-07
0.000351652
-8.06864e-07
0.00035197
-6.35782e-07
0.000352203
-4.63996e-07
0.000352348
-2.91665e-07
0.000352408
-1.18948e-07
0.000352381
5.39933e-08
0.000352268
2.26998e-07
0.000352067
3.99904e-07
0.000351781
5.7255e-07
0.000351409
7.44776e-07
0.00035095
9.16423e-07
0.000350406
1.08733e-06
0.000349777
1.25735e-06
0.000349064
1.42632e-06
0.000348266
1.5941e-06
0.000347386
1.76054e-06
0.000346423
1.9255e-06
0.000345378
2.08884e-06
0.000344252
2.25042e-06
0.000343047
2.41012e-06
0.000341762
2.56781e-06
0.0003404
2.72337e-06
0.000338961
2.87669e-06
0.000337447
3.02767e-06
0.000335858
3.1762e-06
0.000334196
3.32219e-06
0.000332463
3.46554e-06
0.000330659
3.60618e-06
0.000328786
3.74402e-06
0.000326846
3.87901e-06
0.00032484
4.01107e-06
0.000322769
4.14015e-06
0.000320635
4.26619e-06
0.000318439
4.38916e-06
0.000316184
4.50902e-06
0.000313871
4.62572e-06
0.0003115
4.73926e-06
0.000309075
4.8496e-06
0.000306595
4.95674e-06
0.000304064
5.06067e-06
0.000301483
5.16138e-06
0.000298852
5.25888e-06
0.000296175
5.35317e-06
0.000293452
5.44427e-06
0.000290685
5.5322e-06
0.000287876
5.61697e-06
0.000285026
5.69861e-06
0.000282137
5.77716e-06
0.000279209
5.85265e-06
0.000276246
5.92511e-06
0.000273248
5.99459e-06
0.000270217
6.06113e-06
0.000267154
6.12478e-06
0.00026406
6.18559e-06
0.000260938
6.2436e-06
0.000257788
6.29888e-06
0.000254611
6.35149e-06
0.00025141
6.40147e-06
0.000248185
6.44889e-06
0.000244937
6.49382e-06
0.000241669
6.53631e-06
0.00023838
6.57642e-06
0.000235072
6.61423e-06
0.000231747
6.6498e-06
0.000228405
6.6832e-06
0.000225047
6.71448e-06
0.000221674
6.74372e-06
0.000218288
6.77099e-06
0.00021489
6.79635e-06
0.000211479
6.81987e-06
0.000208058
6.84162e-06
0.000204627
6.86166e-06
0.000201187
6.88005e-06
0.000197738
6.89687e-06
0.000194281
6.91218e-06
0.000190818
6.92603e-06
0.000187348
6.93851e-06
0.000183873
6.94966e-06
0.000180393
6.95955e-06
0.000176909
6.96824e-06
0.000173421
6.97579e-06
0.000169929
6.98225e-06
0.000166435
6.9877e-06
0.000162939
6.99217e-06
0.000159441
6.99573e-06
0.000155941
6.99843e-06
0.000152441
7.00033e-06
0.00014894
7.00147e-06
0.000145439
7.0019e-06
0.000141938
7.00168e-06
0.000138437
7.00085e-06
0.000134937
6.99946e-06
0.000131439
6.99755e-06
0.000127941
6.99517e-06
0.000124445
6.99236e-06
0.00012095
6.98916e-06
0.000117457
6.98561e-06
0.000113966
6.98174e-06
0.000110477
6.97761e-06
0.000106991
6.97324e-06
0.000103506
6.96866e-06
0.000100024
6.96392e-06
9.65447e-05
6.95903e-06
9.30676e-05
6.95405e-06
8.95931e-05
6.94898e-06
8.61212e-05
6.94387e-06
8.26518e-05
6.93874e-06
7.9185e-05
6.93361e-06
7.57208e-05
6.92852e-06
7.22591e-05
6.92348e-06
6.87998e-05
6.91852e-06
6.5343e-05
6.91365e-06
6.18886e-05
6.90891e-06
5.84365e-05
6.90431e-06
5.49866e-05
6.89986e-06
5.15389e-05
6.89559e-06
4.80932e-05
6.8915e-06
4.46494e-05
6.88763e-06
4.12075e-05
6.88397e-06
3.77673e-05
6.88054e-06
3.43287e-05
6.87736e-06
3.08915e-05
6.87443e-06
2.74557e-05
6.87177e-06
2.40211e-05
6.86938e-06
2.05875e-05
6.86728e-06
1.71549e-05
6.86546e-06
1.3723e-05
6.86393e-06
1.02917e-05
6.86271e-06
6.86087e-06
6.86179e-06
3.43036e-06
6.86117e-06
6.86087e-06
3.22971e-06
-9.68996e-06
6.45959e-06
-9.69046e-06
9.6898e-06
-9.69145e-06
1.29205e-05
-9.69293e-06
1.61519e-05
-9.69491e-06
1.93841e-05
-9.69737e-06
2.26172e-05
-9.70031e-06
2.58515e-05
-9.70373e-06
2.90872e-05
-9.70761e-06
3.23242e-05
-9.71196e-06
3.55629e-05
-9.71675e-06
3.88033e-05
-9.72199e-06
4.20457e-05
-9.72766e-06
4.529e-05
-9.73374e-06
4.85365e-05
-9.74023e-06
5.17854e-05
-9.74711e-06
5.50366e-05
-9.75436e-06
5.82904e-05
-9.76197e-06
6.15469e-05
-9.76992e-06
6.48061e-05
-9.77818e-06
6.80682e-05
-9.78675e-06
7.13333e-05
-9.79559e-06
7.46014e-05
-9.80468e-06
7.78726e-05
-9.81401e-06
8.1147e-05
-9.82354e-06
8.44247e-05
-9.83324e-06
8.77056e-05
-9.84309e-06
9.09899e-05
-9.85306e-06
9.42776e-05
-9.86312e-06
9.75687e-05
-9.87323e-06
0.000100863
-9.88335e-06
0.000104161
-9.89346e-06
0.000107462
-9.90351e-06
0.000110767
-9.91347e-06
0.000114075
-9.92328e-06
0.000117386
-9.93292e-06
0.0001207
-9.94233e-06
0.000124017
-9.95147e-06
0.000127338
-9.96029e-06
0.000130661
-9.96874e-06
0.000133987
-9.97676e-06
0.000137315
-9.98431e-06
0.000140646
-9.99132e-06
0.000143979
-9.99774e-06
0.000147314
-1.00035e-05
0.00015065
-1.00086e-05
0.000153988
-1.00128e-05
0.000157328
-1.00162e-05
0.000160668
-1.00188e-05
0.000164008
-1.00203e-05
0.000167349
-1.00207e-05
0.00017069
-1.00201e-05
0.00017403
-1.00182e-05
0.000177369
-1.0015e-05
0.000180707
-1.00105e-05
0.000184043
-1.00045e-05
0.000187376
-9.997e-06
0.000190706
-9.98785e-06
0.000194033
-9.97699e-06
0.000197355
-9.96432e-06
0.000200673
-9.94976e-06
0.000203985
-9.93321e-06
0.000207291
-9.91457e-06
0.00021059
-9.89375e-06
0.000213882
-9.87065e-06
0.000217165
-9.84518e-06
0.000220439
-9.81722e-06
0.000223703
-9.78667e-06
0.000226955
-9.75345e-06
0.000230196
-9.71743e-06
0.000233424
-9.67853e-06
0.000236638
-9.63663e-06
0.000239837
-9.59163e-06
0.00024302
-9.54343e-06
0.000246186
-9.49192e-06
0.000249333
-9.43701e-06
0.000252461
-9.37858e-06
0.000255569
-9.31654e-06
0.000258655
-9.2508e-06
0.000261717
-9.18124e-06
0.000264756
-9.10778e-06
0.000267768
-9.03033e-06
0.000270753
-8.94879e-06
0.00027371
-8.86307e-06
0.000276637
-8.77309e-06
0.000279532
-8.67878e-06
0.000282395
-8.58004e-06
0.000285223
-8.47681e-06
0.000288015
-8.36903e-06
0.00029077
-8.25663e-06
0.000293486
-8.13954e-06
0.000296161
-8.01773e-06
0.000298794
-7.89114e-06
0.000301383
-7.75974e-06
0.000303927
-7.62348e-06
0.000306424
-7.48236e-06
0.000308872
-7.33634e-06
0.00031127
-7.18542e-06
0.000313616
-7.02959e-06
0.000315908
-6.86887e-06
0.000318145
-6.70326e-06
0.000320325
-6.5328e-06
0.000322447
-6.35751e-06
0.000324509
-6.17743e-06
0.000326509
-5.99262e-06
0.000328446
-5.80314e-06
0.000330318
-5.60905e-06
0.000332124
-5.41045e-06
0.000333862
-5.20741e-06
0.000335531
-5.00004e-06
0.00033713
-4.78846e-06
0.000338656
-4.57277e-06
0.000340109
-4.35311e-06
0.000341488
-4.12962e-06
0.000342791
-3.90245e-06
0.000344017
-3.67175e-06
0.000345164
-3.43769e-06
0.000346233
-3.20045e-06
0.000347221
-2.9602e-06
0.000348128
-2.71715e-06
0.000348953
-2.47148e-06
0.000349696
-2.22341e-06
0.000350355
-1.97314e-06
0.000350929
-1.72089e-06
0.000351419
-1.4669e-06
0.000351823
-1.21137e-06
0.000352142
-9.54553e-07
0.000352375
-6.96676e-07
0.000352521
-4.37979e-07
0.000352581
-1.78702e-07
0.000352554
8.09119e-08
0.00035244
3.40621e-07
0.00035224
6.00181e-07
0.000351953
8.59351e-07
0.00035158
1.11789e-06
0.000351121
1.37556e-06
0.000350576
1.63211e-06
0.000349946
1.88733e-06
0.000349232
2.14098e-06
0.000348433
2.39283e-06
0.000347551
2.64267e-06
0.000346586
2.89028e-06
0.000345539
3.13545e-06
0.000344412
3.37798e-06
0.000343204
3.61768e-06
0.000341918
3.85437e-06
0.000340553
4.08785e-06
0.000339112
4.31797e-06
0.000337595
4.54457e-06
0.000336004
4.76748e-06
0.000334339
4.98657e-06
0.000332603
5.2017e-06
0.000330797
5.41276e-06
0.000328921
5.61961e-06
0.000326978
5.82217e-06
0.000324969
6.02033e-06
0.000322895
6.21401e-06
0.000320758
6.40313e-06
0.000318559
6.58763e-06
0.000316301
6.76746e-06
0.000313984
6.94255e-06
0.00031161
7.11288e-06
0.000309182
7.27841e-06
0.000306699
7.43913e-06
0.000304165
7.59503e-06
0.00030158
7.74609e-06
0.000298947
7.89232e-06
0.000296266
8.03375e-06
0.00029354
8.17037e-06
0.00029077
8.30224e-06
0.000287958
8.42936e-06
0.000285104
8.55179e-06
0.000282212
8.66957e-06
0.000279282
8.78275e-06
0.000276316
8.8914e-06
0.000273315
8.99556e-06
0.000270281
9.09531e-06
0.000267215
9.19072e-06
0.000264118
9.28187e-06
0.000260993
9.36882e-06
0.00025784
9.45167e-06
0.000254661
9.5305e-06
0.000251457
9.6054e-06
0.00024823
9.67646e-06
0.00024498
9.74377e-06
0.000241709
9.80742e-06
0.000238418
9.86752e-06
0.000235108
9.92415e-06
0.00023178
9.97742e-06
0.000228436
1.00274e-05
0.000225076
1.00743e-05
0.000221702
1.01181e-05
0.000218314
1.01589e-05
0.000214913
1.01968e-05
0.000211501
1.0232e-05
0.000208078
1.02646e-05
0.000204645
1.02945e-05
0.000201203
1.0322e-05
0.000197753
1.03472e-05
0.000194295
1.03701e-05
0.00019083
1.03908e-05
0.000187359
1.04094e-05
0.000183883
1.04261e-05
0.000180402
1.04408e-05
0.000176916
1.04538e-05
0.000173427
1.0465e-05
0.000169935
1.04747e-05
0.00016644
1.04828e-05
0.000162942
1.04894e-05
0.000159443
1.04947e-05
0.000155943
1.04987e-05
0.000152442
1.05014e-05
0.00014894
1.05031e-05
0.000145439
1.05037e-05
0.000141937
1.05033e-05
0.000138436
1.0502e-05
0.000134936
1.04998e-05
0.000131436
1.04969e-05
0.000127938
1.04933e-05
0.000124441
1.0489e-05
0.000120946
1.04842e-05
0.000117453
1.04788e-05
0.000113962
1.0473e-05
0.000110473
1.04667e-05
0.000106986
1.04601e-05
0.000103501
1.04532e-05
0.000100019
1.0446e-05
9.65397e-05
1.04387e-05
9.30626e-05
1.04312e-05
8.9588e-05
1.04235e-05
8.61161e-05
1.04158e-05
8.26467e-05
1.04081e-05
7.91799e-05
1.04004e-05
7.57157e-05
1.03927e-05
7.22541e-05
1.03851e-05
6.8795e-05
1.03777e-05
6.53383e-05
1.03703e-05
6.1884e-05
1.03632e-05
5.84321e-05
1.03563e-05
5.49823e-05
1.03496e-05
5.15348e-05
1.03431e-05
4.80893e-05
1.0337e-05
4.46458e-05
1.03312e-05
4.12041e-05
1.03257e-05
3.77641e-05
1.03205e-05
3.43257e-05
1.03157e-05
3.08889e-05
1.03113e-05
2.74533e-05
1.03073e-05
2.4019e-05
1.03037e-05
2.05857e-05
1.03006e-05
1.71533e-05
1.02978e-05
1.37217e-05
1.02955e-05
1.02908e-05
1.02937e-05
6.86025e-06
1.02923e-05
3.43005e-06
1.02914e-05
1.02909e-05
3.22921e-06
-1.29192e-05
6.4586e-06
-1.29198e-05
9.68831e-06
-1.29212e-05
1.29185e-05
-1.29231e-05
1.61494e-05
-1.29258e-05
1.93811e-05
-1.29291e-05
2.26138e-05
-1.2933e-05
2.58477e-05
-1.29376e-05
2.90828e-05
-1.29428e-05
3.23194e-05
-1.29486e-05
3.55577e-05
-1.2955e-05
3.87976e-05
-1.2962e-05
4.20396e-05
-1.29696e-05
4.52835e-05
-1.29777e-05
4.85296e-05
-1.29864e-05
5.17781e-05
-1.29956e-05
5.5029e-05
-1.30053e-05
5.82825e-05
-1.30154e-05
6.15386e-05
-1.30261e-05
6.47975e-05
-1.30371e-05
6.80593e-05
-1.30486e-05
7.13241e-05
-1.30604e-05
7.4592e-05
-1.30726e-05
7.7863e-05
-1.3085e-05
8.11373e-05
-1.30978e-05
8.44148e-05
-1.31108e-05
8.76956e-05
-1.31239e-05
9.09799e-05
-1.31373e-05
9.42675e-05
-1.31507e-05
9.75585e-05
-1.31643e-05
0.000100853
-1.31778e-05
0.000104151
-1.31914e-05
0.000107452
-1.32048e-05
0.000110757
-1.32182e-05
0.000114065
-1.32313e-05
0.000117376
-1.32442e-05
0.000120691
-1.32569e-05
0.000124008
-1.32691e-05
0.000127329
-1.3281e-05
0.000130653
-1.32923e-05
0.000133979
-1.33031e-05
0.000137308
-1.33132e-05
0.000140639
-1.33227e-05
0.000143973
-1.33313e-05
0.000147309
-1.33391e-05
0.000150646
-1.33459e-05
0.000153985
-1.33517e-05
0.000157325
-1.33564e-05
0.000160666
-1.33599e-05
0.000164008
-1.3362e-05
0.00016735
-1.33628e-05
0.000170692
-1.3362e-05
0.000174033
-1.33596e-05
0.000177374
-1.33555e-05
0.000180713
-1.33496e-05
0.00018405
-1.33418e-05
0.000187385
-1.33319e-05
0.000190717
-1.33198e-05
0.000194045
-1.33055e-05
0.00019737
-1.32887e-05
0.000200689
-1.32694e-05
0.000204004
-1.32475e-05
0.000207312
-1.32228e-05
0.000210613
-1.31952e-05
0.000213907
-1.31646e-05
0.000217193
-1.31308e-05
0.000220469
-1.30936e-05
0.000223736
-1.30531e-05
0.000226991
-1.30089e-05
0.000230235
-1.29611e-05
0.000233466
-1.29094e-05
0.000236683
-1.28537e-05
0.000239885
-1.27938e-05
0.000243071
-1.27297e-05
0.000246241
-1.26612e-05
0.000249392
-1.25881e-05
0.000252523
-1.25104e-05
0.000255635
-1.24278e-05
0.000258724
-1.23403e-05
0.000261791
-1.22477e-05
0.000264833
-1.21499e-05
0.000267849
-1.20468e-05
0.000270839
-1.19382e-05
0.0002738
-1.18241e-05
0.000276731
-1.17042e-05
0.000279631
-1.15786e-05
0.000282498
-1.1447e-05
0.00028533
-1.13095e-05
0.000288127
-1.11659e-05
0.000290887
-1.10161e-05
0.000293607
-1.08601e-05
0.000296287
-1.06977e-05
0.000298925
-1.0529e-05
0.000301519
-1.03539e-05
0.000304068
-1.01722e-05
0.00030657
-9.98408e-06
0.000309023
-9.7894e-06
0.000311426
-9.58818e-06
0.000313776
-9.38041e-06
0.000316074
-9.16609e-06
0.000318316
-8.94524e-06
0.000320501
-8.7179e-06
0.000322627
-8.48412e-06
0.000324694
-8.24393e-06
0.000326699
-7.99743e-06
0.00032864
-7.74467e-06
0.000330517
-7.48577e-06
0.000332327
-7.22082e-06
0.00033407
-6.94995e-06
0.000335743
-6.67329e-06
0.000337345
-6.39098e-06
0.000338876
-6.1032e-06
0.000340333
-5.81011e-06
0.000341715
-5.51189e-06
0.000343021
-5.20874e-06
0.000344251
-4.90089e-06
0.000345401
-4.58854e-06
0.000346473
-4.27193e-06
0.000347464
-3.9513e-06
0.000348374
-3.62692e-06
0.000349201
-3.29905e-06
0.000349946
-2.96795e-06
0.000350607
-2.63392e-06
0.000351183
-2.29725e-06
0.000351674
-1.95823e-06
0.00035208
-1.61717e-06
0.0003524
-1.27438e-06
0.000352634
-9.30177e-07
0.00035278
-5.84874e-07
0.000352841
-2.38795e-07
0.000352814
1.07734e-07
0.0003527
4.5439e-07
0.000352499
8.00848e-07
0.000352212
1.14678e-06
0.000351838
1.49187e-06
0.000351378
1.83579e-06
0.000350831
2.17824e-06
0.0003502
2.51888e-06
0.000349483
2.85743e-06
0.000348683
3.19357e-06
0.000347798
3.52702e-06
0.000346831
3.85749e-06
0.000345782
4.1847e-06
0.000344652
4.50838e-06
0.000343441
4.82827e-06
0.000342151
5.14412e-06
0.000340783
5.4557e-06
0.000339339
5.76278e-06
0.000337818
6.06514e-06
0.000336223
6.36258e-06
0.000334555
6.65491e-06
0.000332814
6.94195e-06
0.000331004
7.22353e-06
0.000329124
7.4995e-06
0.000327176
7.76972e-06
0.000325162
8.03407e-06
0.000323084
8.29243e-06
0.000320942
8.5447e-06
0.000318739
8.79079e-06
0.000316476
9.03062e-06
0.000314154
9.26414e-06
0.000311776
9.49129e-06
0.000309342
9.71204e-06
0.000306855
9.92635e-06
0.000304316
1.01342e-05
0.000301726
1.03356e-05
0.000299088
1.05306e-05
0.000296403
1.07191e-05
0.000293672
1.09012e-05
0.000290897
1.1077e-05
0.00028808
1.12464e-05
0.000285222
1.14096e-05
0.000282325
1.15666e-05
0.000279391
1.17174e-05
0.00027642
1.18622e-05
0.000273414
1.20009e-05
0.000270376
1.21338e-05
0.000267306
1.22609e-05
0.000264205
1.23823e-05
0.000261076
1.24981e-05
0.000257919
1.26085e-05
0.000254736
1.27135e-05
0.000251528
1.28132e-05
0.000248297
1.29078e-05
0.000245044
1.29974e-05
0.000241769
1.30821e-05
0.000238474
1.31621e-05
0.000235161
1.32374e-05
0.00023183
1.33083e-05
0.000228483
1.33748e-05
0.00022512
1.34371e-05
0.000221743
1.34953e-05
0.000218352
1.35496e-05
0.000214949
1.36001e-05
0.000211534
1.36468e-05
0.000208108
1.36901e-05
0.000204673
1.37299e-05
0.000201229
1.37664e-05
0.000197776
1.37998e-05
0.000194316
1.38301e-05
0.000190849
1.38576e-05
0.000187376
1.38823e-05
0.000183898
1.39044e-05
0.000180415
1.39239e-05
0.000176928
1.3941e-05
0.000173437
1.39559e-05
0.000169943
1.39686e-05
0.000166446
1.39793e-05
0.000162948
1.3988e-05
0.000159447
1.39949e-05
0.000155946
1.40001e-05
0.000152444
1.40037e-05
0.000148941
1.40058e-05
0.000145438
1.40064e-05
0.000141936
1.40058e-05
0.000138434
1.4004e-05
0.000134933
1.4001e-05
0.000131433
1.3997e-05
0.000127934
1.39921e-05
0.000124437
1.39863e-05
0.000120941
1.39797e-05
0.000117447
1.39725e-05
0.000113956
1.39646e-05
0.000110466
1.39562e-05
0.000106979
1.39473e-05
0.000103494
1.3938e-05
0.000100012
1.39284e-05
9.65322e-05
1.39185e-05
9.3055e-05
1.39084e-05
8.95803e-05
1.38982e-05
8.61084e-05
1.38878e-05
8.2639e-05
1.38775e-05
7.91723e-05
1.38671e-05
7.57082e-05
1.38568e-05
7.22466e-05
1.38466e-05
6.87877e-05
1.38366e-05
6.53312e-05
1.38268e-05
6.18771e-05
1.38173e-05
5.84254e-05
1.3808e-05
5.49759e-05
1.3799e-05
5.15287e-05
1.37904e-05
4.80835e-05
1.37822e-05
4.46403e-05
1.37744e-05
4.11989e-05
1.3767e-05
3.77593e-05
1.37601e-05
3.43213e-05
1.37537e-05
3.08849e-05
1.37478e-05
2.74497e-05
1.37424e-05
2.40158e-05
1.37376e-05
2.0583e-05
1.37334e-05
1.7151e-05
1.37297e-05
1.37199e-05
1.37267e-05
1.02894e-05
1.37242e-05
6.85932e-06
1.37224e-05
3.42958e-06
1.37211e-05
1.37205e-05
3.22855e-06
-1.61477e-05
6.45727e-06
-1.61486e-05
9.68632e-06
-1.61502e-05
1.29159e-05
-1.61527e-05
1.61461e-05
-1.6156e-05
1.93772e-05
-1.61601e-05
2.26092e-05
-1.61651e-05
2.58424e-05
-1.61708e-05
2.9077e-05
-1.61773e-05
3.2313e-05
-1.61846e-05
3.55506e-05
-1.61926e-05
3.87901e-05
-1.62014e-05
4.20314e-05
-1.62109e-05
4.52748e-05
-1.62211e-05
4.85204e-05
-1.6232e-05
5.17684e-05
-1.62435e-05
5.50188e-05
-1.62557e-05
5.82718e-05
-1.62684e-05
6.15275e-05
-1.62818e-05
6.4786e-05
-1.62956e-05
6.80475e-05
-1.631e-05
7.13119e-05
-1.63248e-05
7.45795e-05
-1.63401e-05
7.78503e-05
-1.63558e-05
8.11243e-05
-1.63718e-05
8.44016e-05
-1.63881e-05
8.76823e-05
-1.64046e-05
9.09664e-05
-1.64214e-05
9.42539e-05
-1.64383e-05
9.75449e-05
-1.64553e-05
0.000100839
-1.64723e-05
0.000104137
-1.64893e-05
0.000107439
-1.65063e-05
0.000110744
-1.65231e-05
0.000114052
-1.65396e-05
0.000117364
-1.65559e-05
0.000120679
-1.65718e-05
0.000123997
-1.65872e-05
0.000127318
-1.66021e-05
0.000130642
-1.66164e-05
0.000133969
-1.66301e-05
0.000137299
-1.66429e-05
0.000140631
-1.66548e-05
0.000143965
-1.66658e-05
0.000147302
-1.66757e-05
0.00015064
-1.66844e-05
0.00015398
-1.66918e-05
0.000157322
-1.66978e-05
0.000160664
-1.67023e-05
0.000164007
-1.67052e-05
0.000167351
-1.67063e-05
0.000170694
-1.67055e-05
0.000174037
-1.67027e-05
0.00017738
-1.66978e-05
0.000180721
-1.66906e-05
0.00018406
-1.6681e-05
0.000187397
-1.66689e-05
0.000190731
-1.6654e-05
0.000194062
-1.66363e-05
0.000197389
-1.66156e-05
0.000200711
-1.65918e-05
0.000204028
-1.65646e-05
0.000207339
-1.6534e-05
0.000210644
-1.64997e-05
0.000213941
-1.64617e-05
0.00021723
-1.64196e-05
0.00022051
-1.63735e-05
0.00022378
-1.63231e-05
0.000227039
-1.62681e-05
0.000230287
-1.62086e-05
0.000233521
-1.61442e-05
0.000236743
-1.60748e-05
0.000239949
-1.60003e-05
0.00024314
-1.59204e-05
0.000246313
-1.5835e-05
0.000249469
-1.57439e-05
0.000252606
-1.5647e-05
0.000255722
-1.55441e-05
0.000258817
-1.54349e-05
0.000261888
-1.53194e-05
0.000264936
-1.51974e-05
0.000267958
-1.50687e-05
0.000270953
-1.49332e-05
0.00027392
-1.47907e-05
0.000276856
-1.46411e-05
0.000279762
-1.44843e-05
0.000282635
-1.432e-05
0.000285474
-1.41483e-05
0.000288277
-1.39689e-05
0.000291043
-1.37818e-05
0.00029377
-1.35869e-05
0.000296456
-1.33841e-05
0.0002991
-1.31733e-05
0.000301701
-1.29544e-05
0.000304256
-1.27275e-05
0.000306764
-1.24923e-05
0.000309224
-1.2249e-05
0.000311633
-1.19975e-05
0.000313991
-1.17378e-05
0.000316294
-1.14698e-05
0.000318543
-1.11937e-05
0.000320734
-1.09095e-05
0.000322867
-1.06171e-05
0.00032494
-1.03168e-05
0.000326951
-1.00085e-05
0.000328899
-9.69236e-06
0.000330782
-9.36853e-06
0.000332598
-9.03711e-06
0.000334346
-8.69828e-06
0.000336025
-8.35217e-06
0.000337633
-7.999e-06
0.000339169
-7.63894e-06
0.000340631
-7.27223e-06
0.000342018
-6.89908e-06
0.000343329
-6.51976e-06
0.000344563
-6.13452e-06
0.000345718
-5.74364e-06
0.000346794
-5.34742e-06
0.000347788
-4.94616e-06
0.000348702
-4.54019e-06
0.000349532
-4.12983e-06
0.00035028
-3.71544e-06
0.000350943
-3.29736e-06
0.000351522
-2.87596e-06
0.000352015
-2.45161e-06
0.000352423
-2.02471e-06
0.000352744
-1.59563e-06
0.000352979
-1.16478e-06
0.000353126
-7.32545e-07
0.000353187
-2.99341e-07
0.00035316
1.34429e-07
0.000353046
5.68357e-07
0.000352845
1.00204e-06
0.000352557
1.43506e-06
0.000352182
1.86702e-06
0.00035172
2.29751e-06
0.000351172
2.72615e-06
0.000350538
3.15253e-06
0.00034982
3.57628e-06
0.000349016
3.99701e-06
0.000348129
4.41436e-06
0.000347158
4.82796e-06
0.000346106
5.23747e-06
0.000344971
5.64256e-06
0.000343757
6.04289e-06
0.000342463
6.43815e-06
0.00034109
6.82805e-06
0.000339641
7.2123e-06
0.000338115
7.59064e-06
0.000336515
7.96279e-06
0.000334842
8.32854e-06
0.000333096
8.68765e-06
0.000331279
9.03991e-06
0.000329394
9.38514e-06
0.00032744
9.72315e-06
0.000325421
1.00538e-05
0.000323336
1.03769e-05
0.000321188
1.06924e-05
0.000318979
1.10002e-05
0.00031671
1.13001e-05
0.000314382
1.15921e-05
0.000311997
1.18761e-05
0.000309557
1.21521e-05
0.000307063
1.242e-05
0.000304517
1.26798e-05
0.000301921
1.29316e-05
0.000299277
1.31753e-05
0.000296585
1.34109e-05
0.000293848
1.36385e-05
0.000291067
1.38581e-05
0.000288243
1.40698e-05
0.000285379
1.42736e-05
0.000282476
1.44697e-05
0.000279535
1.46581e-05