/*--------------------------------*- C++ -*----------------------------------*\
| =========                 |                                                 |
| \\      /  F ield         | OpenFOAM: The Open Source CFD Toolbox           |
|  \\    /   O peration     | Version:  v2012                                 |
|   \\  /    A nd           | Website:  www.openfoam.com                      |
|    \\/     M anipulation  |                                                 |
\*---------------------------------------------------------------------------*/
FoamFile
{
    version     2.0;
    format      ascii;
    class       volScalarField;
    location    "18.25";
    object      Psi_z;
}
// * * * * * * * * * * * * * * * * * * * * * * * * * * * * * * * * * * * * * //

dimensions      [0 2 -1 0 0 0 0];


internalField   nonuniform List<scalar> 
65536
(
8.07445e-06
2.42238e-05
4.03744e-05
5.6527e-05
7.26825e-05
8.88417e-05
0.000105005
0.000121174
0.000137349
0.000153531
0.000169721
0.000185918
0.000202125
0.000218342
0.000234569
0.000250807
0.000267057
0.000283319
0.000299594
0.000315882
0.000332185
0.000348501
0.000364833
0.00038118
0.000397543
0.000413921
0.000430316
0.000446727
0.000463155
0.0004796
0.000496061
0.000512539
0.000529033
0.000545545
0.000562072
0.000578616
0.000595175
0.00061175
0.00062834
0.000644943
0.000661561
0.000678191
0.000694833
0.000711486
0.00072815
0.000744822
0.000761501
0.000778187
0.000794878
0.000811572
0.000828267
0.000844962
0.000861655
0.000878343
0.000895025
0.000911697
0.000928359
0.000945006
0.000961636
0.000978247
0.000994834
0.0010114
0.00102793
0.00104443
0.00106089
0.00107731
0.00109369
0.00111001
0.00112629
0.00114251
0.00115866
0.00117475
0.00119076
0.0012067
0.00122255
0.00123831
0.00125398
0.00126955
0.00128501
0.00130036
0.00131559
0.0013307
0.00134567
0.0013605
0.00137519
0.00138972
0.00140409
0.00141829
0.00143232
0.00144616
0.00145981
0.00147327
0.00148651
0.00149954
0.00151235
0.00152493
0.00153727
0.00154936
0.00156119
0.00157277
0.00158407
0.00159509
0.00160582
0.00161626
0.00162639
0.00163621
0.00164571
0.00165489
0.00166373
0.00167223
0.00168038
0.00168817
0.00169561
0.00170267
0.00170936
0.00171567
0.00172159
0.00172712
0.00173225
0.00173698
0.0017413
0.00174521
0.00174871
0.00175179
0.00175445
0.00175668
0.00175849
0.00175987
0.00176082
0.00176133
0.00176142
0.00176108
0.0017603
0.00175909
0.00175745
0.00175538
0.00175288
0.00174996
0.00174661
0.00174284
0.00173865
0.00173405
0.00172904
0.00172363
0.00171781
0.0017116
0.00170499
0.001698
0.00169063
0.00168288
0.00167477
0.00166629
0.00165746
0.00164828
0.00163876
0.0016289
0.00161872
0.00160822
0.00159741
0.0015863
0.00157489
0.00156319
0.00155121
0.00153896
0.00152645
0.00151368
0.00150066
0.0014874
0.00147391
0.0014602
0.00144627
0.00143213
0.00141779
0.00140326
0.00138854
0.00137365
0.00135858
0.00134336
0.00132797
0.00131244
0.00129677
0.00128096
0.00126502
0.00124896
0.00123279
0.00121651
0.00120012
0.00118363
0.00116706
0.00115039
0.00113365
0.00111683
0.00109994
0.00108298
0.00106596
0.00104889
0.00103176
0.00101459
0.000997366
0.000980106
0.000962809
0.00094548
0.00092812
0.000910735
0.000893325
0.000875896
0.000858449
0.000840986
0.000823512
0.000806027
0.000788534
0.000771035
0.000753532
0.000736028
0.000718522
0.000701019
0.000683517
0.00066602
0.000648528
0.000631043
0.000613565
0.000596095
0.000578634
0.000561184
0.000543744
0.000526315
0.000508898
0.000491492
0.000474099
0.000456719
0.000439351
0.000421995
0.000404653
0.000387323
0.000370006
0.000352702
0.00033541
0.000318129
0.00030086
0.000283603
0.000266356
0.00024912
0.000231894
0.000214677
0.000197469
0.000180269
0.000163077
0.000145892
0.000128713
0.00011154
9.43716e-05
7.72074e-05
6.00466e-05
4.28886e-05
2.57324e-05
8.57733e-06
2.4223e-05
7.26703e-05
0.000121121
0.000169578
0.000218044
0.000266521
0.000315011
0.000363517
0.000412042
0.000460586
0.000509154
0.000557747
0.000606366
0.000655015
0.000703696
0.000752409
0.000801158
0.000849944
0.000898768
0.000947633
0.00099654
0.00104549
0.00109448
0.00114353
0.00119261
0.00124175
0.00129093
0.00134017
0.00138945
0.00143878
0.00148817
0.0015376
0.00158708
0.00163662
0.0016862
0.00173583
0.00178551
0.00183524
0.00188501
0.00193482
0.00198467
0.00203456
0.00208449
0.00213445
0.00218444
0.00223446
0.0022845
0.00233456
0.00238463
0.00243472
0.0024848
0.00253489
0.00258497
0.00263504
0.00268509
0.00273511
0.00278509
0.00283504
0.00288493
0.00293477
0.00298453
0.00303422
0.00308382
0.00313332
0.00318271
0.00323198
0.00328111
0.0033301
0.00337893
0.00342758
0.00347605
0.00352431
0.00357236
0.00362017
0.00366774
0.00371503
0.00376205
0.00380876
0.00385515
0.00390121
0.0039469
0.00399222
0.00403714
0.00408165
0.00412571
0.00416932
0.00421244
0.00425505
0.00429714
0.00433868
0.00437964
0.00442001
0.00445976
0.00449886
0.00453729
0.00457503
0.00461205
0.00464834
0.00468385
0.00471857
0.00475248
0.00478555
0.00481776
0.00484908
0.00487948
0.00490895
0.00493747
0.004965
0.00499153
0.00501704
0.00504149
0.00506489
0.00508719
0.00510839
0.00512846
0.00514739
0.00516516
0.00518175
0.00519715
0.00521134
0.00522431
0.00523605
0.00524655
0.00525579
0.00526377
0.00527047
0.00527589
0.00528003
0.00528288
0.00528444
0.0052847
0.00528366
0.00528133
0.0052777
0.00527277
0.00526656
0.00525907
0.00525029
0.00524025
0.00522894
0.00521638
0.00520257
0.00518754
0.00517129
0.00515383
0.00513518
0.00511536
0.00509438
0.00507225
0.00504901
0.00502466
0.00499922
0.00497272
0.00494518
0.00491661
0.00488704
0.00485649
0.00482498
0.00479254
0.00475919
0.00472495
0.00468984
0.0046539
0.00461714
0.00457959
0.00454127
0.00450221
0.00446243
0.00442195
0.0043808
0.004339
0.00429658
0.00425356
0.00420996
0.0041658
0.00412111
0.00407591
0.00403022
0.00398407
0.00393747
0.00389044
0.00384301
0.00379519
0.00374701
0.00369848
0.00364962
0.00360045
0.00355099
0.00350126
0.00345126
0.00340102
0.00335056
0.00329988
0.003249
0.00319795
0.00314672
0.00309533
0.0030438
0.00299214
0.00294035
0.00288846
0.00283647
0.00278439
0.00273223
0.00268
0.0026277
0.00257536
0.00252297
0.00247054
0.00241809
0.00236561
0.00231311
0.0022606
0.00220808
0.00215556
0.00210305
0.00205055
0.00199805
0.00194558
0.00189312
0.00184068
0.00178827
0.00173589
0.00168354
0.00163122
0.00157893
0.00152668
0.00147446
0.00142228
0.00137014
0.00131804
0.00126597
0.00121395
0.00116196
0.00111001
0.00105809
0.00100622
0.000954375
0.000902569
0.000850798
0.000799058
0.000747351
0.000695672
0.000644023
0.000592399
0.000540801
0.000489225
0.00043767
0.000386134
0.000334615
0.000283111
0.000231619
0.000180137
0.000128664
7.71959e-05
2.57316e-05
4.03703e-05
0.000121113
0.000201862
0.000282621
0.000363395
0.000444187
0.000525001
0.000605842
0.000686713
0.000767619
0.000848562
0.000929547
0.00101058
0.00109166
0.00117279
0.00125398
0.00133522
0.00141653
0.0014979
0.00157934
0.00166085
0.00174243
0.00182409
0.00190582
0.00198764
0.00206953
0.0021515
0.00223356
0.00231569
0.00239792
0.00248022
0.00256261
0.00264509
0.00272764
0.00281028
0.002893
0.0029758
0.00305868
0.00314163
0.00322465
0.00330774
0.0033909
0.00347411
0.00355738
0.00364071
0.00372407
0.00380748
0.00389092
0.00397438
0.00405785
0.00414134
0.00422483
0.0043083
0.00439175
0.00447517
0.00455855
0.00464187
0.00472512
0.00480828
0.00489135
0.00497431
0.00505713
0.00513981
0.00522232
0.00530465
0.00538678
0.00546868
0.00555034
0.00563174
0.00571285
0.00579364
0.0058741
0.00595419
0.0060339
0.00611319
0.00619204
0.00627042
0.00634829
0.00642563
0.00650241
0.00657859
0.00665415
0.00672904
0.00680324
0.0068767
0.0069494
0.00702129
0.00709234
0.00716251
0.00723177
0.00730007
0.00736737
0.00743365
0.00749884
0.00756292
0.00762585
0.00768758
0.00774808
0.0078073
0.0078652
0.00792174
0.00797688
0.00803058
0.00808281
0.00813351
0.00818265
0.0082302
0.00827612
0.00832036
0.00836289
0.00840368
0.00844268
0.00847988
0.00851523
0.00854871
0.00858027
0.00860991
0.00863758
0.00866326
0.00868693
0.00870856
0.00872814
0.00874564
0.00876105
0.00877436
0.00878554
0.00879458
0.00880149
0.00880624
0.00880884
0.00880927
0.00880754
0.00880365
0.0087976
0.00878939
0.00877903
0.00876653
0.0087519
0.00873515
0.00871629
0.00869534
0.00867233
0.00864725
0.00862015
0.00859104
0.00855994
0.00852688
0.00849189
0.008455
0.00841624
0.00837563
0.00833322
0.00828903
0.0082431
0.00819546
0.00814615
0.00809521
0.00804267
0.00798858
0.00793296
0.00787587
0.00781734
0.00775741
0.00769612
0.00763351
0.00756961
0.00750448
0.00743815
0.00737066
0.00730206
0.00723237
0.00716164
0.00708991
0.00701721
0.00694359
0.00686909
0.00679373
0.00671756
0.00664061
0.00656292
0.00648452
0.00640544
0.00632572
0.0062454
0.00616449
0.00608305
0.00600108
0.00591863
0.00583571
0.00575237
0.00566862
0.0055845
0.00550002
0.00541521
0.0053301
0.0052447
0.00515904
0.00507315
0.00498703
0.00490071
0.00481421
0.00472754
0.00464073
0.00455379
0.00446673
0.00437956
0.00429232
0.00420499
0.00411761
0.00403017
0.0039427
0.00385519
0.00376767
0.00368014
0.0035926
0.00350508
0.00341756
0.00333007
0.00324261
0.00315517
0.00306778
0.00298043
0.00289312
0.00280586
0.00271866
0.00263151
0.00254443
0.0024574
0.00237043
0.00228353
0.00219669
0.00210991
0.0020232
0.00193655
0.00184997
0.00176345
0.00167699
0.00159059
0.00150424
0.00141796
0.00133173
0.00124555
0.00115942
0.00107334
0.000987304
0.000901309
0.000815351
0.000729429
0.000643538
0.000557675
0.000471837
0.00038602
0.00030022
0.000214433
0.000128656
4.28847e-05
5.65156e-05
0.00016955
0.000282592
0.000395649
0.000508727
0.00062183
0.000734965
0.000848136
0.000961351
0.00107461
0.00118793
0.0013013
0.00141474
0.00152825
0.00164183
0.00175548
0.00186922
0.00198305
0.00209697
0.00221098
0.00232509
0.0024393
0.00255362
0.00266804
0.00278258
0.00289722
0.00301198
0.00312686
0.00324185
0.00335696
0.00347219
0.00358754
0.003703
0.00381859
0.00393428
0.00405009
0.00416602
0.00428205
0.00439818
0.00451442
0.00463075
0.00474717
0.00486368
0.00498027
0.00509693
0.00521365
0.00533043
0.00544725
0.0055641
0.00568099
0.00579788
0.00591477
0.00603165
0.0061485
0.0062653
0.00638205
0.00649871
0.00661528
0.00673174
0.00684805
0.00696421
0.00708019
0.00719596
0.00731151
0.0074268
0.0075418
0.0076565
0.00777085
0.00788484
0.00799842
0.00811157
0.00822424
0.00833641
0.00844804
0.00855909
0.00866952
0.00877929
0.00888835
0.00899667
0.00910421
0.00921091
0.00931674
0.00942163
0.00952555
0.00962845
0.00973028
0.00983098
0.00993051
0.0100288
0.0101258
0.0102215
0.0103158
0.0104086
0.0104999
0.0105897
0.0106779
0.0107643
0.0108491
0.0109321
0.0110132
0.0110924
0.0111696
0.0112449
0.0113181
0.0113891
0.011458
0.0115246
0.0115889
0.0116509
0.0117105
0.0117676
0.0118223
0.0118744
0.011924
0.0119709
0.0120151
0.0120566
0.0120954
0.0121314
0.0121645
0.0121949
0.0122223
0.0122468
0.0122684
0.0122871
0.0123027
0.0123154
0.0123251
0.0123318
0.0123354
0.012336
0.0123336
0.0123281
0.0123197
0.0123082
0.0122936
0.0122761
0.0122556
0.0122322
0.0122057
0.0121764
0.0121441
0.012109
0.012071
0.0120302
0.0119867
0.0119403
0.0118913
0.0118396
0.0117853
0.0117284
0.011669
0.0116071
0.0115427
0.011476
0.0114069
0.0113355
0.0112619
0.0111861
0.0111082
0.0110282
0.0109462
0.0108623
0.0107764
0.0106887
0.0105992
0.010508
0.010415
0.0103205
0.0102244
0.0101268
0.0100277
0.00992722
0.00982539
0.00972227
0.00961791
0.00951236
0.00940567
0.00929789
0.00918907
0.00907927
0.00896851
0.00885687
0.00874437
0.00863106
0.00851699
0.00840219
0.00828672
0.0081706
0.00805389
0.0079366
0.00781879
0.00770049
0.00758172
0.00746253
0.00734295
0.007223
0.00710271
0.00698212
0.00686125
0.00674012
0.00661877
0.00649721
0.00637546
0.00625356
0.00613151
0.00600935
0.00588707
0.00576472
0.00564229
0.00551981
0.00539729
0.00527475
0.00515219
0.00502964
0.00490709
0.00478456
0.00466206
0.0045396
0.00441719
0.00429483
0.00417253
0.0040503
0.00392814
0.00380605
0.00368404
0.00356211
0.00344027
0.00331852
0.00319685
0.00307527
0.00295379
0.00283239
0.00271109
0.00258987
0.00246874
0.0023477
0.00222674
0.00210586
0.00198507
0.00186435
0.0017437
0.00162313
0.00150262
0.00138217
0.00126178
0.00114144
0.00102116
0.000900914
0.000780711
0.000660543
0.000540404
0.000420289
0.000300193
0.00018011
6.00359e-05
7.26579e-05
0.000217977
0.000363308
0.000508657
0.000654033
0.000799441
0.000944891
0.00109039
0.00123594
0.00138155
0.00152724
0.00167299
0.00181883
0.00196476
0.00211079
0.00225691
0.00240314
0.00254948
0.00269594
0.00284252
0.00298923
0.00313607
0.00328304
0.00343015
0.00357741
0.00372481
0.00387235
0.00402005
0.0041679
0.00431589
0.00446405
0.00461235
0.00476081
0.00490941
0.00505817
0.00520707
0.00535612
0.00550531
0.00565463
0.00580408
0.00595366
0.00610336
0.00625317
0.00640308
0.00655308
0.00670317
0.00685333
0.00700354
0.00715381
0.0073041
0.00745442
0.00760473
0.00775503
0.00790529
0.00805549
0.00820562
0.00835565
0.00850556
0.00865532
0.00880491
0.0089543
0.00910345
0.00925235
0.00940095
0.00954922
0.00969714
0.00984465
0.00999174
0.0101383
0.0102844
0.01043
0.0105749
0.0107192
0.0108628
0.0110056
0.0111477
0.0112889
0.0114292
0.0115685
0.0117068
0.0118441
0.0119802
0.0121152
0.0122489
0.0123813
0.0125123
0.0126419
0.0127699
0.0128964
0.0130212
0.0131443
0.0132656
0.0133851
0.0135026
0.0136181
0.0137316
0.0138428
0.0139519
0.0140587
0.0141631
0.014265
0.0143644
0.0144613
0.0145554
0.0146469
0.0147355
0.0148212
0.014904
0.0149838
0.0150605
0.0151341
0.0152044
0.0152715
0.0153353
0.0153957
0.0154526
0.0155061
0.015556
0.0156023
0.015645
0.015684
0.0157194
0.0157509
0.0157788
0.0158028
0.0158229
0.0158393
0.0158517
0.0158603
0.015865
0.0158658
0.0158627
0.0158556
0.0158447
0.0158299
0.0158113
0.0157887
0.0157623
0.0157321
0.0156981
0.0156603
0.0156188
0.0155736
0.0155247
0.0154722
0.0154161
0.0153565
0.0152934
0.0152269
0.015157
0.0150837
0.0150073
0.0149276
0.0148447
0.0147588
0.0146699
0.0145781
0.0144833
0.0143858
0.0142855
0.0141826
0.0140771
0.013969
0.0138586
0.0137457
0.0136305
0.0135131
0.0133935
0.0132719
0.0131482
0.0130226
0.0128952
0.0127659
0.0126349
0.0125022
0.0123679
0.0122321
0.0120949
0.0119562
0.0118162
0.011675
0.0115325
0.0113889
0.0112441
0.0110984
0.0109517
0.010804
0.0106555
0.0105061
0.010356
0.0102051
0.0100536
0.00990142
0.00974866
0.00959536
0.00944156
0.00928729
0.00913259
0.00897749
0.00882204
0.00866627
0.0085102
0.00835387
0.0081973
0.00804053
0.00788358
0.00772648
0.00756924
0.0074119
0.00725447
0.00709697
0.00693942
0.00678185
0.00662425
0.00646666
0.00630908
0.00615153
0.00599402
0.00583656
0.00567916
0.00552183
0.00536457
0.00520741
0.00505033
0.00489336
0.00473648
0.00457971
0.00442306
0.00426651
0.00411008
0.00395377
0.00379757
0.00364149
0.00348553
0.00332968
0.00317395
0.00301832
0.00286281
0.0027074
0.0025521
0.00239689
0.00224178
0.00208676
0.00193183
0.00177697
0.0016222
0.00146749
0.00131284
0.00115825
0.00100371
0.000849219
0.000694763
0.000540339
0.000385939
0.000231556
7.71843e-05
8.87965e-05
0.000266394
0.000444005
0.000621639
0.000799305
0.000977012
0.00115477
0.00133258
0.00151047
0.00168843
0.00186647
0.0020446
0.00222284
0.00240118
0.00257965
0.00275823
0.00293694
0.0031158
0.00329479
0.00347394
0.00365324
0.0038327
0.00401232
0.00419212
0.00437209
0.00455224
0.00473257
0.00491309
0.00509379
0.00527467
0.00545575
0.00563701
0.00581846
0.00600009
0.00618191
0.00636391
0.00654608
0.00672843
0.00691095
0.00709363
0.00727646
0.00745944
0.00764255
0.0078258
0.00800916
0.00819262
0.00837617
0.00855979
0.00874348
0.0089272
0.00911095
0.0092947
0.00947844
0.00966213
0.00984576
0.0100293
0.0102127
0.010396
0.0105791
0.010762
0.0109446
0.011127
0.011309
0.0114907
0.011672
0.0118529
0.0120332
0.0122131
0.0123924
0.012571
0.012749
0.0129262
0.0131026
0.0132782
0.0134529
0.0136266
0.0137993
0.0139709
0.0141413
0.0143105
0.0144784
0.0146449
0.01481
0.0149736
0.0151355
0.0152957
0.0154542
0.0156109
0.0157656
0.0159183
0.0160689
0.0162173
0.0163635
0.0165073
0.0166486
0.0167874
0.0169236
0.017057
0.0171876
0.0173154
0.0174401
0.0175618
0.0176803
0.0177955
0.0179074
0.0180159
0.0181208
0.0182222
0.0183198
0.0184137
0.0185037
0.0185899
0.018672
0.01875
0.0188239
0.0188936
0.0189591
0.0190202
0.0190769
0.0191292
0.0191769
0.0192202
0.0192588
0.0192929
0.0193223
0.019347
0.019367
0.0193822
0.0193927
0.0193985
0.0193994
0.0193956
0.0193871
0.0193737
0.0193556
0.0193327
0.0193051
0.0192728
0.0192359
0.0191942
0.019148
0.0190972
0.0190418
0.018982
0.0189178
0.0188491
0.0187761
0.0186989
0.0186175
0.0185319
0.0184423
0.0183487
0.0182512
0.0181498
0.0180447
0.0179359
0.0178235
0.0177076
0.0175882
0.0174655
0.0173396
0.0172105
0.0170783
0.0169431
0.016805
0.0166641
0.0165204
0.0163741
0.0162253
0.016074
0.0159204
0.0157644
0.0156063
0.015446
0.0152837
0.0151195
0.0149534
0.0147855
0.0146159
0.0144446
0.0142719
0.0140976
0.0139219
0.013745
0.0135667
0.0133872
0.0132067
0.013025
0.0128424
0.0126588
0.0124743
0.012289
0.0121029
0.0119161
0.0117287
0.0115406
0.011352
0.0111629
0.0109732
0.0107832
0.0105927
0.0104019
0.0102108
0.0100193
0.00982769
0.00963581
0.00944374
0.00925152
0.00905917
0.00886671
0.00867418
0.00848158
0.00828896
0.00809631
0.00790367
0.00771104
0.00751846
0.00732592
0.00713345
0.00694105
0.00674874
0.00655653
0.00636442
0.00617243
0.00598056
0.00578882
0.00559721
0.00540573
0.00521439
0.0050232
0.00483215
0.00464124
0.00445048
0.00425986
0.00406938
0.00387904
0.00368884
0.00349877
0.00330884
0.00311903
0.00292934
0.00273977
0.00255031
0.00236096
0.00217171
0.00198254
0.00179346
0.00160447
0.00141554
0.00122667
0.00103786
0.000849092
0.000660365
0.000471668
0.000282992
9.43293e-05
0.00010493
0.000314797
0.00052468
0.00073459
0.000944537
0.00115453
0.00136459
0.00157471
0.00178492
0.00199521
0.00220561
0.00241611
0.00262674
0.00283749
0.00304838
0.00325942
0.00347061
0.00368196
0.00389349
0.00410519
0.00431708
0.00452916
0.00474144
0.00495391
0.0051666
0.0053795
0.00559261
0.00580594
0.00601949
0.00623326
0.00644726
0.00666148
0.00687592
0.00709058
0.00730546
0.00752056
0.00773587
0.00795139
0.00816711
0.00838302
0.00859911
0.00881538
0.00903181
0.0092484
0.00946512
0.00968197
0.00989893
0.010116
0.0103331
0.0105503
0.0107675
0.0109847
0.0112019
0.011419
0.0116361
0.0118531
0.0120699
0.0122866
0.0125031
0.0127193
0.0129352
0.0131508
0.013366
0.0135809
0.0137952
0.0140091
0.0142224
0.014435
0.014647
0.0148582
0.0150687
0.0152783
0.0154869
0.0156946
0.0159012
0.0161066
0.0163109
0.0165138
0.0167154
0.0169155
0.0171141
0.0173111
0.0175064
0.0176998
0.0178914
0.018081
0.0182685
0.0184538
0.0186368
0.0188175
0.0189957
0.0191713
0.0193442
0.0195144
0.0196816
0.0198459
0.020007
0.0201649
0.0203195
0.0204707
0.0206183
0.0207623
0.0209026
0.021039
0.0211714
0.0212998
0.021424
0.021544
0.0216596
0.0217707
0.0218773
0.0219793
0.0220765
0.0221689
0.0222564
0.0223389
0.0224164
0.0224887
0.0225559
0.0226178
0.0226744
0.0227256
0.0227714
0.0228117
0.0228465
0.0228757
0.0228994
0.0229175
0.0229299
0.0229367
0.0229379
0.0229334
0.0229232
0.0229074
0.022886
0.0228589
0.0228263
0.022788
0.0227443
0.022695
0.0226403
0.0225801
0.0225146
0.0224438
0.0223677
0.0222864
0.0222001
0.0221086
0.0220123
0.021911
0.0218049
0.0216941
0.0215787
0.0214587
0.0213343
0.0212055
0.0210724
0.0209352
0.020794
0.0206488
0.0204997
0.0203469
0.0201905
0.0200305
0.0198671
0.0197003
0.0195304
0.0193573
0.0191812
0.0190022
0.0188204
0.0186359
0.0184488
0.0182592
0.0180672
0.0178729
0.0176764
0.0174778
0.0172772
0.0170746
0.0168702
0.0166641
0.0164564
0.016247
0.0160362
0.015824
0.0156104
0.0153956
0.0151796
0.0149625
0.0147443
0.0145252
0.0143052
0.0140843
0.0138627
0.0136403
0.0134172
0.0131936
0.0129694
0.0127447
0.0125195
0.0122939
0.0120679
0.0118416
0.0116151
0.0113882
0.0111612
0.0109339
0.0107065
0.010479
0.0102514
0.0100238
0.00979608
0.00956837
0.00934066
0.00911297
0.00888533
0.00865776
0.00843026
0.00820286
0.00797556
0.00774838
0.00752132
0.00729441
0.00706764
0.00684102
0.00661456
0.00638826
0.00616213
0.00593617
0.00571038
0.00548476
0.00525932
0.00503404
0.00480894
0.004584
0.00435922
0.00413461
0.00391015
0.00368584
0.00346168
0.00323765
0.00301376
0.00278999
0.00256634
0.0023428
0.00211937
0.00189602
0.00167276
0.00144957
0.00122645
0.00100338
0.000780361
0.000557375
0.000334415
0.00011147
0.000121059
0.000363184
0.000605327
0.000847502
0.00108972
0.001332
0.00157434
0.00181676
0.00205928
0.0023019
0.00254464
0.0027875
0.00303051
0.00327366
0.00351697
0.00376045
0.00400411
0.00424796
0.00449201
0.00473627
0.00498073
0.00522543
0.00547034
0.0057155
0.00596089
0.00620653
0.00645242
0.00669857
0.00694497
0.00719163
0.00743854
0.00768572
0.00793316
0.00818086
0.00842881
0.00867701
0.00892546
0.00917415
0.00942307
0.00967222
0.00992158
0.0101712
0.0104209
0.0106709
0.010921
0.0111712
0.0114216
0.0116721
0.0119227
0.0121733
0.012424
0.0126747
0.0129254
0.013176
0.0134266
0.013677
0.0139273
0.0141774
0.0144273
0.0146769
0.0149261
0.015175
0.0154235
0.0156715
0.015919
0.0161659
0.0164121
0.0166576
0.0169024
0.0171463
0.0173893
0.0176313
0.0178722
0.018112
0.0183506
0.0185879
0.0188237
0.0190581
0.0192909
0.0195221
0.0197514
0.019979
0.0202045
0.020428
0.0206492
0.0208682
0.0210849
0.021299
0.0215104
0.0217192
0.021925
0.022128
0.0223278
0.0225244
0.0227176
0.0229074
0.0230936
0.0232762
0.0234548
0.0236296
0.0238002
0.0239666
0.0241288
0.0242864
0.0244395
0.0245879
0.0247315
0.0248702
0.0250038
0.0251323
0.0252556
0.0253734
0.0254858
0.0255927
0.0256938
0.0257893
0.0258788
0.0259625
0.0260402
0.0261117
0.0261772
0.0262364
0.0262893
0.026336
0.0263762
0.02641
0.0264374
0.0264583
0.0264727
0.0264806
0.026482
0.0264768
0.0264651
0.0264468
0.026422
0.0263907
0.026353
0.0263088
0.0262582
0.0262012
0.0261379
0.0260684
0.0259926
0.0259108
0.0258228
0.0257289
0.025629
0.0255233
0.0254119
0.0252948
0.0251722
0.0250441
0.0249107
0.024772
0.0246282
0.0244793
0.0243255
0.024167
0.0240037
0.0238359
0.0236636
0.023487
0.0233062
0.0231214
0.0229325
0.0227398
0.0225434
0.0223434
0.02214
0.0219332
0.0217231
0.0215099
0.0212938
0.0210747
0.0208529
0.0206285
0.0204015
0.0201721
0.0199404
0.0197064
0.0194704
0.0192323
0.0189924
0.0187506
0.0185071
0.018262
0.0180154
0.0177673
0.0175179
0.0172672
0.0170153
0.0167623
0.0165082
0.0162532
0.0159973
0.0157406
0.0154831
0.0152249
0.0149661
0.0147067
0.0144467
0.0141863
0.0139254
0.0136642
0.0134027
0.0131408
0.0128788
0.0126165
0.012354
0.0120915
0.0118288
0.011566
0.0113032
0.0110404
0.0107776
0.0105149
0.0102521
0.00998952
0.00972698
0.00946456
0.00920226
0.0089401
0.00867809
0.00841624
0.00815457
0.00789307
0.00763175
0.00737063
0.00710971
0.00684898
0.00658845
0.00632812
0.00606799
0.00580806
0.00554833
0.00528879
0.00502945
0.00477029
0.00451131
0.00425251
0.00399387
0.0037354
0.00347708
0.00321891
0.00296087
0.00270297
0.00244517
0.00218749
0.00192991
0.00167241
0.00141499
0.00115763
0.000900321
0.000643057
0.000385822
0.000128606
0.000137181
0.000411551
0.000685943
0.00096037
0.00123485
0.00150939
0.00178401
0.00205872
0.00233354
0.00260847
0.00288354
0.00315875
0.00343412
0.00370966
0.00398539
0.0042613
0.00453743
0.00481376
0.00509033
0.00536712
0.00564417
0.00592146
0.00619902
0.00647684
0.00675494
0.00703332
0.00731199
0.00759094
0.00787019
0.00814973
0.00842957
0.00870971
0.00899014
0.00927087
0.00955189
0.0098332
0.0101148
0.0103967
0.0106788
0.0109612
0.0112439
0.0115267
0.0118098
0.0120932
0.0123767
0.0126603
0.0129442
0.0132281
0.0135122
0.0137963
0.0140805
0.0143647
0.0146489
0.0149331
0.0152171
0.0155011
0.0157849
0.0160684
0.0163517
0.0166348
0.0169174
0.0171996
0.0174814
0.0177626
0.0180433
0.0183233
0.0186025
0.018881
0.0191586
0.0194352
0.0197109
0.0199854
0.0202587
0.0205307
0.0208013
0.0210705
0.0213381
0.021604
0.0218681
0.0221304
0.0223906
0.0226488
0.0229047
0.0231583
0.0234094
0.0236579
0.0239038
0.0241467
0.0243868
0.0246237
0.0248574
0.0250877
0.0253145
0.0255377
0.0257571
0.0259726
0.026184
0.0263912
0.0265941
0.0267925
0.0269863
0.0271753
0.0273593
0.0275384
0.0277123
0.0278808
0.0280439
0.0282014
0.0283532
0.0284992
0.0286391
0.028773
0.0289007
0.0290221
0.029137
0.0292454
0.0293472
0.0294423
0.0295305
0.0296118
0.0296862
0.0297535
0.0298136
0.0298666
0.0299124
0.0299508
0.029982
0.0300057
0.0300221
0.0300311
0.0300326
0.0300267
0.0300134
0.0299927
0.0299645
0.029929
0.0298861
0.0298359
0.0297785
0.0297137
0.0296419
0.0295629
0.0294768
0.0293838
0.0292839
0.0291772
0.0290638
0.0289437
0.0288172
0.0286842
0.0285449
0.0283995
0.0282479
0.0280904
0.0279271
0.0277581
0.0275834
0.0274034
0.027218
0.0270274
0.0268318
0.0266313
0.0264261
0.0262162
0.0260018
0.025783
0.0255601
0.0253331
0.0251021
0.0248673
0.0246289
0.024387
0.0241417
0.0238931
0.0236414
0.0233866
0.0231291
0.0228687
0.0226058
0.0223403
0.0220725
0.0218024
0.0215302
0.0212559
0.0209796
0.0207016
0.0204218
0.0201404
0.0198575
0.0195731
0.0192874
0.0190004
0.0187123
0.0184231
0.0181328
0.0178417
0.0175497
0.0172568
0.0169633
0.0166692
0.0163744
0.0160791
0.0157833
0.0154871
0.0151906
0.0148937
0.0145966
0.0142992
0.0140017
0.013704
0.0134062
0.0131083
0.0128104
0.0125125
0.0122145
0.0119167
0.0116189
0.0113212
0.0110236
0.0107261
0.0104288
0.0101317
0.00983469
0.0095379
0.00924131
0.00894493
0.00864876
0.00835281
0.00805708
0.00776158
0.00746631
0.00717127
0.00687646
0.00658188
0.00628753
0.00599339
0.00569948
0.00540578
0.00511229
0.004819
0.00452591
0.00423299
0.00394026
0.00364769
0.00335528
0.00306301
0.00277088
0.00247887
0.00218697
0.00189517
0.00160346
0.00131182
0.00102024
0.000728709
0.000437212
0.000145735
0.000153296
0.000459897
0.000766523
0.00107319
0.00137991
0.0016867
0.00199358
0.00230057
0.00260767
0.00291491
0.0032223
0.00352984
0.00383757
0.00414549
0.00445361
0.00476195
0.00507052
0.00537934
0.0056884
0.00599774
0.00630734
0.00661724
0.00692742
0.00723791
0.00754871
0.00785982
0.00817126
0.00848302
0.00879511
0.00910754
0.0094203
0.0097334
0.0100468
0.0103606
0.0106747
0.0109891
0.0113039
0.0116189
0.0119343
0.0122499
0.0125659
0.0128821
0.0131986
0.0135153
0.0138322
0.0141493
0.0144666
0.014784
0.0151016
0.0154193
0.015737
0.0160548
0.0163725
0.0166902
0.0170078
0.0173253
0.0176426
0.0179597
0.0182765
0.018593
0.0189091
0.0192247
0.0195398
0.0198544
0.0201683
0.0204814
0.0207938
0.0211053
0.0214158
0.0217252
0.0220336
0.0223406
0.0226464
0.0229507
0.0232535
0.0235547
0.0238541
0.0241516
0.0244472
0.0247407
0.0250319
0.0253208
0.0256072
0.0258911
0.0261721
0.0264503
0.0267255
0.0269975
0.0272662
0.0275314
0.0277931
0.028051
0.0283049
0.0285548
0.0288005
0.0290418
0.0292786
0.0295106
0.0297378
0.02996
0.0301771
0.0303888
0.030595
0.0307956
0.0309903
0.0311792
0.0313619
0.0315383
0.0317084
0.031872
0.0320288
0.0321788
0.0323219
0.0324579
0.0325868
0.0327083
0.0328223
0.0329289
0.0330278
0.0331189
0.0332022
0.0332777
0.0333451
0.0334045
0.0334558
0.0334989
0.0335338
0.0335605
0.0335789
0.0335889
0.0335907
0.0335841
0.0335692
0.033546
0.0335145
0.0334747
0.0334266
0.0333704
0.033306
0.0332334
0.0331529
0.0330644
0.032968
0.0328638
0.0327518
0.0326323
0.0325052
0.0323707
0.0322289
0.0320799
0.0319239
0.0317609
0.0315911
0.0314147
0.0312317
0.0310424
0.0308468
0.0306451
0.0304375
0.030224
0.030005
0.0297804
0.0295505
0.0293155
0.0290754
0.0288305
0.0285808
0.0283266
0.028068
0.0278052
0.0275383
0.0272674
0.0269928
0.0267145
0.0264328
0.0261477
0.0258594
0.025568
0.0252737
0.0249766
0.0246769
0.0243747
0.02407
0.0237631
0.023454
0.0231429
0.0228299
0.022515
0.0221985
0.0218804
0.0215607
0.0212397
0.0209174
0.0205939
0.0202693
0.0199436
0.019617
0.0192895
0.0189612
0.0186322
0.0183026
0.0179724
0.0176416
0.0173104
0.0169788
0.0166469
0.0163146
0.0159821
0.0156494
0.0153166
0.0149836
0.0146506
0.0143175
0.0139845
0.0136514
0.0133184
0.0129855
0.0126527
0.0123201
0.0119876
0.0116552
0.0113231
0.0109911
0.0106594
0.0103279
0.00999658
0.00966554
0.00933476
0.00900423
0.00867395
0.00834394
0.00801419
0.0076847
0.00735547
0.0070265
0.00669778
0.00636931
0.00604107
0.00571308
0.00538531
0.00505775
0.00473041
0.00440327
0.00407631
0.00374953
0.00342292
0.00309645
0.00277013
0.00244393
0.00211785
0.00179186
0.00146595
0.00114011
0.000814328
0.000488581
0.000162858
0.000169403
0.000508219
0.000847062
0.00118595
0.0015249
0.00186393
0.00220306
0.0025423
0.00288168
0.0032212
0.00356089
0.00390076
0.00424083
0.00458111
0.00492162
0.00526237
0.00560338
0.00594466
0.00628622
0.00662807
0.00697024
0.00731272
0.00765553
0.00799867
0.00834216
0.008686
0.0090302
0.00937477
0.0097197
0.010065
0.0104107
0.0107568
0.0111032
0.01145
0.0117972
0.0121447
0.0124926
0.0128409
0.0131895
0.0135384
0.0138876
0.0142372
0.014587
0.0149371
0.0152875
0.0156381
0.0159889
0.0163398
0.016691
0.0170422
0.0173935
0.0177448
0.0180962
0.0184475
0.0187987
0.0191497
0.0195006
0.0198513
0.0202017
0.0205517
0.0209012
0.0212503
0.0215989
0.0219468
0.022294
0.0226404
0.0229859
0.0233305
0.023674
0.0240164
0.0243575
0.0246972
0.0250356
0.0253723
0.0257074
0.0260406
0.026372
0.0267013
0.0270284
0.0273532
0.0276756
0.0279953
0.0283124
0.0286266
0.0289378
0.0292457
0.0295504
0.0298516
0.0301491
0.0304428
0.0307325
0.0310181
0.0312994
0.0315762
0.0318483
0.0321155
0.0323778
0.0326349
0.0328866
0.0331328
0.0333732
0.0336078
0.0338363
0.0340585
0.0342744
0.0344836
0.0346861
0.0348817
0.0350702
0.0352514
0.0354253
0.0355916
0.0357502
0.035901
0.0360438
0.0361785
0.036305
0.0364231
0.0365327
0.0366338
0.0367262
0.0368099
0.0368847
0.0369505
0.0370074
0.0370552
0.037094
0.0371235
0.0371439
0.0371551
0.0371571
0.0371498
0.0371333
0.0371076
0.0370726
0.0370285
0.0369753
0.0369129
0.0368416
0.0367612
0.0366719
0.0365738
0.0364669
0.0363514
0.0362274
0.0360948
0.035954
0.0358049
0.0356478
0.0354827
0.0353098
0.0351292
0.034941
0.0347455
0.0345428
0.0343329
0.0341162
0.0338928
0.0336627
0.0334263
0.0331836
0.0329348
0.0326802
0.0324198
0.0321539
0.0318826
0.0316061
0.0313246
0.0310382
0.0307472
0.0304516
0.0301517
0.0298476
0.0295395
0.0292275
0.0289119
0.0285927
0.0282702
0.0279444
0.0276156
0.0272838
0.0269493
0.0266121
0.0262724
0.0259304
0.0255861
0.0252397
0.0248914
0.0245411
0.0241891
0.0238355
0.0234803
0.0231238
0.0227659
0.0224067
0.0220465
0.0216852
0.021323
0.0209599
0.020596
0.0202314
0.0198662
0.0195004
0.0191341
0.0187674
0.0184003