/*--------------------------------*- C++ -*----------------------------------*\
| =========                 |                                                 |
| \\      /  F ield         | OpenFOAM: The Open Source CFD Toolbox           |
|  \\    /   O peration     | Version:  v2012                                 |
|   \\  /    A nd           | Website:  www.openfoam.com                      |
|    \\/     M anipulation  |                                                 |
\*---------------------------------------------------------------------------*/
FoamFile
{
    version     2.0;
    format      ascii;
    class       volScalarField;
    location    "18.25";
    object      W;
}
// * * * * * * * * * * * * * * * * * * * * * * * * * * * * * * * * * * * * * //

dimensions      [0 0 -1 0 0 0 0];


internalField   nonuniform List<scalar> 
65536
(
1.77719e-13
1.77751e-13
1.80163e-13
1.84946e-13
1.92127e-13
2.01761e-13
2.13935e-13
2.28764e-13
2.46394e-13
2.67002e-13
2.90797e-13
3.1802e-13
3.4895e-13
3.83902e-13
4.23231e-13
4.67335e-13
5.1666e-13
5.71697e-13
6.32995e-13
7.01159e-13
7.76854e-13
8.60815e-13
9.53848e-13
1.05684e-12
1.17075e-12
1.29665e-12
1.43569e-12
1.58914e-12
1.75836e-12
1.94487e-12
2.1503e-12
2.3764e-12
2.62511e-12
2.8985e-12
3.19883e-12
3.52853e-12
3.89024e-12
4.28679e-12
4.72124e-12
5.19688e-12
5.71724e-12
6.2861e-12
6.90753e-12
7.58588e-12
8.32577e-12
9.13215e-12
1.00103e-11
1.09658e-11
1.20046e-11
1.3133e-11
1.43576e-11
1.56855e-11
1.7124e-11
1.86809e-11
2.03642e-11
2.21826e-11
2.41448e-11
2.62601e-11
2.8538e-11
3.09884e-11
3.36215e-11
3.64476e-11
3.94776e-11
4.27222e-11
4.61925e-11
4.98997e-11
5.3855e-11
5.80695e-11
6.25543e-11
6.73203e-11
7.23783e-11
7.77385e-11
8.34108e-11
8.94045e-11
9.57281e-11
1.0239e-10
1.09396e-10
1.16752e-10
1.24464e-10
1.32534e-10
1.40965e-10
1.49755e-10
1.58905e-10
1.68409e-10
1.78264e-10
1.8846e-10
1.98988e-10
2.09836e-10
2.20987e-10
2.32426e-10
2.44132e-10
2.56082e-10
2.6825e-10
2.80608e-10
2.93126e-10
3.05769e-10
3.18502e-10
3.31286e-10
3.4408e-10
3.56842e-10
3.69527e-10
3.82089e-10
3.9448e-10
4.06651e-10
4.18553e-10
4.30136e-10
4.41351e-10
4.52148e-10
4.62479e-10
4.72297e-10
4.81555e-10
4.9021e-10
4.98221e-10
5.0555e-10
5.12161e-10
5.18023e-10
5.23108e-10
5.27393e-10
5.30858e-10
5.33488e-10
5.35274e-10
5.36209e-10
5.36295e-10
5.35535e-10
5.33939e-10
5.31521e-10
5.28298e-10
5.24295e-10
5.19537e-10
5.14056e-10
5.07885e-10
5.01061e-10
4.93624e-10
4.85617e-10
4.77081e-10
4.68064e-10
4.58611e-10
4.48768e-10
4.38583e-10
4.28101e-10
4.1737e-10
4.06433e-10
3.95335e-10
3.84117e-10
3.72819e-10
3.6148e-10
3.50134e-10
3.38816e-10
3.27555e-10
3.16381e-10
3.05318e-10
2.94388e-10
2.83613e-10
2.73009e-10
2.62592e-10
2.52373e-10
2.42362e-10
2.32569e-10
2.22997e-10
2.13652e-10
2.04535e-10
1.95647e-10
1.86987e-10
1.78554e-10
1.70344e-10
1.62354e-10
1.54579e-10
1.47014e-10
1.39656e-10
1.32498e-10
1.25537e-10
1.18767e-10
1.12184e-10
1.05786e-10
9.95679e-11
9.35293e-11
8.76686e-11
8.19855e-11
7.64807e-11
7.11556e-11
6.60128e-11
6.10556e-11
5.62877e-11
5.17137e-11
4.73385e-11
4.3167e-11
3.92043e-11
3.54552e-11
3.1924e-11
2.86142e-11
2.55286e-11
2.26687e-11
2.00348e-11
1.76259e-11
1.54393e-11
1.34708e-11
1.17148e-11
1.01639e-11
8.80923e-12
7.64076e-12
6.64701e-12
5.81543e-12
5.13256e-12
4.58418e-12
4.1555e-12
3.8314e-12
3.59665e-12
3.43607e-12
3.33487e-12
3.27875e-12
3.25427e-12
3.24897e-12
3.25164e-12
3.25249e-12
3.24333e-12
3.21769e-12
3.17083e-12
3.09981e-12
3.00339e-12
2.88194e-12
2.73719e-12
2.57208e-12
2.39041e-12
2.19662e-12
1.99544e-12
1.79162e-12
1.58969e-12
1.39376e-12
1.20733e-12
1.0332e-12
8.73435e-13
7.29337e-13
6.01517e-13
4.89962e-13
3.94133e-13
3.13088e-13
2.45587e-13
1.90211e-13
1.45457e-13
1.0982e-13
8.1855e-14
6.02294e-14
4.37468e-14
3.13643e-14
2.21948e-14
1.55015e-14
1.06853e-14
7.26905e-15
4.88065e-15
3.23523e-15
2.119e-15
1.37475e-15
8.89417e-16
5.84028e-16
4.0578e-16
3.22306e-16
2.61699e-13
2.61763e-13
2.65353e-13
2.72457e-13
2.83113e-13
2.97407e-13
3.15467e-13
3.37468e-13
3.63628e-13
3.94212e-13
4.29536e-13
4.69962e-13
5.15907e-13
5.67846e-13
6.26313e-13
6.91907e-13
7.65297e-13
8.47225e-13
9.38515e-13
1.04008e-12
1.15292e-12
1.27815e-12
1.41699e-12
1.57076e-12
1.74093e-12
1.92911e-12
2.13705e-12
2.36665e-12
2.62001e-12
2.89939e-12
3.20727e-12
3.54633e-12
3.91949e-12
4.32991e-12
4.781e-12
5.27648e-12
5.82034e-12
6.4169e-12
7.07079e-12
7.78704e-12
8.571e-12
9.42845e-12
1.03656e-11
1.13889e-11
1.25057e-11
1.37233e-11
1.50497e-11
1.64935e-11
1.80638e-11
1.977e-11
2.16224e-11
2.36314e-11
2.58083e-11
2.81649e-11
3.07135e-11
3.34669e-11
3.64384e-11
3.9642e-11
4.3092e-11
4.68033e-11
5.07909e-11
5.50706e-11
5.96583e-11
6.457e-11
6.98221e-11
7.54309e-11
8.14128e-11
8.7784e-11
9.45605e-11
1.01758e-10
1.09391e-10
1.17474e-10
1.26022e-10
1.35045e-10
1.44556e-10
1.54564e-10
1.65077e-10
1.76102e-10
1.87644e-10
1.99703e-10
2.12281e-10
2.25372e-10
2.38972e-10
2.53071e-10
2.67657e-10
2.82713e-10
2.98219e-10
3.14153e-10
3.30487e-10
3.47188e-10
3.64222e-10
3.81548e-10
3.99124e-10
4.169e-10
4.34826e-10
4.52846e-10
4.70901e-10
4.88929e-10
5.06864e-10
5.24638e-10
5.42182e-10
5.59423e-10
5.76289e-10
5.92705e-10
6.08597e-10
6.23891e-10
6.38516e-10
6.52399e-10
6.65472e-10
6.7767e-10
6.8893e-10
6.99195e-10
7.0841e-10
7.1653e-10
7.2351e-10
7.29317e-10
7.3392e-10
7.37298e-10
7.39436e-10
7.40327e-10
7.3997e-10
7.38374e-10
7.35553e-10
7.31529e-10
7.26332e-10
7.19996e-10
7.12565e-10
7.04086e-10
6.94612e-10
6.842e-10
6.72912e-10
6.60814e-10
6.47972e-10
6.34458e-10
6.20341e-10
6.05694e-10
5.90589e-10
5.75097e-10
5.59288e-10
5.43231e-10
5.26992e-10
5.10634e-10
4.94218e-10
4.77801e-10
4.61436e-10
4.45172e-10
4.29056e-10
4.13128e-10
3.97425e-10
3.81981e-10
3.66823e-10
3.51977e-10
3.37463e-10
3.23298e-10
3.09495e-10
2.96065e-10
2.83013e-10
2.70344e-10
2.58059e-10
2.46157e-10
2.34634e-10
2.23485e-10
2.12704e-10
2.02283e-10
1.92212e-10
1.82482e-10
1.73081e-10
1.64001e-10
1.55229e-10
1.46755e-10
1.38569e-10
1.30662e-10
1.23022e-10
1.15644e-10
1.08518e-10
1.01639e-10
9.50015e-11
8.86012e-11
8.24351e-11
7.65014e-11
7.07993e-11
6.53291e-11
6.00917e-11
5.5089e-11
5.03232e-11
4.5797e-11
4.15131e-11
3.7474e-11
3.36819e-11
3.01386e-11
2.68446e-11
2.37997e-11
2.10024e-11
1.84498e-11
1.61378e-11
1.40605e-11
1.22106e-11
1.05794e-11
9.15661e-12
7.93081e-12
6.88932e-12
6.01839e-12
5.30348e-12
4.72934e-12
4.28025e-12
3.94024e-12
3.69328e-12
3.52353e-12
3.41553e-12
3.35446e-12
3.32638e-12
3.31842e-12
3.31902e-12
3.31812e-12
3.30728e-12
3.27986e-12
3.23101e-12
3.1577e-12
3.05868e-12
2.93428e-12
2.78629e-12
2.61768e-12
2.43233e-12
2.23474e-12
2.02972e-12
1.82211e-12
1.6165e-12
1.41706e-12
1.22735e-12
1.05019e-12
8.87689e-13
7.41151e-13
6.11192e-13
4.97789e-13
4.00389e-13
3.18025e-13
2.49437e-13
1.93176e-13
1.47712e-13
1.11513e-13
8.31105e-14
6.11487e-14
4.44114e-14
3.18386e-14
2.25291e-14
1.5734e-14
1.08449e-14
7.37724e-15
4.95304e-15
3.28304e-15
2.15021e-15
1.39493e-15
9.02434e-16
5.92547e-16
4.11682e-16
3.26991e-16
4.59989e-13
4.60144e-13
4.66541e-13
4.79158e-13
4.98068e-13
5.23423e-13
5.55457e-13
5.94482e-13
6.40893e-13
6.95169e-13
7.57872e-13
8.29659e-13
9.1128e-13
1.00359e-12
1.10755e-12
1.22424e-12
1.35486e-12
1.50077e-12
1.66343e-12
1.84451e-12
2.04582e-12
2.26936e-12
2.51733e-12
2.79216e-12
3.09649e-12
3.43324e-12
3.80558e-12
4.21698e-12
4.67124e-12
5.17249e-12
5.72521e-12
6.33431e-12
7.00509e-12
7.74332e-12
8.55524e-12
9.44759e-12
1.04277e-11
1.15034e-11
1.26832e-11
1.39763e-11
1.53925e-11
1.69423e-11
1.8637e-11
2.04887e-11
2.25104e-11
2.47158e-11
2.71195e-11
2.97372e-11
3.25854e-11
3.56814e-11
3.90438e-11
4.26921e-11
4.66465e-11
5.09286e-11
5.55608e-11
6.05664e-11
6.59696e-11
7.17957e-11
7.80706e-11
8.4821e-11
9.20745e-11
9.98589e-11
1.08203e-10
1.17135e-10
1.26684e-10
1.36879e-10
1.47749e-10
1.59321e-10
1.71624e-10
1.84684e-10
1.98526e-10
2.13175e-10
2.28651e-10
2.44975e-10
2.62165e-10
2.80233e-10
2.99191e-10
3.19045e-10
3.39799e-10
3.61451e-10
3.83993e-10
4.07414e-10
4.31696e-10
4.56814e-10
4.82738e-10
5.0943e-10
5.36846e-10
5.64934e-10
5.93635e-10
6.22881e-10
6.52599e-10
6.82707e-10
7.13116e-10
7.4373e-10
7.74445e-10
8.05152e-10
8.35736e-10
8.66077e-10
8.96049e-10
9.25523e-10
9.54368e-10
9.82451e-10
1.00964e-09
1.03579e-09
1.06078e-09
1.08448e-09
1.10675e-09
1.12748e-09
1.14656e-09
1.16387e-09
1.17932e-09
1.19282e-09
1.20429e-09
1.21366e-09
1.22088e-09
1.22591e-09
1.22872e-09
1.2293e-09
1.22764e-09
1.22377e-09
1.21771e-09
1.2095e-09
1.19919e-09
1.18687e-09
1.1726e-09
1.15649e-09
1.13862e-09
1.11911e-09
1.09808e-09
1.07565e-09
1.05195e-09
1.02712e-09
1.00128e-09
9.74583e-10
9.47153e-10
9.19129e-10
8.90641e-10
8.61818e-10
8.32785e-10
8.03658e-10
7.7455e-10
7.45565e-10
7.16801e-10
6.88348e-10
6.60287e-10
6.32691e-10
6.05627e-10
5.79149e-10
5.53309e-10
5.28146e-10
5.03694e-10
4.79979e-10
4.57021e-10
4.34832e-10
4.13421e-10
3.92789e-10
3.72932e-10
3.53844e-10
3.35514e-10
3.17926e-10
3.01064e-10
2.84908e-10
2.69436e-10
2.54625e-10
2.40452e-10
2.26892e-10
2.13918e-10
2.01508e-10
1.89635e-10
1.78276e-10
1.67407e-10
1.57007e-10
1.47055e-10
1.37531e-10
1.28418e-10
1.19698e-10
1.11358e-10
1.03385e-10
9.57678e-11
8.84966e-11
8.15638e-11
7.49628e-11
6.86886e-11
6.2737e-11
5.7105e-11
5.179e-11
4.67898e-11
4.21024e-11
3.77255e-11
3.36564e-11
2.9892e-11
2.6428e-11
2.32592e-11
2.0379e-11
1.77798e-11
1.54523e-11
1.3386e-11
1.15689e-11
9.98793e-12
8.62868e-12
7.47573e-12
6.51278e-12
5.72284e-12
5.08838e-12
4.59158e-12
4.21449e-12
3.93929e-12
3.74848e-12
3.62514e-12
3.55313e-12
3.51731e-12
3.50381e-12
3.50021e-12
3.49571e-12
3.48132e-12
3.44993e-12
3.39638e-12
3.31746e-12
3.21181e-12
3.07977e-12
2.92321e-12
2.74524e-12
2.54993e-12
2.34199e-12
2.12644e-12
1.90835e-12
1.69251e-12
1.48329e-12
1.28436e-12
1.0987e-12
9.28467e-13
7.7502e-13
6.38981e-13
5.20312e-13
4.18421e-13
3.32284e-13
2.60572e-13
2.01764e-13
1.54253e-13
1.16432e-13
8.6764e-14
6.38275e-14
4.63506e-14
3.32244e-14
2.35067e-14
1.64148e-14
1.13129e-14
7.69473e-15
5.16566e-15
3.42364e-15
2.24209e-15
1.4544e-15
9.40822e-16
6.17698e-16
4.2912e-16
3.40824e-16
8.46886e-13
8.47254e-13
8.5919e-13
8.82661e-13
9.17803e-13
9.64906e-13
1.02441e-12
1.09691e-12
1.18314e-12
1.284e-12
1.40056e-12
1.53405e-12
1.68589e-12
1.85768e-12
2.05124e-12
2.26861e-12
2.51206e-12
2.78411e-12
3.08759e-12
3.42561e-12
3.8016e-12
4.21935e-12
4.68303e-12
5.19723e-12
5.76697e-12
6.39778e-12
7.09569e-12
7.86729e-12
8.71979e-12
9.66105e-12
1.06996e-11
1.18448e-11
1.31068e-11
1.44964e-11
1.60258e-11
1.77076e-11
1.95559e-11
2.15858e-11
2.38134e-11
2.62562e-11
2.89331e-11
3.18642e-11
3.50711e-11
3.8577e-11
4.24066e-11
4.65863e-11
5.11441e-11
5.61099e-11
6.15153e-11
6.73938e-11
7.37806e-11
8.07129e-11
8.82298e-11
9.63723e-11
1.05183e-10
1.14707e-10
1.24989e-10
1.36079e-10
1.48025e-10
1.60878e-10
1.7469e-10
1.89514e-10
2.05404e-10
2.22413e-10
2.40595e-10
2.60005e-10
2.80694e-10
3.02717e-10
3.26121e-10
3.50956e-10
3.77268e-10
4.05096e-10
4.34481e-10
4.65453e-10
4.98042e-10
5.32268e-10
5.68145e-10
6.05679e-10
6.44869e-10
6.85701e-10
7.28154e-10
7.72194e-10
8.17776e-10
8.64843e-10
9.13324e-10
9.63135e-10
1.01418e-09
1.06634e-09
1.11949e-09
1.1735e-09
1.2282e-09
1.28342e-09
1.33899e-09
1.39469e-09
1.45033e-09
1.50569e-09
1.56052e-09
1.6146e-09
1.66767e-09
1.71948e-09
1.76978e-09
1.81831e-09
1.86481e-09
1.90903e-09
1.95072e-09
1.98965e-09
2.02559e-09
2.05831e-09
2.08762e-09
2.11334e-09
2.13529e-09
2.15335e-09
2.1674e-09
2.17733e-09
2.18309e-09
2.18463e-09
2.18194e-09
2.17504e-09
2.16398e-09
2.14882e-09
2.12966e-09
2.10663e-09
2.07988e-09
2.04958e-09
2.01592e-09
1.97911e-09
1.93938e-09
1.89698e-09
1.85215e-09
1.80516e-09
1.75627e-09
1.70575e-09
1.65387e-09
1.60089e-09
1.54709e-09
1.49271e-09
1.438e-09
1.38319e-09
1.32852e-09
1.27418e-09
1.22037e-09
1.16726e-09
1.11503e-09
1.06381e-09
1.01373e-09
9.64896e-10
9.17413e-10
8.71353e-10
8.2678e-10
7.83741e-10
7.4227e-10
7.02389e-10
6.64108e-10
6.27424e-10
5.92327e-10
5.58796e-10
5.26804e-10
4.96318e-10
4.67297e-10
4.39698e-10
4.13472e-10
3.88569e-10
3.64937e-10
3.4252e-10
3.21264e-10
3.01115e-10
2.82019e-10
2.63922e-10
2.46772e-10
2.3052e-10
2.15117e-10
2.00519e-10
1.86681e-10
1.73564e-10
1.6113e-10
1.49345e-10
1.38177e-10
1.27597e-10
1.1758e-10
1.08101e-10
9.91415e-11
9.06819e-11
8.27061e-11
7.52e-11
6.81507e-11
6.15466e-11
5.53772e-11
4.96324e-11
4.43025e-11
3.93777e-11
3.48478e-11
3.07022e-11
2.69293e-11
2.35167e-11
2.04507e-11
1.77167e-11
1.52987e-11
1.31798e-11
1.13419e-11
9.7658e-12
8.4318e-12
7.31938e-12
6.40759e-12
5.67521e-12
5.10098e-12
4.66378e-12
4.34286e-12
4.11805e-12
3.97001e-12
3.88043e-12
3.83229e-12
3.81004e-12
3.79983e-12
3.78969e-12
3.76967e-12
3.73193e-12
3.67081e-12
3.58276e-12
3.46626e-12
3.32168e-12
3.15101e-12
2.95759e-12
2.74579e-12
2.52068e-12
2.28767e-12
2.05217e-12
1.81934e-12
1.59382e-12
1.37956e-12
1.17973e-12
9.96605e-13
8.3163e-13
6.85444e-13
5.57983e-13
4.48589e-13
3.56146e-13
2.79213e-13
2.16145e-13
1.65209e-13
1.24674e-13
9.28858e-14
6.8317e-14
4.96012e-14
3.55479e-14
2.51462e-14
1.75567e-14
1.20979e-14
8.22745e-15
5.5225e-15
3.65964e-15
2.39632e-15
1.55425e-15
1.00529e-15
6.59942e-16
4.58414e-16
3.64062e-16
1.56064e-12
1.56148e-12
1.58378e-12
1.62748e-12
1.69284e-12
1.78043e-12
1.89106e-12
2.02585e-12
2.18621e-12
2.37382e-12
2.59069e-12
2.83915e-12
3.12185e-12
3.44184e-12
3.80253e-12
4.20776e-12
4.66183e-12
5.16953e-12
5.73616e-12
6.3676e-12
7.07036e-12
7.85162e-12
8.71927e-12
9.682e-12
1.07494e-11
1.19318e-11
1.32408e-11
1.46889e-11
1.62897e-11
1.80583e-11
2.00109e-11
2.21653e-11
2.45407e-11
2.71582e-11
3.00403e-11
3.32118e-11
3.66992e-11
4.05314e-11
4.47394e-11
4.93565e-11
5.44189e-11
5.9965e-11
6.60364e-11
7.26773e-11
7.99353e-11
8.78607e-11
9.65074e-11
1.05933e-10
1.16197e-10
1.27365e-10
1.39503e-10
1.52684e-10
1.66982e-10
1.82475e-10
1.99245e-10
2.17378e-10
2.36962e-10
2.58089e-10
2.80852e-10
3.05348e-10
3.31676e-10
3.59937e-10
3.90231e-10
4.22662e-10
4.57329e-10
4.94335e-10
5.33779e-10
5.75756e-10
6.2036e-10
6.67679e-10
7.17793e-10
7.70779e-10
8.26702e-10
8.85617e-10
9.4757e-10
1.01259e-09
1.0807e-09
1.15189e-09
1.22615e-09
1.30345e-09
1.38372e-09
1.46689e-09
1.55285e-09
1.64148e-09
1.73261e-09
1.82608e-09
1.92167e-09
2.01914e-09
2.11824e-09
2.21866e-09
2.32009e-09
2.42218e-09
2.52455e-09
2.62681e-09
2.72854e-09
2.8293e-09
2.92862e-09
3.02604e-09
3.12107e-09
3.21322e-09
3.30201e-09
3.38693e-09
3.4675e-09
3.54325e-09
3.61372e-09
3.67846e-09
3.73707e-09
3.78916e-09
3.83438e-09
3.87242e-09
3.90301e-09
3.92593e-09
3.94102e-09
3.94815e-09
3.94725e-09
3.93832e-09
3.92141e-09
3.8966e-09
3.86405e-09
3.82398e-09
3.77664e-09
3.72233e-09
3.66141e-09
3.59427e-09
3.52133e-09
3.44306e-09
3.35992e-09
3.27244e-09
3.18112e-09
3.08649e-09
2.98909e-09
2.88943e-09
2.78806e-09
2.68546e-09
2.58214e-09
2.47858e-09
2.37522e-09
2.27248e-09
2.17077e-09
2.07043e-09
1.97181e-09
1.87519e-09
1.78084e-09
1.68899e-09
1.59983e-09
1.51352e-09
1.43018e-09
1.34992e-09
1.27281e-09
1.19888e-09
1.12816e-09
1.06064e-09
9.96304e-10
9.35101e-10
8.76976e-10
8.21856e-10
7.6966e-10
7.20293e-10
6.73657e-10
6.29645e-10
5.88148e-10
5.49051e-10
5.12242e-10
4.77605e-10
4.45028e-10
4.14398e-10
3.85608e-10
3.58551e-10
3.33125e-10
3.09234e-10
2.86785e-10
2.6569e-10
2.45867e-10
2.27238e-10
2.09733e-10
1.93283e-10
1.77828e-10
1.63313e-10
1.49685e-10
1.36898e-10
1.24909e-10
1.13681e-10
1.03179e-10
9.33717e-11
8.42299e-11
7.57278e-11
6.7841e-11
6.05468e-11
5.38234e-11
4.76498e-11
4.20051e-11
3.68685e-11
3.22188e-11
2.80344e-11
2.4293e-11
2.09714e-11
1.80458e-11
1.54916e-11
1.32833e-11
1.13952e-11
9.80074e-12
8.47345e-12
7.38659e-12
6.51361e-12
5.82825e-12
5.3048e-12
4.91829e-12
4.64472e-12
4.46127e-12
4.34653e-12
4.28074e-12
4.24597e-12
4.22632e-12
4.20815e-12
4.18013e-12
4.13339e-12
4.06151e-12
3.96049e-12
3.82859e-12
3.66618e-12
3.47544e-12
3.26003e-12
3.02478e-12
2.77525e-12
2.51736e-12
2.25708e-12
2.00004e-12
1.75132e-12
1.51523e-12
1.29521e-12
1.09372e-12
9.12318e-13
7.51674e-13
6.11682e-13
4.91594e-13
3.90164e-13
3.05789e-13
2.36648e-13
1.8083e-13
1.36425e-13
1.01615e-13
7.47189e-14
5.42366e-14
3.88613e-14
2.74842e-14
1.91853e-14
1.32176e-14
8.98727e-15
6.03146e-15
3.99626e-15
2.61633e-15
1.69669e-15
1.09726e-15
7.2021e-16
5.00208e-16
3.97216e-16
2.8426e-12
2.84442e-12
2.8856e-12
2.96604e-12
3.08625e-12
3.24726e-12
3.45062e-12
3.6984e-12
3.99321e-12
4.33821e-12
4.73713e-12
5.19429e-12
5.71467e-12
6.30391e-12
6.96839e-12
7.71529e-12
8.5526e-12
9.48926e-12
1.05352e-11
1.17014e-11
1.3e-11
1.44445e-11
1.60496e-11
1.78317e-11
1.98086e-11
2.19999e-11
2.44272e-11
2.7114e-11
3.00861e-11
3.33715e-11
3.7001e-11
4.1008e-11
4.54287e-11
5.03028e-11
5.5673e-11
6.15859e-11
6.80918e-11
7.5245e-11
8.31042e-11
9.17326e-11
1.01198e-10
1.11575e-10
1.2294e-10
1.35379e-10
1.4898e-10
1.6384e-10
1.80061e-10
1.97751e-10
2.17026e-10
2.38006e-10
2.60821e-10
2.85606e-10
3.12503e-10
3.4166e-10
3.73233e-10
4.07384e-10
4.4428e-10
4.84093e-10
5.27004e-10
5.73193e-10
6.22848e-10
6.76157e-10
7.33312e-10
7.94503e-10
8.59922e-10
9.29756e-10
1.00419e-09
1.0834e-09
1.16756e-09
1.25683e-09
1.35135e-09
1.45127e-09
1.55669e-09
1.66771e-09
1.7844e-09
1.9068e-09
2.03494e-09
2.16879e-09
2.30831e-09
2.4534e-09
2.60394e-09
2.75973e-09
2.92057e-09
3.08619e-09
3.25625e-09
3.43038e-09
3.60816e-09
3.78911e-09
3.97268e-09
4.15828e-09
4.34528e-09
4.53297e-09
4.72062e-09
4.90743e-09
5.09259e-09
5.27523e-09
5.45446e-09
5.62936e-09
5.79901e-09
5.96246e-09
6.11877e-09
6.26702e-09
6.40631e-09
6.53574e-09
6.65447e-09
6.76171e-09
6.85671e-09
6.93882e-09
7.00741e-09
7.06199e-09
7.10211e-09
7.12746e-09
7.13779e-09
7.13299e-09
7.11303e-09
7.078e-09
7.02811e-09
6.96365e-09
6.88503e-09
6.79277e-09
6.68745e-09
6.56976e-09
6.44048e-09
6.30044e-09
6.15053e-09
5.99169e-09
5.82491e-09
5.6512e-09
5.47158e-09
5.28709e-09
5.09874e-09
4.90756e-09
4.71452e-09
4.52058e-09
4.32664e-09
4.13357e-09
3.94216e-09
3.75316e-09
3.56726e-09
3.38506e-09
3.20712e-09
3.0339e-09
2.86582e-09
2.70322e-09
2.54638e-09
2.39552e-09
2.25078e-09
2.11227e-09
1.98004e-09
1.85409e-09
1.73438e-09
1.62083e-09
1.51333e-09
1.41174e-09
1.3159e-09
1.22562e-09
1.14069e-09
1.06092e-09
9.86074e-10
9.15924e-10
8.5024e-10
7.88789e-10
7.31343e-10
6.77673e-10
6.27559e-10
5.80783e-10
5.37139e-10
4.96427e-10
4.58457e-10
4.23047e-10
3.90027e-10
3.59237e-10
3.30525e-10
3.03753e-10
2.78789e-10
2.55513e-10
2.33815e-10
2.13592e-10
1.94752e-10
1.77209e-10
1.60886e-10
1.45711e-10
1.31621e-10
1.18557e-10
1.06465e-10
9.52963e-11
8.50044e-11
7.55471e-11
6.68841e-11
5.8977e-11
5.1789e-11
4.52839e-11
3.94263e-11
3.41811e-11
2.9513e-11
2.5387e-11
2.17675e-11
1.86192e-11
1.59064e-11
1.35935e-11
1.16451e-11
1.00261e-11
8.7017e-12
7.63809e-12
6.80212e-12
6.1618e-12
5.68641e-12
5.34672e-12
5.11521e-12
4.96629e-12
4.87647e-12
4.82462e-12
4.79212e-12
4.76303e-12
4.72422e-12
4.6654e-12
4.57916e-12
4.46087e-12
4.3085e-12
4.12242e-12
3.90505e-12
3.6605e-12
3.39416e-12
3.11226e-12
2.82143e-12
2.52833e-12
2.23923e-12
1.95978e-12
1.69478e-12
1.44802e-12
1.22223e-12
1.01908e-12
8.39303e-13
6.82728e-13
5.4849e-13
4.35167e-13
3.40944e-13
2.6377e-13
2.01492e-13
1.51969e-13
1.1316e-13
8.31861e-14
6.03671e-14
4.32434e-14
3.05763e-14
2.13389e-14
1.46982e-14
9.99205e-15
6.70452e-15
4.44141e-15
2.90726e-15
1.88505e-15
1.21887e-15
7.99908e-16
5.55477e-16
4.41059e-16
5.10107e-12
5.1049e-12
5.17987e-12
5.32583e-12
5.54371e-12
5.83543e-12
6.20383e-12
6.65273e-12
7.18693e-12
7.8122e-12
8.53541e-12
9.36448e-12
1.03086e-11
1.1378e-11
1.25846e-11
1.39414e-11
1.54632e-11
1.71665e-11
1.90694e-11
2.11924e-11
2.35577e-11
2.61902e-11
2.91171e-11
3.23686e-11
3.59777e-11
3.99807e-11
4.44174e-11
4.93315e-11
5.47706e-11
6.0787e-11
6.74375e-11
7.47841e-11
8.28944e-11
9.18419e-11
1.01706e-10
1.12574e-10
1.24539e-10
1.37703e-10
1.52174e-10
1.68071e-10
1.85522e-10
2.04662e-10
2.25639e-10
2.4861e-10
2.73742e-10
3.01215e-10
3.3122e-10
3.63961e-10
3.99652e-10
4.38522e-10
4.80812e-10
5.26775e-10
5.76677e-10
6.30797e-10
6.89426e-10
7.52866e-10
8.21433e-10
8.95449e-10
9.75248e-10
1.06117e-09
1.15357e-09
1.25279e-09
1.35919e-09
1.47313e-09
1.59496e-09
1.72503e-09
1.86367e-09
2.01122e-09
2.16799e-09
2.33426e-09
2.51031e-09
2.69637e-09
2.89263e-09
3.09927e-09
3.31639e-09
3.54406e-09
3.78228e-09
4.03099e-09
4.29007e-09
4.5593e-09
4.83841e-09
5.12703e-09
5.42469e-09
5.73084e-09
6.04482e-09
6.36589e-09
6.69319e-09
7.02574e-09
7.36251e-09
7.70231e-09
8.04389e-09
8.38589e-09
8.72687e-09
9.0653e-09
9.39959e-09
9.72808e-09
1.00491e-08
1.03608e-08
1.06615e-08
1.09495e-08
1.12229e-08
1.148e-08
1.17192e-08
1.19388e-08
1.21374e-08
1.23134e-08
1.24656e-08
1.25929e-08
1.26941e-08
1.27685e-08
1.28154e-08
1.28344e-08
1.28251e-08
1.27875e-08
1.27218e-08
1.26282e-08
1.25074e-08
1.23601e-08
1.21873e-08
1.199e-08
1.17697e-08
1.15277e-08
1.12657e-08
1.09853e-08
1.06884e-08
1.03769e-08
1.00526e-08
9.71756e-09
9.37376e-09
9.02314e-09
8.66765e-09
8.30916e-09
7.94949e-09
7.59036e-09
7.23343e-09
6.88019e-09
6.53207e-09
6.19034e-09
5.85614e-09
5.5305e-09
5.21428e-09
4.90824e-09
4.61299e-09
4.32901e-09
4.05667e-09
3.79623e-09
3.54783e-09
3.31151e-09
3.08723e-09
2.87488e-09
2.67424e-09
2.48509e-09
2.30709e-09
2.1399e-09
1.98314e-09
1.83639e-09
1.69922e-09
1.57117e-09
1.45178e-09
1.3406e-09
1.23717e-09
1.14103e-09
1.05175e-09
9.68882e-10
8.92017e-10
8.20755e-10
7.54712e-10
6.93524e-10
6.36847e-10
5.84357e-10
5.3575e-10
4.90741e-10
4.49066e-10
4.10478e-10
3.74751e-10
3.41675e-10
3.11059e-10
2.82725e-10
2.56513e-10
2.32275e-10
2.09878e-10
1.89198e-10
1.70126e-10
1.52559e-10
1.36404e-10
1.21577e-10
1.07999e-10
9.55958e-11
8.43007e-11
7.40491e-11
6.47802e-11
5.64354e-11
4.89586e-11
4.2295e-11
3.63911e-11
3.11946e-11
2.66539e-11
2.27184e-11
1.93383e-11
1.64646e-11
1.40494e-11
1.20462e-11
1.04094e-11
9.09515e-12
8.06129e-12
7.26743e-12
6.67522e-12
6.24856e-12
5.95374e-12
5.75967e-12
5.63804e-12
5.56352e-12
5.51394e-12
5.47041e-12
5.41742e-12
5.3429e-12
5.23812e-12
5.09764e-12
4.91906e-12
4.70272e-12
4.45137e-12
4.16966e-12
3.86371e-12
3.54059e-12
3.20783e-12
2.87296e-12
2.54308e-12
2.22457e-12
1.92282e-12
1.64208e-12
1.38539e-12
1.15463e-12
9.50539e-13
7.72903e-13
6.20698e-13
4.92275e-13
3.85552e-13
2.9818e-13
2.27704e-13
1.71686e-13
1.27805e-13
9.39251e-14
6.81421e-14
4.88005e-14
3.44973e-14
2.40698e-14
1.65756e-14
1.1266e-14
7.55784e-15
5.00576e-15
3.2761e-15
2.12384e-15
1.37305e-15
9.0094e-16
6.25541e-16
4.96639e-16
9.01182e-12
9.01965e-12
9.15408e-12
9.41492e-12
9.80389e-12
1.03244e-11
1.09817e-11
1.17827e-11
1.2736e-11
1.38522e-11
1.51435e-11
1.66243e-11
1.83112e-11
2.0223e-11
2.23808e-11
2.48085e-11
2.75328e-11
3.05835e-11
3.39938e-11
3.78003e-11
4.20439e-11
4.67696e-11
5.2027e-11
5.78708e-11
6.43612e-11
7.15645e-11
7.95532e-11
8.84069e-11
9.82128e-11
1.09066e-10
1.21071e-10
1.34341e-10
1.48999e-10
1.65181e-10
1.83033e-10
2.02712e-10
2.24392e-10
2.48259e-10
2.74513e-10
3.03372e-10
3.3507e-10
3.69859e-10
4.08008e-10
4.49808e-10
4.95568e-10
5.4562e-10
6.00317e-10
6.60033e-10
7.25166e-10
7.96139e-10
8.73396e-10
9.57407e-10
1.04866e-09
1.14768e-09
1.255e-09
1.37117e-09
1.49679e-09
1.63244e-09
1.77875e-09
1.93635e-09
2.10588e-09
2.28798e-09
2.48332e-09
2.69255e-09
2.91632e-09
3.15527e-09
3.41002e-09
3.68116e-09
3.96926e-09
4.27484e-09
4.59839e-09
4.94031e-09
5.30096e-09
5.6806e-09
6.07942e-09
6.4975e-09
6.93481e-09
7.3912e-09
7.86637e-09
8.3599e-09
8.87121e-09
9.39954e-09
9.94398e-09
1.05034e-08
1.10766e-08
1.1662e-08
1.2258e-08
1.28626e-08
1.3474e-08
1.40897e-08
1.47074e-08
1.53245e-08
1.59382e-08
1.65456e-08
1.71437e-08
1.77294e-08
1.82995e-08
1.88506e-08
1.93795e-08
1.98829e-08
2.03576e-08
2.08003e-08
2.12081e-08
2.1578e-08
2.19072e-08
2.21934e-08
2.2434e-08
2.26273e-08
2.27715e-08
2.28653e-08
2.29076e-08
2.2898e-08
2.2836e-08
2.27219e-08
2.25563e-08
2.23402e-08
2.20748e-08
2.17618e-08
2.14035e-08
2.10021e-08
2.05603e-08
2.00811e-08
1.95678e-08
1.90236e-08
1.84522e-08
1.78571e-08
1.72421e-08
1.6611e-08
1.59674e-08
1.5315e-08
1.46573e-08
1.39979e-08
1.334e-08
1.26866e-08
1.20407e-08
1.14049e-08
1.07816e-08
1.0173e-08
9.58094e-09
9.00706e-09
8.45275e-09
7.91912e-09
7.40704e-09
6.91715e-09
6.44988e-09
6.00544e-09
5.58386e-09
5.185e-09
4.80857e-09
4.45413e-09
4.12116e-09
3.80901e-09
3.51696e-09
3.24424e-09
2.99001e-09
2.75341e-09
2.53356e-09
2.32955e-09
2.14049e-09
1.96549e-09
1.80368e-09
1.6542e-09
1.51623e-09
1.38897e-09
1.27168e-09
1.16362e-09
1.0641e-09
9.72497e-10
8.88188e-10
8.10612e-10
7.3924e-10
6.73582e-10
6.13184e-10
5.57627e-10
5.06526e-10
4.59527e-10
4.16308e-10
3.76571e-10
3.40049e-10
3.06495e-10
2.75687e-10
2.47422e-10
2.21515e-10
1.97799e-10
1.76121e-10
1.56342e-10
1.38332e-10
1.21973e-10
1.07157e-10
9.37798e-11
8.17464e-11
7.09658e-11
6.13516e-11
5.28212e-11
4.52954e-11
3.86977e-11
3.2954e-11
2.79929e-11
2.37451e-11
2.01436e-11
1.71238e-11
1.46234e-11
1.25828e-11
1.09451e-11
9.65583e-12
8.66384e-12
7.92084e-12
7.38179e-12
7.00501e-12
6.75232e-12
6.58924e-12
6.4851e-12
6.41317e-12
6.35084e-12
6.27958e-12
6.185e-12
6.05677e-12
5.88839e-12
5.67698e-12
5.42286e-12
5.12914e-12
4.80116e-12
4.44594e-12
4.07159e-12
3.68675e-12
3.30002e-12
2.91953e-12
2.55256e-12
2.20523e-12
1.88236e-12
1.5874e-12
1.32241e-12
1.08821e-12
8.84489e-13
7.10036e-13
5.62922e-13
4.40727e-13
3.40737e-13
2.60118e-13
1.96065e-13
1.4591e-13
1.07201e-13
7.77526e-14
5.5669e-14
3.93431e-14
2.74446e-14
1.88955e-14
1.28401e-14
8.61216e-15
5.70301e-15
3.73177e-15
2.41884e-15
1.5635e-15
1.02575e-15
7.1209e-16
5.65295e-16
1.56717e-11
1.56872e-11
1.59247e-11
1.63838e-11
1.70676e-11
1.79823e-11
1.91373e-11
2.05448e-11
2.22202e-11
2.41822e-11
2.64528e-11
2.90576e-11
3.20261e-11
3.53917e-11
3.91922e-11
4.34702e-11
4.82734e-11
5.36549e-11
5.9674e-11
6.63964e-11
7.38951e-11
8.22504e-11
9.15515e-11
1.01897e-10
1.13393e-10
1.26161e-10
1.40329e-10
1.56042e-10
1.73456e-10
1.92742e-10
2.14089e-10
2.377e-10
2.63799e-10
2.92628e-10
3.24453e-10
3.5956e-10
3.98261e-10
4.40892e-10
4.87818e-10
5.39433e-10
5.96161e-10
6.58459e-10
7.26819e-10
8.01766e-10
8.83865e-10
9.73718e-10
1.07197e-09
1.1793e-09
1.29643e-09
1.42414e-09
1.56323e-09
1.71456e-09
1.87904e-09
2.05759e-09
2.25121e-09
2.46092e-09
2.68777e-09
2.93286e-09
3.19732e-09
3.4823e-09
3.78898e-09
4.11853e-09
4.47215e-09
4.85104e-09
5.25638e-09
5.68932e-09
6.151e-09
6.64248e-09
7.16479e-09
7.71887e-09
8.30556e-09
8.92561e-09
9.57961e-09
1.0268e-08
1.09911e-08
1.1749e-08
1.25417e-08
1.33686e-08
1.42293e-08
1.51229e-08
1.60482e-08
1.70038e-08
1.79878e-08
1.89982e-08
2.00325e-08
2.10878e-08
2.2161e-08
2.32485e-08
2.43464e-08
2.54505e-08
2.65562e-08
2.76586e-08
2.87525e-08
2.98326e-08
3.0893e-08
3.19281e-08
3.29319e-08
3.38983e-08
3.48213e-08
3.56948e-08
3.65129e-08
3.72699e-08
3.79602e-08
3.85787e-08
3.91206e-08
3.95813e-08
3.99569e-08
4.02442e-08
4.04404e-08
4.05433e-08
4.05516e-08
4.04645e-08
4.02821e-08
4.00051e-08
3.96351e-08
3.91743e-08
3.86257e-08
3.79929e-08
3.72802e-08
3.64924e-08
3.5635e-08
3.47138e-08
3.37349e-08
3.2705e-08
3.16307e-08
3.05191e-08
2.9377e-08
2.82114e-08
2.70291e-08
2.5837e-08
2.46414e-08
2.34484e-08
2.2264e-08
2.10935e-08
1.9942e-08
1.88139e-08
1.77134e-08
1.66439e-08
1.56085e-08
1.46098e-08
1.36499e-08
1.27303e-08
1.18523e-08
1.10165e-08
1.02234e-08
9.47284e-09
8.76458e-09
8.09799e-09
7.47218e-09
6.88608e-09
6.33843e-09
5.82781e-09
5.35268e-09
4.91145e-09
4.50243e-09
4.12391e-09
3.77417e-09
3.4515e-09
3.15419e-09
2.88059e-09
2.62908e-09
2.39811e-09
2.18619e-09
1.9919e-09
1.81388e-09
1.65087e-09
1.50166e-09
1.36514e-09
1.24028e-09
1.12608e-09
1.02167e-09
9.26214e-10
8.38948e-10
7.59174e-10
6.86254e-10
6.19603e-10
5.58691e-10
5.03031e-10
4.52187e-10
4.05759e-10
3.63385e-10
3.24741e-10
2.89528e-10
2.57479e-10
2.28349e-10
2.01917e-10
1.77981e-10
1.56354e-10
1.36866e-10
1.19358e-10
1.03685e-10
8.97078e-11
7.72983e-11
6.63343e-11
5.67003e-11
4.82863e-11
4.09875e-11
3.47037e-11
2.93394e-11
2.48032e-11
2.10083e-11
1.78717e-11
1.53151e-11
1.32642e-11
1.1649e-11
1.04042e-11
9.4687e-12
8.78601e-12
8.30427e-12
7.97631e-12
7.75981e-12
7.61734e-12
7.51648e-12
7.4299e-12
7.33532e-12
7.21546e-12
7.05794e-12
6.85497e-12
6.60303e-12
6.30241e-12
5.95666e-12
5.57195e-12
5.15638e-12
4.71935e-12
4.27082e-12
3.82072e-12
3.37842e-12
2.95227e-12
2.54932e-12
2.17506e-12
1.83342e-12
1.52671e-12
1.25581e-12
1.02031e-12
8.18762e-13
6.48886e-13
5.07854e-13
3.92504e-13
2.99542e-13
2.25713e-13
1.67924e-13
1.23341e-13
8.94356e-14
6.40177e-14
4.52326e-14
3.15459e-14
2.17146e-14
1.47528e-14
9.89317e-15
6.55012e-15
4.28535e-15
2.77721e-15
1.79487e-15
1.17735e-15
8.17223e-16
6.48693e-16
2.6828e-11
2.68581e-11
2.72712e-11
2.8067e-11
2.9251e-11
3.08341e-11
3.28327e-11
3.52684e-11
3.81682e-11
4.15649e-11
4.54971e-11
5.00097e-11
5.51544e-11
6.09899e-11
6.75827e-11
7.50075e-11
8.33483e-11
9.26984e-11
1.03162e-10
1.14856e-10
1.27907e-10
1.42458e-10
1.58667e-10
1.76706e-10
1.96766e-10
2.19058e-10
2.43812e-10
2.71281e-10
3.01745e-10
3.35507e-10
3.72899e-10
4.14286e-10
4.60065e-10
5.10667e-10
5.66564e-10
6.28266e-10
6.96329e-10
7.71354e-10
8.53993e-10
9.4495e-10
1.04498e-09
1.15491e-09
1.27561e-09
1.40802e-09
1.55317e-09
1.71212e-09
1.88603e-09
2.07614e-09
2.28373e-09
2.51021e-09
2.75702e-09
3.0257e-09
3.31788e-09
3.63526e-09
3.97959e-09
4.35273e-09
4.7566e-09
5.19315e-09
5.66443e-09
6.17251e-09
6.71952e-09
7.30758e-09
7.93885e-09
8.61548e-09
9.3396e-09
1.01133e-08
1.09386e-08
1.18174e-08
1.27516e-08
1.37428e-08
1.47925e-08
1.5902e-08
1.70724e-08
1.83045e-08
1.95987e-08
2.09551e-08
2.23734e-08
2.3853e-08
2.53926e-08
2.69907e-08
2.86448e-08
3.03524e-08
3.211e-08
3.39136e-08
3.57585e-08
3.76395e-08
3.95505e-08
4.14851e-08
4.3436e-08
4.53951e-08
4.73542e-08
4.9304e-08
5.12352e-08
5.31376e-08
5.50009e-08
5.68144e-08
5.85671e-08
6.02482e-08
6.18466e-08
6.33513e-08
6.47517e-08
6.60376e-08
6.7199e-08
6.82268e-08
6.91124e-08
6.98483e-08
7.04276e-08
7.08449e-08
7.10957e-08
7.11766e-08
7.10859e-08
7.08228e-08
7.03882e-08
6.97842e-08
6.90144e-08
6.80836e-08
6.69979e-08
6.57648e-08
6.43928e-08
6.28913e-08
6.12708e-08
5.95425e-08
5.77182e-08
5.58102e-08
5.38311e-08
5.17939e-08
4.97112e-08
4.75958e-08
4.54602e-08
4.33164e-08
4.11759e-08
3.90497e-08
3.69478e-08
3.48797e-08
3.2854e-08
3.08782e-08
2.8959e-08
2.71023e-08
2.53128e-08
2.35945e-08
2.19504e-08
2.03827e-08
1.88928e-08
1.74812e-08
1.61481e-08
1.48926e-08