/*--------------------------------*- C++ -*----------------------------------*\
| =========                 |                                                 |
| \\      /  F ield         | OpenFOAM: The Open Source CFD Toolbox           |
|  \\    /   O peration     | Version:  v2012                                 |
|   \\  /    A nd           | Website:  www.openfoam.com                      |
|    \\/     M anipulation  |                                                 |
\*---------------------------------------------------------------------------*/
FoamFile
{
    version     2.0;
    format      ascii;
    class       volScalarField;
    location    "18.5";
    object      Psi_z;
}
// * * * * * * * * * * * * * * * * * * * * * * * * * * * * * * * * * * * * * //

dimensions      [0 2 -1 0 0 0 0];


internalField   nonuniform List<scalar> 
65536
(
8.04917e-06
2.41479e-05
4.02479e-05
5.63498e-05
7.24545e-05
8.85628e-05
0.000104675
0.000120793
0.000136916
0.000153046
0.000169184
0.000185329
0.000201483
0.000217647
0.00023382
0.000250004
0.0002662
0.000282407
0.000298627
0.000314859
0.000331105
0.000347365
0.000363639
0.000379928
0.000396232
0.000412551
0.000428885
0.000445236
0.000461602
0.000477984
0.000494383
0.000510797
0.000527227
0.000543674
0.000560135
0.000576612
0.000593104
0.000609611
0.000626132
0.000642666
0.000659213
0.000675773
0.000692343
0.000708924
0.000725514
0.000742113
0.000758718
0.00077533
0.000791945
0.000808563
0.000825182
0.0008418
0.000858416
0.000875027
0.000891631
0.000908226
0.000924809
0.000941378
0.00095793
0.000974463
0.000990973
0.00100746
0.00102391
0.00104033
0.00105672
0.00107306
0.00108936
0.00110562
0.00112182
0.00113796
0.00115404
0.00117006
0.001186
0.00120187
0.00121766
0.00123336
0.00124896
0.00126447
0.00127988
0.00129517
0.00131034
0.0013254
0.00134032
0.0013551
0.00136975
0.00138424
0.00139857
0.00141274
0.00142674
0.00144055
0.00145418
0.00146761
0.00148084
0.00149386
0.00150666
0.00151924
0.00153157
0.00154367
0.00155551
0.0015671
0.00157842
0.00158946
0.00160022
0.00161069
0.00162086
0.00163072
0.00164027
0.00164949
0.00165839
0.00166695
0.00167517
0.00168303
0.00169054
0.00169768
0.00170445
0.00171085
0.00171686
0.00172248
0.00172771
0.00173255
0.00173697
0.001741
0.00174461
0.0017478
0.00175058
0.00175294
0.00175487
0.00175638
0.00175746
0.00175811
0.00175833
0.00175812
0.00175748
0.00175641
0.00175491
0.00175298
0.00175062
0.00174784
0.00174463
0.001741
0.00173696
0.0017325
0.00172763
0.00172235
0.00171667
0.00171059
0.00170412
0.00169727
0.00169003
0.00168241
0.00167442
0.00166607
0.00165736
0.0016483
0.0016389
0.00162916
0.0016191
0.00160871
0.001598
0.00158699
0.00157568
0.00156408
0.0015522
0.00154004
0.00152761
0.00151493
0.00150199
0.00148881
0.00147539
0.00146175
0.00144789
0.00143382
0.00141954
0.00140507
0.0013904
0.00137556
0.00136054
0.00134536
0.00133002
0.00131453
0.00129889
0.00128311
0.00126721
0.00125117
0.00123502
0.00121876
0.00120239
0.00118592
0.00116936
0.00115271
0.00113597
0.00111915
0.00110227
0.00108531
0.00106829
0.00105121
0.00103408
0.00101689
0.000999665
0.000982393
0.000965083
0.000947738
0.000930361
0.000912957
0.000895527
0.000878075
0.000860604
0.000843117
0.000825616
0.000808103
0.000790581
0.000773052
0.000755518
0.000737981
0.000720442
0.000702903
0.000685366
0.000667832
0.000650303
0.000632779
0.000615262
0.000597752
0.00058025
0.000562758
0.000545276
0.000527804
0.000510343
0.000492894
0.000475456
0.00045803
0.000440616
0.000423215
0.000405826
0.000388449
0.000371085
0.000353732
0.000336392
0.000319063
0.000301745
0.000284439
0.000267143
0.000249857
0.000232581
0.000215314
0.000198056
0.000180806
0.000163563
0.000146327
0.000129097
0.000111873
9.46535e-05
7.74382e-05
6.02262e-05
4.30168e-05
2.58093e-05
8.60299e-06
2.41472e-05
7.24427e-05
0.000120742
0.000169047
0.00021736
0.000265684
0.000314021
0.000362373
0.000410743
0.000459132
0.000507544
0.000555979
0.000604441
0.00065293
0.00070145
0.000750002
0.000798588
0.000847209
0.000895868
0.000944565
0.000993302
0.00104208
0.0010909
0.00113977
0.00118868
0.00123764
0.00128664
0.00133569
0.00138479
0.00143394
0.00148313
0.00153238
0.00158167
0.00163101
0.00168039
0.00172982
0.0017793
0.00182882
0.00187838
0.00192799
0.00197763
0.00202731
0.00207702
0.00212676
0.00217654
0.00222633
0.00227615
0.00232599
0.00237583
0.00242569
0.00247555
0.00252541
0.00257526
0.00262509
0.0026749
0.00272469
0.00277444
0.00282415
0.00287381
0.00292341
0.00297295
0.0030224
0.00307177
0.00312104
0.0031702
0.00321924
0.00326814
0.00331691
0.00336551
0.00341395
0.0034622
0.00351025
0.00355809
0.0036057
0.00365307
0.00370017
0.003747
0.00379353
0.00383974
0.00388563
0.00393116
0.00397632
0.0040211
0.00406546
0.00410939
0.00415287
0.00419588
0.00423839
0.00428039
0.00432185
0.00436274
0.00440305
0.00444274
0.00448181
0.00452022
0.00455794
0.00459497
0.00463126
0.0046668
0.00470157
0.00473553
0.00476867
0.00480095
0.00483237
0.00486288
0.00489248
0.00492113
0.00494882
0.00497551
0.0050012
0.00502585
0.00504945
0.00507198
0.00509341
0.00511373
0.00513292
0.00515096
0.00516784
0.00518354
0.00519804
0.00521133
0.0052234
0.00523424
0.00524383
0.00525217
0.00525924
0.00526504
0.00526956
0.0052728
0.00527476
0.00527542
0.00527479
0.00527287
0.00526965
0.00526515
0.00525936
0.00525229
0.00524394
0.00523431
0.00522343
0.00521129
0.00519791
0.0051833
0.00516746
0.00515041
0.00513218
0.00511276
0.00509218
0.00507045
0.0050476
0.00502363
0.00499857
0.00497244
0.00494526
0.00491704
0.00488782
0.00485761
0.00482643
0.00479431
0.00476127
0.00472734
0.00469253
0.00465687
0.00462038
0.00458309
0.00454503
0.00450621
0.00446666
0.00442641
0.00438547
0.00434388
0.00430165
0.00425881
0.00421538
0.00417139
0.00412685
0.0040818
0.00403625
0.00399021
0.00394373
0.00389681
0.00384947
0.00380174
0.00375364
0.00370518
0.00365639
0.00360727
0.00355786
0.00350816
0.0034582
0.00340798
0.00335753
0.00330687
0.00325599
0.00320493
0.00315369
0.00310228
0.00305073
0.00299904
0.00294722
0.00289528
0.00284324
0.00279111
0.00273889
0.0026866
0.00263424
0.00258183
0.00252936
0.00247686
0.00242432
0.00237175
0.00231916
0.00226656
0.00221394
0.00216132
0.00210871
0.00205609
0.00200349
0.0019509
0.00189833
0.00184578
0.00179325
0.00174074
0.00168826
0.00163582
0.0015834
0.00153102
0.00147867
0.00142635
0.00137408
0.00132184
0.00126963
0.00121746
0.00116533
0.00111324
0.00106118
0.00100916
0.000957177
0.000905224
0.000853305
0.000801418
0.000749561
0.000697733
0.000645933
0.000594159
0.000542409
0.000490681
0.000438974
0.000387286
0.000335614
0.000283956
0.000232311
0.000180676
0.000129049
7.74269e-05
2.58086e-05
4.0244e-05
0.000120734
0.00020123
0.000281736
0.000362255
0.000442793
0.000523352
0.000603936
0.00068455
0.000765197
0.00084588
0.000926603
0.00100737
0.00108818
0.00116905
0.00124997
0.00133094
0.00141197
0.00149307
0.00157423
0.00165546
0.00173676
0.00181812
0.00189957
0.00198108
0.00206268
0.00214435
0.0022261
0.00230793
0.00238984
0.00247184
0.00255391
0.00263606
0.00271829
0.0028006
0.00288299
0.00296545
0.00304799
0.00313059
0.00321327
0.00329601
0.00337881
0.00346167
0.00354458
0.00362753
0.00371053
0.00379357
0.00387663
0.00395972
0.00404281
0.00412592
0.00420902
0.00429211
0.00437517
0.00445821
0.00454119
0.00462412
0.00470698
0.00478976
0.00487243
0.004955
0.00503743
0.00511972
0.00520185
0.0052838
0.00536554
0.00544707
0.00552836
0.00560938
0.00569012
0.00577056
0.00585066
0.00593041
0.00600978
0.00608874
0.00616726
0.00624532
0.00632289
0.00639994
0.00647643
0.00655234
0.00662764
0.00670228
0.00677625
0.00684949
0.00692198
0.00699369
0.00706457
0.00713458
0.0072037
0.00727188
0.00733909
0.00740528
0.00747041
0.00753445
0.00759736
0.00765909
0.00771961
0.00777887
0.00783684
0.00789347
0.00794872
0.00800256
0.00805494
0.00810583
0.00815518
0.00820296
0.00824913
0.00829364
0.00833648
0.00837759
0.00841694
0.00845451
0.00849025
0.00852414
0.00855614
0.00858623
0.00861438
0.00864056
0.00866475
0.00868692
0.00870705
0.00872512
0.00874112
0.00875502
0.00876681
0.00877649
0.00878403
0.00878944
0.0087927
0.0087938
0.00879275
0.00878955
0.00878419
0.00877668
0.00876703
0.00875523
0.00874131
0.00872526
0.00870711
0.00868687
0.00866455
0.00864018
0.00861377
0.00858535
0.00855494
0.00852256
0.00848824
0.00845201
0.00841389
0.00837393
0.00833214
0.00828857
0.00824324
0.0081962
0.00814747
0.00809709
0.0080451
0.00799154
0.00793645
0.00787986
0.00782182
0.00776236
0.00770153
0.00763935
0.00757589
0.00751116
0.00744522
0.00737811
0.00730985
0.0072405
0.0071701
0.00709867
0.00702627
0.00695292
0.00687867
0.00680355
0.0067276
0.00665086
0.00657336
0.00649514
0.00641623
0.00633666
0.00625646
0.00617568
0.00609433
0.00601246
0.00593008
0.00584723
0.00576394
0.00568023
0.00559613
0.00551167
0.00542686
0.00534174
0.00525633
0.00517064
0.0050847
0.00499853
0.00491216
0.00482559
0.00473884
0.00465194
0.00456491
0.00447774
0.00439047
0.0043031
0.00421565
0.00412813
0.00404056
0.00395294
0.00386528
0.0037776
0.00368991
0.00360221
0.00351451
0.00342681
0.00333914
0.00325148
0.00316386
0.00307627
0.00298871
0.0029012
0.00281374
0.00272632
0.00263896
0.00255166
0.00246441
0.00237722
0.00229009
0.00220302
0.00211601
0.00202907
0.00194218
0.00185536
0.0017686
0.0016819
0.00159526
0.00150867
0.00142214
0.00133566
0.00124924
0.00116286
0.00107653
0.000990238
0.00090399
0.00081778
0.000731603
0.000645458
0.00055934
0.000473247
0.000387174
0.000301118
0.000215075
0.000129041
4.3013e-05
5.63388e-05
0.000169019
0.000281708
0.00039441
0.000507133
0.000619879
0.000732657
0.00084547
0.000958324
0.00107122
0.00118418
0.00129718
0.00141025
0.00152339
0.00163659
0.00174987
0.00186323
0.00197668
0.00209021
0.00220383
0.00231754
0.00243136
0.00254527
0.00265929
0.00277341
0.00288764
0.00300198
0.00311643
0.00323099
0.00334567
0.00346046
0.00357536
0.00369037
0.0038055
0.00392074
0.00403608
0.00415153
0.00426708
0.00438274
0.00449849
0.00461433
0.00473025
0.00484626
0.00496234
0.00507849
0.0051947
0.00531095
0.00542725
0.00554358
0.00565993
0.00577629
0.00589265
0.00600898
0.00612529
0.00624155
0.00635775
0.00647387
0.00658989
0.00670579
0.00682156
0.00693718
0.00705261
0.00716784
0.00728284
0.00739759
0.00751207
0.00762623
0.00774006
0.00785353
0.0079666
0.00807924
0.00819142
0.00830311
0.00841426
0.00852484
0.00863481
0.00874414
0.00885278
0.00896069
0.00906782
0.00917414
0.0092796
0.00938415
0.00948775
0.00959034
0.00969188
0.00979232
0.0098916
0.00998968
0.0100865
0.010182
0.0102761
0.0103689
0.0104601
0.0105498
0.0106379
0.0107244
0.0108092
0.0108922
0.0109734
0.0110528
0.0111302
0.0112056
0.011279
0.0113503
0.0114195
0.0114864
0.0115511
0.0116135
0.0116735
0.0117311
0.0117862
0.0118389
0.0118889
0.0119364
0.0119813
0.0120234
0.0120629
0.0120996
0.0121335
0.0121645
0.0121927
0.0122181
0.0122405
0.01226
0.0122765
0.0122901
0.0123006
0.0123082
0.0123128
0.0123143
0.0123129
0.0123084
0.0123009
0.0122904
0.0122768
0.0122603
0.0122408
0.0122183
0.0121929
0.0121645
0.0121333
0.0120991
0.0120621
0.0120223
0.0119797
0.0119343
0.0118862
0.0118354
0.011782
0.011726
0.0116675
0.0116065
0.0115429
0.011477
0.0114088
0.0113382
0.0112653
0.0111903
0.0111131
0.0110338
0.0109525
0.0108692
0.010784
0.0106969
0.010608
0.0105173
0.010425
0.0103309
0.0102353
0.0101382
0.0100396
0.00993951
0.00983809
0.00973535
0.00963135
0.00952613
0.00941976
0.00931227
0.00920372
0.00909416
0.00898364
0.00887219
0.00875988
0.00864673
0.00853281
0.00841814
0.00830277
0.00818675
0.0080701
0.00795287
0.0078351
0.00771681
0.00759805
0.00747885
0.00735924
0.00723925
0.00711891
0.00699824
0.00687729
0.00675606
0.0066346
0.00651292
0.00639104
0.00626899
0.00614679
0.00602446
0.00590201
0.00577947
0.00565685
0.00553416
0.00541143
0.00528867
0.00516588
0.00504309
0.0049203
0.00479752
0.00467476
0.00455204
0.00442936
0.00430672
0.00418414
0.00406162
0.00393917
0.00381678
0.00369447
0.00357224
0.00345009
0.00332802
0.00320604
0.00308414
0.00296233
0.00284061
0.00271897
0.00259742
0.00247596
0.00235458
0.00223328
0.00211206
0.00199092
0.00186986
0.00174886
0.00162794
0.00150708
0.00138628
0.00126553
0.00114484
0.0010242
0.000903603
0.000783043
0.000662517
0.00054202
0.000421546
0.000301091
0.000180649
6.02156e-05
7.24308e-05
0.000217296
0.000362172
0.000507066
0.000651985
0.000796936
0.000941926
0.00108696
0.00123205
0.0013772
0.00152241
0.0016677
0.00181307
0.00195852
0.00210406
0.0022497
0.00239544
0.00254129
0.00268725
0.00283333
0.00297953
0.00312586
0.00327231
0.0034189
0.00356563
0.00371249
0.0038595
0.00400665
0.00415394
0.00430138
0.00444897
0.0045967
0.00474457
0.0048926
0.00504076
0.00518906
0.0053375
0.00548608
0.00563478
0.00578361
0.00593256
0.00608162
0.00623078
0.00638004
0.00652939
0.00667881
0.0068283
0.00697784
0.00712743
0.00727704
0.00742667
0.00757629
0.00772589
0.00787545
0.00802496
0.00817438
0.00832371
0.00847291
0.00862197
0.00877085
0.00891953
0.00906799
0.00921618
0.00936409
0.00951167
0.0096589
0.00980573
0.00995214
0.0100981
0.0102435
0.0103884
0.0105327
0.0106763
0.0108193
0.0109615
0.011103
0.0112436
0.0113834
0.0115222
0.01166
0.0117968
0.0119325
0.012067
0.0122003
0.0123322
0.0124629
0.0125921
0.0127198
0.012846
0.0129706
0.0130935
0.0132146
0.0133339
0.0134513
0.0135668
0.0136802
0.0137915
0.0139006
0.0140074
0.0141119
0.014214
0.0143136
0.0144107
0.0145052
0.0145969
0.0146859
0.0147721
0.0148554
0.0149356
0.0150129
0.015087
0.015158
0.0152258
0.0152902
0.0153514
0.0154091
0.0154634
0.0155142
0.0155614
0.015605
0.015645
0.0156813
0.0157139
0.0157428
0.0157679
0.0157892
0.0158066
0.0158203
0.01583
0.0158359
0.0158379
0.015836
0.0158302
0.0158206
0.015807
0.0157896
0.0157684
0.0157433
0.0157143
0.0156816
0.0156451
0.0156048
0.0155609
0.0155133
0.015462
0.0154071
0.0153488
0.0152869
0.0152215
0.0151528
0.0150807
0.0150054
0.0149268
0.0148451
0.0147602
0.0146724
0.0145815
0.0144878
0.0143912
0.0142919
0.0141899
0.0140852
0.013978
0.0138684
0.0137563
0.0136419
0.0135252
0.0134063
0.0132854
0.0131623
0.0130373
0.0129105
0.0127817
0.0126512
0.0125191
0.0123852
0.0122499
0.012113
0.0119747
0.0118351
0.0116941
0.011552
0.0114086
0.0112641
0.0111186
0.010972
0.0108245
0.0106761
0.0105269
0.0103768
0.0102261
0.0100746
0.00992243
0.00976969
0.00961637
0.00946253
0.0093082
0.00915343
0.00899825
0.00884269
0.00868679
0.00853058
0.00837409
0.00821735
0.00806039
0.00790324
0.00774593
0.00758846
0.00743088
0.0072732
0.00711544
0.00695762
0.00679975
0.00664186
0.00648397
0.00632607
0.0061682
0.00601035
0.00585255
0.00569481
0.00553712
0.00537951
0.00522197
0.00506452
0.00490716
0.0047499
0.00459274
0.00443569
0.00427874
0.0041219
0.00396517
0.00380856
0.00365206
0.00349567
0.0033394
0.00318323
0.00302717
0.00287122
0.00271537
0.00255963
0.00240398
0.00224842
0.00209295
0.00193756
0.00178226
0.00162702
0.00147186
0.00131676
0.00116171
0.00100671
0.000851758
0.000696842
0.000541956
0.000387095
0.00023225
7.74155e-05
8.85192e-05
0.000265562
0.000442618
0.000619696
0.000796805
0.000973953
0.00115115
0.0013284
0.00150572
0.00168311
0.00186058
0.00203814
0.0022158
0.00239356
0.00257143
0.00274943
0.00292754
0.00310579
0.00328418
0.00346271
0.00364139
0.00382023
0.00399922
0.00417838
0.00435771
0.0045372
0.00471687
0.00489672
0.00507674
0.00525695
0.00543733
0.00561789
0.00579863
0.00597955
0.00616064
0.00634191
0.00652334
0.00670495
0.00688671
0.00706862
0.00725068
0.00743288
0.0076152
0.00779765
0.0079802
0.00816285
0.00834559
0.00852839
0.00871124
0.00889413
0.00907704
0.00925995
0.00944283
0.00962567
0.00980844
0.00999112
0.0101737
0.0103561
0.0105383
0.0107203
0.0109021
0.0110836
0.0112648
0.0114457
0.0116261
0.0118061
0.0119857
0.0121647
0.0123431
0.012521
0.0126981
0.0128746
0.0130502
0.0132251
0.013399
0.013572
0.013744
0.0139149
0.0140847
0.0142533
0.0144206
0.0145865
0.014751
0.014914
0.0150755
0.0152353
0.0153934
0.0155496
0.015704
0.0158564
0.0160067
0.0161549
0.0163009
0.0164445
0.0165858
0.0167245
0.0168607
0.0169942
0.0171249
0.0172528
0.0173777
0.0174997
0.0176184
0.017734
0.0178463
0.0179552
0.0180607
0.0181626
0.0182608
0.0183554
0.0184462
0.018533
0.018616
0.0186949
0.0187697
0.0188404
0.0189068
0.018969
0.0190268
0.0190802
0.0191292
0.0191736
0.0192135
0.0192489
0.0192796
0.0193057
0.019327
0.0193437
0.0193557
0.0193629
0.0193653
0.019363
0.019356
0.0193442
0.0193276
0.0193063
0.0192803
0.0192495
0.0192141
0.0191741
0.0191294
0.0190801
0.0190263
0.018968
0.0189053
0.0188382
0.0187667
0.018691
0.018611
0.0185269
0.0184387
0.0183465
0.0182503
0.0181503
0.0180464
0.0179389
0.0178278
0.0177131
0.0175949
0.0174734
0.0173485
0.0172205
0.0170893
0.0169551
0.016818
0.016678
0.0165353
0.0163898
0.0162418
0.0160913
0.0159384
0.0157832
0.0156257
0.0154661
0.0153044
0.0151407
0.0149751
0.0148077
0.0146386
0.0144678
0.0142954
0.0141215
0.0139461
0.0137694
0.0135914
0.0134122
0.0132318
0.0130503
0.0128678
0.0126843
0.0124999
0.0123147
0.0121287
0.0119419
0.0117544
0.0115663
0.0113776
0.0111884
0.0109986
0.0108084
0.0106178
0.0104268
0.0102355
0.0100439
0.00985199
0.00965987
0.00946754
0.00927504
0.00908239
0.00888963
0.00869677
0.00850384
0.00831086
0.00811786
0.00792484
0.00773183
0.00753885
0.00734591
0.00715302
0.00696019
0.00676745
0.00657479
0.00638224
0.00618979
0.00599745
0.00580523
0.00561314
0.00542118
0.00522935
0.00503765
0.0048461
0.00465468
0.0044634
0.00427226
0.00408126
0.00389039
0.00369966
0.00350906
0.00331859
0.00312824
0.00293801
0.00274789
0.00255788
0.00236798
0.00217817
0.00198845
0.00179881
0.00160925
0.00141976
0.00123034
0.00104096
0.000851634
0.000662343
0.000473081
0.00028384
9.4612e-05
0.000104603
0.000313815
0.000523042
0.000732296
0.000941586
0.00115092
0.00136032
0.00156978
0.00177931
0.00198894
0.00219866
0.00240848
0.00261843
0.00282849
0.00303869
0.00324903
0.00345951
0.00367016
0.00388097
0.00409194
0.0043031
0.00451444
0.00472597
0.00493769
0.00514961
0.00536174
0.00557407
0.00578661
0.00599936
0.00621233
0.00642551
0.0066389
0.00685251
0.00706633
0.00728035
0.00749459
0.00770902
0.00792365
0.00813847
0.00835348
0.00856866
0.008784
0.00899951
0.00921515
0.00943092
0.00964682
0.00986281
0.0100789
0.010295
0.0105112
0.0107274
0.0109436
0.0111598
0.011376
0.011592
0.011808
0.0120238
0.0122394
0.0124549
0.0126701
0.012885
0.0130996
0.0133138
0.0135276
0.013741
0.0139538
0.0141661
0.0143778
0.0145888
0.0147991
0.0150086
0.0152172
0.015425
0.0156318
0.0158375
0.0160421
0.0162455
0.0164476
0.0166484
0.0168478
0.0170457
0.017242
0.0174366
0.0176294
0.0178204
0.0180094
0.0181964
0.0183813
0.0185639
0.0187442
0.0189221
0.0190974
0.0192702
0.0194401
0.0196073
0.0197714
0.0199326
0.0200906
0.0202453
0.0203966
0.0205445
0.0206888
0.0208294
0.0209662
0.0210991
0.021228
0.0213528
0.0214735
0.0215898
0.0217017
0.0218091
0.021912
0.0220102
0.0221036
0.0221922
0.0222759
0.0223545
0.0224281
0.0224966
0.0225598
0.0226178
0.0226705
0.0227177
0.0227596
0.022796
0.0228268
0.0228522
0.0228719
0.0228861
0.0228946
0.0228975
0.0228948
0.0228865
0.0228725
0.0228529
0.0228277
0.0227969
0.0227605
0.0227186
0.0226712
0.0226183
0.02256
0.0224963
0.0224273
0.022353
0.0222735
0.0221889
0.0220993
0.0220046
0.021905
0.0218006
0.0216915
0.0215777
0.0214593
0.0213364
0.0212091
0.0210776
0.0209418
0.0208019
0.0206581
0.0205104
0.0203588
0.0202036
0.0200448
0.0198825
0.0197169
0.019548
0.0193759
0.0192008
0.0190227
0.0188418
0.0186581
0.0184718
0.018283
0.0180917
0.0178981
0.0177022
0.0175041
0.0173041
0.017102
0.0168981
0.0166924
0.016485
0.016276
0.0160655
0.0158535
0.0156402
0.0154256
0.0152097
0.0149927
0.0147747
0.0145556
0.0143356
0.0141148
0.0138931
0.0136707
0.0134476
0.0132238
0.0129995
0.0127746
0.0125492
0.0123234
0.0120972
0.0118707
0.0116438
0.0114167
0.0111893
0.0109618
0.010734
0.0105062
0.0102782
0.0100501
0.009822
0.00959386
0.0093657
0.00913756
0.00890946
0.0086814
0.00845341
0.0082255
0.00799769
0.00776998
0.0075424
0.00731494
0.00708761
0.00686043
0.00663341
0.00640653
0.00617982
0.00595327
0.00572688
0.00550066
0.0052746
0.00504871
0.00482299
0.00459742
0.00437202
0.00414677
0.00392168
0.00369673
0.00347192
0.00324725
0.00302271
0.00279829
0.00257398
0.00234979
0.00212569
0.00190168
0.00167776
0.00145391
0.00123012
0.00100639
0.000782699
0.000559046
0.000335418
0.000111804
0.000120682
0.000362052
0.00060344
0.000844859
0.00108632
0.00132783
0.00156942
0.00181107
0.00205282
0.00229467
0.00253663
0.00277871
0.00302093
0.00326329
0.0035058
0.00374848
0.00399133
0.00423436
0.00447758
0.004721
0.00496462
0.00520846
0.00545252
0.0056968
0.00594132
0.00618607
0.00643106
0.00667629
0.00692177
0.0071675
0.00741348
0.0076597
0.00790617
0.00815289
0.00839986
0.00864706
0.0088945
0.00914217
0.00939006
0.00963816
0.00988647
0.010135
0.0103837
0.0106325
0.0108815
0.0111307
0.0113799
0.0116293
0.0118788
0.0121283
0.0123778
0.0126273
0.0128769
0.0131263
0.0133757
0.013625
0.0138741
0.014123
0.0143717
0.0146201
0.0148682
0.0151159
0.0153632
0.01561
0.0158563
0.0161021
0.0163472
0.0165916
0.0168352
0.017078
0.0173199
0.0175608
0.0178007
0.0180395
0.018277
0.0185133
0.0187482
0.0189817
0.0192136
0.0194439
0.0196724
0.0198991
0.0201239
0.0203466
0.0205672
0.0207856
0.0210016
0.0212152
0.0214262
0.0216345
0.02184
0.0220426
0.0222422
0.0224386
0.0226317
0.0228214
0.0230076
0.0231902
0.023369
0.0235439
0.0237148
0.0238816
0.0240441
0.0242022
0.0243559
0.0245049
0.0246492
0.0247886
0.0249231
0.0250525
0.0251767
0.0252956
0.0254091
0.0255172
0.0256196
0.0257164
0.0258073
0.0258924
0.0259716
0.0260447
0.0261118
0.0261727
0.0262274
0.0262758
0.0263178
0.0263535
0.0263828
0.0264057
0.0264221
0.026432
0.0264354
0.0264322
0.0264226
0.0264065
0.0263838
0.0263546
0.026319
0.026277
0.0262285
0.0261737
0.0261126
0.0260452
0.0259715
0.0258918
0.0258059
0.025714
0.0256162
0.0255126
0.0254032
0.025288
0.0251674
0.0250412
0.0249096
0.0247727
0.0246307
0.0244836
0.0243315
0.0241746
0.024013
0.0238467
0.023676
0.0235009
0.0233215
0.023138
0.0229505
0.0227591
0.0225639
0.0223651
0.0221627
0.021957
0.0217479
0.0215357
0.0213205
0.0211023
0.0208813
0.0206576
0.0204314
0.0202026
0.0199715
0.0197382
0.0195026
0.0192651
0.0190255
0.0187841
0.018541
0.0182962
0.0180499
0.017802
0.0175528
0.0173022
0.0170504
0.0167975
0.0165435
0.0162885
0.0160325
0.0157757
0.0155181
0.0152598
0.0150008
0.0147412
0.0144811
0.0142204
0.0139593
0.0136978
0.0134359
0.0131738
0.0129113
0.0126486
0.0123858
0.0121228
0.0118597
0.0115964
0.0113332
0.0110699
0.0108066
0.0105433
0.01028
0.0100168
0.00975373
0.00949072
0.00922782
0.00896506
0.00870243
0.00843995
0.00817764
0.00791549
0.00765352
0.00739173
0.00713013
0.00686872
0.0066075
0.00634647
0.00608564
0.005825
0.00556455
0.0053043
0.00504422
0.00478433
0.00452462
0.00426508
0.0040057
0.00374648
0.00348741
0.00322849
0.0029697
0.00271103
0.00245248
0.00219403
0.00193568
0.00167742
0.00141922
0.0011611
0.000903021
0.000644986
0.00038698
0.000128991
0.000136755
0.000410271
0.000683808
0.000957379
0.001231
0.00150468
0.00177844
0.00205228
0.00232623
0.00260029
0.00287448
0.00314881
0.00342329
0.00369793
0.00397275
0.00424775
0.00452296
0.00479837
0.00507399
0.00534985
0.00562593
0.00590226
0.00617885
0.00645568
0.00673279
0.00701016
0.00728781
0.00756573
0.00784393
0.00812242
0.00840119
0.00868025
0.00895959
0.00923922
0.00951912
0.0097993
0.0100797
0.0103605
0.0106414
0.0109226
0.0112041
0.0114858
0.0117677
0.0120497
0.012332
0.0126144
0.012897
0.0131797
0.0134624
0.0137453
0.0140282
0.0143111
0.0145939
0.0148768
0.0151595
0.0154421
0.0157245
0.0160068
0.0162887
0.0165704
0.0168517
0.0171326
0.017413
0.017693
0.0179723
0.018251
0.0185289
0.0188061
0.0190824
0.0193578
0.0196322
0.0199054
0.0201775
0.0204484
0.0207179
0.0209859
0.0212524
0.0215173
0.0217804
0.0220416
0.0223009
0.0225582
0.0228132
0.023066
0.0233163
0.0235641
0.0238093
0.0240517
0.0242912
0.0245276
0.0247608
0.0249908
0.0252173
0.0254403
0.0256595
0.0258749
0.0260863
0.0262936
0.0264966
0.0266952
0.0268893
0.0270786
0.0272632
0.0274428
0.0276173
0.0277865
0.0279504
0.0281088
0.0282615
0.0284085
0.0285496
0.0286847
0.0288136
0.0289363
0.0290527
0.0291626
0.029266
0.0293627
0.0294526
0.0295357
0.0296119
0.0296811
0.0297432
0.0297983
0.0298461
0.0298867
0.02992
0.029946
0.0299646
0.0299758
0.0299797
0.0299762
0.0299653
0.0299469
0.0299212
0.0298881
0.0298476
0.0297999
0.0297448
0.0296826
0.0296131
0.0295366
0.0294529
0.0293623
0.0292648
0.0291605
0.0290494
0.0289317
0.0288074
0.0286766
0.0285396
0.0283963
0.0282468
0.0280914
0.0279301
0.0277631
0.0275904
0.0274122
0.0272287
0.0270399
0.026846
0.0266472
0.0264435
0.0262352
0.0260223
0.025805
0.0255834
0.0253577
0.025128
0.0248945
0.0246572
0.0244164
0.0241721
0.0239245
0.0236737
0.0234198
0.0231631
0.0229035
0.0226412
0.0223764
0.0221092
0.0218396
0.0215679
0.021294
0.0210182
0.0207405
0.020461
0.0201798
0.0198971
0.0196129
0.0193273
0.0190404
0.0187523
0.0184631
0.0181728
0.0178816
0.0175895
0.0172965
0.0170028
0.0167084
0.0164134
0.0161178
0.0158218
0.0155252
0.0152283
0.0149311
0.0146335
0.0143357
0.0140377
0.0137395
0.0134412
0.0131428
0.0128444
0.0125459
0.0122474
0.0119489
0.0116505
0.0113522
0.0110539
0.0107558
0.0104578
0.01016
0.00986231
0.00956481
0.00926749
0.00897037
0.00867345
0.00837674
0.00808025
0.00778397
0.00748792
0.00719209
0.00689648
0.0066011
0.00630593
0.00601098
0.00571625
0.00542172
0.00512739
0.00483326
0.00453932
0.00424556
0.00395198
0.00365855
0.00336528
0.00307215
0.00277916
0.00248628
0.00219352
0.00190085
0.00160827
0.00131575
0.0010233
0.000730897
0.000438525
0.000146173
0.00015282
0.000458469
0.000764141
0.00106985
0.00137562
0.00168145
0.00198737
0.00229339
0.00259952
0.00290578
0.00321219
0.00351875
0.00382548
0.0041324
0.00443951
0.00474683
0.00505438
0.00536216
0.00567018
0.00597846
0.006287
0.00659581
0.00690491
0.0072143
0.00752399
0.00783397
0.00814427
0.00845488
0.00876581
0.00907706
0.00938863
0.00970052
0.0100127
0.0103253
0.0106381
0.0109513
0.0112647
0.0115785
0.0118925
0.0122069
0.0125215
0.0128363
0.0131514
0.0134668
0.0137823
0.014098
0.0144139
0.0147299
0.015046
0.0153623
0.0156785
0.0159948
0.0163111
0.0166273
0.0169434
0.0172594
0.0175752
0.0178908
0.0182061
0.0185211
0.0188357
0.0191498
0.0194634
0.0197765
0.0200889
0.0204006
0.0207115
0.0210215
0.0213306
0.0216386
0.0219455
0.0222512
0.0225556
0.0228586
0.0231601
0.02346
0.0237582
0.0240546
0.024349
0.0246413
0.0249315
0.0252194
0.0255048
0.0257877
0.0260679
0.0263453
0.0266197
0.0268911
0.0271591
0.0274238
0.027685
0.0279424
0.0281961
0.0284457
0.0286912
0.0289324
0.0291691
0.0294013
0.0296286
0.0298511
0.0300684
0.0302805
0.0304872
0.0306884
0.0308839
0.0310735
0.0312571
0.0314345
0.0316057
0.0317703
0.0319284
0.0320798
0.0322243
0.0323618
0.0324923
0.0326154
0.0327313
0.0328397
0.0329405
0.0330336
0.033119
0.0331966
0.0332663
0.0333279
0.0333816
0.0334271
0.0334644
0.0334936
0.0335145
0.0335271
0.0335315
0.0335275
0.0335153
0.0334948
0.033466
0.0334289
0.0333836
0.0333301
0.0332684
0.0331986
0.0331208
0.033035
0.0329413
0.0328398
0.0327306
0.0326136
0.0324892
0.0323573
0.032218
0.0320716
0.031918
0.0317575
0.0315901
0.0314159
0.0312353
0.0310481
0.0308547
0.0306551
0.0304496
0.0302381
0.030021
0.0297983
0.0295702
0.0293369
0.0290985
0.0288552
0.0286071
0.0283544
0.0280972
0.0278357
0.0275701
0.0273005
0.027027
0.0267498
0.0264691
0.0261849
0.0258975
0.025607
0.0253135
0.0250172
0.0247181
0.0244164
0.0241123
0.0238059
0.0234972
0.0231865
0.0228738
0.0225593
0.0222429
0.021925
0.0216055
0.0212846
0.0209623
0.0206388
0.0203141
0.0199883
0.0196616
0.0193339
0.0190055
0.0186762
0.0183463
0.0180158
0.0176847
0.0173531
0.0170211
0.0166887
0.016356
0.016023
0.0156898
0.0153564
0.0150229
0.0146893
0.0143556
0.0140219
0.0136882
0.0133545
0.0130209
0.0126874
0.012354
0.0120208
0.0116877
0.0113548
0.011022
0.0106895
0.0103571
0.010025
0.00969317
0.00936154
0.00903015
0.00869901
0.00836812
0.00803749
0.0077071
0.00737697
0.00704709
0.00671745
0.00638806
0.0060589
0.00572997
0.00540126
0.00507276
0.00474447
0.00441638
0.00408846
0.00376072
0.00343315
0.00310572
0.00277843
0.00245126
0.0021242
0.00179723
0.00147035
0.00114354
0.000816775
0.00049005
0.000163348
0.000168878
0.000506644
0.000844436
0.00118227
0.00152017
0.00185814
0.0021962
0.00253438
0.00287268
0.00321113
0.00354974
0.00388852
0.00422749
0.00456667
0.00490606
0.00524569
0.00558557
0.0059257
0.00626611
0.0066068
0.00694779
0.00728908
0.00763069
0.00797262
0.00831488
0.00865748
0.00900042
0.00934372
0.00968737
0.0100314
0.0103757
0.0107205
0.0110655
0.011411
0.0117568
0.0121029
0.0124494
0.0127962
0.0131434
0.0134909
0.0138386
0.0141867
0.014535
0.0148836
0.0152324
0.0155814
0.0159307
0.0162801
0.0166296
0.0169792
0.0173289
0.0176786
0.0180283
0.0183779
0.0187275
0.0190769
0.0194262
0.0197751
0.0201238
0.0204722
0.0208201
0.0211675
0.0215144
0.0218606
0.0222062
0.0225509
0.0228949
0.0232378
0.0235797
0.0239205
0.0242601
0.0245983
0.0249351
0.0252704
0.025604
0.0259359
0.0262659
0.0265938
0.0269197
0.0272432
0.0275644
0.0278831
0.028199
0.0285122
0.0288224
0.0291295
0.0294333
0.0297337
0.0300305
0.0303236
0.0306128
0.0308979
0.0311788
0.0314553
0.0317272
0.0319943
0.0322565
0.0325137
0.0327656
0.033012
0.0332528
0.0334878
0.0337169
0.0339398
0.0341564
0.0343665
0.0345699
0.0347666
0.0349563
0.0351388
0.035314
0.0354818
0.035642
0.0357945
0.035939
0.0360756
0.036204
0.0363242
0.036436
0.0365393
0.036634
0.03672
0.0367973
0.0368657
0.0369251
0.0369756
0.0370171
0.0370494
0.0370726
0.0370867
0.0370915
0.0370872
0.0370736
0.0370509
0.037019
0.0369779
0.0369277
0.0368684
0.0368001
0.0367227
0.0366365
0.0365414
0.0364376
0.0363251
0.036204
0.0360744
0.0359364
0.0357902
0.0356359
0.0354736
0.0353034
0.0351255
0.03494
0.0347471
0.0345468
0.0343395
0.0341252
0.0339041
0.0336763
0.0334421
0.0332015
0.0329548
0.0327022
0.0324437
0.0321797
0.0319102
0.0316354
0.0313555
0.0310707
0.0307811
0.030487
0.0301884
0.0298856
0.0295787
0.0292679
0.0289533
0.0286351
0.0283135
0.0279886
0.0276606
0.0273296
0.0269957
0.0266591
0.02632
0.0259784
0.0256345
0.0252885
0.0249404
0.0245904
0.0242386
0.0238851
0.0235301
0.0231735
0.0228156
0.0224564
0.0220961
0.0217346
0.0213722
0.0210089
0.0206447
0.0202798
0.0199143
0.0195481
0.0191814
0.0188142
0.0184467
0.0180787