/*--------------------------------*- C++ -*----------------------------------*\
| =========                 |                                                 |
| \\      /  F ield         | OpenFOAM: The Open Source CFD Toolbox           |
|  \\    /   O peration     | Version:  v2012                                 |
|   \\  /    A nd           | Website:  www.openfoam.com                      |
|    \\/     M anipulation  |                                                 |
\*---------------------------------------------------------------------------*/
FoamFile
{
    version     2.0;
    format      ascii;
    class       volVectorField;
    location    "18.5";
    object      U;
}
// * * * * * * * * * * * * * * * * * * * * * * * * * * * * * * * * * * * * * //

dimensions      [0 1 -1 0 0 0 0];


internalField   nonuniform List<vector> 
65536
(
(0.000655979 -0.000655994 0)
(0.00196797 -0.000656027 0)
(0.00328006 -0.000656092 0)
(0.00459231 -0.000656189 0)
(0.00590478 -0.000656317 0)
(0.00721754 -0.000656478 0)
(0.00853066 -0.000656669 0)
(0.00984419 -0.000656892 0)
(0.0111582 -0.000657145 0)
(0.0124727 -0.000657428 0)
(0.0137879 -0.000657741 0)
(0.0151037 -0.000658082 0)
(0.0164202 -0.000658451 0)
(0.0177375 -0.000658847 0)
(0.0190555 -0.000659269 0)
(0.0203745 -0.000659717 0)
(0.0216944 -0.000660188 0)
(0.0230152 -0.000660683 0)
(0.0243371 -0.0006612 0)
(0.02566 -0.000661737 0)
(0.026984 -0.000662294 0)
(0.0283092 -0.000662868 0)
(0.0296355 -0.000663459 0)
(0.030963 -0.000664064 0)
(0.0322917 -0.000664683 0)
(0.0336217 -0.000665312 0)
(0.034953 -0.000665951 0)
(0.0362855 -0.000666596 0)
(0.0376194 -0.000667247 0)
(0.0389545 -0.000667901 0)
(0.040291 -0.000668556 0)
(0.0416287 -0.000669208 0)
(0.0429678 -0.000669857 0)
(0.0443082 -0.000670499 0)
(0.0456498 -0.000671131 0)
(0.0469927 -0.00067175 0)
(0.0483368 -0.000672354 0)
(0.0496821 -0.00067294 0)
(0.0510286 -0.000673503 0)
(0.0523762 -0.000674042 0)
(0.0537248 -0.000674552 0)
(0.0550744 -0.000675031 0)
(0.056425 -0.000675473 0)
(0.0577764 -0.000675875 0)
(0.0591285 -0.000676234 0)
(0.0604814 -0.000676545 0)
(0.0618348 -0.000676805 0)
(0.0631886 -0.000677007 0)
(0.0645428 -0.000677149 0)
(0.0658973 -0.000677225 0)
(0.0672518 -0.000677231 0)
(0.0686063 -0.000677161 0)
(0.0699605 -0.000677011 0)
(0.0713144 -0.000676776 0)
(0.0726677 -0.000676449 0)
(0.0740203 -0.000676026 0)
(0.075372 -0.000675501 0)
(0.0767224 -0.000674868 0)
(0.0780715 -0.000674121 0)
(0.079419 -0.000673255 0)
(0.0807647 -0.000672263 0)
(0.0821082 -0.000671139 0)
(0.0834494 -0.000669876 0)
(0.0847879 -0.000668469 0)
(0.0861234 -0.000666911 0)
(0.0874557 -0.000665195 0)
(0.0887844 -0.000663314 0)
(0.0901091 -0.000661263 0)
(0.0914296 -0.000659033 0)
(0.0927454 -0.000656618 0)
(0.0940563 -0.000654012 0)
(0.0953617 -0.000651207 0)
(0.0966613 -0.000648196 0)
(0.0979547 -0.000644973 0)
(0.0992414 -0.00064153 0)
(0.100521 -0.000637861 0)
(0.101793 -0.00063396 0)
(0.103057 -0.000629818 0)
(0.104313 -0.00062543 0)
(0.105559 -0.000620789 0)
(0.106796 -0.000615889 0)
(0.108023 -0.000610723 0)
(0.109239 -0.000605285 0)
(0.110444 -0.000599569 0)
(0.111638 -0.00059357 0)
(0.112819 -0.000587282 0)
(0.113987 -0.000580699 0)
(0.115142 -0.000573818 0)
(0.116283 -0.000566632 0)
(0.117409 -0.000559138 0)
(0.11852 -0.000551332 0)
(0.119614 -0.00054321 0)
(0.120693 -0.000534769 0)
(0.121754 -0.000526006 0)
(0.122797 -0.000516919 0)
(0.123822 -0.000507505 0)
(0.124827 -0.000497763 0)
(0.125813 -0.000487693 0)
(0.126779 -0.000477294 0)
(0.127723 -0.000466565 0)
(0.128645 -0.000455508 0)
(0.129545 -0.000444125 0)
(0.130422 -0.000432416 0)
(0.131275 -0.000420384 0)
(0.132104 -0.000408033 0)
(0.132908 -0.000395366 0)
(0.133686 -0.000382388 0)
(0.134437 -0.000369103 0)
(0.135162 -0.000355517 0)
(0.13586 -0.000341638 0)
(0.136529 -0.000327471 0)
(0.13717 -0.000313024 0)
(0.137782 -0.000298307 0)
(0.138363 -0.000283326 0)
(0.138915 -0.000268094 0)
(0.139436 -0.000252619 0)
(0.139926 -0.000236912 0)
(0.140384 -0.000220985 0)
(0.14081 -0.00020485 0)
(0.141203 -0.000188519 0)
(0.141564 -0.000172006 0)
(0.141892 -0.000155324 0)
(0.142186 -0.000138486 0)
(0.142446 -0.000121508 0)
(0.142672 -0.000104404 0)
(0.142863 -8.71895e-05 0)
(0.143021 -6.98794e-05 0)
(0.143143 -5.24897e-05 0)
(0.143231 -3.50363e-05 0)
(0.143283 -1.75354e-05 0)
(0.143301 -2.96905e-09 0)
(0.143283 1.75445e-05 0)
(0.143231 3.50907e-05 0)
(0.143143 5.26193e-05 0)
(0.14302 7.0114e-05 0)
(0.142862 8.75586e-05 0)
(0.14267 0.000104937 0)
(0.142443 0.000122234 0)
(0.142181 0.000139433 0)
(0.141885 0.000156519 0)
(0.141555 0.000173478 0)
(0.141191 0.000190293 0)
(0.140793 0.000206953 0)
(0.140363 0.000223441 0)
(0.139899 0.000239746 0)
(0.139403 0.000255854 0)
(0.138876 0.000271752 0)
(0.138316 0.00028743 0)
(0.137726 0.000302876 0)
(0.137105 0.000318079 0)
(0.136453 0.000333029 0)
(0.135772 0.000347718 0)
(0.135062 0.000362135 0)
(0.134323 0.000376274 0)
(0.133557 0.000390126 0)
(0.132763 0.000403684 0)
(0.131942 0.000416944 0)
(0.131094 0.000429898 0)
(0.130222 0.000442543 0)
(0.129324 0.000454874 0)
(0.128402 0.000466888 0)
(0.127456 0.000478581 0)
(0.126487 0.000489951 0)
(0.125496 0.000500997 0)
(0.124483 0.000511718 0)
(0.123449 0.000522112 0)
(0.122394 0.00053218 0)
(0.12132 0.000541923 0)
(0.120226 0.000551341 0)
(0.119114 0.000560436 0)
(0.117984 0.00056921 0)
(0.116837 0.000577665 0)
(0.115673 0.000585804 0)
(0.114493 0.000593631 0)
(0.113298 0.000601149 0)
(0.112088 0.000608362 0)
(0.110864 0.000615275 0)
(0.109627 0.000621892 0)
(0.108377 0.000628217 0)
(0.107114 0.000634257 0)
(0.105839 0.000640017 0)
(0.104554 0.000645501 0)
(0.103257 0.000650717 0)
(0.10195 0.00065567 0)
(0.100634 0.000660366 0)
(0.0993087 0.000664812 0)
(0.0979746 0.000669014 0)
(0.0966324 0.000672979 0)
(0.0952824 0.000676712 0)
(0.0939253 0.000680222 0)
(0.0925613 0.000683514 0)
(0.091191 0.000686596 0)
(0.0898147 0.000689474 0)
(0.0884329 0.000692155 0)
(0.0870459 0.000694646 0)
(0.0856542 0.000696953 0)
(0.084258 0.000699084 0)
(0.0828577 0.000701045 0)
(0.0814536 0.000702842 0)
(0.0800461 0.000704483 0)
(0.0786355 0.000705974 0)
(0.0772221 0.000707321 0)
(0.0758061 0.000708531 0)
(0.0743878 0.000709611 0)
(0.0729675 0.000710565 0)
(0.0715455 0.000711401 0)
(0.0701218 0.000712124 0)
(0.0686969 0.000712741 0)
(0.0672708 0.000713256 0)
(0.0658437 0.000713676 0)
(0.064416 0.000714007 0)
(0.0629876 0.000714253 0)
(0.0615589 0.00071442 0)
(0.0601299 0.000714514 0)
(0.0587008 0.000714538 0)
(0.0572717 0.000714499 0)
(0.0558427 0.000714401 0)
(0.054414 0.000714248 0)
(0.0529857 0.000714045 0)
(0.0515578 0.000713796 0)
(0.0501304 0.000713506 0)
(0.0487037 0.000713179 0)
(0.0472777 0.000712818 0)
(0.0458524 0.000712429 0)
(0.0444279 0.000712013 0)
(0.0430043 0.000711575 0)
(0.0415816 0.000711119 0)
(0.0401598 0.000710648 0)
(0.038739 0.000710164 0)
(0.0373192 0.000709671 0)
(0.0359003 0.000709173 0)
(0.0344825 0.00070867 0)
(0.0330657 0.000708168 0)
(0.0316498 0.000707667 0)
(0.030235 0.000707171 0)
(0.0288211 0.000706682 0)
(0.0274083 0.000706202 0)
(0.0259963 0.000705734 0)
(0.0245854 0.000705278 0)
(0.0231753 0.000704838 0)
(0.021766 0.000704414 0)
(0.0203576 0.000704009 0)
(0.01895 0.000703624 0)
(0.0175431 0.00070326 0)
(0.016137 0.00070292 0)
(0.0147315 0.000702603 0)
(0.0133266 0.000702312 0)
(0.0119223 0.000702047 0)
(0.0105184 0.000701809 0)
(0.00911506 0.000701599 0)
(0.00771207 0.000701418 0)
(0.00630942 0.000701266 0)
(0.00490704 0.000701144 0)
(0.00350488 0.000701052 0)
(0.00210286 0.000700991 0)
(0.000700944 0.00070096 0)
(0.000655947 -0.00196795 0)
(0.00196787 -0.00196805 0)
(0.0032799 -0.00196825 0)
(0.00459208 -0.00196854 0)
(0.0059045 -0.00196892 0)
(0.0072172 -0.0019694 0)
(0.00853025 -0.00196998 0)
(0.00984372 -0.00197065 0)
(0.0111577 -0.00197141 0)
(0.0124722 -0.00197226 0)
(0.0137872 -0.00197319 0)
(0.015103 -0.00197422 0)
(0.0164194 -0.00197533 0)
(0.0177366 -0.00197652 0)
(0.0190547 -0.00197778 0)
(0.0203736 -0.00197913 0)
(0.0216934 -0.00198054 0)
(0.0230142 -0.00198203 0)
(0.0243361 -0.00198358 0)
(0.0256589 -0.00198519 0)
(0.0269829 -0.00198687 0)
(0.028308 -0.00198859 0)
(0.0296343 -0.00199036 0)
(0.0309618 -0.00199218 0)
(0.0322905 -0.00199404 0)
(0.0336205 -0.00199593 0)
(0.0349517 -0.00199785 0)
(0.0362842 -0.00199979 0)
(0.0376181 -0.00200174 0)
(0.0389532 -0.0020037 0)
(0.0402897 -0.00200567 0)
(0.0416275 -0.00200763 0)
(0.0429665 -0.00200958 0)
(0.0443069 -0.00201151 0)
(0.0456486 -0.00201341 0)
(0.0469915 -0.00201527 0)
(0.0483357 -0.00201708 0)
(0.049681 -0.00201884 0)
(0.0510275 -0.00202054 0)
(0.0523752 -0.00202216 0)
(0.0537239 -0.00202369 0)
(0.0550735 -0.00202513 0)
(0.0564242 -0.00202646 0)
(0.0577756 -0.00202767 0)
(0.0591279 -0.00202875 0)
(0.0604808 -0.00202969 0)
(0.0618343 -0.00203047 0)
(0.0631883 -0.00203108 0)
(0.0645427 -0.00203151 0)
(0.0658972 -0.00203175 0)
(0.0672519 -0.00203177 0)
(0.0686065 -0.00203157 0)
(0.069961 -0.00203112 0)
(0.071315 -0.00203042 0)
(0.0726685 -0.00202945 0)
(0.0740213 -0.00202818 0)
(0.0753732 -0.00202661 0)
(0.0767239 -0.00202472 0)
(0.0780732 -0.00202249 0)
(0.0794209 -0.00201989 0)
(0.0807668 -0.00201692 0)
(0.0821107 -0.00201356 0)
(0.0834521 -0.00200978 0)
(0.0847909 -0.00200556 0)
(0.0861267 -0.00200089 0)
(0.0874593 -0.00199575 0)
(0.0887883 -0.00199012 0)
(0.0901134 -0.00198397 0)
(0.0914343 -0.00197728 0)
(0.0927505 -0.00197005 0)
(0.0940617 -0.00196224 0)
(0.0953675 -0.00195383 0)
(0.0966676 -0.0019448 0)
(0.0979614 -0.00193514 0)
(0.0992486 -0.00192482 0)
(0.100529 -0.00191382 0)
(0.101801 -0.00190212 0)
(0.103066 -0.0018897 0)
(0.104322 -0.00187654 0)
(0.105569 -0.00186263 0)
(0.106806 -0.00184793 0)
(0.108034 -0.00183244 0)
(0.10925 -0.00181613 0)
(0.110456 -0.00179899 0)
(0.11165 -0.001781 0)
(0.112832 -0.00176214 0)
(0.114001 -0.0017424 0)
(0.115156 -0.00172176 0)
(0.116297 -0.00170021 0)
(0.117424 -0.00167773 0)
(0.118536 -0.00165431 0)
(0.119631 -0.00162995 0)
(0.12071 -0.00160463 0)
(0.121772 -0.00157834 0)
(0.122816 -0.00155108 0)
(0.123841 -0.00152284 0)
(0.124847 -0.00149362 0)
(0.125834 -0.00146341 0)
(0.1268 -0.00143221 0)
(0.127745 -0.00140002 0)
(0.128668 -0.00136685 0)
(0.129568 -0.0013327 0)
(0.130446 -0.00129757 0)
(0.1313 -0.00126147 0)
(0.132129 -0.00122441 0)
(0.132933 -0.00118641 0)
(0.133712 -0.00114747 0)
(0.134464 -0.00110761 0)
(0.13519 -0.00106684 0)
(0.135888 -0.0010252 0)
(0.136558 -0.00098269 0)
(0.137199 -0.000939342 0)
(0.137811 -0.00089518 0)
(0.138394 -0.00085023 0)
(0.138946 -0.000804522 0)
(0.139467 -0.000758085 0)
(0.139957 -0.000710954 0)
(0.140416 -0.000663161 0)
(0.140842 -0.000614743 0)
(0.141236 -0.000565738 0)
(0.141597 -0.000516185 0)
(0.141925 -0.000466124 0)
(0.14222 -0.000415597 0)
(0.14248 -0.000364648 0)
(0.142706 -0.000313321 0)
(0.142898 -0.000261661 0)
(0.143055 -0.000209715 0)
(0.143178 -0.00015753 0)
(0.143266 -0.000105154 0)
(0.143318 -5.26346e-05 0)
(0.143336 -2.1084e-08 0)
(0.143318 5.26377e-05 0)
(0.143266 0.000105293 0)
(0.143178 0.000157895 0)
(0.143055 0.000210395 0)
(0.142897 0.000262745 0)
(0.142705 0.000314896 0)
(0.142477 0.000366802 0)
(0.142215 0.000418415 0)
(0.141919 0.000469688 0)
(0.141588 0.000520578 0)
(0.141224 0.00057104 0)
(0.140826 0.000621031 0)
(0.140395 0.00067051 0)
(0.139932 0.000719437 0)
(0.139436 0.000767773 0)
(0.138907 0.000815481 0)
(0.138347 0.000862526 0)
(0.137756 0.000908874 0)
(0.137135 0.000954493 0)
(0.136483 0.000999353 0)
(0.135801 0.00104343 0)
(0.135091 0.00108669 0)
(0.134351 0.00112911 0)
(0.133584 0.00117067 0)
(0.132789 0.00121135 0)
(0.131968 0.00125114 0)
(0.13112 0.00129001 0)
(0.130247 0.00132795 0)
(0.129348 0.00136494 0)
(0.128426 0.00140099 0)
(0.127479 0.00143607 0)
(0.12651 0.00147018 0)
(0.125518 0.00150332 0)
(0.124504 0.00153548 0)
(0.123469 0.00156666 0)
(0.122414 0.00159687 0)
(0.121339 0.00162609 0)
(0.120245 0.00165435 0)
(0.119132 0.00168163 0)
(0.118001 0.00170795 0)
(0.116853 0.00173331 0)
(0.115689 0.00175773 0)
(0.114509 0.0017812 0)
(0.113313 0.00180375 0)
(0.112103 0.00182539 0)
(0.110878 0.00184612 0)
(0.10964 0.00186597 0)
(0.108389 0.00188494 0)
(0.107126 0.00190305 0)
(0.105851 0.00192033 0)
(0.104564 0.00193677 0)
(0.103267 0.00195242 0)
(0.10196 0.00196727 0)
(0.100643 0.00198135 0)
(0.0993173 0.00199468 0)
(0.0979827 0.00200728 0)
(0.09664 0.00201917 0)
(0.0952897 0.00203036 0)
(0.0939321 0.00204088 0)
(0.0925677 0.00205075 0)
(0.0911969 0.00205999 0)
(0.0898203 0.00206862 0)
(0.0884381 0.00207665 0)
(0.0870507 0.00208412 0)
(0.0856586 0.00209104 0)
(0.084262 0.00209742 0)
(0.0828614 0.0021033 0)
(0.081457 0.00210868 0)
(0.0800492 0.0021136 0)
(0.0786383 0.00211807 0)
(0.0772246 0.0021221 0)
(0.0758084 0.00212572 0)
(0.0743898 0.00212896 0)
(0.0729693 0.00213181 0)
(0.071547 0.00213431 0)
(0.0701231 0.00213648 0)
(0.068698 0.00213832 0)
(0.0672717 0.00213986 0)
(0.0658445 0.00214112 0)
(0.0644165 0.0021421 0)
(0.062988 0.00214284 0)
(0.0615591 0.00214333 0)
(0.06013 0.00214361 0)
(0.0587007 0.00214368 0)
(0.0572715 0.00214356 0)
(0.0558424 0.00214326 0)
(0.0544136 0.00214279 0)
(0.0529852 0.00214218 0)
(0.0515572 0.00214143 0)
(0.0501298 0.00214055 0)
(0.048703 0.00213957 0)
(0.0472769 0.00213848 0)
(0.0458516 0.00213731 0)
(0.0444271 0.00213606 0)
(0.0430034 0.00213474 0)
(0.0415807 0.00213337 0)
(0.0401589 0.00213195 0)
(0.038738 0.0021305 0)
(0.0373182 0.00212902 0)
(0.0358993 0.00212752 0)
(0.0344815 0.00212601 0)
(0.0330646 0.0021245 0)
(0.0316488 0.002123 0)
(0.030234 0.00212151 0)
(0.0288202 0.00212004 0)
(0.0274073 0.00211859 0)
(0.0259954 0.00211719 0)
(0.0245844 0.00211582 0)
(0.0231744 0.00211449 0)
(0.0217652 0.00211322 0)
(0.0203568 0.00211201 0)
(0.0189492 0.00211085 0)
(0.0175424 0.00210976 0)
(0.0161363 0.00210873 0)
(0.0147309 0.00210778 0)
(0.013326 0.00210691 0)
(0.0119218 0.00210611 0)
(0.010518 0.0021054 0)
(0.00911467 0.00210477 0)
(0.00771174 0.00210422 0)
(0.00630914 0.00210377 0)
(0.00490682 0.0021034 0)
(0.00350472 0.00210312 0)
(0.00210277 0.00210294 0)
(0.000700914 0.00210285 0)
(0.000655882 -0.00327982 0)
(0.00196768 -0.00327998 0)
(0.00327957 -0.0032803 0)
(0.00459163 -0.00328079 0)
(0.00590391 -0.00328143 0)
(0.00721649 -0.00328223 0)
(0.00852942 -0.00328319 0)
(0.00984277 -0.00328431 0)
(0.0111566 -0.00328558 0)
(0.012471 -0.003287 0)
(0.0137859 -0.00328856 0)
(0.0151016 -0.00329027 0)
(0.0164179 -0.00329212 0)
(0.017735 -0.00329411 0)
(0.0190529 -0.00329622 0)
(0.0203718 -0.00329847 0)
(0.0216915 -0.00330083 0)
(0.0230122 -0.00330331 0)
(0.0243339 -0.0033059 0)
(0.0256567 -0.00330859 0)
(0.0269806 -0.00331138 0)
(0.0283057 -0.00331426 0)
(0.0296319 -0.00331723 0)
(0.0309593 -0.00332026 0)
(0.032288 -0.00332336 0)
(0.0336179 -0.00332652 0)
(0.0349491 -0.00332972 0)
(0.0362816 -0.00333296 0)
(0.0376155 -0.00333622 0)
(0.0389506 -0.00333951 0)
(0.040287 -0.00334279 0)
(0.0416248 -0.00334607 0)
(0.0429639 -0.00334932 0)
(0.0443044 -0.00335254 0)
(0.0456461 -0.00335572 0)
(0.046989 -0.00335883 0)
(0.0483333 -0.00336187 0)
(0.0496787 -0.00336481 0)
(0.0510253 -0.00336765 0)
(0.052373 -0.00337036 0)
(0.0537218 -0.00337293 0)
(0.0550717 -0.00337534 0)
(0.0564224 -0.00337757 0)
(0.0577741 -0.0033796 0)
(0.0591265 -0.00338141 0)
(0.0604796 -0.00338299 0)
(0.0618334 -0.00338431 0)
(0.0631876 -0.00338534 0)
(0.0645422 -0.00338608 0)
(0.065897 -0.00338648 0)
(0.067252 -0.00338654 0)
(0.068607 -0.00338621 0)
(0.0699617 -0.00338549 0)
(0.0713161 -0.00338434 0)
(0.07267 -0.00338273 0)
(0.0740232 -0.00338064 0)
(0.0753754 -0.00337805 0)
(0.0767266 -0.00337491 0)
(0.0780764 -0.00337121 0)
(0.0794246 -0.00336691 0)
(0.080771 -0.00336198 0)
(0.0821154 -0.00335639 0)
(0.0834574 -0.00335011 0)
(0.0847968 -0.00334311 0)
(0.0861332 -0.00333535 0)
(0.0874665 -0.0033268 0)
(0.0887962 -0.00331743 0)
(0.090122 -0.00330721 0)
(0.0914435 -0.00329609 0)
(0.0927605 -0.00328405 0)
(0.0940725 -0.00327105 0)
(0.0953791 -0.00325706 0)
(0.09668 -0.00324204 0)
(0.0979747 -0.00322596 0)
(0.0992627 -0.00320878 0)
(0.100544 -0.00319047 0)
(0.101817 -0.003171 0)
(0.103083 -0.00315032 0)
(0.10434 -0.00312842 0)
(0.105588 -0.00310524 0)
(0.106826 -0.00308077 0)
(0.108055 -0.00305497 0)
(0.109273 -0.00302781 0)
(0.110479 -0.00299926 0)
(0.111675 -0.0029693 0)
(0.112858 -0.00293788 0)
(0.114028 -0.00290499 0)
(0.115184 -0.00287061 0)
(0.116327 -0.0028347 0)
(0.117455 -0.00279725 0)
(0.118567 -0.00275824 0)
(0.119664 -0.00271765 0)
(0.120744 -0.00267546 0)
(0.121807 -0.00263165 0)
(0.122853 -0.00258623 0)
(0.123879 -0.00253916 0)
(0.124887 -0.00249046 0)
(0.125875 -0.00244011 0)
(0.126842 -0.00238811 0)
(0.127788 -0.00233447 0)
(0.128713 -0.00227918 0)
(0.129614 -0.00222225 0)
(0.130493 -0.00216369 0)
(0.131348 -0.00210352 0)
(0.132179 -0.00204174 0)
(0.132985 -0.00197838 0)
(0.133764 -0.00191347 0)
(0.134518 -0.00184701 0)
(0.135245 -0.00177906 0)
(0.135944 -0.00170962 0)
(0.136615 -0.00163875 0)
(0.137257 -0.00156647 0)
(0.137871 -0.00149284 0)
(0.138454 -0.00141789 0)
(0.139007 -0.00134168 0)
(0.13953 -0.00126425 0)
(0.140021 -0.00118566 0)
(0.14048 -0.00110596 0)
(0.140907 -0.00102522 0)
(0.141302 -0.000943505 0)
(0.141664 -0.000860871 0)
(0.141992 -0.000777389 0)
(0.142287 -0.00069313 0)
(0.142548 -0.000608165 0)
(0.142775 -0.00052257 0)
(0.142967 -0.000436419 0)
(0.143125 -0.00034979 0)
(0.143248 -0.000262762 0)
(0.143336 -0.000175414 0)
(0.143388 -8.78282e-05 0)
(0.143406 -8.4635e-08 0)
(0.143389 8.77345e-05 0)
(0.143336 0.000175547 0)
(0.143248 0.000263272 0)
(0.143125 0.000350826 0)
(0.142967 0.00043813 0)
(0.142774 0.000525102 0)
(0.142546 0.000611663 0)
(0.142284 0.000697735 0)
(0.141987 0.000783241 0)
(0.141656 0.000868106 0)
(0.141291 0.000952257 0)
(0.140893 0.00103562 0)
(0.140461 0.00111813 0)
(0.139997 0.00119972 0)
(0.1395 0.00128032 0)
(0.13897 0.00135987 0)
(0.13841 0.00143832 0)
(0.137818 0.0015156 0)
(0.137195 0.00159166 0)
(0.136542 0.00166646 0)
(0.135859 0.00173995 0)
(0.135148 0.00181208 0)
(0.134407 0.00188281 0)
(0.133639 0.0019521 0)
(0.132843 0.00201992 0)
(0.13202 0.00208625 0)
(0.131171 0.00215105 0)
(0.130297 0.00221429 0)
(0.129397 0.00227596 0)
(0.128473 0.00233605 0)
(0.127525 0.00239452 0)
(0.126554 0.00245138 0)
(0.125561 0.00250662 0)
(0.124546 0.00256022 0)
(0.12351 0.0026122 0)
(0.122454 0.00266253 0)
(0.121377 0.00271124 0)
(0.120282 0.00275832 0)
(0.119168 0.00280379 0)
(0.118036 0.00284765 0)
(0.116887 0.00288991 0)
(0.115721 0.00293059 0)
(0.114539 0.0029697 0)
(0.113342 0.00300727 0)
(0.112131 0.00304332 0)
(0.110905 0.00307786 0)
(0.109666 0.00311092 0)
(0.108414 0.00314252 0)
(0.107149 0.00317269 0)
(0.105873 0.00320146 0)
(0.104586 0.00322885 0)
(0.103287 0.0032549 0)
(0.101979 0.00327964 0)
(0.100661 0.00330309 0)
(0.0993346 0.00332528 0)
(0.097999 0.00334626 0)
(0.0966554 0.00336605 0)
(0.0953041 0.00338468 0)
(0.0939456 0.0034022 0)
(0.0925804 0.00341863 0)
(0.0912088 0.003434 0)
(0.0898314 0.00344835 0)
(0.0884484 0.00346173 0)
(0.0870603 0.00347415 0)
(0.0856674 0.00348565 0)
(0.0842702 0.00349627 0)
(0.0828689 0.00350604 0)
(0.0814639 0.00351499 0)
(0.0800555 0.00352317 0)
(0.078644 0.00353059 0)
(0.0772297 0.00353729 0)
(0.0758129 0.00354331 0)
(0.0743939 0.00354868 0)
(0.0729729 0.00355342 0)
(0.0715501 0.00355757 0)
(0.0701258 0.00356115 0)
(0.0687002 0.00356421 0)
(0.0672735 0.00356676 0)
(0.0658459 0.00356883 0)
(0.0644177 0.00357045 0)
(0.0629888 0.00357166 0)
(0.0615596 0.00357247 0)
(0.0601302 0.00357291 0)
(0.0587007 0.00357301 0)
(0.0572712 0.00357279 0)
(0.0558419 0.00357227 0)
(0.0544129 0.00357149 0)
(0.0529843 0.00357045 0)
(0.0515561 0.00356918 0)
(0.0501285 0.00356771 0)
(0.0487016 0.00356606 0)
(0.0472754 0.00356424 0)
(0.04585 0.00356227 0)
(0.0444254 0.00356017 0)
(0.0430016 0.00355797 0)
(0.0415788 0.00355567 0)
(0.040157 0.0035533 0)
(0.0387361 0.00355086 0)
(0.0373162 0.00354838 0)
(0.0358973 0.00354588 0)
(0.0344795 0.00354335 0)
(0.0330626 0.00354083 0)
(0.0316468 0.00353831 0)
(0.030232 0.00353582 0)
(0.0288182 0.00353336 0)
(0.0274054 0.00353095 0)
(0.0259936 0.0035286 0)
(0.0245826 0.00352631 0)
(0.0231726 0.0035241 0)
(0.0217635 0.00352197 0)
(0.0203552 0.00351994 0)
(0.0189477 0.00351801 0)
(0.017541 0.00351618 0)
(0.016135 0.00351448 0)
(0.0147297 0.00351289 0)
(0.0133249 0.00351143 0)
(0.0119208 0.0035101 0)
(0.0105171 0.0035089 0)
(0.00911388 0.00350785 0)
(0.00771107 0.00350694 0)
(0.00630859 0.00350618 0)
(0.0049064 0.00350557 0)
(0.00350441 0.00350511 0)
(0.00210259 0.0035048 0)
(0.000700852 0.00350464 0)
(0.000655784 -0.00459151 0)
(0.00196739 -0.00459174 0)
(0.00327909 -0.0045922 0)
(0.00459095 -0.00459288 0)
(0.00590304 -0.00459378 0)
(0.00721543 -0.00459491 0)
(0.00852817 -0.00459626 0)
(0.00984133 -0.00459782 0)
(0.011155 -0.0045996 0)
(0.0124692 -0.00460159 0)
(0.013784 -0.00460379 0)
(0.0150994 -0.00460618 0)
(0.0164156 -0.00460878 0)
(0.0177325 -0.00461156 0)
(0.0190503 -0.00461453 0)
(0.020369 -0.00461768 0)
(0.0216886 -0.004621 0)
(0.0230092 -0.00462448 0)
(0.0243308 -0.00462812 0)
(0.0256534 -0.0046319 0)
(0.0269772 -0.00463581 0)
(0.0283022 -0.00463985 0)
(0.0296283 -0.00464401 0)
(0.0309556 -0.00464827 0)
(0.0322842 -0.00465263 0)
(0.0336141 -0.00465706 0)
(0.0349452 -0.00466156 0)
(0.0362777 -0.00466611 0)
(0.0376115 -0.00467069 0)
(0.0389466 -0.0046753 0)
(0.0402831 -0.00467992 0)
(0.0416209 -0.00468452 0)
(0.04296 -0.0046891 0)
(0.0443005 -0.00469363 0)
(0.0456423 -0.00469809 0)
(0.0469853 -0.00470247 0)
(0.0483296 -0.00470674 0)
(0.0496752 -0.00471089 0)
(0.0510219 -0.00471488 0)
(0.0523698 -0.0047187 0)
(0.0537188 -0.00472232 0)
(0.0550688 -0.00472572 0)
(0.0564198 -0.00472887 0)
(0.0577717 -0.00473174 0)
(0.0591244 -0.00473431 0)
(0.0604779 -0.00473655 0)
(0.0618319 -0.00473843 0)
(0.0631865 -0.00473991 0)
(0.0645415 -0.00474097 0)
(0.0658967 -0.00474157 0)
(0.0672521 -0.00474168 0)
(0.0686075 -0.00474126 0)
(0.0699628 -0.00474028 0)
(0.0713177 -0.00473871 0)
(0.0726722 -0.0047365 0)
(0.0740259 -0.00473362 0)
(0.0753788 -0.00473002 0)
(0.0767306 -0.00472567 0)
(0.0780811 -0.00472053 0)
(0.0794301 -0.00471455 0)
(0.0807773 -0.00470769 0)
(0.0821224 -0.00469991 0)
(0.0834653 -0.00469117 0)
(0.0848056 -0.00468141 0)
(0.086143 -0.00467059 0)
(0.0874772 -0.00465867 0)
(0.0888079 -0.0046456 0)
(0.0901347 -0.00463134 0)
(0.0914574 -0.00461582 0)
(0.0927755 -0.00459902 0)
(0.0940886 -0.00458087 0)
(0.0953965 -0.00456133 0)
(0.0966986 -0.00454035 0)
(0.0979946 -0.00451788 0)
(0.099284 -0.00449388 0)
(0.100566 -0.0044683 0)
(0.101841 -0.00444108 0)
(0.103108 -0.00441218 0)
(0.104367 -0.00438156 0)
(0.105616 -0.00434916 0)
(0.106856 -0.00431494 0)
(0.108086 -0.00427887 0)
(0.109306 -0.00424089 0)
(0.110515 -0.00420096 0)
(0.111711 -0.00415904 0)
(0.112896 -0.0041151 0)
(0.114068 -0.00406909 0)
(0.115226 -0.00402098 0)
(0.116371 -0.00397074 0)
(0.117501 -0.00391834 0)
(0.118615 -0.00386375 0)
(0.119714 -0.00380694 0)
(0.120796 -0.0037479 0)
(0.121861 -0.00368659 0)
(0.122908 -0.003623 0)
(0.123937 -0.00355713 0)
(0.124946 -0.00348895 0)
(0.125936 -0.00341846 0)
(0.126905 -0.00334566 0)
(0.127853 -0.00327055 0)
(0.12878 -0.00319314 0)
(0.129684 -0.00311343 0)
(0.130564 -0.00303143 0)
(0.131421 -0.00294716 0)
(0.132254 -0.00286065 0)
(0.133062 -0.00277192 0)
(0.133843 -0.002681 0)
(0.134599 -0.00258793 0)
(0.135327 -0.00249274 0)
(0.136028 -0.00239549 0)
(0.136701 -0.00229621 0)
(0.137345 -0.00219497 0)
(0.13796 -0.00209182 0)
(0.138545 -0.00198682 0)
(0.1391 -0.00188005 0)
(0.139623 -0.00177157 0)
(0.140116 -0.00166146 0)
(0.140576 -0.00154981 0)
(0.141005 -0.00143669 0)
(0.141401 -0.00132219 0)
(0.141764 -0.00120641 0)
(0.142093 -0.00108943 0)
(0.142389 -0.000971369 0)
(0.142651 -0.000852315 0)
(0.142878 -0.000732375 0)
(0.143071 -0.000611655 0)
(0.143229 -0.000490265 0)
(0.143352 -0.000368314 0)
(0.143441 -0.000245914 0)
(0.143494 -0.00012318 0)
(0.143512 -2.24392e-07 0)
(0.143494 0.000122837 0)
(0.143441 0.000245889 0)
(0.143353 0.000368818 0)
(0.14323 0.000491508 0)
(0.143072 0.000613845 0)
(0.142878 0.000735717 0)
(0.14265 0.000857012 0)
(0.142387 0.00097762 0)
(0.142089 0.00109743 0)
(0.141757 0.00121635 0)
(0.141392 0.00133426 0)
(0.140992 0.00145107 0)
(0.14056 0.00156667 0)
(0.140094 0.00168099 0)
(0.139596 0.00179391 0)
(0.139065 0.00190537 0)
(0.138503 0.00201527 0)
(0.13791 0.00212354 0)
(0.137286 0.0022301 0)
(0.136631 0.00233489 0)
(0.135947 0.00243783 0)
(0.135233 0.00253886 0)
(0.134491 0.00263794 0)
(0.133721 0.002735 0)
(0.132924 0.00282999 0)
(0.132099 0.00292289 0)
(0.131248 0.00301363 0)
(0.130372 0.00310221 0)
(0.12947 0.00318857 0)
(0.128544 0.00327271 0)
(0.127594 0.00335459 0)
(0.126622 0.00343421 0)
(0.125627 0.00351155 0)
(0.12461 0.0035866 0)
(0.123572 0.00365936 0)
(0.122513 0.00372983 0)
(0.121435 0.00379801 0)
(0.120337 0.00386392 0)
(0.119221 0.00392755 0)
(0.118087 0.00398894 0)
(0.116936 0.00404808 0)
(0.115769 0.00410501 0)
(0.114585 0.00415975 0)
(0.113387 0.00421232 0)
(0.112173 0.00426275 0)
(0.110946 0.00431107 0)
(0.109705 0.00435732 0)
(0.108451 0.00440153 0)
(0.107185 0.00444373 0)
(0.105907 0.00448397 0)
(0.104618 0.00452228 0)
(0.103318 0.0045587 0)
(0.102008 0.00459329 0)
(0.100689 0.00462607 0)
(0.0993604 0.0046571 0)
(0.0980235 0.00468643 0)
(0.0966784 0.00471408 0)
(0.0953258 0.00474013 0)
(0.093966 0.0047646 0)
(0.0925995 0.00478755 0)
(0.0912267 0.00480903 0)
(0.089848 0.00482908 0)
(0.0884638 0.00484775 0)
(0.0870746 0.00486509 0)
(0.0856807 0.00488114 0)
(0.0842824 0.00489596 0)
(0.0828801 0.0049096 0)
(0.0814741 0.00492209 0)
(0.0800648 0.00493348 0)
(0.0786524 0.00494383 0)
(0.0772373 0.00495317 0)
(0.0758197 0.00496155 0)
(0.0743999 0.00496902 0)
(0.0729782 0.00497561 0)
(0.0715547 0.00498138 0)
(0.0701298 0.00498636 0)
(0.0687035 0.00499059 0)
(0.0672763 0.00499412 0)
(0.0658481 0.00499699 0)
(0.0644193 0.00499923 0)
(0.06299 0.00500088 0)
(0.0615604 0.00500197 0)
(0.0601305 0.00500256 0)
(0.0587006 0.00500266 0)
(0.0572707 0.00500232 0)
(0.0558411 0.00500156 0)
(0.0544118 0.00500043 0)
(0.0529829 0.00499895 0)
(0.0515545 0.00499715 0)
(0.0501267 0.00499506 0)
(0.0486995 0.00499271 0)
(0.0472731 0.00499014 0)
(0.0458475 0.00498736 0)
(0.0444228 0.0049844 0)
(0.0429989 0.00498129 0)
(0.041576 0.00497805 0)
(0.0401541 0.0049747 0)
(0.0387331 0.00497127 0)
(0.0373132 0.00496778 0)
(0.0358943 0.00496425 0)
(0.0344764 0.0049607 0)
(0.0330596 0.00495714 0)
(0.0316438 0.0049536 0)
(0.030229 0.0049501 0)
(0.0288153 0.00494665 0)
(0.0274025 0.00494326 0)
(0.0259908 0.00493995 0)
(0.0245799 0.00493673 0)
(0.02317 0.00493362 0)
(0.021761 0.00493063 0)
(0.0203528 0.00492778 0)
(0.0189455 0.00492506 0)
(0.0175389 0.0049225 0)
(0.016133 0.0049201 0)
(0.0147278 0.00491787 0)
(0.0133232 0.00491581 0)
(0.0119192 0.00491394 0)
(0.0105157 0.00491227 0)
(0.0091127 0.00491079 0)
(0.00771007 0.00490951 0)
(0.00630777 0.00490844 0)
(0.00490575 0.00490758 0)
(0.00350395 0.00490693 0)
(0.00210231 0.0049065 0)
(0.000700759 0.00490629 0)
(0.000655654 -0.00590299 0)
(0.001967 -0.00590328 0)
(0.00327844 -0.00590387 0)
(0.00459004 -0.00590474 0)
(0.00590188 -0.00590591 0)
(0.00721401 -0.00590736 0)
(0.0085265 -0.0059091 0)
(0.00983941 -0.00591112 0)
(0.0111528 -0.00591341 0)
(0.0124668 -0.00591598 0)
(0.0137813 -0.00591881 0)
(0.0150965 -0.0059219 0)
(0.0164125 -0.00592525 0)
(0.0177292 -0.00592884 0)
(0.0190468 -0.00593267 0)
(0.0203653 -0.00593673 0)
(0.0216847 -0.00594101 0)
(0.0230051 -0.0059455 0)
(0.0243265 -0.00595019 0)
(0.025649 -0.00595506 0)
(0.0269727 -0.00596011 0)
(0.0282975 -0.00596533 0)
(0.0296235 -0.00597069 0)
(0.0309507 -0.00597619 0)
(0.0322792 -0.00598181 0)
(0.033609 -0.00598753 0)
(0.03494 -0.00599334 0)
(0.0362725 -0.00599921 0)
(0.0376062 -0.00600514 0)
(0.0389413 -0.00601109 0)
(0.0402778 -0.00601706 0)
(0.0416156 -0.00602301 0)
(0.0429548 -0.00602892 0)
(0.0442953 -0.00603478 0)
(0.0456372 -0.00604055 0)
(0.0469803 -0.00604622 0)
(0.0483248 -0.00605174 0)
(0.0496705 -0.00605711 0)
(0.0510174 -0.00606229 0)
(0.0523655 -0.00606724 0)
(0.0537148 -0.00607194 0)
(0.0550651 -0.00607635 0)
(0.0564163 -0.00608045 0)
(0.0577686 -0.00608419 0)
(0.0591216 -0.00608754 0)
(0.0604755 -0.00609047 0)
(0.0618299 -0.00609294 0)
(0.063185 -0.0060949 0)
(0.0645405 -0.00609631 0)
(0.0658963 -0.00609714 0)
(0.0672522 -0.00609734 0)
(0.0686083 -0.00609687 0)
(0.0699642 -0.00609567 0)
(0.0713198 -0.00609371 0)
(0.072675 -0.00609094 0)
(0.0740295 -0.0060873 0)
(0.0753833 -0.00608275 0)
(0.076736 -0.00607722 0)
(0.0780874 -0.00607068 0)
(0.0794374 -0.00606307 0)
(0.0807856 -0.00605433 0)
(0.0821318 -0.0060444 0)
(0.0834758 -0.00603323 0)
(0.0848172 -0.00602076 0)
(0.0861559 -0.00600694 0)
(0.0874914 -0.00599169 0)
(0.0888234 -0.00597497 0)
(0.0901516 -0.00595671 0)
(0.0914757 -0.00593685 0)
(0.0927953 -0.00591532 0)
(0.0941101 -0.00589207 0)
(0.0954195 -0.00586703 0)
(0.0967233 -0.00584014 0)
(0.098021 -0.00581134 0)
(0.0993122 -0.00578056 0)
(0.100596 -0.00574775 0)
(0.101873 -0.00571284 0)
(0.103142 -0.00567576 0)
(0.104403 -0.00563647 0)
(0.105654 -0.00559489 0)
(0.106896 -0.00555098 0)
(0.108129 -0.00550467 0)
(0.10935 -0.0054559 0)
(0.110561 -0.00540464 0)
(0.11176 -0.00535081 0)
(0.112947 -0.00529437 0)
(0.114122 -0.00523528 0)
(0.115282 -0.00517349 0)
(0.116429 -0.00510895 0)
(0.117562 -0.00504163 0)
(0.118679 -0.00497148 0)
(0.11978 -0.00489848 0)
(0.120865 -0.0048226 0)
(0.121932 -0.0047438 0)
(0.122982 -0.00466207 0)
(0.124013 -0.00457739 0)
(0.125026 -0.00448974 0)
(0.126018 -0.00439912 0)
(0.12699 -0.00430553 0)
(0.127941 -0.00420895 0)
(0.12887 -0.0041094 0)
(0.129776 -0.00400689 0)
(0.130659 -0.00390143 0)
(0.131519 -0.00379306 0)
(0.132354 -0.00368178 0)
(0.133164 -0.00356765 0)
(0.133948 -0.00345069 0)
(0.134706 -0.00333096 0)
(0.135437 -0.0032085 0)
(0.136141 -0.00308337 0)
(0.136816 -0.00295564 0)
(0.137462 -0.00282537 0)
(0.138079 -0.00269264 0)
(0.138666 -0.00255753 0)
(0.139223 -0.00242013 0)
(0.139748 -0.00228052 0)
(0.140243 -0.00213882 0)
(0.140705 -0.00199512 0)
(0.141135 -0.00184953 0)
(0.141532 -0.00170216 0)
(0.141897 -0.00155313 0)
(0.142227 -0.00140257 0)
(0.142524 -0.0012506 0)
(0.142787 -0.00109735 0)
(0.143016 -0.00094296 0)
(0.143209 -0.000787563 0)
(0.143368 -0.0006313 0)
(0.143492 -0.000474314 0)
(0.143581 -0.00031675 0)