/*--------------------------------*- C++ -*----------------------------------*\
| =========                 |                                                 |
| \\      /  F ield         | OpenFOAM: The Open Source CFD Toolbox           |
|  \\    /   O peration     | Version:  v2012                                 |
|   \\  /    A nd           | Website:  www.openfoam.com                      |
|    \\/     M anipulation  |                                                 |
\*---------------------------------------------------------------------------*/
FoamFile
{
    version     2.0;
    format      ascii;
    class       volVectorField;
    location    "70";
    object      Usup;
}
// * * * * * * * * * * * * * * * * * * * * * * * * * * * * * * * * * * * * * //

dimensions      [0 1 -1 0 0 0 0];


internalField   nonuniform List<vector> 
4000
(
(-2.66631e-16 -1.0916e-16 0)
(-5.04974e-16 2.08012e-16 0)
(-5.09626e-16 3.672e-16 0)
(-8.51665e-16 4.03666e-16 0)
(-1.19336e-15 3.80123e-16 0)
(-1.48696e-15 9.33143e-17 0)
(-2.19145e-15 8.61663e-17 0)
(-3.17222e-15 3.88467e-16 0)
(-3.85545e-15 1.09793e-15 0)
(-3.70458e-15 1.57042e-15 0)
(-3.43398e-15 1.16953e-15 0)
(-3.66246e-15 7.69162e-16 0)
(-3.90671e-15 9.4172e-16 0)
(-4.15689e-15 1.24421e-15 0)
(-4.09488e-15 1.23968e-15 0)
(-3.81791e-15 9.17625e-16 0)
(-3.82438e-15 1.04139e-15 0)
(-4.1768e-15 9.12325e-16 0)
(-4.54717e-15 1.0005e-15 0)
(-4.75452e-15 1.1371e-15 0)
(-4.78113e-15 1.2819e-15 0)
(-4.24249e-15 9.61698e-16 0)
(-3.64286e-15 3.8191e-16 0)
(-3.54091e-15 1.26181e-16 0)
(-3.44167e-15 2.11668e-16 0)
(-3.18641e-15 3.17287e-16 0)
(-3.39246e-15 4.64221e-16 0)
(-3.93035e-15 6.07981e-16 0)
(-4.0561e-15 4.91234e-16 0)
(-3.74915e-15 2.52318e-16 0)
(-3.52897e-15 2.12205e-16 0)
(-2.91616e-15 5.04856e-16 0)
(-2.22023e-15 3.67579e-16 0)
(-1.87808e-15 7.95621e-17 0)
(-1.52181e-15 -2.30457e-16 0)
(-1.91207e-15 -2.62664e-16 0)
(-2.80539e-15 -1.56844e-16 0)
(-3.23937e-15 2.80322e-16 0)
(-2.5605e-15 6.38015e-16 0)
(-1.07822e-15 2.39464e-16 0)
(-3.38685e-16 -3.92702e-16 0)
(-4.82831e-16 -9.1543e-16 0)
(-9.73534e-16 -1.08921e-15 0)
(-1.2935e-15 -8.91454e-16 0)
(-1.44946e-15 -5.37999e-16 0)
(-1.26295e-15 -3.37839e-16 0)
(-7.54311e-16 -4.57228e-16 0)
(-3.10047e-16 -5.14653e-16 0)
(4.71288e-16 -5.78707e-16 0)
(1.0592e-15 -5.7592e-16 0)
(8.86203e-16 -6.49143e-16 0)
(8.77826e-16 -6.54189e-16 0)
(1.34387e-15 -6.44383e-16 0)
(1.76808e-15 -6.07933e-16 0)
(1.97892e-15 -7.65872e-16 0)
(2.26626e-15 -6.01041e-16 0)
(2.59717e-15 -5.71201e-16 0)
(2.63633e-15 -4.91302e-16 0)
(2.60375e-15 -4.54601e-16 0)
(2.0933e-15 -7.36499e-16 0)
(1.79754e-15 -7.95847e-16 0)
(1.87228e-15 -1.2037e-15 0)
(1.54188e-15 -9.17167e-16 0)
(1.7509e-15 -6.05724e-16 0)
(2.39543e-15 -6.31252e-16 0)
(2.90924e-15 -2.7317e-16 0)
(3.37515e-15 -4.45395e-16 0)
(3.67998e-15 -5.95714e-16 0)
(3.51103e-15 -8.32467e-16 0)
(3.36004e-15 -7.82992e-16 0)
(3.69751e-15 -8.78264e-16 0)
(3.21995e-15 -1.13171e-15 0)
(2.60094e-15 -9.45163e-16 0)
(2.90241e-15 -9.34845e-16 0)
(3.15884e-15 -1.25223e-15 0)
(2.91626e-15 -1.50242e-15 0)
(2.88438e-15 -1.26384e-15 0)
(2.87455e-15 -1.17767e-15 0)
(2.12438e-15 -1.31385e-15 0)
(1.66336e-15 -1.22547e-15 0)
(1.80779e-15 -1.29652e-15 0)
(2.02697e-15 -1.5543e-15 0)
(2.15081e-15 -1.56573e-15 0)
(2.27027e-15 -1.85067e-15 0)
(2.38297e-15 -2.33957e-15 0)
(1.72077e-15 -2.60234e-15 0)
(8.68316e-16 -2.33568e-15 0)
(7.80531e-16 -1.899e-15 0)
(1.44642e-15 -1.61694e-15 0)
(2.07417e-15 -1.66442e-15 0)
(2.13936e-15 -1.5878e-15 0)
(1.87483e-15 -1.52167e-15 0)
(9.54934e-16 -1.51655e-15 0)
(1.72277e-16 -1.1865e-15 0)
(-1.36838e-16 -1.21087e-15 0)
(-4.36007e-16 -8.88306e-16 0)
(-7.51888e-16 -3.67654e-16 0)
(-7.15971e-16 -9.36563e-17 0)
(-3.14773e-16 -1.232e-16 0)
(-9.69321e-17 6.35666e-17 0)
(-4.24795e-16 -4.4289e-17 0)
(-1.11976e-15 5.41357e-16 0)
(-1.70197e-15 9.0525e-16 0)
(-2.74071e-15 1.03534e-15 0)
(-3.95399e-15 9.70797e-16 0)
(-4.94722e-15 6.77925e-16 0)
(-6.30372e-15 7.81178e-16 0)
(-8.04447e-15 1.49607e-15 0)
(-9.52764e-15 2.90759e-15 0)
(-1.03538e-14 3.55417e-15 0)
(-1.06795e-14 3.40228e-15 0)
(-1.07657e-14 3.10019e-15 0)
(-1.08378e-14 3.25463e-15 0)
(-1.1511e-14 3.48201e-15 0)
(-1.19136e-14 3.43297e-15 0)
(-1.1376e-14 2.69319e-15 0)
(-1.13179e-14 3.04101e-15 0)
(-1.20935e-14 3.28719e-15 0)
(-1.27022e-14 3.29041e-15 0)
(-1.31045e-14 3.32747e-15 0)
(-1.33876e-14 3.45119e-15 0)
(-1.27761e-14 2.64055e-15 0)
(-1.14338e-14 1.47855e-15 0)
(-1.05175e-14 8.94427e-16 0)
(-9.92551e-15 9.28684e-16 0)
(-9.41032e-15 1.07243e-15 0)
(-9.78319e-15 1.25129e-15 0)
(-1.09657e-14 1.42459e-15 0)
(-1.14649e-14 1.15232e-15 0)
(-1.0743e-14 9.15803e-16 0)
(-9.63692e-15 9.18808e-16 0)
(-8.251e-15 1.16966e-15 0)
(-7.06825e-15 8.06339e-16 0)
(-6.2543e-15 1.77917e-16 0)
(-5.35553e-15 -1.56376e-16 0)
(-5.80399e-15 -2.98473e-16 0)
(-7.1326e-15 -1.8208e-16 0)
(-7.64329e-15 6.23732e-16 0)
(-6.71243e-15 1.1512e-15 0)
(-4.36214e-15 3.78363e-16 0)
(-2.71306e-15 -1.30912e-15 0)
(-2.43222e-15 -2.7292e-15 0)
(-2.77411e-15 -3.01871e-15 0)
(-3.02117e-15 -2.46504e-15 0)
(-3.25186e-15 -1.78928e-15 0)
(-3.07768e-15 -1.20189e-15 0)
(-2.04668e-15 -1.1713e-15 0)
(-7.47393e-16 -1.28023e-15 0)
(1.11537e-15 -1.39673e-15 0)
(2.49845e-15 -1.4168e-15 0)
(2.512e-15 -1.86073e-15 0)
(2.81676e-15 -1.62587e-15 0)
(3.92882e-15 -1.70156e-15 0)
(4.85892e-15 -1.89321e-15 0)
(5.63423e-15 -2.19772e-15 0)
(6.5285e-15 -1.95315e-15 0)
(7.21556e-15 -1.92804e-15 0)
(7.38227e-15 -2.02479e-15 0)
(6.98307e-15 -1.87478e-15 0)
(5.91715e-15 -2.2397e-15 0)
(5.17936e-15 -2.49854e-15 0)
(5.44927e-15 -3.10721e-15 0)
(5.48449e-15 -2.67124e-15 0)
(5.7976e-15 -1.92427e-15 0)
(7.25712e-15 -1.57005e-15 0)
(8.43214e-15 -1.14493e-15 0)
(9.19184e-15 -1.46986e-15 0)
(9.86067e-15 -2.07053e-15 0)
(9.81023e-15 -2.57558e-15 0)
(9.67423e-15 -2.39441e-15 0)
(9.8996e-15 -2.5098e-15 0)
(9.15409e-15 -3.32898e-15 0)
(8.16523e-15 -3.06407e-15 0)
(8.20043e-15 -3.21734e-15 0)
(8.40746e-15 -3.61773e-15 0)
(8.36222e-15 -4.05381e-15 0)
(8.40953e-15 -3.75444e-15 0)
(7.85542e-15 -3.65194e-15 0)
(6.31709e-15 -3.96957e-15 0)
(5.33997e-15 -3.62745e-15 0)
(5.21517e-15 -3.80903e-15 0)
(5.64444e-15 -4.40493e-15 0)
(5.87495e-15 -5.20225e-15 0)
(5.70974e-15 -5.9132e-15 0)
(5.72797e-15 -6.81743e-15 0)
(4.86306e-15 -7.32139e-15 0)
(3.6454e-15 -6.59202e-15 0)
(3.40451e-15 -5.72744e-15 0)
(4.28243e-15 -4.97298e-15 0)
(5.33929e-15 -5.06446e-15 0)
(5.51611e-15 -4.80082e-15 0)
(4.69189e-15 -4.52467e-15 0)
(2.83935e-15 -4.62588e-15 0)
(9.49284e-16 -3.81576e-15 0)
(-5.42729e-17 -3.43391e-15 0)
(-4.95634e-16 -2.62329e-15 0)
(-1.252e-15 -1.31843e-15 0)
(-1.61782e-15 -5.56876e-16 0)
(-8.84785e-16 -2.44296e-16 0)
(-3.37286e-16 -5.50329e-17 0)
(-6.76742e-16 3.25181e-16 0)
(-1.88832e-15 1.03714e-15 0)
(-3.03243e-15 1.31479e-15 0)
(-4.75715e-15 1.23925e-15 0)
(-6.62469e-15 1.55259e-15 0)
(-8.18291e-15 1.92135e-15 0)
(-1.00859e-14 2.20466e-15 0)
(-1.23085e-14 3.00955e-15 0)
(-1.46684e-14 4.45438e-15 0)
(-1.61486e-14 4.78798e-15 0)
(-1.66932e-14 5.02613e-15 0)
(-1.72179e-14 4.99734e-15 0)
(-1.7682e-14 5.05271e-15 0)
(-1.85869e-14 5.3561e-15 0)
(-1.93136e-14 5.6497e-15 0)
(-1.85757e-14 5.11148e-15 0)
(-1.80349e-14 4.95481e-15 0)
(-1.928e-14 5.21863e-15 0)
(-2.04908e-14 5.53437e-15 0)
(-2.09686e-14 5.30337e-15 0)
(-2.1441e-14 5.24356e-15 0)
(-2.0872e-14 4.31682e-15 0)
(-1.89707e-14 2.79342e-15 0)
(-1.73648e-14 1.6748e-15 0)
(-1.62939e-14 1.72447e-15 0)
(-1.55838e-14 2.02315e-15 0)
(-1.60237e-14 2.06611e-15 0)
(-1.75021e-14 1.76545e-15 0)
(-1.80034e-14 1.76121e-15 0)
(-1.68625e-14 2.1414e-15 0)
(-1.53543e-14 1.98635e-15 0)
(-1.35513e-14 1.73384e-15 0)
(-1.19446e-14 1.11072e-15 0)
(-1.05072e-14 5.82463e-16 0)
(-9.18636e-15 4.04758e-16 0)
(-9.71985e-15 -7.36244e-17 0)
(-1.09762e-14 -2.75542e-16 0)
(-1.13555e-14 9.52927e-17 0)
(-1.03799e-14 3.18778e-16 0)
(-7.98728e-15 -2.10335e-16 0)
(-6.0283e-15 -2.16109e-15 0)
(-4.83247e-15 -3.89555e-15 0)
(-4.32266e-15 -4.49333e-15 0)
(-4.33024e-15 -3.99234e-15 0)
(-4.47284e-15 -3.32834e-15 0)
(-4.10852e-15 -2.63904e-15 0)
(-2.84581e-15 -2.27906e-15 0)
(-1.02025e-15 -1.77561e-15 0)
(1.62288e-15 -1.72398e-15 0)
(3.4023e-15 -2.28601e-15 0)
(3.97781e-15 -2.76488e-15 0)
(4.84903e-15 -2.25487e-15 0)
(6.10499e-15 -2.63528e-15 0)
(7.49367e-15 -3.17746e-15 0)
(8.92841e-15 -3.60963e-15 0)
(1.03165e-14 -3.43346e-15 0)
(1.11233e-14 -3.56817e-15 0)
(1.15041e-14 -3.99283e-15 0)
(1.11248e-14 -3.86542e-15 0)
(9.59917e-15 -4.01939e-15 0)
(8.58369e-15 -4.25073e-15 0)
(9.05559e-15 -4.49357e-15 0)
(9.56814e-15 -4.2703e-15 0)
(1.03265e-14 -3.52031e-15 0)
(1.20354e-14 -3.01702e-15 0)
(1.3378e-14 -2.95484e-15 0)
(1.42444e-14 -3.10717e-15 0)
(1.51407e-14 -3.7504e-15 0)
(1.55943e-14 -4.25828e-15 0)
(1.5624e-14 -4.04242e-15 0)
(1.53075e-14 -4.19989e-15 0)
(1.43704e-14 -5.06789e-15 0)
(1.33786e-14 -5.08941e-15 0)
(1.32414e-14 -5.47314e-15 0)
(1.34152e-14 -5.94622e-15 0)
(1.33233e-14 -6.46122e-15 0)
(1.33246e-14 -6.15702e-15 0)
(1.23019e-14 -6.35705e-15 0)
(1.04552e-14 -6.55189e-15 0)
(9.14932e-15 -6.46874e-15 0)
(8.47024e-15 -6.79938e-15 0)
(8.41628e-15 -7.63861e-15 0)
(8.59894e-15 -9.0317e-15 0)
(8.66333e-15 -1.00403e-14 0)
(8.62476e-15 -1.09679e-14 0)
(7.92883e-15 -1.13475e-14 0)
(6.69686e-15 -1.06358e-14 0)
(6.30046e-15 -9.67592e-15 0)
(7.02509e-15 -8.63815e-15 0)
(8.08194e-15 -8.29983e-15 0)
(8.36227e-15 -7.92354e-15 0)
(6.8828e-15 -7.61014e-15 0)
(4.45807e-15 -7.51119e-15 0)
(2.14638e-15 -6.68054e-15 0)
(5.2465e-16 -5.67018e-15 0)
(-1.22101e-16 -4.17233e-15 0)
(-1.20228e-15 -2.75387e-15 0)
(-1.95157e-15 -1.4836e-15 0)
(-1.37601e-15 -5.13373e-16 0)
(-5.78445e-16 -2.49093e-16 0)
(-9.31592e-16 7.99533e-16 0)
(-2.85132e-15 1.72967e-15 0)
(-4.82771e-15 1.94433e-15 0)
(-6.79181e-15 1.75404e-15 0)
(-8.77678e-15 2.27551e-15 0)
(-1.10647e-14 3.54358e-15 0)
(-1.36405e-14 3.94016e-15 0)
(-1.61415e-14 4.52891e-15 0)
(-1.92396e-14 5.35942e-15 0)
(-2.16347e-14 5.93759e-15 0)
(-2.26339e-14 6.36449e-15 0)
(-2.33319e-14 6.25458e-15 0)
(-2.36486e-14 6.18875e-15 0)
(-2.45385e-14 6.58831e-15 0)
(-2.5736e-14 7.51876e-15 0)
(-2.55906e-14 7.81855e-15 0)
(-2.51459e-14 7.21246e-15 0)
(-2.59748e-14 7.14368e-15 0)
(-2.73492e-14 7.40703e-15 0)
(-2.82074e-14 7.03863e-15 0)
(-2.88145e-14 6.61283e-15 0)
(-2.86653e-14 5.87855e-15 0)
(-2.67261e-14 4.319e-15 0)
(-2.4108e-14 3.00485e-15 0)
(-2.20806e-14 2.85484e-15 0)
(-2.13196e-14 3.00311e-15 0)
(-2.2173e-14 2.79221e-15 0)
(-2.35612e-14 2.25305e-15 0)
(-2.34573e-14 2.66604e-15 0)
(-2.23354e-14 3.39965e-15 0)
(-2.08956e-14 3.04447e-15 0)
(-1.87714e-14 2.50604e-15 0)
(-1.66684e-14 1.6795e-15 0)
(-1.4671e-14 1.23787e-15 0)
(-1.32563e-14 7.06533e-16 0)
(-1.37956e-14 -1.78645e-16 0)
(-1.48087e-14 -6.35166e-16 0)
(-1.48544e-14 -7.78437e-16 0)
(-1.35574e-14 -9.27274e-16 0)
(-1.12473e-14 -1.62224e-15 0)
(-9.28192e-15 -3.18578e-15 0)
(-7.51725e-15 -4.69311e-15 0)
(-6.1959e-15 -5.8915e-15 0)
(-5.53501e-15 -5.51218e-15 0)
(-5.41182e-15 -5.03978e-15 0)
(-4.83828e-15 -4.1972e-15 0)
(-2.92969e-15 -3.38115e-15 0)
(-6.26284e-16 -2.42007e-15 0)
(1.80902e-15 -2.14511e-15 0)
(3.96293e-15 -3.07731e-15 0)
(5.54374e-15 -3.22201e-15 0)
(6.66159e-15 -3.07378e-15 0)
(7.91116e-15 -3.76874e-15 0)
(9.73086e-15 -4.47284e-15 0)
(1.1849e-14 -4.85244e-15 0)
(1.36821e-14 -4.8126e-15 0)
(1.44876e-14 -5.2301e-15 0)
(1.51036e-14 -5.86417e-15 0)
(1.486e-14 -6.03727e-15 0)
(1.32072e-14 -6.28743e-15 0)
(1.21274e-14 -6.10517e-15 0)
(1.26662e-14 -5.84016e-15 0)
(1.35135e-14 -6.00945e-15 0)
(1.45386e-14 -5.60295e-15 0)
(1.63839e-14 -5.51619e-15 0)
(1.80449e-14 -5.2267e-15 0)
(1.91351e-14 -5.12688e-15 0)
(2.0102e-14 -5.40617e-15 0)
(2.08623e-14 -6.04699e-15 0)
(2.0979e-14 -6.19532e-15 0)
(2.03301e-14 -6.53447e-15 0)
(1.92594e-14 -7.04891e-15 0)
(1.81432e-14 -7.42144e-15 0)
(1.76936e-14 -7.70994e-15 0)
(1.77045e-14 -8.4396e-15 0)
(1.79348e-14 -9.055e-15 0)
(1.78264e-14 -8.80182e-15 0)
(1.63553e-14 -9.23722e-15 0)
(1.42066e-14 -9.24127e-15 0)
(1.24647e-14 -9.66186e-15 0)
(1.1389e-14 -1.01608e-14 0)
(1.09807e-14 -1.11441e-14 0)
(1.10444e-14 -1.26001e-14 0)
(1.10752e-14 -1.3752e-14 0)
(1.11611e-14 -1.47842e-14 0)
(1.06925e-14 -1.49896e-14 0)
(9.61858e-15 -1.43488e-14 0)
(9.28703e-15 -1.31889e-14 0)
(9.90497e-15 -1.22473e-14 0)
(1.0692e-14 -1.14202e-14 0)
(1.06067e-14 -1.11401e-14 0)
(8.75347e-15 -1.09691e-14 0)
(5.93165e-15 -1.06386e-14 0)
(3.29262e-15 -9.55634e-15 0)
(1.61468e-15 -8.02298e-15 0)
(5.56042e-16 -6.0791e-15 0)
(-9.90097e-16 -4.59539e-15 0)
(-1.85951e-15 -2.53898e-15 0)
(-1.59453e-15 -1.17879e-15 0)
(-8.2853e-16 -4.6632e-16 0)
(-1.29568e-15 8.54646e-16 0)
(-3.95677e-15 2.04032e-15 0)
(-6.60348e-15 2.65795e-15 0)
(-8.93252e-15 3.19193e-15 0)
(-1.06949e-14 4.00636e-15 0)
(-1.34518e-14 5.25135e-15 0)
(-1.7099e-14 5.10873e-15 0)
(-2.02547e-14 5.46559e-15 0)
(-2.36629e-14 5.74059e-15 0)
(-2.6153e-14 6.44743e-15 0)
(-2.77135e-14 7.32728e-15 0)
(-2.90657e-14 7.66552e-15 0)
(-2.95821e-14 8.31249e-15 0)
(-3.00978e-14 8.66843e-15 0)
(-3.11177e-14 9.26515e-15 0)
(-3.16619e-14 9.62578e-15 0)
(-3.15908e-14 9.22595e-15 0)
(-3.24647e-14 9.41407e-15 0)
(-3.41336e-14 9.2437e-15 0)
(-3.51972e-14 8.55253e-15 0)
(-3.57729e-14 7.63306e-15 0)
(-3.56221e-14 7.28472e-15 0)
(-3.3635e-14 6.37739e-15 0)
(-3.05488e-14 5.44197e-15 0)
(-2.80578e-14 4.81854e-15 0)
(-2.71592e-14 4.32147e-15 0)
(-2.8015e-14 3.54571e-15 0)
(-2.89865e-14 3.08144e-15 0)
(-2.83459e-14 3.68237e-15 0)
(-2.73143e-14 4.18978e-15 0)
(-2.6071e-14 3.78925e-15 0)
(-2.37777e-14 3.17478e-15 0)
(-2.12448e-14 2.41764e-15 0)
(-1.88932e-14 1.61515e-15 0)
(-1.7452e-14 8.15581e-16 0)
(-1.77729e-14 -5.00797e-16 0)
(-1.84184e-14 -1.0578e-15 0)
(-1.82436e-14 -1.45681e-15 0)
(-1.68889e-14 -1.91572e-15 0)
(-1.44791e-14 -2.80464e-15 0)
(-1.22144e-14 -4.15673e-15 0)
(-1.02161e-14 -5.6604e-15 0)
(-8.06173e-15 -6.99846e-15 0)
(-6.63152e-15 -6.72931e-15 0)
(-6.08437e-15 -6.46981e-15 0)
(-4.86501e-15 -5.6955e-15 0)
(-2.65825e-15 -4.34227e-15 0)
(-2.08877e-16 -3.50774e-15 0)
(2.13079e-15 -3.03845e-15 0)
(4.59222e-15 -3.56296e-15 0)
(6.77328e-15 -3.76943e-15 0)
(7.9996e-15 -4.35338e-15 0)
(9.43093e-15 -4.95169e-15 0)
(1.18441e-14 -5.70699e-15 0)
(1.4542e-14 -5.82154e-15 0)
(1.65194e-14 -6.05429e-15 0)
(1.73022e-14 -6.57541e-15 0)
(1.81238e-14 -7.44216e-15 0)
(1.80784e-14 -8.32565e-15 0)
(1.67063e-14 -8.82846e-15 0)
(1.59677e-14 -8.08572e-15 0)
(1.61985e-14 -7.55784e-15 0)
(1.69835e-14 -7.82344e-15 0)
(1.83539e-14 -7.84388e-15 0)
(2.06256e-14 -7.88272e-15 0)
(2.26916e-14 -7.73326e-15 0)
(2.37756e-14 -7.53385e-15 0)
(2.45715e-14 -7.70376e-15 0)
(2.53258e-14 -8.34202e-15 0)
(2.56127e-14 -8.81545e-15 0)
(2.49397e-14 -9.04767e-15 0)
(2.37105e-14 -9.5362e-15 0)
(2.25702e-14 -1.01024e-14 0)
(2.19642e-14 -1.019e-14 0)
(2.1708e-14 -1.06261e-14 0)
(2.20538e-14 -1.12734e-14 0)
(2.18145e-14 -1.17515e-14 0)
(2.01189e-14 -1.22971e-14 0)
(1.76902e-14 -1.27552e-14 0)
(1.55066e-14 -1.3139e-14 0)
(1.40974e-14 -1.36234e-14 0)
(1.31565e-14 -1.45557e-14 0)
(1.30513e-14 -1.59706e-14 0)
(1.31894e-14 -1.70725e-14 0)
(1.34502e-14 -1.78063e-14 0)
(1.33945e-14 -1.78884e-14 0)
(1.25764e-14 -1.71985e-14 0)
(1.20583e-14 -1.64071e-14 0)
(1.24453e-14 -1.56141e-14 0)
(1.29184e-14 -1.48041e-14 0)
(1.23491e-14 -1.45299e-14 0)
(1.01726e-14 -1.4233e-14 0)
(7.37013e-15 -1.39122e-14 0)
(4.81387e-15 -1.24995e-14 0)
(2.81225e-15 -1.04997e-14 0)
(1.29499e-15 -8.48365e-15 0)
(-3.02111e-16 -6.54718e-15 0)
(-1.43312e-15 -4.01771e-15 0)
(-1.81562e-15 -2.36048e-15 0)
(-9.96357e-16 -8.54558e-16 0)
(-1.53933e-15 9.38036e-16 0)
(-4.75297e-15 2.2499e-15 0)
(-7.80283e-15 3.3638e-15 0)
(-1.0338e-14 4.71503e-15 0)
(-1.26347e-14 5.97249e-15 0)
(-1.65685e-14 6.27312e-15 0)
(-2.08174e-14 5.64604e-15 0)
(-2.40198e-14 5.96338e-15 0)
(-2.77355e-14 6.52268e-15 0)
(-3.03636e-14 7.54642e-15 0)
(-3.21608e-14 8.10765e-15 0)
(-3.34797e-14 8.93399e-15 0)
(-3.41731e-14 1.03368e-14 0)
(-3.54161e-14 1.07921e-14 0)
(-3.68435e-14 1.10069e-14 0)
(-3.76128e-14 1.1234e-14 0)
(-3.74768e-14 1.12696e-14 0)
(-3.83262e-14 1.10148e-14 0)
(-4.04905e-14 1.07488e-14 0)
(-4.19242e-14 1.01345e-14 0)
(-4.21381e-14 9.12939e-15 0)
(-4.16803e-14 9.00707e-15 0)
(-3.97971e-14 8.8617e-15 0)
(-3.66112e-14 7.97299e-15 0)
(-3.39582e-14 6.60162e-15 0)
(-3.30761e-14 5.46254e-15 0)
(-3.37418e-14 4.41926e-15 0)
(-3.39583e-14 4.04299e-15 0)
(-3.28796e-14 4.84517e-15 0)
(-3.20751e-14 4.74449e-15 0)
(-3.08926e-14 4.4393e-15 0)
(-2.83588e-14 3.93527e-15 0)
(-2.57118e-14 3.3148e-15 0)
(-2.31573e-14 1.95712e-15 0)
(-2.1686e-14 6.62502e-16 0)
(-2.17651e-14 -8.42809e-16 0)
(-2.18555e-14 -1.70603e-15 0)
(-2.14308e-14 -1.93351e-15 0)
(-1.98527e-14 -2.50563e-15 0)
(-1.74124e-14 -3.55682e-15 0)
(-1.51793e-14 -5.09024e-15 0)
(-1.28754e-14 -6.5904e-15 0)
(-9.87903e-15 -7.39586e-15 0)
(-7.70667e-15 -7.66417e-15 0)
(-6.79053e-15 -7.32581e-15 0)
(-4.83167e-15 -6.89851e-15 0)
(-2.13067e-15 -5.47396e-15 0)
(3.88161e-16 -4.63116e-15 0)
(2.73474e-15 -4.42591e-15 0)
(5.25603e-15 -4.30419e-15 0)
(7.56714e-15 -4.94841e-15 0)
(9.1249e-15 -5.92327e-15 0)
(1.09695e-14 -5.98734e-15 0)
(1.38388e-14 -6.41097e-15 0)
(1.69709e-14 -6.79956e-15 0)
(1.90445e-14 -7.50427e-15 0)
(1.98014e-14 -8.26918e-15 0)
(2.04166e-14 -9.25184e-15 0)
(2.05599e-14 -1.04046e-14 0)
(2.01211e-14 -1.082e-14 0)
(1.98106e-14 -1.01399e-14 0)
(1.96912e-14 -9.70527e-15 0)
(2.03337e-14 -9.78464e-15 0)
(2.18831e-14 -1.00515e-14 0)
(2.43461e-14 -1.00574e-14 0)
(2.67192e-14 -1.05507e-14 0)
(2.80587e-14 -1.06737e-14 0)
(2.87642e-14 -1.08551e-14 0)
(2.94928e-14 -1.11094e-14 0)
(2.99589e-14 -1.12761e-14 0)
(2.92326e-14 -1.12816e-14 0)
(2.77346e-14 -1.19303e-14 0)
(2.66832e-14 -1.23348e-14 0)
(2.61192e-14 -1.2766e-14 0)
(2.54996e-14 -1.32612e-14 0)
(2.54211e-14 -1.39025e-14 0)
(2.50412e-14 -1.49332e-14 0)
(2.3166e-14 -1.55954e-14 0)
(2.06679e-14 -1.64698e-14 0)
(1.84796e-14 -1.67736e-14 0)
(1.66753e-14 -1.72091e-14 0)
(1.53344e-14 -1.79754e-14 0)
(1.50384e-14 -1.8777e-14 0)
(1.52861e-14 -1.95846e-14 0)
(1.57423e-14 -2.00271e-14 0)
(1.58451e-14 -2.02851e-14 0)
(1.4941e-14 -2.00537e-14 0)
(1.43288e-14 -1.95453e-14 0)
(1.47146e-14 -1.85533e-14 0)
(1.48523e-14 -1.78437e-14 0)
(1.3952e-14 -1.76589e-14 0)
(1.14609e-14 -1.72911e-14 0)
(8.58783e-15 -1.64526e-14 0)
(6.23811e-15 -1.52504e-14 0)
(4.10746e-15 -1.31548e-14 0)
(2.22192e-15 -1.09351e-14 0)
(4.36129e-16 -8.59672e-15 0)
(-1.05303e-15 -5.97814e-15 0)
(-1.74388e-15 -3.68904e-15 0)
(-9.37944e-16 -1.17364e-15 0)
(-1.96259e-15 1.19718e-15 0)
(-5.66247e-15 2.69705e-15 0)
(-8.78005e-15 4.10174e-15 0)
(-1.16068e-14 5.5458e-15 0)
(-1.48494e-14 6.6525e-15 0)
(-1.97857e-14 6.62323e-15 0)
(-2.42644e-14 6.44717e-15 0)
(-2.73783e-14 6.69847e-15 0)
(-3.10111e-14 7.34576e-15 0)
(-3.4117e-14 8.86707e-15 0)
(-3.63268e-14 9.53118e-15 0)
(-3.7485e-14 1.0468e-14 0)
(-3.86339e-14 1.14811e-14 0)
(-4.03172e-14 1.17953e-14 0)
(-4.17348e-14 1.24778e-14 0)
(-4.25945e-14 1.28296e-14 0)
(-4.30389e-14 1.31624e-14 0)
(-4.42738e-14 1.24551e-14 0)
(-4.6295e-14 1.20765e-14 0)
(-4.78982e-14 1.21018e-14 0)
(-4.79917e-14 1.21087e-14 0)
(-4.69803e-14 1.19972e-14 0)
(-4.52673e-14 1.12693e-14 0)
(-4.27872e-14 9.71661e-15 0)
(-4.02106e-14 7.68924e-15 0)
(-3.88385e-14 6.02487e-15 0)
(-3.89308e-14 4.93583e-15 0)
(-3.83316e-14 4.66395e-15 0)
(-3.7205e-14 5.26808e-15 0)
(-3.65997e-14 5.26886e-15 0)
(-3.51641e-14 5.15301e-15 0)
(-3.25453e-14 5.04455e-15 0)
(-3.00741e-14 4.23931e-15 0)
(-2.77064e-14 2.68343e-15 0)
(-2.59518e-14 5.51373e-16 0)
(-2.56141e-14 -1.09992e-15 0)
(-2.49884e-14 -2.3469e-15 0)
(-2.41812e-14 -2.60567e-15 0)
(-2.28814e-14 -3.19613e-15 0)
(-2.0547e-14 -4.34964e-15 0)
(-1.80089e-14 -5.70792e-15 0)
(-1.49697e-14 -6.95861e-15 0)
(-1.14902e-14 -7.71786e-15 0)
(-8.81917e-15 -8.28948e-15 0)
(-7.30711e-15 -8.13655e-15 0)
(-4.73326e-15 -7.7748e-15 0)
(-1.55471e-15 -6.61121e-15 0)
(7.46194e-16 -5.90447e-15 0)
(3.33759e-15 -5.83647e-15 0)
(5.93611e-15 -5.55305e-15 0)
(8.02385e-15 -6.44302e-15 0)
(1.03521e-14 -7.26168e-15 0)
(1.28394e-14 -7.12643e-15 0)
(1.56293e-14 -7.38079e-15 0)
(1.8678e-14 -8.0875e-15 0)
(2.08575e-14 -9.07742e-15 0)
(2.18158e-14 -9.98825e-15 0)
(2.26193e-14 -1.10648e-14 0)
(2.31537e-14 -1.20676e-14 0)
(2.32224e-14 -1.26774e-14 0)
(2.31911e-14 -1.29295e-14 0)
(2.29892e-14 -1.27198e-14 0)
(2.34629e-14 -1.23815e-14 0)
(2.51915e-14 -1.21058e-14 0)
(2.76828e-14 -1.2235e-14 0)
(3.00751e-14 -1.30461e-14 0)
(3.17624e-14 -1.3756e-14 0)
(3.27449e-14 -1.40292e-14 0)
(3.36763e-14 -1.40135e-14 0)
(3.41998e-14 -1.37925e-14 0)
(3.31263e-14 -1.37184e-14 0)
(3.14712e-14 -1.41594e-14 0)
(3.03087e-14 -1.46891e-14 0)
(2.94378e-14 -1.54462e-14 0)
(2.88058e-14 -1.64433e-14 0)
(2.8492e-14 -1.68898e-14 0)
(2.792e-14 -1.79646e-14 0)
(2.59734e-14 -1.88973e-14 0)
(2.3415e-14 -1.95331e-14 0)
(2.11812e-14 -1.98858e-14 0)
(1.91111e-14 -2.03617e-14 0)
(1.7622e-14 -2.09619e-14 0)
(1.72137e-14 -2.15963e-14 0)
(1.73112e-14 -2.20418e-14 0)
(1.76139e-14 -2.25853e-14 0)
(1.76394e-14 -2.29334e-14 0)
(1.69685e-14 -2.29427e-14 0)
(1.66425e-14 -2.21345e-14 0)
(1.68509e-14 -2.09581e-14 0)
(1.63719e-14 -2.03453e-14 0)
(1.50775e-14 -2.03438e-14 0)
(1.27529e-14 -2.00913e-14 0)
(9.80042e-15 -1.87479e-14 0)
(7.34075e-15 -1.74091e-14 0)
(5.27152e-15 -1.55377e-14 0)
(3.18063e-15 -1.33319e-14 0)
(1.2209e-15 -1.07074e-14 0)
(-4.88917e-16 -7.88496e-15 0)
(-1.3805e-15 -4.85813e-15 0)
(-8.57473e-16 -1.54414e-15 0)
(-2.23387e-15 1.311e-15 0)
(-6.35682e-15 3.50124e-15 0)
(-9.80877e-15 4.73552e-15 0)
(-1.30531e-14 5.58254e-15 0)
(-1.70244e-14 6.50401e-15 0)
(-2.25657e-14 6.98608e-15 0)
(-2.73101e-14 7.72336e-15 0)
(-3.05994e-14 7.70477e-15 0)
(-3.40162e-14 8.27241e-15 0)
(-3.71809e-14 9.58039e-15 0)
(-3.98714e-14 1.10019e-14 0)
(-4.13257e-14 1.20371e-14 0)
(-4.28069e-14 1.22827e-14 0)
(-4.45643e-14 1.29656e-14 0)
(-4.61807e-14 1.37178e-14 0)
(-4.738e-14 1.43576e-14 0)
(-4.81625e-14 1.45636e-14 0)
(-4.96405e-14 1.41412e-14 0)
(-5.13204e-14 1.39027e-14 0)
(-5.24518e-14 1.41463e-14 0)
(-5.26618e-14 1.48762e-14 0)
(-5.25615e-14 1.4305e-14 0)
(-5.15053e-14 1.271e-14 0)
(-4.9026e-14 1.09343e-14 0)
(-4.62127e-14 9.13689e-15 0)
(-4.44133e-14 6.89965e-15 0)
(-4.38357e-14 5.99056e-15 0)
(-4.25705e-14 5.47796e-15 0)
(-4.10039e-14 5.52115e-15 0)
(-4.03701e-14 5.88044e-15 0)
(-3.884e-14 5.90737e-15 0)
(-3.63383e-14 5.66926e-15 0)
(-3.42717e-14 4.56006e-15 0)
(-3.22383e-14 2.95985e-15 0)
(-3.04326e-14 4.60371e-16 0)
(-2.9498e-14 -1.433e-15 0)
(-2.82019e-14 -2.5634e-15 0)
(-2.68806e-14 -3.31524e-15 0)
(-2.54723e-14 -3.86622e-15 0)
(-2.30618e-14 -4.87966e-15 0)
(-2.03752e-14 -6.02397e-15 0)
(-1.71546e-14 -6.96339e-15 0)
(-1.32277e-14 -7.80346e-15 0)
(-9.96163e-15 -8.90946e-15 0)
(-7.90011e-15 -9.19721e-15 0)
(-4.67194e-15 -8.52594e-15 0)
(-1.11737e-15 -7.60296e-15 0)
(1.25257e-15 -7.16417e-15 0)
(3.9704e-15 -7.22553e-15 0)
(6.46186e-15 -7.83618e-15 0)
(8.60863e-15 -8.10148e-15 0)
(1.15358e-14 -8.26282e-15 0)
(1.43815e-14 -8.55114e-15 0)
(1.71804e-14 -9.0721e-15 0)
(2.02682e-14 -9.6901e-15 0)
(2.26212e-14 -1.04466e-14 0)
(2.36639e-14 -1.131e-14 0)
(2.44754e-14 -1.27417e-14 0)
(2.51492e-14 -1.38817e-14 0)
(2.53986e-14 -1.48051e-14 0)
(2.58146e-14 -1.5864e-14 0)
(2.62781e-14 -1.59413e-14 0)
(2.71684e-14 -1.53999e-14 0)
(2.86351e-14 -1.47312e-14 0)
(3.06084e-14 -1.47832e-14 0)
(3.28768e-14 -1.57161e-14 0)
(3.49042e-14 -1.65602e-14 0)
(3.63691e-14 -1.68672e-14 0)
(3.76e-14 -1.68426e-14 0)
(3.81585e-14 -1.66586e-14 0)
(3.69124e-14 -1.64967e-14 0)
(3.4867e-14 -1.64823e-14 0)
(3.3431e-14 -1.68381e-14 0)
(3.23408e-14 -1.75759e-14 0)
(3.17372e-14 -1.88933e-14 0)
(3.13517e-14 -1.9618e-14 0)
(3.03245e-14 -2.07764e-14 0)
(2.84473e-14 -2.17944e-14 0)
(2.60321e-14 -2.23771e-14 0)
(2.36254e-14 -2.29364e-14 0)
(2.1328e-14 -2.33942e-14 0)
(1.95803e-14 -2.37728e-14 0)
(1.91084e-14 -2.43149e-14 0)
(1.91113e-14 -2.47115e-14 0)
(1.92912e-14 -2.51524e-14 0)
(1.94067e-14 -2.54557e-14 0)
(1.8965e-14 -2.52556e-14 0)
(1.88511e-14 -2.44304e-14 0)
(1.87253e-14 -2.32247e-14 0)
(1.75949e-14 -2.26148e-14 0)
(1.59415e-14 -2.26502e-14 0)
(1.38408e-14 -2.24608e-14 0)
(1.10727e-14 -2.11541e-14 0)
(8.35986e-15 -1.92148e-14 0)
(6.10365e-15 -1.71915e-14 0)
(4.03023e-15 -1.51324e-14 0)
(1.99383e-15 -1.26371e-14 0)
(1.32e-16 -9.78772e-15 0)
(-8.52445e-16 -6.3013e-15 0)
(-6.63342e-16 -2.15678e-15 0)
(-2.25708e-15 1.47379e-15 0)
(-7.03725e-15 3.77234e-15 0)
(-1.13921e-14 5.25739e-15 0)
(-1.48405e-14 6.17402e-15 0)
(-1.88416e-14 6.70186e-15 0)
(-2.44675e-14 7.14498e-15 0)
(-2.98995e-14 8.4141e-15 0)
(-3.37182e-14 8.79457e-15 0)
(-3.69167e-14 9.68647e-15 0)
(-3.98755e-14 1.04581e-14 0)
(-4.2701e-14 1.18686e-14 0)
(-4.5078e-14 1.29932e-14 0)
(-4.67845e-14 1.3437e-14 0)
(-4.83415e-14 1.45939e-14 0)
(-4.99888e-14 1.52364e-14 0)
(-5.1406e-14 1.58751e-14 0)
(-5.27505e-14 1.5766e-14 0)
(-5.4393e-14 1.56358e-14 0)
(-5.59571e-14 1.56376e-14 0)
(-5.68211e-14 1.60309e-14 0)
(-5.74209e-14 1.62458e-14 0)
(-5.79667e-14 1.5e-14 0)
(-5.69452e-14 1.33602e-14 0)
(-5.43992e-14 1.15463e-14 0)
(-5.19423e-14 1.03567e-14 0)
(-4.96984e-14 8.41904e-15 0)
(-4.83001e-14 7.66622e-15 0)
(-4.67589e-14 6.96579e-15 0)
(-4.47111e-14 6.50827e-15 0)
(-4.37872e-14 6.57349e-15 0)
(-4.24117e-14 6.44561e-15 0)
(-4.02155e-14 5.68296e-15 0)
(-3.83234e-14 4.24863e-15 0)
(-3.65695e-14 2.51773e-15 0)
(-3.4648e-14 1.1801e-16 0)
(-3.29414e-14 -1.59993e-15 0)
(-3.11107e-14 -2.43006e-15 0)
(-2.94804e-14 -3.46705e-15 0)
(-2.79327e-14 -4.04537e-15 0)
(-2.55659e-14 -5.13473e-15 0)
(-2.25059e-14 -6.58703e-15 0)
(-1.87983e-14 -7.61017e-15 0)
(-1.50181e-14 -8.14272e-15 0)
(-1.15186e-14 -9.40845e-15 0)
(-8.25183e-15 -9.52552e-15 0)
(-4.29477e-15 -8.84236e-15 0)
(-7.44484e-16 -8.48777e-15 0)
(1.4147e-15 -8.45728e-15 0)
(3.83582e-15 -9.01179e-15 0)
(6.88295e-15 -9.88961e-15 0)
(9.88114e-15 -9.74807e-15 0)
(1.27475e-14 -9.51397e-15 0)
(1.54967e-14 -1.00919e-14 0)
(1.85342e-14 -1.07136e-14 0)
(2.18533e-14 -1.12873e-14 0)
(2.42393e-14 -1.20154e-14 0)
(2.50234e-14 -1.30887e-14 0)
(2.58796e-14 -1.46707e-14 0)
(2.69856e-14 -1.62525e-14 0)
(2.72725e-14 -1.71583e-14 0)
(2.80088e-14 -1.79165e-14 0)
(2.91414e-14 -1.8152e-14 0)
(3.03519e-14 -1.80958e-14 0)
(3.18691e-14 -1.79172e-14 0)
(3.34346e-14 -1.77816e-14 0)
(3.55001e-14 -1.85086e-14 0)
(3.78781e-14 -1.95165e-14 0)
(3.96789e-14 -1.98494e-14 0)
(4.10842e-14 -1.95666e-14 0)
(4.17502e-14 -1.91546e-14 0)
(4.05255e-14 -1.91144e-14 0)
(3.84038e-14 -1.89032e-14 0)
(3.6556e-14 -1.8659e-14 0)
(3.48108e-14 -1.95315e-14 0)
(3.39893e-14 -2.10774e-14 0)
(3.35601e-14 -2.25809e-14 0)
(3.25072e-14 -2.3969e-14 0)
(3.06914e-14 -2.49969e-14 0)
(2.81621e-14 -2.52365e-14 0)
(2.57117e-14 -2.58541e-14 0)
(2.34756e-14 -2.61984e-14 0)
(2.16336e-14 -2.64035e-14 0)
(2.09178e-14 -2.64902e-14 0)
(2.07787e-14 -2.69956e-14 0)
(2.08142e-14 -2.74334e-14 0)
(2.09519e-14 -2.77326e-14 0)
(2.07396e-14 -2.73393e-14 0)
(2.0778e-14 -2.64374e-14 0)
(2.04411e-14 -2.53882e-14 0)
(1.86256e-14 -2.48294e-14 0)
(1.65327e-14 -2.47186e-14 0)
(1.4625e-14 -2.44935e-14 0)
(1.23136e-14 -2.29243e-14 0)
(9.68136e-15 -2.07893e-14 0)
(6.97207e-15 -1.87356e-14 0)
(4.48811e-15 -1.67431e-14 0)
(2.3586e-15 -1.44544e-14 0)
(5.95137e-16 -1.13378e-14 0)
(-2.10019e-16 -7.36664e-15 0)
(-1.28553e-16 -2.52302e-15 0)
(-2.49908e-15 1.26594e-15 0)
(-7.51833e-15 3.44312e-15 0)
(-1.21502e-14 5.75938e-15 0)
(-1.64155e-14 7.24889e-15 0)
(-2.11422e-14 7.74099e-15 0)
(-2.66007e-14 7.69057e-15 0)
(-3.18792e-14 8.36587e-15 0)
(-3.59319e-14 9.33648e-15 0)
(-3.952e-14 1.06044e-14 0)
(-4.27186e-14 1.16137e-14 0)
(-4.55139e-14 1.28625e-14 0)
(-4.79926e-14 1.39466e-14 0)
(-4.97151e-14 1.51418e-14 0)
(-5.15453e-14 1.63728e-14 0)
(-5.37185e-14 1.70147e-14 0)
(-5.56068e-14 1.69421e-14 0)
(-5.7054e-14 1.65879e-14 0)
(-5.85114e-14 1.68186e-14 0)
(-5.98239e-14 1.68292e-14 0)
(-6.07663e-14 1.71469e-14 0)
(-6.20971e-14 1.70533e-14 0)
(-6.32292e-14 1.59271e-14 0)
(-6.24236e-14 1.41547e-14 0)
(-5.94243e-14 1.21647e-14 0)
(-5.65018e-14 1.07273e-14 0)
(-5.4174e-14 9.5195e-15 0)
(-5.24694e-14 8.75003e-15 0)
(-5.07507e-14 8.23474e-15 0)
(-4.83547e-14 7.72441e-15 0)
(-4.71752e-14 7.27508e-15 0)
(-4.59153e-14 6.71142e-15 0)
(-4.40104e-14 5.54889e-15 0)
(-4.2282e-14 3.76927e-15 0)
(-4.05893e-14 2.01797e-15 0)
(-3.8417e-14 3.16611e-17 0)
(-3.59797e-14 -1.50298e-15 0)
(-3.38292e-14 -2.44281e-15 0)
(-3.19489e-14 -3.37872e-15 0)
(-3.01789e-14 -3.99562e-15 0)
(-2.79922e-14 -5.30945e-15 0)
(-2.48354e-14 -6.97305e-15 0)
(-2.0526e-14 -7.9072e-15 0)
(-1.63734e-14 -8.48129e-15 0)
(-1.23945e-14 -9.12295e-15 0)
(-8.4737e-15 -9.45437e-15 0)
(-4.44152e-15 -9.49097e-15 0)
(-8.75795e-16 -1.02194e-14 0)
(1.34396e-15 -1.03559e-14 0)
(3.92614e-15 -1.07969e-14 0)
(7.46042e-15 -1.11447e-14 0)
(1.09425e-14 -1.10314e-14 0)
(1.38373e-14 -1.11489e-14 0)
(1.65239e-14 -1.1628e-14 0)
(1.9763e-14 -1.22188e-14 0)
(2.31689e-14 -1.28882e-14 0)
(2.5503e-14 -1.37078e-14 0)
(2.62138e-14 -1.50423e-14 0)
(2.68951e-14 -1.64349e-14 0)
(2.82645e-14 -1.84619e-14 0)
(2.92862e-14 -1.97391e-14 0)
(3.03484e-14 -2.00189e-14 0)
(3.1568e-14 -2.04453e-14 0)
(3.29365e-14 -2.05376e-14 0)
(3.46553e-14 -2.077e-14 0)
(3.61697e-14 -2.06167e-14 0)
(3.7802e-14 -2.09079e-14 0)
(4.03017e-14 -2.20775e-14 0)
(4.28575e-14 -2.25082e-14 0)
(4.47254e-14 -2.21976e-14 0)
(4.51374e-14 -2.13e-14 0)
(4.37189e-14 -2.14579e-14 0)
(4.17478e-14 -2.13149e-14 0)
(3.93969e-14 -2.10661e-14 0)
(3.68368e-14 -2.18422e-14 0)
(3.55841e-14 -2.34548e-14 0)
(3.50993e-14 -2.53412e-14 0)
(3.41783e-14 -2.69701e-14 0)
(3.28793e-14 -2.7924e-14 0)
(3.04846e-14 -2.81629e-14 0)
(2.77144e-14 -2.86474e-14 0)
(2.54348e-14 -2.90561e-14 0)
(2.35911e-14 -2.89377e-14 0)
(2.26068e-14 -2.88029e-14 0)
(2.20458e-14 -2.93846e-14 0)
(2.20524e-14 -2.97355e-14 0)
(2.24349e-14 -2.97127e-14 0)
(2.25174e-14 -2.90131e-14 0)
(2.25136e-14 -2.7865e-14 0)
(2.17431e-14 -2.73066e-14 0)
(1.94943e-14 -2.71137e-14 0)
(1.71133e-14 -2.6507e-14 0)
(1.55387e-14 -2.55447e-14 0)
(1.35659e-14 -2.38796e-14 0)
(1.05478e-14 -2.21336e-14 0)
(7.48454e-15 -2.02577e-14 0)
(4.84484e-15 -1.8038e-14 0)
(2.84834e-15 -1.59336e-14 0)
(1.35523e-15 -1.26088e-14 0)
(6.1838e-16 -7.92877e-15 0)
(2.81544e-16 -2.77596e-15 0)
(-2.52946e-15 1.13226e-15 0)
(-7.54223e-15 3.5158e-15 0)
(-1.25834e-14 6.00736e-15 0)
(-1.76496e-14 7.58182e-15 0)
(-2.31265e-14 8.32922e-15 0)
(-2.90037e-14 8.48072e-15 0)
(-3.40911e-14 9.11805e-15 0)