/*--------------------------------*- C++ -*----------------------------------*\
| =========                 |                                                 |
| \\      /  F ield         | OpenFOAM: The Open Source CFD Toolbox           |
|  \\    /   O peration     | Version:  v2012                                 |
|   \\  /    A nd           | Website:  www.openfoam.com                      |
|    \\/     M anipulation  |                                                 |
\*---------------------------------------------------------------------------*/
FoamFile
{
    version     2.0;
    format      ascii;
    class       volVectorField;
    location    "70";
    object      Usup;
}
// * * * * * * * * * * * * * * * * * * * * * * * * * * * * * * * * * * * * * //

dimensions      [0 1 -1 0 0 0 0];


internalField   nonuniform List<vector> 
4000
(
(-4.75034e-16 -1.90192e-16 0)
(-6.31841e-16 2.91453e-16 0)
(-5.61516e-16 3.96221e-16 0)
(-7.58405e-16 1.1324e-16 0)
(-7.83573e-16 1.33997e-16 0)
(-5.96597e-16 2.11316e-16 0)
(-1.59257e-16 2.26221e-16 0)
(-4.84878e-17 8.96864e-17 0)
(1.20724e-16 1.55173e-16 0)
(6.21519e-16 -2.7798e-16 0)
(6.01019e-16 -6.81189e-16 0)
(-4.3458e-16 -7.31077e-16 0)
(-1.13652e-15 -2.93083e-16 0)
(-6.87929e-16 1.38454e-16 0)
(-1.03556e-17 4.24304e-16 0)
(4.96079e-17 1.29052e-16 0)
(-9.50541e-17 2.40491e-17 0)
(-1.62613e-16 -2.48376e-16 0)
(-5.45491e-16 -2.85973e-16 0)
(-7.5591e-16 -2.46968e-16 0)
(-3.9791e-16 -2.29959e-17 0)
(3.7733e-16 1.16154e-16 0)
(1.21607e-15 -1.42337e-16 0)
(1.79278e-15 -2.84965e-16 0)
(2.03304e-15 -3.71917e-16 0)
(2.14999e-15 -2.59032e-16 0)
(2.18206e-15 -3.63368e-16 0)
(2.1009e-15 -6.04583e-16 0)
(2.30187e-15 -7.92493e-16 0)
(2.29698e-15 -9.53531e-16 0)
(2.62294e-15 -6.68436e-16 0)
(3.30979e-15 -6.64824e-16 0)
(3.02509e-15 -8.79174e-16 0)
(2.90131e-15 -1.12743e-15 0)
(2.79285e-15 -1.26677e-15 0)
(2.24517e-15 -1.12797e-15 0)
(1.72775e-15 -1.16076e-15 0)
(1.63408e-15 -5.35839e-16 0)
(2.18221e-15 -2.99029e-16 0)
(2.60338e-15 -6.48129e-16 0)
(2.82596e-15 -8.03889e-16 0)
(2.8563e-15 -1.00627e-15 0)
(2.71216e-15 -1.00155e-15 0)
(2.38876e-15 -7.8179e-16 0)
(2.05075e-15 -5.63806e-16 0)
(2.08311e-15 -6.88281e-16 0)
(2.40266e-15 -9.19698e-16 0)
(2.48686e-15 -1.06973e-15 0)
(3.01535e-15 -6.09622e-16 0)
(4.18959e-15 -5.70671e-16 0)
(4.84335e-15 -9.52501e-16 0)
(4.91992e-15 -8.39073e-16 0)
(4.60186e-15 -8.69847e-16 0)
(4.63708e-15 -7.30433e-16 0)
(4.87642e-15 -7.65757e-16 0)
(4.92286e-15 -6.42308e-16 0)
(5.29908e-15 -8.48347e-16 0)
(5.70406e-15 -9.94498e-16 0)
(6.52039e-15 -8.61712e-16 0)
(7.10674e-15 -9.21558e-16 0)
(6.94311e-15 -7.41557e-16 0)
(6.64309e-15 -8.16802e-16 0)
(6.8958e-15 -6.48304e-16 0)
(7.31897e-15 -7.60606e-16 0)
(7.10226e-15 -8.74755e-16 0)
(6.94918e-15 -8.30057e-16 0)
(6.77564e-15 -1.0488e-15 0)
(6.43943e-15 -1.14782e-15 0)
(6.41289e-15 -1.19183e-15 0)
(6.36751e-15 -1.09507e-15 0)
(6.14735e-15 -1.18994e-15 0)
(6.00008e-15 -1.30439e-15 0)
(6.04381e-15 -1.09192e-15 0)
(6.02231e-15 -1.01574e-15 0)
(6.02004e-15 -1.00588e-15 0)
(6.16767e-15 -1.13266e-15 0)
(6.1357e-15 -1.09418e-15 0)
(5.81936e-15 -1.09897e-15 0)
(5.52025e-15 -7.92093e-16 0)
(5.35778e-15 -4.67392e-16 0)
(5.17593e-15 -4.38805e-16 0)
(5.42623e-15 -6.43494e-16 0)
(5.60079e-15 -8.61222e-16 0)
(5.72472e-15 -8.05643e-16 0)
(5.98172e-15 -9.1961e-16 0)
(5.73992e-15 -8.62441e-16 0)
(5.49077e-15 -7.74691e-16 0)
(5.73604e-15 -7.2755e-16 0)
(5.84103e-15 -1.04816e-15 0)
(5.51534e-15 -1.19777e-15 0)
(5.24831e-15 -1.09001e-15 0)
(4.96355e-15 -1.0156e-15 0)
(4.23268e-15 -8.63017e-16 0)
(3.58004e-15 -6.89028e-16 0)
(2.95288e-15 -7.05202e-16 0)
(2.17909e-15 -6.42683e-16 0)
(1.87106e-15 -3.84758e-16 0)
(1.75327e-15 -2.61061e-16 0)
(1.18215e-15 -1.37602e-16 0)
(5.08333e-16 3.86617e-17 0)
(-5.81581e-16 -4.14372e-17 0)
(-1.08503e-15 7.44265e-16 0)
(-1.71412e-15 8.7822e-16 0)
(-2.14026e-15 6.11702e-16 0)
(-1.87993e-15 5.64464e-16 0)
(-1.42158e-15 5.96978e-16 0)
(-6.58983e-16 4.73385e-16 0)
(-2.18833e-16 2.65657e-18 0)
(3.95168e-17 -1.77988e-16 0)
(6.06319e-16 -8.51789e-16 0)
(7.14126e-16 -1.80291e-15 0)
(-6.76282e-16 -1.8928e-15 0)
(-1.70713e-15 -7.43184e-16 0)
(-1.0562e-15 4.01725e-16 0)
(-2.91034e-16 8.22279e-16 0)
(-3.374e-16 2.82657e-16 0)
(-5.48098e-16 3.30994e-17 0)
(-6.93619e-16 -7.33178e-16 0)
(-1.1539e-15 -8.99944e-16 0)
(-1.23235e-15 -6.87024e-16 0)
(-2.48092e-16 -4.30152e-16 0)
(1.21949e-15 1.7198e-16 0)
(3.00989e-15 1.53703e-16 0)
(4.61572e-15 -5.88988e-16 0)
(5.57519e-15 -1.02723e-15 0)
(5.98495e-15 -1.05646e-15 0)
(5.91532e-15 -1.32101e-15 0)
(5.84566e-15 -1.74298e-15 0)
(6.35406e-15 -1.98076e-15 0)
(6.89229e-15 -2.25665e-15 0)
(7.79812e-15 -2.06833e-15 0)
(8.73139e-15 -2.36865e-15 0)
(8.15725e-15 -2.70932e-15 0)
(7.90102e-15 -2.95292e-15 0)
(7.79069e-15 -3.39741e-15 0)
(6.69883e-15 -3.24336e-15 0)
(5.98006e-15 -3.25308e-15 0)
(6.00503e-15 -1.93803e-15 0)
(6.35857e-15 -1.64424e-15 0)
(7.01856e-15 -2.37708e-15 0)
(7.67362e-15 -2.6161e-15 0)
(7.89584e-15 -2.66548e-15 0)
(7.90036e-15 -2.65264e-15 0)
(7.39326e-15 -2.50077e-15 0)
(6.50269e-15 -1.92668e-15 0)
(6.27908e-15 -2.0796e-15 0)
(6.98256e-15 -2.63951e-15 0)
(8.00935e-15 -2.70256e-15 0)
(9.57645e-15 -1.62203e-15 0)
(1.1524e-14 -1.63414e-15 0)
(1.32019e-14 -2.2804e-15 0)
(1.3878e-14 -2.49607e-15 0)
(1.35176e-14 -2.61607e-15 0)
(1.36943e-14 -2.45129e-15 0)
(1.42617e-14 -2.52377e-15 0)
(1.44977e-14 -2.3679e-15 0)
(1.52755e-14 -2.45437e-15 0)
(1.66825e-14 -2.45832e-15 0)
(1.8589e-14 -1.99625e-15 0)
(1.9964e-14 -2.48656e-15 0)
(1.98691e-14 -2.53821e-15 0)
(1.94558e-14 -2.60476e-15 0)
(1.99487e-14 -2.39935e-15 0)
(2.05205e-14 -2.64108e-15 0)
(2.02902e-14 -2.73125e-15 0)
(1.98407e-14 -2.57076e-15 0)
(1.92752e-14 -2.98713e-15 0)
(1.86879e-14 -3.35081e-15 0)
(1.86345e-14 -3.47055e-15 0)
(1.83906e-14 -3.69736e-15 0)
(1.77455e-14 -3.87516e-15 0)
(1.76234e-14 -3.87536e-15 0)
(1.77666e-14 -3.34947e-15 0)
(1.75537e-14 -3.18976e-15 0)
(1.73906e-14 -3.16961e-15 0)
(1.76207e-14 -3.27436e-15 0)
(1.75586e-14 -3.04387e-15 0)
(1.70589e-14 -2.86656e-15 0)
(1.6602e-14 -2.25914e-15 0)
(1.59599e-14 -1.6375e-15 0)
(1.52178e-14 -1.59364e-15 0)
(1.54744e-14 -1.93914e-15 0)
(1.60512e-14 -2.5776e-15 0)
(1.64289e-14 -2.49653e-15 0)
(1.68627e-14 -2.4644e-15 0)
(1.65606e-14 -2.10766e-15 0)
(1.60655e-14 -2.17285e-15 0)
(1.60884e-14 -2.57262e-15 0)
(1.5992e-14 -3.04001e-15 0)
(1.55342e-14 -3.48042e-15 0)
(1.48829e-14 -3.34806e-15 0)
(1.39331e-14 -3.1673e-15 0)
(1.21829e-14 -2.84931e-15 0)
(1.02661e-14 -2.2037e-15 0)
(8.41101e-15 -2.08668e-15 0)
(6.66451e-15 -1.61039e-15 0)
(5.5955e-15 -1.22344e-15 0)
(4.71289e-15 -8.23796e-16 0)
(3.1629e-15 -5.0166e-16 0)
(1.14551e-15 -1.32574e-16 0)
(-7.49606e-16 4.42122e-16 0)
(-1.65113e-15 1.29566e-15 0)
(-2.58423e-15 1.1679e-15 0)
(-3.14104e-15 9.43444e-16 0)
(-2.87054e-15 9.32762e-16 0)
(-2.26054e-15 7.92816e-16 0)
(-1.40568e-15 3.1571e-16 0)
(-7.92865e-16 -3.03163e-16 0)
(-2.37438e-16 -8.99568e-16 0)
(2.88053e-16 -1.38121e-15 0)
(4.15629e-16 -2.62763e-15 0)
(-5.24412e-16 -2.81775e-15 0)
(-1.34532e-15 -1.22336e-15 0)
(-1.01463e-15 2.19697e-16 0)
(-6.60054e-16 5.92187e-16 0)
(-7.65282e-16 4.6159e-16 0)
(-1.15424e-15 -4.19159e-17 0)
(-1.33584e-15 -1.03557e-15 0)
(-1.3819e-15 -1.43492e-15 0)
(-1.23946e-15 -1.15722e-15 0)
(4.10685e-16 -6.88544e-16 0)
(2.78131e-15 -2.31861e-16 0)
(4.62901e-15 9.36435e-17 0)
(6.51509e-15 -1.02136e-15 0)
(8.31456e-15 -1.65542e-15 0)
(9.19947e-15 -2.12096e-15 0)
(9.32152e-15 -2.65428e-15 0)
(9.50004e-15 -2.82589e-15 0)
(1.02755e-14 -2.87933e-15 0)
(1.10085e-14 -2.9925e-15 0)
(1.20997e-14 -3.05611e-15 0)
(1.33367e-14 -3.87779e-15 0)
(1.30074e-14 -4.53601e-15 0)
(1.25003e-14 -4.94832e-15 0)
(1.217e-14 -5.57161e-15 0)
(1.09537e-14 -5.42064e-15 0)
(1.04238e-14 -5.00297e-15 0)
(1.04358e-14 -3.9217e-15 0)
(1.02686e-14 -3.48253e-15 0)
(1.11509e-14 -4.01033e-15 0)
(1.24305e-14 -4.32384e-15 0)
(1.27989e-14 -4.08248e-15 0)
(1.2575e-14 -3.98116e-15 0)
(1.21707e-14 -4.21828e-15 0)
(1.12063e-14 -3.73732e-15 0)
(1.05882e-14 -3.73022e-15 0)
(1.17035e-14 -3.7469e-15 0)
(1.38931e-14 -3.26314e-15 0)
(1.60863e-14 -2.64364e-15 0)
(1.83146e-14 -3.00707e-15 0)
(2.05301e-14 -3.48807e-15 0)
(2.1743e-14 -4.1444e-15 0)
(2.1827e-14 -4.21203e-15 0)
(2.22676e-14 -4.1242e-15 0)
(2.31596e-14 -4.58865e-15 0)
(2.38811e-14 -4.38452e-15 0)
(2.52579e-14 -3.82335e-15 0)
(2.74494e-14 -3.48083e-15 0)
(2.96514e-14 -3.09964e-15 0)
(3.11657e-14 -3.85154e-15 0)
(3.1617e-14 -4.28349e-15 0)
(3.149e-14 -4.33989e-15 0)
(3.2064e-14 -4.1402e-15 0)
(3.28036e-14 -4.62893e-15 0)
(3.27153e-14 -4.82839e-15 0)
(3.19574e-14 -4.86163e-15 0)
(3.09008e-14 -5.22003e-15 0)
(3.01531e-14 -5.75204e-15 0)
(2.98757e-14 -5.90204e-15 0)
(2.94587e-14 -6.37414e-15 0)
(2.89407e-14 -6.35936e-15 0)
(2.89535e-14 -5.81295e-15 0)
(2.89928e-14 -5.55676e-15 0)
(2.84978e-14 -5.48455e-15 0)
(2.8248e-14 -5.38078e-15 0)
(2.85766e-14 -5.31915e-15 0)
(2.84994e-14 -4.83847e-15 0)
(2.78206e-14 -4.33616e-15 0)
(2.71677e-14 -3.779e-15 0)
(2.61022e-14 -3.27906e-15 0)
(2.49225e-14 -3.15092e-15 0)
(2.4914e-14 -3.06817e-15 0)
(2.57163e-14 -3.87135e-15 0)
(2.66011e-14 -4.06066e-15 0)
(2.728e-14 -3.98194e-15 0)
(2.66329e-14 -3.7535e-15 0)
(2.54227e-14 -4.15755e-15 0)
(2.53594e-14 -4.74581e-15 0)
(2.51926e-14 -4.96493e-15 0)
(2.44622e-14 -5.33282e-15 0)
(2.35643e-14 -5.3447e-15 0)
(2.20245e-14 -5.3396e-15 0)
(1.96319e-14 -5.05059e-15 0)
(1.6694e-14 -3.97474e-15 0)
(1.37708e-14 -3.40615e-15 0)
(1.10058e-14 -2.60564e-15 0)
(8.9631e-15 -2.26261e-15 0)
(7.30116e-15 -1.59931e-15 0)
(4.70364e-15 -1.04716e-15 0)
(1.69368e-15 -5.47544e-16 0)
(-7.46439e-16 6.79406e-16 0)
(-2.15892e-15 1.66216e-15 0)
(-3.68055e-15 1.30268e-15 0)
(-4.07464e-15 9.68942e-16 0)
(-3.62535e-15 1.09586e-15 0)
(-3.14987e-15 1.01899e-15 0)
(-2.22308e-15 3.16692e-16 0)
(-1.42349e-15 -5.92683e-16 0)
(-6.73495e-16 -1.54928e-15 0)
(-3.12587e-16 -2.21791e-15 0)
(-1.98772e-16 -3.44907e-15 0)
(-2.13645e-16 -3.4548e-15 0)
(-5.63717e-16 -1.77741e-15 0)
(-6.73907e-16 -3.90148e-16 0)
(-6.24814e-16 -1.69586e-16 0)
(-1.06009e-15 -5.02509e-17 0)
(-1.85497e-15 -2.2008e-16 0)
(-1.9511e-15 -7.75137e-16 0)
(-1.51288e-15 -1.57021e-15 0)
(-6.81123e-16 -1.76101e-15 0)
(1.2715e-15 -1.11954e-15 0)
(3.95151e-15 -1.15534e-15 0)
(6.05897e-15 -1.23272e-15 0)
(8.24944e-15 -1.64384e-15 0)
(1.06415e-14 -2.30204e-15 0)
(1.17945e-14 -3.08546e-15 0)
(1.24094e-14 -3.73133e-15 0)
(1.30641e-14 -3.99349e-15 0)
(1.40449e-14 -4.07884e-15 0)
(1.50225e-14 -3.92965e-15 0)
(1.59727e-14 -3.92254e-15 0)
(1.69985e-14 -4.90031e-15 0)
(1.6791e-14 -6.14645e-15 0)
(1.63745e-14 -7.0843e-15 0)
(1.62975e-14 -7.73857e-15 0)
(1.53899e-14 -7.48883e-15 0)
(1.48778e-14 -6.73374e-15 0)
(1.48646e-14 -6.15901e-15 0)
(1.44551e-14 -5.99392e-15 0)
(1.50928e-14 -5.76238e-15 0)
(1.67085e-14 -5.80774e-15 0)
(1.73954e-14 -5.51362e-15 0)
(1.69806e-14 -5.36292e-15 0)
(1.65598e-14 -5.69569e-15 0)
(1.57523e-14 -5.44035e-15 0)
(1.54118e-14 -5.13358e-15 0)
(1.70867e-14 -4.61991e-15 0)
(1.94752e-14 -4.13519e-15 0)
(2.17345e-14 -3.75553e-15 0)
(2.4487e-14 -4.01869e-15 0)
(2.72846e-14 -4.52389e-15 0)
(2.90878e-14 -5.2057e-15 0)
(2.97435e-14 -5.57451e-15 0)
(3.0132e-14 -5.77736e-15 0)
(3.14268e-14 -6.73952e-15 0)
(3.316e-14 -6.25371e-15 0)
(3.50142e-14 -5.34678e-15 0)
(3.74409e-14 -4.70874e-15 0)
(3.98011e-14 -4.57182e-15 0)
(4.15685e-14 -5.18716e-15 0)
(4.24694e-14 -5.66282e-15 0)
(4.27687e-14 -5.81393e-15 0)
(4.32781e-14 -5.88304e-15 0)
(4.38452e-14 -6.63615e-15 0)
(4.39053e-14 -7.19673e-15 0)
(4.30998e-14 -7.56337e-15 0)
(4.18051e-14 -7.95594e-15 0)
(4.09422e-14 -8.44955e-15 0)
(4.05919e-14 -8.68743e-15 0)
(4.01486e-14 -8.56394e-15 0)
(3.99022e-14 -8.20091e-15 0)
(3.96691e-14 -7.59742e-15 0)
(3.92889e-14 -7.60531e-15 0)
(3.88309e-14 -7.62905e-15 0)
(3.85532e-14 -7.70949e-15 0)
(3.89502e-14 -7.34991e-15 0)
(3.89492e-14 -6.59804e-15 0)
(3.80525e-14 -6.04672e-15 0)
(3.71054e-14 -5.40695e-15 0)
(3.57652e-14 -4.95062e-15 0)
(3.45002e-14 -4.38494e-15 0)
(3.41179e-14 -4.28823e-15 0)
(3.46261e-14 -4.91941e-15 0)
(3.57636e-14 -5.19657e-15 0)
(3.65263e-14 -5.4906e-15 0)
(3.56333e-14 -5.99916e-15 0)
(3.42147e-14 -6.50017e-15 0)
(3.4115e-14 -6.79719e-15 0)
(3.37464e-14 -6.92714e-15 0)
(3.26523e-14 -7.13714e-15 0)
(3.12166e-14 -7.50266e-15 0)
(2.91391e-14 -7.50405e-15 0)
(2.64648e-14 -7.17314e-15 0)
(2.28701e-14 -5.8989e-15 0)
(1.88611e-14 -4.54989e-15 0)
(1.5005e-14 -3.84817e-15 0)
(1.20785e-14 -3.30344e-15 0)
(9.63088e-15 -2.66403e-15 0)
(5.99505e-15 -1.8838e-15 0)
(2.21634e-15 -9.33951e-16 0)
(-8.24273e-16 5.1954e-16 0)
(-2.74755e-15 1.40828e-15 0)
(-4.60835e-15 1.24038e-15 0)
(-4.76188e-15 1.14412e-15 0)
(-4.15299e-15 1.4455e-15 0)
(-3.87003e-15 1.39744e-15 0)
(-3.26027e-15 7.40995e-16 0)
(-2.491e-15 -8.15658e-16 0)
(-1.47895e-15 -2.20459e-15 0)
(-1.00686e-15 -3.29637e-15 0)
(-5.14013e-16 -3.92838e-15 0)
(3.29619e-16 -3.68446e-15 0)
(2.68765e-16 -2.41108e-15 0)
(-4.24004e-16 -1.47082e-15 0)
(-7.70641e-16 -1.35995e-15 0)
(-9.69792e-16 -9.79493e-16 0)
(-1.74489e-15 -5.78721e-16 0)
(-2.30275e-15 -7.14666e-16 0)
(-1.94197e-15 -1.57106e-15 0)
(-3.79425e-16 -1.8995e-15 0)
(2.09757e-15 -2.05046e-15 0)
(4.95358e-15 -2.40371e-15 0)
(7.65542e-15 -2.69638e-15 0)
(1.01592e-14 -2.46914e-15 0)
(1.25338e-14 -3.22605e-15 0)
(1.40799e-14 -4.05257e-15 0)
(1.5087e-14 -4.66917e-15 0)
(1.60971e-14 -5.09448e-15 0)
(1.75887e-14 -5.28437e-15 0)
(1.88041e-14 -5.09552e-15 0)
(1.94973e-14 -5.29177e-15 0)
(2.01649e-14 -6.42587e-15 0)
(1.99675e-14 -8.12557e-15 0)
(1.98003e-14 -8.97994e-15 0)
(2.00987e-14 -9.36133e-15 0)
(1.95802e-14 -9.3844e-15 0)
(1.90278e-14 -8.74302e-15 0)
(1.85882e-14 -8.38532e-15 0)
(1.84146e-14 -8.53623e-15 0)
(1.94852e-14 -7.95353e-15 0)
(2.11002e-14 -7.38526e-15 0)
(2.17746e-14 -7.11742e-15 0)
(2.11278e-14 -6.80188e-15 0)
(2.07883e-14 -6.99811e-15 0)
(2.03687e-14 -6.8909e-15 0)
(2.02408e-14 -6.34678e-15 0)
(2.20529e-14 -5.83301e-15 0)
(2.49522e-14 -5.38992e-15 0)
(2.76648e-14 -4.8468e-15 0)
(3.04593e-14 -4.7134e-15 0)
(3.34517e-14 -5.1644e-15 0)
(3.55767e-14 -5.97372e-15 0)
(3.6618e-14 -7.05889e-15 0)
(3.72029e-14 -7.81403e-15 0)
(3.92462e-14 -8.58605e-15 0)
(4.2072e-14 -8.18182e-15 0)
(4.44214e-14 -7.36127e-15 0)
(4.70061e-14 -6.32675e-15 0)
(4.92623e-14 -5.83916e-15 0)
(5.11298e-14 -6.38905e-15 0)
(5.2442e-14 -7.03161e-15 0)
(5.29522e-14 -7.31597e-15 0)
(5.33732e-14 -7.8388e-15 0)
(5.39508e-14 -8.88833e-15 0)
(5.41502e-14 -9.9169e-15 0)
(5.33637e-14 -1.05403e-14 0)
(5.19558e-14 -1.10219e-14 0)
(5.10105e-14 -1.12596e-14 0)
(5.08926e-14 -1.1292e-14 0)
(5.06325e-14 -1.06815e-14 0)
(5.01821e-14 -9.92482e-15 0)
(4.96743e-14 -9.76798e-15 0)
(4.90639e-14 -9.32784e-15 0)
(4.83596e-14 -9.28887e-15 0)
(4.82469e-14 -9.25095e-15 0)
(4.90217e-14 -8.94408e-15 0)
(4.88325e-14 -8.42523e-15 0)
(4.77203e-14 -7.91e-15 0)
(4.66253e-14 -7.28486e-15 0)
(4.51956e-14 -6.56152e-15 0)
(4.35543e-14 -5.65703e-15 0)
(4.26099e-14 -5.73935e-15 0)
(4.31434e-14 -6.04409e-15 0)
(4.42685e-14 -6.45781e-15 0)
(4.46926e-14 -6.8753e-15 0)
(4.36628e-14 -7.86025e-15 0)
(4.22852e-14 -8.51922e-15 0)
(4.21201e-14 -8.79392e-15 0)
(4.14873e-14 -9.01996e-15 0)
(3.98063e-14 -9.31565e-15 0)
(3.80432e-14 -9.69208e-15 0)
(3.5748e-14 -9.64433e-15 0)
(3.27712e-14 -9.21543e-15 0)
(2.8896e-14 -7.99261e-15 0)
(2.37798e-14 -6.0161e-15 0)
(1.86285e-14 -5.14784e-15 0)
(1.47859e-14 -4.40838e-15 0)
(1.15098e-14 -4.03078e-15 0)
(7.18553e-15 -2.99757e-15 0)
(2.83281e-15 -1.04005e-15 0)
(-8.07454e-16 3.92016e-16 0)
(-3.02182e-15 8.87587e-16 0)
(-5.199e-15 1.34409e-15 0)
(-5.15596e-15 1.89412e-15 0)
(-4.51484e-15 1.68625e-15 0)
(-4.51201e-15 1.20863e-15 0)
(-4.41839e-15 4.53426e-16 0)
(-3.8959e-15 -1.17697e-15 0)
(-2.59922e-15 -2.45271e-15 0)
(-1.58143e-15 -3.76746e-15 0)
(-5.41869e-16 -4.19353e-15 0)
(6.72701e-16 -3.95258e-15 0)
(7.06729e-16 -3.13252e-15 0)
(-2.30579e-16 -2.65688e-15 0)
(-4.52294e-16 -2.38636e-15 0)
(-5.18789e-16 -1.79186e-15 0)
(-1.5552e-15 -1.54952e-15 0)
(-2.42576e-15 -1.62571e-15 0)
(-1.90633e-15 -2.09801e-15 0)
(-1.67329e-16 -2.30046e-15 0)
(2.38202e-15 -2.84453e-15 0)
(5.76799e-15 -3.21275e-15 0)
(9.19876e-15 -3.23834e-15 0)
(1.1907e-14 -3.2438e-15 0)
(1.42673e-14 -4.36795e-15 0)
(1.61336e-14 -5.23545e-15 0)
(1.75417e-14 -6.00306e-15 0)
(1.89363e-14 -6.28654e-15 0)
(2.07632e-14 -6.2822e-15 0)
(2.21096e-14 -6.64937e-15 0)
(2.24343e-14 -6.94805e-15 0)
(2.26212e-14 -8.11984e-15 0)
(2.27314e-14 -1.01963e-14 0)
(2.3253e-14 -1.11822e-14 0)
(2.36492e-14 -1.13386e-14 0)
(2.33056e-14 -1.18247e-14 0)
(2.29376e-14 -1.126e-14 0)
(2.23494e-14 -1.03394e-14 0)
(2.22673e-14 -9.7808e-15 0)
(2.36702e-14 -9.70605e-15 0)
(2.52778e-14 -9.2769e-15 0)
(2.59412e-14 -9.09173e-15 0)
(2.52887e-14 -8.61667e-15 0)
(2.48092e-14 -8.31805e-15 0)
(2.47169e-14 -8.06217e-15 0)
(2.5005e-14 -7.16952e-15 0)
(2.71294e-14 -6.78802e-15 0)
(3.0252e-14 -6.13045e-15 0)
(3.3168e-14 -5.83631e-15 0)
(3.61607e-14 -5.63292e-15 0)
(3.91753e-14 -5.97746e-15 0)
(4.1277e-14 -6.94791e-15 0)
(4.26155e-14 -8.32408e-15 0)
(4.38436e-14 -9.51469e-15 0)
(4.6628e-14 -9.82516e-15 0)
(5.0224e-14 -9.94825e-15 0)
(5.33057e-14 -9.29934e-15 0)
(5.62988e-14 -8.17035e-15 0)
(5.82892e-14 -7.76587e-15 0)
(5.99028e-14 -7.86805e-15 0)
(6.14984e-14 -8.58649e-15 0)
(6.22422e-14 -9.19151e-15 0)
(6.24564e-14 -9.88086e-15 0)
(6.28189e-14 -1.11742e-14 0)
(6.32222e-14 -1.26366e-14 0)
(6.27265e-14 -1.35201e-14 0)
(6.15339e-14 -1.419e-14 0)
(6.0769e-14 -1.42708e-14 0)
(6.07994e-14 -1.36864e-14 0)
(6.0692e-14 -1.28393e-14 0)
(5.98712e-14 -1.17471e-14 0)
(5.91862e-14 -1.16212e-14 0)
(5.85318e-14 -1.09443e-14 0)
(5.76103e-14 -1.07764e-14 0)
(5.73647e-14 -1.02552e-14 0)
(5.79295e-14 -1.04124e-14 0)
(5.78443e-14 -1.05532e-14 0)
(5.6736e-14 -9.91865e-15 0)
(5.56404e-14 -9.03135e-15 0)
(5.42417e-14 -8.42532e-15 0)
(5.21907e-14 -7.66994e-15 0)
(5.08042e-14 -7.2773e-15 0)
(5.09908e-14 -7.10294e-15 0)
(5.19531e-14 -7.74671e-15 0)
(5.21415e-14 -8.30653e-15 0)
(5.08171e-14 -9.70709e-15 0)
(4.95757e-14 -1.04006e-14 0)
(4.936e-14 -1.07041e-14 0)
(4.83997e-14 -1.11154e-14 0)
(4.64257e-14 -1.12292e-14 0)
(4.42682e-14 -1.13836e-14 0)
(4.15999e-14 -1.15961e-14 0)
(3.84079e-14 -1.1206e-14 0)
(3.44205e-14 -1.02606e-14 0)
(2.8524e-14 -8.19061e-15 0)
(2.20775e-14 -7.04224e-15 0)
(1.70792e-14 -5.69374e-15 0)
(1.30641e-14 -4.89137e-15 0)
(8.65628e-15 -3.55944e-15 0)
(3.49485e-15 -1.06549e-15 0)
(-1.08431e-15 3.8392e-16 0)
(-3.26947e-15 7.09022e-16 0)
(-5.01486e-15 1.28994e-15 0)
(-5.54051e-15 2.14037e-15 0)
(-5.52989e-15 1.66071e-15 0)
(-5.45214e-15 7.46596e-16 0)
(-5.47295e-15 -2.70419e-16 0)
(-4.88416e-15 -1.36719e-15 0)
(-3.48395e-15 -2.45088e-15 0)
(-2.30675e-15 -3.45663e-15 0)
(-6.83078e-16 -4.17645e-15 0)
(1.00279e-15 -4.34169e-15 0)
(1.06236e-15 -4.1741e-15 0)
(-3.94503e-18 -3.80933e-15 0)
(-1.59465e-16 -3.1938e-15 0)
(-2.4379e-16 -3.05249e-15 0)
(-1.36125e-15 -3.11991e-15 0)
(-2.2611e-15 -2.9947e-15 0)
(-1.73696e-15 -3.22776e-15 0)
(1.53326e-16 -3.4149e-15 0)
(3.04237e-15 -3.41902e-15 0)
(6.94485e-15 -3.50825e-15 0)
(1.06431e-14 -3.67768e-15 0)
(1.30551e-14 -4.26898e-15 0)
(1.54423e-14 -5.86336e-15 0)
(1.78072e-14 -7.04859e-15 0)
(1.9717e-14 -7.32912e-15 0)
(2.17055e-14 -7.41482e-15 0)
(2.35052e-14 -7.35183e-15 0)
(2.48331e-14 -8.27612e-15 0)
(2.52281e-14 -8.95636e-15 0)
(2.48097e-14 -9.91187e-15 0)
(2.48643e-14 -1.13124e-14 0)
(2.61219e-14 -1.2567e-14 0)
(2.67254e-14 -1.36478e-14 0)
(2.66444e-14 -1.42889e-14 0)
(2.70668e-14 -1.39435e-14 0)
(2.66495e-14 -1.28967e-14 0)
(2.59753e-14 -1.17388e-14 0)
(2.71276e-14 -1.13463e-14 0)
(2.90075e-14 -1.07813e-14 0)
(2.98773e-14 -1.02696e-14 0)
(2.94556e-14 -1.02271e-14 0)
(2.91102e-14 -9.42473e-15 0)
(2.93497e-14 -8.79967e-15 0)
(2.96545e-14 -7.60361e-15 0)
(3.17777e-14 -7.48445e-15 0)
(3.52391e-14 -7.32211e-15 0)
(3.83633e-14 -6.71563e-15 0)
(4.14936e-14 -6.0086e-15 0)
(4.4404e-14 -6.59847e-15 0)
(4.64752e-14 -7.93194e-15 0)
(4.79882e-14 -9.30273e-15 0)
(4.99615e-14 -1.04269e-14 0)
(5.34042e-14 -1.02512e-14 0)
(5.75798e-14 -1.07895e-14 0)
(6.15308e-14 -1.06941e-14 0)
(6.46331e-14 -1.00747e-14 0)
(6.66537e-14 -9.94248e-15 0)
(6.82787e-14 -1.00499e-14 0)
(6.96816e-14 -1.05677e-14 0)
(7.05586e-14 -1.13588e-14 0)
(7.07249e-14 -1.24014e-14 0)
(7.08893e-14 -1.36197e-14 0)
(7.14379e-14 -1.50169e-14 0)
(7.11838e-14 -1.60315e-14 0)
(7.024e-14 -1.6657e-14 0)
(7.00424e-14 -1.65994e-14 0)
(7.04097e-14 -1.55456e-14 0)
(7.0317e-14 -1.48272e-14 0)
(6.913e-14 -1.41673e-14 0)
(6.81211e-14 -1.34982e-14 0)
(6.73614e-14 -1.29176e-14 0)
(6.63722e-14 -1.26954e-14 0)
(6.58482e-14 -1.21846e-14 0)
(6.59469e-14 -1.22097e-14 0)
(6.61189e-14 -1.22401e-14 0)
(6.55119e-14 -1.16851e-14 0)
(6.41384e-14 -1.05815e-14 0)
(6.2376e-14 -1.02778e-14 0)
(6.03834e-14 -9.46005e-15 0)
(5.88598e-14 -8.7482e-15 0)
(5.84971e-14 -8.51327e-15 0)
(5.89309e-14 -9.39672e-15 0)
(5.85952e-14 -1.03752e-14 0)
(5.71855e-14 -1.16283e-14 0)
(5.62463e-14 -1.19341e-14 0)
(5.5823e-14 -1.2465e-14 0)
(5.47349e-14 -1.29963e-14 0)
(5.24881e-14 -1.27964e-14 0)
(4.97242e-14 -1.31398e-14 0)
(4.67256e-14 -1.36062e-14 0)
(4.33316e-14 -1.3213e-14 0)
(3.92882e-14 -1.2059e-14 0)
(3.28167e-14 -1.03974e-14 0)
(2.55555e-14 -8.92938e-15 0)
(1.98129e-14 -7.02368e-15 0)
(1.47873e-14 -5.41656e-15 0)
(9.83154e-15 -3.6571e-15 0)
(4.00429e-15 -1.22635e-15 0)
(-1.14318e-15 3.96826e-16 0)
(-3.45875e-15 1.07044e-15 0)
(-5.13764e-15 1.43092e-15 0)
(-5.73374e-15 1.63741e-15 0)
(-6.23118e-15 1.14975e-15 0)
(-6.44977e-15 3.82388e-16 0)
(-6.31365e-15 -7.03186e-16 0)
(-5.68017e-15 -1.45911e-15 0)
(-4.19338e-15 -2.64315e-15 0)
(-2.83804e-15 -3.34443e-15 0)
(-1.16775e-15 -3.97584e-15 0)
(6.78006e-16 -4.63491e-15 0)
(1.09255e-15 -5.24711e-15 0)
(5.23133e-16 -4.83559e-15 0)
(2.26094e-16 -4.22259e-15 0)
(-2.18103e-16 -4.48128e-15 0)
(-1.11238e-15 -4.74019e-15 0)
(-1.90941e-15 -4.62482e-15 0)
(-1.35785e-15 -4.5428e-15 0)
(9.06215e-16 -4.3898e-15 0)
(3.99242e-15 -4.25292e-15 0)
(7.81331e-15 -4.65219e-15 0)
(1.14801e-14 -5.02413e-15 0)
(1.37435e-14 -6.13388e-15 0)
(1.6228e-14 -7.37654e-15 0)
(1.956e-14 -8.4286e-15 0)
(2.22138e-14 -8.44398e-15 0)
(2.42447e-14 -8.20683e-15 0)
(2.5796e-14 -8.48362e-15 0)
(2.68974e-14 -9.37746e-15 0)
(2.7455e-14 -1.07454e-14 0)
(2.73062e-14 -1.21249e-14 0)
(2.73132e-14 -1.2905e-14 0)
(2.81126e-14 -1.39066e-14 0)
(2.89487e-14 -1.57196e-14 0)
(2.96219e-14 -1.63715e-14 0)
(3.04835e-14 -1.63639e-14 0)
(3.05341e-14 -1.59362e-14 0)
(3.00726e-14 -1.39923e-14 0)
(3.11833e-14 -1.22144e-14 0)
(3.30384e-14 -1.15248e-14 0)
(3.3477e-14 -1.1689e-14 0)
(3.32004e-14 -1.19135e-14 0)
(3.33364e-14 -1.06534e-14 0)
(3.37794e-14 -9.78631e-15 0)
(3.40326e-14 -8.71377e-15 0)
(3.58422e-14 -7.76912e-15 0)
(3.98752e-14 -7.39417e-15 0)
(4.38308e-14 -7.00502e-15 0)
(4.6629e-14 -6.92113e-15 0)
(4.88235e-14 -7.85899e-15 0)
(5.0993e-14 -9.06431e-15 0)
(5.30865e-14 -1.0028e-14 0)
(5.60315e-14 -1.04814e-14 0)
(5.9827e-14 -1.02695e-14 0)
(6.39579e-14 -1.09318e-14 0)
(6.84992e-14 -1.14413e-14 0)
(7.21267e-14 -1.16645e-14 0)
(7.41588e-14 -1.17966e-14 0)
(7.58031e-14 -1.22029e-14 0)
(7.73132e-14 -1.26351e-14 0)
(7.79943e-14 -1.34669e-14 0)
(7.81304e-14 -1.47999e-14 0)
(7.83817e-14 -1.60825e-14 0)
(7.89956e-14 -1.74358e-14 0)
(7.90472e-14 -1.85943e-14 0)
(7.85573e-14 -1.89541e-14 0)
(7.88962e-14 -1.83943e-14 0)
(7.92543e-14 -1.74522e-14 0)
(7.86847e-14 -1.69252e-14 0)
(7.76499e-14 -1.65722e-14 0)
(7.67314e-14 -1.51404e-14 0)
(7.55789e-14 -1.45205e-14 0)
(7.44394e-14 -1.43996e-14 0)
(7.38406e-14 -1.40068e-14 0)
(7.38224e-14 -1.39033e-14 0)
(7.39581e-14 -1.37956e-14 0)
(7.34595e-14 -1.3375e-14 0)
(7.19499e-14 -1.24246e-14 0)
(7.01231e-14 -1.18887e-14 0)
(6.81764e-14 -1.09138e-14 0)
(6.61859e-14 -1.0061e-14 0)
(6.50281e-14 -9.9755e-15 0)
(6.49061e-14 -1.10644e-14 0)
(6.45849e-14 -1.24866e-14 0)
(6.345e-14 -1.318e-14 0)
(6.23542e-14 -1.35268e-14 0)
(6.14925e-14 -1.41101e-14 0)
(6.04732e-14 -1.4697e-14 0)
(5.79043e-14 -1.45973e-14 0)
(5.43761e-14 -1.49106e-14 0)
(5.1219e-14 -1.55332e-14 0)
(4.80466e-14 -1.51599e-14 0)
(4.36974e-14 -1.36682e-14 0)
(3.66355e-14 -1.21939e-14 0)
(2.88858e-14 -1.01972e-14 0)
(2.24233e-14 -8.36743e-15 0)
(1.66346e-14 -6.3694e-15 0)
(1.10418e-14 -3.96568e-15 0)
(4.46941e-15 -1.40696e-15 0)
(-1.14469e-15 5.55018e-16 0)
(-3.53427e-15 1.2722e-15 0)
(-5.449e-15 1.65846e-15 0)
(-6.42764e-15 1.6583e-15 0)
(-6.97076e-15 7.97567e-16 0)
(-7.1762e-15 -1.81108e-16 0)
(-7.0413e-15 -1.11796e-15 0)
(-6.39626e-15 -1.99152e-15 0)
(-4.85675e-15 -2.92643e-15 0)
(-3.21135e-15 -4.0321e-15 0)
(-1.53073e-15 -4.44674e-15 0)
(1.7571e-16 -4.9793e-15 0)
(1.03698e-15 -5.79098e-15 0)
(9.16612e-16 -5.36428e-15 0)
(3.5063e-16 -5.5362e-15 0)
(-2.58201e-16 -6.20921e-15 0)
(-9.4984e-16 -6.30616e-15 0)
(-1.40539e-15 -5.792e-15 0)
(-6.01603e-16 -5.51377e-15 0)
(1.65483e-15 -5.52806e-15 0)
(4.54252e-15 -5.72878e-15 0)
(8.54174e-15 -6.61583e-15 0)
(1.22259e-14 -7.45578e-15 0)
(1.4509e-14 -8.16136e-15 0)
(1.74244e-14 -8.36057e-15 0)
(2.11351e-14 -8.81614e-15 0)
(2.43888e-14 -9.26892e-15 0)
(2.65362e-14 -9.32235e-15 0)
(2.78149e-14 -9.93883e-15 0)
(2.86114e-14 -1.06294e-14 0)
(2.88765e-14 -1.22004e-14 0)
(2.90652e-14 -1.41533e-14 0)
(2.95138e-14 -1.54252e-14 0)
(3.00736e-14 -1.62107e-14 0)
(3.09566e-14 -1.73105e-14 0)
(3.2221e-14 -1.78374e-14 0)
(3.34558e-14 -1.77581e-14 0)
(3.45142e-14 -1.73258e-14 0)
(3.49251e-14 -1.56292e-14 0)
(3.52799e-14 -1.38927e-14 0)
(3.5876e-14 -1.32591e-14 0)
(3.62294e-14 -1.34933e-14 0)
(3.70258e-14 -1.30682e-14 0)
(3.76836e-14 -1.17029e-14 0)
(3.80373e-14 -1.07307e-14 0)
(3.87234e-14 -9.2573e-15 0)
(4.07413e-14 -7.93052e-15 0)
(4.42829e-14 -7.26003e-15 0)
(4.77475e-14 -7.50165e-15 0)
(5.04945e-14 -8.33408e-15 0)
(5.30547e-14 -8.95818e-15 0)
(5.56875e-14 -9.49928e-15 0)
(5.83111e-14 -1.00025e-14 0)
(6.16919e-14 -1.0302e-14 0)
(6.55205e-14 -1.07816e-14 0)
(6.97083e-14 -1.1209e-14 0)
(7.45263e-14 -1.18635e-14 0)
(7.84398e-14 -1.27115e-14 0)
(8.08281e-14 -1.33617e-14 0)
(8.26795e-14 -1.37802e-14 0)
(8.41446e-14 -1.44649e-14 0)
(8.46567e-14 -1.54829e-14 0)
(8.47121e-14 -1.67511e-14 0)
(8.50063e-14 -1.8097e-14 0)
(8.57158e-14 -1.96288e-14 0)
(8.61936e-14 -2.10754e-14 0)
(8.64579e-14 -2.13829e-14 0)
(8.71197e-14 -2.04496e-14 0)
(8.73367e-14 -1.9455e-14 0)
(8.6667e-14 -1.8395e-14 0)
(8.59922e-14 -1.78514e-14 0)
(8.50228e-14 -1.63936e-14 0)
(8.31422e-14 -1.58065e-14 0)
(8.18268e-14 -1.5709e-14 0)
(8.11244e-14 -1.5624e-14 0)
(8.08366e-14 -1.55768e-14 0)
(8.105e-14 -1.54417e-14 0)
(8.08581e-14 -1.50196e-14 0)
(7.93596e-14 -1.43428e-14 0)
(7.74095e-14 -1.33554e-14 0)
(7.54533e-14 -1.24019e-14 0)
(7.30857e-14 -1.1537e-14 0)
(7.10998e-14 -1.143e-14 0)
(7.02063e-14 -1.24145e-14 0)
(6.99002e-14 -1.38731e-14 0)
(6.89601e-14 -1.45348e-14 0)
(6.77069e-14 -1.51829e-14 0)
(6.6624e-14 -1.57815e-14 0)
(6.54512e-14 -1.62698e-14 0)
(6.27001e-14 -1.65138e-14 0)
(5.85726e-14 -1.67503e-14 0)
(5.51174e-14 -1.71711e-14 0)
(5.21932e-14 -1.64081e-14 0)
(4.77623e-14 -1.51717e-14 0)
(4.03656e-14 -1.36747e-14 0)
(3.19785e-14 -1.14354e-14 0)
(2.47583e-14 -9.45227e-15 0)
(1.85731e-14 -7.1868e-15 0)
(1.23269e-14 -4.39779e-15 0)
(4.96691e-15 -1.50502e-15 0)
(-1.18395e-15 5.59317e-16 0)
(-3.62702e-15 1.12381e-15 0)
(-5.56279e-15 1.34352e-15 0)
(-6.87254e-15 1.51819e-15 0)
(-7.92506e-15 7.46495e-16 0)
(-8.05862e-15 -4.86388e-16 0)
(-7.72231e-15 -1.40571e-15 0)
(-6.98424e-15 -2.35143e-15 0)
(-5.58886e-15 -3.11936e-15 0)
(-3.79796e-15 -4.3651e-15 0)
(-1.67605e-15 -5.11357e-15 0)
(-1.02895e-16 -5.84999e-15 0)
(1.04303e-15 -6.45949e-15 0)
(9.91961e-16 -6.76986e-15 0)
(-3.63528e-17 -7.22982e-15 0)
(-3.16645e-16 -7.57513e-15 0)
(-1.95119e-16 -7.44259e-15 0)
(-5.32711e-16 -6.72045e-15 0)
(-1.35974e-16 -6.43082e-15 0)
(2.06807e-15 -6.79726e-15 0)
(4.86406e-15 -7.40284e-15 0)
(8.61569e-15 -8.35034e-15 0)
(1.2846e-14 -9.55996e-15 0)
(1.60159e-14 -9.71495e-15 0)
(1.91038e-14 -9.73672e-15 0)
(2.26391e-14 -9.97513e-15 0)
(2.59421e-14 -1.01537e-14 0)
(2.81688e-14 -1.05353e-14 0)
(2.95312e-14 -1.14171e-14 0)
(3.01734e-14 -1.2215e-14 0)
(3.00059e-14 -1.3691e-14 0)
(3.02363e-14 -1.5739e-14 0)
(3.12152e-14 -1.71321e-14 0)
(3.22136e-14 -1.81397e-14 0)
(3.32827e-14 -1.86156e-14 0)
(3.48533e-14 -1.8876e-14 0)
(3.64574e-14 -1.90094e-14 0)
(3.77561e-14 -1.83041e-14 0)
(3.83405e-14 -1.71886e-14 0)
(3.87824e-14 -1.6085e-14 0)
(3.93215e-14 -1.54077e-14 0)
(3.97571e-14 -1.47697e-14 0)
(4.08277e-14 -1.36103e-14 0)
(4.15682e-14 -1.22245e-14 0)
(4.23381e-14 -1.08871e-14 0)
(4.31577e-14 -9.50966e-15 0)
(4.47477e-14 -8.65237e-15 0)
(4.80612e-14 -8.19344e-15 0)
(5.13967e-14 -8.47992e-15 0)
(5.44306e-14 -8.94103e-15 0)
(5.7367e-14 -8.79863e-15 0)
(6.01473e-14 -9.23179e-15 0)
(6.29286e-14 -9.8209e-15 0)
(6.63913e-14 -1.03098e-14 0)
(7.05879e-14 -1.12583e-14 0)
(7.50823e-14 -1.15936e-14 0)
(7.98009e-14 -1.21098e-14 0)
(8.39028e-14 -1.32466e-14 0)
(8.66918e-14 -1.44891e-14 0)
(8.87056e-14 -1.5411e-14 0)
(9.01109e-14 -1.62061e-14 0)
(9.06342e-14 -1.73827e-14 0)
(9.07341e-14 -1.85125e-14 0)
(9.09306e-14 -1.96253e-14 0)
(9.15455e-14 -2.08645e-14 0)
(9.25139e-14 -2.24042e-14 0)
(9.37411e-14 -2.29753e-14 0)
(9.49654e-14 -2.19126e-14 0)
(9.53163e-14 -2.08464e-14 0)
(9.42955e-14 -1.94846e-14 0)
(9.34212e-14 -1.87421e-14 0)
(9.23955e-14 -1.78125e-14 0)
(9.00987e-14 -1.73331e-14 0)
(8.84407e-14 -1.71017e-14 0)
(8.7648e-14 -1.73326e-14 0)
(8.74996e-14 -1.72961e-14 0)
(8.77321e-14 -1.68044e-14 0)
(8.74426e-14 -1.60737e-14 0)
(8.61535e-14 -1.53566e-14 0)
(8.43336e-14 -1.45558e-14 0)
(8.21011e-14 -1.36303e-14 0)
(7.929e-14 -1.29287e-14 0)
(7.65624e-14 -1.33097e-14 0)
(7.50542e-14 -1.42804e-14 0)
(7.46952e-14 -1.54487e-14 0)
(7.38268e-14 -1.63728e-14 0)
(7.23802e-14 -1.6663e-14 0)
(7.11589e-14 -1.7127e-14 0)
(6.98307e-14 -1.76341e-14 0)
(6.67739e-14 -1.79206e-14 0)
(6.23323e-14 -1.80101e-14 0)
(5.90149e-14 -1.79261e-14 0)
(5.60568e-14 -1.66722e-14 0)
(5.11408e-14 -1.5716e-14 0)
(4.36151e-14 -1.46326e-14 0)
(3.49311e-14 -1.24504e-14 0)
(2.71035e-14 -1.04682e-14 0)
(2.04201e-14 -8.04779e-15 0)
(1.36793e-14 -4.66648e-15 0)
(5.49934e-15 -1.32143e-15 0)
(-1.26067e-15 6.22575e-16 0)
(-3.81914e-15 1.04726e-15 0)
(-5.68961e-15 9.66931e-16 0)
(-7.17676e-15 9.0078e-16 0)
(-8.59669e-15 7.19367e-17 0)
(-8.78798e-15 -7.15509e-16 0)
(-8.34251e-15 -1.79299e-15 0)
(-7.50627e-15 -2.5569e-15 0)
(-6.12667e-15 -3.61246e-15 0)