/*--------------------------------*- C++ -*----------------------------------*\
| =========                 |                                                 |
| \\      /  F ield         | OpenFOAM: The Open Source CFD Toolbox           |
|  \\    /   O peration     | Version:  v2012                                 |
|   \\  /    A nd           | Website:  www.openfoam.com                      |
|    \\/     M anipulation  |                                                 |
\*---------------------------------------------------------------------------*/
FoamFile
{
    version     2.0;
    format      ascii;
    class       volVectorField;
    location    "0";
    object      U;
}
// * * * * * * * * * * * * * * * * * * * * * * * * * * * * * * * * * * * * * //

dimensions      [0 1 -1 0 0 0 0];


internalField   nonuniform List<vector> 
4000
(
(1 2.80238e-15 0)
(1 2.54642e-15 0)
(1 2.00008e-15 0)
(1 3.16764e-16 0)
(1 -7.79857e-15 0)
(1 1.11376e-15 0)
(1 8.66226e-16 0)
(1 4.92149e-15 0)
(1 -1.88607e-15 0)
(1 -1.0011e-14 0)
(1 -4.00799e-18 0)
(1 2.33275e-15 0)
(1 8.16447e-15 0)
(1 -1.37838e-15 0)
(1 -4.06459e-15 0)
(1 -8.68971e-16 0)
(1 -5.73678e-17 0)
(1 -3.24771e-15 0)
(1 1.77097e-15 0)
(1 -1.76176e-15 0)
(1 1.92554e-15 0)
(1 -3.10924e-15 0)
(1 -1.78435e-15 0)
(1 -3.73993e-15 0)
(1 -3.17051e-15 0)
(1 3.94042e-16 0)
(1 -2.17403e-15 0)
(1 1.52549e-16 0)
(1 -4.1693e-15 0)
(1 7.19844e-15 0)
(1 3.06322e-15 0)
(1 -2.5767e-15 0)
(1 -3.29598e-15 0)
(1 2.36106e-15 0)
(1 2.83536e-15 0)
(1 7.84616e-15 0)
(1 6.91777e-15 0)
(1 7.82131e-15 0)
(1 8.42616e-16 0)
(1 -3.28258e-15 0)
(1 -8.41997e-15 0)
(1 -3.09964e-15 0)
(1 -1.18449e-15 0)
(1 9.22495e-16 0)
(1 -1.4908e-15 0)
(1 5.40624e-16 0)
(1 -9.05025e-17 0)
(1 -4.62514e-15 0)
(1 -5.0474e-16 0)
(1 3.79987e-15 0)
(1 6.69363e-15 0)
(1 2.33028e-15 0)
(1 3.55529e-15 0)
(1 1.12907e-15 0)
(1 8.16821e-16 0)
(1 8.51033e-16 0)
(1 -1.1156e-15 0)
(1 1.39517e-15 0)
(1 -4.59312e-16 0)
(1 1.21204e-15 0)
(1 1.40866e-15 0)
(1 2.11369e-15 0)
(1 -1.03728e-15 0)
(1 -6.86296e-16 0)
(1 -1.9641e-15 0)
(1 -4.41648e-16 0)
(1 -7.12256e-16 0)
(1 2.21847e-15 0)
(1 -7.64406e-16 0)
(1 -2.74131e-15 0)
(1 -1.55686e-15 0)
(1 -2.17869e-15 0)
(1 -2.8988e-15 0)
(1 -2.58696e-15 0)
(1 -3.44236e-15 0)
(1 -2.9768e-15 0)
(1 7.50331e-16 0)
(1 -2.01454e-15 0)
(1 -2.63701e-15 0)
(1 4.87473e-15 0)
(1 2.7392e-15 0)
(1 -9.76746e-16 0)
(1 -1.85819e-15 0)
(1 -1.05408e-15 0)
(1 -2.37302e-15 0)
(1 1.0816e-15 0)
(1 -1.1194e-15 0)
(1 1.65269e-15 0)
(1 2.76605e-15 0)
(1 4.71438e-15 0)
(1 4.71121e-15 0)
(1 5.57424e-15 0)
(1 -2.58866e-15 0)
(1 -2.10328e-15 0)
(1 -1.86715e-15 0)
(1 -1.16879e-15 0)
(1 -9.40243e-16 0)
(1 6.0645e-17 0)
(1 4.69016e-16 0)
(1 -1.7358e-15 0)
(1 3.62915e-15 0)
(1 1.50878e-15 0)
(1 4.31913e-15 0)
(1 -1.35373e-16 0)
(1 -8.56985e-15 0)
(1 6.14671e-16 0)
(1 3.86006e-15 0)
(1 5.14262e-15 0)
(1 -1.85384e-15 0)
(1 -1.03025e-14 0)
(1 -4.26657e-15 0)
(1 4.92072e-15 0)
(1 9.25252e-15 0)
(1 -1.32173e-16 0)
(1 6.85755e-16 0)
(1 1.80846e-15 0)
(1 1.77641e-15 0)
(1 -2.08375e-15 0)
(1 1.47555e-15 0)
(1 -2.11083e-15 0)
(1 -6.7256e-16 0)
(1 -1.74922e-15 0)
(1 -2.20509e-15 0)
(1 -3.665e-15 0)
(1 -6.11548e-15 0)
(1 -1.64385e-15 0)
(1 -2.69656e-15 0)
(1 -2.7014e-15 0)
(1 -5.92274e-15 0)
(1 5.75738e-15 0)
(1 4.84587e-15 0)
(1 -2.10629e-15 0)
(1 -3.80514e-15 0)
(1 2.9428e-15 0)
(1 4.28182e-15 0)
(1 6.27951e-15 0)
(1 3.37952e-15 0)
(1 8.06327e-15 0)
(1 8.03937e-16 0)
(1 -5.39891e-15 0)
(1 -1.31387e-14 0)
(1 -1.65077e-16 0)
(1 1.23375e-15 0)
(1 2.92487e-16 0)
(1 -2.20299e-15 0)
(1 8.27577e-16 0)
(1 -1.39966e-15 0)
(1 -3.57926e-15 0)
(1 -1.91677e-15 0)
(1 2.10752e-15 0)
(1 1.69759e-15 0)
(1 -2.24735e-15 0)
(1 -4.64633e-17 0)
(1 1.69294e-15 0)
(1 6.801e-15 0)
(1 3.08024e-15 0)
(1 -1.26711e-15 0)
(1 1.29701e-15 0)
(1 -3.47184e-15 0)
(1 -6.57064e-15 0)
(1 -4.55531e-15 0)
(1 1.26483e-15 0)
(1 5.17988e-15 0)
(1 2.73094e-15 0)
(1 1.22352e-15 0)
(1 4.13604e-15 0)
(1 -1.23718e-15 0)
(1 1.66705e-15 0)
(1 -5.79563e-15 0)
(1 -2.7126e-15 0)
(1 2.98169e-15 0)
(1 5.04852e-15 0)
(1 3.15535e-15 0)
(1 1.71998e-15 0)
(1 -1.45944e-15 0)
(1 -2.94812e-15 0)
(1 2.9631e-15 0)
(1 -3.92143e-16 0)
(1 -1.34947e-16 0)
(1 8.52913e-15 0)
(1 2.9501e-15 0)
(1 -5.19223e-15 0)
(1 -5.81391e-15 0)
(1 2.0838e-15 0)
(1 -3.63492e-16 0)
(1 4.46321e-15 0)
(1 1.82386e-15 0)
(1 3.84737e-16 0)
(1 -4.31929e-15 0)
(1 -2.69718e-15 0)
(1 3.00816e-15 0)
(1 3.22546e-15 0)
(1 -3.19253e-15 0)
(1 -3.81146e-15 0)
(1 -3.40608e-15 0)
(1 1.49579e-15 0)
(1 -1.2317e-15 0)
(1 4.13784e-15 0)
(1 9.656e-17 0)
(1 -2.82573e-15 0)
(1 -2.66174e-15 0)
(1 2.70625e-15 0)
(1 -5.89759e-15 0)
(1 4.29111e-15 0)
(1 -3.42986e-15 0)
(1 2.88519e-15 0)
(1 4.32684e-15 0)
(1 -2.00749e-15 0)
(1 5.86219e-16 0)
(1 -2.11449e-16 0)
(1 -7.0252e-15 0)
(1 4.71623e-15 0)
(1 5.51017e-15 0)
(1 7.64946e-15 0)
(1 2.14349e-15 0)
(1 -8.97797e-17 0)
(1 -2.60865e-15 0)
(1 -2.87935e-15 0)
(1 1.17624e-15 0)
(1 2.97375e-15 0)
(1 7.38715e-16 0)
(1 2.1163e-16 0)
(1 -1.5093e-15 0)
(1 1.51855e-15 0)
(1 4.54702e-15 0)
(1 2.53502e-15 0)
(1 7.07557e-16 0)
(1 1.83126e-15 0)
(1 -6.91292e-18 0)
(1 4.49133e-16 0)
(1 3.90474e-15 0)
(1 -2.77771e-15 0)
(1 -7.19743e-15 0)
(1 -4.56125e-15 0)
(1 4.84209e-15 0)
(1 4.59102e-15 0)
(1 3.3136e-15 0)
(1 7.53849e-15 0)
(1 4.23131e-15 0)
(1 7.64721e-15 0)
(1 -1.08678e-15 0)
(1 -3.12951e-15 0)
(1 -4.75971e-16 0)
(1 -9.31411e-15 0)
(1 3.87137e-16 0)
(1 9.24695e-16 0)
(1 2.64895e-15 0)
(1 -1.10105e-15 0)
(1 -6.73301e-15 0)
(1 -3.32034e-15 0)
(1 -4.71089e-15 0)
(1 -2.1284e-16 0)
(1 2.90941e-15 0)
(1 7.10992e-15 0)
(1 6.63343e-15 0)
(1 5.73847e-15 0)
(1 1.33381e-15 0)
(1 -1.24334e-15 0)
(1 -5.38338e-15 0)
(1 -6.27498e-15 0)
(1 -4.89946e-15 0)
(1 -5.73347e-16 0)
(1 5.98995e-15 0)
(1 2.06128e-15 0)
(1 -5.56989e-16 0)
(1 1.22069e-15 0)
(1 1.79148e-15 0)
(1 1.44885e-15 0)
(1 -3.55032e-15 0)
(1 -6.05686e-16 0)
(1 -4.02023e-16 0)
(1 -2.02646e-16 0)
(1 3.51793e-16 0)
(1 -1.24785e-15 0)
(1 6.68819e-16 0)
(1 -4.18933e-15 0)
(1 1.705e-15 0)
(1 -8.26189e-16 0)
(1 8.43343e-16 0)
(1 2.14175e-15 0)
(1 3.52488e-16 0)
(1 -2.2542e-15 0)
(1 -7.446e-15 0)
(1 1.77497e-15 0)
(1 1.33206e-15 0)
(1 4.77756e-15 0)
(1 3.80027e-15 0)
(1 1.24171e-15 0)
(1 -4.16991e-15 0)
(1 -3.81563e-15 0)
(1 1.00337e-15 0)
(1 -7.66381e-17 0)
(1 -1.98985e-15 0)
(1 -5.23119e-15 0)
(1 1.68614e-15 0)
(1 6.41528e-16 0)
(1 -1.91225e-15 0)
(1 3.52122e-15 0)
(1 -1.98485e-15 0)
(1 -3.85626e-15 0)
(1 -1.82432e-17 0)
(1 -3.91728e-15 0)
(1 -5.11864e-15 0)
(1 -5.03988e-15 0)
(1 -3.87797e-15 0)
(1 2.23187e-15 0)
(1 8.81808e-15 0)
(1 3.43471e-16 0)
(1 5.82584e-15 0)
(1 -3.2818e-16 0)
(1 -3.0965e-16 0)
(1 6.96465e-15 0)
(1 7.13836e-15 0)
(1 8.19831e-15 0)
(1 -4.28832e-15 0)
(1 8.1508e-16 0)
(1 -5.12045e-15 0)
(1 2.71093e-16 0)
(1 -2.29968e-15 0)
(1 1.5978e-16 0)
(1 5.99774e-15 0)
(1 6.65677e-15 0)
(1 2.94114e-15 0)
(1 8.44129e-15 0)
(1 1.1931e-14 0)
(1 2.71893e-15 0)
(1 -1.97525e-15 0)
(1 7.71475e-16 0)
(1 7.05034e-16 0)
(1 -1.11903e-15 0)
(1 5.28567e-16 0)
(1 -3.27813e-15 0)
(1 -1.27603e-14 0)
(1 -6.12481e-15 0)
(1 2.29205e-15 0)
(1 3.77781e-15 0)
(1 9.97184e-15 0)
(1 9.59087e-15 0)
(1 6.0917e-15 0)
(1 1.55273e-15 0)
(1 3.19325e-15 0)
(1 -7.90276e-15 0)
(1 -3.9896e-15 0)
(1 -3.47659e-15 0)
(1 6.78978e-15 0)
(1 6.30325e-15 0)
(1 8.23306e-15 0)
(1 -1.96372e-15 0)
(1 -5.12594e-15 0)
(1 -5.95541e-15 0)
(1 5.36805e-16 0)
(1 4.43172e-16 0)
(1 2.34108e-15 0)
(1 4.13677e-15 0)
(1 -2.15647e-16 0)
(1 5.14605e-15 0)
(1 1.21702e-15 0)
(1 -7.62487e-15 0)
(1 -6.57839e-15 0)
(1 1.58352e-15 0)
(1 -2.94513e-15 0)
(1 4.2224e-16 0)
(1 3.58652e-16 0)
(1 2.46072e-15 0)
(1 2.47192e-15 0)
(1 -3.47104e-15 0)
(1 -1.01425e-15 0)
(1 -4.59836e-15 0)
(1 -1.66406e-16 0)
(1 -4.37499e-15 0)
(1 -4.31154e-15 0)
(1 -6.4051e-15 0)
(1 -7.25591e-15 0)
(1 -5.77155e-15 0)
(1 -4.09552e-16 0)
(1 1.5487e-15 0)
(1 5.34959e-15 0)
(1 3.81171e-15 0)
(1 3.34103e-15 0)
(1 1.2707e-15 0)
(1 6.98775e-16 0)
(1 -2.33046e-15 0)
(1 -3.36389e-15 0)
(1 -2.40432e-15 0)
(1 4.09123e-15 0)
(1 7.14258e-15 0)
(1 1.02174e-14 0)
(1 3.62406e-15 0)
(1 2.08801e-15 0)
(1 5.54683e-16 0)
(1 6.22775e-18 0)
(1 1.5608e-15 0)
(1 -2.98261e-15 0)
(1 7.03134e-16 0)
(1 5.15695e-16 0)
(1 -4.51594e-15 0)
(1 -5.09097e-15 0)
(1 -3.97651e-15 0)
(1 -4.12153e-15 0)
(1 -1.61872e-15 0)
(1 3.98731e-15 0)
(1 -2.21906e-15 0)
(1 5.37328e-16 0)
(1 -4.78434e-15 0)
(1 1.0008e-14 0)
(1 -1.65793e-15 0)
(1 -2.24545e-15 0)
(1 -6.89947e-15 0)
(1 -1.0449e-14 0)
(1 -1.47644e-15 0)
(1 5.50242e-15 0)
(1 3.53887e-15 0)
(1 7.23629e-15 0)
(1 -1.29379e-16 0)
(1 7.716e-15 0)
(1 -2.72224e-15 0)
(1 -1.71351e-16 0)
(1 -6.3187e-16 0)
(1 -4.4151e-15 0)
(1 -3.43941e-15 0)
(1 9.88213e-16 0)
(1 -4.36813e-15 0)
(1 7.03402e-15 0)
(1 1.36713e-14 0)
(1 1.75895e-14 0)
(1 4.25462e-15 0)
(1 4.36679e-16 0)
(1 1.53958e-15 0)
(1 3.70341e-15 0)
(1 5.24761e-16 0)
(1 -8.42183e-16 0)
(1 -4.02635e-15 0)
(1 -2.68126e-15 0)
(1 5.62454e-16 0)
(1 -3.75877e-15 0)
(1 -3.98031e-16 0)
(1 2.2154e-15 0)
(1 1.00124e-15 0)
(1 4.74496e-15 0)
(1 -2.83305e-16 0)
(1 -1.47522e-15 0)
(1 -1.40973e-15 0)
(1 -4.36665e-15 0)
(1 4.16008e-15 0)
(1 -1.27688e-15 0)
(1 8.16643e-16 0)
(1 1.69243e-15 0)
(1 -1.47395e-15 0)
(1 3.70733e-16 0)
(1 -2.35212e-15 0)
(1 1.24037e-15 0)
(1 -3.52235e-15 0)
(1 4.78196e-16 0)
(1 -1.46083e-15 0)
(1 3.31039e-15 0)
(1 7.28433e-15 0)
(1 2.52847e-15 0)
(1 -4.99758e-15 0)
(1 1.95402e-15 0)
(1 2.63308e-15 0)
(1 -1.40836e-15 0)
(1 2.56327e-15 0)
(1 5.92737e-15 0)
(1 -9.15411e-16 0)
(1 4.32507e-15 0)
(1 3.80817e-16 0)
(1 -1.57281e-15 0)
(1 -3.7643e-15 0)
(1 5.10993e-16 0)
(1 -3.62916e-15 0)
(1 -2.44075e-15 0)
(1 3.17258e-15 0)
(1 -2.36814e-15 0)
(1 5.04542e-17 0)
(1 -2.43749e-15 0)
(1 1.23178e-15 0)
(1 -1.09446e-15 0)
(1 1.25865e-15 0)
(1 5.35346e-15 0)
(1 6.30066e-15 0)
(1 3.8508e-16 0)
(1 -2.38654e-15 0)
(1 8.08207e-16 0)
(1 1.87197e-15 0)
(1 6.79594e-15 0)
(1 2.32506e-15 0)
(1 5.61321e-15 0)
(1 4.36012e-15 0)
(1 2.88985e-15 0)
(1 -3.04345e-15 0)
(1 -2.40752e-16 0)
(1 -1.14403e-15 0)
(1 2.37069e-15 0)
(1 4.23697e-15 0)
(1 -4.65306e-16 0)
(1 -5.59694e-15 0)
(1 -2.33024e-15 0)
(1 -1.78507e-15 0)
(1 1.63121e-15 0)
(1 3.67719e-15 0)
(1 -1.83494e-15 0)
(1 1.78779e-15 0)
(1 2.56031e-15 0)
(1 3.00227e-15 0)
(1 -2.47736e-15 0)
(1 -1.65741e-15 0)
(1 -9.59618e-15 0)
(1 -5.82416e-15 0)
(1 -1.11954e-14 0)
(1 4.33312e-16 0)
(1 5.14102e-15 0)
(1 1.52015e-15 0)
(1 1.13589e-14 0)
(1 3.86547e-15 0)
(1 9.47368e-15 0)
(1 -2.90604e-15 0)
(1 -1.04489e-15 0)
(1 -7.84709e-15 0)
(1 -5.76753e-15 0)
(1 -9.36025e-16 0)
(1 1.13934e-14 0)
(1 8.64042e-15 0)
(1 1.44714e-14 0)
(1 7.3626e-15 0)
(1 3.32996e-15 0)
(1 -9.13164e-16 0)
(1 7.60421e-17 0)
(1 3.00865e-15 0)
(1 1.4653e-15 0)
(1 1.28468e-15 0)
(1 -2.90093e-15 0)
(1 -9.23965e-15 0)
(1 -2.02986e-15 0)
(1 3.32382e-15 0)
(1 5.09016e-15 0)
(1 6.62276e-15 0)
(1 8.6061e-15 0)
(1 2.81088e-15 0)
(1 3.06513e-15 0)
(1 -1.86623e-15 0)
(1 -1.53549e-15 0)
(1 -1.02862e-15 0)
(1 4.2749e-15 0)
(1 7.26912e-15 0)
(1 3.74506e-15 0)
(1 1.956e-15 0)
(1 -2.55469e-15 0)
(1 -2.5452e-15 0)
(1 -5.07068e-15 0)
(1 -5.87711e-16 0)
(1 1.07248e-15 0)
(1 1.34199e-15 0)
(1 -1.72387e-15 0)
(1 -3.9251e-15 0)
(1 3.80318e-15 0)
(1 6.18406e-15 0)
(1 3.97813e-15 0)
(1 3.35726e-15 0)
(1 7.54658e-15 0)
(1 1.84847e-15 0)
(1 -7.09492e-17 0)
(1 5.39222e-15 0)
(1 5.95006e-15 0)
(1 -5.19833e-15 0)
(1 -1.79114e-15 0)
(1 7.16723e-16 0)
(1 2.75144e-15 0)
(1 1.03804e-14 0)
(1 7.31746e-15 0)
(1 1.09617e-14 0)
(1 3.51612e-15 0)
(1 -1.19705e-15 0)
(1 -2.14616e-15 0)
(1 -9.15083e-16 0)
(1 -8.00482e-15 0)
(1 -1.32451e-15 0)
(1 -1.88431e-16 0)
(1 -1.03488e-15 0)
(1 2.38778e-15 0)
(1 2.07257e-15 0)
(1 1.45496e-15 0)
(1 3.86443e-15 0)
(1 2.48656e-15 0)
(1 2.2982e-15 0)
(1 9.77773e-16 0)
(1 -1.91952e-15 0)
(1 -8.26511e-16 0)
(1 3.35054e-15 0)
(1 4.66619e-15 0)
(1 2.02189e-16 0)
(1 -8.95683e-16 0)
(1 1.81072e-15 0)
(1 5.40646e-15 0)
(1 3.87708e-15 0)
(1 -1.91676e-15 0)
(1 3.74935e-15 0)
(1 3.86961e-15 0)
(1 5.75203e-15 0)
(1 9.84084e-15 0)
(1 5.36867e-15 0)
(1 -1.43521e-15 0)
(1 -7.22731e-16 0)
(1 8.31429e-15 0)
(1 2.23538e-15 0)
(1 -3.68337e-15 0)
(1 -1.96154e-15 0)
(1 -4.26101e-15 0)
(1 -2.96488e-15 0)
(1 -4.15067e-16 0)
(1 1.68164e-15 0)
(1 -1.921e-15 0)
(1 5.0384e-15 0)
(1 1.58372e-15 0)
(1 7.16842e-15 0)
(1 2.14312e-16 0)
(1 3.71769e-15 0)
(1 -3.03491e-15 0)
(1 -3.46768e-15 0)
(1 -3.28119e-15 0)
(1 9.54087e-15 0)
(1 1.45159e-14 0)
(1 1.89518e-14 0)
(1 2.35998e-15 0)
(1 -5.16697e-16 0)
(1 -7.18094e-15 0)
(1 -3.40216e-15 0)
(1 -3.37703e-16 0)
(1 2.3935e-15 0)
(1 -1.45791e-15 0)
(1 2.79142e-15 0)
(1 -3.74834e-17 0)
(1 3.48999e-15 0)
(1 -3.41597e-15 0)
(1 -3.81272e-15 0)
(1 2.82942e-15 0)
(1 4.66592e-15 0)
(1 4.71946e-15 0)
(1 2.86028e-15 0)
(1 7.84875e-15 0)
(1 3.30008e-15 0)
(1 1.07974e-14 0)
(1 -1.67456e-15 0)
(1 9.73985e-15 0)
(1 3.19696e-15 0)
(1 6.83874e-15 0)
(1 4.13549e-16 0)
(1 -7.49101e-15 0)
(1 -8.23195e-15 0)
(1 -1.26415e-15 0)
(1 4.34875e-15 0)
(1 -2.52608e-15 0)
(1 -7.09421e-15 0)
(1 -3.11184e-15 0)
(1 -2.95601e-15 0)
(1 1.70274e-15 0)
(1 4.22073e-15 0)
(1 7.35684e-16 0)
(1 3.55525e-15 0)
(1 1.74929e-15 0)
(1 4.28072e-15 0)
(1 8.6536e-15 0)
(1 7.76503e-15 0)
(1 1.51723e-15 0)
(1 4.02792e-15 0)
(1 -3.28806e-15 0)
(1 -4.51803e-15 0)
(1 -7.92258e-16 0)
(1 2.76419e-15 0)
(1 2.68183e-15 0)
(1 4.03394e-15 0)
(1 1.99683e-15 0)
(1 -6.40622e-15 0)
(1 -3.563e-15 0)
(1 -2.34169e-15 0)
(1 1.48645e-15 0)
(1 1.08093e-14 0)
(1 9.03383e-15 0)
(1 9.18095e-15 0)
(1 2.72056e-15 0)
(1 2.17222e-15 0)
(1 1.66517e-15 0)
(1 1.32451e-15 0)
(1 2.28394e-15 0)
(1 -6.69856e-16 0)
(1 5.47409e-15 0)
(1 4.69845e-15 0)
(1 5.88987e-15 0)
(1 4.74094e-15 0)
(1 6.75204e-15 0)
(1 3.23449e-15 0)
(1 1.7945e-15 0)
(1 8.35535e-15 0)
(1 6.33046e-15 0)
(1 3.25559e-15 0)
(1 -1.26377e-16 0)
(1 9.88227e-15 0)
(1 1.02656e-14 0)
(1 7.83569e-15 0)
(1 8.03897e-15 0)
(1 7.25873e-15 0)
(1 9.26466e-16 0)
(1 6.21139e-16 0)
(1 -2.42294e-15 0)
(1 3.72203e-17 0)
(1 6.09538e-15 0)
(1 -5.69584e-15 0)
(1 -3.29487e-16 0)
(1 -5.02931e-15 0)
(1 -3.89325e-17 0)
(1 3.47111e-15 0)
(1 -5.67948e-15 0)
(1 5.28275e-15 0)
(1 -4.18528e-15 0)
(1 1.10935e-14 0)
(1 -2.1395e-15 0)
(1 5.60959e-15 0)
(1 -2.22017e-15 0)
(1 5.28335e-15 0)
(1 2.65388e-15 0)
(1 1.5767e-14 0)
(1 -1.23295e-15 0)
(1 2.42654e-15 0)
(1 -5.02697e-15 0)
(1 -5.51387e-15 0)
(1 -8.64392e-15 0)
(1 2.32613e-15 0)
(1 5.06074e-16 0)
(1 7.31114e-15 0)
(1 7.5529e-15 0)
(1 3.87858e-15 0)
(1 -1.99814e-15 0)
(1 8.84892e-16 0)
(1 -3.38308e-15 0)
(1 -4.23657e-15 0)
(1 -8.43364e-15 0)
(1 1.15299e-15 0)
(1 2.79107e-16 0)
(1 1.09197e-15 0)
(1 1.0452e-14 0)
(1 1.46352e-14 0)
(1 5.76292e-15 0)
(1 -2.36404e-15 0)
(1 -2.30743e-15 0)
(1 -1.36076e-15 0)
(1 5.94095e-15 0)
(1 2.93522e-15 0)
(1 3.1796e-15 0)
(1 3.33394e-16 0)
(1 2.26192e-16 0)
(1 2.38393e-15 0)
(1 1.28338e-16 0)
(1 -5.42991e-15 0)
(1 1.04581e-15 0)
(1 4.10001e-15 0)
(1 5.67271e-15 0)
(1 1.91001e-15 0)
(1 -1.50211e-15 0)
(1 -1.04131e-15 0)
(1 2.30269e-15 0)
(1 2.88641e-15 0)
(1 1.61184e-14 0)
(1 5.84577e-15 0)
(1 4.84938e-15 0)
(1 5.19294e-15 0)
(1 -2.25077e-15 0)
(1 -3.66637e-15 0)
(1 3.21062e-15 0)
(1 -9.00523e-16 0)
(1 6.97012e-16 0)
(1 1.32343e-15 0)
(1 1.66636e-15 0)
(1 3.77378e-15 0)
(1 3.56488e-15 0)
(1 3.02408e-15 0)
(1 6.51961e-15 0)
(1 5.66349e-15 0)
(1 6.75214e-15 0)
(1 9.41835e-15 0)
(1 2.00951e-15 0)
(1 9.25488e-16 0)
(1 1.63572e-15 0)
(1 -2.26859e-15 0)
(1 -1.02319e-15 0)
(1 -8.44387e-16 0)
(1 5.40331e-15 0)
(1 3.42264e-15 0)
(1 -1.45933e-15 0)
(1 3.07367e-15 0)
(1 6.05222e-15 0)
(1 1.63812e-15 0)
(1 6.34084e-15 0)
(1 4.48404e-15 0)
(1 5.10481e-15 0)
(1 4.00784e-15 0)
(1 6.7583e-15 0)
(1 6.35046e-15 0)
(1 8.71152e-15 0)
(1 8.91334e-15 0)
(1 7.60611e-15 0)
(1 1.45295e-14 0)
(1 -2.28335e-15 0)
(1 9.96396e-16 0)
(1 -4.94602e-15 0)
(1 -6.75724e-15 0)
(1 -5.9156e-15 0)
(1 -4.69876e-15 0)
(1 -7.75174e-16 0)
(1 5.8534e-15 0)
(1 -1.6565e-15 0)
(1 -1.59738e-15 0)
(1 3.69012e-15 0)
(1 1.19701e-14 0)
(1 3.4243e-15 0)
(1 6.1928e-15 0)
(1 -1.55255e-15 0)
(1 -2.06407e-15 0)
(1 -1.0888e-15 0)
(1 1.06242e-14 0)
(1 1.56034e-15 0)
(1 -1.35556e-16 0)
(1 5.13981e-16 0)
(1 9.82011e-15 0)
(1 1.01519e-14 0)
(1 5.22426e-15 0)
(1 -1.54032e-15 0)
(1 4.26507e-15 0)
(1 -3.72196e-15 0)
(1 -1.79761e-15 0)
(1 -2.00383e-15 0)
(1 -4.15831e-15 0)
(1 -5.66064e-15 0)
(1 -6.34935e-15 0)
(1 -9.72351e-15 0)
(1 -1.71595e-15 0)
(1 1.40456e-15 0)
(1 5.43379e-15 0)
(1 5.94611e-15 0)
(1 6.04714e-15 0)
(1 2.90693e-15 0)
(1 1.85619e-15 0)
(1 -6.6514e-15 0)
(1 3.0913e-15 0)
(1 -2.94095e-15 0)
(1 5.02095e-15 0)
(1 1.40546e-14 0)
(1 1.42527e-14 0)
(1 9.00234e-15 0)
(1 5.56847e-16 0)
(1 -7.44618e-15 0)
(1 -4.82484e-15 0)
(1 5.4134e-15 0)
(1 5.04606e-15 0)
(1 1.06013e-15 0)
(1 2.75115e-15 0)
(1 7.19841e-15 0)
(1 1.96161e-17 0)
(1 1.40632e-15 0)
(1 5.8684e-16 0)
(1 7.67292e-15 0)
(1 4.70384e-15 0)
(1 4.12792e-15 0)
(1 -8.30737e-16 0)
(1 -2.40116e-17 0)
(1 -5.28119e-15 0)
(1 -2.01663e-15 0)
(1 -5.13135e-16 0)
(1 1.00895e-14 0)
(1 1.41536e-14 0)
(1 1.11609e-14 0)
(1 1.54953e-14 0)
(1 1.10888e-14 0)
(1 1.01811e-14 0)
(1 8.05599e-15 0)
(1 3.20354e-15 0)
(1 9.86791e-16 0)
(1 2.11393e-16 0)
(1 6.85664e-15 0)
(1 4.5402e-15 0)
(1 3.99223e-15 0)
(1 3.74264e-15 0)
(1 5.46682e-15 0)
(1 4.52755e-15 0)
(1 -3.49244e-16 0)
(1 -5.82631e-17 0)
(1 -1.25908e-15 0)
(1 -2.97773e-15 0)
(1 -3.66751e-15 0)
(1 -1.34182e-16 0)
(1 7.05545e-16 0)
(1 3.66809e-15 0)
(1 3.85783e-15 0)
(1 4.83395e-16 0)
(1 9.50037e-15 0)
(1 9.3661e-15 0)
(1 1.67145e-14 0)
(1 1.6763e-14 0)
(1 1.67451e-14 0)
(1 1.68292e-14 0)
(1 2.01665e-14 0)
(1 2.21009e-14 0)
(1 4.29308e-16 0)
(1 3.57531e-15 0)
(1 2.47963e-15 0)
(1 1.26461e-15 0)
(1 -5.38768e-15 0)
(1 -9.21404e-16 0)
(1 -4.83346e-15 0)
(1 1.34635e-15 0)
(1 5.3844e-15 0)
(1 -6.69435e-15 0)
(1 -4.41215e-15 0)
(1 -4.43642e-16 0)
(1 4.91195e-15 0)
(1 -7.90898e-16 0)
(1 8.13836e-15 0)
(1 1.19035e-16 0)
(1 5.36003e-15 0)
(1 6.7214e-15 0)
(1 8.57264e-15 0)
(1 -4.51048e-15 0)
(1 -9.44962e-15 0)
(1 -6.8816e-15 0)
(1 5.35376e-15 0)
(1 4.60037e-15 0)
(1 4.93999e-15 0)
(1 4.15376e-15 0)
(1 5.69808e-15 0)
(1 -1.52597e-15 0)
(1 -3.63944e-15 0)
(1 -1.32317e-15 0)
(1 -2.1336e-16 0)
(1 2.95521e-16 0)
(1 2.46359e-16 0)
(1 -3.01522e-15 0)
(1 -4.03069e-15 0)
(1 -4.85975e-15 0)
(1 7.02941e-15 0)
(1 1.01403e-14 0)
(1 -2.07481e-15 0)
(1 -4.57517e-15 0)
(1 -8.31508e-16 0)
(1 6.18084e-15 0)
(1 6.9615e-15 0)
(1 1.01844e-14 0)
(1 5.81884e-15 0)
(1 1.62775e-15 0)
(1 -3.03599e-16 0)
(1 -3.0958e-15 0)
(1 1.48977e-15 0)
(1 4.37626e-15 0)
(1 3.10481e-15 0)
(1 1.63796e-15 0)
(1 2.70667e-15 0)
(1 2.07914e-15 0)
(1 3.02023e-15 0)
(1 7.25657e-15 0)
(1 6.8162e-15 0)
(1 3.95504e-15 0)
(1 -1.10716e-15 0)
(1 8.8086e-15 0)
(1 3.79072e-16 0)
(1 3.2643e-15 0)
(1 9.11019e-15 0)
(1 2.15333e-15 0)
(1 2.57852e-15 0)
(1 5.67523e-15 0)
(1 7.80862e-15 0)
(1 1.23037e-14 0)
(1 1.49401e-14 0)
(1 9.40851e-15 0)
(1 5.0371e-15 0)
(1 4.94563e-15 0)
(1 5.61436e-15 0)
(1 -8.50262e-16 0)
(1 2.96816e-15 0)
(1 5.03594e-15 0)
(1 9.315e-15 0)
(1 2.60373e-15 0)
(1 5.90476e-15 0)
(1 4.84548e-15 0)
(1 4.09997e-15 0)
(1 -1.20473e-15 0)
(1 -1.15262e-16 0)
(1 -1.75364e-15 0)
(1 -2.06397e-15 0)
(1 2.98244e-15 0)
(1 1.75996e-15 0)
(1 1.42987e-15 0)
(1 3.30001e-15 0)
(1 6.44932e-15 0)
(1 1.13057e-14 0)
(1 -8.20609e-16 0)
(1 1.17331e-14 0)
(1 8.84685e-15 0)
(1 1.3465e-14 0)
(1 1.26256e-14 0)
(1 1.24613e-14 0)
(1 1.87138e-14 0)
(1 3.33331e-14 0)
(1 2.4374e-14 0)
(1 2.59155e-15 0)
(1 -1.44821e-15 0)
(1 1.39035e-15 0)
(1 -3.3131e-15 0)
(1 -4.25913e-15 0)
(1 -1.51678e-15 0)
(1 -7.21931e-15 0)
(1 -5.03912e-15 0)
(1 6.69127e-15 0)
(1 -4.72794e-15 0)
(1 -6.4262e-15 0)
(1 -1.25073e-14 0)
(1 -5.11256e-16 0)
(1 2.46545e-15 0)
(1 1.10047e-14 0)
(1 2.13897e-14 0)
(1 1.61806e-14 0)
(1 4.87225e-15 0)
(1 9.80381e-15 0)
(1 -2.65828e-15 0)
(1 -2.72984e-15 0)
(1 -1.15379e-14 0)
(1 -5.47875e-15 0)
(1 -1.13396e-14 0)
(1 -7.73635e-15 0)
(1 -8.12365e-15 0)
(1 4.01668e-15 0)
(1 1.16482e-15 0)
(1 6.00046e-15 0)
(1 3.6792e-15 0)
(1 -1.64471e-15 0)
(1 -1.14805e-14 0)
(1 1.57102e-15 0)
(1 1.77728e-15 0)
(1 -2.63018e-15 0)
(1 -1.65055e-15 0)
(1 8.754e-15 0)
(1 6.0954e-15 0)
(1 -6.4647e-15 0)
(1 -3.34849e-15 0)
(1 -5.11035e-16 0)
(1 4.39744e-15 0)
(1 5.3586e-15 0)
(1 1.15462e-14 0)
(1 6.88695e-15 0)
(1 5.84664e-15 0)
(1 7.68144e-15 0)
(1 4.84215e-15 0)
(1 4.01834e-15 0)
(1 -1.87925e-15 0)
(1 1.39794e-15 0)
(1 -1.75757e-15 0)
(1 2.83422e-15 0)
(1 5.87646e-15 0)
(1 5.1478e-15 0)
(1 3.81848e-15 0)
(1 4.6531e-15 0)
(1 1.38315e-15 0)
(1 5.05918e-15 0)
(1 3.24643e-15 0)
(1 2.38822e-15 0)
(1 3.23195e-15 0)
(1 5.78799e-15 0)
(1 1.27115e-15 0)
(1 5.90432e-15 0)
(1 1.37614e-14 0)
(1 5.73761e-15 0)
(1 4.59784e-15 0)
(1 9.62628e-15 0)
(1 1.12707e-14 0)
(1 1.26467e-14 0)
(1 9.52623e-15 0)
(1 3.66828e-15 0)
(1 -3.04034e-15 0)
(1 1.5144e-15 0)
(1 -2.36952e-16 0)
(1 6.5867e-15 0)
(1 1.27279e-14 0)
(1 1.5864e-14 0)
(1 5.06579e-15 0)
(1 2.30195e-15 0)
(1 1.66604e-15 0)
(1 9.38436e-16 0)
(1 1.85131e-15 0)
(1 -2.88462e-15 0)
(1 -6.90724e-15 0)
(1 -2.92554e-16 0)
(1 4.68266e-15 0)
(1 8.47924e-16 0)
(1 6.771e-15 0)
(1 8.00867e-15 0)
(1 8.07566e-15 0)
(1 7.2681e-15 0)
(1 1.14748e-14 0)
(1 8.78483e-15 0)
(1 2.26713e-15 0)
(1 9.93421e-15 0)
(1 1.20027e-14 0)
(1 2.28328e-14 0)
(1 1.69884e-14 0)
(1 3.08497e-15 0)
(1 -3.37164e-15 0)
(1 2.23383e-15 0)
(1 -2.80878e-15 0)
(1 -4.20704e-16 0)
(1 -1.51563e-15 0)
(1 -5.1729e-15 0)
(1 -5.07755e-15 0)
(1 -6.05594e-15 0)
(1 -1.34096e-15 0)
(1 5.55432e-15 0)
(1 5.44038e-15 0)
(1 -1.98508e-16 0)
(1 -9.47696e-16 0)
(1 -1.9524e-15 0)
(1 9.45665e-15 0)
(1 8.85599e-15 0)
(1 3.9685e-15 0)
(1 1.21312e-15 0)
(1 -1.12995e-14 0)
(1 3.29906e-15 0)
(1 1.338e-15 0)
(1 6.15696e-15 0)
(1 4.86547e-15 0)
(1 4.61422e-15 0)
(1 -3.93765e-15 0)
(1 1.24529e-15 0)
(1 4.27852e-15 0)
(1 2.91011e-15 0)
(1 2.38456e-16 0)
(1 -7.22504e-15 0)
(1 -6.56607e-15 0)
(1 -4.62173e-15 0)
(1 -1.51018e-15 0)
(1 -1.38464e-15 0)
(1 -1.88126e-15 0)
(1 -1.5114e-15 0)
(1 2.75375e-15 0)
(1 -4.80023e-15 0)
(1 3.97019e-15 0)
(1 6.93806e-15 0)
(1 5.94205e-15 0)
(1 5.20231e-15 0)
(1 3.84586e-15 0)
(1 -7.11673e-16 0)
(1 1.16527e-14 0)
(1 1.13102e-14 0)
(1 8.66834e-15 0)
(1 2.23086e-15 0)
(1 -6.11956e-15 0)
(1 -3.22179e-15 0)
(1 5.9956e-16 0)
(1 4.72677e-15 0)
(1 1.06308e-14 0)
(1 1.39886e-14 0)
(1 -8.88028e-16 0)
(1 -8.48625e-15 0)
(1 2.1593e-15 0)
(1 7.44099e-15 0)
(1 6.60843e-15 0)
(1 2.32341e-15 0)
(1 1.85939e-15 0)
(1 1.95404e-16 0)
(1 3.03733e-15 0)
(1 6.32401e-15 0)
(1 9.64234e-15 0)
(1 6.89485e-15 0)
(1 5.55265e-15 0)
(1 4.91512e-15 0)
(1 1.01405e-14 0)
(1 1.38077e-14 0)
(1 1.55044e-14 0)
(1 2.85392e-15 0)
(1 1.24485e-15 0)
(1 -5.03813e-15 0)
(1 -5.23617e-16 0)
(1 3.41214e-15 0)
(1 7.08093e-15 0)
(1 4.54308e-15 0)
(1 6.56113e-15 0)
(1 4.95566e-15 0)
(1 1.43555e-14 0)
(1 4.70904e-15 0)
(1 5.00067e-15 0)
(1 8.54983e-16 0)
(1 -6.51534e-15 0)
(1 2.45609e-15 0)
(1 -7.6284e-16 0)
(1 -4.30623e-15 0)
(1 8.5719e-15 0)
(1 -3.247e-16 0)
(1 7.71691e-15 0)
(1 1.02145e-14 0)
(1 1.32025e-14 0)
(1 1.4468e-14 0)
(1 7.01173e-15 0)
(1 1.62457e-14 0)
(1 1.27624e-14 0)
(1 1.28328e-14 0)
(1 1.20976e-14 0)
(1 4.11278e-15 0)
(1 1.81128e-16 0)
(1 -5.88288e-15 0)
(1 2.43861e-16 0)
(1 -2.74927e-15 0)
(1 -2.08131e-16 0)
(1 -2.94546e-15 0)
(1 -2.59449e-15 0)
(1 -6.17971e-15 0)
(1 6.87318e-15 0)
(1 5.8075e-15 0)
(1 8.35015e-15 0)
(1 -1.32085e-15 0)
(1 6.20209e-15 0)
(1 -3.8319e-15 0)
(1 5.41876e-17 0)
(1 -7.63894e-16 0)
(1 1.428e-14 0)
(1 9.16276e-15 0)
(1 6.32092e-15 0)
(1 -4.44003e-15 0)
(1 -1.53064e-14 0)
(1 -1.69388e-14 0)
(1 -6.16337e-15 0)
(1 -7.11997e-15 0)
(1 6.77328e-15 0)
(1 -7.55237e-16 0)
(1 6.81236e-15 0)
(1 3.43787e-15 0)
(1 -1.64358e-15 0)
(1 -2.60894e-15 0)
(1 -4.732e-16 0)
(1 -2.75346e-15 0)
(1 -7.72503e-15 0)
(1 -6.72344e-15 0)
(1 4.18581e-16 0)
(1 -7.26683e-15 0)
(1 -8.24971e-16 0)
(1 5.95286e-15 0)
(1 7.5171e-15 0)
(1 4.10668e-15 0)
(1 1.76348e-15 0)
(1 2.70964e-15 0)
(1 4.4223e-15 0)
(1 6.63596e-15 0)
(1 8.1344e-15 0)
(1 1.12474e-14 0)
(1 1.71429e-14 0)
(1 8.54233e-15 0)
(1 2.54044e-15 0)
(1 -8.76652e-15 0)
(1 -1.13062e-17 0)
(1 -8.14421e-16 0)
(1 2.48911e-15 0)
(1 2.50193e-15 0)
(1 1.19064e-15 0)
(1 -4.89257e-15 0)
(1 1.86164e-15 0)
(1 -4.68457e-15 0)
(1 3.302e-16 0)
(1 1.27121e-15 0)
(1 4.85704e-15 0)
(1 9.02159e-15 0)
(1 1.2438e-14 0)
(1 9.57687e-15 0)
(1 9.04657e-15 0)
(1 6.14704e-15 0)
(1 5.44921e-15 0)
(1 2.48012e-15 0)
(1 -2.8224e-15 0)
(1 -8.34674e-16 0)
(1 2.7439e-15 0)
(1 1.10208e-14 0)
(1 1.51481e-14 0)
(1 3.97628e-15 0)
(1 2.35701e-15 0)
(1 -3.40706e-15 0)
(1 -2.21381e-15 0)
(1 -1.69805e-15 0)
(1 5.95674e-15 0)
(1 3.29436e-15 0)
(1 8.39936e-15 0)
(1 6.04066e-15 0)
(1 7.13123e-15 0)
(1 4.2599e-15 0)
(1 1.34087e-14 0)
(1 2.43181e-16 0)
(1 -3.20034e-15 0)
(1 5.3454e-16 0)
(1 1.55979e-15 0)
(1 6.85349e-15 0)
(1 4.41271e-15 0)
(1 1.8043e-15 0)
(1 4.46077e-15 0)
(1 5.99182e-15 0)
(1 8.02068e-15 0)
(1 8.02785e-15 0)
(1 1.02188e-14 0)
(1 7.3784e-15 0)
(1 1.02053e-14 0)
(1 -4.8088e-17 0)
(1 5.61069e-15 0)
(1 -4.05008e-15 0)
(1 -4.47928e-15 0)
(1 -3.24981e-15 0)
(1 -5.22545e-15 0)
(1 -3.11037e-15 0)
(1 2.58523e-15 0)
(1 8.63636e-15 0)
(1 1.10741e-14 0)
(1 3.07725e-15 0)
(1 -4.54456e-16 0)
(1 -3.58986e-15 0)
(1 -1.28858e-15 0)
(1 -5.94388e-16 0)
(1 4.68785e-17 0)
(1 -2.35842e-15 0)
(1 1.77174e-15 0)
(1 1.12738e-15 0)
(1 7.44973e-15 0)
(1 -7.03707e-15 0)
(1 -1.02607e-15 0)
(1 -7.57108e-15 0)
(1 1.0451e-15 0)
(1 1.54631e-15 0)
(1 6.24876e-15 0)
(1 -2.83346e-15 0)
(1 -4.71518e-15 0)
(1 -3.78872e-15 0)
(1 -6.40309e-15 0)
(1 2.67793e-15 0)
(1 -2.41304e-15 0)
(1 -8.96289e-15 0)
(1 -1.67312e-14 0)
(1 9.5523e-16 0)
(1 1.35569e-14 0)
(1 5.78906e-15 0)
(1 -1.02061e-16 0)
(1 4.99736e-15 0)
(1 -2.92503e-16 0)
(1 3.62098e-15 0)
(1 3.6153e-15 0)
(1 1.18156e-15 0)
(1 -9.40219e-17 0)
(1 6.77577e-15 0)
(1 1.06558e-14 0)
(1 8.62762e-15 0)
(1 5.58756e-15 0)
(1 4.34796e-15 0)
(1 -3.44649e-16 0)
(1 -1.81818e-15 0)
(1 -2.19648e-15 0)
(1 3.82139e-16 0)
(1 -5.43079e-16 0)
(1 -4.10832e-15 0)
(1 8.29788e-15 0)
(1 1.18324e-14 0)
(1 5.72438e-15 0)
(1 -1.92465e-16 0)
(1 5.21644e-15 0)
(1 2.96292e-15 0)
(1 3.78102e-15 0)
(1 2.82176e-15 0)
(1 4.75105e-15 0)
(1 5.17287e-15 0)
(1 1.4949e-14 0)
(1 1.0147e-14 0)
(1 1.09244e-14 0)
(1 4.39798e-15 0)
(1 -8.19973e-16 0)
(1 -1.07738e-15 0)
(1 1.95642e-15 0)
(1 8.4772e-15 0)
(1 1.35438e-14 0)
(1 9.58114e-15 0)
(1 5.55213e-15 0)
(1 2.14662e-15 0)
(1 6.36163e-15 0)
(1 1.10205e-14 0)
(1 1.27723e-14 0)
(1 1.4025e-15 0)
(1 1.56457e-15 0)
(1 2.68973e-15 0)
(1 4.87893e-15 0)
(1 4.13417e-15 0)
(1 8.60795e-15 0)
(1 1.49308e-15 0)
(1 2.38998e-15 0)
(1 2.31468e-15 0)
(1 -2.18316e-16 0)
(1 1.0278e-14 0)
(1 1.11596e-14 0)
(1 -1.37604e-15 0)
(1 3.40154e-16 0)
(1 5.31524e-15 0)
(1 9.54926e-15 0)
(1 7.32832e-15 0)
(1 8.9961e-15 0)
(1 7.44242e-15 0)
(1 1.01497e-14 0)
(1 1.02719e-15 0)
(1 -8.48179e-16 0)
(1 8.28476e-16 0)
(1 1.21027e-16 0)
(1 3.06114e-15 0)
(1 -1.26322e-14 0)
(1 -2.92681e-15 0)
(1 -1.30483e-14 0)
(1 3.94446e-15 0)
(1 7.51874e-15 0)
(1 5.66916e-15 0)
(1 2.85497e-15 0)
(1 7.05608e-15 0)
(1 -4.31871e-15 0)
(1 5.51748e-15 0)
(1 -3.11009e-15 0)
(1 -7.55122e-16 0)
(1 -1.16111e-14 0)
(1 -1.27672e-14 0)
(1 -7.28889e-15 0)
(1 -8.743e-15 0)
(1 6.66708e-15 0)
(1 8.75329e-15 0)
(1 1.82441e-14 0)
(1 1.98207e-14 0)
(1 4.37472e-15 0)
(1 1.29565e-15 0)
(1 -3.16501e-15 0)
(1 -1.02776e-14 0)
(1 -8.71144e-15 0)
(1 -1.88834e-15 0)
(1 5.5971e-16 0)
(1 -8.71202e-15 0)
(1 -1.18251e-14 0)
(1 2.63728e-15 0)
(1 -3.46165e-16 0)
(1 1.25473e-14 0)
(1 5.18493e-15 0)
(1 -7.95335e-16 0)
(1 3.09021e-16 0)
(1 3.16035e-15 0)
(1 7.99625e-15 0)
(1 2.4236e-15 0)
(1 -1.06842e-15 0)
(1 -1.54296e-15 0)
(1 5.4453e-15 0)
(1 4.78056e-15 0)
(1 -7.62673e-16 0)
(1 1.09364e-15 0)
(1 2.62875e-15 0)
(1 7.59086e-15 0)
(1 3.15644e-15 0)
(1 7.49459e-16 0)
(1 4.8355e-15 0)
(1 5.0013e-15 0)
(1 2.75888e-15 0)
(1 9.04699e-15 0)
(1 5.98641e-15 0)
(1 6.11094e-15 0)
(1 2.59629e-16 0)
(1 -6.12728e-16 0)
(1 1.04508e-15 0)
(1 1.56932e-15 0)
(1 3.95738e-15 0)
(1 5.29618e-15 0)
(1 7.2693e-15 0)
(1 1.24925e-14 0)
(1 1.20728e-14 0)
(1 1.26034e-14 0)
(1 8.12197e-15 0)
(1 6.42887e-15 0)
(1 1.45639e-14 0)
(1 5.33335e-15 0)
(1 2.74553e-15 0)
(1 7.05843e-15 0)
(1 7.27052e-15 0)
(1 9.92356e-15 0)
(1 6.59864e-15 0)
(1 7.90007e-15 0)
(1 4.48465e-15 0)
(1 6.10348e-15 0)
(1 6.4127e-16 0)
(1 4.87321e-15 0)
(1 -6.05553e-16 0)
(1 3.38451e-15 0)
(1 1.94742e-15 0)
(1 2.95154e-15 0)
(1 -7.05046e-15 0)
(1 1.44939e-15 0)
(1 3.31153e-15 0)
(1 3.63294e-15 0)
(1 8.72399e-15 0)
(1 9.05563e-15 0)
(1 7.28945e-15 0)
(1 8.47541e-15 0)
(1 7.91443e-15 0)
(1 3.39494e-15 0)
(1 5.72868e-15 0)
(1 7.86215e-15 0)
(1 1.24181e-14 0)
(1 -1.4717e-15 0)
(1 -7.60261e-15 0)
(1 -3.12044e-15 0)
(1 2.87398e-16 0)
(1 5.2612e-15 0)
(1 8.20097e-15 0)
(1 1.43146e-14 0)
(1 2.29008e-15 0)
(1 -7.3073e-15 0)
(1 -4.19054e-15 0)
(1 -1.64316e-15 0)
(1 -7.17237e-15 0)
(1 3.42814e-16 0)
(1 -5.80121e-15 0)
(1 6.10808e-15 0)
(1 -5.08214e-15 0)
(1 3.64783e-15 0)
(1 -1.79895e-15 0)
(1 -4.50658e-15 0)
(1 -3.67016e-15 0)
(1 -2.25479e-15 0)
(1 8.19603e-16 0)
(1 -1.31026e-15 0)
(1 -4.33597e-17 0)
(1 -3.28453e-15 0)
(1 -2.17695e-15 0)
(1 -7.97217e-15 0)
(1 1.10991e-15 0)
(1 -4.47078e-15 0)
(1 -4.01121e-15 0)
(1 -2.30233e-15 0)
(1 -8.51102e-15 0)
(1 -2.16126e-15 0)
(1 6.37187e-15 0)
(1 7.61353e-15 0)
(1 5.46361e-16 0)
(1 1.82526e-15 0)
(1 2.74816e-15 0)
(1 5.28731e-15 0)
(1 5.72256e-15 0)
(1 -5.2925e-15 0)
(1 -1.25146e-15 0)
(1 3.82022e-15 0)
(1 8.67867e-16 0)
(1 3.22431e-15 0)
(1 -5.1042e-15 0)
(1 1.63042e-15 0)
(1 5.38421e-15 0)
(1 9.30612e-15 0)
(1 5.2596e-15 0)
(1 8.26529e-15 0)
(1 6.59516e-15 0)
(1 2.54367e-15 0)
(1 -1.59678e-15 0)
(1 -1.08102e-17 0)
(1 -4.0741e-15 0)
(1 7.26405e-15 0)
(1 5.58167e-15 0)
(1 9.10746e-15 0)
(1 -5.77264e-15 0)
(1 -4.27137e-16 0)
(1 4.60577e-15 0)
(1 -9.02923e-16 0)
(1 6.19212e-15 0)
(1 4.34935e-15 0)
(1 -4.79146e-15 0)
(1 1.81031e-15 0)
(1 4.5272e-15 0)
(1 8.13351e-15 0)
(1 7.07948e-15 0)
(1 1.20998e-14 0)
(1 1.19077e-14 0)
(1 6.35879e-15 0)
(1 6.44791e-15 0)
(1 8.16548e-15 0)
(1 -6.42644e-16 0)
(1 9.30307e-16 0)
(1 7.97079e-15 0)
(1 1.18367e-14 0)
(1 5.94776e-15 0)
(1 8.0212e-15 0)
(1 1.52289e-15 0)
(1 3.78872e-15 0)
(1 3.81952e-15 0)
(1 6.37668e-15 0)
(1 2.10156e-15 0)
(1 -4.06714e-15 0)
(1 -6.98991e-15 0)
(1 2.68135e-15 0)
(1 4.37706e-15 0)
(1 3.15304e-15 0)
(1 6.29769e-15 0)
(1 1.38896e-14 0)
(1 6.10363e-15 0)
(1 3.36031e-15 0)
(1 1.79045e-15 0)