/*--------------------------------*- C++ -*----------------------------------*\
| =========                 |                                                 |
| \\      /  F ield         | OpenFOAM: The Open Source CFD Toolbox           |
|  \\    /   O peration     | Version:  v2012                                 |
|   \\  /    A nd           | Website:  www.openfoam.com                      |
|    \\/     M anipulation  |                                                 |
\*---------------------------------------------------------------------------*/
FoamFile
{
    version     2.0;
    format      ascii;
    class       volScalarField;
    location    "0";
    object      pRec;
}
// * * * * * * * * * * * * * * * * * * * * * * * * * * * * * * * * * * * * * //

dimensions      [0 2 -2 0 0 0 0];


internalField   nonuniform List<scalar> 
4000
(
-6.93724e-13
-6.87913e-13
-6.89155e-13
-6.92069e-13
-6.90091e-13
-6.90737e-13
-6.88881e-13
-6.83619e-13
-6.73572e-13
-6.69378e-13
-6.70682e-13
-6.65122e-13
-6.54815e-13
-6.40899e-13
-6.26593e-13
-6.20183e-13
-6.15976e-13
-6.13497e-13
-6.05893e-13
-5.92434e-13
-5.81175e-13
-5.73775e-13
-5.68493e-13
-5.60321e-13
-5.49497e-13
-5.38394e-13
-5.36317e-13
-5.30882e-13
-5.24265e-13
-5.12711e-13
-4.96687e-13
-4.89543e-13
-4.87664e-13
-4.85471e-13
-4.80343e-13
-4.77011e-13
-4.66887e-13
-4.48243e-13
-4.30451e-13
-4.26627e-13
-4.26925e-13
-4.25295e-13
-4.25534e-13
-4.19479e-13
-4.08765e-13
-3.99754e-13
-3.90853e-13
-3.81485e-13
-3.72619e-13
-3.64981e-13
-3.56532e-13
-3.48797e-13
-3.41706e-13
-3.33054e-13
-3.25078e-13
-3.12537e-13
-3.05605e-13
-3.03272e-13
-3.01345e-13
-2.98819e-13
-2.9077e-13
-2.83718e-13
-2.73728e-13
-2.61977e-13
-2.54059e-13
-2.46939e-13
-2.42801e-13
-2.34583e-13
-2.23858e-13
-2.16681e-13
-2.09402e-13
-2.0219e-13
-1.8887e-13
-1.81647e-13
-1.80409e-13
-1.76508e-13
-1.72484e-13
-1.66116e-13
-1.56708e-13
-1.42971e-13
-1.30168e-13
-1.24448e-13
-1.15907e-13
-1.11276e-13
-1.06408e-13
-1.00648e-13
-9.16099e-14
-8.37634e-14
-8.04666e-14
-7.64908e-14
-7.06393e-14
-6.41306e-14
-5.75641e-14
-5.24003e-14
-4.32526e-14
-3.44522e-14
-2.66747e-14
-1.87619e-14
-1.02961e-14
-2.45339e-15
-6.90134e-13
-6.88739e-13
-6.91966e-13
-6.9201e-13
-6.9273e-13
-6.89324e-13
-6.86091e-13
-6.83676e-13
-6.78134e-13
-6.72672e-13
-6.66961e-13
-6.61811e-13
-6.52951e-13
-6.41336e-13
-6.29986e-13
-6.23497e-13
-6.18735e-13
-6.11993e-13
-6.03203e-13
-5.95749e-13
-5.84673e-13
-5.72298e-13
-5.64523e-13
-5.57162e-13
-5.47287e-13
-5.41114e-13
-5.3759e-13
-5.31588e-13
-5.2294e-13
-5.09138e-13
-4.99909e-13
-4.93058e-13
-4.86976e-13
-4.82053e-13
-4.77568e-13
-4.73081e-13
-4.65094e-13
-4.51872e-13
-4.37554e-13
-4.30765e-13
-4.26858e-13
-4.24794e-13
-4.22185e-13
-4.17639e-13
-4.10186e-13
-3.99913e-13
-3.89433e-13
-3.81341e-13
-3.72624e-13
-3.62533e-13
-3.55404e-13
-3.47859e-13
-3.41893e-13
-3.34364e-13
-3.26385e-13
-3.15313e-13
-3.05313e-13
-3.01417e-13
-2.99532e-13
-2.9718e-13
-2.93002e-13
-2.83859e-13
-2.74776e-13
-2.63927e-13
-2.5589e-13
-2.46913e-13
-2.40204e-13
-2.33553e-13
-2.26216e-13
-2.18263e-13
-2.09599e-13
-2.0216e-13
-1.93777e-13
-1.84983e-13
-1.80275e-13
-1.72854e-13
-1.71083e-13
-1.63803e-13
-1.53564e-13
-1.41394e-13
-1.3134e-13
-1.25868e-13
-1.19786e-13
-1.13579e-13
-1.04598e-13
-9.8437e-14
-8.95677e-14
-8.16611e-14
-7.8686e-14
-7.50577e-14
-7.21731e-14
-6.68029e-14
-6.13353e-14
-5.04154e-14
-4.17424e-14
-3.50459e-14
-2.61199e-14
-1.89061e-14
-1.19189e-14
-4.3238e-15
-6.89553e-13
-6.88617e-13
-6.90877e-13
-6.94227e-13
-6.95163e-13
-6.9066e-13
-6.85109e-13
-6.82507e-13
-6.76094e-13
-6.7244e-13
-6.67575e-13
-6.61025e-13
-6.52394e-13
-6.42719e-13
-6.32016e-13
-6.24391e-13
-6.17943e-13
-6.11031e-13
-6.03716e-13
-5.94495e-13
-5.83531e-13
-5.74207e-13
-5.65442e-13
-5.58027e-13
-5.49161e-13
-5.43608e-13
-5.38576e-13
-5.30191e-13
-5.2055e-13
-5.07301e-13
-5.00278e-13
-4.93245e-13
-4.86795e-13
-4.8386e-13
-4.79573e-13
-4.74263e-13
-4.63734e-13
-4.53323e-13
-4.4206e-13
-4.30864e-13
-4.25986e-13
-4.21418e-13
-4.2194e-13
-4.18221e-13
-4.11107e-13
-4.00106e-13
-3.8794e-13
-3.78502e-13
-3.73551e-13
-3.68602e-13
-3.57325e-13
-3.48291e-13
-3.3939e-13
-3.31081e-13
-3.24339e-13
-3.16262e-13
-3.05818e-13
-3.0388e-13
-3.04278e-13
-2.98802e-13
-2.90541e-13
-2.78823e-13
-2.70783e-13
-2.65164e-13
-2.58652e-13
-2.50602e-13
-2.4304e-13
-2.32669e-13
-2.24865e-13
-2.14963e-13
-2.06492e-13
-1.99395e-13
-1.90297e-13
-1.84526e-13
-1.79958e-13
-1.75098e-13
-1.7008e-13
-1.63771e-13
-1.53071e-13
-1.42473e-13
-1.36675e-13
-1.279e-13
-1.15642e-13
-1.09899e-13
-1.04347e-13
-1.00801e-13
-9.45288e-14
-8.53222e-14
-7.86815e-14
-7.29725e-14
-6.95045e-14
-6.63203e-14
-5.95584e-14
-5.13212e-14
-4.1098e-14
-3.24668e-14
-2.68094e-14
-1.99147e-14
-1.56342e-14
-4.97836e-15
-6.90636e-13
-6.91742e-13
-6.9255e-13
-6.88703e-13
-6.93395e-13
-6.87645e-13
-6.8517e-13
-6.8275e-13
-6.80456e-13
-6.7475e-13
-6.65733e-13
-6.56352e-13
-6.48592e-13
-6.43177e-13
-6.40872e-13
-6.30462e-13
-6.16035e-13
-6.07695e-13
-6.02529e-13
-5.93333e-13
-5.84012e-13
-5.76046e-13
-5.66138e-13
-5.52051e-13
-5.44661e-13
-5.41245e-13
-5.37597e-13
-5.32135e-13
-5.20771e-13
-5.1145e-13
-5.04515e-13
-4.96067e-13
-4.87518e-13
-4.81724e-13
-4.74911e-13
-4.73648e-13
-4.64169e-13
-4.52003e-13
-4.43217e-13
-4.3355e-13
-4.29361e-13
-4.2655e-13
-4.21683e-13
-4.15289e-13
-4.05915e-13
-3.96275e-13
-3.87857e-13
-3.82518e-13
-3.74525e-13
-3.62144e-13
-3.52917e-13
-3.47113e-13
-3.41463e-13
-3.3529e-13
-3.2378e-13
-3.17319e-13
-3.08164e-13
-3.03269e-13
-3.03182e-13
-2.97203e-13
-2.88849e-13
-2.80489e-13
-2.75013e-13
-2.67615e-13
-2.58206e-13
-2.49449e-13
-2.418e-13
-2.32743e-13
-2.25479e-13
-2.17492e-13
-2.10454e-13
-2.02833e-13
-1.93431e-13
-1.85944e-13
-1.79505e-13
-1.73661e-13
-1.70235e-13
-1.63123e-13
-1.53004e-13
-1.43079e-13
-1.35506e-13
-1.28592e-13
-1.17909e-13
-1.08379e-13
-1.03478e-13
-9.87786e-14
-9.22113e-14
-8.46304e-14
-7.72378e-14
-7.35202e-14
-7.16839e-14
-6.67982e-14
-6.13386e-14
-4.99707e-14
-4.09474e-14
-3.50177e-14
-2.84528e-14
-1.91855e-14
-1.24977e-14
-4.64363e-15
-6.91577e-13
-6.96055e-13
-6.92373e-13
-6.87937e-13
-6.84449e-13
-6.88055e-13
-6.87925e-13
-6.86016e-13
-6.79485e-13
-6.71701e-13
-6.63121e-13
-6.57989e-13
-6.48138e-13
-6.41324e-13
-6.39805e-13
-6.33465e-13
-6.22909e-13
-6.12325e-13
-5.99829e-13
-5.87818e-13
-5.82887e-13
-5.74995e-13
-5.60536e-13
-5.51261e-13
-5.4821e-13
-5.44213e-13
-5.39245e-13
-5.30873e-13
-5.23106e-13
-5.13949e-13
-5.05088e-13
-4.97174e-13
-4.88149e-13
-4.82072e-13
-4.7609e-13
-4.72872e-13
-4.62931e-13
-4.51934e-13
-4.40825e-13
-4.3342e-13
-4.29535e-13
-4.28591e-13
-4.21916e-13
-4.13781e-13
-4.03681e-13
-3.93561e-13
-3.86465e-13
-3.80981e-13
-3.73543e-13
-3.66015e-13
-3.567e-13
-3.4981e-13
-3.42082e-13
-3.34577e-13
-3.24053e-13
-3.15816e-13
-3.0951e-13
-3.04846e-13
-3.02313e-13
-2.95924e-13
-2.88845e-13
-2.80761e-13
-2.7254e-13
-2.66636e-13
-2.61372e-13
-2.54806e-13
-2.46617e-13
-2.34052e-13
-2.25132e-13
-2.14804e-13
-2.06723e-13
-2.00127e-13
-1.93431e-13
-1.86003e-13
-1.76088e-13
-1.70655e-13
-1.68808e-13
-1.62841e-13
-1.5545e-13
-1.45224e-13
-1.36878e-13
-1.30725e-13
-1.1789e-13
-1.07449e-13
-1.00171e-13
-9.5411e-14
-9.21924e-14
-8.74694e-14
-7.96541e-14
-7.50088e-14
-7.05776e-14
-6.65005e-14
-5.91119e-14
-5.35916e-14
-4.55729e-14
-3.5463e-14
-2.83868e-14
-2.13555e-14
-1.20274e-14
-2.01655e-15
-6.88e-13
-6.97646e-13
-6.93891e-13
-6.84736e-13
-6.89029e-13
-6.92569e-13
-6.90432e-13
-6.86073e-13
-6.77574e-13
-6.64213e-13
-6.60563e-13
-6.56905e-13
-6.52918e-13
-6.43009e-13
-6.36208e-13
-6.35275e-13
-6.24679e-13
-6.14897e-13
-6.0492e-13
-5.91267e-13
-5.8022e-13
-5.68585e-13
-5.51203e-13
-5.47744e-13
-5.48735e-13
-5.47532e-13
-5.39237e-13
-5.30188e-13
-5.22199e-13
-5.16918e-13
-5.0645e-13
-4.96751e-13
-4.88484e-13
-4.85156e-13
-4.81621e-13
-4.71641e-13
-4.6069e-13
-4.51762e-13
-4.40841e-13
-4.3594e-13
-4.3224e-13
-4.28985e-13
-4.20263e-13
-4.14056e-13
-4.03985e-13
-3.91763e-13
-3.82746e-13
-3.77336e-13
-3.7366e-13
-3.65804e-13
-3.58563e-13
-3.4922e-13
-3.40762e-13
-3.32131e-13
-3.22659e-13
-3.17336e-13
-3.12143e-13
-3.05976e-13
-3.00758e-13
-2.96652e-13
-2.91124e-13
-2.81753e-13
-2.73338e-13
-2.66566e-13
-2.57679e-13
-2.5278e-13
-2.4729e-13
-2.35333e-13
-2.26168e-13
-2.18093e-13
-2.08306e-13
-2.00448e-13
-1.94927e-13
-1.87837e-13
-1.78074e-13
-1.73273e-13
-1.67649e-13
-1.59475e-13
-1.54442e-13
-1.47505e-13
-1.39851e-13
-1.29841e-13
-1.15517e-13
-1.05335e-13
-1.01067e-13
-9.78051e-14
-9.39917e-14
-8.54685e-14
-7.87091e-14
-7.43537e-14
-7.02739e-14
-6.68035e-14
-5.73098e-14
-5.25758e-14
-4.54807e-14
-3.85581e-14
-2.85977e-14
-2.01041e-14
-9.95586e-15
-8.56311e-16
-6.93244e-13
-6.93943e-13
-6.93276e-13
-6.89894e-13
-6.87016e-13
-6.90766e-13
-6.89935e-13
-6.83628e-13
-6.75278e-13
-6.64844e-13
-6.56719e-13
-6.56032e-13
-6.54993e-13
-6.444e-13
-6.37606e-13
-6.32663e-13
-6.28915e-13
-6.20173e-13
-6.01821e-13
-5.83616e-13
-5.67603e-13
-5.63344e-13
-5.61878e-13
-5.59381e-13
-5.53777e-13
-5.47059e-13
-5.36413e-13
-5.27748e-13
-5.23511e-13
-5.18882e-13
-5.09485e-13
-4.95738e-13
-4.89302e-13
-4.808e-13
-4.75702e-13
-4.69205e-13
-4.62726e-13
-4.57067e-13
-4.46088e-13
-4.34514e-13
-4.27581e-13
-4.22821e-13
-4.18213e-13
-4.14294e-13
-4.07431e-13
-3.96962e-13
-3.85477e-13
-3.76291e-13
-3.7026e-13
-3.65556e-13
-3.58439e-13
-3.52817e-13
-3.43945e-13
-3.32529e-13
-3.24159e-13
-3.18254e-13
-3.11601e-13
-3.00571e-13
-2.96657e-13
-2.96043e-13
-2.95676e-13
-2.87389e-13
-2.75916e-13
-2.64107e-13
-2.54616e-13
-2.49124e-13
-2.41553e-13
-2.30759e-13
-2.21729e-13
-2.17534e-13
-2.16904e-13
-2.06806e-13
-1.96227e-13
-1.90865e-13
-1.81238e-13
-1.7155e-13
-1.63367e-13
-1.55612e-13
-1.50247e-13
-1.4581e-13
-1.38951e-13
-1.29254e-13
-1.20789e-13
-1.11609e-13
-1.04622e-13
-9.44969e-14
-9.09354e-14
-8.70659e-14
-7.94849e-14
-7.6144e-14
-6.97991e-14
-6.20987e-14
-5.74552e-14
-5.17668e-14
-4.54121e-14
-3.60846e-14
-2.82643e-14
-1.86098e-14
-1.01484e-14
-3.11705e-15
-6.92186e-13
-6.91551e-13
-6.89418e-13
-6.90808e-13
-6.93443e-13
-6.93146e-13
-6.89522e-13
-6.82337e-13
-6.73429e-13
-6.66061e-13
-6.60625e-13
-6.55054e-13
-6.51073e-13
-6.42017e-13
-6.37942e-13
-6.3279e-13
-6.2878e-13
-6.19759e-13
-5.96922e-13
-5.85428e-13
-5.80692e-13
-5.73328e-13
-5.62409e-13
-5.52649e-13
-5.49703e-13
-5.42811e-13
-5.32091e-13
-5.26291e-13
-5.21039e-13
-5.15954e-13
-5.09415e-13
-5.01369e-13
-4.95342e-13
-4.88365e-13
-4.76644e-13
-4.68323e-13
-4.61109e-13
-4.52051e-13
-4.44016e-13
-4.34705e-13
-4.28647e-13
-4.26057e-13
-4.19337e-13
-4.18045e-13
-4.124e-13
-3.97437e-13
-3.81478e-13
-3.68104e-13
-3.67722e-13
-3.6729e-13
-3.63468e-13
-3.56371e-13
-3.43663e-13
-3.32456e-13
-3.21532e-13
-3.15394e-13
-3.12178e-13
-3.06712e-13
-2.98782e-13
-2.93222e-13
-2.91232e-13
-2.84336e-13
-2.76938e-13
-2.68487e-13
-2.6024e-13
-2.51386e-13
-2.42584e-13
-2.32798e-13
-2.26753e-13
-2.19865e-13
-2.12557e-13
-2.06848e-13
-1.95014e-13
-1.82449e-13
-1.75344e-13
-1.7184e-13
-1.67327e-13
-1.59673e-13
-1.55052e-13
-1.48845e-13
-1.3978e-13
-1.29553e-13
-1.17057e-13
-1.06086e-13
-9.77964e-14
-9.40706e-14
-9.2015e-14
-8.85924e-14
-8.14419e-14
-7.46497e-14
-6.73857e-14
-6.21447e-14
-5.77429e-14
-5.31383e-14
-4.38473e-14
-3.4346e-14
-2.8047e-14
-2.01797e-14
-1.15272e-14
-1.54901e-15
-6.94506e-13
-6.96032e-13
-6.91033e-13
-6.8495e-13
-6.88747e-13
-6.91543e-13
-6.9128e-13
-6.83312e-13
-6.70813e-13
-6.67871e-13
-6.6146e-13
-6.51499e-13
-6.45063e-13
-6.42004e-13
-6.3953e-13
-6.35272e-13
-6.28572e-13
-6.17436e-13
-6.00928e-13
-5.87552e-13
-5.79358e-13
-5.70615e-13
-5.66208e-13
-5.59074e-13
-5.49869e-13
-5.39679e-13
-5.31088e-13
-5.26233e-13
-5.2445e-13
-5.1699e-13
-5.10383e-13
-5.02634e-13
-4.9192e-13
-4.81253e-13
-4.76823e-13
-4.69469e-13
-4.60322e-13
-4.5125e-13
-4.45959e-13
-4.40266e-13
-4.35083e-13
-4.27705e-13
-4.1584e-13
-4.08542e-13
-4.04885e-13
-3.98078e-13
-3.86879e-13
-3.77198e-13
-3.71171e-13
-3.64785e-13
-3.58504e-13
-3.51725e-13
-3.42192e-13
-3.33736e-13
-3.25948e-13
-3.21023e-13
-3.13489e-13
-3.06808e-13
-2.9937e-13
-2.94226e-13
-2.8823e-13
-2.81653e-13
-2.75441e-13
-2.67891e-13
-2.57336e-13
-2.47287e-13
-2.41287e-13
-2.33719e-13
-2.25856e-13
-2.18781e-13
-2.11031e-13
-2.07316e-13
-1.99378e-13
-1.89187e-13
-1.77555e-13
-1.72136e-13
-1.68288e-13
-1.61232e-13
-1.55508e-13
-1.46423e-13
-1.40068e-13
-1.30395e-13
-1.1755e-13
-1.07727e-13
-1.00102e-13
-9.48167e-14
-9.28372e-14
-8.78921e-14
-8.09425e-14
-7.45196e-14
-6.697e-14
-6.13072e-14
-5.45249e-14
-4.99262e-14
-4.33623e-14
-3.51394e-14
-2.66884e-14
-1.64612e-14
-7.58882e-15
1.2997e-15
-6.94263e-13
-6.93508e-13
-6.93712e-13
-6.90265e-13
-6.86958e-13
-6.8917e-13
-6.87999e-13
-6.85956e-13
-6.7795e-13
-6.63687e-13
-6.55631e-13
-6.4859e-13
-6.46143e-13
-6.44872e-13
-6.41052e-13
-6.34293e-13
-6.24376e-13
-6.18057e-13
-6.08665e-13
-5.92451e-13
-5.79228e-13
-5.66243e-13
-5.60989e-13
-5.54255e-13
-5.51085e-13
-5.44911e-13
-5.34933e-13
-5.28741e-13
-5.22841e-13
-5.1709e-13
-5.11233e-13
-5.02445e-13
-4.92164e-13
-4.80456e-13
-4.73535e-13
-4.67791e-13
-4.62973e-13
-4.52566e-13
-4.46829e-13
-4.40978e-13
-4.31246e-13
-4.21802e-13
-4.1504e-13
-4.08852e-13
-4.07568e-13
-4.02705e-13
-3.91409e-13
-3.79368e-13
-3.71313e-13
-3.62275e-13
-3.55444e-13
-3.51394e-13
-3.43813e-13
-3.34941e-13
-3.26382e-13
-3.19248e-13
-3.12743e-13
-3.05872e-13
-2.99342e-13
-2.96374e-13
-2.92024e-13
-2.88211e-13
-2.81313e-13
-2.68499e-13
-2.54082e-13
-2.39916e-13
-2.33041e-13
-2.28609e-13
-2.25106e-13
-2.25057e-13
-2.19045e-13
-2.09599e-13
-2.02122e-13
-1.91489e-13
-1.78688e-13
-1.69422e-13
-1.65165e-13
-1.59268e-13
-1.548e-13
-1.46003e-13
-1.3914e-13
-1.30673e-13
-1.19683e-13
-1.11366e-13
-1.01963e-13
-9.36585e-14
-8.95017e-14
-8.40847e-14
-7.99968e-14
-7.46438e-14
-6.54965e-14
-5.67678e-14
-5.12865e-14
-4.7e-14
-3.89958e-14
-3.0694e-14
-2.26793e-14
-1.46865e-14
-5.46662e-15
3.92391e-16
-6.92332e-13
-6.91595e-13
-6.90641e-13
-6.92208e-13
-6.92548e-13
-6.86864e-13
-6.84971e-13
-6.8199e-13
-6.76082e-13
-6.69189e-13
-6.56422e-13
-6.47003e-13
-6.46162e-13
-6.46551e-13
-6.41377e-13
-6.36821e-13
-6.2411e-13
-6.16091e-13
-6.07931e-13
-5.9388e-13
-5.8349e-13
-5.6734e-13
-5.57165e-13
-5.52935e-13
-5.47127e-13
-5.4179e-13
-5.3733e-13
-5.30588e-13
-5.24659e-13
-5.18918e-13
-5.10376e-13
-5.01088e-13
-4.9091e-13
-4.82643e-13
-4.77682e-13
-4.6942e-13
-4.60641e-13
-4.52665e-13
-4.48115e-13
-4.3906e-13
-4.31187e-13
-4.2163e-13
-4.15303e-13
-4.1316e-13
-4.10518e-13
-4.01168e-13
-3.88405e-13
-3.75452e-13
-3.68066e-13
-3.60711e-13
-3.58389e-13
-3.53508e-13
-3.43222e-13
-3.34393e-13
-3.25213e-13
-3.22386e-13
-3.15864e-13
-3.08402e-13
-2.98737e-13
-2.90098e-13
-2.88254e-13
-2.80604e-13
-2.7575e-13
-2.71275e-13
-2.57365e-13
-2.43065e-13
-2.33444e-13
-2.27726e-13
-2.25602e-13
-2.28121e-13
-2.19965e-13
-2.12295e-13
-2.02845e-13
-1.90808e-13
-1.76677e-13
-1.65589e-13
-1.64873e-13
-1.62731e-13
-1.58529e-13
-1.49809e-13
-1.43274e-13
-1.3444e-13
-1.19287e-13
-1.07875e-13
-9.70264e-14
-8.78869e-14
-9.02981e-14
-8.84002e-14
-8.03926e-14
-7.32121e-14
-6.35332e-14
-5.7128e-14
-5.07243e-14
-4.49491e-14
-4.07381e-14
-3.39548e-14
-1.89905e-14
-5.62162e-15
2.3322e-15
-8.92046e-16
-6.9529e-13
-6.93324e-13
-6.91103e-13
-6.92676e-13
-6.91409e-13
-6.86138e-13
-6.86471e-13
-6.82971e-13
-6.75558e-13
-6.66397e-13
-6.57875e-13
-6.50171e-13
-6.42246e-13
-6.39522e-13
-6.36596e-13
-6.30965e-13
-6.27419e-13
-6.21635e-13
-6.10244e-13
-5.95218e-13
-5.82595e-13
-5.74466e-13
-5.63653e-13
-5.53863e-13
-5.47182e-13
-5.36216e-13
-5.32826e-13
-5.29926e-13
-5.26026e-13
-5.21339e-13
-5.12745e-13
-5.01856e-13
-4.89583e-13
-4.7983e-13
-4.74274e-13
-4.67228e-13
-4.6259e-13
-4.55588e-13
-4.5029e-13
-4.37759e-13
-4.29645e-13
-4.18698e-13
-4.14966e-13
-4.15367e-13
-4.08865e-13
-4.00767e-13
-3.89276e-13
-3.7891e-13
-3.69265e-13
-3.60481e-13
-3.54448e-13
-3.51561e-13
-3.43395e-13
-3.37497e-13
-3.30372e-13
-3.21295e-13
-3.14165e-13
-3.06256e-13
-2.98368e-13
-2.92787e-13
-2.90734e-13
-2.91013e-13
-2.80515e-13
-2.68041e-13
-2.49573e-13
-2.39789e-13
-2.33527e-13
-2.30183e-13
-2.25398e-13
-2.23107e-13
-2.17082e-13
-2.15944e-13
-2.0965e-13
-1.96496e-13
-1.7559e-13
-1.58979e-13
-1.57754e-13
-1.63419e-13
-1.60516e-13
-1.49982e-13
-1.42173e-13
-1.31616e-13
-1.21299e-13
-1.12369e-13
-1.01702e-13
-9.09766e-14
-8.48535e-14
-8.41747e-14
-7.88309e-14
-7.18285e-14
-6.13909e-14
-5.6192e-14
-5.05128e-14
-4.35792e-14
-3.62365e-14
-3.01173e-14
-1.77103e-14
-7.12348e-15
-1.10999e-15
-9.81283e-16
-6.92916e-13
-6.92441e-13
-6.84529e-13
-6.93804e-13
-6.93484e-13
-6.90443e-13
-6.84043e-13
-6.77296e-13
-6.70638e-13
-6.61302e-13
-6.56591e-13
-6.51921e-13
-6.50887e-13
-6.44775e-13
-6.38557e-13
-6.34494e-13
-6.29596e-13
-6.22849e-13
-6.11099e-13
-5.96033e-13
-5.76378e-13
-5.62221e-13
-5.53431e-13
-5.51738e-13
-5.46976e-13
-5.42116e-13
-5.35745e-13
-5.29524e-13
-5.26663e-13
-5.23725e-13
-5.15737e-13
-5.02404e-13
-4.92194e-13
-4.84065e-13
-4.79616e-13
-4.6914e-13
-4.59115e-13
-4.54087e-13
-4.47869e-13
-4.37385e-13
-4.2784e-13
-4.23907e-13
-4.19552e-13
-4.13868e-13
-4.03182e-13
-3.93811e-13
-3.87001e-13
-3.79305e-13
-3.71396e-13
-3.64373e-13
-3.57868e-13
-3.521e-13
-3.40965e-13
-3.3127e-13
-3.33036e-13
-3.32775e-13
-3.17583e-13
-3.02556e-13
-2.93787e-13
-2.86503e-13
-2.8462e-13
-2.82079e-13
-2.81287e-13
-2.71465e-13
-2.54785e-13
-2.45584e-13
-2.32317e-13
-2.30942e-13
-2.25698e-13
-2.20655e-13
-2.16576e-13
-2.16361e-13
-2.10425e-13
-1.94511e-13
-1.77387e-13
-1.63816e-13
-1.60782e-13
-1.64243e-13
-1.56799e-13
-1.4699e-13
-1.40374e-13
-1.32613e-13
-1.24266e-13
-1.13742e-13
-1.02989e-13
-9.06562e-14
-8.46665e-14
-8.41962e-14
-7.72774e-14
-6.9864e-14
-6.16509e-14
-5.47536e-14
-4.73316e-14
-4.18529e-14
-3.66498e-14
-2.86974e-14
-1.79573e-14
-8.74756e-15
-2.32999e-16
8.73778e-16
-6.89373e-13
-6.9948e-13
-6.9379e-13
-6.8879e-13
-6.89481e-13
-6.88166e-13
-6.83336e-13
-6.82258e-13
-6.71641e-13
-6.57238e-13
-6.52974e-13
-6.51748e-13
-6.49218e-13
-6.46069e-13
-6.41463e-13
-6.31823e-13
-6.20978e-13
-6.13369e-13
-6.07767e-13
-5.98326e-13
-5.90965e-13
-5.82286e-13
-5.69638e-13
-5.51853e-13
-5.37599e-13
-5.31095e-13
-5.33411e-13
-5.31236e-13
-5.28051e-13
-5.25534e-13
-5.16407e-13
-5.03765e-13
-4.88237e-13
-4.75957e-13
-4.70221e-13
-4.65639e-13
-4.65619e-13
-4.60526e-13
-4.48519e-13
-4.41914e-13
-4.30418e-13
-4.20378e-13
-4.18021e-13
-4.11074e-13
-4.02152e-13
-3.93378e-13
-3.84053e-13
-3.79297e-13
-3.74882e-13
-3.67043e-13
-3.59113e-13
-3.49845e-13
-3.42795e-13
-3.35652e-13
-3.31072e-13
-3.25599e-13
-3.19612e-13
-3.11987e-13
-3.0367e-13
-2.92347e-13
-2.8336e-13
-2.7697e-13
-2.71649e-13
-2.66227e-13
-2.56352e-13
-2.48051e-13
-2.38918e-13
-2.3221e-13
-2.26326e-13
-2.22828e-13
-2.19208e-13
-2.1136e-13
-2.03807e-13
-1.95132e-13
-1.80497e-13
-1.69319e-13
-1.61137e-13
-1.58866e-13
-1.56235e-13
-1.48051e-13
-1.41324e-13
-1.30552e-13
-1.22585e-13
-1.12592e-13
-1.01577e-13
-9.21912e-14
-8.7326e-14
-8.25993e-14
-7.8171e-14
-6.94311e-14
-6.19172e-14
-5.78227e-14
-5.00381e-14
-4.13944e-14
-3.18423e-14
-2.34546e-14
-1.652e-14
-1.03903e-14
-3.0137e-15
4.24427e-16
-6.8845e-13
-6.93019e-13
-6.94822e-13
-6.90393e-13
-6.89771e-13
-6.9097e-13
-6.80111e-13
-6.68837e-13
-6.63994e-13
-6.61883e-13
-6.59422e-13
-6.56043e-13
-6.52907e-13
-6.47508e-13
-6.4187e-13
-6.3305e-13
-6.26214e-13
-6.22262e-13
-6.12908e-13
-5.97819e-13
-5.78029e-13
-5.63616e-13
-5.54753e-13
-5.45322e-13
-5.45345e-13
-5.43688e-13
-5.38675e-13
-5.30701e-13
-5.26009e-13
-5.24644e-13
-5.18467e-13
-5.0731e-13
-4.93803e-13
-4.76161e-13
-4.65434e-13
-4.65835e-13
-4.66812e-13
-4.61929e-13
-4.54504e-13
-4.42834e-13
-4.28188e-13
-4.18781e-13
-4.10986e-13
-4.06699e-13
-4.01747e-13
-3.96044e-13
-3.89145e-13
-3.80567e-13
-3.74623e-13
-3.73941e-13
-3.65649e-13
-3.47991e-13
-3.37758e-13
-3.30576e-13
-3.2528e-13
-3.23745e-13
-3.20129e-13
-3.11115e-13
-2.98894e-13
-2.89746e-13
-2.86584e-13
-2.82253e-13
-2.75227e-13
-2.66157e-13
-2.51931e-13
-2.41837e-13
-2.37159e-13
-2.34952e-13
-2.30006e-13
-2.22663e-13
-2.16114e-13
-2.11383e-13
-2.04182e-13
-1.93609e-13
-1.81787e-13
-1.65931e-13
-1.59585e-13
-1.58021e-13
-1.58539e-13
-1.53665e-13
-1.4487e-13
-1.34136e-13
-1.22268e-13
-1.09802e-13
-1.00012e-13
-9.26031e-14
-8.76802e-14
-8.16059e-14
-7.56279e-14
-6.85798e-14
-6.21861e-14
-5.65717e-14
-5.04844e-14
-4.1491e-14
-3.11979e-14
-2.08588e-14
-1.27991e-14
-7.51188e-15
-1.32431e-15
-2.29566e-16
-6.86944e-13
-6.9597e-13
-6.96422e-13
-6.91531e-13
-6.88298e-13
-6.93832e-13
-6.90115e-13
-6.75609e-13
-6.56975e-13
-6.53116e-13
-6.52466e-13
-6.54241e-13
-6.5329e-13
-6.50691e-13
-6.45154e-13
-6.3422e-13
-6.24303e-13
-6.16451e-13
-6.03585e-13
-5.94532e-13
-5.86086e-13
-5.72357e-13
-5.59904e-13
-5.45752e-13
-5.44691e-13
-5.42891e-13
-5.40627e-13
-5.35291e-13
-5.27079e-13
-5.23536e-13
-5.14989e-13
-5.02636e-13
-4.9262e-13
-4.769e-13
-4.64286e-13
-4.63211e-13
-4.64796e-13
-4.62662e-13
-4.54051e-13
-4.437e-13
-4.26782e-13
-4.17209e-13
-4.14758e-13
-4.09447e-13
-4.01865e-13
-3.94449e-13
-3.91617e-13
-3.85044e-13
-3.74873e-13
-3.63782e-13
-3.56496e-13
-3.50757e-13
-3.41954e-13
-3.28994e-13
-3.30102e-13
-3.27417e-13
-3.19229e-13
-3.13227e-13
-3.06056e-13
-2.92072e-13
-2.84733e-13
-2.78661e-13
-2.70264e-13
-2.6286e-13
-2.51999e-13
-2.44309e-13
-2.34928e-13
-2.32107e-13
-2.2652e-13
-2.25883e-13
-2.18699e-13
-2.14453e-13
-2.0777e-13
-1.93553e-13
-1.7864e-13
-1.66415e-13
-1.62951e-13
-1.59509e-13
-1.54729e-13
-1.49515e-13
-1.43715e-13
-1.34712e-13
-1.23066e-13
-1.10509e-13
-1.03421e-13
-9.57553e-14
-8.81925e-14
-8.14962e-14
-7.57322e-14
-6.72905e-14
-6.02521e-14
-5.43044e-14
-4.64517e-14
-3.7764e-14
-3.06962e-14
-2.49169e-14
-1.14606e-14
-4.16802e-15
1.62656e-15
7.63232e-16
-6.93966e-13
-6.9313e-13
-6.89142e-13
-6.84994e-13
-6.86922e-13
-6.81439e-13
-6.77087e-13
-6.78618e-13
-6.74468e-13
-6.66737e-13
-6.61641e-13
-6.52876e-13
-6.46871e-13
-6.45716e-13
-6.43431e-13
-6.36069e-13
-6.26977e-13
-6.236e-13
-6.11685e-13
-5.94193e-13
-5.73933e-13
-5.61091e-13
-5.5534e-13
-5.53489e-13
-5.46228e-13
-5.44684e-13
-5.40681e-13
-5.33419e-13
-5.27583e-13
-5.22025e-13
-5.14792e-13
-5.02017e-13
-4.89518e-13
-4.76352e-13
-4.67636e-13
-4.66367e-13
-4.69244e-13
-4.62696e-13
-4.52793e-13
-4.42089e-13
-4.27577e-13
-4.14759e-13
-4.12565e-13
-4.09959e-13
-4.06231e-13
-3.95455e-13
-3.86284e-13
-3.8316e-13
-3.78416e-13
-3.66988e-13
-3.55752e-13
-3.50688e-13
-3.43758e-13
-3.32698e-13
-3.24941e-13
-3.22345e-13
-3.16709e-13
-3.12267e-13
-3.06962e-13
-2.97674e-13
-2.86894e-13
-2.79126e-13
-2.69693e-13
-2.62346e-13
-2.55929e-13
-2.45684e-13
-2.35301e-13
-2.26772e-13
-2.2358e-13
-2.26174e-13
-2.17869e-13
-2.12705e-13
-2.05902e-13
-1.94294e-13
-1.82822e-13
-1.70127e-13
-1.59388e-13
-1.54502e-13
-1.54124e-13
-1.55132e-13
-1.48629e-13
-1.33274e-13
-1.21783e-13
-1.08407e-13
-1.03539e-13
-9.8242e-14
-9.08163e-14
-8.0277e-14
-7.1177e-14
-6.61114e-14
-6.04281e-14
-5.34884e-14
-4.80558e-14
-3.98978e-14
-2.96686e-14
-2.02862e-14
-1.19132e-14
-5.54241e-15
1.24582e-15
2.16517e-15
-6.93328e-13
-6.92066e-13
-6.89372e-13
-6.86825e-13
-6.93291e-13
-6.90548e-13
-6.77473e-13
-6.70687e-13
-6.66056e-13
-6.63247e-13
-6.62338e-13
-6.60593e-13
-6.48863e-13
-6.41153e-13
-6.38207e-13
-6.33165e-13
-6.28857e-13
-6.2137e-13
-6.08682e-13
-5.91784e-13
-5.77401e-13
-5.62832e-13
-5.53342e-13
-5.53749e-13
-5.53598e-13
-5.44456e-13
-5.36969e-13
-5.33752e-13
-5.31318e-13
-5.24775e-13
-5.17033e-13
-5.0358e-13
-4.89324e-13
-4.75392e-13
-4.64054e-13
-4.64614e-13
-4.6323e-13
-4.60939e-13
-4.56721e-13
-4.46249e-13
-4.31182e-13
-4.19116e-13
-4.12384e-13
-4.03996e-13
-4.02399e-13
-3.96885e-13
-3.89229e-13
-3.79921e-13
-3.73649e-13
-3.67259e-13
-3.56604e-13
-3.5094e-13
-3.43643e-13
-3.33963e-13
-3.31349e-13
-3.26831e-13
-3.15111e-13
-3.06026e-13
-3.0257e-13
-2.95032e-13
-2.88866e-13
-2.79021e-13
-2.71188e-13
-2.64233e-13
-2.55407e-13
-2.44072e-13
-2.37336e-13
-2.27382e-13
-2.20312e-13
-2.18841e-13
-2.16992e-13
-2.13745e-13
-2.07831e-13
-1.94589e-13
-1.81722e-13
-1.70914e-13
-1.63554e-13
-1.56878e-13
-1.56624e-13
-1.53253e-13
-1.45656e-13
-1.34951e-13
-1.23368e-13
-1.11212e-13
-1.02337e-13
-9.30168e-14
-8.63451e-14
-8.21229e-14
-7.60418e-14
-6.63632e-14
-5.94989e-14
-5.22524e-14
-4.49022e-14
-3.71145e-14
-2.80523e-14
-2.199e-14
-1.36979e-14
-3.86861e-15
1.7084e-15
4.34274e-16
-6.8801e-13
-6.90968e-13
-6.91039e-13
-6.89402e-13
-6.87822e-13
-6.81677e-13
-6.77005e-13
-6.73691e-13
-6.72731e-13
-6.68825e-13
-6.63534e-13
-6.59054e-13
-6.51753e-13
-6.43003e-13
-6.36842e-13
-6.29457e-13
-6.26687e-13
-6.19661e-13
-6.06781e-13
-5.94134e-13
-5.77442e-13
-5.63855e-13
-5.58847e-13
-5.54721e-13
-5.46004e-13
-5.41831e-13
-5.41255e-13
-5.38068e-13
-5.30631e-13
-5.20298e-13
-5.1187e-13
-5.02077e-13
-4.88786e-13
-4.7646e-13
-4.66827e-13
-4.7012e-13
-4.70941e-13
-4.62844e-13
-4.51717e-13
-4.3846e-13
-4.27868e-13
-4.22118e-13
-4.14166e-13
-4.04405e-13
-3.99376e-13
-3.92913e-13
-3.91611e-13
-3.90113e-13
-3.77593e-13
-3.63544e-13
-3.5418e-13
-3.52005e-13
-3.44206e-13
-3.33447e-13
-3.29684e-13
-3.26272e-13
-3.18639e-13
-3.08304e-13
-3.00363e-13
-2.93699e-13
-2.91385e-13
-2.82509e-13
-2.72223e-13
-2.62905e-13
-2.51497e-13
-2.43524e-13
-2.34642e-13
-2.28891e-13
-2.21566e-13
-2.17067e-13
-2.12919e-13
-2.13791e-13
-2.08798e-13
-1.9478e-13
-1.81887e-13
-1.71058e-13
-1.65728e-13
-1.60047e-13
-1.52038e-13
-1.44273e-13
-1.48079e-13
-1.4226e-13
-1.24981e-13
-1.1205e-13
-1.02309e-13
-9.1758e-14
-8.44855e-14
-8.15548e-14
-7.56416e-14
-6.6624e-14
-5.86788e-14
-5.26993e-14
-4.56524e-14
-3.57667e-14
-3.05217e-14
-2.06275e-14
-1.06194e-14
-2.32728e-15
2.642e-15
-2.32884e-17
-6.95238e-13
-6.9215e-13
-6.89959e-13
-6.86842e-13
-6.8188e-13
-6.79423e-13
-6.76465e-13
-6.76522e-13
-6.74115e-13
-6.69457e-13
-6.62626e-13
-6.58408e-13
-6.52482e-13
-6.4658e-13
-6.38774e-13
-6.27918e-13
-6.1751e-13
-6.1128e-13
-6.06555e-13
-5.98447e-13
-5.80296e-13
-5.68088e-13
-5.5918e-13
-5.52009e-13
-5.48194e-13
-5.44348e-13
-5.42161e-13
-5.3867e-13
-5.28747e-13
-5.22981e-13
-5.13134e-13
-5.0129e-13
-4.87062e-13
-4.74224e-13
-4.69365e-13
-4.69614e-13
-4.67369e-13
-4.61129e-13
-4.51266e-13
-4.39875e-13
-4.28176e-13
-4.19373e-13
-4.15047e-13
-4.09027e-13
-4.04011e-13
-3.97399e-13
-3.87509e-13
-3.80717e-13
-3.76296e-13
-3.67975e-13
-3.61449e-13
-3.51824e-13
-3.42416e-13
-3.34435e-13
-3.28233e-13
-3.20896e-13
-3.17088e-13
-3.1033e-13
-3.00322e-13
-2.94171e-13
-2.92146e-13
-2.84922e-13
-2.73462e-13
-2.61234e-13
-2.5258e-13
-2.43807e-13
-2.34397e-13
-2.27285e-13
-2.21553e-13
-2.17284e-13
-2.15026e-13
-2.14323e-13
-2.07513e-13
-1.91758e-13
-1.80858e-13
-1.71451e-13
-1.65149e-13
-1.59248e-13
-1.55544e-13
-1.50935e-13
-1.44595e-13
-1.36303e-13
-1.26258e-13
-1.15776e-13
-1.07656e-13
-9.22515e-14
-8.32501e-14
-7.84523e-14
-7.52383e-14
-6.34413e-14
-5.59356e-14
-5.1859e-14
-4.98519e-14
-3.74575e-14
-2.62408e-14
-1.97188e-14
-1.20786e-14
1.27666e-16
1.3247e-15
-1.27502e-15
-6.97905e-13
-6.91428e-13
-6.85439e-13
-6.8596e-13
-6.78149e-13
-6.7935e-13
-6.76802e-13
-6.77812e-13
-6.77513e-13
-6.67803e-13
-6.61844e-13
-6.59254e-13
-6.57447e-13
-6.48161e-13
-6.38884e-13
-6.30965e-13
-6.22524e-13
-6.11676e-13
-6.05065e-13
-5.91456e-13
-5.80267e-13
-5.67941e-13
-5.56182e-13
-5.50145e-13
-5.46561e-13
-5.48154e-13
-5.43179e-13
-5.37324e-13
-5.29072e-13
-5.21412e-13
-5.13576e-13
-5.03286e-13
-4.87354e-13
-4.76782e-13
-4.67767e-13
-4.6514e-13
-4.65645e-13
-4.61482e-13
-4.51874e-13
-4.40584e-13
-4.31596e-13
-4.22479e-13
-4.14229e-13
-4.07908e-13
-4.02057e-13
-3.9547e-13
-3.87544e-13
-3.83074e-13
-3.7875e-13
-3.68727e-13
-3.58106e-13
-3.47691e-13
-3.41911e-13
-3.37099e-13
-3.31571e-13
-3.25516e-13
-3.18322e-13
-3.08902e-13
-3.0292e-13
-2.98431e-13
-2.93586e-13
-2.83719e-13
-2.6933e-13
-2.59417e-13
-2.50819e-13
-2.42064e-13
-2.32704e-13
-2.28179e-13
-2.21346e-13
-2.21082e-13
-2.16229e-13
-2.10371e-13
-2.00905e-13
-1.89312e-13
-1.79405e-13
-1.69746e-13
-1.68911e-13
-1.66843e-13
-1.5724e-13
-1.48177e-13
-1.41601e-13
-1.3399e-13
-1.2508e-13
-1.14586e-13
-1.02469e-13
-8.97516e-14
-8.4703e-14
-8.11241e-14
-7.42638e-14
-6.9425e-14
-6.35246e-14
-5.21767e-14
-4.26646e-14
-3.51919e-14
-2.6311e-14
-1.70257e-14
-1.00945e-14
-6.03232e-15
-1.78662e-15
-1.31108e-15
-6.95619e-13
-6.89654e-13
-6.87779e-13
-6.85822e-13
-6.82535e-13
-6.7903e-13
-6.73943e-13
-6.76693e-13
-6.76664e-13
-6.71745e-13
-6.6538e-13
-6.58497e-13
-6.56124e-13
-6.46367e-13
-6.3579e-13
-6.25597e-13
-6.16119e-13
-6.11795e-13
-6.05868e-13
-5.94304e-13
-5.81853e-13
-5.6957e-13
-5.58572e-13
-5.53948e-13
-5.52432e-13
-5.45839e-13
-5.392e-13
-5.31392e-13
-5.24363e-13
-5.21676e-13
-5.15068e-13
-5.07951e-13
-4.95728e-13
-4.83817e-13
-4.65875e-13
-4.61372e-13
-4.60723e-13
-4.57679e-13
-4.51303e-13
-4.40475e-13
-4.33493e-13
-4.22738e-13
-4.16883e-13
-4.06324e-13
-4.02516e-13
-3.9676e-13
-3.9255e-13
-3.84772e-13
-3.74783e-13
-3.61406e-13
-3.5732e-13
-3.53209e-13
-3.46076e-13
-3.3325e-13
-3.26391e-13
-3.20141e-13
-3.12959e-13
-3.11568e-13
-3.04042e-13
-3.02757e-13
-3.03154e-13
-2.81002e-13
-2.67545e-13
-2.61572e-13
-2.53728e-13
-2.45166e-13
-2.35476e-13
-2.28887e-13
-2.18598e-13
-2.15092e-13
-2.11246e-13
-2.13335e-13
-2.06283e-13
-1.93445e-13
-1.77318e-13
-1.65258e-13
-1.68742e-13
-1.65424e-13
-1.57214e-13
-1.51154e-13
-1.43922e-13
-1.34637e-13
-1.2375e-13
-1.12742e-13
-1.03328e-13
-9.13472e-14
-8.39995e-14
-8.15758e-14
-7.56018e-14
-6.51472e-14
-5.72056e-14
-5.18022e-14
-4.35796e-14
-3.47208e-14
-3.05015e-14
-2.36936e-14
-1.04176e-14
-2.27504e-15
3.34302e-15
-8.46654e-17
-6.89915e-13
-6.92108e-13
-6.91778e-13
-6.85519e-13
-6.79889e-13
-6.80212e-13
-6.78344e-13
-6.7451e-13
-6.74447e-13
-6.70483e-13
-6.67064e-13
-6.62489e-13
-6.54393e-13
-6.44892e-13
-6.36645e-13
-6.29233e-13
-6.24081e-13
-6.19284e-13
-6.08311e-13
-5.9172e-13
-5.72857e-13
-5.59043e-13
-5.55537e-13
-5.55992e-13
-5.53137e-13
-5.45216e-13
-5.35954e-13
-5.31494e-13
-5.24524e-13
-5.23015e-13
-5.19293e-13
-5.03627e-13
-4.90173e-13
-4.81297e-13
-4.72632e-13
-4.67638e-13
-4.63157e-13
-4.56373e-13
-4.49854e-13
-4.41463e-13
-4.32274e-13
-4.2211e-13
-4.13863e-13
-4.0921e-13
-4.07801e-13
-3.98171e-13
-3.90416e-13
-3.78349e-13
-3.75767e-13
-3.68294e-13
-3.56569e-13
-3.5174e-13
-3.4556e-13
-3.37196e-13
-3.29573e-13
-3.16362e-13
-3.05087e-13
-3.0924e-13
-3.13418e-13
-3.04747e-13
-2.94751e-13
-2.83284e-13