/*--------------------------------*- C++ -*----------------------------------*\
| =========                 |                                                 |
| \\      /  F ield         | OpenFOAM: The Open Source CFD Toolbox           |
|  \\    /   O peration     | Version:  v2012                                 |
|   \\  /    A nd           | Website:  www.openfoam.com                      |
|    \\/     M anipulation  |                                                 |
\*---------------------------------------------------------------------------*/
FoamFile
{
    version     2.0;
    format      ascii;
    class       surfaceScalarField;
    location    "3";
    object      phi;
}
// * * * * * * * * * * * * * * * * * * * * * * * * * * * * * * * * * * * * * //

dimensions      [0 3 -1 0 0 0 0];
oriented        oriented;


internalField   nonuniform List<scalar> 
130560
(
3.52224e-06
-3.52224e-06
7.04427e-06
-3.52203e-06
1.05659e-05
-3.52161e-06
1.40869e-05
-3.52098e-06
1.7607e-05
-3.52014e-06
2.11261e-05
-3.51909e-06
2.46439e-05
-3.51781e-06
2.81602e-05
-3.51632e-06
3.16748e-05
-3.5146e-06
3.51875e-05
-3.51265e-06
3.8698e-05
-3.51047e-06
4.2206e-05
-3.50805e-06
4.57114e-05
-3.50538e-06
4.92138e-05
-3.50246e-06
5.27131e-05
-3.49929e-06
5.6209e-05
-3.49584e-06
5.97011e-05
-3.49212e-06
6.31892e-05
-3.48812e-06
6.66731e-05
-3.48383e-06
7.01523e-05
-3.47924e-06
7.36266e-05
-3.47433e-06
7.70957e-05
-3.46911e-06
8.05593e-05
-3.46355e-06
8.40169e-05
-3.45765e-06
8.74683e-05
-3.4514e-06
9.09131e-05
-3.44478e-06
9.43509e-05
-3.43778e-06
9.77813e-05
-3.43039e-06
0.000101204
-3.4226e-06
0.000104618
-3.4144e-06
0.000108024
-3.40576e-06
0.000111421
-3.39668e-06
0.000114808
-3.38715e-06
0.000118185
-3.37714e-06
0.000121552
-3.36665e-06
0.000124907
-3.35567e-06
0.000128252
-3.34417e-06
0.000131584
-3.33214e-06
0.000134903
-3.31958e-06
0.00013821
-3.30646e-06
0.000141502
-3.29277e-06
0.000144781
-3.27849e-06
0.000148045
-3.26362e-06
0.000151293
-3.24814e-06
0.000154525
-3.23203e-06
0.00015774
-3.21528e-06
0.000160938
-3.19788e-06
0.000164118
-3.17982e-06
0.000167279
-3.16108e-06
0.00017042
-3.14164e-06
0.000173542
-3.12151e-06
0.000176643
-3.10066e-06
0.000179722
-3.07908e-06
0.000182778
-3.05677e-06
0.000185812
-3.03371e-06
0.000188822
-3.0099e-06
0.000191807
-2.98532e-06
0.000194767
-2.95997e-06
0.000197701
-2.93384e-06
0.000200608
-2.90693e-06
0.000203487
-2.87921e-06
0.000206338
-2.85071e-06
0.000209159
-2.82139e-06
0.000211951
-2.79127e-06
0.000214711
-2.76034e-06
0.00021744
-2.7286e-06
0.000220136
-2.69605e-06
0.000222798
-2.66268e-06
0.000225427
-2.6285e-06
0.00022802
-2.5935e-06
0.000230578
-2.55771e-06
0.000233099
-2.5211e-06
0.000235583
-2.4837e-06
0.000238028
-2.4455e-06
0.000240435
-2.40652e-06
0.000242802
-2.36676e-06
0.000245128
-2.32622e-06
0.000247413
-2.28493e-06
0.000249656
-2.24289e-06
0.000251856
-2.20011e-06
0.000254012
-2.15661e-06
0.000256125
-2.11239e-06
0.000258192
-2.06748e-06
0.000260214
-2.02189e-06
0.00026219
-1.97564e-06
0.000264119
-1.92874e-06
0.000266
-1.88121e-06
0.000267833
-1.83308e-06
0.000269617
-1.78435e-06
0.000271352
-1.73506e-06
0.000273038
-1.68523e-06
0.000274672
-1.63487e-06
0.000276256
-1.58401e-06
0.000277789
-1.53267e-06
0.00027927
-1.48088e-06
0.000280699
-1.42866e-06
0.000282075
-1.37604e-06
0.000283398
-1.32304e-06
0.000284667
-1.26969e-06
0.000285883
-1.21601e-06
0.000287045
-1.16204e-06
0.000288153
-1.10779e-06
0.000289206
-1.05329e-06
0.000290205
-9.98575e-07
0.000291149
-9.43666e-07
0.000292037
-8.88591e-07
0.000292871
-8.33378e-07
0.000293649
-7.78051e-07
0.000294371
-7.22639e-07
0.000295039
-6.67167e-07
0.00029565
-6.11661e-07
0.000296206
-5.56148e-07
0.000296707
-5.00652e-07
0.000297152
-4.45199e-07
0.000297542
-3.89814e-07
0.000297877
-3.3452e-07
0.000298156
-2.79342e-07
0.00029838
-2.24302e-07
0.00029855
-1.69424e-07
0.000298664
-1.14729e-07
0.000298725
-6.02391e-08
0.000298731
-5.9753e-09
0.000298683
4.80422e-08
0.000298581
1.01794e-07
0.000298425
1.55261e-07
0.000298217
2.08424e-07
0.000297956
2.61267e-07
0.000297642
3.13772e-07
0.000297276
3.65923e-07
0.000296858
4.17704e-07
0.000296389
4.69101e-07
0.000295869
5.20099e-07
0.000295298
5.70685e-07
0.000294678
6.20847e-07
0.000294007
6.70572e-07
0.000293287
7.19848e-07
0.000292519
7.68665e-07
0.000291702
8.17013e-07
0.000290837
8.64882e-07
0.000289924
9.12263e-07
0.000288965
9.59149e-07
0.00028796
1.00553e-06
0.000286908
1.0514e-06
0.000285812
1.09675e-06
0.00028467
1.14158e-06
0.000283484
1.18588e-06
0.000282254
1.22965e-06
0.000280982
1.27288e-06
0.000279666
1.31556e-06
0.000278308
1.3577e-06
0.000276909
1.39929e-06
0.000275469
1.44032e-06
0.000273988
1.4808e-06
0.000272467
1.52072e-06
0.000270907
1.56008e-06
0.000269308
1.59888e-06
0.000267671
1.63712e-06
0.000265996
1.67479e-06
0.000264284
1.7119e-06
0.000262536
1.74845e-06
0.000260752
1.78443e-06
0.000258932
1.81984e-06
0.000257077
1.85469e-06
0.000255188
1.88898e-06
0.000253265
1.9227e-06
0.000251309
1.95586e-06
0.000249321
1.98846e-06
0.0002473
2.0205e-06
0.000245249
2.05198e-06
0.000243166
2.0829e-06
0.000241052
2.11326e-06
0.000238909
2.14308e-06
0.000236737
2.17234e-06
0.000234536
2.20105e-06
0.000232307
2.22921e-06
0.00023005
2.25683e-06
0.000227766
2.28391e-06
0.000225455
2.31045e-06
0.000223119
2.33645e-06
0.000220757
2.36192e-06
0.00021837
2.38685e-06
0.000215959
2.41126e-06
0.000213524
2.43515e-06
0.000211065
2.45852e-06
0.000208584
2.48137e-06
0.00020608
2.50371e-06
0.000203555
2.52554e-06
0.000201008
2.54687e-06
0.00019844
2.56769e-06
0.000195852
2.58802e-06
0.000193244
2.60786e-06
0.000190617
2.62722e-06
0.000187971
2.64609e-06
0.000185306
2.66449e-06
0.000182624
2.68241e-06
0.000179924
2.69987e-06
0.000177207
2.71687e-06
0.000174474
2.73341e-06
0.000171724
2.7495e-06
0.000168959
2.76515e-06
0.000166179
2.78036e-06
0.000163384
2.79514e-06
0.000160574
2.80949e-06
0.000157751
2.82342e-06
0.000154914
2.83693e-06
0.000152064
2.85004e-06
0.000149201
2.86275e-06
0.000146326
2.87506e-06
0.000143439
2.88698e-06
0.000140541
2.89852e-06
0.000137631
2.90969e-06
0.00013471
2.92048e-06
0.000131779
2.93092e-06
0.000128839
2.94099e-06
0.000125888
2.95072e-06
0.000122928
2.96011e-06
0.000119959
2.96916e-06
0.000116981
2.97788e-06
0.000113994
2.98628e-06
0.000111
2.99436e-06
0.000107998
3.00213e-06
0.000104988
3.0096e-06
0.000101971
3.01678e-06
9.89478e-05
3.02366e-06
9.59176e-05
3.03026e-06
9.2881e-05
3.03658e-06
8.98384e-05
3.04264e-06
8.67899e-05
3.04842e-06
8.3736e-05
3.05395e-06
8.06767e-05
3.05923e-06
7.76125e-05
3.06425e-06
7.45435e-05
3.06904e-06
7.14699e-05
3.07359e-06
6.8392e-05
3.0779e-06
6.531e-05
3.08199e-06
6.22241e-05
3.08586e-06
5.91346e-05
3.08951e-06
5.60417e-05
3.09295e-06
5.29455e-05
3.09619e-06
4.98463e-05
3.09921e-06
4.67442e-05
3.10204e-06
4.36395e-05
3.10468e-06
4.05324e-05
3.10712e-06
3.7423e-05
3.10937e-06
3.43116e-05
3.11144e-06
3.11983e-05
3.11332e-06
2.80833e-05
3.11503e-06
2.49667e-05
3.11655e-06
2.18488e-05
3.1179e-06
1.87297e-05
3.11908e-06
1.56096e-05
3.12009e-06
1.24887e-05
3.12093e-06
9.36711e-06
3.12159e-06
6.24502e-06
3.12209e-06
3.12259e-06
3.12242e-06
3.12259e-06
3.52245e-06
-7.04469e-06
7.04469e-06
-7.04427e-06
1.05665e-05
-7.04344e-06
1.40877e-05
-7.04218e-06
1.76081e-05
-7.0405e-06
2.11274e-05
-7.03839e-06
2.46454e-05
-7.03584e-06
2.81619e-05
-7.03286e-06
3.16768e-05
-7.02943e-06
3.51896e-05
-7.02554e-06
3.87004e-05
-7.02118e-06
4.22086e-05
-7.01634e-06
4.57143e-05
-7.01101e-06
4.9217e-05
-7.00518e-06
5.27166e-05
-6.99884e-06
5.62127e-05
-6.99196e-06
5.97051e-05
-6.98453e-06
6.31935e-05
-6.97654e-06
6.66776e-05
-6.96796e-06
7.01572e-05
-6.95879e-06
7.36318e-05
-6.94899e-06
7.71013e-05
-6.93855e-06
8.05651e-05
-6.92744e-06
8.40232e-05
-6.91566e-06
8.74749e-05
-6.90316e-06
9.09201e-05
-6.88993e-06
9.43582e-05
-6.87595e-06
9.7789e-05
-6.86119e-06
0.000101212
-6.84562e-06
0.000104627
-6.82922e-06
0.000108033
-6.81196e-06
0.00011143
-6.79382e-06
0.000114818
-6.77476e-06
0.000118195
-6.75477e-06
0.000121563
-6.73381e-06
0.000124919
-6.71185e-06
0.000128263
-6.68886e-06
0.000131596
-6.66483e-06
0.000134916
-6.63971e-06
0.000138223
-6.61348e-06
0.000141517
-6.58611e-06
0.000144796
-6.55758e-06
0.00014806
-6.52785e-06
0.000151309
-6.4969e-06
0.000154541
-6.4647e-06
0.000157757
-6.43122e-06
0.000160956
-6.39643e-06
0.000164136
-6.36031e-06
0.000167298
-6.32284e-06
0.000170441
-6.28398e-06
0.000173563
-6.24372e-06
0.000176664
-6.20204e-06
0.000179744
-6.1589e-06
0.000182801
-6.11428e-06
0.000185836
-6.06818e-06
0.000188847
-6.02056e-06
0.000191833
-5.97142e-06
0.000194793
-5.92073e-06
0.000197728
-5.86847e-06
0.000200636
-5.81464e-06
0.000203516
-5.75923e-06
0.000206367
-5.70221e-06
0.000209189
-5.64359e-06
0.000211982
-5.58335e-06
0.000214743
-5.5215e-06
0.000217472
-5.45801e-06
0.000220169
-5.3929e-06
0.000222832
-5.32617e-06
0.000225462
-5.2578e-06
0.000228056
-5.18782e-06
0.000230615
-5.11621e-06
0.000233136
-5.043e-06
0.000235621
-4.96819e-06
0.000238067
-4.89179e-06
0.000240475
-4.81382e-06
0.000242842
-4.73428e-06
0.000245169
-4.65321e-06
0.000247455
-4.57061e-06
0.000249698
-4.48652e-06
0.000251899
-4.40095e-06
0.000254057
-4.31393e-06
0.00025617
-4.22548e-06
0.000258238
-4.13564e-06
0.00026026
-4.04445e-06
0.000262237
-3.95192e-06
0.000264166
-3.8581e-06
0.000266048
-3.76303e-06
0.000267881
-3.66674e-06
0.000269666
-3.56927e-06
0.000271402
-3.47067e-06
0.000273088
-3.37097e-06
0.000274723
-3.27023e-06
0.000276308
-3.16849e-06
0.000277841
-3.06579e-06
0.000279322
-2.96219e-06
0.000280751
-2.85773e-06
0.000282128
-2.75246e-06
0.000283451
-2.64644e-06
0.000284721
-2.53971e-06
0.000285937
-2.43233e-06
0.0002871
-2.32435e-06
0.000288208
-2.21582e-06
0.000289261
-2.1068e-06
0.00029026
-1.99734e-06
0.000291204
-1.8875e-06
0.000292092
-1.77732e-06
0.000292926
-1.66687e-06
0.000293704
-1.55619e-06
0.000294427
-1.44534e-06
0.000295094
-1.33437e-06
0.000295706
-1.22333e-06
0.000296262
-1.11228e-06
0.000296762
-1.00126e-06
0.000297208
-8.90333e-07
0.000297597
-7.79538e-07
0.000297932
-6.68926e-07
0.000298211
-5.58546e-07
0.000298435
-4.48444e-07
0.000298604
-3.38665e-07
0.000298719
-2.29254e-07
0.000298779
-1.20254e-07
0.000298785
-1.17059e-08
0.000298736
9.63488e-08
0.000298634
2.03871e-07
0.000298479
3.10823e-07
0.00029827
4.17167e-07
0.000298008
5.2287e-07
0.000297694
6.27896e-07
0.000297328
7.32213e-07
0.00029691
8.3579e-07
0.00029644
9.38598e-07
0.00029592
1.04061e-06
0.000295349
1.14179e-06
0.000294727
1.24213e-06
0.000294056
1.34159e-06
0.000293336
1.44015e-06
0.000292567
1.5378e-06
0.000291749
1.6345e-06
0.000290884
1.73025e-06
0.000289971
1.82502e-06
0.000289012
1.9188e-06
0.000288006
2.01157e-06
0.000286954
2.10332e-06
0.000285856
2.19403e-06
0.000284714
2.2837e-06
0.000283528
2.3723e-06
0.000282298
2.45984e-06
0.000281024
2.5463e-06
0.000279708
2.63167e-06
0.00027835
2.71595e-06
0.00027695
2.79913e-06
0.000275509
2.8812e-06
0.000274028
2.96216e-06
0.000272507
3.042e-06
0.000270946
3.12073e-06
0.000269346
3.19833e-06
0.000267709
3.2748e-06
0.000266033
3.35015e-06
0.000264321
3.42437e-06
0.000262572
3.49746e-06
0.000260787
3.56942e-06
0.000258967
3.64025e-06
0.000257111
3.70995e-06
0.000255222
3.77852e-06
0.000253298
3.84596e-06
0.000251342
3.91228e-06
0.000249353
3.97748e-06
0.000247332
4.04155e-06
0.000245279
4.10451e-06
0.000243196
4.16635e-06
0.000241082
4.22708e-06
0.000238939
4.2867e-06
0.000236766
4.34522e-06
0.000234564
4.40264e-06
0.000232334
4.45897e-06
0.000230077
4.5142e-06
0.000227792
4.56836e-06
0.000225482
4.62143e-06
0.000223145
4.67343e-06
0.000220782
4.72436e-06
0.000218395
4.77423e-06
0.000215983
4.82305e-06
0.000213547
4.87082e-06
0.000211088
4.91755e-06
0.000208606
4.96325e-06
0.000206102
5.00792e-06
0.000203576
5.05158e-06
0.000201029
5.09423e-06
0.000198461
5.13588e-06
0.000195872
5.17654e-06
0.000193264
5.21621e-06
0.000190636
5.25492e-06
0.000187989
5.29266e-06
0.000185324
5.32944e-06
0.000182642
5.36529e-06
0.000179941
5.4002e-06
0.000177224
5.43419e-06
0.00017449
5.46727e-06
0.00017174
5.49945e-06
0.000168975
5.53074e-06
0.000166194
5.56115e-06
0.000163398
5.5907e-06
0.000160588
5.61939e-06
0.000157764
5.64725e-06
0.000154927
5.67428e-06
0.000152077
5.70049e-06
0.000149213
5.72589e-06
0.000146338
5.75051e-06
0.000143451
5.77435e-06
0.000140552
5.79742e-06
0.000137642
5.81974e-06
0.000134721
5.84133e-06
0.00013179
5.86219e-06
0.000128848
5.88234e-06
0.000125897
5.90179e-06
0.000122937
5.92055e-06
0.000119967
5.93864e-06
0.000116989
5.95608e-06
0.000114002
5.97287e-06
0.000111008
5.98903e-06
0.000108005
6.00457e-06
0.000104995
6.0195e-06
0.000101978
6.03384e-06
9.89545e-05
6.04761e-06
9.59239e-05
6.0608e-06
9.28871e-05
6.07344e-06
8.98442e-05
6.08554e-06
8.67955e-05
6.09711e-06
8.37413e-05
6.10816e-06
8.06818e-05
6.1187e-06
7.76173e-05
6.12875e-06
7.4548e-05
6.13831e-06
7.14742e-05
6.1474e-06
6.83961e-05
6.15603e-06
6.53139e-05
6.16421e-06
6.22278e-05
6.17194e-06
5.91381e-05
6.17924e-06
5.60449e-05
6.18611e-06
5.29485e-05
6.19258e-06
4.98491e-05
6.19863e-06
4.67469e-05
6.20428e-06
4.3642e-05
6.20955e-06
4.05347e-05
6.21443e-06
3.74251e-05
6.21893e-06
3.43135e-05
6.22306e-06
3.12e-05
6.22683e-06
2.80848e-05
6.23023e-06
2.49681e-05
6.23328e-06
2.185e-05
6.23598e-06
1.87307e-05
6.23834e-06
1.56105e-05
6.24035e-06
1.24894e-05
6.24202e-06
9.36761e-06
6.24336e-06
6.24535e-06
6.24435e-06
3.12276e-06
6.24502e-06
6.24535e-06
3.52287e-06
-1.05676e-05
7.04553e-06
-1.05669e-05
1.05678e-05
-1.05657e-05
1.40894e-05
-1.05638e-05
1.76102e-05
-1.05613e-05
2.11299e-05
-1.05581e-05
2.46484e-05
-1.05543e-05
2.81654e-05
-1.05499e-05
3.16807e-05
-1.05447e-05
3.5194e-05
-1.05389e-05
3.87052e-05
-1.05324e-05
4.2214e-05
-1.05251e-05
4.57201e-05
-1.05172e-05
4.92234e-05
-1.05084e-05
5.27234e-05
-1.04989e-05
5.62201e-05
-1.04886e-05
5.97131e-05
-1.04775e-05
6.32021e-05
-1.04655e-05
6.66868e-05
-1.04527e-05
7.0167e-05
-1.0439e-05
7.36423e-05
-1.04243e-05
7.71124e-05
-1.04086e-05
8.0577e-05
-1.0392e-05
8.40357e-05
-1.03744e-05
8.74882e-05
-1.03557e-05
9.09341e-05
-1.03358e-05
9.4373e-05
-1.03149e-05
9.78046e-05
-1.02928e-05
0.000101228
-1.02695e-05
0.000104644
-1.02449e-05
0.000108051
-1.0219e-05
0.000111449
-1.01919e-05
0.000114838
-1.01633e-05
0.000118216
-1.01334e-05
0.000121585
-1.0102e-05
0.000124942
-1.00691e-05
0.000128288
-1.00346e-05
0.000131621
-9.99859e-06
0.000134943
-9.96095e-06
0.000138251
-9.92165e-06
0.000141545
-9.88063e-06
0.000144826
-9.83787e-06
0.000148091
-9.79331e-06
0.000151341
-9.74691e-06
0.000154575
-9.69864e-06
0.000157792
-9.64845e-06
0.000160992
-9.59631e-06
0.000164174
-9.54216e-06
0.000167337
-9.48599e-06
0.000170481
-9.42773e-06
0.000173604
-9.36737e-06
0.000176707
-9.30487e-06
0.000179789
-9.24018e-06
0.000182848
-9.17329e-06
0.000185884
-9.10416e-06
0.000188896
-9.03276e-06
0.000191883
-8.95906e-06
0.000194846
-8.88304e-06
0.000197782
-8.80468e-06
0.000200691
-8.72395e-06
0.000203573
-8.64084e-06
0.000206426
-8.55533e-06
0.00020925
-8.46741e-06
0.000212043
-8.37706e-06
0.000214806
-8.28427e-06
0.000217537
-8.18905e-06
0.000220236
-8.09139e-06
0.000222901
-7.99128e-06
0.000225532
-7.88873e-06
0.000228128
-7.78374e-06
0.000230688
-7.67633e-06
0.000233211
-7.5665e-06
0.000235697
-7.45427e-06
0.000238145
-7.33965e-06
0.000240554
-7.22267e-06
0.000242923
-7.10335e-06
0.000245252
-6.98172e-06
0.000247539
-6.8578e-06
0.000249784
-6.73162e-06
0.000251986
-6.60323e-06
0.000254145
-6.47267e-06
0.00025626
-6.33996e-06
0.000258329
-6.20517e-06
0.000260353
-6.06833e-06
0.00026233
-5.9295e-06
0.000264261
-5.78872e-06
0.000266144
-5.64607e-06
0.000267979
-5.50158e-06
0.000269765
-5.35533e-06
0.000271502
-5.20737e-06
0.000273189
-5.05777e-06
0.000274825
-4.9066e-06
0.00027641
-4.75393e-06
0.000277944
-4.59982e-06
0.000279427
-4.44436e-06
0.000280856
-4.2876e-06
0.000282234
-4.12964e-06
0.000283558
-3.97054e-06
0.000284828
-3.81038e-06
0.000286045
-3.64924e-06
0.000287208
-3.48721e-06
0.000288317
-3.32435e-06
0.000289371
-3.16075e-06
0.00029037
-2.9965e-06
0.000291314
-2.83166e-06
0.000292203
-2.66633e-06
0.000293037
-2.50058e-06
0.000293815
-2.3345e-06
0.000294538
-2.16816e-06
0.000295205
-2.00164e-06
0.000295817
-1.83502e-06
0.000296373
-1.66837e-06
0.000296873
-1.50179e-06
0.000297318
-1.33533e-06
0.000297708
-1.16908e-06
0.000298042
-1.0031e-06
0.000298321
-8.37472e-07
0.000298545
-6.72263e-07
0.000298714
-5.07539e-07
0.000298828
-3.43369e-07
0.000298887
-1.79815e-07
0.000298893
-1.69429e-08
0.000298844
1.45188e-07
0.000298741
3.06519e-07
0.000298585
4.66992e-07
0.000298376
6.26553e-07
0.000298113
7.85149e-07
0.000297798
9.42729e-07
0.000297431
1.09924e-06
0.000297013
1.25465e-06
0.000296542
1.40889e-06
0.000296021
1.56194e-06
0.000295449
1.71375e-06
0.000294827
1.86429e-06
0.000294155
2.01351e-06
0.000293434
2.16138e-06
0.000292664
2.30787e-06
0.000291845
2.45295e-06
0.000290979
2.59659e-06
0.000290065
2.73877e-06
0.000289104
2.87946e-06
0.000288097
3.01863e-06
0.000287044
3.15627e-06
0.000285946
3.29235e-06
0.000284803
3.42687e-06
0.000283615
3.55979e-06
0.000282384
3.69111e-06
0.00028111
3.82081e-06
0.000279792
3.94887e-06
0.000278433
4.0753e-06
0.000277032
4.20007e-06
0.00027559
4.32319e-06
0.000274108
4.44463e-06
0.000272585
4.5644e-06
0.000271023
4.68249e-06
0.000269423
4.7989e-06
0.000267784
4.91361e-06
0.000266108
5.02664e-06
0.000264394
5.13797e-06
0.000262644
5.2476e-06
0.000260858
5.35554e-06
0.000259036
5.46178e-06
0.00025718
5.56633e-06
0.000255289
5.66919e-06
0.000253365
5.77035e-06
0.000251407
5.86983e-06
0.000249417
5.96762e-06
0.000247395
6.06373e-06
0.000245341
6.15816e-06
0.000243257
6.25092e-06
0.000241142
6.34201e-06
0.000238997
6.43144e-06
0.000236823
6.51921e-06
0.00023462
6.60533e-06
0.00023239
6.68982e-06
0.000230131
6.77266e-06
0.000227846
6.85388e-06
0.000225534
6.93348e-06
0.000223195
7.01148e-06
0.000220832
7.08787e-06
0.000218444
7.16267e-06
0.000216031
7.23588e-06
0.000213594
7.30753e-06
0.000211134
7.37762e-06
0.000208651
7.44616e-06
0.000206146
7.51316e-06
0.000203619
7.57863e-06
0.00020107
7.64259e-06
0.000198501
7.70506e-06
0.000195912
7.76603e-06
0.000193302
7.82553e-06
0.000190674
7.88358e-06
0.000188026
7.94017e-06
0.00018536
7.99534e-06
0.000182676
8.0491e-06
0.000179975
8.10145e-06
0.000177257
8.15242e-06
0.000174522
8.20202e-06
0.000171771
8.25028e-06
0.000169005
8.2972e-06
0.000166223
8.34281e-06
0.000163427
8.38711e-06
0.000160616
8.43014e-06
0.000157791
8.47191e-06
0.000154953
8.51243e-06
0.000152102
8.55173e-06
0.000149238
8.58983e-06
0.000146362
8.62674e-06
0.000143474
8.66248e-06
0.000140574
8.69707e-06
0.000137663
8.73054e-06
0.000134742
8.7629e-06
0.00013181
8.79417e-06
0.000128868
8.82438e-06
0.000125916
8.85353e-06
0.000122955
8.88167e-06
0.000119985
8.90879e-06
0.000117006
8.93492e-06
0.000114019
8.96009e-06
0.000111023
8.98431e-06
0.00010802
9.00761e-06
0.00010501
9.02999e-06
0.000101992
9.05149e-06
9.89677e-05
9.07212e-06
9.59366e-05
9.09189e-06
9.28992e-05
9.11084e-06
8.98557e-05
9.12897e-06
8.68065e-05
9.14631e-06
8.37518e-05
9.16287e-06
8.06918e-05
9.17867e-06
7.76269e-05
9.19373e-06
7.45571e-05
9.20806e-06
7.14828e-05
9.22168e-06
6.84043e-05
9.23461e-06
6.53216e-05
9.24686e-06
6.22351e-05
9.25845e-06
5.91449e-05
9.26939e-06
5.60514e-05
9.27969e-06
5.29546e-05
9.28937e-06
4.98547e-05
9.29844e-06
4.67521e-05
9.30691e-06
4.36469e-05
9.3148e-06
4.05392e-05
9.32211e-06
3.74293e-05
9.32886e-06
3.43173e-05
9.33505e-06
3.12034e-05
9.34069e-06
2.80878e-05
9.34579e-06
2.49708e-05
9.35036e-06
2.18523e-05
9.35441e-06
1.87327e-05
9.35794e-06
1.56121e-05
9.36095e-06
1.24907e-05
9.36345e-06
9.36861e-06
9.36545e-06
6.24601e-06
9.36695e-06
3.12309e-06
9.36794e-06
9.36844e-06
3.52349e-06
-1.40911e-05
7.04678e-06
-1.40902e-05
1.05697e-05
-1.40886e-05
1.40919e-05
-1.40861e-05
1.76133e-05
-1.40827e-05
2.11337e-05
-1.40785e-05
2.46529e-05
-1.40735e-05
2.81705e-05
-1.40675e-05
3.16865e-05
-1.40607e-05
3.52005e-05
-1.40529e-05
3.87125e-05
-1.40443e-05
4.2222e-05
-1.40346e-05
4.57289e-05
-1.4024e-05
4.92329e-05
-1.40124e-05
5.27338e-05
-1.39998e-05
5.62312e-05
-1.39861e-05
5.97251e-05
-1.39713e-05
6.32149e-05
-1.39554e-05
6.67006e-05
-1.39383e-05
7.01817e-05
-1.39201e-05
7.36579e-05
-1.39005e-05
7.7129e-05
-1.38797e-05
8.05946e-05
-1.38576e-05
8.40544e-05
-1.38341e-05
8.7508e-05
-1.38092e-05
9.0955e-05
-1.37829e-05
9.43952e-05
-1.3755e-05
9.7828e-05
-1.37256e-05
0.000101253
-1.36946e-05
0.00010467
-1.36619e-05
0.000108078
-1.36275e-05
0.000111478
-1.35913e-05
0.000114868
-1.35533e-05
0.000118248
-1.35134e-05
0.000121618
-1.34716e-05
0.000124976
-1.34278e-05
0.000128324
-1.33819e-05
0.000131659
-1.3334e-05
0.000134982
-1.32839e-05
0.000138292
-1.32315e-05
0.000141588
-1.31769e-05
0.00014487
-1.31199e-05
0.000148137
-1.30606e-05
0.000151389
-1.29988e-05
0.000154625
-1.29345e-05
0.000157844
-1.28677e-05
0.000161046
-1.27982e-05
0.00016423
-1.27261e-05
0.000167395
-1.26512e-05
0.000170541
-1.25736e-05
0.000173667
-1.24932e-05
0.000176772
-1.24099e-05
0.000179856
-1.23237e-05
0.000182917
-1.22345e-05
0.000185955
-1.21424e-05
0.000188969
-1.20472e-05
0.000191959
-1.1949e-05
0.000194924
-1.18477e-05
0.000197863
-1.17432e-05
0.000200774
-1.16356e-05
0.000203658
-1.15249e-05
0.000206514
-1.14109e-05
0.00020934
-1.12936e-05
0.000212136
-1.11732e-05
0.000214902
-1.10495e-05
0.000217635
-1.09225e-05
0.000220336
-1.07923e-05
0.000223003
-1.06588e-05
0.000225637
-1.05221e-05
0.000228235
-1.03821e-05
0.000230798
-1.02389e-05
0.000233324
-1.00924e-05
0.000235812
-9.94274e-06
0.000238262
-9.78988e-06
0.000240674
-9.63387e-06
0.000243045
-9.47474e-06
0.000245376
-9.31251e-06
0.000247665
-9.14723e-06
0.000249912
-8.97894e-06
0.000252117
-8.8077e-06
0.000254278
-8.63354e-06
0.000256394
-8.45653e-06
0.000258466
-8.27674e-06
0.000260492
-8.09421e-06
0.000262471
-7.90901e-06
0.000264404
-7.72123e-06
0.000266289
-7.53093e-06
0.000268125
-7.33819e-06
0.000269913
-7.14308e-06
0.000271651
-6.94571e-06
0.00027334
-6.74614e-06
0.000274978
-6.54447e-06
0.000276565
-6.3408e-06
0.0002781
-6.13521e-06
0.000279583
-5.92781e-06
0.000281014
-5.71869e-06
0.000282393
-5.50795e-06
0.000283718
-5.29569e-06
0.00028499
-5.08203e-06
0.000286207
-4.86705e-06
0.000287371
-4.65088e-06
0.00028848
-4.43362e-06
0.000289535
-4.21536e-06
0.000290535
-3.99623e-06
0.000291479
-3.77633e-06
0.000292369
-3.55576e-06
0.000293203
-3.33464e-06
0.000293981
-3.11307e-06
0.000294704
-2.89115e-06
0.000295372
-2.669e-06
0.000295983
-2.44672e-06
0.000296539
-2.22442e-06
0.00029704
-2.00218e-06
0.000297485
-1.78012e-06
0.000297874
-1.55834e-06
0.000298208
-1.33693e-06
0.000298486
-1.11598e-06
0.00029871
-8.95594e-07
0.000298878
-6.75859e-07
0.000298991
-4.56864e-07
0.00029905
-2.38696e-07
0.000299055
-2.14376e-08
0.000299005
1.94829e-07
0.000298902
4.10025e-07
0.000298745
6.24075e-07
0.000298534
8.36906e-07
0.000298271
1.04845e-06
0.000297955
1.25863e-06
0.000297587
1.46739e-06
0.000297167
1.67466e-06
0.000296695
1.88039e-06
0.000296173
2.08452e-06
0.0002956
2.28699e-06
0.000294976
2.48776e-06
0.000294303
2.68677e-06
0.00029358
2.88398e-06
0.000292809
3.07935e-06
0.000291989
3.27284e-06
0.000291121
3.4644e-06
0.000290206
3.65401e-06
0.000289244
3.84163e-06
0.000288235
4.02723e-06
0.00028718
4.21078e-06
0.000286081
4.39225e-06
0.000284936
4.57163e-06
0.000283747
4.74888e-06
0.000282514
4.92399e-06
0.000281238
5.09694e-06
0.000279919
5.26772e-06
0.000278558
5.4363e-06
0.000277155
5.60268e-06
0.000275712
5.76685e-06
0.000274227
5.92878e-06
0.000272703
6.08849e-06
0.00027114
6.24595e-06
0.000269538
6.40116e-06
0.000267897
6.55412e-06
0.000266219
6.70482e-06
0.000264504
6.85326e-06
0.000262752
6.99944e-06
0.000260964
7.14336e-06
0.000259141
7.28501e-06
0.000257283
7.42441e-06
0.00025539
7.56155e-06
0.000253464
7.69643e-06
0.000251505
7.82906e-06
0.000249513
7.95944e-06
0.000247489
8.08758e-06
0.000245434
8.21348e-06
0.000243348
8.33715e-06
0.000241231
8.45859e-06
0.000239085
8.57782e-06
0.000236909
8.69484e-06
0.000234705
8.80967e-06
0.000232472
8.9223e-06
0.000230212
9.03275e-06
0.000227925
9.14103e-06
0.000225611
9.24715e-06
0.000223272
9.35113e-06
0.000220907
9.45297e-06
0.000218517
9.55268e-06
0.000216102
9.65029e-06
0.000213664
9.7458e-06
0.000211202
9.83924e-06
0.000208718
9.9306e-06
0.000206211
1.00199e-05
0.000203683
1.01072e-05
0.000201133
1.01925e-05
0.000198562
1.02757e-05
0.000195971
1.0357e-05
0.00019336
1.04363e-05
0.00019073
1.05137e-05
0.000188081
1.05891e-05
0.000185414
1.06627e-05
0.000182729
1.07343e-05
0.000180026
1.08041e-05
0.000177307
1.0872e-05
0.00017457
1.09381e-05
0.000171818
1.10024e-05
0.000169051
1.1065e-05
0.000166268
1.11258e-05
0.00016347
1.11848e-05
0.000160658
1.12422e-05
0.000157832
1.12978e-05
0.000154993
1.13518e-05
0.00015214
1.14042e-05
0.000149275
1.14549e-05
0.000146398
1.15041e-05
0.000143508
1.15518e-05
0.000140608
1.15978e-05
0.000137696
1.16424e-05
0.000134773
1.16856e-05
0.00013184
1.17272e-05
0.000128897
1.17675e-05
0.000125944
1.18063e-05
0.000122982
1.18438e-05
0.000120011
1.18799e-05
0.000117031
1.19147e-05
0.000114043
1.19483e-05
0.000111047
1.19805e-05
0.000108043
1.20116e-05
0.000105031
1.20414e-05
0.000102013
1.207e-05
9.89874e-05
1.20975e-05
9.59555e-05
1.21238e-05
9.29173e-05
1.21491e-05
8.98731e-05
1.21732e-05
8.68231e-05
1.21963e-05
8.37676e-05
1.22183e-05
8.07069e-05
1.22394e-05
7.76412e-05
1.22594e-05
7.45707e-05
1.22785e-05
7.14958e-05
1.22967e-05
6.84165e-05
1.23139e-05
6.53332e-05
1.23302e-05
6.2246e-05
1.23456e-05
5.91552e-05
1.23602e-05
5.6061e-05
1.23739e-05
5.29636e-05
1.23868e-05
4.98632e-05
1.23989e-05
4.676e-05
1.24101e-05
4.36542e-05
1.24206e-05
4.05459e-05
1.24304e-05
3.74354e-05
1.24393e-05
3.43229e-05
1.24476e-05
3.12085e-05
1.24551e-05
2.80924e-05
1.24619e-05
2.49748e-05
1.2468e-05
2.18559e-05
1.24734e-05
1.87358e-05
1.2478e-05
1.56146e-05
1.24821e-05
1.24927e-05
1.24854e-05
9.3701e-06
1.24881e-05
6.24701e-06
1.249e-05
3.12359e-06
1.24914e-05
1.2492e-05
3.52432e-06
-1.76154e-05
7.04845e-06
-1.76143e-05
1.05722e-05
-1.76123e-05
1.40953e-05
-1.76092e-05
1.76175e-05
-1.7605e-05
2.11388e-05
-1.75998e-05
2.46588e-05
-1.75935e-05
2.81774e-05
-1.75861e-05
3.16942e-05
-1.75776e-05
3.52092e-05
-1.75679e-05
3.87221e-05
-1.75571e-05
4.22326e-05
-1.75451e-05
4.57405e-05
-1.75319e-05
4.92455e-05
-1.75175e-05
5.27475e-05
-1.75017e-05
5.6246e-05
-1.74847e-05
5.9741e-05
-1.74663e-05
6.3232e-05
-1.74464e-05
6.67189e-05
-1.74252e-05
7.02012e-05
-1.74024e-05
7.36787e-05
-1.73781e-05
7.71512e-05
-1.73522e-05
8.06181e-05
-1.73246e-05
8.40793e-05
-1.72953e-05
8.75344e-05
-1.72643e-05
9.09829e-05
-1.72314e-05
9.44246e-05
-1.71967e-05
9.7859e-05
-1.716e-05
0.000101286
-1.71213e-05
0.000104704
-1.70806e-05
0.000108115
-1.70376e-05
0.000111516
-1.69925e-05
0.000114908
-1.69451e-05
0.00011829
-1.68954e-05
0.000121661
-1.68432e-05
0.000125022
-1.67886e-05
0.000128372
-1.67314e-05
0.000131709
-1.66715e-05
0.000135034
-1.6609e-05
0.000138346
-1.65437e-05
0.000141645
-1.64755e-05
0.00014493
-1.64044e-05
0.000148199
-1.63303e-05
0.000151454
-1.62532e-05
0.000154692
-1.61729e-05
0.000157914
-1.60895e-05
0.000161118
-1.60027e-05
0.000164305
-1.59127e-05
0.000167473
-1.58192e-05
0.000170622
-1.57223e-05
0.00017375
-1.56218e-05
0.000176858
-1.55178e-05
0.000179945
-1.54101e-05
0.000183009
-1.52988e-05
0.00018605
-1.51837e-05
0.000189068
-1.50648e-05
0.000192061
-1.49421e-05
0.000195029
-1.48155e-05
0.00019797
-1.4685e-05
0.000200885
-1.45505e-05
0.000203772
-1.44121e-05
0.000206631
-1.42696e-05
0.000209461
-1.41231e-05
0.00021226
-1.39726e-05
0.000215029
-1.3818e-05
0.000217765
-1.36593e-05
0.000220469
-1.34965e-05
0.00022314
-1.33297e-05
0.000225777
-1.31587e-05
0.000228378
-1.29837e-05
0.000230944
-1.28046e-05
0.000233473
-1.26215e-05
0.000235965
-1.24344e-05
0.000238418
-1.22433e-05
0.000240833
-1.20482e-05
0.000243207
-1.18492e-05
0.000245541
-1.16463e-05
0.000247833
-1.14397e-05
0.000250084
-1.12292e-05
0.000252291
-1.10151e-05
0.000254455
-1.07973e-05
0.000256574
-1.05759e-05
0.000258649
-1.0351e-05
0.000260677
-1.01227e-05
0.000262659
-9.89112e-06
0.000264594
-9.65625e-06
0.000266482
-9.41823e-06
0.00026832
-9.17715e-06
0.000270111
-8.93312e-06
0.000271851
-8.68623e-06
0.000273542
-8.43661e-06
0.000275181
-8.18435e-06
0.00027677
-7.92958e-06
0.000278307
-7.67242e-06
0.000279793
-7.41298e-06
0.000281225
-7.15139e-06
0.000282605
-6.88777e-06
0.000283932
-6.62226e-06
0.000285205
-6.35498e-06
0.000286424
-6.08607e-06
0.000287588
-5.81565e-06
0.000288699
-5.54387e-06
0.000289754
-5.27085e-06
0.000290755
-4.99673e-06
0.0002917
-4.72165e-06
0.00029259
-4.44574e-06
0.000293424
-4.16914e-06
0.000294203
-3.89197e-06
0.000294927
-3.61438e-06
0.000295594
-3.3365e-06
0.000296206
-3.05846e-06
0.000296762
-2.78038e-06
0.000297262
-2.5024e-06
0.000297706
-2.22464e-06
0.000298095
-1.94723e-06
0.000298429
-1.67028e-06
0.000298707
-1.39393e-06
0.000298929
-1.11827e-06
0.000299097
-8.43438e-07
0.00029921
-5.69533e-07
0.000299268
-2.96665e-07
0.000299271
-2.49399e-08
0.00029922
2.45541e-07
0.000299116
5.14679e-07
0.000298957
7.82379e-07
0.000298746
1.04855e-06
0.000298481
1.3131e-06
0.000298164
1.57595e-06
0.000297794
1.83702e-06
0.000297373
2.09622e-06
0.0002969
2.35349e-06
0.000296375
2.60875e-06
0.0002958
2.86193e-06
0.000295175
3.11298e-06
0.0002945
3.36184e-06
0.000293776
3.60843e-06
0.000293002
3.85272e-06
0.00029218
4.09465e-06
0.000291311
4.33417e-06
0.000290393
4.57124e-06
0.000289429
4.80583e-06
0.000288419
5.03788e-06
0.000287362
5.26736e-06
0.00028626
5.49425e-06
0.000285113
5.71851e-06
0.000283922
5.94012e-06
0.000282687
6.15904e-06
0.000281409
6.37526e-06
0.000280087
6.58876e-06
0.000278724
6.79951e-06
0.000277319
7.00751e-06
0.000275874
7.21273e-06
0.000274387
7.41517e-06
0.000272861
7.61481e-06
0.000271295
7.81165e-06
0.000269691
8.00567e-06
0.000268048
8.19688e-06
0.000266367
8.38526e-06
0.00026465
8.57081e-06
0.000262896
8.75354e-06
0.000261106
8.93344e-06
0.00025928
9.11051e-06
0.00025742
9.28475e-06
0.000255525
9.45616e-06
0.000253597
9.62476e-06
0.000251635
9.79054e-06
0.000249641
9.9535e-06
0.000247615
1.01137e-05
0.000245558
1.0271e-05
0.000243469
1.04256e-05
0.00024135
1.05774e-05
0.000239202
1.07264e-05
0.000237024
1.08727e-05
0.000234817
1.10162e-05
0.000232583
1.1157e-05
0.000230321
1.1295e-05