/*--------------------------------*- C++ -*----------------------------------*\
| =========                 |                                                 |
| \\      /  F ield         | OpenFOAM: The Open Source CFD Toolbox           |
|  \\    /   O peration     | Version:  v2012                                 |
|   \\  /    A nd           | Website:  www.openfoam.com                      |
|    \\/     M anipulation  |                                                 |
\*---------------------------------------------------------------------------*/
FoamFile
{
    version     2.0;
    format      ascii;
    class       volVectorField;
    location    "3";
    object      U;
}
// * * * * * * * * * * * * * * * * * * * * * * * * * * * * * * * * * * * * * //

dimensions      [0 1 -1 0 0 0 0];


internalField   nonuniform List<vector> 
65536
(
(0.00071792 -0.000717899 0)
(0.00215372 -0.000717856 0)
(0.00358939 -0.000717771 0)
(0.00502484 -0.000717642 0)
(0.00646 -0.000717471 0)
(0.00789477 -0.000717255 0)
(0.00932906 -0.000716995 0)
(0.0107628 -0.000716691 0)
(0.0121959 -0.00071634 0)
(0.0136282 -0.000715943 0)
(0.0150597 -0.000715498 0)
(0.0164902 -0.000715004 0)
(0.0179198 -0.00071446 0)
(0.0193481 -0.000713865 0)
(0.0207753 -0.000713217 0)
(0.022201 -0.000712515 0)
(0.0236254 -0.000711757 0)
(0.0250481 -0.000710941 0)
(0.0264692 -0.000710065 0)
(0.0278885 -0.000709129 0)
(0.0293058 -0.000708128 0)
(0.030721 -0.000707063 0)
(0.0321341 -0.00070593 0)
(0.0335448 -0.000704727 0)
(0.0349531 -0.000703451 0)
(0.0363587 -0.000702102 0)
(0.0377615 -0.000700675 0)
(0.0391615 -0.000699168 0)
(0.0405583 -0.00069758 0)
(0.0419519 -0.000695906 0)
(0.043342 -0.000694146 0)
(0.0447285 -0.000692295 0)
(0.0461113 -0.00069035 0)
(0.04749 -0.000688311 0)
(0.0488646 -0.000686172 0)
(0.0502348 -0.000683932 0)
(0.0516005 -0.000681588 0)
(0.0529613 -0.000679136 0)
(0.0543171 -0.000676574 0)
(0.0556677 -0.000673899 0)
(0.0570128 -0.000671108 0)
(0.0583522 -0.000668198 0)
(0.0596857 -0.000665166 0)
(0.061013 -0.000662009 0)
(0.0623339 -0.000658725 0)
(0.0636481 -0.000655311 0)
(0.0649553 -0.000651764 0)
(0.0662553 -0.000648082 0)
(0.0675477 -0.000644261 0)
(0.0688324 -0.000640299 0)
(0.0701091 -0.000636194 0)
(0.0713774 -0.000631944 0)
(0.072637 -0.000627546 0)
(0.0738877 -0.000622998 0)
(0.0751291 -0.000618298 0)
(0.076361 -0.000613444 0)
(0.0775831 -0.000608434 0)
(0.0787949 -0.000603267 0)
(0.0799963 -0.000597941 0)
(0.0811869 -0.000592454 0)
(0.0823663 -0.000586806 0)
(0.0835342 -0.000580995 0)
(0.0846904 -0.00057502 0)
(0.0858345 -0.000568881 0)
(0.0869661 -0.000562576 0)
(0.088085 -0.000556107 0)
(0.0891907 -0.000549471 0)
(0.090283 -0.00054267 0)
(0.0913615 -0.000535703 0)
(0.092426 -0.000528571 0)
(0.093476 -0.000521275 0)
(0.0945112 -0.000513815 0)
(0.0955314 -0.000506191 0)
(0.0965362 -0.000498406 0)
(0.0975252 -0.000490461 0)
(0.0984982 -0.000482357 0)
(0.0994548 -0.000474096 0)
(0.100395 -0.000465681 0)
(0.101318 -0.000457112 0)
(0.102223 -0.000448393 0)
(0.103111 -0.000439527 0)
(0.103982 -0.000430516 0)
(0.104834 -0.000421363 0)
(0.105667 -0.000412071 0)
(0.106482 -0.000402645 0)
(0.107278 -0.000393087 0)
(0.108054 -0.0003834 0)
(0.108812 -0.00037359 0)
(0.109549 -0.000363661 0)
(0.110266 -0.000353615 0)
(0.110964 -0.000343459 0)
(0.11164 -0.000333196 0)
(0.112296 -0.00032283 0)
(0.112932 -0.000312368 0)
(0.113546 -0.000301814 0)
(0.114139 -0.000291172 0)
(0.114711 -0.000280448 0)
(0.115261 -0.000269647 0)
(0.115789 -0.000258774 0)
(0.116296 -0.000247835 0)
(0.116781 -0.000236834 0)
(0.117243 -0.000225778 0)
(0.117684 -0.000214672 0)
(0.118102 -0.000203521 0)
(0.118498 -0.000192331 0)
(0.118872 -0.000181107 0)
(0.119223 -0.000169854 0)
(0.119551 -0.000158579 0)
(0.119857 -0.000147286 0)
(0.12014 -0.000135981 0)
(0.120401 -0.000124669 0)
(0.120639 -0.000113356 0)
(0.120854 -0.000102046 0)
(0.121047 -9.07444e-05 0)
(0.121217 -7.94569e-05 0)
(0.121365 -6.8188e-05 0)
(0.12149 -5.69426e-05 0)
(0.121593 -4.57255e-05 0)
(0.121673 -3.45412e-05 0)
(0.121731 -2.33943e-05 0)
(0.121766 -1.22892e-05 0)
(0.12178 -1.23008e-06 0)
(0.121771 9.77886e-06 0)
(0.121741 2.07336e-05 0)
(0.121688 3.16304e-05 0)
(0.121614 4.24654e-05 0)
(0.121518 5.3235e-05 0)
(0.121401 6.39358e-05 0)
(0.121262 7.45645e-05 0)
(0.121103 8.51179e-05 0)
(0.120922 9.5593e-05 0)
(0.12072 0.000105987 0)
(0.120498 0.000116297 0)
(0.120255 0.00012652 0)
(0.119992 0.000136655 0)
(0.119708 0.000146698 0)
(0.119405 0.000156647 0)
(0.119082 0.000166501 0)
(0.118739 0.000176257 0)
(0.118376 0.000185914 0)
(0.117995 0.00019547 0)
(0.117595 0.000204923 0)
(0.117175 0.000214272 0)
(0.116737 0.000223516 0)
(0.116281 0.000232653 0)
(0.115807 0.000241682 0)
(0.115314 0.000250602 0)
(0.114804 0.000259413 0)
(0.114276 0.000268113 0)
(0.113732 0.000276701 0)
(0.11317 0.000285177 0)
(0.112591 0.000293541 0)
(0.111995 0.000301791 0)
(0.111383 0.000309928 0)
(0.110755 0.000317951 0)
(0.110112 0.000325859 0)
(0.109452 0.000333652 0)
(0.108777 0.000341331 0)
(0.108086 0.000348895 0)
(0.107381 0.000356343 0)
(0.106661 0.000363677 0)
(0.105926 0.000370895 0)
(0.105177 0.000377998 0)
(0.104414 0.000384986 0)
(0.103637 0.00039186 0)
(0.102847 0.000398619 0)
(0.102043 0.000405263 0)
(0.101225 0.000411793 0)
(0.100395 0.000418209 0)
(0.0995525 0.000424512 0)
(0.0986972 0.000430701 0)
(0.0978296 0.000436778 0)
(0.0969499 0.000442742 0)
(0.0960585 0.000448594 0)
(0.0951555 0.000454334 0)
(0.0942411 0.000459964 0)
(0.0933155 0.000465483 0)
(0.092379 0.000470892 0)
(0.0914318 0.000476192 0)
(0.0904741 0.000481383 0)
(0.0895062 0.000486466 0)
(0.0885282 0.000491441 0)
(0.0875403 0.00049631 0)
(0.0865428 0.000501073 0)
(0.0855359 0.000505731 0)
(0.0845198 0.000510284 0)
(0.0834947 0.000514734 0)
(0.0824608 0.000519081 0)
(0.0814182 0.000523326 0)
(0.0803674 0.00052747 0)
(0.0793083 0.000531514 0)
(0.0782412 0.000535459 0)
(0.0771663 0.000539306 0)
(0.0760839 0.000543056 0)
(0.074994 0.00054671 0)
(0.0738969 0.000550268 0)
(0.0727928 0.000553733 0)
(0.0716819 0.000557105 0)
(0.0705643 0.000560385 0)
(0.0694403 0.000563575 0)
(0.0683099 0.000566675 0)
(0.0671735 0.000569688 0)
(0.0660311 0.000572613 0)
(0.064883 0.000575453 0)
(0.0637292 0.000578208 0)
(0.06257 0.00058088 0)
(0.0614056 0.00058347 0)
(0.0602361 0.00058598 0)
(0.0590616 0.00058841 0)
(0.0578824 0.000590763 0)
(0.0566985 0.000593038 0)
(0.0555101 0.000595239 0)
(0.0543175 0.000597366 0)
(0.0531206 0.00059942 0)
(0.0519197 0.000601403 0)
(0.0507149 0.000603317 0)
(0.0495064 0.000605162 0)
(0.0482942 0.000606939 0)
(0.0470785 0.000608652 0)
(0.0458595 0.000610299 0)
(0.0446373 0.000611884 0)
(0.0434119 0.000613407 0)
(0.0421836 0.000614869 0)
(0.0409524 0.000616273 0)
(0.0397184 0.000617619 0)
(0.0384819 0.000618908 0)
(0.0372428 0.000620142 0)
(0.0360012 0.000621321 0)
(0.0347574 0.000622448 0)
(0.0335114 0.000623524 0)
(0.0322633 0.000624549 0)
(0.0310132 0.000625524 0)
(0.0297611 0.000626451 0)
(0.0285073 0.000627331 0)
(0.0272518 0.000628165 0)
(0.0259946 0.000628954 0)
(0.0247359 0.000629699 0)
(0.0234758 0.0006304 0)
(0.0222143 0.000631059 0)
(0.0209515 0.000631677 0)
(0.0196875 0.000632253 0)
(0.0184224 0.00063279 0)
(0.0171563 0.000633288 0)
(0.0158892 0.000633747 0)
(0.0146213 0.000634169 0)
(0.0133525 0.000634553 0)
(0.012083 0.000634901 0)
(0.0108129 0.000635212 0)
(0.00954214 0.000635487 0)
(0.00827089 0.000635728 0)
(0.0069992 0.000635933 0)
(0.00572712 0.000636103 0)
(0.00445475 0.00063624 0)
(0.00318213 0.000636341 0)
(0.00190935 0.000636409 0)
(0.00063646 0.000636443 0)
(0.000717962 -0.00215374 0)
(0.00215384 -0.00215361 0)
(0.0035896 -0.00215335 0)
(0.00502514 -0.00215297 0)
(0.00646038 -0.00215245 0)
(0.00789524 -0.00215181 0)
(0.00932962 -0.00215103 0)
(0.0107634 -0.00215012 0)
(0.0121966 -0.00214907 0)
(0.013629 -0.00214787 0)
(0.0150606 -0.00214654 0)
(0.0164913 -0.00214506 0)
(0.0179209 -0.00214343 0)
(0.0193494 -0.00214165 0)
(0.0207766 -0.0021397 0)
(0.0222025 -0.0021376 0)
(0.0236269 -0.00213533 0)
(0.0250498 -0.00213288 0)
(0.026471 -0.00213026 0)
(0.0278904 -0.00212745 0)
(0.0293078 -0.00212445 0)
(0.0307232 -0.00212125 0)
(0.0321364 -0.00211786 0)
(0.0335473 -0.00211425 0)
(0.0349557 -0.00211043 0)
(0.0363615 -0.00210638 0)
(0.0377645 -0.0021021 0)
(0.0391645 -0.00209759 0)
(0.0405615 -0.00209282 0)
(0.0419553 -0.00208781 0)
(0.0433456 -0.00208253 0)
(0.0447323 -0.00207698 0)
(0.0461152 -0.00207115 0)
(0.0474942 -0.00206503 0)
(0.048869 -0.00205862 0)
(0.0502394 -0.0020519 0)
(0.0516052 -0.00204487 0)
(0.0529663 -0.00203752 0)
(0.0543223 -0.00202983 0)
(0.0556731 -0.00202181 0)
(0.0570185 -0.00201344 0)
(0.0583582 -0.00200471 0)
(0.0596919 -0.00199562 0)
(0.0610194 -0.00198615 0)
(0.0623406 -0.00197631 0)
(0.063655 -0.00196607 0)
(0.0649625 -0.00195543 0)
(0.0662627 -0.00194438 0)
(0.0675555 -0.00193292 0)
(0.0688405 -0.00192104 0)
(0.0701174 -0.00190873 0)
(0.071386 -0.00189598 0)
(0.0726459 -0.00188279 0)
(0.0738969 -0.00186915 0)
(0.0751387 -0.00185505 0)
(0.0763709 -0.00184049 0)
(0.0775932 -0.00182546 0)
(0.0788054 -0.00180996 0)
(0.0800071 -0.00179398 0)
(0.081198 -0.00177752 0)
(0.0823777 -0.00176058 0)
(0.083546 -0.00174315 0)
(0.0847025 -0.00172522 0)
(0.0858469 -0.00170681 0)
(0.0869788 -0.00168789 0)
(0.088098 -0.00166848 0)
(0.0892041 -0.00164858 0)
(0.0902967 -0.00162817 0)
(0.0913756 -0.00160727 0)
(0.0924404 -0.00158588 0)
(0.0934907 -0.00156399 0)
(0.0945263 -0.00154161 0)
(0.0955468 -0.00151874 0)
(0.0965519 -0.00149538 0)
(0.0975412 -0.00147154 0)
(0.0985145 -0.00144723 0)
(0.0994714 -0.00142244 0)
(0.100412 -0.00139719 0)
(0.101335 -0.00137149 0)
(0.102241 -0.00134533 0)
(0.103129 -0.00131873 0)
(0.104 -0.00129169 0)
(0.104852 -0.00126423 0)
(0.105686 -0.00123635 0)
(0.106501 -0.00120807 0)
(0.107297 -0.00117939 0)
(0.108074 -0.00115033 0)
(0.108831 -0.00112089 0)
(0.109569 -0.0010911 0)
(0.110287 -0.00106096 0)
(0.110984 -0.00103048 0)
(0.111661 -0.000999689 0)
(0.112317 -0.000968589 0)
(0.112953 -0.000937197 0)
(0.113567 -0.000905528 0)
(0.11416 -0.000873598 0)
(0.114732 -0.00084142 0)
(0.115283 -0.000809012 0)
(0.115811 -0.000776388 0)
(0.116318 -0.000743565 0)
(0.116803 -0.000710559 0)
(0.117266 -0.000677386 0)
(0.117706 -0.000644062 0)
(0.118125 -0.000610604 0)
(0.11852 -0.000577027 0)
(0.118894 -0.00054335 0)
(0.119245 -0.000509587 0)
(0.119574 -0.000475756 0)
(0.119879 -0.000441872 0)
(0.120163 -0.000407951 0)
(0.120423 -0.00037401 0)
(0.120661 -0.000340064 0)
(0.120877 -0.000306129 0)
(0.12107 -0.000272221 0)
(0.12124 -0.000238353 0)
(0.121387 -0.000204542 0)
(0.121512 -0.000170801 0)
(0.121615 -0.000137145 0)
(0.121695 -0.000103588 0)
(0.121753 -7.01426e-05 0)
(0.121788 -3.68229e-05 0)
(0.121802 -3.6415e-06 0)
(0.121793 2.93893e-05 0)
(0.121762 6.22575e-05 0)
(0.12171 9.49515e-05 0)
(0.121636 0.00012746 0)
(0.12154 0.000159772 0)
(0.121422 0.000191878 0)
(0.121284 0.000223767 0)
(0.121124 0.00025543 0)
(0.120943 0.000286859 0)
(0.120741 0.000318043 0)
(0.120518 0.000348975 0)
(0.120275 0.000379648 0)
(0.120012 0.000410053 0)
(0.119728 0.000440185 0)
(0.119425 0.000470035 0)
(0.119101 0.000499599 0)
(0.118758 0.000528869 0)
(0.118396 0.000557842 0)
(0.118014 0.000586511 0)
(0.117613 0.000614872 0)
(0.117194 0.000642921 0)
(0.116756 0.000670653 0)
(0.116299 0.000698065 0)
(0.115825 0.000725154 0)
(0.115332 0.000751916 0)
(0.114822 0.000778348 0)
(0.114294 0.000804448 0)
(0.113749 0.000830214 0)
(0.113186 0.000855643 0)
(0.112607 0.000880735 0)
(0.112012 0.000905486 0)
(0.1114 0.000929896 0)
(0.110771 0.000953965 0)
(0.110127 0.000977689 0)
(0.109467 0.00100107 0)
(0.108792 0.00102411 0)
(0.108101 0.0010468 0)
(0.107396 0.00106914 0)
(0.106676 0.00109114 0)
(0.105941 0.0011128 0)
(0.105191 0.00113411 0)
(0.104428 0.00115507 0)
(0.103651 0.00117569 0)
(0.10286 0.00119597 0)
(0.102056 0.0012159 0)
(0.101238 0.00123549 0)
(0.100408 0.00125474 0)
(0.099565 0.00127365 0)
(0.0987094 0.00129222 0)
(0.0978416 0.00131044 0)
(0.0969618 0.00132834 0)
(0.0960701 0.00134589 0)
(0.0951668 0.00136311 0)
(0.0942522 0.00138 0)
(0.0933264 0.00139656 0)
(0.0923897 0.00141278 0)
(0.0914423 0.00142868 0)
(0.0904844 0.00144426 0)
(0.0895163 0.0014595 0)
(0.088538 0.00147443 0)
(0.08755 0.00148904 0)
(0.0865523 0.00150332 0)
(0.0855451 0.0015173 0)
(0.0845288 0.00153096 0)
(0.0835035 0.0015443 0)
(0.0824694 0.00155734 0)
(0.0814267 0.00157008 0)
(0.0803756 0.00158251 0)
(0.0793163 0.00159464 0)
(0.078249 0.00160648 0)
(0.0771739 0.00161802 0)
(0.0760913 0.00162926 0)
(0.0750012 0.00164022 0)
(0.073904 0.0016509 0)
(0.0727997 0.00166129 0)
(0.0716886 0.00167141 0)
(0.0705708 0.00168125 0)
(0.0694466 0.00169081 0)
(0.0683161 0.00170011 0)
(0.0671795 0.00170915 0)
(0.0660369 0.00171792 0)
(0.0648886 0.00172644 0)
(0.0637347 0.00173471 0)
(0.0625753 0.00174272 0)
(0.0614107 0.00175049 0)
(0.060241 0.00175802 0)
(0.0590664 0.00176531 0)
(0.057887 0.00177236 0)
(0.056703 0.00177919 0)
(0.0555145 0.00178579 0)
(0.0543217 0.00179217 0)
(0.0531247 0.00179833 0)
(0.0519236 0.00180428 0)
(0.0507187 0.00181002 0)
(0.04951 0.00181555 0)
(0.0482977 0.00182088 0)
(0.0470819 0.00182602 0)
(0.0458628 0.00183096 0)
(0.0446404 0.00183571 0)
(0.0434149 0.00184028 0)
(0.0421865 0.00184467 0)
(0.0409552 0.00184888 0)
(0.0397211 0.00185291 0)
(0.0384844 0.00185678 0)
(0.0372452 0.00186048 0)
(0.0360036 0.00186402 0)
(0.0347596 0.0018674 0)
(0.0335135 0.00187062 0)
(0.0322653 0.0018737 0)
(0.0310151 0.00187662 0)
(0.0297629 0.0018794 0)
(0.028509 0.00188204 0)
(0.0272534 0.00188454 0)
(0.0259961 0.00188691 0)
(0.0247374 0.00188914 0)
(0.0234771 0.00189124 0)
(0.0222155 0.00189322 0)
(0.0209527 0.00189507 0)
(0.0196886 0.0018968 0)
(0.0184235 0.00189841 0)
(0.0171573 0.0018999 0)
(0.0158901 0.00190128 0)
(0.0146221 0.00190254 0)
(0.0133533 0.0019037 0)
(0.0120837 0.00190474 0)
(0.0108135 0.00190567 0)
(0.00954266 0.0019065 0)
(0.00827134 0.00190722 0)
(0.00699957 0.00190783 0)
(0.00572743 0.00190835 0)
(0.00445499 0.00190875 0)
(0.0031823 0.00190906 0)
(0.00190945 0.00190926 0)
(0.000636494 0.00190936 0)
(0.000718047 -0.0035897 0)
(0.0021541 -0.00358949 0)
(0.00359002 -0.00358907 0)
(0.00502574 -0.00358843 0)
(0.00646115 -0.00358757 0)
(0.00789619 -0.0035865 0)
(0.00933075 -0.0035852 0)
(0.0107648 -0.00358368 0)
(0.0121981 -0.00358193 0)
(0.0136307 -0.00357995 0)
(0.0150625 -0.00357773 0)
(0.0164933 -0.00357527 0)
(0.0179232 -0.00357256 0)
(0.0193518 -0.00356959 0)
(0.0207793 -0.00356635 0)
(0.0222054 -0.00356285 0)
(0.0236301 -0.00355907 0)
(0.0250532 -0.003555 0)
(0.0264746 -0.00355063 0)
(0.0278942 -0.00354596 0)
(0.029312 -0.00354097 0)
(0.0307276 -0.00353565 0)
(0.0321411 -0.00353 0)
(0.0335522 -0.00352399 0)
(0.0349609 -0.00351763 0)
(0.036367 -0.00351089 0)
(0.0377703 -0.00350377 0)
(0.0391707 -0.00349625 0)
(0.0405681 -0.00348832 0)
(0.0419622 -0.00347997 0)
(0.0433528 -0.00347118 0)
(0.0447399 -0.00346193 0)
(0.0461232 -0.00345223 0)
(0.0475026 -0.00344204 0)
(0.0488777 -0.00343137 0)
(0.0502486 -0.00342018 0)
(0.0516148 -0.00340847 0)
(0.0529763 -0.00339623 0)
(0.0543328 -0.00338343 0)
(0.0556841 -0.00337007 0)
(0.0570299 -0.00335613 0)
(0.05837 -0.00334159 0)
(0.0597043 -0.00332645 0)
(0.0610323 -0.00331068 0)
(0.062354 -0.00329428 0)
(0.0636689 -0.00327722 0)
(0.0649769 -0.0032595 0)
(0.0662777 -0.0032411 0)
(0.0675711 -0.003222 0)
(0.0688566 -0.00320221 0)
(0.0701341 -0.0031817 0)
(0.0714033 -0.00316046 0)
(0.0726638 -0.00313848 0)
(0.0739154 -0.00311575 0)
(0.0751578 -0.00309226 0)
(0.0763906 -0.003068 0)
(0.0776136 -0.00304296 0)
(0.0788264 -0.00301713 0)
(0.0800287 -0.00299051 0)
(0.0812202 -0.00296308 0)
(0.0824006 -0.00293484 0)
(0.0835696 -0.00290579 0)
(0.0847267 -0.00287592 0)
(0.0858718 -0.00284523 0)
(0.0870044 -0.00281371 0)
(0.0881242 -0.00278136 0)
(0.089231 -0.00274818 0)
(0.0903243 -0.00271418 0)
(0.0914038 -0.00267934 0)
(0.0924692 -0.00264368 0)
(0.0935202 -0.00260719 0)
(0.0945565 -0.00256989 0)
(0.0955776 -0.00253176 0)
(0.0965833 -0.00249283 0)
(0.0975733 -0.0024531 0)
(0.0985473 -0.00241257 0)
(0.0995048 -0.00237126 0)
(0.100446 -0.00232917 0)
(0.10137 -0.00228631 0)
(0.102276 -0.00224271 0)
(0.103165 -0.00219836 0)
(0.104036 -0.00215329 0)
(0.104889 -0.00210751 0)
(0.105723 -0.00206103 0)
(0.106539 -0.00201388 0)
(0.107336 -0.00196607 0)
(0.108113 -0.00191762 0)
(0.108871 -0.00186855 0)
(0.109609 -0.00181888 0)
(0.110327 -0.00176863 0)
(0.111025 -0.00171783 0)
(0.111702 -0.00166649 0)
(0.112359 -0.00161464 0)
(0.112995 -0.0015623 0)
(0.11361 -0.00150951 0)
(0.114203 -0.00145627 0)
(0.114775 -0.00140262 0)
(0.115326 -0.00134859 0)
(0.115855 -0.0012942 0)
(0.116362 -0.00123948 0)
(0.116847 -0.00118445 0)
(0.11731 -0.00112914 0)
(0.117751 -0.00107359 0)
(0.118169 -0.0010178 0)
(0.118565 -0.000961825 0)
(0.118939 -0.000905678 0)
(0.11929 -0.000849389 0)
(0.119619 -0.000792985 0)
(0.119925 -0.000736494 0)
(0.120208 -0.000679942 0)
(0.120469 -0.000623356 0)
(0.120707 -0.000566762 0)
(0.120922 -0.000510187 0)
(0.121115 -0.000453656 0)
(0.121285 -0.000397193 0)
(0.121432 -0.000340825 0)
(0.121557 -0.000284574 0)
(0.12166 -0.000228466 0)
(0.12174 -0.000172522 0)
(0.121797 -0.000116765 0)
(0.121833 -6.12184e-05 0)
(0.121846 -5.9022e-06 0)
(0.121837 4.91625e-05 0)
(0.121806 0.000103956 0)
(0.121753 0.000158458 0)
(0.121679 0.000212651 0)
(0.121583 0.000266516 0)
(0.121465 0.000320037 0)
(0.121326 0.000373196 0)
(0.121166 0.000425978 0)
(0.120985 0.000478368 0)
(0.120782 0.000530351 0)
(0.12056 0.000581914 0)
(0.120316 0.000633043 0)
(0.120052 0.000683727 0)
(0.119768 0.000733953 0)
(0.119464 0.00078371 0)
(0.11914 0.000832989 0)
(0.118797 0.00088178 0)
(0.118434 0.000930073 0)
(0.118052 0.00097786 0)
(0.117651 0.00102513 0)
(0.117231 0.00107189 0)
(0.116792 0.00111811 0)
(0.116336 0.0011638 0)
(0.11586 0.00120895 0)
(0.115367 0.00125356 0)
(0.114857 0.00129762 0)
(0.114328 0.00134112 0)
(0.113783 0.00138406 0)
(0.11322 0.00142645 0)
(0.112641 0.00146827 0)
(0.112044 0.00150952 0)
(0.111432 0.00155021 0)
(0.110803 0.00159032 0)
(0.110159 0.00162986 0)
(0.109498 0.00166883 0)
(0.108823 0.00170723 0)
(0.108131 0.00174505 0)
(0.107425 0.00178229 0)
(0.106705 0.00181896 0)
(0.105969 0.00185505 0)
(0.10522 0.00189056 0)
(0.104456 0.0019255 0)
(0.103678 0.00195987 0)
(0.102887 0.00199366 0)
(0.102082 0.00202688 0)
(0.101264 0.00205953 0)
(0.100433 0.00209161 0)
(0.09959 0.00212312 0)
(0.098734 0.00215407 0)
(0.0978657 0.00218445 0)
(0.0969854 0.00221427 0)
(0.0960933 0.00224352 0)
(0.0951896 0.00227222 0)
(0.0942745 0.00230037 0)
(0.0933483 0.00232796 0)
(0.0924111 0.002355 0)
(0.0914633 0.0023815 0)
(0.090505 0.00240745 0)
(0.0895364 0.00243286 0)
(0.0885577 0.00245774 0)
(0.0875692 0.00248208 0)
(0.0865711 0.00250589 0)
(0.0855636 0.00252918 0)
(0.0845468 0.00255194 0)
(0.0835211 0.00257418 0)
(0.0824865 0.00259591 0)
(0.0814434 0.00261713 0)
(0.0803919 0.00263785 0)
(0.0793322 0.00265807 0)
(0.0782646 0.00267779 0)
(0.0771891 0.00269702 0)
(0.0761061 0.00271576 0)
(0.0750157 0.00273402 0)
(0.073918 0.00275181 0)
(0.0728134 0.00276913 0)
(0.0717019 0.00278598 0)
(0.0705838 0.00280238 0)
(0.0694592 0.00281832 0)
(0.0683283 0.00283382 0)
(0.0671913 0.00284887 0)
(0.0660484 0.00286349 0)
(0.0648998 0.00287768 0)
(0.0637455 0.00289145 0)
(0.0625858 0.00290481 0)
(0.0614209 0.00291775 0)
(0.0602509 0.00293029 0)
(0.059076 0.00294244 0)
(0.0578963 0.0029542 0)
(0.0567119 0.00296557 0)
(0.0555231 0.00297657 0)
(0.05433 0.00298719 0)
(0.0531327 0.00299746 0)
(0.0519314 0.00300737 0)
(0.0507262 0.00301693 0)
(0.0495172 0.00302614 0)
(0.0483047 0.00303503 0)
(0.0470886 0.00304358 0)
(0.0458692 0.00305181 0)
(0.0446466 0.00305973 0)
(0.0434209 0.00306734 0)
(0.0421922 0.00307464 0)
(0.0409606 0.00308165 0)
(0.0397264 0.00308838 0)
(0.0384894 0.00309482 0)
(0.03725 0.00310098 0)
(0.0360082 0.00310687 0)
(0.034764 0.0031125 0)
(0.0335177 0.00311787 0)
(0.0322693 0.00312299 0)
(0.0310189 0.00312786 0)
(0.0297666 0.00313249 0)
(0.0285124 0.00313689 0)
(0.0272566 0.00314105 0)
(0.0259992 0.00314499 0)
(0.0247402 0.00314871 0)
(0.0234798 0.00315221 0)
(0.0222181 0.0031555 0)
(0.0209551 0.00315859 0)
(0.0196908 0.00316147 0)
(0.0184255 0.00316415 0)
(0.0171592 0.00316663 0)
(0.0158919 0.00316893 0)
(0.0146237 0.00317103 0)
(0.0133547 0.00317295 0)
(0.012085 0.00317469 0)
(0.0108146 0.00317624 0)
(0.00954369 0.00317762 0)
(0.00827223 0.00317881 0)
(0.00700032 0.00317984 0)
(0.00572804 0.00318069 0)
(0.00445546 0.00318137 0)
(0.00318264 0.00318188 0)
(0.00190965 0.00318222 0)
(0.000636562 0.00318239 0)
(0.000718175 -0.00502588 0)
(0.00215448 -0.00502559 0)
(0.00359066 -0.00502499 0)
(0.00502664 -0.0050241 0)
(0.00646231 -0.0050229 0)
(0.00789761 -0.0050214 0)
(0.00933244 -0.00501959 0)
(0.0107667 -0.00501747 0)
(0.0122003 -0.00501503 0)
(0.0136332 -0.00501226 0)
(0.0150653 -0.00500916 0)
(0.0164964 -0.00500572 0)
(0.0179266 -0.00500194 0)
(0.0193556 -0.00499779 0)
(0.0207833 -0.00499328 0)
(0.0222098 -0.00498838 0)
(0.0236348 -0.0049831 0)
(0.0250582 -0.00497741 0)
(0.02648 -0.00497131 0)
(0.0279 -0.00496478 0)
(0.0293181 -0.00495781 0)
(0.0307342 -0.00495038 0)
(0.0321481 -0.00494248 0)
(0.0335597 -0.00493409 0)
(0.0349688 -0.0049252 0)
(0.0363753 -0.00491579 0)
(0.0377791 -0.00490583 0)
(0.03918 -0.00489532 0)
(0.0405778 -0.00488424 0)
(0.0419724 -0.00487257 0)
(0.0433636 -0.00486028 0)
(0.0447513 -0.00484736 0)
(0.0461351 -0.00483379 0)
(0.0475151 -0.00481955 0)
(0.0488909 -0.00480462 0)
(0.0502623 -0.00478898 0)
(0.0516292 -0.00477261 0)
(0.0529913 -0.00475549 0)
(0.0543485 -0.0047376 0)
(0.0557004 -0.00471891 0)
(0.057047 -0.00469942 0)
(0.0583879 -0.00467909 0)
(0.0597228 -0.0046579 0)
(0.0610516 -0.00463585 0)
(0.062374 -0.0046129 0)
(0.0636898 -0.00458904 0)
(0.0649986 -0.00456424 0)
(0.0663002 -0.0045385 0)
(0.0675944 -0.00451179 0)
(0.0688808 -0.0044841 0)
(0.0701592 -0.0044554 0)
(0.0714292 -0.00442568 0)
(0.0726906 -0.00439492 0)
(0.0739431 -0.00436311 0)
(0.0751864 -0.00433024 0)
(0.0764202 -0.00429629 0)
(0.0776441 -0.00426124 0)
(0.0788579 -0.00422509 0)
(0.0800612 -0.00418783 0)
(0.0812536 -0.00414944 0)
(0.082435 -0.00410992 0)
(0.0836049 -0.00406925 0)
(0.0847631 -0.00402744 0)
(0.0859091 -0.00398447 0)
(0.0870427 -0.00394035 0)
(0.0881636 -0.00389506 0)
(0.0892713 -0.00384862 0)
(0.0903656 -0.00380101 0)
(0.0914461 -0.00375224 0)
(0.0925126 -0.0037023 0)
(0.0935645 -0.00365122 0)
(0.0946018 -0.00359898 0)
(0.0956239 -0.0035456 0)
(0.0966306 -0.00349109 0)
(0.0976215 -0.00343545 0)
(0.0985964 -0.0033787 0)
(0.0995549 -0.00332084 0)
(0.100497 -0.0032619 0)
(0.101421 -0.00320189 0)
(0.102329 -0.00314082 0)
(0.103219 -0.00307872 0)
(0.104091 -0.0030156 0)
(0.104944 -0.00295148 0)
(0.10578 -0.00288639 0)
(0.106596 -0.00282036 0)
(0.107393 -0.0027534 0)
(0.108172 -0.00268554 0)
(0.10893 -0.00261681 0)
(0.109669 -0.00254724 0)
(0.110388 -0.00247686 0)
(0.111086 -0.00240571 0)
(0.111764 -0.0023338 0)
(0.112421 -0.00226118 0)
(0.113058 -0.00218787 0)
(0.113673 -0.00211392 0)
(0.114267 -0.00203935 0)
(0.11484 -0.00196421 0)
(0.115391 -0.00188853 0)
(0.11592 -0.00181235 0)
(0.116428 -0.0017357 0)
(0.116913 -0.00165862 0)
(0.117377 -0.00158115 0)
(0.117818 -0.00150333 0)
(0.118236 -0.0014252 0)
(0.118633 -0.00134679 0)
(0.119007 -0.00126815 0)
(0.119358 -0.0011893 0)
(0.119687 -0.0011103 0)
(0.119993 -0.00103118 0)
(0.120276 -0.000951966 0)
(0.120537 -0.000872709 0)
(0.120775 -0.000793442 0)
(0.12099 -0.0007142 0)
(0.121183 -0.000635021 0)
(0.121353 -0.000555939 0)
(0.1215 -0.00047699 0)
(0.121625 -0.000398206 0)
(0.121727 -0.000319621 0)
(0.121807 -0.000241268 0)
(0.121864 -0.000163178 0)
(0.121899 -8.53828e-05 0)
(0.121912 -7.91111e-06 0)
(0.121903 6.92075e-05 0)
(0.121872 0.000145945 0)
(0.121819 0.000222275 0)
(0.121744 0.00029817 0)
(0.121647 0.000373605 0)
(0.121529 0.000448557 0)
(0.12139 0.000523002 0)
(0.121229 0.000596919 0)
(0.121047 0.000670285 0)
(0.120845 0.00074308 0)
(0.120621 0.000815286 0)
(0.120377 0.000886884 0)
(0.120113 0.000957858 0)
(0.119828 0.00102819 0)
(0.119524 0.00109786 0)
(0.119199 0.00116687 0)
(0.118855 0.00123519 0)
(0.118492 0.00130281 0)
(0.118109 0.00136972 0)
(0.117707 0.00143592 0)
(0.117287 0.00150138 0)
(0.116848 0.0015661 0)
(0.11639 0.00163008 0)
(0.115914 0.0016933 0)
(0.115421 0.00175575 0)
(0.114909 0.00181744 0)
(0.11438 0.00187835 0)
(0.113834 0.00193847 0)
(0.113271 0.00199782 0)
(0.11269 0.00205637 0)
(0.112094 0.00211413 0)
(0.11148 0.00217109 0)
(0.110851 0.00222725 0)
(0.110206 0.00228261 0)
(0.109545 0.00233717 0)
(0.108868 0.00239092 0)
(0.108177 0.00244387 0)
(0.10747 0.00249601 0)
(0.106748 0.00254734 0)
(0.106012 0.00259787 0)
(0.105262 0.00264759 0)
(0.104497 0.00269651 0)
(0.103719 0.00274462 0)
(0.102927 0.00279193 0)
(0.102122 0.00283844 0)
(0.101303 0.00288414 0)
(0.100472 0.00292905 0)
(0.0996274 0.00297316 0)
(0.0987708 0.00301649 0)
(0.0979018 0.00305902 0)
(0.0970208 0.00310076 0)
(0.0961281 0.00314172 0)
(0.0952237 0.00318189 0)
(0.0943079 0.00322129 0)
(0.0933811 0.00325992 0)
(0.0924433 0.00329777 0)
(0.0914948 0.00333486 0)
(0.0905358 0.00337119 0)
(0.0895665 0.00340676 0)
(0.0885872 0.00344158 0)
(0.0875981 0.00347565 0)
(0.0865993 0.00350898 0)
(0.0855912 0.00354158 0)
(0.0845738 0.00357344 0)
(0.0835474 0.00360458 0)
(0.0825123 0.00363499 0)
(0.0814686 0.0036647 0)
(0.0804165 0.00369369 0)
(0.0793562 0.00372199 0)
(0.0782879 0.00374959 0)
(0.0772119 0.0037765 0)
(0.0761283 0.00380274 0)
(0.0750373 0.0038283 0)
(0.0739391 0.00385319 0)
(0.0728339 0.00387743 0)
(0.0717218 0.00390102 0)
(0.0706031 0.00392396 0)
(0.069478 0.00394628 0)
(0.0683466 0.00396796 0)
(0.0672091 0.00398903 0)
(0.0660657 0.00400949 0)
(0.0649165 0.00402935 0)
(0.0637618 0.00404862 0)
(0.0626016 0.00406731 0)
(0.0614362 0.00408542 0)
(0.0602657 0.00410297 0)
(0.0590903 0.00411996 0)
(0.0579101 0.00413641 0)
(0.0567253 0.00415232 0)
(0.0555361 0.00416771 0)
(0.0543425 0.00418258 0)
(0.0531448 0.00419694 0)
(0.0519431 0.0042108 0)
(0.0507375 0.00422418 0)
(0.0495281 0.00423707 0)
(0.0483151 0.0042495 0)
(0.0470987 0.00426146 0)
(0.0458789 0.00427298 0)
(0.0446559 0.00428405 0)
(0.0434298 0.00429469 0)
(0.0422008 0.00430491 0)
(0.0409689 0.00431472 0)
(0.0397342 0.00432412 0)
(0.038497 0.00433313 0)
(0.0372572 0.00434175 0)
(0.0360151 0.00434999 0)
(0.0347706 0.00435786 0)
(0.033524 0.00436538 0)
(0.0322753 0.00437253 0)
(0.0310246 0.00437935 0)
(0.029772 0.00438582 0)
(0.0285176 0.00439197 0)
(0.0272615 0.00439779 0)
(0.0260038 0.0044033 0)
(0.0247446 0.0044085 0)
(0.0234839 0.0044134 0)
(0.0222219 0.004418 0)
(0.0209586 0.00442231 0)
(0.0196942 0.00442633 0)
(0.0184286 0.00443008 0)
(0.017162 0.00443356 0)
(0.0158945 0.00443676 0)
(0.0146261 0.00443971 0)
(0.0133569 0.00444239 0)
(0.012087 0.00444481 0)
(0.0108164 0.00444699 0)
(0.00954523 0.00444891 0)
(0.00827356 0.00445058 0)
(0.00700145 0.00445202 0)
(0.00572896 0.00445321 0)
(0.00445617 0.00445416 0)
(0.00318315 0.00445487 0)
(0.00190996 0.00445534 0)
(0.000636663 0.00445558 0)
(0.000718344 -0.00646236 0)
(0.00215499 -0.00646198 0)
(0.00359151 -0.00646122 0)
(0.00502783 -0.00646007 0)
(0.00646385 -0.00645854 0)
(0.0078995 -0.00645662 0)
(0.00933468 -0.0064543 0)
(0.0107693 -0.00645158 0)
(0.0122033 -0.00644846 0)
(0.0136366 -0.00644491 0)
(0.015069 -0.00644094 0)
(0.0165006 -0.00643653 0)
(0.0179311 -0.00643168 0)
(0.0193605 -0.00642636 0)
(0.0207887 -0.00642058 0)
(0.0222156 -0.0064143 0)
(0.0236411 -0.00640753 0)
(0.025065 -0.00640024 0)
(0.0264873 -0.00639242 0)
(0.0279078 -0.00638405 0)
(0.0293264 -0.00637511 0)
(0.0307429 -0.00636559 0)
(0.0321574 -0.00635546 0)
(0.0335695 -0.0063447 0)
(0.0349792 -0.00633329 0)
(0.0363864 -0.00632122 0)
(0.0377908 -0.00630845 0)
(0.0391923 -0.00629497 0)
(0.0405908 -0.00628076 0)
(0.0419861 -0.00626578 0)
(0.043378 -0.00625001 0)
(0.0447664 -0.00623344 0)
(0.046151 -0.00621602 0)
(0.0475317 -0.00619775 0)
(0.0489083 -0.00617859 0)
(0.0502806 -0.00615852 0)
(0.0516483 -0.0061375 0)
(0.0530113 -0.00611553 0)
(0.0543694 -0.00609256 0)
(0.0557223 -0.00606857 0)
(0.0570697 -0.00604353 0)
(0.0584116 -0.00601743 0)
(0.0597475 -0.00599023 0)
(0.0610773 -0.0059619 0)
(0.0624008 -0.00593243 0)
(0.0637176 -0.00590179 0)
(0.0650275 -0.00586994 0)
(0.0663302 -0.00583688 0)
(0.0676255 -0.00580257 0)
(0.068913 -0.00576699 0)
(0.0701926 -0.00573011 0)
(0.0714638 -0.00569193 0)
(0.0727264 -0.00565241 0)
(0.0739801 -0.00561154 0)
(0.0752246 -0.0055693 0)
(0.0764596 -0.00552567 0)
(0.0776848 -0.00548063 0)
(0.0788998 -0.00543418 0)
(0.0801044 -0.00538628 0)
(0.0812982 -0.00533694 0)
(0.0824809 -0.00528614 0)
(0.0836521 -0.00523387 0)
(0.0848116 -0.00518012 0)
(0.0859589 -0.00512488 0)
(0.0870939 -0.00506815 0)
(0.088216 -0.00500993 0)
(0.0893251 -0.00495021 0)
(0.0904207 -0.004889 0)
(0.0915026 -0.00482629 0)
(0.0925703 -0.00476208 0)
(0.0936236 -0.00469639 0)
(0.0946621 -0.00462922 0)
(0.0956856 -0.00456058 0)
(0.0966936 -0.00449047 0)
(0.0976858 -0.00441892 0)
(0.0986619 -0.00434593 0)
(0.0996217 -0.00427152 0)
(0.100565 -0.00419571 0)
(0.101491 -0.00411852 0)
(0.102399 -0.00403997 0)
(0.10329 -0.00396009 0)
(0.104163 -0.0038789 0)
(0.105018 -0.00379643 0)
(0.105855 -0.0037127 0)
(0.106672 -0.00362776 0)
(0.10747 -0.00354162 0)
(0.10825 -0.00345433 0)
(0.109009 -0.00336591 0)
(0.109749 -0.00327642 0)
(0.110469 -0.00318588 0)
(0.111168 -0.00309433 0)
(0.111847 -0.00300182 0)
(0.112505 -0.00290839 0)
(0.113142 -0.00281409 0)
(0.113758 -0.00271894 0)
(0.114353 -0.00262301 0)
(0.114926 -0.00252634 0)
(0.115478 -0.00242897 0)
(0.116008 -0.00233096 0)
(0.116516 -0.00223235 0)
(0.117002 -0.00213318 0)
(0.117465 -0.00203351 0)
(0.117907 -0.00193339 0)
(0.118326 -0.00183287 0)
(0.118722 -0.001732 0)
(0.119097 -0.00163082 0)
(0.119448 -0.00152938 0)
(0.119777 -0.00142774 0)
(0.120083 -0.00132594 0)
(0.120367 -0.00122404 0)
(0.120627 -0.00112207 0)
(0.120865 -0.00102009 0)
(0.121081 -0.000918151 0)
(0.121273 -0.000816289 0)
(0.121443 -0.000714553 0)
(0.12159 -0.000612988 0)
(0.121715 -0.000511638 0)
(0.121817 -0.000410545 0)
(0.121896 -0.000309751 0)
(0.121953 -0.000209297 0)
(0.121988 -0.000109223 0)
(0.122001 -9.56669e-06 0)
(0.121991 8.9634e-05 0)
(0.121959 0.000188343 0)
(0.121906 0.000286526 0)
(0.12183 0.000384148 0)