/*--------------------------------*- C++ -*----------------------------------*\
| =========                 |                                                 |
| \\      /  F ield         | OpenFOAM: The Open Source CFD Toolbox           |
|  \\    /   O peration     | Version:  v2012                                 |
|   \\  /    A nd           | Website:  www.openfoam.com                      |
|    \\/     M anipulation  |                                                 |
\*---------------------------------------------------------------------------*/
FoamFile
{
    version     2.0;
    format      ascii;
    class       volScalarField;
    location    "3";
    object      W;
}
// * * * * * * * * * * * * * * * * * * * * * * * * * * * * * * * * * * * * * //

dimensions      [0 0 -1 0 0 0 0];


internalField   nonuniform List<scalar> 
65536
(
3.32609e-20
3.66043e-20
4.35117e-20
5.44192e-20
7.0032e-20
9.13814e-20
1.19897e-19
1.575e-19
2.06713e-19
2.70806e-19
3.53975e-19
4.61567e-19
6.00365e-19
7.78937e-19
1.00807e-18
1.30131e-18
1.67561e-18
2.15209e-18
2.75708e-18
3.5232e-18
4.4908e-18
5.70964e-18
7.24088e-18
9.15951e-18
1.15572e-17
1.45454e-17
1.826e-17
2.28649e-17
2.85584e-17
3.55792e-17
4.42132e-17
5.48029e-17
6.77561e-17
8.3558e-17
1.02783e-16
1.26109e-16
1.54334e-16
1.88395e-16
2.29387e-16
2.78585e-16
3.3747e-16
4.07757e-16
4.91422e-16
5.90737e-16
7.08304e-16
8.4709e-16
1.01047e-15
1.20226e-15
1.42677e-15
1.68885e-15
1.99391e-15
2.348e-15
2.75783e-15
3.23079e-15
3.77506e-15
4.39956e-15
5.11404e-15
5.92907e-15
6.85605e-15
7.90724e-15
9.09572e-15
1.04354e-14
1.19409e-14
1.36276e-14
1.55114e-14
1.7609e-14
1.99372e-14
2.25133e-14
2.53543e-14
2.84776e-14
3.18999e-14
3.56374e-14
3.97055e-14
4.41183e-14
4.88886e-14
5.40273e-14
5.9543e-14
6.5442e-14
7.17277e-14
7.84001e-14
8.54558e-14
9.28874e-14
1.00683e-13
1.08828e-13
1.173e-13
1.26074e-13
1.3512e-13
1.44401e-13
1.53878e-13
1.63505e-13
1.73231e-13
1.83002e-13
1.9276e-13
2.02442e-13
2.11983e-13
2.21315e-13
2.30369e-13
2.39074e-13
2.4736e-13
2.55158e-13
2.62399e-13
2.6902e-13
2.74957e-13
2.80154e-13
2.84561e-13
2.88131e-13
2.90827e-13
2.92618e-13
2.93483e-13
2.9341e-13
2.92393e-13
2.90439e-13
2.87563e-13
2.8379e-13
2.79153e-13
2.73694e-13
2.67466e-13
2.60525e-13
2.52939e-13
2.44778e-13
2.36119e-13
2.27045e-13
2.17638e-13
2.07987e-13
1.98178e-13
1.88302e-13
1.78444e-13
1.68691e-13
1.59127e-13
1.49832e-13
1.40883e-13
1.32351e-13
1.24305e-13
1.16804e-13
1.09907e-13
1.03663e-13
9.81163e-14
9.33049e-14
8.92607e-14
8.60091e-14
8.35693e-14
8.19542e-14
8.11704e-14
8.12178e-14
8.20905e-14
8.37756e-14
8.6254e-14
8.95e-14
9.34814e-14
9.8159e-14
1.03487e-13
1.09414e-13
1.1588e-13
1.2282e-13
1.30163e-13
1.37831e-13
1.45741e-13
1.53807e-13
1.61936e-13
1.70034e-13
1.78004e-13
1.8575e-13
1.93174e-13
2.0018e-13
2.06677e-13
2.12577e-13
2.17797e-13
2.22264e-13
2.25912e-13
2.28686e-13
2.30542e-13
2.31446e-13
2.31379e-13
2.30334e-13
2.28317e-13
2.25346e-13
2.21454e-13
2.16685e-13
2.11093e-13
2.04743e-13
1.97707e-13
1.90068e-13
1.8191e-13
1.73323e-13
1.644e-13
1.55233e-13
1.45914e-13
1.3653e-13
1.27166e-13
1.17902e-13
1.08811e-13
9.99565e-14
9.13977e-14
8.31836e-14
7.53549e-14
6.79439e-14
6.09744e-14
5.44625e-14
4.84166e-14
4.28384e-14
3.7723e-14
3.30606e-14
2.88364e-14
2.50317e-14
2.1625e-14
1.85922e-14
1.59079e-14
1.35456e-14
1.14784e-14
9.67955e-15
8.12307e-15
6.78377e-15
5.63774e-15
4.66248e-15
3.83711e-15
3.14243e-15
2.56091e-15
2.07678e-15
1.67591e-15
1.34577e-15
1.07535e-15
8.55036e-16
6.76507e-16
5.32614e-16
4.17255e-16
3.25265e-16
2.52301e-16
1.94735e-16
1.49559e-16
1.14293e-16
8.69089e-17
6.57578e-17
4.95069e-17
3.70868e-17
2.76443e-17
2.05033e-17
1.51312e-17
1.1111e-17
8.11826e-18
5.90202e-18
4.26938e-18
3.07296e-18
2.20077e-18
1.56826e-18
1.11195e-18
7.84477e-19
5.50686e-19
3.84656e-19
2.67384e-19
1.85032e-19
1.27603e-19
8.79513e-20
6.10416e-20
4.34145e-20
3.27917e-20
2.78019e-20
4.35785e-20
4.79573e-20
5.70049e-20
7.12921e-20
9.1742e-20
1.19704e-19
1.57052e-19
2.06296e-19
2.70742e-19
3.54667e-19
4.63562e-19
6.04423e-19
7.86124e-19
1.01987e-18
1.31977e-18
1.70354e-18
2.19333e-18
2.81677e-18
3.60825e-18
4.61039e-18
5.87591e-18
7.46981e-18
9.47194e-18
1.19802e-17
1.51141e-17
1.90195e-17
2.3873e-17
2.98888e-17
3.73254e-17
4.64935e-17
5.7766e-17
7.15886e-17
8.84925e-17
1.09109e-16
1.34185e-16
1.64602e-16
2.01398e-16
2.45789e-16
2.99197e-16
3.63277e-16
4.39951e-16
5.31441e-16
6.40308e-16
7.69493e-16
9.22364e-16
1.10276e-15
1.31503e-15
1.56413e-15
1.8556e-15
2.19569e-15
2.59138e-15
3.05045e-15
3.58153e-15
4.19414e-15
4.89874e-15
5.7068e-15
6.63078e-15
7.68421e-15
8.88166e-15
1.02388e-14
1.17722e-14
1.34996e-14
1.54396e-14
1.76117e-14
2.00361e-14
2.27336e-14
2.57256e-14
2.90336e-14
3.26792e-14
3.66839e-14
4.10684e-14
4.5853e-14
5.10563e-14
5.66957e-14
6.27865e-14
6.93417e-14
7.63713e-14
8.38821e-14
9.18773e-14
1.00356e-13
1.09312e-13
1.18735e-13
1.28609e-13
1.38912e-13
1.49616e-13
1.60689e-13
1.72089e-13
1.83771e-13
1.95682e-13
2.07763e-13
2.1995e-13
2.32173e-13
2.44357e-13
2.56425e-13
2.68292e-13
2.79874e-13
2.91083e-13
3.01832e-13
3.12033e-13
3.21599e-13
3.30447e-13
3.38496e-13
3.45671e-13
3.51903e-13
3.5713e-13
3.61298e-13
3.64362e-13
3.66288e-13
3.67051e-13
3.66638e-13
3.65048e-13
3.6229e-13
3.58388e-13
3.53375e-13
3.47295e-13
3.40206e-13
3.32171e-13
3.23268e-13
3.13579e-13
3.03195e-13
2.92214e-13
2.80738e-13
2.68872e-13
2.56724e-13
2.44405e-13
2.32022e-13
2.19684e-13
2.07498e-13
1.95564e-13
1.8398e-13
1.72841e-13
1.62233e-13
1.52237e-13
1.42926e-13
1.34368e-13
1.26622e-13
1.1974e-13
1.13766e-13
1.08737e-13
1.04682e-13
1.0162e-13
9.95659e-14
9.85249e-14
9.84946e-14
9.94653e-14
1.01419e-13
1.04331e-13
1.08168e-13
1.12889e-13
1.18444e-13
1.24777e-13
1.31824e-13
1.39512e-13
1.47761e-13
1.56485e-13
1.65589e-13
1.74973e-13
1.84533e-13
1.94158e-13
2.03735e-13
2.1315e-13
2.22285e-13
2.31025e-13
2.39258e-13
2.46874e-13
2.5377e-13
2.59849e-13
2.65026e-13
2.69222e-13
2.72375e-13
2.74433e-13
2.75359e-13
2.75132e-13
2.73744e-13
2.71205e-13
2.67539e-13
2.62787e-13
2.57e-13
2.50245e-13
2.426e-13
2.34154e-13
2.25002e-13
2.15247e-13
2.04995e-13
1.94356e-13
1.8344e-13
1.72354e-13
1.61204e-13
1.50087e-13
1.39098e-13
1.28322e-13
1.17836e-13
1.07706e-13
9.79908e-14
8.8737e-14
7.99821e-14
7.17535e-14
6.40693e-14
5.69386e-14
5.03626e-14
4.43353e-14
3.8844e-14
3.38709e-14
2.93937e-14
2.53863e-14
2.18202e-14
1.8665e-14
1.58892e-14
1.3461e-14
1.13488e-14
9.5217e-15
7.95002e-15
6.60552e-15
5.46171e-15
4.49395e-15
3.67962e-15
2.99813e-15
2.4309e-15
1.96132e-15
1.57469e-15
1.25807e-15
1.00016e-15
7.9121e-16
6.22827e-16
4.87861e-16
3.80254e-16
2.94916e-16
2.27599e-16
1.74778e-16
1.3355e-16
1.01541e-16
7.68212e-17
5.78306e-17
4.33182e-17
3.22863e-17
2.39442e-17
1.76692e-17
1.29737e-17
9.47856e-18
6.8905e-18
4.98412e-18
3.5872e-18
2.56891e-18
1.83051e-18
1.29784e-18
9.15578e-19
6.42692e-19
4.48907e-19
3.12036e-19
2.15925e-19
1.48905e-19
1.02631e-19
7.12281e-20
5.06581e-20
3.82622e-20
3.24403e-20
6.70402e-20
7.37731e-20
8.76861e-20
1.09656e-19
1.41101e-19
1.84096e-19
2.41515e-19
3.17221e-19
4.16285e-19
5.4528e-19
7.12635e-19
9.29094e-19
1.20827e-18
1.56738e-18
2.02805e-18
2.61746e-18
3.36958e-18
4.3268e-18
5.5418e-18
7.07993e-18
9.02195e-18
1.14674e-17
1.45386e-17
1.83853e-17
2.31905e-17
2.9177e-17
3.66153e-17
4.58325e-17
5.72234e-17
7.12629e-17
8.85199e-17
1.09674e-16
1.35537e-16
1.67069e-16
2.05408e-16
2.51898e-16
3.08118e-16
3.75916e-16
4.57453e-16
5.55243e-16
6.72203e-16
8.11702e-16
9.77622e-16
1.17442e-15
1.40718e-15
1.68171e-15
2.00459e-15
2.38327e-15
2.82613e-15
3.34256e-15
3.94307e-15
4.63934e-15
5.4443e-15
6.37224e-15
7.43881e-15
8.66112e-15
1.00578e-14
1.1649e-14
1.34563e-14
1.5503e-14
1.78137e-14
2.04146e-14
2.33332e-14
2.65979e-14
3.02386e-14
3.42857e-14
3.87703e-14
4.37237e-14
4.91771e-14
5.51614e-14
6.17063e-14
6.88404e-14
7.65902e-14
8.49797e-14
9.403e-14
1.03758e-13
1.14177e-13
1.25295e-13
1.37114e-13
1.49629e-13
1.62831e-13
1.767e-13
1.91211e-13
2.06328e-13
2.22009e-13
2.382e-13
2.54841e-13
2.71862e-13
2.89181e-13
3.06712e-13
3.24359e-13
3.42017e-13
3.59577e-13
3.76921e-13
3.93929e-13
4.10477e-13
4.26437e-13
4.41684e-13
4.5609e-13
4.69532e-13
4.81891e-13
4.93054e-13
5.02915e-13
5.11379e-13
5.18361e-13
5.23787e-13
5.27598e-13
5.2975e-13
5.30214e-13
5.28978e-13
5.26046e-13
5.21439e-13
5.15195e-13
5.07369e-13
4.98032e-13
4.87268e-13
4.75179e-13
4.61876e-13
4.47484e-13
4.32137e-13
4.15976e-13
3.99149e-13
3.8181e-13
3.64113e-13
3.46216e-13
3.28272e-13
3.10436e-13
2.92855e-13
2.75673e-13
2.59026e-13
2.43042e-13
2.27843e-13
2.13537e-13
2.00226e-13
1.88e-13
1.76936e-13
1.67105e-13
1.58562e-13
1.51355e-13
1.45517e-13
1.41075e-13
1.3804e-13
1.36416e-13
1.36195e-13
1.37359e-13
1.3988e-13
1.43716e-13
1.4882e-13
1.55131e-13
1.62577e-13
1.71077e-13
1.8054e-13
1.90864e-13
2.01937e-13
2.13639e-13
2.2584e-13
2.38402e-13
2.51182e-13
2.6403e-13
2.76792e-13
2.89313e-13
3.01435e-13
3.13004e-13
3.23868e-13
3.33883e-13
3.4291e-13
3.50823e-13
3.57508e-13
3.62866e-13
3.66813e-13
3.69284e-13
3.70233e-13
3.69634e-13
3.67484e-13
3.63796e-13
3.58608e-13
3.51975e-13
3.43972e-13
3.3469e-13
3.24236e-13
3.12729e-13
3.003e-13
2.87087e-13
2.73233e-13
2.58885e-13
2.44189e-13
2.29289e-13
2.14323e-13
1.99423e-13
1.84713e-13
1.70305e-13
1.563e-13
1.42784e-13
1.29835e-13
1.17511e-13
1.05863e-13
9.49236e-14
8.47161e-14
7.52513e-14
6.6529e-14
5.854e-14
5.12664e-14
4.46835e-14
3.87605e-14
3.34623e-14
2.87502e-14
2.45833e-14
2.09194e-14
1.77159e-14
1.49307e-14
1.25226e-14
1.04521e-14
8.68159e-15
7.17601e-15
5.90269e-15
4.83165e-15
3.93567e-15
3.19018e-15
2.57325e-15
2.06546e-15
1.64974e-15
1.31123e-15
1.03705e-15
8.16169e-16
6.39168e-16
4.98086e-16
3.86229e-16
2.98012e-16
2.28808e-16
1.74805e-16
1.32887e-16
1.0052e-16
7.56595e-17
5.66649e-17
4.22283e-17
3.13134e-17
2.31043e-17
1.69625e-17
1.23914e-17
9.00711e-18
6.5145e-18
4.68823e-18
3.35712e-18
2.39196e-18
1.69578e-18
1.19624e-18
8.3965e-19
5.86444e-19
4.07618e-19
2.82054e-19
1.94499e-19
1.34051e-19
9.30309e-20
6.6162e-20
4.99706e-20
4.23662e-20
1.10003e-19
1.21046e-19
1.43865e-19
1.79899e-19
2.3147e-19
3.01979e-19
3.96137e-19
5.20269e-19
6.82687e-19
8.94155e-19
1.16848e-18
1.52325e-18
1.98077e-18
2.56918e-18
3.32392e-18
4.28944e-18
5.52131e-18
7.08885e-18
9.07821e-18
1.15962e-17
1.47748e-17
1.87766e-17
2.38013e-17
3.00937e-17
3.79522e-17
4.77404e-17
5.98994e-17
7.49626e-17
9.35736e-17
1.16505e-16
1.44685e-16
1.79219e-16
2.21426e-16
2.72869e-16
3.35398e-16
4.11194e-16
5.0282e-16
6.13277e-16
7.46067e-16
9.05264e-16
1.09559e-15
1.3225e-15
1.59226e-15
1.91208e-15
2.29018e-15
2.7359e-15
3.25987e-15
3.87406e-15
4.59195e-15
5.42865e-15
6.40101e-15
7.52776e-15
8.82962e-15
1.03294e-14
1.20521e-14
1.40251e-14
1.62779e-14
1.88427e-14
2.17537e-14
2.50477e-14
2.87639e-14
3.29433e-14
3.76292e-14
4.28666e-14
4.87019e-14
5.51827e-14
6.23575e-14
7.02748e-14
7.89827e-14
8.85286e-14
9.89581e-14
1.10314e-13
1.22637e-13
1.35961e-13
1.50319e-13
1.65733e-13
1.82221e-13
1.99793e-13
2.18448e-13
2.38176e-13
2.58957e-13
2.80756e-13
3.0353e-13
3.27218e-13
3.51749e-13
3.77037e-13
4.0298e-13
4.29466e-13
4.56366e-13
4.83538e-13
5.1083e-13
5.38078e-13
5.65106e-13
5.91732e-13
6.17768e-13
6.43019e-13
6.67288e-13
6.90381e-13
7.12104e-13
7.32267e-13
7.50691e-13
7.67206e-13
7.81653e-13
7.9389e-13
8.03794e-13
8.11259e-13
8.16203e-13
8.18567e-13
8.18315e-13
8.15437e-13
8.0995e-13
8.01896e-13
7.91343e-13
7.78385e-13
7.63138e-13
7.45744e-13
7.26361e-13
7.05171e-13
6.82369e-13
6.58165e-13
6.3278e-13
6.06444e-13
5.79393e-13
5.51865e-13
5.24098e-13
4.96328e-13
4.68785e-13
4.41693e-13
4.15267e-13
3.89708e-13
3.65206e-13
3.41939e-13
3.20066e-13
2.99733e-13
2.81069e-13
2.64185e-13
2.49177e-13
2.36124e-13
2.25086e-13
2.1611e-13
2.09224e-13
2.04441e-13
2.01758e-13
2.01156e-13
2.02602e-13
2.06045e-13
2.11422e-13
2.18653e-13
2.27644e-13
2.38284e-13
2.50451e-13
2.64005e-13
2.78793e-13
2.94648e-13
3.11393e-13
3.28836e-13
3.46774e-13
3.64998e-13
3.8329e-13
4.01427e-13
4.19185e-13
4.36337e-13
4.52662e-13
4.67943e-13
4.81976e-13
4.94564e-13
5.0553e-13
5.14714e-13
5.21978e-13
5.27207e-13
5.30314e-13
5.31237e-13
5.29946e-13
5.26439e-13
5.20743e-13
5.12916e-13
5.03041e-13
4.91231e-13
4.77618e-13
4.6236e-13
4.45629e-13
4.27614e-13
4.08513e-13
3.88532e-13
3.67881e-13
3.46767e-13
3.25396e-13
3.03962e-13
2.82654e-13
2.61644e-13
2.4109e-13
2.21132e-13
2.01894e-13
1.83479e-13
1.65972e-13
1.49439e-13
1.33926e-13
1.19462e-13
1.06062e-13
9.37221e-14
8.24279e-14
7.21523e-14
6.28587e-14
5.45022e-14
4.70317e-14
4.03917e-14
3.45233e-14
2.93662e-14
2.48596e-14
2.09433e-14
1.7559e-14
1.46505e-14
1.21646e-14
1.00517e-14
8.26539e-15
6.76353e-15
5.50762e-15
4.46306e-15
3.59895e-15
2.88796e-15
2.30609e-15
1.83243e-15
1.44892e-15
1.14004e-15
8.92601e-16
6.95426e-16
5.39138e-16
4.15913e-16
3.19268e-16
2.4387e-16
1.85357e-16
1.40186e-16
1.05499e-16
7.90008e-17
5.8865e-17
4.36439e-17
3.2198e-17
2.36359e-17
1.72644e-17
1.25478e-17
9.07439e-18
6.52983e-18
4.6754e-18
3.33096e-18
2.3613e-18
1.66558e-18
1.169e-18
8.16427e-19
5.67438e-19
3.92621e-19
2.70731e-19
1.86582e-19
1.29482e-19
9.20811e-20
6.95437e-20
5.89589e-20
1.83977e-19
2.02436e-19
2.40585e-19
3.00823e-19
3.87032e-19
5.0489e-19
6.62266e-19
8.69725e-19
1.14115e-18
1.4945e-18
1.95284e-18
2.54551e-18
3.30975e-18
4.29251e-18
5.55291e-18
7.16507e-18
9.22169e-18
1.18383e-17
1.51585e-17
1.93604e-17
2.46636e-17
3.13392e-17
3.97196e-17
5.0212e-17
6.33134e-17
7.96285e-17
9.98906e-17
1.24987e-16
1.55986e-16
1.94173e-16
2.41087e-16
2.98564e-16
3.6879e-16
4.5436e-16
5.58339e-16
6.8434e-16
8.36606e-16
1.0201e-15
1.24062e-15
1.5049e-15
1.82074e-15
2.19713e-15
2.64443e-15
3.1745e-15
3.80089e-15
4.53898e-15
5.40624e-15
6.42234e-15
7.60941e-15
8.99223e-15
1.05984e-14
1.24586e-14
1.46066e-14
1.70798e-14
1.99189e-14
2.31684e-14
2.68765e-14
3.10952e-14
3.58802e-14
4.1291e-14
4.73907e-14
5.42458e-14
6.19258e-14
7.05028e-14
8.00514e-14
9.06475e-14
1.02368e-13
1.1529e-13
1.2949e-13
1.45041e-13
1.62016e-13
1.80481e-13
2.00496e-13
2.22117e-13
2.45388e-13
2.70345e-13
2.9701e-13
3.25393e-13
3.5549e-13
3.87278e-13
4.20717e-13
4.5575e-13
4.92296e-13
5.30255e-13
5.69505e-13
6.09902e-13
6.5128e-13
6.93448e-13
7.36199e-13
7.793e-13
8.22503e-13
8.65543e-13
9.08137e-13
9.49994e-13
9.90809e-13
1.03028e-12
1.06808e-12
1.10392e-12
1.13749e-12
1.16849e-12
1.19664e-12
1.22168e-12
1.24337e-12
1.26149e-12
1.27586e-12
1.28633e-12
1.29277e-12
1.2951e-12
1.29329e-12
1.28733e-12
1.27726e-12
1.26317e-12
1.24517e-12
1.22342e-12
1.19812e-12
1.1695e-12
1.13784e-12
1.1034e-12
1.06653e-12
1.02754e-12
9.86801e-13
9.44667e-13
9.01511e-13
8.57709e-13
8.13632e-13
7.69646e-13
7.2611e-13
6.83366e-13
6.41744e-13
6.01552e-13
5.63078e-13
5.26587e-13
4.92321e-13
4.60494e-13
4.31297e-13
4.04891e-13
3.81413e-13
3.60974e-13
3.43657e-13
3.29522e-13
3.18602e-13
3.10906e-13
3.06418e-13
3.05101e-13
3.06894e-13
3.11711e-13
3.19447e-13
3.29972e-13
3.43135e-13
3.58763e-13
3.76664e-13
3.96621e-13
4.18399e-13
4.41744e-13
4.66384e-13
4.92028e-13
5.18374e-13
5.45104e-13
5.71895e-13
5.98413e-13
6.24325e-13
6.49298e-13
6.73005e-13
6.95128e-13
7.15366e-13
7.33436e-13
7.49079e-13
7.62065e-13
7.72197e-13
7.79313e-13
7.83289e-13
7.84045e-13
7.81542e-13
7.75784e-13
7.6682e-13
7.54739e-13
7.39675e-13
7.21794e-13
7.013e-13
6.78427e-13
6.53433e-13
6.26598e-13
5.98214e-13
5.68587e-13
5.38023e-13
5.06827e-13
4.75299e-13
4.43724e-13
4.12374e-13
3.815e-13
3.5133e-13
3.22067e-13
2.93887e-13
2.66938e-13
2.41342e-13
2.17189e-13
1.94545e-13
1.7345e-13
1.53919e-13
1.35948e-13
1.1951e-13
1.04565e-13
9.10571e-14
7.89184e-14
6.80731e-14
5.84389e-14
4.99289e-14
4.24543e-14
3.59257e-14
3.02553e-14
2.53573e-14
2.11499e-14
1.75554e-14
1.45014e-14
1.19207e-14
9.75172e-15
7.93863e-15
6.4312e-15
5.18462e-15
4.15928e-15
3.32042e-15
2.63778e-15
2.08522e-15
1.64032e-15
1.28402e-15
1.00017e-15
7.75237e-16
5.97933e-16
4.58907e-16
3.50469e-16
2.66334e-16
2.01396e-16
1.51539e-16
1.1346e-16
8.45295e-17
6.26636e-17
4.62237e-17
3.39277e-17
2.4779e-17
1.80074e-17
1.30214e-17
9.36912e-18
6.70774e-18
4.77847e-18
3.38716e-18
2.38901e-18
1.67663e-18
1.17088e-18
8.13741e-19
5.63012e-19
3.88204e-19
2.6753e-19
1.85647e-19
1.32017e-19
9.97008e-20
8.45231e-20
3.08479e-19
3.39416e-19
4.03353e-19
5.04308e-19
6.48785e-19
8.46289e-19
1.11e-18
1.4576e-18
1.91233e-18
2.50427e-18
3.272e-18
4.26465e-18
5.54449e-18
7.19009e-18
9.30031e-18
1.19991e-17
1.54415e-17
1.98206e-17
2.53764e-17
3.24062e-17
4.12774e-17
5.24422e-17
6.64558e-17
8.39978e-17
1.05898e-16
1.33163e-16
1.67019e-16
2.08942e-16
2.60714e-16
3.24475e-16
4.02788e-16
4.9871e-16
6.15878e-16
7.58605e-16
9.31987e-16
1.14203e-15
1.39577e-15
1.70147e-15
2.06872e-15
2.50869e-15
3.0343e-15
3.66045e-15
4.40429e-15
5.28541e-15
6.32621e-15
7.55211e-15
8.99188e-15
1.0678e-14
1.26469e-14
1.49394e-14
1.76008e-14
2.06815e-14
2.4237e-14
2.83285e-14
3.30227e-14
3.83922e-14
4.45158e-14
5.14783e-14
5.93705e-14
6.82889e-14
7.83361e-14
8.96195e-14
1.02252e-13
1.16349e-13
1.32031e-13
1.49419e-13
1.68638e-13
1.89809e-13
2.13053e-13
2.38489e-13
2.66226e-13
2.9637e-13
3.29016e-13
3.64244e-13
4.02123e-13
4.42702e-13
4.86013e-13
5.32064e-13
5.80839e-13
6.32293e-13
6.86354e-13
7.42919e-13
8.0185e-13
8.62975e-13
9.2609e-13
9.90953e-13
1.05729e-12
1.12478e-12
1.19308e-12
1.26182e-12
1.33059e-12
1.39896e-12
1.46648e-12
1.53266e-12
1.59703e-12
1.65909e-12
1.71835e-12
1.77432e-12
1.82652e-12
1.87448e-12
1.91778e-12
1.95599e-12
1.98876e-12
2.01574e-12
2.03667e-12
2.05132e-12
2.05951e-12
2.06114e-12
2.05617e-12
2.0446e-12
2.02653e-12
2.00211e-12
1.97154e-12
1.9351e-12
1.89312e-12
1.84599e-12
1.79413e-12
1.73803e-12
1.67819e-12
1.61515e-12
1.54949e-12
1.48177e-12
1.41259e-12
1.34254e-12
1.2722e-12
1.20215e-12
1.13295e-12
1.06512e-12
9.9917e-13
9.35581e-13
8.7479e-13
8.172e-13
7.63173e-13
7.13032e-13
6.67056e-13
6.25486e-13
5.88517e-13
5.56305e-13
5.28965e-13
5.06572e-13
4.89163e-13
4.76736e-13
4.69253e-13
4.66643e-13
4.68795e-13
4.75568e-13
4.86785e-13
5.02238e-13
5.21685e-13
5.44852e-13
5.71435e-13
6.01099e-13
6.3348e-13
6.68184e-13
7.04794e-13
7.4287e-13
7.81948e-13
8.2155e-13
8.61186e-13
9.00356e-13
9.3856e-13
9.75302e-13
1.01009e-12
1.04246e-12
1.07197e-12
1.09819e-12
1.12075e-12
1.13932e-12
1.1536e-12
1.16337e-12
1.16845e-12
1.16873e-12
1.16417e-12
1.15479e-12
1.14065e-12
1.12192e-12
1.09879e-12
1.07151e-12
1.04041e-12
1.00583e-12
9.68159e-13
9.27819e-13
8.85249e-13
8.40898e-13
7.95224e-13
7.48679e-13
7.01703e-13
6.54719e-13
6.08126e-13
5.62291e-13
5.17548e-13
4.74193e-13
4.32481e-13
3.92628e-13
3.54804e-13
3.19143e-13
2.85735e-13
2.54635e-13
2.25862e-13
1.99403e-13
1.75218e-13
1.53242e-13
1.33391e-13
1.15563e-13
9.96431e-14
8.55085e-14
7.30296e-14
6.20744e-14
5.25104e-14
4.42073e-14
3.70384e-14
3.08829e-14
2.56264e-14
2.11619e-14
1.73908e-14
1.42225e-14
1.1575e-14
9.37457e-15
7.55553e-15
6.0598e-15
4.83647e-15
3.84125e-15
3.03591e-15
2.38766e-15
1.86864e-15
1.45526e-15
1.12776e-15
8.69671e-16
6.67345e-16
5.09567e-16
3.87174e-16
2.92728e-16
2.20228e-16
1.64865e-16
1.2281e-16
9.103e-17
6.71397e-17
4.9274e-17
3.59831e-17
2.61469e-17
1.89052e-17
1.36014e-17
9.73692e-18
6.93581e-18
4.91597e-18
3.46704e-18
2.43304e-18
1.69901e-18
1.18071e-18
8.16867e-19
5.63211e-19
3.88116e-19
2.69313e-19
1.91504e-19
1.44619e-19
1.22599e-19
5.15773e-19
5.67473e-19
6.74327e-19
8.43044e-19
1.08448e-18
1.41452e-18
1.85515e-18
2.43591e-18
3.19559e-18
4.18441e-18
5.46674e-18
7.12458e-18
9.2618e-18
1.20095e-17
1.55326e-17
2.00377e-17
2.57834e-17
3.30914e-17
4.23618e-17
5.409e-17
6.88879e-17
8.75085e-17
1.10876e-16
1.40123e-16
1.76627e-16
2.22068e-16
2.78478e-16
3.48317e-16
4.34544e-16
5.40714e-16
6.71083e-16
8.30725e-16
1.02568e-15
1.26309e-15
1.55142e-15
1.90062e-15
2.32234e-15
2.83024e-15
3.44021e-15
4.17073e-15
5.04314e-15
6.08206e-15
7.31578e-15
8.77666e-15
1.05016e-14
1.25324e-14
1.49166e-14
1.77074e-14
2.09649e-14
2.47558e-14
2.91548e-14
3.42443e-14
4.01152e-14
4.68675e-14
5.46102e-14
6.34619e-14
7.35508e-14
8.5015e-14
9.80019e-14
1.12668e-13
1.2918e-13
1.47711e-13
1.68443e-13
1.91563e-13
2.17263e-13
2.45738e-13
2.77186e-13
3.11801e-13
3.49776e-13
3.91294e-13
4.36531e-13
4.85649e-13
5.38793e-13
5.96088e-13
6.57634e-13
7.23503e-13
7.93732e-13
8.68324e-13
9.47241e-13
1.0304e-12
1.11767e-12
1.20886e-12
1.30375e-12
1.40205e-12
1.50341e-12
1.60742e-12
1.71363e-12
1.82153e-12
1.93054e-12
2.04006e-12
2.14943e-12
2.25793e-12
2.36485e-12
2.46942e-12
2.57086e-12
2.66839e-12
2.76122e-12
2.84857e-12
2.92969e-12
3.00386e-12
3.07039e-12
3.12865e-12
3.17808e-12
3.21816e-12
3.24849e-12
3.26873e-12
3.27864e-12
3.27807e-12
3.267e-12
3.24547e-12
3.21365e-12
3.17181e-12
3.12032e-12
3.05964e-12
2.99032e-12
2.91299e-12
2.82836e-12
2.7372e-12
2.64033e-12
2.53863e-12
2.43299e-12
2.32434e-12
2.21361e-12
2.10173e-12
1.98962e-12
1.87817e-12
1.76826e-12
1.6607e-12
1.55628e-12
1.45574e-12
1.35973e-12
1.26888e-12
1.18373e-12
1.10476e-12
1.03238e-12
9.66953e-13
9.08754e-13
8.58003e-13
8.14856e-13
7.79404e-13
7.51684e-13
7.31669e-13
7.19282e-13
7.14387e-13
7.16798e-13
7.26278e-13
7.42537e-13
7.6524e-13
7.94e-13
8.28386e-13
8.6792e-13
9.12081e-13
9.60302e-13
1.01198e-12
1.06648e-12
1.12311e-12
1.18119e-12
1.23998e-12
1.29875e-12
1.35673e-12
1.41319e-12
1.46737e-12
1.51855e-12
1.56603e-12
1.60916e-12
1.64731e-12
1.67993e-12
1.70654e-12
1.72671e-12
1.74011e-12
1.74651e-12
1.74575e-12
1.73777e-12
1.72262e-12
1.70042e-12
1.67142e-12
1.63591e-12
1.59431e-12
1.54707e-12
1.49474e-12
1.4379e-12
1.37718e-12
1.31323e-12
1.24673e-12
1.17835e-12
1.10877e-12
1.03863e-12
9.68575e-13
8.99176e-13
8.30978e-13
7.6447e-13
7.00084e-13
6.38193e-13
5.79108e-13
5.23078e-13
4.70289e-13
4.20872e-13
3.749e-13
3.32395e-13
2.93334e-13
2.57651e-13
2.25248e-13
1.95993e-13
1.69733e-13
1.46297e-13
1.25499e-13
1.07147e-13
9.10426e-14
7.69898e-14
6.47949e-14
5.42704e-14
4.52373e-14
3.75264e-14
3.09799e-14
2.5452e-14
2.08095e-14
1.69314e-14
1.37092e-14
1.10464e-14
8.85747e-15
7.06773e-15
5.61213e-15
4.43456e-15
3.48695e-15
2.72841e-15
2.12443e-15
1.64604e-15
1.26911e-15
9.7369e-16
7.43362e-16
5.64725e-16
4.26903e-16
3.21125e-16
2.40365e-16
1.79027e-16
1.32683e-16
9.7849e-17
7.18034e-17
5.24298e-17
3.80939e-17
2.75406e-17
1.98123e-17
1.41819e-17
1.01012e-17
7.15899e-18
5.04858e-18
3.54266e-18
2.4737e-18
1.71898e-18
1.18919e-18
8.19879e-19
5.64959e-19
3.92004e-19
2.78733e-19
2.10483e-19
1.78428e-19
8.58521e-19
9.44536e-19
1.12232e-18
1.40302e-18
1.80469e-18
2.35372e-18
3.08668e-18
4.05267e-18
5.31613e-18
6.96053e-18
9.09283e-18
1.18492e-17
1.54023e-17
1.99698e-17
2.58254e-17
3.33123e-17
4.28595e-17
5.50011e-17
7.04009e-17
8.98805e-17
1.14455e-16
1.45372e-16
1.84166e-16
2.32709e-16
2.93288e-16
3.68683e-16
4.6226e-16
5.78087e-16
7.21065e-16
8.97071e-16
1.11314e-15
1.37767e-15
1.70062e-15
2.09382e-15
2.5712e-15
3.14919e-15
3.84702e-15
4.68721e-15
5.69593e-15
6.9036e-15
8.34536e-15
1.00617e-14
1.20991e-14
1.45108e-14
1.73572e-14
2.07072e-14
2.46383e-14
2.9238e-14
3.46044e-14
4.08469e-14
4.80872e-14
5.64599e-14
6.61134e-14
7.72103e-14
8.99283e-14
1.0446e-13
1.21013e-13
1.39812e-13
1.61095e-13
1.85116e-13
2.12142e-13
2.42453e-13
2.76341e-13
3.14107e-13
3.56058e-13
4.02505e-13
4.53762e-13
5.10137e-13
5.71934e-13
6.39443e-13
7.12937e-13
7.92667e-13
8.78856e-13
9.71691e-13
1.07132e-12
1.17784e-12
1.2913e-12
1.41168e-12
1.53891e-12
1.67282e-12
1.81319e-12
1.95971e-12
2.11198e-12
2.2695e-12
2.43171e-12
2.59795e-12
2.76744e-12
2.93937e-12
3.11279e-12
3.28671e-12
3.46007e-12
3.63173e-12
3.80052e-12
3.96522e-12
4.1246e-12
4.27739e-12
4.42235e-12
4.55827e-12
4.68396e-12
4.79827e-12
4.90016e-12
4.98865e-12
5.06287e-12
5.12206e-12
5.1656e-12
5.193e-12
5.20393e-12
5.19821e-12
5.17582e-12
5.1369e-12
5.08176e-12
5.01088e-12
4.92488e-12
4.82454e-12
4.71075e-12
4.58457e-12
4.44713e-12
4.29968e-12
4.14356e-12
3.98014e-12
3.81086e-12
3.63718e-12
3.46057e-12
3.28249e-12
3.10438e-12
2.92765e-12
2.75362e-12
2.58359e-12
2.41875e-12
2.26023e-12
2.10904e-12
1.96611e-12
1.83226e-12
1.70822e-12
1.59459e-12
1.49188e-12
1.4005e-12
1.32076e-12
1.25285e-12
1.1969e-12
1.15291e-12
1.12081e-12
1.10046e-12
1.09162e-12
1.09397e-12
1.10711e-12
1.13058e-12
1.16384e-12
1.20628e-12
1.25722e-12
1.31591e-12
1.38154e-12
1.45324e-12
1.53009e-12
1.61109e-12
1.69523e-12
1.78143e-12
1.8686e-12
1.95562e-12
2.04136e-12
2.1247e-12
2.20452e-12
2.27974e-12
2.34933e-12
2.4123e-12
2.46776e-12
2.51488e-12
2.55296e-12
2.58138e-12
2.59969e-12
2.60753e-12
2.60469e-12
2.59112e-12
2.5669e-12
2.53224e-12
2.48751e-12
2.43319e-12
2.36989e-12
2.29832e-12
2.21929e-12
2.13367e-12
2.04241e-12
1.94649e-12
1.8469e-12
1.74467e-12
1.64078e-12
1.5362e-12
1.43185e-12
1.32859e-12
1.22722e-12
1.12845e-12
1.03292e-12
9.41166e-13
8.53642e-13
7.70705e-13
6.92623e-13
6.19578e-13
5.5167e-13
4.88923e-13
4.31295e-13
3.78682e-13
3.30931e-13
2.87842e-13
2.49186e-13
2.14703e-13
1.84116e-13
1.57139e-13
1.33477e-13
1.12838e-13
9.49354e-14
7.94911e-14
6.62405e-14
5.49338e-14
4.5338e-14
3.72381e-14
3.04377e-14
2.4759e-14
2.00423e-14
1.61455e-14
1.29432e-14
1.03256e-14
8.19725e-15
6.47591e-15
5.09106e-15
3.9828e-15
3.10056e-15
2.40192e-15
1.85158e-15
1.42034e-15
1.08418e-15
8.23516e-16
6.22443e-16
4.68148e-16
3.50366e-16
2.60923e-16
1.93354e-16
1.42576e-16
1.04613e-16
7.63785e-17
5.54885e-17
4.01125e-17
2.88535e-17
2.0652e-17
1.47084e-17
1.04234e-17
7.35012e-18
5.15732e-18
3.60092e-18
2.50213e-18
1.73088e-18
1.19327e-18
8.22214e-19
5.70474e-19
4.05612e-19
3.06278e-19
2.59627e-19
1.422e-18
1.5644e-18
1.85872e-18
2.32343e-18
2.98837e-18
3.89721e-18
5.11043e-18
6.70922e-18
8.80019e-18
1.15213e-17
1.50495e-17
1.96098e-17
2.54876e-17
3.30425e-17
4.27269e-17
5.51079e-17
7.08937e-17
9.09666e-17
1.16422e-16
1.48617e-16
1.89226e-16
2.40309e-16
3.04394e-16
3.84571e-16
4.8461e-16
6.09091e-16
7.63561e-16
9.54722e-16
1.19064e-15
1.481e-15
1.83736e-15
2.27354e-15
2.80593e-15
3.45395e-15
4.24051e-15
5.19256e-15
6.3417e-15
7.72484e-15
9.38492e-15
1.13718e-14
1.3743e-14
1.65648e-14
1.99134e-14
2.38755e-14
2.85502e-14
3.40497e-14
4.05007e-14
4.80457e-14
5.68445e-14
6.70752e-14
7.89358e-14
9.2645e-14
1.08444e-13
1.26595e-13
1.47388e-13
1.71133e-13
1.98166e-13
2.2885e-13
2.63568e-13
3.02728e-13
3.46761e-13
3.96115e-13
4.51256e-13
5.12665e-13
5.80832e-13
6.56253e-13
7.39421e-13
8.30827e-13
9.30945e-13
1.04023e-12
1.1591e-12
1.28796e-12
1.42713e-12
1.5769e-12
1.73747e-12
1.909e-12
2.09152e-12
2.28498e-12
2.48921e-12
2.70396e-12
2.92881e-12
3.16323e-12
3.40655e-12
3.65796e-12
3.91651e-12
4.18111e-12
4.45052e-12
4.72336e-12
4.99815e-12
5.27327e-12
5.547e-12
5.81752e-12
6.08296e-12
6.34137e-12
6.59079e-12
6.82923e-12
7.05475e-12
7.2654e-12
7.45935e-12
7.63482e-12
7.79019e-12
7.92395e-12
8.03477e-12
8.12153e-12
8.1833e-12
8.21937e-12
8.22928e-12
8.21283e-12
8.17006e-12
8.10127e-12
8.00703e-12
7.88814e-12
7.74566e-12
7.58088e-12
7.39528e-12
7.19055e-12
6.96854e-12
6.73127e-12
6.48083e-12
6.21945e-12
5.94939e-12
5.67295e-12
5.39245e-12
5.11017e-12
4.82835e-12
4.54916e-12
4.27469e-12
4.00691e-12
3.74765e-12
3.49863e-12
3.26139e-12
3.03733e-12
2.82768e-12
2.63351e-12
2.45572e-12
2.29505e-12
2.15208e-12
2.02721e-12
1.92072e-12
1.83272e-12
1.76319e-12
1.71198e-12
1.67881e-12
1.66325e-12
1.66479e-12
1.68278e-12
1.71646e-12
1.76499e-12
1.8274e-12
1.90261e-12
1.98948e-12
2.08674e-12
2.19306e-12
2.30701e-12
2.4271e-12
2.55177e-12
2.6794e-12
2.80833e-12
2.93688e-12
3.06336e-12
3.18609e-12
3.30341e-12
3.41371e-12
3.51545e-12
3.6072e-12
3.68762e-12
3.75552e-12
3.80986e-12
3.84977e-12
3.87457e-12
3.88378e-12
3.87712e-12
3.85453e-12
3.81615e-12
3.76236e-12
3.6937e-12
3.61092e-12
3.51494e-12
3.40685e-12
3.28784e-12
3.15925e-12
3.02248e-12
2.87898e-12
2.73025e-12
2.57778e-12
2.42304e-12
2.26745e-12
2.11238e-12
1.9591e-12
1.80876e-12
1.66241e-12
1.52098e-12
1.38525e-12
1.25587e-12
1.13336e-12
1.01811e-12
9.1036e-13
8.10252e-13
7.17809e-13
6.32957e-13
5.55532e-13
4.853e-13
4.21959e-13
3.65162e-13
3.14521e-13
2.69624e-13
2.30042e-13
1.95339e-13
1.65084e-13
1.3885e-13
1.16227e-13
9.6825e-14
8.02753e-14
6.62349e-14
5.43873e-14
4.44439e-14
3.61431e-14
2.92506e-14
2.35579e-14
1.88812e-14
1.50594e-14
1.19528e-14
9.44092e-15
7.42056e-15
5.8041e-15
4.51758e-15
3.49904e-15
2.69687e-15
2.06841e-15
1.57862e-15
1.1989e-15
9.0604e-16
6.8135e-16
5.09859e-16
3.79651e-16
2.81302e-16
2.07402e-16
1.52161e-16
1.11082e-16
8.06922e-17
5.83265e-17
4.19513e-17
3.00241e-17
2.13814e-17
1.51512e-17
1.06832e-17
7.49548e-18
5.2331e-18
3.63604e-18
2.51513e-18
1.73384e-18
1.19462e-18
8.28815e-19
5.89262e-19
4.44929e-19
3.77145e-19
2.34342e-18
2.57797e-18
3.06278e-18
3.82822e-18
4.92343e-18
6.42026e-18
8.41826e-18
1.1051e-17
1.4494e-17
1.89741e-17
2.47823e-17
3.22891e-17
4.19633e-17
5.43965e-17
7.03325e-17
9.07032e-17
1.16673e-16
1.4969e-16
1.91556e-16
2.44498e-16
3.11266e-16
3.95242e-16
5.00574e-16
6.32334e-16
7.96705e-16
1.0012e-15
1.25491e-15
1.56882e-15
1.95614e-15
2.43274e-15
3.01756e-15
3.73318e-15
4.60645e-15
5.66911e-15
6.95862e-15
8.51903e-15
1.04019e-14
1.26676e-14
1.53861e-14
1.86387e-14
2.25193e-14
2.71358e-14
3.26121e-14
3.90896e-14
4.67292e-14
5.57132e-14
6.62475e-14
7.85633e-14
9.29197e-14
1.09605e-13
1.2894e-13
1.51278e-13
1.77009e-13
2.06557e-13
2.40388e-13
2.79001e-13
3.2294e-13
3.72783e-13
4.29147e-13
4.92687e-13
5.64088e-13
6.44069e-13
7.33372e-13
8.3276e-13
9.43011e-13
1.06491e-12
1.19923e-12
1.34675e-12
1.50821e-12
1.68431e-12
1.87571e-12
2.08301e-12
2.30671e-12
2.54724e-12
2.8049e-12
3.07986e-12
3.37217e-12
3.68169e-12
4.00812e-12
4.35098e-12
4.70958e-12
5.08302e-12
5.47018e-12
5.86972e-12
6.28007e-12
6.69946e-12
7.12586e-12
7.55707e-12
7.99066e-12
8.42404e-12
8.85446e-12
9.27903e-12
9.69475e-12
1.00985e-11
1.04873e-11
1.08579e-11
1.12072e-11
1.15324e-11
1.18304e-11
1.20985e-11
1.23343e-11
1.25355e-11
1.27e-11
1.28261e-11
1.29125e-11
1.29581e-11
1.29625e-11
1.29252e-11
1.28466e-11
1.27272e-11
1.2568e-11
1.23704e-11
1.21362e-11
1.18674e-11
1.15665e-11
1.12362e-11
1.08795e-11
1.04996e-11
1.00999e-11
9.6838e-12
9.25493e-12
8.8169e-12
8.37332e-12
7.92777e-12
7.48371e-12
7.0445e-12
6.61336e-12
6.1933e-12
5.78713e-12
5.39745e-12
5.02661e-12
4.67669e-12
4.34954e-12
4.04674e-12
3.7696e-12
3.51918e-12
3.29629e-12
3.10149e-12
2.93512e-12
2.79728e-12
2.68786e-12
2.60654e-12
2.55283e-12
2.52603e-12
2.52527e-12
2.5495e-12
2.59753e-12
2.668e-12
2.75939e-12