/*--------------------------------*- C++ -*----------------------------------*\
| =========                 |                                                 |
| \\      /  F ield         | OpenFOAM: The Open Source CFD Toolbox           |
|  \\    /   O peration     | Version:  v2012                                 |
|   \\  /    A nd           | Website:  www.openfoam.com                      |
|    \\/     M anipulation  |                                                 |
\*---------------------------------------------------------------------------*/
FoamFile
{
    version     2.0;
    format      ascii;
    class       volScalarField;
    location    "0";
    object      p;
}
// * * * * * * * * * * * * * * * * * * * * * * * * * * * * * * * * * * * * * //

dimensions      [0 2 -2 0 0 0 0];


internalField   nonuniform List<scalar> 
4000
(
0.375681
0.342693
0.325532
0.202131
0.191803
0.028916
-0.107179
-0.0718199
-0.0456621
-0.195592
-0.16726
-0.0446103
-0.0784873
-0.0701817
0.00649726
0.0617473
-0.0378411
-0.0245754
0.339972
0.35878
0.256793
0.13559
0.139107
0.0554198
0.136715
0.0860417
0.00663462
0.070918
0.133476
0.15002
0.106816
0.176563
0.12018
0.0361127
-0.0883214
-0.182966
-0.296122
-0.2266
-0.273193
-0.196777
-0.179855
-0.185926
-0.155432
-0.144186
-0.00993508
-0.0972217
-0.192484
-0.0700523
-0.0530297
-0.0569852
0.066056
0.153205
0.157838
0.277057
0.232989
0.166473
0.121821
0.083698
0.0364778
-0.0569947
-0.0796434
-0.17526
-0.42875
-0.353314
-0.132835
0.0433959
0.0826105
0.241724
0.333207
0.236464
0.243198
0.150178
0.124537
0.12363
0.042648
-0.0970761
-0.133967
-0.23198
-0.249808
-0.375935
-0.269293
-0.113414
0.00715495
0.0709539
0.0343923
0.113565
0.394806
0.201922
0.0261736
-0.101742
-0.249583
-0.302308
-0.238585
-0.145126
-0.0569412
-0.000993673
0.0168206
-0.0254946
-0.0550737
0.0678142
0.366467
0.36904
0.36606
0.217846
0.114929
0.0523179
-0.118128
-0.0408654
-0.0640221
-0.157358
-0.0950465
-0.126979
-0.14978
-0.0370547
-0.000145143
0.0298333
0.0113908
0.0646036
0.265086
0.337527
0.248551
0.187929
0.143938
0.0382849
0.104334
0.104914
-0.00222726
0.0785521
0.147322
0.129213
0.0112023
0.144818
0.195957
0.0113054
-0.087425
-0.111273
-0.243845
-0.259365
-0.30082
-0.28599
-0.222959
-0.128854
-0.0794164
-0.105452
-0.0530372
-0.159195
-0.1678
-0.0898638
-0.0807093
-0.00651633
0.0408762
0.175286
0.183758
0.270627
0.176922
0.143281
0.182486
0.157493
0.0132724
-0.110545
-0.124179
-0.206232
-0.3357
-0.272158
-0.147475
-0.0287203
0.0826325
0.186054
0.307508
0.331625
0.224539
0.145789
0.120064
0.123952
0.0291179
-0.0542303
-0.192217
-0.241115
-0.263315
-0.293957
-0.221916
-0.170499
-0.0700865
0.0574392
0.158717
0.107126
0.304933
0.237164
0.073684
-0.165203
-0.234535
-0.234125
-0.211395
-0.216817
-0.10472
0.00600664
0.0128867
-0.0153166
0.0281931
0.0335888
0.36762
0.404381
0.363907
0.267921
0.13335
-0.0654321
-0.0972199
0.0491293
-0.0334431
-0.228887
-0.183246
-0.0767851
-0.101394
-0.0708549
0.0218967
-0.0502062
0.063534
0.121286
0.211661
0.295833
0.168128
0.254726
0.184821
0.0675531
0.0224844
-0.0322409
-0.0348786
0.0964068
0.148824
0.112333
0.0233069
0.0827395
0.157108
0.0838261
-0.0631406
-0.151733
-0.218587
-0.175873
-0.222456
-0.297432
-0.199215
-0.0540044
-0.07752
-0.05751
-0.11377
-0.139114
-0.133436
-0.0656288
-0.174597
-0.0826076
0.10671
0.222208
0.255415
0.310177
0.303382
0.135505
0.147688
0.0969757
-0.00098215
-0.167456
-0.104558
-0.172884
-0.227534
-0.292818
-0.179993
-0.0342498
0.105738
0.196552
0.233077
0.303261
0.371225
0.159944
0.114499
0.0626514
0.0163249
-0.00796566
-0.213678
-0.309062
-0.227544
-0.231605
-0.192525
-0.0870177
-0.100872
0.0588115
0.208128
0.163361
0.195019
0.162711
0.117015
-0.104386
-0.191884
-0.178398
-0.251403
-0.247857
-0.0920258
-0.103261
-0.00670631
0.0536425
0.00254702
-0.0546831
0.410296
0.428903
0.376877
0.249594
0.130668
0.00606718
-0.134756
-0.042374
-0.157942
-0.19223
-0.231529
-0.0575434
-0.0902648
-0.104293
-0.0529
0.0164983
0.0107397
0.0995682
0.223426
0.253619
0.187
0.191844
0.203865
0.00946121
-0.00494372
0.0329484
-0.0122531
0.0627818
0.117639
0.0929454
0.0522267
0.069234
0.0822208
0.0327607
-0.0820829
-0.191149
-0.172073
-0.122663
-0.14133
-0.110036
-0.110886
-0.166324
-0.0302743
-0.0522464
-0.082276
-0.168537
-0.154681
-0.0680543
-0.142415
-0.110678
0.117187
0.20495
0.294243
0.29234
0.308122
0.193753
0.139946
0.0425608
0.00879225
-0.0648416
-0.0937697
-0.227749
-0.229712
-0.237955
-0.204275
0.011565
0.0876127
0.11494
0.31752
0.271023
0.216869
0.158567
0.164586
0.0542105
0.00223869
-0.0561571
-0.171755
-0.249435
-0.233902
-0.165744
-0.116226
-0.101946
-0.0974289
0.0770548
0.218945
0.120594
0.151537
0.170115
0.184967
-0.0452243
-0.116903
-0.191414
-0.20797
-0.190268
-0.203737
-0.12298
-0.0520442
0.00219795
0.0305754
-0.0508081
0.363811
0.381946
0.330055
0.226495
0.0684842
-0.0277973
-0.112853
-0.147757
-0.187334
-0.247191
-0.247173
-0.0967986
-0.115998
-0.158802
-0.068891
0.0824778
-0.0238174
0.0825765
0.332523
0.290627
0.194911
0.118556
0.205946
-0.0192751
-0.0390068
-0.00181663
-0.0621722
0.0379998
-0.0442563
0.10354
-0.0305767
0.0526926
0.109095
-0.00211605
-0.109293
-0.175662
0.0115896
-0.0291762
-0.0385401
-0.0747869
-0.0997444
-0.125309
-0.0226603
-0.0606599
-0.0128705
-0.0868637
-0.00617033
-0.0605126
-0.112085
-0.109243
0.109901
0.323236
0.35565
0.22443
0.210619
0.211637
0.14679
0.0197266
-0.0499604
-0.0999903
-0.0728507
-0.0409779
-0.244235
-0.259922
-0.092768
0.00276468
0.0957656
0.0729737
0.250125
0.25715
0.270674
0.264202
0.143615
0.00963045
-0.0932457
-0.0664162
-0.13189
-0.215574
-0.221497
-0.128994
0.002162
-0.148186
-0.0256504
0.0282116
0.185819
0.18687
0.182508
0.228972
0.236665
0.0276773
-0.145539
-0.184887
-0.247259
-0.297658
-0.114934
-0.185274
-0.0765466
-0.0210661
0.0469549
0.0107881
0.314545
0.315797
0.238734
0.215491
0.0374152
-0.155521
-0.0934875
-0.141172
-0.19066
-0.208394
-0.216952
-0.184219
-0.201606
-0.171176
-0.110887
-0.00618092
0.0700037
0.129464
0.187681
0.215608
0.258928
0.0591783
0.105341
0.0588738
-0.0247492
0.00514026
-0.0590428
0.0476528
-0.117873
0.0980567
-0.025841
-0.030197
-0.0287276
-0.0710239
-0.108001
-0.0442104
0.0330018
-0.0147014
0.0777303
-0.0389859
-0.07577
-0.0513421
0.097807
0.0197752
-0.0808529
-0.121847
-0.00484174
-0.0554168
-0.132234
-0.043989
0.107471
0.263326
0.305851
0.26157
0.196694
0.220883
0.0945092
0.0488732
0.0122793
-0.114535
-0.077692
-0.0727647
-0.188647
-0.11466
-0.184147
-0.00574484
0.0527946
0.11158
0.223459
0.196049
0.213933
0.257068
0.170339
0.0717233
-0.039442
-0.14523
-0.119252
-0.191901
-0.20671
-0.109642
-0.0370079
-0.115046
0.0154923
0.0953583
0.13373
0.189883
0.181415
0.211892
0.158926
0.101002
-0.0650275
-0.199697
-0.215298
-0.260609
-0.134804
-0.195341
-0.0450643
0.037829
-0.0121787
0.00702881
0.247171
0.226266
0.150709
0.13407
-0.0232954
-0.173718
-0.165229
-0.162139
-0.196522
-0.266928
-0.230868
-0.163458
-0.236824
-0.19116
-0.0554748
-0.00799253
0.0146233
0.0969928
0.245933
0.211702
0.190535
0.0671237
-0.00378122
-0.0811576
-0.027336
0.00368241
-0.0353121
-0.051961
-0.00313443
-0.000425315
-0.136458
-0.0606549
-0.0750037
-0.0361605
0.0237997
-0.0213091
0.0805562
0.0543027
0.156615
-0.047031
-0.00416668
-0.0395263
-0.0228103
0.0341554
-0.126749
-0.0524898
-0.0213469
0.0340513
-0.0898651
-0.0556495
0.0747286
0.298837
0.291947
0.193283
0.223439
0.1327
0.0497702
0.0700193
-0.0375246
-0.0872445
-0.078297
-0.106781
-0.181079
-0.0724446
-0.101586
0.0270982
0.0609457
0.0684316
0.132034
0.253685
0.182419
0.17683
0.170504
0.0912522
-0.0526796
-0.171067
-0.0949059
-0.0743646
-0.123109
-0.129085
-0.0694868
-0.0708461
-0.0516259
0.0725126
0.147483
0.26496
0.182763
0.168364
0.126684
0.0791647
-0.0324813
-0.21321
-0.243763
-0.20697
-0.158995
-0.13576
-0.124948
-0.0388093
0.0138704
0.0034547
0.174971
0.158535
0.108781
0.0198847
-0.0215503
-0.191904
-0.183721
-0.138051
-0.150637
-0.195564
-0.239568
-0.225888
-0.153581
-0.120567
-0.0730515
-0.0491702
0.0220594
0.142575
0.0929314
0.130565
0.219113
0.0349667
-0.0556254
0.0125758
-0.0098134
-0.0772421
-0.0744368
-0.0729573
-0.0661956
0.0215516
-0.142343
-0.145414
-0.134303
-0.0521491
0.105761
0.0409549
0.0437012
0.126263
0.188579
-0.0175465
0.0636172
0.118781
0.0100524
0.000496828
-0.0473791
-0.0381591
-0.0832416
-0.105945
-0.0257776
0.136833
0.0468675
0.121775
0.242511
0.193652
0.265094
0.0730598
-0.0283427
0.014252
-0.0647672
-0.0648375
-0.0199459
-0.106763
-0.180174
-0.0701413
-0.121
0.0251339
0.0276169
0.0427855
0.154351
0.17965
0.119638
0.0776214
0.185148
0.159919
-0.014049
-0.132212
-0.112557
-0.122301
-0.150485
-0.0934213
-0.113325
-0.0863504
0.0297908
0.0308702
0.230886
0.251462
0.156922
0.174092
0.0552524
0.107406
-0.0516267
-0.156127
-0.203808
-0.136552
-0.15009
-0.153646
-0.120786
0.0030235
0.0334869
0.0684028
0.150098
0.131976
0.0413079
-0.0090825
-0.0818162
-0.103927
-0.171737
-0.218693
-0.19634
-0.21209
-0.135481
-0.128436
-0.102908
-0.0987472
-0.0656417
-0.0892105
0.0822155
0.0594553
-0.0408199
0.0896134
0.243602
0.082761
0.0147859
-0.0554709
0.0452375
-0.0138324
-0.0865332
-0.0564962
-0.125778
-0.0940935
-0.246333
-0.125512
-0.0693211
0.120329
0.115999
-0.034523
-0.0173151
0.135571
0.21013
0.194402
0.164864
0.0971956
-0.0175017
0.121247
0.00117531
-0.0893123
-0.0750886
-0.0681945
0.00429482
0.0757757
-0.0268005
0.159914
0.171948
0.161056
0.13901
-0.0353002
-0.0478737
0.00621557
-0.107409
-0.0017508
0.0493176
-0.0152539
-0.0919319
-0.108717
-0.165518
0.0366149
-0.00131933
-0.0178272
0.102314
0.102149
0.10153
0.150119
0.153878
0.0808248
-0.0129178
-0.15721
-0.0964589
-0.030493
-0.145018
-0.140558
-0.0586291
-0.0563171
0.0317782
0.084299
0.219184
0.187789
0.121217
0.165927
0.0798917
0.110207
0.00292062
-0.157217
-0.23418
0.0293932
-0.114652
-0.148611
-0.100939
0.0230628
-0.0448611
0.073425
0.0869297
0.0718484
-0.0214168
-0.0199976
-0.0908707
-0.189627
-0.15398
-0.147604
-0.205664
-0.209991
-0.214444
-0.0325444
-0.0288246
-0.0813474
-0.0367665
-0.101926
0.025562
-0.0225286
-0.117017
0.101143
0.251495
0.145368
-0.0138398
-0.0886705
0.0131779
-0.0499185
-0.0795512
-0.165663
-0.154709
-0.0948452
-0.178537
-0.16171
-0.135399
0.0686433
0.16825
0.00443691
0.0831148
0.10058
0.21244
0.166795
0.188387
0.195745
0.0475563
0.0403167
-0.0301918
-0.119466
0.0254558
-0.10477
-0.0767571
0.0627661
0.0371842
0.0951124
0.175019
0.0774141
0.1039
-0.0902433
-0.0175823
0.0619343
-0.109642
-0.0281995
-0.0396182
-0.107637
-0.0953411
-0.0621986
-0.103722
-0.0159975
0.0866684
-0.0234936
-0.0407384
0.0717499
0.0511564
0.206018
0.144796
0.0857404
-0.0632011
-0.153654
-0.0576349
-0.0998236
-0.251586
-0.0860404
-0.00566678
-0.0436344
0.120094
0.138253
0.237805
0.235886
0.132248
0.000396523
0.116133
0.0527331
0.00903673
-0.149554
-0.11201
0.0706318
-0.118605
-0.039895
-0.070823
0.0244908
-0.066358
0.0696213
0.0322155
0.05981
-0.0364827
-0.0601454
-0.0886956
-0.0966609
-0.247381
-0.177587
-0.123435
-0.116488
-0.119314
-0.0756544
-0.133946
0.0270601
0.030854
-0.0904892
-0.0143833
-0.0373273
-0.0129033
0.0912404
0.15097
0.164497
0.0555479
-0.0846841
-0.0245652
-0.0762265
-0.135413
-0.17764
-0.205875
-0.0799069
-0.115246
-0.211388
-0.0785516
0.0400994
0.0623373
0.00645826
0.0787223
0.137036
0.301501
0.206542
0.126564
0.187231
0.0835032
0.11236
0.12103
-0.030834
0.00779796
-0.0982784
-0.0438176
-0.0144628
-0.00158074
0.144053
0.0270982
0.0108812
-0.0423916
-0.0638468
0.0357707
0.0871998
-0.0116161
-0.100152
-0.0834392
0.0207193
-0.0244782
-0.05135
-0.0880458
-0.0342722
0.00808219
-0.0637763
0.0843824
0.0562822
0.0781855
0.124896
0.0283149
0.0374125
-0.0322895
-0.126949
-0.0915182
-0.134068
-0.261756
-0.0794711
-0.0866238
-0.0971137
0.085754
0.202381
0.202152
0.26219
0.144757
0.10123
0.107516
0.0471305
0.0143308
-0.100014
0.0082965
0.106369
-0.24464
-0.16101
-0.0747574
0.030227
0.0395632
0.0861633
0.0118879
0.032003
-0.0695654
-0.0839376
-0.0852624
-0.113777
-0.190619
-0.188859
-0.134961
-0.0825093
-0.0313082
0.0133929
-0.0927344
0.0261409
0.0132688
0.0613274
-0.0859131
-0.0642192
-0.058217
0.0294415
0.176352
0.262535
0.0754506
-0.0250279
-0.172945
-0.130578
-0.130662
-0.335623
-0.146534
-0.0294549
-0.0852223
-0.155038
-0.0326669
0.0705578
-0.00855204
0.0868426
0.200999
0.0755948
0.209722
0.208465
0.157615
0.144233
0.173379
0.118306
0.0504762
0.0332058
0.022414
-0.0624452
-0.0509635
0.0059241
0.0367847
-0.0580618
-0.0426775
-0.0413718
-0.0132095
0.0062387
-0.03913
-0.0207299
-0.0828038
-0.0789564
-0.0720299
-0.0802565
-0.0498118
-0.0877856
6.90688e-05
0.0661584
-0.0356955
-0.0138905
0.112859
0.0801825
-0.0221862
0.00548455
0.0402278
0.0296227
-0.0608944
-0.119991
-0.215518
-0.0720961
-0.281447
-0.16552
-0.0611282
0.0130689
0.116087
0.203159
0.211471
0.19317
0.164057
0.142681
0.0788428
0.0576076
0.00179631
-0.0251249
0.00155628
0.0413757
-0.137409
-0.132889
-0.104649
0.0320086
0.0414196
0.0224919
0.008556
0.0255724
-0.055086
-0.141649
-0.182616
-0.174439
-0.151211
-0.0695705
-0.00563935
-0.0766211
-0.136011
0.112857
-0.0371389
0.00761173
-0.0303225
0.121585
-0.0144018
-0.101645
-0.0677982
0.0289322
0.200968
0.213551
0.1078
-0.0304527
-0.24141
-0.212139
-0.184696
-0.122109
-0.164148
-0.103267
-0.0436517
-0.201844
0.00671555
0.0666758
0.00782585
0.0816571
0.213021
0.0460799
0.187768
0.189488
0.206685
0.113257
0.142982
0.137309
0.111375
0.0629906
0.0167183
-0.0133134
-0.0396647
0.00588436
0.00692326
-0.0802658
-0.137864
-0.0976367
0.0073569
0.0643272
-0.0892755
-0.118565
-0.0734815
0.00139915
-0.126184
-0.176029
-0.0257651
-0.0786508
0.0314962
0.0625255
0.00225477
-0.0379836
0.0684168
0.100208
0.0198629
0.00794477
-0.0258689
-0.0746171
-0.0915391
-0.0745271
-0.187738
-0.161724
-0.239572
-0.0926354
-0.0217545
-0.0679865
0.0259413
0.232412
0.188574
0.210396
0.327175
0.202443
0.0706559
0.137621
0.0472707
-0.000747251
-0.0541096
-0.0307879
-0.141652
-0.154994
-0.123931
0.030886
0.0747454
0.0316427
-0.0506626
-0.0259094
-0.0778473
-0.146635
-0.180535
-0.109856
-0.0973081
-0.118566
-0.10116
-0.0133555
0.0268773
0.115624
-0.000776778
0.0793276
-0.03082
0.032019
0.00301875
-0.0120714
-0.023154
-0.0110745
0.0143945
0.0755334
0.0814745
0.0493048
-0.194246
-0.334661
-0.253723
-0.123505
-0.0745646
-0.0277376
-0.116468
-0.214446
-0.0242571
-0.00956575
0.112436
0.196358
0.198202
0.0497653
0.086006
0.0707923
0.166315
0.158051
0.0923102
0.140234
0.227874
0.0574038
-0.0135556
-0.00844784
-0.0504792
-0.0241319
-0.0274653
-0.0861691
-0.160199
-0.089023
-0.117582
0.0273054
-0.0728117
-0.187401
-0.13522
-0.139421
-0.130318
-0.116587
-0.0703291
-0.0160322
-0.0290309
0.0253218
-0.00264603
0.00469484
-0.0116808
0.0216979
-0.0400546
-0.03069
0.0267589
0.0164917
-0.0820611
-0.0905653
-0.166677
-0.131524
-0.200886
-0.102388
-0.0752148
0.00216922
0.0466248
0.166784
0.228838
0.235545
0.322852
0.207668
0.102453
0.177768
0.0977294
-0.0234281
-0.053223
-0.0615452
-0.10107
-0.0742635
-0.065053
-0.0241447
-0.0237555
-0.0155408
-0.0284709
-0.0689449
-0.14949
-0.104514
-0.166722
-0.0909261
-0.0866866
-0.0750443
-0.105228
0.0999399
0.0738654
0.0690811
0.0711482
0.0363566
-0.0514409
0.0294867
0.0400269
0.0446389
0.0322279
-0.0788492
0.0146927
-0.0347966
-0.00115161
0.068764
-0.163527
-0.198785
-0.180184
-0.0756025
-0.0441468
-0.0761673
-0.231341
-0.122502
0.0524271
-0.0339736
0.123999
0.139305
0.114304
0.0333602
0.0771443
0.0331966
0.132458
0.165832
0.142304
0.126361
0.16195
-0.0064915
0.0119853
-0.0554614
-0.0152872
0.0313758
-0.0549003
-0.100963
-0.259042
-0.0877861
-0.139292
-0.0346327
-0.0653483
-0.206868
-0.182959
-0.202201
-0.232377
-0.108302
-0.0798268
0.00378425
-0.000597773
0.00724718
0.0605068
0.0138107
-0.047856
-0.00725885
-0.00282655
-0.0374356
0.0707802
-0.0331342
-0.095793
-0.0838227
-0.106067
-0.224184
-0.178922
-0.0640955
-0.0335817
-0.0220113
0.0890569
0.103558
0.230241
0.298658
0.312409
0.278782
0.163645
0.0879223
0.10516
0.0450112
0.00695795
-0.0929236
-0.0966085
-0.0662153
-0.120548
-0.00565262
-0.0988857
0.0221357
0.00233682
-0.0553909
-0.0847042
-0.00689435
-0.231762
-0.127559
-0.122357
-0.149823
-0.0412774
0.161562
0.0893752
0.122627
0.0782775
0.0470468
0.106782
0.0394035
0.0987618
-0.0238965
-0.0157958
-0.0713516
-0.082088
-0.0377049
0.0343381
-0.00446642
-0.149031
-0.24552
-0.138326
-0.163052
-0.120313
-0.0265632
-0.0827491
-0.166651
-0.00681117
0.018921
0.172546
0.204407
0.172712
0.0778839
0.00739455
0.0254459
0.113044
0.161151
0.0674315
0.0362729
0.0399354
0.0209548
-0.00907188
-0.150682
-0.0278805
0.0590863
-0.117833
-0.109437
-0.137971
-0.11334
-0.16741
-0.0571564
-0.0961615
-0.204399
-0.272176
-0.254533
-0.217418
-0.13367
-0.117629
-0.0531225
0.060986
-0.0227584
0.085641
0.0126112
-0.0165238
-0.0162861
-0.00325419
-0.0256631
0.143142
-0.067684
-0.0992711
-0.0843095
-0.148357
-0.184656
-0.153439
-0.055596
-0.0364311
-0.0835627
0.0618485
0.156277
0.0975063
0.290377
0.345673
0.19971
0.159151
0.148757
0.191391
0.106945
-0.004177
-0.0518388
-0.158242
-0.0582399
-0.0601089
-0.0153899
-0.0853445
-0.0606474
-0.0288982
-0.0755611
-0.183705
-0.093225
-0.117302
-0.0401221
-0.0370231
-0.106848
-0.106251
0.121694
0.134844
0.0792059
0.107452
0.125453
0.142101
0.0959995
0.0940042
0.0802994
-0.0596224
-0.0466971
-0.0716497
0.00549522
-0.119725
0.0449011
0.0265926
-0.107797
-0.156208
-0.129994
-0.129873
-0.0495782
-0.0696574
-0.145784
-0.0485837
-0.0510546
0.10508
0.0549275
0.151274
0.189067
0.0625929
0.120287
0.127489
0.0977249
0.019889
-0.0880375
-0.0625506
0.0494048
-0.0894802
-0.132913
0.0191523
0.0214028
-0.104082
-0.140642
-0.158711
-0.10785
-0.16159
-0.220224
-0.0870757
-0.141005
-0.201181
-0.281323
-0.219994
-0.130851
-0.123809
-0.0932759
0.0914765
0.0550273
0.0894789
-0.00896665
-0.0561156
0.00921997
0.103805
0.0215416
0.0605259
-0.039757
-0.0658284
-0.118575
-0.13474
-0.220113
-0.136229
-0.022548
0.11141
-0.0339177
0.0419626
0.136063
0.188427
0.174741
0.159125
0.184817
0.185787
0.225828
0.246714
0.108408
-0.0880699
-0.0469096
-0.0793809
-0.0426808
-0.0371578
-0.0534886
-0.0600248
-0.0908223
-0.0279999
-0.111635
-0.166705
-0.0491336
-0.138704
-0.11645
0.00351751
-0.00954311
-0.0364868
0.107936
0.146209
0.0847689
0.0973431
0.152934
0.189507
0.168263
0.117758
0.0404583
-0.117089
-0.078462
-0.169306
0.0344221
-0.00622838
0.0186064
-0.0462236
-0.112654
-0.197808
-0.171844
-0.13847
-0.187174
-0.0355525
-0.00993041
-0.0283135
-0.00682804
0.0830224
0.071632
0.111257
0.112063
0.158689
0.186108
0.081292
0.00732771
-0.139373
-0.131279
-0.0660912
0.0114456
-0.142019
-0.117543
-0.00548954
-0.0601604
-0.128074
-0.141874
-0.196559
-0.178956
-0.134614
-0.202207
-0.138994
-0.0317818
-0.0933745
-0.205333
-0.168193
-0.168513
-0.157838
-0.0997087
0.0928992
0.141234
0.0993492
0.106821
-0.0179676
-0.0459922
0.0309452
0.0772939
0.0769143
0.00504017
-0.0758586
-0.147474
-0.0719822
-0.0464996
-0.115833
-0.0732433
-0.0178675
-0.00323369
0.0740665
0.226576
0.226141
0.0494832
0.105671
0.196582
0.187827
0.146429
0.0879529
0.104517
-0.000865945
-0.070221
-0.0521833
-0.000755445
0.0689312
-0.0408158
0.0113219
-0.0343878
-0.0540298
-0.125264
-0.128326
-0.115398
-0.158649
-0.0850438
0.04271
0.065399
0.0164346
0.0898435
0.0595255
0.101206
0.131678
0.177448
0.152969
0.15401
0.123115
0.0974411
-0.000715611
-0.00851638
-0.158069
-0.0781794
-0.0184961
0.026875
-0.000450428
-0.093276
-0.16241
-0.146007
-0.138702
-0.223005
-0.0251349
0.0417424
-0.0109278
-0.0245881
0.0511676
0.0988032
0.188034
0.125843
0.118437
0.137521
0.0210945
-0.0911632
-0.127758
-0.0289067
-0.0806551
-0.099464
-0.143568
-0.124089
-0.120614
-0.120516
-0.054472
-0.0953847
-0.251123
-0.185935
-0.261489
-0.179428
-0.0545002
-0.077209
-0.14433
-0.166161
-0.0870564
-0.121769
-0.05604
-0.087351
0.0601829
0.0727834
0.0517075
0.117815
0.024745
-0.0120359
-0.0842969
0.0812224
0.116368
0.0120108
-0.139219
-0.080726
0.00274947
-0.0849435
-0.0317995
0.0363304
0.0244181
0.00864584
0.0795659
0.0627288
0.101549
0.178188
0.135799
0.137343
0.208406
0.198105
0.0928615
-0.0301004
-0.0485097
-0.0297537
-0.152488
-0.045145
0.0859933
0.100174
0.0274738
-0.017471
-0.033896
-0.103819
-0.167756
-0.101901
-0.0554067
0.00439439
0.0135993
0.0338377
-0.0914927
0.0153912
0.102308
0.135052
0.213282
0.176217
0.190491
0.103851
0.0807391
0.0729931
-0.0229024
-0.0708807
-0.0309043
-0.0904205
-0.0779574
-0.10828
-0.0510476
-0.0299637
-0.0203965
-0.148407
-0.227817
-0.241315
-0.0382136
0.0032398
0.00264031
-0.0389156
0.0631295
0.164419
0.172688
0.165924
0.0446494
0.0429746
0.0214467
0.013133
-0.210302
-0.151608
-0.146057
-0.025415
-0.121321
-0.222015
-0.237761
-0.124749
-0.0395046
-0.0371203
-0.216313
-0.263116
-0.224978
-0.123919
-0.00994481
0.035887
-0.0872458
-0.118798
-0.0443483
-0.154191
-0.0694588
-0.0988645
0.0892379
0.0940544
0.066168
0.135048
0.0102853
-0.0655366
0.0349769
0.0161153
0.0537513
-0.0353228
-0.127941
-0.0228087
0.0557235
-0.025134
-0.114988
0.0342685
0.0701967
-0.000506314
0.0048146
0.121375
0.0926925
0.0487227
0.116673
0.053483
0.103591
0.227889
0.0488452
0.00194425
-0.106421
-0.0615888
-0.180448
-0.0686861
0.0959308
0.0919512
0.0968973
-0.0136145
-0.0553388
-0.102654
-0.106547
-0.0966238
-0.0285006
-0.0355244
0.0155879
0.039831
-0.0506615
0.0395935
0.0828771
0.170422
0.223116
0.10751
0.111179
0.135416
0.124278
0.165265
-0.00322515
-0.0605444
-0.0278446
-0.0824261
-0.0651441
-0.117388
-0.112628
-0.137944
-0.0505751
-0.103394
-0.168786
-0.11077
-0.0502313
-0.0680746
-0.0856179
-0.00443865
0.0898259
0.185453
0.209978
0.144923
0.0770771
-0.0390968
-0.0902795
-0.123251
-0.112438
-0.0608054
-0.164709
-0.199104
-0.150692
-0.236766
-0.211357
-0.0261219
-0.0202517
-0.034747
-0.227686
-0.272608
-0.222179
-0.0550229
0.0457013
0.0959018
-0.0518082
-0.0830621
-0.044602
-0.0261387
0.124684
-0.0171624
0.0714352
-0.117557
-0.0396827
0.170879
-0.0097781
0.0243707
0.0212403
0.0937295
0.0252074
-0.111433
-0.0340805
-0.0149193
0.0464597
-0.0285029
-0.0529718
0.0166507
-0.044717
-0.0138592
0.00642881
0.020219
0.0426649
0.0729273
0.0359551
0.0924842
0.0753382
0.14305
0.0117124
-0.0684496
-0.0812449
-0.0675866
-0.164737
-0.10893
0.080315
0.049551
0.0806302
-0.0142601
-0.0769048
-0.122323
-0.0703079
-0.0684933
-0.024681
-0.0269915
-0.00286427
0.00642672
0.0195799
0.000384857
0.0309411
0.126515
0.269215
0.275259
0.10216
0.070146
0.126271
0.0515844
-0.0478908
-0.0261385
0.0502695
-0.106975
-0.13822
-0.119855
-0.0478296
-0.187287
-0.0934573
-0.103963
-0.09897
-0.141333
-0.140713
-0.0740362
-0.0406974
0.117544
0.118831
0.0962548
0.127834
0.0446041
0.196478
0.054969
-0.113695
-0.277703
-0.114108
-0.046134
-0.153811
-0.194697
-0.130912
-0.145603
-0.13475
-0.194139
-0.0589138
-0.058674
-0.104442
-0.15956
-0.173483
-0.0215939
0.0795889
0.222039
0.0224637
-0.124894
-0.0529176
-0.00585862
0.0146286
0.0301509
0.0354797
0.0180337
0.0376686
0.0922621
0.0943599
0.0571039
-0.000257712
0.0532756
-0.00200411
-0.0706654
0.0906901
0.0285376
0.00288308
-0.00856796
-0.0120732
-0.0176246
-0.15542
-0.0637728
0.0332541
0.0500932
-0.0722422
0.026951
0.153752
0.129271
0.0432796
0.0286645
0.00861128
-0.0452021
-0.149049
-0.0963357
-0.23729
-0.127346
0.0522415
0.129331
0.0330306
0.0168613
-0.0421861
-0.0871411
-0.108731
-0.0457971
-0.046817
-0.0362546
0.0515537
0.134428
0.0176694
-0.0224909
0.0526367
0.155506
0.172119
0.225685
0.140604
0.0356079
0.0457871
0.179147
0.083812
-0.0661325
-0.00777397
-0.113061
-0.0575473
-0.155582
-0.176052
-0.14771
-0.113518
-0.0523272
-0.0294019
-0.106897
-0.0946166
0.0463478
-0.0428341
0.070583
0.11769
0.0921348
0.0986749
0.082984
0.149997
-0.00484317
-0.0999091
-0.18597
-0.111017
-0.117227
-0.155175
-0.179343
-0.176853
-0.188524
-0.113827
-0.0844916
-0.0081943
-0.0734718
-0.0526689
-0.091693
-0.099133
0.100006
0.135199
0.225527
0.171642
-0.0639932
-0.0503899
0.0177378
0.0383818
0.0567602
0.0352312
0.0326683
0.0271077
0.0945517
0.0368471
0.0410664
0.0568575
0.101479
0.0909292
-0.00943989
0.0651312
0.143927
0.018322
-0.113722
-0.144607
-0.0613771
-0.139563
-0.0526872
0.0156733
0.0443898
-0.00616284
-0.0132297
0.0694151
0.160337
-0.00300372
-0.0349786
-0.127433
-0.112183
-0.163474
-0.133904
-0.0833389
-0.0679532
-0.00262409
-0.0231897
-0.00102693
0.0374625
-0.00765259
-0.059195
-0.0414511
-0.0219615
0.0236304
-0.0174945
-0.0383574
0.20533
0.0229329
-0.100379
-0.0630988
0.107098
0.0610715
0.221411
0.278632
0.201185
-0.0145165
-0.0163308
0.0985416
0.0117338
-0.00546811
-0.130531
-0.110936
-0.111673
-0.180593
-0.130726
-0.123172
-0.0664367
0.0701006
-0.0385822
-0.112692
-0.0210453
0.0438215
0.117821
0.231116
0.117551
0.0853006
0.0481548
0.0654137
0.0491863
-0.0248847
-0.134001
-0.130044
-0.210132
-0.116616
-0.112034
-0.0766267
-0.186862
-0.081033
-0.105197
0.0920197
-0.0300444
-0.0183795
-0.0580062
-0.0842931
0.0798649
0.182852
0.257341
0.168742
-0.0208997
0.034989
-0.00619609
0.0473802
0.113953
0.0846357
0.0951749
0.0980135
0.0508908
0.0907385
-0.0165494
-0.0211461
0.0349743
0.132348
0.0306086
0.0552608
0.197444
-0.00183173
-0.118356
-0.228751
-0.102851
-0.0678187
-0.0593223
0.0452442
0.0848923
0.0152131
-0.054011
0.0354762
0.0805874
-0.0104477
-0.0813487
-0.135017
-0.129523
-0.157931
-0.0597038
-0.0708774
-0.0659778
-0.0468345
-0.0962499
-0.00993798
-0.0634119
0.000686073
0.00542819
-0.0566534
-0.0696486
0.0527736
0.130877
0.0427397
0.0989644
0.0759312
-0.0749068
-0.0337074
0.0313602
0.0563076
0.188966
0.2429
0.10407
0.108768
0.00206139
-0.0646922
-0.0308549
0.0508178
-0.050287
-0.126452
-0.119785
-0.181114
-0.122971
-0.0878496
0.0128328
0.121931
0.0285179
-0.0333501
-0.0159261
0.00376644
0.0992469
0.215686
0.120222
0.187269
0.115689
0.0530902
0.0463665
-0.0758158
-0.172782
-0.147863
-0.0786508
-0.142172
-0.116029
-0.102938
-0.110503
-0.108684
0.0161796
0.0858422
0.0572107
0.105608
-0.0590607
-0.00402837
0.0940947
0.273885
0.192726
0.174836
0.0581028
0.046632
0.089175
0.176105
0.101845
0.0337435
0.129388
0.0984
0.026732
0.0158533
-0.00222414
-0.00280073
0.0220896
0.0683944
0.0610683
0.120088
0.241586
7.34103e-05
-0.146489
-0.28128
-0.0367746
0.0115482
-0.0558525
0.023015
-0.0186299
0.0297716
-0.0248395
0.0362341
0.0621498
-0.118391
-0.218137
-0.104165
-0.0621645
-0.114005
-0.109116
-0.0817838
-0.0488918
0.000447338
-0.172834
-0.0931332
-0.0627374
0.0517952
0.0257724
0.0154334
-0.0387647
0.0804919
0.120355
0.105593
0.0826493
0.102284
-0.0927928
-0.107949
0.0189375
-0.0165513
0.158678
0.195403
0.222837
0.166359
-0.0559845
-0.01908
-0.029948
-0.106789
-0.182619
-0.122151
-0.138677
-0.0775727
0.0314854
0.00170352
-0.0591525
-0.0247884
0.127718
0.152015
0.0898783
0.0152258
0.0659767
0.159751
0.149849
0.11024
0.0895908
0.00745705
-0.0184914
-0.042505
-0.0507028
-0.0427634
-0.0681343
-0.0883139
-0.0849377
-0.0461854
0.00257007
-0.0142551
-0.0334193
0.0819016
0.0730571
0.089796
0.030192
0.0409781
0.0953186
0.126831
0.221126
0.233379
0.117272
0.104201
0.114219
0.0921544
0.142375
0.145494
0.185609
0.129523
0.0215635
-0.0922368
-0.0964846
0.0175411
-0.138091
0.0153995
0.127814
0.190156
0.25123
0.0201863
-0.251186
-0.32482
0.0472598
0.0585356
0.0279308
0.0210234
0.0214
0.0159491
-0.0228718
0.0606259
0.0108361
-0.151649
-0.257909
-0.130639
-0.10319
-0.105634
-0.0974348
-0.0817927
0.00927723
-0.0775236
-0.107243
-0.0535667
-0.0666621
0.0672606
0.0270551
-0.00478414
0.0981583
0.113062
0.235354
0.195193
0.0855447
-0.0340188
-0.0393338
-0.06505
-0.0853205
0.0535083
0.0964305
-0.042362
0.082797
0.176827
-0.0279516
-0.0497013
-0.0102451
-0.0185312
-0.1904
-0.140895
-0.156617
-0.149718
0.128346
0.0543128
0.0153117
0.0459914
0.179537
0.0121986
0.0732972
0.0474026
0.0413228
0.143384
0.208734
0.173358
0.128696
0.0491689
-0.0331374
0.0415735
-0.077212
-0.092961
0.0137828
0.0334973
-0.0239091
-0.0756669
0.00867257
0.0145422
0.0580159
0.0542576
0.0697396
0.0827631
0.0674141
0.0249245
0.131073
0.235261
0.245071
0.206645
0.151487
0.147853
0.160353
0.0914291
0.223951
0.176326
0.0947161
0.00821908
0.0343343
-0.0679451
-0.0513436
-0.0483946
-0.129537
-0.0752338
0.10051
0.0915219
0.219195
0.0302084
-0.187997
-0.123656
0.00847133
0.0550079
-0.00118402
-0.0250883
0.110409
0.0381737
-0.0813376
-0.0075903
0.0665211
-0.0505915
-0.14113
-0.197794
-0.136353
-0.105861
-0.0746888
-0.0882313
-0.00552497
0.00034201
-0.0596713
-0.0875462
-0.0171176
0.111667
0.0418466
0.112027
0.124022
0.0865705
0.153123
0.204599
0.101539
-0.0387071
0.00760188
-0.105461
-0.0648623
-0.113645
0.02412
-0.00374468
0.0593068
0.0788788
-0.0207689
-0.0159871
-0.0272991
-0.0203734
-0.158491
-0.124576
-0.107479
-0.027738
0.100563
0.111139
-0.100243
0.0772324
0.0631241
0.0543808
0.137914
0.0238949
0.0700874
0.164204
0.184952
0.0926792
0.152547
0.0309382
-0.0133545
0.0748204
0.00406613
-0.0519764
0.00887619
0.0277624
-0.0232721
-0.00292958
0.0857409
0.0446976
0.0907146
0.0527698
0.0409436
0.0378519
0.00683587
0.0177354
0.221928
0.280759
0.242774
0.214047
0.212924
0.0686562
0.17979
0.146582
0.231538
0.216046
0.114956
0.0575524
0.0304348
-0.0944766
-0.12574
-0.0701433
-0.074888
-0.137289
-0.0195135
0.0440454
0.122576
0.0270646
-0.104455
-0.0725411
0.0222478
0.0409755
0.00224425
0.0447377
0.0381173
-0.0216051
-0.0662196
0.0368083
0.0366638
-0.0595271
-0.144661
-0.149727
-0.186105
-0.0830995
-0.138143
-0.0842414
-0.0152476
-0.00258446
-0.0017247
0.00167548
0.0253956
0.0996419
0.0340957
0.0896484
0.196586
0.191394
0.146857
0.179754
0.0483266
-0.0266952
-0.0326321
-0.090121
-0.160949
-0.116613
-0.0594775
0.0184477
0.0484905
0.0146562
0.100052
0.00197002
-0.0225493
0.00253228
-0.110895
-0.10854
-0.0154076
-0.0363869
0.0894882
0.0909487
-0.0389055
0.0887614
0.157754
0.0300702
0.0269525
0.119738
0.0676127
0.11323
0.0790373
0.12398
0.145991
0.0562505
0.0873197
0.119465
0.0121911
-0.0371601
0.0464264
0.132567
0.0766218
0.0165352
0.0424225
0.0517482
0.0580696
0.017399
0.0541734
0.0743081
0.0895915
0.0768925
0.12111
0.194905
0.188152
0.224958
0.193934
0.202764
0.165532
0.169619
0.196974
0.219241
0.101736
0.0261255
0.132651
-0.0618347
-0.241808
-0.0568466
-0.0817836
-0.136945
-0.102526
-0.0159286
0.0468522
0.0198313
-0.0749298
-0.0187094
0.0806988
0.0495001
-0.0338195
-0.0377918
0.0489454
0.00202678
-0.0154463
0.0180411
0.00853276
-0.0406314
-0.135953
-0.124441
-0.0894552
-0.157886
-0.126056
-0.057567
-0.0356874
-0.0664127
0.0294449
0.0168438
-0.00224047
0.063907
0.0577681
0.143665