/*--------------------------------*- C++ -*----------------------------------*\
| =========                 |                                                 |
| \\      /  F ield         | OpenFOAM: The Open Source CFD Toolbox           |
|  \\    /   O peration     | Version:  v2012                                 |
|   \\  /    A nd           | Website:  www.openfoam.com                      |
|    \\/     M anipulation  |                                                 |
\*---------------------------------------------------------------------------*/
FoamFile
{
    version     2.0;
    format      ascii;
    class       volVectorField;
    location    "70";
    object      Usup;
}
// * * * * * * * * * * * * * * * * * * * * * * * * * * * * * * * * * * * * * //

dimensions      [0 1 -1 0 0 0 0];


internalField   nonuniform List<vector> 
4000
(
(-4.1791e-16 -1.7893e-16 0)
(-8.90292e-16 -4.15012e-17 0)
(-1.19125e-15 -1.8584e-16 0)
(-1.88088e-15 -2.5575e-16 0)
(-2.58435e-15 -2.32998e-16 0)
(-3.25748e-15 -5.23725e-16 0)
(-4.27091e-15 -7.42342e-16 0)
(-5.01236e-15 -3.85965e-16 0)
(-4.87022e-15 2.51456e-16 0)
(-4.44158e-15 6.78316e-16 0)
(-4.18523e-15 3.49126e-16 0)
(-4.2329e-15 3.75431e-17 0)
(-4.67531e-15 4.30202e-17 0)
(-5.51067e-15 -8.63895e-17 0)
(-6.14643e-15 1.89042e-16 0)
(-5.75993e-15 3.75118e-16 0)
(-5.5247e-15 1.40204e-16 0)
(-5.77697e-15 4.06399e-16 0)
(-6.13207e-15 2.93644e-16 0)
(-6.3033e-15 4.74526e-16 0)
(-6.00596e-15 4.5195e-16 0)
(-5.95367e-15 2.83706e-16 0)
(-6.08932e-15 1.77834e-16 0)
(-5.9849e-15 6.94251e-17 0)
(-5.43422e-15 3.38823e-16 0)
(-4.89755e-15 4.59193e-16 0)
(-4.66187e-15 3.87956e-16 0)
(-4.92966e-15 2.70672e-16 0)
(-5.27498e-15 6.83692e-16 0)
(-4.79959e-15 9.34072e-16 0)
(-4.3785e-15 1.10208e-15 0)
(-4.26935e-15 1.04837e-15 0)
(-3.99546e-15 6.5558e-16 0)
(-3.72892e-15 4.10239e-16 0)
(-3.31891e-15 3.39073e-16 0)
(-3.46345e-15 8.06195e-17 0)
(-4.02793e-15 2.60093e-16 0)
(-3.48596e-15 6.07743e-16 0)
(-2.2014e-15 7.72303e-16 0)
(-9.5804e-16 6.30603e-16 0)
(-1.63818e-16 7.60341e-17 0)
(-4.02498e-16 -4.20594e-16 0)
(-8.01684e-16 -4.52637e-16 0)
(-8.33457e-16 -2.33206e-16 0)
(-6.46126e-16 9.42782e-17 0)
(-4.08259e-16 2.39884e-16 0)
(-1.55238e-16 1.84116e-16 0)
(1.84075e-16 1.64195e-16 0)
(4.64671e-16 -6.2523e-17 0)
(9.97251e-16 4.66249e-17 0)
(1.07665e-15 -8.31412e-17 0)
(8.90525e-16 -1.70309e-16 0)
(6.7889e-16 -1.80599e-16 0)
(1.4165e-16 -3.58074e-16 0)
(5.51696e-17 -2.42613e-16 0)
(1.89914e-16 5.30068e-17 0)
(1.57003e-16 3.96451e-17 0)
(1.50286e-16 5.8847e-17 0)
(5.5974e-17 3.14604e-16 0)
(-5.14758e-17 3.6214e-16 0)
(5.44996e-17 2.55469e-16 0)
(4.42656e-16 1.19974e-16 0)
(7.63292e-16 2.95731e-16 0)
(9.80206e-16 4.41865e-16 0)
(1.04523e-15 4.99119e-16 0)
(1.07999e-15 3.65527e-16 0)
(1.34975e-15 1.70849e-16 0)
(1.44122e-15 3.18393e-16 0)
(1.43402e-15 6.2873e-16 0)
(1.46051e-15 5.76802e-16 0)
(1.28285e-15 4.52579e-16 0)
(9.97259e-16 6.00324e-16 0)
(1.03807e-15 6.74884e-16 0)
(1.21027e-15 6.22379e-16 0)
(1.32682e-15 3.17942e-16 0)
(1.60493e-15 -1.52822e-17 0)
(1.98143e-15 -8.85915e-17 0)
(2.09961e-15 -3.73724e-16 0)
(1.62295e-15 -4.59702e-16 0)
(1.01753e-15 -3.95185e-16 0)
(1.07131e-15 -1.98114e-16 0)
(1.47359e-15 -2.95344e-16 0)
(1.31439e-15 -7.2642e-16 0)
(8.98766e-16 -1.05319e-15 0)
(7.70815e-16 -1.47316e-15 0)
(2.39567e-16 -1.44549e-15 0)
(-2.13194e-16 -1.12133e-15 0)
(-2.54806e-16 -9.94033e-16 0)
(-2.46757e-16 -7.21264e-16 0)
(-2.88273e-16 -5.61003e-16 0)
(-2.25975e-16 -2.8766e-16 0)
(-1.11438e-16 -3.76014e-16 0)
(-5.62258e-16 -4.63018e-16 0)
(-7.74999e-16 -3.84651e-16 0)
(-7.89825e-16 -5.99743e-16 0)
(-1.0262e-15 -4.19525e-16 0)
(-1.13429e-15 -1.2573e-16 0)
(-1.05772e-15 -1.27888e-16 0)
(-6.72415e-16 -5.81776e-17 0)
(-2.45317e-16 2.12746e-17 0)
(-8.03879e-16 -3.14466e-16 0)
(-2.28259e-15 -3.00931e-16 0)
(-3.66723e-15 -7.31365e-16 0)
(-5.42004e-15 -9.84028e-16 0)
(-7.54032e-15 -9.56526e-16 0)
(-9.66138e-15 -1.34957e-15 0)
(-1.16141e-14 -1.62447e-15 0)
(-1.27466e-14 -9.79013e-16 0)
(-1.27065e-14 4.7477e-16 0)
(-1.27349e-14 1.46062e-15 0)
(-1.28749e-14 1.21534e-15 0)
(-1.28883e-14 3.90751e-16 0)
(-1.38667e-14 1.21564e-16 0)
(-1.55089e-14 -3.39539e-17 0)
(-1.66515e-14 5.86873e-16 0)
(-1.65494e-14 1.17503e-15 0)
(-1.61611e-14 7.14307e-16 0)
(-1.66033e-14 9.27119e-16 0)
(-1.74076e-14 8.76339e-16 0)
(-1.76929e-14 1.06348e-15 0)
(-1.74509e-14 9.38308e-16 0)
(-1.73599e-14 8.40915e-16 0)
(-1.744e-14 5.30939e-16 0)
(-1.67879e-14 6.17732e-16 0)
(-1.53986e-14 1.3854e-15 0)
(-1.4435e-14 1.44829e-15 0)
(-1.4024e-14 1.17163e-15 0)
(-1.40394e-14 1.05168e-15 0)
(-1.42369e-14 1.9592e-15 0)
(-1.34406e-14 2.66394e-15 0)
(-1.26758e-14 2.97063e-15 0)
(-1.26011e-14 2.83275e-15 0)
(-1.20057e-14 2.13961e-15 0)
(-1.10271e-14 1.54454e-15 0)
(-1.01422e-14 1.17344e-15 0)
(-1.00573e-14 6.4155e-16 0)
(-1.03013e-14 9.34285e-16 0)
(-8.91307e-15 1.72806e-15 0)
(-6.33738e-15 1.59439e-15 0)
(-3.95021e-15 1.27834e-15 0)
(-2.31364e-15 1.32995e-16 0)
(-2.05614e-15 -8.84501e-16 0)
(-2.12863e-15 -8.20703e-16 0)
(-1.85213e-15 -4.23302e-16 0)
(-1.43242e-15 2.81562e-17 0)
(-1.07784e-15 3.27496e-16 0)
(-4.89304e-16 5.35373e-16 0)
(2.56702e-16 6.71036e-16 0)
(1.14951e-15 2.53009e-16 0)
(2.3474e-15 3.99967e-16 0)
(2.46183e-15 -2.91499e-16 0)
(2.19705e-15 -5.73416e-16 0)
(1.59371e-15 -6.31561e-16 0)
(6.16973e-16 -8.35824e-16 0)
(6.86589e-16 -6.86923e-16 0)
(7.65752e-16 -1.42277e-16 0)
(5.03275e-16 1.028e-16 0)
(6.67406e-16 3.55735e-16 0)
(5.18045e-16 9.02036e-16 0)
(1.11064e-16 8.76219e-16 0)
(2.88524e-16 7.50978e-16 0)
(1.36012e-15 8.91862e-16 0)
(2.35391e-15 9.65956e-16 0)
(2.83722e-15 1.23249e-15 0)
(2.90152e-15 1.28185e-15 0)
(2.92379e-15 1.15446e-15 0)
(3.70245e-15 6.29469e-16 0)
(4.32982e-15 7.95649e-16 0)
(4.21659e-15 1.40616e-15 0)
(3.91234e-15 1.60986e-15 0)
(3.69041e-15 1.52097e-15 0)
(3.30213e-15 1.66497e-15 0)
(3.21982e-15 1.81219e-15 0)
(3.31171e-15 1.43611e-15 0)
(3.45401e-15 1.06118e-15 0)
(4.26446e-15 5.17568e-16 0)
(5.05706e-15 -4.8473e-17 0)
(5.22044e-15 -8.93843e-16 0)
(4.50395e-15 -1.21295e-15 0)
(3.49964e-15 -1.05008e-15 0)
(3.34858e-15 -7.41805e-16 0)
(3.48098e-15 -1.45201e-15 0)
(2.92533e-15 -2.71378e-15 0)
(2.01445e-15 -3.39809e-15 0)
(1.72578e-15 -4.10718e-15 0)
(1.05753e-15 -3.73969e-15 0)
(7.95139e-17 -3.05608e-15 0)
(-2.36132e-16 -2.66385e-15 0)
(-3.0687e-16 -2.06988e-15 0)
(-4.32909e-16 -1.87337e-15 0)
(-5.64406e-16 -1.28203e-15 0)
(-7.62291e-16 -1.36022e-15 0)
(-1.53873e-15 -1.6968e-15 0)
(-2.17186e-15 -1.27959e-15 0)
(-2.2781e-15 -1.50291e-15 0)
(-2.38875e-15 -1.132e-15 0)
(-2.72687e-15 -4.87691e-16 0)
(-2.64466e-15 -5.40391e-16 0)
(-1.68478e-15 -2.59049e-16 0)
(-6.61003e-16 9.8191e-17 0)
(-1.21542e-15 -3.33689e-16 0)
(-3.70342e-15 -7.29729e-16 0)
(-6.12863e-15 -1.33034e-15 0)
(-8.76117e-15 -2.04807e-15 0)
(-1.19526e-14 -1.9419e-15 0)
(-1.52436e-14 -2.07263e-15 0)
(-1.80036e-14 -1.63526e-15 0)
(-1.93075e-14 -9.33536e-16 0)
(-1.94128e-14 5.3353e-16 0)
(-2.00515e-14 1.39233e-15 0)
(-2.10634e-14 1.3659e-15 0)
(-2.16146e-14 4.92207e-16 0)
(-2.27566e-14 -1.81134e-16 0)
(-2.46082e-14 4.88243e-17 0)
(-2.59466e-14 1.17996e-15 0)
(-2.64089e-14 2.16061e-15 0)
(-2.64335e-14 1.54161e-15 0)
(-2.68639e-14 1.3224e-15 0)
(-2.7856e-14 1.06788e-15 0)
(-2.83755e-14 1.18781e-15 0)
(-2.80169e-14 1.35552e-15 0)
(-2.79123e-14 1.09135e-15 0)
(-2.77947e-14 7.5457e-16 0)
(-2.63666e-14 1.3011e-15 0)
(-2.4712e-14 2.17438e-15 0)
(-2.38035e-14 2.32268e-15 0)
(-2.30549e-14 2.30415e-15 0)
(-2.24628e-14 2.48427e-15 0)
(-2.22256e-14 3.29659e-15 0)
(-2.13387e-14 4.22417e-15 0)
(-2.0539e-14 4.36606e-15 0)
(-2.03975e-14 4.3056e-15 0)
(-1.95821e-14 3.70117e-15 0)
(-1.81828e-14 2.83373e-15 0)
(-1.68504e-14 1.96384e-15 0)
(-1.62277e-14 1.24377e-15 0)
(-1.56871e-14 1.42915e-15 0)
(-1.3869e-14 2.06015e-15 0)
(-1.05993e-14 1.78753e-15 0)
(-7.24939e-15 1.65903e-15 0)
(-5.02117e-15 5.42116e-16 0)
(-3.92496e-15 -3.85063e-16 0)
(-3.38519e-15 -5.38495e-16 0)
(-2.93608e-15 -3.33364e-16 0)
(-2.26477e-15 -2.58177e-16 0)
(-1.45745e-15 3.64054e-17 0)
(-4.68053e-16 9.57267e-16 0)
(3.78375e-16 1.16416e-15 0)
(1.6084e-15 7.8032e-16 0)
(2.92247e-15 1.97241e-16 0)
(3.02868e-15 -6.46557e-16 0)
(3.07983e-15 -7.15501e-16 0)
(2.39853e-15 -1.09893e-15 0)
(1.19646e-15 -1.10306e-15 0)
(1.3174e-15 -9.96172e-16 0)
(1.53103e-15 -4.61059e-16 0)
(1.23549e-15 1.35172e-16 0)
(1.40862e-15 6.36044e-16 0)
(1.02075e-15 1.27457e-15 0)
(4.29187e-16 1.27183e-15 0)
(1.04744e-15 1.50567e-15 0)
(2.38425e-15 2.21277e-15 0)
(3.60983e-15 2.04563e-15 0)
(4.45478e-15 2.03329e-15 0)
(4.65206e-15 1.68092e-15 0)
(4.62585e-15 1.75648e-15 0)
(5.62288e-15 1.54514e-15 0)
(6.85264e-15 1.51774e-15 0)
(6.97039e-15 1.93342e-15 0)
(6.46521e-15 2.55754e-15 0)
(5.95972e-15 2.80693e-15 0)
(5.49352e-15 2.56936e-15 0)
(5.19606e-15 2.66355e-15 0)
(5.31094e-15 2.39223e-15 0)
(5.71552e-15 1.91599e-15 0)
(6.4446e-15 1.19645e-15 0)
(7.17472e-15 1.25554e-16 0)
(7.52343e-15 -1.04224e-15 0)
(7.01204e-15 -1.69047e-15 0)
(5.91646e-15 -1.72254e-15 0)
(5.09449e-15 -1.91548e-15 0)
(4.49088e-15 -3.09374e-15 0)
(3.9083e-15 -4.68941e-15 0)
(3.02659e-15 -5.62404e-15 0)
(2.85036e-15 -6.09307e-15 0)
(2.16482e-15 -5.75405e-15 0)
(6.90674e-16 -5.11947e-15 0)
(8.14635e-17 -4.34605e-15 0)
(-3.17314e-16 -3.4913e-15 0)
(-5.62784e-16 -3.14349e-15 0)
(-8.00327e-16 -2.57872e-15 0)
(-1.54259e-15 -2.60425e-15 0)
(-2.35474e-15 -2.73055e-15 0)
(-3.05787e-15 -2.1235e-15 0)
(-3.44511e-15 -1.96959e-15 0)
(-3.44304e-15 -1.6305e-15 0)
(-3.99576e-15 -1.1326e-15 0)
(-3.87006e-15 -1.15523e-15 0)
(-2.31313e-15 -7.34436e-16 0)
(-1.0471e-15 -1.1231e-16 0)
(-1.59168e-15 -5.55745e-16 0)
(-4.98683e-15 -1.2209e-15 0)
(-8.61607e-15 -1.92427e-15 0)
(-1.19762e-14 -2.87184e-15 0)
(-1.58239e-14 -2.94332e-15 0)
(-1.98196e-14 -2.31147e-15 0)
(-2.31666e-14 -1.44887e-15 0)
(-2.50618e-14 -4.36224e-16 0)
(-2.56776e-14 2.1906e-16 0)
(-2.71192e-14 5.07661e-16 0)
(-2.8834e-14 7.44849e-16 0)
(-2.99033e-14 3.49713e-16 0)
(-3.10209e-14 -5.49054e-16 0)
(-3.24884e-14 -2.12094e-16 0)
(-3.39864e-14 1.13489e-15 0)
(-3.55333e-14 2.56716e-15 0)
(-3.6254e-14 2.67247e-15 0)
(-3.67958e-14 2.08214e-15 0)
(-3.7741e-14 1.1961e-15 0)
(-3.79095e-14 1.08799e-15 0)
(-3.78556e-14 1.73606e-15 0)
(-3.79701e-14 1.48875e-15 0)
(-3.72203e-14 1.50587e-15 0)
(-3.51919e-14 2.0074e-15 0)
(-3.33151e-14 2.41721e-15 0)
(-3.22024e-14 2.89258e-15 0)
(-3.12051e-14 3.5511e-15 0)
(-3.03409e-14 3.99072e-15 0)
(-2.97048e-14 4.91519e-15 0)
(-2.87505e-14 5.64053e-15 0)
(-2.79224e-14 5.42548e-15 0)
(-2.7642e-14 5.48416e-15 0)
(-2.68449e-14 4.87783e-15 0)
(-2.52575e-14 3.98059e-15 0)
(-2.35053e-14 2.68923e-15 0)
(-2.20843e-14 1.6527e-15 0)
(-2.06897e-14 1.70171e-15 0)
(-1.82662e-14 2.12387e-15 0)
(-1.42382e-14 2.31264e-15 0)
(-1.04166e-14 2.18476e-15 0)
(-7.83339e-15 1.09916e-15 0)
(-6.12768e-15 4.1515e-16 0)
(-5.02881e-15 -2.66539e-17 0)
(-4.20693e-15 -5.10844e-17 0)
(-3.17992e-15 -4.18833e-17 0)
(-1.53508e-15 3.55824e-16 0)
(-2.62156e-16 1.16807e-15 0)
(3.22149e-16 9.11262e-16 0)
(1.40126e-15 7.96113e-16 0)
(2.93549e-15 -1.79722e-16 0)
(3.73637e-15 -9.73977e-16 0)
(3.74488e-15 -1.13287e-15 0)
(2.87989e-15 -1.4786e-15 0)
(1.82286e-15 -1.27876e-15 0)
(2.03338e-15 -1.00699e-15 0)
(2.4005e-15 -5.54791e-16 0)
(2.07477e-15 4.3808e-17 0)
(2.25609e-15 6.64992e-16 0)
(1.74522e-15 1.45384e-15 0)
(1.15562e-15 2.03348e-15 0)
(2.19893e-15 2.62387e-15 0)
(3.54507e-15 3.42759e-15 0)
(4.62319e-15 3.32007e-15 0)
(5.50677e-15 2.73638e-15 0)
(6.05596e-15 2.05248e-15 0)
(6.54847e-15 2.57801e-15 0)
(7.62619e-15 3.00477e-15 0)
(8.97273e-15 2.94272e-15 0)
(9.45769e-15 2.87393e-15 0)
(9.03668e-15 3.16102e-15 0)
(8.05359e-15 3.59178e-15 0)
(7.40942e-15 3.33149e-15 0)
(7.34748e-15 3.13759e-15 0)
(7.23739e-15 3.10741e-15 0)
(7.35557e-15 2.23985e-15 0)
(8.09928e-15 1.31066e-15 0)
(8.85559e-15 -5.37334e-18 0)
(9.29816e-15 -1.18841e-15 0)
(8.96364e-15 -1.88915e-15 0)
(7.72618e-15 -2.55467e-15 0)
(6.42439e-15 -3.45621e-15 0)
(5.3522e-15 -4.40993e-15 0)
(4.54991e-15 -6.21232e-15 0)
(3.79721e-15 -7.37211e-15 0)
(3.69928e-15 -7.84728e-15 0)
(2.96466e-15 -7.88832e-15 0)
(1.51513e-15 -7.18147e-15 0)
(8.39202e-16 -6.19211e-15 0)
(1.12778e-16 -5.12233e-15 0)
(-4.85893e-16 -4.44599e-15 0)
(-1.10348e-15 -3.94337e-15 0)
(-2.08363e-15 -3.6894e-15 0)
(-2.87631e-15 -3.37058e-15 0)
(-3.74414e-15 -2.76984e-15 0)
(-4.36791e-15 -2.26177e-15 0)
(-4.48052e-15 -2.08437e-15 0)
(-5.13767e-15 -1.82679e-15 0)
(-4.86038e-15 -1.52237e-15 0)
(-2.84459e-15 -1.22604e-15 0)
(-1.16857e-15 -6.25112e-16 0)
(-1.89515e-15 -1.04764e-15 0)
(-6.12295e-15 -1.9114e-15 0)
(-1.08021e-14 -2.65536e-15 0)
(-1.49913e-14 -2.90728e-15 0)
(-1.89944e-14 -2.6622e-15 0)
(-2.34776e-14 -2.02364e-15 0)
(-2.76626e-14 -1.88556e-15 0)
(-3.0467e-14 -8.22325e-16 0)
(-3.19919e-14 -5.19541e-16 0)
(-3.35107e-14 -7.86836e-16 0)
(-3.55315e-14 -3.4814e-16 0)
(-3.75434e-14 -3.69892e-17 0)
(-3.89481e-14 -2.06676e-16 0)
(-4.00234e-14 5.4296e-17 0)
(-4.1284e-14 8.37209e-16 0)
(-4.31086e-14 2.04799e-15 0)
(-4.49409e-14 3.10134e-15 0)
(-4.64193e-14 2.88945e-15 0)
(-4.7338e-14 2.07734e-15 0)
(-4.68729e-14 1.3207e-15 0)
(-4.65809e-14 1.63368e-15 0)
(-4.67961e-14 2.03238e-15 0)
(-4.5878e-14 2.70621e-15 0)
(-4.37415e-14 3.17053e-15 0)
(-4.15213e-14 3.01682e-15 0)
(-3.9816e-14 3.51827e-15 0)
(-3.85872e-14 4.3296e-15 0)
(-3.74183e-14 4.96571e-15 0)
(-3.65695e-14 6.00915e-15 0)
(-3.59484e-14 6.68828e-15 0)
(-3.49634e-14 6.49682e-15 0)
(-3.44094e-14 6.18499e-15 0)
(-3.35672e-14 5.76533e-15 0)
(-3.19304e-14 4.88158e-15 0)
(-2.99751e-14 3.61608e-15 0)
(-2.76794e-14 2.49742e-15 0)
(-2.52532e-14 2.47776e-15 0)
(-2.21301e-14 2.69713e-15 0)
(-1.77233e-14 2.97569e-15 0)
(-1.37446e-14 2.63328e-15 0)
(-1.06597e-14 1.96086e-15 0)
(-8.26891e-15 1.17505e-15 0)
(-6.70279e-15 6.12331e-16 0)
(-5.43137e-15 5.13821e-16 0)
(-3.9025e-15 7.89867e-16 0)
(-1.89123e-15 1.11924e-15 0)
(-7.2498e-16 8.549e-16 0)
(1.10322e-16 3.97883e-16 0)
(1.43846e-15 4.32051e-16 0)
(2.7676e-15 -2.20066e-16 0)
(3.7532e-15 -1.15619e-15 0)
(4.16211e-15 -1.79082e-15 0)
(3.59184e-15 -1.84168e-15 0)
(2.608e-15 -1.36907e-15 0)
(2.74735e-15 -9.82791e-16 0)
(3.13053e-15 -3.61864e-16 0)
(2.93642e-15 3.2505e-16 0)
(3.26404e-15 1.14821e-15 0)
(2.90669e-15 1.54598e-15 0)
(2.32304e-15 2.7408e-15 0)
(3.40604e-15 3.76177e-15 0)
(4.6645e-15 4.48648e-15 0)
(5.34939e-15 4.31702e-15 0)
(6.2185e-15 3.28694e-15 0)
(7.61625e-15 2.96073e-15 0)
(8.74493e-15 3.72561e-15 0)
(9.61552e-15 4.24064e-15 0)
(1.07059e-14 4.15711e-15 0)
(1.12076e-14 4.00206e-15 0)
(1.11087e-14 4.05921e-15 0)
(1.01652e-14 4.29798e-15 0)
(9.20163e-15 4.04804e-15 0)
(9.12755e-15 3.34613e-15 0)
(8.90095e-15 3.14939e-15 0)
(8.85662e-15 2.5007e-15 0)
(9.48236e-15 1.58058e-15 0)
(1.01709e-14 -1.37178e-16 0)
(1.09121e-14 -1.47085e-15 0)
(1.04853e-14 -2.33672e-15 0)
(8.85504e-15 -3.46388e-15 0)
(7.50674e-15 -4.73804e-15 0)
(5.95528e-15 -5.93399e-15 0)
(4.80764e-15 -7.55083e-15 0)
(4.34254e-15 -8.74713e-15 0)
(4.34962e-15 -9.16351e-15 0)
(3.83741e-15 -9.41427e-15 0)
(2.48035e-15 -8.75412e-15 0)
(1.64365e-15 -7.8967e-15 0)
(6.44112e-16 -6.9138e-15 0)
(-3.16e-16 -6.07535e-15 0)
(-1.12968e-15 -5.56391e-15 0)
(-2.30262e-15 -4.88598e-15 0)
(-3.23101e-15 -4.23863e-15 0)
(-4.14575e-15 -3.5129e-15 0)
(-5.1174e-15 -2.74604e-15 0)
(-5.48342e-15 -2.45244e-15 0)
(-5.97134e-15 -2.45747e-15 0)
(-5.6433e-15 -1.93551e-15 0)
(-3.51251e-15 -1.64654e-15 0)
(-1.14443e-15 -8.92582e-16 0)
(-2.09852e-15 -1.1344e-15 0)
(-7.02062e-15 -2.52549e-15 0)
(-1.23016e-14 -3.1484e-15 0)
(-1.68625e-14 -2.39257e-15 0)
(-2.18671e-14 -1.90101e-15 0)
(-2.76248e-14 -2.21942e-15 0)
(-3.21619e-14 -2.44798e-15 0)
(-3.51685e-14 -1.58594e-15 0)
(-3.76864e-14 -9.84225e-16 0)
(-3.97245e-14 -9.94178e-16 0)
(-4.1625e-14 -1.07805e-15 0)
(-4.37818e-14 -9.25156e-16 0)
(-4.56424e-14 -2.09517e-16 0)
(-4.71272e-14 2.8734e-16 0)
(-4.85452e-14 9.30748e-16 0)
(-5.03489e-14 1.62784e-15 0)
(-5.24609e-14 2.61969e-15 0)
(-5.46652e-14 3.1199e-15 0)
(-5.62365e-14 2.88258e-15 0)
(-5.56935e-14 2.24001e-15 0)
(-5.47748e-14 1.9543e-15 0)
(-5.44994e-14 2.53235e-15 0)
(-5.34702e-14 3.4174e-15 0)
(-5.16949e-14 4.03148e-15 0)
(-4.93281e-14 3.71099e-15 0)
(-4.70089e-14 4.31366e-15 0)
(-4.54527e-14 4.92924e-15 0)
(-4.40027e-14 5.65941e-15 0)
(-4.28971e-14 6.37871e-15 0)
(-4.23217e-14 7.27377e-15 0)
(-4.16183e-14 7.45975e-15 0)
(-4.08621e-14 6.71517e-15 0)
(-3.98118e-14 6.30903e-15 0)
(-3.81532e-14 5.31898e-15 0)
(-3.587e-14 4.24666e-15 0)
(-3.28067e-14 3.50177e-15 0)
(-2.95897e-14 3.43711e-15 0)
(-2.58876e-14 3.59504e-15 0)
(-2.103e-14 3.87723e-15 0)
(-1.66558e-14 3.27669e-15 0)
(-1.33234e-14 2.72435e-15 0)
(-1.07234e-14 1.84661e-15 0)
(-8.49913e-15 1.35821e-15 0)
(-6.51435e-15 1.13218e-15 0)
(-4.62521e-15 1.59866e-15 0)
(-2.8075e-15 1.53435e-15 0)
(-1.52815e-15 5.35302e-16 0)
(-1.49809e-16 1.01381e-16 0)
(1.30932e-15 -1.64299e-16 0)
(2.55105e-15 -5.10444e-16 0)
(3.62185e-15 -1.31397e-15 0)
(4.36458e-15 -1.99666e-15 0)
(4.26478e-15 -1.91161e-15 0)
(3.41634e-15 -1.48177e-15 0)
(3.64225e-15 -7.71059e-16 0)
(4.1869e-15 2.93996e-16 0)
(4.00801e-15 1.02147e-15 0)
(4.01492e-15 1.65128e-15 0)
(3.86567e-15 1.89579e-15 0)
(3.89817e-15 3.12532e-15 0)
(4.85798e-15 4.7447e-15 0)
(5.67785e-15 5.28132e-15 0)
(5.85244e-15 5.21805e-15 0)
(6.99731e-15 4.22577e-15 0)
(9.20692e-15 4.10378e-15 0)
(1.06203e-14 4.48497e-15 0)
(1.13366e-14 5.06029e-15 0)
(1.23917e-14 4.80985e-15 0)
(1.31101e-14 4.78194e-15 0)
(1.30436e-14 5.04991e-15 0)
(1.18525e-14 5.23754e-15 0)
(1.0531e-14 5.059e-15 0)
(1.05673e-14 3.95177e-15 0)
(1.0609e-14 3.2004e-15 0)
(1.03379e-14 2.72138e-15 0)
(1.04296e-14 1.79658e-15 0)
(1.09454e-14 7.01173e-18 0)
(1.1943e-14 -1.4611e-15 0)
(1.1543e-14 -2.94505e-15 0)
(9.71088e-15 -4.44692e-15 0)
(8.06119e-15 -5.97105e-15 0)
(6.4242e-15 -7.41746e-15 0)
(5.2299e-15 -8.45869e-15 0)
(4.87599e-15 -9.5505e-15 0)
(4.92779e-15 -1.01226e-14 0)
(4.41056e-15 -1.07154e-14 0)
(3.2365e-15 -1.0322e-14 0)
(2.34351e-15 -9.49247e-15 0)
(1.23214e-15 -8.62961e-15 0)
(-2.68824e-17 -7.73904e-15 0)
(-1.04856e-15 -7.05665e-15 0)
(-2.22094e-15 -6.30914e-15 0)
(-3.29154e-15 -5.28987e-15 0)
(-4.36319e-15 -4.3703e-15 0)
(-5.53671e-15 -3.50049e-15 0)
(-6.36557e-15 -2.91385e-15 0)
(-6.88439e-15 -3.03549e-15 0)
(-6.28394e-15 -2.37844e-15 0)
(-3.89353e-15 -1.66797e-15 0)
(-9.76969e-16 -6.17808e-16 0)
(-2.63529e-15 -9.55688e-16 0)
(-8.12042e-15 -2.53053e-15 0)
(-1.32452e-14 -3.09576e-15 0)
(-1.84188e-14 -2.22125e-15 0)
(-2.48685e-14 -2.09206e-15 0)
(-3.13973e-14 -2.59602e-15 0)
(-3.60622e-14 -2.65922e-15 0)
(-3.9394e-14 -1.80178e-15 0)
(-4.24764e-14 -9.13881e-16 0)
(-4.52428e-14 -6.48752e-16 0)
(-4.77979e-14 -7.778e-16 0)
(-4.98567e-14 -1.34495e-15 0)
(-5.16493e-14 -1.09368e-15 0)
(-5.3398e-14 -8.86412e-17 0)
(-5.50551e-14 9.49047e-16 0)
(-5.70571e-14 1.58276e-15 0)
(-5.93737e-14 2.227e-15 0)
(-6.20245e-14 2.59636e-15 0)
(-6.39775e-14 2.94379e-15 0)
(-6.36474e-14 3.35333e-15 0)
(-6.24514e-14 3.24981e-15 0)
(-6.16995e-14 3.58113e-15 0)
(-6.05519e-14 3.83991e-15 0)
(-5.90014e-14 3.83627e-15 0)
(-5.64095e-14 4.07971e-15 0)
(-5.35977e-14 4.8241e-15 0)
(-5.18573e-14 5.08382e-15 0)
(-5.02003e-14 5.96692e-15 0)
(-4.87928e-14 6.66821e-15 0)
(-4.80686e-14 7.49324e-15 0)
(-4.77379e-14 7.6373e-15 0)
(-4.70274e-14 7.25648e-15 0)
(-4.57417e-14 6.65289e-15 0)
(-4.3945e-14 5.6199e-15 0)
(-4.11341e-14 4.85847e-15 0)
(-3.73806e-14 4.40323e-15 0)
(-3.34853e-14 4.26555e-15 0)
(-2.91706e-14 4.25987e-15 0)
(-2.42836e-14 4.44845e-15 0)
(-1.98799e-14 3.94932e-15 0)
(-1.60682e-14 3.23278e-15 0)
(-1.28611e-14 2.74048e-15 0)
(-1.01818e-14 2.2104e-15 0)
(-7.64726e-15 1.94843e-15 0)
(-5.4632e-15 1.81252e-15 0)
(-3.9981e-15 1.17999e-15 0)
(-2.57918e-15 4.07903e-16 0)
(-7.04156e-16 5.28237e-18 0)
(1.13644e-15 -2.59596e-16 0)
(2.4308e-15 -5.72905e-16 0)
(3.40973e-15 -1.38681e-15 0)
(4.58815e-15 -1.93387e-15 0)
(4.85381e-15 -1.57741e-15 0)
(4.29524e-15 -1.36561e-15 0)
(4.86474e-15 -3.57731e-16 0)
(5.24851e-15 8.51359e-16 0)
(4.75437e-15 1.52843e-15 0)
(4.78321e-15 2.27304e-15 0)
(4.96872e-15 2.8225e-15 0)
(5.55758e-15 3.59048e-15 0)
(6.36165e-15 4.89358e-15 0)
(6.67269e-15 5.16427e-15 0)
(6.55336e-15 5.76554e-15 0)
(7.69835e-15 5.60217e-15 0)
(1.04036e-14 5.34602e-15 0)
(1.23123e-14 5.21677e-15 0)
(1.29492e-14 5.49284e-15 0)
(1.37788e-14 5.51463e-15 0)
(1.47912e-14 5.49733e-15 0)
(1.4932e-14 5.67011e-15 0)
(1.37079e-14 5.60588e-15 0)
(1.18327e-14 5.52352e-15 0)
(1.13969e-14 4.3886e-15 0)
(1.17164e-14 2.88878e-15 0)
(1.16384e-14 2.20572e-15 0)
(1.13757e-14 1.3258e-15 0)
(1.16816e-14 2.56943e-16 0)
(1.25708e-14 -1.18281e-15 0)
(1.19434e-14 -3.14779e-15 0)
(1.00414e-14 -5.2098e-15 0)
(8.46054e-15 -6.85758e-15 0)
(6.95825e-15 -8.13932e-15 0)
(5.70857e-15 -9.38695e-15 0)
(5.16337e-15 -1.06056e-14 0)
(5.06777e-15 -1.15994e-14 0)
(4.77865e-15 -1.21512e-14 0)
(4.00217e-15 -1.17304e-14 0)
(3.0971e-15 -1.07666e-14 0)
(1.78513e-15 -1.00589e-14 0)
(3.78627e-16 -9.22477e-15 0)
(-8.2856e-16 -8.32733e-15 0)
(-2.0346e-15 -7.43487e-15 0)
(-3.11422e-15 -6.29987e-15 0)
(-4.39221e-15 -5.16051e-15 0)
(-5.81233e-15 -4.3291e-15 0)
(-7.04013e-15 -3.8868e-15 0)
(-7.51631e-15 -3.48051e-15 0)
(-6.51492e-15 -2.33765e-15 0)
(-3.95596e-15 -1.13155e-15 0)
(-1.07296e-15 -3.08859e-16 0)
(-2.98339e-15 -7.04444e-16 0)
(-9.01547e-15 -1.7819e-15 0)
(-1.43215e-14 -2.31297e-15 0)
(-2.00124e-14 -2.67407e-15 0)
(-2.75286e-14 -3.02067e-15 0)
(-3.47914e-14 -2.83007e-15 0)
(-3.95437e-14 -2.06336e-15 0)
(-4.29006e-14 -1.42253e-15 0)
(-4.67364e-14 -7.01515e-16 0)
(-5.02679e-14 -6.36076e-16 0)
(-5.34393e-14 -8.11033e-16 0)
(-5.5932e-14 -1.52458e-15 0)
(-5.72269e-14 -1.77059e-15 0)
(-5.86863e-14 -3.44931e-16 0)
(-6.08646e-14 7.44247e-16 0)
(-6.33605e-14 1.41491e-15 0)
(-6.59882e-14 1.86445e-15 0)
(-6.8659e-14 2.16678e-15 0)
(-7.03741e-14 3.3316e-15 0)
(-7.02518e-14 3.98084e-15 0)
(-6.93896e-14 3.70237e-15 0)
(-6.87584e-14 3.33837e-15 0)
(-6.7801e-14 3.66105e-15 0)
(-6.57821e-14 3.80339e-15 0)
(-6.25451e-14 4.62212e-15 0)
(-5.98536e-14 5.02038e-15 0)
(-5.78168e-14 5.33676e-15 0)
(-5.56503e-14 6.31975e-15 0)
(-5.4168e-14 7.29637e-15 0)
(-5.35398e-14 7.76217e-15 0)
(-5.32162e-14 7.76165e-15 0)
(-5.24649e-14 7.62779e-15 0)
(-5.13168e-14 6.50291e-15 0)
(-4.91674e-14 5.12675e-15 0)
(-4.58211e-14 5.1308e-15 0)
(-4.16171e-14 5.15652e-15 0)
(-3.73207e-14 5.17758e-15 0)
(-3.25486e-14 4.97773e-15 0)
(-2.71663e-14 4.94083e-15 0)
(-2.25737e-14 4.66681e-15 0)
(-1.84212e-14 4.07944e-15 0)
(-1.49734e-14 3.82194e-15 0)
(-1.19654e-14 2.659e-15 0)
(-9.1411e-15 1.89445e-15 0)
(-7.0101e-15 1.22956e-15 0)
(-5.16638e-15 7.50276e-16 0)
(-3.24457e-15 5.24862e-16 0)
(-1.05141e-15 4.16159e-16 0)
(8.64494e-16 -1.01338e-17 0)
(2.02062e-15 -4.50343e-16 0)
(3.14665e-15 -1.18836e-15 0)
(4.88467e-15 -1.55462e-15 0)
(5.40295e-15 -1.65473e-15 0)
(5.04945e-15 -1.09105e-15 0)
(6.01369e-15 2.31512e-16 0)
(6.33169e-15 1.39274e-15 0)
(5.85058e-15 2.19541e-15 0)
(5.83321e-15 3.03459e-15 0)
(5.80892e-15 3.65279e-15 0)
(6.54984e-15 4.25764e-15 0)
(7.34819e-15 4.64313e-15 0)
(7.89836e-15 4.72247e-15 0)
(8.02378e-15 5.60139e-15 0)
(8.81089e-15 6.35596e-15 0)
(1.13048e-14 6.36124e-15 0)
(1.33453e-14 5.576e-15 0)
(1.43778e-14 5.26752e-15 0)
(1.53844e-14 5.73625e-15 0)
(1.63404e-14 6.05121e-15 0)
(1.63289e-14 6.11509e-15 0)
(1.50133e-14 5.51768e-15 0)
(1.29571e-14 5.13398e-15 0)
(1.20079e-14 4.4333e-15 0)
(1.24456e-14 3.00318e-15 0)
(1.26909e-14 1.90662e-15 0)
(1.25365e-14 7.80782e-16 0)
(1.26302e-14 5.17027e-17 0)
(1.28895e-14 -1.39909e-15 0)
(1.18802e-14 -3.66495e-15 0)
(1.00722e-14 -5.57307e-15 0)
(8.74769e-15 -7.17042e-15 0)
(7.11907e-15 -8.55981e-15 0)
(5.64028e-15 -1.01783e-14 0)
(5.0972e-15 -1.14916e-14 0)
(5.23106e-15 -1.25451e-14 0)
(5.33348e-15 -1.31873e-14 0)
(4.86621e-15 -1.27445e-14 0)
(3.80905e-15 -1.20707e-14 0)
(2.26558e-15 -1.13322e-14 0)
(8.42249e-16 -1.03645e-14 0)
(-4.17451e-16 -9.43658e-15 0)
(-1.68221e-15 -8.45667e-15 0)
(-2.82521e-15 -7.2887e-15 0)
(-4.34878e-15 -6.08473e-15 0)
(-6.22164e-15 -5.26025e-15 0)
(-7.49176e-15 -4.88484e-15 0)
(-7.55067e-15 -4.12941e-15 0)
(-6.33317e-15 -2.75563e-15 0)
(-4.05646e-15 -1.08693e-15 0)
(-1.31402e-15 -4.20674e-16 0)
(-3.25318e-15 -4.63395e-16 0)
(-9.77711e-15 -1.35994e-15 0)
(-1.59554e-14 -1.70435e-15 0)
(-2.24474e-14 -2.57007e-15 0)
(-2.98264e-14 -3.18924e-15 0)
(-3.6755e-14 -2.49414e-15 0)
(-4.21834e-14 -1.28019e-15 0)
(-4.65108e-14 -7.72731e-16 0)
(-5.08479e-14 -6.33575e-16 0)
(-5.4994e-14 -5.28312e-16 0)
(-5.87622e-14 -1.01582e-15 0)
(-6.14601e-14 -1.57919e-15 0)
(-6.22259e-14 -1.69801e-15 0)
(-6.34935e-14 -3.45671e-16 0)
(-6.61468e-14 5.42428e-16 0)
(-6.89896e-14 1.00944e-15 0)
(-7.18757e-14 1.26574e-15 0)
(-7.42296e-14 1.46483e-15 0)
(-7.60852e-14 2.99781e-15 0)
(-7.68985e-14 3.62877e-15 0)
(-7.64508e-14 3.05215e-15 0)
(-7.51825e-14 2.38939e-15 0)
(-7.35139e-14 2.72972e-15 0)
(-7.13816e-14 3.75709e-15 0)
(-6.83276e-14 5.27762e-15 0)
(-6.55705e-14 5.58278e-15 0)
(-6.30586e-14 6.22954e-15 0)
(-6.05517e-14 7.04911e-15 0)
(-5.91316e-14 8.06237e-15 0)
(-5.86971e-14 8.08255e-15 0)
(-5.83411e-14 7.89365e-15 0)
(-5.79565e-14 7.47276e-15 0)
(-5.7052e-14 6.24078e-15 0)
(-5.38626e-14 4.86596e-15 0)
(-4.9426e-14 4.80005e-15 0)
(-4.50254e-14 5.23666e-15 0)
(-4.06115e-14 5.63327e-15 0)
(-3.56026e-14 5.92452e-15 0)
(-3.00002e-14 5.80274e-15 0)
(-2.52365e-14 5.19741e-15 0)
(-2.06942e-14 4.42029e-15 0)
(-1.72623e-14 3.92874e-15 0)
(-1.43783e-14 2.61757e-15 0)
(-1.0955e-14 1.75551e-15 0)
(-8.07685e-15 1.34586e-15 0)
(-5.83255e-15 9.62652e-16 0)
(-3.7127e-15 6.97597e-16 0)
(-1.59175e-15 6.49126e-16 0)
(3.5143e-16 -2.34222e-17 0)
(1.70177e-15 -5.9676e-16 0)
(2.94926e-15 -9.0742e-16 0)
(4.74043e-15 -1.0902e-15 0)
(5.77565e-15 -1.57589e-15 0)
(6.31196e-15 -5.41839e-16 0)
(7.35564e-15 9.44576e-16 0)
(7.39601e-15 1.93152e-15 0)
(6.71961e-15 2.65659e-15 0)
(6.69128e-15 3.1546e-15 0)
(6.81366e-15 3.80203e-15 0)
(7.37652e-15 4.82586e-15 0)
(7.97623e-15 5.11809e-15 0)
(8.863e-15 5.43436e-15 0)
(9.47146e-15 5.5356e-15 0)
(1.02092e-14 6.33456e-15 0)
(1.20084e-14 6.48054e-15 0)
(1.38947e-14 5.40862e-15 0)
(1.5637e-14 4.61609e-15 0)
(1.70784e-14 5.18743e-15 0)
(1.79145e-14 6.10049e-15 0)
(1.74765e-14 6.29493e-15 0)
(1.5993e-14 5.46876e-15 0)
(1.4099e-14 4.81007e-15 0)
(1.29462e-14 4.49185e-15 0)
(1.30233e-14 3.48116e-15 0)
(1.32071e-14 1.83213e-15 0)
(1.32283e-14 1.45303e-16 0)
(1.32685e-14 -8.86271e-16 0)
(1.29478e-14 -2.3042e-15 0)
(1.18478e-14 -4.23447e-15 0)
(1.02522e-14 -5.75e-15 0)
(8.8276e-15 -7.30446e-15 0)
(7.04811e-15 -8.94007e-15 0)
(5.55541e-15 -1.04471e-14 0)
(5.09234e-15 -1.17832e-14 0)
(5.13224e-15 -1.2878e-14 0)
(5.5756e-15 -1.37964e-14 0)
(5.40629e-15 -1.3464e-14 0)
(4.3789e-15 -1.30669e-14 0)
(2.96958e-15 -1.21412e-14 0)
(1.4138e-15 -1.13474e-14 0)
(-5.29642e-17 -1.05086e-14 0)
(-1.3354e-15 -9.45192e-15 0)
(-2.48694e-15 -8.3033e-15 0)
(-4.23056e-15 -7.37387e-15 0)
(-6.43856e-15 -6.34737e-15 0)
(-7.85004e-15 -5.91868e-15 0)
(-7.66826e-15 -5.04138e-15 0)
(-6.00359e-15 -3.53506e-15 0)
(-3.88437e-15 -1.55042e-15 0)
(-1.3722e-15 -3.73965e-16 0)
(-3.58806e-15 -5.3031e-16 0)
(-1.05108e-14 -1.26368e-15 0)
(-1.71408e-14 -1.38742e-15 0)
(-2.42969e-14 -1.57475e-15 0)
(-3.18364e-14 -1.68086e-15 0)
(-3.88283e-14 -1.45664e-15 0)
(-4.46962e-14 -1.03091e-15 0)
(-4.97166e-14 -7.33123e-16 0)
(-5.46185e-14 -9.48997e-16 0)
(-5.92904e-14 -5.82806e-16 0)
(-6.35605e-14 -8.96262e-16 0)
(-6.63336e-14 -1.19636e-15 0)
(-6.67242e-14 -9.94373e-16 0)
(-6.78993e-14 -3.98899e-16 0)
(-7.11294e-14 9.12678e-17 0)
(-7.44288e-14 1.29381e-16 0)
(-7.75283e-14 2.97969e-16 0)
(-7.94708e-14 5.27605e-16 0)
(-8.1013e-14 1.46884e-15 0)
(-8.25185e-14 2.45281e-15 0)
(-8.26147e-14 2.43864e-15 0)
(-8.12483e-14 2.30469e-15 0)
(-7.89218e-14 2.1053e-15 0)
(-7.58495e-14 3.23926e-15 0)
(-7.29071e-14 4.84569e-15 0)
(-7.05819e-14 5.65107e-15 0)
(-6.786e-14 6.92218e-15 0)
(-6.50902e-14 7.61e-15 0)
(-6.38331e-14 8.27132e-15 0)
(-6.36947e-14 8.13998e-15 0)
(-6.32684e-14 7.36387e-15 0)
(-6.28257e-14 6.8602e-15 0)
(-6.18909e-14 6.27975e-15 0)
(-5.8367e-14 5.5998e-15 0)
(-5.31412e-14 5.22347e-15 0)
(-4.80156e-14 5.17129e-15 0)
(-4.32071e-14 5.53476e-15 0)
(-3.81625e-14 6.17813e-15 0)
(-3.27662e-14 6.18143e-15 0)
(-2.79879e-14 5.34597e-15 0)
(-2.31167e-14 4.52354e-15 0)
(-1.94762e-14 3.61016e-15 0)
(-1.62082e-14 2.79366e-15 0)
(-1.22349e-14 2.34303e-15 0)
(-9.30271e-15 1.73606e-15 0)
(-6.93471e-15 6.39531e-16 0)
(-4.37943e-15 1.93242e-16 0)
(-2.13375e-15 2.0189e-16 0)
(-2.94707e-16 -1.91046e-16 0)
(1.38513e-15 -8.53215e-16 0)
(2.99932e-15 -5.25352e-16 0)
(4.75455e-15 -6.75456e-16 0)
(6.26766e-15 -6.86526e-16 0)
(7.43345e-15 3.16804e-16 0)
(8.41793e-15 1.35212e-15 0)
(8.23092e-15 2.28152e-15 0)
(7.45567e-15 2.95051e-15 0)
(7.4649e-15 3.50235e-15 0)
(7.935e-15 3.95507e-15 0)
(8.55017e-15 4.75351e-15 0)
(8.99142e-15 5.34817e-15 0)
(9.58737e-15 5.9083e-15 0)
(1.02682e-14 5.63158e-15 0)
(1.12925e-14 5.95235e-15 0)
(1.26091e-14 5.91469e-15 0)
(1.41439e-14 5.49293e-15 0)
(1.65491e-14 4.87511e-15 0)
(1.89503e-14 5.11374e-15 0)
(1.9744e-14 5.47074e-15 0)
(1.85446e-14 5.97037e-15 0)
(1.66729e-14 5.36976e-15 0)
(1.50474e-14 4.82864e-15 0)
(1.38868e-14 4.30379e-15 0)
(1.33836e-14 3.35891e-15 0)
(1.31545e-14 1.47353e-15 0)
(1.34527e-14 -4.655e-16 0)
(1.3708e-14 -1.45015e-15 0)
(1.32275e-14 -2.85523e-15 0)
(1.2022e-14 -4.54289e-15 0)
(1.03239e-14 -6.28589e-15 0)
(8.70761e-15 -7.55826e-15 0)
(6.87687e-15 -9.24453e-15 0)
(5.34966e-15 -1.05324e-14 0)
(4.81354e-15 -1.19759e-14 0)
(4.93892e-15 -1.31705e-14 0)
(5.76661e-15 -1.38413e-14 0)
(5.94591e-15 -1.38078e-14 0)
(5.01753e-15 -1.33765e-14 0)
(3.47652e-15 -1.2517e-14 0)
(1.7187e-15 -1.20617e-14 0)
(3.98378e-16 -1.12482e-14 0)
(-8.7764e-16 -1.00106e-14 0)
(-2.33757e-15 -9.10383e-15 0)
(-4.15423e-15 -8.47791e-15 0)
(-6.5719e-15 -7.32643e-15 0)
(-8.0948e-15 -6.39157e-15 0)
(-7.46443e-15 -5.44277e-15 0)
(-5.4894e-15 -4.14944e-15 0)
(-3.45289e-15 -2.41723e-15 0)
(-1.51358e-15 -4.94132e-16 0)
(-3.82253e-15 -2.18216e-16 0)
(-1.10841e-14 -4.72768e-16 0)
(-1.80341e-14 -5.75441e-16 0)
(-2.55903e-14 -5.11866e-16 0)
(-3.36743e-14 -5.52445e-16 0)
(-4.11504e-14 -7.22865e-16 0)
(-4.73883e-14 -5.37745e-16 0)
(-5.29708e-14 -8.95282e-16 0)
(-5.79603e-14 -1.2807e-15 0)
(-6.28067e-14 -9.75922e-16 0)
(-6.76296e-14 -8.34694e-16 0)
(-7.04598e-14 -7.57702e-16 0)