/*--------------------------------*- C++ -*----------------------------------*\
| =========                 |                                                 |
| \\      /  F ield         | OpenFOAM: The Open Source CFD Toolbox           |
|  \\    /   O peration     | Version:  v2012                                 |
|   \\  /    A nd           | Website:  www.openfoam.com                      |
|    \\/     M anipulation  |                                                 |
\*---------------------------------------------------------------------------*/
FoamFile
{
    version     2.0;
    format      ascii;
    class       surfaceScalarField;
    location    "2.75";
    object      phi;
}
// * * * * * * * * * * * * * * * * * * * * * * * * * * * * * * * * * * * * * //

dimensions      [0 3 -1 0 0 0 0];
oriented        oriented;


internalField   nonuniform List<scalar> 
130560
(
3.51061e-06
-3.51061e-06
7.02101e-06
-3.5104e-06
1.0531e-05
-3.50997e-06
1.40403e-05
-3.50933e-06
1.75488e-05
-3.50847e-06
2.10562e-05
-3.50739e-06
2.45623e-05
-3.50609e-06
2.80668e-05
-3.50457e-06
3.15697e-05
-3.50282e-06
3.50705e-05
-3.50083e-06
3.85691e-05
-3.49861e-06
4.20653e-05
-3.49615e-06
4.55587e-05
-3.49343e-06
4.90491e-05
-3.49046e-06
5.25364e-05
-3.48723e-06
5.60201e-05
-3.48373e-06
5.95001e-05
-3.47995e-06
6.29759e-05
-3.47589e-06
6.64475e-05
-3.47153e-06
6.99144e-05
-3.46687e-06
7.33762e-05
-3.4619e-06
7.68329e-05
-3.4566e-06
8.02838e-05
-3.45097e-06
8.37288e-05
-3.445e-06
8.71675e-05
-3.43868e-06
9.05995e-05
-3.43198e-06
9.40244e-05
-3.42491e-06
9.74419e-05
-3.41745e-06
0.000100851
-3.40959e-06
0.000104253
-3.40131e-06
0.000107645
-3.3926e-06
0.000111029
-3.38346e-06
0.000114403
-3.37386e-06
0.000117766
-3.36379e-06
0.00012112
-3.35324e-06
0.000124462
-3.3422e-06
0.000127793
-3.33064e-06
0.000131111
-3.31857e-06
0.000134417
-3.30596e-06
0.00013771
-3.2928e-06
0.000140989
-3.27907e-06
0.000144254
-3.26477e-06
0.000147504
-3.24988e-06
0.000150738
-3.23438e-06
0.000153956
-3.21827e-06
0.000157158
-3.20152e-06
0.000160342
-3.18413e-06
0.000163508
-3.16608e-06
0.000166655
-3.14737e-06
0.000169783
-3.12797e-06
0.000172891
-3.10789e-06
0.000175978
-3.0871e-06
0.000179044
-3.06559e-06
0.000182087
-3.04336e-06
0.000185108
-3.0204e-06
0.000188104
-2.9967e-06
0.000191077
-2.97224e-06
0.000194024
-2.94702e-06
0.000196945
-2.92104e-06
0.000199839
-2.89429e-06
0.000202706
-2.86675e-06
0.000205544
-2.83844e-06
0.000208353
-2.80933e-06
0.000211133
-2.77943e-06
0.000213882
-2.74874e-06
0.000216599
-2.71725e-06
0.000219284
-2.68497e-06
0.000221936
-2.65189e-06
0.000224554
-2.61801e-06
0.000227137
-2.58334e-06
0.000229685
-2.54788e-06
0.000232197
-2.51163e-06
0.000234671
-2.4746e-06
0.000237108
-2.4368e-06
0.000239506
-2.39822e-06
0.000241865
-2.35888e-06
0.000244184
-2.31879e-06
0.000246462
-2.27795e-06
0.000248698
-2.23638e-06
0.000250892
-2.19409e-06
0.000253043
-2.1511e-06
0.000255151
-2.1074e-06
0.000257214
-2.06303e-06
0.000259232
-2.01799e-06
0.000261204
-1.9723e-06
0.00026313
-1.92598e-06
0.000265009
-1.87905e-06
0.000266841
-1.83152e-06
0.000268624
-1.78342e-06
0.000270359
-1.73476e-06
0.000272044
-1.68556e-06
0.00027368
-1.63586e-06
0.000275266
-1.58566e-06
0.000276801
-1.53499e-06
0.000278285
-1.48388e-06
0.000279717
-1.43235e-06
0.000281098
-1.38041e-06
0.000282426
-1.32811e-06
0.000283701
-1.27546e-06
0.000284924
-1.22249e-06
0.000286093
-1.16922e-06
0.000287209
-1.11567e-06
0.00028827
-1.06188e-06
0.000289278
-1.00787e-06
0.000290232
-9.53668e-07
0.000291131
-8.99294e-07
0.000291976
-8.44776e-07
0.000292766
-7.90141e-07
0.000293502
-7.35414e-07
0.000294182
-6.8062e-07
0.000294808
-6.25783e-07
0.000295379
-5.70929e-07
0.000295895
-5.16082e-07
0.000296356
-4.61266e-07
0.000296763
-4.06505e-07
0.000297115
-3.51821e-07
0.000297412
-2.97238e-07
0.000297655
-2.42777e-07
0.000297843
-1.88462e-07
0.000297977
-1.34311e-07
0.000298058
-8.03472e-08
0.000298084
-2.65895e-08
0.000298057
2.69425e-08
0.000297977
8.02299e-08
0.000297844
1.33254e-07
0.000297658
1.85999e-07
0.000297419
2.38446e-07
0.000297129
2.90579e-07
0.000296786
3.42383e-07
0.000296393
3.93843e-07
0.000295948
4.44944e-07
0.000295452
4.95673e-07
0.000294906
5.46017e-07
0.00029431
5.95963e-07
0.000293665
6.455e-07
0.00029297
6.94616e-07
0.000292227
7.433e-07
0.000291435
7.91544e-07
0.000290596
8.39336e-07
0.000289709
8.86669e-07
0.000288776
9.33534e-07
0.000287796
9.79924e-07
0.00028677
1.02583e-06
0.000285699
1.07125e-06
0.000284582
1.11617e-06
0.000283422
1.16059e-06
0.000282217
1.2045e-06
0.000280969
1.2479e-06
0.000279679
1.29078e-06
0.000278345
1.33314e-06
0.000276971
1.37497e-06
0.000275554
1.41628e-06
0.000274097
1.45706e-06
0.0002726
1.4973e-06
0.000271063
1.537e-06
0.000269487
1.57616e-06
0.000267872
1.61479e-06
0.000266219
1.65287e-06
0.000264529
1.6904e-06
0.000262801
1.72739e-06
0.000261037
1.76383e-06
0.000259238
1.79973e-06
0.000257403
1.83508e-06
0.000255533
1.86987e-06
0.000253629
1.90412e-06
0.000251691
1.93782e-06
0.00024972
1.97097e-06
0.000247716
2.00357e-06
0.000245681
2.03563e-06
0.000243613
2.06713e-06
0.000241515
2.09809e-06
0.000239387
2.12851e-06
0.000237229
2.15838e-06
0.000235041
2.1877e-06
0.000232824
2.21649e-06
0.00023058
2.24473e-06
0.000228307
2.27244e-06
0.000226008
2.29961e-06
0.000223681
2.32624e-06
0.000221329
2.35234e-06
0.000218951
2.37792e-06
0.000216548
2.40296e-06
0.000214121
2.42748e-06
0.000211669
2.45148e-06
0.000209194
2.47496e-06
0.000206696
2.49792e-06
0.000204176
2.52037e-06
0.000201634
2.54231e-06
0.00019907
2.56375e-06
0.000196485
2.58469e-06
0.00019388
2.60513e-06
0.000191255
2.62507e-06
0.00018861
2.64453e-06
0.000185947
2.6635e-06
0.000183265
2.68199e-06
0.000180565
2.70001e-06
0.000177847
2.71756e-06
0.000175113
2.73464e-06
0.000172361
2.75127e-06
0.000169594
2.76743e-06
0.000166811
2.78316e-06
0.000164012
2.79843e-06
0.000161199
2.81328e-06
0.000158371
2.82769e-06
0.00015553
2.84167e-06
0.000152675
2.85524e-06
0.000149806
2.86839e-06
0.000146925
2.88114e-06
0.000144032
2.89348e-06
0.000141126
2.90543e-06
0.000138209
2.917e-06
0.000135281
2.92819e-06
0.000132342
2.939e-06
0.000129392
2.94944e-06
0.000126433
2.95953e-06
0.000123464
2.96926e-06
0.000120485
2.97864e-06
0.000117497
2.98768e-06
0.000114501
2.99639e-06
0.000111496
3.00478e-06
0.000108483
3.01284e-06
0.000105463
3.02059e-06
0.000102435
3.02803e-06
9.93996e-05
3.03517e-06
9.63576e-05
3.04202e-06
9.3309e-05
3.04859e-06
9.02541e-05
3.05487e-06
8.71932e-05
3.06087e-06
8.41266e-05
3.06661e-06
8.10545e-05
3.07209e-06
7.79772e-05
3.0773e-06
7.4895e-05
3.08227e-06
7.1808e-05
3.08699e-06
6.87165e-05
3.09147e-06
6.56208e-05
3.09572e-06
6.2521e-05
3.09974e-06
5.94175e-05
3.10353e-06
5.63104e-05
3.1071e-06
5.32e-05
3.11046e-06
5.00864e-05
3.1136e-06
4.69698e-05
3.11654e-06
4.38505e-05
3.11927e-06
4.07287e-05
3.12181e-06
3.76046e-05
3.12415e-06
3.44783e-05
3.12629e-06
3.13501e-05
3.12825e-06
2.822e-05
3.13002e-06
2.50884e-05
3.1316e-06
2.19554e-05
3.13301e-06
1.88212e-05
3.13423e-06
1.56859e-05
3.13528e-06
1.25498e-05
3.13614e-06
9.41293e-06
3.13684e-06
6.27558e-06
3.13736e-06
3.13787e-06
3.1377e-06
3.13787e-06
3.51082e-06
-7.02144e-06
7.02144e-06
-7.02101e-06
1.05316e-05
-7.02016e-06
1.40412e-05
-7.01887e-06
1.75499e-05
-7.01716e-06
2.10575e-05
-7.01501e-06
2.45638e-05
-7.01241e-06
2.80686e-05
-7.00937e-06
3.15716e-05
-7.00587e-06
3.50727e-05
-7.0019e-06
3.85716e-05
-6.99746e-06
4.20679e-05
-6.99254e-06
4.55616e-05
-6.98712e-06
4.90524e-05
-6.98118e-06
5.25399e-05
-6.97473e-06
5.60239e-05
-6.96773e-06
5.95041e-05
-6.96019e-06
6.29803e-05
-6.95207e-06
6.64521e-05
-6.94336e-06
6.99193e-05
-6.93405e-06
7.33815e-05
-6.92412e-06
7.68384e-05
-6.91354e-06
8.02898e-05
-6.90229e-06
8.37351e-05
-6.89036e-06
8.71742e-05
-6.87772e-06
9.06065e-05
-6.86434e-06
9.40318e-05
-6.85021e-06
9.74497e-05
-6.8353e-06
0.00010086
-6.81959e-06
0.000104261
-6.80305e-06
0.000107654
-6.78565e-06
0.000111038
-6.76737e-06
0.000114413
-6.74818e-06
0.000117777
-6.72806e-06
0.000121131
-6.70697e-06
0.000124473
-6.6849e-06
0.000127805
-6.66181e-06
0.000131124
-6.63767e-06
0.00013443
-6.61246e-06
0.000137724
-6.58616e-06
0.000141003
-6.55872e-06
0.000144269
-6.53013e-06
0.000147519
-6.50036e-06
0.000150754
-6.46938e-06
0.000153973
-6.43716e-06
0.000157175
-6.40368e-06
0.00016036
-6.36892e-06
0.000163527
-6.33284e-06
0.000166675
-6.29542e-06
0.000169803
-6.25664e-06
0.000172912
-6.21648e-06
0.000176
-6.17491e-06
0.000179066
-6.13191e-06
0.00018211
-6.08746e-06
0.000185131
-6.04155e-06
0.000188129
-5.99414e-06
0.000191102
-5.94524e-06
0.00019405
-5.89481e-06
0.000196971
-5.84286e-06
0.000199866
-5.78935e-06
0.000202734
-5.73429e-06
0.000205573
-5.67766e-06
0.000208383
-5.61945e-06
0.000211163
-5.55966e-06
0.000213913
-5.49828e-06
0.000216631
-5.4353e-06
0.000219317
-5.37073e-06
0.00022197
-5.30457e-06
0.000224588
-5.23682e-06
0.000227172
-5.16747e-06
0.000229721
-5.09655e-06
0.000232234
-5.02405e-06
0.000234709
-4.94998e-06
0.000237146
-4.87436e-06
0.000239545
-4.7972e-06
0.000241905
-4.71851e-06
0.000244225
-4.63832e-06
0.000246503
-4.55664e-06
0.00024874
-4.47349e-06
0.000250935
-4.3889e-06
0.000253087
-4.30289e-06
0.000255195
-4.21549e-06
0.000257259
-4.12673e-06
0.000259277
-4.03663e-06
0.00026125
-3.94524e-06
0.000263177
-3.85258e-06
0.000265057
-3.7587e-06
0.000266889
-3.66362e-06
0.000268673
-3.56739e-06
0.000270408
-3.47005e-06
0.000272094
-3.37164e-06
0.00027373
-3.2722e-06
0.000275317
-3.17178e-06
0.000276852
-3.07043e-06
0.000278336
-2.96818e-06
0.000279769
-2.86509e-06
0.00028115
-2.7612e-06
0.000282478
-2.65657e-06
0.000283754
-2.55124e-06
0.000284977
-2.44527e-06
0.000286146
-2.3387e-06
0.000287262
-2.23159e-06
0.000288324
-2.12399e-06
0.000289332
-2.01594e-06
0.000290286
-1.90751e-06
0.000291186
-1.79873e-06
0.000292031
-1.68967e-06
0.000292821
-1.58038e-06
0.000293556
-1.4709e-06
0.000294237
-1.36128e-06
0.000294863
-1.25159e-06
0.000295434
-1.14185e-06
0.00029595
-1.03213e-06
0.000296411
-9.22479e-07
0.000296817
-8.12933e-07
0.000297169
-7.03543e-07
0.000297466
-5.94355e-07
0.000297709
-4.85412e-07
0.000297897
-3.76759e-07
0.000298031
-2.68438e-07
0.000298111
-1.6049e-07
0.000298138
-5.29548e-08
0.000298111
5.41279e-08
0.00029803
1.60721e-07
0.000297897
2.66788e-07
0.00029771
3.72293e-07
0.000297472
4.77203e-07
0.000297181
5.81485e-07
0.000296838
6.85108e-07
0.000296444
7.88043e-07
0.000295998
8.90259e-07
0.000295502
9.9173e-07
0.000294956
1.09243e-06
0.00029436
1.19233e-06
0.000293714
1.29142e-06
0.000293019
1.38966e-06
0.000292275
1.48704e-06
0.000291483
1.58354e-06
0.000290643
1.67913e-06
0.000289756
1.7738e-06
0.000288822
1.86754e-06
0.000287842
1.96033e-06
0.000286815
2.05215e-06
0.000285743
2.14299e-06
0.000284627
2.23283e-06
0.000283466
2.32168e-06
0.000282261
2.4095e-06
0.000281012
2.49631e-06
0.000279721
2.58207e-06
0.000278387
2.6668e-06
0.000277012
2.75047e-06
0.000275595
2.83309e-06
0.000274137
2.91464e-06
0.00027264
2.99513e-06
0.000271102
3.07454e-06
0.000269525
3.15287e-06
0.00026791
3.23012e-06
0.000266257
3.30628e-06
0.000264566
3.38135e-06
0.000262838
3.45533e-06
0.000261073
3.52821e-06
0.000259273
3.6e-06
0.000257437
3.6707e-06
0.000255567
3.74029e-06
0.000253662
3.80879e-06
0.000251724
3.87619e-06
0.000249752
3.94249e-06
0.000247748
4.00769e-06
0.000245712
4.0718e-06
0.000243644
4.13481e-06
0.000241546
4.19673e-06
0.000239417
4.25756e-06
0.000237258
4.3173e-06
0.00023507
4.37595e-06
0.000232853
4.43352e-06
0.000230607
4.49e-06
0.000228334
4.54541e-06
0.000226034
4.59975e-06
0.000223707
4.65302e-06
0.000221355
4.70522e-06
0.000218976
4.75636e-06
0.000216573
4.80644e-06
0.000214145
4.85548e-06
0.000211693
4.90347e-06
0.000209217
4.95043e-06
0.000206719
4.99635e-06
0.000204198
5.04125e-06
0.000201655
5.08513e-06
0.000199091
5.128e-06
0.000196506
5.16987e-06
0.0001939
5.21074e-06
0.000191274
5.25063e-06
0.000188629
5.28954e-06
0.000185965
5.32748e-06
0.000183283
5.36446e-06
0.000180582
5.40049e-06
0.000177864
5.43558e-06
0.000175129
5.46974e-06
0.000172378
5.50298e-06
0.00016961
5.53532e-06
0.000166826
5.56676e-06
0.000164027
5.59731e-06
0.000161214
5.62698e-06
0.000158385
5.6558e-06
0.000155543
5.68376e-06
0.000152688
5.71088e-06
0.000149819
5.73718e-06
0.000146937
5.76267e-06
0.000144044
5.78736e-06
0.000141138
5.81126e-06
0.00013822
5.83438e-06
0.000135292
5.85675e-06
0.000132352
5.87836e-06
0.000129403
5.89924e-06
0.000126443
5.9194e-06
0.000123473
5.93886e-06
0.000120494
5.95762e-06
0.000117506
5.9757e-06
0.000114509
5.99311e-06
0.000111504
6.00987e-06
0.000108491
6.02599e-06
0.00010547
6.04148e-06
0.000102442
6.05636e-06
9.94065e-05
6.07064e-06
9.63642e-05
6.08434e-06
9.33153e-05
6.09745e-06
9.02601e-05
6.11001e-06
8.7199e-05
6.12202e-06
8.41321e-05
6.13348e-06
8.10598e-05
6.14443e-06
7.79822e-05
6.15486e-06
7.48997e-05
6.16479e-06
7.18125e-05
6.17422e-06
6.87208e-05
6.18318e-06
6.56248e-05
6.19167e-06
6.25249e-05
6.1997e-06
5.94211e-05
6.20728e-06
5.63138e-05
6.21441e-06
5.32031e-05
6.22112e-06
5.00893e-05
6.22741e-06
4.69726e-05
6.23328e-06
4.38531e-05
6.23874e-06
4.07311e-05
6.24381e-06
3.76068e-05
6.24849e-06
3.44803e-05
6.25278e-06
3.13518e-05
6.25669e-06
2.82216e-05
6.26022e-06
2.50898e-05
6.26339e-06
2.19567e-05
6.2662e-06
1.88222e-05
6.26864e-06
1.56868e-05
6.27073e-06
1.25505e-05
6.27247e-06
9.41345e-06
6.27385e-06
6.27592e-06
6.27489e-06
3.13805e-06
6.27558e-06
6.27592e-06
3.51125e-06
-1.05327e-05
7.02229e-06
-1.05321e-05
1.05329e-05
-1.05308e-05
1.40429e-05
-1.05289e-05
1.7552e-05
-1.05263e-05
2.10601e-05
-1.05231e-05
2.45668e-05
-1.05192e-05
2.80721e-05
-1.05146e-05
3.15756e-05
-1.05094e-05
3.50772e-05
-1.05034e-05
3.85765e-05
-1.04968e-05
4.20734e-05
-1.04894e-05
4.55676e-05
-1.04813e-05
4.90588e-05
-1.04724e-05
5.25469e-05
-1.04628e-05
5.60314e-05
-1.04523e-05
5.95122e-05
-1.0441e-05
6.2989e-05
-1.04288e-05
6.64614e-05
-1.04158e-05
6.99292e-05
-1.04019e-05
7.33921e-05
-1.0387e-05
7.68497e-05
-1.03711e-05
8.03017e-05
-1.03543e-05
8.37478e-05
-1.03364e-05
8.71875e-05
-1.03175e-05
9.06207e-05
-1.02975e-05
9.40467e-05
-1.02763e-05
9.74654e-05
-1.0254e-05
0.000100876
-1.02304e-05
0.000104279
-1.02056e-05
0.000107673
-1.01796e-05
0.000111058
-1.01522e-05
0.000114433
-1.01234e-05
0.000117798
-1.00933e-05
0.000121153
-1.00617e-05
0.000124496
-1.00286e-05
0.000127829
-9.99401e-06
0.000131149
-9.95785e-06
0.000134456
-9.92007e-06
0.000137751
-9.88064e-06
0.000141032
-9.83952e-06
0.000144298
-9.79667e-06
0.00014755
-9.75205e-06
0.000150786
-9.70561e-06
0.000154006
-9.65732e-06
0.00015721
-9.60713e-06
0.000160396
-9.55501e-06
0.000163564
-9.50093e-06
0.000166713
-9.44483e-06
0.000169844
-9.38669e-06
0.000172954
-9.32647e-06
0.000176043
-9.26415e-06
0.000179111
-9.19967e-06
0.000182156
-9.13303e-06
0.000185179
-9.06418e-06
0.000188178
-8.99309e-06
0.000191152
-8.91976e-06
0.000194101
-8.84414e-06
0.000197025
-8.76622e-06
0.000199921
-8.68597e-06
0.000202791
-8.60339e-06
0.000205631
-8.51846e-06
0.000208443
-8.43115e-06
0.000211225
-8.34147e-06
0.000213976
-8.2494e-06
0.000216696
-8.15495e-06
0.000219383
-8.05809e-06
0.000222037
-7.95885e-06
0.000224658
-7.85721e-06
0.000227243
-7.75319e-06
0.000229794
-7.64679e-06
0.000232308
-7.53803e-06
0.000234785
-7.42691e-06
0.000237224
-7.31347e-06
0.000239624
-7.1977e-06
0.000241985
-7.07965e-06
0.000244306
-6.95934e-06
0.000246586
-6.83679e-06
0.000248825
-6.71204e-06
0.000251021
-6.58512e-06
0.000253174
-6.45607e-06
0.000255284
-6.32493e-06
0.000257349
-6.19175e-06
0.000259369
-6.05657e-06
0.000261343
-5.91944e-06
0.000263271
-5.78041e-06
0.000265152
-5.63953e-06
0.000266985
-5.49687e-06
0.00026877
-5.35248e-06
0.000270506
-5.20641e-06
0.000272194
-5.05874e-06
0.000273831
-4.90953e-06
0.000275418
-4.75885e-06
0.000276954
-4.60675e-06
0.000278439
-4.45332e-06
0.000279873
-4.29863e-06
0.000281254
-4.14274e-06
0.000282584
-3.98573e-06
0.00028386
-3.82767e-06
0.000285083
-3.66865e-06
0.000286253
-3.50874e-06
0.00028737
-3.348e-06
0.000288432
-3.18653e-06
0.000289441
-3.0244e-06
0.000290395
-2.86168e-06
0.000291295
-2.69846e-06
0.00029214
-2.5348e-06
0.00029293
-2.3708e-06
0.000293666
-2.20651e-06
0.000294347
-2.04203e-06
0.000294973
-1.87742e-06
0.000295543
-1.71276e-06
0.000296059
-1.54812e-06
0.000296521
-1.38358e-06
0.000296927
-1.21921e-06
0.000297278
-1.05506e-06
0.000297575
-8.91225e-07
0.000297818
-7.27757e-07
0.000298005
-5.64724e-07
0.000298139
-4.02191e-07
0.000298219
-2.40218e-07
0.000298245
-7.88675e-08
0.000298217
8.18037e-08
0.000298136
2.41739e-07
0.000298002
4.00883e-07
0.000297815
5.59183e-07
0.000297576
7.16589e-07
0.000297284
8.73051e-07
0.000296941
1.02852e-06
0.000296546
1.18296e-06
0.0002961
1.33632e-06
0.000295603
1.48856e-06
0.000295056
1.63964e-06
0.000294459
1.78953e-06
0.000293812
1.93818e-06
0.000293116
2.08557e-06
0.000292371
2.23166e-06
0.000291578
2.37643e-06
0.000290738
2.51984e-06
0.00028985
2.66188e-06
0.000288915
2.8025e-06
0.000287933
2.9417e-06
0.000286906
3.07945e-06
0.000285833
3.21572e-06
0.000284716
3.35051e-06
0.000283554
3.48378e-06
0.000282347
3.61554e-06
0.000281098
3.74575e-06
0.000279806
3.87441e-06
0.000278471
4.00151e-06
0.000277094
4.12703e-06
0.000275677
4.25097e-06
0.000274218
4.3733e-06
0.000272719
4.49404e-06
0.00027118
4.61316e-06
0.000269603
4.73066e-06
0.000267986
4.84653e-06
0.000266332
4.96078e-06
0.00026464
5.07339e-06
0.000262911
5.18436e-06
0.000261145
5.29369e-06
0.000259344
5.40138e-06
0.000257507
5.50742e-06
0.000255636
5.61181e-06
0.00025373
5.71456e-06
0.00025179
5.81566e-06
0.000249818
5.91511e-06
0.000247812
6.01291e-06
0.000245775
6.10907e-06
0.000243706
6.20359e-06
0.000241607
6.29646e-06
0.000239477
6.3877e-06
0.000237317
6.47731e-06
0.000235127
6.56528e-06
0.000232909
6.65163e-06
0.000230663
6.73635e-06
0.000228389
6.81946e-06
0.000226087
6.90096e-06
0.00022376
6.98085e-06
0.000221406
7.05915e-06
0.000219026
7.13586e-06
0.000216622
7.21098e-06
0.000214193
7.28453e-06
0.00021174
7.35651e-06
0.000209263
7.42693e-06
0.000206764
7.49581e-06
0.000204242
7.56315e-06
0.000201698
7.62896e-06
0.000199133
7.69326e-06
0.000196546
7.75605e-06
0.00019394
7.81735e-06
0.000191313
7.87717e-06
0.000188667
7.93552e-06
0.000186002
7.99242e-06
0.000183319
8.04788e-06
0.000180618
8.10191e-06
0.000177899
8.15453e-06
0.000175163
8.20576e-06
0.00017241
8.25561e-06
0.000169641
8.3041e-06
0.000166857
8.35124e-06
0.000164057
8.39705e-06
0.000161242
8.44155e-06
0.000158413
8.48476e-06
0.000155571
8.52669e-06
0.000152714
8.56736e-06
0.000149844
8.60679e-06
0.000146962
8.64501e-06
0.000144067
8.68202e-06
0.000141161
8.71785e-06
0.000138243
8.75252e-06
0.000135313
8.78605e-06
0.000132373
8.81846e-06
0.000129423
8.84977e-06
0.000126462
8.87999e-06
0.000123492
8.90915e-06
0.000120512
8.93728e-06
0.000117524
8.96438e-06
0.000114526
8.99048e-06
0.00011152
9.01561e-06
0.000108507
9.03977e-06
0.000105485
9.06299e-06
0.000102456
9.0853e-06
9.94201e-05
9.1067e-06
9.63773e-05
9.12722e-06
9.33278e-05
9.14688e-06
9.02721e-05
9.1657e-06
8.72105e-05
9.18369e-06
8.41431e-05
9.20088e-06
8.10702e-05
9.21728e-06
7.79921e-05
9.23292e-06
7.49091e-05
9.24779e-06
7.18214e-05
9.26194e-06
6.87292e-05
9.27536e-06
6.56328e-05
9.28808e-06
6.25324e-05
9.30011e-06
5.94282e-05
9.31147e-06
5.63205e-05
9.32216e-06
5.32094e-05
9.33221e-06
5.00952e-05
9.34163e-06
4.6978e-05
9.35043e-06
4.38582e-05
9.35862e-06
4.07358e-05
9.36621e-06
3.7611e-05
9.37321e-06
3.44842e-05
9.37964e-06
3.13554e-05
9.3855e-06
2.82248e-05
9.3908e-06
2.50926e-05
9.39554e-06
2.19591e-05
9.39974e-06
1.88243e-05
9.40341e-06
1.56885e-05
9.40654e-06
1.25519e-05
9.40914e-06
9.41449e-06
9.41121e-06
6.27661e-06
9.41277e-06
3.13839e-06
9.4138e-06
9.41431e-06
3.51189e-06
-1.40446e-05
7.02357e-06
-1.40437e-05
1.05348e-05
-1.4042e-05
1.40455e-05
-1.40395e-05
1.75552e-05
-1.40361e-05
2.1064e-05
-1.40318e-05
2.45714e-05
-1.40266e-05
2.80773e-05
-1.40206e-05
3.15816e-05
-1.40136e-05
3.50838e-05
-1.40057e-05
3.85839e-05
-1.39969e-05
4.20815e-05
-1.39871e-05
4.55765e-05
-1.39763e-05
4.90685e-05
-1.39645e-05
5.25573e-05
-1.39516e-05
5.60427e-05
-1.39377e-05
5.95244e-05
-1.39227e-05
6.3002e-05
-1.39065e-05
6.64754e-05
-1.38892e-05
6.99441e-05
-1.38706e-05
7.3408e-05
-1.38508e-05
7.68666e-05
-1.38297e-05
8.03196e-05
-1.38073e-05
8.37667e-05
-1.37836e-05
8.72076e-05
-1.37584e-05
9.06419e-05
-1.37317e-05
9.40691e-05
-1.37035e-05
9.7489e-05
-1.36738e-05
0.000100901
-1.36425e-05
0.000104305
-1.36095e-05
0.0001077
-1.35748e-05
0.000111086
-1.35384e-05
0.000114463
-1.35001e-05
0.00011783
-1.346e-05
0.000121186
-1.34179e-05
0.000124531
-1.33739e-05
0.000127865
-1.33278e-05
0.000131187
-1.32796e-05
0.000134496
-1.32293e-05
0.000137792
-1.31768e-05
0.000141075
-1.31221e-05
0.000144343
-1.3065e-05
0.000147596
-1.30056e-05
0.000150835
-1.29437e-05
0.000154057
-1.28794e-05
0.000157262
-1.28125e-05
0.00016045
-1.27431e-05
0.00016362
-1.2671e-05
0.000166772
-1.25963e-05
0.000169904
-1.25188e-05
0.000173016
-1.24386e-05
0.000176107
-1.23555e-05
0.000179177
-1.22696e-05
0.000182225
-1.21808e-05
0.00018525
-1.2089e-05
0.000188251
-1.19943e-05
0.000191228
-1.18966e-05
0.000194179
-1.17958e-05
0.000197105
-1.16919e-05
0.000200004
-1.15849e-05
0.000202876
-1.14749e-05
0.000205719
-1.13616e-05
0.000208533
-1.12452e-05
0.000211317
-1.11257e-05
0.000214071
-1.10029e-05
0.000216793
-1.0877e-05
0.000219482
-1.07478e-05
0.000222139
-1.06155e-05
0.000224762
-1.048e-05
0.00022735
-1.03413e-05
0.000229902
-1.01994e-05
0.000232419
-1.00544e-05
0.000234898
-9.90618e-06
0.000237339
-9.75488e-06
0.000239742
-9.6005e-06
0.000242106
-9.44306e-06
0.000244429
-9.28259e-06
0.000246711
-9.11914e-06
0.000248952
-8.95276e-06
0.00025115
-8.78347e-06
0.000253306
-8.61134e-06
0.000255417
-8.43643e-06
0.000257484
-8.25878e-06
0.000259506
-8.07846e-06
0.000261482
-7.89554e-06
0.000263412
-7.71008e-06
0.000265294
-7.52216e-06
0.000267129
-7.33185e-06
0.000268916
-7.13923e-06
0.000270654
-6.94438e-06
0.000272343
-6.74739e-06
0.000273982
-6.54834e-06
0.00027557
-6.34732e-06
0.000277108
-6.14442e-06
0.000278594
-5.93973e-06
0.000280029
-5.73336e-06
0.000281412
-5.52539e-06
0.000282742
-5.31593e-06
0.000284019
-5.10507e-06
0.000285243
-4.89292e-06
0.000286414
-4.67958e-06
0.000287531
-4.46515e-06
0.000288595
-4.24974e-06
0.000289604
-4.03344e-06
0.000290558
-3.81636e-06
0.000291458
-3.59861e-06
0.000292304
-3.38028e-06
0.000293095
-3.16149e-06
0.00029383
-2.94233e-06
0.000294511
-2.7229e-06
0.000295137
-2.50331e-06
0.000295708
-2.28365e-06
0.000296224
-2.06402e-06
0.000296685
-1.84452e-06
0.000297091
-1.62524e-06
0.000297442
-1.40628e-06
0.000297739
-1.18772e-06
0.000297981
-9.69665e-07
0.000298168
-7.52189e-07
0.000298301
-5.35382e-07
0.00029838
-3.19325e-07
0.000298406
-1.041e-07
0.000298377
1.10217e-07
0.000298295
3.23548e-07
0.00029816
5.35822e-07
0.000297973
7.46968e-07
0.000297732
9.56919e-07
0.00029744
1.16561e-06
0.000297095
1.37297e-06
0.000296699
1.57896e-06
0.000296252
1.7835e-06
0.000295754
1.98655e-06
0.000295206
2.18805e-06
0.000294607
2.38795e-06
0.000293959
2.58621e-06
0.000293262
2.78278e-06
0.000292516
2.97761e-06
0.000291722
3.17068e-06
0.00029088
3.36194e-06
0.00028999
3.55136e-06
0.000289054
3.73889e-06
0.000288071
3.92452e-06
0.000287042
4.10822e-06
0.000285968
4.28995e-06
0.000284849
4.46969e-06
0.000283685
4.64742e-06
0.000282478
4.82311e-06
0.000281227
4.99675e-06
0.000279933
5.16832e-06
0.000278597
5.3378e-06
0.000277218
5.50518e-06
0.000275799
5.67044e-06
0.000274339
5.83357e-06
0.000272838
5.99456e-06
0.000271298
6.15339e-06
0.000269718
6.31007e-06
0.0002681
6.46458e-06
0.000266444
6.61691e-06
0.000264751
6.76707e-06
0.00026302
6.91503e-06
0.000261253
7.06081e-06
0.00025945
7.2044e-06
0.000257611
7.34579e-06
0.000255738
7.48498e-06
0.000253831
7.62197e-06
0.00025189
7.75677e-06
0.000249915
7.88937e-06
0.000247909
8.01977e-06
0.00024587
8.14798e-06
0.000243799
8.274e-06
0.000241698
8.39783e-06
0.000239566
8.51948e-06
0.000237404
8.63894e-06
0.000235214
8.75623e-06
0.000232994
8.87136e-06
0.000230746
8.98432e-06
0.00022847
9.09512e-06
0.000226167
9.20377e-06
0.000223838
9.31029e-06
0.000221482
9.41467e-06
0.000219101
9.51694e-06
0.000216695
9.61709e-06
0.000214265
9.71514e-06
0.00021181
9.8111e-06
0.000209332
9.90499e-06
0.000206831
9.99681e-06
0.000204308
1.00866e-05
0.000201762
1.01743e-05
0.000199195
1.026e-05
0.000196608
1.03437e-05
0.000194
1.04254e-05
0.000191372
1.05052e-05
0.000188724
1.0583e-05
0.000186058
1.06588e-05
0.000183373
1.07327e-05
0.00018067
1.08047e-05
0.00017795
1.08749e-05
0.000175212
1.09432e-05
0.000172458
1.10096e-05
0.000169688
1.10742e-05
0.000166903
1.11371e-05
0.000164101
1.11981e-05
0.000161286
1.12574e-05
0.000158455
1.1315e-05
0.000155611
1.13709e-05
0.000152753
1.14251e-05
0.000149883
1.14776e-05
0.000146999
1.15285e-05
0.000144103
1.15779e-05
0.000141195
1.16256e-05
0.000138276
1.16718e-05
0.000135346
1.17165e-05
0.000132405
1.17597e-05
0.000129453
1.18014e-05
0.000126491
1.18416e-05
0.00012352
1.18805e-05
0.000120539
1.1918e-05
0.00011755
1.19541e-05
0.000114551
1.19888e-05
0.000111545
1.20223e-05
0.00010853
1.20545e-05
0.000105507
1.20854e-05
0.000102478
1.21151e-05
9.94407e-05
1.21436e-05
9.63969e-05
1.2171e-05
9.33466e-05
1.21972e-05
9.02901e-05
1.22222e-05
8.72276e-05
1.22462e-05
8.41594e-05
1.22691e-05
8.10858e-05
1.22909e-05
7.8007e-05
1.23117e-05
7.49233e-05
1.23315e-05
7.18348e-05
1.23504e-05
6.8742e-05
1.23682e-05
6.56449e-05
1.23852e-05
6.25438e-05
1.24012e-05
5.94389e-05
1.24163e-05
5.63305e-05
1.24306e-05
5.32188e-05
1.24439e-05
5.0104e-05
1.24565e-05
4.69862e-05
1.24682e-05
4.38657e-05
1.24791e-05
4.07428e-05
1.24892e-05
3.76175e-05
1.24985e-05
3.449e-05
1.25071e-05
3.13607e-05
1.25149e-05
2.82295e-05
1.25219e-05
2.50968e-05
1.25282e-05
2.19628e-05
1.25338e-05
1.88275e-05
1.25387e-05
1.56911e-05
1.25429e-05
1.25539e-05
1.25463e-05
9.41604e-06
1.25491e-05
6.27765e-06
1.25512e-05
3.13891e-06
1.25525e-05
1.25532e-05
3.51274e-06
-1.75573e-05
7.02527e-06
-1.75563e-05
1.05374e-05
-1.75541e-05
1.40489e-05
-1.7551e-05
1.75595e-05
-1.75467e-05
2.10691e-05
-1.75414e-05
2.45775e-05
-1.7535e-05
2.80843e-05
-1.75274e-05
3.15895e-05
-1.75187e-05
3.50927e-05
-1.75089e-05
3.85937e-05
-1.74979e-05
4.20923e-05
-1.74857e-05
4.55883e-05
-1.74722e-05
4.90814e-05
-1.74575e-05
5.25713e-05
-1.74415e-05
5.60578e-05
-1.74242e-05
5.95406e-05
-1.74055e-05
6.30194e-05
-1.73853e-05
6.6494e-05
-1.73637e-05
6.9964e-05
-1.73406e-05
7.34291e-05
-1.73159e-05
7.6889e-05
-1.72897e-05
8.03434e-05
-1.72617e-05
8.3792e-05
-1.72321e-05
8.72343e-05
-1.72007e-05
9.06701e-05
-1.71675e-05
9.40989e-05
-1.71324e-05
9.75203e-05
-1.70953e-05
0.000100934
-1.70562e-05
0.00010434
-1.70151e-05
0.000107737
-1.69718e-05
0.000111125
-1.69264e-05
0.000114503
-1.68786e-05
0.000117872
-1.68286e-05
0.00012123
-1.67761e-05
0.000124577
-1.67211e-05
0.000127913
-1.66637e-05
0.000131237
-1.66036e-05
0.000134549
-1.65408e-05
0.000137847
-1.64753e-05
0.000141132
-1.64069e-05
0.000144402
-1.63357e-05
0.000147658
-1.62615e-05
0.000150899
-1.61843e-05
0.000154124
-1.6104e-05
0.000157332
-1.60205e-05
0.000160522
-1.59338e-05
0.000163695
-1.58438e-05
0.000166849
-1.57505e-05
0.000169984
-1.56537e-05
0.000173099
-1.55535e-05
0.000176193
-1.54498e-05
0.000179266
-1.53425e-05
0.000182317
-1.52315e-05
0.000185345
-1.51169e-05
0.000188349
-1.49985e-05
0.000191329
-1.48764e-05
0.000194283
-1.47505e-05
0.000197212
-1.46207e-05
0.000200114
-1.4487e-05
0.000202989
-1.43495e-05
0.000205835
-1.4208e-05
0.000208652
-1.40625e-05
0.00021144
-1.39131e-05
0.000214197
-1.37596e-05
0.000216922
-1.36022e-05
0.000219615
-1.34408e-05
0.000222275
-1.32754e-05
0.000224901
-1.3106e-05
0.000227492
-1.29325e-05
0.000230048
-1.27552e-05
0.000232567
-1.25738e-05
0.000235049
-1.23886e-05
0.000237494
-1.21994e-05
0.0002399
-1.20064e-05
0.000242266
-1.18095e-05
0.000244592
-1.16088e-05
0.000246878
-1.14044e-05
0.000249121
-1.11964e-05
0.000251323
-1.09847e-05
0.000253481
-1.07694e-05
0.000255595
-1.05506e-05
0.000257665
-1.03285e-05
0.000259689
-1.0103e-05
0.000261668
-9.87417e-06
0.0002636
-9.64222e-06
0.000265485
-9.40717e-06
0.000267322
-9.16914e-06
0.000269111
-8.92821e-06
0.000270851
-8.6845e-06
0.000272542
-8.43809e-06
0.000274183
-8.18911e-06
0.000275773
-7.93766e-06
0.000277312
-7.68386e-06
0.000278801
-7.42783e-06
0.000280237
-7.16968e-06
0.000281621
-6.90954e-06
0.000282953
-6.64752e-06
0.000284231
-6.38376e-06
0.000285457
-6.11839e-06
0.000286629
-5.85152e-06
0.000287747
-5.58329e-06
0.000288811
-5.31383e-06
0.000289821
-5.04326e-06
0.000290776
-4.77172e-06
0.000291677
-4.49933e-06
0.000292523
-4.22624e-06
0.000293314
-3.95255e-06
0.00029405
-3.67841e-06
0.000294731
-3.40394e-06
0.000295357
-3.12926e-06
0.000295928
-2.8545e-06
0.000296444
-2.57979e-06
0.000296904
-2.30523e-06
0.00029731
-2.03096e-06
0.000297661
-1.75709e-06
0.000297957
-1.48373e-06
0.000298198
-1.21099e-06
0.000298385
-9.38985e-07
0.000298517
-6.67821e-07
0.000298596
-3.97599e-07
0.00029862
-1.28422e-07
0.000298591
1.39615e-07
0.000298508
4.06416e-07
0.000298372
6.71891e-07
0.000298183
9.3595e-07
0.000297941
1.19851e-06
0.000297647
1.45949e-06
0.000297301
1.71881e-06
0.000296904
1.9764e-06
0.000296455
2.23218e-06
0.000295956
2.48608e-06
0.000295406
2.73805e-06
0.000294806
2.98802e-06
0.000294156
3.23592e-06
0.000293457
3.48171e-06
0.000292709
3.72534e-06
0.000291913
3.96674e-06
0.000291069
4.20588e-06
0.000290178
4.44271e-06
0.00028924
4.67719e-06
0.000288255
4.90928e-06
0.000287224
5.13895e-06
0.000286148
5.36616e-06
0.000285027
5.59088e-06
0.000283861
5.81308e-06
0.000282651
6.03274e-06
0.000281398
6.24982e-06
0.000280102
6.46432e-06
0.000278764
6.6762e-06
0.000277384
6.88544e-06
0.000275962
7.09204e-06
0.0002745
7.29598e-06
0.000272997
7.49723e-06
0.000271455
7.69579e-06
0.000269873
7.89165e-06
0.000268253
8.0848e-06
0.000266594
8.27523e-06
0.000264899
8.46293e-06
0.000263166
8.6479e-06
0.000261396
8.83013e-06
0.000259591
9.00961e-06
0.000257751
9.18635e-06
0.000255875
9.36034e-06
0.000253966
9.53159e-06
0.000252022
9.70008e-06
0.000250046
9.86583e-06
0.000248037
1.00288e-05
0.000245996
1.01891e-05
0.000243923
1.03466e-05
0.00024182
1.05014e-05
0.000239686
1.06534e-05
0.000237522
1.08028e-05
0.000235329
1.09494e-05
0.000233107
1.10933e-05
0.000230857
1.12344e-05