/*--------------------------------*- C++ -*----------------------------------*\
| =========                 |                                                 |
| \\      /  F ield         | OpenFOAM: The Open Source CFD Toolbox           |
|  \\    /   O peration     | Version:  v2012                                 |
|   \\  /    A nd           | Website:  www.openfoam.com                      |
|    \\/     M anipulation  |                                                 |
\*---------------------------------------------------------------------------*/
FoamFile
{
    version     2.0;
    format      ascii;
    class       volVectorField;
    location    "2.75";
    object      U;
}
// * * * * * * * * * * * * * * * * * * * * * * * * * * * * * * * * * * * * * //

dimensions      [0 1 -1 0 0 0 0];


internalField   nonuniform List<vector> 
65536
(
(0.000715187 -0.000715166 0)
(0.00214552 -0.000715122 0)
(0.00357572 -0.000715035 0)
(0.0050057 -0.000714904 0)
(0.00643538 -0.000714729 0)
(0.00786466 -0.000714509 0)
(0.00929346 -0.000714245 0)
(0.0107217 -0.000713934 0)
(0.0121492 -0.000713577 0)
(0.013576 -0.000713172 0)
(0.015002 -0.000712719 0)
(0.016427 -0.000712217 0)
(0.0178509 -0.000711663 0)
(0.0192737 -0.000711058 0)
(0.0206952 -0.000710399 0)
(0.0221153 -0.000709686 0)
(0.023534 -0.000708916 0)
(0.024951 -0.000708088 0)
(0.0263664 -0.000707199 0)
(0.0277799 -0.00070625 0)
(0.0291914 -0.000705236 0)
(0.0306009 -0.000704157 0)
(0.0320081 -0.00070301 0)
(0.033413 -0.000701792 0)
(0.0348154 -0.000700503 0)
(0.0362151 -0.000699139 0)
(0.037612 -0.000697698 0)
(0.039006 -0.000696177 0)
(0.0403968 -0.000694575 0)
(0.0417843 -0.000692888 0)
(0.0431684 -0.000691113 0)
(0.0445489 -0.000689249 0)
(0.0459255 -0.000687293 0)
(0.0472982 -0.000685241 0)
(0.0486666 -0.000683091 0)
(0.0500306 -0.000680841 0)
(0.0513901 -0.000678487 0)
(0.0527447 -0.000676026 0)
(0.0540943 -0.000673456 0)
(0.0554386 -0.000670775 0)
(0.0567775 -0.000667978 0)
(0.0581106 -0.000665064 0)
(0.0594379 -0.000662029 0)
(0.0607589 -0.000658872 0)
(0.0620735 -0.000655588 0)
(0.0633814 -0.000652176 0)
(0.0646823 -0.000648633 0)
(0.065976 -0.000644956 0)
(0.0672623 -0.000641143 0)
(0.0685407 -0.000637191 0)
(0.0698112 -0.000633098 0)
(0.0710733 -0.000628862 0)
(0.0723267 -0.000624481 0)
(0.0735713 -0.000619952 0)
(0.0748067 -0.000615274 0)
(0.0760326 -0.000610444 0)
(0.0772486 -0.000605461 0)
(0.0784546 -0.000600324 0)
(0.0796501 -0.000595031 0)
(0.0808349 -0.00058958 0)
(0.0820086 -0.00058397 0)
(0.0831709 -0.000578201 0)
(0.0843215 -0.000572272 0)
(0.0854601 -0.000566181 0)
(0.0865864 -0.000559928 0)
(0.0877 -0.000553514 0)
(0.0888006 -0.000546937 0)
(0.0898879 -0.000540198 0)
(0.0909616 -0.000533297 0)
(0.0920213 -0.000526234 0)
(0.0930667 -0.00051901 0)
(0.0940975 -0.000511626 0)
(0.0951133 -0.000504082 0)
(0.096114 -0.000496381 0)
(0.097099 -0.000488522 0)
(0.0980682 -0.000480509 0)
(0.0990212 -0.000472342 0)
(0.0999577 -0.000464023 0)
(0.100877 -0.000455556 0)
(0.10178 -0.000446941 0)
(0.102665 -0.000438182 0)
(0.103533 -0.000429282 0)
(0.104383 -0.000420243 0)
(0.105214 -0.000411069 0)
(0.106027 -0.000401762 0)
(0.106821 -0.000392327 0)
(0.107596 -0.000382767 0)
(0.108352 -0.000373085 0)
(0.109089 -0.000363287 0)
(0.109806 -0.000353375 0)
(0.110503 -0.000343354 0)
(0.111179 -0.000333229 0)
(0.111836 -0.000323003 0)
(0.112471 -0.000312683 0)
(0.113086 -0.000302272 0)
(0.113681 -0.000291775 0)
(0.114254 -0.000281197 0)
(0.114805 -0.000270543 0)
(0.115336 -0.000259818 0)
(0.115845 -0.000249028 0)
(0.116332 -0.000238177 0)
(0.116797 -0.00022727 0)
(0.117241 -0.000216313 0)
(0.117663 -0.000205312 0)
(0.118062 -0.000194271 0)
(0.11844 -0.000183195 0)
(0.118795 -0.00017209 0)
(0.119128 -0.000160961 0)
(0.119439 -0.000149814 0)
(0.119728 -0.000138652 0)
(0.119994 -0.000127482 0)
(0.120237 -0.000116309 0)
(0.120459 -0.000105137 0)
(0.120658 -9.39708e-05 0)
(0.120835 -8.28161e-05 0)
(0.120989 -7.16772e-05 0)
(0.121121 -6.05587e-05 0)
(0.121231 -4.94652e-05 0)
(0.121319 -3.84011e-05 0)
(0.121385 -2.73708e-05 0)
(0.121429 -1.63783e-05 0)
(0.121451 -5.42789e-06 0)
(0.12145 5.4766e-06 0)
(0.121429 1.63313e-05 0)
(0.121385 2.71325e-05 0)
(0.12132 3.78766e-05 0)
(0.121233 4.85602e-05 0)
(0.121126 5.91799e-05 0)
(0.120997 6.97326e-05 0)
(0.120847 8.02152e-05 0)
(0.120676 9.06248e-05 0)
(0.120484 0.000100959 0)
(0.120272 0.000111214 0)
(0.120039 0.000121388 0)
(0.119786 0.000131479 0)
(0.119513 0.000141484 0)
(0.11922 0.000151402 0)
(0.118907 0.000161229 0)
(0.118575 0.000170965 0)
(0.118224 0.000180607 0)
(0.117853 0.000190154 0)
(0.117463 0.000199604 0)
(0.117054 0.000208956 0)
(0.116627 0.000218208 0)
(0.116181 0.000227359 0)
(0.115717 0.000236407 0)
(0.115235 0.000245352 0)
(0.114736 0.000254193 0)
(0.114219 0.000262929 0)
(0.113684 0.000271558 0)
(0.113132 0.000280081 0)
(0.112564 0.000288496 0)
(0.111978 0.000296802 0)
(0.111376 0.000305 0)
(0.110758 0.000313088 0)
(0.110124 0.000321066 0)
(0.109474 0.000328935 0)
(0.108808 0.000336692 0)
(0.108127 0.000344338 0)
(0.107431 0.000351874 0)
(0.106719 0.000359298 0)
(0.105993 0.00036661 0)
(0.105253 0.000373811 0)
(0.104498 0.0003809 0)
(0.103729 0.000387877 0)
(0.102946 0.000394742 0)
(0.10215 0.000401495 0)
(0.10134 0.000408137 0)
(0.100517 0.000414667 0)
(0.0996814 0.000421086 0)
(0.0988328 0.000427393 0)
(0.0979717 0.000433589 0)
(0.0970983 0.000439674 0)
(0.0962129 0.000445648 0)
(0.0953156 0.000451512 0)
(0.0944067 0.000457266 0)
(0.0934864 0.00046291 0)
(0.092555 0.000468445 0)
(0.0916125 0.000473871 0)
(0.0906594 0.000479189 0)
(0.0896957 0.000484398 0)
(0.0887217 0.000489501 0)
(0.0877376 0.000494496 0)
(0.0867436 0.000499385 0)
(0.0857399 0.000504168 0)
(0.0847268 0.000508846 0)
(0.0837044 0.00051342 0)
(0.082673 0.00051789 0)
(0.0816328 0.000522258 0)
(0.0805839 0.000526523 0)
(0.0795266 0.000530687 0)
(0.0784611 0.00053475 0)
(0.0773875 0.000538714 0)
(0.0763061 0.000542579 0)
(0.0752171 0.000546347 0)
(0.0741206 0.000550018 0)
(0.0730169 0.000553593 0)
(0.0719061 0.000557073 0)
(0.0707885 0.00056046 0)
(0.0696642 0.000563754 0)
(0.0685334 0.000566957 0)
(0.0673963 0.00057007 0)
(0.066253 0.000573094 0)
(0.0651038 0.00057603 0)
(0.0639488 0.000578879 0)
(0.0627882 0.000581643 0)
(0.0616222 0.000584323 0)
(0.0604509 0.00058692 0)
(0.0592744 0.000589435 0)
(0.058093 0.00059187 0)
(0.0569069 0.000594227 0)
(0.055716 0.000596506 0)
(0.0545208 0.000598709 0)
(0.0533211 0.000600837 0)
(0.0521173 0.000602891 0)
(0.0509095 0.000604874 0)
(0.0496978 0.000606786 0)
(0.0484823 0.000608628 0)
(0.0472632 0.000610403 0)
(0.0460406 0.000612111 0)
(0.0448147 0.000613754 0)
(0.0435855 0.000615333 0)
(0.0423533 0.00061685 0)
(0.0411181 0.000618306 0)
(0.03988 0.000619701 0)
(0.0386392 0.000621038 0)
(0.0373958 0.000622318 0)
(0.0361499 0.000623542 0)
(0.0349016 0.000624711 0)
(0.033651 0.000625827 0)
(0.0323982 0.00062689 0)
(0.0311434 0.000627902 0)
(0.0298865 0.000628864 0)
(0.0286279 0.000629778 0)
(0.0273674 0.000630643 0)
(0.0261052 0.000631461 0)
(0.0248415 0.000632234 0)
(0.0235763 0.000632962 0)
(0.0223096 0.000633646 0)
(0.0210416 0.000634287 0)
(0.0197724 0.000634885 0)
(0.018502 0.000635442 0)
(0.0172306 0.000635959 0)
(0.0159582 0.000636436 0)
(0.0146848 0.000636873 0)
(0.0134106 0.000637272 0)
(0.0121357 0.000637633 0)
(0.0108601 0.000637956 0)
(0.00958383 0.000638242 0)
(0.00830706 0.000638491 0)
(0.00702983 0.000638704 0)
(0.00575221 0.000638881 0)
(0.00447427 0.000639022 0)
(0.00319608 0.000639128 0)
(0.00191772 0.000639198 0)
(0.000639251 0.000639234 0)
(0.00071523 -0.00214554 0)
(0.00214565 -0.00214541 0)
(0.00357593 -0.00214515 0)
(0.005006 -0.00214476 0)
(0.00643577 -0.00214423 0)
(0.00786514 -0.00214357 0)
(0.00929403 -0.00214278 0)
(0.0107223 -0.00214185 0)
(0.01215 -0.00214078 0)
(0.0135769 -0.00213956 0)
(0.0150029 -0.00213821 0)
(0.016428 -0.0021367 0)
(0.017852 -0.00213504 0)
(0.0192749 -0.00213323 0)
(0.0206965 -0.00213125 0)
(0.0221168 -0.00212911 0)
(0.0235356 -0.0021268 0)
(0.0249527 -0.00212432 0)
(0.0263682 -0.00212166 0)
(0.0277818 -0.00211881 0)
(0.0291935 -0.00211577 0)
(0.0306031 -0.00211254 0)
(0.0320105 -0.0021091 0)
(0.0334155 -0.00210545 0)
(0.034818 -0.00210158 0)
(0.0362179 -0.00209749 0)
(0.037615 -0.00209317 0)
(0.0390091 -0.00208861 0)
(0.0404001 -0.00208381 0)
(0.0417878 -0.00207875 0)
(0.0431721 -0.00207343 0)
(0.0445527 -0.00206784 0)
(0.0459295 -0.00206197 0)
(0.0473023 -0.00205582 0)
(0.048671 -0.00204937 0)
(0.0500352 -0.00204262 0)
(0.0513948 -0.00203557 0)
(0.0527497 -0.00202819 0)
(0.0540995 -0.00202048 0)
(0.0554441 -0.00201244 0)
(0.0567832 -0.00200405 0)
(0.0581166 -0.00199531 0)
(0.059444 -0.00198621 0)
(0.0607653 -0.00197674 0)
(0.0620801 -0.00196689 0)
(0.0633883 -0.00195666 0)
(0.0646895 -0.00194603 0)
(0.0659835 -0.001935 0)
(0.06727 -0.00192357 0)
(0.0685487 -0.00191171 0)
(0.0698195 -0.00189944 0)
(0.0710818 -0.00188673 0)
(0.0723356 -0.00187359 0)
(0.0735805 -0.00186 0)
(0.0748162 -0.00184597 0)
(0.0760424 -0.00183148 0)
(0.0772587 -0.00181654 0)
(0.078465 -0.00180113 0)
(0.0796608 -0.00178525 0)
(0.0808459 -0.0017689 0)
(0.0820199 -0.00175207 0)
(0.0831826 -0.00173476 0)
(0.0843335 -0.00171698 0)
(0.0854724 -0.0016987 0)
(0.086599 -0.00167995 0)
(0.087713 -0.0016607 0)
(0.0888139 -0.00164097 0)
(0.0899015 -0.00162076 0)
(0.0909755 -0.00160005 0)
(0.0920355 -0.00157886 0)
(0.0930812 -0.00155719 0)
(0.0941124 -0.00153504 0)
(0.0951285 -0.00151241 0)
(0.0961295 -0.0014893 0)
(0.0971149 -0.00146572 0)
(0.0980843 -0.00144168 0)
(0.0990377 -0.00141718 0)
(0.0999745 -0.00139222 0)
(0.100894 -0.00136681 0)
(0.101797 -0.00134097 0)
(0.102683 -0.00131469 0)
(0.103551 -0.00128799 0)
(0.104401 -0.00126087 0)
(0.105233 -0.00123334 0)
(0.106046 -0.00120542 0)
(0.10684 -0.00117711 0)
(0.107616 -0.00114842 0)
(0.108372 -0.00111937 0)
(0.109109 -0.00108997 0)
(0.109826 -0.00106023 0)
(0.110523 -0.00103017 0)
(0.1112 -0.000999787 0)
(0.111856 -0.000969106 0)
(0.112492 -0.00093814 0)
(0.113107 -0.000906901 0)
(0.113702 -0.000875405 0)
(0.114275 -0.000843667 0)
(0.114827 -0.0008117 0)
(0.115357 -0.000779521 0)
(0.115866 -0.000747144 0)
(0.116354 -0.000714586 0)
(0.116819 -0.000681861 0)
(0.117263 -0.000648986 0)
(0.117685 -0.000615976 0)
(0.118084 -0.000582848 0)
(0.118462 -0.000549615 0)
(0.118817 -0.000516296 0)
(0.119151 -0.000482904 0)
(0.119461 -0.000449456 0)
(0.11975 -0.000415967 0)
(0.120016 -0.000382452 0)
(0.12026 -0.000348926 0)
(0.120481 -0.000315405 0)
(0.12068 -0.000281903 0)
(0.120857 -0.000248434 0)
(0.121012 -0.000215012 0)
(0.121144 -0.000181653 0)
(0.121254 -0.000148368 0)
(0.121341 -0.000115171 0)
(0.121407 -8.20758e-05 0)
(0.121451 -4.90944e-05 0)
(0.121472 -1.62391e-05 0)
(0.121472 1.64781e-05 0)
(0.12145 4.90459e-05 0)
(0.121407 8.1453e-05 0)
(0.121341 0.000113689 0)
(0.121255 0.000145743 0)
(0.121147 0.000177605 0)
(0.121018 0.000209266 0)
(0.120868 0.000240717 0)
(0.120696 0.000271948 0)
(0.120505 0.000302953 0)
(0.120292 0.000333721 0)
(0.120059 0.000364246 0)
(0.119806 0.000394522 0)
(0.119533 0.000424539 0)
(0.11924 0.000454294 0)
(0.118927 0.000483778 0)
(0.118595 0.000512987 0)
(0.118243 0.000541916 0)
(0.117872 0.000570558 0)
(0.117482 0.000598909 0)
(0.117073 0.000626966 0)
(0.116645 0.000654722 0)
(0.116199 0.000682176 0)
(0.115735 0.000709323 0)
(0.115253 0.00073616 0)
(0.114753 0.000762684 0)
(0.114236 0.000788891 0)
(0.113701 0.00081478 0)
(0.113149 0.000840349 0)
(0.11258 0.000865594 0)
(0.111995 0.000890514 0)
(0.111393 0.000915107 0)
(0.110774 0.000939373 0)
(0.11014 0.000963308 0)
(0.109489 0.000986913 0)
(0.108823 0.00101019 0)
(0.108142 0.00103313 0)
(0.107445 0.00105573 0)
(0.106734 0.001078 0)
(0.106008 0.00109994 0)
(0.105267 0.00112154 0)
(0.104512 0.00114281 0)
(0.103743 0.00116374 0)
(0.10296 0.00118434 0)
(0.102163 0.0012046 0)
(0.101353 0.00122452 0)
(0.10053 0.00124411 0)
(0.0996941 0.00126337 0)
(0.0988453 0.00128229 0)
(0.097984 0.00130088 0)
(0.0971104 0.00131913 0)
(0.0962247 0.00133705 0)
(0.0953272 0.00135465 0)
(0.0944181 0.00137191 0)
(0.0934976 0.00138884 0)
(0.0925659 0.00140544 0)
(0.0916233 0.00142172 0)
(0.0906699 0.00143767 0)
(0.089706 0.0014533 0)
(0.0887318 0.00146861 0)
(0.0877475 0.00148359 0)
(0.0867533 0.00149826 0)
(0.0857494 0.00151261 0)
(0.0847361 0.00152664 0)
(0.0837135 0.00154036 0)
(0.0826819 0.00155377 0)
(0.0816414 0.00156687 0)
(0.0805923 0.00157967 0)
(0.0795348 0.00159216 0)
(0.0784691 0.00160435 0)
(0.0773953 0.00161624 0)
(0.0763137 0.00162784 0)
(0.0752245 0.00163914 0)
(0.0741279 0.00165015 0)
(0.073024 0.00166087 0)
(0.071913 0.00167131 0)
(0.0707952 0.00168147 0)
(0.0696707 0.00169135 0)
(0.0685397 0.00170096 0)
(0.0674024 0.0017103 0)
(0.066259 0.00171937 0)
(0.0651096 0.00172818 0)
(0.0639545 0.00173672 0)
(0.0627937 0.00174501 0)
(0.0616275 0.00175305 0)
(0.060456 0.00176084 0)
(0.0592794 0.00176839 0)
(0.0580978 0.00177569 0)
(0.0569115 0.00178276 0)
(0.0557205 0.00178959 0)
(0.0545251 0.0017962 0)
(0.0533253 0.00180258 0)
(0.0521214 0.00180875 0)
(0.0509134 0.00181469 0)
(0.0497015 0.00182043 0)
(0.0484859 0.00182595 0)
(0.0472667 0.00183128 0)
(0.046044 0.0018364 0)
(0.0448179 0.00184133 0)
(0.0435886 0.00184606 0)
(0.0423563 0.00185061 0)
(0.0411209 0.00185498 0)
(0.0398827 0.00185916 0)
(0.0386418 0.00186317 0)
(0.0373983 0.00186701 0)
(0.0361523 0.00187068 0)
(0.0349039 0.00187419 0)
(0.0336532 0.00187753 0)
(0.0324003 0.00188072 0)
(0.0311453 0.00188376 0)
(0.0298884 0.00188664 0)
(0.0286296 0.00188938 0)
(0.0273691 0.00189198 0)
(0.0261068 0.00189443 0)
(0.024843 0.00189675 0)
(0.0235777 0.00189893 0)
(0.0223109 0.00190098 0)
(0.0210429 0.0019029 0)
(0.0197736 0.0019047 0)
(0.0185031 0.00190637 0)
(0.0172316 0.00190792 0)
(0.0159591 0.00190935 0)
(0.0146857 0.00191066 0)
(0.0134114 0.00191185 0)
(0.0121364 0.00191294 0)
(0.0108607 0.00191391 0)
(0.00958437 0.00191476 0)
(0.00830752 0.00191551 0)
(0.00703022 0.00191615 0)
(0.00575253 0.00191668 0)
(0.00447451 0.0019171 0)
(0.00319626 0.00191742 0)
(0.00191782 0.00191763 0)
(0.000639286 0.00191774 0)
(0.000715317 -0.00357604 0)
(0.00214591 -0.00357583 0)
(0.00357637 -0.00357539 0)
(0.00500661 -0.00357474 0)
(0.00643656 -0.00357387 0)
(0.00786611 -0.00357277 0)
(0.00929518 -0.00357145 0)
(0.0107237 -0.0035699 0)
(0.0121515 -0.00356812 0)
(0.0135786 -0.0035661 0)
(0.0150048 -0.00356384 0)
(0.0164301 -0.00356133 0)
(0.0178544 -0.00355857 0)
(0.0192774 -0.00355555 0)
(0.0206993 -0.00355227 0)
(0.0221198 -0.00354871 0)
(0.0235388 -0.00354487 0)
(0.0249562 -0.00354073 0)
(0.0263719 -0.0035363 0)
(0.0277858 -0.00353156 0)
(0.0291977 -0.00352651 0)
(0.0306076 -0.00352112 0)
(0.0320152 -0.0035154 0)
(0.0334205 -0.00350932 0)
(0.0348233 -0.00350289 0)
(0.0362235 -0.00349608 0)
(0.0376209 -0.00348888 0)
(0.0390153 -0.00348129 0)
(0.0404066 -0.00347329 0)
(0.0417947 -0.00346487 0)
(0.0431793 -0.00345601 0)
(0.0445603 -0.00344671 0)
(0.0459375 -0.00343694 0)
(0.0473107 -0.00342669 0)
(0.0486798 -0.00341596 0)
(0.0500444 -0.00340472 0)
(0.0514045 -0.00339296 0)
(0.0527597 -0.00338067 0)
(0.05411 -0.00336784 0)
(0.055455 -0.00335444 0)
(0.0567946 -0.00334048 0)
(0.0581285 -0.00332592 0)
(0.0594564 -0.00331076 0)
(0.0607782 -0.00329498 0)
(0.0620935 -0.00327858 0)
(0.0634022 -0.00326153 0)
(0.0647039 -0.00324383 0)
(0.0659985 -0.00322546 0)
(0.0672855 -0.0032064 0)
(0.0685648 -0.00318666 0)
(0.0698361 -0.0031662 0)
(0.0710991 -0.00314504 0)
(0.0723535 -0.00312314 0)
(0.0735989 -0.00310051 0)
(0.0748352 -0.00307712 0)
(0.076062 -0.00305298 0)
(0.077279 -0.00302808 0)
(0.0784858 -0.0030024 0)
(0.0796823 -0.00297594 0)
(0.080868 -0.00294869 0)
(0.0820427 -0.00292065 0)
(0.083206 -0.00289181 0)
(0.0843576 -0.00286216 0)
(0.0854971 -0.00283171 0)
(0.0866244 -0.00280045 0)
(0.087739 -0.00276838 0)
(0.0888406 -0.0027355 0)
(0.0899288 -0.0027018 0)
(0.0910035 -0.00266729 0)
(0.0920641 -0.00263197 0)
(0.0931105 -0.00259585 0)
(0.0941422 -0.00255893 0)
(0.0951591 -0.0025212 0)
(0.0961606 -0.00248269 0)
(0.0971466 -0.00244339 0)
(0.0981167 -0.00240331 0)
(0.0990707 -0.00236247 0)
(0.100008 -0.00232086 0)
(0.100929 -0.00227851 0)
(0.101832 -0.00223543 0)
(0.102718 -0.00219162 0)
(0.103587 -0.0021471 0)
(0.104437 -0.00210189 0)
(0.10527 -0.00205601 0)
(0.106083 -0.00200945 0)
(0.106878 -0.00196226 0)
(0.107654 -0.00191444 0)
(0.108411 -0.00186601 0)
(0.109148 -0.001817 0)
(0.109865 -0.00176742 0)
(0.110563 -0.00171729 0)
(0.11124 -0.00166664 0)
(0.111897 -0.0016155 0)
(0.112534 -0.00156387 0)
(0.113149 -0.00151179 0)
(0.113744 -0.00145928 0)
(0.114317 -0.00140636 0)
(0.11487 -0.00135307 0)
(0.1154 -0.00129942 0)
(0.11591 -0.00124544 0)
(0.116397 -0.00119116 0)
(0.116863 -0.0011366 0)
(0.117307 -0.00108179 0)
(0.117729 -0.00102676 0)
(0.118129 -0.000971528 0)
(0.118506 -0.000916123 0)
(0.118862 -0.000860573 0)
(0.119195 -0.000804903 0)
(0.119506 -0.000749139 0)
(0.119795 -0.000693307 0)
(0.120061 -0.000637432 0)
(0.120305 -0.000581539 0)
(0.120526 -0.000525654 0)
(0.120725 -0.000469801 0)
(0.120902 -0.000414004 0)
(0.121056 -0.000358286 0)
(0.121188 -0.000302671 0)
(0.121298 -0.000247182 0)
(0.121386 -0.00019184 0)
(0.121451 -0.000136667 0)
(0.121495 -8.16843e-05 0)
(0.121516 -2.69123e-05 0)
(0.121516 2.76293e-05 0)
(0.121494 8.19212e-05 0)
(0.12145 0.000135945 0)
(0.121384 0.000189683 0)
(0.121297 0.000243117 0)
(0.121189 0.000296232 0)
(0.12106 0.00034901 0)
(0.120909 0.000401438 0)
(0.120738 0.0004535 0)
(0.120546 0.000505182 0)
(0.120333 0.000556471 0)
(0.1201 0.000607355 0)
(0.119847 0.000657821 0)
(0.119573 0.000707858 0)
(0.119279 0.000757456 0)
(0.118966 0.000806603 0)
(0.118633 0.000855291 0)
(0.118281 0.00090351 0)
(0.11791 0.000951252 0)
(0.117519 0.00099851 0)
(0.11711 0.00104527 0)
(0.116682 0.00109154 0)
(0.116236 0.0011373 0)
(0.115771 0.00118255 0)
(0.115289 0.00122728 0)
(0.114789 0.00127149 0)
(0.114271 0.00131517 0)
(0.113735 0.00135832 0)
(0.113183 0.00140094 0)
(0.112614 0.00144302 0)
(0.112028 0.00148455 0)
(0.111425 0.00152554 0)
(0.110806 0.00156599 0)
(0.110171 0.00160588 0)
(0.109521 0.00164522 0)
(0.108854 0.00168401 0)
(0.108172 0.00172225 0)
(0.107475 0.00175992 0)
(0.106763 0.00179704 0)
(0.106037 0.00183361 0)
(0.105296 0.00186961 0)
(0.10454 0.00190506 0)
(0.10377 0.00193994 0)
(0.102987 0.00197427 0)
(0.10219 0.00200803 0)
(0.10138 0.00204124 0)
(0.100556 0.00207389 0)
(0.0997195 0.00210598 0)
(0.0988703 0.00213752 0)
(0.0980085 0.0021685 0)
(0.0971345 0.00219892 0)
(0.0962484 0.00222879 0)
(0.0953505 0.00225811 0)
(0.0944409 0.00228688 0)
(0.09352 0.0023151 0)
(0.0925879 0.00234277 0)
(0.0916448 0.0023699 0)
(0.090691 0.00239648 0)
(0.0897266 0.00242253 0)
(0.088752 0.00244804 0)
(0.0877672 0.00247301 0)
(0.0867726 0.00249745 0)
(0.0857683 0.00252136 0)
(0.0847546 0.00254475 0)
(0.0837316 0.00256762 0)
(0.0826996 0.00258997 0)
(0.0816587 0.0026118 0)
(0.0806092 0.00263312 0)
(0.0795513 0.00265394 0)
(0.0784851 0.00267425 0)
(0.077411 0.00269406 0)
(0.076329 0.00271338 0)
(0.0752394 0.00273222 0)
(0.0741424 0.00275057 0)
(0.0730381 0.00276844 0)
(0.0719268 0.00278583 0)
(0.0708086 0.00280276 0)
(0.0696837 0.00281923 0)
(0.0685524 0.00283524 0)
(0.0674147 0.0028508 0)
(0.0662709 0.00286591 0)
(0.0651212 0.00288058 0)
(0.0639657 0.00289482 0)
(0.0628046 0.00290863 0)
(0.061638 0.00292203 0)
(0.0604662 0.00293501 0)
(0.0592893 0.00294758 0)
(0.0581074 0.00295975 0)
(0.0569208 0.00297152 0)
(0.0557295 0.00298291 0)
(0.0545338 0.00299392 0)
(0.0533337 0.00300455 0)
(0.0521295 0.00301482 0)
(0.0509212 0.00302472 0)
(0.049709 0.00303428 0)
(0.0484931 0.00304348 0)
(0.0472736 0.00305235 0)
(0.0460507 0.00306088 0)
(0.0448243 0.00306909 0)
(0.0435948 0.00307698 0)
(0.0423622 0.00308456 0)
(0.0411266 0.00309183 0)
(0.0398882 0.0030988 0)
(0.0386471 0.00310548 0)
(0.0374033 0.00311187 0)
(0.0361571 0.00311799 0)
(0.0349084 0.00312383 0)
(0.0336575 0.0031294 0)
(0.0324044 0.00313471 0)
(0.0311493 0.00313976 0)
(0.0298922 0.00314457 0)
(0.0286332 0.00314913 0)
(0.0273724 0.00315345 0)
(0.02611 0.00315754 0)
(0.024846 0.0031614 0)
(0.0235805 0.00316503 0)
(0.0223136 0.00316845 0)
(0.0210453 0.00317165 0)
(0.0197759 0.00317464 0)
(0.0185053 0.00317742 0)
(0.0172336 0.00318 0)
(0.0159609 0.00318238 0)
(0.0146873 0.00318456 0)
(0.0134129 0.00318655 0)
(0.0121377 0.00318835 0)
(0.0108619 0.00318997 0)
(0.00958544 0.00319139 0)
(0.00830845 0.00319264 0)
(0.007031 0.0031937 0)
(0.00575316 0.00319459 0)
(0.00447501 0.00319529 0)
(0.00319661 0.00319582 0)
(0.00191804 0.00319617 0)
(0.000639357 0.00319634 0)
(0.000715447 -0.00500676 0)
(0.0021463 -0.00500646 0)
(0.00357702 -0.00500585 0)
(0.00500753 -0.00500494 0)
(0.00643774 -0.00500372 0)
(0.00786756 -0.00500219 0)
(0.0092969 -0.00500035 0)
(0.0107257 -0.00499819 0)
(0.0121538 -0.0049957 0)
(0.0135812 -0.00499288 0)
(0.0150077 -0.00498972 0)
(0.0164333 -0.00498622 0)
(0.0178578 -0.00498237 0)
(0.0192812 -0.00497815 0)
(0.0207034 -0.00497356 0)
(0.0221242 -0.00496859 0)
(0.0235435 -0.00496322 0)
(0.0249613 -0.00495745 0)
(0.0263774 -0.00495126 0)
(0.0277916 -0.00494464 0)
(0.029204 -0.00493757 0)
(0.0306142 -0.00493004 0)
(0.0320223 -0.00492204 0)
(0.033428 -0.00491356 0)
(0.0348313 -0.00490456 0)
(0.0362319 -0.00489505 0)
(0.0376297 -0.00488499 0)
(0.0390247 -0.00487438 0)
(0.0404165 -0.0048632 0)
(0.0418051 -0.00485143 0)
(0.0431902 -0.00483905 0)
(0.0445718 -0.00482604 0)
(0.0459495 -0.00481238 0)
(0.0473233 -0.00479806 0)
(0.0486929 -0.00478305 0)
(0.0500582 -0.00476733 0)
(0.0514189 -0.00475089 0)
(0.0527748 -0.00473371 0)
(0.0541257 -0.00471576 0)
(0.0554714 -0.00469703 0)
(0.0568117 -0.00467749 0)
(0.0581463 -0.00465713 0)
(0.059475 -0.00463593 0)
(0.0607975 -0.00461386 0)
(0.0621136 -0.00459091 0)
(0.063423 -0.00456706 0)
(0.0647256 -0.0045423 0)
(0.0660209 -0.00451659 0)
(0.0673088 -0.00448994 0)
(0.068589 -0.00446231 0)
(0.0698611 -0.00443369 0)
(0.0711249 -0.00440407 0)
(0.0723802 -0.00437343 0)
(0.0736265 -0.00434175 0)
(0.0748637 -0.00430903 0)
(0.0760914 -0.00427525 0)
(0.0773093 -0.00424039 0)
(0.0785171 -0.00420445 0)
(0.0797145 -0.00416742 0)
(0.0809012 -0.00412928 0)
(0.0820768 -0.00409003 0)
(0.0832411 -0.00404966 0)
(0.0843936 -0.00400816 0)
(0.0855342 -0.00396553 0)
(0.0866624 -0.00392177 0)
(0.087778 -0.00387687 0)
(0.0888805 -0.00383083 0)
(0.0899698 -0.00378365 0)
(0.0910454 -0.00373534 0)
(0.092107 -0.00368589 0)
(0.0931543 -0.00363531 0)
(0.0941871 -0.00358361 0)
(0.0952048 -0.00353079 0)
(0.0962073 -0.00347686 0)
(0.0971943 -0.00342183 0)
(0.0981653 -0.00336571 0)
(0.0991202 -0.00330851 0)
(0.100058 -0.00325025 0)
(0.10098 -0.00319095 0)
(0.101884 -0.00313061 0)
(0.102771 -0.00306926 0)
(0.103641 -0.00300692 0)
(0.104492 -0.0029436 0)
(0.105325 -0.00287933 0)
(0.10614 -0.00281414 0)
(0.106935 -0.00274804 0)
(0.107712 -0.00268107 0)
(0.108469 -0.00261324 0)
(0.109207 -0.00254459 0)
(0.109925 -0.00247515 0)
(0.110623 -0.00240494 0)
(0.111301 -0.002334 0)
(0.111959 -0.00226236 0)
(0.112596 -0.00219005 0)
(0.113212 -0.00211711 0)
(0.113807 -0.00204356 0)
(0.114381 -0.00196944 0)
(0.114934 -0.00189479 0)
(0.115465 -0.00181965 0)
(0.115975 -0.00174404 0)
(0.116463 -0.00166801 0)
(0.116929 -0.0015916 0)
(0.117373 -0.00151483 0)
(0.117795 -0.00143774 0)
(0.118195 -0.00136038 0)
(0.118573 -0.00128278 0)
(0.118929 -0.00120497 0)
(0.119262 -0.001127 0)
(0.119573 -0.00104889 0)
(0.119862 -0.000970689 0)
(0.120128 -0.000892429 0)
(0.120372 -0.000814145 0)
(0.120593 -0.000735871 0)
(0.120792 -0.000657643 0)
(0.120969 -0.000579494 0)
(0.121123 -0.000501457 0)
(0.121255 -0.000423564 0)
(0.121364 -0.000345848 0)
(0.121452 -0.000268339 0)
(0.121517 -0.000191068 0)
(0.12156 -0.000114063 0)
(0.121582 -3.73547e-05 0)
(0.121581 3.90304e-05 0)
(0.121559 0.000115065 0)
(0.121514 0.000190723 0)
(0.121449 0.00026598 0)
(0.121361 0.000340812 0)
(0.121253 0.000415195 0)
(0.121123 0.000489106 0)
(0.120972 0.000562525 0)
(0.1208 0.000635431 0)
(0.120608 0.000707805 0)
(0.120394 0.000779628 0)
(0.120161 0.000850882 0)
(0.119907 0.00092155 0)
(0.119633 0.000991617 0)
(0.119339 0.00106107 0)
(0.119025 0.00112989 0)
(0.118691 0.00119806 0)
(0.118339 0.00126558 0)
(0.117967 0.00133243 0)
(0.117576 0.0013986 0)
(0.117166 0.00146408 0)
(0.116737 0.00152886 0)
(0.11629 0.00159294 0)
(0.115825 0.00165629 0)
(0.115342 0.00171892 0)
(0.114841 0.00178082 0)
(0.114323 0.00184198 0)
(0.113787 0.0019024 0)
(0.113234 0.00196207 0)
(0.112664 0.00202098 0)
(0.112077 0.00207914 0)
(0.111474 0.00213653 0)
(0.110854 0.00219315 0)
(0.110219 0.00224901 0)
(0.109567 0.00230409 0)
(0.1089 0.00235839 0)
(0.108218 0.00241192 0)
(0.10752 0.00246467 0)
(0.106808 0.00251664 0)
(0.10608 0.00256783 0)
(0.105338 0.00261824 0)
(0.104582 0.00266786 0)
(0.103812 0.0027167 0)
(0.103028 0.00276476 0)
(0.10223 0.00281203 0)
(0.101419 0.00285852 0)
(0.100595 0.00290423 0)
(0.0997577 0.00294916 0)
(0.0989078 0.0029933 0)
(0.0980454 0.00303667 0)
(0.0971707 0.00307926 0)
(0.0962839 0.00312108 0)
(0.0953853 0.00316212 0)
(0.0944751 0.0032024 0)
(0.0935535 0.0032419 0)
(0.0926207 0.00328064 0)
(0.091677 0.00331861 0)
(0.0907225 0.00335583 0)
(0.0897576 0.00339229 0)
(0.0887823 0.003428 0)
(0.0877969 0.00346296 0)
(0.0868016 0.00349717 0)
(0.0857967 0.00353065 0)
(0.0847823 0.00356338 0)
(0.0837587 0.00359539 0)
(0.082726 0.00362667 0)
(0.0816846 0.00365723 0)
(0.0806345 0.00368708 0)
(0.0795759 0.00371621 0)
(0.0785092 0.00374464 0)
(0.0774345 0.00377238 0)
(0.0763519 0.00379942 0)
(0.0752617 0.00382578 0)
(0.0741641 0.00385146 0)
(0.0730592 0.00387647 0)
(0.0719473 0.00390082 0)
(0.0708286 0.00392452 0)
(0.0697032 0.00394756 0)
(0.0685713 0.00396996 0)
(0.0674331 0.00399174 0)
(0.0662888 0.00401289 0)
(0.0651385 0.00403342 0)
(0.0639825 0.00405335 0)
(0.0628209 0.00407268 0)
(0.0616538 0.00409142 0)
(0.0604815 0.00410958 0)
(0.0593041 0.00412717 0)
(0.0581218 0.0041442 0)
(0.0569347 0.00416067 0)
(0.0557429 0.00417661 0)
(0.0545467 0.00419201 0)
(0.0533462 0.00420689 0)
(0.0521415 0.00422125 0)
(0.0509329 0.00423511 0)
(0.0497203 0.00424847 0)
(0.048504 0.00426135 0)
(0.0472841 0.00427376 0)
(0.0460607 0.00428569 0)
(0.044834 0.00429718 0)
(0.0436041 0.00430821 0)
(0.0423711 0.00431881 0)
(0.0411352 0.00432898 0)
(0.0398964 0.00433873 0)
(0.0386549 0.00434807 0)
(0.0374108 0.00435701 0)
(0.0361642 0.00436556 0)
(0.0349153 0.00437373 0)
(0.033664 0.00438152 0)
(0.0324106 0.00438895 0)
(0.0311552 0.00439602 0)
(0.0298978 0.00440274 0)
(0.0286385 0.00440911 0)
(0.0273775 0.00441516 0)
(0.0261148 0.00442087 0)
(0.0248505 0.00442627 0)
(0.0235847 0.00443135 0)
(0.0223175 0.00443612 0)
(0.0210491 0.0044406 0)
(0.0197793 0.00444478 0)
(0.0185085 0.00444867 0)
(0.0172366 0.00445228 0)
(0.0159636 0.0044556 0)
(0.0146898 0.00445866 0)
(0.0134152 0.00446144 0)
(0.0121398 0.00446396 0)
(0.0108637 0.00446621 0)
(0.00958704 0.00446821 0)
(0.00830983 0.00446995 0)
(0.00703216 0.00447143 0)
(0.00575411 0.00447267 0)
(0.00447575 0.00447366 0)
(0.00319714 0.00447439 0)
(0.00191835 0.00447488 0)
(0.000639462 0.00447513 0)
(0.00071562 -0.00643779 0)
(0.00214682 -0.0064374 0)
(0.00357789 -0.00643662 0)
(0.00500875 -0.00643545 0)
(0.00643931 -0.00643389 0)
(0.00786948 -0.00643193 0)
(0.00929919 -0.00642957 0)
(0.0107283 -0.0064268 0)
(0.0121568 -0.00642361 0)
(0.0135846 -0.00642 0)
(0.0150115 -0.00641595 0)
(0.0164375 -0.00641146 0)
(0.0178624 -0.00640652 0)
(0.0192863 -0.00640112 0)
(0.0207088 -0.00639523 0)
(0.0221301 -0.00638886 0)
(0.0235499 -0.00638198 0)
(0.0249681 -0.00637458 0)
(0.0263847 -0.00636664 0)
(0.0277995 -0.00635815 0)
(0.0292123 -0.00634909 0)
(0.0306231 -0.00633944 0)
(0.0320317 -0.00632918 0)
(0.033438 -0.00631829 0)
(0.0348418 -0.00630676 0)
(0.0362431 -0.00629455 0)
(0.0376415 -0.00628166 0)
(0.0390371 -0.00626805 0)
(0.0404296 -0.0062537 0)
(0.0418189 -0.0062386 0)
(0.0432047 -0.00622271 0)
(0.044587 -0.00620602 0)
(0.0459655 -0.00618849 0)
(0.0473401 -0.00617011 0)
(0.0487105 -0.00615084 0)
(0.0500766 -0.00613067 0)
(0.0514381 -0.00610957 0)
(0.0527949 -0.00608751 0)
(0.0541467 -0.00606446 0)
(0.0554933 -0.00604041 0)
(0.0568345 -0.00601533 0)
(0.05817 -0.00598918 0)
(0.0594997 -0.00596195 0)
(0.0608232 -0.00593362 0)
(0.0621403 -0.00590414 0)
(0.0634508 -0.00587351 0)
(0.0647544 -0.0058417 0)
(0.0660508 -0.00580869 0)
(0.0673398 -0.00577444 0)
(0.0686211 -0.00573895 0)
(0.0698944 -0.00570218 0)
(0.0711594 -0.00566412 0)
(0.0724158 -0.00562475 0)
(0.0736633 -0.00558405 0)
(0.0749017 -0.005542 0)
(0.0761307 -0.00549859 0)
(0.0773498 -0.00545379 0)
(0.0785588 -0.0054076 0)
(0.0797575 -0.00536 0)
(0.0809454 -0.00531098 0)
(0.0821223 -0.00526052 0)
(0.0832879 -0.00520863 0)
(0.0844417 -0.00515528 0)
(0.0855836 -0.00510048 0)
(0.0867131 -0.00504422 0)
(0.08783 -0.0049865 0)
(0.0889338 -0.0049273 0)
(0.0900244 -0.00486665 0)
(0.0911013 -0.00480452 0)
(0.0921642 -0.00474094 0)
(0.0932128 -0.0046759 0)
(0.0942468 -0.00460942 0)
(0.0952659 -0.00454149 0)
(0.0962696 -0.00447213 0)
(0.0972578 -0.00440136 0)
(0.0982301 -0.00432919 0)
(0.0991862 -0.00425562 0)
(0.100126 -0.00418069 0)
(0.101048 -0.00410441 0)
(0.101954 -0.00402681 0)
(0.102842 -0.00394789 0)
(0.103713 -0.0038677 0)
(0.104565 -0.00378626 0)
(0.105399 -0.00370359 0)
(0.106215 -0.00361973 0)
(0.107011 -0.0035347 0)
(0.107789 -0.00344854 0)
(0.108547 -0.00336129 0)
(0.109286 -0.00327298 0)
(0.110005 -0.00318364 0)
(0.110704 -0.00309332 0)
(0.111383 -0.00300206 0)
(0.112041 -0.0029099 0)
(0.112679 -0.00281687 0)
(0.113296 -0.00272302 0)
(0.113891 -0.0026284 0)
(0.114466 -0.00253305 0)
(0.115019 -0.00243701 0)
(0.115551 -0.00234034 0)
(0.116061 -0.00224307 0)
(0.11655 -0.00214525 0)
(0.117016 -0.00204694 0)
(0.117461 -0.00194817 0)
(0.117883 -0.001849 0)
(0.118284 -0.00174947 0)
(0.118662 -0.00164963 0)
(0.119018 -0.00154953 0)
(0.119351 -0.00144922 0)
(0.119662 -0.00134874 0)
(0.119951 -0.00124813 0)
(0.120217 -0.00114745 0)
(0.120461 -0.00104674 0)
(0.120683 -0.000946043 0)
(0.120881 -0.000845406 0)
(0.121058 -0.000744872 0)
(0.121212 -0.000644483 0)
(0.121344 -0.00054428 0)
(0.121453 -0.000444306 0)
(0.12154 -0.0003446 0)
(0.121605 -0.000245201 0)
(0.121648 -0.000146146 0)
(0.121669 -4.74733e-05 0)
(0.121668 5.07822e-05 0)
(0.121645 0.000148586 0)
(0.121601 0.000245904 0)