/*--------------------------------*- C++ -*----------------------------------*\
| =========                 |                                                 |
| \\      /  F ield         | OpenFOAM: The Open Source CFD Toolbox           |
|  \\    /   O peration     | Version:  v2012                                 |
|   \\  /    A nd           | Website:  www.openfoam.com                      |
|    \\/     M anipulation  |                                                 |
\*---------------------------------------------------------------------------*/
FoamFile
{
    version     2.0;
    format      ascii;
    class       volScalarField;
    location    "2.75";
    object      W;
}
// * * * * * * * * * * * * * * * * * * * * * * * * * * * * * * * * * * * * * //

dimensions      [0 0 -1 0 0 0 0];


internalField   nonuniform List<scalar> 
65536
(
2.69987e-20
2.9539e-20
3.51444e-20
4.41562e-20
5.71566e-20
7.50197e-20
9.89755e-20
1.3069e-19
1.72367e-19
2.26873e-19
2.97901e-19
3.90175e-19
5.09709e-19
6.64129e-19
8.6307e-19
1.11867e-18
1.44618e-18
1.86467e-18
2.39797e-18
3.07573e-18
3.93472e-18
5.02042e-18
6.38893e-18
8.10916e-18
1.02656e-17
1.29614e-17
1.63223e-17
2.05006e-17
2.56811e-17
3.20862e-17
3.99835e-17
4.96938e-17
6.15998e-17
7.61577e-17
9.39084e-17
1.15492e-16
1.41662e-16
1.73304e-16
2.11454e-16
2.57323e-16
3.12316e-16
3.7806e-16
4.56433e-16
5.49596e-16
6.60024e-16
7.90539e-16
9.44352e-16
1.1251e-15
1.33688e-15
1.58429e-15
1.8725e-15
2.20725e-15
2.59488e-15
3.04245e-15
3.55767e-15
4.14899e-15
4.82561e-15
5.59749e-15
6.47537e-15
7.47073e-15
8.59582e-15
9.86359e-15
1.12877e-14
1.28822e-14
1.46621e-14
1.66423e-14
1.88383e-14
2.12657e-14
2.394e-14
2.68763e-14
3.00895e-14
3.35936e-14
3.74017e-14
4.15255e-14
4.59754e-14
5.07596e-14
5.58841e-14
6.13527e-14
6.7166e-14
7.33214e-14
7.98131e-14
8.66312e-14
9.37621e-14
1.01188e-13
1.08886e-13
1.1683e-13
1.24988e-13
1.33324e-13
1.41798e-13
1.50366e-13
1.58979e-13
1.67584e-13
1.76127e-13
1.84549e-13
1.92789e-13
2.00786e-13
2.08477e-13
2.15799e-13
2.2269e-13
2.2909e-13
2.3494e-13
2.40186e-13
2.44777e-13
2.48668e-13
2.51818e-13
2.54195e-13
2.55772e-13
2.56529e-13
2.56456e-13
2.5555e-13
2.53817e-13
2.51271e-13
2.47934e-13
2.43837e-13
2.39018e-13
2.33524e-13
2.27407e-13
2.20726e-13
2.13545e-13
2.05932e-13
1.97961e-13
1.89707e-13
1.81246e-13
1.72657e-13
1.64018e-13
1.55407e-13
1.46899e-13
1.38569e-13
1.30488e-13
1.22722e-13
1.15336e-13
1.08389e-13
1.01934e-13
9.60221e-14
9.06962e-14
8.59955e-14
8.19535e-14
7.85979e-14
7.5951e-14
7.40297e-14
7.28452e-14
7.24029e-14
7.27028e-14
7.37392e-14
7.55007e-14
7.797e-14
8.11238e-14
8.49333e-14
8.93633e-14
9.43727e-14
9.99145e-14
1.05936e-13
1.12377e-13
1.19175e-13
1.26259e-13
1.33554e-13
1.40983e-13
1.48462e-13
1.55907e-13
1.6323e-13
1.70343e-13
1.7716e-13
1.83593e-13
1.8956e-13
1.94981e-13
1.99784e-13
2.039e-13
2.07272e-13
2.09848e-13
2.11589e-13
2.12465e-13
2.12458e-13
2.11561e-13
2.09779e-13
2.0713e-13
2.03641e-13
1.99352e-13
1.94311e-13
1.88576e-13
1.82213e-13
1.75294e-13
1.67897e-13
1.60103e-13
1.51993e-13
1.43653e-13
1.35164e-13
1.26606e-13
1.18057e-13
1.09588e-13
1.01266e-13
9.31508e-14
8.52952e-14
7.77449e-14
7.05379e-14
6.37046e-14
5.72679e-14
5.12433e-14
4.56399e-14
4.04602e-14
3.57011e-14
3.13545e-14
2.74082e-14
2.38461e-14
2.06493e-14
1.77968e-14
1.52658e-14
1.30329e-14
1.10737e-14
9.36442e-15
7.88125e-15
6.60138e-15
5.50295e-15
4.56536e-15
3.76938e-15
3.09726e-15
2.53276e-15
2.06119e-15
1.66934e-15
1.34548e-15
1.07921e-15
8.61456e-16
6.84315e-16
5.40968e-16
4.25578e-16
3.33178e-16
2.59574e-16
2.01248e-16
1.5527e-16
1.19214e-16
9.10851e-17
6.92546e-17
5.23998e-17
3.94537e-17
2.95613e-17
2.20412e-17
1.6354e-17
1.20749e-17
8.87194e-18
6.48673e-18
4.7196e-18
3.41708e-18
2.46193e-18
1.76509e-18
1.2593e-18
8.94045e-19
6.31626e-19
4.44051e-19
3.10663e-19
2.16308e-19
1.49937e-19
1.03561e-19
7.14601e-20
4.95999e-20
3.52028e-20
2.64348e-20
2.21819e-20
3.56517e-20
3.90047e-20
4.64049e-20
5.83019e-20
7.54642e-20
9.90449e-20
1.30667e-19
1.72528e-19
2.27535e-19
2.99469e-19
3.932e-19
5.14959e-19
6.72674e-19
8.76398e-19
1.13883e-18
1.47597e-18
1.90791e-18
2.45978e-18
3.16296e-18
4.05649e-18
5.18878e-18
6.61972e-18
8.42309e-18
1.06896e-17
1.35303e-17
1.7081e-17
2.15067e-17
2.70079e-17
3.3827e-17
4.22564e-17
5.26472e-17
6.54203e-17
8.1078e-17
1.00218e-16
1.2355e-16
1.51912e-16
1.86291e-16
2.27846e-16
2.77933e-16
3.38134e-16
4.10285e-16
4.96512e-16
5.99266e-16
7.21366e-16
8.66035e-16
1.03695e-15
1.2383e-15
1.47479e-15
1.75177e-15
2.07521e-15
2.4518e-15
2.88897e-15
3.39497e-15
3.97889e-15
4.65071e-15
5.42133e-15
6.30261e-15
7.30736e-15
8.44939e-15
9.74344e-15
1.12052e-14
1.28512e-14
1.46989e-14
1.67664e-14
1.90723e-14
2.1636e-14
2.44768e-14
2.76145e-14
3.10684e-14
3.48576e-14
3.90005e-14
4.35145e-14
4.84156e-14
5.37181e-14
5.94342e-14
6.55736e-14
7.21431e-14
7.91462e-14
8.65825e-14
9.44477e-14
1.02733e-13
1.11424e-13
1.20503e-13
1.29945e-13
1.3972e-13
1.49793e-13
1.60122e-13
1.70661e-13
1.81358e-13
1.92154e-13
2.02987e-13
2.13791e-13
2.24494e-13
2.35023e-13
2.453e-13
2.55247e-13
2.64786e-13
2.73837e-13
2.82324e-13
2.90171e-13
2.97306e-13
3.03662e-13
3.09178e-13
3.13797e-13
3.17474e-13
3.20167e-13
3.21846e-13
3.22491e-13
3.22092e-13
3.20646e-13
3.18166e-13
3.1467e-13
3.10192e-13
3.04772e-13
2.98461e-13
2.91319e-13
2.83414e-13
2.74821e-13
2.65623e-13
2.55907e-13
2.45764e-13
2.35289e-13
2.24579e-13
2.1373e-13
2.02841e-13
1.92007e-13
1.81321e-13
1.70875e-13
1.60755e-13
1.51043e-13
1.41816e-13
1.33145e-13
1.25096e-13
1.17726e-13
1.11088e-13
1.05228e-13
1.00183e-13
9.59867e-14
9.26628e-14
9.02297e-14
8.86986e-14
8.80739e-14
8.83531e-14
8.95269e-14
9.15792e-14
9.44869e-14
9.82197e-14
1.02741e-13
1.08005e-13
1.13963e-13
1.20554e-13
1.27714e-13
1.35371e-13
1.43446e-13
1.51854e-13
1.60505e-13
1.69305e-13
1.78153e-13
1.86949e-13
1.95588e-13
2.03965e-13
2.11977e-13
2.19521e-13
2.265e-13
2.32819e-13
2.38394e-13
2.43145e-13
2.47004e-13
2.49914e-13
2.51827e-13
2.52711e-13
2.52547e-13
2.51328e-13
2.49063e-13
2.45773e-13
2.41493e-13
2.36271e-13
2.30167e-13
2.23251e-13
2.15601e-13
2.07304e-13
1.98453e-13
1.89142e-13
1.79472e-13
1.69539e-13
1.59443e-13
1.49277e-13
1.39132e-13
1.29093e-13
1.19236e-13
1.09633e-13
1.00344e-13
9.14233e-14
8.29143e-14
7.4852e-14
6.72626e-14
6.01637e-14
5.35648e-14
4.74684e-14
4.18701e-14
3.67598e-14
3.21223e-14
2.79384e-14
2.41853e-14
2.08378e-14
1.7869e-14
1.52508e-14
1.29546e-14
1.09519e-14
9.21487e-15
7.71642e-15
6.43084e-15
5.33386e-15
4.40285e-15
3.61695e-15
2.95708e-15
2.406e-15
1.9482e-15
1.56992e-15
1.259e-15
1.00478e-15
7.98029e-16
6.30755e-16
4.96132e-16
3.88353e-16
3.02514e-16
2.34506e-16
1.80905e-16
1.38878e-16
1.06096e-16
8.0658e-17
6.10209e-17
4.59399e-17
3.44177e-17
2.56597e-17
1.9037e-17
1.40547e-17
1.03257e-17
7.54907e-18
5.49213e-18
3.97614e-18
2.86454e-18
2.05363e-18
1.46507e-18
1.04008e-18
7.34764e-19
5.16539e-19
3.61364e-19
2.516e-19
1.74395e-19
1.20451e-19
8.31127e-20
5.76865e-20
4.09412e-20
3.07433e-20
2.57975e-20
5.4906e-20
6.00672e-20
7.14595e-20
8.97747e-20
1.16195e-19
1.52493e-19
2.01166e-19
2.65595e-19
3.50249e-19
4.60942e-19
6.05162e-19
7.92487e-19
1.0351e-18
1.34846e-18
1.75206e-18
2.27049e-18
2.93458e-18
3.78295e-18
4.86375e-18
6.23689e-18
7.97664e-18
1.01749e-17
1.29447e-17
1.64251e-17
2.07864e-17
2.62364e-17
3.3028e-17
4.1468e-17
5.19273e-17
6.48529e-17
8.07819e-17
1.00357e-16
1.24347e-16
1.53662e-16
1.89387e-16
2.32797e-16
2.854e-16
3.4896e-16
4.25541e-16
5.1755e-16
6.27778e-16
7.59455e-16
9.16303e-16
1.1026e-15
1.32322e-15
1.58375e-15
1.89051e-15
2.25063e-15
2.67217e-15
3.16416e-15
3.73665e-15
4.40086e-15
5.16917e-15
6.05523e-15
7.07401e-15
8.24183e-15
9.57643e-15
1.10969e-14
1.28239e-14
1.47793e-14
1.69864e-14
1.94696e-14
2.22549e-14
2.53687e-14
2.88388e-14
3.26931e-14
3.69602e-14
4.16686e-14
4.68465e-14
5.25214e-14
5.87194e-14
6.54654e-14
7.27818e-14
8.06884e-14
8.92018e-14
9.83347e-14
1.08095e-13
1.18486e-13
1.29506e-13
1.41145e-13
1.53388e-13
1.66213e-13
1.79589e-13
1.93477e-13
2.07833e-13
2.226e-13
2.37716e-13
2.53111e-13
2.68704e-13
2.8441e-13
3.00135e-13
3.1578e-13
3.3124e-13
3.46406e-13
3.61165e-13
3.75404e-13
3.89008e-13
4.01862e-13
4.13856e-13
4.24883e-13
4.34839e-13
4.43632e-13
4.51174e-13
4.5739e-13
4.62213e-13
4.65593e-13
4.6749e-13
4.67878e-13
4.66748e-13
4.64105e-13
4.59969e-13
4.54376e-13
4.47376e-13
4.39034e-13
4.29429e-13
4.1865e-13
4.06801e-13
3.93994e-13
3.8035e-13
3.65996e-13
3.51066e-13
3.35698e-13
3.20031e-13
3.04204e-13
2.88356e-13
2.72625e-13
2.57141e-13
2.42033e-13
2.27422e-13
2.13422e-13
2.00139e-13
1.87671e-13
1.76106e-13
1.65525e-13
1.55995e-13
1.47578e-13
1.40324e-13
1.34273e-13
1.29456e-13
1.25892e-13
1.23595e-13
1.22566e-13
1.22796e-13
1.2427e-13
1.2696e-13
1.3083e-13
1.35836e-13
1.41922e-13
1.49024e-13
1.57067e-13
1.6597e-13
1.75638e-13
1.85972e-13
1.96861e-13
2.08189e-13
2.19829e-13
2.31652e-13
2.43522e-13
2.553e-13
2.66844e-13
2.78013e-13
2.88666e-13
2.98666e-13
3.07883e-13
3.16191e-13
3.23477e-13
3.29638e-13
3.34583e-13
3.38237e-13
3.40542e-13
3.41456e-13
3.40957e-13
3.3904e-13
3.35718e-13
3.31025e-13
3.25011e-13
3.17744e-13
3.09305e-13
2.99791e-13
2.8931e-13
2.7798e-13
2.65925e-13
2.53276e-13
2.40164e-13
2.26723e-13
2.13084e-13
1.99371e-13
1.85706e-13
1.722e-13
1.58957e-13
1.46068e-13
1.33616e-13
1.21669e-13
1.10284e-13
9.95066e-14
8.93703e-14
7.9897e-14
7.1098e-14
6.29752e-14
5.55215e-14
4.87223e-14
4.25563e-14
3.69969e-14
3.20131e-14
2.75707e-14
2.3633e-14
2.01622e-14
1.71199e-14
1.44679e-14
1.21687e-14
1.01864e-14
8.48638e-15
7.03643e-15
5.80638e-15
4.76847e-15
3.89735e-15
3.17011e-15
2.56621e-15
2.06737e-15
1.6575e-15
1.32249e-15
1.0501e-15
8.29799e-16
6.52548e-16
5.10679e-16
3.9772e-16
3.08248e-16
2.37746e-16
1.82481e-16
1.39382e-16
1.05946e-16
8.01397e-17
6.03245e-17
4.5188e-17
3.36847e-17
2.49876e-17
1.84457e-17
1.35501e-17
9.90535e-18
7.20565e-18
5.21618e-18
3.75757e-18
2.69362e-18
1.9215e-18
1.36401e-18
9.63542e-19
6.77329e-19
4.73824e-19
3.29885e-19
2.28647e-19
1.57916e-19
1.0896e-19
7.56233e-20
5.36693e-20
4.02996e-20
3.38156e-20
8.98801e-20
9.83246e-20
1.16966e-19
1.46935e-19
1.90164e-19
2.49554e-19
3.29185e-19
4.34585e-19
5.73058e-19
7.54108e-19
9.89973e-19
1.2963e-18
1.69299e-18
2.20529e-18
2.86505e-18
3.7124e-18
4.79769e-18
6.18392e-18
7.94967e-18
1.01927e-17
1.3034e-17
1.66235e-17
2.11456e-17
2.68267e-17
3.39442e-17
4.28366e-17
5.39155e-17
6.76802e-17
8.47341e-17
1.05804e-16
1.31763e-16
1.63656e-16
2.02729e-16
2.50464e-16
3.08616e-16
3.79258e-16
4.6483e-16
5.68191e-16
6.92684e-16
8.42201e-16
1.02126e-15
1.23507e-15
1.48965e-15
1.7919e-15
2.14969e-15
2.572e-15
3.06901e-15
3.65221e-15
4.33453e-15
5.13045e-15
6.05612e-15
7.12949e-15
8.37038e-15
9.80061e-15
1.14441e-14
1.33268e-14
1.5477e-14
1.7925e-14
2.07036e-14
2.38474e-14
2.73933e-14
3.138e-14
3.5848e-14
4.08391e-14
4.63966e-14
5.25644e-14
5.93868e-14
6.6908e-14
7.51715e-14
8.42195e-14
9.40921e-14
1.04827e-13
1.16457e-13
1.29012e-13
1.42515e-13
1.56985e-13
1.72431e-13
1.88855e-13
2.06251e-13
2.24601e-13
2.43878e-13
2.64042e-13
2.85042e-13
3.06816e-13
3.29286e-13
3.52363e-13
3.75945e-13
3.99919e-13
4.24156e-13
4.4852e-13
4.72862e-13
4.97025e-13
5.20844e-13
5.44147e-13
5.6676e-13
5.88506e-13
6.09205e-13
6.28685e-13
6.46773e-13
6.63306e-13
6.7813e-13
6.91103e-13
7.02097e-13
7.10999e-13
7.17716e-13
7.22173e-13
7.24317e-13
7.24117e-13
7.21566e-13
7.1668e-13
7.09498e-13
7.00083e-13
6.88521e-13
6.74919e-13
6.59404e-13
6.42123e-13
6.23239e-13
6.02929e-13
5.81384e-13
5.58803e-13
5.35394e-13
5.11369e-13
4.86942e-13
4.62328e-13
4.37737e-13
4.13376e-13
3.89446e-13
3.66138e-13
3.43633e-13
3.22099e-13
3.01695e-13
2.82563e-13
2.64831e-13
2.48615e-13
2.34014e-13
2.21112e-13
2.09978e-13
2.00667e-13
1.93218e-13
1.87657e-13
1.83993e-13
1.82224e-13
1.82332e-13
1.84286e-13
1.8804e-13
1.93536e-13
2.00701e-13
2.09449e-13
2.1968e-13
2.31281e-13
2.44125e-13
2.58074e-13
2.72975e-13
2.88665e-13
3.0497e-13
3.21706e-13
3.38681e-13
3.55697e-13
3.72549e-13
3.89034e-13
4.04946e-13
4.20083e-13
4.34248e-13
4.47254e-13
4.58923e-13
4.69093e-13
4.77619e-13
4.84376e-13
4.8926e-13
4.9219e-13
4.93112e-13
4.91998e-13
4.88845e-13
4.8368e-13
4.76553e-13
4.67541e-13
4.56746e-13
4.44289e-13
4.30312e-13
4.14972e-13
3.98441e-13
3.809e-13
3.62536e-13
3.43539e-13
3.241e-13
3.04406e-13
2.84637e-13
2.64963e-13
2.45544e-13
2.26525e-13
2.08036e-13
1.90192e-13
1.73089e-13
1.56806e-13
1.41407e-13
1.26935e-13
1.13422e-13
1.0088e-13
8.93109e-14
7.87024e-14
6.90322e-14
6.02684e-14
5.23719e-14
4.52974e-14
3.8995e-14
3.3412e-14
2.84936e-14
2.41848e-14
2.04307e-14
1.71777e-14
1.43742e-14
1.19712e-14
9.9225e-15
8.18528e-15
6.72002e-15
5.49073e-15
4.46486e-15
3.61328e-15
2.91011e-15
2.33254e-15
1.86061e-15
1.47703e-15
1.16689e-15
9.17421e-16
7.17809e-16
5.58918e-16
4.33094e-16
3.33974e-16
2.56292e-16
1.95726e-16
1.48748e-16
1.12498e-16
8.46688e-17
6.34145e-17
4.72648e-17
3.50567e-17
2.58754e-17
1.90057e-17
1.38919e-17
1.01046e-17
7.31399e-18
5.26828e-18
3.77625e-18
2.69357e-18
1.91194e-18
1.3505e-18
9.49283e-19
6.6403e-19
4.62284e-19
3.20399e-19
2.21274e-19
1.5267e-19
1.05956e-19
7.51932e-20
5.64593e-20
4.73738e-20
1.49773e-19
1.63837e-19
1.94887e-19
2.44805e-19
3.16808e-19
4.15721e-19
5.48338e-19
7.23855e-19
9.5443e-19
1.25587e-18
1.64854e-18
2.15846e-18
2.81875e-18
3.67135e-18
4.76924e-18
6.17911e-18
7.98464e-18
1.02905e-17
1.32272e-17
1.69572e-17
2.16814e-17
2.76485e-17
3.51646e-17
4.46054e-17
5.64311e-17
7.12027e-17
8.96028e-17
1.12459e-16
1.4077e-16
1.7574e-16
2.18814e-16
2.71721e-16
3.36523e-16
4.15668e-16
5.12058e-16
6.29117e-16
7.70871e-16
9.42042e-16
1.14814e-15
1.39558e-15
1.69181e-15
2.04541e-15
2.46627e-15
2.96573e-15
3.55674e-15
4.25404e-15
5.07432e-15
6.03643e-15
7.16153e-15
8.47333e-15
9.99825e-15
1.17656e-14
1.38076e-14
1.616e-14
1.88616e-14
2.19547e-14
2.54852e-14
2.95023e-14
3.40589e-14
3.92111e-14
4.50183e-14
5.1543e-14
5.88501e-14
6.7007e-14
7.60825e-14
8.6147e-14
9.72707e-14
1.09524e-13
1.22975e-13
1.3769e-13
1.53732e-13
1.71159e-13
1.90022e-13
2.10364e-13
2.32222e-13
2.5562e-13
2.80569e-13
3.07069e-13
3.35105e-13
3.64644e-13
3.95636e-13
4.28014e-13
4.61691e-13
4.9656e-13
5.32492e-13
5.69341e-13
6.06938e-13
6.45094e-13
6.83605e-13
7.22244e-13
7.60774e-13
7.9894e-13
8.36476e-13
8.7311e-13
9.08562e-13
9.4255e-13
9.74793e-13
1.00502e-12
1.03295e-12
1.05834e-12
1.08096e-12
1.10057e-12
1.11698e-12
1.13004e-12
1.13958e-12
1.14552e-12
1.14777e-12
1.14631e-12
1.14112e-12
1.13224e-12
1.11976e-12
1.10377e-12
1.08443e-12
1.06192e-12
1.03644e-12
1.00823e-12
9.77571e-13
9.44734e-13
9.10028e-13
8.73773e-13
8.36297e-13
7.97934e-13
7.59023e-13
7.19899e-13
6.8089e-13
6.42319e-13
6.04495e-13
5.67711e-13
5.32244e-13
4.98353e-13
4.66275e-13
4.36226e-13
4.08397e-13
3.82958e-13
3.60054e-13
3.39807e-13
3.22316e-13
3.07654e-13
2.95875e-13
2.87007e-13
2.81058e-13
2.78014e-13
2.77839e-13
2.80479e-13
2.85855e-13
2.9387e-13
3.04407e-13
3.17329e-13
3.32477e-13
3.49673e-13
3.68723e-13
3.8941e-13
4.11501e-13
4.34747e-13
4.58882e-13
4.83628e-13
5.08696e-13
5.33787e-13
5.58597e-13
5.8282e-13
6.0615e-13
6.28288e-13
6.48944e-13
6.6784e-13
6.84718e-13
6.99341e-13
7.11498e-13
7.21009e-13
7.27725e-13
7.31534e-13
7.32362e-13
7.30172e-13
7.24969e-13
7.16797e-13
7.05739e-13
6.91914e-13
6.75476e-13
6.56612e-13
6.35533e-13
6.12477e-13
5.877e-13
5.61472e-13
5.34069e-13
5.05774e-13
4.76868e-13
4.47627e-13
4.18313e-13
3.89177e-13
3.60452e-13
3.3235e-13
3.05059e-13
2.78746e-13
2.53548e-13
2.29581e-13
2.06931e-13
1.85664e-13
1.6582e-13
1.47416e-13
1.3045e-13
1.14904e-13
1.00742e-13
8.79159e-14
7.63655e-14
6.60233e-14
5.68151e-14
4.86621e-14
4.14836e-14
3.51977e-14
2.97237e-14
2.49825e-14
2.08983e-14
1.73991e-14
1.4417e-14
1.18893e-14
9.75813e-15
7.97081e-15
6.4798e-15
5.24253e-15
4.22121e-15
3.38259e-15
2.69757e-15
2.14095e-15
1.69102e-15
1.32922e-15
1.03979e-15
8.09468e-16
6.27122e-16
4.83507e-16
3.70979e-16
2.83263e-16
2.15241e-16
1.62761e-16
1.2248e-16
9.17212e-17
6.83537e-17
5.06921e-17
3.74113e-17
2.74758e-17
2.00808e-17
1.46048e-17
1.05703e-17
7.61313e-18
5.45655e-18
3.89181e-18
2.76226e-18
1.95099e-18
1.37129e-18
9.59169e-19
6.67718e-19
4.62758e-19
3.19575e-19
2.20484e-19
1.53014e-19
1.08584e-19
8.15272e-20
6.84055e-20
2.50113e-19
2.73587e-19
3.25416e-19
4.08739e-19
5.28922e-19
6.94015e-19
9.15345e-19
1.20825e-18
1.59301e-18
2.09598e-18
2.7511e-18
3.60176e-18
4.70314e-18
6.12516e-18
7.95607e-18
1.0307e-17
1.33173e-17
1.71612e-17
2.20562e-17
2.82723e-17
3.61443e-17
4.60858e-17
5.86058e-17
7.43293e-17
9.40211e-17
1.18614e-16
1.49242e-16
1.87278e-16
2.34384e-16
2.92557e-16
3.64194e-16
4.52163e-16
5.59883e-16
6.91412e-16
8.51558e-16
1.04599e-15
1.28137e-15
1.56552e-15
1.90754e-15
2.31804e-15
2.8093e-15
3.39551e-15
4.09298e-15
4.92041e-15
5.89914e-15
7.05342e-15
8.41073e-15
1.0002e-14
1.18622e-14
1.403e-14
1.65488e-14
1.94666e-14
2.28363e-14
2.67162e-14
3.11697e-14
3.62658e-14
4.20792e-14
4.86902e-14
5.61845e-14
6.46534e-14
7.4193e-14
8.49041e-14
9.68918e-14
1.10264e-13
1.25133e-13
1.41609e-13
1.59806e-13
1.79835e-13
2.01805e-13
2.2582e-13
2.51978e-13
2.8037e-13
3.11074e-13
3.44157e-13
3.7967e-13
4.17648e-13
4.58104e-13
5.01031e-13
5.46396e-13
5.9414e-13
6.44177e-13
6.96389e-13
7.50628e-13
8.06713e-13
8.64433e-13
9.23541e-13
9.8376e-13
1.04478e-12
1.10627e-12
1.16785e-12
1.22915e-12
1.28974e-12
1.34921e-12
1.40711e-12
1.463e-12
1.51643e-12
1.56694e-12
1.61411e-12
1.65751e-12
1.69675e-12
1.73145e-12
1.76128e-12
1.78593e-12
1.80515e-12
1.81873e-12
1.82652e-12
1.82841e-12
1.82437e-12
1.81442e-12
1.79861e-12
1.7771e-12
1.75007e-12
1.71778e-12
1.68051e-12
1.63862e-12
1.59251e-12
1.5426e-12
1.48935e-12
1.43325e-12
1.37482e-12
1.31458e-12
1.25307e-12
1.1908e-12
1.12832e-12
1.06614e-12
1.00476e-12
9.44658e-13
8.86295e-13
8.30096e-13
7.76456e-13
7.25738e-13
6.78267e-13
6.34333e-13
5.94189e-13
5.58048e-13
5.26087e-13
4.98447e-13
4.7523e-13
4.56504e-13
4.42302e-13
4.32624e-13
4.27434e-13
4.26666e-13
4.30222e-13
4.37973e-13
4.49758e-13
4.65387e-13
4.84639e-13
5.07264e-13
5.32984e-13
5.6149e-13
5.92449e-13
6.25501e-13
6.6026e-13
6.96322e-13
7.3326e-13
7.70635e-13
8.07994e-13
8.44878e-13
8.80824e-13
9.15376e-13
9.48085e-13
9.78517e-13
1.00626e-12
1.03093e-12
1.05219e-12
1.06971e-12
1.08324e-12
1.09257e-12
1.09753e-12
1.09802e-12
1.094e-12
1.08548e-12
1.07254e-12
1.05531e-12
1.03398e-12
1.00878e-12
9.79996e-13
9.47956e-13
9.13017e-13
8.75563e-13
8.35998e-13
7.94741e-13
7.52211e-13
7.08827e-13
6.64998e-13
6.21116e-13
5.77551e-13
5.34645e-13
4.92712e-13
4.52029e-13
4.12836e-13
3.75338e-13
3.39699e-13
3.06045e-13
2.74469e-13
2.45024e-13
2.17736e-13
1.92597e-13
1.69575e-13
1.48616e-13
1.29643e-13
1.12568e-13
9.72865e-14
8.36876e-14
7.16531e-14
6.10619e-14
5.17921e-14
4.3723e-14
3.67372e-14
3.07219e-14
2.55701e-14
2.11815e-14
1.74629e-14
1.43287e-14
1.17011e-14
9.50991e-15
7.69216e-15
6.19214e-15
4.9608e-15
3.95529e-15
3.13848e-15
2.4784e-15
1.94774e-15
1.52335e-15
1.18569e-15
9.18429e-16
7.07981e-16
5.43121e-16
4.14638e-16
3.15019e-16
2.38177e-16
1.79207e-16
1.34185e-16
9.99861e-17
7.41422e-17
5.47116e-17
4.01772e-17
2.93606e-17
2.13519e-17
1.54522e-17
1.11282e-17
7.97527e-18
5.68782e-18
4.0367e-18
2.85095e-18
2.00371e-18
1.40144e-18
9.75551e-19
6.76065e-19
4.66861e-19
3.22086e-19
2.23515e-19
1.58606e-19
1.1908e-19
9.9911e-20
4.16467e-19
4.55533e-19
5.41795e-19
6.80476e-19
8.80496e-19
1.15525e-18
1.52356e-18
2.01096e-18
2.65114e-18
3.48793e-18
4.57776e-18
5.99273e-18
7.82455e-18
1.01894e-17
1.32339e-17
1.71426e-17
2.2147e-17
2.85365e-17
3.66719e-17
4.70016e-17
6.00811e-17
7.65964e-17
9.7392e-17
1.23504e-16
1.56201e-16
1.97028e-16
2.47864e-16
3.10985e-16
3.8914e-16
4.85636e-16
6.04441e-16
7.50297e-16
9.28858e-16
1.14683e-15
1.41216e-15
1.73421e-15
2.12398e-15
2.59436e-15
3.16038e-15
3.83952e-15
4.65201e-15
5.62121e-15
6.77398e-15
8.14105e-15
9.7575e-15
1.16632e-14
1.39032e-14
1.65283e-14
1.95955e-14
2.31685e-14
2.73183e-14
3.21232e-14
3.76697e-14
4.40527e-14
5.13756e-14
5.9751e-14
6.93001e-14
8.01533e-14
9.24496e-14
1.06337e-13
1.2197e-13
1.39513e-13
1.59134e-13
1.81007e-13
2.0531e-13
2.32222e-13
2.61924e-13
2.94592e-13
3.30399e-13
3.69509e-13
4.12074e-13
4.58236e-13
5.08114e-13
5.6181e-13
6.19399e-13
6.80926e-13
7.46406e-13
8.15815e-13
8.89091e-13
9.66128e-13
1.04677e-12
1.13083e-12
1.21805e-12
1.30812e-12
1.4007e-12
1.49538e-12
1.5917e-12
1.68916e-12
1.7872e-12
1.88524e-12
1.98264e-12
2.07874e-12
2.17286e-12
2.26428e-12
2.35231e-12
2.43621e-12
2.51528e-12
2.58884e-12
2.65622e-12
2.7168e-12
2.77e-12
2.8153e-12
2.85224e-12
2.88043e-12
2.89957e-12
2.90943e-12
2.90989e-12
2.90089e-12
2.88248e-12
2.85483e-12
2.81816e-12
2.7728e-12
2.71917e-12
2.65778e-12
2.58918e-12
2.51403e-12
2.43301e-12
2.34688e-12
2.25643e-12
2.16246e-12
2.06581e-12
1.96732e-12
1.86784e-12
1.7682e-12
1.6692e-12
1.57163e-12
1.47623e-12
1.38372e-12
1.29474e-12
1.20991e-12
1.12978e-12
1.05484e-12
9.85519e-13
9.22204e-13
8.65207e-13
8.14784e-13
7.71134e-13
7.34397e-13
7.04661e-13
6.81956e-13
6.66262e-13
6.57509e-13
6.55575e-13
6.60293e-13
6.71446e-13
6.88773e-13
7.11966e-13
7.40674e-13
7.74501e-13
8.13009e-13
8.55718e-13
9.02109e-13
9.51625e-13
1.00367e-12
1.05764e-12
1.11286e-12
1.16868e-12
1.2244e-12
1.27933e-12
1.33277e-12
1.38405e-12
1.43247e-12
1.4774e-12
1.51823e-12
1.55438e-12
1.58534e-12
1.61065e-12
1.62994e-12
1.64289e-12
1.64927e-12
1.64895e-12
1.64187e-12
1.62807e-12
1.60767e-12
1.58088e-12
1.54799e-12
1.50937e-12
1.46545e-12
1.41672e-12
1.36373e-12
1.30706e-12
1.24731e-12
1.18511e-12
1.12109e-12
1.05588e-12
9.90083e-13
9.24282e-13
8.59025e-13
7.94822e-13
7.32133e-13
6.71365e-13
6.12873e-13
5.56954e-13
5.03846e-13
4.53735e-13
4.06748e-13
3.62962e-13
3.22408e-13
2.85071e-13
2.50898e-13
2.19803e-13
1.91672e-13
1.66367e-13
1.43732e-13
1.23598e-13
1.05789e-13
9.01227e-14
7.64169e-14
6.44914e-14
5.41711e-14
4.5288e-14
3.76829e-14
3.12067e-14
2.57212e-14
2.10994e-14
1.72259e-14
1.39967e-14
1.13187e-14
9.10937e-15
7.29632e-15
5.81619e-15
4.61413e-15
3.64297e-15
2.86241e-15
2.23831e-15
1.74187e-15
1.34901e-15
1.03973e-15
7.97492e-16
6.08741e-16
4.62421e-16
3.49575e-16
2.62989e-16
1.96893e-16
1.46694e-16
1.08765e-16
8.02517e-17
5.89263e-17
4.30577e-17
3.13098e-17
2.26566e-17
1.63153e-17
1.16917e-17
8.33769e-18
5.91692e-18
4.17858e-18
2.93661e-18
2.05382e-18
1.42959e-18
9.90671e-19
6.84081e-19
4.71923e-19
3.27481e-19
2.3237e-19
1.74453e-19
1.46365e-19
6.90418e-19
7.55143e-19
8.98082e-19
1.12788e-18
1.4593e-18
1.91453e-18
2.52475e-18
3.33218e-18
4.39264e-18
5.77867e-18
7.58365e-18
9.92691e-18
1.29602e-17
1.68757e-17
2.19159e-17
2.83861e-17
3.66689e-17
4.72429e-17
6.07044e-17
7.77944e-17
9.94306e-17
1.26746e-16
1.61136e-16
2.04311e-16
2.58363e-16
3.25844e-16
4.09853e-16
5.14144e-16
6.43247e-16
8.02615e-16
9.98785e-16
1.23957e-15
1.53427e-15
1.89394e-15
2.33163e-15
2.86275e-15
3.50538e-15
4.2807e-15
5.21339e-15
6.33213e-15
7.67014e-15
9.2657e-15
1.11628e-14
1.34118e-14
1.60702e-14
1.9203e-14
2.2884e-14
2.71962e-14
3.22326e-14
3.80971e-14
4.49052e-14
5.27846e-14
6.1876e-14
7.23334e-14
8.4325e-14
9.80329e-14
1.13654e-13
1.31398e-13
1.51491e-13
1.74171e-13
1.99688e-13
2.28303e-13
2.60289e-13
2.95923e-13
3.3549e-13
3.79276e-13
4.27566e-13
4.80641e-13
5.38773e-13
6.02218e-13
6.71216e-13
7.45983e-13
8.26703e-13
9.13527e-13
1.00656e-12
1.10587e-12
1.21146e-12
1.32328e-12
1.44121e-12
1.56506e-12
1.69458e-12
1.82943e-12
1.96918e-12
2.11334e-12
2.26132e-12
2.41245e-12
2.56599e-12
2.72112e-12
2.87695e-12
3.0325e-12
3.18677e-12
3.3387e-12
3.48718e-12
3.63108e-12
3.76928e-12
3.90064e-12
4.02403e-12
4.13838e-12
4.24266e-12
4.33588e-12
4.41715e-12
4.48567e-12
4.54074e-12
4.58179e-12
4.60835e-12
4.62011e-12
4.6169e-12
4.59869e-12
4.5656e-12
4.51791e-12
4.45602e-12
4.3805e-12
4.29205e-12
4.19149e-12
4.07974e-12
3.95786e-12
3.82695e-12
3.68823e-12
3.54295e-12
3.3924e-12
3.23791e-12
3.08081e-12
2.92242e-12
2.76405e-12
2.60695e-12
2.45236e-12
2.30141e-12
2.15521e-12
2.01477e-12
1.881e-12
1.75476e-12
1.63678e-12
1.52773e-12
1.42815e-12
1.33851e-12
1.25918e-12
1.19044e-12
1.13248e-12
1.08541e-12
1.04924e-12
1.02392e-12
1.00931e-12
1.00519e-12
1.01129e-12
1.02725e-12
1.05264e-12
1.08696e-12
1.12968e-12
1.18014e-12
1.23769e-12
1.30156e-12
1.37095e-12
1.44501e-12
1.52282e-12
1.60344e-12
1.68588e-12
1.76911e-12
1.8521e-12
1.9338e-12
2.01316e-12
2.08915e-12
2.16076e-12
2.22702e-12
2.28702e-12
2.33993e-12
2.38497e-12
2.42149e-12
2.44893e-12
2.46683e-12
2.47487e-12
2.47287e-12
2.46076e-12
2.43861e-12
2.40663e-12
2.36515e-12
2.31461e-12
2.25558e-12
2.18872e-12
2.11478e-12
2.03457e-12
1.94898e-12
1.85891e-12
1.7653e-12
1.66909e-12
1.57121e-12
1.47258e-12
1.37404e-12
1.27642e-12
1.18047e-12
1.08687e-12
9.96207e-13
9.09011e-13
8.25714e-13
7.46663e-13
6.72121e-13
6.02274e-13
5.37226e-13
4.77015e-13
4.21612e-13
3.70933e-13
3.24844e-13
2.83168e-13
2.45698e-13
2.12197e-13
1.82413e-13
1.56079e-13
1.32924e-13
1.12674e-13
9.50622e-14
7.98266e-14
6.67176e-14
5.54988e-14
4.59485e-14
3.7862e-14
3.10509e-14
2.53443e-14
2.05883e-14
1.66453e-14
1.33933e-14
1.07254e-14
8.54785e-15
6.77987e-15
5.35184e-15
4.20436e-15
3.28707e-15
2.55758e-15
1.98042e-15
1.52613e-15
1.17039e-15
8.93254e-16
6.78451e-16
5.12816e-16
3.85747e-16
2.88762e-16
2.15116e-16
1.59477e-16
1.17657e-16
8.63824e-17
6.31139e-17
4.58894e-17
3.32039e-17
2.39085e-17
1.71317e-17
1.22162e-17
8.66869e-18
6.12149e-18
4.30178e-18
3.00841e-18
2.09394e-18
1.45097e-18
1.00188e-18
6.91126e-19
4.7957e-19
3.40271e-19
2.55448e-19
2.14311e-19
1.13905e-18
1.24577e-18
1.48148e-18
1.86041e-18
2.40692e-18
3.15752e-18
4.16362e-18
5.49478e-18
7.24294e-18
9.52761e-18
1.25026e-17
1.63643e-17
2.13628e-17
2.78143e-17
3.61181e-17
4.67766e-17
6.04194e-17
7.78338e-17
1.00001e-16
1.28139e-16
1.63757e-16
2.08719e-16
2.65315e-16
3.36358e-16
4.25285e-16
5.36285e-16
6.74446e-16
8.45931e-16
1.05817e-15
1.32012e-15
1.64248e-15
2.03807e-15
2.52213e-15
3.11276e-15
3.83134e-15
4.70309e-15
5.75759e-15
7.02945e-15
8.55905e-15
1.03932e-14
1.25862e-14
1.52005e-14
1.83079e-14
2.19905e-14
2.63417e-14
3.14677e-14
3.74885e-14
4.45389e-14
5.27701e-14
6.23508e-14
7.34682e-14
8.63295e-14
1.01162e-13
1.18216e-13
1.37762e-13
1.60095e-13
1.85532e-13
2.14411e-13
2.47095e-13
2.83966e-13
3.25425e-13
3.71892e-13
4.238e-13
4.81593e-13
5.45724e-13
6.16646e-13
6.9481e-13
7.80659e-13
8.7462e-13
9.77093e-13
1.08845e-12
1.20902e-12
1.33909e-12
1.47888e-12
1.62854e-12
1.78815e-12
1.9577e-12
2.13708e-12
2.32608e-12
2.52437e-12
2.73152e-12
2.94695e-12
3.16997e-12
3.39974e-12
3.63532e-12
3.87561e-12
4.11939e-12
4.36534e-12
4.61201e-12
4.85786e-12
5.10126e-12
5.34051e-12
5.57384e-12
5.79948e-12
6.01563e-12
6.22049e-12
6.4123e-12
6.58938e-12
6.75009e-12
6.89294e-12
7.01655e-12
7.11967e-12
7.20126e-12
7.26046e-12
7.29658e-12
7.30921e-12
7.2981e-12
7.2633e-12
7.20504e-12
7.12382e-12
7.02036e-12
6.89559e-12
6.75066e-12
6.58692e-12
6.40588e-12
6.20922e-12
5.99874e-12
5.77637e-12
5.54409e-12
5.30396e-12
5.05807e-12
4.80852e-12
4.55736e-12
4.30665e-12
4.05834e-12
3.81433e-12
3.5764e-12
3.34622e-12
3.12535e-12
2.91519e-12
2.71702e-12
2.53196e-12
2.36099e-12
2.20492e-12
2.06444e-12
1.94007e-12
1.83221e-12
1.7411e-12
1.66687e-12
1.60949e-12
1.56885e-12
1.54468e-12
1.53663e-12
1.54422e-12
1.56687e-12
1.60389e-12
1.65451e-12
1.71784e-12
1.7929e-12
1.87862e-12
1.97385e-12
2.07735e-12
2.18781e-12
2.30382e-12
2.42395e-12
2.54668e-12
2.67047e-12
2.79376e-12
2.91497e-12
3.03251e-12
3.14485e-12
3.25048e-12
3.34796e-12
3.43594e-12
3.51318e-12
3.57855e-12
3.63108e-12
3.66995e-12
3.69453e-12
3.70435e-12
3.69916e-12
3.67889e-12
3.64367e-12
3.59383e-12
3.52989e-12
3.45255e-12
3.36266e-12
3.26122e-12
3.14937e-12
3.02833e-12
2.89943e-12
2.76403e-12
2.62352e-12
2.47931e-12
2.3328e-12
2.1853e-12
2.03812e-12
1.89245e-12
1.7494e-12
1.60997e-12
1.47503e-12
1.34535e-12
1.22156e-12
1.10415e-12
9.93522e-13
8.89922e-13
7.935e-13
7.043e-13
6.22269e-13
5.47273e-13
4.79103e-13
4.17493e-13
3.62125e-13
3.12647e-13
2.68677e-13
2.29818e-13
1.95663e-13
1.65806e-13
1.39849e-13
1.17402e-13
9.80958e-14
8.15787e-14
6.75232e-14
5.56256e-14
4.56079e-14
3.72172e-14
3.02262e-14
2.44319e-14
1.96545e-14
1.5736e-14
1.25387e-14
9.94332e-15
7.8475e-15
6.16381e-15
4.81817e-15
3.74825e-15
2.90193e-15
2.2359e-15
1.71446e-15
1.3083e-15
9.93549e-16
7.50886e-16
5.64754e-16
4.2271e-16
3.14865e-16
2.334e-16
1.72176e-16
1.26397e-16
9.23407e-17
6.71337e-17
4.85711e-17
3.49707e-17
2.50564e-17
1.78657e-17
1.26767e-17
8.95119e-18
6.2899e-18
4.39852e-18
3.06132e-18
2.12119e-18
1.46458e-18
1.01027e-18
7.00984e-19
4.97346e-19
3.73349e-19
3.13214e-19
1.86994e-18
2.04503e-18
2.43179e-18
3.05357e-18
3.95027e-18
5.18179e-18
6.83239e-18
9.01614e-18
1.18837e-17
1.5631e-17
2.05101e-17
2.6843e-17
3.50391e-17
4.56167e-17
5.92298e-17
7.67009e-17
9.90614e-17
1.276e-16
1.63922e-16
2.10022e-16
2.68369e-16
3.42011e-16
4.34695e-16
5.51018e-16
6.966e-16
8.78287e-16
1.10439e-15
1.38498e-15
1.73219e-15
2.16062e-15
2.68776e-15
3.3345e-15
4.12571e-15
5.09088e-15
6.26487e-15
7.68872e-15
9.41062e-15
1.14869e-14
1.39833e-14
1.69758e-14
2.05527e-14
2.48155e-14
2.98807e-14
3.58814e-14
4.29693e-14
5.13164e-14
6.11169e-14
7.2589e-14
8.59773e-14
1.01554e-13
1.19623e-13
1.40516e-13
1.64601e-13
1.92281e-13
2.23991e-13
2.60204e-13
3.01429e-13
3.4821e-13
4.01127e-13
4.60789e-13
5.27839e-13
6.02944e-13
6.86794e-13
7.80094e-13
8.8356e-13
9.9791e-13
1.12385e-12
1.26208e-12
1.41327e-12
1.57803e-12
1.75695e-12
1.95052e-12
2.15917e-12
2.38323e-12
2.62291e-12
2.87831e-12
3.14937e-12
3.43588e-12
3.73747e-12
4.05357e-12
4.38345e-12
4.72615e-12
5.08053e-12
5.44523e-12
5.81867e-12
6.19911e-12
6.58456e-12
6.97289e-12
7.36177e-12
7.74874e-12
8.13118e-12
8.5064e-12
8.87161e-12
9.22398e-12
9.56067e-12
9.87887e-12
1.01758e-11
1.04489e-11
1.06956e-11
1.09135e-11
1.11006e-11
1.12549e-11
1.1375e-11
1.14594e-11
1.15073e-11
1.1518e-11
1.14913e-11
1.14273e-11
1.13265e-11
1.11897e-11
1.10182e-11
1.08136e-11
1.05776e-11
1.03126e-11
1.00209e-11
9.70522e-12
9.36849e-12
9.01372e-12
8.64407e-12
8.26278e-12
7.87315e-12
7.47843e-12
7.08186e-12
6.68662e-12
6.29574e-12
5.91214e-12
5.53858e-12
5.17761e-12
4.8316e-12
4.50268e-12
4.19279e-12
3.90359e-12
3.63655e-12
3.39286e-12
3.17351e-12
2.97926e-12
2.81064e-12
2.66797e-12
2.55137e-12
2.46075e-12
2.39585e-12
2.35623e-12
2.34127e-12
2.35018e-12
2.38204e-12
2.43574e-12