/*--------------------------------*- C++ -*----------------------------------*\
| =========                 |                                                 |
| \\      /  F ield         | OpenFOAM: The Open Source CFD Toolbox           |
|  \\    /   O peration     | Version:  v2012                                 |
|   \\  /    A nd           | Website:  www.openfoam.com                      |
|    \\/     M anipulation  |                                                 |
\*---------------------------------------------------------------------------*/
FoamFile
{
    version     2.0;
    format      ascii;
    class       volVectorField;
    location    "0";
    object      uRec;
}
// * * * * * * * * * * * * * * * * * * * * * * * * * * * * * * * * * * * * * //

dimensions      [0 1 -1 0 0 0 0];


internalField   nonuniform List<vector> 
4000
(
(1 8.09623e-16 0)
(1 1.19012e-16 0)
(1 -6.60305e-16 0)
(1 1.55701e-16 0)
(1 2.93092e-17 0)
(1 3.13527e-16 0)
(1 5.38097e-16 0)
(1 3.10739e-16 0)
(1 1.93147e-15 0)
(1 -1.04544e-15 0)
(1 -1.25333e-15 0)
(1 2.92449e-16 0)
(1 9.35681e-16 0)
(1 7.42815e-16 0)
(1 3.31273e-16 0)
(1 6.51949e-16 0)
(1 -1.31804e-16 0)
(1 -4.52316e-16 0)
(1 9.60661e-16 0)
(1 5.03097e-16 0)
(1 2.29096e-16 0)
(1 -1.02415e-15 0)
(1 -9.54131e-16 0)
(1 -2.33806e-16 0)
(1 -3.76942e-16 0)
(1 -1.64498e-16 0)
(1 2.24859e-16 0)
(1 6.71046e-17 0)
(1 7.71317e-16 0)
(1 7.14362e-16 0)
(1 1.44456e-15 0)
(1 4.75933e-16 0)
(1 -3.47828e-16 0)
(1 -2.75834e-16 0)
(1 -2.03205e-16 0)
(1 -1.98135e-16 0)
(1 1.92093e-16 0)
(1 1.16352e-15 0)
(1 -7.4028e-17 0)
(1 -7.58394e-16 0)
(1 -1.46602e-16 0)
(1 -6.12507e-16 0)
(1 -3.11467e-16 0)
(1 1.34257e-15 0)
(1 4.32968e-16 0)
(1 -3.10263e-16 0)
(1 1.67416e-16 0)
(1 3.75398e-16 0)
(1 2.85031e-16 0)
(1 2.66309e-17 0)
(1 7.11088e-16 0)
(1 6.47191e-16 0)
(1 1.19561e-15 0)
(1 1.28471e-15 0)
(1 1.3e-15 0)
(1 9.00831e-16 0)
(1 2.24699e-16 0)
(1 1.03526e-17 0)
(1 -3.48284e-16 0)
(1 -9.31714e-17 0)
(1 -4.48779e-16 0)
(1 2.30063e-17 0)
(1 2.67195e-16 0)
(1 4.84423e-16 0)
(1 -2.33379e-16 0)
(1 2.53161e-16 0)
(1 -4.56389e-16 0)
(1 5.24947e-16 0)
(1 -1.0927e-17 0)
(1 -2.90232e-16 0)
(1 -4.94555e-16 0)
(1 3.18226e-16 0)
(1 -4.61342e-16 0)
(1 -5.38898e-16 0)
(1 -1.07606e-15 0)
(1 -5.93558e-16 0)
(1 -2.18005e-16 0)
(1 1.25643e-16 0)
(1 2.03443e-16 0)
(1 3.8335e-16 0)
(1 2.83252e-16 0)
(1 4.89822e-16 0)
(1 -1.7115e-16 0)
(1 -2.35684e-16 0)
(1 -9.40604e-16 0)
(1 -4.56624e-16 0)
(1 1.11963e-15 0)
(1 9.63475e-16 0)
(1 2.17191e-16 0)
(1 1.2555e-15 0)
(1 1.94671e-16 0)
(1 4.75586e-16 0)
(1 8.4376e-17 0)
(1 2.25946e-16 0)
(1 -2.03233e-16 0)
(1 2.8817e-16 0)
(1 3.65034e-16 0)
(1 -1.36936e-16 0)
(1 -5.3897e-16 0)
(1 -5.14504e-16 0)
(1 8.59809e-16 0)
(1 3.24133e-16 0)
(1 -2.23511e-16 0)
(1 4.52819e-16 0)
(1 9.3316e-17 0)
(1 3.21677e-16 0)
(1 8.93002e-16 0)
(1 5.9092e-16 0)
(1 2.45435e-15 0)
(1 3.2012e-16 0)
(1 -6.14375e-17 0)
(1 -1.02194e-16 0)
(1 9.46942e-16 0)
(1 4.29535e-16 0)
(1 4.36056e-16 0)
(1 1.72082e-15 0)
(1 4.11624e-16 0)
(1 -3.05349e-16 0)
(1 8.53744e-16 0)
(1 4.09347e-16 0)
(1 1.29859e-15 0)
(1 -8.50388e-16 0)
(1 -5.74729e-16 0)
(1 -2.73038e-16 0)
(1 -1.53312e-16 0)
(1 -6.89799e-17 0)
(1 2.49005e-16 0)
(1 -6.11436e-16 0)
(1 9.68737e-16 0)
(1 6.07786e-16 0)
(1 9.84959e-16 0)
(1 5.75446e-16 0)
(1 -6.81478e-16 0)
(1 3.79952e-16 0)
(1 8.42816e-16 0)
(1 3.44723e-16 0)
(1 7.95904e-16 0)
(1 1.5982e-15 0)
(1 -1.19353e-15 0)
(1 -1.40482e-15 0)
(1 -1.07987e-15 0)
(1 -6.42731e-16 0)
(1 2.7689e-16 0)
(1 1.84551e-15 0)
(1 1.28286e-15 0)
(1 4.94295e-16 0)
(1 9.54506e-16 0)
(1 1.34257e-15 0)
(1 1.44264e-15 0)
(1 1.20437e-15 0)
(1 9.41117e-16 0)
(1 4.74726e-16 0)
(1 8.44491e-16 0)
(1 1.19899e-15 0)
(1 1.38544e-15 0)
(1 8.51616e-16 0)
(1 9.00804e-16 0)
(1 1.13763e-15 0)
(1 5.99672e-16 0)
(1 2.32908e-16 0)
(1 1.04365e-15 0)
(1 5.65352e-16 0)
(1 8.25116e-16 0)
(1 8.8367e-16 0)
(1 7.87292e-17 0)
(1 2.60952e-16 0)
(1 -8.59909e-16 0)
(1 4.58863e-17 0)
(1 3.73071e-16 0)
(1 -3.30473e-16 0)
(1 -1.9797e-17 0)
(1 2.48035e-16 0)
(1 9.69037e-16 0)
(1 3.48635e-16 0)
(1 4.26785e-16 0)
(1 -3.99812e-17 0)
(1 4.00962e-16 0)
(1 8.15198e-16 0)
(1 8.14694e-16 0)
(1 1.71087e-15 0)
(1 9.98445e-16 0)
(1 3.61878e-16 0)
(1 9.18161e-17 0)
(1 -2.54727e-16 0)
(1 -9.42358e-16 0)
(1 -3.12916e-16 0)
(1 3.86233e-16 0)
(1 1.36268e-15 0)
(1 5.49589e-17 0)
(1 1.29813e-15 0)
(1 3.02177e-16 0)
(1 3.28656e-16 0)
(1 8.52849e-17 0)
(1 7.74293e-16 0)
(1 -5.76652e-16 0)
(1 9.95227e-16 0)
(1 4.81541e-16 0)
(1 -4.57281e-16 0)
(1 -7.57299e-16 0)
(1 -9.84807e-16 0)
(1 -3.09838e-16 0)
(1 1.02335e-15 0)
(1 -8.92636e-16 0)
(1 7.29485e-16 0)
(1 1.42924e-17 0)
(1 7.51714e-16 0)
(1 1.30387e-15 0)
(1 2.28874e-15 0)
(1 8.86484e-16 0)
(1 1.07913e-15 0)
(1 1.3229e-15 0)
(1 1.43636e-15 0)
(1 1.20258e-15 0)
(1 2.05072e-15 0)
(1 1.09309e-15 0)
(1 1.06082e-15 0)
(1 6.0785e-16 0)
(1 1.63274e-15 0)
(1 -2.29425e-16 0)
(1 8.17921e-16 0)
(1 9.50091e-16 0)
(1 4.74387e-17 0)
(1 -1.25374e-16 0)
(1 -2.37971e-16 0)
(1 1.48256e-15 0)
(1 5.59855e-16 0)
(1 1.58798e-15 0)
(1 -3.41069e-16 0)
(1 1.29083e-15 0)
(1 8.94564e-16 0)
(1 3.12559e-16 0)
(1 1.8884e-16 0)
(1 1.42625e-16 0)
(1 7.92392e-16 0)
(1 7.13157e-16 0)
(1 1.28791e-15 0)
(1 5.92031e-16 0)
(1 1.80984e-15 0)
(1 5.40519e-16 0)
(1 -1.45386e-15 0)
(1 -6.12805e-16 0)
(1 -6.61015e-16 0)
(1 2.10191e-16 0)
(1 4.6279e-16 0)
(1 1.10238e-15 0)
(1 1.10732e-15 0)
(1 2.58158e-15 0)
(1 2.58534e-15 0)
(1 1.85573e-15 0)
(1 1.54355e-15 0)
(1 2.49539e-15 0)
(1 1.44853e-15 0)
(1 1.6349e-15 0)
(1 1.05371e-15 0)
(1 1.61969e-15 0)
(1 2.05798e-15 0)
(1 2.04926e-15 0)
(1 2.28816e-15 0)
(1 2.26658e-15 0)
(1 7.18891e-16 0)
(1 6.2645e-16 0)
(1 5.47569e-16 0)
(1 6.41413e-16 0)
(1 4.40885e-16 0)
(1 5.73334e-16 0)
(1 3.52198e-16 0)
(1 8.93163e-18 0)
(1 2.60478e-16 0)
(1 1.06471e-15 0)
(1 2.68364e-16 0)
(1 3.99058e-16 0)
(1 -7.01715e-16 0)
(1 -3.59538e-16 0)
(1 -8.34329e-17 0)
(1 6.87337e-16 0)
(1 -3.75404e-17 0)
(1 4.94519e-16 0)
(1 -1.92909e-16 0)
(1 9.0452e-16 0)
(1 4.08529e-16 0)
(1 9.38709e-16 0)
(1 2.48624e-16 0)
(1 4.66138e-16 0)
(1 2.30871e-16 0)
(1 2.85436e-16 0)
(1 7.05633e-16 0)
(1 9.1374e-17 0)
(1 1.48149e-15 0)
(1 2.82873e-16 0)
(1 1.0692e-15 0)
(1 -2.07714e-17 0)
(1 6.89284e-16 0)
(1 1.06758e-16 0)
(1 1.06652e-15 0)
(1 3.08878e-17 0)
(1 1.1246e-15 0)
(1 2.37401e-16 0)
(1 -6.45576e-16 0)
(1 -2.56664e-16 0)
(1 -8.08e-16 0)
(1 3.78974e-16 0)
(1 -2.72026e-16 0)
(1 -7.34727e-16 0)
(1 -9.68156e-16 0)
(1 2.19296e-15 0)
(1 1.59078e-15 0)
(1 2.90683e-15 0)
(1 2.2277e-15 0)
(1 1.11701e-15 0)
(1 5.21615e-16 0)
(1 8.20593e-16 0)
(1 1.86641e-15 0)
(1 8.40585e-16 0)
(1 3.38688e-15 0)
(1 3.06783e-15 0)
(1 7.28477e-16 0)
(1 1.58661e-15 0)
(1 1.30748e-15 0)
(1 3.266e-16 0)
(1 1.59425e-15 0)
(1 4.55084e-16 0)
(1 1.20652e-15 0)
(1 3.49742e-16 0)
(1 1.08819e-15 0)
(1 2.36968e-15 0)
(1 1.26445e-15 0)
(1 2.24022e-15 0)
(1 4.44586e-16 0)
(1 2.32584e-15 0)
(1 7.7856e-16 0)
(1 1.272e-15 0)
(1 3.5644e-17 0)
(1 7.91549e-17 0)
(1 -7.90152e-16 0)
(1 -5.87908e-16 0)
(1 1.78276e-16 0)
(1 2.91638e-16 0)
(1 3.07281e-16 0)
(1 1.87635e-15 0)
(1 1.50181e-16 0)
(1 1.56178e-15 0)
(1 5.24429e-16 0)
(1 3.37617e-16 0)
(1 1.08329e-15 0)
(1 1.39562e-15 0)
(1 2.24777e-15 0)
(1 2.63173e-15 0)
(1 3.2627e-15 0)
(1 2.47476e-15 0)
(1 2.0783e-15 0)
(1 3.03681e-15 0)
(1 2.55565e-15 0)
(1 2.37408e-15 0)
(1 1.961e-15 0)
(1 2.50049e-15 0)
(1 2.96083e-15 0)
(1 2.82961e-15 0)
(1 2.21488e-15 0)
(1 2.47622e-15 0)
(1 1.90213e-15 0)
(1 1.49686e-15 0)
(1 3.13933e-17 0)
(1 5.39595e-16 0)
(1 1.09885e-15 0)
(1 8.52893e-16 0)
(1 8.62922e-16 0)
(1 7.61513e-16 0)
(1 6.04212e-16 0)
(1 -1.58289e-17 0)
(1 -4.26579e-16 0)
(1 -3.17848e-16 0)
(1 -1.01679e-15 0)
(1 -9.20299e-16 0)
(1 -6.30768e-16 0)
(1 1.97194e-16 0)
(1 1.30835e-15 0)
(1 1.56113e-15 0)
(1 7.44869e-16 0)
(1 1.74447e-15 0)
(1 1.3191e-16 0)
(1 3.74861e-16 0)
(1 1.35583e-15 0)
(1 -2.0629e-18 0)
(1 5.66076e-16 0)
(1 5.76448e-16 0)
(1 6.66797e-16 0)
(1 2.1303e-15 0)
(1 1.32708e-15 0)
(1 1.706e-15 0)
(1 1.44762e-15 0)
(1 5.92149e-16 0)
(1 1.43367e-15 0)
(1 8.91353e-16 0)
(1 1.18467e-15 0)
(1 3.44314e-16 0)
(1 1.91366e-16 0)
(1 -1.47782e-16 0)
(1 -8.52272e-17 0)
(1 -1.29009e-15 0)
(1 -1.2425e-15 0)
(1 1.04114e-15 0)
(1 -3.02009e-16 0)
(1 1.39852e-15 0)
(1 4.34183e-17 0)
(1 2.53325e-15 0)
(1 1.64324e-15 0)
(1 1.21377e-15 0)
(1 3.87923e-16 0)
(1 1.35616e-15 0)
(1 1.55786e-15 0)
(1 2.26476e-15 0)
(1 2.81792e-15 0)
(1 2.23647e-15 0)
(1 1.73308e-15 0)
(1 2.70222e-15 0)
(1 2.19781e-15 0)
(1 2.5918e-15 0)
(1 2.89088e-16 0)
(1 2.03594e-16 0)
(1 -2.22638e-16 0)
(1 1.14919e-15 0)
(1 2.37968e-15 0)
(1 2.41225e-15 0)
(1 1.61659e-15 0)
(1 5.39416e-16 0)
(1 8.88747e-16 0)
(1 4.26409e-16 0)
(1 1.3716e-15 0)
(1 1.55433e-15 0)
(1 7.63188e-16 0)
(1 2.47133e-16 0)
(1 1.09009e-15 0)
(1 -2.83524e-17 0)
(1 1.58301e-15 0)
(1 -1.66259e-16 0)
(1 -3.77848e-16 0)
(1 5.95394e-16 0)
(1 -6.91937e-16 0)
(1 9.30445e-16 0)
(1 1.21512e-15 0)
(1 1.4e-15 0)
(1 1.66291e-16 0)
(1 -4.76008e-17 0)
(1 5.40347e-16 0)
(1 1.22987e-15 0)
(1 3.2856e-15 0)
(1 2.33918e-15 0)
(1 4.18516e-15 0)
(1 3.92241e-15 0)
(1 3.82913e-15 0)
(1 2.15217e-15 0)
(1 2.36398e-15 0)
(1 2.03248e-15 0)
(1 2.81297e-15 0)
(1 2.90961e-15 0)
(1 2.29179e-15 0)
(1 3.08319e-15 0)
(1 2.47761e-15 0)
(1 2.60006e-15 0)
(1 3.23099e-15 0)
(1 3.23406e-15 0)
(1 9.81594e-16 0)
(1 1.59276e-15 0)
(1 1.20245e-15 0)
(1 2.00819e-15 0)
(1 2.10074e-15 0)
(1 2.31035e-15 0)
(1 8.83064e-16 0)
(1 -2.93741e-16 0)
(1 3.90225e-16 0)
(1 -4.49428e-16 0)
(1 -1.96696e-16 0)
(1 9.32106e-16 0)
(1 1.25683e-16 0)
(1 7.32873e-16 0)
(1 9.23462e-16 0)
(1 1.30392e-15 0)
(1 1.49667e-15 0)
(1 1.19477e-15 0)
(1 1.62376e-15 0)
(1 4.08088e-16 0)
(1 7.06698e-16 0)
(1 -5.21211e-18 0)
(1 6.66945e-16 0)
(1 1.51075e-15 0)
(1 1.53785e-15 0)
(1 1.91885e-15 0)
(1 9.97429e-16 0)
(1 2.01981e-15 0)
(1 6.9855e-16 0)
(1 1.84415e-15 0)
(1 1.08635e-15 0)
(1 1.6832e-15 0)
(1 1.31057e-15 0)
(1 1.53567e-15 0)
(1 2.11174e-16 0)
(1 -4.17307e-16 0)
(1 3.19103e-16 0)
(1 -5.30684e-16 0)
(1 -3.73837e-18 0)
(1 -4.69827e-19 0)
(1 7.95685e-16 0)
(1 2.33296e-15 0)
(1 2.13646e-15 0)
(1 1.31111e-15 0)
(1 8.9742e-16 0)
(1 -2.78428e-16 0)
(1 1.06166e-15 0)
(1 1.21158e-15 0)
(1 2.08627e-15 0)
(1 2.44459e-15 0)
(1 3.82642e-15 0)
(1 3.38332e-15 0)
(1 1.6052e-15 0)
(1 2.03696e-15 0)
(1 2.77074e-15 0)
(1 2.09407e-15 0)
(1 1.7336e-15 0)
(1 9.09537e-16 0)
(1 -4.44239e-16 0)
(1 1.54393e-15 0)
(1 2.87804e-15 0)
(1 4.12845e-15 0)
(1 2.02515e-15 0)
(1 1.42658e-15 0)
(1 3.27037e-16 0)
(1 -2.49122e-16 0)
(1 1.95943e-15 0)
(1 -7.50171e-16 0)
(1 1.48823e-15 0)
(1 -4.16793e-16 0)
(1 1.9232e-15 0)
(1 3.67491e-16 0)
(1 2.41261e-15 0)
(1 3.73996e-16 0)
(1 1.01595e-15 0)
(1 1.7624e-15 0)
(1 1.42224e-15 0)
(1 -9.70476e-17 0)
(1 2.62326e-16 0)
(1 2.30794e-16 0)
(1 1.16207e-15 0)
(1 1.26671e-15 0)
(1 1.34091e-15 0)
(1 3.22698e-15 0)
(1 2.88907e-15 0)
(1 3.2683e-15 0)
(1 3.25499e-15 0)
(1 3.7334e-15 0)
(1 3.52913e-15 0)
(1 2.9375e-15 0)
(1 3.20103e-15 0)
(1 3.08237e-15 0)
(1 3.2199e-15 0)
(1 3.13628e-15 0)
(1 3.44667e-15 0)
(1 3.58621e-15 0)
(1 3.54176e-15 0)
(1 3.86267e-15 0)
(1 4.34748e-15 0)
(1 2.36252e-15 0)
(1 2.10413e-15 0)
(1 9.2372e-16 0)
(1 9.36956e-16 0)
(1 2.32631e-15 0)
(1 2.83427e-15 0)
(1 2.89077e-15 0)
(1 1.95747e-15 0)
(1 2.0346e-15 0)
(1 2.03413e-15 0)
(1 1.86812e-15 0)
(1 1.3383e-15 0)
(1 9.38551e-16 0)
(1 3.8174e-16 0)
(1 2.64541e-16 0)
(1 5.69945e-17 0)
(1 4.69629e-16 0)
(1 7.7276e-16 0)
(1 8.4048e-17 0)
(1 2.19038e-15 0)
(1 1.79108e-15 0)
(1 1.79975e-15 0)
(1 1.6581e-15 0)
(1 1.4969e-15 0)
(1 2.37457e-16 0)
(1 5.15667e-16 0)
(1 2.0862e-16 0)
(1 4.40574e-16 0)
(1 7.93809e-16 0)
(1 1.02207e-15 0)
(1 1.70095e-15 0)
(1 1.63105e-15 0)
(1 1.93025e-15 0)
(1 1.64098e-15 0)
(1 2.62272e-15 0)
(1 1.16772e-15 0)
(1 9.33595e-16 0)
(1 2.57495e-16 0)
(1 1.50095e-15 0)
(1 1.48671e-15 0)
(1 -8.01137e-17 0)
(1 4.42187e-16 0)
(1 2.26236e-15 0)
(1 1.55902e-15 0)
(1 1.62204e-15 0)
(1 1.12101e-15 0)
(1 2.59948e-15 0)
(1 3.49921e-15 0)
(1 2.06843e-15 0)
(1 2.77762e-15 0)
(1 1.41686e-15 0)
(1 2.33722e-15 0)
(1 1.72654e-15 0)
(1 3.00951e-15 0)
(1 2.01004e-15 0)
(1 2.68881e-15 0)
(1 1.95902e-15 0)
(1 2.12969e-15 0)
(1 1.80554e-15 0)
(1 2.93701e-15 0)
(1 1.65469e-15 0)
(1 1.85004e-15 0)
(1 1.45403e-15 0)
(1 -5.05781e-16 0)
(1 1.61031e-15 0)
(1 -3.12981e-16 0)
(1 1.06018e-15 0)
(1 1.06959e-15 0)
(1 8.73326e-16 0)
(1 1.19303e-15 0)
(1 1.92826e-15 0)
(1 1.3569e-15 0)
(1 1.45485e-15 0)
(1 -4.32708e-16 0)
(1 2.46148e-16 0)
(1 1.31944e-15 0)
(1 3.54295e-16 0)
(1 1.82853e-15 0)
(1 2.99449e-16 0)
(1 2.53226e-15 0)
(1 1.08501e-15 0)
(1 2.582e-15 0)
(1 2.40312e-15 0)
(1 2.64364e-15 0)
(1 3.19819e-15 0)
(1 2.89592e-15 0)
(1 3.44909e-15 0)
(1 2.07098e-15 0)
(1 4.39531e-15 0)
(1 3.21519e-15 0)
(1 3.61091e-15 0)
(1 3.45954e-15 0)
(1 3.44223e-15 0)
(1 3.22611e-15 0)
(1 2.90647e-15 0)
(1 3.73295e-15 0)
(1 4.6258e-15 0)
(1 4.22954e-15 0)
(1 3.88022e-15 0)
(1 3.73856e-15 0)
(1 3.05557e-15 0)
(1 3.65979e-15 0)
(1 2.2995e-15 0)
(1 2.3619e-15 0)
(1 1.64608e-15 0)
(1 1.36509e-15 0)
(1 1.41193e-15 0)
(1 2.08435e-15 0)
(1 1.80239e-15 0)
(1 1.03736e-15 0)
(1 2.295e-15 0)
(1 1.33957e-15 0)
(1 6.19531e-16 0)
(1 5.68584e-16 0)
(1 7.52107e-16 0)
(1 2.3069e-15 0)
(1 1.35318e-15 0)
(1 2.54699e-15 0)
(1 1.19696e-15 0)
(1 1.21571e-15 0)
(1 1.78431e-15 0)
(1 2.04388e-15 0)
(1 1.96581e-15 0)
(1 1.71879e-15 0)
(1 1.21332e-15 0)
(1 2.05179e-15 0)
(1 1.6679e-15 0)
(1 2.21531e-15 0)
(1 1.19808e-15 0)
(1 1.92922e-15 0)
(1 1.91772e-15 0)
(1 2.26257e-15 0)
(1 2.5342e-15 0)
(1 2.08521e-15 0)
(1 1.65058e-15 0)
(1 2.20803e-15 0)
(1 2.10044e-15 0)
(1 1.53964e-15 0)
(1 1.61141e-15 0)
(1 1.1961e-15 0)
(1 9.85762e-17 0)
(1 6.14765e-16 0)
(1 -5.38185e-16 0)
(1 1.90042e-15 0)
(1 2.04775e-15 0)
(1 2.82061e-15 0)
(1 3.03296e-15 0)
(1 3.15133e-15 0)
(1 3.64785e-15 0)
(1 2.97328e-15 0)
(1 2.14455e-15 0)
(1 1.07652e-15 0)
(1 2.19303e-15 0)
(1 3.38656e-15 0)
(1 3.23868e-15 0)
(1 3.64584e-15 0)
(1 2.88511e-15 0)
(1 3.42064e-15 0)
(1 1.77837e-15 0)
(1 3.71215e-15 0)
(1 1.68846e-15 0)
(1 5.3132e-16 0)
(1 2.59444e-16 0)
(1 -1.72488e-15 0)
(1 -2.36374e-15 0)
(1 -9.74202e-16 0)
(1 8.76537e-16 0)
(1 8.86757e-16 0)
(1 3.19657e-15 0)
(1 2.37561e-15 0)
(1 2.85793e-15 0)
(1 8.09336e-16 0)
(1 1.07284e-15 0)
(1 -6.36879e-16 0)
(1 -1.8728e-16 0)
(1 4.49247e-16 0)
(1 -5.81351e-17 0)
(1 2.19094e-15 0)
(1 3.61036e-15 0)
(1 3.02051e-15 0)
(1 9.9963e-16 0)
(1 1.06247e-15 0)
(1 9.82353e-16 0)
(1 1.39575e-15 0)
(1 2.25562e-15 0)
(1 4.0256e-15 0)
(1 4.4351e-15 0)
(1 3.52576e-15 0)
(1 3.82374e-15 0)
(1 3.69306e-15 0)
(1 4.32902e-15 0)
(1 3.69395e-15 0)
(1 4.33255e-15 0)
(1 5.19954e-15 0)
(1 4.93309e-15 0)
(1 4.95209e-15 0)
(1 4.43074e-15 0)
(1 4.57554e-15 0)
(1 2.79611e-15 0)
(1 2.24957e-15 0)
(1 2.41679e-15 0)
(1 4.18511e-15 0)
(1 4.78652e-15 0)
(1 4.22631e-15 0)
(1 2.65722e-15 0)
(1 1.9157e-15 0)
(1 2.55565e-15 0)
(1 2.48889e-15 0)
(1 1.86187e-15 0)
(1 1.51656e-15 0)
(1 1.7962e-15 0)
(1 1.53321e-15 0)
(1 1.74869e-15 0)
(1 9.62402e-16 0)
(1 1.65e-15 0)
(1 2.13784e-15 0)
(1 1.42292e-15 0)
(1 1.65719e-15 0)
(1 7.9896e-16 0)
(1 5.533e-16 0)
(1 1.60973e-15 0)
(1 1.11352e-15 0)
(1 1.66661e-15 0)
(1 1.18553e-15 0)
(1 1.96262e-15 0)
(1 2.48088e-15 0)
(1 2.25749e-15 0)
(1 1.71776e-15 0)
(1 1.7066e-15 0)
(1 1.41445e-15 0)
(1 2.25142e-15 0)
(1 2.19328e-15 0)
(1 3.16195e-15 0)
(1 2.52335e-15 0)
(1 1.75905e-15 0)
(1 2.0265e-15 0)
(1 1.20902e-15 0)
(1 1.9918e-15 0)
(1 2.02203e-15 0)
(1 2.59745e-15 0)
(1 2.5028e-16 0)
(1 -2.76642e-16 0)
(1 3.74481e-16 0)
(1 1.41964e-15 0)
(1 1.65257e-15 0)
(1 3.64566e-15 0)
(1 2.26408e-15 0)
(1 3.19246e-15 0)
(1 2.8541e-15 0)
(1 1.30566e-15 0)
(1 2.58207e-15 0)
(1 1.4481e-15 0)
(1 2.84468e-15 0)
(1 3.54592e-15 0)
(1 3.29751e-15 0)
(1 3.74779e-15 0)
(1 1.93133e-15 0)
(1 3.7612e-15 0)
(1 2.86865e-15 0)
(1 1.73463e-15 0)
(1 6.91935e-16 0)
(1 2.75747e-16 0)
(1 1.56328e-15 0)
(1 2.41496e-15 0)
(1 3.6357e-16 0)
(1 1.47335e-16 0)
(1 2.70914e-16 0)
(1 1.27187e-15 0)
(1 1.31755e-15 0)
(1 1.31551e-15 0)
(1 1.6787e-16 0)
(1 -9.86658e-16 0)
(1 -8.21741e-16 0)
(1 -2.03742e-16 0)
(1 2.57336e-16 0)
(1 1.10015e-15 0)
(1 1.46833e-15 0)
(1 2.31121e-15 0)
(1 2.55132e-15 0)
(1 1.77712e-15 0)
(1 7.59553e-16 0)
(1 1.92956e-15 0)
(1 2.20167e-15 0)
(1 3.27669e-15 0)
(1 4.5122e-15 0)
(1 3.7054e-15 0)
(1 4.64057e-15 0)
(1 3.27339e-15 0)
(1 2.2443e-15 0)
(1 3.87854e-15 0)
(1 4.09484e-15 0)
(1 5.45299e-15 0)
(1 4.61474e-15 0)
(1 5.94654e-15 0)
(1 5.59882e-15 0)
(1 5.25105e-15 0)
(1 4.56372e-15 0)
(1 3.64903e-15 0)
(1 4.4764e-15 0)
(1 3.8276e-15 0)
(1 3.93855e-15 0)
(1 3.13437e-15 0)
(1 3.33347e-15 0)
(1 3.63613e-15 0)
(1 1.1258e-15 0)
(1 3.29638e-15 0)
(1 2.51489e-15 0)
(1 3.8045e-15 0)
(1 4.85317e-15 0)
(1 3.71922e-15 0)
(1 3.49477e-15 0)
(1 2.53722e-15 0)
(1 2.52985e-15 0)
(1 1.3542e-15 0)
(1 1.41051e-15 0)
(1 1.3167e-15 0)
(1 1.3571e-15 0)
(1 1.94421e-15 0)
(1 2.82635e-15 0)
(1 2.60996e-15 0)
(1 2.18736e-15 0)
(1 1.93263e-15 0)
(1 1.7037e-15 0)
(1 1.14463e-15 0)
(1 2.55563e-16 0)
(1 1.45725e-16 0)
(1 5.66975e-16 0)
(1 9.01472e-16 0)
(1 2.05267e-15 0)
(1 1.76645e-15 0)
(1 1.78017e-15 0)
(1 2.70529e-15 0)
(1 2.87786e-15 0)
(1 3.37016e-15 0)
(1 3.39699e-15 0)
(1 2.74285e-15 0)
(1 3.1704e-15 0)
(1 3.58638e-15 0)
(1 3.83699e-15 0)
(1 4.25177e-15 0)
(1 3.86722e-16 0)
(1 8.46438e-16 0)
(1 2.91976e-15 0)
(1 1.19603e-15 0)
(1 1.48294e-15 0)
(1 8.77165e-16 0)
(1 3.06997e-15 0)
(1 3.02511e-15 0)
(1 2.83214e-15 0)
(1 1.69084e-15 0)
(1 3.00912e-15 0)
(1 3.84498e-15 0)
(1 3.35953e-15 0)
(1 4.08828e-15 0)
(1 2.98568e-15 0)
(1 2.17413e-15 0)
(1 1.46315e-15 0)
(1 2.45549e-15 0)
(1 2.41326e-15 0)
(1 2.06782e-15 0)
(1 1.03007e-15 0)
(1 -5.30125e-16 0)
(1 -1.24002e-15 0)
(1 1.85963e-15 0)
(1 1.78617e-15 0)
(1 1.94815e-15 0)
(1 7.9736e-16 0)
(1 2.32829e-15 0)
(1 1.15177e-15 0)
(1 6.64087e-16 0)
(1 -6.85377e-16 0)
(1 -2.83505e-16 0)
(1 -4.01319e-16 0)
(1 5.30907e-16 0)
(1 4.55007e-16 0)
(1 4.87433e-16 0)
(1 5.17792e-16 0)
(1 1.63958e-15 0)
(1 4.21361e-16 0)
(1 9.78248e-16 0)
(1 2.57512e-15 0)
(1 3.10198e-15 0)
(1 3.73303e-15 0)
(1 3.51217e-15 0)
(1 3.30058e-15 0)
(1 1.87442e-15 0)
(1 2.526e-15 0)
(1 3.41301e-15 0)
(1 3.1242e-15 0)
(1 4.8656e-15 0)
(1 3.99631e-15 0)
(1 4.78832e-15 0)
(1 5.84435e-15 0)
(1 5.19254e-15 0)
(1 6.18559e-15 0)
(1 6.00273e-15 0)
(1 4.87734e-15 0)
(1 3.25708e-15 0)
(1 4.59257e-15 0)
(1 5.57194e-15 0)
(1 5.65126e-15 0)
(1 4.11453e-15 0)
(1 3.30463e-15 0)
(1 3.57577e-15 0)
(1 2.6467e-15 0)
(1 2.6682e-15 0)
(1 3.68583e-15 0)
(1 3.51546e-15 0)
(1 5.26712e-15 0)
(1 4.60439e-15 0)
(1 2.99985e-15 0)
(1 1.62331e-15 0)
(1 1.20317e-15 0)
(1 1.76928e-15 0)
(1 1.68639e-15 0)
(1 1.29248e-15 0)
(1 1.87005e-15 0)
(1 2.31642e-15 0)
(1 3.43906e-15 0)
(1 2.08874e-15 0)
(1 1.82907e-15 0)
(1 1.37029e-15 0)
(1 1.06018e-15 0)
(1 8.9828e-16 0)
(1 6.4551e-16 0)
(1 1.99027e-15 0)
(1 2.50717e-15 0)
(1 2.56194e-15 0)
(1 1.99508e-15 0)
(1 1.78359e-15 0)
(1 2.41835e-15 0)
(1 2.61275e-15 0)
(1 1.97009e-15 0)
(1 2.27301e-15 0)
(1 4.35906e-15 0)
(1 1.93779e-15 0)
(1 4.03757e-15 0)
(1 3.28086e-15 0)
(1 4.72156e-15 0)
(1 4.4457e-15 0)
(1 9.02848e-17 0)
(1 1.1378e-15 0)
(1 1.68704e-15 0)
(1 1.61769e-15 0)
(1 9.89446e-16 0)
(1 3.37171e-16 0)
(1 3.12656e-15 0)
(1 5.93963e-16 0)
(1 3.44718e-15 0)
(1 3.89765e-15 0)
(1 3.24619e-15 0)
(1 2.4288e-15 0)
(1 2.87438e-15 0)
(1 2.59499e-15 0)
(1 3.00016e-15 0)
(1 2.70112e-15 0)
(1 4.63656e-15 0)
(1 2.95129e-15 0)
(1 2.18239e-15 0)
(1 1.4545e-15 0)
(1 2.38671e-16 0)
(1 -4.99247e-16 0)
(1 -1.86221e-15 0)
(1 -3.82494e-16 0)
(1 -4.44114e-16 0)
(1 2.82062e-15 0)
(1 1.98039e-15 0)
(1 2.60904e-15 0)
(1 1.18307e-15 0)
(1 5.56302e-16 0)
(1 -1.13203e-15 0)
(1 -1.76535e-16 0)
(1 -3.28298e-16 0)
(1 5.59146e-16 0)
(1 3.29682e-16 0)
(1 -1.74997e-16 0)
(1 1.58357e-15 0)
(1 1.07185e-15 0)
(1 1.0618e-15 0)
(1 4.85886e-16 0)
(1 2.88602e-15 0)
(1 2.81041e-15 0)
(1 4.29361e-15 0)
(1 2.48507e-15 0)
(1 2.79704e-15 0)
(1 2.62567e-15 0)
(1 2.89984e-15 0)
(1 3.62735e-15 0)
(1 4.3336e-15 0)
(1 4.03846e-15 0)
(1 5.52691e-15 0)
(1 5.52176e-15 0)
(1 6.79464e-15 0)
(1 5.80684e-15 0)
(1 6.0738e-15 0)
(1 4.82073e-15 0)
(1 4.49084e-15 0)
(1 3.88781e-15 0)
(1 4.43041e-15 0)
(1 3.7632e-15 0)
(1 5.50512e-15 0)
(1 4.44976e-15 0)
(1 4.08275e-15 0)
(1 3.91958e-15 0)
(1 4.51727e-15 0)
(1 2.36e-15 0)
(1 3.8601e-15 0)
(1 2.7848e-15 0)
(1 1.52973e-15 0)
(1 2.94461e-15 0)
(1 2.5693e-15 0)
(1 3.60456e-15 0)
(1 2.36876e-15 0)
(1 9.62532e-16 0)
(1 7.97333e-16 0)
(1 1.13499e-15 0)
(1 4.06167e-15 0)
(1 2.17034e-15 0)
(1 2.1367e-15 0)
(1 3.62815e-15 0)
(1 3.33931e-15 0)
(1 2.32791e-15 0)
(1 2.37139e-15 0)
(1 8.31446e-16 0)
(1 1.10924e-15 0)
(1 1.10326e-15 0)
(1 1.93661e-15 0)
(1 8.8097e-16 0)
(1 1.36233e-15 0)
(1 1.50095e-15 0)
(1 3.6604e-15 0)
(1 1.86749e-15 0)
(1 2.43572e-15 0)
(1 1.75973e-15 0)
(1 3.13516e-15 0)
(1 2.61922e-15 0)
(1 3.03776e-15 0)
(1 2.77365e-15 0)
(1 3.34226e-15 0)
(1 3.13097e-15 0)
(1 5.87789e-16 0)
(1 5.39586e-16 0)
(1 1.04406e-15 0)
(1 1.86201e-15 0)
(1 1.0624e-15 0)
(1 3.17546e-15 0)
(1 1.16563e-15 0)
(1 2.063e-15 0)
(1 1.82657e-15 0)
(1 3.79265e-15 0)
(1 3.97387e-15 0)
(1 3.09907e-15 0)
(1 3.82149e-15 0)
(1 2.84493e-15 0)
(1 3.53374e-15 0)
(1 1.75284e-15 0)
(1 2.82564e-15 0)
(1 3.11593e-16 0)
(1 2.58003e-15 0)
(1 -6.77122e-16 0)
(1 -3.15446e-16 0)
(1 8.61916e-16 0)
(1 1.59368e-15 0)
(1 1.25614e-15 0)
(1 2.34069e-15 0)
(1 2.22591e-15 0)
(1 1.74305e-15 0)
(1 1.02182e-15 0)
(1 1.11978e-15 0)
(1 -1.95724e-16 0)
(1 4.67688e-17 0)
(1 -1.01981e-15 0)
(1 -1.34237e-15 0)
(1 -1.43765e-15 0)
(1 -2.58385e-16 0)
(1 -2.32784e-16 0)
(1 1.5284e-16 0)
(1 3.10427e-16 0)
(1 1.70468e-15 0)
(1 2.11521e-15 0)
(1 3.2051e-15 0)
(1 2.88338e-15 0)
(1 2.48306e-15 0)
(1 2.97235e-15 0)
(1 2.44369e-15 0)
(1 2.84548e-15 0)
(1 3.91807e-15 0)
(1 2.49421e-15 0)
(1 5.5681e-15 0)
(1 4.19161e-15 0)
(1 5.4752e-15 0)
(1 5.62457e-15 0)
(1 5.61437e-15 0)
(1 5.96855e-15 0)
(1 5.29158e-15 0)
(1 3.06166e-15 0)
(1 4.25141e-15 0)
(1 4.26793e-15 0)
(1 4.58718e-15 0)
(1 3.54515e-15 0)
(1 5.52467e-15 0)
(1 6.074e-15 0)
(1 5.91308e-15 0)
(1 3.71846e-15 0)
(1 4.58166e-15 0)
(1 3.67924e-15 0)
(1 2.31761e-15 0)
(1 2.94801e-15 0)
(1 1.20936e-15 0)
(1 1.69595e-15 0)
(1 2.98773e-15 0)
(1 2.86589e-15 0)
(1 1.69461e-15 0)
(1 7.19321e-16 0)
(1 1.01544e-15 0)
(1 7.3644e-16 0)
(1 2.0363e-15 0)
(1 2.2415e-15 0)
(1 2.53324e-15 0)
(1 4.07918e-15 0)
(1 2.98258e-15 0)
(1 2.94451e-15 0)
(1 2.9876e-15 0)
(1 1.71629e-15 0)
(1 2.23691e-15 0)
(1 3.52022e-16 0)
(1 6.48647e-16 0)
(1 9.20797e-16 0)
(1 2.12365e-15 0)
(1 2.29434e-15 0)
(1 2.20253e-15 0)
(1 1.49604e-15 0)
(1 2.16418e-15 0)
(1 2.54339e-15 0)
(1 2.63997e-15 0)
(1 4.45795e-15 0)
(1 3.4919e-15 0)
(1 3.56686e-15 0)
(1 1.52513e-15 0)
(1 1.18267e-15 0)
(1 4.67057e-16 0)
(1 1.53329e-15 0)
(1 2.41563e-17 0)
(1 1.80769e-16 0)
(1 2.03105e-15 0)
(1 1.56036e-15 0)
(1 1.32696e-15 0)
(1 2.96072e-15 0)
(1 2.18216e-15 0)
(1 3.85065e-15 0)
(1 3.54415e-15 0)
(1 3.32166e-15 0)
(1 2.82137e-15 0)
(1 2.60642e-15 0)
(1 2.84542e-15 0)
(1 1.67915e-15 0)
(1 1.4654e-15 0)
(1 2.70784e-15 0)
(1 4.20047e-15 0)
(1 2.35208e-15 0)
(1 1.76236e-15 0)
(1 4.76268e-16 0)
(1 -1.66822e-15 0)
(1 -1.81216e-15 0)
(1 -3.72354e-18 0)
(1 7.57433e-16 0)
(1 1.75805e-15 0)
(1 4.17843e-16 0)
(1 1.26858e-15 0)
(1 -8.81732e-16 0)
(1 -1.13411e-15 0)
(1 -2.31019e-15 0)
(1 -2.09061e-15 0)
(1 -1.87566e-15 0)
(1 1.01149e-15 0)
(1 2.89588e-16 0)
(1 1.64539e-15 0)
(1 4.89392e-16 0)
(1 1.76035e-15 0)
(1 2.53914e-15 0)
(1 2.53671e-15 0)
(1 2.19135e-15 0)
(1 1.43892e-15 0)
(1 2.98854e-15 0)
(1 1.96677e-15 0)
(1 3.74865e-15 0)
(1 3.40966e-15 0)
(1 4.56782e-15 0)
(1 4.57865e-15 0)
(1 5.04889e-15 0)
(1 5.1101e-15 0)
(1 4.54414e-15 0)
(1 4.96667e-15 0)
(1 5.21308e-15 0)
(1 4.84066e-15 0)
(1 5.43676e-15 0)
(1 4.60984e-15 0)
(1 4.49548e-15 0)
(1 2.64468e-15 0)
(1 3.52014e-15 0)
(1 2.25288e-15 0)
(1 4.28856e-15 0)
(1 4.9561e-15 0)
(1 4.96015e-15 0)
(1 5.96108e-15 0)
(1 5.075e-15 0)
(1 3.20583e-15 0)
(1 2.26499e-15 0)
(1 2.51316e-15 0)
(1 1.54509e-15 0)
(1 -1.35243e-17 0)
(1 7.4657e-16 0)
(1 1.61666e-15 0)
(1 3.18964e-15 0)
(1 2.72972e-15 0)
(1 1.9205e-15 0)
(1 -4.1534e-16 0)
(1 1.87038e-15 0)
(1 2.20241e-15 0)
(1 1.08289e-15 0)
(1 1.47837e-15 0)
(1 2.3354e-15 0)
(1 2.02986e-15 0)
(1 2.53009e-15 0)
(1 2.4926e-15 0)
(1 1.80011e-15 0)
(1 1.66634e-15 0)
(1 2.45867e-15 0)
(1 2.30623e-15 0)
(1 2.34227e-15 0)
(1 1.00134e-15 0)
(1 1.75803e-15 0)
(1 1.24383e-15 0)
(1 1.9668e-15 0)
(1 2.04912e-15 0)
(1 2.7186e-15 0)
(1 2.3325e-15 0)
(1 2.33153e-15 0)
(1 1.39323e-15 0)
(1 9.69076e-16 0)
(1 -1.50216e-16 0)
(1 1.6002e-15 0)
(1 1.06494e-15 0)
(1 2.98847e-16 0)
(1 1.55185e-15 0)
(1 7.47126e-16 0)
(1 1.90779e-15 0)
(1 2.38333e-15 0)
(1 4.65414e-15 0)
(1 4.85885e-15 0)
(1 3.32291e-15 0)
(1 2.78535e-15 0)
(1 1.37384e-15 0)
(1 1.36355e-15 0)
(1 1.61198e-15 0)
(1 3.62832e-15 0)
(1 2.21297e-15 0)
(1 3.37162e-15 0)
(1 2.75451e-16 0)
(1 1.67533e-15 0)
(1 3.31867e-16 0)
(1 1.27212e-15 0)
(1 -1.64551e-15 0)
(1 2.44246e-16 0)
(1 -6.08748e-16 0)
(1 1.14966e-15 0)
(1 9.72196e-16 0)
(1 3.89969e-16 0)
(1 4.37642e-16 0)
(1 -1.07285e-15 0)
(1 -1.86587e-15 0)
(1 -3.66582e-15 0)
(1 -1.76324e-15 0)
(1 -1.55964e-15 0)
(1 9.54791e-17 0)
(1 2.26255e-15 0)
(1 2.53909e-15 0)
(1 1.11682e-15 0)
(1 1.18e-15 0)
(1 7.07809e-16 0)
(1 1.24885e-16 0)
(1 1.27888e-15 0)
(1 2.81272e-15 0)
(1 2.74135e-15 0)
(1 3.89763e-15 0)
(1 3.97767e-15 0)
(1 2.87591e-15 0)
(1 4.7866e-15 0)
(1 2.95659e-15 0)
(1 3.60659e-15 0)
(1 1.84145e-15 0)
(1 3.31944e-15 0)
(1 5.05918e-15 0)
(1 5.33631e-15 0)
(1 4.94456e-15 0)
(1 6.81172e-15 0)
(1 5.19572e-15 0)
(1 5.53938e-15 0)
(1 4.54599e-15 0)
(1 5.14329e-15 0)
(1 3.62759e-15 0)
(1 2.80841e-15 0)
(1 3.25192e-15 0)
(1 5.17298e-15 0)
(1 3.51243e-15 0)
(1 4.66428e-15 0)
(1 3.86443e-15 0)
(1 3.08907e-15 0)
(1 2.39343e-15 0)
(1 1.62661e-15 0)
(1 2.16502e-17 0)
(1 2.75091e-15 0)
(1 1.85712e-15 0)
(1 3.53782e-15 0)
(1 2.03053e-15 0)
(1 3.04091e-15 0)
(1 1.41615e-15 0)
(1 2.47124e-15 0)
(1 2.01811e-15 0)
(1 7.86195e-16 0)
(1 1.8691e-15 0)
(1 1.16906e-15 0)
(1 8.67046e-16 0)
(1 2.0577e-15 0)
(1 1.84571e-15 0)
(1 2.50442e-15 0)
(1 1.58429e-15 0)
(1 2.3789e-15 0)
(1 1.567e-15 0)
(1 2.2696e-15 0)
(1 1.85768e-15 0)
(1 2.07723e-15 0)
(1 1.40365e-15 0)
(1 2.13036e-15 0)
(1 1.30639e-15 0)
(1 2.24762e-15 0)
(1 2.05086e-15 0)
(1 2.32879e-15 0)
(1 2.14272e-15 0)
(1 1.99997e-15 0)
(1 1.64649e-16 0)
(1 1.29217e-15 0)
(1 8.21139e-16 0)
(1 9.18307e-16 0)
(1 1.30739e-15 0)
(1 2.05721e-15 0)
(1 7.71004e-16 0)
(1 1.4031e-15 0)
(1 2.98816e-15 0)
(1 2.50967e-15 0)
(1 4.34129e-15 0)
(1 3.68329e-15 0)
(1 3.2688e-15 0)
(1 1.65632e-15 0)
(1 1.70757e-15 0)
(1 2.29173e-15 0)
(1 9.98994e-16 0)
(1 4.60611e-16 0)
(1 -1.36352e-15 0)
(1 1.52066e-15 0)
(1 1.38564e-15 0)
(1 1.5969e-15 0)
(1 1.89672e-15 0)
(1 6.92886e-16 0)
(1 -2.09749e-16 0)
(1 -9.07923e-16 0)
(1 -1.25224e-15 0)
(1 -1.08439e-15 0)
(1 -9.601e-16 0)
(1 -1.00753e-15 0)
(1 -1.56081e-15 0)
(1 -1.16125e-15 0)
(1 -3.88649e-16 0)
(1 -9.30333e-16 0)
(1 -1.06077e-15 0)
(1 9.91375e-16 0)
(1 4.15864e-18 0)
(1 5.32964e-16 0)
(1 1.04991e-15 0)
(1 -3.35578e-17 0)
(1 -1.41186e-16 0)
(1 1.2276e-15 0)
(1 1.7955e-15 0)
(1 1.6746e-15 0)
(1 3.09046e-15 0)
(1 3.0387e-15 0)
(1 2.75063e-15 0)
(1 2.54637e-15 0)
(1 2.52253e-15 0)
(1 3.35177e-15 0)
(1 3.78464e-15 0)
(1 5.10203e-15 0)
(1 5.61355e-15 0)
(1 5.97087e-15 0)
(1 6.55734e-15 0)
(1 5.42935e-15 0)
(1 4.52371e-15 0)
(1 5.01516e-15 0)
(1 3.90006e-15 0)
(1 3.8824e-15 0)
(1 4.78983e-15 0)
(1 3.88573e-15 0)
(1 5.01966e-15 0)
(1 3.5969e-15 0)
(1 4.04921e-15 0)
(1 3.5271e-15 0)
(1 3.98295e-15 0)
(1 3.56641e-15 0)
(1 3.82897e-15 0)
(1 3.13535e-15 0)
(1 3.30751e-15 0)
(1 1.47684e-15 0)
(1 5.07167e-16 0)
(1 1.54615e-15 0)
(1 1.77994e-15 0)
(1 2.15531e-15 0)
(1 1.91389e-15 0)
(1 1.56164e-15 0)
(1 8.28685e-16 0)
(1 1.39682e-15 0)
(1 1.74788e-15 0)
(1 9.07664e-16 0)
(1 8.35071e-16 0)
(1 1.50511e-15 0)
(1 1.907e-15 0)
(1 2.35179e-15 0)
(1 1.29075e-15 0)
(1 1.74999e-15 0)
(1 1.28949e-15 0)
(1 9.24728e-16 0)
(1 1.17526e-15 0)
(1 8.56506e-16 0)
(1 1.81381e-15 0)
(1 1.9107e-15 0)
(1 1.82486e-15 0)
(1 1.47247e-15 0)
(1 1.22241e-15 0)
(1 2.42494e-15 0)
(1 3.06747e-15 0)
(1 2.75582e-15 0)
(1 -1.14911e-16 0)
(1 8.57474e-16 0)
(1 2.51247e-16 0)
(1 1.55304e-15 0)
(1 2.79124e-15 0)
(1 2.8021e-15 0)
(1 3.90758e-15 0)
(1 3.49621e-15 0)
(1 2.33668e-15 0)
(1 5.79402e-16 0)
(1 1.47233e-15 0)
(1 9.7689e-16 0)
(1 3.02999e-15 0)
(1 2.03598e-15 0)
(1 1.38613e-15 0)
(1 6.45028e-16 0)
(1 1.53626e-15 0)
(1 1.00241e-15 0)
(1 1.93591e-15 0)
(1 -1.01667e-15 0)
(1 -2.21346e-16 0)
(1 -1.15969e-15 0)
(1 2.58646e-15 0)
(1 -6.5152e-16 0)
(1 -5.98794e-16 0)
(1 -1.85096e-15 0)
(1 -1.52468e-15 0)
(1 -2.03613e-15 0)
(1 -3.17815e-15 0)
(1 -1.87877e-15 0)
(1 -2.90261e-15 0)
(1 6.73415e-16 0)
(1 -1.26582e-15 0)
(1 3.02039e-16 0)
(1 -9.99663e-16 0)
(1 -1.04535e-16 0)
(1 -1.83001e-16 0)
(1 -6.43855e-16 0)
(1 4.6582e-17 0)
(1 4.34957e-16 0)
(1 1.08609e-15 0)
(1 2.23726e-16 0)
(1 1.06215e-15 0)
(1 2.74244e-15 0)
(1 2.2378e-15 0)
(1 2.75806e-15 0)
(1 2.19378e-15 0)
(1 2.11226e-15 0)
(1 1.45007e-15 0)
(1 1.61241e-15 0)
(1 5.544e-15 0)
(1 6.43878e-15 0)
(1 5.41426e-15 0)
(1 5.01893e-15 0)
(1 5.73431e-15 0)
(1 4.05596e-15 0)
(1 4.53044e-15 0)
(1 4.22139e-15 0)
(1 3.44603e-15 0)
(1 2.39811e-15 0)
(1 2.60514e-15 0)
(1 3.29552e-15 0)
(1 3.58153e-15 0)
(1 3.33831e-15 0)
(1 4.34979e-15 0)
(1 1.30968e-15 0)
(1 2.04041e-15 0)
(1 1.54949e-15 0)
(1 3.38441e-15 0)
(1 2.73573e-15 0)
(1 2.33621e-15 0)
(1 6.14299e-16 0)
(1 1.52252e-15 0)
(1 1.47558e-15 0)
(1 1.68633e-15 0)
(1 2.0432e-15 0)
(1 1.66014e-15 0)
(1 1.71275e-15 0)
(1 7.65015e-16 0)
(1 1.96071e-15 0)
(1 -5.27989e-16 0)
(1 1.08392e-15 0)
(1 7.11473e-16 0)
(1 1.5663e-15 0)
(1 1.6395e-15 0)
(1 1.45399e-15 0)
(1 1.42221e-15 0)
(1 1.85474e-15 0)
(1 1.27075e-15 0)
(1 1.30319e-15 0)
(1 3.44252e-16 0)
(1 4.90366e-16 0)
(1 1.1451e-15 0)
(1 1.01459e-15 0)
(1 9.07061e-16 0)
(1 1.32694e-15 0)
(1 1.27684e-15 0)
(1 1.68975e-15 0)
(1 2.64095e-15 0)
(1 2.12153e-15 0)
(1 -2.22469e-16 0)
(1 3.04662e-16 0)
(1 1.52309e-15 0)
(1 2.86508e-15 0)
(1 2.52516e-15 0)
(1 1.79753e-15 0)
(1 3.10245e-15 0)
(1 3.46481e-15 0)
(1 3.00074e-15 0)
(1 1.83066e-15 0)
(1 5.57726e-16 0)
(1 -2.88401e-16 0)
(1 9.33668e-16 0)
(1 1.20489e-15 0)
(1 1.20162e-15 0)
(1 1.13815e-15 0)
(1 9.29223e-16 0)
(1 -3.38721e-16 0)
(1 -1.27945e-17 0)