/*--------------------------------*- C++ -*----------------------------------*\
| =========                 |                                                 |
| \\      /  F ield         | OpenFOAM: The Open Source CFD Toolbox           |
|  \\    /   O peration     | Version:  v2012                                 |
|   \\  /    A nd           | Website:  www.openfoam.com                      |
|    \\/     M anipulation  |                                                 |
\*---------------------------------------------------------------------------*/
FoamFile
{
    version     2.0;
    format      ascii;
    class       surfaceScalarField;
    location    "9.25";
    object      phi;
}
// * * * * * * * * * * * * * * * * * * * * * * * * * * * * * * * * * * * * * //

dimensions      [0 3 -1 0 0 0 0];
oriented        oriented;


internalField   nonuniform List<scalar> 
130560
(
3.71295e-06
-3.71295e-06
7.42596e-06
-3.71301e-06
1.11391e-05
-3.71311e-06
1.48523e-05
-3.71325e-06
1.85658e-05
-3.71345e-06
2.22795e-05
-3.71369e-06
2.59934e-05
-3.71396e-06
2.97077e-05
-3.71427e-06
3.34223e-05
-3.71461e-06
3.71373e-05
-3.71497e-06
4.08526e-05
-3.71535e-06
4.45683e-05
-3.71573e-06
4.82845e-05
-3.7161e-06
5.20009e-05
-3.71647e-06
5.57177e-05
-3.71681e-06
5.94349e-05
-3.71712e-06
6.31522e-05
-3.71738e-06
6.68698e-05
-3.71758e-06
7.05875e-05
-3.71771e-06
7.43053e-05
-3.71776e-06
7.8023e-05
-3.7177e-06
8.17405e-05
-3.71752e-06
8.54577e-05
-3.7172e-06
8.91744e-05
-3.71673e-06
9.28905e-05
-3.71609e-06
9.66058e-05
-3.71526e-06
0.00010032
-3.71421e-06
0.000104033
-3.71293e-06
0.000107744
-3.7114e-06
0.000111454
-3.7096e-06
0.000115161
-3.70749e-06
0.000118866
-3.70506e-06
0.000122569
-3.70229e-06
0.000126268
-3.69914e-06
0.000129964
-3.6956e-06
0.000133655
-3.69163e-06
0.000137342
-3.68721e-06
0.000141025
-3.68232e-06
0.000144702
-3.67692e-06
0.000148373
-3.67098e-06
0.000152037
-3.66449e-06
0.000155694
-3.6574e-06
0.000159344
-3.64969e-06
0.000162985
-3.64133e-06
0.000166618
-3.63229e-06
0.00017024
-3.62254e-06
0.000173852
-3.61204e-06
0.000177453
-3.60077e-06
0.000181042
-3.58871e-06
0.000184618
-3.5758e-06
0.00018818
-3.56204e-06
0.000191727
-3.54737e-06
0.000195259
-3.53179e-06
0.000198774
-3.51525e-06
0.000202272
-3.49772e-06
0.000205751
-3.47919e-06
0.000209211
-3.45961e-06
0.00021265
-3.43896e-06
0.000216067
-3.41721e-06
0.000219461
-3.39435e-06
0.000222831
-3.37033e-06
0.000226177
-3.34514e-06
0.000229495
-3.31875e-06
0.000232786
-3.29114e-06
0.000236049
-3.2623e-06
0.000239281
-3.23219e-06
0.000242482
-3.2008e-06
0.00024565
-3.16812e-06
0.000248784
-3.13412e-06
0.000251883
-3.0988e-06
0.000254945
-3.06214e-06
0.000257969
-3.02413e-06
0.000260954
-2.98477e-06
0.000263898
-2.94404e-06
0.0002668
-2.90194e-06
0.000269658
-2.85847e-06
0.000272472
-2.81363e-06
0.000275239
-2.76743e-06
0.000277959
-2.71985e-06
0.00028063
-2.67092e-06
0.000283251
-2.62064e-06
0.00028582
-2.56902e-06
0.000288336
-2.51608e-06
0.000290798
-2.46182e-06
0.000293204
-2.40628e-06
0.000295553
-2.34946e-06
0.000297845
-2.29139e-06
0.000300077
-2.2321e-06
0.000302249
-2.17162e-06
0.000304358
-2.10997e-06
0.000306406
-2.04719e-06
0.000308389
-1.98331e-06
0.000310307
-1.91837e-06
0.00031216
-1.8524e-06
0.000313945
-1.78545e-06
0.000315663
-1.71756e-06
0.000317312
-1.64877e-06
0.000318891
-1.57914e-06
0.000320399
-1.5087e-06
0.000321837
-1.43751e-06
0.000323202
-1.36562e-06
0.000324496
-1.29308e-06
0.000325716
-1.21994e-06
0.000326862
-1.14626e-06
0.000327934
-1.07209e-06
0.000328931
-9.975e-07
0.000329854
-9.22532e-07
0.000330701
-8.47248e-07
0.000331473
-7.71707e-07
0.000332169
-6.95967e-07
0.000332789
-6.20085e-07
0.000333333
-5.4412e-07
0.000333801
-4.6813e-07
0.000334193
-3.92173e-07
0.00033451
-3.16307e-07
0.00033475
-2.40588e-07
0.000334915
-1.65073e-07
0.000335005
-8.98161e-08
0.00033502
-1.48732e-08
0.00033496
5.97027e-08
0.000334826
1.33859e-07
0.000334619
2.07545e-07
0.000334338
2.8071e-07
0.000333985
3.53307e-07
0.00033356
4.25287e-07
0.000333063
4.96607e-07
0.000332496
5.67221e-07
0.000331859
6.37089e-07
0.000331152
7.0617e-07
0.000330378
7.74425e-07
0.000329536
8.41818e-07
0.000328628
9.08314e-07
0.000327654
9.73881e-07
0.000326616
1.03849e-06
0.000325513
1.10211e-06
0.000324349
1.16471e-06
0.000323122
1.22627e-06
0.000321836
1.28677e-06
0.00032049
1.34618e-06
0.000319085
1.40449e-06
0.000317623
1.46168e-06
0.000316106
1.51774e-06
0.000314533
1.57264e-06
0.000312907
1.62639e-06
0.000311228
1.67897e-06
0.000309497
1.73037e-06
0.000307717
1.78059e-06
0.000305887
1.82962e-06
0.00030401
1.87746e-06
0.000302085
1.92411e-06
0.000300116
1.96957e-06
0.000298102
2.01384e-06
0.000296045
2.05692e-06
0.000293946
2.09883e-06
0.000291807
2.13956e-06
0.000289628
2.17913e-06
0.00028741
2.21753e-06
0.000285155
2.25479e-06
0.000282864
2.29091e-06
0.000280538
2.32591e-06
0.000278179
2.35979e-06
0.000275786
2.39257e-06
0.000273362
2.42426e-06
0.000270907
2.45488e-06
0.000268423
2.48445e-06
0.00026591
2.51298e-06
0.000263369
2.54049e-06
0.000260802
2.567e-06
0.00025821
2.59252e-06
0.000255592
2.61707e-06
0.000252952
2.64067e-06
0.000250288
2.66335e-06
0.000247603
2.68511e-06
0.000244897
2.70599e-06
0.000242171
2.72599e-06
0.000239426
2.74515e-06
0.000236663
2.76348e-06
0.000233882
2.781e-06
0.000231084
2.79773e-06
0.00022827
2.8137e-06
0.000225441
2.82891e-06
0.000222598
2.84341e-06
0.000219741
2.85719e-06
0.000216871
2.87029e-06
0.000213988
2.88273e-06
0.000211093
2.89452e-06
0.000208188
2.90568e-06
0.000205271
2.91624e-06
0.000202345
2.92621e-06
0.00019941
2.93562e-06
0.000196465
2.94448e-06
0.000193512
2.95281e-06
0.000190552
2.96064e-06
0.000187584
2.96797e-06
0.000184609
2.97483e-06
0.000181628
2.98124e-06
0.00017864
2.9872e-06
0.000175648
2.99275e-06
0.00017265
2.9979e-06
0.000169647
3.00266e-06
0.00016664
3.00705e-06
0.000163629
3.01108e-06
0.000160614
3.01478e-06
0.000157596
3.01816e-06
0.000154575
3.02122e-06
0.000151551
3.024e-06
0.000148524
3.0265e-06
0.000145496
3.02873e-06
0.000142465
3.03071e-06
0.000139432
3.03245e-06
0.000136398
3.03397e-06
0.000133363
3.03528e-06
0.000130327
3.03639e-06
0.000127289
3.03731e-06
0.000124251
3.03806e-06
0.000121213
3.03864e-06
0.000118174
3.03907e-06
0.000115134
3.03936e-06
0.000112095
3.03951e-06
0.000109055
3.03955e-06
0.000106016
3.03947e-06
0.000102976
3.03929e-06
9.99375e-05
3.03902e-06
9.68988e-05
3.03866e-06
9.38606e-05
3.03822e-06
9.08228e-05
3.03772e-06
8.77857e-05
3.03716e-06
8.47491e-05
3.03655e-06
8.17133e-05
3.03589e-06
7.86781e-05
3.0352e-06
7.56436e-05
3.03447e-06
7.26099e-05
3.03372e-06
6.95769e-05
3.03295e-06
6.65447e-05
3.03217e-06
6.35134e-05
3.03139e-06
6.04828e-05
3.0306e-06
5.74529e-05
3.02982e-06
5.44239e-05
3.02905e-06
5.13956e-05
3.02829e-06
4.83681e-05
3.02755e-06
4.53412e-05
3.02683e-06
4.23151e-05
3.02614e-06
3.92896e-05
3.02547e-06
3.62648e-05
3.02485e-06
3.32405e-05
3.02425e-06
3.02168e-05
3.0237e-06
2.71936e-05
3.02319e-06
2.41709e-05
3.02272e-06
2.11486e-05
3.0223e-06
1.81267e-05
3.02193e-06
1.51051e-05
3.02161e-06
1.20837e-05
3.02134e-06
9.0626e-06
3.02112e-06
6.04164e-06
3.02096e-06
3.02079e-06
3.02085e-06
3.02079e-06
3.7129e-06
-7.42586e-06
7.42586e-06
-7.42596e-06
1.11389e-05
-7.42616e-06
1.48521e-05
-7.42646e-06
1.85655e-05
-7.42686e-06
2.22792e-05
-7.42734e-06
2.59931e-05
-7.42789e-06
2.97074e-05
-7.42852e-06
3.3422e-05
-7.4292e-06
3.71369e-05
-7.42993e-06
4.08522e-05
-7.43069e-06
4.4568e-05
-7.43145e-06
4.82841e-05
-7.43222e-06
5.20006e-05
-7.43296e-06
5.57174e-05
-7.43366e-06
5.94346e-05
-7.43429e-06
6.3152e-05
-7.43482e-06
6.68697e-05
-7.43524e-06
7.05875e-05
-7.43552e-06
7.43054e-05
-7.43562e-06
7.80232e-05
-7.43551e-06
8.17408e-05
-7.43517e-06
8.54582e-05
-7.43455e-06
8.91751e-05
-7.43363e-06
9.28914e-05
-7.43237e-06
9.66068e-05
-7.43072e-06
0.000100321
-7.42865e-06
0.000104034
-7.42612e-06
0.000107746
-7.42308e-06
0.000111456
-7.41949e-06
0.000115164
-7.4153e-06
0.000118869
-7.41047e-06
0.000122572
-7.40495e-06
0.000126271
-7.39868e-06
0.000129967
-7.39162e-06
0.00013366
-7.38371e-06
0.000137347
-7.3749e-06
0.00014103
-7.36514e-06
0.000144708
-7.35437e-06
0.000148379
-7.34253e-06
0.000152044
-7.32956e-06
0.000155702
-7.31542e-06
0.000159352
-7.30003e-06
0.000162995
-7.28334e-06
0.000166628
-7.26528e-06
0.000170251
-7.24581e-06
0.000173864
-7.22485e-06
0.000177465
-7.20235e-06
0.000181055
-7.17824e-06
0.000184631
-7.15247e-06
0.000188194
-7.12496e-06
0.000191743
-7.09567e-06
0.000195275
-7.06453e-06
0.000198792
-7.03148e-06
0.00020229
-6.99646e-06
0.000205771
-6.95941e-06
0.000209231
-6.92028e-06
0.000212671
-6.87901e-06
0.00021609
-6.83555e-06
0.000219485
-6.78984e-06
0.000222857
-6.74183e-06
0.000226203
-6.69147e-06
0.000229523
-6.63872e-06
0.000232815
-6.58353e-06
0.000236079
-6.52585e-06
0.000239312
-6.46566e-06
0.000242514
-6.4029e-06
0.000245684
-6.33754e-06
0.000248819
-6.26957e-06
0.000251919
-6.19893e-06
0.000254983
-6.12563e-06
0.000258008
-6.04962e-06
0.000260995
-5.97089e-06
0.00026394
-5.88944e-06
0.000266843
-5.80525e-06
0.000269703
-5.71831e-06
0.000272518
-5.62863e-06
0.000275287
-5.53622e-06
0.000278008
-5.44106e-06
0.00028068
-5.34319e-06
0.000283302
-5.24262e-06
0.000285873
-5.13937e-06
0.00028839
-5.03346e-06
0.000290853
-4.92493e-06
0.000293261
-4.81382e-06
0.000295611
-4.70016e-06
0.000297904
-4.58401e-06
0.000300137
-4.4654e-06
0.00030231
-4.34441e-06
0.000304421
-4.22108e-06
0.000306469
-4.09548e-06
0.000308454
-3.96768e-06
0.000310373
-3.83775e-06
0.000312227
-3.70578e-06
0.000314013
-3.57184e-06
0.000315731
-3.43601e-06
0.000317381
-3.29839e-06
0.000318961
-3.15907e-06
0.00032047
-3.01815e-06
0.000321909
-2.87572e-06
0.000323275
-2.73188e-06
0.000324569
-2.58675e-06
0.000325789
-2.44042e-06
0.000326936
-2.293e-06
0.000328008
-2.14462e-06
0.000329006
-1.99537e-06
0.000329929
-1.84538e-06
0.000330777
-1.69475e-06
0.000331548
-1.54361e-06
0.000332245
-1.39207e-06
0.000332865
-1.24025e-06
0.000333409
-1.08826e-06
0.000333877
-9.36227e-07
0.000334269
-7.84256e-07
0.000334585
-6.32466e-07
0.000334826
-4.80972e-07
0.00033499
-3.29886e-07
0.00033508
-1.79318e-07
0.000335094
-2.93786e-08
0.000335034
1.19826e-07
0.0003349
2.6819e-07
0.000334692
4.15611e-07
0.000334411
5.6199e-07
0.000334057
7.0723e-07
0.000333631
8.51237e-07
0.000333133
9.93919e-07
0.000332566
1.13519e-06
0.000331928
1.27497e-06
0.000331221
1.41317e-06
0.000330445
1.54971e-06
0.000329603
1.68453e-06
0.000328693
1.81756e-06
0.000327719
1.94872e-06
0.000326679
2.07796e-06
0.000325576
2.20523e-06
0.00032441
2.33046e-06
0.000323183
2.4536e-06
0.000321895
2.57462e-06
0.000320548
2.69346e-06
0.000319142
2.8101e-06
0.000317679
2.9245e-06
0.00031616
3.03662e-06
0.000314587
3.14644e-06
0.000312959
3.25395e-06
0.000311279
3.35911e-06
0.000309547
3.46192e-06
0.000307766
3.56236e-06
0.000305935
3.66042e-06
0.000304056
3.7561e-06
0.000302131
3.8494e-06
0.00030016
3.94032e-06
0.000298145
4.02886e-06
0.000296087
4.11503e-06
0.000293987
4.19883e-06
0.000291846
4.28029e-06
0.000289666
4.35941e-06
0.000287447
4.43621e-06
0.000285191
4.51072e-06
0.000282899
4.58295e-06
0.000280572
4.65292e-06
0.000278211
4.72067e-06
0.000275818
4.78622e-06
0.000273392
4.84959e-06
0.000270936
4.91082e-06
0.000268451
4.96994e-06
0.000265937
5.02699e-06
0.000263396
5.08199e-06
0.000260828
5.13498e-06
0.000258234
5.186e-06
0.000255616
5.23508e-06
0.000252974
5.28227e-06
0.00025031
5.3276e-06
0.000247624
5.37111e-06
0.000244917
5.41284e-06
0.00024219
5.45284e-06
0.000239444
5.49113e-06
0.00023668
5.52777e-06
0.000233898
5.56279e-06
0.0002311
5.59623e-06
0.000228285
5.62814e-06
0.000225456
5.65855e-06
0.000222612
5.68752e-06
0.000219754
5.71507e-06
0.000216883
5.74125e-06
0.000214
5.76609e-06
0.000211104
5.78965e-06
0.000208198
5.81196e-06
0.000205281
5.83306e-06
0.000202355
5.85299e-06
0.000199418
5.87179e-06
0.000196473
5.88949e-06
0.00019352
5.90614e-06
0.000190559
5.92177e-06
0.00018759
5.93641e-06
0.000184615
5.95012e-06
0.000181633
5.96291e-06
0.000178646
5.97483e-06
0.000175653
5.98591e-06
0.000172654
5.99618e-06
0.000169651
6.00568e-06
0.000166644
6.01445e-06
0.000163633
6.0225e-06
0.000160617
6.02988e-06
0.000157599
6.03662e-06
0.000154577
6.04274e-06
0.000151553
6.04828e-06
0.000148526
6.05325e-06
0.000145497
6.0577e-06
0.000142467
6.06165e-06
0.000139434
6.06513e-06
0.0001364
6.06816e-06
0.000133364
6.07076e-06
0.000130328
6.07297e-06
0.00012729
6.0748e-06
0.000124252
6.07628e-06
0.000121213
6.07743e-06
0.000118174
6.07828e-06
0.000115134
6.07885e-06
0.000112095
6.07915e-06
0.000109055
6.07921e-06
0.000106016
6.07904e-06
0.000102976
6.07867e-06
9.99371e-05
6.07811e-06
9.68983e-05
6.07739e-06
9.38601e-05
6.07651e-06
9.08223e-05
6.0755e-06
8.77851e-05
6.07437e-06
8.47485e-05
6.07314e-06
8.17125e-05
6.07182e-06
7.86773e-05
6.07042e-06
7.56428e-05
6.06896e-06
7.26091e-05
6.06746e-06
6.95761e-05
6.06592e-06
6.65439e-05
6.06435e-06
6.35126e-05
6.06277e-06
6.0482e-05
6.0612e-06
5.74522e-05
6.05963e-06
5.44231e-05
6.05808e-06
5.13949e-05
6.05655e-06
4.83673e-05
6.05507e-06
4.53405e-05
6.05363e-06
4.23144e-05
6.05224e-06
3.9289e-05
6.05091e-06
3.62642e-05
6.04965e-06
3.324e-05
6.04847e-06
3.02163e-05
6.04736e-06
2.71932e-05
6.04633e-06
2.41705e-05
6.0454e-06
2.11482e-05
6.04456e-06
1.81263e-05
6.04381e-06
1.51048e-05
6.04317e-06
1.20835e-05
6.04263e-06
9.06244e-06
6.04219e-06
6.04153e-06
6.04186e-06
3.02074e-06
6.04164e-06
6.04153e-06
3.7128e-06
-1.11387e-05
7.42566e-06
-1.11388e-05
1.11386e-05
-1.11391e-05
1.48517e-05
-1.11396e-05
1.85651e-05
-1.11402e-05
2.22786e-05
-1.11409e-05
2.59925e-05
-1.11418e-05
2.97067e-05
-1.11427e-05
3.34212e-05
-1.11437e-05
3.71362e-05
-1.11449e-05
4.08515e-05
-1.1146e-05
4.45672e-05
-1.11472e-05
4.82834e-05
-1.11484e-05
5.19999e-05
-1.11495e-05
5.57168e-05
-1.11506e-05
5.94341e-05
-1.11515e-05
6.31516e-05
-1.11524e-05
6.68694e-05
-1.1153e-05
7.05874e-05
-1.11535e-05
7.43055e-05
-1.11537e-05
7.80235e-05
-1.11536e-05
8.17414e-05
-1.11531e-05
8.54591e-05
-1.11522e-05
8.91763e-05
-1.11509e-05
9.2893e-05
-1.1149e-05
9.66089e-05
-1.11466e-05
0.000100324
-1.11436e-05
0.000104038
-1.11398e-05
0.00010775
-1.11353e-05
0.00011146
-1.113e-05
0.000115169
-1.11238e-05
0.000118875
-1.11166e-05
0.000122578
-1.11084e-05
0.000126279
-1.1099e-05
0.000129975
-1.10885e-05
0.000133668
-1.10767e-05
0.000137357
-1.10635e-05
0.000141041
-1.1049e-05
0.000144719
-1.10329e-05
0.000148392
-1.10152e-05
0.000152058
-1.09958e-05
0.000155718
-1.09747e-05
0.000159369
-1.09517e-05
0.000163013
-1.09267e-05
0.000166647
-1.08997e-05
0.000170272
-1.08706e-05
0.000173886
-1.08392e-05
0.000177489
-1.08055e-05
0.00018108
-1.07694e-05
0.000184659
-1.07309e-05
0.000188224
-1.06897e-05
0.000191774
-1.06458e-05
0.000195308
-1.05992e-05
0.000198827
-1.05497e-05
0.000202327
-1.04972e-05
0.00020581
-1.04417e-05
0.000209272
-1.03831e-05
0.000212715
-1.03213e-05
0.000216135
-1.02561e-05
0.000219533
-1.01876e-05
0.000222907
-1.01157e-05
0.000226256
-1.00402e-05
0.000229578
-9.96113e-06
0.000232873
-9.8784e-06
0.000236139
-9.79193e-06
0.000239375
-9.70168e-06
0.00024258
-9.60759e-06
0.000245752
-9.5096e-06
0.00024889
-9.40767e-06
0.000251993
-9.30175e-06
0.000255059
-9.19181e-06
0.000258087
-9.07782e-06
0.000261076
-8.95975e-06
0.000264024
-8.83758e-06
0.00026693
-8.7113e-06
0.000269793
-8.5809e-06
0.000272611
-8.44638e-06
0.000275382
-8.30774e-06
0.000278106
-8.165e-06
0.000280781
-8.01817e-06
0.000283406
-7.86728e-06
0.000285979
-7.71237e-06
0.000288499
-7.55347e-06
0.000290964
-7.39063e-06
0.000293374
-7.22391e-06
0.000295728
-7.05337e-06
0.000298023
-6.87907e-06
0.000300258
-6.70109e-06
0.000302433
-6.51952e-06
0.000304547
-6.33445e-06
0.000306597
-6.14596e-06
0.000308584
-5.95417e-06
0.000310505
-5.75919e-06
0.000312361
-5.56113e-06
0.000314149
-5.36011e-06
0.000315869
-5.15626e-06
0.00031752
-4.94972e-06
0.000319102
-4.74062e-06
0.000320613
-4.52911e-06
0.000322053
-4.31533e-06
0.00032342
-4.09945e-06
0.000324715
-3.88161e-06
0.000325937
-3.66198e-06
0.000327084
-3.44072e-06
0.000328158
-3.218e-06
0.000329156
-2.99399e-06
0.00033008
-2.76886e-06
0.000330928
-2.54277e-06
0.0003317
-2.31592e-06
0.000332396
-2.08846e-06
0.000333017
-1.86058e-06
0.000333561
-1.63246e-06
0.000334029
-1.40426e-06
0.000334421
-1.17616e-06
0.000334737
-9.4833e-07
0.000334977
-7.20948e-07
0.000335141
-4.9418e-07
0.00033523
-2.68192e-07
0.000335244
-4.3149e-08
0.000335183
1.80788e-07
0.000335047
4.03462e-07
0.000334838
6.24719e-07
0.000334556
8.44409e-07
0.000334201
1.06239e-06
0.000333774
1.27851e-06
0.000333275
1.49264e-06
0.000332705
1.70465e-06
0.000332066
1.91442e-06
0.000331357
2.12181e-06
0.00033058
2.32672e-06
0.000329736
2.52904e-06
0.000328825
2.72866e-06
0.000327848
2.92549e-06
0.000326806
3.11942e-06
0.000325701
3.31038e-06
0.000324533
3.49829e-06
0.000323304
3.68306e-06
0.000322014
3.86464e-06
0.000320664
4.04296e-06
0.000319257
4.21796e-06
0.000317791
4.38959e-06
0.00031627
4.5578e-06
0.000314694
4.72257e-06
0.000313064
4.88385e-06
0.000311382
5.04161e-06
0.000309648
5.19583e-06
0.000307864
5.3465e-06
0.000306031
5.49361e-06
0.000304149
5.63713e-06
0.000302222
5.77708e-06
0.000300249
5.91345e-06
0.000298231
6.04625e-06
0.000296171
6.17549e-06
0.000294068
6.30119e-06
0.000291925
6.42335e-06
0.000289743
6.54201e-06
0.000287522
6.65719e-06
0.000285264
6.76893e-06
0.000282969
6.87724e-06
0.00028064
6.98217e-06
0.000278277
7.08376e-06
0.000275881
7.18204e-06
0.000273454
7.27706e-06
0.000270996
7.36887e-06
0.000268508
7.45751e-06
0.000265992
7.54303e-06
0.000263449
7.62549e-06
0.000260879
7.70493e-06
0.000258283
7.78141e-06
0.000255663
7.85499e-06
0.00025302
7.92573e-06
0.000250354
7.99368e-06
0.000247666
8.05889e-06
0.000244957
8.12144e-06
0.000242229
8.18138e-06
0.000239481
8.23877e-06
0.000236715
8.29367e-06
0.000233932
8.34615e-06
0.000231132
8.39626e-06
0.000228316
8.44407e-06
0.000225485
8.48965e-06
0.000222639
8.53304e-06
0.00021978
8.57431e-06
0.000216908
8.61353e-06
0.000214023
8.65075e-06
0.000211127
8.68604e-06
0.000208219
8.71946e-06
0.000205301
8.75106e-06
0.000202373
8.7809e-06
0.000199436
8.80905e-06
0.00019649
8.83556e-06
0.000193536
8.86048e-06
0.000190574
8.88388e-06
0.000187604
8.9058e-06
0.000184628
8.92631e-06
0.000181645
8.94546e-06
0.000178657
8.96329e-06
0.000175663
8.97987e-06
0.000172664
8.99524e-06
0.00016966
9.00945e-06
0.000166652
9.02255e-06
0.00016364
9.0346e-06
0.000160624
9.04563e-06
0.000157605
9.0557e-06
0.000154583
9.06484e-06
0.000151558
9.07311e-06
0.000148531
9.08054e-06
0.000145501
9.08718e-06
0.00014247
9.09307e-06
0.000139437
9.09825e-06
0.000136402
9.10276e-06
0.000133366
9.10664e-06
0.000130329
9.10992e-06
0.000127292
9.11263e-06
0.000124253
9.11483e-06
0.000121214
9.11653e-06
0.000118174
9.11778e-06
0.000115135
9.1186e-06
0.000112095
9.11902e-06
0.000109055
9.11909e-06
0.000106015
9.11882e-06
0.000102976
9.11824e-06
9.99364e-05
9.11738e-06
9.68975e-05
9.11627e-06
9.3859e-05
9.11494e-06
9.08211e-05
9.1134e-06
8.77838e-05
9.11169e-06
8.47472e-05
9.10982e-06
8.17112e-05
9.10782e-06
7.86759e-05
9.10571e-06
7.56413e-05
9.1035e-06
7.26075e-05
9.10123e-06
6.95746e-05
9.0989e-06
6.65424e-05
9.09654e-06
6.3511e-05
9.09416e-06
6.04804e-05
9.09178e-06
5.74506e-05
9.08942e-06
5.44216e-05
9.08708e-06
5.13934e-05
9.08478e-06
4.83659e-05
9.08255e-06
4.53391e-05
9.08038e-06
4.23131e-05
9.07829e-06
3.92877e-05
9.07629e-06
3.6263e-05
9.07439e-06
3.32389e-05
9.0726e-06
3.02153e-05
9.07093e-06
2.71922e-05
9.06939e-06
2.41696e-05
9.06798e-06
2.11475e-05
9.06672e-06
1.81257e-05
9.06559e-06
1.51043e-05
9.06462e-06
1.20831e-05
9.06381e-06
9.06211e-06
9.06315e-06
6.04131e-06
9.06266e-06
3.02063e-06
9.06233e-06
9.06216e-06
3.71265e-06
-1.48513e-05
7.42535e-06
-1.48515e-05
1.11382e-05
-1.48519e-05
1.48511e-05
-1.48526e-05
1.85643e-05
-1.48534e-05
2.22778e-05
-1.48544e-05
2.59915e-05
-1.48555e-05
2.97056e-05
-1.48568e-05
3.34201e-05
-1.48582e-05
3.7135e-05
-1.48597e-05
4.08503e-05
-1.48613e-05
4.4566e-05
-1.48629e-05
4.82822e-05
-1.48645e-05
5.19988e-05
-1.48661e-05
5.57158e-05
-1.48676e-05
5.94332e-05
-1.48689e-05
6.3151e-05
-1.48701e-05
6.6869e-05
-1.48711e-05
7.05872e-05
-1.48717e-05
7.43056e-05
-1.48721e-05
7.8024e-05
-1.4872e-05
8.17423e-05
-1.48714e-05
8.54604e-05
-1.48703e-05
8.91782e-05
-1.48686e-05
9.28954e-05
-1.48663e-05
9.6612e-05
-1.48631e-05
0.000100328
-1.48592e-05
0.000104042
-1.48543e-05
0.000107755
-1.48484e-05
0.000111466
-1.48414e-05
0.000115176
-1.48332e-05
0.000118883
-1.48237e-05
0.000122588
-1.48129e-05
0.000126289
-1.48005e-05
0.000129987
-1.47866e-05
0.000133682
-1.4771e-05
0.000137372
-1.47536e-05
0.000141057
-1.47343e-05
0.000144737
-1.4713e-05
0.000148411
-1.46896e-05
0.000152079
-1.46639e-05
0.000155741
-1.46358e-05
0.000159394
-1.46053e-05
0.00016304
-1.45721e-05
0.000166676
-1.45363e-05
0.000170303
-1.44976e-05
0.00017392
-1.44559e-05
0.000177525
-1.44111e-05
0.000181119
-1.43632e-05
0.0001847
-1.43118e-05
0.000188267
-1.42571e-05
0.00019182
-1.41987e-05
0.000195358
-1.41367e-05
0.000198879
-1.40708e-05
0.000202383
-1.4001e-05
0.000205868
-1.39272e-05
0.000209334
-1.38491e-05
0.00021278
-1.37668e-05
0.000216204
-1.36801e-05
0.000219605
-1.35889e-05
0.000222982
-1.34931e-05
0.000226335
-1.33925e-05
0.000229661
-1.32872e-05
0.000232959
-1.3177e-05
0.000236229
-1.30618e-05
0.000239469
-1.29416e-05
0.000242678
-1.28162e-05
0.000245854
-1.26856e-05
0.000248996
-1.25498e-05
0.000252103
-1.24086e-05
0.000255173
-1.22621e-05
0.000258205
-1.21101e-05
0.000261198
-1.19527e-05
0.00026415
-1.17898e-05
0.000267061
-1.16215e-05
0.000269927
-1.14476e-05
0.000272749
-1.12682e-05
0.000275525
-1.10834e-05
0.000278253
-1.0893e-05
0.000280932
-1.06972e-05
0.000283561
-1.0496e-05
0.000286138
-1.02894e-05
0.000288661
-1.00774e-05
0.000291131
-9.86022e-06
0.000293545
-9.63783e-06
0.000295902
-9.41033e-06
0.000298201
-9.17781e-06
0.00030044
-8.94038e-06
0.000302619
-8.69815e-06
0.000304735
-8.45123e-06
0.000306789
-8.19976e-06
0.000308779
-7.94387e-06
0.000310703
-7.68371e-06
0.000312562
-7.41943e-06
0.000314353
-7.15121e-06
0.000316076
-6.8792e-06
0.00031773
-6.60359e-06
0.000319314
-6.32457e-06
0.000320827
-6.04233e-06
0.000322268
-5.75706e-06
0.000323638
-5.46897e-06
0.000324935
-5.17827e-06
0.000326158
-4.88517e-06
0.000327307
-4.5899e-06
0.000328382
-4.29268e-06
0.000329381
-3.99373e-06
0.000330306
-3.69328e-06
0.000331155
-3.39157e-06
0.000331928
-3.08882e-06
0.000332624
-2.78528e-06
0.000333245
-2.48117e-06
0.000333789
-2.17672e-06
0.000334257
-1.87219e-06
0.000334649
-1.56778e-06
0.000334964
-1.26375e-06
0.000335204
-9.60311e-07
0.000335367
-6.57694e-07
0.000335455
-3.56122e-07
0.000335468
-5.58139e-08
0.000335405
2.43014e-07
0.000335269
5.40152e-07
0.000335058
8.35394e-07
0.000334774
1.12854e-06
0.000334417
1.4194e-06
0.000333988
1.70777e-06
0.000333487
1.99349e-06
0.000332915
2.27637e-06
0.000332273
2.55624e-06
0.000331562
2.83295e-06
0.000330783
3.10633e-06
0.000329935
3.37625e-06
0.000329021
3.64256e-06
0.000328042
3.90514e-06
0.000326997
4.16385e-06
0.000325889
4.41859e-06
0.000324718
4.66925e-06
0.000323486
4.91572e-06
0.000322192
5.15792e-06
0.000320839
5.39577e-06
0.000319428
5.62918e-06
0.00031796
5.85809e-06
0.000316435
6.08244e-06
0.000314856
6.30218e-06
0.000313222
6.51726e-06
0.000311536
6.72765e-06
0.000309799
6.93331e-06
0.000308011
7.13422e-06
0.000306174
7.33037e-06
0.000304289
7.52174e-06
0.000302358
7.70834e-06
0.000300382
7.89016e-06
0.000298361
8.06721e-06
0.000296297
8.2395e-06
0.000294191
8.40707e-06
0.000292044
8.56992e-06
0.000289858
8.7281e-06
0.000287634
8.88163e-06
0.000285372
9.03055e-06
0.000283074
9.17491e-06
0.000280742
9.31476e-06
0.000278375
9.45015e-06
0.000275976
9.58112e-06
0.000273546
9.70775e-06
0.000271084
9.83009e-06
0.000268594
9.9482e-06
0.000266075
1.00621e-05
0.000263528
1.0172e-05
0.000260955
1.02778e-05
0.000258357
1.03797e-05
0.000255734
1.04778e-05
0.000253088
1.0572e-05
0.000250419
1.06625e-05
0.000247729
1.07493e-05
0.000245017
1.08326e-05
0.000242286
1.09125e-05
0.000239536
1.09889e-05
0.000236768
1.1062e-05
0.000233982
1.11319e-05
0.00023118
1.11986e-05
0.000228362
1.12623e-05
0.000225528
1.13229e-05
0.000222681
1.13807e-05
0.000219819
1.14356e-05
0.000216945
1.14878e-05
0.000214058
1.15373e-05
0.00021116
1.15843e-05
0.000208251
1.16288e-05
0.000205331
1.16708e-05
0.000202402
1.17105e-05
0.000199463
1.1748e-05
0.000196515
1.17832e-05
0.000193559
1.18163e-05
0.000190596
1.18475e-05
0.000187625
1.18766e-05
0.000184647
1.19039e-05
0.000181663
1.19293e-05
0.000178674
1.1953e-05
0.000175678
1.1975e-05
0.000172678
1.19955e-05
0.000169673
1.20143e-05
0.000166664
1.20317e-05
0.000163651
1.20477e-05
0.000160634
1.20623e-05
0.000157614
1.20757e-05
0.000154591
1.20878e-05
0.000151566
1.20988e-05
0.000148538
1.21086e-05
0.000145507
1.21174e-05
0.000142475
1.21252e-05
0.000139441
1.2132e-05
0.000136406
1.2138e-05
0.00013337
1.21431e-05
0.000130332
1.21474e-05
0.000127294
1.2151e-05
0.000124255
1.21539e-05
0.000121215
1.21561e-05
0.000118175
1.21577e-05
0.000115135
1.21587e-05
0.000112095
1.21593e-05
0.000109055
1.21593e-05
0.000106015
1.21589e-05
0.000102975
1.21581e-05
9.99353e-05
1.21569e-05
9.68962e-05
1.21554e-05
9.38575e-05
1.21536e-05
9.08194e-05
1.21515e-05
8.7782e-05
1.21492e-05
8.47452e-05
1.21466e-05
8.17091e-05
1.21439e-05
7.86737e-05
1.21411e-05
7.56391e-05
1.21381e-05
7.26052e-05
1.21351e-05
6.95722e-05
1.21319e-05
6.654e-05
1.21287e-05
6.35086e-05
1.21256e-05
6.0478e-05
1.21224e-05
5.74483e-05
1.21192e-05
5.44193e-05
1.2116e-05
5.13911e-05
1.2113e-05
4.83637e-05
1.211e-05
4.53371e-05
1.2107e-05
4.23111e-05
1.21042e-05
3.92858e-05
1.21016e-05
3.62612e-05
1.2099e-05
3.32372e-05
1.20966e-05
3.02137e-05
1.20944e-05
2.71908e-05
1.20923e-05
2.41684e-05
1.20904e-05
2.11464e-05
1.20887e-05
1.81247e-05
1.20872e-05
1.51034e-05
1.20859e-05
1.20824e-05
1.20848e-05
9.06161e-06
1.2084e-05
6.04098e-06
1.20833e-05
3.02046e-06
1.20828e-05
1.20826e-05
3.71244e-06
-1.85637e-05
7.42493e-06
-1.8564e-05
1.11375e-05
-1.85645e-05
1.48503e-05
-1.85653e-05
1.85633e-05
-1.85664e-05
2.22766e-05
-1.85676e-05
2.59902e-05
-1.85691e-05
2.97042e-05
-1.85708e-05
3.34186e-05
-1.85726e-05
3.71334e-05
-1.85746e-05
4.08487e-05
-1.85766e-05
4.45644e-05
-1.85787e-05
4.82806e-05
-1.85808e-05
5.19973e-05
-1.85828e-05
5.57145e-05
-1.85847e-05
5.9432e-05
-1.85865e-05
6.315e-05
-1.85881e-05
6.68683e-05
-1.85894e-05
7.05869e-05
-1.85903e-05
7.43057e-05
-1.85908e-05
7.80245e-05
-1.85908e-05
8.17434e-05
-1.85903e-05
8.54621e-05
-1.85891e-05
8.91806e-05
-1.85871e-05
9.28986e-05
-1.85843e-05
9.66159e-05
-1.85805e-05
0.000100332
-1.85757e-05
0.000104048
-1.85697e-05
0.000107762
-1.85625e-05
0.000111475
-1.85539e-05
0.000115185
-1.85439e-05
0.000118894
-1.85322e-05
0.0001226
-1.85189e-05
0.000126303
-1.85036e-05
0.000130003
-1.84864e-05
0.000133699
-1.84671e-05
0.000137391
-1.84456e-05
0.000141078
-1.84217e-05
0.000144761
-1.83952e-05
0.000148437
-1.83662e-05
0.000152108
-1.83343e-05
0.000155771
-1.82994e-05
0.000159427
-1.82615e-05
0.000163075
-1.82203e-05
0.000166715
-1.81757e-05
0.000170345
-1.81275e-05
0.000173965
-1.80756e-05
0.000177573
-1.80199e-05
0.00018117
-1.79602e-05
0.000184755
-1.78963e-05
0.000188326
-1.78281e-05
0.000191882
-1.77554e-05
0.000195424
-1.7678e-05
0.000198949
-1.75959e-05
0.000202457
-1.75089e-05
0.000205946
-1.74168e-05
0.000209417
-1.73194e-05
0.000212867
-1.72167e-05
0.000216295
-1.71086e-05
0.000219701
-1.69947e-05
0.000223083
-1.68751e-05
0.00022644
-1.67497e-05
0.000229771
-1.66182e-05
0.000233075
-1.64806e-05
0.00023635
-1.63367e-05
0.000239595
-1.61866e-05
0.000242808
-1.603e-05
0.00024599
-1.58669e-05
0.000249137
-1.56972e-05
0.000252249
-1.55208e-05
0.000255325
-1.53377e-05
0.000258363
-1.51478e-05
0.000261361
-1.49511e-05
0.000264319
-1.47476e-05
0.000267235
-1.45372e-05
0.000270107
-1.43198e-05
0.000272934
-1.40956e-05
0.000275715
-1.38645e-05
0.000278449
-1.36265e-05
0.000281133
-1.33817e-05
0.000283767
-1.313e-05
0.00028635
-1.28717e-05
0.000288879
-1.26066e-05
0.000291354
-1.2335e-05
0.000293773
-1.20568e-05
0.000296135
-1.17723e-05
0.000298438
-1.14815e-05
0.000300682
-1.11845e-05
0.000302866
-1.08815e-05
0.000304987
-1.05726e-05
0.000307045
-1.0258e-05
0.000309039
-9.93783e-06
0.000310968
-9.61234e-06
0.00031283
-9.28169e-06
0.000314625
-8.94609e-06
0.000316351
-8.60575e-06
0.000318009
-8.26089e-06
0.000319596
-7.91175e-06
0.000321112
-7.55857e-06
0.000322557
-7.2016e-06
0.000323929
-6.84109e-06
0.000325228
-6.47732e-06
0.000326453
-6.11054e-06
0.000327604
-5.74104e-06
0.000328681
-5.36908e-06
0.000329682
-4.99497e-06
0.000330608
-4.61898e-06
0.000331457
-4.2414e-06
0.000332231
-3.86253e-06
0.000332929
-3.48266e-06
0.000333549
-3.10208e-06
0.000334094
-2.72109e-06
0.000334562
-2.33998e-06
0.000334953
-1.95905e-06
0.000335268
-1.57857e-06
0.000335506
-1.19885e-06
0.000335669
-8.20163e-07
0.000335755
-4.42787e-07
0.000335767
-6.69996e-08
0.000335703
3.0693e-07
0.000335564
6.78738e-07
0.000335351
1.04817e-06
0.000335065
1.41496e-06
0.000334705
1.77888e-06
0.000334273
2.1397e-06
0.00033377
2.49717e-06
0.000333195
2.85108e-06
0.00033255
3.20123e-06
0.000331836
3.5474e-06
0.000331053
3.88941e-06
0.000330202
4.22706e-06
0.000329284
4.5602e-06
0.000328301
4.88865e-06
0.000327252
5.21226e-06
0.00032614
5.53089e-06
0.000324965
5.84439e-06
0.000323728
6.15266e-06
0.00032243
6.45556e-06
0.000321073
6.75301e-06
0.000319657
7.0449e-06
0.000318184
7.33115e-06
0.000316655
7.61169e-06
0.000315071
7.88645e-06
0.000313433
8.15537e-06
0.000311742
8.41841e-06
0.00031
8.67553e-06
0.000308207
8.9267e-06
0.000306366
9.17191e-06
0.000304476
9.41113e-06
0.00030254
9.64437e-06
0.000300559
9.87163e-06
0.000298533
1.00929e-05
0.000296464
1.03082e-05
0.000294354
1.05177e-05
0.000292202
1.07212e-05
0.000290012
1.09188e-05
0.000287783
1.11107e-05
0.000285516
1.12967e-05
0.000283214
1.14771e-05
0.000280877
1.16518e-05
0.000278506
1.18209e-05
0.000276103
1.19846e-05
0.000273668
1.21427e-05
0.000271203
1.22955e-05
0.000268708
1.2443e-05
0.000266184
1.25854e-05
0.000263634
1.27225e-05
0.000261057
1.28547e-05
0.000258455
1.29819e-05
0.000255828
1.31043e-05
0.000253178
1.32219e-05
0.000250506
1.33349e-05
0.000247812
1.34434e-05
0.000245097
1.35473e-05
0.000242363
1.3647e-05
0.000239609
1.37423e-05
0.000236838
1.38336e-05