/*--------------------------------*- C++ -*----------------------------------*\
| =========                 |                                                 |
| \\      /  F ield         | OpenFOAM: The Open Source CFD Toolbox           |
|  \\    /   O peration     | Version:  v2012                                 |
|   \\  /    A nd           | Website:  www.openfoam.com                      |
|    \\/     M anipulation  |                                                 |
\*---------------------------------------------------------------------------*/
FoamFile
{
    version     2.0;
    format      ascii;
    class       volScalarField;
    location    "9.25";
    object      Psi_z;
}
// * * * * * * * * * * * * * * * * * * * * * * * * * * * * * * * * * * * * * //

dimensions      [0 2 -1 0 0 0 0];


internalField   nonuniform List<scalar> 
65536
(
9.28187e-06
2.78457e-05
4.641e-05
6.49749e-05
8.35406e-05
0.000102107
0.000120676
0.000139245
0.000157816
0.00017639
0.000194964
0.000213541
0.00023212
0.000250701
0.000269283
0.000287867
0.000306453
0.00032504
0.000343627
0.000362215
0.000380803
0.000399391
0.000417977
0.000436562
0.000455144
0.000473722
0.000492296
0.000510863
0.000529424
0.000547977
0.00056652
0.000585051
0.00060357
0.000622074
0.000640562
0.00065903
0.000677478
0.000695903
0.000714302
0.000732673
0.000751013
0.000769319
0.000787588
0.000805817
0.000824002
0.000842141
0.000860229
0.000878263
0.000896239
0.000914153
0.000931999
0.000949775
0.000967476
0.000985096
0.00100263
0.00102008
0.00103743
0.00105468
0.00107182
0.00108885
0.00110577
0.00112256
0.00113922
0.00115575
0.00117214
0.00118838
0.00120447
0.00122039
0.00123615
0.00125174
0.00126715
0.00128237
0.00129739
0.00131222
0.00132684
0.00134125
0.00135543
0.00136939
0.00138311
0.0013966
0.00140983
0.00142281
0.00143553
0.00144798
0.00146015
0.00147205
0.00148366
0.00149497
0.00150599
0.00151669
0.00152709
0.00153718
0.00154693
0.00155637
0.00156547
0.00157423
0.00158265
0.00159073
0.00159845
0.00160582
0.00161283
0.00161949
0.00162577
0.00163169
0.00163724
0.00164242
0.00164723
0.00165165
0.00165571
0.00165938
0.00166267
0.00166559
0.00166812
0.00167027
0.00167205
0.00167344
0.00167446
0.0016751
0.00167536
0.00167525
0.00167477
0.00167392
0.0016727
0.00167112
0.00166917
0.00166687
0.00166421
0.0016612
0.00165784
0.00165414
0.0016501
0.00164573
0.00164102
0.00163599
0.00163064
0.00162497
0.00161899
0.00161271
0.00160612
0.00159924
0.00159208
0.00158463
0.0015769
0.0015689
0.00156063
0.00155211
0.00154333
0.0015343
0.00152503
0.00151552
0.00150579
0.00149583
0.00148565
0.00147525
0.00146465
0.00145385
0.00144286
0.00143167
0.00142031
0.00140876
0.00139704
0.00138516
0.00137311
0.00136091
0.00134856
0.00133606
0.00132342
0.00131065
0.00129775
0.00128472
0.00127157
0.00125831
0.00124493
0.00123145
0.00121787
0.00120419
0.00119041
0.00117654
0.00116259
0.00114856
0.00113445
0.00112027
0.00110601
0.00109169
0.0010773
0.00106285
0.00104835
0.00103379
0.00101918
0.00100452
0.00098982
0.000975073
0.000960286
0.000945461
0.000930601
0.000915708
0.000900783
0.00088583
0.00087085
0.000855846
0.000840818
0.00082577
0.000810702
0.000795617
0.000780516
0.0007654
0.000750271
0.00073513
0.000719979
0.000704818
0.00068965
0.000674474
0.000659293
0.000644106
0.000628915
0.000613721
0.000598525
0.000583326
0.000568127
0.000552927
0.000537728
0.000522529
0.000507331
0.000492135
0.000476941
0.000461749
0.00044656
0.000431374
0.000416192
0.000401012
0.000385837
0.000370664
0.000355496
0.000340332
0.000325172
0.000310015
0.000294863
0.000279714
0.00026457
0.000249429
0.000234291
0.000219158
0.000204027
0.0001889
0.000173776
0.000158655
0.000143537
0.000128421
0.000113307
9.81955e-05
8.30855e-05
6.7977e-05
5.28697e-05
3.77634e-05
2.26578e-05
7.55254e-06
2.78455e-05
8.35368e-05
0.000139229
0.000194924
0.000250621
0.000306321
0.000362025
0.000417734
0.000473448
0.000529167
0.000584891
0.000640622
0.000696358
0.0007521
0.000807848
0.0008636
0.000919357
0.000975118
0.00103088
0.00108665
0.00114241
0.00119817
0.00125393
0.00130969
0.00136544
0.00142117
0.00147689
0.0015326
0.00158828
0.00164394
0.00169957
0.00175517
0.00181073
0.00186624
0.0019217
0.00197711
0.00203246
0.00208773
0.00214293
0.00219805
0.00225307
0.00230799
0.0023628
0.00241749
0.00247205
0.00252647
0.00258074
0.00263485
0.00268878
0.00274252
0.00279607
0.0028494
0.00290251
0.00295537
0.00300798
0.00306032
0.00311238
0.00316413
0.00321557
0.00326667
0.00331742
0.00336781
0.0034178
0.0034674
0.00351656
0.00356529
0.00361356
0.00366134
0.00370863
0.0037554
0.00380163
0.00384729
0.00389238
0.00393687
0.00398074
0.00402396
0.00406652
0.0041084
0.00414958
0.00419003
0.00422974
0.00426869
0.00430685
0.00434421
0.00438074
0.00441643
0.00445126
0.00448521
0.00451826
0.00455039
0.0045816
0.00461185
0.00464113
0.00466943
0.00469674
0.00472303
0.0047483
0.00477253
0.0047957
0.00481782
0.00483886
0.00485882
0.00487768
0.00489545
0.0049121
0.00492764
0.00494205
0.00495534
0.00496749
0.00497851
0.00498839
0.00499714
0.00500474
0.0050112
0.00501652
0.00502071
0.00502376
0.00502567
0.00502646
0.00502613
0.00502468
0.00502213
0.00501847
0.00501371
0.00500787
0.00500096
0.00499298
0.00498395
0.00497387
0.00496276
0.00495063
0.0049375
0.00492338
0.00490828
0.00489222
0.00487521
0.00485727
0.00483842
0.00481866
0.00479802
0.00477651
0.00475416
0.00473097
0.00470696
0.00468216
0.00465658
0.00463023
0.00460314
0.00457533
0.0045468
0.00451758
0.00448769
0.00445715
0.00442596
0.00439416
0.00436175
0.00432876
0.0042952
0.00426109
0.00422645
0.00419129
0.00415563
0.00411949
0.00408288
0.00404582
0.00400832
0.0039704
0.00393208
0.00389337
0.00385428
0.00381483
0.00377503
0.0037349
0.00369445
0.0036537
0.00361265
0.00357132
0.00352972
0.00348786
0.00344576
0.00340342
0.00336087
0.0033181
0.00327513
0.00323196
0.00318862
0.0031451
0.00310143
0.00305759
0.00301362
0.0029695
0.00292526
0.0028809
0.00283642
0.00279184
0.00274715
0.00270238
0.00265752
0.00261257
0.00256756
0.00252248
0.00247733
0.00243212
0.00238687
0.00234156
0.00229621
0.00225082
0.0022054
0.00215995
0.00211446
0.00206896
0.00202343
0.00197788
0.00193232
0.00188675
0.00184117
0.00179558
0.00174998
0.00170438
0.00165878
0.00161318
0.00156758
0.00152199
0.0014764
0.00143082
0.00138525
0.00133968
0.00129412
0.00124857
0.00120303
0.00115751
0.00111199
0.00106648
0.00102099
0.000975511
0.000930041
0.000884584
0.000839138
0.000793705
0.000748282
0.00070287
0.000657469
0.000612079
0.000566698
0.000521326
0.000475963
0.000430608
0.000385261
0.00033992
0.000294585
0.000249255
0.00020393
0.000158608
0.000113289
6.79729e-05
2.26575e-05
4.64087e-05
0.000139227
0.000232047
0.00032487
0.000417698
0.000510531
0.000603371
0.000696218
0.000789074
0.000881938
0.000974813
0.0010677
0.00116059
0.00125349
0.00134641
0.00143933
0.00153226
0.00162519
0.00171813
0.00181108
0.00190402
0.00199696
0.0020899
0.00218282
0.00227574
0.00236863
0.00246151
0.00255435
0.00264716
0.00273993
0.00283266
0.00292532
0.00301792
0.00311045
0.0032029
0.00329526
0.00338751
0.00347964
0.00357165
0.00366352
0.00375523
0.00384678
0.00393814
0.0040293
0.00412025
0.00421096
0.00430142
0.00439161
0.00448151
0.0045711
0.00466035
0.00474925
0.00483778
0.00492591
0.00501361
0.00510086
0.00518763
0.00527391
0.00535966
0.00544485
0.00552945
0.00561344
0.00569679
0.00577946
0.00586143
0.00594267
0.00602313
0.0061028
0.00618163
0.0062596
0.00633667
0.0064128
0.00648797
0.00656214
0.00663527
0.00670734
0.0067783
0.00684812
0.00691677
0.00698422
0.00705042
0.00711535
0.00717898
0.00724126
0.00730217
0.00736168
0.00741975
0.00747635
0.00753145
0.00758503
0.00763705
0.00768748
0.00773631
0.00778349
0.00782902
0.00787285
0.00791498
0.00795538
0.00799402
0.00803089
0.00806597
0.00809924
0.0081307
0.00816031
0.00818807
0.00821397
0.008238
0.00826015
0.00828042
0.00829879
0.00831526
0.00832983
0.0083425
0.00835327
0.00836213
0.00836911
0.00837418
0.00837738
0.00837869
0.00837813
0.00837571
0.00837144
0.00836533
0.00835739
0.00834765
0.00833612
0.0083228
0.00830773
0.00829093
0.0082724
0.00825217
0.00823027
0.00820672
0.00818154
0.00815475
0.00812639
0.00809647
0.00806503
0.00803208
0.00799766
0.0079618
0.00792452
0.00788585
0.00784582
0.00780447
0.00776181
0.00771788
0.00767271
0.00762633
0.00757877
0.00753005
0.00748021
0.00742929
0.00737729
0.00732427
0.00727024
0.00721523
0.00715928
0.00710242
0.00704466
0.00698604
0.00692659
0.00686634
0.0068053
0.00674352
0.006681
0.00661779
0.0065539
0.00648936
0.0064242
0.00635843
0.00629209
0.00622519
0.00615776
0.00608982
0.00602139
0.00595249
0.00588315
0.00581337
0.00574319
0.00567262
0.00560168
0.00553039
0.00545876
0.00538681
0.00531456
0.00524202
0.00516921
0.00509615
0.00502285
0.00494931
0.00487557
0.00480162
0.00472748
0.00465317
0.00457869
0.00450406
0.00442928
0.00435437
0.00427934
0.00420419
0.00412894
0.0040536
0.00397816
0.00390265
0.00382706
0.00375141
0.0036757
0.00359994
0.00352413
0.00344828
0.0033724
0.00329649
0.00322055
0.00314459
0.00306862
0.00299263
0.00291664
0.00284064
0.00276463
0.00268863
0.00261264
0.00253665
0.00246066
0.00238469
0.00230873
0.00223279
0.00215686
0.00208094
0.00200504
0.00192916
0.0018533
0.00177746
0.00170164
0.00162584
0.00155006
0.00147429
0.00139855
0.00132283
0.00124712
0.00117144
0.00109577
0.00102012
0.000944486
0.000868867
0.000793263
0.000717672
0.000642093
0.000566526
0.000490969
0.00041542
0.000339879
0.000264344
0.000188813
0.000113287
3.7762e-05
6.49713e-05
0.000194915
0.000324861
0.000454812
0.000584769
0.000714734
0.000844708
0.000974694
0.00110469
0.0012347
0.00136472
0.00149476
0.00162481
0.00175488
0.00188496
0.00201505
0.00214515
0.00227526
0.00240538
0.00253551
0.00266563
0.00279575
0.00292587
0.00305597
0.00318606
0.00331612
0.00344615
0.00357614
0.00370609
0.00383597
0.0039658
0.00409554
0.0042252
0.00435475
0.00448419
0.0046135
0.00474267
0.00487168
0.00500051
0.00512914
0.00525756
0.00538575
0.00551367
0.00564132
0.00576867
0.00589569
0.00602236
0.00614866
0.00627454
0.0064
0.00652499
0.00664948
0.00677345
0.00689686
0.00701968
0.00714187
0.00726339
0.00738421
0.0075043
0.0076236
0.00774209
0.00785972
0.00797645
0.00809223
0.00820704
0.00832081
0.0084335
0.00854508
0.00865549
0.00876469
0.00887264
0.00897927
0.00908456
0.00918844
0.00929088
0.00939182
0.00949121
0.00958901
0.00968517
0.00977964
0.00987238
0.00996333
0.0100524
0.0101397
0.010225
0.0103084
0.0103897
0.010469
0.0105462
0.0106212
0.0106941
0.0107647
0.0108331
0.0108992
0.010963
0.0110244
0.0110834
0.01114
0.0111941
0.0112458
0.0112949
0.0113415
0.0113855
0.011427
0.0114659
0.0115022
0.0115358
0.0115669
0.0115952
0.011621
0.011644
0.0116644
0.0116822
0.0116972
0.0117096
0.0117194
0.0117265
0.011731
0.0117328
0.011732
0.0117286
0.0117226
0.011714
0.0117029
0.0116892
0.011673
0.0116544
0.0116333
0.0116097
0.0115837
0.0115554
0.0115247
0.0114917
0.0114564
0.0114189
0.0113791
0.0113372
0.0112931
0.011247
0.0111988
0.0111485
0.0110963
0.0110421
0.010986
0.0109281
0.0108683
0.0108068
0.0107435
0.0106785
0.0106119
0.0105436
0.0104738
0.0104025
0.0103297
0.0102554
0.0101797
0.0101027
0.0100243
0.00994463
0.00986373
0.00978163
0.00969836
0.00961396
0.00952848
0.00944194
0.00935438
0.00926585
0.00917637
0.00908598
0.00899472
0.00890262
0.00880971
0.00871602
0.00862158
0.00852643
0.0084306
0.00833412
0.008237
0.00813929
0.00804101
0.00794219
0.00784285
0.00774301
0.00764271
0.00754196
0.00744078
0.00733921
0.00723726
0.00713495
0.0070323
0.00692934
0.00682608
0.00672253
0.00661872
0.00651467
0.00641038
0.00630588
0.00620118
0.00609629
0.00599124
0.00588602
0.00578066
0.00567516
0.00556954
0.00546381
0.00535798
0.00525206
0.00514606
0.00503998
0.00493384
0.00482764
0.0047214
0.00461512
0.0045088
0.00440245
0.00429608
0.00418969
0.0040833
0.00397689
0.00387049
0.00376408
0.00365768
0.00355129
0.00344492
0.00333855
0.00323221
0.00312588
0.00301957
0.00291329
0.00280703
0.0027008
0.0025946
0.00248842
0.00238227
0.00227614
0.00217005
0.00206398
0.00195794
0.00185193
0.00174595
0.00163999
0.00153406
0.00142815
0.00132226
0.00121639
0.00111055
0.00100472
0.000898915
0.000793122
0.000687344
0.000581577
0.000475822
0.000370074
0.000264334
0.000158598
5.28658e-05
8.35329e-05
0.0002506
0.000417671
0.000584747
0.000751832
0.000918928
0.00108604
0.00125316
0.00142029
0.00158745
0.00175462
0.00192181
0.00208902
0.00225625
0.0024235
0.00259076
0.00275804
0.00292533
0.00309263
0.00325994
0.00342725
0.00359455
0.00376185
0.00392914
0.0040964
0.00426363
0.00443083
0.00459798
0.00476506
0.00493208
0.00509901
0.00526585
0.00543257
0.00559916
0.00576561
0.0059319
0.006098
0.00626389
0.00642956
0.00659498
0.00676013
0.00692497
0.00708949
0.00725365
0.00741742
0.00758078
0.00774369
0.00790611
0.00806802
0.00822937
0.00839012
0.00855024
0.00870968
0.00886841
0.00902638
0.00918354
0.00933985
0.00949526
0.00964972
0.00980318
0.00995559
0.0101069
0.0102571
0.010406
0.0105537
0.0107
0.010845
0.0109885
0.0111306
0.0112711
0.0114099
0.0115471
0.0116825
0.0118162
0.011948
0.0120778
0.0122057
0.0123315
0.0124553
0.0125768
0.0126961
0.0128131
0.0129278
0.01304
0.0131498
0.0132571
0.0133617
0.0134637
0.013563
0.0136596
0.0137533
0.0138442
0.0139322
0.0140173
0.0140993
0.0141783
0.0142542
0.014327
0.0143967
0.0144631
0.0145263
0.0145863
0.014643
0.0146963
0.0147464
0.014793
0.0148363
0.0148762
0.0149127
0.0149458
0.0149754
0.0150017
0.0150245
0.0150439
0.0150598
0.0150723
0.0150815
0.0150872
0.0150895
0.0150884
0.015084
0.0150763
0.0150653
0.0150509
0.0150333
0.0150125
0.0149884
0.0149612
0.0149309
0.0148974
0.014861
0.0148214
0.0147789
0.0147335
0.0146852
0.014634
0.0145801
0.0145234
0.0144639
0.0144019
0.0143372
0.01427
0.0142002
0.0141281
0.0140535
0.0139766
0.0138974
0.013816
0.0137324
0.0136466
0.0135588
0.013469
0.0133772
0.0132835
0.0131879
0.0130905
0.0129914
0.0128906
0.0127881
0.012684
0.0125784
0.0124713
0.0123627
0.0122527
0.0121414
0.0120287
0.0119149
0.0117998
0.0116835
0.0115661
0.0114476
0.0113281
0.0112076
0.0110861
0.0109637
0.0108405
0.0107164
0.0105915
0.0104658
0.0103394
0.0102123
0.0100845
0.0099561
0.0098271
0.00969752
0.00956741
0.00943678
0.00930566
0.00917409
0.00904208
0.00890966
0.00877687
0.00864371
0.00851021
0.0083764
0.00824229
0.00810791
0.00797327
0.00783839
0.00770329
0.00756799
0.0074325
0.00729685
0.00716103
0.00702507
0.00688899
0.00675279
0.00661648
0.00648008
0.0063436
0.00620705
0.00607044
0.00593378
0.00579707
0.00566033
0.00552356
0.00538677
0.00524997
0.00511315
0.00497634
0.00483953
0.00470272
0.00456593
0.00442915
0.0042924
0.00415566
0.00401895
0.00388227
0.00374562
0.003609
0.00347242
0.00333586
0.00319935
0.00306287
0.00292642
0.00279002
0.00265365
0.00251731
0.00238101
0.00224475
0.00210851
0.00197232
0.00183615
0.00170001
0.0015639
0.00142782
0.00129176
0.00115572
0.0010197
0.000883707
0.000747724
0.000611756
0.000475798
0.00033985
0.000203907
6.79687e-05
0.000102093
0.000306282
0.000510474
0.000714675
0.000918885
0.00112311
0.00132735
0.00153161
0.00173588
0.00194018
0.0021445
0.00234884
0.00255321
0.0027576
0.00296202
0.00316645
0.00337091
0.00357538
0.00377987
0.00398436
0.00418886
0.00439336
0.00459785
0.00480232
0.00500677
0.00521119
0.00541556
0.00561987
0.00582411
0.00602827
0.00623233
0.00643627
0.00664007
0.00684372
0.0070472
0.00725047
0.00745353
0.00765633
0.00785886
0.00806109
0.00826299
0.00846452
0.00866566
0.00886636
0.00906659
0.00926632
0.0094655
0.00966409
0.00986205
0.0100593
0.0102559
0.0104517
0.0106466
0.0108407
0.0110339
0.0112261
0.0114172
0.0116072
0.0117961
0.0119838
0.0121702
0.0123552
0.0125389
0.012721
0.0129016
0.0130806
0.0132579
0.0134335
0.0136072
0.013779
0.0139489
0.0141167
0.0142823
0.0144458
0.014607
0.0147659
0.0149223
0.0150762
0.0152275
0.0153762
0.0155221
0.0156653
0.0158055
0.0159429
0.0160771
0.0162083
0.0163364
0.0164612
0.0165826
0.0167008
0.0168155
0.0169267
0.0170343
0.0171383
0.0172387
0.0173353
0.0174282
0.0175173
0.0176024
0.0176837
0.0177611
0.0178344
0.0179037
0.017969
0.0180302
0.0180872
0.0181402
0.018189
0.0182336
0.018274
0.0183103
0.0183424
0.0183702
0.0183939
0.0184134
0.0184287
0.0184398
0.0184468
0.0184496
0.0184483
0.0184428
0.0184333
0.0184198
0.0184022
0.0183806
0.0183551
0.0183256
0.0182923
0.0182552
0.0182142
0.0181695
0.0181212
0.0180691
0.0180135
0.0179544
0.0178917
0.0178257
0.0177563
0.0176835
0.0176076
0.0175284
0.0174462
0.0173608
0.0172725
0.0171813
0.0170872
0.0169903
0.0168906
0.0167883
0.0166834
0.016576
0.0164661
0.0163538
0.0162391
0.0161222
0.0160031
0.0158818
0.0157585
0.0156331
0.0155058
0.0153766
0.0152456
0.0151128
0.0149783
0.0148421
0.0147044
0.0145651
0.0144243
0.0142821
0.0141385
0.0139936
0.0138475
0.0137001
0.0135516
0.0134019
0.0132512
0.0130994
0.0129467
0.012793
0.0126384
0.012483
0.0123268
0.0121698
0.0120121
0.0118536
0.0116945
0.0115348
0.0113745
0.0112137
0.0110523
0.0108904
0.010728
0.0105652
0.010402
0.0102384
0.0100745
0.00991019
0.00974559
0.0095807
0.00941555
0.00925015
0.00908452
0.00891869
0.00875266
0.00858647
0.00842011
0.00825362
0.008087
0.00792027
0.00775344
0.00758653
0.00741954
0.00725249
0.00708539
0.00691824
0.00675106
0.00658386
0.00641664
0.00624942
0.00608219
0.00591496
0.00574775
0.00558055
0.00541337
0.00524622
0.00507909
0.004912
0.00474494
0.00457792
0.00441093
0.00424399
0.0040771
0.00391024
0.00374343
0.00357667
0.00340995
0.00324327
0.00307664
0.00291005
0.00274351
0.00257701
0.00241055
0.00224412
0.00207773
0.00191138
0.00174506
0.00157877
0.00141251
0.00124627
0.00108005
0.000913858
0.000747679
0.000581514
0.000415359
0.000249212
8.30703e-05
0.000120652
0.000361959
0.000603271
0.000844592
0.00108593
0.00132727
0.00156864
0.00181003
0.00205145
0.00229289
0.00253436
0.00277585
0.00301738
0.00325893
0.00350052
0.00374213
0.00398376
0.00422542
0.0044671
0.00470879
0.00495048
0.00519218
0.00543387
0.00567554
0.00591718
0.00615879
0.00640035
0.00664184
0.00688325
0.00712456
0.00736576
0.00760682
0.00784773
0.00808846
0.00832898
0.00856927
0.0088093
0.00904905
0.00928847
0.00952754
0.00976622
0.0100045
0.0102423
0.0104795
0.0107163
0.0109524
0.0111879
0.0114227
0.0116568
0.01189
0.0121224
0.0123539
0.0125845
0.012814
0.0130424
0.0132696
0.0134957
0.0137204
0.0139438
0.0141657
0.0143861
0.014605
0.0148222
0.0150376
0.0152512
0.0154629
0.0156726
0.0158803
0.0160857
0.016289
0.0164899
0.0166884
0.0168843
0.0170777
0.0172684
0.0174563
0.0176413
0.0178234
0.0180024
0.0181783
0.018351
0.0185203
0.0186863
0.0188487
0.0190076
0.0191628
0.0193143
0.0194619
0.0196056
0.0197454
0.0198811
0.0200126
0.02014
0.020263
0.0203818
0.0204961
0.020606
0.0207113
0.0208121
0.0209083
0.0209998
0.0210865
0.0211685
0.0212457
0.0213181
0.0213856
0.0214482
0.0215059
0.0215587
0.0216065
0.0216493
0.0216873
0.0217202
0.0217482
0.0217712
0.0217892
0.0218023
0.0218105
0.0218138
0.0218122
0.0218057
0.0217944
0.0217783
0.0217575
0.0217319
0.0217016
0.0216667
0.0216273
0.0215832
0.0215347
0.0214818
0.0214245
0.0213629
0.0212971
0.021227
0.0211529
0.0210747
0.0209925
0.0209064
0.0208165
0.0207228
0.0206254
0.0205244
0.0204199
0.0203119
0.0202005
0.0200859
0.019968
0.0198469
0.0197228
0.0195956
0.0194656
0.0193327
0.0191971
0.0190588
0.0189178
0.0187744
0.0186284
0.0184802
0.0183295
0.0181767
0.0180217
0.0178646
0.0177055
0.0175445
0.0173815
0.0172168
0.0170503
0.0168821
0.0167123
0.0165409
0.0163681
0.0161938
0.0160181
0.0158412
0.0156629
0.0154835
0.0153028
0.0151211
0.0149384
0.0147546
0.0145699
0.0143842
0.0141977
0.0140104
0.0138223
0.0136335
0.0134439
0.0132538
0.0130629
0.0128716
0.0126796
0.0124871
0.0122942
0.0121008
0.011907
0.0117128
0.0115182
0.0113233
0.0111281
0.0109325
0.0107367
0.0105407
0.0103445
0.010148
0.00995138
0.00975458
0.00955763
0.00936055
0.00916336
0.00896607
0.0087687
0.00857125
0.00837374
0.00817618
0.00797859
0.00778097
0.00758333
0.00738568
0.00718803
0.00699039
0.00679276
0.00659515
0.00639756
0.00620001
0.00600249
0.00580501
0.00560757
0.00541017
0.00521283
0.00501553
0.00481828
0.00462109
0.00442395
0.00422686
0.00402983
0.00383285
0.00363593
0.00343906
0.00324223
0.00304546
0.00284874
0.00265206
0.00245542
0.00225883
0.00206227
0.00186575
0.00166927
0.00147281
0.00127638
0.00107997
0.000883588
0.000687218
0.000490861
0.000294513
9.81703e-05
0.000139209
0.00041763
0.000696058
0.000974496
0.00125295
0.00153142
0.00180992
0.00208844
0.00236699
0.00264557
0.00292418
0.00320283
0.00348152
0.00376024
0.00403899
0.00431778
0.0045966
0.00487544
0.00515431
0.0054332
0.0057121
0.005991
0.0062699
0.00654878
0.00682763
0.00710644
0.0073852
0.00766388
0.00794248
0.00822097
0.00849933
0.00877754
0.00905557
0.0093334
0.00961099
0.00988833
0.0101654
0.0104421
0.0107184
0.0109944
0.0112699
0.0115449
0.0118194
0.0120933
0.0123665
0.0126391
0.012911
0.013182
0.0134523
0.0137215
0.0139899
0.0142571
0.0145233
0.0147883
0.015052
0.0153144
0.0155754
0.0158349
0.0160928
0.0163491
0.0166037
0.0168564
0.0171072
0.017356
0.0176027
0.0178472
0.0180894
0.0183292
0.0185665
0.0188013
0.0190333
0.0192626
0.0194889
0.0197123
0.0199325
0.0201496
0.0203633
0.0205737
0.0207805
0.0209837
0.0211831
0.0213788
0.0215705
0.0217581
0.0219417
0.022121
0.022296
0.0224665
0.0226326
0.022794
0.0229508
0.0231028
0.0232499
0.0233921
0.0235293
0.0236614
0.0237883
0.02391
0.0240264
0.0241375
0.0242432
0.0243434
0.0244381
0.0245273
0.0246108
0.0246888
0.0247611
0.0248277
0.0248887
0.0249439
0.0249934
0.0250371
0.0250751
0.0251074
0.0251339
0.0251547
0.0251698
0.0251792
0.0251829
0.025181
0.0251734
0.0251603
0.0251417
0.0251175
0.0250879
0.0250528
0.0250124
0.0249667
0.0249158
0.0248597
0.0247985
0.0247322
0.0246609
0.0245848
0.0245038
0.024418
0.0243276
0.0242326
0.0241331
0.0240291
0.0239208
0.0238083
0.0236916
0.0235707
0.0234459
0.0233172
0.0231847
0.0230484
0.0229085
0.0227651
0.0226182
0.022468
0.0223144
0.0221577
0.0219979
0.0218351
0.0216693
0.0215008
0.0213295
0.0211555
0.020979
0.0207999
0.0206185
0.0204347
0.0202487
0.0200605
0.0198702
0.0196779
0.0194837
0.0192876
0.0190897
0.0188901
0.0186889
0.018486
0.0182817
0.0180759
0.0178686
0.0176601
0.0174503
0.0172393
0.0170271
0.0168138
0.0165995
0.0163842
0.016168
0.0159508
0.0157328
0.015514
0.0152945
0.0150742
0.0148533
0.0146317
0.0144096
0.0141868
0.0139636
0.0137399
0.0135157
0.0132912
0.0130662
0.0128408
0.0126152
0.0123892
0.012163
0.0119365
0.0117097
0.0114828
0.0112557
0.0110284
0.010801
0.0105734
0.0103457
0.0101179
0.00989007
0.00966214
0.00943416
0.00920614
0.00897809
0.00875002
0.00852195
0.00829387
0.0080658
0.00783775
0.00760972
0.00738173
0.00715377
0.00692585
0.00669798
0.00647015
0.00624238
0.00601467
0.00578701
0.00555942
0.00533189
0.00510442
0.00487701
0.00464966
0.00442238
0.00419516
0.00396801
0.00374091
0.00351387
0.00328688
0.00305995
0.00283307
0.00260624
0.00237945
0.00215271
0.001926
0.00169933
0.00147269
0.00124607
0.00101948
0.00079291
0.000566353
0.000339808
0.000113269
0.000157764
0.000473295
0.000788834
0.00110439
0.00141995
0.00173555
0.00205116
0.00236681
0.0026825
0.00299822
0.00331398
0.00362978
0.00394562
0.0042615
0.00457743
0.0048934
0.0052094
0.00552544
0.00584151
0.0061576
0.00647371
0.00678983
0.00710594
0.00742204
0.00773812
0.00805415
0.00837012
0.00868602
0.00900182
0.00931751
0.00963305
0.00994843
0.0102636
0.0105786
0.0108933
0.0112077
0.0115218
0.0118355
0.0121488
0.0124617
0.012774
0.0130858
0.0133971
0.0137076
0.0140175
0.0143266
0.0146349
0.0149422
0.0152487
0.0155541
0.0158584
0.0161615
0.0164633
0.0167639
0.017063
0.0173606
0.0176566
0.017951
0.0182436
0.0185343
0.018823
0.0191097
0.0193942
0.0196765
0.0199563
0.0202337
0.0205085
0.0207806
0.0210499
0.0213162
0.0215795
0.0218397
0.0220965
0.02235
0.0225999
0.0228462
0.0230888
0.0233275
0.0235622
0.0237928
0.0240191
0.0242411
0.0244587
0.0246717
0.02488
0.0250835
0.0252821
0.0254757
0.0256642
0.0258474
0.0260253
0.0261978
0.0263648
0.0265262
0.0266819
0.0268318
0.0269758
0.027114
0.0272461
0.0273721
0.027492
0.0276058
0.0277132
0.0278144
0.0279092
0.0279977
0.0280797
0.0281553
0.0282244
0.028287
0.0283431
0.0283927
0.0284358
0.0284723
0.0285024
0.0285259
0.028543
0.0285535
0.0285577
0.0285554
0.0285467
0.0285318
0.0285105
0.0284829
0.0284492
0.0284093
0.0283634
0.0283114
0.0282535
0.0281897
0.0281202
0.0280448
0.0279639
0.0278773
0.0277853
0.0276879
0.0275852
0.0274773
0.0273642
0.0272461
0.0271232
0.0269953
0.0268628
0.0267256
0.0265839
0.0264377
0.0262872
0.0261325
0.0259737
0.0258109
0.0256441
0.0254736
0.0252993
0.0251214
0.02494
0.0247553
0.0245672
0.0243759
0.0241814
0.023984
0.0237837
0.0235805
0.0233746
0.0231661
0.0229551
0.0227416
0.0225257
0.0223075
0.0220872
0.0218647
0.0216403
0.0214138
0.0211855
0.0209554
0.0207236
0.0204902
0.0202552
0.0200186
0.0197807
0.0195414
0.0193007
0.0190589
0.0188158
0.0185716
0.0183264
0.0180802
0.017833
0.0175849
0.0173359
0.0170861
0.0168356
0.0165844
0.0163325
0.01608
0.0158269
0.0155733
0.0153191
0.0150645
0.0148094
0.014554
0.0142981
0.014042
0.0137855
0.0135287
0.0132717
0.0130144
0.012757
0.0124993
0.0122415
0.0119835
0.0117254
0.0114672
0.011209
0.0109506
0.0106922
0.0104337
0.0101752
0.00991673
0.00965821
0.0093997
0.0091412
0.00888272
0.00862427
0.00836585
0.00810748
0.00784916
0.00759089
0.00733268
0.00707454
0.00681645
0.00655844
0.00630049
0.00604262
0.00578482
0.00552709
0.00526943
0.00501185
0.00475434
0.0044969
0.00423952
0.00398222
0.00372497
0.00346779
0.00321067
0.0029536
0.00269659
0.00243962
0.00218269
0.00192581
0.00166896
0.00141215
0.00115535
0.000898586
0.000641835
0.000385096
0.000128365
0.000176316
0.000528952
0.000881597
0.00123426
0.00158694
0.00193964
0.00229238
0.00264515
0.00299797
0.00335082
0.00370373
0.00405668
0.00440968
0.00476273
0.00511583
0.00546898
0.00582218
0.00617541
0.00652869
0.00688199
0.00723532
0.00758866
0.007942
0.00829534
0.00864864
0.00900191
0.00935512
0.00970825
0.0100613
0.0104142
0.0107669
0.0111195
0.0114719
0.011824
0.0121758
0.0125274
0.0128785
0.0132293
0.0135796
0.0139294
0.0142787
0.0146274
0.0149754
0.0153227
0.0156692
0.0160149
0.0163596
0.0167034
0.0170461
0.0173877
0.017728
0.0180671
0.0184047
0.0187409
0.0190755
0.0194084
0.0197396
0.0200689
0.0203962
0.0207214
0.0210445
0.0213652
0.0216835
0.0219993
0.0223125
0.0226229
0.0229304
0.0232349
0.0235362
0.0238342
0.0241289
0.02442
0.0247075
0.0249912
0.0252709
0.0255466
0.0258181
0.0260853
0.026348
0.0266061
0.0268594
0.027108
0.0273515
0.0275899
0.0278231
0.0280509
0.0282733
0.02849
0.0287009
0.0289061
0.0291053
0.0292984
0.0294853
0.029666
0.0298402
0.0300081
0.0301693
0.0303239
0.0304718
0.0306129
0.0307471
0.0308744
0.0309947
0.0311079
0.031214
0.031313
0.0314047
0.0314893
0.0315666
0.0316366
0.0316994
0.0317548
0.031803
0.0318438
0.0318773
0.0319036
0.0319226
0.0319343
0.0319388
0.0319362
0.0319264
0.0319095
0.0318855
0.0318546
0.0318167
0.031772
0.0317204
0.0316621
0.0315971
0.0315256
0.0314476
0.0313631
0.0312724
0.0311754
0.0310722
0.0309631
0.030848
0.030727
0.0306004
0.0304681
0.0303303
0.0301871
0.0300386
0.0298849
0.0297262
0.0295625
0.029394
0.0292208
0.0290429
0.0288606
0.0286739
0.0284829
0.0282878
0.0280887
0.0278856
0.0276787
0.0274682
0.027254
0.0270364
0.0268155
0.0265912
0.0263639
0.0261335
0.0259001
0.0256639
0.025425
0.0251834
0.0249393
0.0246928
0.0244439
0.0241927
0.0239394
0.023684
0.0234266
0.0231672
0.0229061
0.0226432
0.0223786
0.0221124
0.0218447
0.0215756
0.0213051
0.0210332
0.0207601
0.0204859
0.0202105
0.019934
0.0196565
0.0193781
0.0190988
0.0188187
0.0185378
0.0182561
0.0179738
0.0176907
0.0174071
0.017123
0.0168383
0.0165531
0.0162675
0.0159814
0.015695
0.0154083
0.0151212
0.0148339
0.0145463
0.0142584
0.0139704
0.0136822
0.0133938
0.0131053
0.0128166
0.0125279
0.0122391
0.0119503
0.0116613
0.0113724
0.0110834
0.0107945
0.0105055
0.0102166
0.00992766
0.00963878
0.00934994
0.00906115
0.00877242
0.00848375
0.00819515
0.00790662
0.00761817
0.00732979
0.0070415
0.00675328
0.00646515
0.0061771
0.00588913
0.00560125
0.00531344
0.00502572
0.00473807
0.0044505
0.004163
0.00387558
0.00358821
0.00330091
0.00301367
0.00272649
0.00243935
0.00215226
0.00186521
0.00157819
0.00129121
0.00100425
0.000717305
0.000430377
0.000143458
0.000194866
0.000584601
0.000974346
0.00136411
0.00175389
0.00214371
0.00253356
0.00292346
0.0033134
0.00370339
0.00409343
0.00448353
0.00487369
0.00526391
0.00565418
0.00604452
0.00643491
0.00682535
0.00721583
0.00760636
0.00799691
0.00838749
0.00877807
0.00916865
0.00955921
0.00994973
0.0103402
0.0107306
0.0111209
0.011511
0.011901
0.0122908
0.0126804
0.0130697
0.0134587
0.0138474
0.0142357
0.0146235
0.0150109
0.0153978
0.015784
0.0161696
0.0165545
0.0169385
0.0173218
0.0177041
0.0180854
0.0184656
0.0188447
0.0192225
0.019599
0.019974
0.0203476
0.0207195
0.0210896
0.021458
0.0218243
0.0221887
0.0225508
0.0229107
0.0232682
0.0236231
0.0239754
0.0243249
0.0246714
0.0250149
0.0253553
0.0256922
0.0260258
0.0263557
0.0266818
0.0270041
0.0273223
0.0276363
0.027946
0.0282512
0.0285517
0.0288475
0.0291383
0.0294241
0.0297046
0.0299798
0.0302494
0.0305134
0.0307716
0.0310239
0.03127
0.03151
0.0317436
0.0319707
0.0321913
0.0324051
0.0326121
0.0328121
0.0330051
0.0331909
0.0333694
0.0335406
0.0337043
0.0338605
0.0340091
0.03415
0.0342832
0.0344085
0.0345259
0.0346355
0.034737
0.0348306
0.0349161
0.0349936
0.0350629
0.0351242
0.0351774
0.0352226
0.0352596
0.0352885
0.0353094
0.0353223
0.0353272
0.0353241
0.0353131
0.0352943
0.0352676
0.0352332
0.0351911
0.0351414
0.0350841
0.0350194
0.0349473
0.034868
0.0347814
0.0346877
0.0345871
0.0344795
0.0343652
0.0342442
0.0341166
0.0339825
0.0338421
0.0336955
0.0335428
0.0333842
0.0332196
0.0330494
0.0328735
0.0326922
0.0325055
0.0323136
0.0321166
0.0319147
0.0317079
0.0314964
0.0312803
0.0310598
0.030835
0.0306059
0.0303728
0.0301357
0.0298948
0.0296502
0.0294019
0.0291502
0.0288952
0.0286369
0.0283755
0.0281111
0.0278437
0.0275736
0.0273007
0.0270253
0.0267474
0.026467
0.0261844
0.0258996
0.0256127
0.0253238
0.0250329
0.0247402
0.0244457
0.0241496
0.0238518
0.0235526
0.0232519
0.0229498
0.0226464
0.0223418
0.0220361
0.0217292
0.0214213
0.0211124
0.0208026
0.0204919
0.0201804
0.0198681
0.0195552
0.0192416
0.0189273
0.0186125
0.0182972
0.0179814
0.0176651
0.0173484
0.0170314
0.016714
0.0163963
0.0160783