/*--------------------------------*- C++ -*----------------------------------*\
| =========                 |                                                 |
| \\      /  F ield         | OpenFOAM: The Open Source CFD Toolbox           |
|  \\    /   O peration     | Version:  v2012                                 |
|   \\  /    A nd           | Website:  www.openfoam.com                      |
|    \\/     M anipulation  |                                                 |
\*---------------------------------------------------------------------------*/
FoamFile
{
    version     2.0;
    format      ascii;
    class       volVectorField;
    location    "9.25";
    object      U;
}
// * * * * * * * * * * * * * * * * * * * * * * * * * * * * * * * * * * * * * //

dimensions      [0 1 -1 0 0 0 0];


internalField   nonuniform List<vector> 
65536
(
(0.000756394 -0.000756399 0)
(0.00226919 -0.00075641 0)
(0.00378202 -0.00075643 0)
(0.0052949 -0.00075646 0)
(0.00680786 -0.0007565 0)
(0.00832089 -0.000756548 0)
(0.00983404 -0.000756604 0)
(0.0113473 -0.000756667 0)
(0.0128607 -0.000756735 0)
(0.0143742 -0.000756808 0)
(0.0158879 -0.000756884 0)
(0.0174018 -0.000756961 0)
(0.0189158 -0.000757038 0)
(0.0204299 -0.000757112 0)
(0.0219442 -0.000757181 0)
(0.0234587 -0.000757243 0)
(0.0249732 -0.000757296 0)
(0.0264879 -0.000757336 0)
(0.0280026 -0.000757362 0)
(0.0295173 -0.00075737 0)
(0.0310321 -0.000757357 0)
(0.0325468 -0.000757319 0)
(0.0340614 -0.000757254 0)
(0.0355758 -0.000757157 0)
(0.03709 -0.000757026 0)
(0.038604 -0.000756855 0)
(0.0401175 -0.000756641 0)
(0.0416306 -0.00075638 0)
(0.0431431 -0.000756067 0)
(0.0446549 -0.000755698 0)
(0.0461659 -0.000755267 0)
(0.047676 -0.000754772 0)
(0.0491851 -0.000754205 0)
(0.0506929 -0.000753563 0)
(0.0521994 -0.000752839 0)
(0.0537044 -0.00075203 0)
(0.0552076 -0.000751129 0)
(0.056709 -0.00075013 0)
(0.0582082 -0.000749028 0)
(0.0597052 -0.000747818 0)
(0.0611996 -0.000746493 0)
(0.0626913 -0.000745047 0)
(0.0641799 -0.000743475 0)
(0.0656653 -0.000741771 0)
(0.0671472 -0.000739927 0)
(0.0686252 -0.000737939 0)
(0.0700991 -0.0007358 0)
(0.0715685 -0.000733503 0)
(0.0730333 -0.000731043 0)
(0.0744929 -0.000728413 0)
(0.0759471 -0.000725607 0)
(0.0773955 -0.000722618 0)
(0.0788377 -0.000719442 0)
(0.0802734 -0.000716071 0)
(0.0817022 -0.000712499 0)
(0.0831237 -0.000708721 0)
(0.0845373 -0.000704731 0)
(0.0859428 -0.000700523 0)
(0.0873396 -0.000696092 0)
(0.0887274 -0.000691432 0)
(0.0901056 -0.000686538 0)
(0.0914738 -0.000681405 0)
(0.0928315 -0.000676029 0)
(0.0941781 -0.000670404 0)
(0.0955133 -0.000664526 0)
(0.0968365 -0.000658391 0)
(0.0981471 -0.000651996 0)
(0.0994447 -0.000645337 0)
(0.100729 -0.000638411 0)
(0.101999 -0.000631214 0)
(0.103254 -0.000623746 0)
(0.104494 -0.000616002 0)
(0.105718 -0.000607982 0)
(0.106926 -0.000599685 0)
(0.108117 -0.000591109 0)
(0.109291 -0.000582254 0)
(0.110446 -0.000573119 0)
(0.111584 -0.000563706 0)
(0.112702 -0.000554015 0)
(0.1138 -0.000544048 0)
(0.114878 -0.000533805 0)
(0.115935 -0.00052329 0)
(0.116971 -0.000512505 0)
(0.117986 -0.000501453 0)
(0.118978 -0.000490138 0)
(0.119947 -0.000478565 0)
(0.120892 -0.000466737 0)
(0.121814 -0.00045466 0)
(0.122711 -0.00044234 0)
(0.123583 -0.000429783 0)
(0.12443 -0.000416994 0)
(0.125252 -0.000403983 0)
(0.126046 -0.000390754 0)
(0.126815 -0.000377318 0)
(0.127556 -0.000363681 0)
(0.12827 -0.000349853 0)
(0.128956 -0.000335842 0)
(0.129613 -0.000321659 0)
(0.130242 -0.000307312 0)
(0.130843 -0.000292811 0)
(0.131414 -0.000278168 0)
(0.131955 -0.000263393 0)
(0.132467 -0.000248496 0)
(0.132949 -0.00023349 0)
(0.133401 -0.000218384 0)
(0.133823 -0.00020319 0)
(0.134214 -0.000187921 0)
(0.134575 -0.000172587 0)
(0.134905 -0.000157201 0)
(0.135204 -0.000141774 0)
(0.135472 -0.000126319 0)
(0.135709 -0.000110846 0)
(0.135915 -9.53686e-05 0)
(0.13609 -7.98977e-05 0)
(0.136235 -6.44452e-05 0)
(0.136348 -4.90227e-05 0)
(0.136431 -3.36417e-05 0)
(0.136483 -1.83133e-05 0)
(0.136504 -3.04876e-06 0)
(0.136495 1.21411e-05 0)
(0.136455 2.72455e-05 0)
(0.136386 4.22541e-05 0)
(0.136286 5.71568e-05 0)
(0.136157 7.19436e-05 0)
(0.135998 8.66051e-05 0)
(0.13581 0.000101132 0)
(0.135594 0.000115515 0)
(0.135348 0.000129747 0)
(0.135075 0.000143818 0)
(0.134773 0.000157721 0)
(0.134443 0.000171448 0)
(0.134087 0.000184993 0)
(0.133703 0.000198349 0)
(0.133293 0.000211509 0)
(0.132857 0.000224467 0)
(0.132395 0.000237219 0)
(0.131908 0.000249759 0)
(0.131396 0.000262083 0)
(0.130859 0.000274186 0)
(0.130299 0.000286064 0)
(0.129715 0.000297713 0)
(0.129108 0.000309132 0)
(0.128478 0.000320317 0)
(0.127826 0.000331266 0)
(0.127153 0.000341976 0)
(0.126458 0.000352447 0)
(0.125743 0.000362677 0)
(0.125007 0.000372666 0)
(0.124252 0.000382412 0)
(0.123477 0.000391915 0)
(0.122684 0.000401176 0)
(0.121872 0.000410195 0)
(0.121043 0.000418973 0)
(0.120196 0.00042751 0)
(0.119333 0.000435809 0)
(0.118453 0.000443869 0)
(0.117557 0.000451694 0)
(0.116646 0.000459285 0)
(0.11572 0.000466644 0)
(0.114779 0.000473773 0)
(0.113824 0.000480676 0)
(0.112856 0.000487354 0)
(0.111875 0.000493812 0)
(0.110881 0.000500051 0)
(0.109874 0.000506076 0)
(0.108856 0.000511889 0)
(0.107827 0.000517494 0)
(0.106786 0.000522894 0)
(0.105735 0.000528094 0)
(0.104673 0.000533097 0)
(0.103602 0.000537906 0)
(0.102522 0.000542526 0)
(0.101432 0.000546962 0)
(0.100334 0.000551215 0)
(0.0992268 0.000555292 0)
(0.0981122 0.000559196 0)
(0.0969899 0.000562931 0)
(0.0958603 0.000566501 0)
(0.0947237 0.00056991 0)
(0.0935805 0.000573164 0)
(0.0924309 0.000576265 0)
(0.0912753 0.000579218 0)
(0.0901139 0.000582027 0)
(0.088947 0.000584697 0)
(0.087775 0.000587231 0)
(0.086598 0.000589634 0)
(0.0854163 0.00059191 0)
(0.0842302 0.000594062 0)
(0.0830399 0.000596095 0)
(0.0818457 0.000598012 0)
(0.0806478 0.000599818 0)
(0.0794463 0.000601517 0)
(0.0782416 0.000603112 0)
(0.0770338 0.000604606 0)
(0.0758231 0.000606005 0)
(0.0746097 0.00060731 0)
(0.0733938 0.000608527 0)
(0.0721755 0.000609658 0)
(0.070955 0.000610707 0)
(0.0697326 0.000611678 0)
(0.0685083 0.000612573 0)
(0.0672822 0.000613396 0)
(0.0660546 0.00061415 0)
(0.0648256 0.000614838 0)
(0.0635952 0.000615464 0)
(0.0623636 0.00061603 0)
(0.061131 0.000616539 0)
(0.0598974 0.000616995 0)
(0.058663 0.000617399 0)
(0.0574278 0.000617755 0)
(0.0561919 0.000618065 0)
(0.0549555 0.000618332 0)
(0.0537186 0.000618559 0)
(0.0524812 0.000618747 0)
(0.0512435 0.0006189 0)
(0.0500056 0.000619019 0)
(0.0487674 0.000619107 0)
(0.0475291 0.000619166 0)
(0.0462907 0.000619199 0)
(0.0450523 0.000619206 0)
(0.0438139 0.000619191 0)
(0.0425755 0.000619154 0)
(0.0413373 0.000619099 0)
(0.0400991 0.000619026 0)
(0.0388611 0.000618938 0)
(0.0376233 0.000618837 0)
(0.0363858 0.000618723 0)
(0.0351484 0.000618598 0)
(0.0339114 0.000618465 0)
(0.0326746 0.000618323 0)
(0.0314381 0.000618176 0)
(0.0302019 0.000618024 0)
(0.028966 0.000617867 0)
(0.0277304 0.000617709 0)
(0.0264951 0.000617549 0)
(0.0252602 0.000617389 0)
(0.0240256 0.00061723 0)
(0.0227913 0.000617073 0)
(0.0215573 0.000616918 0)
(0.0203236 0.000616768 0)
(0.0190902 0.000616622 0)
(0.0178571 0.000616481 0)
(0.0166243 0.000616346 0)
(0.0153918 0.000616218 0)
(0.0141594 0.000616098 0)
(0.0129274 0.000615986 0)
(0.0116955 0.000615882 0)
(0.0104639 0.000615787 0)
(0.00923238 0.000615701 0)
(0.00800106 0.000615626 0)
(0.00676988 0.00061556 0)
(0.00553883 0.000615505 0)
(0.00430787 0.000615461 0)
(0.003077 0.000615428 0)
(0.00184618 0.000615405 0)
(0.000615388 0.000615394 0)
(0.000756384 -0.00226919 0)
(0.00226916 -0.00226922 0)
(0.00378197 -0.00226928 0)
(0.00529483 -0.00226937 0)
(0.00680777 -0.00226949 0)
(0.00832079 -0.00226964 0)
(0.00983392 -0.00226981 0)
(0.0113472 -0.00227 0)
(0.0128606 -0.0022702 0)
(0.0143741 -0.00227042 0)
(0.0158878 -0.00227065 0)
(0.0174016 -0.00227088 0)
(0.0189156 -0.00227112 0)
(0.0204298 -0.00227134 0)
(0.0219441 -0.00227155 0)
(0.0234585 -0.00227174 0)
(0.0249731 -0.0022719 0)
(0.0264878 -0.00227202 0)
(0.0280025 -0.0022721 0)
(0.0295173 -0.00227213 0)
(0.0310321 -0.00227209 0)
(0.0325469 -0.00227199 0)
(0.0340615 -0.00227179 0)
(0.0355761 -0.00227151 0)
(0.0370903 -0.00227112 0)
(0.0386043 -0.00227061 0)
(0.040118 -0.00226997 0)
(0.0416311 -0.00226919 0)
(0.0431438 -0.00226826 0)
(0.0446557 -0.00226715 0)
(0.0461669 -0.00226587 0)
(0.0476771 -0.00226439 0)
(0.0491863 -0.00226269 0)
(0.0506943 -0.00226077 0)
(0.0522009 -0.0022586 0)
(0.0537061 -0.00225618 0)
(0.0552095 -0.00225348 0)
(0.0567111 -0.00225049 0)
(0.0582106 -0.00224719 0)
(0.0597077 -0.00224357 0)
(0.0612024 -0.0022396 0)
(0.0626943 -0.00223527 0)
(0.0641832 -0.00223056 0)
(0.0656689 -0.00222545 0)
(0.067151 -0.00221993 0)
(0.0686293 -0.00221397 0)
(0.0701035 -0.00220756 0)
(0.0715733 -0.00220067 0)
(0.0730383 -0.0021933 0)
(0.0744983 -0.00218541 0)
(0.0759529 -0.002177 0)
(0.0774016 -0.00216804 0)
(0.0788443 -0.00215852 0)
(0.0802804 -0.00214841 0)
(0.0817096 -0.0021377 0)
(0.0831314 -0.00212637 0)
(0.0845455 -0.00211441 0)
(0.0859514 -0.00210179 0)
(0.0873487 -0.0020885 0)
(0.0887369 -0.00207453 0)
(0.0901156 -0.00205985 0)
(0.0914843 -0.00204446 0)
(0.0928424 -0.00202833 0)
(0.0941896 -0.00201146 0)
(0.0955253 -0.00199383 0)
(0.096849 -0.00197543 0)
(0.0981602 -0.00195625 0)
(0.0994583 -0.00193628 0)
(0.100743 -0.0019155 0)
(0.102013 -0.00189391 0)
(0.103269 -0.00187151 0)
(0.10451 -0.00184828 0)
(0.105734 -0.00182422 0)
(0.106943 -0.00179933 0)
(0.108135 -0.0017736 0)
(0.109309 -0.00174704 0)
(0.110465 -0.00171964 0)
(0.111603 -0.0016914 0)
(0.112721 -0.00166232 0)
(0.11382 -0.00163242 0)
(0.114899 -0.00160169 0)
(0.115957 -0.00157014 0)
(0.116993 -0.00153778 0)
(0.118008 -0.00150462 0)
(0.119 -0.00147067 0)
(0.11997 -0.00143595 0)
(0.120916 -0.00140046 0)
(0.121838 -0.00136422 0)
(0.122736 -0.00132726 0)
(0.123609 -0.00128958 0)
(0.124456 -0.00125121 0)
(0.125278 -0.00121216 0)
(0.126073 -0.00117247 0)
(0.126842 -0.00113215 0)
(0.127583 -0.00109123 0)
(0.128297 -0.00104974 0)
(0.128984 -0.0010077 0)
(0.129642 -0.000965138 0)
(0.130271 -0.000922087 0)
(0.130872 -0.000878576 0)
(0.131443 -0.000834636 0)
(0.131985 -0.0007903 0)
(0.132497 -0.000745599 0)
(0.13298 -0.000700567 0)
(0.133432 -0.000655238 0)
(0.133854 -0.000609646 0)
(0.134245 -0.000563826 0)
(0.134606 -0.000517813 0)
(0.134935 -0.000471643 0)
(0.135235 -0.00042535 0)
(0.135503 -0.000378972 0)
(0.13574 -0.000332543 0)
(0.135946 -0.000286098 0)
(0.136121 -0.000239674 0)
(0.136266 -0.000193305 0)
(0.136379 -0.000147026 0)
(0.136461 -0.000100872 0)
(0.136513 -5.48755e-05 0)
(0.136534 -9.07099e-06 0)
(0.136525 3.65091e-05 0)
(0.136485 8.18328e-05 0)
(0.136416 0.000126869 0)
(0.136316 0.000171587 0)
(0.136186 0.000215957 0)
(0.136027 0.00025995 0)
(0.135839 0.00030354 0)
(0.135622 0.000346698 0)
(0.135377 0.0003894 0)
(0.135102 0.000431621 0)
(0.1348 0.000473337 0)
(0.134471 0.000514527 0)
(0.134114 0.000555168 0)
(0.13373 0.000595241 0)
(0.133319 0.000634727 0)
(0.132883 0.000673609 0)
(0.13242 0.00071187 0)
(0.131933 0.000749494 0)
(0.13142 0.000786469 0)
(0.130883 0.000822781 0)
(0.130322 0.000858419 0)
(0.129738 0.000893371 0)
(0.12913 0.00092763 0)
(0.1285 0.000961187 0)
(0.127848 0.000994035 0)
(0.127174 0.00102617 0)
(0.126479 0.00105758 0)
(0.125763 0.00108827 0)
(0.125027 0.00111824 0)
(0.124271 0.00114748 0)
(0.123496 0.00117599 0)
(0.122702 0.00120377 0)
(0.12189 0.00123083 0)
(0.12106 0.00125716 0)
(0.120213 0.00128277 0)
(0.119349 0.00130766 0)
(0.118469 0.00133184 0)
(0.117572 0.00135531 0)
(0.116661 0.00137808 0)
(0.115734 0.00140016 0)
(0.114793 0.00142155 0)
(0.113838 0.00144225 0)
(0.112869 0.00146228 0)
(0.111887 0.00148165 0)
(0.110893 0.00150037 0)
(0.109886 0.00151844 0)
(0.108867 0.00153587 0)
(0.107837 0.00155268 0)
(0.106796 0.00156888 0)
(0.105745 0.00158448 0)
(0.104683 0.00159948 0)
(0.103612 0.00161391 0)
(0.102531 0.00162776 0)
(0.101441 0.00164106 0)
(0.100342 0.00165382 0)
(0.0992348 0.00166605 0)
(0.0981198 0.00167776 0)
(0.0969971 0.00168896 0)
(0.0958672 0.00169966 0)
(0.0947303 0.00170989 0)
(0.0935868 0.00171964 0)
(0.0924369 0.00172894 0)
(0.091281 0.0017378 0)
(0.0901193 0.00174622 0)
(0.0889522 0.00175423 0)
(0.0877799 0.00176182 0)
(0.0866026 0.00176903 0)
(0.0854207 0.00177585 0)
(0.0842344 0.0017823 0)
(0.0830439 0.0017884 0)
(0.0818494 0.00179415 0)
(0.0806513 0.00179956 0)
(0.0794496 0.00180465 0)
(0.0782447 0.00180943 0)
(0.0770367 0.00181391 0)
(0.0758258 0.00181811 0)
(0.0746122 0.00182202 0)
(0.0733961 0.00182567 0)
(0.0721777 0.00182906 0)
(0.070957 0.0018322 0)
(0.0697344 0.00183511 0)
(0.06851 0.00183779 0)
(0.0672838 0.00184026 0)
(0.066056 0.00184251 0)
(0.0648269 0.00184458 0)
(0.0635964 0.00184645 0)
(0.0623647 0.00184815 0)
(0.061132 0.00184967 0)
(0.0598983 0.00185103 0)
(0.0586637 0.00185224 0)
(0.0574284 0.00185331 0)
(0.0561925 0.00185424 0)
(0.054956 0.00185504 0)
(0.053719 0.00185571 0)
(0.0524815 0.00185628 0)
(0.0512438 0.00185673 0)
(0.0500058 0.00185709 0)
(0.0487676 0.00185735 0)
(0.0475292 0.00185753 0)
(0.0462908 0.00185762 0)
(0.0450523 0.00185764 0)
(0.0438138 0.00185759 0)
(0.0425754 0.00185748 0)
(0.0413371 0.00185731 0)
(0.0400989 0.00185709 0)
(0.0388609 0.00185683 0)
(0.0376231 0.00185652 0)
(0.0363855 0.00185618 0)
(0.0351482 0.0018558 0)
(0.0339111 0.0018554 0)
(0.0326743 0.00185498 0)
(0.0314378 0.00185453 0)
(0.0302016 0.00185407 0)
(0.0289657 0.0018536 0)
(0.0277301 0.00185313 0)
(0.0264948 0.00185265 0)
(0.0252599 0.00185217 0)
(0.0240253 0.00185169 0)
(0.022791 0.00185122 0)
(0.021557 0.00185075 0)
(0.0203233 0.0018503 0)
(0.0190899 0.00184986 0)
(0.0178569 0.00184944 0)
(0.016624 0.00184903 0)
(0.0153915 0.00184865 0)
(0.0141592 0.00184829 0)
(0.0129272 0.00184795 0)
(0.0116953 0.00184764 0)
(0.0104637 0.00184735 0)
(0.00923221 0.00184709 0)
(0.00800092 0.00184687 0)
(0.00676976 0.00184667 0)
(0.00553873 0.0018465 0)
(0.0043078 0.00184637 0)
(0.00307694 0.00184627 0)
(0.00184614 0.0018462 0)
(0.000615377 0.00184617 0)
(0.000756363 -0.00378195 0)
(0.0022691 -0.003782 0)
(0.00378187 -0.0037821 0)
(0.00529469 -0.00378226 0)
(0.00680759 -0.00378246 0)
(0.00832058 -0.0037827 0)
(0.00983368 -0.00378299 0)
(0.0113469 -0.00378331 0)
(0.0128603 -0.00378366 0)
(0.0143738 -0.00378403 0)
(0.0158875 -0.00378442 0)
(0.0174013 -0.00378481 0)
(0.0189153 -0.0037852 0)
(0.0204295 -0.00378558 0)
(0.0219438 -0.00378594 0)
(0.0234583 -0.00378626 0)
(0.0249729 -0.00378654 0)
(0.0264876 -0.00378676 0)
(0.0280025 -0.0037869 0)
(0.0295173 -0.00378695 0)
(0.0310322 -0.0037869 0)
(0.0325471 -0.00378673 0)
(0.0340618 -0.00378643 0)
(0.0355765 -0.00378596 0)
(0.0370909 -0.00378532 0)
(0.0386051 -0.00378449 0)
(0.0401189 -0.00378344 0)
(0.0416323 -0.00378216 0)
(0.0431451 -0.00378061 0)
(0.0446573 -0.00377879 0)
(0.0461687 -0.00377667 0)
(0.0476792 -0.00377421 0)
(0.0491887 -0.0037714 0)
(0.050697 -0.00376822 0)
(0.052204 -0.00376463 0)
(0.0537095 -0.00376061 0)
(0.0552133 -0.00375613 0)
(0.0567153 -0.00375116 0)
(0.0582152 -0.00374568 0)
(0.0597128 -0.00373966 0)
(0.0612079 -0.00373307 0)
(0.0627003 -0.00372587 0)
(0.0641898 -0.00371804 0)
(0.0656759 -0.00370955 0)
(0.0671586 -0.00370036 0)
(0.0686375 -0.00369045 0)
(0.0701124 -0.00367978 0)
(0.0715828 -0.00366833 0)
(0.0730485 -0.00365606 0)
(0.0745092 -0.00364294 0)
(0.0759644 -0.00362894 0)
(0.077414 -0.00361403 0)
(0.0788574 -0.00359818 0)
(0.0802942 -0.00358135 0)
(0.0817242 -0.00356353 0)
(0.0831469 -0.00354467 0)
(0.0845619 -0.00352474 0)
(0.0859687 -0.00350373 0)
(0.0873669 -0.0034816 0)
(0.088756 -0.00345833 0)
(0.0901357 -0.00343388 0)
(0.0915053 -0.00340824 0)
(0.0928644 -0.00338138 0)
(0.0942126 -0.00335328 0)
(0.0955493 -0.00332391 0)
(0.0968741 -0.00329326 0)
(0.0981863 -0.0032613 0)
(0.0994855 -0.00322802 0)
(0.100771 -0.0031934 0)
(0.102043 -0.00315743 0)
(0.1033 -0.0031201 0)
(0.104541 -0.00308139 0)
(0.105767 -0.0030413 0)
(0.106977 -0.00299982 0)
(0.108169 -0.00295694 0)
(0.109345 -0.00291266 0)
(0.110502 -0.00286699 0)
(0.111641 -0.00281992 0)
(0.112761 -0.00277146 0)
(0.113861 -0.00272161 0)
(0.11494 -0.00267039 0)
(0.115999 -0.0026178 0)
(0.117037 -0.00256385 0)
(0.118053 -0.00250858 0)
(0.119046 -0.00245198 0)
(0.120017 -0.00239409 0)
(0.120964 -0.00233493 0)
(0.121887 -0.00227452 0)
(0.122786 -0.00221288 0)
(0.123659 -0.00215006 0)
(0.124508 -0.00208609 0)
(0.12533 -0.00202099 0)
(0.126126 -0.00195481 0)
(0.126896 -0.00188759 0)
(0.127638 -0.00181936 0)
(0.128353 -0.00175017 0)
(0.12904 -0.00168007 0)
(0.129699 -0.00160911 0)
(0.130329 -0.00153732 0)
(0.13093 -0.00146477 0)
(0.131502 -0.0013915 0)
(0.132044 -0.00131757 0)
(0.132557 -0.00124303 0)
(0.13304 -0.00116794 0)
(0.133492 -0.00109235 0)
(0.133915 -0.00101633 0)
(0.134306 -0.000939923 0)
(0.134667 -0.000863196 0)
(0.134997 -0.000786206 0)
(0.135296 -0.000709013 0)
(0.135565 -0.000631676 0)
(0.135802 -0.000554254 0)
(0.136008 -0.000476808 0)
(0.136183 -0.000399395 0)
(0.136327 -0.000322075 0)
(0.136441 -0.000244905 0)
(0.136523 -0.000167943 0)
(0.136575 -9.1246e-05 0)
(0.136595 -1.48689e-05 0)
(0.136586 6.11335e-05 0)
(0.136546 0.000136708 0)
(0.136476 0.000211802 0)
(0.136375 0.000286364 0)
(0.136245 0.000360346 0)
(0.136086 0.0004337 0)
(0.135897 0.000506378 0)
(0.13568 0.000578338 0)
(0.135433 0.000649535 0)
(0.135158 0.000719929 0)
(0.134856 0.000789481 0)
(0.134525 0.000858154 0)
(0.134168 0.000925911 0)
(0.133783 0.000992721 0)
(0.133372 0.00105855 0)
(0.132934 0.00112337 0)
(0.132471 0.00118716 0)
(0.131983 0.00124988 0)
(0.131469 0.00131152 0)
(0.130931 0.00137205 0)
(0.13037 0.00143146 0)
(0.129784 0.00148972 0)
(0.129176 0.00154683 0)
(0.128545 0.00160277 0)
(0.127891 0.00165752 0)
(0.127216 0.00171108 0)
(0.12652 0.00176344 0)
(0.125803 0.0018146 0)
(0.125066 0.00186454 0)
(0.12431 0.00191327 0)
(0.123534 0.00196079 0)
(0.122739 0.00200709 0)
(0.121926 0.00205218 0)
(0.121095 0.00209607 0)
(0.120247 0.00213875 0)
(0.119382 0.00218023 0)
(0.1185 0.00222052 0)
(0.117603 0.00225964 0)
(0.116691 0.00229758 0)
(0.115763 0.00233436 0)
(0.114821 0.00237 0)
(0.113865 0.0024045 0)
(0.112895 0.00243788 0)
(0.111913 0.00247015 0)
(0.110917 0.00250133 0)
(0.10991 0.00253144 0)
(0.10889 0.00256048 0)
(0.107859 0.00258849 0)
(0.106818 0.00261547 0)
(0.105765 0.00264145 0)
(0.104703 0.00266645 0)
(0.10363 0.00269048 0)
(0.102549 0.00271356 0)
(0.101458 0.00273571 0)
(0.100358 0.00275696 0)
(0.0992507 0.00277732 0)
(0.098135 0.00279682 0)
(0.0970118 0.00281547 0)
(0.0958812 0.0028333 0)
(0.0947437 0.00285033 0)
(0.0935995 0.00286658 0)
(0.092449 0.00288206 0)
(0.0912925 0.00289681 0)
(0.0901303 0.00291083 0)
(0.0889626 0.00292416 0)
(0.0877897 0.00293681 0)
(0.086612 0.00294881 0)
(0.0854296 0.00296016 0)
(0.0842427 0.0029709 0)
(0.0830518 0.00298105 0)
(0.0818569 0.00299062 0)
(0.0806583 0.00299963 0)
(0.0794562 0.0030081 0)
(0.0782508 0.00301606 0)
(0.0770424 0.00302351 0)
(0.0758312 0.00303048 0)
(0.0746172 0.003037 0)
(0.0734008 0.00304306 0)
(0.072182 0.0030487 0)
(0.0709611 0.00305393 0)
(0.0697382 0.00305876 0)
(0.0685134 0.00306322 0)
(0.0672869 0.00306732 0)
(0.0660589 0.00307108 0)
(0.0648295 0.0030745 0)
(0.0635987 0.00307762 0)
(0.0623668 0.00308043 0)
(0.0611339 0.00308296 0)
(0.0599 0.00308523 0)
(0.0586652 0.00308724 0)
(0.0574298 0.003089 0)
(0.0561936 0.00309054 0)
(0.0549569 0.00309186 0)
(0.0537198 0.00309298 0)
(0.0524822 0.00309391 0)
(0.0512443 0.00309467 0)
(0.0500062 0.00309525 0)
(0.0487678 0.00309568 0)
(0.0475294 0.00309596 0)
(0.0462908 0.00309612 0)
(0.0450523 0.00309614 0)
(0.0438137 0.00309606 0)
(0.0425752 0.00309586 0)
(0.0413369 0.00309558 0)
(0.0400986 0.00309521 0)
(0.0388605 0.00309476 0)
(0.0376227 0.00309424 0)
(0.036385 0.00309367 0)
(0.0351477 0.00309304 0)
(0.0339105 0.00309236 0)
(0.0326737 0.00309165 0)
(0.0314372 0.0030909 0)
(0.0302009 0.00309013 0)
(0.028965 0.00308935 0)
(0.0277294 0.00308855 0)
(0.0264942 0.00308775 0)
(0.0252592 0.00308694 0)
(0.0240246 0.00308614 0)
(0.0227903 0.00308535 0)
(0.0215564 0.00308457 0)
(0.0203227 0.00308382 0)
(0.0190894 0.00308308 0)
(0.0178563 0.00308237 0)
(0.0166235 0.0030817 0)
(0.015391 0.00308105 0)
(0.0141587 0.00308045 0)
(0.0129267 0.00307988 0)
(0.0116949 0.00307936 0)
(0.0104633 0.00307888 0)
(0.00923189 0.00307846 0)
(0.00800063 0.00307808 0)
(0.00676952 0.00307775 0)
(0.00553853 0.00307747 0)
(0.00430764 0.00307725 0)
(0.00307683 0.00307708 0)
(0.00184608 0.00307697 0)
(0.000615355 0.00307691 0)
(0.000756331 -0.00529465 0)
(0.00226901 -0.00529473 0)
(0.00378171 -0.00529487 0)
(0.00529448 -0.00529509 0)
(0.00680732 -0.00529538 0)
(0.00832026 -0.00529573 0)
(0.00983331 -0.00529613 0)
(0.0113465 -0.00529659 0)
(0.0128598 -0.00529709 0)
(0.0143733 -0.00529762 0)
(0.015887 -0.00529817 0)
(0.0174008 -0.00529874 0)
(0.0189148 -0.0052993 0)
(0.020429 -0.00529985 0)
(0.0219434 -0.00530036 0)
(0.0234579 -0.00530083 0)
(0.0249726 -0.00530124 0)
(0.0264874 -0.00530156 0)
(0.0280023 -0.00530178 0)
(0.0295173 -0.00530188 0)
(0.0310323 -0.00530184 0)
(0.0325473 -0.00530162 0)
(0.0340623 -0.00530122 0)
(0.0355771 -0.00530059 0)
(0.0370918 -0.00529972 0)
(0.0386062 -0.00529859 0)
(0.0401203 -0.00529715 0)
(0.041634 -0.00529538 0)
(0.0431471 -0.00529325 0)
(0.0446596 -0.00529073 0)
(0.0461714 -0.00528779 0)
(0.0476823 -0.00528439 0)
(0.0491923 -0.00528049 0)
(0.050701 -0.00527607 0)
(0.0522085 -0.00527108 0)
(0.0537146 -0.00526549 0)
(0.0552189 -0.00525926 0)
(0.0567215 -0.00525235 0)
(0.058222 -0.00524472 0)
(0.0597203 -0.00523633 0)
(0.0612162 -0.00522714 0)
(0.0627093 -0.0052171 0)
(0.0641995 -0.00520618 0)
(0.0656865 -0.00519434 0)
(0.0671701 -0.00518152 0)
(0.0686499 -0.00516769 0)
(0.0701256 -0.0051528 0)
(0.071597 -0.00513681 0)
(0.0730637 -0.00511967 0)
(0.0745254 -0.00510135 0)
(0.0759818 -0.0050818 0)
(0.0774324 -0.00506096 0)
(0.0788769 -0.00503881 0)
(0.080315 -0.0050153 0)
(0.0817462 -0.00499038 0)
(0.0831702 -0.00496402 0)
(0.0845864 -0.00493617 0)
(0.0859945 -0.00490679 0)
(0.0873941 -0.00487585 0)
(0.0887846 -0.0048433 0)
(0.0901657 -0.00480911 0)
(0.0915368 -0.00477325 0)
(0.0928974 -0.00473568 0)
(0.0942471 -0.00469636 0)
(0.0955853 -0.00465527 0)
(0.0969116 -0.00461239 0)
(0.0982254 -0.00456767 0)
(0.0995262 -0.0045211 0)
(0.100813 -0.00447265 0)
(0.102087 -0.00442231 0)
(0.103345 -0.00437006 0)
(0.104588 -0.00431588 0)
(0.105816 -0.00425976 0)
(0.107027 -0.00420169 0)
(0.108222 -0.00414167 0)
(0.109399 -0.00407968 0)
(0.110558 -0.00401574 0)
(0.111698 -0.00394984 0)
(0.11282 -0.00388198 0)
(0.113921 -0.00381218 0)
(0.115003 -0.00374045 0)
(0.116063 -0.00366681 0)
(0.117103 -0.00359127 0)
(0.11812 -0.00351385 0)
(0.119115 -0.00343459 0)
(0.120087 -0.00335351 0)
(0.121036 -0.00327064 0)
(0.12196 -0.00318603 0)
(0.12286 -0.0030997 0)
(0.123735 -0.00301171 0)
(0.124585 -0.00292209 0)
(0.125409 -0.00283091 0)
(0.126207 -0.0027382 0)
(0.126977 -0.00264403 0)
(0.127721 -0.00254845 0)
(0.128437 -0.00245152 0)
(0.129125 -0.00235332 0)
(0.129785 -0.00225389 0)
(0.130416 -0.00215332 0)
(0.131018 -0.00205168 0)
(0.13159 -0.00194903 0)
(0.132134 -0.00184545 0)
(0.132647 -0.00174102 0)
(0.13313 -0.00163581 0)
(0.133583 -0.00152991 0)
(0.134006 -0.00142339 0)
(0.134398 -0.00131634 0)
(0.134759 -0.00120884 0)
(0.13509 -0.00110097 0)
(0.135389 -0.00099282 0)
(0.135658 -0.000884465 0)
(0.135895 -0.000775991 0)
(0.136101 -0.000667484 0)
(0.136276 -0.000559024 0)
(0.13642 -0.000450694 0)
(0.136533 -0.000342576 0)
(0.136615 -0.000234751 0)
(0.136666 -0.000127296 0)
(0.136687 -2.02921e-05 0)
(0.136677 8.61861e-05 0)
(0.136636 0.000192063 0)
(0.136565 0.000297266 0)
(0.136465 0.000401722 0)
(0.136334 0.000505364 0)
(0.136174 0.000608124 0)
(0.135984 0.000709936 0)
(0.135765 0.000810739 0)
(0.135518 0.000910473 0)
(0.135242 0.00100908 0)
(0.134939 0.0011065 0)
(0.134607 0.0012027 0)
(0.134248 0.0012976 0)
(0.133862 0.00139118 0)
(0.13345 0.00148338 0)
(0.133011 0.00157417 0)
(0.132547 0.0016635 0)
(0.132057 0.00175135 0)
(0.131543 0.00183767 0)
(0.131003 0.00192245 0)
(0.13044 0.00200564 0)
(0.129853 0.00208723 0)
(0.129244 0.0021672 0)
(0.128611 0.00224553 0)
(0.127956 0.0023222 0)
(0.12728 0.00239719 0)
(0.126582 0.00247051 0)
(0.125864 0.00254213 0)
(0.125126 0.00261205 0)
(0.124367 0.00268028 0)
(0.12359 0.0027468 0)
(0.122794 0.00281162 0)
(0.121979 0.00287475 0)
(0.121147 0.00293618 0)
(0.120297 0.00299592 0)
(0.119431 0.00305399 0)
(0.118548 0.00311039 0)
(0.117649 0.00316513 0)
(0.116735 0.00321824 0)
(0.115807 0.00326972 0)
(0.114863 0.00331959 0)
(0.113906 0.00336787 0)
(0.112935 0.00341458 0)
(0.111951 0.00345974 0)
(0.110954 0.00350337 0)
(0.109945 0.00354549 0)
(0.108925 0.00358613 0)
(0.107892 0.00362532 0)
(0.106849 0.00366307 0)
(0.105796 0.00369941 0)
(0.104732 0.00373438 0)
(0.103659 0.00376799 0)
(0.102576 0.00380028 0)
(0.101484 0.00383127 0)
(0.100383 0.00386098 0)
(0.0992746 0.00388946 0)
(0.0981579 0.00391673 0)
(0.0970336 0.00394282 0)
(0.0959021 0.00396775 0)
(0.0947636 0.00399156 0)
(0.0936185 0.00401427 0)
(0.0924672 0.00403592 0)
(0.0913098 0.00405654 0)
(0.0901467 0.00407614 0)
(0.0889782 0.00409477 0)
(0.0878045 0.00411246 0)
(0.086626 0.00412922 0)
(0.0854428 0.00414509 0)
(0.0842553 0.0041601 0)
(0.0830636 0.00417427 0)
(0.081868 0.00418764 0)
(0.0806687 0.00420023 0)
(0.079466 0.00421207 0)
(0.0782601 0.00422318 0)
(0.0770511 0.00423359 0)
(0.0758393 0.00424333 0)
(0.0746248 0.00425242 0)
(0.0734078 0.00426088 0)
(0.0721885 0.00426875 0)
(0.0709671 0.00427605 0)
(0.0697437 0.0042828 0)
(0.0685185 0.00428902 0)
(0.0672916 0.00429473 0)
(0.0660632 0.00429997 0)
(0.0648334 0.00430474 0)
(0.0636023 0.00430908 0)
(0.0623701 0.004313 0)
(0.0611368 0.00431653 0)
(0.0599025 0.00431968 0)
(0.0586675 0.00432247 0)
(0.0574317 0.00432492 0)
(0.0561954 0.00432706 0)
(0.0549584 0.00432889 0)
(0.053721 0.00433044 0)
(0.0524832 0.00433173 0)
(0.0512451 0.00433277 0)
(0.0500068 0.00433357 0)
(0.0487683 0.00433415 0)
(0.0475296 0.00433454 0)
(0.0462909 0.00433473 0)
(0.0450522 0.00433476 0)
(0.0438135 0.00433462 0)
(0.0425749 0.00433434 0)
(0.0413365 0.00433393 0)
(0.0400981 0.0043334 0)
(0.03886 0.00433276 0)
(0.037622 0.00433203 0)
(0.0363843 0.00433121 0)
(0.0351469 0.00433031 0)
(0.0339097 0.00432936 0)
(0.0326728 0.00432835 0)
(0.0314363 0.0043273 0)
(0.0302 0.00432621 0)
(0.0289641 0.0043251 0)
(0.0277285 0.00432398 0)
(0.0264932 0.00432284 0)
(0.0252583 0.00432171 0)
(0.0240237 0.00432058 0)
(0.0227894 0.00431947 0)
(0.0215555 0.00431838 0)
(0.0203218 0.00431731 0)
(0.0190885 0.00431628 0)
(0.0178555 0.00431528 0)
(0.0166227 0.00431433 0)
(0.0153903 0.00431342 0)
(0.014158 0.00431257 0)
(0.0129261 0.00431178 0)
(0.0116943 0.00431104 0)
(0.0104628 0.00431037 0)
(0.0092314 0.00430977 0)
(0.00800021 0.00430923 0)
(0.00676916 0.00430877 0)
(0.00553823 0.00430838 0)
(0.00430741 0.00430807 0)
(0.00307666 0.00430784 0)
(0.00184597 0.00430768 0)
(0.000615321 0.0043076 0)
(0.000756288 -0.00680728 0)
(0.00226888 -0.00680738 0)
(0.0037815 -0.00680757 0)
(0.00529418 -0.00680786 0)
(0.00680695 -0.00680824 0)
(0.00831982 -0.00680869 0)
(0.00983281 -0.00680923 0)
(0.0113459 -0.00680983 0)
(0.0128592 -0.00681049 0)
(0.0143727 -0.00681119 0)
(0.0158863 -0.00681192 0)
(0.0174002 -0.00681267 0)
(0.0189142 -0.00681341 0)
(0.0204284 -0.00681414 0)
(0.0219428 -0.00681483 0)
(0.0234574 -0.00681547 0)
(0.0249722 -0.00681602 0)
(0.0264871 -0.00681647 0)
(0.0280021 -0.00681679 0)
(0.0295173 -0.00681696 0)
(0.0310325 -0.00681694 0)
(0.0325477 -0.0068167 0)
(0.0340629 -0.00681622 0)
(0.035578 -0.00681547 0)
(0.0370929 -0.0068144 0)
(0.0386077 -0.00681298 0)
(0.0401221 -0.00681119 0)
(0.0416361 -0.00680897 0)
(0.0431497 -0.00680628 0)
(0.0446627 -0.0068031 0)
(0.046175 -0.00679938 0)
(0.0476865 -0.00679506 0)
(0.049197 -0.00679011 0)
(0.0507064 -0.00678449 0)
(0.0522145 -0.00677814 0)
(0.0537213 -0.00677102 0)
(0.0552264 -0.00676307 0)
(0.0567298 -0.00675425 0)
(0.0582311 -0.00674451 0)
(0.0597303 -0.0067338 0)
(0.0612271 -0.00672205 0)
(0.0627212 -0.00670922 0)
(0.0642125 -0.00669525 0)
(0.0657006 -0.0066801 0)
(0.0671853 -0.00666369 0)
(0.0686662 -0.00664598 0)
(0.0701432 -0.00662692 0)
(0.0716159 -0.00660643 0)
(0.0730839 -0.00658448 0)
(0.074547 -0.00656099 0)
(0.0760048 -0.00653592 0)
(0.0774569 -0.00650921 0)
(0.078903 -0.00648081 0)
(0.0803427 -0.00645065 0)
(0.0817755 -0.00641868 0)
(0.0832011 -0.00638486 0)
(0.0846191 -0.00634912 0)
(0.086029 -0.00631141 0)
(0.0874304 -0.00627169 0)
(0.0888227 -0.00622991 0)
(0.0902057 -0.00618602 0)
(0.0915787 -0.00613997 0)
(0.0929413 -0.00609171 0)
(0.094293 -0.00604122 0)
(0.0956333 -0.00598844 0)
(0.0969617 -0.00593334 0)
(0.0982776 -0.00587589 0)
(0.0995805 -0.00581605 0)
(0.10087 -0.0057538 0)
(0.102145 -0.00568911 0)
(0.103406 -0.00562195 0)
(0.104652 -0.00555232 0)
(0.105881 -0.00548018 0)
(0.107095 -0.00540553 0)
(0.108292 -0.00532836 0)
(0.109471 -0.00524867 0)
(0.110632 -0.00516645 0)
(0.111775 -0.0050817 0)
(0.112898 -0.00499445 0)
(0.114002 -0.00490468 0)
(0.115086 -0.00481243 0)
(0.116149 -0.00471771 0)
(0.11719 -0.00462055 0)
(0.11821 -0.00452098 0)
(0.119207 -0.00441902 0)
(0.120181 -0.00431471 0)
(0.121131 -0.00420811 0)
(0.122058 -0.00409925 0)
(0.12296 -0.00398819 0)
(0.123837 -0.00387497 0)
(0.124689 -0.00375967 0)
(0.125514 -0.00364234 0)
(0.126313 -0.00352305 0)
(0.127086 -0.00340187 0)
(0.127831 -0.00327888 0)
(0.128548 -0.00315415 0)
(0.129238 -0.00302778 0)
(0.129899 -0.00289983 0)
(0.130531 -0.0027704 0)
(0.131134 -0.00263959 0)
(0.131708 -0.00250749 0)
(0.132253 -0.00237418 0)
(0.132767 -0.00223978 0)
(0.133251 -0.00210438 0)
(0.133705 -0.00196808 0)
(0.134128 -0.00183099 0)
(0.134521 -0.00169321 0)
(0.134883 -0.00155486 0)
(0.135213 -0.00141603 0)
(0.135513 -0.00127683 0)
(0.135782 -0.00113737 0)
(0.136019 -0.000997763 0)
(0.136225 -0.000858111 0)
(0.1364 -0.000718522 0)
(0.136544 -0.000579102 0)
(0.136657 -0.000439955 0)
(0.136738 -0.000301186 0)
(0.136789 -0.000162897 0)
(0.136809 -2.51892e-05 0)
(0.136798 0.00011184 0)
(0.136757 0.000248093 0)
(0.136685 0.000383475 0)
(0.136584 0.000517895 0)
(0.136452 0.000651264 0)
(0.136291 0.000783495 0)
(0.1361 0.000914504 0)
(0.13588 0.00104421 0)
(0.135632 0.00117254 0)
(0.135355 0.00129941 0)
(0.135049 0.00142476 0)