/*--------------------------------*- C++ -*----------------------------------*\
| =========                 |                                                 |
| \\      /  F ield         | OpenFOAM: The Open Source CFD Toolbox           |
|  \\    /   O peration     | Version:  v2012                                 |
|   \\  /    A nd           | Website:  www.openfoam.com                      |
|    \\/     M anipulation  |                                                 |
\*---------------------------------------------------------------------------*/
FoamFile
{
    version     2.0;
    format      ascii;
    class       volScalarField;
    location    "9.25";
    object      W;
}
// * * * * * * * * * * * * * * * * * * * * * * * * * * * * * * * * * * * * * //

dimensions      [0 0 -1 0 0 0 0];


internalField   nonuniform List<scalar> 
65536
(
1.12907e-17
1.15518e-17
1.22505e-17
1.34033e-17
1.5041e-17
1.72086e-17
1.9967e-17
2.3394e-17
2.7586e-17
3.26607e-17
3.87595e-17
4.60508e-17
5.4734e-17
6.50438e-17
7.72556e-17
9.1691e-17
1.08725e-16
1.28794e-16
1.52403e-16
1.8014e-16
2.1268e-16
2.50807e-16
2.95422e-16
3.47561e-16
4.08414e-16
4.79347e-16
5.61925e-16
6.57933e-16
7.69414e-16
8.98693e-16
1.04842e-15
1.22159e-15
1.42163e-15
1.6524e-15
1.91826e-15
2.22416e-15
2.57564e-15
2.97896e-15
3.44116e-15
3.97012e-15
4.57466e-15
5.26464e-15
6.05108e-15
6.94622e-15
7.96372e-15
9.11868e-15
1.04279e-14
1.19099e-14
1.35851e-14
1.54762e-14
1.76079e-14
2.00074e-14
2.27045e-14
2.5732e-14
2.91254e-14
3.29235e-14
3.71683e-14
4.19058e-14
4.71852e-14
5.306e-14
5.95879e-14
6.68308e-14
7.4855e-14
8.37316e-14
9.35367e-14
1.04351e-13
1.1626e-13
1.29356e-13
1.43733e-13
1.59495e-13
1.76746e-13
1.95599e-13
2.1617e-13
2.38581e-13
2.62957e-13
2.89429e-13
3.1813e-13
3.49198e-13
3.82773e-13
4.18998e-13
4.58016e-13
4.99974e-13
5.45015e-13
5.93284e-13
6.44922e-13
7.00068e-13
7.58855e-13
8.21413e-13
8.8786e-13
9.58309e-13
1.03286e-12
1.1116e-12
1.19461e-12
1.28193e-12
1.37362e-12
1.46969e-12
1.57014e-12
1.67494e-12
1.78403e-12
1.89735e-12
2.01476e-12
2.13613e-12
2.26129e-12
2.39001e-12
2.52204e-12
2.65709e-12
2.79484e-12
2.93491e-12
3.0769e-12
3.22034e-12
3.36474e-12
3.50957e-12
3.65426e-12
3.79819e-12
3.94072e-12
4.08116e-12
4.21881e-12
4.35293e-12
4.48277e-12
4.60753e-12
4.72646e-12
4.83874e-12
4.9436e-12
5.04025e-12
5.12794e-12
5.20593e-12
5.27351e-12
5.33002e-12
5.37486e-12
5.40748e-12
5.42739e-12
5.43419e-12
5.42757e-12
5.40729e-12
5.37324e-12
5.32537e-12
5.2638e-12
5.1887e-12
5.10041e-12
4.99934e-12
4.88603e-12
4.76116e-12
4.62546e-12
4.47982e-12
4.32519e-12
4.1626e-12
3.99318e-12
3.81809e-12
3.63858e-12
3.45589e-12
3.2713e-12
3.08611e-12
2.9016e-12
2.719e-12
2.53955e-12
2.3644e-12
2.19465e-12
2.03133e-12
1.87537e-12
1.72762e-12
1.58882e-12
1.45962e-12
1.34054e-12
1.23202e-12
1.13435e-12
1.04774e-12
9.72287e-13
9.07974e-13
8.54685e-13
8.12205e-13
7.80223e-13
7.58337e-13
7.46056e-13
7.42807e-13
7.47936e-13
7.60715e-13
7.80348e-13
8.05973e-13
8.36673e-13
8.71478e-13
9.09382e-13
9.49346e-13
9.90316e-13
1.03123e-12
1.07105e-12
1.10875e-12
1.14335e-12
1.17396e-12
1.19974e-12
1.21996e-12
1.23402e-12
1.24143e-12
1.24185e-12
1.23508e-12
1.22108e-12
1.19995e-12
1.17197e-12
1.13751e-12
1.09711e-12
1.05139e-12
1.00108e-12
9.46966e-13
8.89885e-13
8.30696e-13
7.70254e-13
7.09394e-13
6.48902e-13
5.89505e-13
5.31854e-13
4.76513e-13
4.23949e-13
3.74534e-13
3.28542e-13
2.86149e-13
2.47447e-13
2.12443e-13
1.81074e-13
1.53219e-13
1.28704e-13
1.0732e-13
8.88317e-14
7.29858e-14
5.95223e-14
4.81813e-14
3.871e-14
3.08676e-14
2.44289e-14
1.91874e-14
1.49564e-14
1.15699e-14
8.88201e-15
6.76647e-15
5.11531e-15
3.83736e-15
2.85649e-15
2.10991e-15
1.54639e-15
1.12457e-15
8.11444e-16
5.80935e-16
4.12652e-16
2.90817e-16
2.03342e-16
1.41059e-16
9.70799e-17
6.62846e-17
4.49006e-17
3.01765e-17
2.01248e-17
1.33238e-17
8.76715e-18
5.75075e-18
3.78876e-18
2.55291e-18
1.82933e-18
1.48939e-18
1.65448e-17
1.69263e-17
1.79486e-17
1.96357e-17
2.20323e-17
2.52044e-17
2.92409e-17
3.42553e-17
4.03885e-17
4.78123e-17
5.67332e-17
6.7397e-17
8.00946e-17
9.51685e-17
1.1302e-16
1.34119e-16
1.59011e-16
1.88332e-16
2.22819e-16
2.63324e-16
3.10835e-16
3.66488e-16
4.31593e-16
5.07656e-16
5.96407e-16
6.99826e-16
8.20181e-16
9.60063e-16
1.12243e-15
1.31064e-15
1.52852e-15
1.78043e-15
2.07127e-15
2.40663e-15
2.79279e-15
3.23686e-15
3.74681e-15
4.33163e-15
5.0014e-15
5.7674e-15
6.64224e-15
7.64e-15
8.77637e-15
1.00688e-14
1.15366e-14
1.32013e-14
1.50866e-14
1.72186e-14
1.96262e-14
2.23412e-14
2.53982e-14
2.88355e-14
3.26946e-14
3.70209e-14
4.18639e-14
4.72772e-14
5.3319e-14
6.00522e-14
6.75444e-14
7.58688e-14
8.51037e-14
9.5333e-14
1.06646e-13
1.19139e-13
1.32914e-13
1.48077e-13
1.64742e-13
1.83031e-13
2.03069e-13
2.24987e-13
2.48925e-13
2.75025e-13
3.03438e-13
3.34316e-13
3.6782e-13
4.0411e-13
4.43355e-13
4.85722e-13
5.31381e-13
5.80506e-13
6.33266e-13
6.89833e-13
7.50374e-13
8.15052e-13
8.84027e-13
9.57449e-13
1.03546e-12
1.1182e-12
1.20577e-12
1.2983e-12
1.39586e-12
1.49852e-12
1.60635e-12
1.71935e-12
1.83754e-12
1.96089e-12
2.08934e-12
2.2228e-12
2.36115e-12
2.50423e-12
2.65185e-12
2.80375e-12
2.95968e-12
3.1193e-12
3.28224e-12
3.44809e-12
3.6164e-12
3.78666e-12
3.95832e-12
4.13077e-12
4.30339e-12
4.47549e-12
4.64634e-12
4.81518e-12
4.98121e-12
5.14361e-12
5.30152e-12
5.45406e-12
5.60034e-12
5.73946e-12
5.87053e-12
5.99263e-12
6.10489e-12
6.20645e-12
6.29647e-12
6.37416e-12
6.43878e-12
6.48965e-12
6.52615e-12
6.54776e-12
6.55402e-12
6.54457e-12
6.51918e-12
6.47771e-12
6.42013e-12
6.34654e-12
6.25718e-12
6.15241e-12
6.0327e-12
5.89867e-12
5.75105e-12
5.59072e-12
5.41863e-12
5.23588e-12
5.04364e-12
4.84316e-12
4.63578e-12
4.42289e-12
4.20593e-12
3.98636e-12
3.76564e-12
3.54524e-12
3.3266e-12
3.11111e-12
2.90014e-12
2.69495e-12
2.49674e-12
2.30662e-12
2.12558e-12
1.95452e-12
1.7942e-12
1.64528e-12
1.50829e-12
1.38363e-12
1.27157e-12
1.17227e-12
1.08576e-12
1.01198e-12
9.50722e-13
9.01692e-13
8.64491e-13
8.3862e-13
8.23492e-13
8.18429e-13
8.22672e-13
8.35388e-13
8.55668e-13
8.82544e-13
9.14986e-13
9.51918e-13
9.92225e-13
1.03476e-12
1.07838e-12
1.12191e-12
1.16422e-12
1.20421e-12
1.24082e-12
1.27308e-12
1.30009e-12
1.32109e-12
1.33541e-12
1.34256e-12
1.34216e-12
1.33403e-12
1.31813e-12
1.29458e-12
1.26369e-12
1.22587e-12
1.18171e-12
1.1319e-12
1.0772e-12
1.01849e-12
9.56651e-13
8.9262e-13
8.27313e-13
7.61622e-13
6.96392e-13
6.32398e-13
5.70334e-13
5.10799e-13
4.54289e-13
4.01199e-13
3.51813e-13
3.06319e-13
2.64805e-13
2.27276e-13
1.9366e-13
1.63822e-13
1.37573e-13
1.14685e-13
9.49039e-14
7.79557e-14
6.35603e-14
5.14382e-14
4.13176e-14
3.29399e-14
2.60636e-14
2.04673e-14
1.59511e-14
1.23372e-14
9.46938e-15
7.21273e-15
5.45181e-15
4.08916e-15
3.04348e-15
2.24772e-15
1.64717e-15
1.1977e-15
8.64109e-16
6.18566e-16
4.39333e-16
3.09588e-16
2.16445e-16
1.50134e-16
1.03316e-16
7.05365e-17
4.77769e-17
3.21071e-17
2.14107e-17
1.41741e-17
9.32609e-18
6.117e-18
4.0298e-18
2.71515e-18
1.94549e-18
1.58394e-18
2.90349e-17
2.97025e-17
3.14934e-17
3.44495e-17
3.8649e-17
4.42072e-17
5.12793e-17
6.00639e-17
7.08075e-17
8.38101e-17
9.94324e-17
1.18104e-16
1.40333e-16
1.66717e-16
1.97957e-16
2.34872e-16
2.78414e-16
3.29691e-16
3.89987e-16
4.60788e-16
5.43811e-16
6.41033e-16
7.54732e-16
8.87526e-16
1.04242e-15
1.22284e-15
1.43273e-15
1.67657e-15
1.95948e-15
2.28728e-15
2.66658e-15
3.10488e-15
3.61066e-15
4.19352e-15
4.86429e-15
5.63514e-15
6.5198e-15
7.53364e-15
8.69388e-15
1.00198e-14
1.15329e-14
1.32572e-14
1.52193e-14
1.74488e-14
1.99783e-14
2.28443e-14
2.60865e-14
2.97491e-14
3.38803e-14
3.85332e-14
4.37657e-14
4.96413e-14
5.62289e-14
6.36035e-14
7.18465e-14
8.1046e-14
9.12969e-14
1.02702e-13
1.1537e-13
1.2942e-13
1.44978e-13
1.62177e-13
1.8116e-13
2.02079e-13
2.25094e-13
2.50372e-13
2.78091e-13
3.08437e-13
3.41602e-13
3.77787e-13
4.17202e-13
4.60061e-13
5.06586e-13
5.57003e-13
6.11542e-13
6.70437e-13
7.33925e-13
8.02242e-13
8.75622e-13
9.543e-13
1.0385e-12
1.12845e-12
1.22436e-12
1.32644e-12
1.43487e-12
1.54982e-12
1.67146e-12
1.79992e-12
1.93531e-12
2.07771e-12
2.22717e-12
2.38373e-12
2.54737e-12
2.71803e-12
2.89562e-12
3.08002e-12
3.27102e-12
3.46841e-12
3.67189e-12
3.88113e-12
4.09574e-12
4.31527e-12
4.53921e-12
4.76699e-12
4.99798e-12
5.23151e-12
5.46682e-12
5.70312e-12
5.93955e-12
6.17519e-12
6.40909e-12
6.64024e-12
6.86758e-12
7.09004e-12
7.30648e-12
7.51577e-12
7.71674e-12
7.90822e-12
8.08904e-12
8.25802e-12
8.41402e-12
8.55592e-12
8.68264e-12
8.79314e-12
8.88645e-12
8.96168e-12
9.01801e-12
9.05472e-12
9.07121e-12
9.06698e-12
9.04167e-12
8.99504e-12
8.92701e-12
8.83764e-12
8.72716e-12
8.59593e-12
8.44452e-12
8.27361e-12
8.08407e-12
7.87691e-12
7.65329e-12
7.41453e-12
7.16206e-12
6.89741e-12
6.62225e-12
6.33832e-12
6.0474e-12
5.75137e-12
5.45209e-12
5.15147e-12
4.85137e-12
4.55365e-12
4.26009e-12
3.97242e-12
3.69227e-12
3.42116e-12
3.16051e-12
2.91158e-12
2.67551e-12
2.45329e-12
2.24575e-12
2.05356e-12
1.87724e-12
1.71714e-12
1.57348e-12
1.44631e-12
1.33554e-12
1.24096e-12
1.1622e-12
1.09879e-12
1.05013e-12
1.01553e-12
9.94178e-13
9.8517e-13
9.87519e-13
1.00016e-12
1.02194e-12
1.05165e-12
1.08802e-12
1.12974e-12
1.17546e-12
1.22379e-12
1.27336e-12
1.3228e-12
1.37075e-12
1.41593e-12
1.45711e-12
1.49314e-12
1.52302e-12
1.54584e-12
1.56087e-12
1.56754e-12
1.56545e-12
1.5544e-12
1.53437e-12
1.50553e-12
1.46824e-12
1.42303e-12
1.37057e-12
1.31168e-12
1.24727e-12
1.17834e-12
1.10594e-12
1.03114e-12
9.55001e-13
8.78547e-13
8.02748e-13
7.28493e-13
6.56571e-13
5.87663e-13
5.22332e-13
4.61016e-13
4.04036e-13
3.51592e-13
3.0378e-13
2.60591e-13
2.21936e-13
1.8765e-13
1.57508e-13
1.31245e-13
1.08559e-13
8.91346e-14
7.26451e-14
5.87671e-14
4.71865e-14
3.76049e-14
2.97443e-14
2.33498e-14
1.81916e-14
1.40656e-14
1.07927e-14
8.21833e-15
6.21016e-15
4.65672e-15
3.46501e-15
2.5584e-15
1.8744e-15
1.36262e-15
9.82881e-16
7.03443e-16
4.99519e-16
3.51933e-16
2.46006e-16
1.70609e-16
1.17388e-16
8.01311e-17
5.42678e-17
3.64641e-17
2.4313e-17
1.60935e-17
1.05877e-17
6.94367e-18
4.57389e-18
3.0814e-18
2.20769e-18
1.7973e-18
5.37653e-17
5.49988e-17
5.83102e-17
6.37766e-17
7.15423e-17
8.18203e-17
9.4897e-17
1.11139e-16
1.31001e-16
1.55036e-16
1.83911e-16
2.18416e-16
2.5949e-16
3.08234e-16
3.65939e-16
4.34113e-16
5.14511e-16
6.09173e-16
7.2046e-16
8.51106e-16
1.00427e-15
1.18358e-15
1.39322e-15
1.638e-15
1.92342e-15
2.25579e-15
2.6423e-15
3.09119e-15
3.61179e-15
4.21475e-15
4.91214e-15
5.71765e-15
6.64675e-15
7.7169e-15
8.94779e-15
1.03616e-14
1.19831e-14
1.38403e-14
1.59643e-14
1.839e-14
2.11561e-14
2.43059e-14
2.78872e-14
3.19533e-14
3.65627e-14
4.17802e-14
4.76772e-14
5.43321e-14
6.18306e-14
7.02669e-14
7.97434e-14
9.03718e-14
1.02274e-13
1.1558e-13
1.30433e-13
1.46987e-13
1.65405e-13
1.85866e-13
2.08558e-13
2.33683e-13
2.61457e-13
2.92107e-13
3.25875e-13
3.63015e-13
4.03795e-13
4.48494e-13
4.97406e-13
5.50835e-13
6.09096e-13
6.72515e-13
7.41425e-13
8.1617e-13
8.97098e-13
9.84562e-13
1.07892e-12
1.18052e-12
1.28972e-12
1.40688e-12
1.53233e-12
1.6664e-12
1.80942e-12
1.96168e-12
2.12346e-12
2.29502e-12
2.47659e-12
2.66836e-12
2.87048e-12
3.08307e-12
3.30621e-12
3.53991e-12
3.78414e-12
4.0388e-12
4.30375e-12
4.57877e-12
4.86357e-12
5.15778e-12
5.46096e-12
5.77261e-12
6.09212e-12
6.41881e-12
6.75193e-12
7.09061e-12
7.43393e-12
7.78088e-12
8.13035e-12
8.48117e-12
8.83207e-12
9.18174e-12
9.52877e-12
9.8717e-12
1.0209e-11
1.05391e-11
1.08605e-11
1.11714e-11
1.14702e-11
1.17553e-11
1.2025e-11
1.22775e-11
1.25114e-11
1.2725e-11
1.29167e-11
1.30852e-11
1.3229e-11
1.33469e-11
1.34377e-11
1.35004e-11
1.35342e-11
1.35382e-11
1.35119e-11
1.3455e-11
1.33674e-11
1.32489e-11
1.30999e-11
1.29209e-11
1.27125e-11
1.24756e-11
1.22112e-11
1.19209e-11
1.1606e-11
1.12683e-11
1.09096e-11
1.05322e-11
1.01382e-11
9.72986e-12
9.30976e-12
8.88041e-12
8.4444e-12
8.00434e-12
7.56288e-12
7.1226e-12
6.68606e-12
6.25572e-12
5.83394e-12
5.42296e-12
5.02486e-12
4.64156e-12
4.27479e-12
3.9261e-12
3.5968e-12
3.28803e-12
3.00067e-12
2.73544e-12
2.49279e-12
2.27299e-12
2.07612e-12
1.90204e-12
1.75045e-12
1.62087e-12
1.51265e-12
1.42501e-12
1.35702e-12
1.30763e-12
1.27566e-12
1.25983e-12
1.25878e-12
1.27102e-12
1.29503e-12
1.32919e-12
1.37182e-12
1.42122e-12
1.47565e-12
1.53333e-12
1.59253e-12
1.6515e-12
1.70858e-12
1.76214e-12
1.81068e-12
1.85281e-12
1.88727e-12
1.913e-12
1.9291e-12
1.93492e-12
1.92999e-12
1.9141e-12
1.88727e-12
1.84973e-12
1.80196e-12
1.74463e-12
1.67859e-12
1.60486e-12
1.52457e-12
1.43895e-12
1.3493e-12
1.25691e-12
1.16308e-12
1.06906e-12
9.76025e-13
8.85033e-13
7.97037e-13
7.1285e-13
6.33137e-13
5.58417e-13
4.89061e-13
4.25297e-13
3.67223e-13
3.14818e-13
2.67956e-13
2.26427e-13
1.89949e-13
1.58188e-13
1.30776e-13
1.07321e-13
8.74234e-14
7.06882e-14
5.67321e-14
4.5192e-14
3.573e-14
2.8037e-14
2.18346e-14
1.68758e-14
1.29443e-14
9.85314e-15
7.44295e-15
5.57929e-15
4.15018e-15
3.06337e-15
2.24371e-15
1.63064e-15
1.1759e-15
8.4137e-16
5.97316e-16
4.20738e-16
2.94037e-16
2.03877e-16
1.40249e-16
9.57186e-17
6.48125e-17
4.35419e-17
2.90275e-17
1.92111e-17
1.26369e-17
8.28642e-18
5.45761e-18
3.67624e-18
2.63354e-18
2.1438e-18
1.00388e-16
1.02686e-16
1.08861e-16
1.19055e-16
1.33537e-16
1.52704e-16
1.77089e-16
2.07374e-16
2.44405e-16
2.89214e-16
3.43038e-16
4.07352e-16
4.83898e-16
5.74726e-16
6.82236e-16
8.09231e-16
9.58972e-16
1.13525e-15
1.34244e-15
1.58564e-15
1.87068e-15
2.20431e-15
2.59429e-15
3.04951e-15
3.58017e-15
4.19795e-15
4.91616e-15
5.74998e-15
6.71671e-15
7.83598e-15
9.13006e-15
1.06242e-14
1.23468e-14
1.433e-14
1.66101e-14
1.92277e-14
2.22284e-14
2.56633e-14
2.95893e-14
3.40703e-14
3.91769e-14
4.49879e-14
5.15904e-14
5.90809e-14
6.75658e-14
7.71623e-14
8.79993e-14
1.00218e-13
1.13973e-13
1.29433e-13
1.46781e-13
1.66218e-13
1.87958e-13
2.12236e-13
2.39304e-13
2.69432e-13
3.0291e-13
3.40048e-13
3.81178e-13
4.26651e-13
4.7684e-13
5.32137e-13
5.92958e-13
6.59737e-13
7.32929e-13
8.13008e-13
9.00464e-13
9.95805e-13
1.09956e-12
1.21225e-12
1.33443e-12
1.46665e-12
1.60948e-12
1.76346e-12
1.92915e-12
2.10711e-12
2.29787e-12
2.50195e-12
2.71986e-12
2.95206e-12
3.199e-12
3.46108e-12
3.73865e-12
4.03202e-12
4.34145e-12
4.6671e-12
5.0091e-12
5.36748e-12
5.74218e-12
6.13307e-12
6.53991e-12
6.96236e-12
7.39997e-12
7.85218e-12
8.31832e-12
8.79759e-12
9.28906e-12
9.7917e-12
1.03043e-11
1.08256e-11
1.13542e-11
1.18885e-11
1.24268e-11
1.29673e-11
1.35082e-11
1.40474e-11
1.45828e-11
1.51122e-11
1.56333e-11
1.61438e-11
1.66412e-11
1.71231e-11
1.7587e-11
1.80305e-11
1.8451e-11
1.88461e-11
1.92133e-11
1.95504e-11
1.9855e-11
2.01249e-11
2.03581e-11
2.05528e-11
2.07072e-11
2.08196e-11
2.08889e-11
2.09139e-11
2.08937e-11
2.08276e-11
2.07155e-11
2.05572e-11
2.0353e-11
2.01034e-11
1.98093e-11
1.94719e-11
1.90926e-11
1.86734e-11
1.82161e-11
1.77233e-11
1.71976e-11
1.66417e-11
1.6059e-11
1.54526e-11
1.48261e-11
1.41831e-11
1.35273e-11
1.28624e-11
1.21923e-11
1.15208e-11
1.08517e-11
1.01885e-11
9.53491e-12
8.89424e-12
8.26969e-12
7.66424e-12
7.08061e-12
6.52127e-12
5.98839e-12
5.48384e-12
5.00922e-12
4.56578e-12
4.15448e-12
3.77598e-12
3.43063e-12
3.11852e-12
2.83944e-12
2.59296e-12
2.37837e-12
2.19479e-12
2.04108e-12
1.91598e-12
1.81801e-12
1.74556e-12
1.69689e-12
1.67013e-12
1.66331e-12
1.67434e-12
1.70108e-12
1.74131e-12
1.79275e-12
1.85309e-12
1.91999e-12
1.99112e-12
2.06419e-12
2.13691e-12
2.20713e-12
2.27276e-12
2.33186e-12
2.38267e-12
2.42361e-12
2.45335e-12
2.47079e-12
2.4751e-12
2.46577e-12
2.44255e-12
2.4055e-12
2.35499e-12
2.29164e-12
2.21635e-12
2.13022e-12
2.03457e-12
1.93086e-12
1.82067e-12
1.70562e-12
1.58738e-12
1.46757e-12
1.34777e-12
1.22943e-12
1.1139e-12
1.00234e-12
8.95773e-13
7.95004e-13
7.00667e-13
6.13206e-13
5.32887e-13
4.59813e-13
3.93937e-13
3.35087e-13
2.8298e-13
2.3725e-13
1.97467e-13
1.63158e-13
1.33823e-13
1.08955e-13
8.80538e-14
7.0635e-14
5.62404e-14
4.44451e-14
3.48604e-14
2.71371e-14
2.09656e-14
1.6075e-14
1.22316e-14
9.23631e-15
6.92121e-15
5.14666e-15
3.79768e-15
2.78069e-15
2.02031e-15
1.45649e-15
1.04185e-15
7.39457e-16
5.20732e-16
3.63833e-16
2.52215e-16
1.73465e-16
1.18364e-16
8.01305e-17
5.38229e-17
3.58751e-17
2.37392e-17
1.56129e-17
1.02363e-17
6.74085e-18
4.53996e-18
3.25183e-18
2.64686e-18
1.86553e-16
1.90817e-16
2.02278e-16
2.21201e-16
2.48084e-16
2.83662e-16
3.28925e-16
3.85135e-16
4.53863e-16
5.37017e-16
6.36893e-16
7.56221e-16
8.98229e-16
1.06671e-15
1.26612e-15
1.50163e-15
1.77928e-15
2.10608e-15
2.49014e-15
2.94085e-15
3.46901e-15
4.08709e-15
4.8094e-15
5.65237e-15
6.63481e-15
7.77823e-15
9.10717e-15
1.06496e-14
1.24374e-14
1.45065e-14
1.68981e-14
1.96582e-14
2.28394e-14
2.65003e-14
3.07074e-14
3.55351e-14
4.10667e-14
4.73954e-14
5.46255e-14
6.28727e-14
7.2266e-14
8.29482e-14
9.50776e-14
1.08829e-13
1.24395e-13
1.41986e-13
1.61836e-13
1.84199e-13
2.09351e-13
2.37595e-13
2.69258e-13
3.04698e-13
3.44298e-13
3.88472e-13
4.37665e-13
4.92356e-13
5.53053e-13
6.20301e-13
6.94677e-13
7.76793e-13
8.67292e-13
9.66855e-13
1.07619e-12
1.19605e-12
1.32719e-12
1.47042e-12
1.62656e-12
1.79647e-12
1.981e-12
2.18103e-12
2.39746e-12
2.63116e-12
2.88305e-12
3.15398e-12
3.44484e-12
3.75645e-12
4.08963e-12
4.44515e-12
4.82373e-12
5.22602e-12
5.65261e-12
6.10401e-12
6.58063e-12
7.08281e-12
7.61073e-12
8.16449e-12
8.74403e-12
9.34916e-12
9.97954e-12
1.06347e-11
1.13139e-11
1.20163e-11
1.27409e-11
1.34865e-11
1.42516e-11
1.50346e-11
1.58338e-11
1.66472e-11
1.74724e-11
1.83072e-11
1.91489e-11
1.99949e-11
2.08421e-11
2.16874e-11
2.25277e-11
2.33594e-11
2.41792e-11
2.49834e-11
2.57684e-11
2.65303e-11
2.72654e-11
2.79698e-11
2.86399e-11
2.92718e-11
2.98618e-11
3.04064e-11
3.0902e-11
3.13454e-11
3.17334e-11
3.20632e-11
3.23319e-11
3.25374e-11
3.26773e-11
3.27501e-11
3.27542e-11
3.26886e-11
3.25528e-11
3.23464e-11
3.20696e-11
3.17232e-11
3.13083e-11
3.08263e-11
3.02793e-11
2.96698e-11
2.90006e-11
2.8275e-11
2.74968e-11
2.66701e-11
2.57992e-11
2.48889e-11
2.39442e-11
2.29704e-11
2.19729e-11
2.09572e-11
1.99289e-11
1.88937e-11
1.78572e-11
1.68249e-11
1.58022e-11
1.47943e-11
1.38061e-11
1.28423e-11
1.19074e-11
1.10051e-11
1.01391e-11
9.31264e-12
8.52836e-12
7.78856e-12
7.09507e-12
6.44928e-12
5.85213e-12
5.30411e-12
4.80533e-12
4.3555e-12
3.95394e-12
3.59967e-12
3.29136e-12
3.02743e-12
2.80601e-12
2.62503e-12
2.4822e-12
2.37506e-12
2.301e-12
2.25726e-12
2.24096e-12
2.24914e-12
2.27874e-12
2.32665e-12
2.38971e-12
2.46474e-12
2.54856e-12
2.63801e-12
2.73e-12
2.82152e-12
2.90967e-12
2.99172e-12
3.06515e-12
3.12764e-12
3.17719e-12
3.21207e-12
3.23089e-12
3.23265e-12
3.21669e-12
3.18278e-12
3.13104e-12
3.06198e-12
2.97648e-12
2.87573e-12
2.76121e-12
2.63466e-12
2.49798e-12
2.35324e-12
2.20254e-12
2.04804e-12
1.89184e-12
1.73595e-12
1.58224e-12
1.43242e-12
1.28797e-12
1.15017e-12
1.02003e-12
8.98356e-13
7.85676e-13
6.82309e-13
5.88361e-13
5.03751e-13
4.28232e-13
3.61425e-13
3.02844e-13
2.51921e-13
2.08038e-13
1.70544e-13
1.38782e-13
1.12104e-13
8.98851e-14
7.15349e-14
5.65068e-14
4.43021e-14
3.44728e-14
2.66224e-14
2.04044e-14
1.55202e-14
1.17154e-14
8.77594e-15
6.52371e-15
4.81229e-15
3.52253e-15
2.55855e-15
1.844e-15
1.3187e-15
9.35713e-16
6.58777e-16
4.60179e-16
3.18932e-16
2.19304e-16
1.49613e-16
1.01266e-16
6.80072e-17
4.53217e-17
2.99852e-17
1.97177e-17
1.29256e-17
8.51051e-18
5.73097e-18
4.10434e-18
3.34046e-18
3.43841e-16
3.51688e-16
3.72788e-16
4.07631e-16
4.5713e-16
5.22639e-16
6.05975e-16
7.09464e-16
8.35991e-16
9.89066e-16
1.17291e-15
1.39253e-15
1.65388e-15
1.96392e-15
2.33081e-15
2.76409e-15
3.27483e-15
3.8759e-15
4.58219e-15
5.41089e-15
6.38186e-15
7.51793e-15
8.84533e-15
1.03941e-14
1.21988e-14
1.42987e-14
1.67388e-14
1.95701e-14
2.28508e-14
2.66468e-14
3.10328e-14
3.60932e-14
4.19233e-14
4.86304e-14
5.6335e-14
6.51722e-14
7.52937e-14
8.68683e-14
1.00085e-13
1.15153e-13
1.32305e-13
1.518e-13
1.73923e-13
1.98987e-13
2.2734e-13
2.5936e-13
2.95464e-13
3.36105e-13
3.8178e-13
4.33024e-13
4.90423e-13
5.54606e-13
6.26252e-13
7.06092e-13
7.94909e-13
8.9354e-13
1.00288e-12
1.12387e-12
1.25751e-12
1.40486e-12
1.56704e-12
1.7452e-12
1.94057e-12
2.15439e-12
2.38798e-12
2.64267e-12
2.91985e-12
3.22091e-12
3.54727e-12
3.90038e-12
4.28166e-12
4.69254e-12
5.13442e-12
5.60867e-12
6.11663e-12
6.65955e-12
7.23864e-12
7.85498e-12
8.50958e-12
9.20331e-12
9.9369e-12
1.07109e-11
1.15258e-11
1.23817e-11
1.32786e-11
1.42164e-11
1.51945e-11
1.62123e-11
1.72688e-11
1.83626e-11
1.94923e-11
2.0656e-11
2.18515e-11
2.30764e-11
2.43279e-11
2.5603e-11
2.68981e-11
2.82097e-11
2.95337e-11
3.08659e-11
3.22017e-11
3.35363e-11
3.48647e-11
3.61816e-11
3.74817e-11
3.87593e-11
4.00087e-11
4.12241e-11
4.23996e-11
4.35294e-11
4.46076e-11
4.56284e-11
4.6586e-11
4.7475e-11
4.82899e-11
4.90256e-11
4.96772e-11
5.02402e-11
5.07103e-11
5.1084e-11
5.13577e-11
5.15286e-11
5.15945e-11
5.15536e-11
5.14046e-11
5.11471e-11
5.0781e-11
5.03071e-11
4.97268e-11
4.90421e-11
4.82557e-11
4.7371e-11
4.63919e-11
4.53233e-11
4.41702e-11
4.29385e-11
4.16346e-11
4.02652e-11
3.88377e-11
3.73596e-11
3.58389e-11
3.42837e-11
3.27025e-11
3.11035e-11
2.94953e-11
2.78861e-11
2.62843e-11
2.46977e-11
2.31341e-11
2.16008e-11
2.01047e-11
1.86522e-11
1.72492e-11
1.59009e-11
1.4612e-11
1.33866e-11
1.22279e-11
1.11387e-11
1.0121e-11
9.17614e-12
8.30492e-12
7.50746e-12
6.78331e-12
6.13151e-12
5.55059e-12
5.03862e-12
4.59328e-12
4.21187e-12
3.89138e-12
3.62851e-12
3.41974e-12
3.2613e-12
3.14928e-12
3.07963e-12
3.04814e-12
3.05054e-12
3.08248e-12
3.13956e-12
3.21736e-12
3.31148e-12
3.41752e-12
3.53119e-12
3.64827e-12
3.76471e-12
3.87662e-12
3.98038e-12
4.07264e-12
4.15036e-12
4.21092e-12
4.25207e-12
4.27205e-12
4.26958e-12
4.24387e-12
4.19467e-12
4.1222e-12
4.02722e-12
3.91091e-12
3.77491e-12
3.62119e-12
3.45206e-12
3.27007e-12
3.0779e-12
2.87836e-12
2.67424e-12
2.46828e-12
2.26311e-12
2.06114e-12
1.86458e-12
1.67533e-12
1.49502e-12
1.32496e-12
1.16613e-12
1.01919e-12
8.84543e-13
7.6228e-13
6.52268e-13
5.54162e-13
4.67446e-13
3.91466e-13
3.25469e-13
2.68636e-13
2.20111e-13
1.79032e-13
1.44549e-13
1.15847e-13
9.21562e-14
7.27652e-14
5.70257e-14
4.4356e-14
3.42419e-14
2.62348e-14
1.99479e-14
1.50526e-14
1.12721e-14
8.37662e-15
6.17724e-15
4.52035e-15
3.2824e-15
2.36507e-15
1.6909e-15
1.19952e-15
8.4431e-16
5.89648e-16
4.08576e-16
2.80888e-16
1.91589e-16
1.29654e-16
8.70562e-17
5.80068e-17
3.83716e-17
2.52286e-17
1.65357e-17
1.08859e-17
7.3295e-18
5.24845e-18
4.27123e-18
6.27998e-16
6.4231e-16
6.80809e-16
7.44388e-16
8.34713e-16
9.5425e-16
1.10631e-15
1.29514e-15
1.52599e-15
1.80526e-15
2.14065e-15
2.54128e-15
3.01797e-15
3.58343e-15
4.25252e-15
5.04259e-15
5.97381e-15
7.06959e-15
8.35701e-15
9.86738e-15
1.16368e-14
1.37067e-14
1.61248e-14
1.89458e-14
2.22321e-14
2.60553e-14
3.04967e-14
3.56492e-14
4.16179e-14
4.85223e-14
5.64976e-14
6.56964e-14
7.62909e-14
8.84748e-14
1.02466e-13
1.18507e-13
1.36872e-13
1.57865e-13
1.81824e-13
2.09127e-13
2.40191e-13
2.75478e-13
3.15498e-13
3.60813e-13
4.12039e-13
4.69854e-13
5.34997e-13
6.08272e-13
6.90558e-13
7.82805e-13
8.86041e-13
1.00138e-12
1.13e-12
1.2732e-12
1.43233e-12
1.60886e-12
1.80434e-12
2.02039e-12
2.25875e-12
2.52123e-12
2.80973e-12
3.12624e-12
3.47281e-12
3.85156e-12
4.26468e-12
4.7144e-12
5.20301e-12
5.73281e-12
6.3061e-12
6.92521e-12
7.59243e-12
8.31e-12
9.08011e-12
9.90487e-12
1.07863e-11
1.17262e-11
1.27263e-11
1.37882e-11
1.49131e-11
1.61021e-11
1.7356e-11
1.86753e-11
2.00601e-11
2.15103e-11
2.30254e-11
2.46043e-11
2.62457e-11
2.79477e-11
2.97082e-11
3.15242e-11
3.33927e-11
3.53097e-11
3.72712e-11
3.92724e-11
4.1308e-11
4.33724e-11
4.54593e-11
4.75622e-11
4.9674e-11
5.17872e-11
5.3894e-11
5.59862e-11
5.80554e-11
6.00929e-11
6.20897e-11
6.40368e-11
6.5925e-11
6.77452e-11
6.94882e-11
7.11449e-11
7.27064e-11
7.4164e-11
7.55092e-11
7.67341e-11
7.78309e-11
7.87926e-11
7.96124e-11
8.02844e-11
8.08033e-11
8.11645e-11
8.13642e-11
8.13993e-11
8.12677e-11
8.09683e-11
8.05007e-11
7.98656e-11
7.90648e-11
7.81009e-11
7.69774e-11
7.56992e-11
7.42717e-11
7.27016e-11
7.09962e-11
6.9164e-11
6.72139e-11
6.5156e-11
6.30007e-11
6.07592e-11
5.84432e-11
5.60646e-11
5.36359e-11
5.11696e-11
4.86783e-11
4.61748e-11
4.36714e-11
4.11806e-11
3.87141e-11
3.62834e-11
3.38994e-11
3.15723e-11
2.93117e-11
2.71262e-11
2.50237e-11
2.3011e-11
2.10941e-11
1.9278e-11
1.75667e-11
1.59631e-11
1.44694e-11
1.30865e-11
1.18148e-11
1.06536e-11
9.60148e-12
8.65623e-12
7.81506e-12
7.07454e-12
6.43072e-12
5.87919e-12
5.41514e-12
5.03343e-12
4.72863e-12
4.49508e-12
4.32693e-12
4.21821e-12
4.16282e-12
4.15458e-12
4.1873e-12
4.25473e-12
4.3507e-12
4.46904e-12
4.6037e-12
4.74878e-12
4.89853e-12
5.04744e-12
5.1903e-12
5.32224e-12
5.43878e-12
5.53594e-12
5.61023e-12
5.65875e-12
5.6792e-12
5.66997e-12
5.63009e-12
5.5593e-12
5.45798e-12
5.32719e-12
5.16858e-12
4.98436e-12
4.77721e-12
4.55019e-12
4.3067e-12
4.05032e-12
3.78472e-12
3.51359e-12
3.24054e-12
2.96898e-12
2.70207e-12
2.44267e-12
2.19325e-12
1.95589e-12
1.73228e-12
1.52366e-12
1.33086e-12
1.15434e-12
9.94207e-13
8.50243e-13
7.21964e-13
6.08666e-13
5.09468e-13
4.23364e-13
3.49266e-13
2.86042e-13
2.32552e-13
1.87678e-13
1.50347e-13
1.19552e-13
9.43587e-14
7.39198e-14
5.74752e-14
4.43537e-14
3.39701e-14
2.5821e-14
1.9478e-14
1.45815e-14
1.08327e-14
7.98619e-15
5.84248e-15
4.24132e-15
3.05522e-15
2.1838e-15
1.54882e-15
1.08993e-15
7.61019e-16
5.27214e-16
3.62379e-16
2.47126e-16
1.67208e-16
1.12253e-16
7.47839e-17
4.94621e-17
3.25156e-17
2.13088e-17
1.40262e-17
9.44252e-18
6.76064e-18
5.50137e-18
1.13634e-15
1.16221e-15
1.23181e-15
1.34676e-15
1.51007e-15
1.72619e-15
2.00112e-15
2.34251e-15
2.75985e-15
3.2647e-15
3.87095e-15
4.59511e-15
5.45669e-15
6.47863e-15
7.68776e-15
9.11539e-15
1.07979e-14
1.27776e-14
1.51032e-14
1.78312e-14
2.10267e-14
2.47644e-14
2.91302e-14
3.42225e-14
4.01538e-14
4.70528e-14
5.50659e-14
6.43598e-14
7.51236e-14
8.75718e-14
1.01947e-13
1.18523e-13
1.37608e-13
1.5955e-13
1.84737e-13
2.13606e-13
2.46643e-13
2.84393e-13
3.27459e-13
3.76512e-13
4.32295e-13
4.9563e-13
5.67422e-13
6.48667e-13
7.40456e-13
8.43985e-13
9.60557e-13
1.09159e-12
1.23863e-12
1.40335e-12
1.58753e-12
1.79313e-12
2.02222e-12
2.27702e-12
2.55991e-12
2.87339e-12
3.22015e-12
3.60299e-12
4.02486e-12
4.48886e-12
4.99822e-12
5.55629e-12
6.16651e-12
6.83245e-12
7.55773e-12
8.34606e-12
9.20116e-12
1.01268e-11
1.11267e-11
1.22045e-11
1.3364e-11
1.46085e-11
1.59414e-11
1.73659e-11
1.8885e-11
2.05013e-11
2.22171e-11
2.40345e-11
2.59549e-11
2.79795e-11
3.01089e-11
3.23431e-11
3.46817e-11
3.71234e-11
3.96664e-11
4.23081e-11
4.50454e-11
4.78741e-11
5.07895e-11
5.3786e-11
5.68571e-11
5.99957e-11
6.31938e-11
6.64426e-11
6.97327e-11
7.30536e-11
7.63945e-11
7.97438e-11
8.30892e-11
8.6418e-11
8.9717e-11
9.29724e-11
9.61704e-11
9.92966e-11
1.02337e-10
1.05276e-10
1.08101e-10
1.10796e-10
1.13348e-10
1.15743e-10
1.17968e-10
1.20009e-10
1.21855e-10
1.23495e-10
1.24917e-10
1.26113e-10
1.27073e-10
1.27791e-10
1.28259e-10
1.28473e-10
1.28429e-10
1.28125e-10
1.27559e-10
1.26733e-10
1.25648e-10
1.24307e-10
1.22716e-10
1.20881e-10
1.1881e-10
1.16512e-10
1.13997e-10
1.11279e-10
1.08369e-10
1.05282e-10
1.02035e-10
9.86419e-11
9.51212e-11
9.14905e-11
8.77682e-11
8.39729e-11
8.01237e-11
7.62398e-11
7.23399e-11
6.8443e-11
6.45673e-11
6.07307e-11
5.69501e-11
5.32419e-11
4.96211e-11
4.6102e-11
4.26975e-11
3.94191e-11
3.62771e-11
3.32804e-11
3.04363e-11
2.77508e-11
2.52283e-11
2.28718e-11
2.06831e-11
1.86624e-11
1.68088e-11
1.51203e-11
1.35935e-11
1.22243e-11
1.10077e-11
9.93789e-12
9.00829e-12
8.21186e-12
7.54104e-12
6.9879e-12
6.54417e-12
6.20139e-12
5.95086e-12
5.78383e-12
5.69142e-12
5.66478e-12
5.69503e-12
5.77337e-12
5.8911e-12
6.03965e-12
6.21065e-12
6.39595e-12
6.58772e-12
6.77848e-12
6.96117e-12
7.12924e-12
7.27674e-12
7.39835e-12
7.48947e-12
7.54631e-12
7.56589e-12
7.54614e-12
7.48589e-12
7.38486e-12
7.24367e-12
7.06382e-12
6.84757e-12
6.59792e-12
6.31849e-12
6.01338e-12
5.68712e-12
5.34444e-12
4.99023e-12
4.62936e-12
4.26654e-12
3.90627e-12
3.55269e-12
3.20949e-12
2.8799e-12
2.56662e-12
2.27179e-12
1.99699e-12
1.74329e-12
1.51121e-12
1.30085e-12
1.11189e-12
9.43644e-13
7.95155e-13
6.65237e-13
5.52544e-13
4.55625e-13
3.7298e-13
3.03101e-13
2.4451e-13
1.95796e-13
1.5563e-13
1.22787e-13
9.61546e-14
7.47368e-14
5.76547e-14
4.41426e-14
3.35424e-14
2.52949e-14
1.89305e-14
1.40596e-14
1.03623e-14
7.57874e-15
5.50036e-15
3.9612e-15
2.8307e-15
2.00717e-15
1.41218e-15
9.85822e-16
6.82817e-16
4.69244e-16
3.19947e-16
2.16443e-16
1.45282e-16
9.67731e-17
6.39963e-17
4.20642e-17
2.75625e-17
1.81401e-17
1.22104e-17
8.74124e-18
7.11244e-18
2.03702e-15
2.08333e-15
2.208e-15
2.41392e-15
2.70647e-15
3.09363e-15
3.58612e-15
4.19764e-15
4.9452e-15
5.84948e-15
6.93533e-15
8.23232e-15
9.77534e-15
1.16054e-14
1.37706e-14
1.63269e-14
1.93394e-14
2.28835e-14
2.70466e-14
3.19296e-14
3.76487e-14
4.43374e-14
5.21492e-14
6.12596e-14
7.18696e-14
8.42085e-14
9.85376e-14
1.15154e-13
1.34394e-13
1.5664e-13
1.82325e-13
2.11933e-13
2.46016e-13
2.85187e-13
3.30139e-13
3.81645e-13
4.40568e-13
5.0787e-13
5.84619e-13
6.72003e-13
7.71331e-13
8.84053e-13
1.01176e-12
1.15621e-12
1.31932e-12
1.50317e-12
1.71007e-12
1.94248e-12
2.20309e-12
2.49482e-12
2.82079e-12
3.18436e-12
3.58912e-12
4.03892e-12
4.53783e-12
5.09018e-12
5.70053e-12
6.37366e-12
7.11461e-12
7.92861e-12
8.82109e-12
9.79767e-12
1.08641e-11
1.20263e-11
1.32903e-11
1.46621e-11
1.61477e-11
1.77533e-11
1.94848e-11
2.13481e-11
2.33487e-11
2.5492e-11
2.77832e-11
3.02268e-11
3.28271e-11
3.55877e-11
3.85116e-11
4.16013e-11
4.48582e-11
4.82831e-11
5.18757e-11
5.5635e-11
5.95587e-11
6.36434e-11
6.78846e-11
7.22767e-11
7.68125e-11
8.14841e-11
8.62817e-11
9.11945e-11
9.62106e-11
1.01316e-10
1.06497e-10
1.11738e-10
1.1702e-10
1.22327e-10
1.2764e-10
1.32937e-10
1.38199e-10
1.43404e-10
1.4853e-10
1.53555e-10
1.58456e-10
1.63209e-10
1.67793e-10
1.72184e-10
1.76361e-10
1.803e-10
1.83982e-10
1.87385e-10
1.90491e-10
1.9328e-10
1.95737e-10
1.97845e-10
1.99591e-10
2.00961e-10
2.01947e-10
2.02539e-10
2.02731e-10
2.02518e-10
2.01898e-10
2.00871e-10
1.99439e-10
1.97606e-10
1.95379e-10
1.92767e-10
1.89781e-10
1.86435e-10
1.82743e-10
1.78722e-10
1.74393e-10
1.69776e-10
1.64893e-10
1.59769e-10
1.54429e-10
1.489e-10
1.43208e-10
1.37382e-10
1.31451e-10
1.25443e-10
1.19387e-10
1.13311e-10
1.07244e-10
1.01214e-10
9.52457e-11