/*--------------------------------*- C++ -*----------------------------------*\
| =========                 |                                                 |
| \\      /  F ield         | OpenFOAM: The Open Source CFD Toolbox           |
|  \\    /   O peration     | Version:  v2012                                 |
|   \\  /    A nd           | Website:  www.openfoam.com                      |
|    \\/     M anipulation  |                                                 |
\*---------------------------------------------------------------------------*/
FoamFile
{
    version     2.0;
    format      ascii;
    class       surfaceScalarField;
    location    "11.5";
    object      phi;
}
// * * * * * * * * * * * * * * * * * * * * * * * * * * * * * * * * * * * * * //

dimensions      [0 3 -1 0 0 0 0];
oriented        oriented;


internalField   nonuniform List<scalar> 
130560
(
3.62657e-06
-3.62657e-06
7.25331e-06
-3.62673e-06
1.08804e-05
-3.62705e-06
1.45079e-05
-3.62751e-06
1.8136e-05
-3.62813e-06
2.17649e-05
-3.6289e-06
2.53947e-05
-3.62982e-06
2.90256e-05
-3.63088e-06
3.26577e-05
-3.63207e-06
3.62911e-05
-3.6334e-06
3.99259e-05
-3.63484e-06
4.35623e-05
-3.63641e-06
4.72004e-05
-3.63808e-06
5.08403e-05
-3.63986e-06
5.4482e-05
-3.64172e-06
5.81257e-05
-3.64366e-06
6.17713e-05
-3.64568e-06
6.54191e-05
-3.64775e-06
6.90689e-05
-3.64986e-06
7.27209e-05
-3.652e-06
7.63751e-05
-3.65416e-06
8.00314e-05
-3.65632e-06
8.36899e-05
-3.65846e-06
8.73505e-05
-3.66058e-06
9.10131e-05
-3.66264e-06
9.46777e-05
-3.66464e-06
9.83443e-05
-3.66655e-06
0.000102013
-3.66835e-06
0.000105683
-3.67002e-06
0.000109354
-3.67155e-06
0.000113027
-3.6729e-06
0.000116701
-3.67406e-06
0.000120376
-3.675e-06
0.000124052
-3.67569e-06
0.000127728
-3.67612e-06
0.000131404
-3.67625e-06
0.00013508
-3.67605e-06
0.000138756
-3.67551e-06
0.00014243
-3.67458e-06
0.000146104
-3.67325e-06
0.000149775
-3.67147e-06
0.000153444
-3.66922e-06
0.000157111
-3.66647e-06
0.000160774
-3.66319e-06
0.000164433
-3.65934e-06
0.000168088
-3.65488e-06
0.000171738
-3.6498e-06
0.000175382
-3.64404e-06
0.00017902
-3.63758e-06
0.00018265
-3.63038e-06
0.000186272
-3.62241e-06
0.000189886
-3.61363e-06
0.00019349
-3.60401e-06
0.000197084
-3.5935e-06
0.000200666
-3.58207e-06
0.000204235
-3.5697e-06
0.000207792
-3.55633e-06
0.000211334
-3.54194e-06
0.00021486
-3.52649e-06
0.00021837
-3.50994e-06
0.000221862
-3.49226e-06
0.000225336
-3.47342e-06
0.000228789
-3.45338e-06
0.000232221
-3.43211e-06
0.000235631
-3.40958e-06
0.000239017
-3.38575e-06
0.000242377
-3.36061e-06
0.000245711
-3.3341e-06
0.000249017
-3.30622e-06
0.000252294
-3.27694e-06
0.000255541
-3.24622e-06
0.000258755
-3.21405e-06
0.000261935
-3.18041e-06
0.00026508
-3.14527e-06
0.000268189
-3.10862e-06
0.000271259
-3.07044e-06
0.00027429
-3.03072e-06
0.00027728
-2.98945e-06
0.000280226
-2.94662e-06
0.000283128
-2.90222e-06
0.000285985
-2.85625e-06
0.000288793
-2.80871e-06
0.000291553
-2.75959e-06
0.000294262
-2.70891e-06
0.000296919
-2.65667e-06
0.000299521
-2.60287e-06
0.000302069
-2.54754e-06
0.00030456
-2.49068e-06
0.000306992
-2.43232e-06
0.000309364
-2.37247e-06
0.000311676
-2.31116e-06
0.000313924
-2.24842e-06
0.000316108
-2.18428e-06
0.000318227
-2.11877e-06
0.000320279
-2.05192e-06
0.000322263
-1.98378e-06
0.000324177
-1.91438e-06
0.000326021
-1.84377e-06
0.000327793
-1.772e-06
0.000329492
-1.69911e-06
0.000331117
-1.62515e-06
0.000332667
-1.55019e-06
0.000334142
-1.47428e-06
0.000335539
-1.39746e-06
0.000336859
-1.31982e-06
0.0003381
-1.24139e-06
0.000339263
-1.16226e-06
0.000340345
-1.08248e-06
0.000341347
-1.00212e-06
0.000342268
-9.21247e-07
0.000343108
-8.39929e-07
0.000343867
-7.58236e-07
0.000344543
-6.76237e-07
0.000345137
-5.94002e-07
0.000345648
-5.11601e-07
0.000346077
-4.29105e-07
0.000346424
-3.46584e-07
0.000346688
-2.64107e-07
0.00034687
-1.81745e-07
0.00034697
-9.95664e-08
0.000346987
-1.76391e-08
0.000346923
6.39696e-08
0.000346778
1.45194e-07
0.000346552
2.25968e-07
0.000346246
3.0623e-07
0.00034586
3.85918e-07
0.000345395
4.64971e-07
0.000344852
5.4333e-07
0.000344231
6.2094e-07
0.000343533
6.97747e-07
0.000342759
7.73697e-07
0.00034191
8.4874e-07
0.000340988
9.22829e-07
0.000339992
9.95918e-07
0.000338924
1.06796e-06
0.000337785
1.13893e-06
0.000336576
1.20877e-06
0.000335299
1.27745e-06
0.000333954
1.34494e-06
0.000332542
1.41121e-06
0.000331066
1.47623e-06
0.000329526
1.53997e-06
0.000327924
1.60242e-06
0.00032626
1.66354e-06
0.000324537
1.72333e-06
0.000322755
1.78177e-06
0.000320916
1.83883e-06
0.000319022
1.89452e-06
0.000317073
1.94883e-06
0.000315071
2.00174e-06
0.000313018
2.05325e-06
0.000310915
2.10336e-06
0.000308763
2.15207e-06
0.000306563
2.19939e-06
0.000304318
2.24531e-06
0.000302028
2.28984e-06
0.000299695
2.33299e-06
0.00029732
2.37476e-06
0.000294905
2.41518e-06
0.000292451
2.45424e-06
0.000289959
2.49196e-06
0.000287431
2.52837e-06
0.000284867
2.56346e-06
0.00028227
2.59727e-06
0.00027964
2.6298e-06
0.000276979
2.66109e-06
0.000274288
2.69114e-06
0.000271568
2.71998e-06
0.00026882
2.74763e-06
0.000266046
2.77411e-06
0.000263247
2.79945e-06
0.000260423
2.82367e-06
0.000257576
2.84679e-06
0.000254707
2.86884e-06
0.000251817
2.88985e-06
0.000248908
2.90983e-06
0.000245979
2.92882e-06
0.000243032
2.94683e-06
0.000240068
2.96391e-06
0.000237088
2.98006e-06
0.000234093
2.99532e-06
0.000231083
3.00972e-06
0.00022806
3.02328e-06
0.000225024
3.03602e-06
0.000221976
3.04797e-06
0.000218917
3.05917e-06
0.000215847
3.06962e-06
0.000212768
3.07936e-06
0.000209679
3.08842e-06
0.000206582
3.09681e-06
0.000203478
3.10457e-06
0.000200366
3.11172e-06
0.000197248
3.11827e-06
0.000194123
3.12426e-06
0.000190994
3.12971e-06
0.000187859
3.13464e-06
0.00018472
3.13908e-06
0.000181577
3.14303e-06
0.00017843
3.14654e-06
0.000175281
3.14961e-06
0.000172129
3.15228e-06
0.000168974
3.15455e-06
0.000165818
3.15645e-06
0.00016266
3.158e-06
0.0001595
3.15922e-06
0.00015634
3.16013e-06
0.00015318
3.16074e-06
0.000150018
3.16108e-06
0.000146857
3.16115e-06
0.000143696
3.16098e-06
0.000140536
3.16059e-06
0.000137376
3.15998e-06
0.000134217
3.15918e-06
0.000131058
3.1582e-06
0.000127901
3.15705e-06
0.000124746
3.15575e-06
0.000121591
3.15432e-06
0.000118438
3.15275e-06
0.000115287
3.15108e-06
0.000112138
3.14931e-06
0.000108991
3.14746e-06
0.000105845
3.14552e-06
0.000102702
3.14353e-06
9.95601e-05
3.14148e-06
9.64207e-05
3.13939e-06
9.32835e-05
3.13726e-06
9.01484e-05
3.13511e-06
8.70154e-05
3.13295e-06
8.38846e-05
3.13079e-06
8.0756e-05
3.12863e-06
7.76295e-05
3.12648e-06
7.45051e-05
3.12435e-06
7.13829e-05
3.12226e-06
6.82627e-05
3.12019e-06
6.51445e-05
3.11817e-06
6.20283e-05
3.11619e-06
5.89141e-05
3.11428e-06
5.58016e-05
3.11242e-06
5.2691e-05
3.11062e-06
4.95821e-05
3.1089e-06
4.64749e-05
3.10726e-06
4.33692e-05
3.10569e-06
4.02649e-05
3.10421e-06
3.71621e-05
3.10283e-06
3.40606e-05
3.10153e-06
3.09603e-05
3.10033e-06
2.7861e-05
3.09923e-06
2.47628e-05
3.09823e-06
2.16655e-05
3.09733e-06
1.85689e-05
3.09655e-06
1.54731e-05
3.09587e-06
1.23778e-05
3.0953e-06
9.28293e-06
3.09484e-06
6.18843e-06
3.0945e-06
3.09416e-06
3.09427e-06
3.09416e-06
3.62642e-06
-7.253e-06
7.253e-06
-7.25331e-06
1.08799e-05
-7.25394e-06
1.45073e-05
-7.25488e-06
1.81352e-05
-7.25612e-06
2.1764e-05
-7.25766e-06
2.53937e-05
-7.2595e-06
2.90244e-05
-7.26162e-06
3.26564e-05
-7.26401e-06
3.62896e-05
-7.26667e-06
3.99244e-05
-7.26957e-06
4.35607e-05
-7.27271e-06
4.71987e-05
-7.27607e-06
5.08384e-05
-7.27963e-06
5.44801e-05
-7.28336e-06
5.81237e-05
-7.28726e-06
6.17693e-05
-7.2913e-06
6.5417e-05
-7.29545e-06
6.90668e-05
-7.29969e-06
7.27188e-05
-7.30399e-06
7.6373e-05
-7.30832e-06
8.00293e-05
-7.31265e-06
8.36878e-05
-7.31696e-06
8.73484e-05
-7.3212e-06
9.10111e-05
-7.32535e-06
9.46759e-05
-7.32936e-06
9.83425e-05
-7.3332e-06
0.000102011
-7.33683e-06
0.000105681
-7.3402e-06
0.000109353
-7.34327e-06
0.000113026
-7.346e-06
0.0001167
-7.34834e-06
0.000120376
-7.35024e-06
0.000124051
-7.35166e-06
0.000127728
-7.35254e-06
0.000131404
-7.35282e-06
0.000135081
-7.35246e-06
0.000138757
-7.3514e-06
0.000142432
-7.34957e-06
0.000146105
-7.34693e-06
0.000149777
-7.34341e-06
0.000153447
-7.33895e-06
0.000157114
-7.33348e-06
0.000160778
-7.32694e-06
0.000164438
-7.31927e-06
0.000168093
-7.3104e-06
0.000171744
-7.30026e-06
0.000175389
-7.28878e-06
0.000179027
-7.2759e-06
0.000182658
-7.26154e-06
0.000186281
-7.24564e-06
0.000189896
-7.22811e-06
0.000193501
-7.20889e-06
0.000197095
-7.18791e-06
0.000200678
-7.1651e-06
0.000204249
-7.14038e-06
0.000207806
-7.11368e-06
0.000211349
-7.08494e-06
0.000214877
-7.05407e-06
0.000218388
-7.02101e-06
0.000221881
-6.98569e-06
0.000225356
-6.94804e-06
0.00022881
-6.90799e-06
0.000232244
-6.86548e-06
0.000235655
-6.82045e-06
0.000239042
-6.77283e-06
0.000242404
-6.72256e-06
0.000245739
-6.66959e-06
0.000249047
-6.61385e-06
0.000252325
-6.5553e-06
0.000255573
-6.4939e-06
0.000258788
-6.42958e-06
0.00026197
-6.36231e-06
0.000265117
-6.29205e-06
0.000268227
-6.21876e-06
0.000271299
-6.14242e-06
0.000274331
-6.06299e-06
0.000277322
-5.98046e-06
0.000280271
-5.8948e-06
0.000283174
-5.80601e-06
0.000286032
-5.71407e-06
0.000288842
-5.61898e-06
0.000291604
-5.52075e-06
0.000294314
-5.41938e-06
0.000296972
-5.31488e-06
0.000299577
-5.20728e-06
0.000302126
-5.0966e-06
0.000304618
-4.98286e-06
0.000307052
-4.86612e-06
0.000309426
-4.7464e-06
0.000311738
-4.62376e-06
0.000313988
-4.49825e-06
0.000316174
-4.36993e-06
0.000318294
-4.23887e-06
0.000320347
-4.10513e-06
0.000322332
-3.9688e-06
0.000324248
-3.82996e-06
0.000326093
-3.6887e-06
0.000327866
-3.5451e-06
0.000329566
-3.39927e-06
0.000331192
-3.25132e-06
0.000332743
-3.10134e-06
0.000334218
-2.94944e-06
0.000335617
-2.79576e-06
0.000336937
-2.6404e-06
0.000338179
-2.48349e-06
0.000339342
-2.32516e-06
0.000340425
-2.16554e-06
0.000341428
-2.00475e-06
0.00034235
-1.84294e-06
0.00034319
-1.68023e-06
0.000343948
-1.51678e-06
0.000344625
-1.35271e-06
0.000345219
-1.18817e-06
0.000345731
-1.02329e-06
0.00034616
-8.58232e-07
0.000346506
-6.93119e-07
0.00034677
-5.28097e-07
0.000346952
-3.63304e-07
0.000347051
-1.98879e-07
0.000347069
-3.49571e-08
0.000347004
1.28326e-07
0.000346859
2.90839e-07
0.000346632
4.52452e-07
0.000346325
6.13038e-07
0.000345939
7.72473e-07
0.000345473
9.30636e-07
0.000344929
1.08741e-06
0.000344307
1.24269e-06
0.000343609
1.39635e-06
0.000342834
1.5483e-06
0.000341984
1.69844e-06
0.000341061
1.84666e-06
0.000340064
1.99288e-06
0.000338995
2.13701e-06
0.000337854
2.27898e-06
0.000336645
2.41869e-06
0.000335366
2.55609e-06
0.00033402
2.6911e-06
0.000332607
2.82367e-06
0.00033113
2.95374e-06
0.000329589
3.08125e-06
0.000327985
3.20616e-06
0.00032632
3.32843e-06
0.000324595
3.44802e-06
0.000322812
3.5649e-06
0.000320972
3.67904e-06
0.000319076
3.79043e-06
0.000317126
3.89904e-06
0.000315123
4.00487e-06
0.000313068
4.10789e-06
0.000310963
4.20812e-06
0.00030881
4.30554e-06
0.000306609
4.40017e-06
0.000304362
4.492e-06
0.000302071
4.58106e-06
0.000299737
4.66734e-06
0.000297361
4.75089e-06
0.000294944
4.8317e-06
0.000292488
4.90981e-06
0.000289995
4.98525e-06
0.000287465
5.05804e-06
0.000284901
5.12821e-06
0.000282302
5.19581e-06
0.000279671
5.26086e-06
0.000277009
5.32341e-06
0.000274316
5.38349e-06
0.000271595
5.44114e-06
0.000268847
5.49642e-06
0.000266071
5.54936e-06
0.000263271
5.60002e-06
0.000260446
5.64843e-06
0.000257598
5.69465e-06
0.000254728
5.73873e-06
0.000251837
5.78071e-06
0.000248926
5.82065e-06
0.000245997
5.8586e-06
0.000243049
5.89461e-06
0.000240084
5.92873e-06
0.000237103
5.96101e-06
0.000234107
5.99151e-06
0.000231096
6.02028e-06
0.000228072
6.04737e-06
0.000225036
6.07283e-06
0.000221987
6.09671e-06
0.000218927
6.11907e-06
0.000215857
6.13995e-06
0.000212777
6.15941e-06
0.000209687
6.1775e-06
0.00020659
6.19426e-06
0.000203485
6.20976e-06
0.000200372
6.22402e-06
0.000197254
6.23711e-06
0.000194129
6.24907e-06
0.000190999
6.25994e-06
0.000187863
6.26978e-06
0.000184724
6.27862e-06
0.00018158
6.28652e-06
0.000178433
6.29351e-06
0.000175283
6.29964e-06
0.000172131
6.30494e-06
0.000168976
6.30947e-06
0.000165819
6.31325e-06
0.000162661
6.31634e-06
0.000159501
6.31876e-06
0.000156341
6.32055e-06
0.00015318
6.32176e-06
0.000150018
6.32241e-06
0.000146857
6.32254e-06
0.000143696
6.32219e-06
0.000140535
6.32138e-06
0.000137375
6.32015e-06
0.000134216
6.31853e-06
0.000131057
6.31656e-06
0.0001279
6.31425e-06
0.000124744
6.31164e-06
0.00012159
6.30875e-06
0.000118437
6.30562e-06
0.000115286
6.30226e-06
0.000112136
6.29871e-06
0.000108989
6.29498e-06
0.000105843
6.29111e-06
0.000102699
6.2871e-06
9.9558e-05
6.283e-06
9.64186e-05
6.2788e-06
9.32813e-05
6.27454e-06
9.01462e-05
6.27024e-06
8.70132e-05
6.26591e-06
8.38824e-05
6.26157e-06
8.07538e-05
6.25725e-06
7.76273e-05
6.25294e-06
7.4503e-05
6.24868e-06
7.13808e-05
6.24447e-06
6.82606e-05
6.24034e-06
6.51425e-05
6.23629e-06
6.20264e-05
6.23233e-06
5.89122e-05
6.22849e-06
5.57998e-05
6.22477e-06
5.26893e-05
6.22118e-06
4.95804e-05
6.21773e-06
4.64733e-05
6.21443e-06
4.33677e-05
6.2113e-06
4.02635e-05
6.20834e-06
3.71608e-05
6.20556e-06
3.40594e-05
6.20296e-06
3.09592e-05
6.20055e-06
2.786e-05
6.19835e-06
2.47619e-05
6.19635e-06
2.16647e-05
6.19456e-06
1.85682e-05
6.19298e-06
1.54725e-05
6.19162e-06
1.23773e-05
6.19048e-06
9.28258e-06
6.18957e-06
6.1882e-06
6.18888e-06
3.09404e-06
6.18843e-06
6.1882e-06
3.62611e-06
-1.08791e-05
7.25237e-06
-1.08796e-05
1.0879e-05
-1.08805e-05
1.4506e-05
-1.08819e-05
1.81337e-05
-1.08838e-05
2.17622e-05
-1.08861e-05
2.53916e-05
-1.08889e-05
2.9022e-05
-1.08921e-05
3.26537e-05
-1.08957e-05
3.62867e-05
-1.08997e-05
3.99212e-05
-1.09041e-05
4.35573e-05
-1.09088e-05
4.71951e-05
-1.09139e-05
5.08347e-05
-1.09192e-05
5.44762e-05
-1.09248e-05
5.81196e-05
-1.09307e-05
6.17651e-05
-1.09368e-05
6.54127e-05
-1.09431e-05
6.90625e-05
-1.09495e-05
7.27145e-05
-1.09559e-05
7.63686e-05
-1.09625e-05
8.0025e-05
-1.0969e-05
8.36835e-05
-1.09755e-05
8.73443e-05
-1.09819e-05
9.10071e-05
-1.09882e-05
9.4672e-05
-1.09943e-05
9.83389e-05
-1.10001e-05
0.000102008
-1.10056e-05
0.000105678
-1.10107e-05
0.00010935
-1.10153e-05
0.000113024
-1.10195e-05
0.000116698
-1.10231e-05
0.000120374
-1.1026e-05
0.000124051
-1.10282e-05
0.000127728
-1.10295e-05
0.000131405
-1.103e-05
0.000135082
-1.10296e-05
0.000138759
-1.1028e-05
0.000142434
-1.10254e-05
0.000146109
-1.10215e-05
0.000149782
-1.10163e-05
0.000153453
-1.10097e-05
0.000157121
-1.10016e-05
0.000160786
-1.09918e-05
0.000164447
-1.09804e-05
0.000168103
-1.09672e-05
0.000171755
-1.09521e-05
0.000175401
-1.09349e-05
0.000179041
-1.09157e-05
0.000182674
-1.08942e-05
0.000186299
-1.08705e-05
0.000189915
-1.08443e-05
0.000193522
-1.08155e-05
0.000197118
-1.07842e-05
0.000200703
-1.075e-05
0.000204275
-1.0713e-05
0.000207835
-1.06731e-05
0.00021138
-1.06301e-05
0.00021491
-1.05838e-05
0.000218423
-1.05343e-05
0.000221919
-1.04814e-05
0.000225396
-1.04251e-05
0.000228853
-1.03651e-05
0.000232289
-1.03014e-05
0.000235702
-1.02339e-05
0.000239092
-1.01626e-05
0.000242457
-1.00872e-05
0.000245795
-1.00078e-05
0.000249105
-9.92429e-06
0.000252387
-9.83653e-06
0.000255637
-9.74448e-06
0.000258856
-9.64805e-06
0.000262041
-9.5472e-06
0.00026519
-9.44185e-06
0.000268304
-9.33196e-06
0.000271379
-9.21748e-06
0.000274414
-9.09837e-06
0.000277408
-8.97459e-06
0.000280359
-8.84613e-06
0.000283266
-8.71294e-06
0.000286127
-8.57504e-06
0.000288941
-8.4324e-06
0.000291705
-8.28504e-06
0.000294419
-8.13297e-06
0.00029708
-7.9762e-06
0.000299687
-7.81477e-06
0.00030224
-7.6487e-06
0.000304735
-7.47806e-06
0.000307172
-7.30289e-06
0.000309548
-7.12325e-06
0.000311864
-6.93922e-06
0.000314116
-6.75088e-06
0.000316305
-6.55832e-06
0.000318428
-6.36164e-06
0.000320483
-6.16094e-06
0.000322471
-5.95635e-06
0.000324389
-5.74797e-06
0.000326236
-5.53596e-06
0.000328012
-5.32044e-06
0.000329714
-5.10157e-06
0.000331342
-4.8795e-06
0.000332895
-4.65439e-06
0.000334372
-4.42641e-06
0.000335772
-4.19573e-06
0.000337094
-3.96254e-06
0.000338338
-3.72702e-06
0.000339502
-3.48936e-06
0.000340586
-3.24975e-06
0.00034159
-3.00841e-06
0.000342512
-2.76551e-06
0.000343353
-2.52129e-06
0.000344113
-2.27593e-06
0.00034479
-2.02965e-06
0.000345384
-1.78266e-06
0.000345896
-1.53518e-06
0.000346325
-1.28741e-06
0.000346672
-1.03957e-06
0.000346935
-7.91858e-07
0.000347116
-5.44496e-07
0.000347215
-2.97688e-07
0.000347232
-5.16372e-08
0.000347167
1.93453e-07
0.00034702
4.37385e-07
0.000346793
6.79962e-07
0.000346485
9.20995e-07
0.000346097
1.1603e-06
0.00034563
1.39769e-06
0.000345084
1.63299e-06
0.000344461
1.86604e-06
0.000343761
2.09667e-06
0.000342984
2.32472e-06
0.000342133
2.55004e-06
0.000341207
2.77249e-06
0.000340208
2.99193e-06
0.000339137
3.20823e-06
0.000337994
3.42127e-06
0.000336782
3.63094e-06
0.000335501
3.83712e-06
0.000334152
4.03971e-06
0.000332737
4.23864e-06
0.000331257
4.4338e-06
0.000329713
4.62512e-06
0.000328107
4.81254e-06
0.00032644
4.99599e-06
0.000324712
5.17541e-06
0.000322926
5.35077e-06
0.000321083
5.52201e-06
0.000319185
5.68912e-06
0.000317232
5.85205e-06
0.000315226
6.0108e-06
0.000313168
6.16534e-06
0.000311061
6.31568e-06
0.000308904
6.46181e-06
0.000306701
6.60374e-06
0.000304451
6.74148e-06
0.000302157
6.87504e-06
0.00029982
7.00445e-06
0.000297441
7.12974e-06
0.000295022
7.25093e-06
0.000292564
7.36806e-06
0.000290068
7.48118e-06
0.000287536
7.59033e-06
0.000284968
7.69555e-06
0.000282367
7.79689e-06
0.000279734
7.89442e-06
0.000277069
7.98819e-06
0.000274374
8.07826e-06
0.000271651
8.16469e-06
0.0002689
8.24755e-06
0.000266122
8.32691e-06
0.000263319
8.40283e-06
0.000260492
8.47539e-06
0.000257642
8.54466e-06
0.00025477
8.61071e-06
0.000251877
8.67362e-06
0.000248964
8.73347e-06
0.000246033
8.79033e-06
0.000243083
8.84427e-06
0.000240116
8.89539e-06
0.000237134
8.94375e-06
0.000234136
8.98943e-06
0.000231124
9.03252e-06
0.000228098
9.07308e-06
0.000225059
9.11121e-06
0.000222009
9.14697e-06
0.000218948
9.18044e-06
0.000215876
9.2117e-06
0.000212795
9.24083e-06
0.000209704
9.2679e-06
0.000206606
9.29299e-06
0.000203499
9.31616e-06
0.000200386
9.3375e-06
0.000197266
9.35708e-06
0.00019414
9.37496e-06
0.000191008
9.39121e-06
0.000187872
9.40591e-06
0.000184732
9.41912e-06
0.000181587
9.43091e-06
0.00017844
9.44134e-06
0.000175289
9.45048e-06
0.000172135
9.45839e-06
0.00016898
9.46513e-06
0.000165822
9.47075e-06
0.000162663
9.47533e-06
0.000159503
9.47892e-06
0.000156342
9.48156e-06
0.00015318
9.48333e-06
0.000150019
9.48426e-06
0.000146857
9.48442e-06
0.000143695
9.48385e-06
0.000140534
9.4826e-06
0.000137373
9.48072e-06
0.000134214
9.47825e-06
0.000131055
9.47525e-06
0.000127897
9.47175e-06
0.000124741
9.4678e-06
0.000121587
9.46344e-06
0.000118433
9.45871e-06
0.000115282
9.45364e-06
0.000112132
9.44828e-06
0.000108985
9.44266e-06
0.000105839
9.43682e-06
0.000102695
9.43079e-06
9.95538e-05
9.4246e-06
9.64143e-05
9.41828e-06
9.3277e-05
9.41187e-06
9.01418e-05
9.40539e-06
8.70089e-05
9.39888e-06
8.38781e-05
9.39235e-06
8.07495e-05
9.38584e-06
7.76231e-05
9.37936e-06
7.44988e-05
9.37295e-06
7.13767e-05
9.36662e-06
6.82566e-05
9.3604e-06
6.51386e-05
9.35431e-06
6.20226e-05
9.34836e-06
5.89085e-05
9.34258e-06
5.57962e-05
9.33698e-06
5.26858e-05
9.33159e-06
4.95772e-05
9.3264e-06
4.64701e-05
9.32145e-06
4.33647e-05
9.31674e-06
4.02608e-05
9.31229e-06
3.71582e-05
9.3081e-06
3.4057e-05
9.3042e-06
3.09569e-05
9.30058e-06
2.7858e-05
9.29727e-06
2.47601e-05
9.29426e-06
2.16631e-05
9.29157e-06
1.85669e-05
9.2892e-06
1.54714e-05
9.28715e-06
1.23764e-05
9.28544e-06
9.2819e-06
9.28407e-06
6.18774e-06
9.28304e-06
3.09381e-06
9.28235e-06
9.28201e-06
3.62563e-06
-1.45047e-05
7.25143e-06
-1.45054e-05
1.08775e-05
-1.45066e-05
1.45041e-05
-1.45085e-05
1.81314e-05
-1.4511e-05
2.17594e-05
-1.45142e-05
2.53884e-05
-1.45179e-05
2.90184e-05
-1.45221e-05
3.26497e-05
-1.4527e-05
3.62824e-05
-1.45323e-05
3.99165e-05
-1.45382e-05
4.35522e-05
-1.45446e-05
4.71897e-05
-1.45513e-05
5.0829e-05
-1.45585e-05
5.44703e-05
-1.45661e-05
5.81135e-05
-1.4574e-05
6.17589e-05
-1.45821e-05
6.54063e-05
-1.45905e-05
6.9056e-05
-1.45991e-05
7.27079e-05
-1.46078e-05
7.63621e-05
-1.46166e-05
8.00185e-05
-1.46254e-05
8.36771e-05
-1.46342e-05
8.7338e-05
-1.46428e-05
9.1001e-05
-1.46512e-05
9.46662e-05
-1.46594e-05
9.83334e-05
-1.46673e-05
0.000102002
-1.46747e-05
0.000105673
-1.46816e-05
0.000109346
-1.46879e-05
0.00011302
-1.46936e-05
0.000116695
-1.46984e-05
0.000120372
-1.47024e-05
0.000124049
-1.47055e-05
0.000127727
-1.47074e-05
0.000131405
-1.47082e-05
0.000135083
-1.47077e-05
0.000138761
-1.47058e-05
0.000142438
-1.47024e-05
0.000146114
-1.46974e-05
0.000149788
-1.46906e-05
0.000153461
-1.46819e-05
0.00015713
-1.46712e-05
0.000160797
-1.46584e-05
0.00016446
-1.46433e-05
0.000168119
-1.46259e-05
0.000171772
-1.46059e-05
0.000175421
-1.45832e-05
0.000179063
-1.45577e-05
0.000182698
-1.45293e-05
0.000186325
-1.44977e-05
0.000189944
-1.4463e-05
0.000193553
-1.44248e-05
0.000197152
-1.43832e-05
0.00020074
-1.43378e-05
0.000204315
-1.42887e-05
0.000207878
-1.42356e-05
0.000211426
-1.41784e-05
0.000214959
-1.41169e-05
0.000218476
-1.40511e-05
0.000221975
-1.39807e-05
0.000225456
-1.39057e-05
0.000228917
-1.38258e-05
0.000232356
-1.37411e-05
0.000235774
-1.36513e-05
0.000239167
-1.35563e-05
0.000242536
-1.34559e-05
0.000245878
-1.33502e-05
0.000249193
-1.3239e-05
0.000252479
-1.31221e-05
0.000255734
-1.29994e-05
0.000258956
-1.2871e-05
0.000262146
-1.27366e-05
0.0002653
-1.25962e-05
0.000268418
-1.24498e-05
0.000271498
-1.22972e-05
0.000274538
-1.21384e-05
0.000277537
-1.19734e-05
0.000280493
-1.18022e-05
0.000283404
-1.16246e-05
0.00028627
-1.14407e-05
0.000289088
-1.12506e-05
0.000291857
-1.10541e-05
0.000294575
-1.08513e-05
0.000297241
-1.06422e-05
0.000299854
-1.04269e-05
0.00030241
-1.02054e-05
0.00030491
-9.97779e-06
0.000307351
-9.74413e-06
0.000309732
-9.5045e-06
0.000312052
-9.259e-06
0.000314309
-9.00774e-06
0.000316502
-8.75084e-06
0.000318628
-8.48843e-06
0.000320688
-8.22065e-06
0.000322679
-7.94766e-06
0.000324601
-7.66963e-06
0.000326452
-7.38673e-06
0.000328231
-7.09914e-06
0.000329936
-6.80707e-06
0.000331567
-6.51072e-06
0.000333123
-6.21031e-06
0.000334603
-5.90607e-06
0.000336005
-5.59822e-06
0.00033733
-5.28701e-06
0.000338575
-4.97268e-06
0.000339742
-4.6555e-06
0.000340828
-4.33572e-06
0.000341833
-4.01361e-06
0.000342757
-3.68943e-06
0.000343599
-3.36347e-06
0.000344359
-3.036e-06
0.000345037
-2.7073e-06
0.000345632
-2.37766e-06
0.000346144
-2.04735e-06
0.000346573
-1.71666e-06
0.000346919
-1.38588e-06
0.000347183
-1.05527e-06
0.000347363
-7.25136e-07
0.000347461
-3.95739e-07
0.000347477
-6.73577e-08
0.000347411
2.59738e-07
0.000347263
5.85283e-07
0.000347034
9.09016e-07
0.000346724
1.23068e-06
0.000346334
1.55003e-06
0.000345865
1.86683e-06
0.000345317
2.18083e-06
0.000344692
2.49182e-06
0.000343989
2.79957e-06
0.00034321
3.10387e-06
0.000342355
3.40452e-06
0.000341426
3.70133e-06
0.000340424
3.99412e-06
0.00033935
4.28271e-06
0.000338204
4.56695e-06
0.000336988
4.84667e-06
0.000335704
5.12173e-06
0.000334351
5.392e-06
0.000332933
5.65736e-06
0.000331449
5.91769e-06
0.000329901
6.1729e-06
0.000328291
6.42289e-06
0.000326619
6.66757e-06
0.000324888
6.90688e-06
0.000323098
7.14075e-06
0.00032125
7.36913e-06
0.000319348
7.59197e-06
0.00031739
7.80925e-06
0.00031538
8.02093e-06
0.000313319
8.227e-06
0.000311207
8.42745e-06
0.000309046
8.62228e-06
0.000306839
8.8115e-06
0.000304585
8.99513e-06
0.000302287
9.17318e-06
0.000299946
9.34568e-06
0.000297563
9.51268e-06
0.000295139
9.67422e-06
0.000292677
9.83033e-06
0.000290177
9.98109e-06
0.000287641
1.01265e-05
0.00028507
1.02668e-05
0.000282465
1.04018e-05
0.000279828
1.05317e-05
0.000277159
1.06567e-05
0.000274461
1.07767e-05
0.000271734
1.08918e-05
0.000268979
1.10022e-05
0.000266198
1.11079e-05
0.000263392
1.1209e-05
0.000260562
1.13056e-05
0.000257708
1.13979e-05
0.000254833
1.14858e-05
0.000251937
1.15696e-05
0.000249021
1.16493e-05
0.000246087
1.1725e-05
0.000243134
1.17968e-05
0.000240165
1.18648e-05
0.000237179
1.19292e-05
0.000234179
1.199e-05
0.000231164
1.20473e-05
0.000228136
1.21012e-05
0.000225095
1.2152e-05
0.000222043
1.21995e-05
0.000218979
1.2244e-05
0.000215905
1.22856e-05
0.000212822
1.23243e-05
0.000209729
1.23603e-05
0.000206629
1.23936e-05
0.00020352
1.24244e-05
0.000200405
1.24528e-05
0.000197284
1.24787e-05
0.000194156
1.25025e-05
0.000191023
1.2524e-05
0.000187886
1.25435e-05
0.000184744
1.2561e-05
0.000181598
1.25767e-05
0.000178449
1.25905e-05
0.000175297
1.26026e-05
0.000172142
1.2613e-05
0.000168985
1.26219e-05
0.000165827
1.26293e-05
0.000162667
1.26353e-05
0.000159506
1.264e-05
0.000156344
1.26435e-05
0.000153181
1.26457e-05
0.000150019
1.26469e-05
0.000146856
1.2647e-05
0.000143694
1.26462e-05
0.000140532
1.26444e-05
0.000137371
1.26419e-05
0.000134211
1.26385e-05
0.000131051
1.26344e-05
0.000127893
1.26297e-05
0.000124737
1.26244e-05
0.000121582
1.26185e-05
0.000118428
1.26121e-05
0.000115277
1.26053e-05
0.000112127
1.25981e-05
0.000108979
1.25906e-05
0.000105833
1.25827e-05
0.000102689
1.25746e-05
9.95475e-05
1.25663e-05
9.64079e-05
1.25579e-05
9.32705e-05
1.25493e-05
9.01353e-05
1.25406e-05
8.70024e-05
1.25319e-05
8.38716e-05
1.25231e-05
8.07431e-05
1.25144e-05
7.76167e-05
1.25057e-05
7.44925e-05
1.24971e-05
7.13705e-05
1.24887e-05
6.82505e-05
1.24803e-05
6.51327e-05
1.24722e-05
6.20168e-05
1.24642e-05
5.89029e-05
1.24565e-05
5.57909e-05
1.2449e-05
5.26807e-05
1.24418e-05
4.95722e-05
1.24348e-05
4.64654e-05
1.24282e-05
4.33603e-05
1.24219e-05
4.02566e-05
1.2416e-05
3.71543e-05
1.24104e-05
3.40534e-05
1.24051e-05
3.09536e-05
1.24003e-05
2.7855e-05
1.23959e-05
2.47574e-05
1.23919e-05
2.16607e-05
1.23883e-05
1.85649e-05
1.23851e-05
1.54697e-05
1.23824e-05
1.2375e-05
1.23801e-05
9.28086e-06
1.23782e-05
6.18705e-06
1.23769e-05
3.09347e-06
1.23759e-05
1.23755e-05
3.625e-06
-1.81297e-05
7.25016e-06
-1.81305e-05
1.08756e-05
-1.81321e-05
1.45016e-05
-1.81345e-05
1.81283e-05
-1.81377e-05
2.17557e-05
-1.81416e-05
2.53841e-05
-1.81463e-05
2.90136e-05
-1.81516e-05
3.26443e-05
-1.81577e-05
3.62765e-05
-1.81645e-05
3.99101e-05
-1.81719e-05
4.35455e-05
-1.81799e-05
4.71825e-05
-1.81884e-05
5.08215e-05
-1.81975e-05
5.44624e-05
-1.8207e-05
5.81054e-05
-1.82169e-05
6.17505e-05
-1.82272e-05
6.53978e-05
-1.82378e-05
6.90473e-05
-1.82487e-05
7.26991e-05
-1.82597e-05
7.63533e-05
-1.82708e-05
8.00097e-05
-1.82819e-05
8.36685e-05
-1.82929e-05
8.73295e-05
-1.83039e-05
9.09929e-05
-1.83145e-05
9.46583e-05
-1.83249e-05
9.8326e-05
-1.83349e-05
0.000101996
-1.83443e-05
0.000105667
-1.83531e-05
0.00010934
-1.83612e-05
0.000113015
-1.83684e-05
0.000116691
-1.83747e-05
0.000120369
-1.83799e-05
0.000124047
-1.83839e-05
0.000127726
-1.83865e-05
0.000131406
-1.83877e-05
0.000135085
-1.83873e-05
0.000138765
-1.83851e-05
0.000142443
-1.83811e-05
0.000146121
-1.8375e-05
0.000149797
-1.83668e-05
0.000153471
-1.83561e-05
0.000157143
-1.8343e-05
0.000160812
-1.83273e-05
0.000164477
-1.83087e-05
0.000168139
-1.82871e-05
0.000171795
-1.82623e-05
0.000175446
-1.82343e-05
0.000179091
-1.82027e-05
0.000182729
-1.81674e-05
0.00018636
-1.81283e-05
0.000189982
-1.80851e-05
0.000193595
-1.80377e-05
0.000197197
-1.79858e-05
0.000200789
-1.79294e-05
0.000204368
-1.78683e-05
0.000207935
-1.78022e-05
0.000211488
-1.77309e-05
0.000215025
-1.76544e-05
0.000218546
-1.75723e-05
0.00022205
-1.74846e-05
0.000225536
-1.73911e-05
0.000229001
-1.72915e-05
0.000232446
-1.71858e-05
0.000235869
-1.70738e-05
0.000239268
-1.69553e-05
0.000242642
-1.68301e-05
0.00024599
-1.66981e-05
0.00024931
-1.65593e-05
0.000252601
-1.64133e-05
0.000255862
-1.62602e-05
0.000259091
-1.60998e-05
0.000262286
-1.5932e-05
0.000265447
-1.57566e-05
0.000268571
-1.55737e-05
0.000271657
-1.53831e-05
0.000274703
-1.51847e-05
0.000277708
-1.49785e-05
0.00028067
-1.47645e-05
0.000283588
-1.45426e-05
0.00028646
-1.43128e-05
0.000289285
-1.4075e-05
0.00029206
-1.38294e-05
0.000294785
-1.35758e-05
0.000297457
-1.33144e-05
0.000300075
-1.30452e-05
0.000302638
-1.27682e-05
0.000305144
-1.24836e-05
0.000307591
-1.21913e-05
0.000309978
-1.18916e-05
0.000312304
-1.15845e-05
0.000314566
-1.12702e-05
0.000316764
-1.09489e-05
0.000318896
-1.06206e-05
0.000320961
-1.02856e-05
0.000322958
-9.94403e-06
0.000324884
-9.59616e-06
0.000326739
-9.24218e-06
0.000328523
-8.88232e-06
0.000330232
-8.51685e-06
0.000331868
-8.14601e-06
0.000333427
-7.77008e-06
0.000334911
-7.38933e-06
0.000336317
-7.00407e-06
0.000337644
-6.61459e-06
0.000338893
-6.22121e-06
0.000340061
-5.82424e-06
0.00034115
-5.42401e-06
0.000342157
-5.02087e-06
0.000343083
-4.61514e-06
0.000343926
-4.20716e-06
0.000344688
-3.7973e-06
0.000345366
-3.3859e-06
0.000345962
-2.97332e-06
0.000346475
-2.5599e-06
0.000346904
-2.14601e-06
0.00034725
-1.732e-06
0.000347513
-1.31823e-06
0.000347693
-9.05035e-07
0.00034779
-4.92776e-07
0.000347804
-8.17932e-08
0.000347736
3.27574e-07
0.000347587
7.34993e-07
0.000347356
1.14014e-06
0.000347044
1.54269e-06
0.000346651
1.94233e-06
0.000346179
2.33876e-06
0.000345629
2.73169e-06
0.000345
3.12083e-06
0.000344293
3.50591e-06
0.00034351
3.88666e-06
0.000342652
4.26284e-06
0.000341719
4.6342e-06
0.000340713
5.00051e-06
0.000339634
5.36156e-06
0.000338484
5.71713e-06
0.000337263
6.06705e-06
0.000335974
6.41113e-06
0.000334617
6.7492e-06
0.000333193
7.08111e-06
0.000331704
7.40672e-06
0.000330151
7.7259e-06
0.000328535
8.03854e-06
0.000326858
8.34453e-06
0.000325122
8.64378e-06
0.000323326
8.93622e-06
0.000321473
9.22177e-06
0.000319565
9.50039e-06
0.000317602
9.77204e-06
0.000315586
1.00367e-05
0.000313519
1.02943e-05
0.000311402
1.05448e-05
0.000309236
1.07884e-05
0.000307022
1.10249e-05
0.000304763
1.12544e-05
0.000302459
1.14769e-05
0.000300113
1.16924e-05
0.000297724
1.19011e-05
0.000295296
1.21029e-05
0.000292828
1.2298e-05
0.000290323
1.24863e-05
0.000287781
1.2668e-05
0.000285205
1.28431e-05
0.000282595
1.30118e-05
0.000279953
1.31741e-05
0.000277279
1.33301e-05
0.000274576
1.34799e-05
0.000271844
1.36237e-05
0.000269085
1.37615e-05
0.000266299
1.38934e-05
0.000263489
1.40197e-05
0.000260654
1.41403e-05
0.000257796
1.42554e-05
0.000254917
1.43651e-05
0.000252017
1.44697e-05
0.000249097
1.45691e-05
0.000246159