/*--------------------------------*- C++ -*----------------------------------*\
| =========                 |                                                 |
| \\      /  F ield         | OpenFOAM: The Open Source CFD Toolbox           |
|  \\    /   O peration     | Version:  v2012                                 |
|   \\  /    A nd           | Website:  www.openfoam.com                      |
|    \\/     M anipulation  |                                                 |
\*---------------------------------------------------------------------------*/
FoamFile
{
    version     2.0;
    format      ascii;
    class       volVectorField;
    location    "11.5";
    object      U;
}
// * * * * * * * * * * * * * * * * * * * * * * * * * * * * * * * * * * * * * //

dimensions      [0 1 -1 0 0 0 0];


internalField   nonuniform List<vector> 
65536
(
(0.000738792 -0.000738807 0)
(0.00221641 -0.00073884 0)
(0.00369412 -0.000738903 0)
(0.00517199 -0.000738999 0)
(0.00665008 -0.000739125 0)
(0.00812846 -0.000739281 0)
(0.00960718 -0.000739468 0)
(0.0110863 -0.000739683 0)
(0.0125659 -0.000739926 0)
(0.014046 -0.000740195 0)
(0.0155266 -0.00074049 0)
(0.0170079 -0.000740808 0)
(0.0184899 -0.000741149 0)
(0.0199725 -0.00074151 0)
(0.0214559 -0.000741889 0)
(0.02294 -0.000742284 0)
(0.024425 -0.000742694 0)
(0.0259108 -0.000743114 0)
(0.0273975 -0.000743544 0)
(0.028885 -0.00074398 0)
(0.0303734 -0.000744419 0)
(0.0318627 -0.000744858 0)
(0.0333528 -0.000745294 0)
(0.0348438 -0.000745724 0)
(0.0363357 -0.000746143 0)
(0.0378284 -0.000746549 0)
(0.0393219 -0.000746937 0)
(0.0408162 -0.000747303 0)
(0.0423112 -0.000747643 0)
(0.0438068 -0.000747953 0)
(0.045303 -0.000748227 0)
(0.0467997 -0.000748462 0)
(0.0482969 -0.000748652 0)
(0.0497944 -0.000748792 0)
(0.0512921 -0.000748878 0)
(0.05279 -0.000748903 0)
(0.0542878 -0.000748862 0)
(0.0557855 -0.000748749 0)
(0.0572829 -0.000748559 0)
(0.0587798 -0.000748285 0)
(0.0602761 -0.000747921 0)
(0.0617716 -0.000747462 0)
(0.0632661 -0.0007469 0)
(0.0647593 -0.000746229 0)
(0.0662511 -0.000745443 0)
(0.0677412 -0.000744534 0)
(0.0692294 -0.000743496 0)
(0.0707153 -0.000742322 0)
(0.0721988 -0.000741004 0)
(0.0736795 -0.000739536 0)
(0.0751571 -0.000737911 0)
(0.0766313 -0.00073612 0)
(0.0781018 -0.000734157 0)
(0.0795681 -0.000732015 0)
(0.08103 -0.000729686 0)
(0.082487 -0.000727162 0)
(0.0839388 -0.000724438 0)
(0.085385 -0.000721504 0)
(0.0868251 -0.000718354 0)
(0.0882586 -0.000714982 0)
(0.0896852 -0.000711379 0)
(0.0911044 -0.000707539 0)
(0.0925156 -0.000703455 0)
(0.0939185 -0.00069912 0)
(0.0953124 -0.000694528 0)
(0.0966968 -0.000689673 0)
(0.0980713 -0.000684548 0)
(0.0994353 -0.000679148 0)
(0.100788 -0.000673467 0)
(0.102129 -0.0006675 0)
(0.103458 -0.000661241 0)
(0.104775 -0.000654687 0)
(0.106078 -0.000647832 0)
(0.107366 -0.000640672 0)
(0.108641 -0.000633205 0)
(0.109899 -0.000625427 0)
(0.111143 -0.000617335 0)
(0.112369 -0.000608927 0)
(0.113579 -0.000600201 0)
(0.11477 -0.000591156 0)
(0.115944 -0.000581791 0)
(0.117098 -0.000572106 0)
(0.118232 -0.0005621 0)
(0.119346 -0.000551776 0)
(0.12044 -0.000541133 0)
(0.121511 -0.000530175 0)
(0.122561 -0.000518903 0)
(0.123587 -0.000507321 0)
(0.12459 -0.000495433 0)
(0.125569 -0.000483242 0)
(0.126524 -0.000470754 0)
(0.127453 -0.000457975 0)
(0.128356 -0.000444909 0)
(0.129232 -0.000431565 0)
(0.130082 -0.000417949 0)
(0.130905 -0.000404069 0)
(0.131699 -0.000389933 0)
(0.132465 -0.000375551 0)
(0.133201 -0.000360932 0)
(0.133908 -0.000346086 0)
(0.134586 -0.000331023 0)
(0.135233 -0.000315755 0)
(0.135849 -0.000300292 0)
(0.136434 -0.000284647 0)
(0.136988 -0.000268832 0)
(0.13751 -0.000252859 0)
(0.137999 -0.000236741 0)
(0.138457 -0.000220492 0)
(0.138881 -0.000204125 0)
(0.139273 -0.000187653 0)
(0.139632 -0.000171091 0)
(0.139958 -0.000154452 0)
(0.14025 -0.000137751 0)
(0.140509 -0.000121001 0)
(0.140734 -0.000104218 0)
(0.140926 -8.74159e-05 0)
(0.141084 -7.06083e-05 0)
(0.141208 -5.38099e-05 0)
(0.141299 -3.70347e-05 0)
(0.141356 -2.02968e-05 0)
(0.14138 -3.61015e-06 0)
(0.141371 1.30117e-05 0)
(0.141328 2.95553e-05 0)
(0.141252 4.60074e-05 0)
(0.141144 6.23551e-05 0)
(0.141003 7.85858e-05 0)
(0.140829 9.46873e-05 0)
(0.140624 0.000110648 0)
(0.140387 0.000126456 0)
(0.140118 0.0001421 0)
(0.139818 0.00015757 0)
(0.139487 0.000172855 0)
(0.139126 0.000187946 0)
(0.138735 0.000202833 0)
(0.138315 0.000217509 0)
(0.137865 0.000231963 0)
(0.137387 0.000246189 0)
(0.13688 0.000260179 0)
(0.136346 0.000273927 0)
(0.135784 0.000287426 0)
(0.135196 0.00030067 0)
(0.134581 0.000313655 0)
(0.133941 0.000326375 0)
(0.133275 0.000338826 0)
(0.132585 0.000351005 0)
(0.131871 0.000362909 0)
(0.131133 0.000374534 0)
(0.130373 0.000385878 0)
(0.12959 0.000396941 0)
(0.128785 0.000407719 0)
(0.127958 0.000418213 0)
(0.127112 0.000428422 0)
(0.126244 0.000438345 0)
(0.125358 0.000447985 0)
(0.124452 0.00045734 0)
(0.123528 0.000466412 0)
(0.122586 0.000475202 0)
(0.121627 0.000483713 0)
(0.120651 0.000491947 0)
(0.119659 0.000499905 0)
(0.118651 0.000507592 0)
(0.117628 0.000515008 0)
(0.116591 0.000522159 0)
(0.11554 0.000529047 0)
(0.114475 0.000535676 0)
(0.113397 0.00054205 0)
(0.112306 0.000548173 0)
(0.111204 0.000554049 0)
(0.11009 0.000559683 0)
(0.108965 0.000565079 0)
(0.107829 0.000570242 0)
(0.106683 0.000575178 0)
(0.105528 0.000579889 0)
(0.104364 0.000584383 0)
(0.10319 0.000588663 0)
(0.102009 0.000592735 0)
(0.100819 0.000596605 0)
(0.0996223 0.000600276 0)
(0.098418 0.000603756 0)
(0.097207 0.000607048 0)
(0.0959897 0.000610159 0)
(0.0947662 0.000613093 0)
(0.0935371 0.000615856 0)
(0.0923026 0.000618453 0)
(0.0910631 0.00062089 0)
(0.0898189 0.000623171 0)
(0.0885703 0.000625302 0)
(0.0873176 0.000627288 0)
(0.086061 0.000629134 0)
(0.0848009 0.000630846 0)
(0.0835375 0.000632427 0)
(0.0822711 0.000633884 0)
(0.0810019 0.000635221 0)
(0.0797301 0.000636443 0)
(0.078456 0.000637554 0)
(0.0771798 0.000638559 0)
(0.0759016 0.000639463 0)
(0.0746218 0.000640271 0)
(0.0733405 0.000640986 0)
(0.0720578 0.000641613 0)
(0.0707739 0.000642157 0)
(0.0694891 0.000642621 0)
(0.0682034 0.00064301 0)
(0.066917 0.000643327 0)
(0.06563 0.000643576 0)
(0.0643426 0.000643762 0)
(0.0630549 0.000643887 0)
(0.061767 0.000643956 0)
(0.060479 0.000643972 0)
(0.0591911 0.000643939 0)
(0.0579032 0.000643859 0)
(0.0566156 0.000643736 0)
(0.0553282 0.000643574 0)
(0.0540413 0.000643374 0)
(0.0527547 0.000643142 0)
(0.0514687 0.000642878 0)
(0.0501832 0.000642586 0)
(0.0488983 0.000642269 0)
(0.0476141 0.000641929 0)
(0.0463306 0.000641569 0)
(0.0450478 0.000641191 0)
(0.0437658 0.000640798 0)
(0.0424846 0.000640392 0)
(0.0412042 0.000639975 0)
(0.0399247 0.000639549 0)
(0.038646 0.000639117 0)
(0.0373682 0.00063868 0)
(0.0360913 0.00063824 0)
(0.0348152 0.0006378 0)
(0.0335401 0.00063736 0)
(0.0322658 0.000636923 0)
(0.0309924 0.00063649 0)
(0.0297199 0.000636063 0)
(0.0284482 0.000635643 0)
(0.0271773 0.000635231 0)
(0.0259072 0.000634829 0)
(0.024638 0.000634438 0)
(0.0233695 0.00063406 0)
(0.0221018 0.000633695 0)
(0.0208347 0.000633345 0)
(0.0195684 0.00063301 0)
(0.0183027 0.000632691 0)
(0.0170377 0.00063239 0)
(0.0157732 0.000632107 0)
(0.0145092 0.000631843 0)
(0.0132458 0.000631599 0)
(0.0119829 0.000631375 0)
(0.0107203 0.000631171 0)
(0.00945821 0.000630989 0)
(0.00819641 0.000630829 0)
(0.00693492 0.000630691 0)
(0.00567367 0.000630575 0)
(0.00441264 0.000630482 0)
(0.00315177 0.000630412 0)
(0.00189102 0.000630366 0)
(0.000630331 0.000630342 0)
(0.00073876 -0.00221639 0)
(0.00221631 -0.00221649 0)
(0.00369396 -0.00221668 0)
(0.00517177 -0.00221697 0)
(0.0066498 -0.00221735 0)
(0.00812812 -0.00221782 0)
(0.00960678 -0.00221838 0)
(0.0110859 -0.00221902 0)
(0.0125654 -0.00221975 0)
(0.0140454 -0.00222056 0)
(0.015526 -0.00222145 0)
(0.0170073 -0.0022224 0)
(0.0184892 -0.00222343 0)
(0.0199718 -0.00222451 0)
(0.0214551 -0.00222565 0)
(0.0229392 -0.00222684 0)
(0.0244242 -0.00222807 0)
(0.02591 -0.00222934 0)
(0.0273966 -0.00223063 0)
(0.0288841 -0.00223194 0)
(0.0303725 -0.00223326 0)
(0.0318618 -0.00223458 0)
(0.033352 -0.00223589 0)
(0.034843 -0.00223718 0)
(0.0363349 -0.00223844 0)
(0.0378276 -0.00223967 0)
(0.0393212 -0.00224083 0)
(0.0408155 -0.00224194 0)
(0.0423105 -0.00224296 0)
(0.0438062 -0.00224389 0)
(0.0453025 -0.00224472 0)
(0.0467993 -0.00224543 0)
(0.0482966 -0.00224601 0)
(0.0497942 -0.00224643 0)
(0.051292 -0.00224669 0)
(0.05279 -0.00224677 0)
(0.054288 -0.00224666 0)
(0.0557858 -0.00224632 0)
(0.0572834 -0.00224576 0)
(0.0587805 -0.00224494 0)
(0.060277 -0.00224386 0)
(0.0617726 -0.00224249 0)
(0.0632673 -0.00224081 0)
(0.0647608 -0.0022388 0)
(0.0662528 -0.00223645 0)
(0.0677432 -0.00223373 0)
(0.0692316 -0.00223063 0)
(0.0707178 -0.00222711 0)
(0.0722016 -0.00222316 0)
(0.0736826 -0.00221877 0)
(0.0751605 -0.0022139 0)
(0.0766351 -0.00220853 0)
(0.0781059 -0.00220265 0)
(0.0795726 -0.00219623 0)
(0.0810349 -0.00218925 0)
(0.0824923 -0.00218169 0)
(0.0839445 -0.00217352 0)
(0.0853911 -0.00216473 0)
(0.0868316 -0.00215529 0)
(0.0882656 -0.00214517 0)
(0.0896927 -0.00213437 0)
(0.0911123 -0.00212286 0)
(0.0925241 -0.00211061 0)
(0.0939274 -0.00209762 0)
(0.0953218 -0.00208385 0)
(0.0967068 -0.00206929 0)
(0.0980819 -0.00205392 0)
(0.0994464 -0.00203772 0)
(0.1008 -0.00202069 0)
(0.102142 -0.00200279 0)
(0.103471 -0.00198402 0)
(0.104788 -0.00196436 0)
(0.106092 -0.0019438 0)
(0.107381 -0.00192232 0)
(0.108656 -0.00189992 0)
(0.109915 -0.00187659 0)
(0.111159 -0.00185232 0)
(0.112386 -0.0018271 0)
(0.113596 -0.00180092 0)
(0.114789 -0.00177379 0)
(0.115963 -0.00174569 0)
(0.117117 -0.00171663 0)
(0.118253 -0.00168662 0)
(0.119367 -0.00165564 0)
(0.120461 -0.00162371 0)
(0.121534 -0.00159084 0)
(0.122584 -0.00155702 0)
(0.123611 -0.00152227 0)
(0.124614 -0.0014866 0)
(0.125594 -0.00145002 0)
(0.126549 -0.00141255 0)
(0.127478 -0.00137421 0)
(0.128382 -0.001335 0)
(0.129259 -0.00129496 0)
(0.13011 -0.00125411 0)
(0.130933 -0.00121246 0)
(0.131727 -0.00117004 0)
(0.132493 -0.00112689 0)
(0.133231 -0.00108302 0)
(0.133938 -0.00103847 0)
(0.134616 -0.000993272 0)
(0.135263 -0.000947456 0)
(0.13588 -0.000901056 0)
(0.136466 -0.000854109 0)
(0.13702 -0.000806651 0)
(0.137542 -0.000758719 0)
(0.138032 -0.000710353 0)
(0.138489 -0.000661592 0)
(0.138914 -0.000612476 0)
(0.139306 -0.000563047 0)
(0.139665 -0.000513346 0)
(0.139991 -0.000463415 0)
(0.140283 -0.000413297 0)
(0.140542 -0.000363035 0)
(0.140768 -0.000312672 0)
(0.140959 -0.00026225 0)
(0.141117 -0.000211813 0)
(0.141242 -0.000161404 0)
(0.141332 -0.000111065 0)
(0.14139 -6.08372e-05 0)
(0.141413 -1.07635e-05 0)
(0.141404 3.91154e-05 0)
(0.141361 8.87592e-05 0)
(0.141285 0.000138128 0)
(0.141176 0.000187184 0)
(0.141035 0.000235888 0)
(0.140861 0.000284205 0)
(0.140656 0.000332098 0)
(0.140418 0.000379532 0)
(0.140149 0.000426475 0)
(0.139849 0.000472895 0)
(0.139518 0.000518761 0)
(0.139156 0.000564043 0)
(0.138765 0.000608714 0)
(0.138344 0.000652747 0)
(0.137894 0.000696118 0)
(0.137415 0.000738803 0)
(0.136908 0.00078078 0)
(0.136373 0.00082203 0)
(0.135811 0.000862532 0)
(0.135222 0.00090227 0)
(0.134607 0.000941229 0)
(0.133966 0.000979393 0)
(0.1333 0.00101675 0)
(0.132609 0.00105329 0)
(0.131895 0.001089 0)
(0.131156 0.00112388 0)
(0.130395 0.00115792 0)
(0.129611 0.00119111 0)
(0.128806 0.00122344 0)
(0.127979 0.00125492 0)
(0.127132 0.00128555 0)
(0.126264 0.00131532 0)
(0.125377 0.00134424 0)
(0.124471 0.0013723 0)
(0.123546 0.00139952 0)
(0.122604 0.00142589 0)
(0.121644 0.00145142 0)
(0.120667 0.00147612 0)
(0.119675 0.00149999 0)
(0.118666 0.00152304 0)
(0.117643 0.00154529 0)
(0.116605 0.00156674 0)
(0.115553 0.0015874 0)
(0.114488 0.00160728 0)
(0.113409 0.0016264 0)
(0.112318 0.00164476 0)
(0.111215 0.00166239 0)
(0.110101 0.00167929 0)
(0.108975 0.00169547 0)
(0.107839 0.00171095 0)
(0.106693 0.00172575 0)
(0.105537 0.00173988 0)
(0.104372 0.00175336 0)
(0.103199 0.0017662 0)
(0.102017 0.00177841 0)
(0.100827 0.00179001 0)
(0.0996293 0.00180102 0)
(0.0984247 0.00181145 0)
(0.0972134 0.00182132 0)
(0.0959956 0.00183065 0)
(0.0947719 0.00183945 0)
(0.0935424 0.00184773 0)
(0.0923076 0.00185552 0)
(0.0910678 0.00186282 0)
(0.0898233 0.00186966 0)
(0.0885744 0.00187605 0)
(0.0873214 0.001882 0)
(0.0860645 0.00188754 0)
(0.0848042 0.00189267 0)
(0.0835405 0.00189741 0)
(0.0822738 0.00190177 0)
(0.0810044 0.00190578 0)
(0.0797324 0.00190944 0)
(0.078458 0.00191277 0)
(0.0771816 0.00191578 0)
(0.0759033 0.00191849 0)
(0.0746233 0.0019209 0)
(0.0733418 0.00192304 0)
(0.0720589 0.00192492 0)
(0.0707749 0.00192655 0)
(0.0694899 0.00192794 0)
(0.068204 0.0019291 0)
(0.0669175 0.00193005 0)
(0.0656304 0.00193079 0)
(0.0643429 0.00193134 0)
(0.0630551 0.00193172 0)
(0.0617671 0.00193192 0)
(0.060479 0.00193196 0)
(0.0591909 0.00193186 0)
(0.057903 0.00193162 0)
(0.0566153 0.00193125 0)
(0.0553278 0.00193076 0)
(0.0540408 0.00193016 0)
(0.0527542 0.00192945 0)
(0.0514681 0.00192866 0)
(0.0501825 0.00192778 0)
(0.0488976 0.00192683 0)
(0.0476134 0.0019258 0)
(0.0463298 0.00192472 0)
(0.045047 0.00192359 0)
(0.043765 0.0019224 0)
(0.0424837 0.00192118 0)
(0.0412033 0.00191993 0)
(0.0399238 0.00191865 0)
(0.0386451 0.00191735 0)
(0.0373673 0.00191604 0)
(0.0360904 0.00191472 0)
(0.0348143 0.0019134 0)
(0.0335392 0.00191208 0)
(0.0322649 0.00191076 0)
(0.0309915 0.00190946 0)
(0.029719 0.00190818 0)
(0.0284473 0.00190692 0)
(0.0271765 0.00190568 0)
(0.0259064 0.00190447 0)
(0.0246372 0.0019033 0)
(0.0233687 0.00190217 0)
(0.022101 0.00190107 0)
(0.020834 0.00190002 0)
(0.0195677 0.00189901 0)
(0.0183021 0.00189806 0)
(0.0170371 0.00189715 0)
(0.0157726 0.0018963 0)
(0.0145087 0.00189551 0)
(0.0132453 0.00189478 0)
(0.0119824 0.0018941 0)
(0.01072 0.00189349 0)
(0.00945786 0.00189294 0)
(0.00819611 0.00189246 0)
(0.00693466 0.00189205 0)
(0.00567346 0.0018917 0)
(0.00441248 0.00189142 0)
(0.00315165 0.00189121 0)
(0.00189094 0.00189107 0)
(0.000630307 0.001891 0)
(0.000738696 -0.00369388 0)
(0.00221612 -0.00369404 0)
(0.00369364 -0.00369436 0)
(0.00517133 -0.00369484 0)
(0.00664924 -0.00369547 0)
(0.00812743 -0.00369626 0)
(0.00960598 -0.0036972 0)
(0.0110849 -0.00369828 0)
(0.0125643 -0.0036995 0)
(0.0140443 -0.00370085 0)
(0.0155248 -0.00370233 0)
(0.0170059 -0.00370393 0)
(0.0184878 -0.00370565 0)
(0.0199703 -0.00370746 0)
(0.0214536 -0.00370937 0)
(0.0229376 -0.00371135 0)
(0.0244225 -0.00371341 0)
(0.0259082 -0.00371553 0)
(0.0273949 -0.00371769 0)
(0.0288823 -0.00371989 0)
(0.0303707 -0.0037221 0)
(0.03186 -0.00372431 0)
(0.0333502 -0.00372651 0)
(0.0348413 -0.00372867 0)
(0.0363332 -0.00373079 0)
(0.037826 -0.00373284 0)
(0.0393197 -0.0037348 0)
(0.0408141 -0.00373665 0)
(0.0423092 -0.00373837 0)
(0.043805 -0.00373994 0)
(0.0453015 -0.00374134 0)
(0.0467985 -0.00374254 0)
(0.0482959 -0.00374351 0)
(0.0497937 -0.00374424 0)
(0.0512918 -0.00374469 0)
(0.05279 -0.00374484 0)
(0.0542883 -0.00374467 0)
(0.0557864 -0.00374413 0)
(0.0572843 -0.00374321 0)
(0.0587817 -0.00374187 0)
(0.0602786 -0.00374009 0)
(0.0617747 -0.00373782 0)
(0.0632698 -0.00373505 0)
(0.0647637 -0.00373173 0)
(0.0662562 -0.00372783 0)
(0.067747 -0.00372332 0)
(0.069236 -0.00371816 0)
(0.0707228 -0.00371233 0)
(0.0722071 -0.00370577 0)
(0.0736888 -0.00369847 0)
(0.0751673 -0.00369038 0)
(0.0766425 -0.00368146 0)
(0.0781141 -0.00367168 0)
(0.0795815 -0.00366101 0)
(0.0810445 -0.0036494 0)
(0.0825028 -0.00363682 0)
(0.0839558 -0.00362323 0)
(0.0854032 -0.0036086 0)
(0.0868446 -0.00359289 0)
(0.0882796 -0.00357606 0)
(0.0897076 -0.00355808 0)
(0.0911282 -0.00353891 0)
(0.0925409 -0.00351852 0)
(0.0939452 -0.00349688 0)
(0.0953407 -0.00347396 0)
(0.0967268 -0.00344971 0)
(0.0981029 -0.00342412 0)
(0.0994685 -0.00339714 0)
(0.100823 -0.00336877 0)
(0.102166 -0.00333895 0)
(0.103497 -0.00330768 0)
(0.104815 -0.00327493 0)
(0.10612 -0.00324068 0)
(0.10741 -0.0032049 0)
(0.108686 -0.00316758 0)
(0.109947 -0.0031287 0)
(0.111192 -0.00308825 0)
(0.112421 -0.00304622 0)
(0.113632 -0.0030026 0)
(0.114825 -0.00295738 0)
(0.116001 -0.00291055 0)
(0.117157 -0.00286212 0)
(0.118293 -0.00281209 0)
(0.119409 -0.00276046 0)
(0.120505 -0.00270724 0)
(0.121578 -0.00265244 0)
(0.122629 -0.00259606 0)
(0.123658 -0.00253813 0)
(0.124663 -0.00247867 0)
(0.125643 -0.00241769 0)
(0.126599 -0.00235523 0)
(0.12753 -0.0022913 0)
(0.128435 -0.00222594 0)
(0.129313 -0.00215918 0)
(0.130165 -0.00209106 0)
(0.130989 -0.00202162 0)
(0.131784 -0.00195089 0)
(0.132552 -0.00187894 0)
(0.13329 -0.00180579 0)
(0.133998 -0.00173151 0)
(0.134677 -0.00165614 0)
(0.135325 -0.00157974 0)
(0.135942 -0.00150237 0)
(0.136529 -0.00142408 0)
(0.137083 -0.00134494 0)
(0.137606 -0.00126501 0)
(0.138096 -0.00118436 0)
(0.138555 -0.00110305 0)
(0.13898 -0.00102114 0)
(0.139372 -0.000938712 0)
(0.139732 -0.00085583 0)
(0.140058 -0.000772565 0)
(0.14035 -0.000688988 0)
(0.140609 -0.00060517 0)
(0.140835 -0.000521184 0)
(0.141027 -0.0004371 0)
(0.141185 -0.000352991 0)
(0.141309 -0.000268928 0)
(0.141399 -0.000184982 0)
(0.141456 -0.000101224 0)
(0.14148 -1.77221e-05 0)
(0.14147 6.54542e-05 0)
(0.141427 0.000148238 0)
(0.141351 0.000230563 0)
(0.141242 0.000312364 0)
(0.1411 0.000393579 0)
(0.140925 0.000474146 0)
(0.140719 0.000554006 0)
(0.140481 0.0006331 0)
(0.140211 0.000711374 0)
(0.13991 0.000788774 0)
(0.139578 0.00086525 0)
(0.139216 0.000940751 0)
(0.138824 0.00101523 0)
(0.138402 0.00108865 0)
(0.137951 0.00116096 0)
(0.137471 0.00123213 0)
(0.136963 0.00130211 0)
(0.136427 0.00137088 0)
(0.135864 0.0014384 0)
(0.135274 0.00150465 0)
(0.134658 0.0015696 0)
(0.134016 0.00163322 0)
(0.133349 0.00169549 0)
(0.132658 0.00175641 0)
(0.131942 0.00181594 0)
(0.131202 0.00187407 0)
(0.13044 0.0019308 0)
(0.129655 0.00198612 0)
(0.128848 0.00204002 0)
(0.128021 0.00209249 0)
(0.127172 0.00214353 0)
(0.126303 0.00219315 0)
(0.125415 0.00224134 0)
(0.124508 0.00228811 0)
(0.123582 0.00233346 0)
(0.122638 0.00237741 0)
(0.121677 0.00241995 0)
(0.1207 0.00246111 0)
(0.119706 0.00250089 0)
(0.118697 0.0025393 0)
(0.117672 0.00257637 0)
(0.116633 0.00261211 0)
(0.11558 0.00264653 0)
(0.114514 0.00267965 0)
(0.113434 0.0027115 0)
(0.112342 0.0027421 0)
(0.111238 0.00277145 0)
(0.110123 0.0027996 0)
(0.108996 0.00282656 0)
(0.107859 0.00285235 0)
(0.106712 0.002877 0)
(0.105556 0.00290054 0)
(0.10439 0.00292298 0)
(0.103215 0.00294435 0)
(0.102033 0.00296469 0)
(0.100842 0.00298401 0)
(0.0996436 0.00300234 0)
(0.0984383 0.00301971 0)
(0.0972262 0.00303615 0)
(0.0960077 0.00305167 0)
(0.0947833 0.00306632 0)
(0.0935531 0.00308011 0)
(0.0923177 0.00309306 0)
(0.0910772 0.00310522 0)
(0.0898321 0.0031166 0)
(0.0885826 0.00312723 0)
(0.087329 0.00313714 0)
(0.0860716 0.00314634 0)
(0.0848107 0.00315487 0)
(0.0835466 0.00316276 0)
(0.0822794 0.00317002 0)
(0.0810095 0.00317668 0)
(0.079737 0.00318276 0)
(0.0784623 0.00318829 0)
(0.0771854 0.0031933 0)
(0.0759067 0.0031978 0)
(0.0746263 0.00320181 0)
(0.0733444 0.00320537 0)
(0.0720612 0.00320848 0)
(0.0707769 0.00321118 0)
(0.0694916 0.00321348 0)
(0.0682054 0.0032154 0)
(0.0669186 0.00321697 0)
(0.0656313 0.0032182 0)
(0.0643435 0.00321911 0)
(0.0630554 0.00321971 0)
(0.0617672 0.00322004 0)
(0.0604789 0.0032201 0)
(0.0591907 0.00321992 0)
(0.0579026 0.00321951 0)
(0.0566147 0.00321888 0)
(0.0553271 0.00321805 0)
(0.0540399 0.00321704 0)
(0.0527532 0.00321586 0)
(0.051467 0.00321453 0)
(0.0501813 0.00321305 0)
(0.0488963 0.00321145 0)
(0.0476119 0.00320974 0)
(0.0463283 0.00320793 0)
(0.0450454 0.00320603 0)
(0.0437634 0.00320405 0)
(0.0424821 0.00320201 0)
(0.0412017 0.00319991 0)
(0.0399221 0.00319778 0)
(0.0386434 0.0031956 0)
(0.0373656 0.00319341 0)
(0.0360886 0.0031912 0)
(0.0348126 0.00318899 0)
(0.0335374 0.00318679 0)
(0.0322632 0.00318459 0)
(0.0309898 0.00318242 0)
(0.0297173 0.00318028 0)
(0.0284456 0.00317817 0)
(0.0271748 0.0031761 0)
(0.0259049 0.00317409 0)
(0.0246357 0.00317213 0)
(0.0233673 0.00317023 0)
(0.0220996 0.0031684 0)
(0.0208327 0.00316664 0)
(0.0195664 0.00316496 0)
(0.0183008 0.00316337 0)
(0.0170359 0.00316186 0)
(0.0157715 0.00316044 0)
(0.0145077 0.00315912 0)
(0.0132444 0.00315789 0)
(0.0119816 0.00315677 0)
(0.0107192 0.00315575 0)
(0.00945718 0.00315483 0)
(0.00819551 0.00315403 0)
(0.00693415 0.00315334 0)
(0.00567305 0.00315276 0)
(0.00441215 0.00315229 0)
(0.00315142 0.00315194 0)
(0.0018908 0.00315171 0)
(0.00063026 0.00315159 0)
(0.000738599 -0.00517121 0)
(0.00221583 -0.00517144 0)
(0.00369316 -0.00517189 0)
(0.00517066 -0.00517256 0)
(0.00664838 -0.00517345 0)
(0.00812639 -0.00517456 0)
(0.00960476 -0.00517587 0)
(0.0110835 -0.00517739 0)
(0.0125628 -0.00517911 0)
(0.0140426 -0.00518102 0)
(0.0155229 -0.0051831 0)
(0.0170039 -0.00518535 0)
(0.0184856 -0.00518776 0)
(0.019968 -0.00519032 0)
(0.0214512 -0.005193 0)
(0.0229352 -0.0051958 0)
(0.02442 -0.0051987 0)
(0.0259057 -0.00520168 0)
(0.0273922 -0.00520473 0)
(0.0288797 -0.00520782 0)
(0.0303681 -0.00521093 0)
(0.0318574 -0.00521405 0)
(0.0333476 -0.00521715 0)
(0.0348387 -0.00522021 0)
(0.0363307 -0.0052232 0)
(0.0378236 -0.00522609 0)
(0.0393173 -0.00522887 0)
(0.0408119 -0.00523149 0)
(0.0423072 -0.00523393 0)
(0.0438032 -0.00523616 0)
(0.0452999 -0.00523815 0)
(0.0467971 -0.00523986 0)
(0.0482949 -0.00524126 0)
(0.049793 -0.00524232 0)
(0.0512914 -0.00524299 0)
(0.05279 -0.00524324 0)
(0.0542887 -0.00524304 0)
(0.0557872 -0.00524233 0)
(0.0572856 -0.00524108 0)
(0.0587836 -0.00523925 0)
(0.060281 -0.00523679 0)
(0.0617776 -0.00523367 0)
(0.0632734 -0.00522983 0)
(0.064768 -0.00522522 0)
(0.0662612 -0.00521981 0)
(0.0677528 -0.00521355 0)
(0.0692425 -0.00520638 0)
(0.0707302 -0.00519826 0)
(0.0722154 -0.00518914 0)
(0.073698 -0.00517896 0)
(0.0751775 -0.00516768 0)
(0.0766537 -0.00515525 0)
(0.0781263 -0.00514161 0)
(0.0795948 -0.00512672 0)
(0.081059 -0.00511052 0)
(0.0825184 -0.00509296 0)
(0.0839727 -0.00507398 0)
(0.0854214 -0.00505355 0)
(0.0868641 -0.0050316 0)
(0.0883004 -0.00500809 0)
(0.0897298 -0.00498297 0)
(0.0911519 -0.00495618 0)
(0.0925661 -0.00492769 0)
(0.0939719 -0.00489744 0)
(0.095369 -0.00486538 0)
(0.0967566 -0.00483148 0)
(0.0981344 -0.00479569 0)
(0.0995017 -0.00475797 0)
(0.100858 -0.00471828 0)
(0.102203 -0.00467658 0)
(0.103535 -0.00463283 0)
(0.104855 -0.00458701 0)
(0.106162 -0.00453908 0)
(0.107454 -0.00448902 0)
(0.108732 -0.00443679 0)
(0.109995 -0.00438238 0)
(0.111242 -0.00432577 0)
(0.112472 -0.00426694 0)
(0.113685 -0.00420587 0)
(0.114881 -0.00414257 0)
(0.116058 -0.00407702 0)
(0.117216 -0.00400922 0)
(0.118354 -0.00393917 0)
(0.119472 -0.00386688 0)
(0.120569 -0.00379235 0)
(0.121645 -0.00371561 0)
(0.122698 -0.00363666 0)
(0.123728 -0.00355554 0)
(0.124735 -0.00347226 0)
(0.125717 -0.00338685 0)
(0.126675 -0.00329936 0)
(0.127608 -0.00320982 0)
(0.128514 -0.00311827 0)
(0.129394 -0.00302475 0)
(0.130247 -0.00292933 0)
(0.131073 -0.00283205 0)
(0.13187 -0.00273298 0)
(0.132639 -0.00263217 0)
(0.133378 -0.0025297 0)
(0.134088 -0.00242563 0)
(0.134768 -0.00232004 0)
(0.135417 -0.002213 0)
(0.136036 -0.00210459 0)
(0.136623 -0.00199491 0)
(0.137179 -0.00188402 0)
(0.137702 -0.00177203 0)
(0.138194 -0.00165903 0)
(0.138653 -0.00154509 0)
(0.139079 -0.00143033 0)
(0.139472 -0.00131483 0)
(0.139832 -0.0011987 0)
(0.140158 -0.00108203 0)
(0.140451 -0.00096492 0)
(0.14071 -0.000847475 0)
(0.140936 -0.000729793 0)
(0.141128 -0.000611976 0)
(0.141286 -0.000494123 0)
(0.14141 -0.000376336 0)
(0.1415 -0.000258713 0)
(0.141557 -0.000141354 0)
(0.14158 -2.43557e-05 0)
(0.14157 9.21855e-05 0)
(0.141526 0.000208175 0)
(0.141449 0.00032352 0)
(0.141339 0.000438131 0)
(0.141197 0.000551917 0)
(0.141022 0.000664794 0)
(0.140815 0.000776678 0)
(0.140575 0.000887488 0)
(0.140305 0.000997147 0)
(0.140003 0.00110558 0)
(0.13967 0.00121271 0)
(0.139306 0.00131848 0)
(0.138913 0.00142281 0)
(0.13849 0.00152566 0)
(0.138037 0.00162695 0)
(0.137556 0.00172663 0)
(0.137047 0.00182465 0)
(0.136509 0.00192098 0)
(0.135945 0.00201555 0)
(0.135353 0.00210833 0)
(0.134736 0.00219929 0)
(0.134092 0.00228839 0)
(0.133423 0.0023756 0)
(0.13273 0.0024609 0)
(0.132012 0.00254426 0)
(0.131271 0.00262567 0)
(0.130507 0.00270511 0)
(0.129721 0.00278256 0)
(0.128912 0.00285802 0)
(0.128083 0.00293148 0)
(0.127232 0.00300295 0)
(0.126362 0.00307241 0)
(0.125472 0.00313987 0)
(0.124563 0.00320534 0)
(0.123635 0.00326882 0)
(0.12269 0.00333033 0)
(0.121728 0.00338988 0)
(0.120748 0.00344748 0)
(0.119753 0.00350315 0)
(0.118742 0.00355691 0)
(0.117716 0.00360878 0)
(0.116675 0.00365879 0)
(0.115621 0.00370695 0)
(0.114553 0.0037533 0)
(0.113472 0.00379786 0)
(0.112378 0.00384066 0)
(0.111273 0.00388173 0)
(0.110156 0.00392111 0)
(0.109028 0.00395881 0)
(0.10789 0.00399489 0)
(0.106741 0.00402937 0)
(0.105583 0.00406228 0)
(0.104416 0.00409366 0)
(0.10324 0.00412355 0)
(0.102056 0.00415198 0)
(0.100864 0.00417899 0)
(0.0996651 0.00420462 0)
(0.0984586 0.0042289 0)
(0.0972454 0.00425188 0)
(0.0960258 0.00427358 0)
(0.0948003 0.00429404 0)
(0.0935692 0.00431331 0)
(0.0923328 0.00433141 0)
(0.0910914 0.0043484 0)
(0.0898453 0.00436429 0)
(0.0885949 0.00437914 0)
(0.0873405 0.00439297 0)
(0.0860823 0.00440582 0)
(0.0848206 0.00441773 0)
(0.0835557 0.00442874 0)
(0.0822878 0.00443886 0)
(0.0810171 0.00444815 0)
(0.079744 0.00445664 0)
(0.0784686 0.00446435 0)
(0.0771911 0.00447133 0)
(0.0759118 0.00447759 0)
(0.0746309 0.00448318 0)
(0.0733484 0.00448813 0)
(0.0720647 0.00449246 0)
(0.0707799 0.00449621 0)
(0.0694941 0.0044994 0)
(0.0682075 0.00450206 0)
(0.0669203 0.00450423 0)
(0.0656325 0.00450592 0)
(0.0643444 0.00450717 0)
(0.063056 0.004508 0)
(0.0617675 0.00450843 0)
(0.0604789 0.00450849 0)
(0.0591903 0.00450821 0)
(0.057902 0.00450761 0)
(0.0566138 0.00450671 0)
(0.055326 0.00450553 0)
(0.0540386 0.00450409 0)
(0.0527517 0.00450242 0)
(0.0514653 0.00450053 0)
(0.0501795 0.00449845 0)
(0.0488943 0.00449619 0)
(0.0476098 0.00449378 0)
(0.0463261 0.00449122 0)
(0.0450431 0.00448855 0)
(0.0437609 0.00448576 0)
(0.0424796 0.00448289 0)
(0.0411991 0.00447994 0)
(0.0399195 0.00447693 0)
(0.0386408 0.00447388 0)
(0.0373629 0.00447079 0)
(0.036086 0.00446769 0)
(0.0348099 0.00446458 0)
(0.0335348 0.00446148 0)
(0.0322606 0.0044584 0)
(0.0309872 0.00445535 0)
(0.0297147 0.00445234 0)
(0.0284431 0.00444937 0)
(0.0271724 0.00444647 0)
(0.0259025 0.00444364 0)
(0.0246334 0.00444089 0)
(0.023365 0.00443823 0)
(0.0220975 0.00443566 0)
(0.0208306 0.00443319 0)
(0.0195645 0.00443084 0)
(0.018299 0.00442859 0)
(0.0170341 0.00442647 0)
(0.0157699 0.00442448 0)
(0.0145062 0.00442263 0)
(0.013243 0.00442091 0)
(0.0119803 0.00441933 0)
(0.010718 0.0044179 0)
(0.00945615 0.00441662 0)
(0.00819462 0.00441549 0)
(0.00693339 0.00441452 0)
(0.00567242 0.0044137 0)
(0.00441166 0.00441305 0)
(0.00315107 0.00441256 0)
(0.00189059 0.00441223 0)
(0.00063019 0.00441207 0)
(0.00073847 -0.00664831 0)
(0.00221544 -0.0066486 0)
(0.00369252 -0.00664919 0)
(0.00516976 -0.00665006 0)
(0.00664723 -0.00665121 0)
(0.008125 -0.00665264 0)
(0.00960313 -0.00665435 0)
(0.0110817 -0.00665631 0)
(0.0125607 -0.00665854 0)
(0.0140403 -0.006661 0)
(0.0155204 -0.0066637 0)
(0.0170013 -0.00666661 0)
(0.0184828 -0.00666973 0)
(0.019965 -0.00667304 0)
(0.021448 -0.00667652 0)
(0.0229319 -0.00668014 0)
(0.0244166 -0.0066839 0)
(0.0259022 -0.00668776 0)
(0.0273887 -0.00669171 0)
(0.0288761 -0.00669572 0)
(0.0303645 -0.00669977 0)
(0.0318538 -0.00670382 0)
(0.033344 -0.00670784 0)
(0.0348352 -0.00671182 0)
(0.0363273 -0.0067157 0)
(0.0378203 -0.00671947 0)
(0.0393142 -0.00672309 0)
(0.040809 -0.00672651 0)
(0.0423045 -0.0067297 0)
(0.0438008 -0.00673263 0)
(0.0452977 -0.00673524 0)
(0.0467953 -0.0067375 0)
(0.0482934 -0.00673936 0)
(0.0497919 -0.00674078 0)
(0.0512908 -0.00674171 0)
(0.0527899 -0.0067421 0)
(0.0542891 -0.0067419 0)
(0.0557883 -0.00674106 0)
(0.0572873 -0.00673953 0)
(0.058786 -0.00673725 0)
(0.0602841 -0.00673417 0)
(0.0617816 -0.00673023 0)
(0.0632781 -0.00672537 0)
(0.0647736 -0.00671953 0)
(0.0662678 -0.00671266 0)
(0.0677604 -0.00670469 0)
(0.0692512 -0.00669555 0)
(0.07074 -0.0066852 0)
(0.0722264 -0.00667355 0)
(0.0737102 -0.00666056 0)
(0.075191 -0.00664614 0)
(0.0766686 -0.00663025 0)
(0.0781425 -0.0066128 0)
(0.0796126 -0.00659374 0)
(0.0810783 -0.006573 0)
(0.0825393 -0.00655051 0)
(0.0839952 -0.0065262 0)
(0.0854456 -0.00650002 0)
(0.08689 -0.00647188 0)
(0.0883281 -0.00644174 0)
(0.0897594 -0.00640952 0)
(0.0911834 -0.00637517 0)
(0.0925996 -0.00633861 0)
(0.0940075 -0.0062998 0)
(0.0954066 -0.00625866 0)
(0.0967964 -0.00621515 0)
(0.0981764 -0.0061692 0)
(0.0995459 -0.00612077 0)
(0.100905 -0.0060698 0)
(0.102252 -0.00601624 0)
(0.103586 -0.00596006 0)
(0.104909 -0.0059012 0)
(0.106218 -0.00583962 0)
(0.107513 -0.00577529 0)
(0.108793 -0.00570818 0)
(0.110058 -0.00563826 0)
(0.111308 -0.0055655 0)
(0.11254 -0.00548989 0)
(0.113756 -0.00541139 0)
(0.114954 -0.00533001 0)
(0.116134 -0.00524573 0)
(0.117295 -0.00515856 0)
(0.118436 -0.00506849 0)
(0.119556 -0.00497552 0)
(0.120656 -0.00487968 0)
(0.121734 -0.00478098 0)
(0.122789 -0.00467944 0)
(0.123822 -0.00457509 0)
(0.124831 -0.00446797 0)
(0.125816 -0.00435811 0)
(0.126776 -0.00424555 0)
(0.127711 -0.00413035 0)
(0.12862 -0.00401256 0)
(0.129502 -0.00389224 0)
(0.130358 -0.00376946 0)
(0.131185 -0.00364429 0)
(0.131984 -0.0035168 0)
(0.132755 -0.00338707 0)
(0.133496 -0.0032552 0)
(0.134208 -0.00312127 0)
(0.13489 -0.00298538 0)
(0.135541 -0.00284762 0)
(0.136161 -0.0027081 0)
(0.136749 -0.00256693 0)
(0.137306 -0.00242422 0)
(0.137831 -0.00228007 0)
(0.138324 -0.00213462 0)
(0.138783 -0.00198797 0)
(0.13921 -0.00184025 0)
(0.139604 -0.00169159 0)
(0.139965 -0.0015421 0)
(0.140292 -0.00139193 0)
(0.140585 -0.00124119 0)
(0.140845 -0.00109002 0)
(0.14107 -0.000938538 0)
(0.141262 -0.000786886 0)
(0.14142 -0.00063519 0)
(0.141544 -0.000483579 0)
(0.141635 -0.000332181 0)
(0.141691 -0.000181123 0)
(0.141714 -3.05323e-05 0)
(0.141703 0.000119468 0)
(0.141658 0.000268757 0)
(0.141581 0.000417213 0)
(0.14147 0.00056472 0)
(0.141327 0.000711165 0)
(0.14115 0.000856436 0)
(0.140942 0.00100042 0)
(0.140702 0.00114303 0)
(0.140429 0.00128415 0)
(0.140126 0.00142368 0)
(0.139792 0.00156154 0)