/*--------------------------------*- C++ -*----------------------------------*\
| =========                 |                                                 |
| \\      /  F ield         | OpenFOAM: The Open Source CFD Toolbox           |
|  \\    /   O peration     | Version:  v2012                                 |
|   \\  /    A nd           | Website:  www.openfoam.com                      |
|    \\/     M anipulation  |                                                 |
\*---------------------------------------------------------------------------*/
FoamFile
{
    version     2.0;
    format      ascii;
    class       volScalarField;
    location    "11.5";
    object      W;
}
// * * * * * * * * * * * * * * * * * * * * * * * * * * * * * * * * * * * * * //

dimensions      [0 0 -1 0 0 0 0];


internalField   nonuniform List<scalar> 
65536
(
1.23866e-16
1.25516e-16
1.30677e-16
1.39426e-16
1.51925e-16
1.6842e-16
1.89248e-16
2.14836e-16
2.45717e-16
2.82527e-16
3.26028e-16
3.7711e-16
4.36814e-16
5.06343e-16
5.87084e-16
6.80631e-16
7.88806e-16
9.13694e-16
1.05766e-15
1.22341e-15
1.414e-15
1.6329e-15
1.88402e-15
2.1718e-15
2.50122e-15
2.87792e-15
3.3082e-15
3.79919e-15
4.35883e-15
4.99605e-15
5.72081e-15
6.54425e-15
7.47878e-15
8.53823e-15
9.73797e-15
1.10951e-14
1.26284e-14
1.4359e-14
1.631e-14
1.85068e-14
2.09777e-14
2.37537e-14
2.68686e-14
3.03599e-14
3.42683e-14
3.86384e-14
4.35191e-14
4.89631e-14
5.50284e-14
6.17773e-14
6.92778e-14
7.76031e-14
8.68324e-14
9.70509e-14
1.0835e-13
1.20829e-13
1.34593e-13
1.49754e-13
1.66432e-13
1.84756e-13
2.04861e-13
2.26892e-13
2.50999e-13
2.77345e-13
3.06097e-13
3.37433e-13
3.71539e-13
4.08608e-13
4.48842e-13
4.92451e-13
5.39652e-13
5.9067e-13
6.45734e-13
7.05081e-13
7.68954e-13
8.37598e-13
9.11265e-13
9.90205e-13
1.07468e-12
1.16493e-12
1.26122e-12
1.3638e-12
1.47291e-12
1.5888e-12
1.71171e-12
1.84186e-12
1.97946e-12
2.12472e-12
2.27782e-12
2.43894e-12
2.60824e-12
2.78583e-12
2.97183e-12
3.16632e-12
3.36936e-12
3.58096e-12
3.80113e-12
4.02981e-12
4.26692e-12
4.51235e-12
4.76593e-12
5.02746e-12
5.29669e-12
5.57331e-12
5.85699e-12
6.14731e-12
6.44383e-12
6.74605e-12
7.0534e-12
7.36526e-12
7.68096e-12
7.99976e-12
8.32089e-12
8.64348e-12
8.96664e-12
9.28939e-12
9.61073e-12
9.92958e-12
1.02448e-11
1.05553e-11
1.08597e-11
1.11569e-11
1.14455e-11
1.17241e-11
1.19915e-11
1.22463e-11
1.2487e-11
1.27122e-11
1.29205e-11
1.31106e-11
1.3281e-11
1.34305e-11
1.35577e-11
1.36615e-11
1.37406e-11
1.3794e-11
1.38207e-11
1.38198e-11
1.37907e-11
1.37328e-11
1.36456e-11
1.35288e-11
1.33825e-11
1.32067e-11
1.30018e-11
1.27683e-11
1.2507e-11
1.22189e-11
1.19053e-11
1.15675e-11
1.12073e-11
1.08264e-11
1.0427e-11
1.00113e-11
9.58174e-12
9.14083e-12
8.69122e-12
8.23568e-12
7.777e-12
7.31799e-12
6.86147e-12
6.41021e-12
5.96689e-12
5.5341e-12
5.11428e-12
4.70971e-12
4.32247e-12
3.95443e-12
3.60723e-12
3.28226e-12
2.98067e-12
2.70333e-12
2.45085e-12
2.22358e-12
2.02164e-12
1.84486e-12
1.69285e-12
1.56501e-12
1.4605e-12
1.3783e-12
1.31718e-12
1.27575e-12
1.25247e-12
1.24564e-12
1.25345e-12
1.27396e-12
1.30515e-12
1.34494e-12
1.39117e-12
1.44168e-12
1.49434e-12
1.54701e-12
1.59767e-12
1.64439e-12
1.68538e-12
1.71904e-12
1.74401e-12
1.75913e-12
1.76356e-12
1.75672e-12
1.73834e-12
1.70846e-12
1.6674e-12
1.61577e-12
1.55442e-12
1.48444e-12
1.40709e-12
1.32373e-12
1.23586e-12
1.14497e-12
1.05256e-12
9.60049e-13
8.68783e-13
7.79962e-13
6.94633e-13
6.1367e-13
5.37759e-13
4.67405e-13
4.02932e-13
3.44494e-13
2.92095e-13
2.45608e-13
2.04793e-13
1.69328e-13
1.38824e-13
1.12851e-13
9.09572e-14
7.26847e-14
5.75849e-14
4.52292e-14
3.52176e-14
2.71843e-14
2.08008e-14
1.57772e-14
1.1862e-14
8.83988e-15
6.5296e-15
4.78041e-15
3.46872e-15
2.49452e-15
1.77789e-15
1.25577e-15
8.7901e-16
6.09736e-16
4.19126e-16
2.8549e-16
1.927e-16
1.28892e-16
8.54433e-17
5.61567e-17
3.6631e-17
2.37808e-17
1.54767e-17
1.02806e-17
7.25683e-18
5.84331e-18
1.86078e-16
1.8855e-16
1.96296e-16
2.09431e-16
2.28197e-16
2.52964e-16
2.84235e-16
3.22656e-16
3.69022e-16
4.24292e-16
4.89607e-16
5.66305e-16
6.55945e-16
7.60336e-16
8.81558e-16
1.022e-15
1.1844e-15
1.37188e-15
1.588e-15
1.8368e-15
2.12286e-15
2.45139e-15
2.82824e-15
3.26007e-15
3.75432e-15
4.31944e-15
4.96486e-15
5.7012e-15
6.54036e-15
7.49566e-15
8.58196e-15
9.81588e-15
1.12159e-14
1.28026e-14
1.45989e-14
1.66301e-14
1.89243e-14
2.15126e-14
2.44291e-14
2.77119e-14
3.14023e-14
3.55461e-14
4.01934e-14
4.5399e-14
5.12228e-14
5.77302e-14
6.49925e-14
7.30869e-14
8.20975e-14
9.21151e-14
1.03238e-13
1.15572e-13
1.29231e-13
1.44338e-13
1.61024e-13
1.7943e-13
1.99705e-13
2.22008e-13
2.4651e-13
2.7339e-13
3.02837e-13
3.35053e-13
3.70248e-13
4.08642e-13
4.50467e-13
4.95964e-13
5.45385e-13
5.98988e-13
6.57044e-13
7.19829e-13
7.87627e-13
8.60731e-13
9.39437e-13
1.02405e-12
1.11486e-12
1.21219e-12
1.31634e-12
1.42762e-12
1.54633e-12
1.67276e-12
1.80721e-12
1.94996e-12
2.10128e-12
2.26142e-12
2.43064e-12
2.60914e-12
2.79714e-12
2.99482e-12
3.20232e-12
3.41976e-12
3.64726e-12
3.88485e-12
4.13257e-12
4.3904e-12
4.65829e-12
4.93612e-12
5.22377e-12
5.52102e-12
5.82765e-12
6.14334e-12
6.46776e-12
6.80049e-12
7.14108e-12
7.48901e-12
7.84369e-12
8.2045e-12
8.57073e-12
8.94163e-12
9.31638e-12
9.6941e-12
1.00739e-11
1.04547e-11
1.08354e-11
1.12151e-11
1.15925e-11
1.19664e-11
1.23355e-11
1.26985e-11
1.30541e-11
1.34009e-11
1.37374e-11
1.40622e-11
1.43739e-11
1.46708e-11
1.49516e-11
1.52146e-11
1.54585e-11
1.56816e-11
1.58826e-11
1.606e-11
1.62125e-11
1.63387e-11
1.64373e-11
1.65072e-11
1.65474e-11
1.65569e-11
1.65348e-11
1.64805e-11
1.63934e-11
1.62732e-11
1.61198e-11
1.59331e-11
1.57133e-11
1.5461e-11
1.51768e-11
1.48615e-11
1.45164e-11
1.41429e-11
1.37424e-11
1.33169e-11
1.28684e-11
1.23993e-11
1.19119e-11
1.14088e-11
1.0893e-11
1.03672e-11
9.83452e-12
9.29801e-12
8.76076e-12
8.22587e-12
7.69641e-12
7.17536e-12
6.6656e-12
6.16988e-12
5.69076e-12
5.23059e-12
4.79154e-12
4.37548e-12
3.98405e-12
3.6186e-12
3.28021e-12
2.96967e-12
2.68748e-12
2.43386e-12
2.20875e-12
2.01184e-12
1.84257e-12
1.70012e-12
1.58348e-12
1.49142e-12
1.42251e-12
1.37516e-12
1.34761e-12
1.33798e-12
1.34423e-12
1.36424e-12
1.3958e-12
1.43663e-12
1.48441e-12
1.53681e-12
1.59152e-12
1.64627e-12
1.69889e-12
1.74732e-12
1.78969e-12
1.8243e-12
1.8497e-12
1.86469e-12
1.86838e-12
1.86017e-12
1.83979e-12
1.8073e-12
1.76305e-12
1.7077e-12
1.64217e-12
1.5676e-12
1.48531e-12
1.39679e-12
1.30359e-12
1.20729e-12
1.10946e-12
1.01162e-12
9.15155e-13
8.2134e-13
7.31266e-13
6.45847e-13
5.65799e-13
4.91645e-13
4.23719e-13
3.62177e-13
3.07015e-13
2.58094e-13
2.15157e-13
1.77859e-13
1.45788e-13
1.18489e-13
9.54831e-14
7.62875e-14
6.04286e-14
4.74548e-14
3.69446e-14
2.85129e-14
2.18142e-14
1.65435e-14
1.24364e-14
9.26676e-15
6.84407e-15
5.01004e-15
3.63492e-15
2.61375e-15
1.86268e-15
1.31553e-15
9.20751e-16
6.38632e-16
4.3895e-16
2.9897e-16
2.01782e-16
1.34957e-16
8.94574e-17
5.87909e-17
3.83468e-17
2.48931e-17
1.61996e-17
1.07601e-17
7.59487e-18
6.11541e-18
3.35912e-16
3.40365e-16
3.54338e-16
3.78035e-16
4.11892e-16
4.56578e-16
5.13e-16
5.82323e-16
6.65981e-16
7.65705e-16
8.83551e-16
1.02194e-15
1.18367e-15
1.37201e-15
1.59072e-15
1.8441e-15
2.13708e-15
2.4753e-15
2.86516e-15
3.31394e-15
3.82991e-15
4.42241e-15
5.10202e-15
5.88066e-15
6.77178e-15
7.79051e-15
8.95383e-15
1.02808e-14
1.17928e-14
1.35136e-14
1.547e-14
1.76917e-14
2.02117e-14
2.30669e-14
2.62981e-14
2.99505e-14
3.40742e-14
3.87244e-14
4.39621e-14
4.98544e-14
5.64749e-14
6.39044e-14
7.22314e-14
8.15527e-14
9.19735e-14
1.03609e-13
1.16583e-13
1.31032e-13
1.47101e-13
1.64949e-13
1.84746e-13
2.06675e-13
2.30932e-13
2.57727e-13
2.87285e-13
3.19845e-13
3.55662e-13
3.95003e-13
4.38154e-13
4.85415e-13
5.37101e-13
5.93544e-13
6.55088e-13
7.22095e-13
7.94937e-13
8.74003e-13
9.59692e-13
1.05241e-12
1.15259e-12
1.26065e-12
1.37702e-12
1.50215e-12
1.63648e-12
1.78045e-12
1.9345e-12
2.09906e-12
2.27457e-12
2.46142e-12
2.66003e-12
2.87077e-12
3.09401e-12
3.33007e-12
3.57927e-12
3.84187e-12
4.11811e-12
4.40818e-12
4.71223e-12
5.03037e-12
5.36264e-12
5.70903e-12
6.06948e-12
6.44386e-12
6.83197e-12
7.23356e-12
7.64828e-12
8.07575e-12
8.51547e-12
8.96689e-12
9.42937e-12
9.90222e-12
1.03846e-11
1.08758e-11
1.13746e-11
1.18802e-11
1.23915e-11
1.29072e-11
1.34261e-11
1.3947e-11
1.44683e-11
1.49888e-11
1.55068e-11
1.60208e-11
1.65292e-11
1.70304e-11
1.75225e-11
1.8004e-11
1.84729e-11
1.89275e-11
1.9366e-11
1.97865e-11
2.01872e-11
2.05663e-11
2.09219e-11
2.12522e-11
2.15554e-11
2.18299e-11
2.20738e-11
2.22857e-11
2.24639e-11
2.2607e-11
2.27135e-11
2.27824e-11
2.28123e-11
2.28024e-11
2.27517e-11
2.26597e-11
2.25258e-11
2.23498e-11
2.21315e-11
2.18711e-11
2.1569e-11
2.12258e-11
2.08423e-11
2.04198e-11
1.99595e-11
1.94632e-11
1.89328e-11
1.83705e-11
1.77788e-11
1.71602e-11
1.65177e-11
1.58545e-11
1.51738e-11
1.44791e-11
1.37741e-11
1.30623e-11
1.23475e-11
1.16335e-11
1.09241e-11
1.0223e-11
9.53369e-12
8.85971e-12
8.20433e-12
7.57063e-12
6.96143e-12
6.37931e-12
5.82652e-12
5.30502e-12
4.81642e-12
4.362e-12
3.9427e-12
3.55913e-12
3.21154e-12
2.89986e-12
2.62373e-12
2.38247e-12
2.17513e-12
2.00051e-12
1.85715e-12
1.74339e-12
1.65737e-12
1.59705e-12
1.56021e-12
1.54453e-12
1.54753e-12
1.56666e-12
1.59927e-12
1.64268e-12
1.69416e-12
1.75102e-12
1.81057e-12
1.87022e-12
1.92749e-12
1.98004e-12
2.02574e-12
2.06269e-12
2.08927e-12
2.10415e-12
2.10635e-12
2.09522e-12
2.07049e-12
2.03224e-12
1.9809e-12
1.91724e-12
1.84229e-12
1.75736e-12
1.66396e-12
1.56375e-12
1.45845e-12
1.34986e-12
1.23973e-12
1.12973e-12
1.02143e-12
9.16215e-13
8.15304e-13
7.197e-13
6.30186e-13
5.47333e-13
4.71495e-13
4.02834e-13
3.41334e-13
2.86825e-13
2.39013e-13
1.97503e-13
1.6183e-13
1.3148e-13
1.05915e-13
8.45946e-14
6.69875e-14
5.25894e-14
4.093e-14
3.15798e-14
2.41539e-14
1.83132e-14
1.37633e-14
1.0253e-14
7.57073e-15
5.54076e-15
4.01913e-15
2.88944e-15
2.05875e-15
1.45374e-15
1.01731e-15
7.05485e-16
4.84822e-16
3.30163e-16
2.22803e-16
1.48995e-16
9.875e-17
6.48898e-17
4.23197e-17
2.7469e-17
1.78738e-17
1.18708e-17
8.37795e-18
6.74549e-18
6.373e-16
6.4574e-16
6.72238e-16
7.17178e-16
7.81391e-16
8.66142e-16
9.73156e-16
1.10464e-15
1.26331e-15
1.45246e-15
1.67599e-15
1.93847e-15
2.24524e-15
2.60249e-15
3.01732e-15
3.49791e-15
4.05362e-15
4.6951e-15
5.43452e-15
6.28566e-15
7.26417e-15
8.38777e-15
9.67647e-15
1.11529e-14
1.28424e-14
1.47736e-14
1.69787e-14
1.94936e-14
2.23588e-14
2.56192e-14
2.93252e-14
3.35328e-14
3.83044e-14
4.37093e-14
4.98241e-14
5.6734e-14
6.45329e-14
7.33245e-14
8.32228e-14
9.43534e-14
1.06854e-13
1.20875e-13
1.36582e-13
1.54153e-13
1.73786e-13
1.95692e-13
2.20103e-13
2.47267e-13
2.77454e-13
3.10954e-13
3.48079e-13
3.89163e-13
4.34563e-13
4.84661e-13
5.39862e-13
6.00598e-13
6.67323e-13
7.4052e-13
8.20693e-13
9.08375e-13
1.00412e-12
1.10851e-12
1.22214e-12
1.34563e-12
1.47964e-12
1.62481e-12
1.78182e-12
1.95135e-12
2.13411e-12
2.3308e-12
2.54211e-12
2.76875e-12
3.01141e-12
3.27078e-12
3.54751e-12
3.84226e-12
4.15564e-12
4.48822e-12
4.84054e-12
5.2131e-12
5.60634e-12
6.02062e-12
6.45627e-12
6.91352e-12
7.39252e-12
7.89336e-12
8.416e-12
8.96033e-12
9.52612e-12
1.01131e-11
1.07207e-11
1.13485e-11
1.19957e-11
1.26617e-11
1.33454e-11
1.40458e-11
1.47617e-11
1.5492e-11
1.62351e-11
1.69895e-11
1.77537e-11
1.85257e-11
1.93039e-11
2.00862e-11
2.08705e-11
2.16547e-11
2.24366e-11
2.32138e-11
2.3984e-11
2.47447e-11
2.54934e-11
2.62276e-11
2.69448e-11
2.76423e-11
2.83176e-11
2.89681e-11
2.95911e-11
3.01841e-11
3.07446e-11
3.12701e-11
3.17581e-11
3.22063e-11
3.26124e-11
3.29742e-11
3.32896e-11
3.35565e-11
3.37733e-11
3.39381e-11
3.40493e-11
3.41057e-11
3.4106e-11
3.40493e-11
3.39347e-11
3.37616e-11
3.35298e-11
3.32392e-11
3.289e-11
3.24827e-11
3.20181e-11
3.14972e-11
3.09214e-11
3.02925e-11
2.96124e-11
2.88835e-11
2.81084e-11
2.72901e-11
2.64319e-11
2.55374e-11
2.46103e-11
2.36548e-11
2.26751e-11
2.16759e-11
2.06617e-11
1.96374e-11
1.86079e-11
1.75781e-11
1.65529e-11
1.55372e-11
1.45357e-11
1.35532e-11
1.25939e-11
1.16622e-11
1.07618e-11
9.8964e-12
9.06916e-12
8.28291e-12
7.54004e-12
6.84256e-12
6.19199e-12
5.58945e-12
5.0356e-12
4.53069e-12
4.07454e-12
3.66658e-12
3.30587e-12
2.99113e-12
2.72076e-12
2.49284e-12
2.30524e-12
2.15553e-12
2.04113e-12
1.95925e-12
1.90692e-12
1.88108e-12
1.87853e-12
1.89598e-12
1.93012e-12
1.97755e-12
2.03493e-12
2.09891e-12
2.16624e-12
2.23377e-12
2.29852e-12
2.35769e-12
2.40875e-12
2.44947e-12
2.47793e-12
2.49261e-12
2.49236e-12
2.47648e-12
2.44466e-12
2.39706e-12
2.33421e-12
2.25704e-12
2.16681e-12
2.06508e-12
1.95365e-12
1.83445e-12
1.70955e-12
1.58103e-12
1.45093e-12
1.32123e-12
1.19372e-12
1.07002e-12
9.5154e-13
8.3942e-13
7.3456e-13
6.376e-13
5.48936e-13
4.68735e-13
3.96958e-13
3.33392e-13
2.77677e-13
2.29341e-13
1.87829e-13
1.52534e-13
1.22822e-13
9.80564e-14
7.7616e-14
6.09097e-14
4.73878e-14
3.65492e-14
2.79451e-14
2.11805e-14
1.59132e-14
1.18509e-14
8.74805e-15
6.40059e-15
4.64158e-15
3.33607e-15
2.37638e-15
1.67763e-15
1.17372e-15
8.1378e-16
5.5913e-16
3.80692e-16
2.56853e-16
1.71735e-16
1.13802e-16
7.47687e-17
4.87549e-17
3.16412e-17
2.05856e-17
1.36698e-17
9.64628e-18
7.76595e-18
1.21485e-15
1.23093e-15
1.28143e-15
1.36709e-15
1.48948e-15
1.65102e-15
1.855e-15
2.10562e-15
2.40808e-15
2.76864e-15
3.19474e-15
3.69511e-15
4.27992e-15
4.96097e-15
5.75181e-15
6.66803e-15
7.72745e-15
8.95041e-15
1.03601e-14
1.19827e-14
1.38481e-14
1.59901e-14
1.84467e-14
2.12609e-14
2.44812e-14
2.8162e-14
3.23644e-14
3.71569e-14
4.26161e-14
4.88276e-14
5.5887e-14
6.39006e-14
7.29866e-14
8.32763e-14
9.49151e-14
1.08064e-13
1.229e-13
1.3962e-13
1.58438e-13
1.79591e-13
2.03339e-13
2.29964e-13
2.59776e-13
2.93112e-13
3.30338e-13
3.71852e-13
4.18083e-13
4.69496e-13
5.26591e-13
5.89905e-13
6.60015e-13
7.37536e-13
8.23126e-13
9.17484e-13
1.02135e-12
1.13551e-12
1.26079e-12
1.39806e-12
1.54822e-12
1.71224e-12
1.89109e-12
2.08581e-12
2.29744e-12
2.52709e-12
2.77586e-12
3.04489e-12
3.33533e-12
3.64834e-12
3.98509e-12
4.34673e-12
4.73442e-12
5.14928e-12
5.59241e-12
6.06487e-12
6.56766e-12
7.10173e-12
7.66796e-12
8.26713e-12
8.89993e-12
9.56696e-12
1.02687e-11
1.10054e-11
1.17774e-11
1.25847e-11
1.34271e-11
1.43045e-11
1.52162e-11
1.61617e-11
1.714e-11
1.81503e-11
1.91911e-11
2.02611e-11
2.13585e-11
2.24816e-11
2.36281e-11
2.47959e-11
2.59824e-11
2.7185e-11
2.84007e-11
2.96266e-11
3.08594e-11
3.20958e-11
3.33322e-11
3.45651e-11
3.57908e-11
3.70052e-11
3.82047e-11
3.93851e-11
4.05425e-11
4.16728e-11
4.2772e-11
4.38361e-11
4.48609e-11
4.58427e-11
4.67774e-11
4.76613e-11
4.84906e-11
4.92618e-11
4.99715e-11
5.06162e-11
5.1193e-11
5.16987e-11
5.21308e-11
5.24867e-11
5.2764e-11
5.29608e-11
5.30752e-11
5.31056e-11
5.3051e-11
5.29103e-11
5.2683e-11
5.23687e-11
5.19676e-11
5.148e-11
5.09067e-11
5.02488e-11
4.95079e-11
4.8686e-11
4.77853e-11
4.68086e-11
4.57589e-11
4.46399e-11
4.34555e-11
4.22099e-11
4.09078e-11
3.95544e-11
3.81549e-11
3.67151e-11
3.52409e-11
3.37387e-11
3.22147e-11
3.06757e-11
2.91282e-11
2.75792e-11
2.60353e-11
2.45032e-11
2.29896e-11
2.15009e-11
2.00432e-11
1.86225e-11
1.72442e-11
1.59135e-11
1.46351e-11
1.34131e-11
1.2251e-11
1.11521e-11
1.01188e-11
9.15294e-12
8.2559e-12
7.42836e-12
6.67049e-12
5.98188e-12
5.36162e-12
4.80829e-12
4.32003e-12
3.89456e-12
3.52924e-12
3.22109e-12
2.96682e-12
2.76292e-12
2.60565e-12
2.49106e-12
2.4151e-12
2.37355e-12
2.36213e-12
2.37649e-12
2.41224e-12
2.46503e-12
2.53052e-12
2.60446e-12
2.68272e-12
2.76137e-12
2.83667e-12
2.90517e-12
2.96376e-12
3.0097e-12
3.04068e-12
3.05486e-12
3.05088e-12
3.02793e-12
2.9857e-12
2.92442e-12
2.84478e-12
2.74796e-12
2.63554e-12
2.50943e-12
2.37184e-12
2.22515e-12
2.07187e-12
1.91451e-12
1.75555e-12
1.59736e-12
1.44211e-12
1.29172e-12
1.14787e-12
1.01192e-12
8.84918e-13
7.67614e-13
6.60457e-13
5.6362e-13
4.77034e-13
4.00419e-13
3.3332e-13
2.75153e-13
2.25234e-13
1.8282e-13
1.47139e-13
1.17416e-13
9.28991e-14
7.28722e-14
5.66715e-14
4.36923e-14
3.3394e-14
2.53012e-14
1.90024e-14
1.41468e-14
1.04395e-14
7.63578e-15
5.53567e-15
3.97756e-15
2.83257e-15
1.99917e-15
1.39833e-15
9.69277e-16
6.65819e-16
4.53234e-16
3.05735e-16
2.04378e-16
1.35408e-16
8.89483e-17
5.79912e-17
3.76292e-17
2.44774e-17
1.62515e-17
1.14663e-17
9.23026e-18
2.29885e-15
2.32928e-15
2.42484e-15
2.58694e-15
2.81855e-15
3.12426e-15
3.51029e-15
3.98462e-15
4.55707e-15
5.23951e-15
6.04602e-15
6.99315e-15
8.10016e-15
9.38937e-15
1.08865e-14
1.2621e-14
1.46267e-14
1.6942e-14
1.96108e-14
2.26829e-14
2.62146e-14
3.027e-14
3.49209e-14
4.02489e-14
4.63455e-14
5.33136e-14
6.12686e-14
7.03401e-14
8.06728e-14
9.24282e-14
1.05787e-13
1.20949e-13
1.38138e-13
1.57601e-13
1.79611e-13
2.04472e-13
2.32517e-13
2.64114e-13
2.99666e-13
3.39618e-13
3.84455e-13
4.34706e-13
4.90949e-13
5.53813e-13
6.23981e-13
7.02191e-13
7.89241e-13
8.85992e-13
9.93368e-13
1.11236e-12
1.24403e-12
1.38952e-12
1.55001e-12
1.7268e-12
1.92122e-12
2.13471e-12
2.36875e-12
2.62491e-12
2.90482e-12
3.21019e-12
3.54275e-12
3.90433e-12
4.29678e-12
4.722e-12
5.18192e-12
5.67849e-12
6.21366e-12
6.7894e-12
7.40763e-12
8.07028e-12
8.77919e-12
9.53617e-12
1.03429e-11
1.12011e-11
1.21121e-11
1.30773e-11
1.40979e-11
1.51749e-11
1.6309e-11
1.7501e-11
1.8751e-11
2.00591e-11
2.14251e-11
2.28485e-11
2.43285e-11
2.58638e-11
2.7453e-11
2.90942e-11
3.07852e-11
3.25235e-11
3.4306e-11
3.61296e-11
3.79905e-11
3.98848e-11
4.1808e-11
4.37557e-11
4.57227e-11
4.77039e-11
4.96937e-11
5.16864e-11
5.36759e-11
5.56561e-11
5.76207e-11
5.95632e-11
6.14771e-11
6.33557e-11
6.51925e-11
6.69808e-11
6.8714e-11
7.03856e-11
7.19893e-11
7.35187e-11
7.49679e-11
7.63309e-11
7.76021e-11
7.87761e-11
7.98478e-11
8.08126e-11
8.16658e-11
8.24035e-11
8.30219e-11
8.35177e-11
8.38881e-11
8.41304e-11
8.42428e-11
8.42235e-11
8.40716e-11
8.37862e-11
8.33674e-11
8.28154e-11
8.2131e-11
8.13156e-11
8.0371e-11
7.92998e-11
7.81046e-11
7.67891e-11
7.53571e-11
7.38132e-11
7.21623e-11
7.041e-11
6.85623e-11
6.66257e-11
6.46071e-11
6.2514e-11
6.03543e-11
5.81362e-11
5.58681e-11
5.35591e-11
5.12183e-11
4.88549e-11
4.64785e-11
4.40986e-11
4.17247e-11
3.93663e-11
3.70328e-11
3.47333e-11
3.24766e-11
3.02711e-11
2.81248e-11
2.60451e-11
2.4039e-11
2.21126e-11
2.02714e-11
1.85202e-11
1.6863e-11
1.53029e-11
1.38423e-11
1.24827e-11
1.12249e-11
1.00688e-11
9.01358e-12
8.05781e-12
7.19928e-12
6.43522e-12
5.76231e-12
5.17671e-12
4.67417e-12
4.25008e-12
3.89948e-12
3.61715e-12
3.39768e-12
3.23547e-12
3.12478e-12
3.05981e-12
3.03468e-12
3.04351e-12
3.08044e-12
3.13968e-12
3.21553e-12
3.30246e-12
3.39513e-12
3.48848e-12
3.57775e-12
3.65857e-12
3.72703e-12
3.7797e-12
3.81371e-12
3.8268e-12
3.81733e-12
3.78433e-12
3.72749e-12
3.64712e-12
3.54419e-12
3.42018e-12
3.27711e-12
3.11741e-12
2.94383e-12
2.75935e-12
2.56708e-12
2.37015e-12
2.17163e-12
1.97441e-12
1.78116e-12
1.59426e-12
1.41571e-12
1.24718e-12
1.08993e-12
9.44837e-13
8.12432e-13
6.92893e-13
5.86105e-13
4.91692e-13
4.09075e-13
3.37509e-13
2.76136e-13
2.24026e-13
1.80216e-13
1.43746e-13
1.13681e-13
8.91358e-14
6.92908e-14
5.34003e-14
4.07982e-14
3.08997e-14
2.3199e-14
1.72653e-14
1.27365e-14
9.313e-15
6.74958e-15
4.84841e-15
3.45179e-15
2.43555e-15
1.70313e-15
1.18028e-15
8.10574e-16
5.51652e-16
3.72046e-16
2.48657e-16
1.64713e-16
1.08179e-16
7.05168e-17
4.57491e-17
2.97544e-17
1.97518e-17
1.39339e-17
1.12154e-17
4.30513e-15
4.36215e-15
4.54117e-15
4.84481e-15
5.27867e-15
5.85136e-15
6.57454e-15
7.46316e-15
8.53566e-15
9.81429e-15
1.13255e-14
1.31002e-14
1.51746e-14
1.75906e-14
2.03964e-14
2.36472e-14
2.74064e-14
3.17462e-14
3.67487e-14
4.25074e-14
4.91279e-14
5.673e-14
6.54489e-14
7.5437e-14
8.68659e-14
9.99283e-14
1.14841e-13
1.31845e-13
1.51213e-13
1.73246e-13
1.98281e-13
2.26695e-13
2.58902e-13
2.95366e-13
3.36596e-13
3.83158e-13
4.35673e-13
4.94826e-13
5.61369e-13
6.36127e-13
7.19999e-13
8.13969e-13
9.19109e-13
1.03658e-12
1.16764e-12
1.31366e-12
1.47611e-12
1.65656e-12
1.85672e-12
2.0784e-12
2.32355e-12
2.59421e-12
2.89259e-12
3.22099e-12
3.58185e-12
3.97775e-12
4.41135e-12
4.88546e-12
5.40298e-12
5.96692e-12
6.58038e-12
7.24652e-12
7.96859e-12
8.74986e-12
9.59366e-12
1.05033e-11
1.14821e-11
1.25333e-11
1.36601e-11
1.48655e-11
1.61527e-11
1.75243e-11
1.89829e-11
2.0531e-11
2.21707e-11
2.39036e-11
2.57314e-11
2.7655e-11
2.9675e-11
3.17918e-11
3.4005e-11
3.63138e-11
3.87168e-11
4.12121e-11
4.37973e-11
4.64691e-11
4.92239e-11
5.20573e-11
5.49642e-11
5.79391e-11
6.09756e-11
6.4067e-11
6.72057e-11
7.03838e-11
7.35927e-11
7.68234e-11
8.00664e-11
8.33118e-11
8.65493e-11
8.97685e-11
9.29586e-11
9.61085e-11
9.92073e-11
1.02244e-10
1.05207e-10
1.08085e-10
1.10868e-10
1.13545e-10
1.16106e-10
1.18539e-10
1.20837e-10
1.22988e-10
1.24985e-10
1.26819e-10
1.28482e-10
1.29968e-10
1.3127e-10
1.32381e-10
1.33297e-10
1.34013e-10
1.34526e-10
1.34833e-10
1.34931e-10
1.34819e-10
1.34497e-10
1.33964e-10
1.33221e-10
1.32271e-10
1.31115e-10
1.29756e-10
1.28199e-10
1.26448e-10
1.24509e-10
1.22388e-10
1.20091e-10
1.17626e-10
1.15001e-10
1.12225e-10
1.09309e-10
1.0626e-10
1.03091e-10
9.98133e-11
9.64375e-11
9.29762e-11
8.94421e-11
8.58481e-11
8.22075e-11
7.85337e-11
7.48404e-11
7.11413e-11
6.745e-11
6.37802e-11
6.01451e-11
5.6558e-11
5.30315e-11
4.95777e-11
4.62083e-11
4.29342e-11
3.97655e-11
3.67115e-11
3.37805e-11
3.09798e-11
2.83156e-11
2.57932e-11
2.34165e-11
2.11885e-11
1.91108e-11
1.71843e-11
1.54083e-11
1.37815e-11
1.23014e-11
1.09646e-11
9.7669e-12
8.70341e-12
7.76849e-12
6.95595e-12
6.25912e-12
5.6709e-12
5.18388e-12
4.79036e-12
4.48249e-12
4.25226e-12
4.09158e-12
3.99234e-12
3.94644e-12
3.94585e-12
3.98264e-12
4.04905e-12
4.1375e-12
4.24068e-12
4.35162e-12
4.46371e-12
4.57081e-12
4.66731e-12
4.7482e-12
4.80914e-12
4.84652e-12
4.85751e-12
4.8401e-12
4.79312e-12
4.71624e-12
4.60995e-12
4.4755e-12
4.31486e-12
4.1306e-12
3.92584e-12
3.70406e-12
3.46904e-12
3.22471e-12
2.97499e-12
2.72372e-12
2.47453e-12
2.23072e-12
1.99524e-12
1.77058e-12
1.55878e-12
1.36137e-12
1.17941e-12
1.01353e-12
8.63896e-13
7.3034e-13
6.1236e-13
5.09198e-13
4.19901e-13
3.43376e-13
2.78444e-13
2.2389e-13
1.78502e-13
1.41106e-13
1.10594e-13
8.59374e-14
6.62038e-14
5.05615e-14
3.82806e-14
2.87306e-14
2.13749e-14
1.57632e-14
1.15226e-14
8.34859e-15
5.99535e-15
4.2672e-15
3.01014e-15
2.10441e-15
1.45803e-15
1.0011e-15
6.81172e-16
4.59305e-16
3.06917e-16
2.03268e-16
1.33477e-16
8.69929e-17
5.64291e-17
3.66945e-17
2.4355e-17
1.71786e-17
1.38257e-17
7.97325e-15
8.07895e-15
8.41066e-15
8.97327e-15
9.7772e-15
1.08384e-14
1.21785e-14
1.38252e-14
1.58128e-14
1.81826e-14
2.09835e-14
2.42732e-14
2.81187e-14
3.25976e-14
3.77995e-14
4.3827e-14
5.07976e-14
5.88452e-14
6.81224e-14
7.88025e-14
9.10816e-14
1.05182e-13
1.21354e-13
1.39882e-13
1.61082e-13
1.85312e-13
2.12975e-13
2.44518e-13
2.80443e-13
3.21312e-13
3.67748e-13
4.20446e-13
4.80176e-13
5.47791e-13
6.24238e-13
7.10558e-13
8.079e-13
9.17527e-13
1.04082e-12
1.17931e-12
1.33464e-12
1.50863e-12
1.70324e-12
1.92059e-12
2.16301e-12
2.43299e-12
2.7332e-12
3.06653e-12
3.43608e-12
3.84514e-12
4.29722e-12
4.79605e-12
5.34558e-12
5.94997e-12
6.61359e-12
7.34103e-12
8.13706e-12
9.00665e-12
9.95492e-12
1.09872e-11
1.21088e-11
1.33253e-11
1.46424e-11
1.60655e-11
1.76005e-11
1.92528e-11
2.1028e-11
2.29314e-11
2.49683e-11
2.71436e-11
2.94619e-11
3.19275e-11
3.45442e-11
3.73154e-11
4.02439e-11
4.33317e-11
4.65804e-11
4.99906e-11
5.35622e-11
5.72941e-11
6.11845e-11
6.52304e-11
6.94278e-11
7.37717e-11
7.82561e-11
8.28737e-11
8.76163e-11
9.24743e-11
9.74374e-11
1.02494e-10
1.07631e-10
1.12836e-10
1.18093e-10
1.23387e-10
1.28703e-10
1.34023e-10
1.39329e-10
1.44604e-10
1.49829e-10
1.54985e-10
1.60054e-10
1.65017e-10
1.69854e-10
1.74547e-10
1.79078e-10
1.83429e-10
1.87582e-10
1.9152e-10
1.95227e-10
1.98689e-10
2.0189e-10
2.04819e-10
2.07461e-10
2.09807e-10
2.11847e-10
2.13572e-10
2.14974e-10
2.16048e-10
2.16788e-10
2.17192e-10
2.17257e-10
2.16983e-10
2.1637e-10
2.15419e-10
2.14134e-10
2.12519e-10
2.1058e-10
2.08323e-10
2.05755e-10
2.02887e-10
1.99727e-10
1.96286e-10
1.92577e-10
1.88613e-10
1.84406e-10
1.79972e-10
1.75326e-10
1.70485e-10
1.65463e-10
1.60281e-10
1.54954e-10
1.49502e-10
1.43944e-10
1.38299e-10
1.32586e-10
1.26826e-10
1.21038e-10
1.15243e-10
1.09459e-10
1.03708e-10
9.80077e-11
9.23775e-11
8.68357e-11
8.14001e-11
7.60874e-11
7.09136e-11
6.58937e-11
6.10412e-11
5.63687e-11
5.18873e-11
4.76066e-11
4.35348e-11
3.96786e-11
3.60429e-11
3.26311e-11
2.94452e-11
2.64855e-11
2.37507e-11
2.12381e-11
1.89439e-11
1.68628e-11
1.49882e-11
1.33129e-11
1.18285e-11
1.05259e-11
9.39527e-12
8.42632e-12
7.60834e-12
6.93027e-12
6.38087e-12
5.94875e-12
5.62247e-12
5.39062e-12
5.24185e-12
5.16497e-12
5.14895e-12
5.18302e-12
5.2567e-12
5.35986e-12
5.4828e-12
5.6163e-12
5.75171e-12
5.88103e-12
5.99698e-12
6.09313e-12
6.1639e-12
6.20472e-12
6.21201e-12
6.18329e-12
6.11712e-12
6.01317e-12
5.87214e-12
5.69569e-12
5.48641e-12
5.24764e-12
4.98335e-12
4.69803e-12
4.39649e-12
4.08371e-12
3.76468e-12
3.44423e-12
3.12692e-12
2.81692e-12
2.51789e-12
2.23295e-12
1.9646e-12
1.71476e-12
1.4847e-12
1.27514e-12
1.08629e-12
9.17861e-13
7.69189e-13
6.39285e-13
5.26919e-13
4.30687e-13
3.49086e-13
2.80568e-13
2.23595e-13
1.7668e-13
1.38421e-13
1.07519e-13
8.27993e-14
6.32135e-14
4.78432e-14
3.58958e-14
2.66973e-14
1.96823e-14
1.43833e-14
1.04183e-14
7.47967e-15
5.32231e-15
3.7535e-15
2.62349e-15
1.81726e-15
1.24749e-15
8.48648e-16
5.72121e-16
3.82233e-16
2.53105e-16
1.66175e-16
1.08286e-16
7.02299e-17
4.56619e-17
3.03022e-17
2.13703e-17
1.71976e-17
1.46012e-14
1.4795e-14
1.54029e-14
1.64339e-14
1.79072e-14
1.98519e-14
2.23079e-14
2.5326e-14
2.89691e-14
3.33131e-14
3.84478e-14
4.4479e-14
5.15298e-14
5.97429e-14
6.92824e-14
8.0337e-14
9.31224e-14
1.07885e-13
1.24904e-13
1.44498e-13
1.67028e-13
1.92901e-13
2.22578e-13
2.56579e-13
2.95486e-13
3.39958e-13
3.90728e-13
4.48623e-13
5.14563e-13
5.89574e-13
6.74803e-13
7.71522e-13
8.81142e-13
1.00523e-12
1.14551e-12
1.30389e-12
1.48247e-12
1.68357e-12
1.9097e-12
2.16365e-12
2.44843e-12
2.76733e-12
3.12393e-12
3.5221e-12
3.96605e-12
4.46028e-12
5.00965e-12
5.61939e-12
6.29505e-12
7.04258e-12
7.86829e-12
8.77886e-12
9.78137e-12
1.08832e-11
1.20922e-11
1.34164e-11
1.48643e-11
1.64447e-11
1.81664e-11
2.00388e-11
2.20713e-11
2.42732e-11
2.66543e-11
2.92242e-11
3.19922e-11
3.49678e-11
3.81601e-11
4.15777e-11
4.52291e-11
4.9122e-11
5.32634e-11
5.76597e-11
6.23163e-11
6.72375e-11
7.24268e-11
7.7886e-11
8.36158e-11
8.96155e-11
9.58825e-11
1.02413e-10
1.09201e-10
1.16239e-10
1.23517e-10
1.31024e-10
1.38747e-10
1.4667e-10
1.54776e-10
1.63046e-10
1.71459e-10
1.79992e-10
1.88621e-10
1.97319e-10
2.0606e-10
2.14813e-10
2.23551e-10
2.32241e-10
2.40852e-10
2.49352e-10
2.57709e-10
2.65891e-10
2.73864e-10
2.81597e-10
2.89058e-10
2.96217e-10
3.03044e-10
3.09511e-10
3.15591e-10
3.21258e-10
3.26488e-10
3.3126e-10
3.35553e-10
3.39351e-10
3.42637e-10
3.45398e-10
3.47623e-10
3.49303e-10
3.50433e-10
3.51008e-10
3.51026e-10
3.50489e-10
3.49399e-10
3.4776e-10
3.45582e-10
3.42872e-10
3.39642e-10
3.35905e-10
3.31676e-10
3.26971e-10
3.21809e-10
3.16208e-10
3.1019e-10
3.03777e-10
2.96993e-10
2.89861e-10
2.82407e-10
2.74657e-10
2.66638e-10
2.58379e-10
2.49906e-10
2.4125e-10
2.32438e-10
2.23502e-10
2.14469e-10
2.05371e-10
1.96236e-10
1.87094e-10
1.77975e-10
1.68907e-10
1.59918e-10
1.51036e-10
1.42288e-10
1.33698e-10
1.25293e-10
1.17095e-10
1.09125e-10
1.01404e-10
9.39511e-11
8.67817e-11
7.99109e-11
7.33511e-11
6.7113e-11
6.12046e-11
5.5632e-11
5.0399e-11
4.55073e-11
4.09561e-11
3.67429e-11
3.2863e-11
2.93099e-11
2.60753e-11
2.31494e-11
2.05209e-11
1.81772e-11
1.6105e-11
1.42896e-11
1.2716e-11
1.13685e-11
1.0231e-11
9.28721e-12
8.52075e-12
7.91522e-12
7.45432e-12
7.12193e-12
6.90223e-12
6.7797e-12
6.73921e-12
6.76609e-12
6.84617e-12
6.96587e-12
7.11224e-12
7.27308e-12
7.43701e-12
7.59354e-12
7.73323e-12
7.84772e-12
7.92986e-12
7.97378e-12
7.97497e-12
7.9303e-12
7.83803e-12
7.69782e-12
7.51065e-12
7.27876e-12
7.0055e-12
6.69522e-12
6.35305e-12
5.98476e-12
5.59649e-12
5.1946e-12
4.78543e-12
4.37511e-12
3.96942e-12
3.57359e-12
3.19224e-12
2.82926e-12
2.48779e-12
2.17016e-12
1.87795e-12
1.61202e-12
1.37255e-12
1.15915e-12
9.70916e-13
8.06559e-13
6.64483e-13
5.42885e-13
4.39835e-13
3.53357e-13
2.81489e-13
2.2234e-13
1.74128e-13
1.35205e-13
1.04084e-13
7.94364e-14
6.01019e-14
4.50792e-14
3.35173e-14
2.47032e-14
1.80473e-14
1.30688e-14
9.38019e-15
6.67303e-15
4.70499e-15
3.28779e-15
2.27693e-15
1.56271e-15
1.06289e-15
7.16418e-16
4.78553e-16
3.16832e-16
2.07981e-16
1.35508e-16
8.78719e-17
5.71239e-17
3.79032e-17
2.67272e-17
2.15065e-17
2.64385e-14
2.679e-14
2.7892e-14
2.97606e-14
3.24306e-14
3.59553e-14
4.04069e-14
4.58778e-14
5.24822e-14
6.03577e-14
6.96677e-14
8.06043e-14
9.33913e-14
1.08288e-13
1.25592e-13
1.45646e-13
1.68844e-13
1.9563e-13
2.26516e-13
2.62078e-13
3.02972e-13
3.4994e-13
4.03817e-13
4.65549e-13
5.36195e-13
6.16949e-13
7.09149e-13
8.1429e-13
9.34046e-13
1.07028e-12
1.22508e-12
1.40074e-12
1.59983e-12
1.82519e-12
2.07996e-12
2.36757e-12
2.69185e-12
3.05697e-12
3.4675e-12
3.92846e-12
4.44529e-12
5.02395e-12
5.67087e-12
6.39304e-12
7.198e-12
8.09386e-12
9.08935e-12
1.01938e-11
1.14172e-11
1.27701e-11
1.42638e-11
1.59102e-11
1.77217e-11
1.97116e-11
2.18936e-11
2.42818e-11
2.68912e-11
2.9737e-11
3.28348e-11
3.62006e-11
3.98505e-11
4.38009e-11
4.80679e-11
5.26678e-11
5.76165e-11
6.29293e-11
6.86212e-11
7.47062e-11
8.11974e-11
8.81066e-11
9.54446e-11
1.0322e-10
1.11441e-10
1.20111e-10
1.29234e-10
1.38811e-10
1.4884e-10
1.59315e-10
1.70229e-10
1.81571e-10
1.93328e-10
2.0548e-10
2.18009e-10
2.30889e-10
2.44094e-10
2.57591e-10
2.71348e-10
2.85326e-10
2.99485e-10
3.13781e-10
3.28169e-10
3.426e-10
3.57023e-10
3.71387e-10
3.85636e-10
3.99717e-10
4.13574e-10
4.27151e-10
4.40392e-10
4.53242e-10
4.65647e-10
4.77554e-10
4.88911e-10
4.99671e-10
5.09785e-10
5.19211e-10
5.27907e-10
5.35837e-10
5.42967e-10
5.49268e-10
5.54712e-10
5.5928e-10
5.62952e-10
5.65716e-10
5.67564e-10
5.68489e-10
5.68491e-10
5.67575e-10
5.65746e-10
5.63017e-10
5.59402e-10
5.5492e-10
5.49592e-10
5.43443e-10
5.365e-10
5.28793e-10
5.20356e-10
5.11223e-10
5.01431e-10
4.91018e-10
4.80024e-10
4.68492e-10
4.56463e-10
4.43981e-10
4.31091e-10
4.17838e-10
4.04268e-10
3.90425e-10
3.76357e-10
3.62108e-10
3.47726e-10
3.33255e-10
3.18741e-10
3.04227e-10
2.89758e-10
2.75377e-10