/*--------------------------------*- C++ -*----------------------------------*\
| =========                 |                                                 |
| \\      /  F ield         | OpenFOAM: The Open Source CFD Toolbox           |
|  \\    /   O peration     | Version:  v2012                                 |
|   \\  /    A nd           | Website:  www.openfoam.com                      |
|    \\/     M anipulation  |                                                 |
\*---------------------------------------------------------------------------*/
FoamFile
{
    version     2.0;
    format      ascii;
    class       volVectorField;
    location    "0";
    object      uRec;
}
// * * * * * * * * * * * * * * * * * * * * * * * * * * * * * * * * * * * * * //

dimensions      [0 1 -1 0 0 0 0];


internalField   nonuniform List<vector> 
4000
(
(1 1.38825e-15 0)
(1 8.99496e-16 0)
(1 -1.60558e-15 0)
(1 -7.89101e-17 0)
(1 3.51317e-16 0)
(1 -1.90923e-16 0)
(1 2.56816e-15 0)
(1 -1.08467e-15 0)
(1 3.44092e-15 0)
(1 1.2258e-16 0)
(1 -3.65412e-15 0)
(1 8.11038e-17 0)
(1 1.3813e-15 0)
(1 9.01341e-16 0)
(1 -1.27113e-15 0)
(1 5.69706e-16 0)
(1 -5.95301e-16 0)
(1 -5.93974e-16 0)
(1 1.76599e-15 0)
(1 1.83432e-15 0)
(1 4.32517e-16 0)
(1 2.39101e-15 0)
(1 -1.28422e-15 0)
(1 1.68126e-15 0)
(1 -9.79591e-16 0)
(1 -6.56618e-16 0)
(1 6.90836e-16 0)
(1 -1.76231e-15 0)
(1 -2.26455e-16 0)
(1 -4.54088e-16 0)
(1 1.34322e-15 0)
(1 2.25108e-15 0)
(1 -8.43203e-16 0)
(1 -9.25256e-16 0)
(1 2.69828e-17 0)
(1 -1.13784e-15 0)
(1 -9.12344e-16 0)
(1 1.54713e-15 0)
(1 1.65437e-15 0)
(1 -9.84849e-16 0)
(1 6.02162e-16 0)
(1 -2.05865e-15 0)
(1 -5.00857e-16 0)
(1 1.99902e-15 0)
(1 2.00434e-15 0)
(1 -1.22835e-15 0)
(1 9.64192e-16 0)
(1 -2.29383e-16 0)
(1 4.52383e-16 0)
(1 -5.40519e-17 0)
(1 -2.98626e-16 0)
(1 7.80863e-16 0)
(1 5.29045e-16 0)
(1 3.0225e-15 0)
(1 1.91454e-15 0)
(1 1.996e-15 0)
(1 6.02289e-16 0)
(1 -6.95412e-17 0)
(1 2.79649e-16 0)
(1 8.87555e-16 0)
(1 -1.22076e-15 0)
(1 -1.5354e-15 0)
(1 -9.16213e-16 0)
(1 7.2796e-16 0)
(1 7.02519e-16 0)
(1 5.77775e-16 0)
(1 -1.81876e-17 0)
(1 -4.52052e-16 0)
(1 5.34177e-16 0)
(1 -9.92442e-16 0)
(1 -3.84928e-16 0)
(1 3.18437e-16 0)
(1 -4.43018e-16 0)
(1 -2.88181e-16 0)
(1 -1.11943e-15 0)
(1 -1.64357e-15 0)
(1 -4.50089e-16 0)
(1 -1.59621e-16 0)
(1 1.71549e-16 0)
(1 8.97791e-16 0)
(1 8.19255e-16 0)
(1 1.49841e-15 0)
(1 -1.03589e-15 0)
(1 1.25342e-16 0)
(1 -1.1834e-15 0)
(1 -9.18395e-16 0)
(1 9.7868e-16 0)
(1 8.52972e-16 0)
(1 6.80945e-16 0)
(1 9.09076e-16 0)
(1 1.76764e-16 0)
(1 -1.77793e-16 0)
(1 1.36362e-15 0)
(1 1.69901e-15 0)
(1 -3.87604e-16 0)
(1 -7.86858e-16 0)
(1 4.62364e-16 0)
(1 6.33706e-16 0)
(1 -4.85897e-16 0)
(1 -4.07461e-16 0)
(1 8.39443e-16 0)
(1 2.83728e-15 0)
(1 -1.81081e-15 0)
(1 -4.77873e-16 0)
(1 -1.08454e-15 0)
(1 1.11255e-15 0)
(1 2.75144e-15 0)
(1 -4.16364e-16 0)
(1 3.5069e-15 0)
(1 1.63259e-15 0)
(1 -1.46915e-15 0)
(1 -9.30962e-16 0)
(1 4.79534e-16 0)
(1 -7.12387e-16 0)
(1 -1.66776e-15 0)
(1 2.85504e-15 0)
(1 8.96845e-16 0)
(1 6.09635e-16 0)
(1 2.18994e-15 0)
(1 1.91238e-15 0)
(1 4.05288e-16 0)
(1 1.59024e-15 0)
(1 -1.21767e-15 0)
(1 1.25916e-15 0)
(1 -1.09233e-15 0)
(1 2.4368e-16 0)
(1 2.83798e-15 0)
(1 -2.6483e-15 0)
(1 -8.30288e-17 0)
(1 4.57721e-16 0)
(1 -1.04213e-16 0)
(1 2.48494e-15 0)
(1 -2.2687e-15 0)
(1 -6.88456e-16 0)
(1 1.26592e-15 0)
(1 -4.13042e-16 0)
(1 1.02878e-15 0)
(1 3.46576e-15 0)
(1 8.81705e-17 0)
(1 -1.78403e-15 0)
(1 -1.7954e-15 0)
(1 -1.95706e-15 0)
(1 -6.19817e-16 0)
(1 2.18642e-15 0)
(1 1.75759e-15 0)
(1 -4.58046e-16 0)
(1 2.82391e-15 0)
(1 2.68549e-15 0)
(1 3.03314e-15 0)
(1 1.83347e-15 0)
(1 1.23238e-15 0)
(1 1.02335e-16 0)
(1 1.52177e-15 0)
(1 1.12385e-15 0)
(1 1.74361e-15 0)
(1 6.55808e-16 0)
(1 1.56725e-15 0)
(1 2.04734e-15 0)
(1 1.47145e-15 0)
(1 -1.1678e-15 0)
(1 6.03702e-16 0)
(1 7.4278e-16 0)
(1 -2.94809e-16 0)
(1 9.28534e-16 0)
(1 1.71806e-16 0)
(1 1.82198e-15 0)
(1 -1.53467e-15 0)
(1 -1.11615e-15 0)
(1 1.08771e-15 0)
(1 -6.93622e-16 0)
(1 -9.39045e-16 0)
(1 2.9861e-16 0)
(1 1.57366e-15 0)
(1 1.44312e-16 0)
(1 6.13444e-16 0)
(1 -7.18352e-16 0)
(1 4.43247e-16 0)
(1 1.34706e-15 0)
(1 -1.40081e-16 0)
(1 2.18268e-15 0)
(1 1.66865e-15 0)
(1 1.40142e-15 0)
(1 7.69499e-16 0)
(1 -6.65236e-16 0)
(1 -5.10173e-16 0)
(1 -1.26334e-15 0)
(1 -1.12723e-16 0)
(1 8.70005e-16 0)
(1 1.04929e-15 0)
(1 2.07884e-15 0)
(1 4.98922e-16 0)
(1 -5.94072e-16 0)
(1 2.7631e-15 0)
(1 2.19045e-15 0)
(1 -1.86819e-15 0)
(1 -7.74272e-16 0)
(1 1.14225e-15 0)
(1 -5.41207e-16 0)
(1 -1.24065e-15 0)
(1 -1.04455e-15 0)
(1 -1.28676e-15 0)
(1 3.61218e-15 0)
(1 -1.29389e-15 0)
(1 5.08235e-16 0)
(1 -7.61055e-16 0)
(1 1.431e-15 0)
(1 2.59196e-15 0)
(1 5.38968e-15 0)
(1 -6.55536e-16 0)
(1 -5.96724e-16 0)
(1 7.57173e-16 0)
(1 1.92636e-15 0)
(1 1.91604e-15 0)
(1 -4.82648e-16 0)
(1 5.59422e-17 0)
(1 1.73342e-15 0)
(1 2.53469e-15 0)
(1 3.17831e-15 0)
(1 7.04794e-16 0)
(1 1.20092e-15 0)
(1 2.65073e-16 0)
(1 -2.19023e-15 0)
(1 2.55629e-16 0)
(1 1.32188e-16 0)
(1 3.51856e-15 0)
(1 2.88318e-15 0)
(1 3.05911e-15 0)
(1 -1.81278e-15 0)
(1 7.48997e-17 0)
(1 1.09511e-15 0)
(1 7.41197e-17 0)
(1 -1.52284e-15 0)
(1 -2.30699e-16 0)
(1 3.65578e-16 0)
(1 -5.46649e-16 0)
(1 9.58082e-16 0)
(1 -3.26766e-16 0)
(1 3.22548e-15 0)
(1 2.8194e-15 0)
(1 -1.75405e-15 0)
(1 -5.48156e-16 0)
(1 -1.67293e-16 0)
(1 6.94415e-16 0)
(1 1.58996e-16 0)
(1 1.45782e-15 0)
(1 6.98325e-16 0)
(1 1.92757e-15 0)
(1 4.85902e-15 0)
(1 4.38927e-15 0)
(1 2.64636e-15 0)
(1 3.9043e-15 0)
(1 1.23351e-15 0)
(1 2.60912e-15 0)
(1 -1.13825e-15 0)
(1 1.57795e-15 0)
(1 8.82874e-16 0)
(1 3.13608e-15 0)
(1 3.7915e-15 0)
(1 4.6981e-15 0)
(1 1.00784e-15 0)
(1 -1.8775e-16 0)
(1 1.27269e-15 0)
(1 8.71453e-16 0)
(1 -1.10878e-15 0)
(1 -4.05199e-16 0)
(1 4.02973e-16 0)
(1 -4.82075e-16 0)
(1 2.33609e-16 0)
(1 2.05537e-15 0)
(1 4.25009e-16 0)
(1 6.49235e-16 0)
(1 -3.84603e-16 0)
(1 -4.04101e-16 0)
(1 -1.80998e-15 0)
(1 6.12579e-16 0)
(1 -4.92238e-16 0)
(1 6.97341e-16 0)
(1 9.15565e-16 0)
(1 1.09076e-15 0)
(1 2.48273e-16 0)
(1 -6.70813e-17 0)
(1 1.49785e-15 0)
(1 2.11623e-15 0)
(1 3.58696e-17 0)
(1 -1.8385e-16 0)
(1 3.32048e-16 0)
(1 -1.04669e-15 0)
(1 9.48623e-16 0)
(1 7.48898e-16 0)
(1 2.49675e-15 0)
(1 1.24012e-15 0)
(1 1.01028e-15 0)
(1 3.56665e-16 0)
(1 1.82165e-15 0)
(1 -7.19575e-16 0)
(1 7.96871e-16 0)
(1 1.55517e-15 0)
(1 -2.07144e-15 0)
(1 -4.08083e-16 0)
(1 -6.75807e-16 0)
(1 -4.82706e-16 0)
(1 1.89094e-15 0)
(1 9.05762e-17 0)
(1 -1.54972e-15 0)
(1 2.07795e-15 0)
(1 4.16526e-16 0)
(1 3.6521e-15 0)
(1 5.21455e-15 0)
(1 1.23165e-15 0)
(1 -1.02637e-16 0)
(1 -1.43361e-15 0)
(1 3.35421e-15 0)
(1 -4.93125e-16 0)
(1 2.1399e-15 0)
(1 4.45346e-15 0)
(1 -3.39799e-16 0)
(1 2.73292e-15 0)
(1 1.5786e-15 0)
(1 -6.0996e-17 0)
(1 4.70319e-15 0)
(1 1.12507e-16 0)
(1 9.62314e-16 0)
(1 2.71585e-16 0)
(1 8.05108e-16 0)
(1 6.00587e-15 0)
(1 3.07528e-15 0)
(1 2.58682e-15 0)
(1 -1.00728e-15 0)
(1 7.84983e-16 0)
(1 1.38563e-15 0)
(1 6.50298e-16 0)
(1 -3.24478e-16 0)
(1 3.29715e-16 0)
(1 3.45332e-16 0)
(1 -1.00502e-15 0)
(1 -1.07314e-15 0)
(1 -1.41165e-15 0)
(1 -3.33286e-16 0)
(1 3.88875e-15 0)
(1 4.44806e-16 0)
(1 3.12101e-15 0)
(1 3.08943e-16 0)
(1 -2.37434e-16 0)
(1 8.55518e-16 0)
(1 3.08643e-15 0)
(1 2.98422e-15 0)
(1 1.86961e-15 0)
(1 3.93358e-15 0)
(1 4.08028e-15 0)
(1 3.34079e-15 0)
(1 4.72675e-15 0)
(1 2.95159e-15 0)
(1 2.63402e-15 0)
(1 2.33782e-15 0)
(1 3.40539e-15 0)
(1 2.66868e-15 0)
(1 4.31884e-15 0)
(1 5.20749e-15 0)
(1 4.2986e-15 0)
(1 4.41643e-15 0)
(1 1.95299e-15 0)
(1 -1.71616e-15 0)
(1 -7.62713e-16 0)
(1 -6.71791e-17 0)
(1 -2.59158e-16 0)
(1 5.10332e-16 0)
(1 4.14998e-16 0)
(1 2.3316e-15 0)
(1 2.64008e-16 0)
(1 -4.15118e-16 0)
(1 6.18421e-16 0)
(1 -1.51371e-15 0)
(1 -1.65002e-15 0)
(1 -1.8815e-15 0)
(1 -1.34821e-15 0)
(1 1.1756e-15 0)
(1 3.15428e-15 0)
(1 7.09922e-16 0)
(1 3.07799e-15 0)
(1 1.49075e-15 0)
(1 -1.70742e-15 0)
(1 2.67945e-15 0)
(1 4.98255e-16 0)
(1 1.22171e-15 0)
(1 9.0037e-16 0)
(1 -5.39607e-16 0)
(1 1.72542e-15 0)
(1 4.07451e-16 0)
(1 1.57074e-15 0)
(1 2.14946e-15 0)
(1 3.34745e-16 0)
(1 2.51894e-15 0)
(1 9.31378e-16 0)
(1 2.13927e-15 0)
(1 1.47607e-15 0)
(1 5.73634e-16 0)
(1 5.12187e-16 0)
(1 7.59566e-16 0)
(1 -1.76406e-15 0)
(1 -1.69597e-15 0)
(1 1.01669e-15 0)
(1 -5.30414e-16 0)
(1 2.81958e-15 0)
(1 -6.69706e-16 0)
(1 2.13493e-15 0)
(1 2.25809e-15 0)
(1 1.33105e-15 0)
(1 1.02713e-15 0)
(1 4.43699e-15 0)
(1 2.7923e-15 0)
(1 2.30786e-15 0)
(1 3.68817e-15 0)
(1 -3.25021e-16 0)
(1 2.71456e-16 0)
(1 2.86115e-15 0)
(1 1.87336e-15 0)
(1 4.50164e-15 0)
(1 2.74102e-15 0)
(1 1.03525e-15 0)
(1 5.1805e-16 0)
(1 8.66752e-16 0)
(1 3.37656e-15 0)
(1 1.71166e-15 0)
(1 2.5311e-15 0)
(1 -4.23484e-16 0)
(1 -3.03665e-16 0)
(1 -3.69756e-16 0)
(1 1.57159e-15 0)
(1 1.23454e-15 0)
(1 2.29343e-16 0)
(1 6.86395e-16 0)
(1 2.22538e-15 0)
(1 -1.71263e-15 0)
(1 3.49802e-15 0)
(1 -7.31472e-16 0)
(1 -2.34661e-15 0)
(1 5.89186e-16 0)
(1 -1.03072e-15 0)
(1 1.98746e-15 0)
(1 3.54347e-15 0)
(1 3.40947e-15 0)
(1 9.59359e-16 0)
(1 -1.36393e-15 0)
(1 6.6083e-16 0)
(1 3.89781e-16 0)
(1 4.89493e-15 0)
(1 4.49357e-15 0)
(1 6.27483e-15 0)
(1 4.41192e-15 0)
(1 4.13268e-15 0)
(1 3.08396e-15 0)
(1 2.14357e-15 0)
(1 1.73061e-15 0)
(1 3.57919e-15 0)
(1 3.6284e-15 0)
(1 2.70068e-15 0)
(1 3.2984e-15 0)
(1 3.39457e-15 0)
(1 1.7567e-15 0)
(1 2.59506e-15 0)
(1 5.53682e-15 0)
(1 1.16927e-15 0)
(1 1.59739e-15 0)
(1 1.36179e-15 0)
(1 1.68749e-15 0)
(1 2.4138e-15 0)
(1 2.18615e-15 0)
(1 2.7486e-15 0)
(1 -1.38828e-15 0)
(1 1.40404e-15 0)
(1 -1.73841e-15 0)
(1 -9.87073e-16 0)
(1 2.00885e-15 0)
(1 1.95524e-16 0)
(1 -2.27327e-16 0)
(1 8.98672e-16 0)
(1 2.67314e-15 0)
(1 1.51283e-15 0)
(1 1.85711e-15 0)
(1 1.08221e-15 0)
(1 8.08845e-17 0)
(1 3.67214e-16 0)
(1 7.08451e-17 0)
(1 1.89116e-16 0)
(1 2.56737e-15 0)
(1 6.81235e-16 0)
(1 2.35664e-15 0)
(1 1.16964e-15 0)
(1 1.26926e-15 0)
(1 1.21367e-15 0)
(1 1.12713e-15 0)
(1 1.60845e-15 0)
(1 3.37183e-15 0)
(1 1.74823e-15 0)
(1 3.36155e-15 0)
(1 1.18366e-15 0)
(1 -1.82059e-16 0)
(1 1.16693e-15 0)
(1 -1.40093e-15 0)
(1 -2.92429e-16 0)
(1 4.71951e-16 0)
(1 -1.43309e-15 0)
(1 3.35504e-15 0)
(1 3.10816e-15 0)
(1 6.10429e-16 0)
(1 1.90747e-15 0)
(1 5.44088e-16 0)
(1 3.13549e-15 0)
(1 2.99451e-15 0)
(1 2.91322e-15 0)
(1 5.07435e-15 0)
(1 3.45212e-15 0)
(1 1.54784e-15 0)
(1 1.14717e-15 0)
(1 1.68603e-15 0)
(1 2.75392e-15 0)
(1 1.42351e-15 0)
(1 2.20292e-15 0)
(1 7.42143e-16 0)
(1 -2.06009e-15 0)
(1 1.58735e-15 0)
(1 8.89163e-16 0)
(1 6.31482e-15 0)
(1 4.37461e-15 0)
(1 1.55752e-15 0)
(1 2.66996e-15 0)
(1 6.9254e-16 0)
(1 2.46224e-15 0)
(1 -1.79957e-15 0)
(1 2.16526e-16 0)
(1 -9.10534e-16 0)
(1 1.1068e-15 0)
(1 -4.69808e-16 0)
(1 2.20667e-15 0)
(1 -9.73846e-16 0)
(1 5.32119e-16 0)
(1 2.412e-15 0)
(1 2.40762e-15 0)
(1 1.24741e-15 0)
(1 2.4014e-15 0)
(1 2.60425e-15 0)
(1 2.90041e-15 0)
(1 2.99421e-16 0)
(1 7.77842e-17 0)
(1 2.35997e-15 0)
(1 4.2003e-15 0)
(1 4.09027e-15 0)
(1 6.35401e-15 0)
(1 6.31468e-15 0)
(1 4.75922e-15 0)
(1 2.00309e-15 0)
(1 3.54876e-15 0)
(1 4.90389e-15 0)
(1 4.57649e-15 0)
(1 2.52335e-15 0)
(1 3.70452e-15 0)
(1 4.61854e-15 0)
(1 4.24385e-15 0)
(1 4.56862e-15 0)
(1 6.41593e-15 0)
(1 2.84638e-15 0)
(1 1.42357e-15 0)
(1 1.03513e-15 0)
(1 9.90712e-16 0)
(1 2.69957e-15 0)
(1 2.76258e-15 0)
(1 4.1877e-15 0)
(1 1.66889e-15 0)
(1 1.35665e-15 0)
(1 4.41102e-16 0)
(1 1.22791e-15 0)
(1 8.73887e-16 0)
(1 2.2777e-15 0)
(1 9.31788e-17 0)
(1 2.05868e-16 0)
(1 6.58318e-16 0)
(1 1.97216e-15 0)
(1 3.20163e-15 0)
(1 -5.50634e-16 0)
(1 -7.7334e-16 0)
(1 1.25918e-15 0)
(1 1.89826e-15 0)
(1 9.48614e-16 0)
(1 1.90478e-15 0)
(1 9.10812e-16 0)
(1 7.42742e-16 0)
(1 -3.01081e-17 0)
(1 -1.114e-15 0)
(1 -1.33614e-16 0)
(1 1.19827e-15 0)
(1 2.31971e-15 0)
(1 2.3251e-15 0)
(1 3.36983e-15 0)
(1 3.82445e-15 0)
(1 4.42378e-15 0)
(1 3.41732e-15 0)
(1 1.16996e-15 0)
(1 -1.47296e-15 0)
(1 1.68637e-15 0)
(1 2.27611e-15 0)
(1 -4.70174e-17 0)
(1 4.98972e-16 0)
(1 3.16298e-15 0)
(1 1.34529e-15 0)
(1 2.32612e-15 0)
(1 2.29693e-16 0)
(1 2.30613e-15 0)
(1 6.947e-15 0)
(1 2.31909e-15 0)
(1 4.32306e-15 0)
(1 3.5603e-15 0)
(1 1.33316e-15 0)
(1 6.3549e-16 0)
(1 3.49148e-15 0)
(1 1.84383e-15 0)
(1 4.89455e-15 0)
(1 2.09289e-15 0)
(1 4.86692e-16 0)
(1 3.46446e-16 0)
(1 2.4984e-15 0)
(1 2.47035e-15 0)
(1 -2.01124e-15 0)
(1 4.75052e-15 0)
(1 -1.39206e-15 0)
(1 3.96849e-15 0)
(1 1.80042e-15 0)
(1 1.62406e-15 0)
(1 1.14576e-15 0)
(1 1.1328e-15 0)
(1 2.19423e-15 0)
(1 1.14565e-15 0)
(1 1.2998e-15 0)
(1 2.37314e-15 0)
(1 -1.35139e-15 0)
(1 -5.2079e-18 0)
(1 3.25402e-15 0)
(1 1.17864e-15 0)
(1 2.22115e-15 0)
(1 -1.47245e-15 0)
(1 3.72469e-15 0)
(1 1.91589e-15 0)
(1 2.82262e-15 0)
(1 3.22267e-15 0)
(1 1.59878e-15 0)
(1 3.21974e-15 0)
(1 4.77439e-15 0)
(1 5.96066e-15 0)
(1 3.1539e-15 0)
(1 4.38052e-15 0)
(1 4.07604e-15 0)
(1 3.01892e-15 0)
(1 3.79811e-15 0)
(1 5.3077e-15 0)
(1 5.25245e-15 0)
(1 3.46366e-15 0)
(1 3.3345e-15 0)
(1 4.70065e-15 0)
(1 5.60166e-15 0)
(1 5.65441e-15 0)
(1 5.64254e-15 0)
(1 2.30111e-15 0)
(1 3.65394e-15 0)
(1 2.07788e-15 0)
(1 2.31618e-15 0)
(1 1.2524e-15 0)
(1 7.2748e-16 0)
(1 5.09681e-16 0)
(1 2.79177e-15 0)
(1 2.60889e-15 0)
(1 2.57322e-16 0)
(1 4.17431e-15 0)
(1 2.64129e-15 0)
(1 -1.88289e-16 0)
(1 -2.76884e-16 0)
(1 -5.50568e-16 0)
(1 3.51053e-15 0)
(1 1.3373e-15 0)
(1 3.97251e-15 0)
(1 1.40437e-15 0)
(1 7.4135e-16 0)
(1 1.94814e-15 0)
(1 1.83358e-15 0)
(1 2.45587e-15 0)
(1 1.81068e-15 0)
(1 1.19544e-15 0)
(1 2.61552e-15 0)
(1 1.10893e-15 0)
(1 1.70592e-15 0)
(1 1.72799e-15 0)
(1 1.62242e-15 0)
(1 2.06213e-15 0)
(1 3.0609e-15 0)
(1 4.14611e-15 0)
(1 3.98071e-15 0)
(1 2.11022e-15 0)
(1 3.7113e-15 0)
(1 1.76495e-15 0)
(1 9.74193e-16 0)
(1 1.91217e-15 0)
(1 1.16276e-15 0)
(1 -4.47365e-16 0)
(1 1.07279e-15 0)
(1 -2.20434e-16 0)
(1 1.25802e-15 0)
(1 3.73326e-15 0)
(1 2.51771e-15 0)
(1 1.92936e-15 0)
(1 4.25275e-15 0)
(1 6.08492e-15 0)
(1 6.9975e-15 0)
(1 4.30207e-15 0)
(1 -4.64436e-16 0)
(1 2.86537e-15 0)
(1 1.62711e-15 0)
(1 2.3683e-15 0)
(1 5.30756e-15 0)
(1 3.71147e-15 0)
(1 5.30385e-15 0)
(1 2.05743e-15 0)
(1 2.07774e-16 0)
(1 1.55586e-15 0)
(1 -2.18429e-15 0)
(1 1.55433e-15 0)
(1 3.78089e-17 0)
(1 -9.30514e-16 0)
(1 -3.50233e-15 0)
(1 -1.48519e-15 0)
(1 5.62949e-16 0)
(1 4.34108e-15 0)
(1 5.30824e-15 0)
(1 6.8677e-15 0)
(1 1.54024e-15 0)
(1 2.34615e-15 0)
(1 -1.84328e-15 0)
(1 -1.16641e-15 0)
(1 7.596e-16 0)
(1 4.84925e-16 0)
(1 1.50345e-15 0)
(1 3.54409e-15 0)
(1 6.30754e-15 0)
(1 2.37486e-15 0)
(1 1.05728e-15 0)
(1 3.18078e-15 0)
(1 -1.10406e-18 0)
(1 7.81659e-16 0)
(1 5.68008e-15 0)
(1 7.38302e-15 0)
(1 5.91388e-15 0)
(1 2.67913e-15 0)
(1 4.89862e-15 0)
(1 5.98252e-15 0)
(1 4.01235e-15 0)
(1 1.81428e-15 0)
(1 6.03775e-15 0)
(1 7.59033e-15 0)
(1 8.07605e-15 0)
(1 3.91208e-15 0)
(1 3.79605e-15 0)
(1 4.74583e-15 0)
(1 1.23898e-15 0)
(1 9.85564e-16 0)
(1 5.53171e-15 0)
(1 6.38397e-15 0)
(1 5.75068e-15 0)
(1 2.59818e-15 0)
(1 2.49257e-15 0)
(1 2.28921e-15 0)
(1 1.21891e-15 0)
(1 2.5879e-15 0)
(1 2.41785e-15 0)
(1 2.37383e-15 0)
(1 1.59826e-15 0)
(1 1.21943e-15 0)
(1 -4.43451e-16 0)
(1 8.60296e-16 0)
(1 3.64269e-15 0)
(1 1.26141e-15 0)
(1 8.99485e-16 0)
(1 9.69737e-16 0)
(1 5.20384e-16 0)
(1 2.88384e-15 0)
(1 6.63136e-16 0)
(1 3.06729e-15 0)
(1 2.24128e-15 0)
(1 4.40709e-17 0)
(1 2.05026e-15 0)
(1 2.22122e-15 0)
(1 3.02052e-15 0)
(1 3.21136e-15 0)
(1 -1.4058e-16 0)
(1 1.73066e-15 0)
(1 3.13604e-15 0)
(1 4.22277e-15 0)
(1 4.05983e-15 0)
(1 3.40838e-15 0)
(1 3.56462e-15 0)
(1 7.16729e-16 0)
(1 1.36759e-15 0)
(1 2.41903e-15 0)
(1 2.34303e-15 0)
(1 -3.36591e-16 0)
(1 -4.14111e-16 0)
(1 -6.57041e-16 0)
(1 1.74691e-15 0)
(1 1.65657e-15 0)
(1 5.60278e-15 0)
(1 2.70066e-15 0)
(1 1.28249e-15 0)
(1 6.27281e-15 0)
(1 3.22649e-15 0)
(1 3.16859e-15 0)
(1 1.04901e-15 0)
(1 2.27092e-15 0)
(1 4.20006e-15 0)
(1 3.58209e-15 0)
(1 3.84193e-15 0)
(1 1.89796e-15 0)
(1 4.49e-15 0)
(1 5.15675e-15 0)
(1 6.65418e-17 0)
(1 -1.94622e-15 0)
(1 5.94618e-16 0)
(1 1.39705e-15 0)
(1 4.62265e-15 0)
(1 5.55819e-16 0)
(1 -1.65681e-15 0)
(1 9.1227e-16 0)
(1 -6.71425e-16 0)
(1 2.17378e-15 0)
(1 4.38697e-15 0)
(1 3.78727e-15 0)
(1 -1.95974e-16 0)
(1 9.40253e-16 0)
(1 -1.17568e-16 0)
(1 -1.00323e-15 0)
(1 8.01896e-16 0)
(1 2.42277e-15 0)
(1 3.99361e-15 0)
(1 3.50991e-15 0)
(1 2.66067e-15 0)
(1 1.77205e-16 0)
(1 2.06463e-15 0)
(1 3.16663e-15 0)
(1 2.60134e-15 0)
(1 6.10106e-15 0)
(1 2.35442e-15 0)
(1 5.66271e-15 0)
(1 4.82587e-15 0)
(1 2.60026e-15 0)
(1 4.9415e-15 0)
(1 5.31458e-15 0)
(1 7.02311e-15 0)
(1 4.02408e-15 0)
(1 7.15921e-15 0)
(1 8.67957e-15 0)
(1 7.4723e-15 0)
(1 6.76821e-15 0)
(1 2.39986e-15 0)
(1 6.65633e-15 0)
(1 2.89016e-15 0)
(1 5.21287e-15 0)
(1 2.98561e-15 0)
(1 3.78357e-15 0)
(1 6.56823e-15 0)
(1 -8.58097e-16 0)
(1 3.07299e-15 0)
(1 1.749e-15 0)
(1 4.2709e-16 0)
(1 6.15043e-15 0)
(1 4.42728e-15 0)
(1 4.38375e-15 0)
(1 9.03012e-16 0)
(1 2.90439e-15 0)
(1 8.80168e-16 0)
(1 1.92839e-15 0)
(1 3.24202e-15 0)
(1 1.65514e-15 0)
(1 1.51097e-15 0)
(1 2.52896e-15 0)
(1 4.03731e-15 0)
(1 3.16901e-15 0)
(1 3.0764e-15 0)
(1 1.32504e-15 0)
(1 1.62619e-15 0)
(1 -4.9291e-16 0)
(1 -6.1468e-16 0)
(1 8.25917e-16 0)
(1 1.37599e-15 0)
(1 2.17269e-15 0)
(1 1.7941e-15 0)
(1 1.47315e-15 0)
(1 2.93442e-15 0)
(1 3.33379e-15 0)
(1 4.90043e-15 0)
(1 5.07197e-15 0)
(1 4.30782e-15 0)
(1 2.65563e-15 0)
(1 2.70948e-15 0)
(1 4.15136e-15 0)
(1 3.90852e-15 0)
(1 3.94685e-16 0)
(1 6.93021e-16 0)
(1 2.62716e-15 0)
(1 2.49511e-16 0)
(1 2.56163e-15 0)
(1 -1.13574e-16 0)
(1 3.72948e-15 0)
(1 3.3498e-15 0)
(1 4.75947e-15 0)
(1 3.00308e-15 0)
(1 2.0967e-15 0)
(1 7.04687e-15 0)
(1 3.51139e-15 0)
(1 4.25453e-15 0)
(1 4.20604e-15 0)
(1 1.40272e-15 0)
(1 8.20358e-16 0)
(1 2.29021e-15 0)
(1 3.43083e-15 0)
(1 4.9715e-15 0)
(1 2.7722e-16 0)
(1 9.94604e-16 0)
(1 -4.02649e-15 0)
(1 1.04194e-15 0)
(1 2.58536e-15 0)
(1 3.24846e-15 0)
(1 5.33704e-16 0)
(1 2.0584e-15 0)
(1 2.21287e-15 0)
(1 1.44763e-16 0)
(1 3.36081e-16 0)
(1 3.19446e-15 0)
(1 2.11646e-15 0)
(1 2.51354e-15 0)
(1 2.56587e-15 0)
(1 8.08999e-16 0)
(1 -1.03069e-15 0)
(1 1.97488e-15 0)
(1 -2.13778e-16 0)
(1 -1.04124e-15 0)
(1 9.30213e-16 0)
(1 4.34879e-15 0)
(1 4.43906e-15 0)
(1 5.15287e-15 0)
(1 7.52073e-15 0)
(1 2.64904e-15 0)
(1 3.95485e-15 0)
(1 3.59194e-15 0)
(1 4.44903e-15 0)
(1 5.62137e-15 0)
(1 2.65437e-15 0)
(1 3.02164e-15 0)
(1 6.51595e-15 0)
(1 7.04998e-15 0)
(1 8.95583e-15 0)
(1 6.99232e-15 0)
(1 5.26776e-15 0)
(1 1.59717e-15 0)
(1 5.36291e-15 0)
(1 6.2707e-15 0)
(1 6.61746e-15 0)
(1 5.81617e-15 0)
(1 2.322e-15 0)
(1 3.87217e-15 0)
(1 3.7036e-15 0)
(1 1.04373e-15 0)
(1 3.38496e-15 0)
(1 3.40589e-15 0)
(1 5.43382e-15 0)
(1 5.1713e-15 0)
(1 5.11706e-15 0)
(1 2.62079e-15 0)
(1 1.3402e-15 0)
(1 1.68844e-15 0)
(1 2.18211e-15 0)
(1 1.2614e-15 0)
(1 1.89996e-15 0)
(1 8.22192e-16 0)
(1 3.34135e-15 0)
(1 2.45613e-15 0)
(1 3.39594e-15 0)
(1 2.56108e-15 0)
(1 1.18735e-15 0)
(1 2.03195e-15 0)
(1 -9.53018e-17 0)
(1 1.10843e-15 0)
(1 2.95579e-15 0)
(1 3.44942e-15 0)
(1 7.40163e-16 0)
(1 2.07623e-15 0)
(1 3.94044e-15 0)
(1 2.5846e-15 0)
(1 3.13853e-15 0)
(1 1.22183e-15 0)
(1 6.39505e-15 0)
(1 2.57877e-15 0)
(1 3.37133e-15 0)
(1 4.51686e-15 0)
(1 4.12583e-15 0)
(1 4.0926e-15 0)
(1 1.7229e-16 0)
(1 9.84015e-16 0)
(1 1.96309e-15 0)
(1 1.78906e-15 0)
(1 6.25372e-16 0)
(1 -1.59864e-15 0)
(1 4.22515e-15 0)
(1 2.40778e-15 0)
(1 4.4708e-15 0)
(1 6.92325e-15 0)
(1 3.08362e-15 0)
(1 5.55892e-15 0)
(1 1.75454e-15 0)
(1 1.72649e-15 0)
(1 1.83846e-15 0)
(1 1.43453e-16 0)
(1 4.55612e-15 0)
(1 4.2812e-15 0)
(1 4.78368e-15 0)
(1 3.7661e-15 0)
(1 -4.21089e-16 0)
(1 -7.04339e-16 0)
(1 -4.07474e-15 0)
(1 -1.43658e-16 0)
(1 -1.70579e-15 0)
(1 6.54412e-15 0)
(1 4.08684e-15 0)
(1 4.51667e-15 0)
(1 1.48594e-15 0)
(1 -1.85072e-15 0)
(1 -7.90697e-16 0)
(1 2.44052e-15 0)
(1 1.25955e-15 0)
(1 2.38972e-15 0)
(1 2.22426e-15 0)
(1 -9.96793e-16 0)
(1 3.74214e-16 0)
(1 -7.25711e-16 0)
(1 -7.62401e-16 0)
(1 4.80211e-16 0)
(1 3.94581e-15 0)
(1 3.74193e-15 0)
(1 3.34034e-15 0)
(1 3.96018e-15 0)
(1 4.83662e-15 0)
(1 5.24392e-15 0)
(1 4.15873e-15 0)
(1 4.51896e-15 0)
(1 7.76441e-15 0)
(1 4.86136e-15 0)
(1 4.99212e-15 0)
(1 4.71852e-15 0)
(1 7.103e-15 0)
(1 8.20811e-15 0)
(1 7.68066e-15 0)
(1 6.40388e-15 0)
(1 5.13116e-15 0)
(1 4.24919e-15 0)
(1 4.93047e-15 0)
(1 4.61323e-15 0)
(1 5.00188e-15 0)
(1 6.27195e-15 0)
(1 3.76795e-15 0)
(1 3.2036e-15 0)
(1 5.98583e-15 0)
(1 3.23703e-15 0)
(1 3.10657e-15 0)
(1 3.22263e-15 0)
(1 -1.92956e-15 0)
(1 1.78811e-15 0)
(1 3.85203e-15 0)
(1 5.91544e-15 0)
(1 3.31482e-15 0)
(1 2.59451e-15 0)
(1 1.49762e-15 0)
(1 -1.07282e-15 0)
(1 4.64308e-15 0)
(1 1.14742e-15 0)
(1 1.86244e-16 0)
(1 3.4051e-15 0)
(1 4.76898e-15 0)
(1 4.01373e-15 0)
(1 5.80281e-15 0)
(1 2.28567e-15 0)
(1 2.05662e-16 0)
(1 1.77109e-15 0)
(1 1.44086e-15 0)
(1 -2.87539e-16 0)
(1 -1.24936e-17 0)
(1 -4.15558e-16 0)
(1 6.38174e-15 0)
(1 2.1708e-15 0)
(1 3.48492e-15 0)
(1 2.43275e-15 0)
(1 5.11654e-15 0)
(1 3.88678e-15 0)
(1 3.61266e-15 0)
(1 3.71851e-15 0)
(1 2.36131e-15 0)
(1 2.93152e-15 0)
(1 -4.09313e-17 0)
(1 1.41598e-15 0)
(1 6.86495e-16 0)
(1 3.03801e-15 0)
(1 -1.03529e-15 0)
(1 4.4416e-15 0)
(1 1.48292e-15 0)
(1 3.30022e-15 0)
(1 2.93086e-15 0)
(1 4.65702e-15 0)
(1 4.61276e-15 0)
(1 1.24547e-15 0)
(1 2.57215e-15 0)
(1 3.25192e-15 0)
(1 3.78423e-15 0)
(1 1.42287e-15 0)
(1 2.49071e-15 0)
(1 -1.63875e-16 0)
(1 5.9784e-15 0)
(1 7.44706e-16 0)
(1 2.07584e-16 0)
(1 2.75977e-15 0)
(1 2.66125e-15 0)
(1 3.38712e-16 0)
(1 9.72519e-16 0)
(1 1.29681e-15 0)
(1 3.59728e-15 0)
(1 2.29495e-15 0)
(1 2.28759e-15 0)
(1 -4.73085e-16 0)
(1 6.32053e-16 0)
(1 1.22785e-15 0)
(1 -1.67474e-15 0)
(1 -5.39389e-16 0)
(1 -8.84885e-16 0)
(1 7.51499e-16 0)
(1 9.86578e-16 0)
(1 -9.68034e-16 0)
(1 1.30578e-15 0)
(1 2.67469e-15 0)
(1 5.12373e-15 0)
(1 3.66584e-15 0)
(1 1.65399e-15 0)
(1 6.05685e-15 0)
(1 5.01476e-15 0)
(1 3.6622e-15 0)
(1 5.04689e-15 0)
(1 1.4223e-15 0)
(1 6.26772e-15 0)
(1 4.79773e-15 0)
(1 5.6376e-15 0)
(1 6.30742e-15 0)
(1 6.35579e-15 0)
(1 7.30835e-15 0)
(1 6.31538e-15 0)
(1 1.48928e-15 0)
(1 4.36159e-15 0)
(1 5.3702e-15 0)
(1 5.4188e-15 0)
(1 3.91383e-15 0)
(1 7.01847e-15 0)
(1 6.2391e-15 0)
(1 7.868e-15 0)
(1 3.8973e-15 0)
(1 3.46549e-15 0)
(1 4.72429e-15 0)
(1 1.62478e-15 0)
(1 2.39998e-15 0)
(1 1.17037e-15 0)
(1 1.52826e-15 0)
(1 5.00335e-15 0)
(1 4.12512e-15 0)
(1 -1.17309e-16 0)
(1 1.2342e-15 0)
(1 1.49029e-15 0)
(1 -6.55651e-16 0)
(1 1.33573e-15 0)
(1 1.89181e-15 0)
(1 1.2117e-15 0)
(1 5.25472e-15 0)
(1 4.99604e-15 0)
(1 3.59562e-15 0)
(1 4.60395e-15 0)
(1 2.66211e-16 0)
(1 2.47943e-15 0)
(1 3.24984e-15 0)
(1 -1.04557e-16 0)
(1 3.63243e-18 0)
(1 2.17944e-15 0)
(1 3.75965e-15 0)
(1 4.25784e-15 0)
(1 1.08835e-15 0)
(1 1.49603e-15 0)
(1 3.1292e-15 0)
(1 3.19069e-15 0)
(1 5.84742e-15 0)
(1 4.50818e-15 0)
(1 4.04135e-15 0)
(1 2.09442e-15 0)
(1 1.06072e-15 0)
(1 1.53049e-16 0)
(1 1.18914e-15 0)
(1 1.2861e-16 0)
(1 -2.68006e-17 0)
(1 2.34051e-15 0)
(1 2.06014e-15 0)
(1 1.36765e-15 0)
(1 2.91048e-15 0)
(1 1.79326e-15 0)
(1 4.48078e-15 0)
(1 5.19983e-15 0)
(1 8.72786e-16 0)
(1 2.26765e-15 0)
(1 2.28118e-15 0)
(1 4.55977e-15 0)
(1 2.29992e-15 0)
(1 3.00215e-16 0)
(1 2.22987e-15 0)
(1 5.43928e-15 0)
(1 4.77339e-15 0)
(1 4.71249e-15 0)
(1 3.85954e-15 0)
(1 -1.94213e-15 0)
(1 -4.05287e-15 0)
(1 3.31997e-15 0)
(1 -6.3622e-16 0)
(1 -2.82191e-16 0)
(1 6.54452e-16 0)
(1 3.15164e-15 0)
(1 2.01369e-15 0)
(1 -1.15058e-15 0)
(1 -3.88537e-17 0)
(1 -1.94228e-15 0)
(1 -2.82694e-15 0)
(1 2.73569e-15 0)
(1 2.13789e-16 0)
(1 1.79617e-15 0)
(1 -2.10161e-15 0)
(1 1.8623e-15 0)
(1 3.65951e-15 0)
(1 5.22991e-15 0)
(1 4.23841e-15 0)
(1 1.52997e-15 0)
(1 4.84457e-15 0)
(1 2.62929e-15 0)
(1 6.28448e-15 0)
(1 5.35015e-15 0)
(1 5.18908e-15 0)
(1 2.74283e-15 0)
(1 5.248e-15 0)
(1 6.05194e-15 0)
(1 4.75521e-15 0)
(1 7.59687e-15 0)
(1 6.94907e-15 0)
(1 5.61793e-15 0)
(1 5.96817e-15 0)
(1 4.66029e-15 0)
(1 5.83956e-15 0)
(1 1.09342e-15 0)
(1 3.55755e-15 0)
(1 2.34118e-15 0)
(1 3.70007e-15 0)
(1 4.63022e-15 0)
(1 4.6294e-15 0)
(1 5.81164e-15 0)
(1 5.06575e-15 0)
(1 5.2302e-15 0)
(1 3.49187e-15 0)
(1 3.31014e-15 0)
(1 1.84421e-15 0)
(1 -2.64056e-15 0)
(1 4.22814e-16 0)
(1 1.53555e-15 0)
(1 2.91839e-15 0)
(1 2.53097e-15 0)
(1 2.65226e-15 0)
(1 -4.10604e-16 0)
(1 2.27396e-15 0)
(1 4.40058e-15 0)
(1 1.41141e-15 0)
(1 1.28151e-15 0)
(1 1.33733e-15 0)
(1 1.69509e-15 0)
(1 2.34832e-15 0)
(1 3.80629e-15 0)
(1 2.44906e-15 0)
(1 1.62421e-15 0)
(1 3.63184e-15 0)
(1 3.04935e-15 0)
(1 5.09025e-15 0)
(1 9.68162e-16 0)
(1 2.26332e-15 0)
(1 2.54835e-15 0)
(1 1.38895e-15 0)
(1 3.55006e-15 0)
(1 3.86226e-15 0)
(1 1.31168e-15 0)
(1 2.23336e-15 0)
(1 1.20766e-15 0)
(1 1.92262e-16 0)
(1 5.33635e-16 0)
(1 3.26319e-16 0)
(1 5.29077e-16 0)
(1 5.77796e-16 0)
(1 3.15684e-15 0)
(1 1.80586e-15 0)
(1 2.31344e-15 0)
(1 1.06801e-15 0)
(1 1.80765e-15 0)
(1 4.4213e-15 0)
(1 4.8558e-15 0)
(1 3.94713e-15 0)
(1 1.83757e-15 0)
(1 7.70702e-16 0)
(1 4.15323e-16 0)
(1 4.08762e-15 0)
(1 1.42355e-15 0)
(1 4.60543e-15 0)
(1 -9.29073e-16 0)
(1 2.91653e-15 0)
(1 3.74654e-15 0)
(1 4.56264e-15 0)
(1 -5.34739e-16 0)
(1 -9.64391e-16 0)
(1 -4.35264e-16 0)
(1 2.13163e-15 0)
(1 2.28778e-15 0)
(1 3.33747e-17 0)
(1 3.22322e-15 0)
(1 8.83041e-16 0)
(1 -1.87567e-16 0)
(1 -4.12661e-15 0)
(1 -9.56158e-16 0)
(1 -4.80653e-16 0)
(1 -2.12544e-15 0)
(1 -9.48627e-16 0)
(1 2.21187e-15 0)
(1 -9.21155e-16 0)
(1 3.48736e-15 0)
(1 1.01919e-15 0)
(1 1.28952e-15 0)
(1 2.06747e-15 0)
(1 7.53392e-15 0)
(1 5.39762e-15 0)
(1 4.06086e-15 0)
(1 6.65417e-15 0)
(1 1.95774e-15 0)
(1 7.27129e-15 0)
(1 1.14902e-15 0)
(1 2.30689e-15 0)
(1 1.29598e-15 0)
(1 3.56015e-15 0)
(1 8.28968e-15 0)
(1 8.42219e-15 0)
(1 3.90025e-15 0)
(1 9.5485e-15 0)
(1 5.50005e-15 0)
(1 5.50689e-15 0)
(1 3.05211e-15 0)
(1 4.41669e-15 0)
(1 3.37723e-15 0)
(1 2.62558e-15 0)
(1 2.17471e-15 0)
(1 7.04676e-15 0)
(1 3.02056e-15 0)
(1 3.69386e-15 0)
(1 5.41392e-15 0)
(1 4.15771e-15 0)
(1 2.27285e-15 0)
(1 1.3185e-15 0)
(1 -2.25735e-15 0)
(1 3.83164e-15 0)
(1 3.67304e-15 0)
(1 3.2379e-15 0)
(1 1.54499e-15 0)
(1 4.35816e-15 0)
(1 1.7355e-15 0)
(1 3.69282e-15 0)
(1 2.04777e-15 0)
(1 -1.13069e-15 0)
(1 1.84454e-15 0)
(1 2.55983e-15 0)
(1 -3.02537e-17 0)
(1 3.24651e-15 0)
(1 2.80962e-15 0)
(1 1.8431e-15 0)
(1 1.51214e-15 0)
(1 3.89871e-15 0)
(1 2.76382e-15 0)
(1 3.15128e-15 0)
(1 2.7771e-15 0)
(1 2.49318e-15 0)
(1 2.91546e-15 0)
(1 4.00721e-15 0)
(1 2.18609e-15 0)
(1 2.95894e-15 0)
(1 1.23817e-15 0)
(1 3.2224e-15 0)
(1 3.30097e-16 0)
(1 -6.37579e-16 0)
(1 1.36736e-16 0)
(1 1.30864e-15 0)
(1 2.3243e-16 0)
(1 2.04754e-15 0)
(1 1.17695e-15 0)
(1 3.25272e-15 0)
(1 8.29804e-17 0)
(1 1.29056e-15 0)
(1 3.55826e-15 0)
(1 -1.71911e-17 0)
(1 5.97991e-15 0)
(1 5.63929e-15 0)
(1 5.08334e-15 0)
(1 -1.20362e-15 0)
(1 -8.83269e-16 0)
(1 3.22824e-15 0)
(1 -1.16112e-15 0)
(1 4.67887e-15 0)
(1 -2.22967e-15 0)
(1 2.93295e-15 0)
(1 5.37057e-15 0)
(1 1.19332e-15 0)
(1 4.12319e-15 0)
(1 -1.74408e-16 0)
(1 -2.8767e-15 0)
(1 -2.24891e-15 0)
(1 -7.21376e-16 0)
(1 4.71115e-16 0)
(1 1.30545e-15 0)
(1 -4.91033e-16 0)
(1 -3.15468e-16 0)
(1 -6.09779e-16 0)
(1 2.81425e-16 0)
(1 5.10311e-16 0)
(1 -1.41875e-15 0)
(1 1.0554e-15 0)
(1 -1.99331e-15 0)
(1 9.40113e-16 0)
(1 2.86613e-15 0)
(1 -6.00347e-16 0)
(1 -6.85486e-16 0)
(1 1.29672e-15 0)
(1 7.38346e-15 0)
(1 3.82233e-15 0)
(1 5.81833e-15 0)
(1 3.62612e-15 0)
(1 -6.29727e-16 0)
(1 3.86322e-15 0)
(1 2.20086e-15 0)
(1 1.19288e-15 0)
(1 2.68842e-15 0)
(1 5.89655e-15 0)
(1 8.3867e-15 0)
(1 7.75905e-15 0)
(1 7.43852e-15 0)
(1 8.07532e-15 0)
(1 4.3597e-15 0)
(1 6.09953e-15 0)
(1 4.58771e-15 0)
(1 3.05348e-15 0)
(1 4.6978e-15 0)
(1 2.0016e-15 0)
(1 5.2047e-15 0)
(1 3.40573e-15 0)
(1 4.60122e-15 0)
(1 4.44838e-15 0)
(1 4.49735e-15 0)
(1 3.7107e-15 0)
(1 4.00761e-15 0)
(1 2.36995e-15 0)
(1 4.00567e-15 0)
(1 1.52475e-15 0)
(1 7.41383e-16 0)
(1 1.65535e-15 0)
(1 9.89729e-16 0)
(1 2.23442e-15 0)
(1 1.76372e-15 0)
(1 3.63505e-15 0)
(1 2.35365e-16 0)
(1 -1.51944e-15 0)
(1 2.66475e-15 0)
(1 2.02177e-15 0)
(1 3.67712e-16 0)
(1 2.32298e-15 0)
(1 1.67144e-15 0)
(1 2.35677e-15 0)
(1 1.70912e-15 0)
(1 4.07282e-15 0)
(1 2.64961e-15 0)
(1 1.45143e-15 0)
(1 1.85109e-15 0)
(1 1.43288e-15 0)
(1 2.15399e-15 0)
(1 3.75361e-15 0)
(1 2.65099e-15 0)
(1 1.50793e-15 0)
(1 -9.08597e-17 0)
(1 1.80832e-15 0)
(1 2.12753e-15 0)
(1 2.01384e-15 0)
(1 -2.277e-16 0)
(1 1.56593e-15 0)
(1 1.4124e-15 0)
(1 7.57425e-16 0)
(1 3.79113e-15 0)
(1 2.81059e-15 0)
(1 3.29688e-15 0)
(1 2.12616e-15 0)
(1 2.806e-15 0)
(1 -9.77588e-17 0)
(1 7.25543e-16 0)
(1 2.29383e-15 0)
(1 3.59328e-15 0)
(1 1.9142e-15 0)
(1 1.8845e-16 0)
(1 -2.21846e-16 0)
(1 4.92062e-16 0)
(1 2.43771e-15 0)
(1 4.92602e-15 0)
(1 5.30994e-16 0)
(1 1.56091e-16 0)
(1 -1.32387e-15 0)
(1 4.03271e-15 0)
(1 9.75321e-16 0)
(1 -2.35239e-15 0)
(1 -1.98734e-15 0)
(1 -6.53753e-16 0)
(1 2.39042e-15 0)
(1 -2.961e-15 0)
(1 -4.61567e-17 0)
(1 -2.4871e-15 0)
(1 8.40067e-16 0)
(1 -6.48835e-16 0)
(1 -1.5756e-15 0)
(1 1.89582e-16 0)
(1 -1.00606e-15 0)
(1 -1.31842e-15 0)
(1 1.62246e-18 0)
(1 -9.30858e-16 0)
(1 6.98717e-16 0)
(1 1.93386e-15 0)
(1 3.07442e-15 0)
(1 1.35041e-15 0)
(1 4.61049e-15 0)
(1 3.88993e-15 0)
(1 3.5463e-15 0)
(1 2.86839e-15 0)
(1 1.35775e-15 0)
(1 4.71984e-16 0)
(1 -1.33294e-15 0)
(1 5.47696e-15 0)
(1 9.18857e-15 0)
(1 7.75524e-15 0)
(1 5.92635e-15 0)
(1 8.55655e-15 0)
(1 5.66117e-15 0)
(1 3.60751e-15 0)
(1 4.76067e-15 0)
(1 3.00591e-15 0)
(1 2.56503e-15 0)
(1 1.89164e-15 0)
(1 3.56322e-15 0)
(1 3.51882e-15 0)
(1 -5.61592e-16 0)
(1 6.44014e-15 0)
(1 3.16448e-15 0)
(1 2.21457e-15 0)
(1 2.40789e-15 0)
(1 2.19856e-15 0)
(1 2.73837e-15 0)
(1 2.12526e-15 0)
(1 -1.42344e-15 0)
(1 1.13231e-15 0)
(1 3.24632e-15 0)
(1 1.23775e-15 0)
(1 1.60237e-15 0)
(1 1.57064e-15 0)
(1 1.81456e-15 0)
(1 1.25699e-15 0)
(1 2.33836e-15 0)
(1 -8.75964e-16 0)
(1 -6.66302e-16 0)
(1 2.2082e-15 0)
(1 1.74977e-15 0)
(1 1.87322e-15 0)
(1 1.71552e-15 0)
(1 2.54228e-15 0)
(1 4.37705e-15 0)
(1 3.78123e-15 0)
(1 2.12757e-15 0)
(1 7.69395e-16 0)
(1 1.51478e-15 0)
(1 2.25735e-15 0)
(1 2.08697e-15 0)
(1 1.30133e-15 0)
(1 -3.67349e-17 0)
(1 9.20099e-16 0)
(1 -2.11655e-16 0)
(1 2.41648e-15 0)
(1 2.68312e-15 0)
(1 -3.14455e-16 0)
(1 1.07199e-15 0)
(1 1.38584e-15 0)
(1 1.88018e-15 0)
(1 3.81282e-15 0)
(1 2.26252e-15 0)
(1 4.15751e-15 0)
(1 3.3015e-15 0)
(1 5.76418e-16 0)
(1 1.66798e-15 0)
(1 -5.98046e-16 0)