/*--------------------------------*- C++ -*----------------------------------*\
| =========                 |                                                 |
| \\      /  F ield         | OpenFOAM: The Open Source CFD Toolbox           |
|  \\    /   O peration     | Version:  v2012                                 |
|   \\  /    A nd           | Website:  www.openfoam.com                      |
|    \\/     M anipulation  |                                                 |
\*---------------------------------------------------------------------------*/
FoamFile
{
    version     2.0;
    format      ascii;
    class       volScalarField;
    location    "0";
    object      p;
}
// * * * * * * * * * * * * * * * * * * * * * * * * * * * * * * * * * * * * * //

dimensions      [0 2 -2 0 0 0 0];


internalField   nonuniform List<scalar> 
4000
(
3.76377e-13
3.69867e-13
3.71909e-13
3.82301e-13
3.85653e-13
3.78336e-13
3.8498e-13
3.86374e-13
3.85304e-13
3.8543e-13
3.86222e-13
3.83429e-13
3.7675e-13
3.68134e-13
3.51034e-13
3.50249e-13
3.43025e-13
3.42808e-13
3.38699e-13
3.32839e-13
3.26056e-13
3.29678e-13
3.22949e-13
3.26816e-13
3.26876e-13
3.16596e-13
3.11202e-13
3.11231e-13
2.99796e-13
2.96726e-13
2.76395e-13
2.80746e-13
2.90473e-13
2.89365e-13
2.83571e-13
2.86004e-13
2.77902e-13
2.58736e-13
2.47744e-13
2.48957e-13
2.54784e-13
2.55125e-13
2.55235e-13
2.53136e-13
2.48924e-13
2.54451e-13
2.43949e-13
2.34989e-13
2.31665e-13
2.34289e-13
2.24777e-13
2.19565e-13
2.16041e-13
2.13314e-13
2.04793e-13
2.07463e-13
2.08691e-13
2.05479e-13
1.99943e-13
2.01716e-13
2.0148e-13
1.92068e-13
1.92055e-13
1.86024e-13
1.73974e-13
1.66426e-13
1.6329e-13
1.56152e-13
1.52759e-13
1.53634e-13
1.48833e-13
1.38031e-13
1.31741e-13
1.30034e-13
1.42207e-13
1.3596e-13
1.44458e-13
1.40235e-13
1.32572e-13
1.21495e-13
1.11286e-13
1.09723e-13
1.07009e-13
1.06024e-13
1.08164e-13
9.58944e-14
9.06963e-14
8.6888e-14
8.2023e-14
8.43703e-14
7.54677e-14
6.99908e-14
6.45754e-14
5.4104e-14
5.68928e-14
4.56678e-14
3.37762e-14
2.32316e-14
1.50505e-14
3.34397e-15
3.76044e-13
3.70867e-13
3.75824e-13
3.81189e-13
3.81538e-13
3.77878e-13
3.87001e-13
3.86755e-13
3.8803e-13
3.89009e-13
3.81316e-13
3.77814e-13
3.77301e-13
3.64416e-13
3.52606e-13
3.56879e-13
3.48589e-13
3.41693e-13
3.35566e-13
3.3347e-13
3.33857e-13
3.30999e-13
3.17603e-13
3.2698e-13
3.24768e-13
3.19948e-13
3.12838e-13
3.05392e-13
2.99366e-13
2.90516e-13
2.84777e-13
2.84405e-13
2.84412e-13
2.86932e-13
2.8247e-13
2.81988e-13
2.78588e-13
2.65238e-13
2.53058e-13
2.50525e-13
2.52583e-13
2.5389e-13
2.55793e-13
2.50975e-13
2.49129e-13
2.52831e-13
2.41226e-13
2.37802e-13
2.34109e-13
2.31892e-13
2.21928e-13
2.18229e-13
2.16033e-13
2.14686e-13
2.10603e-13
2.06538e-13
2.06221e-13
2.05499e-13
1.99263e-13
1.98564e-13
2.04987e-13
1.95859e-13
1.93642e-13
1.82927e-13
1.76362e-13
1.67251e-13
1.58907e-13
1.55048e-13
1.51803e-13
1.54843e-13
1.50589e-13
1.39874e-13
1.36448e-13
1.30195e-13
1.39522e-13
1.35776e-13
1.43836e-13
1.37417e-13
1.28004e-13
1.22726e-13
1.13015e-13
1.11525e-13
1.12966e-13
1.06729e-13
1.01358e-13
9.83614e-14
8.94843e-14
7.98442e-14
8.25466e-14
8.35445e-14
7.74939e-14
7.65223e-14
6.81834e-14
5.4491e-14
5.17834e-14
4.54201e-14
3.47903e-14
2.49785e-14
1.60285e-14
4.46928e-15
3.74652e-13
3.70293e-13
3.72677e-13
3.79779e-13
3.84174e-13
3.81495e-13
3.86672e-13
3.84062e-13
3.87427e-13
3.87498e-13
3.77756e-13
3.75009e-13
3.75471e-13
3.66179e-13
3.53082e-13
3.54087e-13
3.5217e-13
3.44312e-13
3.32519e-13
3.29966e-13
3.32217e-13
3.32424e-13
3.19467e-13
3.21886e-13
3.24708e-13
3.25439e-13
3.16333e-13
3.06815e-13
3.01245e-13
2.89316e-13
2.85048e-13
2.84007e-13
2.83508e-13
2.84493e-13
2.86099e-13
2.82901e-13
2.78944e-13
2.62562e-13
2.56523e-13
2.54447e-13
2.51534e-13
2.5127e-13
2.52453e-13
2.50776e-13
2.4967e-13
2.5061e-13
2.44223e-13
2.34155e-13
2.31749e-13
2.33468e-13
2.24401e-13
2.20393e-13
2.12769e-13
2.12334e-13
2.10628e-13
2.08152e-13
2.01597e-13
2.07285e-13
2.00657e-13
1.97861e-13
2.02772e-13
1.98233e-13
1.88539e-13
1.83099e-13
1.75172e-13
1.70631e-13
1.62608e-13
1.55582e-13
1.51658e-13
1.48756e-13
1.46978e-13
1.39256e-13
1.31598e-13
1.33723e-13
1.37978e-13
1.34247e-13
1.39147e-13
1.38577e-13
1.3165e-13
1.24313e-13
1.15744e-13
1.09327e-13
1.13807e-13
1.08215e-13
9.94041e-14
9.75297e-14
9.52214e-14
8.22505e-14
8.47132e-14
8.25675e-14
7.60893e-14
7.08151e-14
7.01389e-14
5.67197e-14
5.15382e-14
4.40887e-14
3.74827e-14
2.64687e-14
1.86391e-14
8.01744e-15
3.7563e-13
3.73994e-13
3.75244e-13
3.76684e-13
3.79608e-13
3.7782e-13
3.8573e-13
3.8494e-13
3.86734e-13
3.85836e-13
3.77856e-13
3.7784e-13
3.71321e-13
3.60386e-13
3.60126e-13
3.58146e-13
3.48114e-13
3.42665e-13
3.34255e-13
3.23096e-13
3.308e-13
3.38285e-13
3.25758e-13
3.20099e-13
3.24752e-13
3.19344e-13
3.11325e-13
3.02882e-13
3.00508e-13
2.94459e-13
2.89214e-13
2.86412e-13
2.83776e-13
2.78998e-13
2.82959e-13
2.82119e-13
2.76196e-13
2.63744e-13
2.56236e-13
2.51857e-13
2.53589e-13
2.5451e-13
2.53968e-13
2.49537e-13
2.45268e-13
2.44293e-13
2.40271e-13
2.39364e-13
2.34707e-13
2.26117e-13
2.16306e-13
2.1743e-13
2.15962e-13
2.10934e-13
2.12441e-13
2.07071e-13
2.03087e-13
2.07232e-13
2.07479e-13
1.96679e-13
1.93858e-13
1.98372e-13
1.94584e-13
1.8356e-13
1.72551e-13
1.68266e-13
1.60013e-13
1.56009e-13
1.52345e-13
1.53356e-13
1.52555e-13
1.45996e-13
1.36115e-13
1.36638e-13
1.3266e-13
1.3344e-13
1.36207e-13
1.34538e-13
1.31552e-13
1.27189e-13
1.20574e-13
1.16867e-13
1.11511e-13
1.02262e-13
9.70853e-14
9.49272e-14
9.57166e-14
8.61852e-14
8.56478e-14
8.2456e-14
7.68165e-14
7.13576e-14
7.09632e-14
5.82169e-14
5.19101e-14
4.49483e-14
3.62192e-14
2.90032e-14
1.50037e-14
6.72644e-15
3.77496e-13
3.77457e-13
3.73172e-13
3.74416e-13
3.77088e-13
3.80689e-13
3.79283e-13
3.86394e-13
3.87102e-13
3.80142e-13
3.75074e-13
3.73777e-13
3.7525e-13
3.65934e-13
3.60979e-13
3.58953e-13
3.49521e-13
3.5023e-13
3.33144e-13
3.18815e-13
3.27285e-13
3.33097e-13
3.19138e-13
3.21325e-13
3.32684e-13
3.2245e-13
3.12826e-13
3.06266e-13
3.04775e-13
2.95626e-13
2.90594e-13
2.84837e-13
2.85056e-13
2.81321e-13
2.81106e-13
2.78013e-13
2.72585e-13
2.60845e-13
2.50403e-13
2.51465e-13
2.57056e-13
2.578e-13
2.54603e-13
2.48082e-13
2.44462e-13
2.40474e-13
2.34418e-13
2.37286e-13
2.36599e-13
2.32043e-13
2.21629e-13
2.18875e-13
2.18302e-13
2.13313e-13
2.10708e-13
2.03309e-13
2.0312e-13
2.08926e-13
2.00934e-13
1.97638e-13
1.95927e-13
1.92105e-13
1.90569e-13
1.83681e-13
1.78496e-13
1.7099e-13
1.6346e-13
1.5732e-13
1.53131e-13
1.53902e-13
1.51016e-13
1.39248e-13
1.36103e-13
1.38529e-13
1.30442e-13
1.29285e-13
1.33088e-13
1.34521e-13
1.27797e-13
1.24307e-13
1.19002e-13
1.20848e-13
1.13883e-13
1.046e-13
9.64922e-14
9.36238e-14
9.37703e-14
9.04474e-14
8.67732e-14
8.15982e-14
7.83395e-14
7.37253e-14
6.95003e-14
6.22697e-14
5.47877e-14
4.22603e-14
3.95896e-14
3.00279e-14
1.54211e-14
8.21243e-15
3.75512e-13
3.81852e-13
3.7987e-13
3.74383e-13
3.75069e-13
3.85628e-13
3.85531e-13
3.84355e-13
3.82635e-13
3.70722e-13
3.73106e-13
3.73832e-13
3.71991e-13
3.60991e-13
3.57194e-13
3.64878e-13
3.56491e-13
3.52165e-13
3.39037e-13
3.25233e-13
3.26465e-13
3.23036e-13
3.12967e-13
3.19434e-13
3.28932e-13
3.20045e-13
3.14025e-13
3.04233e-13
3.03353e-13
2.95996e-13
2.91874e-13
2.8742e-13
2.82727e-13
2.83595e-13
2.79834e-13
2.76011e-13
2.68475e-13
2.64115e-13
2.58503e-13
2.56064e-13
2.57407e-13
2.55255e-13
2.52146e-13
2.50822e-13
2.47892e-13
2.39078e-13
2.30348e-13
2.33668e-13
2.39723e-13
2.29046e-13
2.24704e-13
2.19486e-13
2.16587e-13
2.11489e-13
2.07607e-13
2.04684e-13
2.0479e-13
2.07243e-13
1.98643e-13
1.99671e-13
2.01109e-13
1.95297e-13
1.87934e-13
1.84072e-13
1.74574e-13
1.68582e-13
1.63345e-13
1.57773e-13
1.57059e-13
1.52233e-13
1.49397e-13
1.47594e-13
1.41388e-13
1.3953e-13
1.34667e-13
1.28991e-13
1.30483e-13
1.32682e-13
1.3351e-13
1.22654e-13
1.19004e-13
1.19528e-13
1.07945e-13
9.93659e-14
1.00571e-13
9.66341e-14
9.59159e-14
9.31228e-14
8.93078e-14
8.18948e-14
7.78071e-14
7.61143e-14
6.81846e-14
6.11016e-14
5.48875e-14
4.51416e-14
3.74337e-14
3.15646e-14
1.41388e-14
3.05483e-15
3.77826e-13
3.79088e-13
3.80882e-13
3.76009e-13
3.77968e-13
3.8806e-13
3.87521e-13
3.82252e-13
3.73686e-13
3.69619e-13
3.69008e-13
3.72519e-13
3.73484e-13
3.70067e-13
3.62107e-13
3.53386e-13
3.56304e-13
3.535e-13
3.39371e-13
3.24815e-13
3.16404e-13
3.26198e-13
3.28514e-13
3.27061e-13
3.33721e-13
3.20089e-13
3.06569e-13
3.04833e-13
2.97784e-13
3.01453e-13
2.93904e-13
2.8366e-13
2.87062e-13
2.81523e-13
2.77915e-13
2.70838e-13
2.68893e-13
2.72554e-13
2.63398e-13
2.55856e-13
2.52615e-13
2.48808e-13
2.46646e-13
2.53309e-13
2.50282e-13
2.39184e-13
2.33335e-13
2.39038e-13
2.38111e-13
2.30096e-13
2.2073e-13
2.25442e-13
2.23419e-13
2.11971e-13
2.06315e-13
2.05221e-13
2.05267e-13
2.01364e-13
1.99341e-13
2.01392e-13
1.9842e-13
1.98521e-13
1.93193e-13
1.81484e-13
1.70539e-13
1.65704e-13
1.61667e-13
1.55585e-13
1.47972e-13
1.50524e-13
1.56755e-13
1.51781e-13
1.46787e-13
1.42726e-13
1.39185e-13
1.329e-13
1.30979e-13
1.26626e-13
1.20078e-13
1.22232e-13
1.24405e-13
1.20158e-13
1.10838e-13
1.05439e-13
1.03898e-13
9.38269e-14
9.45216e-14
9.37967e-14
8.99596e-14
8.48282e-14
8.21479e-14
7.61936e-14
6.75119e-14
6.09087e-14
5.10718e-14
4.50323e-14
3.40217e-14
3.02616e-14
1.68332e-14
2.91794e-15
3.79454e-13
3.81975e-13
3.76454e-13
3.78852e-13
3.7955e-13
3.86897e-13
3.89765e-13
3.83057e-13
3.71347e-13
3.72697e-13
3.73239e-13
3.70474e-13
3.65948e-13
3.65406e-13
3.60345e-13
3.58331e-13
3.59169e-13
3.56257e-13
3.43817e-13
3.30094e-13
3.28783e-13
3.29851e-13
3.26991e-13
3.28677e-13
3.29302e-13
3.17868e-13
3.06393e-13
3.00465e-13
2.99227e-13
2.957e-13
2.9485e-13
2.90383e-13
2.86405e-13
2.88995e-13
2.80531e-13
2.68635e-13
2.68935e-13
2.6597e-13
2.6047e-13
2.55803e-13
2.52621e-13
2.54315e-13
2.50859e-13
2.51054e-13
2.52092e-13
2.46164e-13
2.316e-13
2.25069e-13
2.25569e-13
2.30905e-13
2.3105e-13
2.31207e-13
2.2338e-13
2.11674e-13
2.02075e-13
2.01167e-13
2.07018e-13
2.09575e-13
2.01902e-13
2.00306e-13
1.94782e-13
1.95598e-13
1.88962e-13
1.82517e-13
1.76585e-13
1.66395e-13
1.61338e-13
1.60277e-13
1.50145e-13
1.52128e-13
1.52032e-13
1.52896e-13
1.42959e-13
1.38038e-13
1.4004e-13
1.39439e-13
1.3313e-13
1.31479e-13
1.29523e-13
1.26641e-13
1.2281e-13
1.16442e-13
1.08883e-13
1.00443e-13
9.64934e-14
9.51585e-14
9.68053e-14
9.69719e-14
9.07833e-14
8.41334e-14
8.34158e-14
7.87027e-14
6.56137e-14
5.75394e-14
5.12205e-14
4.65684e-14
3.52797e-14
2.80007e-14
1.66649e-14
2.24646e-15
3.79712e-13
3.83e-13
3.73445e-13
3.70246e-13
3.82181e-13
3.86457e-13
3.87697e-13
3.83962e-13
3.74738e-13
3.76748e-13
3.70352e-13
3.61741e-13
3.61769e-13
3.6243e-13
3.61065e-13
3.6077e-13
3.59135e-13
3.53785e-13
3.4421e-13
3.3524e-13
3.34236e-13
3.3271e-13
3.3836e-13
3.31759e-13
3.19063e-13
3.11162e-13
3.10523e-13
3.07283e-13
3.0726e-13
2.97898e-13
2.93269e-13
2.89204e-13
2.86297e-13
2.83119e-13
2.83932e-13
2.76464e-13
2.63813e-13
2.62557e-13
2.65161e-13
2.59991e-13
2.50327e-13
2.50727e-13
2.44923e-13
2.46837e-13
2.52586e-13
2.47828e-13
2.34324e-13
2.32847e-13
2.30521e-13
2.28451e-13
2.23017e-13
2.25968e-13
2.15534e-13
2.1293e-13
2.11882e-13
2.06267e-13
2.07789e-13
2.06481e-13
1.99834e-13
1.98828e-13
1.98187e-13
1.94759e-13
1.84714e-13
1.79761e-13
1.7043e-13
1.65433e-13
1.58752e-13
1.56516e-13
1.50121e-13
1.51204e-13
1.548e-13
1.54223e-13
1.51965e-13
1.48995e-13
1.42213e-13
1.40598e-13
1.35414e-13
1.32033e-13
1.27421e-13
1.21377e-13
1.22387e-13
1.22174e-13
1.12246e-13
1.04379e-13
9.5604e-14
9.4489e-14
1.01242e-13
9.90714e-14
8.92032e-14
8.13959e-14
8.08217e-14
7.6039e-14
6.68641e-14
5.55574e-14
4.95239e-14
4.72314e-14
3.37532e-14
2.3052e-14
1.47852e-14
4.09084e-17
3.78183e-13
3.77272e-13
3.7628e-13
3.78097e-13
3.77307e-13
3.87428e-13
3.81145e-13
3.84979e-13
3.81581e-13
3.66095e-13
3.63785e-13
3.59701e-13
3.67829e-13
3.61486e-13
3.5802e-13
3.5793e-13
3.54943e-13
3.57456e-13
3.57875e-13
3.40061e-13
3.336e-13
3.36681e-13
3.29543e-13
3.25043e-13
3.1539e-13
3.20212e-13
3.14263e-13
3.12902e-13
3.05929e-13
2.9824e-13
2.9918e-13
2.88195e-13
2.83017e-13
2.75519e-13
2.81404e-13
2.76888e-13
2.6934e-13
2.6354e-13
2.60107e-13
2.59662e-13
2.51186e-13
2.52895e-13
2.44319e-13
2.48023e-13
2.52607e-13
2.51308e-13
2.39828e-13
2.31533e-13
2.26627e-13
2.26222e-13
2.17738e-13
2.26133e-13
2.17481e-13
2.16734e-13
2.09706e-13
2.05146e-13
2.06661e-13
2.08713e-13
2.03992e-13
2.00463e-13
2.00935e-13
1.96966e-13
1.90744e-13
1.81587e-13
1.6344e-13
1.56571e-13
1.55394e-13
1.53011e-13
1.50156e-13
1.56473e-13
1.56407e-13
1.54838e-13
1.56611e-13
1.53887e-13
1.44343e-13
1.42603e-13
1.37728e-13
1.36165e-13
1.27859e-13
1.20159e-13
1.20492e-13
1.21009e-13
1.0818e-13
1.07215e-13
1.01841e-13
9.85718e-14
9.49207e-14
8.96668e-14
8.79126e-14
8.52515e-14
7.85029e-14
7.06768e-14
6.34597e-14
5.73496e-14
4.82537e-14
4.55405e-14
3.14699e-14
1.95541e-14
7.95154e-15
1.47799e-15
3.77149e-13
3.75122e-13
3.7605e-13
3.77672e-13
3.78794e-13
3.79217e-13
3.8202e-13
3.8596e-13
3.81207e-13
3.70839e-13
3.60463e-13
3.58002e-13
3.61413e-13
3.60284e-13
3.59655e-13
3.62975e-13
3.63571e-13
3.59182e-13
3.52301e-13
3.44632e-13
3.36846e-13
3.36157e-13
3.30352e-13
3.27099e-13
3.1662e-13
3.16003e-13
3.19707e-13
3.1182e-13
3.08854e-13
3.01681e-13
2.95411e-13
2.89784e-13
2.83367e-13
2.80212e-13
2.81887e-13
2.71471e-13
2.64201e-13
2.67428e-13
2.61357e-13
2.59112e-13
2.47827e-13
2.51834e-13
2.44947e-13
2.56348e-13
2.57905e-13
2.47918e-13
2.37344e-13
2.28921e-13
2.23038e-13
2.18872e-13
2.19067e-13
2.25137e-13
2.18272e-13
2.16286e-13
2.12436e-13
2.10068e-13
2.07153e-13
2.08947e-13
2.03662e-13
1.9906e-13
2.0055e-13
1.92575e-13
1.83372e-13
1.84252e-13
1.70772e-13
1.6043e-13
1.56068e-13
1.49995e-13
1.50906e-13
1.5938e-13
1.60446e-13
1.59985e-13
1.57949e-13
1.51686e-13
1.43659e-13
1.41261e-13
1.34783e-13
1.36167e-13
1.32858e-13
1.27376e-13
1.29961e-13
1.2368e-13
1.13005e-13
1.06742e-13
9.29052e-14
9.13367e-14
9.74553e-14
9.61146e-14
9.00243e-14
8.3488e-14
7.95822e-14
6.86249e-14
6.23485e-14
5.42615e-14
5.06459e-14
4.66528e-14
2.91556e-14
1.70896e-14
-5.22367e-16
9.96635e-16
3.81088e-13
3.74995e-13
3.73389e-13
3.77439e-13
3.7765e-13
3.79023e-13
3.81974e-13
3.82624e-13
3.77079e-13
3.68171e-13
3.58748e-13
3.59137e-13
3.56063e-13
3.58043e-13
3.54464e-13
3.58085e-13
3.64766e-13
3.65247e-13
3.53946e-13
3.4486e-13
3.4171e-13
3.48589e-13
3.33631e-13
3.22715e-13
3.16663e-13
3.19271e-13
3.16539e-13
3.10078e-13
3.13412e-13
3.08986e-13
3.00463e-13
2.91316e-13
2.85001e-13
2.72116e-13
2.75654e-13
2.69656e-13
2.69233e-13
2.67533e-13
2.671e-13
2.56618e-13
2.51518e-13
2.53992e-13
2.52995e-13
2.55606e-13
2.53292e-13
2.48295e-13
2.34302e-13
2.24638e-13
2.24078e-13
2.18531e-13
2.13793e-13
2.22807e-13
2.18837e-13
2.18558e-13
2.14934e-13
2.13549e-13
2.10955e-13
2.04376e-13
2.04584e-13
1.98822e-13
2.04603e-13
2.02696e-13
1.88937e-13
1.7907e-13
1.61433e-13
1.5362e-13
1.54062e-13
1.54195e-13
1.52815e-13
1.63242e-13
1.61676e-13
1.63969e-13
1.60558e-13
1.54516e-13
1.45938e-13
1.29137e-13
1.28471e-13
1.39101e-13
1.37858e-13
1.30031e-13
1.27992e-13
1.24653e-13
1.15168e-13
1.12575e-13
1.02951e-13
9.40097e-14
8.92016e-14
9.16357e-14
8.69443e-14
8.11811e-14
7.45413e-14
6.83821e-14
6.4332e-14
5.28493e-14
4.59229e-14
4.44978e-14
2.98954e-14
1.8774e-14
3.87001e-15
-1.45118e-15
3.76723e-13
3.74222e-13
3.69334e-13
3.76797e-13
3.78112e-13
3.80005e-13
3.80884e-13
3.82148e-13
3.68897e-13
3.59126e-13
3.57264e-13
3.58363e-13
3.6374e-13
3.63287e-13
3.58125e-13
3.59139e-13
3.64982e-13
3.67461e-13
3.53192e-13
3.49343e-13
3.41657e-13
3.36829e-13
3.26239e-13
3.20858e-13
3.21944e-13
3.21104e-13
3.22115e-13
3.13463e-13
3.09334e-13
3.10587e-13
3.02769e-13
2.94828e-13
2.87296e-13
2.78601e-13
2.75603e-13
2.68381e-13
2.68009e-13
2.67648e-13
2.62878e-13
2.57694e-13
2.55264e-13
2.62158e-13
2.57897e-13
2.5263e-13
2.44914e-13
2.37377e-13
2.33602e-13
2.27546e-13
2.24e-13
2.19203e-13
2.13638e-13
2.20812e-13
2.13197e-13
2.14586e-13
2.15405e-13
2.19768e-13
2.10252e-13
2.04774e-13
2.06171e-13
1.98119e-13
1.9944e-13
1.91707e-13
1.90284e-13
1.83743e-13
1.6674e-13
1.59896e-13
1.5194e-13
1.58276e-13
1.54935e-13
1.59232e-13
1.57981e-13
1.63642e-13
1.59333e-13
1.4982e-13
1.44808e-13
1.36314e-13
1.35979e-13
1.38785e-13
1.313e-13
1.35994e-13
1.27335e-13
1.22633e-13
1.16036e-13
1.14252e-13
1.02094e-13
9.29078e-14
8.92453e-14
9.39066e-14
8.69039e-14
7.64835e-14
7.24565e-14
6.45805e-14
5.87136e-14
4.87692e-14
4.882e-14
4.49053e-14
3.11774e-14
2.1094e-14
9.41242e-15
-6.20174e-16
3.73717e-13
3.81148e-13
3.75621e-13
3.74162e-13
3.74503e-13
3.77058e-13
3.78945e-13
3.79297e-13
3.7098e-13
3.59663e-13
3.59727e-13
3.59673e-13
3.58513e-13
3.60352e-13
3.6303e-13
3.58191e-13
3.58742e-13
3.58566e-13
3.50955e-13
3.53141e-13
3.49668e-13
3.49643e-13
3.41183e-13
3.26136e-13
3.1581e-13
3.05853e-13
3.12094e-13
3.18288e-13
3.15038e-13
3.07738e-13
3.06526e-13
2.96875e-13
2.78203e-13
2.71558e-13
2.71681e-13
2.68684e-13
2.72242e-13
2.69418e-13
2.72346e-13
2.67779e-13
2.64308e-13
2.59678e-13
2.53485e-13
2.46333e-13
2.47935e-13
2.35486e-13
2.31038e-13
2.23495e-13
2.21732e-13
2.23316e-13
2.17816e-13
2.16887e-13
2.14251e-13
2.1546e-13
2.1513e-13
2.1885e-13
2.09929e-13
2.07806e-13
2.06784e-13
2.01794e-13
1.98271e-13
1.87767e-13
1.8293e-13
1.80216e-13
1.69477e-13
1.62579e-13
1.57802e-13
1.56528e-13
1.55574e-13
1.58259e-13
1.57828e-13
1.65019e-13
1.61438e-13
1.47425e-13
1.46342e-13
1.41025e-13
1.36887e-13
1.31601e-13
1.32317e-13
1.33531e-13
1.29783e-13
1.16704e-13
1.14038e-13
1.12138e-13
1.00554e-13
9.36556e-14
9.11721e-14
9.0529e-14
8.3378e-14
7.56931e-14
6.95746e-14
6.99245e-14
6.06839e-14
4.71917e-14
4.67899e-14
3.58549e-14
2.62794e-14
1.86109e-14
1.1657e-14
1.82885e-15
3.74417e-13
3.72281e-13
3.76556e-13
3.74488e-13
3.73643e-13
3.7955e-13
3.73707e-13
3.69123e-13
3.67149e-13
3.68303e-13
3.64716e-13
3.59593e-13
3.61192e-13
3.63119e-13
3.66598e-13
3.58935e-13
3.63928e-13
3.61908e-13
3.54221e-13
3.54201e-13
3.45299e-13
3.35944e-13
3.24436e-13
3.19068e-13
3.20578e-13
3.18085e-13
3.17959e-13
3.20091e-13
3.13084e-13
3.09121e-13
3.05705e-13
2.96641e-13
2.87046e-13
2.74227e-13
2.68425e-13
2.75089e-13
2.76663e-13
2.73466e-13
2.71029e-13
2.64545e-13
2.65554e-13
2.60316e-13
2.50832e-13
2.43495e-13
2.43039e-13
2.37607e-13
2.33338e-13
2.24178e-13
2.20137e-13
2.28056e-13
2.24596e-13
2.15658e-13
2.11558e-13
2.12022e-13
2.07697e-13
2.10287e-13
2.09254e-13
2.08737e-13
2.04395e-13
2.01601e-13
1.9989e-13
1.93103e-13
1.85377e-13
1.76444e-13
1.63405e-13
1.61557e-13
1.60729e-13
1.60061e-13
1.58826e-13
1.56726e-13
1.6045e-13
1.64453e-13
1.59838e-13
1.47929e-13
1.44252e-13
1.39526e-13
1.32873e-13
1.28007e-13
1.35383e-13
1.4033e-13
1.29205e-13
1.14181e-13
1.12635e-13
1.10813e-13
9.72225e-14
9.33901e-14
9.33144e-14
8.19855e-14
7.50798e-14
7.50585e-14
6.88236e-14
6.52863e-14
6.31202e-14
4.71227e-14
4.32934e-14
2.83234e-14
1.90269e-14
1.36841e-14
1.45474e-14
4.78583e-15
3.72405e-13
3.80056e-13
3.79701e-13
3.72173e-13
3.71569e-13
3.82696e-13
3.83172e-13
3.72094e-13
3.61797e-13
3.59319e-13
3.60174e-13
3.62347e-13
3.63306e-13
3.63375e-13
3.68619e-13
3.65114e-13
3.63455e-13
3.55069e-13
3.5033e-13
3.53495e-13
3.42129e-13
3.37079e-13
3.25191e-13
3.17113e-13
3.20395e-13
3.1902e-13
3.22369e-13
3.21615e-13
3.13881e-13
3.11015e-13
3.03145e-13
2.95272e-13
2.89935e-13
2.77276e-13
2.66358e-13
2.70144e-13
2.72214e-13
2.7894e-13
2.71445e-13
2.68536e-13
2.65497e-13
2.58446e-13
2.57394e-13
2.4753e-13
2.43202e-13
2.30464e-13
2.32888e-13
2.31588e-13
2.19146e-13
2.19582e-13
2.21589e-13
2.17768e-13
2.15589e-13
2.04783e-13
2.10617e-13
2.14204e-13
2.06062e-13
2.071e-13
2.03258e-13
2.01022e-13
1.94432e-13
1.91384e-13
1.82286e-13
1.76348e-13
1.63726e-13
1.56998e-13
1.55249e-13
1.60529e-13
1.61448e-13
1.61763e-13
1.64058e-13
1.68568e-13
1.6605e-13
1.52187e-13
1.41736e-13
1.34953e-13
1.33135e-13
1.31368e-13
1.3041e-13
1.30316e-13
1.29455e-13
1.1174e-13
1.11297e-13
1.06672e-13
1.03459e-13
9.68342e-14
9.3824e-14
7.89673e-14
7.53328e-14
7.23434e-14
6.76134e-14
6.15989e-14
5.46208e-14
4.69479e-14
3.94018e-14
2.72347e-14
1.71581e-14
1.4086e-14
1.29948e-14
-1.23555e-16
3.81723e-13
3.76441e-13
3.74019e-13
3.68647e-13
3.75014e-13
3.69925e-13
3.65914e-13
3.68472e-13
3.74035e-13
3.7232e-13
3.69749e-13
3.60612e-13
3.5689e-13
3.59538e-13
3.65889e-13
3.63144e-13
3.64653e-13
3.66457e-13
3.55816e-13
3.51389e-13
3.38842e-13
3.26643e-13
3.27034e-13
3.19662e-13
3.18015e-13
3.20592e-13
3.22624e-13
3.20733e-13
3.14802e-13
3.10481e-13
3.00752e-13
2.95691e-13
2.87349e-13
2.73232e-13
2.6854e-13
2.80444e-13
2.77751e-13
2.78065e-13
2.73831e-13
2.66169e-13
2.63322e-13
2.53859e-13
2.48803e-13
2.45172e-13
2.47168e-13
2.32091e-13
2.30732e-13
2.29195e-13
2.23595e-13
2.2371e-13
2.1603e-13
2.20242e-13
2.12283e-13
2.08035e-13
2.00819e-13
2.04604e-13
2.0335e-13
2.08409e-13
2.07956e-13
2.01841e-13
1.93105e-13
1.95986e-13
1.79927e-13
1.74975e-13
1.68327e-13
1.60939e-13
1.53107e-13
1.56523e-13
1.5825e-13
1.67425e-13
1.6829e-13
1.68932e-13
1.58787e-13
1.52756e-13
1.42812e-13
1.37632e-13
1.24009e-13
1.21523e-13
1.26109e-13
1.35515e-13
1.32169e-13
1.12563e-13
1.13268e-13
1.02613e-13
9.97348e-14
9.74905e-14
9.12993e-14
7.89901e-14
6.94654e-14
6.2979e-14
6.94486e-14
6.75919e-14
5.73947e-14
4.69197e-14
3.86027e-14
2.43623e-14
1.88869e-14
1.32278e-14
1.21241e-14
3.18442e-15
3.78424e-13
3.78594e-13
3.74428e-13
3.71733e-13
3.79587e-13
3.74138e-13
3.67795e-13
3.62117e-13
3.64045e-13
3.69393e-13
3.70612e-13
3.62048e-13
3.61462e-13
3.61606e-13
3.5943e-13
3.62417e-13
3.61998e-13
3.56771e-13
3.52444e-13
3.4481e-13
3.36027e-13
3.31287e-13
3.23577e-13
3.2421e-13
3.28818e-13
3.21506e-13
3.18803e-13
3.17371e-13
3.15171e-13
3.13498e-13
3.0433e-13
2.9956e-13
2.90657e-13
2.74057e-13
2.62093e-13
2.7928e-13
2.74129e-13
2.7521e-13
2.74375e-13
2.74717e-13
2.65971e-13
2.53314e-13
2.44857e-13
2.40848e-13
2.41861e-13
2.36273e-13
2.374e-13
2.2802e-13
2.20036e-13
2.22025e-13
2.20234e-13
2.19884e-13
2.08859e-13
2.0522e-13
2.06823e-13
2.10112e-13
2.02827e-13
2.00892e-13
2.00938e-13
1.97302e-13
1.92445e-13
1.94708e-13
1.77775e-13
1.72291e-13
1.63423e-13
1.65311e-13
1.56654e-13
1.56668e-13
1.61014e-13
1.63664e-13
1.68172e-13
1.71528e-13
1.61323e-13
1.53073e-13
1.43405e-13
1.31447e-13
1.21608e-13
1.27237e-13
1.24392e-13
1.26383e-13
1.19237e-13
1.17037e-13
1.10293e-13
1.05889e-13
1.01563e-13
9.16722e-14
8.56484e-14
7.7743e-14
7.16823e-14
6.47532e-14
7.00483e-14
6.50736e-14
5.60285e-14
4.88761e-14
3.49368e-14
2.74819e-14
2.14719e-14
1.60532e-14
8.39754e-15
1.21019e-15
3.75033e-13
3.79222e-13
3.77473e-13
3.73434e-13
3.73743e-13
3.67944e-13
3.66982e-13
3.66769e-13
3.71345e-13
3.67483e-13
3.6844e-13
3.65579e-13
3.5961e-13
3.58917e-13
3.55761e-13
3.5639e-13
3.5923e-13
3.5575e-13
3.51658e-13
3.49991e-13
3.37238e-13
3.30725e-13
3.22221e-13
3.22093e-13
3.20708e-13
3.19875e-13
3.22367e-13
3.18421e-13
3.15376e-13
3.07512e-13
3.03955e-13
2.96024e-13
2.8764e-13
2.79872e-13
2.65343e-13
2.81634e-13
2.82998e-13
2.78313e-13
2.7091e-13
2.63e-13
2.60801e-13
2.51584e-13
2.46103e-13
2.41218e-13
2.39523e-13
2.36345e-13
2.35299e-13
2.25948e-13
2.18804e-13
2.19733e-13
2.19898e-13
2.1785e-13
2.09373e-13
2.03856e-13
2.05089e-13
2.10879e-13
2.07462e-13
2.04511e-13
1.98796e-13
1.95477e-13
1.9307e-13
1.91905e-13
1.78021e-13
1.73151e-13
1.62444e-13
1.63144e-13
1.58117e-13
1.58913e-13
1.66283e-13
1.6352e-13
1.65331e-13
1.72619e-13
1.66877e-13
1.52599e-13
1.38994e-13
1.30122e-13
1.25006e-13
1.26084e-13
1.13918e-13
1.17755e-13
1.23861e-13
1.27292e-13
1.08348e-13
1.02799e-13
1.02501e-13
8.92907e-14
8.16589e-14
7.84111e-14
7.25502e-14
6.58123e-14
6.75926e-14
6.17546e-14
5.61367e-14
4.994e-14
4.058e-14
2.73352e-14
1.78146e-14
1.45895e-14
7.21552e-15
5.09508e-16
3.8098e-13
3.78892e-13
3.77927e-13
3.73767e-13
3.70661e-13
3.70514e-13
3.63759e-13
3.65336e-13
3.6978e-13
3.69925e-13
3.66507e-13
3.64253e-13
3.61423e-13
3.60119e-13
3.58748e-13
3.55727e-13
3.50463e-13
3.48733e-13
3.5069e-13
3.48104e-13
3.35113e-13
3.29482e-13
3.1755e-13
3.219e-13
3.19415e-13
3.20339e-13
3.24456e-13
3.17256e-13
3.1248e-13
3.08349e-13
3.01371e-13
2.96612e-13
2.9067e-13
2.81599e-13
2.66419e-13
2.73851e-13
2.7976e-13
2.77418e-13
2.70138e-13
2.60457e-13
2.57158e-13
2.52198e-13
2.50495e-13
2.4698e-13
2.43246e-13
2.38515e-13
2.27171e-13
2.24463e-13
2.25593e-13
2.21751e-13
2.19424e-13
2.21676e-13
2.10154e-13
2.06669e-13
2.04172e-13
2.0114e-13
2.04218e-13
2.0431e-13
1.97297e-13
1.914e-13
1.93997e-13
1.9026e-13
1.78266e-13
1.77246e-13
1.63412e-13
1.60066e-13
1.5843e-13
1.62162e-13
1.6512e-13
1.65406e-13
1.66354e-13
1.72928e-13
1.61437e-13
1.51802e-13
1.40595e-13
1.27575e-13
1.25009e-13
1.25214e-13
1.17532e-13
1.20999e-13
1.18925e-13
1.22649e-13
1.11797e-13
1.04471e-13
1.00513e-13
8.66244e-14
7.95902e-14
7.75076e-14
7.31049e-14
5.77162e-14
6.3064e-14
6.07343e-14
5.54279e-14
4.66732e-14
3.86709e-14
3.23711e-14
1.93762e-14
9.73511e-15
8.63191e-15
4.45548e-15
3.8419e-13
3.78079e-13
3.73246e-13
3.73926e-13
3.6731e-13
3.67529e-13
3.66828e-13
3.68518e-13
3.71302e-13
3.68933e-13
3.67265e-13
3.61471e-13
3.65569e-13
3.60585e-13
3.54379e-13
3.52838e-13
3.54724e-13
3.47731e-13
3.50882e-13
3.47626e-13
3.30301e-13
3.23866e-13
3.15207e-13
3.18136e-13
3.16534e-13
3.21037e-13
3.24194e-13
3.14042e-13
3.11902e-13
3.04898e-13
3.02179e-13
2.97527e-13
2.90078e-13
2.79554e-13
2.68941e-13
2.73758e-13
2.76828e-13
2.72698e-13
2.69903e-13
2.62757e-13
2.61017e-13
2.56292e-13
2.51694e-13
2.46003e-13
2.46569e-13
2.37076e-13
2.30786e-13
2.27509e-13
2.23859e-13
2.16589e-13
2.1695e-13
2.20884e-13
2.1178e-13
2.07495e-13
2.04805e-13
2.02004e-13
2.0297e-13
1.98129e-13
1.98472e-13
1.96511e-13
1.9355e-13
1.87009e-13
1.72292e-13
1.71311e-13
1.67347e-13
1.66431e-13
1.61642e-13
1.61239e-13
1.64786e-13
1.70153e-13
1.63954e-13
1.63471e-13
1.57502e-13
1.47801e-13
1.37693e-13
1.25883e-13
1.30863e-13
1.28721e-13
1.17961e-13
1.19381e-13
1.18684e-13
1.16182e-13
1.08786e-13
1.07264e-13
9.42904e-14
8.99688e-14
8.10144e-14
7.7568e-14
6.64011e-14
6.28821e-14
6.61126e-14
5.95594e-14
4.6294e-14
4.44229e-14
4.00953e-14
3.00482e-14
2.14368e-14
1.59119e-14
9.18331e-15
3.21188e-15
3.82978e-13
3.77578e-13
3.75934e-13
3.7435e-13
3.72336e-13
3.69546e-13
3.68368e-13
3.69289e-13
3.71293e-13
3.73887e-13
3.68326e-13
3.60888e-13
3.63243e-13
3.5119e-13
3.54008e-13
3.50031e-13
3.43029e-13
3.48399e-13
3.53031e-13
3.45659e-13
3.31935e-13
3.21177e-13
3.08257e-13
3.20687e-13
3.2775e-13
3.24737e-13
3.12864e-13
3.04335e-13
3.01498e-13
3.05597e-13
3.04894e-13
2.9809e-13
2.92696e-13
2.83053e-13
2.71105e-13
2.72057e-13
2.70123e-13
2.71793e-13
2.70773e-13
2.61631e-13
2.65565e-13
2.58973e-13
2.54954e-13
2.49207e-13
2.43934e-13
2.39701e-13
2.36262e-13
2.35193e-13
2.25662e-13
2.15849e-13
2.1839e-13
2.21747e-13
2.14688e-13
2.02826e-13
2.02704e-13
1.97513e-13
1.97021e-13
1.96546e-13
1.95131e-13
2.01376e-13
2.03589e-13
1.82483e-13
1.71969e-13
1.71517e-13
1.70039e-13
1.70839e-13
1.62519e-13
1.58829e-13
1.58552e-13
1.62105e-13
1.58514e-13
1.68202e-13
1.59708e-13
1.51985e-13
1.31487e-13
1.25062e-13
1.33909e-13
1.2549e-13
1.16785e-13
1.18259e-13
1.22323e-13
1.17355e-13
1.09738e-13
1.04195e-13
9.17299e-14
8.41546e-14
7.97596e-14
7.31999e-14
7.01011e-14
6.21549e-14
5.99218e-14
5.45902e-14
4.85942e-14
4.08766e-14
4.38435e-14
3.80473e-14
2.44294e-14
9.22625e-15
7.05456e-15
2.1975e-15
3.80829e-13
3.82457e-13
3.80886e-13
3.74778e-13
3.70996e-13
3.73182e-13
3.6664e-13
3.6647e-13
3.68707e-13
3.6745e-13
3.70547e-13
3.69687e-13
3.59222e-13
3.5141e-13
3.52767e-13
3.48144e-13
3.45572e-13
3.4716e-13
3.47794e-13
3.38682e-13
3.23078e-13
3.17112e-13
3.13155e-13
3.15796e-13
3.20397e-13
3.17286e-13
3.1307e-13
3.10971e-13
3.01625e-13
3.07258e-13
3.07979e-13
2.92031e-13
2.85565e-13
2.81069e-13
2.78378e-13
2.72412e-13
2.71464e-13
2.68719e-13
2.7115e-13
2.66507e-13
2.63301e-13
2.57729e-13
2.51369e-13
2.55787e-13
2.47341e-13
2.40072e-13
2.38572e-13
2.28112e-13
2.29894e-13
2.26726e-13
2.12963e-13
2.22853e-13
2.16278e-13
2.08742e-13
2.00592e-13
1.90852e-13
1.87973e-13
1.9577e-13
2.01995e-13
2.04087e-13
1.96961e-13
1.86192e-13
1.7437e-13
1.74201e-13
1.71865e-13
1.65377e-13
1.58762e-13
1.58446e-13
1.67771e-13
1.62534e-13
1.60547e-13
1.61949e-13
1.4749e-13
1.39993e-13
1.36631e-13
1.30029e-13
1.30307e-13
1.2573e-13
1.27983e-13
1.2068e-13
1.17642e-13
1.1119e-13
1.07231e-13
1.02935e-13
8.73671e-14
8.16044e-14
7.76315e-14
7.63245e-14
6.47385e-14
6.17344e-14
6.32638e-14
5.44494e-14
4.85467e-14
3.77896e-14
4.20799e-14
4.08998e-14
3.07264e-14
1.17797e-14
6.36008e-15
8.65943e-15
3.85538e-13
3.78292e-13
3.75653e-13
3.69614e-13
3.72904e-13
3.74122e-13
3.79711e-13
3.74521e-13
3.67995e-13
3.6126e-13
3.62614e-13
3.65972e-13
3.53667e-13
3.53874e-13
3.52056e-13
3.48672e-13
3.41706e-13
3.44025e-13
3.42593e-13
3.28494e-13
3.21898e-13
3.16868e-13
3.15293e-13
3.15023e-13
3.19208e-13
3.1716e-13
3.14192e-13
3.11082e-13
3.00951e-13
3.03805e-13
3.02462e-13
2.97154e-13
2.89169e-13
2.83935e-13
2.74005e-13
2.66501e-13
2.68953e-13
2.67869e-13
2.70248e-13
2.67493e-13
2.64265e-13
2.61911e-13
2.57637e-13
2.58255e-13
2.43663e-13
2.41533e-13
2.3701e-13
2.33939e-13
2.3003e-13
2.28353e-13
2.1497e-13
2.1958e-13
2.10687e-13
2.05463e-13
1.94763e-13
1.95768e-13
1.97052e-13
2.01083e-13
1.99558e-13
1.88444e-13
1.95184e-13
1.88117e-13
1.78448e-13
1.74109e-13
1.69131e-13
1.69059e-13
1.63504e-13
1.58493e-13
1.61957e-13
1.69164e-13
1.64443e-13
1.5842e-13
1.44564e-13
1.42422e-13
1.38145e-13
1.31384e-13
1.31244e-13
1.2636e-13
1.23341e-13
1.19487e-13
1.16772e-13
1.06007e-13
1.05242e-13
9.8837e-14
9.04984e-14
8.82474e-14
8.651e-14
7.39536e-14
6.47766e-14
6.55017e-14
6.21476e-14
5.21126e-14
4.7922e-14
3.7545e-14
4.17003e-14
3.81362e-14
3.03528e-14
1.55584e-14
8.3348e-15
1.02568e-14
3.82571e-13
3.788e-13
3.76148e-13
3.77009e-13
3.75742e-13
3.75398e-13
3.73879e-13
3.66192e-13
3.69749e-13
3.70821e-13
3.66422e-13
3.57836e-13
3.50429e-13
3.51393e-13
3.4056e-13
3.41937e-13
3.40922e-13
3.41306e-13
3.37767e-13
3.32089e-13
3.24227e-13
3.08936e-13
3.11284e-13
3.09057e-13
3.14028e-13
3.20922e-13
3.17926e-13
3.10145e-13
3.01916e-13
3.06652e-13
3.00796e-13
2.96997e-13
2.88461e-13
2.83527e-13
2.76223e-13
2.63088e-13
2.6981e-13
2.72685e-13
2.70458e-13
2.66094e-13
2.57783e-13
2.57958e-13
2.57578e-13
2.54076e-13
2.47611e-13
2.46281e-13
2.3939e-13
2.3373e-13
2.31874e-13
2.26866e-13