/*--------------------------------*- C++ -*----------------------------------*\
| =========                 |                                                 |
| \\      /  F ield         | OpenFOAM: The Open Source CFD Toolbox           |
|  \\    /   O peration     | Version:  v2012                                 |
|   \\  /    A nd           | Website:  www.openfoam.com                      |
|    \\/     M anipulation  |                                                 |
\*---------------------------------------------------------------------------*/
FoamFile
{
    version     2.0;
    format      ascii;
    class       volVectorField;
    location    "0";
    object      U;
}
// * * * * * * * * * * * * * * * * * * * * * * * * * * * * * * * * * * * * * //

dimensions      [0 1 -1 0 0 0 0];


internalField   nonuniform List<vector> 
4000
(
(1 -5.16055e-16 0)
(1 2.67196e-15 0)
(1 -2.42177e-15 0)
(1 2.2244e-15 0)
(1 1.62982e-15 0)
(1 5.80657e-16 0)
(1 -1.86128e-15 0)
(1 4.14608e-16 0)
(1 7.7139e-16 0)
(1 -6.12743e-15 0)
(1 1.5657e-17 0)
(1 2.37002e-15 0)
(1 4.24692e-15 0)
(1 2.06467e-15 0)
(1 2.11686e-15 0)
(1 2.66959e-15 0)
(1 -4.30817e-16 0)
(1 -8.03681e-15 0)
(1 -2.08508e-15 0)
(1 -6.33348e-15 0)
(1 1.74096e-16 0)
(1 -1.52972e-14 0)
(1 1.73804e-15 0)
(1 -2.55847e-15 0)
(1 3.15454e-15 0)
(1 8.63837e-16 0)
(1 -2.99515e-15 0)
(1 2.19852e-15 0)
(1 5.21419e-15 0)
(1 9.9216e-15 0)
(1 4.56261e-15 0)
(1 -6.64499e-16 0)
(1 -8.14459e-16 0)
(1 3.75283e-15 0)
(1 -1.72038e-15 0)
(1 4.54759e-15 0)
(1 5.07422e-15 0)
(1 3.59821e-15 0)
(1 -2.43929e-15 0)
(1 -2.59087e-15 0)
(1 -1.48005e-15 0)
(1 2.69415e-16 0)
(1 -1.21138e-15 0)
(1 -4.11728e-16 0)
(1 -3.27986e-15 0)
(1 -2.70308e-15 0)
(1 1.43298e-15 0)
(1 2.64379e-15 0)
(1 -1.03313e-15 0)
(1 2.16659e-15 0)
(1 1.98845e-15 0)
(1 2.74612e-15 0)
(1 4.80168e-15 0)
(1 -1.5797e-15 0)
(1 -1.60044e-15 0)
(1 -4.34203e-15 0)
(1 -3.16232e-16 0)
(1 -1.53983e-15 0)
(1 -1.84565e-15 0)
(1 2.83642e-15 0)
(1 1.56617e-15 0)
(1 1.44657e-15 0)
(1 2.35214e-15 0)
(1 6.99463e-16 0)
(1 -4.54319e-15 0)
(1 -6.61096e-16 0)
(1 -1.23227e-15 0)
(1 2.98043e-15 0)
(1 1.41274e-15 0)
(1 1.8814e-15 0)
(1 -3.95808e-15 0)
(1 7.33968e-16 0)
(1 -4.70112e-15 0)
(1 -3.00301e-15 0)
(1 -4.35187e-15 0)
(1 -1.10839e-15 0)
(1 -1.86111e-15 0)
(1 -1.72367e-15 0)
(1 4.21385e-15 0)
(1 -4.30591e-17 0)
(1 5.1041e-16 0)
(1 1.90202e-15 0)
(1 -8.68215e-16 0)
(1 -3.856e-15 0)
(1 1.4197e-15 0)
(1 -5.80618e-16 0)
(1 -1.21976e-15 0)
(1 5.72539e-15 0)
(1 7.6831e-16 0)
(1 2.60502e-15 0)
(1 1.59964e-15 0)
(1 1.10008e-15 0)
(1 -3.13793e-15 0)
(1 -4.19674e-15 0)
(1 -2.56584e-15 0)
(1 -4.19279e-16 0)
(1 1.35468e-15 0)
(1 2.33611e-15 0)
(1 -2.2881e-15 0)
(1 -2.56644e-15 0)
(1 4.46429e-15 0)
(1 -3.16493e-15 0)
(1 2.07262e-16 0)
(1 5.43824e-15 0)
(1 4.07665e-15 0)
(1 -2.67885e-15 0)
(1 -2.24622e-15 0)
(1 -3.49314e-15 0)
(1 5.33175e-15 0)
(1 -6.99394e-15 0)
(1 -4.37211e-16 0)
(1 6.43648e-15 0)
(1 5.36202e-15 0)
(1 2.88825e-15 0)
(1 4.45004e-15 0)
(1 4.92305e-15 0)
(1 2.26862e-15 0)
(1 -1.24816e-14 0)
(1 -3.38577e-15 0)
(1 -8.70125e-15 0)
(1 2.09936e-15 0)
(1 -1.5261e-14 0)
(1 1.81052e-15 0)
(1 -6.31403e-15 0)
(1 6.04195e-15 0)
(1 -7.94758e-16 0)
(1 -6.08438e-15 0)
(1 2.03816e-16 0)
(1 1.04127e-15 0)
(1 7.44864e-15 0)
(1 4.33764e-15 0)
(1 -3.54122e-15 0)
(1 -3.80287e-16 0)
(1 8.46421e-15 0)
(1 1.88168e-15 0)
(1 6.41651e-15 0)
(1 2.17754e-15 0)
(1 4.37526e-15 0)
(1 -4.27415e-15 0)
(1 -5.10175e-15 0)
(1 -4.21161e-15 0)
(1 -2.7362e-15 0)
(1 -2.72024e-15 0)
(1 -1.81725e-15 0)
(1 -4.43116e-15 0)
(1 -1.83686e-15 0)
(1 -1.64724e-15 0)
(1 1.85697e-15 0)
(1 1.58577e-15 0)
(1 3.42009e-15 0)
(1 -1.42909e-15 0)
(1 1.71371e-15 0)
(1 5.51643e-16 0)
(1 3.1027e-15 0)
(1 4.82727e-17 0)
(1 -2.65354e-15 0)
(1 -3.44057e-15 0)
(1 1.34671e-15 0)
(1 -3.06282e-15 0)
(1 2.55843e-15 0)
(1 -1.19228e-15 0)
(1 9.73765e-16 0)
(1 7.30002e-15 0)
(1 3.36178e-15 0)
(1 -9.67406e-16 0)
(1 -2.07677e-15 0)
(1 -2.69075e-15 0)
(1 -1.45488e-15 0)
(1 8.24737e-16 0)
(1 2.91214e-16 0)
(1 5.82705e-16 0)
(1 7.94252e-16 0)
(1 1.52027e-15 0)
(1 -3.27499e-17 0)
(1 -2.34903e-15 0)
(1 2.49522e-15 0)
(1 3.38941e-15 0)
(1 -4.33663e-17 0)
(1 7.63561e-15 0)
(1 2.92194e-15 0)
(1 -2.29267e-15 0)
(1 3.51138e-15 0)
(1 -3.64953e-15 0)
(1 -2.64726e-15 0)
(1 2.73696e-15 0)
(1 2.42669e-15 0)
(1 -3.34418e-15 0)
(1 9.08954e-16 0)
(1 -4.84248e-15 0)
(1 -5.03916e-16 0)
(1 -1.81593e-16 0)
(1 1.19855e-15 0)
(1 -6.03785e-15 0)
(1 -2.54057e-15 0)
(1 -1.22319e-15 0)
(1 1.56952e-15 0)
(1 1.73372e-15 0)
(1 7.64493e-15 0)
(1 -4.2487e-15 0)
(1 -4.8156e-15 0)
(1 5.71707e-15 0)
(1 -8.03033e-15 0)
(1 -3.35331e-15 0)
(1 2.26175e-16 0)
(1 2.61673e-16 0)
(1 -1.12462e-15 0)
(1 6.04853e-16 0)
(1 -6.17487e-16 0)
(1 2.48213e-15 0)
(1 3.96179e-15 0)
(1 2.19647e-15 0)
(1 8.33393e-15 0)
(1 -1.90775e-15 0)
(1 1.13891e-14 0)
(1 4.20381e-15 0)
(1 -4.58041e-15 0)
(1 -1.33148e-15 0)
(1 -6.84549e-16 0)
(1 -4.73512e-15 0)
(1 7.38658e-16 0)
(1 2.99215e-15 0)
(1 5.49742e-15 0)
(1 -8.00605e-15 0)
(1 -6.93488e-15 0)
(1 -1.84034e-15 0)
(1 3.08634e-16 0)
(1 2.17194e-15 0)
(1 3.96869e-15 0)
(1 5.39111e-15 0)
(1 6.68141e-15 0)
(1 2.63703e-15 0)
(1 -8.84641e-16 0)
(1 2.4785e-15 0)
(1 8.49461e-15 0)
(1 9.63936e-15 0)
(1 5.74213e-15 0)
(1 3.6517e-15 0)
(1 2.07485e-15 0)
(1 -6.68869e-15 0)
(1 -5.07346e-15 0)
(1 -3.08009e-15 0)
(1 -6.52166e-15 0)
(1 -1.07807e-14 0)
(1 -8.30988e-15 0)
(1 -6.55201e-15 0)
(1 2.57525e-15 0)
(1 2.68837e-15 0)
(1 1.38168e-15 0)
(1 6.12458e-17 0)
(1 1.22515e-15 0)
(1 1.19414e-15 0)
(1 4.83922e-15 0)
(1 1.6414e-15 0)
(1 4.55427e-15 0)
(1 1.44982e-15 0)
(1 7.89952e-16 0)
(1 -3.07045e-15 0)
(1 2.36711e-16 0)
(1 -4.02351e-15 0)
(1 -6.71387e-15 0)
(1 -5.30304e-16 0)
(1 1.4452e-15 0)
(1 3.47804e-15 0)
(1 1.32444e-15 0)
(1 3.32925e-15 0)
(1 6.53045e-16 0)
(1 -1.49914e-15 0)
(1 -6.31768e-17 0)
(1 1.78123e-16 0)
(1 2.06964e-15 0)
(1 4.51138e-15 0)
(1 -1.53219e-15 0)
(1 -1.27496e-15 0)
(1 -2.75542e-15 0)
(1 -3.75637e-15 0)
(1 5.07506e-16 0)
(1 9.54483e-16 0)
(1 1.16831e-16 0)
(1 1.96484e-15 0)
(1 -1.56895e-15 0)
(1 1.46071e-15 0)
(1 -5.74447e-15 0)
(1 -3.90731e-15 0)
(1 -2.06779e-15 0)
(1 5.845e-15 0)
(1 4.67873e-15 0)
(1 -1.17036e-15 0)
(1 -4.13403e-17 0)
(1 -3.87897e-15 0)
(1 -1.1263e-16 0)
(1 -3.18758e-15 0)
(1 1.81168e-15 0)
(1 -2.79619e-15 0)
(1 -4.79938e-15 0)
(1 -1.89804e-15 0)
(1 6.81325e-16 0)
(1 -1.12576e-15 0)
(1 2.99401e-15 0)
(1 7.902e-18 0)
(1 -1.5416e-15 0)
(1 5.14827e-15 0)
(1 -7.40776e-15 0)
(1 -6.86575e-15 0)
(1 -3.12211e-15 0)
(1 6.73337e-15 0)
(1 6.17465e-16 0)
(1 5.87226e-16 0)
(1 2.93986e-15 0)
(1 2.14707e-16 0)
(1 -1.01055e-15 0)
(1 8.2854e-15 0)
(1 6.62242e-15 0)
(1 3.38919e-15 0)
(1 1.06834e-14 0)
(1 4.70561e-15 0)
(1 -5.92246e-15 0)
(1 -2.30988e-15 0)
(1 -4.66238e-16 0)
(1 -5.9946e-15 0)
(1 -4.99004e-15 0)
(1 2.75075e-15 0)
(1 8.04913e-15 0)
(1 -1.87353e-15 0)
(1 5.41119e-15 0)
(1 1.34312e-15 0)
(1 2.9103e-16 0)
(1 4.5971e-15 0)
(1 4.48194e-15 0)
(1 6.61131e-15 0)
(1 5.60481e-15 0)
(1 3.48819e-15 0)
(1 -3.27083e-16 0)
(1 -2.44959e-15 0)
(1 -1.03831e-15 0)
(1 5.40112e-15 0)
(1 2.52928e-15 0)
(1 6.73028e-15 0)
(1 -3.24483e-16 0)
(1 3.07774e-16 0)
(1 1.02565e-15 0)
(1 1.61696e-15 0)
(1 -3.00193e-15 0)
(1 -8.78787e-15 0)
(1 -6.13281e-15 0)
(1 -6.77295e-15 0)
(1 -9.94685e-16 0)
(1 9.62366e-15 0)
(1 6.7098e-15 0)
(1 2.1705e-15 0)
(1 1.95135e-15 0)
(1 4.12748e-15 0)
(1 3.88936e-15 0)
(1 3.36762e-16 0)
(1 -3.76351e-15 0)
(1 -5.52041e-15 0)
(1 3.71631e-16 0)
(1 -1.00785e-15 0)
(1 -6.54176e-15 0)
(1 -5.60595e-15 0)
(1 -6.32788e-15 0)
(1 5.24486e-17 0)
(1 3.55757e-15 0)
(1 4.14013e-15 0)
(1 4.90805e-15 0)
(1 2.23942e-15 0)
(1 -1.31299e-15 0)
(1 -2.42103e-15 0)
(1 1.9566e-16 0)
(1 -1.80237e-15 0)
(1 9.48571e-17 0)
(1 -1.25198e-15 0)
(1 5.21792e-16 0)
(1 -2.67057e-15 0)
(1 -7.06411e-15 0)
(1 -2.30468e-15 0)
(1 -1.1973e-15 0)
(1 5.97218e-16 0)
(1 1.6169e-15 0)
(1 1.47852e-15 0)
(1 1.9416e-15 0)
(1 5.4239e-15 0)
(1 -3.34236e-15 0)
(1 -2.52108e-15 0)
(1 -3.32017e-15 0)
(1 -1.65639e-15 0)
(1 4.82184e-15 0)
(1 5.22356e-15 0)
(1 6.40878e-15 0)
(1 5.32035e-15 0)
(1 3.18964e-15 0)
(1 1.61449e-15 0)
(1 -9.57834e-16 0)
(1 -1.59239e-15 0)
(1 -1.89467e-15 0)
(1 -4.35292e-15 0)
(1 -4.60557e-15 0)
(1 -2.90408e-15 0)
(1 -8.05198e-15 0)
(1 -4.70594e-15 0)
(1 -1.66448e-15 0)
(1 3.61525e-15 0)
(1 -1.3398e-15 0)
(1 -4.25776e-15 0)
(1 4.91223e-16 0)
(1 6.65193e-15 0)
(1 1.70121e-15 0)
(1 -6.94886e-15 0)
(1 -4.16755e-15 0)
(1 -4.17942e-15 0)
(1 -1.39437e-15 0)
(1 4.90956e-15 0)
(1 4.59019e-16 0)
(1 1.06652e-14 0)
(1 6.54516e-16 0)
(1 1.11968e-14 0)
(1 4.54456e-15 0)
(1 1.96132e-15 0)
(1 -8.25939e-15 0)
(1 -7.00389e-15 0)
(1 -1.06724e-14 0)
(1 -7.13225e-15 0)
(1 -6.97109e-15 0)
(1 1.52091e-14 0)
(1 1.10861e-14 0)
(1 1.47324e-14 0)
(1 3.63582e-15 0)
(1 7.35934e-16 0)
(1 7.63155e-15 0)
(1 5.40613e-15 0)
(1 4.68998e-15 0)
(1 5.51691e-15 0)
(1 -1.88892e-15 0)
(1 -2.60606e-17 0)
(1 -2.0442e-15 0)
(1 3.26315e-16 0)
(1 8.05123e-16 0)
(1 2.48448e-15 0)
(1 1.33175e-15 0)
(1 -1.43448e-15 0)
(1 -7.03054e-15 0)
(1 -6.61508e-15 0)
(1 -6.02311e-15 0)
(1 -4.50957e-15 0)
(1 -4.90401e-15 0)
(1 -5.34198e-15 0)
(1 -5.2341e-15 0)
(1 2.87882e-15 0)
(1 7.69746e-15 0)
(1 8.30081e-15 0)
(1 8.72522e-15 0)
(1 4.75137e-15 0)
(1 1.96754e-16 0)
(1 -4.12206e-15 0)
(1 -2.16836e-15 0)
(1 1.37708e-17 0)
(1 2.41912e-15 0)
(1 4.6787e-16 0)
(1 -4.20638e-15 0)
(1 2.50463e-15 0)
(1 5.12967e-15 0)
(1 -3.36593e-15 0)
(1 -3.58715e-15 0)
(1 3.37718e-15 0)
(1 2.14633e-15 0)
(1 4.46059e-15 0)
(1 -2.66863e-15 0)
(1 1.11154e-15 0)
(1 -1.50778e-15 0)
(1 1.11905e-15 0)
(1 1.26049e-16 0)
(1 5.13776e-15 0)
(1 6.17204e-16 0)
(1 1.11251e-15 0)
(1 -5.01488e-15 0)
(1 -2.40198e-15 0)
(1 -1.83746e-15 0)
(1 4.20493e-15 0)
(1 4.89445e-15 0)
(1 -1.97715e-15 0)
(1 7.70934e-15 0)
(1 3.59463e-15 0)
(1 3.96476e-15 0)
(1 -3.43635e-15 0)
(1 3.82855e-15 0)
(1 -3.26167e-16 0)
(1 3.53227e-15 0)
(1 5.60411e-15 0)
(1 -5.70778e-16 0)
(1 4.97877e-15 0)
(1 -2.20298e-15 0)
(1 4.63436e-15 0)
(1 -3.40305e-15 0)
(1 -3.71442e-15 0)
(1 5.09165e-15 0)
(1 -3.24829e-15 0)
(1 -8.99089e-15 0)
(1 -3.83926e-15 0)
(1 -6.52662e-15 0)
(1 -6.21009e-15 0)
(1 3.60774e-16 0)
(1 -3.59471e-15 0)
(1 4.6244e-15 0)
(1 -1.39859e-15 0)
(1 3.07869e-15 0)
(1 1.78816e-15 0)
(1 2.3137e-15 0)
(1 -8.29362e-15 0)
(1 -1.19229e-14 0)
(1 -8.26051e-15 0)
(1 1.49104e-15 0)
(1 3.77484e-15 0)
(1 1.68463e-15 0)
(1 9.29121e-15 0)
(1 4.38403e-15 0)
(1 1.33739e-15 0)
(1 6.29255e-15 0)
(1 6.64751e-15 0)
(1 -1.19015e-15 0)
(1 1.11781e-15 0)
(1 -1.79022e-15 0)
(1 -5.60708e-16 0)
(1 9.95916e-15 0)
(1 1.13619e-14 0)
(1 1.30443e-15 0)
(1 -1.64339e-15 0)
(1 -7.91564e-15 0)
(1 -5.98021e-15 0)
(1 5.04699e-15 0)
(1 5.02427e-15 0)
(1 8.15889e-15 0)
(1 5.7181e-15 0)
(1 8.89256e-15 0)
(1 3.33774e-15 0)
(1 4.68982e-15 0)
(1 2.68773e-15 0)
(1 8.89163e-15 0)
(1 9.92592e-15 0)
(1 3.99232e-15 0)
(1 -1.15857e-14 0)
(1 -1.7291e-14 0)
(1 -5.59644e-15 0)
(1 -4.64823e-15 0)
(1 4.33049e-15 0)
(1 7.77613e-16 0)
(1 3.29831e-15 0)
(1 -1.6441e-15 0)
(1 3.39514e-16 0)
(1 -3.87593e-15 0)
(1 4.45955e-17 0)
(1 7.21106e-16 0)
(1 3.83501e-15 0)
(1 3.24768e-15 0)
(1 -1.34682e-15 0)
(1 6.3984e-16 0)
(1 3.73031e-15 0)
(1 -8.80659e-17 0)
(1 -9.45834e-16 0)
(1 6.32183e-16 0)
(1 5.15675e-15 0)
(1 3.98167e-15 0)
(1 3.05344e-15 0)
(1 -1.99143e-15 0)
(1 -1.45437e-15 0)
(1 -5.76197e-15 0)
(1 1.04024e-16 0)
(1 5.0373e-15 0)
(1 8.87629e-15 0)
(1 9.30909e-15 0)
(1 1.04794e-14 0)
(1 1.72755e-14 0)
(1 1.02733e-14 0)
(1 1.76045e-15 0)
(1 -5.16963e-15 0)
(1 -2.97967e-15 0)
(1 -8.17084e-15 0)
(1 -7.76005e-15 0)
(1 -6.76481e-15 0)
(1 -9.33711e-16 0)
(1 1.35365e-15 0)
(1 1.37656e-14 0)
(1 9.59169e-15 0)
(1 6.87031e-15 0)
(1 3.14547e-16 0)
(1 4.41918e-16 0)
(1 -3.2787e-15 0)
(1 -2.51134e-15 0)
(1 7.92498e-16 0)
(1 2.22717e-15 0)
(1 3.98557e-15 0)
(1 8.28675e-16 0)
(1 -3.16346e-15 0)
(1 3.38853e-16 0)
(1 -1.30288e-15 0)
(1 -3.1341e-15 0)
(1 2.02962e-15 0)
(1 -3.82655e-15 0)
(1 1.18709e-15 0)
(1 2.4507e-15 0)
(1 1.85665e-15 0)
(1 3.57715e-15 0)
(1 -4.49047e-15 0)
(1 -1.52465e-16 0)
(1 1.39207e-15 0)
(1 3.65326e-16 0)
(1 5.68833e-15 0)
(1 2.71758e-15 0)
(1 1.87208e-15 0)
(1 -1.46122e-14 0)
(1 -2.96256e-15 0)
(1 -2.40115e-15 0)
(1 -2.60259e-15 0)
(1 2.30826e-15 0)
(1 6.56384e-15 0)
(1 8.03892e-15 0)
(1 1.17996e-15 0)
(1 3.06983e-15 0)
(1 7.18084e-15 0)
(1 6.10613e-15 0)
(1 4.18328e-15 0)
(1 8.10357e-15 0)
(1 8.11981e-16 0)
(1 1.16498e-14 0)
(1 -4.63302e-15 0)
(1 -2.49663e-15 0)
(1 -9.3834e-15 0)
(1 -9.69336e-15 0)
(1 3.33252e-16 0)
(1 4.9954e-15 0)
(1 9.08766e-15 0)
(1 4.00525e-15 0)
(1 6.66179e-15 0)
(1 5.14899e-15 0)
(1 4.14442e-15 0)
(1 -7.71836e-16 0)
(1 -1.65479e-16 0)
(1 -2.57793e-16 0)
(1 6.12371e-15 0)
(1 3.70577e-15 0)
(1 1.87736e-16 0)
(1 -4.36831e-15 0)
(1 1.12379e-15 0)
(1 1.372e-15 0)
(1 2.96068e-15 0)
(1 3.18769e-15 0)
(1 5.05376e-15 0)
(1 -1.23091e-15 0)
(1 -5.608e-15 0)
(1 -8.24929e-15 0)
(1 9.86699e-15 0)
(1 9.42298e-15 0)
(1 7.12655e-15 0)
(1 -9.87664e-16 0)
(1 -5.30781e-15 0)
(1 -4.59598e-16 0)
(1 -1.65301e-15 0)
(1 6.68976e-16 0)
(1 2.18949e-15 0)
(1 2.62666e-16 0)
(1 -2.04127e-15 0)
(1 -2.83821e-15 0)
(1 2.64037e-15 0)
(1 3.99917e-15 0)
(1 3.4172e-15 0)
(1 1.51126e-15 0)
(1 -1.01728e-15 0)
(1 5.42723e-16 0)
(1 6.24858e-15 0)
(1 4.33008e-15 0)
(1 4.43952e-15 0)
(1 7.20915e-15 0)
(1 1.18436e-17 0)
(1 -1.93911e-15 0)
(1 -2.77951e-15 0)
(1 4.19993e-15 0)
(1 6.65893e-15 0)
(1 5.82545e-16 0)
(1 -1.2239e-15 0)
(1 1.52913e-15 0)
(1 4.16099e-15 0)
(1 5.37055e-15 0)
(1 6.45736e-15 0)
(1 7.3376e-15 0)
(1 2.33149e-15 0)
(1 3.92614e-16 0)
(1 2.43483e-15 0)
(1 2.98511e-15 0)
(1 5.11674e-15 0)
(1 8.34579e-15 0)
(1 4.57283e-15 0)
(1 3.17018e-15 0)
(1 3.36994e-16 0)
(1 2.29206e-15 0)
(1 6.26796e-16 0)
(1 6.5456e-16 0)
(1 6.78533e-15 0)
(1 4.14442e-15 0)
(1 1.96428e-15 0)
(1 4.01098e-15 0)
(1 4.28851e-15 0)
(1 4.67015e-15 0)
(1 -1.58047e-15 0)
(1 -1.04213e-15 0)
(1 -3.96406e-15 0)
(1 3.43566e-15 0)
(1 4.71336e-15 0)
(1 5.69204e-16 0)
(1 5.14302e-15 0)
(1 -5.98926e-15 0)
(1 -3.37802e-15 0)
(1 -4.48837e-15 0)
(1 -1.37553e-14 0)
(1 -8.41498e-16 0)
(1 3.14943e-15 0)
(1 1.06029e-14 0)
(1 1.28689e-14 0)
(1 6.92486e-15 0)
(1 5.41197e-16 0)
(1 7.1317e-15 0)
(1 1.04078e-15 0)
(1 1.65758e-14 0)
(1 -4.79949e-15 0)
(1 7.78702e-16 0)
(1 -1.45299e-14 0)
(1 -9.55839e-15 0)
(1 -8.19856e-15 0)
(1 6.40938e-15 0)
(1 1.04952e-14 0)
(1 8.91613e-15 0)
(1 6.59912e-15 0)
(1 -4.09351e-15 0)
(1 -4.39248e-15 0)
(1 -3.23226e-15 0)
(1 2.44973e-15 0)
(1 5.11713e-15 0)
(1 3.86832e-15 0)
(1 -4.11215e-15 0)
(1 -1.71089e-15 0)
(1 1.16203e-14 0)
(1 5.3805e-15 0)
(1 -3.62152e-15 0)
(1 -1.20937e-14 0)
(1 6.08248e-16 0)
(1 -4.41596e-15 0)
(1 4.91162e-15 0)
(1 6.79419e-15 0)
(1 2.61673e-15 0)
(1 -1.91763e-15 0)
(1 -2.59896e-15 0)
(1 6.66526e-15 0)
(1 5.60727e-15 0)
(1 6.41751e-15 0)
(1 -2.32083e-15 0)
(1 7.56632e-15 0)
(1 6.91989e-15 0)
(1 5.04335e-15 0)
(1 -2.70548e-15 0)
(1 3.12806e-15 0)
(1 -5.27546e-15 0)
(1 -2.10372e-15 0)
(1 -2.06737e-15 0)
(1 -6.98349e-16 0)
(1 2.5645e-15 0)
(1 5.39317e-15 0)
(1 5.24029e-15 0)
(1 2.92075e-15 0)
(1 2.32067e-15 0)
(1 8.06955e-15 0)
(1 5.74703e-15 0)
(1 5.81893e-15 0)
(1 -3.48034e-16 0)
(1 2.60298e-15 0)
(1 8.73979e-15 0)
(1 6.11797e-15 0)
(1 3.1834e-15 0)
(1 4.87654e-15 0)
(1 1.78382e-15 0)
(1 2.99591e-15 0)
(1 4.68233e-15 0)
(1 -2.11411e-15 0)
(1 -2.07746e-15 0)
(1 3.01792e-15 0)
(1 1.30262e-15 0)
(1 2.13583e-15 0)
(1 -1.66033e-15 0)
(1 6.3259e-15 0)
(1 8.25994e-15 0)
(1 3.6267e-15 0)
(1 1.17305e-15 0)
(1 -2.06215e-16 0)
(1 -1.24086e-15 0)
(1 4.85978e-15 0)
(1 8.95958e-16 0)
(1 3.6162e-15 0)
(1 6.64689e-15 0)
(1 5.25514e-15 0)
(1 3.48786e-15 0)
(1 -5.81162e-17 0)
(1 4.07272e-15 0)
(1 4.49032e-15 0)
(1 1.10834e-14 0)
(1 1.37392e-15 0)
(1 -2.46909e-15 0)
(1 3.90409e-15 0)
(1 -2.60444e-15 0)
(1 1.98284e-16 0)
(1 -3.52965e-15 0)
(1 -3.35536e-15 0)
(1 6.67102e-15 0)
(1 -1.14169e-14 0)
(1 -7.22029e-15 0)
(1 -3.55397e-15 0)
(1 6.58912e-15 0)
(1 7.63518e-15 0)
(1 6.29068e-15 0)
(1 3.88367e-15 0)
(1 1.15753e-14 0)
(1 2.18121e-15 0)
(1 1.09913e-14 0)
(1 -3.03735e-15 0)
(1 1.11011e-15 0)
(1 4.90454e-15 0)
(1 5.72535e-17 0)
(1 -7.94248e-15 0)
(1 -3.16784e-15 0)
(1 1.77937e-15 0)
(1 9.65084e-15 0)
(1 4.36864e-15 0)
(1 3.98272e-15 0)
(1 -4.11568e-15 0)
(1 -5.26549e-15 0)
(1 -1.62677e-14 0)
(1 -9.44218e-15 0)
(1 -5.33825e-15 0)
(1 3.96976e-15 0)
(1 8.40354e-15 0)
(1 6.60419e-15 0)
(1 1.54744e-16 0)
(1 3.27502e-15 0)
(1 3.87513e-15 0)
(1 3.88273e-15 0)
(1 -5.13085e-15 0)
(1 3.9214e-15 0)
(1 2.95296e-15 0)
(1 1.08555e-14 0)
(1 4.36244e-15 0)
(1 7.07606e-15 0)
(1 7.33251e-15 0)
(1 3.89067e-15 0)
(1 -9.8381e-15 0)
(1 -5.30452e-15 0)
(1 2.4657e-15 0)
(1 4.60791e-15 0)
(1 1.16773e-14 0)
(1 5.72437e-15 0)
(1 2.25366e-15 0)
(1 -2.06596e-15 0)
(1 -4.9491e-15 0)
(1 4.48983e-15 0)
(1 -5.19927e-15 0)
(1 5.22008e-15 0)
(1 -2.8732e-15 0)
(1 4.52832e-15 0)
(1 -1.14376e-15 0)
(1 -6.56096e-15 0)
(1 -1.92211e-15 0)
(1 1.26365e-14 0)
(1 1.58987e-14 0)
(1 1.60335e-14 0)
(1 1.76653e-14 0)
(1 1.35757e-14 0)
(1 8.34535e-15 0)
(1 1.31409e-14 0)
(1 7.19026e-15 0)
(1 3.0496e-15 0)
(1 -6.83934e-15 0)
(1 -4.63272e-15 0)
(1 -1.19285e-15 0)
(1 1.32511e-15 0)
(1 -1.81292e-15 0)
(1 8.75416e-15 0)
(1 8.94133e-15 0)
(1 4.65628e-15 0)
(1 5.96985e-15 0)
(1 2.77241e-15 0)
(1 -3.32483e-15 0)
(1 -3.50111e-15 0)
(1 -5.30366e-15 0)
(1 3.56065e-17 0)
(1 4.344e-15 0)
(1 3.53942e-15 0)
(1 4.80373e-15 0)
(1 6.13169e-15 0)
(1 9.22949e-15 0)
(1 7.92563e-15 0)
(1 1.08419e-14 0)
(1 6.44892e-15 0)
(1 1.13653e-14 0)
(1 1.25311e-14 0)
(1 1.51673e-14 0)
(1 2.02743e-14 0)
(1 7.60338e-16 0)
(1 2.64617e-15 0)
(1 7.54735e-15 0)
(1 -6.40957e-16 0)
(1 -3.90372e-15 0)
(1 2.75719e-15 0)
(1 9.19505e-16 0)
(1 2.37166e-15 0)
(1 -6.08166e-15 0)
(1 -8.85685e-15 0)
(1 2.90988e-15 0)
(1 2.20436e-15 0)
(1 6.63279e-15 0)
(1 4.99066e-15 0)
(1 6.07456e-15 0)
(1 4.12039e-15 0)
(1 1.29756e-15 0)
(1 3.58909e-15 0)
(1 -2.33674e-16 0)
(1 -1.29559e-14 0)
(1 7.35676e-16 0)
(1 -9.96636e-15 0)
(1 1.38298e-16 0)
(1 2.71356e-15 0)
(1 3.73582e-15 0)
(1 1.06826e-14 0)
(1 6.68891e-15 0)
(1 3.93382e-16 0)
(1 3.21041e-15 0)
(1 5.53977e-16 0)
(1 -9.61064e-15 0)
(1 -1.00827e-14 0)
(1 -4.96095e-15 0)
(1 -4.02241e-15 0)
(1 -3.89639e-15 0)
(1 3.93093e-15 0)
(1 3.03353e-15 0)
(1 -3.00974e-16 0)
(1 4.32601e-15 0)
(1 9.50416e-15 0)
(1 6.50695e-15 0)
(1 2.24068e-15 0)
(1 6.99398e-15 0)
(1 2.67488e-15 0)
(1 -7.13641e-15 0)
(1 3.82371e-15 0)
(1 -1.40564e-15 0)
(1 2.57788e-15 0)
(1 -5.18899e-15 0)
(1 6.33299e-15 0)
(1 6.56089e-15 0)
(1 9.03824e-15 0)
(1 7.00094e-15 0)
(1 4.43568e-15 0)
(1 1.64807e-15 0)
(1 6.79109e-15 0)
(1 1.06871e-15 0)
(1 9.67571e-15 0)
(1 -2.42527e-15 0)
(1 2.13184e-15 0)
(1 3.48672e-15 0)
(1 4.12934e-15 0)
(1 7.76816e-15 0)
(1 4.21944e-15 0)
(1 4.28304e-15 0)
(1 8.7912e-15 0)
(1 1.04532e-14 0)
(1 1.00556e-14 0)
(1 1.40241e-14 0)
(1 8.07251e-15 0)
(1 2.91184e-15 0)
(1 2.26508e-15 0)
(1 1.26928e-15 0)
(1 6.5282e-15 0)
(1 1.17065e-15 0)
(1 4.38508e-15 0)
(1 4.21471e-15 0)
(1 5.13674e-15 0)
(1 6.31926e-15 0)
(1 5.06736e-15 0)
(1 2.05184e-15 0)
(1 3.25265e-16 0)
(1 2.91135e-15 0)
(1 -3.90924e-16 0)
(1 8.76526e-16 0)
(1 6.97687e-16 0)
(1 5.35433e-15 0)
(1 8.98046e-16 0)
(1 7.69246e-15 0)
(1 4.5375e-15 0)
(1 4.61751e-15 0)
(1 3.89372e-15 0)
(1 6.56298e-15 0)
(1 8.0526e-15 0)
(1 1.21878e-14 0)
(1 5.93715e-15 0)
(1 1.3196e-14 0)
(1 8.90032e-15 0)
(1 2.36215e-14 0)
(1 2.20019e-14 0)
(1 1.39426e-16 0)
(1 -8.57853e-16 0)
(1 1.52118e-15 0)
(1 4.75395e-15 0)
(1 -3.8541e-15 0)
(1 1.78614e-15 0)
(1 3.45604e-16 0)
(1 -9.09127e-15 0)
(1 3.00041e-15 0)
(1 -1.01144e-14 0)
(1 1.64177e-15 0)
(1 -1.13575e-14 0)
(1 3.5029e-15 0)
(1 8.34725e-15 0)
(1 9.34923e-15 0)
(1 8.49894e-15 0)
(1 3.48232e-15 0)
(1 -2.23075e-15 0)
(1 6.23539e-15 0)
(1 -4.89706e-15 0)
(1 -2.60214e-15 0)
(1 -8.84912e-15 0)
(1 -5.79112e-15 0)
(1 -5.64314e-15 0)
(1 -5.96747e-15 0)
(1 8.11211e-16 0)
(1 6.4101e-15 0)
(1 9.28196e-15 0)
(1 8.62478e-15 0)
(1 -3.93677e-17 0)
(1 -7.43626e-15 0)
(1 -6.9096e-15 0)
(1 -5.39461e-15 0)
(1 -4.48752e-15 0)
(1 -9.51369e-17 0)
(1 5.97051e-15 0)
(1 7.46981e-15 0)
(1 2.84021e-15 0)
(1 5.36807e-15 0)
(1 7.09474e-16 0)
(1 1.18387e-14 0)
(1 -1.48938e-16 0)
(1 1.1634e-14 0)
(1 -1.54547e-15 0)
(1 -1.85619e-15 0)
(1 -3.40475e-15 0)
(1 1.89722e-16 0)
(1 2.80485e-15 0)
(1 9.53089e-16 0)
(1 5.5857e-16 0)
(1 5.64821e-15 0)
(1 7.31227e-15 0)
(1 6.52035e-15 0)
(1 3.79877e-15 0)
(1 7.14613e-15 0)
(1 1.72475e-15 0)
(1 4.13233e-15 0)
(1 -3.41587e-15 0)
(1 8.41765e-15 0)
(1 -3.64033e-15 0)
(1 9.78661e-15 0)
(1 -5.33393e-15 0)
(1 7.38862e-15 0)
(1 6.67147e-15 0)
(1 1.18963e-14 0)
(1 3.12e-15 0)
(1 8.1245e-15 0)
(1 7.04513e-15 0)
(1 8.07992e-15 0)
(1 7.27625e-15 0)
(1 6.2699e-15 0)
(1 2.04806e-15 0)
(1 5.91502e-15 0)
(1 -1.40841e-15 0)
(1 -2.49517e-15 0)
(1 5.13938e-15 0)
(1 1.18419e-14 0)
(1 1.24365e-14 0)
(1 1.12023e-14 0)
(1 4.46038e-15 0)
(1 1.16054e-15 0)
(1 3.58162e-15 0)
(1 3.16372e-15 0)
(1 -4.30905e-15 0)
(1 -5.6012e-16 0)
(1 -1.5951e-15 0)
(1 5.64212e-15 0)
(1 2.63907e-15 0)
(1 6.17828e-15 0)
(1 7.26921e-15 0)
(1 5.76299e-15 0)
(1 3.43395e-15 0)
(1 3.0356e-15 0)
(1 1.41279e-15 0)
(1 5.56465e-15 0)
(1 8.35111e-15 0)
(1 1.18453e-14 0)
(1 1.16958e-14 0)
(1 1.4152e-14 0)
(1 1.19065e-14 0)
(1 3.3625e-15 0)
(1 -4.31605e-15 0)
(1 3.21802e-15 0)
(1 -9.85902e-16 0)
(1 9.31895e-16 0)
(1 -7.28044e-16 0)
(1 -3.20156e-15 0)
(1 -8.12415e-15 0)
(1 -4.30167e-15 0)
(1 4.26622e-15 0)
(1 6.64548e-15 0)
(1 7.1312e-15 0)
(1 2.48009e-15 0)
(1 -9.15267e-16 0)
(1 -2.55669e-16 0)
(1 4.48062e-15 0)
(1 8.55495e-15 0)
(1 -1.6458e-15 0)
(1 -1.81032e-15 0)
(1 -7.10679e-15 0)
(1 -1.14723e-14 0)
(1 -9.77993e-15 0)
(1 -1.50128e-15 0)
(1 6.72427e-15 0)
(1 1.08382e-14 0)
(1 4.31495e-15 0)
(1 7.00773e-15 0)
(1 4.31136e-15 0)
(1 5.40776e-15 0)
(1 3.4279e-15 0)
(1 -1.12892e-15 0)
(1 -7.97001e-15 0)
(1 -7.07876e-15 0)
(1 -7.56675e-15 0)
(1 2.28097e-15 0)
(1 9.10839e-16 0)
(1 1.003e-16 0)
(1 -6.90329e-15 0)
(1 4.6479e-15 0)
(1 1.61651e-15 0)
(1 1.01405e-14 0)
(1 -9.93311e-16 0)
(1 -1.13389e-15 0)
(1 -7.52049e-15 0)
(1 5.32481e-15 0)
(1 2.32253e-15 0)
(1 1.1854e-14 0)
(1 9.57307e-15 0)
(1 7.85312e-15 0)
(1 1.29892e-15 0)
(1 1.86514e-15 0)
(1 5.78077e-15 0)
(1 1.22036e-15 0)
(1 5.43701e-15 0)
(1 8.16424e-15 0)
(1 3.85191e-15 0)
(1 9.78725e-16 0)
(1 4.55147e-16 0)
(1 5.37865e-15 0)
(1 2.9175e-15 0)
(1 2.05004e-15 0)
(1 2.70549e-15 0)
(1 5.32487e-15 0)
(1 5.90108e-15 0)
(1 7.42137e-15 0)
(1 2.23137e-15 0)
(1 2.74754e-15 0)
(1 7.73437e-15 0)
(1 -9.44546e-16 0)
(1 5.5167e-15 0)
(1 5.09572e-15 0)
(1 1.15349e-15 0)
(1 9.83653e-15 0)
(1 3.75328e-15 0)
(1 4.11764e-15 0)
(1 3.11634e-15 0)
(1 7.38186e-15 0)
(1 2.00633e-15 0)
(1 5.94088e-15 0)
(1 8.31309e-15 0)
(1 7.89118e-15 0)
(1 1.17645e-14 0)
(1 7.9374e-15 0)
(1 4.4047e-15 0)
(1 1.43648e-15 0)
(1 -8.47604e-15 0)
(1 -1.60168e-15 0)
(1 3.87106e-15 0)
(1 3.70989e-15 0)
(1 8.96867e-15 0)
(1 4.60471e-15 0)
(1 8.75108e-15 0)
(1 3.31029e-15 0)
(1 7.81083e-15 0)
(1 4.45544e-15 0)
(1 1.12627e-14 0)
(1 8.45857e-15 0)
(1 1.68328e-14 0)
(1 4.78547e-15 0)
(1 3.86495e-15 0)
(1 3.91221e-15 0)
(1 4.10053e-15 0)
(1 -4.44214e-15 0)
(1 -2.2224e-15 0)
(1 -7.51358e-16 0)
(1 1.34221e-15 0)
(1 2.01196e-15 0)
(1 4.03637e-15 0)
(1 -3.56089e-15 0)
(1 1.32543e-14 0)
(1 5.01583e-15 0)
(1 1.13198e-14 0)
(1 2.76288e-15 0)
(1 -3.26278e-15 0)
(1 -9.07494e-15 0)
(1 -7.16449e-15 0)
(1 1.07797e-15 0)
(1 4.57649e-15 0)
(1 6.02505e-15 0)
(1 -2.12049e-15 0)
(1 -7.38395e-15 0)
(1 -5.34038e-15 0)
(1 -7.738e-15 0)
(1 -8.19651e-15 0)
(1 -5.23819e-15 0)
(1 1.81352e-15 0)
(1 1.0697e-14 0)
(1 -1.44537e-15 0)
(1 -3.04745e-15 0)
(1 -5.32492e-15 0)
(1 -2.28246e-16 0)
(1 -5.11802e-15 0)
(1 -6.39646e-15 0)
(1 4.04802e-15 0)
(1 2.31045e-15 0)
(1 5.84624e-15 0)
(1 3.48797e-15 0)
(1 6.01454e-15 0)
(1 5.93496e-15 0)
(1 2.755e-15 0)
(1 -8.98778e-15 0)
(1 -5.13037e-15 0)
(1 -9.48395e-15 0)
(1 -3.4703e-15 0)
(1 6.11884e-15 0)
(1 8.00319e-15 0)
(1 5.49649e-15 0)
(1 6.05949e-15 0)
(1 1.29449e-14 0)
(1 7.62191e-15 0)
(1 -1.60647e-15 0)
(1 5.14511e-16 0)
(1 7.47261e-16 0)
(1 3.81933e-15 0)
(1 3.53662e-15 0)
(1 4.12869e-15 0)
(1 1.90438e-15 0)
(1 4.15569e-15 0)
(1 -2.22759e-15 0)
(1 -1.42507e-15 0)
(1 -4.27934e-15 0)
(1 7.73882e-15 0)
(1 1.34678e-14 0)
(1 1.77301e-14 0)
(1 1.22461e-14 0)
(1 6.13491e-15 0)
(1 -1.01329e-15 0)
(1 8.33469e-16 0)
(1 -3.11387e-15 0)
(1 -5.44242e-16 0)
(1 2.52746e-15 0)
(1 6.37305e-15 0)
(1 5.60741e-15 0)
(1 8.46432e-15 0)
(1 1.10245e-14 0)
(1 5.51309e-15 0)
(1 -7.01151e-15 0)
(1 -1.85709e-15 0)
(1 6.16816e-15 0)
(1 5.38098e-15 0)
(1 4.12528e-15 0)
(1 7.10654e-15 0)
(1 5.66553e-15 0)
(1 4.54028e-15 0)
(1 2.15921e-15 0)
(1 6.16389e-15 0)
(1 2.20655e-15 0)
(1 2.56925e-15 0)
(1 1.69899e-15 0)
(1 4.72098e-15 0)
(1 2.25253e-15 0)
(1 3.23486e-15 0)
(1 -4.18976e-16 0)
(1 4.76573e-15 0)
(1 5.5031e-16 0)
(1 6.82553e-15 0)
(1 1.08165e-14 0)
(1 1.11685e-14 0)
(1 6.71175e-15 0)
(1 7.29905e-15 0)
(1 -3.45721e-15 0)
(1 8.57732e-15 0)
(1 -1.6461e-15 0)
(1 -2.84438e-15 0)
(1 -2.08616e-15 0)
(1 -1.13501e-15 0)
(1 -2.17993e-17 0)
(1 8.507e-15 0)
(1 1.30043e-14 0)
(1 1.2514e-14 0)
(1 -3.67155e-16 0)
(1 -2.21397e-15 0)
(1 -1.10663e-16 0)
(1 4.69167e-16 0)
(1 -2.77451e-15 0)
(1 -5.6341e-15 0)
(1 -2.43331e-15 0)
(1 1.00875e-15 0)
(1 2.94262e-15 0)
(1 -3.79791e-15 0)
(1 -7.12186e-15 0)
(1 -7.33339e-15 0)
(1 -5.69336e-15 0)
(1 -5.86529e-15 0)
(1 -1.7247e-15 0)
(1 1.00831e-15 0)
(1 -2.84291e-15 0)
(1 1.41595e-16 0)
(1 -2.50327e-15 0)
(1 -5.78535e-15 0)
(1 -4.06664e-15 0)
(1 -4.58524e-15 0)
(1 -4.30063e-15 0)
(1 -3.32835e-16 0)
(1 9.29149e-15 0)
(1 1.33451e-14 0)
(1 8.92433e-15 0)
(1 1.02406e-14 0)
(1 -1.88577e-15 0)
(1 4.50331e-15 0)
(1 -6.29929e-15 0)
(1 -4.37631e-15 0)
(1 -6.43635e-15 0)
(1 4.84246e-15 0)
(1 9.42388e-15 0)
(1 2.4609e-15 0)
(1 1.77682e-15 0)
(1 1.55639e-15 0)
(1 8.14494e-15 0)
(1 6.63952e-15 0)
(1 4.56777e-16 0)
(1 -6.15812e-15 0)
(1 -8.07475e-16 0)
(1 -6.66235e-15 0)
(1 4.85925e-15 0)
(1 7.28106e-15 0)
(1 8.74176e-15 0)
(1 4.01306e-15 0)
(1 7.8107e-15 0)
(1 5.37634e-15 0)
(1 2.80133e-15 0)
(1 -3.74608e-16 0)
(1 3.6922e-15 0)
(1 5.64513e-15 0)
(1 1.22489e-14 0)
(1 1.14512e-14 0)
(1 4.39455e-15 0)
(1 3.63575e-15 0)
(1 1.98291e-15 0)
(1 3.66101e-15 0)
(1 4.65166e-15 0)
(1 9.81055e-15 0)
(1 4.48828e-15 0)
(1 8.30166e-15 0)
(1 5.74059e-15 0)
(1 7.70517e-15 0)
(1 1.11025e-15 0)
(1 1.13702e-14 0)
(1 1.46236e-14 0)
(1 5.99152e-15 0)
(1 3.24208e-15 0)
(1 -3.1922e-16 0)
(1 2.18171e-15 0)
(1 5.34308e-16 0)
(1 2.77976e-15 0)
(1 9.72516e-15 0)
(1 2.60976e-15 0)
(1 2.7133e-15 0)
(1 6.14471e-15 0)
(1 8.10823e-15 0)
(1 7.08508e-16 0)
(1 1.78102e-15 0)
(1 -1.46487e-15 0)
(1 -4.41023e-16 0)
(1 5.0442e-16 0)
(1 4.91104e-15 0)
(1 1.73459e-14 0)
(1 1.14714e-14 0)
(1 1.47871e-14 0)
(1 1.33224e-14 0)
(1 1.25966e-16 0)
(1 4.70295e-15 0)
(1 3.23229e-15 0)
(1 -1.43238e-15 0)
(1 -1.97868e-16 0)
(1 2.75094e-15 0)
(1 -5.00341e-15 0)
(1 -7.07469e-15 0)
(1 3.86477e-15 0)
(1 7.24029e-15 0)
(1 4.06652e-15 0)
(1 5.77132e-15 0)
(1 -6.06351e-15 0)
(1 -1.7099e-15 0)
(1 2.9251e-15 0)
(1 -7.86101e-15 0)
(1 -5.27381e-15 0)
(1 -7.53439e-15 0)
(1 -5.11567e-15 0)
(1 -2.59551e-15 0)
(1 -1.10018e-14 0)
(1 1.09337e-15 0)
(1 1.00123e-14 0)
(1 1.69624e-14 0)
(1 1.37713e-14 0)
(1 8.19138e-15 0)
(1 -8.29194e-15 0)
(1 -1.03764e-14 0)
(1 -8.92087e-15 0)
(1 -2.74306e-15 0)
(1 -4.20543e-15 0)
(1 -7.6297e-16 0)
(1 1.49512e-16 0)
(1 -8.95419e-15 0)
(1 3.11969e-15 0)
(1 -5.44672e-16 0)
(1 6.90521e-15 0)
(1 6.2277e-15 0)
(1 -1.00664e-15 0)
(1 4.5786e-15 0)
(1 4.95099e-16 0)
(1 7.34394e-15 0)
(1 -1.64331e-15 0)
(1 1.68647e-15 0)
(1 1.40427e-15 0)
(1 7.54148e-16 0)
(1 2.37031e-15 0)
(1 -1.15128e-15 0)
(1 -5.35152e-16 0)
(1 9.05619e-15 0)
(1 7.4483e-15 0)
(1 4.33539e-15 0)
(1 -5.14022e-15 0)
(1 3.63555e-16 0)
(1 8.01635e-15 0)
(1 4.92004e-15 0)
(1 4.97376e-15 0)
(1 1.84066e-15 0)
(1 3.74342e-15 0)
(1 3.48465e-15 0)
(1 6.35642e-15 0)
(1 4.89014e-15 0)
(1 5.54704e-15 0)
(1 6.73292e-15 0)
(1 1.02898e-14 0)
(1 6.39966e-15 0)
(1 1.14484e-14 0)
(1 9.53891e-15 0)
(1 1.05955e-14 0)
(1 9.12584e-15 0)
(1 7.78459e-15 0)
(1 8.26522e-15 0)
(1 3.3094e-15 0)
(1 2.1217e-15 0)
(1 5.35884e-15 0)
(1 7.19878e-15 0)
(1 8.03879e-15 0)
(1 6.6816e-15 0)
(1 8.26518e-15 0)
(1 1.18131e-14 0)
(1 5.16767e-15 0)
(1 -1.18954e-15 0)
(1 3.57592e-15 0)
(1 3.86077e-15 0)
(1 5.40567e-15 0)
(1 -3.77849e-16 0)
(1 -1.00793e-15 0)
(1 -1.64897e-15 0)
(1 1.49985e-15 0)
(1 6.34513e-16 0)
(1 1.5642e-15 0)
(1 -2.86548e-16 0)
(1 6.909e-15 0)
(1 3.68194e-15 0)
(1 8.61984e-15 0)
(1 5.50012e-15 0)
(1 9.69251e-15 0)
(1 1.21019e-14 0)
(1 1.64664e-14 0)
(1 1.44954e-14 0)
(1 -8.81032e-16 0)
(1 6.11614e-16 0)
(1 -7.13449e-15 0)
(1 6.4429e-15 0)
(1 4.89904e-16 0)
(1 6.21965e-15 0)
(1 9.30206e-15 0)
(1 1.05953e-14 0)
(1 4.85826e-15 0)
(1 -4.21902e-16 0)
(1 -1.15444e-15 0)
(1 -1.00184e-14 0)
(1 -3.98246e-15 0)
(1 -2.91895e-15 0)
(1 1.93536e-15 0)
(1 7.19041e-17 0)
(1 -2.9693e-15 0)
(1 -4.19083e-15 0)
(1 -7.57465e-15 0)
(1 -7.15104e-15 0)
(1 -5.13636e-15 0)
(1 -3.78788e-15 0)
(1 1.31492e-15 0)
(1 -3.7411e-15 0)
(1 2.46165e-15 0)
(1 -9.529e-16 0)
(1 -1.85147e-15 0)
(1 -1.2614e-14 0)
(1 -1.37917e-14 0)
(1 -3.63152e-15 0)
(1 -5.19924e-15 0)
(1 4.85622e-15 0)
(1 8.29617e-16 0)
(1 1.02401e-14 0)
(1 4.60178e-15 0)
(1 4.82264e-15 0)
(1 8.34423e-15 0)
(1 1.53054e-15 0)
(1 1.34331e-15 0)
(1 -2.73523e-15 0)
(1 2.44827e-15 0)
(1 5.22205e-15 0)
(1 7.0172e-15 0)
(1 2.00387e-15 0)
(1 -5.93224e-15 0)
(1 -3.83698e-15 0)
(1 1.02419e-15 0)
(1 -7.698e-16 0)
(1 1.0004e-15 0)
(1 -1.99614e-15 0)
(1 9.19626e-15 0)
(1 6.12339e-15 0)
(1 9.63029e-16 0)
(1 1.10924e-15 0)
(1 1.66276e-15 0)
(1 4.26109e-16 0)
(1 7.58735e-15 0)
(1 4.76746e-15 0)
(1 2.0107e-15 0)
(1 -5.5909e-15 0)
(1 1.69913e-16 0)
(1 2.49492e-15 0)
(1 4.11076e-16 0)
(1 1.15392e-14 0)
(1 2.63142e-15 0)
(1 -6.02305e-15 0)
(1 6.08017e-15 0)
(1 3.5622e-15 0)
(1 1.58939e-14 0)
(1 6.30753e-15 0)
(1 7.78492e-15 0)
(1 6.45125e-15 0)
(1 8.3928e-15 0)
(1 1.92442e-15 0)
(1 8.22491e-15 0)
(1 1.27943e-15 0)
(1 5.86936e-15 0)
(1 9.78646e-15 0)
(1 5.68119e-15 0)
(1 1.31355e-14 0)
(1 -1.04851e-15 0)
(1 5.8941e-15 0)
(1 1.8732e-15 0)
(1 4.5271e-15 0)
(1 -5.4845e-16 0)
(1 -3.76401e-15 0)
(1 -1.20971e-15 0)
(1 -2.17616e-15 0)
(1 -1.72717e-15 0)
(1 8.34157e-16 0)
(1 7.09534e-15 0)
(1 1.47284e-15 0)
(1 6.41392e-15 0)
(1 4.23256e-15 0)
(1 4.29221e-15 0)
(1 1.12241e-14 0)