/*--------------------------------*- C++ -*----------------------------------*\
| =========                 |                                                 |
| \\      /  F ield         | OpenFOAM: The Open Source CFD Toolbox           |
|  \\    /   O peration     | Version:  v2012                                 |
|   \\  /    A nd           | Website:  www.openfoam.com                      |
|    \\/     M anipulation  |                                                 |
\*---------------------------------------------------------------------------*/
FoamFile
{
    version     2.0;
    format      ascii;
    class       volScalarField;
    location    "0";
    object      pRec;
}
// * * * * * * * * * * * * * * * * * * * * * * * * * * * * * * * * * * * * * //

dimensions      [0 2 -2 0 0 0 0];


internalField   nonuniform List<scalar> 
4000
(
-7.08735e-13
-7.02767e-13
-7.04153e-13
-7.07649e-13
-7.05239e-13
-7.05643e-13
-7.04378e-13
-6.99113e-13
-6.88132e-13
-6.84504e-13
-6.86242e-13
-6.80438e-13
-6.67905e-13
-6.52622e-13
-6.38693e-13
-6.31697e-13
-6.26552e-13
-6.23957e-13
-6.16439e-13
-6.01423e-13
-5.89917e-13
-5.82746e-13
-5.77186e-13
-5.70387e-13
-5.59717e-13
-5.48729e-13
-5.47406e-13
-5.41337e-13
-5.34754e-13
-5.23793e-13
-5.06498e-13
-4.99741e-13
-4.98322e-13
-4.97111e-13
-4.92372e-13
-4.90213e-13
-4.81212e-13
-4.61399e-13
-4.43035e-13
-4.39885e-13
-4.41373e-13
-4.40122e-13
-4.41056e-13
-4.3448e-13
-4.22174e-13
-4.13146e-13
-4.04382e-13
-3.94841e-13
-3.85e-13
-3.76876e-13
-3.67198e-13
-3.58672e-13
-3.50879e-13
-3.4137e-13
-3.32601e-13
-3.1934e-13
-3.12669e-13
-3.0963e-13
-3.07152e-13
-3.04277e-13
-2.95971e-13
-2.88472e-13
-2.77953e-13
-2.65395e-13
-2.57073e-13
-2.49651e-13
-2.45598e-13
-2.37695e-13
-2.26793e-13
-2.19012e-13
-2.11628e-13
-2.05417e-13
-1.92308e-13
-1.85349e-13
-1.84834e-13
-1.80676e-13
-1.77806e-13
-1.7172e-13
-1.63004e-13
-1.49911e-13
-1.36726e-13
-1.31291e-13
-1.22743e-13
-1.18748e-13
-1.15115e-13
-1.09405e-13
-9.95776e-14
-9.14393e-14
-8.77625e-14
-8.40201e-14
-7.769e-14
-7.12566e-14
-6.3648e-14
-5.72324e-14
-4.82199e-14
-3.8852e-14
-3.01702e-14
-2.15882e-14
-1.23937e-14
-3.11899e-15
-7.05021e-13
-7.0387e-13
-7.07375e-13
-7.0729e-13
-7.07751e-13
-7.04145e-13
-7.01286e-13
-6.98701e-13
-6.93258e-13
-6.88355e-13
-6.8234e-13
-6.76392e-13
-6.65954e-13
-6.53709e-13
-6.41984e-13
-6.35097e-13
-6.29958e-13
-6.22456e-13
-6.12696e-13
-6.04885e-13
-5.94104e-13
-5.81608e-13
-5.73018e-13
-5.6681e-13
-5.57454e-13
-5.51253e-13
-5.48471e-13
-5.42186e-13
-5.33419e-13
-5.19643e-13
-5.10065e-13
-5.03418e-13
-4.97661e-13
-4.93743e-13
-4.89632e-13
-4.86245e-13
-4.78925e-13
-4.65642e-13
-4.50627e-13
-4.4438e-13
-4.41174e-13
-4.39123e-13
-4.37441e-13
-4.3228e-13
-4.24238e-13
-4.13453e-13
-4.02761e-13
-3.94671e-13
-3.85436e-13
-3.7419e-13
-3.66026e-13
-3.57762e-13
-3.50754e-13
-3.42456e-13
-3.33731e-13
-3.22304e-13
-3.12587e-13
-3.07757e-13
-3.05337e-13
-3.02723e-13
-2.9832e-13
-2.88497e-13
-2.79331e-13
-2.67282e-13
-2.58692e-13
-2.49239e-13
-2.43014e-13
-2.36826e-13
-2.2894e-13
-2.20563e-13
-2.12136e-13
-2.05304e-13
-1.97685e-13
-1.88519e-13
-1.84514e-13
-1.77326e-13
-1.76345e-13
-1.69361e-13
-1.59808e-13
-1.47806e-13
-1.37932e-13
-1.3287e-13
-1.26768e-13
-1.21478e-13
-1.12773e-13
-1.06858e-13
-9.76938e-14
-8.93076e-14
-8.5973e-14
-8.24836e-14
-7.95011e-14
-7.39299e-14
-6.7681e-14
-5.539e-14
-4.66131e-14
-3.95716e-14
-2.97877e-14
-2.17989e-14
-1.42974e-14
-5.02494e-15
-7.04685e-13
-7.03672e-13
-7.05983e-13
-7.09576e-13
-7.10608e-13
-7.0567e-13
-7.00402e-13
-6.97593e-13
-6.91617e-13
-6.88035e-13
-6.82463e-13
-6.75596e-13
-6.6567e-13
-6.5498e-13
-6.43952e-13
-6.35566e-13
-6.29654e-13
-6.22049e-13
-6.1312e-13
-6.0381e-13
-5.92639e-13
-5.83351e-13
-5.74156e-13
-5.67652e-13
-5.59368e-13
-5.53764e-13
-5.49433e-13
-5.41366e-13
-5.31075e-13
-5.1747e-13
-5.10772e-13
-5.03811e-13
-4.97849e-13
-4.95183e-13
-4.91502e-13
-4.87659e-13
-4.77729e-13
-4.67482e-13
-4.56001e-13
-4.44624e-13
-4.40282e-13
-4.3557e-13
-4.36559e-13
-4.32961e-13
-4.25612e-13
-4.1394e-13
-4.01657e-13
-3.91764e-13
-3.85803e-13
-3.80455e-13
-3.68522e-13
-3.57932e-13
-3.48284e-13
-3.39237e-13
-3.32048e-13
-3.23504e-13
-3.12641e-13
-3.1004e-13
-3.10563e-13
-3.03917e-13
-2.9586e-13
-2.83225e-13
-2.74453e-13
-2.68725e-13
-2.61729e-13
-2.53218e-13
-2.46052e-13
-2.35475e-13
-2.27608e-13
-2.1749e-13
-2.08919e-13
-2.02334e-13
-1.93778e-13
-1.88104e-13
-1.84025e-13
-1.80012e-13
-1.74882e-13
-1.69449e-13
-1.59142e-13
-1.48429e-13
-1.43609e-13
-1.35216e-13
-1.2273e-13
-1.17471e-13
-1.12242e-13
-1.09224e-13
-1.02906e-13
-9.2763e-14
-8.58716e-14
-8.02428e-14
-7.69409e-14
-7.31478e-14
-6.57549e-14
-5.68439e-14
-4.57508e-14
-3.66312e-14
-3.03077e-14
-2.2925e-14
-1.82208e-14
-5.7437e-15
-7.05816e-13
-7.07187e-13
-7.0816e-13
-7.04146e-13
-7.08744e-13
-7.02416e-13
-7.00398e-13
-6.97861e-13
-6.95941e-13
-6.90583e-13
-6.80476e-13
-6.70539e-13
-6.62137e-13
-6.56049e-13
-6.53393e-13
-6.42541e-13
-6.27572e-13
-6.18275e-13
-6.12273e-13
-6.02607e-13
-5.93374e-13
-5.85578e-13
-5.7511e-13
-5.61246e-13
-5.54219e-13
-5.51235e-13
-5.48584e-13
-5.43229e-13
-5.30762e-13
-5.21864e-13
-5.15146e-13
-5.07454e-13
-4.98656e-13
-4.92908e-13
-4.86898e-13
-4.86993e-13
-4.77749e-13
-4.659e-13
-4.57208e-13
-4.47641e-13
-4.4392e-13
-4.41291e-13
-4.36454e-13
-4.29905e-13
-4.202e-13
-4.09749e-13
-4.01289e-13
-3.96117e-13
-3.87686e-13
-3.7346e-13
-3.6331e-13
-3.56899e-13
-3.5061e-13
-3.43612e-13
-3.31416e-13
-3.24414e-13
-3.14876e-13
-3.09992e-13
-3.09419e-13
-3.02822e-13
-2.9398e-13
-2.84399e-13
-2.78946e-13
-2.71306e-13
-2.60998e-13
-2.52398e-13
-2.44709e-13
-2.35482e-13
-2.28429e-13
-2.20025e-13
-2.13084e-13
-2.05941e-13
-1.97025e-13
-1.89595e-13
-1.83464e-13
-1.78473e-13
-1.75495e-13
-1.68499e-13
-1.58999e-13
-1.49251e-13
-1.42067e-13
-1.36197e-13
-1.25033e-13
-1.15379e-13
-1.11321e-13
-1.06616e-13
-1.00166e-13
-9.2417e-14
-8.49737e-14
-8.07965e-14
-7.90799e-14
-7.33069e-14
-6.77521e-14
-5.53399e-14
-4.60407e-14
-3.93289e-14
-3.19335e-14
-2.19346e-14
-1.461e-14
-5.24348e-15
-7.07187e-13
-7.11887e-13
-7.08239e-13
-7.0321e-13
-6.99259e-13
-7.03015e-13
-7.03358e-13
-7.01877e-13
-6.95194e-13
-6.87266e-13
-6.78195e-13
-6.72328e-13
-6.6207e-13
-6.53397e-13
-6.5206e-13
-6.46121e-13
-6.34735e-13
-6.23458e-13
-6.09947e-13
-5.96925e-13
-5.91801e-13
-5.84483e-13
-5.69566e-13
-5.5995e-13
-5.57604e-13
-5.54869e-13
-5.50457e-13
-5.41933e-13
-5.33131e-13
-5.24276e-13
-5.15793e-13
-5.08941e-13
-4.99906e-13
-4.93533e-13
-4.87788e-13
-4.86015e-13
-4.76813e-13
-4.65798e-13
-4.5429e-13
-4.46768e-13
-4.43893e-13
-4.43672e-13
-4.36774e-13
-4.28315e-13
-4.17544e-13
-4.07704e-13
-3.99802e-13
-3.94243e-13
-3.86326e-13
-3.77351e-13
-3.67161e-13
-3.60194e-13
-3.51817e-13
-3.42777e-13
-3.32327e-13
-3.22877e-13
-3.16231e-13
-3.11672e-13
-3.08226e-13
-3.01093e-13
-2.93525e-13
-2.8491e-13
-2.76392e-13
-2.70197e-13
-2.64864e-13
-2.58239e-13
-2.50194e-13
-2.37056e-13
-2.28001e-13
-2.1757e-13
-2.09122e-13
-2.02835e-13
-1.96588e-13
-1.89853e-13
-1.79929e-13
-1.75219e-13
-1.73471e-13
-1.68257e-13
-1.61369e-13
-1.51272e-13
-1.43566e-13
-1.38502e-13
-1.25494e-13
-1.14712e-13
-1.07787e-13
-1.03027e-13
-9.95121e-14
-9.54666e-14
-8.74859e-14
-8.24544e-14
-7.79037e-14
-7.29615e-14
-6.53665e-14
-5.95196e-14
-5.11909e-14
-3.99182e-14
-3.22006e-14
-2.44082e-14
-1.41555e-14
-2.80398e-15
-7.03536e-13
-7.13727e-13
-7.10114e-13
-7.00228e-13
-7.04143e-13
-7.0841e-13
-7.06636e-13
-7.02255e-13
-6.93378e-13
-6.79119e-13
-6.75256e-13
-6.70945e-13
-6.66763e-13
-6.55822e-13
-6.48769e-13
-6.4822e-13
-6.36871e-13
-6.26153e-13
-6.14743e-13
-6.00302e-13
-5.89535e-13
-5.77682e-13
-5.59723e-13
-5.56432e-13
-5.58093e-13
-5.58328e-13
-5.50353e-13
-5.4045e-13
-5.32025e-13
-5.27767e-13
-5.17744e-13
-5.08105e-13
-4.99362e-13
-4.96921e-13
-4.93995e-13
-4.84822e-13
-4.74361e-13
-4.65368e-13
-4.5455e-13
-4.49457e-13
-4.46896e-13
-4.44242e-13
-4.35084e-13
-4.28893e-13
-4.17894e-13
-4.05414e-13
-3.95362e-13
-3.90177e-13
-3.86398e-13
-3.77184e-13
-3.69791e-13
-3.59509e-13
-3.50022e-13
-3.40449e-13
-3.30701e-13
-3.24734e-13
-3.19127e-13
-3.13164e-13
-3.06414e-13
-3.02105e-13
-2.95582e-13
-2.85787e-13
-2.77592e-13
-2.70266e-13
-2.60849e-13
-2.56348e-13
-2.51182e-13
-2.38289e-13
-2.29074e-13
-2.20897e-13
-2.10803e-13
-2.03212e-13
-1.98105e-13
-1.92024e-13
-1.82072e-13
-1.77885e-13
-1.72066e-13
-1.64839e-13
-1.60051e-13
-1.53918e-13
-1.46458e-13
-1.3757e-13
-1.23098e-13
-1.12204e-13
-1.08325e-13
-1.05697e-13
-1.02036e-13
-9.31961e-14
-8.65752e-14
-8.21108e-14
-7.74246e-14
-7.31344e-14
-6.35165e-14
-5.89387e-14
-5.16274e-14
-4.37395e-14
-3.2263e-14
-2.30239e-14
-1.19755e-14
-1.55657e-15
-7.09271e-13
-7.10365e-13
-7.09703e-13
-7.05959e-13
-7.03292e-13
-7.06966e-13
-7.06343e-13
-6.9977e-13
-6.91377e-13
-6.79585e-13
-6.70989e-13
-6.6994e-13
-6.69034e-13
-6.57345e-13
-6.50152e-13
-6.44886e-13
-6.40677e-13
-6.31829e-13
-6.11797e-13
-5.9276e-13
-5.7599e-13
-5.7257e-13
-5.70722e-13
-5.68559e-13
-5.64167e-13
-5.57882e-13
-5.46607e-13
-5.37576e-13
-5.34109e-13
-5.2973e-13
-5.20982e-13
-5.0722e-13
-5.00691e-13
-4.9245e-13
-4.87703e-13
-4.82153e-13
-4.76277e-13
-4.71249e-13
-4.60318e-13
-4.48094e-13
-4.41339e-13
-4.37263e-13
-4.32674e-13
-4.287e-13
-4.22005e-13
-4.11152e-13
-3.99138e-13
-3.89381e-13
-3.8299e-13
-3.76652e-13
-3.69003e-13
-3.62823e-13
-3.5351e-13
-3.40919e-13
-3.32234e-13
-3.25911e-13
-3.1904e-13
-3.07144e-13
-3.02215e-13
-3.01253e-13
-3.00018e-13
-2.91809e-13
-2.80193e-13
-2.67555e-13
-2.57736e-13
-2.52913e-13
-2.45399e-13
-2.33577e-13
-2.24185e-13
-2.19991e-13
-2.19818e-13
-2.10163e-13
-1.99581e-13
-1.95035e-13
-1.85081e-13
-1.75726e-13
-1.67968e-13
-1.61103e-13
-1.55591e-13
-1.51727e-13
-1.45456e-13
-1.36654e-13
-1.28573e-13
-1.19187e-13
-1.12648e-13
-1.01815e-13
-9.87177e-14
-9.54108e-14
-8.69154e-14
-8.39475e-14
-7.69143e-14
-6.82995e-14
-6.3968e-14
-5.86078e-14
-5.22109e-14
-4.10279e-14
-3.20352e-14
-2.16052e-14
-1.18968e-14
-3.9156e-15
-7.08917e-13
-7.08741e-13
-7.06387e-13
-7.06776e-13
-7.09823e-13
-7.0955e-13
-7.06425e-13
-6.99342e-13
-6.89872e-13
-6.81252e-13
-6.74707e-13
-6.68656e-13
-6.65118e-13
-6.55173e-13
-6.50986e-13
-6.4462e-13
-6.4085e-13
-6.30887e-13
-6.06383e-13
-5.93954e-13
-5.89734e-13
-5.82891e-13
-5.72289e-13
-5.62279e-13
-5.59317e-13
-5.53297e-13
-5.41648e-13
-5.35263e-13
-5.30995e-13
-5.27044e-13
-5.20582e-13
-5.13214e-13
-5.07081e-13
-5.00743e-13
-4.88768e-13
-4.80962e-13
-4.74943e-13
-4.65916e-13
-4.5755e-13
-4.48207e-13
-4.42882e-13
-4.41674e-13
-4.34377e-13
-4.32923e-13
-4.26784e-13
-4.11295e-13
-3.95326e-13
-3.80631e-13
-3.79386e-13
-3.78859e-13
-3.74782e-13
-3.66525e-13
-3.53126e-13
-3.40982e-13
-3.29581e-13
-3.22915e-13
-3.19474e-13
-3.13704e-13
-3.04545e-13
-2.97905e-13
-2.95116e-13
-2.88382e-13
-2.81121e-13
-2.7253e-13
-2.63933e-13
-2.55169e-13
-2.45986e-13
-2.35455e-13
-2.29626e-13
-2.22643e-13
-2.15264e-13
-2.10089e-13
-1.9866e-13
-1.86e-13
-1.78615e-13
-1.76525e-13
-1.72268e-13
-1.65115e-13
-1.60977e-13
-1.55093e-13
-1.46073e-13
-1.36842e-13
-1.24599e-13
-1.13527e-13
-1.04801e-13
-1.01253e-13
-9.97932e-14
-9.70217e-14
-8.93564e-14
-8.23379e-14
-7.43357e-14
-6.893e-14
-6.44943e-14
-5.98419e-14
-5.04816e-14
-3.9352e-14
-3.2251e-14
-2.30982e-14
-1.32651e-14
-2.17497e-15
-7.11564e-13
-7.13793e-13
-7.08167e-13
-7.0089e-13
-7.05682e-13
-7.0894e-13
-7.08848e-13
-7.00925e-13
-6.87012e-13
-6.83148e-13
-6.75732e-13
-6.65019e-13
-6.58898e-13
-6.54846e-13
-6.51698e-13
-6.47361e-13
-6.40411e-13
-6.28493e-13
-6.10052e-13
-5.9647e-13
-5.88795e-13
-5.80513e-13
-5.76751e-13
-5.68964e-13
-5.58936e-13
-5.48962e-13
-5.40796e-13
-5.35544e-13
-5.34403e-13
-5.28361e-13
-5.2153e-13
-5.14333e-13
-5.0368e-13
-4.93193e-13
-4.89366e-13
-4.82083e-13
-4.7364e-13
-4.64537e-13
-4.60281e-13
-4.5526e-13
-4.49613e-13
-4.42767e-13
-4.3107e-13
-4.22335e-13
-4.19206e-13
-4.11926e-13
-4.01194e-13
-3.89945e-13
-3.83177e-13
-3.75915e-13
-3.6884e-13
-3.61574e-13
-3.51493e-13
-3.42405e-13
-3.34223e-13
-3.29129e-13
-3.20409e-13
-3.13305e-13
-3.05262e-13
-2.98716e-13
-2.92077e-13
-2.8561e-13
-2.79557e-13
-2.71791e-13
-2.60945e-13
-2.50553e-13
-2.44217e-13
-2.36158e-13
-2.28409e-13
-2.21275e-13
-2.13868e-13
-2.10618e-13
-2.0308e-13
-1.92782e-13
-1.81404e-13
-1.77011e-13
-1.73157e-13
-1.66697e-13
-1.61492e-13
-1.52212e-13
-1.46738e-13
-1.37745e-13
-1.24797e-13
-1.15159e-13
-1.0719e-13
-1.02157e-13
-1.00784e-13
-9.61982e-14
-8.86029e-14
-8.23409e-14
-7.41228e-14
-6.79511e-14
-6.13364e-14
-5.69021e-14
-5.01128e-14
-4.07785e-14
-3.06394e-14
-1.88704e-14
-8.80502e-15
8.66703e-16
-7.11823e-13
-7.1109e-13
-7.10801e-13
-7.07756e-13
-7.04119e-13
-7.06869e-13
-7.05008e-13
-7.0387e-13
-6.95105e-13
-6.79024e-13
-6.70106e-13
-6.62061e-13
-6.60263e-13
-6.58391e-13
-6.53777e-13
-6.46626e-13
-6.35892e-13
-6.28422e-13
-6.17532e-13
-6.01408e-13
-5.88978e-13
-5.75903e-13
-5.70723e-13
-5.633e-13
-5.60808e-13
-5.54664e-13
-5.44002e-13
-5.38255e-13
-5.32778e-13
-5.27923e-13
-5.22912e-13
-5.14348e-13
-5.03641e-13
-4.91939e-13
-4.85667e-13
-4.80468e-13
-4.76442e-13
-4.66297e-13
-4.60641e-13
-4.55764e-13
-4.46221e-13
-4.36847e-13
-4.30438e-13
-4.22985e-13
-4.22089e-13
-4.16411e-13
-4.05489e-13
-3.92381e-13
-3.83247e-13
-3.72957e-13
-3.65443e-13
-3.61491e-13
-3.53304e-13
-3.43723e-13
-3.34843e-13
-3.26963e-13
-3.19649e-13
-3.12083e-13
-3.05013e-13
-3.01189e-13
-2.96131e-13
-2.92516e-13
-2.84991e-13
-2.72353e-13
-2.57449e-13
-2.42821e-13
-2.3585e-13
-2.31089e-13
-2.27665e-13
-2.27919e-13
-2.21961e-13
-2.13463e-13
-2.06188e-13
-1.95611e-13
-1.82836e-13
-1.73988e-13
-1.69636e-13
-1.64293e-13
-1.60496e-13
-1.52219e-13
-1.46212e-13
-1.38078e-13
-1.26628e-13
-1.18867e-13
-1.09922e-13
-1.01292e-13
-9.70081e-14
-9.11753e-14
-8.77795e-14
-8.34207e-14
-7.26095e-14
-6.35936e-14
-5.85064e-14
-5.39074e-14
-4.50676e-14
-3.59437e-14
-2.7015e-14
-1.6805e-14
-6.47544e-15
-2.1818e-16
-7.10136e-13
-7.09486e-13
-7.08691e-13
-7.10078e-13
-7.10317e-13
-7.04641e-13
-7.02546e-13
-6.99961e-13
-6.93299e-13
-6.84914e-13
-6.70808e-13
-6.60443e-13
-6.5968e-13
-6.59286e-13
-6.53924e-13
-6.49496e-13
-6.36181e-13
-6.2686e-13
-6.17608e-13
-6.03012e-13
-5.9354e-13
-5.77233e-13
-5.66576e-13
-5.6211e-13
-5.5568e-13
-5.50786e-13
-5.46547e-13
-5.39896e-13
-5.3473e-13
-5.30263e-13
-5.21919e-13
-5.12901e-13
-5.02575e-13
-4.94427e-13
-4.90024e-13
-4.81759e-13
-4.73368e-13
-4.66675e-13
-4.62771e-13
-4.54188e-13
-4.45798e-13
-4.36404e-13
-4.30202e-13
-4.28309e-13
-4.25905e-13
-4.14942e-13
-4.01883e-13
-3.88463e-13
-3.79691e-13
-3.71377e-13
-3.68694e-13
-3.63489e-13
-3.52862e-13
-3.43183e-13
-3.33116e-13
-3.29801e-13
-3.22662e-13
-3.14602e-13
-3.03987e-13
-2.94575e-13
-2.92962e-13
-2.85003e-13
-2.79338e-13
-2.75262e-13
-2.60569e-13
-2.45763e-13
-2.35621e-13
-2.304e-13
-2.28154e-13
-2.31408e-13
-2.2361e-13
-2.1623e-13
-2.07003e-13
-1.94568e-13
-1.80551e-13
-1.69936e-13
-1.69313e-13
-1.68499e-13
-1.64734e-13
-1.56302e-13
-1.50578e-13
-1.4198e-13
-1.26386e-13
-1.15088e-13
-1.04282e-13
-9.54498e-14
-9.81124e-14
-9.65558e-14
-8.85781e-14
-8.17652e-14
-7.10676e-14
-6.49622e-14
-5.80974e-14
-5.18923e-14
-4.69317e-14
-3.94533e-14
-2.29225e-14
-7.39251e-15
1.4329e-15
-1.77215e-15
-7.13834e-13
-7.11794e-13
-7.09483e-13
-7.11371e-13
-7.09685e-13
-7.04328e-13
-7.04325e-13
-7.0088e-13
-6.92745e-13
-6.81711e-13
-6.72761e-13
-6.64276e-13
-6.55922e-13
-6.52446e-13
-6.48709e-13
-6.4251e-13
-6.39698e-13
-6.32922e-13
-6.2017e-13
-6.04675e-13
-5.92838e-13
-5.84784e-13
-5.73147e-13
-5.62835e-13
-5.55565e-13
-5.44937e-13
-5.41528e-13
-5.38968e-13
-5.3616e-13
-5.33125e-13
-5.24515e-13
-5.13757e-13
-5.01181e-13
-4.91927e-13
-4.8621e-13
-4.79297e-13
-4.75741e-13
-4.6968e-13
-4.65336e-13
-4.52466e-13
-4.44369e-13
-4.33385e-13
-4.29879e-13
-4.30875e-13
-4.2403e-13
-4.15023e-13
-4.02861e-13
-3.92413e-13
-3.81154e-13
-3.71311e-13
-3.64101e-13
-3.61326e-13
-3.52615e-13
-3.46279e-13
-3.38751e-13
-3.28814e-13
-3.20566e-13
-3.11906e-13
-3.0372e-13
-2.97854e-13
-2.95711e-13
-2.9579e-13
-2.84386e-13
-2.7174e-13
-2.52179e-13
-2.41849e-13
-2.35421e-13
-2.32731e-13
-2.28366e-13
-2.26733e-13
-2.20535e-13
-2.19945e-13
-2.13999e-13
-2.0101e-13
-1.79138e-13
-1.6217e-13
-1.61913e-13
-1.69805e-13
-1.67489e-13
-1.56488e-13
-1.49637e-13
-1.38981e-13
-1.28898e-13
-1.20203e-13
-1.09822e-13
-9.8702e-14
-9.25716e-14
-9.20348e-14
-8.69247e-14
-8.03084e-14
-6.89293e-14
-6.42454e-14
-5.82136e-14
-5.06816e-14
-4.22618e-14
-3.51116e-14
-2.18141e-14
-9.48972e-15
-2.81276e-15
-2.03617e-15
-7.11308e-13
-7.11187e-13
-7.03106e-13
-7.12785e-13
-7.12346e-13
-7.09095e-13
-7.02726e-13
-6.95383e-13
-6.8746e-13
-6.76331e-13
-6.70976e-13
-6.65523e-13
-6.64731e-13
-6.58168e-13
-6.51069e-13
-6.46621e-13
-6.41753e-13
-6.3457e-13
-6.21323e-13
-6.06088e-13
-5.85751e-13
-5.71156e-13
-5.61366e-13
-5.60199e-13
-5.55913e-13
-5.51718e-13
-5.44983e-13
-5.38629e-13
-5.37074e-13
-5.35234e-13
-5.27962e-13
-5.14654e-13
-5.04365e-13
-4.96248e-13
-4.91956e-13
-4.8142e-13
-4.72108e-13
-4.67872e-13
-4.62425e-13
-4.52311e-13
-4.43089e-13
-4.39259e-13
-4.35035e-13
-4.29446e-13
-4.17716e-13
-4.0852e-13
-4.00956e-13
-3.92945e-13
-3.83498e-13
-3.75353e-13
-3.68407e-13
-3.61676e-13
-3.49721e-13
-3.39102e-13
-3.41172e-13
-3.40509e-13
-3.24153e-13
-3.08726e-13
-2.99987e-13
-2.9135e-13
-2.88985e-13
-2.86277e-13
-2.85374e-13
-2.75e-13
-2.57366e-13
-2.47776e-13
-2.34432e-13
-2.33515e-13
-2.2862e-13
-2.2364e-13
-2.20281e-13
-2.20868e-13
-2.15051e-13
-1.98643e-13
-1.8069e-13
-1.67596e-13
-1.65686e-13
-1.7031e-13
-1.63789e-13
-1.5426e-13
-1.47616e-13
-1.39968e-13
-1.31917e-13
-1.2217e-13
-1.11223e-13
-9.81458e-14
-9.2737e-14
-9.27477e-14
-8.59592e-14
-7.8754e-14
-6.96964e-14
-6.25827e-14
-5.45017e-14
-4.84888e-14
-4.28273e-14
-3.39468e-14
-2.22029e-14
-1.15502e-14
-1.81665e-15
2.31655e-16
-7.07929e-13
-7.18665e-13
-7.13332e-13
-7.0803e-13
-7.08474e-13
-7.06762e-13
-7.01885e-13
-7.00155e-13
-6.88159e-13
-6.7249e-13
-6.68397e-13
-6.66097e-13
-6.63142e-13
-6.58734e-13
-6.53857e-13
-6.43466e-13
-6.32395e-13
-6.23877e-13
-6.17935e-13
-6.08933e-13
-6.02e-13
-5.9295e-13
-5.79148e-13
-5.60001e-13
-5.45438e-13
-5.39316e-13
-5.42199e-13
-5.40739e-13
-5.39018e-13
-5.37746e-13
-5.28953e-13
-5.15841e-13
-4.99778e-13
-4.87191e-13
-4.82257e-13
-4.78168e-13
-4.78779e-13
-4.7512e-13
-4.63475e-13
-4.57422e-13
-4.46212e-13
-4.35522e-13
-4.3354e-13
-4.26282e-13
-4.17204e-13
-4.08012e-13
-3.98004e-13
-3.92914e-13
-3.87898e-13
-3.7817e-13
-3.69782e-13
-3.59419e-13
-3.51385e-13
-3.43788e-13
-3.38844e-13
-3.33121e-13
-3.2617e-13
-3.19104e-13
-3.101e-13
-2.97646e-13
-2.87683e-13
-2.80834e-13
-2.75088e-13
-2.69249e-13
-2.58708e-13
-2.50185e-13
-2.41419e-13
-2.34826e-13
-2.29242e-13
-2.26821e-13
-2.22955e-13
-2.15189e-13
-2.07749e-13
-1.99868e-13
-1.84278e-13
-1.73139e-13
-1.6644e-13
-1.6495e-13
-1.63575e-13
-1.55197e-13
-1.48482e-13
-1.37799e-13
-1.30778e-13
-1.21172e-13
-1.09954e-13
-1.00259e-13
-9.55083e-14
-9.12987e-14
-8.72974e-14
-7.83121e-14
-7.00133e-14
-6.60519e-14
-5.74562e-14
-4.81339e-14
-3.7525e-14
-2.86226e-14
-2.07519e-14
-1.31079e-14
-4.8486e-15
-2.13863e-16
-7.07556e-13
-7.11905e-13
-7.14513e-13
-7.10209e-13
-7.09097e-13
-7.10209e-13
-6.9862e-13
-6.86007e-13
-6.80173e-13
-6.77756e-13
-6.7484e-13
-6.7029e-13
-6.6686e-13
-6.60599e-13
-6.54321e-13
-6.45013e-13
-6.38058e-13
-6.33626e-13
-6.23497e-13
-6.08545e-13
-5.8726e-13
-5.73236e-13
-5.63047e-13
-5.52446e-13
-5.53796e-13
-5.52779e-13
-5.48201e-13
-5.41225e-13
-5.37192e-13
-5.3656e-13
-5.30947e-13
-5.1953e-13
-5.06009e-13
-4.87668e-13
-4.76841e-13
-4.78798e-13
-4.80626e-13
-4.76803e-13
-4.69994e-13
-4.58707e-13
-4.43509e-13
-4.34449e-13
-4.26933e-13
-4.2172e-13
-4.16422e-13
-4.11153e-13
-4.0388e-13
-3.94469e-13
-3.87581e-13
-3.85608e-13
-3.76219e-13
-3.57024e-13
-3.4563e-13
-3.38246e-13
-3.32309e-13
-3.31084e-13
-3.27283e-13
-3.18276e-13
-3.05097e-13
-2.94259e-13
-2.91031e-13
-2.86412e-13
-2.78875e-13
-2.69188e-13
-2.54241e-13
-2.4344e-13
-2.39614e-13
-2.37733e-13
-2.33334e-13
-2.26659e-13
-2.1962e-13
-2.15359e-13
-2.08461e-13
-1.98484e-13
-1.85918e-13
-1.69725e-13
-1.65347e-13
-1.63966e-13
-1.65655e-13
-1.61157e-13
-1.52379e-13
-1.41921e-13
-1.30716e-13
-1.1829e-13
-1.07985e-13
-1.00937e-13
-9.66089e-14
-9.10099e-14
-8.46683e-14
-7.74981e-14
-7.05212e-14
-6.4764e-14
-5.83558e-14
-4.82307e-14
-3.67123e-14
-2.56621e-14
-1.64239e-14
-1.01859e-14
-2.85786e-15
-1.11325e-15
-7.06111e-13
-7.16077e-13
-7.17045e-13
-7.11152e-13
-7.07682e-13
-7.13753e-13
-7.09302e-13
-6.9335e-13
-6.73084e-13
-6.6813e-13
-6.67051e-13
-6.68372e-13
-6.67244e-13
-6.63763e-13
-6.58185e-13
-6.46408e-13
-6.36227e-13
-6.27345e-13
-6.13639e-13
-6.04473e-13
-5.9553e-13
-5.81889e-13
-5.68999e-13
-5.53739e-13
-5.52927e-13
-5.51394e-13
-5.50261e-13
-5.45893e-13
-5.37961e-13
-5.35833e-13
-5.2726e-13
-5.14742e-13
-5.04794e-13
-4.88845e-13
-4.76321e-13
-4.76067e-13
-4.78526e-13
-4.77733e-13
-4.69435e-13
-4.59468e-13
-4.42965e-13
-4.33452e-13
-4.30858e-13
-4.24654e-13
-4.16662e-13
-4.08883e-13
-4.06438e-13
-3.99146e-13
-3.87379e-13
-3.74999e-13
-3.66313e-13
-3.6019e-13
-3.4998e-13
-3.36336e-13
-3.3757e-13
-3.35162e-13
-3.26999e-13
-3.20308e-13
-3.12209e-13
-2.96811e-13
-2.89196e-13
-2.81959e-13
-2.73649e-13
-2.65808e-13
-2.53809e-13
-2.462e-13
-2.36949e-13
-2.34536e-13
-2.29828e-13
-2.30179e-13
-2.2246e-13
-2.1901e-13
-2.12309e-13
-1.97974e-13
-1.82957e-13
-1.70769e-13
-1.68749e-13
-1.66651e-13
-1.61431e-13
-1.56734e-13
-1.51096e-13
-1.42306e-13
-1.31756e-13
-1.1892e-13
-1.11701e-13
-1.05104e-13
-9.74174e-14
-9.02367e-14
-8.45088e-14
-7.65589e-14
-6.91791e-14
-6.2638e-14
-5.40666e-14
-4.44262e-14
-3.64228e-14
-2.9391e-14
-1.44684e-14
-7.02626e-15
5.05499e-17
1.87036e-16
-7.14021e-13
-7.1295e-13
-7.09295e-13
-7.05046e-13
-7.06506e-13
-7.00834e-13
-6.95529e-13
-6.96995e-13
-6.91454e-13
-6.82694e-13
-6.7676e-13
-6.66815e-13
-6.60125e-13
-6.58873e-13
-6.56712e-13
-6.48263e-13
-6.38536e-13
-6.35475e-13
-6.22743e-13
-6.04415e-13
-5.83137e-13
-5.69008e-13
-5.63281e-13
-5.61708e-13
-5.54717e-13
-5.54501e-13
-5.50561e-13
-5.43803e-13
-5.38534e-13
-5.33959e-13
-5.26956e-13
-5.14398e-13
-5.0155e-13
-4.88138e-13
-4.79839e-13
-4.79401e-13
-4.8401e-13
-4.77901e-13
-4.68788e-13
-4.57446e-13
-4.43569e-13
-4.30409e-13
-4.28302e-13
-4.25733e-13
-4.21949e-13
-4.10368e-13
-4.00857e-13
-3.96785e-13
-3.91249e-13
-3.78642e-13
-3.65397e-13
-3.59674e-13
-3.51631e-13
-3.40644e-13
-3.31947e-13
-3.29801e-13
-3.24408e-13
-3.1938e-13
-3.13101e-13
-3.02581e-13
-2.91299e-13
-2.82553e-13
-2.72939e-13
-2.64949e-13
-2.58369e-13
-2.47557e-13
-2.37382e-13
-2.29036e-13
-2.26705e-13
-2.3006e-13
-2.22022e-13
-2.17224e-13
-2.10173e-13
-1.9874e-13
-1.8758e-13
-1.7473e-13
-1.6469e-13
-1.61103e-13
-1.60748e-13
-1.62798e-13
-1.56836e-13
-1.41211e-13
-1.30553e-13
-1.17355e-13
-1.12519e-13
-1.07578e-13
-9.9973e-14
-8.93776e-14
-7.99458e-14
-7.5463e-14
-6.94357e-14
-6.22476e-14
-5.60637e-14
-4.69896e-14
-3.5324e-14
-2.4391e-14
-1.47676e-14
-8.47424e-15
-5.34005e-16
1.60103e-15
-7.13677e-13
-7.12255e-13
-7.09802e-13
-7.07465e-13
-7.13634e-13
-7.10525e-13
-6.95886e-13
-6.88578e-13
-6.82821e-13
-6.79089e-13
-6.77883e-13
-6.74973e-13
-6.62216e-13
-6.54558e-13
-6.50987e-13
-6.45445e-13
-6.40344e-13
-6.3264e-13
-6.19e-13
-6.01609e-13
-5.86399e-13
-5.70843e-13
-5.61121e-13
-5.62139e-13
-5.62667e-13
-5.54107e-13
-5.46367e-13
-5.44143e-13
-5.41987e-13
-5.36819e-13
-5.2952e-13
-5.16541e-13
-5.01902e-13
-4.87313e-13
-4.76296e-13
-4.77963e-13
-4.7757e-13
-4.75461e-13
-4.72743e-13
-4.6283e-13
-4.47776e-13
-4.34632e-13
-4.27677e-13
-4.19757e-13
-4.17629e-13
-4.12172e-13
-4.0337e-13
-3.93504e-13
-3.86363e-13
-3.78808e-13
-3.66187e-13
-3.60495e-13
-3.52115e-13
-3.41942e-13
-3.38652e-13
-3.34284e-13
-3.22456e-13
-3.12938e-13
-3.0785e-13
-2.99318e-13
-2.93551e-13
-2.82886e-13
-2.73959e-13
-2.66316e-13
-2.57191e-13
-2.46238e-13
-2.3967e-13
-2.29415e-13
-2.23685e-13
-2.21659e-13
-2.20651e-13
-2.18342e-13
-2.12218e-13
-1.98808e-13
-1.86135e-13
-1.76124e-13
-1.70204e-13
-1.63827e-13
-1.63275e-13
-1.60497e-13
-1.53612e-13
-1.43436e-13
-1.32221e-13
-1.20864e-13
-1.1151e-13
-1.0211e-13
-9.54143e-14
-9.10508e-14
-8.51465e-14
-7.58563e-14
-6.85847e-14
-6.11817e-14
-5.29017e-14
-4.39769e-14
-3.36988e-14
-2.65405e-14
-1.67125e-14
-6.2174e-15
-2.34837e-16
-7.2265e-17
-7.08283e-13
-7.11603e-13
-7.11685e-13
-7.09999e-13
-7.08109e-13
-7.01181e-13
-6.95829e-13
-6.9195e-13
-6.90464e-13
-6.85144e-13
-6.78932e-13
-6.73738e-13
-6.65145e-13
-6.55905e-13
-6.49436e-13
-6.41258e-13
-6.3834e-13
-6.31211e-13
-6.17474e-13
-6.04092e-13
-5.85855e-13
-5.71735e-13
-5.67048e-13
-5.63541e-13
-5.54817e-13
-5.50875e-13
-5.51172e-13
-5.48969e-13
-5.41499e-13
-5.31755e-13
-5.23835e-13
-5.14996e-13
-5.01571e-13
-4.8865e-13
-4.78693e-13
-4.84098e-13
-4.86163e-13
-4.7807e-13
-4.67474e-13
-4.54996e-13
-4.43914e-13
-4.37388e-13
-4.2987e-13
-4.1979e-13
-4.14479e-13
-4.07672e-13
-4.06122e-13
-4.04366e-13
-3.89326e-13
-3.75263e-13
-3.6435e-13
-3.61747e-13
-3.52356e-13
-3.41332e-13
-3.37507e-13
-3.34459e-13
-3.25934e-13
-3.14205e-13
-3.05269e-13
-2.98732e-13
-2.96058e-13
-2.86542e-13
-2.75166e-13
-2.64886e-13
-2.52986e-13
-2.45665e-13
-2.36268e-13
-2.3103e-13
-2.2449e-13
-2.20181e-13
-2.16401e-13
-2.17904e-13
-2.12833e-13
-1.98809e-13
-1.8629e-13
-1.76108e-13
-1.72337e-13
-1.66936e-13
-1.58821e-13
-1.51574e-13
-1.56714e-13
-1.51587e-13
-1.34156e-13
-1.21283e-13
-1.11908e-13
-1.01448e-13
-9.36604e-14
-9.06418e-14
-8.48085e-14
-7.61638e-14
-6.8095e-14
-6.11082e-14
-5.39981e-14
-4.25291e-14
-3.63619e-14
-2.52781e-14
-1.38897e-14
-4.36442e-15
7.84456e-16
-4.60763e-16
-7.16423e-13
-7.13042e-13
-7.11006e-13
-7.07576e-13
-7.02074e-13
-6.99039e-13
-6.95604e-13
-6.95439e-13
-6.91938e-13
-6.85515e-13
-6.78233e-13
-6.73478e-13
-6.66635e-13
-6.60419e-13
-6.518e-13
-6.39477e-13
-6.28441e-13
-6.21954e-13
-6.17166e-13
-6.08217e-13
-5.88484e-13
-5.76243e-13
-5.67156e-13
-5.60245e-13
-5.57287e-13
-5.53683e-13
-5.5258e-13
-5.4924e-13
-5.39639e-13
-5.3501e-13
-5.25224e-13
-5.14169e-13
-4.99597e-13
-4.86619e-13
-4.81368e-13
-4.83384e-13
-4.8218e-13
-4.76447e-13
-4.67534e-13
-4.56158e-13
-4.44199e-13
-4.34863e-13
-4.30568e-13
-4.24478e-13
-4.19603e-13
-4.12397e-13
-4.01518e-13
-3.93985e-13
-3.88554e-13
-3.80002e-13
-3.72424e-13
-3.61542e-13
-3.51032e-13
-3.42185e-13
-3.3572e-13
-3.28539e-13
-3.23886e-13
-3.1626e-13
-3.04635e-13
-2.9873e-13
-2.96989e-13
-2.88627e-13
-2.76559e-13
-2.62975e-13
-2.54321e-13
-2.4573e-13
-2.36213e-13
-2.29185e-13
-2.24225e-13
-2.20321e-13
-2.18152e-13
-2.1786e-13
-2.11536e-13
-1.95317e-13
-1.85196e-13
-1.76554e-13
-1.7182e-13
-1.66741e-13
-1.62865e-13
-1.58865e-13
-1.53117e-13
-1.44946e-13
-1.35583e-13
-1.25855e-13
-1.17505e-13
-1.01072e-13
-9.23019e-14
-8.75114e-14
-8.48045e-14
-7.26526e-14
-6.50588e-14
-6.00354e-14
-5.83641e-14
-4.46528e-14
-3.23645e-14
-2.44237e-14
-1.56773e-14
-1.54734e-15
-3.34102e-17
-1.85846e-15
-7.19412e-13
-7.12577e-13
-7.06262e-13
-7.07044e-13
-6.98459e-13
-6.99526e-13
-6.96013e-13
-6.9668e-13
-6.95711e-13
-6.84406e-13
-6.77481e-13
-6.74003e-13
-6.72037e-13
-6.61805e-13
-6.5202e-13
-6.43012e-13
-6.33638e-13
-6.22739e-13
-6.16431e-13
-6.01215e-13
-5.88361e-13
-5.75527e-13
-5.63949e-13
-5.58541e-13
-5.55168e-13
-5.57622e-13
-5.53905e-13
-5.48038e-13
-5.40646e-13
-5.32831e-13
-5.25604e-13
-5.16134e-13
-5.00048e-13
-4.89816e-13
-4.8002e-13
-4.78327e-13
-4.80167e-13
-4.76813e-13
-4.68145e-13
-4.57266e-13
-4.47652e-13
-4.38612e-13
-4.30232e-13
-4.23739e-13
-4.17691e-13
-4.1041e-13
-4.01049e-13
-3.96351e-13
-3.91712e-13
-3.80232e-13
-3.68841e-13
-3.57214e-13
-3.50519e-13
-3.4537e-13
-3.39367e-13
-3.32764e-13
-3.25393e-13
-3.14673e-13
-3.07535e-13
-3.02785e-13
-2.9781e-13
-2.87165e-13
-2.72006e-13
-2.6136e-13
-2.52349e-13
-2.43306e-13
-2.34001e-13
-2.30305e-13
-2.23678e-13
-2.24442e-13
-2.19246e-13
-2.13786e-13
-2.04372e-13
-1.92519e-13
-1.83436e-13
-1.7479e-13
-1.75559e-13
-1.74466e-13
-1.65015e-13
-1.56364e-13
-1.50157e-13
-1.42281e-13
-1.34144e-13
-1.24669e-13
-1.11921e-13
-9.89694e-14
-9.38112e-14
-9.05289e-14
-8.38914e-14
-7.90902e-14
-7.29072e-14
-6.08698e-14
-5.03521e-14
-4.18002e-14
-3.25854e-14
-2.18964e-14
-1.39685e-14
-8.69302e-15
-2.74685e-15
-1.54371e-15
-7.17378e-13
-7.10803e-13
-7.09287e-13
-7.07405e-13
-7.0335e-13
-6.99519e-13
-6.93207e-13
-6.95692e-13
-6.95e-13
-6.88501e-13
-6.81645e-13
-6.73541e-13
-6.70426e-13
-6.59652e-13
-6.48925e-13
-6.38082e-13
-6.27045e-13
-6.2262e-13
-6.17099e-13
-6.03921e-13
-5.90219e-13
-5.77219e-13
-5.65878e-13
-5.62419e-13
-5.62038e-13
-5.55157e-13
-5.4902e-13
-5.4184e-13
-5.35259e-13
-5.33586e-13
-5.2811e-13
-5.20924e-13
-5.08345e-13
-4.97031e-13
-4.77748e-13
-4.74442e-13
-4.74849e-13
-4.73115e-13
-4.68308e-13
-4.57221e-13
-4.49728e-13
-4.38796e-13
-4.3319e-13
-4.21942e-13
-4.17988e-13
-4.12142e-13
-4.07221e-13
-3.98441e-13
-3.87679e-13
-3.72412e-13
-3.68447e-13
-3.62725e-13
-3.55188e-13
-3.41131e-13
-3.33548e-13
-3.26785e-13
-3.19206e-13
-3.17042e-13
-3.08537e-13
-3.07282e-13
-3.08145e-13
-2.84291e-13
-2.69978e-13
-2.63551e-13
-2.55019e-13
-2.47363e-13
-2.37211e-13
-2.30272e-13
-2.20505e-13
-2.18121e-13
-2.1359e-13
-2.16929e-13
-2.10432e-13
-1.97664e-13
-1.81409e-13
-1.69966e-13
-1.75799e-13
-1.7313e-13
-1.65408e-13
-1.59072e-13
-1.52201e-13
-1.42834e-13
-1.33289e-13
-1.22394e-13
-1.12512e-13
-1.0056e-13
-9.30405e-14
-9.13529e-14
-8.56076e-14
-7.472e-14
-6.60221e-14
-6.03303e-14
-5.16354e-14
-4.11081e-14
-3.73794e-14
-2.93868e-14
-1.44334e-14
-4.28259e-15
2.547e-15
-5.78925e-16
-7.11504e-13
-7.13753e-13
-7.13366e-13
-7.07037e-13
-7.00751e-13
-7.01106e-13
-6.9851e-13
-6.9444e-13
-6.92686e-13
-6.87313e-13
-6.8339e-13
-6.77849e-13
-6.68528e-13
-6.58318e-13
-6.49886e-13
-6.41714e-13
-6.35474e-13
-6.3056e-13
-6.19692e-13
-6.01156e-13
-5.80475e-13
-5.66198e-13
-5.63123e-13
-5.64037e-13
-5.62153e-13
-5.54722e-13
-5.45478e-13
-5.41843e-13
-5.35511e-13
-5.34932e-13
-5.32735e-13
-5.1569e-13
-5.0237e-13
-4.93982e-13
-4.85026e-13
-4.8109e-13
-4.77673e-13
-4.71917e-13
-4.66006e-13
-4.57511e-13
-4.49458e-13
-4.38453e-13
-4.31034e-13
-4.25947e-13
-4.23592e-13
-4.13203e-13
-4.05344e-13
-3.91935e-13
-3.88419e-13
-3.79843e-13
-3.67237e-13
-3.61356e-13
-3.54803e-13
-3.45871e-13
-3.36563e-13
-3.22408e-13
-3.10026e-13
-3.14335e-13
-3.19102e-13
-3.09582e-13
-2.99142e-13
-2.86736e-13
-2.73817e-13
-2.66346e-13