/*--------------------------------*- C++ -*----------------------------------*\
| =========                 |                                                 |
| \\      /  F ield         | OpenFOAM: The Open Source CFD Toolbox           |
|  \\    /   O peration     | Version:  v2012                                 |
|   \\  /    A nd           | Website:  www.openfoam.com                      |
|    \\/     M anipulation  |                                                 |
\*---------------------------------------------------------------------------*/
FoamFile
{
    version     2.0;
    format      ascii;
    class       volVectorField;
    location    "4.5";
    object      U;
}
// * * * * * * * * * * * * * * * * * * * * * * * * * * * * * * * * * * * * * //

dimensions      [0 1 -1 0 0 0 0];


internalField   nonuniform List<vector> 
65536
(
(0.000736741 -0.000736724 0)
(0.00221019 -0.000736688 0)
(0.00368353 -0.000736616 0)
(0.00515669 -0.000736509 0)
(0.0066296 -0.000736366 0)
(0.00810219 -0.000736186 0)
(0.00957438 -0.000735969 0)
(0.0110461 -0.000735713 0)
(0.0125173 -0.000735418 0)
(0.0139878 -0.000735083 0)
(0.0154576 -0.000734706 0)
(0.0169267 -0.000734287 0)
(0.0183948 -0.000733824 0)
(0.019862 -0.000733315 0)
(0.0213281 -0.000732759 0)
(0.0227931 -0.000732153 0)
(0.0242568 -0.000731497 0)
(0.0257191 -0.000730788 0)
(0.02718 -0.000730023 0)
(0.0286393 -0.000729201 0)
(0.0300969 -0.000728319 0)
(0.0315526 -0.000727375 0)
(0.0330064 -0.000726367 0)
(0.0344582 -0.000725291 0)
(0.0359077 -0.000724144 0)
(0.0373548 -0.000722925 0)
(0.0387994 -0.00072163 0)
(0.0402414 -0.000720256 0)
(0.0416805 -0.000718799 0)
(0.0431167 -0.000717258 0)
(0.0445497 -0.000715628 0)
(0.0459793 -0.000713907 0)
(0.0474054 -0.00071209 0)
(0.0488277 -0.000710175 0)
(0.0502462 -0.000708158 0)
(0.0516605 -0.000706036 0)
(0.0530704 -0.000703805 0)
(0.0544758 -0.000701461 0)
(0.0558764 -0.000699002 0)
(0.0572719 -0.000696423 0)
(0.0586622 -0.00069372 0)
(0.0600469 -0.000690891 0)
(0.0614259 -0.000687932 0)
(0.0627988 -0.000684839 0)
(0.0641654 -0.000681609 0)
(0.0655254 -0.000678238 0)
(0.0668785 -0.000674722 0)
(0.0682244 -0.000671059 0)
(0.0695629 -0.000667246 0)
(0.0708936 -0.000663278 0)
(0.0722161 -0.000659153 0)
(0.0735303 -0.000654867 0)
(0.0748358 -0.000650418 0)
(0.0761322 -0.000645804 0)
(0.0774192 -0.00064102 0)
(0.0786964 -0.000636065 0)
(0.0799636 -0.000630935 0)
(0.0812203 -0.00062563 0)
(0.0824663 -0.000620146 0)
(0.0837011 -0.000614482 0)
(0.0849244 -0.000608636 0)
(0.0861358 -0.000602606 0)
(0.087335 -0.000596391 0)
(0.0885216 -0.000589989 0)
(0.0896951 -0.0005834 0)
(0.0908554 -0.000576623 0)
(0.0920018 -0.000569656 0)
(0.0931342 -0.000562501 0)
(0.094252 -0.000555156 0)
(0.095355 -0.000547622 0)
(0.0964427 -0.000539898 0)
(0.0975148 -0.000531987 0)
(0.0985708 -0.000523888 0)
(0.0996105 -0.000515603 0)
(0.100633 -0.000507134 0)
(0.101639 -0.000498481 0)
(0.102628 -0.000489646 0)
(0.103598 -0.000480632 0)
(0.10455 -0.000471442 0)
(0.105484 -0.000462078 0)
(0.106399 -0.000452542 0)
(0.107294 -0.000442839 0)
(0.10817 -0.000432971 0)
(0.109026 -0.000422942 0)
(0.109862 -0.000412757 0)
(0.110677 -0.000402419 0)
(0.111472 -0.000391933 0)
(0.112245 -0.000381304 0)
(0.112997 -0.000370535 0)
(0.113728 -0.000359634 0)
(0.114436 -0.000348604 0)
(0.115122 -0.000337451 0)
(0.115786 -0.000326182 0)
(0.116427 -0.0003148 0)
(0.117045 -0.000303314 0)
(0.11764 -0.000291729 0)
(0.118212 -0.00028005 0)
(0.118761 -0.000268285 0)
(0.119285 -0.00025644 0)
(0.119786 -0.000244521 0)
(0.120264 -0.000232536 0)
(0.120717 -0.000220491 0)
(0.121146 -0.000208392 0)
(0.12155 -0.000196247 0)
(0.121931 -0.000184062 0)
(0.122287 -0.000171845 0)
(0.122618 -0.000159602 0)
(0.122925 -0.00014734 0)
(0.123207 -0.000135066 0)
(0.123465 -0.000122786 0)
(0.123699 -0.000110508 0)
(0.123907 -9.82381e-05 0)
(0.124092 -8.59828e-05 0)
(0.124251 -7.37487e-05 0)
(0.124386 -6.15422e-05 0)
(0.124497 -4.93696e-05 0)
(0.124584 -3.7237e-05 0)
(0.124646 -2.51506e-05 0)
(0.124684 -1.31161e-05 0)
(0.124699 -1.13949e-06 0)
(0.124689 1.07738e-05 0)
(0.124656 2.26183e-05 0)
(0.124598 3.43887e-05 0)
(0.124518 4.608e-05 0)
(0.124414 5.76872e-05 0)
(0.124287 6.92057e-05 0)
(0.124137 8.06308e-05 0)
(0.123964 9.19583e-05 0)
(0.123769 0.000103184 0)
(0.123552 0.000114304 0)
(0.123312 0.000125315 0)
(0.12305 0.000136212 0)
(0.122767 0.000146993 0)
(0.122462 0.000157655 0)
(0.122136 0.000168195 0)
(0.121789 0.000178609 0)
(0.121422 0.000188895 0)
(0.121034 0.000199052 0)
(0.120625 0.000209076 0)
(0.120197 0.000218966 0)
(0.119749 0.00022872 0)
(0.119282 0.000238336 0)
(0.118796 0.000247814 0)
(0.118291 0.000257151 0)
(0.117767 0.000266347 0)
(0.117225 0.0002754 0)
(0.116665 0.000284311 0)
(0.116088 0.000293077 0)
(0.115493 0.0003017 0)
(0.114881 0.000310178 0)
(0.114252 0.000318511 0)
(0.113607 0.0003267 0)
(0.112945 0.000334744 0)
(0.112267 0.000342643 0)
(0.111574 0.000350399 0)
(0.110866 0.00035801 0)
(0.110142 0.000365478 0)
(0.109404 0.000372803 0)
(0.108651 0.000379986 0)
(0.107884 0.000387028 0)
(0.107103 0.000393929 0)
(0.106308 0.000400691 0)
(0.1055 0.000407314 0)
(0.104678 0.000413799 0)
(0.103844 0.000420149 0)
(0.102998 0.000426363 0)
(0.102139 0.000432443 0)
(0.101268 0.00043839 0)
(0.100385 0.000444206 0)
(0.0994908 0.000449892 0)
(0.0985853 0.000455449 0)
(0.0976689 0.00046088 0)
(0.0967417 0.000466184 0)
(0.095804 0.000471364 0)
(0.0948561 0.000476422 0)
(0.0938982 0.000481358 0)
(0.0929306 0.000486175 0)
(0.0919534 0.000490873 0)
(0.0909669 0.000495455 0)
(0.0899715 0.000499923 0)
(0.0889671 0.000504277 0)
(0.0879542 0.000508519 0)
(0.086933 0.000512652 0)
(0.0859035 0.000516676 0)
(0.0848661 0.000520594 0)
(0.083821 0.000524407 0)
(0.0827684 0.000528116 0)
(0.0817085 0.000531724 0)
(0.0806414 0.000535232 0)
(0.0795674 0.000538642 0)
(0.0784868 0.000541955 0)
(0.0773995 0.000545173 0)
(0.076306 0.000548297 0)
(0.0752063 0.00055133 0)
(0.0741006 0.000554274 0)
(0.0729891 0.000557128 0)
(0.071872 0.000559897 0)
(0.0707494 0.00056258 0)
(0.0696216 0.00056518 0)
(0.0684886 0.000567698 0)
(0.0673507 0.000570136 0)
(0.066208 0.000572495 0)
(0.0650606 0.000574778 0)
(0.0639088 0.000576985 0)
(0.0627526 0.000579119 0)
(0.0615922 0.000581181 0)
(0.0604278 0.000583172 0)
(0.0592595 0.000585094 0)
(0.0580874 0.000586949 0)
(0.0569116 0.000588738 0)
(0.0557324 0.000590463 0)
(0.0545497 0.000592125 0)
(0.0533638 0.000593725 0)
(0.0521748 0.000595266 0)
(0.0509827 0.000596749 0)
(0.0497877 0.000598174 0)
(0.0485899 0.000599544 0)
(0.0473895 0.00060086 0)
(0.0461864 0.000602123 0)
(0.0449809 0.000603335 0)
(0.043773 0.000604496 0)
(0.0425629 0.000605609 0)
(0.0413506 0.000606675 0)
(0.0401361 0.000607694 0)
(0.0389197 0.000608669 0)
(0.0377014 0.0006096 0)
(0.0364813 0.000610489 0)
(0.0352594 0.000611336 0)
(0.0340359 0.000612143 0)
(0.0328108 0.000612911 0)
(0.0315842 0.000613641 0)
(0.0303562 0.000614334 0)
(0.0291269 0.000614991 0)
(0.0278962 0.000615613 0)
(0.0266644 0.000616201 0)
(0.0254314 0.000616755 0)
(0.0241973 0.000617278 0)
(0.0229622 0.000617769 0)
(0.0217262 0.00061823 0)
(0.0204893 0.000618661 0)
(0.0192515 0.000619062 0)
(0.018013 0.000619435 0)
(0.0167738 0.000619781 0)
(0.0155339 0.000620099 0)
(0.0142934 0.00062039 0)
(0.0130523 0.000620655 0)
(0.0118107 0.000620895 0)
(0.0105687 0.00062111 0)
(0.00932624 0.000621299 0)
(0.00808345 0.000621464 0)
(0.00684036 0.000621605 0)
(0.00559701 0.000621722 0)
(0.00435344 0.000621816 0)
(0.00310972 0.000621885 0)
(0.00186588 0.000621932 0)
(0.000621967 0.000621955 0)
(0.000736775 -0.0022102 0)
(0.00221029 -0.0022101 0)
(0.0036837 -0.00220988 0)
(0.00515693 -0.00220956 0)
(0.00662992 -0.00220913 0)
(0.00810258 -0.00220859 0)
(0.00957485 -0.00220794 0)
(0.0110466 -0.00220718 0)
(0.0125179 -0.00220629 0)
(0.0139885 -0.00220529 0)
(0.0154584 -0.00220416 0)
(0.0169276 -0.0022029 0)
(0.0183958 -0.00220152 0)
(0.0198631 -0.00219999 0)
(0.0213293 -0.00219832 0)
(0.0227944 -0.00219651 0)
(0.0242582 -0.00219454 0)
(0.0257206 -0.00219242 0)
(0.0271816 -0.00219013 0)
(0.028641 -0.00218766 0)
(0.0300987 -0.00218502 0)
(0.0315546 -0.00218219 0)
(0.0330085 -0.00217917 0)
(0.0344604 -0.00217594 0)
(0.03591 -0.0021725 0)
(0.0373573 -0.00216885 0)
(0.0388021 -0.00216497 0)
(0.0402442 -0.00216085 0)
(0.0416835 -0.00215648 0)
(0.0431198 -0.00215186 0)
(0.044553 -0.00214698 0)
(0.0459828 -0.00214181 0)
(0.0474091 -0.00213637 0)
(0.0488317 -0.00213063 0)
(0.0502503 -0.00212458 0)
(0.0516648 -0.00211822 0)
(0.053075 -0.00211153 0)
(0.0544806 -0.0021045 0)
(0.0558814 -0.00209712 0)
(0.0572772 -0.00208939 0)
(0.0586677 -0.00208129 0)
(0.0600527 -0.0020728 0)
(0.0614319 -0.00206393 0)
(0.0628051 -0.00205465 0)
(0.064172 -0.00204497 0)
(0.0655322 -0.00203486 0)
(0.0668856 -0.00202431 0)
(0.0682319 -0.00201333 0)
(0.0695706 -0.00200189 0)
(0.0709016 -0.00198999 0)
(0.0722245 -0.00197762 0)
(0.073539 -0.00196476 0)
(0.0748448 -0.00195142 0)
(0.0761415 -0.00193758 0)
(0.0774289 -0.00192323 0)
(0.0787065 -0.00190837 0)
(0.079974 -0.00189298 0)
(0.0812311 -0.00187707 0)
(0.0824774 -0.00186062 0)
(0.0837126 -0.00184363 0)
(0.0849362 -0.00182609 0)
(0.086148 -0.001808 0)
(0.0873476 -0.00178936 0)
(0.0885345 -0.00177015 0)
(0.0897085 -0.00175039 0)
(0.0908691 -0.00173006 0)
(0.0920159 -0.00170916 0)
(0.0931486 -0.00168769 0)
(0.0942669 -0.00166566 0)
(0.0953702 -0.00164305 0)
(0.0964583 -0.00161988 0)
(0.0975307 -0.00159615 0)
(0.0985872 -0.00157185 0)
(0.0996272 -0.00154699 0)
(0.100651 -0.00152158 0)
(0.101657 -0.00149562 0)
(0.102645 -0.00146912 0)
(0.103616 -0.00144207 0)
(0.104569 -0.0014145 0)
(0.105503 -0.0013864 0)
(0.106418 -0.00135779 0)
(0.107314 -0.00132868 0)
(0.10819 -0.00129907 0)
(0.109046 -0.00126898 0)
(0.109883 -0.00123842 0)
(0.110698 -0.00120741 0)
(0.111493 -0.00117594 0)
(0.112267 -0.00114405 0)
(0.113019 -0.00111174 0)
(0.11375 -0.00107903 0)
(0.114458 -0.00104593 0)
(0.115145 -0.00101247 0)
(0.115809 -0.000978656 0)
(0.11645 -0.000944507 0)
(0.117068 -0.000910042 0)
(0.117664 -0.000875279 0)
(0.118236 -0.000840237 0)
(0.118784 -0.000804935 0)
(0.119309 -0.000769394 0)
(0.11981 -0.000733631 0)
(0.120288 -0.000697669 0)
(0.120741 -0.000661526 0)
(0.12117 -0.000625223 0)
(0.121575 -0.000588781 0)
(0.121955 -0.00055222 0)
(0.122311 -0.000515562 0)
(0.122643 -0.000478825 0)
(0.12295 -0.000442032 0)
(0.123232 -0.000405203 0)
(0.12349 -0.000368358 0)
(0.123723 -0.000331517 0)
(0.123932 -0.0002947 0)
(0.124116 -0.000257928 0)
(0.124276 -0.000221219 0)
(0.124411 -0.000184594 0)
(0.124522 -0.00014807 0)
(0.124608 -0.000111666 0)
(0.12467 -7.54007e-05 0)
(0.124708 -3.92917e-05 0)
(0.124723 -3.35617e-06 0)
(0.124713 3.23891e-05 0)
(0.124679 6.79278e-05 0)
(0.124622 0.000103244 0)
(0.124541 0.000138323 0)
(0.124437 0.000173149 0)
(0.12431 0.000207709 0)
(0.12416 0.000241989 0)
(0.123987 0.000275975 0)
(0.123791 0.000309657 0)
(0.123574 0.00034302 0)
(0.123334 0.000376056 0)
(0.123072 0.000408752 0)
(0.122788 0.000441098 0)
(0.122483 0.000473087 0)
(0.122157 0.000504707 0)
(0.12181 0.000535952 0)
(0.121442 0.000566814 0)
(0.121054 0.000597286 0)
(0.120645 0.00062736 0)
(0.120217 0.000657032 0)
(0.119769 0.000686296 0)
(0.119301 0.000715147 0)
(0.118815 0.00074358 0)
(0.118309 0.000771593 0)
(0.117785 0.000799181 0)
(0.117243 0.000826342 0)
(0.116683 0.000853074 0)
(0.116105 0.000879375 0)
(0.11551 0.000905243 0)
(0.114898 0.000930677 0)
(0.114268 0.000955678 0)
(0.113623 0.000980243 0)
(0.112961 0.00100438 0)
(0.112283 0.00102807 0)
(0.11159 0.00105134 0)
(0.110881 0.00107417 0)
(0.110157 0.00109657 0)
(0.109418 0.00111855 0)
(0.108665 0.0011401 0)
(0.107898 0.00116122 0)
(0.107116 0.00118193 0)
(0.106321 0.00120221 0)
(0.105513 0.00122208 0)
(0.104691 0.00124153 0)
(0.103857 0.00126058 0)
(0.10301 0.00127922 0)
(0.102151 0.00129746 0)
(0.10128 0.0013153 0)
(0.100397 0.00133275 0)
(0.099502 0.0013498 0)
(0.0985963 0.00136647 0)
(0.0976796 0.00138276 0)
(0.0967522 0.00139867 0)
(0.0958142 0.00141421 0)
(0.0948661 0.00142938 0)
(0.093908 0.00144419 0)
(0.0929401 0.00145864 0)
(0.0919627 0.00147273 0)
(0.090976 0.00148648 0)
(0.0899803 0.00149988 0)
(0.0889757 0.00151294 0)
(0.0879626 0.00152567 0)
(0.0869411 0.00153806 0)
(0.0859115 0.00155013 0)
(0.0848739 0.00156189 0)
(0.0838286 0.00157332 0)
(0.0827757 0.00158445 0)
(0.0817156 0.00159527 0)
(0.0806483 0.00160579 0)
(0.0795742 0.00161602 0)
(0.0784933 0.00162596 0)
(0.0774059 0.00163561 0)
(0.0763121 0.00164498 0)
(0.0752122 0.00165408 0)
(0.0741064 0.00166291 0)
(0.0729947 0.00167147 0)
(0.0718774 0.00167977 0)
(0.0707547 0.00168782 0)
(0.0696267 0.00169562 0)
(0.0684936 0.00170317 0)
(0.0673555 0.00171048 0)
(0.0662126 0.00171756 0)
(0.0650651 0.00172441 0)
(0.0639131 0.00173103 0)
(0.0627568 0.00173743 0)
(0.0615963 0.00174361 0)
(0.0604317 0.00174958 0)
(0.0592633 0.00175535 0)
(0.058091 0.00176091 0)
(0.0569151 0.00176628 0)
(0.0557358 0.00177145 0)
(0.054553 0.00177644 0)
(0.053367 0.00178124 0)
(0.0521778 0.00178586 0)
(0.0509856 0.0017903 0)
(0.0497905 0.00179458 0)
(0.0485926 0.00179869 0)
(0.0473921 0.00180263 0)
(0.0461889 0.00180642 0)
(0.0449833 0.00181005 0)
(0.0437753 0.00181354 0)
(0.0425651 0.00181688 0)
(0.0413527 0.00182007 0)
(0.0401381 0.00182313 0)
(0.0389217 0.00182605 0)
(0.0377033 0.00182884 0)
(0.036483 0.00183151 0)
(0.0352611 0.00183405 0)
(0.0340375 0.00183647 0)
(0.0328123 0.00183877 0)
(0.0315857 0.00184096 0)
(0.0303576 0.00184304 0)
(0.0291281 0.00184501 0)
(0.0278974 0.00184687 0)
(0.0266655 0.00184864 0)
(0.0254325 0.0018503 0)
(0.0241983 0.00185187 0)
(0.0229632 0.00185334 0)
(0.0217271 0.00185472 0)
(0.0204901 0.00185601 0)
(0.0192523 0.00185722 0)
(0.0180137 0.00185833 0)
(0.0167744 0.00185937 0)
(0.0155345 0.00186032 0)
(0.0142939 0.0018612 0)
(0.0130528 0.00186199 0)
(0.0118112 0.00186271 0)
(0.0105691 0.00186335 0)
(0.0093266 0.00186392 0)
(0.00808376 0.00186442 0)
(0.00684062 0.00186484 0)
(0.00559722 0.00186519 0)
(0.00435361 0.00186547 0)
(0.00310984 0.00186568 0)
(0.00186595 0.00186582 0)
(0.00062199 0.00186589 0)
(0.000736846 -0.00368379 0)
(0.0022105 -0.00368361 0)
(0.00368406 -0.00368326 0)
(0.00515743 -0.00368273 0)
(0.00663056 -0.00368201 0)
(0.00810337 -0.00368112 0)
(0.00957579 -0.00368003 0)
(0.0110477 -0.00367876 0)
(0.0125192 -0.00367729 0)
(0.0139899 -0.00367562 0)
(0.01546 -0.00367374 0)
(0.0169293 -0.00367165 0)
(0.0183977 -0.00366935 0)
(0.0198652 -0.00366681 0)
(0.0213316 -0.00366404 0)
(0.0227969 -0.00366102 0)
(0.0242609 -0.00365775 0)
(0.0257235 -0.00365421 0)
(0.0271847 -0.0036504 0)
(0.0286444 -0.0036463 0)
(0.0301023 -0.00364191 0)
(0.0315585 -0.0036372 0)
(0.0330127 -0.00363217 0)
(0.0344648 -0.0036268 0)
(0.0359147 -0.00362108 0)
(0.0373623 -0.003615 0)
(0.0388074 -0.00360854 0)
(0.0402499 -0.00360169 0)
(0.0416895 -0.00359442 0)
(0.0431262 -0.00358673 0)
(0.0445597 -0.0035786 0)
(0.0459899 -0.00357001 0)
(0.0474165 -0.00356094 0)
(0.0488395 -0.00355138 0)
(0.0502586 -0.00354132 0)
(0.0516735 -0.00353072 0)
(0.0530841 -0.00351958 0)
(0.0544902 -0.00350788 0)
(0.0558915 -0.0034956 0)
(0.0572878 -0.00348273 0)
(0.0586788 -0.00346923 0)
(0.0600643 -0.00345511 0)
(0.061444 -0.00344033 0)
(0.0628177 -0.00342488 0)
(0.0641852 -0.00340875 0)
(0.065546 -0.00339191 0)
(0.0669 -0.00337435 0)
(0.0682468 -0.00335605 0)
(0.0695862 -0.003337 0)
(0.0709178 -0.00331717 0)
(0.0722413 -0.00329656 0)
(0.0735565 -0.00327515 0)
(0.0748629 -0.00325292 0)
(0.0761603 -0.00322986 0)
(0.0774483 -0.00320595 0)
(0.0787266 -0.00318119 0)
(0.0799949 -0.00315556 0)
(0.0812527 -0.00312904 0)
(0.0824997 -0.00310163 0)
(0.0837356 -0.00307332 0)
(0.08496 -0.0030441 0)
(0.0861725 -0.00301395 0)
(0.0873728 -0.00298288 0)
(0.0885605 -0.00295088 0)
(0.0897352 -0.00291794 0)
(0.0908966 -0.00288406 0)
(0.0920442 -0.00284923 0)
(0.0931777 -0.00281345 0)
(0.0942966 -0.00277672 0)
(0.0954007 -0.00273905 0)
(0.0964896 -0.00270043 0)
(0.0975628 -0.00266087 0)
(0.09862 -0.00262037 0)
(0.0996608 -0.00257894 0)
(0.100685 -0.00253658 0)
(0.101692 -0.00249331 0)
(0.102681 -0.00244913 0)
(0.103653 -0.00240405 0)
(0.104606 -0.00235808 0)
(0.105541 -0.00231124 0)
(0.106456 -0.00226355 0)
(0.107353 -0.00221502 0)
(0.10823 -0.00216566 0)
(0.109087 -0.00211549 0)
(0.109924 -0.00206455 0)
(0.11074 -0.00201284 0)
(0.111535 -0.00196038 0)
(0.11231 -0.00190721 0)
(0.113062 -0.00185334 0)
(0.113793 -0.00179881 0)
(0.114503 -0.00174363 0)
(0.115189 -0.00168784 0)
(0.115854 -0.00163146 0)
(0.116496 -0.00157453 0)
(0.117114 -0.00151707 0)
(0.11771 -0.00145911 0)
(0.118283 -0.00140068 0)
(0.118831 -0.00134183 0)
(0.119357 -0.00128257 0)
(0.119858 -0.00122294 0)
(0.120336 -0.00116298 0)
(0.120789 -0.00110272 0)
(0.121218 -0.00104219 0)
(0.121623 -0.000981434 0)
(0.122004 -0.000920476 0)
(0.12236 -0.000859356 0)
(0.122692 -0.000798106 0)
(0.122999 -0.000736761 0)
(0.123281 -0.000675357 0)
(0.123539 -0.000613925 0)
(0.123772 -0.000552502 0)
(0.123981 -0.000491119 0)
(0.124165 -0.00042981 0)
(0.124325 -0.000368607 0)
(0.12446 -0.000307543 0)
(0.12457 -0.000246649 0)
(0.124657 -0.000185956 0)
(0.124719 -0.000125495 0)
(0.124757 -6.52937e-05 0)
(0.12477 -5.38251e-06 0)
(0.12476 5.4211e-05 0)
(0.124726 0.00011346 0)
(0.124669 0.000172337 0)
(0.124588 0.000230818 0)
(0.124483 0.000288878 0)
(0.124356 0.000346493 0)
(0.124205 0.00040364 0)
(0.124032 0.000460298 0)
(0.123836 0.000516447 0)
(0.123618 0.000572065 0)
(0.123378 0.000627136 0)
(0.123115 0.00068164 0)
(0.122831 0.000735562 0)
(0.122526 0.000788886 0)
(0.122199 0.000841596 0)
(0.121851 0.00089368 0)
(0.121483 0.000945124 0)
(0.121094 0.000995917 0)
(0.120685 0.00104605 0)
(0.120256 0.00109551 0)
(0.119807 0.00114428 0)
(0.119339 0.00119237 0)
(0.118852 0.00123977 0)
(0.118346 0.00128646 0)
(0.117822 0.00133244 0)
(0.117279 0.00137771 0)
(0.116718 0.00142227 0)
(0.11614 0.00146611 0)
(0.115544 0.00150922 0)
(0.114931 0.00155161 0)
(0.114302 0.00159328 0)
(0.113655 0.00163422 0)
(0.112993 0.00167444 0)
(0.112314 0.00171394 0)
(0.11162 0.00175271 0)
(0.110911 0.00179076 0)
(0.110186 0.0018281 0)
(0.109447 0.00186472 0)
(0.108693 0.00190063 0)
(0.107925 0.00193584 0)
(0.107144 0.00197034 0)
(0.106348 0.00200414 0)
(0.105539 0.00203725 0)
(0.104717 0.00206968 0)
(0.103882 0.00210142 0)
(0.103035 0.00213248 0)
(0.102175 0.00216288 0)
(0.101303 0.00219261 0)
(0.10042 0.00222168 0)
(0.0995245 0.0022501 0)
(0.0986183 0.00227788 0)
(0.0977011 0.00230502 0)
(0.0967731 0.00233154 0)
(0.0958347 0.00235743 0)
(0.0948861 0.00238271 0)
(0.0939275 0.00240739 0)
(0.0929591 0.00243146 0)
(0.0919812 0.00245495 0)
(0.0909941 0.00247785 0)
(0.0899979 0.00250018 0)
(0.0889929 0.00252194 0)
(0.0879794 0.00254314 0)
(0.0869574 0.0025638 0)
(0.0859273 0.00258391 0)
(0.0848893 0.00260349 0)
(0.0838436 0.00262255 0)
(0.0827904 0.00264109 0)
(0.0817298 0.00265912 0)
(0.0806622 0.00267665 0)
(0.0795876 0.00269369 0)
(0.0785063 0.00271025 0)
(0.0774186 0.00272633 0)
(0.0763244 0.00274194 0)
(0.0752242 0.0027571 0)
(0.074118 0.00277181 0)
(0.0730059 0.00278607 0)
(0.0718883 0.00279991 0)
(0.0707652 0.00281331 0)
(0.0696369 0.00282631 0)
(0.0685035 0.00283889 0)
(0.0673651 0.00285107 0)
(0.0662219 0.00286286 0)
(0.0650741 0.00287426 0)
(0.0639218 0.00288529 0)
(0.0627652 0.00289596 0)
(0.0616044 0.00290626 0)
(0.0604396 0.0029162 0)
(0.0592708 0.00292581 0)
(0.0580983 0.00293507 0)
(0.0569222 0.00294401 0)
(0.0557425 0.00295263 0)
(0.0545595 0.00296093 0)
(0.0533732 0.00296893 0)
(0.0521838 0.00297662 0)
(0.0509914 0.00298403 0)
(0.0497961 0.00299115 0)
(0.048598 0.00299799 0)
(0.0473972 0.00300456 0)
(0.0461939 0.00301087 0)
(0.044988 0.00301692 0)
(0.0437799 0.00302273 0)
(0.0425694 0.00302828 0)
(0.0413568 0.00303361 0)
(0.0401421 0.0030387 0)
(0.0389255 0.00304356 0)
(0.0377069 0.00304821 0)
(0.0364865 0.00305265 0)
(0.0352644 0.00305688 0)
(0.0340406 0.00306091 0)
(0.0328153 0.00306474 0)
(0.0315885 0.00306839 0)
(0.0303603 0.00307185 0)
(0.0291307 0.00307513 0)
(0.0278999 0.00307823 0)
(0.0266678 0.00308117 0)
(0.0254346 0.00308394 0)
(0.0242004 0.00308655 0)
(0.0229651 0.003089 0)
(0.0217289 0.0030913 0)
(0.0204918 0.00309345 0)
(0.0192539 0.00309545 0)
(0.0180152 0.00309732 0)
(0.0167758 0.00309904 0)
(0.0155357 0.00310063 0)
(0.014295 0.00310208 0)
(0.0130538 0.00310341 0)
(0.0118121 0.0031046 0)
(0.0105699 0.00310567 0)
(0.0093273 0.00310662 0)
(0.00808437 0.00310744 0)
(0.00684113 0.00310815 0)
(0.00559764 0.00310873 0)
(0.00435393 0.0031092 0)
(0.00311007 0.00310955 0)
(0.00186609 0.00310978 0)
(0.000622037 0.00310989 0)
(0.000736952 -0.00515755 0)
(0.00221082 -0.00515731 0)
(0.00368459 -0.00515681 0)
(0.00515818 -0.00515607 0)
(0.00663153 -0.00515507 0)
(0.00810456 -0.00515382 0)
(0.00957721 -0.00515231 0)
(0.0110494 -0.00515053 0)
(0.012521 -0.00514849 0)
(0.0139921 -0.00514616 0)
(0.0154624 -0.00514354 0)
(0.0169319 -0.00514062 0)
(0.0184006 -0.0051374 0)
(0.0198684 -0.00513386 0)
(0.0213351 -0.00512999 0)
(0.0228006 -0.00512578 0)
(0.024265 -0.00512122 0)
(0.0257279 -0.00511628 0)
(0.0271895 -0.00511096 0)
(0.0286495 -0.00510524 0)
(0.0301078 -0.0050991 0)
(0.0315643 -0.00509253 0)
(0.0330189 -0.00508551 0)
(0.0344715 -0.00507801 0)
(0.0359218 -0.00507003 0)
(0.0373698 -0.00506153 0)
(0.0388154 -0.00505251 0)
(0.0402583 -0.00504293 0)
(0.0416985 -0.00503279 0)
(0.0431357 -0.00502204 0)
(0.0445697 -0.00501068 0)
(0.0460005 -0.00499867 0)
(0.0474277 -0.00498601 0)
(0.0488513 -0.00497265 0)
(0.050271 -0.00495858 0)
(0.0516866 -0.00494377 0)
(0.0530978 -0.00492821 0)
(0.0545046 -0.00491185 0)
(0.0559066 -0.00489468 0)
(0.0573036 -0.00487668 0)
(0.0586953 -0.00485781 0)
(0.0600816 -0.00483806 0)
(0.0614622 -0.0048174 0)
(0.0628367 -0.00479579 0)
(0.064205 -0.00477323 0)
(0.0655667 -0.00474968 0)
(0.0669215 -0.00472512 0)
(0.0682692 -0.00469953 0)
(0.0696095 -0.00467288 0)
(0.0709421 -0.00464514 0)
(0.0722666 -0.00461631 0)
(0.0735827 -0.00458635 0)
(0.0748901 -0.00455525 0)
(0.0761885 -0.00452299 0)
(0.0774776 -0.00448954 0)
(0.0787569 -0.00445488 0)
(0.0800262 -0.00441901 0)
(0.081285 -0.00438191 0)
(0.0825331 -0.00434355 0)
(0.0837701 -0.00430393 0)
(0.0849956 -0.00426302 0)
(0.0862093 -0.00422083 0)
(0.0874107 -0.00417735 0)
(0.0885995 -0.00413255 0)
(0.0897753 -0.00408644 0)
(0.0909378 -0.004039 0)
(0.0920866 -0.00399024 0)
(0.0932212 -0.00394015 0)
(0.0943413 -0.00388874 0)
(0.0954465 -0.00383599 0)
(0.0965365 -0.00378192 0)
(0.0976108 -0.00372653 0)
(0.0986692 -0.00366983 0)
(0.0997111 -0.00361181 0)
(0.100736 -0.0035525 0)
(0.101744 -0.0034919 0)
(0.102735 -0.00343003 0)
(0.103707 -0.0033669 0)
(0.104662 -0.00330253 0)
(0.105597 -0.00323694 0)
(0.106514 -0.00317015 0)
(0.107412 -0.00310217 0)
(0.10829 -0.00303305 0)
(0.109148 -0.00296279 0)
(0.109985 -0.00289144 0)
(0.110803 -0.00281901 0)
(0.111599 -0.00274554 0)
(0.112374 -0.00267107 0)
(0.113127 -0.00259562 0)
(0.113859 -0.00251923 0)
(0.114569 -0.00244195 0)
(0.115257 -0.0023638 0)
(0.115922 -0.00228483 0)
(0.116564 -0.00220508 0)
(0.117184 -0.00212459 0)
(0.11778 -0.0020434 0)
(0.118353 -0.00196156 0)
(0.118902 -0.00187912 0)
(0.119428 -0.00179611 0)
(0.11993 -0.00171259 0)
(0.120408 -0.00162859 0)
(0.120862 -0.00154418 0)
(0.121291 -0.0014594 0)
(0.121696 -0.00137428 0)
(0.122077 -0.0012889 0)
(0.122433 -0.00120328 0)
(0.122765 -0.00111748 0)
(0.123072 -0.00103155 0)
(0.123355 -0.000945536 0)
(0.123613 -0.000859485 0)
(0.123846 -0.000773445 0)
(0.124055 -0.000687463 0)
(0.124239 -0.000601584 0)
(0.124398 -0.000515856 0)
(0.124533 -0.000430322 0)
(0.124643 -0.000345027 0)
(0.124729 -0.000260015 0)
(0.124791 -0.000175327 0)
(0.124829 -9.10058e-05 0)
(0.124842 -7.09094e-06 0)
(0.124832 7.63781e-05 0)
(0.124797 0.000159363 0)
(0.124739 0.000241827 0)
(0.124658 0.000323735 0)
(0.124553 0.000405051 0)
(0.124425 0.000485744 0)
(0.124274 0.000565781 0)
(0.1241 0.000645131 0)
(0.123903 0.000723766 0)
(0.123684 0.000801659 0)
(0.123443 0.000878782 0)
(0.12318 0.000955112 0)
(0.122896 0.00103062 0)
(0.122589 0.0011053 0)
(0.122262 0.00117911 0)
(0.121913 0.00125205 0)
(0.121544 0.00132408 0)
(0.121155 0.00139521 0)
(0.120745 0.00146541 0)
(0.120315 0.00153466 0)
(0.119865 0.00160296 0)
(0.119397 0.0016703 0)
(0.118909 0.00173666 0)
(0.118402 0.00180203 0)
(0.117877 0.00186642 0)
(0.117333 0.0019298 0)
(0.116771 0.00199218 0)
(0.116192 0.00205356 0)
(0.115595 0.00211392 0)
(0.114982 0.00217327 0)
(0.114351 0.0022316 0)
(0.113704 0.00228892 0)
(0.113041 0.00234523 0)
(0.112361 0.00240052 0)
(0.111667 0.0024548 0)
(0.110956 0.00250807 0)
(0.110231 0.00256034 0)
(0.109491 0.00261161 0)
(0.108736 0.00266188 0)
(0.107967 0.00271116 0)
(0.107184 0.00275945 0)
(0.106388 0.00280677 0)
(0.105578 0.00285312 0)
(0.104755 0.0028985 0)
(0.10392 0.00294293 0)
(0.103071 0.00298641 0)
(0.102211 0.00302895 0)
(0.101338 0.00307057 0)
(0.100454 0.00311126 0)
(0.0995582 0.00315104 0)
(0.0986512 0.00318992 0)
(0.0977333 0.00322791 0)
(0.0968046 0.00326502 0)
(0.0958654 0.00330126 0)
(0.094916 0.00333664 0)
(0.0939567 0.00337118 0)
(0.0929876 0.00340487 0)
(0.0920091 0.00343774 0)
(0.0910212 0.00346979 0)
(0.0900244 0.00350104 0)
(0.0890187 0.0035315 0)
(0.0880045 0.00356117 0)
(0.0869819 0.00359008 0)
(0.0859512 0.00361823 0)
(0.0849125 0.00364563 0)
(0.0838662 0.00367229 0)
(0.0828123 0.00369824 0)
(0.0817511 0.00372347 0)
(0.0806829 0.003748 0)
(0.0796078 0.00377184 0)
(0.0785259 0.00379501 0)
(0.0774376 0.00381751 0)
(0.0763429 0.00383936 0)
(0.0752421 0.00386057 0)
(0.0741353 0.00388115 0)
(0.0730228 0.00390111 0)
(0.0719046 0.00392046 0)
(0.0707811 0.00393922 0)
(0.0696522 0.0039574 0)
(0.0685183 0.003975 0)
(0.0673795 0.00399205 0)
(0.0662358 0.00400854 0)
(0.0650876 0.0040245 0)
(0.0639348 0.00403993 0)
(0.0627778 0.00405484 0)
(0.0616165 0.00406925 0)
(0.0604513 0.00408317 0)
(0.0592821 0.0040966 0)
(0.0581092 0.00410957 0)
(0.0569327 0.00412207 0)
(0.0557527 0.00413412 0)
(0.0545693 0.00414573 0)
(0.0533826 0.00415692 0)
(0.0521929 0.00416768 0)
(0.0510001 0.00417804 0)
(0.0498045 0.00418799 0)
(0.048606 0.00419756 0)
(0.0474049 0.00420676 0)
(0.0462013 0.00421558 0)
(0.0449952 0.00422404 0)
(0.0437867 0.00423216 0)
(0.042576 0.00423993 0)
(0.0413631 0.00424737 0)
(0.0401481 0.00425449 0)
(0.0389312 0.0042613 0)
(0.0377123 0.0042678 0)
(0.0364917 0.004274 0)
(0.0352693 0.00427991 0)
(0.0340453 0.00428555 0)
(0.0328198 0.00429091 0)
(0.0315928 0.004296 0)
(0.0303643 0.00430084 0)
(0.0291345 0.00430542 0)
(0.0279035 0.00430977 0)
(0.0266712 0.00431387 0)
(0.0254378 0.00431774 0)
(0.0242034 0.00432139 0)
(0.0229679 0.00432482 0)
(0.0217316 0.00432803 0)
(0.0204943 0.00433103 0)
(0.0192562 0.00433384 0)
(0.0180173 0.00433644 0)
(0.0167777 0.00433885 0)
(0.0155375 0.00434107 0)
(0.0142967 0.0043431 0)
(0.0130553 0.00434495 0)
(0.0118134 0.00434662 0)
(0.0105711 0.00434812 0)
(0.00932836 0.00434944 0)
(0.00808528 0.00435059 0)
(0.0068419 0.00435157 0)
(0.00559827 0.00435239 0)
(0.00435442 0.00435304 0)
(0.00311042 0.00435353 0)
(0.0018663 0.00435385 0)
(0.000622106 0.00435401 0)
(0.000737093 -0.00663157 0)
(0.00221124 -0.00663125 0)
(0.00368529 -0.00663062 0)
(0.00515917 -0.00662967 0)
(0.00663281 -0.00662839 0)
(0.00810614 -0.00662679 0)
(0.00957908 -0.00662486 0)
(0.0110516 -0.00662258 0)
(0.0125235 -0.00661996 0)
(0.0139949 -0.00661698 0)
(0.0154655 -0.00661363 0)
(0.0169354 -0.0066099 0)
(0.0184045 -0.00660578 0)
(0.0198726 -0.00660125 0)
(0.0213397 -0.00659629 0)
(0.0228056 -0.0065909 0)
(0.0242704 -0.00658506 0)
(0.0257338 -0.00657874 0)
(0.0271958 -0.00657192 0)
(0.0286562 -0.0065646 0)
(0.030115 -0.00655673 0)
(0.0315721 -0.00654832 0)
(0.0330272 -0.00653932 0)
(0.0344803 -0.00652971 0)
(0.0359312 -0.00651948 0)
(0.0373798 -0.0065086 0)
(0.038826 -0.00649703 0)
(0.0402696 -0.00648476 0)
(0.0417104 -0.00647175 0)
(0.0431483 -0.00645797 0)
(0.0445831 -0.0064434 0)
(0.0460146 -0.00642801 0)
(0.0474426 -0.00641176 0)
(0.0488669 -0.00639463 0)
(0.0502875 -0.00637658 0)
(0.0517039 -0.00635759 0)
(0.0531161 -0.00633761 0)
(0.0545237 -0.00631663 0)
(0.0559267 -0.0062946 0)
(0.0573246 -0.00627149 0)
(0.0587174 -0.00624728 0)
(0.0601047 -0.00622193 0)
(0.0614863 -0.0061954 0)
(0.0628619 -0.00616767 0)
(0.0642313 -0.0061387 0)
(0.0655941 -0.00610846 0)
(0.0669502 -0.00607693 0)
(0.0682991 -0.00604406 0)
(0.0696406 -0.00600983 0)
(0.0709744 -0.00597422 0)
(0.0723002 -0.00593718 0)
(0.0736176 -0.0058987 0)
(0.0749263 -0.00585875 0)
(0.0762261 -0.0058173 0)
(0.0775165 -0.00577432 0)
(0.0787972 -0.0057298 0)
(0.0800679 -0.00568371 0)
(0.0813282 -0.00563602 0)
(0.0825777 -0.00558673 0)
(0.0838162 -0.00553581 0)
(0.0850431 -0.00548324 0)
(0.0862583 -0.00542901 0)
(0.0874612 -0.00537311 0)
(0.0886515 -0.00531553 0)
(0.0898288 -0.00525625 0)
(0.0909928 -0.00519527 0)
(0.0921431 -0.00513259 0)
(0.0932792 -0.00506819 0)
(0.0944008 -0.00500208 0)
(0.0955076 -0.00493426 0)
(0.0965991 -0.00486474 0)
(0.0976749 -0.00479351 0)
(0.0987347 -0.00472059 0)
(0.0997781 -0.00464598 0)
(0.100805 -0.00456971 0)
(0.101814 -0.00449177 0)
(0.102806 -0.00441219 0)
(0.10378 -0.004331 0)
(0.104736 -0.00424821 0)
(0.105673 -0.00416384 0)
(0.106591 -0.00407792 0)
(0.10749 -0.00399049 0)
(0.108369 -0.00390156 0)
(0.109229 -0.00381119 0)
(0.110068 -0.0037194 0)
(0.110886 -0.00362622 0)
(0.111683 -0.00353171 0)
(0.11246 -0.0034359 0)
(0.113214 -0.00333883 0)
(0.113947 -0.00324056 0)
(0.114658 -0.00314112 0)
(0.115347 -0.00304058 0)
(0.116013 -0.00293898 0)
(0.116656 -0.00283637 0)
(0.117276 -0.00273281 0)
(0.117873 -0.00262835 0)
(0.118447 -0.00252305 0)
(0.118997 -0.00241697 0)
(0.119523 -0.00231017 0)
(0.120026 -0.0022027 0)
(0.120504 -0.00209463 0)
(0.120958 -0.00198602 0)
(0.121388 -0.00187692 0)
(0.121794 -0.00176741 0)
(0.122175 -0.00165754 0)
(0.122531 -0.00154738 0)
(0.122863 -0.00143699 0)
(0.123171 -0.00132642 0)
(0.123453 -0.00121575 0)
(0.123711 -0.00110503 0)
(0.123944 -0.000994331 0)
(0.124153 -0.000883703 0)
(0.124337 -0.000773209 0)
(0.124496 -0.00066291 0)
(0.124631 -0.000552862 0)
(0.124741 -0.000443123 0)
(0.124826 -0.000333749 0)
(0.124888 -0.000224794 0)
(0.124925 -0.000116311 0)
(0.124938 -8.35325e-06 0)
(0.124927 9.90294e-05 0)
(0.124892 0.000205788 0)
(0.124833 0.000311874 0)
(0.124751 0.000417243 0)
(0.124645 0.00052185 0)
(0.124517 0.000625651 0)