/*--------------------------------*- C++ -*----------------------------------*\
| =========                 |                                                 |
| \\      /  F ield         | OpenFOAM: The Open Source CFD Toolbox           |
|  \\    /   O peration     | Version:  v2012                                 |
|   \\  /    A nd           | Website:  www.openfoam.com                      |
|    \\/     M anipulation  |                                                 |
\*---------------------------------------------------------------------------*/
FoamFile
{
    version     2.0;
    format      ascii;
    class       volVectorField;
    location    "70";
    object      Usup;
}
// * * * * * * * * * * * * * * * * * * * * * * * * * * * * * * * * * * * * * //

dimensions      [0 1 -1 0 0 0 0];


internalField   nonuniform List<vector> 
4000
(
(-2.00789e-16 -1.08205e-16 0)
(-6.74113e-16 2.98819e-17 0)
(-1.21592e-15 3.03916e-16 0)
(-1.84752e-15 1.31647e-16 0)
(-2.37415e-15 1.74499e-16 0)
(-2.72807e-15 7.60215e-17 0)
(-2.73014e-15 2.89528e-16 0)
(-2.84033e-15 2.12314e-16 0)
(-3.16071e-15 5.25558e-16 0)
(-3.14413e-15 6.91981e-16 0)
(-3.18115e-15 6.40953e-16 0)
(-3.3548e-15 6.93863e-16 0)
(-3.67925e-15 5.44908e-16 0)
(-4.35932e-15 5.48164e-16 0)
(-4.91152e-15 1.13573e-15 0)
(-4.72422e-15 1.71915e-15 0)
(-4.11385e-15 1.72381e-15 0)
(-4.13206e-15 8.62493e-16 0)
(-4.94287e-15 2.44853e-16 0)
(-5.58993e-15 1.2906e-16 0)
(-5.45312e-15 6.06955e-16 0)
(-4.57141e-15 6.84454e-16 0)
(-4.1778e-15 1.39987e-16 0)
(-4.20874e-15 1.71091e-16 0)
(-4.05159e-15 2.83941e-16 0)
(-3.89811e-15 4.17645e-16 0)
(-3.85703e-15 -9.74083e-17 0)
(-4.4437e-15 2.06886e-17 0)
(-4.8029e-15 3.41936e-16 0)
(-3.94427e-15 6.04553e-16 0)
(-2.89259e-15 8.20534e-16 0)
(-2.28567e-15 7.33659e-16 0)
(-2.06516e-15 2.88693e-16 0)
(-2.18718e-15 2.14174e-16 0)
(-1.98851e-15 4.02692e-16 0)
(-1.83228e-15 2.19073e-16 0)
(-2.39644e-15 7.02079e-17 0)
(-2.30642e-15 4.55776e-16 0)
(-1.22939e-15 3.47955e-16 0)
(-1.34056e-16 3.45641e-16 0)
(7.29593e-16 2.15799e-16 0)
(9.56552e-16 4.04023e-17 0)
(1.1043e-15 -5.03052e-17 0)
(1.24806e-15 -5.56494e-16 0)
(9.26268e-16 -6.08075e-16 0)
(6.55897e-16 -5.65415e-16 0)
(7.69716e-16 -5.5892e-16 0)
(1.06152e-15 -3.29165e-16 0)
(1.25869e-15 -2.88733e-16 0)
(1.05767e-15 -4.10349e-16 0)
(8.62274e-16 -2.13746e-16 0)
(1.10104e-15 -2.02452e-16 0)
(1.42696e-15 -2.02432e-16 0)
(1.53906e-15 -2.54068e-16 0)
(1.44409e-15 -2.08293e-16 0)
(1.24839e-15 -3.78736e-16 0)
(9.83507e-16 -4.22122e-16 0)
(1.06888e-15 -3.14031e-16 0)
(1.22307e-15 -5.23029e-16 0)
(7.92234e-16 -5.9674e-16 0)
(3.93028e-16 -5.34087e-16 0)
(2.25826e-17 -7.6322e-16 0)
(-2.9717e-16 -5.70843e-16 0)
(1.77204e-16 -3.90126e-16 0)
(9.67594e-16 -7.76935e-16 0)
(1.15657e-15 -7.79223e-16 0)
(6.48055e-16 -9.79341e-16 0)
(3.81999e-16 -8.46265e-16 0)
(5.39854e-16 -6.17385e-16 0)
(4.01413e-16 -8.50242e-16 0)
(4.35205e-16 -8.05516e-16 0)
(7.8927e-16 -1.05576e-15 0)
(6.20257e-16 -1.03354e-15 0)
(3.46947e-16 -1.21703e-15 0)
(5.62367e-16 -1.3543e-15 0)
(9.21975e-16 -1.34523e-15 0)
(9.05613e-16 -1.41628e-15 0)
(7.72867e-16 -1.36037e-15 0)
(6.13146e-16 -1.20034e-15 0)
(5.63289e-16 -9.52302e-16 0)
(7.34901e-16 -1.10248e-15 0)
(5.29896e-16 -1.19078e-15 0)
(6.19505e-16 -1.28865e-15 0)
(8.68832e-16 -1.40066e-15 0)
(9.09241e-16 -1.16198e-15 0)
(1.08356e-15 -1.01654e-15 0)
(1.24066e-15 -8.99757e-16 0)
(1.51119e-15 -6.84706e-16 0)
(1.6917e-15 -1.04255e-15 0)
(1.57749e-15 -1.09143e-15 0)
(1.65612e-15 -9.02061e-16 0)
(1.90448e-15 -5.84491e-16 0)
(1.99249e-15 -5.22052e-16 0)
(1.9046e-15 -1.00517e-15 0)
(2.00857e-15 -1.0648e-15 0)
(2.06929e-15 -1.07151e-15 0)
(1.76809e-15 -9.66729e-16 0)
(1.05878e-15 -9.73119e-16 0)
(5.95006e-16 -4.41968e-16 0)
(4.36018e-16 -1.19813e-16 0)
(-5.2144e-16 -6.34699e-17 0)
(-1.71599e-15 2.60923e-16 0)
(-3.47421e-15 5.59856e-16 0)
(-5.27625e-15 3.85798e-16 0)
(-6.60774e-15 4.63861e-16 0)
(-7.44828e-15 4.75832e-16 0)
(-7.72068e-15 9.12889e-16 0)
(-8.0608e-15 7.35101e-16 0)
(-8.60701e-15 1.40243e-15 0)
(-9.04091e-15 1.77487e-15 0)
(-9.37191e-15 1.86845e-15 0)
(-9.98782e-15 2.06049e-15 0)
(-1.09292e-14 1.88252e-15 0)
(-1.1909e-14 1.98615e-15 0)
(-1.2674e-14 3.4345e-15 0)
(-1.28698e-14 4.58937e-15 0)
(-1.29214e-14 4.47563e-15 0)
(-1.35287e-14 2.58267e-15 0)
(-1.45881e-14 9.93948e-16 0)
(-1.50648e-14 6.83924e-16 0)
(-1.46307e-14 1.46961e-15 0)
(-1.36581e-14 1.79328e-15 0)
(-1.27315e-14 1.05352e-15 0)
(-1.20775e-14 8.8872e-16 0)
(-1.1604e-14 8.57474e-16 0)
(-1.17165e-14 9.62101e-16 0)
(-1.16809e-14 1.53913e-16 0)
(-1.20679e-14 3.45516e-16 0)
(-1.24012e-14 1.18392e-15 0)
(-1.06297e-14 1.78181e-15 0)
(-8.52476e-15 1.72641e-15 0)
(-7.45013e-15 1.77093e-15 0)
(-6.72055e-15 1.24344e-15 0)
(-6.21941e-15 1.19663e-15 0)
(-5.81663e-15 1.16665e-15 0)
(-5.71657e-15 8.68871e-16 0)
(-6.06848e-15 1.19009e-16 0)
(-5.5281e-15 8.5427e-16 0)
(-3.38447e-15 9.39527e-16 0)
(-7.8088e-16 8.51683e-16 0)
(1.20345e-15 6.20865e-16 0)
(2.09163e-15 2.49265e-16 0)
(2.3613e-15 -2.62222e-16 0)
(2.71918e-15 -1.34036e-15 0)
(2.58741e-15 -1.56933e-15 0)
(2.16008e-15 -1.49836e-15 0)
(2.53793e-15 -1.52616e-15 0)
(3.16326e-15 -1.33031e-15 0)
(3.30964e-15 -1.06038e-15 0)
(3.11464e-15 -9.08875e-16 0)
(2.91777e-15 -6.20088e-16 0)
(3.25689e-15 -6.22501e-16 0)
(3.87682e-15 -6.53485e-16 0)
(4.16591e-15 -7.88387e-16 0)
(3.88668e-15 -8.37738e-16 0)
(3.38279e-15 -1.07732e-15 0)
(3.04437e-15 -1.0876e-15 0)
(2.97393e-15 -9.99193e-16 0)
(2.95865e-15 -1.21808e-15 0)
(2.23981e-15 -1.75829e-15 0)
(1.17598e-15 -1.82676e-15 0)
(4.20333e-16 -2.44767e-15 0)
(1.55053e-16 -2.21096e-15 0)
(6.77039e-16 -1.74443e-15 0)
(2.09108e-15 -1.99043e-15 0)
(2.65282e-15 -2.17892e-15 0)
(1.85999e-15 -2.5969e-15 0)
(1.62684e-15 -2.36242e-15 0)
(1.54337e-15 -2.19757e-15 0)
(1.18659e-15 -2.74998e-15 0)
(1.27398e-15 -2.59807e-15 0)
(1.86902e-15 -2.94389e-15 0)
(1.64886e-15 -3.4242e-15 0)
(1.0871e-15 -3.64208e-15 0)
(1.64733e-15 -4.00174e-15 0)
(2.38454e-15 -3.98992e-15 0)
(2.4427e-15 -4.14433e-15 0)
(2.35675e-15 -3.96399e-15 0)
(2.17968e-15 -3.55089e-15 0)
(1.85003e-15 -2.94821e-15 0)
(1.87182e-15 -3.32732e-15 0)
(1.61222e-15 -3.76459e-15 0)
(1.80646e-15 -3.83509e-15 0)
(2.57592e-15 -3.96337e-15 0)
(2.98235e-15 -3.5531e-15 0)
(3.32935e-15 -2.94859e-15 0)
(3.82049e-15 -2.50551e-15 0)
(4.08676e-15 -2.13144e-15 0)
(4.31082e-15 -2.72358e-15 0)
(4.6143e-15 -3.03263e-15 0)
(5.08892e-15 -2.78358e-15 0)
(5.48196e-15 -2.30176e-15 0)
(5.08022e-15 -2.2713e-15 0)
(4.83924e-15 -2.92595e-15 0)
(5.28527e-15 -3.12714e-15 0)
(5.32175e-15 -3.10441e-15 0)
(4.46295e-15 -2.89883e-15 0)
(3.11441e-15 -2.87681e-15 0)
(2.04675e-15 -1.2693e-15 0)
(9.83794e-16 -2.94343e-16 0)
(-8.71135e-16 2.41078e-16 0)
(-2.95313e-15 5.85001e-16 0)
(-5.68525e-15 8.30884e-16 0)
(-8.30039e-15 7.36463e-16 0)
(-1.02715e-14 6.80646e-16 0)
(-1.15327e-14 9.52955e-16 0)
(-1.23424e-14 1.48873e-15 0)
(-1.2927e-14 1.6434e-15 0)
(-1.35922e-14 2.23907e-15 0)
(-1.44432e-14 2.50028e-15 0)
(-1.50991e-14 3.02071e-15 0)
(-1.62087e-14 3.33483e-15 0)
(-1.76629e-14 3.41531e-15 0)
(-1.85612e-14 3.95027e-15 0)
(-1.94153e-14 5.65644e-15 0)
(-2.04362e-14 6.51456e-15 0)
(-2.16071e-14 6.10087e-15 0)
(-2.29959e-14 4.29463e-15 0)
(-2.38586e-14 2.33805e-15 0)
(-2.37112e-14 1.65361e-15 0)
(-2.28608e-14 2.15794e-15 0)
(-2.18156e-14 2.69427e-15 0)
(-2.08182e-14 2.58492e-15 0)
(-1.98807e-14 2.22852e-15 0)
(-1.90711e-14 1.76187e-15 0)
(-1.91307e-14 1.31951e-15 0)
(-1.89645e-14 6.65466e-16 0)
(-1.88215e-14 8.16586e-16 0)
(-1.88029e-14 1.90182e-15 0)
(-1.69417e-14 3.00803e-15 0)
(-1.41039e-14 3.00731e-15 0)
(-1.21443e-14 2.72423e-15 0)
(-1.0992e-14 2.41266e-15 0)
(-1.0286e-14 2.32572e-15 0)
(-9.69752e-15 1.91987e-15 0)
(-9.64208e-15 1.55366e-15 0)
(-9.49111e-15 5.51361e-16 0)
(-7.87151e-15 9.16765e-16 0)
(-5.08799e-15 1.25121e-15 0)
(-1.59956e-15 1.35247e-15 0)
(1.25529e-15 9.90897e-16 0)
(2.53101e-15 5.24065e-16 0)
(2.91189e-15 -3.80681e-16 0)
(3.65037e-15 -1.34077e-15 0)
(3.9533e-15 -2.21945e-15 0)
(3.60378e-15 -2.26273e-15 0)
(4.03903e-15 -2.11398e-15 0)
(5.04493e-15 -2.05831e-15 0)
(5.55429e-15 -1.88984e-15 0)
(5.26648e-15 -1.64734e-15 0)
(4.87025e-15 -1.20061e-15 0)
(5.26555e-15 -8.98018e-16 0)
(6.02108e-15 -7.47746e-16 0)
(6.34893e-15 -1.07963e-15 0)
(6.02507e-15 -1.56493e-15 0)
(5.46212e-15 -1.55025e-15 0)
(4.98174e-15 -1.55185e-15 0)
(4.77394e-15 -1.89626e-15 0)
(4.2935e-15 -2.18476e-15 0)
(3.16118e-15 -3.23665e-15 0)
(1.77848e-15 -3.46135e-15 0)
(8.42907e-16 -3.74753e-15 0)
(9.58455e-16 -3.65981e-15 0)
(1.78514e-15 -3.26006e-15 0)
(3.22429e-15 -3.05815e-15 0)
(3.66758e-15 -3.70085e-15 0)
(2.94591e-15 -4.10992e-15 0)
(2.67996e-15 -4.03102e-15 0)
(2.25434e-15 -3.96431e-15 0)
(1.99389e-15 -4.24373e-15 0)
(2.2885e-15 -3.98771e-15 0)
(2.53894e-15 -4.3441e-15 0)
(2.34627e-15 -5.43661e-15 0)
(1.95397e-15 -5.92484e-15 0)
(2.65156e-15 -6.50935e-15 0)
(3.65374e-15 -6.74888e-15 0)
(3.84633e-15 -6.65036e-15 0)
(3.95799e-15 -6.44398e-15 0)
(3.87538e-15 -5.98064e-15 0)
(3.16479e-15 -5.59837e-15 0)
(2.70463e-15 -5.71895e-15 0)
(2.63805e-15 -6.21668e-15 0)
(3.17672e-15 -6.12053e-15 0)
(4.23222e-15 -6.14723e-15 0)
(5.16266e-15 -6.02047e-15 0)
(5.83454e-15 -5.17111e-15 0)
(6.33427e-15 -4.39907e-15 0)
(6.42802e-15 -3.90437e-15 0)
(6.52038e-15 -4.26452e-15 0)
(7.11878e-15 -4.63037e-15 0)
(8.00118e-15 -4.57742e-15 0)
(8.44154e-15 -4.64351e-15 0)
(7.82746e-15 -4.71378e-15 0)
(7.43747e-15 -4.87299e-15 0)
(7.91067e-15 -4.89258e-15 0)
(7.86278e-15 -4.74319e-15 0)
(6.48028e-15 -4.72263e-15 0)
(5.09073e-15 -4.35953e-15 0)
(3.69256e-15 -2.24602e-15 0)
(1.33728e-15 -6.1834e-16 0)
(-1.30731e-15 4.37977e-16 0)
(-4.11705e-15 9.37671e-16 0)
(-7.72194e-15 1.2107e-15 0)
(-1.12527e-14 1.07269e-15 0)
(-1.36569e-14 1.05492e-15 0)
(-1.51353e-14 1.66709e-15 0)
(-1.62814e-14 1.92794e-15 0)
(-1.72713e-14 2.91161e-15 0)
(-1.84133e-14 3.37264e-15 0)
(-1.94587e-14 3.31911e-15 0)
(-2.03255e-14 3.75214e-15 0)
(-2.19774e-14 4.299e-15 0)
(-2.36453e-14 4.97109e-15 0)
(-2.44288e-14 5.98338e-15 0)
(-2.57276e-14 7.19186e-15 0)
(-2.77534e-14 8.0658e-15 0)
(-2.97817e-14 7.68225e-15 0)
(-3.1828e-14 6.4056e-15 0)
(-3.27216e-14 4.31217e-15 0)
(-3.18675e-14 2.84883e-15 0)
(-3.03821e-14 2.97913e-15 0)
(-2.91611e-14 3.54456e-15 0)
(-2.82151e-14 3.54899e-15 0)
(-2.7351e-14 3.5315e-15 0)
(-2.65312e-14 3.10468e-15 0)
(-2.64592e-14 2.40589e-15 0)
(-2.58206e-14 1.95621e-15 0)
(-2.48981e-14 1.70559e-15 0)
(-2.4124e-14 2.65658e-15 0)
(-2.19725e-14 4.12174e-15 0)
(-1.93618e-14 4.60624e-15 0)
(-1.71712e-14 4.09512e-15 0)
(-1.53293e-14 3.80247e-15 0)
(-1.42371e-14 3.33913e-15 0)
(-1.34332e-14 2.64612e-15 0)
(-1.3242e-14 1.82596e-15 0)
(-1.2585e-14 1.54653e-15 0)
(-1.00667e-14 1.54145e-15 0)
(-6.41444e-15 1.50687e-15 0)
(-2.38691e-15 1.64916e-15 0)
(8.84837e-16 1.2516e-15 0)
(2.55849e-15 5.66457e-16 0)
(3.23616e-15 -2.94234e-16 0)
(4.04494e-15 -1.00442e-15 0)
(4.67947e-15 -2.12124e-15 0)
(5.0433e-15 -2.43905e-15 0)
(5.70236e-15 -2.45566e-15 0)
(6.66526e-15 -2.34241e-15 0)
(7.19627e-15 -2.47681e-15 0)
(7.26757e-15 -2.31791e-15 0)
(7.17742e-15 -1.47083e-15 0)
(7.54543e-15 -9.08041e-16 0)
(7.99494e-15 -9.05431e-16 0)
(7.95277e-15 -1.52076e-15 0)
(7.83722e-15 -2.15819e-15 0)
(7.43191e-15 -2.03044e-15 0)
(6.52009e-15 -2.19107e-15 0)
(6.0114e-15 -2.82498e-15 0)
(5.18667e-15 -3.4915e-15 0)
(3.95473e-15 -4.79047e-15 0)
(2.82097e-15 -5.21866e-15 0)
(1.78033e-15 -5.00549e-15 0)
(1.82779e-15 -4.90572e-15 0)
(2.77652e-15 -4.5452e-15 0)
(3.97992e-15 -4.22665e-15 0)
(4.32445e-15 -4.9317e-15 0)
(3.87373e-15 -5.38246e-15 0)
(3.77091e-15 -5.54004e-15 0)
(3.35791e-15 -5.57654e-15 0)
(3.09727e-15 -5.33288e-15 0)
(3.1952e-15 -5.34208e-15 0)
(2.95087e-15 -5.64423e-15 0)
(2.62622e-15 -6.69863e-15 0)
(2.41005e-15 -7.73544e-15 0)
(3.33087e-15 -8.7963e-15 0)
(4.82173e-15 -9.39416e-15 0)
(5.29012e-15 -9.3302e-15 0)
(5.40855e-15 -8.97124e-15 0)
(5.25531e-15 -8.58541e-15 0)
(4.46106e-15 -8.39708e-15 0)
(3.89473e-15 -8.42512e-15 0)
(3.83302e-15 -8.3821e-15 0)
(4.55909e-15 -8.14385e-15 0)
(5.66468e-15 -8.12431e-15 0)
(7.03923e-15 -8.1325e-15 0)
(8.24182e-15 -7.67575e-15 0)
(8.88107e-15 -6.49749e-15 0)
(8.72902e-15 -5.92826e-15 0)
(8.63099e-15 -6.08085e-15 0)
(9.39717e-15 -6.35604e-15 0)
(1.02516e-14 -6.3549e-15 0)
(1.07138e-14 -6.77586e-15 0)
(1.02607e-14 -7.06381e-15 0)
(9.88754e-15 -7.0583e-15 0)
(1.02554e-14 -6.68605e-15 0)
(9.74285e-15 -6.29312e-15 0)
(8.01675e-15 -6.04787e-15 0)
(6.7745e-15 -5.1939e-15 0)
(5.07908e-15 -3.41256e-15 0)
(1.7784e-15 -1.29955e-15 0)
(-1.63294e-15 3.67869e-16 0)
(-5.27243e-15 1.11559e-15 0)
(-9.75268e-15 1.35593e-15 0)
(-1.38538e-14 1.37966e-15 0)
(-1.64337e-14 1.74137e-15 0)
(-1.84731e-14 2.72702e-15 0)
(-1.98122e-14 3.15267e-15 0)
(-2.09537e-14 4.10907e-15 0)
(-2.30336e-14 4.51388e-15 0)
(-2.44979e-14 4.44117e-15 0)
(-2.53112e-14 4.81013e-15 0)
(-2.69127e-14 5.37307e-15 0)
(-2.87738e-14 6.47034e-15 0)
(-3.00444e-14 7.53014e-15 0)
(-3.16155e-14 8.20684e-15 0)
(-3.41568e-14 9.52736e-15 0)
(-3.71115e-14 9.44355e-15 0)
(-4.00443e-14 8.44295e-15 0)
(-4.14355e-14 6.62103e-15 0)
(-3.99034e-14 5.0198e-15 0)
(-3.7455e-14 4.44683e-15 0)
(-3.608e-14 4.64589e-15 0)
(-3.50258e-14 4.49034e-15 0)
(-3.39824e-14 4.5227e-15 0)
(-3.32965e-14 4.36131e-15 0)
(-3.30494e-14 3.96133e-15 0)
(-3.22921e-14 3.55637e-15 0)
(-3.0853e-14 2.95558e-15 0)
(-2.90569e-14 3.7959e-15 0)
(-2.66123e-14 5.25991e-15 0)
(-2.40785e-14 5.84562e-15 0)
(-2.15964e-14 5.40749e-15 0)
(-1.95089e-14 5.42379e-15 0)
(-1.83757e-14 4.92946e-15 0)
(-1.73986e-14 3.79014e-15 0)
(-1.6418e-14 2.26588e-15 0)
(-1.49963e-14 2.43382e-15 0)
(-1.22214e-14 2.6551e-15 0)
(-7.97881e-15 2.41147e-15 0)
(-3.26071e-15 1.983e-15 0)
(3.52795e-16 1.31988e-15 0)
(2.34525e-15 4.53017e-16 0)
(3.45582e-15 -2.07733e-16 0)
(4.48279e-15 -6.43539e-16 0)
(5.32578e-15 -1.29528e-15 0)
(5.95979e-15 -1.83014e-15 0)
(6.93074e-15 -2.30649e-15 0)
(8.10398e-15 -2.49535e-15 0)
(8.85596e-15 -2.77898e-15 0)
(9.41312e-15 -2.37004e-15 0)
(9.42738e-15 -1.68002e-15 0)
(9.37686e-15 -1.17336e-15 0)
(9.44448e-15 -1.43757e-15 0)
(9.38091e-15 -2.21308e-15 0)
(9.53993e-15 -2.77295e-15 0)
(9.14795e-15 -2.83367e-15 0)
(7.87282e-15 -3.26772e-15 0)
(7.05608e-15 -3.9366e-15 0)
(5.79343e-15 -4.76798e-15 0)
(4.42147e-15 -5.83714e-15 0)
(3.70549e-15 -6.62913e-15 0)
(2.80747e-15 -6.48827e-15 0)
(2.89816e-15 -6.33611e-15 0)
(4.03775e-15 -5.94604e-15 0)
(4.96498e-15 -5.91404e-15 0)
(4.97819e-15 -6.37586e-15 0)
(4.59572e-15 -6.7682e-15 0)
(4.52399e-15 -6.71621e-15 0)
(4.33668e-15 -7.00925e-15 0)
(4.07554e-15 -6.5043e-15 0)
(4.00778e-15 -6.45945e-15 0)
(3.56513e-15 -6.68043e-15 0)
(2.8596e-15 -7.72252e-15 0)
(2.49216e-15 -8.95407e-15 0)
(3.62599e-15 -1.03381e-14 0)
(5.59766e-15 -1.12127e-14 0)
(6.56112e-15 -1.17462e-14 0)
(6.898e-15 -1.1789e-14 0)
(6.65188e-15 -1.15624e-14 0)
(5.63179e-15 -1.09052e-14 0)
(5.11166e-15 -1.07565e-14 0)
(5.316e-15 -1.07161e-14 0)
(5.99666e-15 -1.04826e-14 0)
(7.10922e-15 -9.94844e-15 0)
(8.63251e-15 -9.72824e-15 0)
(1.04815e-14 -9.58159e-15 0)
(1.13818e-14 -8.50577e-15 0)
(1.07997e-14 -7.94656e-15 0)
(1.05044e-14 -7.75874e-15 0)
(1.13574e-14 -8.2426e-15 0)
(1.22293e-14 -8.20705e-15 0)
(1.25012e-14 -8.51767e-15 0)
(1.2125e-14 -9.16363e-15 0)
(1.19858e-14 -9.17516e-15 0)
(1.23373e-14 -8.71388e-15 0)
(1.15397e-14 -8.08742e-15 0)
(9.50774e-15 -7.38514e-15 0)
(7.94031e-15 -6.02722e-15 0)
(5.93938e-15 -4.33434e-15 0)
(2.42536e-15 -1.76572e-15 0)
(-1.89946e-15 4.06522e-16 0)
(-6.24161e-15 9.74848e-16 0)
(-1.15061e-14 1.2544e-15 0)
(-1.60417e-14 1.79923e-15 0)
(-1.87523e-14 2.64533e-15 0)
(-2.10788e-14 3.86164e-15 0)
(-2.30202e-14 5.0124e-15 0)
(-2.47144e-14 5.12915e-15 0)
(-2.72474e-14 5.33234e-15 0)
(-2.89127e-14 5.76132e-15 0)
(-2.99012e-14 6.2526e-15 0)
(-3.16339e-14 6.92921e-15 0)
(-3.35803e-14 8.01871e-15 0)
(-3.52988e-14 9.11651e-15 0)
(-3.69265e-14 9.80673e-15 0)
(-3.98761e-14 1.05587e-14 0)
(-4.38733e-14 1.06692e-14 0)
(-4.74556e-14 9.9326e-15 0)
(-4.90468e-14 8.67108e-15 0)
(-4.74133e-14 7.50279e-15 0)
(-4.45232e-14 6.42317e-15 0)
(-4.27136e-14 6.43355e-15 0)
(-4.1527e-14 6.69972e-15 0)
(-4.03031e-14 6.25559e-15 0)
(-3.94522e-14 5.63707e-15 0)
(-3.923e-14 5.2246e-15 0)
(-3.84185e-14 4.68322e-15 0)
(-3.62109e-14 4.14217e-15 0)
(-3.33791e-14 5.17644e-15 0)
(-3.06388e-14 6.64809e-15 0)
(-2.85053e-14 7.40284e-15 0)
(-2.58153e-14 6.97393e-15 0)
(-2.31906e-14 6.83039e-15 0)
(-2.22241e-14 6.17304e-15 0)
(-2.15037e-14 4.81144e-15 0)
(-1.96822e-14 3.46475e-15 0)
(-1.7007e-14 3.68805e-15 0)
(-1.38744e-14 3.82444e-15 0)
(-9.57729e-15 3.46846e-15 0)
(-4.65184e-15 2.63135e-15 0)
(-5.75967e-16 1.49429e-15 0)
(2.0288e-15 3.95534e-16 0)
(3.72847e-15 -1.45892e-16 0)
(5.04093e-15 4.10421e-17 0)
(5.93339e-15 -9.29864e-17 0)
(6.67406e-15 -7.14759e-16 0)
(7.82146e-15 -1.20022e-15 0)
(9.15421e-15 -1.90313e-15 0)
(1.03177e-14 -2.68084e-15 0)
(1.12487e-14 -2.51464e-15 0)
(1.13564e-14 -2.32985e-15 0)
(1.11577e-14 -1.60992e-15 0)
(1.07804e-14 -2.02597e-15 0)
(1.05666e-14 -2.82414e-15 0)
(1.09265e-14 -3.60736e-15 0)
(1.04785e-14 -3.92381e-15 0)
(8.9309e-15 -4.67255e-15 0)
(7.91257e-15 -5.68743e-15 0)
(6.53179e-15 -6.80992e-15 0)
(5.00963e-15 -7.26699e-15 0)
(4.44079e-15 -7.70187e-15 0)
(3.8413e-15 -7.62025e-15 0)
(3.96053e-15 -7.34838e-15 0)
(4.8718e-15 -7.45543e-15 0)
(5.57428e-15 -7.86242e-15 0)
(5.67995e-15 -8.14049e-15 0)
(5.58665e-15 -8.32517e-15 0)
(5.50114e-15 -7.97513e-15 0)
(5.38341e-15 -8.12375e-15 0)
(5.35987e-15 -7.50195e-15 0)
(4.94738e-15 -7.10131e-15 0)
(3.94824e-15 -7.81347e-15 0)
(2.91546e-15 -8.7349e-15 0)
(2.49091e-15 -9.77859e-15 0)
(3.75316e-15 -1.10488e-14 0)
(5.95904e-15 -1.2364e-14 0)
(7.09329e-15 -1.35301e-14 0)
(7.78344e-15 -1.42874e-14 0)
(8.14217e-15 -1.45523e-14 0)
(7.30505e-15 -1.37371e-14 0)
(6.3329e-15 -1.28711e-14 0)
(6.41506e-15 -1.28226e-14 0)
(7.64e-15 -1.26302e-14 0)
(8.92355e-15 -1.16935e-14 0)
(1.02318e-14 -1.13636e-14 0)
(1.23027e-14 -1.13646e-14 0)
(1.34874e-14 -1.08751e-14 0)
(1.29032e-14 -1.00743e-14 0)
(1.2206e-14 -9.50584e-15 0)
(1.2959e-14 -9.86731e-15 0)
(1.3979e-14 -1.00074e-14 0)
(1.39048e-14 -1.04753e-14 0)
(1.35244e-14 -1.08635e-14 0)
(1.36726e-14 -1.08014e-14 0)
(1.40434e-14 -1.03911e-14 0)
(1.30185e-14 -9.82169e-15 0)
(1.08707e-14 -9.11216e-15 0)
(9.12193e-15 -6.83309e-15 0)
(6.82283e-15 -4.69831e-15 0)
(3.0469e-15 -1.64965e-15 0)
(-2.38804e-15 6.95467e-16 0)
(-7.48592e-15 1.06373e-15 0)
(-1.29544e-14 1.24691e-15 0)
(-1.75806e-14 2.19574e-15 0)
(-2.05546e-14 3.71579e-15 0)
(-2.31787e-14 5.0427e-15 0)
(-2.60513e-14 6.36254e-15 0)
(-2.85472e-14 6.31263e-15 0)
(-3.10065e-14 6.56075e-15 0)
(-3.2834e-14 7.38386e-15 0)
(-3.40274e-14 7.48032e-15 0)
(-3.57539e-14 8.3028e-15 0)
(-3.78685e-14 9.35597e-15 0)
(-3.99644e-14 1.02958e-14 0)
(-4.22434e-14 1.12782e-14 0)
(-4.55612e-14 1.15312e-14 0)
(-4.98795e-14 1.18239e-14 0)
(-5.4049e-14 1.1414e-14 0)
(-5.59408e-14 1.05937e-14 0)
(-5.43578e-14 1.00448e-14 0)
(-5.09765e-14 9.13166e-15 0)
(-4.84069e-14 8.22715e-15 0)
(-4.74024e-14 8.17751e-15 0)
(-4.66955e-14 7.65974e-15 0)
(-4.56629e-14 6.5701e-15 0)
(-4.50299e-14 5.91548e-15 0)
(-4.40189e-14 6.28546e-15 0)
(-4.1014e-14 6.5295e-15 0)
(-3.72108e-14 7.37266e-15 0)
(-3.4297e-14 8.16679e-15 0)
(-3.23864e-14 8.58802e-15 0)
(-2.97733e-14 8.52814e-15 0)
(-2.71024e-14 7.8126e-15 0)
(-2.61654e-14 6.75457e-15 0)
(-2.50231e-14 5.71169e-15 0)
(-2.2198e-14 5.11802e-15 0)
(-1.8951e-14 5.17162e-15 0)
(-1.57561e-14 4.64232e-15 0)
(-1.12687e-14 4.30271e-15 0)
(-6.12029e-15 3.39842e-15 0)
(-1.74991e-15 2.04886e-15 0)
(1.49673e-15 8.86058e-16 0)
(4.20583e-15 3.85259e-16 0)
(6.02713e-15 5.53005e-16 0)
(6.64039e-15 1.23418e-15 0)
(7.29993e-15 6.65184e-16 0)
(8.45594e-15 -2.79557e-16 0)
(9.63252e-15 -1.53074e-15 0)
(1.12079e-14 -2.17482e-15 0)
(1.26203e-14 -2.44505e-15 0)
(1.31655e-14 -2.57777e-15 0)
(1.2783e-14 -2.35877e-15 0)
(1.18156e-14 -2.94878e-15 0)
(1.15086e-14 -3.62737e-15 0)
(1.19789e-14 -4.59279e-15 0)
(1.15045e-14 -5.60876e-15 0)
(9.56004e-15 -6.22774e-15 0)
(8.2788e-15 -7.26642e-15 0)
(7.20317e-15 -8.70189e-15 0)
(6.08526e-15 -9.03011e-15 0)
(5.51916e-15 -8.90961e-15 0)
(4.94749e-15 -8.93182e-15 0)
(4.79847e-15 -8.47815e-15 0)
(5.4361e-15 -8.6912e-15 0)
(6.28553e-15 -9.11418e-15 0)
(6.4952e-15 -9.31476e-15 0)
(6.5657e-15 -9.3277e-15 0)
(6.49071e-15 -8.77197e-15 0)
(6.4797e-15 -8.64827e-15 0)
(6.61602e-15 -8.46068e-15 0)
(5.58251e-15 -8.80624e-15 0)
(4.19766e-15 -9.38229e-15 0)
(3.28135e-15 -1.01053e-14 0)
(2.6989e-15 -1.09407e-14 0)
(3.69114e-15 -1.22416e-14 0)
(5.80122e-15 -1.37241e-14 0)
(7.21931e-15 -1.50024e-14 0)
(8.24182e-15 -1.56995e-14 0)
(9.16683e-15 -1.6209e-14 0)
(9.0037e-15 -1.59989e-14 0)
(7.96812e-15 -1.52391e-14 0)
(7.75377e-15 -1.48428e-14 0)
(9.20118e-15 -1.47361e-14 0)
(1.05635e-14 -1.42066e-14 0)
(1.15688e-14 -1.35385e-14 0)
(1.37184e-14 -1.32432e-14 0)
(1.53876e-14 -1.31112e-14 0)
(1.50195e-14 -1.24034e-14 0)
(1.39806e-14 -1.17825e-14 0)
(1.43643e-14 -1.17099e-14 0)
(1.51442e-14 -1.20331e-14 0)
(1.51399e-14 -1.24133e-14 0)
(1.49529e-14 -1.23727e-14 0)
(1.50651e-14 -1.21069e-14 0)
(1.52907e-14 -1.17541e-14 0)
(1.40156e-14 -1.12946e-14 0)
(1.23131e-14 -1.00446e-14 0)
(1.06223e-14 -7.39619e-15 0)
(7.76813e-15 -4.81536e-15 0)
(3.41973e-15 -1.61189e-15 0)
(-2.87828e-15 7.14307e-16 0)
(-8.71049e-15 1.20988e-15 0)
(-1.43272e-14 1.8078e-15 0)
(-1.86824e-14 2.89767e-15 0)
(-2.18905e-14 4.77336e-15 0)
(-2.50891e-14 5.89673e-15 0)
(-2.87104e-14 7.08625e-15 0)
(-3.18088e-14 7.79078e-15 0)
(-3.42754e-14 8.22771e-15 0)
(-3.65976e-14 8.73825e-15 0)
(-3.81135e-14 8.73625e-15 0)
(-3.96582e-14 9.19471e-15 0)
(-4.20171e-14 1.01752e-14 0)
(-4.42504e-14 1.11409e-14 0)
(-4.67838e-14 1.21962e-14 0)
(-5.05642e-14 1.28124e-14 0)
(-5.53031e-14 1.29827e-14 0)
(-5.99034e-14 1.2594e-14 0)
(-6.17371e-14 1.25549e-14 0)
(-6.02251e-14 1.24184e-14 0)
(-5.75396e-14 1.16238e-14 0)
(-5.49345e-14 9.82776e-15 0)
(-5.32305e-14 9.20096e-15 0)
(-5.24967e-14 8.17093e-15 0)
(-5.14466e-14 7.08583e-15 0)
(-4.98291e-14 6.92324e-15 0)
(-4.80024e-14 8.41773e-15 0)
(-4.50351e-14 9.70004e-15 0)
(-4.12985e-14 1.03175e-14 0)
(-3.82691e-14 1.00415e-14 0)
(-3.60923e-14 9.70161e-15 0)
(-3.35419e-14 9.49532e-15 0)
(-3.09665e-14 8.25919e-15 0)
(-2.95785e-14 7.12614e-15 0)
(-2.78654e-14 7.01176e-15 0)
(-2.45745e-14 6.86311e-15 0)
(-2.11471e-14 6.28912e-15 0)
(-1.75305e-14 5.77243e-15 0)
(-1.26723e-14 5.51829e-15 0)
(-7.63287e-15 4.49581e-15 0)
(-2.93302e-15 2.87312e-15 0)
(1.01513e-15 1.70406e-15 0)
(4.29195e-15 1.27429e-15 0)
(6.95059e-15 7.62183e-16 0)
(7.67394e-15 1.56403e-15 0)
(7.51651e-15 1.45828e-15 0)
(8.41096e-15 5.96101e-16 0)
(1.01771e-14 -7.31768e-16 0)
(1.22394e-14 -1.39293e-15 0)
(1.36903e-14 -2.26964e-15 0)
(1.42743e-14 -2.95972e-15 0)
(1.38318e-14 -3.52903e-15 0)
(1.28552e-14 -4.03968e-15 0)
(1.23806e-14 -4.4529e-15 0)
(1.24541e-14 -5.29056e-15 0)
(1.21716e-14 -7.14381e-15 0)
(1.04766e-14 -8.09974e-15 0)
(8.69584e-15 -8.84837e-15 0)
(7.65016e-15 -1.01051e-14 0)
(7.06998e-15 -1.03219e-14 0)
(6.53275e-15 -1.02108e-14 0)
(6.02336e-15 -1.00317e-14 0)
(5.90865e-15 -9.71349e-15 0)
(6.14446e-15 -9.88029e-15 0)
(6.86204e-15 -1.04378e-14 0)
(7.2766e-15 -1.07091e-14 0)
(7.73069e-15 -1.02221e-14 0)
(7.72711e-15 -9.73201e-15 0)
(7.32356e-15 -9.34546e-15 0)
(6.95116e-15 -9.56372e-15 0)
(5.98761e-15 -1.03472e-14 0)
(4.73267e-15 -1.0566e-14 0)
(3.53737e-15 -1.1293e-14 0)
(2.72336e-15 -1.21848e-14 0)
(3.55378e-15 -1.36654e-14 0)
(5.8218e-15 -1.55869e-14 0)
(7.57031e-15 -1.66249e-14 0)
(8.85176e-15 -1.70279e-14 0)
(9.89991e-15 -1.72816e-14 0)
(1.00258e-14 -1.7621e-14 0)
(9.2364e-15 -1.75884e-14 0)
(8.90564e-15 -1.71956e-14 0)
(1.03211e-14 -1.67209e-14 0)
(1.21332e-14 -1.66001e-14 0)
(1.34e-14 -1.57637e-14 0)
(1.52123e-14 -1.50647e-14 0)
(1.68274e-14 -1.50074e-14 0)
(1.67055e-14 -1.47911e-14 0)
(1.56033e-14 -1.42187e-14 0)
(1.56699e-14 -1.39639e-14 0)
(1.62993e-14 -1.41202e-14 0)
(1.6355e-14 -1.42718e-14 0)
(1.62108e-14 -1.41631e-14 0)
(1.62252e-14 -1.3439e-14 0)
(1.62259e-14 -1.28078e-14 0)
(1.51724e-14 -1.20377e-14 0)
(1.37454e-14 -1.03033e-14 0)
(1.18697e-14 -7.9606e-15 0)
(8.64727e-15 -5.16179e-15 0)
(3.80435e-15 -1.91588e-15 0)
(-3.26975e-15 5.01526e-16 0)
(-9.49801e-15 1.22381e-15 0)
(-1.51999e-14 2.60971e-15 0)
(-1.95774e-14 4.1374e-15 0)
(-2.32025e-14 5.49937e-15 0)
(-2.69759e-14 6.52241e-15 0)
(-3.07633e-14 7.27724e-15 0)
(-3.43819e-14 8.69667e-15 0)
(-3.75201e-14 9.46474e-15 0)
(-4.01796e-14 9.3038e-15 0)
(-4.18992e-14 9.76194e-15 0)
(-4.33722e-14 1.04261e-14 0)
(-4.55587e-14 1.11571e-14 0)
(-4.80077e-14 1.21293e-14 0)
(-5.08992e-14 1.29968e-14 0)
(-5.51607e-14 1.37903e-14 0)
(-6.04496e-14 1.37491e-14 0)
(-6.49472e-14 1.37103e-14 0)
(-6.67657e-14 1.42852e-14 0)
(-6.57742e-14 1.39307e-14 0)
(-6.35625e-14 1.26735e-14 0)
(-6.07362e-14 1.11138e-14 0)
(-5.89701e-14 1.00111e-14 0)
(-5.83563e-14 9.06399e-15 0)
(-5.6408e-14 8.65295e-15 0)
(-5.3569e-14 9.07908e-15 0)
(-5.11485e-14 1.03534e-14 0)
(-4.83889e-14 1.16895e-14 0)
(-4.52638e-14 1.24015e-14 0)
(-4.2515e-14 1.21557e-14 0)
(-3.99595e-14 1.1556e-14 0)
(-3.73849e-14 1.06605e-14 0)
(-3.47714e-14 9.09078e-15 0)
(-3.23909e-14 7.88293e-15 0)
(-2.99068e-14 7.83148e-15 0)
(-2.67885e-14 7.89781e-15 0)
(-2.31512e-14 7.30013e-15 0)
(-1.90187e-14 6.95359e-15 0)
(-1.41663e-14 6.56104e-15 0)
(-9.28194e-15 5.58636e-15 0)
(-4.31221e-15 3.93e-15 0)
(4.47907e-16 2.64478e-15 0)
(4.18516e-15 2.13635e-15 0)
(7.3621e-15 1.25894e-15 0)
(8.6387e-15 1.29424e-15 0)
(8.37132e-15 1.582e-15 0)
(8.87459e-15 1.38318e-15 0)
(1.04046e-14 2.27585e-16 0)
(1.24816e-14 -8.90543e-16 0)
(1.40096e-14 -2.15777e-15 0)
(1.48885e-14 -3.36303e-15 0)
(1.47175e-14 -4.12791e-15 0)
(1.39122e-14 -4.8405e-15 0)
(1.3373e-14 -5.44174e-15 0)
(1.27496e-14 -6.52233e-15 0)
(1.21122e-14 -8.46243e-15 0)
(1.0869e-14 -9.77193e-15 0)
(9.22869e-15 -1.03648e-14 0)
(8.38701e-15 -1.10223e-14 0)
(8.10942e-15 -1.12802e-14 0)
(7.67774e-15 -1.1308e-14 0)
(7.12968e-15 -1.09259e-14 0)
(6.63924e-15 -1.08224e-14 0)
(6.58807e-15 -1.15156e-14 0)
(7.34362e-15 -1.20381e-14 0)
(8.3126e-15 -1.22019e-14 0)
(8.93102e-15 -1.13767e-14 0)
(8.76762e-15 -1.11681e-14 0)
(8.22476e-15 -1.03756e-14 0)
(7.49801e-15 -1.02494e-14 0)
(6.47142e-15 -1.09248e-14 0)
(5.1443e-15 -1.1698e-14 0)
(3.75595e-15 -1.24237e-14 0)
(2.64823e-15 -1.35437e-14 0)
(2.91708e-15 -1.51762e-14 0)
(5.38722e-15 -1.76871e-14 0)
(7.9523e-15 -1.86046e-14 0)
(9.57644e-15 -1.86778e-14 0)
(1.05721e-14 -1.88162e-14 0)
(1.06488e-14 -1.92551e-14 0)
(1.01922e-14 -1.93424e-14 0)
(1.03587e-14 -1.90884e-14 0)
(1.16787e-14 -1.82957e-14 0)
(1.33942e-14 -1.8063e-14 0)
(1.49204e-14 -1.74602e-14 0)
(1.65921e-14 -1.7085e-14 0)
(1.79898e-14 -1.72698e-14 0)
(1.80592e-14 -1.73592e-14 0)
(1.70689e-14 -1.64596e-14 0)
(1.68864e-14 -1.5944e-14 0)
(1.72742e-14 -1.60885e-14 0)
(1.72946e-14 -1.61611e-14 0)
(1.74871e-14 -1.58051e-14 0)
(1.76057e-14 -1.48092e-14 0)
(1.73534e-14 -1.35924e-14 0)
(1.62235e-14 -1.23165e-14 0)
(1.48367e-14 -1.05145e-14 0)
(1.2894e-14 -8.20751e-15 0)
(9.45046e-15 -5.44278e-15 0)
(4.34677e-15 -1.91629e-15 0)
(-3.52052e-15 4.01064e-16 0)
(-9.83681e-15 1.61438e-15 0)
(-1.54936e-14 3.1869e-15 0)
(-2.04645e-14 4.96851e-15 0)
(-2.46285e-14 6.05704e-15 0)
(-2.8842e-14 6.82133e-15 0)
(-3.27175e-14 7.68483e-15 0)
(-3.63261e-14 8.92191e-15 0)
(-4.04487e-14 9.87391e-15 0)
(-4.34687e-14 1.02907e-14 0)
(-4.48257e-14 1.07692e-14 0)
(-4.65949e-14 1.15426e-14 0)
(-4.91253e-14 1.20941e-14 0)
(-5.162e-14 1.29026e-14 0)
(-5.46003e-14 1.35667e-14 0)
(-5.93109e-14 1.40003e-14 0)
(-6.48687e-14 1.41614e-14 0)
(-6.9167e-14 1.47105e-14 0)
(-7.13244e-14 1.51806e-14 0)
(-7.11844e-14 1.47652e-14 0)
(-6.9338e-14 1.36671e-14 0)
(-6.65036e-14 1.2383e-14 0)
(-6.41755e-14 1.09375e-14 0)
(-6.27133e-14 1.04576e-14 0)
(-6.0396e-14 1.04212e-14 0)
(-5.72465e-14 1.09455e-14 0)
(-5.44188e-14 1.20613e-14 0)
(-5.1486e-14 1.28977e-14 0)
(-4.84793e-14 1.33889e-14 0)
(-4.59268e-14 1.39324e-14 0)
(-4.36966e-14 1.34734e-14 0)
(-4.13022e-14 1.22661e-14 0)
(-3.83879e-14 1.05052e-14 0)
(-3.53112e-14 9.0682e-15 0)
(-3.20838e-14 8.29337e-15 0)
(-2.86046e-14 8.25044e-15 0)
(-2.487e-14 8.18179e-15 0)
(-2.04672e-14 7.82329e-15 0)
(-1.5418e-14 7.53719e-15 0)
(-1.0658e-14 6.29393e-15 0)
(-5.56701e-15 4.86762e-15 0)
(-2.10429e-16 3.83023e-15 0)
(3.85973e-15 2.97496e-15 0)
(7.33604e-15 1.93031e-15 0)
(9.2631e-15 1.21611e-15 0)
(9.22007e-15 1.25637e-15 0)
(9.29065e-15 1.31054e-15 0)
(1.05774e-14 2.52804e-16 0)
(1.27182e-14 -9.16319e-16 0)
(1.42331e-14 -2.06276e-15 0)
(1.52845e-14 -3.0895e-15 0)
(1.52732e-14 -4.21194e-15 0)
(1.44546e-14 -5.36046e-15 0)
(1.37129e-14 -6.8415e-15 0)
(1.27695e-14 -8.3556e-15 0)
(1.22523e-14 -9.76444e-15 0)
(1.14525e-14 -1.07733e-14 0)
(1.00332e-14 -1.11471e-14 0)
(9.10103e-15 -1.17232e-14 0)
(8.846e-15 -1.25214e-14 0)
(8.649e-15 -1.24785e-14 0)
(8.12611e-15 -1.24937e-14 0)
(7.13986e-15 -1.24711e-14 0)
(6.86431e-15 -1.26662e-14 0)
(7.94173e-15 -1.30004e-14 0)
(9.32858e-15 -1.31927e-14 0)
(1.00411e-14 -1.27459e-14 0)
(9.99969e-15 -1.22025e-14 0)
(9.52598e-15 -1.1144e-14 0)
(8.0715e-15 -1.11001e-14 0)
(6.45154e-15 -1.19931e-14 0)
(5.17161e-15 -1.28913e-14 0)
(3.73908e-15 -1.37873e-14 0)
(2.28082e-15 -1.53443e-14 0)
(2.11445e-15 -1.72178e-14 0)
(4.93473e-15 -1.93199e-14 0)
(8.50008e-15 -2.03349e-14 0)
(1.03763e-14 -2.02459e-14 0)
(1.11774e-14 -2.02884e-14 0)
(1.13665e-14 -2.03738e-14 0)
(1.11199e-14 -2.02054e-14 0)
(1.14795e-14 -1.99475e-14 0)
(1.29332e-14 -1.96951e-14 0)
(1.46678e-14 -1.97899e-14 0)
(1.61046e-14 -1.95386e-14 0)
(1.73985e-14 -1.94119e-14 0)
(1.87186e-14 -1.93212e-14 0)
(1.9416e-14 -1.901e-14 0)
(1.87442e-14 -1.82627e-14 0)
(1.79809e-14 -1.76944e-14 0)
(1.80565e-14 -1.77514e-14 0)
(1.82869e-14 -1.73929e-14 0)
(1.86487e-14 -1.67286e-14 0)
(1.89146e-14 -1.57744e-14 0)
(1.86219e-14 -1.40277e-14 0)
(1.73657e-14 -1.25031e-14 0)
(1.59147e-14 -1.03665e-14 0)
(1.37969e-14 -8.13856e-15 0)
(1.03185e-14 -5.32461e-15 0)
(4.81306e-15 -1.60462e-15 0)
(-3.53551e-15 7.98361e-16 0)
(-1.00586e-14 2.44592e-15 0)
(-1.58833e-14 3.71839e-15 0)
(-2.11108e-14 5.352e-15 0)
(-2.59795e-14 6.53842e-15 0)
(-3.0414e-14 7.20677e-15 0)
(-3.43401e-14 8.02598e-15 0)
(-3.83639e-14 8.83487e-15 0)
(-4.2556e-14 9.88128e-15 0)
(-4.59934e-14 1.13845e-14 0)
(-4.78586e-14 1.17362e-14 0)
(-4.96618e-14 1.21813e-14 0)
(-5.21784e-14 1.27632e-14 0)