/*--------------------------------*- C++ -*----------------------------------*\
| =========                 |                                                 |
| \\      /  F ield         | OpenFOAM: The Open Source CFD Toolbox           |
|  \\    /   O peration     | Version:  v2012                                 |
|   \\  /    A nd           | Website:  www.openfoam.com                      |
|    \\/     M anipulation  |                                                 |
\*---------------------------------------------------------------------------*/
FoamFile
{
    version     2.0;
    format      ascii;
    class       volVectorField;
    location    "70";
    object      Usup;
}
// * * * * * * * * * * * * * * * * * * * * * * * * * * * * * * * * * * * * * //

dimensions      [0 1 -1 0 0 0 0];


internalField   nonuniform List<vector> 
4000
(
(-0.00692798 -0.000123534 0)
(-0.0241752 1.0761e-05 0)
(-0.0336434 0.00113035 0)
(-0.0308462 -0.00841304 0)
(-0.0360429 -0.0239723 0)
(-0.044826 -0.0161321 0)
(-0.0388023 -0.00412871 0)
(-0.0247866 -0.00326657 0)
(0.00136844 -0.00848332 0)
(0.029993 -0.0263602 0)
(0.0386287 -0.0291014 0)
(0.0291793 -0.0286448 0)
(0.0224742 -0.0262485 0)
(0.0298857 -0.0206983 0)
(0.0211555 -0.0224535 0)
(-0.0038051 -0.0245995 0)
(-0.0139479 -0.0157852 0)
(-0.0154358 -0.00036902 0)
(-0.0339941 -0.00301254 0)
(-0.06299 0.00143332 0)
(-0.0748758 0.0087552 0)
(-0.0608227 0.0219384 0)
(-0.0260118 0.0251507 0)
(0.00916762 0.0176296 0)
(0.0162215 0.0107174 0)
(0.0153615 0.0154596 0)
(0.0438551 0.029407 0)
(0.0618974 0.0171972 0)
(0.0558574 0.00855613 0)
(0.0401192 -0.00121587 0)
(0.0201914 0.000637432 0)
(0.0131397 -0.00355369 0)
(-0.000938382 -0.00110233 0)
(-0.0204026 -0.0052321 0)
(-0.0339442 0.00402248 0)
(-0.0454315 0.0184774 0)
(-0.0410174 0.0297356 0)
(-0.0320531 0.0360845 0)
(-0.0334991 0.0429347 0)
(-0.0315691 0.0397178 0)
(-0.0162842 0.0353381 0)
(-0.00229179 0.0434449 0)
(-0.00122025 0.0500275 0)
(0.00675605 0.0514115 0)
(0.0198717 0.0487031 0)
(0.0289275 0.0372289 0)
(0.03802 0.0268814 0)
(0.0459438 0.013993 0)
(0.0513617 0.0101471 0)
(0.0461914 0.0110721 0)
(0.0287617 0.00710369 0)
(0.0117739 0.0124559 0)
(0.00667752 0.0190299 0)
(-0.00625699 0.01447 0)
(-0.0451281 0.00936606 0)
(-0.0772068 0.0201212 0)
(-0.0764358 0.0304859 0)
(-0.0546307 0.035601 0)
(-0.0272679 0.0247719 0)
(-0.00995085 0.0146357 0)
(-0.00983828 0.0241222 0)
(-0.00087753 0.0288364 0)
(0.0322508 0.0347535 0)
(0.0563151 0.0162281 0)
(0.0489425 0.00654764 0)
(0.0467002 0.00557003 0)
(0.042021 -0.00222809 0)
(0.0277109 -0.00779495 0)
(0.0247047 -0.0115906 0)
(0.0174767 -0.0160234 0)
(0.00303354 -0.0177809 0)
(-0.00480028 -0.0209425 0)
(-0.0157722 -0.0203615 0)
(-0.0266446 -0.00823676 0)
(-0.0215944 -0.00807474 0)
(-0.0327996 -0.00952515 0)
(-0.0482982 -0.00701948 0)
(-0.0354571 -0.00215938 0)
(-0.0211402 0.00208758 0)
(-0.0138658 0.0105032 0)
(-0.00531074 0.0127976 0)
(0.00611751 0.00355632 0)
(0.0173455 -0.000896224 0)
(0.0208327 0.00355299 0)
(0.021052 0.00993193 0)
(0.0283167 0.00389525 0)
(0.0227029 0.00309873 0)
(0.0106372 0.00771731 0)
(0.0153374 0.00159124 0)
(0.00164824 -0.0176124 0)
(-0.0121492 -0.00746524 0)
(0.00339825 -0.00220622 0)
(0.0131963 -0.0204162 0)
(0.00435129 -0.0292285 0)
(0.00769544 -0.0214123 0)
(0.00912133 -0.0286465 0)
(-0.0179284 -0.027806 0)
(-0.0272303 -0.0181104 0)
(-0.0188414 -0.00771845 0)
(-0.0106906 -0.00299513 0)
(-0.0167032 -0.00133122 0)
(-0.0544912 -0.00826852 0)
(-0.0856055 -0.012044 0)
(-0.0992231 -0.0292097 0)
(-0.0985074 -0.0476079 0)
(-0.0929822 -0.0434797 0)
(-0.0831199 -0.0232803 0)
(-0.0599687 -0.0175722 0)
(-0.0135061 -0.0305832 0)
(0.0510572 -0.0634801 0)
(0.0876617 -0.08291 0)
(0.0774907 -0.0836559 0)
(0.068281 -0.0776566 0)
(0.0724716 -0.0701108 0)
(0.0437217 -0.0661544 0)
(-0.00143199 -0.0664702 0)
(-0.0177762 -0.0459519 0)
(-0.0412379 -0.0216792 0)
(-0.0936581 -0.0162146 0)
(-0.146447 0.0012003 0)
(-0.163566 0.0239811 0)
(-0.133938 0.0612932 0)
(-0.0721978 0.0748025 0)
(-0.00112432 0.0590137 0)
(0.0361599 0.0370708 0)
(0.0644478 0.0496227 0)
(0.11127 0.0744218 0)
(0.133122 0.0593139 0)
(0.124692 0.035573 0)
(0.0973891 0.00841834 0)
(0.0564209 0.00242182 0)
(0.0313203 -0.00277759 0)
(-0.00587769 -0.0124266 0)
(-0.0471493 -0.00686888 0)
(-0.0683002 0.0170769 0)
(-0.0926874 0.0409302 0)
(-0.0930913 0.0804143 0)
(-0.0796986 0.110076 0)
(-0.0850998 0.124653 0)
(-0.0838864 0.120878 0)
(-0.0415558 0.116865 0)
(-0.000896011 0.130439 0)
(0.00531801 0.144356 0)
(0.020655 0.152968 0)
(0.0425555 0.141587 0)
(0.0615905 0.116616 0)
(0.0835639 0.085909 0)
(0.106898 0.0539749 0)
(0.126745 0.0326147 0)
(0.112636 0.0244719 0)
(0.0763469 0.0252473 0)
(0.0429731 0.0343765 0)
(0.0122666 0.044773 0)
(-0.0364692 0.0369992 0)
(-0.110042 0.0354758 0)
(-0.167395 0.052477 0)
(-0.173652 0.080315 0)
(-0.143556 0.0969881 0)
(-0.0939727 0.0900309 0)
(-0.0357224 0.0662282 0)
(-0.0110891 0.0741373 0)
(0.0164742 0.0885404 0)
(0.0709052 0.0925343 0)
(0.112385 0.0484654 0)
(0.119565 0.0245922 0)
(0.115832 0.0247272 0)
(0.0995203 -0.00607028 0)
(0.0722172 -0.0218571 0)
(0.0595756 -0.0351764 0)
(0.0399995 -0.0480451 0)
(0.00720106 -0.05275 0)
(-0.0147396 -0.0580913 0)
(-0.0311244 -0.0575829 0)
(-0.0564437 -0.0390068 0)
(-0.0648724 -0.0326662 0)
(-0.0868379 -0.0308426 0)
(-0.109552 -0.0227103 0)
(-0.0841644 -0.00709223 0)
(-0.049787 0.0081298 0)
(-0.0296759 0.0251326 0)
(-0.0190023 0.0344371 0)
(0.00445726 0.0203177 0)
(0.041156 0.00819876 0)
(0.0606538 0.0134127 0)
(0.056981 0.019042 0)
(0.0641041 0.0127165 0)
(0.0605416 0.011516 0)
(0.0330821 0.0154431 0)
(0.0172127 0.0064214 0)
(0.00136606 -0.0323238 0)
(-0.00600971 -0.0285569 0)
(-0.000969565 -0.0235458 0)
(0.00656743 -0.0554436 0)
(0.0115329 -0.0781414 0)
(0.0151625 -0.0729791 0)
(0.00546087 -0.0874501 0)
(-0.0345583 -0.0823355 0)
(-0.0494238 -0.0531808 0)
(-0.0396407 -0.0351798 0)
(-0.0231032 -0.00943805 0)
(-0.0270218 -0.00407421 0)
(-0.0812111 -0.0223445 0)
(-0.124673 -0.0263376 0)
(-0.143593 -0.0439449 0)
(-0.145311 -0.0459859 0)
(-0.133601 -0.0583353 0)
(-0.110418 -0.0546699 0)
(-0.0831703 -0.0529925 0)
(-0.0288255 -0.0591214 0)
(0.0508161 -0.0808288 0)
(0.108938 -0.11708 0)
(0.114269 -0.124177 0)
(0.104087 -0.118805 0)
(0.105629 -0.116604 0)
(0.0651788 -0.118497 0)
(0.00628291 -0.09797 0)
(-0.0210633 -0.0765982 0)
(-0.0616604 -0.0626098 0)
(-0.129273 -0.030934 0)
(-0.194308 0.00358046 0)
(-0.208602 0.0472489 0)
(-0.17006 0.0902153 0)
(-0.10536 0.111512 0)
(-0.0239887 0.101968 0)
(0.0454765 0.0894782 0)
(0.108951 0.0984116 0)
(0.167289 0.104654 0)
(0.182506 0.0885343 0)
(0.162003 0.0568654 0)
(0.127951 0.0246492 0)
(0.0818224 -0.00192811 0)
(0.0368492 -0.0065227 0)
(-0.0112157 -0.0279016 0)
(-0.0524421 -0.00609683 0)
(-0.0900094 0.0231156 0)
(-0.114874 0.050438 0)
(-0.10673 0.122138 0)
(-0.104989 0.177781 0)
(-0.123788 0.20138 0)
(-0.120396 0.207071 0)
(-0.0606605 0.209684 0)
(-0.0011024 0.21245 0)
(0.0176074 0.225559 0)
(0.0336383 0.239393 0)
(0.0541652 0.222361 0)
(0.0771647 0.198571 0)
(0.105588 0.154371 0)
(0.138084 0.113148 0)
(0.166633 0.0660895 0)
(0.16161 0.0311525 0)
(0.119319 0.0300965 0)
(0.0667299 0.0357576 0)
(0.0123847 0.0466011 0)
(-0.0597603 0.0397515 0)
(-0.155733 0.052683 0)
(-0.225232 0.0765311 0)
(-0.231095 0.114886 0)
(-0.197565 0.14802 0)
(-0.145192 0.161344 0)
(-0.0709144 0.140532 0)
(-0.0129541 0.130108 0)
(0.0337311 0.140563 0)
(0.0872 0.132127 0)
(0.138882 0.089549 0)
(0.171429 0.0564477 0)
(0.16042 0.0458663 0)
(0.129859 -0.00810232 0)
(0.102106 -0.0409512 0)
(0.0806314 -0.061282 0)
(0.0537697 -0.0854253 0)
(0.0110619 -0.0903913 0)
(-0.0224302 -0.0868511 0)
(-0.045637 -0.0975336 0)
(-0.077287 -0.0878563 0)
(-0.0945351 -0.0646179 0)
(-0.124661 -0.0499405 0)
(-0.146749 -0.0323193 0)
(-0.111418 -0.0071273 0)
(-0.0673212 0.0115002 0)
(-0.0382944 0.0337292 0)
(-0.0250023 0.0445217 0)
(0.000674566 0.0513463 0)
(0.052994 0.0314269 0)
(0.0850038 0.0178304 0)
(0.0847559 0.0185893 0)
(0.0944875 0.0182247 0)
(0.0874638 0.0224179 0)
(0.0517231 0.0241284 0)
(0.0170244 0.00691065 0)
(-0.00961988 -0.0310802 0)
(-0.0088081 -0.0470353 0)
(-0.00648282 -0.0585026 0)
(-0.00636816 -0.0925974 0)
(0.00408946 -0.114522 0)
(0.0093466 -0.125611 0)
(-0.00238028 -0.140322 0)
(-0.0369428 -0.132501 0)
(-0.0585236 -0.0965965 0)
(-0.0482905 -0.0621547 0)
(-0.0245126 -0.0163155 0)
(-0.0351927 -0.0130595 0)
(-0.0948107 -0.0354236 0)
(-0.148084 -0.0430709 0)
(-0.174602 -0.0546396 0)
(-0.180088 -0.0497314 0)
(-0.173214 -0.0752362 0)
(-0.140854 -0.0875296 0)
(-0.0979554 -0.08891 0)
(-0.0312479 -0.0857325 0)
(0.0469791 -0.0989661 0)
(0.114189 -0.140147 0)
(0.137151 -0.154713 0)
(0.129417 -0.142797 0)
(0.119355 -0.141252 0)
(0.083265 -0.154968 0)
(0.0241144 -0.1284 0)
(-0.0262649 -0.1087 0)
(-0.0691552 -0.0891119 0)
(-0.137657 -0.0339613 0)
(-0.20979 0.00557821 0)
(-0.228321 0.0666592 0)
(-0.193442 0.100182 0)
(-0.125674 0.136367 0)
(-0.0302319 0.137302 0)
(0.0581468 0.146938 0)
(0.130843 0.148297 0)
(0.192122 0.125144 0)
(0.206761 0.101684 0)
(0.184676 0.0603097 0)
(0.141163 0.026537 0)
(0.0910347 -0.00432424 0)
(0.0393214 -0.0194458 0)
(-0.0120685 -0.0312301 0)
(-0.0506591 -0.0117221 0)
(-0.0963466 0.022754 0)
(-0.108013 0.068449 0)
(-0.0918188 0.147935 0)
(-0.108835 0.213205 0)
(-0.143041 0.262818 0)
(-0.143082 0.280641 0)
(-0.0802196 0.289132 0)
(-0.00730092 0.287757 0)
(0.0284945 0.292603 0)
(0.0447961 0.302856 0)
(0.0638529 0.290161 0)
(0.0853775 0.26786 0)
(0.112976 0.22098 0)
(0.146002 0.160612 0)
(0.171886 0.0976004 0)
(0.178354 0.037549 0)
(0.144947 0.0250582 0)
(0.0871539 0.034772 0)
(0.012656 0.0388996 0)
(-0.0762712 0.0296916 0)
(-0.17647 0.046548 0)
(-0.251969 0.0905159 0)
(-0.258027 0.138774 0)
(-0.225013 0.183048 0)
(-0.179545 0.208313 0)
(-0.103252 0.204303 0)
(-0.0246079 0.188227 0)
(0.0400512 0.185431 0)
(0.0980324 0.166019 0)
(0.154347 0.136311 0)
(0.19698 0.0947746 0)
(0.177593 0.0526732 0)
(0.135051 -0.0170172 0)
(0.114825 -0.0651356 0)
(0.0898058 -0.0942475 0)
(0.0592343 -0.114797 0)
(0.0208056 -0.114941 0)
(-0.03032 -0.109844 0)
(-0.0659872 -0.130335 0)
(-0.0861979 -0.132205 0)
(-0.103812 -0.104112 0)
(-0.142931 -0.0707675 0)
(-0.165017 -0.0297674 0)
(-0.129108 0.00132894 0)
(-0.0778182 0.00907685 0)
(-0.0423403 0.0321475 0)
(-0.0204296 0.0536855 0)
(0.00357775 0.0710994 0)
(0.0456276 0.0545347 0)
(0.0941191 0.0266498 0)
(0.10821 0.0221229 0)
(0.121772 0.0319332 0)
(0.114816 0.0251486 0)
(0.0611643 0.0284927 0)
(0.00681551 -0.00512733 0)
(-0.0216615 -0.0379542 0)
(-0.0194376 -0.0631836 0)
(-0.0253948 -0.0917699 0)
(-0.0230193 -0.125036 0)
(-0.00615436 -0.148891 0)
(-0.00439061 -0.158905 0)
(-0.0138193 -0.174571 0)
(-0.040241 -0.171974 0)
(-0.052324 -0.135016 0)
(-0.0399872 -0.0829046 0)
(-0.0238351 -0.0230277 0)
(-0.0370753 -0.0236341 0)
(-0.10323 -0.0495064 0)
(-0.160856 -0.0693593 0)
(-0.186068 -0.0709699 0)
(-0.207587 -0.0710889 0)
(-0.210553 -0.0904251 0)
(-0.16112 -0.0964433 0)
(-0.103938 -0.100693 0)
(-0.0334551 -0.101272 0)
(0.0372023 -0.117073 0)
(0.108973 -0.151908 0)
(0.157208 -0.176256 0)
(0.155379 -0.174098 0)
(0.129136 -0.165042 0)
(0.0905207 -0.163136 0)
(0.033524 -0.146584 0)
(-0.0223126 -0.116999 0)
(-0.0593582 -0.0923 0)
(-0.13452 -0.0531524 0)
(-0.212221 0.000327423 0)
(-0.233909 0.0724153 0)
(-0.198121 0.103505 0)
(-0.127112 0.148526 0)
(-0.0302987 0.172754 0)
(0.0703097 0.178885 0)
(0.136047 0.178791 0)
(0.19953 0.147763 0)
(0.215358 0.110684 0)
(0.186888 0.0627001 0)
(0.147362 0.0201888 0)
(0.0937268 -0.00298125 0)
(0.0383381 -0.0313679 0)
(-0.0107919 -0.0350625 0)
(-0.0442738 -0.00915249 0)
(-0.0845383 0.0298719 0)
(-0.0908256 0.0970014 0)
(-0.0734369 0.15989 0)
(-0.0914702 0.229793 0)
(-0.138319 0.297757 0)
(-0.15316 0.317659 0)
(-0.0902753 0.332613 0)
(-0.0140149 0.343166 0)
(0.03226 0.350769 0)
(0.054985 0.347064 0)
(0.0713002 0.335367 0)
(0.086846 0.296697 0)
(0.101134 0.250187 0)
(0.129674 0.179337 0)
(0.157966 0.107548 0)
(0.179213 0.0466407 0)
(0.167778 0.0163442 0)
(0.101162 0.0226951 0)
(0.00362826 0.0204441 0)
(-0.0919826 0.0196909 0)
(-0.182651 0.0341633 0)
(-0.253383 0.0882563 0)
(-0.264663 0.143353 0)
(-0.235283 0.198835 0)
(-0.194366 0.238985 0)
(-0.123108 0.249228 0)
(-0.0368867 0.233697 0)
(0.0367672 0.226714 0)
(0.101117 0.200909 0)
(0.16057 0.17359 0)
(0.195676 0.114422 0)
(0.165565 0.0508891 0)
(0.124096 -0.0204602 0)
(0.113553 -0.0774283 0)
(0.0966979 -0.116767 0)
(0.0726155 -0.129623 0)
(0.028054 -0.145111 0)
(-0.04097 -0.142384 0)
(-0.0885679 -0.146287 0)
(-0.100722 -0.155617 0)
(-0.103964 -0.134766 0)
(-0.133697 -0.10351 0)
(-0.16084 -0.0287327 0)
(-0.143577 0.0142212 0)
(-0.0920296 0.0187738 0)
(-0.0363855 0.0302933 0)
(-0.00927673 0.0564603 0)
(0.00644276 0.0787303 0)
(0.041374 0.0743836 0)
(0.0938954 0.0528291 0)
(0.128531 0.0346843 0)
(0.139492 0.0397476 0)
(0.125034 0.0170297 0)
(0.0629714 0.00883056 0)
(-0.00593864 -0.024603 0)
(-0.0354587 -0.0483269 0)
(-0.0384134 -0.0808035 0)
(-0.0437998 -0.11709 0)
(-0.0416628 -0.141272 0)
(-0.0191078 -0.163194 0)
(-0.0157022 -0.175899 0)
(-0.030397 -0.184529 0)
(-0.0430075 -0.186831 0)
(-0.0428257 -0.150722 0)
(-0.0261679 -0.103406 0)
(-0.017135 -0.0298996 0)
(-0.036424 -0.0312276 0)
(-0.106251 -0.0656849 0)
(-0.164937 -0.0840417 0)
(-0.193325 -0.0794064 0)
(-0.221729 -0.0963299 0)
(-0.222031 -0.0978581 0)
(-0.173471 -0.091019 0)
(-0.114378 -0.100308 0)
(-0.0398321 -0.108212 0)
(0.0288646 -0.123593 0)
(0.100138 -0.14669 0)
(0.153655 -0.181881 0)
(0.167824 -0.192444 0)
(0.149788 -0.173408 0)
(0.106076 -0.158519 0)
(0.0501072 -0.153706 0)
(-0.0125985 -0.126342 0)
(-0.0661864 -0.100304 0)
(-0.129438 -0.06979 0)
(-0.188035 -0.00371521 0)
(-0.223757 0.0688165 0)
(-0.197319 0.11384 0)
(-0.113274 0.155361 0)
(-0.0209428 0.193978 0)
(0.0738851 0.195697 0)
(0.140571 0.192275 0)
(0.192025 0.167815 0)
(0.204262 0.119799 0)
(0.178378 0.0669858 0)
(0.144064 0.0159865 0)
(0.088756 -0.0195116 0)
(0.0322986 -0.0410753 0)
(0.000112893 -0.0400614 0)
(-0.0272845 -0.00309081 0)
(-0.0596587 0.0506962 0)
(-0.0653414 0.120218 0)
(-0.0520823 0.168022 0)
(-0.0644871 0.240149 0)
(-0.129985 0.305551 0)
(-0.159227 0.328458 0)
(-0.0896922 0.347053 0)
(-0.00660947 0.361569 0)
(0.03478 0.366949 0)
(0.0531833 0.359208 0)
(0.0623379 0.337349 0)
(0.0721304 0.286671 0)
(0.0864816 0.231891 0)
(0.106261 0.170319 0)
(0.138136 0.104834 0)
(0.166163 0.0513024 0)
(0.16626 -0.00380802 0)
(0.108269 -0.0104069 0)
(0.00486885 -0.0134068 0)
(-0.09708 -0.00608764 0)
(-0.180989 0.0208789 0)
(-0.243402 0.0733048 0)
(-0.25294 0.13869 0)
(-0.222883 0.207704 0)
(-0.193831 0.252291 0)
(-0.137423 0.274238 0)
(-0.0488442 0.262607 0)
(0.0319079 0.245781 0)
(0.0979862 0.230302 0)
(0.14798 0.196946 0)
(0.174161 0.124378 0)
(0.148252 0.0552006 0)
(0.106379 -0.0103673 0)
(0.100406 -0.0778279 0)
(0.0952131 -0.131486 0)
(0.0670636 -0.152061 0)
(0.0233945 -0.178618 0)
(-0.0359998 -0.178619 0)
(-0.0962138 -0.167447 0)
(-0.11155 -0.169081 0)
(-0.109392 -0.149486 0)
(-0.115605 -0.113118 0)
(-0.131 -0.0361868 0)
(-0.142221 0.0204441 0)
(-0.104355 0.0439577 0)
(-0.0402773 0.049746 0)
(0.0036918 0.0612788 0)
(0.0194528 0.0843869 0)
(0.0418976 0.0835341 0)
(0.0899021 0.0767535 0)
(0.129744 0.0631209 0)
(0.142508 0.045595 0)
(0.124463 0.00681701 0)
(0.0586422 -0.0230518 0)
(-0.0128464 -0.0458587 0)
(-0.0470931 -0.0685947 0)
(-0.0595523 -0.0949758 0)
(-0.0627945 -0.125665 0)
(-0.0531957 -0.147176 0)
(-0.0332384 -0.158733 0)
(-0.0294673 -0.181525 0)
(-0.0420237 -0.177787 0)
(-0.0489816 -0.171925 0)
(-0.0382277 -0.147451 0)
(-0.0122892 -0.101645 0)
(-0.00599879 -0.0364698 0)
(-0.0351427 -0.037322 0)
(-0.101597 -0.0775608 0)
(-0.154752 -0.094553 0)
(-0.195941 -0.0891106 0)
(-0.232507 -0.0982276 0)
(-0.222134 -0.0937364 0)
(-0.176244 -0.0882293 0)
(-0.122476 -0.0837292 0)
(-0.0460593 -0.0958325 0)
(0.0236144 -0.115101 0)
(0.087796 -0.142115 0)
(0.147564 -0.172739 0)
(0.183305 -0.171974 0)
(0.169256 -0.164811 0)
(0.109767 -0.161044 0)
(0.0487148 -0.152172 0)
(-0.00572955 -0.135157 0)
(-0.0540669 -0.109999 0)
(-0.111239 -0.0726463 0)
(-0.164944 -0.0102573 0)
(-0.201801 0.0577059 0)
(-0.180191 0.116046 0)
(-0.098434 0.17094 0)
(-0.0120093 0.207519 0)
(0.0765334 0.2073 0)
(0.139771 0.192623 0)
(0.183627 0.165207 0)
(0.18612 0.123727 0)
(0.15589 0.0723949 0)
(0.122732 0.0125212 0)
(0.0792 -0.0405734 0)
(0.0359753 -0.0545943 0)
(0.0138075 -0.0403091 0)
(0.00349312 -0.00183833 0)
(-0.0260691 0.0697662 0)
(-0.0459904 0.123027 0)
(-0.0310862 0.16373 0)
(-0.0359344 0.222194 0)
(-0.114707 0.278875 0)
(-0.156124 0.316577 0)
(-0.0886358 0.354883 0)
(-0.00951957 0.361657 0)
(0.033688 0.35353 0)
(0.0497612 0.340768 0)
(0.0471811 0.300009 0)
(0.0493851 0.251276 0)
(0.0635139 0.187599 0)
(0.0878147 0.11515 0)
(0.120398 0.0617451 0)
(0.14191 0.032875 0)
(0.152371 -0.0110166 0)
(0.107594 -0.0396953 0)
(0.00155234 -0.0541639 0)
(-0.0914132 -0.0435739 0)
(-0.166427 0.00630408 0)
(-0.220875 0.0587293 0)
(-0.223455 0.124634 0)
(-0.204047 0.192407 0)
(-0.185595 0.238002 0)
(-0.139497 0.274928 0)
(-0.0636842 0.286203 0)
(0.0259009 0.270749 0)
(0.0958235 0.24399 0)
(0.127409 0.195117 0)
(0.144695 0.126502 0)
(0.122385 0.052342 0)
(0.0795485 -0.00844706 0)
(0.070849 -0.0748156 0)
(0.0784604 -0.130842 0)
(0.0620956 -0.173139 0)
(0.0191704 -0.20114 0)
(-0.035762 -0.206904 0)
(-0.097331 -0.188911 0)
(-0.114203 -0.170196 0)
(-0.0977951 -0.147662 0)
(-0.090579 -0.0986827 0)
(-0.104095 -0.0432817 0)
(-0.122818 0.012041 0)
(-0.101453 0.0591429 0)
(-0.0448345 0.0763669 0)
(0.0061033 0.0862811 0)
(0.0239057 0.0947525 0)
(0.0469285 0.100884 0)
(0.0979902 0.0955659 0)
(0.129993 0.0897319 0)
(0.124854 0.0592015 0)
(0.100816 0.00127267 0)
(0.0476846 -0.0401512 0)
(-0.0201851 -0.0648271 0)
(-0.0571955 -0.0850659 0)
(-0.0705649 -0.112753 0)
(-0.0762455 -0.128694 0)
(-0.0641524 -0.138332 0)
(-0.0480093 -0.149604 0)
(-0.0406967 -0.167922 0)
(-0.0438302 -0.166095 0)
(-0.0526371 -0.15047 0)
(-0.0357119 -0.125023 0)
(-0.00384609 -0.0816195 0)
(0.003559 -0.0327116 0)
(-0.0317449 -0.0376289 0)
(-0.0941499 -0.0818921 0)
(-0.143887 -0.0989641 0)
(-0.183777 -0.0972793 0)
(-0.223952 -0.0885134 0)
(-0.218885 -0.0782942 0)
(-0.170538 -0.0758113 0)
(-0.120506 -0.062752 0)
(-0.0572077 -0.0720096 0)
(0.00685802 -0.0974775 0)
(0.074171 -0.125215 0)
(0.14937 -0.140497 0)
(0.189158 -0.139264 0)
(0.167907 -0.15561 0)
(0.117166 -0.162514 0)
(0.0606632 -0.154398 0)
(-0.00103824 -0.12404 0)
(-0.05 -0.10526 0)
(-0.0941553 -0.0770994 0)
(-0.134793 -0.0109694 0)
(-0.172747 0.0614 0)
(-0.149332 0.128847 0)
(-0.0698435 0.18485 0)
(-0.00390093 0.201137 0)
(0.0677105 0.2024 0)
(0.127394 0.187572 0)
(0.169209 0.149259 0)
(0.169595 0.109399 0)
(0.130704 0.0619504 0)
(0.0905375 0.00741272 0)
(0.0603302 -0.0443651 0)
(0.0421696 -0.0603979 0)
(0.0361528 -0.0393171 0)
(0.0387862 0.00198324 0)
(0.00695669 0.0613483 0)
(-0.028807 0.108428 0)
(-0.0154467 0.13866 0)
(-0.0161523 0.184638 0)
(-0.0936118 0.232608 0)
(-0.130116 0.292733 0)
(-0.0747082 0.338243 0)
(-0.0156098 0.322367 0)
(0.0222832 0.302597 0)
(0.0275744 0.288507 0)
(0.0204244 0.247058 0)
(0.0218793 0.186498 0)
(0.0247335 0.12468 0)
(0.0545476 0.0529351 0)
(0.116807 -0.00213042 0)
(0.145787 -0.0201414 0)
(0.136002 -0.038428 0)
(0.0866424 -0.072887 0)
(-0.00255957 -0.0943268 0)
(-0.0720194 -0.0710549 0)
(-0.138135 -0.01489 0)
(-0.197491 0.0375732 0)
(-0.198423 0.10891 0)
(-0.179612 0.172737 0)
(-0.164297 0.21698 0)
(-0.120691 0.262461 0)
(-0.0563394 0.28558 0)
(0.0112384 0.28052 0)
(0.0665454 0.241556 0)
(0.0968348 0.181374 0)
(0.111439 0.115116 0)
(0.09384 0.0454483 0)
(0.0560534 -0.0178611 0)
(0.0483982 -0.0757148 0)
(0.0530129 -0.123979 0)
(0.0356677 -0.182782 0)
(0.00797239 -0.214021 0)
(-0.0286776 -0.219243 0)
(-0.0812828 -0.194398 0)
(-0.102186 -0.160643 0)
(-0.0845435 -0.129736 0)
(-0.0707215 -0.0861595 0)
(-0.0824288 -0.038252 0)
(-0.0973177 0.0147436 0)
(-0.0820362 0.0643708 0)
(-0.0377528 0.0886108 0)
(0.0084706 0.115157 0)
(0.0302979 0.119175 0)
(0.0506678 0.125433 0)
(0.0963807 0.120053 0)
(0.122154 0.102174 0)
(0.0988378 0.0607337 0)
(0.0727919 0.00413551 0)
(0.0295921 -0.0455593 0)
(-0.0294005 -0.0756544 0)
(-0.0696275 -0.0927679 0)
(-0.08283 -0.113883 0)
(-0.0766637 -0.121265 0)
(-0.0679092 -0.119712 0)
(-0.0596538 -0.124737 0)
(-0.0530023 -0.149134 0)
(-0.0489638 -0.155893 0)
(-0.0484142 -0.136294 0)
(-0.0283541 -0.0964384 0)
(0.00187191 -0.0585685 0)
(0.00723875 -0.0207667 0)
(-0.0298147 -0.0374095 0)
(-0.0843848 -0.0796144 0)
(-0.12715 -0.0962307 0)
(-0.166285 -0.101755 0)
(-0.207915 -0.0863034 0)
(-0.208515 -0.0678875 0)
(-0.162568 -0.0564908 0)
(-0.116128 -0.041085 0)
(-0.0647859 -0.0449122 0)
(-0.0051151 -0.0727746 0)
(0.0690011 -0.0927857 0)
(0.15042 -0.0950743 0)
(0.183261 -0.112715 0)
(0.15869 -0.142894 0)
(0.110564 -0.154096 0)
(0.0688873 -0.15745 0)
(0.0138304 -0.122796 0)
(-0.0439284 -0.0926895 0)
(-0.0723036 -0.0668146 0)
(-0.0965474 -0.0110091 0)
(-0.13155 0.0711081 0)
(-0.11689 0.148834 0)
(-0.0641546 0.183647 0)
(-0.00731056 0.179218 0)
(0.0694327 0.18306 0)
(0.113593 0.173921 0)
(0.146782 0.135368 0)
(0.146988 0.0768148 0)
(0.106495 0.0329912 0)
(0.0668527 -0.00472417 0)
(0.045173 -0.0350089 0)
(0.046925 -0.0568598 0)
(0.0573284 -0.0499351 0)
(0.0657728 -0.0153379 0)
(0.0323902 0.0367824 0)
(-0.0147937 0.0812086 0)
(-0.00377085 0.110418 0)
(0.00425244 0.141151 0)
(-0.061554 0.165876 0)
(-0.099809 0.225744 0)
(-0.0813061 0.266333 0)
(-0.0419963 0.261813 0)
(0.0113405 0.236175 0)
(0.020266 0.21004 0)
(-0.00838618 0.173156 0)
(-0.0144878 0.109325 0)
(-0.00407015 0.05688 0)
(0.0268963 -0.00543054 0)
(0.0974244 -0.0590122 0)
(0.14104 -0.0957612 0)
(0.131434 -0.104044 0)
(0.0741035 -0.112825 0)
(-0.000923025 -0.117991 0)
(-0.0481706 -0.0911168 0)
(-0.111433 -0.0448037 0)
(-0.161189 0.0111639 0)
(-0.15745 0.0962188 0)
(-0.155309 0.155858 0)
(-0.143645 0.1976 0)
(-0.103499 0.229323 0)
(-0.0536482 0.238116 0)
(0.00191702 0.243101 0)
(0.0421265 0.220484 0)
(0.0623925 0.171221 0)
(0.0784364 0.104557 0)
(0.0606119 0.0338621 0)
(0.0254538 -0.0226758 0)
(0.0239081 -0.0753677 0)
(0.0246168 -0.133871 0)
(0.0129297 -0.183204 0)
(0.000627843 -0.209191 0)
(-0.0220355 -0.214944 0)
(-0.0633885 -0.190218 0)
(-0.0830577 -0.14764 0)
(-0.0649406 -0.106363 0)
(-0.0485604 -0.0660573 0)
(-0.0559697 -0.0134176 0)
(-0.0716247 0.0380331 0)
(-0.0672754 0.0658689 0)
(-0.0217828 0.0953969 0)
(0.0211031 0.13032 0)
(0.0310029 0.142953 0)
(0.0535933 0.139763 0)
(0.0922414 0.137919 0)
(0.101514 0.11412 0)
(0.0699487 0.0700002 0)
(0.0401601 0.0156697 0)
(0.00535168 -0.0436627 0)
(-0.0408258 -0.0767302 0)
(-0.0742003 -0.0962644 0)
(-0.0837499 -0.101191 0)
(-0.0763682 -0.105653 0)
(-0.0666463 -0.0978019 0)
(-0.0745412 -0.0979049 0)
(-0.0745697 -0.130012 0)
(-0.0526339 -0.132818 0)
(-0.0355706 -0.114857 0)
(-0.0145074 -0.0755007 0)
(0.00588878 -0.0423505 0)
(0.0061553 -0.0134178 0)
(-0.0234723 -0.0345885 0)
(-0.0710187 -0.0707952 0)
(-0.115368 -0.0955386 0)
(-0.147817 -0.10464 0)
(-0.181661 -0.0840545 0)
(-0.186538 -0.0568294 0)
(-0.143717 -0.0313416 0)
(-0.105408 -0.00496911 0)
(-0.0727685 -9.58746e-05 0)
(-0.0189709 -0.0258525 0)
(0.0681633 -0.0527011 0)
(0.144748 -0.0710299 0)
(0.161937 -0.108409 0)
(0.141579 -0.140754 0)
(0.10523 -0.150478 0)
(0.0761504 -0.139886 0)
(0.0325339 -0.119669 0)
(-0.0287832 -0.0821126 0)
(-0.0584429 -0.0431527 0)
(-0.0597873 0.00480751 0)
(-0.0807381 0.0713955 0)
(-0.0881531 0.141109 0)
(-0.0625483 0.160539 0)
(-0.0112767 0.169505 0)
(0.0653511 0.165891 0)
(0.101574 0.147912 0)
(0.11302 0.114285 0)
(0.112976 0.0496891 0)
(0.0899101 0.00755543 0)
(0.0572903 -0.0205577 0)
(0.0338888 -0.0350203 0)
(0.0365243 -0.0695098 0)
(0.0646304 -0.0606526 0)
(0.0932192 -0.0379608 0)
(0.0623179 -0.000348196 0)
(0.00509167 0.0284171 0)
(0.005895 0.0699357 0)
(0.00168795 0.0794246 0)
(-0.0523485 0.0892856 0)
(-0.0732338 0.12786 0)
(-0.0596469 0.161502 0)
(-0.0426514 0.18287 0)
(-0.0135401 0.168379 0)
(-0.00944904 0.133543 0)
(-0.037872 0.0984583 0)
(-0.042633 0.0429718 0)
(-0.0352243 -0.00865384 0)
(-0.0050818 -0.068525 0)
(0.0745623 -0.116195 0)
(0.132828 -0.155023 0)
(0.13727 -0.152533 0)
(0.0821589 -0.156532 0)
(0.0102846 -0.144453 0)
(-0.0300194 -0.110752 0)
(-0.0820775 -0.0734189 0)
(-0.117783 -0.00990143 0)
(-0.117551 0.0675385 0)
(-0.128614 0.118183 0)
(-0.128738 0.155922 0)
(-0.101955 0.181102 0)
(-0.0485008 0.187779 0)
(0.00511722 0.211082 0)
(0.0290483 0.191914 0)
(0.0338943 0.142111 0)
(0.0374012 0.0845338 0)
(0.0292772 0.0139067 0)
(0.00412542 -0.0233654 0)
(-0.00793515 -0.0713219 0)
(-0.00572505 -0.124402 0)
(-0.00541879 -0.169483 0)
(-0.00813085 -0.194514 0)
(-0.0147467 -0.198574 0)
(-0.0386658 -0.173084 0)
(-0.0533037 -0.122486 0)
(-0.0418242 -0.0780684 0)
(-0.0223703 -0.0421007 0)
(-0.0266007 0.0061176 0)
(-0.0583973 0.0471594 0)
(-0.0560774 0.068588 0)
(-0.00203957 0.105814 0)
(0.0371234 0.123779 0)
(0.0365061 0.140001 0)
(0.0514519 0.149877 0)
(0.0863897 0.149051 0)
(0.0842818 0.125783 0)
(0.0403704 0.0834863 0)
(0.00363705 0.0361881 0)
(-0.0246358 -0.0255114 0)
(-0.056028 -0.0699582 0)
(-0.077912 -0.0867321 0)
(-0.0828527 -0.0871109 0)
(-0.0705153 -0.0955454 0)
(-0.0622966 -0.0851736 0)
(-0.0878769 -0.0792481 0)
(-0.0885374 -0.108001 0)
(-0.0539328 -0.110012 0)
(-0.0294577 -0.088829 0)
(-0.00582591 -0.064312 0)
(0.00935361 -0.0351051 0)
(0.00508935 -0.0116324 0)
(-0.017582 -0.0327941 0)
(-0.0621853 -0.0672227 0)
(-0.104299 -0.0946762 0)
(-0.125125 -0.0982643 0)
(-0.150946 -0.0821649 0)
(-0.15516 -0.0447122 0)
(-0.113964 -0.00160073 0)
(-0.084451 0.0259068 0)
(-0.0717284 0.0316597 0)
(-0.0351142 0.0150074 0)
(0.044463 -0.0098011 0)
(0.117269 -0.0409045 0)
(0.13775 -0.0942964 0)
(0.130226 -0.123513 0)
(0.109346 -0.137043 0)
(0.0847211 -0.122944 0)
(0.0444499 -0.122507 0)
(-0.00399807 -0.087515 0)
(-0.0279593 -0.036536 0)
(-0.0332939 0.0180493 0)
(-0.0514827 0.0708364 0)
(-0.0684098 0.132134 0)
(-0.0553516 0.142725 0)
(-0.00926761 0.157146 0)
(0.0541609 0.139581 0)
(0.0821884 0.123736 0)
(0.0857053 0.0906018 0)
(0.0823471 0.0416037 0)
(0.069137 0.000167029 0)
(0.0480783 -0.0334363 0)
(0.0180481 -0.0554868 0)
(0.0319369 -0.0905171 0)
(0.0787045 -0.0760365 0)
(0.102659 -0.0532439 0)
(0.0688335 -0.0399792 0)
(0.0208896 -0.0243175 0)
(0.0157492 0.0103412 0)
(0.000302326 8.4444e-06 0)
(-0.0425483 0.0101576 0)
(-0.0601696 0.0451931 0)
(-0.0498997 0.0690385 0)
(-0.0406907 0.0781884 0)
(-0.0229682 0.0770334 0)
(-0.0235282 0.0518254 0)
(-0.0622491 0.0233512 0)
(-0.076423 -0.0199676 0)
(-0.0666097 -0.0735149 0)
(-0.0319416 -0.113303 0)
(0.0528221 -0.143198 0)
(0.130057 -0.186284 0)
(0.141027 -0.191086 0)
(0.0844337 -0.198853 0)
(0.0302201 -0.172422 0)
(-0.00513877 -0.124738 0)
(-0.0520471 -0.0824702 0)
(-0.0759538 -0.028291 0)
(-0.0828301 0.0264332 0)
(-0.108375 0.0567038 0)
(-0.111527 0.0922175 0)
(-0.0884759 0.135421 0)
(-0.0331479 0.153891 0)
(0.010596 0.167158 0)
(0.0037683 0.149086 0)
(0.00131778 0.106328 0)
(0.00583107 0.0626868 0)
(0.00467489 0.00844872 0)
(-0.0141581 -0.022624 0)
(-0.0295781 -0.0608558 0)
(-0.030586 -0.103191 0)
(-0.026639 -0.141627 0)
(-0.014454 -0.170128 0)
(-0.00583148 -0.166818 0)
(-0.0125516 -0.13293 0)
(-0.0231051 -0.090714 0)
(-0.0194109 -0.0545458 0)
(-0.00247604 -0.0204272 0)
(-0.00679422 0.0128108 0)
(-0.0411701 0.0474435 0)
(-0.0371999 0.0726483 0)
(0.00929141 0.0962491 0)
(0.0409681 0.106758 0)
(0.0493757 0.127664 0)
(0.0636531 0.151328 0)
(0.0815374 0.151302 0)
(0.0630311 0.134546 0)
(0.0154651 0.0962083 0)
(-0.0279932 0.0527514 0)
(-0.0610912 -0.00232991 0)
(-0.0754424 -0.0546693 0)
(-0.0782606 -0.0707031 0)
(-0.0840203 -0.071316 0)
(-0.0715164 -0.090242 0)
(-0.0545079 -0.0805646 0)
(-0.0950374 -0.0766235 0)
(-0.105455 -0.0782977 0)
(-0.0520724 -0.0876985 0)
(-0.0214163 -0.0712196 0)
(-0.000747179 -0.0538445 0)
(0.0128983 -0.0326615 0)
(0.0049259 -0.0126653 0)
(-0.0110944 -0.0316708 0)
(-0.0507247 -0.0710133 0)
(-0.0898214 -0.0906936 0)
(-0.104074 -0.0972198 0)
(-0.11804 -0.0842583 0)
(-0.11021 -0.0364694 0)
(-0.0792362 0.0249786 0)
(-0.0709338 0.0571831 0)
(-0.0720018 0.0687207 0)
(-0.041324 0.0518056 0)
(0.0344907 0.0261505 0)
(0.0888468 0.00485048 0)
(0.105429 -0.0443582 0)
(0.111546 -0.0767629 0)
(0.103511 -0.114032 0)
(0.0807648 -0.118558 0)
(0.0485961 -0.124093 0)
(0.0210417 -0.0970147 0)
(0.00339645 -0.0427353 0)
(0.00241885 0.00815756 0)
(-0.0128706 0.0591349 0)
(-0.0488895 0.105727 0)
(-0.0539113 0.11993 0)
(-0.0186018 0.137289 0)
(0.0407608 0.128018 0)
(0.070108 0.102695 0)
(0.06074 0.0826975 0)
(0.056698 0.0531093 0)
(0.0453586 -0.0023536 0)
(0.025701 -0.0583362 0)
(-0.0015117 -0.0928042 0)
(0.024162 -0.113386 0)
(0.0904181 -0.104052 0)
(0.113757 -0.0836366 0)
(0.0737945 -0.0728161 0)
(0.0294542 -0.0638202 0)
(0.00957015 -0.0514527 0)
(-0.0128209 -0.0682054 0)
(-0.0322585 -0.0691736 0)
(-0.0405677 -0.0374968 0)
(-0.0424846 -0.0139615 0)
(-0.0396372 -0.0198086 0)
(-0.0312196 -0.0188893 0)
(-0.0427068 -0.0348486 0)
(-0.0803995 -0.0595588 0)
(-0.100402 -0.0911795 0)
(-0.0884008 -0.128231 0)
(-0.0403341 -0.149124 0)
(0.0358177 -0.162423 0)
(0.109894 -0.199306 0)
(0.136309 -0.222331 0)
(0.099209 -0.22386 0)
(0.0627388 -0.186078 0)
(0.0289378 -0.131441 0)
(-0.0225901 -0.0854419 0)
(-0.0518884 -0.0434937 0)
(-0.0700881 -0.0255516 0)
(-0.0941016 -0.0083175 0)
(-0.0816853 0.0323991 0)
(-0.0629529 0.080976 0)
(-0.0261334 0.11675 0)
(0.00627179 0.114437 0)
(-0.00567893 0.105595 0)
(-0.0152288 0.0829344 0)
(-0.0170999 0.055687 0)
(-0.0145133 0.013605 0)
(-0.0280773 -0.0151395 0)
(-0.0501383 -0.0436564 0)
(-0.0510922 -0.0823783 0)
(-0.0445923 -0.117604 0)
(-0.0211695 -0.13284 0)
(0.0133541 -0.120455 0)
(0.0135369 -0.0866831 0)
(-0.00333084 -0.0532089 0)
(-0.000800658 -0.0314486 0)
(0.014649 0.00285798 0)
(0.0102252 0.0338348 0)
(-0.0267631 0.0511032 0)
(-0.030682 0.0650803 0)
(0.0153315 0.0778167 0)
(0.0558738 0.0924177 0)
(0.0685033 0.111676 0)
(0.0714906 0.127275 0)
(0.0796927 0.13745 0)
(0.0517209 0.132475 0)
(-0.0103271 0.113173 0)
(-0.0587236 0.073165 0)
(-0.0936806 0.0251129 0)
(-0.0972109 -0.0282559 0)
(-0.0824835 -0.0469671 0)
(-0.0914441 -0.0589469 0)
(-0.0738546 -0.0812473 0)
(-0.0515687 -0.0826936 0)
(-0.0887249 -0.0810227 0)
(-0.102961 -0.0551271 0)
(-0.059341 -0.0619395 0)