/*--------------------------------*- C++ -*----------------------------------*\
| =========                 |                                                 |
| \\      /  F ield         | OpenFOAM: The Open Source CFD Toolbox           |
|  \\    /   O peration     | Version:  v2012                                 |
|   \\  /    A nd           | Website:  www.openfoam.com                      |
|    \\/     M anipulation  |                                                 |
\*---------------------------------------------------------------------------*/
FoamFile
{
    version     2.0;
    format      ascii;
    class       volVectorField;
    location    "0";
    object      U;
}
// * * * * * * * * * * * * * * * * * * * * * * * * * * * * * * * * * * * * * //

dimensions      [0 1 -1 0 0 0 0];


internalField   nonuniform List<vector> 
4000
(
(1 3.93862e-15 0)
(1 1.44892e-15 0)
(1 1.73559e-15 0)
(1 -1.02576e-16 0)
(1 -8.9864e-16 0)
(1 -5.64691e-15 0)
(1 2.88385e-17 0)
(1 6.9546e-15 0)
(1 4.3319e-15 0)
(1 -5.34632e-15 0)
(1 -3.22494e-15 0)
(1 1.74692e-15 0)
(1 4.01955e-15 0)
(1 3.17917e-15 0)
(1 -2.2075e-15 0)
(1 -8.18917e-15 0)
(1 5.20465e-16 0)
(1 3.97418e-15 0)
(1 -2.09636e-16 0)
(1 -4.99142e-16 0)
(1 -4.62247e-15 0)
(1 -2.78582e-15 0)
(1 -1.755e-15 0)
(1 -1.80074e-15 0)
(1 3.62371e-15 0)
(1 4.54293e-15 0)
(1 1.87089e-16 0)
(1 1.23401e-15 0)
(1 5.91573e-16 0)
(1 -3.35198e-16 0)
(1 -4.76059e-15 0)
(1 -7.45361e-15 0)
(1 -1.13094e-15 0)
(1 -2.50643e-15 0)
(1 -2.72231e-16 0)
(1 3.04658e-16 0)
(1 8.47477e-15 0)
(1 2.10145e-15 0)
(1 5.31971e-15 0)
(1 -2.43683e-15 0)
(1 -6.11559e-15 0)
(1 -5.94304e-15 0)
(1 3.39748e-15 0)
(1 3.51726e-15 0)
(1 2.3395e-15 0)
(1 -2.57035e-16 0)
(1 -4.1815e-15 0)
(1 6.35365e-16 0)
(1 1.905e-15 0)
(1 4.25078e-15 0)
(1 2.19451e-15 0)
(1 4.03281e-15 0)
(1 3.28794e-15 0)
(1 2.23843e-15 0)
(1 2.40929e-15 0)
(1 4.2389e-16 0)
(1 -3.96198e-15 0)
(1 2.86984e-15 0)
(1 -1.35271e-15 0)
(1 2.08788e-15 0)
(1 -4.17456e-16 0)
(1 1.99117e-15 0)
(1 1.16796e-15 0)
(1 -1.8237e-15 0)
(1 -7.72677e-16 0)
(1 -1.79161e-15 0)
(1 -7.78766e-16 0)
(1 4.0308e-15 0)
(1 -3.06069e-15 0)
(1 -1.24993e-15 0)
(1 -2.04757e-15 0)
(1 8.39933e-16 0)
(1 -3.54776e-15 0)
(1 -4.19529e-15 0)
(1 -6.07712e-15 0)
(1 -2.89615e-15 0)
(1 -2.03719e-15 0)
(1 -2.03975e-16 0)
(1 3.81913e-17 0)
(1 1.49426e-15 0)
(1 5.42414e-16 0)
(1 2.85353e-15 0)
(1 2.05976e-16 0)
(1 -7.6756e-15 0)
(1 -4.98815e-15 0)
(1 5.10218e-15 0)
(1 3.14186e-15 0)
(1 3.46284e-15 0)
(1 2.45724e-15 0)
(1 2.14289e-15 0)
(1 4.70382e-16 0)
(1 1.99027e-15 0)
(1 -8.24612e-16 0)
(1 -1.6312e-16 0)
(1 -1.38707e-15 0)
(1 4.62368e-15 0)
(1 -2.01162e-15 0)
(1 -1.80707e-15 0)
(1 -4.36764e-16 0)
(1 -2.15533e-15 0)
(1 2.57119e-15 0)
(1 3.02976e-15 0)
(1 2.12922e-15 0)
(1 1.59999e-15 0)
(1 -2.09905e-15 0)
(1 -7.29351e-15 0)
(1 -1.92603e-15 0)
(1 7.77418e-15 0)
(1 6.11733e-15 0)
(1 1.11974e-15 0)
(1 -5.64008e-15 0)
(1 -3.36274e-16 0)
(1 4.66287e-15 0)
(1 1.3551e-15 0)
(1 -3.13516e-15 0)
(1 -1.11313e-14 0)
(1 2.51167e-15 0)
(1 7.46597e-15 0)
(1 -6.20612e-16 0)
(1 6.72809e-16 0)
(1 -3.95837e-15 0)
(1 -5.39117e-16 0)
(1 3.68053e-15 0)
(1 7.46611e-16 0)
(1 3.14586e-16 0)
(1 -4.14927e-15 0)
(1 -7.16408e-15 0)
(1 -7.98575e-16 0)
(1 2.36946e-15 0)
(1 -7.69118e-16 0)
(1 1.47198e-15 0)
(1 -4.95471e-15 0)
(1 3.81822e-16 0)
(1 -1.81189e-16 0)
(1 -4.27611e-15 0)
(1 1.10103e-15 0)
(1 6.31553e-15 0)
(1 -1.25317e-15 0)
(1 -2.24732e-15 0)
(1 -4.30984e-15 0)
(1 -6.57884e-15 0)
(1 -1.17769e-15 0)
(1 5.48661e-15 0)
(1 7.97603e-15 0)
(1 4.8291e-15 0)
(1 -2.37862e-15 0)
(1 -3.40869e-15 0)
(1 -4.0504e-15 0)
(1 1.61386e-15 0)
(1 -2.47673e-15 0)
(1 -8.91656e-16 0)
(1 1.70219e-15 0)
(1 4.0933e-15 0)
(1 1.41693e-15 0)
(1 6.56189e-15 0)
(1 5.15336e-15 0)
(1 -1.33159e-15 0)
(1 4.62188e-16 0)
(1 -3.44112e-15 0)
(1 -1.51313e-15 0)
(1 -5.0053e-15 0)
(1 -3.63875e-15 0)
(1 5.97153e-15 0)
(1 4.12938e-15 0)
(1 -4.15401e-16 0)
(1 -7.42283e-15 0)
(1 -1.83895e-15 0)
(1 2.78672e-15 0)
(1 -3.33657e-15 0)
(1 -1.64239e-15 0)
(1 2.25453e-15 0)
(1 3.75911e-15 0)
(1 2.09668e-15 0)
(1 1.24449e-15 0)
(1 1.25567e-15 0)
(1 -4.46475e-15 0)
(1 1.13281e-15 0)
(1 2.34196e-15 0)
(1 5.32145e-15 0)
(1 5.45891e-15 0)
(1 5.86344e-16 0)
(1 -1.44518e-15 0)
(1 1.04073e-15 0)
(1 -7.39434e-15 0)
(1 -5.13187e-15 0)
(1 6.07936e-15 0)
(1 5.01202e-15 0)
(1 1.23223e-15 0)
(1 -6.02877e-16 0)
(1 -4.99942e-16 0)
(1 -3.82141e-15 0)
(1 2.25295e-16 0)
(1 -1.25274e-15 0)
(1 1.8596e-15 0)
(1 -2.0333e-15 0)
(1 6.32077e-15 0)
(1 -3.73996e-15 0)
(1 1.83143e-15 0)
(1 -4.52001e-15 0)
(1 -7.01263e-15 0)
(1 -4.36188e-15 0)
(1 4.42967e-15 0)
(1 -4.90625e-15 0)
(1 4.78262e-15 0)
(1 -4.30276e-15 0)
(1 3.64153e-16 0)
(1 2.58686e-15 0)
(1 3.5957e-15 0)
(1 3.78678e-15 0)
(1 3.39856e-15 0)
(1 -1.37509e-15 0)
(1 -1.32298e-15 0)
(1 1.11352e-14 0)
(1 2.31549e-15 0)
(1 -2.16369e-15 0)
(1 -6.88266e-15 0)
(1 -5.7481e-15 0)
(1 1.82662e-16 0)
(1 2.25826e-15 0)
(1 -3.17056e-15 0)
(1 -2.34536e-15 0)
(1 3.61246e-15 0)
(1 5.32602e-15 0)
(1 6.3013e-15 0)
(1 1.96055e-15 0)
(1 -2.06443e-15 0)
(1 -2.36641e-15 0)
(1 -2.71982e-16 0)
(1 5.98965e-15 0)
(1 4.36184e-16 0)
(1 6.51909e-15 0)
(1 -6.18969e-15 0)
(1 -1.76646e-15 0)
(1 -4.31038e-15 0)
(1 -1.20193e-15 0)
(1 7.5864e-16 0)
(1 -3.71597e-15 0)
(1 -6.16435e-15 0)
(1 -4.07351e-15 0)
(1 -5.3341e-16 0)
(1 -3.27935e-15 0)
(1 -6.9453e-16 0)
(1 1.94467e-15 0)
(1 5.9866e-15 0)
(1 7.71153e-15 0)
(1 1.68024e-15 0)
(1 7.48505e-15 0)
(1 -2.04141e-15 0)
(1 5.16432e-16 0)
(1 -1.29453e-15 0)
(1 2.66317e-15 0)
(1 4.85071e-16 0)
(1 2.71116e-15 0)
(1 1.67177e-15 0)
(1 7.64806e-15 0)
(1 7.06735e-15 0)
(1 2.20333e-15 0)
(1 -8.74391e-16 0)
(1 -3.50623e-15 0)
(1 -5.80067e-15 0)
(1 -2.76557e-15 0)
(1 -1.12416e-15 0)
(1 4.46524e-15 0)
(1 6.95045e-15 0)
(1 -2.75043e-15 0)
(1 -5.51148e-15 0)
(1 -7.17391e-16 0)
(1 -1.61139e-15 0)
(1 -2.98759e-15 0)
(1 -1.87469e-15 0)
(1 -1.92784e-15 0)
(1 -2.04926e-15 0)
(1 5.52381e-15 0)
(1 2.84049e-15 0)
(1 -2.64093e-15 0)
(1 -5.34053e-15 0)
(1 -2.20734e-15 0)
(1 -1.20037e-15 0)
(1 4.23975e-15 0)
(1 1.92841e-15 0)
(1 -7.15363e-16 0)
(1 -2.52292e-15 0)
(1 7.43118e-16 0)
(1 -2.7218e-15 0)
(1 -1.42326e-15 0)
(1 1.0958e-15 0)
(1 2.91968e-15 0)
(1 8.17122e-16 0)
(1 -2.0624e-15 0)
(1 -1.23238e-15 0)
(1 -1.23845e-15 0)
(1 7.45917e-16 0)
(1 8.35128e-16 0)
(1 9.07159e-15 0)
(1 -7.38046e-16 0)
(1 1.27735e-15 0)
(1 -2.75962e-15 0)
(1 -4.0439e-16 0)
(1 -6.23502e-15 0)
(1 -5.96274e-15 0)
(1 7.48381e-16 0)
(1 -6.18566e-15 0)
(1 -4.68757e-15 0)
(1 -4.05116e-15 0)
(1 1.83377e-15 0)
(1 9.06309e-15 0)
(1 8.2704e-15 0)
(1 -1.21996e-16 0)
(1 2.10691e-15 0)
(1 -4.06939e-15 0)
(1 4.92129e-15 0)
(1 -4.43702e-15 0)
(1 5.05401e-15 0)
(1 1.25296e-14 0)
(1 5.91465e-15 0)
(1 5.1134e-15 0)
(1 -6.61433e-15 0)
(1 -8.07726e-15 0)
(1 4.97581e-15 0)
(1 -4.87895e-15 0)
(1 -1.24622e-15 0)
(1 1.72022e-15 0)
(1 2.95565e-15 0)
(1 7.99602e-15 0)
(1 7.83655e-15 0)
(1 1.28205e-14 0)
(1 4.70828e-15 0)
(1 6.8717e-15 0)
(1 3.63166e-15 0)
(1 -2.55996e-15 0)
(1 1.40037e-15 0)
(1 -1.40587e-14 0)
(1 -4.17587e-15 0)
(1 -9.73679e-15 0)
(1 1.52497e-15 0)
(1 -5.50444e-15 0)
(1 -3.84506e-15 0)
(1 -1.29507e-15 0)
(1 1.82251e-15 0)
(1 -5.25574e-15 0)
(1 2.7092e-15 0)
(1 -2.19527e-15 0)
(1 3.74184e-15 0)
(1 -3.48302e-15 0)
(1 3.08338e-15 0)
(1 6.79569e-15 0)
(1 6.15462e-15 0)
(1 6.92468e-15 0)
(1 3.59044e-15 0)
(1 3.43012e-15 0)
(1 2.92216e-15 0)
(1 4.97252e-15 0)
(1 2.58576e-15 0)
(1 6.52827e-15 0)
(1 5.31778e-15 0)
(1 1.65654e-15 0)
(1 -1.26267e-15 0)
(1 -1.07262e-15 0)
(1 2.24422e-15 0)
(1 -3.79096e-15 0)
(1 1.47423e-15 0)
(1 1.06067e-15 0)
(1 1.80797e-15 0)
(1 -1.65433e-15 0)
(1 1.52288e-15 0)
(1 3.2757e-15 0)
(1 -2.20739e-15 0)
(1 -7.98109e-15 0)
(1 -7.2357e-15 0)
(1 -4.13716e-15 0)
(1 -2.54671e-15 0)
(1 -3.14143e-15 0)
(1 1.63636e-15 0)
(1 -5.30422e-16 0)
(1 -9.71395e-15 0)
(1 -3.80033e-15 0)
(1 1.95601e-15 0)
(1 1.08022e-15 0)
(1 7.80049e-16 0)
(1 -2.28358e-15 0)
(1 3.34206e-15 0)
(1 -1.47887e-16 0)
(1 1.02786e-16 0)
(1 -2.29658e-15 0)
(1 -1.33457e-15 0)
(1 3.68619e-15 0)
(1 4.52031e-15 0)
(1 6.6651e-15 0)
(1 6.46088e-15 0)
(1 2.47213e-15 0)
(1 4.33432e-15 0)
(1 9.16012e-16 0)
(1 3.43826e-15 0)
(1 3.99089e-15 0)
(1 -9.13702e-16 0)
(1 -3.04565e-15 0)
(1 -4.32417e-15 0)
(1 -9.70464e-15 0)
(1 -7.72149e-15 0)
(1 -7.81606e-16 0)
(1 4.94787e-15 0)
(1 -2.78153e-15 0)
(1 1.57391e-15 0)
(1 -2.54892e-15 0)
(1 4.96396e-15 0)
(1 7.62725e-16 0)
(1 -1.68259e-15 0)
(1 -3.99947e-15 0)
(1 -4.96965e-15 0)
(1 -5.18945e-15 0)
(1 1.42395e-14 0)
(1 3.89584e-15 0)
(1 1.74506e-15 0)
(1 1.55458e-15 0)
(1 5.40842e-15 0)
(1 4.39884e-15 0)
(1 -2.32892e-16 0)
(1 -6.08848e-15 0)
(1 -6.21233e-15 0)
(1 -4.91763e-15 0)
(1 4.85667e-15 0)
(1 -1.57609e-15 0)
(1 -4.00499e-15 0)
(1 3.76292e-15 0)
(1 7.85539e-15 0)
(1 7.46594e-15 0)
(1 1.98525e-15 0)
(1 8.84019e-15 0)
(1 4.43428e-15 0)
(1 2.79826e-15 0)
(1 2.26618e-15 0)
(1 -1.01366e-16 0)
(1 -2.92986e-15 0)
(1 -9.22238e-16 0)
(1 -8.45521e-15 0)
(1 -1.13435e-14 0)
(1 -1.01182e-14 0)
(1 -5.78594e-15 0)
(1 -3.14758e-15 0)
(1 -3.17494e-15 0)
(1 1.16103e-15 0)
(1 -3.49573e-15 0)
(1 2.88821e-15 0)
(1 1.83091e-15 0)
(1 4.63571e-16 0)
(1 1.9214e-15 0)
(1 -9.23911e-16 0)
(1 9.32647e-15 0)
(1 4.24493e-15 0)
(1 2.69181e-15 0)
(1 1.54715e-15 0)
(1 3.36608e-15 0)
(1 4.02219e-17 0)
(1 5.00863e-15 0)
(1 7.97821e-16 0)
(1 3.16133e-17 0)
(1 2.56656e-15 0)
(1 -5.76293e-16 0)
(1 2.44783e-15 0)
(1 1.95214e-16 0)
(1 -1.43202e-15 0)
(1 2.1308e-15 0)
(1 8.93227e-16 0)
(1 3.66568e-15 0)
(1 1.27342e-14 0)
(1 5.6582e-15 0)
(1 7.29521e-16 0)
(1 -6.73449e-15 0)
(1 -2.30088e-15 0)
(1 -5.41414e-15 0)
(1 -2.27934e-15 0)
(1 6.5138e-16 0)
(1 1.96163e-15 0)
(1 -7.40149e-16 0)
(1 -2.16356e-15 0)
(1 -1.42559e-15 0)
(1 8.3997e-17 0)
(1 -6.50504e-16 0)
(1 1.17921e-15 0)
(1 3.30041e-15 0)
(1 8.1069e-16 0)
(1 -2.00757e-15 0)
(1 -2.17526e-15 0)
(1 -6.08624e-16 0)
(1 5.94299e-15 0)
(1 2.88617e-15 0)
(1 3.84097e-15 0)
(1 3.2675e-15 0)
(1 4.32539e-15 0)
(1 1.69446e-15 0)
(1 6.60165e-15 0)
(1 -7.09794e-16 0)
(1 2.59307e-15 0)
(1 7.5042e-16 0)
(1 5.38615e-15 0)
(1 -2.25304e-15 0)
(1 -1.0419e-15 0)
(1 -5.06779e-15 0)
(1 -2.32592e-15 0)
(1 4.53496e-15 0)
(1 -1.04326e-15 0)
(1 3.58476e-15 0)
(1 4.01377e-15 0)
(1 3.93428e-15 0)
(1 -3.80231e-15 0)
(1 -9.97337e-15 0)
(1 -3.09967e-15 0)
(1 8.67447e-16 0)
(1 -6.67787e-16 0)
(1 -2.19832e-17 0)
(1 5.20539e-15 0)
(1 1.38722e-14 0)
(1 7.49251e-15 0)
(1 -3.99933e-15 0)
(1 3.46634e-15 0)
(1 -2.60573e-15 0)
(1 2.00555e-15 0)
(1 -3.09239e-15 0)
(1 -1.14407e-14 0)
(1 -4.90177e-15 0)
(1 2.96252e-15 0)
(1 1.04242e-14 0)
(1 5.55433e-15 0)
(1 4.69629e-15 0)
(1 5.20972e-15 0)
(1 3.17178e-15 0)
(1 4.47131e-15 0)
(1 4.20899e-15 0)
(1 4.55116e-15 0)
(1 8.33917e-15 0)
(1 -4.65595e-15 0)
(1 -5.22937e-16 0)
(1 -4.77064e-15 0)
(1 9.55217e-16 0)
(1 -3.78005e-15 0)
(1 1.08246e-15 0)
(1 -8.39194e-15 0)
(1 -3.96893e-15 0)
(1 -4.99373e-15 0)
(1 2.34943e-15 0)
(1 -6.20684e-15 0)
(1 3.31878e-15 0)
(1 1.6395e-15 0)
(1 1.06343e-14 0)
(1 3.79969e-15 0)
(1 -3.02499e-15 0)
(1 5.12058e-16 0)
(1 5.09421e-15 0)
(1 5.23656e-15 0)
(1 7.97403e-15 0)
(1 3.63981e-15 0)
(1 4.24174e-15 0)
(1 3.60553e-15 0)
(1 5.36885e-15 0)
(1 4.3069e-15 0)
(1 2.17612e-15 0)
(1 -3.71541e-15 0)
(1 -2.95884e-15 0)
(1 -8.18897e-16 0)
(1 6.94222e-15 0)
(1 5.53401e-15 0)
(1 3.69818e-15 0)
(1 -5.16368e-15 0)
(1 5.434e-15 0)
(1 7.24283e-15 0)
(1 5.57993e-15 0)
(1 6.84462e-15 0)
(1 6.27027e-15 0)
(1 1.07417e-14 0)
(1 1.11031e-14 0)
(1 9.34492e-15 0)
(1 2.37963e-16 0)
(1 2.47268e-16 0)
(1 -3.42707e-15 0)
(1 -4.56579e-15 0)
(1 -6.9913e-15 0)
(1 -6.01118e-15 0)
(1 -1.9047e-15 0)
(1 2.0251e-15 0)
(1 5.04028e-15 0)
(1 -4.52081e-16 0)
(1 4.18069e-15 0)
(1 -4.63121e-16 0)
(1 -1.43373e-15 0)
(1 -1.1653e-15 0)
(1 -4.02725e-15 0)
(1 -3.1044e-15 0)
(1 -1.64563e-17 0)
(1 -1.18846e-15 0)
(1 4.01207e-15 0)
(1 3.17274e-15 0)
(1 2.4698e-15 0)
(1 2.88192e-15 0)
(1 7.2397e-15 0)
(1 7.85569e-15 0)
(1 7.03036e-16 0)
(1 5.74463e-15 0)
(1 3.92935e-15 0)
(1 9.40491e-15 0)
(1 7.99364e-15 0)
(1 -1.79165e-15 0)
(1 4.8467e-16 0)
(1 5.12277e-15 0)
(1 5.23526e-15 0)
(1 -1.82087e-17 0)
(1 -4.34012e-15 0)
(1 7.67939e-16 0)
(1 5.14845e-15 0)
(1 1.34858e-15 0)
(1 3.92514e-15 0)
(1 -4.41315e-15 0)
(1 4.40297e-16 0)
(1 -2.53875e-15 0)
(1 4.37149e-15 0)
(1 8.15675e-16 0)
(1 -5.94503e-16 0)
(1 -3.1445e-17 0)
(1 -1.21889e-15 0)
(1 2.42474e-15 0)
(1 5.78016e-15 0)
(1 2.24686e-15 0)
(1 6.0638e-15 0)
(1 -1.55034e-16 0)
(1 -3.61932e-16 0)
(1 -9.25654e-15 0)
(1 -7.02159e-15 0)
(1 5.65255e-15 0)
(1 2.23972e-15 0)
(1 6.58691e-15 0)
(1 7.9713e-15 0)
(1 5.63494e-15 0)
(1 9.76811e-16 0)
(1 -1.11715e-15 0)
(1 -2.81269e-15 0)
(1 -2.65247e-15 0)
(1 -4.41659e-15 0)
(1 -3.73785e-15 0)
(1 1.47454e-15 0)
(1 -1.73826e-15 0)
(1 -7.84064e-16 0)
(1 7.1769e-16 0)
(1 1.72801e-14 0)
(1 1.03093e-14 0)
(1 7.06344e-15 0)
(1 -8.08082e-15 0)
(1 -5.99691e-15 0)
(1 -4.71654e-15 0)
(1 2.46367e-15 0)
(1 6.15535e-15 0)
(1 4.80259e-15 0)
(1 5.75937e-15 0)
(1 -1.2089e-15 0)
(1 3.69721e-15 0)
(1 -8.36041e-16 0)
(1 4.52356e-15 0)
(1 -5.72849e-17 0)
(1 2.75111e-15 0)
(1 -8.57383e-17 0)
(1 2.66521e-15 0)
(1 5.41972e-15 0)
(1 9.74939e-15 0)
(1 3.27201e-15 0)
(1 1.88689e-15 0)
(1 1.89707e-16 0)
(1 -1.0081e-15 0)
(1 1.94142e-15 0)
(1 1.48378e-15 0)
(1 4.07676e-15 0)
(1 2.42573e-15 0)
(1 9.35612e-15 0)
(1 8.62427e-15 0)
(1 -1.07998e-15 0)
(1 -4.79862e-15 0)
(1 -2.05625e-16 0)
(1 1.52573e-15 0)
(1 3.30339e-15 0)
(1 9.17032e-15 0)
(1 1.56668e-15 0)
(1 7.07232e-16 0)
(1 -2.5994e-15 0)
(1 5.06615e-15 0)
(1 4.37138e-15 0)
(1 1.37528e-15 0)
(1 1.86788e-15 0)
(1 -2.39586e-15 0)
(1 2.38675e-15 0)
(1 3.06908e-15 0)
(1 6.00023e-15 0)
(1 4.23094e-15 0)
(1 7.49885e-15 0)
(1 1.87124e-15 0)
(1 4.90108e-15 0)
(1 4.15127e-15 0)
(1 1.06735e-14 0)
(1 4.82564e-15 0)
(1 6.52397e-15 0)
(1 9.13109e-15 0)
(1 1.05275e-14 0)
(1 6.26209e-15 0)
(1 6.34672e-15 0)
(1 2.43075e-16 0)
(1 -1.68235e-15 0)
(1 -4.94553e-15 0)
(1 -2.46431e-15 0)
(1 3.27873e-15 0)
(1 4.6928e-15 0)
(1 1.52545e-15 0)
(1 5.12543e-15 0)
(1 -4.75222e-15 0)
(1 -6.1899e-16 0)
(1 -4.0389e-15 0)
(1 -2.94147e-15 0)
(1 3.23274e-15 0)
(1 1.40225e-14 0)
(1 2.01578e-15 0)
(1 8.4371e-15 0)
(1 1.96792e-15 0)
(1 5.55018e-15 0)
(1 7.14936e-15 0)
(1 1.08755e-15 0)
(1 1.20937e-15 0)
(1 -9.94344e-15 0)
(1 -1.25761e-14 0)
(1 -1.0109e-14 0)
(1 -9.7773e-15 0)
(1 -6.95119e-15 0)
(1 8.83804e-15 0)
(1 6.66876e-15 0)
(1 1.22712e-14 0)
(1 3.57315e-15 0)
(1 9.29471e-15 0)
(1 -1.17537e-15 0)
(1 -5.44659e-15 0)
(1 -2.50299e-15 0)
(1 2.31399e-15 0)
(1 -6.91484e-15 0)
(1 2.02276e-16 0)
(1 2.7043e-15 0)
(1 4.05468e-15 0)
(1 -2.15993e-15 0)
(1 5.67202e-15 0)
(1 -5.64608e-15 0)
(1 -2.60037e-15 0)
(1 -5.12531e-15 0)
(1 -3.30536e-16 0)
(1 4.33576e-15 0)
(1 3.76491e-15 0)
(1 6.13079e-15 0)
(1 8.32727e-15 0)
(1 3.00584e-15 0)
(1 8.43065e-15 0)
(1 2.7244e-15 0)
(1 7.60123e-15 0)
(1 2.53445e-15 0)
(1 5.93044e-15 0)
(1 4.23662e-15 0)
(1 5.72092e-15 0)
(1 -6.99546e-16 0)
(1 -1.96702e-15 0)
(1 -7.15252e-16 0)
(1 1.77051e-15 0)
(1 9.95528e-15 0)
(1 1.04949e-14 0)
(1 7.71025e-15 0)
(1 1.62529e-15 0)
(1 4.4845e-15 0)
(1 7.22776e-15 0)
(1 2.90848e-15 0)
(1 1.03972e-15 0)
(1 3.93493e-15 0)
(1 2.94759e-15 0)
(1 5.79022e-15 0)
(1 6.61767e-15 0)
(1 1.09852e-15 0)
(1 3.03e-15 0)
(1 5.51568e-15 0)
(1 5.06596e-15 0)
(1 -2.36756e-15 0)
(1 1.41633e-16 0)
(1 -4.71277e-15 0)
(1 -9.05107e-16 0)
(1 -4.17983e-16 0)
(1 -3.98856e-16 0)
(1 1.66337e-15 0)
(1 3.25414e-15 0)
(1 3.60195e-15 0)
(1 5.21093e-15 0)
(1 -1.3883e-15 0)
(1 1.37273e-15 0)
(1 5.54011e-15 0)
(1 3.44604e-15 0)
(1 4.26415e-15 0)
(1 8.24696e-16 0)
(1 4.58741e-15 0)
(1 8.86109e-15 0)
(1 1.1177e-14 0)
(1 1.08451e-14 0)
(1 1.43503e-14 0)
(1 6.65409e-15 0)
(1 1.08319e-14 0)
(1 -2.02266e-15 0)
(1 -4.74576e-15 0)
(1 -5.60714e-15 0)
(1 -9.84046e-15 0)
(1 7.5724e-16 0)
(1 8.17946e-15 0)
(1 7.66e-15 0)
(1 4.21816e-15 0)
(1 -3.97669e-15 0)
(1 -1.57579e-15 0)
(1 -5.57683e-15 0)
(1 -6.11644e-16 0)
(1 6.46668e-15 0)
(1 1.58342e-14 0)
(1 5.24097e-15 0)
(1 7.06346e-15 0)
(1 -2.37351e-15 0)
(1 6.87209e-15 0)
(1 9.74806e-16 0)
(1 -3.78715e-15 0)
(1 -9.57531e-15 0)
(1 -2.22698e-15 0)
(1 6.79759e-15 0)
(1 9.74092e-16 0)
(1 -8.06521e-15 0)
(1 -4.88857e-17 0)
(1 3.70151e-15 0)
(1 4.01526e-15 0)
(1 8.65472e-17 0)
(1 3.20933e-15 0)
(1 -4.27244e-15 0)
(1 -4.15411e-15 0)
(1 -1.24717e-14 0)
(1 -3.84081e-15 0)
(1 3.22365e-15 0)
(1 5.4608e-15 0)
(1 3.80905e-15 0)
(1 3.31621e-15 0)
(1 -2.49121e-15 0)
(1 -1.20868e-15 0)
(1 2.06471e-15 0)
(1 -4.9079e-15 0)
(1 -1.04088e-16 0)
(1 1.04833e-15 0)
(1 1.3345e-14 0)
(1 1.04683e-14 0)
(1 8.81753e-15 0)
(1 -2.20262e-15 0)
(1 6.71507e-15 0)
(1 1.03082e-15 0)
(1 6.03554e-15 0)
(1 7.97374e-15 0)
(1 6.74941e-15 0)
(1 1.07095e-14 0)
(1 5.92407e-15 0)
(1 9.48707e-15 0)
(1 -4.14304e-16 0)
(1 -5.02554e-15 0)
(1 6.31153e-15 0)
(1 1.31657e-18 0)
(1 3.47459e-15 0)
(1 -4.49326e-15 0)
(1 8.6431e-16 0)
(1 -2.71151e-15 0)
(1 2.13197e-15 0)
(1 2.04142e-15 0)
(1 1.00726e-14 0)
(1 2.08484e-14 0)
(1 1.10876e-14 0)
(1 1.73468e-14 0)
(1 1.21659e-14 0)
(1 1.15879e-14 0)
(1 1.00717e-14 0)
(1 1.51696e-15 0)
(1 1.19083e-15 0)
(1 4.29363e-16 0)
(1 8.39067e-16 0)
(1 5.47862e-15 0)
(1 7.73621e-15 0)
(1 -1.69006e-15 0)
(1 -3.866e-16 0)
(1 2.37596e-16 0)
(1 4.03493e-15 0)
(1 3.40556e-16 0)
(1 -2.27569e-15 0)
(1 -6.71816e-16 0)
(1 5.52432e-16 0)
(1 -3.13487e-15 0)
(1 1.95868e-15 0)
(1 1.87424e-15 0)
(1 1.79645e-15 0)
(1 4.11973e-15 0)
(1 4.37763e-15 0)
(1 7.87725e-15 0)
(1 1.27677e-14 0)
(1 1.76894e-14 0)
(1 1.90606e-14 0)
(1 2.07448e-14 0)
(1 2.18576e-14 0)
(1 2.09415e-14 0)
(1 -2.14933e-16 0)
(1 3.43666e-16 0)
(1 3.79357e-15 0)
(1 1.50318e-15 0)
(1 -3.47306e-16 0)
(1 -2.1296e-15 0)
(1 3.00634e-15 0)
(1 -2.33199e-15 0)
(1 5.04177e-15 0)
(1 1.36378e-15 0)
(1 4.74059e-15 0)
(1 -2.58434e-15 0)
(1 1.39544e-15 0)
(1 -2.26691e-15 0)
(1 1.96183e-15 0)
(1 -2.27992e-15 0)
(1 -3.69595e-15 0)
(1 3.47109e-15 0)
(1 -3.24038e-16 0)
(1 5.53704e-15 0)
(1 -7.68961e-15 0)
(1 -3.92304e-15 0)
(1 2.56909e-15 0)
(1 4.79096e-15 0)
(1 -6.72934e-16 0)
(1 6.5773e-15 0)
(1 4.11401e-15 0)
(1 4.85835e-15 0)
(1 -5.1264e-15 0)
(1 3.3257e-15 0)
(1 -2.64474e-15 0)
(1 8.0348e-15 0)
(1 -2.00332e-15 0)
(1 5.52329e-16 0)
(1 -9.64448e-15 0)
(1 -1.75151e-15 0)
(1 -3.49792e-15 0)
(1 -3.63717e-15 0)
(1 -4.16832e-15 0)
(1 6.8182e-15 0)
(1 -1.75352e-16 0)
(1 2.65214e-15 0)
(1 1.00682e-15 0)
(1 5.41168e-15 0)
(1 -3.40976e-15 0)
(1 -3.16669e-15 0)
(1 3.98633e-15 0)
(1 -1.94113e-16 0)
(1 5.29105e-15 0)
(1 7.62983e-15 0)
(1 9.13772e-15 0)
(1 5.6648e-15 0)
(1 6.8412e-15 0)
(1 4.7789e-15 0)
(1 3.02121e-15 0)
(1 5.58261e-15 0)
(1 2.1036e-15 0)
(1 1.4163e-15 0)
(1 1.16972e-14 0)
(1 9.66331e-15 0)
(1 5.51183e-15 0)
(1 -3.03013e-16 0)
(1 6.39084e-15 0)
(1 1.45384e-15 0)
(1 2.69549e-15 0)
(1 4.19663e-15 0)
(1 6.72241e-15 0)
(1 1.70948e-14 0)
(1 2.24035e-14 0)
(1 1.52641e-14 0)
(1 4.38298e-15 0)
(1 7.5348e-15 0)
(1 1.55621e-15 0)
(1 1.08244e-16 0)
(1 1.18119e-15 0)
(1 5.22869e-15 0)
(1 1.05611e-14 0)
(1 8.34056e-15 0)
(1 4.1459e-15 0)
(1 1.13179e-15 0)
(1 3.45487e-15 0)
(1 3.96175e-16 0)
(1 -2.71096e-15 0)
(1 -1.9893e-15 0)
(1 -8.13154e-16 0)
(1 2.31442e-15 0)
(1 4.03053e-15 0)
(1 7.32613e-15 0)
(1 3.80133e-15 0)
(1 1.85735e-15 0)
(1 3.62472e-15 0)
(1 5.29289e-15 0)
(1 8.33936e-15 0)
(1 1.19008e-14 0)
(1 1.79013e-14 0)
(1 1.13395e-14 0)
(1 1.63947e-14 0)
(1 1.20461e-14 0)
(1 2.63358e-14 0)
(1 2.53194e-14 0)
(1 -9.63429e-16 0)
(1 1.51556e-15 0)
(1 -3.89298e-15 0)
(1 -1.461e-17 0)
(1 -5.15237e-15 0)
(1 -2.52348e-15 0)
(1 -3.27609e-15 0)
(1 -4.13227e-15 0)
(1 5.09964e-15 0)
(1 5.58782e-15 0)
(1 6.62967e-15 0)
(1 1.7888e-15 0)
(1 9.34141e-16 0)
(1 -1.02321e-14 0)
(1 -1.5813e-15 0)
(1 -6.71517e-16 0)
(1 8.27895e-15 0)
(1 -1.8192e-16 0)
(1 3.82972e-15 0)
(1 4.36328e-15 0)
(1 4.266e-15 0)
(1 1.65664e-15 0)
(1 -6.90536e-15 0)
(1 -3.58707e-15 0)
(1 5.06055e-15 0)
(1 -3.0216e-16 0)
(1 -3.51479e-15 0)
(1 -6.37556e-15 0)
(1 -2.20702e-15 0)
(1 -4.12283e-15 0)
(1 -4.29619e-15 0)
(1 6.85378e-15 0)
(1 7.55061e-15 0)
(1 6.08951e-15 0)
(1 -8.5748e-15 0)
(1 -1.65507e-15 0)
(1 -2.49509e-16 0)
(1 -9.76556e-16 0)
(1 -4.89411e-16 0)
(1 -1.06385e-15 0)
(1 -3.57794e-15 0)
(1 -1.22039e-15 0)
(1 1.93601e-16 0)
(1 -1.42559e-15 0)
(1 -2.04561e-15 0)
(1 -5.72317e-15 0)
(1 6.52174e-15 0)
(1 5.19956e-15 0)
(1 5.48794e-15 0)
(1 1.36953e-14 0)
(1 1.76243e-14 0)
(1 1.25097e-14 0)
(1 1.11345e-14 0)
(1 1.13291e-15 0)
(1 8.41434e-16 0)
(1 -1.07051e-15 0)
(1 -7.41535e-16 0)
(1 1.84799e-15 0)
(1 8.38349e-17 0)
(1 8.85229e-15 0)
(1 7.89463e-15 0)
(1 7.63806e-15 0)
(1 6.84648e-15 0)
(1 2.55514e-15 0)
(1 1.79118e-15 0)
(1 9.32489e-15 0)
(1 7.42084e-15 0)
(1 -2.49056e-16 0)
(1 1.21464e-14 0)
(1 9.08618e-15 0)
(1 8.79232e-15 0)
(1 9.95248e-15 0)
(1 6.83494e-15 0)
(1 3.29333e-16 0)
(1 6.29747e-15 0)
(1 9.3062e-15 0)
(1 9.60813e-15 0)
(1 1.04367e-14 0)
(1 9.79875e-15 0)
(1 7.30923e-15 0)
(1 1.61752e-16 0)
(1 4.37454e-16 0)
(1 1.89044e-18 0)
(1 -1.06441e-15 0)
(1 2.50343e-15 0)
(1 -1.93581e-15 0)
(1 6.56392e-16 0)
(1 2.36712e-15 0)
(1 4.63305e-15 0)
(1 1.46991e-15 0)
(1 6.22896e-15 0)
(1 9.68593e-16 0)
(1 1.00271e-14 0)
(1 2.48e-15 0)
(1 1.50028e-14 0)
(1 6.34777e-15 0)
(1 1.06765e-14 0)
(1 9.64539e-15 0)
(1 2.00361e-14 0)
(1 2.25788e-14 0)
(1 1.64855e-15 0)
(1 -3.00567e-15 0)
(1 -1.65298e-15 0)
(1 2.33116e-15 0)
(1 -2.3205e-15 0)
(1 1.14031e-16 0)
(1 -7.56517e-15 0)
(1 6.14838e-15 0)
(1 -3.04326e-16 0)
(1 9.77528e-15 0)
(1 4.5665e-15 0)
(1 7.58364e-15 0)
(1 4.20015e-15 0)
(1 -4.88641e-15 0)
(1 -5.99045e-15 0)
(1 -2.68889e-15 0)
(1 2.69895e-15 0)
(1 -1.03319e-14 0)
(1 1.45655e-15 0)
(1 -1.22411e-14 0)
(1 1.98401e-15 0)
(1 5.10694e-15 0)
(1 1.24858e-14 0)
(1 9.22176e-15 0)
(1 7.61311e-15 0)
(1 -6.15664e-16 0)
(1 -5.32615e-15 0)
(1 3.04546e-15 0)
(1 2.85088e-15 0)
(1 4.40938e-16 0)
(1 -2.39677e-15 0)
(1 -4.90976e-15 0)
(1 1.40067e-15 0)
(1 9.65673e-16 0)
(1 -2.44966e-15 0)
(1 -9.33422e-15 0)
(1 3.61009e-15 0)
(1 -2.92491e-17 0)
(1 -2.74082e-15 0)
(1 -6.04761e-15 0)
(1 -2.12236e-15 0)
(1 6.46569e-15 0)
(1 2.01031e-15 0)
(1 -3.73761e-15 0)
(1 -4.96504e-15 0)
(1 2.46643e-15 0)
(1 -1.18941e-16 0)
(1 8.09103e-15 0)
(1 1.02745e-14 0)
(1 1.43938e-14 0)
(1 1.47374e-14 0)
(1 8.68789e-15 0)
(1 9.96057e-16 0)
(1 1.26592e-15 0)
(1 4.60462e-15 0)
(1 -2.9149e-15 0)
(1 -4.13333e-15 0)
(1 -3.22617e-15 0)
(1 2.3446e-15 0)
(1 1.13329e-14 0)
(1 2.03975e-14 0)
(1 7.32576e-15 0)
(1 5.42614e-15 0)
(1 1.55696e-15 0)
(1 1.24095e-14 0)
(1 3.16177e-15 0)
(1 6.56004e-15 0)
(1 6.33625e-15 0)
(1 -2.87851e-16 0)
(1 7.765e-15 0)
(1 1.33326e-14 0)
(1 1.21033e-14 0)
(1 5.22463e-15 0)
(1 -3.31198e-16 0)
(1 5.54431e-15 0)
(1 6.16421e-15 0)
(1 2.96535e-15 0)
(1 7.81706e-15 0)
(1 2.19175e-15 0)
(1 3.80551e-15 0)
(1 5.05659e-15 0)
(1 5.77182e-15 0)
(1 8.05189e-15 0)
(1 7.90228e-15 0)
(1 2.05379e-15 0)
(1 -5.53202e-15 0)
(1 8.23103e-16 0)
(1 1.88307e-15 0)
(1 8.80212e-15 0)
(1 9.64169e-16 0)
(1 8.04771e-15 0)
(1 3.44245e-15 0)
(1 7.51016e-15 0)
(1 3.94192e-15 0)
(1 9.58411e-15 0)
(1 1.53136e-14 0)
(1 1.08532e-14 0)
(1 1.08148e-14 0)
(1 1.13025e-14 0)
(1 1.67487e-14 0)
(1 3.33101e-15 0)
(1 -1.8504e-16 0)
(1 -5.46412e-15 0)
(1 -2.86798e-16 0)
(1 -1.54183e-15 0)
(1 -4.05877e-15 0)
(1 -5.46576e-15 0)
(1 1.48565e-15 0)
(1 -1.12492e-15 0)
(1 7.64699e-16 0)
(1 7.46958e-15 0)
(1 9.54638e-15 0)
(1 2.70438e-15 0)
(1 1.81577e-15 0)
(1 -6.86343e-15 0)
(1 6.21094e-16 0)
(1 -3.81619e-15 0)
(1 8.37085e-15 0)
(1 5.99724e-15 0)
(1 6.76139e-15 0)
(1 6.93938e-15 0)
(1 -5.51375e-15 0)
(1 -5.56333e-15 0)
(1 -6.03063e-15 0)
(1 1.05643e-15 0)
(1 -4.70939e-15 0)
(1 -6.18026e-15 0)
(1 4.60906e-15 0)
(1 -6.22111e-16 0)
(1 -3.35298e-15 0)
(1 -5.20411e-15 0)
(1 -1.05453e-14 0)
(1 -1.42933e-15 0)
(1 -2.37957e-15 0)
(1 7.11702e-15 0)
(1 5.5794e-15 0)
(1 5.19317e-15 0)
(1 -5.15727e-15 0)
(1 -1.35104e-15 0)
(1 2.03741e-16 0)
(1 -2.55023e-15 0)
(1 2.75039e-15 0)
(1 -5.69606e-15 0)
(1 -1.10287e-14 0)
(1 -3.4774e-15 0)
(1 9.30256e-15 0)
(1 2.30694e-15 0)
(1 1.85181e-14 0)
(1 1.64438e-14 0)
(1 1.44776e-14 0)
(1 4.09038e-15 0)
(1 6.97389e-15 0)
(1 -1.3941e-15 0)
(1 1.53984e-15 0)
(1 2.83228e-15 0)
(1 5.97897e-16 0)
(1 -4.54703e-15 0)
(1 -1.28122e-15 0)
(1 -2.00237e-15 0)
(1 6.67557e-16 0)
(1 -3.53523e-15 0)
(1 3.90331e-15 0)
(1 2.43431e-15 0)
(1 1.57933e-14 0)
(1 1.31462e-14 0)
(1 8.05261e-15 0)
(1 3.44772e-15 0)
(1 8.28634e-15 0)
(1 4.49366e-15 0)
(1 -5.31992e-16 0)
(1 4.36778e-15 0)
(1 -1.33132e-15 0)
(1 4.60371e-15 0)
(1 7.67515e-15 0)
(1 5.57146e-15 0)
(1 1.46929e-15 0)
(1 6.68574e-16 0)
(1 4.51437e-15 0)
(1 -2.4947e-15 0)
(1 7.0449e-15 0)
(1 6.15108e-15 0)
(1 1.14015e-14 0)
(1 7.18105e-15 0)
(1 8.01094e-15 0)
(1 1.84915e-15 0)
(1 4.05477e-15 0)
(1 3.64334e-15 0)
(1 8.95918e-15 0)
(1 6.05387e-15 0)
(1 4.76596e-15 0)
(1 7.41235e-15 0)
(1 6.40531e-15 0)
(1 -2.63405e-15 0)
(1 2.33718e-15 0)
(1 3.18007e-15 0)
(1 1.05614e-14 0)
(1 8.56857e-15 0)
(1 7.77385e-15 0)
(1 4.72781e-15 0)
(1 8.44551e-15 0)
(1 -6.08173e-16 0)
(1 4.36809e-15 0)
(1 -4.17469e-15 0)
(1 -6.76128e-15 0)
(1 -1.90055e-15 0)
(1 -3.47816e-15 0)
(1 -1.639e-15 0)
(1 -5.05656e-16 0)
(1 6.16754e-15 0)
(1 6.07271e-15 0)
(1 7.35251e-15 0)
(1 1.05822e-15 0)
(1 -5.19874e-15 0)
(1 6.00999e-17 0)
(1 -5.3212e-15 0)
(1 3.59752e-15 0)
(1 -7.38686e-16 0)
(1 3.97141e-15 0)
(1 -8.57183e-15 0)
(1 8.45664e-15 0)
(1 -4.28736e-15 0)
(1 2.84711e-15 0)
(1 -8.86753e-15 0)
(1 -6.87896e-16 0)
(1 7.8372e-15 0)
(1 6.16057e-15 0)
(1 -1.12677e-15 0)
(1 -4.16983e-16 0)
(1 -2.85627e-15 0)
(1 -3.87282e-16 0)
(1 -6.97278e-15 0)
(1 -6.16128e-15 0)
(1 -3.44692e-15 0)
(1 -6.09936e-15 0)
(1 8.23523e-15 0)
(1 1.2708e-14 0)
(1 6.19979e-15 0)
(1 -1.89431e-15 0)
(1 -4.80649e-15 0)
(1 -9.96154e-15 0)
(1 -7.07593e-15 0)
(1 -4.11054e-15 0)
(1 -2.21822e-15 0)
(1 -1.7969e-16 0)
(1 1.22124e-14 0)
(1 9.63703e-15 0)
(1 1.21716e-14 0)
(1 7.5361e-15 0)
(1 3.13305e-15 0)
(1 3.41929e-15 0)
(1 -6.01572e-15 0)
(1 5.97264e-15 0)
(1 1.12234e-15 0)
(1 7.32477e-15 0)
(1 1.38571e-15 0)
(1 5.88617e-15 0)
(1 8.23329e-15 0)
(1 1.4629e-14 0)
(1 -1.20552e-16 0)
(1 4.33601e-15 0)
(1 -7.38576e-15 0)
(1 2.73375e-15 0)
(1 -3.80859e-15 0)
(1 8.72129e-15 0)
(1 -3.9874e-15 0)
(1 1.11246e-14 0)
(1 7.92496e-15 0)
(1 1.39978e-14 0)
(1 3.59212e-15 0)
(1 -9.48106e-16 0)
(1 3.16965e-16 0)
(1 -5.95856e-16 0)
(1 6.89649e-15 0)
(1 1.91526e-14 0)
(1 5.39104e-15 0)
(1 4.63467e-15 0)
(1 5.75854e-15 0)
(1 1.04548e-14 0)
(1 1.25414e-14 0)
(1 9.98706e-15 0)
(1 3.0132e-15 0)
(1 6.09853e-15 0)
(1 7.6554e-15 0)
(1 1.28138e-15 0)
(1 9.77004e-16 0)
(1 1.10208e-14 0)
(1 4.7131e-15 0)
(1 1.00113e-14 0)
(1 4.95732e-15 0)
(1 1.03801e-14 0)
(1 1.08651e-14 0)
(1 6.35045e-15 0)
(1 2.36717e-15 0)
(1 1.44242e-15 0)
(1 -3.24665e-15 0)
(1 2.88968e-15 0)
(1 7.8223e-15 0)
(1 1.33204e-14 0)
(1 8.6084e-15 0)
(1 8.52666e-15 0)
(1 1.77511e-15 0)
(1 -9.89969e-16 0)
(1 2.41216e-15 0)
(1 -5.80183e-15 0)
(1 -1.83009e-16 0)
(1 -4.44863e-15 0)
(1 -2.37638e-16 0)
(1 -9.69734e-15 0)
(1 -1.89774e-17 0)
(1 5.11557e-15 0)
(1 1.50072e-15 0)
(1 1.58248e-15 0)
(1 5.41872e-15 0)
(1 -4.66517e-16 0)
(1 5.374e-15 0)
(1 -3.86986e-15 0)
(1 1.68109e-15 0)
(1 -1.14506e-14 0)
(1 -7.70468e-15 0)
(1 3.26321e-15 0)
(1 -4.60099e-15 0)
(1 3.09508e-15 0)
(1 6.64857e-15 0)
(1 7.20498e-15 0)
(1 7.87428e-15 0)
(1 7.45319e-15 0)
(1 5.97743e-15 0)
(1 -5.33067e-15 0)
(1 -7.61493e-15 0)
(1 -4.82866e-15 0)
(1 -2.81576e-15 0)
(1 7.73026e-17 0)
(1 2.31659e-15 0)
(1 -1.90767e-16 0)
(1 2.7525e-15 0)
(1 4.04904e-15 0)
(1 -2.00721e-15 0)
(1 1.5322e-15 0)
(1 -4.68952e-15 0)
(1 -1.043e-14 0)
(1 -4.63422e-15 0)
(1 -8.22327e-15 0)
(1 -7.2998e-16 0)
(1 1.19766e-14 0)
(1 5.88653e-15 0)
(1 7.12483e-15 0)
(1 1.02932e-14 0)
(1 -2.82119e-15 0)
(1 -5.96881e-15 0)
(1 -3.83369e-15 0)
(1 6.44845e-15 0)
(1 7.4114e-15 0)
(1 7.90224e-15 0)
(1 1.1088e-14 0)
(1 7.34515e-15 0)
(1 5.91069e-15 0)
(1 9.90808e-15 0)
(1 6.82629e-15 0)
(1 5.48384e-15 0)
(1 7.74725e-15 0)
(1 5.68978e-15 0)
(1 2.6246e-15 0)
(1 3.05761e-15 0)
(1 -1.59354e-15 0)
(1 4.27085e-15 0)
(1 1.81329e-15 0)
(1 9.90599e-15 0)
(1 1.55309e-14 0)
(1 1.42601e-14 0)
(1 7.90562e-15 0)
(1 5.39152e-15 0)
(1 3.52302e-15 0)
(1 3.66779e-15 0)
(1 1.28896e-14 0)
(1 7.70117e-15 0)
(1 1.02194e-14 0)
(1 7.04598e-15 0)
(1 4.46955e-15 0)
(1 7.82213e-15 0)
(1 7.19714e-15 0)
(1 9.91539e-15 0)
(1 6.0474e-15 0)
(1 2.84232e-15 0)
(1 3.84404e-15 0)
(1 2.42502e-15 0)
(1 4.60183e-19 0)
(1 1.48647e-15 0)
(1 2.85302e-15 0)
(1 1.31676e-15 0)
(1 8.53017e-15 0)
(1 4.62375e-15 0)
(1 5.53797e-15 0)
(1 7.442e-15 0)
(1 2.46265e-15 0)
(1 7.43248e-15 0)
(1 3.50863e-16 0)
(1 8.08083e-15 0)
(1 1.03994e-14 0)
(1 1.19819e-14 0)
(1 1.17878e-14 0)
(1 -2.32887e-15 0)
(1 -3.70801e-15 0)
(1 -1.14701e-15 0)
(1 -2.1625e-15 0)
(1 6.56683e-15 0)
(1 4.88262e-15 0)
(1 1.47165e-14 0)
(1 3.87796e-15 0)
(1 -1.61887e-15 0)
(1 -1.13215e-14 0)
(1 -1.13533e-14 0)
(1 -2.75918e-15 0)
(1 1.28878e-15 0)
(1 -5.30179e-15 0)
(1 3.34897e-15 0)
(1 -5.45841e-15 0)
(1 -2.63403e-15 0)
(1 -1.6548e-15 0)
(1 -4.41251e-15 0)
(1 -5.89836e-15 0)
(1 7.33347e-15 0)
(1 1.28498e-15 0)
(1 7.32896e-15 0)
(1 3.46187e-16 0)
(1 1.26044e-16 0)
(1 -3.60112e-15 0)
(1 -3.94711e-15 0)
(1 -9.17536e-15 0)
(1 -7.80954e-15 0)
(1 -8.76145e-15 0)
(1 2.63278e-16 0)
(1 4.16803e-15 0)
(1 7.75596e-15 0)
(1 4.537e-15 0)
(1 -1.31892e-15 0)
(1 5.11716e-15 0)
(1 -5.65567e-15 0)
(1 1.74045e-15 0)
(1 -1.86825e-15 0)
(1 1.59009e-15 0)
(1 -7.22339e-15 0)
(1 -6.59177e-15 0)
(1 9.70982e-15 0)
(1 7.04961e-15 0)
(1 6.60918e-15 0)
(1 -1.72586e-15 0)
(1 1.86423e-15 0)
(1 2.28985e-16 0)
(1 5.67812e-16 0)
(1 -7.58994e-16 0)
(1 1.01585e-14 0)
(1 8.12332e-15 0)
(1 1.02121e-14 0)
(1 3.00123e-15 0)
(1 1.8354e-15 0)
(1 5.44648e-16 0)
(1 5.39057e-15 0)
(1 -4.0614e-16 0)
(1 5.15481e-15 0)
(1 -1.43663e-15 0)
(1 7.03891e-16 0)
(1 2.93296e-16 0)
(1 4.74669e-15 0)
(1 -3.01346e-16 0)
(1 4.14238e-15 0)
(1 -3.38566e-15 0)
(1 -2.60974e-15 0)
(1 -3.22838e-15 0)
(1 8.97313e-15 0)
(1 4.802e-15 0)
(1 6.38224e-15 0)
(1 5.41256e-15 0)
(1 1.06152e-14 0)
(1 1.22044e-14 0)
(1 1.33868e-14 0)
(1 8.97752e-15 0)
(1 2.20795e-15 0)
(1 1.47852e-15 0)
(1 3.29363e-15 0)
(1 1.20438e-14 0)
(1 6.31069e-15 0)
(1 8.42958e-15 0)
(1 4.48855e-15 0)
(1 1.40899e-14 0)
(1 9.73843e-15 0)
(1 6.90232e-15 0)
(1 4.58319e-16 0)
(1 -4.40263e-15 0)
(1 -2.92075e-15 0)
(1 4.32807e-15 0)
(1 -2.72458e-15 0)
(1 7.54043e-16 0)
(1 3.51217e-15 0)
(1 3.93245e-15 0)
(1 8.61424e-15 0)