/*--------------------------------*- C++ -*----------------------------------*\
| =========                 |                                                 |
| \\      /  F ield         | OpenFOAM: The Open Source CFD Toolbox           |
|  \\    /   O peration     | Version:  v2012                                 |
|   \\  /    A nd           | Website:  www.openfoam.com                      |
|    \\/     M anipulation  |                                                 |
\*---------------------------------------------------------------------------*/
FoamFile
{
    version     2.0;
    format      ascii;
    class       volVectorField;
    location    "0";
    object      U;
}
// * * * * * * * * * * * * * * * * * * * * * * * * * * * * * * * * * * * * * //

dimensions      [0 1 -1 0 0 0 0];


internalField   nonuniform List<vector> 
4000
(
(1 2.64186e-15 0)
(1 4.20594e-15 0)
(1 1.52402e-15 0)
(1 -4.28605e-15 0)
(1 -4.63717e-15 0)
(1 3.99676e-15 0)
(1 1.45803e-15 0)
(1 3.70971e-15 0)
(1 -4.96594e-15 0)
(1 -5.31711e-15 0)
(1 1.94553e-15 0)
(1 2.50973e-16 0)
(1 4.33493e-15 0)
(1 -1.42546e-15 0)
(1 7.32088e-16 0)
(1 -1.26208e-15 0)
(1 8.18471e-16 0)
(1 -3.07959e-15 0)
(1 -6.49602e-16 0)
(1 -2.36885e-15 0)
(1 9.64466e-16 0)
(1 -6.49845e-15 0)
(1 -1.48911e-15 0)
(1 -4.68184e-15 0)
(1 -9.9955e-16 0)
(1 -3.68612e-16 0)
(1 -2.84768e-15 0)
(1 2.76463e-15 0)
(1 -2.07663e-15 0)
(1 5.07843e-15 0)
(1 -5.25093e-16 0)
(1 -9.17855e-16 0)
(1 3.68779e-15 0)
(1 1.66775e-15 0)
(1 2.96113e-15 0)
(1 1.00935e-14 0)
(1 8.43972e-15 0)
(1 8.89248e-15 0)
(1 -2.52413e-15 0)
(1 -6.05688e-15 0)
(1 -6.63636e-15 0)
(1 -2.90182e-15 0)
(1 -4.89736e-15 0)
(1 2.23463e-15 0)
(1 -3.38444e-16 0)
(1 1.04388e-15 0)
(1 -4.4543e-15 0)
(1 -1.76723e-15 0)
(1 3.58232e-15 0)
(1 2.17881e-15 0)
(1 2.87337e-15 0)
(1 2.38396e-15 0)
(1 4.22703e-15 0)
(1 -1.52655e-15 0)
(1 2.63708e-15 0)
(1 1.60759e-15 0)
(1 -2.49627e-15 0)
(1 -1.57784e-16 0)
(1 -1.92625e-15 0)
(1 3.90819e-15 0)
(1 3.01236e-15 0)
(1 1.79657e-15 0)
(1 3.06221e-15 0)
(1 -2.21872e-15 0)
(1 -3.79163e-15 0)
(1 -6.70182e-16 0)
(1 -6.73634e-16 0)
(1 1.44545e-15 0)
(1 -1.468e-15 0)
(1 -5.86559e-16 0)
(1 -2.99411e-15 0)
(1 -3.39865e-15 0)
(1 -6.28961e-16 0)
(1 -9.70195e-16 0)
(1 -1.87097e-15 0)
(1 -1.59552e-15 0)
(1 -2.70336e-15 0)
(1 -3.79923e-15 0)
(1 2.24975e-15 0)
(1 4.014e-15 0)
(1 -3.65502e-16 0)
(1 -3.07246e-15 0)
(1 -1.25748e-15 0)
(1 5.35502e-17 0)
(1 -1.9727e-15 0)
(1 6.03265e-16 0)
(1 5.44115e-16 0)
(1 5.60188e-15 0)
(1 -4.4847e-16 0)
(1 7.53799e-15 0)
(1 2.64777e-15 0)
(1 1.94796e-15 0)
(1 -4.08786e-15 0)
(1 5.16599e-16 0)
(1 -2.53453e-15 0)
(1 -2.15938e-15 0)
(1 -1.51754e-16 0)
(1 1.41681e-15 0)
(1 8.18403e-16 0)
(1 -3.13126e-15 0)
(1 3.85798e-15 0)
(1 2.83498e-15 0)
(1 2.92036e-15 0)
(1 -4.89774e-15 0)
(1 -2.04346e-16 0)
(1 5.25777e-15 0)
(1 2.30159e-15 0)
(1 -3.5408e-16 0)
(1 -6.6195e-15 0)
(1 -5.52669e-15 0)
(1 2.25516e-15 0)
(1 2.75501e-15 0)
(1 4.34546e-15 0)
(1 4.30183e-15 0)
(1 4.2074e-15 0)
(1 -1.44778e-15 0)
(1 1.08319e-15 0)
(1 -5.65992e-15 0)
(1 -1.43e-16 0)
(1 -3.90958e-15 0)
(1 3.23885e-16 0)
(1 -2.4554e-15 0)
(1 -8.75078e-16 0)
(1 -2.12016e-15 0)
(1 -7.50773e-15 0)
(1 -2.24475e-15 0)
(1 -6.25626e-15 0)
(1 -4.35283e-16 0)
(1 -1.98199e-15 0)
(1 4.67503e-15 0)
(1 -1.06231e-15 0)
(1 1.90688e-15 0)
(1 4.53218e-15 0)
(1 3.157e-15 0)
(1 9.11451e-16 0)
(1 7.73254e-15 0)
(1 7.03219e-15 0)
(1 8.1041e-15 0)
(1 -7.99618e-15 0)
(1 -7.65858e-15 0)
(1 -4.19303e-15 0)
(1 7.28915e-16 0)
(1 -3.55696e-15 0)
(1 3.36445e-15 0)
(1 -6.94258e-16 0)
(1 -2.90172e-15 0)
(1 -1.0371e-14 0)
(1 -3.58474e-15 0)
(1 2.3763e-15 0)
(1 1.53526e-15 0)
(1 -1.00734e-15 0)
(1 4.36902e-16 0)
(1 2.94964e-15 0)
(1 1.83602e-15 0)
(1 4.71783e-15 0)
(1 3.1577e-15 0)
(1 -3.00969e-15 0)
(1 -1.08806e-15 0)
(1 -6.71154e-15 0)
(1 -4.15115e-15 0)
(1 -2.12414e-15 0)
(1 3.05666e-15 0)
(1 6.19286e-15 0)
(1 1.33635e-15 0)
(1 1.73418e-15 0)
(1 2.84637e-15 0)
(1 -8.2462e-16 0)
(1 2.6891e-17 0)
(1 -3.66287e-15 0)
(1 2.1147e-15 0)
(1 -1.10853e-15 0)
(1 1.81974e-16 0)
(1 4.57239e-15 0)
(1 2.79788e-15 0)
(1 -1.55487e-15 0)
(1 7.35145e-16 0)
(1 -1.40741e-15 0)
(1 -1.36013e-15 0)
(1 4.49793e-15 0)
(1 4.47649e-15 0)
(1 6.35281e-16 0)
(1 -6.44112e-15 0)
(1 -2.12457e-15 0)
(1 5.40229e-15 0)
(1 -7.84339e-16 0)
(1 4.13192e-15 0)
(1 -3.52125e-15 0)
(1 1.33935e-16 0)
(1 -4.47576e-15 0)
(1 2.63912e-15 0)
(1 2.54084e-15 0)
(1 5.81983e-16 0)
(1 -5.36965e-15 0)
(1 -1.13859e-15 0)
(1 -1.33643e-15 0)
(1 -7.6397e-16 0)
(1 2.20146e-15 0)
(1 4.06033e-15 0)
(1 -2.85275e-15 0)
(1 -3.54165e-15 0)
(1 -1.88668e-15 0)
(1 1.64382e-15 0)
(1 -5.06971e-15 0)
(1 2.03142e-15 0)
(1 -6.82487e-16 0)
(1 4.30573e-15 0)
(1 -3.37508e-15 0)
(1 -1.28177e-15 0)
(1 4.03632e-15 0)
(1 -1.00173e-16 0)
(1 -3.43339e-15 0)
(1 6.30716e-15 0)
(1 2.83865e-15 0)
(1 1.00088e-14 0)
(1 2.16031e-15 0)
(1 -2.48572e-15 0)
(1 -8.30189e-15 0)
(1 -2.00781e-15 0)
(1 1.47423e-15 0)
(1 6.0533e-16 0)
(1 -7.49286e-16 0)
(1 4.65925e-15 0)
(1 4.3915e-15 0)
(1 3.88197e-15 0)
(1 -1.52869e-16 0)
(1 -2.67173e-15 0)
(1 -1.73312e-16 0)
(1 4.13151e-15 0)
(1 2.06454e-15 0)
(1 7.38728e-16 0)
(1 -1.67364e-15 0)
(1 -4.03957e-15 0)
(1 -1.03248e-15 0)
(1 4.19525e-15 0)
(1 3.4015e-15 0)
(1 4.65422e-15 0)
(1 4.73641e-15 0)
(1 8.5433e-15 0)
(1 2.84783e-15 0)
(1 2.00422e-15 0)
(1 -3.27866e-15 0)
(1 1.96975e-15 0)
(1 -3.23311e-15 0)
(1 -3.7908e-15 0)
(1 7.70498e-16 0)
(1 -7.32916e-15 0)
(1 -2.12267e-15 0)
(1 -1.79585e-15 0)
(1 -6.34008e-15 0)
(1 -5.13678e-15 0)
(1 -3.83358e-15 0)
(1 3.49573e-15 0)
(1 7.57e-15 0)
(1 8.45299e-15 0)
(1 3.13121e-15 0)
(1 4.14538e-15 0)
(1 1.13744e-15 0)
(1 -8.57359e-16 0)
(1 -5.18767e-15 0)
(1 -7.44115e-15 0)
(1 -4.58339e-15 0)
(1 2.25111e-15 0)
(1 -9.49144e-16 0)
(1 2.83328e-16 0)
(1 3.59772e-15 0)
(1 5.41447e-15 0)
(1 1.74973e-15 0)
(1 -1.13667e-15 0)
(1 -3.03344e-15 0)
(1 6.73462e-16 0)
(1 -1.16303e-15 0)
(1 8.19866e-17 0)
(1 -3.35499e-16 0)
(1 1.72247e-16 0)
(1 -7.86423e-17 0)
(1 -3.45142e-15 0)
(1 1.94958e-15 0)
(1 -4.04224e-15 0)
(1 3.56841e-15 0)
(1 -2.1102e-15 0)
(1 -1.01917e-15 0)
(1 -2.01719e-15 0)
(1 -5.38989e-15 0)
(1 2.78643e-15 0)
(1 -1.84366e-16 0)
(1 4.47392e-15 0)
(1 1.26417e-15 0)
(1 -8.29411e-16 0)
(1 -2.07769e-15 0)
(1 -7.34446e-16 0)
(1 -1.0053e-15 0)
(1 -2.41145e-15 0)
(1 -1.80874e-17 0)
(1 -2.02764e-15 0)
(1 2.34922e-15 0)
(1 2.39837e-16 0)
(1 1.53278e-15 0)
(1 1.18742e-15 0)
(1 -5.61019e-15 0)
(1 -1.57484e-15 0)
(1 2.35793e-16 0)
(1 -3.24732e-15 0)
(1 -5.65821e-15 0)
(1 -6.00678e-15 0)
(1 2.44684e-15 0)
(1 6.7395e-15 0)
(1 -1.11217e-15 0)
(1 9.95885e-16 0)
(1 1.02721e-14 0)
(1 3.80087e-16 0)
(1 2.10497e-15 0)
(1 5.22215e-15 0)
(1 5.13917e-15 0)
(1 3.88985e-15 0)
(1 -3.28072e-15 0)
(1 -1.59293e-15 0)
(1 -5.21191e-15 0)
(1 2.31766e-15 0)
(1 -6.57182e-15 0)
(1 3.90772e-15 0)
(1 3.73066e-15 0)
(1 4.40587e-15 0)
(1 8.31912e-15 0)
(1 9.32495e-15 0)
(1 6.69437e-15 0)
(1 -2.6986e-15 0)
(1 6.94286e-16 0)
(1 2.18675e-15 0)
(1 2.77558e-15 0)
(1 -1.61976e-15 0)
(1 -2.57739e-15 0)
(1 -6.38011e-15 0)
(1 -3.71428e-15 0)
(1 1.28404e-15 0)
(1 1.9572e-15 0)
(1 5.55021e-15 0)
(1 1.14663e-14 0)
(1 4.2014e-15 0)
(1 3.41582e-15 0)
(1 1.98836e-15 0)
(1 -5.49684e-16 0)
(1 -8.14503e-16 0)
(1 4.23684e-17 0)
(1 -2.34574e-15 0)
(1 1.45024e-15 0)
(1 1.03639e-15 0)
(1 4.46024e-15 0)
(1 -5.65547e-15 0)
(1 -4.05481e-15 0)
(1 -4.63896e-15 0)
(1 -1.19029e-16 0)
(1 2.46068e-15 0)
(1 7.0003e-15 0)
(1 2.95718e-15 0)
(1 -2.48338e-17 0)
(1 1.12745e-15 0)
(1 -2.12958e-15 0)
(1 -4.47365e-15 0)
(1 -3.77124e-15 0)
(1 -1.60069e-15 0)
(1 -2.16764e-15 0)
(1 1.29326e-15 0)
(1 -1.61774e-15 0)
(1 3.50859e-15 0)
(1 7.27015e-16 0)
(1 -2.45743e-15 0)
(1 -1.79521e-15 0)
(1 -4.36252e-15 0)
(1 -2.05168e-15 0)
(1 -2.22059e-15 0)
(1 -1.18381e-15 0)
(1 -5.75743e-15 0)
(1 -6.54972e-15 0)
(1 -4.10246e-15 0)
(1 -1.75228e-16 0)
(1 5.03158e-15 0)
(1 4.12423e-15 0)
(1 -1.79352e-16 0)
(1 2.19814e-15 0)
(1 -6.34962e-16 0)
(1 -1.6371e-15 0)
(1 -9.09548e-16 0)
(1 -7.63807e-17 0)
(1 -9.93915e-16 0)
(1 4.21531e-15 0)
(1 2.96652e-15 0)
(1 9.14437e-15 0)
(1 3.25573e-15 0)
(1 2.3113e-15 0)
(1 5.87335e-16 0)
(1 -8.71398e-16 0)
(1 -1.21998e-15 0)
(1 8.67106e-16 0)
(1 2.40824e-15 0)
(1 -1.53447e-15 0)
(1 -2.33284e-15 0)
(1 -3.69471e-15 0)
(1 -5.63088e-15 0)
(1 -5.56301e-15 0)
(1 -2.96537e-15 0)
(1 4.67301e-15 0)
(1 -2.29102e-15 0)
(1 -3.77203e-15 0)
(1 -3.02979e-15 0)
(1 1.00355e-14 0)
(1 -6.92553e-16 0)
(1 9.11621e-16 0)
(1 -1.12175e-14 0)
(1 -5.67732e-15 0)
(1 1.47575e-15 0)
(1 6.25514e-15 0)
(1 3.95087e-15 0)
(1 3.22251e-15 0)
(1 -2.38067e-15 0)
(1 3.11095e-15 0)
(1 -2.24244e-15 0)
(1 5.47807e-15 0)
(1 -5.33116e-15 0)
(1 -1.74429e-15 0)
(1 -1.87295e-15 0)
(1 -1.23437e-15 0)
(1 -4.15838e-15 0)
(1 1.57137e-14 0)
(1 1.39476e-14 0)
(1 1.01672e-14 0)
(1 3.22208e-16 0)
(1 3.98593e-15 0)
(1 1.11519e-15 0)
(1 4.76752e-15 0)
(1 1.10104e-15 0)
(1 -5.10469e-15 0)
(1 -1.59095e-15 0)
(1 1.22879e-15 0)
(1 -5.14657e-16 0)
(1 1.90644e-15 0)
(1 1.91976e-15 0)
(1 4.93025e-15 0)
(1 -1.59256e-15 0)
(1 -2.22071e-15 0)
(1 -2.0167e-15 0)
(1 3.39031e-15 0)
(1 6.18839e-15 0)
(1 -1.68193e-15 0)
(1 -2.338e-15 0)
(1 -8.75671e-15 0)
(1 -1.69038e-15 0)
(1 -2.4838e-15 0)
(1 -3.22247e-15 0)
(1 1.95637e-15 0)
(1 -1.36446e-15 0)
(1 1.8023e-15 0)
(1 -1.4122e-15 0)
(1 1.49372e-15 0)
(1 1.8129e-15 0)
(1 6.87109e-15 0)
(1 2.5997e-15 0)
(1 -1.1176e-15 0)
(1 -1.45143e-15 0)
(1 3.34895e-15 0)
(1 -1.04576e-15 0)
(1 1.13246e-15 0)
(1 8.28182e-16 0)
(1 2.36133e-15 0)
(1 -2.03053e-15 0)
(1 2.16031e-15 0)
(1 -2.24253e-15 0)
(1 1.00081e-15 0)
(1 -3.69447e-15 0)
(1 4.87069e-16 0)
(1 -1.66905e-15 0)
(1 9.16976e-16 0)
(1 -5.57031e-16 0)
(1 1.88944e-16 0)
(1 8.71288e-16 0)
(1 -4.51138e-15 0)
(1 5.80301e-15 0)
(1 -2.16972e-15 0)
(1 3.96875e-15 0)
(1 1.38858e-15 0)
(1 3.04734e-15 0)
(1 6.86438e-16 0)
(1 5.05541e-16 0)
(1 2.93269e-15 0)
(1 7.39314e-16 0)
(1 4.12525e-15 0)
(1 3.12078e-15 0)
(1 5.74967e-15 0)
(1 7.06587e-16 0)
(1 4.81309e-16 0)
(1 -2.79357e-15 0)
(1 1.78085e-15 0)
(1 1.99435e-16 0)
(1 2.72516e-15 0)
(1 5.04846e-15 0)
(1 -2.30408e-15 0)
(1 -4.11975e-16 0)
(1 -3.26817e-15 0)
(1 -5.00999e-15 0)
(1 7.48647e-16 0)
(1 3.91704e-16 0)
(1 -1.80983e-15 0)
(1 2.88181e-15 0)
(1 -1.67667e-15 0)
(1 -1.76049e-15 0)
(1 -2.05297e-15 0)
(1 2.48713e-15 0)
(1 -3.40547e-15 0)
(1 -7.71913e-15 0)
(1 -9.12223e-15 0)
(1 3.8636e-15 0)
(1 5.66516e-15 0)
(1 8.33796e-15 0)
(1 6.67383e-15 0)
(1 -7.22988e-16 0)
(1 5.23187e-15 0)
(1 -5.44034e-15 0)
(1 2.0973e-15 0)
(1 -1.08412e-14 0)
(1 2.3901e-15 0)
(1 1.14332e-15 0)
(1 6.24679e-15 0)
(1 9.19991e-15 0)
(1 1.40728e-14 0)
(1 4.79174e-15 0)
(1 3.95807e-15 0)
(1 1.85853e-15 0)
(1 -2.65934e-16 0)
(1 2.70913e-15 0)
(1 2.80305e-16 0)
(1 6.26701e-16 0)
(1 -7.28686e-15 0)
(1 -5.55387e-15 0)
(1 5.72134e-16 0)
(1 3.56317e-15 0)
(1 1.34274e-14 0)
(1 6.97936e-15 0)
(1 6.08635e-15 0)
(1 6.77882e-15 0)
(1 4.31899e-15 0)
(1 -9.08881e-15 0)
(1 -3.90053e-15 0)
(1 5.11648e-16 0)
(1 6.82259e-15 0)
(1 3.90645e-15 0)
(1 5.90097e-17 0)
(1 -3.53466e-15 0)
(1 -3.50714e-15 0)
(1 -1.43863e-15 0)
(1 -4.20519e-15 0)
(1 -1.48625e-15 0)
(1 8.45026e-16 0)
(1 2.28039e-15 0)
(1 -2.86559e-16 0)
(1 9.77673e-17 0)
(1 7.17176e-15 0)
(1 3.50129e-15 0)
(1 3.91022e-15 0)
(1 1.96434e-15 0)
(1 6.15301e-15 0)
(1 3.31335e-15 0)
(1 3.82312e-15 0)
(1 1.90945e-15 0)
(1 -2.68267e-15 0)
(1 -6.27514e-15 0)
(1 -6.90587e-16 0)
(1 3.87577e-16 0)
(1 4.85322e-15 0)
(1 7.96405e-15 0)
(1 6.27249e-15 0)
(1 1.1993e-14 0)
(1 4.90912e-15 0)
(1 1.68391e-15 0)
(1 2.11124e-15 0)
(1 1.51387e-15 0)
(1 -3.35387e-15 0)
(1 -3.21843e-15 0)
(1 -3.82459e-15 0)
(1 3.1167e-15 0)
(1 -2.96153e-15 0)
(1 -3.18303e-15 0)
(1 3.37366e-15 0)
(1 6.1192e-15 0)
(1 4.88157e-15 0)
(1 4.28688e-15 0)
(1 -2.66901e-15 0)
(1 -4.59484e-15 0)
(1 1.07207e-15 0)
(1 2.68418e-15 0)
(1 8.19544e-16 0)
(1 -4.32874e-17 0)
(1 1.40587e-16 0)
(1 1.86682e-15 0)
(1 3.28789e-15 0)
(1 1.12962e-15 0)
(1 4.04756e-15 0)
(1 6.19063e-15 0)
(1 4.40655e-15 0)
(1 5.21245e-15 0)
(1 5.04807e-15 0)
(1 3.43615e-15 0)
(1 -7.49902e-16 0)
(1 -1.77517e-15 0)
(1 4.82858e-15 0)
(1 1.76342e-15 0)
(1 -2.71831e-15 0)
(1 -6.72292e-16 0)
(1 -1.69562e-15 0)
(1 -2.57497e-15 0)
(1 6.12419e-16 0)
(1 1.61102e-15 0)
(1 -1.68816e-16 0)
(1 5.68043e-15 0)
(1 2.23105e-15 0)
(1 4.91275e-15 0)
(1 4.75156e-16 0)
(1 -9.97669e-16 0)
(1 -1.81335e-15 0)
(1 2.20042e-16 0)
(1 1.62297e-15 0)
(1 1.60481e-14 0)
(1 1.61021e-14 0)
(1 1.64132e-14 0)
(1 -3.43568e-15 0)
(1 -7.90949e-15 0)
(1 -1.2254e-14 0)
(1 6.86605e-16 0)
(1 -7.31346e-16 0)
(1 -4.36603e-16 0)
(1 -1.62467e-15 0)
(1 1.51671e-15 0)
(1 8.1286e-16 0)
(1 6.42656e-15 0)
(1 -2.62714e-15 0)
(1 4.2077e-15 0)
(1 3.04468e-15 0)
(1 2.98016e-15 0)
(1 4.82563e-15 0)
(1 6.49292e-15 0)
(1 4.51236e-15 0)
(1 -3.84675e-15 0)
(1 8.51799e-15 0)
(1 1.51732e-15 0)
(1 1.46098e-14 0)
(1 7.57216e-16 0)
(1 2.08134e-15 0)
(1 -7.38582e-15 0)
(1 -1.06645e-14 0)
(1 -6.06586e-15 0)
(1 4.97809e-15 0)
(1 5.6308e-15 0)
(1 -4.51323e-15 0)
(1 -3.69917e-15 0)
(1 -2.74377e-15 0)
(1 -1.07073e-15 0)
(1 4.83711e-15 0)
(1 -6.92459e-16 0)
(1 9.74235e-16 0)
(1 5.80444e-15 0)
(1 2.1463e-15 0)
(1 7.71216e-15 0)
(1 7.05851e-15 0)
(1 1.74806e-15 0)
(1 -1.75013e-15 0)
(1 3.91743e-15 0)
(1 -5.24563e-15 0)
(1 -1.5188e-15 0)
(1 -4.0548e-15 0)
(1 3.81786e-15 0)
(1 4.35557e-15 0)
(1 3.95224e-15 0)
(1 -1.40377e-15 0)
(1 -2.53368e-15 0)
(1 -1.30734e-16 0)
(1 1.45359e-15 0)
(1 8.6887e-15 0)
(1 6.33868e-15 0)
(1 5.25017e-15 0)
(1 9.08781e-15 0)
(1 1.14658e-15 0)
(1 -4.15571e-16 0)
(1 8.57939e-16 0)
(1 3.5174e-15 0)
(1 5.09456e-15 0)
(1 3.5995e-15 0)
(1 1.30802e-16 0)
(1 -1.10084e-15 0)
(1 7.48532e-15 0)
(1 5.39523e-15 0)
(1 6.10177e-15 0)
(1 1.69249e-15 0)
(1 3.47274e-15 0)
(1 8.66894e-15 0)
(1 3.747e-15 0)
(1 2.01079e-15 0)
(1 6.16017e-15 0)
(1 1.08403e-14 0)
(1 1.05036e-14 0)
(1 7.56108e-15 0)
(1 3.68378e-15 0)
(1 4.63199e-15 0)
(1 1.69281e-15 0)
(1 -1.96259e-15 0)
(1 -2.70888e-15 0)
(1 9.20038e-16 0)
(1 2.32377e-16 0)
(1 -6.609e-15 0)
(1 4.13789e-15 0)
(1 -1.77039e-15 0)
(1 1.9161e-15 0)
(1 4.92354e-16 0)
(1 -5.37654e-15 0)
(1 7.7279e-16 0)
(1 -1.23402e-15 0)
(1 1.17282e-14 0)
(1 -5.35027e-16 0)
(1 7.78722e-15 0)
(1 -5.82728e-15 0)
(1 1.02243e-14 0)
(1 6.65599e-15 0)
(1 1.8443e-14 0)
(1 3.59033e-15 0)
(1 3.45105e-15 0)
(1 -1.18717e-14 0)
(1 -1.14796e-14 0)
(1 -7.94093e-15 0)
(1 1.37553e-15 0)
(1 4.8051e-15 0)
(1 7.23267e-15 0)
(1 7.81337e-16 0)
(1 -1.65635e-15 0)
(1 -1.7265e-15 0)
(1 7.26108e-15 0)
(1 -4.98308e-16 0)
(1 5.28619e-16 0)
(1 -8.82352e-15 0)
(1 -1.6875e-15 0)
(1 -6.73695e-15 0)
(1 5.57939e-15 0)
(1 1.70212e-14 0)
(1 1.51765e-14 0)
(1 3.5328e-15 0)
(1 -3.89958e-15 0)
(1 -6.05792e-16 0)
(1 2.35974e-15 0)
(1 3.19413e-15 0)
(1 -1.3975e-15 0)
(1 -1.08682e-15 0)
(1 -2.40538e-15 0)
(1 4.89066e-15 0)
(1 1.08316e-16 0)
(1 -6.32302e-15 0)
(1 -1.21382e-15 0)
(1 3.88092e-15 0)
(1 5.60858e-15 0)
(1 5.00026e-15 0)
(1 -5.90828e-18 0)
(1 9.30183e-16 0)
(1 5.67401e-15 0)
(1 4.15382e-15 0)
(1 6.04593e-15 0)
(1 1.00168e-14 0)
(1 3.09227e-16 0)
(1 1.32533e-15 0)
(1 -1.44903e-15 0)
(1 -2.97202e-15 0)
(1 8.44836e-17 0)
(1 1.08669e-15 0)
(1 4.75454e-16 0)
(1 4.23311e-15 0)
(1 -3.78607e-15 0)
(1 1.24583e-15 0)
(1 9.29879e-15 0)
(1 6.38463e-15 0)
(1 6.39808e-15 0)
(1 9.57286e-15 0)
(1 7.23859e-15 0)
(1 4.90615e-15 0)
(1 2.95977e-15 0)
(1 3.7405e-15 0)
(1 3.68343e-15 0)
(1 -4.70487e-15 0)
(1 -2.73788e-15 0)
(1 -6.14654e-16 0)
(1 -1.36199e-15 0)
(1 5.53374e-16 0)
(1 1.51126e-15 0)
(1 5.10097e-15 0)
(1 6.09814e-15 0)
(1 3.99135e-15 0)
(1 4.86363e-15 0)
(1 4.47719e-15 0)
(1 5.95805e-16 0)
(1 1.50008e-15 0)
(1 6.22858e-15 0)
(1 7.53171e-15 0)
(1 7.62257e-15 0)
(1 7.29574e-15 0)
(1 9.98184e-15 0)
(1 9.55649e-15 0)
(1 1.26025e-14 0)
(1 -1.70969e-15 0)
(1 1.33857e-15 0)
(1 -7.38352e-15 0)
(1 -6.55138e-15 0)
(1 -9.61877e-15 0)
(1 -1.9118e-15 0)
(1 3.87497e-15 0)
(1 4.74781e-15 0)
(1 -2.88503e-15 0)
(1 5.42256e-15 0)
(1 7.34448e-15 0)
(1 4.59588e-15 0)
(1 4.48041e-15 0)
(1 8.85192e-15 0)
(1 -4.00554e-15 0)
(1 -4.55468e-16 0)
(1 -1.30736e-15 0)
(1 1.05333e-14 0)
(1 4.11861e-15 0)
(1 6.2264e-15 0)
(1 5.66611e-15 0)
(1 3.11226e-15 0)
(1 -1.03439e-15 0)
(1 2.48223e-15 0)
(1 6.12862e-15 0)
(1 2.05608e-15 0)
(1 -7.87524e-15 0)
(1 -4.05011e-15 0)
(1 -1.90424e-15 0)
(1 -3.19472e-15 0)
(1 -2.46994e-15 0)
(1 -5.81425e-15 0)
(1 -4.2225e-15 0)
(1 3.71575e-15 0)
(1 -1.12842e-16 0)
(1 5.38629e-15 0)
(1 -1.16358e-15 0)
(1 2.22417e-15 0)
(1 2.93174e-15 0)
(1 7.03025e-15 0)
(1 -4.28592e-15 0)
(1 -2.54545e-15 0)
(1 1.58491e-16 0)
(1 1.04241e-14 0)
(1 1.45621e-14 0)
(1 1.21246e-14 0)
(1 3.58163e-15 0)
(1 -4.10649e-15 0)
(1 -8.55806e-15 0)
(1 -5.36281e-15 0)
(1 1.64055e-15 0)
(1 6.22591e-15 0)
(1 6.99995e-15 0)
(1 4.38893e-15 0)
(1 -4.09599e-16 0)
(1 9.47907e-16 0)
(1 8.07154e-15 0)
(1 4.5761e-15 0)
(1 6.76932e-15 0)
(1 6.14061e-16 0)
(1 1.83844e-15 0)
(1 -1.15759e-16 0)
(1 -2.37235e-15 0)
(1 -5.84868e-15 0)
(1 -2.04244e-15 0)
(1 -3.77079e-15 0)
(1 1.17551e-14 0)
(1 1.37852e-14 0)
(1 1.30631e-14 0)
(1 1.36207e-14 0)
(1 1.05622e-14 0)
(1 1.37641e-14 0)
(1 1.18874e-14 0)
(1 6.11125e-15 0)
(1 1.87676e-15 0)
(1 1.66214e-17 0)
(1 5.32034e-15 0)
(1 9.01001e-16 0)
(1 3.55706e-15 0)
(1 6.42287e-15 0)
(1 1.78864e-15 0)
(1 2.64759e-15 0)
(1 8.75906e-16 0)
(1 -1.12733e-15 0)
(1 -1.29565e-15 0)
(1 -3.71172e-15 0)
(1 -2.80411e-15 0)
(1 -1.01393e-15 0)
(1 8.86991e-16 0)
(1 5.57744e-15 0)
(1 -2.19922e-17 0)
(1 1.26212e-15 0)
(1 8.95225e-15 0)
(1 9.31627e-15 0)
(1 2.03345e-14 0)
(1 1.39267e-14 0)
(1 1.55699e-14 0)
(1 1.99873e-14 0)
(1 1.89004e-14 0)
(1 1.92948e-14 0)
(1 1.23114e-15 0)
(1 9.90879e-16 0)
(1 1.55541e-15 0)
(1 2.72277e-15 0)
(1 -7.98605e-15 0)
(1 -2.36974e-15 0)
(1 -1.57535e-15 0)
(1 7.1478e-15 0)
(1 3.19803e-15 0)
(1 -8.26699e-15 0)
(1 -8.25391e-16 0)
(1 1.32519e-15 0)
(1 6.38574e-15 0)
(1 2.62925e-15 0)
(1 5.43782e-15 0)
(1 2.58918e-15 0)
(1 8.32064e-15 0)
(1 7.80575e-15 0)
(1 5.01221e-15 0)
(1 -6.8057e-15 0)
(1 -4.06003e-15 0)
(1 -1.08006e-14 0)
(1 -1.57153e-15 0)
(1 3.65104e-15 0)
(1 7.30376e-15 0)
(1 3.59172e-15 0)
(1 1.06336e-15 0)
(1 -5.62889e-15 0)
(1 -1.63721e-15 0)
(1 1.0598e-15 0)
(1 2.50841e-15 0)
(1 -6.52049e-16 0)
(1 -2.21152e-16 0)
(1 -3.09762e-15 0)
(1 2.18203e-15 0)
(1 6.06408e-15 0)
(1 6.14396e-15 0)
(1 -5.79721e-15 0)
(1 -9.98566e-15 0)
(1 -8.89394e-16 0)
(1 4.48006e-15 0)
(1 1.01642e-14 0)
(1 7.00016e-15 0)
(1 9.20451e-15 0)
(1 3.75711e-15 0)
(1 9.84118e-16 0)
(1 -5.19824e-15 0)
(1 -4.91021e-15 0)
(1 -5.13047e-16 0)
(1 1.30175e-15 0)
(1 6.35104e-15 0)
(1 1.71602e-15 0)
(1 3.36923e-15 0)
(1 -2.44027e-15 0)
(1 2.13275e-15 0)
(1 1.04359e-14 0)
(1 1.06872e-14 0)
(1 5.29819e-15 0)
(1 1.50242e-15 0)
(1 3.85964e-15 0)
(1 1.7901e-15 0)
(1 9.41483e-15 0)
(1 5.31858e-15 0)
(1 3.50642e-15 0)
(1 4.21748e-15 0)
(1 -1.14958e-15 0)
(1 6.44564e-15 0)
(1 1.16877e-14 0)
(1 1.21504e-14 0)
(1 9.32307e-15 0)
(1 6.60991e-15 0)
(1 6.45954e-15 0)
(1 5.33902e-15 0)
(1 4.4083e-15 0)
(1 4.34438e-15 0)
(1 1.88447e-15 0)
(1 8.49194e-15 0)
(1 3.0137e-15 0)
(1 7.70334e-15 0)
(1 4.35912e-15 0)
(1 3.31706e-15 0)
(1 -2.72385e-15 0)
(1 -3.44415e-15 0)
(1 -3.20019e-15 0)
(1 -8.75217e-16 0)
(1 2.24681e-15 0)
(1 3.46217e-15 0)
(1 3.39656e-15 0)
(1 6.82187e-15 0)
(1 4.58296e-15 0)
(1 5.01327e-15 0)
(1 4.30644e-15 0)
(1 1.56018e-14 0)
(1 2.24871e-15 0)
(1 1.42153e-14 0)
(1 1.24295e-14 0)
(1 1.23143e-14 0)
(1 2.43584e-14 0)
(1 3.2124e-14 0)
(1 2.05899e-14 0)
(1 2.63258e-15 0)
(1 -4.00991e-15 0)
(1 1.8968e-15 0)
(1 -4.76905e-15 0)
(1 6.01872e-16 0)
(1 -6.32896e-15 0)
(1 -3.33662e-15 0)
(1 3.29499e-15 0)
(1 -5.43405e-16 0)
(1 -1.13284e-14 0)
(1 -4.78607e-15 0)
(1 -1.00134e-14 0)
(1 3.19294e-15 0)
(1 7.7584e-15 0)
(1 1.44519e-14 0)
(1 1.98432e-14 0)
(1 1.38021e-14 0)
(1 7.6665e-15 0)
(1 5.22629e-15 0)
(1 -2.31283e-15 0)
(1 -5.21187e-15 0)
(1 -8.98774e-15 0)
(1 -8.18139e-15 0)
(1 -1.43217e-14 0)
(1 -7.69736e-15 0)
(1 -5.62973e-15 0)
(1 6.34118e-15 0)
(1 2.2284e-15 0)
(1 2.58214e-15 0)
(1 1.92771e-16 0)
(1 -1.69583e-15 0)
(1 -6.97624e-15 0)
(1 1.15128e-15 0)
(1 -9.86237e-16 0)
(1 4.44618e-15 0)
(1 3.45376e-15 0)
(1 4.33209e-15 0)
(1 -4.81732e-15 0)
(1 -1.12324e-15 0)
(1 2.51807e-15 0)
(1 1.10305e-15 0)
(1 7.00777e-15 0)
(1 8.40123e-15 0)
(1 1.35685e-14 0)
(1 3.08194e-15 0)
(1 6.0176e-16 0)
(1 3.7631e-15 0)
(1 8.00712e-16 0)
(1 -2.02488e-15 0)
(1 -4.17996e-15 0)
(1 6.05803e-16 0)
(1 1.58024e-15 0)
(1 8.83028e-15 0)
(1 2.57061e-15 0)
(1 4.43315e-15 0)
(1 3.84998e-15 0)
(1 6.72587e-15 0)
(1 2.65982e-15 0)
(1 5.85735e-15 0)
(1 1.68561e-15 0)
(1 5.35609e-15 0)
(1 4.26183e-15 0)
(1 -6.37876e-16 0)
(1 2.67427e-15 0)
(1 1.12174e-14 0)
(1 9.56436e-15 0)
(1 3.46566e-15 0)
(1 7.48993e-15 0)
(1 9.33279e-15 0)
(1 9.77718e-15 0)
(1 1.18358e-14 0)
(1 1.06739e-14 0)
(1 -2.33831e-16 0)
(1 -3.05359e-15 0)
(1 -6.28811e-17 0)
(1 -1.3677e-16 0)
(1 1.10261e-14 0)
(1 1.61851e-14 0)
(1 1.10564e-14 0)
(1 8.54334e-16 0)
(1 6.58703e-15 0)
(1 -2.21381e-15 0)
(1 -1.61362e-15 0)
(1 -2.77647e-15 0)
(1 -4.73904e-15 0)
(1 -3.19172e-15 0)
(1 2.58366e-15 0)
(1 8.19168e-15 0)
(1 4.42279e-15 0)
(1 7.26596e-15 0)
(1 5.27165e-15 0)
(1 7.46196e-15 0)
(1 7.42585e-15 0)
(1 5.32423e-15 0)
(1 3.02371e-15 0)
(1 6.5781e-15 0)
(1 1.08894e-14 0)
(1 1.57059e-14 0)
(1 2.42355e-14 0)
(1 1.63556e-14 0)
(1 3.77078e-15 0)
(1 -6.63284e-15 0)
(1 2.20929e-15 0)
(1 -2.49089e-15 0)
(1 1.32429e-16 0)
(1 -2.60842e-15 0)
(1 -3.52107e-15 0)
(1 -2.66529e-15 0)
(1 -7.93032e-15 0)
(1 -3.63696e-15 0)
(1 7.37171e-15 0)
(1 4.5225e-15 0)
(1 3.3561e-15 0)
(1 3.52235e-15 0)
(1 4.69275e-15 0)
(1 1.02996e-14 0)
(1 8.43964e-15 0)
(1 3.24736e-15 0)
(1 -5.5168e-15 0)
(1 -6.71789e-15 0)
(1 4.26613e-15 0)
(1 2.2211e-15 0)
(1 -1.12745e-15 0)
(1 -1.73159e-15 0)
(1 -1.48666e-15 0)
(1 2.17279e-15 0)
(1 5.75785e-15 0)
(1 2.49444e-16 0)
(1 1.63866e-15 0)
(1 2.07158e-16 0)
(1 -5.40031e-15 0)
(1 -8.11132e-15 0)
(1 -1.75723e-15 0)
(1 4.25102e-15 0)
(1 -1.21829e-15 0)
(1 -4.95482e-15 0)
(1 -1.34513e-15 0)
(1 9.07303e-16 0)
(1 -2.25832e-15 0)
(1 6.02786e-15 0)
(1 4.76122e-15 0)
(1 7.80023e-15 0)
(1 7.9741e-15 0)
(1 1.07092e-15 0)
(1 2.21605e-15 0)
(1 8.93228e-15 0)
(1 6.59402e-15 0)
(1 7.4594e-15 0)
(1 -3.72311e-15 0)
(1 -3.94005e-15 0)
(1 -1.12618e-15 0)
(1 3.19359e-15 0)
(1 4.64276e-15 0)
(1 1.4021e-14 0)
(1 9.56655e-15 0)
(1 -4.75941e-15 0)
(1 -3.04923e-15 0)
(1 5.02504e-15 0)
(1 7.06513e-15 0)
(1 2.45772e-15 0)
(1 1.6797e-15 0)
(1 2.27001e-15 0)
(1 2.03836e-16 0)
(1 5.96957e-15 0)
(1 1.01803e-14 0)
(1 7.3252e-15 0)
(1 4.22864e-15 0)
(1 6.61416e-15 0)
(1 4.56678e-15 0)
(1 1.15479e-14 0)
(1 1.21623e-14 0)
(1 6.57571e-15 0)
(1 1.14256e-16 0)
(1 -1.62207e-15 0)
(1 -2.04321e-15 0)
(1 6.29618e-15 0)
(1 5.85404e-15 0)
(1 4.85207e-15 0)
(1 3.75449e-15 0)
(1 4.09665e-15 0)
(1 9.70317e-15 0)
(1 1.12507e-14 0)
(1 1.81928e-15 0)
(1 2.29422e-15 0)
(1 2.56707e-16 0)
(1 -3.47505e-15 0)
(1 -2.27142e-15 0)
(1 1.41792e-15 0)
(1 5.85878e-15 0)
(1 5.32219e-15 0)
(1 -3.15636e-15 0)
(1 7.29352e-15 0)
(1 9.96133e-15 0)
(1 1.25898e-14 0)
(1 9.16691e-15 0)
(1 9.20035e-15 0)
(1 2.36783e-14 0)
(1 1.26471e-14 0)
(1 9.14701e-15 0)
(1 1.10367e-14 0)
(1 4.09625e-15 0)
(1 -2.52646e-15 0)
(1 -2.7037e-15 0)
(1 -2.64557e-15 0)
(1 -3.61228e-15 0)
(1 2.4032e-15 0)
(1 -5.47544e-15 0)
(1 5.68135e-16 0)
(1 -2.70326e-15 0)
(1 3.93579e-15 0)
(1 4.03389e-15 0)
(1 1.26899e-14 0)
(1 8.28245e-15 0)
(1 5.95818e-15 0)
(1 -4.48164e-15 0)
(1 3.47123e-15 0)
(1 -2.76725e-15 0)
(1 7.95319e-15 0)
(1 2.1465e-15 0)
(1 2.47898e-15 0)
(1 -7.9511e-16 0)
(1 -1.38133e-14 0)
(1 -1.21152e-14 0)
(1 -6.19783e-15 0)
(1 -5.84821e-15 0)
(1 1.86595e-15 0)
(1 -7.70509e-16 0)
(1 8.60251e-15 0)
(1 1.22543e-15 0)
(1 -1.11208e-15 0)
(1 -4.93231e-15 0)
(1 -3.00396e-15 0)
(1 -4.19409e-15 0)
(1 -5.42064e-15 0)
(1 4.02116e-17 0)
(1 -7.77558e-16 0)
(1 -7.3628e-15 0)
(1 6.17608e-16 0)
(1 4.00537e-15 0)
(1 8.58414e-15 0)
(1 4.93985e-15 0)
(1 5.95395e-15 0)
(1 2.77046e-15 0)
(1 1.66687e-15 0)
(1 5.84402e-15 0)
(1 9.35483e-15 0)
(1 7.86118e-15 0)
(1 1.01602e-14 0)
(1 5.83611e-15 0)
(1 1.85889e-15 0)
(1 -5.09574e-15 0)
(1 -1.35028e-15 0)
(1 -4.41378e-15 0)
(1 3.33058e-15 0)
(1 1.79694e-15 0)
(1 2.82948e-15 0)
(1 -1.68831e-15 0)
(1 2.38892e-15 0)
(1 -3.87128e-15 0)
(1 3.54851e-15 0)
(1 -5.93248e-17 0)
(1 3.49795e-15 0)
(1 1.16347e-14 0)
(1 1.39956e-14 0)
(1 1.30243e-14 0)
(1 8.48363e-15 0)
(1 3.51979e-15 0)
(1 -3.50883e-16 0)
(1 -3.25041e-15 0)
(1 2.488e-15 0)
(1 3.84106e-15 0)
(1 -4.06769e-16 0)
(1 8.66014e-15 0)
(1 8.92996e-15 0)
(1 6.8268e-15 0)
(1 7.83721e-15 0)
(1 -2.78692e-15 0)
(1 -5.4084e-15 0)
(1 -2.71861e-16 0)
(1 7.33883e-15 0)
(1 2.02963e-15 0)
(1 8.33114e-15 0)
(1 3.44474e-15 0)
(1 7.41982e-15 0)
(1 5.68896e-15 0)
(1 7.88555e-15 0)
(1 -3.56837e-15 0)
(1 2.62109e-15 0)
(1 5.91039e-15 0)
(1 1.95256e-15 0)
(1 6.64809e-15 0)
(1 1.86127e-15 0)
(1 -1.88438e-17 0)
(1 4.01453e-15 0)
(1 3.36143e-15 0)
(1 7.70585e-15 0)
(1 1.39999e-14 0)
(1 1.23552e-14 0)
(1 6.33683e-15 0)
(1 9.79341e-15 0)
(1 -1.39324e-15 0)
(1 2.42632e-15 0)
(1 -1.90216e-15 0)
(1 -2.41981e-15 0)
(1 -1.91485e-15 0)
(1 -4.4898e-15 0)
(1 -5.04743e-15 0)
(1 3.50476e-15 0)
(1 1.28834e-14 0)
(1 1.11165e-14 0)
(1 1.745e-15 0)
(1 2.25313e-15 0)
(1 -9.84522e-16 0)
(1 4.83983e-15 0)
(1 -2.49537e-15 0)
(1 -2.91446e-15 0)
(1 -3.47568e-16 0)
(1 -3.80321e-16 0)
(1 7.39836e-17 0)
(1 -1.05949e-15 0)
(1 -4.6401e-15 0)
(1 2.72103e-15 0)
(1 -1.59182e-15 0)
(1 2.60585e-15 0)
(1 2.09189e-15 0)
(1 -2.45235e-16 0)
(1 -8.41531e-15 0)
(1 -4.1656e-15 0)
(1 -6.25554e-15 0)
(1 -5.73818e-15 0)
(1 1.74373e-15 0)
(1 -6.37371e-15 0)
(1 -1.3416e-14 0)
(1 -8.44207e-15 0)
(1 6.40185e-15 0)
(1 1.23566e-14 0)
(1 8.53466e-15 0)
(1 5.65942e-15 0)
(1 5.56045e-15 0)
(1 -2.06771e-16 0)
(1 2.54042e-15 0)
(1 -2.1969e-16 0)
(1 -3.81247e-15 0)
(1 1.66286e-15 0)
(1 9.39566e-15 0)
(1 7.86589e-15 0)
(1 4.80113e-15 0)
(1 4.10776e-15 0)
(1 4.09251e-15 0)
(1 1.87334e-15 0)
(1 -7.33706e-16 0)
(1 -7.32799e-15 0)
(1 3.69671e-16 0)
(1 -3.18662e-15 0)
(1 -3.58407e-15 0)
(1 1.02808e-14 0)
(1 9.30844e-15 0)
(1 6.46922e-15 0)
(1 2.01277e-15 0)
(1 5.69217e-15 0)
(1 6.41352e-15 0)
(1 2.27477e-15 0)
(1 2.44485e-15 0)
(1 4.63158e-15 0)
(1 7.81971e-15 0)
(1 1.94374e-14 0)
(1 8.71538e-15 0)
(1 5.46682e-15 0)
(1 -1.29757e-16 0)
(1 2.85994e-15 0)
(1 2.13049e-15 0)
(1 4.09529e-15 0)
(1 3.85607e-15 0)
(1 7.00192e-15 0)
(1 7.47854e-15 0)
(1 5.2603e-15 0)
(1 2.38804e-15 0)
(1 1.09082e-14 0)
(1 1.24937e-14 0)
(1 1.15776e-14 0)
(1 2.99347e-15 0)
(1 1.11682e-15 0)
(1 -4.86106e-16 0)
(1 2.77648e-15 0)
(1 -2.52831e-16 0)
(1 4.45335e-15 0)
(1 5.89407e-16 0)
(1 8.71116e-15 0)
(1 5.44239e-15 0)
(1 5.44619e-15 0)
(1 1.25416e-14 0)
(1 5.17897e-15 0)
(1 -3.58179e-15 0)
(1 2.91741e-15 0)
(1 2.77141e-15 0)
(1 6.95813e-15 0)
(1 1.03157e-14 0)
(1 8.66014e-15 0)
(1 8.62583e-15 0)
(1 1.1793e-14 0)
(1 -7.95256e-16 0)
(1 -4.24539e-16 0)
(1 3.3903e-15 0)
(1 -3.31908e-15 0)
(1 -1.9144e-15 0)
(1 -5.75263e-15 0)
(1 -2.69537e-15 0)
(1 -1.28828e-14 0)
(1 9.7773e-15 0)
(1 5.13661e-15 0)
(1 7.90172e-15 0)
(1 8.80525e-15 0)
(1 8.32851e-16 0)
(1 4.00653e-15 0)
(1 8.43722e-15 0)
(1 -7.50131e-15 0)
(1 -3.24347e-15 0)
(1 -1.5602e-14 0)
(1 -1.32703e-14 0)
(1 -7.04975e-15 0)
(1 -5.81973e-15 0)
(1 1.13851e-14 0)
(1 6.98092e-15 0)
(1 1.84087e-14 0)
(1 1.28186e-14 0)
(1 1.16353e-14 0)
(1 4.63774e-16 0)
(1 -1.04314e-14 0)
(1 -1.24278e-14 0)
(1 -6.5703e-15 0)
(1 -3.36651e-17 0)
(1 -6.95111e-15 0)
(1 -6.44043e-15 0)
(1 -6.82712e-15 0)
(1 -3.49513e-16 0)
(1 3.20245e-15 0)
(1 1.3884e-14 0)
(1 4.47906e-15 0)
(1 3.9831e-15 0)
(1 2.77541e-16 0)
(1 9.82138e-16 0)
(1 1.52722e-15 0)
(1 -3.3066e-15 0)
(1 -5.90318e-16 0)
(1 7.10892e-16 0)
(1 6.16479e-15 0)
(1 8.6772e-15 0)
(1 -2.44795e-15 0)
(1 -2.33588e-16 0)
(1 1.29729e-15 0)
(1 7.71504e-15 0)
(1 1.50826e-15 0)
(1 2.22967e-15 0)
(1 2.41943e-15 0)
(1 3.53254e-15 0)
(1 5.98158e-15 0)
(1 8.94327e-15 0)
(1 5.26732e-15 0)
(1 2.8944e-15 0)
(1 1.81274e-15 0)
(1 5.59319e-15 0)
(1 2.11762e-15 0)
(1 2.0369e-15 0)
(1 2.53063e-15 0)
(1 6.02026e-15 0)
(1 1.15895e-14 0)
(1 9.4949e-15 0)
(1 9.83827e-15 0)
(1 8.10582e-15 0)
(1 1.11857e-14 0)
(1 9.81605e-15 0)
(1 1.06583e-14 0)
(1 7.95396e-16 0)
(1 4.77781e-15 0)
(1 5.82604e-15 0)
(1 1.08573e-14 0)
(1 1.15125e-14 0)
(1 3.01928e-15 0)
(1 4.04035e-15 0)
(1 4.68515e-15 0)
(1 9.48913e-15 0)
(1 8.78713e-16 0)
(1 2.83737e-15 0)
(1 3.28261e-16 0)
(1 2.80797e-15 0)
(1 -1.93763e-15 0)
(1 -2.17015e-16 0)
(1 3.08434e-16 0)
(1 6.20338e-15 0)
(1 4.19379e-15 0)
(1 6.09927e-15 0)
(1 3.78612e-15 0)
(1 3.16388e-15 0)
(1 9.37837e-15 0)
(1 1.00119e-14 0)
(1 4.76863e-15 0)
(1 5.21591e-15 0)
(1 7.78452e-15 0)
(1 1.15635e-14 0)
(1 1.5365e-14 0)
(1 -3.88905e-15 0)
(1 -4.72347e-15 0)
(1 -1.46507e-15 0)
(1 -5.40764e-16 0)
(1 8.47406e-15 0)
(1 4.41284e-15 0)
(1 1.14766e-14 0)
(1 2.05667e-15 0)
(1 -3.52663e-15 0)
(1 -6.19446e-16 0)
(1 -3.34993e-15 0)
(1 -6.82371e-15 0)
(1 2.14408e-16 0)
(1 5.58123e-17 0)
(1 8.72048e-15 0)
(1 -6.65224e-15 0)
(1 6.87323e-15 0)
(1 -5.94138e-15 0)
(1 -5.05822e-15 0)
(1 -4.50531e-15 0)
(1 -2.6797e-15 0)
(1 -1.61067e-15 0)
(1 2.83653e-15 0)
(1 1.36992e-15 0)
(1 -6.37631e-15 0)
(1 -7.80864e-16 0)
(1 -6.70064e-15 0)
(1 -1.67082e-15 0)
(1 -1.21304e-14 0)
(1 -4.13201e-16 0)
(1 -1.13643e-14 0)
(1 -7.65364e-15 0)
(1 6.50822e-15 0)
(1 5.68142e-15 0)
(1 6.8156e-15 0)
(1 4.00898e-15 0)
(1 9.25313e-15 0)
(1 1.73707e-15 0)
(1 7.08579e-16 0)
(1 -4.006e-15 0)
(1 -4.10551e-15 0)
(1 5.9843e-16 0)
(1 3.49527e-15 0)
(1 1.50733e-16 0)
(1 4.31584e-16 0)
(1 -3.68469e-15 0)
(1 8.88273e-15 0)
(1 2.71538e-15 0)
(1 4.63391e-15 0)
(1 4.84327e-15 0)
(1 6.99283e-15 0)
(1 5.37368e-15 0)
(1 8.14295e-16 0)
(1 -4.86539e-15 0)
(1 1.70409e-15 0)
(1 1.12059e-15 0)
(1 9.39398e-15 0)
(1 4.97262e-15 0)
(1 6.98137e-15 0)
(1 -1.51353e-15 0)
(1 2.10925e-15 0)
(1 -4.01443e-16 0)
(1 8.34241e-16 0)
(1 6.8732e-15 0)
(1 3.44019e-15 0)
(1 -2.05048e-15 0)
(1 3.70385e-15 0)
(1 2.63721e-18 0)
(1 7.79526e-15 0)
(1 1.40899e-14 0)
(1 9.08849e-15 0)
(1 4.17127e-15 0)
(1 6.75138e-15 0)
(1 5.01829e-15 0)
(1 1.08839e-15 0)
(1 1.53909e-15 0)
(1 8.95542e-15 0)
(1 8.68267e-15 0)
(1 5.78647e-15 0)
(1 9.27461e-15 0)
(1 5.7325e-15 0)
(1 -1.12522e-15 0)
(1 2.31193e-15 0)
(1 5.52935e-15 0)
(1 5.55582e-15 0)
(1 -1.32367e-15 0)
(1 -2.19485e-15 0)
(1 -2.19259e-16 0)
(1 3.23684e-15 0)
(1 5.79752e-15 0)
(1 6.33294e-15 0)
(1 4.42533e-15 0)
(1 4.93441e-15 0)
(1 1.84127e-15 0)