/*--------------------------------*- C++ -*----------------------------------*\
| =========                 |                                                 |
| \\      /  F ield         | OpenFOAM: The Open Source CFD Toolbox           |
|  \\    /   O peration     | Version:  v2012                                 |
|   \\  /    A nd           | Website:  www.openfoam.com                      |
|    \\/     M anipulation  |                                                 |
\*---------------------------------------------------------------------------*/
FoamFile
{
    version     2.0;
    format      ascii;
    class       volVectorField;
    location    "70";
    object      Usup;
}
// * * * * * * * * * * * * * * * * * * * * * * * * * * * * * * * * * * * * * //

dimensions      [0 1 -1 0 0 0 0];


internalField   nonuniform List<vector> 
4000
(
(-1.23627e-16 -1.02668e-16 0)
(-1.94982e-16 -2.33886e-17 0)
(-3.2643e-16 -2.36256e-16 0)
(-7.80088e-16 -2.89775e-16 0)
(-1.13301e-15 -3.1591e-16 0)
(-1.57246e-15 -7.10637e-16 0)
(-2.26923e-15 -8.63945e-16 0)
(-3.09284e-15 -5.33701e-16 0)
(-3.72636e-15 -4.20192e-17 0)
(-3.49417e-15 2.43236e-16 0)
(-2.98497e-15 -2.42641e-16 0)
(-3.34407e-15 -8.22033e-16 0)
(-4.02255e-15 -8.09614e-16 0)
(-4.22149e-15 -4.14345e-16 0)
(-4.4917e-15 -2.93918e-16 0)
(-4.26608e-15 -4.15506e-17 0)
(-3.35672e-15 2.81063e-16 0)
(-2.88187e-15 1.96316e-16 0)
(-2.88629e-15 3.65931e-18 0)
(-2.93453e-15 2.70753e-16 0)
(-2.70533e-15 2.39529e-16 0)
(-2.60376e-15 -1.38449e-16 0)
(-2.5875e-15 -4.15041e-16 0)
(-2.22477e-15 -4.52658e-16 0)
(-1.73315e-15 -2.58781e-16 0)
(-1.69007e-15 7.18557e-17 0)
(-2.14727e-15 2.71075e-16 0)
(-2.38014e-15 8.33055e-16 0)
(-2.1117e-15 9.08839e-16 0)
(-1.73322e-15 6.52971e-16 0)
(-8.77473e-16 8.21071e-16 0)
(-1.46444e-16 6.19321e-16 0)
(2.93296e-16 6.31237e-16 0)
(7.08492e-16 5.77409e-16 0)
(6.57877e-16 3.29598e-16 0)
(3.09647e-16 2.23635e-16 0)
(-1.75288e-16 5.0148e-16 0)
(-4.15347e-16 7.41021e-16 0)
(2.36837e-19 8.04805e-16 0)
(6.20152e-16 5.19197e-16 0)
(7.09641e-16 1.75251e-16 0)
(5.8707e-16 -1.99568e-16 0)
(4.68851e-16 -2.76931e-16 0)
(1.99425e-16 -2.15707e-16 0)
(-2.56674e-16 1.36996e-16 0)
(-6.93788e-17 4.15523e-16 0)
(2.45245e-16 1.82822e-16 0)
(-9.94662e-17 1.86925e-16 0)
(-1.10175e-16 1.62312e-16 0)
(2.14518e-16 2.49334e-16 0)
(1.31904e-16 4.69491e-16 0)
(-1.33409e-16 5.03249e-16 0)
(-1.59821e-16 5.50621e-16 0)
(-5.86326e-17 7.76916e-16 0)
(-1.53005e-16 7.60088e-16 0)
(7.90784e-17 8.36697e-16 0)
(3.78081e-16 8.03892e-16 0)
(6.70926e-16 8.12e-16 0)
(9.68889e-16 8.64428e-16 0)
(7.67922e-16 8.24539e-16 0)
(5.26035e-16 6.13974e-16 0)
(-6.33601e-17 4.50489e-16 0)
(-5.19582e-16 8.49923e-16 0)
(-2.09907e-16 1.18759e-15 0)
(3.10654e-16 1.40446e-15 0)
(3.67251e-16 1.42696e-15 0)
(2.25962e-16 1.51042e-15 0)
(3.34684e-16 1.29105e-15 0)
(5.41715e-16 1.27289e-15 0)
(6.29962e-16 1.19885e-15 0)
(6.89947e-16 1.03311e-15 0)
(4.0328e-16 1.12559e-15 0)
(-2.11116e-18 1.30989e-15 0)
(3.29351e-16 1.06467e-15 0)
(6.28344e-16 1.05005e-15 0)
(7.44319e-16 7.32952e-16 0)
(5.9843e-16 4.22185e-16 0)
(2.39516e-16 3.09975e-16 0)
(-4.70374e-16 3.91246e-16 0)
(-9.49513e-16 6.92289e-16 0)
(-4.71161e-16 8.21149e-16 0)
(-1.22766e-16 1.21775e-15 0)
(2.12862e-16 1.17001e-15 0)
(4.42567e-16 7.98682e-16 0)
(-1.43903e-17 1.64195e-16 0)
(-6.73181e-16 -4.10414e-17 0)
(-1.02022e-15 1.35144e-16 0)
(-1.03071e-15 3.58193e-16 0)
(-7.12781e-16 5.39301e-16 0)
(-3.29066e-16 6.12101e-16 0)
(-1.39038e-16 7.36809e-16 0)
(-1.65794e-16 7.48651e-16 0)
(-4.74946e-16 5.87543e-16 0)
(-5.94963e-16 6.40208e-16 0)
(-4.39779e-16 4.38874e-16 0)
(-9.85907e-17 4.18425e-16 0)
(1.67111e-16 5.00952e-16 0)
(1.88673e-16 3.72575e-16 0)
(1.02313e-16 2.51983e-16 0)
(1.45386e-16 8.45454e-17 0)
(-1.82234e-16 -1.87642e-16 0)
(-6.57347e-16 -2.91253e-16 0)
(-1.32026e-15 -8.0844e-16 0)
(-2.33759e-15 -1.06928e-15 0)
(-3.66946e-15 -1.26061e-15 0)
(-5.06193e-15 -2.01162e-15 0)
(-6.3192e-15 -2.10576e-15 0)
(-7.82414e-15 -1.58767e-15 0)
(-9.32221e-15 -5.82015e-16 0)
(-9.85051e-15 -2.31199e-16 0)
(-9.76625e-15 -7.83148e-16 0)
(-1.0191e-14 -1.71304e-15 0)
(-1.0882e-14 -1.78673e-15 0)
(-1.1389e-14 -1.31485e-15 0)
(-1.19749e-14 -8.95227e-16 0)
(-1.12448e-14 -2.42848e-16 0)
(-9.63831e-15 6.16246e-16 0)
(-8.87669e-15 8.30859e-16 0)
(-8.39701e-15 3.37756e-16 0)
(-8.20107e-15 4.58854e-16 0)
(-8.15451e-15 3.37314e-16 0)
(-7.99997e-15 -4.63932e-16 0)
(-7.51337e-15 -1.00125e-15 0)
(-6.31962e-15 -1.03697e-15 0)
(-5.01677e-15 -4.36947e-16 0)
(-4.84892e-15 1.86501e-16 0)
(-5.43718e-15 1.14196e-15 0)
(-5.86973e-15 2.11192e-15 0)
(-5.80852e-15 2.23729e-15 0)
(-4.65617e-15 1.93921e-15 0)
(-2.63051e-15 2.42537e-15 0)
(-9.46008e-16 1.93709e-15 0)
(3.77313e-16 1.79805e-15 0)
(1.15255e-15 1.5296e-15 0)
(1.10568e-15 1.13786e-15 0)
(8.02249e-16 1.26721e-15 0)
(1.00749e-16 1.60637e-15 0)
(-4.74916e-16 1.78388e-15 0)
(-2.0745e-17 2.01211e-15 0)
(9.2059e-16 1.40298e-15 0)
(1.14766e-15 5.59959e-16 0)
(1.13549e-15 -3.24932e-16 0)
(1.14132e-15 -5.37606e-16 0)
(8.34846e-16 -4.81511e-16 0)
(1.23517e-16 2.54862e-16 0)
(-4.25113e-17 1.017e-15 0)
(2.65893e-16 8.07573e-16 0)
(-1.39244e-16 5.4627e-16 0)
(-9.48006e-17 7.1406e-16 0)
(6.33195e-16 1.06835e-15 0)
(4.49328e-16 1.50836e-15 0)
(-1.64936e-16 1.68256e-15 0)
(-9.9959e-17 1.9044e-15 0)
(3.27925e-17 2.19031e-15 0)
(-1.40432e-16 2.24954e-15 0)
(3.73874e-16 2.3208e-15 0)
(1.02522e-15 2.26061e-15 0)
(1.77264e-15 2.36606e-15 0)
(2.31273e-15 2.26992e-15 0)
(1.73738e-15 2.29072e-15 0)
(1.01805e-15 1.84007e-15 0)
(2.29852e-16 1.53823e-15 0)
(-3.03591e-16 2.62182e-15 0)
(1.06908e-16 3.57019e-15 0)
(8.79634e-16 4.15792e-15 0)
(1.00111e-15 4.27772e-15 0)
(6.63064e-16 4.44189e-15 0)
(8.37863e-16 3.89221e-15 0)
(1.37489e-15 3.58361e-15 0)
(1.47655e-15 3.3725e-15 0)
(1.66446e-15 3.24694e-15 0)
(1.34798e-15 3.12269e-15 0)
(3.77724e-16 3.25543e-15 0)
(7.98066e-16 3.19998e-15 0)
(1.33201e-15 3.10042e-15 0)
(1.31453e-15 2.42306e-15 0)
(1.08263e-15 1.57541e-15 0)
(4.77022e-16 1.40001e-15 0)
(-7.20391e-16 1.4865e-15 0)
(-1.64819e-15 2.20404e-15 0)
(-7.68936e-16 2.89765e-15 0)
(-1.30295e-16 3.23394e-15 0)
(1.64596e-17 2.66859e-15 0)
(-5.23095e-17 1.76234e-15 0)
(-8.83892e-16 7.43854e-16 0)
(-1.67885e-15 5.4476e-16 0)
(-2.16796e-15 9.82795e-16 0)
(-2.2215e-15 1.2799e-15 0)
(-1.68628e-15 1.68933e-15 0)
(-9.14307e-16 1.79164e-15 0)
(-5.17546e-16 1.99369e-15 0)
(-7.60307e-16 2.1238e-15 0)
(-1.27964e-15 1.9383e-15 0)
(-1.51434e-15 1.93091e-15 0)
(-1.20933e-15 1.60959e-15 0)
(-2.61027e-16 1.27694e-15 0)
(2.63432e-16 1.09184e-15 0)
(2.51288e-16 9.43113e-16 0)
(1.32438e-16 6.55861e-16 0)
(1.8631e-16 2.91772e-16 0)
(-3.77644e-16 -2.09739e-16 0)
(-1.33467e-15 -6.28209e-16 0)
(-2.49511e-15 -1.47496e-15 0)
(-4.03456e-15 -2.49186e-15 0)
(-6.16983e-15 -2.67507e-15 0)
(-8.18198e-15 -2.99818e-15 0)
(-9.92573e-15 -2.86689e-15 0)
(-1.1969e-14 -2.70922e-15 0)
(-1.42046e-14 -1.64962e-15 0)
(-1.54167e-14 -1.28002e-15 0)
(-1.5751e-14 -1.80359e-15 0)
(-1.65235e-14 -2.56863e-15 0)
(-1.73471e-14 -2.70309e-15 0)
(-1.78586e-14 -1.75114e-15 0)
(-1.82982e-14 -6.52663e-16 0)
(-1.71458e-14 3.42609e-16 0)
(-1.50722e-14 6.44843e-16 0)
(-1.44574e-14 1.01378e-15 0)
(-1.40296e-14 8.69409e-16 0)
(-1.34756e-14 3.03299e-16 0)
(-1.33866e-14 -6.95033e-17 0)
(-1.3118e-14 -7.92543e-16 0)
(-1.20617e-14 -1.28428e-15 0)
(-1.00195e-14 -1.53047e-15 0)
(-8.14825e-15 -6.80165e-16 0)
(-7.5662e-15 6.95645e-16 0)
(-8.08981e-15 2.22682e-15 0)
(-8.96208e-15 2.95069e-15 0)
(-8.87719e-15 3.32822e-15 0)
(-6.93307e-15 3.74115e-15 0)
(-4.27559e-15 3.97126e-15 0)
(-2.13613e-15 3.32853e-15 0)
(-1.27463e-16 2.88297e-15 0)
(1.07873e-15 2.40427e-15 0)
(1.48045e-15 2.09448e-15 0)
(1.20314e-15 2.35458e-15 0)
(8.3878e-17 2.3141e-15 0)
(-4.60148e-16 2.30221e-15 0)
(3.97845e-17 2.51041e-15 0)
(8.28097e-16 2.14909e-15 0)
(1.07549e-15 1.12977e-15 0)
(1.30858e-15 2.3106e-16 0)
(1.5537e-15 -4.17158e-16 0)
(1.4098e-15 -6.87135e-16 0)
(8.40564e-16 4.83942e-17 0)
(3.91225e-16 8.72416e-16 0)
(1.95921e-16 8.73475e-16 0)
(-1.5567e-16 9.0194e-16 0)
(2.78593e-16 1.47655e-15 0)
(1.10223e-15 2.06672e-15 0)
(7.9826e-16 2.44502e-15 0)
(5.82055e-17 2.80259e-15 0)
(3.93305e-17 3.27027e-15 0)
(1.50311e-16 3.45425e-15 0)
(1.27072e-17 3.5944e-15 0)
(6.57999e-16 3.71278e-15 0)
(1.65693e-15 3.49803e-15 0)
(2.56942e-15 3.65238e-15 0)
(3.22739e-15 3.41384e-15 0)
(2.48796e-15 3.54219e-15 0)
(1.36279e-15 3.16837e-15 0)
(8.88318e-16 3.01028e-15 0)
(6.676e-16 4.365e-15 0)
(9.3202e-16 5.7439e-15 0)
(1.56203e-15 6.50322e-15 0)
(1.60773e-15 6.77358e-15 0)
(1.0153e-15 6.95225e-15 0)
(1.0232e-15 6.54361e-15 0)
(1.83379e-15 5.89218e-15 0)
(2.25413e-15 5.30305e-15 0)
(2.36974e-15 5.45301e-15 0)
(1.84239e-15 5.31621e-15 0)
(1.03455e-15 5.30111e-15 0)
(1.50754e-15 5.4064e-15 0)
(1.75315e-15 4.84234e-15 0)
(1.4035e-15 4.04605e-15 0)
(1.19626e-15 3.41843e-15 0)
(6.14525e-16 3.14008e-15 0)
(-6.98171e-16 3.2779e-15 0)
(-1.49747e-15 4.0956e-15 0)
(-8.72334e-16 4.82882e-15 0)
(-8.13818e-16 4.2207e-15 0)
(-8.28409e-16 3.38864e-15 0)
(-7.83252e-16 2.2526e-15 0)
(-1.50971e-15 1.7307e-15 0)
(-2.25286e-15 1.71982e-15 0)
(-2.98493e-15 2.01517e-15 0)
(-3.11611e-15 2.51573e-15 0)
(-2.44664e-15 2.99574e-15 0)
(-1.54218e-15 3.04421e-15 0)
(-9.14269e-16 3.25886e-15 0)
(-1.20248e-15 3.44621e-15 0)
(-1.92556e-15 3.47614e-15 0)
(-2.23295e-15 3.14526e-15 0)
(-1.9658e-15 2.77442e-15 0)
(-8.73726e-16 2.13622e-15 0)
(9.78505e-17 1.63257e-15 0)
(2.92385e-16 1.33827e-15 0)
(1.17412e-16 8.74783e-16 0)
(9.23612e-17 3.74225e-16 0)
(-5.49699e-16 -2.97858e-16 0)
(-2.1286e-15 -9.47766e-16 0)
(-4.21024e-15 -2.20477e-15 0)
(-5.95273e-15 -3.70845e-15 0)
(-8.11648e-15 -4.27929e-15 0)
(-1.07662e-14 -3.61863e-15 0)
(-1.32986e-14 -3.29454e-15 0)
(-1.56978e-14 -3.81389e-15 0)
(-1.8241e-14 -3.12773e-15 0)
(-2.05307e-14 -2.32757e-15 0)
(-2.16322e-14 -2.86575e-15 0)
(-2.23953e-14 -3.36273e-15 0)
(-2.25819e-14 -3.28857e-15 0)
(-2.2679e-14 -2.0885e-15 0)
(-2.3374e-14 -2.95935e-16 0)
(-2.28164e-14 1.487e-15 0)
(-2.07949e-14 1.28235e-15 0)
(-1.95564e-14 1.2005e-15 0)
(-1.92282e-14 9.49038e-16 0)
(-1.87771e-14 6.02343e-18 0)
(-1.83719e-14 -6.98373e-16 0)
(-1.78335e-14 -8.60592e-16 0)
(-1.64899e-14 -1.0448e-15 0)
(-1.36638e-14 -1.35714e-15 0)
(-1.05402e-14 -4.82864e-16 0)
(-9.53356e-15 1.3587e-15 0)
(-1.05097e-14 2.65203e-15 0)
(-1.15366e-14 3.39361e-15 0)
(-1.1015e-14 4.33437e-15 0)
(-8.88177e-15 5.46223e-15 0)
(-6.20441e-15 5.07087e-15 0)
(-3.60138e-15 4.40256e-15 0)
(-1.01361e-15 3.85977e-15 0)
(6.42635e-16 3.58717e-15 0)
(1.41473e-15 3.19172e-15 0)
(1.18571e-15 2.95359e-15 0)
(3.34828e-17 2.85676e-15 0)
(-3.82526e-16 2.86239e-15 0)
(2.04302e-16 2.77457e-15 0)
(7.74673e-16 2.03861e-15 0)
(8.77152e-16 1.29804e-15 0)
(1.11901e-15 8.24474e-16 0)
(1.37544e-15 -5.0635e-17 0)
(1.73459e-15 -5.80853e-16 0)
(1.48423e-15 -2.50183e-16 0)
(7.18325e-16 4.37807e-16 0)
(4.86375e-16 4.87333e-16 0)
(4.02946e-16 1.03576e-15 0)
(8.56139e-16 2.20049e-15 0)
(1.53997e-15 3.01258e-15 0)
(1.14672e-15 3.32562e-15 0)
(4.7059e-16 3.44314e-15 0)
(3.81082e-16 4.01562e-15 0)
(3.68826e-16 4.41845e-15 0)
(3.17207e-16 4.79162e-15 0)
(9.29435e-16 5.07004e-15 0)
(2.06552e-15 4.76193e-15 0)
(3.21554e-15 4.64086e-15 0)
(3.96514e-15 4.35518e-15 0)
(3.13829e-15 4.4099e-15 0)
(1.78598e-15 4.45749e-15 0)
(1.6919e-15 4.88971e-15 0)
(1.91498e-15 5.82063e-15 0)
(1.99843e-15 7.298e-15 0)
(2.3104e-15 8.23239e-15 0)
(2.244e-15 9.02395e-15 0)
(1.53901e-15 9.37106e-15 0)
(1.29173e-15 9.03055e-15 0)
(1.91126e-15 8.16195e-15 0)
(2.72512e-15 7.31149e-15 0)
(3.22081e-15 7.30431e-15 0)
(2.56605e-15 7.47526e-15 0)
(1.56912e-15 7.66657e-15 0)
(1.67675e-15 7.47758e-15 0)
(1.69205e-15 6.4583e-15 0)
(1.5861e-15 5.52912e-15 0)
(1.38335e-15 5.26868e-15 0)
(7.03954e-16 5.06803e-15 0)
(-4.50647e-16 5.48522e-15 0)
(-1.41078e-15 6.11502e-15 0)
(-1.48049e-15 6.35787e-15 0)
(-1.68602e-15 5.14683e-15 0)
(-1.66252e-15 4.29271e-15 0)
(-1.51538e-15 3.11952e-15 0)
(-1.99729e-15 2.86659e-15 0)
(-2.86914e-15 3.03428e-15 0)
(-3.46322e-15 3.20204e-15 0)
(-3.48249e-15 4.10932e-15 0)
(-3.02883e-15 4.36993e-15 0)
(-2.06789e-15 4.56522e-15 0)
(-1.29103e-15 4.58162e-15 0)
(-1.59436e-15 4.53039e-15 0)
(-2.56555e-15 4.42332e-15 0)
(-3.06014e-15 4.34614e-15 0)
(-2.71762e-15 3.83606e-15 0)
(-1.44097e-15 2.91449e-15 0)
(-2.60792e-16 2.16521e-15 0)
(1.60605e-17 1.69887e-15 0)
(-7.81573e-17 1.0831e-15 0)
(-1.0016e-19 2.77809e-16 0)
(-7.68432e-16 -6.16724e-16 0)
(-3.0332e-15 -1.64067e-15 0)
(-5.84098e-15 -2.96788e-15 0)
(-8.03362e-15 -3.85738e-15 0)
(-9.83013e-15 -4.49685e-15 0)
(-1.25203e-14 -4.26525e-15 0)
(-1.6513e-14 -4.28656e-15 0)
(-1.95906e-14 -4.59396e-15 0)
(-2.19019e-14 -4.40897e-15 0)
(-2.47163e-14 -3.89374e-15 0)
(-2.65251e-14 -3.74982e-15 0)
(-2.74063e-14 -3.4688e-15 0)
(-2.75362e-14 -2.21115e-15 0)
(-2.71532e-14 -1.36735e-15 0)
(-2.72514e-14 -9.64084e-17 0)
(-2.72957e-14 1.57526e-15 0)
(-2.60401e-14 2.00473e-15 0)
(-2.48758e-14 1.74593e-15 0)
(-2.45947e-14 8.25256e-16 0)
(-2.39451e-14 -3.1386e-16 0)
(-2.28429e-14 -1.03039e-15 0)
(-2.17423e-14 -9.13536e-16 0)
(-2.03172e-14 -3.78536e-16 0)
(-1.6964e-14 -1.62227e-16 0)
(-1.30008e-14 6.75099e-16 0)
(-1.17351e-14 1.89351e-15 0)
(-1.27847e-14 2.62191e-15 0)
(-1.35265e-14 3.63549e-15 0)
(-1.25097e-14 4.78405e-15 0)
(-1.06336e-14 6.07873e-15 0)
(-8.19266e-15 5.76599e-15 0)
(-5.06198e-15 4.98806e-15 0)
(-1.83268e-15 4.57253e-15 0)
(1.44563e-16 4.51798e-15 0)
(9.05886e-16 4.27416e-15 0)
(9.20272e-16 3.50282e-15 0)
(-4.32852e-17 3.55586e-15 0)
(-5.04793e-16 3.34796e-15 0)
(-2.87356e-16 2.77027e-15 0)
(3.46069e-16 1.62365e-15 0)
(9.82154e-16 1.28659e-15 0)
(1.13425e-15 9.19607e-16 0)
(1.21439e-15 2.82551e-16 0)
(1.7454e-15 1.4246e-18 0)
(1.86849e-15 -2.96372e-16 0)
(1.13086e-15 -5.02546e-17 0)
(8.14214e-16 2.73047e-16 0)
(1.23685e-15 8.20731e-16 0)
(1.85943e-15 2.62718e-15 0)
(2.08977e-15 3.84355e-15 0)
(1.26067e-15 4.0749e-15 0)
(6.67813e-16 4.06926e-15 0)
(8.67763e-16 4.4154e-15 0)
(9.20795e-16 5.03531e-15 0)
(8.54618e-16 5.61347e-15 0)
(1.26414e-15 6.03029e-15 0)
(2.28554e-15 5.97981e-15 0)
(3.49148e-15 5.61861e-15 0)
(4.41601e-15 4.95316e-15 0)
(3.83575e-15 4.99842e-15 0)
(2.72686e-15 5.50429e-15 0)
(2.56793e-15 6.33063e-15 0)
(2.90023e-15 7.01398e-15 0)
(3.19954e-15 8.49047e-15 0)
(3.50931e-15 9.45174e-15 0)
(3.29621e-15 1.08002e-14 0)
(2.00689e-15 1.11727e-14 0)
(1.26636e-15 1.07751e-14 0)
(1.8423e-15 1.01653e-14 0)
(2.97442e-15 9.41433e-15 0)
(3.82363e-15 9.1245e-15 0)
(3.32855e-15 9.36067e-15 0)
(2.14656e-15 9.64361e-15 0)
(1.72989e-15 9.62545e-15 0)
(1.44532e-15 8.78197e-15 0)
(1.55278e-15 7.78833e-15 0)
(1.59475e-15 7.00818e-15 0)
(1.06209e-15 6.79568e-15 0)
(-1.33599e-16 7.21419e-15 0)
(-1.3843e-15 7.6794e-15 0)
(-2.14512e-15 7.59785e-15 0)
(-2.78075e-15 6.56419e-15 0)
(-2.6739e-15 5.53372e-15 0)
(-2.25772e-15 4.43469e-15 0)
(-2.30753e-15 4.25181e-15 0)
(-3.15628e-15 4.66299e-15 0)
(-3.65546e-15 5.15337e-15 0)
(-3.80706e-15 5.32864e-15 0)
(-3.53564e-15 5.2466e-15 0)
(-2.58645e-15 5.59895e-15 0)
(-1.94901e-15 5.63579e-15 0)
(-2.23164e-15 5.23774e-15 0)
(-2.93865e-15 4.96037e-15 0)
(-3.4518e-15 5.0539e-15 0)
(-3.59389e-15 4.49334e-15 0)
(-2.37607e-15 3.43567e-15 0)
(-7.69638e-16 2.25072e-15 0)
(-2.38644e-16 1.66168e-15 0)
(-4.56024e-16 9.47449e-16 0)
(-1.63288e-16 1.39679e-16 0)
(-1.00397e-15 -7.7955e-16 0)
(-3.80211e-15 -2.34248e-15 0)
(-6.8777e-15 -3.56109e-15 0)
(-9.2403e-15 -3.8312e-15 0)
(-1.17493e-14 -4.1769e-15 0)
(-1.51488e-14 -4.81875e-15 0)
(-1.92794e-14 -5.57011e-15 0)
(-2.26452e-14 -5.14616e-15 0)
(-2.55226e-14 -4.83628e-15 0)
(-2.85617e-14 -4.8543e-15 0)
(-3.04064e-14 -4.39172e-15 0)
(-3.08674e-14 -3.53188e-15 0)
(-3.10882e-14 -1.45583e-15 0)
(-3.14687e-14 -5.92632e-16 0)
(-3.16303e-14 1.80932e-16 0)
(-3.15188e-14 1.43671e-15 0)
(-3.05504e-14 2.32812e-15 0)
(-2.98729e-14 2.02913e-15 0)
(-2.97765e-14 9.67504e-16 0)
(-2.87778e-14 -2.12108e-16 0)
(-2.70451e-14 -6.96449e-16 0)
(-2.51692e-14 -7.10112e-16 0)
(-2.33135e-14 3.95174e-16 0)
(-1.9803e-14 1.36494e-15 0)
(-1.54956e-14 1.6825e-15 0)
(-1.41779e-14 1.97624e-15 0)
(-1.49385e-14 2.42032e-15 0)
(-1.52127e-14 3.76514e-15 0)
(-1.38805e-14 5.19106e-15 0)
(-1.20497e-14 6.14905e-15 0)
(-1.0011e-14 6.12489e-15 0)
(-6.60114e-15 5.57124e-15 0)
(-2.71512e-15 5.41497e-15 0)
(-3.55109e-16 5.12452e-15 0)
(2.46846e-16 4.68929e-15 0)
(4.13949e-16 3.84002e-15 0)
(-2.25752e-16 3.91425e-15 0)
(-9.77885e-16 3.57928e-15 0)
(-8.77929e-16 2.6122e-15 0)
(9.15197e-17 1.45435e-15 0)
(9.1445e-16 9.66786e-16 0)
(9.70602e-16 5.13815e-16 0)
(1.22666e-15 3.47246e-16 0)
(1.71145e-15 4.58312e-16 0)
(1.72399e-15 1.24926e-16 0)
(1.34334e-15 1.76034e-16 0)
(1.29969e-15 3.64251e-16 0)
(2.27891e-15 8.34223e-16 0)
(3.21788e-15 2.68338e-15 0)
(2.75564e-15 4.25394e-15 0)
(1.46356e-15 4.43047e-15 0)
(8.68095e-16 4.75124e-15 0)
(1.26889e-15 4.97431e-15 0)
(1.51145e-15 5.62064e-15 0)
(1.45136e-15 6.06793e-15 0)
(1.80054e-15 6.35843e-15 0)
(2.58748e-15 6.79595e-15 0)
(3.47342e-15 6.54261e-15 0)
(4.61306e-15 5.73369e-15 0)
(4.60188e-15 5.82758e-15 0)
(3.66811e-15 6.57734e-15 0)
(3.51013e-15 7.44107e-15 0)
(4.08404e-15 8.33452e-15 0)
(4.37772e-15 9.31559e-15 0)
(4.69725e-15 1.04985e-14 0)
(4.31923e-15 1.15892e-14 0)
(2.44336e-15 1.16578e-14 0)
(1.58472e-15 1.1729e-14 0)
(2.04053e-15 1.17299e-14 0)
(3.14178e-15 1.12325e-14 0)
(4.35352e-15 1.10878e-14 0)
(4.05515e-15 1.16539e-14 0)
(2.79972e-15 1.19257e-14 0)
(2.04123e-15 1.15674e-14 0)
(1.29266e-15 1.06176e-14 0)
(1.1115e-15 9.62785e-15 0)
(1.24949e-15 8.93784e-15 0)
(1.12576e-15 8.67684e-15 0)
(1.29216e-16 8.67552e-15 0)
(-1.44002e-15 8.83403e-15 0)
(-2.69712e-15 8.36576e-15 0)
(-3.59376e-15 8.03678e-15 0)
(-3.6172e-15 7.18776e-15 0)
(-2.93694e-15 6.3895e-15 0)
(-2.52104e-15 5.94715e-15 0)
(-3.16321e-15 6.13151e-15 0)
(-4.13548e-15 6.58535e-15 0)
(-4.64719e-15 6.38688e-15 0)
(-4.00088e-15 6.11585e-15 0)
(-2.81642e-15 6.25839e-15 0)
(-2.45482e-15 6.38464e-15 0)
(-2.88963e-15 5.62428e-15 0)
(-3.42131e-15 5.63225e-15 0)
(-4.01328e-15 5.24816e-15 0)
(-4.34061e-15 4.48097e-15 0)
(-3.29636e-15 3.46378e-15 0)
(-1.54157e-15 2.22749e-15 0)
(-7.17896e-16 1.25627e-15 0)
(-7.88671e-16 5.55378e-16 0)
(-1.6995e-16 1.25719e-16 0)
(-1.4433e-15 -8.69342e-16 0)
(-4.70254e-15 -2.62298e-15 0)
(-7.67683e-15 -3.74102e-15 0)
(-1.03157e-14 -4.21788e-15 0)
(-1.34768e-14 -4.77531e-15 0)
(-1.75581e-14 -5.1615e-15 0)
(-2.18334e-14 -6.00412e-15 0)
(-2.51184e-14 -5.59484e-15 0)
(-2.86088e-14 -5.25244e-15 0)
(-3.20087e-14 -5.14594e-15 0)
(-3.37424e-14 -4.46092e-15 0)
(-3.39199e-14 -3.52006e-15 0)
(-3.44356e-14 -1.74243e-15 0)
(-3.5262e-14 -8.21998e-16 0)
(-3.5151e-14 4.2011e-16 0)
(-3.50058e-14 1.61928e-15 0)
(-3.46448e-14 2.48151e-15 0)
(-3.45929e-14 1.98513e-15 0)
(-3.46138e-14 1.0989e-15 0)
(-3.31866e-14 6.60263e-16 0)
(-3.0862e-14 1.01373e-15 0)
(-2.82121e-14 1.03005e-15 0)
(-2.56657e-14 1.34489e-15 0)
(-2.24796e-14 2.13699e-15 0)
(-1.86056e-14 1.85361e-15 0)
(-1.68568e-14 1.38261e-15 0)
(-1.67395e-14 1.83481e-15 0)
(-1.63066e-14 3.03817e-15 0)
(-1.50183e-14 4.60012e-15 0)
(-1.35462e-14 5.77267e-15 0)
(-1.14874e-14 6.34804e-15 0)
(-7.73051e-15 6.67993e-15 0)
(-3.66531e-15 6.81673e-15 0)
(-1.38372e-15 5.75985e-15 0)
(-6.76153e-16 4.61038e-15 0)
(-5.73968e-17 4.12911e-15 0)
(-4.8176e-16 3.72588e-15 0)
(-1.55456e-15 3.20367e-15 0)
(-1.76747e-15 2.16136e-15 0)
(-6.11586e-16 1.32202e-15 0)
(6.61611e-16 7.05281e-16 0)
(1.09406e-15 4.39961e-16 0)
(1.56462e-15 2.36321e-16 0)
(1.90496e-15 3.89969e-16 0)
(1.90848e-15 5.31616e-16 0)
(1.50136e-15 8.71589e-16 0)
(1.46208e-15 1.0054e-15 0)
(3.08708e-15 1.57916e-15 0)
(4.51482e-15 3.13819e-15 0)
(3.52296e-15 4.48486e-15 0)
(1.78389e-15 4.60721e-15 0)
(1.24105e-15 5.1512e-15 0)
(1.72132e-15 5.68044e-15 0)
(2.01754e-15 6.07383e-15 0)
(1.80764e-15 6.26531e-15 0)
(2.36188e-15 6.49007e-15 0)
(3.14472e-15 7.4999e-15 0)
(3.56699e-15 7.51128e-15 0)
(4.81338e-15 7.17736e-15 0)
(5.35955e-15 6.70247e-15 0)
(4.72776e-15 7.22474e-15 0)
(4.56247e-15 7.87788e-15 0)
(4.90642e-15 9.17422e-15 0)
(5.41814e-15 1.03307e-14 0)
(5.86909e-15 1.18753e-14 0)
(4.92133e-15 1.22176e-14 0)
(2.96959e-15 1.21125e-14 0)
(2.26246e-15 1.2453e-14 0)
(2.48793e-15 1.27435e-14 0)
(3.54858e-15 1.26774e-14 0)
(5.17389e-15 1.31022e-14 0)
(4.94316e-15 1.35957e-14 0)
(3.02612e-15 1.3793e-14 0)
(1.65789e-15 1.27663e-14 0)
(8.37679e-16 1.15092e-14 0)
(1.01333e-15 1.08886e-14 0)
(1.39967e-15 1.07371e-14 0)
(1.12926e-15 1.06304e-14 0)
(-6.18764e-18 1.03201e-14 0)
(-1.79077e-15 1.02064e-14 0)
(-3.01351e-15 9.54786e-15 0)
(-3.97562e-15 9.41688e-15 0)
(-4.25881e-15 8.76841e-15 0)
(-3.63589e-15 8.24567e-15 0)
(-3.11691e-15 7.41107e-15 0)
(-3.48372e-15 7.27445e-15 0)
(-4.40217e-15 7.43787e-15 0)
(-5.14157e-15 7.67678e-15 0)
(-4.58739e-15 7.32191e-15 0)
(-3.25853e-15 6.96609e-15 0)
(-3.18254e-15 6.70773e-15 0)
(-3.45779e-15 6.16997e-15 0)
(-3.7965e-15 6.00005e-15 0)
(-4.76629e-15 5.27897e-15 0)
(-5.22387e-15 4.28419e-15 0)
(-4.17386e-15 3.18117e-15 0)
(-2.35603e-15 2.02289e-15 0)
(-1.27519e-15 9.55122e-16 0)
(-9.61338e-16 2.99066e-16 0)
(-2.14291e-16 1.23439e-16 0)
(-1.697e-15 -8.8598e-16 0)
(-5.2861e-15 -2.23746e-15 0)
(-8.51098e-15 -3.74421e-15 0)
(-1.14942e-14 -5.2551e-15 0)
(-1.49505e-14 -5.76159e-15 0)
(-1.95561e-14 -5.63036e-15 0)
(-2.40607e-14 -5.79162e-15 0)
(-2.74423e-14 -5.82614e-15 0)
(-3.13238e-14 -5.79943e-15 0)
(-3.47712e-14 -5.362e-15 0)
(-3.6551e-14 -4.28291e-15 0)
(-3.66608e-14 -3.4354e-15 0)
(-3.7248e-14 -2.35911e-15 0)
(-3.82516e-14 -1.00104e-15 0)
(-3.82974e-14 5.84206e-16 0)
(-3.84127e-14 1.73725e-15 0)
(-3.85215e-14 2.33116e-15 0)
(-3.88854e-14 2.01948e-15 0)
(-3.84632e-14 1.8817e-15 0)
(-3.62469e-14 2.14215e-15 0)
(-3.3855e-14 2.42072e-15 0)
(-3.1665e-14 2.05307e-15 0)
(-2.88797e-14 1.63381e-15 0)
(-2.54371e-14 2.3433e-15 0)
(-2.16824e-14 2.34492e-15 0)
(-1.94468e-14 1.14576e-15 0)
(-1.85836e-14 1.51002e-15 0)
(-1.7604e-14 2.47048e-15 0)
(-1.57884e-14 3.81713e-15 0)
(-1.41096e-14 5.06683e-15 0)
(-1.20759e-14 6.46087e-15 0)
(-8.38372e-15 7.54353e-15 0)
(-4.97238e-15 7.4934e-15 0)
(-3.10625e-15 5.90054e-15 0)
(-1.73718e-15 4.73966e-15 0)
(-7.71403e-16 4.12423e-15 0)
(-1.25093e-15 3.14833e-15 0)
(-2.30644e-15 2.60134e-15 0)
(-2.28002e-15 1.86059e-15 0)
(-8.55057e-16 1.24413e-15 0)
(4.93062e-16 7.53432e-16 0)
(9.03573e-16 4.86523e-16 0)
(1.46908e-15 2.32436e-16 0)
(2.17599e-15 -1.06064e-17 0)
(2.28312e-15 2.81343e-16 0)
(1.86215e-15 1.05564e-15 0)
(1.96838e-15 2.00328e-15 0)
(3.98392e-15 3.14385e-15 0)
(5.49059e-15 3.68722e-15 0)
(3.98089e-15 4.18779e-15 0)
(2.1139e-15 4.71536e-15 0)
(1.84302e-15 5.52099e-15 0)
(2.17801e-15 6.19242e-15 0)
(2.24345e-15 6.01564e-15 0)
(2.15736e-15 6.29034e-15 0)
(3.22616e-15 7.14648e-15 0)
(3.97646e-15 8.13671e-15 0)
(3.9723e-15 8.37069e-15 0)
(4.8071e-15 8.39292e-15 0)
(5.42263e-15 7.80383e-15 0)
(5.27113e-15 7.87636e-15 0)
(5.62002e-15 8.338e-15 0)
(6.52213e-15 9.69031e-15 0)
(6.99879e-15 1.11462e-14 0)
(6.75891e-15 1.23329e-14 0)
(5.22767e-15 1.25814e-14 0)
(3.41563e-15 1.27988e-14 0)
(2.90934e-15 1.29518e-14 0)
(3.11419e-15 1.33752e-14 0)
(4.3385e-15 1.39213e-14 0)
(5.95676e-15 1.48748e-14 0)
(5.45976e-15 1.509e-14 0)
(3.0391e-15 1.50126e-14 0)
(1.15343e-15 1.38061e-14 0)
(6.25308e-16 1.25506e-14 0)
(1.14238e-15 1.22542e-14 0)
(1.50033e-15 1.21583e-14 0)
(1.07103e-15 1.20507e-14 0)
(-1.20223e-16 1.14987e-14 0)
(-2.10107e-15 1.14896e-14 0)
(-3.47623e-15 1.11741e-14 0)
(-4.43517e-15 1.07338e-14 0)
(-4.81134e-15 1.02291e-14 0)
(-4.35474e-15 9.776e-15 0)
(-3.77033e-15 9.24248e-15 0)
(-3.80123e-15 8.5342e-15 0)
(-4.59182e-15 8.20135e-15 0)
(-5.52471e-15 8.30418e-15 0)
(-5.29724e-15 8.22166e-15 0)
(-3.98084e-15 7.65385e-15 0)
(-3.6722e-15 6.94056e-15 0)
(-3.95573e-15 6.6183e-15 0)
(-4.53015e-15 5.81701e-15 0)
(-5.62098e-15 4.96907e-15 0)
(-6.10051e-15 4.14116e-15 0)
(-5.03454e-15 3.12659e-15 0)
(-3.11683e-15 1.63853e-15 0)
(-1.8113e-15 5.42981e-16 0)
(-1.15185e-15 -4.55623e-17 0)
(-1.98736e-16 -1.19654e-17 0)
(-1.78165e-15 -6.16279e-16 0)
(-6.01101e-15 -2.09288e-15 0)
(-1.01054e-14 -3.71753e-15 0)
(-1.29669e-14 -5.26342e-15 0)
(-1.58564e-14 -6.25619e-15 0)
(-2.05947e-14 -6.37259e-15 0)
(-2.58616e-14 -5.9753e-15 0)
(-2.98133e-14 -5.90185e-15 0)
(-3.36741e-14 -5.95492e-15 0)
(-3.69178e-14 -5.30123e-15 0)
(-3.88686e-14 -4.41429e-15 0)
(-3.94721e-14 -3.56843e-15 0)
(-3.99382e-14 -2.60578e-15 0)
(-4.06072e-14 -9.45912e-16 0)
(-4.07466e-14 6.717e-16 0)
(-4.1315e-14 1.76952e-15 0)
(-4.19176e-14 2.07806e-15 0)
(-4.22197e-14 1.99466e-15 0)
(-4.15898e-14 3.01865e-15 0)
(-3.95954e-14 3.52403e-15 0)
(-3.74478e-14 2.81456e-15 0)
(-3.5006e-14 1.7519e-15 0)
(-3.13453e-14 1.39833e-15 0)
(-2.75134e-14 1.99494e-15 0)
(-2.46966e-14 2.28492e-15 0)
(-2.23252e-14 1.34469e-15 0)
(-2.02446e-14 1.72929e-15 0)
(-1.8679e-14 2.84709e-15 0)
(-1.67214e-14 4.01719e-15 0)
(-1.47149e-14 5.15042e-15 0)
(-1.22562e-14 6.22111e-15 0)
(-9.0478e-15 7.31338e-15 0)
(-6.47974e-15 7.08306e-15 0)
(-4.61326e-15 5.75209e-15 0)
(-2.86401e-15 4.90172e-15 0)
(-1.85758e-15 3.80749e-15 0)
(-2.03157e-15 2.90234e-15 0)
(-2.76188e-15 2.35301e-15 0)
(-2.87577e-15 1.93086e-15 0)
(-1.40861e-15 1.09101e-15 0)
(2.16063e-16 8.01266e-17 0)
(8.7761e-16 -3.70182e-16 0)
(1.38412e-15 -1.05657e-16 0)
(2.11824e-15 -1.87614e-16 0)
(2.85046e-15 4.51437e-16 0)
(2.90686e-15 1.56472e-15 0)
(3.12463e-15 2.939e-15 0)
(4.44766e-15 4.34105e-15 0)
(5.4085e-15 4.01983e-15 0)
(4.41686e-15 3.74112e-15 0)
(2.9217e-15 4.82603e-15 0)
(2.51458e-15 5.66731e-15 0)
(2.31772e-15 6.25429e-15 0)
(2.38615e-15 6.21143e-15 0)
(3.01751e-15 6.66484e-15 0)
(4.19126e-15 7.68162e-15 0)
(4.60914e-15 8.57616e-15 0)
(4.39513e-15 9.01728e-15 0)
(5.08077e-15 8.87652e-15 0)
(5.67184e-15 8.67243e-15 0)
(5.79154e-15 9.07449e-15 0)
(6.53542e-15 1.0036e-14 0)
(7.5893e-15 1.067e-14 0)
(7.98258e-15 1.14426e-14 0)
(7.57363e-15 1.2051e-14 0)
(5.95617e-15 1.23052e-14 0)
(3.98225e-15 1.27193e-14 0)
(3.47153e-15 1.29648e-14 0)
(4.02e-15 1.35971e-14 0)
(5.48654e-15 1.5233e-14 0)
(6.86299e-15 1.6364e-14 0)
(5.84788e-15 1.66164e-14 0)
(2.84286e-15 1.6146e-14 0)
(5.51466e-16 1.46603e-14 0)
(3.24267e-16 1.33475e-14 0)
(1.24974e-15 1.29575e-14 0)
(1.64388e-15 1.27074e-14 0)
(8.88343e-16 1.25726e-14 0)
(-3.24405e-16 1.26493e-14 0)
(-2.06447e-15 1.27044e-14 0)
(-3.70357e-15 1.27859e-14 0)
(-4.8811e-15 1.23102e-14 0)
(-5.24345e-15 1.18534e-14 0)
(-4.71951e-15 1.13448e-14 0)
(-4.47684e-15 1.08291e-14 0)
(-4.78323e-15 9.64792e-15 0)
(-5.17059e-15 9.00245e-15 0)
(-5.75357e-15 8.71974e-15 0)
(-5.6789e-15 8.84915e-15 0)
(-4.76715e-15 8.4091e-15 0)
(-4.44366e-15 7.45831e-15 0)
(-4.70563e-15 6.77916e-15 0)
(-5.34372e-15 5.75213e-15 0)
(-6.23399e-15 4.77636e-15 0)
(-6.70266e-15 3.79004e-15 0)
(-6.02144e-15 2.94278e-15 0)
(-4.15618e-15 1.3593e-15 0)
(-2.33744e-15 2.86171e-16 0)
(-1.17663e-15 -3.136e-16 0)
(-7.0996e-17 1.8501e-18 0)
(-2.13857e-15 -7.32411e-16 0)
(-6.6953e-15 -2.38657e-15 0)
(-1.08252e-14 -3.48008e-15 0)
(-1.4215e-14 -4.3505e-15 0)
(-1.74794e-14 -5.62906e-15 0)
(-2.1897e-14 -6.79137e-15 0)
(-2.70555e-14 -6.84671e-15 0)
(-3.15032e-14 -6.62911e-15 0)
(-3.5618e-14 -6.33057e-15 0)
(-3.89488e-14 -5.34586e-15 0)
(-4.10736e-14 -4.57097e-15 0)
(-4.15253e-14 -3.45551e-15 0)
(-4.182e-14 -2.27226e-15 0)
(-4.25511e-14 -7.81647e-16 0)
(-4.3119e-14 6.38829e-16 0)
(-4.42093e-14 1.32182e-15 0)
(-4.51149e-14 1.45713e-15 0)
(-4.48155e-14 1.99147e-15 0)
(-4.37752e-14 3.14395e-15 0)
(-4.26137e-14 3.70951e-15 0)
(-4.11279e-14 3.06878e-15 0)
(-3.84073e-14 2.2339e-15 0)
(-3.41145e-14 1.63661e-15 0)
(-2.98958e-14 1.19412e-15 0)
(-2.69549e-14 1.04183e-15 0)
(-2.43198e-14 1.30111e-15 0)
(-2.1594e-14 2.05099e-15 0)
(-1.966e-14 3.29706e-15 0)
(-1.7424e-14 4.54119e-15 0)
(-1.53816e-14 5.63939e-15 0)
(-1.29284e-14 6.03312e-15 0)
(-9.75246e-15 6.48841e-15 0)
(-7.71542e-15 6.40869e-15 0)
(-5.94845e-15 5.57336e-15 0)
(-4.10716e-15 4.77669e-15 0)
(-2.93896e-15 3.66025e-15 0)
(-2.81941e-15 2.69442e-15 0)
(-3.35312e-15 2.38557e-15 0)
(-3.39804e-15 2.08471e-15 0)
(-2.28816e-15 9.44803e-16 0)
(-5.64377e-16 -3.58245e-16 0)
(8.4214e-16 -8.2306e-16 0)
(1.70818e-15 -2.80035e-16 0)
(2.69897e-15 4.42596e-16 0)
(3.682e-15 1.2619e-15 0)
(3.79595e-15 2.03516e-15 0)
(4.11133e-15 3.16982e-15 0)
(4.88197e-15 4.319e-15 0)
(5.16087e-15 4.35211e-15 0)
(4.70008e-15 4.03465e-15 0)
(3.67911e-15 4.90465e-15 0)
(3.0739e-15 5.78135e-15 0)
(2.8025e-15 6.26494e-15 0)
(2.82679e-15 6.90382e-15 0)
(3.58878e-15 7.37286e-15 0)
(5.05756e-15 8.22456e-15 0)
(5.45802e-15 9.01858e-15 0)
(4.75328e-15 9.47021e-15 0)
(5.15278e-15 9.30323e-15 0)
(6.18205e-15 9.08684e-15 0)
(6.88272e-15 9.95378e-15 0)
(7.38916e-15 1.10329e-14 0)
(8.14453e-15 1.15015e-14 0)
(8.60866e-15 1.18802e-14 0)
(8.00902e-15 1.20803e-14 0)
(6.36669e-15 1.20632e-14 0)
(4.58369e-15 1.23514e-14 0)
(4.2704e-15 1.30702e-14 0)
(5.52139e-15 1.41579e-14 0)
(7.12236e-15 1.63808e-14 0)
(7.71652e-15 1.76207e-14 0)
(6.01833e-15 1.71999e-14 0)
(2.28079e-15 1.63599e-14 0)
(-2.77721e-16 1.52264e-14 0)
(-7.04154e-17 1.41339e-14 0)
(1.13799e-15 1.33995e-14 0)
(1.57447e-15 1.30485e-14 0)
(1.26445e-15 1.33952e-14 0)
(9.20083e-17 1.37849e-14 0)
(-1.99367e-15 1.37192e-14 0)
(-3.84877e-15 1.39871e-14 0)
(-5.27747e-15 1.36659e-14 0)
(-5.74463e-15 1.32292e-14 0)
(-5.39853e-15 1.24041e-14 0)
(-5.3774e-15 1.14812e-14 0)
(-5.56642e-15 1.06213e-14 0)
(-5.74107e-15 1.0152e-14 0)
(-6.12136e-15 9.87974e-15 0)
(-5.9964e-15 9.64653e-15 0)
(-5.43493e-15 8.98667e-15 0)
(-5.24401e-15 8.09526e-15 0)
(-5.51287e-15 7.23162e-15 0)
(-6.22465e-15 6.09571e-15 0)
(-7.1952e-15 4.85687e-15 0)
(-7.48219e-15 3.80822e-15 0)
(-6.75598e-15 3.08878e-15 0)
(-4.91615e-15 1.45749e-15 0)
(-2.83098e-15 1.70079e-16 0)
(-1.16506e-15 -4.02715e-16 0)
(5.59257e-17 1.73817e-16 0)
(-2.2811e-15 -8.43398e-16 0)
(-6.98767e-15 -2.25038e-15 0)
(-1.12963e-14 -3.35907e-15 0)
(-1.50938e-14 -4.20063e-15 0)
(-1.89879e-14 -5.21858e-15 0)
(-2.35923e-14 -6.67188e-15 0)
(-2.85715e-14 -7.03294e-15 0)
(-3.2937e-14 -6.97182e-15 0)
(-3.68416e-14 -6.77812e-15 0)
(-4.02682e-14 -5.693e-15 0)
(-4.25771e-14 -4.23885e-15 0)
(-4.32532e-14 -2.90762e-15 0)
(-4.37328e-14 -2.24645e-15 0)
(-4.44303e-14 -1.44203e-15 0)
(-4.52797e-14 -5.28428e-16 0)
(-4.68263e-14 2.38128e-16 0)
(-4.74983e-14 9.87946e-16 0)
(-4.69523e-14 2.04827e-15 0)
(-4.61524e-14 2.51601e-15 0)