/*--------------------------------*- C++ -*----------------------------------*\
| =========                 |                                                 |
| \\      /  F ield         | OpenFOAM: The Open Source CFD Toolbox           |
|  \\    /   O peration     | Version:  v2012                                 |
|   \\  /    A nd           | Website:  www.openfoam.com                      |
|    \\/     M anipulation  |                                                 |
\*---------------------------------------------------------------------------*/
FoamFile
{
    version     2.0;
    format      ascii;
    class       volVectorField;
    location    "70";
    object      Usup;
}
// * * * * * * * * * * * * * * * * * * * * * * * * * * * * * * * * * * * * * //

dimensions      [0 1 -1 0 0 0 0];


internalField   nonuniform List<vector> 
4000
(
(-1.61394e-16 -1.70807e-16 0)
(-5.33235e-16 1.38873e-16 0)
(-1.08101e-15 1.1587e-16 0)
(-1.82643e-15 2.46162e-16 0)
(-2.33683e-15 5.39641e-16 0)
(-3.15663e-15 6.956e-17 0)
(-4.38365e-15 -3.55446e-16 0)
(-5.51656e-15 -2.22928e-16 0)
(-6.3909e-15 3.13554e-16 0)
(-6.67957e-15 6.6023e-16 0)
(-6.5833e-15 3.41892e-16 0)
(-6.97838e-15 2.27895e-16 0)
(-7.89779e-15 2.86212e-16 0)
(-7.8985e-15 7.85808e-16 0)
(-7.18264e-15 1.0405e-15 0)
(-7.23366e-15 5.76303e-16 0)
(-8.0487e-15 9.93223e-17 0)
(-8.62704e-15 2.42915e-16 0)
(-8.76577e-15 1.49216e-16 0)
(-8.60353e-15 3.09438e-16 0)
(-8.51919e-15 1.13564e-16 0)
(-8.52118e-15 -1.12564e-16 0)
(-8.56413e-15 -1.42494e-16 0)
(-8.82264e-15 -2.03156e-16 0)
(-8.7772e-15 2.72939e-16 0)
(-7.76463e-15 8.84755e-16 0)
(-7.16056e-15 8.9339e-16 0)
(-7.66975e-15 1.0613e-15 0)
(-8.02076e-15 9.30676e-16 0)
(-8.35026e-15 8.77511e-16 0)
(-8.13208e-15 1.3796e-15 0)
(-7.40859e-15 1.58509e-15 0)
(-7.21828e-15 1.34759e-15 0)
(-6.9548e-15 1.29202e-15 0)
(-7.00786e-15 1.1694e-15 0)
(-7.44403e-15 1.27337e-15 0)
(-7.55759e-15 1.36602e-15 0)
(-7.19525e-15 1.77693e-15 0)
(-6.12187e-15 1.88827e-15 0)
(-5.42649e-15 1.65466e-15 0)
(-5.61892e-15 1.34898e-15 0)
(-6.26179e-15 1.0669e-15 0)
(-6.62145e-15 1.22145e-15 0)
(-6.71737e-15 1.26734e-15 0)
(-6.85667e-15 1.59952e-15 0)
(-6.6268e-15 1.74705e-15 0)
(-6.5102e-15 1.58763e-15 0)
(-6.39147e-15 1.47211e-15 0)
(-5.80996e-15 1.49603e-15 0)
(-5.29151e-15 1.39434e-15 0)
(-5.19531e-15 1.35778e-15 0)
(-5.28016e-15 1.47302e-15 0)
(-5.07898e-15 1.6734e-15 0)
(-5.07812e-15 1.76423e-15 0)
(-5.3368e-15 1.57172e-15 0)
(-5.30806e-15 1.54621e-15 0)
(-5.09272e-15 1.39082e-15 0)
(-4.90161e-15 1.41909e-15 0)
(-4.86098e-15 1.51623e-15 0)
(-5.16344e-15 1.33122e-15 0)
(-5.7395e-15 1.16462e-15 0)
(-6.3804e-15 9.81864e-16 0)
(-6.69169e-15 1.14187e-15 0)
(-6.63313e-15 1.18986e-15 0)
(-6.78106e-15 1.17871e-15 0)
(-7.11039e-15 8.70951e-16 0)
(-7.50701e-15 7.15351e-16 0)
(-7.40454e-15 6.85558e-16 0)
(-7.17372e-15 4.00305e-16 0)
(-7.23728e-15 5.37336e-17 0)
(-7.07044e-15 -1.3084e-16 0)
(-7.06489e-15 -1.01379e-16 0)
(-7.48125e-15 -3.19219e-16 0)
(-7.88971e-15 -5.5164e-16 0)
(-8.19378e-15 -7.71255e-16 0)
(-8.28472e-15 -8.97324e-16 0)
(-8.30232e-15 -8.58615e-16 0)
(-8.80467e-15 -8.93769e-16 0)
(-9.46855e-15 -6.50549e-16 0)
(-9.69899e-15 -3.84746e-16 0)
(-1.00337e-14 -4.83825e-16 0)
(-9.9009e-15 -4.22019e-16 0)
(-9.0732e-15 -4.50483e-16 0)
(-8.71092e-15 -9.46863e-16 0)
(-8.8431e-15 -9.66904e-16 0)
(-9.03868e-15 -8.17969e-16 0)
(-8.92354e-15 -3.29663e-16 0)
(-8.23424e-15 -3.84167e-16 0)
(-7.59931e-15 -5.2513e-16 0)
(-7.33164e-15 -5.56436e-16 0)
(-6.97145e-15 -4.20154e-16 0)
(-6.94571e-15 -5.71596e-16 0)
(-7.03316e-15 -4.47379e-16 0)
(-6.4797e-15 -5.39017e-16 0)
(-5.70145e-15 -5.15478e-16 0)
(-5.14572e-15 -2.86315e-16 0)
(-4.28492e-15 -8.88941e-17 0)
(-3.38518e-15 -1.77469e-16 0)
(-2.5223e-15 8.79703e-17 0)
(-1.30214e-15 1.0133e-16 0)
(-3.25875e-16 5.87605e-18 0)
(-1.59502e-15 2.2006e-16 0)
(-3.34828e-15 3.35794e-16 0)
(-5.09495e-15 5.28249e-16 0)
(-7.23606e-15 1.02517e-15 0)
(-1.00874e-14 4.16863e-16 0)
(-1.2732e-14 -3.31739e-16 0)
(-1.49361e-14 -3.40614e-16 0)
(-1.70577e-14 4.12075e-16 0)
(-1.87502e-14 1.40282e-15 0)
(-1.93876e-14 1.29489e-15 0)
(-2.02147e-14 9.54241e-16 0)
(-2.16573e-14 1.12828e-15 0)
(-2.17229e-14 1.99347e-15 0)
(-2.1346e-14 2.50192e-15 0)
(-2.21493e-14 1.66503e-15 0)
(-2.33999e-14 8.01354e-16 0)
(-2.44522e-14 7.0675e-16 0)
(-2.48928e-14 5.91101e-16 0)
(-2.47764e-14 6.6232e-16 0)
(-2.49262e-14 2.27278e-16 0)
(-2.48161e-14 -4.11414e-16 0)
(-2.47965e-14 -2.34135e-16 0)
(-2.48113e-14 1.46866e-16 0)
(-2.40143e-14 1.27718e-15 0)
(-2.23614e-14 2.39214e-15 0)
(-2.14516e-14 2.33785e-15 0)
(-2.23596e-14 2.75098e-15 0)
(-2.32408e-14 2.78409e-15 0)
(-2.33474e-14 3.10185e-15 0)
(-2.26385e-14 4.21677e-15 0)
(-2.17223e-14 4.56184e-15 0)
(-2.13025e-14 4.06675e-15 0)
(-2.06291e-14 4.01772e-15 0)
(-2.05664e-14 3.67226e-15 0)
(-2.11306e-14 4.04236e-15 0)
(-2.09921e-14 4.13279e-15 0)
(-2.00256e-14 5.0286e-15 0)
(-1.82603e-14 5.27496e-15 0)
(-1.7065e-14 4.6413e-15 0)
(-1.73635e-14 4.00643e-15 0)
(-1.82606e-14 3.51435e-15 0)
(-1.88348e-14 3.86813e-15 0)
(-1.90021e-14 4.05457e-15 0)
(-1.91589e-14 4.67159e-15 0)
(-1.90627e-14 4.85145e-15 0)
(-1.88845e-14 4.55914e-15 0)
(-1.82747e-14 4.47013e-15 0)
(-1.69686e-14 4.67998e-15 0)
(-1.58334e-14 4.3998e-15 0)
(-1.5295e-14 4.26164e-15 0)
(-1.51291e-14 4.7626e-15 0)
(-1.47565e-14 5.13975e-15 0)
(-1.50296e-14 4.88094e-15 0)
(-1.55492e-14 4.56225e-15 0)
(-1.54647e-14 4.54107e-15 0)
(-1.50124e-14 4.29618e-15 0)
(-1.44798e-14 4.54394e-15 0)
(-1.46673e-14 4.59328e-15 0)
(-1.56315e-14 4.08476e-15 0)
(-1.69932e-14 3.30981e-15 0)
(-1.8238e-14 2.69321e-15 0)
(-1.89175e-14 3.13886e-15 0)
(-1.91975e-14 3.39183e-15 0)
(-1.99246e-14 3.41699e-15 0)
(-2.08226e-14 2.76006e-15 0)
(-2.14569e-14 2.282e-15 0)
(-2.14729e-14 1.94853e-15 0)
(-2.13372e-14 8.83172e-16 0)
(-2.13496e-14 -4.75067e-17 0)
(-2.08461e-14 -3.86776e-16 0)
(-2.10031e-14 -5.71714e-16 0)
(-2.21329e-14 -1.30418e-15 0)
(-2.31299e-14 -1.72635e-15 0)
(-2.38448e-14 -2.09699e-15 0)
(-2.40559e-14 -2.29492e-15 0)
(-2.43103e-14 -2.5311e-15 0)
(-2.53497e-14 -2.53872e-15 0)
(-2.66022e-14 -1.97379e-15 0)
(-2.75516e-14 -1.30113e-15 0)
(-2.83556e-14 -1.36626e-15 0)
(-2.79513e-14 -1.14291e-15 0)
(-2.67265e-14 -1.78985e-15 0)
(-2.58495e-14 -2.61798e-15 0)
(-2.54378e-14 -2.62713e-15 0)
(-2.52497e-14 -2.14675e-15 0)
(-2.49272e-14 -1.12531e-15 0)
(-2.382e-14 -9.48523e-16 0)
(-2.226e-14 -1.43836e-15 0)
(-2.11532e-14 -1.63367e-15 0)
(-2.02956e-14 -1.62301e-15 0)
(-1.9946e-14 -1.68969e-15 0)
(-1.96551e-14 -1.43263e-15 0)
(-1.8273e-14 -1.40505e-15 0)
(-1.60344e-14 -1.25504e-15 0)
(-1.41246e-14 -9.78778e-16 0)
(-1.19815e-14 -5.63782e-16 0)
(-9.35281e-15 -6.04536e-16 0)
(-6.55477e-15 -8.17892e-18 0)
(-3.19451e-15 -3.29163e-17 0)
(-9.41548e-16 4.58286e-16 0)
(-3.07324e-15 3.83504e-16 0)
(-5.64414e-15 4.6012e-16 0)
(-8.43115e-15 4.0926e-16 0)
(-1.18834e-14 8.0273e-16 0)
(-1.64659e-14 5.19351e-16 0)
(-2.06179e-14 3.96496e-16 0)
(-2.38725e-14 6.41224e-17 0)
(-2.66161e-14 6.23589e-16 0)
(-2.91513e-14 1.68894e-15 0)
(-3.10359e-14 2.02055e-15 0)
(-3.2587e-14 1.46361e-15 0)
(-3.42609e-14 1.86717e-15 0)
(-3.45414e-14 3.00705e-15 0)
(-3.47709e-14 3.58367e-15 0)
(-3.63262e-14 2.96607e-15 0)
(-3.80426e-14 1.87964e-15 0)
(-3.93519e-14 1.18261e-15 0)
(-3.99801e-14 1.23299e-15 0)
(-4.01153e-14 1.13922e-15 0)
(-4.0528e-14 4.63564e-16 0)
(-4.01116e-14 -2.30258e-16 0)
(-3.94851e-14 -2.93886e-16 0)
(-3.91568e-14 6.32491e-16 0)
(-3.80759e-14 2.11493e-15 0)
(-3.64241e-14 3.36528e-15 0)
(-3.53359e-14 3.76889e-15 0)
(-3.61155e-14 4.26785e-15 0)
(-3.70434e-14 4.91138e-15 0)
(-3.68715e-14 5.97731e-15 0)
(-3.611e-14 7.08318e-15 0)
(-3.54017e-14 7.19632e-15 0)
(-3.4736e-14 6.64032e-15 0)
(-3.37885e-14 6.51968e-15 0)
(-3.34543e-14 6.36544e-15 0)
(-3.38798e-14 6.92652e-15 0)
(-3.34366e-14 7.06901e-15 0)
(-3.19189e-14 7.69661e-15 0)
(-3.01142e-14 7.9487e-15 0)
(-2.87581e-14 7.39231e-15 0)
(-2.88645e-14 7.01235e-15 0)
(-2.9629e-14 6.69128e-15 0)
(-3.02007e-14 6.60186e-15 0)
(-3.04394e-14 6.81435e-15 0)
(-3.06954e-14 7.10621e-15 0)
(-3.07522e-14 7.42566e-15 0)
(-3.03413e-14 7.57176e-15 0)
(-2.91611e-14 7.74045e-15 0)
(-2.75171e-14 7.87871e-15 0)
(-2.61324e-14 7.66535e-15 0)
(-2.48989e-14 7.59946e-15 0)
(-2.43782e-14 8.34373e-15 0)
(-2.44146e-14 8.65704e-15 0)
(-2.48739e-14 7.99184e-15 0)
(-2.51796e-14 7.78121e-15 0)
(-2.50498e-14 7.5909e-15 0)
(-2.43615e-14 7.47982e-15 0)
(-2.37684e-14 7.67569e-15 0)
(-2.44873e-14 7.36043e-15 0)
(-2.62363e-14 6.38268e-15 0)
(-2.82434e-14 5.45994e-15 0)
(-2.94335e-14 4.69693e-15 0)
(-3.01068e-14 5.06609e-15 0)
(-3.08801e-14 5.12065e-15 0)
(-3.23323e-14 4.94525e-15 0)
(-3.38498e-14 4.53857e-15 0)
(-3.4757e-14 3.98095e-15 0)
(-3.5221e-14 3.18187e-15 0)
(-3.53037e-14 1.47865e-15 0)
(-3.49069e-14 2.69944e-16 0)
(-3.41925e-14 -4.99622e-16 0)
(-3.48017e-14 -1.27025e-15 0)
(-3.62935e-14 -2.24131e-15 0)
(-3.74698e-14 -2.80308e-15 0)
(-3.85115e-14 -3.32806e-15 0)
(-3.91588e-14 -3.79163e-15 0)
(-3.97013e-14 -4.234e-15 0)
(-4.08133e-14 -4.08005e-15 0)
(-4.23307e-14 -3.30324e-15 0)
(-4.38599e-14 -2.65829e-15 0)
(-4.5025e-14 -2.60871e-15 0)
(-4.49533e-14 -2.31215e-15 0)
(-4.36519e-14 -3.0048e-15 0)
(-4.19437e-14 -3.60578e-15 0)
(-4.08466e-14 -3.79697e-15 0)
(-4.00835e-14 -3.23651e-15 0)
(-3.94465e-14 -2.47023e-15 0)
(-3.83371e-14 -1.82239e-15 0)
(-3.63591e-14 -2.31768e-15 0)
(-3.44734e-14 -2.64258e-15 0)
(-3.28722e-14 -2.76974e-15 0)
(-3.1856e-14 -2.65902e-15 0)
(-3.10024e-14 -2.37901e-15 0)
(-2.87933e-14 -2.13277e-15 0)
(-2.55422e-14 -1.9008e-15 0)
(-2.23804e-14 -1.78762e-15 0)
(-1.88578e-14 -1.35044e-15 0)
(-1.45974e-14 -1.32456e-15 0)
(-1.01072e-14 -1.03543e-15 0)
(-4.63033e-15 -6.41411e-16 0)
(-1.55289e-15 5.72447e-16 0)
(-4.72743e-15 8.1746e-16 0)
(-8.23046e-15 4.62475e-16 0)
(-1.18164e-14 2.50347e-16 0)
(-1.63744e-14 2.48559e-16 0)
(-2.21426e-14 5.4131e-16 0)
(-2.75964e-14 1.05189e-15 0)
(-3.19662e-14 7.05121e-16 0)
(-3.53146e-14 1.08078e-15 0)
(-3.8845e-14 1.51897e-15 0)
(-4.19503e-14 2.13768e-15 0)
(-4.39972e-14 2.15726e-15 0)
(-4.54144e-14 2.36099e-15 0)
(-4.60402e-14 3.52129e-15 0)
(-4.72617e-14 4.32111e-15 0)
(-4.98809e-14 4.21985e-15 0)
(-5.21761e-14 3.46272e-15 0)
(-5.33141e-14 2.29131e-15 0)
(-5.38771e-14 1.82443e-15 0)
(-5.4524e-14 1.51105e-15 0)
(-5.52057e-14 9.97857e-16 0)
(-5.46998e-14 6.65079e-16 0)
(-5.35127e-14 2.17383e-17 0)
(-5.23209e-14 9.37193e-16 0)
(-5.08609e-14 2.62261e-15 0)
(-4.91656e-14 4.36708e-15 0)
(-4.82023e-14 5.26493e-15 0)
(-4.89171e-14 5.77521e-15 0)
(-4.95333e-14 7.05117e-15 0)
(-4.93135e-14 8.47776e-15 0)
(-4.89027e-14 9.63813e-15 0)
(-4.84874e-14 9.58091e-15 0)
(-4.76261e-14 9.11216e-15 0)
(-4.61974e-14 8.92581e-15 0)
(-4.54252e-14 9.14031e-15 0)
(-4.57017e-14 9.37972e-15 0)
(-4.51843e-14 9.53459e-15 0)
(-4.3341e-14 9.90356e-15 0)
(-4.13102e-14 1.03417e-14 0)
(-3.97384e-14 1.00119e-14 0)
(-3.9713e-14 9.89235e-15 0)
(-4.07385e-14 9.86804e-15 0)
(-4.12955e-14 9.51105e-15 0)
(-4.13802e-14 9.49485e-15 0)
(-4.14568e-14 9.5561e-15 0)
(-4.11838e-14 1.01472e-14 0)
(-4.06697e-14 1.04993e-14 0)
(-3.94427e-14 1.07714e-14 0)
(-3.75691e-14 1.08302e-14 0)
(-3.57789e-14 1.10583e-14 0)
(-3.40063e-14 1.12764e-14 0)
(-3.3248e-14 1.17896e-14 0)
(-3.36646e-14 1.18452e-14 0)
(-3.42346e-14 1.15715e-14 0)
(-3.44488e-14 1.16709e-14 0)
(-3.42618e-14 1.10485e-14 0)
(-3.34311e-14 1.0819e-14 0)
(-3.30535e-14 1.03239e-14 0)
(-3.43868e-14 9.85876e-15 0)
(-3.64738e-14 8.76307e-15 0)
(-3.86665e-14 7.81185e-15 0)
(-4.00211e-14 7.14588e-15 0)
(-4.09596e-14 7.0018e-15 0)
(-4.22704e-14 6.4277e-15 0)
(-4.39555e-14 5.7961e-15 0)
(-4.57863e-14 5.98933e-15 0)
(-4.72648e-14 5.56103e-15 0)
(-4.83834e-14 4.1745e-15 0)
(-4.86485e-14 2.42191e-15 0)
(-4.81185e-14 1.14333e-15 0)
(-4.74735e-14 -5.5117e-16 0)
(-4.81673e-14 -1.95509e-15 0)
(-4.98314e-14 -3.00336e-15 0)
(-5.13069e-14 -4.00069e-15 0)
(-5.27199e-14 -4.87408e-15 0)
(-5.355e-14 -5.45931e-15 0)
(-5.40579e-14 -5.73589e-15 0)
(-5.5111e-14 -5.58827e-15 0)
(-5.6936e-14 -4.64331e-15 0)
(-5.90642e-14 -4.33304e-15 0)
(-6.04231e-14 -4.09781e-15 0)
(-6.03235e-14 -3.71511e-15 0)
(-5.90519e-14 -3.76371e-15 0)
(-5.71559e-14 -4.37624e-15 0)
(-5.54548e-14 -4.74509e-15 0)
(-5.41095e-14 -4.41783e-15 0)
(-5.29507e-14 -3.81757e-15 0)
(-5.15886e-14 -2.77987e-15 0)
(-4.94442e-14 -2.97547e-15 0)
(-4.68796e-14 -3.36425e-15 0)
(-4.45885e-14 -3.52707e-15 0)
(-4.29213e-14 -3.43309e-15 0)
(-4.13795e-14 -3.36604e-15 0)
(-3.84075e-14 -3.01007e-15 0)
(-3.42329e-14 -2.92803e-15 0)
(-2.98833e-14 -2.71777e-15 0)
(-2.51704e-14 -2.25784e-15 0)
(-1.97044e-14 -2.40581e-15 0)
(-1.33385e-14 -2.36104e-15 0)
(-5.40732e-15 -1.16267e-15 0)
(-2.01012e-15 3.08555e-16 0)
(-6.37968e-15 8.04078e-16 0)
(-1.09087e-14 6.04352e-16 0)
(-1.53297e-14 4.6803e-16 0)
(-2.04858e-14 3.70376e-16 0)
(-2.6949e-14 9.13773e-16 0)
(-3.39365e-14 1.24601e-15 0)
(-3.95661e-14 1.05721e-15 0)
(-4.37294e-14 1.02363e-15 0)
(-4.77109e-14 9.84278e-16 0)
(-5.1239e-14 1.85812e-15 0)
(-5.43031e-14 2.72192e-15 0)
(-5.62039e-14 3.5031e-15 0)
(-5.68122e-14 4.32772e-15 0)
(-5.85264e-14 4.64329e-15 0)
(-6.18601e-14 4.65218e-15 0)
(-6.51357e-14 4.45046e-15 0)
(-6.69513e-14 3.88983e-15 0)
(-6.7459e-14 2.88749e-15 0)
(-6.79171e-14 1.80088e-15 0)
(-6.84954e-14 1.55903e-15 0)
(-6.82477e-14 1.36782e-15 0)
(-6.67052e-14 1.14167e-15 0)
(-6.45522e-14 2.02329e-15 0)
(-6.25384e-14 3.53302e-15 0)
(-6.09582e-14 5.50333e-15 0)
(-6.03713e-14 6.23006e-15 0)
(-6.07319e-14 6.83843e-15 0)
(-6.09493e-14 8.6286e-15 0)
(-6.07453e-14 1.02341e-14 0)
(-6.07407e-14 1.17368e-14 0)
(-6.07262e-14 1.17242e-14 0)
(-5.96688e-14 1.15718e-14 0)
(-5.78201e-14 1.13507e-14 0)
(-5.68966e-14 1.15938e-14 0)
(-5.71329e-14 1.14185e-14 0)
(-5.62156e-14 1.15399e-14 0)
(-5.387e-14 1.19148e-14 0)
(-5.18197e-14 1.22704e-14 0)
(-5.02856e-14 1.23431e-14 0)
(-4.99547e-14 1.24892e-14 0)
(-5.09778e-14 1.23123e-14 0)
(-5.16966e-14 1.22413e-14 0)
(-5.16986e-14 1.23412e-14 0)
(-5.1438e-14 1.26529e-14 0)
(-5.10302e-14 1.29677e-14 0)
(-5.04597e-14 1.29756e-14 0)
(-4.89681e-14 1.35493e-14 0)
(-4.67175e-14 1.38961e-14 0)
(-4.46023e-14 1.43177e-14 0)
(-4.26936e-14 1.47199e-14 0)
(-4.19731e-14 1.48896e-14 0)
(-4.23648e-14 1.50643e-14 0)
(-4.26811e-14 1.51139e-14 0)
(-4.32198e-14 1.53875e-14 0)
(-4.33159e-14 1.48429e-14 0)
(-4.25314e-14 1.423e-14 0)
(-4.22102e-14 1.2992e-14 0)
(-4.3671e-14 1.20713e-14 0)
(-4.63325e-14 1.10952e-14 0)
(-4.87807e-14 1.02485e-14 0)
(-5.01962e-14 9.45463e-15 0)
(-5.15373e-14 8.48665e-15 0)
(-5.3289e-14 7.54786e-15 0)
(-5.47556e-14 6.92771e-15 0)
(-5.66787e-14 6.8696e-15 0)
(-5.92183e-14 5.98225e-15 0)
(-6.0969e-14 4.37989e-15 0)
(-6.11863e-14 3.21752e-15 0)
(-6.09656e-14 2.07033e-15 0)
(-6.06115e-14 -1.61641e-16 0)
(-6.11478e-14 -2.43935e-15 0)
(-6.29129e-14 -3.76284e-15 0)
(-6.46234e-14 -5.20404e-15 0)
(-6.60298e-14 -6.24347e-15 0)
(-6.68783e-14 -6.50974e-15 0)
(-6.75377e-14 -6.8911e-15 0)
(-6.84701e-14 -7.05741e-15 0)
(-7.05504e-14 -6.3569e-15 0)
(-7.30845e-14 -5.95447e-15 0)
(-7.43987e-14 -5.52366e-15 0)
(-7.43801e-14 -5.02661e-15 0)
(-7.33619e-14 -4.85928e-15 0)
(-7.13798e-14 -5.19306e-15 0)
(-6.91138e-14 -5.3147e-15 0)
(-6.70953e-14 -5.07103e-15 0)
(-6.51867e-14 -4.63056e-15 0)
(-6.36701e-14 -3.72485e-15 0)
(-6.16342e-14 -3.71807e-15 0)
(-5.86213e-14 -4.12659e-15 0)
(-5.55732e-14 -4.34155e-15 0)
(-5.32846e-14 -4.3209e-15 0)
(-5.09919e-14 -4.61961e-15 0)
(-4.72203e-14 -4.35876e-15 0)
(-4.22157e-14 -4.36797e-15 0)
(-3.66579e-14 -4.04868e-15 0)
(-3.10081e-14 -3.68112e-15 0)
(-2.44089e-14 -3.36864e-15 0)
(-1.60536e-14 -2.88041e-15 0)
(-5.88908e-15 -1.12965e-15 0)
(-2.34026e-15 1.72975e-16 0)
(-7.564e-15 3.6707e-16 0)
(-1.31248e-14 5.66151e-16 0)
(-1.83994e-14 9.08113e-16 0)
(-2.43614e-14 6.35985e-16 0)
(-3.18317e-14 5.43506e-16 0)
(-3.98877e-14 9.1776e-16 0)
(-4.65128e-14 1.25533e-15 0)
(-5.15414e-14 1.14833e-15 0)
(-5.59392e-14 1.40333e-15 0)
(-5.96897e-14 1.90071e-15 0)
(-6.29554e-14 2.66125e-15 0)
(-6.53958e-14 4.34399e-15 0)
(-6.71595e-14 4.9278e-15 0)
(-6.96343e-14 4.75793e-15 0)
(-7.32742e-14 4.57649e-15 0)
(-7.66504e-14 4.86397e-15 0)
(-7.89796e-14 4.92865e-15 0)
(-8.03905e-14 3.84516e-15 0)
(-8.07815e-14 2.61912e-15 0)
(-8.09847e-14 2.05389e-15 0)
(-8.05553e-14 2.08794e-15 0)
(-7.8582e-14 3.08994e-15 0)
(-7.60114e-14 4.05513e-15 0)
(-7.35142e-14 4.90257e-15 0)
(-7.20612e-14 6.12542e-15 0)
(-7.18041e-14 6.84762e-15 0)
(-7.1559e-14 7.81959e-15 0)
(-7.13164e-14 9.85244e-15 0)
(-7.11343e-14 1.17185e-14 0)
(-7.16217e-14 1.32824e-14 0)
(-7.20351e-14 1.32773e-14 0)
(-7.09293e-14 1.3436e-14 0)
(-6.88532e-14 1.29232e-14 0)
(-6.77456e-14 1.28091e-14 0)
(-6.78177e-14 1.31051e-14 0)
(-6.65194e-14 1.37847e-14 0)
(-6.40062e-14 1.41838e-14 0)
(-6.16466e-14 1.4177e-14 0)
(-5.97836e-14 1.44173e-14 0)
(-5.97097e-14 1.47285e-14 0)
(-6.0844e-14 1.45969e-14 0)
(-6.12102e-14 1.49482e-14 0)
(-6.09891e-14 1.50745e-14 0)
(-6.07908e-14 1.58343e-14 0)
(-6.05037e-14 1.58552e-14 0)
(-5.94515e-14 1.57991e-14 0)
(-5.75332e-14 1.64763e-14 0)
(-5.52672e-14 1.71549e-14 0)
(-5.29488e-14 1.73445e-14 0)
(-5.09611e-14 1.76428e-14 0)
(-5.00725e-14 1.77189e-14 0)
(-5.03689e-14 1.84308e-14 0)
(-5.07464e-14 1.86839e-14 0)
(-5.13503e-14 1.88476e-14 0)
(-5.1809e-14 1.83374e-14 0)
(-5.15304e-14 1.72856e-14 0)
(-5.15173e-14 1.55657e-14 0)
(-5.29467e-14 1.408e-14 0)
(-5.5442e-14 1.31113e-14 0)
(-5.81018e-14 1.25872e-14 0)
(-6.02021e-14 1.15816e-14 0)
(-6.18753e-14 1.00336e-14 0)
(-6.34994e-14 9.0354e-15 0)
(-6.50659e-14 8.12967e-15 0)
(-6.75845e-14 6.95825e-15 0)
(-7.0624e-14 5.30626e-15 0)
(-7.22784e-14 3.85384e-15 0)
(-7.24815e-14 3.10401e-15 0)
(-7.30073e-14 2.37028e-15 0)
(-7.35032e-14 7.40415e-16 0)
(-7.39256e-14 -2.05172e-15 0)
(-7.54744e-14 -4.20139e-15 0)
(-7.73062e-14 -6.07347e-15 0)
(-7.84383e-14 -7.23284e-15 0)
(-7.93614e-14 -7.65492e-15 0)
(-8.0374e-14 -7.98371e-15 0)
(-8.12121e-14 -8.11662e-15 0)
(-8.31392e-14 -7.98866e-15 0)
(-8.58312e-14 -7.47754e-15 0)
(-8.72684e-14 -7.2097e-15 0)
(-8.72575e-14 -6.58227e-15 0)
(-8.62806e-14 -5.97207e-15 0)
(-8.41787e-14 -5.56323e-15 0)
(-8.15847e-14 -5.57328e-15 0)
(-7.92705e-14 -5.73578e-15 0)
(-7.69183e-14 -5.52745e-15 0)
(-7.50032e-14 -4.90991e-15 0)
(-7.28472e-14 -4.79794e-15 0)
(-6.94225e-14 -5.23216e-15 0)
(-6.57578e-14 -5.47616e-15 0)
(-6.30345e-14 -5.75927e-15 0)
(-6.00618e-14 -5.98063e-15 0)
(-5.54016e-14 -5.97986e-15 0)
(-4.94688e-14 -5.81309e-15 0)
(-4.2903e-14 -5.65645e-15 0)
(-3.60374e-14 -5.23188e-15 0)
(-2.81287e-14 -4.01127e-15 0)
(-1.82004e-14 -2.75849e-15 0)
(-6.4457e-15 -9.17063e-16 0)
(-2.89361e-15 1.25746e-16 0)
(-8.89492e-15 7.05884e-17 0)
(-1.48655e-14 2.58815e-16 0)
(-2.1283e-14 6.40931e-16 0)
(-2.85053e-14 3.54463e-16 0)
(-3.63091e-14 2.659e-16 0)
(-4.48095e-14 7.09504e-16 0)
(-5.25538e-14 1.54345e-15 0)
(-5.83933e-14 1.90536e-15 0)
(-6.33584e-14 2.31722e-15 0)
(-6.77614e-14 2.45376e-15 0)
(-7.10464e-14 2.9072e-15 0)
(-7.40227e-14 3.82185e-15 0)
(-7.67879e-14 4.37449e-15 0)
(-7.9745e-14 4.74499e-15 0)
(-8.33705e-14 4.9471e-15 0)
(-8.70615e-14 5.29599e-15 0)
(-9.04145e-14 4.92837e-15 0)
(-9.2292e-14 4.19157e-15 0)
(-9.26684e-14 3.89402e-15 0)
(-9.25113e-14 3.72807e-15 0)
(-9.12109e-14 4.20276e-15 0)
(-8.89978e-14 5.18245e-15 0)
(-8.68819e-14 5.73728e-15 0)
(-8.45083e-14 6.22523e-15 0)
(-8.27875e-14 6.51598e-15 0)
(-8.21586e-14 7.44931e-15 0)
(-8.13753e-14 9.00089e-15 0)
(-8.07749e-14 1.08706e-14 0)
(-8.07233e-14 1.26934e-14 0)
(-8.18339e-14 1.39756e-14 0)
(-8.25332e-14 1.43897e-14 0)
(-8.1513e-14 1.47372e-14 0)
(-7.95427e-14 1.43631e-14 0)
(-7.77231e-14 1.37936e-14 0)
(-7.70697e-14 1.45468e-14 0)
(-7.57236e-14 1.59773e-14 0)
(-7.34702e-14 1.65183e-14 0)
(-7.11081e-14 1.63998e-14 0)
(-6.89799e-14 1.64176e-14 0)
(-6.8688e-14 1.64534e-14 0)
(-6.95595e-14 1.69636e-14 0)
(-7.00154e-14 1.77027e-14 0)
(-6.96278e-14 1.79748e-14 0)
(-6.9296e-14 1.86397e-14 0)
(-6.92583e-14 1.8553e-14 0)
(-6.78956e-14 1.8676e-14 0)
(-6.54887e-14 1.93074e-14 0)
(-6.31848e-14 2.04172e-14 0)
(-6.09493e-14 2.04479e-14 0)
(-5.87808e-14 2.04438e-14 0)
(-5.74874e-14 2.06579e-14 0)
(-5.75553e-14 2.13861e-14 0)
(-5.81551e-14 2.1703e-14 0)
(-5.9201e-14 2.16304e-14 0)
(-6.01908e-14 2.09141e-14 0)
(-6.03566e-14 1.99309e-14 0)
(-6.05027e-14 1.85666e-14 0)
(-6.16757e-14 1.64734e-14 0)
(-6.40197e-14 1.50661e-14 0)
(-6.69851e-14 1.4051e-14 0)
(-6.96929e-14 1.31318e-14 0)
(-7.15657e-14 1.18737e-14 0)
(-7.33537e-14 1.07602e-14 0)
(-7.54253e-14 9.1169e-15 0)
(-7.834e-14 6.99655e-15 0)
(-8.14805e-14 5.16928e-15 0)
(-8.29057e-14 3.68675e-15 0)
(-8.28943e-14 2.64852e-15 0)
(-8.36173e-14 1.80827e-15 0)
(-8.51023e-14 6.3406e-16 0)
(-8.64033e-14 -1.90519e-15 0)
(-8.79394e-14 -4.68597e-15 0)
(-8.94151e-14 -7.08696e-15 0)
(-9.02665e-14 -8.39228e-15 0)
(-9.10141e-14 -8.96379e-15 0)
(-9.19612e-14 -8.77115e-15 0)
(-9.30341e-14 -8.89947e-15 0)
(-9.50494e-14 -9.18353e-15 0)
(-9.7763e-14 -8.81699e-15 0)
(-9.9104e-14 -8.50884e-15 0)
(-9.87569e-14 -7.8046e-15 0)
(-9.76565e-14 -7.03315e-15 0)
(-9.57751e-14 -6.36357e-15 0)
(-9.34907e-14 -6.48622e-15 0)
(-9.07777e-14 -6.76652e-15 0)
(-8.7639e-14 -6.35947e-15 0)
(-8.54098e-14 -5.9725e-15 0)
(-8.32656e-14 -5.89917e-15 0)
(-7.95652e-14 -6.40218e-15 0)
(-7.53958e-14 -7.03779e-15 0)
(-7.19998e-14 -7.40362e-15 0)
(-6.82821e-14 -7.40828e-15 0)
(-6.28361e-14 -7.28137e-15 0)
(-5.61383e-14 -6.95147e-15 0)
(-4.86278e-14 -6.8494e-15 0)
(-4.02589e-14 -6.16545e-15 0)
(-3.09621e-14 -4.53699e-15 0)
(-1.99434e-14 -2.68072e-15 0)
(-7.07038e-15 -9.35812e-16 0)
(-3.29226e-15 1.19873e-16 0)
(-1.00064e-14 1.1473e-16 0)
(-1.67132e-14 1.36023e-16 0)
(-2.38753e-14 -2.01582e-16 0)
(-3.17878e-14 -3.86211e-16 0)
(-4.03649e-14 -1.81727e-16 0)
(-4.93813e-14 5.56309e-16 0)
(-5.76435e-14 1.93475e-15 0)
(-6.44458e-14 2.72664e-15 0)
(-7.03276e-14 2.89488e-15 0)
(-7.52167e-14 2.80132e-15 0)
(-7.89408e-14 2.68868e-15 0)
(-8.2207e-14 3.07305e-15 0)
(-8.51449e-14 3.99715e-15 0)
(-8.85507e-14 4.85865e-15 0)
(-9.28116e-14 5.29432e-15 0)
(-9.71559e-14 5.19138e-15 0)
(-1.00762e-13 5.16212e-15 0)
(-1.02509e-13 5.43008e-15 0)
(-1.02768e-13 5.55076e-15 0)
(-1.02597e-13 5.61427e-15 0)
(-1.01433e-13 5.8215e-15 0)
(-9.94296e-14 6.17578e-15 0)
(-9.71713e-14 7.01519e-15 0)
(-9.47475e-14 7.49469e-15 0)
(-9.27981e-14 7.45257e-15 0)
(-9.14344e-14 8.44933e-15 0)
(-9.03326e-14 1.02427e-14 0)
(-8.97235e-14 1.18287e-14 0)
(-8.97819e-14 1.33406e-14 0)
(-9.10704e-14 1.43377e-14 0)
(-9.18977e-14 1.53376e-14 0)
(-9.10803e-14 1.51771e-14 0)
(-8.9387e-14 1.49966e-14 0)
(-8.71632e-14 1.49524e-14 0)
(-8.5469e-14 1.59636e-14 0)
(-8.40041e-14 1.78266e-14 0)
(-8.22789e-14 1.87867e-14 0)
(-7.99523e-14 1.87897e-14 0)
(-7.76695e-14 1.86776e-14 0)
(-7.7004e-14 1.87736e-14 0)
(-7.74622e-14 1.93115e-14 0)
(-7.78793e-14 1.95674e-14 0)
(-7.7582e-14 2.00211e-14 0)
(-7.74788e-14 2.04337e-14 0)
(-7.73668e-14 2.11025e-14 0)
(-7.55077e-14 2.16806e-14 0)
(-7.25403e-14 2.24364e-14 0)
(-7.03701e-14 2.33812e-14 0)
(-6.85347e-14 2.34468e-14 0)
(-6.61156e-14 2.32899e-14 0)
(-6.44485e-14 2.33764e-14 0)
(-6.44912e-14 2.36195e-14 0)
(-6.53427e-14 2.40737e-14 0)
(-6.66514e-14 2.41439e-14 0)
(-6.77819e-14 2.3673e-14 0)
(-6.8045e-14 2.28446e-14 0)
(-6.89912e-14 2.15126e-14 0)
(-7.06876e-14 1.88103e-14 0)
(-7.27199e-14 1.65827e-14 0)
(-7.54272e-14 1.49795e-14 0)
(-7.81565e-14 1.40345e-14 0)
(-8.04332e-14 1.3074e-14 0)
(-8.27897e-14 1.14402e-14 0)
(-8.5525e-14 9.53456e-15 0)
(-8.85806e-14 6.80286e-15 0)
(-9.15188e-14 5.00558e-15 0)
(-9.29249e-14 3.54967e-15 0)
(-9.29639e-14 2.30554e-15 0)
(-9.38962e-14 1.15726e-15 0)
(-9.59679e-14 -4.15347e-16 0)
(-9.79354e-14 -2.76526e-15 0)
(-9.97882e-14 -5.25978e-15 0)
(-1.00972e-13 -7.68437e-15 0)
(-1.01209e-13 -9.2635e-15 0)
(-1.01477e-13 -1.00707e-14 0)
(-1.02594e-13 -1.01431e-14 0)
(-1.04179e-13 -1.02389e-14 0)
(-1.0607e-13 -1.03756e-14 0)
(-1.0855e-13 -9.99816e-15 0)
(-1.09826e-13 -9.35031e-15 0)
(-1.09413e-13 -8.45433e-15 0)
(-1.08264e-13 -7.77989e-15 0)
(-1.0651e-13 -7.42794e-15 0)
(-1.04213e-13 -7.57842e-15 0)
(-1.01011e-13 -7.56112e-15 0)
(-9.75647e-14 -7.17166e-15 0)
(-9.51847e-14 -7.07267e-15 0)
(-9.28809e-14 -7.10344e-15 0)
(-8.90989e-14 -7.54022e-15 0)
(-8.43811e-14 -8.62954e-15 0)
(-8.01547e-14 -8.7117e-15 0)
(-7.56668e-14 -8.53504e-15 0)
(-6.94673e-14 -8.28569e-15 0)
(-6.21077e-14 -7.76184e-15 0)
(-5.36888e-14 -7.38479e-15 0)
(-4.39733e-14 -6.58161e-15 0)
(-3.33614e-14 -5.12365e-15 0)
(-2.14143e-14 -3.09809e-15 0)
(-7.61147e-15 -1.02834e-15 0)
(-3.69898e-15 1.50899e-16 0)
(-1.11462e-14 -5.34784e-17 0)
(-1.87208e-14 -1.66781e-16 0)
(-2.6719e-14 -8.86443e-16 0)
(-3.50192e-14 -1.35867e-15 0)
(-4.364e-14 -1.04219e-15 0)
(-5.27559e-14 1.107e-16 0)
(-6.18822e-14 1.87672e-15 0)
(-6.99396e-14 2.73814e-15 0)
(-7.67666e-14 3.10237e-15 0)
(-8.24623e-14 3.17687e-15 0)
(-8.63605e-14 2.53629e-15 0)
(-8.94229e-14 3.02826e-15 0)
(-9.25778e-14 4.07504e-15 0)
(-9.65427e-14 5.06145e-15 0)
(-1.01453e-13 5.32158e-15 0)
(-1.05995e-13 5.22466e-15 0)
(-1.09515e-13 5.86367e-15 0)
(-1.11641e-13 6.91159e-15 0)
(-1.12442e-13 6.95813e-15 0)
(-1.12412e-13 6.43042e-15 0)
(-1.11011e-13 6.16261e-15 0)
(-1.08375e-13 6.93626e-15 0)
(-1.06141e-13 8.26358e-15 0)
(-1.04332e-13 8.72624e-15 0)
(-1.02106e-13 8.81033e-15 0)
(-9.99826e-14 9.90217e-15 0)
(-9.86153e-14 1.12256e-14 0)
(-9.80622e-14 1.24858e-14 0)
(-9.82629e-14 1.35508e-14 0)
(-9.95391e-14 1.43637e-14 0)
(-1.00851e-13 1.54181e-14 0)
(-1.00443e-13 1.5455e-14 0)
(-9.8124e-14 1.53293e-14 0)
(-9.51617e-14 1.58506e-14 0)
(-9.28305e-14 1.71586e-14 0)
(-9.12307e-14 1.91568e-14 0)
(-9.00403e-14 2.05766e-14 0)
(-8.81667e-14 2.11898e-14 0)
(-8.5701e-14 2.08295e-14 0)
(-8.47098e-14 2.05174e-14 0)
(-8.52872e-14 2.08334e-14 0)
(-8.56523e-14 2.13112e-14 0)
(-8.49941e-14 2.18856e-14 0)
(-8.43244e-14 2.24677e-14 0)
(-8.39487e-14 2.37269e-14 0)
(-8.2268e-14 2.47416e-14 0)
(-7.93074e-14 2.54805e-14 0)
(-7.72136e-14 2.58806e-14 0)
(-7.54998e-14 2.62601e-14 0)
(-7.30572e-14 2.59571e-14 0)
(-7.12554e-14 2.59628e-14 0)
(-7.08897e-14 2.57459e-14 0)
(-7.15081e-14 2.64996e-14 0)
(-7.31803e-14 2.68086e-14 0)
(-7.48323e-14 2.64432e-14 0)
(-7.56927e-14 2.52986e-14 0)
(-7.73466e-14 2.3175e-14 0)
(-7.93834e-14 2.0529e-14 0)
(-8.11985e-14 1.8322e-14 0)
(-8.35614e-14 1.63322e-14 0)
(-8.61763e-14 1.50545e-14 0)
(-8.89514e-14 1.36278e-14 0)
(-9.18287e-14 1.14547e-14 0)
(-9.50904e-14 9.13714e-15 0)
(-9.829e-14 6.32962e-15 0)
(-1.00834e-13 4.0503e-15 0)
(-1.02172e-13 2.69254e-15 0)
(-1.02239e-13 1.60874e-15 0)
(-1.03508e-13 6.04581e-16 0)
(-1.06195e-13 -1.29103e-15 0)
(-1.08517e-13 -3.62249e-15 0)
(-1.10478e-13 -6.01217e-15 0)
(-1.1167e-13 -8.21892e-15 0)
(-1.11729e-13 -1.00543e-14 0)
(-1.1176e-13 -1.13968e-14 0)
(-1.12555e-13 -1.20628e-14 0)
(-1.14007e-13 -1.19519e-14 0)
(-1.15944e-13 -1.15369e-14 0)
(-1.18261e-13 -1.10523e-14 0)
(-1.19289e-13 -1.0147e-14 0)
(-1.18871e-13 -8.93143e-15 0)
(-1.18002e-13 -8.16025e-15 0)
(-1.16457e-13 -8.17204e-15 0)
(-1.14054e-13 -8.36587e-15 0)
(-1.10488e-13 -8.45417e-15 0)
(-1.06738e-13 -8.46872e-15 0)
(-1.04173e-13 -8.30238e-15 0)
(-1.01692e-13 -8.07995e-15 0)
(-9.79604e-14 -8.38263e-15 0)
(-9.26432e-14 -9.41416e-15 0)
(-8.73431e-14 -9.65383e-15 0)
(-8.23066e-14 -9.11957e-15 0)
(-7.54139e-14 -8.7485e-15 0)
(-6.73086e-14 -8.17945e-15 0)
(-5.81633e-14 -7.63004e-15 0)
(-4.74697e-14 -6.81612e-15 0)
(-3.56686e-14 -5.69029e-15 0)
(-2.25471e-14 -3.66e-15 0)
(-7.96167e-15 -1.0796e-15 0)
(-4.11549e-15 -3.91382e-17 0)
(-1.21859e-14 -3.80001e-16 0)
(-2.05257e-14 -6.99644e-16 0)
(-2.92837e-14 -1.30491e-15 0)
(-3.77985e-14 -1.53857e-15 0)
(-4.65471e-14 -1.32294e-15 0)
(-5.58383e-14 -4.0853e-16 0)
(-6.56007e-14 6.91466e-16 0)
(-7.46391e-14 1.74535e-15 0)
(-8.22069e-14 2.73788e-15 0)
(-8.88364e-14 3.65977e-15 0)
(-9.31492e-14 3.51162e-15 0)
(-9.59684e-14 3.95738e-15 0)
(-9.92412e-14 4.47226e-15 0)
(-1.03839e-13 4.7844e-15 0)
(-1.09438e-13 5.04131e-15 0)
(-1.13977e-13 5.391e-15 0)
(-1.17147e-13 6.49201e-15 0)
(-1.19662e-13 7.64875e-15 0)
(-1.21338e-13 7.91577e-15 0)
(-1.21583e-13 7.60462e-15 0)
(-1.19579e-13 7.354e-15 0)
(-1.16454e-13 7.86207e-15 0)
(-1.14419e-13 8.71941e-15 0)
(-1.12853e-13 9.39257e-15 0)
(-1.10347e-13 9.93141e-15 0)
(-1.07955e-13 1.09356e-14 0)
(-1.06598e-13 1.19771e-14 0)
(-1.06033e-13 1.2636e-14 0)
(-1.06255e-13 1.31722e-14 0)
(-1.07363e-13 1.37713e-14 0)
(-1.08551e-13 1.48569e-14 0)
(-1.08375e-13 1.58948e-14 0)
(-1.0609e-13 1.6523e-14 0)
(-1.02569e-13 1.71622e-14 0)
(-9.95378e-14 1.83984e-14 0)
(-9.77293e-14 2.00124e-14 0)
(-9.67547e-14 2.13142e-14 0)
(-9.54748e-14 2.26634e-14 0)
(-9.36309e-14 2.27937e-14 0)
(-9.22569e-14 2.23431e-14 0)
(-9.19515e-14 2.22318e-14 0)
(-9.20114e-14 2.29919e-14 0)
(-9.14693e-14 2.42839e-14 0)
(-9.06786e-14 2.48873e-14 0)
(-9.004e-14 2.5433e-14 0)
(-8.83296e-14 2.64422e-14 0)
(-8.55606e-14 2.76179e-14 0)
(-8.33941e-14 2.79686e-14 0)
(-8.18234e-14 2.86167e-14 0)
(-7.94508e-14 2.85935e-14 0)
(-7.75275e-14 2.87338e-14 0)
(-7.68705e-14 2.8637e-14 0)
(-7.72327e-14 2.91044e-14 0)
(-7.9311e-14 2.88213e-14 0)
(-8.15085e-14 2.85841e-14 0)
(-8.31176e-14 2.68748e-14 0)
(-8.52807e-14 2.43537e-14 0)
(-8.72141e-14 2.18361e-14 0)
(-8.89999e-14 1.94339e-14 0)
(-9.13105e-14 1.72227e-14 0)
(-9.39474e-14 1.55532e-14 0)
(-9.72227e-14 1.3696e-14 0)
(-1.00579e-13 1.13266e-14 0)
(-1.04122e-13 8.65977e-15 0)
(-1.07479e-13 6.04625e-15 0)
(-1.09668e-13 3.83211e-15 0)
(-1.10497e-13 2.20784e-15 0)
(-1.1057e-13 9.30717e-16 0)
(-1.12394e-13 -5.03706e-16 0)
(-1.15746e-13 -2.67889e-15 0)
(-1.18397e-13 -4.42507e-15 0)
(-1.20495e-13 -6.81301e-15 0)
(-1.21621e-13 -9.17495e-15 0)
(-1.21574e-13 -1.1281e-14 0)
(-1.21326e-13 -1.3016e-14 0)
(-1.21695e-13 -1.33952e-14 0)
(-1.22767e-13 -1.29545e-14 0)
(-1.24609e-13 -1.23958e-14 0)
(-1.26877e-13 -1.18015e-14 0)
(-1.27671e-13 -1.06611e-14 0)
(-1.27311e-13 -9.62844e-15 0)
(-1.26919e-13 -8.95924e-15 0)
(-1.25638e-13 -9.08998e-15 0)
(-1.2307e-13 -9.16604e-15 0)
(-1.19324e-13 -9.35033e-15 0)
(-1.15191e-13 -9.55612e-15 0)
(-1.12052e-13 -9.417e-15 0)
(-1.09429e-13 -8.99406e-15 0)
(-1.05829e-13 -9.00067e-15 0)
(-1.00248e-13 -9.30283e-15 0)
(-9.3971e-14 -9.55742e-15 0)
(-8.80448e-14 -8.97213e-15 0)
(-8.07329e-14 -8.63091e-15 0)
(-7.20571e-14 -8.09015e-15 0)
(-6.21834e-14 -7.18946e-15 0)
(-5.06986e-14 -6.6929e-15 0)
(-3.78073e-14 -5.95215e-15 0)
(-2.34117e-14 -4.13056e-15 0)
(-8.20269e-15 -1.19204e-15 0)
(-4.41333e-15 -2.2295e-16 0)