/*--------------------------------*- C++ -*----------------------------------*\
| =========                 |                                                 |
| \\      /  F ield         | OpenFOAM: The Open Source CFD Toolbox           |
|  \\    /   O peration     | Version:  v2012                                 |
|   \\  /    A nd           | Website:  www.openfoam.com                      |
|    \\/     M anipulation  |                                                 |
\*---------------------------------------------------------------------------*/
FoamFile
{
    version     2.0;
    format      ascii;
    class       volScalarField;
    location    "0";
    object      p;
}
// * * * * * * * * * * * * * * * * * * * * * * * * * * * * * * * * * * * * * //

dimensions      [0 2 -2 0 0 0 0];


internalField   nonuniform List<scalar> 
4000
(
-0.24113
-0.228383
-0.230671
-0.235622
-0.233157
-0.235162
-0.228416
-0.216214
-0.200781
-0.197689
-0.205197
-0.197583
-0.179749
-0.153733
-0.125915
-0.115084
-0.116459
-0.1141
-0.100319
-0.0762554
-0.0534798
-0.0418147
-0.0366009
-0.0228935
-0.00712517
0.00933287
0.00318424
0.00988328
0.0194044
0.036535
0.062452
0.071432
0.0611241
0.0587833
0.0612852
0.0595624
0.0778968
0.11008
0.138125
0.137328
0.126691
0.114729
0.10446
0.107404
0.116067
0.124237
0.13121
0.138751
0.140739
0.141874
0.140118
0.140009
0.14048
0.142399
0.146248
0.157342
0.154244
0.14316
0.128819
0.114017
0.113455
0.110546
0.11815
0.128191
0.125267
0.121352
0.11055
0.11154
0.114745
0.112023
0.107503
0.101252
0.110335
0.109622
0.0966513
0.0826251
0.071601
0.063905
0.0644822
0.0786028
0.088908
0.0837423
0.0783619
0.07316
0.0664493
0.0613351
0.0604378
0.0576385
0.0446041
0.0331342
0.0303802
0.0254892
0.0184241
0.0104239
0.0117363
0.0105382
0.00721912
0.00464578
0.00507336
0.00353913
-0.231061
-0.228606
-0.2371
-0.237536
-0.240184
-0.229549
-0.223085
-0.218157
-0.210647
-0.201534
-0.196219
-0.189608
-0.176359
-0.155023
-0.133511
-0.124248
-0.120466
-0.111025
-0.0961824
-0.0822568
-0.0617799
-0.0389751
-0.0257656
-0.0172908
-0.00271473
0.00256427
0.00459418
0.00849983
0.0249712
0.0432953
0.0531824
0.0603999
0.0651437
0.0688628
0.0687916
0.0709015
0.0805071
0.100261
0.121746
0.127365
0.125766
0.117829
0.112986
0.11034
0.1131
0.123178
0.13434
0.140726
0.142301
0.147644
0.14467
0.141485
0.13796
0.139589
0.141249
0.150859
0.157404
0.148917
0.13389
0.118804
0.10834
0.10967
0.114693
0.121221
0.122426
0.12216
0.118698
0.11379
0.109129
0.106677
0.105569
0.102789
0.101302
0.101846
0.0971559
0.0898386
0.0748042
0.0701486
0.0712314
0.0804386
0.0851696
0.0798508
0.0718985
0.0686809
0.0697606
0.0648638
0.0658807
0.0640754
0.0502083
0.034065
0.0257103
0.018859
0.00950139
0.0130008
0.0129111
0.0103376
0.00943575
0.00624917
0.00206153
-0.000509801
-0.229207
-0.227973
-0.233813
-0.242159
-0.244062
-0.233007
-0.221299
-0.215173
-0.205051
-0.203196
-0.197029
-0.186422
-0.172961
-0.157958
-0.140167
-0.128517
-0.118371
-0.107475
-0.097458
-0.081214
-0.058629
-0.0415092
-0.0285812
-0.0194887
-0.00652526
-0.00133899
0.0034172
0.0125318
0.0288284
0.0468051
0.0554167
0.0595461
0.0647563
0.0630199
0.0644527
0.0692894
0.0831067
0.0974352
0.115003
0.128091
0.128286
0.125837
0.111895
0.109639
0.109859
0.121472
0.139178
0.148514
0.138916
0.133957
0.141541
0.143044
0.144934
0.147643
0.146199
0.148395
0.15332
0.140523
0.122068
0.115293
0.115426
0.123207
0.124338
0.120097
0.116725
0.113677
0.113025
0.114578
0.110926
0.114636
0.114425
0.109683
0.10951
0.10264
0.0957349
0.0855883
0.0770317
0.0706357
0.0713662
0.0754482
0.0725927
0.0757804
0.083869
0.0768674
0.0716396
0.0604431
0.0527458
0.0533756
0.0477096
0.0411604
0.0318721
0.0178924
0.0118068
0.0110369
0.0162475
0.0165325
0.00920695
0.0033764
-0.00735016
-0.00153436
-0.231972
-0.233943
-0.237494
-0.228974
-0.238778
-0.225802
-0.220191
-0.216997
-0.216325
-0.207887
-0.192701
-0.177843
-0.165122
-0.159384
-0.159295
-0.140179
-0.114951
-0.101027
-0.092226
-0.0774442
-0.0604735
-0.0463847
-0.0311403
-0.00754384
0.00222854
0.00560841
0.00915361
0.0108221
0.0254792
0.0388599
0.0439155
0.0539024
0.0639207
0.0689386
0.076007
0.0700654
0.0831064
0.100454
0.111724
0.121825
0.119469
0.113874
0.111872
0.116305
0.123885
0.131078
0.137572
0.135475
0.139217
0.149716
0.151674
0.1469
0.141161
0.138561
0.145252
0.144544
0.147607
0.141372
0.125472
0.121066
0.120665
0.11764
0.115389
0.115115
0.117879
0.119164
0.11637
0.114801
0.109775
0.108252
0.103971
0.101524
0.103344
0.0992595
0.096035
0.0903158
0.076028
0.0723327
0.0720783
0.0748606
0.0762366
0.0728419
0.0787681
0.0802232
0.0755797
0.0638441
0.0588806
0.0549999
0.0503763
0.03959
0.0261418
0.0180707
0.00861536
0.0127205
0.0149821
0.0104383
0.00627882
0.00585691
-0.000851574
-0.000419836
-0.234956
-0.244181
-0.235634
-0.22781
-0.219312
-0.227455
-0.22454
-0.224749
-0.214647
-0.200124
-0.184726
-0.179281
-0.166184
-0.15893
-0.158139
-0.145093
-0.128966
-0.112422
-0.086484
-0.0622762
-0.0563641
-0.0431644
-0.017862
-0.00928213
-0.00830804
-0.00277133
0.00289765
0.0143375
0.0216982
0.0331205
0.0432458
0.0522001
0.0621747
0.0686825
0.0733184
0.0725808
0.0858333
0.101674
0.116993
0.120787
0.119412
0.11028
0.110998
0.117789
0.130117
0.138752
0.139062
0.138223
0.137883
0.139864
0.143044
0.140234
0.140843
0.141776
0.146512
0.147921
0.144154
0.13703
0.126902
0.123526
0.121719
0.121803
0.123655
0.118193
0.109979
0.105242
0.107149
0.113275
0.112604
0.114246
0.11264
0.106837
0.102548
0.101835
0.104149
0.0960117
0.079157
0.0727431
0.0686514
0.0705582
0.0736147
0.0690147
0.0780561
0.0818129
0.0823626
0.0734152
0.0572101
0.0479524
0.0446408
0.0356529
0.0287586
0.0180932
0.0137236
0.00612657
0.00545825
0.00770776
0.00455744
0.00346453
3.35162e-05
0.00571201
-0.226327
-0.248512
-0.237874
-0.216651
-0.228561
-0.238766
-0.232752
-0.225409
-0.211208
-0.18398
-0.181249
-0.179147
-0.174679
-0.159909
-0.148085
-0.151223
-0.134117
-0.117576
-0.0980574
-0.0722517
-0.0504663
-0.0304219
0.00178135
0.00148179
-0.00764022
-0.00803354
0.00350334
0.0133695
0.0215045
0.0265405
0.0400326
0.0532214
0.0620267
0.0604873
0.0596424
0.0745019
0.0888375
0.102003
0.117772
0.116488
0.112582
0.110245
0.114478
0.118172
0.127448
0.143053
0.146882
0.14409
0.137958
0.141564
0.140931
0.141991
0.14247
0.146451
0.15022
0.145554
0.140448
0.136827
0.128486
0.12103
0.118021
0.120221
0.122321
0.118387
0.118343
0.110489
0.105073
0.110366
0.111832
0.106742
0.108497
0.105824
0.0990321
0.0971929
0.100257
0.0907057
0.0811399
0.081171
0.0734301
0.0659059
0.0648177
0.0706706
0.0840589
0.0864533
0.0800416
0.0670635
0.0550985
0.05163
0.0469049
0.0386846
0.0285861
0.0166827
0.0183902
0.00869489
0.00501735
0.00250612
0.00471715
0.00800892
0.006269
0.00726278
-0.237911
-0.239545
-0.236488
-0.229539
-0.224446
-0.234372
-0.233266
-0.219988
-0.203047
-0.184504
-0.174154
-0.176514
-0.179186
-0.165266
-0.152552
-0.14621
-0.142205
-0.1262
-0.08981
-0.0532291
-0.0223801
-0.0209144
-0.02711
-0.0271526
-0.0172711
-0.0089538
0.00951126
0.0210045
0.0223032
0.0217285
0.0313288
0.0530679
0.0634217
0.0730439
0.0725829
0.0793351
0.0839577
0.0898194
0.105007
0.119144
0.122177
0.123232
0.120763
0.117724
0.119718
0.130044
0.142048
0.145643
0.146174
0.142806
0.140808
0.131998
0.134376
0.145593
0.149795
0.145388
0.142831
0.1478
0.137566
0.121842
0.109988
0.109355
0.115374
0.122966
0.125253
0.118205
0.117258
0.123506
0.122229
0.107097
0.0878142
0.0931336
0.0965143
0.0901445
0.091303
0.0934565
0.0929463
0.0883622
0.081257
0.070616
0.0677482
0.0710917
0.0706558
0.0722467
0.0729398
0.0734766
0.06245
0.0490957
0.0451425
0.0349082
0.0311178
0.0256454
0.0181823
0.0112787
0.00489552
0.00834009
0.00794192
0.00929009
0.00608484
0.00405808
-0.235891
-0.233245
-0.227018
-0.231118
-0.240334
-0.24258
-0.233693
-0.21587
-0.200106
-0.187003
-0.18322
-0.175691
-0.16963
-0.15746
-0.152131
-0.14653
-0.139748
-0.12626
-0.0803722
-0.0601357
-0.0521826
-0.0429289
-0.0249029
-0.00973789
-0.00634353
0.00320161
0.0180698
0.0213239
0.0261903
0.0301805
0.0344181
0.0396489
0.0460391
0.0558673
0.0714644
0.0810213
0.089459
0.0997484
0.110366
0.119976
0.122454
0.117966
0.119531
0.106903
0.106171
0.127188
0.151466
0.166559
0.154172
0.137934
0.127133
0.125366
0.137457
0.147602
0.154776
0.151425
0.140434
0.13554
0.133118
0.129851
0.119341
0.115999
0.114092
0.113504
0.11296
0.111903
0.114137
0.117432
0.111021
0.104041
0.0974408
0.09359
0.10147
0.108772
0.106233
0.094002
0.0835426
0.079391
0.0700262
0.0651366
0.0643406
0.0698112
0.0788799
0.0847727
0.0856161
0.0752077
0.0598622
0.0470438
0.0412649
0.0371443
0.0361838
0.0274776
0.0176827
0.00734227
0.00802119
0.0129196
0.00851627
0.00600789
0.00466787
0.00746744
-0.242496
-0.242792
-0.233969
-0.220775
-0.230677
-0.236863
-0.236423
-0.219473
-0.196057
-0.1941
-0.182322
-0.166721
-0.155317
-0.156507
-0.15774
-0.152116
-0.140624
-0.119003
-0.0877064
-0.0653227
-0.0510265
-0.0361818
-0.0342799
-0.0228893
-0.00617911
0.0104858
0.0208894
0.021858
0.0167491
0.0251884
0.0326526
0.0384896
0.0547029
0.0727011
0.0724438
0.0791162
0.0906335
0.102503
0.105528
0.106248
0.109205
0.117371
0.130514
0.127937
0.122677
0.12513
0.13843
0.146298
0.144081
0.142752
0.138959
0.138481
0.141391
0.144083
0.143986
0.141803
0.136678
0.134694
0.136154
0.130658
0.12523
0.120168
0.116455
0.115866
0.121466
0.123044
0.117388
0.114883
0.114347
0.109181
0.103194
0.0921381
0.0888757
0.0921238
0.0995462
0.0939372
0.0835971
0.0768712
0.0690861
0.068066
0.063594
0.0672558
0.0774031
0.0808633
0.0805299
0.0725163
0.0572871
0.0479781
0.0421739
0.0383463
0.0363454
0.0289843
0.0265348
0.0153893
0.00913932
0.00780577
0.0121887
0.0146435
0.0121651
0.0149471
-0.242523
-0.238674
-0.242305
-0.232686
-0.226295
-0.232733
-0.229565
-0.226087
-0.208657
-0.180266
-0.169764
-0.162949
-0.159322
-0.163896
-0.161542
-0.147634
-0.129488
-0.122848
-0.108729
-0.0760121
-0.0491039
-0.025412
-0.0205317
-0.0137338
-0.0101673
-0.000788641
0.0105185
0.0169033
0.0223929
0.0254758
0.0294683
0.0397495
0.05404
0.0729979
0.0809129
0.0834094
0.085265
0.0995025
0.104984
0.107371
0.119327
0.130029
0.129525
0.128595
0.11963
0.113495
0.125886
0.141275
0.144064
0.147982
0.146417
0.138846
0.137768
0.142183
0.145958
0.145436
0.140626
0.137882
0.13506
0.12492
0.116877
0.105382
0.101729
0.116293
0.130077
0.14333
0.137361
0.126013
0.113594
0.0938983
0.0863911
0.0884224
0.0830041
0.0866131
0.0968578
0.101526
0.0894972
0.0801863
0.0721852
0.0721727
0.0681772
0.0660974
0.0677725
0.0728686
0.0752492
0.0739175
0.0646096
0.0550944
0.0458404
0.0396678
0.0400507
0.0394992
0.0331251
0.0236113
0.0181395
0.0180189
0.0203995
0.0166579
0.0168963
0.0118417
-0.237764
-0.236201
-0.233976
-0.238788
-0.239093
-0.227065
-0.224206
-0.218158
-0.206931
-0.195143
-0.172353
-0.158146
-0.16148
-0.167106
-0.160166
-0.154219
-0.129118
-0.119313
-0.106065
-0.0820485
-0.0579721
-0.0250352
-0.0113577
-0.0112872
-0.00180703
0.00747766
0.00577563
0.0107485
0.0178754
0.021399
0.0319752
0.0435571
0.0573482
0.0672555
0.0709985
0.0815699
0.0929895
0.10092
0.101514
0.112702
0.119216
0.130615
0.130372
0.121473
0.112641
0.115499
0.130039
0.149161
0.152568
0.152779
0.140557
0.13408
0.139114
0.143555
0.150781
0.139371
0.131794
0.131315
0.136803
0.139103
0.126324
0.125832
0.117806
0.107695
0.118719
0.134749
0.136877
0.128611
0.113631
0.0874424
0.0866351
0.0840255
0.0814441
0.0875869
0.101675
0.110279
0.0896224
0.0737986
0.0654801
0.0611118
0.057306
0.0559951
0.0716085
0.0804406
0.0854721
0.0856716
0.0616136
0.04649
0.0442273
0.0431817
0.0435757
0.0382152
0.034236
0.0261592
0.0146933
0.0112663
0.0287586
0.039484
0.033587
0.00767883
-0.245509
-0.241066
-0.237323
-0.240544
-0.238315
-0.226712
-0.228348
-0.222126
-0.208139
-0.191642
-0.173929
-0.162116
-0.151491
-0.151344
-0.148278
-0.140927
-0.137991
-0.134167
-0.111508
-0.0838813
-0.0544821
-0.0404797
-0.0288038
-0.0145692
-0.00225664
0.0180449
0.0177958
0.0134773
0.0151155
0.0152504
0.022752
0.0404131
0.0637
0.0767247
0.0821333
0.0855344
0.088412
0.0949162
0.0986179
0.115024
0.123579
0.134576
0.131012
0.11707
0.116889
0.119915
0.128485
0.139959
0.149294
0.15242
0.148365
0.138382
0.139453
0.138197
0.140721
0.140568
0.137143
0.136381
0.136865
0.130886
0.120839
0.100361
0.106544
0.116793
0.138187
0.144245
0.135989
0.124862
0.114314
0.0992267
0.0900478
0.073791
0.065708
0.0766372
0.106299
0.124066
0.106644
0.0754016
0.0607095
0.0603658
0.0616551
0.0635555
0.068437
0.0690728
0.0732759
0.0776891
0.0737679
0.0563405
0.0459969
0.0435309
0.0470084
0.0427798
0.0352878
0.0291562
0.023759
0.0210193
0.0333526
0.0351566
0.0272981
0.00745213
-0.242297
-0.241309
-0.22258
-0.245067
-0.243596
-0.237587
-0.223821
-0.210562
-0.196129
-0.179094
-0.172291
-0.171046
-0.174381
-0.166398
-0.152974
-0.14613
-0.142857
-0.136545
-0.114895
-0.0840984
-0.0406484
-0.0159723
-0.00406774
-0.0067789
-0.0016241
0.00389053
0.00761001
0.0141476
0.0160551
0.00876566
0.0182995
0.0407251
0.0561342
0.0663235
0.0666198
0.0832682
0.0984167
0.099641
0.101712
0.119071
0.129154
0.124624
0.121321
0.120718
0.131484
0.136941
0.134895
0.13684
0.141947
0.143288
0.141879
0.136639
0.146454
0.153809
0.132387
0.115096
0.130567
0.145694
0.148527
0.146225
0.131403
0.120969
0.106707
0.109576
0.123802
0.129561
0.141266
0.123413
0.112682
0.104095
0.0947424
0.0767734
0.0646614
0.0799742
0.103039
0.113903
0.0977755
0.0730993
0.0684267
0.0683551
0.06689
0.0586454
0.0604506
0.0703458
0.0722727
0.0776778
0.0731641
0.0555494
0.0507921
0.0469484
0.0461875
0.0464522
0.0413271
0.0312162
0.0264034
0.0250755
0.03069
0.0321455
0.0277432
0.0107418
-0.235071
-0.259452
-0.244304
-0.232776
-0.23422
-0.23198
-0.2248
-0.22492
-0.204041
-0.169912
-0.161694
-0.168767
-0.172575
-0.168578
-0.161172
-0.142849
-0.125018
-0.112873
-0.105051
-0.0867794
-0.075646
-0.060682
-0.0384635
-0.00836717
0.0185576
0.025016
0.0172729
0.00947883
0.00935151
0.00692863
0.0165569
0.0381061
0.0664482
0.0829398
0.0894692
0.0918477
0.0819834
0.0877642
0.102476
0.106025
0.123519
0.131967
0.125746
0.129451
0.134815
0.137523
0.142224
0.139901
0.13314
0.134557
0.136165
0.141814
0.143844
0.144275
0.137191
0.130364
0.128702
0.12823
0.128001
0.132992
0.134905
0.132668
0.126148
0.119875
0.120708
0.123997
0.125014
0.120857
0.112181
0.101679
0.0903213
0.0849583
0.0807127
0.0829088
0.0951598
0.100561
0.0995038
0.0851518
0.0709696
0.0653838
0.0641598
0.0644059
0.0657586
0.0722141
0.0759134
0.0737629
0.0677084
0.0599573
0.0494714
0.0485732
0.0457079
0.037278
0.0348609
0.0332638
0.0368271
0.0394351
0.0333904
0.0264715
0.0236036
0.0108389
-0.234678
-0.245503
-0.248223
-0.237623
-0.237402
-0.239782
-0.216472
-0.193424
-0.188312
-0.184541
-0.179068
-0.180594
-0.17995
-0.173137
-0.164527
-0.145682
-0.134038
-0.130054
-0.11452
-0.0860875
-0.0485021
-0.0187911
-0.00554643
0.00771332
0.000715151
-0.00465161
0.00222198
0.0113511
0.0158196
0.00949223
0.0123499
0.0291913
0.0531977
0.0838729
0.100723
0.0913429
0.0793238
0.0837063
0.089279
0.105607
0.128511
0.13516
0.142466
0.140479
0.135753
0.13341
0.132435
0.135915
0.132696
0.122351
0.124446
0.14655
0.153468
0.15312
0.150797
0.136837
0.130532
0.130838
0.136054
0.137804
0.126204
0.120795
0.118643
0.121048
0.133828
0.137196
0.127858
0.115821
0.104266
0.102511
0.095543
0.0861956
0.0822812
0.0869561
0.0919993
0.109482
0.102437
0.0863185
0.0647336
0.0529762
0.0531438
0.0558609
0.0663625
0.0793755
0.0802837
0.0738736
0.0688021
0.0629538
0.0535469
0.0485724
0.0460816
0.0406633
0.0349978
0.0335601
0.037089
0.044393
0.039858
0.0336866
0.0257054
0.00883424
-0.229315
-0.253235
-0.251357
-0.240624
-0.235914
-0.249743
-0.242235
-0.210056
-0.169298
-0.164242
-0.167049
-0.178337
-0.181324
-0.178413
-0.170032
-0.149991
-0.129586
-0.118386
-0.0947592
-0.0806158
-0.0632599
-0.0378028
-0.0157903
0.00824035
0.00208286
-0.00386645
-0.00366194
6.60072e-05
0.00996902
0.0113475
0.0199576
0.0404571
0.0533127
0.081928
0.104263
0.0988446
0.0873721
0.0821791
0.0895391
0.103247
0.131093
0.137981
0.132179
0.135591
0.137128
0.136499
0.127095
0.127538
0.132853
0.143415
0.143895
0.14072
0.143463
0.155392
0.139544
0.130644
0.132467
0.124367
0.123166
0.134329
0.131415
0.127803
0.128537
0.126705
0.130847
0.131132
0.134357
0.120671
0.112881
0.0941595
0.0906629
0.0824824
0.0740694
0.0858194
0.100424
0.108194
0.0920782
0.0819961
0.0721181
0.0636149
0.0557738
0.0545
0.0676927
0.0740554
0.0700745
0.0684786
0.0661198
0.0630263
0.054739
0.0531053
0.0511922
0.0450845
0.0423627
0.0419994
0.0381054
0.0337551
0.041687
0.0408074
0.0313625
0.0110933
-0.246913
-0.247766
-0.23802
-0.226829
-0.232045
-0.219591
-0.210559
-0.219217
-0.211892
-0.199101
-0.189274
-0.175815
-0.167794
-0.16801
-0.165031
-0.153306
-0.136913
-0.136109
-0.111575
-0.0763082
-0.0353836
-0.0152088
-0.0127487
-0.0121161
-0.00101871
-0.00355414
-0.00320414
0.00678885
0.0108357
0.0133003
0.021236
0.0418075
0.0627037
0.0850265
0.0948173
0.0904952
0.0749241
0.0817279
0.0919122
0.105306
0.129882
0.144579
0.136772
0.129102
0.125632
0.13571
0.144227
0.133284
0.128618
0.136841
0.143733
0.140112
0.139366
0.148924
0.151801
0.143281
0.13868
0.125393
0.119749
0.121584
0.126807
0.127138
0.129989
0.12784
0.122681
0.12763
0.133972
0.13075
0.118812
0.093811
0.0932546
0.0863019
0.0819014
0.0846167
0.0888974
0.0999667
0.100814
0.0921549
0.0741876
0.0480821
0.0440598
0.0592547
0.0700598
0.0805722
0.0697435
0.0620937
0.0597322
0.0654503
0.0655501
0.0583134
0.0488584
0.0467675
0.0384156
0.0350283
0.0426833
0.043752
0.0403847
0.0362093
0.0296172
0.0133266
-0.24648
-0.244763
-0.240089
-0.232647
-0.247409
-0.244258
-0.214265
-0.200102
-0.192353
-0.190034
-0.192987
-0.19583
-0.173918
-0.158247
-0.152469
-0.147055
-0.141169
-0.129846
-0.10606
-0.0744957
-0.0475429
-0.0193017
-0.00537761
-0.0144032
-0.0186652
-0.00344219
0.00452211
0.00518075
0.00193829
0.00671565
0.0150697
0.0371609
0.0617435
0.0877684
0.106851
0.0953259
0.0886303
0.0842093
0.0852047
0.0957243
0.121872
0.138159
0.13849
0.142987
0.133936
0.131501
0.135402
0.13887
0.137055
0.136247
0.139741
0.141617
0.143169
0.148777
0.136251
0.13306
0.141643
0.142212
0.129629
0.126573
0.12465
0.126585
0.127559
0.123624
0.123091
0.129813
0.128767
0.128331
0.124297
0.111029
0.0975319
0.0846368
0.0770512
0.0839418
0.0916311
0.0974252
0.0907299
0.086048
0.0673161
0.0556841
0.0544526
0.0553079
0.0641709
0.0722794
0.0724366
0.0731365
0.0695357
0.0614091
0.0549239
0.0581581
0.0501273
0.0499913
0.045613
0.0418356
0.0453517
0.0383745
0.035698
0.0378919
0.0319542
0.0118545
-0.234574
-0.24265
-0.244221
-0.238918
-0.236331
-0.224448
-0.213946
-0.209289
-0.210245
-0.205212
-0.196459
-0.190425
-0.178804
-0.164342
-0.150627
-0.139453
-0.137381
-0.125493
-0.102773
-0.0798147
-0.0478966
-0.0217129
-0.0181617
-0.0165215
-0.00193838
0.00186413
-0.00569466
-0.00509315
0.00150124
0.0160732
0.0273806
0.0438747
0.065939
0.0850214
0.100126
0.0831862
0.0711431
0.0790125
0.0961908
0.117511
0.128323
0.129922
0.134928
0.141112
0.142107
0.139713
0.130266
0.120957
0.129703
0.147524
0.146495
0.13967
0.142384
0.148726
0.139686
0.132824
0.133211
0.134754
0.135296
0.13003
0.119077
0.120462
0.126099
0.128459
0.132309
0.131182
0.131882
0.12565
0.122286
0.113278
0.106882
0.0841875
0.0749457
0.0812422
0.0901341
0.0965564
0.0862561
0.0803042
0.0804338
0.076858
0.049197
0.0421731
0.0617203
0.0695116
0.0714702
0.074696
0.0715636
0.0596948
0.0564403
0.056767
0.0516247
0.0482543
0.0455571
0.0445196
0.0383189
0.0400893
0.0448464
0.041777
0.0337277
0.00957715
-0.251205
-0.245438
-0.242105
-0.233418
-0.222587
-0.219065
-0.21449
-0.217898
-0.215294
-0.207909
-0.193907
-0.189032
-0.179739
-0.172276
-0.156849
-0.136472
-0.116097
-0.10657
-0.103492
-0.0910667
-0.0561395
-0.0320415
-0.0211153
-0.0134287
-0.0098516
-0.00407755
-0.00799047
-0.00633717
0.00539159
0.0117982
0.0241886
0.0447583
0.0705743
0.0916944
0.0941003
0.0855919
0.0795063
0.0853012
0.0987282
0.114805
0.12861
0.134279
0.129666
0.131531
0.133221
0.132859
0.13795
0.137387
0.132221
0.138035
0.134262
0.141504
0.147059
0.146128
0.144449
0.145172
0.137066
0.132761
0.134034
0.129022
0.118353
0.114883
0.120692
0.13099
0.133033
0.132477
0.134324
0.127857
0.121902
0.113092
0.0987926
0.0836324
0.0792713
0.0888995
0.0904581
0.0938868
0.0896681
0.0846518
0.0709202
0.0628935
0.0580391
0.0542796
0.0566943
0.0581692
0.0593679
0.0746142
0.0778151
0.0661848
0.0567742
0.0622677
0.0588169
0.0496964
0.034225
0.0397729
0.0466104
0.0428393
0.0423698
0.04852
0.0297517
0.00549068
-0.259179
-0.244586
-0.231227
-0.232407
-0.215233
-0.219941
-0.216133
-0.221992
-0.223502
-0.203022
-0.193784
-0.193527
-0.191435
-0.175221
-0.157893
-0.142937
-0.129528
-0.108934
-0.0966564
-0.073928
-0.056607
-0.0336183
-0.014534
-0.00921582
-0.00860932
-0.0151522
-0.0111522
-0.00309375
0.00588755
0.0129465
0.021614
0.0406072
0.0704452
0.0893023
0.0997553
0.0966657
0.083913
0.0822461
0.095575
0.111404
0.121875
0.128612
0.133976
0.135604
0.137653
0.13876
0.140225
0.133527
0.128919
0.136384
0.142896
0.151185
0.146497
0.141102
0.136681
0.132975
0.134025
0.136935
0.128685
0.118787
0.113782
0.116931
0.135509
0.138808
0.134225
0.132432
0.135865
0.129733
0.124162
0.105922
0.0954328
0.0923384
0.0909591
0.093455
0.0944588
0.0965234
0.0815618
0.0649526
0.0672206
0.0710141
0.0662615
0.0607557
0.0581532
0.0611328
0.0716326
0.0811164
0.070915
0.0610487
0.0562174
0.0469065
0.0418744
0.0487891
0.0490441
0.0445427
0.0482541
0.0509919
0.0450307
0.0340633
0.0218298
0.00653999
-0.253599
-0.24162
-0.236069
-0.232259
-0.225593
-0.218319
-0.212162
-0.21871
-0.220503
-0.215746
-0.204296
-0.192958
-0.187271
-0.170212
-0.149648
-0.129999
-0.115122
-0.108879
-0.101626
-0.0843894
-0.0603366
-0.0395201
-0.0227179
-0.0186823
-0.0224755
-0.0149706
-0.00428181
0.0100844
0.0176718
0.0155242
0.0206413
0.0295051
0.0490444
0.0717288
0.102145
0.105193
0.096708
0.0936244
0.0995964
0.111951
0.117503
0.12882
0.127255
0.13821
0.135912
0.137919
0.133295
0.129864
0.140213
0.150464
0.14276
0.136995
0.137943
0.149087
0.145505
0.145598
0.147613
0.130264
0.126017
0.108011
0.0938584
0.123393
0.137398
0.130143
0.125806
0.127333
0.130679
0.126122
0.130489
0.120057
0.107752
0.0842334
0.0773569
0.0863784
0.0998253
0.10765
0.0813818
0.0682932
0.0677559
0.0607423
0.0570525
0.0573007
0.0650044
0.0677108
0.0669989
0.0763468
0.0714378
0.0599501
0.0528197
0.0558768
0.0550208
0.0484725
0.0478762
0.0459504
0.0387837
0.0360613
0.0457842
0.0444911
0.0362279
0.0105922
-0.24105
-0.247252
-0.247443
-0.23265
-0.221335
-0.219197
-0.217931
-0.211299
-0.216631
-0.213624
-0.208969
-0.202735
-0.186055
-0.166919
-0.15255
-0.139331
-0.13549
-0.128995
-0.108071
-0.0780331
-0.0399038
-0.016334
-0.0172998
-0.0251062
-0.0247205
-0.0117633
0.00233848
0.00735685
0.0136712
0.00943812
0.0111811
0.0422825
0.0652353
0.0777958
0.0868579
0.090795
0.0912869
0.0958829
0.101595
0.108309
0.121874
0.131813
0.137526
0.134967
0.122679
0.13391
0.137955
0.146815
0.136136
0.137264
0.146859
0.139746
0.136585
0.139477
0.140984
0.15646
0.164372
0.134007
0.105521
0.103804
0.113253
0.120159
0.127192
0.125143
0.126442
0.136575
0.139663
0.13032
0.1192
0.109786
0.104224
0.0973
0.0915573
0.0978085
0.0937059
0.0939089
0.090317
0.0669319
0.0511603
0.0553911
0.061812
0.0671987
0.0705425
0.0771112
0.0764075
0.070917
0.0706146
0.0616402
0.0568418
0.0551918
0.043158
0.0450117
0.0441644
0.0428945
0.0422907
0.0408627
0.0383152
0.0400137
0.0345788
0.00944969
-0.256331
-0.235379
-0.227697
-0.21415
-0.224273
-0.23047
-0.238566
-0.235081
-0.219809
-0.210009
-0.199951
-0.193765
-0.176867
-0.169236
-0.159394
-0.142253
-0.123919
-0.110724
-0.0958127
-0.0792732
-0.0598936
-0.0338112
-0.0266971
-0.0196206
-0.0184663
-0.0174199
-0.0172131
-0.00142344
0.0123907
0.0179536
0.0253566
0.0355439
0.0542796
0.0722286
0.0915363
0.0968653
0.0934685
0.102634
0.111873
0.116148
0.118845
0.123444
0.124593
0.132867
0.130983
0.140871
0.142429
0.131222
0.130709
0.140337
0.151731
0.145573
0.146057
0.153048
0.152528
0.141995
0.137149
0.120989
0.115688
0.120764
0.105911
0.111963
0.122255
0.12377
0.122682
0.131393
0.129436
0.126609
0.119507
0.105536
0.101575
0.101731
0.0988415
0.100883
0.0902906
0.091839
0.0814675
0.0740128
0.0645373
0.0574005
0.0624266
0.0679785
0.0704213
0.0732811
0.0698752
0.0668071
0.063317
0.066488
0.0611866
0.0502399
0.04865
0.047573
0.0454615
0.0366927
0.0382507
0.0390959
0.0381433
0.0379771
0.0342899
0.0138887
-0.250002
-0.23956
-0.2383
-0.225551
-0.224258
-0.225706
-0.223602
-0.215868
-0.217111
-0.225368
-0.215747
-0.194478
-0.17497
-0.176377
-0.15357
-0.137817
-0.126086
-0.118684
-0.107941
-0.0890813
-0.0556122
-0.031458
-0.0189658
-0.0139061
-0.0157612
-0.0201653
-0.0144262
0.00152934
0.0123999
0.01703
0.0225928
0.0360498
0.0515071
0.0662033
0.0873285
0.0964633
0.0980676
0.104564
0.111811
0.118276
0.120978
0.130291
0.128325
0.131342
0.129338
0.129247
0.131573
0.139427
0.136735
0.145962
0.152575
0.148204
0.149879
0.142935
0.130045
0.134848
0.140336
0.13172
0.122273
0.119662
0.109485
0.113825
0.123353
0.123283
0.125251
0.129399
0.139921
0.137107
0.123325
0.101362
0.0996178
0.0964729
0.0930105
0.093265
0.0961751
0.0950518
0.078175
0.0671446
0.0618326
0.0608106
0.0628233
0.0639544
0.0747473
0.0742063
0.0750524
0.0805132
0.0765491
0.0616424
0.043831
0.0439693
0.0538063
0.0545708
0.0465012
0.043669
0.0361834
0.0362214
0.0452412
0.0453682
0.0363544
0.0130317
-0.23081
-0.238338
-0.237062
-0.23488
-0.237904
-0.235885
-0.225435
-0.224515
-0.225533
-0.220594
-0.20174
-0.186069
-0.172507
-0.164302
-0.161921
-0.148157
-0.132364
-0.121379
-0.102087
-0.082185
-0.0595214
-0.0363149
-0.0199185
-0.0132369
-0.00531024
-0.0105875
-0.0112846
-0.00641422
-0.00611856
0.00294174
0.0265934
0.057931
0.0681725
0.0714592
0.0737064
0.0815489
0.087587
0.0960673
0.107183
0.121088
0.131473
0.132468
0.133734
0.126408
0.126307
0.127068
0.128427
0.137641
0.140201
0.14418
0.151505
0.159498
0.152094
0.145622
0.133266
0.135778
0.13925
0.132855
0.122482
0.118443
0.118079
0.114459
0.11216
0.113197
0.117576
0.12983
0.137982
0.133511
0.122756
0.108211
0.102332
0.0955939
0.096373
0.0936239
0.0913859
0.0918362
0.0880478
0.07714
0.0545344
0.055693
0.0628345
0.0652785
0.0818694
0.0805211
0.0672165
0.0706328
0.0632574
0.0619265
0.0533836
0.0495025
0.0514334
0.0464718
0.0436852
0.0428618
0.0428186
0.0398792
0.0360953
0.0364325
0.0311136
0.0126669
-0.233067
-0.244208
-0.247356
-0.240673
-0.230942
-0.218468
-0.210848
-0.224016
-0.238147
-0.220054
-0.201315
-0.194545
-0.177431
-0.167514
-0.154717
-0.137685
-0.12766
-0.128234
-0.113529
-0.0818601
-0.0604299
-0.0423335
-0.0322722
-0.0226749
-0.0127816
-0.00665471
-0.00709708
-0.00563671
-0.00296965
0.017512
0.0373984
0.0444574
0.0447566
0.0631476
0.0862416
0.0977186
0.100665
0.107222
0.106924
0.115566
0.134151
0.13473
0.129522
0.121514
0.117954
0.121894
0.126615
0.134222
0.146258
0.152295
0.157642
0.159367
0.152192
0.141732
0.129936
0.128384
0.131214
0.133512
0.13105
0.11578
0.115378
0.119107
0.122198
0.122318
0.120062
0.118068
0.116335
0.126475
0.122455
0.1207
0.105538
0.0913758
0.0888767
0.0889649
0.087509
0.0866545
0.0855308
0.0794196
0.0713914
0.0670204
0.0664258
0.0687263
0.0738766
0.0734016
0.0711205
0.0685267
0.0676004
0.0700949
0.0621105
0.0532235
0.0506022
0.0487514
0.039716
0.0385003
0.0418609
0.0418327
0.0376493
0.0341344
0.0269439
0.0142375
-0.238156
-0.233369
-0.232567
-0.238119
-0.24598
-0.235305
-0.227719
-0.225985
-0.219823
-0.211726
-0.203653
-0.19572
-0.178441
-0.155186
-0.154208
-0.161074
-0.149477
-0.125922
-0.102996
-0.0840743
-0.0603098
-0.0355228
-0.0221345
-0.0148111
-0.0126407
-0.00893905
-0.00798404
-0.0065756
0.00244996
0.0178838
0.0314427
0.0377214
0.0585082
0.0719965
0.0813323
0.0906289
0.0919144
0.100611
0.108989
0.125329
0.130898
0.128962
0.124351
0.119024
0.121584
0.123685
0.123014
0.133825
0.151723
0.160569
0.16026
0.158758
0.142056
0.138415
0.141159
0.137904
0.134054
0.133293
0.130293
0.120319
0.111899
0.115834
0.119704
0.120659
0.121169
0.12237
0.130229
0.130941
0.116685
0.104807
0.0918096
0.0896968
0.0871531
0.0878964
0.0917989
0.0975967
0.0871848
0.0779656
0.0722636
0.0673942
0.0683382
0.0704164
0.0741723
0.0692129
0.0632873
0.0603308
0.0610849
0.0643943
0.0589136
0.0573656
0.0597906
0.0583582
0.0514228
0.0413922
0.0338772
0.0310903
0.0372758
0.0436511
0.040777
0.0139589
-0.233963
-0.242794
-0.25699
-0.237814
-0.231736
-0.221526
-0.210397
-0.221495
-0.225341
-0.231742
-0.219397
-0.195256
-0.173787
-0.153588
-0.14391
-0.148103
-0.157257
-0.138649
-0.108301
-0.08397
-0.0589782
-0.0352181
-0.0192369
-0.0108982
-0.00800926
-0.0128613
-0.0150201
-0.0110907
5.63309e-05
0.0161047
0.0218067
0.0314424
0.0498518
0.0786356
0.0981372
0.103857
0.103715
0.104755
0.108491
0.120465
0.125744
0.125147
0.119253
0.119035
0.122651
0.126598
0.132361
0.136436
0.143864
0.153004
0.155742
0.154354
0.153557
0.151421
0.14433
0.133616
0.131591
0.129338
0.129983
0.125565
0.112691
0.110491
0.113676
0.115631
0.118071
0.126393
0.131181
0.119608
0.115353
0.108483
0.100764
0.0907761
0.0813645
0.0844338
0.0983629
0.107238
0.087277
0.0712915
0.0673818
0.0712457
0.072475
0.0644381
0.0673704
0.0650408
0.0598214
0.070824
0.0743482
0.0616868
0.0559606
0.0547136
0.0613457
0.0642243
0.0585841
0.0491774
0.0333071
0.0222844
0.0327855
0.0462802
0.043044
0.0128945
-0.236112
-0.236003
-0.244165
-0.244108
-0.242082
-0.228472
-0.222652
-0.222013
-0.22332
-0.208495
-0.198166
-0.183817
-0.180541
-0.174146
-0.169861
-0.168869
-0.152423
-0.127612
-0.108961
-0.0835293
-0.0583853
-0.0284962
-0.0186802
-0.016909
-0.0108736
-0.00260564
-0.0120199
-0.00207101
0.0173937
0.0228144
0.0220347
0.0286635
0.0356355
0.0558308
0.0961185
0.112141
0.109793
0.108442
0.108773
0.118081
0.123779
0.126727
0.1176
0.113195
0.11375
0.113261
0.129725
0.145278
0.154475
0.162791
0.159491
0.146765
0.147441
0.148791
0.143517
0.137537
0.140959
0.13596
0.130268
0.123225
0.112189
0.114941
0.118231
0.11781
0.122544
0.127253
0.125781
0.125182
0.11629
0.0930189
0.0830782
0.0815581
0.0852489
0.0924794
0.101869
0.108741
0.0948982
0.0711415
0.066885
0.06608
0.0686709
0.067014
0.0708061
0.0684749
0.0631821
0.069216
0.0742252
0.0639979
0.0511488
0.0515608
0.0598116
0.0659792
0.0585285
0.0428409
0.0233146
0.0213101
0.0393715
0.0409705
0.0368966
0.0124023
-0.244676
-0.244191
-0.249372
-0.237168
-0.229559
-0.231198
-0.231045
-0.224976
-0.215614