/*--------------------------------*- C++ -*----------------------------------*\
| =========                 |                                                 |
| \\      /  F ield         | OpenFOAM: The Open Source CFD Toolbox           |
|  \\    /   O peration     | Version:  v2012                                 |
|   \\  /    A nd           | Website:  www.openfoam.com                      |
|    \\/     M anipulation  |                                                 |
\*---------------------------------------------------------------------------*/
FoamFile
{
    version     2.0;
    format      ascii;
    class       volScalarField;
    location    "0.5";
    object      p;
}
// * * * * * * * * * * * * * * * * * * * * * * * * * * * * * * * * * * * * * //

dimensions      [0 2 -2 0 0 0 0];


internalField   nonuniform List<scalar> 
65536
(
-1.5299e-09
-2.61543e-06
-7.82839e-06
-1.5608e-05
-2.59551e-05
-3.88779e-05
-5.43763e-05
-7.2446e-05
-9.30831e-05
-0.000116284
-0.000142043
-0.000170355
-0.000201214
-0.000234613
-0.000270545
-0.000309001
-0.000349972
-0.000393449
-0.00043942
-0.000487875
-0.0005388
-0.000592185
-0.000648013
-0.00070627
-0.000766941
-0.000830008
-0.000895454
-0.00096326
-0.00103341
-0.00110587
-0.00118063
-0.00125766
-0.00133694
-0.00141844
-0.00150214
-0.001588
-0.00167599
-0.00176609
-0.00185826
-0.00195246
-0.00204867
-0.00214683
-0.00224692
-0.00234889
-0.0024527
-0.00255831
-0.00266566
-0.00277472
-0.00288543
-0.00299774
-0.0031116
-0.00322696
-0.00334375
-0.00346193
-0.00358142
-0.00370218
-0.00382414
-0.00394722
-0.00407138
-0.00419653
-0.00432261
-0.00444954
-0.00457726
-0.00470569
-0.00483475
-0.00496437
-0.00509446
-0.00522496
-0.00535576
-0.0054868
-0.00561799
-0.00574924
-0.00588047
-0.00601159
-0.00614251
-0.00627315
-0.00640341
-0.0065332
-0.00666244
-0.00679103
-0.00691887
-0.00704589
-0.00717199
-0.00729707
-0.00742104
-0.00754382
-0.0076653
-0.00778541
-0.00790404
-0.00802112
-0.00813654
-0.00825022
-0.00836208
-0.00847202
-0.00857996
-0.00868582
-0.00878951
-0.00889096
-0.00899008
-0.00908679
-0.00918102
-0.0092727
-0.00936174
-0.00944808
-0.00953166
-0.00961239
-0.00969023
-0.00976511
-0.00983696
-0.00990574
-0.00997138
-0.0100338
-0.0100931
-0.010149
-0.0102016
-0.0102509
-0.0102967
-0.0103391
-0.010378
-0.0104135
-0.0104454
-0.0104737
-0.0104985
-0.0105197
-0.0105373
-0.0105513
-0.0105616
-0.0105683
-0.0105714
-0.0105709
-0.0105668
-0.010559
-0.0105477
-0.0105327
-0.0105142
-0.0104921
-0.0104665
-0.0104374
-0.0104048
-0.0103688
-0.0103293
-0.0102865
-0.0102404
-0.0101909
-0.0101382
-0.0100824
-0.0100233
-0.0099612
-0.00989604
-0.0098279
-0.00975683
-0.00968291
-0.00960619
-0.00952674
-0.00944463
-0.00935993
-0.00927271
-0.00918304
-0.009091
-0.00899667
-0.00890012
-0.00880143
-0.00870069
-0.00859798
-0.00849337
-0.00838695
-0.00827881
-0.00816903
-0.0080577
-0.00794491
-0.00783074
-0.00771527
-0.00759861
-0.00748083
-0.00736203
-0.00724229
-0.00712169
-0.00700034
-0.00687831
-0.0067557
-0.00663258
-0.00650905
-0.00638519
-0.00626109
-0.00613683
-0.00601249
-0.00588816
-0.00576392
-0.00563984
-0.00551602
-0.00539252
-0.00526942
-0.00514681
-0.00502475
-0.00490331
-0.00478257
-0.00466261
-0.00454348
-0.00442525
-0.004308
-0.00419178
-0.00407666
-0.0039627
-0.00384996
-0.0037385
-0.00362837
-0.00351963
-0.00341233
-0.00330653
-0.00320227
-0.0030996
-0.00299857
-0.00289922
-0.0028016
-0.00270575
-0.00261172
-0.00251953
-0.00242923
-0.00234085
-0.00225444
-0.00217001
-0.00208761
-0.00200726
-0.001929
-0.00185285
-0.00177884
-0.00170699
-0.00163733
-0.00156989
-0.00150467
-0.00144171
-0.00138103
-0.00132264
-0.00126656
-0.0012128
-0.00116139
-0.00111234
-0.00106566
-0.00102137
-0.000979471
-0.000939982
-0.000902913
-0.000868272
-0.00083607
-0.000806314
-0.000779012
-0.00075417
-0.000731796
-0.000711894
-0.000694469
-0.000679525
-0.000667067
-0.000657097
-0.000649617
-0.000644628
-0.000642137
-1.17904e-06
-3.78685e-06
-8.98833e-06
-1.67602e-05
-2.71041e-05
-4.00257e-05
-5.55231e-05
-7.35923e-05
-9.42292e-05
-0.00011743
-0.000143189
-0.000171502
-0.000202362
-0.000235762
-0.000271694
-0.000310151
-0.000351124
-0.000394601
-0.000440574
-0.000489031
-0.000539959
-0.000593345
-0.000649176
-0.000707436
-0.00076811
-0.000831181
-0.00089663
-0.00096444
-0.00103459
-0.00110706
-0.00118182
-0.00125886
-0.00133815
-0.00141966
-0.00150336
-0.00158923
-0.00167723
-0.00176734
-0.00185951
-0.00195373
-0.00204994
-0.00214812
-0.00224822
-0.00235021
-0.00245403
-0.00255965
-0.00266702
-0.00277609
-0.00288682
-0.00299915
-0.00311303
-0.0032284
-0.00334521
-0.00346341
-0.00358293
-0.00370371
-0.00382569
-0.0039488
-0.00407298
-0.00419815
-0.00432426
-0.00445122
-0.00457897
-0.00470743
-0.00483652
-0.00496617
-0.00509629
-0.00522682
-0.00535766
-0.00548873
-0.00561995
-0.00575124
-0.0058825
-0.00601366
-0.00614462
-0.00627529
-0.00640559
-0.00653542
-0.00666469
-0.00679332
-0.00692121
-0.00704826
-0.0071744
-0.00729952
-0.00742353
-0.00754635
-0.00766787
-0.00778802
-0.00790669
-0.0080238
-0.00813927
-0.00825299
-0.00836488
-0.00847486
-0.00858284
-0.00868874
-0.00879247
-0.00889395
-0.00899311
-0.00908986
-0.00918412
-0.00927583
-0.00936491
-0.00945128
-0.00953489
-0.00961566
-0.00969352
-0.00976843
-0.00984031
-0.00990911
-0.00997477
-0.0100373
-0.0100965
-0.0101525
-0.0102051
-0.0102544
-0.0103002
-0.0103426
-0.0103816
-0.010417
-0.0104489
-0.0104773
-0.0105021
-0.0105233
-0.0105409
-0.0105549
-0.0105652
-0.010572
-0.0105751
-0.0105745
-0.0105704
-0.0105626
-0.0105513
-0.0105363
-0.0105178
-0.0104957
-0.0104701
-0.0104409
-0.0104083
-0.0103723
-0.0103328
-0.01029
-0.0102438
-0.0101944
-0.0101417
-0.0100858
-0.0100267
-0.00996457
-0.00989938
-0.00983121
-0.00976012
-0.00968617
-0.00960942
-0.00952994
-0.0094478
-0.00936306
-0.00927581
-0.0091861
-0.00909403
-0.00899966
-0.00890308
-0.00880435
-0.00870357
-0.00860082
-0.00849617
-0.00838972
-0.00828154
-0.00817172
-0.00806035
-0.00794752
-0.00783331
-0.00771781
-0.0076011
-0.00748329
-0.00736444
-0.00724466
-0.00712403
-0.00700264
-0.00688057
-0.00675792
-0.00663476
-0.00651119
-0.0063873
-0.00626316
-0.00613886
-0.00601449
-0.00589013
-0.00576585
-0.00564174
-0.00551788
-0.00539435
-0.00527122
-0.00514858
-0.00502649
-0.00490502
-0.00478425
-0.00466426
-0.0045451
-0.00442685
-0.00430957
-0.00419333
-0.00407819
-0.0039642
-0.00385144
-0.00373996
-0.00362981
-0.00352105
-0.00341373
-0.00330791
-0.00320363
-0.00310094
-0.00299989
-0.00290053
-0.0028029
-0.00270704
-0.00261298
-0.00252078
-0.00243047
-0.00234208
-0.00225566
-0.00217122
-0.00208881
-0.00200845
-0.00193018
-0.00185402
-0.00178
-0.00170815
-0.00163848
-0.00157103
-0.00150581
-0.00144285
-0.00138216
-0.00132376
-0.00126767
-0.00121392
-0.0011625
-0.00111345
-0.00106677
-0.00102247
-0.000980568
-0.000941077
-0.000904005
-0.000869363
-0.000837159
-0.000807401
-0.000780097
-0.000755255
-0.000732879
-0.000712976
-0.00069555
-0.000680606
-0.000668147
-0.000658176
-0.000650696
-0.000645707
-0.000643215
-3.51365e-06
-6.11033e-06
-1.12978e-05
-1.90616e-05
-2.94029e-05
-4.23228e-05
-5.78191e-05
-7.58878e-05
-9.65247e-05
-0.000119726
-0.000145486
-0.000173799
-0.00020466
-0.000238062
-0.000273996
-0.000312455
-0.00035343
-0.00039691
-0.000442886
-0.000491346
-0.000542278
-0.000595669
-0.000651505
-0.00070977
-0.000770451
-0.000833528
-0.000898986
-0.000966804
-0.00103696
-0.00110944
-0.00118422
-0.00126127
-0.00134056
-0.00142209
-0.0015058
-0.00159169
-0.00167971
-0.00176983
-0.00186203
-0.00195626
-0.0020525
-0.0021507
-0.00225083
-0.00235283
-0.00245669
-0.00256233
-0.00266973
-0.00277884
-0.0028896
-0.00300196
-0.00311588
-0.00323129
-0.00334814
-0.00346638
-0.00358594
-0.00370677
-0.00382879
-0.00395195
-0.00407618
-0.00420141
-0.00432757
-0.00445458
-0.00458239
-0.0047109
-0.00484005
-0.00496976
-0.00509995
-0.00523054
-0.00536145
-0.00549259
-0.00562388
-0.00575524
-0.00588657
-0.0060178
-0.00614883
-0.00627958
-0.00640995
-0.00653985
-0.00666921
-0.00679791
-0.00692588
-0.00705301
-0.00717923
-0.00730443
-0.00742852
-0.00755142
-0.00767302
-0.00779325
-0.007912
-0.00802919
-0.00814473
-0.00825853
-0.0083705
-0.00848056
-0.00858862
-0.00869459
-0.0087984
-0.00889995
-0.00899918
-0.009096
-0.00919033
-0.00928211
-0.00937125
-0.00945769
-0.00954136
-0.00962219
-0.00970011
-0.00977507
-0.00984701
-0.00991586
-0.00998158
-0.0100441
-0.0101034
-0.0101594
-0.0102121
-0.0102614
-0.0103073
-0.0103497
-0.0103887
-0.0104242
-0.0104561
-0.0104845
-0.0105093
-0.0105305
-0.0105481
-0.0105621
-0.0105725
-0.0105792
-0.0105823
-0.0105818
-0.0105776
-0.0105699
-0.0105585
-0.0105435
-0.010525
-0.0105029
-0.0104772
-0.0104481
-0.0104155
-0.0103794
-0.0103399
-0.010297
-0.0102508
-0.0102013
-0.0101486
-0.0100926
-0.0100335
-0.00997132
-0.00990608
-0.00983785
-0.0097667
-0.00969269
-0.00961588
-0.00953634
-0.00945413
-0.00936933
-0.00928201
-0.00919224
-0.0091001
-0.00900566
-0.008909
-0.0088102
-0.00870935
-0.00860652
-0.00850179
-0.00839526
-0.008287
-0.00817711
-0.00806566
-0.00795275
-0.00783846
-0.00772288
-0.0076061
-0.0074882
-0.00736928
-0.00724942
-0.00712871
-0.00700724
-0.00688509
-0.00676236
-0.00663913
-0.00651549
-0.00639152
-0.00626731
-0.00614294
-0.0060185
-0.00589406
-0.00576972
-0.00564554
-0.00552162
-0.00539802
-0.00527483
-0.00515212
-0.00502997
-0.00490844
-0.00478762
-0.00466757
-0.00454836
-0.00443005
-0.00431272
-0.00419643
-0.00408124
-0.00396721
-0.0038544
-0.00374287
-0.00363268
-0.00352388
-0.00341652
-0.00331066
-0.00320635
-0.00310363
-0.00300255
-0.00290315
-0.00280549
-0.0027096
-0.00261552
-0.0025233
-0.00243296
-0.00234455
-0.0022581
-0.00217364
-0.00209121
-0.00201084
-0.00193255
-0.00185637
-0.00178234
-0.00171047
-0.00164079
-0.00157332
-0.00150809
-0.00144511
-0.00138441
-0.00132601
-0.00126991
-0.00121615
-0.00116473
-0.00111566
-0.00106897
-0.00102467
-0.000982766
-0.00094327
-0.000906194
-0.000871547
-0.000839339
-0.000809578
-0.000782272
-0.000757426
-0.000735048
-0.000715143
-0.000697715
-0.000682769
-0.000670309
-0.000660338
-0.000652856
-0.000647867
-0.000645375
-6.97775e-06
-9.56712e-06
-1.47467e-05
-2.2507e-05
-3.28472e-05
-4.57664e-05
-6.1262e-05
-7.93304e-05
-9.99677e-05
-0.000123169
-0.00014893
-0.000177245
-0.000208108
-0.000241512
-0.000277449
-0.000315911
-0.000356889
-0.000400374
-0.000446355
-0.00049482
-0.000545758
-0.000599156
-0.000654999
-0.000713273
-0.000773962
-0.00083705
-0.000902519
-0.000970349
-0.00104052
-0.00111301
-0.00118781
-0.00126487
-0.00134419
-0.00142573
-0.00150947
-0.00159538
-0.00168342
-0.00177357
-0.0018658
-0.00196007
-0.00205633
-0.00215457
-0.00225473
-0.00235678
-0.00246067
-0.00256636
-0.00267381
-0.00278296
-0.00289377
-0.00300618
-0.00312015
-0.00323562
-0.00335254
-0.00347084
-0.00359047
-0.00371136
-0.00383345
-0.00395668
-0.00408098
-0.00420629
-0.00433253
-0.00445963
-0.00458752
-0.00471612
-0.00484536
-0.00497516
-0.00510545
-0.00523613
-0.00536714
-0.00549838
-0.00562977
-0.00576123
-0.00589267
-0.00602401
-0.00615515
-0.00628601
-0.00641649
-0.00654651
-0.00667598
-0.0068048
-0.00693289
-0.00706014
-0.00718647
-0.00731179
-0.00743601
-0.00755902
-0.00768075
-0.00780109
-0.00791996
-0.00803727
-0.00815293
-0.00826685
-0.00837894
-0.00848911
-0.00859728
-0.00870337
-0.00880729
-0.00890895
-0.00900829
-0.00910521
-0.00919965
-0.00929153
-0.00938077
-0.00946731
-0.00955107
-0.00963199
-0.00971
-0.00978505
-0.00985707
-0.009926
-0.00999179
-0.0100544
-0.0101137
-0.0101698
-0.0102226
-0.0102719
-0.0103179
-0.0103604
-0.0103994
-0.0104349
-0.0104669
-0.0104953
-0.0105201
-0.0105414
-0.010559
-0.010573
-0.0105834
-0.0105901
-0.0105932
-0.0105927
-0.0105885
-0.0105808
-0.0105694
-0.0105544
-0.0105358
-0.0105137
-0.010488
-0.0104588
-0.0104261
-0.01039
-0.0103505
-0.0103075
-0.0102613
-0.0102117
-0.0101589
-0.0101029
-0.0100437
-0.00998144
-0.00991612
-0.00984781
-0.00977658
-0.00970248
-0.00962558
-0.00954594
-0.00946364
-0.00937874
-0.00929132
-0.00920144
-0.0091092
-0.00901465
-0.00891788
-0.00881897
-0.00871801
-0.00861506
-0.00851023
-0.00840358
-0.0082952
-0.00818519
-0.00807363
-0.0079606
-0.00784619
-0.00773049
-0.00761359
-0.00749557
-0.00737653
-0.00725656
-0.00713573
-0.00701414
-0.00689188
-0.00676904
-0.0066457
-0.00652194
-0.00639786
-0.00627354
-0.00614906
-0.00602451
-0.00589997
-0.00577552
-0.00565125
-0.00552722
-0.00540353
-0.00528024
-0.00515744
-0.0050352
-0.00491358
-0.00479267
-0.00467254
-0.00455324
-0.00443486
-0.00431745
-0.00420108
-0.00408582
-0.00397172
-0.00385884
-0.00374725
-0.003637
-0.00352813
-0.00342072
-0.0033148
-0.00321043
-0.00310766
-0.00300653
-0.00290709
-0.00280938
-0.00271345
-0.00261933
-0.00252706
-0.00243669
-0.00234824
-0.00226176
-0.00217727
-0.00209481
-0.00201441
-0.00193609
-0.00185989
-0.00178583
-0.00171394
-0.00164424
-0.00157676
-0.00151151
-0.00144851
-0.0013878
-0.00132938
-0.00127327
-0.00121949
-0.00116806
-0.00111899
-0.00107229
-0.00102798
-0.000986063
-0.00094656
-0.000909477
-0.000874824
-0.000842611
-0.000812844
-0.000785533
-0.000760684
-0.000738302
-0.000718394
-0.000700963
-0.000686015
-0.000673553
-0.00066358
-0.000656098
-0.000651108
-0.000648615
-1.15763e-05
-1.41628e-05
-1.93399e-05
-2.70989e-05
-3.74388e-05
-5.03578e-05
-6.58533e-05
-8.39219e-05
-0.00010456
-0.000127763
-0.000153525
-0.000181843
-0.000212708
-0.000246115
-0.000282055
-0.000320521
-0.000361505
-0.000404995
-0.000450982
-0.000499454
-0.0005504
-0.000603806
-0.00065966
-0.000717945
-0.000778647
-0.000841748
-0.000907232
-0.000975078
-0.00104527
-0.00111778
-0.00119259
-0.00126968
-0.00134903
-0.00143059
-0.00151436
-0.0016003
-0.00168838
-0.00177857
-0.00187083
-0.00196514
-0.00206145
-0.00215973
-0.00225994
-0.00236204
-0.00246599
-0.00257173
-0.00267924
-0.00278845
-0.00289933
-0.00301182
-0.00312586
-0.00324141
-0.0033584
-0.00347678
-0.0035965
-0.00371748
-0.00383967
-0.00396299
-0.0040874
-0.0042128
-0.00433915
-0.00446636
-0.00459436
-0.00472308
-0.00485244
-0.00498237
-0.00511278
-0.00524359
-0.00537473
-0.0055061
-0.00563763
-0.00576923
-0.00590082
-0.0060323
-0.00616359
-0.00629459
-0.00642523
-0.0065554
-0.00668502
-0.006814
-0.00694224
-0.00706965
-0.00719614
-0.00732162
-0.00744599
-0.00756917
-0.00769105
-0.00781156
-0.00793059
-0.00804806
-0.00816387
-0.00827795
-0.00839019
-0.00850052
-0.00860885
-0.00871508
-0.00881915
-0.00892096
-0.00902044
-0.00911751
-0.00921209
-0.0093041
-0.00939348
-0.00948014
-0.00956403
-0.00964507
-0.00972321
-0.00979837
-0.00987049
-0.00993953
-0.0100054
-0.0100681
-0.0101276
-0.0101837
-0.0102365
-0.010286
-0.010332
-0.0103746
-0.0104136
-0.0104492
-0.0104812
-0.0105097
-0.0105346
-0.0105558
-0.0105735
-0.0105875
-0.0105979
-0.0106047
-0.0106078
-0.0106072
-0.0106031
-0.0105953
-0.0105839
-0.0105688
-0.0105502
-0.0105281
-0.0105023
-0.0104731
-0.0104404
-0.0104042
-0.0103646
-0.0103216
-0.0102752
-0.0102256
-0.0101727
-0.0101166
-0.0100573
-0.00999495
-0.00992953
-0.00986111
-0.00978976
-0.00971554
-0.00963852
-0.00955876
-0.00947633
-0.0093913
-0.00930374
-0.00921373
-0.00912134
-0.00902665
-0.00892974
-0.00883068
-0.00872956
-0.00862647
-0.00852148
-0.00841468
-0.00830615
-0.00819598
-0.00808426
-0.00797107
-0.0078565
-0.00774064
-0.00762359
-0.00750541
-0.00738621
-0.00726608
-0.0071451
-0.00702335
-0.00690094
-0.00677794
-0.00665445
-0.00653054
-0.00640631
-0.00628185
-0.00615722
-0.00603253
-0.00590785
-0.00578327
-0.00565885
-0.0055347
-0.00541087
-0.00528746
-0.00516453
-0.00504217
-0.00492044
-0.00479941
-0.00467916
-0.00455976
-0.00444127
-0.00432376
-0.00420729
-0.00409193
-0.00397774
-0.00386477
-0.00375309
-0.00364275
-0.00353381
-0.00342631
-0.00332032
-0.00321588
-0.00311304
-0.00301184
-0.00291234
-0.00281457
-0.00271858
-0.00262441
-0.00253209
-0.00244167
-0.00235317
-0.00226664
-0.00218211
-0.00209961
-0.00201917
-0.00194082
-0.00186459
-0.0017905
-0.00171858
-0.00164885
-0.00158134
-0.00151607
-0.00145305
-0.00139232
-0.00133388
-0.00127775
-0.00122396
-0.00117251
-0.00112342
-0.00107671
-0.00103239
-0.000990461
-0.000950948
-0.000913856
-0.000879195
-0.000846974
-0.000817201
-0.000789884
-0.000765029
-0.000742642
-0.00072273
-0.000705296
-0.000690345
-0.00067788
-0.000667905
-0.000660422
-0.00065543
-0.000652938
-1.7321e-05
-1.99067e-05
-2.50824e-05
-3.28405e-05
-4.318e-05
-5.60991e-05
-7.15948e-05
-8.96641e-05
-0.000110303
-0.000133508
-0.000159272
-0.000187592
-0.000218461
-0.000251871
-0.000287816
-0.000326288
-0.000367277
-0.000410774
-0.000456769
-0.00050525
-0.000556206
-0.000609624
-0.000665489
-0.000723789
-0.000784506
-0.000847624
-0.000913126
-0.000980994
-0.00105121
-0.00112374
-0.00119858
-0.0012757
-0.00135507
-0.00143668
-0.00152048
-0.00160646
-0.00169458
-0.00178481
-0.00187712
-0.00197148
-0.00206785
-0.00216618
-0.00226646
-0.00236862
-0.00247263
-0.00257845
-0.00268603
-0.00279533
-0.00290629
-0.00301886
-0.003133
-0.00324864
-0.00336573
-0.00348422
-0.00360404
-0.00372514
-0.00384744
-0.00397089
-0.00409542
-0.00422095
-0.00434743
-0.00447478
-0.00460292
-0.00473179
-0.0048613
-0.00499138
-0.00512195
-0.00525292
-0.00538422
-0.00551577
-0.00564747
-0.00577924
-0.00591101
-0.00604267
-0.00617414
-0.00630533
-0.00643615
-0.00656652
-0.00669633
-0.0068255
-0.00695394
-0.00708155
-0.00720824
-0.00733392
-0.00745849
-0.00758186
-0.00770395
-0.00782465
-0.00794389
-0.00806155
-0.00817757
-0.00829184
-0.00840428
-0.0085148
-0.00862332
-0.00872974
-0.008834
-0.008936
-0.00903566
-0.0091329
-0.00922765
-0.00931984
-0.00940938
-0.00949621
-0.00958025
-0.00966145
-0.00973973
-0.00981503
-0.00988729
-0.00995646
-0.0100225
-0.0100853
-0.0101449
-0.0102011
-0.010254
-0.0103036
-0.0103497
-0.0103923
-0.0104315
-0.0104671
-0.0104992
-0.0105277
-0.0105526
-0.010574
-0.0105916
-0.0106057
-0.0106161
-0.0106229
-0.010626
-0.0106254
-0.0106212
-0.0106134
-0.010602
-0.0105869
-0.0105683
-0.0105461
-0.0105203
-0.010491
-0.0104582
-0.0104219
-0.0103822
-0.0103392
-0.0102927
-0.010243
-0.01019
-0.0101337
-0.0100744
-0.0100119
-0.0099463
-0.00987775
-0.00980626
-0.00973189
-0.00965472
-0.0095748
-0.00949221
-0.00940701
-0.00931929
-0.0092291
-0.00913654
-0.00904167
-0.00894457
-0.00884533
-0.00874403
-0.00864074
-0.00853556
-0.00842856
-0.00831984
-0.00820948
-0.00809756
-0.00798417
-0.00786941
-0.00775335
-0.00763609
-0.00751772
-0.00739833
-0.00727799
-0.00715682
-0.00703488
-0.00691227
-0.00678908
-0.0066654
-0.0065413
-0.00641689
-0.00629224
-0.00616744
-0.00604256
-0.00591771
-0.00579295
-0.00566837
-0.00554405
-0.00542006
-0.00529649
-0.00517341
-0.00505089
-0.00492901
-0.00480784
-0.00468745
-0.00456791
-0.00444928
-0.00433164
-0.00421505
-0.00409957
-0.00398526
-0.00387218
-0.00376039
-0.00364994
-0.0035409
-0.00343331
-0.00332722
-0.00322269
-0.00311976
-0.00301849
-0.0029189
-0.00282106
-0.002725
-0.00263075
-0.00253837
-0.00244789
-0.00235934
-0.00227275
-0.00218817
-0.00210562
-0.00202513
-0.00194674
-0.00187046
-0.00179633
-0.00172438
-0.00165461
-0.00158707
-0.00152177
-0.00145873
-0.00139796
-0.0013395
-0.00128335
-0.00122954
-0.00117807
-0.00112897
-0.00108224
-0.0010379
-0.000995961
-0.000956435
-0.000919332
-0.000884661
-0.00085243
-0.000822649
-0.000795324
-0.000770463
-0.00074807
-0.000728153
-0.000710715
-0.00069576
-0.000683292
-0.000673315
-0.000665829
-0.000660837
-0.000658343
-2.42167e-05
-2.68016e-05
-3.19764e-05
-3.97339e-05
-5.00732e-05
-6.29924e-05
-7.84889e-05
-9.65593e-05
-0.0001172
-0.000140406
-0.000166174
-0.000194497
-0.000225369
-0.000258784
-0.000294735
-0.000333213
-0.000374209
-0.000417714
-0.000463718
-0.00051221
-0.000563178
-0.000616609
-0.00067249
-0.000730806
-0.000791542
-0.00085468
-0.000920205
-0.000988097
-0.00105834
-0.0011309
-0.00120577
-0.00128293
-0.00136234
-0.00144398
-0.00152783
-0.00161385
-0.00170202
-0.00179231
-0.00188468
-0.0019791
-0.00207553
-0.00217394
-0.00227428
-0.00237652
-0.00248062
-0.00258652
-0.0026942
-0.00280359
-0.00291465
-0.00302732
-0.00314157
-0.00325733
-0.00337454
-0.00349315
-0.0036131
-0.00373433
-0.00385677
-0.00398037
-0.00410505
-0.00423074
-0.00435738
-0.00448489
-0.00461321
-0.00474225
-0.00487194
-0.0050022
-0.00513296
-0.00526413
-0.00539563
-0.00552737
-0.00565928
-0.00579127
-0.00592324
-0.00605512
-0.00618681
-0.00631823
-0.00644928
-0.00657988
-0.00670992
-0.00683933
-0.006968
-0.00709584
-0.00722277
-0.00734869
-0.0074735
-0.00759712
-0.00771945
-0.00784039
-0.00795986
-0.00807777
-0.00819402
-0.00830853
-0.00842121
-0.00853196
-0.00864071
-0.00874736
-0.00885184
-0.00895406
-0.00905394
-0.0091514
-0.00924636
-0.00933875
-0.00942849
-0.00951551
-0.00959975
-0.00968113
-0.00975958
-0.00983506
-0.00990749
-0.00997682
-0.010043
-0.0101059
-0.0101656
-0.010222
-0.0102751
-0.0103247
-0.0103709
-0.0104137
-0.0104529
-0.0104886
-0.0105208
-0.0105494
-0.0105744
-0.0105957
-0.0106134
-0.0106275
-0.010638
-0.0106447
-0.0106478
-0.0106473
-0.0106431
-0.0106353
-0.0106238
-0.0106087
-0.01059
-0.0105677
-0.0105419
-0.0105125
-0.0104796
-0.0104433
-0.0104035
-0.0103603
-0.0103137
-0.0102639
-0.0102107
-0.0101544
-0.0100948
-0.0100322
-0.00996647
-0.00989775
-0.00982608
-0.00975154
-0.00967418
-0.00959408
-0.00951129
-0.0094259
-0.00933797
-0.00924757
-0.0091548
-0.00905971
-0.0089624
-0.00886293
-0.0087614
-0.00865789
-0.00855248
-0.00844525
-0.00833629
-0.00822569
-0.00811354
-0.00799991
-0.00788491
-0.00776861
-0.00765112
-0.00753251
-0.00741288
-0.00729231
-0.00717089
-0.00704872
-0.00692588
-0.00680246
-0.00667855
-0.00655423
-0.00642959
-0.00630472
-0.0061797
-0.00605461
-0.00592955
-0.00580458
-0.0056798
-0.00555528
-0.00543109
-0.00530733
-0.00518406
-0.00506136
-0.0049393
-0.00481796
-0.0046974
-0.00457769
-0.00445891
-0.00434111
-0.00422437
-0.00410874
-0.00399429
-0.00388107
-0.00376915
-0.00365858
-0.00354941
-0.00344171
-0.00333551
-0.00323087
-0.00312784
-0.00302646
-0.00292678
-0.00282885
-0.0027327
-0.00263838
-0.00254592
-0.00245536
-0.00236674
-0.00228008
-0.00219544
-0.00211283
-0.00203229
-0.00195384
-0.00187751
-0.00180334
-0.00173134
-0.00166153
-0.00159395
-0.00152861
-0.00146554
-0.00140474
-0.00134625
-0.00129008
-0.00123624
-0.00118475
-0.00113562
-0.00108888
-0.00104452
-0.00100256
-0.000963024
-0.000925907
-0.000891223
-0.000858982
-0.000829191
-0.000801857
-0.000776988
-0.000754588
-0.000734664
-0.000717221
-0.000702262
-0.00068979
-0.00067981
-0.000672322
-0.000667328
-0.000664834
-3.22654e-05
-3.48499e-05
-4.00242e-05
-4.77816e-05
-5.8121e-05
-7.10407e-05
-8.65382e-05
-0.00010461
-0.000125253
-0.000148462
-0.000174232
-0.000202559
-0.000233436
-0.000266857
-0.000302813
-0.000341299
-0.000382303
-0.000425818
-0.000471833
-0.000520338
-0.000571319
-0.000624766
-0.000680664
-0.000739
-0.000799757
-0.00086292
-0.000928471
-0.000996391
-0.00106666
-0.00113926
-0.00121417
-0.00129136
-0.00137082
-0.00145251
-0.00153641
-0.00162249
-0.00171072
-0.00180106
-0.0018935
-0.00198799
-0.0020845
-0.00218299
-0.00228342
-0.00238575
-0.00248994
-0.00259595
-0.00270372
-0.00281323
-0.0029244
-0.0030372
-0.00315158
-0.00326747
-0.00338482
-0.00350358
-0.00362368
-0.00374507
-0.00386768
-0.00399144
-0.00411629
-0.00424217
-0.00436899
-0.0044967
-0.00462521
-0.00475446
-0.00488436
-0.00501484
-0.00514582
-0.00527721
-0.00540895
-0.00554093
-0.00567308
-0.00580531
-0.00593754
-0.00606967
-0.00620162
-0.0063333
-0.00646462
-0.00659548
-0.00672579
-0.00685547
-0.00698442
-0.00711255
-0.00723975
-0.00736595
-0.00749104
-0.00761494
-0.00773755
-0.00785878
-0.00797853
-0.00809672
-0.00821325
-0.00832804
-0.00844099
-0.00855201
-0.00866103
-0.00876795
-0.00887269
-0.00897517
-0.0090753
-0.00917301
-0.00926822
-0.00936085
-0.00945082
-0.00953807
-0.00962253
-0.00970412
-0.00978279
-0.00985847
-0.00993109
-0.0100006
-0.0100669
-0.0101301
-0.0101899
-0.0102465
-0.0102997
-0.0103494
-0.0103958
-0.0104387
-0.010478
-0.0105138
-0.0105461
-0.0105747
-0.0105998
-0.0106212
-0.0106389
-0.0106531
-0.0106635
-0.0106703
-0.0106734
-0.0106729
-0.0106687
-0.0106608
-0.0106493
-0.0106341
-0.0106154
-0.010593
-0.0105671
-0.0105376
-0.0105047
-0.0104682
-0.0104283
-0.010385
-0.0103383
-0.0102883
-0.010235
-0.0101785
-0.0101188
-0.0100559
-0.00999003
-0.00992112
-0.00984925
-0.0097745
-0.00969693
-0.0096166
-0.00953359
-0.00944796
-0.0093598
-0.00926916
-0.00917613
-0.0090808
-0.00898322
-0.0088835
-0.00878171
-0.00867793
-0.00857225
-0.00846474
-0.00835551
-0.00824464
-0.0081322
-0.0080183
-0.00790302
-0.00778645
-0.00766867
-0.00754978
-0.00742987
-0.00730903
-0.00718734
-0.00706489
-0.00694178
-0.00681809
-0.00669391
-0.00656933
-0.00644443
-0.0063193
-0.00619402
-0.00606869
-0.00594338
-0.00581817
-0.00569315
-0.00556839
-0.00544398
-0.00531999
-0.0051965
-0.00507359
-0.00495132
-0.00482977
-0.00470901
-0.00458912
-0.00447015
-0.00435217
-0.00423525
-0.00411945
-0.00400484
-0.00389146
-0.00377939
-0.00366867
-0.00355936
-0.00345151
-0.00334518
-0.00324042
-0.00313727
-0.00303577
-0.00293599
-0.00283795
-0.0027417
-0.00264728
-0.00255472
-0.00246408
-0.00237537
-0.00228865
-0.00220393
-0.00212125
-0.00204064
-0.00196213
-0.00188575
-0.00181152
-0.00173946
-0.00166961
-0.00160199
-0.00153661
-0.00147349
-0.00141266
-0.00135414
-0.00129793
-0.00124406
-0.00119254
-0.00114339
-0.00109662
-0.00105225
-0.00101027
-0.000970716
-0.000933583
-0.000898886
-0.000866631
-0.000836828
-0.000809484
-0.000784605
-0.000762198
-0.000742267
-0.000724817
-0.000709853
-0.000697377
-0.000687393
-0.000679903
-0.000674907
-0.000672413
-4.14708e-05
-4.40549e-05
-4.9229e-05
-5.69866e-05
-6.73266e-05
-8.02473e-05
-9.5746e-05
-0.00011382
-0.000134465
-0.000157677
-0.000183451
-0.000211782
-0.000242664
-0.000276091
-0.000312055
-0.000350549
-0.000391563
-0.000435089
-0.000481117
-0.000529635
-0.000580633
-0.000634098
-0.000690016
-0.000748374
-0.000809155
-0.000872345
-0.000937926
-0.00100588
-0.00107619
-0.00114883
-0.00122378
-0.00130102
-0.00138052
-0.00146227
-0.00154622
-0.00163236
-0.00172066
-0.00181108
-0.00190359
-0.00199816
-0.00209476
-0.00219334
-0.00229387
-0.0023963
-0.0025006
-0.00260672
-0.00271462
-0.00282425
-0.00293556
-0.00304851
-0.00316303
-0.00327907
-0.00339658
-0.00351551
-0.00363579
-0.00375735
-0.00388015
-0.00400411
-0.00412916
-0.00425524
-0.00438229
-0.00451021
-0.00463896
-0.00476844
-0.00489858
-0.0050293
-0.00516054
-0.00529219
-0.00542419
-0.00555644
-0.00568887
-0.00582138
-0.0059539
-0.00608632
-0.00621857
-0.00635055
-0.00648217
-0.00661334
-0.00674396
-0.00687396
-0.00700322
-0.00713166
-0.00725919
-0.00738571
-0.00751113
-0.00763535
-0.00775828
-0.00787983
-0.0079999
-0.00811841
-0.00823526
-0.00835037
-0.00846363
-0.00857497
-0.0086843
-0.00879153
-0.00889657
-0.00899934
-0.00909977
-0.00919776
-0.00929325
-0.00938615
-0.0094764
-0.00956391
-0.00964862
-0.00973046
-0.00980937
-0.00988527
-0.00995812
-0.0100278
-0.0100944
-0.0101577
-0.0102178
-0.0102745
-0.0103278
-0.0103778
-0.0104242
-0.0104672
-0.0105067
-0.0105426
-0.010575
-0.0106037
-0.0106288
-0.0106503
-0.0106681
-0.0106823
-0.0106928
-0.0106996
-0.0107027
-0.0107021
-0.0106979
-0.01069
-0.0106785
-0.0106633
-0.0106444
-0.010622
-0.010596
-0.0105664
-0.0105333
-0.0104968
-0.0104567
-0.0104133
-0.0103664
-0.0103162
-0.0102628
-0.0102061
-0.0101462
-0.0100831
-0.010017
-0.00994788
-0.00987579
-0.0098008
-0.00972298
-0.0096424
-0.00955913
-0.00947323
-0.00938479
-0.00929388
-0.00920057
-0.00910494
-0.00900707
-0.00890705
-0.00880495
-0.00870087
-0.00859488
-0.00848706
-0.00837752
-0.00826632
-0.00815357
-0.00803935
-0.00792375
-0.00780686
-0.00768876
-0.00756955
-0.00744932
-0.00732816
-0.00720616
-0.0070834
-0.00695997
-0.00683598
-0.00671149
-0.0065866
-0.0064614
-0.00633598
-0.00621041
-0.00608479
-0.0059592
-0.00583371
-0.00570841
-0.00558339
-0.00545872
-0.00533447
-0.00521073
-0.00508757
-0.00496507
-0.00484329
-0.0047223
-0.00460219
-0.004483
-0.00436482
-0.0042477
-0.0041317
-0.0040169
-0.00390334
-0.00379109
-0.0036802
-0.00357073
-0.00346273
-0.00335625
-0.00325134
-0.00314805
-0.00304642
-0.00294651
-0.00284835
-0.00275198
-0.00265745
-0.0025648
-0.00247405
-0.00238525
-0.00229844
-0.00221363
-0.00213087
-0.00205019
-0.00197161
-0.00189516
-0.00182087
-0.00174876
-0.00167885
-0.00161118
-0.00154575
-0.00148259
-0.00142172
-0.00136315
-0.00130691
-0.00125301
-0.00120146
-0.00115228
-0.00110549
-0.00106109
-0.00101909
-0.000979514
-0.000942363
-0.000907649
-0.00087538
-0.000845564
-0.000818208
-0.000793319
-0.000770902
-0.000750963
-0.000733506
-0.000718536
-0.000706055
-0.000696067
-0.000688574
-0.000683577
-0.000681081
-5.18369e-05
-5.44208e-05
-5.95949e-05
-6.73529e-05
-7.76937e-05
-9.06156e-05
-0.000106116
-0.000124192
-0.000144839
-0.000168055
-0.000193833
-0.00022217
-0.000253058
-0.000286492
-0.000322464
-0.000360967
-0.000401992
-0.000445531
-0.000491572
-0.000540107
-0.000591123
-0.000644608
-0.000700548
-0.000758931
-0.00081974
-0.000882961
-0.000948575
-0.00101657
-0.00108691
-0.0011596
-0.0012346
-0.00131189
-0.00139145
-0.00147325
-0.00155727
-0.00164349
-0.00173186
-0.00182236
-0.00191496
-0.00200962
-0.00210631
-0.002205
-0.00230564
-0.00240819
-0.00251261
-0.00261886
-0.0027269
-0.00283667
-0.00294814
-0.00306124
-0.00317592
-0.00329214
-0.00340983
-0.00352895
-0.00364942
-0.00377119
-0.0038942
-0.00401837
-0.00414366
-0.00426997
-0.00439726
-0.00452543
-0.00465443
-0.00478418
-0.00491459
-0.0050456
-0.00517712
-0.00530906
-0.00544136
-0.00557392
-0.00570666
-0.00583949
-0.00597233
-0.00610508
-0.00623766
-0.00636998
-0.00650195
-0.00663346
-0.00676444
-0.00689479
-0.00702441
-0.00715321
-0.0072811
-0.00740798
-0.00753376
-0.00765835
-0.00778164
-0.00790356
-0.008024
-0.00814287
-0.00826008
-0.00837554
-0.00848916
-0.00860086
-0.00871053
-0.0088181
-0.00892349
-0.0090266
-0.00912735
-0.00922567
-0.00932148
-0.00941469
-0.00950524
-0.00959304
-0.00967804
-0.00976016
-0.00983934
-0.0099155
-0.0099886
-0.0100586
-0.0101253
-0.0101889
-0.0102491
-0.0103061
-0.0103596
-0.0104097
-0.0104563
-0.0104995
-0.0105391
-0.0105751
-0.0106076
-0.0106364
-0.0106616
-0.0106832
-0.0107011
-0.0107153
-0.0107258
-0.0107326
-0.0107357
-0.0107352
-0.0107309
-0.010723
-0.0107114
-0.0106961
-0.0106772
-0.0106547
-0.0106286
-0.0105989
-0.0105657
-0.010529
-0.0104888
-0.0104451
-0.0103981
-0.0103478