/*--------------------------------*- C++ -*----------------------------------*\
| =========                 |                                                 |
| \\      /  F ield         | OpenFOAM: The Open Source CFD Toolbox           |
|  \\    /   O peration     | Version:  v2012                                 |
|   \\  /    A nd           | Website:  www.openfoam.com                      |
|    \\/     M anipulation  |                                                 |
\*---------------------------------------------------------------------------*/
FoamFile
{
    version     2.0;
    format      ascii;
    class       volScalarField;
    location    "0.5";
    object      Psi_z;
}
// * * * * * * * * * * * * * * * * * * * * * * * * * * * * * * * * * * * * * //

dimensions      [0 2 -1 0 0 0 0];


internalField   nonuniform List<scalar> 
65536
(
8.37858e-06
2.51357e-05
4.18921e-05
5.86457e-05
7.53951e-05
9.21389e-05
0.000108876
0.000125606
0.000142327
0.000159039
0.000175739
0.000192427
0.000209102
0.000225762
0.000242406
0.000259032
0.00027564
0.000292227
0.000308793
0.000325336
0.000341855
0.000358347
0.000374812
0.000391248
0.000407652
0.000424024
0.000440362
0.000456664
0.000472928
0.000489153
0.000505336
0.000521475
0.000537568
0.000553614
0.00056961
0.000585555
0.000601445
0.000617278
0.000633053
0.000648767
0.000664418
0.000680002
0.000695519
0.000710964
0.000726337
0.000741632
0.000756849
0.000771984
0.000787035
0.000801999
0.000816873
0.000831653
0.000846338
0.000860924
0.000875409
0.000889788
0.000904059
0.000918219
0.000932265
0.000946194
0.000960002
0.000973687
0.000987245
0.00100067
0.00101397
0.00102713
0.00104015
0.00105302
0.00106575
0.00107833
0.00109076
0.00110303
0.00111514
0.00112709
0.00113888
0.0011505
0.00116194
0.00117322
0.00118431
0.00119522
0.00120596
0.0012165
0.00122685
0.00123702
0.00124699
0.00125676
0.00126633
0.0012757
0.00128486
0.00129382
0.00130256
0.0013111
0.00131942
0.00132752
0.0013354
0.00134306
0.0013505
0.00135772
0.0013647
0.00137146
0.00137799
0.00138429
0.00139035
0.00139618
0.00140177
0.00140713
0.00141224
0.00141712
0.00142176
0.00142615
0.0014303
0.00143421
0.00143787
0.00144128
0.00144445
0.00144738
0.00145005
0.00145248
0.00145466
0.0014566
0.00145828
0.00145972
0.0014609
0.00146184
0.00146253
0.00146297
0.00146317
0.00146311
0.00146281
0.00146225
0.00146146
0.00146041
0.00145912
0.00145758
0.0014558
0.00145377
0.0014515
0.00144899
0.00144623
0.00144323
0.00143999
0.00143652
0.0014328
0.00142885
0.00142466
0.00142024
0.00141558
0.00141069
0.00140557
0.00140022
0.00139465
0.00138884
0.00138282
0.00137656
0.00137009
0.0013634
0.00135649
0.00134936
0.00134202
0.00133447
0.00132671
0.00131874
0.00131056
0.00130218
0.0012936
0.00128482
0.00127585
0.00126667
0.00125731
0.00124776
0.00123802
0.00122809
0.00121798
0.00120769
0.00119723
0.00118659
0.00117578
0.0011648
0.00115366
0.00114235
0.00113088
0.00111926
0.00110748
0.00109554
0.00108346
0.00107123
0.00105886
0.00104635
0.0010337
0.00102092
0.00100801
0.000994965
0.000981796
0.000968505
0.000955094
0.000941566
0.000927925
0.000914172
0.00090031
0.000886344
0.000872274
0.000858105
0.000843838
0.000829478
0.000815026
0.000800484
0.000785857
0.000771145
0.000756353
0.000741482
0.000726535
0.000711515
0.000696423
0.000681263
0.000666036
0.000650746
0.000635393
0.000619981
0.000604512
0.000588987
0.00057341
0.000557781
0.000542104
0.000526379
0.000510609
0.000494796
0.000478942
0.000463049
0.000447117
0.00043115
0.000415148
0.000399114
0.000383048
0.000366953
0.00035083
0.000334681
0.000318507
0.000302309
0.000286089
0.000269849
0.000253589
0.000237311
0.000221016
0.000204705
0.000188381
0.000172043
0.000155693
0.000139333
0.000122963
0.000106585
9.01993e-05
7.38079e-05
5.74114e-05
4.1011e-05
2.46077e-05
8.20277e-06
2.51359e-05
7.54077e-05
0.000125677
0.000175939
0.000226188
0.000276421
0.000326634
0.000376825
0.00042699
0.000477126
0.000527228
0.000577294
0.000627319
0.0006773
0.000727233
0.000777114
0.000826938
0.000876702
0.000926401
0.000976032
0.00102559
0.00107507
0.00112446
0.00117377
0.00122299
0.00127211
0.00132112
0.00137003
0.00141882
0.0014675
0.00151605
0.00156447
0.00161275
0.00166089
0.00170888
0.00175672
0.00180439
0.00185189
0.00189922
0.00194636
0.00199332
0.00204007
0.00208663
0.00213296
0.00217908
0.00222497
0.00227063
0.00231604
0.00236119
0.00240608
0.00245071
0.00249505
0.00253911
0.00258287
0.00262633
0.00266947
0.00271229
0.00275477
0.00279691
0.0028387
0.00288013
0.00292119
0.00296186
0.00300215
0.00304204
0.00308152
0.00312058
0.00315921
0.0031974
0.00323514
0.00327243
0.00330925
0.00334559
0.00338145
0.00341681
0.00345166
0.003486
0.00351982
0.00355311
0.00358585
0.00361805
0.00364969
0.00368075
0.00371125
0.00374115
0.00377047
0.00379919
0.0038273
0.00385479
0.00388166
0.0039079
0.00393351
0.00395846
0.00398277
0.00400643
0.00402941
0.00405173
0.00407338
0.00409434
0.00411462
0.00413421
0.0041531
0.00417129
0.00418878
0.00420556
0.00422162
0.00423697
0.0042516
0.00426551
0.00427869
0.00429114
0.00430286
0.00431385
0.00432409
0.00433361
0.00434238
0.00435041
0.00435769
0.00436423
0.00437003
0.00437509
0.00437939
0.00438296
0.00438577
0.00438784
0.00438917
0.00438974
0.00438958
0.00438867
0.00438701
0.00438461
0.00438148
0.0043776
0.00437299
0.00436764
0.00436156
0.00435474
0.0043472
0.00433893
0.00432994
0.00432022
0.00430979
0.00429865
0.00428679
0.00427422
0.00426095
0.00424698
0.00423231
0.00421695
0.0042009
0.00418417
0.00416675
0.00414867
0.00412991
0.0041105
0.00409042
0.00406968
0.0040483
0.00402628
0.00400362
0.00398034
0.00395642
0.00393189
0.00390675
0.00388101
0.00385466
0.00382773
0.00380021
0.00377212
0.00374346
0.00371423
0.00368445
0.00365413
0.00362326
0.00359187
0.00355995
0.00352751
0.00349458
0.00346114
0.00342721
0.00339281
0.00335793
0.00332258
0.00328678
0.00325053
0.00321385
0.00317673
0.0031392
0.00310125
0.0030629
0.00302415
0.00298502
0.00294551
0.00290564
0.0028654
0.00282481
0.00278389
0.00274262
0.00270104
0.00265913
0.00261692
0.00257441
0.00253161
0.00248853
0.00244517
0.00240154
0.00235765
0.00231352
0.00226914
0.00222452
0.00217968
0.00213462
0.00208934
0.00204386
0.00199817
0.0019523
0.00190624
0.00186
0.00181359
0.00176702
0.00172028
0.00167339
0.00162636
0.00157918
0.00153187
0.00148443
0.00143687
0.00138918
0.00134139
0.00129348
0.00124548
0.00119737
0.00114917
0.00110089
0.00105252
0.00100407
0.000955545
0.00090695
0.000858289
0.000809566
0.000760784
0.000711949
0.000663063
0.00061413
0.000565155
0.00051614
0.00046709
0.000418008
0.000368897
0.000319762
0.000270604
0.000221429
0.000172238
0.000123036
7.38249e-05
2.46089e-05
4.18946e-05
0.000125683
0.000209468
0.00029324
0.000376992
0.000460717
0.000544411
0.000628067
0.00071168
0.000795243
0.000878751
0.000962199
0.00104558
0.00112889
0.00121211
0.00129525
0.0013783
0.00146124
0.00154408
0.0016268
0.0017094
0.00179187
0.0018742
0.00195639
0.00203842
0.00212029
0.00220199
0.00228351
0.00236484
0.00244597
0.00252689
0.0026076
0.00268808
0.00276832
0.00284831
0.00292804
0.0030075
0.00308668
0.00316557
0.00324415
0.00332242
0.00340035
0.00347795
0.00355519
0.00363206
0.00370855
0.00378465
0.00386034
0.00393561
0.00401044
0.00408483
0.00415874
0.00423218
0.00430513
0.00437757
0.00444948
0.00452085
0.00459167
0.00466191
0.00473157
0.00480063
0.00486907
0.00493688
0.00500403
0.00507052
0.00513633
0.00520144
0.00526583
0.0053295
0.00539241
0.00545457
0.00551594
0.00557653
0.0056363
0.00569524
0.00575335
0.00581059
0.00586697
0.00592245
0.00597704
0.00603071
0.00608344
0.00613523
0.00618606
0.00623592
0.00628479
0.00633266
0.00637952
0.00642535
0.00647014
0.00651388
0.00655656
0.00659817
0.00663869
0.00667812
0.00671644
0.00675364
0.00678972
0.00682467
0.00685847
0.00689112
0.00692261
0.00695294
0.00698209
0.00701006
0.00703684
0.00706242
0.00708681
0.00710999
0.00713196
0.00715272
0.00717225
0.00719056
0.00720765
0.0072235
0.00723812
0.00725151
0.00726365
0.00727455
0.00728422
0.00729264
0.00729982
0.00730576
0.00731045
0.0073139
0.00731611
0.00731707
0.00731679
0.00731527
0.00731251
0.00730852
0.00730329
0.00729682
0.00728913
0.00728022
0.00727008
0.00725872
0.00724615
0.00723236
0.00721737
0.00720117
0.00718378
0.0071652
0.00714544
0.00712449
0.00710237
0.00707908
0.00705463
0.00702902
0.00700226
0.00697437
0.00694534
0.0069152
0.00688393
0.00685156
0.00681809
0.00678353
0.00674789
0.00671118
0.00667341
0.00663459
0.00659473
0.00655384
0.00651193
0.00646901
0.0064251
0.0063802
0.00633433
0.0062875
0.00623972
0.006191
0.00614136
0.00609081
0.00603936
0.00598703
0.00593382
0.00587976
0.00582485
0.00576911
0.00571256
0.0056552
0.00559706
0.00553814
0.00547847
0.00541805
0.00535689
0.00529502
0.00523246
0.0051692
0.00510527
0.00504069
0.00497546
0.0049096
0.00484313
0.00477606
0.00470841
0.00464018
0.0045714
0.00450208
0.00443224
0.00436187
0.00429101
0.00421967
0.00414785
0.00407558
0.00400286
0.00392971
0.00385614
0.00378216
0.00370779
0.00363305
0.00355793
0.00348246
0.00340665
0.0033305
0.00325404
0.00317727
0.00310019
0.00302284
0.0029452
0.00286731
0.00278915
0.00271076
0.00263212
0.00255326
0.00247419
0.00239491
0.00231543
0.00223577
0.00215592
0.00207591
0.00199573
0.00191539
0.00183491
0.00175429
0.00167353
0.00159265
0.00151166
0.00143055
0.00134934
0.00126803
0.00118664
0.00110516
0.0010236
0.000941969
0.000860274
0.00077852
0.000696712
0.000614857
0.00053296
0.000451028
0.000369064
0.000287076
0.000205069
0.000123047
4.10166e-05
5.86565e-05
0.000175968
0.000293273
0.000410561
0.000527821
0.000645045
0.000762224
0.000879351
0.000996418
0.00111342
0.00123034
0.00134717
0.00146391
0.00158055
0.00169708
0.00181348
0.00192976
0.00204589
0.00216187
0.0022777
0.00239335
0.00250882
0.00262409
0.00273916
0.00285402
0.00296865
0.00308304
0.00319718
0.00331106
0.00342466
0.00353796
0.00365096
0.00376365
0.003876
0.003988
0.00409964
0.00421091
0.00432177
0.00443223
0.00454226
0.00465185
0.00476098
0.00486963
0.00497779
0.00508543
0.00519254
0.00529909
0.00540508
0.00551047
0.00561526
0.00571942
0.00582292
0.00592576
0.0060279
0.00612934
0.00623003
0.00632998
0.00642914
0.00652751
0.00662506
0.00672176
0.0068176
0.00691255
0.00700659
0.0070997
0.00719185
0.00728303
0.0073732
0.00746235
0.00755046
0.0076375
0.00772345
0.00780828
0.00789198
0.00797453
0.0080559
0.00813607
0.00821501
0.00829271
0.00836915
0.00844431
0.00851816
0.00859068
0.00866186
0.00873168
0.00880012
0.00886716
0.00893278
0.00899696
0.00905968
0.00912093
0.0091807
0.00923897
0.00929571
0.00935093
0.00940459
0.00945669
0.00950721
0.00955615
0.00960348
0.00964921
0.00969331
0.00973577
0.00977659
0.00981576
0.00985326
0.00988909
0.00992324
0.0099557
0.00998647
0.0100155
0.0100429
0.0100685
0.0100924
0.0101146
0.0101351
0.0101539
0.0101709
0.0101861
0.0101997
0.0102115
0.0102215
0.0102298
0.0102364
0.0102412
0.0102443
0.0102457
0.0102453
0.0102431
0.0102393
0.0102337
0.0102263
0.0102173
0.0102065
0.010194
0.0101798
0.0101639
0.0101463
0.010127
0.010106
0.0100833
0.010059
0.010033
0.0100053
0.00997595
0.00994497
0.00991235
0.00987811
0.00984224
0.00980478
0.00976571
0.00972507
0.00968285
0.00963907
0.00959374
0.00954687
0.00949847
0.00944856
0.00939716
0.00934426
0.0092899
0.00923408
0.00917682
0.00911813
0.00905803
0.00899653
0.00893366
0.00886942
0.00880384
0.00873693
0.00866871
0.00859919
0.0085284
0.00845636
0.00838307
0.00830856
0.00823286
0.00815597
0.00807792
0.00799872
0.0079184
0.00783698
0.00775448
0.00767091
0.0075863
0.00750067
0.00741403
0.00732641
0.00723783
0.00714831
0.00705787
0.00696653
0.00687431
0.00678123
0.00668732
0.00659258
0.00649705
0.00640074
0.00630367
0.00620586
0.00610733
0.00600811
0.00590821
0.00580764
0.00570644
0.00560461
0.00550218
0.00539917
0.00529558
0.00519145
0.00508679
0.00498161
0.00487594
0.00476978
0.00466316
0.00455609
0.00444859
0.00434068
0.00423237
0.00412366
0.00401459
0.00390516
0.00379539
0.00368529
0.00357488
0.00346416
0.00335316
0.00324188
0.00313033
0.00301854
0.0029065
0.00279424
0.00268176
0.00256907
0.00245619
0.00234312
0.00222988
0.00211648
0.00200292
0.00188922
0.00177538
0.00166141
0.00154733
0.00143314
0.00131885
0.00120447
0.00109
0.000975465
0.000860859
0.000746196
0.000631482
0.000516725
0.000401934
0.000287116
0.000172277
5.74272e-05
7.54231e-05
0.000226267
0.000377101
0.000527912
0.000678688
0.000829418
0.000980092
0.0011307
0.00128123
0.00143167
0.00158201
0.00173224
0.00188236
0.00203234
0.00218217
0.00233185
0.00248136
0.0026307
0.00277983
0.00292877
0.00307748
0.00322596
0.00337419
0.00352216
0.00366985
0.00381726
0.00396435
0.00411113
0.00425756
0.00440364
0.00454934
0.00469466
0.00483956
0.00498404
0.00512807
0.00527163
0.00541471
0.00555729
0.00569933
0.00584083
0.00598176
0.0061221
0.00626182
0.00640091
0.00653934
0.00667708
0.00681412
0.00695042
0.00708596
0.00722072
0.00735467
0.00748779
0.00762004
0.0077514
0.00788185
0.00801136
0.0081399
0.00826743
0.00839394
0.0085194
0.00864377
0.00876703
0.00888914
0.00901009
0.00912984
0.00924837
0.00936563
0.00948161
0.00959627
0.00970959
0.00982154
0.00993208
0.0100412
0.0101488
0.010255
0.0103597
0.0104628
0.0105643
0.0106643
0.0107626
0.0108592
0.0109542
0.0110475
0.011139
0.0112288
0.0113169
0.0114031
0.0114875
0.01157
0.0116507
0.0117295
0.0118064
0.0118813
0.0119543
0.0120253
0.0120943
0.0121613
0.0122263
0.0122893
0.0123501
0.0124089
0.0124657
0.0125203
0.0125728
0.0126232
0.0126714
0.0127175
0.0127614
0.0128031
0.0128427
0.0128801
0.0129152
0.0129482
0.012979
0.0130075
0.0130339
0.013058
0.0130798
0.0130995
0.0131169
0.013132
0.013145
0.0131556
0.0131641
0.0131703
0.0131743
0.013176
0.0131755
0.0131727
0.0131678
0.0131606
0.0131511
0.0131395
0.0131256
0.0131096
0.0130913
0.0130709
0.0130482
0.0130234
0.0129964
0.0129672
0.0129359
0.0129024
0.0128668
0.0128291
0.0127892
0.0127473
0.0127032
0.0126571
0.0126089
0.0125587
0.0125064
0.0124521
0.0123958
0.0123375
0.0122772
0.0122149
0.0121508
0.0120846
0.0120166
0.0119467
0.0118749
0.0118012
0.0117258
0.0116485
0.0115694
0.0114885
0.0114059
0.0113215
0.0112355
0.0111477
0.0110583
0.0109673
0.0108746
0.0107803
0.0106845
0.0105872
0.0104883
0.0103879
0.010286
0.0101827
0.010078
0.00997189
0.00986441
0.00975559
0.00964546
0.00953403
0.00942134
0.00930742
0.00919229
0.00907597
0.0089585
0.00883989
0.00872019
0.0085994
0.00847756
0.0083547
0.00823084
0.008106
0.00798021
0.0078535
0.0077259
0.00759742
0.00746809
0.00733794
0.00720698
0.00707526
0.00694278
0.00680957
0.00667565
0.00654105
0.0064058
0.0062699
0.00613339
0.00599627
0.00585859
0.00572035
0.00558157
0.00544229
0.0053025
0.00516224
0.00502152
0.00488036
0.00473878
0.0045968
0.00445443
0.00431168
0.00416859
0.00402515
0.0038814
0.00373733
0.00359297
0.00344833
0.00330343
0.00315828
0.00301289
0.00286728
0.00272146
0.00257544
0.00242923
0.00228285
0.00213631
0.00198961
0.00184278
0.00169582
0.00154875
0.00140156
0.00125428
0.00110692
0.000959483
0.000811979
0.000664422
0.000516819
0.000369182
0.00022152
7.38416e-05
9.21953e-05
0.000276582
0.000460955
0.000645301
0.000829603
0.00101385
0.00119803
0.00138213
0.00156613
0.00175002
0.0019338
0.00211744
0.00230093
0.00248427
0.00266743
0.00285039
0.00303316
0.0032157
0.00339801
0.00358006
0.00376185
0.00394336
0.00412456
0.00430544
0.00448599
0.00466618
0.004846
0.00502542
0.00520443
0.005383
0.00556112
0.00573877
0.00591591
0.00609253
0.00626861
0.00644412
0.00661904
0.00679334
0.00696699
0.00713998
0.00731227
0.00748384
0.00765467
0.00782471
0.00799395
0.00816235
0.00832989
0.00849653
0.00866225
0.00882701
0.00899078
0.00915353
0.00931522
0.00947584
0.00963533
0.00979367
0.00995083
0.0101068
0.0102614
0.0104148
0.0105669
0.0107176
0.0108669
0.0110148
0.0111612
0.0113062
0.0114495
0.0115914
0.0117316
0.0118701
0.012007
0.0121422
0.0122756
0.0124072
0.012537
0.012665
0.0127911
0.0129152
0.0130374
0.0131577
0.0132759
0.013392
0.0135061
0.013618
0.0137278
0.0138354
0.0139409
0.0140441
0.014145
0.0142437
0.01434
0.014434
0.0145256
0.0146149
0.0147017
0.0147861
0.014868
0.0149475
0.0150244
0.0150989
0.0151708
0.0152401
0.0153069
0.0153711
0.0154327
0.0154917
0.015548
0.0156017
0.0156528
0.0157011
0.0157468
0.0157898
0.0158302
0.0158678
0.0159027
0.0159349
0.0159643
0.0159911
0.0160151
0.0160363
0.0160549
0.0160707
0.0160837
0.0160941
0.0161016
0.0161065
0.0161086
0.016108
0.0161046
0.0160985
0.0160897
0.0160782
0.0160639
0.016047
0.0160274
0.016005
0.01598
0.0159523
0.0159219
0.0158889
0.0158532
0.0158149
0.015774
0.0157305
0.0156843
0.0156356
0.0155843
0.0155304
0.015474
0.0154151
0.0153537
0.0152898
0.0152234
0.0151545
0.0150832
0.0150095
0.0149334
0.0148549
0.014774
0.0146909
0.0146054
0.0145176
0.0144275
0.0143352
0.0142407
0.014144
0.0140451
0.0139441
0.0138409
0.0137357
0.0136284
0.0135191
0.0134078
0.0132945
0.0131792
0.013062
0.012943
0.0128221
0.0126993
0.0125748
0.0124485
0.0123204
0.0121907
0.0120593
0.0119262
0.0117916
0.0116553
0.0115175
0.0113782
0.0112375
0.0110952
0.0109516
0.0108066
0.0106602
0.0105126
0.0103636
0.0102134
0.0100619
0.00990929
0.0097555
0.00960058
0.00944457
0.00928749
0.00912937
0.00897025
0.00881014
0.0086491
0.00848713
0.00832427
0.00816055
0.00799599
0.00783063
0.00766449
0.0074976
0.00732997
0.00716165
0.00699265
0.00682299
0.00665271
0.00648182
0.00631036
0.00613833
0.00596577
0.00579269
0.00561911
0.00544507
0.00527057
0.00509564
0.0049203
0.00474457
0.00456846
0.00439199
0.00421518
0.00403805
0.00386062
0.00368289
0.0035049
0.00332664
0.00314815
0.00296942
0.00279049
0.00261136
0.00243204
0.00225256
0.00207292
0.00189313
0.00171322
0.00153319
0.00135306
0.00117284
0.000992532
0.000812163
0.00063174
0.000451274
0.000270777
9.0261e-05
0.000108974
0.000326917
0.000544843
0.000762735
0.000980576
0.00119835
0.00141605
0.00163365
0.00185114
0.0020685
0.00228572
0.00250279
0.00271968
0.00293638
0.00315287
0.00336914
0.00358517
0.00380094
0.00401644
0.00423163
0.00444652
0.00466106
0.00487525
0.00508907
0.00530248
0.00551548
0.00572804
0.00594014
0.00615174
0.00636283
0.00657339
0.00678338
0.00699279
0.00720158
0.00740973
0.00761721
0.00782399
0.00803004
0.00823533
0.00843983
0.00864352
0.00884635
0.0090483
0.00924933
0.0094494
0.00964849
0.00984657
0.0100436
0.0102395
0.0104343
0.0106279
0.0108203
0.0110115
0.0112014
0.01139
0.0115772
0.011763
0.0119474
0.0121303
0.0123116
0.0124914
0.0126696
0.0128462
0.013021
0.0131942
0.0133655
0.013535
0.0137027
0.0138685
0.0140323
0.0141942
0.014354
0.0145118
0.0146674
0.0148209
0.0149722
0.0151213
0.0152681
0.0154126
0.0155548
0.0156945
0.0158319
0.0159668
0.0160991
0.016229
0.0163562
0.0164809
0.0166029
0.0167223
0.0168389
0.0169528
0.017064
0.0171723
0.0172779
0.0173805
0.0174803
0.0175772
0.0176712
0.0177622
0.0178502
0.0179352
0.0180172
0.0180962
0.0181721
0.0182449
0.0183146
0.0183812
0.0184447
0.0185051
0.0185623
0.0186163
0.0186671
0.0187148
0.0187593
0.0188005
0.0188386
0.0188734
0.018905
0.0189334
0.0189586
0.0189805
0.0189992
0.0190146
0.0190268
0.0190358
0.0190415
0.019044
0.0190432
0.0190392
0.019032
0.0190216
0.019008
0.0189911
0.0189711
0.0189478
0.0189214
0.0188918
0.0188591
0.0188232
0.0187841
0.0187419
0.0186966
0.0186482
0.0185967
0.0185422
0.0184846
0.0184239
0.0183602
0.0182935
0.0182239
0.0181512
0.0180756
0.0179971
0.0179157
0.0178314
0.0177442
0.0176542
0.0175614
0.0174658
0.0173674
0.0172664
0.0171625
0.0170561
0.0169469
0.0168352
0.0167208
0.0166039
0.0164844
0.0163625
0.016238
0.0161112
0.0159819
0.0158503
0.0157163
0.01558
0.0154415
0.0153007
0.0151577
0.0150126
0.0148653
0.014716
0.0145646
0.0144112
0.0142558
0.0140985
0.0139392
0.0137782
0.0136152
0.0134505
0.0132841
0.0131159
0.0129461
0.0127747
0.0126016
0.012427
0.0122509
0.0120733
0.0118942
0.0117138
0.0115319
0.0113488
0.0111643
0.0109786
0.0107917
0.0106035
0.0104143
0.0102239
0.0100324
0.00983984
0.00964629
0.00945175
0.00925626
0.00905985
0.00886254
0.00866438
0.00846539
0.00826561
0.00806505
0.00786375
0.00766174
0.00745904
0.00725568
0.00705169
0.00684709
0.00664191
0.00643617
0.0062299
0.00602312
0.00581585
0.00560812
0.00539995
0.00519135
0.00498236
0.00477298
0.00456324
0.00435317
0.00414277
0.00393207
0.00372108
0.00350983
0.00329833
0.00308659
0.00287464
0.00266249
0.00245015
0.00223765
0.002025
0.0018122
0.00159929
0.00138627
0.00117315
0.00095996
0.000746703
0.000533396
0.000320052
0.000106687
0.00012576
0.000377275
0.000628768
0.000880221
0.00113162
0.00138294
0.00163417
0.00188529
0.00213628
0.00238712
0.00263781
0.00288831
0.00313862
0.0033887
0.00363855
0.00388814
0.00413746
0.00438647
0.00463517
0.00488353
0.00513152
0.00537913
0.00562633
0.0058731
0.00611941
0.00636524
0.00661056
0.00685535
0.00709957
0.00734321
0.00758623
0.0078286
0.00807029
0.00831128
0.00855153
0.00879101
0.00902968
0.00926751
0.00950447
0.00974052
0.00997562
0.0102097
0.0104429
0.0106749
0.0109059
0.0111357
0.0113643
0.0115917
0.0118179
0.0120428
0.0122663
0.0124884
0.0127091
0.0129283
0.013146
0.0133621
0.0135766
0.0137895
0.0140006
0.01421
0.0144176
0.0146233
0.0148271
0.015029
0.0152289
0.0154267
0.0156224
0.015816
0.0160074
0.0161966
0.0163834
0.0165679
0.0167501
0.0169298
0.017107
0.0172817
0.0174539
0.0176234
0.0177902
0.0179543
0.0181157
0.0182742
0.01843
0.0185828
0.0187327
0.0188797
0.0190236
0.0191645
0.0193023
0.019437
0.0195685
0.0196968
0.0198219
0.0199438
0.0200623
0.0201775
0.0202894
0.0203978
0.0205029
0.0206045
0.0207027
0.0207974
0.0208885
0.0209761
0.0210602
0.0211407
0.0212176
0.0212909
0.0213606
0.0214266
0.021489
0.0215477
0.0216027
0.021654
0.0217017
0.0217456
0.0217858
0.0218223
0.021855
0.0218841
0.0219094
0.0219309
0.0219487
0.0219628
0.0219731
0.0219797
0.0219826
0.0219817
0.0219771
0.0219688
0.0219567
0.021941
0.0219215
0.0218984
0.0218715
0.021841
0.0218069
0.021769
0.0217276
0.0216825
0.0216338
0.0215814
0.0215256
0.0214661
0.0214031
0.0213366
0.0212666
0.021193
0.021116
0.0210356
0.0209517
0.0208644
0.0207738
0.0206798
0.0205824
0.0204818
0.0203779
0.0202707
0.0201604
0.0200468
0.0199301
0.0198102
0.0196873
0.0195613
0.0194322
0.0193002
0.0191652
0.0190273
0.0188865
0.0187428
0.0185964
0.0184471
0.0182951
0.0181404
0.0179831
0.0178232
0.0176606
0.0174955
0.017328
0.017158
0.0169855
0.0168107
0.0166336
0.0164542
0.0162726
0.0160888
0.0159028
0.0157148
0.0155246
0.0153325
0.0151383
0.0149423
0.0147443
0.0145446
0.014343
0.0141397
0.0139346
0.0137279
0.0135196
0.0133097
0.0130983
0.0128853
0.012671
0.0124552
0.012238
0.0120195
0.0117997
0.0115787
0.0113564
0.011133
0.0109085
0.0106828
0.0104561
0.0102284
0.00999963
0.00976995
0.00953934
0.00930785
0.00907551
0.00884234
0.00860839
0.00837367
0.00813823
0.00790208
0.00766527
0.00742782
0.00718975
0.00695109
0.00671187
0.00647212
0.00623186
0.00599112
0.00574991
0.00550827
0.00526622
0.00502377
0.00478095
0.00453778
0.00429429
0.00405049
0.0038064
0.00356205
0.00331744
0.00307261
0.00282756
0.00258233
0.00233691
0.00209134
0.00184563
0.00159979
0.00135385
0.00110782
0.000861716
0.000615553
0.000369349
0.000123119
0.000142555
0.000427658
0.000712736
0.000997768
0.00128274
0.00156762
0.0018524
0.00213705
0.00242156
0.00270591
0.00299008
0.00327404
0.00355778
0.00384127
0.00412449
0.00440742
0.00469004
0.00497232
0.00525425
0.00553579
0.00581692
0.00609761
0.00637784
0.00665759
0.00693682
0.0072155
0.00749362
0.00777113
0.008048
0.00832421
0.00859972
0.0088745
0.00914852
0.00942173
0.00969411
0.00996562
0.0102362
0.0105059
0.0107745
0.0110422
0.0113087
0.0115742
0.0118385
0.0121016
0.0123635
0.012624
0.0128833
0.0131412
0.0133976
0.0136526
0.013906
0.0141579
0.0144082
0.0146567
0.0149036
0.0151487
0.0153919
0.0156333
0.0158727
0.0161102
0.0163456
0.0165789
0.01681
0.0170389
0.0172656
0.01749
0.017712
0.0179315
0.0181486
0.0183631
0.018575
0.0187843
0.0189909
0.0191947
0.0193957
0.0195938
0.019789
0.0199813
0.0201705
0.0203566
0.0205396
0.0207195
0.0208961
0.0210694
0.0212395
0.0214061
0.0215694
0.0217292
0.0218854
0.0220382
0.0221874
0.0223329
0.0224748
0.0226129
0.0227474
0.0228781
0.0230049
0.0231279
0.0232471
0.0233623
0.0234737
0.023581
0.0236844
0.0237838
0.0238791
0.0239704
0.0240576
0.0241407
0.0242197
0.0242946
0.0243653
0.0244319
0.0244943
0.0245525
0.0246065
0.0246563
0.0247019
0.0247433
0.0247804
0.0248133
0.024842
0.0248664
0.0248866
0.0249025
0.0249142
0.0249217
0.0249249
0.0249239
0.0249187
0.0249093
0.0248956
0.0248777
0.0248556
0.0248294
0.0247989
0.0247643
0.0247255
0.0246826
0.0246356
0.0245845
0.0245292
0.0244699
0.0244065
0.0243391
0.0242676
0.0241922
0.0241127
0.0240293
0.023942
0.0238507
0.0237556
0.0236566
0.0235538
0.0234472
0.0233368
0.0232227
0.0231048
0.0229833
0.0228581
0.0227293
0.0225969
0.022461
0.0223216
0.0221786
0.0220323
0.0218826
0.0217295
0.0215731
0.0214134
0.0212504
0.0210843
0.0209151
0.0207427
0.0205673
0.0203888
0.0202074
0.0200231
0.0198359
0.0196459
0.019453
0.0192575
0.0190593
0.0188584
0.018655
0.018449
0.0182405
0.0180296
0.0178163
0.0176007
0.0173828
0.0171627
0.0169403
0.0167159
0.0164893
0.0162607
0.0160302
0.0157977
0.0155633
0.015327
0.015089
0.0148493
0.0146078
0.0143647
0.01412
0.0138738
0.0136261
0.0133768
0.0131262
0.0128742
0.0126209
0.0123663
0.0121104
0.0118534
0.0115952
0.0113358
0.0110754
0.010814
0.0105515
0.0102881
0.0100237
0.0097585
0.0094924
0.00922547
0.00895775
0.00868928
0.00842008
0.00815018
0.00787963
0.00760843
0.00733664
0.00706427
0.00679135
0.00651792
0.00624398
0.00596959
0.00569474
0.00541948
0.00514383
0.00486781
0.00459144
0.00431475
0.00403775
0.00376048
0.00348294
0.00320517
0.00292718
0.00264899
0.00237062
0.00209209
0.00181343
0.00153464
0.00125576
0.000976787
0.000697752
0.00041867
0.00013956
0.00015936
0.00047807
0.000796751
0.00111538
0.00143394
0.0017524
0.00207075
0.00238896
0.00270702
0.00302489
0.00334255
0.00366
0.00397719
0.0042941
0.00461072
0.00492702
0.00524296
0.00555854
0.00587371
0.00618846
0.00650275
0.00681656
0.00712985
0.0074426
0.00775478
0.00806635
0.00837729
0.00868755
0.0089971
0.00930591
0.00961395
0.00992117
0.0102275
0.010533
0.0108376
0.0111412
0.0114437
0.0117452
0.0120456
0.0123449
0.0126429
0.0129398
0.0132353
0.0135295
0.0138224
0.0141137
0.0144037
0.014692
0.0149788
0.0152639
0.0155474
0.0158291
0.0161089
0.0163869
0.016663
0.0169371
0.0172091
0.0174791
0.0177469
0.0180124
0.0182757
0.0185366
0.0187951
0.0190512
0.0193047
0.0195557
0.0198039
0.0200495
0.0202923
0.0205322
0.0207693
0.0210033
0.0212344
0.0214624
0.0216872
0.0219088
0.0221272
0.0223422
0.0225539
0.0227621
0.0229668
0.023168
0.0233655
0.0235594
0.0237496
0.023936
0.0241186
0.0242973
0.0244722
0.024643
0.0248099
0.0249726
0.0251313
0.0252859
0.0254363
0.0255824
0.0257243
0.0258619
0.0259952
0.0261241
0.0262486
0.0263687
0.0264843
0.0265955
0.0267021
0.0268042
0.0269017
0.0269947
0.027083
0.0271668
0.0272459
0.0273203
0.0273901
0.0274552
0.0275156
0.0275712
0.0276222
0.0276685
0.02771
0.0277468
0.0277789
0.0278062
0.0278287
0.0278465
0.0278596
0.027868
0.0278716
0.0278704
0.0278646
0.027854
0.0278387
0.0278187
0.027794
0.0277646
0.0277305
0.0276918
0.0276484
0.0276004
0.0275478
0.0274906
0.0274288
0.0273624
0.0272915
0.027216
0.0271361
0.0270517
0.0269629
0.0268696
0.0267719
0.0266698
0.0265634
0.0264527
0.0263377
0.0262184
0.0260949
0.0259673
0.0258355
0.0256995
0.0255595
0.0254154
0.0252673
0.0251153
0.0249593
0.0247995
0.0246358
0.0244683
0.0242971
0.0241221
0.0239435
0.0237613
0.0235755
0.0233861
0.0231933
0.0229971
0.0227975
0.0225946
0.0223885
0.0221791
0.0219665
0.0217509
0.0215321
0.0213104
0.0210858
0.0208582
0.0206279
0.0203947
0.0201588
0.0199203
0.0196791
0.0194354
0.0191892
0.0189405
0.0186895
0.0184361
0.0181805
0.0179226
0.0176626
0.0174005
0.0171363
0.0168701
0.016602
0.016332
0.0160601
0.0157865
0.0155111
0.0152341
0.0149554
0.0146751
0.0143933
0.0141101
0.0138254
0.0135393
0.0132518
0.0129631
0.0126731
0.012382
0.0120896
0.0117962
0.0115016
0.0112061
0.0109095
0.010612
0.0103135
0.0100142
0.00971401
0.00941304
0.00911129
0.0088088
0.0085056
0.00820174
0.00789723
0.00759211
0.00728642
0.00698017
0.0066734
0.00636614
0.00605842
0.00575025
0.00544168
0.00513272
0.0048234
0.00451374
0.00420377
0.00389351
0.00358299
0.00327223
0.00296124
0.00265006
0.0023387
0.00202718
0.00171554
0.00140378
0.00109192
0.000779997
0.000468019
0.00015601
0.000176174
0.000528513
0.00088082
0.00123307
0.00158524
0.00193731
0.00228925
0.00264104
0.00299265
0.00334407
0.00369526
0.0040462
0.00439687
0.00474724
0.00509728
0.00544697
0.00579627
0.00614516
0.00649361
0.0068416
0.00718908
0.00753603
0.00788241
0.0082282
0.00857336
0.00891785
0.00926164
0.00960468
0.00994695
0.0102884
0.010629
0.0109687
0.0113075
0.0116453
0.011982
0.0123177
0.0126523
0.0129857
0.0133179
0.0136488
0.0139784
0.0143067
0.0146335
0.0149589
0.0152827
0.015605
0.0159256
0.0162445
0.0165617
0.016877
0.0171905
0.017502
0.0178116
0.018119
0.0184244
0.0187275
0.0190284
0.019327
0.0196232
0.0199169
0.0202082
0.0204968
0.0207827
0.021066
0.0213464
0.021624
0.0218986
0.0221703
0.0224389
0.0227043
0.0229665
0.0232254
0.023481
0.0237332
0.023982
0.0242271
0.0244687
0.0247066
0.0249407
0.025171
0.0253975
0.0256201
0.0258386
0.0260531
0.0262635
0.0264697
0.0266717
0.0268695
0.0270628
0.0272519
0.0274364
0.0276165
0.0277921
0.0279631
0.0281294
0.0282911
0.028448
0.0286003
0.0287477
0.0288903
0.029028
0.0291608
0.0292887
0.0294117
0.0295296
0.0296426
0.0297504
0.0298533
0.029951
0.0300436
0.0301311
0.0302134
0.0302906
0.0303626
0.0304293
0.0304909
0.0305473
0.0305985
0.0306444
0.0306851
0.0307205
0.0307507
0.0307756
0.0307953
0.0308098
0.030819
0.0308229
0.0308217
0.0308152
0.0308034
0.0307865
0.0307643
0.030737
0.0307045
0.0306668
0.0306239
0.0305759
0.0305228
0.0304646
0.0304013
0.0303329
0.0302595
0.030181
0.0300976
0.0300091
0.0299158
0.0298174
0.0297142
0.0296062
0.0294933
0.0293755
0.029253
0.0291258
0.0289939
0.0288573
0.0287161
0.0285702
0.0284198
0.0282649
0.0281056
0.0279418
0.0277736
0.027601
0.0274242
0.0272431
0.0270578
0.0268684
0.0266749
0.0264773
0.0262757
0.0260701
0.0258607
0.0256474
0.0254304
0.0252096
0.0249851
0.0247571
0.0245254
0.0242903
0.0240517
0.0238098
0.0235646
0.0233161
0.0230644
0.0228095
0.0225516
0.0222907
0.0220268
0.0217601
0.0214905
0.0212182
0.0209431
0.0206655
0.0203852
0.0201025
0.0198172
0.0195296
0.0192397