/*--------------------------------*- C++ -*----------------------------------*\
| =========                 |                                                 |
| \\      /  F ield         | OpenFOAM: The Open Source CFD Toolbox           |
|  \\    /   O peration     | Version:  v2012                                 |
|   \\  /    A nd           | Website:  www.openfoam.com                      |
|    \\/     M anipulation  |                                                 |
\*---------------------------------------------------------------------------*/
FoamFile
{
    version     2.0;
    format      ascii;
    class       volScalarField;
    location    "0";
    object      p;
}
// * * * * * * * * * * * * * * * * * * * * * * * * * * * * * * * * * * * * * //

dimensions      [0 2 -2 0 0 0 0];


internalField   nonuniform List<scalar> 
4000
(
-1.74087e-13
-1.76815e-13
-1.73146e-13
-1.73802e-13
-1.76902e-13
-1.60437e-13
-1.65141e-13
-1.77023e-13
-1.8271e-13
-1.88284e-13
-1.81077e-13
-1.70026e-13
-1.80099e-13
-1.96372e-13
-2.03794e-13
-2.00761e-13
-2.10709e-13
-2.20024e-13
-2.19497e-13
-2.28135e-13
-2.31807e-13
-2.35313e-13
-2.38767e-13
-2.50294e-13
-2.63107e-13
-2.75876e-13
-2.75806e-13
-2.72705e-13
-2.6872e-13
-2.76499e-13
-2.8473e-13
-2.86693e-13
-2.85353e-13
-2.816e-13
-2.82502e-13
-2.73664e-13
-2.79457e-13
-2.85929e-13
-2.95246e-13
-2.92093e-13
-2.92136e-13
-2.7906e-13
-2.66576e-13
-2.67421e-13
-2.66975e-13
-2.66761e-13
-2.67544e-13
-2.62884e-13
-2.69633e-13
-2.66552e-13
-2.5043e-13
-2.42927e-13
-2.38874e-13
-2.3746e-13
-2.32484e-13
-2.33966e-13
-2.31312e-13
-2.30575e-13
-2.30102e-13
-2.38461e-13
-2.38575e-13
-2.35298e-13
-2.38518e-13
-2.33783e-13
-2.26704e-13
-2.30501e-13
-2.31618e-13
-2.26535e-13
-2.24901e-13
-2.33371e-13
-2.3208e-13
-2.13644e-13
-2.06402e-13
-2.02586e-13
-1.93924e-13
-1.93718e-13
-1.79468e-13
-1.70605e-13
-1.63083e-13
-1.6133e-13
-1.56642e-13
-1.53439e-13
-1.41099e-13
-1.25697e-13
-1.23654e-13
-1.18166e-13
-1.03891e-13
-9.07548e-14
-7.81858e-14
-7.20746e-14
-6.63404e-14
-6.12619e-14
-5.72068e-14
-4.68084e-14
-3.93677e-14
-2.79137e-14
-2.39295e-14
-1.61334e-14
-1.29349e-14
-4.85318e-15
-1.76476e-13
-1.74411e-13
-1.75122e-13
-1.72426e-13
-1.71533e-13
-1.67198e-13
-1.70738e-13
-1.70559e-13
-1.81588e-13
-1.86914e-13
-1.77994e-13
-1.79588e-13
-1.81801e-13
-1.90633e-13
-1.9546e-13
-2.02781e-13
-2.142e-13
-2.18037e-13
-2.20374e-13
-2.24373e-13
-2.34777e-13
-2.3722e-13
-2.43577e-13
-2.50739e-13
-2.61714e-13
-2.68599e-13
-2.74458e-13
-2.72963e-13
-2.71491e-13
-2.81225e-13
-2.83105e-13
-2.8708e-13
-2.89578e-13
-2.86468e-13
-2.83911e-13
-2.79231e-13
-2.78378e-13
-2.81337e-13
-2.86356e-13
-2.90631e-13
-2.91767e-13
-2.78876e-13
-2.72127e-13
-2.68209e-13
-2.64988e-13
-2.69503e-13
-2.70178e-13
-2.64374e-13
-2.69007e-13
-2.63272e-13
-2.51676e-13
-2.43841e-13
-2.4111e-13
-2.36989e-13
-2.32909e-13
-2.32625e-13
-2.28204e-13
-2.31918e-13
-2.33981e-13
-2.36507e-13
-2.3736e-13
-2.29701e-13
-2.33315e-13
-2.35019e-13
-2.27641e-13
-2.32794e-13
-2.35081e-13
-2.27183e-13
-2.24225e-13
-2.29553e-13
-2.2796e-13
-2.16437e-13
-2.05015e-13
-2.04054e-13
-1.97465e-13
-1.88378e-13
-1.81365e-13
-1.71959e-13
-1.67805e-13
-1.60361e-13
-1.59404e-13
-1.48837e-13
-1.41765e-13
-1.30866e-13
-1.22662e-13
-1.1327e-13
-1.01425e-13
-9.42607e-14
-7.89881e-14
-7.29006e-14
-6.48377e-14
-6.09312e-14
-5.64277e-14
-4.91738e-14
-3.54195e-14
-2.54227e-14
-2.64989e-14
-1.86248e-14
-1.16543e-14
-1.84191e-15
-1.76115e-13
-1.74485e-13
-1.7637e-13
-1.68087e-13
-1.72446e-13
-1.67346e-13
-1.70656e-13
-1.77568e-13
-1.84879e-13
-1.8532e-13
-1.73724e-13
-1.82093e-13
-1.87074e-13
-1.9119e-13
-1.95028e-13
-2.0046e-13
-2.16441e-13
-2.22081e-13
-2.19111e-13
-2.203e-13
-2.32062e-13
-2.4251e-13
-2.45078e-13
-2.52423e-13
-2.59519e-13
-2.7149e-13
-2.71925e-13
-2.71839e-13
-2.73154e-13
-2.82574e-13
-2.8518e-13
-2.8596e-13
-2.92232e-13
-2.84233e-13
-2.81974e-13
-2.84665e-13
-2.76182e-13
-2.77199e-13
-2.86043e-13
-2.8987e-13
-2.90725e-13
-2.79398e-13
-2.68368e-13
-2.67104e-13
-2.59945e-13
-2.68882e-13
-2.73604e-13
-2.72483e-13
-2.64698e-13
-2.57919e-13
-2.50906e-13
-2.46627e-13
-2.44569e-13
-2.39957e-13
-2.3502e-13
-2.3019e-13
-2.25785e-13
-2.32413e-13
-2.3217e-13
-2.38456e-13
-2.39871e-13
-2.38545e-13
-2.40168e-13
-2.29899e-13
-2.25223e-13
-2.314e-13
-2.30868e-13
-2.26504e-13
-2.22509e-13
-2.29062e-13
-2.32861e-13
-2.19385e-13
-2.11217e-13
-2.02886e-13
-1.96899e-13
-1.873e-13
-1.79505e-13
-1.69307e-13
-1.67915e-13
-1.61406e-13
-1.54226e-13
-1.44698e-13
-1.48407e-13
-1.33905e-13
-1.22169e-13
-1.1127e-13
-9.61415e-14
-9.14879e-14
-8.19516e-14
-7.31021e-14
-6.62506e-14
-5.74044e-14
-5.57232e-14
-4.6732e-14
-3.75502e-14
-3.07362e-14
-3.14788e-14
-2.15256e-14
-5.76992e-15
6.38995e-16
-1.7664e-13
-1.71704e-13
-1.75843e-13
-1.7794e-13
-1.72149e-13
-1.71063e-13
-1.75905e-13
-1.77347e-13
-1.78271e-13
-1.79879e-13
-1.82237e-13
-1.86809e-13
-1.91574e-13
-1.85737e-13
-1.86845e-13
-2.04007e-13
-2.17923e-13
-2.19654e-13
-2.24639e-13
-2.21334e-13
-2.29727e-13
-2.40885e-13
-2.47824e-13
-2.56675e-13
-2.65093e-13
-2.72259e-13
-2.75286e-13
-2.71348e-13
-2.711e-13
-2.78517e-13
-2.81578e-13
-2.87918e-13
-2.8815e-13
-2.87618e-13
-2.91119e-13
-2.8082e-13
-2.74396e-13
-2.80786e-13
-2.87445e-13
-2.89437e-13
-2.7961e-13
-2.72838e-13
-2.68203e-13
-2.69707e-13
-2.71047e-13
-2.69272e-13
-2.72197e-13
-2.71039e-13
-2.60132e-13
-2.59684e-13
-2.57606e-13
-2.49052e-13
-2.47624e-13
-2.36056e-13
-2.34509e-13
-2.32409e-13
-2.29128e-13
-2.30823e-13
-2.29843e-13
-2.42357e-13
-2.42784e-13
-2.3611e-13
-2.32702e-13
-2.30555e-13
-2.28769e-13
-2.30497e-13
-2.29999e-13
-2.26938e-13
-2.25145e-13
-2.24198e-13
-2.26639e-13
-2.15582e-13
-2.07989e-13
-2.04081e-13
-1.99081e-13
-1.88133e-13
-1.791e-13
-1.6991e-13
-1.64257e-13
-1.61079e-13
-1.57481e-13
-1.48752e-13
-1.42537e-13
-1.29124e-13
-1.22085e-13
-1.12072e-13
-9.87138e-14
-8.84387e-14
-8.15347e-14
-7.36618e-14
-6.60781e-14
-6.04673e-14
-5.16499e-14
-4.45652e-14
-3.6391e-14
-3.18175e-14
-2.8683e-14
-2.56689e-14
-1.13209e-14
-4.46256e-16
-1.75976e-13
-1.71528e-13
-1.76511e-13
-1.78978e-13
-1.8e-13
-1.74602e-13
-1.77533e-13
-1.76402e-13
-1.8408e-13
-1.82143e-13
-1.80877e-13
-1.91198e-13
-1.9514e-13
-1.92096e-13
-1.85707e-13
-2.06552e-13
-2.15976e-13
-2.18483e-13
-2.27239e-13
-2.25356e-13
-2.274e-13
-2.42318e-13
-2.56331e-13
-2.57971e-13
-2.61175e-13
-2.6412e-13
-2.65311e-13
-2.73695e-13
-2.76142e-13
-2.74643e-13
-2.8066e-13
-2.88571e-13
-2.88691e-13
-2.87617e-13
-2.89798e-13
-2.8527e-13
-2.8195e-13
-2.8462e-13
-2.79068e-13
-2.79212e-13
-2.78745e-13
-2.7002e-13
-2.68315e-13
-2.71703e-13
-2.7628e-13
-2.71247e-13
-2.71011e-13
-2.72966e-13
-2.63839e-13
-2.5845e-13
-2.56278e-13
-2.45812e-13
-2.47002e-13
-2.42352e-13
-2.36576e-13
-2.34164e-13
-2.33271e-13
-2.28015e-13
-2.28975e-13
-2.44785e-13
-2.41867e-13
-2.3776e-13
-2.38588e-13
-2.32677e-13
-2.25261e-13
-2.23503e-13
-2.22051e-13
-2.2741e-13
-2.24692e-13
-2.23792e-13
-2.24883e-13
-2.17451e-13
-2.10863e-13
-2.03744e-13
-1.98747e-13
-1.89945e-13
-1.80616e-13
-1.70293e-13
-1.6119e-13
-1.61479e-13
-1.58666e-13
-1.47072e-13
-1.40534e-13
-1.29752e-13
-1.22802e-13
-1.14603e-13
-9.8459e-14
-8.63283e-14
-7.951e-14
-7.10168e-14
-6.77716e-14
-6.11568e-14
-5.50823e-14
-4.08802e-14
-3.16285e-14
-3.37105e-14
-3.07544e-14
-2.44372e-14
-8.86195e-15
-3.84526e-15
-1.81601e-13
-1.73377e-13
-1.78978e-13
-1.85438e-13
-1.75252e-13
-1.71187e-13
-1.71739e-13
-1.7851e-13
-1.82299e-13
-1.89775e-13
-1.88612e-13
-1.89741e-13
-1.93103e-13
-1.9391e-13
-1.94837e-13
-2.03785e-13
-2.1569e-13
-2.21062e-13
-2.20844e-13
-2.18561e-13
-2.36322e-13
-2.43358e-13
-2.61362e-13
-2.65888e-13
-2.64439e-13
-2.6449e-13
-2.68678e-13
-2.7373e-13
-2.77835e-13
-2.73011e-13
-2.80284e-13
-2.8546e-13
-2.9258e-13
-2.8786e-13
-2.84441e-13
-2.81069e-13
-2.8231e-13
-2.84977e-13
-2.83725e-13
-2.80543e-13
-2.72464e-13
-2.66663e-13
-2.71903e-13
-2.71837e-13
-2.74193e-13
-2.75324e-13
-2.74422e-13
-2.74545e-13
-2.61649e-13
-2.62035e-13
-2.58169e-13
-2.43435e-13
-2.43554e-13
-2.43483e-13
-2.39667e-13
-2.38694e-13
-2.33521e-13
-2.29972e-13
-2.34242e-13
-2.35973e-13
-2.35411e-13
-2.37129e-13
-2.35936e-13
-2.34838e-13
-2.30921e-13
-2.24556e-13
-2.19651e-13
-2.23199e-13
-2.22733e-13
-2.16506e-13
-2.17823e-13
-2.18353e-13
-2.13303e-13
-1.99802e-13
-1.96474e-13
-1.84655e-13
-1.79014e-13
-1.73561e-13
-1.65175e-13
-1.62306e-13
-1.56064e-13
-1.46394e-13
-1.43873e-13
-1.2965e-13
-1.1932e-13
-1.13527e-13
-9.86039e-14
-8.8791e-14
-7.97975e-14
-7.40709e-14
-6.82178e-14
-6.43427e-14
-5.50178e-14
-3.96491e-14
-3.14213e-14
-3.4425e-14
-2.91114e-14
-2.67044e-14
-1.36408e-14
-4.8077e-15
-1.80079e-13
-1.78584e-13
-1.79426e-13
-1.79503e-13
-1.82993e-13
-1.83924e-13
-1.7424e-13
-1.78635e-13
-1.82355e-13
-1.90851e-13
-1.90869e-13
-1.8845e-13
-1.94749e-13
-1.94589e-13
-1.96249e-13
-2.04594e-13
-2.09505e-13
-2.13519e-13
-2.2451e-13
-2.31861e-13
-2.5078e-13
-2.51673e-13
-2.47907e-13
-2.52878e-13
-2.62838e-13
-2.60965e-13
-2.69657e-13
-2.81434e-13
-2.75261e-13
-2.73673e-13
-2.79723e-13
-2.85428e-13
-2.88767e-13
-2.90334e-13
-2.84913e-13
-2.81963e-13
-2.7838e-13
-2.82953e-13
-2.81782e-13
-2.79204e-13
-2.74489e-13
-2.7142e-13
-2.6882e-13
-2.69406e-13
-2.66884e-13
-2.76129e-13
-2.74407e-13
-2.74978e-13
-2.62772e-13
-2.61776e-13
-2.64308e-13
-2.46047e-13
-2.39667e-13
-2.39274e-13
-2.39287e-13
-2.42898e-13
-2.3707e-13
-2.37258e-13
-2.33713e-13
-2.33488e-13
-2.27701e-13
-2.34109e-13
-2.37476e-13
-2.32192e-13
-2.34283e-13
-2.27175e-13
-2.24952e-13
-2.31467e-13
-2.26382e-13
-2.17028e-13
-2.08884e-13
-2.1366e-13
-2.08114e-13
-1.98029e-13
-1.927e-13
-1.90272e-13
-1.85528e-13
-1.69134e-13
-1.5919e-13
-1.59272e-13
-1.55903e-13
-1.48497e-13
-1.38943e-13
-1.27608e-13
-1.19781e-13
-1.14422e-13
-1.03586e-13
-9.14431e-14
-8.03232e-14
-7.3079e-14
-6.99664e-14
-6.30163e-14
-4.97598e-14
-4.00263e-14
-3.58765e-14
-3.89949e-14
-3.16962e-14
-2.56847e-14
-1.29046e-14
-6.17042e-15
-1.83242e-13
-1.83381e-13
-1.82945e-13
-1.82359e-13
-1.80203e-13
-1.79018e-13
-1.73962e-13
-1.8284e-13
-1.80772e-13
-1.85897e-13
-1.86765e-13
-1.93408e-13
-1.95905e-13
-1.95864e-13
-1.9908e-13
-2.04639e-13
-2.11228e-13
-2.14686e-13
-2.30476e-13
-2.32461e-13
-2.4094e-13
-2.40412e-13
-2.47304e-13
-2.59464e-13
-2.68547e-13
-2.67163e-13
-2.73218e-13
-2.78914e-13
-2.83738e-13
-2.73953e-13
-2.7758e-13
-2.81937e-13
-2.84021e-13
-2.8218e-13
-2.79308e-13
-2.7716e-13
-2.76148e-13
-2.87465e-13
-2.8485e-13
-2.87328e-13
-2.8031e-13
-2.67135e-13
-2.61431e-13
-2.64468e-13
-2.60422e-13
-2.73113e-13
-2.72318e-13
-2.74078e-13
-2.71039e-13
-2.62785e-13
-2.53134e-13
-2.41778e-13
-2.43248e-13
-2.43752e-13
-2.43757e-13
-2.43683e-13
-2.38944e-13
-2.3791e-13
-2.33943e-13
-2.33915e-13
-2.3299e-13
-2.35115e-13
-2.32354e-13
-2.30104e-13
-2.30956e-13
-2.23325e-13
-2.2416e-13
-2.2901e-13
-2.22317e-13
-2.1659e-13
-2.12682e-13
-2.10961e-13
-2.08564e-13
-2.05083e-13
-1.97487e-13
-1.88532e-13
-1.77671e-13
-1.65884e-13
-1.56852e-13
-1.51663e-13
-1.50266e-13
-1.45762e-13
-1.39539e-13
-1.33805e-13
-1.27008e-13
-1.16919e-13
-1.0242e-13
-9.24481e-14
-7.94949e-14
-7.0466e-14
-6.83989e-14
-6.39094e-14
-4.97069e-14
-3.934e-14
-3.80698e-14
-3.72861e-14
-3.19925e-14
-2.37751e-14
-1.24797e-14
-6.67784e-15
-1.78586e-13
-1.79721e-13
-1.80709e-13
-1.86609e-13
-1.84461e-13
-1.79589e-13
-1.78695e-13
-1.84219e-13
-1.84877e-13
-1.85094e-13
-1.88605e-13
-1.93716e-13
-2.01533e-13
-1.93889e-13
-1.96859e-13
-2.07407e-13
-2.09234e-13
-2.15514e-13
-2.29431e-13
-2.37912e-13
-2.42655e-13
-2.48493e-13
-2.45773e-13
-2.48884e-13
-2.5954e-13
-2.66839e-13
-2.77345e-13
-2.85593e-13
-2.85665e-13
-2.75022e-13
-2.72473e-13
-2.76614e-13
-2.82674e-13
-2.85398e-13
-2.82177e-13
-2.7925e-13
-2.73185e-13
-2.85127e-13
-2.83825e-13
-2.73147e-13
-2.70987e-13
-2.64088e-13
-2.69721e-13
-2.70105e-13
-2.66043e-13
-2.72286e-13
-2.68743e-13
-2.72329e-13
-2.69439e-13
-2.60716e-13
-2.55538e-13
-2.45693e-13
-2.47726e-13
-2.43148e-13
-2.39645e-13
-2.38629e-13
-2.37282e-13
-2.33544e-13
-2.36718e-13
-2.36878e-13
-2.37824e-13
-2.38577e-13
-2.32339e-13
-2.28015e-13
-2.29614e-13
-2.27263e-13
-2.23347e-13
-2.31742e-13
-2.23018e-13
-2.15481e-13
-2.15304e-13
-2.11115e-13
-2.02636e-13
-1.94895e-13
-1.92773e-13
-1.86959e-13
-1.7643e-13
-1.64191e-13
-1.55237e-13
-1.51659e-13
-1.43748e-13
-1.41238e-13
-1.38782e-13
-1.34849e-13
-1.26985e-13
-1.13497e-13
-1.00973e-13
-9.21964e-14
-8.35439e-14
-7.0055e-14
-6.63428e-14
-6.48299e-14
-5.562e-14
-4.1281e-14
-4.06033e-14
-3.58972e-14
-2.76475e-14
-2.08808e-14
-1.53785e-14
-7.3851e-15
-1.81056e-13
-1.82089e-13
-1.82005e-13
-1.86029e-13
-1.8835e-13
-1.80998e-13
-1.8125e-13
-1.83267e-13
-1.83889e-13
-1.87393e-13
-1.94852e-13
-1.9485e-13
-1.98968e-13
-1.91509e-13
-1.90477e-13
-2.0681e-13
-2.1558e-13
-2.11554e-13
-2.19995e-13
-2.41502e-13
-2.43342e-13
-2.52277e-13
-2.53781e-13
-2.52135e-13
-2.59103e-13
-2.64891e-13
-2.68219e-13
-2.79251e-13
-2.86643e-13
-2.75658e-13
-2.74696e-13
-2.74026e-13
-2.79533e-13
-2.89191e-13
-2.87518e-13
-2.84556e-13
-2.74299e-13
-2.74749e-13
-2.78571e-13
-2.71279e-13
-2.72575e-13
-2.7049e-13
-2.70912e-13
-2.70448e-13
-2.62616e-13
-2.61987e-13
-2.62619e-13
-2.67173e-13
-2.66795e-13
-2.60226e-13
-2.58202e-13
-2.49398e-13
-2.3989e-13
-2.39203e-13
-2.42551e-13
-2.43361e-13
-2.41162e-13
-2.34536e-13
-2.39111e-13
-2.33836e-13
-2.31997e-13
-2.34944e-13
-2.27758e-13
-2.28677e-13
-2.29169e-13
-2.36196e-13
-2.30066e-13
-2.33645e-13
-2.27575e-13
-2.15828e-13
-2.07151e-13
-2.04531e-13
-1.98883e-13
-1.91724e-13
-1.8824e-13
-1.87961e-13
-1.72877e-13
-1.65659e-13
-1.53756e-13
-1.52516e-13
-1.4536e-13
-1.38012e-13
-1.3154e-13
-1.33739e-13
-1.31969e-13
-1.13786e-13
-1.02063e-13
-9.12044e-14
-8.53865e-14
-7.14822e-14
-6.63134e-14
-6.44124e-14
-5.58083e-14
-4.49022e-14
-4.43939e-14
-4.10739e-14
-3.41609e-14
-1.75824e-14
-1.3297e-14
-3.99715e-15
-1.82965e-13
-1.84337e-13
-1.82823e-13
-1.83198e-13
-1.79677e-13
-1.80582e-13
-1.84934e-13
-1.87442e-13
-1.87746e-13
-1.84773e-13
-1.94899e-13
-1.95535e-13
-1.98584e-13
-1.90803e-13
-2.04576e-13
-2.00088e-13
-2.12702e-13
-2.15574e-13
-2.22915e-13
-2.30875e-13
-2.32966e-13
-2.53633e-13
-2.63214e-13
-2.59176e-13
-2.5842e-13
-2.677e-13
-2.75015e-13
-2.76554e-13
-2.80458e-13
-2.81259e-13
-2.77172e-13
-2.82326e-13
-2.78827e-13
-2.78683e-13
-2.81905e-13
-2.8186e-13
-2.73334e-13
-2.71646e-13
-2.6935e-13
-2.76046e-13
-2.68958e-13
-2.70314e-13
-2.70093e-13
-2.674e-13
-2.64118e-13
-2.59958e-13
-2.61559e-13
-2.68258e-13
-2.70185e-13
-2.59136e-13
-2.52106e-13
-2.47457e-13
-2.47125e-13
-2.44862e-13
-2.43832e-13
-2.36094e-13
-2.37705e-13
-2.34226e-13
-2.3707e-13
-2.39115e-13
-2.38713e-13
-2.41498e-13
-2.32896e-13
-2.25223e-13
-2.26465e-13
-2.36022e-13
-2.33461e-13
-2.28949e-13
-2.22158e-13
-2.10826e-13
-2.0449e-13
-2.03856e-13
-1.96961e-13
-1.85788e-13
-1.88912e-13
-1.88379e-13
-1.71668e-13
-1.58654e-13
-1.52703e-13
-1.4383e-13
-1.41997e-13
-1.34318e-13
-1.38597e-13
-1.28294e-13
-1.27286e-13
-1.19326e-13
-1.05896e-13
-9.01516e-14
-8.41524e-14
-7.22632e-14
-6.51755e-14
-6.13471e-14
-5.22581e-14
-4.38423e-14
-4.56462e-14
-3.9585e-14
-3.6812e-14
-2.32506e-14
-1.62187e-14
-7.61802e-15
-1.80256e-13
-1.82516e-13
-1.82301e-13
-1.81298e-13
-1.81496e-13
-1.84657e-13
-1.85169e-13
-1.84938e-13
-1.88883e-13
-1.9011e-13
-1.97572e-13
-1.98407e-13
-1.95368e-13
-1.98581e-13
-2.00727e-13
-2.03962e-13
-2.13678e-13
-2.16459e-13
-2.23076e-13
-2.23927e-13
-2.33481e-13
-2.45662e-13
-2.51325e-13
-2.55473e-13
-2.62907e-13
-2.69498e-13
-2.78063e-13
-2.78303e-13
-2.8235e-13
-2.84196e-13
-2.77571e-13
-2.7517e-13
-2.82941e-13
-2.824e-13
-2.83122e-13
-2.8132e-13
-2.70036e-13
-2.67592e-13
-2.65744e-13
-2.70167e-13
-2.66001e-13
-2.7523e-13
-2.7012e-13
-2.68944e-13
-2.66454e-13
-2.60123e-13
-2.57514e-13
-2.63948e-13
-2.651e-13
-2.63433e-13
-2.585e-13
-2.45293e-13
-2.43462e-13
-2.45281e-13
-2.41907e-13
-2.42199e-13
-2.44689e-13
-2.37925e-13
-2.36841e-13
-2.36205e-13
-2.33236e-13
-2.32111e-13
-2.31345e-13
-2.27074e-13
-2.29663e-13
-2.35449e-13
-2.29321e-13
-2.27666e-13
-2.25484e-13
-2.21552e-13
-2.0537e-13
-1.91698e-13
-1.91311e-13
-1.8443e-13
-1.87971e-13
-1.8695e-13
-1.77525e-13
-1.60365e-13
-1.46116e-13
-1.34909e-13
-1.39906e-13
-1.40691e-13
-1.31109e-13
-1.22676e-13
-1.21872e-13
-1.18258e-13
-1.08604e-13
-9.41147e-14
-8.37199e-14
-7.19335e-14
-6.75547e-14
-6.32053e-14
-5.34494e-14
-4.34104e-14
-4.34807e-14
-3.70198e-14
-3.38334e-14
-2.27563e-14
-1.3539e-14
-7.06568e-15
-1.8019e-13
-1.79795e-13
-1.83784e-13
-1.8009e-13
-1.82338e-13
-1.84022e-13
-1.87879e-13
-1.82532e-13
-1.90713e-13
-1.93655e-13
-2.03833e-13
-1.96752e-13
-1.97433e-13
-1.94502e-13
-1.97989e-13
-2.02178e-13
-2.11503e-13
-2.17015e-13
-2.19474e-13
-2.21485e-13
-2.46409e-13
-2.54553e-13
-2.59847e-13
-2.55671e-13
-2.64433e-13
-2.71879e-13
-2.77716e-13
-2.77442e-13
-2.79412e-13
-2.75593e-13
-2.76067e-13
-2.82065e-13
-2.82793e-13
-2.78963e-13
-2.77656e-13
-2.79304e-13
-2.69667e-13
-2.67693e-13
-2.67054e-13
-2.66756e-13
-2.68811e-13
-2.75381e-13
-2.68126e-13
-2.64771e-13
-2.63439e-13
-2.65437e-13
-2.64162e-13
-2.62989e-13
-2.63453e-13
-2.57157e-13
-2.53173e-13
-2.48158e-13
-2.48435e-13
-2.52804e-13
-2.39212e-13
-2.27253e-13
-2.40444e-13
-2.44634e-13
-2.46089e-13
-2.3841e-13
-2.32589e-13
-2.36809e-13
-2.3745e-13
-2.28705e-13
-2.31394e-13
-2.23063e-13
-2.28657e-13
-2.25042e-13
-2.21754e-13
-2.18432e-13
-2.09337e-13
-1.91246e-13
-1.79537e-13
-1.77791e-13
-1.88232e-13
-1.87804e-13
-1.72082e-13
-1.5404e-13
-1.5046e-13
-1.42476e-13
-1.41895e-13
-1.37196e-13
-1.24412e-13
-1.2434e-13
-1.17351e-13
-1.15803e-13
-1.08109e-13
-9.48447e-14
-8.26e-14
-7.02371e-14
-6.57311e-14
-6.08815e-14
-5.58463e-14
-4.75627e-14
-4.2638e-14
-3.10391e-14
-3.01858e-14
-2.17898e-14
-1.25812e-14
-6.76782e-15
-1.80339e-13
-1.73548e-13
-1.79206e-13
-1.84204e-13
-1.87072e-13
-1.87425e-13
-1.84898e-13
-1.8188e-13
-1.88674e-13
-2.00461e-13
-2.08908e-13
-2.04184e-13
-1.97038e-13
-1.94588e-13
-2.0071e-13
-2.1207e-13
-2.23041e-13
-2.26025e-13
-2.23302e-13
-2.19748e-13
-2.18707e-13
-2.2759e-13
-2.46163e-13
-2.62749e-13
-2.73763e-13
-2.80962e-13
-2.84689e-13
-2.81637e-13
-2.79314e-13
-2.72167e-13
-2.72157e-13
-2.80438e-13
-2.82464e-13
-2.85501e-13
-2.84412e-13
-2.73593e-13
-2.64517e-13
-2.65974e-13
-2.71446e-13
-2.66102e-13
-2.65354e-13
-2.69483e-13
-2.70326e-13
-2.71787e-13
-2.71536e-13
-2.67522e-13
-2.65905e-13
-2.64327e-13
-2.60155e-13
-2.52786e-13
-2.45326e-13
-2.4894e-13
-2.50476e-13
-2.43476e-13
-2.42267e-13
-2.34999e-13
-2.4239e-13
-2.40859e-13
-2.36168e-13
-2.32488e-13
-2.34742e-13
-2.37981e-13
-2.3754e-13
-2.30599e-13
-2.27455e-13
-2.23101e-13
-2.2369e-13
-2.2421e-13
-2.15963e-13
-2.13917e-13
-2.06238e-13
-1.94335e-13
-1.86477e-13
-1.84385e-13
-1.85271e-13
-1.80224e-13
-1.69599e-13
-1.57719e-13
-1.52122e-13
-1.43362e-13
-1.39341e-13
-1.31553e-13
-1.27543e-13
-1.24661e-13
-1.19914e-13
-1.12242e-13
-1.06054e-13
-9.16269e-14
-8.09036e-14
-6.972e-14
-6.56049e-14
-5.95768e-14
-5.18038e-14
-4.80915e-14
-4.47536e-14
-3.41671e-14
-2.57751e-14
-1.70937e-14
-1.23873e-14
-6.76085e-15
-1.80308e-13
-1.7708e-13
-1.75319e-13
-1.83836e-13
-1.89857e-13
-1.83949e-13
-1.94031e-13
-1.96516e-13
-1.99292e-13
-2.0187e-13
-2.00382e-13
-1.97559e-13
-1.97952e-13
-1.99764e-13
-2.03658e-13
-2.07692e-13
-2.12676e-13
-2.18184e-13
-2.17076e-13
-2.21373e-13
-2.41313e-13
-2.51872e-13
-2.58043e-13
-2.67917e-13
-2.66152e-13
-2.72162e-13
-2.77054e-13
-2.76587e-13
-2.7736e-13
-2.74599e-13
-2.72979e-13
-2.73452e-13
-2.75104e-13
-2.89325e-13
-2.95243e-13
-2.74239e-13
-2.60615e-13
-2.65963e-13
-2.6347e-13
-2.63999e-13
-2.72931e-13
-2.73919e-13
-2.75679e-13
-2.71218e-13
-2.64608e-13
-2.65326e-13
-2.63284e-13
-2.63334e-13
-2.58957e-13
-2.51582e-13
-2.48289e-13
-2.53132e-13
-2.52e-13
-2.46407e-13
-2.47822e-13
-2.39489e-13
-2.3548e-13
-2.38206e-13
-2.34785e-13
-2.36611e-13
-2.3102e-13
-2.31208e-13
-2.39052e-13
-2.30299e-13
-2.25775e-13
-2.29028e-13
-2.24653e-13
-2.19807e-13
-2.11924e-13
-2.0612e-13
-1.99236e-13
-1.94362e-13
-1.85047e-13
-1.85037e-13
-1.85351e-13
-1.8408e-13
-1.72216e-13
-1.55125e-13
-1.51229e-13
-1.39695e-13
-1.34778e-13
-1.25674e-13
-1.26685e-13
-1.28249e-13
-1.22941e-13
-1.11075e-13
-1.03935e-13
-9.13158e-14
-8.05436e-14
-6.96784e-14
-6.31863e-14
-6.11512e-14
-5.27303e-14
-4.6654e-14
-4.11833e-14
-3.62992e-14
-2.57179e-14
-1.76414e-14
-1.41388e-14
-3.26948e-15
-1.8203e-13
-1.75547e-13
-1.74167e-13
-1.83383e-13
-1.93904e-13
-1.86588e-13
-1.83609e-13
-1.93189e-13
-2.04914e-13
-2.08635e-13
-2.13548e-13
-2.04382e-13
-2.00055e-13
-1.98064e-13
-1.99154e-13
-2.12413e-13
-2.14531e-13
-2.2038e-13
-2.27416e-13
-2.19963e-13
-2.28107e-13
-2.43336e-13
-2.58935e-13
-2.66498e-13
-2.65044e-13
-2.71953e-13
-2.72504e-13
-2.71343e-13
-2.75119e-13
-2.71693e-13
-2.73023e-13
-2.8013e-13
-2.79943e-13
-2.86569e-13
-2.92148e-13
-2.77002e-13
-2.68829e-13
-2.64664e-13
-2.58661e-13
-2.62903e-13
-2.79769e-13
-2.74335e-13
-2.70846e-13
-2.69743e-13
-2.64919e-13
-2.65093e-13
-2.65618e-13
-2.65043e-13
-2.61369e-13
-2.54284e-13
-2.51986e-13
-2.46855e-13
-2.50157e-13
-2.49873e-13
-2.44343e-13
-2.38199e-13
-2.37951e-13
-2.36889e-13
-2.30676e-13
-2.32743e-13
-2.32211e-13
-2.33799e-13
-2.37047e-13
-2.29323e-13
-2.2891e-13
-2.21742e-13
-2.25309e-13
-2.23327e-13
-2.14059e-13
-1.97763e-13
-1.96412e-13
-1.92684e-13
-1.81652e-13
-1.8259e-13
-1.87792e-13
-1.79969e-13
-1.67274e-13
-1.60447e-13
-1.52865e-13
-1.4295e-13
-1.34702e-13
-1.23356e-13
-1.24181e-13
-1.23567e-13
-1.16105e-13
-1.10385e-13
-1.0183e-13
-9.37107e-14
-8.2787e-14
-7.03723e-14
-6.52873e-14
-6.18252e-14
-5.19784e-14
-4.85476e-14
-3.89208e-14
-2.88836e-14
-2.65644e-14
-2.15556e-14
-1.52283e-14
-9.01683e-15
-1.79531e-13
-1.77468e-13
-1.81975e-13
-1.90386e-13
-1.92573e-13
-1.9475e-13
-1.99812e-13
-1.90773e-13
-1.92907e-13
-2.00488e-13
-2.03478e-13
-2.03585e-13
-2.0571e-13
-2.02973e-13
-2.00482e-13
-2.09913e-13
-2.15268e-13
-2.10248e-13
-2.1829e-13
-2.28358e-13
-2.43126e-13
-2.54804e-13
-2.52396e-13
-2.55083e-13
-2.62936e-13
-2.68601e-13
-2.71027e-13
-2.75422e-13
-2.77078e-13
-2.72277e-13
-2.72743e-13
-2.78501e-13
-2.84686e-13
-2.87524e-13
-2.84857e-13
-2.74172e-13
-2.70838e-13
-2.60694e-13
-2.55308e-13
-2.69942e-13
-2.79444e-13
-2.74501e-13
-2.76021e-13
-2.68016e-13
-2.56436e-13
-2.65458e-13
-2.70412e-13
-2.71053e-13
-2.60498e-13
-2.56113e-13
-2.53889e-13
-2.48775e-13
-2.47468e-13
-2.46302e-13
-2.46593e-13
-2.43175e-13
-2.45635e-13
-2.3481e-13
-2.31643e-13
-2.32677e-13
-2.31519e-13
-2.34553e-13
-2.33156e-13
-2.29604e-13
-2.19336e-13
-2.18144e-13
-2.23429e-13
-2.25197e-13
-2.14168e-13
-1.96591e-13
-1.99699e-13
-1.93606e-13
-1.84051e-13
-1.81211e-13
-1.77295e-13
-1.7811e-13
-1.71168e-13
-1.64542e-13
-1.52496e-13
-1.40615e-13
-1.26594e-13
-1.28356e-13
-1.23932e-13
-1.23409e-13
-1.0994e-13
-1.06386e-13
-9.44234e-14
-9.69018e-14
-8.3213e-14
-7.17644e-14
-6.53167e-14
-6.21174e-14
-5.73862e-14
-4.39303e-14
-4.22396e-14
-2.85917e-14
-2.27746e-14
-1.95764e-14
-1.53314e-14
-9.53208e-15
-1.78154e-13
-1.82511e-13
-1.83707e-13
-1.8475e-13
-1.8629e-13
-1.88269e-13
-1.99431e-13
-2.02375e-13
-2.01096e-13
-2.03407e-13
-1.98374e-13
-1.96001e-13
-2.05038e-13
-2.10065e-13
-2.10696e-13
-2.14577e-13
-2.07138e-13
-2.08696e-13
-2.14932e-13
-2.29777e-13
-2.36394e-13
-2.49525e-13
-2.54964e-13
-2.5714e-13
-2.61308e-13
-2.66076e-13
-2.74476e-13
-2.6957e-13
-2.7404e-13
-2.69204e-13
-2.68435e-13
-2.7446e-13
-2.76947e-13
-2.85941e-13
-2.9159e-13
-2.77572e-13
-2.72206e-13
-2.63569e-13
-2.59033e-13
-2.68529e-13
-2.7674e-13
-2.73532e-13
-2.75854e-13
-2.71245e-13
-2.60971e-13
-2.58179e-13
-2.65737e-13
-2.75781e-13
-2.67327e-13
-2.60807e-13
-2.56969e-13
-2.539e-13
-2.49488e-13
-2.4919e-13
-2.42561e-13
-2.42775e-13
-2.46474e-13
-2.39581e-13
-2.33643e-13
-2.38384e-13
-2.29236e-13
-2.30532e-13
-2.30388e-13
-2.27263e-13
-2.22905e-13
-2.23622e-13
-2.22246e-13
-2.21752e-13
-2.11904e-13
-2.06406e-13
-1.99431e-13
-1.89569e-13
-1.82231e-13
-1.77253e-13
-1.76426e-13
-1.72866e-13
-1.64183e-13
-1.6323e-13
-1.51078e-13
-1.42805e-13
-1.31748e-13
-1.2606e-13
-1.1917e-13
-1.13722e-13
-1.11474e-13
-1.08248e-13
-1.01558e-13
-9.03571e-14
-7.67842e-14
-7.82698e-14
-7.1615e-14
-6.76172e-14
-5.5364e-14
-4.39284e-14
-3.7839e-14
-2.8534e-14
-2.34028e-14
-1.89803e-14
-1.9019e-14
-9.46554e-15
-1.86024e-13
-1.80997e-13
-1.81044e-13
-1.87839e-13
-1.90496e-13
-1.94537e-13
-2.02474e-13
-1.99949e-13
-1.9501e-13
-1.97539e-13
-1.99975e-13
-2.00443e-13
-2.01568e-13
-2.06991e-13
-2.1057e-13
-2.14688e-13
-2.03641e-13
-2.06389e-13
-2.21715e-13
-2.32004e-13
-2.39065e-13
-2.46965e-13
-2.50568e-13
-2.5337e-13
-2.65383e-13
-2.65653e-13
-2.72041e-13
-2.67152e-13
-2.6623e-13
-2.70078e-13
-2.69933e-13
-2.72848e-13
-2.80508e-13
-2.88421e-13
-2.83824e-13
-2.76629e-13
-2.61353e-13
-2.65322e-13
-2.72905e-13
-2.82658e-13
-2.75116e-13
-2.63668e-13
-2.69377e-13
-2.69963e-13
-2.63325e-13
-2.68088e-13
-2.65103e-13
-2.63447e-13
-2.62188e-13
-2.67309e-13
-2.61795e-13
-2.55856e-13
-2.57646e-13
-2.46187e-13
-2.45135e-13
-2.43732e-13
-2.4424e-13
-2.42631e-13
-2.39627e-13
-2.36314e-13
-2.32909e-13
-2.24675e-13
-2.27417e-13
-2.3336e-13
-2.29954e-13
-2.21853e-13
-2.21675e-13
-2.16931e-13
-2.11782e-13
-2.061e-13
-1.97908e-13
-1.89156e-13
-1.8118e-13
-1.76643e-13
-1.76923e-13
-1.73248e-13
-1.54566e-13
-1.5712e-13
-1.60153e-13
-1.50199e-13
-1.28484e-13
-1.18959e-13
-1.19089e-13
-1.20073e-13
-1.12193e-13
-1.03e-13
-9.44547e-14
-8.6562e-14
-8.24458e-14
-7.75428e-14
-7.35416e-14
-6.07033e-14
-5.5474e-14
-4.19747e-14
-3.72728e-14
-3.10786e-14
-2.61357e-14
-2.42414e-14
-1.83742e-14
-6.70594e-15
-1.8501e-13
-1.82184e-13
-1.7883e-13
-1.86497e-13
-1.94631e-13
-1.97083e-13
-2.02097e-13
-1.93079e-13
-1.94963e-13
-1.98224e-13
-2.02591e-13
-2.0034e-13
-2.00947e-13
-2.0647e-13
-2.06756e-13
-2.09795e-13
-2.14558e-13
-2.19354e-13
-2.21681e-13
-2.21503e-13
-2.31343e-13
-2.40436e-13
-2.5519e-13
-2.6341e-13
-2.61085e-13
-2.59929e-13
-2.64098e-13
-2.62387e-13
-2.69776e-13
-2.69004e-13
-2.69133e-13
-2.73814e-13
-2.7444e-13
-2.82381e-13
-2.84215e-13
-2.76241e-13
-2.68884e-13
-2.66867e-13
-2.73425e-13
-2.83369e-13
-2.85481e-13
-2.73702e-13
-2.59363e-13
-2.59784e-13
-2.64044e-13
-2.66439e-13
-2.69203e-13
-2.68263e-13
-2.64592e-13
-2.64016e-13
-2.54238e-13
-2.56378e-13
-2.5769e-13
-2.51546e-13
-2.48376e-13
-2.5047e-13
-2.44287e-13
-2.36686e-13
-2.3714e-13
-2.34892e-13
-2.32158e-13
-2.24157e-13
-2.22141e-13
-2.29797e-13
-2.28327e-13
-2.22518e-13
-2.21957e-13
-2.14186e-13
-2.11254e-13
-2.05628e-13
-1.96436e-13
-1.91745e-13
-1.81157e-13
-1.7744e-13
-1.7594e-13
-1.70582e-13
-1.54179e-13
-1.5464e-13
-1.52265e-13
-1.46372e-13
-1.33769e-13
-1.25177e-13
-1.17978e-13
-1.14906e-13
-1.07438e-13
-1.01371e-13
-9.58579e-14
-8.62121e-14
-8.68801e-14
-7.83796e-14
-7.15139e-14
-6.00359e-14
-5.03607e-14
-4.07975e-14
-3.8886e-14
-2.78147e-14
-2.39308e-14
-3.02694e-14
-1.73328e-14
-4.85907e-15
-1.81661e-13
-1.86397e-13
-1.85426e-13
-1.90533e-13
-1.94887e-13
-1.96389e-13
-1.95707e-13
-1.94102e-13
-1.93846e-13
-1.98364e-13
-1.99363e-13
-1.97803e-13
-1.97284e-13
-2.05594e-13
-2.09014e-13
-2.05441e-13
-2.08071e-13
-2.1517e-13
-2.19964e-13
-2.27296e-13
-2.33047e-13
-2.44246e-13
-2.57772e-13
-2.60549e-13
-2.59258e-13
-2.59904e-13
-2.60811e-13
-2.59957e-13
-2.69313e-13
-2.64065e-13
-2.67002e-13
-2.71273e-13
-2.76836e-13
-2.78339e-13
-2.82164e-13
-2.80511e-13
-2.76208e-13
-2.65634e-13
-2.67838e-13
-2.71655e-13
-2.81017e-13
-2.73558e-13
-2.70648e-13
-2.66569e-13
-2.68015e-13
-2.66326e-13
-2.68866e-13
-2.68527e-13
-2.65141e-13
-2.60758e-13
-2.56456e-13
-2.63081e-13
-2.54383e-13
-2.48761e-13
-2.46217e-13
-2.45426e-13
-2.44122e-13
-2.37791e-13
-2.30288e-13
-2.30068e-13
-2.27957e-13
-2.24858e-13
-2.25995e-13
-2.3546e-13
-2.33457e-13
-2.13041e-13
-2.19003e-13
-2.17336e-13
-2.12114e-13
-2.00856e-13
-1.90518e-13
-1.92014e-13
-1.81713e-13
-1.79734e-13
-1.73414e-13
-1.68188e-13
-1.55157e-13
-1.47173e-13
-1.49761e-13
-1.47369e-13
-1.38547e-13
-1.26419e-13
-1.20978e-13
-1.15581e-13
-1.1278e-13
-1.06973e-13
-9.70158e-14
-7.94424e-14
-8.23596e-14
-7.40609e-14
-6.61535e-14
-5.84253e-14
-5.16074e-14
-4.23804e-14
-3.46951e-14
-3.39482e-14
-2.73631e-14
-2.53419e-14
-1.55139e-14
-5.35962e-15
-1.83482e-13
-1.86304e-13
-1.87387e-13
-1.90503e-13
-1.92451e-13
-1.95806e-13
-2.00188e-13
-1.9479e-13
-1.93623e-13
-1.93564e-13
-1.94644e-13
-2.02107e-13
-1.97993e-13
-2.08343e-13
-2.06625e-13
-2.08104e-13
-2.15071e-13
-2.16543e-13
-2.19027e-13
-2.23877e-13
-2.28511e-13
-2.38359e-13
-2.50783e-13
-2.60929e-13
-2.60808e-13
-2.61437e-13
-2.59889e-13
-2.5796e-13
-2.66875e-13
-2.61046e-13
-2.63555e-13
-2.61526e-13
-2.66848e-13
-2.7042e-13
-2.91185e-13
-2.82883e-13
-2.7322e-13
-2.69013e-13
-2.68208e-13
-2.73157e-13
-2.80866e-13
-2.75546e-13
-2.69402e-13
-2.73021e-13
-2.67213e-13
-2.63706e-13
-2.64562e-13
-2.70354e-13
-2.70771e-13
-2.65909e-13
-2.53741e-13
-2.51134e-13
-2.54148e-13
-2.52227e-13
-2.51882e-13
-2.48387e-13
-2.48579e-13
-2.35056e-13
-2.31928e-13
-2.23144e-13
-2.2188e-13
-2.21126e-13
-2.25539e-13
-2.28475e-13
-2.26538e-13
-2.18107e-13
-2.18006e-13
-2.12179e-13
-2.08586e-13
-2.07648e-13
-1.99441e-13
-1.89103e-13
-1.71865e-13
-1.75098e-13
-1.71069e-13
-1.733e-13
-1.53724e-13
-1.52394e-13
-1.50782e-13
-1.43067e-13
-1.3736e-13
-1.29292e-13
-1.20813e-13
-1.12398e-13
-1.10155e-13
-1.08043e-13
-9.5882e-14
-8.37692e-14
-7.54225e-14
-7.8649e-14
-7.18605e-14
-5.80509e-14
-4.69905e-14
-4.25021e-14
-3.52251e-14
-2.8097e-14
-2.93647e-14
-2.62307e-14
-2.17153e-14
-6.13956e-15
-1.87641e-13
-1.86227e-13
-1.84056e-13
-1.85295e-13
-1.96352e-13
-1.94651e-13
-1.98659e-13
-1.97239e-13
-1.94882e-13
-1.95442e-13
-1.93727e-13
-1.96437e-13
-2.01014e-13
-2.06544e-13
-2.07225e-13
-2.06556e-13
-2.06849e-13
-2.12527e-13
-2.21064e-13
-2.24549e-13
-2.362e-13
-2.51824e-13
-2.56451e-13
-2.50688e-13
-2.46228e-13
-2.60268e-13
-2.63652e-13
-2.66441e-13
-2.68665e-13
-2.54768e-13
-2.56827e-13
-2.71965e-13
-2.70346e-13
-2.65993e-13
-2.75257e-13
-2.7908e-13
-2.71089e-13
-2.64607e-13
-2.69634e-13
-2.70304e-13
-2.82403e-13
-2.81587e-13
-2.74421e-13
-2.71834e-13
-2.62415e-13
-2.63471e-13
-2.61854e-13
-2.71022e-13
-2.67168e-13
-2.65077e-13
-2.64884e-13
-2.53731e-13
-2.52617e-13
-2.50791e-13
-2.52409e-13
-2.53199e-13
-2.50874e-13
-2.34659e-13
-2.25027e-13
-2.22195e-13
-2.29563e-13
-2.23472e-13
-2.22506e-13