/*--------------------------------*- C++ -*----------------------------------*\
| =========                 |                                                 |
| \\      /  F ield         | OpenFOAM: The Open Source CFD Toolbox           |
|  \\    /   O peration     | Version:  v2012                                 |
|   \\  /    A nd           | Website:  www.openfoam.com                      |
|    \\/     M anipulation  |                                                 |
\*---------------------------------------------------------------------------*/
FoamFile
{
    version     2.0;
    format      ascii;
    class       volScalarField;
    location    "12.5";
    object      p;
}
// * * * * * * * * * * * * * * * * * * * * * * * * * * * * * * * * * * * * * //

dimensions      [0 2 -2 0 0 0 0];


internalField   nonuniform List<scalar> 
65536
(
5.01261e-10
-1.46013e-06
-4.39957e-06
-8.83451e-06
-1.47688e-05
-2.22014e-05
-3.11339e-05
-4.15703e-05
-5.35149e-05
-6.69727e-05
-8.19497e-05
-9.84523e-05
-0.000116488
-0.000136064
-0.00015719
-0.000179875
-0.000204127
-0.000229957
-0.000257376
-0.000286394
-0.000317023
-0.000349275
-0.000383161
-0.000418695
-0.000455888
-0.000494754
-0.000535305
-0.000577555
-0.000621516
-0.000667201
-0.000714624
-0.000763798
-0.000814734
-0.000867445
-0.000921943
-0.000978239
-0.00103635
-0.00109627
-0.00115803
-0.00122162
-0.00128706
-0.00135435
-0.0014235
-0.00149452
-0.0015674
-0.00164215
-0.00171877
-0.00179726
-0.00187762
-0.00195983
-0.0020439
-0.00212982
-0.00221757
-0.00230715
-0.00239853
-0.0024917
-0.00258664
-0.00268333
-0.00278173
-0.00288182
-0.00298357
-0.00308694
-0.00319189
-0.00329839
-0.00340638
-0.00351582
-0.00362665
-0.00373882
-0.00385226
-0.00396693
-0.00408274
-0.00419962
-0.00431751
-0.00443633
-0.00455599
-0.0046764
-0.00479748
-0.00491914
-0.00504127
-0.00516379
-0.00528658
-0.00540954
-0.00553256
-0.00565553
-0.00577834
-0.00590087
-0.006023
-0.00614461
-0.00626557
-0.00638576
-0.00650507
-0.00662335
-0.00674049
-0.00685635
-0.00697081
-0.00708374
-0.00719502
-0.00730451
-0.0074121
-0.00751766
-0.00762107
-0.00772221
-0.00782096
-0.00791722
-0.00801086
-0.00810179
-0.0081899
-0.00827508
-0.00835726
-0.00843633
-0.00851221
-0.00858482
-0.00865409
-0.00871995
-0.00878233
-0.00884117
-0.00889643
-0.00894806
-0.00899602
-0.00904027
-0.00908079
-0.00911756
-0.00915056
-0.00917979
-0.00920525
-0.00922694
-0.00924486
-0.00925905
-0.00926951
-0.00927629
-0.0092794
-0.0092789
-0.00927482
-0.00926722
-0.00925615
-0.00924167
-0.00922385
-0.00920274
-0.00917843
-0.00915099
-0.00912049
-0.00908701
-0.00905065
-0.00901149
-0.00896961
-0.00892512
-0.00887809
-0.00882863
-0.00877683
-0.00872278
-0.00866659
-0.00860835
-0.00854817
-0.00848613
-0.00842233
-0.00835689
-0.00828988
-0.00822141
-0.00815157
-0.00808047
-0.00800818
-0.00793481
-0.00786045
-0.00778518
-0.00770909
-0.00763227
-0.0075548
-0.00747677
-0.00739825
-0.00731933
-0.00724007
-0.00716056
-0.00708086
-0.00700105
-0.00692119
-0.00684135
-0.00676159
-0.00668197
-0.00660255
-0.00652339
-0.00644454
-0.00636606
-0.00628799
-0.00621038
-0.00613327
-0.00605672
-0.00598076
-0.00590544
-0.00583078
-0.00575684
-0.00568363
-0.0056112
-0.00553957
-0.00546877
-0.00539884
-0.0053298
-0.00526166
-0.00519446
-0.00512822
-0.00506295
-0.00499867
-0.00493541
-0.00487318
-0.00481199
-0.00475185
-0.00469279
-0.00463481
-0.00457793
-0.00452215
-0.00446748
-0.00441393
-0.00436152
-0.00431023
-0.0042601
-0.00421111
-0.00416327
-0.00411659
-0.00407107
-0.00402671
-0.00398353
-0.00394151
-0.00390067
-0.00386099
-0.0038225
-0.00378518
-0.00374903
-0.00371406
-0.00368027
-0.00364766
-0.00361622
-0.00358596
-0.00355688
-0.00352897
-0.00350223
-0.00347667
-0.00345228
-0.00342906
-0.00340701
-0.00338613
-0.00336641
-0.00334787
-0.00333049
-0.00331427
-0.00329922
-0.00328533
-0.0032726
-0.00326103
-0.00325062
-0.00324137
-0.00323328
-0.00322634
-0.00322057
-0.00321594
-0.00321248
-0.00321017
-0.00320901
-2.70729e-06
-4.17231e-06
-7.11988e-06
-1.15598e-05
-1.74954e-05
-2.49279e-05
-3.38598e-05
-4.4295e-05
-5.62378e-05
-6.96937e-05
-8.46683e-05
-0.000101168
-0.000119201
-0.000138774
-0.000159897
-0.000182578
-0.000206826
-0.000232652
-0.000260066
-0.00028908
-0.000319704
-0.000351951
-0.000385832
-0.00042136
-0.000458548
-0.000497408
-0.000537953
-0.000580196
-0.000624151
-0.00066983
-0.000717247
-0.000766413
-0.000817343
-0.000870047
-0.000924538
-0.000980828
-0.00103893
-0.00109885
-0.00116059
-0.00122418
-0.00128961
-0.0013569
-0.00142604
-0.00149705
-0.00156993
-0.00164467
-0.00172129
-0.00179977
-0.00188012
-0.00196233
-0.0020464
-0.00213231
-0.00222006
-0.00230963
-0.00240101
-0.00249418
-0.00258912
-0.0026858
-0.00278421
-0.0028843
-0.00298605
-0.00308942
-0.00319438
-0.00330088
-0.00340887
-0.00351831
-0.00362915
-0.00374133
-0.00385478
-0.00396945
-0.00408527
-0.00420217
-0.00432008
-0.00443891
-0.00455858
-0.00467901
-0.00480011
-0.00492178
-0.00504393
-0.00516647
-0.00528928
-0.00541226
-0.00553531
-0.00565831
-0.00578114
-0.0059037
-0.00602585
-0.00614749
-0.00626848
-0.0063887
-0.00650803
-0.00662635
-0.00674352
-0.00685941
-0.0069739
-0.00708687
-0.00719817
-0.0073077
-0.00741532
-0.00752091
-0.00762435
-0.00772553
-0.00782431
-0.0079206
-0.00801427
-0.00810523
-0.00819336
-0.00827858
-0.00836078
-0.00843988
-0.00851578
-0.00858842
-0.00865771
-0.00872359
-0.00878599
-0.00884485
-0.00890013
-0.00895177
-0.00899974
-0.00904401
-0.00908454
-0.00912132
-0.00915433
-0.00918357
-0.00920903
-0.00923072
-0.00924865
-0.00926284
-0.0092733
-0.00928007
-0.00928318
-0.00928267
-0.00927859
-0.00927098
-0.0092599
-0.00924541
-0.00922757
-0.00920645
-0.00918213
-0.00915467
-0.00912415
-0.00909066
-0.00905428
-0.0090151
-0.0089732
-0.00892868
-0.00888163
-0.00883215
-0.00878032
-0.00872626
-0.00867004
-0.00861178
-0.00855157
-0.0084895
-0.00842568
-0.00836021
-0.00829318
-0.00822468
-0.00815482
-0.00808369
-0.00801138
-0.00793799
-0.0078636
-0.0077883
-0.00771219
-0.00763534
-0.00755785
-0.00747979
-0.00740125
-0.0073223
-0.00724302
-0.00716349
-0.00708377
-0.00700393
-0.00692405
-0.00684419
-0.00676441
-0.00668477
-0.00660533
-0.00652615
-0.00644728
-0.00636877
-0.00629068
-0.00621305
-0.00613593
-0.00605936
-0.00598339
-0.00590804
-0.00583337
-0.00575941
-0.00568619
-0.00561374
-0.00554209
-0.00547129
-0.00540134
-0.00533228
-0.00526413
-0.00519691
-0.00513066
-0.00506537
-0.00500109
-0.00493781
-0.00487557
-0.00481436
-0.00475422
-0.00469515
-0.00463716
-0.00458026
-0.00452447
-0.00446979
-0.00441624
-0.00436381
-0.00431252
-0.00426237
-0.00421337
-0.00416553
-0.00411884
-0.00407331
-0.00402895
-0.00398576
-0.00394373
-0.00390288
-0.0038632
-0.0038247
-0.00378737
-0.00375122
-0.00371625
-0.00368245
-0.00364983
-0.00361839
-0.00358812
-0.00355903
-0.00353112
-0.00350438
-0.00347881
-0.00345442
-0.00343119
-0.00340914
-0.00338826
-0.00336854
-0.00334999
-0.00333261
-0.00331639
-0.00330133
-0.00328744
-0.00327471
-0.00326314
-0.00325273
-0.00324348
-0.00323538
-0.00322845
-0.00322267
-0.00321804
-0.00321458
-0.00321227
-0.00321111
-8.14424e-06
-9.61724e-06
-1.25744e-05
-1.70193e-05
-2.29563e-05
-3.03883e-05
-3.93186e-05
-4.97511e-05
-6.16906e-05
-7.51423e-05
-9.01122e-05
-0.000106607
-0.000124634
-0.000144201
-0.000165317
-0.00018799
-0.00021223
-0.000238048
-0.000265454
-0.000294458
-0.000325073
-0.00035731
-0.00039118
-0.000426698
-0.000463874
-0.000502722
-0.000543256
-0.000585487
-0.000629429
-0.000675096
-0.000722499
-0.000771652
-0.000822568
-0.000875259
-0.000929736
-0.000986012
-0.0010441
-0.001104
-0.00116574
-0.00122931
-0.00129473
-0.001362
-0.00143113
-0.00150213
-0.00157499
-0.00164972
-0.00172632
-0.0018048
-0.00188514
-0.00196734
-0.0020514
-0.0021373
-0.00222504
-0.00231461
-0.00240598
-0.00249915
-0.00259408
-0.00269077
-0.00278917
-0.00288926
-0.00299101
-0.00309439
-0.00319935
-0.00330586
-0.00341386
-0.00352331
-0.00363416
-0.00374636
-0.00385983
-0.00397452
-0.00409036
-0.00420728
-0.00432521
-0.00444407
-0.00456377
-0.00468423
-0.00480536
-0.00492707
-0.00504927
-0.00517184
-0.0052947
-0.00541773
-0.00554082
-0.00566387
-0.00578675
-0.00590936
-0.00603157
-0.00615326
-0.00627431
-0.00639459
-0.00651398
-0.00663236
-0.00674959
-0.00686554
-0.0069801
-0.00709313
-0.0072045
-0.00731409
-0.00742178
-0.00752743
-0.00763094
-0.00773217
-0.00783102
-0.00792736
-0.0080211
-0.00811212
-0.00820031
-0.00828558
-0.00836784
-0.00844699
-0.00852294
-0.00859563
-0.00866496
-0.00873089
-0.00879332
-0.00885223
-0.00890754
-0.00895921
-0.00900721
-0.0090515
-0.00909206
-0.00912886
-0.00916189
-0.00919114
-0.00921661
-0.00923831
-0.00925624
-0.00927042
-0.00928088
-0.00928765
-0.00929075
-0.00929023
-0.00928613
-0.00927851
-0.00926741
-0.0092529
-0.00923503
-0.00921389
-0.00918953
-0.00916204
-0.00913149
-0.00909796
-0.00906154
-0.00902232
-0.00898039
-0.00893582
-0.00888873
-0.0088392
-0.00878733
-0.00873322
-0.00867695
-0.00861864
-0.00855838
-0.00849627
-0.0084324
-0.00836688
-0.00829979
-0.00823125
-0.00816134
-0.00809015
-0.00801779
-0.00794434
-0.0078699
-0.00779456
-0.00771839
-0.0076415
-0.00756396
-0.00748585
-0.00740726
-0.00732827
-0.00724894
-0.00716936
-0.00708959
-0.00700971
-0.00692979
-0.00684988
-0.00677005
-0.00669037
-0.00661089
-0.00653167
-0.00645276
-0.00637421
-0.00629608
-0.00621842
-0.00614126
-0.00606465
-0.00598864
-0.00591326
-0.00583856
-0.00576456
-0.00569131
-0.00561883
-0.00554715
-0.00547631
-0.00540634
-0.00533725
-0.00526907
-0.00520183
-0.00513554
-0.00507024
-0.00500592
-0.00494262
-0.00488035
-0.00481913
-0.00475896
-0.00469987
-0.00464185
-0.00458494
-0.00452912
-0.00447443
-0.00442085
-0.00436841
-0.0043171
-0.00426693
-0.00421791
-0.00417005
-0.00412335
-0.0040778
-0.00403343
-0.00399022
-0.00394818
-0.00390731
-0.00386762
-0.0038291
-0.00379176
-0.0037556
-0.00372062
-0.00368681
-0.00365418
-0.00362273
-0.00359245
-0.00356335
-0.00353543
-0.00350868
-0.0034831
-0.0034587
-0.00343547
-0.00341341
-0.00339252
-0.0033728
-0.00335424
-0.00333685
-0.00332063
-0.00330557
-0.00329167
-0.00327894
-0.00326736
-0.00325695
-0.00324769
-0.0032396
-0.00323266
-0.00322688
-0.00322225
-0.00321878
-0.00321647
-0.00321532
-1.63228e-05
-1.78006e-05
-2.07628e-05
-2.52104e-05
-3.11475e-05
-3.85779e-05
-4.75053e-05
-5.79337e-05
-6.9868e-05
-8.33134e-05
-9.82763e-05
-0.000114763
-0.000132782
-0.000152339
-0.000173445
-0.000196107
-0.000220336
-0.000246141
-0.000273534
-0.000302524
-0.000333125
-0.000365347
-0.000399202
-0.000434703
-0.000471863
-0.000510694
-0.000551209
-0.000593422
-0.000637346
-0.000682993
-0.000730377
-0.00077951
-0.000830406
-0.000883076
-0.000937533
-0.000993788
-0.00105185
-0.00111174
-0.00117345
-0.001237
-0.0013024
-0.00136965
-0.00143876
-0.00150974
-0.00158258
-0.0016573
-0.00173388
-0.00181234
-0.00189266
-0.00197485
-0.0020589
-0.00214479
-0.00223252
-0.00232208
-0.00241344
-0.0025066
-0.00260153
-0.00269821
-0.00279661
-0.00289671
-0.00299846
-0.00310185
-0.00320682
-0.00331333
-0.00342135
-0.00353082
-0.00364169
-0.0037539
-0.0038674
-0.00398212
-0.004098
-0.00421495
-0.00433292
-0.00445182
-0.00457156
-0.00469207
-0.00481326
-0.00493502
-0.00505727
-0.00517991
-0.00530283
-0.00542593
-0.00554909
-0.00567221
-0.00579517
-0.00591786
-0.00604015
-0.00616192
-0.00628306
-0.00640343
-0.00652291
-0.00664138
-0.0067587
-0.00687475
-0.0069894
-0.00710253
-0.007214
-0.00732368
-0.00743147
-0.00753722
-0.00764082
-0.00774215
-0.00784109
-0.00793753
-0.00803136
-0.00812246
-0.00821074
-0.0082961
-0.00837844
-0.00845766
-0.0085337
-0.00860645
-0.00867586
-0.00874184
-0.00880434
-0.0088633
-0.00891866
-0.00897039
-0.00901843
-0.00906276
-0.00910335
-0.00914018
-0.00917323
-0.0092025
-0.00922799
-0.0092497
-0.00926764
-0.00928182
-0.00929228
-0.00929903
-0.00930212
-0.00930159
-0.00929747
-0.00928981
-0.00927869
-0.00926414
-0.00924624
-0.00922505
-0.00920065
-0.00917311
-0.00914251
-0.00910893
-0.00907245
-0.00903317
-0.00899117
-0.00894655
-0.00889939
-0.00884979
-0.00879785
-0.00874367
-0.00868733
-0.00862895
-0.00856861
-0.00850642
-0.00844248
-0.00837688
-0.00830972
-0.0082411
-0.00817111
-0.00809985
-0.00802741
-0.00795389
-0.00787937
-0.00780395
-0.00772771
-0.00765074
-0.00757312
-0.00749494
-0.00741628
-0.00733721
-0.00725782
-0.00717816
-0.00709833
-0.00701838
-0.00693839
-0.00685841
-0.00677852
-0.00669878
-0.00661923
-0.00653995
-0.00646098
-0.00638238
-0.00630419
-0.00622647
-0.00614925
-0.00607259
-0.00599653
-0.0059211
-0.00584634
-0.00577229
-0.00569899
-0.00562646
-0.00555474
-0.00548386
-0.00541383
-0.0053447
-0.00527648
-0.0052092
-0.00514287
-0.00507753
-0.00501318
-0.00494984
-0.00488753
-0.00482627
-0.00476607
-0.00470694
-0.0046489
-0.00459195
-0.0045361
-0.00448138
-0.00442777
-0.0043753
-0.00432396
-0.00427377
-0.00422473
-0.00417684
-0.00413011
-0.00408454
-0.00404014
-0.00399691
-0.00395485
-0.00391396
-0.00387425
-0.00383571
-0.00379835
-0.00376217
-0.00372717
-0.00369335
-0.0036607
-0.00362923
-0.00359894
-0.00356983
-0.00354189
-0.00351513
-0.00348954
-0.00346512
-0.00344188
-0.00341981
-0.00339891
-0.00337918
-0.00336061
-0.00334322
-0.00332698
-0.00331192
-0.00329801
-0.00328527
-0.00327369
-0.00326327
-0.00325401
-0.00324591
-0.00323897
-0.00323319
-0.00322856
-0.00322509
-0.00322278
-0.00322162
-2.72441e-05
-2.87233e-05
-3.16869e-05
-3.61347e-05
-4.20704e-05
-4.94978e-05
-5.84207e-05
-6.88433e-05
-8.07704e-05
-9.42077e-05
-0.000109161
-0.000125638
-0.000143644
-0.000163189
-0.000184281
-0.000206929
-0.000231143
-0.000256932
-0.000284307
-0.000313279
-0.000343861
-0.000376063
-0.000409897
-0.000445377
-0.000482514
-0.000521323
-0.000561815
-0.000604003
-0.000647902
-0.000693524
-0.000740882
-0.000789989
-0.000840858
-0.000893502
-0.000947932
-0.00100416
-0.0010622
-0.00112205
-0.00118374
-0.00124726
-0.00131263
-0.00137986
-0.00144895
-0.0015199
-0.00159272
-0.00166741
-0.00174397
-0.0018224
-0.00190271
-0.00198488
-0.0020689
-0.00215478
-0.0022425
-0.00233204
-0.0024234
-0.00251655
-0.00261147
-0.00270815
-0.00280655
-0.00290664
-0.00300841
-0.0031118
-0.00321678
-0.00332331
-0.00343135
-0.00354084
-0.00365174
-0.00376398
-0.00387751
-0.00399227
-0.00410819
-0.00422519
-0.00434321
-0.00446216
-0.00458197
-0.00470254
-0.0048238
-0.00494564
-0.00506796
-0.00519068
-0.00531369
-0.00543687
-0.00556013
-0.00568335
-0.00580641
-0.0059292
-0.0060516
-0.00617349
-0.00629474
-0.00641523
-0.00653484
-0.00665343
-0.00677087
-0.00688705
-0.00700183
-0.00711508
-0.00722668
-0.0073365
-0.00744441
-0.00755029
-0.00765402
-0.00775548
-0.00785455
-0.00795111
-0.00804506
-0.00813628
-0.00822468
-0.00831015
-0.00839259
-0.00847193
-0.00854806
-0.00862091
-0.00869041
-0.00875648
-0.00881906
-0.0088781
-0.00893353
-0.00898532
-0.00903342
-0.0090778
-0.00911843
-0.0091553
-0.00918839
-0.00921769
-0.00924319
-0.00926491
-0.00928286
-0.00929705
-0.0093075
-0.00931424
-0.00931731
-0.00931675
-0.0093126
-0.00930492
-0.00929375
-0.00927915
-0.0092612
-0.00923996
-0.0092155
-0.00918789
-0.00915722
-0.00912357
-0.00908702
-0.00904766
-0.00900558
-0.00896087
-0.00891362
-0.00886393
-0.0088119
-0.00875762
-0.00870119
-0.00864271
-0.00858227
-0.00851998
-0.00845594
-0.00839024
-0.00832297
-0.00825425
-0.00818416
-0.00811279
-0.00804025
-0.00796663
-0.00789201
-0.00781648
-0.00774014
-0.00766307
-0.00758536
-0.00750708
-0.00742832
-0.00734915
-0.00726966
-0.00718992
-0.00710999
-0.00702995
-0.00694987
-0.0068698
-0.00678983
-0.00671
-0.00663037
-0.006551
-0.00647195
-0.00639327
-0.006315
-0.0062372
-0.00615991
-0.00608318
-0.00600704
-0.00593154
-0.00585672
-0.00578261
-0.00570924
-0.00563665
-0.00556486
-0.00549392
-0.00542384
-0.00535464
-0.00528637
-0.00521903
-0.00515265
-0.00508725
-0.00502285
-0.00495946
-0.00489711
-0.0048358
-0.00477555
-0.00471638
-0.00465829
-0.0046013
-0.00454541
-0.00449064
-0.004437
-0.00438449
-0.00433311
-0.00428288
-0.00423381
-0.00418588
-0.00413912
-0.00409352
-0.00404909
-0.00400583
-0.00396374
-0.00392283
-0.00388309
-0.00384452
-0.00380714
-0.00377093
-0.00373591
-0.00370206
-0.00366939
-0.0036379
-0.00360759
-0.00357846
-0.0035505
-0.00352372
-0.00349812
-0.00347369
-0.00345043
-0.00342834
-0.00340743
-0.00338768
-0.00336911
-0.0033517
-0.00333546
-0.00332038
-0.00330647
-0.00329372
-0.00328213
-0.0032717
-0.00326244
-0.00325433
-0.00324739
-0.0032416
-0.00323697
-0.0032335
-0.00323118
-0.00323003
-4.09041e-05
-4.2383e-05
-4.5346e-05
-4.97924e-05
-5.57252e-05
-6.31481e-05
-7.20649e-05
-8.24799e-05
-9.4398e-05
-0.000107825
-0.000122767
-0.00013923
-0.000157223
-0.000176752
-0.000197827
-0.000220457
-0.000244651
-0.00027042
-0.000297774
-0.000326724
-0.000357282
-0.000389459
-0.000423268
-0.000458721
-0.000495831
-0.000534611
-0.000575074
-0.000617233
-0.000661101
-0.000706691
-0.000754017
-0.000803092
-0.000853928
-0.000906538
-0.000960934
-0.00101713
-0.00107513
-0.00113495
-0.00119661
-0.0012601
-0.00132544
-0.00139263
-0.00146168
-0.0015326
-0.00160539
-0.00168005
-0.00175659
-0.00183499
-0.00191527
-0.00199742
-0.00208142
-0.00216728
-0.00225498
-0.0023445
-0.00243585
-0.00252899
-0.00262391
-0.00272058
-0.00281898
-0.00291908
-0.00302085
-0.00312425
-0.00322925
-0.0033358
-0.00344386
-0.00355338
-0.00366431
-0.00377659
-0.00389017
-0.00400498
-0.00412095
-0.00423801
-0.00435609
-0.00447512
-0.004595
-0.00471565
-0.00483699
-0.00495893
-0.00508135
-0.00520417
-0.00532729
-0.00545059
-0.00557396
-0.00569731
-0.0058205
-0.00594342
-0.00606596
-0.00618799
-0.00630938
-0.00643002
-0.00654978
-0.00666852
-0.00678612
-0.00690246
-0.0070174
-0.00713082
-0.00724258
-0.00735256
-0.00746063
-0.00756668
-0.00767057
-0.00777218
-0.00787141
-0.00796813
-0.00806223
-0.0081536
-0.00824214
-0.00832775
-0.00841033
-0.0084898
-0.00856606
-0.00863903
-0.00870864
-0.00877482
-0.00883751
-0.00889664
-0.00895216
-0.00900402
-0.0090522
-0.00909665
-0.00913734
-0.00917426
-0.00920738
-0.00923671
-0.00926224
-0.00928398
-0.00930194
-0.00931612
-0.00932657
-0.0093333
-0.00933634
-0.00933575
-0.00933157
-0.00932384
-0.00931262
-0.00929797
-0.00927995
-0.00925864
-0.0092341
-0.00920642
-0.00917566
-0.00914192
-0.00910527
-0.00906581
-0.00902363
-0.00897881
-0.00893145
-0.00888165
-0.0088295
-0.0087751
-0.00871855
-0.00865994
-0.00859938
-0.00853696
-0.00847279
-0.00840696
-0.00833957
-0.00827071
-0.00820049
-0.008129
-0.00805633
-0.00798257
-0.00790783
-0.00783217
-0.00775571
-0.00767851
-0.00760067
-0.00752227
-0.00744339
-0.0073641
-0.00728449
-0.00720462
-0.00712458
-0.00704443
-0.00696423
-0.00688406
-0.00680397
-0.00672403
-0.0066443
-0.00656483
-0.00648568
-0.00640689
-0.00632853
-0.00625064
-0.00617325
-0.00609643
-0.0060202
-0.00594461
-0.0058697
-0.00579551
-0.00572205
-0.00564938
-0.00557752
-0.0055065
-0.00543634
-0.00536708
-0.00529873
-0.00523132
-0.00516488
-0.00509941
-0.00503494
-0.00497149
-0.00490908
-0.00484771
-0.0047874
-0.00472817
-0.00467003
-0.00461299
-0.00455705
-0.00450223
-0.00444853
-0.00439597
-0.00434455
-0.00429428
-0.00424516
-0.00419719
-0.00415039
-0.00410475
-0.00406028
-0.00401698
-0.00397486
-0.0039339
-0.00389413
-0.00385554
-0.00381812
-0.00378188
-0.00374683
-0.00371295
-0.00368026
-0.00364874
-0.0036184
-0.00358925
-0.00356127
-0.00353446
-0.00350884
-0.00348439
-0.00346111
-0.00343901
-0.00341807
-0.00339831
-0.00337972
-0.0033623
-0.00334604
-0.00333095
-0.00331703
-0.00330427
-0.00329267
-0.00328224
-0.00327297
-0.00326485
-0.0032579
-0.00325211
-0.00324748
-0.003244
-0.00324168
-0.00324053
-5.72998e-05
-5.8778e-05
-6.17393e-05
-6.61827e-05
-7.21112e-05
-7.95281e-05
-8.84373e-05
-9.8843e-05
-0.00011075
-0.000124165
-0.000139092
-0.00015554
-0.000173516
-0.000193027
-0.000214082
-0.00023669
-0.000260862
-0.000286607
-0.000313935
-0.000342858
-0.000373388
-0.000405536
-0.000439315
-0.000474736
-0.000511814
-0.00055056
-0.000590988
-0.000633111
-0.000676943
-0.000722496
-0.000769784
-0.000818821
-0.000869618
-0.000922188
-0.000976545
-0.0010327
-0.00109066
-0.00115044
-0.00121206
-0.00127551
-0.00134081
-0.00140796
-0.00147697
-0.00154786
-0.00162061
-0.00169524
-0.00177174
-0.00185011
-0.00193036
-0.00201248
-0.00209646
-0.00218229
-0.00226997
-0.00235948
-0.00245081
-0.00254394
-0.00263885
-0.00273552
-0.00283392
-0.00293402
-0.0030358
-0.00313922
-0.00324424
-0.00335081
-0.0034589
-0.00356846
-0.00367943
-0.00379176
-0.00390539
-0.00402025
-0.00413629
-0.00425342
-0.00437158
-0.00449069
-0.00461067
-0.00473142
-0.00485286
-0.00497491
-0.00509745
-0.0052204
-0.00534364
-0.00546708
-0.0055906
-0.00571409
-0.00583744
-0.00596052
-0.00608323
-0.00620543
-0.006327
-0.00644781
-0.00656775
-0.00668668
-0.00680448
-0.006921
-0.00703614
-0.00714975
-0.0072617
-0.00737188
-0.00748015
-0.00758639
-0.00769048
-0.00779229
-0.0078917
-0.00798861
-0.00808289
-0.00817444
-0.00826316
-0.00834894
-0.00843169
-0.00851131
-0.00858773
-0.00866085
-0.0087306
-0.00879691
-0.00885971
-0.00891895
-0.00897458
-0.00902655
-0.00907481
-0.00911933
-0.00916009
-0.00919707
-0.00923024
-0.00925961
-0.00928518
-0.00930693
-0.0093249
-0.00933908
-0.00934952
-0.00935623
-0.00935925
-0.00935862
-0.00935439
-0.00934661
-0.00933533
-0.00932061
-0.00930251
-0.00928112
-0.00925649
-0.0092287
-0.00919784
-0.00916399
-0.00912723
-0.00908765
-0.00904534
-0.00900039
-0.00895289
-0.00890295
-0.00885066
-0.00879612
-0.00873942
-0.00868067
-0.00861995
-0.00855739
-0.00849306
-0.00842707
-0.00835952
-0.00829051
-0.00822013
-0.00814848
-0.00807566
-0.00800175
-0.00792684
-0.00785104
-0.00777442
-0.00769707
-0.00761908
-0.00754053
-0.00746149
-0.00738206
-0.00730231
-0.0072223
-0.00714211
-0.00706182
-0.00698149
-0.00690118
-0.00682096
-0.0067409
-0.00666104
-0.00658144
-0.00650217
-0.00642326
-0.00634478
-0.00626677
-0.00618928
-0.00611234
-0.00603601
-0.00596031
-0.0058853
-0.005811
-0.00573745
-0.00566468
-0.00559272
-0.00552161
-0.00545136
-0.00538201
-0.00531358
-0.00524608
-0.00517956
-0.00511401
-0.00504947
-0.00498594
-0.00492345
-0.00486201
-0.00480163
-0.00474233
-0.00468412
-0.00462701
-0.00457101
-0.00451613
-0.00446238
-0.00440976
-0.00435829
-0.00430796
-0.00425878
-0.00421077
-0.00416391
-0.00411822
-0.00407371
-0.00403036
-0.00398819
-0.0039472
-0.00390738
-0.00386875
-0.00383129
-0.00379502
-0.00375993
-0.00372602
-0.00369329
-0.00366174
-0.00363138
-0.00360219
-0.00357418
-0.00354735
-0.0035217
-0.00349722
-0.00347392
-0.0034518
-0.00343085
-0.00341106
-0.00339245
-0.00337501
-0.00335874
-0.00334364
-0.0033297
-0.00331693
-0.00330532
-0.00329488
-0.00328559
-0.00327747
-0.00327051
-0.00326472
-0.00326008
-0.0032566
-0.00325428
-0.00325312
-7.64294e-05
-7.79065e-05
-8.08651e-05
-8.53045e-05
-9.12274e-05
-9.86369e-05
-0.000107537
-0.000117932
-0.000129826
-0.000143226
-0.000158137
-0.000174567
-0.000192523
-0.000212013
-0.000233045
-0.000255629
-0.000279774
-0.000305491
-0.00033279
-0.000361683
-0.00039218
-0.000424295
-0.000458038
-0.000493424
-0.000530464
-0.000569171
-0.000609559
-0.000651642
-0.000695431
-0.000740942
-0.000788186
-0.000837178
-0.00088793
-0.000940455
-0.000994766
-0.00105087
-0.00110879
-0.00116853
-0.00123009
-0.0012935
-0.00135875
-0.00142586
-0.00149483
-0.00156567
-0.00163838
-0.00171297
-0.00178943
-0.00186777
-0.00194799
-0.00203007
-0.00211402
-0.00219983
-0.00228748
-0.00237698
-0.00246829
-0.00256141
-0.00265631
-0.00275297
-0.00285138
-0.00295149
-0.00305328
-0.00315671
-0.00326175
-0.00336836
-0.00347648
-0.00358608
-0.0036971
-0.00380949
-0.00392318
-0.00403811
-0.00415423
-0.00427145
-0.0043897
-0.00450891
-0.00462899
-0.00474986
-0.00487143
-0.0049936
-0.00511629
-0.00523938
-0.00536278
-0.00548638
-0.00561007
-0.00573373
-0.00585726
-0.00598054
-0.00610343
-0.00622583
-0.00634761
-0.00646864
-0.00658879
-0.00670794
-0.00682596
-0.00694271
-0.00705807
-0.00717191
-0.0072841
-0.0073945
-0.00750301
-0.00760947
-0.00771379
-0.00781582
-0.00791546
-0.00801259
-0.00810709
-0.00819885
-0.00828777
-0.00837375
-0.0084567
-0.00853651
-0.0086131
-0.00868639
-0.0087563
-0.00882276
-0.00888571
-0.00894509
-0.00900084
-0.00905292
-0.00910128
-0.00914589
-0.00918673
-0.00922378
-0.00925701
-0.00928643
-0.00931202
-0.0093338
-0.00935178
-0.00936597
-0.00937639
-0.00938308
-0.00938607
-0.0093854
-0.00938111
-0.00937326
-0.00936191
-0.00934711
-0.00932892
-0.00930743
-0.00928269
-0.00925479
-0.00922381
-0.00918982
-0.00915292
-0.0091132
-0.00907074
-0.00902564
-0.00897799
-0.00892788
-0.00887543
-0.00882071
-0.00876384
-0.00870491
-0.00864402
-0.00858127
-0.00851676
-0.00845059
-0.00838286
-0.00831367
-0.0082431
-0.00817127
-0.00809826
-0.00802416
-0.00794908
-0.00787309
-0.00779629
-0.00771876
-0.00764059
-0.00756187
-0.00748266
-0.00740306
-0.00732313
-0.00724296
-0.00716261
-0.00708215
-0.00700166
-0.00692119
-0.00684082
-0.0067606
-0.00668059
-0.00660085
-0.00652143
-0.00644239
-0.00636377
-0.00628562
-0.00620799
-0.00613092
-0.00605446
-0.00597864
-0.00590351
-0.00582909
-0.00575542
-0.00568254
-0.00561047
-0.00553925
-0.0054689
-0.00539944
-0.00533091
-0.00526332
-0.00519669
-0.00513105
-0.00506642
-0.0050028
-0.00494022
-0.0048787
-0.00481824
-0.00475886
-0.00470057
-0.00464339
-0.00458731
-0.00453236
-0.00447854
-0.00442585
-0.00437431
-0.00432391
-0.00427468
-0.0042266
-0.00417969
-0.00413394
-0.00408937
-0.00404597
-0.00400375
-0.00396271
-0.00392284
-0.00388416
-0.00384666
-0.00381035
-0.00377521
-0.00374126
-0.00370849
-0.00367691
-0.0036465
-0.00361728
-0.00358924
-0.00356238
-0.0035367
-0.0035122
-0.00348887
-0.00346672
-0.00344574
-0.00342594
-0.0034073
-0.00338984
-0.00337355
-0.00335843
-0.00334448
-0.00333169
-0.00332007
-0.00330961
-0.00330032
-0.00329219
-0.00328522
-0.00327942
-0.00327478
-0.00327129
-0.00326897
-0.00326781
-9.82908e-05
-9.97664e-05
-0.000102722
-0.000107156
-0.000113072
-0.000120473
-0.000129363
-0.000139745
-0.000151625
-0.000165008
-0.000179901
-0.000196311
-0.000214244
-0.00023371
-0.000254716
-0.000277272
-0.000301388
-0.000327074
-0.00035434
-0.000383198
-0.000413659
-0.000445736
-0.00047944
-0.000514784
-0.000551782
-0.000590446
-0.000630789
-0.000672825
-0.000716568
-0.00076203
-0.000809226
-0.000858168
-0.000908869
-0.000961343
-0.0010156
-0.00107166
-0.00112952
-0.00118921
-0.00125072
-0.00131408
-0.00137928
-0.00144634
-0.00151526
-0.00158605
-0.00165872
-0.00173326
-0.00180968
-0.00188798
-0.00196815
-0.0020502
-0.00213412
-0.0022199
-0.00230753
-0.002397
-0.0024883
-0.0025814
-0.0026763
-0.00277296
-0.00287137
-0.00297149
-0.00307329
-0.00317675
-0.00328181
-0.00338845
-0.00349662
-0.00360627
-0.00371734
-0.00382979
-0.00394356
-0.00405858
-0.00417478
-0.0042921
-0.00441046
-0.00452978
-0.00464999
-0.004771
-0.00489271
-0.00501503
-0.00513788
-0.00526114
-0.00538472
-0.0055085
-0.00563239
-0.00575626
-0.00588
-0.00600349
-0.00612661
-0.00624924
-0.00637125
-0.00649253
-0.00661293
-0.00673233
-0.0068506
-0.00696761
-0.00708323
-0.00719733
-0.00730979
-0.00742046
-0.00752923
-0.00763596
-0.00774054
-0.00784283
-0.00794273
-0.0080401
-0.00813485
-0.00822686
-0.00831602
-0.00840223
-0.0084854
-0.00856542
-0.00864222
-0.0087157
-0.0087858
-0.00885244
-0.00891555
-0.00897508
-0.00903097
-0.00908318
-0.00913166
-0.00917638
-0.00921731
-0.00925444
-0.00928773
-0.0093172
-0.00934284
-0.00936464
-0.00938263
-0.00939681
-0.00940723
-0.00941389
-0.00941684
-0.00941612
-0.00941177
-0.00940385
-0.00939241
-0.00937751
-0.00935922
-0.00933761
-0.00931274
-0.00928471
-0.00925358
-0.00921945
-0.00918239
-0.0091425
-0.00909987
-0.00905459
-0.00900676
-0.00895647
-0.00890382
-0.00884891
-0.00879184
-0.0087327
-0.00867161
-0.00860865
-0.00854393
-0.00847755
-0.00840961
-0.0083402
-0.00826943
-0.00819738
-0.00812416
-0.00804985
-0.00797455
-0.00789836
-0.00782135
-0.00774361
-0.00766524
-0.00758631
-0.0075069
-0.0074271
-0.00734698
-0.00726661
-0.00718607
-0.00710543
-0.00702475
-0.0069441
-0.00686355
-0.00678316
-0.00670297
-0.00662306
-0.00654348
-0.00646427
-0.00638549
-0.00630719
-0.00622941
-0.00615219
-0.00607558
-0.00599962
-0.00592434
-0.00584979
-0.00577599
-0.00570297
-0.00563078
-0.00555943
-0.00548895
-0.00541938
-0.00535073
-0.00528302
-0.00521629
-0.00515054
-0.0050858
-0.00502208
-0.0049594
-0.00489778
-0.00483723
-0.00477776
-0.00471938
-0.0046621
-0.00460594
-0.00455091
-0.004497
-0.00444424
-0.00439262
-0.00434215
-0.00429284
-0.0042447
-0.00419772
-0.00415191
-0.00410727
-0.00406381
-0.00402153
-0.00398043
-0.00394051
-0.00390177
-0.00386422
-0.00382785
-0.00379267
-0.00375867
-0.00372586
-0.00369423
-0.00366379
-0.00363453
-0.00360645
-0.00357955
-0.00355384
-0.0035293
-0.00350594
-0.00348376
-0.00346275
-0.00344292
-0.00342427
-0.00340678
-0.00339047
-0.00337533
-0.00336136
-0.00334855
-0.00333692
-0.00332645
-0.00331714
-0.003309
-0.00330202
-0.00329621
-0.00329156
-0.00328808
-0.00328575
-0.00328459
-0.000122882
-0.000124356
-0.000127308
-0.000131736
-0.000137645
-0.000145036
-0.000153913
-0.000164281
-0.000176145
-0.00018951
-0.000204382
-0.000220769
-0.000238678
-0.000258117
-0.000279095
-0.00030162
-0.000325703
-0.000351355
-0.000378584
-0.000407404
-0.000437825
-0.00046986
-0.000503521
-0.00053882
-0.000575771
-0.000614386
-0.00065468
-0.000696666
-0.000740356
-0.000785765
-0.000832906
-0.000881793
-0.000932439
-0.000984856
-0.00103906
-0.00109506
-0.00115286
-0.00121249
-0.00127395
-0.00133725
-0.00140239
-0.0014694
-0.00153827
-0.00160901
-0.00168162
-0.00175611
-0.00183249
-0.00191074
-0.00199088
-0.00207289
-0.00215677
-0.00224252
-0.00233012
-0.00241957
-0.00251085
-0.00260394
-0.00269883
-0.00279549
-0.0028939
-0.00299403
-0.00309586
-0.00319934
-0.00330444
-0.00341112
-0.00351933
-0.00362904
-0.00374018
-0.0038527
-0.00396655
-0.00408166
-0.00419797
-0.0043154
-0.00443389
-0.00455334
-0.00467369
-0.00479485
-0.00491673
-0.00503922
-0.00516225
-0.00528571
-0.00540949
-0.00553349
-0.00565759
-0.00578169
-0.00590567
-0.00602941
-0.00615279
-0.00627568
-0.00639796
-0.00651951
-0.00664019
-0.00675988
-0.00687844
-0.00699574
-0.00711166
-0.00722607
-0.00733882
-0.00744979
-0.00755886
-0.00766589
-0.00777077
-0.00787336
-0.00797354
-0.00807121
-0.00816624
-0.00825852
-0.00834795
-0.00843442
-0.00851784
-0.0085981
-0.00867513
-0.00874884
-0.00881915
-0.00888599
-0.00894929
-0.00900899
-0.00906504
-0.00911739