/*--------------------------------*- C++ -*----------------------------------*\
| =========                 |                                                 |
| \\      /  F ield         | OpenFOAM: The Open Source CFD Toolbox           |
|  \\    /   O peration     | Version:  v2012                                 |
|   \\  /    A nd           | Website:  www.openfoam.com                      |
|    \\/     M anipulation  |                                                 |
\*---------------------------------------------------------------------------*/
FoamFile
{
    version     2.0;
    format      ascii;
    class       volScalarField;
    location    "12.5";
    object      Psi_z;
}
// * * * * * * * * * * * * * * * * * * * * * * * * * * * * * * * * * * * * * //

dimensions      [0 2 -1 0 0 0 0];


internalField   nonuniform List<scalar> 
65536
(
8.91759e-06
2.67533e-05
4.45903e-05
6.24296e-05
8.02724e-05
9.81193e-05
0.000115971
0.000133829
0.000151694
0.000169567
0.000187448
0.000205339
0.00022324
0.000241151
0.000259074
0.000277009
0.000294956
0.000312917
0.000330891
0.000348879
0.000366882
0.000384899
0.000402931
0.000420977
0.000439039
0.000457115
0.000475206
0.000493312
0.000511432
0.000529565
0.000547712
0.000565871
0.000584042
0.000602223
0.000620415
0.000638616
0.000656824
0.000675038
0.000693257
0.000711478
0.000729701
0.000747923
0.000766142
0.000784356
0.000802562
0.000820758
0.000838941
0.000857108
0.000875256
0.000893382
0.000911481
0.000929552
0.000947589
0.000965589
0.000983547
0.00100146
0.00101932
0.00103713
0.00105488
0.00107256
0.00109017
0.0011077
0.00112516
0.00114252
0.00115979
0.00117696
0.00119403
0.00121098
0.00122781
0.00124452
0.00126109
0.00127753
0.00129381
0.00130994
0.0013259
0.0013417
0.00135731
0.00137274
0.00138797
0.00140301
0.00141783
0.00143243
0.0014468
0.00146094
0.00147484
0.00148849
0.00150187
0.00151499
0.00152783
0.00154039
0.00155265
0.00156462
0.00157627
0.00158762
0.00159864
0.00160932
0.00161968
0.00162969
0.00163934
0.00164864
0.00165758
0.00166615
0.00167434
0.00168215
0.00168957
0.00169661
0.00170324
0.00170948
0.00171531
0.00172074
0.00172576
0.00173036
0.00173454
0.00173831
0.00174166
0.00174458
0.00174709
0.00174916
0.00175082
0.00175205
0.00175286
0.00175324
0.00175321
0.00175275
0.00175188
0.00175059
0.00174888
0.00174677
0.00174425
0.00174132
0.001738
0.00173428
0.00173017
0.00172567
0.00172079
0.00171553
0.00170991
0.00170391
0.00169756
0.00169086
0.0016838
0.00167641
0.00166868
0.00166063
0.00165225
0.00164356
0.00163457
0.00162527
0.00161568
0.00160581
0.00159566
0.00158524
0.00157456
0.00156362
0.00155243
0.001541
0.00152934
0.00151745
0.00150535
0.00149303
0.00148051
0.00146779
0.00145488
0.00144179
0.00142852
0.00141508
0.00140148
0.00138772
0.00137381
0.00135976
0.00134558
0.00133126
0.00131681
0.00130225
0.00128757
0.00127279
0.0012579
0.00124292
0.00122785
0.00121268
0.00119744
0.00118212
0.00116673
0.00115126
0.00113574
0.00112016
0.00110452
0.00108882
0.00107309
0.0010573
0.00104148
0.00102562
0.00100972
0.0009938
0.000977847
0.000961869
0.000945869
0.00092985
0.000913813
0.000897762
0.000881698
0.000865624
0.000849542
0.000833454
0.000817361
0.000801265
0.000785168
0.000769071
0.000752976
0.000736884
0.000720797
0.000704714
0.000688639
0.00067257
0.00065651
0.00064046
0.000624419
0.000608388
0.000592369
0.000576361
0.000560365
0.000544382
0.000528412
0.000512455
0.00049651
0.00048058
0.000464662
0.000448758
0.000432868
0.000416991
0.000401128
0.000385277
0.00036944
0.000353615
0.000337803
0.000322002
0.000306214
0.000290437
0.000274671
0.000258916
0.000243171
0.000227435
0.000211709
0.000195991
0.000180282
0.000164579
0.000148884
0.000133195
0.000117512
0.000101833
8.6159e-05
7.04886e-05
5.48213e-05
3.91564e-05
2.34932e-05
7.83094e-06
2.67524e-05
8.02586e-05
0.000133769
0.000187286
0.000240813
0.000294353
0.000347909
0.000401482
0.000455076
0.000508694
0.000562337
0.000616008
0.000669709
0.000723443
0.00077721
0.000831015
0.000884857
0.000938738
0.00099266
0.00104662
0.00110063
0.00115468
0.00120878
0.00126292
0.0013171
0.00137133
0.00142561
0.00147992
0.00153428
0.00158868
0.00164312
0.0016976
0.00175212
0.00180666
0.00186124
0.00191584
0.00197047
0.00202511
0.00207977
0.00213444
0.00218911
0.00224377
0.00229843
0.00235308
0.0024077
0.00246229
0.00251684
0.00257135
0.00262579
0.00268017
0.00273448
0.00278869
0.00284281
0.00289681
0.00295069
0.00300443
0.00305802
0.00311145
0.00316469
0.00321774
0.00327058
0.00332319
0.00337556
0.00342766
0.00347948
0.003531
0.0035822
0.00363307
0.00368357
0.0037337
0.00378342
0.00383273
0.00388158
0.00392998
0.00397788
0.00402527
0.00407212
0.00411841
0.00416413
0.00420923
0.0042537
0.00429751
0.00434065
0.00438308
0.00442477
0.00446572
0.00450588
0.00454524
0.00458377
0.00462145
0.00465825
0.00469416
0.00472914
0.00476317
0.00479624
0.00482831
0.00485938
0.00488941
0.00491839
0.00494629
0.00497311
0.00499881
0.00502339
0.00504683
0.00506911
0.00509021
0.00511013
0.00512885
0.00514635
0.00516263
0.00517768
0.00519149
0.00520405
0.00521535
0.00522539
0.00523417
0.00524168
0.00524791
0.00525288
0.00525657
0.005259
0.00526015
0.00526004
0.00525867
0.00525604
0.00525217
0.00524706
0.00524071
0.00523315
0.00522437
0.00521439
0.00520322
0.00519089
0.00517739
0.00516274
0.00514697
0.00513008
0.0051121
0.00509303
0.00507291
0.00505175
0.00502956
0.00500637
0.0049822
0.00495707
0.00493099
0.004904
0.0048761
0.00484733
0.00481771
0.00478725
0.00475598
0.00472392
0.0046911
0.00465753
0.00462324
0.00458825
0.00455258
0.00451625
0.00447929
0.00444172
0.00440355
0.00436482
0.00432553
0.00428572
0.0042454
0.00420459
0.00416331
0.00412158
0.00407942
0.00403685
0.00399389
0.00395056
0.00390686
0.00386283
0.00381847
0.00377381
0.00372885
0.00368362
0.00363813
0.00359239
0.00354643
0.00350024
0.00345385
0.00340728
0.00336052
0.0033136
0.00326652
0.0032193
0.00317195
0.00312447
0.00307689
0.0030292
0.00298142
0.00293356
0.00288563
0.00283763
0.00278956
0.00274145
0.0026933
0.0026451
0.00259688
0.00254863
0.00250036
0.00245208
0.00240379
0.0023555
0.00230721
0.00225892
0.00221065
0.00216238
0.00211414
0.00206591
0.0020177
0.00196952
0.00192137
0.00187324
0.00182515
0.00177709
0.00172907
0.00168108
0.00163313
0.00158522
0.00153735
0.00148952
0.00144172
0.00139397
0.00134626
0.00129859
0.00125096
0.00120337
0.00115582
0.00110831
0.00106083
0.00101339
0.000965995
0.00091863
0.0008713
0.000824003
0.000776738
0.000729503
0.000682297
0.000635118
0.000587966
0.000540837
0.000493731
0.000446646
0.000399579
0.000352529
0.000305495
0.000258473
0.000211463
0.000164462
0.000117467
7.04785e-05
2.34925e-05
4.45858e-05
0.00013376
0.00022294
0.000312133
0.000401342
0.000490572
0.000579828
0.000669115
0.000758435
0.000847795
0.000937197
0.00102665
0.00111615
0.0012057
0.00129531
0.00138498
0.00147472
0.00156452
0.00165439
0.00174433
0.00183434
0.00192442
0.00201458
0.00210482
0.00219512
0.00228551
0.00237596
0.00246649
0.00255709
0.00264776
0.0027385
0.0028293
0.00292016
0.00301107
0.00310204
0.00319305
0.00328409
0.00337517
0.00346627
0.00355739
0.00364851
0.00373964
0.00383074
0.00392182
0.00401287
0.00410386
0.00419479
0.00428564
0.0043764
0.00446704
0.00455756
0.00464793
0.00473814
0.00482816
0.00491797
0.00500756
0.00509689
0.00518595
0.00527471
0.00536314
0.00545123
0.00553893
0.00562622
0.00571308
0.00579947
0.00588536
0.00597072
0.00605552
0.00613971
0.00622328
0.00630618
0.00638837
0.00646983
0.00655051
0.00663037
0.00670938
0.00678749
0.00686468
0.00694089
0.00701609
0.00709023
0.00716328
0.0072352
0.00730594
0.00737546
0.00744373
0.0075107
0.00757632
0.00764057
0.00770339
0.00776476
0.00782462
0.00788295
0.0079397
0.00799483
0.00804831
0.00810011
0.00815019
0.0081985
0.00824504
0.00828975
0.00833261
0.0083736
0.00841267
0.00844982
0.00848501
0.00851822
0.00854943
0.00857861
0.00860576
0.00863085
0.00865387
0.00867481
0.00869366
0.0087104
0.00872503
0.00873754
0.00874794
0.00875621
0.00876237
0.0087664
0.00876832
0.00876813
0.00876584
0.00876146
0.008755
0.00874647
0.00873588
0.00872326
0.00870862
0.00869197
0.00867335
0.00865277
0.00863025
0.00860583
0.00857952
0.00855135
0.00852136
0.00848957
0.00845601
0.00842072
0.00838372
0.00834505
0.00830474
0.00826283
0.00821935
0.00817433
0.00812782
0.00807984
0.00803044
0.00797966
0.00792752
0.00787406
0.00781933
0.00776336
0.00770618
0.00764783
0.00758836
0.00752779
0.00746617
0.00740352
0.00733989
0.00727531
0.00720981
0.00714343
0.00707621
0.00700817
0.00693935
0.00686978
0.0067995
0.00672853
0.00665691
0.00658466
0.00651182
0.00643841
0.00636446
0.00629
0.00621506
0.00613966
0.00606382
0.00598758
0.00591095
0.00583397
0.00575664
0.00567899
0.00560105
0.00552283
0.00544436
0.00536565
0.00528671
0.00520758
0.00512826
0.00504878
0.00496914
0.00488936
0.00480945
0.00472944
0.00464933
0.00456914
0.00448887
0.00440854
0.00432816
0.00424774
0.00416729
0.00408682
0.00400633
0.00392584
0.00384535
0.00376486
0.0036844
0.00360396
0.00352354
0.00344316
0.00336281
0.00328251
0.00320225
0.00312204
0.00304189
0.00296179
0.00288175
0.00280177
0.00272185
0.00264199
0.00256221
0.00248249
0.00240283
0.00232324
0.00224372
0.00216427
0.00208489
0.00200557
0.00192632
0.00184713
0.00176801
0.00168895
0.00160995
0.00153101
0.00145213
0.0013733
0.00129453
0.00121581
0.00113713
0.0010585
0.000979917
0.000901371
0.000822863
0.000744389
0.000665947
0.000587533
0.000509144
0.000430777
0.000352428
0.000274095
0.000195774
0.000117461
3.9153e-05
6.24169e-05
0.000187254
0.0003121
0.000436964
0.00056185
0.000686766
0.000811718
0.000936713
0.00106176
0.00118685
0.00131201
0.00143724
0.00156253
0.0016879
0.00181335
0.00193889
0.00206451
0.00219023
0.00231605
0.00244196
0.00256797
0.00269409
0.00282031
0.00294664
0.00307307
0.00319961
0.00332625
0.00345299
0.00357984
0.00370678
0.00383381
0.00396094
0.00408815
0.00421543
0.00434279
0.00447021
0.00459769
0.00472521
0.00485276
0.00498034
0.00510793
0.00523551
0.00536308
0.00549061
0.00561809
0.0057455
0.00587282
0.00600003
0.00612711
0.00625404
0.00638079
0.00650734
0.00663365
0.00675971
0.00688548
0.00701094
0.00713604
0.00726075
0.00738505
0.0075089
0.00763225
0.00775508
0.00787733
0.00799897
0.00811996
0.00824025
0.0083598
0.00847856
0.00859649
0.00871353
0.00882964
0.00894476
0.00905885
0.00917185
0.00928371
0.00939438
0.0095038
0.00961191
0.00971866
0.009824
0.00992786
0.0100302
0.0101309
0.01023
0.0103274
0.010423
0.0105169
0.0106088
0.0106988
0.0107868
0.0108728
0.0109566
0.0110383
0.0111178
0.0111951
0.01127
0.0113426
0.0114127
0.0114804
0.0115456
0.0116082
0.0116683
0.0117257
0.0117805
0.0118325
0.0118818
0.0119283
0.011972
0.0120129
0.0120509
0.0120861
0.0121183
0.0121477
0.0121741
0.0121975
0.012218
0.0122355
0.0122501
0.0122617
0.0122703
0.0122759
0.0122786
0.0122783
0.0122751
0.012269
0.0122599
0.0122479
0.0122331
0.0122154
0.0121949
0.0121715
0.0121454
0.0121166
0.012085
0.0120508
0.0120139
0.0119745
0.0119324
0.0118879
0.0118409
0.0117914
0.0117396
0.0116854
0.0116289
0.0115702
0.0115092
0.0114462
0.011381
0.0113138
0.0112446
0.0111734
0.0111004
0.0110255
0.0109488
0.0108704
0.0107903
0.0107086
0.0106252
0.0105404
0.0104541
0.0103663
0.0102772
0.0101867
0.010095
0.010002
0.00990784
0.00981254
0.00971614
0.0096187
0.00952026
0.00942086
0.00932055
0.00921936
0.00911734
0.00901453
0.00891097
0.00880669
0.00870173
0.00859614
0.00848993
0.00838316
0.00827585
0.00816803
0.00805974
0.00795101
0.00784186
0.00773233
0.00762244
0.00751222
0.00740169
0.00729088
0.00717981
0.00706851
0.00695699
0.00684528
0.0067334
0.00662136
0.00650919
0.0063969
0.00628451
0.00617204
0.00605949
0.00594689
0.00583424
0.00572157
0.00560887
0.00549617
0.00538348
0.00527079
0.00515813
0.0050455
0.00493291
0.00482037
0.00470788
0.00459545
0.00448308
0.00437079
0.00425857
0.00414642
0.00403436
0.00392239
0.0038105
0.0036987
0.003587
0.00347539
0.00336387
0.00325245
0.00314112
0.00302989
0.00291875
0.00280771
0.00269676
0.0025859
0.00247513
0.00236445
0.00225385
0.00214334
0.00203291
0.00192255
0.00181227
0.00170206
0.00159192
0.00148184
0.00137183
0.00126187
0.00115196
0.0010421
0.000932287
0.000822511
0.000712771
0.000603062
0.000493378
0.000383717
0.000274071
0.000164438
5.48119e-05
8.02445e-05
0.000240738
0.000401244
0.000561771
0.000722328
0.000882924
0.00104357
0.00120426
0.00136502
0.00152585
0.00168676
0.00184775
0.00200884
0.00217002
0.00233131
0.00249271
0.00265422
0.00281585
0.00297761
0.00313949
0.00330151
0.00346365
0.00362594
0.00378836
0.00395091
0.0041136
0.00427643
0.00443939
0.00460248
0.0047657
0.00492904
0.00509249
0.00525606
0.00541973
0.00558348
0.00574733
0.00591124
0.00607521
0.00623923
0.00640328
0.00656735
0.00673141
0.00689545
0.00705945
0.00722338
0.00738723
0.00755096
0.00771456
0.00787799
0.00804122
0.00820423
0.00836698
0.00852943
0.00869156
0.00885332
0.00901467
0.00917557
0.00933598
0.00949585
0.00965515
0.00981381
0.0099718
0.0101291
0.0102855
0.0104412
0.0105959
0.0107497
0.0109024
0.0110541
0.0112047
0.0113541
0.0115022
0.011649
0.0117943
0.0119383
0.0120806
0.0122214
0.0123605
0.0124979
0.0126334
0.012767
0.0128987
0.0130283
0.0131558
0.0132811
0.0134042
0.0135249
0.0136432
0.013759
0.0138723
0.0139829
0.0140908
0.0141959
0.0142983
0.0143976
0.0144941
0.0145874
0.0146777
0.0147648
0.0148487
0.0149293
0.0150066
0.0150805
0.0151509
0.0152179
0.0152814
0.0153412
0.0153975
0.0154501
0.015499
0.0155443
0.0155857
0.0156235
0.0156574
0.0156876
0.015714
0.0157365
0.0157552
0.0157701
0.0157812
0.0157884
0.0157919
0.0157915
0.0157873
0.0157794
0.0157677
0.0157523
0.0157332
0.0157104
0.0156839
0.0156539
0.0156203
0.0155831
0.0155425
0.0154984
0.015451
0.0154001
0.015346
0.0152887
0.0152281
0.0151645
0.0150977
0.015028
0.0149553
0.0148797
0.0148013
0.0147201
0.0146362
0.0145497
0.0144607
0.0143691
0.0142751
0.0141787
0.01408
0.0139791
0.013876
0.0137709
0.0136637
0.0135545
0.0134434
0.0133305
0.0132158
0.0130994
0.0129814
0.0128618
0.0127406
0.012618
0.012494
0.0123686
0.012242
0.0121141
0.0119851
0.0118549
0.0117237
0.0115914
0.0114582
0.0113241
0.0111891
0.0110532
0.0109166
0.0107793
0.0106413
0.0105026
0.0103633
0.0102235
0.0100831
0.0099422
0.00980086
0.0096591
0.00951695
0.00937444
0.0092316
0.00908846
0.00894504
0.00880138
0.0086575
0.00851342
0.00836917
0.00822477
0.00808024
0.00793561
0.00779088
0.00764608
0.00750123
0.00735634
0.00721143
0.00706651
0.0069216
0.00677671
0.00663184
0.00648702
0.00634225
0.00619754
0.0060529
0.00590833
0.00576385
0.00561946
0.00547517
0.00533098
0.0051869
0.00504293
0.00489907
0.00475533
0.0046117
0.0044682
0.00432482
0.00418157
0.00403843
0.00389542
0.00375253
0.00360976
0.00346711
0.00332458
0.00318217
0.00303987
0.00289767
0.00275559
0.00261361
0.00247173
0.00232995
0.00218825
0.00204665
0.00190513
0.00176368
0.00162231
0.00148101
0.00133977
0.00119859
0.00105746
0.000916369
0.000775322
0.000634308
0.000493322
0.000352358
0.000211408
7.04684e-05
9.80679e-05
0.000294209
0.000490366
0.000686548
0.000882768
0.00107904
0.00127536
0.00147175
0.00166822
0.00186478
0.00206143
0.00225818
0.00245505
0.00265204
0.00284916
0.00304641
0.0032438
0.00344135
0.00363904
0.00383689
0.00403491
0.00423308
0.00443143
0.00462994
0.00482862
0.00502747
0.00522648
0.00542566
0.005625
0.0058245
0.00602415
0.00622394
0.00642387
0.00662393
0.0068241
0.00702437
0.00722474
0.00742517
0.00762567
0.00782621
0.00802677
0.00822733
0.00842786
0.00862835
0.00882876
0.00902907
0.00922924
0.00942925
0.00962906
0.00982863
0.0100279
0.0102269
0.0104255
0.0106238
0.0108216
0.0110188
0.0112156
0.0114117
0.0116072
0.011802
0.0119961
0.0121893
0.0123816
0.0125729
0.0127632
0.0129525
0.0131406
0.0133274
0.013513
0.0136971
0.0138798
0.014061
0.0142405
0.0144183
0.0145943
0.0147685
0.0149407
0.0151109
0.0152789
0.0154447
0.0156082
0.0157692
0.0159278
0.0160838
0.0162371
0.0163877
0.0165354
0.0166801
0.0168218
0.0169604
0.0170957
0.0172277
0.0173564
0.0174816
0.0176032
0.0177212
0.0178354
0.0179459
0.0180525
0.0181551
0.0182538
0.0183483
0.0184387
0.0185249
0.0186069
0.0186845
0.0187577
0.0188266
0.0188909
0.0189508
0.0190061
0.0190569
0.0191031
0.0191446
0.0191815
0.0192137
0.0192413
0.0192642
0.0192824
0.0192959
0.0193048
0.0193089
0.0193084
0.0193033
0.0192936
0.0192793
0.0192604
0.0192369
0.019209
0.0191766
0.0191398
0.0190986
0.0190532
0.0190034
0.0189494
0.0188913
0.0188291
0.0187629
0.0186927
0.0186186
0.0185406
0.0184589
0.0183736
0.0182846
0.0181921
0.0180961
0.0179968
0.0178941
0.0177882
0.0176792
0.0175672
0.0174522
0.0173342
0.0172135
0.01709
0.0169639
0.0168352
0.0167041
0.0165705
0.0164346
0.0162965
0.0161562
0.0160138
0.0158694
0.0157231
0.0155749
0.0154249
0.0152732
0.0151199
0.014965
0.0148086
0.0146507
0.0144915
0.014331
0.0141693
0.0140063
0.0138423
0.0136772
0.0135111
0.013344
0.0131761
0.0130073
0.0128377
0.0126674
0.0124964
0.0123248
0.0121525
0.0119797
0.0118064
0.0116326
0.0114583
0.0112837
0.0111087
0.0109334
0.0107577
0.0105818
0.0104057
0.0102293
0.0100528
0.00987609
0.00969928
0.00952235
0.00934534
0.00916827
0.00899115
0.00881401
0.00863686
0.00845971
0.0082826
0.00810552
0.00792849
0.00775153
0.00757464
0.00739784
0.00722114
0.00704454
0.00686805
0.00669168
0.00651544
0.00633933
0.00616336
0.00598753
0.00581184
0.00563629
0.0054609
0.00528566
0.00511056
0.00493562
0.00476083
0.00458619
0.0044117
0.00423735
0.00406315
0.00388909
0.00371517
0.00354139
0.00336774
0.00319421
0.00302081
0.00284753
0.00267436
0.0025013
0.00232834
0.00215547
0.00198269
0.00181
0.00163739
0.00146484
0.00129236
0.00111993
0.000947549
0.000775211
0.000602906
0.000430629
0.00025837
8.6122e-05
0.000115886
0.000347664
0.000579461
0.000811289
0.00104316
0.00127509
0.00150709
0.00173916
0.00197133
0.0022036
0.00243599
0.0026685
0.00290114
0.00313393
0.00336687
0.00359997
0.00383324
0.00406669
0.00430032
0.00453414
0.00476814
0.00500235
0.00523675
0.00547136
0.00570616
0.00594117
0.00617637
0.00641178
0.00664737
0.00688316
0.00711912
0.00735526
0.00759156
0.00782801
0.00806461
0.00830133
0.00853816
0.00877508
0.00901208
0.00924912
0.0094862
0.00972328
0.00996033
0.0101973
0.0104342
0.010671
0.0109077
0.0111441
0.0113804
0.0116163
0.0118519
0.0120872
0.0123221
0.0125564
0.0127903
0.0130236
0.0132562
0.0134882
0.0137193
0.0139497
0.0141791
0.0144076
0.014635
0.0148613
0.0150864
0.0153102
0.0155327
0.0157537
0.0159731
0.016191
0.0164071
0.0166213
0.0168337
0.0170441
0.0172523
0.0174583
0.0176621
0.0178634
0.0180621
0.0182583
0.0184517
0.0186423
0.0188299
0.0190145
0.0191959
0.019374
0.0195488
0.01972
0.0198877
0.0200517
0.0202118
0.0203681
0.0205203
0.0206685
0.0208124
0.020952
0.0210872
0.021218
0.0213441
0.0214656
0.0215823
0.0216942
0.0218012
0.0219032
0.0220002
0.022092
0.0221787
0.0222601
0.0223363
0.0224072
0.0224726
0.0225327
0.0225873
0.0226364
0.0226801
0.0227182
0.0227508
0.0227778
0.0227994
0.0228153
0.0228258
0.0228307
0.0228301
0.0228239
0.0228124
0.0227954
0.022773
0.0227452
0.0227121
0.0226737
0.0226301
0.0225814
0.0225275
0.0224685
0.0224046
0.0223358
0.0222621
0.0221837
0.0221006
0.0220128
0.0219206
0.0218238
0.0217228
0.0216174
0.0215079
0.0213943
0.0212767
0.0211552
0.0210299
0.0209009
0.0207683
0.0206321
0.0204926
0.0203497
0.0202036
0.0200543
0.0199021
0.0197469
0.0195888
0.019428
0.0192646
0.0190986
0.0189302
0.0187593
0.0185862
0.0184109
0.0182335
0.018054
0.0178727
0.0176895
0.0175045
0.0173178
0.0171295
0.0169396
0.0167483
0.0165556
0.0163616
0.0161664
0.0159699
0.0157724
0.0155738
0.0153742
0.0151737
0.0149723
0.0147701
0.0145671
0.0143634
0.0141591
0.0139542
0.0137487
0.0135427
0.0133362
0.0131293
0.012922
0.0127143
0.0125064
0.0122981
0.0120896
0.011881
0.0116721
0.0114631
0.0112539
0.0110447
0.0108354
0.010626
0.0104166
0.0102072
0.00999781
0.00978846
0.00957915
0.00936991
0.00916074
0.00895167
0.0087427
0.00853384
0.00832512
0.00811652
0.00790807
0.00769978
0.00749163
0.00728366
0.00707584
0.00686821
0.00666074
0.00645345
0.00624634
0.00603941
0.00583266
0.00562609
0.0054197
0.00521349
0.00500745
0.00480158
0.00459588
0.00439035
0.00418498
0.00397976
0.0037747
0.00356978
0.003365
0.00316036
0.00295584
0.00275145
0.00254717
0.00234299
0.00213892
0.00193493
0.00173103
0.0015272
0.00132344
0.00111974
0.00091608
0.000712465
0.000508881
0.00030532
0.000101772
0.000133698
0.000401101
0.000668525
0.000935987
0.0012035
0.00147108
0.00173873
0.00200648
0.00227434
0.00254232
0.00281043
0.00307868
0.00334709
0.00361567
0.00388443
0.00415337
0.00442251
0.00469185
0.00496141
0.00523119
0.00550119
0.00577142
0.00604188
0.00631257
0.0065835
0.00685467
0.00712607
0.0073977
0.00766955
0.00794163
0.00821392
0.00848641
0.0087591
0.00903196
0.009305
0.00957818
0.00985149
0.0101249
0.0103984
0.010672
0.0109456
0.0112193
0.0114929
0.0117664
0.0120399
0.0123132
0.0125863
0.0128593
0.013132
0.0134043
0.0136763
0.0139479
0.014219
0.0144896
0.0147596
0.015029
0.0152976
0.0155654
0.0158323
0.0160982
0.0163632
0.016627
0.0168896
0.017151
0.0174109
0.0176694
0.0179263
0.0181815
0.018435
0.0186865
0.0189361
0.0191837
0.019429
0.0196719
0.0199125
0.0201505
0.0203858
0.0206184
0.020848
0.0210746
0.0212981
0.0215183
0.0217351
0.0219483
0.0221579
0.0223638
0.0225657
0.0227636
0.0229573
0.0231468
0.0233319
0.0235125
0.0236884
0.0238596
0.0240259
0.0241873
0.0243435
0.0244946
0.0246404
0.0247808
0.0249157
0.025045
0.0251686
0.0252865
0.0253986
0.0255047
0.0256049
0.025699
0.025787
0.0258689
0.0259445
0.0260139
0.026077
0.0261338
0.0261842
0.0262282
0.0262658
0.0262971
0.0263219
0.0263403
0.0263523
0.0263579
0.0263572
0.0263501
0.0263366
0.0263169
0.026291
0.0262588
0.0262205
0.0261761
0.0261256
0.0260692
0.0260069
0.0259387
0.0258648
0.0257851
0.0256999
0.0256092
0.0255131
0.0254116
0.0253049
0.0251931
0.0250763
0.0249545
0.0248279
0.0246965
0.0245606
0.0244201
0.0242753
0.0241262
0.0239729
0.0238156
0.0236543
0.0234891
0.0233203
0.0231478
0.0229719
0.0227925
0.0226099
0.0224242
0.0222353
0.0220435
0.0218489
0.0216516
0.0214516
0.0212491
0.0210441
0.0208369
0.0206274
0.0204157
0.020202
0.0199864
0.0197689
0.0195497
0.0193288
0.0191062
0.0188822
0.0186567
0.0184299
0.0182018
0.0179725
0.017742
0.0175105
0.0172779
0.0170445
0.0168101
0.016575
0.0163391
0.0161025
0.0158653
0.0156275
0.0153891
0.0151502
0.0149109
0.0146713
0.0144312
0.0141908
0.0139502
0.0137093
0.0134682
0.013227
0.0129856
0.0127441
0.0125025
0.0122609
0.0120192
0.0117775
0.0115359
0.0112943
0.0110527
0.0108113
0.0105699
0.0103286
0.0100874
0.00984644
0.00960557
0.00936486
0.00912432
0.00888396
0.00864378
0.00840379
0.008164
0.00792441
0.00768502
0.00744583
0.00720686
0.00696809
0.00672953
0.00649119
0.00625305
0.00601511
0.00577738
0.00553985
0.00530251
0.00506537
0.00482841
0.00459164
0.00435504
0.00411861
0.00388235
0.00364624
0.00341028
0.00317445
0.00293876
0.0027032
0.00246774
0.0022324
0.00199715
0.00176198
0.00152689
0.00129187
0.00105691
0.000821993
0.000587112
0.000352257
0.000117417
0.000151502
0.000454515
0.000757553
0.00106063
0.00136377
0.00166698
0.00197029
0.0022737
0.00257723
0.0028809
0.00318472
0.00348871
0.00379287
0.00409723
0.00440179
0.00470657
0.00501157
0.00531681
0.00562229
0.00592802
0.00623401
0.00654026
0.00684677
0.00715356
0.00746061
0.00776794
0.00807554
0.0083834
0.00869152
0.00899989
0.00930852
0.00961738
0.00992646
0.0102358
0.0105452
0.0108549
0.0111647
0.0114747
0.0117847
0.0120949
0.012405
0.0127153
0.0130254
0.0133356
0.0136456
0.0139555
0.0142652
0.0145747
0.0148839
0.0151927
0.0155011
0.0158091
0.0161166
0.0164234
0.0167296
0.0170351
0.0173397
0.0176434
0.0179462
0.0182478
0.0185484
0.0188476
0.0191455
0.019442
0.0197369
0.0200301
0.0203215
0.0206111
0.0208987
0.0211841
0.0214673
0.0217482
0.0220265
0.0223023
0.0225752
0.0228453
0.0231124
0.0233763
0.023637
0.0238942
0.0241478
0.0243977
0.0246438
0.0248858
0.0251238
0.0253574
0.0255866
0.0258113
0.0260312
0.0262464
0.0264565
0.0266615
0.0268612
0.0270556
0.0272444
0.0274276
0.027605
0.0277765
0.0279421
0.0281015
0.0282546
0.0284014
0.0285418
0.0286757
0.0288029
0.0289234
0.0290371
0.029144
0.0292439
0.0293368
0.0294227
0.0295014
0.0295731
0.0296375
0.0296947
0.0297446
0.0297873
0.0298227
0.0298508
0.0298717
0.0298852
0.0298916
0.0298906
0.0298825
0.0298672
0.0298447
0.0298152
0.0297786
0.029735
0.0296845
0.0296271
0.0295629
0.0294921
0.0294146
0.0293306
0.0292401
0.0291433
0.0290402
0.028931
0.0288157
0.0286945
0.0285674
0.0284347
0.0282964
0.0281525
0.0280034
0.027849
0.0276895
0.027525
0.0273557
0.0271816
0.0270029
0.0268198
0.0266323
0.0264406
0.0262448
0.0260451
0.0258415
0.0256342
0.0254233
0.025209
0.0249913
0.0247704
0.0245465
0.0243195
0.0240897
0.0238571
0.0236219
0.0233842
0.023144
0.0229016
0.022657
0.0224102
0.0221615
0.0219108
0.0216584
0.0214042
0.0211485
0.0208912
0.0206324
0.0203723
0.0201109
0.0198483
0.0195846
0.0193198
0.019054
0.0187873
0.0185198
0.0182515
0.0179825
0.0177128
0.0174425
0.0171717
0.0169003
0.0166286
0.0163564
0.0160838
0.015811
0.0155379
0.0152646
0.0149911
0.0147174
0.0144436
0.0141697
0.0138958
0.0136218
0.0133479
0.0130739
0.0128001
0.0125262
0.0122525
0.0119789
0.0117054
0.0114321
0.0111589
0.0108859
0.010613
0.0103404
0.010068
0.00979575
0.00952375
0.00925196
0.00898041
0.0087091
0.00843801
0.00816717
0.00789657
0.0076262
0.00735608
0.00708619
0.00681654
0.00654712
0.00627792
0.00600896
0.00574021
0.00547167
0.00520335
0.00493522
0.00466729
0.00439954
0.00413197
0.00386457
0.00359733
0.00333024
0.00306329
0.00279647
0.00252977
0.00226318
0.00199669
0.00173028
0.00146396
0.00119769
0.000931485
0.000665317
0.000399178
0.000133057
0.000169299
0.000507905
0.00084654
0.00118522
0.00152397
0.0018628
0.00220174
0.00254079
0.00287998
0.00321933
0.00355885
0.00389856
0.00423847
0.00457859
0.00491895
0.00525955
0.0056004
0.00594152
0.00628291
0.00662459
0.00696656
0.00730883
0.0076514
0.00799427
0.00833746
0.00868094
0.00902474
0.00936884
0.00971323
0.0100579
0.0104029
0.0107481
0.0110936
0.0114393
0.0117853
0.0121315
0.0124778
0.0128243
0.0131709
0.0135177
0.0138645
0.0142113
0.0145581
0.0149048
0.0152515
0.015598
0.0159443
0.0162904
0.0166361
0.0169815
0.0173264
0.0176708
0.0180147
0.0183579
0.0187004
0.019042
0.0193827
0.0197225
0.0200611
0.0203986
0.0207348
0.0210696
0.0214029
0.0217345
0.0220645
0.0223926
0.0227187
0.0230427
0.0233645
0.023684
0.0240009
0.0243152
0.0246267
0.0249353
0.0252409
0.0255432
0.0258421
0.0261376
0.0264293
0.0267173
0.0270012
0.027281
0.0275565
0.0278275
0.0280939
0.0283555
0.0286122
0.0288637
0.02911
0.0293509
0.0295862
0.0298157
0.0300394
0.0302571
0.0304686
0.0306737
0.0308724
0.0310645
0.0312499
0.0314284
0.0315999
0.0317644
0.0319216
0.0320715
0.032214
0.0323489
0.0324763
0.0325959
0.0327078
0.0328118
0.032908
0.0329961
0.0330763
0.0331484
0.0332124
0.0332683
0.033316
0.0333556
0.0333871
0.0334103
0.0334255
0.0334325
0.0334313
0.0334221
0.0334049
0.0333796
0.0333464
0.0333053
0.0332564
0.0331997
0.0331354
0.0330634
0.032984
0.0328971
0.0328028
0.0327014
0.0325929
0.0324773
0.0323549
0.0322257
0.0320898
0.0319475
0.0317987
0.0316437
0.0314826
0.0313155
0.0311425
0.0309638
0.0307796
0.0305899
0.0303949
0.0301948
0.0299897
0.0297797
0.029565
0.0293458
0.0291221
0.0288942
0.0286621
0.028426
0.028186
0.0279423
0.0276951
0.0274443
0.0271903
0.026933
0.0266727
0.0264095
0.0261434
0.0258747
0.0256034
0.0253296
0.0250535
0.0247752
0.0244947
0.0242123
0.0239279
0.0236417
0.0233539
0.0230644
0.0227734
0.022481
0.0221872
0.0218922
0.0215961
0.0212988
0.0210005
0.0207013
0.0204012
0.0201004
0.0197988
0.0194965
0.0191936
0.0188902
0.0185863
0.0182819
0.0179772
0.0176721
0.0173667
0.0170611
0.0167553
0.0164493
0.0161432
0.015837
0.0155307
0.0152245
0.0149182
0.014612
0.0143058
0.0139997
0.0136937
0.0133878
0.0130821
0.0127766
0.0124712
0.012166
0.011861
0.0115563
0.0112518
0.0109475
0.0106435
0.0103397
0.0100362
0.00973295
0.00942997
0.00912725
0.00882481
0.00852264
0.00822074
0.00791911
0.00761774
0.00731663
0.00701578
0.00671519
0.00641484
0.00611473
0.00581486
0.00551521
0.00521578
0.00491656
0.00461754
0.00431871
0.00402006
0.00372158
0.00342325
0.00312508
0.00282703
0.00252912
0.00223131
0.0019336
0.00163598
0.00133843
0.00104094
0.000743493
0.000446083
0.000148692
0.000187085
0.000561266
0.000935479
0.00130974
0.00168408
0.00205852
0.00243306
0.00280775
0.00318258
0.00355759
0.0039328
0.00430821
0.00468384
0.00505972
0.00543586
0.00581227
0.00618896
0.00656596
0.00694326
0.00732088
0.00769882
0.0080771
0.00845572
0.00883468
0.00921399
0.00959365
0.00997364
0.010354
0.0107347
0.0111157
0.011497
0.0118786
0.0122605
0.0126427
0.0130252
0.0134079
0.0137908
0.0141738
0.0145571
0.0149404
0.0153238
0.0157073
0.0160908
0.0164742
0.0168575
0.0172407
0.0176237
0.0180064
0.0183887
0.0187707
0.0191522
0.0195332
0.0199135
0.0202931
0.0206719
0.0210498
0.0214268
0.0218026
0.0221773
0.0225507
0.0229226
0.0232931
0.0236618
0.0240289
0.024394
0.024757
0.025118
0.0254766
0.0258327
0.0261863
0.0265371
0.026885
0.0272298
0.0275715
0.0279097
0.0282444
0.0285754
0.0289025
0.0292255
0.0295444
0.0298588
0.0301686
0.0304737
0.0307738
0.0310688
0.0313585
0.0316428
0.0319214
0.0321942
0.032461
0.0327216
0.0329759
0.0332237
0.0334648
0.0336991
0.0339263
0.0341464
0.0343592
0.0345646
0.0347623
0.0349523
0.0351345
0.0353087
0.0354747
0.0356325
0.035782
0.0359231
0.0360556
0.0361796
0.0362948
0.0364012
0.0364989
0.0365876
0.0366674
0.0367383
0.0368001
0.036853
0.0368968
0.0369315
0.0369572
0.0369738
0.0369815
0.0369801
0.0369698
0.0369506
0.0369225
0.0368856
0.03684
0.0367856
0.0367227
0.0366513
0.0365714
0.0364833
0.0363869
0.0362824
0.0361699
0.0360495
0.0359214
0.0357856
0.0356424
0.0354917
0.0353339
0.035169
0.0349972
0.0348186
0.0346334
0.0344417
0.0342437
0.0340396
0.0338294
0.0336134
0.0333917
0.0331645
0.0329319
0.0326941
0.0324512
0.0322035
0.031951
0.031694
0.0314325
0.0311668
0.030897
0.0306232
0.0303456
0.0300643
0.0297795
0.0294913
0.0291999
0.0289054
0.0286079
0.0283076
0.0280046
0.027699
0.027391
0.0270806
0.0267681
0.0264534
0.0261367
0.0258182
0.0254979
0.025176
0.0248524
0.0245275
0.0242011
0.0238735
0.0235446
0.0232147
0.0228837
0.0225518
0.022219
0.0218854
0.0215511
0.0212161
0.0208805
0.0205444
0.0202079
0.0198709
0.0195335
0.0191958
0.0188579
0.0185197
0.0181814
0.0178429
0.0175044