/*--------------------------------*- C++ -*----------------------------------*\
| =========                 |                                                 |
| \\      /  F ield         | OpenFOAM: The Open Source CFD Toolbox           |
|  \\    /   O peration     | Version:  v2012                                 |
|   \\  /    A nd           | Website:  www.openfoam.com                      |
|    \\/     M anipulation  |                                                 |
\*---------------------------------------------------------------------------*/
FoamFile
{
    version     2.0;
    format      ascii;
    class       volVectorField;
    location    "12.5";
    object      U;
}
// * * * * * * * * * * * * * * * * * * * * * * * * * * * * * * * * * * * * * //

dimensions      [0 1 -1 0 0 0 0];


internalField   nonuniform List<vector> 
65536
(
(0.000726509 -0.000726538 0)
(0.0021796 -0.000726565 0)
(0.00363276 -0.000726653 0)
(0.0050861 -0.00072677 0)
(0.00653974 -0.000726925 0)
(0.00799372 -0.000727117 0)
(0.00944812 -0.000727345 0)
(0.010903 -0.000727608 0)
(0.0123585 -0.000727907 0)
(0.0138145 -0.000728239 0)
(0.0152713 -0.000728603 0)
(0.0167289 -0.000728999 0)
(0.0181872 -0.000729424 0)
(0.0196465 -0.000729877 0)
(0.0211067 -0.000730356 0)
(0.0225678 -0.00073086 0)
(0.02403 -0.000731385 0)
(0.0254933 -0.00073193 0)
(0.0269577 -0.000732493 0)
(0.0284232 -0.00073307 0)
(0.0298899 -0.00073366 0)
(0.0313578 -0.000734259 0)
(0.0328269 -0.000734864 0)
(0.0342972 -0.000735472 0)
(0.0357687 -0.000736079 0)
(0.0372415 -0.000736683 0)
(0.0387154 -0.00073728 0)
(0.0401905 -0.000737864 0)
(0.0416668 -0.000738434 0)
(0.0431442 -0.000738984 0)
(0.0446227 -0.00073951 0)
(0.0461023 -0.000740007 0)
(0.0475827 -0.000740472 0)
(0.0490641 -0.000740898 0)
(0.0505463 -0.000741282 0)
(0.0520293 -0.000741617 0)
(0.0535128 -0.000741898 0)
(0.0549969 -0.000742121 0)
(0.0564813 -0.000742278 0)
(0.057966 -0.000742365 0)
(0.0594508 -0.000742375 0)
(0.0609355 -0.000742303 0)
(0.06242 -0.000742141 0)
(0.0639041 -0.000741883 0)
(0.0653876 -0.000741524 0)
(0.0668703 -0.000741055 0)
(0.0683519 -0.00074047 0)
(0.0698322 -0.000739762 0)
(0.071311 -0.000738925 0)
(0.072788 -0.00073795 0)
(0.0742629 -0.00073683 0)
(0.0757354 -0.000735559 0)
(0.0772053 -0.000734128 0)
(0.0786721 -0.00073253 0)
(0.0801355 -0.000730757 0)
(0.0815952 -0.000728802 0)
(0.0830509 -0.000726658 0)
(0.084502 -0.000724315 0)
(0.0859483 -0.000721767 0)
(0.0873892 -0.000719006 0)
(0.0888245 -0.000716025 0)
(0.0902535 -0.000712816 0)
(0.0916759 -0.00070937 0)
(0.0930912 -0.000705682 0)
(0.0944988 -0.000701744 0)
(0.0958984 -0.000697548 0)
(0.0972892 -0.000693088 0)
(0.0986709 -0.000688357 0)
(0.100043 -0.000683348 0)
(0.101405 -0.000678056 0)
(0.102755 -0.000672473 0)
(0.104095 -0.000666595 0)
(0.105422 -0.000660415 0)
(0.106737 -0.000653929 0)
(0.108038 -0.000647131 0)
(0.109325 -0.000640018 0)
(0.110598 -0.000632585 0)
(0.111856 -0.000624829 0)
(0.113098 -0.000616747 0)
(0.114323 -0.000608335 0)
(0.115531 -0.000599593 0)
(0.116722 -0.000590517 0)
(0.117894 -0.000581107 0)
(0.119047 -0.000571362 0)
(0.12018 -0.000561282 0)
(0.121292 -0.000550869 0)
(0.122383 -0.000540122 0)
(0.123453 -0.000529044 0)
(0.1245 -0.000517636 0)
(0.125524 -0.000505903 0)
(0.126524 -0.000493847 0)
(0.127499 -0.000481474 0)
(0.12845 -0.000468787 0)
(0.129375 -0.000455792 0)
(0.130273 -0.000442496 0)
(0.131145 -0.000428905 0)
(0.131989 -0.000415026 0)
(0.132805 -0.000400869 0)
(0.133593 -0.000386441 0)
(0.134351 -0.000371752 0)
(0.13508 -0.000356811 0)
(0.135779 -0.00034163 0)
(0.136447 -0.000326218 0)
(0.137084 -0.000310588 0)
(0.137689 -0.000294751 0)
(0.138263 -0.00027872 0)
(0.138804 -0.000262507 0)
(0.139313 -0.000246126 0)
(0.139789 -0.000229591 0)
(0.140231 -0.000212915 0)
(0.140641 -0.000196113 0)
(0.141016 -0.000179199 0)
(0.141357 -0.000162188 0)
(0.141665 -0.000145095 0)
(0.141938 -0.000127934 0)
(0.142177 -0.000110722 0)
(0.142381 -9.34733e-05 0)
(0.14255 -7.62032e-05 0)
(0.142686 -5.89269e-05 0)
(0.142786 -4.16598e-05 0)
(0.142852 -2.4417e-05 0)
(0.142884 -7.21342e-06 0)
(0.142881 9.93596e-06 0)
(0.142844 2.70165e-05 0)
(0.142773 4.4014e-05 0)
(0.142668 6.09142e-05 0)
(0.142529 7.77034e-05 0)
(0.142357 9.4368e-05 0)
(0.142151 0.000110895 0)
(0.141913 0.000127272 0)
(0.141642 0.000143486 0)
(0.141339 0.000159525 0)
(0.141004 0.000175379 0)
(0.140637 0.000191036 0)
(0.140239 0.000206485 0)
(0.139811 0.000221718 0)
(0.139352 0.000236724 0)
(0.138864 0.000251495 0)
(0.138346 0.000266023 0)
(0.137799 0.0002803 0)
(0.137224 0.000294318 0)
(0.136622 0.000308071 0)
(0.135992 0.000321554 0)
(0.135335 0.00033476 0)
(0.134652 0.000347685 0)
(0.133944 0.000360325 0)
(0.133211 0.000372675 0)
(0.132453 0.000384732 0)
(0.131671 0.000396494 0)
(0.130867 0.000407959 0)
(0.130039 0.000419124 0)
(0.12919 0.000429988 0)
(0.128319 0.000440552 0)
(0.127427 0.000450813 0)
(0.126515 0.000460774 0)
(0.125584 0.000470434 0)
(0.124633 0.000479794 0)
(0.123664 0.000488856 0)
(0.122677 0.000497621 0)
(0.121673 0.000506092 0)
(0.120653 0.000514271 0)
(0.119616 0.000522161 0)
(0.118564 0.000529765 0)
(0.117496 0.000537087 0)
(0.116415 0.000544129 0)
(0.11532 0.000550898 0)
(0.114211 0.000557395 0)
(0.11309 0.000563626 0)
(0.111956 0.000569596 0)
(0.110811 0.000575308 0)
(0.109655 0.000580769 0)
(0.108488 0.000585983 0)
(0.10731 0.000590955 0)
(0.106124 0.00059569 0)
(0.104927 0.000600195 0)
(0.103722 0.000604474 0)
(0.102509 0.000608533 0)
(0.101288 0.000612378 0)
(0.100059 0.000616014 0)
(0.0988238 0.000619448 0)
(0.0975814 0.000622684 0)
(0.0963328 0.00062573 0)
(0.0950782 0.000628589 0)
(0.0938182 0.000631269 0)
(0.0925529 0.000633775 0)
(0.0912829 0.000636112 0)
(0.0900083 0.000638287 0)
(0.0887295 0.000640304 0)
(0.0874469 0.000642171 0)
(0.0861606 0.000643891 0)
(0.0848711 0.000645471 0)
(0.0835785 0.000646917 0)
(0.0822832 0.000648232 0)
(0.0809854 0.000649424 0)
(0.0796854 0.000650496 0)
(0.0783833 0.000651455 0)
(0.0770794 0.000652304 0)
(0.0757739 0.00065305 0)
(0.074467 0.000653696 0)
(0.073159 0.000654248 0)
(0.0718499 0.000654711 0)
(0.07054 0.000655088 0)
(0.0692294 0.000655385 0)
(0.0679183 0.000655606 0)
(0.0666069 0.000655755 0)
(0.0652952 0.000655836 0)
(0.0639834 0.000655854 0)
(0.0626717 0.000655812 0)
(0.0613601 0.000655714 0)
(0.0600487 0.000655565 0)
(0.0587377 0.000655367 0)
(0.0574272 0.000655125 0)
(0.0561171 0.000654841 0)
(0.0548077 0.00065452 0)
(0.053499 0.000654164 0)
(0.052191 0.000653777 0)
(0.0508838 0.000653362 0)
(0.0495775 0.000652921 0)
(0.048272 0.000652458 0)
(0.0469676 0.000651976 0)
(0.0456641 0.000651476 0)
(0.0443616 0.000650963 0)
(0.0430602 0.000650437 0)
(0.0417598 0.000649903 0)
(0.0404605 0.000649361 0)
(0.0391623 0.000648815 0)
(0.0378652 0.000648266 0)
(0.0365692 0.000647717 0)
(0.0352743 0.000647169 0)
(0.0339805 0.000646624 0)
(0.0326877 0.000646085 0)
(0.0313961 0.000645553 0)
(0.0301055 0.00064503 0)
(0.0288159 0.000644517 0)
(0.0275274 0.000644015 0)
(0.0262399 0.000643527 0)
(0.0249533 0.000643054 0)
(0.0236676 0.000642596 0)
(0.0223829 0.000642155 0)
(0.021099 0.000641733 0)
(0.0198159 0.00064133 0)
(0.0185336 0.000640948 0)
(0.0172521 0.000640587 0)
(0.0159712 0.000640248 0)
(0.0146911 0.000639932 0)
(0.0134115 0.00063964 0)
(0.0121325 0.000639372 0)
(0.010854 0.000639129 0)
(0.00957596 0.000638912 0)
(0.00829833 0.000638721 0)
(0.00702106 0.000638557 0)
(0.00574409 0.000638419 0)
(0.00446736 0.000638309 0)
(0.00319084 0.000638226 0)
(0.00191445 0.00063817 0)
(0.000638146 0.000638142 0)
(0.000726482 -0.00217954 0)
(0.00217948 -0.00217965 0)
(0.00363257 -0.0021799 0)
(0.00508585 -0.00218025 0)
(0.00653941 -0.00218071 0)
(0.00799332 -0.00218129 0)
(0.00944764 -0.00218197 0)
(0.0109025 -0.00218276 0)
(0.0123579 -0.00218366 0)
(0.0138139 -0.00218466 0)
(0.0152706 -0.00218575 0)
(0.0167281 -0.00218694 0)
(0.0181864 -0.00218822 0)
(0.0196456 -0.00218958 0)
(0.0211057 -0.00219102 0)
(0.0225668 -0.00219253 0)
(0.024029 -0.00219411 0)
(0.0254922 -0.00219575 0)
(0.0269566 -0.00219744 0)
(0.0284221 -0.00219917 0)
(0.0298887 -0.00220094 0)
(0.0313566 -0.00220274 0)
(0.0328257 -0.00220456 0)
(0.034296 -0.00220639 0)
(0.0357675 -0.00220822 0)
(0.0372403 -0.00221003 0)
(0.0387142 -0.00221182 0)
(0.0401894 -0.00221358 0)
(0.0416657 -0.0022153 0)
(0.0431432 -0.00221695 0)
(0.0446217 -0.00221853 0)
(0.0461013 -0.00222003 0)
(0.0475819 -0.00222143 0)
(0.0490633 -0.00222271 0)
(0.0505456 -0.00222387 0)
(0.0520287 -0.00222488 0)
(0.0535123 -0.00222573 0)
(0.0549965 -0.0022264 0)
(0.0564811 -0.00222688 0)
(0.0579659 -0.00222715 0)
(0.0594509 -0.00222718 0)
(0.0609358 -0.00222697 0)
(0.0624205 -0.00222649 0)
(0.0639048 -0.00222573 0)
(0.0653885 -0.00222465 0)
(0.0668714 -0.00222326 0)
(0.0683532 -0.00222151 0)
(0.0698338 -0.00221939 0)
(0.0713129 -0.00221689 0)
(0.0727901 -0.00221397 0)
(0.0742653 -0.00221062 0)
(0.0757382 -0.00220681 0)
(0.0772083 -0.00220253 0)
(0.0786755 -0.00219774 0)
(0.0801393 -0.00219243 0)
(0.0815994 -0.00218657 0)
(0.0830554 -0.00218015 0)
(0.0845069 -0.00217313 0)
(0.0859536 -0.00216549 0)
(0.087395 -0.00215722 0)
(0.0888307 -0.00214828 0)
(0.0902602 -0.00213866 0)
(0.0916831 -0.00212833 0)
(0.0930988 -0.00211727 0)
(0.094507 -0.00210546 0)
(0.0959071 -0.00209288 0)
(0.0972985 -0.00207951 0)
(0.0986807 -0.00206532 0)
(0.100053 -0.0020503 0)
(0.101415 -0.00203443 0)
(0.102767 -0.00201769 0)
(0.104107 -0.00200006 0)
(0.105435 -0.00198153 0)
(0.10675 -0.00196207 0)
(0.108052 -0.00194168 0)
(0.10934 -0.00192035 0)
(0.110614 -0.00189805 0)
(0.111872 -0.00187479 0)
(0.113114 -0.00185054 0)
(0.11434 -0.00182531 0)
(0.115549 -0.00179908 0)
(0.11674 -0.00177186 0)
(0.117913 -0.00174363 0)
(0.119066 -0.00171439 0)
(0.1202 -0.00168415 0)
(0.121313 -0.00165291 0)
(0.122405 -0.00162067 0)
(0.123475 -0.00158743 0)
(0.124523 -0.00155321 0)
(0.125547 -0.001518 0)
(0.126548 -0.00148183 0)
(0.127524 -0.0014447 0)
(0.128476 -0.00140664 0)
(0.129401 -0.00136765 0)
(0.1303 -0.00132775 0)
(0.131172 -0.00128697 0)
(0.132017 -0.00124533 0)
(0.132834 -0.00120285 0)
(0.133622 -0.00115955 0)
(0.134381 -0.00111548 0)
(0.13511 -0.00107064 0)
(0.135809 -0.00102509 0)
(0.136478 -0.00097884 0)
(0.137115 -0.000931937 0)
(0.137721 -0.000884413 0)
(0.138295 -0.000836307 0)
(0.138837 -0.000787655 0)
(0.139346 -0.000738499 0)
(0.139822 -0.000688879 0)
(0.140265 -0.000638837 0)
(0.140674 -0.000588416 0)
(0.14105 -0.000537659 0)
(0.141392 -0.000486611 0)
(0.141699 -0.000435316 0)
(0.141972 -0.000383819 0)
(0.142211 -0.000332167 0)
(0.142415 -0.000280405 0)
(0.142585 -0.00022858 0)
(0.14272 -0.000176735 0)
(0.142821 -0.000124919 0)
(0.142887 -7.31754e-05 0)
(0.142918 -2.15499e-05 0)
(0.142915 2.9913e-05 0)
(0.142878 8.11692e-05 0)
(0.142807 0.000132176 0)
(0.142701 0.00018289 0)
(0.142562 0.000233271 0)
(0.14239 0.000283278 0)
(0.142184 0.000332872 0)
(0.141946 0.000382014 0)
(0.141674 0.000430668 0)
(0.141371 0.000478798 0)
(0.141035 0.000526369 0)
(0.140668 0.00057335 0)
(0.14027 0.000619709 0)
(0.139841 0.000665417 0)
(0.139382 0.000710444 0)
(0.138893 0.000754766 0)
(0.138375 0.000798357 0)
(0.137828 0.000841193 0)
(0.137252 0.000883255 0)
(0.136649 0.000924521 0)
(0.136018 0.000964974 0)
(0.135361 0.0010046 0)
(0.134678 0.00104338 0)
(0.133969 0.0010813 0)
(0.133235 0.00111835 0)
(0.132477 0.00115453 0)
(0.131695 0.00118981 0)
(0.130889 0.00122421 0)
(0.130061 0.00125771 0)
(0.129211 0.0012903 0)
(0.12834 0.00132199 0)
(0.127447 0.00135278 0)
(0.126535 0.00138266 0)
(0.125603 0.00141163 0)
(0.124652 0.00143971 0)
(0.123682 0.0014669 0)
(0.122695 0.00149319 0)
(0.12169 0.0015186 0)
(0.120669 0.00154313 0)
(0.119631 0.0015668 0)
(0.118579 0.00158961 0)
(0.117511 0.00161157 0)
(0.116429 0.00163269 0)
(0.115333 0.00165299 0)
(0.114224 0.00167248 0)
(0.113102 0.00169117 0)
(0.111968 0.00170907 0)
(0.110822 0.00172621 0)
(0.109665 0.00174258 0)
(0.108498 0.00175822 0)
(0.10732 0.00177313 0)
(0.106133 0.00178733 0)
(0.104936 0.00180084 0)
(0.103731 0.00181367 0)
(0.102517 0.00182584 0)
(0.101296 0.00183737 0)
(0.100067 0.00184827 0)
(0.0988305 0.00185857 0)
(0.0975878 0.00186827 0)
(0.0963388 0.0018774 0)
(0.0950839 0.00188597 0)
(0.0938234 0.00189401 0)
(0.0925579 0.00190152 0)
(0.0912874 0.00190853 0)
(0.0900125 0.00191504 0)
(0.0887335 0.00192109 0)
(0.0874505 0.00192668 0)
(0.086164 0.00193184 0)
(0.0848742 0.00193658 0)
(0.0835814 0.00194091 0)
(0.0822858 0.00194485 0)
(0.0809878 0.00194842 0)
(0.0796875 0.00195163 0)
(0.0783852 0.0019545 0)
(0.0770811 0.00195704 0)
(0.0757754 0.00195927 0)
(0.0744683 0.00196121 0)
(0.0731601 0.00196286 0)
(0.0718508 0.00196424 0)
(0.0705408 0.00196537 0)
(0.06923 0.00196626 0)
(0.0679188 0.00196691 0)
(0.0666072 0.00196736 0)
(0.0652954 0.0019676 0)
(0.0639835 0.00196765 0)
(0.0626716 0.00196752 0)
(0.0613599 0.00196722 0)
(0.0600484 0.00196677 0)
(0.0587373 0.00196617 0)
(0.0574267 0.00196544 0)
(0.0561166 0.00196458 0)
(0.0548071 0.00196362 0)
(0.0534983 0.00196255 0)
(0.0521902 0.00196138 0)
(0.050883 0.00196013 0)
(0.0495766 0.00195881 0)
(0.0482711 0.00195742 0)
(0.0469666 0.00195597 0)
(0.0456631 0.00195447 0)
(0.0443606 0.00195292 0)
(0.0430592 0.00195134 0)
(0.0417588 0.00194974 0)
(0.0404595 0.00194811 0)
(0.0391612 0.00194647 0)
(0.0378641 0.00194482 0)
(0.0365681 0.00194317 0)
(0.0352732 0.00194152 0)
(0.0339794 0.00193989 0)
(0.0326867 0.00193827 0)
(0.0313951 0.00193667 0)
(0.0301045 0.0019351 0)
(0.028815 0.00193356 0)
(0.0275264 0.00193205 0)
(0.0262389 0.00193059 0)
(0.0249524 0.00192917 0)
(0.0236667 0.00192779 0)
(0.022382 0.00192647 0)
(0.0210982 0.0019252 0)
(0.0198151 0.00192399 0)
(0.0185329 0.00192284 0)
(0.0172514 0.00192176 0)
(0.0159706 0.00192074 0)
(0.0146905 0.00191979 0)
(0.013411 0.00191892 0)
(0.012132 0.00191811 0)
(0.0108535 0.00191738 0)
(0.00957556 0.00191673 0)
(0.00829798 0.00191616 0)
(0.00702076 0.00191566 0)
(0.00574384 0.00191525 0)
(0.00446718 0.00191492 0)
(0.0031907 0.00191467 0)
(0.00191437 0.0019145 0)
(0.000638118 0.00191442 0)
(0.000726394 -0.00363246 0)
(0.00217923 -0.00363264 0)
(0.00363218 -0.00363303 0)
(0.00508532 -0.0036336 0)
(0.00653873 -0.00363437 0)
(0.00799249 -0.00363533 0)
(0.00944668 -0.00363648 0)
(0.0109014 -0.0036378 0)
(0.0123566 -0.0036393 0)
(0.0138125 -0.00364096 0)
(0.0152691 -0.00364279 0)
(0.0167265 -0.00364478 0)
(0.0181847 -0.00364691 0)
(0.0196437 -0.00364919 0)
(0.0211038 -0.00365159 0)
(0.0225648 -0.00365412 0)
(0.0240269 -0.00365676 0)
(0.02549 -0.0036595 0)
(0.0269543 -0.00366232 0)
(0.0284198 -0.00366522 0)
(0.0298864 -0.00366819 0)
(0.0313542 -0.0036712 0)
(0.0328233 -0.00367424 0)
(0.0342936 -0.00367729 0)
(0.0357651 -0.00368035 0)
(0.0372379 -0.00368339 0)
(0.0387119 -0.00368639 0)
(0.0401871 -0.00368933 0)
(0.0416635 -0.0036922 0)
(0.0431411 -0.00369497 0)
(0.0446197 -0.00369763 0)
(0.0460994 -0.00370014 0)
(0.0475801 -0.00370248 0)
(0.0490618 -0.00370464 0)
(0.0505442 -0.00370658 0)
(0.0520275 -0.00370829 0)
(0.0535114 -0.00370972 0)
(0.0549958 -0.00371086 0)
(0.0564806 -0.00371168 0)
(0.0579658 -0.00371215 0)
(0.059451 -0.00371223 0)
(0.0609363 -0.0037119 0)
(0.0624214 -0.00371112 0)
(0.0639061 -0.00370987 0)
(0.0653902 -0.0037081 0)
(0.0668735 -0.00370579 0)
(0.0683559 -0.0037029 0)
(0.069837 -0.0036994 0)
(0.0713166 -0.00369525 0)
(0.0727944 -0.00369041 0)
(0.0742702 -0.00368485 0)
(0.0757436 -0.00367853 0)
(0.0772144 -0.00367141 0)
(0.0786823 -0.00366346 0)
(0.0801468 -0.00365464 0)
(0.0816076 -0.0036449 0)
(0.0830644 -0.00363421 0)
(0.0845168 -0.00362254 0)
(0.0859643 -0.00360984 0)
(0.0874066 -0.00359607 0)
(0.0888431 -0.0035812 0)
(0.0902736 -0.00356519 0)
(0.0916974 -0.00354801 0)
(0.0931142 -0.0035296 0)
(0.0945233 -0.00350994 0)
(0.0959244 -0.003489 0)
(0.0973169 -0.00346673 0)
(0.0987003 -0.00344311 0)
(0.100074 -0.0034181 0)
(0.101437 -0.00339167 0)
(0.10279 -0.00336378 0)
(0.104131 -0.00333442 0)
(0.10546 -0.00330354 0)
(0.106777 -0.00327113 0)
(0.10808 -0.00323717 0)
(0.109369 -0.00320162 0)
(0.110644 -0.00316448 0)
(0.111904 -0.00312571 0)
(0.113148 -0.00308531 0)
(0.114375 -0.00304327 0)
(0.115585 -0.00299956 0)
(0.116778 -0.00295419 0)
(0.117951 -0.00290714 0)
(0.119106 -0.00285841 0)
(0.120241 -0.00280801 0)
(0.121356 -0.00275594 0)
(0.122449 -0.0027022 0)
(0.12352 -0.00264679 0)
(0.124569 -0.00258974 0)
(0.125595 -0.00253105 0)
(0.126597 -0.00247075 0)
(0.127575 -0.00240886 0)
(0.128527 -0.0023454 0)
(0.129454 -0.00228039 0)
(0.130354 -0.00221388 0)
(0.131228 -0.00214588 0)
(0.132073 -0.00207645 0)
(0.132891 -0.00200562 0)
(0.13368 -0.00193343 0)
(0.13444 -0.00185994 0)
(0.135171 -0.00178518 0)
(0.135871 -0.00170922 0)
(0.13654 -0.0016321 0)
(0.137178 -0.00155389 0)
(0.137785 -0.00147464 0)
(0.13836 -0.00139442 0)
(0.138902 -0.00131329 0)
(0.139412 -0.00123132 0)
(0.139889 -0.00114857 0)
(0.140332 -0.00106512 0)
(0.140742 -0.000981037 0)
(0.141118 -0.000896392 0)
(0.14146 -0.000811262 0)
(0.141768 -0.000725719 0)
(0.142041 -0.000639841 0)
(0.14228 -0.000553704 0)
(0.142485 -0.000467383 0)
(0.142654 -0.000380955 0)
(0.142789 -0.000294498 0)
(0.14289 -0.000208086 0)
(0.142956 -0.000121797 0)
(0.142987 -3.57052e-05 0)
(0.142984 5.0115e-05 0)
(0.142946 0.00013559 0)
(0.142875 0.000220648 0)
(0.142769 0.000305219 0)
(0.142629 0.000389232 0)
(0.142456 0.000472621 0)
(0.14225 0.000555319 0)
(0.142011 0.000637264 0)
(0.141739 0.000718393 0)
(0.141435 0.000798647 0)
(0.141098 0.00087797 0)
(0.140731 0.000956306 0)
(0.140332 0.0010336 0)
(0.139902 0.00110981 0)
(0.139442 0.00118489 0)
(0.138952 0.00125879 0)
(0.138432 0.00133146 0)
(0.137884 0.00140288 0)
(0.137308 0.00147301 0)
(0.136704 0.0015418 0)
(0.136072 0.00160924 0)
(0.135414 0.0016753 0)
(0.134729 0.00173994 0)
(0.134019 0.00180316 0)
(0.133284 0.00186493 0)
(0.132525 0.00192523 0)
(0.131741 0.00198405 0)
(0.130935 0.00204138 0)
(0.130105 0.00209721 0)
(0.129254 0.00215153 0)
(0.128382 0.00220435 0)
(0.127488 0.00225566 0)
(0.126574 0.00230546 0)
(0.125641 0.00235375 0)
(0.124689 0.00240054 0)
(0.123718 0.00244584 0)
(0.122729 0.00248966 0)
(0.121724 0.002532 0)
(0.120701 0.00257288 0)
(0.119663 0.00261231 0)
(0.118609 0.00265032 0)
(0.11754 0.00268691 0)
(0.116457 0.0027221 0)
(0.11536 0.00275592 0)
(0.114249 0.00278838 0)
(0.113127 0.00281952 0)
(0.111992 0.00284934 0)
(0.110845 0.00287788 0)
(0.109687 0.00290515 0)
(0.108518 0.0029312 0)
(0.10734 0.00295603 0)
(0.106151 0.00297968 0)
(0.104954 0.00300217 0)
(0.103748 0.00302354 0)
(0.102533 0.00304381 0)
(0.101311 0.003063 0)
(0.100081 0.00308116 0)
(0.098844 0.0030983 0)
(0.0976005 0.00311445 0)
(0.0963507 0.00312965 0)
(0.0950951 0.00314391 0)
(0.093834 0.00315728 0)
(0.0925677 0.00316978 0)
(0.0912966 0.00318144 0)
(0.0900211 0.00319229 0)
(0.0887414 0.00320235 0)
(0.0874578 0.00321165 0)
(0.0861707 0.00322022 0)
(0.0848804 0.0032281 0)
(0.083587 0.0032353 0)
(0.082291 0.00324185 0)
(0.0809924 0.00324778 0)
(0.0796917 0.00325312 0)
(0.0783889 0.00325788 0)
(0.0770844 0.0032621 0)
(0.0757783 0.00326581 0)
(0.0744708 0.00326902 0)
(0.0731622 0.00327175 0)
(0.0718526 0.00327404 0)
(0.0705422 0.00327591 0)
(0.0692312 0.00327737 0)
(0.0679196 0.00327845 0)
(0.0666078 0.00327918 0)
(0.0652957 0.00327956 0)
(0.0639835 0.00327963 0)
(0.0626714 0.0032794 0)
(0.0613595 0.00327889 0)
(0.0600479 0.00327813 0)
(0.0587366 0.00327712 0)
(0.0574258 0.00327589 0)
(0.0561155 0.00327446 0)
(0.0548058 0.00327283 0)
(0.0534969 0.00327104 0)
(0.0521887 0.00326909 0)
(0.0508814 0.00326699 0)
(0.0495749 0.00326478 0)
(0.0482693 0.00326245 0)
(0.0469648 0.00326002 0)
(0.0456612 0.00325751 0)
(0.0443586 0.00325493 0)
(0.0430571 0.00325229 0)
(0.0417567 0.00324961 0)
(0.0404574 0.00324689 0)
(0.0391591 0.00324415 0)
(0.037862 0.00324139 0)
(0.036566 0.00323863 0)
(0.0352711 0.00323588 0)
(0.0339773 0.00323315 0)
(0.0326846 0.00323045 0)
(0.031393 0.00322778 0)
(0.0301025 0.00322515 0)
(0.028813 0.00322258 0)
(0.0275245 0.00322007 0)
(0.026237 0.00321762 0)
(0.0249505 0.00321525 0)
(0.023665 0.00321295 0)
(0.0223803 0.00321074 0)
(0.0210966 0.00320863 0)
(0.0198136 0.00320661 0)
(0.0185314 0.00320469 0)
(0.01725 0.00320288 0)
(0.0159693 0.00320118 0)
(0.0146893 0.0031996 0)
(0.0134099 0.00319813 0)
(0.012131 0.00319679 0)
(0.0108526 0.00319557 0)
(0.00957476 0.00319449 0)
(0.00829729 0.00319353 0)
(0.00702017 0.00319271 0)
(0.00574336 0.00319202 0)
(0.0044668 0.00319146 0)
(0.00319043 0.00319105 0)
(0.00191421 0.00319077 0)
(0.000638064 0.00319063 0)
(0.000726276 -0.00508519 0)
(0.00217888 -0.00508544 0)
(0.00363161 -0.00508598 0)
(0.00508452 -0.00508679 0)
(0.00653771 -0.00508787 0)
(0.00799125 -0.00508921 0)
(0.00944522 -0.00509082 0)
(0.0108997 -0.00509268 0)
(0.0123547 -0.00509478 0)
(0.0138104 -0.00509712 0)
(0.0152668 -0.00509969 0)
(0.016724 -0.00510248 0)
(0.018182 -0.00510548 0)
(0.019641 -0.00510868 0)
(0.0211008 -0.00511206 0)
(0.0225617 -0.00511562 0)
(0.0240237 -0.00511933 0)
(0.0254867 -0.00512318 0)
(0.0269509 -0.00512715 0)
(0.0284163 -0.00513123 0)
(0.0298828 -0.0051354 0)
(0.0313506 -0.00513963 0)
(0.0328197 -0.00514391 0)
(0.03429 -0.00514822 0)
(0.0357615 -0.00515252 0)
(0.0372343 -0.0051568 0)
(0.0387084 -0.00516103 0)
(0.0401837 -0.00516518 0)
(0.0416602 -0.00516922 0)
(0.0431379 -0.00517313 0)
(0.0446167 -0.00517688 0)
(0.0460966 -0.00518043 0)
(0.0475775 -0.00518375 0)
(0.0490594 -0.0051868 0)
(0.0505421 -0.00518956 0)
(0.0520256 -0.00519198 0)
(0.0535099 -0.00519403 0)
(0.0549947 -0.00519567 0)
(0.0564799 -0.00519685 0)
(0.0579655 -0.00519754 0)
(0.0594513 -0.0051977 0)
(0.060937 -0.00519728 0)
(0.0624227 -0.00519624 0)
(0.0639079 -0.00519453 0)
(0.0653927 -0.00519211 0)
(0.0668767 -0.00518892 0)
(0.0683598 -0.00518493 0)
(0.0698416 -0.00518007 0)
(0.071322 -0.00517431 0)
(0.0728007 -0.00516759 0)
(0.0742774 -0.00515986 0)
(0.0757518 -0.00515106 0)
(0.0772236 -0.00514115 0)
(0.0786924 -0.00513007 0)
(0.080158 -0.00511777 0)
(0.08162 -0.00510419 0)
(0.0830779 -0.00508929 0)
(0.0845315 -0.005073 0)
(0.0859803 -0.00505527 0)
(0.0874238 -0.00503605 0)
(0.0888618 -0.00501529 0)
(0.0902936 -0.00499292 0)
(0.0917189 -0.00496891 0)
(0.0931371 -0.0049432 0)
(0.0945478 -0.00491573 0)
(0.0959505 -0.00488645 0)
(0.0973446 -0.00485533 0)
(0.0987296 -0.0048223 0)
(0.100105 -0.00478733 0)
(0.10147 -0.00475036 0)
(0.102824 -0.00471137 0)
(0.104167 -0.00467029 0)
(0.105498 -0.00462711 0)
(0.106817 -0.00458177 0)
(0.108122 -0.00453425 0)
(0.109413 -0.00448451 0)
(0.11069 -0.00443254 0)
(0.111951 -0.00437829 0)
(0.113197 -0.00432175 0)
(0.114426 -0.0042629 0)
(0.115639 -0.00420172 0)
(0.116833 -0.0041382 0)
(0.118009 -0.00407234 0)
(0.119166 -0.00400413 0)
(0.120303 -0.00393356 0)
(0.121419 -0.00386065 0)
(0.122515 -0.0037854 0)
(0.123588 -0.00370782 0)
(0.124639 -0.00362792 0)
(0.125667 -0.00354574 0)
(0.126671 -0.00346129 0)
(0.12765 -0.0033746 0)
(0.128604 -0.00328571 0)
(0.129533 -0.00319466 0)
(0.130435 -0.00310149 0)
(0.13131 -0.00300625 0)
(0.132158 -0.00290899 0)
(0.132977 -0.00280976 0)
(0.133768 -0.00270864 0)
(0.13453 -0.00260567 0)
(0.135261 -0.00250094 0)
(0.135963 -0.00239452 0)
(0.136634 -0.00228648 0)
(0.137273 -0.0021769 0)
(0.137881 -0.00206586 0)
(0.138457 -0.00195346 0)
(0.139 -0.00183979 0)
(0.139511 -0.00172493 0)
(0.139989 -0.00160899 0)
(0.140433 -0.00149206 0)
(0.140844 -0.00137424 0)
(0.14122 -0.00125563 0)
(0.141563 -0.00113634 0)
(0.141871 -0.00101648 0)
(0.142145 -0.000896144 0)
(0.142384 -0.000775444 0)
(0.142588 -0.000654488 0)
(0.142758 -0.000533382 0)
(0.142893 -0.000412235 0)
(0.142994 -0.000291153 0)
(0.143059 -0.000170243 0)
(0.14309 -4.961e-05 0)
(0.143087 7.06408e-05 0)
(0.143049 0.000190407 0)
(0.142977 0.000309587 0)
(0.14287 0.000428083 0)
(0.14273 0.000545796 0)
(0.142556 0.000662632 0)
(0.142349 0.000778499 0)
(0.142109 0.000893307 0)
(0.141836 0.00100697 0)
(0.141531 0.00111941 0)
(0.141193 0.00123053 0)
(0.140824 0.00134028 0)
(0.140424 0.00144856 0)
(0.139993 0.00155532 0)
(0.139531 0.00166049 0)
(0.13904 0.001764 0)
(0.138519 0.00186581 0)
(0.137969 0.00196584 0)
(0.137391 0.00206406 0)
(0.136786 0.00216042 0)
(0.136152 0.00225487 0)
(0.135492 0.00234739 0)
(0.134806 0.00243792 0)
(0.134094 0.00252645 0)
(0.133358 0.00261295 0)
(0.132596 0.00269738 0)
(0.131811 0.00277975 0)
(0.131003 0.00286002 0)
(0.130172 0.0029382 0)
(0.129319 0.00301426 0)
(0.128444 0.0030882 0)
(0.127549 0.00316003 0)
(0.126633 0.00322975 0)
(0.125698 0.00329735 0)
(0.124744 0.00336285 0)
(0.123772 0.00342626 0)
(0.122781 0.00348758 0)
(0.121774 0.00354684 0)
(0.12075 0.00360406 0)
(0.119709 0.00365924 0)
(0.118654 0.00371242 0)
(0.117583 0.00376362 0)
(0.116498 0.00381286 0)
(0.1154 0.00386018 0)
(0.114288 0.0039056 0)
(0.113163 0.00394916 0)
(0.112027 0.00399088 0)
(0.110879 0.00403079 0)
(0.109719 0.00406895 0)
(0.108549 0.00410537 0)
(0.107369 0.0041401 0)
(0.106179 0.00417317 0)
(0.104981 0.00420462 0)
(0.103773 0.0042345 0)
(0.102557 0.00426283 0)
(0.101333 0.00428967 0)
(0.100102 0.00431504 0)
(0.0988642 0.004339 0)
(0.0976195 0.00436157 0)
(0.0963686 0.0043828 0)
(0.0951119 0.00440274 0)
(0.0938497 0.00442142 0)
(0.0925824 0.00443888 0)
(0.0913103 0.00445516 0)
(0.0900338 0.0044703 0)
(0.0887532 0.00448435 0)
(0.0874688 0.00449733 0)
(0.0861808 0.0045093 0)
(0.0848896 0.00452028 0)
(0.0835955 0.00453032 0)
(0.0822987 0.00453946 0)
(0.0809994 0.00454773 0)
(0.0796979 0.00455516 0)
(0.0783945 0.0045618 0)
(0.0770893 0.00456767 0)
(0.0757826 0.00457282 0)
(0.0744746 0.00457728 0)
(0.0731654 0.00458108 0)
(0.0718553 0.00458426 0)
(0.0705444 0.00458683 0)
(0.0692329 0.00458885 0)
(0.0679209 0.00459034 0)
(0.0666086 0.00459132 0)
(0.0652961 0.00459183 0)
(0.0639836 0.0045919 0)
(0.0626712 0.00459155 0)
(0.0613589 0.00459082 0)
(0.060047 0.00458972 0)
(0.0587354 0.00458828 0)
(0.0574243 0.00458654 0)
(0.0561138 0.0045845 0)
(0.054804 0.00458221 0)
(0.0534948 0.00457967 0)
(0.0521865 0.00457692 0)
(0.0508789 0.00457397 0)
(0.0495723 0.00457085 0)
(0.0482666 0.00456757 0)
(0.0469619 0.00456415 0)
(0.0456583 0.00456062 0)
(0.0443556 0.00455699 0)
(0.0430541 0.00455328 0)
(0.0417536 0.0045495 0)
(0.0404542 0.00454568 0)
(0.039156 0.00454183 0)
(0.0378588 0.00453795 0)
(0.0365628 0.00453408 0)
(0.0352679 0.00453022 0)
(0.0339742 0.00452638 0)
(0.0326815 0.00452258 0)
(0.0313899 0.00451884 0)
(0.0300995 0.00451515 0)
(0.02881 0.00451154 0)
(0.0275216 0.00450801 0)
(0.0262342 0.00450457 0)
(0.0249478 0.00450124 0)
(0.0236624 0.00449802 0)
(0.0223778 0.00449492 0)
(0.0210941 0.00449195 0)
(0.0198113 0.00448911 0)
(0.0185293 0.00448642 0)
(0.017248 0.00448388 0)
(0.0159674 0.0044815 0)
(0.0146875 0.00447927 0)
(0.0134082 0.00447722 0)
(0.0121295 0.00447534 0)
(0.0108513 0.00447363 0)
(0.00957356 0.0044721 0)
(0.00829624 0.00447076 0)
(0.00701928 0.0044696 0)
(0.00574263 0.00446864 0)
(0.00446623 0.00446786 0)
(0.00319002 0.00446728 0)
(0.00191396 0.00446689 0)
(0.000637982 0.00446669 0)
(0.000726119 -0.00653763 0)
(0.00217841 -0.00653797 0)
(0.00363083 -0.00653866 0)
(0.00508344 -0.00653971 0)
(0.00653633 -0.00654111 0)
(0.00798958 -0.00654284 0)
(0.00944326 -0.00654492 0)
(0.0108974 -0.00654731 0)
(0.0123522 -0.00655003 0)
(0.0138076 -0.00655306 0)
(0.0152638 -0.00655638 0)
(0.0167207 -0.00655998 0)
(0.0181785 -0.00656386 0)
(0.0196372 -0.00656799 0)
(0.0210969 -0.00657236 0)
(0.0225576 -0.00657696 0)
(0.0240194 -0.00658176 0)
(0.0254823 -0.00658673 0)
(0.0269464 -0.00659188 0)
(0.0284116 -0.00659715 0)
(0.0298781 -0.00660255 0)
(0.0313458 -0.00660803 0)
(0.0328148 -0.00661357 0)
(0.0342851 -0.00661914 0)
(0.0357567 -0.00662472 0)
(0.0372295 -0.00663026 0)
(0.0387037 -0.00663574 0)
(0.0401791 -0.00664113 0)
(0.0416557 -0.00664638 0)
(0.0431336 -0.00665146 0)
(0.0446126 -0.00665633 0)
(0.0460927 -0.00666095 0)
(0.0475739 -0.00666528 0)
(0.0490561 -0.00666926 0)
(0.0505392 -0.00667287 0)
(0.0520232 -0.00667605 0)
(0.0535078 -0.00667875 0)
(0.0549931 -0.00668092 0)
(0.0564789 -0.00668252 0)
(0.0579651 -0.00668348 0)
(0.0594515 -0.00668376 0)
(0.0609379 -0.00668329 0)
(0.0624243 -0.00668203 0)
(0.0639104 -0.00667991 0)
(0.065396 -0.00667688 0)
(0.0668809 -0.00667286 0)
(0.0683649 -0.00666781 0)
(0.0698478 -0.00666166 0)
(0.0713292 -0.00665434 0)
(0.0728091 -0.00664578 0)
(0.0742869 -0.00663593 0)
(0.0757626 -0.00662471 0)
(0.0772357 -0.00661206 0)
(0.0787059 -0.00659791 0)
(0.0801729 -0.00658218 0)
(0.0816363 -0.00656482 0)
(0.0830959 -0.00654575 0)
(0.084551 -0.00652489 0)
(0.0860015 -0.00650219 0)
(0.0874468 -0.00647757 0)
(0.0888865 -0.00645097 0)
(0.0903202 -0.00642231 0)
(0.0917474 -0.00639152 0)
(0.0931676 -0.00635855 0)
(0.0945804 -0.00632331 0)
(0.0959851 -0.00628576 0)
(0.0973814 -0.00624582 0)
(0.0987686 -0.00620344 0)
(0.100146 -0.00615855 0)
(0.101514 -0.0061111 0)
(0.10287 -0.00606103 0)
(0.104216 -0.00600829 0)
(0.105549 -0.00595282 0)
(0.10687 -0.00589459 0)
(0.108177 -0.00583355 0)
(0.109471 -0.00576965 0)
(0.110751 -0.00570286 0)
(0.112015 -0.00563315 0)
(0.113263 -0.00556049 0)
(0.114495 -0.00548485 0)
(0.11571 -0.00540622 0)
(0.116907 -0.00532457 0)
(0.118086 -0.0052399 0)
(0.119245 -0.00515219 0)
(0.120385 -0.00506146 0)
(0.121504 -0.0049677 0)
(0.122602 -0.00487093 0)
(0.123678 -0.00477115 0)
(0.124732 -0.0046684 0)
(0.125762 -0.00456269 0)
(0.126769 -0.00445406 0)
(0.127751 -0.00434255 0)
(0.128707 -0.00422819 0)
(0.129638 -0.00411105 0)
(0.130543 -0.00399118 0)
(0.13142 -0.00386864 0)
(0.13227 -0.00374349 0)
(0.133092 -0.00361581 0)
(0.133885 -0.00348568 0)
(0.134648 -0.00335318 0)
(0.135382 -0.0032184 0)
(0.136086 -0.00308144 0)
(0.136758 -0.00294239 0)
(0.137399 -0.00280136 0)
(0.138009 -0.00265845 0)
(0.138586 -0.00251378 0)
(0.139131 -0.00236747 0)
(0.139643 -0.00221963 0)
(0.140122 -0.00207039 0)
(0.140567 -0.00191988 0)
(0.140979 -0.00176823 0)
(0.141356 -0.00161556 0)
(0.1417 -0.00146201 0)
(0.142009 -0.00130771 0)
(0.142283 -0.00115281 0)
(0.142522 -0.000997443 0)
(0.142727 -0.000841744 0)
(0.142897 -0.000685853 0)
(0.143032 -0.000529909 0)
(0.143132 -0.00037405 0)
(0.143198 -0.000218414 0)
(0.143228 -6.31363e-05 0)
(0.143224 9.16481e-05 0)
(0.143186 0.000245806 0)
(0.143113 0.000399208 0)
(0.143006 0.000551725 0)
(0.142865 0.000703232 0)
(0.14269 0.000853608 0)
(0.142481 0.00100273 0)
(0.14224 0.00115049 0)
(0.141966 0.00129677 0)