/*--------------------------------*- C++ -*----------------------------------*\
| =========                 |                                                 |
| \\      /  F ield         | OpenFOAM: The Open Source CFD Toolbox           |
|  \\    /   O peration     | Version:  v2012                                 |
|   \\  /    A nd           | Website:  www.openfoam.com                      |
|    \\/     M anipulation  |                                                 |
\*---------------------------------------------------------------------------*/
FoamFile
{
    version     2.0;
    format      ascii;
    class       surfaceScalarField;
    location    "10";
    object      phi;
}
// * * * * * * * * * * * * * * * * * * * * * * * * * * * * * * * * * * * * * //

dimensions      [0 3 -1 0 0 0 0];
oriented        oriented;


internalField   nonuniform List<scalar> 
130560
(
3.69267e-06
-3.69267e-06
7.38543e-06
-3.69276e-06
1.10784e-05
-3.69294e-06
1.47716e-05
-3.69321e-06
1.84651e-05
-3.69356e-06
2.21591e-05
-3.694e-06
2.58536e-05
-3.69451e-06
2.95487e-05
-3.6951e-06
3.32445e-05
-3.69576e-06
3.6941e-05
-3.69648e-06
4.06382e-05
-3.69725e-06
4.43363e-05
-3.69807e-06
4.80352e-05
-3.69893e-06
5.1735e-05
-3.69981e-06
5.54358e-05
-3.70072e-06
5.91374e-05
-3.70163e-06
6.28399e-05
-3.70254e-06
6.65433e-05
-3.70342e-06
7.02476e-05
-3.70428e-06
7.39527e-05
-3.70509e-06
7.76585e-05
-3.70584e-06
8.13651e-05
-3.70651e-06
8.50721e-05
-3.70709e-06
8.87797e-05
-3.70755e-06
9.24876e-05
-3.70789e-06
9.61957e-05
-3.70807e-06
9.99037e-05
-3.70809e-06
0.000103612
-3.70791e-06
0.000107319
-3.70753e-06
0.000111026
-3.7069e-06
0.000114732
-3.70602e-06
0.000118437
-3.70486e-06
0.00012214
-3.7034e-06
0.000125842
-3.7016e-06
0.000129541
-3.69944e-06
0.000133238
-3.6969e-06
0.000136932
-3.69394e-06
0.000140623
-3.69055e-06
0.000144309
-3.68669e-06
0.000147992
-3.68233e-06
0.000151669
-3.67744e-06
0.000155341
-3.672e-06
0.000159007
-3.66596e-06
0.000162667
-3.65931e-06
0.000166319
-3.65201e-06
0.000169963
-3.64402e-06
0.000173598
-3.63532e-06
0.000177224
-3.62587e-06
0.000180839
-3.61565e-06
0.000184444
-3.60461e-06
0.000188037
-3.59272e-06
0.000191617
-3.57996e-06
0.000195183
-3.56629e-06
0.000198735
-3.55167e-06
0.000202271
-3.53608e-06
0.00020579
-3.51949e-06
0.000209292
-3.50185e-06
0.000212775
-3.48315e-06
0.000216239
-3.46335e-06
0.000219681
-3.44242e-06
0.000223101
-3.42033e-06
0.000226498
-3.39706e-06
0.000229871
-3.37257e-06
0.000233218
-3.34685e-06
0.000236538
-3.31986e-06
0.000239829
-3.29158e-06
0.000243091
-3.26199e-06
0.000246322
-3.23108e-06
0.000249521
-3.19881e-06
0.000252686
-3.16517e-06
0.000255816
-3.13015e-06
0.00025891
-3.09372e-06
0.000261966
-3.05589e-06
0.000264983
-3.01663e-06
0.000267959
-2.97594e-06
0.000270892
-2.93382e-06
0.000273783
-2.89025e-06
0.000276628
-2.84524e-06
0.000279427
-2.79879e-06
0.000282178
-2.75089e-06
0.000284879
-2.70157e-06
0.00028753
-2.65081e-06
0.000290129
-2.59863e-06
0.000292674
-2.54505e-06
0.000295164
-2.49008e-06
0.000297597
-2.43374e-06
0.000299974
-2.37605e-06
0.000302291
-2.31702e-06
0.000304547
-2.2567e-06
0.000306742
-2.1951e-06
0.000308875
-2.13226e-06
0.000310943
-2.0682e-06
0.000312946
-2.00297e-06
0.000314882
-1.9366e-06
0.000316752
-1.86914e-06
0.000318552
-1.80061e-06
0.000320283
-1.73108e-06
0.000321944
-1.66059e-06
0.000323533
-1.58918e-06
0.00032505
-1.5169e-06
0.000326494
-1.44381e-06
0.000327864
-1.36996e-06
0.000329159
-1.29541e-06
0.000330379
-1.22022e-06
0.000331524
-1.14443e-06
0.000332592
-1.06812e-06
0.000333583
-9.91331e-07
0.000334497
-9.14137e-07
0.000335334
-8.36595e-07
0.000336093
-7.58768e-07
0.000336773
-6.80717e-07
0.000337376
-6.02506e-07
0.0003379
-5.24196e-07
0.000338346
-4.4585e-07
0.000338713
-3.67531e-07
0.000339003
-2.89299e-07
0.000339214
-2.11216e-07
0.000339347
-1.33343e-07
0.000339403
-5.57397e-08
0.000339382
2.15361e-08
0.000339283
9.84262e-08
0.000339108
1.74874e-07
0.000338857
2.50825e-07
0.000338531
3.26225e-07
0.00033813
4.01022e-07
0.000337655
4.75166e-07
0.000337106
5.48607e-07
0.000336485
6.21299e-07
0.000335792
6.93196e-07
0.000335028
7.64256e-07
0.000334193
8.34437e-07
0.00033329
9.03699e-07
0.000332318
9.72006e-07
0.000331278
1.03932e-06
0.000330173
1.10562e-06
0.000329002
1.17085e-06
0.000327767
1.23501e-06
0.000326469
1.29806e-06
0.000325109
1.35997e-06
0.000323688
1.42073e-06
0.000322208
1.48031e-06
0.000320669
1.5387e-06
0.000319073
1.59588e-06
0.000317421
1.65184e-06
0.000315715
1.70657e-06
0.000313955
1.76005e-06
0.000312142
1.81227e-06
0.000310279
1.86324e-06
0.000308366
1.91295e-06
0.000306405
1.9614e-06
0.000304396
2.00858e-06
0.000302342
2.0545e-06
0.000300242
2.09916e-06
0.0002981
2.14256e-06
0.000295915
2.18471e-06
0.00029369
2.22562e-06
0.000291424
2.2653e-06
0.000289121
2.30375e-06
0.00028678
2.34099e-06
0.000284403
2.37703e-06
0.000281991
2.41188e-06
0.000279545
2.44556e-06
0.000277067
2.47808e-06
0.000274558
2.50945e-06
0.000272018
2.53971e-06
0.000269449
2.56885e-06
0.000266852
2.59691e-06
0.000264228
2.62389e-06
0.000261578
2.64983e-06
0.000258904
2.67474e-06
0.000256205
2.69863e-06
0.000253483
2.72154e-06
0.00025074
2.74348e-06
0.000247975
2.76447e-06
0.000245191
2.78454e-06
0.000242387
2.8037e-06
0.000239565
2.82199e-06
0.000236726
2.83942e-06
0.00023387
2.85601e-06
0.000230998
2.87179e-06
0.000228111
2.88678e-06
0.00022521
2.901e-06
0.000222296
2.91448e-06
0.000219369
2.92723e-06
0.000216429
2.93928e-06
0.000213479
2.95065e-06
0.000210517
2.96136e-06
0.000207546
2.97144e-06
0.000204565
2.9809e-06
0.000201575
2.98977e-06
0.000198577
2.99807e-06
0.000195571
3.00581e-06
0.000192558
3.01303e-06
0.000189539
3.01973e-06
0.000186513
3.02594e-06
0.000183481
3.03168e-06
0.000180444
3.03697e-06
0.000177402
3.04183e-06
0.000174356
3.04626e-06
0.000171306
3.05031e-06
0.000168252
3.05397e-06
0.000165194
3.05727e-06
0.000162134
3.06023e-06
0.000159071
3.06285e-06
0.000156006
3.06517e-06
0.000152939
3.06719e-06
0.00014987
3.06893e-06
0.000146799
3.07041e-06
0.000143728
3.07163e-06
0.000140655
3.07262e-06
0.000137582
3.07339e-06
0.000134508
3.07395e-06
0.000131434
3.07432e-06
0.000128359
3.0745e-06
0.000125285
3.07452e-06
0.00012221
3.07437e-06
0.000119136
3.07409e-06
0.000116062
3.07367e-06
0.000112989
3.07313e-06
0.000109917
3.07248e-06
0.000106845
3.07173e-06
0.000103774
3.07088e-06
0.000100704
3.06996e-06
9.76353e-05
3.06897e-06
9.45674e-05
3.06791e-06
9.15006e-05
3.0668e-06
8.84349e-05
3.06565e-06
8.53705e-05
3.06446e-06
8.23072e-05
3.06324e-06
7.92452e-05
3.062e-06
7.61845e-05
3.06074e-06
7.3125e-05
3.05948e-06
7.00668e-05
3.05822e-06
6.70098e-05
3.05697e-06
6.39541e-05
3.05572e-06
6.08996e-05
3.0545e-06
5.78463e-05
3.0533e-06
5.47942e-05
3.05212e-06
5.17432e-05
3.05098e-06
4.86933e-05
3.04988e-06
4.56445e-05
3.04882e-06
4.25967e-05
3.04781e-06
3.95498e-05
3.04685e-06
3.65039e-05
3.04594e-06
3.34588e-05
3.04509e-06
3.04145e-05
3.0443e-06
2.73709e-05
3.04358e-06
2.4328e-05
3.04291e-06
2.12857e-05
3.04232e-06
1.82439e-05
3.0418e-06
1.52025e-05
3.04135e-06
1.21616e-05
3.04097e-06
9.12092e-06
3.04066e-06
6.08048e-06
3.04043e-06
3.0402e-06
3.04028e-06
3.0402e-06
3.69258e-06
-7.38525e-06
7.38525e-06
-7.38543e-06
1.10781e-05
-7.38579e-06
1.47712e-05
-7.38633e-06
1.84647e-05
-7.38704e-06
2.21586e-05
-7.38792e-06
2.58531e-05
-7.38895e-06
2.95481e-05
-7.39013e-06
3.32438e-05
-7.39145e-06
3.69402e-05
-7.3929e-06
4.06374e-05
-7.39445e-06
4.43354e-05
-7.3961e-06
4.80343e-05
-7.39783e-06
5.17341e-05
-7.39961e-06
5.54349e-05
-7.40143e-06
5.91365e-05
-7.40326e-06
6.2839e-05
-7.40509e-06
6.65425e-05
-7.40688e-06
7.02468e-05
-7.40861e-06
7.3952e-05
-7.41024e-06
7.76579e-05
-7.41175e-06
8.13645e-05
-7.41311e-06
8.50717e-05
-7.41429e-06
8.87794e-05
-7.41524e-06
9.24874e-05
-7.41593e-06
9.61957e-05
-7.41632e-06
9.99039e-05
-7.41637e-06
0.000103612
-7.41604e-06
0.00010732
-7.41529e-06
0.000111027
-7.41407e-06
0.000114733
-7.41233e-06
0.000118438
-7.41003e-06
0.000122142
-7.40712e-06
0.000125844
-7.40355e-06
0.000129544
-7.39926e-06
0.000133241
-7.39421e-06
0.000136936
-7.38833e-06
0.000140627
-7.38157e-06
0.000144314
-7.37387e-06
0.000147997
-7.36518e-06
0.000151675
-7.35544e-06
0.000155347
-7.34458e-06
0.000159014
-7.33255e-06
0.000162674
-7.31927e-06
0.000166327
-7.3047e-06
0.000169971
-7.28876e-06
0.000173607
-7.27139e-06
0.000177234
-7.25253e-06
0.00018085
-7.2321e-06
0.000184456
-7.21006e-06
0.00018805
-7.18632e-06
0.00019163
-7.16083e-06
0.000195198
-7.13352e-06
0.00019875
-7.10432e-06
0.000202287
-7.07317e-06
0.000205808
-7.04001e-06
0.000209311
-7.00477e-06
0.000212795
-6.9674e-06
0.00021626
-6.92783e-06
0.000219703
-6.886e-06
0.000223125
-6.84185e-06
0.000226523
-6.79533e-06
0.000229897
-6.74638e-06
0.000233245
-6.69496e-06
0.000236566
-6.641e-06
0.000239859
-6.58447e-06
0.000243122
-6.52532e-06
0.000246355
-6.4635e-06
0.000249555
-6.39898e-06
0.000252721
-6.33172e-06
0.000255853
-6.26169e-06
0.000258948
-6.18886e-06
0.000262005
-6.1132e-06
0.000265023
-6.03469e-06
0.000268001
-5.95333e-06
0.000270936
-5.86908e-06
0.000273828
-5.78195e-06
0.000276674
-5.69193e-06
0.000279475
-5.59902e-06
0.000282227
-5.50322e-06
0.00028493
-5.40456e-06
0.000287582
-5.30303e-06
0.000290182
-5.19867e-06
0.000292729
-5.09149e-06
0.00029522
-4.98153e-06
0.000297655
-4.86883e-06
0.000300033
-4.75342e-06
0.000302351
-4.63535e-06
0.000304609
-4.51467e-06
0.000306805
-4.39144e-06
0.000308939
-4.26572e-06
0.000311008
-4.13758e-06
0.000313012
-4.00708e-06
0.00031495
-3.8743e-06
0.00031682
-3.73932e-06
0.000318622
-3.60224e-06
0.000320354
-3.46313e-06
0.000322015
-3.32209e-06
0.000323605
-3.17921e-06
0.000325123
-3.03461e-06
0.000326567
-2.88838e-06
0.000327938
-2.74063e-06
0.000329234
-2.59147e-06
0.000330455
-2.44102e-06
0.0003316
-2.28939e-06
0.000332669
-2.1367e-06
0.00033366
-1.98307e-06
0.000334575
-1.82862e-06
0.000335412
-1.67347e-06
0.000336171
-1.51776e-06
0.000336852
-1.36159e-06
0.000337454
-1.20511e-06
0.000337978
-1.04843e-06
0.000338424
-8.91673e-07
0.000338792
-7.34972e-07
0.000339081
-5.78448e-07
0.000339292
-4.22222e-07
0.000339425
-2.66417e-07
0.00033948
-1.1115e-07
0.000339458
4.34587e-08
0.000339359
1.97295e-07
0.000339184
3.50247e-07
0.000338933
5.02202e-07
0.000338606
6.53054e-07
0.000338204
8.02699e-07
0.000337728
9.51035e-07
0.000337179
1.09796e-06
0.000336557
1.24339e-06
0.000335863
1.38723e-06
0.000335098
1.52939e-06
0.000334262
1.66979e-06
0.000333358
1.80835e-06
0.000332385
1.945e-06
0.000331344
2.07967e-06
0.000330238
2.21229e-06
0.000329066
2.34279e-06
0.00032783
2.47113e-06
0.00032653
2.59725e-06
0.000325169
2.7211e-06
0.000323747
2.84264e-06
0.000322266
2.96182e-06
0.000320726
3.07862e-06
0.000319129
3.19299e-06
0.000317476
3.30492e-06
0.000315768
3.41438e-06
0.000314007
3.52134e-06
0.000312193
3.6258e-06
0.000310329
3.72775e-06
0.000308414
3.82717e-06
0.000306452
3.92406e-06
0.000304442
4.01842e-06
0.000302386
4.11026e-06
0.000300286
4.19957e-06
0.000298142
4.28637e-06
0.000295956
4.37067e-06
0.000293729
4.45248e-06
0.000291463
4.53182e-06
0.000289158
4.60872e-06
0.000286815
4.68318e-06
0.000284437
4.75525e-06
0.000282024
4.82493e-06
0.000279577
4.89227e-06
0.000277098
4.9573e-06
0.000274588
5.02003e-06
0.000272047
5.08052e-06
0.000269477
5.13879e-06
0.000266879
5.19489e-06
0.000264254
5.24884e-06
0.000261603
5.30069e-06
0.000258927
5.35048e-06
0.000256228
5.39825e-06
0.000253505
5.44404e-06
0.000250761
5.4879e-06
0.000247995
5.52986e-06
0.00024521
5.56998e-06
0.000242405
5.60829e-06
0.000239583
5.64484e-06
0.000236742
5.67967e-06
0.000233886
5.71283e-06
0.000231013
5.74437e-06
0.000228125
5.77433e-06
0.000225224
5.80275e-06
0.000222308
5.82968e-06
0.000219381
5.85516e-06
0.000216441
5.87923e-06
0.000213489
5.90195e-06
0.000210527
5.92336e-06
0.000207555
5.94349e-06
0.000204574
5.9624e-06
0.000201583
5.98011e-06
0.000198585
5.99669e-06
0.000195578
6.01216e-06
0.000192565
6.02657e-06
0.000189545
6.03995e-06
0.000186518
6.05236e-06
0.000183486
6.06382e-06
0.000180449
6.07438e-06
0.000177406
6.08407e-06
0.00017436
6.09293e-06
0.000171309
6.10099e-06
0.000168255
6.1083e-06
0.000165197
6.11488e-06
0.000162137
6.12078e-06
0.000159073
6.12602e-06
0.000156008
6.13063e-06
0.000152941
6.13466e-06
0.000149871
6.13812e-06
0.000146801
6.14106e-06
0.000143729
6.1435e-06
0.000140656
6.14546e-06
0.000137582
6.14698e-06
0.000134508
6.14809e-06
0.000131434
6.14881e-06
0.000128359
6.14917e-06
0.000125284
6.14919e-06
0.00012221
6.14889e-06
0.000119136
6.14831e-06
0.000116062
6.14746e-06
0.000112989
6.14637e-06
0.000109916
6.14506e-06
0.000106844
6.14354e-06
0.000103773
6.14185e-06
0.000100703
6.13999e-06
9.76342e-05
6.13799e-06
9.45663e-05
6.13587e-06
9.14994e-05
6.13364e-06
8.84337e-05
6.13133e-06
8.53692e-05
6.12894e-06
8.2306e-05
6.12649e-06
7.9244e-05
6.12401e-06
7.61832e-05
6.12149e-06
7.31237e-05
6.11896e-06
7.00655e-05
6.11643e-06
6.70086e-05
6.11392e-06
6.39529e-05
6.11143e-06
6.08984e-05
6.10897e-06
5.78451e-05
6.10656e-06
5.4793e-05
6.10421e-06
5.17421e-05
6.10193e-06
4.86923e-05
6.09972e-06
4.56435e-05
6.0976e-06
4.25957e-05
6.09557e-06
3.95489e-05
6.09365e-06
3.6503e-05
6.09183e-06
3.3458e-05
6.09013e-06
3.04138e-05
6.08854e-06
2.73703e-05
6.08709e-06
2.43274e-05
6.08576e-06
2.12852e-05
6.08457e-06
1.82434e-05
6.08352e-06
1.52022e-05
6.08262e-06
1.21613e-05
6.08186e-06
9.12068e-06
6.08125e-06
6.08033e-06
6.08079e-06
3.04013e-06
6.08048e-06
6.08033e-06
3.6924e-06
-1.10776e-05
7.38489e-06
-1.10779e-05
1.10776e-05
-1.10785e-05
1.47705e-05
-1.10793e-05
1.84638e-05
-1.10804e-05
2.21576e-05
-1.10817e-05
2.58519e-05
-1.10832e-05
2.95468e-05
-1.1085e-05
3.32423e-05
-1.1087e-05
3.69387e-05
-1.10892e-05
4.06358e-05
-1.10916e-05
4.43337e-05
-1.10941e-05
4.80326e-05
-1.10967e-05
5.17323e-05
-1.10994e-05
5.5433e-05
-1.11021e-05
5.91347e-05
-1.11049e-05
6.28373e-05
-1.11077e-05
6.65408e-05
-1.11104e-05
7.02452e-05
-1.1113e-05
7.39505e-05
-1.11155e-05
7.76565e-05
-1.11178e-05
8.13633e-05
-1.11199e-05
8.50707e-05
-1.11217e-05
8.87787e-05
-1.11232e-05
9.2487e-05
-1.11243e-05
9.61956e-05
-1.11249e-05
9.99043e-05
-1.1125e-05
0.000103613
-1.11246e-05
0.000107321
-1.11235e-05
0.000111029
-1.11217e-05
0.000114736
-1.11192e-05
0.000118441
-1.11158e-05
0.000122146
-1.11115e-05
0.000125848
-1.11062e-05
0.000129549
-1.10999e-05
0.000133247
-1.10923e-05
0.000136942
-1.10836e-05
0.000140634
-1.10735e-05
0.000144323
-1.10621e-05
0.000148006
-1.10491e-05
0.000151686
-1.10346e-05
0.000155359
-1.10183e-05
0.000159027
-1.10004e-05
0.000162688
-1.09805e-05
0.000166342
-1.09588e-05
0.000169989
-1.09349e-05
0.000173626
-1.0909e-05
0.000177254
-1.08807e-05
0.000180873
-1.08502e-05
0.00018448
-1.08172e-05
0.000188075
-1.07817e-05
0.000191658
-1.07435e-05
0.000195227
-1.07026e-05
0.000198781
-1.06589e-05
0.000202321
-1.06123e-05
0.000205843
-1.05626e-05
0.000209348
-1.05098e-05
0.000212835
-1.04538e-05
0.000216301
-1.03946e-05
0.000219747
-1.03319e-05
0.000223171
-1.02657e-05
0.000226572
-1.0196e-05
0.000229948
-1.01227e-05
0.000233299
-1.00456e-05
0.000236622
-9.96472e-06
0.000239918
-9.87998e-06
0.000243184
-9.79131e-06
0.000246419
-9.69863e-06
0.000249622
-9.60189e-06
0.000252791
-9.50104e-06
0.000255926
-9.39603e-06
0.000259024
-9.28682e-06
0.000262084
-9.17336e-06
0.000265105
-9.05562e-06
0.000268085
-8.93358e-06
0.000271023
-8.80723e-06
0.000273918
-8.67653e-06
0.000276767
-8.5415e-06
0.00027957
-8.40213e-06
0.000282326
-8.25843e-06
0.000285031
-8.11041e-06
0.000287687
-7.95809e-06
0.000290289
-7.80152e-06
0.000292839
-7.64072e-06
0.000295333
-7.47573e-06
0.000297771
-7.30663e-06
0.000300151
-7.13345e-06
0.000302472
-6.95629e-06
0.000304732
-6.7752e-06
0.000306931
-6.59028e-06
0.000309067
-6.40161e-06
0.000311139
-6.2093e-06
0.000313145
-6.01346e-06
0.000315085
-5.81419e-06
0.000316957
-5.61163e-06
0.000318761
-5.40588e-06
0.000320495
-5.1971e-06
0.000322158
-4.98542e-06
0.00032375
-4.77098e-06
0.000325269
-4.55395e-06
0.000326715
-4.33447e-06
0.000328087
-4.11271e-06
0.000329385
-3.88883e-06
0.000330607
-3.66301e-06
0.000331753
-3.43541e-06
0.000332822
-3.20623e-06
0.000333815
-2.97563e-06
0.00033473
-2.7438e-06
0.000335567
-2.51093e-06
0.000336327
-2.2772e-06
0.000337008
-2.04279e-06
0.000337611
-1.80791e-06
0.000338135
-1.57273e-06
0.000338581
-1.33744e-06
0.000338948
-1.10224e-06
0.000339237
-8.67298e-07
0.000339448
-6.32808e-07
0.00033958
-3.9895e-07
0.000339635
-1.65904e-07
0.000339612
6.61535e-08
0.000339512
2.9705e-07
0.000339336
5.26614e-07
0.000339084
7.54682e-07
0.000338756
9.81091e-07
0.000338353
1.20568e-06
0.000337875
1.42831e-06
0.000337324
1.64882e-06
0.000336701
1.86708e-06
0.000336005
2.08294e-06
0.000335238
2.29629e-06
0.000334401
2.50699e-06
0.000333494
2.71492e-06
0.000332519
2.91998e-06
0.000331477
3.12206e-06
0.000330368
3.32107e-06
0.000329194
3.5169e-06
0.000327956
3.70947e-06
0.000326654
3.89871e-06
0.000325291
4.08454e-06
0.000323867
4.26689e-06
0.000322383
4.44571e-06
0.00032084
4.62095e-06
0.000319241
4.79254e-06
0.000317585
4.96046e-06
0.000315875
5.12467e-06
0.000314111
5.28514e-06
0.000312295
5.44185e-06
0.000310428
5.59478e-06
0.000308511
5.74392e-06
0.000306546
5.88926e-06
0.000304534
6.0308e-06
0.000302476
6.16854e-06
0.000300373
6.3025e-06
0.000298226
6.43268e-06
0.000296038
6.55911e-06
0.000293809
6.68181e-06
0.00029154
6.8008e-06
0.000289232
6.91611e-06
0.000286888
7.02778e-06
0.000284507
7.13584e-06
0.000282092
7.24033e-06
0.000279643
7.34131e-06
0.000277161
7.4388e-06
0.000274648
7.53286e-06
0.000272105
7.62355e-06
0.000269533
7.71091e-06
0.000266933
7.795e-06
0.000264306
7.87589e-06
0.000261653
7.95361e-06
0.000258975
8.02825e-06
0.000256274
8.09985e-06
0.000253549
8.16848e-06
0.000250803
8.23421e-06
0.000248036
8.2971e-06
0.000245248
8.35722e-06
0.000242442
8.41463e-06
0.000239617
8.4694e-06
0.000236776
8.5216e-06
0.000233917
8.57128e-06
0.000231043
8.61853e-06
0.000228154
8.66341e-06
0.000225251
8.70598e-06
0.000222334
8.74632e-06
0.000219405
8.78449e-06
0.000216463
8.82055e-06
0.000213511
8.85457e-06
0.000210547
8.88663e-06
0.000207574
8.91677e-06
0.000204591
8.94508e-06
0.0002016
8.9716e-06
0.0001986
8.99641e-06
0.000195593
9.01956e-06
0.000192578
9.04113e-06
0.000189557
9.06116e-06
0.00018653
9.07972e-06
0.000183497
9.09686e-06
0.000180458
9.11265e-06
0.000177415
9.12714e-06
0.000174368
9.14038e-06
0.000171316
9.15243e-06
0.000168261
9.16335e-06
0.000165203
9.17319e-06
0.000162142
9.18199e-06
0.000159078
9.18981e-06
0.000156012
9.19669e-06
0.000152944
9.20269e-06
0.000149874
9.20785e-06
0.000146803
9.21222e-06
0.000143731
9.21583e-06
0.000140658
9.21875e-06
0.000137583
9.221e-06
0.000134509
9.22262e-06
0.000131434
9.22367e-06
0.000128359
9.22417e-06
0.000125284
9.22417e-06
0.000122209
9.2237e-06
0.000119135
9.2228e-06
0.000116061
9.2215e-06
0.000112987
9.21983e-06
0.000109915
9.21783e-06
0.000106843
9.21554e-06
0.000103771
9.21297e-06
0.000100701
9.21016e-06
9.76321e-05
9.20714e-06
9.4564e-05
9.20394e-06
9.14971e-05
9.20058e-06
8.84313e-05
9.19708e-06
8.53668e-05
9.19348e-06
8.23035e-05
9.18979e-06
7.92415e-05
9.18604e-06
7.61807e-05
9.18225e-06
7.31212e-05
9.17844e-06
7.0063e-05
9.17464e-06
6.70061e-05
9.17085e-06
6.39504e-05
9.1671e-06
6.0896e-05
9.1634e-06
5.78428e-05
9.15977e-06
5.47908e-05
9.15624e-06
5.17399e-05
9.1528e-06
4.86901e-05
9.14948e-06
4.56415e-05
9.14629e-06
4.25938e-05
9.14324e-06
3.95471e-05
9.14034e-06
3.65013e-05
9.1376e-06
3.34564e-05
9.13504e-06
3.04123e-05
9.13266e-06
2.73689e-05
9.13047e-06
2.43262e-05
9.12847e-06
2.12841e-05
9.12668e-06
1.82425e-05
9.12511e-06
1.52014e-05
9.12374e-06
1.21607e-05
9.1226e-06
9.12023e-06
9.12168e-06
6.08002e-06
9.12099e-06
3.03997e-06
9.12053e-06
9.1203e-06
3.69212e-06
-1.47698e-05
7.38434e-06
-1.47701e-05
1.10767e-05
-1.47709e-05
1.47694e-05
-1.4772e-05
1.84625e-05
-1.47734e-05
2.2156e-05
-1.47752e-05
2.58501e-05
-1.47773e-05
2.95448e-05
-1.47797e-05
3.32402e-05
-1.47824e-05
3.69363e-05
-1.47854e-05
4.06333e-05
-1.47885e-05
4.43311e-05
-1.47919e-05
4.80299e-05
-1.47954e-05
5.17296e-05
-1.47991e-05
5.54302e-05
-1.48028e-05
5.91319e-05
-1.48066e-05
6.28345e-05
-1.48103e-05
6.65381e-05
-1.4814e-05
7.02427e-05
-1.48176e-05
7.39481e-05
-1.4821e-05
7.76544e-05
-1.48241e-05
8.13615e-05
-1.4827e-05
8.50693e-05
-1.48295e-05
8.87776e-05
-1.48315e-05
9.24864e-05
-1.4833e-05
9.61955e-05
-1.4834e-05
9.99047e-05
-1.48343e-05
0.000103614
-1.48338e-05
0.000107323
-1.48324e-05
0.000111031
-1.48302e-05
0.000114739
-1.48269e-05
0.000118446
-1.48225e-05
0.000122151
-1.48169e-05
0.000125855
-1.481e-05
0.000129557
-1.48016e-05
0.000133256
-1.47917e-05
0.000136952
-1.47802e-05
0.000140646
-1.47669e-05
0.000144336
-1.47517e-05
0.000148021
-1.47346e-05
0.000151702
-1.47153e-05
0.000155377
-1.46939e-05
0.000159047
-1.467e-05
0.00016271
-1.46438e-05
0.000166366
-1.46149e-05
0.000170015
-1.45832e-05
0.000173654
-1.45488e-05
0.000177285
-1.45113e-05
0.000180906
-1.44707e-05
0.000184515
-1.44269e-05
0.000188113
-1.43797e-05
0.000191699
-1.43289e-05
0.000195271
-1.42746e-05
0.000198828
-1.42164e-05
0.00020237
-1.41544e-05
0.000205896
-1.40883e-05
0.000209404
-1.40181e-05
0.000212894
-1.39436e-05
0.000216364
-1.38647e-05
0.000219813
-1.37813e-05
0.000223241
-1.36932e-05
0.000226645
-1.36004e-05
0.000230025
-1.35027e-05
0.00023338
-1.34e-05
0.000236707
-1.32923e-05
0.000240007
-1.31794e-05
0.000243277
-1.30613e-05
0.000246516
-1.29378e-05
0.000249723
-1.28089e-05
0.000252896
-1.26745e-05
0.000256035
-1.25346e-05
0.000259137
-1.2389e-05
0.000262202
-1.22378e-05
0.000265227
-1.20808e-05
0.000268211
-1.19182e-05
0.000271154
-1.17497e-05
0.000274053
-1.15755e-05
0.000276907
-1.13954e-05
0.000279714
-1.12096e-05
0.000282474
-1.10179e-05
0.000285184
-1.08206e-05
0.000287843
-1.06174e-05
0.00029045
-1.04086e-05
0.000293004
-1.01941e-05
0.000295502
-9.97406e-06
0.000297944
-9.74849e-06
0.000300328
-9.51748e-06
0.000302653
-9.28114e-06
0.000304917
-9.03956e-06
0.00030712
-8.79286e-06
0.000309259
-8.54115e-06
0.000311334
-8.28457e-06
0.000313344
-8.02327e-06
0.000315287
-7.75739e-06
0.000317163
-7.4871e-06
0.00031897
-7.21257e-06
0.000320706
-6.93398e-06
0.000322373
-6.65151e-06
0.000323967
-6.36536e-06
0.000325489
-6.07573e-06
0.000326937
-5.78284e-06
0.000328311
-5.4869e-06
0.000329611
-5.18813e-06
0.000330834
-4.88676e-06
0.000331982
-4.58303e-06
0.000333053
-4.27716e-06
0.000334047
-3.96941e-06
0.000334963
-3.66002e-06
0.000335801
-3.34924e-06
0.000336561
-3.0373e-06
0.000337243
-2.72448e-06
0.000337846
-2.411e-06
0.00033837
-2.09714e-06
0.000338816
-1.78313e-06
0.000339183
-1.46924e-06
0.000339472
-1.1557e-06
0.000339682
-8.42762e-07
0.000339813
-5.30673e-07
0.000339867
-2.1967e-07
0.000339843
9.00097e-08
0.000339742
3.98135e-07
0.000339564
7.04479e-07
0.00033931
1.00882e-06
0.00033898
1.31094e-06
0.000338575
1.61064e-06
0.000338096
1.9077e-06
0.000337543
2.20194e-06
0.000336917
2.49315e-06
0.000336218
2.78118e-06
0.000335449
3.06583e-06
0.000334609
3.34694e-06
0.0003337
3.62436e-06
0.000332722
3.89794e-06
0.000331676
4.16754e-06
0.000330564
4.43302e-06
0.000329387
4.69426e-06
0.000328145
4.95115e-06
0.00032684
5.20358e-06
0.000325473
5.45146e-06
0.000324046
5.69469e-06
0.000322558
5.9332e-06
0.000321012
6.16691e-06
0.000319409
6.39577e-06
0.00031775
6.61972e-06
0.000316036
6.83871e-06
0.000314268
7.05271e-06
0.000312448
7.26168e-06
0.000310577
7.4656e-06
0.000308657
7.66446e-06
0.000306688
7.85825e-06
0.000304672
8.04696e-06
0.00030261
8.23061e-06
0.000300503
8.4092e-06
0.000298353
8.58275e-06
0.000296161
8.75129e-06
0.000293928
8.91484e-06
0.000291655
9.07345e-06
0.000289344
9.22715e-06
0.000286996
9.37598e-06
0.000284612
9.52e-06
0.000282193
9.65926e-06
0.00027974
9.79382e-06
0.000277255
9.92373e-06
0.000274739
1.00491e-05
0.000272193
1.01699e-05
0.000269617
1.02863e-05
0.000267014
1.03983e-05
0.000264384
1.05061e-05
0.000261728
1.06096e-05
0.000259047
1.0709e-05
0.000256342
1.08044e-05
0.000253615
1.08958e-05
0.000250866
1.09834e-05
0.000248096
1.10671e-05
0.000245306
1.11472e-05
0.000242497
1.12236e-05
0.00023967
1.12965e-05
0.000236825
1.1366e-05
0.000233964
1.14322e-05
0.000231088
1.14951e-05
0.000228196
1.15548e-05
0.000225291
1.16115e-05
0.000222372
1.16651e-05
0.000219441
1.17159e-05
0.000216497
1.17639e-05
0.000213543
1.18092e-05
0.000210578
1.18518e-05
0.000207602
1.18919e-05
0.000204618
1.19295e-05
0.000201625
1.19648e-05
0.000198623
1.19978e-05
0.000195614
1.20286e-05
0.000192598
1.20572e-05
0.000189576
1.20838e-05
0.000186547
1.21085e-05
0.000183513
1.21313e-05
0.000180473
1.21522e-05
0.000177429
1.21715e-05
0.00017438
1.2189e-05
0.000171327
1.2205e-05
0.000168271
1.22195e-05
0.000165212
1.22325e-05
0.00016215
1.22442e-05
0.000159085
1.22545e-05
0.000156018
1.22636e-05
0.000152949
1.22716e-05
0.000149879
1.22784e-05
0.000146807
1.22841e-05
0.000143734
1.22889e-05
0.00014066
1.22927e-05
0.000137585
1.22956e-05
0.00013451
1.22977e-05
0.000131435
1.22991e-05
0.000128359
1.22997e-05
0.000125284
1.22996e-05
0.000122208
1.22989e-05
0.000119134
1.22977e-05
0.000116059
1.22959e-05
0.000112985
1.22936e-05
0.000109912
1.22909e-05
0.00010684
1.22878e-05
0.000103769
1.22843e-05
0.000100698
1.22805e-05
9.76289e-05
1.22765e-05
9.45607e-05
1.22722e-05
9.14936e-05
1.22676e-05
8.84278e-05
1.22629e-05
8.53631e-05
1.22581e-05
8.22998e-05
1.22532e-05
7.92377e-05
1.22481e-05
7.61769e-05
1.2243e-05
7.31174e-05
1.22379e-05
7.00592e-05
1.22328e-05
6.70024e-05
1.22277e-05
6.39467e-05
1.22227e-05
6.08924e-05
1.22178e-05
5.78393e-05
1.22129e-05
5.47873e-05
1.22082e-05
5.17366e-05
1.22036e-05
4.8687e-05
1.21991e-05
4.56384e-05
1.21948e-05
4.25909e-05
1.21907e-05
3.95444e-05
1.21869e-05
3.64988e-05
1.21832e-05
3.3454e-05
1.21798e-05
3.04101e-05
1.21766e-05
2.73669e-05
1.21736e-05
2.43244e-05
1.2171e-05
2.12825e-05
1.21686e-05
1.82412e-05
1.21665e-05
1.52003e-05
1.21646e-05
1.21597e-05
1.21631e-05
9.11954e-06
1.21619e-05
6.07956e-06
1.2161e-05
3.03974e-06
1.21604e-05
1.216e-05
3.69175e-06
-1.84615e-05
7.3836e-06
-1.8462e-05
1.10756e-05
-1.84629e-05
1.4768e-05
-1.84643e-05
1.84607e-05
-1.84661e-05
2.21539e-05
-1.84684e-05
2.58477e-05
-1.84711e-05
2.95421e-05
-1.84741e-05
3.32372e-05
-1.84775e-05
3.69331e-05
-1.84813e-05
4.06299e-05
-1.84853e-05
4.43276e-05
-1.84896e-05
4.80262e-05
-1.84941e-05
5.17258e-05
-1.84987e-05
5.54265e-05
-1.85034e-05
5.91281e-05
-1.85082e-05
6.28308e-05
-1.8513e-05
6.65346e-05
-1.85177e-05
7.02393e-05
-1.85223e-05
7.3945e-05
-1.85267e-05
7.76516e-05
-1.85307e-05
8.1359e-05
-1.85344e-05
8.50672e-05
-1.85377e-05
8.87761e-05
-1.85404e-05
9.24854e-05
-1.85424e-05
9.61952e-05
-1.85437e-05
9.99052e-05
-1.85442e-05
0.000103615
-1.85438e-05
0.000107325
-1.85423e-05
0.000111035
-1.85397e-05
0.000114743
-1.85357e-05
0.000118451
-1.85304e-05
0.000122158
-1.85236e-05
0.000125863
-1.85151e-05
0.000129566
-1.85049e-05
0.000133267
-1.84927e-05
0.000136966
-1.84785e-05
0.000140661
-1.84621e-05
0.000144353
-1.84434e-05
0.00014804
-1.84222e-05
0.000151723
-1.83984e-05
0.000155401
-1.83717e-05
0.000159073
-1.83422e-05
0.000162739
-1.83096e-05
0.000166398
-1.82737e-05
0.000170049
-1.82344e-05
0.000173692
-1.81915e-05
0.000177326
-1.8145e-05
0.000180949
-1.80945e-05
0.000184562
-1.80399e-05
0.000188164
-1.79812e-05
0.000191753
-1.7918e-05
0.000195329
-1.78503e-05
0.00019889
-1.77779e-05
0.000202436
-1.77005e-05
0.000205966
-1.76182e-05
0.000209479
-1.75307e-05
0.000212973
-1.74377e-05
0.000216447
-1.73393e-05
0.000219901
-1.72353e-05
0.000223334
-1.71254e-05
0.000226743
-1.70096e-05
0.000230128
-1.68877e-05
0.000233487
-1.67595e-05
0.00023682
-1.66251e-05
0.000240125
-1.64841e-05
0.0002434
-1.63366e-05
0.000246645
-1.61824e-05
0.000249857
-1.60214e-05
0.000253036
-1.58536e-05
0.000256181
-1.56788e-05
0.000259288
-1.54969e-05
0.000262359
-1.53079e-05
0.00026539
-1.51118e-05
0.00026838
-1.49085e-05
0.000271328
-1.4698e-05
0.000274233
-1.44802e-05
0.000277093
-1.42551e-05
0.000279906
-1.40228e-05
0.000282671
-1.37832e-05
0.000285387
-1.35364e-05
0.000288052
-1.32824e-05
0.000290665
-1.30213e-05
0.000293224
-1.27531e-05
0.000295728
-1.24779e-05
0.000298175
-1.21958e-05
0.000300564
-1.19069e-05
0.000302894
-1.16112e-05
0.000305164
-1.1309e-05
0.000307371
-1.10004e-05
0.000309516
-1.06856e-05
0.000311596
-1.03646e-05
0.00031361
-1.00377e-05
0.000315558
-9.705e-06
0.000317437
-9.36682e-06
0.000319248
-9.02332e-06
0.000320989
-8.67473e-06
0.000322659
-8.32127e-06
0.000324257
-7.96321e-06
0.000325782
-7.60078e-06
0.000327233
-7.23426e-06
0.00032861
-6.86392e-06
0.000329912
-6.49003e-06
0.000331138
-6.11288e-06
0.000332288
-5.73277e-06
0.000333361
-5.34999e-06
0.000334356
-4.96485e-06
0.000335274
-4.57764e-06
0.000336113
-4.18869e-06
0.000336874
-3.79831e-06
0.000337557
-3.4068e-06
0.00033816
-3.01449e-06
0.000338685
-2.62169e-06
0.00033913
-2.22872e-06
0.000339497
-1.83588e-06
0.000339785
-1.4435e-06
0.000339994
-1.05187e-06
0.000340124
-6.61309e-07
0.000340177
-2.72114e-07
0.000340151
1.1542e-07
0.000340049
5.01002e-07
0.000339869
8.84346e-07
0.000339612
1.26518e-06
0.00033928
1.64322e-06
0.000338872
2.01822e-06
0.00033839
2.38992e-06
0.000337834
2.75806e-06
0.000337205
3.12243e-06
0.000336503
3.48278e-06
0.00033573
3.8389e-06
0.000334886
4.19059e-06
0.000333973
4.53765e-06
0.000332991
4.87988e-06
0.000331942
5.21712e-06
0.000330825
5.54921e-06
0.000329644
5.87597e-06
0.000328398
6.19728e-06
0.000327088
6.513e-06
0.000325717
6.82301e-06
0.000324284
7.12721e-06
0.000322792
7.42548e-06
0.000321241
7.71774e-06
0.000319633
8.00392e-06
0.000317969
8.28394e-06
0.00031625
8.55775e-06
0.000314477
8.8253e-06
0.000312652
9.08656e-06
0.000310776
9.34149e-06
0.000308851
9.59008e-06
0.000306877
9.83231e-06
0.000304855
1.00682e-05
0.000302788
1.02977e-05
0.000300676
1.05209e-05
0.000298521
1.07378e-05
0.000296324
1.09484e-05
0.000294086
1.11528e-05
0.000291809
1.1351e-05
0.000289493
1.1543e-05
0.00028714
1.1729e-05
0.000284751
1.19089e-05
0.000282327
1.20829e-05
0.00027987
1.2251e-05
0.000277381
1.24132e-05
0.00027486
1.25698e-05
0.000272309
1.27207e-05
0.000269729
1.28661e-05
0.000267122
1.3006e-05
0.000264487
1.31405e-05
0.000261827
1.32698e-05
0.000259142
1.33939e-05
0.000256434
1.35129e-05
0.000253703
1.3627e-05
0.00025095
1.37363e-05
0.000248176
1.38408e-05
0.000245382
1.39407e-05
0.00024257
1.40361e-05
0.000239739
1.41271e-05