/*--------------------------------*- C++ -*----------------------------------*\
| =========                 |                                                 |
| \\      /  F ield         | OpenFOAM: The Open Source CFD Toolbox           |
|  \\    /   O peration     | Version:  v2012                                 |
|   \\  /    A nd           | Website:  www.openfoam.com                      |
|    \\/     M anipulation  |                                                 |
\*---------------------------------------------------------------------------*/
FoamFile
{
    version     2.0;
    format      ascii;
    class       volScalarField;
    location    "10";
    object      Psi_z;
}
// * * * * * * * * * * * * * * * * * * * * * * * * * * * * * * * * * * * * * //

dimensions      [0 2 -1 0 0 0 0];


internalField   nonuniform List<scalar> 
65536
(
9.23083e-06
2.76927e-05
4.61553e-05
6.4619e-05
8.30843e-05
0.000101552
0.000120021
0.000138494
0.000156969
0.000175448
0.000193931
0.000212418
0.000230909
0.000249404
0.000267904
0.000286408
0.000304918
0.000323431
0.000341949
0.000360471
0.000378997
0.000397527
0.00041606
0.000434596
0.000453133
0.000471673
0.000490212
0.000508751
0.000527289
0.000545825
0.000564357
0.000582884
0.000601404
0.000619916
0.000638419
0.000656909
0.000675386
0.000693848
0.000712291
0.000730714
0.000749114
0.000767488
0.000785834
0.000804148
0.000822427
0.000840668
0.000858867
0.000877022
0.000895127
0.000913179
0.000931174
0.000949108
0.000966975
0.000984772
0.00100249
0.00102013
0.00103769
0.00105516
0.00107252
0.00108979
0.00110695
0.001124
0.00114093
0.00115773
0.0011744
0.00119093
0.00120732
0.00122355
0.00123963
0.00125555
0.00127129
0.00128685
0.00130223
0.00131742
0.00133241
0.00134718
0.00136175
0.00137609
0.00139021
0.00140409
0.00141772
0.00143111
0.00144424
0.00145711
0.0014697
0.00148201
0.00149404
0.00150578
0.00151722
0.00152836
0.00153918
0.00154969
0.00155987
0.00156973
0.00157925
0.00158843
0.00159726
0.00160575
0.00161388
0.00162165
0.00162906
0.0016361
0.00164277
0.00164906
0.00165498
0.00166051
0.00166567
0.00167044
0.00167482
0.00167881
0.00168241
0.00168563
0.00168845
0.00169088
0.00169291
0.00169456
0.00169581
0.00169668
0.00169716
0.00169724
0.00169695
0.00169627
0.00169521
0.00169376
0.00169195
0.00168976
0.0016872
0.00168428
0.001681
0.00167735
0.00167336
0.00166901
0.00166432
0.0016593
0.00165393
0.00164824
0.00164223
0.0016359
0.00162925
0.0016223
0.00161504
0.0016075
0.00159966
0.00159154
0.00158314
0.00157447
0.00156554
0.00155635
0.00154691
0.00153722
0.00152729
0.00151713
0.00150675
0.00149614
0.00148532
0.00147429
0.00146306
0.00145163
0.00144002
0.00142822
0.00141625
0.0014041
0.00139179
0.00137931
0.00136669
0.00135391
0.00134099
0.00132794
0.00131475
0.00130144
0.001288
0.00127444
0.00126078
0.001247
0.00123313
0.00121915
0.00120509
0.00119093
0.00117669
0.00116236
0.00114796
0.00113349
0.00111895
0.00110434
0.00108967
0.00107494
0.00106016
0.00104532
0.00103044
0.00101551
0.00100053
0.000985519
0.000970468
0.000955383
0.000940265
0.000925118
0.000909943
0.000894742
0.000879519
0.000864274
0.00084901
0.000833729
0.000818432
0.000803121
0.000787798
0.000772464
0.000757121
0.00074177
0.000726412
0.000711048
0.000695681
0.000680309
0.000664936
0.000649561
0.000634186
0.000618812
0.000603438
0.000588066
0.000572697
0.00055733
0.000541967
0.000526609
0.000511254
0.000495905
0.00048056
0.000465222
0.000449888
0.000434561
0.00041924
0.000403925
0.000388616
0.000373314
0.000358017
0.000342728
0.000327444
0.000312167
0.000296895
0.00028163
0.000266371
0.000251117
0.000235868
0.000220625
0.000205387
0.000190153
0.000174924
0.000159699
0.000144478
0.00012926
0.000114045
9.88336e-05
8.36243e-05
6.8417e-05
5.32114e-05
3.80072e-05
2.28039e-05
7.60125e-06
2.76923e-05
8.30775e-05
0.000138465
0.000193855
0.000249251
0.000304652
0.000360061
0.000415478
0.000470904
0.000526341
0.000581789
0.000637249
0.000692722
0.000748208
0.000803708
0.000859221
0.000914748
0.000970289
0.00102584
0.00108141
0.00113699
0.00119258
0.00124818
0.00130379
0.0013594
0.00141502
0.00147064
0.00152626
0.00158187
0.00163748
0.00169308
0.00174866
0.00180422
0.00185976
0.00191527
0.00197074
0.00202618
0.00208156
0.00213689
0.00219217
0.00224737
0.00230249
0.00235753
0.00241248
0.00246732
0.00252205
0.00257665
0.00263111
0.00268543
0.00273959
0.00279358
0.00284739
0.002901
0.00295439
0.00300756
0.00306049
0.00311316
0.00316556
0.00321768
0.00326948
0.00332097
0.00337211
0.0034229
0.00347331
0.00352333
0.00357294
0.00362211
0.00367082
0.00371906
0.00376681
0.00381405
0.00386075
0.00390689
0.00395246
0.00399742
0.00404177
0.00408547
0.00412851
0.00417086
0.00421251
0.00425342
0.00429359
0.00433298
0.00437159
0.00440937
0.00444633
0.00448242
0.00451764
0.00455197
0.00458538
0.00461786
0.00464939
0.00467995
0.00470952
0.00473808
0.00476563
0.00479214
0.0048176
0.00484199
0.00486531
0.00488753
0.00490866
0.00492867
0.00494755
0.00496531
0.00498192
0.00499738
0.00501169
0.00502484
0.00503682
0.00504763
0.00505727
0.00506573
0.00507302
0.00507913
0.00508407
0.00508783
0.00509043
0.00509185
0.00509212
0.00509122
0.00508918
0.00508599
0.00508167
0.00507622
0.00506965
0.00506197
0.0050532
0.00504334
0.00503241
0.00502042
0.00500738
0.00499331
0.00497822
0.00496213
0.00494505
0.004927
0.004908
0.00488806
0.00486719
0.00484543
0.00482278
0.00479926
0.00477489
0.00474969
0.00472368
0.00469688
0.0046693
0.00464097
0.0046119
0.00458211
0.00455162
0.00452046
0.00448863
0.00445616
0.00442307
0.00438937
0.00435509
0.00432024
0.00428484
0.0042489
0.00421246
0.00417551
0.00413809
0.00410021
0.00406188
0.00402312
0.00398395
0.00394438
0.00390443
0.00386411
0.00382344
0.00378244
0.00374111
0.00369948
0.00365755
0.00361534
0.00357287
0.00353014
0.00348716
0.00344396
0.00340053
0.0033569
0.00331308
0.00326906
0.00322487
0.00318052
0.00313601
0.00309135
0.00304656
0.00300164
0.00295659
0.00291144
0.00286618
0.00282082
0.00277538
0.00272985
0.00268425
0.00263858
0.00259284
0.00254705
0.0025012
0.00245531
0.00240938
0.0023634
0.0023174
0.00227137
0.00222532
0.00217924
0.00213315
0.00208704
0.00204093
0.00199481
0.00194868
0.00190256
0.00185643
0.00181031
0.0017642
0.00171809
0.00167199
0.0016259
0.00157982
0.00153376
0.00148771
0.00144168
0.00139566
0.00134966
0.00130368
0.00125771
0.00121177
0.00116584
0.00111993
0.00107405
0.00102818
0.000982326
0.000936494
0.00089068
0.000844884
0.000799106
0.000753345
0.0007076
0.00066187
0.000616156
0.000570455
0.000524768
0.000479093
0.00043343
0.000387777
0.000342133
0.000296498
0.000250871
0.000205249
0.000159633
0.000114021
6.84112e-05
2.28035e-05
4.6153e-05
0.00013846
0.000230771
0.000323087
0.000415411
0.000507746
0.000600092
0.000692452
0.000784829
0.000877222
0.000969635
0.00106207
0.00115452
0.001247
0.0013395
0.00143202
0.00152457
0.00161713
0.00170972
0.00180234
0.00189497
0.00198762
0.00208029
0.00217297
0.00226566
0.00235836
0.00245106
0.00254376
0.00263646
0.00272914
0.00282181
0.00291445
0.00300706
0.00309963
0.00319215
0.00328462
0.00337701
0.00346933
0.00356156
0.00365369
0.0037457
0.00383758
0.00392933
0.00402091
0.00411233
0.00420355
0.00429456
0.00438535
0.0044759
0.00456618
0.00465618
0.00474587
0.00483523
0.00492424
0.00501287
0.0051011
0.00518891
0.00527626
0.00536313
0.0054495
0.00553533
0.00562059
0.00570526
0.0057893
0.00587268
0.00595537
0.00603735
0.00611856
0.00619899
0.0062786
0.00635734
0.0064352
0.00651213
0.00658809
0.00666306
0.00673699
0.00680985
0.00688161
0.00695222
0.00702165
0.00708987
0.00715684
0.00722252
0.00728688
0.00734988
0.00741149
0.00747168
0.0075304
0.00758763
0.00764334
0.00769749
0.00775006
0.00780101
0.00785031
0.00789794
0.00794386
0.00798806
0.00803051
0.00807118
0.00811006
0.00814712
0.00818233
0.0082157
0.00824718
0.00827678
0.00830448
0.00833026
0.00835411
0.00837603
0.008396
0.00841402
0.00843008
0.00844419
0.00845634
0.00846652
0.00847475
0.00848102
0.00848534
0.00848771
0.00848815
0.00848665
0.00848324
0.00847792
0.0084707
0.0084616
0.00845065
0.00843784
0.0084232
0.00840676
0.00838853
0.00836853
0.00834678
0.00832331
0.00829815
0.00827131
0.00824283
0.00821273
0.00818104
0.00814778
0.00811299
0.0080767
0.00803892
0.00799971
0.00795907
0.00791705
0.00787368
0.00782899
0.007783
0.00773576
0.00768729
0.00763762
0.00758679
0.00753483
0.00748176
0.00742762
0.00737245
0.00731627
0.00725911
0.00720101
0.00714199
0.00708208
0.00702131
0.00695972
0.00689733
0.00683417
0.00677027
0.00670566
0.00664035
0.00657439
0.00650778
0.00644057
0.00637278
0.00630442
0.00623553
0.00616613
0.00609623
0.00602587
0.00595506
0.00588383
0.00581219
0.00574017
0.00566779
0.00559506
0.005522
0.00544863
0.00537497
0.00530104
0.00522684
0.00515241
0.00507774
0.00500286
0.00492778
0.00485251
0.00477707
0.00470147
0.00462572
0.00454984
0.00447383
0.0043977
0.00432146
0.00424514
0.00416872
0.00409223
0.00401567
0.00393904
0.00386237
0.00378564
0.00370888
0.00363208
0.00355526
0.00347842
0.00340156
0.00332469
0.00324781
0.00317093
0.00309405
0.00301718
0.00294032
0.00286347
0.00278663
0.00270982
0.00263302
0.00255625
0.0024795
0.00240277
0.00232608
0.00224941
0.00217277
0.00209617
0.00201959
0.00194305
0.00186654
0.00179005
0.00171361
0.00163719
0.0015608
0.00148445
0.00140812
0.00133182
0.00125556
0.00117932
0.0011031
0.00102691
0.000950744
0.0008746
0.000798476
0.000722371
0.000646284
0.000570213
0.000494156
0.000418111
0.000342076
0.00026605
0.000190031
0.000114017
3.80053e-05
6.46126e-05
0.00019384
0.000323071
0.000452311
0.000581562
0.000710827
0.000840109
0.000969411
0.00109874
0.00122808
0.00135746
0.00148686
0.0016163
0.00174577
0.00187526
0.0020048
0.00213436
0.00226396
0.00239358
0.00252324
0.00265293
0.00278265
0.00291238
0.00304214
0.00317192
0.0033017
0.00343149
0.00356128
0.00369106
0.00382083
0.00395057
0.00408028
0.00420994
0.00433955
0.00446909
0.00459856
0.00472793
0.00485719
0.00498632
0.00511532
0.00524416
0.00537282
0.00550128
0.00562952
0.00575752
0.00588526
0.00601271
0.00613984
0.00626663
0.00639305
0.00651908
0.00664468
0.00676981
0.00689446
0.00701858
0.00714214
0.0072651
0.00738744
0.0075091
0.00763005
0.00775025
0.00786966
0.00798824
0.00810594
0.00822272
0.00833854
0.00845334
0.00856709
0.00867974
0.00879123
0.00890153
0.00901058
0.00911833
0.00922473
0.00932973
0.00943329
0.00953535
0.00963585
0.00973476
0.00983202
0.00992757
0.0100214
0.0101134
0.0102035
0.0102918
0.0103781
0.0104624
0.0105447
0.0106248
0.0107029
0.0107787
0.0108523
0.0109237
0.0109928
0.0110595
0.0111238
0.0111857
0.0112452
0.0113022
0.0113566
0.0114085
0.0114579
0.0115046
0.0115487
0.0115902
0.0116289
0.0116651
0.0116985
0.0117292
0.0117571
0.0117824
0.0118049
0.0118246
0.0118416
0.0118559
0.0118674
0.0118762
0.0118822
0.0118855
0.0118861
0.011884
0.0118792
0.0118717
0.0118616
0.0118489
0.0118335
0.0118155
0.011795
0.011772
0.0117464
0.0117184
0.0116879
0.011655
0.0116197
0.0115821
0.0115422
0.0115001
0.0114556
0.011409
0.0113603
0.0113094
0.0112565
0.0112016
0.0111446
0.0110858
0.011025
0.0109624
0.010898
0.0108318
0.0107639
0.0106943
0.0106231
0.0105503
0.010476
0.0104001
0.0103228
0.0102441
0.0101641
0.0100827
0.01
0.00991611
0.009831
0.00974473
0.00965735
0.00956888
0.00947938
0.00938888
0.00929742
0.00920503
0.00911175
0.00901762
0.00892267
0.00882694
0.00873046
0.00863326
0.00853538
0.00843684
0.00833768
0.00823793
0.00813761
0.00803675
0.00793539
0.00783354
0.00773123
0.00762849
0.00752535
0.00742182
0.00731792
0.00721369
0.00710913
0.00700428
0.00689915
0.00679376
0.00668813
0.00658227
0.00647621
0.00636995
0.00626352
0.00615692
0.00605018
0.00594331
0.00583632
0.00572922
0.00562202
0.00551474
0.00540738
0.00529996
0.00519248
0.00508496
0.0049774
0.00486981
0.0047622
0.00465457
0.00454693
0.0044393
0.00433166
0.00422404
0.00411643
0.00400883
0.00390126
0.00379371
0.0036862
0.00357871
0.00347126
0.00336385
0.00325647
0.00314913
0.00304184
0.00293459
0.00282738
0.00272022
0.0026131
0.00250603
0.002399
0.00229202
0.00218508
0.00207818
0.00197133
0.00186452
0.00175774
0.00165101
0.00154431
0.00143764
0.00133101
0.00122441
0.00111784
0.0010113
0.000904776
0.000798279
0.000691801
0.00058534
0.000478895
0.000372461
0.000266037
0.000159619
5.3206e-05
8.30706e-05
0.000249214
0.000415364
0.000581524
0.000747699
0.000913892
0.00108011
0.00124635
0.00141262
0.00157892
0.00174526
0.00191163
0.00207805
0.0022445
0.002411
0.00257754
0.00274412
0.00291075
0.00307741
0.00324412
0.00341087
0.00357765
0.00374446
0.0039113
0.00407816
0.00424503
0.00441192
0.0045788
0.00474568
0.00491253
0.00507936
0.00524614
0.00541287
0.00557954
0.00574611
0.00591259
0.00607895
0.00624517
0.00641123
0.00657711
0.00674279
0.00690825
0.00707345
0.00723837
0.00740298
0.00756726
0.00773116
0.00789466
0.00805773
0.00822032
0.00838241
0.00854394
0.00870489
0.00886521
0.00902485
0.00918377
0.00934193
0.00949928
0.00965577
0.00981135
0.00996596
0.0101196
0.0102721
0.0104235
0.0105737
0.0107227
0.0108704
0.0110167
0.0111616
0.0113051
0.011447
0.0115873
0.0117259
0.0118628
0.0119979
0.0121311
0.0122624
0.0123917
0.012519
0.0126441
0.012767
0.0128877
0.0130061
0.0131221
0.0132356
0.0133467
0.0134551
0.013561
0.0136641
0.0137646
0.0138622
0.0139569
0.0140487
0.0141376
0.0142234
0.0143062
0.0143859
0.0144624
0.0145357
0.0146057
0.0146725
0.014736
0.0147961
0.0148529
0.0149062
0.0149561
0.0150026
0.0150455
0.015085
0.015121
0.0151534
0.0151824
0.0152078
0.0152296
0.015248
0.0152628
0.015274
0.0152818
0.015286
0.0152868
0.015284
0.0152778
0.0152682
0.0152552
0.0152387
0.0152189
0.0151958
0.0151694
0.0151397
0.0151068
0.0150707
0.0150314
0.0149891
0.0149437
0.0148953
0.0148439
0.0147896
0.0147324
0.0146725
0.0146097
0.0145443
0.0144761
0.0144054
0.0143321
0.0142564
0.0141782
0.0140976
0.0140147
0.0139295
0.0138421
0.0137526
0.013661
0.0135673
0.0134717
0.0133741
0.0132746
0.0131734
0.0130704
0.0129657
0.0128593
0.0127513
0.0126418
0.0125309
0.0124184
0.0123046
0.0121895
0.0120731
0.0119554
0.0118366
0.0117166
0.0115955
0.0114734
0.0113502
0.0112261
0.0111011
0.0109752
0.0108484
0.0107209
0.0105926
0.0104636
0.0103338
0.0102035
0.0100725
0.0099409
0.00980876
0.00967611
0.00954296
0.00940934
0.00927529
0.00914083
0.00900599
0.00887079
0.00873525
0.00859941
0.00846328
0.00832688
0.00819024
0.00805337
0.0079163
0.00777904
0.00764161
0.00750402
0.0073663
0.00722846
0.0070905
0.00695245
0.00681432
0.00667612
0.00653787
0.00639956
0.00626122
0.00612285
0.00598446
0.00584606
0.00570766
0.00556927
0.00543088
0.00529252
0.00515418
0.00501586
0.00487758
0.00473934
0.00460114
0.00446299
0.00432488
0.00418682
0.00404882
0.00391087
0.00377297
0.00363513
0.00349735
0.00335963
0.00322196
0.00308436
0.00294681
0.00280932
0.00267188
0.0025345
0.00239717
0.00225989
0.00212266
0.00198548
0.00184834
0.00171125
0.00157419
0.00143718
0.0013002
0.00116325
0.00102632
0.000889429
0.000752555
0.000615701
0.000478862
0.000342036
0.000205218
6.84054e-05
0.000101527
0.000304582
0.000507646
0.000710722
0.000913817
0.00111693
0.00132008
0.00152326
0.00172647
0.00192972
0.00213302
0.00233636
0.00253975
0.00274319
0.00294669
0.00315024
0.00335384
0.0035575
0.0037612
0.00396496
0.00416877
0.00437262
0.00457651
0.00478043
0.00498439
0.00518836
0.00539234
0.00559633
0.00580031
0.00600427
0.00620819
0.00641207
0.00661588
0.00681961
0.00702324
0.00722674
0.00743011
0.00763331
0.00783632
0.00803911
0.00824166
0.00844393
0.0086459
0.00884753
0.00904878
0.00924962
0.00945002
0.00964993
0.0098493
0.0100481
0.0102463
0.0104438
0.0106406
0.0108366
0.0110318
0.0112262
0.0114196
0.011612
0.0118034
0.0119936
0.0121827
0.0123705
0.0125571
0.0127422
0.012926
0.0131082
0.0132888
0.0134678
0.013645
0.0138205
0.013994
0.0141656
0.0143352
0.0145026
0.0146678
0.0148308
0.0149914
0.0151496
0.0153053
0.0154583
0.0156087
0.0157564
0.0159012
0.0160431
0.016182
0.0163178
0.0164505
0.01658
0.0167062
0.0168291
0.0169485
0.0170644
0.0171767
0.0172854
0.0173904
0.0174917
0.0175892
0.0176828
0.0177724
0.0178581
0.0179398
0.0180175
0.018091
0.0181604
0.0182257
0.0182867
0.0183435
0.0183961
0.0184444
0.0184884
0.0185281
0.0185634
0.0185945
0.0186212
0.0186436
0.0186617
0.0186754
0.0186849
0.01869
0.0186909
0.0186875
0.0186799
0.0186681
0.0186521
0.0186319
0.0186077
0.0185793
0.018547
0.0185106
0.0184703
0.0184261
0.0183781
0.0183262
0.0182706
0.0182114
0.0181485
0.018082
0.018012
0.0179386
0.0178618
0.0177817
0.0176984
0.0176118
0.0175221
0.0174294
0.0173337
0.0172351
0.0171337
0.0170295
0.0169226
0.016813
0.0167009
0.0165863
0.0164693
0.0163499
0.0162283
0.0161044
0.0159784
0.0158503
0.0157202
0.0155881
0.0154542
0.0153184
0.0151809
0.0150417
0.0149009
0.0147585
0.0146146
0.0144692
0.0143225
0.0141744
0.014025
0.0138744
0.0137227
0.0135698
0.0134158
0.0132608
0.0131049
0.012948
0.0127902
0.0126316
0.0124722
0.012312
0.0121511
0.0119896
0.0118274
0.0116646
0.0115012
0.0113373
0.0111729
0.011008
0.0108428
0.0106771
0.010511
0.0103445
0.0101778
0.0100108
0.00984343
0.00967586
0.00950806
0.00934006
0.00917187
0.00900351
0.008835
0.00866636
0.00849761
0.00832876
0.00815983
0.00799082
0.00782176
0.00765266
0.00748352
0.00731436
0.00714519
0.00697602
0.00680686
0.00663771
0.00646859
0.00629949
0.00613043
0.00596141
0.00579244
0.00562353
0.00545466
0.00528586
0.00511712
0.00494844
0.00477983
0.00461129
0.00444282
0.00427442
0.0041061
0.00393784
0.00376966
0.00360154
0.0034335
0.00326552
0.00309761
0.00292977
0.00276198
0.00259426
0.0024266
0.002259
0.00209144
0.00192394
0.00175648
0.00158906
0.00142169
0.00125434
0.00108703
0.000919752
0.000752492
0.000585252
0.000418026
0.000250811
8.36031e-05
0.00011998
0.000359943
0.000599915
0.000839902
0.00107991
0.00131995
0.00156002
0.00180013
0.00204028
0.00228048
0.00252073
0.00276104
0.0030014
0.00324183
0.00348233
0.00372288
0.0039635
0.00420419
0.00444494
0.00468576
0.00492663
0.00516755
0.00540853
0.00564954
0.00589059
0.00613167
0.00637277
0.00661387
0.00685497
0.00709604
0.00733707
0.00757806
0.00781896
0.00805978
0.00830048
0.00854104
0.00878144
0.00902164
0.00926162
0.00950135
0.0097408
0.00997992
0.0102187
0.0104571
0.010695
0.0109324
0.0111694
0.0114057
0.0116414
0.0118765
0.0121108
0.0123444
0.0125771
0.0128089
0.0130397
0.0132695
0.0134982
0.0137257
0.0139521
0.014177
0.0144007
0.0146228
0.0148434
0.0150624
0.0152797
0.0154952
0.0157089
0.0159206
0.0161302
0.0163377
0.016543
0.016746
0.0169465
0.0171446
0.0173401
0.0175329
0.0177229
0.01791
0.0180942
0.0182753
0.0184532
0.0186279
0.0187992
0.0189671
0.0191314
0.0192921
0.0194491
0.0196023
0.0197517
0.019897
0.0200383
0.0201754
0.0203083
0.0204369
0.0205612
0.020681
0.0207963
0.0209071
0.0210132
0.0211146
0.0212112
0.0213031
0.0213901
0.0214722
0.0215494
0.0216216
0.0216888
0.0217509
0.021808
0.0218601
0.021907
0.0219488
0.0219855
0.0220171
0.0220436
0.0220649
0.0220811
0.0220923
0.0220983
0.0220993
0.0220953
0.0220862
0.0220722
0.0220532
0.0220293
0.0220005
0.0219669
0.0219286
0.0218855
0.0218378
0.0217854
0.0217285
0.0216671
0.0216013
0.0215311
0.0214566
0.0213779
0.0212951
0.0212082
0.0211173
0.0210224
0.0209238
0.0208213
0.0207152
0.0206055
0.0204922
0.0203755
0.0202555
0.0201321
0.0200056
0.019876
0.0197433
0.0196077
0.0194693
0.019328
0.0191841
0.0190375
0.0188884
0.0187369
0.018583
0.0184268
0.0182683
0.0181077
0.0179451
0.0177804
0.0176139
0.0174454
0.0172752
0.0171033
0.0169297
0.0167546
0.016578
0.0163999
0.0162204
0.0160396
0.0158575
0.0156742
0.0154898
0.0153043
0.0151177
0.0149301
0.0147416
0.0145522
0.014362
0.014171
0.0139792
0.0137867
0.0135936
0.0133998
0.0132055
0.0130105
0.0128151
0.0126192
0.0124229
0.0122261
0.012029
0.0118315
0.0116337
0.0114357
0.0112373
0.0110387
0.0108399
0.0106409
0.0104417
0.0102423
0.0100429
0.00984328
0.0096436
0.00944384
0.00924401
0.00904413
0.00884422
0.00864428
0.00844433
0.00824438
0.00804444
0.00784452
0.00764463
0.00744477
0.00724496
0.0070452
0.0068455
0.00664586
0.00644628
0.00624678
0.00604735
0.005848
0.00564873
0.00544955
0.00525044
0.00505143
0.00485249
0.00465364
0.00445488
0.0042562
0.00405761
0.00385909
0.00366066
0.0034623
0.00326402
0.00306581
0.00286767
0.0026696
0.00247159
0.00227364
0.00207574
0.00187789
0.00168009
0.00148233
0.00128461
0.00108692
0.000889264
0.000691626
0.000494006
0.000296398
9.87986e-05
0.00013843
0.000415294
0.000692168
0.000969061
0.00124598
0.00152293
0.00179992
0.00207695
0.00235404
0.00263118
0.00290839
0.00318566
0.003463
0.00374041
0.0040179
0.00429546
0.00457311
0.00485082
0.00512862
0.00540649
0.00568443
0.00596243
0.0062405
0.00651861
0.00679678
0.00707497
0.00735319
0.00763142
0.00790964
0.00818785
0.00846601
0.00874412
0.00902214
0.00930007
0.00957786
0.0098555
0.010133
0.0104102
0.0106872
0.0109639
0.0112403
0.0115163
0.0117919
0.012067
0.0123417
0.0126158
0.0128893
0.0131621
0.0134343
0.0137056
0.0139762
0.0142458
0.0145145
0.0147821
0.0150486
0.0153139
0.015578
0.0158407
0.0161021
0.0163619
0.0166201
0.0168766
0.0171314
0.0173843
0.0176353
0.0178842
0.0181309
0.0183754
0.0186175
0.0188572
0.0190943
0.0193288
0.0195604
0.0197892
0.020015
0.0202377
0.0204572
0.0206734
0.0208861
0.0210954
0.0213009
0.0215027
0.0217006
0.0218946
0.0220845
0.0222702
0.0224516
0.0226286
0.0228011
0.022969
0.0231322
0.0232907
0.0234442
0.0235928
0.0237364
0.0238748
0.0240081
0.024136
0.0242586
0.0243757
0.0244874
0.0245935
0.024694
0.0247889
0.024878
0.0249614
0.025039
0.0251108
0.0251768
0.0252368
0.025291
0.0253393
0.0253817
0.0254181
0.0254486
0.0254732
0.0254919
0.0255047
0.0255117
0.0255128
0.025508
0.0254975
0.0254812
0.0254592
0.0254315
0.0253982
0.0253593
0.0253149
0.0252651
0.0252098
0.0251493
0.0250834
0.0250124
0.0249363
0.0248551
0.024769
0.024678
0.0245822
0.0244818
0.0243766
0.024267
0.0241529
0.0240345
0.0239119
0.023785
0.0236541
0.0235193
0.0233805
0.023238
0.0230918
0.022942
0.0227887
0.022632
0.022472
0.0223088
0.0221425
0.0219732
0.021801
0.0216259
0.0214481
0.0212676
0.0210846
0.0208991
0.0207112
0.0205211
0.0203287
0.0201341
0.0199376
0.019739
0.0195386
0.0193363
0.0191323
0.0189267
0.0187194
0.0185106
0.0183004
0.0180887
0.0178758
0.0176616
0.0174462
0.0172296
0.017012
0.0167933
0.0165737
0.0163532
0.0161318
0.0159096
0.0156866
0.0154629
0.0152385
0.0150136
0.014788
0.0145619
0.0143352
0.0141081
0.0138806
0.0136526
0.0134243
0.0131957
0.0129668
0.0127375
0.0125081
0.0122784
0.0120485
0.0118185
0.0115882
0.0113579
0.0111275
0.0108969
0.0106663
0.0104356
0.0102049
0.0099742
0.00974346
0.00951272
0.009282
0.00905129
0.00882063
0.00859001
0.00835944
0.00812893
0.00789849
0.00766812
0.00743783
0.00720763
0.00697751
0.00674748
0.00651755
0.00628772
0.00605798
0.00582834
0.0055988
0.00536936
0.00514002
0.00491078
0.00468164
0.00445259
0.00422363
0.00399476
0.00376599
0.00353729
0.00330868
0.00308014
0.00285168
0.00262328
0.00239495
0.00216668
0.00193846
0.00171029
0.00148216
0.00125407
0.00102601
0.000797982
0.000569972
0.000341978
0.000113992
0.000156876
0.000470633
0.000784403
0.00109819
0.00141201
0.00172587
0.00203978
0.00235373
0.00266775
0.00298183
0.00329598
0.00361021
0.00392452
0.00423891
0.00455339
0.00486797
0.00518263
0.00549738
0.00581222
0.00612715
0.00644217
0.00675726
0.00707242
0.00738764
0.00770292
0.00801825
0.0083336
0.00864897
0.00896434
0.00927969
0.009595
0.00991026
0.0102254
0.0105405
0.0108554
0.0111701
0.0114847
0.011799
0.012113
0.0124267
0.0127401
0.013053
0.0133655
0.0136775
0.0139889
0.0142997
0.0146099
0.0149193
0.0152279
0.0155356
0.0158424
0.0161482
0.0164529
0.0167564
0.0170587
0.0173596
0.0176591
0.0179572
0.0182536
0.0185483
0.0188412
0.0191322
0.0194212
0.0197081
0.0199928
0.0202752
0.0205552
0.0208326
0.0211073
0.0213793
0.0216483
0.0219143
0.0221772
0.0224368
0.0226931
0.0229458
0.0231949
0.0234402
0.0236817
0.0239191
0.0241524
0.0243814
0.0246061
0.0248262
0.0250417
0.0252525
0.0254584
0.0256593
0.0258551
0.0260457
0.0262309
0.0264108
0.0265851
0.0267538
0.0269167
0.0270739
0.0272251
0.0273703
0.0275094
0.0276424
0.0277691
0.0278895
0.0280036
0.0281112
0.0282124
0.028307
0.0283951
0.0284766
0.0285514
0.0286195
0.028681
0.0287357
0.0287837
0.0288251
0.0288596
0.0288875
0.0289086
0.0289231
0.0289309
0.028932
0.0289265
0.0289145
0.0288959
0.0288708
0.0288393
0.0288014
0.0287572
0.0287067
0.02865
0.0285872
0.0285184
0.0284435
0.0283628
0.0282763
0.0281841
0.0280863
0.0279829
0.0278741
0.0277599
0.0276405
0.027516
0.0273865
0.027252
0.0271127
0.0269686
0.02682
0.0266669
0.0265093
0.0263475
0.0261815
0.0260115
0.0258375
0.0256596
0.025478
0.0252928
0.025104
0.0249118
0.0247163
0.0245177
0.0243159
0.0241111
0.0239034
0.0236929
0.0234797
0.0232639
0.0230456
0.0228249
0.0226019
0.0223766
0.0221492
0.0219198
0.0216883
0.021455
0.0212199
0.0209831
0.0207446
0.0205046
0.020263
0.0200201
0.0197758
0.0195302
0.0192834
0.0190354
0.0187863
0.0185362
0.0182852
0.0180332
0.0177803
0.0175267
0.0172723
0.0170171
0.0167614
0.016505
0.016248
0.0159905
0.0157325
0.0154741
0.0152153
0.0149561
0.0146965
0.0144367
0.0141765
0.0139161
0.0136555
0.0133947
0.0131337
0.0128726
0.0126114
0.0123501
0.0120887
0.0118272
0.0115657
0.0113041
0.0110426
0.0107811
0.0105195
0.010258
0.00999659
0.00973519
0.00947385
0.00921259
0.0089514
0.0086903
0.0084293
0.00816838
0.00790757
0.00764687
0.00738627
0.00712579
0.00686542
0.00660516
0.00634501
0.00608498
0.00582507
0.00556526
0.00530557
0.00504599
0.00478651
0.00452714
0.00426787
0.00400869
0.0037496
0.00349061
0.0032317
0.00297286
0.0027141
0.0024554
0.00219677
0.00193819
0.00167967
0.00142118
0.00116273
0.000904318
0.000645924
0.000387548
0.000129181
0.000175319
0.000525961
0.000876617
0.0012273
0.00157801
0.00192877
0.00227958
0.00263045
0.00298139
0.0033324
0.00368349
0.00403468
0.00438595
0.00473733
0.0050888
0.00544038
0.00579206
0.00614385
0.00649574
0.00684773
0.00719982
0.00755201
0.00790427
0.00825662
0.00860903
0.00896149
0.00931399
0.00966652
0.0100191
0.0103716
0.0107241
0.0110765
0.0114288
0.011781
0.0121331
0.012485
0.0128367
0.0131881
0.0135392
0.0138899
0.0142403
0.0145902
0.0149397
0.0152885
0.0156368
0.0159843
0.0163312
0.0166772
0.0170223
0.0173665
0.0177096
0.0180516
0.0183924
0.018732
0.0190701
0.0194067
0.0197418
0.0200752
0.0204068
0.0207365
0.0210642
0.0213898
0.0217132
0.0220342
0.0223528
0.0226687
0.022982
0.0232924
0.0235999
0.0239042
0.0242053
0.024503
0.0247973
0.0250878
0.0253746
0.0256575
0.0259363
0.0262109
0.0264812
0.026747
0.0270081
0.0272645
0.027516
0.0277624
0.0280037
0.0282396
0.0284701
0.0286951
0.0289143
0.0291277
0.0293351
0.0295364
0.0297316
0.0299205
0.0301029
0.0302788
0.0304481
0.0306107
0.0307664
0.0309153
0.0310571
0.0311919
0.0313196
0.0314401
0.0315533
0.0316592
0.0317578
0.0318489
0.0319327
0.0320089
0.0320776
0.0321389
0.0321925
0.0322387
0.0322773
0.0323084
0.032332
0.0323481
0.0323567
0.0323579
0.0323517
0.0323381
0.0323171
0.0322889
0.0322535
0.032211
0.0321613
0.0321047
0.0320411
0.0319706
0.0318934
0.0318095
0.0317191
0.0316221
0.0315187
0.031409
0.0312932
0.0311713
0.0310433
0.0309096
0.0307701
0.0306249
0.0304743
0.0303182
0.0301569
0.0299904
0.0298189
0.0296424
0.0294612
0.0292753
0.0290849
0.0288901
0.0286909
0.0284876
0.0282802
0.0280689
0.0278538
0.0276349
0.0274125
0.0271866
0.0269574
0.026725
0.0264894
0.0262508
0.0260093
0.025765
0.025518
0.0252684
0.0250164
0.0247619
0.0245052
0.0242463
0.0239852
0.0237222
0.0234573
0.0231905
0.0229219
0.0226517
0.02238
0.0221067
0.021832
0.0215559
0.0212785
0.021
0.0207202
0.0204394
0.0201576
0.0198749
0.0195912
0.0193067
0.0190214
0.0187354
0.0184487
0.0181613
0.0178734
0.017585
0.017296
0.0170066
0.0167168
0.0164266
0.016136
0.0158452
0.0155541
0.0152627
0.0149711
0.0146794
0.0143875
0.0140954
0.0138033
0.0135111
0.0132188
0.0129264
0.0126341
0.0123417
0.0120494
0.011757
0.0114647
0.0111725
0.0108803
0.0105882
0.0102962
0.0100042
0.0097124
0.00942066
0.00912904
0.00883753
0.00854615
0.00825489
0.00796375
0.00767274
0.00738186
0.00709111
0.00680049
0.00651
0.00621964
0.0059294
0.00563928
0.00534929
0.00505941
0.00476965
0.00447999
0.00419044
0.00390099
0.00361164
0.00332237
0.00303318
0.00274407
0.00245503
0.00216605
0.00187713
0.00158826
0.00129943
0.00101063
0.000721859
0.000433108
0.000144368
0.000193756
0.000581273
0.000968807
0.00135637
0.00174397
0.00213162
0.00251932
0.0029071
0.00329495
0.00368289
0.00407092
0.00445905
0.00484729
0.00523564
0.0056241
0.00601269
0.00640139
0.00679021
0.00717916
0.00756822
0.00795739
0.00834667
0.00873605
0.00912552
0.00951508
0.00990469
0.0102944
0.0106841
0.0110738
0.0114635
0.0118532
0.0122428
0.0126323
0.0130217
0.013411
0.0138001
0.0141889
0.0145775
0.0149657
0.0153535
0.015741
0.0161279
0.0165144
0.0169002
0.0172853
0.0176697
0.0180533
0.018436
0.0188178
0.0191984
0.019578
0.0199563
0.0203333
0.0207089
0.021083
0.0214554
0.0218261
0.022195
0.0225619
0.0229267
0.0232893
0.0236496
0.0240075
0.0243627
0.0247153
0.025065
0.0254117
0.0257552
0.0260955
0.0264324
0.0267657
0.0270953
0.027421
0.0277426
0.0280601
0.0283733
0.028682
0.028986
0.0292852
0.0295795
0.0298686
0.0301525
0.030431
0.0307038
0.030971
0.0312323
0.0314875
0.0317366
0.0319793
0.0322156
0.0324453
0.0326683
0.0328844
0.0330935
0.0332956
0.0334904
0.0336778
0.0338578
0.0340303
0.0341951
0.0343522
0.0345015
0.0346428
0.0347762
0.0349016
0.0350188
0.0351279
0.0352288
0.0353214
0.0354058
0.0354818
0.0355495
0.0356089
0.0356599
0.0357026
0.0357369
0.0357629
0.0357806
0.03579
0.0357912
0.0357841
0.0357689
0.0357456
0.0357142
0.0356749
0.0356276
0.0355725
0.0355096
0.035439
0.0353609
0.0352752
0.0351821
0.0350818
0.0349742
0.0348596
0.034738
0.0346096
0.0344744
0.0343326
0.0341844
0.0340297
0.0338689
0.0337019
0.033529
0.0333503
0.0331658
0.0329758
0.0327803
0.0325796
0.0323737
0.0321628
0.031947
0.0317264
0.0315012
0.0312716
0.0310376
0.0307994
0.0305571
0.0303108
0.0300608
0.029807
0.0295496
0.0292889
0.0290247
0.0287574
0.028487
0.0282137
0.0279375
0.0276585
0.0273769
0.0270928
0.0268063
0.0265174
0.0262264
0.0259332
0.025638
0.0253409
0.025042
0.0247413
0.024439
0.0241351
0.0238297
0.0235229
0.0232147
0.0229053
0.0225948
0.0222831
0.0219703
0.0216566
0.0213419
0.0210264
0.0207101
0.020393
0.0200753
0.0197569
0.0194379
0.0191184
0.0187983
0.0184779
0.018157
0.0178357
0.0175141
0.0171923
0.0168701
0.0165478
0.0162252
0.0159025
0.0155796