/*--------------------------------*- C++ -*----------------------------------*\
| =========                 |                                                 |
| \\      /  F ield         | OpenFOAM: The Open Source CFD Toolbox           |
|  \\    /   O peration     | Version:  v2012                                 |
|   \\  /    A nd           | Website:  www.openfoam.com                      |
|    \\/     M anipulation  |                                                 |
\*---------------------------------------------------------------------------*/
FoamFile
{
    version     2.0;
    format      ascii;
    class       volVectorField;
    location    "10";
    object      U;
}
// * * * * * * * * * * * * * * * * * * * * * * * * * * * * * * * * * * * * * //

dimensions      [0 1 -1 0 0 0 0];


internalField   nonuniform List<vector> 
65536
(
(0.000752259 -0.000752268 0)
(0.0022568 -0.000752287 0)
(0.00376139 -0.000752324 0)
(0.00526607 -0.000752378 0)
(0.00677089 -0.00075245 0)
(0.00827586 -0.000752539 0)
(0.00978102 -0.000752643 0)
(0.0112864 -0.000752763 0)
(0.0127921 -0.000752896 0)
(0.014298 -0.000753043 0)
(0.0158042 -0.0007532 0)
(0.0173108 -0.000753366 0)
(0.0188177 -0.000753541 0)
(0.0203249 -0.000753721 0)
(0.0218326 -0.000753904 0)
(0.0233406 -0.000754089 0)
(0.0248489 -0.000754273 0)
(0.0263577 -0.000754453 0)
(0.0278667 -0.000754627 0)
(0.0293762 -0.000754791 0)
(0.0308859 -0.000754943 0)
(0.032396 -0.000755079 0)
(0.0339063 -0.000755196 0)
(0.0354168 -0.00075529 0)
(0.0369274 -0.000755357 0)
(0.0384382 -0.000755394 0)
(0.0399491 -0.000755396 0)
(0.0414598 -0.000755359 0)
(0.0429705 -0.000755279 0)
(0.044481 -0.000755151 0)
(0.0459912 -0.000754971 0)
(0.047501 -0.000754733 0)
(0.0490102 -0.000754433 0)
(0.0505187 -0.000754065 0)
(0.0520265 -0.000753624 0)
(0.0535333 -0.000753105 0)
(0.055039 -0.000752502 0)
(0.0565434 -0.000751809 0)
(0.0580463 -0.000751021 0)
(0.0595476 -0.000750131 0)
(0.061047 -0.000749134 0)
(0.0625443 -0.000748023 0)
(0.0640392 -0.000746793 0)
(0.0655315 -0.000745436 0)
(0.0670211 -0.000743946 0)
(0.0685075 -0.000742318 0)
(0.0699905 -0.000740544 0)
(0.0714698 -0.000738617 0)
(0.0729451 -0.000736532 0)
(0.0744161 -0.000734282 0)
(0.0758824 -0.000731859 0)
(0.0773437 -0.000729257 0)
(0.0787996 -0.00072647 0)
(0.0802498 -0.000723491 0)
(0.0816938 -0.000720314 0)
(0.0831312 -0.000716931 0)
(0.0845617 -0.000713338 0)
(0.0859848 -0.000709526 0)
(0.0874 -0.000705491 0)
(0.088807 -0.000701225 0)
(0.0902052 -0.000696724 0)
(0.0915941 -0.000691982 0)
(0.0929734 -0.000686992 0)
(0.0943424 -0.00068175 0)
(0.0957006 -0.000676251 0)
(0.0970476 -0.000670489 0)
(0.0983828 -0.00066446 0)
(0.0997057 -0.000658161 0)
(0.101016 -0.000651586 0)
(0.102312 -0.000644733 0)
(0.103595 -0.000637597 0)
(0.104863 -0.000630177 0)
(0.106116 -0.000622468 0)
(0.107353 -0.000614471 0)
(0.108574 -0.000606182 0)
(0.109778 -0.0005976 0)
(0.110965 -0.000588724 0)
(0.112133 -0.000579555 0)
(0.113283 -0.000570092 0)
(0.114414 -0.000560335 0)
(0.115525 -0.000550286 0)
(0.116615 -0.000539946 0)
(0.117685 -0.000529318 0)
(0.118733 -0.000518403 0)
(0.119759 -0.000507206 0)
(0.120762 -0.000495729 0)
(0.121742 -0.000483977 0)
(0.122698 -0.000471954 0)
(0.12363 -0.000459667 0)
(0.124537 -0.000447119 0)
(0.125419 -0.000434318 0)
(0.126275 -0.000421271 0)
(0.127104 -0.000407984 0)
(0.127907 -0.000394466 0)
(0.128682 -0.000380724 0)
(0.12943 -0.000366767 0)
(0.13015 -0.000352604 0)
(0.130841 -0.000338246 0)
(0.131503 -0.0003237 0)
(0.132136 -0.000308979 0)
(0.132739 -0.000294093 0)
(0.133312 -0.000279051 0)
(0.133855 -0.000263867 0)
(0.134368 -0.000248551 0)
(0.13485 -0.000233115 0)
(0.1353 -0.000217571 0)
(0.13572 -0.000201932 0)
(0.136108 -0.000186209 0)
(0.136465 -0.000170416 0)
(0.13679 -0.000154564 0)
(0.137083 -0.000138667 0)
(0.137345 -0.000122737 0)
(0.137574 -0.000106787 0)
(0.137772 -9.08294e-05 0)
(0.137937 -7.48774e-05 0)
(0.138071 -5.89433e-05 0)
(0.138173 -4.30395e-05 0)
(0.138243 -2.71784e-05 0)
(0.138282 -1.13721e-05 0)
(0.138289 4.36748e-06 0)
(0.138264 2.00285e-05 0)
(0.138209 3.55996e-05 0)
(0.138122 5.10695e-05 0)
(0.138004 6.64272e-05 0)
(0.137856 8.16622e-05 0)
(0.137677 9.67641e-05 0)
(0.137469 0.000111723 0)
(0.13723 0.000126529 0)
(0.136962 0.000141174 0)
(0.136665 0.000155648 0)
(0.13634 0.000169943 0)
(0.135985 0.000184051 0)
(0.135603 0.000197965 0)
(0.135193 0.000211677 0)
(0.134756 0.00022518 0)
(0.134292 0.000238469 0)
(0.133802 0.000251538 0)
(0.133286 0.00026438 0)
(0.132744 0.000276992 0)
(0.132178 0.000289369 0)
(0.131587 0.000301506 0)
(0.130972 0.0003134 0)
(0.130333 0.000325049 0)
(0.129671 0.000336448 0)
(0.128987 0.000347595 0)
(0.128281 0.00035849 0)
(0.127553 0.000369129 0)
(0.126804 0.000379513 0)
(0.126034 0.000389639 0)
(0.125245 0.000399509 0)
(0.124436 0.000409121 0)
(0.123608 0.000418475 0)
(0.122762 0.000427573 0)
(0.121898 0.000436415 0)
(0.121016 0.000445003 0)
(0.120117 0.000453338 0)
(0.119202 0.000461421 0)
(0.118271 0.000469255 0)
(0.117325 0.000476842 0)
(0.116364 0.000484184 0)
(0.115388 0.000491285 0)
(0.114398 0.000498146 0)
(0.113395 0.000504772 0)
(0.112379 0.000511165 0)
(0.11135 0.000517329 0)
(0.11031 0.000523267 0)
(0.109257 0.000528984 0)
(0.108193 0.000534482 0)
(0.107119 0.000539767 0)
(0.106034 0.000544842 0)
(0.104939 0.000549711 0)
(0.103835 0.000554378 0)
(0.102722 0.000558849 0)
(0.1016 0.000563126 0)
(0.100469 0.000567216 0)
(0.0993305 0.000571121 0)
(0.0981844 0.000574848 0)
(0.097031 0.000578399 0)
(0.0958706 0.000581781 0)
(0.0947037 0.000584996 0)
(0.0935305 0.000588051 0)
(0.0923513 0.000590949 0)
(0.0911665 0.000593696 0)
(0.0899764 0.000596294 0)
(0.0887812 0.00059875 0)
(0.0875812 0.000601068 0)
(0.0863768 0.000603252 0)
(0.0851681 0.000605306 0)
(0.0839554 0.000607234 0)
(0.082739 0.000609042 0)
(0.0815192 0.000610734 0)
(0.080296 0.000612313 0)
(0.0790698 0.000613783 0)
(0.0778408 0.00061515 0)
(0.0766091 0.000616416 0)
(0.075375 0.000617587 0)
(0.0741387 0.000618665 0)
(0.0729003 0.000619655 0)
(0.07166 0.00062056 0)
(0.0704179 0.000621384 0)
(0.0691743 0.000622131 0)
(0.0679293 0.000622805 0)
(0.0666831 0.000623408 0)
(0.0654356 0.000623944 0)
(0.0641872 0.000624416 0)
(0.0629379 0.000624829 0)
(0.0616879 0.000625184 0)
(0.0604371 0.000625485 0)
(0.0591859 0.000625736 0)
(0.0579341 0.000625938 0)
(0.0566821 0.000626095 0)
(0.0554297 0.00062621 0)
(0.0541772 0.000626285 0)
(0.0529245 0.000626324 0)
(0.0516719 0.000626327 0)
(0.0504192 0.000626299 0)
(0.0491666 0.000626242 0)
(0.0479142 0.000626157 0)
(0.046662 0.000626047 0)
(0.04541 0.000625915 0)
(0.0441583 0.000625762 0)
(0.0429069 0.000625591 0)
(0.0416559 0.000625404 0)
(0.0404053 0.000625202 0)
(0.0391551 0.000624987 0)
(0.0379053 0.000624761 0)
(0.036656 0.000624527 0)
(0.0354072 0.000624285 0)
(0.0341589 0.000624037 0)
(0.0329111 0.000623784 0)
(0.0316638 0.000623529 0)
(0.030417 0.000623273 0)
(0.0291707 0.000623016 0)
(0.0279249 0.000622761 0)
(0.0266796 0.000622508 0)
(0.0254349 0.000622259 0)
(0.0241906 0.000622014 0)
(0.0229468 0.000621775 0)
(0.0217035 0.000621544 0)
(0.0204607 0.00062132 0)
(0.0192182 0.000621104 0)
(0.0179762 0.000620898 0)
(0.0167347 0.000620702 0)
(0.0154934 0.000620518 0)
(0.0142526 0.000620345 0)
(0.0130121 0.000620184 0)
(0.0117719 0.000620036 0)
(0.010532 0.000619901 0)
(0.00929229 0.00061978 0)
(0.00805285 0.000619674 0)
(0.00681361 0.000619582 0)
(0.00557454 0.000619505 0)
(0.00433561 0.000619442 0)
(0.00309678 0.000619396 0)
(0.00185804 0.000619365 0)
(0.000619341 0.000619349 0)
(0.000752241 -0.00225679 0)
(0.00225674 -0.00225684 0)
(0.0037613 -0.00225695 0)
(0.00526595 -0.00225712 0)
(0.00677073 -0.00225733 0)
(0.00827567 -0.0022576 0)
(0.0097808 -0.00225792 0)
(0.0112862 -0.00225828 0)
(0.0127918 -0.00225868 0)
(0.0142977 -0.00225912 0)
(0.0158039 -0.00225959 0)
(0.0173104 -0.00226009 0)
(0.0188173 -0.00226062 0)
(0.0203246 -0.00226116 0)
(0.0218322 -0.00226171 0)
(0.0233402 -0.00226227 0)
(0.0248486 -0.00226282 0)
(0.0263573 -0.00226337 0)
(0.0278664 -0.00226389 0)
(0.0293759 -0.00226439 0)
(0.0308856 -0.00226485 0)
(0.0323957 -0.00226526 0)
(0.033906 -0.00226561 0)
(0.0354166 -0.0022659 0)
(0.0369273 -0.0022661 0)
(0.0384382 -0.00226622 0)
(0.0399491 -0.00226623 0)
(0.04146 -0.00226612 0)
(0.0429707 -0.00226588 0)
(0.0444813 -0.00226551 0)
(0.0459916 -0.00226497 0)
(0.0475015 -0.00226426 0)
(0.0490109 -0.00226337 0)
(0.0505196 -0.00226227 0)
(0.0520275 -0.00226095 0)
(0.0535344 -0.0022594 0)
(0.0550403 -0.00225759 0)
(0.0565449 -0.00225552 0)
(0.058048 -0.00225316 0)
(0.0595495 -0.0022505 0)
(0.0610491 -0.00224752 0)
(0.0625466 -0.00224419 0)
(0.0640418 -0.0022405 0)
(0.0655344 -0.00223644 0)
(0.0670242 -0.00223198 0)
(0.0685109 -0.0022271 0)
(0.0699942 -0.00222178 0)
(0.0714738 -0.00221601 0)
(0.0729494 -0.00220976 0)
(0.0744208 -0.00220302 0)
(0.0758874 -0.00219575 0)
(0.0773491 -0.00218796 0)
(0.0788054 -0.0021796 0)
(0.0802559 -0.00217067 0)
(0.0817003 -0.00216115 0)
(0.0831382 -0.002151 0)
(0.0845691 -0.00214023 0)
(0.0859926 -0.0021288 0)
(0.0874083 -0.0021167 0)
(0.0888158 -0.00210391 0)
(0.0902144 -0.00209041 0)
(0.0916039 -0.00207619 0)
(0.0929836 -0.00206123 0)
(0.0943531 -0.00204551 0)
(0.0957119 -0.00202901 0)
(0.0970594 -0.00201173 0)
(0.0983952 -0.00199365 0)
(0.0997186 -0.00197476 0)
(0.101029 -0.00195504 0)
(0.102326 -0.00193448 0)
(0.10361 -0.00191307 0)
(0.104878 -0.00189082 0)
(0.106132 -0.00186769 0)
(0.107369 -0.0018437 0)
(0.108591 -0.00181884 0)
(0.109796 -0.00179309 0)
(0.110983 -0.00176647 0)
(0.112152 -0.00173896 0)
(0.113303 -0.00171057 0)
(0.114434 -0.0016813 0)
(0.115545 -0.00165115 0)
(0.116636 -0.00162013 0)
(0.117707 -0.00158824 0)
(0.118755 -0.00155549 0)
(0.119782 -0.0015219 0)
(0.120785 -0.00148746 0)
(0.121766 -0.0014522 0)
(0.122723 -0.00141613 0)
(0.123655 -0.00137926 0)
(0.124563 -0.00134161 0)
(0.125445 -0.0013032 0)
(0.126301 -0.00126405 0)
(0.127131 -0.00122418 0)
(0.127934 -0.00118362 0)
(0.12871 -0.00114238 0)
(0.129458 -0.00110051 0)
(0.130178 -0.00105801 0)
(0.13087 -0.00101492 0)
(0.131532 -0.000971276 0)
(0.132165 -0.000927102 0)
(0.132769 -0.000882431 0)
(0.133342 -0.000837296 0)
(0.133886 -0.000791732 0)
(0.134398 -0.000745772 0)
(0.13488 -0.000699452 0)
(0.135331 -0.000652808 0)
(0.135751 -0.000605877 0)
(0.13614 -0.000558697 0)
(0.136496 -0.000511304 0)
(0.136822 -0.000463736 0)
(0.137115 -0.000416032 0)
(0.137376 -0.000368229 0)
(0.137606 -0.000320367 0)
(0.137804 -0.000272482 0)
(0.137969 -0.000224614 0)
(0.138103 -0.000176799 0)
(0.138205 -0.000129075 0)
(0.138275 -8.14796e-05 0)
(0.138313 -3.40487e-05 0)
(0.13832 1.31817e-05 0)
(0.138295 6.01763e-05 0)
(0.13824 0.000106901 0)
(0.138153 0.000153321 0)
(0.138035 0.000199405 0)
(0.137886 0.00024512 0)
(0.137707 0.000290436 0)
(0.137498 0.000335322 0)
(0.13726 0.000379751 0)
(0.136992 0.000423693 0)
(0.136694 0.000467124 0)
(0.136368 0.000510017 0)
(0.136013 0.000552349 0)
(0.135631 0.000594097 0)
(0.135221 0.000635239 0)
(0.134783 0.000675756 0)
(0.134319 0.000715629 0)
(0.133828 0.000754839 0)
(0.133312 0.000793372 0)
(0.132769 0.000831212 0)
(0.132202 0.000868346 0)
(0.131611 0.000904762 0)
(0.130995 0.000940448 0)
(0.130356 0.000975395 0)
(0.129694 0.00100959 0)
(0.129009 0.00104304 0)
(0.128302 0.00107572 0)
(0.127574 0.00110764 0)
(0.126824 0.0011388 0)
(0.126054 0.00116918 0)
(0.125264 0.00119878 0)
(0.124455 0.00122762 0)
(0.123627 0.00125568 0)
(0.12278 0.00128297 0)
(0.121915 0.0013095 0)
(0.121033 0.00133526 0)
(0.120134 0.00136026 0)
(0.119218 0.00138451 0)
(0.118287 0.00140801 0)
(0.11734 0.00143077 0)
(0.116378 0.00145279 0)
(0.115402 0.00147409 0)
(0.114412 0.00149467 0)
(0.113408 0.00151455 0)
(0.112392 0.00153372 0)
(0.111363 0.00155221 0)
(0.110321 0.00157002 0)
(0.109268 0.00158717 0)
(0.108204 0.00160366 0)
(0.107129 0.00161951 0)
(0.106044 0.00163473 0)
(0.104949 0.00164933 0)
(0.103844 0.00166333 0)
(0.10273 0.00167674 0)
(0.101608 0.00168957 0)
(0.100477 0.00170183 0)
(0.0993381 0.00171354 0)
(0.0981916 0.00172472 0)
(0.0970379 0.00173537 0)
(0.0958772 0.00174551 0)
(0.0947099 0.00175515 0)
(0.0935364 0.00176431 0)
(0.0923569 0.001773 0)
(0.0911718 0.00178123 0)
(0.0899814 0.00178903 0)
(0.0887859 0.00179639 0)
(0.0875857 0.00180334 0)
(0.086381 0.00180988 0)
(0.0851721 0.00181604 0)
(0.0839592 0.00182182 0)
(0.0827425 0.00182724 0)
(0.0815224 0.00183231 0)
(0.080299 0.00183705 0)
(0.0790726 0.00184145 0)
(0.0778434 0.00184555 0)
(0.0766115 0.00184934 0)
(0.0753772 0.00185285 0)
(0.0741407 0.00185608 0)
(0.0729021 0.00185905 0)
(0.0716617 0.00186176 0)
(0.0704195 0.00186423 0)
(0.0691757 0.00186647 0)
(0.0679306 0.00186848 0)
(0.0666842 0.00187029 0)
(0.0654366 0.00187189 0)
(0.0641881 0.00187331 0)
(0.0629387 0.00187454 0)
(0.0616885 0.00187561 0)
(0.0604377 0.00187651 0)
(0.0591863 0.00187725 0)
(0.0579345 0.00187786 0)
(0.0566823 0.00187833 0)
(0.0554299 0.00187867 0)
(0.0541773 0.00187889 0)
(0.0529246 0.001879 0)
(0.0516718 0.00187901 0)
(0.0504191 0.00187893 0)
(0.0491665 0.00187875 0)
(0.047914 0.00187849 0)
(0.0466617 0.00187816 0)
(0.0454097 0.00187777 0)
(0.044158 0.00187731 0)
(0.0429066 0.00187679 0)
(0.0416555 0.00187622 0)
(0.0404049 0.00187562 0)
(0.0391546 0.00187497 0)
(0.0379049 0.00187429 0)
(0.0366556 0.00187359 0)
(0.0354067 0.00187286 0)
(0.0341584 0.00187211 0)
(0.0329106 0.00187135 0)
(0.0316632 0.00187059 0)
(0.0304164 0.00186982 0)
(0.0291702 0.00186905 0)
(0.0279244 0.00186828 0)
(0.0266791 0.00186752 0)
(0.0254344 0.00186677 0)
(0.0241901 0.00186604 0)
(0.0229463 0.00186532 0)
(0.021703 0.00186462 0)
(0.0204602 0.00186395 0)
(0.0192178 0.0018633 0)
(0.0179758 0.00186268 0)
(0.0167343 0.0018621 0)
(0.0154931 0.00186154 0)
(0.0142523 0.00186102 0)
(0.0130118 0.00186054 0)
(0.0117716 0.00186009 0)
(0.0105317 0.00185969 0)
(0.00929206 0.00185933 0)
(0.00805265 0.00185901 0)
(0.00681344 0.00185873 0)
(0.0055744 0.0018585 0)
(0.0043355 0.00185831 0)
(0.00309671 0.00185817 0)
(0.00185799 0.00185808 0)
(0.000619325 0.00185803 0)
(0.000752204 -0.00376125 0)
(0.00225663 -0.00376134 0)
(0.00376112 -0.00376153 0)
(0.00526569 -0.0037618 0)
(0.0067704 -0.00376217 0)
(0.00827528 -0.00376261 0)
(0.00978035 -0.00376314 0)
(0.0112857 -0.00376375 0)
(0.0127912 -0.00376442 0)
(0.0142971 -0.00376516 0)
(0.0158032 -0.00376595 0)
(0.0173098 -0.00376679 0)
(0.0188166 -0.00376768 0)
(0.0203238 -0.00376859 0)
(0.0218314 -0.00376952 0)
(0.0233394 -0.00377045 0)
(0.0248478 -0.00377139 0)
(0.0263566 -0.0037723 0)
(0.0278657 -0.00377318 0)
(0.0293752 -0.00377402 0)
(0.030885 -0.0037748 0)
(0.0323952 -0.00377549 0)
(0.0339056 -0.00377609 0)
(0.0354163 -0.00377658 0)
(0.0369271 -0.00377694 0)
(0.0384381 -0.00377714 0)
(0.0399491 -0.00377717 0)
(0.0414602 -0.00377701 0)
(0.0429711 -0.00377663 0)
(0.0444819 -0.00377602 0)
(0.0459924 -0.00377514 0)
(0.0475025 -0.00377398 0)
(0.0490122 -0.0037725 0)
(0.0505212 -0.00377069 0)
(0.0520294 -0.00376851 0)
(0.0535367 -0.00376594 0)
(0.0550429 -0.00376296 0)
(0.0565478 -0.00375952 0)
(0.0580514 -0.00375561 0)
(0.0595532 -0.00375119 0)
(0.0610533 -0.00374624 0)
(0.0625513 -0.00374071 0)
(0.0640469 -0.00373459 0)
(0.0655401 -0.00372784 0)
(0.0670304 -0.00372043 0)
(0.0685177 -0.00371232 0)
(0.0700016 -0.00370348 0)
(0.0714818 -0.00369388 0)
(0.0729581 -0.00368349 0)
(0.0744301 -0.00367227 0)
(0.0758975 -0.00366019 0)
(0.0773598 -0.00364721 0)
(0.0788169 -0.00363331 0)
(0.0802682 -0.00361845 0)
(0.0817134 -0.00360259 0)
(0.0831521 -0.00358571 0)
(0.0845839 -0.00356777 0)
(0.0860083 -0.00354875 0)
(0.0874249 -0.0035286 0)
(0.0888333 -0.0035073 0)
(0.0902329 -0.00348483 0)
(0.0916233 -0.00346114 0)
(0.093004 -0.00343622 0)
(0.0943746 -0.00341004 0)
(0.0957344 -0.00338256 0)
(0.097083 -0.00335378 0)
(0.0984198 -0.00332366 0)
(0.0997443 -0.00329218 0)
(0.101056 -0.00325932 0)
(0.102354 -0.00322507 0)
(0.103639 -0.00318941 0)
(0.104908 -0.00315232 0)
(0.106163 -0.00311379 0)
(0.107402 -0.00307381 0)
(0.108625 -0.00303237 0)
(0.109831 -0.00298946 0)
(0.111019 -0.00294509 0)
(0.112189 -0.00289924 0)
(0.113341 -0.00285192 0)
(0.114473 -0.00280313 0)
(0.115586 -0.00275288 0)
(0.116678 -0.00270117 0)
(0.11775 -0.00264802 0)
(0.118799 -0.00259343 0)
(0.119827 -0.00253742 0)
(0.120832 -0.00248002 0)
(0.121813 -0.00242124 0)
(0.122771 -0.0023611 0)
(0.123705 -0.00229963 0)
(0.124613 -0.00223686 0)
(0.125497 -0.00217282 0)
(0.126354 -0.00210755 0)
(0.127185 -0.00204108 0)
(0.127989 -0.00197344 0)
(0.128765 -0.00190469 0)
(0.129514 -0.00183486 0)
(0.130235 -0.001764 0)
(0.130927 -0.00169216 0)
(0.131591 -0.00161938 0)
(0.132224 -0.00154572 0)
(0.132829 -0.00147123 0)
(0.133403 -0.00139597 0)
(0.133947 -0.00131999 0)
(0.13446 -0.00124335 0)
(0.134943 -0.00116611 0)
(0.135394 -0.00108833 0)
(0.135814 -0.00101007 0)
(0.136203 -0.000931397 0)
(0.13656 -0.000852366 0)
(0.136885 -0.000773045 0)
(0.137179 -0.000693495 0)
(0.13744 -0.000613782 0)
(0.13767 -0.000533969 0)
(0.137867 -0.000454119 0)
(0.138033 -0.000374296 0)
(0.138167 -0.000294563 0)
(0.138268 -0.000214983 0)
(0.138338 -0.000135616 0)
(0.138376 -5.65248e-05 0)
(0.138383 2.22316e-05 0)
(0.138358 0.000100594 0)
(0.138302 0.000178506 0)
(0.138214 0.00025591 0)
(0.138096 0.000332751 0)
(0.137947 0.000408978 0)
(0.137768 0.000484537 0)
(0.137558 0.00055938 0)
(0.137319 0.000633457 0)
(0.13705 0.000706724 0)
(0.136752 0.000779137 0)
(0.136425 0.000850652 0)
(0.13607 0.00092123 0)
(0.135686 0.000990834 0)
(0.135275 0.00105943 0)
(0.134837 0.00112698 0)
(0.134372 0.00119345 0)
(0.13388 0.00125882 0)
(0.133362 0.00132306 0)
(0.132819 0.00138614 0)
(0.132251 0.00144804 0)
(0.131659 0.00150875 0)
(0.131042 0.00156823 0)
(0.130402 0.00162649 0)
(0.129739 0.0016835 0)
(0.129053 0.00173924 0)
(0.128345 0.00179372 0)
(0.127616 0.00184693 0)
(0.126865 0.00189885 0)
(0.126094 0.00194948 0)
(0.125303 0.00199883 0)
(0.124493 0.00204689 0)
(0.123664 0.00209366 0)
(0.122816 0.00213914 0)
(0.12195 0.00218335 0)
(0.121067 0.00222628 0)
(0.120167 0.00226794 0)
(0.11925 0.00230835 0)
(0.118318 0.00234751 0)
(0.11737 0.00238543 0)
(0.116407 0.00242213 0)
(0.11543 0.00245762 0)
(0.114439 0.00249191 0)
(0.113434 0.00252502 0)
(0.112417 0.00255697 0)
(0.111387 0.00258777 0)
(0.110345 0.00261744 0)
(0.109291 0.00264601 0)
(0.108226 0.00267348 0)
(0.10715 0.00269988 0)
(0.106064 0.00272523 0)
(0.104968 0.00274956 0)
(0.103863 0.00277287 0)
(0.102748 0.0027952 0)
(0.101625 0.00281657 0)
(0.100493 0.002837 0)
(0.0993534 0.0028565 0)
(0.0982062 0.00287511 0)
(0.0970517 0.00289285 0)
(0.0958904 0.00290973 0)
(0.0947224 0.00292579 0)
(0.0935483 0.00294104 0)
(0.0923682 0.0029555 0)
(0.0911825 0.00296921 0)
(0.0899915 0.00298219 0)
(0.0887955 0.00299444 0)
(0.0875947 0.00300601 0)
(0.0863895 0.0030169 0)
(0.08518 0.00302715 0)
(0.0839666 0.00303677 0)
(0.0827495 0.00304579 0)
(0.0815289 0.00305423 0)
(0.0803051 0.0030621 0)
(0.0790783 0.00306944 0)
(0.0778486 0.00307625 0)
(0.0766164 0.00308256 0)
(0.0753817 0.00308839 0)
(0.0741448 0.00309376 0)
(0.0729059 0.00309869 0)
(0.0716651 0.0031032 0)
(0.0704226 0.00310731 0)
(0.0691786 0.00311102 0)
(0.0679331 0.00311437 0)
(0.0666864 0.00311737 0)
(0.0654386 0.00312003 0)
(0.0641899 0.00312238 0)
(0.0629402 0.00312443 0)
(0.0616898 0.00312619 0)
(0.0604388 0.00312768 0)
(0.0591872 0.00312892 0)
(0.0579352 0.00312991 0)
(0.0566829 0.00313069 0)
(0.0554303 0.00313125 0)
(0.0541775 0.00313161 0)
(0.0529246 0.00313179 0)
(0.0516718 0.00313179 0)
(0.0504189 0.00313164 0)
(0.0491662 0.00313134 0)
(0.0479136 0.00313091 0)
(0.0466612 0.00313035 0)
(0.0454091 0.00312968 0)
(0.0441573 0.0031289 0)
(0.0429058 0.00312804 0)
(0.0416547 0.00312709 0)
(0.040404 0.00312607 0)
(0.0391538 0.00312499 0)
(0.0379039 0.00312385 0)
(0.0366546 0.00312267 0)
(0.0354057 0.00312145 0)
(0.0341574 0.0031202 0)
(0.0329095 0.00311893 0)
(0.0316622 0.00311765 0)
(0.0304154 0.00311636 0)
(0.0291691 0.00311507 0)
(0.0279234 0.00311379 0)
(0.0266781 0.00311252 0)
(0.0254334 0.00311127 0)
(0.0241891 0.00311004 0)
(0.0229454 0.00310884 0)
(0.0217021 0.00310768 0)
(0.0204593 0.00310655 0)
(0.019217 0.00310547 0)
(0.017975 0.00310444 0)
(0.0167335 0.00310346 0)
(0.0154924 0.00310253 0)
(0.0142516 0.00310166 0)
(0.0130112 0.00310085 0)
(0.011771 0.00310011 0)
(0.0105312 0.00309944 0)
(0.0092916 0.00309883 0)
(0.00805225 0.00309829 0)
(0.0068131 0.00309783 0)
(0.00557412 0.00309745 0)
(0.00433528 0.00309713 0)
(0.00309655 0.0030969 0)
(0.0018579 0.00309674 0)
(0.000619294 0.00309667 0)
(0.000752148 -0.00526562 0)
(0.00225646 -0.00526575 0)
(0.00376084 -0.00526602 0)
(0.00526531 -0.0052664 0)
(0.00676991 -0.00526692 0)
(0.00827469 -0.00526755 0)
(0.00977966 -0.00526829 0)
(0.0112849 -0.00526915 0)
(0.0127904 -0.0052701 0)
(0.0142961 -0.00527114 0)
(0.0158023 -0.00527227 0)
(0.0173087 -0.00527346 0)
(0.0188155 -0.0052747 0)
(0.0203227 -0.00527599 0)
(0.0218303 -0.00527731 0)
(0.0233383 -0.00527864 0)
(0.0248467 -0.00527996 0)
(0.0263555 -0.00528126 0)
(0.0278647 -0.00528252 0)
(0.0293742 -0.00528372 0)
(0.0308841 -0.00528482 0)
(0.0323944 -0.00528582 0)
(0.0339049 -0.00528669 0)
(0.0354157 -0.0052874 0)
(0.0369268 -0.00528793 0)
(0.0384379 -0.00528824 0)
(0.0399492 -0.00528831 0)
(0.0414605 -0.00528812 0)
(0.0429717 -0.00528762 0)
(0.0444828 -0.00528679 0)
(0.0459936 -0.0052856 0)
(0.0475041 -0.005284 0)
(0.0490141 -0.00528197 0)
(0.0505235 -0.00527947 0)
(0.0520322 -0.00527646 0)
(0.05354 -0.00527291 0)
(0.0550467 -0.00526877 0)
(0.0565522 -0.005264 0)
(0.0580563 -0.00525856 0)
(0.0595588 -0.00525242 0)
(0.0610595 -0.00524553 0)
(0.0625582 -0.00523784 0)
(0.0640546 -0.00522931 0)
(0.0655485 -0.00521991 0)
(0.0670397 -0.00520957 0)
(0.0685278 -0.00519826 0)
(0.0700126 -0.00518594 0)
(0.0714938 -0.00517254 0)
(0.072971 -0.00515804 0)
(0.074444 -0.00514238 0)
(0.0759125 -0.00512551 0)
(0.0773759 -0.00510739 0)
(0.0788341 -0.00508798 0)
(0.0802866 -0.00506722 0)
(0.0817331 -0.00504507 0)
(0.083173 -0.00502148 0)
(0.0846061 -0.00499641 0)
(0.0860318 -0.00496981 0)
(0.0874498 -0.00494165 0)
(0.0888595 -0.00491188 0)
(0.0902606 -0.00488045 0)
(0.0916525 -0.00484733 0)
(0.0930347 -0.00481248 0)
(0.0944067 -0.00477585 0)
(0.0957681 -0.00473743 0)
(0.0971183 -0.00469716 0)
(0.0984567 -0.00465502 0)
(0.0997829 -0.00461098 0)
(0.101096 -0.004565 0)
(0.102396 -0.00451708 0)
(0.103682 -0.00446717 0)
(0.104954 -0.00441526 0)
(0.10621 -0.00436133 0)
(0.107451 -0.00430537 0)
(0.108675 -0.00424737 0)
(0.109883 -0.00418731 0)
(0.111073 -0.00412519 0)
(0.112245 -0.004061 0)
(0.113399 -0.00399475 0)
(0.114533 -0.00392644 0)
(0.115647 -0.00385607 0)
(0.116741 -0.00378367 0)
(0.117814 -0.00370923 0)
(0.118866 -0.00363279 0)
(0.119895 -0.00355435 0)
(0.120902 -0.00347396 0)
(0.121885 -0.00339163 0)
(0.122844 -0.0033074 0)
(0.123779 -0.0032213 0)
(0.124689 -0.00313338 0)
(0.125574 -0.00304368 0)
(0.126433 -0.00295225 0)
(0.127265 -0.00285913 0)
(0.128071 -0.00276439 0)
(0.128849 -0.00266807 0)
(0.129599 -0.00257025 0)
(0.130321 -0.00247098 0)
(0.131014 -0.00237033 0)
(0.131679 -0.00226837 0)
(0.132313 -0.00216517 0)
(0.132919 -0.00206081 0)
(0.133494 -0.00195536 0)
(0.134038 -0.00184891 0)
(0.134552 -0.00174153 0)
(0.135036 -0.00163331 0)
(0.135488 -0.00152434 0)
(0.135908 -0.00141469 0)
(0.136297 -0.00130445 0)
(0.136655 -0.00119372 0)
(0.136981 -0.00108258 0)
(0.137274 -0.000971123 0)
(0.137536 -0.000859435 0)
(0.137766 -0.000747607 0)
(0.137963 -0.000635729 0)
(0.138129 -0.000523888 0)
(0.138262 -0.000412175 0)
(0.138364 -0.000300676 0)
(0.138434 -0.000189478 0)
(0.138471 -7.86662e-05 0)
(0.138477 3.16751e-05 0)
(0.138452 0.000141463 0)
(0.138395 0.000250618 0)
(0.138307 0.00035906 0)
(0.138188 0.000466713 0)
(0.138038 0.000573502 0)
(0.137858 0.000679355 0)
(0.137647 0.000784201 0)
(0.137407 0.000887975 0)
(0.137137 0.00099061 0)
(0.136838 0.00109205 0)
(0.13651 0.00119222 0)
(0.136154 0.00129109 0)
(0.135769 0.00138858 0)
(0.135357 0.00148466 0)
(0.134917 0.00157927 0)
(0.134451 0.00167238 0)
(0.133958 0.00176393 0)
(0.133439 0.0018539 0)
(0.132894 0.00194224 0)
(0.132325 0.00202894 0)
(0.131731 0.00211395 0)
(0.131113 0.00219725 0)
(0.130471 0.00227883 0)
(0.129806 0.00235866 0)
(0.129119 0.00243672 0)
(0.12841 0.002513 0)
(0.127679 0.00258749 0)
(0.126927 0.00266019 0)
(0.126154 0.00273108 0)
(0.125362 0.00280017 0)
(0.12455 0.00286745 0)
(0.123719 0.00293292 0)
(0.12287 0.00299659 0)
(0.122002 0.00305847 0)
(0.121118 0.00311857 0)
(0.120216 0.00317688 0)
(0.119298 0.00323344 0)
(0.118364 0.00328824 0)
(0.117415 0.00334132 0)
(0.11645 0.00339268 0)
(0.115472 0.00344234 0)
(0.114479 0.00349032 0)
(0.113473 0.00353666 0)
(0.112454 0.00358136 0)
(0.111423 0.00362446 0)
(0.110379 0.00366597 0)
(0.109324 0.00370594 0)
(0.108258 0.00374437 0)
(0.107181 0.0037813 0)
(0.106094 0.00381677 0)
(0.104997 0.00385079 0)
(0.10389 0.0038834 0)
(0.102774 0.00391464 0)
(0.10165 0.00394452 0)
(0.100517 0.00397308 0)
(0.0993762 0.00400036 0)
(0.098228 0.00402638 0)
(0.0970725 0.00405118 0)
(0.0959101 0.00407478 0)
(0.0947412 0.00409723 0)
(0.0935661 0.00411855 0)
(0.0923851 0.00413877 0)
(0.0911985 0.00415793 0)
(0.0900066 0.00417606 0)
(0.0888098 0.00419319 0)
(0.0876082 0.00420935 0)
(0.0864021 0.00422457 0)
(0.0851919 0.00423889 0)
(0.0839778 0.00425233 0)
(0.08276 0.00426493 0)
(0.0815387 0.00427671 0)
(0.0803142 0.0042877 0)
(0.0790868 0.00429794 0)
(0.0778565 0.00430745 0)
(0.0766237 0.00431626 0)
(0.0753884 0.0043244 0)
(0.074151 0.00433189 0)
(0.0729116 0.00433876 0)
(0.0716703 0.00434505 0)
(0.0704273 0.00435077 0)
(0.0691828 0.00435595 0)
(0.0679369 0.00436061 0)
(0.0666898 0.00436479 0)
(0.0654416 0.00436849 0)
(0.0641925 0.00437176 0)
(0.0629425 0.0043746 0)
(0.0616917 0.00437704 0)
(0.0604404 0.00437911 0)
(0.0591885 0.00438082 0)
(0.0579363 0.0043822 0)
(0.0566837 0.00438326 0)
(0.0554308 0.00438402 0)
(0.0541778 0.00438451 0)
(0.0529248 0.00438474 0)
(0.0516717 0.00438474 0)
(0.0504186 0.0043845 0)
(0.0491657 0.00438407 0)
(0.047913 0.00438344 0)
(0.0466605 0.00438265 0)
(0.0454083 0.00438169 0)
(0.0441563 0.00438059 0)
(0.0429047 0.00437937 0)
(0.0416535 0.00437803 0)
(0.0404028 0.00437659 0)
(0.0391524 0.00437506 0)
(0.0379026 0.00437345 0)
(0.0366532 0.00437179 0)
(0.0354043 0.00437007 0)
(0.0341559 0.00436831 0)
(0.032908 0.00436653 0)
(0.0316607 0.00436472 0)
(0.0304139 0.00436291 0)
(0.0291676 0.00436109 0)
(0.0279218 0.00435929 0)
(0.0266766 0.0043575 0)
(0.0254319 0.00435574 0)
(0.0241877 0.00435402 0)
(0.022944 0.00435233 0)
(0.0217008 0.00435069 0)
(0.020458 0.00434911 0)
(0.0192157 0.00434759 0)
(0.0179738 0.00434614 0)
(0.0167324 0.00434476 0)
(0.0154913 0.00434346 0)
(0.0142506 0.00434224 0)
(0.0130102 0.0043411 0)
(0.0117702 0.00434006 0)
(0.0105304 0.00433911 0)
(0.00929092 0.00433826 0)
(0.00805165 0.00433751 0)
(0.00681259 0.00433686 0)
(0.0055737 0.00433632 0)
(0.00433495 0.00433588 0)
(0.00309631 0.00433555 0)
(0.00185776 0.00433533 0)
(0.000619247 0.00433522 0)
(0.000752073 -0.00676986 0)
(0.00225624 -0.00677003 0)
(0.00376046 -0.00677037 0)
(0.00526479 -0.00677088 0)
(0.00676925 -0.00677155 0)
(0.00827389 -0.00677237 0)
(0.00977874 -0.00677334 0)
(0.0112838 -0.00677445 0)
(0.0127892 -0.00677569 0)
(0.0142949 -0.00677705 0)
(0.0158009 -0.00677851 0)
(0.0173073 -0.00678006 0)
(0.0188141 -0.00678169 0)
(0.0203212 -0.00678337 0)
(0.0218288 -0.0067851 0)
(0.0233368 -0.00678683 0)
(0.0248452 -0.00678857 0)
(0.026354 -0.00679027 0)
(0.0278632 -0.00679192 0)
(0.0293729 -0.0067935 0)
(0.0308829 -0.00679496 0)
(0.0323933 -0.00679629 0)
(0.033904 -0.00679744 0)
(0.035415 -0.0067984 0)
(0.0369262 -0.00679913 0)
(0.0384377 -0.00679958 0)
(0.0399492 -0.00679972 0)
(0.0414608 -0.00679953 0)
(0.0429724 -0.00679894 0)
(0.0444839 -0.00679793 0)
(0.0459952 -0.00679646 0)
(0.0475061 -0.00679447 0)
(0.0490167 -0.00679192 0)
(0.0505266 -0.00678877 0)
(0.0520359 -0.00678496 0)
(0.0535443 -0.00678046 0)
(0.0550518 -0.0067752 0)
(0.056558 -0.00676914 0)
(0.0580629 -0.00676222 0)
(0.0595662 -0.0067544 0)
(0.0610678 -0.00674561 0)
(0.0625674 -0.0067358 0)
(0.0640648 -0.00672492 0)
(0.0655598 -0.0067129 0)
(0.067052 -0.00669969 0)
(0.0685412 -0.00668523 0)
(0.0700272 -0.00666946 0)
(0.0715097 -0.00665232 0)
(0.0729882 -0.00663375 0)
(0.0744626 -0.0066137 0)
(0.0759324 -0.00659209 0)
(0.0773973 -0.00656888 0)
(0.078857 -0.00654399 0)
(0.0803111 -0.00651738 0)
(0.0817591 -0.00648897 0)
(0.0832008 -0.00645872 0)
(0.0846355 -0.00642657 0)
(0.086063 -0.00639245 0)
(0.0874828 -0.00635631 0)
(0.0888944 -0.0063181 0)
(0.0902974 -0.00627777 0)
(0.0916913 -0.00623525 0)
(0.0930755 -0.0061905 0)
(0.0944496 -0.00614348 0)
(0.0958131 -0.00609413 0)
(0.0971654 -0.00604241 0)
(0.098506 -0.00598828 0)
(0.0998343 -0.0059317 0)
(0.10115 -0.00587264 0)
(0.102452 -0.00581106 0)
(0.10374 -0.00574693 0)
(0.105014 -0.00568022 0)
(0.106273 -0.00561091 0)
(0.107516 -0.00553899 0)
(0.108743 -0.00546442 0)
(0.109953 -0.00538721 0)
(0.111145 -0.00530735 0)
(0.11232 -0.00522482 0)
(0.113476 -0.00513963 0)
(0.114612 -0.00505179 0)
(0.115729 -0.00496131 0)
(0.116825 -0.00486819 0)
(0.117901 -0.00477245 0)
(0.118954 -0.00467413 0)
(0.119986 -0.00457324 0)
(0.120995 -0.00446983 0)
(0.12198 -0.00436392 0)
(0.122942 -0.00425556 0)
(0.123879 -0.0041448 0)
(0.124791 -0.00403168 0)
(0.125678 -0.00391627 0)
(0.126538 -0.00379863 0)
(0.127373 -0.00367882 0)
(0.12818 -0.0035569 0)
(0.12896 -0.00343297 0)
(0.129712 -0.00330708 0)
(0.130435 -0.00317933 0)
(0.13113 -0.00304981 0)
(0.131796 -0.00291859 0)
(0.132432 -0.00278578 0)
(0.133039 -0.00265147 0)
(0.133615 -0.00251576 0)
(0.134161 -0.00237876 0)
(0.134676 -0.00224056 0)
(0.13516 -0.00210127 0)
(0.135613 -0.00196101 0)
(0.136034 -0.00181988 0)
(0.136424 -0.001678 0)
(0.136782 -0.00153548 0)
(0.137108 -0.00139244 0)
(0.137402 -0.00124898 0)
(0.137664 -0.00110523 0)
(0.137894 -0.000961296 0)
(0.138091 -0.0008173 0)
(0.138257 -0.000673354 0)
(0.13839 -0.000529573 0)
(0.138491 -0.000386069 0)
(0.13856 -0.000242953 0)
(0.138598 -0.000100337 0)
(0.138603 4.16714e-05 0)
(0.138577 0.000182966 0)
(0.138519 0.000323443 0)
(0.13843 0.000463 0)
(0.138311 0.000601539 0)
(0.13816 0.000738963 0)
(0.137978 0.000875179 0)
(0.137767 0.0010101 0)
(0.137525 0.00114363 0)
(0.137254 0.0012757 0)
(0.136953 0.00140621 0)