/*--------------------------------*- C++ -*----------------------------------*\
| =========                 |                                                 |
| \\      /  F ield         | OpenFOAM: The Open Source CFD Toolbox           |
|  \\    /   O peration     | Version:  v2012                                 |
|   \\  /    A nd           | Website:  www.openfoam.com                      |
|    \\/     M anipulation  |                                                 |
\*---------------------------------------------------------------------------*/
FoamFile
{
    version     2.0;
    format      ascii;
    class       volScalarField;
    location    "15.5";
    object      p;
}
// * * * * * * * * * * * * * * * * * * * * * * * * * * * * * * * * * * * * * //

dimensions      [0 2 -2 0 0 0 0];


internalField   nonuniform List<scalar> 
65536
(
1.04478e-09
-1.2326e-06
-3.71561e-06
-7.46337e-06
-1.24785e-05
-1.87592e-05
-2.63057e-05
-3.51202e-05
-4.52049e-05
-5.65627e-05
-6.91969e-05
-8.31114e-05
-9.83105e-05
-0.000114798
-0.00013258
-0.000151661
-0.000172046
-0.000193742
-0.000216754
-0.000241089
-0.000266754
-0.000293755
-0.0003221
-0.000351796
-0.00038285
-0.000415269
-0.000449062
-0.000484236
-0.000520799
-0.000558758
-0.000598121
-0.000638896
-0.000681091
-0.000724711
-0.000769765
-0.00081626
-0.000864201
-0.000913595
-0.000964449
-0.00101677
-0.00107055
-0.00112581
-0.00118254
-0.00124076
-0.00130045
-0.00136163
-0.00142428
-0.00148842
-0.00155404
-0.00162113
-0.00168969
-0.00175971
-0.00183119
-0.00190412
-0.00197848
-0.00205427
-0.00213147
-0.00221006
-0.00229002
-0.00237134
-0.00245399
-0.00253794
-0.00262317
-0.00270965
-0.00279734
-0.00288622
-0.00297623
-0.00306734
-0.00315951
-0.00325268
-0.00334681
-0.00344185
-0.00353773
-0.0036344
-0.00373179
-0.00382984
-0.00392847
-0.00402762
-0.00412721
-0.00422715
-0.00432737
-0.00442777
-0.00452827
-0.00462877
-0.00472919
-0.00482941
-0.00492934
-0.00502887
-0.0051279
-0.00522632
-0.00532402
-0.00542087
-0.00551678
-0.00561161
-0.00570525
-0.00579759
-0.0058885
-0.00597787
-0.00606556
-0.00615146
-0.00623546
-0.00631742
-0.00639724
-0.00647478
-0.00654995
-0.00662262
-0.00669268
-0.00676003
-0.00682456
-0.00688616
-0.00694474
-0.00700021
-0.00705246
-0.00710143
-0.00714702
-0.00718917
-0.00722779
-0.00726283
-0.00729424
-0.00732194
-0.00734591
-0.0073661
-0.00738248
-0.00739502
-0.0074037
-0.0074085
-0.00740944
-0.00740649
-0.00739968
-0.00738901
-0.0073745
-0.00735619
-0.00733411
-0.0073083
-0.0072788
-0.00724566
-0.00720895
-0.00716873
-0.00712507
-0.00707804
-0.00702772
-0.0069742
-0.00691756
-0.00685789
-0.00679528
-0.00672985
-0.00666168
-0.00659089
-0.00651757
-0.00644184
-0.00636381
-0.00628358
-0.00620128
-0.00611702
-0.0060309
-0.00594304
-0.00585357
-0.00576258
-0.0056702
-0.00557654
-0.00548171
-0.00538581
-0.00528897
-0.00519128
-0.00509286
-0.0049938
-0.00489421
-0.00479418
-0.00469382
-0.00459322
-0.00449247
-0.00439166
-0.00429088
-0.00419021
-0.00408973
-0.00398952
-0.00388966
-0.00379021
-0.00369126
-0.00359286
-0.00349507
-0.00339797
-0.0033016
-0.00320603
-0.00311131
-0.00301748
-0.00292459
-0.00283269
-0.00274181
-0.00265201
-0.00256331
-0.00247575
-0.00238936
-0.00230417
-0.00222021
-0.0021375
-0.00205607
-0.00197594
-0.00189713
-0.00181966
-0.00174354
-0.00166878
-0.00159541
-0.00152342
-0.00145284
-0.00138367
-0.00131591
-0.00124958
-0.00118467
-0.0011212
-0.00105916
-0.000998557
-0.000939392
-0.000881664
-0.000825372
-0.000770516
-0.000717094
-0.000665103
-0.00061454
-0.000565401
-0.000517683
-0.000471381
-0.00042649
-0.000383006
-0.000340922
-0.000300234
-0.000260935
-0.000223021
-0.000186484
-0.000151319
-0.000117519
-8.50795e-05
-5.39933e-05
-2.42547e-05
4.14213e-06
3.12031e-05
5.69339e-05
8.13401e-05
0.000104427
0.0001262
0.000146665
0.000165825
0.000183687
0.000200253
0.000215529
0.000229519
0.000242225
0.000253651
0.000263799
0.000272674
0.000280275
0.000286607
0.000291671
0.000295467
0.000297998
0.000299261
-2.4874e-06
-3.72502e-06
-6.21623e-06
-9.96948e-06
-1.49871e-05
-2.12692e-05
-2.88169e-05
-3.76323e-05
-4.77179e-05
-5.90767e-05
-7.17118e-05
-8.56273e-05
-0.000100827
-0.000117316
-0.000135099
-0.000154181
-0.000174567
-0.000196264
-0.000219277
-0.000243614
-0.00026928
-0.000296283
-0.00032463
-0.000354327
-0.000385382
-0.000417804
-0.000451598
-0.000486774
-0.000523339
-0.0005613
-0.000600665
-0.000641443
-0.000683639
-0.000727262
-0.000772318
-0.000818815
-0.000866759
-0.000916156
-0.000967012
-0.00101933
-0.00107312
-0.00112838
-0.00118512
-0.00124334
-0.00130303
-0.00136421
-0.00142687
-0.00149102
-0.00155664
-0.00162373
-0.0016923
-0.00176233
-0.00183381
-0.00190675
-0.00198112
-0.00205691
-0.00213411
-0.00221271
-0.00229268
-0.00237401
-0.00245666
-0.00254063
-0.00262587
-0.00271235
-0.00280006
-0.00288894
-0.00297896
-0.00307009
-0.00316227
-0.00325545
-0.0033496
-0.00344465
-0.00354055
-0.00363723
-0.00373464
-0.0038327
-0.00393136
-0.00403052
-0.00413013
-0.00423009
-0.00433033
-0.00443075
-0.00453127
-0.0046318
-0.00473224
-0.00483248
-0.00493244
-0.005032
-0.00513105
-0.0052295
-0.00532722
-0.0054241
-0.00552003
-0.00561489
-0.00570856
-0.00580093
-0.00589187
-0.00598126
-0.00606898
-0.00615491
-0.00623893
-0.00632092
-0.00640076
-0.00647834
-0.00655353
-0.00662622
-0.00669631
-0.00676368
-0.00682823
-0.00688986
-0.00694846
-0.00700395
-0.00705622
-0.0071052
-0.00715081
-0.00719297
-0.00723161
-0.00726667
-0.00729808
-0.0073258
-0.00734977
-0.00736997
-0.00738635
-0.00739889
-0.00740757
-0.00741238
-0.00741331
-0.00741036
-0.00740354
-0.00739286
-0.00737835
-0.00736003
-0.00733793
-0.00731211
-0.00728259
-0.00724944
-0.00721272
-0.00717248
-0.0071288
-0.00708174
-0.0070314
-0.00697785
-0.00692119
-0.00686149
-0.00679886
-0.0067334
-0.00666521
-0.00659438
-0.00652104
-0.00644528
-0.00636722
-0.00628696
-0.00620463
-0.00612034
-0.00603419
-0.0059463
-0.0058568
-0.00576578
-0.00567337
-0.00557968
-0.00548482
-0.0053889
-0.00529203
-0.00519431
-0.00509586
-0.00499677
-0.00489716
-0.00479711
-0.00469672
-0.0045961
-0.00449532
-0.00439449
-0.00429368
-0.00419299
-0.00409249
-0.00399226
-0.00389238
-0.00379291
-0.00369394
-0.00359552
-0.00349772
-0.0034006
-0.00330422
-0.00320863
-0.00311389
-0.00302005
-0.00292714
-0.00283523
-0.00274434
-0.00265453
-0.00256582
-0.00247824
-0.00239184
-0.00230665
-0.00222268
-0.00213996
-0.00205852
-0.00197839
-0.00189957
-0.00182209
-0.00174596
-0.0016712
-0.00159782
-0.00152583
-0.00145524
-0.00138606
-0.0013183
-0.00125196
-0.00118705
-0.00112358
-0.00106153
-0.00100093
-0.000941759
-0.000884028
-0.000827733
-0.000772875
-0.00071945
-0.000667456
-0.000616891
-0.00056775
-0.00052003
-0.000473726
-0.000428833
-0.000385347
-0.000343262
-0.000302572
-0.000263273
-0.000225357
-0.000188818
-0.000153652
-0.000119852
-8.7411e-05
-5.63239e-05
-2.65845e-05
1.81316e-06
2.88749e-05
5.46063e-05
7.90131e-05
0.000102101
0.000123874
0.000144339
0.0001635
0.000181362
0.000197929
0.000213206
0.000227195
0.000239902
0.000251328
0.000261477
0.000270351
0.000277953
0.000284285
0.000289349
0.000293145
0.000295676
0.00029694
-7.48302e-06
-8.72871e-06
-1.12298e-05
-1.49895e-05
-2.00108e-05
-2.62956e-05
-3.38454e-05
-4.26627e-05
-5.275e-05
-6.41105e-05
-7.67475e-05
-9.06648e-05
-0.000105867
-0.000122357
-0.000140142
-0.000159226
-0.000179615
-0.000201314
-0.000224331
-0.00024867
-0.000274339
-0.000301345
-0.000329694
-0.000359395
-0.000390454
-0.000422878
-0.000456677
-0.000491856
-0.000528425
-0.00056639
-0.00060576
-0.000646541
-0.000688742
-0.00073237
-0.000777431
-0.000823933
-0.000871882
-0.000921285
-0.000972146
-0.00102447
-0.00107827
-0.00113354
-0.00119028
-0.0012485
-0.00130821
-0.00136939
-0.00143206
-0.00149621
-0.00156184
-0.00162895
-0.00169752
-0.00176756
-0.00183906
-0.001912
-0.00198639
-0.00206219
-0.00213941
-0.00221802
-0.00229801
-0.00237935
-0.00246202
-0.002546
-0.00263126
-0.00271777
-0.0028055
-0.0028944
-0.00298445
-0.00307559
-0.0031678
-0.00326101
-0.00335518
-0.00345026
-0.00354619
-0.00364291
-0.00374035
-0.00383845
-0.00393714
-0.00403634
-0.00413598
-0.00423598
-0.00433626
-0.00443673
-0.00453729
-0.00463787
-0.00473835
-0.00483864
-0.00493864
-0.00503825
-0.00513736
-0.00523585
-0.00533363
-0.00543056
-0.00552655
-0.00562146
-0.00571519
-0.00580761
-0.0058986
-0.00598805
-0.00607583
-0.00616181
-0.00624589
-0.00632793
-0.00640783
-0.00648546
-0.0065607
-0.00663345
-0.00670358
-0.006771
-0.0068356
-0.00689727
-0.00695591
-0.00701144
-0.00706375
-0.00711277
-0.00715841
-0.0072006
-0.00723927
-0.00727435
-0.00730578
-0.00733352
-0.00735751
-0.00737772
-0.00739411
-0.00740665
-0.00741534
-0.00742014
-0.00742107
-0.00741811
-0.00741128
-0.00740059
-0.00738606
-0.00736772
-0.0073456
-0.00731974
-0.0072902
-0.00725702
-0.00722026
-0.00717998
-0.00713626
-0.00708916
-0.00703877
-0.00698518
-0.00692846
-0.00686872
-0.00680603
-0.00674052
-0.00667227
-0.00660139
-0.00652799
-0.00645217
-0.00637405
-0.00629374
-0.00621135
-0.00612699
-0.00604078
-0.00595284
-0.00586327
-0.0057722
-0.00567973
-0.00558598
-0.00549106
-0.00539508
-0.00529815
-0.00520038
-0.00510187
-0.00500274
-0.00490307
-0.00480296
-0.00470253
-0.00460185
-0.00450103
-0.00440015
-0.0042993
-0.00419856
-0.00409802
-0.00399775
-0.00389783
-0.00379832
-0.00369931
-0.00360086
-0.00350302
-0.00340587
-0.00330946
-0.00321384
-0.00311907
-0.0030252
-0.00293227
-0.00284033
-0.00274942
-0.00265958
-0.00257084
-0.00248325
-0.00239683
-0.00231161
-0.00222762
-0.00214489
-0.00206344
-0.00198328
-0.00190445
-0.00182695
-0.00175081
-0.00167604
-0.00160265
-0.00153065
-0.00146005
-0.00139086
-0.00132309
-0.00125674
-0.00119183
-0.00112834
-0.00106629
-0.00100568
-0.0009465
-0.000888762
-0.000832462
-0.000777598
-0.000724168
-0.000672169
-0.000621599
-0.000572454
-0.00052473
-0.000478422
-0.000433526
-0.000390036
-0.000347948
-0.000307255
-0.000267953
-0.000230034
-0.000193494
-0.000158325
-0.000124522
-9.20798e-05
-6.09908e-05
-3.12496e-05
-2.85042e-06
2.42128e-05
4.99456e-05
7.43537e-05
9.74425e-05
0.000119217
0.000139683
0.000158845
0.000176708
0.000193276
0.000208553
0.000222543
0.00023525
0.000246677
0.000256826
0.000265701
0.000273303
0.000279636
0.000284699
0.000288496
0.000291027
0.000292291
-1.49968e-05
-1.62479e-05
-1.87555e-05
-2.25203e-05
-2.75454e-05
-3.38333e-05
-4.13859e-05
-5.02058e-05
-6.02956e-05
-7.16586e-05
-8.42983e-05
-9.82183e-05
-0.000113423
-0.000129917
-0.000147705
-0.000166792
-0.000187185
-0.000208888
-0.000231908
-0.000256251
-0.000281925
-0.000308935
-0.000337289
-0.000366995
-0.000398059
-0.000430489
-0.000464293
-0.000499478
-0.000536052
-0.000574024
-0.0006134
-0.000654188
-0.000696396
-0.00074003
-0.000785099
-0.000831609
-0.000879566
-0.000928977
-0.000979847
-0.00103218
-0.00108599
-0.00114126
-0.00119802
-0.00125625
-0.00131597
-0.00137717
-0.00143985
-0.00150401
-0.00156965
-0.00163677
-0.00170536
-0.00177542
-0.00184693
-0.00191989
-0.0019943
-0.00207012
-0.00214736
-0.00222599
-0.002306
-0.00238737
-0.00247007
-0.00255407
-0.00263936
-0.0027259
-0.00281365
-0.00290259
-0.00299267
-0.00308386
-0.0031761
-0.00326935
-0.00336357
-0.00345869
-0.00355466
-0.00365142
-0.00374891
-0.00384706
-0.00394581
-0.00404507
-0.00414477
-0.00424483
-0.00434517
-0.0044457
-0.00454633
-0.00464697
-0.00474752
-0.00484789
-0.00494796
-0.00504765
-0.00514683
-0.0052454
-0.00534325
-0.00544027
-0.00553633
-0.00563133
-0.00572514
-0.00581764
-0.00590872
-0.00599825
-0.00608611
-0.00617218
-0.00625634
-0.00633847
-0.00641844
-0.00649615
-0.00657147
-0.00664429
-0.0067145
-0.006782
-0.00684666
-0.0069084
-0.0069671
-0.00702269
-0.00707506
-0.00712413
-0.00716982
-0.00721206
-0.00725077
-0.00728588
-0.00731735
-0.00734511
-0.00736913
-0.00738936
-0.00740576
-0.00741831
-0.007427
-0.00743181
-0.00743272
-0.00742975
-0.00742291
-0.00741219
-0.00739764
-0.00737926
-0.00735711
-0.00733121
-0.00730162
-0.00726839
-0.00723158
-0.00719124
-0.00714746
-0.0071003
-0.00704985
-0.00699618
-0.00693939
-0.00687957
-0.00681681
-0.00675121
-0.00668288
-0.00661191
-0.00653842
-0.00646252
-0.00638431
-0.00630391
-0.00622143
-0.00613698
-0.00605068
-0.00596265
-0.00587299
-0.00578183
-0.00568927
-0.00559543
-0.00550042
-0.00540436
-0.00530735
-0.00520949
-0.0051109
-0.00501168
-0.00491193
-0.00481176
-0.00471124
-0.0046105
-0.0045096
-0.00440865
-0.00430773
-0.00420693
-0.00410632
-0.00400599
-0.00390601
-0.00380645
-0.00370738
-0.00360887
-0.00351098
-0.00341378
-0.00331732
-0.00322165
-0.00312684
-0.00303292
-0.00293995
-0.00284798
-0.00275703
-0.00266715
-0.00257838
-0.00249076
-0.00240431
-0.00231906
-0.00223504
-0.00215229
-0.00207081
-0.00199063
-0.00191177
-0.00183426
-0.0017581
-0.0016833
-0.00160989
-0.00153787
-0.00146726
-0.00139806
-0.00133027
-0.00126391
-0.00119898
-0.00113548
-0.00107342
-0.0010128
-0.00095361
-0.000895863
-0.000839554
-0.000784681
-0.000731243
-0.000679237
-0.00062866
-0.000579509
-0.000531778
-0.000485465
-0.000440563
-0.000397068
-0.000354975
-0.000314278
-0.000274971
-0.000237049
-0.000200504
-0.000165332
-0.000131527
-9.9081e-05
-6.79892e-05
-3.82454e-05
-9.84377e-06
1.72217e-05
4.29566e-05
6.73667e-05
9.04573e-05
0.000112234
0.000132701
0.000151865
0.000169729
0.000186298
0.000201576
0.000215568
0.000228275
0.000239703
0.000249853
0.000258728
0.000266331
0.000272664
0.000277728
0.000281525
0.000284056
0.00028532
-2.50286e-05
-2.62822e-05
-2.87935e-05
-3.25622e-05
-3.7591e-05
-4.38821e-05
-5.1438e-05
-6.0261e-05
-7.03541e-05
-8.17204e-05
-9.43635e-05
-0.000108287
-0.000123496
-0.000139994
-0.000157786
-0.000176878
-0.000197275
-0.000218984
-0.000242009
-0.000266358
-0.000292037
-0.000319054
-0.000347414
-0.000377126
-0.000408197
-0.000440635
-0.000474446
-0.000509639
-0.000546222
-0.000584201
-0.000623586
-0.000664383
-0.0007066
-0.000750244
-0.000795323
-0.000841843
-0.000889811
-0.000939234
-0.000990116
-0.00104246
-0.00109628
-0.00115157
-0.00120834
-0.00126659
-0.00132632
-0.00138753
-0.00145023
-0.00151441
-0.00158007
-0.00164721
-0.00171582
-0.0017859
-0.00185743
-0.00193042
-0.00200485
-0.0020807
-0.00215796
-0.00223663
-0.00231667
-0.00239806
-0.0024808
-0.00256484
-0.00265017
-0.00273674
-0.00282454
-0.00291352
-0.00300365
-0.00309488
-0.00318717
-0.00328048
-0.00337475
-0.00346993
-0.00356596
-0.00366279
-0.00376035
-0.00385857
-0.00395738
-0.00405672
-0.0041565
-0.00425664
-0.00435706
-0.00445768
-0.0045584
-0.00465913
-0.00475977
-0.00486023
-0.0049604
-0.00506019
-0.00515947
-0.00525815
-0.00535611
-0.00545323
-0.0055494
-0.00564451
-0.00573843
-0.00583104
-0.00592223
-0.00601187
-0.00609985
-0.00618603
-0.0062703
-0.00635253
-0.00643262
-0.00651043
-0.00658586
-0.00665878
-0.00672909
-0.00679668
-0.00686144
-0.00692326
-0.00698206
-0.00703772
-0.00709017
-0.00713931
-0.00718507
-0.00722737
-0.00726613
-0.0073013
-0.00733281
-0.00736061
-0.00738465
-0.0074049
-0.00742133
-0.00743389
-0.00744258
-0.00744739
-0.0074483
-0.00744531
-0.00743844
-0.0074277
-0.00741311
-0.00739469
-0.00737249
-0.00734654
-0.00731689
-0.00728359
-0.0072467
-0.00720629
-0.00716243
-0.00711518
-0.00706464
-0.00701087
-0.00695398
-0.00689406
-0.00683119
-0.00676549
-0.00669704
-0.00662596
-0.00655236
-0.00647634
-0.00639801
-0.00631749
-0.00623489
-0.00615032
-0.0060639
-0.00597575
-0.00588597
-0.00579469
-0.00570201
-0.00560805
-0.00551293
-0.00541675
-0.00531962
-0.00522166
-0.00512296
-0.00502363
-0.00492377
-0.00482349
-0.00472288
-0.00462203
-0.00452104
-0.00442
-0.00431899
-0.00421809
-0.0041174
-0.00401698
-0.00391692
-0.00381728
-0.00371814
-0.00361956
-0.0035216
-0.00342433
-0.00332781
-0.00323208
-0.00313721
-0.00304324
-0.00295021
-0.00285818
-0.00276718
-0.00267726
-0.00258845
-0.00250078
-0.00241429
-0.002329
-0.00224495
-0.00216215
-0.00208064
-0.00200043
-0.00192154
-0.001844
-0.00176781
-0.00169299
-0.00161955
-0.00154751
-0.00147688
-0.00140765
-0.00133985
-0.00127347
-0.00120852
-0.00114501
-0.00108293
-0.00102229
-0.000963092
-0.000905332
-0.000849011
-0.000794127
-0.000740678
-0.000688662
-0.000638076
-0.000588915
-0.000541176
-0.000494855
-0.000449946
-0.000406444
-0.000364345
-0.000323641
-0.000284329
-0.000246401
-0.000209852
-0.000174675
-0.000140865
-0.000108415
-7.73193e-05
-4.7572e-05
-1.9167e-05
7.90156e-06
3.36394e-05
5.80522e-05
8.11454e-05
0.000102924
0.000123394
0.00014256
0.000160426
0.000176996
0.000192276
0.000206269
0.000218977
0.000230406
0.000240557
0.000249433
0.000257037
0.00026337
0.000268435
0.000272232
0.000274763
0.000276027
-3.75732e-05
-3.88281e-05
-4.1342e-05
-4.5114e-05
-5.01461e-05
-5.64408e-05
-6.40002e-05
-7.28269e-05
-8.29239e-05
-9.42943e-05
-0.000106942
-0.00012087
-0.000136084
-0.000152587
-0.000170385
-0.000189483
-0.000209886
-0.000231601
-0.000254633
-0.000278989
-0.000304676
-0.0003317
-0.000360069
-0.00038979
-0.000420869
-0.000453316
-0.000487137
-0.00052234
-0.000558933
-0.000596923
-0.000636319
-0.000677127
-0.000719356
-0.000763013
-0.000808105
-0.000854638
-0.00090262
-0.000952057
-0.00100295
-0.00105532
-0.00110915
-0.00116446
-0.00122124
-0.00127951
-0.00133926
-0.0014005
-0.00146322
-0.00152742
-0.0015931
-0.00166026
-0.0017289
-0.00179901
-0.00187057
-0.00194359
-0.00201804
-0.00209393
-0.00217123
-0.00224993
-0.00233001
-0.00241145
-0.00249422
-0.00257831
-0.00266368
-0.00275031
-0.00283816
-0.0029272
-0.00301739
-0.00310868
-0.00320104
-0.00329441
-0.00338875
-0.00348401
-0.00358012
-0.00367702
-0.00377466
-0.00387297
-0.00397188
-0.0040713
-0.00417118
-0.00427142
-0.00437195
-0.00447267
-0.0045735
-0.00467435
-0.00477511
-0.00487569
-0.00497599
-0.00507589
-0.00517531
-0.00527412
-0.0053722
-0.00546946
-0.00556577
-0.00566102
-0.00575508
-0.00584783
-0.00593916
-0.00602894
-0.00611706
-0.00620338
-0.00628778
-0.00637016
-0.00645038
-0.00652832
-0.00660388
-0.00667693
-0.00674737
-0.00681508
-0.00687995
-0.00694189
-0.00700079
-0.00705656
-0.0071091
-0.00715834
-0.00720418
-0.00724655
-0.00728538
-0.00732061
-0.00735218
-0.00738003
-0.00740411
-0.00742439
-0.00744084
-0.00745342
-0.00746211
-0.00746691
-0.00746781
-0.00746481
-0.00745791
-0.00744713
-0.00743249
-0.00741402
-0.00739176
-0.00736574
-0.00733602
-0.00730263
-0.00726566
-0.00722515
-0.00718118
-0.00713383
-0.00708317
-0.00702929
-0.00697227
-0.00691222
-0.00684922
-0.00678338
-0.00671479
-0.00664357
-0.00656982
-0.00649365
-0.00641518
-0.00633451
-0.00625175
-0.00616703
-0.00608046
-0.00599216
-0.00590223
-0.00581079
-0.00571797
-0.00562386
-0.00552859
-0.00543227
-0.00533499
-0.00523689
-0.00513805
-0.00503859
-0.0049386
-0.00483818
-0.00473744
-0.00463647
-0.00453536
-0.0044342
-0.00433307
-0.00423207
-0.00413127
-0.00403075
-0.00393058
-0.00383085
-0.00373161
-0.00363294
-0.00353489
-0.00343754
-0.00334093
-0.00324513
-0.00315018
-0.00305614
-0.00296305
-0.00287095
-0.00277989
-0.00268991
-0.00260104
-0.00251331
-0.00242677
-0.00234143
-0.00225733
-0.00217449
-0.00209294
-0.00201269
-0.00193376
-0.00185618
-0.00177996
-0.00170511
-0.00163164
-0.00155957
-0.00148891
-0.00141965
-0.00135183
-0.00128542
-0.00122045
-0.00115692
-0.00109482
-0.00103416
-0.000974948
-0.000917171
-0.000860835
-0.000805936
-0.000752474
-0.000700445
-0.000649846
-0.000600674
-0.000552925
-0.000506593
-0.000461675
-0.000418165
-0.000376057
-0.000335346
-0.000296025
-0.000258091
-0.000221535
-0.000186352
-0.000152536
-0.000120081
-8.89806e-05
-5.92288e-05
-3.08195e-05
-3.74694e-06
2.19946e-05
4.64109e-05
6.95074e-05
9.12894e-05
0.000111762
0.00013093
0.000148798
0.000165371
0.000180653
0.000194647
0.000207358
0.000218787
0.00022894
0.000237817
0.000245422
0.000251756
0.000256821
0.000260619
0.000263151
0.000264415
-5.26262e-05
-5.38822e-05
-5.63981e-05
-6.01729e-05
-6.52084e-05
-7.15067e-05
-7.907e-05
-8.7901e-05
-9.80026e-05
-0.000109378
-0.000122031
-0.000135965
-0.000151184
-0.000167694
-0.000185498
-0.000204603
-0.000225014
-0.000246737
-0.000269778
-0.000294143
-0.000319839
-0.000346873
-0.000375252
-0.000404983
-0.000436073
-0.000468531
-0.000502364
-0.000537579
-0.000574185
-0.000612189
-0.000651598
-0.000692421
-0.000734665
-0.000778337
-0.000823444
-0.000869994
-0.000917993
-0.000967448
-0.00101836
-0.00107074
-0.0011246
-0.00117993
-0.00123674
-0.00129503
-0.0013548
-0.00141606
-0.0014788
-0.00154303
-0.00160875
-0.00167594
-0.00174461
-0.00181475
-0.00188634
-0.0019594
-0.00203389
-0.00210982
-0.00218716
-0.00226591
-0.00234604
-0.00242752
-0.00251035
-0.0025945
-0.00267993
-0.00276662
-0.00285453
-0.00294364
-0.00303389
-0.00312526
-0.0032177
-0.00331115
-0.00340558
-0.00350092
-0.00359712
-0.00369413
-0.00379187
-0.00389028
-0.0039893
-0.00408884
-0.00418883
-0.0042892
-0.00438985
-0.0044907
-0.00459167
-0.00469265
-0.00479356
-0.00489428
-0.00499473
-0.00509479
-0.00519436
-0.00529332
-0.00539157
-0.00548899
-0.00558547
-0.00568088
-0.00577511
-0.00586803
-0.00595953
-0.00604948
-0.00613776
-0.00622425
-0.00630883
-0.00639137
-0.00647175
-0.00654986
-0.00662558
-0.00669878
-0.00676937
-0.00683722
-0.00690224
-0.00696431
-0.00702334
-0.00707924
-0.0071319
-0.00718124
-0.00722718
-0.00726965
-0.00730856
-0.00734387
-0.0073755
-0.0074034
-0.00742754
-0.00744785
-0.00746433
-0.00747692
-0.00748563
-0.00749042
-0.00749131
-0.00748828
-0.00748135
-0.00747052
-0.00745583
-0.0074373
-0.00741496
-0.00738886
-0.00735904
-0.00732556
-0.00728847
-0.00724785
-0.00720376
-0.00715627
-0.00710547
-0.00705145
-0.00699428
-0.00693407
-0.00687091
-0.0068049
-0.00673615
-0.00666476
-0.00659083
-0.00651449
-0.00643583
-0.00635498
-0.00627204
-0.00618714
-0.00610039
-0.0060119
-0.00592178
-0.00583017
-0.00573716
-0.00564288
-0.00554743
-0.00545093
-0.00535348
-0.00525521
-0.0051562
-0.00505657
-0.00495642
-0.00485585
-0.00475496
-0.00465384
-0.00455258
-0.00445127
-0.00435001
-0.00424887
-0.00414794
-0.00404729
-0.00394701
-0.00384715
-0.0037478
-0.00364902
-0.00355087
-0.00345341
-0.00335671
-0.00326081
-0.00316577
-0.00307164
-0.00297846
-0.00288629
-0.00279515
-0.0027051
-0.00261616
-0.00252837
-0.00244176
-0.00235636
-0.00227221
-0.00218931
-0.00210771
-0.00202741
-0.00194844
-0.00187081
-0.00179454
-0.00171965
-0.00164615
-0.00157404
-0.00150335
-0.00143406
-0.00136621
-0.00129977
-0.00123478
-0.00117122
-0.0011091
-0.00104842
-0.000989178
-0.000931382
-0.000875026
-0.00082011
-0.000766631
-0.000714586
-0.000663973
-0.000614787
-0.000567024
-0.000520681
-0.00047575
-0.000432229
-0.000390111
-0.00034939
-0.000310061
-0.000272118
-0.000235554
-0.000200364
-0.000166541
-0.000134079
-0.000102972
-7.32148e-05
-4.48002e-05
-1.77226e-05
8.02362e-06
3.24443e-05
5.55449e-05
7.73307e-05
9.78068e-05
0.000116978
0.000134849
0.000151425
0.000166709
0.000180706
0.000193418
0.000204849
0.000215003
0.000223882
0.000231487
0.000237823
0.000242889
0.000246687
0.000249219
0.000250484
-7.01836e-05
-7.14405e-05
-7.39583e-05
-7.77358e-05
-8.27746e-05
-8.90768e-05
-9.66445e-05
-0.00010548
-0.000115587
-0.000126968
-0.000139627
-0.000153568
-0.000168794
-0.000185312
-0.000203124
-0.000222238
-0.000242658
-0.00026439
-0.000287441
-0.000311817
-0.000337524
-0.00036457
-0.000392961
-0.000422704
-0.000453808
-0.00048628
-0.000520127
-0.000555357
-0.000591978
-0.000629998
-0.000669424
-0.000710264
-0.000752525
-0.000796216
-0.000841342
-0.000887912
-0.000935932
-0.000985408
-0.00103635
-0.00108875
-0.00114263
-0.00119798
-0.00125482
-0.00131313
-0.00137294
-0.00143423
-0.001497
-0.00156127
-0.00162701
-0.00169424
-0.00176295
-0.00183312
-0.00190476
-0.00197786
-0.0020524
-0.00212838
-0.00220577
-0.00228457
-0.00236475
-0.0024463
-0.00252919
-0.0026134
-0.0026989
-0.00278567
-0.00287366
-0.00296284
-0.00305318
-0.00314464
-0.00323717
-0.00333072
-0.00342525
-0.00352069
-0.00361701
-0.00371413
-0.00381199
-0.00391053
-0.00400967
-0.00410935
-0.00420948
-0.00430999
-0.00441079
-0.0045118
-0.00461292
-0.00471406
-0.00481513
-0.00491603
-0.00501665
-0.00511689
-0.00521664
-0.00531579
-0.00541423
-0.00551185
-0.00560852
-0.00570412
-0.00579855
-0.00589167
-0.00598337
-0.00607352
-0.006162
-0.00624869
-0.00633346
-0.0064162
-0.00649677
-0.00657507
-0.00665097
-0.00672436
-0.00679513
-0.00686315
-0.00692834
-0.00699057
-0.00704975
-0.00710579
-0.00715858
-0.00720806
-0.00725412
-0.00729669
-0.00733571
-0.0073711
-0.00740281
-0.00743078
-0.00745497
-0.00747533
-0.00749183
-0.00750445
-0.00751316
-0.00751796
-0.00751882
-0.00751577
-0.00750879
-0.00749792
-0.00748316
-0.00746455
-0.00744213
-0.00741593
-0.007386
-0.0073524
-0.00731519
-0.00727443
-0.00723019
-0.00718255
-0.00713159
-0.00707739
-0.00702005
-0.00695966
-0.00689631
-0.00683011
-0.00676115
-0.00668956
-0.00661543
-0.00653887
-0.00646
-0.00637894
-0.00629579
-0.00621067
-0.0061237
-0.00603499
-0.00594467
-0.00585284
-0.00575962
-0.00566512
-0.00556946
-0.00547276
-0.00537511
-0.00527663
-0.00517743
-0.00507761
-0.00497727
-0.00487651
-0.00477544
-0.00467414
-0.00457271
-0.00447124
-0.00436981
-0.00426851
-0.00416743
-0.00406663
-0.0039662
-0.00386621
-0.00376672
-0.00366781
-0.00356954
-0.00347196
-0.00337514
-0.00327913
-0.00318399
-0.00308975
-0.00299648
-0.00290421
-0.00281298
-0.00272284
-0.00263382
-0.00254595
-0.00245927
-0.0023738
-0.00228958
-0.00220662
-0.00212495
-0.0020446
-0.00196557
-0.00188789
-0.00181158
-0.00173664
-0.00166309
-0.00159094
-0.0015202
-0.00145088
-0.00138299
-0.00131653
-0.0012515
-0.00118791
-0.00112576
-0.00106505
-0.00100579
-0.000947966
-0.000891588
-0.00083665
-0.000783151
-0.000731088
-0.000680456
-0.000631254
-0.000583475
-0.000537117
-0.000492173
-0.000448638
-0.000406507
-0.000365775
-0.000326435
-0.000288481
-0.000251908
-0.000216708
-0.000182877
-0.000150407
-0.000119293
-8.95288e-05
-6.11077e-05
-3.40241e-05
-8.27211e-06
1.61539e-05
3.92594e-05
6.10498e-05
8.15302e-05
0.000100706
0.00011858
0.000135159
0.000150446
0.000164446
0.00017716
0.000188594
0.00019875
0.00020763
0.000215237
0.000221573
0.00022664
0.000230439
0.000232972
0.000234237
-9.02407e-05
-9.14987e-05
-9.40184e-05
-9.77986e-05
-0.000102841
-0.000109147
-0.00011672
-0.000125561
-0.000135674
-0.000147062
-0.000159728
-0.000173676
-0.000188911
-0.000205437
-0.00022326
-0.000242383
-0.000262814
-0.000284558
-0.000307621
-0.000332009
-0.000357729
-0.000384789
-0.000413194
-0.000442953
-0.000474072
-0.00050656
-0.000540424
-0.000575672
-0.000612311
-0.00065035
-0.000689795
-0.000730656
-0.000772938
-0.000816651
-0.0008618
-0.000908394
-0.000956438
-0.00100594
-0.0010569
-0.00110934
-0.00116324
-0.00121862
-0.00127549
-0.00133384
-0.00139368
-0.001455
-0.00151781
-0.00158212
-0.0016479
-0.00171517
-0.00178392
-0.00185415
-0.00192584
-0.00199899
-0.00207358
-0.00214961
-0.00222707
-0.00230593
-0.00238618
-0.0024678
-0.00255076
-0.00263505
-0.00272063
-0.00280747
-0.00289555
-0.00298483
-0.00307527
-0.00316683
-0.00325946
-0.00335313
-0.00344777
-0.00354334
-0.00363978
-0.00373704
-0.00383504
-0.00393372
-0.00403301
-0.00413284
-0.00423314
-0.00433381
-0.00443478
-0.00453597
-0.00463727
-0.0047386
-0.00483987
-0.00494096
-0.00504179
-0.00514223
-0.00524219
-0.00534156
-0.00544022
-0.00553805
-0.00563495
-0.00573078
-0.00582543
-0.00591879
-0.00601071
-0.0061011
-0.00618981
-0.00627672
-0.00636172
-0.00644469
-0.00652548
-0.006604
-0.00668012
-0.00675372
-0.00682469
-0.00689291
-0.00695829
-0.0070207
-0.00708006
-0.00713626
-0.00718922
-0.00723884
-0.00728503
-0.00732773
-0.00736687
-0.00740236
-0.00743416
-0.00746221
-0.00748646
-0.00750687
-0.00752341
-0.00753605
-0.00754477
-0.00754956
-0.00755041
-0.00754732
-0.0075403
-0.00752936
-0.00751453
-0.00749584
-0.00747332
-0.007447
-0.00741695
-0.00738322
-0.00734585
-0.00730493
-0.00726052
-0.00721271
-0.00716156
-0.00710716
-0.00704962
-0.00698901
-0.00692545
-0.00685902
-0.00678984
-0.00671801
-0.00664364
-0.00656684
-0.00648773
-0.00640642
-0.00632302
-0.00623765
-0.00615044
-0.00606148
-0.0059709
-0.00587883
-0.00578536
-0.00569062
-0.00559473
-0.00549778
-0.0053999
-0.00530119
-0.00520176
-0.00510172
-0.00500116
-0.00490019
-0.00479891
-0.0046974
-0.00459577
-0.00449411
-0.00439249
-0.00429101
-0.00418975
-0.00408878
-0.00398819
-0.00388803
-0.00378839
-0.00368933
-0.00359091
-0.0034932
-0.00339624
-0.00330011
-0.00320484
-0.00311049
-0.0030171
-0.00292472
-0.00283339
-0.00274315
-0.00265404
-0.00256608
-0.00247931
-0.00239376
-0.00230946
-0.00222642
-0.00214469
-0.00206426
-0.00198517
-0.00190743
-0.00183106
-0.00175607
-0.00168247
-0.00161027
-0.00153948
-0.00147012
-0.00140218
-0.00133568
-0.00127061
-0.00120699
-0.00114481
-0.00108407
-0.00102477
-0.000966926
-0.000910521
-0.000855558
-0.000802036
-0.00074995
-0.000699298
-0.000650075
-0.000602278
-0.000555902
-0.000510942
-0.000467391
-0.000425246
-0.0003845
-0.000345147
-0.000307181
-0.000270596
-0.000235386
-0.000201544
-0.000169065
-0.000137942
-0.000108169
-7.97405e-05
-5.26496e-05
-2.68908e-05
-2.4584e-06
2.06531e-05
4.2449e-05
6.29346e-05
8.21146e-05
9.99939e-05
0.000116577
0.000131867
0.00014587
0.000158587
0.000170024
0.000180182
0.000189064
0.000196673
0.00020301
0.000208078
0.000211879
0.000214412
0.000215677
-0.000112793
-0.000114052
-0.000116574
-0.000120357
-0.000125403
-0.000131714
-0.000139292
-0.000148139
-0.000158259
-0.000169654
-0.000182328
-0.000196286
-0.000211531
-0.000228067
-0.000245901
-0.000265036
-0.00028548
-0.000307237
-0.000330313
-0.000354716
-0.000380452
-0.000407528
-0.00043595
-0.000465726
-0.000496864
-0.000529371
-0.000563255
-0.000598523
-0.000635184
-0.000673245
-0.000712713
-0.000753597
-0.000795904
-0.000839642
-0.000884818
-0.000931439
-0.000979512
-0.00102904
-0.00108004
-0.0011325
-0.00118644
-0.00124186
-0.00129876
-0.00135715
-0.00141702
-0.00147839
-0.00154125
-0.00160559
-0.00167143
-0.00173875
-0.00180755
-0.00187783
-0.00194957
-0.00202278
-0.00209744
-0.00217354
-0.00225106
-0.00232999
-0.00241032
-0.00249202
-0.00257506
-0.00265944
-0.00274511
-0.00283205
-0.00292024
-0.00300962
-0.00310017
-0.00319185
-0.0032846
-0.0033784
-0.00347317
-0.00356889
-0.00366547
-0.00376288
-0.00386104
-0.00395988
-0.00405934
-0.00415935
-0.00425983
-0.00436069
-0.00446186
-0.00456325
-0.00466476
-0.00476631
-0.00486779
-0.00496911
-0.00507016
-0.00517085
-0.00527105
-0.00537066
-0.00546957
-0.00556765
-0.0056648
-0.00576089
-0.0058558
-0.00594942
-0.00604161