/*--------------------------------*- C++ -*----------------------------------*\
| =========                 |                                                 |
| \\      /  F ield         | OpenFOAM: The Open Source CFD Toolbox           |
|  \\    /   O peration     | Version:  v2012                                 |
|   \\  /    A nd           | Website:  www.openfoam.com                      |
|    \\/     M anipulation  |                                                 |
\*---------------------------------------------------------------------------*/
FoamFile
{
    version     2.0;
    format      ascii;
    class       volVectorField;
    location    "15.5";
    object      Psi;
}
// * * * * * * * * * * * * * * * * * * * * * * * * * * * * * * * * * * * * * //

dimensions      [0 2 -1 0 0 0 0];


internalField   nonuniform List<vector> 
65536
(
(0 0 8.42726e-06)
(0 0 2.52823e-05)
(0 0 4.21389e-05)
(0 0 5.89982e-05)
(0 0 7.58613e-05)
(0 0 9.27291e-05)
(0 0 0.000109603)
(0 0 0.000126483)
(0 0 0.000143372)
(0 0 0.000160269)
(0 0 0.000177176)
(0 0 0.000194094)
(0 0 0.000211024)
(0 0 0.000227966)
(0 0 0.000244922)
(0 0 0.000261892)
(0 0 0.000278878)
(0 0 0.000295879)
(0 0 0.000312897)
(0 0 0.000329932)
(0 0 0.000346985)
(0 0 0.000364057)
(0 0 0.000381148)
(0 0 0.000398259)
(0 0 0.000415389)
(0 0 0.00043254)
(0 0 0.000449711)
(0 0 0.000466903)
(0 0 0.000484116)
(0 0 0.000501351)
(0 0 0.000518606)
(0 0 0.000535882)
(0 0 0.000553179)
(0 0 0.000570497)
(0 0 0.000587835)
(0 0 0.000605193)
(0 0 0.000622569)
(0 0 0.000639965)
(0 0 0.000657378)
(0 0 0.000674808)
(0 0 0.000692253)
(0 0 0.000709714)
(0 0 0.000727188)
(0 0 0.000744674)
(0 0 0.000762171)
(0 0 0.000779677)
(0 0 0.00079719)
(0 0 0.000814708)
(0 0 0.00083223)
(0 0 0.000849752)
(0 0 0.000867273)
(0 0 0.00088479)
(0 0 0.000902301)
(0 0 0.000919802)
(0 0 0.00093729)
(0 0 0.000954762)
(0 0 0.000972215)
(0 0 0.000989645)
(0 0 0.00100705)
(0 0 0.00102442)
(0 0 0.00104176)
(0 0 0.00105906)
(0 0 0.00107632)
(0 0 0.00109352)
(0 0 0.00111068)
(0 0 0.00112777)
(0 0 0.0011448)
(0 0 0.00116177)
(0 0 0.00117866)
(0 0 0.00119546)
(0 0 0.00121219)
(0 0 0.00122881)
(0 0 0.00124534)
(0 0 0.00126177)
(0 0 0.00127808)
(0 0 0.00129427)
(0 0 0.00131033)
(0 0 0.00132626)
(0 0 0.00134205)
(0 0 0.00135769)
(0 0 0.00137317)
(0 0 0.00138849)
(0 0 0.00140363)
(0 0 0.0014186)
(0 0 0.00143337)
(0 0 0.00144795)
(0 0 0.00146232)
(0 0 0.00147648)
(0 0 0.00149041)
(0 0 0.00150411)
(0 0 0.00151758)
(0 0 0.00153079)
(0 0 0.00154375)
(0 0 0.00155644)
(0 0 0.00156886)
(0 0 0.001581)
(0 0 0.00159284)
(0 0 0.00160438)
(0 0 0.00161562)
(0 0 0.00162654)
(0 0 0.00163714)
(0 0 0.0016474)
(0 0 0.00165732)
(0 0 0.0016669)
(0 0 0.00167612)
(0 0 0.00168498)
(0 0 0.00169347)
(0 0 0.00170159)
(0 0 0.00170932)
(0 0 0.00171666)
(0 0 0.00172361)
(0 0 0.00173016)
(0 0 0.00173631)
(0 0 0.00174205)
(0 0 0.00174737)
(0 0 0.00175227)
(0 0 0.00175675)
(0 0 0.00176081)
(0 0 0.00176443)
(0 0 0.00176762)
(0 0 0.00177038)
(0 0 0.00177271)
(0 0 0.00177459)
(0 0 0.00177604)
(0 0 0.00177705)
(0 0 0.00177762)
(0 0 0.00177775)
(0 0 0.00177744)
(0 0 0.00177669)
(0 0 0.0017755)
(0 0 0.00177388)
(0 0 0.00177183)
(0 0 0.00176935)
(0 0 0.00176644)
(0 0 0.0017631)
(0 0 0.00175935)
(0 0 0.00175517)
(0 0 0.00175059)
(0 0 0.0017456)
(0 0 0.0017402)
(0 0 0.00173441)
(0 0 0.00172823)
(0 0 0.00172165)
(0 0 0.0017147)
(0 0 0.00170738)
(0 0 0.00169969)
(0 0 0.00169163)
(0 0 0.00168323)
(0 0 0.00167447)
(0 0 0.00166538)
(0 0 0.00165595)
(0 0 0.0016462)
(0 0 0.00163614)
(0 0 0.00162576)
(0 0 0.00161508)
(0 0 0.00160411)
(0 0 0.00159286)
(0 0 0.00158133)
(0 0 0.00156952)
(0 0 0.00155746)
(0 0 0.00154514)
(0 0 0.00153258)
(0 0 0.00151978)
(0 0 0.00150676)
(0 0 0.00149351)
(0 0 0.00148004)
(0 0 0.00146638)
(0 0 0.00145251)
(0 0 0.00143845)
(0 0 0.00142422)
(0 0 0.0014098)
(0 0 0.00139522)
(0 0 0.00138048)
(0 0 0.00136558)
(0 0 0.00135054)
(0 0 0.00133536)
(0 0 0.00132005)
(0 0 0.00130461)
(0 0 0.00128905)
(0 0 0.00127338)
(0 0 0.00125759)
(0 0 0.00124171)
(0 0 0.00122573)
(0 0 0.00120967)
(0 0 0.00119351)
(0 0 0.00117728)
(0 0 0.00116097)
(0 0 0.0011446)
(0 0 0.00112816)
(0 0 0.00111166)
(0 0 0.00109511)
(0 0 0.0010785)
(0 0 0.00106185)
(0 0 0.00104516)
(0 0 0.00102842)
(0 0 0.00101165)
(0 0 0.000994855)
(0 0 0.000978028)
(0 0 0.000961176)
(0 0 0.000944302)
(0 0 0.000927409)
(0 0 0.000910501)
(0 0 0.000893579)
(0 0 0.000876647)
(0 0 0.000859706)
(0 0 0.000842759)
(0 0 0.000825809)
(0 0 0.000808856)
(0 0 0.000791904)
(0 0 0.000774953)
(0 0 0.000758006)
(0 0 0.000741063)
(0 0 0.000724127)
(0 0 0.000707199)
(0 0 0.00069028)
(0 0 0.00067337)
(0 0 0.000656472)
(0 0 0.000639585)
(0 0 0.000622711)
(0 0 0.000605851)
(0 0 0.000589004)
(0 0 0.000572172)
(0 0 0.000555356)
(0 0 0.000538554)
(0 0 0.000521769)
(0 0 0.000504999)
(0 0 0.000488246)
(0 0 0.000471508)
(0 0 0.000454788)
(0 0 0.000438083)
(0 0 0.000421394)
(0 0 0.000404722)
(0 0 0.000388065)
(0 0 0.000371424)
(0 0 0.000354798)
(0 0 0.000338187)
(0 0 0.00032159)
(0 0 0.000305008)
(0 0 0.000288439)
(0 0 0.000271883)
(0 0 0.000255339)
(0 0 0.000238808)
(0 0 0.000222288)
(0 0 0.000205778)
(0 0 0.000189278)
(0 0 0.000172787)
(0 0 0.000156305)
(0 0 0.000139831)
(0 0 0.000123364)
(0 0 0.000106902)
(0 0 9.04467e-05)
(0 0 7.39956e-05)
(0 0 5.75482e-05)
(0 0 4.11037e-05)
(0 0 2.46614e-05)
(0 0 8.22033e-06)
(0 0 2.52814e-05)
(0 0 7.58456e-05)
(0 0 0.000126415)
(0 0 0.000176991)
(0 0 0.00022758)
(0 0 0.000278182)
(0 0 0.000328802)
(0 0 0.000379443)
(0 0 0.000430107)
(0 0 0.000480798)
(0 0 0.000531519)
(0 0 0.000582272)
(0 0 0.00063306)
(0 0 0.000683886)
(0 0 0.000734753)
(0 0 0.000785663)
(0 0 0.000836618)
(0 0 0.000887622)
(0 0 0.000938675)
(0 0 0.00098978)
(0 0 0.00104094)
(0 0 0.00109215)
(0 0 0.00114343)
(0 0 0.00119476)
(0 0 0.00124615)
(0 0 0.0012976)
(0 0 0.00134911)
(0 0 0.00140069)
(0 0 0.00145233)
(0 0 0.00150403)
(0 0 0.0015558)
(0 0 0.00160763)
(0 0 0.00165952)
(0 0 0.00171147)
(0 0 0.00176349)
(0 0 0.00181556)
(0 0 0.00186769)
(0 0 0.00191988)
(0 0 0.00197212)
(0 0 0.00202441)
(0 0 0.00207675)
(0 0 0.00212913)
(0 0 0.00218155)
(0 0 0.00223401)
(0 0 0.00228651)
(0 0 0.00233903)
(0 0 0.00239157)
(0 0 0.00244412)
(0 0 0.00249669)
(0 0 0.00254926)
(0 0 0.00260183)
(0 0 0.00265438)
(0 0 0.00270692)
(0 0 0.00275942)
(0 0 0.00281189)
(0 0 0.00286431)
(0 0 0.00291667)
(0 0 0.00296897)
(0 0 0.00302118)
(0 0 0.0030733)
(0 0 0.00312532)
(0 0 0.00317723)
(0 0 0.003229)
(0 0 0.00328062)
(0 0 0.00333209)
(0 0 0.00338338)
(0 0 0.00343449)
(0 0 0.00348538)
(0 0 0.00353605)
(0 0 0.00358648)
(0 0 0.00363665)
(0 0 0.00368655)
(0 0 0.00373614)
(0 0 0.00378541)
(0 0 0.00383435)
(0 0 0.00388293)
(0 0 0.00393113)
(0 0 0.00397893)
(0 0 0.0040263)
(0 0 0.00407322)
(0 0 0.00411968)
(0 0 0.00416564)
(0 0 0.00421108)
(0 0 0.00425598)
(0 0 0.00430031)
(0 0 0.00434405)
(0 0 0.00438717)
(0 0 0.00442965)
(0 0 0.00447147)
(0 0 0.00451259)
(0 0 0.00455298)
(0 0 0.00459264)
(0 0 0.00463152)
(0 0 0.0046696)
(0 0 0.00470687)
(0 0 0.00474328)
(0 0 0.00477882)
(0 0 0.00481346)
(0 0 0.00484718)
(0 0 0.00487994)
(0 0 0.00491174)
(0 0 0.00494254)
(0 0 0.00497232)
(0 0 0.00500105)
(0 0 0.00502873)
(0 0 0.00505531)
(0 0 0.00508079)
(0 0 0.00510514)
(0 0 0.00512834)
(0 0 0.00515038)
(0 0 0.00517124)
(0 0 0.0051909)
(0 0 0.00520934)
(0 0 0.00522655)
(0 0 0.00524252)
(0 0 0.00525723)
(0 0 0.00527068)
(0 0 0.00528285)
(0 0 0.00529373)
(0 0 0.00530331)
(0 0 0.00531159)
(0 0 0.00531856)
(0 0 0.00532422)
(0 0 0.00532856)
(0 0 0.00533159)
(0 0 0.00533329)
(0 0 0.00533368)
(0 0 0.00533275)
(0 0 0.0053305)
(0 0 0.00532695)
(0 0 0.00532208)
(0 0 0.00531592)
(0 0 0.00530847)
(0 0 0.00529973)
(0 0 0.00528973)
(0 0 0.00527846)
(0 0 0.00526594)
(0 0 0.00525218)
(0 0 0.0052372)
(0 0 0.00522101)
(0 0 0.00520362)
(0 0 0.00518506)
(0 0 0.00516534)
(0 0 0.00514448)
(0 0 0.0051225)
(0 0 0.00509942)
(0 0 0.00507525)
(0 0 0.00505002)
(0 0 0.00502375)
(0 0 0.00499647)
(0 0 0.00496818)
(0 0 0.00493893)
(0 0 0.00490872)
(0 0 0.00487758)
(0 0 0.00484555)
(0 0 0.00481263)
(0 0 0.00477885)
(0 0 0.00474425)
(0 0 0.00470883)
(0 0 0.00467263)
(0 0 0.00463568)
(0 0 0.00459798)
(0 0 0.00455958)
(0 0 0.00452049)
(0 0 0.00448073)
(0 0 0.00444033)
(0 0 0.00439932)
(0 0 0.00435772)
(0 0 0.00431554)
(0 0 0.00427282)
(0 0 0.00422957)
(0 0 0.00418582)
(0 0 0.00414159)
(0 0 0.0040969)
(0 0 0.00405177)
(0 0 0.00400622)
(0 0 0.00396027)
(0 0 0.00391394)
(0 0 0.00386726)
(0 0 0.00382023)
(0 0 0.00377288)
(0 0 0.00372523)
(0 0 0.00367729)
(0 0 0.00362908)
(0 0 0.00358062)
(0 0 0.00353191)
(0 0 0.00348299)
(0 0 0.00343386)
(0 0 0.00338454)
(0 0 0.00333503)
(0 0 0.00328537)
(0 0 0.00323555)
(0 0 0.00318559)
(0 0 0.0031355)
(0 0 0.0030853)
(0 0 0.00303499)
(0 0 0.00298459)
(0 0 0.00293411)
(0 0 0.00288355)
(0 0 0.00283292)
(0 0 0.00278224)
(0 0 0.00273151)
(0 0 0.00268075)
(0 0 0.00262995)
(0 0 0.00257912)
(0 0 0.00252828)
(0 0 0.00247743)
(0 0 0.00242657)
(0 0 0.00237571)
(0 0 0.00232485)
(0 0 0.00227401)
(0 0 0.00222318)
(0 0 0.00217237)
(0 0 0.00212159)
(0 0 0.00207083)
(0 0 0.0020201)
(0 0 0.0019694)
(0 0 0.00191874)
(0 0 0.00186812)
(0 0 0.00181754)
(0 0 0.001767)
(0 0 0.0017165)
(0 0 0.00166605)
(0 0 0.00161565)
(0 0 0.00156529)
(0 0 0.00151498)
(0 0 0.00146472)
(0 0 0.00141451)
(0 0 0.00136435)
(0 0 0.00131423)
(0 0 0.00126417)
(0 0 0.00121415)
(0 0 0.00116418)
(0 0 0.00111426)
(0 0 0.00106438)
(0 0 0.00101455)
(0 0 0.000964757)
(0 0 0.00091501)
(0 0 0.000865303)
(0 0 0.000815636)
(0 0 0.000766006)
(0 0 0.000716412)
(0 0 0.000666852)
(0 0 0.000617323)
(0 0 0.000567824)
(0 0 0.000518353)
(0 0 0.000468908)
(0 0 0.000419486)
(0 0 0.000370085)
(0 0 0.000320702)
(0 0 0.000271335)
(0 0 0.000221983)
(0 0 0.000172642)
(0 0 0.000123309)
(0 0 7.3983e-05)
(0 0 2.46606e-05)
(0 0 4.21339e-05)
(0 0 0.000126404)
(0 0 0.000210682)
(0 0 0.000294974)
(0 0 0.000379284)
(0 0 0.000463618)
(0 0 0.000547981)
(0 0 0.000632379)
(0 0 0.000716816)
(0 0 0.000801298)
(0 0 0.000885829)
(0 0 0.000970414)
(0 0 0.00105506)
(0 0 0.00113977)
(0 0 0.00122454)
(0 0 0.00130939)
(0 0 0.00139431)
(0 0 0.00147931)
(0 0 0.0015644)
(0 0 0.00164957)
(0 0 0.00173484)
(0 0 0.00182019)
(0 0 0.00190565)
(0 0 0.0019912)
(0 0 0.00207685)
(0 0 0.0021626)
(0 0 0.00224846)
(0 0 0.00233442)
(0 0 0.00242048)
(0 0 0.00250665)
(0 0 0.00259293)
(0 0 0.00267931)
(0 0 0.0027658)
(0 0 0.00285239)
(0 0 0.00293908)
(0 0 0.00302587)
(0 0 0.00311276)
(0 0 0.00319974)
(0 0 0.00328681)
(0 0 0.00337396)
(0 0 0.0034612)
(0 0 0.00354851)
(0 0 0.00363589)
(0 0 0.00372332)
(0 0 0.00381082)
(0 0 0.00389835)
(0 0 0.00398593)
(0 0 0.00407353)
(0 0 0.00416115)
(0 0 0.00424878)
(0 0 0.00433639)
(0 0 0.00442399)
(0 0 0.00451156)
(0 0 0.00459908)
(0 0 0.00468654)
(0 0 0.00477391)
(0 0 0.0048612)
(0 0 0.00494837)
(0 0 0.00503541)
(0 0 0.00512229)
(0 0 0.005209)
(0 0 0.00529552)
(0 0 0.00538182)
(0 0 0.00546789)
(0 0 0.00555368)
(0 0 0.00563919)
(0 0 0.00572438)
(0 0 0.00580922)
(0 0 0.00589369)
(0 0 0.00597776)
(0 0 0.0060614)
(0 0 0.00614458)
(0 0 0.00622725)
(0 0 0.0063094)
(0 0 0.00639099)
(0 0 0.00647198)
(0 0 0.00655233)
(0 0 0.00663202)
(0 0 0.006711)
(0 0 0.00678923)
(0 0 0.00686668)
(0 0 0.00694331)
(0 0 0.00701907)
(0 0 0.00709393)
(0 0 0.00716784)
(0 0 0.00724077)
(0 0 0.00731267)
(0 0 0.0073835)
(0 0 0.00745322)
(0 0 0.00752178)
(0 0 0.00758914)
(0 0 0.00765526)
(0 0 0.00772009)
(0 0 0.00778359)
(0 0 0.00784572)
(0 0 0.00790644)
(0 0 0.0079657)
(0 0 0.00802346)
(0 0 0.00807968)
(0 0 0.00813433)
(0 0 0.00818734)
(0 0 0.0082387)
(0 0 0.00828836)
(0 0 0.00833628)
(0 0 0.00838242)
(0 0 0.00842675)
(0 0 0.00846924)
(0 0 0.00850984)
(0 0 0.00854854)
(0 0 0.00858529)
(0 0 0.00862007)
(0 0 0.00865285)
(0 0 0.0086836)
(0 0 0.00871231)
(0 0 0.00873894)
(0 0 0.00876347)
(0 0 0.00878589)
(0 0 0.00880618)
(0 0 0.00882432)
(0 0 0.0088403)
(0 0 0.00885411)
(0 0 0.00886573)
(0 0 0.00887517)
(0 0 0.00888241)
(0 0 0.00888745)
(0 0 0.00889029)
(0 0 0.00889093)
(0 0 0.00888938)
(0 0 0.00888563)
(0 0 0.00887969)
(0 0 0.00887158)
(0 0 0.00886131)
(0 0 0.00884888)
(0 0 0.00883431)
(0 0 0.00881762)
(0 0 0.00879882)
(0 0 0.00877794)
(0 0 0.00875499)
(0 0 0.00873001)
(0 0 0.008703)
(0 0 0.00867401)
(0 0 0.00864306)
(0 0 0.00861018)
(0 0 0.00857539)
(0 0 0.00853873)
(0 0 0.00850024)
(0 0 0.00845993)
(0 0 0.00841786)
(0 0 0.00837406)
(0 0 0.00832855)
(0 0 0.00828139)
(0 0 0.0082326)
(0 0 0.00818223)
(0 0 0.00813031)
(0 0 0.00807689)
(0 0 0.008022)
(0 0 0.00796568)
(0 0 0.00790798)
(0 0 0.00784893)
(0 0 0.00778857)
(0 0 0.00772694)
(0 0 0.0076641)
(0 0 0.00760006)
(0 0 0.00753488)
(0 0 0.0074686)
(0 0 0.00740124)
(0 0 0.00733287)
(0 0 0.0072635)
(0 0 0.00719318)
(0 0 0.00712195)
(0 0 0.00704985)
(0 0 0.00697691)
(0 0 0.00690316)
(0 0 0.00682865)
(0 0 0.00675341)
(0 0 0.00667748)
(0 0 0.00660087)
(0 0 0.00652364)
(0 0 0.00644581)
(0 0 0.00636741)
(0 0 0.00628848)
(0 0 0.00620904)
(0 0 0.00612912)
(0 0 0.00604875)
(0 0 0.00596796)
(0 0 0.00588677)
(0 0 0.00580522)
(0 0 0.00572332)
(0 0 0.0056411)
(0 0 0.00555858)
(0 0 0.00547578)
(0 0 0.00539274)
(0 0 0.00530946)
(0 0 0.00522597)
(0 0 0.00514229)
(0 0 0.00505843)
(0 0 0.00497442)
(0 0 0.00489026)
(0 0 0.00480599)
(0 0 0.0047216)
(0 0 0.00463713)
(0 0 0.00455257)
(0 0 0.00446795)
(0 0 0.00438327)
(0 0 0.00429856)
(0 0 0.00421382)
(0 0 0.00412905)
(0 0 0.00404428)
(0 0 0.00395951)
(0 0 0.00387475)
(0 0 0.00379)
(0 0 0.00370528)
(0 0 0.0036206)
(0 0 0.00353595)
(0 0 0.00345135)
(0 0 0.0033668)
(0 0 0.0032823)
(0 0 0.00319786)
(0 0 0.00311349)
(0 0 0.00302918)
(0 0 0.00294495)
(0 0 0.00286079)
(0 0 0.0027767)
(0 0 0.00269269)
(0 0 0.00260876)
(0 0 0.00252491)
(0 0 0.00244115)
(0 0 0.00235746)
(0 0 0.00227386)
(0 0 0.00219033)
(0 0 0.00210689)
(0 0 0.00202353)
(0 0 0.00194025)
(0 0 0.00185704)
(0 0 0.00177392)
(0 0 0.00169086)
(0 0 0.00160788)
(0 0 0.00152497)
(0 0 0.00144213)
(0 0 0.00135935)
(0 0 0.00127664)
(0 0 0.00119398)
(0 0 0.00111138)
(0 0 0.00102884)
(0 0 0.000946344)
(0 0 0.000863894)
(0 0 0.000781488)
(0 0 0.00069912)
(0 0 0.000616787)
(0 0 0.000534485)
(0 0 0.000452211)
(0 0 0.000369959)
(0 0 0.000287726)
(0 0 0.000205508)
(0 0 0.000123301)
(0 0 4.10995e-05)
(0 0 5.89837e-05)
(0 0 0.000176955)
(0 0 0.000294937)
(0 0 0.000412937)
(0 0 0.000530964)
(0 0 0.000649025)
(0 0 0.000767126)
(0 0 0.000885276)
(0 0 0.00100348)
(0 0 0.00112175)
(0 0 0.00124009)
(0 0 0.0013585)
(0 0 0.00147699)
(0 0 0.00159558)
(0 0 0.00171426)
(0 0 0.00183304)
(0 0 0.00195193)
(0 0 0.00207092)
(0 0 0.00219004)
(0 0 0.00230928)
(0 0 0.00242864)
(0 0 0.00254814)
(0 0 0.00266777)
(0 0 0.00278754)
(0 0 0.00290744)
(0 0 0.0030275)
(0 0 0.00314769)
(0 0 0.00326804)
(0 0 0.00338853)
(0 0 0.00350917)
(0 0 0.00362996)
(0 0 0.00375089)
(0 0 0.00387198)
(0 0 0.0039932)
(0 0 0.00411458)
(0 0 0.00423609)
(0 0 0.00435773)
(0 0 0.00447951)
(0 0 0.00460142)
(0 0 0.00472344)
(0 0 0.00484558)
(0 0 0.00496782)
(0 0 0.00509016)
(0 0 0.00521258)
(0 0 0.00533508)
(0 0 0.00545765)
(0 0 0.00558027)
(0 0 0.00570292)
(0 0 0.00582561)
(0 0 0.0059483)
(0 0 0.00607098)
(0 0 0.00619364)
(0 0 0.00631625)
(0 0 0.0064388)
(0 0 0.00656126)
(0 0 0.00668362)
(0 0 0.00680584)
(0 0 0.0069279)
(0 0 0.00704978)
(0 0 0.00717145)
(0 0 0.00729288)
(0 0 0.00741404)
(0 0 0.00753489)
(0 0 0.00765541)
(0 0 0.00777557)
(0 0 0.00789531)
(0 0 0.00801461)
(0 0 0.00813344)
(0 0 0.00825174)
(0 0 0.00836948)
(0 0 0.00848662)
(0 0 0.0086031)
(0 0 0.0087189)
(0 0 0.00883396)
(0 0 0.00894822)
(0 0 0.00906166)
(0 0 0.00917421)
(0 0 0.00928582)
(0 0 0.00939644)
(0 0 0.00950602)
(0 0 0.00961451)
(0 0 0.00972184)
(0 0 0.00982797)
(0 0 0.00993283)
(0 0 0.0100364)
(0 0 0.0101385)
(0 0 0.0102392)
(0 0 0.0103385)
(0 0 0.0104361)
(0 0 0.0105322)
(0 0 0.0106265)
(0 0 0.0107192)
(0 0 0.01081)
(0 0 0.010899)
(0 0 0.010986)
(0 0 0.0110711)
(0 0 0.0111541)
(0 0 0.011235)
(0 0 0.0113138)
(0 0 0.0113903)
(0 0 0.0114646)
(0 0 0.0115366)
(0 0 0.0116061)
(0 0 0.0116733)
(0 0 0.0117379)
(0 0 0.0118)
(0 0 0.0118596)
(0 0 0.0119165)
(0 0 0.0119707)
(0 0 0.0120222)
(0 0 0.0120709)
(0 0 0.0121168)
(0 0 0.0121599)
(0 0 0.0122001)
(0 0 0.0122374)
(0 0 0.0122718)
(0 0 0.0123032)
(0 0 0.0123317)
(0 0 0.0123571)
(0 0 0.0123795)
(0 0 0.0123988)
(0 0 0.0124151)
(0 0 0.0124283)
(0 0 0.0124385)
(0 0 0.0124455)
(0 0 0.0124495)
(0 0 0.0124504)
(0 0 0.0124482)
(0 0 0.0124429)
(0 0 0.0124346)
(0 0 0.0124233)
(0 0 0.0124089)
(0 0 0.0123914)
(0 0 0.012371)
(0 0 0.0123476)
(0 0 0.0123213)
(0 0 0.012292)
(0 0 0.0122599)
(0 0 0.0122248)
(0 0 0.012187)
(0 0 0.0121464)
(0 0 0.012103)
(0 0 0.0120569)
(0 0 0.0120082)
(0 0 0.0119568)
(0 0 0.0119029)
(0 0 0.0118464)
(0 0 0.0117874)
(0 0 0.0117261)
(0 0 0.0116623)
(0 0 0.0115962)
(0 0 0.0115279)
(0 0 0.0114573)
(0 0 0.0113846)
(0 0 0.0113097)
(0 0 0.0112328)
(0 0 0.0111539)
(0 0 0.0110731)
(0 0 0.0109903)
(0 0 0.0109058)
(0 0 0.0108194)
(0 0 0.0107314)
(0 0 0.0106417)
(0 0 0.0105504)
(0 0 0.0104575)
(0 0 0.0103632)
(0 0 0.0102674)
(0 0 0.0101702)
(0 0 0.0100717)
(0 0 0.00997197)
(0 0 0.00987097)
(0 0 0.0097688)
(0 0 0.00966551)
(0 0 0.00956115)
(0 0 0.00945576)
(0 0 0.0093494)
(0 0 0.00924211)
(0 0 0.00913394)
(0 0 0.00902493)
(0 0 0.00891513)
(0 0 0.00880458)
(0 0 0.00869333)
(0 0 0.0085814)
(0 0 0.00846885)
(0 0 0.0083557)
(0 0 0.008242)
(0 0 0.00812779)
(0 0 0.0080131)
(0 0 0.00789795)
(0 0 0.0077824)
(0 0 0.00766646)
(0 0 0.00755016)
(0 0 0.00743355)
(0 0 0.00731663)
(0 0 0.00719945)
(0 0 0.00708202)
(0 0 0.00696438)
(0 0 0.00684654)
(0 0 0.00672854)
(0 0 0.00661038)
(0 0 0.00649209)
(0 0 0.00637369)
(0 0 0.00625521)
(0 0 0.00613665)
(0 0 0.00601803)
(0 0 0.00589937)
(0 0 0.00578069)
(0 0 0.005662)
(0 0 0.00554331)
(0 0 0.00542463)
(0 0 0.00530597)
(0 0 0.00518736)
(0 0 0.00506879)
(0 0 0.00495027)
(0 0 0.00483182)
(0 0 0.00471344)
(0 0 0.00459514)
(0 0 0.00447692)
(0 0 0.00435879)
(0 0 0.00424076)
(0 0 0.00412283)
(0 0 0.004005)
(0 0 0.00388728)
(0 0 0.00376966)
(0 0 0.00365216)
(0 0 0.00353477)
(0 0 0.00341749)
(0 0 0.00330033)
(0 0 0.00318329)
(0 0 0.00306636)
(0 0 0.00294954)
(0 0 0.00283283)
(0 0 0.00271624)
(0 0 0.00259976)
(0 0 0.00248338)
(0 0 0.00236711)
(0 0 0.00225094)
(0 0 0.00213487)
(0 0 0.00201889)
(0 0 0.00190301)
(0 0 0.00178721)
(0 0 0.0016715)
(0 0 0.00155587)
(0 0 0.00144031)
(0 0 0.00132482)
(0 0 0.00120939)
(0 0 0.00109403)
(0 0 0.00097872)
(0 0 0.000863459)
(0 0 0.000748242)
(0 0 0.000633063)
(0 0 0.000517917)
(0 0 0.000402796)
(0 0 0.000287697)
(0 0 0.000172612)
(0 0 5.75365e-05)
(0 0 7.58298e-05)
(0 0 0.000227494)
(0 0 0.000379172)
(0 0 0.000530875)
(0 0 0.000682611)
(0 0 0.000834391)
(0 0 0.000986223)
(0 0 0.00113812)
(0 0 0.00129008)
(0 0 0.00144213)
(0 0 0.00159427)
(0 0 0.0017465)
(0 0 0.00189884)
(0 0 0.0020513)
(0 0 0.00220387)
(0 0 0.00235658)
(0 0 0.00250943)
(0 0 0.00266242)
(0 0 0.00281556)
(0 0 0.00296886)
(0 0 0.00312232)
(0 0 0.00327595)
(0 0 0.00342975)
(0 0 0.00358374)
(0 0 0.0037379)
(0 0 0.00389225)
(0 0 0.00404678)
(0 0 0.00420151)
(0 0 0.00435643)
(0 0 0.00451153)
(0 0 0.00466683)
(0 0 0.00482233)
(0 0 0.00497801)
(0 0 0.00513388)
(0 0 0.00528993)
(0 0 0.00544617)
(0 0 0.00560258)
(0 0 0.00575916)
(0 0 0.0059159)
(0 0 0.0060728)
(0 0 0.00622985)
(0 0 0.00638703)
(0 0 0.00654434)
(0 0 0.00670176)
(0 0 0.00685928)
(0 0 0.00701689)
(0 0 0.00717456)
(0 0 0.00733229)
(0 0 0.00749005)
(0 0 0.00764783)
(0 0 0.00780559)
(0 0 0.00796333)
(0 0 0.00812101)
(0 0 0.00827861)
(0 0 0.0084361)
(0 0 0.00859345)
(0 0 0.00875064)
(0 0 0.00890762)
(0 0 0.00906437)
(0 0 0.00922085)
(0 0 0.00937703)
(0 0 0.00953286)
(0 0 0.0096883)
(0 0 0.00984331)
(0 0 0.00999786)
(0 0 0.0101519)
(0 0 0.0103053)
(0 0 0.0104582)
(0 0 0.0106103)
(0 0 0.0107618)
(0 0 0.0109125)
(0 0 0.0110623)
(0 0 0.0112113)
(0 0 0.0113593)
(0 0 0.0115063)
(0 0 0.0116522)
(0 0 0.011797)
(0 0 0.0119406)
(0 0 0.0120829)
(0 0 0.0122239)
(0 0 0.0123635)
(0 0 0.0125016)
(0 0 0.0126381)
(0 0 0.0127731)
(0 0 0.0129063)
(0 0 0.0130377)
(0 0 0.0131673)
(0 0 0.013295)
(0 0 0.0134207)
(0 0 0.0135442)
(0 0 0.0136657)
(0 0 0.0137849)
(0 0 0.0139017)
(0 0 0.0140162)
(0 0 0.0141283)
(0 0 0.0142377)
(0 0 0.0143446)
(0 0 0.0144487)
(0 0 0.0145501)
(0 0 0.0146486)
(0 0 0.0147442)
(0 0 0.0148368)
(0 0 0.0149264)
(0 0 0.0150128)
(0 0 0.015096)
(0 0 0.0151759)
(0 0 0.0152525)
(0 0 0.0153258)
(0 0 0.0153955)
(0 0 0.0154618)
(0 0 0.0155245)
(0 0 0.0155837)
(0 0 0.0156391)
(0 0 0.0156909)
(0 0 0.0157389)
(0 0 0.0157831)
(0 0 0.0158236)
(0 0 0.0158602)
(0 0 0.0158929)
(0 0 0.0159217)
(0 0 0.0159466)
(0 0 0.0159675)
(0 0 0.0159845)
(0 0 0.0159976)
(0 0 0.0160067)
(0 0 0.0160118)
(0 0 0.0160129)
(0 0 0.0160101)
(0 0 0.0160033)
(0 0 0.0159926)
(0 0 0.015978)
(0 0 0.0159594)
(0 0 0.015937)
(0 0 0.0159107)
(0 0 0.0158806)
(0 0 0.0158467)
(0 0 0.015809)
(0 0 0.0157676)
(0 0 0.0157225)
(0 0 0.0156738)
(0 0 0.0156215)
(0 0 0.0155656)
(0 0 0.0155063)
(0 0 0.0154436)
(0 0 0.0153775)
(0 0 0.015308)
(0 0 0.0152353)
(0 0 0.0151595)
(0 0 0.0150805)
(0 0 0.0149984)
(0 0 0.0149133)
(0 0 0.0148254)
(0 0 0.0147345)
(0 0 0.0146409)
(0 0 0.0145446)
(0 0 0.0144456)
(0 0 0.0143441)
(0 0 0.01424)
(0 0 0.0141336)
(0 0 0.0140248)
(0 0 0.0139137)
(0 0 0.0138004)
(0 0 0.0136849)
(0 0 0.0135674)
(0 0 0.013448)
(0 0 0.0133266)
(0 0 0.0132033)
(0 0 0.0130783)
(0 0 0.0129516)
(0 0 0.0128232)
(0 0 0.0126933)
(0 0 0.0125618)
(0 0 0.0124289)
(0 0 0.0122947)
(0 0 0.0121591)
(0 0 0.0120223)
(0 0 0.0118842)
(0 0 0.0117451)
(0 0 0.0116049)
(0 0 0.0114636)
(0 0 0.0113214)
(0 0 0.0111783)
(0 0 0.0110343)
(0 0 0.0108895)
(0 0 0.010744)
(0 0 0.0105978)
(0 0 0.0104509)
(0 0 0.0103033)
(0 0 0.0101552)
(0 0 0.0100066)
(0 0 0.00985749)
(0 0 0.00970792)
(0 0 0.00955793)
(0 0 0.00940757)
(0 0 0.00925686)
(0 0 0.00910584)
(0 0 0.00895455)
(0 0 0.008803)
(0 0 0.00865124)
(0 0 0.00849929)
(0 0 0.00834717)
(0 0 0.00819492)
(0 0 0.00804254)
(0 0 0.00789008)
(0 0 0.00773755)
(0 0 0.00758496)
(0 0 0.00743235)
(0 0 0.00727972)
(0 0 0.00712709)
(0 0 0.00697449)
(0 0 0.00682191)
(0 0 0.00666939)
(0 0 0.00651693)
(0 0 0.00636454)
(0 0 0.00621223)
(0 0 0.00606001)
(0 0 0.0059079)
(0 0 0.00575589)
(0 0 0.00560401)
(0 0 0.00545224)
(0 0 0.00530061)
(0 0 0.00514911)
(0 0 0.00499775)
(0 0 0.00484652)
(0 0 0.00469545)
(0 0 0.00454452)
(0 0 0.00439373)
(0 0 0.0042431)
(0 0 0.00409261)
(0 0 0.00394227)
(0 0 0.00379208)
(0 0 0.00364203)
(0 0 0.00349213)
(0 0 0.00334237)
(0 0 0.00319274)
(0 0 0.00304325)
(0 0 0.0028939)
(0 0 0.00274467)
(0 0 0.00259556)
(0 0 0.00244658)
(0 0 0.0022977)
(0 0 0.00214894)
(0 0 0.00200027)
(0 0 0.00185171)
(0 0 0.00170323)
(0 0 0.00155483)
(0 0 0.00140652)
(0 0 0.00125827)
(0 0 0.00111009)
(0 0 0.000961962)
(0 0 0.000813884)
(0 0 0.000665848)
(0 0 0.000517846)
(0 0 0.000369871)
(0 0 0.000221915)
(0 0 7.39705e-05)
(0 0 9.26709e-05)
(0 0 0.000278019)
(0 0 0.000463384)
(0 0 0.000648779)
(0 0 0.000834215)
(0 0 0.0010197)
(0 0 0.00120526)
(0 0 0.00139089)
(0 0 0.00157661)
(0 0 0.00176242)
(0 0 0.00194835)
(0 0 0.0021344)
(0 0 0.00232057)
(0 0 0.00250689)
(0 0 0.00269336)
(0 0 0.00287999)
(0 0 0.00306679)
(0 0 0.00325376)
(0 0 0.00344092)
(0 0 0.00362828)
(0 0 0.00381583)
(0 0 0.00400359)
(0 0 0.00419156)
(0 0 0.00437976)
(0 0 0.00456817)
(0 0 0.00475681)
(0 0 0.00494569)
(0 0 0.00513479)
(0 0 0.00532413)
(0 0 0.00551371)
(0 0 0.00570352)
(0 0 0.00589357)
(0 0 0.00608386)
(0 0 0.00627437)
(0 0 0.00646511)
(0 0 0.00665607)
(0 0 0.00684726)
(0 0 0.00703865)
(0 0 0.00723024)
(0 0 0.00742202)
(0 0 0.00761399)
(0 0 0.00780612)
(0 0 0.00799841)
(0 0 0.00819084)
(0 0 0.0083834)
(0 0 0.00857606)
(0 0 0.00876881)
(0 0 0.00896163)
(0 0 0.00915449)
(0 0 0.00934737)
(0 0 0.00954024)
(0 0 0.00973308)
(0 0 0.00992585)
(0 0 0.0101185)
(0 0 0.0103111)
(0 0 0.0105035)
(0 0 0.0106956)
(0 0 0.0108876)
(0 0 0.0110792)
(0 0 0.0112706)
(0 0 0.0114615)
(0 0 0.0116521)
(0 0 0.0118421)
(0 0 0.0120317)
(0 0 0.0122207)
(0 0 0.012409)
(0 0 0.0125967)
(0 0 0.0127836)
(0 0 0.0129697)
(0 0 0.0131549)
(0 0 0.0133392)
(0 0 0.0135224)
(0 0 0.0137046)
(0 0 0.0138857)
(0 0 0.0140654)
(0 0 0.0142439)
(0 0 0.014421)
(0 0 0.0145967)
(0 0 0.0147708)
(0 0 0.0149432)
(0 0 0.015114)
(0 0 0.0152829)
(0 0 0.0154499)
(0 0 0.015615)
(0 0 0.015778)
(0 0 0.0159388)
(0 0 0.0160973)
(0 0 0.0162535)
(0 0 0.0164073)
(0 0 0.0165585)
(0 0 0.0167071)
(0 0 0.0168529)
(0 0 0.0169959)
(0 0 0.017136)
(0 0 0.0172731)
(0 0 0.017407)
(0 0 0.0175378)
(0 0 0.0176652)
(0 0 0.0177893)
(0 0 0.0179098)
(0 0 0.0180268)
(0 0 0.0181401)
(0 0 0.0182497)
(0 0 0.0183555)
(0 0 0.0184573)
(0 0 0.0185551)
(0 0 0.0186489)
(0 0 0.0187385)
(0 0 0.0188239)
(0 0 0.018905)
(0 0 0.0189818)
(0 0 0.0190541)
(0 0 0.019122)
(0 0 0.0191854)
(0 0 0.0192441)
(0 0 0.0192983)
(0 0 0.0193478)
(0 0 0.0193925)
(0 0 0.0194326)
(0 0 0.0194678)
(0 0 0.0194983)
(0 0 0.0195239)
(0 0 0.0195447)
(0 0 0.0195607)
(0 0 0.0195718)
(0 0 0.019578)
(0 0 0.0195794)
(0 0 0.019576)
(0 0 0.0195677)
(0 0 0.0195545)
(0 0 0.0195366)
(0 0 0.0195139)
(0 0 0.0194864)
(0 0 0.0194542)
(0 0 0.0194173)
(0 0 0.0193758)
(0 0 0.0193297)
(0 0 0.019279)
(0 0 0.0192238)
(0 0 0.0191642)
(0 0 0.0191001)
(0 0 0.0190318)
(0 0 0.0189592)
(0 0 0.0188824)
(0 0 0.0188014)
(0 0 0.0187164)
(0 0 0.0186275)
(0 0 0.0185346)
(0 0 0.0184379)
(0 0 0.0183375)
(0 0 0.0182334)
(0 0 0.0181257)
(0 0 0.0180146)
(0 0 0.0179)
(0 0 0.0177821)
(0 0 0.017661)
(0 0 0.0175367)
(0 0 0.0174094)
(0 0 0.0172792)
(0 0 0.017146)
(0 0 0.0170101)
(0 0 0.0168715)
(0 0 0.0167303)
(0 0 0.0165865)
(0 0 0.0164403)
(0 0 0.0162918)
(0 0 0.016141)
(0 0 0.0159881)
(0 0 0.0158331)
(0 0 0.015676)
(0 0 0.0155171)
(0 0 0.0153563)
(0 0 0.0151937)
(0 0 0.0150295)
(0 0 0.0148637)
(0 0 0.0146963)
(0 0 0.0145275)
(0 0 0.0143573)
(0 0 0.0141858)
(0 0 0.0140131)
(0 0 0.0138391)
(0 0 0.0136641)
(0 0 0.013488)
(0 0 0.013311)
(0 0 0.013133)
(0 0 0.0129542)
(0 0 0.0127745)
(0 0 0.0125941)
(0 0 0.0124131)
(0 0 0.0122313)
(0 0 0.012049)
(0 0 0.0118661)
(0 0 0.0116827)
(0 0 0.0114989)
(0 0 0.0113146)
(0 0 0.0111299)
(0 0 0.010945)
(0 0 0.0107597)
(0 0 0.0105741)
(0 0 0.0103884)
(0 0 0.0102024)
(0 0 0.0100163)
(0 0 0.00982998)
(0 0 0.00964359)
(0 0 0.00945712)
(0 0 0.00927059)
(0 0 0.00908402)
(0 0 0.00889744)
(0 0 0.00871087)
(0 0 0.00852432)
(0 0 0.00833781)
(0 0 0.00815137)
(0 0 0.007965)
(0 0 0.00777872)
(0 0 0.00759255)
(0 0 0.00740649)
(0 0 0.00722055)
(0 0 0.00703476)
(0 0 0.0068491)
(0 0 0.0066636)
(0 0 0.00647826)
(0 0 0.00629309)
(0 0 0.00610808)
(0 0 0.00592325)
(0 0 0.00573859)
(0 0 0.00555412)
(0 0 0.00536982)
(0 0 0.00518571)
(0 0 0.00500178)
(0 0 0.00481804)
(0 0 0.00463447)
(0 0 0.00445109)
(0 0 0.00426788)
(0 0 0.00408484)
(0 0 0.00390197)
(0 0 0.00371927)
(0 0 0.00353673)
(0 0 0.00335435)
(0 0 0.00317212)
(0 0 0.00299004)
(0 0 0.00280809)
(0 0 0.00262628)
(0 0 0.00244459)
(0 0 0.00226302)
(0 0 0.00208156)
(0 0 0.0019002)
(0 0 0.00171894)
(0 0 0.00153776)
(0 0 0.00135666)
(0 0 0.00117563)
(0 0 0.000994664)
(0 0 0.000813746)
(0 0 0.00063287)
(0 0 0.000452027)
(0 0 0.000271207)
(0 0 9.04007e-05)
(0 0 0.000109506)
(0 0 0.000328525)
(0 0 0.000547566)
(0 0 0.000766641)
(0 0 0.000985765)
(0 0 0.00120495)
(0 0 0.00142422)
(0 0 0.00164357)
(0 0 0.00186303)
(0 0 0.00208261)
(0 0 0.00230231)
(0 0 0.00252216)
(0 0 0.00274217)
(0 0 0.00296234)
(0 0 0.00318269)
(0 0 0.00340323)
(0 0 0.00362397)
(0 0 0.00384492)
(0 0 0.00406609)
(0 0 0.00428749)
(0 0 0.00450913)
(0 0 0.00473102)
(0 0 0.00495316)
(0 0 0.00517555)
(0 0 0.00539822)
(0 0 0.00562115)
(0 0 0.00584436)
(0 0 0.00606784)
(0 0 0.00629161)
(0 0 0.00651565)
(0 0 0.00673998)
(0 0 0.00696459)
(0 0 0.00718947)
(0 0 0.00741463)
(0 0 0.00764007)
(0 0 0.00786577)
(0 0 0.00809172)
(0 0 0.00831793)
(0 0 0.00854438)
(0 0 0.00877106)
(0 0 0.00899796)
(0 0 0.00922506)
(0 0 0.00945235)
(0 0 0.0096798)
(0 0 0.00990741)
(0 0 0.0101352)
(0 0 0.010363)
(0 0 0.0105909)
(0 0 0.0108189)
(0 0 0.0110469)
(0 0 0.0112749)
(0 0 0.0115029)
(0 0 0.0117308)
(0 0 0.0119586)
(0 0 0.0121862)
(0 0 0.0124137)
(0 0 0.0126409)
(0 0 0.0128678)
(0 0 0.0130944)
(0 0 0.0133207)
(0 0 0.0135464)
(0 0 0.0137717)
(0 0 0.0139965)
(0 0 0.0142206)
(0 0 0.0144441)
(0 0 0.0146668)
(0 0 0.0148888)
(0 0 0.0151098)
(0 0 0.0153299)
(0 0 0.0155489)
(0 0 0.0157669)
(0 0 0.0159836)
(0 0 0.0161991)
(0 0 0.0164132)
(0 0 0.0166259)
(0 0 0.016837)
(0 0 0.0170465)
(0 0 0.0172543)
(0 0 0.0174602)
(0 0 0.0176642)
(0 0 0.0178662)
(0 0 0.0180661)
(0 0 0.0182637)
(0 0 0.018459)
(0 0 0.0186518)
(0 0 0.0188421)
(0 0 0.0190297)
(0 0 0.0192145)
(0 0 0.0193964)
(0 0 0.0195754)
(0 0 0.0197512)
(0 0 0.0199238)
(0 0 0.020093)
(0 0 0.0202588)
(0 0 0.020421)
(0 0 0.0205795)
(0 0 0.0207343)
(0 0 0.0208851)
(0 0 0.0210319)
(0 0 0.0211746)
(0 0 0.0213131)
(0 0 0.0214472)
(0 0 0.0215769)
(0 0 0.0217021)
(0 0 0.0218226)
(0 0 0.0219384)
(0 0 0.0220494)
(0 0 0.0221555)
(0 0 0.0222566)
(0 0 0.0223526)
(0 0 0.0224435)
(0 0 0.0225291)
(0 0 0.0226094)
(0 0 0.0226844)
(0 0 0.022754)
(0 0 0.0228181)
(0 0 0.0228767)
(0 0 0.0229297)
(0 0 0.022977)
(0 0 0.0230188)
(0 0 0.0230548)
(0 0 0.0230852)
(0 0 0.0231098)
(0 0 0.0231287)
(0 0 0.0231418)
(0 0 0.0231492)
(0 0 0.0231508)
(0 0 0.0231467)
(0 0 0.0231368)
(0 0 0.0231213)
(0 0 0.0231)
(0 0 0.0230731)
(0 0 0.0230406)
(0 0 0.0230024)
(0 0 0.0229587)
(0 0 0.0229096)
(0 0 0.0228549)
(0 0 0.0227949)
(0 0 0.0227296)
(0 0 0.0226589)
(0 0 0.0225831)
(0 0 0.0225022)
(0 0 0.0224162)
(0 0 0.0223253)
(0 0 0.0222295)
(0 0 0.0221288)
(0 0 0.0220235)
(0 0 0.0219136)
(0 0 0.0217991)
(0 0 0.0216802)
(0 0 0.021557)
(0 0 0.0214296)
(0 0 0.021298)
(0 0 0.0211624)
(0 0 0.0210229)
(0 0 0.0208795)
(0 0 0.0207325)
(0 0 0.0205818)
(0 0 0.0204276)
(0 0 0.0202701)
(0 0 0.0201092)
(0 0 0.0199452)
(0 0 0.0197781)
(0 0 0.019608)
(0 0 0.019435)
(0 0 0.0192593)
(0 0 0.0190809)
(0 0 0.0189)
(0 0 0.0187166)
(0 0 0.0185308)
(0 0 0.0183427)
(0 0 0.0181525)
(0 0 0.0179602)
(0 0 0.017766)
(0 0 0.0175698)
(0 0 0.0173718)
(0 0 0.0171722)
(0 0 0.0169709)
(0 0 0.016768)
(0 0 0.0165637)
(0 0 0.016358)
(0 0 0.016151)
(0 0 0.0159428)
(0 0 0.0157334)
(0 0 0.0155229)
(0 0 0.0153114)
(0 0 0.015099)
(0 0 0.0148857)
(0 0 0.0146715)
(0 0 0.0144566)
(0 0 0.014241)
(0 0 0.0140248)
(0 0 0.0138079)
(0 0 0.0135906)
(0 0 0.0133727)
(0 0 0.0131544)
(0 0 0.0129357)
(0 0 0.0127166)
(0 0 0.0124973)
(0 0 0.0122777)
(0 0 0.0120578)
(0 0 0.0118377)
(0 0 0.0116175)
(0 0 0.0113972)
(0 0 0.0111768)
(0 0 0.0109563)