/*--------------------------------*- C++ -*----------------------------------*\
| =========                 |                                                 |
| \\      /  F ield         | OpenFOAM: The Open Source CFD Toolbox           |
|  \\    /   O peration     | Version:  v2012                                 |
|   \\  /    A nd           | Website:  www.openfoam.com                      |
|    \\/     M anipulation  |                                                 |
\*---------------------------------------------------------------------------*/
FoamFile
{
    version     2.0;
    format      ascii;
    class       volVectorField;
    location    "15.5";
    object      U;
}
// * * * * * * * * * * * * * * * * * * * * * * * * * * * * * * * * * * * * * //

dimensions      [0 1 -1 0 0 0 0];


internalField   nonuniform List<vector> 
65536
(
(0.000686562 -0.000686592 0)
(0.00205976 -0.000686625 0)
(0.00343304 -0.000686721 0)
(0.00480653 -0.000686853 0)
(0.00618035 -0.000687028 0)
(0.00755456 -0.000687246 0)
(0.00892924 -0.000687505 0)
(0.0103045 -0.000687806 0)
(0.0116804 -0.000688148 0)
(0.013057 -0.00068853 0)
(0.0144344 -0.000688951 0)
(0.0158127 -0.000689411 0)
(0.017192 -0.000689908 0)
(0.0185722 -0.000690441 0)
(0.0199536 -0.000691009 0)
(0.0213362 -0.000691611 0)
(0.02272 -0.000692244 0)
(0.0241051 -0.000692908 0)
(0.0254915 -0.000693601 0)
(0.0268794 -0.00069432 0)
(0.0282688 -0.000695064 0)
(0.0296596 -0.000695831 0)
(0.031052 -0.000696619 0)
(0.032446 -0.000697425 0)
(0.0338416 -0.000698247 0)
(0.0352389 -0.000699082 0)
(0.0366379 -0.000699927 0)
(0.0380386 -0.000700781 0)
(0.039441 -0.000701638 0)
(0.0408451 -0.000702498 0)
(0.0422509 -0.000703355 0)
(0.0436585 -0.000704208 0)
(0.0450677 -0.000705052 0)
(0.0464786 -0.000705883 0)
(0.0478912 -0.000706698 0)
(0.0493054 -0.000707492 0)
(0.0507211 -0.000708262 0)
(0.0521384 -0.000709003 0)
(0.0535571 -0.00070971 0)
(0.0549772 -0.00071038 0)
(0.0563986 -0.000711006 0)
(0.0578213 -0.000711584 0)
(0.059245 -0.000712109 0)
(0.0606697 -0.000712576 0)
(0.0620953 -0.000712978 0)
(0.0635216 -0.000713311 0)
(0.0649486 -0.000713568 0)
(0.0663759 -0.000713744 0)
(0.0678036 -0.000713832 0)
(0.0692313 -0.000713826 0)
(0.0706589 -0.000713719 0)
(0.0720862 -0.000713505 0)
(0.073513 -0.000713178 0)
(0.074939 -0.000712729 0)
(0.076364 -0.000712153 0)
(0.0777877 -0.000711442 0)
(0.0792098 -0.000710588 0)
(0.0806301 -0.000709585 0)
(0.0820483 -0.000708425 0)
(0.083464 -0.000707099 0)
(0.0848768 -0.000705602 0)
(0.0862865 -0.000703924 0)
(0.0876926 -0.000702059 0)
(0.0890949 -0.000699997 0)
(0.0904928 -0.000697732 0)
(0.0918859 -0.000695256 0)
(0.093274 -0.00069256 0)
(0.0946564 -0.000689636 0)
(0.0960327 -0.000686478 0)
(0.0974024 -0.000683077 0)
(0.0987652 -0.000679425 0)
(0.10012 -0.000675516 0)
(0.101467 -0.00067134 0)
(0.102806 -0.000666892 0)
(0.104135 -0.000662164 0)
(0.105455 -0.00065715 0)
(0.106764 -0.000651841 0)
(0.108062 -0.000646232 0)
(0.109349 -0.000640318 0)
(0.110624 -0.00063409 0)
(0.111886 -0.000627545 0)
(0.113134 -0.000620677 0)
(0.114369 -0.000613481 0)
(0.115589 -0.000605953 0)
(0.116793 -0.000598088 0)
(0.117981 -0.000589882 0)
(0.119153 -0.000581334 0)
(0.120307 -0.000572439 0)
(0.121443 -0.000563196 0)
(0.12256 -0.000553604 0)
(0.123658 -0.000543661 0)
(0.124735 -0.000533367 0)
(0.125791 -0.000522722 0)
(0.126826 -0.000511727 0)
(0.127838 -0.000500383 0)
(0.128828 -0.000488693 0)
(0.129794 -0.000476659 0)
(0.130735 -0.000464284 0)
(0.131651 -0.000451573 0)
(0.132541 -0.000438531 0)
(0.133405 -0.000425163 0)
(0.134242 -0.000411475 0)
(0.135052 -0.000397475 0)
(0.135832 -0.000383169 0)
(0.136584 -0.000368567 0)
(0.137307 -0.000353676 0)
(0.137999 -0.000338508 0)
(0.138661 -0.000323071 0)
(0.139292 -0.000307377 0)
(0.139891 -0.000291438 0)
(0.140458 -0.000275266 0)
(0.140992 -0.000258872 0)
(0.141493 -0.000242271 0)
(0.141961 -0.000225476 0)
(0.142395 -0.000208502 0)
(0.142795 -0.000191362 0)
(0.143161 -0.000174073 0)
(0.143492 -0.000156649 0)
(0.143788 -0.000139106 0)
(0.144048 -0.00012146 0)
(0.144274 -0.000103727 0)
(0.144463 -8.59244e-05 0)
(0.144617 -6.80678e-05 0)
(0.144736 -5.0174e-05 0)
(0.144818 -3.22599e-05 0)
(0.144865 -1.43421e-05 0)
(0.144875 3.56268e-06 0)
(0.14485 2.14378e-05 0)
(0.144789 3.92667e-05 0)
(0.144693 5.70333e-05 0)
(0.144561 7.47214e-05 0)
(0.144394 9.23151e-05 0)
(0.144192 0.000109799 0)
(0.143955 0.000127158 0)
(0.143683 0.000144377 0)
(0.143377 0.000161442 0)
(0.143037 0.000178338 0)
(0.142663 0.000195053 0)
(0.142257 0.000211572 0)
(0.141817 0.000227885 0)
(0.141345 0.000243979 0)
(0.140841 0.000259841 0)
(0.140305 0.000275463 0)
(0.139739 0.000290833 0)
(0.139141 0.000305942 0)
(0.138514 0.000320781 0)
(0.137858 0.000335342 0)
(0.137173 0.000349618 0)
(0.136459 0.0003636 0)
(0.135718 0.000377283 0)
(0.13495 0.000390661 0)
(0.134155 0.000403729 0)
(0.133334 0.000416483 0)
(0.132489 0.000428919 0)
(0.131618 0.000441033 0)
(0.130724 0.000452823 0)
(0.129807 0.000464287 0)
(0.128867 0.000475424 0)
(0.127905 0.000486233 0)
(0.126921 0.000496713 0)
(0.125917 0.000506865 0)
(0.124893 0.000516689 0)
(0.12385 0.000526187 0)
(0.122788 0.00053536 0)
(0.121708 0.000544211 0)
(0.120611 0.000552741 0)
(0.119497 0.000560954 0)
(0.118367 0.000568854 0)
(0.117221 0.000576443 0)
(0.116061 0.000583727 0)
(0.114886 0.000590708 0)
(0.113698 0.000597392 0)
(0.112496 0.000603784 0)
(0.111282 0.000609889 0)
(0.110056 0.000615712 0)
(0.108819 0.000621259 0)
(0.107571 0.000626535 0)
(0.106312 0.000631547 0)
(0.105044 0.0006363 0)
(0.103767 0.000640801 0)
(0.102481 0.000645056 0)
(0.101186 0.000649072 0)
(0.0998843 0.000652854 0)
(0.0985747 0.00065641 0)
(0.0972583 0.000659746 0)
(0.0959355 0.000662868 0)
(0.0946066 0.000665784 0)
(0.0932721 0.0006685 0)
(0.0919324 0.000671022 0)
(0.0905878 0.000673358 0)
(0.0892387 0.000675513 0)
(0.0878855 0.000677495 0)
(0.0865285 0.000679309 0)
(0.085168 0.000680964 0)
(0.0838044 0.000682464 0)
(0.082438 0.000683816 0)
(0.081069 0.000685026 0)
(0.0796977 0.000686101 0)
(0.0783244 0.000687047 0)
(0.0769493 0.000687869 0)
(0.0755728 0.000688574 0)
(0.0741949 0.000689167 0)
(0.0728159 0.000689654 0)
(0.0714361 0.000690041 0)
(0.0700556 0.000690332 0)
(0.0686746 0.000690534 0)
(0.0672934 0.000690652 0)
(0.0659119 0.00069069 0)
(0.0645305 0.000690654 0)
(0.0631492 0.000690549 0)
(0.0617682 0.000690379 0)
(0.0603875 0.000690149 0)
(0.0590075 0.000689863 0)
(0.057628 0.000689526 0)
(0.0562493 0.000689142 0)
(0.0548713 0.000688715 0)
(0.0534943 0.000688249 0)
(0.0521183 0.000687749 0)
(0.0507432 0.000687217 0)
(0.0493693 0.000686658 0)
(0.0479965 0.000686075 0)
(0.0466249 0.000685471 0)
(0.0452546 0.00068485 0)
(0.0438855 0.000684215 0)
(0.0425177 0.000683569 0)
(0.0411512 0.000682915 0)
(0.039786 0.000682255 0)
(0.0384221 0.000681593 0)
(0.0370595 0.000680931 0)
(0.0356983 0.000680271 0)
(0.0343384 0.000679617 0)
(0.0329798 0.00067897 0)
(0.0316225 0.000678332 0)
(0.0302664 0.000677705 0)
(0.0289116 0.000677092 0)
(0.027558 0.000676494 0)
(0.0262056 0.000675914 0)
(0.0248544 0.000675352 0)
(0.0235042 0.000674811 0)
(0.0221551 0.000674292 0)
(0.020807 0.000673796 0)
(0.0194599 0.000673325 0)
(0.0181137 0.00067288 0)
(0.0167683 0.000672462 0)
(0.0154238 0.000672072 0)
(0.01408 0.000671712 0)
(0.0127369 0.000671381 0)
(0.0113945 0.000671081 0)
(0.0100526 0.000670812 0)
(0.00871123 0.000670576 0)
(0.00737029 0.000670373 0)
(0.00602972 0.000670202 0)
(0.00468946 0.000670066 0)
(0.00334944 0.000669963 0)
(0.0020096 0.000669894 0)
(0.000669861 0.000669859 0)
(0.000686529 -0.0020597 0)
(0.00205962 -0.00205982 0)
(0.00343282 -0.0020601 0)
(0.00480624 -0.00206049 0)
(0.00617998 -0.00206102 0)
(0.0075541 -0.00206167 0)
(0.0089287 -0.00206245 0)
(0.0103039 -0.00206335 0)
(0.0116797 -0.00206438 0)
(0.0130562 -0.00206552 0)
(0.0144335 -0.00206679 0)
(0.0158118 -0.00206817 0)
(0.0171909 -0.00206966 0)
(0.0185712 -0.00207126 0)
(0.0199525 -0.00207297 0)
(0.021335 -0.00207477 0)
(0.0227187 -0.00207668 0)
(0.0241038 -0.00207867 0)
(0.0254902 -0.00208075 0)
(0.026878 -0.00208291 0)
(0.0282673 -0.00208514 0)
(0.0296581 -0.00208745 0)
(0.0310504 -0.00208981 0)
(0.0324444 -0.00209223 0)
(0.03384 -0.0020947 0)
(0.0352373 -0.00209721 0)
(0.0366362 -0.00209975 0)
(0.0380369 -0.00210231 0)
(0.0394393 -0.00210489 0)
(0.0408434 -0.00210747 0)
(0.0422492 -0.00211005 0)
(0.0436568 -0.00211261 0)
(0.045066 -0.00211514 0)
(0.046477 -0.00211764 0)
(0.0478896 -0.00212009 0)
(0.0493038 -0.00212248 0)
(0.0507197 -0.00212479 0)
(0.052137 -0.00212702 0)
(0.0535558 -0.00212914 0)
(0.054976 -0.00213116 0)
(0.0563975 -0.00213304 0)
(0.0578202 -0.00213478 0)
(0.059244 -0.00213636 0)
(0.0606689 -0.00213777 0)
(0.0620946 -0.00213898 0)
(0.0635211 -0.00213998 0)
(0.0649482 -0.00214076 0)
(0.0663757 -0.00214129 0)
(0.0678035 -0.00214156 0)
(0.0692314 -0.00214155 0)
(0.0706593 -0.00214124 0)
(0.0720868 -0.0021406 0)
(0.0735138 -0.00213963 0)
(0.0749401 -0.00213829 0)
(0.0763653 -0.00213657 0)
(0.0777893 -0.00213444 0)
(0.0792117 -0.00213189 0)
(0.0806323 -0.00212889 0)
(0.0820508 -0.00212541 0)
(0.0834668 -0.00212144 0)
(0.08488 -0.00211696 0)
(0.0862901 -0.00211193 0)
(0.0876966 -0.00210634 0)
(0.0890992 -0.00210017 0)
(0.0904975 -0.00209338 0)
(0.0918911 -0.00208596 0)
(0.0932796 -0.00207788 0)
(0.0946625 -0.00206912 0)
(0.0960393 -0.00205965 0)
(0.0974095 -0.00204945 0)
(0.0987728 -0.00203851 0)
(0.100128 -0.00202678 0)
(0.101476 -0.00201427 0)
(0.102815 -0.00200093 0)
(0.104145 -0.00198675 0)
(0.105465 -0.00197171 0)
(0.106775 -0.00195579 0)
(0.108074 -0.00193897 0)
(0.109361 -0.00192124 0)
(0.110637 -0.00190256 0)
(0.111899 -0.00188293 0)
(0.113148 -0.00186233 0)
(0.114384 -0.00184075 0)
(0.115604 -0.00181816 0)
(0.116809 -0.00179457 0)
(0.117998 -0.00176996 0)
(0.11917 -0.00174432 0)
(0.120325 -0.00171763 0)
(0.121462 -0.00168991 0)
(0.122579 -0.00166113 0)
(0.123678 -0.0016313 0)
(0.124756 -0.00160042 0)
(0.125813 -0.00156848 0)
(0.126848 -0.0015355 0)
(0.127862 -0.00150146 0)
(0.128852 -0.00146639 0)
(0.129818 -0.00143028 0)
(0.13076 -0.00139315 0)
(0.131677 -0.00135502 0)
(0.132568 -0.00131588 0)
(0.133432 -0.00127577 0)
(0.13427 -0.0012347 0)
(0.13508 -0.00119269 0)
(0.135861 -0.00114977 0)
(0.136614 -0.00110595 0)
(0.137337 -0.00106127 0)
(0.13803 -0.00101576 0)
(0.138692 -0.000969435 0)
(0.139324 -0.000922342 0)
(0.139923 -0.000874512 0)
(0.14049 -0.000825981 0)
(0.141025 -0.000776787 0)
(0.141527 -0.000726971 0)
(0.141995 -0.000676572 0)
(0.14243 -0.000625634 0)
(0.14283 -0.0005742 0)
(0.143196 -0.000522316 0)
(0.143527 -0.000470028 0)
(0.143823 -0.000417383 0)
(0.144084 -0.000364429 0)
(0.144309 -0.000311215 0)
(0.144499 -0.000257789 0)
(0.144653 -0.000204203 0)
(0.144771 -0.000150505 0)
(0.144854 -9.67457e-05 0)
(0.1449 -4.29757e-05 0)
(0.144911 1.07551e-05 0)
(0.144886 6.43968e-05 0)
(0.144825 0.0001179 0)
(0.144729 0.000171216 0)
(0.144597 0.000224296 0)
(0.144429 0.000277092 0)
(0.144227 0.000329559 0)
(0.143989 0.000381651 0)
(0.143717 0.000433322 0)
(0.143411 0.00048453 0)
(0.143071 0.000535232 0)
(0.142697 0.000585389 0)
(0.142289 0.000634961 0)
(0.141849 0.00068391 0)
(0.141377 0.000732202 0)
(0.140872 0.000779801 0)
(0.140336 0.000826676 0)
(0.139769 0.000872796 0)
(0.139171 0.000918132 0)
(0.138544 0.000962657 0)
(0.137887 0.00100635 0)
(0.137201 0.00104918 0)
(0.136487 0.00109113 0)
(0.135745 0.00113219 0)
(0.134976 0.00117233 0)
(0.134181 0.00121154 0)
(0.13336 0.0012498 0)
(0.132513 0.00128711 0)
(0.131642 0.00132346 0)
(0.130747 0.00135883 0)
(0.129829 0.00139322 0)
(0.128889 0.00142663 0)
(0.127926 0.00145906 0)
(0.126942 0.0014905 0)
(0.125937 0.00152095 0)
(0.124913 0.00155043 0)
(0.123869 0.00157892 0)
(0.122806 0.00160643 0)
(0.121726 0.00163298 0)
(0.120628 0.00165857 0)
(0.119513 0.00168321 0)
(0.118382 0.0017069 0)
(0.117236 0.00172967 0)
(0.116075 0.00175151 0)
(0.1149 0.00177245 0)
(0.113711 0.0017925 0)
(0.112509 0.00181167 0)
(0.111294 0.00182998 0)
(0.110068 0.00184744 0)
(0.10883 0.00186407 0)
(0.107581 0.0018799 0)
(0.106322 0.00189493 0)
(0.105054 0.00190918 0)
(0.103776 0.00192268 0)
(0.102489 0.00193544 0)
(0.101194 0.00194747 0)
(0.0998917 0.00195882 0)
(0.0985817 0.00196948 0)
(0.0972649 0.00197948 0)
(0.0959416 0.00198884 0)
(0.0946123 0.00199758 0)
(0.0932774 0.00200572 0)
(0.0919373 0.00201328 0)
(0.0905923 0.00202028 0)
(0.0892429 0.00202674 0)
(0.0878894 0.00203268 0)
(0.086532 0.00203811 0)
(0.0851713 0.00204307 0)
(0.0838074 0.00204756 0)
(0.0824406 0.00205161 0)
(0.0810713 0.00205524 0)
(0.0796998 0.00205846 0)
(0.0783262 0.00206129 0)
(0.0769509 0.00206375 0)
(0.0755741 0.00206586 0)
(0.074196 0.00206763 0)
(0.0728169 0.00206909 0)
(0.0714368 0.00207024 0)
(0.0700562 0.00207111 0)
(0.068675 0.00207171 0)
(0.0672936 0.00207206 0)
(0.065912 0.00207217 0)
(0.0645304 0.00207206 0)
(0.063149 0.00207174 0)
(0.0617678 0.00207122 0)
(0.0603871 0.00207053 0)
(0.0590069 0.00206966 0)
(0.0576273 0.00206865 0)
(0.0562485 0.00206749 0)
(0.0548705 0.00206621 0)
(0.0534934 0.00206481 0)
(0.0521173 0.0020633 0)
(0.0507422 0.0020617 0)
(0.0493682 0.00206002 0)
(0.0479954 0.00205827 0)
(0.0466238 0.00205645 0)
(0.0452534 0.00205459 0)
(0.0438842 0.00205268 0)
(0.0425164 0.00205074 0)
(0.0411499 0.00204877 0)
(0.0397847 0.00204679 0)
(0.0384208 0.0020448 0)
(0.0370582 0.00204281 0)
(0.035697 0.00204083 0)
(0.0343371 0.00203887 0)
(0.0329786 0.00203692 0)
(0.0316213 0.00203501 0)
(0.0302652 0.00203313 0)
(0.0289105 0.00203128 0)
(0.0275569 0.00202949 0)
(0.0262045 0.00202775 0)
(0.0248533 0.00202606 0)
(0.0235032 0.00202444 0)
(0.0221541 0.00202288 0)
(0.0208061 0.00202139 0)
(0.019459 0.00201997 0)
(0.0181128 0.00201864 0)
(0.0167675 0.00201738 0)
(0.0154231 0.00201621 0)
(0.0140794 0.00201513 0)
(0.0127363 0.00201414 0)
(0.0113939 0.00201323 0)
(0.0100521 0.00201243 0)
(0.00871079 0.00201172 0)
(0.00736992 0.00201111 0)
(0.00602942 0.0020106 0)
(0.00468923 0.00201019 0)
(0.00334928 0.00200988 0)
(0.0020095 0.00200967 0)
(0.000669827 0.00200957 0)
(0.000686431 -0.0034327 0)
(0.00205935 -0.00343292 0)
(0.00343239 -0.00343335 0)
(0.00480564 -0.003434 0)
(0.00617921 -0.00343487 0)
(0.00755316 -0.00343595 0)
(0.0089276 -0.00343725 0)
(0.0103026 -0.00343876 0)
(0.0116782 -0.00344047 0)
(0.0130546 -0.00344239 0)
(0.0144318 -0.0034445 0)
(0.0158099 -0.0034468 0)
(0.0171889 -0.00344929 0)
(0.018569 -0.00345197 0)
(0.0199502 -0.00345481 0)
(0.0213325 -0.00345783 0)
(0.0227161 -0.003461 0)
(0.0241011 -0.00346433 0)
(0.0254874 -0.0034678 0)
(0.0268751 -0.00347141 0)
(0.0282643 -0.00347514 0)
(0.029655 -0.00347899 0)
(0.0310473 -0.00348294 0)
(0.0324412 -0.00348698 0)
(0.0338367 -0.0034911 0)
(0.0352339 -0.00349529 0)
(0.0366329 -0.00349953 0)
(0.0380335 -0.00350382 0)
(0.0394359 -0.00350812 0)
(0.04084 -0.00351243 0)
(0.0422458 -0.00351674 0)
(0.0436534 -0.00352102 0)
(0.0450627 -0.00352526 0)
(0.0464737 -0.00352943 0)
(0.0478864 -0.00353353 0)
(0.0493007 -0.00353752 0)
(0.0507167 -0.00354139 0)
(0.0521341 -0.00354512 0)
(0.0535531 -0.00354868 0)
(0.0549734 -0.00355205 0)
(0.0563951 -0.00355521 0)
(0.057818 -0.00355812 0)
(0.0592421 -0.00356077 0)
(0.0606672 -0.00356313 0)
(0.0620932 -0.00356517 0)
(0.0635199 -0.00356687 0)
(0.0649473 -0.00356818 0)
(0.0663752 -0.00356909 0)
(0.0678034 -0.00356956 0)
(0.0692317 -0.00356956 0)
(0.07066 -0.00356906 0)
(0.0720879 -0.00356803 0)
(0.0735154 -0.00356643 0)
(0.0749422 -0.00356422 0)
(0.0763679 -0.00356137 0)
(0.0777925 -0.00355785 0)
(0.0792155 -0.00355362 0)
(0.0806367 -0.00354864 0)
(0.0820558 -0.00354288 0)
(0.0834725 -0.00353629 0)
(0.0848864 -0.00352884 0)
(0.0862972 -0.00352049 0)
(0.0877045 -0.0035112 0)
(0.0891079 -0.00350094 0)
(0.0905071 -0.00348965 0)
(0.0919015 -0.00347731 0)
(0.0932909 -0.00346387 0)
(0.0946747 -0.00344929 0)
(0.0960524 -0.00343353 0)
(0.0974237 -0.00341657 0)
(0.0987879 -0.00339835 0)
(0.100145 -0.00337883 0)
(0.101493 -0.00335799 0)
(0.102834 -0.00333579 0)
(0.104165 -0.00331218 0)
(0.105486 -0.00328714 0)
(0.106797 -0.00326063 0)
(0.108097 -0.00323262 0)
(0.109386 -0.00320308 0)
(0.110662 -0.00317197 0)
(0.111926 -0.00313927 0)
(0.113177 -0.00310495 0)
(0.114413 -0.00306899 0)
(0.115635 -0.00303137 0)
(0.116841 -0.00299206 0)
(0.118032 -0.00295105 0)
(0.119205 -0.00290832 0)
(0.120361 -0.00286386 0)
(0.121499 -0.00281765 0)
(0.122619 -0.00276969 0)
(0.123718 -0.00271998 0)
(0.124798 -0.00266851 0)
(0.125856 -0.00261528 0)
(0.126893 -0.0025603 0)
(0.127908 -0.00250357 0)
(0.128899 -0.0024451 0)
(0.129867 -0.00238491 0)
(0.13081 -0.00232302 0)
(0.131728 -0.00225944 0)
(0.132621 -0.0021942 0)
(0.133487 -0.00212733 0)
(0.134325 -0.00205885 0)
(0.135137 -0.00198881 0)
(0.135919 -0.00191724 0)
(0.136673 -0.00184418 0)
(0.137397 -0.00176968 0)
(0.138091 -0.00169379 0)
(0.138755 -0.00161655 0)
(0.139387 -0.00153802 0)
(0.139987 -0.00145827 0)
(0.140556 -0.00137734 0)
(0.141091 -0.00129531 0)
(0.141594 -0.00121223 0)
(0.142063 -0.00112819 0)
(0.142498 -0.00104324 0)
(0.142899 -0.000957469 0)
(0.143265 -0.000870944 0)
(0.143597 -0.000783745 0)
(0.143893 -0.00069595 0)
(0.144155 -0.000607639 0)
(0.14438 -0.000518894 0)
(0.14457 -0.000429796 0)
(0.144725 -0.00034043 0)
(0.144843 -0.000250877 0)
(0.144926 -0.000161223 0)
(0.144972 -7.15508e-05 0)
(0.144983 1.80559e-05 0)
(0.144958 0.000107514 0)
(0.144896 0.00019674 0)
(0.1448 0.000285653 0)
(0.144667 0.000374173 0)
(0.144499 0.000462219 0)
(0.144297 0.000549714 0)
(0.144059 0.000636582 0)
(0.143786 0.000722749 0)
(0.143479 0.000808142 0)
(0.143138 0.000892691 0)
(0.142763 0.000976329 0)
(0.142355 0.00105899 0)
(0.141914 0.00114061 0)
(0.141441 0.00122114 0)
(0.140935 0.0013005 0)
(0.140398 0.00137866 0)
(0.13983 0.00145556 0)
(0.139232 0.00153115 0)
(0.138603 0.00160539 0)
(0.137945 0.00167823 0)
(0.137258 0.00174964 0)
(0.136542 0.00181958 0)
(0.135799 0.00188802 0)
(0.135029 0.00195494 0)
(0.134233 0.0020203 0)
(0.13341 0.00208409 0)
(0.132563 0.00214628 0)
(0.13169 0.00220687 0)
(0.130794 0.00226583 0)
(0.129875 0.00232316 0)
(0.128933 0.00237884 0)
(0.127969 0.00243289 0)
(0.126983 0.00248529 0)
(0.125977 0.00253604 0)
(0.124952 0.00258516 0)
(0.123906 0.00263264 0)
(0.122843 0.00267849 0)
(0.121761 0.00272273 0)
(0.120662 0.00276537 0)
(0.119546 0.00280642 0)
(0.118414 0.00284589 0)
(0.117266 0.00288382 0)
(0.116104 0.00292021 0)
(0.114927 0.0029551 0)
(0.113737 0.0029885 0)
(0.112534 0.00302043 0)
(0.111318 0.00305093 0)
(0.11009 0.00308001 0)
(0.108852 0.00310772 0)
(0.107602 0.00313407 0)
(0.106342 0.0031591 0)
(0.105072 0.00318283 0)
(0.103793 0.0032053 0)
(0.102506 0.00322655 0)
(0.10121 0.00324659 0)
(0.0999064 0.00326547 0)
(0.0985956 0.00328322 0)
(0.0972779 0.00329986 0)
(0.0959538 0.00331544 0)
(0.0946237 0.00332999 0)
(0.093288 0.00334353 0)
(0.0919471 0.00335611 0)
(0.0906014 0.00336775 0)
(0.0892513 0.0033785 0)
(0.0878971 0.00338837 0)
(0.0865391 0.00339741 0)
(0.0851777 0.00340565 0)
(0.0838132 0.00341312 0)
(0.0824458 0.00341985 0)
(0.081076 0.00342587 0)
(0.0797039 0.00343121 0)
(0.0783299 0.00343591 0)
(0.0769541 0.00343999 0)
(0.0755768 0.00344349 0)
(0.0741983 0.00344643 0)
(0.0728187 0.00344883 0)
(0.0714383 0.00345074 0)
(0.0700573 0.00345217 0)
(0.0686758 0.00345316 0)
(0.067294 0.00345372 0)
(0.0659121 0.00345389 0)
(0.0645302 0.00345368 0)
(0.0631485 0.00345313 0)
(0.0617671 0.00345226 0)
(0.0603861 0.00345108 0)
(0.0590057 0.00344963 0)
(0.057626 0.00344792 0)
(0.056247 0.00344598 0)
(0.0548688 0.00344383 0)
(0.0534916 0.00344148 0)
(0.0521153 0.00343896 0)
(0.0507401 0.00343629 0)
(0.049366 0.00343347 0)
(0.0479931 0.00343054 0)
(0.0466214 0.0034275 0)
(0.0452509 0.00342438 0)
(0.0438818 0.00342119 0)
(0.0425139 0.00341795 0)
(0.0411473 0.00341466 0)
(0.0397821 0.00341135 0)
(0.0384182 0.00340803 0)
(0.0370557 0.0034047 0)
(0.0356945 0.00340139 0)
(0.0343346 0.00339811 0)
(0.032976 0.00339486 0)
(0.0316188 0.00339166 0)
(0.0302628 0.00338852 0)
(0.0289081 0.00338545 0)
(0.0275546 0.00338245 0)
(0.0262023 0.00337954 0)
(0.0248511 0.00337672 0)
(0.0235011 0.00337401 0)
(0.0221521 0.00337141 0)
(0.0208042 0.00336892 0)
(0.0194572 0.00336656 0)
(0.0181111 0.00336433 0)
(0.016766 0.00336223 0)
(0.0154216 0.00336028 0)
(0.014078 0.00335847 0)
(0.0127351 0.00335681 0)
(0.0113928 0.00335531 0)
(0.0100511 0.00335396 0)
(0.00870993 0.00335278 0)
(0.00736918 0.00335176 0)
(0.00602882 0.00335091 0)
(0.00468876 0.00335022 0)
(0.00334894 0.00334971 0)
(0.0020093 0.00334936 0)
(0.000669759 0.00334919 0)
(0.000686298 -0.0048055 0)
(0.00205895 -0.00480579 0)
(0.00343174 -0.00480639 0)
(0.00480474 -0.00480731 0)
(0.00617804 -0.00480852 0)
(0.00755175 -0.00481005 0)
(0.00892593 -0.00481187 0)
(0.0103007 -0.00481398 0)
(0.0116761 -0.00481638 0)
(0.0130522 -0.00481907 0)
(0.0144292 -0.00482203 0)
(0.015807 -0.00482526 0)
(0.0171858 -0.00482876 0)
(0.0185657 -0.00483251 0)
(0.0199467 -0.00483651 0)
(0.0213288 -0.00484074 0)
(0.0227123 -0.0048452 0)
(0.024097 -0.00484987 0)
(0.0254831 -0.00485474 0)
(0.0268707 -0.0048598 0)
(0.0282597 -0.00486504 0)
(0.0296503 -0.00487044 0)
(0.0310425 -0.00487599 0)
(0.0324363 -0.00488167 0)
(0.0338318 -0.00488746 0)
(0.0352289 -0.00489334 0)
(0.0366278 -0.0048993 0)
(0.0380284 -0.00490531 0)
(0.0394307 -0.00491136 0)
(0.0408349 -0.00491742 0)
(0.0422407 -0.00492347 0)
(0.0436484 -0.00492949 0)
(0.0450577 -0.00493545 0)
(0.0464688 -0.00494132 0)
(0.0478816 -0.00494708 0)
(0.0492961 -0.0049527 0)
(0.0507122 -0.00495815 0)
(0.0521298 -0.0049634 0)
(0.053549 -0.00496842 0)
(0.0549695 -0.00497317 0)
(0.0563915 -0.00497763 0)
(0.0578147 -0.00498175 0)
(0.0592391 -0.0049855 0)
(0.0606646 -0.00498884 0)
(0.062091 -0.00499173 0)
(0.0635182 -0.00499415 0)
(0.0649461 -0.00499603 0)
(0.0663744 -0.00499734 0)
(0.0678032 -0.00499805 0)
(0.0692321 -0.0049981 0)
(0.0706609 -0.00499744 0)
(0.0720896 -0.00499604 0)
(0.0735177 -0.00499384 0)
(0.0749452 -0.0049908 0)
(0.0763718 -0.00498687 0)
(0.0777972 -0.00498199 0)
(0.0792211 -0.00497612 0)
(0.0806432 -0.0049692 0)
(0.0820633 -0.00496119 0)
(0.083481 -0.00495202 0)
(0.084896 -0.00494164 0)
(0.0863078 -0.00493001 0)
(0.0877163 -0.00491706 0)
(0.0891209 -0.00490274 0)
(0.0905213 -0.00488699 0)
(0.0919171 -0.00486977 0)
(0.0933078 -0.004851 0)
(0.094693 -0.00483065 0)
(0.0960722 -0.00480865 0)
(0.0974449 -0.00478495 0)
(0.0988107 -0.00475949 0)
(0.100169 -0.00473223 0)
(0.101519 -0.0047031 0)
(0.102861 -0.00467207 0)
(0.104194 -0.00463907 0)
(0.105517 -0.00460406 0)
(0.10683 -0.00456699 0)
(0.108132 -0.00452782 0)
(0.109422 -0.00448649 0)
(0.110701 -0.00444298 0)
(0.111967 -0.00439724 0)
(0.113219 -0.00434923 0)
(0.114457 -0.00429892 0)
(0.115681 -0.00424628 0)
(0.11689 -0.00419127 0)
(0.118082 -0.00413388 0)
(0.119258 -0.00407407 0)
(0.120416 -0.00401184 0)
(0.121556 -0.00394716 0)
(0.122677 -0.00388003 0)
(0.123779 -0.00381043 0)
(0.124861 -0.00373837 0)
(0.125921 -0.00366385 0)
(0.12696 -0.00358686 0)
(0.127977 -0.00350742 0)
(0.128971 -0.00342555 0)
(0.12994 -0.00334126 0)
(0.130886 -0.00325458 0)
(0.131806 -0.00316554 0)
(0.1327 -0.00307416 0)
(0.133568 -0.0029805 0)
(0.134409 -0.00288459 0)
(0.135222 -0.00278648 0)
(0.136006 -0.00268622 0)
(0.136762 -0.00258388 0)
(0.137488 -0.00247951 0)
(0.138183 -0.00237318 0)
(0.138848 -0.00226497 0)
(0.139482 -0.00215496 0)
(0.140084 -0.00204321 0)
(0.140654 -0.00192982 0)
(0.141191 -0.00181489 0)
(0.141694 -0.00169849 0)
(0.142164 -0.00158072 0)
(0.142601 -0.0014617 0)
(0.143003 -0.00134151 0)
(0.14337 -0.00122027 0)
(0.143702 -0.00109808 0)
(0.143999 -0.000975054 0)
(0.144261 -0.000851305 0)
(0.144487 -0.000726946 0)
(0.144678 -0.000602094 0)
(0.144832 -0.000476864 0)
(0.144951 -0.000351373 0)
(0.145034 -0.00022574 0)
(0.14508 -0.000100082 0)
(0.145091 2.54838e-05 0)
(0.145065 0.00015084 0)
(0.145004 0.000275871 0)
(0.144906 0.000400463 0)
(0.144773 0.000524501 0)
(0.144605 0.000647874 0)
(0.144401 0.000770474 0)
(0.144163 0.000892193 0)
(0.143889 0.00101293 0)
(0.143581 0.00113258 0)
(0.143239 0.00125104 0)
(0.142863 0.00136822 0)
(0.142454 0.00148404 0)
(0.142012 0.00159839 0)
(0.141537 0.0017112 0)
(0.14103 0.00182239 0)
(0.140492 0.00193189 0)
(0.139922 0.00203961 0)
(0.139322 0.0021455 0)
(0.138691 0.00224949 0)
(0.138031 0.00235152 0)
(0.137343 0.00245154 0)
(0.136626 0.00254951 0)
(0.135881 0.00264537 0)
(0.135109 0.00273909 0)
(0.13431 0.00283062 0)
(0.133486 0.00291995 0)
(0.132636 0.00300705 0)
(0.131762 0.00309188 0)
(0.130864 0.00317444 0)
(0.129943 0.00325471 0)
(0.128999 0.00333268 0)
(0.128033 0.00340834 0)
(0.127045 0.0034817 0)
(0.126038 0.00355275 0)
(0.12501 0.00362151 0)
(0.123963 0.00368797 0)
(0.122897 0.00375215 0)
(0.121813 0.00381406 0)
(0.120712 0.00387373 0)
(0.119594 0.00393118 0)
(0.11846 0.00398642 0)
(0.117311 0.00403949 0)
(0.116147 0.00409041 0)
(0.114968 0.00413922 0)
(0.113776 0.00418594 0)
(0.112571 0.00423061 0)
(0.111354 0.00427327 0)
(0.110125 0.00431395 0)
(0.108884 0.0043527 0)
(0.107633 0.00438955 0)
(0.106371 0.00442455 0)
(0.1051 0.00445773 0)
(0.10382 0.00448915 0)
(0.102531 0.00451884 0)
(0.101234 0.00454686 0)
(0.0999286 0.00457324 0)
(0.0986164 0.00459804 0)
(0.0972974 0.0046213 0)
(0.095972 0.00464306 0)
(0.0946407 0.00466338 0)
(0.0933038 0.0046823 0)
(0.0919618 0.00469986 0)
(0.090615 0.00471612 0)
(0.0892638 0.00473111 0)
(0.0879086 0.00474489 0)
(0.0865496 0.00475751 0)
(0.0851873 0.00476899 0)
(0.0838218 0.0047794 0)
(0.0824537 0.00478878 0)
(0.081083 0.00479717 0)
(0.0797101 0.00480461 0)
(0.0783353 0.00481114 0)
(0.0769588 0.00481682 0)
(0.0755808 0.00482167 0)
(0.0742017 0.00482574 0)
(0.0728215 0.00482907 0)
(0.0714405 0.0048317 0)
(0.0700589 0.00483367 0)
(0.0686768 0.00483501 0)
(0.0672946 0.00483576 0)
(0.0659122 0.00483596 0)
(0.0645299 0.00483564 0)
(0.0631478 0.00483484 0)
(0.061766 0.00483358 0)
(0.0603847 0.00483191 0)
(0.059004 0.00482984 0)
(0.0576239 0.00482743 0)
(0.0562447 0.00482468 0)
(0.0548662 0.00482164 0)
(0.0534888 0.00481832 0)
(0.0521123 0.00481477 0)
(0.0507369 0.00481099 0)
(0.0493627 0.00480703 0)
(0.0479897 0.0048029 0)
(0.0466178 0.00479863 0)
(0.0452473 0.00479424 0)
(0.043878 0.00478975 0)
(0.0425101 0.00478519 0)
(0.0411435 0.00478057 0)
(0.0397782 0.00477591 0)
(0.0384143 0.00477124 0)
(0.0370518 0.00476657 0)
(0.0356906 0.00476192 0)
(0.0343308 0.00475731 0)
(0.0329723 0.00475275 0)
(0.0316151 0.00474825 0)
(0.0302592 0.00474384 0)
(0.0289045 0.00473952 0)
(0.0275511 0.00473531 0)
(0.0261989 0.00473123 0)
(0.0248479 0.00472727 0)
(0.023498 0.00472346 0)
(0.0221491 0.00471981 0)
(0.0208013 0.00471632 0)
(0.0194545 0.00471301 0)
(0.0181086 0.00470987 0)
(0.0167636 0.00470693 0)
(0.0154194 0.00470419 0)
(0.014076 0.00470165 0)
(0.0127332 0.00469933 0)
(0.0113911 0.00469722 0)
(0.0100496 0.00469533 0)
(0.00870863 0.00469367 0)
(0.00736808 0.00469224 0)
(0.00602791 0.00469104 0)
(0.00468805 0.00469008 0)
(0.00334843 0.00468935 0)
(0.002009 0.00468887 0)
(0.000669658 0.00468863 0)
(0.000686122 -0.00617797 0)
(0.00205842 -0.00617835 0)
(0.00343086 -0.00617913 0)
(0.00480352 -0.00618031 0)
(0.00617648 -0.00618188 0)
(0.00754985 -0.00618384 0)
(0.0089237 -0.00618619 0)
(0.0102981 -0.00618891 0)
(0.0116732 -0.00619201 0)
(0.013049 -0.00619548 0)
(0.0144257 -0.0061993 0)
(0.0158032 -0.00620347 0)
(0.0171817 -0.00620797 0)
(0.0185613 -0.00621281 0)
(0.019942 -0.00621797 0)
(0.0213239 -0.00622342 0)
(0.0227071 -0.00622917 0)
(0.0240916 -0.0062352 0)
(0.0254775 -0.00624149 0)
(0.0268649 -0.00624802 0)
(0.0282537 -0.00625478 0)
(0.0296441 -0.00626175 0)
(0.0310361 -0.00626891 0)
(0.0324298 -0.00627624 0)
(0.0338251 -0.00628371 0)
(0.0352222 -0.00629131 0)
(0.036621 -0.00629901 0)
(0.0380215 -0.00630677 0)
(0.0394239 -0.00631459 0)
(0.040828 -0.00632242 0)
(0.0422339 -0.00633024 0)
(0.0436416 -0.00633802 0)
(0.045051 -0.00634573 0)
(0.0464622 -0.00635333 0)
(0.0478752 -0.00636078 0)
(0.0492898 -0.00636806 0)
(0.0507061 -0.00637512 0)
(0.052124 -0.00638192 0)
(0.0535434 -0.00638843 0)
(0.0549643 -0.00639459 0)
(0.0563867 -0.00640038 0)
(0.0578103 -0.00640574 0)
(0.0592351 -0.00641063 0)
(0.0606611 -0.00641499 0)
(0.062088 -0.00641878 0)
(0.0635158 -0.00642195 0)
(0.0649443 -0.00642445 0)
(0.0663734 -0.00642621 0)
(0.0678028 -0.00642719 0)
(0.0692325 -0.00642733 0)
(0.0706622 -0.00642657 0)
(0.0720917 -0.00642485 0)
(0.0735208 -0.00642211 0)
(0.0749493 -0.00641828 0)
(0.0763769 -0.00641331 0)
(0.0778034 -0.00640713 0)
(0.0792285 -0.00639967 0)
(0.0806518 -0.00639086 0)
(0.0820732 -0.00638065 0)
(0.0834922 -0.00636895 0)
(0.0849086 -0.00635571 0)
(0.086322 -0.00634084 0)
(0.087732 -0.00632429 0)
(0.0891382 -0.00630597 0)
(0.0905403 -0.00628582 0)
(0.0919377 -0.00626377 0)
(0.0933302 -0.00623974 0)
(0.0947172 -0.00621366 0)
(0.0960984 -0.00618547 0)
(0.0974731 -0.00615509 0)
(0.0988409 -0.00612245 0)
(0.100201 -0.00608749 0)
(0.101554 -0.00605013 0)
(0.102898 -0.00601031 0)
(0.104233 -0.00596797 0)
(0.105558 -0.00592303 0)
(0.106873 -0.00587545 0)
(0.108178 -0.00582516 0)
(0.109471 -0.0057721 0)
(0.110752 -0.00571623 0)
(0.11202 -0.00565748 0)
(0.113275 -0.00559581 0)
(0.114516 -0.00553118 0)
(0.115743 -0.00546355 0)
(0.116954 -0.00539287 0)
(0.118149 -0.00531912 0)
(0.119328 -0.00524226 0)
(0.120489 -0.00516227 0)
(0.121632 -0.00507913 0)
(0.122756 -0.00499283 0)
(0.12386 -0.00490335 0)
(0.124945 -0.0048107 0)
(0.126008 -0.00471487 0)
(0.12705 -0.00461587 0)
(0.128069 -0.00451371 0)
(0.129066 -0.00440842 0)
(0.130038 -0.0043 0)
(0.130986 -0.00418851 0)
(0.131909 -0.00407397 0)
(0.132806 -0.00395642 0)
(0.133677 -0.00383592 0)
(0.13452 -0.00371252 0)
(0.135335 -0.00358629 0)
(0.136122 -0.00345729 0)
(0.13688 -0.0033256 0)
(0.137608 -0.00319129 0)
(0.138306 -0.00305446 0)
(0.138973 -0.00291521 0)
(0.139609 -0.00277362 0)
(0.140213 -0.0026298 0)
(0.140784 -0.00248386 0)
(0.141323 -0.00233593 0)
(0.141828 -0.0021861 0)
(0.1423 -0.00203452 0)
(0.142738 -0.00188131 0)
(0.143141 -0.00172661 0)
(0.143509 -0.00157054 0)
(0.143843 -0.00141325 0)
(0.144141 -0.00125488 0)
(0.144403 -0.00109558 0)
(0.14463 -0.000935495 0)
(0.144821 -0.000774771 0)
(0.144976 -0.000613561 0)
(0.145095 -0.000452015 0)
(0.145177 -0.000290285 0)
(0.145224 -0.000128524 0)
(0.145234 3.31178e-05 0)
(0.145208 0.000194489 0)
(0.145147 0.000355439 0)