/*--------------------------------*- C++ -*----------------------------------*\
| =========                 |                                                 |
| \\      /  F ield         | OpenFOAM: The Open Source CFD Toolbox           |
|  \\    /   O peration     | Version:  v2012                                 |
|   \\  /    A nd           | Website:  www.openfoam.com                      |
|    \\/     M anipulation  |                                                 |
\*---------------------------------------------------------------------------*/
FoamFile
{
    version     2.0;
    format      ascii;
    class       volVectorField;
    location    "1e-06";
    object      Psi;
}
// * * * * * * * * * * * * * * * * * * * * * * * * * * * * * * * * * * * * * //

dimensions      [0 2 -1 0 0 0 0];


internalField   nonuniform List<vector> 
65536
(
(0 0 8.27863e-06)
(0 0 2.48342e-05)
(0 0 4.1388e-05)
(0 0 5.79389e-05)
(0 0 7.4486e-05)
(0 0 9.10281e-05)
(0 0 0.000107564)
(0 0 0.000124093)
(0 0 0.000140613)
(0 0 0.000157123)
(0 0 0.000173623)
(0 0 0.000190111)
(0 0 0.000206585)
(0 0 0.000223045)
(0 0 0.000239489)
(0 0 0.000255916)
(0 0 0.000272324)
(0 0 0.000288713)
(0 0 0.000305081)
(0 0 0.000321426)
(0 0 0.000337747)
(0 0 0.000354042)
(0 0 0.000370311)
(0 0 0.000386551)
(0 0 0.000402761)
(0 0 0.000418938)
(0 0 0.000435083)
(0 0 0.000451192)
(0 0 0.000467265)
(0 0 0.000483298)
(0 0 0.000499292)
(0 0 0.000515242)
(0 0 0.000531149)
(0 0 0.000547009)
(0 0 0.00056282)
(0 0 0.000578582)
(0 0 0.00059429)
(0 0 0.000609944)
(0 0 0.000625541)
(0 0 0.000641079)
(0 0 0.000656556)
(0 0 0.000671968)
(0 0 0.000687315)
(0 0 0.000702593)
(0 0 0.0007178)
(0 0 0.000732933)
(0 0 0.00074799)
(0 0 0.000762969)
(0 0 0.000777866)
(0 0 0.000792678)
(0 0 0.000807405)
(0 0 0.000822041)
(0 0 0.000836585)
(0 0 0.000851035)
(0 0 0.000865386)
(0 0 0.000879636)
(0 0 0.000893782)
(0 0 0.000907822)
(0 0 0.000921752)
(0 0 0.000935569)
(0 0 0.000949271)
(0 0 0.000962854)
(0 0 0.000976315)
(0 0 0.000989652)
(0 0 0.00100286)
(0 0 0.00101594)
(0 0 0.00102888)
(0 0 0.00104169)
(0 0 0.00105436)
(0 0 0.00106688)
(0 0 0.00107926)
(0 0 0.00109149)
(0 0 0.00110356)
(0 0 0.00111548)
(0 0 0.00112724)
(0 0 0.00113885)
(0 0 0.00115028)
(0 0 0.00116155)
(0 0 0.00117265)
(0 0 0.00118358)
(0 0 0.00119433)
(0 0 0.0012049)
(0 0 0.0012153)
(0 0 0.0012255)
(0 0 0.00123552)
(0 0 0.00124536)
(0 0 0.001255)
(0 0 0.00126444)
(0 0 0.00127369)
(0 0 0.00128274)
(0 0 0.00129158)
(0 0 0.00130023)
(0 0 0.00130866)
(0 0 0.00131689)
(0 0 0.00132491)
(0 0 0.00133271)
(0 0 0.0013403)
(0 0 0.00134767)
(0 0 0.00135482)
(0 0 0.00136176)
(0 0 0.00136846)
(0 0 0.00137495)
(0 0 0.00138121)
(0 0 0.00138724)
(0 0 0.00139304)
(0 0 0.00139862)
(0 0 0.00140396)
(0 0 0.00140907)
(0 0 0.00141394)
(0 0 0.00141858)
(0 0 0.00142298)
(0 0 0.00142714)
(0 0 0.00143106)
(0 0 0.00143474)
(0 0 0.00143819)
(0 0 0.00144139)
(0 0 0.00144435)
(0 0 0.00144706)
(0 0 0.00144953)
(0 0 0.00145176)
(0 0 0.00145374)
(0 0 0.00145548)
(0 0 0.00145697)
(0 0 0.00145821)
(0 0 0.00145921)
(0 0 0.00145996)
(0 0 0.00146047)
(0 0 0.00146072)
(0 0 0.00146074)
(0 0 0.0014605)
(0 0 0.00146001)
(0 0 0.00145928)
(0 0 0.00145831)
(0 0 0.00145708)
(0 0 0.00145561)
(0 0 0.0014539)
(0 0 0.00145193)
(0 0 0.00144973)
(0 0 0.00144728)
(0 0 0.00144458)
(0 0 0.00144164)
(0 0 0.00143846)
(0 0 0.00143504)
(0 0 0.00143138)
(0 0 0.00142747)
(0 0 0.00142333)
(0 0 0.00141895)
(0 0 0.00141433)
(0 0 0.00140948)
(0 0 0.00140439)
(0 0 0.00139906)
(0 0 0.00139351)
(0 0 0.00138772)
(0 0 0.00138171)
(0 0 0.00137547)
(0 0 0.001369)
(0 0 0.0013623)
(0 0 0.00135539)
(0 0 0.00134825)
(0 0 0.0013409)
(0 0 0.00133332)
(0 0 0.00132553)
(0 0 0.00131753)
(0 0 0.00130932)
(0 0 0.0013009)
(0 0 0.00129227)
(0 0 0.00128343)
(0 0 0.0012744)
(0 0 0.00126516)
(0 0 0.00125573)
(0 0 0.0012461)
(0 0 0.00123628)
(0 0 0.00122627)
(0 0 0.00121607)
(0 0 0.00120569)
(0 0 0.00119513)
(0 0 0.00118438)
(0 0 0.00117346)
(0 0 0.00116237)
(0 0 0.00115111)
(0 0 0.00113968)
(0 0 0.00112808)
(0 0 0.00111633)
(0 0 0.00110441)
(0 0 0.00109234)
(0 0 0.00108012)
(0 0 0.00106774)
(0 0 0.00105522)
(0 0 0.00104256)
(0 0 0.00102975)
(0 0 0.00101681)
(0 0 0.00100373)
(0 0 0.000990523)
(0 0 0.000977186)
(0 0 0.000963724)
(0 0 0.000950139)
(0 0 0.000936436)
(0 0 0.000922616)
(0 0 0.000908683)
(0 0 0.00089464)
(0 0 0.000880489)
(0 0 0.000866234)
(0 0 0.000851878)
(0 0 0.000837423)
(0 0 0.000822873)
(0 0 0.00080823)
(0 0 0.000793497)
(0 0 0.000778676)
(0 0 0.000763771)
(0 0 0.000748784)
(0 0 0.000733718)
(0 0 0.000718575)
(0 0 0.000703358)
(0 0 0.000688069)
(0 0 0.000672712)
(0 0 0.000657288)
(0 0 0.000641799)
(0 0 0.000626249)
(0 0 0.000610639)
(0 0 0.000594972)
(0 0 0.00057925)
(0 0 0.000563474)
(0 0 0.000547648)
(0 0 0.000531774)
(0 0 0.000515852)
(0 0 0.000499886)
(0 0 0.000483877)
(0 0 0.000467827)
(0 0 0.000451738)
(0 0 0.000435612)
(0 0 0.00041945)
(0 0 0.000403255)
(0 0 0.000387027)
(0 0 0.000370769)
(0 0 0.000354483)
(0 0 0.000338169)
(0 0 0.000321829)
(0 0 0.000305465)
(0 0 0.000289078)
(0 0 0.000272669)
(0 0 0.000256241)
(0 0 0.000239794)
(0 0 0.00022333)
(0 0 0.00020685)
(0 0 0.000190355)
(0 0 0.000173847)
(0 0 0.000157326)
(0 0 0.000140795)
(0 0 0.000124253)
(0 0 0.000107704)
(0 0 9.11463e-05)
(0 0 7.45827e-05)
(0 0 5.80142e-05)
(0 0 4.14417e-05)
(0 0 2.4866e-05)
(0 0 8.28897e-06)
(0 0 2.48341e-05)
(0 0 7.45005e-05)
(0 0 0.000124162)
(0 0 0.000173814)
(0 0 0.000223455)
(0 0 0.000273081)
(0 0 0.000322689)
(0 0 0.000372275)
(0 0 0.000421835)
(0 0 0.000471367)
(0 0 0.000520866)
(0 0 0.000570329)
(0 0 0.000619752)
(0 0 0.000669131)
(0 0 0.000718463)
(0 0 0.000767744)
(0 0 0.00081697)
(0 0 0.000866136)
(0 0 0.000915239)
(0 0 0.000964275)
(0 0 0.00101324)
(0 0 0.00106212)
(0 0 0.00111093)
(0 0 0.00115965)
(0 0 0.00120828)
(0 0 0.00125681)
(0 0 0.00130525)
(0 0 0.00135358)
(0 0 0.0014018)
(0 0 0.0014499)
(0 0 0.00149788)
(0 0 0.00154573)
(0 0 0.00159345)
(0 0 0.00164103)
(0 0 0.00168847)
(0 0 0.00173575)
(0 0 0.00178288)
(0 0 0.00182984)
(0 0 0.00187663)
(0 0 0.00192325)
(0 0 0.00196968)
(0 0 0.00201592)
(0 0 0.00206196)
(0 0 0.00210779)
(0 0 0.00215342)
(0 0 0.00219882)
(0 0 0.00224399)
(0 0 0.00228893)
(0 0 0.00233362)
(0 0 0.00237806)
(0 0 0.00242224)
(0 0 0.00246615)
(0 0 0.00250979)
(0 0 0.00255314)
(0 0 0.00259619)
(0 0 0.00263894)
(0 0 0.00268139)
(0 0 0.00272351)
(0 0 0.0027653)
(0 0 0.00280675)
(0 0 0.00284786)
(0 0 0.00288861)
(0 0 0.002929)
(0 0 0.00296901)
(0 0 0.00300864)
(0 0 0.00304787)
(0 0 0.00308671)
(0 0 0.00312513)
(0 0 0.00316313)
(0 0 0.00320071)
(0 0 0.00323784)
(0 0 0.00327453)
(0 0 0.00331076)
(0 0 0.00334652)
(0 0 0.00338181)
(0 0 0.00341662)
(0 0 0.00345093)
(0 0 0.00348475)
(0 0 0.00351805)
(0 0 0.00355083)
(0 0 0.00358309)
(0 0 0.00361481)
(0 0 0.00364599)
(0 0 0.00367661)
(0 0 0.00370667)
(0 0 0.00373617)
(0 0 0.00376509)
(0 0 0.00379343)
(0 0 0.00382117)
(0 0 0.00384832)
(0 0 0.00387486)
(0 0 0.00390079)
(0 0 0.0039261)
(0 0 0.00395079)
(0 0 0.00397484)
(0 0 0.00399825)
(0 0 0.00402102)
(0 0 0.00404313)
(0 0 0.00406459)
(0 0 0.00408539)
(0 0 0.00410552)
(0 0 0.00412498)
(0 0 0.00414376)
(0 0 0.00416186)
(0 0 0.00417927)
(0 0 0.00419599)
(0 0 0.00421201)
(0 0 0.00422733)
(0 0 0.00424195)
(0 0 0.00425587)
(0 0 0.00426907)
(0 0 0.00428155)
(0 0 0.00429333)
(0 0 0.00430438)
(0 0 0.0043147)
(0 0 0.00432431)
(0 0 0.00433318)
(0 0 0.00434133)
(0 0 0.00434874)
(0 0 0.00435543)
(0 0 0.00436137)
(0 0 0.00436658)
(0 0 0.00437105)
(0 0 0.00437479)
(0 0 0.00437778)
(0 0 0.00438004)
(0 0 0.00438155)
(0 0 0.00438232)
(0 0 0.00438235)
(0 0 0.00438164)
(0 0 0.00438019)
(0 0 0.004378)
(0 0 0.00437507)
(0 0 0.0043714)
(0 0 0.00436699)
(0 0 0.00436184)
(0 0 0.00435595)
(0 0 0.00434933)
(0 0 0.00434198)
(0 0 0.00433389)
(0 0 0.00432508)
(0 0 0.00431553)
(0 0 0.00430526)
(0 0 0.00429427)
(0 0 0.00428256)
(0 0 0.00427013)
(0 0 0.00425699)
(0 0 0.00424313)
(0 0 0.00422857)
(0 0 0.0042133)
(0 0 0.00419733)
(0 0 0.00418067)
(0 0 0.00416331)
(0 0 0.00414526)
(0 0 0.00412653)
(0 0 0.00410713)
(0 0 0.00408705)
(0 0 0.0040663)
(0 0 0.00404489)
(0 0 0.00402282)
(0 0 0.00400009)
(0 0 0.00397673)
(0 0 0.00395272)
(0 0 0.00392808)
(0 0 0.00390281)
(0 0 0.00387692)
(0 0 0.00385042)
(0 0 0.00382331)
(0 0 0.0037956)
(0 0 0.0037673)
(0 0 0.00373841)
(0 0 0.00370895)
(0 0 0.00367892)
(0 0 0.00364832)
(0 0 0.00361717)
(0 0 0.00358548)
(0 0 0.00355325)
(0 0 0.00352049)
(0 0 0.00348721)
(0 0 0.00345342)
(0 0 0.00341913)
(0 0 0.00338434)
(0 0 0.00334907)
(0 0 0.00331332)
(0 0 0.0032771)
(0 0 0.00324042)
(0 0 0.0032033)
(0 0 0.00316573)
(0 0 0.00312774)
(0 0 0.00308932)
(0 0 0.00305049)
(0 0 0.00301126)
(0 0 0.00297163)
(0 0 0.00293162)
(0 0 0.00289123)
(0 0 0.00285047)
(0 0 0.00280936)
(0 0 0.0027679)
(0 0 0.0027261)
(0 0 0.00268397)
(0 0 0.00264151)
(0 0 0.00259875)
(0 0 0.00255568)
(0 0 0.00251231)
(0 0 0.00246866)
(0 0 0.00242473)
(0 0 0.00238052)
(0 0 0.00233606)
(0 0 0.00229134)
(0 0 0.00224638)
(0 0 0.00220118)
(0 0 0.00215575)
(0 0 0.0021101)
(0 0 0.00206423)
(0 0 0.00201816)
(0 0 0.00197188)
(0 0 0.00192542)
(0 0 0.00187877)
(0 0 0.00183193)
(0 0 0.00178493)
(0 0 0.00173776)
(0 0 0.00169044)
(0 0 0.00164296)
(0 0 0.00159533)
(0 0 0.00154757)
(0 0 0.00149967)
(0 0 0.00145164)
(0 0 0.00140349)
(0 0 0.00135522)
(0 0 0.00130684)
(0 0 0.00125836)
(0 0 0.00120977)
(0 0 0.00116109)
(0 0 0.00111231)
(0 0 0.00106345)
(0 0 0.00101451)
(0 0 0.00096549)
(0 0 0.000916397)
(0 0 0.000867236)
(0 0 0.000818011)
(0 0 0.000768726)
(0 0 0.000719385)
(0 0 0.000669992)
(0 0 0.000620552)
(0 0 0.000571067)
(0 0 0.000521542)
(0 0 0.00047198)
(0 0 0.000422386)
(0 0 0.000372762)
(0 0 0.000323112)
(0 0 0.000273441)
(0 0 0.00022375)
(0 0 0.000174044)
(0 0 0.000124326)
(0 0 7.45998e-05)
(0 0 2.48671e-05)
(0 0 4.1392e-05)
(0 0 0.000124173)
(0 0 0.000206945)
(0 0 0.000289703)
(0 0 0.000372441)
(0 0 0.000455155)
(0 0 0.000537838)
(0 0 0.000620485)
(0 0 0.000703089)
(0 0 0.000785645)
(0 0 0.000868147)
(0 0 0.000950589)
(0 0 0.00103297)
(0 0 0.00111527)
(0 0 0.00119749)
(0 0 0.00127963)
(0 0 0.00136168)
(0 0 0.00144363)
(0 0 0.00152547)
(0 0 0.0016072)
(0 0 0.00168881)
(0 0 0.00177029)
(0 0 0.00185164)
(0 0 0.00193285)
(0 0 0.0020139)
(0 0 0.0020948)
(0 0 0.00217553)
(0 0 0.00225608)
(0 0 0.00233645)
(0 0 0.00241662)
(0 0 0.0024966)
(0 0 0.00257636)
(0 0 0.0026559)
(0 0 0.00273521)
(0 0 0.00281427)
(0 0 0.00289309)
(0 0 0.00297164)
(0 0 0.00304992)
(0 0 0.00312791)
(0 0 0.00320561)
(0 0 0.003283)
(0 0 0.00336008)
(0 0 0.00343682)
(0 0 0.00351322)
(0 0 0.00358926)
(0 0 0.00366494)
(0 0 0.00374024)
(0 0 0.00381514)
(0 0 0.00388964)
(0 0 0.00396372)
(0 0 0.00403736)
(0 0 0.00411055)
(0 0 0.00418329)
(0 0 0.00425554)
(0 0 0.00432731)
(0 0 0.00439858)
(0 0 0.00446932)
(0 0 0.00453953)
(0 0 0.0046092)
(0 0 0.0046783)
(0 0 0.00474682)
(0 0 0.00481475)
(0 0 0.00488207)
(0 0 0.00494876)
(0 0 0.00501482)
(0 0 0.00508022)
(0 0 0.00514496)
(0 0 0.005209)
(0 0 0.00527235)
(0 0 0.00533499)
(0 0 0.00539689)
(0 0 0.00545804)
(0 0 0.00551844)
(0 0 0.00557805)
(0 0 0.00563688)
(0 0 0.0056949)
(0 0 0.0057521)
(0 0 0.00580846)
(0 0 0.00586398)
(0 0 0.00591863)
(0 0 0.00597239)
(0 0 0.00602527)
(0 0 0.00607724)
(0 0 0.00612829)
(0 0 0.00617841)
(0 0 0.00622758)
(0 0 0.00627578)
(0 0 0.00632302)
(0 0 0.00636927)
(0 0 0.00641453)
(0 0 0.00645877)
(0 0 0.00650199)
(0 0 0.00654418)
(0 0 0.00658533)
(0 0 0.00662542)
(0 0 0.00666445)
(0 0 0.0067024)
(0 0 0.00673927)
(0 0 0.00677504)
(0 0 0.00680971)
(0 0 0.00684327)
(0 0 0.00687571)
(0 0 0.00690701)
(0 0 0.00693718)
(0 0 0.0069662)
(0 0 0.00699407)
(0 0 0.00702078)
(0 0 0.00704632)
(0 0 0.00707069)
(0 0 0.00709388)
(0 0 0.00711589)
(0 0 0.00713671)
(0 0 0.00715633)
(0 0 0.00717475)
(0 0 0.00719196)
(0 0 0.00720797)
(0 0 0.00722277)
(0 0 0.00723635)
(0 0 0.00724871)
(0 0 0.00725984)
(0 0 0.00726975)
(0 0 0.00727844)
(0 0 0.0072859)
(0 0 0.00729212)
(0 0 0.00729711)
(0 0 0.00730087)
(0 0 0.00730339)
(0 0 0.00730468)
(0 0 0.00730473)
(0 0 0.00730355)
(0 0 0.00730113)
(0 0 0.00729747)
(0 0 0.00729259)
(0 0 0.00728647)
(0 0 0.00727911)
(0 0 0.00727053)
(0 0 0.00726072)
(0 0 0.00724969)
(0 0 0.00723743)
(0 0 0.00722395)
(0 0 0.00720925)
(0 0 0.00719335)
(0 0 0.00717623)
(0 0 0.00715791)
(0 0 0.00713838)
(0 0 0.00711766)
(0 0 0.00709575)
(0 0 0.00707265)
(0 0 0.00704838)
(0 0 0.00702293)
(0 0 0.00699631)
(0 0 0.00696853)
(0 0 0.0069396)
(0 0 0.00690952)
(0 0 0.0068783)
(0 0 0.00684595)
(0 0 0.00681247)
(0 0 0.00677789)
(0 0 0.00674219)
(0 0 0.0067054)
(0 0 0.00666753)
(0 0 0.00662857)
(0 0 0.00658855)
(0 0 0.00654748)
(0 0 0.00650536)
(0 0 0.0064622)
(0 0 0.00641802)
(0 0 0.00637283)
(0 0 0.00632664)
(0 0 0.00627947)
(0 0 0.00623131)
(0 0 0.0061822)
(0 0 0.00613214)
(0 0 0.00608114)
(0 0 0.00602922)
(0 0 0.00597638)
(0 0 0.00592266)
(0 0 0.00586805)
(0 0 0.00581258)
(0 0 0.00575625)
(0 0 0.00569908)
(0 0 0.00564109)
(0 0 0.00558229)
(0 0 0.0055227)
(0 0 0.00546233)
(0 0 0.00540119)
(0 0 0.00533931)
(0 0 0.00527669)
(0 0 0.00521336)
(0 0 0.00514932)
(0 0 0.00508459)
(0 0 0.00501919)
(0 0 0.00495314)
(0 0 0.00488644)
(0 0 0.00481911)
(0 0 0.00475118)
(0 0 0.00468265)
(0 0 0.00461353)
(0 0 0.00454386)
(0 0 0.00447363)
(0 0 0.00440286)
(0 0 0.00433157)
(0 0 0.00425978)
(0 0 0.00418749)
(0 0 0.00411473)
(0 0 0.0040415)
(0 0 0.00396782)
(0 0 0.00389371)
(0 0 0.00381917)
(0 0 0.00374423)
(0 0 0.00366888)
(0 0 0.00359316)
(0 0 0.00351706)
(0 0 0.00344061)
(0 0 0.00336381)
(0 0 0.00328668)
(0 0 0.00320923)
(0 0 0.00313147)
(0 0 0.00305341)
(0 0 0.00297506)
(0 0 0.00289644)
(0 0 0.00281756)
(0 0 0.00273842)
(0 0 0.00265904)
(0 0 0.00257942)
(0 0 0.00249958)
(0 0 0.00241953)
(0 0 0.00233928)
(0 0 0.00225882)
(0 0 0.00217819)
(0 0 0.00209737)
(0 0 0.00201639)
(0 0 0.00193524)
(0 0 0.00185395)
(0 0 0.00177251)
(0 0 0.00169093)
(0 0 0.00160923)
(0 0 0.0015274)
(0 0 0.00144546)
(0 0 0.00136342)
(0 0 0.00128127)
(0 0 0.00119903)
(0 0 0.0011167)
(0 0 0.0010343)
(0 0 0.000951821)
(0 0 0.000869275)
(0 0 0.000786669)
(0 0 0.000704007)
(0 0 0.000621297)
(0 0 0.000538544)
(0 0 0.000455754)
(0 0 0.000372933)
(0 0 0.000290086)
(0 0 0.00020722)
(0 0 0.000124338)
(0 0 4.14471e-05)
(0 0 5.79527e-05)
(0 0 0.000173854)
(0 0 0.000289743)
(0 0 0.000405613)
(0 0 0.000521455)
(0 0 0.000637263)
(0 0 0.000753027)
(0 0 0.000868741)
(0 0 0.000984395)
(0 0 0.00109998)
(0 0 0.00121549)
(0 0 0.00133092)
(0 0 0.00144626)
(0 0 0.00156149)
(0 0 0.00167661)
(0 0 0.00179162)
(0 0 0.00190649)
(0 0 0.00202123)
(0 0 0.00213582)
(0 0 0.00225025)
(0 0 0.00236452)
(0 0 0.00247861)
(0 0 0.0025925)
(0 0 0.0027062)
(0 0 0.00281969)
(0 0 0.00293296)
(0 0 0.00304599)
(0 0 0.00315878)
(0 0 0.00327131)
(0 0 0.00338357)
(0 0 0.00349554)
(0 0 0.00360722)
(0 0 0.00371859)
(0 0 0.00382964)
(0 0 0.00394034)
(0 0 0.0040507)
(0 0 0.00416069)
(0 0 0.00427029)
(0 0 0.0043795)
(0 0 0.0044883)
(0 0 0.00459666)
(0 0 0.00470458)
(0 0 0.00481204)
(0 0 0.00491902)
(0 0 0.0050255)
(0 0 0.00513146)
(0 0 0.0052369)
(0 0 0.00534178)
(0 0 0.0054461)
(0 0 0.00554982)
(0 0 0.00565294)
(0 0 0.00575543)
(0 0 0.00585728)
(0 0 0.00595846)
(0 0 0.00605896)
(0 0 0.00615875)
(0 0 0.00625781)
(0 0 0.00635613)
(0 0 0.00645368)
(0 0 0.00655044)
(0 0 0.00664639)
(0 0 0.00674151)
(0 0 0.00683578)
(0 0 0.00692918)
(0 0 0.00702168)
(0 0 0.00711327)
(0 0 0.00720392)
(0 0 0.0072936)
(0 0 0.00738231)
(0 0 0.00747002)
(0 0 0.0075567)
(0 0 0.00764234)
(0 0 0.00772692)
(0 0 0.0078104)
(0 0 0.00789278)
(0 0 0.00797403)
(0 0 0.00805413)
(0 0 0.00813306)
(0 0 0.0082108)
(0 0 0.00828732)
(0 0 0.00836262)
(0 0 0.00843667)
(0 0 0.00850945)
(0 0 0.00858093)
(0 0 0.00865112)
(0 0 0.00871997)
(0 0 0.00878748)
(0 0 0.00885363)
(0 0 0.0089184)
(0 0 0.00898177)
(0 0 0.00904373)
(0 0 0.00910426)
(0 0 0.00916334)
(0 0 0.00922096)
(0 0 0.0092771)
(0 0 0.00933176)
(0 0 0.00938491)
(0 0 0.00943653)
(0 0 0.00948663)
(0 0 0.00953518)
(0 0 0.00958217)
(0 0 0.00962759)
(0 0 0.00967143)
(0 0 0.00971368)
(0 0 0.00975432)
(0 0 0.00979334)
(0 0 0.00983075)
(0 0 0.00986651)
(0 0 0.00990064)
(0 0 0.00993312)
(0 0 0.00996393)
(0 0 0.00999308)
(0 0 0.0100206)
(0 0 0.0100464)
(0 0 0.0100705)
(0 0 0.0100929)
(0 0 0.0101136)
(0 0 0.0101326)
(0 0 0.0101499)
(0 0 0.0101655)
(0 0 0.0101794)
(0 0 0.0101916)
(0 0 0.010202)
(0 0 0.0102107)
(0 0 0.0102177)
(0 0 0.010223)
(0 0 0.0102265)
(0 0 0.0102283)
(0 0 0.0102284)
(0 0 0.0102267)
(0 0 0.0102233)
(0 0 0.0102182)
(0 0 0.0102114)
(0 0 0.0102028)
(0 0 0.0101925)
(0 0 0.0101805)
(0 0 0.0101667)
(0 0 0.0101513)
(0 0 0.0101341)
(0 0 0.0101153)
(0 0 0.0100947)
(0 0 0.0100724)
(0 0 0.0100484)
(0 0 0.0100228)
(0 0 0.00999543)
(0 0 0.00996642)
(0 0 0.00993573)
(0 0 0.00990339)
(0 0 0.00986939)
(0 0 0.00983375)
(0 0 0.00979648)
(0 0 0.00975758)
(0 0 0.00971706)
(0 0 0.00967494)
(0 0 0.00963122)
(0 0 0.00958592)
(0 0 0.00953904)
(0 0 0.00949061)
(0 0 0.00944062)
(0 0 0.00938911)
(0 0 0.00933607)
(0 0 0.00928152)
(0 0 0.00922547)
(0 0 0.00916795)
(0 0 0.00910897)
(0 0 0.00904853)
(0 0 0.00898667)
(0 0 0.00892338)
(0 0 0.0088587)
(0 0 0.00879264)
(0 0 0.00872521)
(0 0 0.00865643)
(0 0 0.00858632)
(0 0 0.0085149)
(0 0 0.00844219)
(0 0 0.00836821)
(0 0 0.00829297)
(0 0 0.0082165)
(0 0 0.00813882)
(0 0 0.00805994)
(0 0 0.00797988)
(0 0 0.00789868)
(0 0 0.00781634)
(0 0 0.00773289)
(0 0 0.00764835)
(0 0 0.00756274)
(0 0 0.00747608)
(0 0 0.00738839)
(0 0 0.0072997)
(0 0 0.00721002)
(0 0 0.00711938)
(0 0 0.0070278)
(0 0 0.0069353)
(0 0 0.0068419)
(0 0 0.00674763)
(0 0 0.0066525)
(0 0 0.00655653)
(0 0 0.00645975)
(0 0 0.00636218)
(0 0 0.00626384)
(0 0 0.00616475)
(0 0 0.00606493)
(0 0 0.0059644)
(0 0 0.00586317)
(0 0 0.00576128)
(0 0 0.00565874)
(0 0 0.00555558)
(0 0 0.0054518)
(0 0 0.00534742)
(0 0 0.00524248)
(0 0 0.00513698)
(0 0 0.00503095)
(0 0 0.0049244)
(0 0 0.00481735)
(0 0 0.00470981)
(0 0 0.00460181)
(0 0 0.00449336)
(0 0 0.00438448)
(0 0 0.00427518)
(0 0 0.00416548)
(0 0 0.0040554)
(0 0 0.00394495)
(0 0 0.00383414)
(0 0 0.00372299)
(0 0 0.00361151)
(0 0 0.00349972)
(0 0 0.00338764)
(0 0 0.00327527)
(0 0 0.00316262)
(0 0 0.00304971)
(0 0 0.00293656)
(0 0 0.00282317)
(0 0 0.00270956)
(0 0 0.00259573)
(0 0 0.00248171)
(0 0 0.00236749)
(0 0 0.00225309)
(0 0 0.00213853)
(0 0 0.0020238)
(0 0 0.00190892)
(0 0 0.00179391)
(0 0 0.00167877)
(0 0 0.0015635)
(0 0 0.00144812)
(0 0 0.00133265)
(0 0 0.00121707)
(0 0 0.00110141)
(0 0 0.00098568)
(0 0 0.000869877)
(0 0 0.000754015)
(0 0 0.0006381)
(0 0 0.000522142)
(0 0 0.000406149)
(0 0 0.000290127)
(0 0 0.000174085)
(0 0 5.80298e-05)
(0 0 7.45178e-05)
(0 0 0.000223548)
(0 0 0.000372562)
(0 0 0.000521551)
(0 0 0.000670506)
(0 0 0.000819415)
(0 0 0.00096827)
(0 0 0.00111706)
(0 0 0.00126577)
(0 0 0.0014144)
(0 0 0.00156293)
(0 0 0.00171135)
(0 0 0.00185966)
(0 0 0.00200783)
(0 0 0.00215586)
(0 0 0.00230374)
(0 0 0.00245145)
(0 0 0.00259899)
(0 0 0.00274634)
(0 0 0.00289348)
(0 0 0.00304042)
(0 0 0.00318712)
(0 0 0.00333358)
(0 0 0.00347978)
(0 0 0.00362571)
(0 0 0.00377136)
(0 0 0.00391671)
(0 0 0.00406175)
(0 0 0.00420645)
(0 0 0.0043508)
(0 0 0.0044948)
(0 0 0.00463841)
(0 0 0.00478162)
(0 0 0.00492442)
(0 0 0.00506678)
(0 0 0.00520869)
(0 0 0.00535013)
(0 0 0.00549108)
(0 0 0.00563152)
(0 0 0.00577143)
(0 0 0.00591078)
(0 0 0.00604957)
(0 0 0.00618776)
(0 0 0.00632533)
(0 0 0.00646226)
(0 0 0.00659854)
(0 0 0.00673413)
(0 0 0.00686901)
(0 0 0.00700316)
(0 0 0.00713655)
(0 0 0.00726917)
(0 0 0.00740098)
(0 0 0.00753196)
(0 0 0.00766209)
(0 0 0.00779133)
(0 0 0.00791967)
(0 0 0.00804707)
(0 0 0.00817351)
(0 0 0.00829897)
(0 0 0.00842341)
(0 0 0.00854682)
(0 0 0.00866915)
(0 0 0.00879039)
(0 0 0.00891051)
(0 0 0.00902948)
(0 0 0.00914727)
(0 0 0.00926386)
(0 0 0.00937921)
(0 0 0.0094933)
(0 0 0.0096061)
(0 0 0.00971759)
(0 0 0.00982773)
(0 0 0.00993651)
(0 0 0.0100439)
(0 0 0.0101498)
(0 0 0.0102543)
(0 0 0.0103574)
(0 0 0.0104589)
(0 0 0.0105589)
(0 0 0.0106573)
(0 0 0.0107541)
(0 0 0.0108494)
(0 0 0.010943)
(0 0 0.0110349)
(0 0 0.0111252)
(0 0 0.0112137)
(0 0 0.0113006)
(0 0 0.0113856)
(0 0 0.0114689)
(0 0 0.0115505)
(0 0 0.0116301)
(0 0 0.011708)
(0 0 0.011784)
(0 0 0.0118581)
(0 0 0.0119303)
(0 0 0.0120006)
(0 0 0.012069)
(0 0 0.0121354)
(0 0 0.0121998)
(0 0 0.0122622)
(0 0 0.0123227)
(0 0 0.0123811)
(0 0 0.0124375)
(0 0 0.0124918)
(0 0 0.0125441)
(0 0 0.0125943)
(0 0 0.0126424)
(0 0 0.0126884)
(0 0 0.0127323)
(0 0 0.012774)
(0 0 0.0128137)
(0 0 0.0128512)
(0 0 0.0128865)
(0 0 0.0129197)
(0 0 0.0129507)
(0 0 0.0129795)
(0 0 0.0130062)
(0 0 0.0130306)
(0 0 0.0130529)
(0 0 0.0130729)
(0 0 0.0130908)
(0 0 0.0131064)
(0 0 0.0131199)
(0 0 0.0131311)
(0 0 0.0131401)
(0 0 0.0131468)
(0 0 0.0131514)
(0 0 0.0131537)
(0 0 0.0131538)
(0 0 0.0131516)
(0 0 0.0131473)
(0 0 0.0131407)
(0 0 0.0131319)
(0 0 0.0131209)
(0 0 0.0131076)
(0 0 0.0130922)
(0 0 0.0130745)
(0 0 0.0130546)
(0 0 0.0130326)
(0 0 0.0130083)
(0 0 0.0129818)
(0 0 0.0129532)
(0 0 0.0129223)
(0 0 0.0128893)
(0 0 0.0128542)
(0 0 0.0128169)
(0 0 0.0127774)
(0 0 0.0127358)
(0 0 0.0126921)
(0 0 0.0126462)
(0 0 0.0125983)
(0 0 0.0125483)
(0 0 0.0124962)
(0 0 0.012442)
(0 0 0.0123858)
(0 0 0.0123275)
(0 0 0.0122672)
(0 0 0.0122049)
(0 0 0.0121406)
(0 0 0.0120744)
(0 0 0.0120061)
(0 0 0.011936)
(0 0 0.0118639)
(0 0 0.0117899)
(0 0 0.0117141)
(0 0 0.0116363)
(0 0 0.0115568)
(0 0 0.0114754)
(0 0 0.0113922)
(0 0 0.0113072)
(0 0 0.0112205)
(0 0 0.011132)
(0 0 0.0110418)
(0 0 0.01095)
(0 0 0.0108565)
(0 0 0.0107613)
(0 0 0.0106645)
(0 0 0.0105662)
(0 0 0.0104663)
(0 0 0.0103648)
(0 0 0.0102619)
(0 0 0.0101574)
(0 0 0.0100515)
(0 0 0.00994419)
(0 0 0.00983545)
(0 0 0.00972535)
(0 0 0.00961389)
(0 0 0.00950111)
(0 0 0.00938704)
(0 0 0.00927171)
(0 0 0.00915513)
(0 0 0.00903735)
(0 0 0.00891839)
(0 0 0.00879827)
(0 0 0.00867702)
(0 0 0.00855467)
(0 0 0.00843125)
(0 0 0.00830678)
(0 0 0.0081813)
(0 0 0.00805482)
(0 0 0.00792738)
(0 0 0.007799)
(0 0 0.00766971)
(0 0 0.00753954)
(0 0 0.0074085)
(0 0 0.00727663)
(0 0 0.00714395)
(0 0 0.00701049)
(0 0 0.00687626)
(0 0 0.0067413)
(0 0 0.00660563)
(0 0 0.00646927)
(0 0 0.00633225)
(0 0 0.00619458)
(0 0 0.00605629)
(0 0 0.0059174)
(0 0 0.00577794)
(0 0 0.00563792)
(0 0 0.00549737)
(0 0 0.0053563)
(0 0 0.00521474)
(0 0 0.0050727)
(0 0 0.00493021)
(0 0 0.00478727)
(0 0 0.00464392)
(0 0 0.00450017)
(0 0 0.00435604)
(0 0 0.00421154)
(0 0 0.00406668)
(0 0 0.0039215)
(0 0 0.00377599)
(0 0 0.00363019)
(0 0 0.00348409)
(0 0 0.00333773)
(0 0 0.0031911)
(0 0 0.00304423)
(0 0 0.00289713)
(0 0 0.00274981)
(0 0 0.00260229)
(0 0 0.00245458)
(0 0 0.00230669)
(0 0 0.00215863)
(0 0 0.00201041)
(0 0 0.00186206)
(0 0 0.00171357)
(0 0 0.00156496)
(0 0 0.00141624)
(0 0 0.00126742)
(0 0 0.00111852)
(0 0 0.000969539)
(0 0 0.000820491)
(0 0 0.000671388)
(0 0 0.00052224)
(0 0 0.000373056)
(0 0 0.000223844)
(0 0 7.46168e-05)
(0 0 9.10878e-05)
(0 0 0.000273257)
(0 0 0.000455407)
(0 0 0.000637526)
(0 0 0.000819603)
(0 0 0.00100163)
(0 0 0.00118358)
(0 0 0.00136546)
(0 0 0.00154724)
(0 0 0.00172892)
(0 0 0.00191048)
(0 0 0.00209191)
(0 0 0.00227319)
(0 0 0.00245431)
(0 0 0.00263527)
(0 0 0.00281603)
(0 0 0.0029966)
(0 0 0.00317695)
(0 0 0.00335706)
(0 0 0.00353694)
(0 0 0.00371655)
(0 0 0.00389588)
(0 0 0.00407491)
(0 0 0.00425364)
(0 0 0.00443203)
(0 0 0.00461008)
(0 0 0.00478776)
(0 0 0.00496505)
(0 0 0.00514195)
(0 0 0.00531841)
(0 0 0.00549444)
(0 0 0.00567)
(0 0 0.00584508)
(0 0 0.00601964)
(0 0 0.00619368)
(0 0 0.00636717)
(0 0 0.00654008)
(0 0 0.00671239)
(0 0 0.00688408)
(0 0 0.00705512)
(0 0 0.00722549)
(0 0 0.00739516)
(0 0 0.0075641)
(0 0 0.00773229)
(0 0 0.0078997)
(0 0 0.00806631)
(0 0 0.00823208)
(0 0 0.00839698)
(0 0 0.00856099)
(0 0 0.00872408)
(0 0 0.00888622)
(0 0 0.00904737)
(0 0 0.00920751)
(0 0 0.00936661)
(0 0 0.00952462)
(0 0 0.00968153)
(0 0 0.0098373)
(0 0 0.0099919)
(0 0 0.0101453)
(0 0 0.0102974)
(0 0 0.0104483)
(0 0 0.0105979)
(0 0 0.0107461)
(0 0 0.010893)
(0 0 0.0110385)
(0 0 0.0111825)
(0 0 0.011325)
(0 0 0.0114661)
(0 0 0.0116056)
(0 0 0.0117435)
(0 0 0.0118798)
(0 0 0.0120145)
(0 0 0.0121475)
(0 0 0.0122788)
(0 0 0.0124084)
(0 0 0.0125361)
(0 0 0.0126621)
(0 0 0.0127862)
(0 0 0.0129085)
(0 0 0.0130288)
(0 0 0.0131473)
(0 0 0.0132637)
(0 0 0.0133782)
(0 0 0.0134906)
(0 0 0.013601)
(0 0 0.0137093)
(0 0 0.0138154)
(0 0 0.0139195)
(0 0 0.0140213)
(0 0 0.014121)
(0 0 0.0142184)
(0 0 0.0143136)
(0 0 0.0144065)
(0 0 0.0144971)
(0 0 0.0145854)
(0 0 0.0146714)
(0 0 0.014755)
(0 0 0.0148362)
(0 0 0.014915)
(0 0 0.0149913)
(0 0 0.0150652)
(0 0 0.0151366)
(0 0 0.0152056)
(0 0 0.015272)
(0 0 0.0153359)
(0 0 0.0153973)
(0 0 0.0154561)
(0 0 0.0155124)
(0 0 0.015566)
(0 0 0.0156171)
(0 0 0.0156656)
(0 0 0.0157114)
(0 0 0.0157546)
(0 0 0.0157952)
(0 0 0.0158331)
(0 0 0.0158684)
(0 0 0.0159009)
(0 0 0.0159308)
(0 0 0.0159581)
(0 0 0.0159826)
(0 0 0.0160044)
(0 0 0.0160235)
(0 0 0.01604)
(0 0 0.0160537)
(0 0 0.0160647)
(0 0 0.0160729)
(0 0 0.0160785)
(0 0 0.0160813)
(0 0 0.0160814)
(0 0 0.0160788)
(0 0 0.0160735)
(0 0 0.0160655)
(0 0 0.0160547)
(0 0 0.0160412)
(0 0 0.016025)
(0 0 0.0160061)
(0 0 0.0159845)
(0 0 0.0159602)
(0 0 0.0159332)
(0 0 0.0159035)
(0 0 0.0158712)
(0 0 0.0158361)
(0 0 0.0157985)
(0 0 0.0157581)
(0 0 0.0157151)
(0 0 0.0156695)
(0 0 0.0156212)
(0 0 0.0155704)
(0 0 0.0155169)
(0 0 0.0154609)
(0 0 0.0154022)
(0 0 0.0153411)
(0 0 0.0152773)
(0 0 0.0152111)
(0 0 0.0151423)
(0 0 0.0150711)
(0 0 0.0149974)
(0 0 0.0149212)
(0 0 0.0148426)
(0 0 0.0147616)
(0 0 0.0146782)
(0 0 0.0145924)
(0 0 0.0145042)
(0 0 0.0144138)
(0 0 0.014321)
(0 0 0.014226)
(0 0 0.0141287)
(0 0 0.0140292)
(0 0 0.0139274)
(0 0 0.0138235)
(0 0 0.0137175)
(0 0 0.0136093)
(0 0 0.0134991)
(0 0 0.0133867)
(0 0 0.0132724)
(0 0 0.013156)
(0 0 0.0130377)
(0 0 0.0129175)
(0 0 0.0127953)
(0 0 0.0126712)
(0 0 0.0125453)
(0 0 0.0124176)
(0 0 0.0122881)
(0 0 0.0121569)
(0 0 0.012024)
(0 0 0.0118893)
(0 0 0.011753)
(0 0 0.0116151)
(0 0 0.0114757)
(0 0 0.0113346)
(0 0 0.0111921)
(0 0 0.0110481)
(0 0 0.0109026)
(0 0 0.0107558)
(0 0 0.0106075)
(0 0 0.0104579)
(0 0 0.010307)
(0 0 0.0101548)
(0 0 0.0100014)
(0 0 0.00984678)
(0 0 0.00969097)
(0 0 0.00953401)
(0 0 0.00937593)
(0 0 0.00921678)
(0 0 0.00905657)
(0 0 0.00889534)
(0 0 0.00873313)
(0 0 0.00856995)
(0 0 0.00840585)
(0 0 0.00824085)
(0 0 0.00807498)
(0 0 0.00790827)
(0 0 0.00774075)
(0 0 0.00757244)
(0 0 0.00740338)
(0 0 0.00723358)
(0 0 0.00706308)
(0 0 0.00689191)
(0 0 0.00672008)
(0 0 0.00654762)
(0 0 0.00637456)
(0 0 0.00620092)
(0 0 0.00602672)
(0 0 0.00585199)
(0 0 0.00567675)
(0 0 0.00550101)
(0 0 0.00532481)
(0 0 0.00514817)
(0 0 0.00497109)
(0 0 0.00479361)
(0 0 0.00461574)
(0 0 0.0044375)
(0 0 0.00425891)
(0 0 0.00407999)
(0 0 0.00390075)
(0 0 0.00372121)
(0 0 0.00354139)
(0 0 0.00336131)
(0 0 0.00318098)
(0 0 0.00300042)
(0 0 0.00281963)
(0 0 0.00263865)
(0 0 0.00245747)
(0 0 0.00227612)
(0 0 0.00209461)
(0 0 0.00191295)
(0 0 0.00173117)
(0 0 0.00154926)
(0 0 0.00136724)
(0 0 0.00118513)
(0 0 0.00100294)
(0 0 0.000820681)
(0 0 0.000638367)
(0 0 0.000456009)
(0 0 0.000273619)
(0 0 9.12086e-05)
(0 0 0.000107664)
(0 0 0.000322985)
(0 0 0.000538283)
(0 0 0.000753545)
(0 0 0.000968757)
(0 0 0.0011839)
(0 0 0.00139897)
(0 0 0.00161395)
(0 0 0.00182881)
(0 0 0.00204356)
(0 0 0.00225816)
(0 0 0.00247261)
(0 0 0.00268688)
(0 0 0.00290097)
(0 0 0.00311486)
(0 0 0.00332853)
(0 0 0.00354196)
(0 0 0.00375514)
(0 0 0.00396804)
(0 0 0.00418066)
(0 0 0.00439296)
(0 0 0.00460494)
(0 0 0.00481657)
(0 0 0.00502783)
(0 0 0.0052387)
(0 0 0.00544916)
(0 0 0.00565919)
(0 0 0.00586877)
(0 0 0.00607787)
(0 0 0.00628648)
(0 0 0.00649456)
(0 0 0.00670209)
(0 0 0.00690905)
(0 0 0.00711541)
(0 0 0.00732115)
(0 0 0.00752623)
(0 0 0.00773064)
(0 0 0.00793434)
(0 0 0.0081373)
(0 0 0.0083395)
(0 0 0.00854091)
(0 0 0.00874149)
(0 0 0.00894121)
(0 0 0.00914005)
(0 0 0.00933796)
(0 0 0.00953492)
(0 0 0.0097309)
(0 0 0.00992586)
(0 0 0.0101198)
(0 0 0.0103126)
(0 0 0.0105043)
(0 0 0.0106948)
(0 0 0.0108841)
(0 0 0.0110722)
(0 0 0.011259)
(0 0 0.0114446)
(0 0 0.0116287)
(0 0 0.0118115)
(0 0 0.0119929)
(0 0 0.0121728)
(0 0 0.0123512)
(0 0 0.012528)
(0 0 0.0127033)
(0 0 0.0128769)
(0 0 0.0130489)
(0 0 0.0132192)
(0 0 0.0133878)
(0 0 0.0135545)
(0 0 0.0137195)
(0 0 0.0138826)
(0 0 0.0140437)
(0 0 0.014203)
(0 0 0.0143602)
(0 0 0.0145155)
(0 0 0.0146687)
(0 0 0.0148198)
(0 0 0.0149687)
(0 0 0.0151155)
(0 0 0.01526)
(0 0 0.0154024)
(0 0 0.0155424)
(0 0 0.0156801)
(0 0 0.0158154)
(0 0 0.0159483)
(0 0 0.0160789)
(0 0 0.0162069)
(0 0 0.0163324)
(0 0 0.0164555)
(0 0 0.0165759)
(0 0 0.0166937)
(0 0 0.016809)
(0 0 0.0169215)
(0 0 0.0170314)
(0 0 0.0171385)
(0 0 0.0172429)
(0 0 0.0173446)
(0 0 0.0174434)
(0 0 0.0175394)
(0 0 0.0176326)
(0 0 0.0177229)
(0 0 0.0178102)
(0 0 0.0178947)
(0 0 0.0179762)
(0 0 0.0180548)
(0 0 0.0181304)
(0 0 0.0182029)
(0 0 0.0182725)
(0 0 0.018339)
(0 0 0.0184024)
(0 0 0.0184628)
(0 0 0.0185201)
(0 0 0.0185743)
(0 0 0.0186254)
(0 0 0.0186734)
(0 0 0.0187182)
(0 0 0.0187599)
(0 0 0.0187984)
(0 0 0.0188338)
(0 0 0.018866)
(0 0 0.018895)
(0 0 0.0189208)
(0 0 0.0189434)
(0 0 0.0189628)
(0 0 0.018979)
(0 0 0.018992)
(0 0 0.0190018)
(0 0 0.0190083)
(0 0 0.0190117)
(0 0 0.0190118)
(0 0 0.0190087)
(0 0 0.0190024)
(0 0 0.0189929)
(0 0 0.0189802)
(0 0 0.0189643)
(0 0 0.0189451)
(0 0 0.0189228)
(0 0 0.0188972)
(0 0 0.0188685)
(0 0 0.0188366)
(0 0 0.0188015)
(0 0 0.0187632)
(0 0 0.0187218)
(0 0 0.0186772)
(0 0 0.0186295)
(0 0 0.0185787)
(0 0 0.0185247)
(0 0 0.0184677)
(0 0 0.0184075)
(0 0 0.0183443)
(0 0 0.0182781)
(0 0 0.0182088)
(0 0 0.0181364)
(0 0 0.0180611)
(0 0 0.0179827)
(0 0 0.0179015)
(0 0 0.0178172)
(0 0 0.01773)
(0 0 0.01764)
(0 0 0.017547)
(0 0 0.0174512)
(0 0 0.0173526)
(0 0 0.0172512)
(0 0 0.0171469)
(0 0 0.01704)
(0 0 0.0169303)
(0 0 0.0168179)
(0 0 0.0167029)
(0 0 0.0165852)
(0 0 0.0164649)
(0 0 0.016342)
(0 0 0.0162166)
(0 0 0.0160887)
(0 0 0.0159584)
(0 0 0.0158256)
(0 0 0.0156903)
(0 0 0.0155528)
(0 0 0.0154129)
(0 0 0.0152707)
(0 0 0.0151262)
(0 0 0.0149795)
(0 0 0.0148306)
(0 0 0.0146796)
(0 0 0.0145265)
(0 0 0.0143714)
(0 0 0.0142142)
(0 0 0.014055)
(0 0 0.0138938)
(0 0 0.0137308)
(0 0 0.0135659)
(0 0 0.0133991)
(0 0 0.0132306)
(0 0 0.0130603)
(0 0 0.0128883)
(0 0 0.0127147)
(0 0 0.0125394)
(0 0 0.0123625)
(0 0 0.0121841)
(0 0 0.0120042)
(0 0 0.0118228)
(0 0 0.0116399)