/*--------------------------------*- C++ -*----------------------------------*\
| =========                 |                                                 |
| \\      /  F ield         | OpenFOAM: The Open Source CFD Toolbox           |
|  \\    /   O peration     | Version:  v2012                                 |
|   \\  /    A nd           | Website:  www.openfoam.com                      |
|    \\/     M anipulation  |                                                 |
\*---------------------------------------------------------------------------*/
FoamFile
{
    version     2.0;
    format      ascii;
    class       volScalarField;
    location    "1.5";
    object      p;
}
// * * * * * * * * * * * * * * * * * * * * * * * * * * * * * * * * * * * * * //

dimensions      [0 2 -2 0 0 0 0];


internalField   nonuniform List<scalar> 
65536
(
-1.87639e-09
-2.67139e-06
-8.00645e-06
-1.59866e-05
-2.661e-05
-3.98783e-05
-5.57903e-05
-7.43438e-05
-9.55359e-05
-0.000119363
-0.000145821
-0.000174904
-0.000206608
-0.000240926
-0.000277851
-0.000317377
-0.000359494
-0.000404195
-0.00045147
-0.000501308
-0.000553698
-0.000608628
-0.000666085
-0.000726057
-0.000788528
-0.000853482
-0.000920902
-0.000990772
-0.00106307
-0.00113778
-0.00121488
-0.00129434
-0.00137615
-0.00146028
-0.00154669
-0.00163537
-0.00172628
-0.0018194
-0.00191469
-0.00201211
-0.00211163
-0.00221322
-0.00231684
-0.00242244
-0.00252998
-0.00263942
-0.00275071
-0.00286381
-0.00297867
-0.00309523
-0.00321344
-0.00333325
-0.0034546
-0.00357743
-0.00370168
-0.00382729
-0.0039542
-0.00408233
-0.00421162
-0.004342
-0.00447339
-0.00460573
-0.00473895
-0.00487295
-0.00500767
-0.00514302
-0.00527893
-0.0054153
-0.00555206
-0.00568912
-0.00582639
-0.00596378
-0.00610121
-0.00623858
-0.0063758
-0.00651279
-0.00664944
-0.00678566
-0.00692137
-0.00705645
-0.00719083
-0.0073244
-0.00745707
-0.00758874
-0.00771931
-0.0078487
-0.00797681
-0.00810354
-0.0082288
-0.00835249
-0.00847453
-0.00859482
-0.00871327
-0.00882979
-0.0089443
-0.00905671
-0.00916693
-0.00927488
-0.00938048
-0.00948365
-0.00958431
-0.00968238
-0.0097778
-0.00987048
-0.00996037
-0.0100474
-0.0101315
-0.0102126
-0.0102906
-0.0103656
-0.0104374
-0.0105059
-0.0105712
-0.0106332
-0.0106919
-0.0107472
-0.010799
-0.0108474
-0.0108923
-0.0109337
-0.0109716
-0.0110059
-0.0110367
-0.0110638
-0.0110874
-0.0111073
-0.0111237
-0.0111364
-0.0111455
-0.011151
-0.0111529
-0.0111512
-0.011146
-0.0111372
-0.0111248
-0.011109
-0.0110896
-0.0110668
-0.0110406
-0.0110109
-0.0109779
-0.0109416
-0.010902
-0.0108592
-0.0108132
-0.010764
-0.0107118
-0.0106565
-0.0105983
-0.0105371
-0.0104731
-0.0104062
-0.0103367
-0.0102644
-0.0101896
-0.0101122
-0.0100324
-0.0099502
-0.00986567
-0.0097789
-0.00968996
-0.00959894
-0.0095059
-0.00941093
-0.00931412
-0.00921553
-0.00911525
-0.00901337
-0.00890996
-0.00880511
-0.00869891
-0.00859143
-0.00848276
-0.00837298
-0.00826219
-0.00815045
-0.00803786
-0.0079245
-0.00781045
-0.0076958
-0.00758063
-0.00746501
-0.00734904
-0.00723279
-0.00711634
-0.00699977
-0.00688315
-0.00676658
-0.00665012
-0.00653384
-0.00641783
-0.00630215
-0.00618689
-0.0060721
-0.00595786
-0.00584423
-0.00573129
-0.0056191
-0.00550772
-0.00539722
-0.00528766
-0.00517909
-0.00507158
-0.00496519
-0.00485997
-0.00475598
-0.00465326
-0.00455187
-0.00445186
-0.00435328
-0.00425617
-0.00416058
-0.00406656
-0.00397415
-0.00388338
-0.0037943
-0.00370695
-0.00362137
-0.00353758
-0.00345563
-0.00337554
-0.00329735
-0.00322109
-0.00314679
-0.00307448
-0.00300418
-0.00293592
-0.00286972
-0.00280561
-0.00274361
-0.00268374
-0.00262602
-0.00257046
-0.0025171
-0.00246594
-0.00241701
-0.0023703
-0.00232585
-0.00228367
-0.00224376
-0.00220614
-0.00217082
-0.00213781
-0.00210712
-0.00207876
-0.00205273
-0.00202905
-0.00200772
-0.00198874
-0.00197213
-0.00195788
-0.001946
-0.00193649
-0.00192935
-0.00192459
-0.00192222
-1.25742e-06
-3.92373e-06
-9.25165e-06
-1.72268e-05
-2.78481e-05
-4.11152e-05
-5.70265e-05
-7.55795e-05
-9.67711e-05
-0.000120598
-0.000147055
-0.000176138
-0.000207841
-0.000242159
-0.000279084
-0.00031861
-0.000360727
-0.000405428
-0.000452703
-0.000502541
-0.000554931
-0.000609862
-0.000667321
-0.000727293
-0.000789765
-0.000854721
-0.000922144
-0.000992015
-0.00106432
-0.00113903
-0.00121613
-0.0012956
-0.00137741
-0.00146154
-0.00154796
-0.00163665
-0.00172756
-0.00182069
-0.00191598
-0.00201341
-0.00211295
-0.00221454
-0.00231817
-0.00242378
-0.00253133
-0.00264079
-0.00275209
-0.00286521
-0.00298008
-0.00309665
-0.00321488
-0.00333471
-0.00345608
-0.00357892
-0.0037032
-0.00382882
-0.00395575
-0.0040839
-0.00421321
-0.00434362
-0.00447504
-0.00460741
-0.00474065
-0.00487468
-0.00500942
-0.0051448
-0.00528074
-0.00541714
-0.00555393
-0.00569103
-0.00582833
-0.00596576
-0.00610322
-0.00624063
-0.00637789
-0.00651491
-0.00665159
-0.00678786
-0.0069236
-0.00705872
-0.00719314
-0.00732674
-0.00745945
-0.00759116
-0.00772178
-0.00785121
-0.00797935
-0.00810612
-0.00823142
-0.00835515
-0.00847723
-0.00859756
-0.00871605
-0.00883261
-0.00894716
-0.0090596
-0.00916986
-0.00927785
-0.00938348
-0.00948669
-0.00958738
-0.00968549
-0.00978094
-0.00987366
-0.00996358
-0.0100506
-0.0101348
-0.0102159
-0.010294
-0.0103689
-0.0104407
-0.0105093
-0.0105747
-0.0106367
-0.0106954
-0.0107507
-0.0108025
-0.0108509
-0.0108959
-0.0109373
-0.0109752
-0.0110095
-0.0110402
-0.0110674
-0.011091
-0.0111109
-0.0111273
-0.01114
-0.0111491
-0.0111546
-0.0111565
-0.0111548
-0.0111496
-0.0111408
-0.0111284
-0.0111126
-0.0110932
-0.0110704
-0.0110441
-0.0110145
-0.0109815
-0.0109451
-0.0109055
-0.0108627
-0.0108166
-0.0107675
-0.0107152
-0.0106599
-0.0106016
-0.0105404
-0.0104764
-0.0104095
-0.0103399
-0.0102677
-0.0101928
-0.0101154
-0.0100355
-0.00995329
-0.00986873
-0.00978192
-0.00969295
-0.00960189
-0.00950882
-0.00941382
-0.00931696
-0.00921834
-0.00911802
-0.0090161
-0.00891266
-0.00880777
-0.00870153
-0.00859401
-0.0084853
-0.00837549
-0.00826465
-0.00815288
-0.00804025
-0.00792685
-0.00781277
-0.00769808
-0.00758287
-0.00746721
-0.0073512
-0.00723492
-0.00711843
-0.00700182
-0.00688518
-0.00676857
-0.00665207
-0.00653576
-0.00641972
-0.00630401
-0.00618871
-0.00607389
-0.00595962
-0.00584596
-0.00573299
-0.00562077
-0.00550937
-0.00539884
-0.00528925
-0.00518066
-0.00507313
-0.00496671
-0.00486147
-0.00475745
-0.00465471
-0.0045533
-0.00445327
-0.00435467
-0.00425754
-0.00416194
-0.0040679
-0.00397547
-0.00388469
-0.00379559
-0.00370823
-0.00362262
-0.00353882
-0.00345686
-0.00337676
-0.00329856
-0.00322229
-0.00314798
-0.00307565
-0.00300534
-0.00293707
-0.00287087
-0.00280675
-0.00274474
-0.00268486
-0.00262713
-0.00257157
-0.00251821
-0.00246704
-0.0024181
-0.00237139
-0.00232694
-0.00228475
-0.00224484
-0.00220721
-0.00217189
-0.00213888
-0.00210818
-0.00207982
-0.00205379
-0.00203011
-0.00200877
-0.00198979
-0.00197318
-0.00195893
-0.00194704
-0.00193753
-0.0019304
-0.00192564
-0.00192326
-3.76098e-06
-6.42041e-06
-1.17399e-05
-1.97095e-05
-3.03276e-05
-4.35927e-05
-5.95025e-05
-7.80542e-05
-9.92448e-05
-0.00012307
-0.000149527
-0.000178609
-0.000210312
-0.000244629
-0.000281554
-0.000321079
-0.000363196
-0.000407897
-0.000455172
-0.000505011
-0.000557403
-0.000612335
-0.000669795
-0.00072977
-0.000792245
-0.000857204
-0.00092463
-0.000994506
-0.00106681
-0.00114153
-0.00121864
-0.00129812
-0.00137994
-0.00146407
-0.0015505
-0.0016392
-0.00173013
-0.00182327
-0.00191858
-0.00201602
-0.00211557
-0.00221719
-0.00232083
-0.00242647
-0.00253404
-0.00264352
-0.00275485
-0.00286799
-0.00298289
-0.0030995
-0.00321776
-0.00333762
-0.00345903
-0.00358191
-0.00370622
-0.00383189
-0.00395886
-0.00408706
-0.00421641
-0.00434687
-0.00447834
-0.00461076
-0.00474405
-0.00487814
-0.00501294
-0.00514838
-0.00528437
-0.00542084
-0.00555769
-0.00569485
-0.00583222
-0.00596971
-0.00610725
-0.00624472
-0.00638206
-0.00651915
-0.00665591
-0.00679225
-0.00692806
-0.00706326
-0.00719776
-0.00733144
-0.00746423
-0.00759602
-0.00772671
-0.00785622
-0.00798445
-0.00811129
-0.00823667
-0.00836048
-0.00848264
-0.00860305
-0.00872162
-0.00883826
-0.00895288
-0.0090654
-0.00917573
-0.0092838
-0.0093895
-0.00949278
-0.00959354
-0.00969172
-0.00978724
-0.00988002
-0.00997
-0.0100571
-0.0101413
-0.0102225
-0.0103006
-0.0103756
-0.0104475
-0.0105161
-0.0105815
-0.0106436
-0.0107023
-0.0107577
-0.0108096
-0.010858
-0.010903
-0.0109444
-0.0109823
-0.0110167
-0.0110474
-0.0110746
-0.0110982
-0.0111181
-0.0111345
-0.0111472
-0.0111564
-0.0111619
-0.0111638
-0.0111621
-0.0111568
-0.011148
-0.0111356
-0.0111197
-0.0111004
-0.0110775
-0.0110512
-0.0110216
-0.0109885
-0.0109522
-0.0109125
-0.0108696
-0.0108235
-0.0107743
-0.010722
-0.0106667
-0.0106083
-0.0105471
-0.010483
-0.0104161
-0.0103464
-0.0102741
-0.0101992
-0.0101217
-0.0100418
-0.00995949
-0.00987486
-0.00978798
-0.00969894
-0.00960781
-0.00951467
-0.00941959
-0.00932266
-0.00922396
-0.00912358
-0.00902158
-0.00891806
-0.0088131
-0.00870678
-0.00859918
-0.0084904
-0.00838051
-0.0082696
-0.00815774
-0.00804504
-0.00793157
-0.00781741
-0.00770264
-0.00758735
-0.00747163
-0.00735554
-0.00723918
-0.00712262
-0.00700595
-0.00688923
-0.00677255
-0.00665599
-0.00653961
-0.0064235
-0.00630773
-0.00619237
-0.00607748
-0.00596315
-0.00584944
-0.00573641
-0.00562413
-0.00551267
-0.00540209
-0.00529245
-0.0051838
-0.00507622
-0.00496976
-0.00486447
-0.0047604
-0.00465762
-0.00455617
-0.0044561
-0.00435746
-0.00426029
-0.00416465
-0.00407058
-0.00397811
-0.00388729
-0.00379817
-0.00371077
-0.00362514
-0.00354132
-0.00345932
-0.0033792
-0.00330097
-0.00322468
-0.00315035
-0.00307801
-0.00300768
-0.00293939
-0.00287316
-0.00280903
-0.002747
-0.00268711
-0.00262937
-0.0025738
-0.00252042
-0.00246924
-0.00242029
-0.00237357
-0.00232911
-0.00228691
-0.00224699
-0.00220936
-0.00217403
-0.00214101
-0.00211031
-0.00208194
-0.00205591
-0.00203222
-0.00201088
-0.0019919
-0.00197528
-0.00196102
-0.00194914
-0.00193963
-0.00193249
-0.00192773
-0.00192536
-7.49666e-06
-1.01515e-05
-1.54657e-05
-2.34311e-05
-3.40461e-05
-4.73088e-05
-6.32166e-05
-8.17666e-05
-0.000102956
-0.00012678
-0.000153235
-0.000182316
-0.000214018
-0.000248334
-0.000285259
-0.000324783
-0.000366901
-0.000411602
-0.000458877
-0.000508717
-0.00056111
-0.000616045
-0.000673508
-0.000733486
-0.000795965
-0.000860928
-0.00092836
-0.000998243
-0.00107056
-0.00114529
-0.0012224
-0.00130189
-0.00138372
-0.00146787
-0.00155432
-0.00164303
-0.00173398
-0.00182714
-0.00192247
-0.00201994
-0.00211952
-0.00222116
-0.00232484
-0.0024305
-0.00253811
-0.00264762
-0.002759
-0.00287218
-0.00298712
-0.00310377
-0.00322208
-0.00334199
-0.00346345
-0.00358639
-0.00371076
-0.00383649
-0.00396352
-0.00409179
-0.00422122
-0.00435174
-0.00448329
-0.00461578
-0.00474916
-0.00488332
-0.00501821
-0.00515374
-0.00528983
-0.00542639
-0.00556333
-0.00570059
-0.00583806
-0.00597565
-0.00611329
-0.00625087
-0.00638831
-0.00652551
-0.00666239
-0.00679883
-0.00693476
-0.00707008
-0.00720469
-0.00733849
-0.0074714
-0.0076033
-0.00773412
-0.00786374
-0.00799209
-0.00811906
-0.00824455
-0.00836849
-0.00849076
-0.00861129
-0.00872997
-0.00884673
-0.00896147
-0.0090741
-0.00918455
-0.00929272
-0.00939854
-0.00950192
-0.00960279
-0.00970107
-0.00979669
-0.00988957
-0.00997965
-0.0100669
-0.0101511
-0.0102324
-0.0103106
-0.0103857
-0.0104577
-0.0105264
-0.0105918
-0.010654
-0.0107127
-0.0107681
-0.0108201
-0.0108686
-0.0109136
-0.0109551
-0.010993
-0.0110274
-0.0110582
-0.0110854
-0.011109
-0.011129
-0.0111454
-0.0111581
-0.0111672
-0.0111727
-0.0111746
-0.0111729
-0.0111677
-0.0111588
-0.0111464
-0.0111305
-0.0111111
-0.0110882
-0.0110619
-0.0110322
-0.0109991
-0.0109627
-0.010923
-0.0108801
-0.0108339
-0.0107846
-0.0107323
-0.0106768
-0.0106184
-0.0105571
-0.0104929
-0.0104259
-0.0103562
-0.0102838
-0.0102088
-0.0101312
-0.0100512
-0.00996878
-0.00988405
-0.00979708
-0.00970793
-0.00961669
-0.00952344
-0.00942826
-0.00933122
-0.00923241
-0.00913191
-0.0090298
-0.00892616
-0.00882109
-0.00871465
-0.00860694
-0.00849804
-0.00838804
-0.00827701
-0.00816504
-0.00805223
-0.00793864
-0.00782436
-0.00770948
-0.00759408
-0.00747825
-0.00736205
-0.00724558
-0.00712892
-0.00701213
-0.00689531
-0.00677853
-0.00666186
-0.00654539
-0.00642918
-0.00631331
-0.00619785
-0.00608287
-0.00596845
-0.00585464
-0.00574153
-0.00562917
-0.00551762
-0.00540696
-0.00529724
-0.00518852
-0.00508087
-0.00497433
-0.00486897
-0.00476484
-0.00466199
-0.00456047
-0.00446034
-0.00436164
-0.00426441
-0.00416872
-0.00407459
-0.00398207
-0.00389121
-0.00380204
-0.0037146
-0.00362892
-0.00354505
-0.00346302
-0.00338286
-0.0033046
-0.00322827
-0.00315391
-0.00308153
-0.00301117
-0.00294286
-0.00287661
-0.00281245
-0.0027504
-0.00269049
-0.00263272
-0.00257713
-0.00252373
-0.00247254
-0.00242357
-0.00237684
-0.00233236
-0.00229015
-0.00225022
-0.00221258
-0.00217724
-0.00214421
-0.0021135
-0.00208512
-0.00205908
-0.00203539
-0.00201404
-0.00199506
-0.00197843
-0.00196417
-0.00195229
-0.00194277
-0.00193564
-0.00193088
-0.0019285
-1.2466e-05
-1.51188e-05
-2.043e-05
-2.83924e-05
-3.90046e-05
-5.22649e-05
-6.81706e-05
-8.67186e-05
-0.000107906
-0.000131728
-0.000158182
-0.000187262
-0.000218962
-0.000253278
-0.000290201
-0.000329725
-0.000371842
-0.000416544
-0.00046382
-0.000513661
-0.000566056
-0.000620993
-0.00067846
-0.000738443
-0.000800927
-0.000865897
-0.000933337
-0.00100323
-0.00107555
-0.00115029
-0.00122742
-0.00130693
-0.00138877
-0.00147295
-0.00155941
-0.00164815
-0.00173912
-0.0018323
-0.00192766
-0.00202517
-0.00212478
-0.00222646
-0.00233017
-0.00243588
-0.00254353
-0.0026531
-0.00276452
-0.00287776
-0.00299276
-0.00310947
-0.00322785
-0.00334783
-0.00346935
-0.00359237
-0.00371682
-0.00384263
-0.00396975
-0.0040981
-0.00422762
-0.00435824
-0.00448989
-0.00462249
-0.00475597
-0.00489025
-0.00502525
-0.0051609
-0.0052971
-0.00543378
-0.00557086
-0.00570824
-0.00584585
-0.00598358
-0.00612135
-0.00625908
-0.00639666
-0.00653401
-0.00667103
-0.00680763
-0.00694371
-0.00707918
-0.00721394
-0.0073479
-0.00748096
-0.00761303
-0.007744
-0.00787379
-0.00800229
-0.00812942
-0.00825508
-0.00837917
-0.0085016
-0.00862228
-0.00874113
-0.00885804
-0.00897293
-0.00908572
-0.00919631
-0.00930463
-0.0094106
-0.00951412
-0.00961513
-0.00971355
-0.0098093
-0.00990232
-0.00999252
-0.0100799
-0.0101642
-0.0102456
-0.010324
-0.0103992
-0.0104712
-0.01054
-0.0106056
-0.0106678
-0.0107267
-0.0107821
-0.0108342
-0.0108827
-0.0109278
-0.0109693
-0.0110073
-0.0110418
-0.0110726
-0.0110998
-0.0111235
-0.0111435
-0.0111599
-0.0111726
-0.0111817
-0.0111872
-0.0111891
-0.0111874
-0.0111821
-0.0111733
-0.0111609
-0.0111449
-0.0111255
-0.0111025
-0.0110762
-0.0110464
-0.0110132
-0.0109768
-0.010937
-0.010894
-0.0108478
-0.0107984
-0.0107459
-0.0106904
-0.0106319
-0.0105705
-0.0105062
-0.0104391
-0.0103692
-0.0102967
-0.0102216
-0.0101439
-0.0100637
-0.00998119
-0.00989632
-0.00980921
-0.00971992
-0.00962854
-0.00953515
-0.00943982
-0.00934263
-0.00924368
-0.00914303
-0.00904076
-0.00893698
-0.00883175
-0.00872516
-0.0086173
-0.00850824
-0.00839808
-0.0082869
-0.00817478
-0.00806181
-0.00794807
-0.00783364
-0.00771861
-0.00760306
-0.00748708
-0.00737074
-0.00725412
-0.00713731
-0.00702038
-0.00690342
-0.0067865
-0.0066697
-0.00655309
-0.00643675
-0.00632075
-0.00620516
-0.00609006
-0.00597551
-0.00586159
-0.00574836
-0.00563588
-0.00552423
-0.00541346
-0.00530363
-0.00519481
-0.00508706
-0.00498042
-0.00487497
-0.00477074
-0.00466781
-0.00456621
-0.00446599
-0.00436721
-0.00426991
-0.00417414
-0.00407994
-0.00398736
-0.00389643
-0.00380719
-0.00371969
-0.00363396
-0.00355004
-0.00346795
-0.00338774
-0.00330943
-0.00323306
-0.00315865
-0.00308624
-0.00301584
-0.00294749
-0.0028812
-0.00281701
-0.00275493
-0.00269499
-0.0026372
-0.00258158
-0.00252816
-0.00247694
-0.00242795
-0.0023812
-0.0023367
-0.00229447
-0.00225453
-0.00221687
-0.00218151
-0.00214847
-0.00211775
-0.00208937
-0.00206332
-0.00203961
-0.00201826
-0.00199927
-0.00198264
-0.00196837
-0.00195648
-0.00194697
-0.00193983
-0.00193506
-0.00193269
-1.86746e-05
-2.13262e-05
-2.66354e-05
-3.45954e-05
-4.52052e-05
-5.84631e-05
-7.43665e-05
-9.29123e-05
-0.000114097
-0.000137918
-0.00016437
-0.000193448
-0.000225147
-0.000259461
-0.000296383
-0.000335907
-0.000378024
-0.000422726
-0.000470003
-0.000519846
-0.000572243
-0.000627184
-0.000684655
-0.000744643
-0.000807134
-0.000872112
-0.000939561
-0.00100946
-0.0010818
-0.00115656
-0.0012337
-0.00131322
-0.00139509
-0.00147929
-0.00156578
-0.00165454
-0.00174555
-0.00183877
-0.00193416
-0.0020317
-0.00213136
-0.00223309
-0.00233685
-0.00244261
-0.00255032
-0.00265994
-0.00277143
-0.00288474
-0.00299981
-0.0031166
-0.00323506
-0.00335512
-0.00347674
-0.00359985
-0.00372439
-0.00385031
-0.00397753
-0.004106
-0.00423564
-0.00436638
-0.00449815
-0.00463088
-0.00476449
-0.00489891
-0.00503405
-0.00516985
-0.0053062
-0.00544304
-0.00558028
-0.00571782
-0.00585559
-0.00599349
-0.00613144
-0.00626934
-0.0064071
-0.00654464
-0.00668184
-0.00681863
-0.0069549
-0.00709056
-0.00722552
-0.00735967
-0.00749293
-0.00762519
-0.00775637
-0.00788635
-0.00801506
-0.00814239
-0.00826824
-0.00839253
-0.00851516
-0.00863604
-0.00875508
-0.00887219
-0.00898727
-0.00910025
-0.00921104
-0.00931954
-0.00942569
-0.00952939
-0.00963058
-0.00972917
-0.00982509
-0.00991827
-0.0100086
-0.0100961
-0.0101807
-0.0102622
-0.0103407
-0.010416
-0.0104882
-0.0105571
-0.0106228
-0.0106851
-0.0107441
-0.0107996
-0.0108518
-0.0109004
-0.0109456
-0.0109872
-0.0110252
-0.0110597
-0.0110906
-0.0111179
-0.0111416
-0.0111616
-0.011178
-0.0111908
-0.0111999
-0.0112054
-0.0112073
-0.0112056
-0.0112002
-0.0111914
-0.0111789
-0.0111629
-0.0111434
-0.0111204
-0.011094
-0.0110642
-0.0110309
-0.0109944
-0.0109545
-0.0109114
-0.0108651
-0.0108156
-0.010763
-0.0107074
-0.0106488
-0.0105872
-0.0105228
-0.0104555
-0.0103855
-0.0103128
-0.0102376
-0.0101597
-0.0100794
-0.00999671
-0.00991168
-0.00982439
-0.00973493
-0.00964337
-0.0095498
-0.00945429
-0.00935692
-0.00925777
-0.00915694
-0.00905449
-0.00895051
-0.00884509
-0.00873831
-0.00863025
-0.008521
-0.00841065
-0.00829928
-0.00818697
-0.0080738
-0.00795987
-0.00784525
-0.00773003
-0.0076143
-0.00749812
-0.0073816
-0.0072648
-0.00714781
-0.0070307
-0.00691356
-0.00679647
-0.0066795
-0.00656272
-0.00644621
-0.00633005
-0.00621431
-0.00609905
-0.00598435
-0.00587028
-0.0057569
-0.00564428
-0.00553249
-0.00542158
-0.00531162
-0.00520268
-0.0050948
-0.00498804
-0.00488247
-0.00477813
-0.00467508
-0.00457338
-0.00447306
-0.00437418
-0.00427679
-0.00418093
-0.00408664
-0.00399397
-0.00390296
-0.00381364
-0.00372607
-0.00364026
-0.00355627
-0.00347412
-0.00339385
-0.00331548
-0.00323905
-0.00316459
-0.00309212
-0.00302168
-0.00295328
-0.00288695
-0.00282271
-0.0027606
-0.00270061
-0.00264279
-0.00258714
-0.00253369
-0.00248244
-0.00243343
-0.00238665
-0.00234213
-0.00229988
-0.00225991
-0.00222224
-0.00218686
-0.00215381
-0.00212307
-0.00209467
-0.00206861
-0.0020449
-0.00202354
-0.00200453
-0.0019879
-0.00197363
-0.00196173
-0.00195221
-0.00194507
-0.0019403
-0.00193792
-2.61264e-05
-2.87771e-05
-3.40847e-05
-4.20428e-05
-5.26504e-05
-6.59059e-05
-8.18069e-05
-0.00010035
-0.000121533
-0.000145351
-0.000171801
-0.000200877
-0.000232574
-0.000266886
-0.000303808
-0.000343331
-0.000385447
-0.00043015
-0.000477428
-0.000527273
-0.000579674
-0.000634618
-0.000692095
-0.00075209
-0.000814588
-0.000879576
-0.000947037
-0.00101695
-0.00108931
-0.00116408
-0.00124125
-0.00132079
-0.00140268
-0.0014869
-0.00157343
-0.00166222
-0.00175327
-0.00184652
-0.00194196
-0.00203956
-0.00213926
-0.00224104
-0.00234487
-0.00245069
-0.00255847
-0.00266817
-0.00277973
-0.00289312
-0.00300828
-0.00312516
-0.00324372
-0.00336388
-0.00348561
-0.00360883
-0.00373349
-0.00385953
-0.00398689
-0.00411549
-0.00424526
-0.00437615
-0.00450807
-0.00464096
-0.00477473
-0.00490931
-0.00504463
-0.0051806
-0.00531714
-0.00545416
-0.00559159
-0.00572933
-0.0058673
-0.00600541
-0.00614356
-0.00628168
-0.00641965
-0.0065574
-0.00669483
-0.00683184
-0.00696835
-0.00710424
-0.00723943
-0.00737382
-0.00750731
-0.00763981
-0.00777123
-0.00790145
-0.0080304
-0.00815797
-0.00828406
-0.00840859
-0.00853146
-0.00865258
-0.00877186
-0.0088892
-0.00900451
-0.00911772
-0.00922873
-0.00933746
-0.00944383
-0.00954775
-0.00964914
-0.00974794
-0.00984406
-0.00993744
-0.010028
-0.0101157
-0.0102004
-0.0102821
-0.0103607
-0.0104362
-0.0105086
-0.0105776
-0.0106434
-0.0107059
-0.010765
-0.0108207
-0.0108729
-0.0109217
-0.0109669
-0.0110086
-0.0110468
-0.0110813
-0.0111123
-0.0111396
-0.0111633
-0.0111834
-0.0111998
-0.0112126
-0.0112217
-0.0112272
-0.0112291
-0.0112274
-0.011222
-0.0112131
-0.0112006
-0.0111846
-0.011165
-0.0111419
-0.0111154
-0.0110855
-0.0110522
-0.0110155
-0.0109756
-0.0109323
-0.0108859
-0.0108363
-0.0107836
-0.0107278
-0.010669
-0.0106073
-0.0105427
-0.0104753
-0.0104051
-0.0103323
-0.0102568
-0.0101788
-0.0100983
-0.0100154
-0.00993012
-0.00984263
-0.00975296
-0.00966119
-0.0095674
-0.00947167
-0.00937408
-0.00927471
-0.00917365
-0.00907097
-0.00896676
-0.00886111
-0.0087541
-0.00864581
-0.00853633
-0.00842575
-0.00831414
-0.0082016
-0.0080882
-0.00797404
-0.0078592
-0.00774375
-0.00762779
-0.00751139
-0.00739464
-0.00727762
-0.00716042
-0.0070431
-0.00692575
-0.00680844
-0.00669127
-0.00657429
-0.00645758
-0.00634122
-0.00622529
-0.00610984
-0.00599496
-0.00588071
-0.00576715
-0.00565436
-0.0055424
-0.00543133
-0.00532122
-0.00521212
-0.00510409
-0.00499719
-0.00489148
-0.004787
-0.00468382
-0.00458199
-0.00448155
-0.00438255
-0.00428504
-0.00418907
-0.00409467
-0.0040019
-0.00391079
-0.00382138
-0.00373372
-0.00364783
-0.00356375
-0.00348152
-0.00340117
-0.00332274
-0.00324624
-0.00317171
-0.00309918
-0.00302868
-0.00296022
-0.00289384
-0.00282956
-0.0027674
-0.00270737
-0.00264951
-0.00259382
-0.00254033
-0.00248905
-0.00244
-0.00239319
-0.00234865
-0.00230637
-0.00226638
-0.00222868
-0.00219329
-0.00216021
-0.00212946
-0.00210104
-0.00207497
-0.00205124
-0.00202987
-0.00201086
-0.00199421
-0.00197993
-0.00196803
-0.0019585
-0.00195136
-0.00194659
-0.00194421
-3.48252e-05
-3.74753e-05
-4.27815e-05
-5.07379e-05
-6.13434e-05
-7.45965e-05
-9.0495e-05
-0.000109036
-0.000130216
-0.000154032
-0.000180479
-0.000209553
-0.000241248
-0.000275558
-0.000312478
-0.000352
-0.000394117
-0.00043882
-0.0004861
-0.000535947
-0.000588351
-0.000643301
-0.000700783
-0.000760786
-0.000823294
-0.000888294
-0.000955768
-0.0010257
-0.00109807
-0.00117286
-0.00125005
-0.00132962
-0.00141155
-0.0014958
-0.00158236
-0.0016712
-0.00176228
-0.00185559
-0.00195108
-0.00204872
-0.00214849
-0.00225034
-0.00235423
-0.00246013
-0.00256799
-0.00267777
-0.00278943
-0.00290291
-0.00301817
-0.00313516
-0.00325383
-0.00337412
-0.00349597
-0.00361932
-0.00374412
-0.00387031
-0.00399781
-0.00412657
-0.00425651
-0.00438756
-0.00451966
-0.00465273
-0.00478669
-0.00492147
-0.00505698
-0.00519316
-0.00532991
-0.00546715
-0.0056048
-0.00574277
-0.00588098
-0.00601932
-0.00615772
-0.00629608
-0.00643431
-0.00657232
-0.00671001
-0.00684729
-0.00698406
-0.00712022
-0.00725568
-0.00739035
-0.00752412
-0.0076569
-0.00778859
-0.0079191
-0.00804833
-0.00817618
-0.00830255
-0.00842736
-0.00855051
-0.00867191
-0.00879146
-0.00890907
-0.00902466
-0.00913814
-0.00924941
-0.0093584
-0.00946503
-0.0095692
-0.00967084
-0.00976988
-0.00986624
-0.00995985
-0.0100506
-0.0101385
-0.0102234
-0.0103054
-0.0103842
-0.0104599
-0.0105324
-0.0106016
-0.0106676
-0.0107302
-0.0107895
-0.0108453
-0.0108977
-0.0109465
-0.0109919
-0.0110337
-0.0110719
-0.0111065
-0.0111376
-0.011165
-0.0111887
-0.0112088
-0.0112253
-0.0112381
-0.0112472
-0.0112527
-0.0112546
-0.0112528
-0.0112475
-0.0112385
-0.0112259
-0.0112098
-0.0111902
-0.0111671
-0.0111405
-0.0111105
-0.011077
-0.0110403
-0.0110002
-0.0109568
-0.0109102
-0.0108605
-0.0108076
-0.0107516
-0.0106927
-0.0106308
-0.010566
-0.0104984
-0.010428
-0.010355
-0.0102793
-0.010201
-0.0101203
-0.0100372
-0.00995168
-0.00986395
-0.00977403
-0.00968201
-0.00958797
-0.00949198
-0.00939413
-0.0092945
-0.00919317
-0.00909023
-0.00898576
-0.00887983
-0.00877255
-0.00866399
-0.00855424
-0.00844339
-0.00833151
-0.00821869
-0.00810503
-0.0079906
-0.00787548
-0.00775977
-0.00764354
-0.00752689
-0.00740988
-0.0072926
-0.00717514
-0.00705757
-0.00693997
-0.00682243
-0.00670501
-0.00658779
-0.00647085
-0.00635427
-0.00623811
-0.00612245
-0.00600735
-0.00589289
-0.00577913
-0.00566614
-0.00555398
-0.00544272
-0.00533242
-0.00522314
-0.00511493
-0.00500787
-0.00490199
-0.00479736
-0.00469402
-0.00459204
-0.00449145
-0.00439231
-0.00429467
-0.00419857
-0.00410405
-0.00401116
-0.00391994
-0.00383042
-0.00374265
-0.00365666
-0.00357249
-0.00349017
-0.00340973
-0.00333121
-0.00325463
-0.00318003
-0.00310743
-0.00303685
-0.00296833
-0.00290189
-0.00283755
-0.00277533
-0.00271526
-0.00265734
-0.00260161
-0.00254808
-0.00249676
-0.00244767
-0.00240083
-0.00235625
-0.00231394
-0.00227392
-0.0022362
-0.00220078
-0.00216769
-0.00213691
-0.00210848
-0.00208239
-0.00205864
-0.00203726
-0.00201823
-0.00200158
-0.00198729
-0.00197538
-0.00196585
-0.0019587
-0.00195393
-0.00195155
-4.47754e-05
-4.7425e-05
-5.27299e-05
-6.06845e-05
-7.1288e-05
-8.45389e-05
-0.000100435
-0.000118973
-0.00014015
-0.000163963
-0.000190408
-0.000219479
-0.000251171
-0.00028548
-0.000322399
-0.00036192
-0.000404036
-0.00044874
-0.000496021
-0.000545871
-0.00059828
-0.000653235
-0.000710724
-0.000770736
-0.000833255
-0.000898267
-0.000965757
-0.00103571
-0.0011081
-0.00118291
-0.00126013
-0.00133973
-0.00142169
-0.00150598
-0.00159258
-0.00168146
-0.0017726
-0.00186595
-0.0019615
-0.00205921
-0.00215905
-0.00226097
-0.00236494
-0.00247093
-0.00257888
-0.00268876
-0.00280052
-0.00291411
-0.00302949
-0.00314661
-0.0032654
-0.00338583
-0.00350782
-0.00363133
-0.00375629
-0.00388263
-0.00401031
-0.00413925
-0.00426937
-0.00440062
-0.00453292
-0.0046662
-0.00480037
-0.00493538
-0.00507112
-0.00520753
-0.00534453
-0.00548202
-0.00561993
-0.00575816
-0.00589663
-0.00603525
-0.00617393
-0.00631258
-0.0064511
-0.0065894
-0.00672739
-0.00686497
-0.00700204
-0.00713852
-0.00727429
-0.00740927
-0.00754336
-0.00767646
-0.00780848
-0.0079393
-0.00806885
-0.00819703
-0.00832373
-0.00844886
-0.00857233
-0.00869404
-0.00881391
-0.00893184
-0.00904774
-0.00916152
-0.0092731
-0.00938239
-0.0094893
-0.00959377
-0.0096957
-0.00979501
-0.00989164
-0.00998551
-0.0100765
-0.0101647
-0.0102499
-0.010332
-0.0104111
-0.010487
-0.0105597
-0.0106291
-0.0106953
-0.0107581
-0.0108175
-0.0108735
-0.010926
-0.010975
-0.0110205
-0.0110624
-0.0111007
-0.0111354
-0.0111665
-0.011194
-0.0112178
-0.011238
-0.0112545
-0.0112673
-0.0112764
-0.011282
-0.0112838
-0.011282
-0.0112766
-0.0112676
-0.011255
-0.0112388
-0.0112191
-0.0111959
-0.0111692
-0.011139
-0.0111055
-0.0110686
-0.0110283
-0.0109848
-0.0109381
-0.0108881
-0.0108351
-0.0107789
-0.0107198
-0.0106577
-0.0105927
-0.0105248
-0.0104542
-0.0103809
-0.010305
-0.0102265
-0.0101455
-0.0100621
-0.00997636
-0.00988835
-0.00979816
-0.00970585
-0.00961152
-0.00951523
-0.00941709
-0.00931716
-0.00921552
-0.00911227
-0.00900749
-0.00890126
-0.00879367
-0.0086848
-0.00857474
-0.00846357
-0.00835138
-0.00823826
-0.00812428
-0.00800954
-0.00789412
-0.0077781
-0.00766157
-0.00754461
-0.00742731
-0.00730974
-0.00719199
-0.00707413
-0.00695625
-0.00683842
-0.00672073
-0.00660324
-0.00648604
-0.00636919
-0.00625277
-0.00613686
-0.00602152
-0.00590681
-0.00579282
-0.0056796
-0.00556722
-0.00545574
-0.00534523
-0.00523574
-0.00512734
-0.00502008
-0.00491401
-0.00480919
-0.00470568
-0.00460353
-0.00450278
-0.00440348
-0.00430569
-0.00420944
-0.00411478
-0.00402175
-0.00393039
-0.00384075
-0.00375286
-0.00366675
-0.00358247
-0.00350005
-0.00341951
-0.00334089
-0.00326422
-0.00318953
-0.00311685
-0.0030462
-0.00297761
-0.0029111
-0.00284669
-0.00278441
-0.00272427
-0.0026663
-0.00261052
-0.00255694
-0.00250557
-0.00245644
-0.00240956
-0.00236495
-0.0023226
-0.00228255
-0.0022448
-0.00220935
-0.00217623
-0.00214544
-0.00211698
-0.00209087
-0.00206711
-0.00204571
-0.00202667
-0.00201001
-0.00199571
-0.00198379
-0.00197425
-0.0019671
-0.00196233
-0.00195994
-5.59818e-05
-5.86308e-05
-6.39345e-05
-7.18874e-05
-8.24888e-05
-9.57372e-05
-0.00011163
-0.000130166
-0.00015134
-0.00017515
-0.000201591
-0.000230659
-0.00026235
-0.000296656
-0.000333573
-0.000373094
-0.00041521
-0.000459914
-0.000507197
-0.000557051
-0.000609463
-0.000664424
-0.000721922
-0.000781943
-0.000844475
-0.000909502
-0.000977008
-0.00104698
-0.00111939
-0.00119423
-0.00127148
-0.00135111
-0.00143311
-0.00151744
-0.00160409
-0.00169302
-0.00178421
-0.00187763
-0.00197325
-0.00207103
-0.00217094
-0.00227295
-0.00237701
-0.00248309
-0.00259115
-0.00270114
-0.00281302
-0.00292673
-0.00304224
-0.0031595
-0.00327844
-0.00339902
-0.00352117
-0.00364485
-0.00376999
-0.00389652
-0.00402439
-0.00415353
-0.00428387
-0.00441534
-0.00454786
-0.00468138
-0.0048158
-0.00495105
-0.00508705
-0.00522373
-0.005361
-0.00549878
-0.00563697
-0.0057755
-0.00591427
-0.0060532
-0.0061922
-0.00633117
-0.00647001
-0.00660865
-0.00674697
-0.0068849
-0.00702232
-0.00715914
-0.00729527
-0.00743061
-0.00756506
-0.00769852
-0.00783089
-0.00796208
-0.008092
-0.00822053
-0.0083476
-0.00847309
-0.00859692
-0.008719
-0.00883922
-0.0089575
-0.00907376
-0.00918789
-0.00929981
-0.00940943
-0.00951668
-0.00962147
-0.00972372
-0.00982335
-0.00992029
-0.0100145
-0.0101058
-0.0101942
-0.0102797
-0.0103621
-0.0104414
-0.0105175
-0.0105905
-0.0106601
-0.0107265
-0.0107895
-0.0108491
-0.0109053
-0.010958
-0.0110071
-0.0110527
-0.0110948
-0.0111332
-0.011168
-0.0111992
-0.0112268
-0.0112506
-0.0112708
-0.0112874
-0.0113002
-0.0113094
-0.0113149
-0.0113167
-0.0113149
-0.0113095
-0.0113004
-0.0112877
-0.0112715
-0.0112517
-0.0112284
-0.0112015
-0.0111713
-0.0111376
-0.0111005
-0.0110601
-0.0110164
-0.0109695
-0.0109193
-0.0108661
-0.0108097
-0.0107504
-0.010688
-0.0106228
-0.0105547
-0.0104838
-0.0104102
-0.010334
-0.0102552
-0.0101739
-0.0100902
-0.0100042
-0.00991586
-0.00982535
-0.00973272
-0.00963806
-0.00954144
-0.00944296
-0.00934269
-0.00924071
-0.00913712