/*--------------------------------*- C++ -*----------------------------------*\
| =========                 |                                                 |
| \\      /  F ield         | OpenFOAM: The Open Source CFD Toolbox           |
|  \\    /   O peration     | Version:  v2012                                 |
|   \\  /    A nd           | Website:  www.openfoam.com                      |
|    \\/     M anipulation  |                                                 |
\*---------------------------------------------------------------------------*/
FoamFile
{
    version     2.0;
    format      ascii;
    class       surfaceScalarField;
    location    "1.5";
    object      phi;
}
// * * * * * * * * * * * * * * * * * * * * * * * * * * * * * * * * * * * * * //

dimensions      [0 3 -1 0 0 0 0];
oriented        oriented;


internalField   nonuniform List<scalar> 
130560
(
3.42304e-06
-3.42303e-06
6.84588e-06
-3.42285e-06
1.02683e-05
-3.42243e-06
1.36901e-05
-3.42179e-06
1.7111e-05
-3.4209e-06
2.05307e-05
-3.41976e-06
2.39491e-05
-3.41838e-06
2.73659e-05
-3.41677e-06
3.07808e-05
-3.41492e-06
3.41937e-05
-3.41283e-06
3.76042e-05
-3.4105e-06
4.10121e-05
-3.40793e-06
4.44172e-05
-3.40509e-06
4.78192e-05
-3.402e-06
5.12178e-05
-3.39864e-06
5.46128e-05
-3.39501e-06
5.80039e-05
-3.39109e-06
6.13908e-05
-3.38689e-06
6.47732e-05
-3.38239e-06
6.81508e-05
-3.3776e-06
7.15233e-05
-3.37248e-06
7.48903e-05
-3.36705e-06
7.82516e-05
-3.36129e-06
8.16068e-05
-3.35519e-06
8.49556e-05
-3.34875e-06
8.82975e-05
-3.34195e-06
9.16323e-05
-3.33479e-06
9.49596e-05
-3.32725e-06
9.82789e-05
-3.31932e-06
0.00010159
-3.31099e-06
0.000104892
-3.30225e-06
0.000108185
-3.29309e-06
0.000111469
-3.28349e-06
0.000114742
-3.27346e-06
0.000118005
-3.26297e-06
0.000121257
-3.25201e-06
0.000124498
-3.24058e-06
0.000127726
-3.22865e-06
0.000130943
-3.21622e-06
0.000134146
-3.20328e-06
0.000137336
-3.18982e-06
0.000140512
-3.17583e-06
0.000143673
-3.16129e-06
0.000146819
-3.1462e-06
0.00014995
-3.13053e-06
0.000153064
-3.11429e-06
0.000156161
-3.09745e-06
0.000159241
-3.08001e-06
0.000162303
-3.06196e-06
0.000165347
-3.04329e-06
0.000168371
-3.02399e-06
0.000171375
-3.00405e-06
0.000174358
-2.98346e-06
0.00017732
-2.96222e-06
0.000180261
-2.94032e-06
0.000183178
-2.91775e-06
0.000186073
-2.8945e-06
0.000188943
-2.87057e-06
0.000191789
-2.84594e-06
0.00019461
-2.82062e-06
0.000197405
-2.7946e-06
0.000200172
-2.76789e-06
0.000202913
-2.74047e-06
0.000205625
-2.71234e-06
0.000208309
-2.68351e-06
0.000210963
-2.65397e-06
0.000213586
-2.62372e-06
0.000216179
-2.59275e-06
0.00021874
-2.56107e-06
0.000221269
-2.52868e-06
0.000223765
-2.49559e-06
0.000226226
-2.4618e-06
0.000228654
-2.42731e-06
0.000231046
-2.39214e-06
0.000233402
-2.35628e-06
0.000235722
-2.31974e-06
0.000238004
-2.28254e-06
0.000240249
-2.24468e-06
0.000242455
-2.20616e-06
0.000244622
-2.167e-06
0.000246749
-2.1272e-06
0.000248836
-2.08677e-06
0.000250882
-2.04573e-06
0.000252886
-2.00409e-06
0.000254848
-1.96187e-06
0.000256767
-1.91909e-06
0.000258643
-1.87576e-06
0.000260475
-1.83189e-06
0.000262262
-1.7875e-06
0.000264005
-1.7426e-06
0.000265702
-1.69719e-06
0.000267353
-1.65131e-06
0.000268958
-1.60498e-06
0.000270516
-1.55821e-06
0.000272027
-1.51102e-06
0.000273491
-1.46343e-06
0.000274906
-1.41545e-06
0.000276273
-1.36711e-06
0.000277592
-1.31842e-06
0.000278861
-1.2694e-06
0.000280081
-1.22008e-06
0.000281252
-1.17048e-06
0.000282372
-1.12063e-06
0.000283443
-1.07054e-06
0.000284463
-1.02022e-06
0.000285433
-9.69701e-07
0.000286352
-9.18995e-07
0.00028722
-8.6812e-07
0.000288037
-8.17096e-07
0.000288803
-7.65946e-07
0.000289518
-7.14691e-07
0.000290181
-6.63352e-07
0.000290793
-6.11945e-07
0.000291354
-5.60487e-07
0.000291863
-5.08996e-07
0.00029232
-4.57493e-07
0.000292726
-4.05995e-07
0.000293081
-3.54517e-07
0.000293384
-3.03071e-07
0.000293635
-2.51672e-07
0.000293836
-2.00341e-07
0.000293985
-1.49101e-07
0.000294083
-9.79764e-08
0.00029413
-4.69841e-08
0.000294126
3.86038e-09
0.000294071
5.45616e-08
0.000293966
1.05108e-07
0.000293811
1.55493e-07
0.000293605
2.05704e-07
0.000293349
2.5572e-07
0.000293044
3.05526e-07
0.000292689
3.55106e-07
0.000292284
4.04447e-07
0.000291831
4.53536e-07
0.000291328
5.02362e-07
0.000290777
5.50912e-07
0.000290178
5.99181e-07
0.000289531
6.47163e-07
0.000288836
6.9485e-07
0.000288094
7.42233e-07
0.000287305
7.89303e-07
0.000286469
8.3605e-07
0.000285586
8.82465e-07
0.000284658
9.28535e-07
0.000283683
9.74245e-07
0.000282664
1.01959e-06
0.000281599
1.06455e-06
0.00028049
1.10915e-06
0.000279337
1.15338e-06
0.000278139
1.19725e-06
0.000276899
1.24072e-06
0.000275615
1.28378e-06
0.000274288
1.32642e-06
0.00027292
1.36862e-06
0.000271509
1.41039e-06
0.000270058
1.45173e-06
0.000268565
1.49264e-06
0.000267032
1.53311e-06
0.000265459
1.57314e-06
0.000263846
1.61271e-06
0.000262194
1.65183e-06
0.000260504
1.69047e-06
0.000258775
1.72864e-06
0.000257009
1.76634e-06
0.000255205
1.80355e-06
0.000253365
1.84027e-06
0.000251489
1.87649e-06
0.000249576
1.91222e-06
0.000247629
1.94744e-06
0.000245647
1.98216e-06
0.00024363
2.01637e-06
0.00024158
2.05008e-06
0.000239497
2.08327e-06
0.000237381
2.11593e-06
0.000235233
2.14807e-06
0.000233053
2.17968e-06
0.000230843
2.21076e-06
0.000228601
2.24131e-06
0.00022633
2.27132e-06
0.000224029
2.30079e-06
0.000221699
2.32973e-06
0.000219341
2.35813e-06
0.000216955
2.38598e-06
0.000214542
2.41329e-06
0.000212102
2.44006e-06
0.000209636
2.46628e-06
0.000207144
2.49197e-06
0.000204627
2.51712e-06
0.000202085
2.54174e-06
0.000199519
2.56581e-06
0.00019693
2.58934e-06
0.000194317
2.61234e-06
0.000191683
2.6348e-06
0.000189026
2.65672e-06
0.000186348
2.67812e-06
0.000183649
2.69899e-06
0.000180929
2.71935e-06
0.00017819
2.73919e-06
0.000175432
2.75851e-06
0.000172654
2.77733e-06
0.000169859
2.79564e-06
0.000167045
2.81344e-06
0.000164214
2.83075e-06
0.000161367
2.84757e-06
0.000158503
2.8639e-06
0.000155623
2.87975e-06
0.000152728
2.89513e-06
0.000149818
2.91005e-06
0.000146894
2.92451e-06
0.000143955
2.93852e-06
0.000141003
2.95208e-06
0.000138038
2.96519e-06
0.00013506
2.97788e-06
0.00013207
2.99013e-06
0.000129068
3.00197e-06
0.000126054
3.01339e-06
0.00012303
3.02441e-06
0.000119995
3.03504e-06
0.00011695
3.04527e-06
0.000113895
3.05512e-06
0.00011083
3.0646e-06
0.000107756
3.07372e-06
0.000104674
3.08247e-06
0.000101583
3.09088e-06
9.8484e-05
3.09893e-06
9.53773e-05
3.10665e-06
9.22633e-05
3.11404e-06
8.91422e-05
3.1211e-06
8.60143e-05
3.12785e-06
8.288e-05
3.13429e-06
7.97396e-05
3.14043e-06
7.65933e-05
3.14627e-06
7.34415e-05
3.15183e-06
7.02844e-05
3.1571e-06
6.71223e-05
3.16209e-06
6.39555e-05
3.16681e-06
6.07842e-05
3.17127e-06
5.76088e-05
3.17547e-06
5.44293e-05
3.17942e-06
5.12462e-05
3.18312e-06
4.80596e-05
3.18658e-06
4.48699e-05
3.18979e-06
4.16771e-05
3.19277e-06
3.84816e-05
3.19552e-06
3.52835e-05
3.19805e-06
3.20832e-05
3.20035e-06
2.88807e-05
3.20243e-06
2.56764e-05
3.2043e-06
2.24705e-05
3.20595e-06
1.92631e-05
3.20739e-06
1.60545e-05
3.20863e-06
1.28448e-05
3.20965e-06
9.63433e-06
3.21048e-06
6.42323e-06
3.2111e-06
3.21172e-06
3.21151e-06
3.21172e-06
3.42325e-06
-6.84628e-06
6.84631e-06
-6.84591e-06
1.0269e-05
-6.84508e-06
1.3691e-05
-6.84379e-06
1.71121e-05
-6.84201e-06
2.05321e-05
-6.83975e-06
2.39507e-05
-6.837e-06
2.73677e-05
-6.83379e-06
3.07829e-05
-6.83009e-06
3.4196e-05
-6.82592e-06
3.76067e-05
-6.82127e-06
4.10149e-05
-6.81612e-06
4.44203e-05
-6.81046e-06
4.78226e-05
-6.80428e-06
5.12215e-05
-6.79757e-06
5.46168e-05
-6.79031e-06
5.80082e-05
-6.78248e-06
6.13954e-05
-6.77409e-06
6.47781e-05
-6.7651e-06
6.8156e-05
-6.75551e-06
7.15288e-05
-6.74529e-06
7.48962e-05
-6.73444e-06
7.82578e-05
-6.72293e-06
8.16134e-05
-6.71074e-06
8.49625e-05
-6.69787e-06
8.83048e-05
-6.68428e-06
9.164e-05
-6.66996e-06
9.49677e-05
-6.65489e-06
9.82874e-05
-6.63904e-06
0.000101599
-6.62239e-06
0.000104901
-6.60492e-06
0.000108195
-6.58661e-06
0.000111479
-6.56744e-06
0.000114753
-6.54738e-06
0.000118016
-6.52641e-06
0.000121269
-6.50451e-06
0.00012451
-6.48165e-06
0.000127739
-6.45781e-06
0.000130956
-6.43297e-06
0.00013416
-6.4071e-06
0.00013735
-6.38019e-06
0.000140526
-6.35221e-06
0.000143688
-6.32315e-06
0.000146835
-6.29297e-06
0.000149966
-6.26165e-06
0.000153081
-6.22917e-06
0.000156179
-6.1955e-06
0.00015926
-6.16064e-06
0.000162322
-6.12454e-06
0.000165366
-6.08721e-06
0.000168391
-6.04862e-06
0.000171395
-6.00875e-06
0.00017438
-5.96758e-06
0.000177342
-5.92511e-06
0.000180283
-5.88132e-06
0.000183202
-5.83618e-06
0.000186097
-5.78969e-06
0.000188968
-5.74183e-06
0.000191815
-5.69258e-06
0.000194636
-5.64195e-06
0.000197432
-5.58991e-06
0.0002002
-5.53648e-06
0.000202941
-5.48164e-06
0.000205654
-5.42539e-06
0.000208339
-5.36773e-06
0.000210993
-5.30865e-06
0.000213618
-5.24814e-06
0.000216211
-5.18621e-06
0.000218773
-5.12285e-06
0.000221302
-5.05807e-06
0.000223799
-4.99188e-06
0.000226261
-4.9243e-06
0.000228689
-4.85532e-06
0.000231082
-4.78496e-06
0.000233439
-4.71323e-06
0.000235759
-4.64015e-06
0.000238043
-4.56574e-06
0.000240288
-4.49001e-06
0.000242495
-4.41297e-06
0.000244662
-4.33464e-06
0.00024679
-4.25503e-06
0.000248878
-4.17416e-06
0.000250924
-4.09207e-06
0.000252929
-4.00878e-06
0.000254891
-3.92432e-06
0.000256811
-3.83873e-06
0.000258687
-3.75206e-06
0.000260519
-3.66431e-06
0.000262307
-3.57551e-06
0.000264051
-3.48569e-06
0.000265748
-3.39487e-06
0.0002674
-3.30309e-06
0.000269005
-3.2104e-06
0.000270564
-3.11684e-06
0.000272075
-3.02244e-06
0.000273539
-2.92725e-06
0.000274955
-2.83128e-06
0.000276323
-2.73457e-06
0.000277641
-2.63716e-06
0.000278911
-2.53911e-06
0.000280131
-2.44045e-06
0.000281302
-2.34123e-06
0.000282423
-2.24151e-06
0.000283494
-2.1413e-06
0.000284514
-2.04065e-06
0.000285484
-1.93959e-06
0.000286403
-1.83816e-06
0.000287271
-1.73639e-06
0.000288089
-1.63432e-06
0.000288855
-1.532e-06
0.00028957
-1.42947e-06
0.000290233
-1.32677e-06
0.000290845
-1.22394e-06
0.000291405
-1.121e-06
0.000291914
-1.018e-06
0.000292372
-9.14979e-07
0.000292778
-8.11967e-07
0.000293132
-7.08995e-07
0.000293435
-6.06088e-07
0.000293687
-5.03276e-07
0.000293887
-4.00599e-07
0.000294036
-2.98105e-07
0.000294134
-1.9584e-07
0.000294181
-9.38408e-08
0.000294177
7.87009e-09
0.000294122
1.09284e-07
0.000294017
2.10392e-07
0.000293861
3.11179e-07
0.000293655
4.11613e-07
0.000293399
5.11658e-07
0.000293094
6.11279e-07
0.000292738
7.10448e-07
0.000292334
8.0914e-07
0.00029188
9.07329e-07
0.000291377
1.00499e-06
0.000290826
1.1021e-06
0.000290227
1.19865e-06
0.000289579
1.29462e-06
0.000288884
1.39001e-06
0.000288141
1.48478e-06
0.000287352
1.57893e-06
0.000286515
1.67244e-06
0.000285633
1.76527e-06
0.000284704
1.85742e-06
0.000283729
1.94885e-06
0.000282709
2.03954e-06
0.000281644
2.12948e-06
0.000280535
2.21869e-06
0.000279381
2.30716e-06
0.000278183
2.39488e-06
0.000276942
2.48184e-06
0.000275658
2.56798e-06
0.000274331
2.65326e-06
0.000272962
2.73767e-06
0.000271551
2.82122e-06
0.000270099
2.9039e-06
0.000268606
2.98572e-06
0.000267072
3.06667e-06
0.000265499
3.14673e-06
0.000263886
3.22589e-06
0.000262233
3.30412e-06
0.000260542
3.38141e-06
0.000258813
3.45777e-06
0.000257047
3.53316e-06
0.000255242
3.60759e-06
0.000253402
3.68104e-06
0.000251525
3.75349e-06
0.000249612
3.82495e-06
0.000247664
3.8954e-06
0.000245681
3.96484e-06
0.000243664
4.03327e-06
0.000241614
4.10068e-06
0.00023953
4.16706e-06
0.000237414
4.2324e-06
0.000235265
4.29668e-06
0.000233085
4.3599e-06
0.000230873
4.42206e-06
0.000228632
4.48315e-06
0.00022636
4.54317e-06
0.000224058
4.60212e-06
0.000221728
4.66e-06
0.000219369
4.71679e-06
0.000216983
4.7725e-06
0.000214569
4.82712e-06
0.000212129
4.88066e-06
0.000209662
4.93311e-06
0.000207169
4.98449e-06
0.000204652
5.03479e-06
0.000202109
5.08401e-06
0.000199543
5.13216e-06
0.000196953
5.17923e-06
0.00019434
5.22521e-06
0.000191705
5.27013e-06
0.000189048
5.31398e-06
0.000186369
5.35677e-06
0.000183669
5.39851e-06
0.00018095
5.43922e-06
0.00017821
5.47889e-06
0.000175451
5.51754e-06
0.000172673
5.55517e-06
0.000169877
5.59178e-06
0.000167063
5.62738e-06
0.000164232
5.66199e-06
0.000161384
5.69562e-06
0.000158519
5.72828e-06
0.000155639
5.75998e-06
0.000152743
5.79074e-06
0.000149833
5.82057e-06
0.000146908
5.84949e-06
0.000143969
5.87749e-06
0.000141016
5.9046e-06
0.000138051
5.93083e-06
0.000135072
5.95618e-06
0.000132082
5.98069e-06
0.000129079
6.00435e-06
0.000126066
6.02719e-06
0.000123041
6.04923e-06
0.000120005
6.07047e-06
0.00011696
6.09093e-06
0.000113904
6.11063e-06
0.000110839
6.12958e-06
0.000107765
6.1478e-06
0.000104682
6.1653e-06
0.000101591
6.1821e-06
9.84919e-05
6.19821e-06
9.53849e-05
6.21364e-06
9.22705e-05
6.22841e-06
8.91491e-05
6.24253e-06
8.60209e-05
6.25602e-06
8.28863e-05
6.26889e-06
7.97456e-05
6.28116e-06
7.6599e-05
6.29284e-06
7.34469e-05
6.30394e-06
7.02895e-05
6.31448e-06
6.71272e-05
6.32446e-06
6.39601e-05
6.3339e-06
6.07885e-05
6.34281e-06
5.76128e-05
6.35121e-06
5.44331e-05
6.3591e-06
5.12498e-05
6.36649e-06
4.80629e-05
6.3734e-06
4.48729e-05
6.37983e-06
4.16799e-05
6.38578e-06
3.84841e-05
6.39128e-06
3.52859e-05
6.39632e-06
3.20853e-05
6.40092e-06
2.88826e-05
6.40509e-06
2.56781e-05
6.40882e-06
2.24719e-05
6.41212e-06
1.92643e-05
6.415e-06
1.60555e-05
6.41747e-06
1.28456e-05
6.41952e-06
9.63495e-06
6.42116e-06
6.42365e-06
6.4224e-06
3.21193e-06
6.42323e-06
6.42365e-06
3.42372e-06
-1.027e-05
6.84723e-06
-1.02694e-05
1.02703e-05
-1.02682e-05
1.36928e-05
-1.02662e-05
1.71143e-05
-1.02636e-05
2.05348e-05
-1.02602e-05
2.39539e-05
-1.02561e-05
2.73714e-05
-1.02513e-05
3.07871e-05
-1.02458e-05
3.42007e-05
-1.02395e-05
3.7612e-05
-1.02326e-05
4.10207e-05
-1.02248e-05
4.44266e-05
-1.02164e-05
4.78294e-05
-1.02071e-05
5.12289e-05
-1.01971e-05
5.46248e-05
-1.01862e-05
5.80168e-05
-1.01745e-05
6.14046e-05
-1.01619e-05
6.47879e-05
-1.01484e-05
6.81664e-05
-1.01341e-05
7.15399e-05
-1.01188e-05
7.4908e-05
-1.01025e-05
7.82703e-05
-1.00853e-05
8.16265e-05
-1.0067e-05
8.49764e-05
-1.00477e-05
8.83195e-05
-1.00274e-05
9.16554e-05
-1.00059e-05
9.49838e-05
-9.98332e-06
9.83044e-05
-9.95957e-06
0.000101617
-9.93463e-06
0.00010492
-9.90845e-06
0.000108215
-9.88101e-06
0.000111499
-9.85228e-06
0.000114774
-9.82222e-06
0.000118039
-9.7908e-06
0.000121292
-9.75797e-06
0.000124534
-9.72371e-06
0.000127764
-9.68798e-06
0.000130982
-9.65074e-06
0.000134187
-9.61197e-06
0.000137378
-9.57164e-06
0.000140556
-9.5297e-06
0.000143719
-9.48613e-06
0.000146867
-9.44089e-06
0.000149999
-9.39394e-06
0.000153115
-9.34524e-06
0.000156214
-9.29477e-06
0.000159296
-9.24249e-06
0.00016236
-9.18838e-06
0.000165405
-9.13241e-06
0.000168431
-9.07454e-06
0.000171437
-9.01475e-06
0.000174423
-8.95302e-06
0.000177387
-8.88933e-06
0.000180329
-8.82366e-06
0.000183249
-8.75598e-06
0.000186146
-8.68626e-06
0.000189018
-8.61448e-06
0.000191866
-8.54063e-06
0.000194689
-8.46468e-06
0.000197486
-8.38664e-06
0.000200256
-8.3065e-06
0.000202998
-8.22424e-06
0.000205713
-8.13987e-06
0.000208398
-8.05338e-06
0.000211055
-7.96476e-06
0.00021368
-7.874e-06
0.000216275
-7.7811e-06
0.000218839
-7.68605e-06
0.000221369
-7.58888e-06
0.000223867
-7.48958e-06
0.000226331
-7.38819e-06
0.00022876
-7.28471e-06
0.000231155
-7.17915e-06
0.000233513
-7.07154e-06
0.000235835
-6.9619e-06
0.000238119
-6.85027e-06
0.000240366
-6.73666e-06
0.000242574
-6.62108e-06
0.000244743
-6.50355e-06
0.000246872
-6.3841e-06
0.00024896
-6.26277e-06
0.000251008
-6.1396e-06
0.000253014
-6.01463e-06
0.000254977
-5.88791e-06
0.000256898
-5.7595e-06
0.000258776
-5.62945e-06
0.000260609
-5.49779e-06
0.000262398
-5.36455e-06
0.000264142
-5.22977e-06
0.000265841
-5.09349e-06
0.000267494
-4.95578e-06
0.0002691
-4.8167e-06
0.000270659
-4.67631e-06
0.000272172
-4.53468e-06
0.000273636
-4.39183e-06
0.000275053
-4.24783e-06
0.000276421
-4.10272e-06
0.00027774
-3.95657e-06
0.000279011
-3.80943e-06
0.000280232
-3.66139e-06
0.000281403
-3.51252e-06
0.000282524
-3.36288e-06
0.000283595
-3.21251e-06
0.000284616
-3.06149e-06
0.000285586
-2.90985e-06
0.000286506
-2.75765e-06
0.000287375
-2.60495e-06
0.000288192
-2.4518e-06
0.000288958
-2.29827e-06
0.000289673
-2.14442e-06
0.000290337
-1.99032e-06
0.000290949
-1.83602e-06
0.000291509
-1.68157e-06
0.000292018
-1.52703e-06
0.000292476
-1.37245e-06
0.000292882
-1.21789e-06
0.000293236
-1.0634e-06
0.000293539
-9.08996e-07
0.000293791
-7.54742e-07
0.000293991
-6.00692e-07
0.00029414
-4.46916e-07
0.000294237
-2.93481e-07
0.000294284
-1.40442e-07
0.000294279
1.21684e-08
0.000294224
1.6433e-07
0.000294119
3.16034e-07
0.000293963
4.67251e-07
0.000293756
6.17936e-07
0.0002935
7.68032e-07
0.000293194
9.17489e-07
0.000292838
1.06627e-06
0.000292433
1.21433e-06
0.000291978
1.36164e-06
0.000291475
1.50816e-06
0.000290924
1.65385e-06
0.000290324
1.7987e-06
0.000289675
1.94268e-06
0.00028898
2.08578e-06
0.000288237
2.22797e-06
0.000287446
2.36922e-06
0.000286609
2.5095e-06
0.000285726
2.64877e-06
0.000284796
2.78702e-06
0.000283821
2.92419e-06
0.0002828
3.06024e-06
0.000281734
3.19517e-06
0.000280624
3.32899e-06
0.000279469
3.46171e-06
0.000278271
3.59331e-06
0.000277029
3.72376e-06
0.000275744
3.85299e-06
0.000274416
3.98093e-06
0.000273047
4.10758e-06
0.000271635
4.23291e-06
0.000270182
4.35695e-06
0.000268688
4.47969e-06
0.000267153
4.60113e-06
0.000265579
4.72124e-06
0.000263965
4.83998e-06
0.000262312
4.95734e-06
0.00026062
5.0733e-06
0.00025889
5.18784e-06
0.000257122
5.30095e-06
0.000255317
5.41261e-06
0.000253475
5.5228e-06
0.000251597
5.6315e-06
0.000249683
5.7387e-06
0.000247734
5.84439e-06
0.000245751
5.94856e-06
0.000243733
6.05121e-06
0.000241681
6.15233e-06
0.000239596
6.25191e-06
0.000237479
6.34992e-06
0.000235329
6.44635e-06
0.000233148
6.54118e-06
0.000230935
6.63442e-06
0.000228692
6.72606e-06
0.000226419
6.8161e-06
0.000224117
6.90453e-06
0.000221786
6.99135e-06
0.000219426
7.07655e-06
0.000217038
7.16012e-06
0.000214623
7.24205e-06
0.000212182
7.32235e-06
0.000209714
7.40102e-06
0.00020722
7.47808e-06
0.000204701
7.55353e-06
0.000202158
7.62737e-06
0.000199591
7.69959e-06
0.000197
7.77019e-06
0.000194386
7.83917e-06
0.000191749
7.90654e-06
0.000189091
7.9723e-06
0.000186411
8.03648e-06
0.000183711
8.09909e-06
0.00018099
8.16014e-06
0.000178249
8.21964e-06
0.000175489
8.27761e-06
0.00017271
8.33403e-06
0.000169913
8.38894e-06
0.000167098
8.44233e-06
0.000164266
8.49422e-06
0.000161417
8.54465e-06
0.000158551
8.59362e-06
0.00015567
8.64116e-06
0.000152774
8.68729e-06
0.000149862
8.73203e-06
0.000146936
8.77538e-06
0.000143996
8.81737e-06
0.000141043
8.85802e-06
0.000138077
8.89734e-06
0.000135097
8.93536e-06
0.000132106
8.97209e-06
0.000129103
9.00757e-06
0.000126088
9.04182e-06
0.000123062
9.07485e-06
0.000120026
9.10669e-06
0.00011698
9.13736e-06
0.000113924
9.16689e-06
0.000110858
9.1953e-06
0.000107783
9.22261e-06
0.000104699
9.24885e-06
0.000101608
9.27403e-06
9.85076e-05
9.29817e-06
9.54e-05
9.3213e-06
9.22849e-05
9.34343e-06
8.91629e-05
9.36459e-06
8.60341e-05
9.38481e-06
8.28989e-05
9.4041e-06
7.97575e-05
9.42249e-06
7.66104e-05
9.43999e-06
7.34577e-05
9.45663e-06
7.02997e-05
9.47242e-06
6.71368e-05
9.48738e-06
6.39692e-05
9.50152e-06
6.07971e-05
9.51487e-06
5.76209e-05
9.52746e-06
5.44407e-05
9.53928e-06
5.12568e-05
9.55036e-06
4.80695e-05
9.56071e-06
4.4879e-05
9.57034e-06
4.16855e-05
9.57926e-06
3.84893e-05
9.5875e-06
3.52906e-05
9.59506e-06
3.20895e-05
9.60195e-06
2.88864e-05
9.60819e-06
2.56815e-05
9.61377e-06
2.24749e-05
9.61872e-06
1.92669e-05
9.62304e-06
1.60576e-05
9.62673e-06
1.28473e-05
9.62981e-06
9.63619e-06
9.63227e-06
6.42447e-06
9.63412e-06
3.21234e-06
9.63536e-06
9.63599e-06
3.42441e-06
-1.36944e-05
6.84862e-06
-1.36936e-05
1.02724e-05
-1.3692e-05
1.36955e-05
-1.36894e-05
1.71178e-05
-1.36858e-05
2.0539e-05
-1.36814e-05
2.39588e-05
-1.36759e-05
2.7377e-05
-1.36695e-05
3.07934e-05
-1.36622e-05
3.42078e-05
-1.36539e-05
3.76198e-05
-1.36446e-05
4.10293e-05
-1.36344e-05
4.44361e-05
-1.36231e-05
4.78397e-05
-1.36108e-05
5.124e-05
-1.35974e-05
5.46368e-05
-1.35829e-05
5.80296e-05
-1.35673e-05
6.14183e-05
-1.35506e-05
6.48026e-05
-1.35327e-05
6.81821e-05
-1.35136e-05
7.15565e-05
-1.34932e-05
7.49256e-05
-1.34716e-05
7.82889e-05
-1.34486e-05
8.16463e-05
-1.34243e-05
8.49972e-05
-1.33986e-05
8.83414e-05
-1.33716e-05
9.16785e-05
-1.3343e-05
9.50081e-05
-1.33129e-05
9.83298e-05
-1.32813e-05
0.000101643
-1.32481e-05
0.000104948
-1.32133e-05
0.000108244
-1.31767e-05
0.00011153
-1.31385e-05
0.000114806
-1.30984e-05
0.000118072
-1.30566e-05
0.000121327
-1.30129e-05
0.00012457
-1.29673e-05
0.000127802
-1.29197e-05
0.000131022
-1.28701e-05
0.000134228
-1.28184e-05
0.000137421
-1.27647e-05
0.0001406
-1.27088e-05
0.000143765
-1.26508e-05
0.000146915
-1.25905e-05
0.000150049
-1.2528e-05
0.000153166
-1.24631e-05
0.000156267
-1.23959e-05
0.000159351
-1.23262e-05
0.000162417
-1.22541e-05
0.000165464
-1.21795e-05
0.000168492
-1.21024e-05
0.0001715
-1.20227e-05
0.000174487
-1.19404e-05
0.000177453
-1.18556e-05
0.000180398
-1.1768e-05
0.00018332
-1.16778e-05
0.000186218
-1.15849e-05
0.000189093
-1.14892e-05
0.000191943
-1.13908e-05
0.000194768
-1.12895e-05
0.000197567
-1.11855e-05
0.000200339
-1.10786e-05
0.000203084
-1.0969e-05
0.0002058
-1.08565e-05
0.000208488
-1.07412e-05
0.000211146
-1.0623e-05
0.000213774
-1.0502e-05
0.000216371
-1.03781e-05
0.000218937
-1.02514e-05
0.00022147
-1.01218e-05
0.00022397
-9.9894e-06
0.000226436
-9.85418e-06
0.000228867
-9.71618e-06
0.000231263
-9.57541e-06
0.000233624
-9.4319e-06
0.000235947
-9.28568e-06
0.000238234
-9.13679e-06
0.000240483
-8.98527e-06
0.000242693
-8.83113e-06
0.000244863
-8.67437e-06
0.000246994
-8.51506e-06
0.000249085
-8.35323e-06
0.000251134
-8.18894e-06
0.000253142
-8.02225e-06
0.000255107
-7.85323e-06
0.00025703
-7.68195e-06
0.000258909
-7.50847e-06
0.000260744
-7.33285e-06
0.000262534
-7.15512e-06
0.00026428
-6.97533e-06
0.00026598
-6.79355e-06
0.000267634
-6.60985e-06
0.000269242
-6.42432e-06
0.000270802
-6.23705e-06
0.000272316
-6.04812e-06
0.000273781
-5.85757e-06
0.000275199
-5.66549e-06
0.000276568
-5.47193e-06
0.000277889
-5.27696e-06
0.00027916
-5.08069e-06
0.000280382
-4.88321e-06
0.000281554
-4.68461e-06
0.000282676
-4.48499e-06
0.000283748
-4.28441e-06
0.000284769
-4.08294e-06
0.00028574
-3.88067e-06
0.00028666
-3.67764e-06
0.000287529
-3.47395e-06
0.000288347
-3.26966e-06
0.000289114
-3.06486e-06
0.000289829
-2.85963e-06
0.000290493
-2.65407e-06
0.000291105
-2.44824e-06
0.000291665
-2.24222e-06
0.000292174
-2.03609e-06
0.000292632
-1.82991e-06
0.000293038
-1.62375e-06
0.000293392
-1.41767e-06
0.000293695
-1.21174e-06
0.000293946
-1.006e-06
0.000294146
-8.00538e-07
0.000294294
-5.95439e-07
0.000294392
-3.90791e-07
0.000294438
-1.86664e-07
0.000294433
1.6897e-08
0.000294378
2.1986e-07
0.000294272
4.22209e-07
0.000294115
6.23902e-07
0.000293908
8.24876e-07
0.000293651
1.02506e-06
0.000293344
1.22439e-06
0.000292987
1.4228e-06
0.000292582
1.62026e-06
0.000292126
1.81672e-06
0.000291622
2.01213e-06
0.00029107
2.20643e-06
0.000290469
2.39961e-06
0.00028982
2.59164e-06
0.000289123
2.78249e-06
0.000288379
2.97212e-06
0.000287588
3.16049e-06
0.00028675
3.34757e-06
0.000285865
3.53331e-06
0.000284935
3.71768e-06
0.000283958
3.90061e-06
0.000282936
4.08206e-06
0.00028187
4.262e-06
0.000280758
4.44045e-06
0.000279602
4.61743e-06
0.000278403
4.79293e-06
0.00027716
4.96689e-06
0.000275873
5.13922e-06
0.000274544
5.30986e-06
0.000273173
5.47876e-06
0.00027176
5.64591e-06
0.000270306
5.81132e-06
0.000268811
5.97501e-06
0.000267275
6.13695e-06
0.000265699
6.29711e-06
0.000264083
6.45547e-06
0.000262429
6.61197e-06
0.000260735
6.76661e-06
0.000259004
6.91936e-06
0.000257235
7.0702e-06
0.000255428
7.2191e-06
0.000253585
7.36604e-06
0.000251705
7.511e-06
0.00024979
7.65396e-06
0.00024784
7.7949e-06
0.000245854
7.93381e-06
0.000243835
8.0707e-06
0.000241782
8.20555e-06
0.000239695
8.33835e-06
0.000237576
8.46904e-06
0.000235425
8.59761e-06
0.000233242
8.72406e-06
0.000231028
8.84839e-06
0.000228784
8.97058e-06
0.000226509
9.09064e-06
0.000224205
9.20856e-06
0.000221872
9.32433e-06
0.000219511
9.43794e-06
0.000217121
9.54937e-06
0.000214705
9.65862e-06
0.000212261
9.76568e-06
0.000209792
9.87057e-06
0.000207297
9.97331e-06
0.000204776
1.00739e-05
0.000202231
1.01723e-05
0.000199662
1.02686e-05
0.00019707
1.03628e-05
0.000194454
1.04547e-05
0.000191816
1.05446e-05
0.000189156
1.06322e-05
0.000186475
1.07178e-05
0.000183773
1.08012e-05
0.00018105
1.08826e-05
0.000178308
1.0962e-05
0.000175546
1.10392e-05
0.000172766
1.11144e-05
0.000169967
1.11876e-05
0.000167151
1.12588e-05
0.000164317
1.13279e-05
0.000161467
1.13951e-05
0.0001586
1.14604e-05
0.000155717
1.15238e-05
0.000152819
1.15853e-05
0.000149906
1.16449e-05
0.000146979
1.17027e-05
0.000144038
1.17586e-05
0.000141083
1.18128e-05
0.000138115
1.18652e-05
0.000135135
1.19158e-05
0.000132142
1.19648e-05
0.000129138
1.20121e-05
0.000126122
1.20577e-05
0.000123095
1.21017e-05
0.000120058
1.21441e-05
0.00011701
1.2185e-05
0.000113953
1.22243e-05
0.000110886
1.22621e-05
0.00010781
1.22985e-05
0.000104725
1.23335e-05
0.000101632
1.2367e-05
9.85312e-05
1.23992e-05
9.54226e-05
1.243e-05
9.23065e-05
1.24594e-05
8.91835e-05
1.24876e-05
8.60538e-05
1.25145e-05
8.29176e-05
1.25402e-05
7.97754e-05
1.25647e-05
7.66274e-05
1.2588e-05
7.34738e-05
1.26102e-05
7.0315e-05
1.26312e-05
6.71513e-05
1.26511e-05
6.39829e-05
1.267e-05
6.081e-05
1.26877e-05
5.7633e-05
1.27045e-05
5.4452e-05
1.27202e-05
5.12674e-05
1.2735e-05
4.80794e-05
1.27488e-05
4.48881e-05
1.27616e-05
4.1694e-05
1.27735e-05
3.8497e-05
1.27844e-05
3.52976e-05
1.27945e-05
3.20959e-05
1.28036e-05
2.88922e-05
1.28119e-05
2.56865e-05
1.28194e-05
2.24793e-05
1.2826e-05
1.92706e-05
1.28317e-05
1.60607e-05
1.28366e-05
1.28498e-05
1.28407e-05
9.63806e-06
1.2844e-05
6.42572e-06
1.28465e-05
3.21296e-06
1.28481e-05
1.28489e-05
3.42535e-06
-1.71198e-05
6.8505e-06
-1.71188e-05
1.02752e-05
-1.71167e-05
1.36993e-05
-1.71134e-05
1.71225e-05
-1.7109e-05
2.05445e-05
-1.71034e-05
2.39653e-05
-1.70967e-05
2.73845e-05
-1.70887e-05
3.08019e-05
-1.70796e-05
3.42173e-05
-1.70692e-05
3.76303e-05
-1.70577e-05
4.10409e-05
-1.70449e-05
4.44487e-05
-1.70309e-05
4.78534e-05
-1.70155e-05
5.12548e-05
-1.69988e-05
5.46527e-05
-1.69808e-05
5.80467e-05
-1.69614e-05
6.14366e-05
-1.69405e-05
6.48221e-05
-1.69182e-05
6.82029e-05
-1.68943e-05
7.15786e-05
-1.68689e-05
7.4949e-05
-1.6842e-05
7.83138e-05
-1.68133e-05
8.16725e-05
-1.6783e-05
8.50249e-05
-1.6751e-05
8.83705e-05
-1.67172e-05
9.17092e-05
-1.66816e-05
9.50403e-05
-1.66441e-05
9.83637e-05
-1.66047e-05
0.000101679
-1.65632e-05
0.000104985
-1.65197e-05
0.000108283
-1.64742e-05
0.000111571
-1.64264e-05
0.000114849
-1.63765e-05
0.000118117
-1.63243e-05
0.000121373
-1.62697e-05
0.000124619
-1.62128e-05
0.000127853
-1.61534e-05
0.000131074
-1.60915e-05
0.000134283
-1.6027e-05
0.000137478
-1.59599e-05
0.000140659
-1.58902e-05
0.000143826
-1.58177e-05
0.000146978
-1.57425e-05
0.000150114
-1.56644e-05
0.000153235
-1.55833e-05
0.000156338
-1.54994e-05
0.000159424
-1.54124e-05
0.000162493
-1.53223e-05
0.000165542
-1.52292e-05
0.000168573
-1.51328e-05
0.000171583
-1.50333e-05
0.000174573
-1.49305e-05
0.000177542
-1.48244e-05
0.000180489
-1.47151e-05
0.000183414
-1.46024e-05
0.000186315
-1.44863e-05
0.000189193
-1.43667e-05
0.000192046
-1.42437e-05
0.000194873
-1.41172e-05
0.000197675
-1.39872e-05
0.00020045
-1.38536e-05
0.000203198
-1.37166e-05
0.000205917
-1.3576e-05
0.000208608
-1.34318e-05
0.000211269
-1.32841e-05
0.0002139
-1.31329e-05
0.0002165
-1.2978e-05
0.000219068
-1.28196e-05
0.000221604
-1.26576e-05
0.000224106
-1.2492e-05
0.000226575
-1.2323e-05
0.000229009
-1.21504e-05
0.000231408
-1.19744e-05
0.000233771
-1.1795e-05
0.000236098
-1.16122e-05
0.000238387
-1.1426e-05
0.000240638
-1.12365e-05
0.000242851
-1.10438e-05
0.000245024
-1.08477e-05
0.000247158
-1.06485e-05
0.000249251
-1.04461e-05
0.000251302
-1.02407e-05
0.000253312
-1.00322e-05
0.00025528
-9.82085e-06
0.000257205
-9.60665e-06
0.000259086
-9.38969e-06
0.000260923
-9.17003e-06
0.000262716
-8.94774e-06
0.000264463
-8.72288e-06
0.000266165
-8.49551e-06
0.000267821
-8.26576e-06
0.00026943
-8.03371e-06
0.000270993
-7.79948e-06
0.000272508
-7.56317e-06
0.000273975
-7.32486e-06
0.000275394
-7.08461e-06
0.000276765
-6.84252e-06
0.000278087
-6.59868e-06
0.000279359
-6.35319e-06
0.000280582
-6.10618e-06
0.000281755
-5.85778e-06
0.000282878
-5.60809e-06
0.000283951
-5.35721e-06
0.000284973
-5.10522e-06
0.000285945
-4.85222e-06
0.000286866
-4.59829e-06
0.000287735
-4.34352e-06
0.000288554
-4.08801e-06
0.000289321
-3.83186e-06
0.000290036
-3.57518e-06
0.0002907
-3.31808e-06
0.000291313
-3.06065e-06
0.000291873
-2.80299e-06
0.000292382
-2.54519e-06
0.00029284
-2.28734e-06
0.000293246
-2.02951e-06
0.0002936
-1.77179e-06
0.000293902
-1.51426e-06
0.000294153
-1.25698e-06
0.000294353
-1.00005e-06
0.000294501
-7.43576e-07
0.000294598
-4.87657e-07
0.000294643
-2.32378e-07
0.000294638
2.22022e-08
0.000294582
2.76034e-07
0.000294475
5.29092e-07
0.000294318
7.81318e-07
0.00029411
1.03263e-06
0.000293852
1.28295e-06
0.000293544
1.53219e-06
0.000293187
1.78029e-06
0.00029278
2.02719e-06
0.000292324
2.27284e-06
0.000291819
2.51718e-06
0.000291265
2.76014e-06
0.000290663
3.00169e-06
0.000290013
3.2418e-06
0.000289315
3.48044e-06
0.000288569
3.71755e-06
0.000287777
3.95308e-06
0.000286937
4.18699e-06
0.000286051
4.41923e-06
0.000285119
4.64975e-06
0.000284141
4.87848e-06
0.000283118
5.10536e-06
0.00028205
5.33035e-06
0.000280937
5.55346e-06
0.000279779
5.77473e-06
0.000278578
5.99414e-06
0.000277334
6.21163e-06
0.000276046
6.4271e-06
0.000274715
6.64045e-06
0.000273342
6.85164e-06
0.000271927
7.06064e-06
0.000270471
7.26746e-06
0.000268974
7.47212e-06
0.000267437
7.67458e-06
0.000265859
7.87483e-06
0.000264242
8.0728e-06
0.000262585
8.26847e-06
0.00026089
8.4618e-06
0.000259156
8.65278e-06
0.000257385
8.84138e-06
0.000255577
9.02755e-06
0.000253732
9.21127e-06
0.00025185
9.39251e-06
0.000249933
9.57124e-06
0.00024798
9.74745e-06
0.000245993
9.92113e-06
0.000243971
1.00923e-05
0.000241916
1.02609e-05
0.000239827
1.04269e-05
0.000237706
1.05903e-05
0.000235553
1.0751e-05
0.000233368
1.09091e-05
0.000231152