/*--------------------------------*- C++ -*----------------------------------*\
| =========                 |                                                 |
| \\      /  F ield         | OpenFOAM: The Open Source CFD Toolbox           |
|  \\    /   O peration     | Version:  v2012                                 |
|   \\  /    A nd           | Website:  www.openfoam.com                      |
|    \\/     M anipulation  |                                                 |
\*---------------------------------------------------------------------------*/
FoamFile
{
    version     2.0;
    format      ascii;
    class       volVectorField;
    location    "1.5";
    object      U;
}
// * * * * * * * * * * * * * * * * * * * * * * * * * * * * * * * * * * * * * //

dimensions      [0 1 -1 0 0 0 0];


internalField   nonuniform List<vector> 
65536
(
(0.000697326 -0.000697335 0)
(0.00209195 -0.000697303 0)
(0.00348652 -0.00069721 0)
(0.00488085 -0.000697077 0)
(0.00627485 -0.000696894 0)
(0.00766844 -0.000696661 0)
(0.00906152 -0.00069638 0)
(0.010454 -0.000696052 0)
(0.0118457 -0.000695675 0)
(0.0132367 -0.000695249 0)
(0.0146268 -0.000694774 0)
(0.0160158 -0.000694249 0)
(0.0174038 -0.000693672 0)
(0.0187906 -0.000693042 0)
(0.020176 -0.000692357 0)
(0.02156 -0.000691616 0)
(0.0229425 -0.000690818 0)
(0.0243233 -0.000689962 0)
(0.0257024 -0.000689046 0)
(0.0270795 -0.000688068 0)
(0.0284547 -0.000687026 0)
(0.0298277 -0.000685919 0)
(0.0311984 -0.000684745 0)
(0.0325667 -0.000683502 0)
(0.0339325 -0.000682189 0)
(0.0352955 -0.000680804 0)
(0.0366557 -0.000679344 0)
(0.038013 -0.000677807 0)
(0.039367 -0.000676191 0)
(0.0407178 -0.000674494 0)
(0.042065 -0.000672713 0)
(0.0434087 -0.000670846 0)
(0.0447485 -0.000668891 0)
(0.0460843 -0.000666846 0)
(0.0474159 -0.000664708 0)
(0.0487432 -0.000662476 0)
(0.0500659 -0.000660146 0)
(0.0513839 -0.000657716 0)
(0.0526969 -0.000655183 0)
(0.0540047 -0.000652547 0)
(0.0553071 -0.000649804 0)
(0.056604 -0.000646953 0)
(0.057895 -0.000643991 0)
(0.05918 -0.000640915 0)
(0.0604588 -0.000637724 0)
(0.061731 -0.000634414 0)
(0.0629965 -0.000630983 0)
(0.064255 -0.00062743 0)
(0.0655063 -0.000623752 0)
(0.0667501 -0.000619948 0)
(0.0679862 -0.000616016 0)
(0.0692143 -0.000611953 0)
(0.0704341 -0.000607759 0)
(0.0716454 -0.000603432 0)
(0.072848 -0.00059897 0)
(0.0740414 -0.000594372 0)
(0.0752255 -0.000589636 0)
(0.0764001 -0.000584759 0)
(0.0775647 -0.000579742 0)
(0.0787191 -0.000574584 0)
(0.0798631 -0.000569284 0)
(0.0809964 -0.000563841 0)
(0.0821186 -0.000558255 0)
(0.0832295 -0.000552526 0)
(0.0843288 -0.000546652 0)
(0.0854162 -0.000540634 0)
(0.0864915 -0.000534471 0)
(0.0875542 -0.000528163 0)
(0.0886042 -0.000521709 0)
(0.0896412 -0.000515112 0)
(0.0906648 -0.00050837 0)
(0.0916748 -0.000501487 0)
(0.0926708 -0.000494462 0)
(0.0936527 -0.000487296 0)
(0.0946201 -0.000479992 0)
(0.0955728 -0.000472549 0)
(0.0965104 -0.000464971 0)
(0.0974327 -0.000457259 0)
(0.0983395 -0.000449413 0)
(0.0992305 -0.000441435 0)
(0.100105 -0.000433328 0)
(0.100964 -0.000425093 0)
(0.101806 -0.000416734 0)
(0.102631 -0.000408252 0)
(0.103439 -0.000399651 0)
(0.10423 -0.000390936 0)
(0.105003 -0.00038211 0)
(0.105758 -0.000373174 0)
(0.106495 -0.000364132 0)
(0.107215 -0.000354985 0)
(0.107915 -0.000345737 0)
(0.108598 -0.000336392 0)
(0.109261 -0.000326953 0)
(0.109906 -0.000317427 0)
(0.110531 -0.000307815 0)
(0.111137 -0.000298121 0)
(0.111723 -0.000288348 0)
(0.11229 -0.0002785 0)
(0.112837 -0.000268582 0)
(0.113365 -0.000258597 0)
(0.113872 -0.000248552 0)
(0.114359 -0.000238449 0)
(0.114826 -0.000228294 0)
(0.115272 -0.000218091 0)
(0.115698 -0.000207841 0)
(0.116103 -0.000197551 0)
(0.116488 -0.000187222 0)
(0.116852 -0.000176859 0)
(0.117196 -0.000166466 0)
(0.117518 -0.000156047 0)
(0.11782 -0.000145606 0)
(0.1181 -0.000135149 0)
(0.11836 -0.000124677 0)
(0.118599 -0.000114195 0)
(0.118817 -0.000103707 0)
(0.119014 -9.32155e-05 0)
(0.11919 -8.27253e-05 0)
(0.119345 -7.22391e-05 0)
(0.119479 -6.17594e-05 0)
(0.119592 -5.12893e-05 0)
(0.119684 -4.08331e-05 0)
(0.119755 -3.03955e-05 0)
(0.119805 -1.99813e-05 0)
(0.119835 -9.59411e-06 0)
(0.119844 7.64067e-07 0)
(0.119832 1.10912e-05 0)
(0.119799 2.13874e-05 0)
(0.119746 3.16511e-05 0)
(0.119672 4.18792e-05 0)
(0.119578 5.20678e-05 0)
(0.119464 6.22136e-05 0)
(0.119329 7.23134e-05 0)
(0.119175 8.23646e-05 0)
(0.119 9.23646e-05 0)
(0.118805 0.000102311 0)
(0.118591 0.000112201 0)
(0.118356 0.000122034 0)
(0.118102 0.000131808 0)
(0.117829 0.000141522 0)
(0.117536 0.000151174 0)
(0.117224 0.000160763 0)
(0.116893 0.000170286 0)
(0.116543 0.000179741 0)
(0.116174 0.000189126 0)
(0.115786 0.000198438 0)
(0.11538 0.000207674 0)
(0.114955 0.000216834 0)
(0.114512 0.00022592 0)
(0.114052 0.000234931 0)
(0.113573 0.000243866 0)
(0.113076 0.000252722 0)
(0.112562 0.000261494 0)
(0.11203 0.00027018 0)
(0.111481 0.000278778 0)
(0.110915 0.000287286 0)
(0.110331 0.000295707 0)
(0.109732 0.000304041 0)
(0.109115 0.000312286 0)
(0.108482 0.00032044 0)
(0.107833 0.000328502 0)
(0.107168 0.00033647 0)
(0.106487 0.000344343 0)
(0.105791 0.000352119 0)
(0.105079 0.000359798 0)
(0.104351 0.000367378 0)
(0.103609 0.000374858 0)
(0.102852 0.000382238 0)
(0.10208 0.000389516 0)
(0.101293 0.000396692 0)
(0.100493 0.000403764 0)
(0.0996783 0.000410734 0)
(0.0988498 0.0004176 0)
(0.0980077 0.000424361 0)
(0.0971522 0.000431015 0)
(0.0962835 0.000437563 0)
(0.0954018 0.000444003 0)
(0.0945073 0.000450334 0)
(0.0936003 0.000456557 0)
(0.092681 0.000462671 0)
(0.0917495 0.000468676 0)
(0.0908061 0.00047457 0)
(0.089851 0.000480355 0)
(0.0888845 0.00048603 0)
(0.0879068 0.000491593 0)
(0.086918 0.000497046 0)
(0.0859184 0.00050239 0)
(0.0849083 0.000507623 0)
(0.0838878 0.000512747 0)
(0.0828571 0.000517762 0)
(0.0818166 0.000522666 0)
(0.0807663 0.00052746 0)
(0.0797066 0.000532145 0)
(0.0786376 0.00053672 0)
(0.0775596 0.000541187 0)
(0.0764727 0.000545547 0)
(0.0753772 0.0005498 0)
(0.0742734 0.000553946 0)
(0.0731613 0.000557988 0)
(0.0720413 0.000561925 0)
(0.0709135 0.000565759 0)
(0.0697781 0.000569489 0)
(0.0686354 0.000573116 0)
(0.0674855 0.000576643 0)
(0.0663287 0.000580069 0)
(0.0651651 0.000583397 0)
(0.0639949 0.000586627 0)
(0.0628184 0.000589761 0)
(0.0616358 0.000592801 0)
(0.0604471 0.000595747 0)
(0.0592527 0.000598601 0)
(0.0580526 0.000601363 0)
(0.0568471 0.000604035 0)
(0.0556363 0.000606619 0)
(0.0544205 0.000609116 0)
(0.0531998 0.000611528 0)
(0.0519743 0.000613856 0)
(0.0507442 0.000616101 0)
(0.0495098 0.000618266 0)
(0.048271 0.000620352 0)
(0.0470282 0.000622359 0)
(0.0457815 0.000624291 0)
(0.044531 0.000626148 0)
(0.0432768 0.000627932 0)
(0.0420191 0.000629645 0)
(0.0407581 0.000631286 0)
(0.0394939 0.000632859 0)
(0.0382266 0.000634364 0)
(0.0369564 0.000635804 0)
(0.0356833 0.000637179 0)
(0.0344075 0.000638491 0)
(0.0331292 0.000639742 0)
(0.0318485 0.000640933 0)
(0.0305654 0.000642065 0)
(0.0292802 0.000643139 0)
(0.0279928 0.000644157 0)
(0.0267034 0.000645119 0)
(0.0254122 0.000646028 0)
(0.0241193 0.000646884 0)
(0.0228246 0.000647688 0)
(0.0215284 0.000648442 0)
(0.0202308 0.000649147 0)
(0.0189318 0.000649802 0)
(0.0176315 0.000650409 0)
(0.0163301 0.00065097 0)
(0.0150276 0.000651484 0)
(0.0137241 0.000651953 0)
(0.0124197 0.000652378 0)
(0.0111145 0.000652758 0)
(0.00980857 0.000653095 0)
(0.00850203 0.000653389 0)
(0.00719495 0.00065364 0)
(0.00588741 0.00065385 0)
(0.00457949 0.000654017 0)
(0.00327127 0.000654144 0)
(0.00196286 0.000654228 0)
(0.00065431 0.00065427 0)
(0.000697364 -0.00209205 0)
(0.00209209 -0.00209193 0)
(0.00348674 -0.00209166 0)
(0.00488116 -0.00209126 0)
(0.00627525 -0.00209072 0)
(0.00766893 -0.00209002 0)
(0.0090621 -0.00208918 0)
(0.0104547 -0.00208819 0)
(0.0118465 -0.00208706 0)
(0.0132376 -0.00208579 0)
(0.0146278 -0.00208436 0)
(0.0160169 -0.00208279 0)
(0.017405 -0.00208106 0)
(0.0187919 -0.00207917 0)
(0.0201774 -0.00207712 0)
(0.0215616 -0.0020749 0)
(0.0229442 -0.0020725 0)
(0.0243251 -0.00206994 0)
(0.0257043 -0.00206719 0)
(0.0270816 -0.00206426 0)
(0.0284569 -0.00206113 0)
(0.02983 -0.00205781 0)
(0.0312009 -0.00205429 0)
(0.0325693 -0.00205057 0)
(0.0339352 -0.00204663 0)
(0.0352984 -0.00204248 0)
(0.0366588 -0.0020381 0)
(0.0380162 -0.00203349 0)
(0.0393704 -0.00202864 0)
(0.0407213 -0.00202355 0)
(0.0420688 -0.00201821 0)
(0.0434126 -0.00201261 0)
(0.0447526 -0.00200675 0)
(0.0460886 -0.00200062 0)
(0.0474204 -0.00199421 0)
(0.0487479 -0.00198751 0)
(0.0500708 -0.00198053 0)
(0.0513889 -0.00197324 0)
(0.0527021 -0.00196564 0)
(0.0540101 -0.00195774 0)
(0.0553128 -0.00194951 0)
(0.0566099 -0.00194096 0)
(0.0579012 -0.00193207 0)
(0.0591864 -0.00192285 0)
(0.0604654 -0.00191328 0)
(0.0617379 -0.00190335 0)
(0.0630036 -0.00189306 0)
(0.0642624 -0.0018824 0)
(0.0655139 -0.00187137 0)
(0.066758 -0.00185996 0)
(0.0679943 -0.00184816 0)
(0.0692227 -0.00183598 0)
(0.0704428 -0.0018234 0)
(0.0716543 -0.00181042 0)
(0.0728571 -0.00179703 0)
(0.0740509 -0.00178324 0)
(0.0752353 -0.00176903 0)
(0.0764101 -0.0017544 0)
(0.077575 -0.00173935 0)
(0.0787297 -0.00172388 0)
(0.079874 -0.00170798 0)
(0.0810076 -0.00169165 0)
(0.0821301 -0.00167489 0)
(0.0832413 -0.0016577 0)
(0.0843409 -0.00164008 0)
(0.0854286 -0.00162203 0)
(0.0865041 -0.00160354 0)
(0.0875671 -0.00158461 0)
(0.0886174 -0.00156525 0)
(0.0896547 -0.00154546 0)
(0.0906786 -0.00152524 0)
(0.0916888 -0.00150458 0)
(0.0926852 -0.00148351 0)
(0.0936673 -0.00146201 0)
(0.094635 -0.00144009 0)
(0.0955879 -0.00141776 0)
(0.0965259 -0.00139503 0)
(0.0974485 -0.00137189 0)
(0.0983555 -0.00134835 0)
(0.0992467 -0.00132441 0)
(0.100122 -0.00130009 0)
(0.100981 -0.00127538 0)
(0.101823 -0.0012503 0)
(0.102648 -0.00122485 0)
(0.103456 -0.00119905 0)
(0.104247 -0.0011729 0)
(0.105021 -0.00114641 0)
(0.105776 -0.00111961 0)
(0.106514 -0.00109247 0)
(0.107233 -0.00106503 0)
(0.107934 -0.00103728 0)
(0.108617 -0.00100924 0)
(0.10928 -0.000980923 0)
(0.109925 -0.000952338 0)
(0.11055 -0.000923498 0)
(0.111156 -0.000894413 0)
(0.111743 -0.000865091 0)
(0.11231 -0.000835543 0)
(0.112857 -0.000805783 0)
(0.113385 -0.000775825 0)
(0.113892 -0.000745683 0)
(0.114379 -0.000715371 0)
(0.114846 -0.000684902 0)
(0.115293 -0.000654286 0)
(0.115719 -0.000623535 0)
(0.116124 -0.000592658 0)
(0.116509 -0.000561668 0)
(0.116873 -0.000530575 0)
(0.117217 -0.00049939 0)
(0.117539 -0.000468129 0)
(0.117841 -0.000436803 0)
(0.118122 -0.000405426 0)
(0.118381 -0.000374007 0)
(0.11862 -0.000342557 0)
(0.118838 -0.000311088 0)
(0.119035 -0.00027961 0)
(0.119211 -0.000248137 0)
(0.119366 -0.000216675 0)
(0.1195 -0.000185232 0)
(0.119613 -0.000153819 0)
(0.119705 -0.000122447 0)
(0.119776 -9.1131e-05 0)
(0.119826 -5.98851e-05 0)
(0.119856 -2.87204e-05 0)
(0.119864 2.35648e-06 0)
(0.119853 3.33416e-05 0)
(0.11982 6.42338e-05 0)
(0.119767 9.50281e-05 0)
(0.119693 0.000125715 0)
(0.119599 0.000156284 0)
(0.119484 0.000186723 0)
(0.11935 0.000217024 0)
(0.119195 0.00024718 0)
(0.11902 0.000277182 0)
(0.118825 0.000307022 0)
(0.11861 0.000336695 0)
(0.118376 0.000366195 0)
(0.118122 0.00039552 0)
(0.117848 0.000424664 0)
(0.117556 0.000453623 0)
(0.117243 0.000482391 0)
(0.116912 0.000510961 0)
(0.116562 0.000539328 0)
(0.116193 0.000567484 0)
(0.115805 0.000595421 0)
(0.115399 0.000623131 0)
(0.114974 0.000650614 0)
(0.114531 0.000677871 0)
(0.11407 0.000704904 0)
(0.113591 0.000731711 0)
(0.113094 0.00075828 0)
(0.112579 0.000784599 0)
(0.112047 0.000810658 0)
(0.111498 0.000836452 0)
(0.110932 0.000861979 0)
(0.110348 0.000887243 0)
(0.109748 0.000912243 0)
(0.109132 0.000936979 0)
(0.108499 0.000961443 0)
(0.107849 0.00098563 0)
(0.107184 0.00100953 0)
(0.106503 0.00103315 0)
(0.105806 0.00105648 0)
(0.105094 0.00107952 0)
(0.104367 0.00110226 0)
(0.103624 0.0011247 0)
(0.102867 0.00114684 0)
(0.102094 0.00116868 0)
(0.101308 0.00119021 0)
(0.100507 0.00121143 0)
(0.0996923 0.00123233 0)
(0.0988636 0.00125293 0)
(0.0980213 0.00127321 0)
(0.0971656 0.00129318 0)
(0.0962966 0.00131282 0)
(0.0954147 0.00133214 0)
(0.09452 0.00135114 0)
(0.0936128 0.0013698 0)
(0.0926932 0.00138815 0)
(0.0917615 0.00140616 0)
(0.0908179 0.00142384 0)
(0.0898626 0.0014412 0)
(0.0888959 0.00145822 0)
(0.0879179 0.00147491 0)
(0.0869289 0.00149127 0)
(0.0859291 0.0015073 0)
(0.0849188 0.001523 0)
(0.0838981 0.00153837 0)
(0.0828672 0.00155341 0)
(0.0818264 0.00156813 0)
(0.0807759 0.00158251 0)
(0.079716 0.00159656 0)
(0.0786468 0.00161029 0)
(0.0775685 0.00162369 0)
(0.0764814 0.00163677 0)
(0.0753858 0.00164952 0)
(0.0742817 0.00166196 0)
(0.0731694 0.00167409 0)
(0.0720492 0.0016859 0)
(0.0709211 0.0016974 0)
(0.0697856 0.00170859 0)
(0.0686426 0.00171947 0)
(0.0674926 0.00173004 0)
(0.0663355 0.00174032 0)
(0.0651718 0.0017503 0)
(0.0640014 0.00175999 0)
(0.0628247 0.00176939 0)
(0.0616419 0.00177851 0)
(0.060453 0.00178735 0)
(0.0592584 0.00179591 0)
(0.0580581 0.00180419 0)
(0.0568524 0.00181221 0)
(0.0556415 0.00181996 0)
(0.0544255 0.00182745 0)
(0.0532046 0.00183468 0)
(0.0519789 0.00184166 0)
(0.0507487 0.0018484 0)
(0.0495141 0.00185489 0)
(0.0482752 0.00186115 0)
(0.0470323 0.00186717 0)
(0.0457854 0.00187296 0)
(0.0445347 0.00187853 0)
(0.0432804 0.00188388 0)
(0.0420226 0.00188902 0)
(0.0407614 0.00189394 0)
(0.039497 0.00189866 0)
(0.0382296 0.00190317 0)
(0.0369592 0.00190749 0)
(0.035686 0.00191161 0)
(0.0344102 0.00191555 0)
(0.0331317 0.0019193 0)
(0.0318509 0.00192287 0)
(0.0305677 0.00192626 0)
(0.0292823 0.00192949 0)
(0.0279948 0.00193254 0)
(0.0267054 0.00193542 0)
(0.025414 0.00193815 0)
(0.024121 0.00194071 0)
(0.0228262 0.00194313 0)
(0.0215299 0.00194539 0)
(0.0202322 0.0019475 0)
(0.0189331 0.00194946 0)
(0.0176327 0.00195129 0)
(0.0163312 0.00195297 0)
(0.0150286 0.00195451 0)
(0.013725 0.00195592 0)
(0.0124205 0.00195719 0)
(0.0111152 0.00195833 0)
(0.00980921 0.00195934 0)
(0.00850259 0.00196022 0)
(0.00719542 0.00196097 0)
(0.00588779 0.0019616 0)
(0.00457978 0.0019621 0)
(0.00327148 0.00196248 0)
(0.00196299 0.00196274 0)
(0.000654351 0.00196286 0)
(0.000697467 -0.00348685 0)
(0.00209239 -0.00348665 0)
(0.00348721 -0.00348623 0)
(0.0048818 -0.00348557 0)
(0.00627608 -0.00348466 0)
(0.00766994 -0.00348351 0)
(0.00906331 -0.00348212 0)
(0.0104561 -0.00348048 0)
(0.0118481 -0.0034786 0)
(0.0132394 -0.00347648 0)
(0.0146298 -0.00347411 0)
(0.0160192 -0.00347149 0)
(0.0174075 -0.00346861 0)
(0.0187946 -0.00346546 0)
(0.0201803 -0.00346204 0)
(0.0215647 -0.00345835 0)
(0.0229475 -0.00345436 0)
(0.0243287 -0.00345009 0)
(0.0257082 -0.00344551 0)
(0.0270857 -0.00344063 0)
(0.0284613 -0.00343543 0)
(0.0298347 -0.0034299 0)
(0.0312058 -0.00342404 0)
(0.0325745 -0.00341784 0)
(0.0339407 -0.00341129 0)
(0.0353042 -0.00340437 0)
(0.0366649 -0.00339708 0)
(0.0380226 -0.00338941 0)
(0.0393771 -0.00338134 0)
(0.0407284 -0.00337286 0)
(0.0420762 -0.00336397 0)
(0.0434204 -0.00335464 0)
(0.0447607 -0.00334488 0)
(0.0460971 -0.00333467 0)
(0.0474293 -0.00332399 0)
(0.0487571 -0.00331284 0)
(0.0500804 -0.0033012 0)
(0.051399 -0.00328906 0)
(0.0527126 -0.00327641 0)
(0.0540211 -0.00326324 0)
(0.0553242 -0.00324954 0)
(0.0566217 -0.00323529 0)
(0.0579134 -0.00322049 0)
(0.0591991 -0.00320513 0)
(0.0604786 -0.00318918 0)
(0.0617515 -0.00317264 0)
(0.0630178 -0.0031555 0)
(0.064277 -0.00313774 0)
(0.0655291 -0.00311936 0)
(0.0667737 -0.00310035 0)
(0.0680105 -0.0030807 0)
(0.0692394 -0.00306039 0)
(0.0704601 -0.00303943 0)
(0.0716722 -0.0030178 0)
(0.0728755 -0.0029955 0)
(0.0740698 -0.00297251 0)
(0.0752548 -0.00294884 0)
(0.0764301 -0.00292446 0)
(0.0775956 -0.00289938 0)
(0.0787509 -0.0028736 0)
(0.0798958 -0.0028471 0)
(0.0810299 -0.00281988 0)
(0.082153 -0.00279196 0)
(0.0832648 -0.00276331 0)
(0.0843649 -0.00273394 0)
(0.0854532 -0.00270385 0)
(0.0865293 -0.00267304 0)
(0.087593 -0.00264149 0)
(0.0886438 -0.00260922 0)
(0.0896816 -0.00257623 0)
(0.0907061 -0.00254252 0)
(0.0917169 -0.0025081 0)
(0.0927139 -0.00247296 0)
(0.0936966 -0.00243713 0)
(0.0946648 -0.0024006 0)
(0.0956183 -0.00236338 0)
(0.0965568 -0.00232548 0)
(0.0974799 -0.00228691 0)
(0.0983875 -0.00224767 0)
(0.0992792 -0.00220777 0)
(0.100155 -0.00216722 0)
(0.101014 -0.00212603 0)
(0.101857 -0.00208422 0)
(0.102683 -0.0020418 0)
(0.103491 -0.00199878 0)
(0.104283 -0.00195519 0)
(0.105057 -0.00191104 0)
(0.105813 -0.00186634 0)
(0.106551 -0.00182112 0)
(0.10727 -0.00177536 0)
(0.107972 -0.0017291 0)
(0.108655 -0.00168236 0)
(0.109319 -0.00163515 0)
(0.109964 -0.00158749 0)
(0.110589 -0.00153941 0)
(0.111196 -0.00149092 0)
(0.111783 -0.00144204 0)
(0.11235 -0.00139278 0)
(0.112898 -0.00134317 0)
(0.113425 -0.00129323 0)
(0.113933 -0.00124297 0)
(0.11442 -0.00119244 0)
(0.114887 -0.00114164 0)
(0.115334 -0.0010906 0)
(0.11576 -0.00103934 0)
(0.116166 -0.000987863 0)
(0.116551 -0.000936199 0)
(0.116915 -0.000884364 0)
(0.117259 -0.000832376 0)
(0.117581 -0.000780259 0)
(0.117883 -0.000728035 0)
(0.118164 -0.000675725 0)
(0.118424 -0.000623347 0)
(0.118663 -0.000570917 0)
(0.118881 -0.000518456 0)
(0.119077 -0.000465983 0)
(0.119253 -0.000413515 0)
(0.119408 -0.000361068 0)
(0.119542 -0.000308654 0)
(0.119655 -0.000256288 0)
(0.119747 -0.000203991 0)
(0.119818 -0.000151788 0)
(0.119868 -9.97008e-05 0)
(0.119898 -4.77489e-05 0)
(0.119906 4.05622e-06 0)
(0.119894 5.57099e-05 0)
(0.119861 0.000107208 0)
(0.119808 0.000158542 0)
(0.119734 0.000209696 0)
(0.11964 0.000260652 0)
(0.119525 0.000311391 0)
(0.11939 0.000361899 0)
(0.119235 0.000412165 0)
(0.11906 0.000462175 0)
(0.118865 0.000511916 0)
(0.11865 0.000561377 0)
(0.118416 0.000610551 0)
(0.118161 0.000659432 0)
(0.117888 0.000708014 0)
(0.117594 0.000756286 0)
(0.117282 0.000804238 0)
(0.11695 0.000851861 0)
(0.1166 0.000899145 0)
(0.11623 0.000946077 0)
(0.115842 0.000992644 0)
(0.115436 0.00103883 0)
(0.115011 0.00108464 0)
(0.114567 0.00113007 0)
(0.114106 0.00117513 0)
(0.113627 0.00121981 0)
(0.113129 0.0012641 0)
(0.112614 0.00130797 0)
(0.112082 0.00135141 0)
(0.111533 0.0013944 0)
(0.110966 0.00143695 0)
(0.110382 0.00147906 0)
(0.109782 0.00152073 0)
(0.109165 0.00156196 0)
(0.108531 0.00160274 0)
(0.107882 0.00164306 0)
(0.107216 0.0016829 0)
(0.106535 0.00172227 0)
(0.105838 0.00176115 0)
(0.105125 0.00179955 0)
(0.104397 0.00183746 0)
(0.103654 0.00187487 0)
(0.102896 0.00191177 0)
(0.102124 0.00194817 0)
(0.101337 0.00198405 0)
(0.100536 0.00201942 0)
(0.0997203 0.00205427 0)
(0.0988912 0.0020886 0)
(0.0980484 0.00212241 0)
(0.0971923 0.00215568 0)
(0.0963229 0.00218842 0)
(0.0954406 0.00222062 0)
(0.0945454 0.00225227 0)
(0.0936378 0.00228339 0)
(0.0927178 0.00231396 0)
(0.0917856 0.00234398 0)
(0.0908416 0.00237346 0)
(0.0898859 0.00240239 0)
(0.0889187 0.00243076 0)
(0.0879403 0.00245858 0)
(0.0869508 0.00248584 0)
(0.0859506 0.00251255 0)
(0.0849398 0.00253872 0)
(0.0839186 0.00256434 0)
(0.0828873 0.00258941 0)
(0.0818461 0.00261393 0)
(0.0807952 0.0026379 0)
(0.0797348 0.00266132 0)
(0.0786651 0.00268419 0)
(0.0775864 0.00270653 0)
(0.0764989 0.00272832 0)
(0.0754028 0.00274958 0)
(0.0742983 0.00277031 0)
(0.0731856 0.00279051 0)
(0.0720649 0.00281019 0)
(0.0709365 0.00282936 0)
(0.0698005 0.002848 0)
(0.0686572 0.00286613 0)
(0.0675067 0.00288376 0)
(0.0663493 0.00290088 0)
(0.0651851 0.00291751 0)
(0.0640144 0.00293366 0)
(0.0628373 0.00294932 0)
(0.061654 0.00296451 0)
(0.0604648 0.00297924 0)
(0.0592698 0.0029935 0)
(0.0580692 0.0030073 0)
(0.0568631 0.00302066 0)
(0.0556519 0.00303357 0)
(0.0544355 0.00304605 0)
(0.0532142 0.0030581 0)
(0.0519882 0.00306973 0)
(0.0507577 0.00308095 0)
(0.0495227 0.00309177 0)
(0.0482836 0.00310218 0)
(0.0470403 0.00311221 0)
(0.0457931 0.00312186 0)
(0.0445421 0.00313114 0)
(0.0432875 0.00314006 0)
(0.0420294 0.00314861 0)
(0.040768 0.00315681 0)
(0.0395033 0.00316467 0)
(0.0382356 0.00317219 0)
(0.036965 0.00317938 0)
(0.0356915 0.00318624 0)
(0.0344154 0.0031928 0)
(0.0331367 0.00319905 0)
(0.0318556 0.00320499 0)
(0.0305722 0.00321065 0)
(0.0292866 0.00321601 0)
(0.0279989 0.00322109 0)
(0.0267092 0.0032259 0)
(0.0254176 0.00323043 0)
(0.0241243 0.00323471 0)
(0.0228294 0.00323873 0)
(0.0215329 0.00324249 0)
(0.0202349 0.00324601 0)
(0.0189356 0.00324928 0)
(0.0176351 0.00325231 0)
(0.0163334 0.00325511 0)
(0.0150306 0.00325768 0)
(0.0137268 0.00326002 0)
(0.0124221 0.00326214 0)
(0.0111167 0.00326404 0)
(0.0098105 0.00326572 0)
(0.0085037 0.00326719 0)
(0.00719635 0.00326844 0)
(0.00588855 0.00326949 0)
(0.00458037 0.00327033 0)
(0.00327191 0.00327096 0)
(0.00196324 0.00327138 0)
(0.000654436 0.00327159 0)
(0.000697612 -0.0048819 0)
(0.00209282 -0.00488162 0)
(0.00348792 -0.00488103 0)
(0.00488279 -0.00488012 0)
(0.00627734 -0.00487885 0)
(0.0076715 -0.00487725 0)
(0.00906515 -0.0048753 0)
(0.0104582 -0.00487302 0)
(0.0118506 -0.0048704 0)
(0.0132421 -0.00486743 0)
(0.0146328 -0.00486412 0)
(0.0160225 -0.00486046 0)
(0.0174112 -0.00485643 0)
(0.0187986 -0.00485204 0)
(0.0201847 -0.00484726 0)
(0.0215694 -0.0048421 0)
(0.0229526 -0.00483653 0)
(0.0243342 -0.00483056 0)
(0.025714 -0.00482416 0)
(0.0270919 -0.00481734 0)
(0.0284678 -0.00481007 0)
(0.0298416 -0.00480235 0)
(0.0312132 -0.00479415 0)
(0.0325823 -0.00478548 0)
(0.033949 -0.00477632 0)
(0.0353129 -0.00476665 0)
(0.0366741 -0.00475646 0)
(0.0380322 -0.00474573 0)
(0.0393873 -0.00473445 0)
(0.040739 -0.0047226 0)
(0.0420873 -0.00471016 0)
(0.043432 -0.00469712 0)
(0.0447729 -0.00468347 0)
(0.0461098 -0.00466919 0)
(0.0474426 -0.00465426 0)
(0.0487711 -0.00463867 0)
(0.050095 -0.00462239 0)
(0.0514141 -0.00460541 0)
(0.0527284 -0.00458772 0)
(0.0540375 -0.00456929 0)
(0.0553412 -0.00455013 0)
(0.0566394 -0.0045302 0)
(0.0579318 -0.0045095 0)
(0.0592182 -0.004488 0)
(0.0604984 -0.00446568 0)
(0.0617721 -0.00444254 0)
(0.063039 -0.00441856 0)
(0.064299 -0.00439372 0)
(0.0655519 -0.004368 0)
(0.0667972 -0.0043414 0)
(0.0680349 -0.0043139 0)
(0.0692645 -0.00428548 0)
(0.070486 -0.00425614 0)
(0.0716989 -0.00422587 0)
(0.0729031 -0.00419466 0)
(0.0740982 -0.00416249 0)
(0.075284 -0.00412936 0)
(0.0764602 -0.00409524 0)
(0.0776265 -0.00406014 0)
(0.0787827 -0.00402404 0)
(0.0799284 -0.00398695 0)
(0.0810634 -0.00394885 0)
(0.0821874 -0.00390975 0)
(0.0833 -0.00386965 0)
(0.0844011 -0.00382853 0)
(0.0854902 -0.00378641 0)
(0.0865672 -0.00374327 0)
(0.0876317 -0.00369911 0)
(0.0886834 -0.00365393 0)
(0.0897221 -0.00360773 0)
(0.0907474 -0.00356053 0)
(0.0917591 -0.00351233 0)
(0.0927569 -0.00346314 0)
(0.0937405 -0.00341296 0)
(0.0947096 -0.0033618 0)
(0.0956639 -0.00330968 0)
(0.0966031 -0.00325661 0)
(0.0975271 -0.0032026 0)
(0.0984355 -0.00314766 0)
(0.099328 -0.00309179 0)
(0.100204 -0.003035 0)
(0.101064 -0.00297732 0)
(0.101908 -0.00291876 0)
(0.102734 -0.00285935 0)
(0.103544 -0.00279911 0)
(0.104336 -0.00273806 0)
(0.10511 -0.00267623 0)
(0.105867 -0.00261364 0)
(0.106606 -0.00255029 0)
(0.107326 -0.00248622 0)
(0.108028 -0.00242143 0)
(0.108711 -0.00235596 0)
(0.109376 -0.00228983 0)
(0.110022 -0.00222309 0)
(0.110648 -0.00215575 0)
(0.111255 -0.00208784 0)
(0.111842 -0.00201938 0)
(0.11241 -0.0019504 0)
(0.112958 -0.00188091 0)
(0.113486 -0.00181096 0)
(0.113994 -0.00174058 0)
(0.114482 -0.0016698 0)
(0.114949 -0.00159865 0)
(0.115396 -0.00152717 0)
(0.115822 -0.00145537 0)
(0.116228 -0.00138327 0)
(0.116614 -0.00131092 0)
(0.116978 -0.00123832 0)
(0.117322 -0.00116551 0)
(0.117644 -0.00109252 0)
(0.117946 -0.00101937 0)
(0.118227 -0.000946109 0)
(0.118487 -0.00087275 0)
(0.118726 -0.000799323 0)
(0.118944 -0.000725853 0)
(0.119141 -0.000652366 0)
(0.119317 -0.000578888 0)
(0.119472 -0.000505439 0)
(0.119606 -0.000432038 0)
(0.119718 -0.000358705 0)
(0.11981 -0.000285471 0)
(0.119881 -0.000212366 0)
(0.119931 -0.000139423 0)
(0.119961 -6.66674e-05 0)
(0.119969 5.88416e-06 0)
(0.119957 7.82238e-05 0)
(0.119924 0.000150345 0)
(0.11987 0.000222234 0)
(0.119796 0.000293869 0)
(0.119702 0.000365223 0)
(0.119587 0.000436273 0)
(0.119452 0.000506999 0)
(0.119296 0.000577384 0)
(0.119121 0.000647412 0)
(0.118925 0.000717065 0)
(0.11871 0.000786325 0)
(0.118475 0.000855183 0)
(0.11822 0.000923631 0)
(0.117946 0.000991659 0)
(0.117653 0.00105925 0)
(0.11734 0.0011264 0)
(0.117008 0.00119308 0)
(0.116657 0.00125929 0)
(0.116287 0.00132501 0)
(0.115899 0.00139022 0)
(0.115491 0.0014549 0)
(0.115066 0.00151904 0)
(0.114622 0.00158265 0)
(0.11416 0.00164574 0)
(0.11368 0.0017083 0)
(0.113183 0.00177031 0)
(0.112667 0.00183174 0)
(0.112135 0.00189257 0)
(0.111585 0.00195277 0)
(0.111017 0.00201235 0)
(0.110433 0.00207132 0)
(0.109832 0.00212966 0)
(0.109215 0.00218739 0)
(0.108581 0.00224449 0)
(0.10793 0.00230094 0)
(0.107264 0.00235673 0)
(0.106582 0.00241185 0)
(0.105884 0.0024663 0)
(0.105171 0.00252007 0)
(0.104443 0.00257315 0)
(0.103699 0.00262553 0)
(0.102941 0.0026772 0)
(0.102168 0.00272816 0)
(0.10138 0.0027784 0)
(0.100578 0.00282792 0)
(0.0997623 0.00287671 0)
(0.0989325 0.00292478 0)
(0.0980892 0.00297212 0)
(0.0972323 0.00301871 0)
(0.0963623 0.00306455 0)
(0.0954793 0.00310963 0)
(0.0945836 0.00315395 0)
(0.0936752 0.00319751 0)
(0.0927546 0.00324031 0)
(0.0918218 0.00328234 0)
(0.0908771 0.00332362 0)
(0.0899207 0.00336412 0)
(0.0889528 0.00340384 0)
(0.0879737 0.00344279 0)
(0.0869836 0.00348095 0)
(0.0859827 0.00351835 0)
(0.0849713 0.00355498 0)
(0.0839494 0.00359084 0)
(0.0829175 0.00362594 0)
(0.0818756 0.00366027 0)
(0.080824 0.00369383 0)
(0.079763 0.00372662 0)
(0.0786927 0.00375864 0)
(0.0776133 0.0037899 0)
(0.0765252 0.0038204 0)
(0.0754284 0.00385016 0)
(0.0743232 0.00387918 0)
(0.0732099 0.00390746 0)
(0.0720886 0.00393501 0)
(0.0709595 0.00396183 0)
(0.0698229 0.00398792 0)
(0.068679 0.0040133 0)
(0.0675279 0.00403796 0)
(0.0663698 0.00406193 0)
(0.0652051 0.0040852 0)
(0.0640338 0.0041078 0)
(0.0628561 0.00412972 0)
(0.0616723 0.00415098 0)
(0.0604825 0.00417159 0)
(0.0592869 0.00419154 0)
(0.0580858 0.00421086 0)
(0.0568792 0.00422955 0)
(0.0556674 0.00424762 0)
(0.0544505 0.00426507 0)
(0.0532287 0.00428194 0)
(0.0520022 0.00429821 0)
(0.0507712 0.00431391 0)
(0.0495357 0.00432904 0)
(0.0482961 0.00434361 0)
(0.0470523 0.00435764 0)
(0.0458047 0.00437114 0)
(0.0445532 0.00438412 0)
(0.0432982 0.00439659 0)
(0.0420396 0.00440855 0)
(0.0407778 0.00442002 0)
(0.0395127 0.00443101 0)
(0.0382446 0.00444153 0)
(0.0369736 0.00445158 0)
(0.0356997 0.00446119 0)
(0.0344232 0.00447036 0)
(0.0331442 0.00447909 0)
(0.0318627 0.00448741 0)
(0.0305789 0.00449531 0)
(0.029293 0.00450281 0)
(0.0280049 0.00450992 0)
(0.0267149 0.00451664 0)
(0.025423 0.00452298 0)
(0.0241294 0.00452896 0)
(0.0228342 0.00453458 0)
(0.0215374 0.00453985 0)
(0.0202391 0.00454476 0)
(0.0189395 0.00454934 0)
(0.0176387 0.00455358 0)
(0.0163367 0.00455749 0)
(0.0150336 0.00456108 0)
(0.0137295 0.00456435 0)
(0.0124246 0.00456731 0)
(0.0111189 0.00456997 0)
(0.00981242 0.00457232 0)
(0.00850536 0.00457437 0)
(0.00719776 0.00457612 0)
(0.0058897 0.00457759 0)
(0.00458126 0.00457875 0)
(0.00327254 0.00457964 0)
(0.00196362 0.00458023 0)
(0.000654562 0.00458052 0)
(0.000697805 -0.0062773 0)
(0.0020934 -0.00627694 0)
(0.00348887 -0.00627617 0)
(0.00488412 -0.00627499 0)
(0.00627905 -0.00627337 0)
(0.00767358 -0.00627132 0)
(0.00906761 -0.00626883 0)
(0.0104611 -0.0062659 0)
(0.0118538 -0.00626254 0)
(0.0132458 -0.00625875 0)
(0.0146369 -0.0062545 0)
(0.016027 -0.0062498 0)
(0.0174161 -0.00624464 0)
(0.0188039 -0.00623901 0)
(0.0201905 -0.00623288 0)
(0.0215757 -0.00622625 0)
(0.0229593 -0.00621911 0)
(0.0243414 -0.00621145 0)
(0.0257217 -0.00620325 0)
(0.0271001 -0.0061945 0)
(0.0284766 -0.00618517 0)
(0.0298509 -0.00617526 0)
(0.031223 -0.00616475 0)
(0.0325927 -0.00615363 0)
(0.0339599 -0.00614187 0)
(0.0353245 -0.00612946 0)
(0.0366863 -0.00611639 0)
(0.038045 -0.00610262 0)
(0.0394007 -0.00608814 0)
(0.0407532 -0.00607292 0)
(0.0421021 -0.00605696 0)
(0.0434475 -0.00604023 0)
(0.0447891 -0.0060227 0)
(0.0461268 -0.00600437 0)
(0.0474603 -0.00598521 0)
(0.0487896 -0.00596518 0)
(0.0501143 -0.00594428 0)
(0.0514343 -0.00592248 0)
(0.0527493 -0.00589976 0)
(0.0540593 -0.0058761 0)
(0.0553639 -0.00585148 0)
(0.056663 -0.00582589 0)
(0.0579563 -0.0057993 0)
(0.0592436 -0.00577168 0)
(0.0605247 -0.00574302 0)
(0.0617994 -0.0057133 0)
(0.0630673 -0.00568249 0)
(0.0643283 -0.00565057 0)
(0.0655822 -0.00561753 0)
(0.0668285 -0.00558335 0)
(0.0680672 -0.00554801 0)
(0.069298 -0.0055115 0)
(0.0705205 -0.0054738 0)
(0.0717345 -0.00543489 0)
(0.0729397 -0.00539478 0)
(0.074136 -0.00535344 0)
(0.0753229 -0.00531086 0)
(0.0765002 -0.00526701 0)
(0.0776677 -0.00522189 0)
(0.078825 -0.00517549 0)
(0.0799719 -0.00512781 0)
(0.081108 -0.00507883 0)
(0.0822331 -0.00502857 0)
(0.083347 -0.004977 0)
(0.0844492 -0.00492415 0)
(0.0855395 -0.00486999 0)
(0.0866176 -0.00481452 0)
(0.0876833 -0.00475774 0)
(0.0887362 -0.00469964 0)
(0.089776 -0.00464024 0)
(0.0908025 -0.00457955 0)
(0.0918154 -0.00451757 0)
(0.0928143 -0.0044543 0)
(0.093799 -0.00438977 0)
(0.0947692 -0.00432398 0)
(0.0957246 -0.00425695 0)
(0.0966649 -0.0041887 0)
(0.09759 -0.00411924 0)
(0.0984994 -0.00404857 0)
(0.099393 -0.00397671 0)
(0.10027 -0.00390368 0)
(0.101131 -0.00382948 0)
(0.101976 -0.00375417 0)
(0.102803 -0.00367775 0)
(0.103614 -0.00360026 0)
(0.104407 -0.00352174 0)
(0.105182 -0.0034422 0)
(0.10594 -0.00336169 0)
(0.106679 -0.0032802 0)
(0.1074 -0.00319778 0)
(0.108103 -0.00311443 0)
(0.108787 -0.00303021 0)
(0.109453 -0.00294515 0)
(0.110099 -0.00285929 0)
(0.110726 -0.00277267 0)
(0.111333 -0.00268531 0)
(0.111921 -0.00259725 0)
(0.11249 -0.00250851 0)
(0.113038 -0.00241912 0)
(0.113567 -0.00232914 0)
(0.114075 -0.00223859 0)
(0.114563 -0.00214754 0)
(0.115031 -0.00205602 0)
(0.115479 -0.00196406 0)
(0.115905 -0.00187169 0)
(0.116312 -0.00177895 0)
(0.116697 -0.00168587 0)
(0.117062 -0.00159248 0)
(0.117406 -0.00149882 0)
(0.117729 -0.00140492 0)
(0.118031 -0.00131083 0)
(0.118312 -0.00121659 0)
(0.118572 -0.00112222 0)
(0.118811 -0.00102777 0)
(0.119029 -0.000933268 0)
(0.119226 -0.000838744 0)
(0.119402 -0.00074423 0)
(0.119556 -0.000649755 0)
(0.11969 -0.000555344 0)
(0.119803 -0.000461025 0)
(0.119895 -0.000366834 0)
(0.119965 -0.000272809 0)
(0.120015 -0.00017899 0)
(0.120044 -8.54077e-05 0)