/*--------------------------------*- C++ -*----------------------------------*\
| =========                 |                                                 |
| \\      /  F ield         | OpenFOAM: The Open Source CFD Toolbox           |
|  \\    /   O peration     | Version:  v2012                                 |
|   \\  /    A nd           | Website:  www.openfoam.com                      |
|    \\/     M anipulation  |                                                 |
\*---------------------------------------------------------------------------*/
FoamFile
{
    version     2.0;
    format      ascii;
    class       volScalarField;
    location    "1.5";
    object      W_z;
}
// * * * * * * * * * * * * * * * * * * * * * * * * * * * * * * * * * * * * * //

dimensions      [0 0 -1 0 0 0 0];


internalField   nonuniform List<scalar> 
65536
(
-1.2706e-07
-2.86839e-07
6.23353e-09
2.05973e-07
3.64369e-07
4.44676e-07
4.41053e-07
3.75931e-07
2.7634e-07
1.60743e-07
4.0017e-08
-7.75216e-08
-1.83636e-07
-2.72987e-07
-3.47934e-07
-4.19125e-07
-4.96188e-07
-5.77166e-07
-6.5134e-07
-7.11806e-07
-7.6365e-07
-8.18683e-07
-8.82903e-07
-9.52159e-07
-1.01945e-06
-1.08337e-06
-1.14739e-06
-1.21173e-06
-1.27014e-06
-1.31741e-06
-1.35713e-06
-1.399e-06
-1.44838e-06
-1.50157e-06
-1.55163e-06
-1.59631e-06
-1.63914e-06
-1.68567e-06
-1.74048e-06
-1.80611e-06
-1.88241e-06
-1.96464e-06
-2.04139e-06
-2.09826e-06
-2.12958e-06
-2.14572e-06
-2.16451e-06
-2.19664e-06
-2.2406e-06
-2.28883e-06
-2.33697e-06
-2.38703e-06
-2.44022e-06
-2.48861e-06
-2.51972e-06
-2.53123e-06
-2.5377e-06
-2.55969e-06
-2.60807e-06
-2.67886e-06
-2.75753e-06
-2.82709e-06
-2.87733e-06
-2.90934e-06
-2.93022e-06
-2.94539e-06
-2.95751e-06
-2.97019e-06
-2.98961e-06
-3.02143e-06
-3.06515e-06
-3.11165e-06
-3.14946e-06
-3.17625e-06
-3.20102e-06
-3.23123e-06
-3.26177e-06
-3.28288e-06
-3.29514e-06
-3.30692e-06
-3.31947e-06
-3.32581e-06
-3.32725e-06
-3.34352e-06
-3.39621e-06
-3.48111e-06
-3.56635e-06
-3.61899e-06
-3.6289e-06
-3.61227e-06
-3.59943e-06
-3.61407e-06
-3.65553e-06
-3.70006e-06
-3.72294e-06
-3.71987e-06
-3.70775e-06
-3.71025e-06
-3.7428e-06
-3.80583e-06
-3.88524e-06
-3.96033e-06
-4.01677e-06
-4.05235e-06
-4.07131e-06
-4.07719e-06
-4.07385e-06
-4.07256e-06
-4.08765e-06
-4.11906e-06
-4.14569e-06
-4.14171e-06
-4.09915e-06
-4.03638e-06
-3.98443e-06
-3.95657e-06
-3.93297e-06
-3.88808e-06
-3.82941e-06
-3.79731e-06
-3.82986e-06
-3.93338e-06
-4.07991e-06
-4.2185e-06
-4.29098e-06
-4.26098e-06
-4.14131e-06
-3.98677e-06
-3.8539e-06
-3.76763e-06
-3.72461e-06
-3.71679e-06
-3.74112e-06
-3.79101e-06
-3.8488e-06
-3.89051e-06
-3.9005e-06
-3.88101e-06
-3.84385e-06
-3.79676e-06
-3.74498e-06
-3.70252e-06
-3.69129e-06
-3.72276e-06
-3.77797e-06
-3.809e-06
-3.77094e-06
-3.66059e-06
-3.52757e-06
-3.44563e-06
-3.46213e-06
-3.56472e-06
-3.69448e-06
-3.78673e-06
-3.80448e-06
-3.75236e-06
-3.66956e-06
-3.60272e-06
-3.57704e-06
-3.58594e-06
-3.60474e-06
-3.61593e-06
-3.62014e-06
-3.62372e-06
-3.6227e-06
-3.6049e-06
-3.56456e-06
-3.50724e-06
-3.43953e-06
-3.36066e-06
-3.26957e-06
-3.17753e-06
-3.10297e-06
-3.05152e-06
-3.01319e-06
-2.98252e-06
-2.96857e-06
-2.97809e-06
-2.99983e-06
-3.01518e-06
-3.01726e-06
-3.01153e-06
-3.00052e-06
-2.97689e-06
-2.93573e-06
-2.88681e-06
-2.84875e-06
-2.8321e-06
-2.83001e-06
-2.82631e-06
-2.81051e-06
-2.78235e-06
-2.74553e-06
-2.70347e-06
-2.65906e-06
-2.6133e-06
-2.56532e-06
-2.51559e-06
-2.46535e-06
-2.41446e-06
-2.36515e-06
-2.32493e-06
-2.29896e-06
-2.2808e-06
-2.25622e-06
-2.21592e-06
-2.16189e-06
-2.10266e-06
-2.04637e-06
-1.99804e-06
-1.9594e-06
-1.92683e-06
-1.89003e-06
-1.83815e-06
-1.7711e-06
-1.70205e-06
-1.64541e-06
-1.60207e-06
-1.55903e-06
-1.50411e-06
-1.4385e-06
-1.37585e-06
-1.33e-06
-1.30214e-06
-1.28017e-06
-1.25083e-06
-1.21058e-06
-1.1633e-06
-1.11315e-06
-1.0629e-06
-1.0151e-06
-9.722e-07
-9.3579e-07
-9.06078e-07
-8.79276e-07
-8.46666e-07
-8.01386e-07
-7.46974e-07
-6.95081e-07
-6.53423e-07
-6.18283e-07
-5.79354e-07
-5.3005e-07
-4.72718e-07
-4.1506e-07
-3.62741e-07
-3.16256e-07
-2.73259e-07
-2.31289e-07
-1.88013e-07
-1.4111e-07
-9.05208e-08
-4.16654e-08
-5.00694e-09
1.03435e-08
6.08185e-09
-4.1017e-07
-9.58567e-07
-5.6575e-07
-1.05702e-07
3.36242e-07
5.93215e-07
6.26141e-07
4.86644e-07
2.42424e-07
-5.74874e-08
-3.79716e-07
-6.95401e-07
-9.78566e-07
-1.21454e-06
-1.4119e-06
-1.60128e-06
-1.80873e-06
-2.02853e-06
-2.23095e-06
-2.39788e-06
-2.54471e-06
-2.70405e-06
-2.89213e-06
-3.09596e-06
-3.29314e-06
-3.47676e-06
-3.65453e-06
-3.82853e-06
-3.98581e-06
-4.11511e-06
-4.22776e-06
-4.3512e-06
-4.49965e-06
-4.66037e-06
-4.81121e-06
-4.94397e-06
-5.06901e-06
-5.2045e-06
-5.36481e-06
-5.55541e-06
-5.77271e-06
-6.00156e-06
-6.21153e-06
-6.36814e-06
-6.4618e-06
-6.52185e-06
-6.59266e-06
-6.69889e-06
-6.83485e-06
-6.97937e-06
-7.12084e-06
-7.26813e-06
-7.42964e-06
-7.58542e-06
-7.69683e-06
-7.74992e-06
-7.77998e-06
-7.84529e-06
-7.98162e-06
-8.18158e-06
-8.40475e-06
-8.60551e-06
-8.76186e-06
-8.87985e-06
-8.97075e-06
-9.03524e-06
-9.07301e-06
-9.09757e-06
-9.13603e-06
-9.21303e-06
-9.32973e-06
-9.45621e-06
-9.55588e-06
-9.62679e-06
-9.70522e-06
-9.81472e-06
-9.92731e-06
-9.99738e-06
-1.00211e-05
-1.00314e-05
-1.00435e-05
-1.00446e-05
-1.00434e-05
-1.01023e-05
-1.02842e-05
-1.05687e-05
-1.08497e-05
-1.10211e-05
-1.10512e-05
-1.09942e-05
-1.09493e-05
-1.09929e-05
-1.11229e-05
-1.12643e-05
-1.13385e-05
-1.13299e-05
-1.12892e-05
-1.12901e-05
-1.1383e-05
-1.15739e-05
-1.18244e-05
-1.20717e-05
-1.22659e-05
-1.23916e-05
-1.24557e-05
-1.24658e-05
-1.24326e-05
-1.23939e-05
-1.2401e-05
-1.24631e-05
-1.25238e-05
-1.25104e-05
-1.24003e-05
-1.22429e-05
-1.21188e-05
-1.20571e-05
-1.19947e-05
-1.18567e-05
-1.16699e-05
-1.15635e-05
-1.16626e-05
-1.19932e-05
-1.24694e-05
-1.29262e-05
-1.3175e-05
-1.31019e-05
-1.27516e-05
-1.22963e-05
-1.19071e-05
-1.16555e-05
-1.15275e-05
-1.14966e-05
-1.15541e-05
-1.16865e-05
-1.18478e-05
-1.19662e-05
-1.1989e-05
-1.19208e-05
-1.18031e-05
-1.16658e-05
-1.15207e-05
-1.13959e-05
-1.135e-05
-1.14256e-05
-1.15801e-05
-1.1672e-05
-1.1554e-05
-1.12024e-05
-1.07655e-05
-1.04803e-05
-1.05079e-05
-1.08198e-05
-1.12336e-05
-1.15407e-05
-1.16141e-05
-1.14569e-05
-1.11857e-05
-1.09483e-05
-1.08322e-05
-1.08288e-05
-1.0868e-05
-1.08935e-05
-1.09015e-05
-1.09087e-05
-1.09059e-05
-1.08617e-05
-1.07641e-05
-1.06293e-05
-1.04668e-05
-1.02591e-05
-9.9957e-06
-9.71798e-06
-9.49527e-06
-9.35008e-06
-9.24598e-06
-9.15699e-06
-9.10496e-06
-9.10873e-06
-9.13689e-06
-9.1412e-06
-9.11315e-06
-9.07871e-06
-9.04574e-06
-8.98424e-06
-8.86919e-06
-8.72179e-06
-8.59559e-06
-8.52833e-06
-8.51161e-06
-8.50557e-06
-8.47679e-06
-8.41554e-06
-8.32493e-06
-8.20989e-06
-8.07569e-06
-7.92565e-06
-7.76356e-06
-7.60003e-06
-7.44491e-06
-7.29737e-06
-7.15828e-06
-7.0431e-06
-6.96411e-06
-6.90498e-06
-6.82816e-06
-6.7082e-06
-6.55002e-06
-6.37779e-06
-6.21578e-06
-6.07833e-06
-5.96777e-06
-5.87067e-06
-5.75754e-06
-5.60017e-06
-5.40081e-06
-5.19684e-06
-5.02689e-06
-4.89152e-06
-4.75518e-06
-4.58647e-06
-4.39057e-06
-4.20504e-06
-4.06679e-06
-3.97807e-06
-3.90556e-06
-3.8143e-06
-3.69533e-06
-3.55806e-06
-3.41109e-06
-3.26031e-06
-3.11396e-06
-2.98089e-06
-2.86691e-06
-2.77199e-06
-2.68397e-06
-2.57811e-06
-2.43659e-06
-2.27139e-06
-2.11627e-06
-1.99233e-06
-1.88763e-06
-1.77209e-06
-1.62685e-06
-1.45864e-06
-1.28866e-06
-1.13183e-06
-9.8908e-07
-8.54821e-07
-7.23758e-07
-5.89942e-07
-4.46161e-07
-2.91501e-07
-1.41581e-07
-2.74047e-08
2.37123e-08
1.57373e-08
-9.78395e-07
-2.14519e-06
-1.97101e-06
-1.40859e-06
-7.74161e-07
-3.57358e-07
-2.43825e-07
-3.82584e-07
-6.89845e-07
-1.09628e-06
-1.54591e-06
-1.9877e-06
-2.38007e-06
-2.70391e-06
-2.97511e-06
-3.2376e-06
-3.52689e-06
-3.83504e-06
-4.12248e-06
-4.36772e-06
-4.59482e-06
-4.84946e-06
-5.15284e-06
-5.48332e-06
-5.80325e-06
-6.09407e-06
-6.35981e-06
-6.60545e-06
-6.82277e-06
-7.00585e-06
-7.17687e-06
-7.37739e-06
-7.62595e-06
-7.89727e-06
-8.14942e-06
-8.36343e-06
-8.55575e-06
-8.76123e-06
-9.00768e-06
-9.30171e-06
-9.62962e-06
-9.96118e-06
-1.0254e-05
-1.04738e-05
-1.06252e-05
-1.07537e-05
-1.09087e-05
-1.11103e-05
-1.13444e-05
-1.15797e-05
-1.18012e-05
-1.20328e-05
-1.23035e-05
-1.25911e-05
-1.28264e-05
-1.29643e-05
-1.30394e-05
-1.31408e-05
-1.33379e-05
-1.36323e-05
-1.39665e-05
-1.42805e-05
-1.45605e-05
-1.48216e-05
-1.50519e-05
-1.52088e-05
-1.52709e-05
-1.52725e-05
-1.52837e-05
-1.53642e-05
-1.552e-05
-1.56941e-05
-1.58214e-05
-1.59144e-05
-1.60603e-05
-1.63025e-05
-1.65587e-05
-1.6704e-05
-1.6713e-05
-1.66619e-05
-1.6613e-05
-1.65695e-05
-1.65558e-05
-1.66771e-05
-1.70303e-05
-1.75635e-05
-1.808e-05
-1.83889e-05
-1.8435e-05
-1.83179e-05
-1.82182e-05
-1.82749e-05
-1.84883e-05
-1.87308e-05
-1.88639e-05
-1.88526e-05
-1.87755e-05
-1.87552e-05
-1.88843e-05
-1.91893e-05
-1.96233e-05
-2.00851e-05
-2.0472e-05
-2.07312e-05
-2.08576e-05
-2.08565e-05
-2.07442e-05
-2.05914e-05
-2.05046e-05
-2.05247e-05
-2.05791e-05
-2.05612e-05
-2.04356e-05
-2.02643e-05
-2.01448e-05
-2.00983e-05
-2.00186e-05
-1.97906e-05
-1.94665e-05
-1.92719e-05
-1.94319e-05
-2.00064e-05
-2.08535e-05
-2.16783e-05
-2.2143e-05
-2.20555e-05
-2.15083e-05
-2.08021e-05
-2.02162e-05
-1.98515e-05
-1.96682e-05
-1.96122e-05
-1.96733e-05
-1.98508e-05
-2.00897e-05
-2.02697e-05
-2.02848e-05
-2.01355e-05
-1.99087e-05
-1.96779e-05
-1.94574e-05
-1.92593e-05
-1.9159e-05
-1.92491e-05
-1.94962e-05
-1.96726e-05
-1.94969e-05
-1.88835e-05
-1.8068e-05
-1.74817e-05
-1.74473e-05
-1.79503e-05
-1.86818e-05
-1.92606e-05
-1.94331e-05
-1.91765e-05
-1.86819e-05
-1.8213e-05
-1.79407e-05
-1.78715e-05
-1.78972e-05
-1.79168e-05
-1.79123e-05
-1.79114e-05
-1.79087e-05
-1.78658e-05
-1.77704e-05
-1.76432e-05
-1.74741e-05
-1.72005e-05
-1.67925e-05
-1.63426e-05
-1.60002e-05
-1.58096e-05
-1.56862e-05
-1.55594e-05
-1.54524e-05
-1.53954e-05
-1.53441e-05
-1.52405e-05
-1.51039e-05
-1.50029e-05
-1.49508e-05
-1.4876e-05
-1.47087e-05
-1.44617e-05
-1.42153e-05
-1.40484e-05
-1.39828e-05
-1.39799e-05
-1.39823e-05
-1.39511e-05
-1.38671e-05
-1.37193e-05
-1.35012e-05
-1.32173e-05
-1.28944e-05
-1.25806e-05
-1.23121e-05
-1.20864e-05
-1.18863e-05
-1.17144e-05
-1.158e-05
-1.14637e-05
-1.13193e-05
-1.11141e-05
-1.08557e-05
-1.05818e-05
-1.03329e-05
-1.01298e-05
-9.96604e-06
-9.81079e-06
-9.61985e-06
-9.35993e-06
-9.0416e-06
-8.71943e-06
-8.44355e-06
-8.20991e-06
-7.96959e-06
-7.68417e-06
-7.36538e-06
-7.06616e-06
-6.83622e-06
-6.67708e-06
-6.54223e-06
-6.38592e-06
-6.19709e-06
-5.98448e-06
-5.75244e-06
-5.50557e-06
-5.25928e-06
-5.03275e-06
-4.83727e-06
-4.66971e-06
-4.50664e-06
-4.31062e-06
-4.06085e-06
-3.78226e-06
-3.52803e-06
-3.32692e-06
-3.15616e-06
-2.9682e-06
-2.73574e-06
-2.47015e-06
-2.20115e-06
-1.94656e-06
-1.70563e-06
-1.47309e-06
-1.24613e-06
-1.0179e-06
-7.75664e-07
-5.15785e-07
-2.62621e-07
-6.69514e-08
2.57894e-08
2.12895e-08
-1.27468e-06
-2.93564e-06
-3.16552e-06
-2.75331e-06
-2.13066e-06
-1.67214e-06
-1.51604e-06
-1.63912e-06
-1.96793e-06
-2.4276e-06
-2.94492e-06
-3.45005e-06
-3.8914e-06
-4.25221e-06
-4.55598e-06
-4.85176e-06
-5.17678e-06
-5.52379e-06
-5.85478e-06
-6.15052e-06
-6.43851e-06
-6.76911e-06
-7.16667e-06
-7.60719e-06
-8.04105e-06
-8.42953e-06
-8.76073e-06
-9.04048e-06
-9.27716e-06
-9.48505e-06
-9.70069e-06
-9.97205e-06
-1.03144e-05
-1.06867e-05
-1.10249e-05
-1.1296e-05
-1.15212e-05
-1.1756e-05
-1.20491e-05
-1.24119e-05
-1.28156e-05
-1.32064e-05
-1.35323e-05
-1.37766e-05
-1.39765e-05
-1.41916e-05
-1.44549e-05
-1.47631e-05
-1.50908e-05
-1.53995e-05
-1.56733e-05
-1.59598e-05
-1.63271e-05
-1.67652e-05
-1.71678e-05
-1.74333e-05
-1.75682e-05
-1.76824e-05
-1.78895e-05
-1.82175e-05
-1.86092e-05
-1.90098e-05
-1.94335e-05
-1.98993e-05
-2.03351e-05
-2.06145e-05
-2.0686e-05
-2.06255e-05
-2.05698e-05
-2.06214e-05
-2.07872e-05
-2.09775e-05
-2.11013e-05
-2.12013e-05
-2.14383e-05
-2.18799e-05
-2.23586e-05
-2.26225e-05
-2.25987e-05
-2.24259e-05
-2.22572e-05
-2.21428e-05
-2.2123e-05
-2.23261e-05
-2.28611e-05
-2.36361e-05
-2.43699e-05
-2.4796e-05
-2.48378e-05
-2.46353e-05
-2.44454e-05
-2.44719e-05
-2.47309e-05
-2.5059e-05
-2.52612e-05
-2.52658e-05
-2.51528e-05
-2.50744e-05
-2.51705e-05
-2.55179e-05
-2.60972e-05
-2.67821e-05
-2.73963e-05
-2.78181e-05
-2.80166e-05
-2.79967e-05
-2.7779e-05
-2.74618e-05
-2.72128e-05
-2.71279e-05
-2.71494e-05
-2.7158e-05
-2.71017e-05
-2.70218e-05
-2.69875e-05
-2.69955e-05
-2.69195e-05
-2.66315e-05
-2.62053e-05
-2.59355e-05
-2.61261e-05
-2.68748e-05
-2.80052e-05
-2.91162e-05
-2.97442e-05
-2.96419e-05
-2.89606e-05
-2.81167e-05
-2.74679e-05
-2.7114e-05
-2.69661e-05
-2.69279e-05
-2.6991e-05
-2.71926e-05
-2.74946e-05
-2.77283e-05
-2.77158e-05
-2.74427e-05
-2.70572e-05
-2.67063e-05
-2.64153e-05
-2.61568e-05
-2.60028e-05
-2.61096e-05
-2.64867e-05
-2.68304e-05
-2.66922e-05
-2.58665e-05
-2.46372e-05
-2.36398e-05
-2.34099e-05
-2.40035e-05
-2.50115e-05
-2.58695e-05
-2.61694e-05
-2.58419e-05
-2.51471e-05
-2.44624e-05
-2.4036e-05
-2.38871e-05
-2.38759e-05
-2.38618e-05
-2.38158e-05
-2.37854e-05
-2.37866e-05
-2.37827e-05
-2.37538e-05
-2.37061e-05
-2.35918e-05
-2.32949e-05
-2.27779e-05
-2.22127e-05
-2.18448e-05
-2.17212e-05
-2.16701e-05
-2.15488e-05
-2.1376e-05
-2.12014e-05
-2.09852e-05
-2.06844e-05
-2.0373e-05
-2.01792e-05
-2.01196e-05
-2.00638e-05
-1.98734e-05
-1.95275e-05
-1.91183e-05
-1.87766e-05
-1.85922e-05
-1.85659e-05
-1.86275e-05
-1.86945e-05
-1.87e-05
-1.85859e-05
-1.83058e-05
-1.78603e-05
-1.73262e-05
-1.6829e-05
-1.64557e-05
-1.61983e-05
-1.59955e-05
-1.58058e-05
-1.56181e-05
-1.54151e-05
-1.51631e-05
-1.48423e-05
-1.44727e-05
-1.41085e-05
-1.38043e-05
-1.35764e-05
-1.33913e-05
-1.31932e-05
-1.29362e-05
-1.26011e-05
-1.22094e-05
-1.1816e-05
-1.14646e-05
-1.11444e-05
-1.08057e-05
-1.04157e-05
-9.9928e-06
-9.59598e-06
-9.27908e-06
-9.04392e-06
-8.84154e-06
-8.62605e-06
-8.38602e-06
-8.12244e-06
-7.82804e-06
-7.50344e-06
-7.17277e-06
-6.86827e-06
-6.60598e-06
-6.37427e-06
-6.1345e-06
-5.84081e-06
-5.47998e-06
-5.09592e-06
-4.75751e-06
-4.49322e-06
-4.26623e-06
-4.01593e-06
-3.71365e-06
-3.3765e-06
-3.0357e-06
-2.70321e-06
-2.37429e-06
-2.04875e-06
-1.73193e-06
-1.41747e-06
-1.08516e-06
-7.26849e-07
-3.75554e-07
-1.02326e-07
2.94658e-08
2.72917e-08
-1.40526e-06
-3.35911e-06
-3.92416e-06
-3.73243e-06
-3.231e-06
-2.81696e-06
-2.66022e-06
-2.77121e-06
-3.09911e-06
-3.57212e-06
-4.10635e-06
-4.62115e-06
-5.06405e-06
-5.42597e-06
-5.73586e-06
-6.03957e-06
-6.36954e-06
-6.7224e-06
-7.06867e-06
-7.39178e-06
-7.71526e-06
-8.08711e-06
-8.53804e-06
-9.05259e-06
-9.57504e-06
-1.00418e-05
-1.04156e-05
-1.07003e-05
-1.09296e-05
-1.11482e-05
-1.1405e-05
-1.17404e-05
-1.21537e-05
-1.25866e-05
-1.29599e-05
-1.32348e-05
-1.3442e-05
-1.36613e-05
-1.39673e-05
-1.43793e-05
-1.48491e-05
-1.52905e-05
-1.56358e-05
-1.58904e-05
-1.61317e-05
-1.64302e-05
-1.67906e-05
-1.71811e-05
-1.75714e-05
-1.79207e-05
-1.82107e-05
-1.85152e-05
-1.8953e-05
-1.95369e-05
-2.01215e-05
-2.05294e-05
-2.07172e-05
-2.08043e-05
-2.09512e-05
-2.12274e-05
-2.15984e-05
-2.20397e-05
-2.26015e-05
-2.32892e-05
-2.39388e-05
-2.43251e-05
-2.43813e-05
-2.42501e-05
-2.41395e-05
-2.41749e-05
-2.43502e-05
-2.45525e-05
-2.46817e-05
-2.48157e-05
-2.51812e-05
-2.5861e-05
-2.65952e-05
-2.69914e-05
-2.69165e-05
-2.65814e-05
-2.62675e-05
-2.61014e-05
-2.61258e-05
-2.64413e-05
-2.71265e-05
-2.80524e-05
-2.88962e-05
-2.93596e-05
-2.93571e-05
-2.90522e-05
-2.87498e-05
-2.87059e-05
-2.89715e-05
-2.93798e-05
-2.96874e-05
-2.97546e-05
-2.96122e-05
-2.94103e-05
-2.93459e-05
-2.95918e-05
-3.0204e-05
-3.10475e-05
-3.18545e-05
-3.24131e-05
-3.26708e-05
-3.26478e-05
-3.23647e-05
-3.19189e-05
-3.15154e-05
-3.13161e-05
-3.13157e-05
-3.14112e-05
-3.15243e-05
-3.16285e-05
-3.17217e-05
-3.17809e-05
-3.17116e-05
-3.14147e-05
-3.09681e-05
-3.06669e-05
-3.08296e-05
-3.15777e-05
-3.2741e-05
-3.38874e-05
-3.45077e-05
-3.4346e-05
-3.35987e-05
-3.27455e-05
-3.21752e-05
-3.19676e-05
-3.19781e-05
-3.2056e-05
-3.21822e-05
-3.24359e-05
-3.28129e-05
-3.31097e-05
-3.30772e-05
-3.26773e-05
-3.21172e-05
-3.16291e-05
-3.12637e-05
-3.09557e-05
-3.07695e-05
-3.09292e-05
-3.15014e-05
-3.21189e-05
-3.21555e-05
-3.12414e-05
-2.96475e-05
-2.81749e-05
-2.75913e-05
-2.80884e-05
-2.92236e-05
-3.02824e-05
-3.07088e-05
-3.03821e-05
-2.9613e-05
-2.88521e-05
-2.83737e-05
-2.81836e-05
-2.81237e-05
-2.80414e-05
-2.79142e-05
-2.78251e-05
-2.78306e-05
-2.79013e-05
-2.79849e-05
-2.80407e-05
-2.79754e-05
-2.76465e-05
-2.70524e-05
-2.64703e-05
-2.62252e-05
-2.63168e-05
-2.64391e-05
-2.63578e-05
-2.60943e-05
-2.57448e-05
-2.531e-05
-2.47882e-05
-2.43108e-05
-2.40531e-05
-2.40242e-05
-2.40294e-05
-2.38519e-05
-2.34187e-05
-2.28157e-05
-2.22227e-05
-2.18199e-05
-2.16839e-05
-2.17624e-05
-2.19392e-05
-2.20848e-05
-2.20594e-05
-2.17431e-05
-2.11259e-05
-2.03629e-05
-1.96939e-05
-1.92722e-05
-1.90717e-05
-1.89573e-05
-1.88104e-05
-1.85781e-05
-1.82456e-05
-1.7815e-05
-1.73137e-05
-1.68021e-05
-1.63599e-05
-1.60436e-05
-1.58356e-05
-1.56494e-05
-1.54086e-05
-1.51004e-05
-1.47477e-05
-1.4373e-05
-1.39969e-05
-1.36319e-05
-1.32613e-05
-1.28489e-05
-1.2378e-05
-1.18755e-05
-1.14007e-05
-1.10062e-05
-1.06961e-05
-1.04286e-05
-1.01659e-05
-9.89717e-06
-9.61202e-06
-9.28912e-06
-8.92419e-06
-8.54838e-06
-8.20439e-06
-7.90929e-06
-7.63865e-06
-7.33791e-06
-6.95874e-06
-6.50418e-06
-6.03999e-06
-5.64506e-06
-5.33986e-06
-5.07223e-06
-4.77474e-06
-4.425e-06
-4.04722e-06
-3.66786e-06
-3.28621e-06
-2.89254e-06
-2.49539e-06
-2.11092e-06
-1.73217e-06
-1.32872e-06
-8.86791e-07
-4.4958e-07
-1.10359e-07
4.92035e-08
3.85983e-08
-1.39665e-06
-3.41477e-06
-4.16446e-06
-4.16117e-06
-3.81298e-06
-3.49044e-06
-3.36686e-06
-3.47657e-06
-3.79188e-06
-4.24981e-06
-4.76466e-06
-5.25526e-06
-5.67526e-06
-6.02437e-06
-6.33399e-06
-6.64227e-06
-6.97442e-06
-7.33027e-06
-7.6876e-06
-8.02842e-06
-8.36561e-06
-8.74179e-06
-9.19865e-06
-9.73802e-06
-1.03056e-05
-1.08153e-05
-1.12038e-05
-1.14743e-05
-1.16911e-05
-1.19319e-05
-1.2248e-05
-1.26495e-05
-1.30986e-05
-1.35187e-05
-1.38371e-05
-1.40377e-05
-1.41816e-05
-1.4378e-05
-1.4718e-05
-1.52136e-05
-1.57885e-05
-1.6322e-05
-1.67259e-05
-1.70181e-05
-1.73023e-05
-1.76492e-05
-1.8037e-05
-1.84253e-05
-1.88039e-05
-1.91447e-05
-1.94228e-05
-1.97228e-05
-2.02019e-05
-2.08967e-05
-2.16282e-05
-2.21467e-05
-2.23554e-05
-2.2374e-05
-2.23991e-05
-2.25404e-05
-2.28058e-05
-2.32219e-05
-2.38718e-05
-2.47239e-05
-2.5516e-05
-2.59479e-05
-2.59717e-05
-2.58092e-05
-2.57115e-05
-2.57855e-05
-2.60034e-05
-2.62623e-05
-2.64803e-05
-2.67446e-05
-2.72851e-05
-2.81675e-05
-2.90719e-05
-2.95246e-05
-2.93583e-05
-2.88503e-05
-2.84107e-05
-2.82533e-05
-2.84052e-05
-2.88803e-05
-2.96728e-05
-3.06231e-05
-3.14279e-05
-3.18188e-05
-3.17293e-05
-3.13338e-05
-3.09496e-05
-3.0855e-05
-3.11377e-05
-3.16528e-05
-3.2118e-05
-3.2294e-05
-3.21141e-05
-3.17041e-05
-3.13405e-05
-3.13358e-05
-3.18478e-05
-3.27337e-05
-3.36304e-05
-3.42488e-05
-3.45428e-05
-3.4569e-05
-3.43356e-05
-3.38913e-05
-3.34292e-05
-3.31657e-05
-3.31804e-05
-3.34195e-05
-3.37696e-05
-3.40949e-05
-3.42947e-05
-3.43487e-05
-3.4252e-05
-3.39763e-05
-3.35845e-05
-3.32991e-05
-3.33777e-05
-3.39376e-05
-3.48512e-05
-3.57445e-05
-3.61653e-05
-3.58969e-05
-3.51398e-05
-3.43559e-05
-3.39221e-05
-3.39133e-05
-3.41608e-05
-3.44589e-05
-3.47405e-05
-3.50895e-05
-3.55396e-05
-3.58962e-05
-3.58804e-05
-3.54317e-05
-3.47813e-05
-3.42132e-05
-3.37972e-05
-3.34483e-05
-3.32419e-05
-3.34709e-05
-3.4254e-05
-3.51739e-05
-3.5455e-05
-3.4568e-05
-3.27224e-05
-3.08085e-05
-2.97865e-05
-3.00194e-05
-3.11097e-05
-3.22666e-05
-3.28303e-05
-3.26323e-05
-3.19902e-05
-3.13502e-05
-3.09427e-05
-3.07407e-05
-3.06012e-05
-3.04034e-05
-3.01504e-05
-2.99668e-05
-2.99634e-05
-3.0126e-05
-3.03499e-05
-3.05124e-05
-3.04658e-05
-3.00745e-05
-2.94221e-05
-2.89068e-05
-2.88973e-05
-2.92945e-05
-2.96284e-05
-2.95677e-05
-2.91501e-05
-2.8559e-05
-2.78926e-05
-2.72152e-05
-2.66841e-05
-2.64699e-05
-2.65496e-05
-2.66713e-05
-2.65496e-05
-2.60609e-05
-2.52774e-05
-2.44113e-05
-2.37193e-05
-2.33661e-05
-2.33545e-05
-2.3568e-05
-2.38207e-05
-2.38761e-05
-2.35259e-05
-2.27527e-05
-2.1807e-05
-2.10529e-05
-2.06986e-05
-2.06732e-05
-2.07424e-05
-2.06942e-05
-2.04224e-05
-1.99148e-05
-1.92294e-05
-1.84811e-05
-1.78082e-05
-1.73211e-05
-1.70428e-05
-1.68703e-05
-1.66415e-05
-1.62944e-05
-1.59162e-05
-1.56081e-05
-1.53674e-05
-1.51253e-05
-1.48281e-05
-1.44511e-05
-1.39857e-05
-1.34473e-05
-1.28816e-05
-1.23496e-05
-1.18964e-05
-1.15227e-05
-1.11955e-05
-1.08913e-05
-1.06052e-05
-1.03212e-05
-1.00084e-05
-9.65527e-06
-9.28979e-06
-8.95398e-06
-8.66043e-06
-8.37387e-06
-8.03195e-06
-7.59304e-06
-7.07936e-06
-6.57236e-06
-6.15083e-06
-5.82296e-06
-5.52595e-06
-5.19412e-06
-4.81623e-06
-4.42237e-06
-4.03022e-06
-3.62467e-06
-3.19243e-06
-2.75213e-06
-2.33019e-06
-1.91715e-06
-1.47014e-06
-9.68459e-07
-4.65851e-07
-7.90234e-08
9.16528e-08
5.73316e-08
-1.29726e-06
-3.21169e-06
-4.01293e-06
-4.13672e-06
-3.93286e-06
-3.7198e-06
-3.65087e-06
-3.76845e-06
-4.06344e-06
-4.48731e-06
-4.96291e-06
-5.41607e-06
-5.80821e-06
-6.14601e-06
-6.46238e-06
-6.78952e-06
-7.14448e-06
-7.52368e-06
-7.90434e-06
-8.26229e-06
-8.5994e-06
-8.95425e-06
-9.3796e-06
-9.89617e-06
-1.0457e-05
-1.09621e-05
-1.13296e-05
-1.15691e-05
-1.17807e-05
-1.20746e-05
-1.24888e-05
-1.29732e-05
-1.34272e-05
-1.37551e-05
-1.39174e-05
-1.3965e-05
-1.40283e-05
-1.42533e-05
-1.4716e-05
-1.53788e-05
-1.61222e-05
-1.68061e-05
-1.73367e-05
-1.77282e-05
-1.80716e-05
-1.84108e-05
-1.87091e-05
-1.89572e-05
-1.92083e-05
-1.94728e-05
-1.97168e-05
-2.00048e-05
-2.04981e-05
-2.12461e-05
-2.2052e-05
-2.26165e-05
-2.28054e-05
-2.27374e-05
-2.26256e-05
-2.26018e-05
-2.27185e-05
-2.30601e-05
-2.3728e-05
-2.46404e-05
-2.54593e-05
-2.58587e-05
-2.58399e-05
-2.5689e-05
-2.56581e-05
-2.58073e-05
-2.61057e-05
-2.65073e-05
-2.69601e-05
-2.74945e-05
-2.82393e-05
-2.92014e-05
-3.00784e-05
-3.04446e-05
-3.01625e-05
-2.95377e-05
-2.90411e-05
-2.8946e-05
-2.92639e-05
-2.99037e-05
-3.07487e-05
-3.16153e-05
-3.22634e-05
-3.25057e-05
-3.23257e-05
-3.1911e-05
-3.15563e-05
-3.15087e-05
-3.18572e-05
-3.24847e-05
-3.30962e-05
-3.33634e-05
-3.31147e-05
-3.24546e-05
-3.17551e-05
-3.14688e-05
-3.18274e-05
-3.26581e-05
-3.35257e-05
-3.41198e-05
-3.44428e-05
-3.45954e-05
-3.45536e-05
-3.42754e-05
-3.38883e-05
-3.36326e-05
-3.36839e-05
-3.40664e-05
-3.46402e-05
-3.51493e-05
-3.53913e-05
-3.53646e-05
-3.5183e-05
-3.49121e-05
-3.45971e-05
-3.43535e-05
-3.43329e-05
-3.46197e-05
-3.51361e-05
-3.56201e-05
-3.57535e-05
-3.53932e-05
-3.46995e-05
-3.40373e-05
-3.37341e-05
-3.38869e-05
-3.43528e-05
-3.48882e-05
-3.53397e-05
-3.57442e-05
-3.6176e-05
-3.65206e-05
-3.65418e-05
-3.61664e-05
-3.55948e-05
-3.50904e-05
-3.47016e-05
-3.43293e-05
-3.40807e-05
-3.43228e-05
-3.52225e-05
-3.63346e-05
-3.67931e-05
-3.59654e-05
-3.39946e-05
-3.17825e-05
-3.03936e-05
-3.0337e-05
-3.13146e-05
-3.25464e-05
-3.33251e-05
-3.34222e-05
-3.30879e-05
-3.26826e-05
-3.23601e-05
-3.20898e-05
-3.17993e-05
-3.14364e-05
-3.1028e-05
-3.07181e-05
-3.06676e-05
-3.08956e-05
-3.12571e-05
-3.15365e-05
-3.15114e-05
-3.10488e-05
-3.03276e-05
-2.98655e-05
-3.00592e-05
-3.0707e-05
-3.11888e-05
-3.10826e-05
-3.04442e-05
-2.95739e-05
-2.87192e-05
-2.8025e-05
-2.76193e-05
-2.75923e-05
-2.78586e-05
-2.81274e-05
-2.80786e-05
-2.75679e-05
-2.667e-05
-2.56101e-05
-2.46735e-05
-2.40832e-05
-2.39055e-05
-2.40486e-05
-2.42949e-05
-2.4341e-05
-2.3924e-05
-2.30398e-05
-2.20268e-05
-2.13393e-05
-2.11949e-05
-2.1443e-05
-2.17417e-05
-2.17997e-05
-2.14749e-05
-2.07673e-05
-1.98063e-05
-1.88205e-05
-1.80417e-05
-1.75897e-05
-1.73966e-05
-1.72211e-05
-1.68302e-05
-1.62456e-05
-1.57349e-05
-1.55046e-05
-1.54919e-05
-1.54821e-05
-1.53179e-05
-1.49563e-05
-1.44272e-05
-1.38035e-05
-1.31759e-05
-1.26145e-05
-1.2142e-05
-1.17344e-05
-1.13558e-05
-1.09983e-05
-1.06769e-05
-1.0391e-05
-1.01138e-05
-9.82162e-06
-9.51993e-06
-9.23089e-06
-8.95698e-06
-8.66163e-06
-8.29125e-06
-7.82189e-06
-7.29083e-06
-6.77912e-06
-6.35149e-06
-6.00429e-06
-5.67647e-06
-5.31524e-06
-4.92146e-06
-4.52582e-06
-4.13455e-06
-3.72073e-06
-3.27015e-06
-2.81027e-06
-2.37556e-06
-1.95482e-06
-1.49382e-06
-9.63073e-07
-4.2321e-07
-1.17291e-08
1.52927e-07
8.19036e-08
-1.16052e-06
-2.88956e-06
-3.66097e-06
-3.85744e-06
-3.7738e-06
-3.67186e-06
-3.67179e-06
-3.80908e-06
-4.08605e-06
-4.47259e-06
-4.9071e-06
-5.32506e-06
-5.69395e-06
-6.02608e-06
-6.35938e-06
-6.72479e-06
-7.12899e-06
-7.555e-06
-7.9696e-06
-8.34204e-06
-8.67095e-06
-8.99507e-06
-9.37276e-06
-9.83598e-06
-1.0346e-05
-1.07995e-05
-1.11083e-05
-1.12967e-05
-1.15091e-05
-1.18898e-05
-1.24485e-05
-1.30476e-05
-1.35064e-05
-1.37104e-05
-1.36697e-05
-1.3532e-05
-1.35302e-05
-1.38548e-05
-1.45291e-05
-1.54123e-05
-1.63283e-05
-1.71574e-05
-1.78443e-05
-1.83953e-05
-1.88378e-05
-1.91434e-05
-1.9261e-05
-1.92469e-05
-1.92555e-05
-1.93628e-05
-1.95322e-05
-1.97888e-05
-2.02701e-05
-2.10266e-05
-2.1853e-05
-2.24189e-05
-2.25679e-05
-2.24242e-05
-2.22114e-05
-2.20687e-05
-2.20801e-05
-2.23705e-05
-2.30338e-05
-2.39312e-05
-2.46841e-05
-2.49878e-05
-2.49016e-05
-2.47437e-05
-2.47409e-05
-2.49264e-05
-2.53146e-05
-2.59445e-05
-2.67656e-05
-2.7667e-05
-2.85863e-05
-2.94607e-05
-3.01103e-05
-3.03032e-05
-2.99875e-05
-2.94128e-05
-2.89735e-05
-2.89362e-05
-2.93268e-05
-3.00087e-05
-3.07895e-05
-3.1478e-05
-3.19147e-05
-3.20118e-05
-3.18176e-05
-3.15276e-05
-3.13723e-05
-3.1494e-05
-3.19236e-05
-3.25744e-05
-3.32008e-05
-3.34577e-05
-3.31152e-05
-3.22731e-05
-3.13789e-05
-3.0959e-05
-3.12356e-05
-3.19739e-05
-3.27193e-05
-3.32204e-05
-3.35643e-05
-3.3886e-05
-3.41174e-05
-3.41149e-05
-3.39033e-05
-3.36986e-05
-3.37563e-05
-3.42018e-05
-3.49063e-05
-3.55261e-05
-3.57712e-05
-3.56506e-05
-3.53778e-05
-3.51055e-05
-3.48677e-05
-3.46783e-05
-3.45805e-05
-3.46138e-05
-3.474e-05
-3.48195e-05
-3.47002e-05
-3.43341e-05
-3.38204e-05
-3.33735e-05
-3.32248e-05
-3.34836e-05
-3.40587e-05
-3.47036e-05
-3.51891e-05
-3.54919e-05
-3.57381e-05
-3.59466e-05
-3.59775e-05
-3.57523e-05
-3.54012e-05
-3.51066e-05
-3.48468e-05
-3.44854e-05
-3.41551e-05
-3.42963e-05
-3.51391e-05
-3.62531e-05
-3.67498e-05
-3.5963e-05
-3.39957e-05
-3.17092e-05
-3.01657e-05
-2.99466e-05
-3.08707e-05
-3.22439e-05
-3.33566e-05
-3.38817e-05
-3.39142e-05
-3.36774e-05
-3.32868e-05
-3.27964e-05
-3.22709e-05
-3.17381e-05
-3.12132e-05
-3.07996e-05
-3.06649e-05
-3.08754e-05
-3.12995e-05
-3.1669e-05
-3.16791e-05
-3.11568e-05
-3.03279e-05
-2.98e-05
-3.00135e-05
-3.07271e-05
-3.12371e-05
-3.10519e-05
-3.02251e-05
-2.91583e-05
-2.82502e-05
-2.7711e-05
-2.75857e-05
-2.78242e-05
-2.82631e-05
-2.86095e-05
-2.85662e-05
-2.80228e-05
-2.70898e-05
-2.59937e-05
-2.49913e-05
-2.42972e-05
-2.39957e-05
-2.40032e-05
-2.41025e-05
-2.40048e-05
-2.34779e-05
-2.25601e-05
-2.1635e-05
-2.11712e-05
-2.13357e-05
-2.18772e-05
-2.23628e-05
-2.24638e-05
-2.20453e-05
-2.11479e-05
-1.99847e-05
-1.88903e-05
-1.8154e-05
-1.78463e-05
-1.77557e-05
-1.74974e-05
-1.68218e-05
-1.59049e-05
-1.52245e-05
-1.50765e-05
-1.53104e-05
-1.55494e-05
-1.55194e-05
-1.51458e-05
-1.45029e-05
-1.37527e-05
-1.30652e-05
-1.25261e-05
-1.21096e-05
-1.17296e-05
-1.13193e-05
-1.08809e-05
-1.04699e-05
-1.01359e-05
-9.87933e-06
-9.66189e-06
-9.44603e-06
-9.21535e-06
-8.95833e-06
-8.64869e-06
-8.25749e-06
-7.78489e-06
-7.27343e-06
-6.78512e-06
-6.3587e-06
-5.98275e-06
-5.61282e-06
-5.22023e-06
-4.81752e-06
-4.42923e-06
-4.04778e-06
-3.63762e-06
-3.18478e-06
-2.72094e-06
-2.28538e-06
-1.86936e-06
-1.4139e-06
-8.8106e-07
-3.32026e-07
8.17234e-08
2.26069e-07
1.09833e-07
-1.02341e-06
-2.55058e-06
-3.25496e-06
-3.48275e-06
-3.48844e-06
-3.48763e-06
-3.56611e-06
-3.74206e-06
-4.02015e-06
-4.38601e-06
-4.794e-06
-5.18806e-06
-5.54002e-06
-5.86979e-06
-6.22537e-06
-6.63962e-06
-7.10624e-06
-7.5864e-06
-8.03041e-06
-8.40611e-06
-8.72079e-06
-9.0184e-06
-9.35374e-06
-9.75523e-06
-1.01896e-05
-1.05628e-05
-1.07929e-05
-1.09236e-05
-1.11438e-05
-1.16304e-05
-1.23566e-05
-1.30945e-05
-1.35956e-05
-1.37382e-05
-1.35707e-05
-1.33121e-05
-1.32845e-05
-1.37221e-05
-1.45848e-05
-1.56113e-05
-1.65735e-05
-1.74189e-05
-1.81901e-05
-1.89074e-05
-1.95029e-05
-1.98277e-05
-1.97852e-05
-1.94916e-05
-1.92104e-05
-1.90994e-05
-1.91412e-05
-1.93395e-05
-1.98128e-05
-2.06007e-05
-2.14726e-05
-2.2055e-05
-2.21665e-05
-2.19503e-05
-2.16673e-05
-2.14862e-05
-2.15149e-05
-2.1877e-05
-2.2607e-05
-2.34908e-05
-2.41385e-05
-2.43045e-05
-2.41043e-05
-2.38561e-05
-2.37629e-05
-2.38869e-05
-2.43392e-05
-2.52309e-05
-2.64497e-05
-2.7682e-05
-2.86567e-05
-2.92873e-05
-2.9614e-05
-2.9688e-05
-2.95422e-05
-2.92557e-05
-2.89973e-05
-2.89575e-05
-2.92267e-05
-2.97295e-05
-3.02808e-05
-3.07112e-05
-3.09386e-05
-3.09641e-05
-3.08854e-05
-3.08768e-05
-3.10556e-05
-3.14021e-05
-3.18555e-05
-3.23788e-05
-3.28489e-05
-3.29931e-05
-3.25815e-05
-3.17158e-05
-3.08681e-05
-3.05423e-05
-3.08607e-05
-3.15052e-05
-3.2059e-05
-3.23986e-05
-3.27128e-05
-3.31597e-05
-3.36411e-05
-3.39371e-05
-3.39502e-05
-3.38084e-05
-3.38033e-05
-3.41783e-05
-3.48809e-05
-3.55497e-05
-3.58362e-05
-3.57322e-05
-3.54947e-05
-3.53221e-05
-3.52218e-05
-3.5113e-05
-3.49505e-05
-3.4751e-05
-3.45273e-05
-3.42602e-05
-3.39572e-05
-3.36677e-05
-3.34347e-05
-3.33076e-05
-3.33766e-05
-3.3709e-05
-3.42476e-05
-3.47869e-05
-3.50956e-05
-3.51382e-05
-3.50958e-05
-3.51045e-05
-3.51062e-05
-3.50146e-05
-3.48975e-05
-3.48589e-05
-3.47907e-05
-3.44833e-05
-3.40497e-05
-3.39819e-05
-3.46005e-05
-3.55536e-05
-3.59936e-05
-3.52691e-05
-3.3468e-05
-3.13772e-05
-2.99565e-05
-2.97622e-05
-3.07159e-05
-3.22657e-05
-3.37398e-05
-3.46841e-05
-3.4978e-05
-3.46966e-05
-3.39917e-05
-3.31061e-05
-3.22986e-05
-3.16749e-05
-3.11873e-05
-3.08071e-05
-3.06202e-05
-3.07206e-05
-3.10571e-05
-3.13981e-05
-3.13989e-05
-3.08202e-05
-2.98605e-05
-2.91513e-05
-2.91809e-05
-2.97565e-05
-3.01977e-05
-2.99931e-05
-2.91654e-05
-2.81426e-05
-2.73964e-05
-2.71513e-05
-2.73465e-05
-2.77851e-05
-2.82427e-05
-2.84751e-05
-2.82775e-05
-2.76266e-05
-2.66953e-05
-2.57074e-05
-2.48503e-05
-2.42564e-05
-2.39468e-05
-2.38035e-05
-2.36455e-05
-2.33002e-05
-2.26582e-05
-2.18105e-05
-2.11127e-05
-2.09591e-05
-2.14266e-05
-2.21796e-05
-2.27371e-05
-2.27766e-05
-2.22125e-05
-2.11613e-05
-1.99306e-05
-1.89211e-05
-1.83968e-05
-1.83036e-05
-1.82794e-05
-1.78724e-05
-1.6913e-05
-1.57491e-05