/*--------------------------------*- C++ -*----------------------------------*\
| =========                 |                                                 |
| \\      /  F ield         | OpenFOAM: The Open Source CFD Toolbox           |
|  \\    /   O peration     | Version:  v2012                                 |
|   \\  /    A nd           | Website:  www.openfoam.com                      |
|    \\/     M anipulation  |                                                 |
\*---------------------------------------------------------------------------*/
FoamFile
{
    version     2.0;
    format      ascii;
    class       volVectorField;
    location    "12";
    object      U;
}
// * * * * * * * * * * * * * * * * * * * * * * * * * * * * * * * * * * * * * //

dimensions      [0 1 -1 0 0 0 0];


internalField   nonuniform List<vector> 
65536
(
(0.000732702 -0.00073273 0)
(0.00219817 -0.000732755 0)
(0.00366371 -0.000732836 0)
(0.00512942 -0.000732945 0)
(0.00659539 -0.000733088 0)
(0.00806169 -0.000733265 0)
(0.00952837 -0.000733476 0)
(0.0109955 -0.000733719 0)
(0.0124632 -0.000733994 0)
(0.0139314 -0.000734299 0)
(0.0154003 -0.000734633 0)
(0.0168699 -0.000734995 0)
(0.0183402 -0.000735384 0)
(0.0198113 -0.000735797 0)
(0.0212833 -0.000736233 0)
(0.0227562 -0.000736689 0)
(0.02423 -0.000737164 0)
(0.0257048 -0.000737654 0)
(0.0271805 -0.000738159 0)
(0.0286573 -0.000738674 0)
(0.0301352 -0.000739197 0)
(0.0316141 -0.000739725 0)
(0.033094 -0.000740255 0)
(0.034575 -0.000740784 0)
(0.0360571 -0.000741308 0)
(0.0375402 -0.000741823 0)
(0.0390244 -0.000742326 0)
(0.0405095 -0.000742812 0)
(0.0419956 -0.000743278 0)
(0.0434826 -0.000743719 0)
(0.0449704 -0.000744131 0)
(0.0464591 -0.000744509 0)
(0.0479485 -0.000744849 0)
(0.0494385 -0.000745144 0)
(0.050929 -0.000745391 0)
(0.05242 -0.000745583 0)
(0.0539114 -0.000745716 0)
(0.0554029 -0.000745783 0)
(0.0568945 -0.000745779 0)
(0.0583861 -0.000745698 0)
(0.0598773 -0.000745534 0)
(0.0613682 -0.00074528 0)
(0.0628585 -0.00074493 0)
(0.064348 -0.000744478 0)
(0.0658365 -0.000743917 0)
(0.0673237 -0.000743239 0)
(0.0688095 -0.000742439 0)
(0.0702936 -0.000741509 0)
(0.0717756 -0.000740442 0)
(0.0732554 -0.000739231 0)
(0.0747327 -0.000737868 0)
(0.076207 -0.000736346 0)
(0.0776782 -0.000734658 0)
(0.0791458 -0.000732796 0)
(0.0806095 -0.000730753 0)
(0.0820689 -0.000728521 0)
(0.0835237 -0.000726092 0)
(0.0849734 -0.00072346 0)
(0.0864177 -0.000720616 0)
(0.0878561 -0.000717553 0)
(0.0892881 -0.000714264 0)
(0.0907133 -0.000710741 0)
(0.0921312 -0.000706978 0)
(0.0935414 -0.000702966 0)
(0.0949433 -0.0006987 0)
(0.0963364 -0.000694173 0)
(0.0977202 -0.000689377 0)
(0.0990941 -0.000684307 0)
(0.100458 -0.000678957 0)
(0.10181 -0.00067332 0)
(0.103151 -0.000667391 0)
(0.10448 -0.000661165 0)
(0.105796 -0.000654637 0)
(0.107099 -0.000647802 0)
(0.108388 -0.000640656 0)
(0.109662 -0.000633195 0)
(0.110921 -0.000625416 0)
(0.112164 -0.000617317 0)
(0.11339 -0.000608893 0)
(0.114599 -0.000600144 0)
(0.115791 -0.000591068 0)
(0.116964 -0.000581664 0)
(0.118118 -0.000571932 0)
(0.119252 -0.000561871 0)
(0.120366 -0.000551483 0)
(0.121458 -0.000540768 0)
(0.122529 -0.000529728 0)
(0.123577 -0.000518367 0)
(0.124603 -0.000506687 0)
(0.125604 -0.000494691 0)
(0.126582 -0.000482385 0)
(0.127534 -0.000469772 0)
(0.128461 -0.000456859 0)
(0.129362 -0.000443652 0)
(0.130236 -0.000430158 0)
(0.131083 -0.000416383 0)
(0.131902 -0.000402337 0)
(0.132692 -0.000388027 0)
(0.133454 -0.000373463 0)
(0.134186 -0.000358654 0)
(0.134889 -0.000343611 0)
(0.135561 -0.000328345 0)
(0.136202 -0.000312867 0)
(0.136813 -0.000297188 0)
(0.137391 -0.00028132 0)
(0.137938 -0.000265277 0)
(0.138453 -0.000249071 0)
(0.138934 -0.000232716 0)
(0.139384 -0.000216226 0)
(0.139799 -0.000199613 0)
(0.140182 -0.000182892 0)
(0.140531 -0.000166079 0)
(0.140846 -0.000149186 0)
(0.141128 -0.00013223 0)
(0.141375 -0.000115224 0)
(0.141589 -9.81838e-05 0)
(0.141768 -8.1124e-05 0)
(0.141913 -6.40595e-05 0)
(0.142024 -4.70051e-05 0)
(0.142101 -2.99755e-05 0)
(0.142144 -1.29852e-05 0)
(0.142153 3.95137e-06 0)
(0.142128 2.08201e-05 0)
(0.14207 3.76069e-05 0)
(0.141978 5.42981e-05 0)
(0.141852 7.08804e-05 0)
(0.141694 8.73407e-05 0)
(0.141503 0.000103666 0)
(0.141279 0.000119845 0)
(0.141023 0.000135865 0)
(0.140735 0.000151714 0)
(0.140416 0.000167382 0)
(0.140066 0.000182858 0)
(0.139684 0.000198132 0)
(0.139273 0.000213195 0)
(0.138831 0.000228037 0)
(0.13836 0.000242649 0)
(0.13786 0.000257025 0)
(0.137332 0.000271156 0)
(0.136775 0.000285035 0)
(0.136191 0.000298656 0)
(0.135581 0.000312014 0)
(0.134943 0.000325102 0)
(0.13428 0.000337917 0)
(0.133591 0.000350453 0)
(0.132878 0.000362707 0)
(0.13214 0.000374677 0)
(0.131379 0.000386358 0)
(0.130594 0.00039775 0)
(0.129787 0.00040885 0)
(0.128958 0.000419657 0)
(0.128108 0.00043017 0)
(0.127237 0.000440389 0)
(0.126346 0.000450314 0)
(0.125436 0.000459946 0)
(0.124506 0.000469286 0)
(0.123558 0.000478334 0)
(0.122593 0.000487093 0)
(0.12161 0.000495564 0)
(0.12061 0.00050375 0)
(0.119594 0.000511654 0)
(0.118563 0.000519278 0)
(0.117517 0.000526626 0)
(0.116456 0.000533701 0)
(0.115382 0.000540508 0)
(0.114294 0.000547049 0)
(0.113193 0.000553329 0)
(0.11208 0.000559353 0)
(0.110955 0.000565124 0)
(0.109819 0.000570649 0)
(0.108673 0.000575931 0)
(0.107515 0.000580976 0)
(0.106348 0.000585788 0)
(0.105172 0.000590373 0)
(0.103987 0.000594736 0)
(0.102793 0.000598883 0)
(0.101591 0.000602819 0)
(0.100381 0.000606549 0)
(0.0991643 0.000610078 0)
(0.0979406 0.000613413 0)
(0.0967104 0.00061656 0)
(0.0954741 0.000619522 0)
(0.0942321 0.000622307 0)
(0.0929846 0.000624919 0)
(0.0917322 0.000627364 0)
(0.090475 0.000629647 0)
(0.0892134 0.000631775 0)
(0.0879477 0.000633752 0)
(0.0866782 0.000635584 0)
(0.0854051 0.000637276 0)
(0.0841289 0.000638834 0)
(0.0828496 0.000640261 0)
(0.0815676 0.000641565 0)
(0.0802832 0.000642749 0)
(0.0789965 0.000643819 0)
(0.0777077 0.00064478 0)
(0.0764172 0.000645636 0)
(0.0751251 0.000646392 0)
(0.0738315 0.000647052 0)
(0.0725367 0.000647622 0)
(0.0712409 0.000648106 0)
(0.0699441 0.000648508 0)
(0.0686467 0.000648832 0)
(0.0673487 0.000649083 0)
(0.0660503 0.000649265 0)
(0.0647515 0.000649382 0)
(0.0634526 0.000649437 0)
(0.0621537 0.000649434 0)
(0.0608548 0.000649377 0)
(0.0595561 0.000649271 0)
(0.0582576 0.000649117 0)
(0.0569595 0.00064892 0)
(0.0556618 0.000648683 0)
(0.0543647 0.000648409 0)
(0.0530681 0.000648102 0)
(0.0517722 0.000647763 0)
(0.050477 0.000647398 0)
(0.0491825 0.000647007 0)
(0.0478889 0.000646594 0)
(0.0465961 0.000646162 0)
(0.0453042 0.000645712 0)
(0.0440132 0.000645249 0)
(0.0427231 0.000644773 0)
(0.041434 0.000644288 0)
(0.0401459 0.000643795 0)
(0.0388588 0.000643297 0)
(0.0375727 0.000642796 0)
(0.0362876 0.000642294 0)
(0.0350035 0.000641792 0)
(0.0337204 0.000641293 0)
(0.0324383 0.000640797 0)
(0.0311571 0.000640308 0)
(0.029877 0.000639827 0)
(0.0285978 0.000639354 0)
(0.0273195 0.000638892 0)
(0.0260422 0.000638442 0)
(0.0247658 0.000638005 0)
(0.0234902 0.000637582 0)
(0.0222154 0.000637175 0)
(0.0209414 0.000636784 0)
(0.0196682 0.000636412 0)
(0.0183958 0.000636058 0)
(0.017124 0.000635723 0)
(0.0158528 0.000635409 0)
(0.0145823 0.000635116 0)
(0.0133124 0.000634846 0)
(0.0120429 0.000634597 0)
(0.010774 0.000634372 0)
(0.00950541 0.000634171 0)
(0.00823725 0.000633994 0)
(0.00696942 0.000633841 0)
(0.00570186 0.000633714 0)
(0.00443454 0.000633611 0)
(0.0031674 0.000633534 0)
(0.0019004 0.000633483 0)
(0.000633461 0.000633457 0)
(0.000732677 -0.00219812 0)
(0.00219806 -0.00219822 0)
(0.00366353 -0.00219845 0)
(0.00512918 -0.00219877 0)
(0.00659509 -0.0021992 0)
(0.00806132 -0.00219973 0)
(0.00952794 -0.00220037 0)
(0.010995 -0.0022011 0)
(0.0124626 -0.00220192 0)
(0.0139308 -0.00220284 0)
(0.0153996 -0.00220384 0)
(0.0168691 -0.00220493 0)
(0.0183394 -0.0022061 0)
(0.0198105 -0.00220734 0)
(0.0212824 -0.00220865 0)
(0.0227553 -0.00221002 0)
(0.024229 -0.00221145 0)
(0.0257038 -0.00221292 0)
(0.0271795 -0.00221444 0)
(0.0286563 -0.00221599 0)
(0.0301341 -0.00221756 0)
(0.031613 -0.00221915 0)
(0.033093 -0.00222074 0)
(0.034574 -0.00222233 0)
(0.0360561 -0.0022239 0)
(0.0375392 -0.00222545 0)
(0.0390234 -0.00222697 0)
(0.0405086 -0.00222843 0)
(0.0419947 -0.00222983 0)
(0.0434817 -0.00223116 0)
(0.0449697 -0.0022324 0)
(0.0464584 -0.00223354 0)
(0.0479478 -0.00223456 0)
(0.0494379 -0.00223546 0)
(0.0509286 -0.0022362 0)
(0.0524197 -0.00223678 0)
(0.0539112 -0.00223719 0)
(0.0554029 -0.00223739 0)
(0.0568946 -0.00223739 0)
(0.0583863 -0.00223715 0)
(0.0598778 -0.00223667 0)
(0.0613689 -0.00223591 0)
(0.0628593 -0.00223487 0)
(0.064349 -0.00223352 0)
(0.0658378 -0.00223184 0)
(0.0673252 -0.00222982 0)
(0.0688113 -0.00222742 0)
(0.0702956 -0.00222464 0)
(0.0717779 -0.00222145 0)
(0.073258 -0.00221782 0)
(0.0747356 -0.00221374 0)
(0.0762103 -0.00220918 0)
(0.0776817 -0.00220412 0)
(0.0791497 -0.00219855 0)
(0.0806138 -0.00219242 0)
(0.0820736 -0.00218573 0)
(0.0835288 -0.00217846 0)
(0.084979 -0.00217057 0)
(0.0864236 -0.00216204 0)
(0.0878625 -0.00215286 0)
(0.0892949 -0.002143 0)
(0.0907206 -0.00213244 0)
(0.0921391 -0.00212116 0)
(0.0935497 -0.00210913 0)
(0.0949521 -0.00209634 0)
(0.0963458 -0.00208276 0)
(0.0977301 -0.00206838 0)
(0.0991046 -0.00205318 0)
(0.100469 -0.00203713 0)
(0.101822 -0.00202023 0)
(0.103163 -0.00200244 0)
(0.104493 -0.00198377 0)
(0.10581 -0.00196419 0)
(0.107113 -0.00194369 0)
(0.108402 -0.00192226 0)
(0.109677 -0.00189988 0)
(0.110937 -0.00187654 0)
(0.11218 -0.00185225 0)
(0.113407 -0.00182698 0)
(0.114617 -0.00180073 0)
(0.11581 -0.00177351 0)
(0.116983 -0.00174529 0)
(0.118138 -0.0017161 0)
(0.119273 -0.00168591 0)
(0.120387 -0.00165475 0)
(0.12148 -0.0016226 0)
(0.122551 -0.00158948 0)
(0.123601 -0.00155539 0)
(0.124627 -0.00152035 0)
(0.125629 -0.00148436 0)
(0.126607 -0.00144743 0)
(0.12756 -0.00140959 0)
(0.128487 -0.00137084 0)
(0.129389 -0.00133121 0)
(0.130263 -0.00129072 0)
(0.131111 -0.00124939 0)
(0.13193 -0.00120724 0)
(0.132721 -0.0011643 0)
(0.133484 -0.0011206 0)
(0.134216 -0.00107617 0)
(0.134919 -0.00103103 0)
(0.135592 -0.000985215 0)
(0.136234 -0.000938767 0)
(0.136844 -0.000891718 0)
(0.137423 -0.000844103 0)
(0.13797 -0.000795961 0)
(0.138485 -0.00074733 0)
(0.138967 -0.000698251 0)
(0.139417 -0.000648764 0)
(0.139833 -0.000598912 0)
(0.140216 -0.000548736 0)
(0.140565 -0.00049828 0)
(0.14088 -0.000447588 0)
(0.141162 -0.000396703 0)
(0.141409 -0.000345671 0)
(0.141623 -0.000294535 0)
(0.141802 -0.000243341 0)
(0.141947 -0.000192133 0)
(0.142058 -0.000140955 0)
(0.142135 -8.98511e-05 0)
(0.142178 -3.88656e-05 0)
(0.142187 1.19584e-05 0)
(0.142162 6.25785e-05 0)
(0.142103 0.000112953 0)
(0.142011 0.00016304 0)
(0.141885 0.0002128 0)
(0.141727 0.000262193 0)
(0.141535 0.000311183 0)
(0.141311 0.000359731 0)
(0.141055 0.000407801 0)
(0.140767 0.000455361 0)
(0.140447 0.000502375 0)
(0.140096 0.000548813 0)
(0.139715 0.000594645 0)
(0.139303 0.000639842 0)
(0.138861 0.000684376 0)
(0.138389 0.000728222 0)
(0.137889 0.000771356 0)
(0.13736 0.000813755 0)
(0.136803 0.0008554 0)
(0.136219 0.000896269 0)
(0.135607 0.000936347 0)
(0.134969 0.000975617 0)
(0.134305 0.00101406 0)
(0.133616 0.00105168 0)
(0.132902 0.00108844 0)
(0.132164 0.00112435 0)
(0.131402 0.0011594 0)
(0.130617 0.00119358 0)
(0.129809 0.00122688 0)
(0.12898 0.0012593 0)
(0.128129 0.00129084 0)
(0.127258 0.0013215 0)
(0.126366 0.00135127 0)
(0.125455 0.00138017 0)
(0.124525 0.00140818 0)
(0.123576 0.00143532 0)
(0.12261 0.0014616 0)
(0.121626 0.00148701 0)
(0.120626 0.00151157 0)
(0.11961 0.00153527 0)
(0.118578 0.00155814 0)
(0.117531 0.00158018 0)
(0.11647 0.0016014 0)
(0.115395 0.00162182 0)
(0.114307 0.00164144 0)
(0.113206 0.00166027 0)
(0.112092 0.00167834 0)
(0.110967 0.00169565 0)
(0.10983 0.00171222 0)
(0.108683 0.00172806 0)
(0.107525 0.00174319 0)
(0.106358 0.00175762 0)
(0.105181 0.00177137 0)
(0.103995 0.00178445 0)
(0.102801 0.00179689 0)
(0.101598 0.00180869 0)
(0.100388 0.00181987 0)
(0.0991712 0.00183046 0)
(0.0979471 0.00184046 0)
(0.0967166 0.00184989 0)
(0.0954799 0.00185877 0)
(0.0942375 0.00186712 0)
(0.0929898 0.00187495 0)
(0.091737 0.00188228 0)
(0.0904795 0.00188912 0)
(0.0892175 0.0018955 0)
(0.0879515 0.00190143 0)
(0.0866818 0.00190692 0)
(0.0854085 0.00191199 0)
(0.0841319 0.00191666 0)
(0.0828524 0.00192093 0)
(0.0815702 0.00192484 0)
(0.0802855 0.00192839 0)
(0.0789986 0.00193159 0)
(0.0777096 0.00193447 0)
(0.0764189 0.00193703 0)
(0.0751265 0.00193929 0)
(0.0738328 0.00194127 0)
(0.0725378 0.00194298 0)
(0.0712418 0.00194442 0)
(0.0699449 0.00194563 0)
(0.0686473 0.00194659 0)
(0.0673492 0.00194734 0)
(0.0660506 0.00194788 0)
(0.0647518 0.00194823 0)
(0.0634527 0.00194839 0)
(0.0621537 0.00194838 0)
(0.0608547 0.00194821 0)
(0.0595559 0.00194788 0)
(0.0582573 0.00194742 0)
(0.0569591 0.00194682 0)
(0.0556614 0.00194611 0)
(0.0543642 0.00194528 0)
(0.0530675 0.00194436 0)
(0.0517716 0.00194334 0)
(0.0504763 0.00194224 0)
(0.0491818 0.00194106 0)
(0.0478881 0.00193982 0)
(0.0465953 0.00193852 0)
(0.0453033 0.00193717 0)
(0.0440123 0.00193578 0)
(0.0427222 0.00193435 0)
(0.0414331 0.00193289 0)
(0.040145 0.00193141 0)
(0.0388579 0.00192992 0)
(0.0375717 0.00192841 0)
(0.0362866 0.0019269 0)
(0.0350025 0.00192539 0)
(0.0337194 0.0019239 0)
(0.0324373 0.00192241 0)
(0.0311562 0.00192094 0)
(0.0298761 0.00191949 0)
(0.0285969 0.00191807 0)
(0.0273187 0.00191669 0)
(0.0260413 0.00191533 0)
(0.0247649 0.00191402 0)
(0.0234894 0.00191275 0)
(0.0222146 0.00191153 0)
(0.0209407 0.00191036 0)
(0.0196675 0.00190924 0)
(0.0183951 0.00190817 0)
(0.0171233 0.00190717 0)
(0.0158523 0.00190623 0)
(0.0145818 0.00190535 0)
(0.0133119 0.00190454 0)
(0.0120425 0.00190379 0)
(0.0107735 0.00190311 0)
(0.00950504 0.00190251 0)
(0.00823693 0.00190198 0)
(0.00696914 0.00190152 0)
(0.00570164 0.00190114 0)
(0.00443437 0.00190083 0)
(0.00316728 0.0019006 0)
(0.00190032 0.00190044 0)
(0.000633436 0.00190037 0)
(0.000732595 -0.00366343 0)
(0.00219784 -0.0036636 0)
(0.00366318 -0.00366396 0)
(0.0051287 -0.00366449 0)
(0.00659447 -0.00366521 0)
(0.00806056 -0.00366609 0)
(0.00952705 -0.00366715 0)
(0.010994 -0.00366837 0)
(0.0124615 -0.00366975 0)
(0.0139295 -0.00367128 0)
(0.0153982 -0.00367296 0)
(0.0168676 -0.00367478 0)
(0.0183378 -0.00367673 0)
(0.0198088 -0.0036788 0)
(0.0212807 -0.00368099 0)
(0.0227534 -0.00368329 0)
(0.0242271 -0.00368567 0)
(0.0257018 -0.00368814 0)
(0.0271775 -0.00369067 0)
(0.0286543 -0.00369326 0)
(0.0301321 -0.00369589 0)
(0.0316109 -0.00369855 0)
(0.0330909 -0.00370122 0)
(0.0345719 -0.00370388 0)
(0.036054 -0.00370651 0)
(0.0375372 -0.00370911 0)
(0.0390214 -0.00371164 0)
(0.0405067 -0.0037141 0)
(0.0419929 -0.00371645 0)
(0.0434801 -0.00371868 0)
(0.0449681 -0.00372076 0)
(0.046457 -0.00372268 0)
(0.0479466 -0.0037244 0)
(0.0494369 -0.0037259 0)
(0.0509278 -0.00372716 0)
(0.0524191 -0.00372815 0)
(0.0539108 -0.00372884 0)
(0.0554028 -0.00372921 0)
(0.0568948 -0.00372922 0)
(0.0583869 -0.00372884 0)
(0.0598787 -0.00372805 0)
(0.0613701 -0.00372682 0)
(0.062861 -0.0037251 0)
(0.0643511 -0.00372287 0)
(0.0658403 -0.0037201 0)
(0.0673282 -0.00371675 0)
(0.0688148 -0.00371278 0)
(0.0702996 -0.00370817 0)
(0.0717826 -0.00370287 0)
(0.0732632 -0.00369685 0)
(0.0747414 -0.00369007 0)
(0.0762167 -0.0036825 0)
(0.0776889 -0.0036741 0)
(0.0791576 -0.00366483 0)
(0.0806224 -0.00365465 0)
(0.082083 -0.00364353 0)
(0.083539 -0.00363142 0)
(0.08499 -0.0036183 0)
(0.0864355 -0.00360411 0)
(0.0878752 -0.00358884 0)
(0.0893086 -0.00357243 0)
(0.0907353 -0.00355485 0)
(0.0921547 -0.00353607 0)
(0.0935664 -0.00351604 0)
(0.0949698 -0.00349475 0)
(0.0963645 -0.00347214 0)
(0.0977499 -0.0034482 0)
(0.0991255 -0.00342288 0)
(0.100491 -0.00339615 0)
(0.101845 -0.003368 0)
(0.103188 -0.00333838 0)
(0.104518 -0.00330727 0)
(0.105836 -0.00327465 0)
(0.107141 -0.0032405 0)
(0.108432 -0.00320479 0)
(0.109708 -0.0031675 0)
(0.110968 -0.00312862 0)
(0.112213 -0.00308814 0)
(0.113442 -0.00304603 0)
(0.114653 -0.00300229 0)
(0.115847 -0.00295692 0)
(0.117022 -0.0029099 0)
(0.118177 -0.00286123 0)
(0.119314 -0.00281093 0)
(0.120429 -0.00275898 0)
(0.121524 -0.00270539 0)
(0.122596 -0.00265018 0)
(0.123647 -0.00259336 0)
(0.124674 -0.00253494 0)
(0.125678 -0.00247494 0)
(0.126657 -0.00241338 0)
(0.127611 -0.00235029 0)
(0.12854 -0.00228569 0)
(0.129442 -0.00221962 0)
(0.130318 -0.00215211 0)
(0.131166 -0.0020832 0)
(0.131987 -0.00201292 0)
(0.132779 -0.00194133 0)
(0.133542 -0.00186846 0)
(0.134276 -0.00179436 0)
(0.13498 -0.00171909 0)
(0.135654 -0.00164271 0)
(0.136296 -0.00156525 0)
(0.136908 -0.0014868 0)
(0.137487 -0.0014074 0)
(0.138035 -0.00132712 0)
(0.13855 -0.00124602 0)
(0.139033 -0.00116418 0)
(0.139483 -0.00108165 0)
(0.1399 -0.000998516 0)
(0.140283 -0.000914841 0)
(0.140632 -0.000830699 0)
(0.140948 -0.000746163 0)
(0.14123 -0.000661306 0)
(0.141478 -0.000576203 0)
(0.141691 -0.000490927 0)
(0.141871 -0.000405554 0)
(0.142016 -0.000320157 0)
(0.142127 -0.000234811 0)
(0.142203 -0.00014959 0)
(0.142246 -6.45661e-05 0)
(0.142255 2.0188e-05 0)
(0.142229 0.000104601 0)
(0.14217 0.000188604 0)
(0.142078 0.000272127 0)
(0.141952 0.000355104 0)
(0.141792 0.00043747 0)
(0.1416 0.000519159 0)
(0.141376 0.000600112 0)
(0.141119 0.000680268 0)
(0.14083 0.00075957 0)
(0.14051 0.000837963 0)
(0.140158 0.000915394 0)
(0.139776 0.000991812 0)
(0.139363 0.00106717 0)
(0.13892 0.00114142 0)
(0.138448 0.00121452 0)
(0.137946 0.00128644 0)
(0.137416 0.00135713 0)
(0.136858 0.00142656 0)
(0.136273 0.00149469 0)
(0.13566 0.00156151 0)
(0.135021 0.00162697 0)
(0.134356 0.00169107 0)
(0.133666 0.00175376 0)
(0.132951 0.00181505 0)
(0.132211 0.00187491 0)
(0.131448 0.00193333 0)
(0.130662 0.0019903 0)
(0.129853 0.0020458 0)
(0.129023 0.00209984 0)
(0.128171 0.00215241 0)
(0.127298 0.0022035 0)
(0.126405 0.00225312 0)
(0.125493 0.00230128 0)
(0.124562 0.00234797 0)
(0.123612 0.0023932 0)
(0.122644 0.00243699 0)
(0.12166 0.00247933 0)
(0.120658 0.00252025 0)
(0.119641 0.00255975 0)
(0.118608 0.00259785 0)
(0.11756 0.00263458 0)
(0.116498 0.00266993 0)
(0.115422 0.00270394 0)
(0.114332 0.00273663 0)
(0.11323 0.00276801 0)
(0.112116 0.0027981 0)
(0.11099 0.00282694 0)
(0.109852 0.00285453 0)
(0.108704 0.00288092 0)
(0.107545 0.00290612 0)
(0.106377 0.00293015 0)
(0.105199 0.00295305 0)
(0.104012 0.00297484 0)
(0.102817 0.00299554 0)
(0.101614 0.00301519 0)
(0.100403 0.00303382 0)
(0.0991851 0.00305144 0)
(0.0979602 0.00306808 0)
(0.0967289 0.00308379 0)
(0.0954916 0.00309857 0)
(0.0942485 0.00311246 0)
(0.093 0.0031255 0)
(0.0917466 0.00313769 0)
(0.0904884 0.00314909 0)
(0.0892259 0.0031597 0)
(0.0879593 0.00316955 0)
(0.0866889 0.00317869 0)
(0.0854151 0.00318712 0)
(0.084138 0.00319488 0)
(0.082858 0.00320199 0)
(0.0815753 0.00320849 0)
(0.0802902 0.00321438 0)
(0.0790028 0.00321971 0)
(0.0777134 0.00322449 0)
(0.0764222 0.00322874 0)
(0.0751295 0.0032325 0)
(0.0738354 0.00323578 0)
(0.0725401 0.00323861 0)
(0.0712437 0.003241 0)
(0.0699465 0.00324299 0)
(0.0686486 0.00324459 0)
(0.0673502 0.00324583 0)
(0.0660513 0.00324671 0)
(0.0647522 0.00324728 0)
(0.063453 0.00324753 0)
(0.0621537 0.0032475 0)
(0.0608545 0.0032472 0)
(0.0595555 0.00324665 0)
(0.0582567 0.00324586 0)
(0.0569584 0.00324486 0)
(0.0556605 0.00324366 0)
(0.0543631 0.00324227 0)
(0.0530663 0.00324072 0)
(0.0517702 0.00323901 0)
(0.0504749 0.00323717 0)
(0.0491803 0.0032352 0)
(0.0478865 0.00323313 0)
(0.0465936 0.00323095 0)
(0.0453016 0.00322869 0)
(0.0440105 0.00322636 0)
(0.0427204 0.00322397 0)
(0.0414312 0.00322154 0)
(0.0401431 0.00321906 0)
(0.0388559 0.00321656 0)
(0.0375698 0.00321404 0)
(0.0362847 0.00321152 0)
(0.0350006 0.003209 0)
(0.0337175 0.0032065 0)
(0.0324354 0.00320401 0)
(0.0311543 0.00320156 0)
(0.0298742 0.00319914 0)
(0.0285951 0.00319677 0)
(0.0273169 0.00319446 0)
(0.0260396 0.0031922 0)
(0.0247632 0.00319001 0)
(0.0234877 0.00318789 0)
(0.0222131 0.00318585 0)
(0.0209392 0.00318389 0)
(0.0196661 0.00318202 0)
(0.0183938 0.00318025 0)
(0.0171221 0.00317857 0)
(0.0158511 0.003177 0)
(0.0145807 0.00317553 0)
(0.0133108 0.00317417 0)
(0.0120415 0.00317293 0)
(0.0107727 0.0031718 0)
(0.0095043 0.00317079 0)
(0.00823628 0.0031699 0)
(0.0069686 0.00316914 0)
(0.00570119 0.0031685 0)
(0.00443402 0.00316798 0)
(0.00316703 0.0031676 0)
(0.00190017 0.00316734 0)
(0.000633385 0.00316721 0)
(0.000732486 -0.00512857 0)
(0.00219751 -0.00512881 0)
(0.00366265 -0.00512931 0)
(0.00512796 -0.00513005 0)
(0.00659352 -0.00513105 0)
(0.00805941 -0.0051323 0)
(0.0095257 -0.00513378 0)
(0.0109925 -0.00513549 0)
(0.0124597 -0.00513743 0)
(0.0139276 -0.00513959 0)
(0.0153962 -0.00514195 0)
(0.0168654 -0.00514451 0)
(0.0183354 -0.00514725 0)
(0.0198063 -0.00515017 0)
(0.021278 -0.00515325 0)
(0.0227506 -0.00515647 0)
(0.0242243 -0.00515983 0)
(0.0256989 -0.0051633 0)
(0.0271745 -0.00516687 0)
(0.0286512 -0.00517051 0)
(0.0301289 -0.00517422 0)
(0.0316078 -0.00517796 0)
(0.0330877 -0.00518172 0)
(0.0345688 -0.00518547 0)
(0.0360509 -0.00518918 0)
(0.0375342 -0.00519284 0)
(0.0390185 -0.00519642 0)
(0.0405039 -0.00519988 0)
(0.0419902 -0.00520321 0)
(0.0434775 -0.00520636 0)
(0.0449658 -0.00520931 0)
(0.0464549 -0.00521202 0)
(0.0479447 -0.00521447 0)
(0.0494353 -0.00521661 0)
(0.0509265 -0.00521841 0)
(0.0524182 -0.00521983 0)
(0.0539103 -0.00522084 0)
(0.0554026 -0.00522139 0)
(0.0568951 -0.00522145 0)
(0.0583876 -0.00522097 0)
(0.05988 -0.0052199 0)
(0.061372 -0.00521822 0)
(0.0628634 -0.00521586 0)
(0.0643542 -0.00521279 0)
(0.065844 -0.00520896 0)
(0.0673327 -0.00520431 0)
(0.06882 -0.00519881 0)
(0.0703057 -0.0051924 0)
(0.0717894 -0.00518503 0)
(0.073271 -0.00517666 0)
(0.0747501 -0.00516722 0)
(0.0762264 -0.00515667 0)
(0.0776996 -0.00514496 0)
(0.0791693 -0.00513203 0)
(0.0806353 -0.00511783 0)
(0.082097 -0.00510231 0)
(0.0835542 -0.00508542 0)
(0.0850065 -0.0050671 0)
(0.0864533 -0.00504729 0)
(0.0878943 -0.00502596 0)
(0.0893291 -0.00500303 0)
(0.0907572 -0.00497848 0)
(0.0921781 -0.00495223 0)
(0.0935913 -0.00492425 0)
(0.0949963 -0.00489448 0)
(0.0963926 -0.00486288 0)
(0.0977796 -0.0048294 0)
(0.0991569 -0.00479399 0)
(0.100524 -0.00475662 0)
(0.10188 -0.00471724 0)
(0.103224 -0.00467581 0)
(0.104557 -0.0046323 0)
(0.105877 -0.00458667 0)
(0.107183 -0.00453888 0)
(0.108475 -0.00448891 0)
(0.109753 -0.00443674 0)
(0.111016 -0.00438232 0)
(0.112263 -0.00432566 0)
(0.113493 -0.00426672 0)
(0.114707 -0.0042055 0)
(0.115902 -0.00414198 0)
(0.117079 -0.00407616 0)
(0.118237 -0.00400803 0)
(0.119375 -0.00393759 0)
(0.120493 -0.00386486 0)
(0.121589 -0.00378983 0)
(0.122664 -0.00371251 0)
(0.123716 -0.00363294 0)
(0.124745 -0.00355113 0)
(0.125751 -0.0034671 0)
(0.126732 -0.00338088 0)
(0.127688 -0.00329251 0)
(0.128618 -0.00320204 0)
(0.129523 -0.00310949 0)
(0.1304 -0.00301492 0)
(0.13125 -0.00291839 0)
(0.132072 -0.00281994 0)
(0.132866 -0.00271964 0)
(0.133631 -0.00261756 0)
(0.134366 -0.00251375 0)
(0.135071 -0.0024083 0)
(0.135746 -0.00230128 0)
(0.13639 -0.00219276 0)
(0.137002 -0.00208284 0)
(0.137583 -0.00197159 0)
(0.138132 -0.0018591 0)
(0.138648 -0.00174548 0)
(0.139132 -0.0016308 0)
(0.139583 -0.00151517 0)
(0.14 -0.00139868 0)
(0.140384 -0.00128143 0)
(0.140734 -0.00116353 0)
(0.14105 -0.00104508 0)
(0.141332 -0.000926176 0)
(0.14158 -0.000806927 0)
(0.141794 -0.000687437 0)
(0.141973 -0.00056781 0)
(0.142119 -0.000448151 0)
(0.142229 -0.000328564 0)
(0.142306 -0.000209152 0)
(0.142348 -9.00182e-05 0)
(0.142356 2.87371e-05 0)
(0.142331 0.000147014 0)
(0.142271 0.000264713 0)
(0.142178 0.00038174 0)
(0.142051 0.000497999 0)
(0.141891 0.000613399 0)
(0.141698 0.000727851 0)
(0.141473 0.000841269 0)
(0.141215 0.000953568 0)
(0.140925 0.00106467 0)
(0.140603 0.00117449 0)
(0.140251 0.00128297 0)
(0.139867 0.00139002 0)
(0.139453 0.00149558 0)
(0.139009 0.00159959 0)
(0.138535 0.001702 0)
(0.138032 0.00180273 0)
(0.137501 0.00190174 0)
(0.136941 0.00199899 0)
(0.136354 0.00209442 0)
(0.13574 0.00218799 0)
(0.135099 0.00227968 0)
(0.134432 0.00236944 0)
(0.13374 0.00245724 0)
(0.133024 0.00254307 0)
(0.132282 0.00262689 0)
(0.131518 0.00270869 0)
(0.13073 0.00278846 0)
(0.129919 0.00286617 0)
(0.129087 0.00294183 0)
(0.128233 0.00301543 0)
(0.127359 0.00308696 0)
(0.126464 0.00315643 0)
(0.12555 0.00322384 0)
(0.124617 0.0032892 0)
(0.123666 0.00335251 0)
(0.122696 0.00341379 0)
(0.12171 0.00347306 0)
(0.120707 0.00353032 0)
(0.119688 0.00358561 0)
(0.118653 0.00363893 0)
(0.117604 0.00369032 0)
(0.11654 0.00373979 0)
(0.115462 0.00378738 0)
(0.114371 0.0038331 0)
(0.113267 0.003877 0)
(0.112151 0.00391911 0)
(0.111024 0.00395944 0)
(0.109885 0.00399804 0)
(0.108735 0.00403495 0)
(0.107575 0.00407019 0)
(0.106405 0.0041038 0)
(0.105226 0.00413582 0)
(0.104038 0.00416629 0)
(0.102842 0.00419524 0)
(0.101637 0.00422271 0)
(0.100425 0.00424874 0)
(0.0992059 0.00427337 0)
(0.0979799 0.00429664 0)
(0.0967475 0.00431859 0)
(0.095509 0.00433925 0)
(0.0942649 0.00435866 0)
(0.0930154 0.00437687 0)
(0.0917609 0.0043939 0)
(0.0905018 0.00440981 0)
(0.0892384 0.00442463 0)
(0.0879709 0.00443839 0)
(0.0866997 0.00445114 0)
(0.085425 0.00446291 0)
(0.0841472 0.00447374 0)
(0.0828664 0.00448366 0)
(0.081583 0.00449272 0)
(0.0802971 0.00450094 0)
(0.079009 0.00450836 0)
(0.077719 0.00451501 0)
(0.0764273 0.00452094 0)
(0.0751339 0.00452617 0)
(0.0738392 0.00453073 0)
(0.0725434 0.00453465 0)
(0.0712465 0.00453798 0)
(0.0699489 0.00454073 0)
(0.0686505 0.00454294 0)
(0.0673516 0.00454464 0)
(0.0660524 0.00454586 0)
(0.0647529 0.00454662 0)
(0.0634533 0.00454695 0)
(0.0621537 0.00454688 0)
(0.0608541 0.00454643 0)
(0.0595548 0.00454564 0)
(0.0582558 0.00454451 0)
(0.0569572 0.00454309 0)
(0.0556591 0.00454138 0)
(0.0543615 0.00453942 0)
(0.0530645 0.00453723 0)
(0.0517683 0.00453482 0)
(0.0504727 0.00453222 0)
(0.049178 0.00452944 0)
(0.0478841 0.00452652 0)
(0.0465911 0.00452345 0)
(0.045299 0.00452027 0)
(0.0440078 0.004517 0)
(0.0427176 0.00451363 0)
(0.0414284 0.00451021 0)
(0.0401402 0.00450673 0)
(0.038853 0.00450321 0)
(0.0375669 0.00449967 0)
(0.0362818 0.00449613 0)
(0.0349977 0.00449259 0)
(0.0337146 0.00448907 0)
(0.0324326 0.00448558 0)
(0.0311515 0.00448214 0)
(0.0298714 0.00447874 0)
(0.0285924 0.00447542 0)
(0.0273142 0.00447216 0)
(0.026037 0.00446899 0)
(0.0247607 0.00446591 0)
(0.0234853 0.00446294 0)
(0.0222107 0.00446007 0)
(0.020937 0.00445733 0)
(0.019664 0.0044547 0)
(0.0183917 0.00445221 0)
(0.0171202 0.00444986 0)
(0.0158493 0.00444765 0)
(0.014579 0.00444559 0)
(0.0133093 0.00444369 0)
(0.0120401 0.00444194 0)
(0.0107715 0.00444036 0)
(0.00950319 0.00443894 0)
(0.00823532 0.0044377 0)
(0.00696777 0.00443662 0)
(0.00570052 0.00443572 0)
(0.00443349 0.004435 0)
(0.00316665 0.00443446 0)
(0.00189994 0.0044341 0)
(0.000633309 0.00443392 0)
(0.000732342 -0.00659345 0)
(0.00219708 -0.00659376 0)
(0.00366193 -0.0065944 0)
(0.00512696 -0.00659537 0)
(0.00659225 -0.00659666 0)
(0.00805787 -0.00659827 0)
(0.0095239 -0.00660019 0)
(0.0109904 -0.0066024 0)
(0.0124574 -0.00660491 0)
(0.0139251 -0.00660769 0)
(0.0153934 -0.00661074 0)
(0.0168624 -0.00661405 0)
(0.0183322 -0.0066176 0)
(0.0198029 -0.00662138 0)
(0.0212744 -0.00662536 0)
(0.0227469 -0.00662953 0)
(0.0242204 -0.00663388 0)
(0.0256949 -0.00663837 0)
(0.0271704 -0.00664299 0)
(0.028647 -0.00664771 0)
(0.0301247 -0.00665251 0)
(0.0316035 -0.00665736 0)
(0.0330835 -0.00666223 0)
(0.0345646 -0.00666709 0)
(0.0360468 -0.00667191 0)
(0.0375301 -0.00667666 0)
(0.0390145 -0.00668131 0)
(0.0405 -0.00668581 0)
(0.0419866 -0.00669014 0)
(0.0434741 -0.00669424 0)
(0.0449626 -0.00669809 0)
(0.046452 -0.00670164 0)
(0.0479422 -0.00670484 0)
(0.0494331 -0.00670766 0)
(0.0509247 -0.00671003 0)
(0.0524169 -0.00671193 0)
(0.0539095 -0.00671329 0)
(0.0554024 -0.00671407 0)
(0.0568955 -0.00671422 0)
(0.0583886 -0.00671367 0)
(0.0598816 -0.00671238 0)
(0.0613743 -0.00671029 0)
(0.0628666 -0.00670734 0)
(0.0643582 -0.00670347 0)
(0.065849 -0.00669862 0)
(0.0673386 -0.00669274 0)
(0.0688269 -0.00668575 0)
(0.0703136 -0.00667759 0)
(0.0717985 -0.0066682 0)
(0.0732813 -0.00665752 0)
(0.0747616 -0.00664548 0)
(0.0762392 -0.00663201 0)
(0.0777138 -0.00661704 0)
(0.0791849 -0.00660051 0)
(0.0806524 -0.00658234 0)
(0.0821157 -0.00656248 0)
(0.0835745 -0.00654085 0)
(0.0850284 -0.00651738 0)
(0.0864769 -0.00649201 0)
(0.0879198 -0.00646467 0)
(0.0893564 -0.00643528 0)
(0.0907864 -0.00640379 0)
(0.0922092 -0.00637013 0)
(0.0936244 -0.00633424 0)
(0.0950315 -0.00629605 0)
(0.0964299 -0.0062555 0)
(0.0978191 -0.00621253 0)
(0.0991986 -0.00616708 0)
(0.100568 -0.0061191 0)
(0.101926 -0.00606854 0)
(0.103273 -0.00601534 0)
(0.104608 -0.00595945 0)
(0.10593 -0.00590083 0)
(0.107239 -0.00583944 0)
(0.108534 -0.00577525 0)
(0.109815 -0.0057082 0)
(0.11108 -0.00563828 0)
(0.112329 -0.00556546 0)
(0.113562 -0.00548971 0)
(0.114778 -0.00541101 0)
(0.115976 -0.00532935 0)
(0.117156 -0.00524473 0)
(0.118316 -0.00515713 0)
(0.119457 -0.00506657 0)
(0.120577 -0.00497303 0)
(0.121676 -0.00487654 0)
(0.122754 -0.00477711 0)
(0.123809 -0.00467476 0)
(0.12484 -0.00456953 0)
(0.125848 -0.00446144 0)
(0.126832 -0.00435053 0)
(0.12779 -0.00423685 0)
(0.128723 -0.00412045 0)
(0.12963 -0.00400138 0)
(0.13051 -0.0038797 0)
(0.131362 -0.00375549 0)
(0.132186 -0.00362881 0)
(0.132982 -0.00349975 0)
(0.133749 -0.00336838 0)
(0.134486 -0.00323479 0)
(0.135193 -0.00309908 0)
(0.13587 -0.00296134 0)
(0.136515 -0.00282168 0)
(0.137129 -0.0026802 0)
(0.137712 -0.00253702 0)
(0.138262 -0.00239224 0)
(0.138779 -0.00224599 0)
(0.139264 -0.00209838 0)
(0.139716 -0.00194954 0)
(0.140134 -0.0017996 0)
(0.140519 -0.00164868 0)
(0.140869 -0.00149692 0)
(0.141186 -0.00134445 0)
(0.141469 -0.00119139 0)
(0.141717 -0.0010379 0)
(0.141931 -0.000884086 0)
(0.14211 -0.000730102 0)
(0.142256 -0.000576077 0)
(0.142366 -0.000422145 0)
(0.142443 -0.00026844 0)
(0.142485 -0.000115095 0)
(0.142492 3.77614e-05 0)
(0.142466 0.000189999 0)
(0.142406 0.000341492 0)
(0.142311 0.000492115 0)
(0.142184 0.000641748 0)
(0.142023 0.000790273 0)
(0.141829 0.000937574 0)
(0.141602 0.00108354 0)
(0.141343 0.00122806 0)
(0.141052 0.00137104 0)