/*--------------------------------*- C++ -*----------------------------------*\
| =========                 |                                                 |
| \\      /  F ield         | OpenFOAM: The Open Source CFD Toolbox           |
|  \\    /   O peration     | Version:  v2012                                 |
|   \\  /    A nd           | Website:  www.openfoam.com                      |
|    \\/     M anipulation  |                                                 |
\*---------------------------------------------------------------------------*/
FoamFile
{
    version     2.0;
    format      ascii;
    class       volVectorField;
    location    "0";
    object      uRec;
}
// * * * * * * * * * * * * * * * * * * * * * * * * * * * * * * * * * * * * * //

dimensions      [0 1 -1 0 0 0 0];


internalField   nonuniform List<vector> 
4000
(
(1 5.10734e-16 0)
(1 1.56649e-15 0)
(1 -9.22829e-16 0)
(1 -5.49546e-16 0)
(1 1.18983e-15 0)
(1 2.57674e-16 0)
(1 2.20577e-15 0)
(1 -1.89351e-15 0)
(1 1.54927e-15 0)
(1 1.52845e-15 0)
(1 -2.4208e-15 0)
(1 2.15989e-16 0)
(1 1.02843e-15 0)
(1 4.38351e-16 0)
(1 -9.57455e-17 0)
(1 2.55071e-16 0)
(1 -1.39083e-15 0)
(1 -1.39104e-15 0)
(1 1.36688e-15 0)
(1 5.44131e-16 0)
(1 3.56834e-17 0)
(1 1.85329e-15 0)
(1 1.94318e-16 0)
(1 2.28791e-15 0)
(1 5.3206e-17 0)
(1 -4.29172e-16 0)
(1 1.35523e-15 0)
(1 -1.44246e-15 0)
(1 -1.57345e-16 0)
(1 -1.53187e-16 0)
(1 1.01693e-15 0)
(1 1.99054e-15 0)
(1 -8.98589e-16 0)
(1 -3.53096e-16 0)
(1 9.79609e-16 0)
(1 -7.84167e-16 0)
(1 -6.50639e-16 0)
(1 1.08283e-15 0)
(1 2.17412e-15 0)
(1 -1.08952e-16 0)
(1 1.4637e-15 0)
(1 -1.36873e-15 0)
(1 -3.71599e-16 0)
(1 5.44161e-16 0)
(1 1.36919e-15 0)
(1 -1.15024e-15 0)
(1 1.01735e-15 0)
(1 1.76509e-16 0)
(1 8.94159e-17 0)
(1 2.35217e-16 0)
(1 -4.93168e-16 0)
(1 1.11437e-15 0)
(1 2.8481e-16 0)
(1 2.41185e-15 0)
(1 1.16484e-15 0)
(1 7.60768e-16 0)
(1 9.23403e-17 0)
(1 -1.17862e-16 0)
(1 1.03997e-15 0)
(1 2.29902e-15 0)
(1 -7.49527e-17 0)
(1 -1.36687e-15 0)
(1 -3.98786e-16 0)
(1 8.46919e-16 0)
(1 5.72463e-16 0)
(1 1.55698e-16 0)
(1 3.22951e-16 0)
(1 -7.30414e-16 0)
(1 8.74627e-16 0)
(1 -7.26069e-16 0)
(1 -4.76366e-16 0)
(1 2.70076e-16 0)
(1 3.25642e-16 0)
(1 -2.7452e-16 0)
(1 -7.8659e-16 0)
(1 -1.62509e-15 0)
(1 -1.34182e-16 0)
(1 -8.6891e-17 0)
(1 7.92752e-16 0)
(1 1.33489e-15 0)
(1 6.40068e-16 0)
(1 1.34353e-15 0)
(1 -5.74137e-16 0)
(1 4.34614e-16 0)
(1 -9.71375e-16 0)
(1 -1.01193e-15 0)
(1 -9.0923e-17 0)
(1 8.65713e-16 0)
(1 1.31864e-15 0)
(1 8.25929e-16 0)
(1 1.94596e-16 0)
(1 -6.53069e-16 0)
(1 8.51982e-16 0)
(1 1.52868e-15 0)
(1 -8.19999e-16 0)
(1 -1.70495e-15 0)
(1 1.36954e-16 0)
(1 1.34349e-15 0)
(1 2.85644e-17 0)
(1 -1.26091e-16 0)
(1 4.21379e-16 0)
(1 3.61882e-15 0)
(1 -8.96716e-16 0)
(1 -1.30056e-15 0)
(1 2.69352e-17 0)
(1 1.21821e-15 0)
(1 2.58498e-15 0)
(1 -1.89357e-15 0)
(1 1.9464e-15 0)
(1 1.56951e-15 0)
(1 -2.97156e-16 0)
(1 6.70256e-16 0)
(1 1.42584e-15 0)
(1 -7.36348e-17 0)
(1 -6.35642e-16 0)
(1 1.77884e-15 0)
(1 -5.77296e-16 0)
(1 -4.85763e-17 0)
(1 2.13526e-15 0)
(1 5.48505e-16 0)
(1 1.09779e-16 0)
(1 9.34425e-16 0)
(1 -5.42645e-16 0)
(1 1.60078e-15 0)
(1 1.37874e-16 0)
(1 1.05692e-15 0)
(1 3.42586e-15 0)
(1 -1.88243e-15 0)
(1 -3.0018e-16 0)
(1 1.13055e-15 0)
(1 2.19604e-16 0)
(1 2.83014e-15 0)
(1 -1.19779e-15 0)
(1 -4.10865e-16 0)
(1 1.83745e-15 0)
(1 -6.77371e-16 0)
(1 7.63928e-16 0)
(1 3.19548e-15 0)
(1 1.91568e-15 0)
(1 -7.76687e-17 0)
(1 -3.058e-16 0)
(1 -1.14157e-15 0)
(1 -1.35048e-15 0)
(1 -1.59532e-17 0)
(1 9.01017e-16 0)
(1 -6.56706e-16 0)
(1 3.51144e-15 0)
(1 3.42959e-15 0)
(1 3.3417e-15 0)
(1 1.74675e-15 0)
(1 7.85878e-16 0)
(1 3.10265e-16 0)
(1 2.54562e-15 0)
(1 2.03152e-15 0)
(1 1.98299e-15 0)
(1 6.69869e-16 0)
(1 1.24007e-15 0)
(1 2.52539e-15 0)
(1 1.31569e-15 0)
(1 -6.22167e-16 0)
(1 5.44502e-16 0)
(1 7.98902e-16 0)
(1 -1.25975e-16 0)
(1 1.25945e-15 0)
(1 3.68757e-16 0)
(1 1.74507e-15 0)
(1 -1.37499e-15 0)
(1 -1.50473e-15 0)
(1 9.70751e-16 0)
(1 -5.77868e-16 0)
(1 -1.07932e-15 0)
(1 6.30602e-16 0)
(1 1.75461e-15 0)
(1 -5.0388e-16 0)
(1 1.00522e-16 0)
(1 -9.67062e-17 0)
(1 8.56179e-16 0)
(1 2.19452e-15 0)
(1 7.42142e-16 0)
(1 2.50941e-15 0)
(1 1.1043e-15 0)
(1 1.23967e-15 0)
(1 2.15298e-15 0)
(1 -8.97024e-17 0)
(1 4.30376e-16 0)
(1 -8.5771e-16 0)
(1 -8.93047e-16 0)
(1 6.62364e-17 0)
(1 1.19354e-15 0)
(1 1.9632e-15 0)
(1 5.20249e-16 0)
(1 -9.77665e-16 0)
(1 2.58332e-15 0)
(1 1.89476e-15 0)
(1 -2.28219e-15 0)
(1 -1.74689e-15 0)
(1 1.17255e-15 0)
(1 6.97731e-16 0)
(1 -3.58099e-16 0)
(1 -3.09372e-16 0)
(1 1.02513e-17 0)
(1 2.507e-15 0)
(1 -9.8323e-17 0)
(1 -1.89989e-16 0)
(1 2.08789e-16 0)
(1 1.41375e-15 0)
(1 2.60848e-15 0)
(1 4.83195e-15 0)
(1 -1.116e-15 0)
(1 -7.48138e-16 0)
(1 1.25887e-15 0)
(1 3.05337e-15 0)
(1 2.62486e-15 0)
(1 2.28449e-16 0)
(1 3.82261e-16 0)
(1 1.1942e-15 0)
(1 1.65963e-15 0)
(1 2.37357e-15 0)
(1 7.79197e-16 0)
(1 2.1322e-15 0)
(1 6.92566e-16 0)
(1 -6.5956e-16 0)
(1 -2.93264e-17 0)
(1 4.97323e-16 0)
(1 3.49922e-15 0)
(1 3.7555e-15 0)
(1 3.48948e-15 0)
(1 -1.10082e-15 0)
(1 -7.64561e-17 0)
(1 1.62801e-15 0)
(1 1.31255e-15 0)
(1 -6.24932e-16 0)
(1 1.01583e-15 0)
(1 1.52304e-15 0)
(1 4.05854e-16 0)
(1 7.4114e-16 0)
(1 6.66672e-17 0)
(1 3.10107e-15 0)
(1 3.32537e-15 0)
(1 -5.1834e-16 0)
(1 -3.31492e-16 0)
(1 5.8009e-16 0)
(1 -4.50471e-16 0)
(1 -8.27864e-16 0)
(1 4.00655e-16 0)
(1 7.4091e-16 0)
(1 1.2833e-15 0)
(1 4.56793e-15 0)
(1 5.22833e-15 0)
(1 3.84659e-15 0)
(1 3.86775e-15 0)
(1 1.91801e-15 0)
(1 4.04064e-15 0)
(1 1.15247e-16 0)
(1 2.37948e-15 0)
(1 8.25079e-16 0)
(1 2.77078e-15 0)
(1 3.25887e-15 0)
(1 3.97935e-15 0)
(1 7.69812e-16 0)
(1 2.88325e-16 0)
(1 1.61707e-15 0)
(1 1.3272e-15 0)
(1 -8.9869e-16 0)
(1 -1.00834e-16 0)
(1 9.25884e-16 0)
(1 -6.40756e-16 0)
(1 6.0088e-16 0)
(1 1.82176e-15 0)
(1 8.57875e-16 0)
(1 1.05734e-15 0)
(1 9.31619e-16 0)
(1 2.36426e-16 0)
(1 -1.54024e-15 0)
(1 5.10825e-17 0)
(1 3.72329e-16 0)
(1 9.79572e-16 0)
(1 1.74493e-15 0)
(1 1.86911e-15 0)
(1 6.606e-16 0)
(1 -2.45672e-16 0)
(1 8.72995e-16 0)
(1 2.55378e-15 0)
(1 6.25579e-16 0)
(1 9.34582e-16 0)
(1 9.75362e-16 0)
(1 -6.16722e-16 0)
(1 -3.9488e-17 0)
(1 6.24825e-16 0)
(1 2.52277e-15 0)
(1 1.34887e-15 0)
(1 6.64042e-16 0)
(1 5.73193e-16 0)
(1 1.64582e-15 0)
(1 -6.99596e-16 0)
(1 -1.19377e-16 0)
(1 1.65606e-15 0)
(1 -1.59313e-15 0)
(1 2.16766e-16 0)
(1 1.79895e-16 0)
(1 1.65828e-16 0)
(1 2.08479e-15 0)
(1 1.45387e-15 0)
(1 -5.76941e-16 0)
(1 1.66174e-15 0)
(1 -2.86659e-16 0)
(1 2.64263e-15 0)
(1 5.3837e-15 0)
(1 1.1185e-15 0)
(1 5.17311e-16 0)
(1 4.38007e-17 0)
(1 5.30977e-15 0)
(1 8.03328e-16 0)
(1 2.81823e-16 0)
(1 4.09764e-15 0)
(1 -4.25722e-16 0)
(1 2.48754e-15 0)
(1 2.53237e-16 0)
(1 -1.22951e-15 0)
(1 5.28556e-15 0)
(1 3.59401e-16 0)
(1 2.30902e-15 0)
(1 1.37934e-15 0)
(1 1.54941e-15 0)
(1 5.3076e-15 0)
(1 3.46408e-15 0)
(1 3.02301e-15 0)
(1 7.01156e-16 0)
(1 9.48891e-16 0)
(1 2.75977e-15 0)
(1 1.21451e-15 0)
(1 8.64496e-16 0)
(1 1.11032e-15 0)
(1 2.75927e-15 0)
(1 1.27313e-15 0)
(1 7.33443e-16 0)
(1 -4.53313e-16 0)
(1 2.45775e-16 0)
(1 3.60555e-15 0)
(1 2.09467e-15 0)
(1 2.96974e-15 0)
(1 8.0402e-16 0)
(1 -4.92318e-16 0)
(1 5.63776e-16 0)
(1 1.92933e-15 0)
(1 2.9282e-15 0)
(1 1.71896e-15 0)
(1 3.99524e-15 0)
(1 5.08107e-15 0)
(1 4.90337e-15 0)
(1 5.15683e-15 0)
(1 3.32598e-15 0)
(1 2.8688e-15 0)
(1 2.37691e-15 0)
(1 3.46067e-15 0)
(1 2.32066e-15 0)
(1 3.66998e-15 0)
(1 4.2086e-15 0)
(1 3.8524e-15 0)
(1 4.85543e-15 0)
(1 2.32882e-15 0)
(1 -2.51829e-16 0)
(1 3.37716e-18 0)
(1 7.89088e-16 0)
(1 -8.00499e-16 0)
(1 2.02356e-16 0)
(1 -4.07432e-16 0)
(1 2.91981e-15 0)
(1 8.84116e-16 0)
(1 6.72777e-16 0)
(1 1.38654e-15 0)
(1 2.85647e-16 0)
(1 -2.7089e-16 0)
(1 -6.35306e-16 0)
(1 -1.03657e-15 0)
(1 8.00437e-16 0)
(1 3.1072e-15 0)
(1 1.22978e-15 0)
(1 3.27396e-15 0)
(1 2.85839e-15 0)
(1 -5.6579e-16 0)
(1 2.88117e-15 0)
(1 1.28934e-15 0)
(1 1.97669e-15 0)
(1 1.84597e-15 0)
(1 1.42763e-16 0)
(1 1.54567e-15 0)
(1 2.33081e-16 0)
(1 1.6943e-15 0)
(1 2.10744e-15 0)
(1 5.19644e-16 0)
(1 2.06745e-15 0)
(1 9.03095e-16 0)
(1 2.01171e-15 0)
(1 1.63523e-15 0)
(1 5.12662e-16 0)
(1 5.16037e-16 0)
(1 5.13334e-16 0)
(1 -1.23523e-15 0)
(1 -1.28092e-15 0)
(1 8.21535e-16 0)
(1 -2.42285e-17 0)
(1 2.0324e-15 0)
(1 -3.59373e-16 0)
(1 1.08626e-15 0)
(1 2.23368e-15 0)
(1 1.64602e-15 0)
(1 1.63844e-15 0)
(1 5.82121e-15 0)
(1 3.69448e-15 0)
(1 2.88481e-15 0)
(1 4.15946e-15 0)
(1 1.79554e-16 0)
(1 -9.45356e-16 0)
(1 2.6453e-15 0)
(1 2.28248e-15 0)
(1 4.89382e-15 0)
(1 3.32941e-15 0)
(1 1.4978e-15 0)
(1 4.69503e-16 0)
(1 7.21714e-16 0)
(1 2.0375e-15 0)
(1 3.58491e-15 0)
(1 4.72129e-15 0)
(1 1.53917e-15 0)
(1 9.76286e-16 0)
(1 7.15436e-16 0)
(1 2.15666e-15 0)
(1 2.05375e-15 0)
(1 4.65878e-16 0)
(1 1.89748e-15 0)
(1 3.34083e-15 0)
(1 1.60192e-16 0)
(1 3.9248e-15 0)
(1 1.65953e-16 0)
(1 -4.91302e-16 0)
(1 9.85964e-16 0)
(1 5.38427e-16 0)
(1 2.46811e-15 0)
(1 4.1712e-15 0)
(1 3.28819e-15 0)
(1 1.67089e-15 0)
(1 -9.16518e-16 0)
(1 1.67333e-15 0)
(1 5.89413e-16 0)
(1 4.61588e-15 0)
(1 5.63848e-15 0)
(1 6.76507e-15 0)
(1 5.35886e-15 0)
(1 4.102e-15 0)
(1 4.50207e-15 0)
(1 2.79844e-15 0)
(1 2.57236e-15 0)
(1 4.34647e-15 0)
(1 4.74563e-15 0)
(1 4.44755e-15 0)
(1 3.54997e-15 0)
(1 3.74703e-15 0)
(1 1.07623e-15 0)
(1 9.87063e-16 0)
(1 4.42993e-15 0)
(1 1.35267e-15 0)
(1 1.99967e-15 0)
(1 1.48562e-15 0)
(1 1.00774e-15 0)
(1 1.19297e-15 0)
(1 8.36522e-16 0)
(1 2.80195e-15 0)
(1 -2.29342e-16 0)
(1 2.34161e-15 0)
(1 2.99197e-16 0)
(1 6.11102e-16 0)
(1 2.58345e-15 0)
(1 1.01626e-15 0)
(1 3.25971e-16 0)
(1 1.3282e-15 0)
(1 3.38787e-15 0)
(1 3.75431e-15 0)
(1 3.21179e-15 0)
(1 1.74747e-15 0)
(1 1.18245e-15 0)
(1 1.84227e-15 0)
(1 1.74796e-15 0)
(1 1.23683e-15 0)
(1 2.95778e-15 0)
(1 3.62016e-16 0)
(1 2.00861e-15 0)
(1 1.04997e-15 0)
(1 6.13789e-16 0)
(1 1.62926e-15 0)
(1 1.12381e-15 0)
(1 1.49075e-15 0)
(1 2.94732e-15 0)
(1 1.52357e-15 0)
(1 2.93488e-15 0)
(1 1.53271e-15 0)
(1 1.30101e-17 0)
(1 1.1315e-15 0)
(1 -2.08495e-15 0)
(1 -1.02617e-15 0)
(1 1.90689e-16 0)
(1 -2.13318e-15 0)
(1 2.19393e-15 0)
(1 2.25936e-15 0)
(1 1.48686e-15 0)
(1 2.89457e-15 0)
(1 1.59872e-15 0)
(1 3.54433e-15 0)
(1 4.12096e-15 0)
(1 4.56018e-15 0)
(1 5.93107e-15 0)
(1 2.73697e-15 0)
(1 2.79191e-16 0)
(1 2.16621e-15 0)
(1 2.12319e-15 0)
(1 2.9902e-15 0)
(1 1.69742e-15 0)
(1 2.50121e-15 0)
(1 2.43051e-15 0)
(1 -9.70132e-18 0)
(1 2.67513e-15 0)
(1 3.817e-16 0)
(1 5.89514e-15 0)
(1 4.45883e-15 0)
(1 1.77375e-15 0)
(1 3.67048e-15 0)
(1 2.22575e-15 0)
(1 1.35896e-15 0)
(1 5.6265e-16 0)
(1 6.94715e-16 0)
(1 7.7073e-16 0)
(1 1.79361e-15 0)
(1 1.6476e-15 0)
(1 3.22737e-15 0)
(1 -4.55182e-16 0)
(1 2.46164e-15 0)
(1 4.38485e-15 0)
(1 4.30228e-15 0)
(1 2.31315e-15 0)
(1 1.97114e-15 0)
(1 3.59064e-15 0)
(1 2.75239e-15 0)
(1 1.10402e-15 0)
(1 6.04913e-16 0)
(1 2.88041e-15 0)
(1 4.36177e-15 0)
(1 4.06748e-15 0)
(1 6.33159e-15 0)
(1 6.76372e-15 0)
(1 6.11265e-15 0)
(1 3.91177e-15 0)
(1 4.08812e-15 0)
(1 4.98059e-15 0)
(1 5.31557e-15 0)
(1 4.14862e-15 0)
(1 4.7377e-15 0)
(1 5.24756e-15 0)
(1 4.9864e-15 0)
(1 4.8824e-15 0)
(1 5.20859e-15 0)
(1 3.89289e-15 0)
(1 1.13087e-15 0)
(1 1.35097e-15 0)
(1 2.11938e-16 0)
(1 2.48778e-15 0)
(1 1.97437e-15 0)
(1 4.5095e-15 0)
(1 2.50915e-15 0)
(1 2.1356e-15 0)
(1 1.65698e-15 0)
(1 2.00047e-15 0)
(1 1.93306e-15 0)
(1 3.13179e-15 0)
(1 8.9504e-16 0)
(1 9.64656e-17 0)
(1 7.86043e-16 0)
(1 2.28128e-15 0)
(1 5.039e-15 0)
(1 2.11283e-15 0)
(1 8.49987e-16 0)
(1 2.21895e-15 0)
(1 3.25624e-15 0)
(1 1.7885e-15 0)
(1 2.77642e-15 0)
(1 2.07918e-15 0)
(1 1.19833e-15 0)
(1 1.08749e-15 0)
(1 -4.60461e-16 0)
(1 -1.55749e-17 0)
(1 1.6937e-15 0)
(1 2.26322e-15 0)
(1 1.98466e-15 0)
(1 3.32834e-15 0)
(1 3.62175e-15 0)
(1 4.59112e-15 0)
(1 3.38374e-15 0)
(1 1.25237e-15 0)
(1 -1.13404e-15 0)
(1 7.6073e-16 0)
(1 1.4685e-15 0)
(1 -5.46695e-16 0)
(1 7.72637e-18 0)
(1 3.25795e-15 0)
(1 7.71603e-16 0)
(1 3.12645e-15 0)
(1 2.98927e-16 0)
(1 1.2476e-15 0)
(1 5.8211e-15 0)
(1 2.86574e-15 0)
(1 4.21399e-15 0)
(1 5.43898e-15 0)
(1 1.6398e-15 0)
(1 2.0382e-15 0)
(1 4.4698e-15 0)
(1 3.09173e-15 0)
(1 5.73746e-15 0)
(1 4.29666e-15 0)
(1 1.35534e-15 0)
(1 2.30555e-15 0)
(1 3.54409e-15 0)
(1 3.42112e-15 0)
(1 -2.41797e-15 0)
(1 4.57455e-15 0)
(1 2.54275e-16 0)
(1 3.56628e-15 0)
(1 2.52218e-15 0)
(1 1.57965e-15 0)
(1 1.60184e-15 0)
(1 2.25102e-15 0)
(1 4.18048e-15 0)
(1 1.93124e-15 0)
(1 2.38e-15 0)
(1 3.16153e-15 0)
(1 7.51405e-16 0)
(1 1.29026e-15 0)
(1 4.69279e-15 0)
(1 4.68122e-15 0)
(1 3.93749e-15 0)
(1 -1.66675e-16 0)
(1 2.45654e-15 0)
(1 2.51456e-15 0)
(1 1.41296e-15 0)
(1 4.14873e-15 0)
(1 2.48208e-15 0)
(1 4.64675e-15 0)
(1 4.94457e-15 0)
(1 5.8059e-15 0)
(1 4.56661e-15 0)
(1 5.50447e-15 0)
(1 7.03875e-15 0)
(1 4.85789e-15 0)
(1 4.59257e-15 0)
(1 5.51518e-15 0)
(1 6.7613e-15 0)
(1 4.54348e-15 0)
(1 3.98722e-15 0)
(1 4.30065e-15 0)
(1 5.4594e-15 0)
(1 5.5684e-15 0)
(1 5.76205e-15 0)
(1 1.91146e-15 0)
(1 3.04927e-15 0)
(1 1.58552e-15 0)
(1 2.31211e-15 0)
(1 1.44946e-15 0)
(1 6.3774e-16 0)
(1 7.25347e-16 0)
(1 3.1261e-15 0)
(1 2.96594e-15 0)
(1 5.2149e-16 0)
(1 3.86984e-15 0)
(1 3.63515e-15 0)
(1 1.37463e-15 0)
(1 1.02362e-15 0)
(1 1.18813e-15 0)
(1 3.8327e-15 0)
(1 2.6271e-15 0)
(1 4.37588e-15 0)
(1 3.24162e-15 0)
(1 3.12731e-15 0)
(1 3.43369e-15 0)
(1 3.45063e-15 0)
(1 3.32452e-15 0)
(1 2.90134e-15 0)
(1 2.25977e-15 0)
(1 3.00457e-15 0)
(1 1.67886e-15 0)
(1 2.03307e-15 0)
(1 2.71789e-15 0)
(1 1.7435e-15 0)
(1 2.31846e-15 0)
(1 3.38149e-15 0)
(1 4.22953e-15 0)
(1 3.98271e-15 0)
(1 2.74755e-15 0)
(1 3.78131e-15 0)
(1 1.24927e-15 0)
(1 1.6769e-16 0)
(1 1.85039e-15 0)
(1 9.46478e-16 0)
(1 -6.36582e-16 0)
(1 8.17175e-16 0)
(1 8.38708e-16 0)
(1 1.49457e-15 0)
(1 3.25858e-15 0)
(1 2.19459e-15 0)
(1 1.28192e-15 0)
(1 3.30763e-15 0)
(1 6.00121e-15 0)
(1 7.16812e-15 0)
(1 4.63046e-15 0)
(1 -6.16388e-16 0)
(1 4.04368e-15 0)
(1 2.08829e-15 0)
(1 3.31446e-15 0)
(1 6.0168e-15 0)
(1 4.30497e-15 0)
(1 6.68834e-15 0)
(1 4.84463e-15 0)
(1 5.68529e-16 0)
(1 1.11333e-15 0)
(1 -1.48047e-15 0)
(1 1.32803e-15 0)
(1 2.3308e-15 0)
(1 2.04945e-15 0)
(1 -1.34544e-15 0)
(1 -9.88148e-16 0)
(1 2.03434e-15 0)
(1 2.61656e-15 0)
(1 4.53162e-15 0)
(1 7.29271e-15 0)
(1 3.26445e-15 0)
(1 3.11526e-15 0)
(1 8.19967e-17 0)
(1 1.35145e-15 0)
(1 1.98308e-15 0)
(1 1.76615e-15 0)
(1 2.97035e-15 0)
(1 3.76445e-15 0)
(1 6.30472e-15 0)
(1 2.54641e-15 0)
(1 2.8607e-15 0)
(1 5.90033e-15 0)
(1 3.2732e-15 0)
(1 2.98015e-15 0)
(1 6.26752e-15 0)
(1 7.52262e-15 0)
(1 7.03981e-15 0)
(1 3.04142e-15 0)
(1 5.34394e-15 0)
(1 6.89715e-15 0)
(1 6.15545e-15 0)
(1 3.37737e-15 0)
(1 6.83215e-15 0)
(1 7.59323e-15 0)
(1 8.22894e-15 0)
(1 4.70045e-15 0)
(1 3.35153e-15 0)
(1 6.0986e-15 0)
(1 2.60986e-15 0)
(1 5.48082e-16 0)
(1 4.18453e-15 0)
(1 5.24494e-15 0)
(1 4.70089e-15 0)
(1 2.41716e-15 0)
(1 2.98728e-15 0)
(1 2.94268e-15 0)
(1 9.32539e-16 0)
(1 3.01869e-15 0)
(1 2.94257e-15 0)
(1 4.10557e-15 0)
(1 3.44e-15 0)
(1 2.41585e-15 0)
(1 1.11022e-15 0)
(1 2.26207e-15 0)
(1 5.33801e-15 0)
(1 3.58265e-15 0)
(1 2.37329e-15 0)
(1 2.4345e-15 0)
(1 1.73569e-15 0)
(1 3.90675e-15 0)
(1 1.91298e-15 0)
(1 3.7675e-15 0)
(1 3.97274e-15 0)
(1 2.74156e-16 0)
(1 2.59043e-15 0)
(1 2.83184e-15 0)
(1 4.20503e-15 0)
(1 3.92488e-15 0)
(1 -5.76898e-17 0)
(1 1.59272e-15 0)
(1 3.667e-15 0)
(1 3.7867e-15 0)
(1 4.27129e-15 0)
(1 3.75013e-15 0)
(1 3.74461e-15 0)
(1 2.90096e-16 0)
(1 6.1325e-16 0)
(1 2.05258e-15 0)
(1 1.87951e-15 0)
(1 -2.27881e-16 0)
(1 8.79304e-16 0)
(1 -3.84294e-16 0)
(1 1.60215e-15 0)
(1 9.41633e-16 0)
(1 4.36867e-15 0)
(1 2.14245e-15 0)
(1 3.84172e-16 0)
(1 5.31339e-15 0)
(1 5.00155e-15 0)
(1 4.33541e-15 0)
(1 3.32901e-15 0)
(1 3.46362e-15 0)
(1 4.59177e-15 0)
(1 4.33953e-15 0)
(1 4.85501e-15 0)
(1 3.82417e-15 0)
(1 6.03462e-15 0)
(1 5.99956e-15 0)
(1 7.53678e-16 0)
(1 -1.83687e-15 0)
(1 2.21365e-15 0)
(1 4.84168e-16 0)
(1 3.10994e-15 0)
(1 1.91282e-15 0)
(1 -5.30701e-16 0)
(1 1.84987e-15 0)
(1 -6.34417e-16 0)
(1 1.11212e-15 0)
(1 4.28371e-15 0)
(1 5.0275e-15 0)
(1 2.08295e-15 0)
(1 4.09947e-15 0)
(1 3.09306e-15 0)
(1 1.4033e-15 0)
(1 2.35839e-15 0)
(1 2.39173e-15 0)
(1 4.75329e-15 0)
(1 4.67832e-15 0)
(1 4.76078e-15 0)
(1 2.04625e-15 0)
(1 4.69224e-15 0)
(1 5.41732e-15 0)
(1 4.52671e-15 0)
(1 6.92235e-15 0)
(1 3.96683e-15 0)
(1 6.10216e-15 0)
(1 5.67907e-15 0)
(1 2.81454e-15 0)
(1 4.44491e-15 0)
(1 6.2854e-15 0)
(1 7.81632e-15 0)
(1 5.04864e-15 0)
(1 7.17372e-15 0)
(1 8.90011e-15 0)
(1 7.88181e-15 0)
(1 7.84501e-15 0)
(1 3.88603e-15 0)
(1 7.18468e-15 0)
(1 3.64413e-15 0)
(1 5.02611e-15 0)
(1 3.99063e-15 0)
(1 2.27112e-15 0)
(1 5.11402e-15 0)
(1 -8.61161e-16 0)
(1 3.7473e-15 0)
(1 4.05226e-15 0)
(1 5.73541e-16 0)
(1 6.11097e-15 0)
(1 5.17385e-15 0)
(1 5.32408e-15 0)
(1 1.95944e-15 0)
(1 3.34518e-15 0)
(1 2.01021e-15 0)
(1 1.6877e-15 0)
(1 4.33772e-15 0)
(1 3.20213e-15 0)
(1 2.7493e-15 0)
(1 2.23056e-15 0)
(1 5.26251e-15 0)
(1 4.79822e-15 0)
(1 5.58847e-15 0)
(1 2.667e-15 0)
(1 4.00889e-15 0)
(1 4.5846e-16 0)
(1 7.97565e-16 0)
(1 1.6207e-15 0)
(1 2.78262e-15 0)
(1 2.87748e-15 0)
(1 2.67706e-15 0)
(1 2.38534e-15 0)
(1 3.53376e-15 0)
(1 4.39595e-15 0)
(1 5.68312e-15 0)
(1 6.01004e-15 0)
(1 4.42073e-15 0)
(1 2.39138e-15 0)
(1 1.2067e-15 0)
(1 3.57469e-15 0)
(1 3.6059e-15 0)
(1 5.42934e-16 0)
(1 8.81363e-16 0)
(1 1.7244e-15 0)
(1 3.29422e-16 0)
(1 2.15866e-15 0)
(1 1.01673e-15 0)
(1 3.69834e-15 0)
(1 3.7855e-15 0)
(1 4.13168e-15 0)
(1 4.23883e-15 0)
(1 3.06734e-15 0)
(1 8.68293e-15 0)
(1 4.63587e-15 0)
(1 4.43514e-15 0)
(1 4.27845e-15 0)
(1 2.43422e-15 0)
(1 2.56775e-15 0)
(1 3.43162e-15 0)
(1 3.33677e-15 0)
(1 4.1212e-15 0)
(1 9.22516e-16 0)
(1 2.37199e-15 0)
(1 -1.1725e-15 0)
(1 8.40524e-16 0)
(1 3.29043e-15 0)
(1 3.39147e-15 0)
(1 1.2851e-15 0)
(1 2.61075e-16 0)
(1 2.87337e-15 0)
(1 1.15773e-15 0)
(1 1.17657e-15 0)
(1 4.20457e-15 0)
(1 4.15998e-15 0)
(1 4.50396e-15 0)
(1 4.47156e-15 0)
(1 2.65966e-15 0)
(1 5.25947e-16 0)
(1 2.15954e-15 0)
(1 1.49175e-15 0)
(1 1.40491e-15 0)
(1 2.52122e-15 0)
(1 5.86187e-15 0)
(1 5.56813e-15 0)
(1 6.73234e-15 0)
(1 8.62437e-15 0)
(1 5.06235e-15 0)
(1 4.8601e-15 0)
(1 4.41393e-15 0)
(1 6.14239e-15 0)
(1 6.70706e-15 0)
(1 4.80108e-15 0)
(1 4.16334e-15 0)
(1 6.75555e-15 0)
(1 7.87033e-15 0)
(1 9.43868e-15 0)
(1 7.21084e-15 0)
(1 5.44134e-15 0)
(1 2.88835e-15 0)
(1 5.3713e-15 0)
(1 5.5376e-15 0)
(1 6.49816e-15 0)
(1 7.09316e-15 0)
(1 4.15539e-15 0)
(1 4.16321e-15 0)
(1 3.94288e-15 0)
(1 1.39356e-15 0)
(1 3.45935e-15 0)
(1 3.22227e-15 0)
(1 4.70685e-15 0)
(1 4.74411e-15 0)
(1 5.3297e-15 0)
(1 3.51908e-15 0)
(1 2.47853e-15 0)
(1 2.48421e-15 0)
(1 2.92926e-15 0)
(1 3.14235e-15 0)
(1 3.92921e-15 0)
(1 2.58605e-15 0)
(1 3.89169e-15 0)
(1 3.99234e-15 0)
(1 4.82118e-15 0)
(1 4.33661e-15 0)
(1 2.8379e-15 0)
(1 3.26373e-15 0)
(1 1.69537e-15 0)
(1 1.42577e-15 0)
(1 3.32298e-15 0)
(1 3.35309e-15 0)
(1 2.06263e-15 0)
(1 3.12781e-15 0)
(1 5.44671e-15 0)
(1 2.80325e-15 0)
(1 4.9615e-15 0)
(1 1.71113e-15 0)
(1 6.69379e-15 0)
(1 3.56318e-15 0)
(1 2.98579e-15 0)
(1 4.23732e-15 0)
(1 4.00321e-15 0)
(1 3.55773e-15 0)
(1 2.56079e-16 0)
(1 -8.6873e-17 0)
(1 1.92843e-15 0)
(1 2.79809e-15 0)
(1 1.23456e-15 0)
(1 -2.20746e-16 0)
(1 4.50894e-15 0)
(1 3.77832e-15 0)
(1 4.95056e-15 0)
(1 5.05282e-15 0)
(1 1.73097e-15 0)
(1 6.13631e-15 0)
(1 2.74048e-15 0)
(1 4.13787e-15 0)
(1 3.21236e-15 0)
(1 1.2738e-15 0)
(1 3.0724e-15 0)
(1 3.57939e-15 0)
(1 4.60081e-15 0)
(1 4.07835e-15 0)
(1 4.81858e-16 0)
(1 1.35969e-15 0)
(1 -1.43656e-15 0)
(1 1.50185e-15 0)
(1 -1.12824e-15 0)
(1 7.21369e-15 0)
(1 5.9394e-15 0)
(1 5.32842e-15 0)
(1 3.79435e-15 0)
(1 -1.17433e-15 0)
(1 -4.22508e-16 0)
(1 2.25049e-15 0)
(1 1.87162e-15 0)
(1 2.91609e-15 0)
(1 5.07315e-15 0)
(1 1.56355e-15 0)
(1 2.50015e-15 0)
(1 -1.2121e-16 0)
(1 1.29203e-15 0)
(1 2.5949e-15 0)
(1 6.84339e-15 0)
(1 5.44163e-15 0)
(1 4.46688e-15 0)
(1 4.86427e-15 0)
(1 6.31408e-15 0)
(1 6.5042e-15 0)
(1 5.04974e-15 0)
(1 5.331e-15 0)
(1 9.09707e-15 0)
(1 6.41195e-15 0)
(1 4.83724e-15 0)
(1 5.15323e-15 0)
(1 7.98737e-15 0)
(1 8.98774e-15 0)
(1 9.11814e-15 0)
(1 7.38989e-15 0)
(1 7.2668e-15 0)
(1 4.499e-15 0)
(1 6.72458e-15 0)
(1 4.73567e-15 0)
(1 5.65566e-15 0)
(1 5.03223e-15 0)
(1 4.67496e-15 0)
(1 3.059e-15 0)
(1 5.81778e-15 0)
(1 4.17898e-15 0)
(1 3.25603e-15 0)
(1 4.00717e-15 0)
(1 -3.15646e-16 0)
(1 1.95125e-15 0)
(1 4.0202e-15 0)
(1 4.72859e-15 0)
(1 3.38228e-15 0)
(1 3.16648e-15 0)
(1 1.81681e-15 0)
(1 1.11927e-16 0)
(1 5.78908e-15 0)
(1 3.25649e-15 0)
(1 1.74475e-15 0)
(1 3.22872e-15 0)
(1 5.97922e-15 0)
(1 4.55559e-15 0)
(1 7.85204e-15 0)
(1 3.21834e-15 0)
(1 2.17389e-15 0)
(1 3.37348e-15 0)
(1 3.38684e-15 0)
(1 1.53732e-15 0)
(1 1.68759e-15 0)
(1 7.57811e-16 0)
(1 6.76042e-15 0)
(1 3.30058e-15 0)
(1 3.64662e-15 0)
(1 3.12021e-15 0)
(1 4.36434e-15 0)
(1 4.59562e-15 0)
(1 3.73426e-15 0)
(1 5.33253e-15 0)
(1 2.07979e-15 0)
(1 1.97783e-15 0)
(1 -1.01272e-16 0)
(1 8.65341e-16 0)
(1 1.37864e-15 0)
(1 3.13195e-15 0)
(1 -1.17567e-16 0)
(1 3.0285e-15 0)
(1 1.05695e-15 0)
(1 3.15852e-15 0)
(1 4.30645e-15 0)
(1 5.06092e-15 0)
(1 5.05133e-15 0)
(1 1.44994e-15 0)
(1 1.43586e-15 0)
(1 3.58975e-15 0)
(1 4.56091e-15 0)
(1 3.92172e-15 0)
(1 3.94884e-15 0)
(1 1.58847e-15 0)
(1 5.07649e-15 0)
(1 2.98556e-15 0)
(1 1.1761e-15 0)
(1 2.72669e-15 0)
(1 1.58464e-15 0)
(1 2.80698e-16 0)
(1 1.37548e-15 0)
(1 1.67142e-15 0)
(1 4.32781e-15 0)
(1 3.59427e-15 0)
(1 3.81707e-15 0)
(1 9.46121e-16 0)
(1 2.58332e-15 0)
(1 3.24702e-15 0)
(1 3.23321e-16 0)
(1 3.73442e-16 0)
(1 2.27215e-16 0)
(1 1.9082e-15 0)
(1 3.62486e-15 0)
(1 -4.22321e-17 0)
(1 2.78237e-15 0)
(1 3.69453e-15 0)
(1 6.61199e-15 0)
(1 4.00202e-15 0)
(1 1.83701e-15 0)
(1 5.16113e-15 0)
(1 7.69669e-15 0)
(1 6.19554e-15 0)
(1 7.46594e-15 0)
(1 3.90013e-15 0)
(1 6.32578e-15 0)
(1 6.48653e-15 0)
(1 5.63196e-15 0)
(1 7.1291e-15 0)
(1 7.83704e-15 0)
(1 8.82291e-15 0)
(1 7.92181e-15 0)
(1 2.94453e-15 0)
(1 5.43484e-15 0)
(1 6.05892e-15 0)
(1 5.99924e-15 0)
(1 4.59817e-15 0)
(1 6.81519e-15 0)
(1 5.94255e-15 0)
(1 6.90111e-15 0)
(1 4.60645e-15 0)
(1 2.32231e-15 0)
(1 3.67203e-15 0)
(1 2.21708e-15 0)
(1 3.19269e-15 0)
(1 2.65431e-15 0)
(1 1.64914e-15 0)
(1 4.78438e-15 0)
(1 3.69882e-15 0)
(1 6.6747e-16 0)
(1 2.76752e-15 0)
(1 3.70722e-15 0)
(1 1.29691e-15 0)
(1 3.58308e-15 0)
(1 2.76776e-15 0)
(1 2.03907e-15 0)
(1 4.76711e-15 0)
(1 6.76312e-15 0)
(1 4.66933e-15 0)
(1 5.56139e-15 0)
(1 1.76272e-15 0)
(1 3.40439e-15 0)
(1 5.27769e-15 0)
(1 1.52006e-15 0)
(1 1.6779e-15 0)
(1 2.50268e-15 0)
(1 5.6605e-15 0)
(1 5.57091e-15 0)
(1 3.9933e-15 0)
(1 2.18224e-15 0)
(1 4.40324e-15 0)
(1 3.11645e-15 0)
(1 5.94793e-15 0)
(1 5.1131e-15 0)
(1 4.48475e-15 0)
(1 1.70744e-15 0)
(1 5.00126e-16 0)
(1 7.52505e-16 0)
(1 9.28866e-16 0)
(1 7.30466e-16 0)
(1 8.9112e-16 0)
(1 3.0813e-15 0)
(1 2.8287e-15 0)
(1 2.69346e-15 0)
(1 3.10334e-15 0)
(1 2.02858e-15 0)
(1 5.39808e-15 0)
(1 7.11478e-15 0)
(1 2.93337e-15 0)
(1 2.39217e-15 0)
(1 1.76963e-15 0)
(1 4.04023e-15 0)
(1 1.52854e-15 0)
(1 5.60684e-16 0)
(1 5.56018e-16 0)
(1 3.91724e-15 0)
(1 3.04047e-15 0)
(1 5.31862e-15 0)
(1 5.32734e-15 0)
(1 1.8665e-15 0)
(1 -2.9087e-15 0)
(1 6.39604e-15 0)
(1 8.80417e-16 0)
(1 -4.75545e-16 0)
(1 7.65336e-16 0)
(1 1.8859e-15 0)
(1 3.27388e-15 0)
(1 1.09389e-15 0)
(1 3.30045e-15 0)
(1 -2.51037e-16 0)
(1 -1.95305e-16 0)
(1 3.46111e-15 0)
(1 2.37231e-15 0)
(1 3.3487e-15 0)
(1 4.11436e-16 0)
(1 2.84339e-15 0)
(1 4.49216e-15 0)
(1 3.99526e-15 0)
(1 4.82529e-15 0)
(1 1.44556e-15 0)
(1 5.56211e-15 0)
(1 4.30441e-15 0)
(1 7.30749e-15 0)
(1 7.86154e-15 0)
(1 5.85549e-15 0)
(1 3.2259e-15 0)
(1 5.82204e-15 0)
(1 6.48811e-15 0)
(1 6.18107e-15 0)
(1 9.44618e-15 0)
(1 9.17973e-15 0)
(1 6.83583e-15 0)
(1 6.99352e-15 0)
(1 4.72021e-15 0)
(1 7.29093e-15 0)
(1 1.99585e-15 0)
(1 4.50353e-15 0)
(1 3.43872e-15 0)
(1 5.31071e-15 0)
(1 5.74664e-15 0)
(1 5.6087e-15 0)
(1 4.7393e-15 0)
(1 3.12492e-15 0)
(1 4.15396e-15 0)
(1 3.20869e-15 0)
(1 2.50831e-15 0)
(1 2.22959e-15 0)
(1 -6.8135e-16 0)
(1 2.42725e-15 0)
(1 2.76396e-15 0)
(1 3.55585e-15 0)
(1 4.08494e-15 0)
(1 3.53926e-15 0)
(1 1.16216e-15 0)
(1 2.74538e-15 0)
(1 5.85533e-15 0)
(1 3.60986e-15 0)
(1 2.45494e-15 0)
(1 1.94183e-15 0)
(1 2.4925e-15 0)
(1 3.50227e-15 0)
(1 4.56455e-15 0)
(1 4.63118e-15 0)
(1 2.58365e-15 0)
(1 4.34634e-15 0)
(1 3.4925e-15 0)
(1 6.2858e-15 0)
(1 2.8992e-15 0)
(1 3.37935e-15 0)
(1 4.05904e-15 0)
(1 1.97513e-15 0)
(1 4.21881e-15 0)
(1 5.01786e-15 0)
(1 2.34789e-15 0)
(1 2.55885e-15 0)
(1 1.25974e-15 0)
(1 2.10056e-16 0)
(1 2.89803e-16 0)
(1 1.09616e-15 0)
(1 -3.04648e-16 0)
(1 2.15981e-15 0)
(1 3.62111e-15 0)
(1 4.27585e-15 0)
(1 3.44984e-15 0)
(1 2.10164e-15 0)
(1 3.63326e-16 0)
(1 2.12438e-15 0)
(1 4.59416e-15 0)
(1 5.31186e-15 0)
(1 4.37122e-15 0)
(1 3.09261e-15 0)
(1 7.34686e-16 0)
(1 1.45674e-15 0)
(1 2.86764e-16 0)
(1 2.45339e-15 0)
(1 4.84944e-16 0)
(1 1.49196e-15 0)
(1 5.35337e-15 0)
(1 4.5307e-15 0)
(1 4.0316e-15 0)
(1 2.54798e-16 0)
(1 9.66661e-16 0)
(1 1.98838e-15 0)
(1 1.90061e-15 0)
(1 -5.54941e-17 0)
(1 3.37882e-15 0)
(1 2.66465e-15 0)
(1 1.91302e-15 0)
(1 -1.68878e-15 0)
(1 1.17835e-15 0)
(1 2.34073e-15 0)
(1 3.6951e-16 0)
(1 -4.61259e-16 0)
(1 2.67541e-15 0)
(1 3.08362e-16 0)
(1 4.482e-15 0)
(1 2.72188e-15 0)
(1 2.46807e-15 0)
(1 2.57177e-15 0)
(1 7.62699e-15 0)
(1 7.32872e-15 0)
(1 3.68126e-15 0)
(1 6.76253e-15 0)
(1 2.85732e-15 0)
(1 8.56414e-15 0)
(1 3.4235e-15 0)
(1 3.58128e-15 0)
(1 3.14381e-15 0)
(1 3.87539e-15 0)
(1 8.73865e-15 0)
(1 8.54346e-15 0)
(1 4.65336e-15 0)
(1 9.28011e-15 0)
(1 6.60126e-15 0)
(1 6.252e-15 0)
(1 4.27168e-15 0)
(1 3.94994e-15 0)
(1 4.22091e-15 0)
(1 3.05821e-15 0)
(1 2.63326e-15 0)
(1 5.58296e-15 0)
(1 4.82827e-15 0)
(1 4.02865e-15 0)
(1 3.86163e-15 0)
(1 4.08268e-15 0)
(1 1.97171e-15 0)
(1 2.58079e-15 0)
(1 1.41172e-16 0)
(1 4.64972e-15 0)
(1 4.99546e-15 0)
(1 3.51058e-15 0)
(1 2.59673e-15 0)
(1 4.65413e-15 0)
(1 2.43739e-15 0)
(1 4.66119e-15 0)
(1 4.18133e-15 0)
(1 9.84818e-16 0)
(1 2.55206e-15 0)
(1 3.6098e-15 0)
(1 1.35451e-15 0)
(1 4.57343e-15 0)
(1 4.10779e-15 0)
(1 2.76826e-15 0)
(1 2.30776e-15 0)
(1 4.96614e-15 0)
(1 4.93385e-15 0)
(1 4.59822e-15 0)
(1 3.90894e-15 0)
(1 2.94497e-15 0)
(1 4.28003e-15 0)
(1 5.14122e-15 0)
(1 3.47045e-15 0)
(1 3.69636e-15 0)
(1 1.67402e-15 0)
(1 4.16103e-15 0)
(1 1.01244e-15 0)
(1 -1.16116e-15 0)
(1 2.81864e-17 0)
(1 2.30333e-15 0)
(1 1.25733e-15 0)
(1 3.96836e-15 0)
(1 1.58328e-15 0)
(1 3.50011e-15 0)
(1 -1.5018e-16 0)
(1 1.55521e-15 0)
(1 3.65772e-15 0)
(1 1.06915e-15 0)
(1 5.36739e-15 0)
(1 4.81455e-15 0)
(1 4.67454e-15 0)
(1 -1.24953e-15 0)
(1 -2.08252e-15 0)
(1 2.28372e-15 0)
(1 -3.07536e-15 0)
(1 6.09853e-15 0)
(1 2.46491e-16 0)
(1 3.69879e-15 0)
(1 5.75143e-15 0)
(1 1.02138e-15 0)
(1 2.86847e-15 0)
(1 3.71545e-15 0)
(1 -4.14592e-16 0)
(1 -3.28755e-16 0)
(1 -4.5017e-16 0)
(1 1.31601e-15 0)
(1 1.98213e-15 0)
(1 6.11412e-16 0)
(1 5.17037e-16 0)
(1 8.06552e-16 0)
(1 1.22414e-15 0)
(1 3.53466e-16 0)
(1 3.964e-16 0)
(1 1.45049e-15 0)
(1 -6.76345e-16 0)
(1 2.13409e-15 0)
(1 3.82463e-15 0)
(1 1.48515e-15 0)
(1 2.00274e-15 0)
(1 2.67747e-15 0)
(1 8.3196e-15 0)
(1 4.70375e-15 0)
(1 6.20347e-15 0)
(1 4.73781e-15 0)
(1 -2.63329e-16 0)
(1 6.01609e-15 0)
(1 3.52884e-15 0)
(1 1.45847e-15 0)
(1 3.52105e-15 0)
(1 6.01754e-15 0)
(1 7.40937e-15 0)
(1 6.80884e-15 0)
(1 6.66846e-15 0)
(1 7.93612e-15 0)
(1 5.49641e-15 0)
(1 6.6885e-15 0)
(1 6.11189e-15 0)
(1 4.29533e-15 0)
(1 5.3967e-15 0)
(1 1.95408e-15 0)
(1 4.8306e-15 0)
(1 3.48489e-15 0)
(1 5.2746e-15 0)
(1 4.98847e-15 0)
(1 4.44281e-15 0)
(1 3.61971e-15 0)
(1 3.56064e-15 0)
(1 2.76631e-15 0)
(1 3.94615e-15 0)
(1 3.52563e-15 0)
(1 2.54409e-15 0)
(1 2.81843e-15 0)
(1 1.76889e-15 0)
(1 3.49722e-15 0)
(1 2.73408e-15 0)
(1 5.05119e-15 0)
(1 2.16793e-15 0)
(1 -6.64649e-16 0)
(1 3.29235e-15 0)
(1 3.65171e-15 0)
(1 1.79632e-15 0)
(1 3.77289e-15 0)
(1 2.97407e-15 0)
(1 2.19702e-15 0)
(1 2.15426e-15 0)
(1 4.71335e-15 0)
(1 4.34893e-15 0)
(1 2.46356e-15 0)
(1 3.5638e-15 0)
(1 2.75566e-15 0)
(1 4.20405e-15 0)
(1 5.34051e-15 0)
(1 5.15087e-15 0)
(1 2.55807e-15 0)
(1 5.67507e-16 0)
(1 2.75442e-15 0)
(1 2.32306e-15 0)
(1 1.57649e-15 0)
(1 -1.1381e-16 0)
(1 2.06905e-15 0)
(1 1.68131e-15 0)
(1 1.70429e-15 0)
(1 2.54517e-15 0)
(1 2.98109e-15 0)
(1 2.62641e-15 0)
(1 2.14657e-15 0)
(1 3.65563e-15 0)
(1 2.49802e-15 0)
(1 6.47028e-16 0)
(1 1.51691e-15 0)
(1 2.90057e-15 0)
(1 1.3127e-15 0)
(1 1.21174e-15 0)
(1 1.50239e-15 0)
(1 -5.27981e-16 0)
(1 1.65649e-15 0)
(1 3.9962e-15 0)
(1 2.18458e-15 0)
(1 7.11531e-16 0)
(1 1.32496e-15 0)
(1 1.71713e-15 0)
(1 2.31547e-15 0)
(1 -1.57021e-15 0)
(1 3.23467e-16 0)
(1 1.0329e-15 0)
(1 5.19106e-15 0)
(1 -1.67035e-15 0)
(1 5.86941e-16 0)
(1 -1.50217e-15 0)
(1 7.05989e-16 0)
(1 6.08013e-16 0)
(1 -1.19476e-15 0)
(1 1.81912e-15 0)
(1 6.01597e-16 0)
(1 -5.851e-17 0)
(1 1.31683e-15 0)
(1 4.2251e-16 0)
(1 1.72707e-15 0)
(1 3.2517e-15 0)
(1 5.42227e-15 0)
(1 2.61463e-15 0)
(1 3.90225e-15 0)
(1 3.20607e-15 0)
(1 2.09048e-15 0)
(1 4.19702e-15 0)
(1 2.561e-15 0)
(1 2.24234e-15 0)
(1 -1.42758e-15 0)
(1 4.89476e-15 0)
(1 8.29144e-15 0)
(1 7.87142e-15 0)
(1 5.47169e-15 0)
(1 8.36845e-15 0)
(1 7.48168e-15 0)
(1 5.23057e-15 0)
(1 5.1979e-15 0)
(1 3.86772e-15 0)
(1 3.25632e-15 0)
(1 2.33971e-15 0)
(1 2.87146e-15 0)
(1 3.1179e-15 0)
(1 -4.24364e-16 0)
(1 5.48696e-15 0)
(1 4.07847e-15 0)
(1 4.17579e-15 0)
(1 3.39242e-15 0)
(1 3.28432e-15 0)
(1 3.00294e-15 0)
(1 2.17904e-15 0)
(1 -4.97678e-16 0)
(1 1.41153e-15 0)
(1 4.0933e-15 0)
(1 1.6531e-15 0)
(1 1.91942e-15 0)
(1 2.17195e-15 0)
(1 2.86069e-15 0)
(1 2.36867e-15 0)
(1 3.20172e-15 0)
(1 5.92223e-16 0)
(1 1.98066e-16 0)
(1 4.05095e-15 0)
(1 2.53617e-15 0)
(1 2.38955e-15 0)
(1 1.72108e-15 0)
(1 3.35218e-15 0)
(1 5.276e-15 0)
(1 5.45929e-15 0)
(1 3.53626e-15 0)
(1 3.44028e-15 0)
(1 4.00454e-15 0)
(1 4.18435e-15 0)
(1 3.74714e-15 0)
(1 3.11623e-15 0)
(1 8.53457e-16 0)
(1 2.00341e-15 0)
(1 1.53506e-16 0)
(1 2.01767e-15 0)
(1 2.91733e-15 0)
(1 -8.29001e-16 0)
(1 1.81016e-15 0)
(1 1.02835e-16 0)
(1 1.26323e-15 0)
(1 2.85924e-15 0)
(1 3.75167e-15 0)
(1 4.65354e-15 0)
(1 4.51682e-15 0)
(1 9.01785e-16 0)
(1 1.99623e-15 0)
(1 -6.6029e-18 0)
(1 -1.13017e-15 0)
(1 8.9313e-16 0)
(1 5.40943e-15 0)
(1 1.6101e-15 0)
(1 8.4004e-16 0)
(1 3.14703e-15 0)
(1 -2.54285e-15 0)
(1 -3.39523e-17 0)
(1 -2.4662e-16 0)