/*--------------------------------*- C++ -*----------------------------------*\
| =========                 |                                                 |
| \\      /  F ield         | OpenFOAM: The Open Source CFD Toolbox           |
|  \\    /   O peration     | Version:  v2012                                 |
|   \\  /    A nd           | Website:  www.openfoam.com                      |
|    \\/     M anipulation  |                                                 |
\*---------------------------------------------------------------------------*/
FoamFile
{
    version     2.0;
    format      ascii;
    class       surfaceScalarField;
    location    "20";
    object      phi;
}
// * * * * * * * * * * * * * * * * * * * * * * * * * * * * * * * * * * * * * //

dimensions      [0 3 -1 0 0 0 0];
oriented        oriented;


internalField   nonuniform List<scalar> 
130560
(
3.17134e-06
-3.17134e-06
6.34279e-06
-3.17146e-06
9.51449e-06
-3.1717e-06
1.26865e-05
-3.17205e-06
1.58591e-05
-3.17253e-06
1.90322e-05
-3.17312e-06
2.2206e-05
-3.17382e-06
2.53806e-05
-3.17464e-06
2.85562e-05
-3.17557e-06
3.17328e-05
-3.17661e-06
3.49106e-05
-3.17776e-06
3.80896e-05
-3.179e-06
4.12699e-05
-3.18035e-06
4.44517e-05
-3.1818e-06
4.76351e-05
-3.18334e-06
5.082e-05
-3.18496e-06
5.40067e-05
-3.18667e-06
5.71952e-05
-3.18846e-06
6.03855e-05
-3.19032e-06
6.35778e-05
-3.19226e-06
6.6772e-05
-3.19425e-06
6.99683e-05
-3.1963e-06
7.31667e-05
-3.1984e-06
7.63672e-05
-3.20054e-06
7.957e-05
-3.20272e-06
8.27749e-05
-3.20492e-06
8.5982e-05
-3.20715e-06
8.91914e-05
-3.20938e-06
9.2403e-05
-3.21162e-06
9.56169e-05
-3.21385e-06
9.8833e-05
-3.21607e-06
0.000102051
-3.21825e-06
0.000105272
-3.2204e-06
0.000108494
-3.22251e-06
0.000111719
-3.22455e-06
0.000114945
-3.22652e-06
0.000118174
-3.2284e-06
0.000121404
-3.23019e-06
0.000124636
-3.23186e-06
0.000127869
-3.23341e-06
0.000131104
-3.23483e-06
0.00013434
-3.23608e-06
0.000137577
-3.23717e-06
0.000140815
-3.23808e-06
0.000144054
-3.23878e-06
0.000147293
-3.23926e-06
0.000150533
-3.2395e-06
0.000153772
-3.2395e-06
0.000157011
-3.23921e-06
0.00016025
-3.23864e-06
0.000163488
-3.23775e-06
0.000166724
-3.23653e-06
0.000169959
-3.23495e-06
0.000173192
-3.233e-06
0.000176423
-3.23065e-06
0.000179651
-3.22788e-06
0.000182875
-3.22466e-06
0.000186096
-3.22098e-06
0.000189313
-3.21681e-06
0.000192525
-3.21212e-06
0.000195732
-3.20688e-06
0.000198933
-3.20108e-06
0.000202128
-3.19469e-06
0.000205316
-3.18767e-06
0.000208496
-3.18001e-06
0.000211667
-3.17166e-06
0.00021483
-3.16262e-06
0.000217983
-3.15284e-06
0.000221125
-3.1423e-06
0.000224256
-3.13097e-06
0.000227375
-3.11881e-06
0.000230481
-3.10581e-06
0.000233573
-3.09193e-06
0.00023665
-3.07714e-06
0.000239711
-3.06141e-06
0.000242756
-3.04471e-06
0.000245783
-3.02701e-06
0.000248791
-3.00828e-06
0.00025178
-2.98849e-06
0.000254747
-2.96761e-06
0.000257693
-2.94562e-06
0.000260615
-2.92247e-06
0.000263514
-2.89816e-06
0.000266386
-2.87264e-06
0.000269232
-2.84589e-06
0.00027205
-2.81788e-06
0.000274839
-2.78859e-06
0.000277597
-2.75799e-06
0.000280323
-2.72606e-06
0.000283015
-2.69278e-06
0.000285674
-2.65812e-06
0.000288296
-2.62207e-06
0.00029088
-2.5846e-06
0.000293426
-2.5457e-06
0.000295931
-2.50534e-06
0.000298395
-2.46353e-06
0.000300815
-2.42024e-06
0.00030319
-2.37546e-06
0.00030552
-2.32919e-06
0.000307801
-2.28142e-06
0.000310033
-2.23214e-06
0.000312215
-2.18135e-06
0.000314344
-2.12906e-06
0.000316419
-2.07526e-06
0.000318439
-2.01997e-06
0.000320402
-1.96318e-06
0.000322307
-1.90491e-06
0.000324152
-1.84517e-06
0.000325936
-1.78399e-06
0.000327657
-1.72137e-06
0.000329315
-1.65735e-06
0.000330907
-1.59194e-06
0.000332432
-1.52518e-06
0.000333889
-1.45709e-06
0.000335277
-1.38771e-06
0.000336594
-1.31708e-06
0.000337839
-1.24523e-06
0.000339011
-1.17222e-06
0.000340109
-1.09808e-06
0.000341132
-1.02287e-06
0.000342079
-9.46632e-07
0.000342948
-8.69429e-07
0.00034374
-7.91314e-07
0.000344452
-7.12347e-07
0.000345084
-6.3259e-07
0.000345637
-5.52107e-07
0.000346108
-4.70964e-07
0.000346497
-3.8923e-07
0.000346804
-3.06974e-07
0.000347028
-2.24268e-07
0.000347169
-1.41185e-07
0.000347227
-5.77979e-08
0.000347201
2.5817e-08
0.000347092
1.09584e-07
0.000346898
1.93427e-07
0.000346621
2.7727e-07
0.00034626
3.61034e-07
0.000345815
4.44645e-07
0.000345287
5.28024e-07
0.000344676
6.11096e-07
0.000343982
6.93786e-07
0.000343206
7.7602e-07
0.000342349
8.57725e-07
0.00034141
9.3883e-07
0.00034039
1.01926e-06
0.000339292
1.09896e-06
0.000338114
1.17785e-06
0.000336858
1.25587e-06
0.000335525
1.33296e-06
0.000334116
1.40906e-06
0.000332632
1.48411e-06
0.000331074
1.55806e-06
0.000329443
1.63085e-06
0.00032774
1.70245e-06
0.000325968
1.7728e-06
0.000324126
1.84186e-06
0.000322216
1.90959e-06
0.00032024
1.97596e-06
0.000318199
2.04093e-06
0.000316095
2.10447e-06
0.000313928
2.16655e-06
0.000311701
2.22716e-06
0.000309415
2.28627e-06
0.000307071
2.34386e-06
0.000304671
2.39992e-06
0.000302217
2.45444e-06
0.000299709
2.50741e-06
0.00029715
2.55882e-06
0.000294542
2.60868e-06
0.000291885
2.65697e-06
0.000289181
2.7037e-06
0.000286432
2.74889e-06
0.00028364
2.79252e-06
0.000280805
2.83463e-06
0.00027793
2.8752e-06
0.000275015
2.91427e-06
0.000272064
2.95184e-06
0.000269076
2.98794e-06
0.000266053
3.02258e-06
0.000262997
3.05578e-06
0.00025991
3.08756e-06
0.000256792
3.11796e-06
0.000253645
3.14699e-06
0.00025047
3.17468e-06
0.000247269
3.20106e-06
0.000244043
3.22616e-06
0.000240793
3.25e-06
0.00023752
3.27262e-06
0.000234226
3.29404e-06
0.000230912
3.3143e-06
0.000227578
3.33343e-06
0.000224227
3.35145e-06
0.000220859
3.36842e-06
0.000217474
3.38434e-06
0.000214075
3.39927e-06
0.000210662
3.41323e-06
0.000207236
3.42625e-06
0.000203797
3.43837e-06
0.000200348
3.44962e-06
0.000196888
3.46003e-06
0.000193418
3.46963e-06
0.000189939
3.47846e-06
0.000186453
3.48656e-06
0.000182959
3.49394e-06
0.000179458
3.50064e-06
0.000175952
3.5067e-06
0.000172439
3.51214e-06
0.000168922
3.51699e-06
0.000165401
3.52128e-06
0.000161876
3.52504e-06
0.000158348
3.52831e-06
0.000154817
3.5311e-06
0.000151283
3.53344e-06
0.000147748
3.53536e-06
0.000144211
3.53689e-06
0.000140673
3.53806e-06
0.000137134
3.53887e-06
0.000133595
3.53937e-06
0.000130055
3.53958e-06
0.000126516
3.53951e-06
0.000122976
3.53918e-06
0.000119438
3.53863e-06
0.0001159
3.53787e-06
0.000112363
3.53692e-06
0.000108827
3.53581e-06
0.000105293
3.53454e-06
0.00010176
3.53314e-06
9.82279e-05
3.53162e-06
9.46979e-05
3.53e-06
9.11696e-05
3.52831e-06
8.76431e-05
3.52655e-06
8.41183e-05
3.52473e-06
8.05955e-05
3.52288e-06
7.70745e-05
3.52101e-06
7.35553e-05
3.51913e-06
7.00381e-05
3.51724e-06
6.65227e-05
3.51538e-06
6.30092e-05
3.51353e-06
5.94974e-05
3.51173e-06
5.59875e-05
3.50997e-06
5.24792e-05
3.50826e-06
4.89726e-05
3.50662e-06
4.54675e-05
3.50505e-06
4.1964e-05
3.50357e-06
3.84618e-05
3.50217e-06
3.49609e-05
3.50086e-06
3.14613e-05
3.49965e-06
2.79627e-05
3.49855e-06
2.44652e-05
3.49756e-06
2.09685e-05
3.49668e-06
1.74726e-05
3.49592e-06
1.39773e-05
3.49529e-06
1.04825e-05
3.49477e-06
6.98813e-06
3.49439e-06
3.494e-06
3.49413e-06
3.494e-06
3.17122e-06
-6.34256e-06
6.34256e-06
-6.34279e-06
9.51414e-06
-6.34327e-06
1.26861e-05
-6.34399e-06
1.58585e-05
-6.34494e-06
1.90315e-05
-6.34612e-06
2.22052e-05
-6.34753e-06
2.53797e-05
-6.34917e-06
2.85552e-05
-6.35104e-06
3.17317e-05
-6.35312e-06
3.49094e-05
-6.35541e-06
3.80883e-05
-6.35791e-06
4.12685e-05
-6.36061e-06
4.44502e-05
-6.36351e-06
4.76335e-05
-6.36659e-06
5.08184e-05
-6.36984e-06
5.40049e-05
-6.37327e-06
5.71933e-05
-6.37685e-06
6.03836e-05
-6.38058e-06
6.35758e-05
-6.38445e-06
6.677e-05
-6.38844e-06
6.99662e-05
-6.39255e-06
7.31646e-05
-6.39676e-06
7.63651e-05
-6.40105e-06
7.95678e-05
-6.40541e-06
8.27727e-05
-6.40983e-06
8.59798e-05
-6.41429e-06
8.91892e-05
-6.41877e-06
9.24008e-05
-6.42325e-06
9.56147e-05
-6.42773e-06
9.88308e-05
-6.43216e-06
0.000102049
-6.43655e-06
0.00010527
-6.44086e-06
0.000108492
-6.44507e-06
0.000111717
-6.44917e-06
0.000114943
-6.45312e-06
0.000118172
-6.4569e-06
0.000121402
-6.46049e-06
0.000124634
-6.46385e-06
0.000127868
-6.46697e-06
0.000131103
-6.46981e-06
0.000134339
-6.47234e-06
0.000137576
-6.47453e-06
0.000140815
-6.47636e-06
0.000144054
-6.47778e-06
0.000147293
-6.47876e-06
0.000150533
-6.47927e-06
0.000153773
-6.47927e-06
0.000157012
-6.47872e-06
0.000160251
-6.47759e-06
0.000163489
-6.47583e-06
0.000166726
-6.47341e-06
0.000169961
-6.47028e-06
0.000173195
-6.46639e-06
0.000176426
-6.46172e-06
0.000179654
-6.4562e-06
0.000182879
-6.4498e-06
0.000186101
-6.44246e-06
0.000189318
-6.43413e-06
0.000192531
-6.42478e-06
0.000195738
-6.41434e-06
0.00019894
-6.40276e-06
0.000202135
-6.39e-06
0.000205323
-6.37599e-06
0.000208504
-6.36069e-06
0.000211677
-6.34403e-06
0.00021484
-6.32597e-06
0.000217993
-6.30644e-06
0.000221137
-6.28539e-06
0.000224268
-6.26275e-06
0.000227388
-6.23848e-06
0.000230495
-6.2125e-06
0.000233588
-6.18477e-06
0.000236666
-6.15522e-06
0.000239728
-6.12379e-06
0.000242774
-6.09042e-06
0.000245802
-6.05505e-06
0.000248811
-6.01762e-06
0.000251801
-5.97807e-06
0.000254769
-5.93634e-06
0.000257716
-5.89238e-06
0.00026064
-5.84613e-06
0.000263539
-5.79752e-06
0.000266413
-5.74651e-06
0.00026926
-5.69303e-06
0.000272079
-5.63704e-06
0.000274869
-5.57849e-06
0.000277629
-5.51732e-06
0.000280356
-5.45348e-06
0.00028305
-5.38694e-06
0.00028571
-5.31764e-06
0.000288333
-5.24555e-06
0.000290919
-5.17063e-06
0.000293466
-5.09284e-06
0.000295973
-5.01215e-06
0.000298438
-4.92853e-06
0.00030086
-4.84196e-06
0.000303237
-4.75242e-06
0.000305568
-4.65988e-06
0.00030785
-4.56434e-06
0.000310084
-4.46579e-06
0.000312267
-4.36421e-06
0.000314398
-4.25962e-06
0.000316474
-4.15202e-06
0.000318496
-4.04142e-06
0.00032046
-3.92783e-06
0.000322367
-3.81129e-06
0.000324213
-3.6918e-06
0.000325999
-3.56941e-06
0.000327722
-3.44416e-06
0.00032938
-3.31608e-06
0.000330974
-3.18523e-06
0.0003325
-3.05167e-06
0.000333959
-2.91546e-06
0.000335347
-2.77667e-06
0.000336666
-2.63536e-06
0.000337912
-2.49163e-06
0.000339086
-2.34556e-06
0.000340185
-2.19723e-06
0.000341209
-2.04676e-06
0.000342156
-1.89423e-06
0.000343026
-1.73977e-06
0.000343819
-1.58348e-06
0.000344532
-1.42548e-06
0.000345165
-1.2659e-06
0.000345718
-1.10487e-06
0.000346189
-9.42518e-07
0.000346579
-7.7898e-07
0.000346887
-6.14396e-07
0.000347111
-4.48911e-07
0.000347253
-2.8267e-07
0.000347311
-1.15821e-07
0.000347285
5.14843e-08
0.000347176
2.19095e-07
0.000346982
3.86858e-07
0.000346705
5.5462e-07
0.000346344
7.22226e-07
0.000345899
8.89523e-07
0.00034537
1.05636e-06
0.000344759
1.22258e-06
0.000344065
1.38803e-06
0.000343288
1.55257e-06
0.00034243
1.71605e-06
0.00034149
1.87833e-06
0.00034047
2.03927e-06
0.000339371
2.19872e-06
0.000338192
2.35657e-06
0.000336935
2.51267e-06
0.000335601
2.66691e-06
0.000334191
2.81916e-06
0.000332706
2.96932e-06
0.000331146
3.11727e-06
0.000329514
3.26291e-06
0.000327811
3.40615e-06
0.000326037
3.54689e-06
0.000324193
3.68505e-06
0.000322282
3.82055e-06
0.000320305
3.95332e-06
0.000318263
4.08329e-06
0.000316157
4.21039e-06
0.000313989
4.33459e-06
0.00031176
4.45583e-06
0.000309472
4.57406e-06
0.000307127
4.68926e-06
0.000304725
4.80139e-06
0.00030227
4.91044e-06
0.000299761
5.01638e-06
0.0002972
5.11921e-06
0.00029459
5.21891e-06
0.000291931
5.3155e-06
0.000289226
5.40896e-06
0.000286476
5.49932e-06
0.000283682
5.58659e-06
0.000280845
5.67078e-06
0.000277969
5.75192e-06
0.000275053
5.83004e-06
0.0002721
5.90517e-06
0.00026911
5.97734e-06
0.000266086
6.04659e-06
0.000263029
6.11297e-06
0.00025994
6.17652e-06
0.000256821
6.23729e-06
0.000253672
6.29532e-06
0.000250496
6.35068e-06
0.000247294
6.40341e-06
0.000244067
6.45357e-06
0.000240815
6.50122e-06
0.000237542
6.54643e-06
0.000234246
6.58924e-06
0.000230931
6.62973e-06
0.000227596
6.66795e-06
0.000224244
6.70398e-06
0.000220875
6.73787e-06
0.000217489
6.76969e-06
0.000214089
6.79951e-06
0.000210675
6.82739e-06
0.000207248
6.8534e-06
0.000203808
6.87761e-06
0.000200358
6.90007e-06
0.000196897
6.92086e-06
0.000193427
6.94004e-06
0.000189947
6.95767e-06
0.00018646
6.97382e-06
0.000182966
6.98856e-06
0.000179464
7.00193e-06
0.000175957
7.01401e-06
0.000172444
7.02486e-06
0.000168927
7.03453e-06
0.000165405
7.04309e-06
0.000161879
7.05059e-06
0.000158351
7.05709e-06
0.000154819
7.06264e-06
0.000151285
7.0673e-06
0.000147749
7.07112e-06
0.000144212
7.07416e-06
0.000140674
7.07646e-06
0.000137135
7.07807e-06
0.000133595
7.07904e-06
0.000130055
7.07943e-06
0.000126515
7.07926e-06
0.000122976
7.0786e-06
0.000119437
7.07747e-06
0.000115899
7.07593e-06
0.000112362
7.07402e-06
0.000108826
7.07176e-06
0.000105291
7.0692e-06
0.000101758
7.06638e-06
9.82263e-05
7.06333e-06
9.46962e-05
7.06009e-06
9.11678e-05
7.05668e-06
8.76412e-05
7.05314e-06
8.41165e-05
7.0495e-06
8.05936e-05
7.04579e-06
7.70725e-05
7.04203e-06
7.35534e-05
7.03825e-06
7.00362e-05
7.03447e-06
6.65208e-05
7.03073e-06
6.30073e-05
7.02703e-06
5.94957e-05
7.02341e-06
5.59858e-05
7.01988e-06
5.24776e-05
7.01646e-06
4.8971e-05
7.01317e-06
4.5466e-05
7.01003e-06
4.19626e-05
7.00704e-06
3.84605e-05
7.00424e-06
3.49597e-05
7.00162e-06
3.14602e-05
6.9992e-06
2.79617e-05
6.99699e-06
2.44643e-05
6.995e-06
2.09677e-05
6.99325e-06
1.74719e-05
6.99172e-06
1.39768e-05
6.99045e-06
1.04821e-05
6.98942e-06
6.98787e-06
6.98865e-06
3.49387e-06
6.98813e-06
6.98787e-06
3.17098e-06
-9.51353e-06
6.34208e-06
-9.51389e-06
9.51342e-06
-9.51461e-06
1.26851e-05
-9.51569e-06
1.58573e-05
-9.51711e-06
1.90301e-05
-9.51889e-06
2.22036e-05
-9.52102e-06
2.53779e-05
-9.52348e-06
2.85531e-05
-9.52628e-06
3.17294e-05
-9.52941e-06
3.49068e-05
-9.53286e-06
3.80855e-05
-9.53662e-06
4.12656e-05
-9.54068e-06
4.44471e-05
-9.54503e-06
4.76302e-05
-9.54966e-06
5.08149e-05
-9.55455e-06
5.40014e-05
-9.5597e-06
5.71896e-05
-9.56509e-06
6.03797e-05
-9.5707e-06
6.35718e-05
-9.57652e-06
6.67659e-05
-9.58252e-06
6.9962e-05
-9.5887e-06
7.31603e-05
-9.59503e-06
7.63607e-05
-9.60148e-06
7.95634e-05
-9.60805e-06
8.27682e-05
-9.61469e-06
8.59753e-05
-9.6214e-06
8.91847e-05
-9.62815e-06
9.23964e-05
-9.6349e-06
9.56103e-05
-9.64163e-06
9.88264e-05
-9.64831e-06
0.000102045
-9.65492e-06
0.000105265
-9.66141e-06
0.000108488
-9.66776e-06
0.000111713
-9.67393e-06
0.00011494
-9.67989e-06
0.000118168
-9.68559e-06
0.000121399
-9.691e-06
0.000124631
-9.69609e-06
0.000127865
-9.7008e-06
0.0001311
-9.7051e-06
0.000134337
-9.70893e-06
0.000137574
-9.71226e-06
0.000140813
-9.71504e-06
0.000144053
-9.71721e-06
0.000147293
-9.71873e-06
0.000150533
-9.71954e-06
0.000153773
-9.71958e-06
0.000157013
-9.71881e-06
0.000160253
-9.71716e-06
0.000163492
-9.71458e-06
0.000166729
-9.711e-06
0.000169965
-9.70635e-06
0.000173199
-9.70059e-06
0.000176431
-9.69363e-06
0.000179661
-9.68541e-06
0.000182887
-9.67586e-06
0.000186109
-9.66491e-06
0.000189327
-9.65249e-06
0.000192541
-9.63852e-06
0.00019575
-9.62293e-06
0.000198953
-9.60563e-06
0.000202149
-9.58655e-06
0.000205339
-9.56561e-06
0.000208521
-9.54272e-06
0.000211695
-9.51781e-06
0.000214859
-9.49079e-06
0.000218015
-9.46156e-06
0.000221159
-9.43006e-06
0.000224293
-9.39618e-06
0.000227414
-9.35984e-06
0.000230522
-9.32096e-06
0.000233617
-9.27943e-06
0.000236697
-9.23518e-06
0.000239761
-9.1881e-06
0.000242809
-9.13812e-06
0.000245839
-9.08514e-06
0.000248851
-9.02907e-06
0.000251842
-8.96982e-06
0.000254813
-8.90731e-06
0.000257762
-8.84144e-06
0.000260688
-8.77213e-06
0.00026359
-8.69929e-06
0.000266467
-8.62284e-06
0.000269316
-8.54269e-06
0.000272138
-8.45877e-06
0.00027493
-8.371e-06
0.000277692
-8.27931e-06
0.000280423
-8.18361e-06
0.000283119
-8.08385e-06
0.000285782
-7.97996e-06
0.000288408
-7.87187e-06
0.000290997
-7.75953e-06
0.000293547
-7.64288e-06
0.000296057
-7.52189e-06
0.000298525
-7.39649e-06
0.000300949
-7.26666e-06
0.000303329
-7.13237e-06
0.000305663
-6.99358e-06
0.000307949
-6.85028e-06
0.000310186
-6.70245e-06
0.000312372
-6.55009e-06
0.000314505
-6.3932e-06
0.000316585
-6.23178e-06
0.000318609
-6.06586e-06
0.000320577
-5.89546e-06
0.000322486
-5.7206e-06
0.000324336
-5.54133e-06
0.000326124
-5.3577e-06
0.00032785
-5.16976e-06
0.000329511
-4.97758e-06
0.000331107
-4.78124e-06
0.000332636
-4.58082e-06
0.000334097
-4.37642e-06
0.000335489
-4.16814e-06
0.000336809
-3.95608e-06
0.000338058
-3.74037e-06
0.000339234
-3.52115e-06
0.000340335
-3.29854e-06
0.000341361
-3.07269e-06
0.000342311
-2.84377e-06
0.000343183
-2.61193e-06
0.000343977
-2.37735e-06
0.000344691
-2.1402e-06
0.000345326
-1.90067e-06
0.00034588
-1.65896e-06
0.000346353
-1.41526e-06
0.000346744
-1.16978e-06
0.000347052
-9.22721e-07
0.000347277
-6.74311e-07
0.00034742
-4.24764e-07
0.000347478
-1.74303e-07
0.000347453
7.68454e-08
0.000347343
3.28453e-07
0.00034715
5.8029e-07
0.000346872
8.32125e-07
0.000346511
1.08373e-06
0.000346066
1.33486e-06
0.000345537
1.5853e-06
0.000344924
1.83482e-06
0.000344229
2.08319e-06
0.000343452
2.33018e-06
0.000342592
2.57559e-06
0.000341651
2.81918e-06
0.00034063
3.06075e-06
0.000339528
3.3001e-06
0.000338348
3.53703e-06
0.000337089
3.77133e-06
0.000335753
4.00284e-06
0.000334341
4.23136e-06
0.000332854
4.45673e-06
0.000331292
4.67879e-06
0.000329658
4.89738e-06
0.000327951
5.11235e-06
0.000326175
5.32356e-06
0.000324329
5.5309e-06
0.000322415
5.73424e-06
0.000320435
5.93348e-06
0.00031839
6.1285e-06
0.000316281
6.31923e-06
0.00031411
6.50559e-06
0.000311878
6.68749e-06
0.000309588
6.86489e-06
0.000307239
7.03772e-06
0.000304835
7.20595e-06
0.000302375
7.36954e-06
0.000299863
7.52847e-06
0.0002973
7.68272e-06
0.000294686
7.83227e-06
0.000292025
7.97714e-06
0.000289316
8.11733e-06
0.000286563
8.25285e-06
0.000283766
8.38372e-06
0.000280927
8.50998e-06
0.000278047
8.63166e-06
0.000275128
8.7488e-06
0.000272172
8.86144e-06
0.00026918
8.96965e-06
0.000266153
9.07348e-06
0.000263093
9.173e-06
0.000260001
9.26826e-06
0.000256879
9.35935e-06
0.000253728
9.44634e-06
0.000250549
9.5293e-06
0.000247344
9.60832e-06
0.000244114
9.68349e-06
0.000240861
9.7549e-06
0.000237584
9.82263e-06
0.000234287
9.88677e-06
0.000230969
9.94742e-06
0.000227633
1.00047e-05
0.000224278
1.00586e-05
0.000220906
1.01094e-05
0.000217519
1.0157e-05
0.000214117
1.02017e-05
0.000210701
1.02434e-05
0.000207272
1.02824e-05
0.000203831
1.03186e-05
0.000200379
1.03522e-05
0.000196916
1.03833e-05
0.000193444
1.0412e-05
0.000189964
1.04384e-05
0.000186475
1.04625e-05
0.000182979
1.04845e-05
0.000179476
1.05045e-05
0.000175968
1.05226e-05
0.000172454
1.05388e-05
0.000168935
1.05532e-05
0.000165412
1.0566e-05
0.000161886
1.05771e-05
0.000158356
1.05868e-05
0.000154824
1.05951e-05
0.000151289
1.0602e-05
0.000147752
1.06077e-05
0.000144214
1.06122e-05
0.000140675
1.06155e-05
0.000137136
1.06179e-05
0.000133595
1.06193e-05
0.000130055
1.06198e-05
0.000126515
1.06195e-05
0.000122975
1.06185e-05
0.000119436
1.06167e-05
0.000115897
1.06144e-05
0.00011236
1.06114e-05
0.000108823
1.0608e-05
0.000105288
1.06041e-05
0.000101755
1.05999e-05
9.82231e-05
1.05952e-05
9.46928e-05
1.05903e-05
9.11643e-05
1.05852e-05
8.76376e-05
1.05798e-05
8.41128e-05
1.05743e-05
8.05898e-05
1.05687e-05
7.70688e-05
1.05631e-05
7.35497e-05
1.05574e-05
7.00325e-05
1.05517e-05
6.65172e-05
1.0546e-05
6.30037e-05
1.05405e-05
5.94921e-05
1.0535e-05
5.59823e-05
1.05297e-05
5.24743e-05
1.05245e-05
4.89679e-05
1.05196e-05
4.54631e-05
1.05148e-05
4.19597e-05
1.05103e-05
3.84579e-05
1.05061e-05
3.49573e-05
1.05022e-05
3.1458e-05
1.04985e-05
2.79598e-05
1.04952e-05
2.44625e-05
1.04922e-05
2.09662e-05
1.04896e-05
1.74707e-05
1.04873e-05
1.39757e-05
1.04854e-05
1.04814e-05
1.04838e-05
6.98735e-06
1.04826e-05
3.49361e-06
1.04819e-05
1.04815e-05
3.17062e-06
-1.26842e-05
6.34136e-06
-1.26846e-05
9.51234e-06
-1.26856e-05
1.26837e-05
-1.2687e-05
1.58555e-05
-1.26889e-05
1.90279e-05
-1.26913e-05
2.22011e-05
-1.26942e-05
2.53751e-05
-1.26975e-05
2.855e-05
-1.27012e-05
3.17259e-05
-1.27054e-05
3.49031e-05
-1.271e-05
3.80815e-05
-1.2715e-05
4.12613e-05
-1.27204e-05
4.44425e-05
-1.27263e-05
4.76253e-05
-1.27325e-05
5.08098e-05
-1.2739e-05
5.3996e-05
-1.27459e-05
5.7184e-05
-1.27531e-05
6.03739e-05
-1.27606e-05
6.35658e-05
-1.27684e-05
6.67597e-05
-1.27764e-05
6.99557e-05
-1.27847e-05
7.31538e-05
-1.27932e-05
7.63541e-05
-1.28018e-05
7.95567e-05
-1.28106e-05
8.27615e-05
-1.28195e-05
8.59686e-05
-1.28285e-05
8.91779e-05
-1.28375e-05
9.23896e-05
-1.28466e-05
9.56036e-05
-1.28556e-05
9.88198e-05
-1.28645e-05
0.000102038
-1.28734e-05
0.000105259
-1.28821e-05
0.000108482
-1.28906e-05
0.000111707
-1.28989e-05
0.000114934
-1.29069e-05
0.000118163
-1.29146e-05
0.000121394
-1.29219e-05
0.000124626
-1.29287e-05
0.00012786
-1.2935e-05
0.000131096
-1.29408e-05
0.000134333
-1.2946e-05
0.000137572
-1.29505e-05
0.000140811
-1.29543e-05
0.000144051
-1.29573e-05
0.000147292
-1.29594e-05
0.000150533
-1.29606e-05
0.000153774
-1.29607e-05
0.000157015
-1.29598e-05
0.000160255
-1.29577e-05
0.000163495
-1.29543e-05
0.000166734
-1.29496e-05
0.000169971
-1.29436e-05
0.000173206
-1.2936e-05
0.000176439
-1.29268e-05
0.00017967
-1.29159e-05
0.000182897
-1.29033e-05
0.000186121
-1.28888e-05
0.000189341
-1.28724e-05
0.000192557
-1.28539e-05
0.000195767
-1.28332e-05
0.000198972
-1.28103e-05
0.00020217
-1.2785e-05
0.000205362
-1.27572e-05
0.000208546
-1.27268e-05
0.000211722
-1.26937e-05
0.000214889
-1.26578e-05
0.000218046
-1.2619e-05
0.000221193
-1.25771e-05
0.000224329
-1.25321e-05
0.000227453
-1.24838e-05
0.000230564
-1.2432e-05
0.000233661
-1.23768e-05
0.000236744
-1.2318e-05
0.000239811
-1.22553e-05
0.000242862
-1.21888e-05
0.000245895
-1.21183e-05
0.00024891
-1.20437e-05
0.000251905
-1.19648e-05
0.000254879
-1.18816e-05
0.000257832
-1.17939e-05
0.000260761
-1.17017e-05
0.000263667
-1.16047e-05
0.000266547
-1.15029e-05
0.0002694
-1.13961e-05
0.000272226
-1.12844e-05
0.000275022
-1.11674e-05
0.000277788
-1.10453e-05
0.000280522
-1.09178e-05
0.000283223
-1.07849e-05
0.00028589
-1.06465e-05
0.00028852
-1.05024e-05
0.000291114
-1.03527e-05
0.000293668
-1.01973e-05
0.000296182
-1.0036e-05
0.000298654
-9.86888e-06
0.000301084
-9.69583e-06
0.000303468
-9.51681e-06
0.000305806
-9.33179e-06
0.000308097
-9.14074e-06
0.000310338
-8.94365e-06
0.000312528
-8.7405e-06
0.000314666
-8.5313e-06
0.000316751
-8.31606e-06
0.00031878
-8.09479e-06
0.000320752
-7.86753e-06
0.000322665
-7.63432e-06
0.000324519
-7.39522e-06
0.000326312
-7.15029e-06
0.000328042
-6.8996e-06
0.000329707
-6.64325e-06
0.000331308
-6.38133e-06
0.000332841
-6.11396e-06
0.000334305
-5.84126e-06
0.000335701
-5.56338e-06
0.000337025
-5.28045e-06
0.000338277
-4.99264e-06
0.000339456
-4.70012e-06
0.000340561
-4.40308e-06
0.00034159
-4.10171e-06
0.000342542
-3.79623e-06
0.000343417
-3.48684e-06
0.000344214
-3.17379e-06
0.000344931
-2.8573e-06
0.000345568
-2.53763e-06
0.000346124
-2.21503e-06
0.000346598
-1.88978e-06
0.000346991
-1.56214e-06
0.0003473
-1.2324e-06
0.000347527
-9.00849e-07
0.00034767
-5.67773e-07
0.000347729
-2.33474e-07
0.000347704
1.01746e-07
0.000347595
4.3758e-07
0.000347402
7.73722e-07
0.000347124
1.10986e-06
0.000346762
1.44569e-06
0.000346316
1.7809e-06
0.000345786
2.11517e-06
0.000345173
2.44822e-06
0.000344476
2.77972e-06
0.000343697
3.10939e-06
0.000342836
3.43692e-06
0.000341893
3.76204e-06
0.000340869
4.08446e-06
0.000339765
4.4039e-06
0.000338582
4.7201e-06
0.000337321
5.0328e-06
0.000335982
5.34175e-06
0.000334566
5.64672e-06
0.000333076
5.94746e-06
0.000331511
6.24378e-06
0.000329873
6.53545e-06
0.000328163
6.82229e-06
0.000326382
7.10412e-06
0.000324532
7.38075e-06
0.000322614
7.65204e-06
0.00032063
7.91784e-06
0.000318581
8.17801e-06
0.000316467
8.43245e-06
0.000314292
8.68103e-06
0.000312056
8.92366e-06
0.00030976
9.16027e-06
0.000307407
9.39079e-06
0.000304998
9.61515e-06
0.000302534
9.83331e-06
0.000300018
1.00452e-05
0.000297449
1.02509e-05
0.000294831
1.04503e-05
0.000292165
1.06435e-05
0.000289452
1.08304e-05
0.000286694
1.1011e-05
0.000283892
1.11855e-05
0.000281048
1.13538e-05
0.000278164
1.15159e-05
0.000275241
1.1672e-05
0.00027228
1.18222e-05
0.000269283
1.19663e-05
0.000266252
1.21047e-05
0.000263188
1.22373e-05
0.000260092
1.23642e-05
0.000256966
1.24855e-05
0.000253811
1.26014e-05
0.000250628
1.27119e-05
0.000247419
1.28171e-05
0.000244186
1.29172e-05
0.000240928
1.30122e-05
0.000237649
1.31024e-05
0.000234348
1.31878e-05
0.000231027
1.32685e-05
0.000227686
1.33447e-05
0.000224329
1.34165e-05
0.000220954
1.3484e-05
0.000217564
1.35474e-05
0.000214159
1.36068e-05
0.00021074
1.36623e-05
0.000207308
1.3714e-05
0.000203864
1.37622e-05
0.00020041
1.38068e-05
0.000196945
1.38482e-05
0.000193471
1.38863e-05
0.000189988
1.39213e-05
0.000186497
1.39533e-05
0.000182999
1.39825e-05
0.000179494
1.4009e-05
0.000175984
1.4033e-05
0.000172468
1.40544e-05
0.000168948
1.40735e-05
0.000165424
1.40904e-05
0.000161896
1.41052e-05
0.000158364
1.4118e-05
0.000154831
1.41288e-05
0.000151295
1.41379e-05
0.000147757
1.41454e-05
0.000144218
1.41513e-05
0.000140678
1.41557e-05
0.000137137
1.41587e-05
0.000133596
1.41605e-05
0.000130055
1.4161e-05
0.000126514
1.41605e-05
0.000122973
1.4159e-05
0.000119433
1.41566e-05
0.000115894
1.41534e-05
0.000112356
1.41494e-05
0.00010882
1.41447e-05
0.000105284
1.41395e-05
0.00010175
1.41337e-05
9.82182e-05
1.41274e-05
9.46877e-05
1.41208e-05
9.1159e-05
1.41139e-05
8.76321e-05
1.41067e-05
8.41072e-05
1.40993e-05
8.05841e-05
1.40918e-05
7.70631e-05
1.40841e-05
7.3544e-05
1.40765e-05
7.00268e-05
1.40688e-05
6.65116e-05
1.40612e-05
6.29983e-05
1.40538e-05
5.94868e-05
1.40464e-05
5.59772e-05
1.40393e-05
5.24693e-05
1.40324e-05
4.89631e-05
1.40258e-05
4.54586e-05
1.40194e-05
4.19555e-05
1.40134e-05
3.84539e-05
1.40077e-05
3.49537e-05
1.40024e-05
3.14547e-05
1.39975e-05
2.79568e-05
1.39931e-05
2.44599e-05
1.39891e-05
2.09639e-05
1.39855e-05
1.74687e-05
1.39825e-05
1.39742e-05
1.39799e-05
1.04802e-05
1.39778e-05
6.98657e-06
1.39763e-05
3.49322e-06
1.39752e-05
1.39747e-05
3.17014e-06
-1.58543e-05
6.3404e-06
-1.58549e-05
9.5109e-06
-1.58561e-05
1.26818e-05
-1.58579e-05
1.58531e-05
-1.58603e-05
1.90251e-05
-1.58633e-05
2.21978e-05
-1.58668e-05
2.53713e-05
-1.5871e-05
2.85458e-05
-1.58757e-05
3.17213e-05
-1.58809e-05
3.4898e-05
-1.58867e-05
3.8076e-05
-1.5893e-05
4.12554e-05
-1.58998e-05
4.44363e-05
-1.59071e-05
4.76187e-05
-1.59149e-05
5.08028e-05
-1.59231e-05
5.39887e-05
-1.59318e-05
5.71764e-05
-1.59408e-05
6.03661e-05
-1.59502e-05
6.35577e-05
-1.596e-05
6.67514e-05
-1.59701e-05
6.99472e-05
-1.59805e-05
7.31451e-05
-1.59911e-05
7.63453e-05
-1.6002e-05
7.95478e-05
-1.6013e-05
8.27525e-05
-1.60242e-05
8.59595e-05
-1.60355e-05
8.91689e-05
-1.60469e-05
9.23806e-05
-1.60582e-05
9.55946e-05
-1.60696e-05
9.88109e-05
-1.60809e-05
0.00010203
-1.6092e-05
0.00010525
-1.6103e-05
0.000108473
-1.61137e-05
0.000111699
-1.61242e-05
0.000114926
-1.61343e-05
0.000118155
-1.61439e-05
0.000121387
-1.61531e-05
0.00012462
-1.61618e-05
0.000127855
-1.61698e-05
0.000131091
-1.61772e-05
0.000134329
-1.61838e-05
0.000137568
-1.61896e-05
0.000140808
-1.61944e-05
0.000144049
-1.61983e-05
0.00014729
-1.6201e-05
0.000150533
-1.62026e-05
0.000153775
-1.62029e-05
0.000157017
-1.62019e-05
0.000160259
-1.61994e-05
0.0001635
-1.61954e-05
0.00016674
-1.61897e-05
0.000169978
-1.61823e-05
0.000173215
-1.61729e-05
0.00017645
-1.61616e-05
0.000179683
-1.61483e-05
0.000182912
-1.61327e-05
0.000186138
-1.61147e-05
0.00018936
-1.60944e-05
0.000192577
-1.60714e-05
0.00019579
-1.60458e-05
0.000198997
-1.60173e-05
0.000202198
-1.59859e-05
0.000205392
-1.59513e-05
0.000208579
-1.59135e-05
0.000211757
-1.58724e-05
0.000214927
-1.58277e-05
0.000218088
-1.57794e-05
0.000221238
-1.57273e-05
0.000224377
-1.56712e-05
0.000227504
-1.56111e-05
0.000230619
-1.55466e-05
0.00023372
-1.54778e-05
0.000236807
-1.54045e-05
0.000239878
-1.53264e-05
0.000242932
-1.52435e-05
0.00024597
-1.51556e-05
0.000248989
-1.50626e-05
0.000251988
-1.49642e-05
0.000254967
-1.48604e-05
0.000257924
-1.4751e-05
0.000260858
-1.46359e-05
0.000263768
-1.45149e-05
0.000266653
-1.43878e-05
0.000269512
-1.42546e-05
0.000272342
-1.41151e-05
0.000275144
-1.39691e-05
0.000277915
-1.38166e-05
0.000280655
-1.36574e-05
0.000283362
-1.34915e-05
0.000286034
-1.33186e-05
0.00028867
-1.31387e-05
0.000291269
-1.29517e-05
0.000293829
-1.27575e-05
0.000296349
-1.2556e-05
0.000298827
-1.23472e-05
0.000301263
-1.2131e-05
0.000303653
-1.19072e-05
0.000305997
-1.1676e-05
0.000308294
-1.14372e-05
0.000310541
-1.11909e-05
0.000312737
-1.0937e-05
0.000314882
-1.06754e-05
0.000316972
-1.04063e-05
0.000319007
-1.01297e-05
0.000320985
-9.84555e-06
0.000322904
-9.55394e-06
0.000324764
-9.25494e-06
0.000326563
-8.94863e-06
0.000328298
-8.63511e-06
0.000329969
-8.31448e-06
0.000331575
-7.98687e-06
0.000333113
-7.65243e-06
0.000334583
-7.3113e-06
0.000335984
-6.96366e-06
0.000337313
-6.6097e-06
0.00033857
-6.24961e-06
0.000339753
-5.88362e-06
0.000340862
-5.51195e-06
0.000341895
-5.13485e-06
0.000342852
-4.75259e-06
0.00034373
-4.36542e-06
0.00034453
-3.97366e-06
0.00034525
-3.57758e-06
0.00034589
-3.17751e-06
0.000346449
-2.77377e-06
0.000346926
-2.36669e-06
0.00034732
-1.95662e-06
0.000347632
-1.5439e-06
0.00034786
-1.12891e-06
0.000348004
-7.12006e-07
0.000348064
-2.93566e-07
0.00034804
1.2603e-07
0.000347931
5.46399e-07
0.000347738
9.67155e-07
0.00034746
1.38791e-06
0.000347097
1.80827e-06
0.00034665
2.22786e-06
0.000346119
2.64628e-06
0.000345504
3.06315e-06
0.000344806
3.47808e-06
0.000344024
3.89072e-06
0.000343161
4.30068e-06
0.000342215
4.7076e-06
0.000341188
5.11114e-06
0.000340081
5.51094e-06
0.000338895
5.90667e-06
0.00033763
6.29802e-06
0.000336287
6.68465e-06
0.000334867
7.06628e-06
0.000333372
7.44263e-06
0.000331802
7.81341e-06
0.000330159
8.17836e-06
0.000328444
8.53726e-06
0.000326659
8.88985e-06
0.000324804
9.23594e-06
0.00032288
9.57533e-06
0.00032089
9.90782e-06
0.000318835
1.02333e-05
0.000316716
1.05515e-05
0.000314535
1.08624e-05
0.000312292
1.11659e-05
0.000309991
1.14618e-05
0.000307632
1.175e-05
0.000305216
1.20305e-05
0.000302746
1.23033e-05
0.000300223
1.25683e-05
0.000297649
1.28254e-05
0.000295024
1.30746e-05
0.000292352
1.3316e-05
0.000289633
1.35496e-05
0.000286868
1.37754e-05
0.00028406
1.39934e-05
0.00028121
1.42037e-05
0.00027832
1.44063e-05
0.000275391