/*--------------------------------*- C++ -*----------------------------------*\
| =========                 |                                                 |
| \\      /  F ield         | OpenFOAM: The Open Source CFD Toolbox           |
|  \\    /   O peration     | Version:  v2012                                 |
|   \\  /    A nd           | Website:  www.openfoam.com                      |
|    \\/     M anipulation  |                                                 |
\*---------------------------------------------------------------------------*/
FoamFile
{
    version     2.0;
    format      ascii;
    class       volVectorField;
    location    "20";
    object      U;
}
// * * * * * * * * * * * * * * * * * * * * * * * * * * * * * * * * * * * * * //

dimensions      [0 1 -1 0 0 0 0];


internalField   nonuniform List<vector> 
65536
(
(0.000646053 -0.000646065 0)
(0.00193818 -0.00064609 0)
(0.00323039 -0.000646138 0)
(0.00452271 -0.000646211 0)
(0.00581521 -0.000646307 0)
(0.00710792 -0.000646428 0)
(0.0084009 -0.000646571 0)
(0.00969418 -0.000646738 0)
(0.0109878 -0.000646927 0)
(0.0122819 -0.000647139 0)
(0.0135764 -0.000647372 0)
(0.0148713 -0.000647626 0)
(0.0161668 -0.000647901 0)
(0.0174629 -0.000648195 0)
(0.0187596 -0.000648508 0)
(0.0200569 -0.000648839 0)
(0.021355 -0.000649187 0)
(0.0226537 -0.000649552 0)
(0.0239531 -0.000649931 0)
(0.0252534 -0.000650324 0)
(0.0265544 -0.00065073 0)
(0.0278563 -0.000651147 0)
(0.029159 -0.000651574 0)
(0.0304626 -0.00065201 0)
(0.031767 -0.000652454 0)
(0.0330724 -0.000652902 0)
(0.0343787 -0.000653355 0)
(0.0356858 -0.00065381 0)
(0.0369939 -0.000654266 0)
(0.0383029 -0.00065472 0)
(0.0396128 -0.00065517 0)
(0.0409236 -0.000655615 0)
(0.0422352 -0.000656053 0)
(0.0435478 -0.00065648 0)
(0.0448612 -0.000656895 0)
(0.0461754 -0.000657296 0)
(0.0474904 -0.000657679 0)
(0.0488061 -0.000658042 0)
(0.0501226 -0.000658383 0)
(0.0514397 -0.000658698 0)
(0.0527574 -0.000658985 0)
(0.0540757 -0.000659241 0)
(0.0553944 -0.000659462 0)
(0.0567135 -0.000659645 0)
(0.058033 -0.000659787 0)
(0.0593527 -0.000659884 0)
(0.0606726 -0.000659933 0)
(0.0619925 -0.00065993 0)
(0.0633124 -0.000659871 0)
(0.0646321 -0.000659753 0)
(0.0659515 -0.000659571 0)
(0.0672704 -0.000659321 0)
(0.0685888 -0.000658999 0)
(0.0699065 -0.0006586 0)
(0.0712233 -0.00065812 0)
(0.0725391 -0.000657555 0)
(0.0738536 -0.000656899 0)
(0.0751668 -0.000656147 0)
(0.0764783 -0.000655296 0)
(0.077788 -0.000654339 0)
(0.0790958 -0.000653272 0)
(0.0804012 -0.000652088 0)
(0.0817042 -0.000650784 0)
(0.0830045 -0.000649353 0)
(0.0843018 -0.00064779 0)
(0.0855958 -0.00064609 0)
(0.0868863 -0.000644245 0)
(0.0881729 -0.000642252 0)
(0.0894555 -0.000640103 0)
(0.0907335 -0.000637793 0)
(0.0920068 -0.000635316 0)
(0.093275 -0.000632665 0)
(0.0945376 -0.000629836 0)
(0.0957945 -0.000626821 0)
(0.0970451 -0.000623615 0)
(0.0982891 -0.000620211 0)
(0.0995262 -0.000616604 0)
(0.100756 -0.000612787 0)
(0.101978 -0.000608754 0)
(0.103191 -0.0006045 0)
(0.104396 -0.000600017 0)
(0.105591 -0.000595301 0)
(0.106777 -0.000590346 0)
(0.107953 -0.000585146 0)
(0.109118 -0.000579695 0)
(0.110272 -0.000573988 0)
(0.111414 -0.00056802 0)
(0.112544 -0.000561786 0)
(0.113662 -0.00055528 0)
(0.114766 -0.000548499 0)
(0.115856 -0.000541437 0)
(0.116932 -0.000534091 0)
(0.117993 -0.000526457 0)
(0.119038 -0.000518531 0)
(0.120067 -0.00051031 0)
(0.121079 -0.000501791 0)
(0.122074 -0.000492971 0)
(0.123052 -0.000483849 0)
(0.12401 -0.000474422 0)
(0.12495 -0.00046469 0)
(0.125869 -0.000454651 0)
(0.126769 -0.000444305 0)
(0.127647 -0.000433652 0)
(0.128503 -0.000422693 0)
(0.129338 -0.000411428 0)
(0.130149 -0.00039986 0)
(0.130938 -0.00038799 0)
(0.131702 -0.000375822 0)
(0.132441 -0.000363359 0)
(0.133155 -0.000350604 0)
(0.133844 -0.000337562 0)
(0.134506 -0.000324238 0)
(0.135141 -0.000310639 0)
(0.135749 -0.00029677 0)
(0.136328 -0.000282638 0)
(0.13688 -0.000268251 0)
(0.137402 -0.000253617 0)
(0.137894 -0.000238745 0)
(0.138357 -0.000223645 0)
(0.138789 -0.000208325 0)
(0.13919 -0.000192798 0)
(0.13956 -0.000177073 0)
(0.139899 -0.000161162 0)
(0.140205 -0.000145078 0)
(0.140479 -0.000128834 0)
(0.140721 -0.000112441 0)
(0.140929 -9.59145e-05 0)
(0.141105 -7.92673e-05 0)
(0.141246 -6.25139e-05 0)
(0.141355 -4.56689e-05 0)
(0.141429 -2.8747e-05 0)
(0.14147 -1.17635e-05 0)
(0.141476 5.26657e-06 0)
(0.141449 2.23276e-05 0)
(0.141387 3.94041e-05 0)
(0.141291 5.64804e-05 0)
(0.141161 7.35409e-05 0)
(0.140997 9.05699e-05 0)
(0.140799 0.000107552 0)
(0.140567 0.000124471 0)
(0.140301 0.000141313 0)
(0.140001 0.000158062 0)
(0.139668 0.000174703 0)
(0.139302 0.000191222 0)
(0.138903 0.000207604 0)
(0.138472 0.000223836 0)
(0.138008 0.000239904 0)
(0.137512 0.000255795 0)
(0.136984 0.000271497 0)
(0.136426 0.000286997 0)
(0.135836 0.000302283 0)
(0.135216 0.000317346 0)
(0.134567 0.000332173 0)
(0.133887 0.000346756 0)
(0.133179 0.000361086 0)
(0.132443 0.000375152 0)
(0.131678 0.000388949 0)
(0.130887 0.000402467 0)
(0.130068 0.000415701 0)
(0.129224 0.000428644 0)
(0.128353 0.000441291 0)
(0.127458 0.000453637 0)
(0.126539 0.000465678 0)
(0.125595 0.000477409 0)
(0.124629 0.00048883 0)
(0.12364 0.000499936 0)
(0.122629 0.000510726 0)
(0.121596 0.000521199 0)
(0.120543 0.000531355 0)
(0.119471 0.000541193 0)
(0.118378 0.000550715 0)
(0.117267 0.000559919 0)
(0.116138 0.00056881 0)
(0.114992 0.000577387 0)
(0.113829 0.000585654 0)
(0.112649 0.000593614 0)
(0.111454 0.000601269 0)
(0.110244 0.000608623 0)
(0.109019 0.000615681 0)
(0.107781 0.000622446 0)
(0.106529 0.000628922 0)
(0.105265 0.000635116 0)
(0.103988 0.000641031 0)
(0.1027 0.000646674 0)
(0.101401 0.000652049 0)
(0.100092 0.000657163 0)
(0.0987723 0.000662022 0)
(0.0974434 0.000666631 0)
(0.0961055 0.000670996 0)
(0.0947592 0.000675125 0)
(0.0934048 0.000679024 0)
(0.0920428 0.000682698 0)
(0.0906738 0.000686155 0)
(0.089298 0.000689402 0)
(0.087916 0.000692444 0)
(0.086528 0.000695289 0)
(0.0851346 0.000697944 0)
(0.0837361 0.000700414 0)
(0.0823328 0.000702707 0)
(0.0809251 0.00070483 0)
(0.0795133 0.000706788 0)
(0.0780978 0.000708589 0)
(0.0766788 0.000710239 0)
(0.0752567 0.000711745 0)
(0.0738317 0.000713112 0)
(0.0724041 0.000714347 0)
(0.0709742 0.000715457 0)
(0.0695421 0.000716446 0)
(0.0681083 0.000717322 0)
(0.0666727 0.000718091 0)
(0.0652358 0.000718757 0)
(0.0637976 0.000719326 0)
(0.0623584 0.000719805 0)
(0.0609183 0.000720198 0)
(0.0594775 0.000720511 0)
(0.0580362 0.000720749 0)
(0.0565945 0.000720917 0)
(0.0551525 0.00072102 0)
(0.0537103 0.000721063 0)
(0.0522682 0.00072105 0)
(0.0508261 0.000720985 0)
(0.0493842 0.000720874 0)
(0.0479425 0.00072072 0)
(0.0465012 0.000720528 0)
(0.0450604 0.000720301 0)
(0.04362 0.000720043 0)
(0.0421802 0.000719759 0)
(0.040741 0.000719451 0)
(0.0393024 0.000719123 0)
(0.0378645 0.000718778 0)
(0.0364272 0.00071842 0)
(0.0349908 0.000718051 0)
(0.033555 0.000717675 0)
(0.0321201 0.000717294 0)
(0.0306859 0.000716911 0)
(0.0292524 0.000716528 0)
(0.0278197 0.000716148 0)
(0.0263878 0.000715773 0)
(0.0249567 0.000715406 0)
(0.0235262 0.000715048 0)
(0.0220965 0.000714701 0)
(0.0206674 0.000714367 0)
(0.019239 0.000714048 0)
(0.0178113 0.000713745 0)
(0.0163841 0.00071346 0)
(0.0149574 0.000713194 0)
(0.0135313 0.000712949 0)
(0.0121057 0.000712725 0)
(0.0106804 0.000712523 0)
(0.00925559 0.000712345 0)
(0.00783108 0.00071219 0)
(0.00640686 0.00071206 0)
(0.00498286 0.000711956 0)
(0.00355906 0.000711877 0)
(0.00213538 0.000711825 0)
(0.000711785 0.000711798 0)
(0.000646029 -0.00193817 0)
(0.00193811 -0.00193825 0)
(0.00323027 -0.00193839 0)
(0.00452255 -0.00193861 0)
(0.00581499 -0.0019389 0)
(0.00710766 -0.00193926 0)
(0.00840059 -0.00193969 0)
(0.00969383 -0.00194019 0)
(0.0109874 -0.00194076 0)
(0.0122814 -0.0019414 0)
(0.0135759 -0.0019421 0)
(0.0148708 -0.00194286 0)
(0.0161663 -0.00194368 0)
(0.0174623 -0.00194457 0)
(0.018759 -0.00194551 0)
(0.0200563 -0.0019465 0)
(0.0213542 -0.00194755 0)
(0.0226529 -0.00194864 0)
(0.0239524 -0.00194978 0)
(0.0252526 -0.00195096 0)
(0.0265536 -0.00195218 0)
(0.0278555 -0.00195343 0)
(0.0291582 -0.00195472 0)
(0.0304617 -0.00195602 0)
(0.0317662 -0.00195736 0)
(0.0330715 -0.0019587 0)
(0.0343778 -0.00196006 0)
(0.0356849 -0.00196143 0)
(0.036993 -0.0019628 0)
(0.038302 -0.00196416 0)
(0.0396119 -0.00196552 0)
(0.0409227 -0.00196685 0)
(0.0422344 -0.00196817 0)
(0.043547 -0.00196945 0)
(0.0448604 -0.0019707 0)
(0.0461746 -0.00197191 0)
(0.0474896 -0.00197306 0)
(0.0488054 -0.00197415 0)
(0.0501219 -0.00197518 0)
(0.0514391 -0.00197612 0)
(0.0527569 -0.00197699 0)
(0.0540752 -0.00197776 0)
(0.055394 -0.00197842 0)
(0.0567132 -0.00197898 0)
(0.0580328 -0.00197941 0)
(0.0593526 -0.0019797 0)
(0.0606726 -0.00197985 0)
(0.0619926 -0.00197985 0)
(0.0633126 -0.00197968 0)
(0.0646324 -0.00197932 0)
(0.0659519 -0.00197878 0)
(0.067271 -0.00197804 0)
(0.0685896 -0.00197707 0)
(0.0699074 -0.00197588 0)
(0.0712244 -0.00197445 0)
(0.0725403 -0.00197276 0)
(0.073855 -0.00197079 0)
(0.0751684 -0.00196854 0)
(0.0764801 -0.00196599 0)
(0.0777901 -0.00196313 0)
(0.0790981 -0.00195993 0)
(0.0804038 -0.00195639 0)
(0.081707 -0.00195248 0)
(0.0830075 -0.00194819 0)
(0.0843051 -0.00194351 0)
(0.0855994 -0.00193841 0)
(0.0868902 -0.00193289 0)
(0.0881771 -0.00192691 0)
(0.08946 -0.00192047 0)
(0.0907383 -0.00191355 0)
(0.092012 -0.00190612 0)
(0.0932805 -0.00189818 0)
(0.0945435 -0.00188969 0)
(0.0958008 -0.00188066 0)
(0.0970518 -0.00187104 0)
(0.0982962 -0.00186084 0)
(0.0995336 -0.00185002 0)
(0.100764 -0.00183858 0)
(0.101986 -0.00182649 0)
(0.1032 -0.00181373 0)
(0.104405 -0.00180029 0)
(0.105601 -0.00178614 0)
(0.106787 -0.00177128 0)
(0.107964 -0.00175569 0)
(0.109129 -0.00173934 0)
(0.110284 -0.00172223 0)
(0.111427 -0.00170433 0)
(0.112557 -0.00168563 0)
(0.113675 -0.00166612 0)
(0.11478 -0.00164578 0)
(0.11587 -0.0016246 0)
(0.116947 -0.00160256 0)
(0.118008 -0.00157966 0)
(0.119054 -0.00155589 0)
(0.120084 -0.00153123 0)
(0.121097 -0.00150567 0)
(0.122092 -0.00147922 0)
(0.12307 -0.00145185 0)
(0.124029 -0.00142357 0)
(0.124969 -0.00139438 0)
(0.12589 -0.00136426 0)
(0.12679 -0.00133322 0)
(0.127668 -0.00130126 0)
(0.128526 -0.00126838 0)
(0.129361 -0.00123459 0)
(0.130173 -0.00119988 0)
(0.130962 -0.00116427 0)
(0.131726 -0.00112776 0)
(0.132466 -0.00109037 0)
(0.133181 -0.0010521 0)
(0.13387 -0.00101297 0)
(0.134533 -0.000972991 0)
(0.135169 -0.000932186 0)
(0.135777 -0.000890571 0)
(0.136357 -0.000848168 0)
(0.136909 -0.000804999 0)
(0.137431 -0.000761089 0)
(0.137924 -0.000716463 0)
(0.138387 -0.000671151 0)
(0.13882 -0.000625182 0)
(0.139222 -0.000578588 0)
(0.139592 -0.000531402 0)
(0.139931 -0.000483658 0)
(0.140238 -0.000435394 0)
(0.140512 -0.000386647 0)
(0.140754 -0.000337456 0)
(0.140962 -0.000287862 0)
(0.141138 -0.000237906 0)
(0.14128 -0.000187631 0)
(0.141389 -0.000137081 0)
(0.141463 -8.63006e-05 0)
(0.141504 -3.53345e-05 0)
(0.14151 1.5771e-05 0)
(0.141483 6.69697e-05 0)
(0.141421 0.000118215 0)
(0.141325 0.000169459 0)
(0.141195 0.000220656 0)
(0.141031 0.000271759 0)
(0.140833 0.000322721 0)
(0.1406 0.000373494 0)
(0.140334 0.000424035 0)
(0.140035 0.000474296 0)
(0.139702 0.000524234 0)
(0.139335 0.000573805 0)
(0.138936 0.000622966 0)
(0.138504 0.000671675 0)
(0.13804 0.000719892 0)
(0.137544 0.000767578 0)
(0.137016 0.000814694 0)
(0.136457 0.000861205 0)
(0.135867 0.000907076 0)
(0.135246 0.000952274 0)
(0.134596 0.000996767 0)
(0.133916 0.00104053 0)
(0.133208 0.00108352 0)
(0.132471 0.00112573 0)
(0.131706 0.00116713 0)
(0.130914 0.00120769 0)
(0.130095 0.0012474 0)
(0.129249 0.00128623 0)
(0.128378 0.00132418 0)
(0.127483 0.00136122 0)
(0.126562 0.00139734 0)
(0.125618 0.00143254 0)
(0.124651 0.00146681 0)
(0.123661 0.00150013 0)
(0.12265 0.0015325 0)
(0.121617 0.00156392 0)
(0.120563 0.00159439 0)
(0.11949 0.0016239 0)
(0.118397 0.00165246 0)
(0.117286 0.00168007 0)
(0.116156 0.00170674 0)
(0.115009 0.00173247 0)
(0.113845 0.00175727 0)
(0.112665 0.00178115 0)
(0.111469 0.00180411 0)
(0.110258 0.00182617 0)
(0.109033 0.00184734 0)
(0.107794 0.00186763 0)
(0.106542 0.00188705 0)
(0.105277 0.00190563 0)
(0.104 0.00192337 0)
(0.102711 0.00194029 0)
(0.101412 0.00195641 0)
(0.100102 0.00197175 0)
(0.0987817 0.00198632 0)
(0.0974523 0.00200014 0)
(0.096114 0.00201323 0)
(0.0947672 0.00202561 0)
(0.0934123 0.0020373 0)
(0.09205 0.00204831 0)
(0.0906805 0.00205868 0)
(0.0893043 0.00206841 0)
(0.0879218 0.00207753 0)
(0.0865335 0.00208606 0)
(0.0851397 0.00209402 0)
(0.0837408 0.00210142 0)
(0.0823372 0.00210829 0)
(0.0809291 0.00211465 0)
(0.079517 0.00212052 0)
(0.0781012 0.00212592 0)
(0.0766819 0.00213086 0)
(0.0752595 0.00213537 0)
(0.0738343 0.00213947 0)
(0.0724064 0.00214317 0)
(0.0709762 0.00214649 0)
(0.069544 0.00214945 0)
(0.0681099 0.00215207 0)
(0.0666742 0.00215437 0)
(0.065237 0.00215637 0)
(0.0637986 0.00215807 0)
(0.0623593 0.0021595 0)
(0.060919 0.00216068 0)
(0.0594781 0.00216161 0)
(0.0580366 0.00216232 0)
(0.0565947 0.00216282 0)
(0.0551526 0.00216312 0)
(0.0537103 0.00216324 0)
(0.0522681 0.0021632 0)
(0.0508259 0.002163 0)
(0.0493839 0.00216266 0)
(0.0479422 0.0021622 0)
(0.0465008 0.00216162 0)
(0.0450599 0.00216093 0)
(0.0436195 0.00216016 0)
(0.0421796 0.0021593 0)
(0.0407403 0.00215837 0)
(0.0393017 0.00215738 0)
(0.0378637 0.00215635 0)
(0.0364265 0.00215527 0)
(0.03499 0.00215416 0)
(0.0335543 0.00215303 0)
(0.0321193 0.00215188 0)
(0.0306851 0.00215073 0)
(0.0292516 0.00214958 0)
(0.027819 0.00214844 0)
(0.0263871 0.00214731 0)
(0.0249559 0.00214621 0)
(0.0235255 0.00214513 0)
(0.0220958 0.00214409 0)
(0.0206668 0.00214309 0)
(0.0192384 0.00214213 0)
(0.0178107 0.00214122 0)
(0.0163835 0.00214036 0)
(0.0149569 0.00213956 0)
(0.0135308 0.00213882 0)
(0.0121052 0.00213815 0)
(0.01068 0.00213754 0)
(0.00925525 0.00213701 0)
(0.00783079 0.00213654 0)
(0.00640662 0.00213615 0)
(0.00498268 0.00213584 0)
(0.00355893 0.00213561 0)
(0.0021353 0.00213545 0)
(0.000711759 0.00213537 0)
(0.000645981 -0.00323021 0)
(0.00193797 -0.00323033 0)
(0.00323003 -0.00323057 0)
(0.00452221 -0.00323094 0)
(0.00581456 -0.00323142 0)
(0.00710713 -0.00323202 0)
(0.00839997 -0.00323274 0)
(0.00969312 -0.00323358 0)
(0.0109866 -0.00323453 0)
(0.0122805 -0.00323559 0)
(0.0135749 -0.00323676 0)
(0.0148698 -0.00323803 0)
(0.0161651 -0.00323941 0)
(0.0174611 -0.00324088 0)
(0.0187577 -0.00324245 0)
(0.0200549 -0.00324411 0)
(0.0213528 -0.00324586 0)
(0.0226514 -0.00324768 0)
(0.0239508 -0.00324959 0)
(0.025251 -0.00325156 0)
(0.026552 -0.00325359 0)
(0.0278538 -0.00325569 0)
(0.0291564 -0.00325783 0)
(0.0304599 -0.00326002 0)
(0.0317644 -0.00326224 0)
(0.0330697 -0.00326449 0)
(0.0343759 -0.00326677 0)
(0.0356831 -0.00326905 0)
(0.0369912 -0.00327134 0)
(0.0383002 -0.00327362 0)
(0.0396101 -0.00327588 0)
(0.0409209 -0.00327812 0)
(0.0422326 -0.00328032 0)
(0.0435453 -0.00328246 0)
(0.0448587 -0.00328455 0)
(0.046173 -0.00328657 0)
(0.0474881 -0.0032885 0)
(0.048804 -0.00329033 0)
(0.0501206 -0.00329204 0)
(0.0514379 -0.00329364 0)
(0.0527558 -0.00329509 0)
(0.0540742 -0.00329638 0)
(0.0553932 -0.0032975 0)
(0.0567126 -0.00329843 0)
(0.0580323 -0.00329916 0)
(0.0593523 -0.00329966 0)
(0.0606725 -0.00329993 0)
(0.0619927 -0.00329993 0)
(0.0633129 -0.00329966 0)
(0.064633 -0.00329909 0)
(0.0659527 -0.0032982 0)
(0.0672721 -0.00329697 0)
(0.068591 -0.00329538 0)
(0.0699091 -0.00329341 0)
(0.0712264 -0.00329103 0)
(0.0725427 -0.00328823 0)
(0.0738578 -0.00328497 0)
(0.0751716 -0.00328124 0)
(0.0764837 -0.00327701 0)
(0.0777941 -0.00327225 0)
(0.0791025 -0.00326694 0)
(0.0804087 -0.00326105 0)
(0.0817124 -0.00325456 0)
(0.0830135 -0.00324743 0)
(0.0843116 -0.00323964 0)
(0.0856064 -0.00323117 0)
(0.0868978 -0.00322198 0)
(0.0881854 -0.00321204 0)
(0.0894688 -0.00320132 0)
(0.0907479 -0.0031898 0)
(0.0920222 -0.00317745 0)
(0.0932914 -0.00316423 0)
(0.0945552 -0.00315011 0)
(0.0958132 -0.00313507 0)
(0.097065 -0.00311907 0)
(0.0983102 -0.00310208 0)
(0.0995484 -0.00308407 0)
(0.100779 -0.00306502 0)
(0.102002 -0.00304488 0)
(0.103217 -0.00302364 0)
(0.104423 -0.00300126 0)
(0.10562 -0.00297771 0)
(0.106808 -0.00295296 0)
(0.107985 -0.00292698 0)
(0.109152 -0.00289976 0)
(0.110307 -0.00287125 0)
(0.111451 -0.00284143 0)
(0.112583 -0.00281029 0)
(0.113702 -0.00277778 0)
(0.114807 -0.0027439 0)
(0.115899 -0.00270861 0)
(0.116977 -0.0026719 0)
(0.118039 -0.00263375 0)
(0.119086 -0.00259413 0)
(0.120117 -0.00255304 0)
(0.121131 -0.00251046 0)
(0.122128 -0.00246637 0)
(0.123107 -0.00242077 0)
(0.124068 -0.00237364 0)
(0.125009 -0.00232498 0)
(0.12593 -0.00227479 0)
(0.126832 -0.00222306 0)
(0.127712 -0.00216979 0)
(0.12857 -0.00211499 0)
(0.129406 -0.00205866 0)
(0.13022 -0.00200081 0)
(0.13101 -0.00194145 0)
(0.131776 -0.00188059 0)
(0.132517 -0.00181825 0)
(0.133233 -0.00175445 0)
(0.133923 -0.00168922 0)
(0.134587 -0.00162257 0)
(0.135224 -0.00155454 0)
(0.135833 -0.00148516 0)
(0.136414 -0.00141446 0)
(0.136967 -0.00134249 0)
(0.13749 -0.00126928 0)
(0.137984 -0.00119487 0)
(0.138448 -0.00111931 0)
(0.138882 -0.00104266 0)
(0.139284 -0.000964971 0)
(0.139655 -0.000886288 0)
(0.139995 -0.000806675 0)
(0.140302 -0.000726193 0)
(0.140577 -0.000644904 0)
(0.14082 -0.000562874 0)
(0.141029 -0.000480171 0)
(0.141205 -0.000396864 0)
(0.141347 -0.000313024 0)
(0.141456 -0.000228724 0)
(0.141531 -0.00014404 0)
(0.141572 -5.90453e-05 0)
(0.141579 2.61821e-05 0)
(0.141551 0.000111565 0)
(0.14149 0.000197026 0)
(0.141394 0.000282486 0)
(0.141263 0.000367866 0)
(0.141099 0.000453089 0)
(0.140901 0.000538077 0)
(0.140668 0.000622751 0)
(0.140402 0.000707035 0)
(0.140102 0.000790854 0)
(0.139768 0.000874133 0)
(0.139401 0.000956798 0)
(0.139001 0.00103878 0)
(0.138569 0.00112001 0)
(0.138104 0.00120041 0)
(0.137607 0.00127993 0)
(0.137078 0.0013585 0)
(0.136518 0.00143605 0)
(0.135927 0.00151254 0)
(0.135306 0.00158791 0)
(0.134655 0.00166209 0)
(0.133974 0.00173506 0)
(0.133265 0.00180675 0)
(0.132527 0.00187712 0)
(0.13176 0.00194614 0)
(0.130967 0.00201376 0)
(0.130147 0.00207996 0)
(0.129301 0.00214471 0)
(0.128428 0.00220797 0)
(0.127531 0.00226972 0)
(0.12661 0.00232994 0)
(0.125665 0.00238861 0)
(0.124696 0.00244572 0)
(0.123705 0.00250126 0)
(0.122692 0.00255522 0)
(0.121658 0.00260759 0)
(0.120603 0.00265837 0)
(0.119529 0.00270756 0)
(0.118435 0.00275516 0)
(0.117322 0.00280118 0)
(0.116191 0.00284562 0)
(0.115042 0.00288849 0)
(0.113877 0.00292981 0)
(0.112696 0.00296959 0)
(0.111499 0.00300785 0)
(0.110287 0.0030446 0)
(0.10906 0.00307987 0)
(0.10782 0.00311367 0)
(0.106567 0.00314603 0)
(0.105301 0.00317697 0)
(0.104023 0.00320652 0)
(0.102733 0.00323471 0)
(0.101433 0.00326156 0)
(0.100122 0.0032871 0)
(0.0988007 0.00331136 0)
(0.0974703 0.00333437 0)
(0.096131 0.00335617 0)
(0.0947832 0.00337678 0)
(0.0934275 0.00339624 0)
(0.0920642 0.00341458 0)
(0.0906938 0.00343183 0)
(0.0893168 0.00344803 0)
(0.0879336 0.00346321 0)
(0.0865445 0.0034774 0)
(0.0851499 0.00349064 0)
(0.0837503 0.00350296 0)
(0.082346 0.00351439 0)
(0.0809373 0.00352497 0)
(0.0795245 0.00353473 0)
(0.0781081 0.0035437 0)
(0.0766882 0.00355192 0)
(0.0752652 0.00355941 0)
(0.0738394 0.00356622 0)
(0.0724111 0.00357236 0)
(0.0709804 0.00357788 0)
(0.0695477 0.0035828 0)
(0.0681132 0.00358715 0)
(0.066677 0.00359096 0)
(0.0652395 0.00359427 0)
(0.0638007 0.00359709 0)
(0.062361 0.00359945 0)
(0.0609204 0.00360139 0)
(0.0594791 0.00360293 0)
(0.0580374 0.0036041 0)
(0.0565952 0.00360491 0)
(0.0551529 0.0036054 0)
(0.0537104 0.00360559 0)
(0.0522679 0.0036055 0)
(0.0508255 0.00360516 0)
(0.0493833 0.00360458 0)
(0.0479415 0.00360379 0)
(0.0465 0.00360281 0)
(0.0450589 0.00360166 0)
(0.0436184 0.00360035 0)
(0.0421784 0.00359891 0)
(0.040739 0.00359735 0)
(0.0393003 0.0035957 0)
(0.0378623 0.00359396 0)
(0.036425 0.00359215 0)
(0.0349885 0.00359029 0)
(0.0335527 0.0035884 0)
(0.0321177 0.00358648 0)
(0.0306835 0.00358455 0)
(0.0292501 0.00358262 0)
(0.0278175 0.00358071 0)
(0.0263856 0.00357883 0)
(0.0249545 0.00357698 0)
(0.0235241 0.00357518 0)
(0.0220944 0.00357344 0)
(0.0206655 0.00357176 0)
(0.0192372 0.00357016 0)
(0.0178095 0.00356864 0)
(0.0163824 0.0035672 0)
(0.0149559 0.00356587 0)
(0.0135299 0.00356464 0)
(0.0121044 0.00356351 0)
(0.0106793 0.0035625 0)
(0.00925459 0.0035616 0)
(0.00783022 0.00356082 0)
(0.00640615 0.00356017 0)
(0.00498231 0.00355965 0)
(0.00355866 0.00355926 0)
(0.00213514 0.00355899 0)
(0.000711706 0.00355886 0)
(0.000645907 -0.00452212 0)
(0.00193775 -0.00452229 0)
(0.00322966 -0.00452263 0)
(0.0045217 -0.00452314 0)
(0.0058139 -0.00452382 0)
(0.00710633 -0.00452467 0)
(0.00839903 -0.00452568 0)
(0.00969204 -0.00452685 0)
(0.0109854 -0.00452818 0)
(0.0122792 -0.00452967 0)
(0.0135734 -0.00453131 0)
(0.0148682 -0.0045331 0)
(0.0161634 -0.00453503 0)
(0.0174593 -0.0045371 0)
(0.0187557 -0.00453931 0)
(0.0200529 -0.00454164 0)
(0.0213507 -0.00454409 0)
(0.0226492 -0.00454665 0)
(0.0239485 -0.00454932 0)
(0.0252486 -0.00455209 0)
(0.0265495 -0.00455495 0)
(0.0278512 -0.00455789 0)
(0.0291538 -0.0045609 0)
(0.0304573 -0.00456397 0)
(0.0317617 -0.0045671 0)
(0.033067 -0.00457026 0)
(0.0343732 -0.00457346 0)
(0.0356803 -0.00457667 0)
(0.0369884 -0.00457988 0)
(0.0382974 -0.00458309 0)
(0.0396074 -0.00458627 0)
(0.0409182 -0.00458942 0)
(0.04223 -0.00459251 0)
(0.0435427 -0.00459553 0)
(0.0448562 -0.00459847 0)
(0.0461706 -0.00460131 0)
(0.0474859 -0.00460403 0)
(0.0488019 -0.00460661 0)
(0.0501186 -0.00460904 0)
(0.051436 -0.00461129 0)
(0.0527541 -0.00461334 0)
(0.0540727 -0.00461517 0)
(0.0553919 -0.00461676 0)
(0.0567115 -0.00461809 0)
(0.0580315 -0.00461914 0)
(0.0593518 -0.00461987 0)
(0.0606723 -0.00462026 0)
(0.0619928 -0.0046203 0)
(0.0633134 -0.00461994 0)
(0.0646338 -0.00461917 0)
(0.065954 -0.00461795 0)
(0.0672738 -0.00461626 0)
(0.0685931 -0.00461407 0)
(0.0699117 -0.00461134 0)
(0.0712295 -0.00460805 0)
(0.0725463 -0.00460415 0)
(0.073862 -0.00459963 0)
(0.0751763 -0.00459444 0)
(0.0764891 -0.00458855 0)
(0.0778001 -0.00458192 0)
(0.0791092 -0.00457453 0)
(0.0804161 -0.00456632 0)
(0.0817206 -0.00455727 0)
(0.0830224 -0.00454733 0)
(0.0843213 -0.00453647 0)
(0.085617 -0.00452464 0)
(0.0869092 -0.00451181 0)
(0.0881977 -0.00449794 0)
(0.0894821 -0.00448298 0)
(0.0907621 -0.00446689 0)
(0.0920375 -0.00444964 0)
(0.0933077 -0.00443117 0)
(0.0945726 -0.00441145 0)
(0.0958317 -0.00439043 0)
(0.0970847 -0.00436807 0)
(0.0983311 -0.00434433 0)
(0.0995706 -0.00431917 0)
(0.100803 -0.00429253 0)
(0.102027 -0.00426439 0)
(0.103243 -0.00423469 0)
(0.104451 -0.0042034 0)
(0.105649 -0.00417047 0)
(0.106838 -0.00413586 0)
(0.108017 -0.00409953 0)
(0.109185 -0.00406145 0)
(0.110342 -0.00402158 0)
(0.111487 -0.00397987 0)
(0.112621 -0.0039363 0)
(0.113741 -0.00389083 0)
(0.114849 -0.00384342 0)
(0.115942 -0.00379405 0)
(0.117022 -0.00374268 0)
(0.118086 -0.00368929 0)
(0.119135 -0.00363385 0)
(0.120167 -0.00357634 0)
(0.121183 -0.00351675 0)
(0.122182 -0.00345504 0)
(0.123163 -0.00339121 0)
(0.124125 -0.00332524 0)
(0.125068 -0.00325713 0)
(0.125992 -0.00318686 0)
(0.126895 -0.00311443 0)
(0.127776 -0.00303986 0)
(0.128637 -0.00296313 0)
(0.129475 -0.00288425 0)
(0.13029 -0.00280324 0)
(0.131082 -0.00272012 0)
(0.13185 -0.00263489 0)
(0.132593 -0.00254759 0)
(0.13331 -0.00245825 0)
(0.134002 -0.00236688 0)
(0.134668 -0.00227354 0)
(0.135306 -0.00217825 0)
(0.135917 -0.00208107 0)
(0.1365 -0.00198204 0)
(0.137054 -0.00188122 0)
(0.137579 -0.00177866 0)
(0.138074 -0.00167442 0)
(0.13854 -0.00156858 0)
(0.138974 -0.00146119 0)
(0.139378 -0.00135234 0)
(0.13975 -0.00124211 0)
(0.140091 -0.00113056 0)
(0.140399 -0.0010178 0)
(0.140675 -0.000903903 0)
(0.140919 -0.000788967 0)
(0.141129 -0.000673085 0)
(0.141305 -0.000556355 0)
(0.141448 -0.000438877 0)
(0.141558 -0.000320753 0)
(0.141633 -0.000202089 0)
(0.141674 -8.29896e-05 0)
(0.141681 3.64371e-05 0)
(0.141654 0.000156082 0)
(0.141592 0.000275837 0)
(0.141496 0.000395591 0)
(0.141366 0.000515233 0)
(0.141201 0.000634655 0)
(0.141002 0.000753745 0)
(0.140769 0.000872396 0)
(0.140503 0.0009905 0)
(0.140202 0.00110795 0)
(0.139868 0.00122464 0)
(0.1395 0.00134047 0)
(0.139099 0.00145535 0)
(0.138666 0.00156916 0)
(0.1382 0.00168182 0)
(0.137702 0.00179323 0)
(0.137172 0.00190331 0)
(0.136611 0.00201197 0)
(0.136019 0.00211913 0)
(0.135396 0.00222471 0)
(0.134743 0.00232865 0)
(0.134061 0.00243086 0)
(0.13335 0.00253128 0)
(0.13261 0.00262987 0)
(0.131843 0.00272654 0)
(0.131047 0.00282127 0)
(0.130226 0.00291399 0)
(0.129377 0.00300467 0)
(0.128504 0.00309326 0)
(0.127605 0.00317974 0)
(0.126681 0.00326408 0)
(0.125734 0.00334624 0)
(0.124764 0.00342621 0)
(0.123771 0.00350398 0)
(0.122756 0.00357953 0)
(0.12172 0.00365285 0)
(0.120663 0.00372394 0)
(0.119587 0.0037928 0)
(0.118491 0.00385944 0)
(0.117376 0.00392385 0)
(0.116243 0.00398605 0)
(0.115093 0.00404606 0)
(0.113926 0.00410389 0)
(0.112743 0.00415957 0)
(0.111544 0.0042131 0)
(0.11033 0.00426453 0)
(0.109102 0.00431387 0)
(0.10786 0.00436116 0)
(0.106605 0.00440643 0)
(0.105337 0.00444971 0)
(0.104057 0.00449104 0)
(0.102766 0.00453046 0)
(0.101464 0.00456801 0)
(0.100151 0.00460372 0)
(0.098829 0.00463765 0)
(0.0974971 0.00466982 0)
(0.0961564 0.00470029 0)
(0.0948072 0.00472911 0)
(0.0934501 0.0047563 0)
(0.0920855 0.00478193 0)
(0.0907139 0.00480604 0)
(0.0893356 0.00482867 0)
(0.0879512 0.00484987 0)
(0.0865609 0.0048697 0)
(0.0851653 0.00488818 0)
(0.0837646 0.00490538 0)
(0.0823592 0.00492134 0)
(0.0809495 0.00493611 0)
(0.0795357 0.00494972 0)
(0.0781184 0.00496224 0)
(0.0766976 0.0049737 0)
(0.0752738 0.00498415 0)
(0.0738472 0.00499363 0)
(0.0724181 0.00500219 0)
(0.0709867 0.00500987 0)
(0.0695532 0.00501672 0)
(0.068118 0.00502277 0)
(0.0666813 0.00502806 0)
(0.0652431 0.00503265 0)
(0.0638038 0.00503656 0)
(0.0623635 0.00503983 0)
(0.0609225 0.00504251 0)
(0.0594807 0.00504463 0)
(0.0580385 0.00504622 0)
(0.056596 0.00504733 0)
(0.0551533 0.00504798 0)
(0.0537104 0.00504822 0)
(0.0522676 0.00504806 0)
(0.0508249 0.00504755 0)
(0.0493825 0.00504671 0)
(0.0479404 0.00504558 0)
(0.0464987 0.00504417 0)
(0.0450574 0.00504253 0)
(0.0436167 0.00504068 0)
(0.0421766 0.00503864 0)
(0.0407371 0.00503643 0)
(0.0392983 0.00503409 0)
(0.0378602 0.00503163 0)
(0.0364228 0.00502908 0)
(0.0349862 0.00502646 0)
(0.0335504 0.00502379 0)
(0.0321154 0.00502108 0)
(0.0306812 0.00501837 0)
(0.0292478 0.00501565 0)
(0.0278152 0.00501296 0)
(0.0263833 0.00501031 0)
(0.0249523 0.00500771 0)
(0.023522 0.00500517 0)
(0.0220924 0.00500272 0)
(0.0206635 0.00500036 0)
(0.0192353 0.00499811 0)
(0.0178077 0.00499597 0)
(0.0163807 0.00499395 0)
(0.0149543 0.00499207 0)
(0.0135285 0.00499034 0)
(0.0121031 0.00498876 0)
(0.0106781 0.00498733 0)
(0.00925358 0.00498607 0)
(0.00782937 0.00498498 0)
(0.00640544 0.00498407 0)
(0.00498176 0.00498333 0)
(0.00355827 0.00498277 0)
(0.00213491 0.0049824 0)
(0.000711626 0.00498222 0)
(0.000645809 -0.00581386 0)
(0.00193745 -0.00581408 0)
(0.00322917 -0.00581452 0)
(0.00452101 -0.00581518 0)
(0.00581303 -0.00581606 0)
(0.00710527 -0.00581715 0)
(0.00839777 -0.00581845 0)
(0.0096906 -0.00581996 0)
(0.0109838 -0.00582168 0)
(0.0122774 -0.0058236 0)
(0.0135715 -0.00582572 0)
(0.014866 -0.00582803 0)
(0.0161611 -0.00583052 0)
(0.0174568 -0.00583319 0)
(0.0187531 -0.00583604 0)
(0.0200501 -0.00583904 0)
(0.0213478 -0.0058422 0)
(0.0226462 -0.00584551 0)
(0.0239454 -0.00584896 0)
(0.0252453 -0.00585253 0)
(0.0265461 -0.00585623 0)
(0.0278478 -0.00586002 0)
(0.0291503 -0.00586391 0)
(0.0304537 -0.00586788 0)
(0.031758 -0.00587191 0)
(0.0330633 -0.005876 0)
(0.0343695 -0.00588013 0)
(0.0356766 -0.00588428 0)
(0.0369847 -0.00588844 0)
(0.0382937 -0.00589258 0)
(0.0396037 -0.0058967 0)
(0.0409146 -0.00590077 0)
(0.0422265 -0.00590477 0)
(0.0435393 -0.00590869 0)
(0.0448529 -0.0059125 0)
(0.0461674 -0.00591618 0)
(0.0474828 -0.00591971 0)
(0.048799 -0.00592306 0)
(0.0501159 -0.00592621 0)
(0.0514335 -0.00592914 0)
(0.0527518 -0.00593181 0)
(0.0540707 -0.0059342 0)
(0.0553902 -0.00593629 0)
(0.0567101 -0.00593804 0)
(0.0580305 -0.00593942 0)
(0.0593511 -0.00594041 0)
(0.060672 -0.00594096 0)
(0.061993 -0.00594105 0)
(0.063314 -0.00594064 0)
(0.0646349 -0.00593969 0)
(0.0659556 -0.00593818 0)
(0.0672759 -0.00593606 0)
(0.0685958 -0.00593329 0)
(0.0699151 -0.00592984 0)
(0.0712335 -0.00592566 0)
(0.0725511 -0.00592071 0)
(0.0738675 -0.00591495 0)
(0.0751826 -0.00590834 0)
(0.0764962 -0.00590082 0)
(0.077808 -0.00589237 0)
(0.079118 -0.00588292 0)
(0.0804259 -0.00587243 0)
(0.0817313 -0.00586086 0)
(0.0830342 -0.00584815 0)
(0.0843342 -0.00583425 0)
(0.085631 -0.00581912 0)
(0.0869244 -0.00580269 0)
(0.0882141 -0.00578492 0)
(0.0894998 -0.00576576 0)
(0.0907811 -0.00574515 0)
(0.0920578 -0.00572304 0)
(0.0933295 -0.00569937 0)
(0.0945958 -0.00567409 0)
(0.0958564 -0.00564714 0)
(0.0971109 -0.00561847 0)
(0.098359 -0.00558802 0)
(0.0996001 -0.00555573 0)
(0.100834 -0.00552156 0)
(0.10206 -0.00548545 0)
(0.103278 -0.00544733 0)
(0.104487 -0.00540717 0)
(0.105688 -0.0053649 0)
(0.106879 -0.00532047 0)
(0.108059 -0.00527384 0)
(0.109229 -0.00522494 0)
(0.110389 -0.00517374 0)
(0.111536 -0.00512018 0)
(0.112672 -0.00506422 0)
(0.113794 -0.00500581 0)
(0.114904 -0.00494491 0)
(0.116 -0.00488148 0)
(0.117081 -0.00481548 0)
(0.118148 -0.00474688 0)
(0.119199 -0.00467564 0)
(0.120234 -0.00460174 0)
(0.121253 -0.00452514 0)
(0.122254 -0.00444583 0)
(0.123237 -0.00436379 0)
(0.124202 -0.00427899 0)
(0.125147 -0.00419142 0)
(0.126073 -0.00410108 0)
(0.126978 -0.00400797 0)
(0.127863 -0.00391207 0)
(0.128726 -0.00381341 0)
(0.129566 -0.00371198 0)
(0.130384 -0.0036078 0)
(0.131178 -0.00350089 0)
(0.131948 -0.00339127 0)
(0.132694 -0.00327898 0)
(0.133414 -0.00316405 0)
(0.134108 -0.00304652 0)
(0.134775 -0.00292644 0)
(0.135416 -0.00280385 0)
(0.136029 -0.00267882 0)
(0.136614 -0.00255141 0)
(0.13717 -0.00242168 0)
(0.137697 -0.00228971 0)
(0.138194 -0.00215558 0)
(0.138662 -0.00201938 0)
(0.139098 -0.00188118 0)
(0.139503 -0.0017411 0)
(0.139877 -0.00159923 0)
(0.140219 -0.00145567 0)
(0.140529 -0.00131054 0)
(0.140806 -0.00116394 0)
(0.141051 -0.00101601 0)
(0.141262 -0.000866847 0)