/*--------------------------------*- C++ -*----------------------------------*\
| =========                 |                                                 |
| \\      /  F ield         | OpenFOAM: The Open Source CFD Toolbox           |
|  \\    /   O peration     | Version:  v2012                                 |
|   \\  /    A nd           | Website:  www.openfoam.com                      |
|    \\/     M anipulation  |                                                 |
\*---------------------------------------------------------------------------*/
FoamFile
{
    version     2.0;
    format      ascii;
    class       surfaceScalarField;
    location    "15.75";
    object      phi;
}
// * * * * * * * * * * * * * * * * * * * * * * * * * * * * * * * * * * * * * //

dimensions      [0 3 -1 0 0 0 0];
oriented        oriented;


internalField   nonuniform List<scalar> 
130560
(
3.36001e-06
-3.36001e-06
6.72023e-06
-3.36022e-06
1.00809e-05
-3.36064e-06
1.34421e-05
-3.36127e-06
1.68042e-05
-3.3621e-06
2.01674e-05
-3.36314e-06
2.35318e-05
-3.36438e-06
2.68976e-05
-3.36582e-06
3.0265e-05
-3.36746e-06
3.36343e-05
-3.3693e-06
3.70057e-05
-3.37132e-06
4.03792e-05
-3.37353e-06
4.37551e-05
-3.37591e-06
4.71336e-05
-3.37847e-06
5.05148e-05
-3.3812e-06
5.38989e-05
-3.38409e-06
5.7286e-05
-3.38714e-06
6.06763e-05
-3.39033e-06
6.407e-05
-3.39366e-06
6.74671e-05
-3.39712e-06
7.08678e-05
-3.4007e-06
7.42722e-05
-3.40439e-06
7.76804e-05
-3.40819e-06
8.10925e-05
-3.41207e-06
8.45085e-05
-3.41603e-06
8.79286e-05
-3.42005e-06
9.13527e-05
-3.42413e-06
9.47809e-05
-3.42824e-06
9.82133e-05
-3.43238e-06
0.00010165
-3.43653e-06
0.000105091
-3.44068e-06
0.000108535
-3.4448e-06
0.000111984
-3.44888e-06
0.000115437
-3.4529e-06
0.000118894
-3.45685e-06
0.000122355
-3.46071e-06
0.000125819
-3.46445e-06
0.000129287
-3.46805e-06
0.000132759
-3.4715e-06
0.000136233
-3.47477e-06
0.000139711
-3.47784e-06
0.000143192
-3.48068e-06
0.000146675
-3.48327e-06
0.000150161
-3.48558e-06
0.000153648
-3.48759e-06
0.000157138
-3.48927e-06
0.000160628
-3.49059e-06
0.00016412
-3.49153e-06
0.000167612
-3.49205e-06
0.000171104
-3.49212e-06
0.000174596
-3.49172e-06
0.000178086
-3.49081e-06
0.000181576
-3.48935e-06
0.000185063
-3.48732e-06
0.000188548
-3.48469e-06
0.000192029
-3.48141e-06
0.000195507
-3.47745e-06
0.000198979
-3.47278e-06
0.000202447
-3.46735e-06
0.000205908
-3.46115e-06
0.000209362
-3.45411e-06
0.000212808
-3.44622e-06
0.000216246
-3.43743e-06
0.000219673
-3.4277e-06
0.00022309
-3.417e-06
0.000226496
-3.40529e-06
0.000229888
-3.39252e-06
0.000233267
-3.37866e-06
0.000236631
-3.36368e-06
0.000239978
-3.34753e-06
0.000243308
-3.33018e-06
0.00024662
-3.31159e-06
0.000249912
-3.29172e-06
0.000253182
-3.27054e-06
0.00025643
-3.24801e-06
0.000259654
-3.22409e-06
0.000262853
-3.19877e-06
0.000266025
-3.17199e-06
0.000269169
-3.14374e-06
0.000272283
-3.11398e-06
0.000275365
-3.08268e-06
0.000278415
-3.04981e-06
0.000281431
-3.01536e-06
0.00028441
-2.9793e-06
0.000287351
-2.94161e-06
0.000290254
-2.90226e-06
0.000293115
-2.86125e-06
0.000295934
-2.81855e-06
0.000298708
-2.77416e-06
0.000301436
-2.72806e-06
0.000304116
-2.68026e-06
0.000306747
-2.63074e-06
0.000309326
-2.5795e-06
0.000311853
-2.52655e-06
0.000314325
-2.47189e-06
0.00031674
-2.41553e-06
0.000319098
-2.35749e-06
0.000321395
-2.29777e-06
0.000323632
-2.23639e-06
0.000325805
-2.17338e-06
0.000327914
-2.10876e-06
0.000329957
-2.04255e-06
0.000331931
-1.9748e-06
0.000333837
-1.90553e-06
0.000335672
-1.83478e-06
0.000337434
-1.7626e-06
0.000339123
-1.68903e-06
0.000340737
-1.61411e-06
0.000342275
-1.53791e-06
0.000343736
-1.46046e-06
0.000345118
-1.38184e-06
0.00034642
-1.3021e-06
0.000347641
-1.2213e-06
0.000348781
-1.13951e-06
0.000349837
-1.0568e-06
0.000350811
-9.73236e-07
0.000351699
-8.88889e-07
0.000352503
-8.03836e-07
0.000353221
-7.18151e-07
0.000353853
-6.31913e-07
0.000354399
-5.45199e-07
0.000354857
-4.58089e-07
0.000355227
-3.70664e-07
0.00035551
-2.83005e-07
0.000355706
-1.95194e-07
0.000355813
-1.07312e-07
0.000355832
-1.94419e-08
0.000355764
6.83359e-08
0.000355608
1.5594e-07
0.000355365
2.4329e-07
0.000355034
3.30306e-07
0.000354617
4.1691e-07
0.000354114
5.03025e-07
0.000353526
5.88575e-07
0.000352852
6.73487e-07
0.000352095
7.57688e-07
0.000351254
8.41109e-07
0.00035033
9.23682e-07
0.000349325
1.00534e-06
0.000348239
1.08602e-06
0.000347073
1.16567e-06
0.000345829
1.24422e-06
0.000344507
1.32163e-06
0.000343109
1.39783e-06
0.000341636
1.47278e-06
0.00034009
1.54644e-06
0.000338471
1.61876e-06
0.000336782
1.6897e-06
0.000335022
1.75923e-06
0.000333195
1.82731e-06
0.000331301
1.89392e-06
0.000329342
1.95902e-06
0.000327319
2.02259e-06
0.000325235
2.08461e-06
0.00032309
2.14507e-06
0.000320886
2.20394e-06
0.000318625
2.26122e-06
0.000316308
2.3169e-06
0.000313937
2.37097e-06
0.000311513
2.42343e-06
0.000309039
2.47428e-06
0.000306515
2.52352e-06
0.000303944
2.57115e-06
0.000301327
2.61718e-06
0.000298666
2.66163e-06
0.000295961
2.70449e-06
0.000293215
2.74579e-06
0.00029043
2.78553e-06
0.000287606
2.82375e-06
0.000284746
2.86044e-06
0.00028185
2.89564e-06
0.000278921
2.92937e-06
0.000275959
2.96165e-06
0.000272966
2.99251e-06
0.000269944
3.02196e-06
0.000266894
3.05004e-06
0.000263818
3.07677e-06
0.000260715
3.10219e-06
0.000257589
3.12632e-06
0.00025444
3.14919e-06
0.000251269
3.17083e-06
0.000248078
3.19128e-06
0.000244867
3.21057e-06
0.000241639
3.22872e-06
0.000238393
3.24577e-06
0.000235131
3.26176e-06
0.000231854
3.27671e-06
0.000228564
3.29066e-06
0.00022526
3.30364e-06
0.000221944
3.31568e-06
0.000218617
3.32682e-06
0.00021528
3.33709e-06
0.000211934
3.34652e-06
0.000208579
3.35514e-06
0.000205216
3.36299e-06
0.000201846
3.37009e-06
0.000198469
3.37648e-06
0.000195087
3.38219e-06
0.0001917
3.38725e-06
0.000188308
3.39168e-06
0.000184912
3.39552e-06
0.000181514
3.3988e-06
0.000178112
3.40154e-06
0.000174708
3.40377e-06
0.000171303
3.40553e-06
0.000167896
3.40682e-06
0.000164488
3.40769e-06
0.00016108
3.40816e-06
0.000157672
3.40825e-06
0.000154264
3.40799e-06
0.000150857
3.40739e-06
0.00014745
3.40649e-06
0.000144045
3.40531e-06
0.000140641
3.40386e-06
0.000137239
3.40217e-06
0.000133838
3.40027e-06
0.00013044
3.39816e-06
0.000127044
3.39587e-06
0.000123651
3.39342e-06
0.00012026
3.39082e-06
0.000116872
3.3881e-06
0.000113487
3.38527e-06
0.000110104
3.38234e-06
0.000106725
3.37934e-06
0.000103349
3.37628e-06
9.99757e-05
3.37317e-06
9.66056e-05
3.37003e-06
9.32388e-05
3.36687e-06
8.9875e-05
3.36371e-06
8.65145e-05
3.36055e-06
8.31571e-05
3.35741e-06
7.98028e-05
3.3543e-06
7.64516e-05
3.35123e-06
7.31034e-05
3.34821e-06
6.97581e-05
3.34525e-06
6.64157e-05
3.34237e-06
6.30762e-05
3.33956e-06
5.97393e-05
3.33685e-06
5.64051e-05
3.33423e-06
5.30734e-05
3.33172e-06
4.97441e-05
3.32931e-06
4.6417e-05
3.32703e-06
4.30922e-05
3.32487e-06
3.97693e-05
3.32284e-06
3.64484e-05
3.32095e-06
3.31292e-05
3.3192e-06
2.98116e-05
3.31759e-06
2.64955e-05
3.31613e-06
2.31806e-05
3.31482e-06
1.9867e-05
3.31367e-06
1.65543e-05
3.31268e-06
1.32424e-05
3.31185e-06
9.93124e-06
3.31119e-06
6.62055e-06
3.31069e-06
3.31019e-06
3.31036e-06
3.31019e-06
3.3598e-06
-6.71981e-06
6.71982e-06
-6.72023e-06
1.00802e-05
-6.72107e-06
1.34413e-05
-6.72233e-06
1.68032e-05
-6.724e-06
2.01661e-05
-6.72608e-06
2.35303e-05
-6.72857e-06
2.6896e-05
-6.73145e-06
3.02632e-05
-6.73474e-06
3.36323e-05
-6.73841e-06
3.70035e-05
-6.74246e-06
4.03768e-05
-6.74688e-06
4.37526e-05
-6.75166e-06
4.71309e-05
-6.75678e-06
5.05119e-05
-6.76225e-06
5.38959e-05
-6.76804e-06
5.72829e-05
-6.77414e-06
6.06731e-05
-6.78053e-06
6.40666e-05
-6.7872e-06
6.74636e-05
-6.79413e-06
7.08642e-05
-6.8013e-06
7.42685e-05
-6.80869e-06
7.76766e-05
-6.81629e-06
8.10886e-05
-6.82406e-06
8.45045e-05
-6.83199e-06
8.79245e-05
-6.84005e-06
9.13486e-05
-6.84822e-06
9.47769e-05
-6.85646e-06
9.82092e-05
-6.86476e-06
0.000101646
-6.87307e-06
0.000105086
-6.88137e-06
0.000108531
-6.88963e-06
0.00011198
-6.89782e-06
0.000115433
-6.90589e-06
0.00011889
-6.9138e-06
0.000122351
-6.92154e-06
0.000125816
-6.92904e-06
0.000129284
-6.93627e-06
0.000132755
-6.94319e-06
0.00013623
-6.94975e-06
0.000139709
-6.95591e-06
0.000143189
-6.96161e-06
0.000146673
-6.96682e-06
0.000150159
-6.97147e-06
0.000153647
-6.97552e-06
0.000157136
-6.9789e-06
0.000160627
-6.98158e-06
0.000164119
-6.98348e-06
0.000167612
-6.98455e-06
0.000171104
-6.98473e-06
0.000174597
-6.98395e-06
0.000178088
-6.98216e-06
0.000181578
-6.97928e-06
0.000185066
-6.97526e-06
0.000188551
-6.97002e-06
0.000192033
-6.96349e-06
0.000195512
-6.95561e-06
0.000198985
-6.9463e-06
0.000202453
-6.9355e-06
0.000205915
-6.92312e-06
0.00020937
-6.90909e-06
0.000212817
-6.89334e-06
0.000216256
-6.8758e-06
0.000219684
-6.85638e-06
0.000223102
-6.83502e-06
0.000226509
-6.81162e-06
0.000229902
-6.78613e-06
0.000233282
-6.75845e-06
0.000236647
-6.72853e-06
0.000239996
-6.69626e-06
0.000243327
-6.6616e-06
0.00024664
-6.62445e-06
0.000249933
-6.58475e-06
0.000253205
-6.54242e-06
0.000256454
-6.49739e-06
0.00025968
-6.4496e-06
0.00026288
-6.39898e-06
0.000266053
-6.34546e-06
0.000269199
-6.28899e-06
0.000272314
-6.22949e-06
0.000275398
-6.16692e-06
0.00027845
-6.10122e-06
0.000281467
-6.03234e-06
0.000284448
-5.96023e-06
0.000287391
-5.88486e-06
0.000290295
-5.80619e-06
0.000293158
-5.72417e-06
0.000295978
-5.63879e-06
0.000298754
-5.55002e-06
0.000301484
-5.45783e-06
0.000304166
-5.36222e-06
0.000306798
-5.26318e-06
0.000309379
-5.16071e-06
0.000311908
-5.05481e-06
0.000314381
-4.94548e-06
0.000316798
-4.83275e-06
0.000319158
-4.71665e-06
0.000321457
-4.59719e-06
0.000323695
-4.47441e-06
0.00032587
-4.34836e-06
0.00032798
-4.21909e-06
0.000330024
-4.08665e-06
0.000332001
-3.95111e-06
0.000333908
-3.81253e-06
0.000335744
-3.671e-06
0.000337508
-3.52659e-06
0.000339198
-3.37939e-06
0.000340814
-3.22951e-06
0.000342353
-3.07705e-06
0.000343814
-2.9221e-06
0.000345197
-2.7648e-06
0.000346501
-2.60525e-06
0.000347723
-2.44359e-06
0.000348863
-2.27995e-06
0.000349921
-2.11445e-06
0.000350895
-1.94725e-06
0.000351785
-1.77848e-06
0.000352589
-1.6083e-06
0.000353308
-1.43685e-06
0.00035394
-1.2643e-06
0.000354486
-1.09079e-06
0.000354944
-9.16489e-07
0.000355315
-7.41558e-07
0.000355598
-5.66159e-07
0.000355793
-3.90455e-07
0.000355901
-2.14609e-07
0.00035592
-3.87867e-08
0.000355852
1.3685e-07
0.000355695
3.12138e-07
0.000355452
4.86917e-07
0.000355121
6.61027e-07
0.000354704
8.34313e-07
0.0003542
1.00662e-06
0.000353611
1.17779e-06
0.000352937
1.34769e-06
0.000352178
1.51616e-06
0.000351336
1.68307e-06
0.000350412
1.84828e-06
0.000349405
2.01166e-06
0.000348318
2.17309e-06
0.000347151
2.33244e-06
0.000345906
2.4896e-06
0.000344583
2.64446e-06
0.000343184
2.79691e-06
0.00034171
2.94687e-06
0.000340162
3.09422e-06
0.000338542
3.2389e-06
0.000336851
3.38083e-06
0.00033509
3.51992e-06
0.000333261
3.65611e-06
0.000331366
3.78934e-06
0.000329406
3.91957e-06
0.000327381
4.04673e-06
0.000325295
4.17079e-06
0.000323149
4.29172e-06
0.000320943
4.40948e-06
0.00031868
4.52405e-06
0.000316362
4.63541e-06
0.000313989
4.74356e-06
0.000311564
4.84848e-06
0.000309088
4.95017e-06
0.000306563
5.04864e-06
0.00030399
5.1439e-06
0.000301371
5.23596e-06
0.000298708
5.32483e-06
0.000296002
5.41054e-06
0.000293255
5.49312e-06
0.000290468
5.5726e-06
0.000287643
5.64901e-06
0.000284781
5.72238e-06
0.000281884
5.79276e-06
0.000278953
5.8602e-06
0.00027599
5.92473e-06
0.000272996
5.98641e-06
0.000269972
6.04529e-06
0.000266921
6.10142e-06
0.000263843
6.15486e-06
0.000260739
6.20566e-06
0.000257612
6.25389e-06
0.000254461
6.2996e-06
0.000251289
6.34286e-06
0.000248097
6.38373e-06
0.000244885
6.42227e-06
0.000241655
6.45854e-06
0.000238409
6.49261e-06
0.000235146
6.52455e-06
0.000231868
6.55442e-06
0.000228576
6.58229e-06
0.000225272
6.60821e-06
0.000221955
6.63227e-06
0.000218628
6.65452e-06
0.00021529
6.67502e-06
0.000211942
6.69385e-06
0.000208586
6.71106e-06
0.000205223
6.72672e-06
0.000201852
6.7409e-06
0.000198475
6.75365e-06
0.000195092
6.76504e-06
0.000191704
6.77512e-06
0.000188312
6.78396e-06
0.000184916
6.79161e-06
0.000181516
6.79813e-06
0.000178114
6.80359e-06
0.00017471
6.80803e-06
0.000171304
6.8115e-06
0.000167897
6.81407e-06
0.000164489
6.81579e-06
0.00016108
6.8167e-06
0.000157672
6.81685e-06
0.000154263
6.8163e-06
0.000150856
6.81509e-06
0.000147449
6.81327e-06
0.000144043
6.81088e-06
0.000140639
6.80796e-06
0.000137237
6.80457e-06
0.000133836
6.80073e-06
0.000130438
6.79649e-06
0.000127042
6.7919e-06
0.000123648
6.78697e-06
0.000120257
6.78177e-06
0.000116869
6.77631e-06
0.000113484
6.77063e-06
0.000110101
6.76476e-06
0.000106722
6.75875e-06
0.000103346
6.75261e-06
9.99725e-05
6.74638e-06
9.66024e-05
6.74008e-06
9.32355e-05
6.73375e-06
8.98718e-05
6.7274e-06
8.65113e-05
6.72107e-06
8.31539e-05
6.71478e-06
7.97997e-05
6.70855e-06
7.64485e-05
6.7024e-06
7.31004e-05
6.69635e-06
6.97552e-05
6.69043e-06
6.64129e-05
6.68466e-06
6.30734e-05
6.67904e-06
5.97367e-05
6.6736e-06
5.64025e-05
6.66836e-06
5.30709e-05
6.66332e-06
4.97418e-05
6.65851e-06
4.64148e-05
6.65393e-06
4.30901e-05
6.64961e-06
3.97674e-05
6.64555e-06
3.64466e-05
6.64175e-06
3.31276e-05
6.63824e-06
2.98101e-05
6.63502e-06
2.64941e-05
6.6321e-06
2.31795e-05
6.62949e-06
1.9866e-05
6.62719e-06
1.65534e-05
6.6252e-06
1.32418e-05
6.62354e-06
9.93073e-06
6.62221e-06
6.62021e-06
6.62121e-06
3.31002e-06
6.62054e-06
6.62021e-06
3.35938e-06
-1.00792e-05
6.71897e-06
-1.00798e-05
1.0079e-05
-1.00811e-05
1.34396e-05
-1.0083e-05
1.68011e-05
-1.00855e-05
2.01637e-05
-1.00886e-05
2.35274e-05
-1.00923e-05
2.68927e-05
-1.00967e-05
3.02596e-05
-1.01016e-05
3.36283e-05
-1.01071e-05
3.6999e-05
-1.01132e-05
4.0372e-05
-1.01199e-05
4.37474e-05
-1.0127e-05
4.71254e-05
-1.01348e-05
5.05061e-05
-1.0143e-05
5.38898e-05
-1.01517e-05
5.72765e-05
-1.01608e-05
6.06664e-05
-1.01704e-05
6.40596e-05
-1.01805e-05
6.74564e-05
-1.01909e-05
7.08568e-05
-1.02017e-05
7.42609e-05
-1.02128e-05
7.76688e-05
-1.02242e-05
8.10806e-05
-1.02359e-05
8.44965e-05
-1.02478e-05
8.79164e-05
-1.02599e-05
9.13404e-05
-1.02722e-05
9.47685e-05
-1.02846e-05
9.82009e-05
-1.02971e-05
0.000101637
-1.03096e-05
0.000105078
-1.03221e-05
0.000108523
-1.03345e-05
0.000111972
-1.03469e-05
0.000115425
-1.0359e-05
0.000118882
-1.03709e-05
0.000122343
-1.03826e-05
0.000125808
-1.03939e-05
0.000129277
-1.04048e-05
0.000132749
-1.04152e-05
0.000136224
-1.04251e-05
0.000139703
-1.04344e-05
0.000143184
-1.0443e-05
0.000146668
-1.04509e-05
0.000150155
-1.0458e-05
0.000153643
-1.04641e-05
0.000157134
-1.04693e-05
0.000160626
-1.04733e-05
0.000164118
-1.04763e-05
0.000167612
-1.04779e-05
0.000171105
-1.04783e-05
0.000174598
-1.04772e-05
0.000178091
-1.04746e-05
0.000181582
-1.04704e-05
0.000185071
-1.04644e-05
0.000188558
-1.04566e-05
0.000192041
-1.04469e-05
0.000195521
-1.04352e-05
0.000198996
-1.04213e-05
0.000202466
-1.04052e-05
0.000205929
-1.03867e-05
0.000209386
-1.03658e-05
0.000212835
-1.03423e-05
0.000216275
-1.0316e-05
0.000219706
-1.0287e-05
0.000223126
-1.02551e-05
0.000226534
-1.02201e-05
0.00022993
-1.01819e-05
0.000233312
-1.01405e-05
0.000236679
-1.00957e-05
0.00024003
-1.00474e-05
0.000243364
-9.9955e-06
0.00024668
-9.93987e-06
0.000249975
-9.8804e-06
0.00025325
-9.817e-06
0.000256502
-9.74955e-06
0.00025973
-9.67795e-06
0.000262933
-9.6021e-06
0.00026611
-9.52189e-06
0.000269258
-9.43725e-06
0.000272377
-9.34808e-06
0.000275464
-9.25429e-06
0.000278519
-9.1558e-06
0.000281539
-9.05254e-06
0.000284523
-8.94444e-06
0.00028747
-8.83143e-06
0.000290377
-8.71346e-06
0.000293243
-8.59047e-06
0.000296067
-8.46243e-06
0.000298846
-8.32929e-06
0.000301579
-8.19103e-06
0.000304265
-8.04763e-06
0.000306901
-7.89907e-06
0.000309485
-7.74535e-06
0.000312017
-7.58648e-06
0.000314494
-7.42248e-06
0.000316915
-7.25336e-06
0.000319277
-7.07916e-06
0.00032158
-6.89992e-06
0.000323821
-6.7157e-06
0.000325999
-6.52657e-06
0.000328113
-6.33259e-06
0.00033016
-6.13385e-06
0.000332139
-5.93045e-06
0.000334049
-5.72249e-06
0.000335888
-5.51008e-06
0.000337655
-5.29336e-06
0.000339348
-5.07245e-06
0.000340966
-4.8475e-06
0.000342508
-4.61866e-06
0.000343972
-4.38611e-06
0.000345357
-4.15e-06
0.000346662
-3.91052e-06
0.000347887
-3.66787e-06
0.000349029
-3.42223e-06
0.000350088
-3.17381e-06
0.000351064
-2.92283e-06
0.000351955
-2.66949e-06
0.00035276
-2.41403e-06
0.00035348
-2.15666e-06
0.000354114
-1.89763e-06
0.00035466
-1.63717e-06
0.000355119
-1.37552e-06
0.00035549
-1.11292e-06
0.000355774
-8.49618e-07
0.000355969
-5.85857e-07
0.000356077
-3.21885e-07
0.000356096
-5.79465e-08
0.000356027
2.05711e-07
0.00035587
4.68845e-07
0.000355626
7.31212e-07
0.000355294
9.92574e-07
0.000354876
1.25269e-06
0.000354371
1.51134e-06
0.000353781
1.76829e-06
0.000353105
2.02331e-06
0.000352345
2.27619e-06
0.000351501
2.52673e-06
0.000350575
2.77471e-06
0.000349567
3.01994e-06
0.000348478
3.26223e-06
0.000347309
3.5014e-06
0.000346061
3.73728e-06
0.000344736
3.96969e-06
0.000343334
4.1985e-06
0.000341857
4.42354e-06
0.000340307
4.64469e-06
0.000338684
4.86181e-06
0.00033699
5.07478e-06
0.000335227
5.2835e-06
0.000333395
5.48786e-06
0.000331496
5.68778e-06
0.000329533
5.88317e-06
0.000327505
6.07397e-06
0.000325416
6.26011e-06
0.000323266
6.44153e-06
0.000321058
6.6182e-06
0.000318792
6.79008e-06
0.00031647
6.95714e-06
0.000314094
7.11937e-06
0.000311666
7.27675e-06
0.000309187
7.42929e-06
0.000306658
7.57698e-06
0.000304082
7.71985e-06
0.00030146
7.85791e-06
0.000298794
7.9912e-06
0.000296085
8.11973e-06
0.000293334
8.24357e-06
0.000290544
8.36274e-06
0.000287716
8.4773e-06
0.000284851
8.58731e-06
0.000281951
8.69283e-06
0.000279017
8.79392e-06
0.000276051
8.89066e-06
0.000273055
8.98312e-06
0.000270029
9.07137e-06
0.000266974
9.1555e-06
0.000263894
9.23558e-06
0.000260788
9.31172e-06
0.000257658
9.38398e-06
0.000254505
9.45248e-06
0.00025133
9.51728e-06
0.000248136
9.5785e-06
0.000244922
9.63623e-06
0.00024169
9.69056e-06
0.000238441
9.74159e-06
0.000235176
9.78941e-06
0.000231896
9.83414e-06
0.000228602
9.87585e-06
0.000225296
9.91466e-06
0.000221978
9.95066e-06
0.000218648
9.98395e-06
0.000215309
1.00146e-05
0.00021196
1.00428e-05
0.000208602
1.00685e-05
0.000205237
1.00919e-05
0.000201865
1.01131e-05
0.000198486
1.01322e-05
0.000195102
1.01492e-05
0.000191713
1.01642e-05
0.000188319
1.01774e-05
0.000184922
1.01888e-05
0.000181522
1.01985e-05
0.000178119
1.02067e-05
0.000174714
1.02132e-05
0.000171307
1.02184e-05
0.000167899
1.02222e-05
0.00016449
1.02247e-05
0.00016108
1.0226e-05
0.000157671
1.02262e-05
0.000154262
1.02253e-05
0.000150854
1.02234e-05
0.000147446
1.02206e-05
0.00014404
1.0217e-05
0.000140636
1.02125e-05
0.000137233
1.02074e-05
0.000133832
1.02016e-05
0.000130433
1.01952e-05
0.000127037
1.01882e-05
0.000123643
1.01808e-05
0.000120252
1.0173e-05
0.000116864
1.01647e-05
0.000113478
1.01562e-05
0.000110095
1.01473e-05
0.000106716
1.01383e-05
0.000103339
1.0129e-05
9.99662e-05
1.01196e-05
9.65961e-05
1.01102e-05
9.32292e-05
1.01006e-05
8.98655e-05
1.00911e-05
8.6505e-05
1.00816e-05
8.31477e-05
1.00721e-05
7.97935e-05
1.00627e-05
7.64425e-05
1.00535e-05
7.30945e-05
1.00444e-05
6.97494e-05
1.00355e-05
6.64073e-05
1.00268e-05
6.3068e-05
1.00183e-05
5.97314e-05
1.00102e-05
5.63975e-05
1.00023e-05
5.30661e-05
9.9947e-06
4.97372e-05
9.98747e-06
4.64105e-05
9.98059e-06
4.30861e-05
9.97409e-06
3.97636e-05
9.96798e-06
3.64431e-05
9.96228e-06
3.31243e-05
9.957e-06
2.98072e-05
9.95216e-06
2.64915e-05
9.94777e-06
2.31772e-05
9.94384e-06
1.9864e-05
9.94038e-06
1.65518e-05
9.9374e-06
1.32404e-05
9.93491e-06
9.92973e-06
9.9329e-06
6.61954e-06
9.9314e-06
3.30969e-06
9.9304e-06
9.9299e-06
3.35875e-06
-1.34379e-05
6.71771e-06
-1.34388e-05
1.00771e-05
-1.34405e-05
1.34371e-05
-1.3443e-05
1.6798e-05
-1.34463e-05
2.01599e-05
-1.34505e-05
2.35231e-05
-1.34555e-05
2.68877e-05
-1.34613e-05
3.0254e-05
-1.34679e-05
3.36222e-05
-1.34753e-05
3.69924e-05
-1.34834e-05
4.03648e-05
-1.34923e-05
4.37397e-05
-1.35019e-05
4.71172e-05
-1.35122e-05
5.04974e-05
-1.35232e-05
5.38806e-05
-1.35348e-05
5.72668e-05
-1.35471e-05
6.06563e-05
-1.35599e-05
6.40492e-05
-1.35734e-05
6.74456e-05
-1.35873e-05
7.08456e-05
-1.36017e-05
7.42494e-05
-1.36166e-05
7.76571e-05
-1.36319e-05
8.10687e-05
-1.36475e-05
8.44843e-05
-1.36635e-05
8.7904e-05
-1.36797e-05
9.13279e-05
-1.36961e-05
9.4756e-05
-1.37127e-05
9.81883e-05
-1.37294e-05
0.000101625
-1.37462e-05
0.000105066
-1.37629e-05
0.000108511
-1.37796e-05
0.00011196
-1.37961e-05
0.000115413
-1.38124e-05
0.000118871
-1.38284e-05
0.000122332
-1.3844e-05
0.000125797
-1.38592e-05
0.000129266
-1.38738e-05
0.000132739
-1.38878e-05
0.000136215
-1.39011e-05
0.000139694
-1.39136e-05
0.000143176
-1.39252e-05
0.000146661
-1.39358e-05
0.000150149
-1.39454e-05
0.000153638
-1.39537e-05
0.00015713
-1.39607e-05
0.000160623
-1.39662e-05
0.000164117
-1.39703e-05
0.000167611
-1.39727e-05
0.000171106
-1.39733e-05
0.000174601
-1.3972e-05
0.000178095
-1.39686e-05
0.000181588
-1.39632e-05
0.000185079
-1.39554e-05
0.000188567
-1.39452e-05
0.000192053
-1.39324e-05
0.000195535
-1.39169e-05
0.000199012
-1.38986e-05
0.000202484
-1.38773e-05
0.00020595
-1.38528e-05
0.000209409
-1.38251e-05
0.000212861
-1.37939e-05
0.000216304
-1.37591e-05
0.000219738
-1.37206e-05
0.000223161
-1.36781e-05
0.000226572
-1.36317e-05
0.000229971
-1.3581e-05
0.000233357
-1.35259e-05
0.000236727
-1.34664e-05
0.000240082
-1.34022e-05
0.00024342
-1.33331e-05
0.000246739
-1.32591e-05
0.000250039
-1.318e-05
0.000253317
-1.30956e-05
0.000256574
-1.30059e-05
0.000259806
-1.29105e-05
0.000263014
-1.28096e-05
0.000266194
-1.27028e-05
0.000269347
-1.25901e-05
0.00027247
-1.24713e-05
0.000275563
-1.23464e-05
0.000278622
-1.22152e-05
0.000281647
-1.20776e-05
0.000284636
-1.19335e-05
0.000287588
-1.1783e-05
0.0002905
-1.16257e-05
0.000293371
-1.14618e-05
0.0002962
-1.12912e-05
0.000298984
-1.11137e-05
0.000301723
-1.09294e-05
0.000304413
-1.07382e-05
0.000307054
-1.05401e-05
0.000309644
-1.03351e-05
0.000312181
-1.01233e-05
0.000314663
-9.90459e-06
0.000317089
-9.67904e-06
0.000319456
-9.44671e-06
0.000321764
-9.20764e-06
0.00032401
-8.96192e-06
0.000326193
-8.70962e-06
0.000328311
-8.45085e-06
0.000330363
-8.18572e-06
0.000332347
-7.91436e-06
0.000334262
-7.6369e-06
0.000336105
-7.35349e-06
0.000337876
-7.06432e-06
0.000339573
-6.76955e-06
0.000341195
-6.46937e-06
0.00034274
-6.164e-06
0.000344208
-5.85366e-06
0.000345596
-5.53857e-06
0.000346905
-5.21897e-06
0.000348132
-4.89513e-06
0.000349277
-4.56729e-06
0.000350339
-4.23574e-06
0.000351317
-3.90076e-06
0.00035221
-3.56263e-06
0.000353018
-3.22166e-06
0.000353739
-2.87814e-06
0.000354374
-2.5324e-06
0.000354922
-2.18475e-06
0.000355382
-1.8355e-06
0.000355754
-1.48499e-06
0.000356038
-1.13354e-06
0.000356233
-7.81473e-07
0.000356341
-4.29127e-07
0.000356359
-7.68278e-08
0.00035629
2.75095e-07
0.000356133
6.26316e-07
0.000355887
9.76511e-07
0.000355554
1.32536e-06
0.000355135
1.67255e-06
0.000354628
2.01776e-06
0.000354036
2.3607e-06
0.000353358
2.70107e-06
0.000352596
3.03858e-06
0.000351749
3.37294e-06
0.00035082
3.70389e-06
0.000349809
4.03115e-06
0.000348717
4.35449e-06
0.000347544
4.67365e-06
0.000346293
4.98841e-06
0.000344965
5.29854e-06
0.000343559
5.60384e-06
0.000342079
5.90411e-06
0.000340524
6.19917e-06
0.000338897
6.48885e-06
0.000337199
6.77299e-06
0.000335431
7.05143e-06
0.000333595
7.32406e-06
0.000331692
7.59074e-06
0.000329724
7.85138e-06
0.000327692
8.10587e-06
0.000325598
8.35414e-06
0.000323443
8.59611e-06
0.00032123
8.83172e-06
0.000318959
9.06093e-06
0.000316632
9.28371e-06
0.000314251
9.50003e-06
0.000311818
9.70987e-06
0.000309334
9.91324e-06
0.000306801
1.01101e-05
0.00030422
1.03006e-05
0.000301594
1.04847e-05
0.000298923
1.06623e-05
0.000296209
1.08336e-05
0.000293454
1.09987e-05
0.000290659
1.11575e-05
0.000287826
1.13101e-05
0.000284957
1.14567e-05
0.000282052
1.15973e-05
0.000279114
1.1732e-05
0.000276144
1.18609e-05
0.000273143
1.1984e-05
0.000270113
1.21016e-05
0.000267055
1.22136e-05
0.00026397
1.23203e-05
0.00026086
1.24216e-05
0.000257726
1.25179e-05
0.00025457
1.2609e-05
0.000251392
1.26953e-05
0.000248193
1.27768e-05
0.000244976
1.28536e-05
0.000241741
1.29259e-05
0.000238488
1.29938e-05
0.00023522
1.30574e-05
0.000231938
1.31169e-05
0.000228641
1.31723e-05
0.000225332
1.32239e-05
0.000222011
1.32718e-05
0.000218679
1.3316e-05
0.000215337
1.33568e-05
0.000211985
1.33942e-05
0.000208626
1.34283e-05
0.000205258
1.34594e-05
0.000201884
1.34875e-05
0.000198503
1.35128e-05
0.000195117
1.35353e-05
0.000191726
1.35552e-05
0.000188331
1.35727e-05
0.000184932
1.35877e-05
0.00018153
1.36006e-05
0.000178125
1.36112e-05
0.000174719
1.36199e-05
0.00017131
1.36266e-05
0.000167901
1.36316e-05
0.000164491
1.36348e-05
0.000161081
1.36364e-05
0.00015767
1.36365e-05
0.00015426
1.36352e-05
0.000150851
1.36326e-05
0.000147443
1.36288e-05
0.000144036
1.36238e-05
0.000140631
1.36178e-05
0.000137227
1.36109e-05
0.000133826
1.36031e-05
0.000130426
1.35944e-05
0.00012703
1.35851e-05
0.000123635
1.35751e-05
0.000120244
1.35645e-05
0.000116855
1.35535e-05
0.000113469
1.3542e-05
0.000110086
1.35301e-05
0.000106707
1.3518e-05
0.00010333
1.35056e-05
9.99567e-05
1.3493e-05
9.65866e-05
1.34803e-05
9.32197e-05
1.34675e-05
8.9856e-05
1.34547e-05
8.64956e-05
1.3442e-05
8.31384e-05
1.34293e-05
7.97843e-05
1.34168e-05
7.64334e-05
1.34044e-05
7.30856e-05
1.33922e-05
6.97407e-05
1.33803e-05
6.63989e-05
1.33687e-05
6.30598e-05
1.33574e-05
5.97236e-05
1.33464e-05
5.639e-05
1.33359e-05
5.30589e-05
1.33257e-05
4.97303e-05
1.33161e-05
4.6404e-05
1.33069e-05
4.308e-05
1.32982e-05
3.97579e-05
1.329e-05
3.64378e-05
1.32824e-05
3.31195e-05
1.32753e-05
2.98028e-05
1.32689e-05
2.64876e-05
1.3263e-05
2.31737e-05
1.32577e-05
1.9861e-05
1.32531e-05
1.65493e-05
1.32491e-05
1.32384e-05
1.32458e-05
9.92822e-06
1.32431e-05
6.61853e-06
1.32411e-05
3.30918e-06
1.32398e-05
1.32391e-05
3.3579e-06
-1.67958e-05
6.71602e-06
-1.67969e-05
1.00746e-05
-1.6799e-05
1.34338e-05
-1.68022e-05
1.67938e-05
-1.68064e-05
2.01549e-05
-1.68116e-05
2.35173e-05
-1.68179e-05
2.68811e-05
-1.68252e-05
3.02466e-05
-1.68334e-05
3.3614e-05
-1.68427e-05
3.69835e-05
-1.68529e-05
4.03552e-05
-1.6864e-05
4.37294e-05
-1.68761e-05
4.71062e-05
-1.6889e-05
5.04857e-05
-1.69028e-05
5.38683e-05
-1.69174e-05
5.72539e-05
-1.69328e-05
6.06429e-05
-1.69489e-05
6.40352e-05
-1.69657e-05
6.74311e-05
-1.69832e-05
7.08307e-05
-1.70013e-05
7.42341e-05
-1.702e-05
7.76414e-05
-1.70391e-05
8.10527e-05
-1.70588e-05
8.4468e-05
-1.70788e-05
8.78876e-05
-1.70992e-05
9.13113e-05
-1.71198e-05
9.47393e-05
-1.71407e-05
9.81715e-05
-1.71617e-05
0.000101608
-1.71828e-05
0.000105049
-1.72038e-05
0.000108494
-1.72248e-05
0.000111944
-1.72455e-05
0.000115397
-1.7266e-05
0.000118855
-1.72862e-05
0.000122317
-1.73058e-05
0.000125783
-1.73249e-05
0.000129252
-1.73434e-05
0.000132726
-1.73611e-05
0.000136202
-1.73779e-05
0.000139682
-1.73937e-05
0.000143166
-1.74084e-05
0.000146652
-1.74219e-05
0.00015014
-1.7434e-05
0.000153631
-1.74445e-05
0.000157124
-1.74535e-05
0.000160618
-1.74607e-05
0.000164114
-1.7466e-05
0.000167611
-1.74692e-05
0.000171107
-1.74702e-05
0.000174604
-1.74688e-05
0.0001781
-1.74649e-05
0.000181596
-1.74582e-05
0.000185089
-1.74488e-05
0.00018858
-1.74363e-05
0.000192068
-1.74206e-05
0.000195553
-1.74015e-05
0.000199033
-1.73789e-05
0.000202508
-1.73525e-05
0.000205978
-1.73222e-05
0.00020944
-1.72878e-05
0.000212896
-1.72491e-05
0.000216342
-1.72059e-05
0.00021978
-1.7158e-05
0.000223207
-1.71053e-05
0.000226623
-1.70475e-05
0.000230026
-1.69844e-05
0.000233416
-1.69159e-05
0.000236792
-1.68417e-05
0.000240151
-1.67617e-05
0.000243494
-1.66757e-05
0.000246818
-1.65835e-05
0.000250123
-1.64849e-05
0.000253407
-1.63797e-05
0.000256669
-1.62677e-05
0.000259907
-1.61488e-05
0.00026312
-1.60228e-05
0.000266307
-1.58896e-05
0.000269466
-1.57489e-05
0.000272595
-1.56007e-05
0.000275694
-1.54447e-05
0.000278759
-1.52809e-05
0.000281791
-1.51091e-05
0.000284787
-1.49292e-05
0.000287745
-1.47411e-05
0.000290664
-1.45447e-05
0.000293542
-1.43399e-05
0.000296377
-1.41267e-05
0.000299169
-1.39049e-05
0.000301914
-1.36746e-05
0.000304611
-1.34356e-05
0.000307259
-1.31881e-05
0.000309856
-1.29318e-05
0.0003124
-1.2667e-05
0.000314888
-1.23935e-05
0.000317321
-1.21115e-05
0.000319695
-1.1821e-05
0.00032201
-1.1522e-05
0.000324262
-1.12147e-05
0.000326452
-1.08992e-05
0.000328577
-1.05755e-05
0.000330635
-1.02438e-05
0.000332625
-9.90436e-06
0.000334545
-9.55725e-06
0.000336394
-9.20268e-06
0.000338171
-8.84087e-06
0.000339873
-8.47204e-06
0.0003415
-8.09644e-06
0.000343051
-7.71432e-06
0.000344523
-7.32596e-06
0.000345916
-6.93165e-06
0.000347229
-6.53168e-06
0.00034846
-6.12638e-06
0.000349609
-5.71607e-06
0.000350674
-5.30111e-06
0.000351655
-4.88183e-06
0.000352551
-4.45861e-06
0.000353361
-4.03183e-06
0.000354085
-3.60185e-06
0.000354722
-3.16908e-06
0.000355271
-2.73392e-06
0.000355732
-2.29675e-06
0.000356105
-1.858e-06
0.00035639
-1.41807e-06
0.000356586
-9.77372e-07
0.000356693
-5.36323e-07
0.000356711
-9.53348e-08
0.000356641
3.4518e-07
0.000356483
7.84812e-07
0.000356236
1.22315e-06
0.000355902
1.65981e-06
0.00035548
2.09437e-06
0.000354971
2.52646e-06
0.000354376
2.95569e-06
0.000353696
3.38169e-06
0.00035293
3.8041e-06
0.00035208
4.22256e-06
0.000351148
4.63674e-06
0.000350132
5.0463e-06
0.000349036
5.45092e-06
0.000347859
5.85031e-06
0.000346604
6.24416e-06
0.00034527
6.63222e-06
0.000343859
7.01421e-06
0.000342374
7.3899e-06
0.000340814
7.75904e-06
0.000339181
8.12144e-06
0.000337477
8.47688e-06
0.000335704
8.82519e-06
0.000333861
9.16619e-06
0.000331952
9.49975e-06
0.000329978
9.82573e-06
0.00032794
1.0144e-05
0.00032584
1.04545e-05
0.000323679
1.0757e-05
0.000321459
1.10516e-05
0.000319182
1.13382e-05
0.000316849
1.16167e-05
0.000314461
1.18872e-05
0.000312022
1.21495e-05
0.000309531
1.24037e-05
0.000306992
1.26498e-05
0.000304405
1.28878e-05
0.000301771
1.31178e-05
0.000299094
1.33398e-05
0.000296374
1.35538e-05
0.000293613
1.376e-05
0.000290812
1.39584e-05
0.000287973
1.41491e-05
0.000285097
1.43321e-05
0.000282187
1.45077e-05
0.000279243
1.46759e-05
0.000276267
1.48368e-05
0.000273261
1.49906e-05
0.000270225
1.51373e-05
0.000267161
1.52771e-05