/*--------------------------------*- C++ -*----------------------------------*\
| =========                 |                                                 |
| \\      /  F ield         | OpenFOAM: The Open Source CFD Toolbox           |
|  \\    /   O peration     | Version:  v2012                                 |
|   \\  /    A nd           | Website:  www.openfoam.com                      |
|    \\/     M anipulation  |                                                 |
\*---------------------------------------------------------------------------*/
FoamFile
{
    version     2.0;
    format      ascii;
    class       volVectorField;
    location    "15.75";
    object      U;
}
// * * * * * * * * * * * * * * * * * * * * * * * * * * * * * * * * * * * * * //

dimensions      [0 1 -1 0 0 0 0];


internalField   nonuniform List<vector> 
65536
(
(0.000684484 -0.000684504 0)
(0.0020535 -0.000684548 0)
(0.00342264 -0.000684634 0)
(0.00479199 -0.000684761 0)
(0.00616164 -0.000684931 0)
(0.00753168 -0.000685143 0)
(0.00890217 -0.000685396 0)
(0.0102732 -0.00068569 0)
(0.0116449 -0.000686023 0)
(0.0130173 -0.000686397 0)
(0.0143904 -0.000686808 0)
(0.0157645 -0.000687258 0)
(0.0171394 -0.000687744 0)
(0.0185154 -0.000688265 0)
(0.0198925 -0.000688821 0)
(0.0212707 -0.000689409 0)
(0.0226501 -0.000690029 0)
(0.0240308 -0.000690679 0)
(0.0254128 -0.000691357 0)
(0.0267962 -0.000692062 0)
(0.028181 -0.000692791 0)
(0.0295673 -0.000693542 0)
(0.0309551 -0.000694314 0)
(0.0323445 -0.000695104 0)
(0.0337355 -0.00069591 0)
(0.0351282 -0.000696729 0)
(0.0365225 -0.000697559 0)
(0.0379184 -0.000698396 0)
(0.039316 -0.000699239 0)
(0.0407154 -0.000700084 0)
(0.0421164 -0.000700927 0)
(0.0435191 -0.000701766 0)
(0.0449234 -0.000702596 0)
(0.0463295 -0.000703415 0)
(0.0477371 -0.000704219 0)
(0.0491464 -0.000705003 0)
(0.0505572 -0.000705764 0)
(0.0519695 -0.000706498 0)
(0.0533832 -0.000707199 0)
(0.0547983 -0.000707864 0)
(0.0562147 -0.000708487 0)
(0.0576323 -0.000709065 0)
(0.059051 -0.000709591 0)
(0.0604707 -0.000710061 0)
(0.0618913 -0.000710469 0)
(0.0633127 -0.00071081 0)
(0.0647346 -0.000711078 0)
(0.0661571 -0.000711267 0)
(0.0675798 -0.000711371 0)
(0.0690026 -0.000711385 0)
(0.0704254 -0.000711301 0)
(0.0718479 -0.000711113 0)
(0.07327 -0.000710815 0)
(0.0746913 -0.0007104 0)
(0.0761117 -0.000709861 0)
(0.0775309 -0.000709191 0)
(0.0789486 -0.000708383 0)
(0.0803646 -0.00070743 0)
(0.0817785 -0.000706323 0)
(0.08319 -0.000705057 0)
(0.0845989 -0.000703622 0)
(0.0860047 -0.000702013 0)
(0.0874071 -0.00070022 0)
(0.0888058 -0.000698236 0)
(0.0902003 -0.000696054 0)
(0.0915902 -0.000693665 0)
(0.0929751 -0.000691063 0)
(0.0943547 -0.000688238 0)
(0.0957283 -0.000685184 0)
(0.0970956 -0.000681892 0)
(0.0984561 -0.000678355 0)
(0.0998093 -0.000674566 0)
(0.101155 -0.000670516 0)
(0.102492 -0.000666199 0)
(0.10382 -0.000661608 0)
(0.105138 -0.000656735 0)
(0.106447 -0.000651574 0)
(0.107745 -0.000646118 0)
(0.109032 -0.00064036 0)
(0.110307 -0.000634296 0)
(0.111569 -0.000627918 0)
(0.112819 -0.000621222 0)
(0.114054 -0.000614203 0)
(0.115276 -0.000606855 0)
(0.116482 -0.000599175 0)
(0.117673 -0.000591159 0)
(0.118847 -0.000582803 0)
(0.120004 -0.000574104 0)
(0.121144 -0.00056506 0)
(0.122265 -0.00055567 0)
(0.123367 -0.00054593 0)
(0.124449 -0.000535842 0)
(0.125511 -0.000525405 0)
(0.126551 -0.000514618 0)
(0.127569 -0.000503484 0)
(0.128565 -0.000492003 0)
(0.129538 -0.000480179 0)
(0.130486 -0.000468013 0)
(0.13141 -0.000455511 0)
(0.132309 -0.000442675 0)
(0.133181 -0.000429512 0)
(0.134027 -0.000416027 0)
(0.134846 -0.000402226 0)
(0.135636 -0.000388117 0)
(0.136398 -0.000373706 0)
(0.137131 -0.000359004 0)
(0.137835 -0.000344018 0)
(0.138508 -0.000328759 0)
(0.13915 -0.000313238 0)
(0.139761 -0.000297464 0)
(0.14034 -0.00028145 0)
(0.140887 -0.000265209 0)
(0.141401 -0.000248752 0)
(0.141882 -0.000232094 0)
(0.14233 -0.000215247 0)
(0.142743 -0.000198227 0)
(0.143123 -0.000181048 0)
(0.143468 -0.000163725 0)
(0.143778 -0.000146273 0)
(0.144053 -0.000128709 0)
(0.144293 -0.000111048 0)
(0.144497 -9.3306e-05 0)
(0.144666 -7.55001e-05 0)
(0.144799 -5.76465e-05 0)
(0.144897 -3.9762e-05 0)
(0.144958 -2.1863e-05 0)
(0.144984 -3.96629e-06 0)
(0.144974 1.39115e-05 0)
(0.144928 3.1754e-05 0)
(0.144847 4.95447e-05 0)
(0.14473 6.72675e-05 0)
(0.144578 8.49064e-05 0)
(0.14439 0.000102446 0)
(0.144168 0.00011987 0)
(0.143911 0.000137165 0)
(0.143619 0.000154314 0)
(0.143293 0.000171305 0)
(0.142934 0.000188124 0)
(0.142541 0.000204756 0)
(0.142115 0.00022119 0)
(0.141656 0.000237412 0)
(0.141165 0.000253412 0)
(0.140642 0.000269178 0)
(0.140088 0.000284699 0)
(0.139503 0.000299966 0)
(0.138888 0.00031497 0)
(0.138243 0.000329701 0)
(0.137569 0.000344151 0)
(0.136866 0.000358314 0)
(0.136135 0.000372182 0)
(0.135377 0.000385749 0)
(0.134592 0.000399009 0)
(0.13378 0.000411959 0)
(0.132944 0.000424593 0)
(0.132082 0.000436908 0)
(0.131196 0.000448902 0)
(0.130286 0.00046057 0)
(0.129353 0.000471913 0)
(0.128398 0.000482928 0)
(0.127421 0.000493615 0)
(0.126423 0.000503974 0)
(0.125405 0.000514005 0)
(0.124367 0.000523709 0)
(0.12331 0.000533087 0)
(0.122234 0.000542141 0)
(0.121141 0.000550874 0)
(0.12003 0.000559288 0)
(0.118903 0.000567386 0)
(0.11776 0.000575171 0)
(0.116602 0.000582648 0)
(0.115429 0.000589821 0)
(0.114243 0.000596693 0)
(0.113042 0.00060327 0)
(0.111829 0.000609557 0)
(0.110604 0.000615558 0)
(0.109367 0.00062128 0)
(0.108118 0.000626728 0)
(0.10686 0.000631907 0)
(0.105591 0.000636824 0)
(0.104312 0.000641485 0)
(0.103024 0.000645896 0)
(0.101728 0.000650063 0)
(0.100424 0.000653994 0)
(0.0991119 0.000657693 0)
(0.0977928 0.000661169 0)
(0.096467 0.000664427 0)
(0.0951349 0.000667475 0)
(0.0937969 0.000670318 0)
(0.0924535 0.000672964 0)
(0.0911049 0.00067542 0)
(0.0897516 0.000677691 0)
(0.0883939 0.000679784 0)
(0.0870323 0.000681707 0)
(0.0856669 0.000683465 0)
(0.0842983 0.000685065 0)
(0.0829265 0.000686514 0)
(0.0815521 0.000687817 0)
(0.0801751 0.000688982 0)
(0.078796 0.000690013 0)
(0.077415 0.000690918 0)
(0.0760322 0.000691702 0)
(0.074648 0.000692371 0)
(0.0732626 0.000692931 0)
(0.0718762 0.000693387 0)
(0.070489 0.000693745 0)
(0.0691011 0.000694011 0)
(0.0677128 0.00069419 0)
(0.0663243 0.000694286 0)
(0.0649356 0.000694305 0)
(0.063547 0.000694253 0)
(0.0621586 0.000694133 0)
(0.0607704 0.000693951 0)
(0.0593827 0.000693711 0)
(0.0579955 0.000693417 0)
(0.056609 0.000693074 0)
(0.0552232 0.000692687 0)
(0.0538382 0.000692258 0)
(0.0524541 0.000691793 0)
(0.051071 0.000691294 0)
(0.0496889 0.000690766 0)
(0.0483079 0.000690213 0)
(0.046928 0.000689637 0)
(0.0455493 0.000689042 0)
(0.0441718 0.000688432 0)
(0.0427956 0.000687809 0)
(0.0414206 0.000687176 0)
(0.0400469 0.000686537 0)
(0.0386745 0.000685894 0)
(0.0373033 0.000685249 0)
(0.0359335 0.000684606 0)
(0.0345649 0.000683967 0)
(0.0331976 0.000683334 0)
(0.0318316 0.000682709 0)
(0.0304668 0.000682095 0)
(0.0291032 0.000681493 0)
(0.0277408 0.000680906 0)
(0.0263796 0.000680336 0)
(0.0250195 0.000679783 0)
(0.0236605 0.00067925 0)
(0.0223025 0.000678738 0)
(0.0209456 0.000678249 0)
(0.0195896 0.000677784 0)
(0.0182345 0.000677344 0)
(0.0168802 0.000676931 0)
(0.0155268 0.000676546 0)
(0.0141741 0.000676189 0)
(0.012822 0.000675861 0)
(0.0114706 0.000675565 0)
(0.0101198 0.000675299 0)
(0.00876948 0.000675065 0)
(0.00741958 0.000674863 0)
(0.00607006 0.000674694 0)
(0.00472084 0.000674559 0)
(0.00337186 0.000674457 0)
(0.00202305 0.000674389 0)
(0.000674338 0.000674355 0)
(0.000684443 -0.00205348 0)
(0.00205337 -0.0020536 0)
(0.00342243 -0.00205386 0)
(0.0047917 -0.00205424 0)
(0.00616127 -0.00205475 0)
(0.00753122 -0.00205539 0)
(0.00890164 -0.00205615 0)
(0.0102726 -0.00205703 0)
(0.0116442 -0.00205803 0)
(0.0130165 -0.00205915 0)
(0.0143896 -0.00206039 0)
(0.0157636 -0.00206174 0)
(0.0171384 -0.0020632 0)
(0.0185144 -0.00206476 0)
(0.0198913 -0.00206643 0)
(0.0212695 -0.0020682 0)
(0.0226488 -0.00207006 0)
(0.0240294 -0.00207201 0)
(0.0254114 -0.00207405 0)
(0.0267948 -0.00207616 0)
(0.0281795 -0.00207835 0)
(0.0295658 -0.00208061 0)
(0.0309536 -0.00208293 0)
(0.032343 -0.0020853 0)
(0.0337339 -0.00208772 0)
(0.0351266 -0.00209018 0)
(0.0365208 -0.00209267 0)
(0.0379168 -0.00209519 0)
(0.0393144 -0.00209772 0)
(0.0407137 -0.00210025 0)
(0.0421147 -0.00210279 0)
(0.0435174 -0.00210531 0)
(0.0449218 -0.0021078 0)
(0.0463279 -0.00211026 0)
(0.0477356 -0.00211268 0)
(0.0491449 -0.00211504 0)
(0.0505557 -0.00211732 0)
(0.0519681 -0.00211953 0)
(0.0533819 -0.00212164 0)
(0.054797 -0.00212364 0)
(0.0562135 -0.00212551 0)
(0.0576312 -0.00212725 0)
(0.05905 -0.00212883 0)
(0.0604699 -0.00213025 0)
(0.0618906 -0.00213148 0)
(0.0633121 -0.0021325 0)
(0.0647342 -0.00213331 0)
(0.0661568 -0.00213389 0)
(0.0675797 -0.00213421 0)
(0.0690027 -0.00213425 0)
(0.0704257 -0.00213401 0)
(0.0718485 -0.00213345 0)
(0.0732707 -0.00213256 0)
(0.0746923 -0.00213133 0)
(0.076113 -0.00212972 0)
(0.0775324 -0.00212771 0)
(0.0789504 -0.0021253 0)
(0.0803667 -0.00212244 0)
(0.0817809 -0.00211913 0)
(0.0831928 -0.00211534 0)
(0.084602 -0.00211104 0)
(0.0860082 -0.00210622 0)
(0.0874109 -0.00210085 0)
(0.08881 -0.00209491 0)
(0.0902049 -0.00208837 0)
(0.0915952 -0.00208121 0)
(0.0929806 -0.00207341 0)
(0.0943606 -0.00206494 0)
(0.0957347 -0.00205579 0)
(0.0971025 -0.00204592 0)
(0.0984635 -0.00203532 0)
(0.0998172 -0.00202396 0)
(0.101163 -0.00201182 0)
(0.102501 -0.00199887 0)
(0.103829 -0.00198511 0)
(0.105148 -0.00197049 0)
(0.106458 -0.00195502 0)
(0.107756 -0.00193865 0)
(0.109044 -0.00192139 0)
(0.110319 -0.0019032 0)
(0.111582 -0.00188407 0)
(0.112832 -0.00186399 0)
(0.114069 -0.00184294 0)
(0.115291 -0.0018209 0)
(0.116498 -0.00179786 0)
(0.117689 -0.00177382 0)
(0.118864 -0.00174875 0)
(0.120022 -0.00172266 0)
(0.121162 -0.00169553 0)
(0.122284 -0.00166736 0)
(0.123387 -0.00163814 0)
(0.12447 -0.00160787 0)
(0.125532 -0.00157656 0)
(0.126573 -0.0015442 0)
(0.127592 -0.0015108 0)
(0.128589 -0.00147635 0)
(0.129562 -0.00144087 0)
(0.130511 -0.00140437 0)
(0.131436 -0.00136686 0)
(0.132335 -0.00132835 0)
(0.133208 -0.00128886 0)
(0.134054 -0.00124839 0)
(0.134874 -0.00120698 0)
(0.135665 -0.00116465 0)
(0.136428 -0.00112141 0)
(0.137161 -0.00107729 0)
(0.137865 -0.00103233 0)
(0.138539 -0.000986538 0)
(0.139181 -0.000939962 0)
(0.139793 -0.000892629 0)
(0.140372 -0.000844576 0)
(0.14092 -0.000795838 0)
(0.141434 -0.000746455 0)
(0.141916 -0.000696466 0)
(0.142364 -0.000645912 0)
(0.142778 -0.000594837 0)
(0.143157 -0.000543284 0)
(0.143503 -0.0004913 0)
(0.143813 -0.000438929 0)
(0.144088 -0.00038622 0)
(0.144328 -0.00033322 0)
(0.144533 -0.000279979 0)
(0.144702 -0.000226544 0)
(0.144835 -0.000172967 0)
(0.144932 -0.000119297 0)
(0.144994 -6.55831e-05 0)
(0.14502 -1.18764e-05 0)
(0.14501 4.17736e-05 0)
(0.144964 9.53172e-05 0)
(0.144883 0.000148706 0)
(0.144766 0.00020189 0)
(0.144613 0.000254822 0)
(0.144425 0.000307456 0)
(0.144203 0.000359744 0)
(0.143945 0.000411642 0)
(0.143653 0.000463105 0)
(0.143327 0.000514092 0)
(0.142967 0.00056456 0)
(0.142574 0.00061447 0)
(0.142147 0.000663783 0)
(0.141688 0.000712462 0)
(0.141196 0.000760473 0)
(0.140673 0.000807781 0)
(0.140119 0.000854355 0)
(0.139533 0.000900166 0)
(0.138917 0.000945184 0)
(0.138272 0.000989385 0)
(0.137597 0.00103274 0)
(0.136894 0.00107524 0)
(0.136162 0.00111685 0)
(0.135404 0.00115755 0)
(0.134618 0.00119734 0)
(0.133806 0.00123619 0)
(0.132968 0.0012741 0)
(0.132106 0.00131105 0)
(0.131219 0.00134703 0)
(0.130309 0.00138204 0)
(0.129375 0.00141607 0)
(0.128419 0.00144911 0)
(0.127442 0.00148118 0)
(0.126443 0.00151225 0)
(0.125424 0.00154234 0)
(0.124386 0.00157145 0)
(0.123328 0.00159959 0)
(0.122252 0.00162675 0)
(0.121158 0.00165294 0)
(0.120047 0.00167818 0)
(0.118919 0.00170247 0)
(0.117775 0.00172582 0)
(0.116617 0.00174825 0)
(0.115443 0.00176976 0)
(0.114256 0.00179038 0)
(0.113055 0.0018101 0)
(0.111841 0.00182896 0)
(0.110615 0.00184695 0)
(0.109378 0.00186411 0)
(0.108129 0.00188045 0)
(0.10687 0.00189598 0)
(0.1056 0.00191073 0)
(0.104321 0.00192471 0)
(0.103033 0.00193793 0)
(0.101736 0.00195043 0)
(0.100431 0.00196221 0)
(0.099119 0.0019733 0)
(0.0977995 0.00198372 0)
(0.0964733 0.00199349 0)
(0.0951408 0.00200263 0)
(0.0938024 0.00201115 0)
(0.0924585 0.00201908 0)
(0.0911095 0.00202644 0)
(0.0897559 0.00203325 0)
(0.0883979 0.00203952 0)
(0.0870359 0.00204528 0)
(0.0856703 0.00205055 0)
(0.0843013 0.00205535 0)
(0.0829292 0.00205969 0)
(0.0815545 0.00206359 0)
(0.0801773 0.00206708 0)
(0.0787979 0.00207017 0)
(0.0774166 0.00207287 0)
(0.0760336 0.00207522 0)
(0.0746492 0.00207722 0)
(0.0732636 0.00207889 0)
(0.071877 0.00208026 0)
(0.0704896 0.00208133 0)
(0.0691015 0.00208212 0)
(0.0677131 0.00208265 0)
(0.0663244 0.00208293 0)
(0.0649356 0.00208299 0)
(0.0635468 0.00208282 0)
(0.0621582 0.00208246 0)
(0.0607699 0.00208191 0)
(0.0593821 0.00208118 0)
(0.0579948 0.0020803 0)
(0.0566082 0.00207927 0)
(0.0552223 0.0020781 0)
(0.0538373 0.00207681 0)
(0.0524531 0.00207541 0)
(0.0510699 0.00207391 0)
(0.0496878 0.00207232 0)
(0.0483067 0.00207066 0)
(0.0469268 0.00206893 0)
(0.0455481 0.00206714 0)
(0.0441706 0.00206531 0)
(0.0427943 0.00206343 0)
(0.0414193 0.00206153 0)
(0.0400456 0.00205961 0)
(0.0386731 0.00205768 0)
(0.037302 0.00205574 0)
(0.0359322 0.00205381 0)
(0.0345636 0.00205189 0)
(0.0331963 0.00204999 0)
(0.0318303 0.00204812 0)
(0.0304655 0.00204627 0)
(0.029102 0.00204446 0)
(0.0277396 0.0020427 0)
(0.0263785 0.00204099 0)
(0.0250184 0.00203933 0)
(0.0236594 0.00203773 0)
(0.0223015 0.00203619 0)
(0.0209446 0.00203472 0)
(0.0195886 0.00203332 0)
(0.0182336 0.002032 0)
(0.0168794 0.00203076 0)
(0.015526 0.00202961 0)
(0.0141734 0.00202853 0)
(0.0128214 0.00202755 0)
(0.0114701 0.00202666 0)
(0.0101193 0.00202586 0)
(0.00876904 0.00202516 0)
(0.00741921 0.00202455 0)
(0.00606975 0.00202405 0)
(0.0047206 0.00202364 0)
(0.00337169 0.00202334 0)
(0.00202294 0.00202313 0)
(0.000674304 0.00202303 0)
(0.000684357 -0.00342232 0)
(0.00205311 -0.00342253 0)
(0.003422 -0.00342296 0)
(0.0047911 -0.0034236 0)
(0.0061605 -0.00342445 0)
(0.00753028 -0.00342551 0)
(0.00890054 -0.00342678 0)
(0.0102713 -0.00342825 0)
(0.0116428 -0.00342992 0)
(0.0130149 -0.00343179 0)
(0.0143879 -0.00343386 0)
(0.0157617 -0.00343611 0)
(0.0171364 -0.00343855 0)
(0.0185122 -0.00344116 0)
(0.019889 -0.00344394 0)
(0.021267 -0.00344689 0)
(0.0226463 -0.00345 0)
(0.0240268 -0.00345326 0)
(0.0254086 -0.00345666 0)
(0.0267919 -0.00346019 0)
(0.0281766 -0.00346384 0)
(0.0295627 -0.00346761 0)
(0.0309505 -0.00347148 0)
(0.0323398 -0.00347545 0)
(0.0337307 -0.00347949 0)
(0.0351232 -0.0034836 0)
(0.0365175 -0.00348776 0)
(0.0379134 -0.00349196 0)
(0.039311 -0.00349619 0)
(0.0407103 -0.00350043 0)
(0.0421113 -0.00350466 0)
(0.0435141 -0.00350887 0)
(0.0449185 -0.00351304 0)
(0.0463246 -0.00351716 0)
(0.0477324 -0.0035212 0)
(0.0491417 -0.00352514 0)
(0.0505527 -0.00352896 0)
(0.0519652 -0.00353265 0)
(0.0533791 -0.00353618 0)
(0.0547944 -0.00353953 0)
(0.0562111 -0.00354267 0)
(0.057629 -0.00354558 0)
(0.059048 -0.00354824 0)
(0.0604681 -0.00355062 0)
(0.0618891 -0.00355269 0)
(0.0633108 -0.00355442 0)
(0.0647333 -0.00355579 0)
(0.0661562 -0.00355676 0)
(0.0675794 -0.00355731 0)
(0.0690028 -0.00355741 0)
(0.0704262 -0.00355703 0)
(0.0718494 -0.00355612 0)
(0.0732721 -0.00355467 0)
(0.0746942 -0.00355262 0)
(0.0761153 -0.00354996 0)
(0.0775353 -0.00354665 0)
(0.0789539 -0.00354265 0)
(0.0803708 -0.00353791 0)
(0.0817856 -0.00353242 0)
(0.0831981 -0.00352612 0)
(0.084608 -0.00351899 0)
(0.0860149 -0.00351098 0)
(0.0874185 -0.00350205 0)
(0.0888183 -0.00349218 0)
(0.090214 -0.0034813 0)
(0.0916052 -0.0034694 0)
(0.0929914 -0.00345642 0)
(0.0943723 -0.00344234 0)
(0.0957474 -0.00342711 0)
(0.0971161 -0.00341069 0)
(0.0984781 -0.00339304 0)
(0.0998328 -0.00337413 0)
(0.10118 -0.00335392 0)
(0.102518 -0.00333237 0)
(0.103848 -0.00330945 0)
(0.105168 -0.00328512 0)
(0.106479 -0.00325934 0)
(0.107779 -0.00323209 0)
(0.109067 -0.00320334 0)
(0.110344 -0.00317304 0)
(0.111608 -0.00314118 0)
(0.11286 -0.00310773 0)
(0.114098 -0.00307265 0)
(0.115321 -0.00303594 0)
(0.116529 -0.00299756 0)
(0.117722 -0.00295749 0)
(0.118898 -0.00291573 0)
(0.120058 -0.00287224 0)
(0.121199 -0.00282703 0)
(0.122322 -0.00278009 0)
(0.123426 -0.0027314 0)
(0.124511 -0.00268095 0)
(0.125574 -0.00262876 0)
(0.126617 -0.00257483 0)
(0.127637 -0.00251915 0)
(0.128635 -0.00246173 0)
(0.12961 -0.00240259 0)
(0.13056 -0.00234175 0)
(0.131486 -0.00227921 0)
(0.132387 -0.00221501 0)
(0.133261 -0.00214917 0)
(0.134109 -0.00208171 0)
(0.134929 -0.00201267 0)
(0.135722 -0.00194208 0)
(0.136486 -0.00186999 0)
(0.137221 -0.00179643 0)
(0.137926 -0.00172145 0)
(0.1386 -0.00164511 0)
(0.139244 -0.00156744 0)
(0.139856 -0.00148852 0)
(0.140437 -0.00140839 0)
(0.140985 -0.00132711 0)
(0.141501 -0.00124476 0)
(0.141983 -0.0011614 0)
(0.142431 -0.0010771 0)
(0.142846 -0.000991924 0)
(0.143226 -0.000905953 0)
(0.143572 -0.00081926 0)
(0.143883 -0.000731923 0)
(0.144159 -0.000644022 0)
(0.144399 -0.000555635 0)
(0.144604 -0.000466844 0)
(0.144773 -0.000377732 0)
(0.144907 -0.000288381 0)
(0.145004 -0.000198874 0)
(0.145066 -0.000109296 0)
(0.145092 -1.97299e-05 0)
(0.145081 6.97417e-05 0)
(0.145035 0.000159036 0)
(0.144954 0.00024807 0)
(0.144836 0.000336764 0)
(0.144684 0.000425037 0)
(0.144495 0.00051281 0)
(0.144272 0.000600008 0)
(0.144014 0.000686553 0)
(0.143722 0.000772373 0)
(0.143395 0.000857397 0)
(0.143034 0.000941555 0)
(0.14264 0.00102478 0)
(0.142213 0.00110701 0)
(0.141752 0.00118818 0)
(0.14126 0.00126824 0)
(0.140736 0.00134712 0)
(0.14018 0.00142477 0)
(0.139594 0.00150116 0)
(0.138977 0.00157622 0)
(0.13833 0.00164991 0)
(0.137654 0.0017222 0)
(0.13695 0.00179305 0)
(0.136217 0.00186242 0)
(0.135457 0.00193028 0)
(0.13467 0.00199661 0)
(0.133857 0.00206138 0)
(0.133018 0.00212457 0)
(0.132155 0.00218616 0)
(0.131267 0.00224613 0)
(0.130355 0.00230449 0)
(0.12942 0.00236121 0)
(0.128463 0.00241629 0)
(0.127484 0.00246972 0)
(0.126484 0.00252151 0)
(0.125464 0.00257166 0)
(0.124424 0.00262017 0)
(0.123365 0.00266706 0)
(0.122287 0.00271232 0)
(0.121192 0.00275597 0)
(0.12008 0.00279802 0)
(0.118951 0.00283849 0)
(0.117806 0.0028774 0)
(0.116646 0.00291477 0)
(0.115471 0.00295061 0)
(0.114283 0.00298494 0)
(0.113081 0.0030178 0)
(0.111866 0.00304921 0)
(0.110639 0.00307919 0)
(0.1094 0.00310777 0)
(0.10815 0.00313498 0)
(0.10689 0.00316085 0)
(0.105619 0.0031854 0)
(0.104339 0.00320867 0)
(0.10305 0.0032307 0)
(0.101752 0.0032515 0)
(0.100447 0.00327112 0)
(0.0991334 0.00328959 0)
(0.097813 0.00330693 0)
(0.0964859 0.00332319 0)
(0.0951525 0.00333839 0)
(0.0938133 0.00335258 0)
(0.0924687 0.00336577 0)
(0.091119 0.00337802 0)
(0.0897646 0.00338934 0)
(0.0884059 0.00339977 0)
(0.0870433 0.00340935 0)
(0.085677 0.00341811 0)
(0.0843073 0.00342608 0)
(0.0829347 0.00343329 0)
(0.0815594 0.00343978 0)
(0.0801817 0.00344557 0)
(0.0788018 0.0034507 0)
(0.07742 0.00345519 0)
(0.0760365 0.00345908 0)
(0.0746517 0.0034624 0)
(0.0732656 0.00346517 0)
(0.0718786 0.00346742 0)
(0.0704908 0.00346919 0)
(0.0691024 0.00347049 0)
(0.0677136 0.00347135 0)
(0.0663246 0.00347181 0)
(0.0649355 0.00347188 0)
(0.0635464 0.0034716 0)
(0.0621576 0.00347098 0)
(0.0607691 0.00347004 0)
(0.059381 0.00346882 0)
(0.0579936 0.00346733 0)
(0.0566067 0.00346559 0)
(0.0552207 0.00346363 0)
(0.0538355 0.00346147 0)
(0.0524512 0.00345912 0)
(0.0510679 0.00345661 0)
(0.0496856 0.00345396 0)
(0.0483045 0.00345117 0)
(0.0469245 0.00344828 0)
(0.0455457 0.00344529 0)
(0.0441681 0.00344222 0)
(0.0427918 0.00343909 0)
(0.0414168 0.00343591 0)
(0.040043 0.0034327 0)
(0.0386706 0.00342947 0)
(0.0372994 0.00342624 0)
(0.0359296 0.00342301 0)
(0.0345611 0.0034198 0)
(0.0331938 0.00341662 0)
(0.0318278 0.00341349 0)
(0.0304631 0.00341041 0)
(0.0290996 0.00340739 0)
(0.0277373 0.00340445 0)
(0.0263762 0.00340158 0)
(0.0250162 0.00339881 0)
(0.0236573 0.00339614 0)
(0.0222995 0.00339357 0)
(0.0209427 0.00339112 0)
(0.0195868 0.00338879 0)
(0.0182319 0.00338658 0)
(0.0168778 0.00338451 0)
(0.0155245 0.00338258 0)
(0.014172 0.00338079 0)
(0.0128201 0.00337915 0)
(0.0114689 0.00337766 0)
(0.0101183 0.00337633 0)
(0.00876816 0.00337516 0)
(0.00741847 0.00337415 0)
(0.00606914 0.0033733 0)
(0.00472012 0.00337262 0)
(0.00337135 0.00337211 0)
(0.00202274 0.00337177 0)
(0.000674235 0.0033716 0)
(0.000684228 -0.00479095 0)
(0.00205273 -0.00479125 0)
(0.00342136 -0.00479185 0)
(0.0047902 -0.00479274 0)
(0.00615935 -0.00479394 0)
(0.00752888 -0.00479543 0)
(0.00889889 -0.0047972 0)
(0.0102694 -0.00479927 0)
(0.0116406 -0.00480162 0)
(0.0130126 -0.00480424 0)
(0.0143853 -0.00480714 0)
(0.0157588 -0.0048103 0)
(0.0171334 -0.00481372 0)
(0.0185089 -0.00481738 0)
(0.0198856 -0.00482129 0)
(0.0212634 -0.00482543 0)
(0.0226424 -0.00482979 0)
(0.0240228 -0.00483436 0)
(0.0254044 -0.00483914 0)
(0.0267875 -0.00484409 0)
(0.0281721 -0.00484922 0)
(0.0295581 -0.00485451 0)
(0.0309457 -0.00485995 0)
(0.0323349 -0.00486551 0)
(0.0337258 -0.00487119 0)
(0.0351182 -0.00487696 0)
(0.0365124 -0.00488281 0)
(0.0379083 -0.00488871 0)
(0.0393059 -0.00489465 0)
(0.0407052 -0.00490061 0)
(0.0421062 -0.00490656 0)
(0.043509 -0.00491248 0)
(0.0449135 -0.00491834 0)
(0.0463197 -0.00492413 0)
(0.0477275 -0.00492981 0)
(0.049137 -0.00493536 0)
(0.0505481 -0.00494074 0)
(0.0519608 -0.00494594 0)
(0.0533749 -0.00495091 0)
(0.0547905 -0.00495563 0)
(0.0562074 -0.00496006 0)
(0.0576256 -0.00496417 0)
(0.059045 -0.00496793 0)
(0.0604654 -0.00497129 0)
(0.0618867 -0.00497423 0)
(0.0633089 -0.00497669 0)
(0.0647318 -0.00497865 0)
(0.0661552 -0.00498006 0)
(0.067579 -0.00498088 0)
(0.069003 -0.00498106 0)
(0.070427 -0.00498056 0)
(0.0718508 -0.00497934 0)
(0.0732742 -0.00497735 0)
(0.0746969 -0.00497454 0)
(0.0761189 -0.00497087 0)
(0.0775397 -0.00496628 0)
(0.0789591 -0.00496072 0)
(0.0803768 -0.00495415 0)
(0.0817926 -0.00494651 0)
(0.0832061 -0.00493775 0)
(0.084617 -0.00492781 0)
(0.086025 -0.00491665 0)
(0.0874297 -0.00490421 0)
(0.0888307 -0.00489044 0)
(0.0902276 -0.00487527 0)
(0.09162 -0.00485866 0)
(0.0930076 -0.00484055 0)
(0.0943898 -0.00482088 0)
(0.0957663 -0.00479961 0)
(0.0971365 -0.00477668 0)
(0.0985 -0.00475202 0)
(0.0998562 -0.0047256 0)
(0.101205 -0.00469736 0)
(0.102545 -0.00466724 0)
(0.103876 -0.0046352 0)
(0.105198 -0.00460118 0)
(0.106511 -0.00456515 0)
(0.107812 -0.00452704 0)
(0.109103 -0.00448683 0)
(0.110381 -0.00444445 0)
(0.111648 -0.00439989 0)
(0.112901 -0.00435309 0)
(0.114141 -0.00430402 0)
(0.115366 -0.00425264 0)
(0.116576 -0.00419894 0)
(0.117771 -0.00414287 0)
(0.118949 -0.00408442 0)
(0.120111 -0.00402356 0)
(0.121255 -0.00396028 0)
(0.12238 -0.00389456 0)
(0.123486 -0.0038264 0)
(0.124572 -0.00375579 0)
(0.125638 -0.00368272 0)
(0.126683 -0.0036072 0)
(0.127705 -0.00352923 0)
(0.128705 -0.00344884 0)
(0.129682 -0.00336602 0)
(0.130634 -0.00328081 0)
(0.131562 -0.00319323 0)
(0.132465 -0.00310332 0)
(0.133341 -0.00301109 0)
(0.134191 -0.00291661 0)
(0.135013 -0.0028199 0)
(0.135808 -0.00272102 0)
(0.136573 -0.00262003 0)
(0.13731 -0.00251699 0)
(0.138016 -0.00241195 0)
(0.138693 -0.00230499 0)
(0.139338 -0.00219618 0)
(0.139952 -0.00208561 0)
(0.140534 -0.00197334 0)
(0.141083 -0.00185947 0)
(0.1416 -0.00174408 0)
(0.142083 -0.00162728 0)
(0.142533 -0.00150916 0)
(0.142949 -0.00138981 0)
(0.14333 -0.00126934 0)
(0.143677 -0.00114787 0)
(0.143988 -0.00102548 0)
(0.144265 -0.000902309 0)
(0.144505 -0.000778453 0)
(0.144711 -0.000654031 0)
(0.14488 -0.000529158 0)
(0.145014 -0.00040395 0)
(0.145112 -0.000278525 0)
(0.145173 -0.000152999 0)
(0.145199 -2.74892e-05 0)
(0.145189 9.78869e-05 0)
(0.145142 0.000223013 0)
(0.14506 0.000347775 0)
(0.144943 0.000472058 0)
(0.144789 0.00059575 0)
(0.1446 0.000718741 0)
(0.144377 0.000840923 0)
(0.144118 0.000962189 0)
(0.143824 0.00108244 0)
(0.143496 0.00120157 0)
(0.143135 0.00131948 0)
(0.142739 0.00143609 0)
(0.142311 0.00155129 0)
(0.141849 0.00166502 0)
(0.141355 0.00177717 0)
(0.14083 0.00188768 0)
(0.140273 0.00199647 0)
(0.139685 0.00210347 0)
(0.139066 0.00220861 0)
(0.138418 0.00231184 0)
(0.13774 0.0024131 0)
(0.137034 0.00251233 0)
(0.1363 0.00260949 0)
(0.135538 0.00270454 0)
(0.134749 0.00279743 0)
(0.133934 0.00288814 0)
(0.133093 0.00297663 0)
(0.132228 0.00306288 0)
(0.131338 0.00314686 0)
(0.130424 0.00322857 0)
(0.129487 0.00330798 0)
(0.128528 0.0033851 0)
(0.127547 0.00345991 0)
(0.126545 0.00353242 0)
(0.125523 0.00360262 0)
(0.124481 0.00367053 0)
(0.12342 0.00373615 0)
(0.122341 0.0037995 0)
(0.121243 0.00386059 0)
(0.120129 0.00391944 0)
(0.118998 0.00397608 0)
(0.117852 0.00403052 0)
(0.11669 0.00408281 0)
(0.115514 0.00413295 0)
(0.114323 0.00418099 0)
(0.113119 0.00422696 0)
(0.111903 0.00427089 0)
(0.110674 0.00431283 0)
(0.109434 0.0043528 0)
(0.108182 0.00439085 0)
(0.10692 0.00442702 0)
(0.105648 0.00446136 0)
(0.104366 0.0044939 0)
(0.103076 0.00452468 0)
(0.101777 0.00455376 0)
(0.10047 0.00458119 0)
(0.0991549 0.00460699 0)
(0.0978331 0.00463123 0)
(0.0965047 0.00465394 0)
(0.0951701 0.00467518 0)
(0.0938297 0.00469499 0)
(0.0924839 0.00471342 0)
(0.0911331 0.00473051 0)
(0.0897777 0.00474632 0)
(0.0884179 0.00476088 0)
(0.0870542 0.00477425 0)
(0.085687 0.00478646 0)
(0.0843164 0.00479758 0)
(0.0829429 0.00480763 0)
(0.0815668 0.00481666 0)
(0.0801882 0.00482473 0)
(0.0788075 0.00483186 0)
(0.077425 0.00483811 0)
(0.0760408 0.00484352 0)
(0.0746553 0.00484812 0)
(0.0732686 0.00485196 0)
(0.071881 0.00485508 0)
(0.0704926 0.00485751 0)
(0.0691037 0.00485929 0)
(0.0677144 0.00486047 0)
(0.0663249 0.00486107 0)
(0.0649353 0.00486114 0)
(0.0635459 0.00486071 0)
(0.0621567 0.0048598 0)
(0.0607678 0.00485846 0)
(0.0593794 0.00485672 0)
(0.0579916 0.0048546 0)
(0.0566045 0.00485214 0)
(0.0552182 0.00484937 0)
(0.0538328 0.00484632 0)
(0.0524483 0.00484301 0)
(0.0510648 0.00483946 0)
(0.0496823 0.00483572 0)
(0.0483011 0.0048318 0)
(0.0469209 0.00482772 0)
(0.045542 0.00482351 0)
(0.0441644 0.00481919 0)
(0.042788 0.00481479 0)
(0.0414129 0.00481032 0)
(0.0400391 0.00480581 0)
(0.0386667 0.00480127 0)
(0.0372955 0.00479672 0)
(0.0359257 0.00479219 0)
(0.0345572 0.00478768 0)
(0.03319 0.00478322 0)
(0.0318241 0.00477881 0)
(0.0304594 0.00477448 0)
(0.029096 0.00477025 0)
(0.0277338 0.00476611 0)
(0.0263728 0.00476209 0)
(0.025013 0.0047582 0)
(0.0236542 0.00475444 0)
(0.0222965 0.00475084 0)
(0.0209398 0.0047474 0)
(0.0195841 0.00474413 0)
(0.0182293 0.00474103 0)
(0.0168754 0.00473813 0)
(0.0155223 0.00473541 0)
(0.0141699 0.0047329 0)
(0.0128183 0.0047306 0)
(0.0114672 0.00472851 0)
(0.0101168 0.00472664 0)
(0.00876685 0.00472499 0)
(0.00741735 0.00472358 0)
(0.00606823 0.00472239 0)
(0.00471941 0.00472144 0)
(0.00337084 0.00472072 0)
(0.00202243 0.00472024 0)
(0.000674133 0.00472001 0)
(0.000684056 -0.00615927 0)
(0.00205221 -0.00615966 0)
(0.0034205 -0.00616043 0)
(0.004789 -0.00616159 0)
(0.00615781 -0.00616313 0)
(0.00752701 -0.00616505 0)
(0.00889668 -0.00616734 0)
(0.0102669 -0.00617001 0)
(0.0116378 -0.00617303 0)
(0.0130094 -0.00617642 0)
(0.0143818 -0.00618015 0)
(0.0157551 -0.00618423 0)
(0.0171293 -0.00618863 0)
(0.0185046 -0.00619336 0)
(0.019881 -0.00619841 0)
(0.0212585 -0.00620375 0)
(0.0226373 -0.00620937 0)
(0.0240174 -0.00621527 0)
(0.0253989 -0.00622143 0)
(0.0267817 -0.00622782 0)
(0.0281661 -0.00623444 0)
(0.029552 -0.00624127 0)
(0.0309394 -0.00624829 0)
(0.0323285 -0.00625547 0)
(0.0337192 -0.00626279 0)
(0.0351116 -0.00627025 0)
(0.0365057 -0.0062778 0)
(0.0379015 -0.00628542 0)
(0.039299 -0.0062931 0)
(0.0406983 -0.00630079 0)
(0.0420994 -0.00630848 0)
(0.0435022 -0.00631613 0)
(0.0449068 -0.00632372 0)
(0.0463131 -0.0063312 0)
(0.0477211 -0.00633855 0)
(0.0491307 -0.00634574 0)
(0.050542 -0.00635271 0)
(0.0519549 -0.00635944 0)
(0.0533693 -0.00636589 0)
(0.0547852 -0.00637202 0)
(0.0562025 -0.00637777 0)
(0.057621 -0.00638312 0)
(0.0590408 -0.00638801 0)
(0.0604617 -0.0063924 0)
(0.0618836 -0.00639624 0)
(0.0633063 -0.00639948 0)
(0.0647298 -0.00640207 0)
(0.0661539 -0.00640395 0)
(0.0675783 -0.00640507 0)
(0.0690031 -0.00640538 0)
(0.0704279 -0.00640482 0)
(0.0718525 -0.00640333 0)
(0.0732768 -0.00640085 0)
(0.0747006 -0.00639732 0)
(0.0761235 -0.00639268 0)
(0.0775454 -0.00638687 0)
(0.0789659 -0.00637981 0)
(0.0803849 -0.00637145 0)
(0.0818019 -0.00636172 0)
(0.0832167 -0.00635055 0)
(0.084629 -0.00633786 0)
(0.0860384 -0.00632361 0)
(0.0874446 -0.0063077 0)
(0.0888471 -0.00629009 0)
(0.0902456 -0.00627068 0)
(0.0916398 -0.00624942 0)
(0.0930291 -0.00622623 0)
(0.0944131 -0.00620104 0)
(0.0957915 -0.00617378 0)
(0.0971636 -0.00614438 0)
(0.0985291 -0.00611278 0)
(0.0998874 -0.0060789 0)
(0.101238 -0.00604267 0)
(0.10258 -0.00600404 0)
(0.103914 -0.00596292 0)
(0.105238 -0.00591927 0)
(0.106553 -0.00587302 0)
(0.107857 -0.0058241 0)
(0.10915 -0.00577247 0)
(0.110431 -0.00571806 0)
(0.1117 -0.00566083 0)
(0.112956 -0.00560072 0)
(0.114198 -0.00553768 0)
(0.115426 -0.00547168 0)
(0.116639 -0.00540268 0)
(0.117836 -0.00533063 0)
(0.119018 -0.00525552 0)
(0.120182 -0.0051773 0)
(0.121328 -0.00509596 0)
(0.122456 -0.00501149 0)
(0.123565 -0.00492386 0)
(0.124654 -0.00483307 0)
(0.125723 -0.00473912 0)
(0.12677 -0.00464201 0)
(0.127796 -0.00454175 0)
(0.128798 -0.00443836 0)
(0.129778 -0.00433185 0)
(0.130733 -0.00422225 0)
(0.131664 -0.00410959 0)
(0.132569 -0.00399392 0)
(0.133448 -0.00387528 0)
(0.1343 -0.00375372 0)
(0.135125 -0.0036293 0)
(0.135922 -0.00350208 0)
(0.13669 -0.00337213 0)
(0.137429 -0.00323954 0)
(0.138138 -0.00310437 0)
(0.138816 -0.00296673 0)
(0.139463 -0.0028267 0)
(0.140079 -0.00268439 0)
(0.140663 -0.00253989 0)
(0.141215 -0.00239334 0)
(0.141733 -0.00224482 0)
(0.142218 -0.00209448 0)
(0.142669 -0.00194244 0)
(0.143086 -0.00178881 0)
(0.143468 -0.00163375 0)
(0.143816 -0.00147738 0)
(0.144129 -0.00131984 0)
(0.144406 -0.00116128 0)
(0.144647 -0.00100184 0)
(0.144853 -0.000841671 0)
(0.145023 -0.00068092 0)
(0.145157 -0.000519739 0)
(0.145255 -0.000358277 0)
(0.145317 -0.000196685 0)
(0.145343 -3.51157e-05 0)
(0.145332 0.000126281 0)
(0.145285 0.000287355 0)