/*--------------------------------*- C++ -*----------------------------------*\
| =========                 |                                                 |
| \\      /  F ield         | OpenFOAM: The Open Source CFD Toolbox           |
|  \\    /   O peration     | Version:  v2012                                 |
|   \\  /    A nd           | Website:  www.openfoam.com                      |
|    \\/     M anipulation  |                                                 |
\*---------------------------------------------------------------------------*/
FoamFile
{
    version     2.0;
    format      ascii;
    class       surfaceScalarField;
    location    "3.75";
    object      phi;
}
// * * * * * * * * * * * * * * * * * * * * * * * * * * * * * * * * * * * * * //

dimensions      [0 3 -1 0 0 0 0];
oriented        oriented;


internalField   nonuniform List<scalar> 
130560
(
3.57376e-06
-3.57376e-06
7.14732e-06
-3.57356e-06
1.07205e-05
-3.57317e-06
1.42931e-05
-3.57259e-06
1.78649e-05
-3.5718e-06
2.14357e-05
-3.57082e-06
2.50053e-05
-3.56964e-06
2.85736e-05
-3.56824e-06
3.21402e-05
-3.56664e-06
3.5705e-05
-3.56482e-06
3.92678e-05
-3.56278e-06
4.28283e-05
-3.56051e-06
4.63863e-05
-3.55801e-06
4.99416e-05
-3.55527e-06
5.34939e-05
-3.55228e-06
5.70429e-05
-3.54904e-06
6.05885e-05
-3.54552e-06
6.41302e-05
-3.54174e-06
6.76679e-05
-3.53767e-06
7.12012e-05
-3.53331e-06
7.47298e-05
-3.52864e-06
7.82535e-05
-3.52366e-06
8.17718e-05
-3.51834e-06
8.52845e-05
-3.51269e-06
8.87912e-05
-3.50669e-06
9.22915e-05
-3.50032e-06
9.57851e-05
-3.49358e-06
9.92715e-05
-3.48644e-06
0.00010275
-3.4789e-06
0.000106221
-3.47094e-06
0.000109684
-3.46254e-06
0.000113138
-3.45369e-06
0.000116582
-3.44438e-06
0.000120017
-3.43459e-06
0.000123441
-3.42431e-06
0.000126854
-3.41352e-06
0.000130257
-3.40219e-06
0.000133647
-3.39033e-06
0.000137025
-3.37791e-06
0.00014039
-3.36492e-06
0.000143741
-3.35134e-06
0.000147078
-3.33715e-06
0.000150401
-3.32234e-06
0.000153707
-3.30689e-06
0.000156998
-3.29079e-06
0.000160272
-3.27403e-06
0.000163529
-3.25658e-06
0.000166767
-3.23844e-06
0.000169987
-3.21958e-06
0.000173187
-3.2e-06
0.000176367
-3.17968e-06
0.000179525
-3.15861e-06
0.000182662
-3.13677e-06
0.000185776
-3.11415e-06
0.000188867
-3.09075e-06
0.000191933
-3.06654e-06
0.000194975
-3.04152e-06
0.000197991
-3.01569e-06
0.00020098
-2.98902e-06
0.000203941
-2.96152e-06
0.000206874
-2.93317e-06
0.000209778
-2.90398e-06
0.000212652
-2.87392e-06
0.000215495
-2.843e-06
0.000218306
-2.81122e-06
0.000221085
-2.77857e-06
0.00022383
-2.74505e-06
0.000226541
-2.71065e-06
0.000229216
-2.67539e-06
0.000231855
-2.63926e-06
0.000234458
-2.60226e-06
0.000237022
-2.56439e-06
0.000239548
-2.52567e-06
0.000242034
-2.4861e-06
0.000244479
-2.44567e-06
0.000246884
-2.40441e-06
0.000249246
-2.36233e-06
0.000251566
-2.31942e-06
0.000253841
-2.27571e-06
0.000256073
-2.2312e-06
0.000258258
-2.18591e-06
0.000260398
-2.13986e-06
0.000262491
-2.09305e-06
0.000264537
-2.04552e-06
0.000266534
-1.99727e-06
0.000268482
-1.94833e-06
0.000270381
-1.89871e-06
0.00027223
-1.84844e-06
0.000274027
-1.79754e-06
0.000275773
-1.74603e-06
0.000277467
-1.69394e-06
0.000279108
-1.64128e-06
0.000280696
-1.5881e-06
0.000282231
-1.5344e-06
0.000283711
-1.48023e-06
0.000285137
-1.4256e-06
0.000286507
-1.37054e-06
0.000287822
-1.31509e-06
0.000289082
-1.25927e-06
0.000290285
-1.20311e-06
0.000291431
-1.14664e-06
0.000292521
-1.08989e-06
0.000293554
-1.0329e-06
0.00029453
-9.7568e-07
0.000295448
-9.18274e-07
0.000296309
-8.6071e-07
0.000297112
-8.03019e-07
0.000297857
-7.45229e-07
0.000298544
-6.87371e-07
0.000299174
-6.29475e-07
0.000299745
-5.71571e-07
0.000300259
-5.13688e-07
0.000300715
-4.55855e-07
0.000301113
-3.981e-07
0.000301454
-3.40451e-07
0.000301737
-2.82936e-07
0.000301962
-2.25583e-07
0.000302131
-1.68417e-07
0.000302242
-1.11464e-07
0.000302297
-5.47494e-08
0.000302295
1.70226e-09
0.000302237
5.78672e-08
0.000302123
1.13723e-07
0.000301954
1.69246e-07
0.00030173
2.24416e-07
0.000301451
2.79212e-07
0.000301117
3.33614e-07
0.000300729
3.87603e-07
0.000300288
4.41161e-07
0.000299794
4.94271e-07
0.000299247
5.46915e-07
0.000298648
5.99079e-07
0.000297997
6.50747e-07
0.000297295
7.01906e-07
0.000296543
7.52542e-07
0.00029574
8.02643e-07
0.000294888
8.52197e-07
0.000293987
9.01195e-07
0.000293037
9.49625e-07
0.00029204
9.97479e-07
0.000290995
1.04475e-06
0.000289903
1.09142e-06
0.000288766
1.1375e-06
0.000287583
1.18297e-06
0.000286355
1.22784e-06
0.000285083
1.27208e-06
0.000283767
1.3157e-06
0.000282409
1.35871e-06
0.000281008
1.40108e-06
0.000279565
1.44282e-06
0.000278081
1.48394e-06
0.000276556
1.52442e-06
0.000274992
1.56426e-06
0.000273389
1.60347e-06
0.000271747
1.64205e-06
0.000270067
1.67999e-06
0.000268349
1.7173e-06
0.000266595
1.75398e-06
0.000264805
1.79002e-06
0.00026298
1.82544e-06
0.00026112
1.86023e-06
0.000259225
1.8944e-06
0.000257297
1.92794e-06
0.000255336
1.96086e-06
0.000253343
1.99318e-06
0.000251318
2.02487e-06
0.000249262
2.05596e-06
0.000247176
2.08645e-06
0.00024506
2.11633e-06
0.000242914
2.14562e-06
0.00024074
2.17432e-06
0.000238537
2.20243e-06
0.000236307
2.22996e-06
0.00023405
2.25691e-06
0.000231767
2.28329e-06
0.000229458
2.3091e-06
0.000227124
2.33435e-06
0.000224765
2.35905e-06
0.000222381
2.38319e-06
0.000219975
2.40678e-06
0.000217545
2.42984e-06
0.000215092
2.45236e-06
0.000212618
2.47436e-06
0.000210122
2.49583e-06
0.000207605
2.51678e-06
0.000205068
2.53722e-06
0.000202511
2.55716e-06
0.000199934
2.5766e-06
0.000197339
2.59555e-06
0.000194725
2.61401e-06
0.000192093
2.632e-06
0.000189443
2.64951e-06
0.000186777
2.66655e-06
0.000184094
2.68313e-06
0.000181394
2.69926e-06
0.000178679
2.71495e-06
0.000175949
2.73019e-06
0.000173204
2.745e-06
0.000170445
2.75938e-06
0.000167672
2.77335e-06
0.000164885
2.7869e-06
0.000162085
2.80004e-06
0.000159272
2.81279e-06
0.000156447
2.82514e-06
0.00015361
2.83711e-06
0.000150761
2.8487e-06
0.000147901
2.85991e-06
0.00014503
2.87077e-06
0.000142149
2.88126e-06
0.000139258
2.89141e-06
0.000136356
2.90121e-06
0.000133446
2.91067e-06
0.000130526
2.91981e-06
0.000127597
2.92862e-06
0.00012466
2.93711e-06
0.000121715
2.9453e-06
0.000118762
2.95318e-06
0.000115801
2.96077e-06
0.000112833
2.96807e-06
0.000109858
2.97508e-06
0.000106876
2.98182e-06
0.000103888
2.98829e-06
0.000100893
2.9945e-06
9.78927e-05
3.00045e-06
9.48865e-05
3.00614e-06
9.18749e-05
3.0116e-06
8.88581e-05
3.01681e-06
8.58363e-05
3.02179e-06
8.28098e-05
3.02654e-06
7.97787e-05
3.03107e-06
7.67433e-05
3.03538e-06
7.37039e-05
3.03948e-06
7.06605e-05
3.04338e-06
6.76134e-05
3.04707e-06
6.45628e-05
3.05057e-06
6.1509e-05
3.05388e-06
5.8452e-05
3.05699e-06
5.5392e-05
3.05993e-06
5.23294e-05
3.06268e-06
4.92641e-05
3.06526e-06
4.61964e-05
3.06767e-06
4.31265e-05
3.06991e-06
4.00545e-05
3.07199e-06
3.69806e-05
3.0739e-06
3.3905e-05
3.07566e-06
3.08277e-05
3.07725e-06
2.7749e-05
3.0787e-06
2.4669e-05
3.08e-06
2.15879e-05
3.08114e-06
1.85057e-05
3.08214e-06
1.54227e-05
3.08299e-06
1.2339e-05
3.0837e-06
9.25477e-06
3.08427e-06
6.17008e-06
3.08469e-06
3.08511e-06
3.08497e-06
3.08511e-06
3.57395e-06
-7.1477e-06
7.1477e-06
-7.14731e-06
1.07211e-05
-7.14654e-06
1.42939e-05
-7.14537e-06
1.78659e-05
-7.14381e-06
2.14369e-05
-7.14185e-06
2.50067e-05
-7.13948e-06
2.85752e-05
-7.1367e-06
3.2142e-05
-7.13349e-06
3.57071e-05
-7.12986e-06
3.92701e-05
-7.12579e-06
4.28308e-05
-7.12126e-06
4.63891e-05
-7.11626e-06
4.99446e-05
-7.11079e-06
5.34971e-05
-7.10482e-06
5.70464e-05
-7.09833e-06
6.05922e-05
-7.09132e-06
6.41342e-05
-7.08376e-06
6.76722e-05
-7.07563e-06
7.12058e-05
-7.06692e-06
7.47348e-05
-7.05759e-06
7.82587e-05
-7.04764e-06
8.17774e-05
-7.03703e-06
8.52905e-05
-7.02574e-06
8.87975e-05
-7.01375e-06
9.22982e-05
-7.00102e-06
9.57922e-05
-6.98755e-06
9.9279e-05
-6.97329e-06
0.000102758
-6.95821e-06
0.00010623
-6.9423e-06
0.000109693
-6.92553e-06
0.000113147
-6.90785e-06
0.000116592
-6.88924e-06
0.000120027
-6.86968e-06
0.000123452
-6.84913e-06
0.000126866
-6.82755e-06
0.000130268
-6.80493e-06
0.000133659
-6.78122e-06
0.000137038
-6.7564e-06
0.000140403
-6.73043e-06
0.000143755
-6.70328e-06
0.000147093
-6.67491e-06
0.000150416
-6.64531e-06
0.000153724
-6.61444e-06
0.000157015
-6.58225e-06
0.00016029
-6.54874e-06
0.000163547
-6.51386e-06
0.000166786
-6.47758e-06
0.000170006
-6.43989e-06
0.000173207
-6.40074e-06
0.000176388
-6.36011e-06
0.000179547
-6.31797e-06
0.000182684
-6.27431e-06
0.000185799
-6.22909e-06
0.000188891
-6.18229e-06
0.000191958
-6.13389e-06
0.000195001
-6.08387e-06
0.000198017
-6.03221e-06
0.000201007
-5.97888e-06
0.000203969
-5.92389e-06
0.000206903
-5.8672e-06
0.000209808
-5.80881e-06
0.000212683
-5.7487e-06
0.000215527
-5.68687e-06
0.000218339
-5.62331e-06
0.000221118
-5.55801e-06
0.000223864
-5.49096e-06
0.000226576
-5.42218e-06
0.000229252
-5.35165e-06
0.000231892
-5.27938e-06
0.000234495
-5.20538e-06
0.000237061
-5.12965e-06
0.000239587
-5.05219e-06
0.000242074
-4.97304e-06
0.000244521
-4.89219e-06
0.000246926
-4.80966e-06
0.000249289
-4.72547e-06
0.000251609
-4.63964e-06
0.000253886
-4.5522e-06
0.000256118
-4.46318e-06
0.000258304
-4.37258e-06
0.000260445
-4.28046e-06
0.000262539
-4.18684e-06
0.000264585
-4.09175e-06
0.000266583
-3.99524e-06
0.000268532
-3.89733e-06
0.000270431
-3.79808e-06
0.00027228
-3.69751e-06
0.000274079
-3.59569e-06
0.000275825
-3.49265e-06
0.00027752
-3.38843e-06
0.000279161
-3.2831e-06
0.00028075
-3.1767e-06
0.000282285
-3.06929e-06
0.000283766
-2.96091e-06
0.000285192
-2.85162e-06
0.000286563
-2.74148e-06
0.000287878
-2.63055e-06
0.000289138
-2.51888e-06
0.000290341
-2.40653e-06
0.000291488
-2.29356e-06
0.000292578
-2.18004e-06
0.000293611
-2.06601e-06
0.000294587
-1.95155e-06
0.000295506
-1.83671e-06
0.000296366
-1.72155e-06
0.00029717
-1.60614e-06
0.000297915
-1.49053e-06
0.000298602
-1.37478e-06
0.000299232
-1.25896e-06
0.000299803
-1.14312e-06
0.000300317
-1.02733e-06
0.000300773
-9.11632e-07
0.000301171
-7.96094e-07
0.000301511
-6.80769e-07
0.000301794
-5.65713e-07
0.000302019
-4.5098e-07
0.000302187
-3.36622e-07
0.000302299
-2.22691e-07
0.000302353
-1.09237e-07
0.000302351
3.68974e-09
0.000302293
1.16043e-07
0.000302179
2.27776e-07
0.000302009
3.38844e-07
0.000301785
4.49205e-07
0.000301505
5.58816e-07
0.000301171
6.67639e-07
0.000300783
7.75636e-07
0.000300341
8.82769e-07
0.000299847
9.89004e-07
0.000299299
1.09431e-06
0.0002987
1.19865e-06
0.000298048
1.302e-06
0.000297346
1.40433e-06
0.000296593
1.50562e-06
0.00029579
1.60583e-06
0.000294937
1.70495e-06
0.000294035
1.80295e-06
0.000293085
1.89982e-06
0.000292087
1.99554e-06
0.000291041
2.09009e-06
0.000289949
2.18345e-06
0.000288811
2.27561e-06
0.000287628
2.36656e-06
0.000286399
2.45628e-06
0.000285127
2.54478e-06
0.00028381
2.63203e-06
0.000282451
2.71804e-06
0.000281049
2.80279e-06
0.000279606
2.88628e-06
0.000278121
2.9685e-06
0.000276596
3.04946e-06
0.000275031
3.12915e-06
0.000273427
3.20758e-06
0.000271785
3.28473e-06
0.000270104
3.36061e-06
0.000268386
3.43523e-06
0.000266631
3.50858e-06
0.000264841
3.58067e-06
0.000263015
3.6515e-06
0.000261154
3.72108e-06
0.000259259
3.78941e-06
0.00025733
3.8565e-06
0.000255369
3.92234e-06
0.000253375
3.98696e-06
0.000251349
4.05035e-06
0.000249293
4.11253e-06
0.000247206
4.1735e-06
0.000245089
4.23326e-06
0.000242943
4.29184e-06
0.000240768
4.34923e-06
0.000238565
4.40545e-06
0.000236334
4.4605e-06
0.000234077
4.5144e-06
0.000231793
4.56715e-06
0.000229483
4.61877e-06
0.000227148
4.66926e-06
0.000224789
4.71864e-06
0.000222405
4.76692e-06
0.000219998
4.81411e-06
0.000217567
4.86021e-06
0.000215114
4.90525e-06
0.00021264
4.94923e-06
0.000210143
4.99217e-06
0.000207626
5.03407e-06
0.000205088
5.07495e-06
0.000202531
5.11482e-06
0.000199953
5.1537e-06
0.000197357
5.19159e-06
0.000194743
5.22851e-06
0.00019211
5.26446e-06
0.00018946
5.29948e-06
0.000186793
5.33356e-06
0.00018411
5.36672e-06
0.00018141
5.39897e-06
0.000178695
5.43033e-06
0.000175964
5.46081e-06
0.000173219
5.49043e-06
0.000170459
5.51919e-06
0.000167685
5.54711e-06
0.000164898
5.5742e-06
0.000162097
5.60048e-06
0.000159284
5.62597e-06
0.000156459
5.65066e-06
0.000153621
5.67459e-06
0.000150772
5.69776e-06
0.000147912
5.72019e-06
0.000145041
5.74189e-06
0.000142159
5.76288e-06
0.000139267
5.78316e-06
0.000136366
5.80275e-06
0.000133455
5.82168e-06
0.000130535
5.83994e-06
0.000127606
5.85755e-06
0.000124668
5.87454e-06
0.000121723
5.8909e-06
0.000118769
5.90666e-06
0.000115808
5.92183e-06
0.00011284
5.93642e-06
0.000109864
5.95044e-06
0.000106882
5.96392e-06
0.000103894
5.97685e-06
0.000100899
5.98925e-06
9.78984e-05
6.00114e-06
9.4892e-05
6.01253e-06
9.18802e-05
6.02343e-06
8.88631e-05
6.03385e-06
8.58411e-05
6.04381e-06
8.28143e-05
6.0533e-06
7.97831e-05
6.06236e-06
7.67475e-05
6.07098e-06
7.37078e-05
6.07918e-06
7.06642e-05
6.08696e-06
6.76169e-05
6.09434e-06
6.45662e-05
6.10133e-06
6.15121e-05
6.10794e-06
5.84549e-05
6.11417e-06
5.53948e-05
6.12003e-06
5.23319e-05
6.12554e-06
4.92665e-05
6.1307e-06
4.61987e-05
6.13551e-06
4.31286e-05
6.13999e-06
4.00564e-05
6.14413e-06
3.69824e-05
6.14796e-06
3.39066e-05
6.15147e-06
3.08292e-05
6.15466e-06
2.77503e-05
6.15755e-06
2.46702e-05
6.16014e-06
2.15889e-05
6.16243e-06
1.85066e-05
6.16443e-06
1.54235e-05
6.16613e-06
1.23396e-05
6.16755e-06
9.2552e-06
6.16868e-06
6.17037e-06
6.16952e-06
3.08525e-06
6.17008e-06
6.17036e-06
3.57434e-06
-1.0722e-05
7.14848e-06
-1.07215e-05
1.07222e-05
-1.07203e-05
1.42954e-05
-1.07185e-05
1.78678e-05
-1.07162e-05
2.14392e-05
-1.07133e-05
2.50095e-05
-1.07097e-05
2.85784e-05
-1.07056e-05
3.21457e-05
-1.07008e-05
3.57111e-05
-1.06953e-05
3.92746e-05
-1.06892e-05
4.28358e-05
-1.06825e-05
4.63946e-05
-1.0675e-05
4.99506e-05
-1.06668e-05
5.35036e-05
-1.06579e-05
5.70534e-05
-1.06482e-05
6.05998e-05
-1.06377e-05
6.41424e-05
-1.06263e-05
6.76809e-05
-1.06142e-05
7.12152e-05
-1.06011e-05
7.47447e-05
-1.05872e-05
7.82694e-05
-1.05723e-05
8.17887e-05
-1.05564e-05
8.53025e-05
-1.05395e-05
8.88103e-05
-1.05215e-05
9.23117e-05
-1.05025e-05
9.58065e-05
-1.04823e-05
9.92941e-05
-1.04609e-05
0.000102774
-1.04384e-05
0.000106247
-1.04145e-05
0.00010971
-1.03894e-05
0.000113165
-1.03629e-05
0.000116611
-1.03351e-05
0.000120047
-1.03058e-05
0.000123473
-1.0275e-05
0.000126888
-1.02426e-05
0.000130292
-1.02087e-05
0.000133684
-1.01732e-05
0.000137064
-1.0136e-05
0.00014043
-1.00971e-05
0.000143784
-1.00564e-05
0.000147123
-1.00139e-05
0.000150447
-9.96956e-06
0.000153756
-9.92328e-06
0.000157049
-9.87505e-06
0.000160325
-9.82482e-06
0.000163583
-9.77253e-06
0.000166824
-9.71816e-06
0.000170046
-9.66164e-06
0.000173248
-9.60295e-06
0.00017643
-9.54204e-06
0.000179591
-9.47887e-06
0.00018273
-9.41341e-06
0.000185846
-9.34561e-06
0.000188939
-9.27544e-06
0.000192008
-9.20286e-06
0.000195052
-9.12785e-06
0.000198071
-9.05038e-06
0.000201062
-8.97042e-06
0.000204026
-8.88794e-06
0.000206962
-8.80293e-06
0.000209868
-8.71535e-06
0.000212745
-8.62521e-06
0.000215591
-8.53247e-06
0.000218404
-8.43713e-06
0.000221186
-8.33919e-06
0.000223933
-8.23862e-06
0.000226646
-8.13544e-06
0.000229324
-8.02965e-06
0.000231966
-7.92124e-06
0.000234571
-7.81023e-06
0.000237138
-7.69662e-06
0.000239666
-7.58043e-06
0.000242155
-7.46167e-06
0.000244603
-7.34037e-06
0.00024701
-7.21656e-06
0.000249375
-7.09025e-06
0.000251697
-6.96148e-06
0.000253975
-6.83029e-06
0.000256208
-6.69671e-06
0.000258397
-6.56079e-06
0.000260539
-6.42257e-06
0.000262634
-6.28209e-06
0.000264682
-6.13942e-06
0.000266681
-5.9946e-06
0.000268631
-5.84769e-06
0.000270532
-5.69875e-06
0.000272382
-5.54785e-06
0.000274182
-5.39505e-06
0.000275929
-5.24043e-06
0.000277625
-5.08405e-06
0.000279268
-4.92599e-06
0.000280858
-4.76632e-06
0.000282393
-4.60513e-06
0.000283875
-4.4425e-06
0.000285302
-4.2785e-06
0.000286674
-4.11322e-06
0.00028799
-3.94674e-06
0.00028925
-3.77917e-06
0.000290454
-3.61057e-06
0.000291602
-3.44104e-06
0.000292692
-3.27068e-06
0.000293726
-3.09957e-06
0.000294702
-2.9278e-06
0.000295621
-2.75546e-06
0.000296482
-2.58265e-06
0.000297285
-2.40945e-06
0.000298031
-2.23596e-06
0.000298718
-2.06227e-06
0.000299348
-1.88846e-06
0.000299919
-1.71463e-06
0.000300433
-1.54087e-06
0.000300888
-1.36725e-06
0.000301286
-1.19387e-06
0.000301626
-1.02082e-06
0.000301909
-8.48167e-07
0.000302134
-6.76001e-07
0.000302301
-5.04399e-07
0.000302412
-3.3344e-07
0.000302466
-1.63198e-07
0.000302464
6.25169e-09
0.000302405
1.74839e-07
0.00030229
3.42494e-07
0.00030212
5.0915e-07
0.000301894
6.74743e-07
0.000301614
8.3921e-07
0.000301279
1.00249e-06
0.00030089
1.16453e-06
0.000300448
1.32528e-06
0.000299952
1.48467e-06
0.000299403
1.64267e-06
0.000298803
1.79922e-06
0.000298151
1.95428e-06
0.000297447
2.10781e-06
0.000296693
2.25976e-06
0.000295889
2.41011e-06
0.000295035
2.55882e-06
0.000294132
2.70585e-06
0.000293181
2.85118e-06
0.000292181
2.99477e-06
0.000291135
3.13661e-06
0.000290042
3.27667e-06
0.000288902
3.41493e-06
0.000287718
3.55137e-06
0.000286488
3.68597e-06
0.000285214
3.81872e-06
0.000283896
3.94961e-06
0.000282536
4.07862e-06
0.000281133
4.20575e-06
0.000279688
4.33099e-06
0.000278202
4.45434e-06
0.000276676
4.57578e-06
0.00027511
4.69532e-06
0.000273504
4.81295e-06
0.00027186
4.92868e-06
0.000270179
5.0425e-06
0.000268459
5.15443e-06
0.000266703
5.26445e-06
0.000264912
5.37258e-06
0.000263084
5.47882e-06
0.000261222
5.58318e-06
0.000259326
5.68567e-06
0.000257396
5.78629e-06
0.000255433
5.88505e-06
0.000253438
5.98197e-06
0.000251412
6.07705e-06
0.000249354
6.17031e-06
0.000247266
6.26175e-06
0.000245148
6.35139e-06
0.000243
6.43924e-06
0.000240824
6.52531e-06
0.00023862
6.60963e-06
0.000236388
6.69219e-06
0.00023413
6.77303e-06
0.000231845
6.85214e-06
0.000229534
6.92956e-06
0.000227198
7.00528e-06
0.000224837
7.07934e-06
0.000222452
7.15175e-06
0.000220044
7.22251e-06
0.000217612
7.29166e-06
0.000215158
7.3592e-06
0.000212682
7.42516e-06
0.000210185
7.48954e-06
0.000207667
7.55238e-06
0.000205128
7.61369e-06
0.000202569
7.67348e-06
0.000199991
7.73177e-06
0.000197394
7.78859e-06
0.000194779
7.84396e-06
0.000192145
7.89788e-06
0.000189495
7.95038e-06
0.000186827
8.00149e-06
0.000184142
8.05121e-06
0.000181442
8.09958e-06
0.000178725
8.1466e-06
0.000175994
8.1923e-06
0.000173247
8.23671e-06
0.000170487
8.27983e-06
0.000167712
8.32169e-06
0.000164924
8.36232e-06
0.000162123
8.40172e-06
0.000159309
8.43993e-06
0.000156483
8.47696e-06
0.000153644
8.51284e-06
0.000150795
8.54758e-06
0.000147934
8.5812e-06
0.000145062
8.61373e-06
0.000142179
8.64519e-06
0.000139287
8.6756e-06
0.000136385
8.70497e-06
0.000133473
8.73334e-06
0.000130552
8.76071e-06
0.000127623
8.78712e-06
0.000124685
8.81258e-06
0.000121739
8.83711e-06
0.000118784
8.86073e-06
0.000115823
8.88347e-06
0.000112854
8.90534e-06
0.000109878
8.92636e-06
0.000106895
8.94655e-06
0.000103906
8.96593e-06
0.000100911
8.98452e-06
9.79098e-05
9.00235e-06
9.49029e-05
9.01941e-06
9.18906e-05
9.03575e-06
8.88731e-05
9.05136e-06
8.58506e-05
9.06628e-06
8.28234e-05
9.08051e-06
7.97917e-05
9.09408e-06
7.67557e-05
9.107e-06
7.37155e-05
9.11928e-06
7.06716e-05
9.13095e-06
6.76239e-05
9.14201e-06
6.45728e-05
9.15248e-06
6.15183e-05
9.16238e-06
5.84608e-05
9.17171e-06
5.54003e-05
9.1805e-06
5.23371e-05
9.18875e-06
4.92713e-05
9.19647e-06
4.62031e-05
9.20368e-06
4.31327e-05
9.21039e-06
4.00603e-05
9.21661e-06
3.69859e-05
9.22234e-06
3.39098e-05
9.22759e-06
3.08321e-05
9.23238e-06
2.77529e-05
9.23671e-06
2.46725e-05
9.24059e-06
2.15909e-05
9.24402e-06
1.85083e-05
9.247e-06
1.54249e-05
9.24956e-06
1.23407e-05
9.25168e-06
9.25604e-06
9.25337e-06
6.17093e-06
9.25464e-06
3.08553e-06
9.25548e-06
9.2559e-06
3.57492e-06
-1.4297e-05
7.14964e-06
-1.42962e-05
1.0724e-05
-1.42946e-05
1.42978e-05
-1.42923e-05
1.78708e-05
-1.42892e-05
2.14428e-05
-1.42853e-05
2.50137e-05
-1.42806e-05
2.85832e-05
-1.42751e-05
3.21511e-05
-1.42687e-05
3.57173e-05
-1.42615e-05
3.92814e-05
-1.42534e-05
4.28433e-05
-1.42444e-05
4.64028e-05
-1.42344e-05
4.99595e-05
-1.42236e-05
5.35133e-05
-1.42117e-05
5.7064e-05
-1.41988e-05
6.06111e-05
-1.41848e-05
6.41546e-05
-1.41698e-05
6.7694e-05
-1.41536e-05
7.12291e-05
-1.41363e-05
7.47597e-05
-1.41177e-05
7.82853e-05
-1.40979e-05
8.18057e-05
-1.40768e-05
8.53205e-05
-1.40543e-05
8.88293e-05
-1.40304e-05
9.23319e-05
-1.40051e-05
9.58279e-05
-1.39782e-05
9.93167e-05
-1.39498e-05
0.000102798
-1.39198e-05
0.000106272
-1.38881e-05
0.000109737
-1.38546e-05
0.000113193
-1.38194e-05
0.000116641
-1.37823e-05
0.000120078
-1.37433e-05
0.000123506
-1.37023e-05
0.000126922
-1.36593e-05
0.000130328
-1.36142e-05
0.000133721
-1.35669e-05
0.000137103
-1.35174e-05
0.000140471
-1.34656e-05
0.000143826
-1.34114e-05
0.000147167
-1.33548e-05
0.000150493
-1.32957e-05
0.000153804
-1.32341e-05
0.000157099
-1.31698e-05
0.000160377
-1.31029e-05
0.000163638
-1.30333e-05
0.00016688
-1.29609e-05
0.000170104
-1.28856e-05
0.000173309
-1.28074e-05
0.000176493
-1.27262e-05
0.000179656
-1.26421e-05
0.000182798
-1.25548e-05
0.000185916
-1.24645e-05
0.000189012
-1.2371e-05
0.000192083
-1.22743e-05
0.00019513
-1.21743e-05
0.000198151
-1.2071e-05
0.000201145
-1.19645e-05
0.000204111
-1.18545e-05
0.000207049
-1.17412e-05
0.000209959
-1.16245e-05
0.000212838
-1.15043e-05
0.000215686
-1.13807e-05
0.000218502
-1.12536e-05
0.000221286
-1.1123e-05
0.000224036
-1.09889e-05
0.000226752
-1.08513e-05
0.000229433
-1.07103e-05
0.000232077
-1.05657e-05
0.000234685
-1.04177e-05
0.000237254
-1.02662e-05
0.000239785
-1.01112e-05
0.000242276
-9.95285e-06
0.000244727
-9.79108e-06
0.000247136
-9.62595e-06
0.000249504
-9.45749e-06
0.000251828
-9.28575e-06
0.000254108
-9.11077e-06
0.000256344
-8.9326e-06
0.000258535
-8.7513e-06
0.000260679
-8.56693e-06
0.000262777
-8.37954e-06
0.000264826
-8.18922e-06
0.000266828
-7.99604e-06
0.00026878
-7.80007e-06
0.000270683
-7.60139e-06
0.000272535
-7.40008e-06
0.000274336
-7.19625e-06
0.000276086
-6.98997e-06
0.000277783
-6.78135e-06
0.000279428
-6.57048e-06
0.000281019
-6.35747e-06
0.000282556
-6.14243e-06
0.000284039
-5.92545e-06
0.000285467
-5.70665e-06
0.00028684
-5.48614e-06
0.000288157
-5.26405e-06
0.000289419
-5.04047e-06
0.000290624
-4.81554e-06
0.000291772
-4.58936e-06
0.000292863
-4.36207e-06
0.000293898
-4.13378e-06
0.000294874
-3.90461e-06
0.000295794
-3.67468e-06
0.000296655
-3.44412e-06
0.000297459
-3.21305e-06
0.000298204
-2.98159e-06
0.000298892
-2.74986e-06
0.000299521
-2.51798e-06
0.000300093
-2.28608e-06
0.000300606
-2.05425e-06
0.000301062
-1.82263e-06
0.000301459
-1.59133e-06
0.000301799
-1.36046e-06
0.000302081
-1.13013e-06
0.000302305
-9.00456e-07
0.000302472
-6.71533e-07
0.000302582
-4.4347e-07
0.000302636
-2.16367e-07
0.000302632
9.67726e-09
0.000302572
2.34567e-07
0.000302457
4.58211e-07
0.000302285
6.8052e-07
0.000302059
9.01407e-07
0.000301777
1.12079e-06
0.000301441
1.33859e-06
0.000301051
1.55473e-06
0.000300607
1.76913e-06
0.00030011
1.98173e-06
0.00029956
2.19247e-06
0.000298958
2.40127e-06
0.000298304
2.60808e-06
0.000297599
2.81285e-06
0.000296843
3.01552e-06
0.000296037
3.21604e-06
0.000295182
3.41436e-06
0.000294277
3.61045e-06
0.000293324
3.80426e-06
0.000292323
3.99576e-06
0.000291275
4.18492e-06
0.00029018
4.37169e-06
0.000289039
4.55607e-06
0.000287852
4.73801e-06
0.000286621
4.9175e-06
0.000285345
5.09452e-06
0.000284025
5.26906e-06
0.000282663
5.44109e-06
0.000281258
5.61061e-06
0.000279811
5.77761e-06
0.000278324
5.94207e-06
0.000276795
6.104e-06
0.000275227
6.26339e-06
0.00027362
6.42023e-06
0.000271974
6.57454e-06
0.00027029
6.7263e-06
0.000268569
6.87552e-06
0.000266812
7.02221e-06
0.000265018
7.16638e-06
0.000263189
7.30803e-06
0.000261325
7.44716e-06
0.000259426
7.5838e-06
0.000257495
7.71794e-06
0.00025553
7.84961e-06
0.000253533
7.97882e-06
0.000251505
8.10557e-06
0.000249445
8.2299e-06
0.000247355
8.3518e-06
0.000245235
8.4713e-06
0.000243086
8.58841e-06
0.000240908
8.70316e-06
0.000238702
8.81555e-06
0.000236469
8.92562e-06
0.000234209
9.03337e-06
0.000231922
9.13884e-06
0.000229609
9.24203e-06
0.000227272
9.34298e-06
0.000224909
9.4417e-06
0.000222523
9.53821e-06
0.000220113
9.63254e-06
0.00021768
9.7247e-06
0.000215224
9.81473e-06
0.000212747
9.90265e-06
0.000210248
9.98847e-06
0.000207728
1.00722e-05
0.000205188
1.01539e-05
0.000202628
1.02336e-05
0.000200048
1.03113e-05
0.00019745
1.03871e-05
0.000194833
1.04608e-05
0.000192198
1.05327e-05
0.000189546
1.06027e-05
0.000186876
1.06708e-05
0.00018419
1.07371e-05
0.000181489
1.08015e-05
0.000178771
1.08642e-05
0.000176038
1.09251e-05
0.000173291
1.09843e-05
0.000170529
1.10417e-05
0.000167753
1.10975e-05
0.000164964
1.11517e-05
0.000162161
1.12042e-05
0.000159346
1.12551e-05
0.000156518
1.13044e-05
0.000153679
1.13522e-05
0.000150828
1.13985e-05
0.000147966
1.14433e-05
0.000145093
1.14866e-05
0.00014221
1.15286e-05
0.000139316
1.15691e-05
0.000136413
1.16082e-05
0.0001335
1.1646e-05
0.000130579
1.16825e-05
0.000127648
1.17176e-05
0.000124709
1.17516e-05
0.000121762
1.17842e-05
0.000118807
1.18157e-05
0.000115845
1.1846e-05
0.000112875
1.18751e-05
0.000109898
1.19031e-05
0.000106915
1.193e-05
0.000103925
1.19558e-05
0.000100929
1.19806e-05
9.79268e-05
1.20043e-05
9.49192e-05
1.2027e-05
9.19062e-05
1.20488e-05
8.8888e-05
1.20696e-05
8.58648e-05
1.20894e-05
8.2837e-05
1.21084e-05
7.98046e-05
1.21264e-05
7.67679e-05
1.21436e-05
7.37272e-05
1.216e-05
7.06826e-05
1.21755e-05
6.76344e-05
1.21903e-05
6.45826e-05
1.22042e-05
6.15276e-05
1.22174e-05
5.84696e-05
1.22298e-05
5.54086e-05
1.22415e-05
5.23448e-05
1.22525e-05
4.92785e-05
1.22628e-05
4.62099e-05
1.22724e-05
4.3139e-05
1.22813e-05
4.0066e-05
1.22896e-05
3.69911e-05
1.22972e-05
3.39146e-05
1.23042e-05
3.08364e-05
1.23106e-05
2.77568e-05
1.23163e-05
2.46759e-05
1.23215e-05
2.15939e-05
1.2326e-05
1.85108e-05
1.233e-05
1.5427e-05
1.23334e-05
1.23424e-05
1.23362e-05
9.25731e-06
1.23385e-05
6.17177e-06
1.23402e-05
3.08596e-06
1.23413e-05
1.23419e-05
3.57569e-06
-1.78726e-05
7.15119e-06
-1.78717e-05
1.07263e-05
-1.78698e-05
1.43009e-05
-1.78669e-05
1.78747e-05
-1.7863e-05
2.14475e-05
-1.78582e-05
2.50192e-05
-1.78523e-05
2.85896e-05
-1.78454e-05
3.21583e-05
-1.78375e-05
3.57254e-05
-1.78285e-05
3.92904e-05
-1.78184e-05
4.28533e-05
-1.78072e-05
4.64137e-05
-1.77949e-05
4.99714e-05
-1.77813e-05
5.35263e-05
-1.77665e-05
5.70779e-05
-1.77505e-05
6.06262e-05
-1.77331e-05
6.41708e-05
-1.77144e-05
6.77114e-05
-1.76942e-05
7.12477e-05
-1.76726e-05
7.47795e-05
-1.76495e-05
7.83064e-05
-1.76248e-05
8.18282e-05
-1.75985e-05
8.53444e-05
-1.75705e-05
8.88547e-05
-1.75407e-05
9.23588e-05
-1.75092e-05
9.58563e-05
-1.74757e-05
9.93468e-05
-1.74403e-05
0.00010283
-1.74029e-05
0.000106305
-1.73634e-05
0.000109772
-1.73217e-05
0.000113231
-1.72777e-05
0.00011668
-1.72315e-05
0.000120119
-1.71829e-05
0.000123549
-1.71318e-05
0.000126967
-1.70781e-05
0.000130375
-1.70218e-05
0.000133771
-1.69628e-05
0.000137155
-1.6901e-05
0.000140525
-1.68364e-05
0.000143883
-1.67688e-05
0.000147226
-1.66982e-05
0.000150555
-1.66244e-05
0.000153868
-1.65475e-05
0.000157166
-1.64673e-05
0.000160447
-1.63838e-05
0.00016371
-1.62969e-05
0.000166956
-1.62064e-05
0.000170183
-1.61124e-05
0.00017339
-1.60148e-05
0.000176577
-1.59135e-05
0.000179743
-1.58083e-05
0.000182888
-1.56994e-05
0.00018601
-1.55865e-05
0.000189109
-1.54697e-05
0.000192183
-1.53489e-05
0.000195233
-1.5224e-05
0.000198257
-1.5095e-05
0.000201255
-1.49619e-05
0.000204225
-1.48245e-05
0.000207166
-1.46829e-05
0.000210079
-1.4537e-05
0.000212961
-1.43869e-05
0.000215813
-1.42323e-05
0.000218633
-1.40735e-05
0.00022142
-1.39103e-05
0.000224174
-1.37427e-05
0.000226893
-1.35707e-05
0.000229578
-1.33944e-05
0.000232225
-1.32137e-05
0.000234836
-1.30286e-05
0.000237409
-1.28392e-05
0.000239944
-1.26454e-05
0.000242438
-1.24474e-05
0.000244892
-1.22452e-05
0.000247305
-1.20387e-05
0.000249675
-1.1828e-05
0.000252003
-1.16133e-05
0.000254287
-1.13944e-05
0.000256526
-1.11716e-05
0.000258719
-1.09449e-05
0.000260867
-1.07143e-05
0.000262967
-1.04799e-05
0.00026502
-1.02419e-05
0.000267024
-1.00003e-05
0.000268979
-9.75515e-06
0.000270884
-9.50664e-06
0.000272739
-9.25485e-06
0.000274543
-8.99988e-06
0.000276295
-8.74185e-06
0.000277994
-8.48089e-06
0.000279641
-8.21712e-06
0.000281234
-7.95066e-06
0.000282773
-7.68165e-06
0.000284258
-7.41022e-06
0.000285688
-7.13651e-06
0.000287062
-6.86066e-06
0.000288381
-6.58282e-06
0.000289644
-6.30313e-06
0.00029085
-6.02174e-06
0.000291999
-5.7388e-06
0.000293092
-5.45446e-06
0.000294127
-5.16887e-06
0.000295104
-4.88218e-06
0.000296024
-4.59454e-06
0.000296886
-4.30611e-06
0.00029769
-4.01705e-06
0.000298436
-3.7275e-06
0.000299124
-3.43761e-06
0.000299753
-3.14754e-06
0.000300325
-2.85743e-06
0.000300838
-2.56744e-06
0.000301293
-2.2777e-06
0.00030169
-1.98836e-06
0.000302029
-1.69957e-06
0.000302311
-1.41145e-06
0.000302534
-1.12415e-06
0.0003027
-8.37807e-07
0.00030281
-5.52539e-07
0.000302862
-2.68476e-07
0.000302857
1.42576e-08
0.000302796
2.95543e-07
0.000302679
5.75265e-07
0.000302506
8.53312e-07
0.000302278
1.12958e-06
0.000301995
1.40395e-06
0.000301657
1.67634e-06
0.000301265
1.94665e-06
0.00030082
2.21479e-06
0.000300321
2.48067e-06
0.000299769
2.7442e-06
0.000299165
3.00532e-06
0.000298509
3.26394e-06
0.000297802
3.52e-06
0.000297044
3.77342e-06
0.000296236
4.02416e-06
0.000295378
4.27214e-06
0.000294471
4.51733e-06
0.000293516
4.75966e-06
0.000292512
4.9991e-06
0.000291462
5.2356e-06
0.000290364
5.46912e-06
0.000289221
5.69963e-06
0.000288032
5.9271e-06
0.000286798
6.15151e-06
0.000285519
6.37282e-06
0.000284197
6.59101e-06
0.000282832
6.80608e-06
0.000281425
7.018e-06
0.000279976
7.22676e-06
0.000278486
7.43235e-06
0.000276955
7.63476e-06
0.000275384
7.834e-06
0.000273774
8.03006e-06
0.000272126
8.22293e-06
0.00027044
8.41263e-06
0.000268716
8.59915e-06
0.000266956
8.7825e-06
0.000265159
8.9627e-06
0.000263328
9.13974e-06
0.000261461
9.31364e-06
0.000259561
9.48441e-06
0.000257627
9.65207e-06
0.00025566
9.81664e-06
0.00025366
9.97812e-06
0.000251629
1.01365e-05
0.000249567
1.02919e-05
0.000247475
1.04443e-05
0.000245352
1.05936e-05
0.000243201
1.074e-05
0.000241021
1.08834e-05
0.000238812
1.10238e-05
0.000236577
1.11614e-05
0.000234314
1.1296e-05
0.000232025
1.14278e-05
0.00022971
1.15568e-05