/*--------------------------------*- C++ -*----------------------------------*\
| =========                 |                                                 |
| \\      /  F ield         | OpenFOAM: The Open Source CFD Toolbox           |
|  \\    /   O peration     | Version:  v2012                                 |
|   \\  /    A nd           | Website:  www.openfoam.com                      |
|    \\/     M anipulation  |                                                 |
\*---------------------------------------------------------------------------*/
FoamFile
{
    version     2.0;
    format      ascii;
    class       volVectorField;
    location    "3.75";
    object      U;
}
// * * * * * * * * * * * * * * * * * * * * * * * * * * * * * * * * * * * * * //

dimensions      [0 1 -1 0 0 0 0];


internalField   nonuniform List<vector> 
65536
(
(0.00072805 -0.00072803 0)
(0.00218411 -0.00072799 0)
(0.00364005 -0.000727911 0)
(0.00509579 -0.000727792 0)
(0.00655125 -0.000727632 0)
(0.00800636 -0.000727432 0)
(0.00946102 -0.00072719 0)
(0.0109152 -0.000726906 0)
(0.0123687 -0.000726579 0)
(0.0138215 -0.000726208 0)
(0.0152736 -0.000725792 0)
(0.0167247 -0.00072533 0)
(0.0181749 -0.00072482 0)
(0.0196241 -0.000724261 0)
(0.021072 -0.000723652 0)
(0.0225187 -0.00072299 0)
(0.023964 -0.000722275 0)
(0.0254079 -0.000721503 0)
(0.0268501 -0.000720674 0)
(0.0282906 -0.000719784 0)
(0.0297293 -0.000718833 0)
(0.031166 -0.000717817 0)
(0.0326006 -0.000716734 0)
(0.034033 -0.000715582 0)
(0.035463 -0.000714359 0)
(0.0368905 -0.000713061 0)
(0.0383154 -0.000711686 0)
(0.0397374 -0.000710232 0)
(0.0411564 -0.000708694 0)
(0.0425722 -0.000707071 0)
(0.0439847 -0.00070536 0)
(0.0453938 -0.000703557 0)
(0.0467991 -0.00070166 0)
(0.0482005 -0.000699665 0)
(0.0495978 -0.000697569 0)
(0.0509909 -0.000695369 0)
(0.0523794 -0.000693062 0)
(0.0537632 -0.000690645 0)
(0.0551421 -0.000688114 0)
(0.0565158 -0.000685466 0)
(0.0578841 -0.000682698 0)
(0.0592467 -0.000679807 0)
(0.0606034 -0.000676789 0)
(0.061954 -0.000673642 0)
(0.0632981 -0.000670361 0)
(0.0646356 -0.000666945 0)
(0.065966 -0.00066339 0)
(0.0672893 -0.000659693 0)
(0.068605 -0.000655851 0)
(0.0699128 -0.000651861 0)
(0.0712126 -0.000647721 0)
(0.0725039 -0.000643427 0)
(0.0737864 -0.000638978 0)
(0.0750599 -0.00063437 0)
(0.0763241 -0.000629601 0)
(0.0775785 -0.000624669 0)
(0.0788229 -0.000619573 0)
(0.080057 -0.000614309 0)
(0.0812803 -0.000608876 0)
(0.0824926 -0.000603273 0)
(0.0836936 -0.000597498 0)
(0.0848828 -0.00059155 0)
(0.0860599 -0.000585426 0)
(0.0872247 -0.000579128 0)
(0.0883766 -0.000572653 0)
(0.0895155 -0.000566001 0)
(0.0906408 -0.000559172 0)
(0.0917523 -0.000552166 0)
(0.0928496 -0.000544982 0)
(0.0939324 -0.000537621 0)
(0.0950003 -0.000530084 0)
(0.0960529 -0.00052237 0)
(0.09709 -0.000514482 0)
(0.098111 -0.00050642 0)
(0.0991158 -0.000498186 0)
(0.100104 -0.000489781 0)
(0.101075 -0.000481207 0)
(0.102029 -0.000472467 0)
(0.102965 -0.000463563 0)
(0.103883 -0.000454496 0)
(0.104783 -0.000445271 0)
(0.105665 -0.00043589 0)
(0.106527 -0.000426356 0)
(0.10737 -0.000416674 0)
(0.108194 -0.000406846 0)
(0.108998 -0.000396876 0)
(0.109781 -0.000386769 0)
(0.110545 -0.000376529 0)
(0.111288 -0.000366161 0)
(0.11201 -0.000355669 0)
(0.112711 -0.000345058 0)
(0.11339 -0.000334332 0)
(0.114048 -0.000323499 0)
(0.114684 -0.000312561 0)
(0.115298 -0.000301526 0)
(0.11589 -0.000290399 0)
(0.11646 -0.000279184 0)
(0.117007 -0.000267889 0)
(0.117532 -0.000256519 0)
(0.118033 -0.00024508 0)
(0.118512 -0.000233578 0)
(0.118968 -0.000222018 0)
(0.1194 -0.000210409 0)
(0.119809 -0.000198754 0)
(0.120195 -0.000187061 0)
(0.120558 -0.000175336 0)
(0.120897 -0.000163584 0)
(0.121212 -0.000151813 0)
(0.121504 -0.000140028 0)
(0.121772 -0.000128235 0)
(0.122017 -0.00011644 0)
(0.122238 -0.00010465 0)
(0.122435 -9.28697e-05 0)
(0.122609 -8.11053e-05 0)
(0.12276 -6.93627e-05 0)
(0.122887 -5.76473e-05 0)
(0.12299 -4.59646e-05 0)
(0.123071 -3.43201e-05 0)
(0.123128 -2.27191e-05 0)
(0.123161 -1.11665e-05 0)
(0.123172 3.32502e-07 0)
(0.12316 1.17732e-05 0)
(0.123125 2.31508e-05 0)
(0.123067 3.44608e-05 0)
(0.122987 4.56989e-05 0)
(0.122884 5.68609e-05 0)
(0.12276 6.79426e-05 0)
(0.122613 7.89403e-05 0)
(0.122444 8.98501e-05 0)
(0.122253 0.000100669 0)
(0.122041 0.000111392 0)
(0.121807 0.000122018 0)
(0.121553 0.000132543 0)
(0.121277 0.000142965 0)
(0.120981 0.00015328 0)
(0.120664 0.000163486 0)
(0.120327 0.00017358 0)
(0.11997 0.000183561 0)
(0.119592 0.000193427 0)
(0.119196 0.000203175 0)
(0.11878 0.000212805 0)
(0.118344 0.000222313 0)
(0.11789 0.0002317 0)
(0.117417 0.000240963 0)
(0.116926 0.000250102 0)
(0.116417 0.000259115 0)
(0.11589 0.000268002 0)
(0.115345 0.000276762 0)
(0.114782 0.000285394 0)
(0.114203 0.000293898 0)
(0.113607 0.000302273 0)
(0.112994 0.000310519 0)
(0.112365 0.000318637 0)
(0.111719 0.000326625 0)
(0.111058 0.000334483 0)
(0.110381 0.000342213 0)
(0.109689 0.000349814 0)
(0.108982 0.000357285 0)
(0.10826 0.000364629 0)
(0.107523 0.000371844 0)
(0.106772 0.000378931 0)
(0.106007 0.000385892 0)
(0.105228 0.000392725 0)
(0.104436 0.000399433 0)
(0.103631 0.000406015 0)
(0.102812 0.000412473 0)
(0.101981 0.000418807 0)
(0.101137 0.000425018 0)
(0.10028 0.000431106 0)
(0.0994121 0.000437073 0)
(0.098532 0.00044292 0)
(0.0976403 0.000448647 0)
(0.0967373 0.000454255 0)
(0.0958232 0.000459746 0)
(0.0948982 0.00046512 0)
(0.0939626 0.000470378 0)
(0.0930166 0.000475522 0)
(0.0920604 0.000480553 0)
(0.0910943 0.000485472 0)
(0.0901184 0.000490279 0)
(0.089133 0.000494976 0)
(0.0881384 0.000499564 0)
(0.0871347 0.000504045 0)
(0.0861221 0.000508419 0)
(0.0851009 0.000512688 0)
(0.0840712 0.000516853 0)
(0.0830334 0.000520916 0)
(0.0819875 0.000524876 0)
(0.0809338 0.000528737 0)
(0.0798724 0.000532498 0)
(0.0788037 0.000536162 0)
(0.0777277 0.000539729 0)
(0.0766447 0.000543202 0)
(0.0755548 0.00054658 0)
(0.0744583 0.000549867 0)
(0.0733552 0.000553062 0)
(0.0722459 0.000556168 0)
(0.0711305 0.000559185 0)
(0.0700091 0.000562116 0)
(0.0688819 0.000564961 0)
(0.0677492 0.000567721 0)
(0.066611 0.0005704 0)
(0.0654675 0.000572996 0)
(0.0643189 0.000575513 0)
(0.0631654 0.000577951 0)
(0.062007 0.000580313 0)
(0.060844 0.000582598 0)
(0.0596765 0.00058481 0)
(0.0585047 0.000586948 0)
(0.0573287 0.000589015 0)
(0.0561486 0.000591012 0)
(0.0549646 0.000592941 0)
(0.0537768 0.000594802 0)
(0.0525853 0.000596597 0)
(0.0513903 0.000598328 0)
(0.0501919 0.000599996 0)
(0.0489903 0.000601602 0)
(0.0477854 0.000603148 0)
(0.0465776 0.000604636 0)
(0.0453668 0.000606065 0)
(0.0441533 0.000607438 0)
(0.042937 0.000608756 0)
(0.0417182 0.000610021 0)
(0.0404969 0.000611233 0)
(0.0392732 0.000612394 0)
(0.0380473 0.000613505 0)
(0.0368192 0.000614567 0)
(0.035589 0.000615582 0)
(0.0343568 0.00061655 0)
(0.0331227 0.000617473 0)
(0.0318868 0.000618352 0)
(0.0306493 0.000619188 0)
(0.02941 0.000619982 0)
(0.0281693 0.000620734 0)
(0.0269271 0.000621447 0)
(0.0256835 0.000622121 0)
(0.0244385 0.000622756 0)
(0.0231924 0.000623354 0)
(0.0219451 0.000623915 0)
(0.0206967 0.000624441 0)
(0.0194473 0.000624932 0)
(0.0181969 0.000625388 0)
(0.0169457 0.000625811 0)
(0.0156937 0.000626201 0)
(0.0144409 0.000626559 0)
(0.0131874 0.000626885 0)
(0.0119333 0.00062718 0)
(0.0106786 0.000627444 0)
(0.00942349 0.000627677 0)
(0.0081679 0.000627881 0)
(0.00691193 0.000628055 0)
(0.00565565 0.000628199 0)
(0.00439911 0.000628314 0)
(0.00314236 0.0006284 0)
(0.00188547 0.000628458 0)
(0.000628501 0.000628487 0)
(0.000728088 -0.00218413 0)
(0.00218423 -0.00218401 0)
(0.00364025 -0.00218377 0)
(0.00509607 -0.00218341 0)
(0.00655161 -0.00218294 0)
(0.0080068 -0.00218234 0)
(0.00946154 -0.00218161 0)
(0.0109158 -0.00218076 0)
(0.0123694 -0.00217978 0)
(0.0138223 -0.00217867 0)
(0.0152744 -0.00217742 0)
(0.0167257 -0.00217604 0)
(0.018176 -0.00217451 0)
(0.0196252 -0.00217283 0)
(0.0210733 -0.00217101 0)
(0.0225201 -0.00216902 0)
(0.0239655 -0.00216688 0)
(0.0254095 -0.00216457 0)
(0.0268518 -0.00216208 0)
(0.0282925 -0.00215941 0)
(0.0297313 -0.00215656 0)
(0.0311681 -0.00215352 0)
(0.0326029 -0.00215027 0)
(0.0340354 -0.00214682 0)
(0.0354655 -0.00214315 0)
(0.0368932 -0.00213926 0)
(0.0383182 -0.00213514 0)
(0.0397403 -0.00213078 0)
(0.0411595 -0.00212617 0)
(0.0425755 -0.0021213 0)
(0.0439882 -0.00211617 0)
(0.0453974 -0.00211076 0)
(0.0468029 -0.00210508 0)
(0.0482046 -0.00209909 0)
(0.0496021 -0.00209281 0)
(0.0509953 -0.00208621 0)
(0.0523841 -0.0020793 0)
(0.0537681 -0.00207205 0)
(0.0551472 -0.00206446 0)
(0.0565212 -0.00205652 0)
(0.0578897 -0.00204822 0)
(0.0592526 -0.00203955 0)
(0.0606096 -0.0020305 0)
(0.0619604 -0.00202106 0)
(0.0633048 -0.00201122 0)
(0.0646425 -0.00200097 0)
(0.0659733 -0.00199031 0)
(0.0672968 -0.00197922 0)
(0.0686128 -0.0019677 0)
(0.0699209 -0.00195573 0)
(0.071221 -0.00194331 0)
(0.0725126 -0.00193044 0)
(0.0737954 -0.00191709 0)
(0.0750693 -0.00190327 0)
(0.0763337 -0.00188896 0)
(0.0775885 -0.00187417 0)
(0.0788332 -0.00185888 0)
(0.0800676 -0.0018431 0)
(0.0812913 -0.0018268 0)
(0.082504 -0.00180999 0)
(0.0837053 -0.00179267 0)
(0.0848948 -0.00177482 0)
(0.0860723 -0.00175645 0)
(0.0872374 -0.00173756 0)
(0.0883897 -0.00171813 0)
(0.0895289 -0.00169818 0)
(0.0906546 -0.00167769 0)
(0.0917665 -0.00165667 0)
(0.0928642 -0.00163512 0)
(0.0939473 -0.00161304 0)
(0.0950155 -0.00159043 0)
(0.0960685 -0.00156729 0)
(0.0971059 -0.00154362 0)
(0.0981273 -0.00151943 0)
(0.0991324 -0.00149473 0)
(0.100121 -0.00146951 0)
(0.101092 -0.00144379 0)
(0.102047 -0.00141757 0)
(0.102983 -0.00139085 0)
(0.103902 -0.00136365 0)
(0.104802 -0.00133597 0)
(0.105683 -0.00130782 0)
(0.106546 -0.00127922 0)
(0.10739 -0.00125017 0)
(0.108214 -0.00122068 0)
(0.109018 -0.00119077 0)
(0.109802 -0.00116044 0)
(0.110565 -0.00112972 0)
(0.111309 -0.00109861 0)
(0.112031 -0.00106713 0)
(0.112732 -0.00103529 0)
(0.113412 -0.00100311 0)
(0.11407 -0.0009706 0)
(0.114706 -0.000937782 0)
(0.11532 -0.000904671 0)
(0.115913 -0.000871283 0)
(0.116482 -0.000837634 0)
(0.11703 -0.000803743 0)
(0.117554 -0.000769626 0)
(0.118056 -0.000735303 0)
(0.118535 -0.00070079 0)
(0.118991 -0.000666107 0)
(0.119423 -0.000631271 0)
(0.119833 -0.000596301 0)
(0.120219 -0.000561216 0)
(0.120581 -0.000526034 0)
(0.12092 -0.000490774 0)
(0.121235 -0.000455454 0)
(0.121527 -0.000420092 0)
(0.121796 -0.000384708 0)
(0.12204 -0.000349318 0)
(0.122261 -0.000313941 0)
(0.122459 -0.000278594 0)
(0.122633 -0.000243295 0)
(0.122783 -0.000208062 0)
(0.12291 -0.00017291 0)
(0.123014 -0.000137857 0)
(0.123094 -0.000102918 0)
(0.123151 -6.81099e-05 0)
(0.123184 -3.34473e-05 0)
(0.123195 1.05463e-06 0)
(0.123183 3.53813e-05 0)
(0.123148 6.95187e-05 0)
(0.12309 0.000103453 0)
(0.123009 0.000137172 0)
(0.122907 0.000170662 0)
(0.122782 0.000203911 0)
(0.122634 0.000236907 0)
(0.122465 0.00026964 0)
(0.122275 0.000302099 0)
(0.122062 0.000334274 0)
(0.121829 0.000366155 0)
(0.121574 0.000397733 0)
(0.121298 0.000428999 0)
(0.121001 0.000459946 0)
(0.120684 0.000490567 0)
(0.120347 0.000520853 0)
(0.119989 0.000550798 0)
(0.119612 0.000580397 0)
(0.119215 0.000609643 0)
(0.118799 0.000638533 0)
(0.118363 0.00066706 0)
(0.117909 0.000695221 0)
(0.117436 0.000723011 0)
(0.116944 0.000750429 0)
(0.116435 0.000777469 0)
(0.115907 0.000804131 0)
(0.115362 0.000830411 0)
(0.1148 0.000856308 0)
(0.11422 0.00088182 0)
(0.113623 0.000906947 0)
(0.11301 0.000931686 0)
(0.112381 0.000956038 0)
(0.111735 0.000980002 0)
(0.111074 0.00100358 0)
(0.110396 0.00102677 0)
(0.109704 0.00104957 0)
(0.108997 0.00107198 0)
(0.108274 0.00109401 0)
(0.107537 0.00111566 0)
(0.106786 0.00113692 0)
(0.106021 0.0011578 0)
(0.105242 0.0011783 0)
(0.104449 0.00119842 0)
(0.103644 0.00121817 0)
(0.102825 0.00123754 0)
(0.101993 0.00125654 0)
(0.101149 0.00127517 0)
(0.100292 0.00129344 0)
(0.0994239 0.00131134 0)
(0.0985436 0.00132888 0)
(0.0976517 0.00134606 0)
(0.0967484 0.00136288 0)
(0.0958341 0.00137935 0)
(0.0949088 0.00139547 0)
(0.093973 0.00141125 0)
(0.0930268 0.00142668 0)
(0.0920704 0.00144177 0)
(0.091104 0.00145652 0)
(0.0901279 0.00147095 0)
(0.0891423 0.00148504 0)
(0.0881475 0.0014988 0)
(0.0871435 0.00151224 0)
(0.0861308 0.00152536 0)
(0.0851093 0.00153817 0)
(0.0840795 0.00155066 0)
(0.0830414 0.00156285 0)
(0.0819953 0.00157473 0)
(0.0809414 0.00158631 0)
(0.0798799 0.00159759 0)
(0.0788109 0.00160858 0)
(0.0777347 0.00161928 0)
(0.0766515 0.0016297 0)
(0.0755615 0.00163983 0)
(0.0744647 0.00164969 0)
(0.0733615 0.00165928 0)
(0.0722521 0.00166859 0)
(0.0711364 0.00167764 0)
(0.0700149 0.00168643 0)
(0.0688875 0.00169497 0)
(0.0677546 0.00170325 0)
(0.0666162 0.00171128 0)
(0.0654726 0.00171907 0)
(0.0643239 0.00172662 0)
(0.0631702 0.00173393 0)
(0.0620117 0.00174101 0)
(0.0608485 0.00174787 0)
(0.0596809 0.0017545 0)
(0.0585089 0.00176092 0)
(0.0573328 0.00176712 0)
(0.0561525 0.00177311 0)
(0.0549684 0.00177889 0)
(0.0537804 0.00178447 0)
(0.0525888 0.00178986 0)
(0.0513937 0.00179505 0)
(0.0501952 0.00180005 0)
(0.0489934 0.00180487 0)
(0.0477885 0.0018095 0)
(0.0465805 0.00181396 0)
(0.0453697 0.00181825 0)
(0.044156 0.00182237 0)
(0.0429396 0.00182632 0)
(0.0417207 0.00183012 0)
(0.0404993 0.00183375 0)
(0.0392755 0.00183723 0)
(0.0380495 0.00184056 0)
(0.0368212 0.00184375 0)
(0.0355909 0.00184679 0)
(0.0343587 0.0018497 0)
(0.0331245 0.00185246 0)
(0.0318886 0.0018551 0)
(0.0306509 0.00185761 0)
(0.0294116 0.00185999 0)
(0.0281708 0.00186224 0)
(0.0269285 0.00186438 0)
(0.0256848 0.0018664 0)
(0.0244398 0.00186831 0)
(0.0231936 0.0018701 0)
(0.0219462 0.00187178 0)
(0.0206977 0.00187336 0)
(0.0194482 0.00187483 0)
(0.0181978 0.0018762 0)
(0.0169465 0.00187747 0)
(0.0156944 0.00187864 0)
(0.0144416 0.00187971 0)
(0.013188 0.00188069 0)
(0.0119339 0.00188157 0)
(0.0106791 0.00188236 0)
(0.00942393 0.00188306 0)
(0.00816828 0.00188367 0)
(0.00691225 0.00188419 0)
(0.00565591 0.00188463 0)
(0.00439931 0.00188497 0)
(0.00314251 0.00188523 0)
(0.00188556 0.0018854 0)
(0.00062853 0.00188549 0)
(0.000728168 -0.00364034 0)
(0.00218446 -0.00364015 0)
(0.00364064 -0.00363975 0)
(0.00509662 -0.00363916 0)
(0.00655233 -0.00363836 0)
(0.00800768 -0.00363736 0)
(0.00946259 -0.00363616 0)
(0.010917 -0.00363474 0)
(0.0123708 -0.00363311 0)
(0.0138239 -0.00363126 0)
(0.0152762 -0.00362919 0)
(0.0167276 -0.00362689 0)
(0.0181781 -0.00362434 0)
(0.0196276 -0.00362156 0)
(0.0210758 -0.00361852 0)
(0.0225228 -0.00361522 0)
(0.0239685 -0.00361165 0)
(0.0254127 -0.0036078 0)
(0.0268553 -0.00360366 0)
(0.0282961 -0.00359923 0)
(0.0297352 -0.00359448 0)
(0.0311723 -0.00358942 0)
(0.0326073 -0.00358401 0)
(0.0340401 -0.00357827 0)
(0.0354706 -0.00357216 0)
(0.0368985 -0.00356569 0)
(0.0383238 -0.00355883 0)
(0.0397463 -0.00355157 0)
(0.0411658 -0.0035439 0)
(0.0425822 -0.0035358 0)
(0.0439953 -0.00352726 0)
(0.0454048 -0.00351826 0)
(0.0468107 -0.00350879 0)
(0.0482127 -0.00349883 0)
(0.0496107 -0.00348836 0)
(0.0510044 -0.00347738 0)
(0.0523935 -0.00346586 0)
(0.053778 -0.00345379 0)
(0.0551576 -0.00344115 0)
(0.056532 -0.00342793 0)
(0.057901 -0.0034141 0)
(0.0592644 -0.00339966 0)
(0.0606219 -0.00338459 0)
(0.0619732 -0.00336887 0)
(0.0633182 -0.00335248 0)
(0.0646565 -0.00333542 0)
(0.0659878 -0.00331766 0)
(0.0673119 -0.00329919 0)
(0.0686284 -0.00327999 0)
(0.0699372 -0.00326006 0)
(0.0712378 -0.00323937 0)
(0.0725301 -0.00321791 0)
(0.0738136 -0.00319568 0)
(0.075088 -0.00317265 0)
(0.0763531 -0.00314882 0)
(0.0776085 -0.00312417 0)
(0.078854 -0.0030987 0)
(0.080089 -0.00307239 0)
(0.0813134 -0.00304523 0)
(0.0825267 -0.00301723 0)
(0.0837287 -0.00298836 0)
(0.084919 -0.00295862 0)
(0.0860972 -0.00292801 0)
(0.087263 -0.00289652 0)
(0.088416 -0.00286415 0)
(0.0895559 -0.00283089 0)
(0.0906823 -0.00279675 0)
(0.0917949 -0.00276171 0)
(0.0928933 -0.00272579 0)
(0.0939771 -0.00268899 0)
(0.095046 -0.0026513 0)
(0.0960997 -0.00261273 0)
(0.0971378 -0.00257328 0)
(0.0981599 -0.00253296 0)
(0.0991657 -0.00249178 0)
(0.100155 -0.00244975 0)
(0.101127 -0.00240687 0)
(0.102082 -0.00236316 0)
(0.103019 -0.00231862 0)
(0.103938 -0.00227328 0)
(0.104839 -0.00222713 0)
(0.105721 -0.00218021 0)
(0.106585 -0.00213253 0)
(0.107429 -0.00208409 0)
(0.108253 -0.00203494 0)
(0.109058 -0.00198507 0)
(0.109843 -0.00193451 0)
(0.110607 -0.00188329 0)
(0.11135 -0.00183142 0)
(0.112073 -0.00177894 0)
(0.112775 -0.00172586 0)
(0.113455 -0.00167221 0)
(0.114113 -0.00161801 0)
(0.11475 -0.0015633 0)
(0.115365 -0.00150809 0)
(0.115957 -0.00145243 0)
(0.116528 -0.00139633 0)
(0.117075 -0.00133982 0)
(0.1176 -0.00128294 0)
(0.118102 -0.00122571 0)
(0.118581 -0.00116817 0)
(0.119037 -0.00111035 0)
(0.11947 -0.00105227 0)
(0.119879 -0.000993964 0)
(0.120265 -0.000935468 0)
(0.120628 -0.000876811 0)
(0.120967 -0.000818023 0)
(0.121283 -0.000759136 0)
(0.121575 -0.00070018 0)
(0.121843 -0.000641185 0)
(0.122088 -0.000582182 0)
(0.122309 -0.000523201 0)
(0.122506 -0.000464271 0)
(0.12268 -0.00040542 0)
(0.12283 -0.000346679 0)
(0.122957 -0.000288075 0)
(0.12306 -0.000229634 0)
(0.12314 -0.000171386 0)
(0.123197 -0.000113355 0)
(0.123231 -5.55672e-05 0)
(0.123241 1.95205e-06 0)
(0.123228 5.91788e-05 0)
(0.123193 0.00011609 0)
(0.123135 0.000172662 0)
(0.123054 0.000228873 0)
(0.122951 0.000284703 0)
(0.122826 0.000340131 0)
(0.122678 0.000395138 0)
(0.122509 0.000449705 0)
(0.122318 0.000503814 0)
(0.122105 0.000557449 0)
(0.121871 0.000610594 0)
(0.121616 0.000663234 0)
(0.121339 0.000715353 0)
(0.121042 0.00076694 0)
(0.120725 0.000817982 0)
(0.120387 0.000868466 0)
(0.120029 0.000918381 0)
(0.119651 0.000967719 0)
(0.119254 0.00101647 0)
(0.118837 0.00106462 0)
(0.118401 0.00111217 0)
(0.117946 0.00115911 0)
(0.117473 0.00120543 0)
(0.116981 0.00125113 0)
(0.116471 0.0012962 0)
(0.115943 0.00134064 0)
(0.115397 0.00138444 0)
(0.114834 0.00142761 0)
(0.114254 0.00147013 0)
(0.113657 0.00151201 0)
(0.113043 0.00155324 0)
(0.112413 0.00159383 0)
(0.111767 0.00163377 0)
(0.111105 0.00167306 0)
(0.110427 0.00171171 0)
(0.109734 0.00174971 0)
(0.109026 0.00178707 0)
(0.108303 0.00182378 0)
(0.107566 0.00185986 0)
(0.106814 0.00189529 0)
(0.106049 0.00193009 0)
(0.105269 0.00196425 0)
(0.104476 0.00199779 0)
(0.10367 0.0020307 0)
(0.10285 0.00206298 0)
(0.102018 0.00209465 0)
(0.101174 0.0021257 0)
(0.100317 0.00215614 0)
(0.0994476 0.00218597 0)
(0.0985667 0.00221519 0)
(0.0976743 0.00224382 0)
(0.0967706 0.00227186 0)
(0.0958558 0.00229931 0)
(0.0949301 0.00232617 0)
(0.0939938 0.00235246 0)
(0.0930471 0.00237818 0)
(0.0920902 0.00240333 0)
(0.0911234 0.00242791 0)
(0.0901469 0.00245194 0)
(0.0891609 0.00247542 0)
(0.0881656 0.00249836 0)
(0.0871612 0.00252076 0)
(0.086148 0.00254262 0)
(0.0851262 0.00256396 0)
(0.0840959 0.00258478 0)
(0.0830574 0.00260508 0)
(0.0820109 0.00262488 0)
(0.0809566 0.00264418 0)
(0.0798947 0.00266298 0)
(0.0788254 0.00268129 0)
(0.0777488 0.00269912 0)
(0.0766652 0.00271648 0)
(0.0755748 0.00273336 0)
(0.0744777 0.00274979 0)
(0.0733741 0.00276576 0)
(0.0722643 0.00278128 0)
(0.0711483 0.00279636 0)
(0.0700264 0.00281101 0)
(0.0688987 0.00282522 0)
(0.0677655 0.00283902 0)
(0.0666268 0.0028524 0)
(0.0654828 0.00286538 0)
(0.0643338 0.00287796 0)
(0.0631798 0.00289014 0)
(0.062021 0.00290194 0)
(0.0608575 0.00291336 0)
(0.0596896 0.00292441 0)
(0.0585173 0.0029351 0)
(0.0573409 0.00294543 0)
(0.0561604 0.0029554 0)
(0.0549759 0.00296504 0)
(0.0537877 0.00297434 0)
(0.0525959 0.00298331 0)
(0.0514005 0.00299196 0)
(0.0502017 0.00300029 0)
(0.0489997 0.00300831 0)
(0.0477945 0.00301604 0)
(0.0465864 0.00302347 0)
(0.0453753 0.00303061 0)
(0.0441614 0.00303747 0)
(0.0429448 0.00304405 0)
(0.0417256 0.00305037 0)
(0.040504 0.00305642 0)
(0.03928 0.00306222 0)
(0.0380538 0.00306777 0)
(0.0368254 0.00307308 0)
(0.0355949 0.00307814 0)
(0.0343625 0.00308298 0)
(0.0331281 0.00308759 0)
(0.031892 0.00309198 0)
(0.0306541 0.00309615 0)
(0.0294147 0.00310012 0)
(0.0281737 0.00310387 0)
(0.0269312 0.00310743 0)
(0.0256874 0.0031108 0)
(0.0244422 0.00311397 0)
(0.0231959 0.00311695 0)
(0.0219484 0.00311976 0)
(0.0206998 0.00312238 0)
(0.0194501 0.00312483 0)
(0.0181996 0.00312711 0)
(0.0169481 0.00312922 0)
(0.0156959 0.00313117 0)
(0.0144429 0.00313296 0)
(0.0131893 0.00313458 0)
(0.011935 0.00313606 0)
(0.0106801 0.00313737 0)
(0.0094248 0.00313854 0)
(0.00816903 0.00313955 0)
(0.00691289 0.00314042 0)
(0.00565643 0.00314114 0)
(0.00439971 0.00314172 0)
(0.00314279 0.00314215 0)
(0.00188573 0.00314243 0)
(0.000628587 0.00314258 0)
(0.000728286 -0.00509676 0)
(0.00218482 -0.00509648 0)
(0.00364123 -0.00509593 0)
(0.00509746 -0.0050951 0)
(0.00655341 -0.00509399 0)
(0.008009 -0.0050926 0)
(0.00946416 -0.00509092 0)
(0.0109188 -0.00508894 0)
(0.0123729 -0.00508667 0)
(0.0138262 -0.00508409 0)
(0.0152788 -0.00508119 0)
(0.0167305 -0.00507797 0)
(0.0181813 -0.00507442 0)
(0.019631 -0.00507053 0)
(0.0210796 -0.00506629 0)
(0.022527 -0.00506168 0)
(0.0239729 -0.0050567 0)
(0.0254175 -0.00505133 0)
(0.0268604 -0.00504555 0)
(0.0283016 -0.00503935 0)
(0.0297411 -0.00503273 0)
(0.0311786 -0.00502565 0)
(0.032614 -0.0050181 0)
(0.0340472 -0.00501008 0)
(0.0354781 -0.00500155 0)
(0.0369065 -0.0049925 0)
(0.0383323 -0.00498292 0)
(0.0397553 -0.00497277 0)
(0.0411753 -0.00496205 0)
(0.0425922 -0.00495073 0)
(0.0440058 -0.0049388 0)
(0.0454159 -0.00492622 0)
(0.0468224 -0.00491298 0)
(0.048225 -0.00489906 0)
(0.0496235 -0.00488443 0)
(0.0510179 -0.00486908 0)
(0.0524077 -0.00485298 0)
(0.0537929 -0.0048361 0)
(0.0551731 -0.00481843 0)
(0.0565482 -0.00479994 0)
(0.057918 -0.00478061 0)
(0.0592821 -0.00476042 0)
(0.0606404 -0.00473934 0)
(0.0619925 -0.00471735 0)
(0.0633383 -0.00469443 0)
(0.0646774 -0.00467056 0)
(0.0660095 -0.00464572 0)
(0.0673345 -0.00461988 0)
(0.0686519 -0.00459302 0)
(0.0699616 -0.00456513 0)
(0.0712631 -0.00453619 0)
(0.0725563 -0.00450617 0)
(0.0738407 -0.00447506 0)
(0.0751162 -0.00444284 0)
(0.0763822 -0.00440949 0)
(0.0776386 -0.004375 0)
(0.078885 -0.00433935 0)
(0.0801211 -0.00430253 0)
(0.0813465 -0.00426452 0)
(0.0825609 -0.00422532 0)
(0.0837639 -0.00418491 0)
(0.0849552 -0.00414329 0)
(0.0861345 -0.00410044 0)
(0.0873013 -0.00405636 0)
(0.0884554 -0.00401105 0)
(0.0895963 -0.00396449 0)
(0.0907238 -0.00391669 0)
(0.0918375 -0.00386764 0)
(0.0929369 -0.00381735 0)
(0.0940218 -0.00376582 0)
(0.0950918 -0.00371305 0)
(0.0961466 -0.00365904 0)
(0.0971857 -0.00360381 0)
(0.0982088 -0.00354735 0)
(0.0992157 -0.00348969 0)
(0.100206 -0.00343083 0)
(0.101179 -0.00337079 0)
(0.102135 -0.00330957 0)
(0.103073 -0.0032472 0)
(0.103993 -0.0031837 0)
(0.104895 -0.00311908 0)
(0.105778 -0.00305337 0)
(0.106642 -0.00298658 0)
(0.107487 -0.00291875 0)
(0.108313 -0.0028499 0)
(0.109118 -0.00278006 0)
(0.109904 -0.00270925 0)
(0.110669 -0.00263751 0)
(0.111413 -0.00256486 0)
(0.112136 -0.00249135 0)
(0.112839 -0.002417 0)
(0.113519 -0.00234185 0)
(0.114179 -0.00226594 0)
(0.114816 -0.0021893 0)
(0.115431 -0.00211198 0)
(0.116024 -0.00203401 0)
(0.116595 -0.00195542 0)
(0.117143 -0.00187628 0)
(0.117669 -0.0017966 0)
(0.118171 -0.00171644 0)
(0.11865 -0.00163584 0)
(0.119107 -0.00155484 0)
(0.11954 -0.00147349 0)
(0.11995 -0.00139182 0)
(0.120336 -0.00130988 0)
(0.120699 -0.00122772 0)
(0.121038 -0.00114537 0)
(0.121353 -0.00106289 0)
(0.121645 -0.000980306 0)
(0.121914 -0.000897671 0)
(0.122158 -0.000815025 0)
(0.122379 -0.00073241 0)
(0.122577 -0.000649867 0)
(0.12275 -0.000567436 0)
(0.122901 -0.000485159 0)
(0.123027 -0.000403074 0)
(0.12313 -0.00032122 0)
(0.12321 -0.000239635 0)
(0.123267 -0.000158356 0)
(0.1233 -7.74186e-05 0)
(0.12331 3.14229e-06 0)
(0.123297 8.32926e-05 0)
(0.123261 0.000162999 0)
(0.123203 0.000242231 0)
(0.123122 0.000320957 0)
(0.123018 0.000399147 0)
(0.122892 0.000476773 0)
(0.122744 0.000553808 0)
(0.122574 0.000630227 0)
(0.122382 0.000706004 0)
(0.122169 0.000781115 0)
(0.121934 0.000855539 0)
(0.121679 0.000929254 0)
(0.121402 0.00100224 0)
(0.121104 0.00107448 0)
(0.120786 0.00114595 0)
(0.120447 0.00121665 0)
(0.120089 0.00128654 0)
(0.11971 0.00135563 0)
(0.119312 0.00142389 0)
(0.118894 0.00149132 0)
(0.118458 0.0015579 0)
(0.118002 0.00162362 0)
(0.117528 0.00168848 0)
(0.117035 0.00175246 0)
(0.116524 0.00181557 0)
(0.115996 0.00187779 0)
(0.115449 0.00193912 0)
(0.114885 0.00199955 0)
(0.114304 0.00205908 0)
(0.113707 0.00211771 0)
(0.113092 0.00217544 0)
(0.112461 0.00223226 0)
(0.111814 0.00228818 0)
(0.111151 0.00234319 0)
(0.110473 0.00239729 0)
(0.109779 0.0024505 0)
(0.109071 0.00250279 0)
(0.108347 0.00255419 0)
(0.107609 0.00260469 0)
(0.106856 0.0026543 0)
(0.10609 0.00270301 0)
(0.10531 0.00275084 0)
(0.104516 0.00279778 0)
(0.103709 0.00284385 0)
(0.102889 0.00288904 0)
(0.102056 0.00293337 0)
(0.10121 0.00297683 0)
(0.100353 0.00301944 0)
(0.099483 0.0030612 0)
(0.0986014 0.00310211 0)
(0.0977083 0.00314218 0)
(0.0968039 0.00318143 0)
(0.0958884 0.00321985 0)
(0.094962 0.00325745 0)
(0.094025 0.00329425 0)
(0.0930776 0.00333024 0)
(0.0921201 0.00336544 0)
(0.0911526 0.00339985 0)
(0.0901754 0.00343349 0)
(0.0891887 0.00346635 0)
(0.0881928 0.00349846 0)
(0.0871878 0.0035298 0)
(0.0861739 0.00356041 0)
(0.0851515 0.00359027 0)
(0.0841206 0.00361941 0)
(0.0830815 0.00364783 0)
(0.0820344 0.00367554 0)
(0.0809795 0.00370254 0)
(0.079917 0.00372885 0)
(0.0788471 0.00375448 0)
(0.0777699 0.00377943 0)
(0.0766858 0.00380372 0)
(0.0755948 0.00382736 0)
(0.0744971 0.00385034 0)
(0.073393 0.00387269 0)
(0.0722826 0.00389441 0)
(0.0711661 0.00391551 0)
(0.0700437 0.00393601 0)
(0.0689155 0.0039559 0)
(0.0677818 0.00397521 0)
(0.0666426 0.00399393 0)
(0.0654982 0.00401209 0)
(0.0643486 0.00402969 0)
(0.0631941 0.00404674 0)
(0.0620349 0.00406325 0)
(0.060871 0.00407923 0)
(0.0597026 0.00409469 0)
(0.0585299 0.00410964 0)
(0.057353 0.00412409 0)
(0.0561721 0.00413805 0)
(0.0549873 0.00415153 0)
(0.0537987 0.00416453 0)
(0.0526064 0.00417708 0)
(0.0514107 0.00418918 0)
(0.0502115 0.00420084 0)
(0.0490092 0.00421206 0)
(0.0478036 0.00422287 0)
(0.0465951 0.00423326 0)
(0.0453836 0.00424324 0)
(0.0441694 0.00425284 0)
(0.0429525 0.00426205 0)
(0.0417331 0.00427088 0)
(0.0405111 0.00427935 0)
(0.0392868 0.00428746 0)
(0.0380603 0.00429522 0)
(0.0368316 0.00430264 0)
(0.0356008 0.00430972 0)
(0.0343681 0.00431649 0)
(0.0331335 0.00432293 0)
(0.0318971 0.00432907 0)
(0.030659 0.00433491 0)
(0.0294193 0.00434045 0)
(0.0281781 0.0043457 0)
(0.0269354 0.00435068 0)
(0.0256913 0.00435538 0)
(0.0244459 0.00435982 0)
(0.0231993 0.00436399 0)
(0.0219516 0.00436791 0)
(0.0207028 0.00437158 0)
(0.019453 0.004375 0)
(0.0182022 0.00437819 0)
(0.0169506 0.00438114 0)
(0.0156981 0.00438386 0)
(0.014445 0.00438636 0)
(0.0131911 0.00438864 0)
(0.0119366 0.00439069 0)
(0.0106816 0.00439253 0)
(0.0094261 0.00439416 0)
(0.00817016 0.00439558 0)
(0.00691384 0.0043968 0)
(0.0056572 0.0043978 0)
(0.00440031 0.00439861 0)
(0.00314322 0.00439921 0)
(0.00188599 0.00439961 0)
(0.000628673 0.00439981 0)
(0.000728443 -0.00655345 0)
(0.00218529 -0.0065531 0)
(0.00364202 -0.00655239 0)
(0.00509856 -0.00655133 0)
(0.00655483 -0.00654991 0)
(0.00801076 -0.00654812 0)
(0.00946625 -0.00654597 0)
(0.0109212 -0.00654344 0)
(0.0123756 -0.00654053 0)
(0.0138293 -0.00653722 0)
(0.0152823 -0.00653351 0)
(0.0167344 -0.00652939 0)
(0.0181856 -0.00652485 0)
(0.0196357 -0.00651986 0)
(0.0210847 -0.00651443 0)
(0.0225324 -0.00650853 0)
(0.0239788 -0.00650214 0)
(0.0254238 -0.00649526 0)
(0.0268672 -0.00648785 0)
(0.028309 -0.00647991 0)
(0.0297489 -0.00647142 0)
(0.0311869 -0.00646235 0)
(0.0326229 -0.00645268 0)
(0.0340567 -0.00644239 0)
(0.0354882 -0.00643145 0)
(0.0369172 -0.00641986 0)
(0.0383436 -0.00640756 0)
(0.0397672 -0.00639456 0)
(0.0411879 -0.00638081 0)
(0.0426055 -0.00636629 0)
(0.0440198 -0.00635098 0)
(0.0454306 -0.00633485 0)
(0.0468379 -0.00631786 0)
(0.0482413 -0.0063 0)
(0.0496407 -0.00628124 0)
(0.0510358 -0.00626153 0)
(0.0524265 -0.00624087 0)
(0.0538126 -0.00621921 0)
(0.0551938 -0.00619653 0)
(0.0565698 -0.00617279 0)
(0.0579406 -0.00614798 0)
(0.0593057 -0.00612205 0)
(0.060665 -0.00609499 0)
(0.0620182 -0.00606676 0)
(0.063365 -0.00603733 0)
(0.0647052 -0.00600668 0)
(0.0660385 -0.00597477 0)
(0.0673646 -0.00594158 0)
(0.0686832 -0.00590709 0)
(0.069994 -0.00587127 0)
(0.0712968 -0.00583408 0)
(0.0725912 -0.00579552 0)
(0.0738769 -0.00575555 0)
(0.0751536 -0.00571415 0)
(0.076421 -0.0056713 0)
(0.0776787 -0.00562698 0)
(0.0789265 -0.00558117 0)
(0.0801639 -0.00553385 0)
(0.0813906 -0.00548501 0)
(0.0826064 -0.00543462 0)
(0.0838108 -0.00538269 0)
(0.0850035 -0.00532918 0)
(0.0861842 -0.00527411 0)
(0.0873524 -0.00521744 0)
(0.0885079 -0.00515919 0)
(0.0896503 -0.00509933 0)
(0.0907792 -0.00503787 0)
(0.0918943 -0.00497482 0)
(0.0929951 -0.00491015 0)
(0.0940815 -0.00484389 0)
(0.0951529 -0.00477603 0)
(0.096209 -0.00470659 0)
(0.0972495 -0.00463556 0)
(0.0982741 -0.00456296 0)
(0.0992823 -0.0044888 0)
(0.100274 -0.0044131 0)
(0.101248 -0.00433587 0)
(0.102206 -0.00425714 0)
(0.103145 -0.00417692 0)
(0.104066 -0.00409524 0)
(0.10497 -0.00401212 0)
(0.105854 -0.00392759 0)
(0.106719 -0.00384168 0)
(0.107565 -0.00375443 0)
(0.108392 -0.00366586 0)
(0.109199 -0.00357601 0)
(0.109985 -0.00348492 0)
(0.110751 -0.00339262 0)
(0.111497 -0.00329917 0)
(0.112221 -0.00320459 0)
(0.112924 -0.00310894 0)
(0.113606 -0.00301226 0)
(0.114266 -0.00291459 0)
(0.114904 -0.002816 0)
(0.11552 -0.00271651 0)
(0.116114 -0.00261619 0)
(0.116685 -0.00251509 0)
(0.117234 -0.00241326 0)
(0.11776 -0.00231074 0)
(0.118263 -0.00220761 0)
(0.118743 -0.00210391 0)
(0.1192 -0.00199969 0)
(0.119633 -0.00189502 0)
(0.120043 -0.00178994 0)
(0.12043 -0.00168452 0)
(0.120793 -0.00157881 0)
(0.121132 -0.00147286 0)
(0.121448 -0.00136673 0)
(0.12174 -0.00126048 0)
(0.122008 -0.00115417 0)
(0.122253 -0.00104784 0)
(0.122474 -0.000941546 0)
(0.122671 -0.000835349 0)
(0.122845 -0.000729299 0)
(0.122995 -0.000623446 0)
(0.123121 -0.000517843 0)
(0.123224 -0.000412537 0)
(0.123303 -0.000307579 0)
(0.123359 -0.000203016 0)
(0.123392 -9.8893e-05 0)
(0.123402 4.74345e-06 0)
(0.123388 0.00010785 0)
(0.123352 0.000210385 0)
(0.123293 0.000312307 0)
(0.123211 0.000413576 0)
(0.123107 0.000514155 0)