/*--------------------------------*- C++ -*----------------------------------*\
| =========                 |                                                 |
| \\      /  F ield         | OpenFOAM: The Open Source CFD Toolbox           |
|  \\    /   O peration     | Version:  v2012                                 |
|   \\  /    A nd           | Website:  www.openfoam.com                      |
|    \\/     M anipulation  |                                                 |
\*---------------------------------------------------------------------------*/
FoamFile
{
    version     2.0;
    format      ascii;
    class       volScalarField;
    location    "3.75";
    object      W;
}
// * * * * * * * * * * * * * * * * * * * * * * * * * * * * * * * * * * * * * //

dimensions      [0 0 -1 0 0 0 0];


internalField   nonuniform List<scalar> 
65536
(
6.42067e-20
6.9014e-20
7.98094e-20
9.71974e-20
1.22193e-19
1.56289e-19
2.01542e-19
2.60695e-19
3.37324e-19
4.36022e-19
5.62627e-19
7.24514e-19
9.30944e-19
1.1935e-18
1.52663e-18
1.94827e-18
2.48067e-18
3.15131e-18
3.99407e-18
5.05059e-18
6.3719e-18
8.02042e-18
1.00722e-17
1.26199e-17
1.57756e-17
1.9675e-17
2.44819e-17
3.03929e-17
3.76443e-17
4.65184e-17
5.73518e-17
7.05452e-17
8.65733e-17
1.05998e-16
1.29481e-16
1.57801e-16
1.91871e-16
2.32756e-16
2.81699e-16
3.40144e-16
4.09762e-16
4.92484e-16
5.90529e-16
7.06448e-16
8.43153e-16
1.00397e-15
1.19267e-15
1.41352e-15
1.67136e-15
1.97161e-15
2.32034e-15
2.72434e-15
3.19116e-15
3.72918e-15
4.34764e-15
5.05669e-15
5.86746e-15
6.79209e-15
7.84377e-15
9.03673e-15
1.03863e-14
1.19089e-14
1.3622e-14
1.55441e-14
1.76948e-14
2.00944e-14
2.27642e-14
2.57262e-14
2.90028e-14
3.26169e-14
3.65915e-14
4.09497e-14
4.57139e-14
5.09062e-14
5.65475e-14
6.26575e-14
6.92539e-14
7.63524e-14
8.39663e-14
9.21054e-14
1.00776e-13
1.09982e-13
1.1972e-13
1.29984e-13
1.40762e-13
1.52036e-13
1.63783e-13
1.75973e-13
1.8857e-13
2.0153e-13
2.14803e-13
2.28334e-13
2.4206e-13
2.5591e-13
2.69811e-13
2.83681e-13
2.97436e-13
3.10984e-13
3.24235e-13
3.37091e-13
3.49457e-13
3.61235e-13
3.72329e-13
3.82646e-13
3.92094e-13
4.00587e-13
4.08046e-13
4.14397e-13
4.19576e-13
4.23528e-13
4.26207e-13
4.2758e-13
4.27626e-13
4.26335e-13
4.23711e-13
4.19771e-13
4.14545e-13
4.08076e-13
4.0042e-13
3.91643e-13
3.81825e-13
3.71053e-13
3.59427e-13
3.47051e-13
3.34038e-13
3.20506e-13
3.06578e-13
2.92376e-13
2.78027e-13
2.63656e-13
2.49386e-13
2.35337e-13
2.21626e-13
2.08364e-13
1.95658e-13
1.83605e-13
1.72297e-13
1.61817e-13
1.52241e-13
1.43634e-13
1.36054e-13
1.2955e-13
1.24161e-13
1.19916e-13
1.16836e-13
1.14934e-13
1.1421e-13
1.14658e-13
1.16262e-13
1.18995e-13
1.22821e-13
1.27697e-13
1.33567e-13
1.40368e-13
1.48024e-13
1.56454e-13
1.65565e-13
1.75255e-13
1.85415e-13
1.95928e-13
2.06669e-13
2.17509e-13
2.28315e-13
2.38949e-13
2.49273e-13
2.5915e-13
2.68445e-13
2.77028e-13
2.84776e-13
2.91575e-13
2.97321e-13
3.01924e-13
3.05308e-13
3.07413e-13
3.08197e-13
3.07636e-13
3.05726e-13
3.02479e-13
2.97928e-13
2.92124e-13
2.85134e-13
2.77041e-13
2.67941e-13
2.57943e-13
2.47165e-13
2.35731e-13
2.2377e-13
2.11414e-13
1.98793e-13
1.86034e-13
1.73262e-13
1.60591e-13
1.48127e-13
1.35969e-13
1.24201e-13
1.12897e-13
1.02118e-13
9.19137e-14
8.23202e-14
7.33623e-14
6.5054e-14
5.73986e-14
5.03904e-14
4.40157e-14
3.82538e-14
3.30782e-14
2.84579e-14
2.43586e-14
2.07436e-14
1.7575e-14
1.48141e-14
1.2423e-14
1.03642e-14
8.6021e-15
7.10274e-15
5.83439e-15
4.7677e-15
3.87582e-15
3.1344e-15
2.52161e-15
2.01804e-15
1.6066e-15
1.27236e-15
1.00237e-15
7.85534e-16
6.12372e-16
4.74871e-16
3.66307e-16
2.81074e-16
2.14535e-16
1.62884e-16
1.23015e-16
9.24129e-17
6.90564e-17
5.13296e-17
3.7951e-17
2.79106e-17
2.04175e-17
1.48568e-17
1.0753e-17
7.74143e-18
5.54364e-18
3.94867e-18
2.79761e-18
1.97154e-18
1.38199e-18
9.63586e-19
6.68321e-19
4.61157e-19
3.16713e-19
2.16738e-19
1.48242e-19
1.021e-19
7.20382e-20
5.39078e-20
4.51785e-20
8.58586e-20
9.22827e-20
1.06712e-19
1.29953e-19
1.63362e-19
2.0893e-19
2.69406e-19
3.48453e-19
4.50842e-19
5.82705e-19
7.51834e-19
9.68071e-19
1.24377e-18
1.59439e-18
2.03918e-18
2.60207e-18
3.31272e-18
4.20774e-18
5.33227e-18
6.74176e-18
8.5042e-18
1.07026e-17
1.34383e-17
1.68344e-17
2.104e-17
2.62355e-17
3.26385e-17
4.05103e-17
5.01643e-17
6.19753e-17
7.63899e-17
9.3939e-17
1.15252e-16
1.41072e-16
1.72277e-16
2.09895e-16
2.55133e-16
3.09399e-16
3.74335e-16
4.51844e-16
5.44129e-16
6.53734e-16
7.83582e-16
9.37024e-16
1.11789e-15
1.33054e-15
1.57993e-15
1.87165e-15
2.21202e-15
2.60813e-15
3.06792e-15
3.60025e-15
4.21494e-15
4.92289e-15
5.7361e-15
6.66776e-15
7.73227e-15
8.94534e-15
1.0324e-14
1.18865e-14
1.36527e-14
1.56436e-14
1.78816e-14
2.03904e-14
2.31948e-14
2.63207e-14
2.97952e-14
3.36459e-14
3.79011e-14
4.25896e-14
4.77401e-14
5.33811e-14
5.95405e-14
6.62452e-14
7.35207e-14
8.13907e-14
8.98761e-14
9.89954e-14
1.08763e-13
1.1919e-13
1.30282e-13
1.42041e-13
1.5446e-13
1.6753e-13
1.81232e-13
1.95541e-13
2.10424e-13
2.2584e-13
2.41741e-13
2.58069e-13
2.74758e-13
2.91736e-13
3.08919e-13
3.26219e-13
3.43539e-13
3.60776e-13
3.77821e-13
3.94562e-13
4.10881e-13
4.26658e-13
4.41773e-13
4.56106e-13
4.69539e-13
4.81955e-13
4.93245e-13
5.03305e-13
5.12039e-13
5.19361e-13
5.25195e-13
5.29478e-13
5.32159e-13
5.33203e-13
5.32591e-13
5.30316e-13
5.2639e-13
5.20841e-13
5.13711e-13
5.05062e-13
4.94965e-13
4.83512e-13
4.70803e-13
4.56952e-13
4.42085e-13
4.26335e-13
4.09844e-13
3.92758e-13
3.75229e-13
3.57411e-13
3.39456e-13
3.21519e-13
3.03748e-13
2.8629e-13
2.69286e-13
2.52867e-13
2.3716e-13
2.22282e-13
2.08339e-13
1.9543e-13
1.8364e-13
1.73046e-13
1.63712e-13
1.55692e-13
1.49029e-13
1.43754e-13
1.39887e-13
1.37437e-13
1.36403e-13
1.36772e-13
1.38518e-13
1.41608e-13
1.45996e-13
1.51623e-13
1.58422e-13
1.66314e-13
1.75207e-13
1.85002e-13
1.95586e-13
2.06839e-13
2.18629e-13
2.30817e-13
2.43256e-13
2.55795e-13
2.68274e-13
2.80535e-13
2.92417e-13
3.03758e-13
3.14404e-13
3.24204e-13
3.33016e-13
3.4071e-13
3.47166e-13
3.52283e-13
3.55976e-13
3.58177e-13
3.58841e-13
3.57944e-13
3.55482e-13
3.51475e-13
3.45963e-13
3.39008e-13
3.30689e-13
3.21106e-13
3.10373e-13
2.98615e-13
2.85972e-13
2.72588e-13
2.58614e-13
2.44201e-13
2.295e-13
2.14659e-13
1.99819e-13
1.85113e-13
1.70663e-13
1.5658e-13
1.42962e-13
1.29891e-13
1.17438e-13
1.05657e-13
9.45887e-14
8.42611e-14
7.46884e-14
6.58735e-14
5.78085e-14
5.04767e-14
4.38531e-14
3.79066e-14
3.26008e-14
2.78955e-14
2.3748e-14
2.01141e-14
1.69493e-14
1.42093e-14
1.18511e-14
9.83352e-15
8.11735e-15
6.6661e-15
5.446e-15
4.42616e-15
3.57863e-15
2.87835e-15
2.30304e-15
1.83312e-15
1.45145e-15
1.14325e-15
8.95769e-16
6.98183e-16
5.41322e-16
4.17498e-16
3.20303e-16
2.44441e-16
1.85563e-16
1.40124e-16
1.05252e-16
7.86407e-17
5.84468e-17
4.32083e-17
3.17737e-17
2.32411e-17
1.69098e-17
1.22378e-17
8.80966e-18
6.3081e-18
4.49286e-18
3.18295e-18
2.24295e-18
1.57215e-18
1.09611e-18
7.60202e-19
5.24534e-19
3.60224e-19
2.46505e-19
1.68596e-19
1.16114e-19
8.19237e-20
6.13038e-20
5.13772e-20
1.34583e-19
1.44644e-19
1.67247e-19
2.03654e-19
2.55987e-19
3.27361e-19
4.22076e-19
5.45862e-19
7.06183e-19
9.12625e-19
1.17738e-18
1.51581e-18
1.94725e-18
2.49583e-18
3.19163e-18
4.07203e-18
5.18328e-18
6.58257e-18
8.34028e-18
1.05429e-17
1.32965e-17
1.67303e-17
2.10022e-17
2.63039e-17
3.28675e-17
4.09736e-17
5.09605e-17
6.32343e-17
7.8282e-17
9.66853e-17
1.19137e-16
1.46461e-16
1.79631e-16
2.198e-16
2.68325e-16
3.26796e-16
3.97079e-16
4.81348e-16
5.82135e-16
7.02373e-16
8.45458e-16
1.0153e-15
1.21639e-15
1.45389e-15
1.73365e-15
2.06236e-15
2.44761e-15
2.89794e-15
3.423e-15
4.0336e-15
4.74181e-15
5.5611e-15
6.5064e-15
7.5942e-15
8.84267e-15
1.02717e-14
1.1903e-14
1.37602e-14
1.58689e-14
1.82564e-14
2.09523e-14
2.3988e-14
2.73967e-14
3.12134e-14
3.5475e-14
4.02196e-14
4.54867e-14
5.13168e-14
5.77511e-14
6.48311e-14
7.25981e-14
8.10928e-14
9.03548e-14
1.00422e-13
1.11329e-13
1.2311e-13
1.35791e-13
1.49396e-13
1.63945e-13
1.79448e-13
1.95911e-13
2.13329e-13
2.31693e-13
2.50979e-13
2.71157e-13
2.92184e-13
3.14007e-13
3.36561e-13
3.59769e-13
3.83543e-13
4.0778e-13
4.32369e-13
4.57187e-13
4.82098e-13
5.0696e-13
5.3162e-13
5.55917e-13
5.79686e-13
6.02758e-13
6.24959e-13
6.46117e-13
6.6606e-13
6.84621e-13
7.01638e-13
7.16958e-13
7.30437e-13
7.41946e-13
7.51369e-13
7.58607e-13
7.63579e-13
7.66224e-13
7.66503e-13
7.64398e-13
7.59914e-13
7.53078e-13
7.43943e-13
7.32581e-13
7.19088e-13
7.0358e-13
6.86195e-13
6.67085e-13
6.46421e-13
6.24386e-13
6.01177e-13
5.76998e-13
5.5206e-13
5.2658e-13
5.00775e-13
4.74861e-13
4.49053e-13
4.23559e-13
3.9858e-13
3.74308e-13
3.50925e-13
3.28601e-13
3.07491e-13
2.87738e-13
2.69469e-13
2.52796e-13
2.37817e-13
2.24612e-13
2.13247e-13
2.03772e-13
1.96221e-13
1.90613e-13
1.86952e-13
1.85227e-13
1.85412e-13
1.87468e-13
1.91337e-13
1.96953e-13
2.04229e-13
2.13068e-13
2.23357e-13
2.3497e-13
2.47767e-13
2.61594e-13
2.76286e-13
2.91665e-13
3.07543e-13
3.23725e-13
3.40006e-13
3.56178e-13
3.72028e-13
3.87346e-13
4.01923e-13
4.15554e-13
4.28045e-13
4.39213e-13
4.4889e-13
4.56925e-13
4.6319e-13
4.67578e-13
4.70007e-13
4.70423e-13
4.688e-13
4.6514e-13
4.59473e-13
4.51857e-13
4.42378e-13
4.31145e-13
4.18291e-13
4.03967e-13
3.88342e-13
3.71597e-13
3.53922e-13
3.35515e-13
3.16572e-13
2.9729e-13
2.7786e-13
2.58464e-13
2.39273e-13
2.20442e-13
2.02114e-13
1.84413e-13
1.67444e-13
1.51294e-13
1.36032e-13
1.21709e-13
1.08356e-13
9.59909e-14
8.46143e-14
7.42143e-14
6.47672e-14
5.62393e-14
4.85887e-14
4.17672e-14
3.57218e-14
3.03966e-14
2.57338e-14
2.16753e-14
1.81636e-14
1.5143e-14
1.25599e-14
1.03639e-14
8.50786e-15
6.94815e-15
5.64504e-15
4.56258e-15
3.66856e-15
2.93439e-15
2.33493e-15
1.84825e-15
1.45538e-15
1.14002e-15
8.8833e-16
6.88578e-16
5.30942e-16
4.07244e-16
3.10723e-16
2.3583e-16
1.78046e-16
1.33711e-16
9.9886e-17
7.42236e-17
5.48627e-17
4.03375e-17
2.95008e-17
2.14612e-17
1.55297e-17
1.1178e-17
8.00297e-18
5.69937e-18
4.03728e-18
2.8447e-18
1.99375e-18
1.38995e-18
9.63914e-19
6.65048e-19
4.56692e-19
3.12501e-19
2.13722e-19
1.47185e-19
1.03841e-19
7.77009e-20
6.51174e-20
2.24442e-19
2.41207e-19
2.78877e-19
3.39554e-19
4.26767e-19
5.45705e-19
7.03524e-19
9.0976e-19
1.17683e-18
1.5207e-18
1.96162e-18
2.52518e-18
3.2435e-18
4.15669e-18
5.31477e-18
6.7798e-18
8.62867e-18
1.09563e-17
1.38795e-17
1.75419e-17
2.21192e-17
2.78262e-17
3.49241e-17
4.37308e-17
5.46307e-17
6.80885e-17
8.46638e-17
1.05029e-16
1.29988e-16
1.60503e-16
1.97717e-16
2.42991e-16
2.97933e-16
3.6444e-16
4.44749e-16
5.41479e-16
6.57698e-16
7.96982e-16
9.63488e-16
1.16203e-15
1.39818e-15
1.67835e-15
2.00988e-15
2.4012e-15
2.86191e-15
3.4029e-15
4.03653e-15
4.77674e-15
5.63919e-15
6.64145e-15
7.80312e-15
9.146e-15
1.06942e-14
1.24745e-14
1.4516e-14
1.68508e-14
1.95138e-14
2.25429e-14
2.59789e-14
2.98658e-14
3.42504e-14
3.91827e-14
4.47153e-14
5.09037e-14
5.78058e-14
6.54816e-14
7.39929e-14
8.34028e-14
9.37753e-14
1.05174e-13
1.17663e-13
1.31304e-13
1.46157e-13
1.62279e-13
1.79721e-13
1.98531e-13
2.18748e-13
2.40406e-13
2.63527e-13
2.88124e-13
3.14199e-13
3.4174e-13
3.7072e-13
4.01101e-13
4.32824e-13
4.65815e-13
4.99984e-13
5.35221e-13
5.71397e-13
6.08366e-13
6.45964e-13
6.84008e-13
7.22301e-13
7.60627e-13
7.98759e-13
8.36455e-13
8.73465e-13
9.09531e-13
9.44388e-13
9.77772e-13
1.00942e-12
1.03906e-12
1.06646e-12
1.09136e-12
1.11353e-12
1.13278e-12
1.14891e-12
1.16175e-12
1.17117e-12
1.17705e-12
1.17933e-12
1.17796e-12
1.17292e-12
1.16425e-12
1.152e-12
1.13627e-12
1.11719e-12
1.09491e-12
1.06964e-12
1.0416e-12
1.01102e-12
9.78179e-13
9.4337e-13
9.06894e-13
8.69069e-13
8.30218e-13
7.90671e-13
7.50757e-13
7.10802e-13
6.71127e-13
6.3204e-13
5.93839e-13
5.56805e-13
5.21202e-13
4.87274e-13
4.55246e-13
4.25318e-13
3.97668e-13
3.72451e-13
3.498e-13
3.2982e-13
3.12596e-13
2.9819e-13
2.86637e-13
2.77954e-13
2.72135e-13
2.69151e-13
2.68952e-13
2.71469e-13
2.7661e-13
2.84265e-13
2.94303e-13
3.06572e-13
3.20903e-13
3.37105e-13
3.54971e-13
3.74277e-13
3.94778e-13
4.1622e-13
4.3833e-13
4.60828e-13
4.83423e-13
5.05818e-13
5.27715e-13
5.48817e-13
5.68829e-13
5.8747e-13
6.04468e-13
6.19573e-13
6.32552e-13
6.43203e-13
6.51351e-13
6.56854e-13
6.59606e-13
6.5954e-13
6.56627e-13
6.50878e-13
6.42343e-13
6.31111e-13
6.17309e-13
6.01095e-13
5.8266e-13
5.6222e-13
5.40013e-13
5.16295e-13
4.91334e-13
4.65404e-13
4.38781e-13
4.11735e-13
3.84533e-13
3.57423e-13
3.30641e-13
3.04402e-13
2.78898e-13
2.54297e-13
2.30742e-13
2.0835e-13
1.87213e-13
1.67395e-13
1.48939e-13
1.31863e-13
1.16167e-13
1.01831e-13
8.88192e-14
7.70827e-14
6.65615e-14
5.71874e-14
4.88858e-14
4.1578e-14
3.51834e-14
2.9621e-14
2.4811e-14
2.06759e-14
1.71419e-14
1.41391e-14
1.16024e-14
9.47175e-15
7.69252e-15
6.21524e-15
4.99566e-15
3.99458e-15
3.17753e-15
2.51445e-15
1.97937e-15
1.55004e-15
1.20749e-15
9.35722e-16
7.21325e-16
5.53137e-16
4.21938e-16
3.20168e-16
2.41667e-16
1.81453e-16
1.35524e-16
1.00687e-16
7.44102e-17
5.47004e-17
3.99988e-17
2.90937e-17
2.10498e-17
1.51491e-17
1.08448e-17
7.72226e-18
5.46963e-18
3.85354e-18
2.70055e-18
1.88252e-18
1.3054e-18
9.00582e-19
6.18391e-19
4.23119e-19
2.89355e-19
1.99261e-19
1.40572e-19
1.05181e-19
8.81432e-20
3.80984e-19
4.0942e-19
4.73324e-19
5.76255e-19
7.24196e-19
9.25937e-19
1.19361e-18
1.54336e-18
1.99623e-18
2.57924e-18
3.32672e-18
4.28197e-18
5.49935e-18
7.04678e-18
9.00884e-18
1.14905e-17
1.46219e-17
1.85634e-17
2.35125e-17
2.97117e-17
3.7458e-17
4.71139e-17
5.91206e-17
7.4014e-17
9.2443e-17
1.15191e-16
1.432e-16
1.77604e-16
2.19756e-16
2.71276e-16
3.34087e-16
4.10475e-16
5.03143e-16
6.15279e-16
7.50633e-16
9.13602e-16
1.10933e-15
1.3438e-15
1.62397e-15
1.95791e-15
2.35491e-15
2.82568e-15
3.38248e-15
4.03936e-15
4.8123e-15
5.71943e-15
6.78129e-15
8.02101e-15
9.4646e-15
1.11411e-14
1.30831e-14
1.53264e-14
1.7911e-14
2.08807e-14
2.42838e-14
2.81728e-14
3.2605e-14
3.76424e-14
4.33518e-14
4.98047e-14
5.70775e-14
6.52512e-14
7.44112e-14
8.46471e-14
9.60521e-14
1.08723e-13
1.22757e-13
1.38257e-13
1.55323e-13
1.74057e-13
1.94558e-13
2.16923e-13
2.41245e-13
2.6761e-13
2.96098e-13
3.26777e-13
3.59707e-13
3.94931e-13
4.32481e-13
4.72366e-13
5.14582e-13
5.59098e-13
6.05864e-13
6.54804e-13
7.05815e-13
7.58767e-13
8.13503e-13
8.69837e-13
9.27551e-13
9.86402e-13
1.04612e-12
1.1064e-12
1.16691e-12
1.22732e-12
1.28724e-12
1.3463e-12
1.40409e-12
1.46019e-12
1.5142e-12
1.56569e-12
1.61424e-12
1.65946e-12
1.70094e-12
1.73833e-12
1.77126e-12
1.79944e-12
1.82257e-12
1.84042e-12
1.85279e-12
1.85954e-12
1.86056e-12
1.85581e-12
1.8453e-12
1.82909e-12
1.80731e-12
1.78013e-12
1.74777e-12
1.71051e-12
1.66867e-12
1.62262e-12
1.57276e-12
1.51952e-12
1.46337e-12
1.4048e-12
1.3443e-12
1.28238e-12
1.21956e-12
1.15636e-12
1.09326e-12
1.03077e-12
9.6935e-13
9.09458e-13
8.51515e-13
7.95915e-13
7.43021e-13
6.93161e-13
6.46629e-13
6.03682e-13
5.64537e-13
5.29379e-13
4.98353e-13
4.71568e-13
4.49099e-13
4.30985e-13
4.17232e-13
4.07811e-13
4.02665e-13
4.01702e-13
4.04803e-13
4.11815e-13
4.2256e-13
4.36829e-13
4.54385e-13
4.74965e-13
4.98276e-13
5.24004e-13
5.51807e-13
5.81323e-13
6.12167e-13
6.43938e-13
6.7622e-13
7.08586e-13
7.40603e-13
7.71834e-13
8.01849e-13
8.30225e-13
8.56553e-13
8.80448e-13
9.0155e-13
9.19534e-13
9.34113e-13
9.45044e-13
9.52132e-13
9.55236e-13
9.54268e-13
9.49198e-13
9.40052e-13
9.26915e-13
9.09924e-13
8.89271e-13
8.65192e-13
8.37969e-13
8.0792e-13
7.75392e-13
7.40759e-13
7.04405e-13
6.66728e-13
6.28123e-13
5.8898e-13
5.49675e-13
5.10566e-13
4.71986e-13
4.34238e-13
3.97594e-13
3.6229e-13
3.28525e-13
2.96461e-13
2.66224e-13
2.37902e-13
2.1155e-13
1.87191e-13
1.64819e-13
1.44401e-13
1.25884e-13
1.09194e-13
9.42431e-14
8.09313e-14
6.91503e-14
5.87863e-14
4.97229e-14
4.18437e-14
3.50342e-14
2.91834e-14
2.41857e-14
1.99413e-14
1.63575e-14
1.33489e-14
1.08376e-14
8.75334e-15
7.03344e-15
5.62224e-15
4.47089e-15
3.53688e-15
2.78344e-15
2.17911e-15
1.69709e-15
1.3148e-15
1.0133e-15
7.76851e-16
5.92458e-16
4.49462e-16
3.3919e-16
2.54627e-16
1.90141e-16
1.41239e-16
1.04361e-16
7.67054e-17
5.60809e-17
4.07853e-17
2.95047e-17
2.12312e-17
1.51968e-17
1.082e-17
7.66287e-18
5.39819e-18
3.78267e-18
2.63661e-18
1.82815e-18
1.26113e-18
8.659e-19
5.92431e-19
4.05116e-19
2.7896e-19
1.96786e-19
1.47233e-19
1.23379e-19
6.47915e-19
6.96236e-19
8.04842e-19
9.79777e-19
1.2312e-18
1.57403e-18
2.02885e-18
2.62309e-18
3.39245e-18
4.38279e-18
5.65233e-18
7.27455e-18
9.34164e-18
1.19687e-17
1.52993e-17
1.95112e-17
2.48248e-17
3.1512e-17
3.99071e-17
5.04209e-17
6.35558e-17
7.99252e-17
1.00275e-16
1.25513e-16
1.56734e-16
1.95261e-16
2.42689e-16
3.00928e-16
3.72265e-16
4.59428e-16
5.65663e-16
6.94821e-16
8.51453e-16
1.04093e-15
1.26955e-15
1.54472e-15
1.87508e-15
2.27067e-15
2.74318e-15
3.30612e-15
3.97507e-15
4.76797e-15
5.70534e-15
6.81065e-15
8.11057e-15
9.6354e-15
1.14194e-14
1.3501e-14
1.59235e-14
1.87353e-14
2.19901e-14
2.57478e-14
3.00742e-14
3.5042e-14
4.07308e-14
4.72272e-14
5.46256e-14
6.30277e-14
7.25431e-14
8.3289e-14
9.53902e-14
1.08979e-13
1.24194e-13
1.4118e-13
1.60089e-13
1.81076e-13
2.043e-13
2.29922e-13
2.58104e-13
2.89007e-13
3.22787e-13
3.59597e-13
3.99581e-13
4.42872e-13
4.8959e-13
5.39839e-13
5.93703e-13
6.51244e-13
7.12497e-13
7.77468e-13
8.46133e-13
9.18431e-13
9.94264e-13
1.07349e-12
1.15593e-12
1.24136e-12
1.32951e-12
1.42006e-12
1.51265e-12
1.60686e-12
1.70225e-12
1.79832e-12
1.89454e-12
1.99033e-12
2.0851e-12
2.17822e-12
2.26905e-12
2.35691e-12
2.44116e-12
2.52112e-12
2.59615e-12
2.6656e-12
2.72887e-12
2.78539e-12
2.83462e-12
2.8761e-12
2.9094e-12
2.93417e-12
2.95014e-12
2.95709e-12
2.95492e-12
2.94359e-12
2.92314e-12
2.89372e-12
2.85556e-12
2.80895e-12
2.7543e-12
2.69207e-12
2.6228e-12
2.54708e-12
2.46558e-12
2.37901e-12
2.28811e-12
2.19364e-12
2.09642e-12
1.99724e-12
1.89692e-12
1.79624e-12
1.696e-12
1.59694e-12
1.49981e-12
1.40527e-12
1.31398e-12
1.22653e-12
1.14347e-12
1.06528e-12
9.92385e-13
9.25166e-13
8.63934e-13
8.08945e-13
7.60397e-13
7.18432e-13
6.83139e-13
6.54551e-13
6.32653e-13
6.17379e-13
6.08615e-13
6.06202e-13
6.09933e-13
6.19562e-13
6.34796e-13
6.55305e-13
6.80714e-13
7.10614e-13
7.44553e-13
7.82047e-13
8.22576e-13
8.6559e-13
9.1051e-13
9.56735e-13
1.00364e-12
1.0506e-12
1.09696e-12
1.14209e-12
1.18535e-12
1.22612e-12
1.26382e-12
1.29787e-12
1.32776e-12
1.35302e-12
1.37325e-12
1.3881e-12
1.39731e-12
1.40067e-12
1.39807e-12
1.38949e-12
1.37498e-12
1.35468e-12
1.32879e-12
1.29762e-12
1.26151e-12
1.2209e-12
1.17624e-12
1.12806e-12
1.0769e-12
1.02333e-12
9.67918e-13
9.11251e-13
8.53892e-13
7.96385e-13
7.39246e-13
6.82954e-13
6.27944e-13
5.74604e-13
5.23271e-13
4.74226e-13
4.27699e-13
3.83862e-13
3.42838e-13
3.047e-13
2.69475e-13
2.37147e-13
2.07666e-13
1.80948e-13
1.56884e-13
1.35341e-13
1.16172e-13
9.92176e-14
8.43113e-14
7.1283e-14
5.99633e-14
5.01853e-14
4.17884e-14
3.46193e-14
2.85337e-14
2.33976e-14
1.90876e-14
1.54916e-14
1.25084e-14
1.00476e-14
8.02929e-15
6.3832e-15
5.04829e-15
3.97184e-15
3.10869e-15
2.42045e-15
1.87477e-15
1.44453e-15
1.10721e-15
8.44227e-16
6.40335e-16
4.8314e-16
3.62622e-16
2.70737e-16
2.01073e-16
1.48548e-16
1.09166e-16
7.98016e-17
5.80282e-17
4.19729e-17
3.01993e-17
2.16135e-17
1.53868e-17
1.0896e-17
7.67503e-18
5.37761e-18
3.74799e-18
2.59854e-18
1.79243e-18
1.23061e-18
8.41899e-19
5.7567e-19
3.96378e-19
2.79598e-19
2.0918e-19
1.75282e-19
1.09825e-18
1.1801e-18
1.36407e-18
1.6604e-18
2.08628e-18
2.66694e-18
3.43724e-18
4.44356e-18
5.74631e-18
7.42303e-18
9.57221e-18
1.23181e-17
1.58165e-17
2.0262e-17
2.5897e-17
3.30222e-17
4.20096e-17
5.33182e-17
6.75127e-17
8.52861e-17
1.07486e-16
1.35147e-16
1.69528e-16
2.12156e-16
2.64879e-16
3.29925e-16
4.09977e-16
5.08251e-16
6.28595e-16
7.75597e-16
9.54713e-16
1.17241e-15
1.43633e-15
1.75549e-15
2.14046e-15
2.60365e-15
3.15952e-15
3.82491e-15
4.61937e-15
5.56548e-15
6.68931e-15
8.02077e-15
9.59413e-15
1.14485e-14
1.36283e-14
1.6184e-14
1.91724e-14
2.26576e-14
2.67113e-14
3.14137e-14
3.68539e-14
4.31306e-14
5.03529e-14
5.86406e-14
6.81245e-14
7.89476e-14
9.12645e-14
1.05242e-13
1.2106e-13
1.3891e-13
1.58995e-13
1.8153e-13
2.0674e-13
2.34862e-13
2.66138e-13
3.0082e-13
3.39161e-13
3.81421e-13
4.27857e-13
4.78723e-13
5.34267e-13
5.94727e-13
6.60327e-13
7.3127e-13
8.0774e-13
8.89889e-13
9.77837e-13
1.07167e-12
1.17142e-12
1.27708e-12
1.38859e-12
1.50583e-12
1.62862e-12
1.7567e-12
1.88976e-12
2.02742e-12
2.16921e-12
2.31459e-12
2.46296e-12
2.61364e-12
2.76588e-12
2.91887e-12
3.07173e-12
3.22354e-12
3.37332e-12
3.52007e-12
3.66274e-12
3.80028e-12
3.93165e-12
4.05578e-12
4.17165e-12
4.27827e-12
4.3747e-12
4.46005e-12
4.53352e-12
4.59438e-12
4.64202e-12
4.67592e-12
4.69569e-12
4.70107e-12
4.69191e-12
4.66821e-12
4.63012e-12
4.57791e-12
4.51199e-12
4.43289e-12
4.34129e-12
4.23797e-12
4.12382e-12
3.99983e-12
3.86706e-12
3.72666e-12
3.57983e-12
3.42779e-12
3.27181e-12
3.11317e-12
2.95312e-12
2.79291e-12
2.63377e-12
2.47685e-12
2.32327e-12
2.1741e-12
2.03029e-12
1.89275e-12
1.7623e-12
1.63964e-12
1.52542e-12
1.42018e-12
1.32436e-12
1.23832e-12
1.16233e-12
1.09657e-12
1.04113e-12
9.96038e-13
9.61225e-13
9.36556e-13
9.21826e-13
9.16758e-13
9.2101e-13
9.34177e-13
9.5579e-13
9.85321e-13
1.02219e-12
1.06574e-12
1.1153e-12
1.17011e-12
1.22938e-12
1.29227e-12
1.35792e-12
1.42541e-12
1.49382e-12
1.5622e-12
1.62959e-12
1.69506e-12
1.75766e-12
1.81649e-12
1.87068e-12
1.91941e-12
1.96194e-12
1.99758e-12
2.02576e-12
2.04599e-12
2.05789e-12
2.0612e-12
2.05576e-12
2.04157e-12
2.01871e-12
1.9874e-12
1.94798e-12
1.90089e-12
1.84668e-12
1.78596e-12
1.71944e-12
1.64788e-12
1.57208e-12
1.49289e-12
1.41114e-12
1.32768e-12
1.24333e-12
1.15888e-12
1.07508e-12
9.92628e-13
9.12145e-13
8.34189e-13
7.59241e-13
6.87704e-13
6.19899e-13
5.56072e-13
4.96389e-13
4.40949e-13
3.89782e-13
3.42858e-13
3.00095e-13
2.61367e-13
2.26506e-13
1.95318e-13
1.67584e-13
1.43067e-13
1.21524e-13
1.02706e-13
8.63632e-14
7.22537e-14
6.01428e-14
4.98075e-14
4.10381e-14
3.36401e-14
2.74347e-14
2.22594e-14
1.79675e-14
1.44286e-14
1.1527e-14
9.16137e-15
7.24358e-15
5.69759e-15
4.45831e-15
3.47047e-15
2.68746e-15
2.07027e-15
1.5865e-15
1.20943e-15
9.1716e-16
6.9188e-16
5.192e-16
3.87574e-16
2.87799e-16
2.12586e-16
1.56203e-16
1.1417e-16
8.30086e-17
6.00339e-17
4.31889e-17
3.09064e-17
2.20001e-17
1.55775e-17
1.09716e-17
7.68667e-18
5.35686e-18
3.71369e-18
2.56145e-18
1.75845e-18
1.20293e-18
8.22483e-19
5.66285e-19
3.99422e-19
2.98808e-19
2.50375e-19
1.85257e-18
1.99051e-18
2.30064e-18
2.80016e-18
3.51803e-18
4.49676e-18
5.79501e-18
7.49088e-18
9.68607e-18
1.25111e-17
1.61317e-17
2.07569e-17
2.66489e-17
3.41351e-17
4.36229e-17
5.5618e-17
7.07455e-17
8.97768e-17
1.13661e-16
1.43561e-16
1.80901e-16
2.27418e-16
2.85223e-16
3.56879e-16
4.45483e-16
5.54774e-16
6.89243e-16
8.54281e-16
1.05633e-15
1.30307e-15
1.60362e-15
1.9688e-15
2.4114e-15
2.94645e-15
3.59162e-15
4.36761e-15
5.29854e-15
6.41248e-15
7.74198e-15
9.32466e-15
1.12038e-14
1.34293e-14
1.60578e-14
1.91545e-14
2.27929e-14
2.70566e-14
3.20398e-14
3.78483e-14
4.46007e-14
5.24292e-14
6.14809e-14
7.19184e-14
8.39209e-14
9.76851e-14
1.13426e-13
1.31377e-13
1.51793e-13
1.74944e-13
2.01125e-13
2.30645e-13
2.63837e-13
3.01048e-13
3.42644e-13
3.89003e-13
4.40518e-13
4.9759e-13
5.60628e-13
6.30043e-13
7.06242e-13
7.89628e-13
8.80589e-13
9.79497e-13
1.0867e-12
1.2025e-12
1.32718e-12
1.46096e-12
1.60401e-12
1.75644e-12
1.91828e-12
2.08947e-12
2.2699e-12
2.45933e-12
2.65743e-12
2.86375e-12
3.07777e-12
3.29881e-12
3.52609e-12
3.75873e-12
3.9957e-12
4.23589e-12
4.47807e-12
4.72091e-12
4.96299e-12
5.2028e-12
5.43879e-12
5.66932e-12
5.89274e-12
6.10739e-12
6.31158e-12
6.50367e-12
6.68204e-12
6.84515e-12
6.99155e-12
7.11989e-12
7.22892e-12
7.31758e-12
7.38496e-12
7.4303e-12
7.45306e-12
7.4529e-12
7.42969e-12
7.38352e-12
7.31467e-12
7.22367e-12
7.11125e-12
6.97833e-12
6.82605e-12
6.6557e-12
6.46875e-12
6.2668e-12
6.0516e-12
5.82496e-12
5.5888e-12
5.34508e-12
5.09579e-12
4.84293e-12
4.58848e-12
4.33437e-12
4.0825e-12
3.83466e-12
3.59257e-12
3.35781e-12
3.13188e-12
2.91613e-12
2.71175e-12
2.51983e-12
2.34128e-12
2.1769e-12
2.0273e-12
1.893e-12
1.77433e-12
1.67152e-12
1.58468e-12
1.51375e-12
1.45861e-12
1.41899e-12
1.39453e-12
1.38475e-12
1.3891e-12
1.40692e-12
1.43746e-12
1.47989e-12
1.53329e-12
1.59667e-12
1.66896e-12
1.74901e-12
1.83562e-12
1.92753e-12
2.02341e-12
2.12191e-12
2.22164e-12
2.32119e-12
2.41915e-12
2.51411e-12
2.6047e-12
2.68958e-12
2.76749e-12
2.83724e-12
2.89774e-12
2.94802e-12
2.98725e-12
3.01473e-12
3.02993e-12
3.0325e-12
3.02225e-12
2.99917e-12
2.96344e-12
2.91539e-12
2.85556e-12
2.7846e-12
2.70333e-12
2.61269e-12
2.51372e-12
2.40753e-12
2.29533e-12
2.17833e-12
2.05777e-12
1.93489e-12
1.81088e-12
1.68689e-12
1.56402e-12
1.44325e-12
1.3255e-12
1.21156e-12
1.10212e-12
9.97754e-13
8.98921e-13
8.05961e-13
7.19107e-13
6.38487e-13
5.64134e-13
4.95994e-13
4.33938e-13
3.77772e-13
3.27247e-13
2.82071e-13
2.4192e-13
2.06447e-13
1.75293e-13
1.48093e-13
1.24483e-13
1.04109e-13
8.66291e-14
7.17183e-14
5.9072e-14
4.84078e-14
3.94663e-14
3.20118e-14
2.58322e-14
2.07385e-14
1.65635e-14
1.31608e-14
1.04032e-14
8.18087e-15
6.39996e-15
4.98078e-15
3.85616e-15
2.96995e-15
2.27549e-15
1.73433e-15
1.31497e-15
9.91796e-16
7.44135e-16
5.55393e-16
4.1235e-16
3.04541e-16
2.23737e-16
1.63509e-16
1.18865e-16
8.59553e-17
6.18296e-17
4.42408e-17
3.14885e-17
2.22937e-17
1.57004e-17
1.09986e-17
7.66432e-18
5.31292e-18
3.66421e-18
2.51533e-18
1.72058e-18
1.17634e-18
8.09862e-19
5.71189e-19
4.27279e-19
3.58007e-19
3.10836e-18
3.33961e-18
3.8596e-18
4.69717e-18
5.90078e-18
7.54166e-18
9.71805e-18
1.25607e-17
1.624e-17
2.09744e-17
2.70414e-17
3.47909e-17
4.46614e-17
5.72008e-17
7.30908e-17
9.31766e-17
1.18504e-16
1.50362e-16
1.90336e-16
2.40372e-16
3.02845e-16
3.80656e-16
4.77331e-16
5.97145e-16
7.45266e-16
9.27925e-16
1.15262e-15
1.42831e-15
1.76575e-15
2.17772e-15
2.6794e-15
3.28879e-15
4.02713e-15
4.91943e-15
5.99504e-15
7.28831e-15
8.83926e-15
1.06945e-14
1.29078e-14
1.55417e-14
1.86677e-14
2.23682e-14
2.67372e-14
3.18818e-14
3.79238e-14
4.50008e-14
5.3268e-14
6.28995e-14
7.40903e-14
8.70576e-14
1.02043e-13
1.19312e-13
1.39158e-13
1.61904e-13
1.87901e-13
2.17528e-13
2.51199e-13
2.89357e-13
3.32476e-13
3.81061e-13
4.35647e-13
4.96795e-13
5.65093e-13
6.41151e-13
7.25596e-13
8.19069e-13
9.22221e-13
1.0357e-12
1.16016e-12
1.29622e-12
1.44449e-12
1.60555e-12
1.77993e-12
1.96809e-12
2.17046e-12
2.38734e-12
2.61898e-12
2.8655e-12
3.12691e-12
3.40308e-12
3.69375e-12
3.99848e-12
4.31671e-12
4.64767e-12
4.99043e-12
5.34387e-12
5.70669e-12
6.0774e-12
6.45433e-12
6.83565e-12
7.21934e-12
7.60325e-12
7.98508e-12
8.3624e-12
8.73272e-12
9.09344e-12
9.44193e-12
9.77554e-12
1.00916e-11
1.03876e-11
1.0661e-11
1.09094e-11
1.11306e-11
1.13225e-11
1.14832e-11
1.16111e-11
1.17049e-11
1.17636e-11
1.17864e-11
1.17729e-11
1.17229e-11
1.16368e-11
1.15152e-11
1.1359e-11
1.11695e-11
1.09481e-11
1.0697e-11
1.04181e-11
1.01138e-11
9.7868e-12
9.43986e-12
9.07587e-12
8.69789e-12
8.30901e-12
7.91236e-12
7.51107e-12
7.10822e-12
6.70681e-12
6.30975e-12
5.9198e-12
5.53958e-12
5.17151e-12
4.81782e-12
4.48054e-12
4.16147e-12
3.86217e-12
3.58401e-12
3.32809e-12
3.09531e-12
2.88634e-12
2.70165e-12
2.54148e-12
2.4059e-12
2.29478e-12
2.20783e-12
2.14456e-12
2.10436e-12
2.08644e-12
2.08988e-12
2.11364e-12
2.15653e-12
2.21723e-12
2.29433e-12
2.38628e-12
2.49144e-12
2.60808e-12
2.73436e-12
2.86836e-12
3.00811e-12
3.15158e-12
3.29668e-12
3.44133e-12
3.58343e-12
3.72092e-12
3.85177e-12
3.97403e-12
4.08584e-12
4.18549e-12
4.2714e-12
4.34217e-12
4.3966e-12
4.43373e-12
4.4528e-12
4.45334e-12
4.4351e-12
4.39812e-12
4.34269e-12
4.26935e-12
4.1789e-12
4.07234e-12
3.9509e-12
3.81596e-12
3.66907e-12
3.51188e-12
3.34615e-12
3.17366e-12
2.99624e-12
2.81566e-12
2.63369e-12
2.45199e-12
2.27212e-12
2.09554e-12
1.92354e-12
1.75727e-12
1.59772e-12
1.4457e-12
1.30185e-12
1.16666e-12
1.04045e-12
9.23375e-13
8.15478e-13
7.16664e-13
6.26729e-13
5.4538e-13
4.72244e-13
4.06888e-13
3.48834e-13
2.97571e-13
2.52573e-13
2.13304e-13
1.79235e-13
1.49848e-13
1.24647e-13
1.03159e-13
8.4942e-14
6.95863e-14
5.67161e-14
4.59901e-14
3.71018e-14
2.97779e-14
2.37769e-14
1.88876e-14
1.49264e-14
1.1735e-14
9.17832e-15
7.14147e-15
5.52781e-15
4.25656e-15
3.26061e-15
2.48469e-15
1.88355e-15
1.42039e-15
1.06552e-15
7.95137e-16
5.90255e-16
4.35868e-16
3.20174e-16
2.33954e-16
1.70054e-16
1.22956e-16
8.84347e-17
6.32704e-17
4.5028e-17
3.18763e-17
2.24468e-17
1.57233e-17
1.09557e-17
7.59389e-18
5.23694e-18
3.59467e-18
2.45873e-18
1.68088e-18
1.15714e-18
8.16066e-19
6.10421e-19
5.11433e-19
5.187e-18
5.57257e-18
6.43969e-18
7.83638e-18
9.84341e-18
1.25794e-17
1.6208e-17
2.09471e-17
2.70802e-17
3.49712e-17
4.50822e-17
5.79953e-17
7.44409e-17
9.53303e-17
1.21797e-16
1.55249e-16
1.97422e-16
2.50463e-16
3.17004e-16
4.00279e-16
5.04235e-16
6.3369e-16
7.94496e-16
9.9375e-16
1.24003e-15
1.54366e-15
1.91708e-15
2.37516e-15
2.93569e-15
3.61983e-15
4.45274e-15
5.46418e-15
6.68929e-15
8.16943e-15
9.95308e-15
1.2097e-14
1.46671e-14
1.77404e-14
2.14057e-14
2.57657e-14
3.09384e-14
3.70592e-14
4.42827e-14
5.2785e-14
6.27658e-14
7.4451e-14
8.80947e-14
1.03982e-13
1.22433e-13
1.43801e-13
1.6848e-13
1.96905e-13
2.29554e-13
2.6695e-13
3.09663e-13
3.58312e-13
4.13565e-13
4.76138e-13
5.46797e-13
6.26357e-13
7.15677e-13
8.15659e-13
9.27246e-13
1.05141e-12
1.18915e-12
1.34149e-12
1.50946e-12
1.69408e-12
1.89636e-12
2.1173e-12
2.35784e-12
2.61885e-12
2.90116e-12
3.20546e-12
3.53237e-12
3.88234e-12
4.25568e-12
4.65253e-12
5.07283e-12
5.51629e-12
5.98242e-12
6.47045e-12
6.97937e-12
7.50787e-12
8.05438e-12
8.61703e-12
9.19366e-12
9.78182e-12
1.03788e-11
1.09815e-11
1.15868e-11
1.21911e-11
1.27908e-11
1.3382e-11
1.39606e-11
1.45226e-11
1.50639e-11
1.55801e-11
1.60673e-11
1.65214e-11
1.69384e-11
1.73148e-11
1.76471e-11
1.79321e-11
1.81671e-11
1.83497e-11
1.8478e-11
1.85504e-11
1.85661e-11
1.85244e-11
1.84256e-11
1.82701e-11
1.80592e-11
1.77944e-11
1.74781e-11
1.71127e-11
1.67015e-11
1.62479e-11
1.57558e-11
1.52294e-11
1.46731e-11
1.40916e-11
1.34896e-11
1.28721e-11
1.22439e-11
1.16099e-11
1.09748e-11
1.03434e-11
9.72008e-12
9.10904e-12
8.51427e-12
7.93943e-12
7.38788e-12
6.86263e-12
6.36634e-12
5.90133e-12
5.46955e-12
5.07257e-12
4.71166e-12
4.3877e-12
4.10128e-12
3.85267e-12
3.64182e-12
3.46843e-12
3.33193e-12
3.23148e-12
3.16603e-12
3.1343e-12