/*--------------------------------*- C++ -*----------------------------------*\
| =========                 |                                                 |
| \\      /  F ield         | OpenFOAM: The Open Source CFD Toolbox           |
|  \\    /   O peration     | Version:  v2012                                 |
|   \\  /    A nd           | Website:  www.openfoam.com                      |
|    \\/     M anipulation  |                                                 |
\*---------------------------------------------------------------------------*/
FoamFile
{
    version     2.0;
    format      ascii;
    class       volScalarField;
    location    "0";
    object      p;
}
// * * * * * * * * * * * * * * * * * * * * * * * * * * * * * * * * * * * * * //

dimensions      [0 2 -2 0 0 0 0];


internalField   nonuniform List<scalar> 
4000
(
-0.234804
-0.183463
-0.175505
-0.169667
-0.063574
-0.100134
-0.156991
-0.0292945
0.0283966
0.0150574
0.034268
0.0572999
-0.0373995
0.0339691
0.0908882
0.0599202
-0.0218371
0.0275569
0.0210411
0.118041
0.064016
0.0833372
0.10614
0.0502047
0.165075
0.199483
0.144927
0.0967885
0.0629606
0.195125
0.397378
0.349864
0.287649
0.232346
0.155292
0.105906
0.159237
0.153237
0.109822
0.0167258
-0.0623586
-0.128555
-0.150348
-0.109118
-0.0437532
-0.0878996
-0.0977922
-0.0192906
0.00981775
-0.0439497
-0.126223
-0.0631175
0.0232728
-0.0574715
-0.0248981
-0.123529
-0.148357
-0.160285
-0.203794
-0.226514
-0.283715
-0.203449
-0.232367
-0.253949
-0.269725
-0.273387
-0.266251
-0.255009
-0.195257
-0.17803
-0.174819
-0.197447
-0.152863
-0.0687857
-0.0626772
0.019622
0.0507495
0.118093
0.181324
0.127097
0.098188
0.232538
0.179949
0.114908
0.123865
0.167488
0.181608
0.0289361
-0.118576
-0.0905736
-0.147684
-0.241235
-0.208195
-0.223291
-0.214625
-0.144862
-0.150707
-0.174083
-0.133613
-0.0607907
-0.208685
-0.170067
-0.216835
-0.148069
-0.162589
-0.089811
-0.0402819
-0.0381507
0.0278178
-0.00997115
0.049364
0.0398785
-0.0251875
0.0567402
0.0458263
0.027628
0.0253113
0.0210823
0.0160657
0.0716056
0.0444135
0.104015
0.104236
0.128424
0.167719
0.136635
0.126516
0.0916997
0.110954
0.21892
0.323344
0.296386
0.340364
0.267596
0.129833
0.164942
0.154399
0.111421
0.0980644
-0.0427584
-0.0468072
-0.0896886
-0.0991241
-0.0851095
-0.0503671
-0.0996129
-0.0901704
-0.0716478
-0.0143398
-0.0309413
-0.110591
-0.0858092
0.00514645
0.00160186
-0.0672573
-0.125546
-0.118814
-0.123621
-0.207132
-0.228163
-0.288105
-0.243492
-0.208145
-0.252566
-0.295086
-0.269182
-0.228498
-0.234555
-0.233481
-0.208039
-0.153311
-0.198446
-0.199066
-0.0806568
-0.0492015
0.0781528
0.0450992
0.122393
0.170018
0.159659
0.166097
0.178322
0.110248
0.140164
0.152823
0.151839
0.134276
0.0538632
-0.0354313
-0.133471
-0.175754
-0.223745
-0.255717
-0.222708
-0.211967
-0.175805
-0.153593
-0.16876
-0.11649
-0.055139
-0.20076
-0.179761
-0.170521
-0.142976
-0.109911
-0.125193
-0.0577397
0.0456679
0.02173
-0.0490105
0.00764028
0.0174043
0.0234331
0.0391764
-0.00681859
-0.000255678
0.0294867
0.114302
0.0989273
0.0272932
0.0355248
0.13636
0.103973
0.0885601
0.127968
0.10804
0.188728
0.100894
0.115431
0.23005
0.268829
0.265977
0.275058
0.238024
0.191609
0.252842
0.173383
0.0451377
0.0179304
-0.014252
-0.0104917
-0.0539343
-0.0937738
-0.0820648
-0.0802149
-0.157429
-0.078949
-0.0267724
-0.085865
-0.0600015
-0.0533274
-0.0562316
-0.00789667
0.00692401
-0.0228736
-0.0520261
-0.118997
-0.16541
-0.231571
-0.259254
-0.276594
-0.169065
-0.163817
-0.271169
-0.314761
-0.283926
-0.210238
-0.212486
-0.223888
-0.203287
-0.142491
-0.223385
-0.120309
-0.00971489
-0.0385017
0.00370659
0.0487625
0.116458
0.167133
0.119778
0.208946
0.172187
0.156323
0.175888
0.166225
0.144075
0.0770733
0.0101247
-0.0232317
-0.0758001
-0.154735
-0.248482
-0.276904
-0.192209
-0.216755
-0.177145
-0.162064
-0.174667
-0.169953
-0.0462836
-0.211058
-0.163241
-0.169422
-0.158523
-0.0745421
-0.074702
-0.0218793
0.0422511
0.0284769
-0.0622752
0.0236829
0.00895815
0.0347697
0.0285878
-0.0582113
0.010559
0.0583678
0.0734499
0.0671504
0.0513318
0.0530446
0.096737
0.101491
0.115693
0.108401
0.152544
0.210713
0.155124
0.112653
0.166079
0.192595
0.235972
0.241432
0.214149
0.178055
0.157105
0.142792
0.071828
0.0667162
0.0213972
-0.0473278
-0.10384
-0.0572844
-0.0229829
-0.0236957
-0.126506
-0.134959
-0.0609819
-0.123052
-0.0470456
-0.05362
-0.0544878
-0.0496898
0.0297663
0.024475
-0.0532468
-0.0863587
-0.143234
-0.195572
-0.218556
-0.207266
-0.197493
-0.220786
-0.248583
-0.297666
-0.247995
-0.195248
-0.22107
-0.237746
-0.213811
-0.160314
-0.157941
-0.136704
-0.094064
0.00629334
0.0585555
0.0982265
0.11062
0.140292
0.172866
0.178017
0.167431
0.149315
0.155696
0.202013
0.118025
0.0871439
0.0269826
0.00741801
-0.0750189
-0.1317
-0.237925
-0.253075
-0.214331
-0.198052
-0.244192
-0.154118
-0.152738
-0.139215
-0.0238739
-0.208303
-0.199552
-0.114906
-0.0834043
-0.000822661
-0.0878098
-0.0615369
-0.0150223
0.0304794
0.0642121
0.0152739
-0.00715975
0.118481
0.0507456
-0.0780448
-0.110768
-0.0381339
0.070008
0.126967
0.11999
-0.0157952
0.0794214
0.187609
0.14942
0.15958
0.109417
0.1226
0.133193
0.0969649
0.15101
0.152988
0.205604
0.260309
0.166135
0.157445
0.116509
0.160332
0.130339
0.0824712
-0.0482757
-0.0514541
-0.0669145
-0.0931962
-0.0642695
-0.0302019
-0.0859463
-0.103658
-0.0956712
-0.0939531
-0.0719664
-0.102283
-0.0625688
-0.0160211
0.0446188
0.0066455
-0.0225151
0.0133974
-0.10787
-0.220881
-0.210275
-0.135236
-0.175159
-0.235607
-0.228086
-0.226248
-0.297958
-0.206414
-0.258195
-0.246962
-0.161373
-0.0695692
-0.123336
-0.116193
-0.0868942
-0.0618075
0.0430615
0.119987
0.0990432
0.140071
0.163448
0.227442
0.146762
0.140747
0.200069
0.20955
0.159215
0.102022
0.0194913
-0.0118823
-0.0677847
-0.14888
-0.245438
-0.247987
-0.235153
-0.20935
-0.297714
-0.16523
-0.111067
-0.114991
-0.0484849
-0.131842
-0.156463
-0.141312
-0.0941609
-0.00190627
-0.0219863
-0.0180457
0.00753134
-0.0382855
0.0682452
0.074922
0.0394105
0.0960134
0.038832
-0.00234911
-0.105778
-0.0547139
-7.22515e-05
-0.0377874
0.0554327
0.066992
0.0926639
0.116304
0.188019
0.117213
0.142821
0.181003
0.102298
0.13982
0.156053
0.132744
0.133002
0.160189
0.0454823
0.0518418
0.119341
0.207077
0.127242
0.054637
-0.0066385
-0.0647799
-0.0414499
-0.00787586
-0.097766
-0.0331812
-0.103632
-0.0576001
-0.122639
-0.0852606
-0.0528206
-0.0961035
-0.0985645
-0.0770582
0.104164
0.050458
0.0220965
-0.00130662
-0.0917928
-0.132673
-0.143727
-0.169529
-0.199117
-0.165414
-0.165184
-0.245499
-0.241468
-0.207932
-0.251729
-0.23113
-0.194437
-0.119107
-0.0783563
-0.108271
-0.0712321
0.0292634
0.027789
0.103026
0.10761
0.109523
0.160809
0.16915
0.173607
0.173375
0.211151
0.183183
0.128084
0.0820037
0.0411211
-0.0208902
-0.102061
-0.108309
-0.211953
-0.235179
-0.247494
-0.226594
-0.221844
-0.20855
-0.122899
-0.0996684
-0.0461757
-0.0995067
-0.130355
-0.110029
-0.032968
0.0243038
0.049616
-0.077611
0.00380329
0.0112499
0.0631751
0.0845979
0.062873
0.0981234
0.023642
-0.0241089
-0.0424231
-0.0513232
-0.028328
-0.0620489
0.0595559
0.0863989
0.103276
0.0538148
0.0858684
0.0861429
0.0914496
0.192965
0.181275
0.171186
0.112652
0.0870328
0.0815233
0.0470622
0.0472773
0.176742
0.101821
0.118584
0.210517
0.136552
-0.00204572
-0.0878054
-0.0776976
-0.0731273
-0.0652416
-0.0898275
-0.128404
-0.0580318
-0.0510606
-0.0150825
-0.0490757
-0.0414874
-0.0437716
-0.0941134
0.0251602
0.000636684
0.00767627
-0.00638259
0.00748431
-0.0320496
-0.0581946
-0.185322
-0.203143
-0.100168
-0.14694
-0.165027
-0.18881
-0.202044
-0.196345
-0.164642
-0.187482
-0.205468
-0.137629
-0.0814412
-0.0491239
-0.0542685
-0.0209977
0.125945
0.172505
0.136095
0.125569
0.163878
0.21671
0.14073
0.175235
0.207573
0.166544
0.113565
0.0252496
-0.0459069
-0.112742
-0.103339
-0.156515
-0.229051
-0.254286
-0.303295
-0.242564
-0.185697
-0.09581
-0.0619188
-0.0434563
-0.0517503
-0.0920947
-0.0767792
0.0385133
-0.020709
-0.0453095
-0.0489873
0.0792893
0.0638661
0.0778089
0.0375786
0.0361041
0.14305
0.0460152
0.00305013
-0.0711479
-0.0378339
-0.0743988
-0.0740932
-0.0140634
-0.00180458
0.0315892
0.0966943
0.0617683
0.0502512
0.102779
0.171734
0.173517
0.149501
0.115441
0.0419046
-0.0366986
-0.00654198
-0.033039
0.123534
0.121979
0.106636
0.158509
0.132533
-0.0616094
-0.0430763
0.0192822
-0.0390492
-0.102776
-0.17614
-0.083107
0.00223019
-0.0681726
-0.074183
0.047721
-0.0191082
-0.130529
-0.123694
0.0417902
0.112399
0.116489
-0.0158278
-0.0216768
-0.023241
-0.0248328
-0.0243035
-0.104441
-0.112419
-0.132461
-0.129685
-0.189279
-0.209786
-0.229108
-0.182056
-0.153474
-0.148888
-0.143971
-0.0480378
0.0269418
0.00926064
0.0484478
0.0983498
0.119601
0.108622
0.1364
0.174303
0.193896
0.207734
0.223131
0.185936
0.165885
0.109324
0.00606944
-0.026168
-0.105448
-0.11194
-0.157346
-0.170779
-0.247625
-0.299911
-0.230168
-0.168144
-0.120989
-0.0979739
0.0185839
-0.0814657
-0.0646212
-0.0574378
-0.0093987
0.0174634
-0.00311892
-0.0335525
0.0324978
0.0318278
0.0854325
0.0969053
0.12623
0.216115
0.0706742
-0.0490086
-0.0523621
-0.065212
-0.129166
-0.135586
-0.088632
-0.0246723
-0.00213591
0.0833821
0.109273
0.100347
0.0595519
0.0793649
0.102648
0.130694
0.079533
-0.0104586
-0.0445319
0.100855
0.122067
0.0575645
0.0828586
0.0150507
0.00545809
0.0888125
0.0380654
-0.0543661
-0.12635
-0.0200474
-0.0496391
-0.0647566
-0.15236
0.0122613
0.00119291
-0.000930158
-0.00177424
-0.0507186
-0.0533146
-0.0184744
0.0194453
0.0369243
0.0366769
0.0139354
0.00892488
0.0420521
0.056568
0.0718343
-0.012509
-0.0692429
-0.0816668
-0.0812787
-0.112876
-0.20106
-0.176285
-0.161551
-0.170154
-0.150304
-0.11763
-0.0752598
-0.0410445
0.0254175
0.0567558
0.13653
0.119007
0.113394
0.146419
0.170712
0.200985
0.203564
0.228714
0.205665
0.153449
0.0668579
0.0232643
0.00833851
-0.0764501
-0.119996
-0.149416
-0.175104
-0.223894
-0.257308
-0.249168
-0.181334
-0.122498
-0.0676076
-0.00125772
-0.0630243
-0.0295571
-0.0486865
-0.015627
0.0341472
-0.0197409
0.0233224
0.0545355
0.00914097
0.0570706
0.0852354
0.133944
0.19063
0.100356
-0.00692775
-0.0781744
-0.0764059
-0.143688
-0.15481
-0.175597
-0.0570501
0.085981
0.0407725
-0.0394533
0.0043791
0.0978861
0.0959449
0.0516109
0.112445
0.00511858
-0.0504477
-0.0146723
0.00946172
0.065184
0.0980937
0.10562
0.023384
-0.00274722
0.0627226
-0.0215606
0.0194711
-0.00349231
0.000988994
-0.069849
-0.125593
-0.146816
-0.0347715
0.00100912
-0.0601905
-0.0412435
-0.0310083
0.00294042
0.0190529
0.0322222
0.0187567
0.0844049
0.0468402
0.0933765
0.0400629
0.0318999
0.0407315
-0.0314718
-0.0215167
0.0163736
0.0151738
-0.0681083
-0.157211
-0.14533
-0.118596
-0.218455
-0.266172
-0.0687725
-0.0577185
-0.00891618
0.0107775
0.090374
0.133898
0.125567
0.152433
0.170868
0.159968
0.208126
0.213311
0.173102
0.196706
0.178595
0.10311
0.0328099
0.0173409
-0.0783596
-0.142509
-0.174093
-0.162966
-0.186468
-0.28808
-0.162233
-0.142838
-0.0949023
-0.101595
-0.0201889
-0.0450733
-0.0217125
-0.0194202
-0.0237072
0.00353579
0.0186051
0.00391804
0.0233218
0.07366
0.120453
0.134979
0.111765
0.0716035
0.0377161
0.0722595
-0.0416632
-0.0683627
-0.172232
-0.180078
-0.131257
-0.0544075
0.0408967
0.0588411
0.000258878
0.0308166
0.0144775
-0.0414831
-0.0169761
0.00923888
0.0121213
0.0220064
-0.0319207
0.0480492
0.0586849
-0.00737104
0.0100208
0.0118977
0.011873
0.0423697
0.0186334
-0.0517432
-0.0712093
-0.0394865
-0.0570923
-0.0794723
-0.109108
-0.0580732
-0.00043252
-0.0226676
0.0186572
0.0540873
-0.00541331
0.0234704
0.0152862
-0.0169552
0.0261387
0.0962745
0.128932
0.102346
0.0913737
0.0640337
0.0481555
0.0832335
0.0777597
0.00416099
-0.0638933
-0.0795365
-0.131017
-0.176214
-0.202012
-0.156373
-0.0901134
-0.0919284
-0.0438597
0.0604159
0.146128
0.0982643
0.130834
0.133764
0.169939
0.130481
0.126514
0.168458
0.205648
0.172193
0.16828
0.151322
0.00343516
-0.00537901
-0.0362827
-0.0993626
-0.129056
-0.173167
-0.167189
-0.270964
-0.203927
-0.114882
-0.124038
-0.0281573
0.0085793
-0.0555462
-0.0373309
-0.0404208
0.00619064
0.0141859
0.0510955
0.0314265
0.0311603
0.0566249
0.0736967
0.164219
0.0988678
-0.00257395
0.070898
0.0408297
-0.0628416
-0.0144934
-0.10743
-0.161928
-0.158396
-0.0618104
-0.0435445
-0.0689346
-0.0749261
-0.105871
-0.0373992
-0.0365651
-0.0693422
0.0278687
0.0961951
0.0377318
-0.0996951
-0.0726295
0.00498609
0.0867469
-0.000419279
-0.0508073
-0.0213642
0.00889858
0.0330037
-0.0354731
-0.0753409
-0.0156578
-0.058607
-0.0815398
-0.0740141
-0.0503734
0.00459685
0.0345569
0.0235207
0.0230549
-0.0417045
0.034046
0.0225977
0.0622166
0.0628484
0.0728036
0.135995
0.128976
0.192574
0.0502707
0.0314788
0.0399368
0.117298
0.0507804
-0.0115191
-0.0563724
-0.0858858
-0.08823
-0.154474
-0.156445
-0.139937
-0.0692042
-0.0248709
0.0758451
0.0831639
0.0622353
0.125162
0.125588
0.0793061
0.143379
0.255587
0.186319
0.119107
0.185432
0.146975
0.0606007
0.0902964
0.0311861
-0.0853495
-0.136228
-0.131535
-0.131327
-0.171246
-0.17218
-0.183158
-0.0619136
-0.0780779
-0.0607339
0.0133444
-0.0275299
-0.0204901
0.0338217
-0.0137302
-0.0229414
0.0503259
0.0569544
0.124121
0.16812
0.124903
0.0346251
0.0715476
0.00619066
0.0308842
0.0529266
-0.0349164
-0.107
-0.161119
-0.109554
-0.156945
-0.00648972
0.0192549
-0.0409322
-0.0721446
-0.169326
-0.12385
-0.0503585
-0.0668158
0.0306063
-0.014968
-0.0810708
-0.0903907
-0.00546823
0.00888488
-0.0192147
-0.0591872
-0.0569875
-0.0728898
-0.0269671
-0.00397699
-0.0201136
-0.081322
-0.0866915
-0.0372015
-0.0136795
-0.000582406
0.00199848
-0.0277408
-0.0090098
0.00877972
0.0571676
-0.0169763
0.0570085
0.084906
0.0861594
0.0927389
0.0582038
0.180445
0.228068
0.229683
0.134261
0.139135
0.0733618
0.0830595
0.105304
-0.00742049
-0.0203575
-0.0746104
-0.0457557
-0.0668026
-0.0816017
-0.125547
-0.153215
-0.0492794
0.02045
0.0947334
0.10757
0.156772
0.12169
0.0638286
0.121189
0.192202
0.106399
0.074299
0.129358
0.183032
0.11416
0.0749534
0.0207027
-0.0153975
-0.0869748
-0.145278
-0.170495
-0.21012
-0.147483
-0.142693
-0.136222
-0.04673
-0.0569797
0.0468954
-0.0140235
-0.0537483
0.0219052
0.0578035
0.0204648
0.0867522
0.0426968
0.0295357
0.0764519
0.153322
0.150288
0.0949298
0.0195665
0.0438745
-0.00575644
-0.0141103
-0.0667075
-0.0966921
-0.0169658
-0.0871539
-0.146095
-0.135593
-0.187669
-0.144964
-0.212781
-0.142851
-0.0943445
-0.072733
0.0354062
-0.0132182
-0.0625345
-0.0632028
-0.0725191
0.0013766
0.036293
0.0422471
-0.10715
-0.144564
-0.0634555
-0.0316276
-0.0350171
-0.0416492
-0.115141
-0.0868822
0.0391326
-0.0182577
0.0146594
0.0429101
0.0254671
0.00303249
-0.00300964
-0.0187128
0.0426192
0.133186
0.0946509
0.0993411
0.11299
0.146499
0.199255
0.21195
0.196189
0.266204
0.151908
0.127336
0.0150089
-0.00805549
0.0213015
-0.0531187
0.0057922
-0.0345589
-0.0853422
-0.129645
-0.10591
0.01969
0.0480737
0.0535879
0.087202
0.0622688
0.0790245
0.0802788
0.0991185
0.146288
0.116487
0.099937
0.131215
0.142393
0.072257
0.0648816
0.00371863
-0.0800334
-0.0945118
-0.0822544
-0.123913
-0.157794
-0.0937179
-0.101514
-0.0941976
-0.0475997
-0.0451856
-0.00388029
0.0233019
-0.0212491
0.00321532
0.090499
0.0915809
0.0910286
0.0680613
0.134106
0.139769
0.177568
0.0920186
0.0437048
0.0376161
0.042094
0.0164841
-0.0649844
-0.0633241
-0.090333
-0.097915
-0.16351
-0.169625
-0.135582
-0.0724162
0.0208623
-0.1798
-0.141583
-0.0712405
-0.0563893
-0.0241407
-0.0991832
-0.0924162
-0.0864951
-0.13337
-0.0195491
-0.00342109
-0.0943946
-0.125029
-0.106463
-0.149297
-0.115443
0.00179551
0.000706774
-0.0266688
0.0229642
-0.0376404
-0.0863504
0.00740508
-0.0100358
0.0605845
-0.0152796
0.0402181
0.0910399
0.0759415
0.147399
0.156396
0.114483
0.149758
0.219368
0.251602
0.194531
0.231669
0.256281
0.173788
0.141894
0.0788343
0.140378
0.0734594
-0.0301299
-0.0276185
-0.0419408
-0.069697
-0.0962191
-0.0218442
-0.0216527
-0.0180244
0.0787339
0.0995595
0.0529626
-0.0172688
-0.0169167
0.0655787
0.128035
0.0715412
0.0881279
0.132862
0.135054
0.0564728
0.101566
0.00855973
-0.0971861
-0.0545836
-0.070767
-0.0953687
-0.158569
-0.139802
-0.0478148
-0.0694223
-0.0368908
-0.0604194
-0.00921361
0.0478452
0.021887
0.0543714
0.123529
0.112595
0.0554866
-0.0183257
0.0916119
0.168498
0.148023
0.118123
0.107654
0.0525064
0.0675048
-0.038202
-0.0483912
-0.013419
-0.0243212
-0.035053
-0.127551
-0.182121
-0.0634117
-0.201524
-0.221982
-0.206167
-0.145617
-0.12675
-0.0604505
-0.0476345
-0.106302
-0.0634988
-0.0763787
-0.160804
-0.11009
-0.0175514
-0.0191589
-0.107491
-0.0931771
-0.146385
-0.0896772
-0.00378402
0.00260002
-0.0488799
-0.00802715
-0.0419895
-0.114953
-0.0137101
0.0416731
0.104454
-0.0071193
0.0595084
0.0794539
0.0671991
0.134831
0.125825
0.151808
0.157678
0.232241
0.265421
0.30051
0.289235
0.273523
0.235997
0.200658
0.104351
0.0975771
0.120393
0.053956
-0.00564386
-0.0931041
-0.0918058
-0.026189
-0.0167864
0.015427
0.0174618
0.0491142
-0.0193411
0.00125611
-0.0155275
-0.0122912
0.0171687
0.0269978
0.111312
0.104442
0.0516994
0.0964738
0.075316
0.0469572
-0.0129511
-0.0818302
-0.0540074
-0.0426556
-0.0980043
-0.10957
-0.0477664
-0.0731273
-0.0758215
-0.0439094
-0.0635696
-0.0185962
0.0106955
0.0337431
0.0879081
0.164571
0.0884098
0.148309
0.128925
0.0905989
0.0570851
0.0922002
0.100644
0.139083
0.0795135
0.0716498
-0.015148
-0.0895483
-0.0700708
-0.104903
-0.118641
-0.0641004
-0.0958463
-0.154552
-0.149653
-0.14753
-0.196488
-0.132354
-0.0888401
-0.0486217
-0.084147
-0.158946
-0.0885257
-0.136302
-0.193975
-0.175894
-0.0594478
-0.0671847
-0.125543
-0.127721
-0.196241
-0.142315
0.0388281
0.0857411
-0.0686128
-0.0632992
-0.0422016
-0.0656412
0.0250695
0.035891
0.0963323
0.0419565
0.0682365
0.0949
0.0279916
0.146444
0.178607
0.183044
0.236125
0.230728
0.28121
0.26102
0.310563
0.32274
0.233259
0.197697
0.213646
0.161222
0.0924034
0.0487115
-0.0115944
-0.0203813
0.0330606
0.00767399
-0.020018
0.00457311
-0.0602075
-0.014587
-0.0220223
-0.0360373
0.0239938
-0.0514083
-0.00513749
0.086073
0.0495438
0.111337
0.074718
0.0873462
-0.0434696
0.00382964
-0.00138467
-0.0565873
-0.0170506
-0.060099
-0.0766578
-0.103753
-0.0816163
-0.0548421
-0.138378
-0.0302166
-0.0455837
-0.041991
0.0277342
0.061599
0.100991
0.176645
0.0756039
0.0325352
0.10066
0.0909145
0.0867171
0.150482
0.109532
0.0602195
0.0534242
0.0652055
0.0452635
-0.026522
-0.0507907
-0.0951994
-0.0680776
-0.145802
-0.162632
-0.099011
-0.0843367
-0.164401
-0.225085
-0.143923
-0.119763
-0.116124
-0.110035
-0.223269
-0.183227
-0.147092
-0.205983
-0.199553
-0.103419
-0.0747766
-0.0531829
-0.0999945
-0.204996
-0.0218809
0.0469727
-0.0100392
-0.170387
-0.0940498
0.03635
0.0251177
0.0356875
0.0688833
0.0769141
0.0616407
0.0162215
0.0639008
0.0506445
0.0829635
0.151709
0.185886
0.277533
0.269369
0.300223
0.275936
0.294611
0.332428
0.280189
0.2343
0.180016
0.162883
0.125352
0.0700282
-0.00722904
0.00270856
0.000400914
-0.00383121
0.0134854
0.0067808
-0.0333557
-0.0328223
-0.111307
0.014798
0.019474
-0.0636537
0.0122573
0.0108509
0.0215346
0.130325
0.167727
0.0119359
-0.035752
0.00746043
-0.0711371
-0.0437907
-0.0538921
-0.054617
-0.0617205
-0.0804547
-0.118761
-0.115293
-0.1462
-0.0184563
-0.0361263
-0.0424963
0.0501316
0.0915116
0.0707983
0.106542
0.0967603
0.0659149
0.128963
0.135099
0.112619
0.111451
0.0914622
0.0934395
0.0503845
0.0252199
0.0333263
0.0289495
-0.036905
-0.0441363
-0.0818064
-0.0853975
-0.156934
-0.147016
-0.138274
-0.156689
-0.197011
-0.169397
-0.119425
-0.0813488
-0.138651
-0.213263
-0.183314
-0.158152
-0.177725
-0.175409
-0.14407
-0.135303
-0.17828
-0.183345
-0.140806
-0.0304191
-0.0073696
-0.0664148
-0.0295166
0.026601
0.0255676
-0.017777
0.028122
0.0618909
0.0325138
0.00107392
0.0523984
0.0473581
0.0661107
0.176816
0.105533
0.194945
0.27601
0.240519
0.245717
0.291586
0.350226
0.348205
0.281589
0.220946
0.201927
0.166594
0.114848
0.11497
0.0339138
0.00866142
0.0068236
0.0452334
0.0362765
0.015953
-0.0491798
-0.0390629
-0.12368
-0.0633365
0.00818653
-0.00909244
-0.00908186
0.0429856
0.00696165
-0.0261955
0.0439492
0.104221
0.026451
-0.00283378
-0.0554322
-0.022135
-0.0743814
-0.064611
-0.0508145
-0.152313
-0.13708
-0.109883
-0.101787
-0.0648949
-0.0398128
-0.013044
0.0280598
0.0538901
0.102223
0.111094
0.13666
0.107946
0.140778
0.103824
0.0763943
0.086612
0.125635
0.102538
0.0921094
0.0409266
0.0223912
0.0443543
0.0540485
-0.0416473
-0.0792251
-0.150262
-0.159048
-0.118214
-0.0966225
-0.106185
-0.184727
-0.193852
-0.158228
-0.119835
-0.167405
-0.216996
-0.251522
-0.170345
-0.143813
-0.173556
-0.146423
-0.164948
-0.179764
-0.208314
-0.0950827
0.0411103
-0.00915189
0.0132925
-0.0873983
-0.0867978
-0.00958481
0.0694471
0.128695
0.0029981
0.0208403
0.0185169
-0.0269371
0.0392581
0.0615255
0.147432
0.140842
0.261857
0.252155
0.242827
0.216406
0.234809
0.339026
0.279726
0.273061
0.264449
0.253344
0.237329
0.181699
0.129698
0.107748
0.0424428
-0.0123781
-0.0415842
0.00507843
0.0220146
-0.0509126
-0.00179475
-0.122736
-0.0808747
-0.0618857
-0.0438445
0.0126662
0.0192009
0.00710912
0.0676172
-0.0128157
0.0163148
0.0148719
-0.0143488
-0.0504617
-0.041606
-0.0915354
-0.0544653
-0.143402
-0.117196
-0.0871727
-0.101612
-0.106239
-0.0347301
-0.0471035
-0.0352554
0.0427477
0.0682016
0.0264287
0.103469
0.149099
0.105887
0.097531
0.113337
0.0999783
0.124627
0.157192
0.102842
0.0561161
-0.0193916
0.0410782
0.0698011
0.0548859
0.0663939
-0.100364
-0.11934
-0.167463
-0.0692163
-0.115074
-0.148791
-0.196995
-0.183257
-0.132724
-0.143475
-0.192825
-0.173485
-0.222101
-0.217522
-0.157843
-0.123281
-0.155674
-0.168577
-0.179021
-0.141226
-0.0903666
-0.0125836
-0.0722198
0.000347664
-0.0238266
0.0128992
-0.00647904
0.0150166
0.0525557
0.0248334
0.0227327
0.0279667
-0.0410646
0.0142168
0.078107
0.128531
0.148926
0.213847
0.211418
0.207117
0.22484
0.272264
0.340345
0.252689
0.272309
0.298098
0.329337
0.184265
0.152005
0.226897
0.135311
0.0565701
-0.0895189
-0.0617307
-0.0105502
0.0274929
-0.00563194
-0.0115785
-0.0501318
-0.0894854
-0.0655253
-0.0142608
0.0150749
-0.0146122
-0.05755
0.00672739
0.0442133
0.0230771
-0.0319322
0.00269938
-0.0248529
-0.0486295
-0.110385
-0.0857383
-0.0845374
-0.174332
-0.148049
-0.119178
-0.0448068
0.00269592
-0.056332
-0.044942
0.04262
0.0411825
0.0493348
0.0992233
0.083079
0.0990808
0.164705
0.146764
0.148031
0.0785326
0.0616102
0.12208
0.122186
0.0553423
0.0249312
0.0860579
0.0840849
-0.0124772
-0.0474944
-0.0769909
-0.150875
-0.0969196
-0.111592
-0.111539
-0.139573
-0.208545
-0.151363
-0.0478556
-0.253522
-0.285046
-0.209151
-0.226578
-0.204237
-0.158229
-0.0978447
-0.102915
-0.185978
-0.067726
-0.10327
-0.0464934
-0.0702718
0.00229685
-0.0447943
0.00249841
0.00800112
0.00537013
0.0544512
0.000333743
-0.0197211
0.0350818
0.0157565
0.00320449
0.0557062
0.101342
0.144692
0.197291
0.19598
0.162888
0.218563
0.1501
0.179658
0.288882
0.301952
0.300868
0.32093
0.346282
0.231334
0.177287
0.207466
0.148572
-0.0358583
-0.217057
-0.117714
-0.0500773
0.0461331
0.0147625
-0.0623282
0.00272389
-0.0615427
-0.0628578
-0.0694889
-0.0323277
-0.0226814
-0.0496253
0.0628842
0.0385123
0.0356717
0.0127616
-0.0631852
-0.0512008
-0.0775575
-0.110413
-0.10261
-0.155026
-0.198591
-0.128469
-0.0800974
-0.0469812
-0.0248217
-0.0317932
0.0454961
0.0365212
0.0211962
0.0547559
0.0862301
0.129217
0.121333
0.125667
0.144953
0.0772307
0.0712974
0.183085
0.144069
0.0535324
-0.00229504
0.0512925
0.0501404
-0.0591629
-0.026193
-0.0019881
-0.0976438
-0.0543449
-0.0591795
-0.105613
-0.166865
-0.152955
-0.126696
-0.0977035
-0.157514
-0.250644
-0.277196
-0.211192
-0.196862
-0.149775
-0.16473
-0.0976194
-0.121655
-0.0619229
-0.0967987
-0.0802259
-0.0737353
-0.0614858
-0.0166051
0.0376641
-0.00678727
-0.000452362
0.0206737
0.0687277
-0.00607286
-0.00537181
0.0270412
0.0209097
0.0404948
0.0461783
0.133715
0.167777
0.267668
0.204906
0.194377
0.089647
0.19925
0.264612
0.232061
0.238413
0.331993
0.349593
0.315169
0.26372
0.170804
0.0621492
-0.0812774
-0.07958
-0.0768061
-0.0125269
-0.0298366
-0.051897
-0.0500496
-0.0323372
-0.0673389
-0.0141866
-0.121032
-0.0159877
0.0459993
-0.00933863
0.0138684
0.00303242
-0.00830492
-0.0100234
-0.0333977
-0.103612
-0.127514
-0.0962697
-0.112682
-0.174843
-0.162446
-0.156363
-0.0661251
-0.0321823
-0.0413418
-0.0440935
0.013799
0.0304202
0.0232758
0.0145192
0.000746011
0.15926
0.127564
0.120759
0.106782
-0.0318538
0.0933879
0.19331
0.167677
0.0408942
0.0755604
0.0654785
0.0648126
0.0731297
0.0976435
0.018942
-0.219618
-0.109853
-0.0534242
-0.145736
-0.165274
-0.182378
-0.174201
-0.173787
-0.160042
-0.163078
-0.253817
-0.258764
-0.236469
-0.125605
-0.0609255
-0.0650377
-0.155734
-0.0732018
-0.0749718
-0.0357198
-0.0245086
0.00215012
0.00375633
-0.0874466
0.00723473
0.0630189
0.00543143
0.0301107
0.0240642
0.0346233
-0.0036916
0.00257584
0.0485816
0.100329
0.131658
0.0972477
0.125027
0.0799264
0.204216
0.153005
0.105033
0.19536
0.237715
0.277355
0.32977
0.338899
0.285301
0.25699
0.182467
0.16433
-0.0275539
-0.152888
-0.110452
-0.0259198
-0.127012
-0.0404433
-0.0431404
-0.0462383
-0.0713737
-0.0468362
-0.0729732
0.0549285
-0.0206383
0.012367
0.0757858
0.0161109
0.000501985
-0.0395139
-0.134632
-0.0987464
-0.0786555
-0.10917
-0.197813
-0.133859
-0.148786
-0.13814
-0.0805963
-0.0803994
-0.0947821
-0.0675712
-0.0248643
-0.00809619
-0.0362369
0.0280198
0.0406105
0.0877635
0.116683
0.134478
0.133699
0.0958816
0.124569
0.14377
0.106806
0.0717909
0.027154
0.115141
0.0932237
-0.00326062
-0.0136758
0.00140896
-0.064039
-0.0353513
-0.0300288
-0.0888176
-0.175707
-0.205951
-0.176044
-0.182101
-0.163348
-0.193473
-0.231507
-0.238284
-0.209889
-0.119233
-0.0585251
-0.0594607
-0.0961389
-0.0388292
-0.0840383
-0.0811897
-0.044616
0.00546937
0.00359441
-0.0516009
-0.0163609
-0.0310691
-0.002775
-0.00560781
0.0249021
0.129976
0.0867951
-0.0569116
-0.00391063
0.0353425
0.0426536
0.0861433
0.130403
0.109423
0.126546
0.135647
0.113037
0.180583
0.279207
0.256307
0.29041
0.266472
0.350678
0.310525
0.153082
0.0802202
-0.0490095
-0.0989904
-0.0958936
-0.0308315
-0.0507728
-0.021902
-0.0695325
-0.102612
-0.0765342
-0.0271062
-0.0465013
0.020614
-0.0156008
-0.0111937
0.0831582
0.0285365
-0.0270698
-0.0932595
-0.0992449
-0.0816297
-0.0533933
-0.118084
-0.166585
-0.179382
-0.175387
-0.149845
-0.0794363
-0.0511024
-0.0581253
-0.0292484
-0.00800267
-0.0135635
-0.0415646
0.0137521
-0.0153412
0.0012059
0.123127
0.155855
0.137168
0.101572
0.114187
0.150124
0.169193
0.148453
0.058796
0.103566
0.0833717
-0.00659824
0.0224018
0.0288531
-0.121426
-0.106359
0.00426019
-0.056392
-0.150086
-0.233374
-0.249391
-0.188238
-0.165735
-0.168084
-0.16353
-0.169819
-0.168878
-0.108673
-0.0846073
-0.0557178
0.000527172
-0.0135613
-0.103467
-0.0533459
-0.00491928
0.0597748
-0.0293912
-0.0679095
-0.00673307
-0.0431321
-0.0127922
0.0520618
0.0560759
0.0614745
0.020015
-0.0111622
-0.0143151
-0.0151002
-0.00279801
0.0611869
0.0567679
0.116516
0.128414
0.072699
0.0767739
0.126388
0.216861
0.224538
0.294614
0.30817
0.291772
0.272857
0.159907
0.0319608
0.0026431
-0.0444546
-0.122995
-0.0969884
-0.0414655
-0.0608841
-0.0513246
-0.135054
-0.105011
0.0101603
0.0059562
-0.0112536
0.0150868
0.0521735
-0.0180807
0.0196106
-0.0459004
-0.0678146
-0.0947342
-0.0824072
-0.0878035
-0.0601174
-0.191009
-0.190811
-0.17379
-0.120309
-0.092662
-0.0118295
-0.00808524
-0.0197702
-0.101889
-0.0605299
-0.0899363
-0.0346941
0.0172856
0.0821013
0.154295
0.111458
0.0802966
0.0947759
0.231923
0.179409
0.149427
0.119817
0.0322959
0.112741
0.103973
0.0102971
0.0171752
0.0829922
-0.0469516
-0.113988
-0.0310991
-0.134082
-0.183017
-0.169778
-0.2254
-0.172537
-0.114866
-0.159005
-0.192816
-0.132098
-0.145766
-0.095152
-0.0462377
0.0283326
-0.0306326
-0.0154776
-0.0178596
-0.0606273
-0.0416077
0.0452732
-0.0160709
-0.0504324
-0.0319599
-0.00250117
-0.016843
0.0309226
0.0661078
0.0164303
-0.0682414
-0.0309194
-0.0501891
-0.00964561
0.00100808
0.0623065
0.035113
0.0611673
0.057587
0.0291016
0.10403
0.156163
0.23185
0.275883
0.244828
0.226413
0.192864
0.23211
0.168232
0.126902
-0.00837888
-0.053808
-0.0844285
-0.0936286
-0.0522461
-0.0447659
-0.0638957
-0.12894
-0.0483239
-0.0123399
-0.0205275
-0.0214997
-0.032274
0.0209377
-0.00745882
0.0166911
-0.00268155
-0.0395087
-0.00653423
-0.013737
-0.0692805
-0.128952
-0.212655
-0.206264
-0.138737
-0.111978
-0.0944219
-0.0101775
-0.0106162
-0.0120659
-0.119805
-0.0825437
-0.00263573
-0.0424471
0.00109208
-0.00763945
0.0187064
-0.00644892
0.111283
0.173685
0.278519
0.197602
0.098513
0.14779
0.125235
0.0521796
0.0459128
0.04126
0.0597371
0.0520971
-0.0219683
-0.113239
-0.0735885
-0.112177
-0.179415
-0.137528
-0.26109
-0.210819
-0.125771
-0.106973
-0.134309
-0.225754
-0.102009
0.0555399
0.00625078
-0.0346561
-0.0495193
0.0284429
0.0444258
-0.0324258
-0.0182876
0.0060525
-0.0286428
-0.0173269
0.0120534
-0.0427748
-0.00368732
0.0389543
0.0246283
0.0271586
-0.0624798
-0.0629065
-0.041069
-0.0434353
0.00368293
0.0184537
0.0273642
0.0536895
0.0837595
0.0123637
-0.0244696
0.176344
0.201812
0.176851
0.215617
0.237239
0.26818
0.166699
0.10363
0.0808319
0.00404912
-0.067942
-0.150858
-0.0941119
-0.0345737
-0.0307698
-0.0913989
-0.0937619
-0.106414
0.015211
0.000192851
-0.0131782
-0.0412617
0.0656029
-0.00373074
-0.00208616
-0.0624952
-0.047207
-0.025515
0.0183001
-0.0645937
-0.147537
-0.189046
-0.173445
-0.099107
-0.0877364
-0.0802553
-0.0087821
0.0438802
0.00651502
-0.127036
-0.144178
-0.0833381
-0.0340724
-0.0220717
0.0278625
0.0725372
-0.000701341
0.0360688
0.130457
0.225024
0.239391
0.17105
0.150786
0.154442
0.110088
-0.0421752
0.0102802
0.0767431
0.0732707
-0.0270105
-0.100676
-0.0253211
-0.0680822
-0.161194
-0.180173
-0.137874
-0.201151
-0.14853
-0.164032
-0.232359
-0.156716
-0.026438
0.077265
0.0186054
0.00483001
0.0253351
0.048563
0.0565846
0.0123728
0.00162062
0.0439983
0.026554
-0.0479048
0.0110165
0.0119544
0.0147435
-0.0235869
0.0568296
-0.0225691
-0.0493668
-0.0834852
-0.0184433
0.00490284
-0.00925976
-0.00851723
-0.0684885
0.00978609
0.0412612
0.0112265
0.0620779
0.103598
0.154502
0.0959941
0.0886672
0.219139
0.249839
0.201427
0.0997242
0.0103735
-0.00964656
-0.0181414
-0.0947937
-0.112653
-0.0495554
0.0192878
-0.0536359
-0.0927991
-0.076754
-0.00360166
-0.0227287
0.0130972
0.00849328
0.0439956
-0.0266264
-0.0208438
0.0414618
-0.0119143
-0.0359737
-0.0209553
-0.0283396
-0.123186