/*--------------------------------*- C++ -*----------------------------------*\
| =========                 |                                                 |
| \\      /  F ield         | OpenFOAM: The Open Source CFD Toolbox           |
|  \\    /   O peration     | Version:  v2012                                 |
|   \\  /    A nd           | Website:  www.openfoam.com                      |
|    \\/     M anipulation  |                                                 |
\*---------------------------------------------------------------------------*/
FoamFile
{
    version     2.0;
    format      ascii;
    class       volScalarField;
    location    "19";
    object      Psi_z;
}
// * * * * * * * * * * * * * * * * * * * * * * * * * * * * * * * * * * * * * //

dimensions      [0 2 -1 0 0 0 0];


internalField   nonuniform List<scalar> 
65536
(
7.99403e-06
2.39825e-05
3.9972e-05
5.59633e-05
7.19572e-05
8.79543e-05
0.000103955
0.000119961
0.000135972
0.000151989
0.000168013
0.000184044
0.000200083
0.00021613
0.000232187
0.000248253
0.00026433
0.000280417
0.000296516
0.000312627
0.000328749
0.000344884
0.000361033
0.000377194
0.000393369
0.000409558
0.000425761
0.000441978
0.00045821
0.000474455
0.000490716
0.00050699
0.000523279
0.000539582
0.000555899
0.000572229
0.000588573
0.000604929
0.000621298
0.000637679
0.000654071
0.000670473
0.000686884
0.000703305
0.000719733
0.000736167
0.000752607
0.000769052
0.000785499
0.000801947
0.000818395
0.000834841
0.000851283
0.000867719
0.000884147
0.000900565
0.000916971
0.000933362
0.000949735
0.000966088
0.000982419
0.000998723
0.001015
0.00103124
0.00104745
0.00106361
0.00107974
0.00109581
0.00111184
0.00112781
0.00114372
0.00115956
0.00117534
0.00119104
0.00120666
0.0012222
0.00123765
0.00125301
0.00126826
0.0012834
0.00129844
0.00131335
0.00132814
0.0013428
0.00135732
0.00137169
0.00138591
0.00139998
0.00141387
0.0014276
0.00144114
0.00145449
0.00146765
0.00148061
0.00149336
0.00150588
0.00151818
0.00153025
0.00154208
0.00155365
0.00156497
0.00157602
0.00158679
0.00159729
0.0016075
0.00161741
0.00162701
0.0016363
0.00164528
0.00165392
0.00166224
0.00167021
0.00167783
0.0016851
0.00169201
0.00169855
0.00170472
0.00171051
0.00171591
0.00172093
0.00172555
0.00172977
0.00173359
0.00173701
0.00174001
0.0017426
0.00174477
0.00174652
0.00174785
0.00174875
0.00174924
0.00174929
0.00174892
0.00174813
0.0017469
0.00174525
0.00174318
0.00174068
0.00173777
0.00173443
0.00173067
0.00172651
0.00172193
0.00171694
0.00171155
0.00170576
0.00169958
0.001693
0.00168605
0.00167871
0.001671
0.00166293
0.00165449
0.0016457
0.00163656
0.00162708
0.00161726
0.00160712
0.00159666
0.00158589
0.00157481
0.00156344
0.00155177
0.00153983
0.00152761
0.00151513
0.00150239
0.0014894
0.00147617
0.0014627
0.00144901
0.0014351
0.00142098
0.00140666
0.00139214
0.00137744
0.00136255
0.0013475
0.00133228
0.00131689
0.00130136
0.00128569
0.00126987
0.00125393
0.00123786
0.00122167
0.00120538
0.00118897
0.00117247
0.00115587
0.00113918
0.00112241
0.00110556
0.00108864
0.00107164
0.00105459
0.00103748
0.00102031
0.00100309
0.000985823
0.000968514
0.000951167
0.000933785
0.000916371
0.000898928
0.000881459
0.000863968
0.000846457
0.00082893
0.000811387
0.000793832
0.000776268
0.000758695
0.000741117
0.000723535
0.00070595
0.000688364
0.00067078
0.000653197
0.000635618
0.000618044
0.000600475
0.000582913
0.000565358
0.000547811
0.000530274
0.000512745
0.000495227
0.000477719
0.000460221
0.000442735
0.000425259
0.000407795
0.000390342
0.0003729
0.000355469
0.00033805
0.000320641
0.000303242
0.000285854
0.000268476
0.000251107
0.000233747
0.000216396
0.000199053
0.000181718
0.000164389
0.000147067
0.000129751
0.000112441
9.51342e-05
7.78317e-05
6.05325e-05
4.32357e-05
2.59407e-05
8.64678e-06
2.39818e-05
7.19464e-05
0.000119914
0.000167888
0.000215869
0.000263859
0.000311862
0.000359878
0.000407911
0.000455961
0.000504032
0.000552124
0.00060024
0.000648382
0.000696552
0.00074475
0.00079298
0.000841242
0.000889537
0.000937868
0.000986236
0.00103464
0.00108309
0.00113157
0.00118009
0.00122866
0.00127727
0.00132592
0.00137462
0.00142335
0.00147213
0.00152096
0.00156982
0.00161873
0.00166768
0.00171668
0.00176571
0.00181478
0.00186388
0.00191303
0.0019622
0.00201141
0.00206065
0.00210991
0.00215919
0.0022085
0.00225782
0.00230715
0.0023565
0.00240584
0.00245519
0.00250453
0.00255386
0.00260317
0.00265245
0.00270171
0.00275093
0.0028001
0.00284923
0.00289829
0.00294728
0.0029962
0.00304503
0.00309376
0.00314238
0.00319089
0.00323926
0.0032875
0.00333558
0.00338349
0.00343122
0.00347876
0.0035261
0.00357321
0.00362008
0.0036667
0.00371305
0.00375912
0.00380488
0.00385033
0.00389543
0.00394018
0.00398456
0.00402853
0.0040721
0.00411523
0.0041579
0.0042001
0.00424179
0.00428297
0.00432361
0.00436368
0.00440317
0.00444205
0.00448029
0.00451788
0.00455479
0.004591
0.00462648
0.00466121
0.00469517
0.00472833
0.00476067
0.00479216
0.00482279
0.00485253
0.00488135
0.00490924
0.00493616
0.00496211
0.00498706
0.00501098
0.00503386
0.00505567
0.0050764
0.00509603
0.00511454
0.00513192
0.00514814
0.00516319
0.00517706
0.00518973
0.00520119
0.00521143
0.00522044
0.00522821
0.00523472
0.00523998
0.00524397
0.00524669
0.00524813
0.0052483
0.00524719
0.0052448
0.00524114
0.00523619
0.00522997
0.00522248
0.00521372
0.0052037
0.00519244
0.00517993
0.00516619
0.00515122
0.00513505
0.00511768
0.00509912
0.0050794
0.00505852
0.00503651
0.00501337
0.00498914
0.00496382
0.00493744
0.00491001
0.00488156
0.00485211
0.00482168
0.00479029
0.00475797
0.00472473
0.0046906
0.0046556
0.00461976
0.0045831
0.00454565
0.00450742
0.00446844
0.00442874
0.00438833
0.00434725
0.00430552
0.00426315
0.00422018
0.00417662
0.0041325
0.00408784
0.00404266
0.00399698
0.00395083
0.00390423
0.0038572
0.00380975
0.00376191
0.0037137
0.00366513
0.00361623
0.00356701
0.00351749
0.00346769
0.00341762
0.0033673
0.00331675
0.00326598
0.003215
0.00316383
0.00311248
0.00306097
0.00300931
0.00295751
0.00290558
0.00285354
0.00280139
0.00274914
0.00269681
0.0026444
0.00259192
0.00253939
0.0024868
0.00243417
0.00238151
0.00232881
0.00227609
0.00222335
0.0021706
0.00211785
0.00206509
0.00201234
0.00195959
0.00190685
0.00185413
0.00180142
0.00174873
0.00169607
0.00164342
0.00159081
0.00153823
0.00148567
0.00143315
0.00138065
0.00132819
0.00127577
0.00122337
0.00117101
0.00111869
0.0010664
0.00101414
0.000961911
0.000909716
0.000857551
0.000805417
0.000753311
0.000701232
0.000649179
0.000597151
0.000545146
0.000493161
0.000441196
0.000389249
0.000337317
0.000285399
0.000233492
0.000181595
0.000129705
7.7821e-05
2.594e-05
3.99684e-05
0.000119907
0.000199851
0.000279804
0.00035977
0.000439752
0.000519754
0.000599779
0.000679831
0.000759913
0.000840028
0.00092018
0.00100037
0.00108061
0.00116089
0.00124122
0.0013216
0.00140203
0.00148252
0.00156307
0.00164368
0.00172436
0.0018051
0.0018859
0.00196678
0.00204772
0.00212874
0.00220982
0.00229098
0.00237221
0.00245351
0.00253488
0.00261633
0.00269784
0.00277943
0.00286108
0.0029428
0.00302459
0.00310644
0.00318834
0.0032703
0.00335232
0.00343438
0.00351649
0.00359863
0.00368081
0.00376302
0.00384525
0.00392749
0.00400974
0.00409199
0.00417423
0.00425645
0.00433864
0.00442079
0.00450289
0.00458493
0.0046669
0.00474878
0.00483056
0.00491223
0.00499377
0.00507516
0.00515639
0.00523744
0.00531829
0.00539893
0.00547933
0.00555948
0.00563935
0.00571892
0.00579817
0.00587708
0.00595561
0.00603375
0.00611147
0.00618874
0.00626554
0.00634183
0.00641759
0.00649279
0.00656739
0.00664137
0.00671468
0.00678731
0.00685922
0.00693036
0.00700071
0.00707023
0.00713889
0.00720664
0.00727346
0.0073393
0.00740412
0.00746788
0.00753056
0.0075921
0.00765247
0.00771164
0.00776955
0.00782617
0.00788146
0.00793539
0.00798791
0.00803898
0.00808856
0.00813663
0.00818313
0.00822803
0.0082713
0.0083129
0.00835279
0.00839094
0.00842732
0.00846189
0.00849463
0.0085255
0.00855447
0.00858153
0.00860663
0.00862976
0.00865089
0.00867001
0.00868709
0.00870211
0.00871507
0.00872593
0.0087347
0.00874136
0.0087459
0.00874831
0.0087486
0.00874675
0.00874276
0.00873665
0.0087284
0.00871803
0.00870553
0.00869093
0.00867423
0.00865544
0.00863459
0.00861167
0.00858672
0.00855975
0.00853078
0.00849984
0.00846695
0.00843213
0.00839542
0.00835685
0.00831644
0.00827422
0.00823022
0.00818449
0.00813705
0.00808795
0.0080372
0.00798486
0.00793096
0.00787554
0.00781863
0.00776028
0.00770052
0.00763939
0.00757694
0.0075132
0.00744821
0.00738201
0.00731464
0.00724615
0.00717656
0.00710593
0.00703428
0.00696165
0.00688809
0.00681363
0.00673831
0.00666217
0.00658523
0.00650754
0.00642912
0.00635002
0.00627027
0.00618989
0.00610893
0.00602741
0.00594535
0.0058628
0.00577978
0.00569631
0.00561243
0.00552816
0.00544352
0.00535854
0.00527324
0.00518765
0.00510179
0.00501567
0.00492932
0.00484276
0.00475601
0.00466908
0.00458199
0.00449476
0.00440741
0.00431994
0.00423237
0.00414472
0.00405699
0.00396921
0.00388138
0.0037935
0.0037056
0.00361768
0.00352975
0.00344182
0.00335389
0.00326597
0.00317807
0.00309019
0.00300234
0.00291453
0.00282675
0.00273901
0.00265132
0.00256368
0.00247608
0.00238854
0.00230105
0.00221362
0.00212624
0.00203892
0.00195165
0.00186444
0.00177729
0.00169019
0.00160315
0.00151616
0.00142922
0.00134233
0.00125549
0.00116869
0.00108194
0.000995226
0.000908552
0.000821914
0.000735308
0.00064873
0.000562179
0.000475651
0.000389143
0.00030265
0.000216169
0.000129698
4.32321e-05
5.59532e-05
0.000167862
0.000279779
0.000391708
0.000503656
0.000615626
0.000727623
0.000839653
0.000951721
0.00106383
0.00117599
0.0012882
0.00140046
0.00151278
0.00162517
0.00173763
0.00185016
0.00196277
0.00207545
0.00218822
0.00230107
0.00241401
0.00252704
0.00264017
0.00275339
0.00286671
0.00298013
0.00309365
0.00320727
0.00332099
0.00343481
0.00354873
0.00366276
0.00377688
0.0038911
0.00400542
0.00411983
0.00423434
0.00434893
0.0044636
0.00457835
0.00469318
0.00480807
0.00492303
0.00503804
0.0051531
0.0052682
0.00538333
0.00549848
0.00561364
0.0057288
0.00584394
0.00595906
0.00607415
0.00618917
0.00630413
0.00641901
0.00653378
0.00664843
0.00676295
0.0068773
0.00699147
0.00710545
0.00721919
0.00733269
0.00744591
0.00755883
0.00767142
0.00778366
0.00789551
0.00800694
0.00811792
0.00822842
0.00833841
0.00844784
0.00855669
0.0086649
0.00877246
0.00887931
0.00898541
0.00909073
0.00919522
0.00929883
0.00940153
0.00950325
0.00960397
0.00970362
0.00980216
0.00989954
0.00999571
0.0100906
0.0101842
0.0102764
0.0103672
0.0104566
0.0105444
0.0106306
0.0107152
0.010798
0.0108792
0.0109585
0.011036
0.0111115
0.0111851
0.0112566
0.0113261
0.0113935
0.0114586
0.0115215
0.0115822
0.0116404
0.0116963
0.0117498
0.0118008
0.0118492
0.0118951
0.0119384
0.011979
0.0120169
0.012052
0.0120845
0.0121141
0.0121409
0.0121648
0.0121859
0.012204
0.0122192
0.0122315
0.0122409
0.0122472
0.0122506
0.012251
0.0122484
0.0122429
0.0122343
0.0122227
0.0122082
0.0121907
0.0121702
0.0121468
0.0121205
0.0120913
0.0120592
0.0120242
0.0119864
0.0119459
0.0119025
0.0118564
0.0118076
0.0117562
0.0117022
0.0116455
0.0115864
0.0115247
0.0114607
0.0113942
0.0113254
0.0112543
0.011181
0.0111055
0.0110278
0.0109481
0.0108664
0.0107826
0.010697
0.0106095
0.0105202
0.0104292
0.0103364
0.0102421
0.0101461
0.0100487
0.00994971
0.00984935
0.00974762
0.00964459
0.00954029
0.00943479
0.00932814
0.00922038
0.00911156
0.00900173
0.00889095
0.00877925
0.00866668
0.00855329
0.00843911
0.0083242
0.00820858
0.00809231
0.00797542
0.00785795
0.00773993
0.00762141
0.0075024
0.00738295
0.0072631
0.00714286
0.00702226
0.00690135
0.00678014
0.00665866
0.00653694
0.00641499
0.00629285
0.00617053
0.00604805
0.00592544
0.00580271
0.00567988
0.00555696
0.00543398
0.00531095
0.00518787
0.00506477
0.00494165
0.00481854
0.00469542
0.00457233
0.00444926
0.00432623
0.00420323
0.00408028
0.00395739
0.00383455
0.00371178
0.00358908
0.00346644
0.00334388
0.00322139
0.00309899
0.00297666
0.00285441
0.00273223
0.00261014
0.00248813
0.00236619
0.00224433
0.00212255
0.00200084
0.00187919
0.00175762
0.00163611
0.00151466
0.00139326
0.00127192
0.00115063
0.00102939
0.000908186
0.000787019
0.000665885
0.000544777
0.000423692
0.000302625
0.00018157
6.05224e-05
7.19355e-05
0.00021581
0.000359694
0.000503595
0.000647518
0.000791471
0.00093546
0.00107949
0.00122357
0.0013677
0.0015119
0.00165616
0.00180049
0.0019449
0.00208939
0.00223397
0.00237865
0.00252342
0.00266829
0.00281327
0.00295837
0.00310357
0.0032489
0.00339434
0.00353991
0.0036856
0.00383142
0.00397738
0.00412346
0.00426967
0.00441601
0.00456249
0.00470909
0.00485582
0.00500268
0.00514967
0.00529677
0.005444
0.00559133
0.00573878
0.00588633
0.00603397
0.0061817
0.00632951
0.0064774
0.00662535
0.00677335
0.00692138
0.00706945
0.00721753
0.00736562
0.00751368
0.00766172
0.00780971
0.00795763
0.00810546
0.00825319
0.00840078
0.00854822
0.00869549
0.00884255
0.00898939
0.00913596
0.00928225
0.00942821
0.00957383
0.00971906
0.00986387
0.0100082
0.0101521
0.0102954
0.0104382
0.0105803
0.0107218
0.0108625
0.0110025
0.0111417
0.0112801
0.0114175
0.011554
0.0116895
0.0118239
0.0119572
0.0120893
0.0122202
0.0123498
0.012478
0.0126048
0.0127301
0.0128538
0.0129759
0.0130963
0.013215
0.0133318
0.0134468
0.0135598
0.0136707
0.0137795
0.0138862
0.0139906
0.0140927
0.0141924
0.0142896
0.0143843
0.0144764
0.0145658
0.0146525
0.0147363
0.0148173
0.0148954
0.0149704
0.0150423
0.0151111
0.0151768
0.0152391
0.0152982
0.0153539
0.0154061
0.0154549
0.0155002
0.015542
0.0155801
0.0156146
0.0156454
0.0156725
0.0156959
0.0157155
0.0157313
0.0157433
0.0157515
0.0157559
0.0157564
0.0157531
0.0157459
0.0157349
0.01572
0.0157013
0.0156788
0.0156525
0.0156224
0.0155885
0.0155509
0.0155096
0.0154646
0.0154159
0.0153637
0.0153079
0.0152486
0.0151858
0.0151196
0.01505
0.0149772
0.014901
0.0148217
0.0147392
0.0146537
0.0145652
0.0144737
0.0143793
0.0142821
0.0141822
0.0140796
0.0139744
0.0138667
0.0137565
0.0136439
0.013529
0.0134118
0.0132925
0.0131711
0.0130476
0.0129222
0.0127949
0.0126658
0.0125349
0.0124023
0.0122682
0.0121324
0.0119952
0.0118566
0.0117166
0.0115753
0.0114328
0.0112891
0.0111443
0.0109984
0.0108516
0.0107037
0.010555
0.0104055
0.0102551
0.010104
0.00995222
0.00979977
0.00964671
0.00949308
0.00933892
0.00918428
0.00902918
0.00887367
0.00871779
0.00856156
0.00840501
0.00824819
0.00809111
0.0079338
0.0077763
0.00761862
0.0074608
0.00730284
0.00714478
0.00698664
0.00682843
0.00667017
0.00651187
0.00635356
0.00619525
0.00603695
0.00587867
0.00572042
0.00556222
0.00540407
0.00524599
0.00508797
0.00493003
0.00477218
0.00461441
0.00445673
0.00429915
0.00414166
0.00398428
0.00382699
0.00366981
0.00351274
0.00335576
0.00319889
0.00304212
0.00288545
0.00272887
0.00257239
0.00241599
0.00225969
0.00210346
0.00194732
0.00179125
0.00163525
0.00147931
0.00132343
0.00116761
0.00101183
0.000856091
0.000700389
0.000544717
0.000389067
0.000233434
7.78102e-05
8.79145e-05
0.000263748
0.000439593
0.000615458
0.000791351
0.000967281
0.00114325
0.00131928
0.00149536
0.00167151
0.00184774
0.00202404
0.00220044
0.00237693
0.00255352
0.00273022
0.00290704
0.00308397
0.00326103
0.00343822
0.00361555
0.00379302
0.00397063
0.00414839
0.0043263
0.00450437
0.00468259
0.00486097
0.00503951
0.00521822
0.00539708
0.00557611
0.00575529
0.00593464
0.00611414
0.00629379
0.00647359
0.00665354
0.00683363
0.00701385
0.0071942
0.00737467
0.00755525
0.00773593
0.00791669
0.00809754
0.00827845
0.00845941
0.00864041
0.00882143
0.00900245
0.00918346
0.00936442
0.00954534
0.00972617
0.00990689
0.0100875
0.0102679
0.0104482
0.0106282
0.010808
0.0109876
0.0111668
0.0113456
0.0115241
0.0117021
0.0118797
0.0120568
0.0122333
0.0124092
0.0125844
0.012759
0.0129328
0.0131058
0.0132779
0.0134492
0.0136194
0.0137886
0.0139567
0.0141236
0.0142893
0.0144538
0.0146168
0.0147784
0.0149385
0.0150969
0.0152538
0.0154089
0.0155621
0.0157135
0.0158629
0.0160102
0.0161554
0.0162983
0.016439
0.0165772
0.0167129
0.0168461
0.0169766
0.0171043
0.0172293
0.0173513
0.0174702
0.0175861
0.0176988
0.0178082
0.0179143
0.0180169
0.0181161
0.0182116
0.0183034
0.0183915
0.0184757
0.018556
0.0186323
0.0187046
0.0187728
0.0188368
0.0188965
0.018952
0.019003
0.0190497
0.019092
0.0191297
0.0191629
0.0191915
0.0192155
0.0192349
0.0192496
0.0192597
0.019265
0.0192657
0.0192616
0.0192529
0.0192394
0.0192212
0.0191983
0.0191708
0.0191385
0.0191017
0.0190602
0.0190142
0.0189636
0.0189085
0.018849
0.0187851
0.0187168
0.0186442
0.0185674
0.0184864
0.0184012
0.0183121
0.0182189
0.0181218
0.0180209
0.0179162
0.0178079
0.0176959
0.0175804
0.0174615
0.0173392
0.0172137
0.017085
0.0169532
0.0168183
0.0166806
0.01654
0.0163967
0.0162507
0.0161022
0.0159511
0.0157977
0.0156419
0.015484
0.0153239
0.0151617
0.0149976
0.0148316
0.0146637
0.0144941
0.0143229
0.0141501
0.0139758
0.0138001
0.013623
0.0134446
0.0132649
0.0130842
0.0129023
0.0127194
0.0125356
0.0123508
0.0121652
0.0119787
0.0117916
0.0116037
0.0114152
0.0112261
0.0110365
0.0108464
0.0106558
0.0104648
0.0102734
0.0100816
0.00988959
0.00969728
0.00950472
0.00931196
0.00911901
0.00892592
0.00873269
0.00853936
0.00834596
0.00815249
0.00795899
0.00776547
0.00757195
0.00737845
0.00718497
0.00699154
0.00679816
0.00660485
0.00641162
0.00621848
0.00602543
0.00583248
0.00563965
0.00544692
0.00525431
0.00506183
0.00486947
0.00467723
0.00448512
0.00429314
0.00410128
0.00390955
0.00371795
0.00352646
0.00333509
0.00314384
0.0029527
0.00276167
0.00257074
0.00237991
0.00218916
0.0019985
0.00180793
0.00161742
0.00142698
0.00123659
0.00104626
0.000855973
0.000665719
0.000475494
0.000285288
9.50948e-05
0.000103889
0.000311673
0.000519471
0.000727293
0.000935148
0.00114305
0.001351
0.00155901
0.00176709
0.00197525
0.0021835
0.00239184
0.00260029
0.00280886
0.00301754
0.00322636
0.0034353
0.0036444
0.00385364
0.00406303
0.00427259
0.00448231
0.00469221
0.00490228
0.00511254
0.00532297
0.00553359
0.00574441
0.00595541
0.0061666
0.00637799
0.00658957
0.00680134
0.00701329
0.00722544
0.00743776
0.00765027
0.00786295
0.0080758
0.0082888
0.00850196
0.00871526
0.00892869
0.00914225
0.00935591
0.00956967
0.00978351
0.00999741
0.0102114
0.0104253
0.0106393
0.0108533
0.0110672
0.011281
0.0114948
0.0117085
0.011922
0.0121353
0.0123484
0.0125612
0.0127738
0.012986
0.0131979
0.0134094
0.0136204
0.0138309
0.0140409
0.0142502
0.0144589
0.0146669
0.0148742
0.0150806
0.0152861
0.0154907
0.0156943
0.0158968
0.0160981
0.0162982
0.0164971
0.0166945
0.0168905
0.0170849
0.0172778
0.0174689
0.0176583
0.0178458
0.0180313
0.0182148
0.0183961
0.0185752
0.0187519
0.0189262
0.019098
0.0192671
0.0194335
0.0195971
0.0197577
0.0199153
0.0200697
0.0202209
0.0203688
0.0205131
0.020654
0.0207911
0.0209245
0.021054
0.0211796
0.0213011
0.0214184
0.0215315
0.0216402
0.0217444
0.0218441
0.0219392
0.0220296
0.0221152
0.0221959
0.0222717
0.0223424
0.022408
0.0224685
0.0225238
0.0225738
0.0226185
0.0226578
0.0226918
0.0227202
0.0227432
0.0227606
0.0227725
0.0227789
0.0227797
0.0227749
0.0227645
0.0227486
0.022727
0.0227
0.0226673
0.0226292
0.0225856
0.0225365
0.022482
0.0224222
0.022357
0.0222865
0.0222108
0.02213
0.0220441
0.0219531
0.0218573
0.0217565
0.0216509
0.0215406
0.0214257
0.0213063
0.0211824
0.0210542
0.0209217
0.020785
0.0206443
0.0204996
0.020351
0.0201987
0.0200427
0.0198831
0.0197201
0.0195538
0.0193842
0.0192115
0.0190357
0.018857
0.0186755
0.0184912
0.0183043
0.0181149
0.0179231
0.0177289
0.0175325
0.0173339
0.0171334
0.0169308
0.0167264
0.0165202
0.0163124
0.0161029
0.0158919
0.0156795
0.0154657
0.0152506
0.0150343
0.0148169
0.0145984
0.0143789
0.0141585
0.0139371
0.013715
0.0134921
0.0132686
0.0130443
0.0128195
0.0125942
0.0123684
0.0121421
0.0119154
0.0116884
0.011461
0.0112334
0.0110055
0.0107774
0.0105491
0.0103207
0.0100922
0.00986355
0.00963486
0.00940613
0.00917739
0.00894864
0.00871992
0.00849123
0.0082626
0.00803404
0.00780556
0.00757717
0.00734889
0.00712072
0.00689268
0.00666477
0.00643699
0.00620936
0.00598187
0.00575453
0.00552734
0.0053003
0.00507341
0.00484668
0.00462009
0.00439365
0.00416736
0.0039412
0.00371519
0.00348931
0.00326355
0.00303792
0.0028124
0.00258699
0.00236168
0.00213647
0.00191134
0.00168629
0.00146131
0.00123639
0.00101152
0.000786694
0.0005619
0.000337131
0.000112375
0.00011986
0.000359584
0.000599326
0.000839095
0.0010789
0.00131876
0.00155868
0.00179867
0.00203874
0.0022789
0.00251916
0.00275954
0.00300004
0.00324067
0.00348144
0.00372235
0.00396343
0.00420467
0.00444609
0.00468768
0.00492946
0.00517144
0.00541362
0.005656
0.00589859
0.00614139
0.00638441
0.00662765
0.00687111
0.0071148
0.0073587
0.00760284
0.00784719
0.00809176
0.00833655
0.00858156
0.00882677
0.00907219
0.0093178
0.0095636
0.00980957
0.0100557
0.010302
0.0105485
0.010795
0.0110417
0.0112885
0.0115354
0.0117823
0.0120292
0.0122762
0.0125231
0.01277
0.0130168
0.0132636
0.0135102
0.0137566
0.0140028
0.0142488
0.0144945
0.0147399
0.0149849
0.0152295
0.0154736
0.0157172
0.0159602
0.0162026
0.0164443
0.0166853
0.0169255
0.0171648
0.0174031
0.0176404
0.0178767
0.0181117
0.0183456
0.0185781
0.0188092
0.0190388
0.0192668
0.0194932
0.0197178
0.0199405
0.0201613
0.02038
0.0205966
0.0208109
0.0210228
0.0212323
0.0214392
0.0216434
0.0218448
0.0220432
0.0222387
0.0224309
0.0226199
0.0228056
0.0229877
0.0231661
0.0233409
0.0235117
0.0236786
0.0238414
0.0239999
0.0241541
0.0243038
0.0244489
0.0245894
0.024725
0.0248557
0.0249814
0.0251019
0.0252172
0.0253271
0.0254316
0.0255306
0.0256239
0.0257116
0.0257934
0.0258693
0.0259393
0.0260032
0.026061
0.0261127
0.0261582
0.0261974
0.0262304
0.0262569
0.0262771
0.0262909
0.0262983
0.0262992
0.0262937
0.0262817
0.0262633
0.0262384
0.0262071
0.0261694
0.0261254
0.0260749
0.0260182
0.0259552
0.025886
0.0258107
0.0257292
0.0256418
0.0255483
0.025449
0.0253439
0.025233
0.0251165
0.0249945
0.024867
0.0247342
0.0245962
0.024453
0.0243047
0.0241516
0.0239936
0.023831
0.0236637
0.023492
0.023316
0.0231357
0.0229514
0.022763
0.0225708
0.0223748
0.0221752
0.0219722
0.0217657
0.0215559
0.0213431
0.0211272
0.0209083
0.0206867
0.0204624
0.0202356
0.0200062
0.0197745
0.0195406
0.0193045
0.0190664
0.0188263
0.0185844
0.0183407
0.0180954
0.0178485
0.0176001
0.0173504
0.0170993
0.016847
0.0165936
0.016339
0.0160835
0.0158271
0.0155697
0.0153116
0.0150528
0.0147932
0.0145331
0.0142724
0.0140112
0.0137495
0.0134874
0.013225
0.0129622
0.0126992
0.0124359
0.0121725
0.0119088
0.0116451
0.0113812
0.0111173
0.0108533
0.0105893
0.0103253
0.0100613
0.00979744
0.00953359
0.00926983
0.00900616
0.00874261
0.00847919
0.0082159
0.00795275
0.00768976
0.00742693
0.00716426
0.00690177
0.00663944
0.0063773
0.00611533
0.00585354
0.00559192
0.00533048
0.00506921
0.00480811
0.00454718
0.0042864
0.00402578
0.00376531
0.00350498
0.00324479
0.00298472
0.00272477
0.00246493
0.00220519
0.00194554
0.00168596
0.00142646
0.00116703
0.000907635
0.000648283
0.000388959
0.000129651
0.000135824
0.000407479
0.000679153
0.000950858
0.00122261
0.00149441
0.00176629
0.00203824
0.00231029
0.00258244
0.00285471
0.00312711
0.00339965
0.00367233
0.00394518
0.00421819
0.00449139
0.00476477
0.00503836
0.00531214
0.00558614
0.00586037
0.00613482
0.0064095
0.00668442
0.00695959
0.00723501
0.00751067
0.00778659
0.00806277
0.0083392
0.00861588
0.00889282
0.00917002
0.00944746
0.00972514
0.0100031
0.0102812
0.0105596
0.0108382
0.011117
0.011396
0.0116752
0.0119545
0.012234
0.0125137
0.0127934
0.0130732
0.0133531
0.0136331
0.013913
0.014193
0.0144729
0.0147527
0.0150325
0.015312
0.0155914
0.0158706
0.0161495
0.0164281
0.0167063
0.0169841
0.0172615
0.0175383
0.0178146
0.0180902
0.0183651
0.0186392
0.0189125
0.0191849
0.0194563
0.0197266
0.0199958
0.0202637
0.0205304
0.0207956
0.0210594
0.0213216
0.0215821
0.0218408
0.0220976
0.0223524
0.0226052
0.0228557
0.0231039
0.0233496
0.0235928
0.0238334
0.0240711
0.0243059
0.0245377
0.0247663
0.0249915
0.0252134
0.0254316
0.0256462
0.0258569
0.0260637
0.0262663
0.0264647
0.0266587
0.0268482
0.027033
0.027213
0.0273881
0.0275581
0.027723
0.0278825
0.0280365
0.028185
0.0283277
0.0284646
0.0285956
0.0287205
0.0288392
0.0289517
0.0290577
0.0291573
0.0292502
0.0293365
0.029416
0.0294887
0.0295544
0.0296132
0.0296648
0.0297094
0.0297469
0.0297771
0.0298
0.0298157
0.0298241
0.0298252
0.029819
0.0298054
0.0297845
0.0297562
0.0297207
0.0296779
0.0296279
0.0295706
0.0295062
0.0294347
0.0293561
0.0292705
0.029178
0.0290786
0.0289725
0.0288597
0.0287403
0.0286144
0.0284821
0.0283435
0.0281988
0.0280479
0.0278912
0.0277285
0.0275602
0.0273863
0.0272069
0.0270223
0.0268324
0.0266374
0.0264376
0.0262329
0.0260236
0.0258097
0.0255915
0.0253691
0.0251425
0.024912
0.0246776
0.0244396
0.024198
0.0239529
0.0237046
0.0234531
0.0231985
0.0229411
0.0226809
0.0224179
0.0221525
0.0218846
0.0216145
0.0213421
0.0210676
0.0207912
0.0205129
0.0202328
0.0199511
0.0196678
0.019383
0.0190968
0.0188093
0.0185206
0.0182308
0.01794
0.0176481
0.0173554
0.0170619
0.0167676
0.0164726
0.0161769
0.0158807
0.015584
0.0152869
0.0149893
0.0146914
0.0143932
0.0140947
0.013796
0.0134971
0.0131981
0.0128989
0.0125997
0.0123005
0.0120012
0.0117019
0.0114027
0.0111036
0.0108045
0.0105055
0.0102067
0.00990793
0.00960935
0.00931092
0.00901267
0.00871459
0.00841669
0.00811899
0.00782149
0.00752418
0.00722708
0.00693018
0.00663348
0.00633699
0.0060407
0.0057446
0.0054487
0.00515299
0.00485746
0.00456211
0.00426693
0.00397191
0.00367705
0.00338233
0.00308775
0.00279329
0.00249894
0.0022047
0.00191055
0.00161648
0.00132248
0.00102854
0.000734638
0.00044077
0.000146921
0.000151782
0.000455354
0.000758948
0.00106258
0.00136625
0.00167
0.00197382
0.00227773
0.00258174
0.00288587
0.00319014
0.00349454
0.00379911
0.00410384
0.00440875
0.00471385
0.00501916
0.00532468
0.00563042
0.00593639
0.0062426
0.00654907
0.00685578
0.00716277
0.00747002
0.00777754
0.00808535
0.00839344
0.00870182
0.00901048
0.00931943
0.00962867
0.0099382
0.010248
0.0105581
0.0108685
0.0111791
0.01149
0.0118012
0.0121126
0.0124243
0.0127361
0.0130482
0.0133605
0.0136729
0.0139855
0.0142982
0.0146111
0.014924
0.0152369
0.0155499
0.0158629
0.0161759
0.0164887
0.0168015
0.0171141
0.0174265
0.0177387
0.0180505
0.0183621
0.0186732
0.0189839
0.019294
0.0196036
0.0199126
0.0202208
0.0205283
0.0208349
0.0211406
0.0214452
0.0217488
0.0220512
0.0223524
0.0226521
0.0229505
0.0232472
0.0235423
0.0238357
0.0241271
0.0244166
0.024704
0.0249892
0.025272
0.0255524
0.0258302
0.0261052
0.0263775
0.0266467
0.0269128
0.0271757
0.0274351
0.027691
0.0279432
0.0281916
0.028436
0.0286763
0.0289122
0.0291438
0.0293707
0.0295929
0.0298101
0.0300224
0.0302294
0.030431
0.0306272
0.0308177
0.0310023
0.031181
0.0313536
0.03152
0.0316799
0.0318333
0.0319801
0.0321201
0.0322531
0.0323791
0.032498
0.0326096
0.0327137
0.0328105
0.0328996
0.032981
0.0330548
0.0331206
0.0331786
0.0332286
0.0332706
0.0333045
0.0333302
0.0333479
0.0333573
0.0333585
0.0333516
0.0333364
0.033313
0.0332814
0.0332416
0.0331936
0.0331376
0.0330734
0.0330013
0.0329211
0.0328331
0.0327372
0.0326336
0.0325223
0.0324034
0.032277
0.0321432
0.0320022
0.031854
0.0316987
0.0315366
0.0313676
0.031192
0.0310098
0.0308213
0.0306265
0.0304256
0.0302187
0.0300061
0.0297877
0.0295639
0.0293347
0.0291003
0.0288609
0.0286165
0.0283674
0.0281138
0.0278557
0.0275933
0.0273268
0.0270563
0.026782
0.026504
0.0262225
0.0259376
0.0256494
0.0253581
0.0250639
0.0247668
0.0244671
0.0241647
0.0238599
0.0235528
0.0232435
0.0229321
0.0226188
0.0223036
0.0219866
0.021668
0.0213479
0.0210263
0.0207034
0.0203792
0.0200538
0.0197274
0.0194
0.0190717
0.0187426
0.0184126
0.018082
0.0177508
0.017419
0.0170867
0.016754
0.0164208
0.0160874
0.0157536
0.0154197
0.0150855
0.0147512
0.0144167
0.0140822
0.0137477
0.0134131
0.0130786
0.0127441
0.0124096
0.0120753
0.0117411
0.011407
0.0110731
0.0107394
0.0104058
0.0100724
0.00973923
0.00940627
0.00907353
0.00874101
0.00840872
0.00807666
0.00774483
0.00741323
0.00708186
0.00675072
0.0064198
0.0060891
0.00575862
0.00542835
0.00509827
0.00476839
0.00443869
0.00410917
0.0037798
0.0034506
0.00312153
0.00279259
0.00246377
0.00213505
0.00180643
0.00147788
0.0011494
0.000820961
0.000492563
0.000164185
0.000167734
0.000503209
0.000838708
0.00117425
0.00150984
0.0018455
0.00218125
0.00251711
0.00285307
0.00318917
0.00352542
0.00386182
0.0041984
0.00453517
0.00487213
0.00520931
0.00554672
0.00588436
0.00622225
0.0065604
0.00689881
0.00723751
0.00757649
0.00791576
0.00825534
0.00859522
0.00893541
0.00927592
0.00961675
0.0099579
0.0102994
0.0106412
0.0109833
0.0113257
0.0116685
0.0120116
0.0123549
0.0126986
0.0130426
0.0133868
0.0137313
0.0140761
0.014421
0.0147662
0.0151116
0.0154572
0.0158029
0.0161488
0.0164948
0.0168408
0.0171868
0.0175329
0.0178789
0.0182249
0.0185707
0.0189164
0.0192618
0.019607
0.0199519
0.0202964
0.0206405
0.0209841
0.0213271
0.0216696
0.0220113
0.0223522
0.0226923
0.0230315
0.0233697
0.0237067
0.0240426
0.0243771
0.0247103
0.025042
0.0253721
0.0257005
0.026027
0.0263516
0.0266742
0.0269946
0.0273127
0.0276283
0.0279413
0.0282517
0.0285592
0.0288637
0.0291651
0.0294632
0.0297578
0.0300488
0.0303361
0.0306195
0.0308988
0.0311739
0.0314445
0.0317106
0.031972
0.0322284
0.0324798
0.032726
0.0329667
0.0332018
0.0334312
0.0336546
0.0338719
0.034083
0.0342876
0.0344857
0.034677
0.0348613
0.0350386
0.0352087
0.0353714
0.0355265
0.035674
0.0358137
0.0359455
0.0360692
0.0361848
0.036292
0.0363908
0.0364812
0.0365629
0.036636
0.0367003
0.0367558
0.0368023
0.03684
0.0368686
0.0368882
0.0368987
0.0369001
0.0368924
0.0368756
0.0368497
0.0368147
0.0367706
0.0367175
0.0366554
0.0365843
0.0365043
0.0364155
0.036318
0.0362117
0.0360968
0.0359735
0.0358417
0.0357017
0.0355534
0.0353971
0.0352329
0.0350609
0.0348812
0.0346939
0.0344993
0.0342975
0.0340886
0.0338728
0.0336502
0.033421
0.0331854
0.0329436
0.0326956
0.0324417
0.0321821
0.0319169
0.0316463
0.0313704
0.0310895
0.0308036
0.0305131
0.030218
0.0299185
0.0296147
0.029307
0.0289953
0.0286798
0.0283608
0.0280384
0.0277127
0.0273839
0.0270521
0.0267174
0.0263801
0.0260402
0.0256979
0.0253533
0.0250066
0.0246578
0.0243071
0.0239546
0.0236004
0.0232446
0.0228873
0.0225287
0.0221688
0.0218077
0.0214456
0.0210824
0.0207183
0.0203534
0.0199878
0.0196214
0.0192545
0.018887
0.018519
0.0181506
0.0177819