/*--------------------------------*- C++ -*----------------------------------*\
| =========                 |                                                 |
| \\      /  F ield         | OpenFOAM: The Open Source CFD Toolbox           |
|  \\    /   O peration     | Version:  v2012                                 |
|   \\  /    A nd           | Website:  www.openfoam.com                      |
|    \\/     M anipulation  |                                                 |
\*---------------------------------------------------------------------------*/
FoamFile
{
    version     2.0;
    format      ascii;
    class       volVectorField;
    location    "70";
    object      Usup;
}
// * * * * * * * * * * * * * * * * * * * * * * * * * * * * * * * * * * * * * //

dimensions      [0 1 -1 0 0 0 0];


internalField   nonuniform List<vector> 
4000
(
(0.00283246 -0.000379615 0)
(0.00251146 -0.00250807 0)
(0.00117873 -0.00437106 0)
(0.00829276 -0.00275609 0)
(0.01317 -0.00461318 0)
(0.00835608 -0.00452531 0)
(-0.00163717 -0.0099151 0)
(-0.0136587 -0.0110859 0)
(-0.019158 -0.00711117 0)
(-0.0139362 0.0030096 0)
(-0.00399449 0.008531 0)
(-0.00305935 0.00493929 0)
(-0.00785526 0.00287816 0)
(-0.00379813 0.0052156 0)
(-0.00133754 -0.00281049 0)
(-0.014393 -0.00939448 0)
(-0.0244617 -0.00311918 0)
(-0.0202962 0.00134844 0)
(-0.00978763 0.00584628 0)
(-0.00259431 0.00567884 0)
(-0.00762057 0.00546238 0)
(-0.0189759 0.00618568 0)
(-0.0218004 0.0119001 0)
(-0.0149665 0.0119678 0)
(-0.0109701 0.0120123 0)
(-0.0100438 0.00698445 0)
(-0.00506795 0.0100167 0)
(0.00523002 0.00872261 0)
(0.0188427 0.0108771 0)
(0.0311237 0.00433804 0)
(0.0286752 -0.00507725 0)
(0.0169102 -0.00343273 0)
(0.011626 0.00624572 0)
(0.0119553 0.00976148 0)
(0.0119218 0.00752104 0)
(0.0160383 0.0103722 0)
(0.0268788 0.00646678 0)
(0.0297348 -0.00717779 0)
(0.0177299 -0.0147994 0)
(0.00486968 -0.0135549 0)
(-0.0073124 -0.0131927 0)
(-0.0215465 -0.0137234 0)
(-0.0218415 -0.0133781 0)
(-0.00861627 -0.0128851 0)
(-0.000812055 -0.0137268 0)
(-0.000649514 -0.0127355 0)
(-0.00539866 -0.0128978 0)
(-0.0118301 -0.017137 0)
(-0.0121727 -0.0153936 0)
(-0.00415192 -0.0109968 0)
(0.000607579 -0.00989333 0)
(-0.00173367 -0.0122989 0)
(-0.0069496 -0.0121486 0)
(-0.00909302 -0.00843689 0)
(-0.00600316 -0.00904691 0)
(-0.00407981 -0.00682333 0)
(-0.00729486 -0.00403778 0)
(-0.0149328 -0.00218962 0)
(-0.0190314 -0.000919653 0)
(-0.0157137 0.00213821 0)
(-0.00459784 0.00424795 0)
(0.0047024 0.00535395 0)
(0.00657884 0.00423858 0)
(0.00644868 0.00179284 0)
(0.0105166 0.00147474 0)
(0.0137476 -0.00135014 0)
(0.0149968 0.00152641 0)
(0.0189391 0.0013365 0)
(0.0183257 -0.00377674 0)
(0.0127959 -0.00382078 0)
(0.0107504 -0.00186388 0)
(0.0149587 0.000359612 0)
(0.0175394 -0.00403437 0)
(0.0143564 -0.0099806 0)
(0.00614278 -0.008479 0)
(0.00186302 -0.00280705 0)
(0.00359425 -0.00105368 0)
(0.0060179 0.00138699 0)
(0.00346575 -0.000447096 0)
(-0.00245376 -0.00182431 0)
(-0.0113369 -0.00794648 0)
(-0.0194667 -0.00240347 0)
(-0.0192357 0.0047841 0)
(-0.0206863 0.00752491 0)
(-0.0275148 0.00511675 0)
(-0.0321048 0.00782302 0)
(-0.0344158 0.0117607 0)
(-0.0362885 0.0142353 0)
(-0.0298082 0.0199983 0)
(-0.0202031 0.0190821 0)
(-0.0117616 0.0204365 0)
(-0.00618181 0.0193521 0)
(-0.00259863 0.0199957 0)
(0.0037092 0.02067 0)
(0.00483198 0.0163498 0)
(0.00275499 0.0155962 0)
(0.00625692 0.0148934 0)
(0.0126374 0.0111823 0)
(0.0140089 0.00688407 0)
(0.00687454 0.00212929 0)
(0.00497712 -0.00182585 0)
(0.00585236 -0.0087653 0)
(0.00809276 -0.00961088 0)
(0.0211921 -0.010295 0)
(0.0280497 -0.0160985 0)
(0.0142043 -0.0172483 0)
(-0.00960651 -0.0248513 0)
(-0.028937 -0.0263677 0)
(-0.0331001 -0.0168867 0)
(-0.0227944 0.00157398 0)
(-0.0142967 0.0167979 0)
(-0.016884 0.0144459 0)
(-0.0200251 0.0138156 0)
(-0.0184308 0.0103162 0)
(-0.0234968 -0.0104716 0)
(-0.0385398 -0.0214594 0)
(-0.0503407 -0.0085189 0)
(-0.0444419 0.00752314 0)
(-0.0272995 0.0180338 0)
(-0.0168851 0.0213537 0)
(-0.0256877 0.0240642 0)
(-0.042696 0.0204632 0)
(-0.0488175 0.0276548 0)
(-0.0399379 0.0316752 0)
(-0.0334311 0.0315857 0)
(-0.0250368 0.0256629 0)
(-0.00776499 0.028779 0)
(0.0170672 0.0255618 0)
(0.0447239 0.023066 0)
(0.0624371 0.0101463 0)
(0.0655201 -0.00303837 0)
(0.0575905 -0.00239135 0)
(0.0470978 0.0118522 0)
(0.0375348 0.0175594 0)
(0.0379777 0.0192774 0)
(0.04626 0.026749 0)
(0.0541741 0.0191145 0)
(0.0548349 -0.00983631 0)
(0.0399652 -0.03106 0)
(0.0149444 -0.0322153 0)
(-0.0165962 -0.038777 0)
(-0.0468971 -0.0462665 0)
(-0.0483214 -0.0448716 0)
(-0.0248225 -0.039934 0)
(-0.00805844 -0.0399803 0)
(-0.00631662 -0.0425674 0)
(-0.0195259 -0.0401253 0)
(-0.0303887 -0.0446726 0)
(-0.0243291 -0.0441706 0)
(-0.00966736 -0.038542 0)
(-0.00509695 -0.0355796 0)
(-0.00987244 -0.0355008 0)
(-0.0154595 -0.0321016 0)
(-0.0205782 -0.0226761 0)
(-0.0168267 -0.0201963 0)
(-0.0116683 -0.017688 0)
(-0.0191936 -0.0159686 0)
(-0.0353213 -0.0156755 0)
(-0.041895 -0.0112699 0)
(-0.0328747 0.00186759 0)
(-0.0103634 0.0140069 0)
(0.00852295 0.0181167 0)
(0.0134921 0.0157464 0)
(0.0171709 0.0112046 0)
(0.026475 0.00533596 0)
(0.0369945 -0.0023808 0)
(0.0434958 -0.000524201 0)
(0.0453406 -0.000548834 0)
(0.0442439 -0.00608425 0)
(0.0391821 -0.00811505 0)
(0.0367112 -0.00767912 0)
(0.0389458 -0.00526289 0)
(0.0366846 -0.0105685 0)
(0.0332665 -0.0190554 0)
(0.024592 -0.0179894 0)
(0.0145349 -0.0101614 0)
(0.0131649 -0.00571944 0)
(0.0128094 -0.00136137 0)
(0.00264371 -0.00887112 0)
(-0.0156001 -0.0103431 0)
(-0.031521 -0.0172994 0)
(-0.0406297 -0.00386495 0)
(-0.0467485 0.0119303 0)
(-0.0599805 0.0217179 0)
(-0.075053 0.0210246 0)
(-0.0813826 0.0224705 0)
(-0.0870791 0.0296376 0)
(-0.087464 0.0402517 0)
(-0.0749595 0.0559918 0)
(-0.0556083 0.0627093 0)
(-0.0345539 0.0664899 0)
(-0.0193618 0.0616893 0)
(-0.00641213 0.0618555 0)
(0.00472914 0.0608697 0)
(0.00883572 0.055735 0)
(0.0108443 0.0489678 0)
(0.0173723 0.0419344 0)
(0.0278542 0.0312504 0)
(0.0295576 0.0209529 0)
(0.0143049 0.00802704 0)
(0.00551608 -0.00554256 0)
(0.0112333 -0.017774 0)
(0.0161955 -0.0189025 0)
(0.0277245 -0.0177705 0)
(0.0354149 -0.0234503 0)
(0.0179395 -0.0333333 0)
(-0.0138004 -0.0364778 0)
(-0.0364133 -0.0353606 0)
(-0.0391166 -0.0207675 0)
(-0.024912 -0.00111237 0)
(-0.0181437 0.015648 0)
(-0.0255656 0.0161941 0)
(-0.0348025 0.0168968 0)
(-0.0438473 0.0106522 0)
(-0.0500393 -0.0116019 0)
(-0.0573607 -0.0211018 0)
(-0.0625358 -0.0106305 0)
(-0.0561794 0.0111796 0)
(-0.040317 0.0310794 0)
(-0.0289856 0.0418325 0)
(-0.0453352 0.0479646 0)
(-0.0676373 0.040372 0)
(-0.068643 0.0421915 0)
(-0.0573277 0.0466958 0)
(-0.0493079 0.0434556 0)
(-0.0349097 0.046643 0)
(-0.00997499 0.0504153 0)
(0.0227117 0.0438527 0)
(0.0592798 0.0299504 0)
(0.0866152 0.0145681 0)
(0.0950364 0.00451064 0)
(0.0891457 0.00629063 0)
(0.0774044 0.0144882 0)
(0.0662981 0.0214963 0)
(0.0692635 0.0307971 0)
(0.0747714 0.0346342 0)
(0.0715046 0.0258941 0)
(0.0633417 -0.00239408 0)
(0.0488685 -0.0306362 0)
(0.0161481 -0.0478023 0)
(-0.0315796 -0.0675124 0)
(-0.0662403 -0.0817948 0)
(-0.0618348 -0.0778248 0)
(-0.0342563 -0.0663004 0)
(-0.0191312 -0.0659353 0)
(-0.0152088 -0.0730348 0)
(-0.0281632 -0.0756608 0)
(-0.0444961 -0.0746562 0)
(-0.0371498 -0.0705079 0)
(-0.0169676 -0.0625111 0)
(-0.00907377 -0.0577751 0)
(-0.013455 -0.0547389 0)
(-0.0189954 -0.0505473 0)
(-0.0257062 -0.0397453 0)
(-0.0258088 -0.0274931 0)
(-0.0240464 -0.0263966 0)
(-0.0353365 -0.0289302 0)
(-0.0518241 -0.0265975 0)
(-0.050775 -0.0173888 0)
(-0.03277 0.00210164 0)
(-0.00737225 0.022015 0)
(0.01144 0.0229718 0)
(0.0182758 0.0218864 0)
(0.0229209 0.020314 0)
(0.0346134 0.0115594 0)
(0.0524492 0.0045936 0)
(0.0656708 0.00399212 0)
(0.0702371 -0.000270897 0)
(0.0674805 -0.00681306 0)
(0.0595445 -0.0161309 0)
(0.0574184 -0.0202091 0)
(0.0604938 -0.0210918 0)
(0.0556647 -0.0215525 0)
(0.0491186 -0.0201451 0)
(0.0382761 -0.0199647 0)
(0.0259636 -0.0155056 0)
(0.0220209 -0.0139841 0)
(0.013223 -0.0107004 0)
(-0.00309258 -0.0192096 0)
(-0.0250424 -0.0212439 0)
(-0.0439102 -0.0196897 0)
(-0.0541137 -0.00795565 0)
(-0.0661569 0.0121264 0)
(-0.0893551 0.0303478 0)
(-0.116184 0.0400912 0)
(-0.125776 0.041837 0)
(-0.126462 0.0500675 0)
(-0.120558 0.0661938 0)
(-0.102241 0.0885238 0)
(-0.0791245 0.102974 0)
(-0.0565542 0.108147 0)
(-0.0346793 0.108078 0)
(-0.0125735 0.108648 0)
(0.00529836 0.100345 0)
(0.0110303 0.0939174 0)
(0.012537 0.0827652 0)
(0.0229632 0.0696858 0)
(0.0383055 0.0567111 0)
(0.0405307 0.0379293 0)
(0.0176195 0.0143825 0)
(0.00554776 -0.00900642 0)
(0.0148548 -0.0291466 0)
(0.0274828 -0.0317944 0)
(0.039241 -0.0301337 0)
(0.0366366 -0.0332147 0)
(0.015686 -0.0502731 0)
(-0.0146874 -0.0518646 0)
(-0.0360381 -0.0484847 0)
(-0.0353075 -0.0252932 0)
(-0.0232594 0.00167082 0)
(-0.0243159 0.0156429 0)
(-0.037077 0.0136509 0)
(-0.0467133 0.00882615 0)
(-0.0630912 0.00440789 0)
(-0.074822 -0.00543173 0)
(-0.0761361 -0.0148403 0)
(-0.0729229 -0.00947712 0)
(-0.0590592 0.0110541 0)
(-0.0432735 0.0404799 0)
(-0.0382147 0.0617297 0)
(-0.0628716 0.0697067 0)
(-0.0887919 0.0723541 0)
(-0.086836 0.0682888 0)
(-0.0753354 0.0608623 0)
(-0.0604483 0.051734 0)
(-0.0356164 0.0577506 0)
(-0.00999131 0.064433 0)
(0.0217873 0.0609556 0)
(0.0638242 0.0442558 0)
(0.0997166 0.0245686 0)
(0.118896 0.013802 0)
(0.1191 0.0157866 0)
(0.107175 0.0218741 0)
(0.0966174 0.0313247 0)
(0.0958066 0.0393515 0)
(0.0949055 0.035235 0)
(0.0834516 0.0250779 0)
(0.0658908 -0.00169705 0)
(0.0435626 -0.0308313 0)
(0.00323608 -0.0663257 0)
(-0.0481698 -0.0905623 0)
(-0.0784053 -0.104979 0)
(-0.06618 -0.105405 0)
(-0.039987 -0.098574 0)
(-0.030889 -0.101148 0)
(-0.0300967 -0.102568 0)
(-0.0405378 -0.108574 0)
(-0.0502926 -0.104635 0)
(-0.0388368 -0.0935352 0)
(-0.01901 -0.0846038 0)
(-0.0145071 -0.078703 0)
(-0.0205524 -0.076264 0)
(-0.0239242 -0.0655278 0)
(-0.025536 -0.0496273 0)
(-0.0291324 -0.0331996 0)
(-0.0357429 -0.030778 0)
(-0.0461203 -0.0318691 0)
(-0.0585092 -0.0273431 0)
(-0.0531583 -0.014035 0)
(-0.0292408 0.00672795 0)
(-0.00673603 0.0230181 0)
(0.0109047 0.0246729 0)
(0.0245565 0.0244803 0)
(0.0307685 0.0252892 0)
(0.0443457 0.0171342 0)
(0.0681584 0.0156466 0)
(0.0821957 0.0144991 0)
(0.0836275 0.00401312 0)
(0.0789713 -0.0114138 0)
(0.0727405 -0.0251295 0)
(0.0743362 -0.0318385 0)
(0.0791192 -0.0372737 0)
(0.0767674 -0.0375248 0)
(0.0675367 -0.0277375 0)
(0.0515085 -0.022033 0)
(0.0341546 -0.0186709 0)
(0.0265627 -0.020308 0)
(0.0134388 -0.0216413 0)
(-0.00972454 -0.0254683 0)
(-0.0337592 -0.0285472 0)
(-0.0551497 -0.0231204 0)
(-0.0650371 -0.0149097 0)
(-0.0767475 0.0089116 0)
(-0.106924 0.0325269 0)
(-0.143932 0.0520676 0)
(-0.158748 0.0658098 0)
(-0.156764 0.0759569 0)
(-0.143826 0.0939071 0)
(-0.121586 0.118422 0)
(-0.0984865 0.136218 0)
(-0.0704012 0.145269 0)
(-0.0422047 0.152495 0)
(-0.0207255 0.152357 0)
(-0.00147309 0.142404 0)
(0.0105084 0.126557 0)
(0.0156073 0.116417 0)
(0.0299656 0.102614 0)
(0.0451045 0.0842229 0)
(0.0430002 0.0553276 0)
(0.0175183 0.0200561 0)
(0.00297774 -0.011447 0)
(0.01798 -0.0356257 0)
(0.0373224 -0.0400234 0)
(0.047085 -0.0421409 0)
(0.0374218 -0.05405 0)
(0.0134002 -0.0712349 0)
(-0.0139857 -0.0748801 0)
(-0.0289902 -0.0641362 0)
(-0.0213177 -0.0350209 0)
(-0.0159012 -0.00867439 0)
(-0.029662 0.00383992 0)
(-0.0507921 0.00718851 0)
(-0.0631365 0.0112074 0)
(-0.0778326 0.00631342 0)
(-0.0915305 0.00315411 0)
(-0.0938101 -0.00944327 0)
(-0.0816361 -0.00749828 0)
(-0.0577156 0.0163315 0)
(-0.0382982 0.0466817 0)
(-0.040304 0.0714372 0)
(-0.0708578 0.0828599 0)
(-0.103742 0.093825 0)
(-0.111213 0.0915083 0)
(-0.0985284 0.0778456 0)
(-0.0726803 0.066685 0)
(-0.0364571 0.0713204 0)
(-0.00552452 0.0715049 0)
(0.02523 0.0711051 0)
(0.0649999 0.0594503 0)
(0.107928 0.038407 0)
(0.136664 0.0286765 0)
(0.142134 0.0271697 0)
(0.133637 0.0286652 0)
(0.122889 0.0343186 0)
(0.116267 0.0400667 0)
(0.109832 0.0345209 0)
(0.0902289 0.0210595 0)
(0.0633324 -0.0105478 0)
(0.0309385 -0.0445455 0)
(-0.0136917 -0.0810216 0)
(-0.0617322 -0.102117 0)
(-0.0912909 -0.116517 0)
(-0.0767476 -0.125861 0)
(-0.0500728 -0.135439 0)
(-0.0388591 -0.143286 0)
(-0.0370732 -0.138735 0)
(-0.0477368 -0.13235 0)
(-0.0533639 -0.124282 0)
(-0.0422332 -0.109369 0)
(-0.0237155 -0.103359 0)
(-0.0188683 -0.0981695 0)
(-0.0200581 -0.0868735 0)
(-0.0174933 -0.0694728 0)
(-0.0215808 -0.0470702 0)
(-0.0323466 -0.0346186 0)
(-0.0444799 -0.031012 0)
(-0.0562336 -0.0277883 0)
(-0.0639856 -0.0190375 0)
(-0.0499831 -0.00735075 0)
(-0.024127 0.00423095 0)
(-0.00320139 0.0171641 0)
(0.0139844 0.0257654 0)
(0.0292689 0.0281129 0)
(0.0357391 0.0296678 0)
(0.0528061 0.0327914 0)
(0.0819038 0.0328124 0)
(0.0932051 0.0216361 0)
(0.0903147 0.0057311 0)
(0.0858091 -0.0174088 0)
(0.0829653 -0.0337947 0)
(0.0853697 -0.0478307 0)
(0.0918747 -0.0535539 0)
(0.0956211 -0.0531477 0)
(0.0882882 -0.0402195 0)
(0.0656488 -0.028481 0)
(0.0410163 -0.0234874 0)
(0.0276288 -0.0249327 0)
(0.0108466 -0.0280626 0)
(-0.0152294 -0.0304112 0)
(-0.041238 -0.0335599 0)
(-0.0639895 -0.0298127 0)
(-0.0722094 -0.0180428 0)
(-0.082423 0.00366901 0)
(-0.117022 0.0287305 0)
(-0.158465 0.0585983 0)
(-0.180031 0.0851999 0)
(-0.179032 0.0990127 0)
(-0.159295 0.121043 0)
(-0.132445 0.145442 0)
(-0.108083 0.167041 0)
(-0.0790323 0.18097 0)
(-0.0498244 0.191198 0)
(-0.0271563 0.191218 0)
(-0.00872791 0.18277 0)
(0.00724406 0.164833 0)
(0.0195202 0.152561 0)
(0.0332318 0.13713 0)
(0.0462819 0.108614 0)
(0.0425906 0.0714111 0)
(0.0154054 0.0247664 0)
(0.00278097 -0.0157397 0)
(0.0218257 -0.0342974 0)
(0.0469012 -0.0475259 0)
(0.0495018 -0.0601233 0)
(0.0310351 -0.073953 0)
(0.00929619 -0.08968 0)
(-0.00891042 -0.0999826 0)
(-0.0142795 -0.0741599 0)
(-0.00797719 -0.0446234 0)
(-0.0111207 -0.0276362 0)
(-0.0302112 -0.0189429 0)
(-0.0502002 -0.00711496 0)
(-0.0674726 0.00971514 0)
(-0.0912979 0.0074109 0)
(-0.111864 0.00109998 0)
(-0.113403 -0.00267122 0)
(-0.0863855 0.00543246 0)
(-0.0521796 0.0292846 0)
(-0.0344063 0.056942 0)
(-0.041885 0.0765909 0)
(-0.0763197 0.0846521 0)
(-0.112149 0.0924486 0)
(-0.126402 0.095553 0)
(-0.116859 0.0885178 0)
(-0.081656 0.086162 0)
(-0.0396477 0.0897985 0)
(-0.00702093 0.0865765 0)
(0.0279409 0.0841226 0)
(0.0662027 0.0746032 0)
(0.112218 0.0576055 0)
(0.150266 0.0402606 0)
(0.159682 0.0362848 0)
(0.152513 0.0369234 0)
(0.144603 0.0456652 0)
(0.135483 0.0475789 0)
(0.120388 0.0373718 0)
(0.0883287 0.0103453 0)
(0.0508689 -0.023878 0)
(0.0161034 -0.0611407 0)
(-0.02618 -0.0912324 0)
(-0.072992 -0.11111 0)
(-0.103954 -0.125693 0)
(-0.093418 -0.136613 0)
(-0.0675848 -0.162281 0)
(-0.0480608 -0.176086 0)
(-0.0371336 -0.174903 0)
(-0.0460773 -0.160168 0)
(-0.0506268 -0.139293 0)
(-0.0407439 -0.11768 0)
(-0.0271448 -0.10906 0)
(-0.0179831 -0.102138 0)
(-0.0152659 -0.0864763 0)
(-0.01146 -0.0691025 0)
(-0.0177268 -0.0456321 0)
(-0.0358572 -0.0323938 0)
(-0.049987 -0.0276321 0)
(-0.0574679 -0.0202401 0)
(-0.0639065 -0.00405401 0)
(-0.0547149 0.00646575 0)
(-0.0251982 0.00910727 0)
(0.00227407 0.0141279 0)
(0.0201869 0.0219875 0)
(0.0362393 0.0298291 0)
(0.0497907 0.0367557 0)
(0.0683095 0.0498053 0)
(0.0867767 0.0476626 0)
(0.0930771 0.0269676 0)
(0.0882552 0.00277625 0)
(0.0840842 -0.0215594 0)
(0.0839711 -0.0457875 0)
(0.0921668 -0.0700954 0)
(0.105874 -0.0707236 0)
(0.114452 -0.0598947 0)
(0.109159 -0.0534629 0)
(0.0816367 -0.0451941 0)
(0.0486075 -0.0353401 0)
(0.029124 -0.0308813 0)
(0.00891152 -0.0328919 0)
(-0.0219791 -0.0325486 0)
(-0.0506425 -0.0357179 0)
(-0.0709025 -0.0367938 0)
(-0.0770192 -0.0234159 0)
(-0.0871569 -0.00434379 0)
(-0.118313 0.0246555 0)
(-0.159827 0.064657 0)
(-0.18995 0.0976202 0)
(-0.191803 0.122271 0)
(-0.167879 0.146152 0)
(-0.13887 0.171816 0)
(-0.113338 0.191662 0)
(-0.0818442 0.212521 0)
(-0.0516895 0.226113 0)
(-0.0320335 0.225961 0)
(-0.0146784 0.217874 0)
(0.00494217 0.202669 0)
(0.0217863 0.188841 0)
(0.0340777 0.167147 0)
(0.0429224 0.131685 0)
(0.0366272 0.0839945 0)
(0.0113064 0.0274062 0)
(0.00720327 -0.0176998 0)
(0.0270238 -0.0335187 0)
(0.0448229 -0.0530082 0)
(0.0490189 -0.0768469 0)
(0.0315814 -0.0955117 0)
(0.00375346 -0.107216 0)
(-0.000100602 -0.111681 0)
(0.00753788 -0.0864865 0)
(0.00349392 -0.0609707 0)
(-0.00980654 -0.0479705 0)
(-0.029441 -0.0384249 0)
(-0.0462654 -0.0184373 0)
(-0.0708287 -0.000409441 0)
(-0.104694 -0.001325 0)
(-0.122081 -0.00350179 0)
(-0.116559 0.00322506 0)
(-0.0861451 0.021079 0)
(-0.0484894 0.039263 0)
(-0.0316141 0.0627182 0)
(-0.0471138 0.0730824 0)
(-0.0855909 0.0798179 0)
(-0.12102 0.0942865 0)
(-0.137046 0.102441 0)
(-0.124199 0.104425 0)
(-0.0845405 0.108422 0)
(-0.0414285 0.106178 0)
(-0.00617445 0.0994487 0)
(0.0293684 0.0906193 0)
(0.0673272 0.0818364 0)
(0.111502 0.077947 0)
(0.154084 0.0584413 0)
(0.1746 0.0455917 0)
(0.175875 0.0478227 0)
(0.165969 0.0566237 0)
(0.145093 0.0560488 0)
(0.116558 0.0397651 0)
(0.0771591 0.00497383 0)
(0.0382972 -0.0280723 0)
(0.00194039 -0.0675896 0)
(-0.0385754 -0.0987886 0)
(-0.0840132 -0.119521 0)
(-0.114322 -0.133654 0)
(-0.112718 -0.147106 0)
(-0.090531 -0.178452 0)
(-0.0606457 -0.196814 0)
(-0.0387098 -0.199261 0)
(-0.0358472 -0.180348 0)
(-0.0372047 -0.14741 0)
(-0.0353042 -0.124354 0)
(-0.0272919 -0.112166 0)
(-0.0169958 -0.101018 0)
(-0.0106871 -0.0808364 0)
(-0.00296821 -0.0585909 0)
(-0.0107446 -0.0388585 0)
(-0.0357673 -0.0258374 0)
(-0.0525817 -0.0167763 0)
(-0.0561103 -0.0054287 0)
(-0.0610221 0.00731433 0)
(-0.0549573 0.0187043 0)
(-0.0291958 0.0252766 0)
(0.00116057 0.0240728 0)
(0.0267796 0.025628 0)
(0.0476544 0.0356491 0)
(0.0637502 0.0462209 0)
(0.079333 0.0545128 0)
(0.0880068 0.0497012 0)
(0.0864737 0.0245853 0)
(0.083098 -0.00675715 0)
(0.0794603 -0.0301805 0)
(0.0763959 -0.0545871 0)
(0.095118 -0.0688294 0)
(0.125732 -0.0730938 0)
(0.131999 -0.0634166 0)
(0.118972 -0.0613359 0)
(0.0940924 -0.0574627 0)
(0.0614094 -0.0496211 0)
(0.0337613 -0.0420067 0)
(0.00790137 -0.0458592 0)
(-0.0259182 -0.0469854 0)
(-0.0606908 -0.0499274 0)
(-0.0793788 -0.0465855 0)
(-0.0805723 -0.0271571 0)
(-0.0861954 -0.00290462 0)
(-0.111166 0.0293505 0)
(-0.154051 0.066849 0)
(-0.18932 0.105122 0)
(-0.194894 0.140101 0)
(-0.171389 0.166978 0)
(-0.141525 0.193044 0)
(-0.11229 0.216217 0)
(-0.0778896 0.242185 0)
(-0.0534765 0.252096 0)
(-0.0359484 0.252867 0)
(-0.0179465 0.246866 0)
(0.00416363 0.234283 0)
(0.0219256 0.221009 0)
(0.0302038 0.189424 0)
(0.0349863 0.148381 0)
(0.027185 0.0925728 0)
(0.00756339 0.0313609 0)
(0.0108254 -0.0163822 0)
(0.0312662 -0.0374381 0)
(0.0433804 -0.0637057 0)
(0.0405945 -0.088692 0)
(0.0251996 -0.112602 0)
(0.00780087 -0.121816 0)
(0.0105216 -0.116383 0)
(0.0214294 -0.1054 0)
(0.0140113 -0.0844166 0)
(-0.00439231 -0.0710998 0)
(-0.0208901 -0.0519567 0)
(-0.0367169 -0.0294854 0)
(-0.0713434 -0.0134252 0)
(-0.112094 -0.0105679 0)
(-0.129235 -0.00468361 0)
(-0.118156 0.00794911 0)
(-0.0842566 0.0284661 0)
(-0.0465445 0.0456323 0)
(-0.0342855 0.0593638 0)
(-0.0533425 0.0668724 0)
(-0.0837709 0.0842225 0)
(-0.117062 0.104053 0)
(-0.138001 0.11738 0)
(-0.127686 0.12748 0)
(-0.0904056 0.130092 0)
(-0.0499112 0.117967 0)
(-0.0148774 0.101694 0)
(0.0261479 0.0849495 0)
(0.075132 0.0808354 0)
(0.119014 0.0830549 0)
(0.154364 0.0766564 0)
(0.18188 0.0689011 0)
(0.191504 0.070357 0)
(0.181661 0.0657573 0)
(0.153678 0.0559514 0)
(0.112292 0.0368176 0)
(0.0656111 0.00345654 0)
(0.0207381 -0.026462 0)
(-0.018297 -0.0706658 0)
(-0.0534939 -0.106637 0)
(-0.0945811 -0.123792 0)
(-0.12608 -0.13414 0)
(-0.132477 -0.151272 0)
(-0.112918 -0.17654 0)
(-0.0737518 -0.201558 0)
(-0.0365678 -0.210568 0)
(-0.0204615 -0.193318 0)
(-0.0226924 -0.166609 0)
(-0.0284185 -0.137989 0)
(-0.0236115 -0.107985 0)
(-0.00856893 -0.0890024 0)
(0.00212242 -0.0601971 0)
(0.00522688 -0.041818 0)
(-0.00821502 -0.0298975 0)
(-0.0344637 -0.0192454 0)
(-0.0499028 0.000494493 0)
(-0.0544155 0.0164427 0)
(-0.0598836 0.0257234 0)
(-0.0531866 0.033385 0)
(-0.0295627 0.0391817 0)
(-0.00127463 0.0396004 0)
(0.0300122 0.0329135 0)
(0.0578805 0.0412472 0)
(0.0750552 0.0542158 0)
(0.0866618 0.0617523 0)
(0.0842876 0.0519993 0)
(0.073957 0.0216504 0)
(0.0722797 -0.0112401 0)
(0.0740727 -0.0342169 0)
(0.0806199 -0.0556754 0)
(0.102741 -0.0600352 0)
(0.132413 -0.0728984 0)
(0.143207 -0.0776471 0)
(0.130312 -0.0755127 0)
(0.102927 -0.0713287 0)
(0.0680214 -0.0643551 0)
(0.0349073 -0.0592778 0)
(0.00276496 -0.0644648 0)
(-0.0335318 -0.0681044 0)
(-0.0654811 -0.0697357 0)
(-0.0760378 -0.0563101 0)
(-0.0732292 -0.0315852 0)
(-0.0796575 -0.00105316 0)
(-0.105767 0.0312153 0)
(-0.146219 0.0621416 0)
(-0.179835 0.106978 0)
(-0.1896 0.148798 0)
(-0.169406 0.183278 0)
(-0.137955 0.209512 0)
(-0.105338 0.237887 0)
(-0.0750174 0.259521 0)
(-0.053962 0.271227 0)
(-0.0361509 0.276168 0)
(-0.01857 0.273306 0)
(0.00587402 0.262738 0)
(0.0191836 0.243081 0)
(0.0220433 0.210496 0)
(0.0249479 0.163915 0)
(0.0170991 0.101302 0)
(0.00225341 0.0364574 0)
(0.0119027 -0.0161198 0)
(0.028866 -0.0451596 0)
(0.0367433 -0.0793387 0)
(0.0363137 -0.106365 0)
(0.024458 -0.121545 0)
(0.0123253 -0.131753 0)
(0.0176409 -0.123604 0)
(0.0315152 -0.121042 0)
(0.0247791 -0.107594 0)
(0.00662488 -0.0852787 0)
(-0.00901721 -0.0620931 0)
(-0.0303752 -0.0500884 0)
(-0.0714066 -0.0388282 0)
(-0.114716 -0.0230634 0)
(-0.126807 -0.00442836 0)
(-0.11221 0.0189673 0)
(-0.0796728 0.0399009 0)
(-0.0475441 0.0461407 0)
(-0.0376483 0.0516728 0)
(-0.0498591 0.0736627 0)
(-0.0782173 0.102155 0)
(-0.114981 0.118514 0)
(-0.135709 0.130144 0)
(-0.127269 0.136074 0)
(-0.0994519 0.133905 0)
(-0.0648371 0.119062 0)
(-0.0269829 0.101038 0)
(0.0236653 0.0886932 0)
(0.0813273 0.0888927 0)
(0.128608 0.083804 0)
(0.167315 0.0833915 0)
(0.195735 0.0902605 0)
(0.200383 0.0916591 0)
(0.18245 0.0766638 0)
(0.150457 0.0574171 0)
(0.103404 0.0328962 0)
(0.0538767 -0.00257703 0)
(0.00363062 -0.0338637 0)
(-0.0417512 -0.0695233 0)
(-0.0677006 -0.102374 0)
(-0.099705 -0.118567 0)
(-0.134809 -0.135462 0)
(-0.147938 -0.154849 0)
(-0.134207 -0.172162 0)
(-0.0941877 -0.196048 0)
(-0.042491 -0.207927 0)
(-0.0143797 -0.202571 0)
(-0.00811958 -0.179138 0)
(-0.00424642 -0.141227 0)
(-0.00353983 -0.0989221 0)
(0.00573419 -0.0734233 0)
(0.0114115 -0.0497872 0)
(0.0064715 -0.0328364 0)
(-0.00720028 -0.0183047 0)
(-0.026555 -0.0036746 0)
(-0.0393301 0.0209526 0)
(-0.0500355 0.0401802 0)
(-0.0599319 0.0484299 0)
(-0.0544844 0.0516579 0)
(-0.0311617 0.0541587 0)
(-0.00628658 0.0520787 0)
(0.0293317 0.0413062 0)
(0.0689473 0.0464737 0)
(0.0885606 0.057532 0)
(0.0911478 0.0630496 0)
(0.0751149 0.0545063 0)
(0.0590157 0.0248539 0)
(0.062701 -0.00833909 0)
(0.0682588 -0.0293726 0)
(0.0788568 -0.0506769 0)
(0.103132 -0.0637301 0)
(0.131989 -0.0779934 0)
(0.147088 -0.0914196 0)
(0.137706 -0.0965279 0)
(0.112818 -0.0921327 0)
(0.0767179 -0.0822343 0)
(0.0356367 -0.0803616 0)
(-0.00153175 -0.0871668 0)
(-0.0380383 -0.0844976 0)
(-0.0658586 -0.0831561 0)
(-0.0708084 -0.0662369 0)
(-0.0647698 -0.0430176 0)
(-0.0695571 -0.0140651 0)
(-0.0980245 0.0190301 0)
(-0.13425 0.0539276 0)
(-0.162586 0.103033 0)
(-0.175076 0.148316 0)
(-0.160401 0.19056 0)
(-0.130485 0.223918 0)
(-0.0984163 0.251374 0)
(-0.0687564 0.269526 0)
(-0.0481876 0.288644 0)
(-0.0323309 0.297184 0)
(-0.0162502 0.296333 0)
(0.00341511 0.284298 0)
(0.015455 0.25789 0)
(0.0152544 0.227914 0)
(0.010569 0.174717 0)
(0.00399498 0.106477 0)
(-0.00502893 0.0351017 0)
(0.0100598 -0.0169831 0)
(0.0223313 -0.0519379 0)
(0.0288896 -0.0815693 0)
(0.0335258 -0.113013 0)
(0.0244296 -0.132491 0)
(0.0184888 -0.138773 0)
(0.0252873 -0.134161 0)
(0.0352983 -0.136583 0)
(0.0382792 -0.132236 0)
(0.0236298 -0.107906 0)
(-0.00322559 -0.0797882 0)
(-0.0301436 -0.0675176 0)
(-0.0640401 -0.0585809 0)
(-0.101213 -0.0300911 0)
(-0.114408 0.001326 0)
(-0.103041 0.0220584 0)
(-0.0827421 0.0394022 0)
(-0.0568098 0.0429181 0)
(-0.0328798 0.0550332 0)
(-0.0344722 0.0829619 0)
(-0.0679853 0.112711 0)
(-0.112064 0.130781 0)
(-0.138363 0.138569 0)
(-0.135088 0.140322 0)
(-0.109188 0.136186 0)
(-0.0757966 0.123062 0)
(-0.0339426 0.107567 0)
(0.0255488 0.0990046 0)
(0.0846029 0.0973041 0)
(0.132045 0.0863883 0)
(0.179217 0.0874227 0)
(0.210068 0.0940539 0)
(0.204701 0.0911237 0)
(0.179989 0.0780852 0)
(0.144607 0.0575204 0)
(0.090153 0.0330845 0)
(0.0365093 -0.00077295 0)
(-0.0114124 -0.0417161 0)
(-0.0553439 -0.0711032 0)
(-0.080505 -0.0943271 0)
(-0.114217 -0.120064 0)
(-0.152041 -0.144848 0)
(-0.162029 -0.160766 0)
(-0.148284 -0.175223 0)
(-0.106972 -0.188412 0)
(-0.049667 -0.193687 0)
(-0.00864116 -0.195038 0)
(0.0122977 -0.166871 0)
(0.019932 -0.128061 0)
(0.0152918 -0.0942621 0)
(0.0163913 -0.0699348 0)
(0.0206126 -0.0484303 0)
(0.0168601 -0.022191 0)
(0.00162147 0.00188631 0)
(-0.0171468 0.0211638 0)
(-0.0289129 0.0394651 0)
(-0.0448235 0.0545292 0)
(-0.060909 0.0644025 0)
(-0.0566505 0.0707506 0)
(-0.034452 0.075117 0)
(-0.0128549 0.067227 0)
(0.027201 0.0587333 0)
(0.0746704 0.0576387 0)
(0.0955273 0.0514334 0)
(0.095836 0.0498208 0)
(0.0702557 0.0430864 0)
(0.0438725 0.0234853 0)
(0.0499371 -0.00203241 0)
(0.0611681 -0.0231705 0)
(0.0735797 -0.0389078 0)
(0.10021 -0.0578567 0)
(0.1283 -0.0790096 0)
(0.143883 -0.101452 0)
(0.141536 -0.109287 0)
(0.122078 -0.104505 0)
(0.0817477 -0.098567 0)
(0.0323953 -0.104418 0)
(-0.00345944 -0.11235 0)
(-0.0383513 -0.109569 0)
(-0.0645774 -0.103571 0)
(-0.0637691 -0.0870022 0)
(-0.0565383 -0.063144 0)
(-0.0595611 -0.032329 0)
(-0.0843307 0.00381957 0)
(-0.114974 0.0479862 0)
(-0.141612 0.0947339 0)
(-0.155579 0.135972 0)
(-0.141702 0.182848 0)
(-0.117082 0.224695 0)
(-0.0901696 0.254007 0)
(-0.0593132 0.277169 0)
(-0.0377322 0.296124 0)
(-0.0262881 0.306406 0)
(-0.0149039 0.305806 0)
(0.000309241 0.293459 0)
(0.010768 0.270556 0)
(0.0053412 0.234691 0)
(-0.00694465 0.178449 0)
(-0.012919 0.10823 0)
(-0.0103107 0.0310243 0)
(0.00746756 -0.0192055 0)
(0.0199959 -0.0549554 0)
(0.0229893 -0.0803547 0)
(0.0232958 -0.113222 0)
(0.0238791 -0.137654 0)
(0.0239422 -0.144071 0)
(0.0270826 -0.147948 0)
(0.03629 -0.147949 0)
(0.0453539 -0.143489 0)
(0.0414167 -0.126125 0)
(0.0141887 -0.0995554 0)
(-0.0235614 -0.081438 0)
(-0.0546376 -0.0681743 0)
(-0.0831396 -0.0367027 0)
(-0.10242 -0.00258987 0)
(-0.0993698 0.0184259 0)
(-0.0803177 0.0310295 0)
(-0.052414 0.0461483 0)
(-0.02448 0.0671342 0)
(-0.0231791 0.0887147 0)
(-0.0577779 0.113825 0)
(-0.109168 0.128554 0)
(-0.139782 0.134923 0)
(-0.137364 0.140794 0)
(-0.117132 0.142607 0)
(-0.0870197 0.136051 0)
(-0.0416564 0.12477 0)
(0.0233265 0.109922 0)
(0.0831817 0.100269 0)
(0.135846 0.0883522 0)
(0.190083 0.0841331 0)
(0.217404 0.0878002 0)
(0.208629 0.0856915 0)
(0.17806 0.0788592 0)
(0.13735 0.0572737 0)
(0.0795047 0.0298092 0)
(0.0161023 -0.00320349 0)
(-0.0333166 -0.0465342 0)
(-0.0687522 -0.0761546 0)
(-0.0954947 -0.0980108 0)
(-0.132201 -0.133157 0)
(-0.163399 -0.156764 0)
(-0.17178 -0.162217 0)
(-0.158334 -0.169689 0)
(-0.113342 -0.170119 0)
(-0.0543091 -0.171821 0)
(-0.00265351 -0.175107 0)
(0.0323592 -0.156875 0)
(0.0398217 -0.125171 0)
(0.0295066 -0.0929644 0)
(0.0294885 -0.0634721 0)
(0.0363947 -0.0312422 0)
(0.0332383 0.000156954 0)
(0.0144397 0.0251542 0)
(-0.00901348 0.043687 0)
(-0.0245099 0.0562855 0)
(-0.0407188 0.0685745 0)
(-0.0559138 0.0803863 0)
(-0.052908 0.0877278 0)
(-0.0379338 0.0887115 0)
(-0.0199558 0.0814866 0)
(0.0235014 0.0714223 0)
(0.0677354 0.0605081 0)
(0.0898144 0.0509816 0)
(0.0946128 0.0476859 0)
(0.0675766 0.0341179 0)
(0.0394098 0.0197274 0)
(0.0431554 0.00309088 0)
(0.0565031 -0.0124618 0)
(0.0687115 -0.0226751 0)
(0.0884227 -0.0505134 0)
(0.113563 -0.083073 0)
(0.136755 -0.10745 0)
(0.145167 -0.119349 0)
(0.127708 -0.114645 0)
(0.0806855 -0.114604 0)
(0.0259599 -0.126879 0)
(-0.0085883 -0.139625 0)
(-0.0387849 -0.136853 0)
(-0.0604902 -0.12135 0)
(-0.056251 -0.104807 0)
(-0.043391 -0.0818751 0)
(-0.042281 -0.0530494 0)
(-0.0633397 -0.0152879 0)
(-0.0932432 0.0310323 0)
(-0.124078 0.0734355 0)
(-0.135547 0.120482 0)
(-0.118141 0.169802 0)
(-0.0975118 0.211224 0)
(-0.0743104 0.244049 0)
(-0.0463099 0.274298 0)
(-0.0283426 0.296291 0)
(-0.0192155 0.303874 0)
(-0.0114 0.305905 0)
(0.00100441 0.29445 0)
(0.00580824 0.27268 0)
(-0.00765346 0.229979 0)
(-0.024733 0.170488 0)
(-0.0316307 0.101597 0)
(-0.0164164 0.0314419 0)
(0.0058314 -0.0197619 0)
(0.0169739 -0.0556622 0)
(0.0174454 -0.0805722 0)
(0.0159166 -0.109305 0)
(0.0202789 -0.133634 0)
(0.0241351 -0.148435 0)
(0.0309146 -0.152822 0)
(0.0428765 -0.144781 0)
(0.0550038 -0.135509 0)
(0.0535284 -0.124349 0)
(0.0246288 -0.11751 0)
(-0.0142671 -0.104631 0)
(-0.0402132 -0.0893577 0)
(-0.0636502 -0.0600074 0)
(-0.0858666 -0.0194698 0)
(-0.0913572 0.01457 0)
(-0.0760981 0.0356052 0)
(-0.0443203 0.0544465 0)
(-0.0155484 0.0738723 0)
(-0.013602 0.090081 0)
(-0.0512194 0.108759 0)
(-0.107686 0.125782 0)
(-0.138609 0.137255 0)
(-0.136285 0.143871 0)
(-0.116649 0.143159 0)
(-0.0896352 0.137179 0)
(-0.0504088 0.128763 0)
(0.0137623 0.114993 0)
(0.0782381 0.10705 0)
(0.132515 0.0975914 0)
(0.193407 0.084366 0)
(0.227421 0.0803762 0)
(0.215291 0.0763969 0)
(0.176589 0.0666662 0)
(0.125761 0.0507559 0)
(0.0620256 0.0243974 0)
(-0.00476898 -0.0108233 0)
(-0.052258 -0.0510333 0)
(-0.0829417 -0.0797583 0)
(-0.115014 -0.107586 0)
(-0.152937 -0.140178 0)
(-0.171704 -0.161058 0)
(-0.172282 -0.165169 0)
(-0.156896 -0.159266 0)
(-0.112997 -0.147111 0)
(-0.0590971 -0.148036 0)
(-0.00442878 -0.153568 0)
(0.0414694 -0.148599 0)
(0.0588185 -0.12391 0)
(0.0521595 -0.0864946 0)
(0.0530118 -0.0484472 0)
(0.0584697 -0.0102122 0)
(0.0493279 0.0295578 0)
(0.0246732 0.0537036 0)
(-0.00301055 0.0660672 0)
(-0.0189548 0.0740265 0)
(-0.034755 0.086659 0)
(-0.0534483 0.0975966 0)
(-0.0557344 0.102871 0)
(-0.0424419 0.10077 0)
(-0.026836 0.093073 0)
(0.0128545 0.0844826 0)
(0.0631408 0.0598451 0)
(0.0919525 0.0508162 0)
(0.0914452 0.0456261 0)
(0.059556 0.0272138 0)
(0.0323711 0.0154034 0)
(0.0385786 0.00729753 0)
(0.055036 -0.00203684 0)
(0.058411 -0.014104 0)
(0.0681046 -0.0442709 0)
(0.097744 -0.0768678 0)
(0.127048 -0.10407 0)
(0.144164 -0.123064 0)
(0.131163 -0.131187 0)
(0.0756719 -0.137676 0)
(0.0139498 -0.152358 0)
(-0.014036 -0.161548 0)
(-0.0315005 -0.155659 0)
(-0.0509849 -0.135761 0)
(-0.0479933 -0.118247 0)