/*--------------------------------*- C++ -*----------------------------------*\
| =========                 |                                                 |
| \\      /  F ield         | OpenFOAM: The Open Source CFD Toolbox           |
|  \\    /   O peration     | Version:  v2012                                 |
|   \\  /    A nd           | Website:  www.openfoam.com                      |
|    \\/     M anipulation  |                                                 |
\*---------------------------------------------------------------------------*/
FoamFile
{
    version     2.0;
    format      ascii;
    class       volScalarField;
    location    "2";
    object      W;
}
// * * * * * * * * * * * * * * * * * * * * * * * * * * * * * * * * * * * * * //

dimensions      [0 0 -1 0 0 0 0];


internalField   nonuniform List<scalar> 
65536
(
1.39292e-20
1.55245e-20
1.89934e-20
2.45464e-20
3.25601e-20
4.36202e-20
5.85698e-20
7.85672e-20
1.05159e-19
1.40375e-19
1.86856e-19
2.48015e-19
3.28242e-19
4.33166e-19
5.69977e-19
7.47831e-19
9.78346e-19
1.27622e-18
1.65997e-18
2.15286e-18
2.78404e-18
3.58985e-18
4.6155e-18
5.91702e-18
7.56359e-18
9.64039e-18
1.22518e-17
1.55256e-17
1.96172e-17
2.47152e-17
3.10477e-17
3.88897e-17
4.85712e-17
6.04868e-17
7.51069e-17
9.299e-17
1.14797e-16
1.41305e-16
1.7343e-16
2.12238e-16
2.58974e-16
3.15082e-16
3.82229e-16
4.62334e-16
5.57595e-16
6.70521e-16
8.03962e-16
9.61141e-16
1.14569e-15
1.36167e-15
1.61363e-15
1.9066e-15
2.24614e-15
2.63838e-15
3.09e-15
3.60826e-15
4.20102e-15
4.87672e-15
5.64437e-15
6.51352e-15
7.49423e-15
8.597e-15
9.83274e-15
1.12126e-14
1.2748e-14
1.44504e-14
1.63311e-14
1.84012e-14
2.06715e-14
2.3152e-14
2.5852e-14
2.87796e-14
3.19418e-14
3.53439e-14
3.89894e-14
4.28798e-14
4.70143e-14
5.13895e-14
5.59994e-14
6.08348e-14
6.58838e-14
7.11309e-14
7.65574e-14
8.21413e-14
8.78572e-14
9.36765e-14
9.95673e-14
1.05495e-13
1.11422e-13
1.17309e-13
1.23113e-13
1.28792e-13
1.34301e-13
1.39595e-13
1.44629e-13
1.49359e-13
1.53743e-13
1.57739e-13
1.61309e-13
1.64418e-13
1.67034e-13
1.69131e-13
1.70685e-13
1.7168e-13
1.72104e-13
1.71951e-13
1.71221e-13
1.69921e-13
1.68063e-13
1.65664e-13
1.6275e-13
1.59348e-13
1.55494e-13
1.51225e-13
1.46586e-13
1.41621e-13
1.36382e-13
1.30918e-13
1.25283e-13
1.19531e-13
1.13717e-13
1.07895e-13
1.02117e-13
9.64364e-14
9.09024e-14
8.55631e-14
8.04635e-14
7.56461e-14
7.11499e-14
6.70105e-14
6.32603e-14
5.9928e-14
5.70383e-14
5.46127e-14
5.26685e-14
5.12197e-14
5.02762e-14
4.98443e-14
4.99264e-14
5.05214e-14
5.1624e-14
5.32253e-14
5.53124e-14
5.78682e-14
6.08718e-14
6.42982e-14
6.8118e-14
7.2298e-14
7.68009e-14
8.15852e-14
8.66057e-14
9.18137e-14
9.71573e-14
1.02581e-13
1.08029e-13
1.13441e-13
1.18756e-13
1.23915e-13
1.28856e-13
1.3352e-13
1.3785e-13
1.41791e-13
1.45293e-13
1.48309e-13
1.50799e-13
1.52728e-13
1.54068e-13
1.54798e-13
1.54905e-13
1.54385e-13
1.5324e-13
1.5148e-13
1.49125e-13
1.46201e-13
1.42739e-13
1.38779e-13
1.34365e-13
1.29546e-13
1.24374e-13
1.18905e-13
1.13195e-13
1.07301e-13
1.01281e-13
9.51901e-14
8.90822e-14
8.30081e-14
7.70149e-14
7.11458e-14
6.54395e-14
5.99296e-14
5.46448e-14
4.96088e-14
4.48401e-14
4.03523e-14
3.61543e-14
3.22506e-14
2.86416e-14
2.53242e-14
2.2292e-14
1.95359e-14
1.70446e-14
1.48049e-14
1.28022e-14
1.10211e-14
9.44536e-15
8.05874e-15
6.84489e-15
5.78781e-15
4.872e-15
4.08267e-15
3.40582e-15
2.82839e-15
2.33826e-15
1.92434e-15
1.57654e-15
1.28575e-15
1.04386e-15
8.4363e-16
6.78719e-16
5.43567e-16
4.33351e-16
3.43913e-16
2.71693e-16
2.13662e-16
1.67262e-16
1.30342e-16
1.01108e-16
7.80738e-17
6.00122e-17
4.59185e-17
3.49744e-17
2.6517e-17
2.00129e-17
1.50352e-17
1.12439e-17
8.37022e-18
6.20249e-18
4.57514e-18
3.35933e-18
2.45532e-18
1.78638e-18
1.29374e-18
9.32669e-19
6.69293e-19
4.78093e-19
3.39951e-19
2.40619e-19
1.69533e-19
1.18909e-19
8.30388e-20
5.77728e-20
4.01236e-20
2.79794e-20
1.98904e-20
1.49106e-20
1.24761e-20
1.83095e-20
2.04061e-20
2.49655e-20
3.22639e-20
4.27964e-20
5.73323e-20
7.69794e-20
1.03259e-19
1.38204e-19
1.84479e-19
2.45555e-19
3.25911e-19
4.31315e-19
5.69156e-19
7.48876e-19
9.82494e-19
1.28526e-18
1.67646e-18
2.1804e-18
2.8276e-18
3.65629e-18
4.71415e-18
6.06047e-18
7.76869e-18
9.92952e-18
1.26546e-17
1.60807e-17
2.03751e-17
2.57415e-17
3.24268e-17
4.07296e-17
5.10098e-17
6.36989e-17
7.93133e-17
9.8468e-17
1.21893e-16
1.50451e-16
1.85159e-16
2.27209e-16
2.77997e-16
3.39144e-16
4.12533e-16
5.00337e-16
6.05056e-16
7.29552e-16
8.77089e-16
1.05137e-15
1.25659e-15
1.49747e-15
1.77927e-15
2.10789e-15
2.48986e-15
2.93238e-15
3.44337e-15
4.03148e-15
4.70608e-15
5.47732e-15
6.35607e-15
7.35392e-15
8.48317e-15
9.75673e-15
1.11881e-14
1.27911e-14
1.45802e-14
1.65698e-14
1.87745e-14
2.12086e-14
2.38863e-14
2.6821e-14
3.00254e-14
3.35109e-14
3.72877e-14
4.13641e-14
4.57466e-14
5.0439e-14
5.54427e-14
6.07559e-14
6.63738e-14
7.22878e-14
7.84857e-14
8.4951e-14
9.16634e-14
9.85983e-14
1.05727e-13
1.13015e-13
1.20427e-13
1.27921e-13
1.35451e-13
1.4297e-13
1.50426e-13
1.57767e-13
1.64936e-13
1.71876e-13
1.78532e-13
1.84845e-13
1.90761e-13
1.96224e-13
2.01185e-13
2.05594e-13
2.09409e-13
2.1259e-13
2.15105e-13
2.16926e-13
2.18033e-13
2.18413e-13
2.1806e-13
2.16976e-13
2.1517e-13
2.1266e-13
2.0947e-13
2.05632e-13
2.01185e-13
1.96172e-13
1.90644e-13
1.84657e-13
1.7827e-13
1.71545e-13
1.64549e-13
1.57348e-13
1.50012e-13
1.42608e-13
1.35204e-13
1.27868e-13
1.20663e-13
1.13653e-13
1.06897e-13
1.0045e-13
9.43647e-14
8.86887e-14
8.34657e-14
7.87348e-14
7.45305e-14
7.08827e-14
6.78164e-14
6.53523e-14
6.3506e-14
6.22887e-14
6.17067e-14
6.17618e-14
6.24511e-14
6.37669e-14
6.56968e-14
6.82235e-14
7.13251e-14
7.49744e-14
7.91396e-14
8.37838e-14
8.88651e-14
9.43367e-14
1.00147e-13
1.06241e-13
1.12557e-13
1.19032e-13
1.25598e-13
1.32185e-13
1.3872e-13
1.45131e-13
1.51344e-13
1.57284e-13
1.62881e-13
1.68064e-13
1.72769e-13
1.76934e-13
1.80505e-13
1.83432e-13
1.85675e-13
1.87202e-13
1.87987e-13
1.88017e-13
1.87287e-13
1.85801e-13
1.83574e-13
1.80628e-13
1.76998e-13
1.72722e-13
1.67849e-13
1.62433e-13
1.56534e-13
1.50216e-13
1.43545e-13
1.36591e-13
1.29422e-13
1.22108e-13
1.14717e-13
1.07311e-13
9.99535e-14
9.26999e-14
8.56021e-14
7.87061e-14
7.20521e-14
6.56742e-14
5.96004e-14
5.38523e-14
4.84458e-14
4.33913e-14
3.86934e-14
3.43525e-14
3.03641e-14
2.67203e-14
2.34098e-14
2.04185e-14
1.77305e-14
1.53278e-14
1.31918e-14
1.13028e-14
9.64109e-15
8.1869e-15
6.92092e-15
5.82448e-15
4.87974e-15
4.06988e-15
3.37915e-15
2.79302e-15
2.29814e-15
1.88242e-15
1.53494e-15
1.24594e-15
1.00678e-15
8.09846e-16
6.4848e-16
5.16913e-16
4.10169e-16
3.2399e-16
2.54756e-16
1.99405e-16
1.55371e-16
1.2051e-16
9.30447e-17
7.15121e-17
5.47121e-17
4.1668e-17
3.15891e-17
2.38388e-17
1.7908e-17
1.33913e-17
9.96802e-18
7.38597e-18
5.44776e-18
3.99981e-18
2.92328e-18
2.12673e-18
1.54015e-18
1.11026e-18
7.96703e-19
5.69084e-19
4.04637e-19
2.86395e-19
2.0178e-19
1.41523e-19
9.88293e-20
6.87575e-20
4.77518e-20
3.32981e-20
2.36709e-20
1.77442e-20
1.48472e-20
2.79635e-20
3.11648e-20
3.81268e-20
4.92713e-20
6.53535e-20
8.75477e-20
1.17544e-19
1.57666e-19
2.11012e-19
2.81652e-19
3.74877e-19
4.97524e-19
6.58386e-19
8.68736e-19
1.14297e-18
1.49941e-18
1.96131e-18
2.55805e-18
3.32668e-18
4.31371e-18
5.57736e-18
7.19025e-18
9.24265e-18
1.18464e-17
1.51395e-17
1.92918e-17
2.45116e-17
3.1053e-17
3.92258e-17
4.94052e-17
6.20452e-17
7.76921e-17
9.70015e-17
1.20757e-16
1.49891e-16
1.85512e-16
2.28928e-16
2.81679e-16
3.45572e-16
4.22718e-16
5.15573e-16
6.26984e-16
7.60235e-16
9.19103e-16
1.10791e-15
1.33158e-15
1.5957e-15
1.90659e-15
2.27134e-15
2.6979e-15
3.19512e-15
3.7728e-15
4.44176e-15
5.21387e-15
6.10207e-15
7.12039e-15
8.28399e-15
9.6091e-15
1.1113e-14
1.2814e-14
1.47312e-14
1.68846e-14
1.9295e-14
2.19833e-14
2.49709e-14
2.82793e-14
3.19295e-14
3.5942e-14
4.03364e-14
4.5131e-14
5.03422e-14
5.59843e-14
6.20689e-14
6.86046e-14
7.55964e-14
8.30451e-14
9.09471e-14
9.92939e-14
1.08072e-13
1.17261e-13
1.26836e-13
1.36766e-13
1.47013e-13
1.57532e-13
1.68273e-13
1.79181e-13
1.90193e-13
2.01242e-13
2.12256e-13
2.23158e-13
2.3387e-13
2.44309e-13
2.54393e-13
2.64036e-13
2.73157e-13
2.81674e-13
2.89509e-13
2.96586e-13
3.02839e-13
3.08203e-13
3.12626e-13
3.16059e-13
3.18466e-13
3.1982e-13
3.20104e-13
3.19313e-13
3.17451e-13
3.14537e-13
3.10598e-13
3.05672e-13
2.99808e-13
2.93066e-13
2.85512e-13
2.77221e-13
2.68277e-13
2.58767e-13
2.48784e-13
2.38424e-13
2.27787e-13
2.16972e-13
2.06077e-13
1.95203e-13
1.84444e-13
1.73895e-13
1.63644e-13
1.53776e-13
1.4437e-13
1.355e-13
1.27232e-13
1.19629e-13
1.12743e-13
1.06623e-13
1.01309e-13
9.68345e-14
9.32272e-14
9.05069e-14
8.86871e-14
8.77747e-14
8.77697e-14
8.86657e-14
9.04495e-14
9.31013e-14
9.65946e-14
1.00896e-13
1.05965e-13
1.11756e-13
1.18214e-13
1.25278e-13
1.32882e-13
1.40952e-13
1.49409e-13
1.58165e-13
1.67132e-13
1.76215e-13
1.85314e-13
1.94329e-13
2.03157e-13
2.11695e-13
2.19842e-13
2.27498e-13
2.34568e-13
2.40962e-13
2.46597e-13
2.51397e-13
2.55297e-13
2.58242e-13
2.60188e-13
2.61105e-13
2.60974e-13
2.59791e-13
2.57563e-13
2.54314e-13
2.50077e-13
2.44898e-13
2.38836e-13
2.31959e-13
2.24341e-13
2.16068e-13
2.07227e-13
1.97913e-13
1.8822e-13
1.78244e-13
1.68081e-13
1.57822e-13
1.47558e-13
1.37371e-13
1.27338e-13
1.1753e-13
1.0801e-13
9.88321e-14
9.00421e-14
8.16777e-14
7.37677e-14
6.63332e-14
5.93872e-14
5.29357e-14
4.69779e-14
4.15073e-14
3.65122e-14
3.19765e-14
2.78804e-14
2.42014e-14
2.09147e-14
1.7994e-14
1.54123e-14
1.31422e-14
1.11565e-14
9.42844e-15
7.93242e-15
6.64389e-15
5.53971e-15
4.5983e-15
3.79972e-15
3.1257e-15
2.55966e-15
2.08668e-15
1.69342e-15
1.36807e-15
1.10023e-15
8.80826e-16
7.01983e-16
5.56918e-16
4.39827e-16
3.45779e-16
2.70608e-16
2.10816e-16
1.6349e-16
1.26211e-16
9.69896e-17
7.41945e-17
5.64984e-17
4.28271e-17
3.2316e-17
2.42735e-17
1.81494e-17
1.35085e-17
1.00085e-17
7.38143e-18
5.41909e-18
3.96028e-18
2.88096e-18
2.08622e-18
1.50382e-18
1.07905e-18
7.70725e-19
5.47984e-19
3.87837e-19
2.73242e-19
1.91638e-19
1.33822e-19
9.31e-20
6.4656e-20
4.50846e-20
3.20488e-20
2.40236e-20
2.01009e-20
4.52726e-20
5.04538e-20
6.17223e-20
7.97605e-20
1.0579e-19
1.41711e-19
1.90257e-19
2.55185e-19
3.4151e-19
4.55811e-19
6.06647e-19
8.0507e-19
1.0653e-18
1.40556e-18
1.84911e-18
2.42558e-18
3.17252e-18
4.13743e-18
5.38013e-18
6.97576e-18
9.01832e-18
1.16251e-17
1.49417e-17
1.91487e-17
2.44688e-17
3.11759e-17
3.96058e-17
5.01686e-17
6.33632e-17
7.97946e-17
1.00194e-16
1.25441e-16
1.56591e-16
1.94906e-16
2.41886e-16
2.99312e-16
3.69288e-16
4.54289e-16
5.57218e-16
6.81463e-16
8.30967e-16
1.01029e-15
1.22471e-15
1.48028e-15
1.7839e-15
2.14347e-15
2.56793e-15
3.06736e-15
3.6531e-15
4.33785e-15
5.1357e-15
6.06229e-15
7.13485e-15
8.37225e-15
9.79506e-15
1.14256e-14
1.32878e-14
1.54075e-14
1.7812e-14
2.05301e-14
2.35921e-14
2.70296e-14
3.08749e-14
3.51611e-14
3.99217e-14
4.51901e-14
5.09991e-14
5.73805e-14
6.43645e-14
7.1979e-14
8.02491e-14
8.91964e-14
9.8838e-14
1.09186e-13
1.20247e-13
1.32021e-13
1.445e-13
1.5767e-13
1.71507e-13
1.85978e-13
2.01041e-13
2.16645e-13
2.3273e-13
2.49222e-13
2.66043e-13
2.83102e-13
3.003e-13
3.1753e-13
3.34679e-13
3.51626e-13
3.68247e-13
3.84412e-13
3.99991e-13
4.14854e-13
4.28871e-13
4.41916e-13
4.5387e-13
4.64616e-13
4.74052e-13
4.82081e-13
4.88622e-13
4.93606e-13
4.96977e-13
4.98698e-13
4.98747e-13
4.97119e-13
4.93827e-13
4.88901e-13
4.82389e-13
4.74354e-13
4.64876e-13
4.5405e-13
4.41984e-13
4.28797e-13
4.1462e-13
3.99592e-13
3.83857e-13
3.67567e-13
3.50875e-13
3.33936e-13
3.16902e-13
2.99927e-13
2.83158e-13
2.66736e-13
2.50799e-13
2.35474e-13
2.2088e-13
2.07129e-13
1.94322e-13
1.82548e-13
1.71887e-13
1.6241e-13
1.54176e-13
1.47232e-13
1.41616e-13
1.37356e-13
1.34468e-13
1.3296e-13
1.32829e-13
1.34062e-13
1.36634e-13
1.40514e-13
1.45658e-13
1.52012e-13
1.59515e-13
1.68092e-13
1.7766e-13
1.88127e-13
1.99389e-13
2.11334e-13
2.23841e-13
2.36782e-13
2.50019e-13
2.63412e-13
2.76812e-13
2.90068e-13
3.03029e-13
3.15542e-13
3.27457e-13
3.38626e-13
3.48911e-13
3.58178e-13
3.66308e-13
3.7319e-13
3.78731e-13
3.82851e-13
3.85489e-13
3.86601e-13
3.86165e-13
3.84175e-13
3.80648e-13
3.75619e-13
3.6914e-13
3.61283e-13
3.52135e-13
3.41799e-13
3.30387e-13
3.18026e-13
3.04846e-13
2.90987e-13
2.76588e-13
2.61792e-13
2.46738e-13
2.31562e-13
2.16394e-13
2.01356e-13
1.86561e-13
1.72111e-13
1.58097e-13
1.44597e-13
1.31679e-13
1.19395e-13
1.07786e-13
9.68829e-14
8.67026e-14
7.72529e-14
6.85317e-14
6.05282e-14
5.32243e-14
4.65957e-14
4.06126e-14
3.52414e-14
3.04451e-14
2.6185e-14
2.2421e-14
1.91126e-14
1.62199e-14
1.37036e-14
1.1526e-14
9.65108e-15
8.04497e-15
6.6761e-15
5.51528e-15
4.53584e-15
3.71357e-15
3.02668e-15
2.45573e-15
1.98349e-15
1.59484e-15
1.27655e-15
1.01717e-15
8.06824e-16
6.37079e-16
5.00768e-16
3.91839e-16
3.05214e-16
2.36661e-16
1.82672e-16
1.40359e-16
1.07357e-16
8.1741e-17
6.19542e-17
4.67434e-17
3.51066e-17
2.62467e-17
1.95334e-17
1.4471e-17
1.06717e-17
7.83402e-18
5.72467e-18
4.16419e-18
3.01526e-18
2.17337e-18
1.55939e-18
1.11376e-18
7.9184e-19
5.60402e-19
3.94803e-19
2.76884e-19
1.93344e-19
1.34505e-19
9.34087e-20
6.5132e-20
4.62982e-20
3.47038e-20
2.90363e-20
7.44975e-20
8.30202e-20
1.01558e-19
1.31232e-19
1.74051e-19
2.33138e-19
3.12991e-19
4.19784e-19
5.6176e-19
7.49738e-19
9.97781e-19
1.32406e-18
1.75193e-18
2.31134e-18
3.04052e-18
3.98811e-18
5.21581e-18
6.80161e-18
8.84374e-18
1.14655e-17
1.48213e-17
1.91035e-17
2.45512e-17
3.14604e-17
4.01965e-17
5.12086e-17
6.50473e-17
8.23845e-17
1.04038e-16
1.30999e-16
1.64465e-16
2.05875e-16
2.56959e-16
3.19779e-16
3.96792e-16
4.90908e-16
6.05566e-16
7.44812e-16
9.13386e-16
1.11682e-15
1.36155e-15
1.65503e-15
2.00583e-15
2.42383e-15
2.92029e-15
3.50805e-15
4.20165e-15
5.01751e-15
5.97405e-15
7.09186e-15
8.39385e-15
9.90536e-15
1.16543e-14
1.36712e-14
1.59895e-14
1.8645e-14
2.16766e-14
2.51257e-14
2.90364e-14
3.34552e-14
3.84306e-14
4.40132e-14
5.02548e-14
5.72085e-14
6.49275e-14
7.3465e-14
8.2873e-14
9.32017e-14
1.04499e-13
1.16808e-13
1.30168e-13
1.44612e-13
1.60166e-13
1.76847e-13
1.94664e-13
2.13615e-13
2.33685e-13
2.54848e-13
2.77063e-13
3.00275e-13
3.24416e-13
3.49398e-13
3.75123e-13
4.01473e-13
4.28316e-13
4.55508e-13
4.82886e-13
5.1028e-13
5.37504e-13
5.64366e-13
5.90666e-13
6.16199e-13
6.40755e-13
6.64128e-13
6.86113e-13
7.0651e-13
7.25131e-13
7.41795e-13
7.5634e-13
7.68619e-13
7.78505e-13
7.85892e-13
7.90701e-13
7.92875e-13
7.92386e-13
7.89232e-13
7.83438e-13
7.7506e-13
7.64177e-13
7.50897e-13
7.35352e-13
7.17696e-13
6.98105e-13
6.76772e-13
6.53907e-13
6.29733e-13
6.04481e-13
5.78392e-13
5.51708e-13
5.24674e-13
4.97533e-13
4.70522e-13
4.43873e-13
4.17808e-13
3.92539e-13
3.68265e-13
3.45169e-13
3.23423e-13
3.03181e-13
2.84579e-13
2.6774e-13
2.52767e-13
2.39748e-13
2.28753e-13
2.19836e-13
2.13036e-13
2.08373e-13
2.05855e-13
2.0547e-13
2.07196e-13
2.1099e-13
2.16797e-13
2.24548e-13
2.34155e-13
2.45518e-13
2.5852e-13
2.7303e-13
2.88901e-13
3.05974e-13
3.24074e-13
3.43014e-13
3.62595e-13
3.82606e-13
4.02831e-13
4.23043e-13
4.43013e-13
4.62508e-13
4.81298e-13
4.99155e-13
5.15857e-13
5.31194e-13
5.44969e-13
5.56999e-13
5.67123e-13
5.752e-13
5.81115e-13
5.84778e-13
5.86128e-13
5.85133e-13
5.81791e-13
5.76129e-13
5.68205e-13
5.58101e-13
5.45931e-13
5.31827e-13
5.15947e-13
4.98466e-13
4.79573e-13
4.5947e-13
4.38365e-13
4.16473e-13
3.94006e-13
3.71176e-13
3.48186e-13
3.25232e-13
3.02496e-13
2.80147e-13
2.58338e-13
2.37203e-13
2.1686e-13
1.97405e-13
1.78919e-13
1.6146e-13
1.45073e-13
1.2978e-13
1.15594e-13
1.02508e-13
9.05049e-14
7.95568e-14
6.96257e-14
6.06659e-14
5.26259e-14
4.54497e-14
3.90783e-14
3.34512e-14
2.85072e-14
2.41859e-14
2.04284e-14
1.71777e-14
1.43798e-14
1.19838e-14
9.94234e-15
8.21171e-15
6.75192e-15
5.52671e-15
4.5035e-15
3.65322e-15
2.95014e-15
2.37164e-15
1.89797e-15
1.51206e-15
1.19917e-15
9.46725e-16
7.44045e-16
5.82109e-16
4.53355e-16
3.51479e-16
2.71261e-16
2.08401e-16
1.59381e-16
1.21338e-16
9.19559e-17
6.93719e-17
5.20964e-17
3.89451e-17
2.89812e-17
2.14683e-17
1.58306e-17
1.16203e-17
8.49083e-18
6.17591e-18
4.47164e-18
3.22292e-18
2.31231e-18
1.65142e-18
1.17405e-18
8.30861e-19
5.85317e-19
4.10482e-19
2.86623e-19
1.99392e-19
1.38466e-19
9.65464e-20
6.86265e-20
5.14386e-20
4.30369e-20
1.22776e-19
1.36817e-19
1.67358e-19
2.16247e-19
2.86792e-19
3.84136e-19
5.15683e-19
6.916e-19
9.2546e-19
1.23507e-18
1.64359e-18
2.18091e-18
2.8855e-18
3.80662e-18
5.00717e-18
6.56719e-18
8.58816e-18
1.11984e-17
1.45594e-17
1.88739e-17
2.43958e-17
3.14411e-17
4.04029e-17
5.17677e-17
6.61355e-17
8.42441e-17
1.06998e-16
1.35499e-16
1.71091e-16
2.15399e-16
2.70388e-16
3.3842e-16
4.22329e-16
5.25496e-16
6.51945e-16
8.06446e-16
9.94629e-16
1.22312e-15
1.49967e-15
1.83333e-15
2.23462e-15
2.71572e-15
3.29065e-15
3.97552e-15
4.78872e-15
5.75119e-15
6.88665e-15
8.22182e-15
9.78672e-15
1.16149e-14
1.37435e-14
1.62138e-14
1.90711e-14
2.2365e-14
2.61495e-14
3.04829e-14
3.54279e-14
4.10517e-14
4.74253e-14
5.46236e-14
6.2725e-14
7.18107e-14
8.19641e-14
9.327e-14
1.05814e-13
1.1968e-13
1.34952e-13
1.51708e-13
1.70025e-13
1.89971e-13
2.11606e-13
2.34981e-13
2.60136e-13
2.87096e-13
3.15872e-13
3.46455e-13
3.7882e-13
4.12921e-13
4.48687e-13
4.86029e-13
5.24828e-13
5.64944e-13
6.06212e-13
6.48441e-13
6.91415e-13
7.34897e-13
7.78626e-13
8.22323e-13
8.65692e-13
9.08422e-13
9.5019e-13
9.90667e-13
1.02952e-12
1.06642e-12
1.10104e-12
1.13306e-12
1.16219e-12
1.18815e-12
1.21067e-12
1.22953e-12
1.24453e-12
1.25552e-12
1.26237e-12
1.265e-12
1.26338e-12
1.2575e-12
1.24743e-12
1.23325e-12
1.21511e-12
1.19318e-12
1.16767e-12
1.13885e-12
1.107e-12
1.07243e-12
1.03547e-12
9.96495e-13
9.55867e-13
9.13969e-13
8.71188e-13
8.27913e-13
7.84527e-13
7.41405e-13
6.98913e-13
6.57397e-13
6.17188e-13
5.78597e-13
5.4191e-13
5.07389e-13
4.75272e-13
4.45768e-13
4.19063e-13
3.95313e-13
3.74648e-13
3.57171e-13
3.42962e-13
3.32071e-13
3.24527e-13
3.2033e-13
3.1946e-13
3.2187e-13
3.27492e-13
3.36233e-13
3.47977e-13
3.62585e-13
3.79894e-13
3.99719e-13
4.21853e-13
4.46066e-13
4.72105e-13
4.997e-13
5.28558e-13
5.58372e-13
5.88816e-13
6.19555e-13
6.50242e-13
6.80523e-13
7.10044e-13
7.38451e-13
7.65399e-13
7.90551e-13
8.13587e-13
8.3421e-13
8.52145e-13
8.6715e-13
8.79016e-13
8.87571e-13
8.92684e-13
8.94268e-13
8.92281e-13
8.86723e-13
8.77642e-13
8.65131e-13
8.49322e-13
8.30389e-13
8.08542e-13
7.84022e-13
7.57098e-13
7.28062e-13
6.9722e-13
6.64893e-13
6.31405e-13
5.97081e-13
5.6224e-13
5.27192e-13
4.9223e-13
4.57632e-13
4.2365e-13
3.90514e-13
3.58426e-13
3.27561e-13
2.98064e-13
2.70052e-13
2.43613e-13
2.1881e-13
1.95678e-13
1.74229e-13
1.54454e-13
1.36325e-13
1.19796e-13
1.0481e-13
9.12948e-14
7.91724e-14
6.83567e-14
5.87578e-14
5.02832e-14
4.28402e-14
3.6337e-14
3.06839e-14
2.5795e-14
2.15884e-14
1.79872e-14
1.49198e-14
1.23201e-14
1.01278e-14
8.28834e-15
6.75253e-15
5.47659e-15
4.42178e-15
3.55406e-15
2.84376e-15
2.26516e-15
1.79615e-15
1.41781e-15
1.11412e-15
8.71514e-16
6.78655e-16
5.26082e-16
4.05963e-16
3.11851e-16
2.3847e-16
1.81529e-16
1.37557e-16
1.03763e-16
7.79156e-17
5.82411e-17
4.33366e-17
3.20997e-17
2.36683e-17
1.73721e-17
1.26928e-17
9.23162e-18
6.6837e-18
4.81697e-18
3.45579e-18
2.46795e-18
1.75446e-18
1.24156e-18
8.74605e-19
6.13335e-19
4.28252e-19
2.97908e-19
2.06873e-19
1.4424e-19
1.02524e-19
7.68436e-20
6.42904e-20
2.01743e-19
2.24805e-19
2.74974e-19
3.55282e-19
4.7116e-19
6.31052e-19
8.47113e-19
1.13604e-18
1.5201e-18
2.02854e-18
2.69935e-18
3.5816e-18
4.73841e-18
6.25059e-18
8.22136e-18
1.0782e-17
1.40989e-17
1.83825e-17
2.38977e-17
3.09769e-17
4.0036e-17
5.15932e-17
6.62925e-17
8.49307e-17
1.08491e-16
1.38181e-16
1.75482e-16
2.22199e-16
2.80529e-16
3.53133e-16
4.43223e-16
5.54664e-16
6.92087e-16
8.61019e-16
1.06804e-15
1.32093e-15
1.62889e-15
2.00273e-15
2.45511e-15
3.00079e-15
3.65691e-15
4.44333e-15
5.3829e-15
6.50182e-15
7.83007e-15
9.40168e-15
1.12552e-14
1.34341e-14
1.59871e-14
1.89686e-14
2.24391e-14
2.64652e-14
3.11205e-14
3.64852e-14
4.26465e-14
4.96987e-14
5.77432e-14
6.6888e-14
7.72478e-14
8.89431e-14
1.021e-13
1.16848e-13
1.33322e-13
1.51656e-13
1.71988e-13
1.94452e-13
2.19179e-13
2.46296e-13
2.75921e-13
3.08162e-13
3.43112e-13
3.80851e-13
4.21436e-13
4.64906e-13
5.1127e-13
5.60512e-13
6.12586e-13
6.6741e-13
7.24868e-13
7.84807e-13
8.47032e-13
9.11314e-13
9.77379e-13
1.04492e-12
1.11357e-12
1.18297e-12
1.25268e-12
1.32225e-12
1.39121e-12
1.45906e-12
1.52527e-12
1.58933e-12
1.65071e-12
1.70887e-12
1.7633e-12
1.8135e-12
1.859e-12
1.89936e-12
1.93417e-12
1.96309e-12
1.98581e-12
2.00209e-12
2.01174e-12
2.01466e-12
2.01079e-12
2.00016e-12
1.98286e-12
1.95906e-12
1.92898e-12
1.89293e-12
1.85125e-12
1.80437e-12
1.75275e-12
1.69688e-12
1.63732e-12
1.57464e-12
1.50943e-12
1.4423e-12
1.37386e-12
1.30473e-12
1.23552e-12
1.16681e-12
1.09918e-12
1.03318e-12
9.69307e-13
9.08059e-13
8.49876e-13
7.95163e-13
7.44284e-13
6.97561e-13
6.55273e-13
6.17657e-13
5.84905e-13
5.57171e-13
5.34566e-13
5.17159e-13
5.04984e-13
4.98033e-13
4.96263e-13
4.99591e-13
5.07902e-13
5.21041e-13
5.3882e-13
5.61014e-13
5.87365e-13
6.17579e-13
6.51327e-13
6.88248e-13
7.27949e-13
7.70006e-13
8.13966e-13
8.5935e-13
9.05658e-13
9.52372e-13
9.98957e-13
1.04487e-12
1.08958e-12
1.13253e-12
1.17321e-12
1.21109e-12
1.2457e-12
1.27659e-12
1.30334e-12
1.32559e-12
1.34302e-12
1.35539e-12
1.3625e-12
1.36423e-12
1.36052e-12
1.35138e-12
1.33689e-12
1.31719e-12
1.29251e-12
1.2631e-12
1.2293e-12
1.19148e-12
1.15004e-12
1.10545e-12
1.05815e-12
1.00866e-12
9.57448e-13
9.05021e-13
8.51861e-13
7.98435e-13
7.45189e-13
6.9254e-13
6.40868e-13
5.9052e-13
5.41798e-13
4.94962e-13
4.5023e-13
4.07775e-13
3.67727e-13
3.30176e-13
2.95174e-13
2.62734e-13
2.32841e-13
2.05448e-13
1.80484e-13
1.57859e-13
1.37465e-13
1.19178e-13
1.02869e-13
8.84005e-14
7.56311e-14
6.44198e-14
5.46273e-14
4.61178e-14
3.87608e-14
3.24324e-14
2.70164e-14
2.24044e-14
1.84967e-14
1.52023e-14
1.24388e-14
1.0132e-14
8.21599e-15
6.63239e-15
5.32997e-15
4.26404e-15
3.39593e-15
2.69237e-15
2.12495e-15
1.66954e-15
1.30582e-15
1.01671e-15
7.8804e-16
6.08035e-16
4.67023e-16
3.57089e-16
2.71795e-16
2.05937e-16
1.55329e-16
1.16625e-16
8.71684e-17
6.48556e-17
4.80351e-17
3.54153e-17
2.59923e-17
1.89897e-17
1.38106e-17
9.99824e-18
7.20535e-18
5.16898e-18
3.69124e-18
2.62396e-18
1.85678e-18
1.30794e-18
9.17187e-19
6.40389e-19
4.45463e-19
3.09328e-19
2.15668e-19
1.5329e-19
1.14889e-19
9.61178e-20
3.30106e-19
3.67827e-19
4.4989e-19
5.81253e-19
7.70793e-19
1.03232e-18
1.38569e-18
1.85821e-18
2.48629e-18
3.31771e-18
4.41458e-18
5.85708e-18
7.74833e-18
1.02204e-17
1.34419e-17
1.76272e-17
2.30482e-17
3.00484e-17
3.90604e-17
5.06268e-17
6.54264e-17
8.43052e-17
1.08314e-16
1.38752e-16
1.77224e-16
2.25699e-16
2.86591e-16
3.62844e-16
4.58038e-16
5.76508e-16
7.23488e-16
9.05271e-16
1.1294e-15
1.40486e-15
1.74237e-15
2.15458e-15
2.65646e-15
3.26558e-15
4.0025e-15
4.8912e-15
5.95955e-15
7.23973e-15
8.76883e-15
1.05894e-14
1.27499e-14
1.53056e-14
1.83189e-14
2.18602e-14
2.60082e-14
3.08509e-14
3.64859e-14
4.30211e-14
5.05748e-14
5.92766e-14
6.92669e-14
8.06975e-14
9.37315e-14
1.08542e-13
1.25314e-13
1.4424e-13
1.65521e-13
1.89366e-13
2.15989e-13
2.45605e-13
2.7843e-13
3.1468e-13
3.54562e-13
3.98274e-13
4.46004e-13
4.97917e-13
5.54162e-13
6.14856e-13
6.80088e-13
7.4991e-13
8.24334e-13
9.03323e-13
9.86795e-13
1.07461e-12
1.16657e-12
1.26243e-12
1.36186e-12
1.46449e-12
1.56988e-12
1.6775e-12
1.78681e-12
1.89717e-12
2.00791e-12
2.1183e-12
2.22757e-12
2.33493e-12
2.43955e-12
2.54059e-12
2.63721e-12
2.72858e-12
2.81387e-12
2.89231e-12
2.96314e-12
3.02569e-12
3.07933e-12
3.1235e-12
3.15775e-12
3.18171e-12
3.1951e-12
3.19778e-12
3.18967e-12
3.17084e-12
3.14146e-12
3.10181e-12
3.05227e-12
2.99333e-12
2.92558e-12
2.84968e-12
2.76638e-12
2.67649e-12
2.58089e-12
2.48048e-12
2.37622e-12
2.26907e-12
2.15999e-12
2.04996e-12
1.93994e-12
1.83085e-12
1.72358e-12
1.61899e-12
1.51788e-12
1.421e-12
1.32902e-12
1.24259e-12
1.16225e-12
1.08849e-12
1.02174e-12
9.62351e-13
9.1061e-13
8.66738e-13
8.30895e-13
8.03173e-13
7.83606e-13
7.72169e-13
7.68778e-13
7.73292e-13
7.85514e-13
8.05194e-13
8.32026e-13
8.6565e-13
9.05654e-13
9.51575e-13
1.0029e-12
1.05905e-12
1.11943e-12
1.18337e-12
1.25017e-12
1.31909e-12
1.38936e-12
1.46018e-12
1.53074e-12
1.60021e-12
1.66775e-12
1.73256e-12
1.79382e-12
1.85076e-12
1.90265e-12
1.94881e-12
1.98862e-12
2.02154e-12
2.0471e-12
2.06493e-12
2.07475e-12
2.07637e-12
2.06972e-12
2.05484e-12
2.03185e-12
2.00099e-12
1.96259e-12
1.91707e-12
1.86494e-12
1.80676e-12
1.74317e-12
1.67485e-12
1.60253e-12
1.52693e-12
1.44882e-12
1.36893e-12
1.28801e-12
1.20676e-12
1.12585e-12
1.04591e-12
9.67517e-13
8.91182e-13
8.1736e-13
7.46442e-13
6.78749e-13
6.14538e-13
5.54e-13
4.97267e-13
4.4441e-13
3.95446e-13
3.50347e-13
3.09037e-13
2.71408e-13
2.37318e-13
2.066e-13
1.79069e-13
1.54523e-13
1.32755e-13
1.1355e-13
9.66942e-14
8.19761e-14
6.91903e-14
5.81395e-14
4.86366e-14
4.05059e-14
3.35842e-14
2.77211e-14
2.27793e-14
1.86349e-14
1.51762e-14
1.23042e-14
9.93088e-15
7.9794e-15
6.38259e-15
5.08238e-15
4.02882e-15
3.17928e-15
2.49757e-15
1.95319e-15
1.52057e-15
1.17842e-15
9.09137e-16
6.98215e-16
5.33801e-16
4.06256e-16
3.07785e-16
2.32126e-16
1.74271e-16
1.30242e-16
9.68957e-17
7.17597e-17
5.29029e-17
3.88241e-17
2.83625e-17
2.06258e-17
1.49312e-17
1.07597e-17
7.71839e-18
5.51153e-18
3.91774e-18
2.77217e-18
1.95267e-18
1.36924e-18
9.55985e-19
6.64973e-19
4.61739e-19
3.21921e-19
2.28802e-19
1.71478e-19
1.43457e-19
5.37702e-19
5.99119e-19
7.32744e-19
9.46645e-19
1.25527e-18
1.68108e-18
2.25643e-18
3.02571e-18
4.04819e-18
5.40161e-18
7.18701e-18
9.53484e-18
1.26128e-17
1.66358e-17
2.18778e-17
2.86877e-17
3.75074e-17
4.88952e-17
6.35543e-17
8.23667e-17
1.06435e-16
1.37134e-16
1.7617e-16
2.25654e-16
2.88191e-16
3.66979e-16
4.65934e-16
5.89835e-16
7.4449e-16
9.3693e-16
1.17564e-15
1.47084e-15
1.83472e-15
2.28188e-15
2.82965e-15
3.49856e-15
4.31279e-15
5.3008e-15
6.49586e-15
7.93677e-15
9.66853e-15
1.17432e-14
1.42206e-14
1.71696e-14
2.06683e-14
2.48058e-14
2.96829e-14
3.54127e-14
4.21224e-14
4.99533e-14
5.90627e-14
6.96238e-14
8.18268e-14
9.58796e-14
1.12008e-13
1.30454e-13
1.5148e-13
1.75363e-13
2.02397e-13
2.32891e-13
2.67165e-13
3.05552e-13
3.48391e-13
3.96024e-13
4.48794e-13
5.0704e-13
5.7109e-13
6.41256e-13
7.17827e-13
8.01066e-13
8.91197e-13
9.88401e-13
1.09281e-12
1.2045e-12
1.32346e-12
1.44965e-12
1.5829e-12
1.72298e-12
1.86957e-12
2.02225e-12
2.1805e-12
2.34369e-12
2.51112e-12
2.68195e-12
2.85528e-12
3.03009e-12
3.20532e-12
3.37978e-12
3.55226e-12
3.72149e-12
3.88615e-12
4.04491e-12
4.19645e-12
4.33943e-12
4.47259e-12
4.59468e-12
4.70454e-12
4.8011e-12
4.88339e-12
4.95057e-12
5.00193e-12
5.03692e-12
5.05513e-12
5.05635e-12
5.04051e-12
5.00774e-12
4.95834e-12
4.89278e-12
4.8117e-12
4.7159e-12
4.60632e-12
4.48405e-12
4.35027e-12
4.20631e-12
4.05353e-12
3.8934e-12
3.7274e-12
3.55707e-12
3.38394e-12
3.20952e-12
3.03532e-12
2.86278e-12
2.69331e-12
2.52822e-12
2.36876e-12
2.21608e-12
2.07124e-12
1.93519e-12
1.8088e-12
1.69279e-12
1.58781e-12
1.49438e-12
1.41294e-12
1.3438e-12
1.28717e-12
1.2432e-12
1.21189e-12
1.19319e-12
1.18695e-12
1.19293e-12
1.2108e-12
1.24014e-12
1.28048e-12
1.33124e-12
1.39176e-12
1.46132e-12
1.5391e-12
1.62423e-12
1.71576e-12
1.81265e-12
1.91384e-12
2.01818e-12
2.12448e-12
2.23154e-12
2.33808e-12
2.44287e-12
2.54462e-12
2.64211e-12
2.7341e-12
2.81944e-12
2.89701e-12
2.96581e-12
3.02489e-12
3.07345e-12
3.11079e-12
3.13637e-12
3.14977e-12
3.15075e-12
3.1392e-12
3.11519e-12
3.07894e-12
3.03081e-12
2.97133e-12
2.90115e-12
2.82103e-12
2.73186e-12
2.6346e-12
2.5303e-12
2.42004e-12
2.30494e-12
2.18616e-12
2.06481e-12
1.94201e-12
1.81881e-12
1.69624e-12
1.57522e-12
1.45663e-12
1.34123e-12
1.2297e-12
1.12262e-12
1.02047e-12
9.23628e-13
8.32375e-13
7.46898e-13
6.673e-13
5.936e-13
5.25746e-13
4.63621e-13
4.07054e-13
3.55828e-13
3.09687e-13
2.68347e-13
2.31504e-13
1.98841e-13
1.70034e-13
1.44759e-13
1.22696e-13
1.03536e-13
8.69806e-14
7.2748e-14
6.0574e-14
5.02128e-14
4.14385e-14
3.40449e-14
2.78456e-14
2.26734e-14
1.83793e-14
1.48318e-14
1.19153e-14
9.52934e-15
7.58694e-15
6.01332e-15
4.74464e-15
3.72678e-15
2.91408e-15
2.26834e-15
1.75772e-15
1.3559e-15
1.04121e-15
7.95942e-16
6.05698e-16
4.58839e-16
3.46015e-16
2.59751e-16
1.94109e-16
1.44398e-16
1.06931e-16
7.88259e-17
5.78441e-17
4.22545e-17
3.07262e-17
2.22417e-17
1.60268e-17
1.14961e-17
8.20865e-18
5.83465e-18
4.12837e-18
2.90782e-18
2.03893e-18
1.4235e-18
9.90133e-19
6.87497e-19
4.793e-19
3.40644e-19
2.55289e-19
2.13565e-19
8.71831e-19
9.7137e-19
1.18795e-18
1.53465e-18
2.03487e-18
2.725e-18
3.65743e-18
4.90409e-18
6.56097e-18
8.75398e-18
1.16467e-17
1.54505e-17
2.04368e-17
2.69535e-17
3.54443e-17
4.64736e-17
6.07566e-17
7.91971e-17
1.02932e-16
1.33389e-16
1.72352e-16
2.22043e-16
2.85221e-16
3.653e-16
4.66488e-16
5.93956e-16
7.54031e-16
9.54431e-16
1.20454e-15
1.5157e-15
1.90163e-15
2.37879e-15
2.96689e-15
3.68945e-15
4.57443e-15
5.6549e-15
6.96988e-15
8.56518e-15
1.04944e-14
1.282e-14
1.56144e-14
1.89614e-14
2.29572e-14
2.77122e-14
3.33524e-14
4.00206e-14
4.78786e-14
5.71079e-14
6.79124e-14
8.05187e-14
9.51785e-14
1.12169e-13
1.31795e-13
1.54388e-13
1.80309e-13
2.09945e-13
2.43712e-13
2.82054e-13
3.25438e-13
3.74353e-13
4.29311e-13
4.90836e-13
5.59466e-13
6.35743e-13
7.20207e-13
8.1339e-13
9.15807e-13
1.02795e-12
1.15026e-12
1.28315e-12
1.42697e-12
1.58198e-12
1.74838e-12
1.92627e-12
2.11564e-12
2.31636e-12
2.52818e-12
2.75071e-12
2.9834e-12
3.22558e-12
3.47638e-12
3.73482e-12
3.99972e-12
4.26977e-12
4.54349e-12
4.8193e-12
5.09544e-12
5.37006e-12
5.64123e-12
5.90692e-12
6.16506e-12
6.41354e-12
6.65026e-12
6.87316e-12
7.08022e-12
7.26951e-12
7.43922e-12
7.58768e-12
7.71341e-12
7.81511e-12
7.89171e-12
7.94236e-12
7.9665e-12
7.9638e-12
7.93424e-12
7.87804e-12
7.79574e-12
7.68812e-12
7.55624e-12
7.40138e-12
7.22508e-12
7.02907e-12
6.81526e-12
6.58573e-12
6.34268e-12
6.0884e-12
5.82526e-12
5.55565e-12
5.28198e-12
5.00663e-12
4.73193e-12
4.46015e-12
4.19346e-12
3.9339e-12
3.68339e-12
3.44372e-12
3.2165e-12
3.00319e-12
2.80509e-12
2.62332e-12
2.45883e-12
2.31242e-12
2.1847e-12
2.07614e-12
1.98704e-12
1.91756e-12
1.86769e-12
1.83732e-12
1.82617e-12
1.83383e-12
1.85977e-12
1.90333e-12
1.96372e-12
2.04005e-12
2.13127e-12
2.23626e-12
2.35374e-12