/*--------------------------------*- C++ -*----------------------------------*\
| =========                 |                                                 |
| \\      /  F ield         | OpenFOAM: The Open Source CFD Toolbox           |
|  \\    /   O peration     | Version:  v2012                                 |
|   \\  /    A nd           | Website:  www.openfoam.com                      |
|    \\/     M anipulation  |                                                 |
\*---------------------------------------------------------------------------*/
FoamFile
{
    version     2.0;
    format      ascii;
    class       volVectorField;
    location    "70";
    object      Usup;
}
// * * * * * * * * * * * * * * * * * * * * * * * * * * * * * * * * * * * * * //

dimensions      [0 1 -1 0 0 0 0];


internalField   nonuniform List<vector> 
4000
(
(-1.89949e-16 -2.4473e-16 0)
(-2.26751e-16 1.07692e-16 0)
(-7.76002e-17 2.92194e-16 0)
(-2.85756e-16 3.4402e-16 0)
(-4.25107e-16 3.22396e-16 0)
(-7.10153e-16 -5.91736e-17 0)
(-1.28277e-15 -4.63435e-16 0)
(-1.71565e-15 -3.7076e-16 0)
(-1.71714e-15 3.30725e-17 0)
(-1.26252e-15 1.35162e-16 0)
(-1.22916e-15 -2.91815e-16 0)
(-1.47917e-15 -5.25557e-16 0)
(-1.64771e-15 -3.78641e-16 0)
(-1.80581e-15 4.31568e-17 0)
(-1.18469e-15 2.88385e-16 0)
(-8.04032e-16 -4.31247e-16 0)
(-1.4591e-15 -8.3291e-16 0)
(-1.86164e-15 -6.86219e-16 0)
(-1.69632e-15 -4.79927e-16 0)
(-7.9315e-16 -4.53857e-16 0)
(1.01065e-16 -6.49343e-16 0)
(5.69875e-16 -7.2434e-16 0)
(1.00594e-15 -7.2825e-16 0)
(1.22148e-15 -5.10378e-16 0)
(1.95626e-15 -1.4981e-16 0)
(2.70443e-15 -2.57926e-16 0)
(2.62381e-15 -2.41709e-16 0)
(2.25857e-15 -1.24096e-16 0)
(2.34368e-15 -1.05504e-16 0)
(2.72327e-15 -1.19875e-16 0)
(3.1337e-15 1.3895e-16 0)
(3.86481e-15 2.44861e-16 0)
(4.35697e-15 -8.67374e-17 0)
(4.59016e-15 -2.68182e-16 0)
(4.58684e-15 -5.63235e-16 0)
(4.3781e-15 -4.51832e-16 0)
(4.33811e-15 -4.05078e-17 0)
(4.57854e-15 3.10817e-16 0)
(5.44036e-15 5.51287e-16 0)
(5.87597e-15 3.65355e-16 0)
(6.03436e-15 1.01556e-16 0)
(6.23843e-15 -1.67693e-16 0)
(6.04664e-15 -4.17554e-16 0)
(6.16999e-15 -6.2096e-17 0)
(6.47421e-15 4.07773e-16 0)
(6.80843e-15 5.87878e-16 0)
(7.03299e-15 4.23809e-16 0)
(7.33329e-15 3.48483e-16 0)
(7.48236e-15 5.33888e-16 0)
(7.56481e-15 7.49873e-16 0)
(7.22487e-15 6.51613e-16 0)
(6.95282e-15 9.15283e-16 0)
(7.18945e-15 9.4698e-16 0)
(7.44414e-15 1.14959e-15 0)
(8.00593e-15 1.16766e-15 0)
(8.50754e-15 1.20551e-15 0)
(8.59141e-15 1.15871e-15 0)
(8.53123e-15 1.39421e-15 0)
(8.34645e-15 1.26209e-15 0)
(7.59448e-15 1.04424e-15 0)
(6.69818e-15 1.04329e-15 0)
(5.87891e-15 8.53206e-16 0)
(5.5585e-15 1.10153e-15 0)
(5.79634e-15 1.50544e-15 0)
(6.05625e-15 1.57966e-15 0)
(5.75001e-15 1.32337e-15 0)
(4.66225e-15 1.03164e-15 0)
(3.80871e-15 1.20013e-15 0)
(3.69888e-15 1.30623e-15 0)
(3.66976e-15 1.14425e-15 0)
(3.65306e-15 9.64088e-16 0)
(3.36267e-15 1.07977e-15 0)
(2.9435e-15 1.13628e-15 0)
(2.92478e-15 7.81654e-16 0)
(3.13873e-15 6.40785e-16 0)
(3.48084e-15 4.46092e-16 0)
(3.43835e-15 2.91055e-16 0)
(2.74837e-15 7.48941e-17 0)
(1.94004e-15 5.81514e-17 0)
(1.34188e-15 4.81773e-17 0)
(8.52734e-16 7.32749e-17 0)
(8.808e-16 3.71967e-16 0)
(9.68776e-16 3.36668e-16 0)
(1.04187e-15 2.11243e-16 0)
(9.70707e-16 -1.62811e-16 0)
(5.47135e-16 -1.02764e-16 0)
(4.2583e-16 1.68552e-16 0)
(3.83546e-16 1.25984e-16 0)
(1.60917e-16 4.62817e-18 0)
(3.3925e-16 -6.4506e-17 0)
(9.11838e-16 -1.12837e-16 0)
(1.12074e-15 -1.52282e-16 0)
(8.67713e-16 -3.02292e-17 0)
(5.05385e-16 6.37162e-17 0)
(4.49816e-16 1.46092e-16 0)
(4.22817e-16 2.32494e-16 0)
(6.09803e-16 3.62555e-16 0)
(5.03305e-16 2.10544e-16 0)
(2.40315e-16 2.58976e-16 0)
(1.14477e-16 1.86564e-16 0)
(-8.67374e-17 -2.31794e-16 0)
(-1.66352e-16 3.09819e-16 0)
(-3.29706e-16 6.36091e-16 0)
(-9.6804e-16 7.31133e-16 0)
(-1.74418e-15 6.8518e-16 0)
(-2.79984e-15 -5.23191e-17 0)
(-3.72481e-15 -7.27076e-16 0)
(-4.09613e-15 -7.46264e-16 0)
(-4.1656e-15 -4.09048e-16 0)
(-4.00616e-15 -1.03534e-16 0)
(-4.17787e-15 -6.07336e-16 0)
(-4.221e-15 -1.07869e-15 0)
(-4.07972e-15 -9.81082e-16 0)
(-4.1857e-15 -2.14706e-16 0)
(-3.85799e-15 3.09282e-16 0)
(-3.62669e-15 -1.00726e-15 0)
(-4.0864e-15 -2.08451e-15 0)
(-4.3069e-15 -2.04787e-15 0)
(-3.84344e-15 -1.68634e-15 0)
(-2.1035e-15 -1.3386e-15 0)
(-3.93427e-17 -1.85774e-15 0)
(1.50597e-15 -2.26876e-15 0)
(2.97131e-15 -2.04792e-15 0)
(4.14549e-15 -1.45944e-15 0)
(5.6559e-15 -4.67384e-16 0)
(7.07334e-15 -6.15324e-16 0)
(7.36539e-15 -7.94742e-16 0)
(6.90507e-15 -6.22699e-16 0)
(7.13784e-15 -2.88032e-16 0)
(8.27959e-15 -1.41099e-16 0)
(9.52596e-15 4.06006e-16 0)
(1.08013e-14 6.20936e-16 0)
(1.1857e-14 -2.29601e-16 0)
(1.25736e-14 -8.51652e-16 0)
(1.29406e-14 -1.36322e-15 0)
(1.32195e-14 -9.52859e-16 0)
(1.34946e-14 -1.33821e-16 0)
(1.41129e-14 5.51512e-16 0)
(1.55713e-14 1.06815e-15 0)
(1.63555e-14 4.84585e-16 0)
(1.68742e-14 1.54391e-16 0)
(1.74047e-14 -1.80595e-16 0)
(1.77136e-14 -5.62206e-16 0)
(1.86218e-14 3.21668e-17 0)
(1.92479e-14 1.12279e-15 0)
(1.96184e-14 1.35618e-15 0)
(2.00842e-14 1.20425e-15 0)
(2.1065e-14 1.24961e-15 0)
(2.16874e-14 1.65605e-15 0)
(2.16463e-14 2.15746e-15 0)
(2.1086e-14 2.19159e-15 0)
(2.07291e-14 2.71832e-15 0)
(2.11819e-14 3.09076e-15 0)
(2.18649e-14 3.39125e-15 0)
(2.29906e-14 3.51359e-15 0)
(2.40334e-14 3.65683e-15 0)
(2.44276e-14 3.62622e-15 0)
(2.41607e-14 3.95603e-15 0)
(2.3173e-14 3.66507e-15 0)
(2.14773e-14 3.3396e-15 0)
(1.93411e-14 2.92951e-15 0)
(1.75734e-14 2.68557e-15 0)
(1.70898e-14 3.28024e-15 0)
(1.71431e-14 4.13092e-15 0)
(1.68684e-14 4.54806e-15 0)
(1.56651e-14 4.03295e-15 0)
(1.35829e-14 3.42275e-15 0)
(1.18818e-14 3.66075e-15 0)
(1.10377e-14 3.83168e-15 0)
(1.05338e-14 3.37466e-15 0)
(1.0485e-14 2.97201e-15 0)
(9.93352e-15 2.96806e-15 0)
(8.68078e-15 2.83976e-15 0)
(8.3806e-15 2.24374e-15 0)
(8.84014e-15 1.86403e-15 0)
(9.34831e-15 1.4573e-15 0)
(9.03093e-15 8.0408e-16 0)
(7.54034e-15 2.49751e-16 0)
(5.77343e-15 2.36418e-16 0)
(4.26052e-15 3.65931e-16 0)
(3.29561e-15 5.84674e-16 0)
(3.07107e-15 8.3294e-16 0)
(2.8099e-15 6.43497e-16 0)
(2.59644e-15 4.16663e-16 0)
(2.464e-15 -1.20479e-16 0)
(2.06626e-15 -5.91052e-17 0)
(1.61655e-15 5.39847e-16 0)
(1.14196e-15 5.26303e-16 0)
(7.44922e-16 9.54303e-17 0)
(1.19563e-15 -1.67938e-16 0)
(2.31794e-15 -5.33425e-16 0)
(2.87421e-15 -4.62895e-16 0)
(2.48945e-15 -1.22934e-16 0)
(1.72408e-15 2.69925e-16 0)
(1.50102e-15 4.75136e-16 0)
(1.4438e-15 6.42069e-16 0)
(1.5199e-15 8.56902e-16 0)
(1.19861e-15 4.5708e-16 0)
(7.07369e-16 7.83761e-16 0)
(1.16688e-16 3.81367e-16 0)
(-1.46226e-16 2.67658e-16 0)
(-3.7987e-16 6.3551e-16 0)
(-7.89027e-16 7.97261e-16 0)
(-1.77024e-15 6.63653e-16 0)
(-3.1262e-15 5.73571e-16 0)
(-4.74934e-15 1.54188e-16 0)
(-5.95733e-15 -1.89146e-16 0)
(-6.53461e-15 -5.4488e-16 0)
(-6.4828e-15 -6.5114e-16 0)
(-6.24943e-15 -6.83671e-16 0)
(-6.73758e-15 -1.26406e-15 0)
(-6.85275e-15 -1.66267e-15 0)
(-6.34973e-15 -1.79371e-15 0)
(-6.16243e-15 -8.5524e-16 0)
(-6.25276e-15 -3.23046e-16 0)
(-6.53537e-15 -1.38812e-15 0)
(-6.721e-15 -2.80555e-15 0)
(-6.31235e-15 -3.25771e-15 0)
(-5.139e-15 -2.98133e-15 0)
(-2.95074e-15 -2.52207e-15 0)
(-4.42676e-16 -2.90234e-15 0)
(2.33848e-15 -3.47125e-15 0)
(5.07997e-15 -3.41118e-15 0)
(7.26123e-15 -2.74171e-15 0)
(9.25672e-15 -1.48068e-15 0)
(1.07513e-14 -1.10595e-15 0)
(1.14644e-14 -1.20701e-15 0)
(1.15685e-14 -1.17137e-15 0)
(1.21994e-14 -2.24287e-16 0)
(1.38292e-14 4.40515e-16 0)
(1.5674e-14 9.64473e-16 0)
(1.70851e-14 7.64926e-16 0)
(1.83643e-14 -4.41619e-16 0)
(1.97408e-14 -1.38234e-15 0)
(2.0906e-14 -1.74721e-15 0)
(2.1805e-14 -1.19428e-15 0)
(2.23578e-14 -5.38229e-16 0)
(2.33391e-14 1.23099e-16 0)
(2.49301e-14 5.70589e-16 0)
(2.60438e-14 2.69481e-16 0)
(2.7229e-14 4.29451e-16 0)
(2.8027e-14 3.26978e-16 0)
(2.87617e-14 1.75975e-16 0)
(3.04985e-14 3.36328e-16 0)
(3.13589e-14 1.09034e-15 0)
(3.16856e-14 1.27439e-15 0)
(3.25731e-14 1.72716e-15 0)
(3.40403e-14 2.36333e-15 0)
(3.5009e-14 2.67834e-15 0)
(3.49978e-14 3.35844e-15 0)
(3.43656e-14 3.78575e-15 0)
(3.41468e-14 4.56042e-15 0)
(3.46699e-14 5.42675e-15 0)
(3.55089e-14 5.97734e-15 0)
(3.7072e-14 6.15432e-15 0)
(3.84019e-14 5.9979e-15 0)
(3.8888e-14 5.85784e-15 0)
(3.83338e-14 5.80361e-15 0)
(3.67604e-14 5.55222e-15 0)
(3.41148e-14 5.2418e-15 0)
(3.11015e-14 4.77388e-15 0)
(2.90465e-14 5.08525e-15 0)
(2.83655e-14 5.67167e-15 0)
(2.81176e-14 6.27851e-15 0)
(2.70225e-14 6.85507e-15 0)
(2.47436e-14 6.56158e-15 0)
(2.20078e-14 6.19881e-15 0)
(1.97547e-14 6.28741e-15 0)
(1.81078e-14 6.13733e-15 0)
(1.70296e-14 5.61429e-15 0)
(1.67936e-14 5.25979e-15 0)
(1.59012e-14 4.58238e-15 0)
(1.42033e-14 4.31019e-15 0)
(1.36753e-14 3.95968e-15 0)
(1.41012e-14 3.05128e-15 0)
(1.43491e-14 2.28086e-15 0)
(1.3618e-14 1.2937e-15 0)
(1.18363e-14 5.552e-16 0)
(9.61541e-15 4.62923e-16 0)
(7.50545e-15 8.29217e-16 0)
(5.83763e-15 1.05854e-15 0)
(5.05984e-15 1.06133e-15 0)
(4.60312e-15 9.06048e-16 0)
(4.24845e-15 5.9215e-16 0)
(3.98771e-15 1.90484e-16 0)
(3.659e-15 1.69174e-16 0)
(3.01304e-15 3.6245e-16 0)
(1.93261e-15 4.77721e-16 0)
(1.29886e-15 2.32732e-16 0)
(1.85944e-15 -2.23166e-16 0)
(3.44855e-15 -7.98451e-16 0)
(4.50361e-15 -6.85306e-16 0)
(4.13779e-15 -1.72057e-16 0)
(3.08696e-15 4.015e-16 0)
(2.55291e-15 9.92712e-16 0)
(2.37325e-15 9.18496e-16 0)
(2.15141e-15 1.11686e-15 0)
(1.82871e-15 6.32801e-16 0)
(1.08682e-15 7.01933e-16 0)
(-6.30398e-17 1.93507e-16 0)
(-3.20978e-16 5.80352e-16 0)
(-8.67651e-16 1.10166e-15 0)
(-1.62467e-15 9.30346e-16 0)
(-2.8408e-15 6.40624e-16 0)
(-4.34929e-15 2.69943e-16 0)
(-6.27434e-15 6.95455e-16 0)
(-7.93761e-15 6.48651e-16 0)
(-8.74459e-15 -7.97881e-17 0)
(-8.80429e-15 -5.38669e-16 0)
(-8.92132e-15 -1.45423e-15 0)
(-9.36612e-15 -2.12903e-15 0)
(-9.20873e-15 -2.36709e-15 0)
(-8.16109e-15 -2.74865e-15 0)
(-7.65917e-15 -2.24644e-15 0)
(-8.36095e-15 -1.62408e-15 0)
(-9.22594e-15 -2.11626e-15 0)
(-9.24712e-15 -3.07542e-15 0)
(-8.04948e-15 -3.88128e-15 0)
(-6.14365e-15 -4.05031e-15 0)
(-3.46549e-15 -4.00477e-15 0)
(-4.99033e-16 -3.7885e-15 0)
(2.92204e-15 -4.14504e-15 0)
(6.73891e-15 -4.6403e-15 0)
(1.01606e-14 -4.18565e-15 0)
(1.28971e-14 -3.01286e-15 0)
(1.45721e-14 -2.03902e-15 0)
(1.53716e-14 -1.76654e-15 0)
(1.61835e-14 -1.60016e-15 0)
(1.75617e-14 -2.04068e-16 0)
(1.93653e-14 8.91884e-16 0)
(2.11587e-14 1.2391e-15 0)
(2.24762e-14 5.79132e-16 0)
(2.41425e-14 -6.66435e-16 0)
(2.63304e-14 -1.4765e-15 0)
(2.83553e-14 -1.77892e-15 0)
(2.98004e-14 -1.68116e-15 0)
(3.07093e-14 -1.35949e-15 0)
(3.20479e-14 -5.00734e-16 0)
(3.39811e-14 1.4006e-16 0)
(3.56163e-14 4.05316e-16 0)
(3.70987e-14 7.55757e-16 0)
(3.80351e-14 7.30004e-16 0)
(3.90001e-14 1.01153e-15 0)
(4.11314e-14 9.13566e-16 0)
(4.24705e-14 1.07246e-15 0)
(4.33634e-14 1.29243e-15 0)
(4.48534e-14 2.01768e-15 0)
(4.63442e-14 2.91543e-15 0)
(4.74277e-14 3.51049e-15 0)
(4.76803e-14 4.54582e-15 0)
(4.71753e-14 5.37522e-15 0)
(4.71864e-14 6.50073e-15 0)
(4.78259e-14 7.64064e-15 0)
(4.85727e-14 8.55411e-15 0)
(4.98874e-14 8.6324e-15 0)
(5.12568e-14 8.07405e-15 0)
(5.18648e-14 7.64073e-15 0)
(5.11949e-14 7.18547e-15 0)
(4.92042e-14 7.15095e-15 0)
(4.59955e-14 6.97114e-15 0)
(4.27054e-14 6.76632e-15 0)
(4.02061e-14 7.36216e-15 0)
(3.88492e-14 8.03832e-15 0)
(3.82012e-14 8.30869e-15 0)
(3.65633e-14 8.64652e-15 0)
(3.35389e-14 8.87493e-15 0)
(3.0161e-14 8.79255e-15 0)
(2.7126e-14 8.55115e-15 0)
(2.47883e-14 8.04143e-15 0)
(2.33768e-14 7.54437e-15 0)
(2.25557e-14 7.26621e-15 0)
(2.13587e-14 6.26792e-15 0)
(1.96835e-14 5.91952e-15 0)
(1.85063e-14 5.42284e-15 0)
(1.84429e-14 4.26372e-15 0)
(1.86364e-14 3.1593e-15 0)
(1.76859e-14 1.87453e-15 0)
(1.5671e-14 9.55589e-16 0)
(1.32956e-14 7.20967e-16 0)
(1.06969e-14 1.31754e-15 0)
(8.42785e-15 1.40824e-15 0)
(7.30436e-15 1.56118e-15 0)
(6.43622e-15 1.32507e-15 0)
(5.72523e-15 8.36863e-16 0)
(5.4042e-15 4.26773e-16 0)
(4.929e-15 2.27945e-16 0)
(4.18062e-15 6.00528e-17 0)
(3.12318e-15 2.36752e-16 0)
(2.17672e-15 1.99561e-16 0)
(2.54502e-15 -6.82552e-17 0)
(4.43072e-15 -4.85801e-16 0)
(5.9287e-15 -6.4525e-16 0)
(5.68217e-15 -4.88526e-16 0)
(4.61448e-15 3.01819e-16 0)
(3.63076e-15 1.17668e-15 0)
(3.07638e-15 1.10303e-15 0)
(2.68483e-15 1.01914e-15 0)
(1.97037e-15 4.31236e-16 0)
(1.08604e-15 -2.26606e-17 0)
(-5.4635e-17 -3.01142e-16 0)
(-4.33936e-16 4.55421e-16 0)
(-1.49502e-15 1.27556e-15 0)
(-2.64739e-15 1.24847e-15 0)
(-4.0817e-15 1.16155e-15 0)
(-5.33479e-15 9.62141e-16 0)
(-7.24228e-15 1.44524e-15 0)
(-9.85522e-15 1.1456e-15 0)
(-1.11789e-14 4.52625e-17 0)
(-1.14905e-14 -8.94963e-16 0)
(-1.14655e-14 -2.47382e-15 0)
(-1.1486e-14 -3.19772e-15 0)
(-1.14348e-14 -3.11684e-15 0)
(-1.03802e-14 -3.01367e-15 0)
(-9.31459e-15 -3.42336e-15 0)
(-9.83632e-15 -3.37854e-15 0)
(-1.09901e-14 -3.20477e-15 0)
(-1.11939e-14 -3.44372e-15 0)
(-9.83636e-15 -3.76421e-15 0)
(-7.29852e-15 -4.36807e-15 0)
(-3.69494e-15 -4.86094e-15 0)
(-1.5189e-16 -4.70646e-15 0)
(3.44434e-15 -4.98831e-15 0)
(8.07506e-15 -5.23952e-15 0)
(1.27295e-14 -5.3937e-15 0)
(1.63318e-14 -4.43625e-15 0)
(1.8247e-14 -3.50205e-15 0)
(1.91878e-14 -3.09955e-15 0)
(2.07939e-14 -2.57431e-15 0)
(2.28507e-14 -9.58379e-16 0)
(2.46048e-14 3.59608e-16 0)
(2.61813e-14 8.55219e-16 0)
(2.75001e-14 1.87835e-16 0)
(2.96554e-14 -7.1157e-16 0)
(3.25308e-14 -1.333e-15 0)
(3.49931e-14 -1.51269e-15 0)
(3.68995e-14 -1.81141e-15 0)
(3.86319e-14 -1.73884e-15 0)
(4.06377e-14 -8.38368e-16 0)
(4.2727e-14 -1.31387e-16 0)
(4.45187e-14 5.5265e-16 0)
(4.62475e-14 1.00091e-15 0)
(4.76265e-14 8.24531e-16 0)
(4.88465e-14 1.28745e-15 0)
(5.1054e-14 1.65159e-15 0)
(5.27661e-14 1.83001e-15 0)
(5.41454e-14 1.99514e-15 0)
(5.61289e-14 2.27104e-15 0)
(5.80214e-14 3.14055e-15 0)
(5.94839e-14 4.40259e-15 0)
(5.98913e-14 5.89686e-15 0)
(5.94537e-14 6.96799e-15 0)
(5.96159e-14 8.29262e-15 0)
(6.02803e-14 9.79164e-15 0)
(6.07553e-14 1.05075e-14 0)
(6.16923e-14 1.05807e-14 0)
(6.29718e-14 1.02107e-14 0)
(6.35668e-14 9.43533e-15 0)
(6.29846e-14 8.87083e-15 0)
(6.09157e-14 8.35113e-15 0)
(5.70912e-14 8.40139e-15 0)
(5.34073e-14 8.66144e-15 0)
(5.07924e-14 9.2743e-15 0)
(4.8867e-14 9.92827e-15 0)
(4.75557e-14 1.00837e-14 0)
(4.56062e-14 1.03023e-14 0)
(4.19842e-14 1.02779e-14 0)
(3.76631e-14 1.02529e-14 0)
(3.38948e-14 1.00789e-14 0)
(3.10841e-14 9.67947e-15 0)
(2.93911e-14 9.39893e-15 0)
(2.80998e-14 9.14284e-15 0)
(2.64986e-14 8.33904e-15 0)
(2.45737e-14 7.40539e-15 0)
(2.29871e-14 6.56019e-15 0)
(2.25935e-14 5.68602e-15 0)
(2.23215e-14 4.51952e-15 0)
(2.10621e-14 2.7061e-15 0)
(1.90946e-14 1.50886e-15 0)
(1.68797e-14 1.27154e-15 0)
(1.39458e-14 1.87009e-15 0)
(1.10709e-14 2.14367e-15 0)
(9.42278e-15 2.15294e-15 0)
(8.04142e-15 1.73924e-15 0)
(7.17665e-15 1.23105e-15 0)
(6.73562e-15 9.54865e-16 0)
(6.1729e-15 7.79846e-16 0)
(5.46219e-15 4.77666e-16 0)
(4.24159e-15 2.22625e-16 0)
(3.16368e-15 1.35789e-17 0)
(3.48833e-15 1.44814e-16 0)
(5.28592e-15 -1.0237e-16 0)
(6.79304e-15 -6.12489e-16 0)
(6.97622e-15 -1.10787e-15 0)
(6.19673e-15 -3.86386e-16 0)
(4.7706e-15 4.04135e-16 0)
(3.64757e-15 9.33807e-16 0)
(2.80111e-15 2.66321e-16 0)
(1.87885e-15 -4.93374e-16 0)
(9.62695e-16 -8.04364e-16 0)
(1.6879e-16 -5.66098e-16 0)
(-4.40144e-16 4.787e-16 0)
(-1.77719e-15 1.15601e-15 0)
(-3.34522e-15 1.50799e-15 0)
(-4.93173e-15 1.80601e-15 0)
(-6.35416e-15 1.91303e-15 0)
(-8.75016e-15 1.39914e-15 0)
(-1.1985e-14 9.24207e-16 0)
(-1.35962e-14 -8.20051e-17 0)
(-1.42095e-14 -1.37839e-15 0)
(-1.42535e-14 -2.69674e-15 0)
(-1.35147e-14 -4.01867e-15 0)
(-1.27584e-14 -4.23381e-15 0)
(-1.20217e-14 -3.85897e-15 0)
(-1.14169e-14 -4.40671e-15 0)
(-1.14432e-14 -4.88703e-15 0)
(-1.22321e-14 -4.32638e-15 0)
(-1.23065e-14 -3.88909e-15 0)
(-1.09305e-14 -3.72627e-15 0)
(-8.45905e-15 -4.33832e-15 0)
(-4.27492e-15 -4.90603e-15 0)
(-4.70874e-17 -5.73747e-15 0)
(4.22894e-15 -5.92603e-15 0)
(9.2846e-15 -5.43514e-15 0)
(1.47105e-14 -5.83428e-15 0)
(1.93201e-14 -5.9405e-15 0)
(2.15573e-14 -5.65829e-15 0)
(2.28795e-14 -5.16477e-15 0)
(2.53193e-14 -4.13872e-15 0)
(2.80357e-14 -2.31318e-15 0)
(2.98474e-14 -6.096e-16 0)
(3.10826e-14 3.33519e-17 0)
(3.22977e-14 -5.55081e-16 0)
(3.48631e-14 -9.26866e-16 0)
(3.83356e-14 -1.5794e-15 0)
(4.12465e-14 -1.88458e-15 0)
(4.34758e-14 -1.70552e-15 0)
(4.58993e-14 -1.07972e-15 0)
(4.8424e-14 -7.21992e-16 0)
(5.09868e-14 -4.73608e-16 0)
(5.32012e-14 3.10124e-16 0)
(5.47441e-14 8.78751e-16 0)
(5.63023e-14 9.19608e-16 0)
(5.82162e-14 1.45872e-15 0)
(6.0684e-14 2.33461e-15 0)
(6.24378e-14 2.77252e-15 0)
(6.39615e-14 2.87395e-15 0)
(6.64933e-14 3.04612e-15 0)
(6.91684e-14 3.83242e-15 0)
(7.10772e-14 5.44922e-15 0)
(7.14556e-14 7.20009e-15 0)
(7.10196e-14 8.35361e-15 0)
(7.15407e-14 9.8722e-15 0)
(7.19889e-14 1.14921e-14 0)
(7.19932e-14 1.2372e-14 0)
(7.28048e-14 1.25867e-14 0)
(7.37295e-14 1.22339e-14 0)
(7.41558e-14 1.12899e-14 0)
(7.33646e-14 1.05914e-14 0)
(7.12327e-14 9.45698e-15 0)
(6.77529e-14 9.29152e-15 0)
(6.38867e-14 1.01824e-14 0)
(6.06768e-14 1.09662e-14 0)
(5.80704e-14 1.15053e-14 0)
(5.62749e-14 1.17693e-14 0)
(5.36678e-14 1.16083e-14 0)
(4.95239e-14 1.0896e-14 0)
(4.50006e-14 1.06084e-14 0)
(4.06782e-14 1.08334e-14 0)
(3.73729e-14 1.07692e-14 0)
(3.53038e-14 1.10039e-14 0)
(3.34206e-14 1.11899e-14 0)
(3.10997e-14 1.09318e-14 0)
(2.88265e-14 9.21956e-15 0)
(2.72007e-14 8.12306e-15 0)
(2.64485e-14 7.30112e-15 0)
(2.54514e-14 5.72747e-15 0)
(2.38357e-14 3.82518e-15 0)
(2.21691e-14 2.53289e-15 0)
(2.02122e-14 2.36447e-15 0)
(1.71113e-14 2.51684e-15 0)
(1.36468e-14 2.66315e-15 0)
(1.14142e-14 2.78199e-15 0)
(9.69037e-15 2.53861e-15 0)
(8.67681e-15 2.32586e-15 0)
(8.22275e-15 1.81968e-15 0)
(7.37038e-15 1.6902e-15 0)
(6.26248e-15 1.0408e-15 0)
(5.05375e-15 4.27826e-16 0)
(4.26343e-15 1.47539e-16 0)
(4.5718e-15 4.12087e-16 0)
(5.99804e-15 1.5806e-16 0)
(7.27518e-15 -6.36872e-16 0)
(7.79695e-15 -1.48599e-15 0)
(7.46301e-15 -1.23404e-15 0)
(6.0991e-15 -5.45303e-16 0)
(4.21846e-15 -7.82312e-17 0)
(2.59156e-15 -7.20558e-16 0)
(1.77877e-15 -1.08982e-15 0)
(1.16988e-15 -1.17427e-15 0)
(4.76682e-16 -4.69812e-16 0)
(-7.11555e-16 6.45407e-16 0)
(-2.32751e-15 1.09894e-15 0)
(-3.86963e-15 1.43325e-15 0)
(-5.67039e-15 1.76934e-15 0)
(-7.77722e-15 1.90856e-15 0)
(-1.04139e-14 1.11404e-15 0)
(-1.36925e-14 4.11127e-16 0)
(-1.5874e-14 -4.70762e-16 0)
(-1.65844e-14 -1.79445e-15 0)
(-1.66648e-14 -2.77248e-15 0)
(-1.59053e-14 -3.9918e-15 0)
(-1.45927e-14 -5.01728e-15 0)
(-1.37103e-14 -5.62365e-15 0)
(-1.31248e-14 -5.80411e-15 0)
(-1.26046e-14 -5.7124e-15 0)
(-1.27988e-14 -5.19031e-15 0)
(-1.29475e-14 -4.49574e-15 0)
(-1.18948e-14 -4.50345e-15 0)
(-9.25354e-15 -4.52592e-15 0)
(-4.99349e-15 -4.66869e-15 0)
(-2.29926e-16 -5.88645e-15 0)
(5.33682e-15 -5.8552e-15 0)
(1.08211e-14 -6.05651e-15 0)
(1.6028e-14 -6.58055e-15 0)
(2.10843e-14 -7.60079e-15 0)
(2.43223e-14 -8.182e-15 0)
(2.66037e-14 -7.44103e-15 0)
(2.99266e-14 -5.66464e-15 0)
(3.32188e-14 -3.71936e-15 0)
(3.48756e-14 -1.93751e-15 0)
(3.55728e-14 -1.24129e-15 0)
(3.69567e-14 -1.01176e-15 0)
(3.9837e-14 -1.04042e-15 0)
(4.34649e-14 -1.59328e-15 0)
(4.71758e-14 -2.09566e-15 0)
(5.03705e-14 -1.66431e-15 0)
(5.28512e-14 -6.50205e-16 0)
(5.52383e-14 -3.84316e-16 0)
(5.83315e-14 -4.23496e-16 0)
(6.1037e-14 2.83818e-18 0)
(6.28516e-14 4.57772e-16 0)
(6.47867e-14 1.09321e-15 0)
(6.71564e-14 2.00479e-15 0)
(6.98083e-14 3.04145e-15 0)
(7.14647e-14 3.46523e-15 0)
(7.31485e-14 3.6951e-15 0)
(7.61019e-14 4.27468e-15 0)
(7.94693e-14 4.95209e-15 0)
(8.19838e-14 6.63767e-15 0)
(8.23218e-14 8.46337e-15 0)
(8.19325e-14 9.87075e-15 0)
(8.26437e-14 1.15172e-14 0)
(8.30598e-14 1.2778e-14 0)
(8.27296e-14 1.38255e-14 0)
(8.29519e-14 1.40207e-14 0)
(8.3467e-14 1.3548e-14 0)
(8.37257e-14 1.31332e-14 0)
(8.27133e-14 1.23027e-14 0)
(8.05305e-14 1.1226e-14 0)
(7.75023e-14 1.05819e-14 0)
(7.37052e-14 1.09654e-14 0)
(6.99857e-14 1.17469e-14 0)
(6.68579e-14 1.27879e-14 0)
(6.42431e-14 1.34465e-14 0)
(6.07764e-14 1.30611e-14 0)
(5.62096e-14 1.21065e-14 0)
(5.1683e-14 1.148e-14 0)
(4.72017e-14 1.16226e-14 0)
(4.3594e-14 1.19115e-14 0)
(4.13658e-14 1.22896e-14 0)
(3.90626e-14 1.26086e-14 0)
(3.54681e-14 1.26724e-14 0)
(3.23779e-14 1.12239e-14 0)
(3.09429e-14 9.75235e-15 0)
(2.9713e-14 8.75291e-15 0)
(2.8126e-14 7.00749e-15 0)
(2.64663e-14 5.62725e-15 0)
(2.50694e-14 4.41469e-15 0)
(2.31586e-14 3.88993e-15 0)
(1.9714e-14 3.45366e-15 0)
(1.61479e-14 3.39821e-15 0)
(1.36519e-14 3.78433e-15 0)
(1.15605e-14 3.26861e-15 0)
(1.01021e-14 3.35377e-15 0)
(9.36238e-15 2.67037e-15 0)
(8.37012e-15 2.26353e-15 0)
(7.0307e-15 1.76753e-15 0)
(5.8723e-15 1.24628e-15 0)
(5.29894e-15 8.23887e-16 0)
(5.5635e-15 7.50808e-16 0)
(6.52859e-15 5.65121e-16 0)
(7.51786e-15 -3.88784e-16 0)
(8.3324e-15 -1.39985e-15 0)
(8.4914e-15 -1.62648e-15 0)
(6.99524e-15 -1.19242e-15 0)
(4.63326e-15 -1.30711e-15 0)
(2.86547e-15 -1.30785e-15 0)
(1.97335e-15 -1.08046e-15 0)
(1.36284e-15 -9.23333e-16 0)
(6.73937e-16 -4.65132e-16 0)
(-9.53891e-16 7.22989e-16 0)
(-2.88321e-15 1.41689e-15 0)
(-4.57505e-15 1.61317e-15 0)
(-6.43674e-15 1.22401e-15 0)
(-8.88494e-15 8.73812e-16 0)
(-1.21282e-14 5.47654e-16 0)
(-1.56555e-14 -7.31722e-17 0)
(-1.79167e-14 -8.42776e-16 0)
(-1.87359e-14 -2.0249e-15 0)
(-1.87761e-14 -3.18033e-15 0)
(-1.8092e-14 -4.33333e-15 0)
(-1.68556e-14 -5.73632e-15 0)
(-1.54122e-14 -6.89793e-15 0)
(-1.41435e-14 -6.60635e-15 0)
(-1.34348e-14 -6.102e-15 0)
(-1.34981e-14 -6.05816e-15 0)
(-1.36074e-14 -5.5991e-15 0)
(-1.23014e-14 -5.14332e-15 0)
(-9.34242e-15 -4.35322e-15 0)
(-5.32113e-15 -4.57451e-15 0)
(-1.51662e-16 -5.92312e-15 0)
(5.73995e-15 -6.48457e-15 0)
(1.1274e-14 -7.4883e-15 0)
(1.69769e-14 -7.88205e-15 0)
(2.23952e-14 -8.88739e-15 0)
(2.67299e-14 -9.65324e-15 0)
(3.05325e-14 -8.90205e-15 0)
(3.45664e-14 -6.7976e-15 0)
(3.79871e-14 -5.03447e-15 0)
(3.95933e-14 -3.40151e-15 0)
(4.04132e-14 -2.19723e-15 0)
(4.18183e-14 -1.33432e-15 0)
(4.45034e-14 -1.80231e-15 0)
(4.82781e-14 -2.16225e-15 0)
(5.25202e-14 -1.88803e-15 0)
(5.64482e-14 -1.45289e-15 0)
(5.93357e-14 -9.80306e-16 0)
(6.16895e-14 -2.48772e-16 0)
(6.49863e-14 -1.40433e-17 0)
(6.81699e-14 3.87638e-16 0)
(7.04419e-14 9.14349e-16 0)
(7.28739e-14 1.47379e-15 0)
(7.55888e-14 2.18134e-15 0)
(7.81837e-14 2.80704e-15 0)
(7.98154e-14 3.34846e-15 0)
(8.19051e-14 4.66302e-15 0)
(8.51856e-14 5.7702e-15 0)
(8.90487e-14 6.64605e-15 0)
(9.21223e-14 7.89897e-15 0)
(9.25621e-14 9.5975e-15 0)
(9.22178e-14 1.12469e-14 0)
(9.28322e-14 1.27685e-14 0)
(9.30313e-14 1.38058e-14 0)
(9.24252e-14 1.48468e-14 0)
(9.22436e-14 1.53359e-14 0)
(9.27513e-14 1.5253e-14 0)
(9.28099e-14 1.48629e-14 0)
(9.12648e-14 1.39234e-14 0)
(8.88363e-14 1.29215e-14 0)
(8.58516e-14 1.21338e-14 0)
(8.23556e-14 1.1677e-14 0)
(7.8905e-14 1.23595e-14 0)
(7.54779e-14 1.36669e-14 0)
(7.19064e-14 1.46055e-14 0)
(6.73736e-14 1.43157e-14 0)
(6.22848e-14 1.32016e-14 0)
(5.77814e-14 1.26312e-14 0)
(5.33596e-14 1.28158e-14 0)
(4.95017e-14 1.32568e-14 0)
(4.67879e-14 1.39248e-14 0)
(4.4061e-14 1.38029e-14 0)
(3.98732e-14 1.35303e-14 0)
(3.59425e-14 1.30782e-14 0)
(3.41485e-14 1.19004e-14 0)
(3.2705e-14 1.04745e-14 0)
(3.09142e-14 8.53346e-15 0)
(2.91247e-14 7.24218e-15 0)
(2.74653e-14 6.27987e-15 0)
(2.54275e-14 5.70407e-15 0)
(2.20329e-14 5.02642e-15 0)
(1.85862e-14 4.89011e-15 0)
(1.55016e-14 5.06702e-15 0)
(1.31151e-14 4.30131e-15 0)
(1.15948e-14 4.35194e-15 0)
(1.04398e-14 3.82829e-15 0)
(9.42648e-15 3.25766e-15 0)
(7.98176e-15 2.94362e-15 0)
(6.62608e-15 2.43623e-15 0)
(6.01571e-15 1.68366e-15 0)
(6.39033e-15 1.18203e-15 0)
(7.07837e-15 1.00845e-15 0)
(7.64332e-15 6.16659e-17 0)
(8.55803e-15 -9.64073e-16 0)
(9.10421e-15 -1.75865e-15 0)
(7.60319e-15 -1.67727e-15 0)
(5.14423e-15 -1.78883e-15 0)
(3.4583e-15 -1.31332e-15 0)
(2.37821e-15 -1.0833e-15 0)
(1.4623e-15 -8.74217e-16 0)
(7.62386e-16 -5.49342e-16 0)
(-1.06997e-15 6.36236e-16 0)
(-3.3739e-15 1.2901e-15 0)
(-5.70576e-15 1.52266e-15 0)
(-8.00253e-15 1.05504e-15 0)
(-1.02109e-14 1.22786e-16 0)
(-1.32194e-14 -2.86647e-16 0)
(-1.69958e-14 -5.91456e-16 0)
(-1.97361e-14 -1.25615e-15 0)
(-2.08334e-14 -2.28012e-15 0)
(-2.09466e-14 -3.43068e-15 0)
(-2.03755e-14 -4.71939e-15 0)
(-1.90279e-14 -6.30664e-15 0)
(-1.68061e-14 -7.09526e-15 0)
(-1.48445e-14 -6.86343e-15 0)
(-1.42943e-14 -6.41707e-15 0)
(-1.4247e-14 -6.81819e-15 0)
(-1.37471e-14 -6.45711e-15 0)
(-1.2018e-14 -5.59745e-15 0)
(-9.34126e-15 -4.62964e-15 0)
(-6.02242e-15 -5.01919e-15 0)
(-7.99984e-16 -6.64697e-15 0)
(5.77801e-15 -8.08277e-15 0)
(1.21646e-14 -8.77227e-15 0)
(1.81483e-14 -8.69806e-15 0)
(2.36904e-14 -9.27179e-15 0)
(2.89471e-14 -9.9238e-15 0)
(3.40297e-14 -9.37024e-15 0)
(3.876e-14 -7.67038e-15 0)
(4.23579e-14 -6.34564e-15 0)
(4.4257e-14 -4.88937e-15 0)
(4.50432e-14 -3.48256e-15 0)
(4.58454e-14 -2.65497e-15 0)
(4.84535e-14 -2.7872e-15 0)
(5.32238e-14 -3.08668e-15 0)
(5.80869e-14 -2.31906e-15 0)
(6.19769e-14 -1.57181e-15 0)
(6.52215e-14 -1.28644e-15 0)
(6.7985e-14 -4.79663e-16 0)
(7.13892e-14 2.77632e-16 0)
(7.48535e-14 7.79304e-16 0)
(7.73067e-14 1.27228e-15 0)
(7.98702e-14 1.63879e-15 0)
(8.27585e-14 2.34614e-15 0)
(8.57379e-14 2.79675e-15 0)
(8.83321e-14 3.74427e-15 0)
(9.08414e-14 5.72497e-15 0)
(9.38522e-14 7.1193e-15 0)
(9.76688e-14 8.25015e-15 0)
(1.01086e-13 9.06528e-15 0)
(1.0197e-13 1.05514e-14 0)
(1.01668e-13 1.22561e-14 0)
(1.02118e-13 1.37209e-14 0)
(1.02347e-13 1.4813e-14 0)
(1.01748e-13 1.57558e-14 0)
(1.01226e-13 1.6688e-14 0)
(1.01093e-13 1.67209e-14 0)
(1.00609e-13 1.59282e-14 0)
(9.89045e-14 1.50756e-14 0)
(9.64602e-14 1.42849e-14 0)
(9.33441e-14 1.39539e-14 0)
(9.00541e-14 1.34394e-14 0)
(8.70082e-14 1.4076e-14 0)
(8.34228e-14 1.48865e-14 0)
(7.89763e-14 1.54948e-14 0)
(7.3329e-14 1.49889e-14 0)
(6.78677e-14 1.39851e-14 0)
(6.3599e-14 1.30756e-14 0)
(5.9176e-14 1.36156e-14 0)
(5.52699e-14 1.46608e-14 0)
(5.20157e-14 1.56629e-14 0)
(4.84503e-14 1.54853e-14 0)
(4.40792e-14 1.4991e-14 0)
(3.982e-14 1.48169e-14 0)
(3.71867e-14 1.38846e-14 0)
(3.49189e-14 1.21196e-14 0)
(3.29394e-14 9.73252e-15 0)
(3.14774e-14 8.35919e-15 0)
(3.0053e-14 7.84682e-15 0)
(2.77831e-14 7.69665e-15 0)
(2.41052e-14 7.11274e-15 0)
(2.06488e-14 6.79087e-15 0)
(1.72248e-14 6.61412e-15 0)
(1.46314e-14 6.21443e-15 0)
(1.29919e-14 5.80056e-15 0)
(1.14792e-14 5.32175e-15 0)
(1.03647e-14 4.58886e-15 0)
(8.83657e-15 4.17475e-15 0)
(7.16286e-15 3.86251e-15 0)
(6.44052e-15 2.90026e-15 0)
(7.00783e-15 2.12411e-15 0)
(7.53538e-15 1.59884e-15 0)
(7.77948e-15 5.83083e-16 0)
(8.56294e-15 -3.75837e-16 0)
(9.36133e-15 -1.18927e-15 0)
(8.15799e-15 -1.5804e-15 0)
(5.83573e-15 -1.6973e-15 0)
(4.01566e-15 -1.27719e-15 0)
(2.55203e-15 -1.16334e-15 0)
(1.54441e-15 -1.10994e-15 0)
(9.5194e-16 -4.63388e-16 0)
(-1.27756e-15 3.61469e-16 0)
(-3.82664e-15 7.6369e-16 0)
(-6.35914e-15 9.88223e-16 0)
(-9.15946e-15 1.15229e-15 0)
(-1.16817e-14 5.51699e-16 0)
(-1.45954e-14 -5.11973e-16 0)
(-1.84388e-14 -1.2303e-15 0)
(-2.13366e-14 -2.34353e-15 0)
(-2.25878e-14 -2.92365e-15 0)
(-2.28575e-14 -3.68408e-15 0)
(-2.24873e-14 -4.62878e-15 0)
(-2.08322e-14 -5.98369e-15 0)
(-1.79529e-14 -6.33517e-15 0)
(-1.56263e-14 -6.91033e-15 0)
(-1.51781e-14 -7.11239e-15 0)
(-1.50411e-14 -7.36824e-15 0)
(-1.38955e-14 -7.09535e-15 0)
(-1.17419e-14 -6.13326e-15 0)
(-9.22016e-15 -5.57057e-15 0)
(-6.54971e-15 -5.77781e-15 0)
(-1.52959e-15 -6.86171e-15 0)
(5.71386e-15 -8.52639e-15 0)
(1.30414e-14 -9.53204e-15 0)
(1.95159e-14 -9.71434e-15 0)
(2.50757e-14 -9.76478e-15 0)
(3.08934e-14 -1.02096e-14 0)
(3.70549e-14 -9.54371e-15 0)
(4.2265e-14 -8.40073e-15 0)
(4.61044e-14 -7.5059e-15 0)
(4.83642e-14 -6.60474e-15 0)
(4.93111e-14 -5.66239e-15 0)
(5.01647e-14 -4.5088e-15 0)
(5.2585e-14 -3.58601e-15 0)
(5.75637e-14 -3.26896e-15 0)
(6.30971e-14 -2.69053e-15 0)
(6.71779e-14 -1.94531e-15 0)
(7.06105e-14 -1.68242e-15 0)
(7.38118e-14 -1.09509e-15 0)
(7.73822e-14 2.60524e-16 0)
(8.08602e-14 9.07099e-16 0)
(8.35053e-14 1.64749e-15 0)
(8.65469e-14 2.10223e-15 0)
(8.9755e-14 3.02965e-15 0)
(9.29386e-14 3.77709e-15 0)
(9.60888e-14 4.59436e-15 0)
(9.88787e-14 5.90531e-15 0)
(1.01879e-13 7.30653e-15 0)
(1.05629e-13 9.06369e-15 0)
(1.0924e-13 1.00416e-14 0)
(1.10573e-13 1.12975e-14 0)
(1.10418e-13 1.31747e-14 0)
(1.10757e-13 1.48497e-14 0)
(1.10717e-13 1.58147e-14 0)
(1.10101e-13 1.65703e-14 0)
(1.09305e-13 1.74469e-14 0)
(1.08526e-13 1.75424e-14 0)
(1.07822e-13 1.67425e-14 0)
(1.06062e-13 1.62651e-14 0)
(1.03696e-13 1.57865e-14 0)
(1.00499e-13 1.54321e-14 0)
(9.7226e-14 1.55166e-14 0)
(9.42118e-14 1.59049e-14 0)
(9.01964e-14 1.63879e-14 0)
(8.50709e-14 1.64853e-14 0)
(7.87517e-14 1.58582e-14 0)
(7.27526e-14 1.5238e-14 0)
(6.87663e-14 1.44149e-14 0)
(6.51724e-14 1.47511e-14 0)
(6.10672e-14 1.60869e-14 0)
(5.6897e-14 1.7086e-14 0)
(5.2544e-14 1.67696e-14 0)
(4.78616e-14 1.65708e-14 0)
(4.31356e-14 1.6612e-14 0)
(3.97142e-14 1.53109e-14 0)
(3.67483e-14 1.322e-14 0)
(3.47849e-14 1.10998e-14 0)
(3.38961e-14 1.01431e-14 0)
(3.26419e-14 1.00907e-14 0)
(3.00515e-14 9.74122e-15 0)
(2.60425e-14 9.12255e-15 0)
(2.24364e-14 8.86035e-15 0)
(1.88764e-14 8.48001e-15 0)
(1.5942e-14 7.89963e-15 0)
(1.40327e-14 7.15842e-15 0)
(1.23516e-14 6.76781e-15 0)
(1.11311e-14 5.89444e-15 0)
(9.77726e-15 5.52005e-15 0)
(7.83537e-15 5.18096e-15 0)
(6.73211e-15 4.45484e-15 0)
(7.29934e-15 3.52634e-15 0)
(7.69269e-15 2.71147e-15 0)
(7.8156e-15 1.62955e-15 0)
(8.73887e-15 7.56085e-16 0)
(9.53728e-15 1.93164e-17 0)
(8.3523e-15 -6.45955e-16 0)
(6.25513e-15 -8.59186e-16 0)
(4.45273e-15 -1.01216e-15 0)
(2.74551e-15 -1.43864e-15 0)
(1.76403e-15 -1.43422e-15 0)
(1.11609e-15 -3.76021e-16 0)
(-1.45094e-15 3.2701e-16 0)
(-4.31546e-15 8.18383e-16 0)
(-6.91238e-15 8.25119e-16 0)
(-9.90296e-15 8.69596e-16 0)
(-1.31106e-14 4.52817e-16 0)
(-1.63062e-14 -7.85046e-16 0)
(-2.02132e-14 -1.84983e-15 0)
(-2.29286e-14 -2.97097e-15 0)
(-2.38162e-14 -3.53258e-15 0)
(-2.42143e-14 -4.17645e-15 0)
(-2.40606e-14 -4.48847e-15 0)
(-2.22179e-14 -5.13491e-15 0)
(-1.93217e-14 -5.65893e-15 0)
(-1.71035e-14 -6.90469e-15 0)
(-1.61229e-14 -7.66647e-15 0)
(-1.54783e-14 -7.76649e-15 0)
(-1.3778e-14 -7.25154e-15 0)
(-1.1469e-14 -6.41019e-15 0)
(-9.22102e-15 -6.41319e-15 0)
(-6.62125e-15 -6.51536e-15 0)
(-1.9286e-15 -7.04003e-15 0)
(5.2843e-15 -8.44039e-15 0)
(1.33581e-14 -9.6728e-15 0)
(2.06469e-14 -1.04429e-14 0)
(2.65929e-14 -1.02756e-14 0)
(3.29593e-14 -1.03302e-14 0)