/*--------------------------------*- C++ -*----------------------------------*\
| =========                 |                                                 |
| \\      /  F ield         | OpenFOAM: The Open Source CFD Toolbox           |
|  \\    /   O peration     | Version:  v2012                                 |
|   \\  /    A nd           | Website:  www.openfoam.com                      |
|    \\/     M anipulation  |                                                 |
\*---------------------------------------------------------------------------*/
FoamFile
{
    version     2.0;
    format      ascii;
    class       surfaceScalarField;
    location    "12.25";
    object      phi;
}
// * * * * * * * * * * * * * * * * * * * * * * * * * * * * * * * * * * * * * //

dimensions      [0 3 -1 0 0 0 0];
oriented        oriented;


internalField   nonuniform List<scalar> 
130560
(
3.58391e-06
-3.58391e-06
7.16801e-06
-3.58409e-06
1.07525e-05
-3.58446e-06
1.43375e-05
-3.585e-06
1.79232e-05
-3.58572e-06
2.15098e-05
-3.58661e-06
2.50975e-05
-3.58767e-06
2.86864e-05
-3.5889e-06
3.22767e-05
-3.5903e-06
3.58685e-05
-3.59184e-06
3.9462e-05
-3.59354e-06
4.30574e-05
-3.59539e-06
4.66548e-05
-3.59737e-06
5.02543e-05
-3.59947e-06
5.3856e-05
-3.6017e-06
5.746e-05
-3.60403e-06
6.10665e-05
-3.60647e-06
6.46755e-05
-3.60899e-06
6.8287e-05
-3.61158e-06
7.19013e-05
-3.61424e-06
7.55182e-05
-3.61694e-06
7.91379e-05
-3.61968e-06
8.27603e-05
-3.62244e-06
8.63855e-05
-3.6252e-06
9.00135e-05
-3.62795e-06
9.36441e-05
-3.63066e-06
9.72775e-05
-3.63333e-06
0.000100913
-3.63593e-06
0.000104552
-3.63844e-06
0.000108193
-3.64084e-06
0.000111836
-3.64311e-06
0.000115481
-3.64522e-06
0.000119128
-3.64716e-06
0.000122777
-3.6489e-06
0.000126427
-3.65041e-06
0.000130079
-3.65168e-06
0.000133732
-3.65266e-06
0.000137385
-3.65334e-06
0.000141039
-3.65368e-06
0.000144692
-3.65366e-06
0.000148346
-3.65325e-06
0.000151998
-3.65242e-06
0.000155649
-3.65113e-06
0.000159299
-3.64936e-06
0.000162946
-3.64707e-06
0.00016659
-3.64423e-06
0.000170231
-3.6408e-06
0.000173868
-3.63675e-06
0.0001775
-3.63205e-06
0.000181126
-3.62666e-06
0.000184747
-3.62054e-06
0.00018836
-3.61367e-06
0.000191966
-3.60599e-06
0.000195564
-3.59748e-06
0.000199152
-3.58809e-06
0.00020273
-3.5778e-06
0.000206296
-3.56656e-06
0.000209851
-3.55434e-06
0.000213392
-3.5411e-06
0.000216919
-3.52679e-06
0.00022043
-3.5114e-06
0.000223925
-3.49487e-06
0.000227402
-3.47717e-06
0.00023086
-3.45828e-06
0.000234298
-3.43815e-06
0.000237715
-3.41674e-06
0.000241109
-3.39403e-06
0.000244479
-3.36999e-06
0.000247824
-3.34458e-06
0.000251142
-3.31777e-06
0.000254431
-3.28954e-06
0.000257691
-3.25986e-06
0.00026092
-3.22869e-06
0.000264116
-3.19603e-06
0.000267278
-3.16184e-06
0.000270404
-3.12611e-06
0.000273492
-3.08881e-06
0.000276542
-3.04994e-06
0.000279552
-3.00948e-06
0.000282519
-2.96741e-06
0.000285443
-2.92373e-06
0.000288321
-2.87843e-06
0.000291153
-2.8315e-06
0.000293936
-2.78296e-06
0.000296669
-2.73279e-06
0.00029935
-2.681e-06
0.000301977
-2.6276e-06
0.00030455
-2.57259e-06
0.000307066
-2.51601e-06
0.000309524
-2.45784e-06
0.000311922
-2.39813e-06
0.000314259
-2.33689e-06
0.000316533
-2.27414e-06
0.000318743
-2.20992e-06
0.000320887
-2.14425e-06
0.000322964
-2.07717e-06
0.000324973
-2.00873e-06
0.000326912
-1.93895e-06
0.00032878
-1.86788e-06
0.000330575
-1.79557e-06
0.000332297
-1.72207e-06
0.000333945
-1.64743e-06
0.000335517
-1.57171e-06
0.000337012
-1.49495e-06
0.000338429
-1.41723e-06
0.000339767
-1.33859e-06
0.000341026
-1.25911e-06
0.000342205
-1.17885e-06
0.000343303
-1.09787e-06
0.000344319
-1.01624e-06
0.000345253
-9.34041e-07
0.000346105
-8.51332e-07
0.000346873
-7.68188e-07
0.000347558
-6.84682e-07
0.000348159
-6.00886e-07
0.000348675
-5.16874e-07
0.000349108
-4.3272e-07
0.000349457
-3.48497e-07
0.000349721
-2.64279e-07
0.000349901
-1.80139e-07
0.000349997
-9.61492e-08
0.00035001
-1.23825e-08
0.000349938
7.10905e-08
0.000349784
1.542e-07
0.000349547
2.36877e-07
0.000349228
3.19054e-07
0.000348828
4.00665e-07
0.000348346
4.81646e-07
0.000347784
5.61935e-07
0.000347143
6.41472e-07
0.000346422
7.20198e-07
0.000345624
7.98057e-07
0.000344749
8.74995e-07
0.000343798
9.5096e-07
0.000342773
1.0259e-06
0.000341673
1.09978e-06
0.0003405
1.17254e-06
0.000339256
1.24416e-06
0.000337941
1.31457e-06
0.000336558
1.38376e-06
0.000335106
1.45169e-06
0.000333588
1.51833e-06
0.000332004
1.58364e-06
0.000330356
1.64761e-06
0.000328646
1.71022e-06
0.000326875
1.77143e-06
0.000325044
1.83124e-06
0.000323154
1.88962e-06
0.000321207
1.94658e-06
0.000319205
2.00209e-06
0.000317149
2.05615e-06
0.00031504
2.10875e-06
0.00031288
2.1599e-06
0.000310671
2.20958e-06
0.000308413
2.25781e-06
0.000306108
2.30459e-06
0.000303759
2.34992e-06
0.000301365
2.3938e-06
0.000298928
2.43626e-06
0.000296451
2.47729e-06
0.000293934
2.51691e-06
0.000291379
2.55514e-06
0.000288787
2.59199e-06
0.00028616
2.62748e-06
0.000283498
2.66163e-06
0.000280804
2.69444e-06
0.000278078
2.72596e-06
0.000275321
2.75619e-06
0.000272536
2.78516e-06
0.000269723
2.81289e-06
0.000266884
2.8394e-06
0.000264019
2.86473e-06
0.00026113
2.88889e-06
0.000258218
2.91191e-06
0.000255285
2.93382e-06
0.00025233
2.95464e-06
0.000249356
2.97441e-06
0.000246362
2.99314e-06
0.000243352
3.01087e-06
0.000240324
3.02762e-06
0.000237281
3.04342e-06
0.000234222
3.0583e-06
0.00023115
3.07228e-06
0.000228065
3.0854e-06
0.000224967
3.09768e-06
0.000221858
3.10915e-06
0.000218738
3.11983e-06
0.000215608
3.12976e-06
0.000212469
3.13896e-06
0.000209322
3.14745e-06
0.000206166
3.15527e-06
0.000203004
3.16243e-06
0.000199835
3.16897e-06
0.00019666
3.17492e-06
0.00019348
3.18028e-06
0.000190295
3.1851e-06
0.000187105
3.18939e-06
0.000183912
3.19318e-06
0.000180716
3.19648e-06
0.000177516
3.19934e-06
0.000174315
3.20176e-06
0.000171111
3.20376e-06
0.000167905
3.20538e-06
0.000164699
3.20663e-06
0.000161491
3.20753e-06
0.000158283
3.2081e-06
0.000155075
3.20837e-06
0.000151867
3.20834e-06
0.000148658
3.20804e-06
0.000145451
3.20749e-06
0.000142244
3.20671e-06
0.000139039
3.2057e-06
0.000135834
3.2045e-06
0.000132631
3.20311e-06
0.000129429
3.20155e-06
0.00012623
3.19983e-06
0.000123032
3.19798e-06
0.000119836
3.196e-06
0.000116642
3.19391e-06
0.00011345
3.19172e-06
0.000110261
3.18944e-06
0.000107073
3.1871e-06
0.000103889
3.18469e-06
0.000100707
3.18224e-06
9.75268e-05
3.17975e-06
9.43495e-05
3.17723e-06
9.11749e-05
3.17469e-06
8.80027e-05
3.17215e-06
8.48331e-05
3.16961e-06
8.1666e-05
3.16709e-06
7.85014e-05
3.16458e-06
7.53393e-05
3.16211e-06
7.21796e-05
3.15968e-06
6.90223e-05
3.15729e-06
6.58674e-05
3.15495e-06
6.27147e-05
3.15267e-06
5.95643e-05
3.15046e-06
5.64159e-05
3.14832e-06
5.32697e-05
3.14626e-06
5.01254e-05
3.14429e-06
4.6983e-05
3.1424e-06
4.38424e-05
3.14061e-06
4.07035e-05
3.13892e-06
3.75661e-05
3.13733e-06
3.44303e-05
3.13585e-06
3.12958e-05
3.13448e-06
2.81626e-05
3.13322e-06
2.50305e-05
3.13208e-06
2.18994e-05
3.13107e-06
1.87692e-05
3.13017e-06
1.56399e-05
3.1294e-06
1.25111e-05
3.12875e-06
9.38287e-06
3.12823e-06
6.25503e-06
3.12784e-06
3.12745e-06
3.12758e-06
3.12745e-06
3.58373e-06
-7.16765e-06
7.16765e-06
-7.16801e-06
1.07519e-05
-7.16874e-06
1.43368e-05
-7.16982e-06
1.79223e-05
-7.17126e-06
2.15087e-05
-7.17305e-06
2.50962e-05
-7.17518e-06
2.8685e-05
-7.17764e-06
3.22751e-05
-7.18044e-06
3.58668e-05
-7.18354e-06
3.94602e-05
-7.18695e-06
4.30555e-05
-7.19064e-06
4.66527e-05
-7.19461e-06
5.02521e-05
-7.19883e-06
5.38537e-05
-7.20329e-06
5.74576e-05
-7.20797e-06
6.1064e-05
-7.21285e-06
6.46729e-05
-7.2179e-06
6.82844e-05
-7.2231e-06
7.18986e-05
-7.22843e-06
7.55155e-05
-7.23385e-06
7.91352e-05
-7.23934e-06
8.27576e-05
-7.24487e-06
8.63828e-05
-7.25041e-06
9.00108e-05
-7.25593e-06
9.36415e-05
-7.26138e-06
9.72749e-05
-7.26673e-06
0.000100911
-7.27195e-06
0.00010455
-7.27699e-06
0.00010819
-7.28181e-06
0.000111834
-7.28637e-06
0.000115479
-7.29063e-06
0.000119127
-7.29453e-06
0.000122776
-7.29803e-06
0.000126426
-7.30108e-06
0.000130078
-7.30363e-06
0.000133731
-7.30562e-06
0.000137385
-7.30701e-06
0.000141039
-7.30772e-06
0.000144693
-7.30772e-06
0.000148347
-7.30693e-06
0.000152
-7.30529e-06
0.000155651
-7.30275e-06
0.000159301
-7.29924e-06
0.000162949
-7.29469e-06
0.000166593
-7.28904e-06
0.000170235
-7.28222e-06
0.000173872
-7.27416e-06
0.000177505
-7.26479e-06
0.000181132
-7.25405e-06
0.000184754
-7.24185e-06
0.000188368
-7.22813e-06
0.000191975
-7.21282e-06
0.000195573
-7.19583e-06
0.000199162
-7.1771e-06
0.000202741
-7.15655e-06
0.000206309
-7.13411e-06
0.000209864
-7.1097e-06
0.000213406
-7.08325e-06
0.000216934
-7.05468e-06
0.000220447
-7.02392e-06
0.000223943
-6.9909e-06
0.000227421
-6.95555e-06
0.000230881
-6.91779e-06
0.00023432
-6.87756e-06
0.000237738
-6.83479e-06
0.000241133
-6.7894e-06
0.000244505
-6.74135e-06
0.000247851
-6.69055e-06
0.00025117
-6.63697e-06
0.000254461
-6.58053e-06
0.000257722
-6.52119e-06
0.000260952
-6.45888e-06
0.00026415
-6.39358e-06
0.000267313
-6.32522e-06
0.000270441
-6.25378e-06
0.000273531
-6.1792e-06
0.000276583
-6.10147e-06
0.000279594
-6.02055e-06
0.000282563
-5.93643e-06
0.000285488
-5.84907e-06
0.000288368
-5.75847e-06
0.000291202
-5.66463e-06
0.000293986
-5.56753e-06
0.00029672
-5.46719e-06
0.000299403
-5.3636e-06
0.000302032
-5.25679e-06
0.000304606
-5.14677e-06
0.000307124
-5.03358e-06
0.000309583
-4.91724e-06
0.000311983
-4.79779e-06
0.000314321
-4.67528e-06
0.000316597
-4.54975e-06
0.000318808
-4.42128e-06
0.000320954
-4.28991e-06
0.000323033
-4.15572e-06
0.000325043
-4.01878e-06
0.000326983
-3.87918e-06
0.000328852
-3.737e-06
0.000330649
-3.59234e-06
0.000332372
-3.44528e-06
0.000334021
-3.29595e-06
0.000335593
-3.14444e-06
0.000337089
-2.99087e-06
0.000338507
-2.83536e-06
0.000339847
-2.67802e-06
0.000341107
-2.519e-06
0.000342286
-2.3584e-06
0.000343385
-2.19638e-06
0.000344402
-2.03306e-06
0.000345336
-1.86858e-06
0.000346188
-1.70309e-06
0.000346956
-1.53673e-06
0.000347641
-1.36965e-06
0.000348242
-1.20198e-06
0.000348759
-1.03389e-06
0.000349192
-8.65505e-07
0.000349541
-6.96985e-07
0.000349805
-5.28476e-07
0.000349985
-3.60123e-07
0.000350081
-1.92072e-07
0.000350093
-2.44678e-08
0.000350021
1.42548e-07
0.000349867
3.08835e-07
0.000349629
4.74256e-07
0.00034931
6.38676e-07
0.000348909
8.01963e-07
0.000348426
9.63988e-07
0.000347863
1.12463e-06
0.000347221
1.28376e-06
0.0003465
1.44127e-06
0.000345701
1.59704e-06
0.000344825
1.75096e-06
0.000343873
1.90294e-06
0.000342846
2.05288e-06
0.000341745
2.20068e-06
0.000340572
2.34625e-06
0.000339326
2.48951e-06
0.00033801
2.63038e-06
0.000336625
2.76879e-06
0.000335172
2.90468e-06
0.000333653
3.03798e-06
0.000332068
3.16864e-06
0.000330419
3.2966e-06
0.000328707
3.42182e-06
0.000326934
3.54426e-06
0.000325102
3.66389e-06
0.000323211
3.78068e-06
0.000321263
3.8946e-06
0.000319259
4.00562e-06
0.000317202
4.11375e-06
0.000315091
4.21896e-06
0.00031293
4.32125e-06
0.000310719
4.42063e-06
0.00030846
4.51708e-06
0.000306154
4.61063e-06
0.000303802
4.70128e-06
0.000301407
4.78904e-06
0.000298969
4.87394e-06
0.000296491
4.95599e-06
0.000293972
5.03522e-06
0.000291416
5.11167e-06
0.000288822
5.18535e-06
0.000286194
5.25631e-06
0.000283531
5.32458e-06
0.000280835
5.39019e-06
0.000278108
5.4532e-06
0.00027535
5.51363e-06
0.000272564
5.57155e-06
0.00026975
5.62698e-06
0.000266909
5.67999e-06
0.000264043
5.73062e-06
0.000261153
5.77892e-06
0.00025824
5.82493e-06
0.000255305
5.86873e-06
0.00025235
5.91035e-06
0.000249374
5.94985e-06
0.00024638
5.98729e-06
0.000243368
6.02271e-06
0.00024034
6.05618e-06
0.000237295
6.08776e-06
0.000234236
6.11749e-06
0.000231163
6.14543e-06
0.000228077
6.17164e-06
0.000224978
6.19617e-06
0.000221868
6.21908e-06
0.000218748
6.24042e-06
0.000215617
6.26025e-06
0.000212478
6.27861e-06
0.000209329
6.29557e-06
0.000206174
6.31118e-06
0.00020301
6.32549e-06
0.000199841
6.33855e-06
0.000196665
6.3504e-06
0.000193485
6.36111e-06
0.000190299
6.37072e-06
0.000187109
6.37927e-06
0.000183915
6.38683e-06
0.000180718
6.39342e-06
0.000177519
6.39911e-06
0.000174317
6.40392e-06
0.000171112
6.40792e-06
0.000167907
6.41113e-06
0.0001647
6.41361e-06
0.000161492
6.41539e-06
0.000158283
6.41651e-06
0.000155075
6.41702e-06
0.000151866
6.41695e-06
0.000148658
6.41634e-06
0.00014545
6.41522e-06
0.000142243
6.41363e-06
0.000139037
6.4116e-06
0.000135833
6.40918e-06
0.000132629
6.40638e-06
0.000129428
6.40324e-06
0.000126228
6.3998e-06
0.00012303
6.39608e-06
0.000119833
6.3921e-06
0.000116639
6.38791e-06
0.000113448
6.38352e-06
0.000110258
6.37896e-06
0.000107071
6.37426e-06
0.000103886
6.36943e-06
0.000100704
6.36451e-06
9.75242e-05
6.35952e-06
9.4347e-05
6.35447e-06
9.11723e-05
6.34939e-06
8.80001e-05
6.3443e-06
8.48305e-05
6.33921e-06
8.16634e-05
6.33415e-06
7.84989e-05
6.32914e-06
7.53368e-05
6.32418e-06
7.21772e-05
6.3193e-06
6.902e-05
6.31452e-06
6.58651e-05
6.30983e-06
6.27125e-05
6.30527e-06
5.95621e-05
6.30085e-06
5.64139e-05
6.29656e-06
5.32677e-05
6.29244e-06
5.01235e-05
6.28849e-06
4.69812e-05
6.28471e-06
4.38407e-05
6.28112e-06
4.07018e-05
6.27774e-06
3.75646e-05
6.27455e-06
3.44289e-05
6.27159e-06
3.12945e-05
6.26884e-06
2.81614e-05
6.26633e-06
2.50295e-05
6.26405e-06
2.18985e-05
6.26201e-06
1.87685e-05
6.26021e-06
1.56392e-05
6.25866e-06
1.25106e-05
6.25737e-06
9.38248e-06
6.25633e-06
6.25477e-06
6.25555e-06
3.12732e-06
6.25503e-06
6.25477e-06
3.58337e-06
-1.0751e-05
7.16692e-06
-1.07516e-05
1.07508e-05
-1.07527e-05
1.43353e-05
-1.07543e-05
1.79205e-05
-1.07565e-05
2.15066e-05
-1.07591e-05
2.50938e-05
-1.07624e-05
2.86822e-05
-1.07661e-05
3.2272e-05
-1.07703e-05
3.58634e-05
-1.07749e-05
3.94565e-05
-1.07801e-05
4.30515e-05
-1.07856e-05
4.66485e-05
-1.07916e-05
5.02476e-05
-1.0798e-05
5.3849e-05
-1.08047e-05
5.74527e-05
-1.08117e-05
6.10589e-05
-1.08191e-05
6.46677e-05
-1.08267e-05
6.82791e-05
-1.08345e-05
7.18932e-05
-1.08425e-05
7.551e-05
-1.08507e-05
7.91296e-05
-1.0859e-05
8.27521e-05
-1.08673e-05
8.63773e-05
-1.08757e-05
9.00054e-05
-1.0884e-05
9.36362e-05
-1.08922e-05
9.72697e-05
-1.09003e-05
0.000100906
-1.09081e-05
0.000104545
-1.09158e-05
0.000108186
-1.0923e-05
0.000111829
-1.09299e-05
0.000115475
-1.09364e-05
0.000119123
-1.09423e-05
0.000122773
-1.09476e-05
0.000126424
-1.09523e-05
0.000130076
-1.09561e-05
0.00013373
-1.09592e-05
0.000137384
-1.09613e-05
0.000141039
-1.09625e-05
0.000144694
-1.09626e-05
0.000148348
-1.09614e-05
0.000152002
-1.09591e-05
0.000155655
-1.09553e-05
0.000159306
-1.09502e-05
0.000162954
-1.09434e-05
0.0001666
-1.0935e-05
0.000170243
-1.09249e-05
0.000173882
-1.09129e-05
0.000177516
-1.08989e-05
0.000181145
-1.08829e-05
0.000184767
-1.08647e-05
0.000188384
-1.08442e-05
0.000191992
-1.08213e-05
0.000195592
-1.07959e-05
0.000199183
-1.07679e-05
0.000202764
-1.07372e-05
0.000206333
-1.07036e-05
0.00020989
-1.06671e-05
0.000213435
-1.06275e-05
0.000216965
-1.05848e-05
0.00022048
-1.05387e-05
0.000223978
-1.04893e-05
0.000227459
-1.04363e-05
0.000230921
-1.03798e-05
0.000234363
-1.03195e-05
0.000237783
-1.02554e-05
0.000241181
-1.01874e-05
0.000244555
-1.01154e-05
0.000247904
-1.00393e-05
0.000251226
-9.95902e-06
0.00025452
-9.87443e-06
0.000257784
-9.78548e-06
0.000261018
-9.69208e-06
0.000264218
-9.59418e-06
0.000267385
-9.49169e-06
0.000270516
-9.38457e-06
0.000273609
-9.27275e-06
0.000276664
-9.15619e-06
0.000279678
-9.03484e-06
0.00028265
-8.90867e-06
0.000285579
-8.77766e-06
0.000288462
-8.64177e-06
0.000291299
-8.50101e-06
0.000294086
-8.35536e-06
0.000296824
-8.20483e-06
0.00029951
-8.04943e-06
0.000302142
-7.88919e-06
0.00030472
-7.72413e-06
0.00030724
-7.5543e-06
0.000309703
-7.37974e-06
0.000312106
-7.20051e-06
0.000314447
-7.01668e-06
0.000316726
-6.82832e-06
0.00031894
-6.63553e-06
0.000321088
-6.43839e-06
0.00032317
-6.23701e-06
0.000325182
-6.0315e-06
0.000327125
-5.82199e-06
0.000328997
-5.6086e-06
0.000330796
-5.39148e-06
0.000332521
-5.17078e-06
0.000334172
-4.94664e-06
0.000335747
-4.71924e-06
0.000337245
-4.48873e-06
0.000338665
-4.25531e-06
0.000340006
-4.01915e-06
0.000341267
-3.78045e-06
0.000342448
-3.53939e-06
0.000343548
-3.29618e-06
0.000344566
-3.05103e-06
0.000345502
-2.80414e-06
0.000346354
-2.55573e-06
0.000347124
-2.30601e-06
0.000347809
-2.0552e-06
0.000348411
-1.80352e-06
0.000348928
-1.55118e-06
0.000349361
-1.29843e-06
0.000349709
-1.04546e-06
0.000349973
-7.92517e-07
0.000350153
-5.39806e-07
0.000350248
-2.8755e-07
0.00035026
-3.59651e-08
0.000350188
2.14734e-07
0.000350032
4.64337e-07
0.000349794
7.12637e-07
0.000349473
9.59431e-07
0.000349071
1.20452e-06
0.000348587
1.44771e-06
0.000348023
1.68882e-06
0.000347379
1.92767e-06
0.000346656
2.16407e-06
0.000345855
2.39786e-06
0.000344977
2.62888e-06
0.000344023
2.85697e-06
0.000342994
3.08199e-06
0.000341891
3.3038e-06
0.000340715
3.52226e-06
0.000339467
3.73724e-06
0.000338149
3.94864e-06
0.000336761
4.15635e-06
0.000335306
4.36025e-06
0.000333784
4.56027e-06
0.000332196
4.75632e-06
0.000330544
4.94832e-06
0.00032883
5.13621e-06
0.000327054
5.31991e-06
0.000325219
5.4994e-06
0.000323325
5.6746e-06
0.000321374
5.8455e-06
0.000319367
6.01206e-06
0.000317307
6.17427e-06
0.000315194
6.33209e-06
0.000313029
6.48553e-06
0.000310815
6.63459e-06
0.000308553
6.77926e-06
0.000306244
6.91957e-06
0.00030389
7.05552e-06
0.000301492
7.18714e-06
0.000299051
7.31446e-06
0.00029657
7.43751e-06
0.000294049
7.55632e-06
0.00029149
7.67095e-06
0.000288893
7.78143e-06
0.000286262
7.88782e-06
0.000283596
7.99018e-06
0.000280898
8.08855e-06
0.000278168
8.183e-06
0.000275408
8.27361e-06
0.000272619
8.36042e-06
0.000269803
8.44351e-06
0.00026696
8.52296e-06
0.000264092
8.59884e-06
0.000261199
8.67122e-06
0.000258284
8.74018e-06
0.000255347
8.80581e-06
0.000252389
8.86817e-06
0.000249412
8.92735e-06
0.000246415
8.98344e-06
0.000243402
9.03651e-06
0.000240371
9.08665e-06
0.000237325
9.13394e-06
0.000234264
9.17847e-06
0.000231189
9.22031e-06
0.000228101
9.25955e-06
0.000225001
9.29628e-06
0.00022189
9.33058e-06
0.000218768
9.36252e-06
0.000215636
9.39219e-06
0.000212495
9.41968e-06
0.000209345
9.44505e-06
0.000206188
9.4684e-06
0.000203024
9.4898e-06
0.000199853
9.50932e-06
0.000196676
9.52704e-06
0.000193494
9.54304e-06
0.000190308
9.55739e-06
0.000187117
9.57017e-06
0.000183922
9.58144e-06
0.000180724
9.59127e-06
0.000177524
9.59974e-06
0.000174321
9.60691e-06
0.000171116
9.61285e-06
0.000167909
9.61762e-06
0.000164701
9.62128e-06
0.000161493
9.6239e-06
0.000158284
9.62554e-06
0.000155075
9.62626e-06
0.000151866
9.6261e-06
0.000148657
9.62514e-06
0.000145449
9.62341e-06
0.000142241
9.62099e-06
0.000139035
9.61791e-06
0.00013583
9.61423e-06
0.000132626
9.60999e-06
0.000129424
9.60525e-06
0.000126224
9.60005e-06
0.000123026
9.59443e-06
0.000119829
9.58843e-06
0.000116635
9.58211e-06
0.000113443
9.57549e-06
0.000110253
9.56862e-06
0.000107066
9.56153e-06
0.000103881
9.55427e-06
0.000100699
9.54686e-06
9.75192e-05
9.53934e-06
9.43419e-05
9.53174e-06
9.11672e-05
9.5241e-06
8.7995e-05
9.51644e-06
8.48255e-05
9.50879e-06
8.16584e-05
9.50117e-06
7.8494e-05
9.49363e-06
7.5332e-05
9.48618e-06
7.21724e-05
9.47884e-06
6.90153e-05
9.47164e-06
6.58605e-05
9.4646e-06
6.27081e-05
9.45774e-06
5.95578e-05
9.45109e-06
5.64097e-05
9.44465e-06
5.32637e-05
9.43845e-06
5.01197e-05
9.4325e-06
4.69776e-05
9.42683e-06
4.38373e-05
9.42144e-06
4.06987e-05
9.41634e-06
3.75617e-05
9.41156e-06
3.44261e-05
9.4071e-06
3.1292e-05
9.40298e-06
2.81591e-05
9.3992e-06
2.50274e-05
9.39577e-06
2.18967e-05
9.39271e-06
1.87669e-05
9.39001e-06
1.56379e-05
9.38768e-06
1.25095e-05
9.38573e-06
9.3817e-06
9.38417e-06
6.25425e-06
9.383e-06
3.12706e-06
9.38222e-06
9.38183e-06
3.58282e-06
-1.43338e-05
7.16583e-06
-1.43346e-05
1.07492e-05
-1.4336e-05
1.43331e-05
-1.43382e-05
1.79178e-05
-1.43411e-05
2.15034e-05
-1.43447e-05
2.50901e-05
-1.4349e-05
2.8678e-05
-1.4354e-05
3.22673e-05
-1.43596e-05
3.58583e-05
-1.43659e-05
3.9451e-05
-1.43727e-05
4.30455e-05
-1.43802e-05
4.66421e-05
-1.43882e-05
5.02409e-05
-1.43967e-05
5.38419e-05
-1.44057e-05
5.74454e-05
-1.44152e-05
6.10513e-05
-1.4425e-05
6.46598e-05
-1.44352e-05
6.8271e-05
-1.44457e-05
7.1885e-05
-1.44565e-05
7.55017e-05
-1.44674e-05
7.91213e-05
-1.44785e-05
8.27437e-05
-1.44897e-05
8.6369e-05
-1.45009e-05
8.99971e-05
-1.45121e-05
9.36281e-05
-1.45231e-05
9.72618e-05
-1.4534e-05
0.000100898
-1.45446e-05
0.000104537
-1.45548e-05
0.000108179
-1.45647e-05
0.000111823
-1.4574e-05
0.000115469
-1.45827e-05
0.000119118
-1.45907e-05
0.000122768
-1.45979e-05
0.00012642
-1.46042e-05
0.000130073
-1.46095e-05
0.000133728
-1.46137e-05
0.000137383
-1.46167e-05
0.000141039
-1.46183e-05
0.000144695
-1.46186e-05
0.000148351
-1.46172e-05
0.000152006
-1.46142e-05
0.00015566
-1.46094e-05
0.000159312
-1.46026e-05
0.000162963
-1.45938e-05
0.00016661
-1.45828e-05
0.000170255
-1.45694e-05
0.000173896
-1.45536e-05
0.000177532
-1.45351e-05
0.000181163
-1.45139e-05
0.000184788
-1.44898e-05
0.000188406
-1.44626e-05
0.000192017
-1.44323e-05
0.00019562
-1.43986e-05
0.000199214
-1.43615e-05
0.000202797
-1.43207e-05
0.00020637
-1.42761e-05
0.00020993
-1.42276e-05
0.000213477
-1.4175e-05
0.000217011
-1.41181e-05
0.000220529
-1.40569e-05
0.000224031
-1.39911e-05
0.000227515
-1.39207e-05
0.000230981
-1.38455e-05
0.000234427
-1.37653e-05
0.000237851
-1.368e-05
0.000241253
-1.35895e-05
0.000244632
-1.34936e-05
0.000247985
-1.33923e-05
0.000251311
-1.32853e-05
0.000254609
-1.31727e-05
0.000257878
-1.30542e-05
0.000261116
-1.29298e-05
0.000264321
-1.27994e-05
0.000267492
-1.26628e-05
0.000270627
-1.25201e-05
0.000273726
-1.2371e-05
0.000276785
-1.22157e-05
0.000279804
-1.2054e-05
0.000282781
-1.18858e-05
0.000285715
-1.17111e-05
0.000288603
-1.153e-05
0.000291444
-1.13423e-05
0.000294237
-1.11481e-05
0.00029698
-1.09473e-05
0.00029967
-1.07401e-05
0.000302307
-1.05264e-05
0.00030489
-1.03063e-05
0.000307415
-1.00797e-05
0.000309882
-9.84691e-06
0.000312289
-9.60783e-06
0.000314635
-9.36261e-06
0.000316918
-9.11133e-06
0.000319137
-8.85412e-06
0.00032129
-8.59111e-06
0.000323375
-8.32242e-06
0.000325392
-8.04823e-06
0.000327339
-7.76867e-06
0.000329214
-7.48394e-06
0.000331017
-7.19422e-06
0.000332746
-6.89971e-06
0.0003344
-6.6006e-06
0.000335977
-6.29713e-06
0.000337478
-5.98952e-06
0.000338901
-5.678e-06
0.000340245
-5.36283e-06
0.000341508
-5.04425e-06
0.000342692
-4.72253e-06
0.000343793
-4.39794e-06
0.000344813
-4.07074e-06
0.00034575
-3.74123e-06
0.000346604
-3.40967e-06
0.000347374
-3.07637e-06
0.000348061
-2.74162e-06
0.000348663
-2.4057e-06
0.000349181
-2.06891e-06
0.000349614
-1.73156e-06
0.000349962
-1.39393e-06
0.000350226
-1.05632e-06
0.000350405
-7.19035e-07
0.0003505
-3.82356e-07
0.000350511
-4.65781e-08
0.000350437
2.88015e-07
0.000350281
6.2114e-07
0.000350041
9.52522e-07
0.000349718
1.28189e-06
0.000349314
1.60898e-06
0.000348828
1.93353e-06
0.000348262
2.25529e-06
0.000347615
2.57402e-06
0.00034689
2.88948e-06
0.000346086
3.20146e-06
0.000345205
3.50972e-06
0.000344248
3.81408e-06
0.000343216
4.11432e-06
0.00034211
4.41026e-06
0.00034093
4.70174e-06
0.000339679
4.98857e-06
0.000338357
5.2706e-06
0.000336965
5.54769e-06
0.000335506
5.81972e-06
0.00033398
6.08654e-06
0.000332388
6.34806e-06
0.000330732
6.60416e-06
0.000329014
6.85477e-06
0.000327234
7.09979e-06
0.000325394
7.33917e-06
0.000323496
7.57284e-06
0.00032154
7.80075e-06
0.00031953
8.02287e-06
0.000317465
8.23916e-06
0.000315347
8.4496e-06
0.000313179
8.65419e-06
0.00031096
8.85293e-06
0.000308694
9.04581e-06
0.00030638
9.23286e-06
0.000304022
9.41409e-06
0.000301619
9.58955e-06
0.000299175
9.75925e-06
0.000296689
9.92326e-06
0.000294164
1.00816e-05
0.0002916
1.02344e-05
0.000289
1.03816e-05
0.000286364
1.05234e-05
0.000283695
1.06598e-05
0.000280993
1.07908e-05
0.000278259
1.09167e-05
0.000275495
1.10374e-05
0.000272703
1.1153e-05
0.000269882
1.12637e-05
0.000267036
1.13695e-05
0.000264164
1.14706e-05
0.000261268
1.15669e-05
0.00025835
1.16588e-05
0.000255409
1.17461e-05
0.000252448
1.18292e-05
0.000249468
1.1908e-05
0.000246469
1.19826e-05
0.000243452
1.20532e-05
0.000240419
1.212e-05
0.00023737
1.21829e-05
0.000234306
1.22421e-05
0.000231229
1.22978e-05
0.000228138
1.235e-05
0.000225036
1.23988e-05
0.000221922
1.24444e-05
0.000218797
1.24869e-05
0.000215663
1.25263e-05
0.00021252
1.25629e-05
0.000209368
1.25966e-05
0.000206209
1.26276e-05
0.000203043
1.2656e-05
0.000199871
1.26819e-05
0.000196692
1.27054e-05
0.000193509
1.27266e-05
0.00019032
1.27456e-05
0.000187128
1.27626e-05
0.000183932
1.27775e-05
0.000180733
1.27905e-05
0.000177531
1.28017e-05
0.000174327
1.28111e-05
0.00017112
1.2819e-05
0.000167913
1.28252e-05
0.000164704
1.283e-05
0.000161495
1.28334e-05
0.000158285
1.28355e-05
0.000155075
1.28364e-05
0.000151865
1.28361e-05
0.000148655
1.28347e-05
0.000145446
1.28323e-05
0.000142238
1.2829e-05
0.000139031
1.28248e-05
0.000135826
1.28198e-05
0.000132622
1.28141e-05
0.000129419
1.28077e-05
0.000126218
1.28007e-05
0.00012302
1.27932e-05
0.000119823
1.27851e-05
0.000116629
1.27766e-05
0.000113436
1.27677e-05
0.000110246
1.27585e-05
0.000107059
1.2749e-05
0.000103874
1.27393e-05
0.000100692
1.27293e-05
9.75116e-05
1.27192e-05
9.43343e-05
1.27091e-05
9.11596e-05
1.26988e-05
8.79874e-05
1.26886e-05
8.48179e-05
1.26783e-05
8.16509e-05
1.26681e-05
7.84865e-05
1.2658e-05
7.53246e-05
1.26481e-05
7.21652e-05
1.26382e-05
6.90083e-05
1.26286e-05
6.58537e-05
1.26192e-05
6.27014e-05
1.261e-05
5.95514e-05
1.26011e-05
5.64036e-05
1.25925e-05
5.32578e-05
1.25842e-05
5.01141e-05
1.25763e-05
4.69722e-05
1.25687e-05
4.38322e-05
1.25615e-05
4.06939e-05
1.25546e-05
3.75572e-05
1.25482e-05
3.4422e-05
1.25423e-05
3.12882e-05
1.25368e-05
2.81557e-05
1.25317e-05
2.50244e-05
1.25271e-05
2.1894e-05
1.2523e-05
1.87646e-05
1.25194e-05
1.5636e-05
1.25163e-05
1.2508e-05
1.25137e-05
9.38053e-06
1.25116e-05
6.25347e-06
1.25101e-05
3.12667e-06
1.2509e-05
1.25085e-05
3.58209e-06
-1.79159e-05
7.16437e-06
-1.79169e-05
1.0747e-05
-1.79187e-05
1.43302e-05
-1.79214e-05
1.79142e-05
-1.79251e-05
2.14991e-05
-1.79296e-05
2.50851e-05
-1.7935e-05
2.86723e-05
-1.79413e-05
3.22611e-05
-1.79483e-05
3.58514e-05
-1.79562e-05
3.94435e-05
-1.79648e-05
4.30375e-05
-1.79742e-05
4.66336e-05
-1.79843e-05
5.02319e-05
-1.7995e-05
5.38325e-05
-1.80063e-05
5.74355e-05
-1.80182e-05
6.10411e-05
-1.80306e-05
6.46493e-05
-1.80434e-05
6.82603e-05
-1.80566e-05
7.1874e-05
-1.80702e-05
7.54906e-05
-1.8084e-05
7.91101e-05
-1.8098e-05
8.27325e-05
-1.81121e-05
8.63578e-05
-1.81263e-05
8.9986e-05
-1.81403e-05
9.36172e-05
-1.81543e-05
9.72512e-05
-1.8168e-05
0.000100888
-1.81814e-05
0.000104528
-1.81944e-05
0.00010817
-1.82068e-05
0.000111814
-1.82186e-05
0.000115461
-1.82296e-05
0.00011911
-1.82398e-05
0.000122762
-1.8249e-05
0.000126414
-1.82571e-05
0.000130069
-1.82639e-05
0.000133725
-1.82694e-05
0.000137381
-1.82733e-05
0.000141039
-1.82756e-05
0.000144696
-1.82761e-05
0.000148354
-1.82747e-05
0.000152011
-1.82712e-05
0.000155667
-1.82654e-05
0.000159321
-1.82571e-05
0.000162974
-1.82464e-05
0.000166624
-1.82328e-05
0.000170271
-1.82164e-05
0.000173914
-1.81968e-05
0.000177553
-1.8174e-05
0.000181187
-1.81478e-05
0.000184815
-1.8118e-05
0.000188437
-1.80843e-05
0.000192051
-1.80467e-05
0.000195657
-1.80048e-05
0.000199254
-1.79587e-05
0.000202842
-1.79079e-05
0.000206418
-1.78525e-05
0.000209983
-1.77921e-05
0.000213534
-1.77266e-05
0.000217072
-1.76559e-05
0.000220595
-1.75796e-05
0.000224101
-1.74977e-05
0.000227591
-1.74099e-05
0.000231061
-1.73161e-05
0.000234512
-1.72162e-05
0.000237942
-1.71098e-05
0.000241349
-1.69969e-05
0.000244733
-1.68773e-05
0.000248092
-1.67509e-05
0.000251424
-1.66174e-05
0.000254728
-1.64768e-05
0.000258002
-1.63289e-05
0.000261246
-1.61735e-05
0.000264457
-1.60107e-05
0.000267635
-1.58401e-05
0.000270776
-1.56618e-05
0.000273881
-1.54757e-05
0.000276947
-1.52816e-05
0.000279973
-1.50795e-05
0.000282956
-1.48693e-05
0.000285896
-1.46511e-05
0.000288791
-1.44247e-05
0.000291639
-1.41901e-05
0.000294438
-1.39473e-05
0.000297187
-1.36964e-05
0.000299884
-1.34373e-05
0.000302528
-1.31701e-05
0.000305116
-1.28948e-05
0.000307648
-1.26115e-05
0.000310121
-1.23203e-05
0.000312535
-1.20213e-05
0.000314887
-1.17146e-05
0.000317176
-1.14003e-05
0.0003194
-1.10785e-05
0.000321558
-1.07495e-05
0.000323649
-1.04134e-05
0.000325672
-1.00703e-05
0.000327623
-9.72054e-06
0.000329504
-9.36428e-06
0.000331311
-9.00176e-06
0.000333045
-8.63322e-06
0.000334703
-8.25894e-06
0.000336285
-7.87917e-06
0.00033779
-7.49421e-06
0.000339216
-7.10436e-06
0.000340563
-6.70991e-06
0.00034183
-6.3112e-06
0.000343016
-5.90855e-06
0.000344121
-5.50229e-06
0.000345143
-5.09277e-06
0.000346082
-4.68035e-06
0.000346937
-4.26537e-06
0.000347709
-3.84819e-06
0.000348397
-3.4292e-06
0.000349
-3.00875e-06
0.000349518
-2.58721e-06
0.000349952
-2.16496e-06
0.0003503
-1.74237e-06
0.000350564
-1.31981e-06
0.000350742
-8.97654e-07
0.000350836
-4.76265e-07
0.000350845
-5.60065e-08
0.000350771
3.62762e-07
0.000350612
7.79687e-07
0.00035037
1.19442e-06
0.000350046
1.60663e-06
0.000349639
2.01597e-06
0.00034915
2.42212e-06
0.00034858
2.82478e-06
0.000347931
3.22363e-06
0.000347202
3.61839e-06
0.000346395
4.00876e-06
0.00034551
4.39448e-06
0.000344549
4.77529e-06
0.000343512
5.15094e-06
0.000342401
5.52121e-06
0.000341217
5.88586e-06
0.000339961
6.24468e-06
0.000338634
6.5975e-06
0.000337238
6.94412e-06
0.000335773
7.28437e-06
0.000334241
7.61811e-06
0.000332644
7.9452e-06
0.000330983
8.2655e-06
0.000329259
8.57891e-06
0.000327473
8.88532e-06
0.000325628
9.18465e-06
0.000323724
9.47683e-06
0.000321763
9.76179e-06
0.000319746
1.00395e-05
0.000317675
1.03099e-05
0.000315552
1.0573e-05
0.000313377
1.08287e-05
0.000311153
1.10771e-05
0.000308881
1.13182e-05
0.000306562
1.1552e-05
0.000304197
1.17785e-05
0.000301789
1.19977e-05
0.000299339
1.22097e-05
0.000296847
1.24147e-05
0.000294316
1.26125e-05
0.000291747
1.28033e-05
0.000289142
1.29872e-05
0.000286501
1.31643e-05
0.000283826
1.33347e-05
0.000281118
1.34983e-05
0.00027838
1.36555e-05
0.000275611
1.38062e-05
0.000272813
1.39506e-05
0.000269988
1.40887e-05
0.000267137
1.42208e-05
0.000264261
1.43469e-05
0.00026136
1.44672e-05
0.000258437
1.45818e-05
0.000255493
1.46908e-05
0.000252527
1.47944e-05
0.000249543
1.48927e-05
0.000246539