/*--------------------------------*- C++ -*----------------------------------*\
| =========                 |                                                 |
| \\      /  F ield         | OpenFOAM: The Open Source CFD Toolbox           |
|  \\    /   O peration     | Version:  v2012                                 |
|   \\  /    A nd           | Website:  www.openfoam.com                      |
|    \\/     M anipulation  |                                                 |
\*---------------------------------------------------------------------------*/
FoamFile
{
    version     2.0;
    format      ascii;
    class       volVectorField;
    location    "12.25";
    object      U;
}
// * * * * * * * * * * * * * * * * * * * * * * * * * * * * * * * * * * * * * //

dimensions      [0 1 -1 0 0 0 0];


internalField   nonuniform List<vector> 
65536
(
(0.000730099 -0.000730116 0)
(0.00219033 -0.000730154 0)
(0.00365068 -0.000730228 0)
(0.00511121 -0.000730338 0)
(0.006572 -0.000730484 0)
(0.00803312 -0.000730666 0)
(0.00949463 -0.000730883 0)
(0.0109566 -0.000731133 0)
(0.0124191 -0.000731416 0)
(0.0138823 -0.000731732 0)
(0.015346 -0.000732078 0)
(0.0168105 -0.000732453 0)
(0.0182758 -0.000732856 0)
(0.0197419 -0.000733284 0)
(0.0212089 -0.000733737 0)
(0.0226769 -0.000734212 0)
(0.0241458 -0.000734707 0)
(0.0256157 -0.00073522 0)
(0.0270866 -0.000735748 0)
(0.0285587 -0.000736288 0)
(0.0300318 -0.000736838 0)
(0.031506 -0.000737396 0)
(0.0329814 -0.000737957 0)
(0.0344578 -0.000738518 0)
(0.0359354 -0.000739077 0)
(0.0374141 -0.00073963 0)
(0.038894 -0.000740172 0)
(0.0403749 -0.0007407 0)
(0.0418568 -0.000741211 0)
(0.0433397 -0.000741699 0)
(0.0448236 -0.00074216 0)
(0.0463084 -0.00074259 0)
(0.047794 -0.000742983 0)
(0.0492804 -0.000743336 0)
(0.0507674 -0.000743643 0)
(0.052255 -0.000743899 0)
(0.053743 -0.000744098 0)
(0.0552314 -0.000744234 0)
(0.0567201 -0.000744303 0)
(0.0582087 -0.000744298 0)
(0.0596973 -0.000744213 0)
(0.0611857 -0.000744041 0)
(0.0626736 -0.000743777 0)
(0.0641609 -0.000743415 0)
(0.0656473 -0.000742946 0)
(0.0671328 -0.000742366 0)
(0.0686169 -0.000741666 0)
(0.0700996 -0.00074084 0)
(0.0715804 -0.00073988 0)
(0.0730592 -0.00073878 0)
(0.0745357 -0.000737532 0)
(0.0760095 -0.000736129 0)
(0.0774804 -0.000734564 0)
(0.0789479 -0.000732828 0)
(0.0804119 -0.000730914 0)
(0.0818718 -0.000728816 0)
(0.0833273 -0.000726524 0)
(0.0847781 -0.000724032 0)
(0.0862237 -0.000721332 0)
(0.0876636 -0.000718417 0)
(0.0890975 -0.000715278 0)
(0.090525 -0.00071191 0)
(0.0919454 -0.000708303 0)
(0.0933584 -0.000704452 0)
(0.0947635 -0.000700349 0)
(0.0961601 -0.000695987 0)
(0.0975477 -0.000691359 0)
(0.0989258 -0.00068646 0)
(0.100294 -0.000681281 0)
(0.101651 -0.000675819 0)
(0.102997 -0.000670066 0)
(0.104332 -0.000664017 0)
(0.105654 -0.000657668 0)
(0.106963 -0.000651012 0)
(0.108258 -0.000644047 0)
(0.109539 -0.000636767 0)
(0.110805 -0.000629168 0)
(0.112056 -0.000621248 0)
(0.113291 -0.000613005 0)
(0.114509 -0.000604434 0)
(0.115709 -0.000595535 0)
(0.116891 -0.000586307 0)
(0.118054 -0.000576747 0)
(0.119198 -0.000566857 0)
(0.120322 -0.000556637 0)
(0.121425 -0.000546087 0)
(0.122507 -0.000535209 0)
(0.123566 -0.000524005 0)
(0.124603 -0.000512477 0)
(0.125617 -0.00050063 0)
(0.126606 -0.000488466 0)
(0.127571 -0.000475991 0)
(0.12851 -0.00046321 0)
(0.129424 -0.000450128 0)
(0.130311 -0.000436752 0)
(0.131171 -0.00042309 0)
(0.132004 -0.000409148 0)
(0.132808 -0.000394935 0)
(0.133584 -0.000380459 0)
(0.13433 -0.000365732 0)
(0.135047 -0.000350761 0)
(0.135733 -0.000335558 0)
(0.136389 -0.000320134 0)
(0.137014 -0.000304501 0)
(0.137608 -0.00028867 0)
(0.138169 -0.000272653 0)
(0.138698 -0.000256465 0)
(0.139195 -0.000240117 0)
(0.139659 -0.000223624 0)
(0.14009 -0.000206999 0)
(0.140487 -0.000190256 0)
(0.140851 -0.000173411 0)
(0.141181 -0.000156476 0)
(0.141477 -0.000139468 0)
(0.141739 -0.000122401 0)
(0.141966 -0.00010529 0)
(0.14216 -8.81503e-05 0)
(0.142319 -7.09962e-05 0)
(0.142444 -5.38431e-05 0)
(0.142534 -3.67059e-05 0)
(0.142591 -1.95994e-05 0)
(0.142613 -2.53819e-06 0)
(0.142601 1.44632e-05 0)
(0.142555 3.13906e-05 0)
(0.142475 4.823e-05 0)
(0.142362 6.49676e-05 0)
(0.142215 8.15901e-05 0)
(0.142035 9.80843e-05 0)
(0.141823 0.000114438 0)
(0.141577 0.000130638 0)
(0.1413 0.000146673 0)
(0.140991 0.000162531 0)
(0.14065 0.000178203 0)
(0.140277 0.000193676 0)
(0.139875 0.000208941 0)
(0.139442 0.000223988 0)
(0.138978 0.00023881 0)
(0.138486 0.000253396 0)
(0.137965 0.00026774 0)
(0.137415 0.000281834 0)
(0.136837 0.00029567 0)
(0.136232 0.000309244 0)
(0.1356 0.000322549 0)
(0.134941 0.000335579 0)
(0.134257 0.000348331 0)
(0.133548 0.000360801 0)
(0.132814 0.000372984 0)
(0.132056 0.000384878 0)
(0.131274 0.00039648 0)
(0.130469 0.000407788 0)
(0.129642 0.000418801 0)
(0.128794 0.000429517 0)
(0.127924 0.000439936 0)
(0.127034 0.000450059 0)
(0.126124 0.000459884 0)
(0.125194 0.000469414 0)
(0.124246 0.000478648 0)
(0.123279 0.000487589 0)
(0.122295 0.000496238 0)
(0.121294 0.000504598 0)
(0.120276 0.000512671 0)
(0.119243 0.00052046 0)
(0.118194 0.000527968 0)
(0.117131 0.000535198 0)
(0.116053 0.000542155 0)
(0.114962 0.000548841 0)
(0.113857 0.000555262 0)
(0.112741 0.000561422 0)
(0.111612 0.000567324 0)
(0.110471 0.000572975 0)
(0.109319 0.000578378 0)
(0.108157 0.000583539 0)
(0.106985 0.000588462 0)
(0.105803 0.000593153 0)
(0.104612 0.000597618 0)
(0.103412 0.000601862 0)
(0.102205 0.000605889 0)
(0.100989 0.000609707 0)
(0.0997655 0.00061332 0)
(0.0985352 0.000616733 0)
(0.0972984 0.000619954 0)
(0.0960552 0.000622986 0)
(0.0948062 0.000625836 0)
(0.0935517 0.00062851 0)
(0.092292 0.000631013 0)
(0.0910275 0.000633351 0)
(0.0897585 0.000635529 0)
(0.0884852 0.000637553 0)
(0.0872081 0.000639428 0)
(0.0859274 0.000641159 0)
(0.0846433 0.000642753 0)
(0.0833562 0.000644214 0)
(0.0820663 0.000645548 0)
(0.0807739 0.00064676 0)
(0.0794792 0.000647854 0)
(0.0781824 0.000648836 0)
(0.0768837 0.000649712 0)
(0.0755834 0.000650484 0)
(0.0742817 0.00065116 0)
(0.0729787 0.000651742 0)
(0.0716747 0.000652236 0)
(0.0703697 0.000652646 0)
(0.069064 0.000652977 0)
(0.0677577 0.000653232 0)
(0.066451 0.000653417 0)
(0.065144 0.000653534 0)
(0.0638368 0.000653589 0)
(0.0625296 0.000653584 0)
(0.0612224 0.000653525 0)
(0.0599154 0.000653413 0)
(0.0586087 0.000653254 0)
(0.0573024 0.000653051 0)
(0.0559965 0.000652806 0)
(0.0546911 0.000652523 0)
(0.0533863 0.000652206 0)
(0.0520822 0.000651858 0)
(0.0507789 0.000651481 0)
(0.0494763 0.000651078 0)
(0.0481745 0.000650653 0)
(0.0468737 0.000650208 0)
(0.0455737 0.000649745 0)
(0.0442747 0.000649268 0)
(0.0429766 0.000648778 0)
(0.0416796 0.000648279 0)
(0.0403835 0.000647772 0)
(0.0390885 0.000647259 0)
(0.0377945 0.000646743 0)
(0.0365015 0.000646226 0)
(0.0352096 0.000645709 0)
(0.0339187 0.000645195 0)
(0.0326288 0.000644686 0)
(0.0313399 0.000644182 0)
(0.0300521 0.000643687 0)
(0.0287652 0.0006432 0)
(0.0274793 0.000642724 0)
(0.0261943 0.000642261 0)
(0.0249102 0.000641811 0)
(0.0236271 0.000641375 0)
(0.0223448 0.000640956 0)
(0.0210633 0.000640554 0)
(0.0197826 0.00064017 0)
(0.0185026 0.000639806 0)
(0.0172234 0.000639461 0)
(0.0159448 0.000639138 0)
(0.0146668 0.000638836 0)
(0.0133895 0.000638557 0)
(0.0121126 0.000638302 0)
(0.0108363 0.00063807 0)
(0.00956038 0.000637862 0)
(0.00828487 0.00063768 0)
(0.00700969 0.000637522 0)
(0.00573481 0.00063739 0)
(0.00446016 0.000637285 0)
(0.00318569 0.000637206 0)
(0.00191136 0.000637152 0)
(0.000637113 0.000637126 0)
(0.000730063 -0.00219032 0)
(0.00219023 -0.00219043 0)
(0.0036505 -0.00219065 0)
(0.00511096 -0.00219098 0)
(0.00657168 -0.00219142 0)
(0.00803272 -0.00219197 0)
(0.00949417 -0.00219262 0)
(0.0109561 -0.00219337 0)
(0.0124185 -0.00219422 0)
(0.0138816 -0.00219517 0)
(0.0153453 -0.00219621 0)
(0.0168098 -0.00219733 0)
(0.018275 -0.00219854 0)
(0.0197411 -0.00219983 0)
(0.021208 -0.00220119 0)
(0.0226759 -0.00220262 0)
(0.0241448 -0.00220411 0)
(0.0256146 -0.00220565 0)
(0.0270856 -0.00220723 0)
(0.0285576 -0.00220886 0)
(0.0300307 -0.00221051 0)
(0.0315049 -0.00221218 0)
(0.0329802 -0.00221387 0)
(0.0344567 -0.00221556 0)
(0.0359343 -0.00221724 0)
(0.0374131 -0.0022189 0)
(0.0388929 -0.00222053 0)
(0.0403738 -0.00222212 0)
(0.0418558 -0.00222366 0)
(0.0433388 -0.00222512 0)
(0.0448227 -0.00222651 0)
(0.0463076 -0.00222781 0)
(0.0477933 -0.00222899 0)
(0.0492797 -0.00223006 0)
(0.0507669 -0.00223098 0)
(0.0522546 -0.00223175 0)
(0.0537427 -0.00223236 0)
(0.0552313 -0.00223277 0)
(0.05672 -0.00223298 0)
(0.0582088 -0.00223297 0)
(0.0596976 -0.00223272 0)
(0.0611861 -0.00223222 0)
(0.0626742 -0.00223143 0)
(0.0641617 -0.00223035 0)
(0.0656484 -0.00222895 0)
(0.0671341 -0.00222722 0)
(0.0686185 -0.00222512 0)
(0.0701014 -0.00222265 0)
(0.0715825 -0.00221978 0)
(0.0730616 -0.00221649 0)
(0.0745384 -0.00221275 0)
(0.0760125 -0.00220855 0)
(0.0774837 -0.00220386 0)
(0.0789516 -0.00219866 0)
(0.0804159 -0.00219293 0)
(0.0818762 -0.00218664 0)
(0.0833321 -0.00217977 0)
(0.0847833 -0.0021723 0)
(0.0862293 -0.00216421 0)
(0.0876697 -0.00215547 0)
(0.0891041 -0.00214606 0)
(0.090532 -0.00213597 0)
(0.0919529 -0.00212515 0)
(0.0933664 -0.00211361 0)
(0.094772 -0.0021013 0)
(0.0961691 -0.00208822 0)
(0.0975572 -0.00207435 0)
(0.0989359 -0.00205966 0)
(0.100304 -0.00204413 0)
(0.101662 -0.00202775 0)
(0.103009 -0.00201049 0)
(0.104344 -0.00199235 0)
(0.105667 -0.00197331 0)
(0.106976 -0.00195335 0)
(0.108272 -0.00193245 0)
(0.109554 -0.00191062 0)
(0.110821 -0.00188782 0)
(0.112072 -0.00186407 0)
(0.113308 -0.00183934 0)
(0.114526 -0.00181363 0)
(0.115727 -0.00178693 0)
(0.11691 -0.00175925 0)
(0.118074 -0.00173057 0)
(0.119218 -0.0017009 0)
(0.120343 -0.00167024 0)
(0.121447 -0.00163859 0)
(0.122529 -0.00160595 0)
(0.123589 -0.00157233 0)
(0.124627 -0.00153775 0)
(0.125641 -0.0015022 0)
(0.126631 -0.00146571 0)
(0.127596 -0.00142828 0)
(0.128536 -0.00138993 0)
(0.12945 -0.00135068 0)
(0.130338 -0.00131054 0)
(0.131199 -0.00126954 0)
(0.132032 -0.00122771 0)
(0.132837 -0.00118506 0)
(0.133613 -0.00114163 0)
(0.13436 -0.00109743 0)
(0.135077 -0.00105251 0)
(0.135764 -0.00100689 0)
(0.13642 -0.000960609 0)
(0.137046 -0.000913696 0)
(0.137639 -0.000866191 0)
(0.138201 -0.000818129 0)
(0.138731 -0.00076955 0)
(0.139228 -0.000720493 0)
(0.139692 -0.000670999 0)
(0.140123 -0.00062111 0)
(0.140521 -0.000570869 0)
(0.140885 -0.000520317 0)
(0.141215 -0.0004695 0)
(0.141511 -0.000418461 0)
(0.141773 -0.000367245 0)
(0.142001 -0.000315897 0)
(0.142194 -0.000264462 0)
(0.142353 -0.000212985 0)
(0.142478 -0.00016151 0)
(0.142569 -0.000110084 0)
(0.142625 -5.875e-05 0)
(0.142647 -7.55195e-06 0)
(0.142635 4.34665e-05 0)
(0.142589 9.42627e-05 0)
(0.142509 0.000144794 0)
(0.142395 0.000195021 0)
(0.142248 0.000244901 0)
(0.142068 0.000294396 0)
(0.141855 0.000343469 0)
(0.14161 0.000392081 0)
(0.141332 0.000440197 0)
(0.141022 0.000487784 0)
(0.140681 0.000534807 0)
(0.140308 0.000581237 0)
(0.139905 0.000627042 0)
(0.139471 0.000672194 0)
(0.139008 0.000716666 0)
(0.138515 0.000760433 0)
(0.137993 0.000803471 0)
(0.137443 0.000845759 0)
(0.136864 0.000887275 0)
(0.136259 0.000928002 0)
(0.135626 0.000967921 0)
(0.134967 0.00100702 0)
(0.134282 0.00104528 0)
(0.133572 0.00108269 0)
(0.132838 0.00111924 0)
(0.132079 0.00115493 0)
(0.131297 0.00118973 0)
(0.130492 0.00122366 0)
(0.129664 0.0012567 0)
(0.128815 0.00128885 0)
(0.127945 0.00132011 0)
(0.127054 0.00135047 0)
(0.126143 0.00137995 0)
(0.125213 0.00140854 0)
(0.124264 0.00143624 0)
(0.123297 0.00146306 0)
(0.122312 0.001489 0)
(0.12131 0.00151408 0)
(0.120292 0.0015383 0)
(0.119258 0.00156166 0)
(0.118209 0.00158418 0)
(0.117145 0.00160587 0)
(0.116067 0.00162673 0)
(0.114975 0.00164679 0)
(0.11387 0.00166605 0)
(0.112753 0.00168452 0)
(0.111623 0.00170222 0)
(0.110482 0.00171917 0)
(0.10933 0.00173537 0)
(0.108167 0.00175085 0)
(0.106995 0.00176562 0)
(0.105812 0.00177969 0)
(0.104621 0.00179307 0)
(0.103421 0.0018058 0)
(0.102212 0.00181788 0)
(0.100996 0.00182932 0)
(0.0997724 0.00184016 0)
(0.0985418 0.00185039 0)
(0.0973045 0.00186005 0)
(0.096061 0.00186914 0)
(0.0948117 0.00187768 0)
(0.0935568 0.0018857 0)
(0.0922968 0.0018932 0)
(0.0910319 0.00190021 0)
(0.0897626 0.00190674 0)
(0.0884891 0.0019128 0)
(0.0872116 0.00191842 0)
(0.0859306 0.00192361 0)
(0.0846463 0.00192839 0)
(0.083359 0.00193277 0)
(0.0820688 0.00193676 0)
(0.0807762 0.00194039 0)
(0.0794812 0.00194367 0)
(0.0781842 0.00194661 0)
(0.0768853 0.00194924 0)
(0.0755848 0.00195155 0)
(0.0742829 0.00195357 0)
(0.0729797 0.00195531 0)
(0.0716755 0.00195679 0)
(0.0703704 0.00195802 0)
(0.0690645 0.001959 0)
(0.0677581 0.00195977 0)
(0.0664512 0.00196032 0)
(0.0651441 0.00196066 0)
(0.0638368 0.00196082 0)
(0.0625295 0.00196081 0)
(0.0612222 0.00196062 0)
(0.0599151 0.00196029 0)
(0.0586083 0.00195981 0)
(0.0573019 0.00195919 0)
(0.0559959 0.00195845 0)
(0.0546905 0.0019576 0)
(0.0533856 0.00195665 0)
(0.0520815 0.0019556 0)
(0.0507781 0.00195447 0)
(0.0494754 0.00195325 0)
(0.0481736 0.00195198 0)
(0.0468727 0.00195064 0)
(0.0455727 0.00194925 0)
(0.0442737 0.00194781 0)
(0.0429756 0.00194634 0)
(0.0416785 0.00194484 0)
(0.0403825 0.00194332 0)
(0.0390874 0.00194178 0)
(0.0377934 0.00194023 0)
(0.0365004 0.00193868 0)
(0.0352085 0.00193712 0)
(0.0339176 0.00193558 0)
(0.0326277 0.00193405 0)
(0.0313389 0.00193254 0)
(0.0300511 0.00193105 0)
(0.0287642 0.00192959 0)
(0.0274783 0.00192816 0)
(0.0261934 0.00192677 0)
(0.0249093 0.00192542 0)
(0.0236262 0.00192411 0)
(0.0223439 0.00192285 0)
(0.0210625 0.00192164 0)
(0.0197818 0.00192049 0)
(0.0185019 0.0019194 0)
(0.0172227 0.00191836 0)
(0.0159442 0.00191739 0)
(0.0146663 0.00191648 0)
(0.0133889 0.00191565 0)
(0.0121121 0.00191488 0)
(0.0108358 0.00191418 0)
(0.00955999 0.00191356 0)
(0.00828452 0.00191301 0)
(0.0070094 0.00191254 0)
(0.00573457 0.00191214 0)
(0.00445997 0.00191183 0)
(0.00318556 0.00191159 0)
(0.00191128 0.00191143 0)
(0.000637086 0.00191135 0)
(0.000729989 -0.00365041 0)
(0.00219 -0.00365059 0)
(0.00365013 -0.00365096 0)
(0.00511044 -0.00365151 0)
(0.00657102 -0.00365225 0)
(0.00803192 -0.00365316 0)
(0.00949323 -0.00365425 0)
(0.010955 -0.0036555 0)
(0.0124173 -0.00365693 0)
(0.0138803 -0.00365851 0)
(0.0153439 -0.00366025 0)
(0.0168082 -0.00366213 0)
(0.0182733 -0.00366415 0)
(0.0197393 -0.0036663 0)
(0.0212061 -0.00366858 0)
(0.022674 -0.00367096 0)
(0.0241427 -0.00367345 0)
(0.0256126 -0.00367603 0)
(0.0270834 -0.00367868 0)
(0.0285554 -0.00368139 0)
(0.0300285 -0.00368416 0)
(0.0315026 -0.00368696 0)
(0.032978 -0.00368978 0)
(0.0344545 -0.00369261 0)
(0.0359321 -0.00369542 0)
(0.0374109 -0.0036982 0)
(0.0388907 -0.00370093 0)
(0.0403717 -0.0037036 0)
(0.0418538 -0.00370617 0)
(0.0433369 -0.00370863 0)
(0.0448209 -0.00371096 0)
(0.0463059 -0.00371313 0)
(0.0477918 -0.00371512 0)
(0.0492784 -0.00371691 0)
(0.0507657 -0.00371847 0)
(0.0522536 -0.00371978 0)
(0.053742 -0.0037208 0)
(0.0552308 -0.00372151 0)
(0.0567199 -0.00372189 0)
(0.058209 -0.00372189 0)
(0.0596981 -0.00372149 0)
(0.061187 -0.00372067 0)
(0.0626755 -0.00371938 0)
(0.0641634 -0.0037176 0)
(0.0656505 -0.00371529 0)
(0.0671366 -0.00371243 0)
(0.0686215 -0.00370896 0)
(0.0701049 -0.00370487 0)
(0.0715866 -0.0037001 0)
(0.0730663 -0.00369464 0)
(0.0745436 -0.00368844 0)
(0.0760184 -0.00368146 0)
(0.0774903 -0.00367367 0)
(0.0789589 -0.00366503 0)
(0.0804239 -0.0036555 0)
(0.0818849 -0.00364504 0)
(0.0833417 -0.00363362 0)
(0.0847936 -0.0036212 0)
(0.0862405 -0.00360774 0)
(0.0876818 -0.0035932 0)
(0.0891171 -0.00357754 0)
(0.0905459 -0.00356074 0)
(0.0919678 -0.00354274 0)
(0.0933823 -0.00352352 0)
(0.0947889 -0.00350304 0)
(0.096187 -0.00348126 0)
(0.0975763 -0.00345815 0)
(0.098956 -0.00343369 0)
(0.100326 -0.00340783 0)
(0.101685 -0.00338054 0)
(0.103033 -0.00335181 0)
(0.104369 -0.00332159 0)
(0.105693 -0.00328986 0)
(0.107004 -0.00325661 0)
(0.108301 -0.0032218 0)
(0.109584 -0.00318542 0)
(0.110852 -0.00314744 0)
(0.112105 -0.00310786 0)
(0.113341 -0.00306665 0)
(0.114561 -0.00302381 0)
(0.115763 -0.00297932 0)
(0.116947 -0.00293318 0)
(0.118113 -0.00288539 0)
(0.119259 -0.00283593 0)
(0.120385 -0.00278483 0)
(0.12149 -0.00273207 0)
(0.122573 -0.00267767 0)
(0.123635 -0.00262163 0)
(0.124673 -0.00256398 0)
(0.125689 -0.00250472 0)
(0.12668 -0.00244388 0)
(0.127647 -0.00238148 0)
(0.128588 -0.00231755 0)
(0.129503 -0.0022521 0)
(0.130392 -0.00218519 0)
(0.131254 -0.00211684 0)
(0.132088 -0.00204709 0)
(0.132894 -0.00197598 0)
(0.133671 -0.00190355 0)
(0.134419 -0.00182986 0)
(0.135137 -0.00175496 0)
(0.135825 -0.00167889 0)
(0.136483 -0.00160171 0)
(0.137109 -0.00152349 0)
(0.137703 -0.00144427 0)
(0.138266 -0.00136412 0)
(0.138796 -0.00128311 0)
(0.139294 -0.00120131 0)
(0.139758 -0.00111877 0)
(0.14019 -0.00103557 0)
(0.140588 -0.00095179 0)
(0.140952 -0.000867489 0)
(0.141283 -0.000782745 0)
(0.141579 -0.00069763 0)
(0.141841 -0.00061222 0)
(0.142069 -0.00052659 0)
(0.142263 -0.000440815 0)
(0.142422 -0.00035497 0)
(0.142547 -0.00026913 0)
(0.142637 -0.00018337 0)
(0.142693 -9.77645e-05 0)
(0.142715 -1.23862e-05 0)
(0.142703 7.26922e-05 0)
(0.142656 0.000157399 0)
(0.142576 0.000241664 0)
(0.142462 0.000325419 0)
(0.142314 0.000408597 0)
(0.142134 0.000491131 0)
(0.14192 0.000572959 0)
(0.141674 0.000654019 0)
(0.141396 0.000734252 0)
(0.141085 0.000813599 0)
(0.140743 0.000892007 0)
(0.14037 0.000969422 0)
(0.139966 0.0010458 0)
(0.139531 0.00112108 0)
(0.139067 0.00119523 0)
(0.138573 0.0012682 0)
(0.13805 0.00133995 0)
(0.137499 0.00141046 0)
(0.136919 0.00147967 0)
(0.136312 0.00154757 0)
(0.135679 0.00161412 0)
(0.135019 0.00167929 0)
(0.134333 0.00174307 0)
(0.133622 0.00180544 0)
(0.132886 0.00186637 0)
(0.132126 0.00192585 0)
(0.131343 0.00198387 0)
(0.130536 0.00204042 0)
(0.129708 0.00209549 0)
(0.128857 0.00214907 0)
(0.127986 0.00220117 0)
(0.127094 0.00225178 0)
(0.126182 0.0023009 0)
(0.12525 0.00234854 0)
(0.1243 0.00239471 0)
(0.123332 0.0024394 0)
(0.122346 0.00248264 0)
(0.121343 0.00252442 0)
(0.120324 0.00256477 0)
(0.119289 0.0026037 0)
(0.118238 0.00264122 0)
(0.117173 0.00267736 0)
(0.116094 0.00271212 0)
(0.115001 0.00274553 0)
(0.113895 0.00277762 0)
(0.112777 0.00280839 0)
(0.111646 0.00283788 0)
(0.110504 0.00286611 0)
(0.109351 0.0028931 0)
(0.108187 0.00291888 0)
(0.107014 0.00294347 0)
(0.105831 0.0029669 0)
(0.104638 0.00298919 0)
(0.103437 0.00301038 0)
(0.102228 0.0030305 0)
(0.101011 0.00304955 0)
(0.0997865 0.00306759 0)
(0.0985551 0.00308463 0)
(0.097317 0.0031007 0)
(0.0960728 0.00311584 0)
(0.0948227 0.00313006 0)
(0.0935672 0.0031434 0)
(0.0923065 0.00315589 0)
(0.091041 0.00316755 0)
(0.089771 0.00317841 0)
(0.0884969 0.0031885 0)
(0.0872189 0.00319785 0)
(0.0859373 0.00320648 0)
(0.0846524 0.00321442 0)
(0.0833646 0.0032217 0)
(0.0820739 0.00322835 0)
(0.0807808 0.00323438 0)
(0.0794854 0.00323983 0)
(0.0781879 0.00324471 0)
(0.0768886 0.00324907 0)
(0.0755877 0.00325291 0)
(0.0742854 0.00325626 0)
(0.0729819 0.00325915 0)
(0.0716773 0.0032616 0)
(0.0703719 0.00326362 0)
(0.0690657 0.00326526 0)
(0.067759 0.00326651 0)
(0.0664518 0.00326741 0)
(0.0651444 0.00326798 0)
(0.0638369 0.00326824 0)
(0.0625293 0.00326819 0)
(0.0612218 0.00326788 0)
(0.0599146 0.0032673 0)
(0.0586076 0.00326649 0)
(0.057301 0.00326545 0)
(0.0559948 0.00326421 0)
(0.0546893 0.00326279 0)
(0.0533843 0.00326118 0)
(0.05208 0.00325943 0)
(0.0507765 0.00325753 0)
(0.0494738 0.0032555 0)
(0.0481719 0.00325336 0)
(0.0468709 0.00325112 0)
(0.0455709 0.0032488 0)
(0.0442717 0.0032464 0)
(0.0429736 0.00324394 0)
(0.0416765 0.00324143 0)
(0.0403804 0.00323888 0)
(0.0390854 0.00323631 0)
(0.0377913 0.00323372 0)
(0.0364984 0.00323112 0)
(0.0352064 0.00322853 0)
(0.0339156 0.00322595 0)
(0.0326257 0.0032234 0)
(0.0313369 0.00322087 0)
(0.0300491 0.00321838 0)
(0.0287623 0.00321594 0)
(0.0274764 0.00321356 0)
(0.0261915 0.00321123 0)
(0.0249076 0.00320898 0)
(0.0236245 0.00320679 0)
(0.0223423 0.00320469 0)
(0.0210609 0.00320268 0)
(0.0197803 0.00320075 0)
(0.0185005 0.00319892 0)
(0.0172214 0.0031972 0)
(0.0159429 0.00319558 0)
(0.0146651 0.00319407 0)
(0.0133879 0.00319267 0)
(0.0121112 0.00319139 0)
(0.010835 0.00319022 0)
(0.00955921 0.00318918 0)
(0.00828384 0.00318827 0)
(0.00700882 0.00318748 0)
(0.00573409 0.00318682 0)
(0.0044596 0.00318629 0)
(0.0031853 0.00318589 0)
(0.00191112 0.00318563 0)
(0.000637033 0.0031855 0)
(0.000729877 -0.00511031 0)
(0.00218967 -0.00511057 0)
(0.00364958 -0.00511109 0)
(0.00510967 -0.00511187 0)
(0.00657003 -0.0051129 0)
(0.00803072 -0.00511418 0)
(0.00949182 -0.00511571 0)
(0.0109534 -0.00511747 0)
(0.0124155 -0.00511947 0)
(0.0138783 -0.0051217 0)
(0.0153417 -0.00512414 0)
(0.0168058 -0.00512679 0)
(0.0182708 -0.00512963 0)
(0.0197366 -0.00513266 0)
(0.0212033 -0.00513586 0)
(0.022671 -0.00513921 0)
(0.0241397 -0.00514271 0)
(0.0256094 -0.00514633 0)
(0.0270802 -0.00515006 0)
(0.0285521 -0.00515388 0)
(0.0300251 -0.00515778 0)
(0.0314992 -0.00516172 0)
(0.0329746 -0.00516569 0)
(0.0344511 -0.00516967 0)
(0.0359287 -0.00517363 0)
(0.0374075 -0.00517755 0)
(0.0388875 -0.0051814 0)
(0.0403686 -0.00518516 0)
(0.0418507 -0.00518879 0)
(0.043334 -0.00519227 0)
(0.0448182 -0.00519556 0)
(0.0463034 -0.00519863 0)
(0.0477895 -0.00520146 0)
(0.0492763 -0.005204 0)
(0.0507639 -0.00520622 0)
(0.0522522 -0.00520809 0)
(0.053741 -0.00520956 0)
(0.0552301 -0.00521059 0)
(0.0567196 -0.00521116 0)
(0.0582092 -0.0052112 0)
(0.0596988 -0.0052107 0)
(0.0611882 -0.00520958 0)
(0.0626773 -0.00520783 0)
(0.0641658 -0.00520538 0)
(0.0656536 -0.0052022 0)
(0.0671404 -0.00519823 0)
(0.068626 -0.00519343 0)
(0.0701102 -0.00518775 0)
(0.0715927 -0.00518113 0)
(0.0730732 -0.00517353 0)
(0.0745515 -0.0051649 0)
(0.0760272 -0.00515518 0)
(0.0775001 -0.00514433 0)
(0.0789697 -0.00513228 0)
(0.0804358 -0.00511899 0)
(0.081898 -0.00510441 0)
(0.0833559 -0.00508847 0)
(0.0848091 -0.00507114 0)
(0.0862573 -0.00505234 0)
(0.0876999 -0.00503204 0)
(0.0891365 -0.00501017 0)
(0.0905667 -0.00498669 0)
(0.0919901 -0.00496155 0)
(0.0934061 -0.00493469 0)
(0.0948142 -0.00490606 0)
(0.0962139 -0.00487562 0)
(0.0976048 -0.00484332 0)
(0.0989862 -0.00480911 0)
(0.100358 -0.00477295 0)
(0.101718 -0.00473479 0)
(0.103068 -0.0046946 0)
(0.104406 -0.00465233 0)
(0.105732 -0.00460795 0)
(0.107044 -0.00456143 0)
(0.108344 -0.00451273 0)
(0.109628 -0.00446182 0)
(0.110899 -0.00440867 0)
(0.112153 -0.00435327 0)
(0.113392 -0.0042956 0)
(0.114613 -0.00423563 0)
(0.115818 -0.00417336 0)
(0.117004 -0.00410877 0)
(0.118171 -0.00404186 0)
(0.119319 -0.00397262 0)
(0.120447 -0.00390107 0)
(0.121554 -0.0038272 0)
(0.122639 -0.00375102 0)
(0.123703 -0.00367255 0)
(0.124744 -0.00359182 0)
(0.125761 -0.00350883 0)
(0.126754 -0.00342362 0)
(0.127722 -0.00333622 0)
(0.128666 -0.00324667 0)
(0.129583 -0.00315501 0)
(0.130473 -0.00306128 0)
(0.131337 -0.00296553 0)
(0.132173 -0.00286782 0)
(0.13298 -0.00276821 0)
(0.133759 -0.00266675 0)
(0.134509 -0.00256351 0)
(0.135228 -0.00245857 0)
(0.135917 -0.002352 0)
(0.136576 -0.00224387 0)
(0.137203 -0.00213426 0)
(0.137799 -0.00202327 0)
(0.138362 -0.00191098 0)
(0.138894 -0.00179747 0)
(0.139392 -0.00168285 0)
(0.139858 -0.0015672 0)
(0.14029 -0.00145063 0)
(0.140689 -0.00133323 0)
(0.141054 -0.00121511 0)
(0.141385 -0.00109636 0)
(0.141681 -0.000977095 0)
(0.141944 -0.000857416 0)
(0.142172 -0.000737429 0)
(0.142366 -0.000617239 0)
(0.142525 -0.000496951 0)
(0.14265 -0.00037667 0)
(0.14274 -0.000256503 0)
(0.142796 -0.000136552 0)
(0.142817 -1.69208e-05 0)
(0.142805 0.000102289 0)
(0.142758 0.000220977 0)
(0.142677 0.000339044 0)
(0.142562 0.000456395 0)
(0.142414 0.000572935 0)
(0.142233 0.000688573 0)
(0.142018 0.000803218 0)
(0.141771 0.000916785 0)
(0.141491 0.00102919 0)
(0.14118 0.00114035 0)
(0.140837 0.0012502 0)
(0.140462 0.00135865 0)
(0.140057 0.00146564 0)
(0.139621 0.0015711 0)
(0.139155 0.00167496 0)
(0.13866 0.00177718 0)
(0.138135 0.00187769 0)
(0.137583 0.00197644 0)
(0.137002 0.00207338 0)
(0.136393 0.00216848 0)
(0.135758 0.00226168 0)
(0.135096 0.00235296 0)
(0.134409 0.00244228 0)
(0.133696 0.00252962 0)
(0.132958 0.00261494 0)
(0.132197 0.00269823 0)
(0.131411 0.00277948 0)
(0.130603 0.00285865 0)
(0.129773 0.00293576 0)
(0.128921 0.00301078 0)
(0.128047 0.00308372 0)
(0.127153 0.00315457 0)
(0.12624 0.00322334 0)
(0.125307 0.00329003 0)
(0.124355 0.00335465 0)
(0.123385 0.00341721 0)
(0.122397 0.00347772 0)
(0.121392 0.0035362 0)
(0.120371 0.00359267 0)
(0.119335 0.00364715 0)
(0.118283 0.00369966 0)
(0.117216 0.00375022 0)
(0.116135 0.00379886 0)
(0.11504 0.00384561 0)
(0.113933 0.0038905 0)
(0.112813 0.00393355 0)
(0.111681 0.0039748 0)
(0.110537 0.00401428 0)
(0.109383 0.00405204 0)
(0.108218 0.00408809 0)
(0.107043 0.00412248 0)
(0.105858 0.00415524 0)
(0.104664 0.00418642 0)
(0.103462 0.00421605 0)
(0.102251 0.00424417 0)
(0.101033 0.00427081 0)
(0.0998075 0.00429602 0)
(0.0985749 0.00431984 0)
(0.0973358 0.0043423 0)
(0.0960904 0.00436345 0)
(0.0948393 0.00438332 0)
(0.0935827 0.00440196 0)
(0.092321 0.0044194 0)
(0.0910545 0.00443569 0)
(0.0897836 0.00445086 0)
(0.0885085 0.00446494 0)
(0.0872296 0.00447799 0)
(0.0859472 0.00449004 0)
(0.0846616 0.00450112 0)
(0.0833729 0.00451128 0)
(0.0820815 0.00452054 0)
(0.0807877 0.00452895 0)
(0.0794916 0.00453654 0)
(0.0781935 0.00454335 0)
(0.0768935 0.00454941 0)
(0.0755921 0.00455475 0)
(0.0742892 0.00455941 0)
(0.0729851 0.00456343 0)
(0.07168 0.00456682 0)
(0.0703741 0.00456963 0)
(0.0690674 0.00457189 0)
(0.0677603 0.00457361 0)
(0.0664527 0.00457485 0)
(0.0651449 0.00457562 0)
(0.063837 0.00457594 0)
(0.0625291 0.00457586 0)
(0.0612213 0.00457539 0)
(0.0599137 0.00457456 0)
(0.0586065 0.0045734 0)
(0.0572996 0.00457192 0)
(0.0559932 0.00457016 0)
(0.0546874 0.00456814 0)
(0.0533823 0.00456588 0)
(0.0520778 0.0045634 0)
(0.0507742 0.00456072 0)
(0.0494713 0.00455786 0)
(0.0481693 0.00455484 0)
(0.0468682 0.00455169 0)
(0.045568 0.00454842 0)
(0.0442688 0.00454504 0)
(0.0429706 0.00454158 0)
(0.0416735 0.00453805 0)
(0.0403773 0.00453447 0)
(0.0390823 0.00453085 0)
(0.0377882 0.00452721 0)
(0.0364953 0.00452357 0)
(0.0352033 0.00451992 0)
(0.0339125 0.0045163 0)
(0.0326227 0.00451271 0)
(0.0313339 0.00450916 0)
(0.0300461 0.00450567 0)
(0.0287594 0.00450224 0)
(0.0274736 0.00449889 0)
(0.0261888 0.00449563 0)
(0.0249049 0.00449246 0)
(0.0236219 0.0044894 0)
(0.0223398 0.00448645 0)
(0.0210585 0.00448362 0)
(0.0197781 0.00448092 0)
(0.0184983 0.00447835 0)
(0.0172193 0.00447593 0)
(0.015941 0.00447365 0)
(0.0146633 0.00447153 0)
(0.0133863 0.00446957 0)
(0.0121097 0.00446777 0)
(0.0108336 0.00446614 0)
(0.00955803 0.00446468 0)
(0.00828282 0.0044634 0)
(0.00700795 0.00446229 0)
(0.00573338 0.00446136 0)
(0.00445904 0.00446062 0)
(0.0031849 0.00446006 0)
(0.00191088 0.00445969 0)
(0.000636953 0.00445951 0)
(0.000729728 -0.00656995 0)
(0.00218922 -0.00657029 0)
(0.00364883 -0.00657096 0)
(0.00510863 -0.00657197 0)
(0.0065687 -0.0065733 0)
(0.0080291 -0.00657495 0)
(0.00948993 -0.00657693 0)
(0.0109512 -0.00657921 0)
(0.0124131 -0.00658179 0)
(0.0138756 -0.00658467 0)
(0.0153388 -0.00658782 0)
(0.0168027 -0.00659125 0)
(0.0182674 -0.00659492 0)
(0.019733 -0.00659884 0)
(0.0211996 -0.00660297 0)
(0.0226671 -0.00660731 0)
(0.0241356 -0.00661184 0)
(0.0256052 -0.00661652 0)
(0.0270758 -0.00662135 0)
(0.0285476 -0.0066263 0)
(0.0300206 -0.00663134 0)
(0.0314947 -0.00663645 0)
(0.03297 -0.00664159 0)
(0.0344465 -0.00664675 0)
(0.0359242 -0.00665189 0)
(0.037403 -0.00665697 0)
(0.0388831 -0.00666197 0)
(0.0403643 -0.00666685 0)
(0.0418466 -0.00667157 0)
(0.04333 -0.00667609 0)
(0.0448145 -0.00668038 0)
(0.0463 -0.00668439 0)
(0.0477863 -0.00668808 0)
(0.0492736 -0.00669141 0)
(0.0507616 -0.00669433 0)
(0.0522502 -0.00669679 0)
(0.0537395 -0.00669875 0)
(0.0552292 -0.00670015 0)
(0.0567192 -0.00670094 0)
(0.0582094 -0.00670108 0)
(0.0596996 -0.0067005 0)
(0.0611898 -0.00669915 0)
(0.0626796 -0.00669697 0)
(0.0641689 -0.0066939 0)
(0.0656576 -0.00668989 0)
(0.0671453 -0.00668487 0)
(0.0686319 -0.00667878 0)
(0.0701171 -0.00667156 0)
(0.0716007 -0.00666314 0)
(0.0730824 -0.00665346 0)
(0.0745619 -0.00664245 0)
(0.0760389 -0.00663004 0)
(0.0775131 -0.00661618 0)
(0.0789841 -0.00660078 0)
(0.0804517 -0.00658379 0)
(0.0819154 -0.00656513 0)
(0.0833749 -0.00654473 0)
(0.0848297 -0.00652253 0)
(0.0862795 -0.00649846 0)
(0.0877239 -0.00647244 0)
(0.0891623 -0.00644442 0)
(0.0905945 -0.00641432 0)
(0.0920197 -0.00638208 0)
(0.0934377 -0.00634763 0)
(0.0948479 -0.00631091 0)
(0.0962497 -0.00627185 0)
(0.0976427 -0.0062304 0)
(0.0990263 -0.00618649 0)
(0.1004 -0.00614007 0)
(0.101763 -0.00609108 0)
(0.103115 -0.00603947 0)
(0.104456 -0.00598519 0)
(0.105784 -0.00592819 0)
(0.107099 -0.00586843 0)
(0.1084 -0.00580586 0)
(0.109688 -0.00574045 0)
(0.110961 -0.00567216 0)
(0.112218 -0.00560097 0)
(0.113459 -0.00552684 0)
(0.114683 -0.00544976 0)
(0.11589 -0.00536971 0)
(0.117079 -0.00528668 0)
(0.118249 -0.00520066 0)
(0.1194 -0.00511164 0)
(0.12053 -0.00501963 0)
(0.12164 -0.00492463 0)
(0.122728 -0.00482667 0)
(0.123794 -0.00472575 0)
(0.124837 -0.0046219 0)
(0.125857 -0.00451516 0)
(0.126853 -0.00440555 0)
(0.127824 -0.00429312 0)
(0.128769 -0.00417791 0)
(0.129689 -0.00405998 0)
(0.130582 -0.00393939 0)
(0.131448 -0.00381619 0)
(0.132286 -0.00369046 0)
(0.133095 -0.00356228 0)
(0.133876 -0.00343172 0)
(0.134628 -0.00329887 0)
(0.135349 -0.00316382 0)
(0.13604 -0.00302666 0)
(0.1367 -0.0028875 0)
(0.137329 -0.00274643 0)
(0.137927 -0.00260358 0)
(0.138492 -0.00245905 0)
(0.139024 -0.00231295 0)
(0.139524 -0.00216542 0)
(0.139991 -0.00201656 0)
(0.140424 -0.00186651 0)
(0.140824 -0.00171539 0)
(0.141189 -0.00156335 0)
(0.141521 -0.00141049 0)
(0.141818 -0.00125697 0)
(0.142081 -0.00110292 0)
(0.14231 -0.000948472 0)
(0.142503 -0.000793761 0)
(0.142663 -0.000638924 0)
(0.142787 -0.000484099 0)
(0.142877 -0.000329419 0)
(0.142933 -0.00017502 0)
(0.142954 -2.10344e-05 0)
(0.142941 0.000132407 0)
(0.142893 0.000285174 0)
(0.142811 0.00043714 0)
(0.142696 0.000588182 0)
(0.142547 0.000738176 0)
(0.142364 0.000887006 0)
(0.142149 0.00103455 0)
(0.1419 0.00118071 0)