/*--------------------------------*- C++ -*----------------------------------*\
| =========                 |                                                 |
| \\      /  F ield         | OpenFOAM: The Open Source CFD Toolbox           |
|  \\    /   O peration     | Version:  v2012                                 |
|   \\  /    A nd           | Website:  www.openfoam.com                      |
|    \\/     M anipulation  |                                                 |
\*---------------------------------------------------------------------------*/
FoamFile
{
    version     2.0;
    format      ascii;
    class       volVectorField;
    location    "0";
    object      uRec;
}
// * * * * * * * * * * * * * * * * * * * * * * * * * * * * * * * * * * * * * //

dimensions      [0 1 -1 0 0 0 0];


internalField   nonuniform List<vector> 
4000
(
(1 5.98097e-16 0)
(1 3.20811e-16 0)
(1 -5.02785e-16 0)
(1 1.80877e-16 0)
(1 2.12136e-17 0)
(1 6.64913e-17 0)
(1 3.8527e-16 0)
(1 4.81732e-16 0)
(1 1.65256e-15 0)
(1 -9.08023e-16 0)
(1 -9.12678e-16 0)
(1 3.02937e-16 0)
(1 8.48961e-16 0)
(1 7.05822e-16 0)
(1 5.48588e-16 0)
(1 4.49817e-16 0)
(1 -3.36118e-16 0)
(1 -4.29606e-16 0)
(1 7.4447e-16 0)
(1 3.1861e-16 0)
(1 1.53544e-16 0)
(1 -1.22306e-15 0)
(1 -6.86538e-16 0)
(1 -3.45782e-16 0)
(1 -8.85969e-17 0)
(1 -1.41329e-16 0)
(1 3.20783e-16 0)
(1 2.31833e-16 0)
(1 9.00379e-16 0)
(1 7.98927e-16 0)
(1 1.2427e-15 0)
(1 4.3771e-17 0)
(1 -3.86735e-16 0)
(1 -3.0636e-16 0)
(1 -2.4703e-16 0)
(1 -1.49253e-16 0)
(1 4.26614e-16 0)
(1 1.04012e-15 0)
(1 8.12586e-18 0)
(1 -6.04017e-16 0)
(1 -2.11197e-16 0)
(1 -6.04779e-16 0)
(1 -2.94843e-16 0)
(1 1.09479e-15 0)
(1 4.20497e-16 0)
(1 -1.80588e-16 0)
(1 2.15812e-16 0)
(1 4.16264e-16 0)
(1 1.37523e-16 0)
(1 1.57257e-16 0)
(1 6.81884e-16 0)
(1 6.74639e-16 0)
(1 1.1193e-15 0)
(1 1.0946e-15 0)
(1 1.15818e-15 0)
(1 6.18391e-16 0)
(1 1.52578e-16 0)
(1 3.66888e-17 0)
(1 -1.88029e-16 0)
(1 6.92036e-17 0)
(1 -2.58497e-16 0)
(1 1.39222e-16 0)
(1 3.88952e-16 0)
(1 4.30068e-16 0)
(1 -3.12308e-16 0)
(1 2.21069e-16 0)
(1 -4.27179e-16 0)
(1 6.85921e-16 0)
(1 -6.89595e-17 0)
(1 -2.59009e-16 0)
(1 -5.37361e-16 0)
(1 2.56489e-16 0)
(1 -5.20562e-16 0)
(1 -5.47777e-16 0)
(1 -1.03485e-15 0)
(1 -4.62163e-16 0)
(1 -2.13175e-16 0)
(1 1.29709e-16 0)
(1 1.81363e-16 0)
(1 2.81254e-16 0)
(1 3.44244e-16 0)
(1 5.00947e-16 0)
(1 -1.23707e-16 0)
(1 -2.48537e-16 0)
(1 -8.90302e-16 0)
(1 -3.82153e-16 0)
(1 9.89835e-16 0)
(1 8.01816e-16 0)
(1 3.31214e-16 0)
(1 1.22516e-15 0)
(1 1.43323e-16 0)
(1 5.00122e-16 0)
(1 -7.30576e-17 0)
(1 8.08065e-17 0)
(1 -2.18729e-16 0)
(1 2.87869e-16 0)
(1 2.60474e-16 0)
(1 -1.91508e-16 0)
(1 -4.8008e-16 0)
(1 -4.47633e-16 0)
(1 7.02248e-16 0)
(1 3.81229e-16 0)
(1 -6.81164e-17 0)
(1 4.4711e-16 0)
(1 2.25872e-16 0)
(1 2.98412e-17 0)
(1 6.80509e-16 0)
(1 8.01725e-16 0)
(1 2.27098e-15 0)
(1 2.48752e-16 0)
(1 1.24692e-16 0)
(1 4.6543e-18 0)
(1 9.7213e-16 0)
(1 5.87254e-16 0)
(1 7.96104e-16 0)
(1 1.32358e-15 0)
(1 5.00566e-17 0)
(1 -3.04132e-16 0)
(1 6.76133e-16 0)
(1 3.58557e-16 0)
(1 1.13068e-15 0)
(1 -1.10719e-15 0)
(1 -2.67158e-16 0)
(1 -3.73214e-16 0)
(1 2.03219e-16 0)
(1 -2.29019e-16 0)
(1 1.48052e-16 0)
(1 -3.9109e-16 0)
(1 1.1013e-15 0)
(1 6.9626e-16 0)
(1 9.98114e-16 0)
(1 3.41595e-16 0)
(1 -5.17863e-16 0)
(1 2.2351e-16 0)
(1 6.29018e-16 0)
(1 3.11996e-16 0)
(1 9.03572e-16 0)
(1 1.40631e-15 0)
(1 -9.68041e-16 0)
(1 -1.18527e-15 0)
(1 -9.70455e-16 0)
(1 -6.21636e-16 0)
(1 2.44191e-16 0)
(1 1.6044e-15 0)
(1 1.36852e-15 0)
(1 5.51256e-16 0)
(1 9.02986e-16 0)
(1 1.18318e-15 0)
(1 1.26559e-15 0)
(1 1.03581e-15 0)
(1 7.4029e-16 0)
(1 5.33154e-16 0)
(1 9.56496e-16 0)
(1 1.20728e-15 0)
(1 1.32654e-15 0)
(1 8.95868e-16 0)
(1 8.6738e-16 0)
(1 1.18105e-15 0)
(1 5.75006e-16 0)
(1 4.27946e-16 0)
(1 8.35127e-16 0)
(1 4.2292e-16 0)
(1 9.65712e-16 0)
(1 8.84783e-16 0)
(1 6.20268e-17 0)
(1 1.03153e-16 0)
(1 -7.79565e-16 0)
(1 2.11193e-16 0)
(1 2.74072e-16 0)
(1 -3.36134e-16 0)
(1 1.0039e-16 0)
(1 1.93894e-16 0)
(1 8.45995e-16 0)
(1 2.8723e-16 0)
(1 5.22371e-16 0)
(1 6.15703e-17 0)
(1 3.77995e-16 0)
(1 7.58276e-16 0)
(1 9.266e-16 0)
(1 1.47033e-15 0)
(1 8.99335e-16 0)
(1 3.339e-16 0)
(1 3.62216e-17 0)
(1 -1.95404e-16 0)
(1 -8.09628e-16 0)
(1 -1.2911e-16 0)
(1 3.96993e-16 0)
(1 1.12274e-15 0)
(1 4.99439e-17 0)
(1 1.1604e-15 0)
(1 2.6287e-16 0)
(1 3.95089e-16 0)
(1 -1.32871e-16 0)
(1 6.0611e-16 0)
(1 -4.99053e-16 0)
(1 1.02076e-15 0)
(1 3.05061e-16 0)
(1 -2.97805e-16 0)
(1 -7.14091e-16 0)
(1 -9.83721e-16 0)
(1 -1.77501e-16 0)
(1 6.13892e-16 0)
(1 -6.53572e-16 0)
(1 5.79852e-16 0)
(1 2.05945e-16 0)
(1 7.56959e-16 0)
(1 1.26193e-15 0)
(1 2.07499e-15 0)
(1 1.10369e-15 0)
(1 1.13985e-15 0)
(1 1.37416e-15 0)
(1 1.29313e-15 0)
(1 1.26236e-15 0)
(1 2.25048e-15 0)
(1 1.11764e-15 0)
(1 7.85486e-16 0)
(1 4.05689e-16 0)
(1 1.26537e-15 0)
(1 -1.42794e-16 0)
(1 9.1938e-16 0)
(1 8.47269e-16 0)
(1 2.37865e-16 0)
(1 -1.57138e-16 0)
(1 -1.42934e-16 0)
(1 1.16131e-15 0)
(1 3.8268e-16 0)
(1 1.37912e-15 0)
(1 -1.34187e-16 0)
(1 1.54488e-15 0)
(1 1.00579e-15 0)
(1 5.92447e-16 0)
(1 3.89819e-16 0)
(1 2.47946e-16 0)
(1 6.74656e-16 0)
(1 6.36708e-16 0)
(1 9.65017e-16 0)
(1 3.84029e-16 0)
(1 1.3692e-15 0)
(1 2.94308e-16 0)
(1 -1.3106e-15 0)
(1 -5.56192e-16 0)
(1 -6.40516e-16 0)
(1 1.38104e-16 0)
(1 4.72624e-16 0)
(1 1.10676e-15 0)
(1 1.29964e-15 0)
(1 2.50378e-15 0)
(1 2.3643e-15 0)
(1 1.80622e-15 0)
(1 1.40433e-15 0)
(1 2.29226e-15 0)
(1 1.43638e-15 0)
(1 1.64683e-15 0)
(1 1.12257e-15 0)
(1 1.57171e-15 0)
(1 2.09603e-15 0)
(1 1.93496e-15 0)
(1 2.13322e-15 0)
(1 1.93707e-15 0)
(1 6.81088e-16 0)
(1 7.10995e-16 0)
(1 4.54664e-16 0)
(1 7.90052e-16 0)
(1 5.84382e-16 0)
(1 6.78476e-16 0)
(1 3.22974e-16 0)
(1 9.22273e-17 0)
(1 2.56274e-16 0)
(1 9.14985e-16 0)
(1 2.66149e-16 0)
(1 3.48448e-16 0)
(1 -6.44401e-16 0)
(1 -2.34539e-16 0)
(1 4.01663e-17 0)
(1 6.30447e-16 0)
(1 5.41618e-17 0)
(1 3.2749e-16 0)
(1 -1.08409e-16 0)
(1 8.78623e-16 0)
(1 4.71115e-16 0)
(1 8.65132e-16 0)
(1 4.99918e-17 0)
(1 4.19046e-16 0)
(1 1.91912e-16 0)
(1 4.834e-16 0)
(1 6.84126e-16 0)
(1 1.67312e-16 0)
(1 1.27002e-15 0)
(1 1.36569e-16 0)
(1 8.46597e-16 0)
(1 -1.20735e-16 0)
(1 6.60666e-16 0)
(1 8.30828e-17 0)
(1 1.02755e-15 0)
(1 7.87629e-17 0)
(1 9.9367e-16 0)
(1 3.91162e-17 0)
(1 -4.37515e-16 0)
(1 -2.85188e-16 0)
(1 -8.00563e-16 0)
(1 4.67872e-16 0)
(1 -5.29931e-16 0)
(1 -5.92161e-16 0)
(1 -8.89688e-16 0)
(1 2.0776e-15 0)
(1 1.62452e-15 0)
(1 2.76467e-15 0)
(1 1.94729e-15 0)
(1 1.06224e-15 0)
(1 6.72382e-16 0)
(1 1.19469e-15 0)
(1 1.80859e-15 0)
(1 1.20562e-15 0)
(1 3.40248e-15 0)
(1 2.8928e-15 0)
(1 8.18707e-16 0)
(1 1.3765e-15 0)
(1 8.06989e-16 0)
(1 2.34611e-16 0)
(1 1.29992e-15 0)
(1 5.82871e-16 0)
(1 1.23277e-15 0)
(1 3.87583e-16 0)
(1 1.17643e-15 0)
(1 1.89611e-15 0)
(1 1.4197e-15 0)
(1 2.17996e-15 0)
(1 7.41852e-16 0)
(1 2.41279e-15 0)
(1 8.41364e-16 0)
(1 1.29908e-15 0)
(1 -7.53107e-17 0)
(1 6.54544e-17 0)
(1 -7.21606e-16 0)
(1 -3.64201e-16 0)
(1 1.33896e-16 0)
(1 2.51066e-16 0)
(1 1.46428e-16 0)
(1 1.59875e-15 0)
(1 1.04309e-16 0)
(1 1.38337e-15 0)
(1 4.85655e-16 0)
(1 4.13994e-16 0)
(1 9.38163e-16 0)
(1 1.13946e-15 0)
(1 2.33052e-15 0)
(1 2.72777e-15 0)
(1 3.24832e-15 0)
(1 2.41129e-15 0)
(1 2.14529e-15 0)
(1 2.87312e-15 0)
(1 2.44789e-15 0)
(1 2.20107e-15 0)
(1 1.86696e-15 0)
(1 2.34623e-15 0)
(1 2.74944e-15 0)
(1 2.52544e-15 0)
(1 1.96635e-15 0)
(1 2.26157e-15 0)
(1 1.64768e-15 0)
(1 1.58332e-15 0)
(1 4.10192e-16 0)
(1 8.01174e-16 0)
(1 1.22762e-15 0)
(1 9.95672e-16 0)
(1 9.43576e-16 0)
(1 7.45993e-16 0)
(1 4.34597e-16 0)
(1 -1.26236e-16 0)
(1 -4.61348e-16 0)
(1 -4.1667e-16 0)
(1 -6.92045e-16 0)
(1 -6.64679e-16 0)
(1 -4.28052e-16 0)
(1 1.67971e-16 0)
(1 1.04268e-15 0)
(1 1.34417e-15 0)
(1 7.58214e-16 0)
(1 1.4562e-15 0)
(1 1.06876e-16 0)
(1 6.14075e-16 0)
(1 1.15956e-15 0)
(1 5.52197e-17 0)
(1 4.65961e-16 0)
(1 5.8958e-16 0)
(1 7.69927e-16 0)
(1 2.03032e-15 0)
(1 1.36824e-15 0)
(1 1.62038e-15 0)
(1 1.37211e-15 0)
(1 5.29804e-16 0)
(1 1.20884e-15 0)
(1 8.21045e-16 0)
(1 1.05997e-15 0)
(1 2.6598e-16 0)
(1 1.19929e-16 0)
(1 -3.58037e-16 0)
(1 -3.34459e-16 0)
(1 -1.21535e-15 0)
(1 -1.00917e-15 0)
(1 9.93959e-16 0)
(1 -1.90857e-16 0)
(1 1.17331e-15 0)
(1 2.37358e-17 0)
(1 2.3749e-15 0)
(1 1.57942e-15 0)
(1 1.22166e-15 0)
(1 5.44878e-16 0)
(1 1.19686e-15 0)
(1 1.4794e-15 0)
(1 2.36439e-15 0)
(1 2.70539e-15 0)
(1 2.46184e-15 0)
(1 1.60595e-15 0)
(1 2.78278e-15 0)
(1 2.21283e-15 0)
(1 2.28736e-15 0)
(1 8.75017e-17 0)
(1 6.3423e-17 0)
(1 -3.61272e-16 0)
(1 1.14601e-15 0)
(1 2.08371e-15 0)
(1 2.32652e-15 0)
(1 1.55052e-15 0)
(1 8.87022e-16 0)
(1 1.13504e-15 0)
(1 6.49615e-16 0)
(1 1.43497e-15 0)
(1 1.58162e-15 0)
(1 8.43557e-16 0)
(1 3.71546e-16 0)
(1 1.10713e-15 0)
(1 1.99397e-16 0)
(1 1.26978e-15 0)
(1 -3.17034e-16 0)
(1 -3.91137e-16 0)
(1 3.42303e-16 0)
(1 -7.04708e-16 0)
(1 5.57245e-16 0)
(1 8.58071e-16 0)
(1 1.11327e-15 0)
(1 1.24834e-16 0)
(1 2.39137e-16 0)
(1 6.71835e-16 0)
(1 1.35224e-15 0)
(1 3.07933e-15 0)
(1 2.33408e-15 0)
(1 4.10855e-15 0)
(1 3.81243e-15 0)
(1 3.68319e-15 0)
(1 2.07511e-15 0)
(1 2.31733e-15 0)
(1 1.90744e-15 0)
(1 2.72166e-15 0)
(1 2.791e-15 0)
(1 2.36073e-15 0)
(1 3.01456e-15 0)
(1 2.40258e-15 0)
(1 2.4715e-15 0)
(1 2.993e-15 0)
(1 2.81214e-15 0)
(1 1.13542e-15 0)
(1 1.64389e-15 0)
(1 1.43098e-15 0)
(1 2.12209e-15 0)
(1 2.00714e-15 0)
(1 2.10078e-15 0)
(1 6.23308e-16 0)
(1 -1.70791e-16 0)
(1 2.5533e-16 0)
(1 -2.6148e-16 0)
(1 -1.8768e-17 0)
(1 8.94664e-16 0)
(1 1.56527e-16 0)
(1 8.49821e-16 0)
(1 7.3245e-16 0)
(1 1.28439e-15 0)
(1 1.5239e-15 0)
(1 1.24933e-15 0)
(1 1.55161e-15 0)
(1 4.77829e-16 0)
(1 7.45113e-16 0)
(1 3.11084e-17 0)
(1 7.83266e-16 0)
(1 1.337e-15 0)
(1 1.55319e-15 0)
(1 1.79601e-15 0)
(1 9.30156e-16 0)
(1 1.89406e-15 0)
(1 6.21373e-16 0)
(1 1.75899e-15 0)
(1 8.10306e-16 0)
(1 1.42806e-15 0)
(1 1.12236e-15 0)
(1 1.2652e-15 0)
(1 1.46393e-16 0)
(1 -3.66885e-16 0)
(1 1.62561e-16 0)
(1 -4.57126e-16 0)
(1 1.07063e-16 0)
(1 -4.74842e-17 0)
(1 9.49508e-16 0)
(1 1.95042e-15 0)
(1 2.01119e-15 0)
(1 1.30743e-15 0)
(1 8.22418e-16 0)
(1 -1.00023e-16 0)
(1 9.23655e-16 0)
(1 1.32469e-15 0)
(1 2.08648e-15 0)
(1 2.3407e-15 0)
(1 3.79112e-15 0)
(1 3.37583e-15 0)
(1 1.5341e-15 0)
(1 2.03512e-15 0)
(1 2.64056e-15 0)
(1 2.11521e-15 0)
(1 1.71367e-15 0)
(1 9.03317e-16 0)
(1 -3.21504e-16 0)
(1 1.50775e-15 0)
(1 2.9469e-15 0)
(1 3.62805e-15 0)
(1 1.69648e-15 0)
(1 1.26673e-15 0)
(1 2.001e-16 0)
(1 -1.37813e-16 0)
(1 1.93368e-15 0)
(1 -1.92575e-16 0)
(1 1.89386e-15 0)
(1 -7.1535e-17 0)
(1 2.06548e-15 0)
(1 4.72457e-16 0)
(1 2.01466e-15 0)
(1 5.61382e-17 0)
(1 9.33422e-16 0)
(1 1.27106e-15 0)
(1 1.24559e-15 0)
(1 -3.57133e-16 0)
(1 1.73872e-16 0)
(1 2.75053e-17 0)
(1 1.08753e-15 0)
(1 1.37996e-15 0)
(1 1.71734e-15 0)
(1 3.24266e-15 0)
(1 2.64981e-15 0)
(1 3.01342e-15 0)
(1 3.01885e-15 0)
(1 3.63475e-15 0)
(1 3.54786e-15 0)
(1 3.13567e-15 0)
(1 3.16984e-15 0)
(1 2.86137e-15 0)
(1 3.05916e-15 0)
(1 3.16133e-15 0)
(1 3.28103e-15 0)
(1 3.38304e-15 0)
(1 3.27807e-15 0)
(1 3.63488e-15 0)
(1 4.1379e-15 0)
(1 2.51189e-15 0)
(1 2.13853e-15 0)
(1 9.75966e-16 0)
(1 1.13391e-15 0)
(1 2.37646e-15 0)
(1 2.80826e-15 0)
(1 2.82129e-15 0)
(1 2.02367e-15 0)
(1 2.2096e-15 0)
(1 2.27765e-15 0)
(1 1.91871e-15 0)
(1 1.19064e-15 0)
(1 7.50095e-16 0)
(1 3.41364e-16 0)
(1 1.43782e-16 0)
(1 -1.31041e-16 0)
(1 2.29324e-16 0)
(1 7.29404e-16 0)
(1 4.62697e-16 0)
(1 2.39038e-15 0)
(1 1.67655e-15 0)
(1 1.78042e-15 0)
(1 1.64078e-15 0)
(1 1.38979e-15 0)
(1 1.67617e-16 0)
(1 5.35879e-16 0)
(1 3.32347e-16 0)
(1 5.34183e-16 0)
(1 7.33237e-16 0)
(1 9.26668e-16 0)
(1 1.42744e-15 0)
(1 1.44801e-15 0)
(1 1.67009e-15 0)
(1 1.42155e-15 0)
(1 2.29393e-15 0)
(1 8.64212e-16 0)
(1 1.00304e-15 0)
(1 4.37601e-16 0)
(1 1.50731e-15 0)
(1 1.43991e-15 0)
(1 -1.67392e-16 0)
(1 4.94977e-16 0)
(1 1.94638e-15 0)
(1 1.74704e-15 0)
(1 1.6584e-15 0)
(1 1.11018e-15 0)
(1 2.3256e-15 0)
(1 2.80962e-15 0)
(1 2.17856e-15 0)
(1 2.59445e-15 0)
(1 1.52991e-15 0)
(1 2.42156e-15 0)
(1 1.83566e-15 0)
(1 2.95683e-15 0)
(1 1.97386e-15 0)
(1 2.49955e-15 0)
(1 2.14234e-15 0)
(1 2.16799e-15 0)
(1 1.97425e-15 0)
(1 2.78743e-15 0)
(1 1.62484e-15 0)
(1 1.95512e-15 0)
(1 1.24745e-15 0)
(1 -8.82823e-17 0)
(1 1.16507e-15 0)
(1 -4.62281e-16 0)
(1 9.28982e-16 0)
(1 1.05801e-15 0)
(1 1.11231e-15 0)
(1 1.37179e-15 0)
(1 2.05988e-15 0)
(1 1.34297e-15 0)
(1 1.27126e-15 0)
(1 -5.105e-16 0)
(1 1.85125e-16 0)
(1 1.12659e-15 0)
(1 4.58201e-16 0)
(1 1.65033e-15 0)
(1 4.59145e-16 0)
(1 2.0807e-15 0)
(1 8.51335e-16 0)
(1 2.45411e-15 0)
(1 2.43342e-15 0)
(1 2.98664e-15 0)
(1 3.01311e-15 0)
(1 2.62945e-15 0)
(1 3.04906e-15 0)
(1 2.1113e-15 0)
(1 4.30144e-15 0)
(1 3.30014e-15 0)
(1 3.82549e-15 0)
(1 3.34981e-15 0)
(1 3.35091e-15 0)
(1 3.01392e-15 0)
(1 2.87473e-15 0)
(1 3.67628e-15 0)
(1 4.33475e-15 0)
(1 3.85616e-15 0)
(1 3.57617e-15 0)
(1 3.53446e-15 0)
(1 3.17646e-15 0)
(1 3.65481e-15 0)
(1 2.42509e-15 0)
(1 2.40181e-15 0)
(1 1.70017e-15 0)
(1 1.48508e-15 0)
(1 1.51241e-15 0)
(1 1.99716e-15 0)
(1 1.74563e-15 0)
(1 1.12597e-15 0)
(1 2.11872e-15 0)
(1 1.17855e-15 0)
(1 5.90648e-16 0)
(1 6.93775e-16 0)
(1 9.00119e-16 0)
(1 2.0824e-15 0)
(1 1.40419e-15 0)
(1 2.29956e-15 0)
(1 1.30173e-15 0)
(1 1.30479e-15 0)
(1 1.80869e-15 0)
(1 2.02394e-15 0)
(1 1.86796e-15 0)
(1 1.68509e-15 0)
(1 1.16458e-15 0)
(1 1.92506e-15 0)
(1 1.68546e-15 0)
(1 2.17552e-15 0)
(1 1.0915e-15 0)
(1 1.88274e-15 0)
(1 1.7135e-15 0)
(1 2.16924e-15 0)
(1 2.20462e-15 0)
(1 1.88347e-15 0)
(1 1.5605e-15 0)
(1 1.97255e-15 0)
(1 1.98634e-15 0)
(1 1.58995e-15 0)
(1 1.60268e-15 0)
(1 1.24044e-15 0)
(1 7.6445e-17 0)
(1 5.94205e-16 0)
(1 -3.7341e-16 0)
(1 1.902e-15 0)
(1 1.9073e-15 0)
(1 2.76456e-15 0)
(1 2.85201e-15 0)
(1 2.86298e-15 0)
(1 3.22278e-15 0)
(1 2.49335e-15 0)
(1 2.00487e-15 0)
(1 1.15665e-15 0)
(1 2.20971e-15 0)
(1 3.58894e-15 0)
(1 3.30243e-15 0)
(1 3.48142e-15 0)
(1 2.88056e-15 0)
(1 3.22001e-15 0)
(1 2.09506e-15 0)
(1 3.50674e-15 0)
(1 1.45331e-15 0)
(1 4.68357e-16 0)
(1 -7.61208e-17 0)
(1 -1.57151e-15 0)
(1 -1.98707e-15 0)
(1 -5.07952e-16 0)
(1 1.11632e-15 0)
(1 1.00701e-15 0)
(1 2.92063e-15 0)
(1 1.85315e-15 0)
(1 2.54903e-15 0)
(1 6.81461e-16 0)
(1 8.80125e-16 0)
(1 -2.80819e-16 0)
(1 3.00144e-16 0)
(1 3.18027e-16 0)
(1 1.4199e-16 0)
(1 1.80911e-15 0)
(1 3.07402e-15 0)
(1 2.21942e-15 0)
(1 9.49018e-16 0)
(1 1.04063e-15 0)
(1 1.0035e-15 0)
(1 1.73116e-15 0)
(1 2.4861e-15 0)
(1 3.9071e-15 0)
(1 4.09447e-15 0)
(1 3.49629e-15 0)
(1 3.84095e-15 0)
(1 3.63809e-15 0)
(1 4.23475e-15 0)
(1 3.70888e-15 0)
(1 4.53697e-15 0)
(1 4.93027e-15 0)
(1 4.56577e-15 0)
(1 4.5561e-15 0)
(1 4.39396e-15 0)
(1 4.24227e-15 0)
(1 2.71837e-15 0)
(1 2.27701e-15 0)
(1 2.54513e-15 0)
(1 4.20003e-15 0)
(1 4.73023e-15 0)
(1 4.09993e-15 0)
(1 2.60552e-15 0)
(1 2.04475e-15 0)
(1 2.69242e-15 0)
(1 2.48416e-15 0)
(1 1.7939e-15 0)
(1 1.46915e-15 0)
(1 1.784e-15 0)
(1 1.56593e-15 0)
(1 1.71577e-15 0)
(1 1.05949e-15 0)
(1 1.63518e-15 0)
(1 2.12288e-15 0)
(1 1.64008e-15 0)
(1 1.68449e-15 0)
(1 8.42156e-16 0)
(1 6.45873e-16 0)
(1 1.50262e-15 0)
(1 1.03092e-15 0)
(1 1.449e-15 0)
(1 1.24482e-15 0)
(1 2.04348e-15 0)
(1 2.34942e-15 0)
(1 2.04206e-15 0)
(1 1.50861e-15 0)
(1 1.49828e-15 0)
(1 1.39399e-15 0)
(1 2.12125e-15 0)
(1 2.05044e-15 0)
(1 2.75252e-15 0)
(1 2.21251e-15 0)
(1 1.64289e-15 0)
(1 1.84035e-15 0)
(1 1.14618e-15 0)
(1 1.99639e-15 0)
(1 1.93896e-15 0)
(1 2.56369e-15 0)
(1 3.03992e-16 0)
(1 -2.35741e-16 0)
(1 6.45259e-16 0)
(1 1.1371e-15 0)
(1 1.63185e-15 0)
(1 3.24809e-15 0)
(1 2.27546e-15 0)
(1 3.18371e-15 0)
(1 2.22398e-15 0)
(1 1.31517e-15 0)
(1 2.43707e-15 0)
(1 1.69847e-15 0)
(1 2.96941e-15 0)
(1 3.68696e-15 0)
(1 3.36373e-15 0)
(1 3.73343e-15 0)
(1 1.8805e-15 0)
(1 3.57043e-15 0)
(1 2.64789e-15 0)
(1 1.74863e-15 0)
(1 5.67695e-16 0)
(1 3.87116e-16 0)
(1 1.34322e-15 0)
(1 2.04728e-15 0)
(1 4.19867e-16 0)
(1 3.9416e-16 0)
(1 3.25036e-16 0)
(1 1.35037e-15 0)
(1 8.80899e-16 0)
(1 1.04241e-15 0)
(1 -2.16888e-16 0)
(1 -8.73297e-16 0)
(1 -8.59246e-16 0)
(1 1.06596e-18 0)
(1 6.40924e-16 0)
(1 1.13654e-15 0)
(1 1.39143e-15 0)
(1 2.05744e-15 0)
(1 2.30195e-15 0)
(1 1.53438e-15 0)
(1 8.98495e-16 0)
(1 1.98936e-15 0)
(1 2.21908e-15 0)
(1 3.29575e-15 0)
(1 4.54838e-15 0)
(1 3.93819e-15 0)
(1 4.55169e-15 0)
(1 3.14476e-15 0)
(1 2.4161e-15 0)
(1 3.66164e-15 0)
(1 3.88798e-15 0)
(1 5.19042e-15 0)
(1 4.60892e-15 0)
(1 5.76415e-15 0)
(1 5.20268e-15 0)
(1 4.78228e-15 0)
(1 4.30443e-15 0)
(1 3.73026e-15 0)
(1 4.33894e-15 0)
(1 3.86833e-15 0)
(1 3.74252e-15 0)
(1 3.27765e-15 0)
(1 3.0381e-15 0)
(1 3.28722e-15 0)
(1 1.43531e-15 0)
(1 3.42555e-15 0)
(1 2.80609e-15 0)
(1 4.21997e-15 0)
(1 4.72179e-15 0)
(1 3.72901e-15 0)
(1 3.29893e-15 0)
(1 2.57872e-15 0)
(1 2.40856e-15 0)
(1 1.26307e-15 0)
(1 1.06855e-15 0)
(1 1.13455e-15 0)
(1 1.45423e-15 0)
(1 2.05658e-15 0)
(1 2.60601e-15 0)
(1 2.50486e-15 0)
(1 2.04945e-15 0)
(1 1.88563e-15 0)
(1 1.72319e-15 0)
(1 1.18258e-15 0)
(1 3.76019e-16 0)
(1 1.69995e-16 0)
(1 5.18461e-16 0)
(1 9.08809e-16 0)
(1 1.95196e-15 0)
(1 1.66549e-15 0)
(1 1.74842e-15 0)
(1 2.47131e-15 0)
(1 2.68112e-15 0)
(1 3.06318e-15 0)
(1 3.1429e-15 0)
(1 2.61835e-15 0)
(1 3.15897e-15 0)
(1 3.53734e-15 0)
(1 3.86092e-15 0)
(1 4.21324e-15 0)
(1 3.93602e-16 0)
(1 8.94797e-16 0)
(1 2.83562e-15 0)
(1 1.26535e-15 0)
(1 1.36922e-15 0)
(1 1.02745e-15 0)
(1 2.92661e-15 0)
(1 2.82717e-15 0)
(1 2.59217e-15 0)
(1 1.89528e-15 0)
(1 3.13841e-15 0)
(1 3.67321e-15 0)
(1 3.38225e-15 0)
(1 3.72049e-15 0)
(1 2.74664e-15 0)
(1 2.09847e-15 0)
(1 1.40226e-15 0)
(1 2.47382e-15 0)
(1 2.08388e-15 0)
(1 1.85478e-15 0)
(1 8.93987e-16 0)
(1 -4.92517e-16 0)
(1 -6.18122e-16 0)
(1 1.88366e-15 0)
(1 1.75277e-15 0)
(1 1.90866e-15 0)
(1 9.6988e-16 0)
(1 2.07944e-15 0)
(1 8.83412e-16 0)
(1 5.8461e-16 0)
(1 -8.45283e-16 0)
(1 -3.32621e-16 0)
(1 -5.11772e-16 0)
(1 4.38846e-16 0)
(1 7.74567e-17 0)
(1 4.96588e-16 0)
(1 4.83339e-16 0)
(1 1.56314e-15 0)
(1 4.81541e-16 0)
(1 1.25526e-15 0)
(1 2.39789e-15 0)
(1 2.9738e-15 0)
(1 3.53161e-15 0)
(1 3.29341e-15 0)
(1 3.05886e-15 0)
(1 2.0217e-15 0)
(1 2.63898e-15 0)
(1 3.31022e-15 0)
(1 3.14239e-15 0)
(1 4.74255e-15 0)
(1 4.20556e-15 0)
(1 4.99864e-15 0)
(1 5.65842e-15 0)
(1 5.03764e-15 0)
(1 5.80011e-15 0)
(1 5.62492e-15 0)
(1 4.60418e-15 0)
(1 3.50723e-15 0)
(1 4.46765e-15 0)
(1 5.41076e-15 0)
(1 5.34986e-15 0)
(1 3.98111e-15 0)
(1 3.51992e-15 0)
(1 3.53894e-15 0)
(1 2.85964e-15 0)
(1 2.85558e-15 0)
(1 3.63642e-15 0)
(1 3.64715e-15 0)
(1 5.14376e-15 0)
(1 4.38941e-15 0)
(1 2.65568e-15 0)
(1 1.64204e-15 0)
(1 1.21151e-15 0)
(1 1.64997e-15 0)
(1 1.51413e-15 0)
(1 1.43608e-15 0)
(1 2.06223e-15 0)
(1 2.50914e-15 0)
(1 3.22286e-15 0)
(1 2.08169e-15 0)
(1 1.76745e-15 0)
(1 1.39878e-15 0)
(1 1.05233e-15 0)
(1 7.94874e-16 0)
(1 7.33838e-16 0)
(1 1.7542e-15 0)
(1 2.2881e-15 0)
(1 2.32401e-15 0)
(1 1.98581e-15 0)
(1 1.5723e-15 0)
(1 2.296e-15 0)
(1 2.37289e-15 0)
(1 1.97689e-15 0)
(1 2.38392e-15 0)
(1 4.01222e-15 0)
(1 1.88239e-15 0)
(1 3.79955e-15 0)
(1 3.10071e-15 0)
(1 4.85847e-15 0)
(1 4.47146e-15 0)
(1 8.41578e-17 0)
(1 1.16779e-15 0)
(1 1.50136e-15 0)
(1 1.69319e-15 0)
(1 8.77429e-16 0)
(1 7.13051e-16 0)
(1 2.8451e-15 0)
(1 6.65644e-16 0)
(1 3.3561e-15 0)
(1 3.49677e-15 0)
(1 3.03937e-15 0)
(1 2.34292e-15 0)
(1 2.99073e-15 0)
(1 2.37488e-15 0)
(1 2.86916e-15 0)
(1 2.51227e-15 0)
(1 4.36902e-15 0)
(1 2.69552e-15 0)
(1 1.98499e-15 0)
(1 1.34917e-15 0)
(1 4.5102e-16 0)
(1 -2.05216e-16 0)
(1 -1.25303e-15 0)
(1 -2.4157e-16 0)
(1 -1.7877e-16 0)
(1 2.39666e-15 0)
(1 1.94472e-15 0)
(1 2.21177e-15 0)
(1 1.07085e-15 0)
(1 3.96859e-16 0)
(1 -1.17703e-15 0)
(1 -3.06172e-16 0)
(1 -4.69122e-16 0)
(1 5.06062e-16 0)
(1 2.96638e-16 0)
(1 1.47438e-16 0)
(1 1.49643e-15 0)
(1 1.05568e-15 0)
(1 1.0331e-15 0)
(1 6.30375e-16 0)
(1 2.82997e-15 0)
(1 2.4904e-15 0)
(1 4.02694e-15 0)
(1 2.11122e-15 0)
(1 2.63326e-15 0)
(1 2.40528e-15 0)
(1 3.02006e-15 0)
(1 3.55418e-15 0)
(1 4.2102e-15 0)
(1 4.33454e-15 0)
(1 5.679e-15 0)
(1 5.58609e-15 0)
(1 6.5951e-15 0)
(1 5.44548e-15 0)
(1 5.76696e-15 0)
(1 4.6376e-15 0)
(1 4.36703e-15 0)
(1 3.80949e-15 0)
(1 4.38446e-15 0)
(1 3.74746e-15 0)
(1 5.47749e-15 0)
(1 4.15174e-15 0)
(1 4.32497e-15 0)
(1 3.86197e-15 0)
(1 4.2841e-15 0)
(1 2.38032e-15 0)
(1 3.90761e-15 0)
(1 2.71553e-15 0)
(1 1.98739e-15 0)
(1 2.93665e-15 0)
(1 2.62145e-15 0)
(1 3.29908e-15 0)
(1 2.18282e-15 0)
(1 7.97535e-16 0)
(1 8.4646e-16 0)
(1 1.43825e-15 0)
(1 3.89235e-15 0)
(1 2.1875e-15 0)
(1 2.35745e-15 0)
(1 3.32863e-15 0)
(1 3.0448e-15 0)
(1 2.13447e-15 0)
(1 2.1954e-15 0)
(1 7.90665e-16 0)
(1 1.15695e-15 0)
(1 1.10523e-15 0)
(1 1.90808e-15 0)
(1 9.31931e-16 0)
(1 1.51631e-15 0)
(1 1.44374e-15 0)
(1 3.20781e-15 0)
(1 1.60459e-15 0)
(1 2.31869e-15 0)
(1 1.66073e-15 0)
(1 2.87516e-15 0)
(1 2.42289e-15 0)
(1 2.91664e-15 0)
(1 2.7189e-15 0)
(1 3.32961e-15 0)
(1 3.1228e-15 0)
(1 6.43303e-16 0)
(1 4.18117e-16 0)
(1 1.118e-15 0)
(1 1.80993e-15 0)
(1 1.16282e-15 0)
(1 2.75408e-15 0)
(1 9.93659e-16 0)
(1 2.12112e-15 0)
(1 2.02917e-15 0)
(1 3.96126e-15 0)
(1 3.89213e-15 0)
(1 3.10419e-15 0)
(1 3.58823e-15 0)
(1 2.63521e-15 0)
(1 3.20076e-15 0)
(1 1.80169e-15 0)
(1 2.8559e-15 0)
(1 2.16032e-16 0)
(1 2.10078e-15 0)
(1 -6.69297e-16 0)
(1 -1.54824e-16 0)
(1 8.56735e-16 0)
(1 1.65535e-15 0)
(1 1.59305e-15 0)
(1 2.43497e-15 0)
(1 2.00466e-15 0)
(1 1.33618e-15 0)
(1 8.37492e-16 0)
(1 1.04531e-15 0)
(1 -2.88692e-17 0)
(1 2.68042e-17 0)
(1 -1.09747e-15 0)
(1 -1.23463e-15 0)
(1 -1.46202e-15 0)
(1 -1.47134e-16 0)
(1 -3.95979e-16 0)
(1 1.89529e-16 0)
(1 3.37781e-16 0)
(1 1.62949e-15 0)
(1 1.77736e-15 0)
(1 2.83986e-15 0)
(1 2.48169e-15 0)
(1 2.31584e-15 0)
(1 2.38347e-15 0)
(1 2.30007e-15 0)
(1 2.98672e-15 0)
(1 4.09285e-15 0)
(1 2.99753e-15 0)
(1 5.52603e-15 0)
(1 4.34274e-15 0)
(1 5.38204e-15 0)
(1 5.40425e-15 0)
(1 5.36668e-15 0)
(1 5.66895e-15 0)
(1 5.2165e-15 0)
(1 3.38497e-15 0)
(1 4.20746e-15 0)
(1 4.09413e-15 0)
(1 4.50098e-15 0)
(1 3.5978e-15 0)
(1 5.48141e-15 0)
(1 5.95176e-15 0)
(1 5.63909e-15 0)
(1 3.66201e-15 0)
(1 4.3853e-15 0)
(1 3.3947e-15 0)
(1 2.41872e-15 0)
(1 2.91296e-15 0)
(1 1.29964e-15 0)
(1 1.81844e-15 0)
(1 3.01821e-15 0)
(1 2.86861e-15 0)
(1 1.83722e-15 0)
(1 7.75903e-16 0)
(1 1.12791e-15 0)
(1 9.29931e-16 0)
(1 2.06943e-15 0)
(1 2.18169e-15 0)
(1 2.64477e-15 0)
(1 3.67681e-15 0)
(1 2.77444e-15 0)
(1 2.89498e-15 0)
(1 2.81791e-15 0)
(1 1.83148e-15 0)
(1 1.93306e-15 0)
(1 1.88871e-16 0)
(1 7.73894e-16 0)
(1 9.14777e-16 0)
(1 2.12128e-15 0)
(1 2.06896e-15 0)
(1 2.01161e-15 0)
(1 1.5182e-15 0)
(1 2.11287e-15 0)
(1 2.29215e-15 0)
(1 2.36495e-15 0)
(1 4.26287e-15 0)
(1 3.40223e-15 0)
(1 3.45516e-15 0)
(1 1.30733e-15 0)
(1 1.24679e-15 0)
(1 6.00787e-16 0)
(1 1.44011e-15 0)
(1 8.29695e-17 0)
(1 4.26096e-16 0)
(1 1.97627e-15 0)
(1 1.56645e-15 0)
(1 1.50265e-15 0)
(1 2.83409e-15 0)
(1 2.10499e-15 0)
(1 3.71138e-15 0)
(1 3.58826e-15 0)
(1 3.48129e-15 0)
(1 2.59669e-15 0)
(1 2.55754e-15 0)
(1 2.49084e-15 0)
(1 1.64373e-15 0)
(1 1.56501e-15 0)
(1 2.43719e-15 0)
(1 3.75322e-15 0)
(1 2.10816e-15 0)
(1 1.74868e-15 0)
(1 1.91846e-16 0)
(1 -1.22187e-15 0)
(1 -1.54313e-15 0)
(1 1.97214e-16 0)
(1 9.00811e-16 0)
(1 1.29646e-15 0)
(1 8.14199e-17 0)
(1 8.38312e-16 0)
(1 -1.00496e-15 0)
(1 -9.90064e-16 0)
(1 -2.26914e-15 0)
(1 -1.85276e-15 0)
(1 -1.55284e-15 0)
(1 7.82318e-16 0)
(1 3.95227e-16 0)
(1 1.68865e-15 0)
(1 7.34993e-16 0)
(1 1.52234e-15 0)
(1 2.08486e-15 0)
(1 1.80391e-15 0)
(1 1.88322e-15 0)
(1 1.19213e-15 0)
(1 2.59978e-15 0)
(1 1.88421e-15 0)
(1 3.66788e-15 0)
(1 3.38975e-15 0)
(1 4.76689e-15 0)
(1 4.88312e-15 0)
(1 5.07183e-15 0)
(1 4.94467e-15 0)
(1 4.51056e-15 0)
(1 4.83164e-15 0)
(1 5.07891e-15 0)
(1 4.8785e-15 0)
(1 5.28786e-15 0)
(1 4.515e-15 0)
(1 4.39623e-15 0)
(1 2.72891e-15 0)
(1 3.38901e-15 0)
(1 2.27532e-15 0)
(1 4.40974e-15 0)
(1 4.99132e-15 0)
(1 5.15609e-15 0)
(1 5.79515e-15 0)
(1 4.79126e-15 0)
(1 2.88661e-15 0)
(1 2.0574e-15 0)
(1 2.24441e-15 0)
(1 1.56845e-15 0)
(1 4.74505e-16 0)
(1 9.29581e-16 0)
(1 1.70779e-15 0)
(1 3.14958e-15 0)
(1 2.70607e-15 0)
(1 1.82819e-15 0)
(1 -2.59797e-16 0)
(1 1.8832e-15 0)
(1 1.96969e-15 0)
(1 1.29472e-15 0)
(1 1.59195e-15 0)
(1 2.33004e-15 0)
(1 1.89296e-15 0)
(1 2.33968e-15 0)
(1 2.24263e-15 0)
(1 1.73822e-15 0)
(1 1.57688e-15 0)
(1 2.23811e-15 0)
(1 2.06074e-15 0)
(1 2.02585e-15 0)
(1 1.07387e-15 0)
(1 1.72529e-15 0)
(1 1.13783e-15 0)
(1 1.85389e-15 0)
(1 1.79514e-15 0)
(1 2.67459e-15 0)
(1 2.27069e-15 0)
(1 2.21533e-15 0)
(1 1.25953e-15 0)
(1 1.01261e-15 0)
(1 -1.44975e-16 0)
(1 1.72631e-15 0)
(1 9.53025e-16 0)
(1 3.4178e-16 0)
(1 1.58116e-15 0)
(1 1.06174e-15 0)
(1 2.03603e-15 0)
(1 2.48123e-15 0)
(1 4.33087e-15 0)
(1 4.17252e-15 0)
(1 3.04022e-15 0)
(1 2.83931e-15 0)
(1 1.48002e-15 0)
(1 1.73808e-15 0)
(1 1.6917e-15 0)
(1 3.15439e-15 0)
(1 1.90184e-15 0)
(1 3.05861e-15 0)
(1 5.59557e-16 0)
(1 1.49801e-15 0)
(1 1.95085e-16 0)
(1 8.47474e-16 0)
(1 -1.52013e-15 0)
(1 1.69826e-16 0)
(1 -3.15374e-16 0)
(1 1.06953e-15 0)
(1 7.88114e-16 0)
(1 3.02518e-16 0)
(1 6.3527e-17 0)
(1 -1.08246e-15 0)
(1 -1.9225e-15 0)
(1 -3.23614e-15 0)
(1 -1.53786e-15 0)
(1 -1.43684e-15 0)
(1 4.95111e-16 0)
(1 2.35708e-15 0)
(1 2.38521e-15 0)
(1 9.43215e-16 0)
(1 7.39017e-16 0)
(1 3.83332e-16 0)
(1 -2.56271e-16 0)
(1 1.06515e-15 0)
(1 2.25992e-15 0)
(1 2.81171e-15 0)
(1 3.83351e-15 0)
(1 3.71696e-15 0)
(1 2.99741e-15 0)
(1 4.59547e-15 0)
(1 3.27473e-15 0)
(1 3.72114e-15 0)
(1 2.03277e-15 0)
(1 3.30194e-15 0)
(1 4.83427e-15 0)
(1 5.17486e-15 0)
(1 5.01382e-15 0)
(1 6.43901e-15 0)
(1 5.18919e-15 0)
(1 5.6436e-15 0)
(1 4.67141e-15 0)
(1 5.01249e-15 0)
(1 3.38629e-15 0)
(1 2.84191e-15 0)
(1 3.16206e-15 0)
(1 4.92668e-15 0)
(1 3.5706e-15 0)
(1 4.59372e-15 0)
(1 3.62245e-15 0)
(1 3.00781e-15 0)
(1 2.43451e-15 0)
(1 1.69244e-15 0)
(1 4.10732e-16 0)
(1 2.52405e-15 0)
(1 1.86266e-15 0)
(1 3.62476e-15 0)
(1 2.08773e-15 0)
(1 2.86125e-15 0)
(1 1.43648e-15 0)
(1 2.44947e-15 0)
(1 1.98305e-15 0)
(1 1.11237e-15 0)
(1 1.8279e-15 0)
(1 1.06137e-15 0)
(1 9.72298e-16 0)
(1 1.88229e-15 0)
(1 1.76797e-15 0)
(1 2.5009e-15 0)
(1 1.39076e-15 0)
(1 2.19233e-15 0)
(1 1.52453e-15 0)
(1 2.13886e-15 0)
(1 1.65054e-15 0)
(1 1.93648e-15 0)
(1 1.2878e-15 0)
(1 1.93835e-15 0)
(1 1.19215e-15 0)
(1 2.11755e-15 0)
(1 2.04435e-15 0)
(1 2.27973e-15 0)
(1 2.18977e-15 0)
(1 1.94275e-15 0)
(1 2.55384e-16 0)
(1 1.28067e-15 0)
(1 9.90157e-16 0)
(1 1.04225e-15 0)
(1 1.55959e-15 0)
(1 1.96987e-15 0)
(1 7.14564e-16 0)
(1 1.28221e-15 0)
(1 2.73591e-15 0)
(1 2.71831e-15 0)
(1 3.82748e-15 0)
(1 3.30186e-15 0)
(1 2.99799e-15 0)
(1 1.84029e-15 0)
(1 1.7757e-15 0)
(1 2.06996e-15 0)
(1 8.11399e-16 0)
(1 4.01106e-16 0)
(1 -9.38561e-16 0)
(1 1.29021e-15 0)
(1 9.81055e-16 0)
(1 1.51827e-15 0)
(1 1.58053e-15 0)
(1 8.60156e-16 0)
(1 -1.03834e-17 0)
(1 -7.3503e-16 0)
(1 -1.06434e-15 0)
(1 -1.04946e-15 0)
(1 -1.07684e-15 0)
(1 -1.02996e-15 0)
(1 -1.55772e-15 0)
(1 -1.0033e-15 0)
(1 -3.72389e-16 0)
(1 -1.07982e-15 0)
(1 -9.36285e-16 0)
(1 7.40252e-16 0)
(1 -5.95241e-17 0)
(1 2.79944e-16 0)
(1 6.9444e-16 0)
(1 -5.82855e-17 0)
(1 -4.25772e-17 0)
(1 1.20479e-15 0)
(1 1.37147e-15 0)
(1 1.81481e-15 0)
(1 2.8657e-15 0)
(1 3.10492e-15 0)
(1 3.00099e-15 0)
(1 2.44381e-15 0)
(1 2.58341e-15 0)
(1 3.39712e-15 0)
(1 3.80168e-15 0)
(1 5.03067e-15 0)
(1 5.26455e-15 0)
(1 5.7916e-15 0)
(1 6.1758e-15 0)
(1 5.22579e-15 0)
(1 4.61345e-15 0)
(1 4.9135e-15 0)
(1 3.97893e-15 0)
(1 4.10349e-15 0)
(1 4.82067e-15 0)
(1 3.9837e-15 0)
(1 4.71594e-15 0)
(1 3.60173e-15 0)
(1 4.00386e-15 0)
(1 3.35313e-15 0)
(1 3.85532e-15 0)
(1 3.54391e-15 0)
(1 3.83378e-15 0)
(1 3.09026e-15 0)
(1 2.99799e-15 0)
(1 1.58543e-15 0)
(1 7.62559e-16 0)
(1 1.74837e-15 0)
(1 1.92974e-15 0)
(1 2.25669e-15 0)
(1 1.97857e-15 0)
(1 1.48159e-15 0)
(1 1.02319e-15 0)
(1 1.56464e-15 0)
(1 1.61234e-15 0)
(1 8.87265e-16 0)
(1 8.10471e-16 0)
(1 1.52289e-15 0)
(1 1.77067e-15 0)
(1 1.95602e-15 0)
(1 1.015e-15 0)
(1 1.37428e-15 0)
(1 1.01337e-15 0)
(1 8.90125e-16 0)
(1 1.12158e-15 0)
(1 8.84904e-16 0)
(1 1.87437e-15 0)
(1 1.68351e-15 0)
(1 1.86711e-15 0)
(1 1.36465e-15 0)
(1 1.41184e-15 0)
(1 2.49626e-15 0)
(1 2.96354e-15 0)
(1 2.58492e-15 0)
(1 -6.93307e-17 0)
(1 6.97536e-16 0)
(1 3.08038e-16 0)
(1 1.69825e-15 0)
(1 2.6475e-15 0)
(1 2.82432e-15 0)
(1 3.91865e-15 0)
(1 3.54284e-15 0)
(1 2.18456e-15 0)
(1 7.51941e-16 0)
(1 1.19294e-15 0)
(1 6.90678e-16 0)
(1 2.8075e-15 0)
(1 1.76939e-15 0)
(1 1.59083e-15 0)
(1 7.95688e-16 0)
(1 1.43986e-15 0)
(1 8.23258e-16 0)
(1 1.40018e-15 0)
(1 -9.20384e-16 0)
(1 -1.15397e-16 0)
(1 -7.12905e-16 0)
(1 2.21532e-15 0)
(1 -6.44258e-16 0)
(1 -6.50485e-16 0)
(1 -1.83389e-15 0)
(1 -1.56405e-15 0)
(1 -2.26254e-15 0)
(1 -2.92905e-15 0)
(1 -2.11599e-15 0)
(1 -2.36346e-15 0)
(1 5.13825e-16 0)
(1 -9.8019e-16 0)
(1 3.77098e-16 0)
(1 -1.19104e-15 0)
(1 4.74123e-18 0)
(1 -3.09933e-16 0)
(1 -6.02519e-16 0)
(1 1.70916e-18 0)
(1 3.77837e-16 0)
(1 1.00665e-15 0)
(1 2.94704e-16 0)
(1 1.31603e-15 0)
(1 2.31364e-15 0)
(1 1.82122e-15 0)
(1 2.34733e-15 0)
(1 2.07654e-15 0)
(1 2.12136e-15 0)
(1 1.61078e-15 0)
(1 1.92618e-15 0)
(1 5.4446e-15 0)
(1 6.06284e-15 0)
(1 5.23031e-15 0)
(1 4.84504e-15 0)
(1 5.34268e-15 0)
(1 4.0303e-15 0)
(1 4.65091e-15 0)
(1 4.06772e-15 0)
(1 3.43245e-15 0)
(1 2.45039e-15 0)
(1 2.85258e-15 0)
(1 3.08779e-15 0)
(1 3.60508e-15 0)
(1 3.39012e-15 0)
(1 3.98522e-15 0)
(1 1.38811e-15 0)
(1 2.16883e-15 0)
(1 1.61223e-15 0)
(1 3.38331e-15 0)
(1 2.45253e-15 0)
(1 2.31679e-15 0)
(1 9.61881e-16 0)
(1 1.70162e-15 0)
(1 1.54822e-15 0)
(1 1.93538e-15 0)
(1 2.01309e-15 0)
(1 1.61574e-15 0)
(1 1.53586e-15 0)
(1 7.71683e-16 0)
(1 1.85671e-15 0)
(1 -4.06049e-16 0)
(1 1.20587e-15 0)
(1 6.30325e-16 0)
(1 1.58295e-15 0)
(1 1.51589e-15 0)
(1 1.21035e-15 0)
(1 1.13237e-15 0)
(1 1.30736e-15 0)
(1 8.03455e-16 0)
(1 1.12209e-15 0)
(1 5.38659e-16 0)
(1 5.50587e-16 0)
(1 1.20842e-15 0)
(1 9.87868e-16 0)
(1 1.07127e-15 0)
(1 1.45846e-15 0)
(1 1.40799e-15 0)
(1 1.79385e-15 0)
(1 2.45856e-15 0)
(1 1.98447e-15 0)
(1 -3.21506e-16 0)
(1 2.81334e-16 0)
(1 1.48839e-15 0)
(1 2.74065e-15 0)
(1 2.33848e-15 0)
(1 1.90484e-15 0)
(1 3.04474e-15 0)
(1 3.62178e-15 0)
(1 3.0587e-15 0)
(1 1.70272e-15 0)
(1 6.74127e-16 0)
(1 -1.07234e-16 0)
(1 8.82133e-16 0)
(1 1.02024e-15 0)
(1 1.2989e-15 0)
(1 1.15539e-15 0)
(1 8.98327e-16 0)