/*--------------------------------*- C++ -*----------------------------------*\
| =========                 |                                                 |
| \\      /  F ield         | OpenFOAM: The Open Source CFD Toolbox           |
|  \\    /   O peration     | Version:  v2012                                 |
|   \\  /    A nd           | Website:  www.openfoam.com                      |
|    \\/     M anipulation  |                                                 |
\*---------------------------------------------------------------------------*/
FoamFile
{
    version     2.0;
    format      ascii;
    class       volScalarField;
    location    "0";
    object      pRec;
}
// * * * * * * * * * * * * * * * * * * * * * * * * * * * * * * * * * * * * * //

dimensions      [0 2 -2 0 0 0 0];


internalField   nonuniform List<scalar> 
4000
(
-6.89496e-13
-6.84131e-13
-6.85131e-13
-6.87697e-13
-6.85741e-13
-6.86629e-13
-6.84697e-13
-6.79605e-13
-6.70191e-13
-6.65709e-13
-6.66312e-13
-6.60895e-13
-6.51845e-13
-6.39055e-13
-6.24896e-13
-6.18676e-13
-6.14841e-13
-6.12254e-13
-6.04811e-13
-5.92332e-13
-5.81573e-13
-5.74289e-13
-5.69007e-13
-5.60345e-13
-5.49389e-13
-5.38307e-13
-5.35534e-13
-5.30319e-13
-5.23889e-13
-5.12296e-13
-4.96981e-13
-4.89418e-13
-4.86798e-13
-4.84065e-13
-4.78629e-13
-4.74493e-13
-4.64428e-13
-4.46748e-13
-4.29484e-13
-4.25091e-13
-4.24747e-13
-4.22564e-13
-4.22064e-13
-4.16066e-13
-4.05824e-13
-3.96778e-13
-3.87574e-13
-3.78265e-13
-3.69512e-13
-3.6193e-13
-3.53748e-13
-3.46167e-13
-3.39104e-13
-3.30789e-13
-3.23023e-13
-3.10755e-13
-3.03399e-13
-3.00973e-13
-2.98697e-13
-2.9573e-13
-2.87674e-13
-2.80629e-13
-2.70786e-13
-2.5936e-13
-2.51436e-13
-2.44202e-13
-2.39748e-13
-2.31279e-13
-2.20722e-13
-2.13543e-13
-2.06188e-13
-1.98625e-13
-1.85407e-13
-1.7824e-13
-1.76754e-13
-1.7259e-13
-1.67768e-13
-1.61245e-13
-1.51629e-13
-1.3824e-13
-1.25901e-13
-1.20116e-13
-1.11587e-13
-1.06841e-13
-1.01435e-13
-9.56777e-14
-8.72071e-14
-7.97251e-14
-7.66669e-14
-7.26178e-14
-6.69261e-14
-6.04027e-14
-5.41881e-14
-4.98555e-14
-4.06408e-14
-3.19473e-14
-2.48576e-14
-1.73134e-14
-9.40012e-15
-2.14867e-15
-6.86202e-13
-6.84736e-13
-6.87676e-13
-6.87652e-13
-6.88511e-13
-6.85328e-13
-6.82042e-13
-6.79774e-13
-6.74263e-13
-6.68682e-13
-6.62934e-13
-6.58148e-13
-6.50161e-13
-6.39024e-13
-6.28193e-13
-6.21928e-13
-6.17255e-13
-6.10772e-13
-6.02624e-13
-5.95553e-13
-5.84564e-13
-5.72545e-13
-5.65309e-13
-5.57463e-13
-5.47256e-13
-5.41006e-13
-5.3698e-13
-5.31088e-13
-5.22752e-13
-5.09053e-13
-4.99765e-13
-4.92738e-13
-4.86292e-13
-4.80818e-13
-4.75988e-13
-4.70857e-13
-4.62827e-13
-4.4981e-13
-4.35964e-13
-4.28992e-13
-4.24698e-13
-4.22304e-13
-4.19075e-13
-4.14396e-13
-4.06867e-13
-3.96817e-13
-3.86354e-13
-3.78209e-13
-3.69458e-13
-3.59611e-13
-3.52656e-13
-3.4525e-13
-3.39388e-13
-3.32176e-13
-3.244e-13
-3.13341e-13
-3.03042e-13
-2.9915e-13
-2.96943e-13
-2.94218e-13
-2.89829e-13
-2.80756e-13
-2.71542e-13
-2.61109e-13
-2.53313e-13
-2.44389e-13
-2.37292e-13
-2.3028e-13
-2.2298e-13
-2.14994e-13
-2.06257e-13
-1.9868e-13
-1.90016e-13
-1.81512e-13
-1.76605e-13
-1.68846e-13
-1.66415e-13
-1.59084e-13
-1.48709e-13
-1.36814e-13
-1.26934e-13
-1.21438e-13
-1.15372e-13
-1.08835e-13
-9.99343e-14
-9.36914e-14
-8.52427e-14
-7.76871e-14
-7.50359e-14
-7.12117e-14
-6.81873e-14
-6.2977e-14
-5.78183e-14
-4.77473e-14
-3.91926e-14
-3.25884e-14
-2.42897e-14
-1.73841e-14
-1.06934e-14
-3.92876e-15
-6.85639e-13
-6.84667e-13
-6.86845e-13
-6.89794e-13
-6.9064e-13
-6.8647e-13
-6.81063e-13
-6.7865e-13
-6.72343e-13
-6.68401e-13
-6.63759e-13
-6.57472e-13
-6.4948e-13
-6.40429e-13
-6.30199e-13
-6.22912e-13
-6.16326e-13
-6.09668e-13
-6.03138e-13
-5.94185e-13
-5.83704e-13
-5.74438e-13
-5.66056e-13
-5.58301e-13
-5.48997e-13
-5.43497e-13
-5.37956e-13
-5.2953e-13
-5.20416e-13
-5.07333e-13
-5.00088e-13
-4.92933e-13
-4.86028e-13
-4.8266e-13
-4.78025e-13
-4.72003e-13
-4.61379e-13
-4.51041e-13
-4.40104e-13
-4.29173e-13
-4.23843e-13
-4.1922e-13
-4.19034e-13
-4.14843e-13
-4.07554e-13
-3.96905e-13
-3.84733e-13
-3.75568e-13
-3.70687e-13
-3.65403e-13
-3.54238e-13
-3.45758e-13
-3.37089e-13
-3.29049e-13
-3.22282e-13
-3.14129e-13
-3.03662e-13
-3.01492e-13
-3.01322e-13
-2.95987e-13
-2.87617e-13
-2.76006e-13
-2.68137e-13
-2.62305e-13
-2.55914e-13
-2.47849e-13
-2.39919e-13
-2.29519e-13
-2.21568e-13
-2.11758e-13
-2.0346e-13
-1.96255e-13
-1.86928e-13
-1.80919e-13
-1.76124e-13
-1.70921e-13
-1.65682e-13
-1.58998e-13
-1.48375e-13
-1.37975e-13
-1.31842e-13
-1.23277e-13
-1.11358e-13
-1.05346e-13
-9.97975e-14
-9.60231e-14
-8.98106e-14
-8.12817e-14
-7.49748e-14
-6.92793e-14
-6.56762e-14
-6.26809e-14
-5.61156e-14
-4.83185e-14
-3.8675e-14
-3.02811e-14
-2.49858e-14
-1.83302e-14
-1.42357e-14
-4.56251e-15
-6.86659e-13
-6.87542e-13
-6.8822e-13
-6.84513e-13
-6.88912e-13
-6.83745e-13
-6.81205e-13
-6.7899e-13
-6.76337e-13
-6.70488e-13
-6.62111e-13
-6.53026e-13
-6.45672e-13
-6.40653e-13
-6.38495e-13
-6.28507e-13
-6.14543e-13
-6.0672e-13
-6.02043e-13
-5.93173e-13
-5.83961e-13
-5.76081e-13
-5.66588e-13
-5.52638e-13
-5.44918e-13
-5.41268e-13
-5.37159e-13
-5.31592e-13
-5.20752e-13
-5.11272e-13
-5.04002e-13
-4.95354e-13
-4.86822e-13
-4.80824e-13
-4.73708e-13
-4.71542e-13
-4.62011e-13
-4.498e-13
-4.41294e-13
-4.31614e-13
-4.26939e-13
-4.23811e-13
-4.18717e-13
-4.12128e-13
-4.02775e-13
-3.93485e-13
-3.84783e-13
-3.79052e-13
-3.71224e-13
-3.59436e-13
-3.5039e-13
-3.44771e-13
-3.39078e-13
-3.33007e-13
-3.21671e-13
-3.15211e-13
-3.06016e-13
-3.00721e-13
-3.00224e-13
-2.94302e-13
-2.86069e-13
-2.77739e-13
-2.72218e-13
-2.64771e-13
-2.5558e-13
-2.4665e-13
-2.3881e-13
-2.29593e-13
-2.22034e-13
-2.14195e-13
-2.07083e-13
-1.99413e-13
-1.89946e-13
-1.82294e-13
-1.75667e-13
-1.69492e-13
-1.65631e-13
-1.58488e-13
-1.48276e-13
-1.38448e-13
-1.30982e-13
-1.23728e-13
-1.13498e-13
-1.04157e-13
-9.89631e-14
-9.43019e-14
-8.78256e-14
-8.04406e-14
-7.33025e-14
-6.97861e-14
-6.78413e-14
-6.33306e-14
-5.76905e-14
-4.69506e-14
-3.83056e-14
-3.26846e-14
-2.65898e-14
-1.76193e-14
-1.13419e-14
-4.2932e-15
-6.87353e-13
-6.91599e-13
-6.88102e-13
-6.83863e-13
-6.80585e-13
-6.84111e-13
-6.83888e-13
-6.81753e-13
-6.75295e-13
-6.67629e-13
-6.59433e-13
-6.54594e-13
-6.45072e-13
-6.39069e-13
-6.37548e-13
-6.31372e-13
-6.21326e-13
-6.10972e-13
-5.99208e-13
-5.88171e-13
-5.83213e-13
-5.75179e-13
-5.61296e-13
-5.52076e-13
-5.48251e-13
-5.43626e-13
-5.38579e-13
-5.30519e-13
-5.23028e-13
-5.13735e-13
-5.04666e-13
-4.96235e-13
-4.86962e-13
-4.81173e-13
-4.75091e-13
-4.71029e-13
-4.60833e-13
-4.4984e-13
-4.39193e-13
-4.31794e-13
-4.27225e-13
-4.25635e-13
-4.18867e-13
-4.10747e-13
-4.00907e-13
-3.90578e-13
-3.83481e-13
-3.77763e-13
-3.70248e-13
-3.63106e-13
-3.54075e-13
-3.47022e-13
-3.39403e-13
-3.32501e-13
-3.21745e-13
-3.13782e-13
-3.07285e-13
-3.02227e-13
-2.99568e-13
-2.93242e-13
-2.86188e-13
-2.78196e-13
-2.69974e-13
-2.63997e-13
-2.58199e-13
-2.51547e-13
-2.43203e-13
-2.30807e-13
-2.21856e-13
-2.11456e-13
-2.03544e-13
-1.96935e-13
-1.9006e-13
-1.82312e-13
-1.72524e-13
-1.66692e-13
-1.64478e-13
-1.58118e-13
-1.50706e-13
-1.40476e-13
-1.32118e-13
-1.2573e-13
-1.13213e-13
-1.03108e-13
-9.58634e-14
-9.12649e-14
-8.79445e-14
-8.30522e-14
-7.55502e-14
-7.1095e-14
-6.6766e-14
-6.29734e-14
-5.55851e-14
-5.02171e-14
-4.2481e-14
-3.30308e-14
-2.63348e-14
-1.97294e-14
-1.09023e-14
-1.7093e-15
-6.84058e-13
-6.9302e-13
-6.89433e-13
-6.80918e-13
-6.84977e-13
-6.87907e-13
-6.85817e-13
-6.81616e-13
-6.73497e-13
-6.60832e-13
-6.5715e-13
-6.5367e-13
-6.49791e-13
-6.40557e-13
-6.34077e-13
-6.32859e-13
-6.227e-13
-6.13497e-13
-6.04427e-13
-5.91459e-13
-5.80398e-13
-5.69273e-13
-5.52576e-13
-5.4865e-13
-5.48952e-13
-5.46914e-13
-5.38699e-13
-5.30103e-13
-5.22227e-13
-5.16387e-13
-5.05693e-13
-4.95989e-13
-4.87893e-13
-4.84129e-13
-4.80129e-13
-4.69768e-13
-4.58661e-13
-4.49954e-13
-4.39148e-13
-4.34117e-13
-4.29739e-13
-4.2597e-13
-4.172e-13
-4.10867e-13
-4.01092e-13
-3.8924e-13
-3.80389e-13
-3.74444e-13
-3.70438e-13
-3.62972e-13
-3.55645e-13
-3.46512e-13
-3.38318e-13
-3.30041e-13
-3.20441e-13
-3.15186e-13
-3.09891e-13
-3.03267e-13
-2.98149e-13
-2.93772e-13
-2.88467e-13
-2.79198e-13
-2.70571e-13
-2.63758e-13
-2.54924e-13
-2.49679e-13
-2.43684e-13
-2.32072e-13
-2.22884e-13
-2.14583e-13
-2.05063e-13
-1.9707e-13
-1.91346e-13
-1.83882e-13
-1.74234e-13
-1.69132e-13
-1.63284e-13
-1.54884e-13
-1.49935e-13
-1.42578e-13
-1.34923e-13
-1.24845e-13
-1.10968e-13
-1.01212e-13
-9.68132e-14
-9.33343e-14
-8.9512e-14
-8.12495e-14
-7.4542e-14
-7.04286e-14
-6.65048e-14
-6.3187e-14
-5.39331e-14
-4.90722e-14
-4.21518e-14
-3.55957e-14
-2.66351e-14
-1.88327e-14
-9.05119e-15
-6.09876e-16
-6.88918e-13
-6.8942e-13
-6.88731e-13
-6.85548e-13
-6.8262e-13
-6.86206e-13
-6.85266e-13
-6.79305e-13
-6.71278e-13
-6.61593e-13
-6.53667e-13
-6.52984e-13
-6.51752e-13
-6.41762e-13
-6.35387e-13
-6.30658e-13
-6.27107e-13
-6.18565e-13
-6.01371e-13
-5.84191e-13
-5.68906e-13
-5.64105e-13
-5.62466e-13
-5.59582e-13
-5.53421e-13
-5.46329e-13
-5.3637e-13
-5.27992e-13
-5.23368e-13
-5.18332e-13
-5.08617e-13
-4.94951e-13
-4.88645e-13
-4.80181e-13
-4.74532e-13
-4.6767e-13
-4.6074e-13
-4.54693e-13
-4.43793e-13
-4.32713e-13
-4.25784e-13
-4.20391e-13
-4.15694e-13
-4.11349e-13
-4.04339e-13
-3.93894e-13
-3.82544e-13
-3.73349e-13
-3.6716e-13
-3.62903e-13
-3.55824e-13
-3.50137e-13
-3.41246e-13
-3.30496e-13
-3.22025e-13
-3.16135e-13
-3.09198e-13
-2.98195e-13
-2.94251e-13
-2.93295e-13
-2.93064e-13
-2.84648e-13
-2.72987e-13
-2.61467e-13
-2.52009e-13
-2.4603e-13
-2.38294e-13
-2.27897e-13
-2.18884e-13
-2.14239e-13
-2.13054e-13
-2.02834e-13
-1.92431e-13
-1.8671e-13
-1.77325e-13
-1.67568e-13
-1.59098e-13
-1.50988e-13
-1.4579e-13
-1.4113e-13
-1.34096e-13
-1.2425e-13
-1.15888e-13
-1.06941e-13
-9.98942e-14
-9.03683e-14
-8.66647e-14
-8.24814e-14
-7.54597e-14
-7.20744e-14
-6.59275e-14
-5.86562e-14
-5.4047e-14
-4.81389e-14
-4.18334e-14
-3.34501e-14
-2.63246e-14
-1.72652e-14
-9.25197e-15
-2.8417e-15
-6.8772e-13
-6.86902e-13
-6.84933e-13
-6.86604e-13
-6.8889e-13
-6.88414e-13
-6.8466e-13
-6.7767e-13
-6.6932e-13
-6.62581e-13
-6.57543e-13
-6.52283e-13
-6.482e-13
-6.39493e-13
-6.35529e-13
-6.30948e-13
-6.26964e-13
-6.18401e-13
-5.96921e-13
-5.86251e-13
-5.81208e-13
-5.73523e-13
-5.62459e-13
-5.53068e-13
-5.50046e-13
-5.42714e-13
-5.32525e-13
-5.26779e-13
-5.21222e-13
-5.15483e-13
-5.08809e-13
-5.00454e-13
-4.94318e-13
-4.87086e-13
-4.75479e-13
-4.66879e-13
-4.59164e-13
-4.50172e-13
-4.42366e-13
-4.33189e-13
-4.26644e-13
-4.22985e-13
-4.1632e-13
-4.1468e-13
-4.09345e-13
-3.94329e-13
-3.78687e-13
-3.66061e-13
-3.65587e-13
-3.64304e-13
-3.60195e-13
-3.53529e-13
-3.4129e-13
-3.30446e-13
-3.19428e-13
-3.13339e-13
-3.09837e-13
-3.04101e-13
-2.9628e-13
-2.90984e-13
-2.88976e-13
-2.81656e-13
-2.74029e-13
-2.65524e-13
-2.57226e-13
-2.48223e-13
-2.3948e-13
-2.29894e-13
-2.23496e-13
-2.1634e-13
-2.08983e-13
-2.02902e-13
-1.91116e-13
-1.7876e-13
-1.71924e-13
-1.67508e-13
-1.62739e-13
-1.54838e-13
-1.50113e-13
-1.43899e-13
-1.34965e-13
-1.24468e-13
-1.12359e-13
-1.01756e-13
-9.377e-14
-8.99942e-14
-8.76044e-14
-8.39132e-14
-7.71026e-14
-7.056e-14
-6.36364e-14
-5.84454e-14
-5.41822e-14
-4.94827e-14
-4.04511e-14
-3.18836e-14
-2.58446e-14
-1.87485e-14
-1.0675e-14
-1.37027e-15
-6.89848e-13
-6.90985e-13
-6.86367e-13
-6.81036e-13
-6.84183e-13
-6.86611e-13
-6.86297e-13
-6.78362e-13
-6.66957e-13
-6.64221e-13
-6.58357e-13
-6.49045e-13
-6.42611e-13
-6.39709e-13
-6.37427e-13
-6.33389e-13
-6.26827e-13
-6.16223e-13
-6.01166e-13
-5.88157e-13
-5.79721e-13
-5.70938e-13
-5.65792e-13
-5.59084e-13
-5.50479e-13
-5.40264e-13
-5.31588e-13
-5.26758e-13
-5.24517e-13
-5.16151e-13
-5.09678e-13
-5.01736e-13
-4.91032e-13
-4.80375e-13
-4.75646e-13
-4.68122e-13
-4.58767e-13
-4.50007e-13
-4.43936e-13
-4.37667e-13
-4.32668e-13
-4.25195e-13
-4.13176e-13
-4.06146e-13
-4.02105e-13
-3.95155e-13
-3.83743e-13
-3.74723e-13
-3.68638e-13
-3.62202e-13
-3.56069e-13
-3.49277e-13
-3.40033e-13
-3.31654e-13
-3.23675e-13
-3.18549e-13
-3.11127e-13
-3.04382e-13
-2.96945e-13
-2.92161e-13
-2.8614e-13
-2.79114e-13
-2.72712e-13
-2.65037e-13
-2.54513e-13
-2.44447e-13
-2.38444e-13
-2.30882e-13
-2.22907e-13
-2.15547e-13
-2.07482e-13
-2.03285e-13
-1.95165e-13
-1.85013e-13
-1.73676e-13
-1.67679e-13
-1.63685e-13
-1.56303e-13
-1.50531e-13
-1.41682e-13
-1.35064e-13
-1.25223e-13
-1.12789e-13
-1.03221e-13
-9.59743e-14
-9.05584e-14
-8.81875e-14
-8.31598e-14
-7.67208e-14
-7.03702e-14
-6.30731e-14
-5.77146e-14
-5.10999e-14
-4.63468e-14
-3.99656e-14
-3.2314e-14
-2.46773e-14
-1.53137e-14
-7.06395e-15
1.23082e-15
-6.89406e-13
-6.88676e-13
-6.89051e-13
-6.85569e-13
-6.82438e-13
-6.84316e-13
-6.83428e-13
-6.80833e-13
-6.73403e-13
-6.605e-13
-6.52782e-13
-6.4626e-13
-6.43501e-13
-6.42209e-13
-6.38631e-13
-6.32437e-13
-6.23208e-13
-6.17136e-13
-6.0852e-13
-5.92994e-13
-5.79688e-13
-5.66927e-13
-5.61492e-13
-5.54859e-13
-5.51363e-13
-5.44982e-13
-5.35436e-13
-5.2926e-13
-5.23055e-13
-5.16632e-13
-5.10203e-13
-5.01475e-13
-4.91515e-13
-4.80006e-13
-4.72812e-13
-4.66559e-13
-4.6129e-13
-4.50917e-13
-4.4526e-13
-4.38718e-13
-4.28849e-13
-4.19451e-13
-4.12216e-13
-4.06402e-13
-4.04644e-13
-3.99785e-13
-3.88261e-13
-3.76757e-13
-3.69016e-13
-3.60172e-13
-3.5344e-13
-3.4892e-13
-3.41403e-13
-3.32717e-13
-3.24219e-13
-3.1702e-13
-3.10593e-13
-3.03597e-13
-2.96959e-13
-2.93952e-13
-2.8963e-13
-2.85324e-13
-2.78487e-13
-2.65618e-13
-2.51532e-13
-2.37757e-13
-2.30703e-13
-2.25961e-13
-2.22168e-13
-2.21515e-13
-2.15193e-13
-2.05225e-13
-1.9768e-13
-1.87042e-13
-1.7442e-13
-1.65098e-13
-1.60671e-13
-1.54516e-13
-1.49969e-13
-1.40978e-13
-1.34028e-13
-1.25492e-13
-1.1476e-13
-1.06696e-13
-9.73543e-14
-8.91576e-14
-8.51174e-14
-7.99005e-14
-7.57547e-14
-7.00425e-14
-6.16493e-14
-5.33469e-14
-4.77845e-14
-4.36748e-14
-3.60183e-14
-2.81837e-14
-2.06222e-14
-1.36812e-14
-5.11676e-15
4.42083e-16
-6.87563e-13
-6.86779e-13
-6.8577e-13
-6.87268e-13
-6.87599e-13
-6.82142e-13
-6.80222e-13
-6.77088e-13
-6.71565e-13
-6.65461e-13
-6.53718e-13
-6.44943e-13
-6.43803e-13
-6.44361e-13
-6.39302e-13
-6.34775e-13
-6.22598e-13
-6.15184e-13
-6.0759e-13
-5.93971e-13
-5.83545e-13
-5.68139e-13
-5.58217e-13
-5.53506e-13
-5.47958e-13
-5.42679e-13
-5.37855e-13
-5.31064e-13
-5.24782e-13
-5.1824e-13
-5.09561e-13
-5.00329e-13
-4.90285e-13
-4.81808e-13
-4.76735e-13
-4.68572e-13
-4.59641e-13
-4.51097e-13
-4.46144e-13
-4.36831e-13
-4.29005e-13
-4.19461e-13
-4.12939e-13
-4.1024e-13
-4.07026e-13
-3.98235e-13
-3.85659e-13
-3.72983e-13
-3.66084e-13
-3.58867e-13
-3.5613e-13
-3.5102e-13
-3.40862e-13
-3.32247e-13
-3.23363e-13
-3.20358e-13
-3.13493e-13
-3.05971e-13
-2.96526e-13
-2.88108e-13
-2.85777e-13
-2.78037e-13
-2.73174e-13
-2.6822e-13
-2.54696e-13
-2.40838e-13
-2.31347e-13
-2.25054e-13
-2.22688e-13
-2.24182e-13
-2.15787e-13
-2.07818e-13
-1.9829e-13
-1.86458e-13
-1.72515e-13
-1.61495e-13
-1.60256e-13
-1.57418e-13
-1.53252e-13
-1.44463e-13
-1.37633e-13
-1.28927e-13
-1.14432e-13
-1.03349e-13
-9.29565e-14
-8.36658e-14
-8.55911e-14
-8.35936e-14
-7.57927e-14
-6.86961e-14
-5.95154e-14
-5.31382e-14
-4.71964e-14
-4.16475e-14
-3.76495e-14
-3.11661e-14
-1.73532e-14
-5.32996e-15
2.33051e-15
-6.452e-16
-6.90149e-13
-6.88273e-13
-6.86159e-13
-6.87411e-13
-6.86308e-13
-6.8122e-13
-6.8156e-13
-6.7809e-13
-6.71245e-13
-6.63167e-13
-6.54941e-13
-6.47807e-13
-6.40192e-13
-6.37579e-13
-6.34984e-13
-6.29682e-13
-6.2567e-13
-6.20251e-13
-6.09769e-13
-5.95235e-13
-5.82694e-13
-5.74696e-13
-5.64378e-13
-5.54718e-13
-5.48318e-13
-5.37333e-13
-5.33828e-13
-5.307e-13
-5.26205e-13
-5.20362e-13
-5.11634e-13
-5.01062e-13
-4.89306e-13
-4.79233e-13
-4.73764e-13
-4.66611e-13
-4.61396e-13
-4.53938e-13
-4.48167e-13
-4.3584e-13
-4.27704e-13
-4.16733e-13
-4.12574e-13
-4.12332e-13
-4.05533e-13
-3.97775e-13
-3.86516e-13
-3.76126e-13
-3.67132e-13
-3.58588e-13
-3.52795e-13
-3.49322e-13
-3.41195e-13
-3.35258e-13
-3.28116e-13
-3.19187e-13
-3.12123e-13
-3.04306e-13
-2.96192e-13
-2.90344e-13
-2.88001e-13
-2.87772e-13
-2.77654e-13
-2.65409e-13
-2.47426e-13
-2.38003e-13
-2.31435e-13
-2.27497e-13
-2.22309e-13
-2.19263e-13
-2.13053e-13
-2.11158e-13
-2.04622e-13
-1.9156e-13
-1.71644e-13
-1.55648e-13
-1.53681e-13
-1.57987e-13
-1.5461e-13
-1.44426e-13
-1.36364e-13
-1.2619e-13
-1.16009e-13
-1.07337e-13
-9.68212e-14
-8.64334e-14
-8.04877e-14
-7.96737e-14
-7.42676e-14
-6.72388e-14
-5.74902e-14
-5.23391e-14
-4.68328e-14
-4.02006e-14
-3.32622e-14
-2.76015e-14
-1.61343e-14
-6.46393e-15
-7.8486e-16
-5.29923e-16
-6.87979e-13
-6.87321e-13
-6.79775e-13
-6.88481e-13
-6.88211e-13
-6.85278e-13
-6.78873e-13
-6.72437e-13
-6.66653e-13
-6.58536e-13
-6.54344e-13
-6.49648e-13
-6.48357e-13
-6.42411e-13
-6.36644e-13
-6.32919e-13
-6.27981e-13
-6.21291e-13
-6.10353e-13
-5.95757e-13
-5.77235e-13
-5.63646e-13
-5.55399e-13
-5.53121e-13
-5.4798e-13
-5.42869e-13
-5.364e-13
-5.30075e-13
-5.26741e-13
-5.22885e-13
-5.14518e-13
-5.0162e-13
-4.91587e-13
-4.83389e-13
-4.78742e-13
-4.6856e-13
-4.5838e-13
-4.5282e-13
-4.4615e-13
-4.35741e-13
-4.25909e-13
-4.21648e-13
-4.16843e-13
-4.10669e-13
-4.00409e-13
-3.91068e-13
-3.84159e-13
-3.7642e-13
-3.68987e-13
-3.62292e-13
-3.5575e-13
-3.49956e-13
-3.39229e-13
-3.29731e-13
-3.30799e-13
-3.30041e-13
-3.15411e-13
-3.00594e-13
-2.91448e-13
-2.84432e-13
-2.82248e-13
-2.7947e-13
-2.78474e-13
-2.6884e-13
-2.52386e-13
-2.4333e-13
-2.30308e-13
-2.28193e-13
-2.22497e-13
-2.17051e-13
-2.12464e-13
-2.11432e-13
-2.05091e-13
-1.89728e-13
-1.73468e-13
-1.59948e-13
-1.56047e-13
-1.58676e-13
-1.50987e-13
-1.41231e-13
-1.34694e-13
-1.27005e-13
-1.1878e-13
-1.0853e-13
-9.79992e-14
-8.60746e-14
-7.99407e-14
-7.93313e-14
-7.24511e-14
-6.51103e-14
-5.74446e-14
-5.1164e-14
-4.39825e-14
-3.85892e-14
-3.37444e-14
-2.61835e-14
-1.6266e-14
-7.80049e-15
1.15323e-16
1.12545e-15
-6.8456e-13
-6.9389e-13
-6.88315e-13
-6.8365e-13
-6.84308e-13
-6.8316e-13
-6.78428e-13
-6.77562e-13
-6.6785e-13
-6.54693e-13
-6.50332e-13
-6.49242e-13
-6.4677e-13
-6.43965e-13
-6.39652e-13
-6.30562e-13
-6.20185e-13
-6.1296e-13
-6.0726e-13
-5.97811e-13
-5.90306e-13
-5.81983e-13
-5.7033e-13
-5.5343e-13
-5.39614e-13
-5.33014e-13
-5.34826e-13
-5.31861e-13
-5.27741e-13
-5.24374e-13
-5.15083e-13
-5.0304e-13
-4.88218e-13
-4.76073e-13
-4.69976e-13
-4.65114e-13
-4.64556e-13
-4.58942e-13
-4.46915e-13
-4.39898e-13
-4.28199e-13
-4.18268e-13
-4.15406e-13
-4.08453e-13
-3.99462e-13
-3.90704e-13
-3.814e-13
-3.76551e-13
-3.7195e-13
-3.64576e-13
-3.56809e-13
-3.47855e-13
-3.41066e-13
-3.33846e-13
-3.29016e-13
-3.23338e-13
-3.1742e-13
-3.0948e-13
-3.0105e-13
-2.89897e-13
-2.81102e-13
-2.74661e-13
-2.69377e-13
-2.63909e-13
-2.54133e-13
-2.45718e-13
-2.3636e-13
-2.29283e-13
-2.22998e-13
-2.18724e-13
-2.14979e-13
-2.06855e-13
-1.99009e-13
-1.90129e-13
-1.76062e-13
-1.65055e-13
-1.56272e-13
-1.53654e-13
-1.50265e-13
-1.42143e-13
-1.3562e-13
-1.25038e-13
-1.1691e-13
-1.07138e-13
-9.64263e-14
-8.72697e-14
-8.23605e-14
-7.7672e-14
-7.31181e-14
-6.46948e-14
-5.77462e-14
-5.37131e-14
-4.63685e-14
-3.82138e-14
-2.93164e-14
-2.1283e-14
-1.48732e-14
-9.24668e-15
-2.38162e-15
6.30369e-16
-6.8353e-13
-6.87939e-13
-6.8931e-13
-6.84888e-13
-6.8436e-13
-6.85663e-13
-6.7563e-13
-6.65227e-13
-6.60713e-13
-6.58725e-13
-6.5648e-13
-6.5335e-13
-6.50349e-13
-6.45343e-13
-6.40125e-13
-6.31634e-13
-6.24879e-13
-6.21163e-13
-6.12258e-13
-5.97438e-13
-5.78891e-13
-5.6491e-13
-5.56555e-13
-5.47633e-13
-5.46875e-13
-5.4469e-13
-5.39274e-13
-5.30975e-13
-5.25825e-13
-5.23915e-13
-5.17312e-13
-5.06399e-13
-4.93268e-13
-4.76366e-13
-4.6601e-13
-4.65369e-13
-4.65616e-13
-4.60183e-13
-4.52484e-13
-4.40814e-13
-4.26386e-13
-4.16621e-13
-4.08484e-13
-4.04295e-13
-3.99416e-13
-3.9319e-13
-3.8606e-13
-3.77614e-13
-3.71732e-13
-3.71312e-13
-3.63238e-13
-3.46336e-13
-3.36473e-13
-3.29116e-13
-3.23844e-13
-3.21801e-13
-3.17787e-13
-3.08498e-13
-2.96418e-13
-2.87743e-13
-2.84135e-13
-2.79723e-13
-2.72784e-13
-2.63828e-13
-2.49997e-13
-2.39991e-13
-2.34613e-13
-2.31868e-13
-2.26283e-13
-2.18525e-13
-2.11959e-13
-2.06705e-13
-1.99206e-13
-1.88563e-13
-1.77158e-13
-1.61857e-13
-1.54481e-13
-1.52801e-13
-1.5262e-13
-1.47423e-13
-1.38688e-13
-1.28129e-13
-1.1641e-13
-1.04382e-13
-9.51381e-14
-8.7497e-14
-8.24283e-14
-7.62664e-14
-7.05447e-14
-6.37844e-14
-5.78204e-14
-5.24509e-14
-4.65718e-14
-3.8327e-14
-2.86567e-14
-1.89768e-14
-1.14791e-14
-6.46267e-15
-7.56816e-16
9.24805e-17
-6.82076e-13
-6.9021e-13
-6.9052e-13
-6.86244e-13
-6.83067e-13
-6.88108e-13
-6.84836e-13
-6.71408e-13
-6.54182e-13
-6.5087e-13
-6.50219e-13
-6.51771e-13
-6.50814e-13
-6.48447e-13
-6.42979e-13
-6.32694e-13
-6.23102e-13
-6.15865e-13
-6.0362e-13
-5.94616e-13
-5.8661e-13
-5.73122e-13
-5.61365e-13
-5.48066e-13
-5.4655e-13
-5.44211e-13
-5.41254e-13
-5.35407e-13
-5.26949e-13
-5.22738e-13
-5.14105e-13
-5.0218e-13
-4.92231e-13
-4.77056e-13
-4.64687e-13
-4.62969e-13
-4.64014e-13
-4.60954e-13
-4.52092e-13
-4.41604e-13
-4.24754e-13
-4.15032e-13
-4.12052e-13
-4.07127e-13
-3.99633e-13
-3.9205e-13
-3.88509e-13
-3.8184e-13
-3.72282e-13
-3.61785e-13
-3.54604e-13
-3.48763e-13
-3.40474e-13
-3.27768e-13
-3.2828e-13
-3.25224e-13
-3.16773e-13
-3.10579e-13
-3.03427e-13
-2.89913e-13
-2.82463e-13
-2.76751e-13
-2.68089e-13
-2.60509e-13
-2.50044e-13
-2.42131e-13
-2.32759e-13
-2.29349e-13
-2.22964e-13
-2.21465e-13
-2.1431e-13
-2.09509e-13
-2.02539e-13
-1.88519e-13
-1.74027e-13
-1.62016e-13
-1.57607e-13
-1.53564e-13
-1.49051e-13
-1.43571e-13
-1.37613e-13
-1.28655e-13
-1.16946e-13
-1.04867e-13
-9.81128e-14
-8.99946e-14
-8.26616e-14
-7.63984e-14
-7.07584e-14
-6.22677e-14
-5.57237e-14
-5.01616e-14
-4.27706e-14
-3.46658e-14
-2.79698e-14
-2.28081e-14
-1.0246e-14
-3.17216e-15
2.08157e-15
8.9951e-16
-6.88418e-13
-6.87721e-13
-6.83739e-13
-6.79843e-13
-6.8185e-13
-6.7653e-13
-6.72807e-13
-6.73973e-13
-6.70488e-13
-6.63432e-13
-6.58754e-13
-6.5062e-13
-6.44939e-13
-6.43715e-13
-6.41281e-13
-6.3469e-13
-6.26009e-13
-6.22265e-13
-6.10954e-13
-5.94393e-13
-5.7527e-13
-5.63211e-13
-5.57173e-13
-5.55169e-13
-5.48066e-13
-5.4552e-13
-5.41168e-13
-5.33918e-13
-5.27579e-13
-5.21646e-13
-5.14134e-13
-5.01537e-13
-4.8959e-13
-4.76983e-13
-4.68049e-13
-4.65992e-13
-4.67904e-13
-4.60971e-13
-4.50628e-13
-4.40315e-13
-4.2577e-13
-4.13104e-13
-4.10357e-13
-4.07337e-13
-4.03375e-13
-3.92892e-13
-3.83654e-13
-3.80381e-13
-3.75663e-13
-3.64674e-13
-3.54015e-13
-3.48865e-13
-3.42342e-13
-3.31076e-13
-3.23585e-13
-3.2051e-13
-3.14425e-13
-3.09658e-13
-3.04329e-13
-2.95347e-13
-2.84658e-13
-2.77107e-13
-2.6765e-13
-2.60173e-13
-2.53279e-13
-2.43346e-13
-2.33165e-13
-2.24226e-13
-2.20306e-13
-2.21832e-13
-2.13201e-13
-2.07754e-13
-2.00994e-13
-1.89187e-13
-1.77747e-13
-1.65429e-13
-1.54463e-13
-1.48952e-13
-1.48462e-13
-1.48473e-13
-1.41766e-13
-1.27136e-13
-1.15643e-13
-1.02692e-13
-9.7913e-14
-9.22914e-14
-8.50775e-14
-7.49954e-14
-6.62805e-14
-6.10609e-14
-5.56637e-14
-4.92429e-14
-4.41057e-14
-3.62845e-14
-2.709e-14
-1.85202e-14
-1.07e-14
-4.42026e-15
1.86338e-15
2.36814e-15
-6.87712e-13
-6.86647e-13
-6.83829e-13
-6.81235e-13
-6.87546e-13
-6.84948e-13
-6.73166e-13
-6.66818e-13
-6.62723e-13
-6.60179e-13
-6.59192e-13
-6.57849e-13
-6.4683e-13
-6.39231e-13
-6.36626e-13
-6.31926e-13
-6.27891e-13
-6.20524e-13
-6.08491e-13
-5.92257e-13
-5.78535e-13
-5.64828e-13
-5.55584e-13
-5.55447e-13
-5.54879e-13
-5.45586e-13
-5.37976e-13
-5.34225e-13
-5.3139e-13
-5.24321e-13
-5.16332e-13
-5.02907e-13
-4.89131e-13
-4.76077e-13
-4.6494e-13
-4.644e-13
-4.62324e-13
-4.59734e-13
-4.54617e-13
-4.43744e-13
-4.28806e-13
-4.17595e-13
-4.10721e-13
-4.01847e-13
-3.99919e-13
-3.94058e-13
-3.86618e-13
-3.77369e-13
-3.71113e-13
-3.64973e-13
-3.54938e-13
-3.48963e-13
-3.42043e-13
-3.32456e-13
-3.29674e-13
-3.248e-13
-3.12916e-13
-3.03831e-13
-3.00524e-13
-2.93049e-13
-2.86561e-13
-2.7678e-13
-2.69199e-13
-2.6218e-13
-2.53154e-13
-2.41704e-13
-2.34981e-13
-2.2475e-13
-2.16982e-13
-2.15411e-13
-2.12819e-13
-2.08662e-13
-2.02597e-13
-1.8952e-13
-1.76753e-13
-1.65806e-13
-1.57862e-13
-1.50844e-13
-1.50631e-13
-1.46961e-13
-1.39126e-13
-1.28438e-13
-1.1698e-13
-1.04776e-13
-9.64713e-14
-8.74813e-14
-8.0732e-14
-7.67462e-14
-7.08033e-14
-6.12668e-14
-5.46776e-14
-4.77952e-14
-4.10153e-14
-3.36673e-14
-2.55222e-14
-1.9902e-14
-1.23079e-14
-2.81916e-15
2.35953e-15
4.92004e-16
-6.82741e-13
-6.85301e-13
-6.8538e-13
-6.83928e-13
-6.82427e-13
-6.76681e-13
-6.72482e-13
-6.6943e-13
-6.68553e-13
-6.65304e-13
-6.60556e-13
-6.56422e-13
-6.49707e-13
-6.41259e-13
-6.35431e-13
-6.2865e-13
-6.25781e-13
-6.18842e-13
-6.06505e-13
-5.94584e-13
-5.79033e-13
-5.65976e-13
-5.60692e-13
-5.56205e-13
-5.4781e-13
-5.43452e-13
-5.41936e-13
-5.38152e-13
-5.3073e-13
-5.20336e-13
-5.11731e-13
-5.01753e-13
-4.88795e-13
-4.77073e-13
-4.67883e-13
-4.69572e-13
-4.69412e-13
-4.61384e-13
-4.50085e-13
-4.36643e-13
-4.2613e-13
-4.20539e-13
-4.12192e-13
-4.02381e-13
-3.97268e-13
-3.9063e-13
-3.88866e-13
-3.87111e-13
-3.75426e-13
-3.61631e-13
-3.52468e-13
-3.5013e-13
-3.42853e-13
-3.31808e-13
-3.27786e-13
-3.23826e-13
-3.16446e-13
-3.0655e-13
-2.98706e-13
-2.91515e-13
-2.8872e-13
-2.8e-13
-2.70173e-13
-2.61202e-13
-2.4958e-13
-2.4114e-13
-2.32422e-13
-2.26124e-13
-2.18317e-13
-2.1356e-13
-2.08936e-13
-2.08772e-13
-2.03566e-13
-1.8969e-13
-1.76882e-13
-1.65922e-13
-1.59859e-13
-1.53963e-13
-1.46281e-13
-1.38325e-13
-1.40936e-13
-1.34847e-13
-1.18355e-13
-1.05921e-13
-9.62124e-14
-8.56085e-14
-7.86162e-14
-7.59514e-14
-7.03231e-14
-6.13829e-14
-5.36273e-14
-4.83124e-14
-4.15604e-14
-3.24956e-14
-2.77353e-14
-1.84644e-14
-9.27884e-15
-1.48878e-15
3.18611e-15
2.84666e-17
-6.89373e-13
-6.86469e-13
-6.8409e-13
-6.81323e-13
-6.76792e-13
-6.74553e-13
-6.71765e-13
-6.71918e-13
-6.69977e-13
-6.66086e-13
-6.59704e-13
-6.55646e-13
-6.50218e-13
-6.44416e-13
-6.37175e-13
-6.27303e-13
-6.17449e-13
-6.11354e-13
-6.06424e-13
-5.98808e-13
-5.81815e-13
-5.6994e-13
-5.61215e-13
-5.53877e-13
-5.49697e-13
-5.45707e-13
-5.42665e-13
-5.39034e-13
-5.29026e-13
-5.22922e-13
-5.1311e-13
-5.01094e-13
-4.87233e-13
-4.74968e-13
-4.70293e-13
-4.69449e-13
-4.66394e-13
-4.59864e-13
-4.49601e-13
-4.3833e-13
-4.26697e-13
-4.17756e-13
-4.1302e-13
-4.06985e-13
-4.01699e-13
-3.94974e-13
-3.85287e-13
-3.78471e-13
-3.74017e-13
-3.65679e-13
-3.59276e-13
-3.50076e-13
-3.40987e-13
-3.32943e-13
-3.26712e-13
-3.19059e-13
-3.15147e-13
-3.08401e-13
-2.98855e-13
-2.92243e-13
-2.89545e-13
-2.82454e-13
-2.71189e-13
-2.59465e-13
-2.50559e-13
-2.41574e-13
-2.32088e-13
-2.24555e-13
-2.18275e-13
-2.13747e-13
-2.10982e-13
-2.09607e-13
-2.02468e-13
-1.87071e-13
-1.75772e-13
-1.6593e-13
-1.5924e-13
-1.5301e-13
-1.49155e-13
-1.44309e-13
-1.3755e-13
-1.29338e-13
-1.19201e-13
-1.08705e-13
-1.00938e-13
-8.65657e-14
-7.77892e-14
-7.2885e-14
-6.95552e-14
-5.84855e-14
-5.10686e-14
-4.74923e-14
-4.54047e-14
-3.38836e-14
-2.33656e-14
-1.74136e-14
-1.05062e-14
5.9618e-16
1.83687e-15
-1.02318e-15
-6.91715e-13
-6.85591e-13
-6.80039e-13
-6.80325e-13
-6.73146e-13
-6.74327e-13
-6.72135e-13
-6.73251e-13
-6.73092e-13
-6.64378e-13
-6.58852e-13
-6.56552e-13
-6.5479e-13
-6.46141e-13
-6.3736e-13
-6.30224e-13
-6.22115e-13
-6.11443e-13
-6.04946e-13
-5.92345e-13
-5.81963e-13
-5.70086e-13
-5.58467e-13
-5.52199e-13
-5.48465e-13
-5.49251e-13
-5.43554e-13
-5.37842e-13
-5.29276e-13
-5.2174e-13
-5.13532e-13
-5.03188e-13
-4.87728e-13
-4.77285e-13
-4.68831e-13
-4.65579e-13
-4.65158e-13
-4.60335e-13
-4.50241e-13
-4.388e-13
-4.30042e-13
-4.20686e-13
-4.12254e-13
-4.05823e-13
-3.99886e-13
-3.93338e-13
-3.85723e-13
-3.80882e-13
-3.76257e-13
-3.66715e-13
-3.56317e-13
-3.46259e-13
-3.40549e-13
-3.3534e-13
-3.29875e-13
-3.23633e-13
-3.1635e-13
-3.0705e-13
-3.01077e-13
-2.96358e-13
-2.91093e-13
-2.81414e-13
-2.67673e-13
-2.57894e-13
-2.48809e-13
-2.39938e-13
-2.30479e-13
-2.25384e-13
-2.18211e-13
-2.1719e-13
-2.12091e-13
-2.05858e-13
-1.96354e-13
-1.84741e-13
-1.74436e-13
-1.64244e-13
-1.62752e-13
-1.59943e-13
-1.50456e-13
-1.41369e-13
-1.34647e-13
-1.27219e-13
-1.1814e-13
-1.07533e-13
-9.59318e-14
-8.38436e-14
-7.90451e-14
-7.52363e-14
-6.8427e-14
-6.3777e-14
-5.82011e-14
-4.75346e-14
-3.85954e-14
-3.18605e-14
-2.34239e-14
-1.48807e-14
-8.42753e-15
-4.75024e-15
-1.38992e-15
-1.28052e-15
-6.89508e-13
-6.83966e-13
-6.82035e-13
-6.79955e-13
-6.77226e-13
-6.73994e-13
-6.69299e-13
-6.72178e-13
-6.72335e-13
-6.68038e-13
-6.62032e-13
-6.55824e-13
-6.53772e-13
-6.44703e-13
-6.34441e-13
-6.24925e-13
-6.16219e-13
-6.11967e-13
-6.05791e-13
-5.95052e-13
-5.83346e-13
-5.71625e-13
-5.60944e-13
-5.55856e-13
-5.53688e-13
-5.4715e-13
-5.40338e-13
-5.3224e-13
-5.25259e-13
-5.22011e-13
-5.14643e-13
-5.07581e-13
-4.95808e-13
-4.84159e-13
-4.67248e-13
-4.62092e-13
-4.60637e-13
-4.56827e-13
-4.49515e-13
-4.38852e-13
-4.31896e-13
-4.21092e-13
-4.14844e-13
-4.04533e-13
-4.0039e-13
-3.94555e-13
-3.90254e-13
-3.82488e-13
-3.72687e-13
-3.59936e-13
-3.55292e-13
-3.5159e-13
-3.44421e-13
-3.31939e-13
-3.25116e-13
-3.18849e-13
-3.11572e-13
-3.09838e-13
-3.02304e-13
-3.00421e-13
-2.99935e-13
-2.78851e-13
-2.65772e-13
-2.59701e-13
-2.51633e-13
-2.42542e-13
-2.32908e-13
-2.26163e-13
-2.15636e-13
-2.11618e-13
-2.07608e-13
-2.0874e-13
-2.01095e-13
-1.8821e-13
-1.72264e-13
-1.60247e-13
-1.62215e-13
-1.58447e-13
-1.50156e-13
-1.44165e-13
-1.36812e-13
-1.27651e-13
-1.1663e-13
-1.05918e-13
-9.67439e-14
-8.52588e-14
-7.81994e-14
-7.54137e-14
-6.95675e-14
-5.9606e-14
-5.23035e-14
-4.71546e-14
-3.91778e-14
-3.13562e-14
-2.70932e-14
-2.09977e-14
-8.69226e-15
-1.58289e-15
3.31728e-15
1.26037e-17
-6.84085e-13
-6.86142e-13
-6.85827e-13
-6.798e-13
-6.74713e-13
-6.7513e-13
-6.73495e-13
-6.69794e-13
-6.70342e-13
-6.66889e-13
-6.63676e-13
-6.59424e-13
-6.52166e-13
-6.43298e-13
-6.35358e-13
-6.28422e-13
-6.23649e-13
-6.18976e-13
-6.08192e-13
-5.92754e-13
-5.75223e-13
-5.61869e-13
-5.57928e-13
-5.57994e-13
-5.54631e-13
-5.46573e-13
-5.37438e-13
-5.32549e-13
-5.25344e-13
-5.23152e-13
-5.18686e-13
-5.04243e-13
-4.9094e-13
-4.81979e-13
-4.7347e-13
-4.68064e-13
-4.63022e-13
-4.55677e-13
-4.4861e-13
-4.4014e-13
-4.30442e-13
-4.20652e-13
-4.11849e-13
-4.07045e-13
-4.05451e-13
-3.96193e-13
-3.8812e-13
-3.76483e-13
-3.7381e-13
-3.66541e-13
-3.55007e-13
-3.50212e-13
-3.43749e-13
-3.35399e-13
-3.28351e-13
-3.15624e-13
-3.04577e-13
-3.07786e-13
-3.1079e-13
-3.02157e-13
-2.92165e-13
-2.81013e-13
-2.69399e-13
-2.61832e-13