/*--------------------------------*- C++ -*----------------------------------*\
| =========                 |                                                 |
| \\      /  F ield         | OpenFOAM: The Open Source CFD Toolbox           |
|  \\    /   O peration     | Version:  v2012                                 |
|   \\  /    A nd           | Website:  www.openfoam.com                      |
|    \\/     M anipulation  |                                                 |
\*---------------------------------------------------------------------------*/
FoamFile
{
    version     2.0;
    format      ascii;
    class       volVectorField;
    location    "70";
    object      Usup;
}
// * * * * * * * * * * * * * * * * * * * * * * * * * * * * * * * * * * * * * //

dimensions      [0 1 -1 0 0 0 0];


internalField   nonuniform List<vector> 
4000
(
(-5.89993e-17 -1.07111e-16 0)
(-4.40335e-16 -2.65336e-16 0)
(-6.52563e-16 -1.44805e-16 0)
(-7.66306e-16 -3.36803e-16 0)
(-1.34543e-15 -4.17563e-16 0)
(-1.93029e-15 -3.79651e-16 0)
(-2.18552e-15 -5.23316e-16 0)
(-2.61815e-15 -8.57778e-16 0)
(-3.02376e-15 -1.33787e-15 0)
(-3.18579e-15 -1.52643e-15 0)
(-3.46338e-15 -1.26555e-15 0)
(-3.8333e-15 -1.30893e-15 0)
(-4.47759e-15 -1.39811e-15 0)
(-5.45011e-15 -1.47077e-15 0)
(-6.02125e-15 -1.19731e-15 0)
(-5.41189e-15 -8.12269e-16 0)
(-5.09921e-15 -1.4834e-15 0)
(-6.21652e-15 -2.01673e-15 0)
(-7.17504e-15 -1.63172e-15 0)
(-7.41114e-15 -1.63893e-15 0)
(-7.63032e-15 -1.49778e-15 0)
(-7.66849e-15 -1.5124e-15 0)
(-7.52197e-15 -1.38255e-15 0)
(-7.20139e-15 -7.94063e-16 0)
(-6.66029e-15 -5.40562e-16 0)
(-6.11091e-15 -3.55789e-16 0)
(-5.57317e-15 -2.36288e-16 0)
(-5.13377e-15 -2.48612e-16 0)
(-4.94374e-15 -5.85659e-16 0)
(-4.89869e-15 -7.57916e-16 0)
(-4.82143e-15 -5.19446e-16 0)
(-4.44704e-15 -1.8885e-16 0)
(-4.21906e-15 -3.97573e-16 0)
(-4.17059e-15 -3.57769e-16 0)
(-3.91752e-15 -4.07914e-16 0)
(-3.40083e-15 -5.74928e-16 0)
(-3.10525e-15 -8.51066e-16 0)
(-2.80893e-15 -7.56429e-16 0)
(-2.28267e-15 -6.46359e-16 0)
(-1.11699e-15 -3.44176e-16 0)
(-1.44514e-16 -7.26315e-16 0)
(-6.08635e-16 -9.02923e-16 0)
(-6.42257e-16 -7.0327e-16 0)
(-4.62821e-16 -1.16354e-15 0)
(-5.11424e-16 -1.61859e-15 0)
(-9.09446e-16 -1.77015e-15 0)
(-1.54026e-15 -1.74085e-15 0)
(-1.53025e-15 -1.38544e-15 0)
(-1.33799e-15 -1.1373e-15 0)
(-8.46363e-16 -1.01739e-15 0)
(-1.28165e-16 -1.19613e-15 0)
(2.14132e-16 -1.33933e-15 0)
(5.18099e-16 -9.61554e-16 0)
(1.3646e-15 -5.96657e-16 0)
(1.6853e-15 -1.05357e-15 0)
(1.57937e-15 -9.40865e-16 0)
(1.85719e-15 -7.93069e-16 0)
(2.54329e-15 -1.03072e-15 0)
(3.43754e-15 -1.03341e-15 0)
(3.31872e-15 -1.17521e-15 0)
(3.01351e-15 -6.57835e-16 0)
(2.62528e-15 -7.13816e-16 0)
(1.81343e-15 -7.78723e-16 0)
(2.14846e-15 -3.26285e-16 0)
(3.10018e-15 -2.32268e-16 0)
(3.73011e-15 -4.38235e-16 0)
(3.7884e-15 -6.40229e-16 0)
(3.16375e-15 -7.74574e-16 0)
(2.84405e-15 -7.02111e-16 0)
(3.11945e-15 -4.67573e-16 0)
(2.97479e-15 -3.538e-16 0)
(2.19582e-15 -1.06369e-16 0)
(2.07521e-15 3.36699e-16 0)
(2.85138e-15 3.91446e-16 0)
(3.58096e-15 3.06194e-16 0)
(3.77181e-15 1.85263e-16 0)
(3.37041e-15 3.79374e-16 0)
(3.00728e-15 5.97335e-16 0)
(2.31628e-15 5.27124e-16 0)
(1.73406e-15 1.23951e-15 0)
(1.97967e-15 1.21394e-15 0)
(1.87669e-15 1.01504e-15 0)
(1.19852e-15 1.09808e-15 0)
(7.71279e-16 1.2064e-15 0)
(1.00555e-15 1.16053e-15 0)
(1.48474e-15 1.24307e-15 0)
(1.98299e-15 1.24072e-15 0)
(2.32983e-15 7.52117e-16 0)
(2.41034e-15 7.00442e-16 0)
(2.39084e-15 1.02752e-15 0)
(1.96224e-15 8.86071e-16 0)
(1.55067e-15 8.78443e-16 0)
(1.56992e-15 9.30199e-16 0)
(1.39872e-15 8.16649e-16 0)
(8.57667e-16 6.87322e-16 0)
(8.63832e-16 4.65043e-16 0)
(1.09963e-15 2.97011e-17 0)
(1.08626e-15 1.56019e-16 0)
(1.08267e-15 4.04069e-16 0)
(7.0805e-16 1.75696e-16 0)
(-3.20495e-16 -1.40258e-16 0)
(-1.13433e-15 -4.91398e-16 0)
(-1.88121e-15 -5.56809e-16 0)
(-2.63771e-15 -1.28233e-15 0)
(-3.90002e-15 -1.35855e-15 0)
(-5.42409e-15 -1.42944e-15 0)
(-6.62887e-15 -1.8614e-15 0)
(-8.05449e-15 -2.72931e-15 0)
(-9.05324e-15 -3.71041e-15 0)
(-9.20058e-15 -4.06755e-15 0)
(-9.98819e-15 -3.97063e-15 0)
(-1.13895e-14 -4.02367e-15 0)
(-1.31119e-14 -4.10259e-15 0)
(-1.50649e-14 -4.12313e-15 0)
(-1.60707e-14 -3.66091e-15 0)
(-1.59967e-14 -3.31423e-15 0)
(-1.64578e-14 -4.79913e-15 0)
(-1.80111e-14 -5.67595e-15 0)
(-1.97898e-14 -4.89299e-15 0)
(-2.08074e-14 -4.6965e-15 0)
(-2.1391e-14 -4.38044e-15 0)
(-2.15052e-14 -3.88476e-15 0)
(-2.06826e-14 -3.49418e-15 0)
(-1.97523e-14 -2.65043e-15 0)
(-1.8722e-14 -1.87157e-15 0)
(-1.74099e-14 -1.3288e-15 0)
(-1.6176e-14 -8.43883e-16 0)
(-1.53721e-14 -1.0236e-15 0)
(-1.48606e-14 -1.90664e-15 0)
(-1.41186e-14 -2.03689e-15 0)
(-1.33674e-14 -1.63041e-15 0)
(-1.28085e-14 -1.24153e-15 0)
(-1.23611e-14 -1.15807e-15 0)
(-1.18648e-14 -5.65082e-16 0)
(-1.12461e-14 -7.84387e-16 0)
(-1.01514e-14 -1.17694e-15 0)
(-9.00725e-15 -2.34198e-15 0)
(-7.7124e-15 -2.24378e-15 0)
(-6.02699e-15 -2.01005e-15 0)
(-3.75634e-15 -1.29502e-15 0)
(-1.98407e-15 -2.20126e-15 0)
(-2.01609e-15 -2.78891e-15 0)
(-2.20231e-15 -2.53123e-15 0)
(-2.35906e-15 -3.72363e-15 0)
(-2.27725e-15 -4.55075e-15 0)
(-2.76124e-15 -5.05187e-15 0)
(-3.58254e-15 -4.85319e-15 0)
(-3.42667e-15 -4.2768e-15 0)
(-3.05269e-15 -3.55116e-15 0)
(-2.13963e-15 -2.8681e-15 0)
(-6.56797e-16 -3.33873e-15 0)
(8.34762e-16 -3.83914e-15 0)
(2.24553e-15 -3.33509e-15 0)
(3.51579e-15 -2.56538e-15 0)
(4.28477e-15 -3.0818e-15 0)
(4.91052e-15 -2.68065e-15 0)
(5.50015e-15 -2.41377e-15 0)
(7.00653e-15 -2.39356e-15 0)
(8.92839e-15 -2.44031e-15 0)
(9.29174e-15 -3.08375e-15 0)
(8.7507e-15 -2.38277e-15 0)
(7.44336e-15 -2.42957e-15 0)
(6.38409e-15 -2.11756e-15 0)
(7.19121e-15 -1.28071e-15 0)
(8.64623e-15 -1.16469e-15 0)
(9.80562e-15 -1.42816e-15 0)
(1.00301e-14 -2.09353e-15 0)
(9.08971e-15 -2.46671e-15 0)
(8.68125e-15 -2.07308e-15 0)
(9.02515e-15 -1.62219e-15 0)
(8.62118e-15 -1.16686e-15 0)
(7.42264e-15 -3.10204e-16 0)
(7.09419e-15 7.01196e-16 0)
(8.22922e-15 1.05088e-15 0)
(9.60181e-15 1.0635e-15 0)
(1.022e-14 9.09781e-16 0)
(9.65691e-15 1.35877e-15 0)
(8.49087e-15 1.91914e-15 0)
(7.29089e-15 2.05007e-15 0)
(6.02454e-15 3.42029e-15 0)
(5.48819e-15 3.47908e-15 0)
(5.15005e-15 3.01987e-15 0)
(3.984e-15 3.01549e-15 0)
(3.00834e-15 3.32418e-15 0)
(3.42121e-15 3.37037e-15 0)
(4.49257e-15 3.75559e-15 0)
(5.19753e-15 3.76337e-15 0)
(5.96333e-15 2.91461e-15 0)
(6.79072e-15 2.51407e-15 0)
(6.60346e-15 2.87068e-15 0)
(5.44689e-15 2.57932e-15 0)
(4.6742e-15 2.51051e-15 0)
(4.39252e-15 2.56686e-15 0)
(3.7423e-15 2.43543e-15 0)
(2.57148e-15 2.00418e-15 0)
(2.21539e-15 1.32932e-15 0)
(2.7941e-15 6.20571e-16 0)
(3.19673e-15 6.10137e-16 0)
(2.70315e-15 7.84924e-16 0)
(1.24006e-15 3.17442e-16 0)
(-5.95081e-16 -1.17833e-16 0)
(-1.95612e-15 -5.84809e-16 0)
(-3.46551e-15 -1.37875e-15 0)
(-4.64253e-15 -2.49013e-15 0)
(-6.31005e-15 -2.65757e-15 0)
(-8.8051e-15 -2.82061e-15 0)
(-1.10079e-14 -3.34318e-15 0)
(-1.32781e-14 -4.46365e-15 0)
(-1.46659e-14 -5.48662e-15 0)
(-1.51627e-14 -6.30406e-15 0)
(-1.64736e-14 -6.38618e-15 0)
(-1.8487e-14 -6.52927e-15 0)
(-2.10384e-14 -6.93832e-15 0)
(-2.37698e-14 -6.89507e-15 0)
(-2.54878e-14 -6.34481e-15 0)
(-2.64092e-14 -6.85203e-15 0)
(-2.74541e-14 -8.14625e-15 0)
(-2.89121e-14 -8.70761e-15 0)
(-3.11094e-14 -8.32374e-15 0)
(-3.28276e-14 -7.68411e-15 0)
(-3.34915e-14 -7.11518e-15 0)
(-3.36065e-14 -5.83967e-15 0)
(-3.27918e-14 -5.09535e-15 0)
(-3.12603e-14 -4.63601e-15 0)
(-2.95605e-14 -3.56925e-15 0)
(-2.76907e-14 -2.67104e-15 0)
(-2.61713e-14 -1.80837e-15 0)
(-2.54509e-14 -1.99337e-15 0)
(-2.43392e-14 -2.77187e-15 0)
(-2.27206e-14 -2.72934e-15 0)
(-2.15999e-14 -2.48535e-15 0)
(-2.05154e-14 -2.42012e-15 0)
(-1.92818e-14 -2.03422e-15 0)
(-1.87155e-14 -1.28581e-15 0)
(-1.81613e-14 -1.3266e-15 0)
(-1.69709e-14 -1.81141e-15 0)
(-1.50163e-14 -3.13827e-15 0)
(-1.22668e-14 -3.17777e-15 0)
(-9.41093e-15 -3.12366e-15 0)
(-6.59493e-15 -2.8326e-15 0)
(-4.61961e-15 -3.78391e-15 0)
(-3.93507e-15 -4.73608e-15 0)
(-4.19851e-15 -5.13189e-15 0)
(-4.56101e-15 -6.20704e-15 0)
(-4.23773e-15 -7.01633e-15 0)
(-4.53308e-15 -7.72642e-15 0)
(-5.16162e-15 -7.44819e-15 0)
(-4.73292e-15 -7.13931e-15 0)
(-3.78788e-15 -6.4891e-15 0)
(-2.86786e-15 -5.25289e-15 0)
(-1.34363e-15 -5.28801e-15 0)
(1.13673e-15 -5.74099e-15 0)
(3.79805e-15 -5.31525e-15 0)
(5.69657e-15 -4.72609e-15 0)
(6.97511e-15 -4.76114e-15 0)
(8.17805e-15 -4.29698e-15 0)
(9.28556e-15 -4.07931e-15 0)
(1.1343e-14 -3.71935e-15 0)
(1.33098e-14 -3.85441e-15 0)
(1.40298e-14 -4.56416e-15 0)
(1.37652e-14 -4.18736e-15 0)
(1.23611e-14 -3.95582e-15 0)
(1.13605e-14 -3.26925e-15 0)
(1.21333e-14 -2.36088e-15 0)
(1.38064e-14 -2.58605e-15 0)
(1.50559e-14 -3.02436e-15 0)
(1.52563e-14 -3.65518e-15 0)
(1.46805e-14 -4.23485e-15 0)
(1.43961e-14 -3.56762e-15 0)
(1.46616e-14 -2.88696e-15 0)
(1.43448e-14 -1.83882e-15 0)
(1.30131e-14 -6.16629e-16 0)
(1.24446e-14 8.42469e-16 0)
(1.36024e-14 1.8314e-15 0)
(1.51301e-14 1.99764e-15 0)
(1.59707e-14 1.99423e-15 0)
(1.54291e-14 2.31683e-15 0)
(1.37686e-14 3.14399e-15 0)
(1.22107e-14 3.82188e-15 0)
(1.0346e-14 5.14396e-15 0)
(8.85645e-15 5.43797e-15 0)
(8.07364e-15 5.00351e-15 0)
(6.81887e-15 4.95694e-15 0)
(5.71103e-15 5.32534e-15 0)
(6.28168e-15 5.68279e-15 0)
(7.61487e-15 5.95115e-15 0)
(8.21789e-15 5.88439e-15 0)
(9.01044e-15 5.38923e-15 0)
(1.02255e-14 4.82857e-15 0)
(1.0091e-14 4.64005e-15 0)
(8.56721e-15 4.3677e-15 0)
(7.56197e-15 4.2068e-15 0)
(7.04537e-15 4.06214e-15 0)
(5.86428e-15 3.4906e-15 0)
(4.02296e-15 2.95516e-15 0)
(3.50306e-15 2.45664e-15 0)
(4.23022e-15 1.67935e-15 0)
(4.6173e-15 1.11715e-15 0)
(3.74635e-15 6.22018e-16 0)
(1.58136e-15 1.28212e-16 0)
(-8.64837e-16 -2.93423e-16 0)
(-2.99628e-15 -9.96574e-16 0)
(-5.24571e-15 -2.25839e-15 0)
(-6.66996e-15 -3.4357e-15 0)
(-8.59946e-15 -4.01341e-15 0)
(-1.18171e-14 -4.26858e-15 0)
(-1.50685e-14 -5.02178e-15 0)
(-1.81988e-14 -6.28868e-15 0)
(-2.02621e-14 -7.31591e-15 0)
(-2.09237e-14 -8.34573e-15 0)
(-2.24885e-14 -8.97848e-15 0)
(-2.55585e-14 -8.90485e-15 0)
(-2.87639e-14 -9.41606e-15 0)
(-3.16549e-14 -9.83145e-15 0)
(-3.42986e-14 -9.93181e-15 0)
(-3.62499e-14 -1.04896e-14 0)
(-3.75497e-14 -1.08453e-14 0)
(-3.92658e-14 -1.10023e-14 0)
(-4.15846e-14 -1.13014e-14 0)
(-4.34452e-14 -1.05567e-14 0)
(-4.4125e-14 -9.64986e-15 0)
(-4.42354e-14 -8.38561e-15 0)
(-4.36976e-14 -7.14079e-15 0)
(-4.18074e-14 -6.07999e-15 0)
(-3.94014e-14 -5.05613e-15 0)
(-3.70292e-14 -4.1235e-15 0)
(-3.5373e-14 -3.20954e-15 0)
(-3.46862e-14 -3.09356e-15 0)
(-3.31325e-14 -3.26831e-15 0)
(-3.09118e-14 -3.1443e-15 0)
(-2.94143e-14 -3.11739e-15 0)
(-2.79136e-14 -3.19671e-15 0)
(-2.61295e-14 -3.0366e-15 0)
(-2.51104e-14 -2.65679e-15 0)
(-2.44023e-14 -2.66493e-15 0)
(-2.30686e-14 -3.1142e-15 0)
(-2.03548e-14 -3.87234e-15 0)
(-1.6678e-14 -3.96075e-15 0)
(-1.31435e-14 -4.24058e-15 0)
(-9.81677e-15 -4.65129e-15 0)
(-7.51765e-15 -5.67562e-15 0)
(-6.49121e-15 -6.98647e-15 0)
(-6.39107e-15 -8.07661e-15 0)
(-6.61042e-15 -8.49126e-15 0)
(-6.27268e-15 -9.18807e-15 0)
(-6.22571e-15 -1.01929e-14 0)
(-6.57174e-15 -9.96933e-15 0)
(-5.98857e-15 -9.32552e-15 0)
(-4.3183e-15 -8.91857e-15 0)
(-2.86821e-15 -7.7598e-15 0)
(-1.33257e-15 -7.09223e-15 0)
(1.77707e-15 -7.24731e-15 0)
(5.25617e-15 -6.91449e-15 0)
(7.57678e-15 -6.7475e-15 0)
(9.39446e-15 -6.29028e-15 0)
(1.11248e-14 -5.5892e-15 0)
(1.26701e-14 -5.30357e-15 0)
(1.51062e-14 -5.30678e-15 0)
(1.72823e-14 -5.32722e-15 0)
(1.84217e-14 -5.49427e-15 0)
(1.84938e-14 -5.50479e-15 0)
(1.71015e-14 -5.39783e-15 0)
(1.62812e-14 -4.68045e-15 0)
(1.68113e-14 -3.76254e-15 0)
(1.8141e-14 -3.94189e-15 0)
(1.97268e-14 -4.58263e-15 0)
(2.00526e-14 -5.21139e-15 0)
(1.97727e-14 -5.73327e-15 0)
(1.99565e-14 -5.02368e-15 0)
(2.03842e-14 -3.82457e-15 0)
(2.00364e-14 -2.54445e-15 0)
(1.86918e-14 -1.21419e-15 0)
(1.81842e-14 9.70256e-16 0)
(1.89168e-14 2.36495e-15 0)
(2.0147e-14 2.89372e-15 0)
(2.10179e-14 2.9408e-15 0)
(2.06267e-14 3.16377e-15 0)
(1.89298e-14 4.08115e-15 0)
(1.7082e-14 5.29667e-15 0)
(1.46279e-14 6.50094e-15 0)
(1.22262e-14 7.19961e-15 0)
(1.10348e-14 7.10113e-15 0)
(9.74324e-15 7.13623e-15 0)
(8.62663e-15 7.5703e-15 0)
(9.074e-15 8.18011e-15 0)
(1.03347e-14 7.9809e-15 0)
(1.10934e-14 7.88462e-15 0)
(1.19642e-14 7.60003e-15 0)
(1.31763e-14 7.13899e-15 0)
(1.30286e-14 6.36843e-15 0)
(1.13855e-14 5.99571e-15 0)
(1.01037e-14 5.59396e-15 0)
(9.00676e-15 4.91415e-15 0)
(7.50223e-15 4.11194e-15 0)
(5.76794e-15 3.41125e-15 0)
(4.85214e-15 3.31595e-15 0)
(5.14333e-15 2.58287e-15 0)
(5.38449e-15 1.56927e-15 0)
(4.32127e-15 5.78771e-16 0)
(1.98001e-15 1.03884e-17 0)
(-1.15041e-15 -4.92349e-16 0)
(-3.9953e-15 -1.37039e-15 0)
(-6.90076e-15 -2.88987e-15 0)
(-8.70252e-15 -4.40399e-15 0)
(-1.09422e-14 -5.54285e-15 0)
(-1.48679e-14 -6.07322e-15 0)
(-1.90928e-14 -7.12511e-15 0)
(-2.2828e-14 -8.58798e-15 0)
(-2.52755e-14 -9.4656e-15 0)
(-2.6687e-14 -1.02591e-14 0)
(-2.84277e-14 -1.1161e-14 0)
(-3.16748e-14 -1.12647e-14 0)
(-3.59857e-14 -1.17217e-14 0)
(-3.97795e-14 -1.26228e-14 0)
(-4.27347e-14 -1.38294e-14 0)
(-4.47078e-14 -1.38484e-14 0)
(-4.63445e-14 -1.36359e-14 0)
(-4.88553e-14 -1.34532e-14 0)
(-5.14623e-14 -1.31709e-14 0)
(-5.30977e-14 -1.24525e-14 0)
(-5.38549e-14 -1.19892e-14 0)
(-5.3841e-14 -1.11915e-14 0)
(-5.29394e-14 -9.75823e-15 0)
(-5.10087e-14 -7.75047e-15 0)
(-4.85837e-14 -6.33346e-15 0)
(-4.58303e-14 -5.18183e-15 0)
(-4.39125e-14 -4.6165e-15 0)
(-4.30536e-14 -4.49802e-15 0)
(-4.11077e-14 -4.13877e-15 0)
(-3.8594e-14 -3.90225e-15 0)
(-3.68823e-14 -3.95147e-15 0)
(-3.49126e-14 -4.11083e-15 0)
(-3.25308e-14 -4.00733e-15 0)
(-3.12408e-14 -3.97365e-15 0)
(-3.03455e-14 -4.31629e-15 0)
(-2.86354e-14 -4.83458e-15 0)
(-2.52653e-14 -5.01637e-15 0)
(-2.09179e-14 -5.06918e-15 0)
(-1.69358e-14 -5.63908e-15 0)
(-1.32712e-14 -6.66642e-15 0)
(-1.08004e-14 -8.06057e-15 0)
(-9.43695e-15 -9.67027e-15 0)
(-8.57728e-15 -1.07917e-14 0)
(-8.35926e-15 -1.09192e-14 0)
(-8.3573e-15 -1.0992e-14 0)
(-7.99734e-15 -1.2059e-14 0)
(-7.4057e-15 -1.19587e-14 0)
(-6.58357e-15 -1.11956e-14 0)
(-4.68691e-15 -1.04484e-14 0)
(-2.70802e-15 -9.72051e-15 0)
(-1.09062e-15 -8.81557e-15 0)
(2.25983e-15 -8.51202e-15 0)
(6.30387e-15 -8.48075e-15 0)
(9.45134e-15 -8.49723e-15 0)
(1.21605e-14 -7.63804e-15 0)
(1.41607e-14 -6.58144e-15 0)
(1.56816e-14 -6.33826e-15 0)
(1.84552e-14 -6.35341e-15 0)
(2.10889e-14 -6.26731e-15 0)
(2.22389e-14 -6.35342e-15 0)
(2.22835e-14 -6.73702e-15 0)
(2.13635e-14 -6.70166e-15 0)
(2.09569e-14 -6.04358e-15 0)
(2.13728e-14 -5.6106e-15 0)
(2.24299e-14 -5.50322e-15 0)
(2.38091e-14 -5.87382e-15 0)
(2.42738e-14 -6.63912e-15 0)
(2.45761e-14 -6.76626e-15 0)
(2.5362e-14 -5.87496e-15 0)
(2.58636e-14 -4.39187e-15 0)
(2.54081e-14 -3.11694e-15 0)
(2.45108e-14 -1.58353e-15 0)
(2.39874e-14 7.33033e-16 0)
(2.41874e-14 2.55022e-15 0)
(2.49948e-14 3.73892e-15 0)
(2.56257e-14 3.96742e-15 0)
(2.5391e-14 4.04015e-15 0)
(2.38673e-14 4.85778e-15 0)
(2.1783e-14 6.56704e-15 0)
(1.88349e-14 7.6283e-15 0)
(1.5825e-14 8.6852e-15 0)
(1.40274e-14 8.9504e-15 0)
(1.26623e-14 9.10966e-15 0)
(1.16738e-14 1.00424e-14 0)
(1.17974e-14 1.07122e-14 0)
(1.28828e-14 1.04376e-14 0)
(1.37823e-14 1.02203e-14 0)
(1.45845e-14 9.73152e-15 0)
(1.55246e-14 8.92335e-15 0)
(1.53073e-14 7.50573e-15 0)
(1.36942e-14 6.85903e-15 0)
(1.20062e-14 6.22329e-15 0)
(1.07357e-14 5.06869e-15 0)
(9.05485e-15 4.4213e-15 0)
(7.24538e-15 3.77821e-15 0)
(6.31077e-15 3.66767e-15 0)
(6.02414e-15 3.0543e-15 0)
(5.79966e-15 1.98373e-15 0)
(4.64633e-15 9.02599e-16 0)
(2.2779e-15 1.92951e-16 0)
(-1.36016e-15 -5.01581e-16 0)
(-4.98065e-15 -2.03908e-15 0)
(-8.75288e-15 -3.60721e-15 0)
(-1.10016e-14 -5.28492e-15 0)
(-1.33821e-14 -7.01045e-15 0)
(-1.7747e-14 -7.85312e-15 0)
(-2.28931e-14 -9.54666e-15 0)
(-2.70937e-14 -1.09548e-14 0)
(-2.98453e-14 -1.16668e-14 0)
(-3.16927e-14 -1.26071e-14 0)
(-3.39349e-14 -1.33633e-14 0)
(-3.78983e-14 -1.4001e-14 0)
(-4.29306e-14 -1.45232e-14 0)
(-4.75649e-14 -1.54237e-14 0)
(-5.0611e-14 -1.63767e-14 0)
(-5.2421e-14 -1.65004e-14 0)
(-5.44462e-14 -1.60555e-14 0)
(-5.70273e-14 -1.60677e-14 0)
(-5.98081e-14 -1.54427e-14 0)
(-6.21965e-14 -1.45916e-14 0)
(-6.32197e-14 -1.42095e-14 0)
(-6.2731e-14 -1.29802e-14 0)
(-6.11292e-14 -1.1289e-14 0)
(-5.8814e-14 -9.21291e-15 0)
(-5.63907e-14 -7.93443e-15 0)
(-5.38662e-14 -6.84431e-15 0)
(-5.21396e-14 -6.14112e-15 0)
(-5.07886e-14 -5.97259e-15 0)
(-4.83822e-14 -5.42291e-15 0)
(-4.57359e-14 -4.87931e-15 0)
(-4.38063e-14 -5.05353e-15 0)
(-4.14435e-14 -5.4246e-15 0)
(-3.87383e-14 -5.62761e-15 0)
(-3.7225e-14 -5.87768e-15 0)
(-3.60264e-14 -6.16867e-15 0)
(-3.35944e-14 -6.64173e-15 0)
(-2.94895e-14 -6.21355e-15 0)
(-2.49835e-14 -6.36155e-15 0)
(-2.09998e-14 -6.93822e-15 0)
(-1.71355e-14 -8.83172e-15 0)
(-1.42875e-14 -1.08014e-14 0)
(-1.23461e-14 -1.24704e-14 0)
(-1.06535e-14 -1.31515e-14 0)
(-9.75739e-15 -1.29794e-14 0)
(-9.89679e-15 -1.25801e-14 0)
(-9.5851e-15 -1.30701e-14 0)
(-8.41526e-15 -1.33428e-14 0)
(-7.02751e-15 -1.32348e-14 0)
(-4.84068e-15 -1.21634e-14 0)
(-2.52577e-15 -1.12656e-14 0)
(-4.05579e-16 -9.96525e-15 0)
(3.02972e-15 -9.09252e-15 0)
(7.27302e-15 -9.31587e-15 0)
(1.11991e-14 -9.31105e-15 0)
(1.47384e-14 -8.49731e-15 0)
(1.68777e-14 -7.67477e-15 0)
(1.84638e-14 -7.63944e-15 0)
(2.15667e-14 -7.41784e-15 0)
(2.43383e-14 -7.43857e-15 0)
(2.55512e-14 -7.59873e-15 0)
(2.59229e-14 -7.63991e-15 0)
(2.53942e-14 -7.373e-15 0)
(2.49823e-14 -7.01837e-15 0)
(2.5361e-14 -7.3373e-15 0)
(2.64557e-14 -7.30681e-15 0)
(2.77107e-14 -7.61242e-15 0)
(2.83641e-14 -8.18884e-15 0)
(2.92793e-14 -7.51735e-15 0)
(3.0537e-14 -6.21262e-15 0)
(3.11103e-14 -4.84595e-15 0)
(3.0641e-14 -3.47648e-15 0)
(2.99283e-14 -1.50394e-15 0)
(2.96145e-14 6.73017e-16 0)
(2.96242e-14 2.79549e-15 0)
(2.97844e-14 4.13061e-15 0)
(2.97774e-14 4.64664e-15 0)
(2.95443e-14 4.73408e-15 0)
(2.85944e-14 5.61467e-15 0)
(2.63664e-14 7.34102e-15 0)
(2.28735e-14 8.40354e-15 0)
(1.93924e-14 9.6708e-15 0)
(1.70956e-14 1.03533e-14 0)
(1.59133e-14 1.10477e-14 0)
(1.49367e-14 1.21078e-14 0)
(1.4463e-14 1.2565e-14 0)
(1.52021e-14 1.25049e-14 0)
(1.59981e-14 1.22073e-14 0)
(1.65838e-14 1.15088e-14 0)
(1.71369e-14 1.03715e-14 0)
(1.69756e-14 8.54454e-15 0)
(1.56305e-14 7.30207e-15 0)
(1.36135e-14 6.43234e-15 0)
(1.21147e-14 5.43921e-15 0)
(1.05727e-14 4.50119e-15 0)
(8.82003e-15 4.20322e-15 0)
(7.55035e-15 4.06314e-15 0)
(6.77278e-15 3.36612e-15 0)
(6.25042e-15 2.25256e-15 0)
(4.91751e-15 1.36301e-15 0)
(2.40005e-15 3.88231e-16 0)
(-1.96992e-15 -6.09823e-16 0)
(-6.14943e-15 -2.80081e-15 0)
(-1.01721e-14 -4.28329e-15 0)
(-1.31594e-14 -5.71641e-15 0)
(-1.59014e-14 -7.87412e-15 0)
(-2.09454e-14 -9.40529e-15 0)
(-2.67308e-14 -1.1563e-14 0)
(-3.08814e-14 -1.3272e-14 0)
(-3.41093e-14 -1.41061e-14 0)
(-3.66682e-14 -1.50855e-14 0)
(-3.93045e-14 -1.60425e-14 0)
(-4.35057e-14 -1.70531e-14 0)
(-4.91285e-14 -1.75873e-14 0)
(-5.43086e-14 -1.80362e-14 0)
(-5.76667e-14 -1.82855e-14 0)
(-5.94867e-14 -1.87925e-14 0)
(-6.18642e-14 -1.83791e-14 0)
(-6.50365e-14 -1.81582e-14 0)
(-6.77204e-14 -1.74435e-14 0)
(-7.00871e-14 -1.64626e-14 0)
(-7.09095e-14 -1.54254e-14 0)
(-7.00425e-14 -1.42484e-14 0)
(-6.83923e-14 -1.31287e-14 0)
(-6.64238e-14 -1.13828e-14 0)
(-6.42076e-14 -9.73224e-15 0)
(-6.12415e-14 -8.63789e-15 0)
(-5.93039e-14 -7.96183e-15 0)
(-5.78468e-14 -7.3295e-15 0)
(-5.49268e-14 -6.7951e-15 0)
(-5.226e-14 -6.53323e-15 0)
(-5.05313e-14 -6.65514e-15 0)
(-4.78719e-14 -6.84569e-15 0)
(-4.46609e-14 -7.25377e-15 0)
(-4.26548e-14 -7.84525e-15 0)
(-4.1087e-14 -7.88688e-15 0)
(-3.79511e-14 -8.09648e-15 0)
(-3.33928e-14 -7.72801e-15 0)
(-2.87935e-14 -8.06242e-15 0)
(-2.5087e-14 -8.80143e-15 0)
(-2.14771e-14 -1.10309e-14 0)
(-1.79925e-14 -1.34747e-14 0)
(-1.50076e-14 -1.50746e-14 0)
(-1.22818e-14 -1.55814e-14 0)
(-1.08868e-14 -1.49278e-14 0)
(-1.10867e-14 -1.41752e-14 0)
(-1.09834e-14 -1.40125e-14 0)
(-9.68738e-15 -1.45062e-14 0)
(-7.50742e-15 -1.47324e-14 0)
(-4.51432e-15 -1.36292e-14 0)
(-1.70496e-15 -1.24213e-14 0)
(6.6922e-16 -1.09649e-14 0)
(3.74084e-15 -9.96296e-15 0)
(8.01833e-15 -1.00536e-14 0)
(1.27975e-14 -9.59003e-15 0)
(1.69387e-14 -8.93362e-15 0)
(1.91465e-14 -8.30992e-15 0)
(2.09595e-14 -8.01379e-15 0)
(2.43626e-14 -8.26511e-15 0)
(2.72749e-14 -8.73573e-15 0)
(2.88138e-14 -8.768e-15 0)
(2.94332e-14 -8.51111e-15 0)
(2.89801e-14 -8.61259e-15 0)
(2.83125e-14 -8.37001e-15 0)
(2.87137e-14 -8.61533e-15 0)
(3.00419e-14 -8.78258e-15 0)
(3.12001e-14 -8.95869e-15 0)
(3.25082e-14 -9.21758e-15 0)
(3.42082e-14 -8.03737e-15 0)
(3.54476e-14 -6.57055e-15 0)
(3.59044e-14 -5.42664e-15 0)
(3.57875e-14 -3.88492e-15 0)
(3.53956e-14 -1.33966e-15 0)
(3.49537e-14 6.18295e-16 0)
(3.45581e-14 2.12049e-15 0)
(3.41893e-14 3.34158e-15 0)
(3.38067e-14 4.58993e-15 0)
(3.36032e-14 5.68529e-15 0)
(3.29228e-14 6.98385e-15 0)
(3.0535e-14 7.9746e-15 0)
(2.67996e-14 8.92114e-15 0)
(2.30932e-14 1.03146e-14 0)
(2.05025e-14 1.14939e-14 0)
(1.91092e-14 1.25612e-14 0)
(1.77486e-14 1.34692e-14 0)
(1.6984e-14 1.37322e-14 0)
(1.7558e-14 1.38855e-14 0)
(1.80777e-14 1.34382e-14 0)
(1.83265e-14 1.26999e-14 0)
(1.84197e-14 1.15786e-14 0)
(1.80011e-14 9.62734e-15 0)
(1.68667e-14 8.08816e-15 0)
(1.50665e-14 6.9154e-15 0)
(1.34125e-14 5.88121e-15 0)
(1.18888e-14 5.00828e-15 0)
(1.03079e-14 4.80838e-15 0)
(8.73254e-15 4.52813e-15 0)
(7.38053e-15 3.79157e-15 0)
(6.62941e-15 2.53008e-15 0)
(5.13762e-15 1.4466e-15 0)
(2.39422e-15 3.77059e-16 0)
(-2.4638e-15 -8.83306e-16 0)
(-7.15005e-15 -2.82128e-15 0)
(-1.13594e-14 -4.64121e-15 0)
(-1.51449e-14 -6.59659e-15 0)
(-1.8667e-14 -8.89532e-15 0)
(-2.41169e-14 -1.13384e-14 0)
(-3.04796e-14 -1.31373e-14 0)
(-3.47853e-14 -1.50662e-14 0)
(-3.80671e-14 -1.66709e-14 0)
(-4.10602e-14 -1.76743e-14 0)
(-4.43739e-14 -1.80961e-14 0)
(-4.90668e-14 -1.95195e-14 0)
(-5.47053e-14 -2.01572e-14 0)
(-6.01022e-14 -2.02108e-14 0)
(-6.40904e-14 -2.00527e-14 0)
(-6.62348e-14 -2.04418e-14 0)
(-6.84841e-14 -2.07617e-14 0)
(-7.1544e-14 -2.01618e-14 0)
(-7.43751e-14 -1.852e-14 0)
(-7.6998e-14 -1.76531e-14 0)
(-7.81751e-14 -1.6876e-14 0)
(-7.77315e-14 -1.6302e-14 0)
(-7.56228e-14 -1.52208e-14 0)
(-7.265e-14 -1.37087e-14 0)
(-7.029e-14 -1.13529e-14 0)
(-6.7958e-14 -9.9158e-15 0)
(-6.59807e-14 -9.41552e-15 0)
(-6.41127e-14 -8.53165e-15 0)
(-6.1348e-14 -7.91796e-15 0)
(-5.85488e-14 -8.50641e-15 0)
(-5.63052e-14 -8.77153e-15 0)
(-5.34853e-14 -8.46064e-15 0)
(-5.03794e-14 -8.67513e-15 0)
(-4.78656e-14 -9.56604e-15 0)
(-4.56123e-14 -9.22553e-15 0)
(-4.20604e-14 -9.2194e-15 0)
(-3.71916e-14 -9.42876e-15 0)
(-3.262e-14 -1.01276e-14 0)
(-2.91496e-14 -1.16466e-14 0)
(-2.56989e-14 -1.36582e-14 0)
(-2.16384e-14 -1.56332e-14 0)
(-1.76463e-14 -1.70079e-14 0)
(-1.37918e-14 -1.76359e-14 0)
(-1.15667e-14 -1.72394e-14 0)
(-1.17373e-14 -1.66473e-14 0)
(-1.20449e-14 -1.56232e-14 0)
(-1.08442e-14 -1.53642e-14 0)
(-7.89446e-15 -1.54316e-14 0)
(-4.16419e-15 -1.44633e-14 0)
(-9.96086e-16 -1.35398e-14 0)
(1.65167e-15 -1.25961e-14 0)
(4.68407e-15 -1.13095e-14 0)
(9.29289e-15 -1.05758e-14 0)
(1.45293e-14 -9.67544e-15 0)
(1.89217e-14 -9.04465e-15 0)
(2.14917e-14 -8.59762e-15 0)
(2.30829e-14 -8.32768e-15 0)
(2.62072e-14 -8.82491e-15 0)
(2.96344e-14 -9.86373e-15 0)
(3.17649e-14 -9.8511e-15 0)
(3.23651e-14 -9.7858e-15 0)
(3.20379e-14 -9.9861e-15 0)
(3.17111e-14 -9.77094e-15 0)
(3.19907e-14 -9.81801e-15 0)
(3.33432e-14 -1.0419e-14 0)
(3.4705e-14 -1.06032e-14 0)
(3.64624e-14 -9.98218e-15 0)
(3.8678e-14 -8.49144e-15 0)
(3.98834e-14 -7.12249e-15 0)
(4.04527e-14 -5.81821e-15 0)
(4.09408e-14 -3.98375e-15 0)
(4.0469e-14 -1.48062e-15 0)
(3.93494e-14 4.30624e-16 0)
(3.87963e-14 1.73874e-15 0)
(3.87262e-14 2.72644e-15 0)
(3.85136e-14 4.17731e-15 0)
(3.811e-14 6.17161e-15 0)
(3.67894e-14 7.7748e-15 0)
(3.3953e-14 8.41062e-15 0)
(3.03917e-14 9.31428e-15 0)
(2.67348e-14 1.06918e-14 0)
(2.38885e-14 1.23495e-14 0)
(2.22536e-14 1.35066e-14 0)
(2.05124e-14 1.45373e-14 0)
(1.94013e-14 1.49666e-14 0)
(1.96086e-14 1.46365e-14 0)
(1.97722e-14 1.39225e-14 0)
(1.98708e-14 1.34187e-14 0)
(1.94874e-14 1.2257e-14 0)
(1.89008e-14 1.03941e-14 0)
(1.79375e-14 8.89234e-15 0)
(1.60451e-14 7.52581e-15 0)
(1.44842e-14 6.12762e-15 0)
(1.32524e-14 5.62761e-15 0)
(1.16241e-14 5.33656e-15 0)
(9.64799e-15 4.98814e-15 0)
(7.83062e-15 4.16182e-15 0)
(6.71336e-15 2.81269e-15 0)
(5.15521e-15 1.40358e-15 0)
(2.51964e-15 3.61308e-16 0)
(-2.64046e-15 -1.10747e-15 0)
(-7.91268e-15 -2.79726e-15 0)
(-1.29639e-14 -4.66654e-15 0)
(-1.73229e-14 -7.51824e-15 0)
(-2.1454e-14 -1.02457e-14 0)
(-2.71661e-14 -1.30671e-14 0)
(-3.36054e-14 -1.46992e-14 0)
(-3.8635e-14 -1.64037e-14 0)
(-4.21905e-14 -1.88278e-14 0)
(-4.48736e-14 -2.01925e-14 0)
(-4.87983e-14 -2.05177e-14 0)
(-5.412e-14 -2.16188e-14 0)
(-5.96691e-14 -2.1822e-14 0)
(-6.51527e-14 -2.17136e-14 0)
(-6.9585e-14 -2.15789e-14 0)
(-7.25165e-14 -2.19677e-14 0)
(-7.48613e-14 -2.21167e-14 0)
(-7.7215e-14 -2.12424e-14 0)
(-8.02343e-14 -1.99804e-14 0)
(-8.36469e-14 -1.94566e-14 0)
(-8.49478e-14 -1.8962e-14 0)
(-8.39597e-14 -1.82537e-14 0)
(-8.15607e-14 -1.65318e-14 0)
(-7.84455e-14 -1.50693e-14 0)
(-7.59471e-14 -1.2968e-14 0)
(-7.39101e-14 -1.11868e-14 0)
(-7.18769e-14 -1.01854e-14 0)
(-6.97935e-14 -9.69689e-15 0)
(-6.73904e-14 -9.54192e-15 0)
(-6.47881e-14 -1.00128e-14 0)
(-6.17992e-14 -1.06717e-14 0)
(-5.84821e-14 -1.06663e-14 0)
(-5.55082e-14 -1.04204e-14 0)
(-5.24169e-14 -1.06397e-14 0)
(-4.94788e-14 -1.05062e-14 0)
(-4.60037e-14 -1.04545e-14 0)
(-4.11945e-14 -1.12759e-14 0)
(-3.67762e-14 -1.23935e-14 0)
(-3.32607e-14 -1.39812e-14 0)
(-2.92487e-14 -1.57665e-14 0)
(-2.46275e-14 -1.76875e-14 0)
(-2.00741e-14 -1.87861e-14 0)
(-1.55594e-14 -1.93453e-14 0)
(-1.28591e-14 -1.94562e-14 0)
(-1.22449e-14 -1.9242e-14 0)
(-1.20584e-14 -1.76168e-14 0)
(-1.12235e-14 -1.67887e-14 0)
(-8.13213e-15 -1.63558e-14 0)
(-3.95024e-15 -1.5571e-14 0)
(-6.23888e-16 -1.48683e-14 0)
(2.61645e-15 -1.41512e-14 0)
(6.177e-15 -1.24311e-14 0)
(1.08362e-14 -1.08335e-14 0)
(1.62062e-14 -9.99753e-15 0)
(2.06619e-14 -9.35724e-15 0)
(2.32195e-14 -9.12114e-15 0)
(2.49099e-14 -9.33003e-15 0)
(2.78654e-14 -9.38408e-15 0)
(3.15935e-14 -1.03422e-14 0)
(3.4301e-14 -1.10828e-14 0)
(3.50427e-14 -1.11964e-14 0)
(3.49227e-14 -1.06359e-14 0)
(3.45622e-14 -1.041e-14 0)
(3.45479e-14 -1.10098e-14 0)
(3.5948e-14 -1.18929e-14 0)
(3.81466e-14 -1.22393e-14 0)
(4.0779e-14 -1.12108e-14 0)
(4.30674e-14 -9.29667e-15 0)
(4.41635e-14 -7.50347e-15 0)
(4.49265e-14 -5.4008e-15 0)
(4.564e-14 -3.61486e-15 0)
(4.52526e-14 -1.90326e-15 0)
(4.38877e-14 -1.24112e-16 0)
(4.27694e-14 1.6266e-15 0)
(4.24388e-14 2.51086e-15 0)
(4.26793e-14 3.32634e-15 0)
(4.24058e-14 5.39055e-15 0)
(4.04839e-14 7.36265e-15 0)
(3.72982e-14 8.42008e-15 0)
(3.38106e-14 9.18297e-15 0)
(3.03718e-14 1.05486e-14 0)
(2.7361e-14 1.27233e-14 0)
(2.52935e-14 1.42557e-14 0)
(2.32436e-14 1.50675e-14 0)
(2.13872e-14 1.55171e-14 0)
(2.10796e-14 1.47545e-14 0)
(2.14541e-14 1.407e-14 0)
(2.13478e-14 1.37085e-14 0)
(2.038e-14 1.22892e-14 0)
(1.95991e-14 1.08139e-14 0)
(1.86646e-14 9.12691e-15 0)
(1.67317e-14 7.88812e-15 0)
(1.54749e-14 6.71046e-15 0)
(1.4506e-14 6.1869e-15 0)
(1.27675e-14 5.66666e-15 0)
(1.05256e-14 5.14993e-15 0)
(8.15887e-15 4.33687e-15 0)
(6.68743e-15 2.98174e-15 0)
(5.11131e-15 1.15214e-15 0)
(2.54807e-15 4.54509e-16 0)
(-2.72397e-15 -1.09419e-15 0)
(-8.31922e-15 -3.16913e-15 0)
(-1.43975e-14 -5.43427e-15 0)
(-1.98091e-14 -8.1535e-15 0)
(-2.43037e-14 -1.11192e-14 0)
(-2.99392e-14 -1.41984e-14 0)
(-3.64621e-14 -1.62516e-14 0)
(-4.23174e-14 -1.81547e-14 0)
(-4.62997e-14 -2.01566e-14 0)
(-4.86818e-14 -2.15605e-14 0)
(-5.27141e-14 -2.25501e-14 0)
(-5.82061e-14 -2.30897e-14 0)
(-6.38124e-14 -2.3178e-14 0)
(-6.97745e-14 -2.30874e-14 0)
(-7.48873e-14 -2.30072e-14 0)
(-7.79378e-14 -2.3285e-14 0)
(-7.98906e-14 -2.30302e-14 0)
(-8.24721e-14 -2.26183e-14 0)
(-8.60314e-14 -2.212e-14 0)
(-8.95803e-14 -2.14594e-14 0)
(-9.08576e-14 -2.05637e-14 0)
(-8.96116e-14 -1.98286e-14 0)
(-8.69122e-14 -1.81792e-14 0)
(-8.34967e-14 -1.62489e-14 0)
(-8.06277e-14 -1.4564e-14 0)
(-7.87409e-14 -1.26401e-14 0)
(-7.72854e-14 -1.12921e-14 0)
(-7.55658e-14 -1.0986e-14 0)
(-7.3002e-14 -1.11759e-14 0)
(-7.02739e-14 -1.1219e-14 0)
(-6.71314e-14 -1.20096e-14 0)
(-6.30753e-14 -1.25543e-14 0)
(-5.95393e-14 -1.23121e-14 0)
(-5.64867e-14 -1.18535e-14 0)
(-5.3386e-14 -1.17246e-14 0)
(-4.98639e-14 -1.18254e-14 0)
(-4.51652e-14 -1.28598e-14 0)
(-4.04617e-14 -1.44506e-14 0)
(-3.6798e-14 -1.58396e-14 0)
(-3.29404e-14 -1.75095e-14 0)
(-2.77767e-14 -1.95593e-14 0)
(-2.22525e-14 -2.05015e-14 0)
(-1.72104e-14 -2.09269e-14 0)
(-1.40156e-14 -2.13657e-14 0)
(-1.25516e-14 -2.11163e-14 0)
(-1.20687e-14 -1.9921e-14 0)
(-1.13976e-14 -1.90841e-14 0)
(-8.09967e-15 -1.81254e-14 0)
(-3.74207e-15 -1.72534e-14 0)
(-1.41161e-16 -1.63867e-14 0)
(3.78468e-15 -1.53669e-14 0)
(8.02854e-15 -1.36774e-14 0)
(1.25689e-14 -1.17139e-14 0)
(1.7684e-14 -1.07044e-14 0)
(2.22032e-14 -1.00799e-14 0)
(2.46893e-14 -9.87515e-15 0)
(2.65694e-14 -9.95317e-15 0)
(2.95958e-14 -1.00025e-14 0)
(3.29112e-14 -1.08126e-14 0)
(3.59903e-14 -1.21124e-14 0)
(3.78137e-14 -1.25677e-14 0)
(3.7955e-14 -1.20876e-14 0)
(3.69628e-14 -1.17675e-14 0)
(3.65951e-14 -1.17004e-14 0)
(3.82825e-14 -1.23324e-14 0)
(4.11697e-14 -1.24404e-14 0)
(4.46707e-14 -1.13528e-14 0)
(4.7489e-14 -9.51675e-15 0)
(4.88378e-14 -7.72527e-15 0)
(4.93807e-14 -5.38248e-15 0)
(4.95445e-14 -3.7712e-15 0)
(4.90243e-14 -2.59804e-15 0)
(4.78877e-14 -1.13023e-15 0)
(4.6623e-14 6.32292e-16 0)
(4.57899e-14 1.71193e-15 0)
(4.6332e-14 2.39758e-15 0)
(4.66199e-14 4.29559e-15 0)
(4.4357e-14 6.56443e-15 0)
(4.03994e-14 8.10148e-15 0)
(3.68211e-14 8.81761e-15 0)
(3.39653e-14 1.04173e-14 0)
(3.10266e-14 1.23297e-14 0)
(2.82089e-14 1.39981e-14 0)
(2.55341e-14 1.46736e-14 0)
(2.31723e-14 1.47794e-14 0)
(2.2488e-14 1.43563e-14 0)
(2.29056e-14 1.39864e-14 0)
(2.24179e-14 1.35035e-14 0)
(2.11454e-14 1.22096e-14 0)
(2.02564e-14 1.10093e-14 0)
(1.93228e-14 9.14703e-15 0)
(1.76268e-14 8.5251e-15 0)
(1.63881e-14 7.69405e-15 0)
(1.54192e-14 6.73143e-15 0)
(1.35664e-14 6.21014e-15 0)
(1.11418e-14 5.35713e-15 0)
(8.47224e-15 3.99855e-15 0)
(6.36656e-15 2.65747e-15 0)
(5.03644e-15 1.22941e-15 0)
(2.77175e-15 5.55483e-16 0)
(-3.02592e-15 -9.56898e-16 0)
(-9.2885e-15 -3.63209e-15 0)
(-1.5757e-14 -6.45742e-15 0)
(-2.15917e-14 -8.92148e-15 0)