/*--------------------------------*- C++ -*----------------------------------*\
| =========                 |                                                 |
| \\      /  F ield         | OpenFOAM: The Open Source CFD Toolbox           |
|  \\    /   O peration     | Version:  v2012                                 |
|   \\  /    A nd           | Website:  www.openfoam.com                      |
|    \\/     M anipulation  |                                                 |
\*---------------------------------------------------------------------------*/
FoamFile
{
    version     2.0;
    format      ascii;
    class       volVectorField;
    location    "70";
    object      Usup;
}
// * * * * * * * * * * * * * * * * * * * * * * * * * * * * * * * * * * * * * //

dimensions      [0 1 -1 0 0 0 0];


internalField   nonuniform List<vector> 
4000
(
(-0.000558927 -0.000805115 0)
(-0.000997801 -0.000806549 0)
(-0.00179525 -0.00152342 0)
(-0.00354002 -0.00351124 0)
(-0.00390041 -0.00416208 0)
(-0.0041676 -0.00553128 0)
(-0.00602849 -0.00677458 0)
(-0.0084416 -0.00697406 0)
(-0.0101499 -0.00664198 0)
(-0.00949541 -0.00645969 0)
(-0.00795041 -0.0065049 0)
(-0.00636766 -0.00746828 0)
(-0.00563695 -0.00804943 0)
(-0.00559518 -0.00725484 0)
(-0.00437632 -0.00637895 0)
(-0.00342025 -0.00639173 0)
(-0.00233186 -0.00635034 0)
(-0.000455124 -0.00824567 0)
(0.000567774 -0.00999662 0)
(0.000772761 -0.0100027 0)
(0.001581 -0.00850752 0)
(0.0020106 -0.00747399 0)
(0.00356363 -0.0078865 0)
(0.00742808 -0.00772127 0)
(0.0105343 -0.00791514 0)
(0.0123133 -0.00789716 0)
(0.0130935 -0.00797985 0)
(0.0130341 -0.00727531 0)
(0.0122395 -0.0069121 0)
(0.010733 -0.00786213 0)
(0.0098992 -0.00760661 0)
(0.00905093 -0.00696392 0)
(0.00790262 -0.00751461 0)
(0.00566941 -0.00873395 0)
(0.00283391 -0.00961284 0)
(0.000850032 -0.00929611 0)
(-0.0007712 -0.00858972 0)
(-0.00247345 -0.0089974 0)
(-0.00323621 -0.00923767 0)
(-0.00476414 -0.010862 0)
(-0.00758687 -0.0115865 0)
(-0.0088373 -0.0129214 0)
(-0.00839259 -0.0133326 0)
(-0.00833913 -0.0139934 0)
(-0.00971701 -0.0137366 0)
(-0.0102589 -0.0129045 0)
(-0.00897055 -0.0134904 0)
(-0.00742155 -0.0134952 0)
(-0.00696823 -0.0127151 0)
(-0.00647333 -0.0134087 0)
(-0.00570427 -0.0135259 0)
(-0.00391069 -0.0113159 0)
(-0.00165497 -0.0112293 0)
(-2.01054e-05 -0.0116161 0)
(0.00138968 -0.0115979 0)
(0.00222211 -0.0109525 0)
(0.0019324 -0.0111203 0)
(0.00201084 -0.0102585 0)
(0.00413399 -0.0104937 0)
(0.00581255 -0.0093888 0)
(0.00604691 -0.00736181 0)
(0.00589596 -0.00615691 0)
(0.00579161 -0.00575856 0)
(0.00510123 -0.0052299 0)
(0.00415243 -0.0043896 0)
(0.00376659 -0.00364462 0)
(0.0034202 -0.00260504 0)
(0.00305091 -0.00238024 0)
(0.0032526 -0.00191647 0)
(0.00299099 -0.00212796 0)
(0.000689233 -0.00194318 0)
(-0.00178448 -0.00298495 0)
(-0.00197063 -0.00250272 0)
(-0.00179329 -0.00277104 0)
(-0.00186009 -0.00257528 0)
(-0.00151638 -0.00436431 0)
(-0.00323429 -0.00607561 0)
(-0.00671363 -0.00700492 0)
(-0.00909726 -0.0073733 0)
(-0.0099315 -0.00768201 0)
(-0.0120949 -0.00938583 0)
(-0.0125522 -0.0085295 0)
(-0.00928178 -0.00776197 0)
(-0.00763811 -0.00823255 0)
(-0.00565432 -0.00833253 0)
(-0.00165625 -0.00841064 0)
(0.001968 -0.00911442 0)
(0.00577542 -0.00872174 0)
(0.00972544 -0.00822854 0)
(0.0115369 -0.00777684 0)
(0.0123741 -0.00712774 0)
(0.0139176 -0.00685139 0)
(0.0131996 -0.00711561 0)
(0.0109317 -0.0062637 0)
(0.0106453 -0.00447477 0)
(0.0100199 -0.00442014 0)
(0.00743947 -0.00339564 0)
(0.00545442 -0.00220717 0)
(0.00391166 -0.00128652 0)
(0.00137109 -0.000525901 0)
(-0.000759261 -0.00116505 0)
(-0.00250676 -0.00292711 0)
(-0.00655821 -0.00620133 0)
(-0.0105855 -0.0109568 0)
(-0.011937 -0.0130364 0)
(-0.0140967 -0.0166268 0)
(-0.0178024 -0.0195775 0)
(-0.0221597 -0.0204941 0)
(-0.0256314 -0.0200037 0)
(-0.0248957 -0.0197013 0)
(-0.0224701 -0.0205267 0)
(-0.0192858 -0.0219707 0)
(-0.0158861 -0.0224044 0)
(-0.0138335 -0.0205373 0)
(-0.0114542 -0.0192898 0)
(-0.00928475 -0.019741 0)
(-0.0075052 -0.0216077 0)
(-0.00437393 -0.0257163 0)
(-5.7648e-05 -0.0292132 0)
(0.00376652 -0.0296854 0)
(0.00692038 -0.0267326 0)
(0.00767371 -0.0236941 0)
(0.011658 -0.0229801 0)
(0.0206739 -0.0227843 0)
(0.0281674 -0.0226247 0)
(0.0330115 -0.0224955 0)
(0.0357721 -0.0225012 0)
(0.0361593 -0.0215482 0)
(0.0331066 -0.0211854 0)
(0.0296346 -0.0222906 0)
(0.0282747 -0.0226035 0)
(0.0249672 -0.0224327 0)
(0.0200075 -0.0237985 0)
(0.0139712 -0.0269288 0)
(0.00810554 -0.0272185 0)
(0.00371847 -0.0270697 0)
(-0.00154032 -0.0264509 0)
(-0.00683154 -0.0278228 0)
(-0.0107413 -0.0286136 0)
(-0.0154293 -0.0327025 0)
(-0.021556 -0.0353213 0)
(-0.0246643 -0.038163 0)
(-0.0241784 -0.0390072 0)
(-0.0241151 -0.040712 0)
(-0.0256645 -0.0410751 0)
(-0.0271914 -0.0403316 0)
(-0.0251449 -0.0407048 0)
(-0.0207126 -0.0403342 0)
(-0.0195221 -0.0393875 0)
(-0.0184037 -0.0399368 0)
(-0.0137364 -0.0396336 0)
(-0.00901886 -0.0345079 0)
(-0.00541413 -0.0339887 0)
(-0.00103609 -0.0345312 0)
(0.00344616 -0.034603 0)
(0.00566861 -0.0338055 0)
(0.0061184 -0.0332737 0)
(0.0071099 -0.0317393 0)
(0.0118818 -0.0296963 0)
(0.0173696 -0.0271979 0)
(0.018469 -0.0224673 0)
(0.0171804 -0.0193169 0)
(0.0163036 -0.0169958 0)
(0.0150424 -0.015206 0)
(0.0130751 -0.0134946 0)
(0.0120168 -0.0103792 0)
(0.0105782 -0.00814976 0)
(0.00912078 -0.00689079 0)
(0.00857544 -0.00620147 0)
(0.00696789 -0.00663442 0)
(0.00119629 -0.00629215 0)
(-0.0040238 -0.00767362 0)
(-0.00476968 -0.00806853 0)
(-0.00524598 -0.00858303 0)
(-0.00694854 -0.0095896 0)
(-0.00872012 -0.0130827 0)
(-0.0124919 -0.0169217 0)
(-0.0192626 -0.020827 0)
(-0.0246859 -0.0222042 0)
(-0.0286035 -0.0240469 0)
(-0.0320492 -0.0262582 0)
(-0.0306475 -0.0264344 0)
(-0.024919 -0.0249296 0)
(-0.0205874 -0.0257223 0)
(-0.0142305 -0.024571 0)
(-0.00480718 -0.0246436 0)
(0.00521124 -0.0257119 0)
(0.0160057 -0.0253516 0)
(0.0256661 -0.0243025 0)
(0.0311263 -0.0232793 0)
(0.0339005 -0.0213929 0)
(0.0363439 -0.0206818 0)
(0.0353221 -0.0215377 0)
(0.0322327 -0.0185238 0)
(0.0298931 -0.0142366 0)
(0.0267127 -0.0127884 0)
(0.0213288 -0.0103405 0)
(0.0156442 -0.00701578 0)
(0.0102606 -0.0039244 0)
(0.00353457 -0.00191973 0)
(-0.00176766 -0.00103645 0)
(-0.00574078 -0.00574683 0)
(-0.0121409 -0.012138 0)
(-0.0172803 -0.0180055 0)
(-0.0199165 -0.0228056 0)
(-0.0239919 -0.0273962 0)
(-0.0287391 -0.031461 0)
(-0.0338911 -0.0339663 0)
(-0.0381451 -0.0335227 0)
(-0.03813 -0.0337006 0)
(-0.0352 -0.0351517 0)
(-0.0300254 -0.0354914 0)
(-0.0242913 -0.0355552 0)
(-0.020955 -0.0338805 0)
(-0.0182152 -0.0326365 0)
(-0.016075 -0.0337281 0)
(-0.0137609 -0.038434 0)
(-0.00848906 -0.0429307 0)
(-0.00112344 -0.0462045 0)
(0.00655903 -0.0473379 0)
(0.0131859 -0.0447629 0)
(0.0156418 -0.0413695 0)
(0.0208953 -0.0379056 0)
(0.0329016 -0.0374964 0)
(0.0437831 -0.0361814 0)
(0.05083 -0.0364369 0)
(0.0550007 -0.0359184 0)
(0.0555809 -0.0360938 0)
(0.0515669 -0.0366074 0)
(0.0463591 -0.0364536 0)
(0.0432327 -0.0369561 0)
(0.0379274 -0.0391398 0)
(0.0296157 -0.0420685 0)
(0.0216731 -0.0441316 0)
(0.013798 -0.0430747 0)
(0.00581199 -0.0446852 0)
(-0.00286346 -0.0453682 0)
(-0.011108 -0.0465028 0)
(-0.0184558 -0.0485665 0)
(-0.0265967 -0.0534579 0)
(-0.0345651 -0.0589559 0)
(-0.0383854 -0.0616063 0)
(-0.0384598 -0.0624196 0)
(-0.0391924 -0.0656906 0)
(-0.0407363 -0.0688502 0)
(-0.0417497 -0.0697784 0)
(-0.0385245 -0.0689585 0)
(-0.0328495 -0.0675205 0)
(-0.0306134 -0.0672065 0)
(-0.0279699 -0.0660118 0)
(-0.0195635 -0.0637836 0)
(-0.0125909 -0.0584494 0)
(-0.008726 -0.0567743 0)
(-0.00240689 -0.0578732 0)
(0.00427459 -0.0577879 0)
(0.00855286 -0.0562402 0)
(0.0104074 -0.0546661 0)
(0.0137196 -0.0520007 0)
(0.0207054 -0.0469283 0)
(0.0279975 -0.0439375 0)
(0.0302807 -0.0387781 0)
(0.028625 -0.0327066 0)
(0.0270579 -0.028094 0)
(0.0244293 -0.0247362 0)
(0.0224737 -0.0223543 0)
(0.0209185 -0.018508 0)
(0.0178052 -0.0148679 0)
(0.0149434 -0.0119258 0)
(0.0127343 -0.0106749 0)
(0.00986112 -0.0109667 0)
(0.00201542 -0.0114955 0)
(-0.00599836 -0.0110788 0)
(-0.00793763 -0.0133244 0)
(-0.00948286 -0.0152621 0)
(-0.0130935 -0.0186888 0)
(-0.016698 -0.0224365 0)
(-0.0235466 -0.0276015 0)
(-0.0323783 -0.033475 0)
(-0.0392967 -0.0380344 0)
(-0.0446054 -0.0406149 0)
(-0.0488331 -0.0426638 0)
(-0.0461728 -0.0439263 0)
(-0.0377027 -0.0438467 0)
(-0.0300977 -0.0444776 0)
(-0.0198532 -0.0417093 0)
(-0.00700724 -0.0408018 0)
(0.00789556 -0.0413378 0)
(0.0242352 -0.0416089 0)
(0.0386893 -0.0412006 0)
(0.0477362 -0.0395986 0)
(0.0523409 -0.0368504 0)
(0.0544707 -0.0352318 0)
(0.0543258 -0.035606 0)
(0.052047 -0.0308311 0)
(0.047533 -0.0255061 0)
(0.0414316 -0.0214401 0)
(0.0335842 -0.0167053 0)
(0.0251277 -0.0122656 0)
(0.0155819 -0.00750241 0)
(0.00544285 -0.00296065 0)
(-0.00295502 -0.00274259 0)
(-0.00946926 -0.00943601 0)
(-0.017619 -0.0184676 0)
(-0.0242897 -0.0258128 0)
(-0.0281647 -0.0326402 0)
(-0.0332362 -0.0374451 0)
(-0.0393722 -0.0424239 0)
(-0.0442369 -0.0464363 0)
(-0.0484712 -0.0471423 0)
(-0.0493676 -0.0481286 0)
(-0.045613 -0.0489287 0)
(-0.0392216 -0.0485425 0)
(-0.0321624 -0.0483388 0)
(-0.0269617 -0.0469313 0)
(-0.0238601 -0.0466607 0)
(-0.0229611 -0.0479722 0)
(-0.0202362 -0.052647 0)
(-0.0123231 -0.0565617 0)
(-0.00214128 -0.0616941 0)
(0.00903499 -0.062918 0)
(0.0188305 -0.0604502 0)
(0.0240864 -0.0576533 0)
(0.030936 -0.0529767 0)
(0.0446348 -0.051324 0)
(0.0575042 -0.0502354 0)
(0.0660925 -0.0502676 0)
(0.0713432 -0.0496257 0)
(0.0715239 -0.0495059 0)
(0.0676207 -0.0506373 0)
(0.0618513 -0.0514502 0)
(0.0559063 -0.0514598 0)
(0.0473369 -0.0546178 0)
(0.0381171 -0.05784 0)
(0.0295981 -0.0594412 0)
(0.0180586 -0.0592861 0)
(0.00661373 -0.0612625 0)
(-0.00365569 -0.0629981 0)
(-0.0149405 -0.0648818 0)
(-0.026144 -0.0698625 0)
(-0.0379743 -0.0748763 0)
(-0.0470286 -0.08073 0)
(-0.0500319 -0.0823029 0)
(-0.0519015 -0.0839637 0)
(-0.0549052 -0.0898992 0)
(-0.0558987 -0.0950423 0)
(-0.0546127 -0.0971372 0)
(-0.0494186 -0.0961693 0)
(-0.0431374 -0.096161 0)
(-0.0398222 -0.0944124 0)
(-0.0346933 -0.0900734 0)
(-0.0237398 -0.0858415 0)
(-0.0153183 -0.0816251 0)
(-0.0118947 -0.0796591 0)
(-0.00441687 -0.0806755 0)
(0.00569563 -0.0799826 0)
(0.0118873 -0.0764513 0)
(0.0153247 -0.0741211 0)
(0.0211975 -0.0710265 0)
(0.0291771 -0.0653183 0)
(0.0373396 -0.0603428 0)
(0.0421689 -0.0549788 0)
(0.0409443 -0.0458089 0)
(0.0377926 -0.0396973 0)
(0.0338984 -0.0347433 0)
(0.0309032 -0.0306559 0)
(0.0294131 -0.0269873 0)
(0.0259664 -0.0217035 0)
(0.0213531 -0.0170815 0)
(0.0168671 -0.0152444 0)
(0.0116054 -0.015497 0)
(0.00286022 -0.0165957 0)
(-0.00719734 -0.0162361 0)
(-0.0121494 -0.0183544 0)
(-0.0153034 -0.0233396 0)
(-0.0201601 -0.0286981 0)
(-0.0255906 -0.0333425 0)
(-0.0347977 -0.0392756 0)
(-0.0460736 -0.0458655 0)
(-0.0534988 -0.0536204 0)
(-0.0586477 -0.0566982 0)
(-0.0629154 -0.0608909 0)
(-0.059167 -0.0616372 0)
(-0.0491016 -0.0615219 0)
(-0.0374728 -0.0616916 0)
(-0.0232442 -0.0596029 0)
(-0.00792961 -0.0575089 0)
(0.010098 -0.0571136 0)
(0.0303422 -0.0577669 0)
(0.0491642 -0.0580865 0)
(0.062009 -0.0571723 0)
(0.0683846 -0.0544261 0)
(0.0703383 -0.0517559 0)
(0.0709922 -0.0495537 0)
(0.0695428 -0.0435392 0)
(0.0635225 -0.0364778 0)
(0.0557028 -0.0297173 0)
(0.044895 -0.0229551 0)
(0.0328218 -0.0179981 0)
(0.0206163 -0.0121367 0)
(0.00720148 -0.0039464 0)
(-0.00365745 -0.00553059 0)
(-0.0129674 -0.0144885 0)
(-0.0235295 -0.0240521 0)
(-0.0308971 -0.0324422 0)
(-0.035274 -0.0404937 0)
(-0.041445 -0.0474828 0)
(-0.0490372 -0.0528852 0)
(-0.0540759 -0.0576474 0)
(-0.0580899 -0.0601145 0)
(-0.058654 -0.0610312 0)
(-0.0539752 -0.0613687 0)
(-0.0465882 -0.0603442 0)
(-0.0383243 -0.0590336 0)
(-0.0329279 -0.058519 0)
(-0.0297805 -0.0603326 0)
(-0.0285397 -0.0619226 0)
(-0.0251215 -0.0646804 0)
(-0.0169891 -0.0678609 0)
(-0.00452618 -0.0740806 0)
(0.0117865 -0.0746703 0)
(0.0246108 -0.0735397 0)
(0.0323514 -0.07113 0)
(0.0410959 -0.0662643 0)
(0.0553064 -0.0631639 0)
(0.0694685 -0.0640815 0)
(0.0796539 -0.0629338 0)
(0.0860035 -0.062617 0)
(0.0858894 -0.0615897 0)
(0.0804768 -0.0629744 0)
(0.0743346 -0.0649788 0)
(0.0670095 -0.06565 0)
(0.0562093 -0.0679429 0)
(0.0451853 -0.0701497 0)
(0.0351452 -0.0733976 0)
(0.0219876 -0.0740049 0)
(0.00762204 -0.0759612 0)
(-0.00575081 -0.0795378 0)
(-0.0208673 -0.0827094 0)
(-0.0347043 -0.0891151 0)
(-0.0475213 -0.0957705 0)
(-0.0566935 -0.0999026 0)
(-0.060346 -0.102131 0)
(-0.0655942 -0.105664 0)
(-0.0702238 -0.111899 0)
(-0.0697861 -0.116921 0)
(-0.0663212 -0.120623 0)
(-0.0605627 -0.121131 0)
(-0.0526321 -0.122151 0)
(-0.0451807 -0.119094 0)
(-0.0383111 -0.112487 0)
(-0.0270981 -0.107489 0)
(-0.0183583 -0.104793 0)
(-0.0146311 -0.102016 0)
(-0.00566489 -0.100947 0)
(0.00756409 -0.0991873 0)
(0.0157386 -0.0954236 0)
(0.0195408 -0.092073 0)
(0.027553 -0.0886455 0)
(0.0382549 -0.0820666 0)
(0.0473043 -0.0759404 0)
(0.0539517 -0.0685869 0)
(0.0533742 -0.0592814 0)
(0.0485926 -0.0530496 0)
(0.0438078 -0.0464134 0)
(0.039885 -0.0403258 0)
(0.0380546 -0.0346478 0)
(0.0343956 -0.0282718 0)
(0.0276195 -0.0222978 0)
(0.020202 -0.020677 0)
(0.0130334 -0.0209329 0)
(0.00291773 -0.0211671 0)
(-0.00863629 -0.0220674 0)
(-0.0168303 -0.0242887 0)
(-0.022736 -0.0315242 0)
(-0.028095 -0.0382687 0)
(-0.0345128 -0.0448253 0)
(-0.0459328 -0.0516405 0)
(-0.0597103 -0.0603023 0)
(-0.0672835 -0.0683791 0)
(-0.0722343 -0.0742266 0)
(-0.0757359 -0.0784595 0)
(-0.0690096 -0.0791247 0)
(-0.0571357 -0.0779793 0)
(-0.0436457 -0.0770738 0)
(-0.0260728 -0.0750644 0)
(-0.00775599 -0.0728602 0)
(0.012283 -0.0718308 0)
(0.0350929 -0.0727351 0)
(0.0568723 -0.0733473 0)
(0.0728573 -0.0741951 0)
(0.081777 -0.0727277 0)
(0.0848779 -0.0686631 0)
(0.0867269 -0.0628039 0)
(0.0860111 -0.0555361 0)
(0.0790395 -0.0465681 0)
(0.0686733 -0.0378249 0)
(0.0543255 -0.0299884 0)
(0.0392119 -0.0230193 0)
(0.0253663 -0.0163131 0)
(0.00932927 -0.00586966 0)
(-0.00435295 -0.00767999 0)
(-0.0151011 -0.0195867 0)
(-0.0273768 -0.028924 0)
(-0.0370404 -0.0375492 0)
(-0.0435929 -0.0468913 0)
(-0.0501053 -0.0556459 0)
(-0.057697 -0.0625043 0)
(-0.0629864 -0.0676202 0)
(-0.0661227 -0.071098 0)
(-0.0661121 -0.0712285 0)
(-0.0606206 -0.0720835 0)
(-0.0520234 -0.0701732 0)
(-0.0439207 -0.0685674 0)
(-0.0392702 -0.0689714 0)
(-0.0356233 -0.0716152 0)
(-0.0330226 -0.0753331 0)
(-0.0288243 -0.0767899 0)
(-0.0206528 -0.0791323 0)
(-0.00572178 -0.0817781 0)
(0.0137423 -0.0825741 0)
(0.0287924 -0.0830865 0)
(0.040131 -0.0814951 0)
(0.0511807 -0.0762744 0)
(0.0644996 -0.0736144 0)
(0.0795018 -0.0750753 0)
(0.0917891 -0.0744628 0)
(0.0986861 -0.0735689 0)
(0.0982093 -0.0730213 0)
(0.0915948 -0.0748573 0)
(0.0849578 -0.0766186 0)
(0.0766874 -0.0780129 0)
(0.0642371 -0.0803633 0)
(0.0509498 -0.0824827 0)
(0.0396977 -0.0850308 0)
(0.0248616 -0.0867582 0)
(0.0069215 -0.0906302 0)
(-0.00844245 -0.0954785 0)
(-0.0258108 -0.0984356 0)
(-0.0433415 -0.10462 0)
(-0.0570308 -0.112597 0)
(-0.066002 -0.117258 0)
(-0.071127 -0.121726 0)
(-0.0778023 -0.127075 0)
(-0.0831581 -0.130514 0)
(-0.082988 -0.135048 0)
(-0.0783942 -0.140946 0)
(-0.0704955 -0.142871 0)
(-0.060265 -0.141699 0)
(-0.0495937 -0.139451 0)
(-0.0409088 -0.133905 0)
(-0.0303023 -0.129218 0)
(-0.0206176 -0.12682 0)
(-0.0153005 -0.12212 0)
(-0.00553666 -0.118398 0)
(0.00935098 -0.115339 0)
(0.0191756 -0.112658 0)
(0.0245371 -0.107563 0)
(0.034815 -0.102392 0)
(0.0467145 -0.0960799 0)
(0.0570768 -0.0894864 0)
(0.0653511 -0.0808058 0)
(0.0638337 -0.0730131 0)
(0.0587215 -0.0663627 0)
(0.0542706 -0.059 0)
(0.0497941 -0.0511218 0)
(0.0475412 -0.0430315 0)
(0.0431839 -0.0350176 0)
(0.0337739 -0.0290745 0)
(0.0231663 -0.0266705 0)
(0.0146513 -0.026022 0)
(0.00320928 -0.0264181 0)
(-0.0106055 -0.028752 0)
(-0.0223258 -0.0316317 0)
(-0.0307536 -0.0388672 0)
(-0.0370853 -0.0459751 0)
(-0.0447746 -0.0555399 0)
(-0.0580931 -0.0656525 0)
(-0.07301 -0.076221 0)
(-0.0807451 -0.0829253 0)
(-0.0846736 -0.0904034 0)
(-0.085648 -0.0937994 0)
(-0.0770354 -0.0937751 0)
(-0.0633886 -0.092886 0)
(-0.0474554 -0.090528 0)
(-0.0275888 -0.0871975 0)
(-0.00755261 -0.0854996 0)
(0.0139507 -0.0846703 0)
(0.0385825 -0.0859805 0)
(0.0623673 -0.0878355 0)
(0.0805371 -0.089525 0)
(0.0929797 -0.0890353 0)
(0.0991975 -0.0839452 0)
(0.101764 -0.0751599 0)
(0.100835 -0.06677 0)
(0.0930693 -0.0566922 0)
(0.0805823 -0.0465133 0)
(0.0636532 -0.0375034 0)
(0.0450944 -0.0269147 0)
(0.029003 -0.0185497 0)
(0.0118662 -0.00671051 0)
(-0.00536628 -0.00819293 0)
(-0.0173778 -0.0218168 0)
(-0.0307405 -0.0336336 0)
(-0.0424498 -0.0430038 0)
(-0.050686 -0.0523689 0)
(-0.0583414 -0.0615416 0)
(-0.0661326 -0.0699379 0)
(-0.0710084 -0.074496 0)
(-0.0729486 -0.0775271 0)
(-0.0723363 -0.0792557 0)
(-0.0661241 -0.0799322 0)
(-0.0562736 -0.0783876 0)
(-0.0486011 -0.0784555 0)
(-0.0448559 -0.0794813 0)
(-0.0423432 -0.0812396 0)
(-0.0381445 -0.0855287 0)
(-0.031401 -0.0867092 0)
(-0.0216667 -0.0881553 0)
(-0.00549624 -0.0880462 0)
(0.0150408 -0.0900667 0)
(0.0324124 -0.0897934 0)
(0.0473434 -0.0876171 0)
(0.0600207 -0.083808 0)
(0.0724826 -0.0818491 0)
(0.0880128 -0.0820334 0)
(0.102197 -0.084542 0)
(0.109947 -0.0835817 0)
(0.108367 -0.0839349 0)
(0.100916 -0.0850431 0)
(0.0939713 -0.0863549 0)
(0.0844164 -0.0886447 0)
(0.0706988 -0.0915889 0)
(0.056618 -0.0939802 0)
(0.0435165 -0.0949546 0)
(0.0257529 -0.0991021 0)
(0.00536246 -0.103836 0)
(-0.0110205 -0.109661 0)
(-0.0306622 -0.114283 0)
(-0.051532 -0.119724 0)
(-0.066323 -0.125852 0)
(-0.0756626 -0.131122 0)
(-0.0820787 -0.137372 0)
(-0.0882685 -0.144017 0)
(-0.0934566 -0.146623 0)
(-0.0954494 -0.150096 0)
(-0.0901051 -0.155711 0)
(-0.078591 -0.159155 0)
(-0.0665192 -0.158324 0)
(-0.0543671 -0.156117 0)
(-0.0438585 -0.151453 0)
(-0.0327799 -0.149268 0)
(-0.021576 -0.14608 0)
(-0.0142738 -0.139691 0)
(-0.00392952 -0.133638 0)
(0.0109691 -0.128942 0)
(0.0228526 -0.126712 0)
(0.0304766 -0.120182 0)
(0.0412069 -0.11287 0)
(0.0546064 -0.106696 0)
(0.066765 -0.0995595 0)
(0.0752568 -0.0931591 0)
(0.0736974 -0.0868487 0)
(0.068677 -0.0778306 0)
(0.0644927 -0.0699197 0)
(0.0605046 -0.0604189 0)
(0.0579551 -0.0515427 0)
(0.0517174 -0.0417135 0)
(0.0396329 -0.0352891 0)
(0.0269233 -0.030924 0)
(0.0160457 -0.0309331 0)
(0.0018705 -0.0336904 0)
(-0.0134516 -0.0372768 0)
(-0.0271318 -0.0406129 0)
(-0.0379626 -0.046431 0)
(-0.046872 -0.053967 0)
(-0.0574553 -0.0656526 0)
(-0.0717109 -0.0786074 0)
(-0.0850643 -0.0880262 0)
(-0.092124 -0.0955912 0)
(-0.0957638 -0.103108 0)
(-0.0939773 -0.106044 0)
(-0.0832285 -0.105104 0)
(-0.0676168 -0.104182 0)
(-0.0493039 -0.102752 0)
(-0.0283764 -0.0988355 0)
(-0.00749268 -0.0968666 0)
(0.0149639 -0.096448 0)
(0.040267 -0.0980309 0)
(0.065682 -0.100402 0)
(0.0864156 -0.102281 0)
(0.102249 -0.101733 0)
(0.112179 -0.0964606 0)
(0.115951 -0.0873278 0)
(0.114524 -0.077967 0)
(0.106182 -0.0664888 0)
(0.0913918 -0.0543626 0)
(0.0728084 -0.0438684 0)
(0.0518781 -0.0311069 0)
(0.0328546 -0.0194045 0)
(0.0135806 -0.00641906 0)
(-0.00620544 -0.00804924 0)
(-0.0204103 -0.0224552 0)
(-0.0348789 -0.0360819 0)
(-0.047148 -0.0471749 0)
(-0.0573114 -0.0562525 0)
(-0.0663344 -0.0653635 0)
(-0.0732509 -0.0732251 0)
(-0.0767551 -0.0775694 0)
(-0.079324 -0.0808392 0)
(-0.0783981 -0.08443 0)
(-0.0706552 -0.0842926 0)
(-0.0612067 -0.0850261 0)
(-0.0541422 -0.0876039 0)
(-0.0495155 -0.0893625 0)
(-0.0467326 -0.0899945 0)
(-0.0419035 -0.0914586 0)
(-0.0335935 -0.0930321 0)
(-0.0222888 -0.0943114 0)
(-0.00547858 -0.0940423 0)
(0.016507 -0.0951959 0)
(0.0371522 -0.0940367 0)
(0.05371 -0.0916178 0)
(0.0672855 -0.0894867 0)
(0.0802905 -0.088942 0)
(0.0943572 -0.0884121 0)
(0.109345 -0.0912588 0)
(0.119034 -0.0917685 0)
(0.117514 -0.0923446 0)
(0.109943 -0.09283 0)
(0.101511 -0.0950119 0)
(0.0905168 -0.0978968 0)
(0.0759422 -0.101242 0)
(0.0615972 -0.10446 0)
(0.0461803 -0.105062 0)
(0.0254613 -0.109549 0)
(0.00306032 -0.114552 0)
(-0.0154369 -0.121822 0)
(-0.0356362 -0.128985 0)
(-0.0572185 -0.131829 0)
(-0.0734942 -0.135911 0)
(-0.0849525 -0.141746 0)
(-0.0930799 -0.149115 0)
(-0.098605 -0.15551 0)
(-0.102683 -0.15898 0)
(-0.105297 -0.161948 0)
(-0.100754 -0.165096 0)
(-0.0876908 -0.169166 0)
(-0.0724346 -0.169495 0)
(-0.0576942 -0.168683 0)
(-0.0474466 -0.166715 0)
(-0.036064 -0.165881 0)
(-0.0212069 -0.162586 0)
(-0.0115795 -0.155048 0)
(-0.000852208 -0.1471 0)
(0.0133377 -0.140433 0)
(0.0264696 -0.136468 0)
(0.0373537 -0.13074 0)
(0.0489852 -0.121958 0)
(0.0621826 -0.114328 0)
(0.0738835 -0.107061 0)
(0.0823931 -0.102609 0)
(0.0832805 -0.0969693 0)
(0.0794687 -0.0864598 0)
(0.0751745 -0.0775126 0)
(0.0709412 -0.068157 0)
(0.0682462 -0.0587095 0)
(0.0612164 -0.0483558 0)
(0.0467391 -0.0407696 0)
(0.0301631 -0.0364127 0)
(0.0149813 -0.0364525 0)
(-0.000677579 -0.0396776 0)
(-0.0165787 -0.0433139 0)
(-0.0315971 -0.0475453 0)
(-0.0447502 -0.0527696 0)
(-0.057045 -0.0614018 0)
(-0.070412 -0.0742751 0)
(-0.0837805 -0.0878411 0)
(-0.0963512 -0.0963894 0)
(-0.103996 -0.105377 0)
(-0.105296 -0.112917 0)
(-0.100103 -0.114869 0)
(-0.0878474 -0.112933 0)
(-0.0721463 -0.111805 0)
(-0.0515194 -0.111722 0)
(-0.0281262 -0.109964 0)
(-0.00710716 -0.108316 0)
(0.0154905 -0.108326 0)
(0.0416213 -0.109463 0)
(0.0682785 -0.111276 0)
(0.0909595 -0.112055 0)
(0.110118 -0.110535 0)
(0.123093 -0.105572 0)
(0.128058 -0.0973678 0)
(0.127225 -0.0871391 0)
(0.118913 -0.0743925 0)
(0.10223 -0.0613889 0)
(0.081461 -0.0487808 0)
(0.0587326 -0.0354955 0)
(0.037107 -0.0212343 0)
(0.0146925 -0.00720926 0)
(-0.00718861 -0.00827758 0)
(-0.0232147 -0.0238747 0)
(-0.0392535 -0.0375199 0)
(-0.0519555 -0.0482772 0)
(-0.0624181 -0.0568167 0)
(-0.0722993 -0.0665052 0)
(-0.0791759 -0.0739451 0)
(-0.0827201 -0.0789832 0)
(-0.0855673 -0.0830712 0)
(-0.08331 -0.0867709 0)
(-0.0752859 -0.0884509 0)
(-0.0672181 -0.0901212 0)
(-0.0596625 -0.0930308 0)
(-0.0534941 -0.0950446 0)
(-0.04947 -0.0965813 0)
(-0.0444142 -0.0963577 0)
(-0.0357774 -0.0979872 0)
(-0.0227686 -0.0985666 0)
(-0.00446357 -0.0986407 0)
(0.0188685 -0.0977554 0)
(0.0410925 -0.0970697 0)
(0.0590258 -0.0957458 0)
(0.0726192 -0.0943286 0)
(0.0860977 -0.0937009 0)
(0.101077 -0.0922203 0)
(0.116033 -0.093313 0)
(0.126461 -0.0962281 0)
(0.125315 -0.0977629 0)
(0.116491 -0.0992525 0)
(0.107015 -0.100906 0)
(0.0953147 -0.103174 0)
(0.0795999 -0.108709 0)
(0.0653875 -0.112968 0)
(0.0488893 -0.115342 0)
(0.0252104 -0.11915 0)
(-1.42754e-05 -0.124644 0)
(-0.0207826 -0.130648 0)
(-0.0398928 -0.138981 0)
(-0.0610768 -0.142904 0)
(-0.0804399 -0.145531 0)
(-0.0942949 -0.149667 0)
(-0.102878 -0.156043 0)
(-0.107567 -0.161635 0)
(-0.111191 -0.166096 0)
(-0.113479 -0.170043 0)
(-0.109046 -0.171764 0)
(-0.0951408 -0.17427 0)
(-0.0787737 -0.176855 0)
(-0.0638889 -0.178272 0)
(-0.0520289 -0.179802 0)
(-0.0383959 -0.177318 0)
(-0.0205011 -0.173152 0)
(-0.00791054 -0.166683 0)
(0.00367882 -0.157803 0)
(0.0174759 -0.150567 0)
(0.0303837 -0.144649 0)
(0.043125 -0.138074 0)
(0.0566738 -0.128328 0)
(0.0701986 -0.120303 0)
(0.0810347 -0.11371 0)
(0.0890727 -0.109435 0)
(0.0924133 -0.102349 0)
(0.0899752 -0.0916495 0)
(0.0848198 -0.0811989 0)
(0.0808385 -0.0729743 0)
(0.0784585 -0.0631455 0)
(0.0701087 -0.0539421 0)
(0.0527038 -0.0474605 0)
(0.0333124 -0.0432788 0)
(0.0156315 -0.0411137 0)
(-0.00253953 -0.0431708 0)
(-0.0200229 -0.0468416 0)
(-0.0363124 -0.0512009 0)
(-0.0518198 -0.0566839 0)
(-0.0677957 -0.0666638 0)
(-0.0834483 -0.0811055 0)
(-0.0959262 -0.0938867 0)
(-0.107178 -0.104208 0)
(-0.114475 -0.112283 0)
(-0.113473 -0.11858 0)
(-0.104667 -0.119997 0)
(-0.0909278 -0.117758 0)
(-0.0752613 -0.116454 0)
(-0.0544446 -0.117399 0)
(-0.0298314 -0.11833 0)
(-0.00739515 -0.118627 0)
(0.0159616 -0.119325 0)
(0.042738 -0.120775 0)
(0.0708239 -0.119943 0)
(0.0958128 -0.11929 0)
(0.116911 -0.117034 0)
(0.131937 -0.112071 0)
(0.138852 -0.103673 0)
(0.139132 -0.0939606 0)
(0.130325 -0.0806602 0)
(0.112095 -0.0676905 0)
(0.0895976 -0.053749 0)
(0.0650497 -0.0396455 0)
(0.0411469 -0.0234296 0)
(0.0162455 -0.0086505 0)
(-0.00846138 -0.00870199 0)
(-0.0261475 -0.024405 0)
(-0.0419906 -0.0377989 0)
(-0.0547077 -0.0476309 0)
(-0.0676476 -0.0561939 0)
(-0.0788603 -0.0665704 0)
(-0.0848293 -0.0738354 0)
(-0.0878188 -0.0794947 0)
(-0.0908221 -0.0829588 0)
(-0.089014 -0.0863566 0)
(-0.0801646 -0.0915417 0)
(-0.0715535 -0.0941704 0)
(-0.0642828 -0.0957343 0)
(-0.0578524 -0.0971907 0)
(-0.0523443 -0.0997237 0)
(-0.0462627 -0.100701 0)
(-0.0370249 -0.10194 0)
(-0.0229012 -0.101279 0)
(-0.00321808 -0.10049 0)
(0.0212139 -0.0995499 0)
(0.0441359 -0.0991619 0)
(0.0632176 -0.0983451 0)
(0.0782416 -0.0965075 0)
(0.0931402 -0.0942923 0)
(0.107562 -0.0936212 0)
(0.120597 -0.0936726 0)
(0.130808 -0.0965823 0)
(0.130694 -0.100059 0)
(0.122888 -0.102353 0)
(0.113247 -0.102454 0)
(0.0983098 -0.105488 0)
(0.0807802 -0.112367 0)
(0.0669245 -0.11793 0)
(0.0497319 -0.124511 0)
(0.0244207 -0.12881 0)
(-0.00199739 -0.13277 0)
(-0.0250053 -0.137372 0)
(-0.0460437 -0.145012 0)
(-0.0656804 -0.150069 0)
(-0.0841839 -0.152831 0)
(-0.100234 -0.15502 0)
(-0.110977 -0.159174 0)
(-0.11631 -0.163693 0)
(-0.120039 -0.168029 0)
(-0.121135 -0.173249 0)
(-0.115659 -0.1757 0)
(-0.102999 -0.177326 0)
(-0.0863761 -0.182593 0)
(-0.0699982 -0.184691 0)
(-0.0557646 -0.187653 0)
(-0.0388657 -0.184319 0)
(-0.0195933 -0.178275 0)
(-0.00492244 -0.172869 0)
(0.00797226 -0.164779 0)
(0.0215535 -0.158775 0)
(0.0356858 -0.152363 0)
(0.0507587 -0.14291 0)
(0.0646941 -0.131985 0)
(0.0766494 -0.123834 0)
(0.0864742 -0.118573 0)
(0.0960014 -0.113612 0)
(0.102024 -0.104733 0)
(0.100852 -0.0935294 0)
(0.0946724 -0.0821153 0)
(0.0897073 -0.0735859 0)
(0.0872735 -0.0653854 0)
(0.0771593 -0.0583139 0)
(0.0582148 -0.0527264 0)
(0.0375486 -0.0470279 0)
(0.0167359 -0.0448749 0)
(-0.00435882 -0.0466198 0)
(-0.0231615 -0.0493356 0)
(-0.0407499 -0.0535901 0)
(-0.0592792 -0.0602118 0)
(-0.0793977 -0.0706169 0)
(-0.0960351 -0.0851111 0)
(-0.107515 -0.0983256 0)
(-0.117618 -0.108495 0)
(-0.12304 -0.114711 0)
(-0.119809 -0.119493 0)
(-0.108232 -0.122222 0)
(-0.0933378 -0.120135 0)
(-0.0788034 -0.119432 0)
(-0.0581607 -0.122271 0)
(-0.0322536 -0.124894 0)
(-0.00879405 -0.127049 0)
(0.0152786 -0.127108 0)
(0.0447129 -0.126862 0)
(0.0747563 -0.125953 0)
(0.0998137 -0.124999 0)
(0.122823 -0.122417 0)
(0.140256 -0.11706 0)
(0.147864 -0.107714 0)
(0.14898 -0.0987526 0)
(0.14061 -0.0871121 0)
(0.121169 -0.0738162 0)
(0.0972587 -0.0591159 0)
(0.0715288 -0.0439092 0)
(0.0451065 -0.0262008 0)
(0.0177196 -0.00910043 0)
(-0.00924241 -0.00845362 0)
(-0.0282275 -0.0231403 0)
(-0.0447272 -0.0361829 0)
(-0.0578944 -0.0471221 0)
(-0.0721574 -0.0564442 0)
(-0.0839408 -0.0652033 0)
(-0.0896996 -0.0728714 0)
(-0.0923092 -0.0777257 0)
(-0.094869 -0.0818758 0)
(-0.0947791 -0.0846466 0)
(-0.0866442 -0.0908106 0)
(-0.0759617 -0.0942057 0)
(-0.0672329 -0.0960869 0)
(-0.0611543 -0.0979765 0)
(-0.0558884 -0.101025 0)
(-0.0487656 -0.103206 0)
(-0.0376228 -0.103876 0)
(-0.0216725 -0.10216 0)
(-0.00159696 -0.100078 0)
(0.0230891 -0.0998563 0)
(0.046924 -0.0993602 0)
(0.0676383 -0.0988469 0)
(0.0839345 -0.0965602 0)
(0.0981161 -0.0947507 0)
(0.112789 -0.0943826 0)
(0.126185 -0.0939002 0)
(0.134809 -0.0946708 0)
(0.134424 -0.0979496 0)
(0.12797 -0.0999396 0)
(0.117423 -0.101917 0)
(0.0998245 -0.107238 0)
(0.0809889 -0.113633 0)
(0.0654371 -0.11983 0)
(0.0480723 -0.12938 0)
(0.0243557 -0.134753 0)
(-0.00315357 -0.136952 0)
(-0.0287169 -0.141669 0)
(-0.0502115 -0.147746 0)
(-0.0697615 -0.15151 0)
(-0.088818 -0.155348 0)
(-0.105297 -0.158315 0)
(-0.116949 -0.160941 0)
(-0.122848 -0.163172 0)
(-0.127763 -0.167095 0)
(-0.129127 -0.172843 0)
(-0.122198 -0.176406 0)
(-0.110204 -0.178226 0)
(-0.0937377 -0.183312 0)
(-0.0764553 -0.186142 0)
(-0.0596777 -0.188351 0)
(-0.0383159 -0.186175 0)
(-0.0176556 -0.181812 0)
(-0.00223583 -0.176212 0)
(0.0111478 -0.168894 0)
(0.0250464 -0.1627 0)
(0.0417673 -0.156574 0)
(0.0590118 -0.145526 0)
(0.0726728 -0.135125 0)
(0.0829633 -0.125752 0)
(0.0922194 -0.119198 0)
(0.103496 -0.113271 0)
(0.111803 -0.10397 0)
(0.111403 -0.0925211 0)
(0.10426 -0.0813771 0)
(0.0977145 -0.0725511 0)
(0.0938992 -0.0653838 0)
(0.0831182 -0.0605108 0)
(0.0640598 -0.0539165 0)
(0.041377 -0.0479663 0)
(0.0173501 -0.0474462 0)
(-0.00535895 -0.0491233 0)
(-0.0257032 -0.0511981 0)
(-0.0459101 -0.0549321 0)
(-0.066993 -0.062105 0)
(-0.0897984 -0.0729168 0)
(-0.10852 -0.0857351 0)
(-0.118742 -0.0987238 0)
(-0.125628 -0.107816 0)
(-0.129518 -0.113595 0)
(-0.1262 -0.11834 0)
(-0.112215 -0.121491 0)
(-0.0954059 -0.121338 0)
(-0.0823991 -0.12221 0)
(-0.0626955 -0.123892 0)
(-0.0359608 -0.128102 0)
(-0.00985541 -0.131906 0)
(0.0170696 -0.131971 0)
(0.0462219 -0.130101 0)
(0.0761952 -0.130885 0)
(0.103341 -0.12938 0)
(0.128047 -0.125876 0)
(0.147778 -0.120188 0)
(0.156381 -0.111593 0)
(0.156666 -0.102318 0)
(0.148634 -0.0926179 0)
(0.129516 -0.0797718 0)
(0.104568 -0.0643953 0)
(0.077675 -0.0474904 0)
(0.0499238 -0.0287031 0)
(0.0194829 -0.00982908 0)
(-0.00986699 -0.00756345 0)
(-0.030148 -0.0211313 0)
(-0.0476587 -0.0337643 0)
(-0.0613947 -0.0452737 0)
(-0.0759295 -0.0559054 0)
(-0.0886205 -0.063296 0)
(-0.09394 -0.0711616 0)
(-0.0961098 -0.0744905 0)
(-0.0989073 -0.0793343 0)
(-0.0994815 -0.0830274 0)
(-0.0915933 -0.0878083 0)
(-0.0799698 -0.0904495 0)
(-0.0714025 -0.0927738 0)
(-0.0653554 -0.0972119 0)
(-0.0593392 -0.10162 0)
(-0.0505778 -0.102521 0)
(-0.0373703 -0.101274 0)
(-0.0199787 -0.099888 0)
(-4.35773e-05 -0.0984346 0)
(0.0246491 -0.0986008 0)
(0.0492556 -0.0977008 0)
(0.0711276 -0.0981071 0)
(0.088533 -0.097416 0)
(0.103342 -0.0945691 0)
(0.117936 -0.0922071 0)
(0.131038 -0.0918704 0)
(0.139089 -0.0912642 0)
(0.13835 -0.0924848 0)
(0.131418 -0.0956685 0)
(0.118897 -0.100191 0)
(0.0999505 -0.106302 0)
(0.0807169 -0.111702 0)
(0.0632266 -0.119734 0)
(0.045119 -0.128426 0)
(0.0235425 -0.134265 0)
(-0.00415288 -0.136692 0)
(-0.0318015 -0.141021 0)
(-0.0539018 -0.145469 0)
(-0.0735778 -0.149891 0)
(-0.0930546 -0.15388 0)
(-0.109603 -0.156451 0)
(-0.120991 -0.158112 0)
(-0.128226 -0.159721 0)
(-0.135236 -0.165268 0)
(-0.136498 -0.170129 0)
(-0.128295 -0.173318 0)
(-0.116657 -0.175666 0)
(-0.100434 -0.180034 0)
(-0.081379 -0.182844 0)
(-0.0627113 -0.183676 0)
(-0.0400705 -0.183063 0)
(-0.017254 -0.181742 0)
(0.000691106 -0.177237 0)
(0.0151552 -0.170985 0)