/*--------------------------------*- C++ -*----------------------------------*\
| =========                 |                                                 |
| \\      /  F ield         | OpenFOAM: The Open Source CFD Toolbox           |
|  \\    /   O peration     | Version:  v2012                                 |
|   \\  /    A nd           | Website:  www.openfoam.com                      |
|    \\/     M anipulation  |                                                 |
\*---------------------------------------------------------------------------*/
FoamFile
{
    version     2.0;
    format      ascii;
    class       volScalarField;
    location    "17";
    object      W;
}
// * * * * * * * * * * * * * * * * * * * * * * * * * * * * * * * * * * * * * //

dimensions      [0 0 -1 0 0 0 0];


internalField   nonuniform List<scalar> 
65536
(
4.65206e-14
4.71527e-14
4.84492e-14
5.0425e-14
5.31035e-14
5.65162e-14
6.07033e-14
6.5714e-14
7.16069e-14
7.84506e-14
8.63248e-14
9.53202e-14
1.0554e-13
1.17101e-13
1.30134e-13
1.44785e-13
1.61218e-13
1.79614e-13
2.00174e-13
2.23122e-13
2.48702e-13
2.77188e-13
3.08877e-13
3.44098e-13
3.83213e-13
4.26617e-13
4.74743e-13
5.28066e-13
5.87105e-13
6.52424e-13
7.24641e-13
8.04426e-13
8.9251e-13
9.89686e-13
1.09681e-12
1.21482e-12
1.34472e-12
1.4876e-12
1.64464e-12
1.8171e-12
2.00634e-12
2.21383e-12
2.44114e-12
2.68995e-12
2.96206e-12
3.25939e-12
3.58398e-12
3.93801e-12
4.32379e-12
4.74378e-12
5.20054e-12
5.69683e-12
6.23551e-12
6.81959e-12
7.45226e-12
8.13681e-12
8.87669e-12
9.67548e-12
1.05369e-11
1.14648e-11
1.2463e-11
1.35358e-11
1.46871e-11
1.59212e-11
1.72424e-11
1.86549e-11
2.01631e-11
2.17712e-11
2.34835e-11
2.53041e-11
2.72372e-11
2.92866e-11
3.1456e-11
3.3749e-11
3.61687e-11
3.87181e-11
4.13997e-11
4.42156e-11
4.71676e-11
5.02567e-11
5.34836e-11
5.68482e-11
6.03498e-11
6.3987e-11
6.77577e-11
7.16589e-11
7.56867e-11
7.98367e-11
8.41031e-11
8.84795e-11
9.29585e-11
9.75317e-11
1.0219e-10
1.06923e-10
1.1172e-10
1.16568e-10
1.21455e-10
1.26367e-10
1.3129e-10
1.36209e-10
1.41108e-10
1.45972e-10
1.50783e-10
1.55525e-10
1.60181e-10
1.64734e-10
1.69167e-10
1.73463e-10
1.77607e-10
1.81581e-10
1.85371e-10
1.88962e-10
1.9234e-10
1.95492e-10
1.98407e-10
2.01073e-10
2.03481e-10
2.05623e-10
2.07492e-10
2.09082e-10
2.1039e-10
2.11413e-10
2.12149e-10
2.12599e-10
2.12764e-10
2.12648e-10
2.12256e-10
2.11591e-10
2.10663e-10
2.09477e-10
2.08044e-10
2.06372e-10
2.04473e-10
2.02357e-10
2.00037e-10
1.97524e-10
1.9483e-10
1.91969e-10
1.88952e-10
1.85793e-10
1.82504e-10
1.79097e-10
1.75584e-10
1.71978e-10
1.68288e-10
1.64526e-10
1.60701e-10
1.56824e-10
1.52902e-10
1.48945e-10
1.4496e-10
1.40953e-10
1.36932e-10
1.32901e-10
1.28865e-10
1.2483e-10
1.208e-10
1.16777e-10
1.12766e-10
1.08769e-10
1.04788e-10
1.00827e-10
9.68865e-11
9.29699e-11
8.90794e-11
8.52172e-11
8.1386e-11
7.75888e-11
7.38286e-11
7.01091e-11
6.64343e-11
6.28087e-11
5.92372e-11
5.57253e-11
5.22787e-11
4.89039e-11
4.56076e-11
4.23967e-11
3.92784e-11
3.62601e-11
3.33491e-11
3.05525e-11
2.78772e-11
2.53296e-11
2.29155e-11
2.06399e-11
1.85071e-11
1.65203e-11
1.46816e-11
1.2992e-11
1.14513e-11
1.00581e-11
8.80966e-12
7.70222e-12
6.7308e-12
5.88937e-12
5.17093e-12
4.56764e-12
4.0709e-12
3.67148e-12
3.35965e-12
3.12533e-12
2.9582e-12
2.84783e-12
2.78389e-12
2.75623e-12
2.75507e-12
2.77113e-12
2.79585e-12
2.82144e-12
2.84112e-12
2.84916e-12
2.84101e-12
2.81335e-12
2.76411e-12
2.69243e-12
2.59864e-12
2.48406e-12
2.35095e-12
2.20225e-12
2.04144e-12
1.87229e-12
1.69867e-12
1.52436e-12
1.35289e-12
1.18738e-12
1.03047e-12
8.84214e-13
7.50118e-13
6.29103e-13
5.21561e-13
4.2742e-13
3.46214e-13
2.77174e-13
2.19307e-13
1.71484e-13
1.32508e-13
1.01179e-13
7.63377e-14
5.69078e-14
4.19147e-14
3.05e-14
2.19256e-14
1.55704e-14
1.09225e-14
7.56835e-15
5.17987e-15
3.50166e-15
2.33828e-15
1.54284e-15
1.0068e-15
6.51485e-16
4.21022e-16
2.76822e-16
1.93381e-16
1.55283e-16
6.87769e-14
6.97149e-14
7.16403e-14
7.45751e-14
7.85541e-14
8.36246e-14
8.98467e-14
9.72943e-14
1.06055e-13
1.16232e-13
1.27945e-13
1.4133e-13
1.56543e-13
1.73757e-13
1.93171e-13
2.15003e-13
2.39501e-13
2.66936e-13
2.97612e-13
3.31865e-13
3.70065e-13
4.12623e-13
4.59988e-13
5.12657e-13
5.71175e-13
6.3614e-13
7.08207e-13
7.88094e-13
8.76584e-13
9.74533e-13
1.08288e-12
1.20263e-12
1.33489e-12
1.48088e-12
1.64188e-12
1.81931e-12
2.01471e-12
2.22971e-12
2.46611e-12
2.72583e-12
3.01093e-12
3.32363e-12
3.66631e-12
4.04153e-12
4.452e-12
4.90064e-12
5.39055e-12
5.92501e-12
6.50751e-12
7.14177e-12
7.83168e-12
8.58136e-12
9.39514e-12
1.02776e-11
1.12334e-11
1.22676e-11
1.33852e-11
1.45917e-11
1.58926e-11
1.72936e-11
1.88004e-11
2.04191e-11
2.21558e-11
2.40165e-11
2.60074e-11
2.81349e-11
3.04049e-11
3.28236e-11
3.5397e-11
3.81309e-11
4.10308e-11
4.41021e-11
4.73495e-11
5.07777e-11
5.43905e-11
5.81916e-11
6.21835e-11
6.63685e-11
7.07479e-11
7.53219e-11
8.00901e-11
8.50509e-11
9.02017e-11
9.55386e-11
1.01057e-10
1.06749e-10
1.12609e-10
1.18627e-10
1.24793e-10
1.31095e-10
1.37519e-10
1.44052e-10
1.50677e-10
1.57376e-10
1.64132e-10
1.70924e-10
1.77731e-10
1.84532e-10
1.91303e-10
1.98021e-10
2.04662e-10
2.112e-10
2.17611e-10
2.2387e-10
2.29952e-10
2.35832e-10
2.41485e-10
2.46888e-10
2.52019e-10
2.56856e-10
2.61378e-10
2.65567e-10
2.69405e-10
2.72877e-10
2.75969e-10
2.7867e-10
2.80971e-10
2.82863e-10
2.84342e-10
2.85406e-10
2.86053e-10
2.86285e-10
2.86107e-10
2.85524e-10
2.84544e-10
2.83177e-10
2.81435e-10
2.79332e-10
2.76882e-10
2.74101e-10
2.71006e-10
2.67616e-10
2.6395e-10
2.60028e-10
2.55868e-10
2.51492e-10
2.46919e-10
2.4217e-10
2.37264e-10
2.32221e-10
2.27059e-10
2.21797e-10
2.16451e-10
2.11038e-10
2.05574e-10
2.00073e-10
1.94549e-10
1.89013e-10
1.83478e-10
1.77953e-10
1.72448e-10
1.6697e-10
1.61528e-10
1.56126e-10
1.50771e-10
1.45468e-10
1.40219e-10
1.35027e-10
1.29897e-10
1.24829e-10
1.19825e-10
1.14887e-10
1.10016e-10
1.05212e-10
1.00478e-10
9.58133e-11
9.12204e-11
8.67005e-11
8.22557e-11
7.78882e-11
7.36009e-11
6.93971e-11
6.52805e-11
6.12554e-11
5.73267e-11
5.34997e-11
4.978e-11
4.61736e-11
4.26868e-11
3.9326e-11
3.60975e-11
3.30075e-11
3.0062e-11
2.72664e-11
2.46255e-11
2.21436e-11
1.98238e-11
1.76683e-11
1.56782e-11
1.38537e-11
1.21933e-11
1.06947e-11
9.35415e-12
8.16679e-12
7.12664e-12
6.22668e-12
5.45894e-12
4.81461e-12
4.28419e-12
3.85755e-12
3.52414e-12
3.27306e-12
3.09325e-12
2.9736e-12
2.90309e-12
2.871e-12
2.86699e-12
2.88133e-12
2.90498e-12
2.92983e-12
2.94875e-12
2.95578e-12
2.94617e-12
2.91647e-12
2.86451e-12
2.78943e-12
2.69153e-12
2.57221e-12
2.4338e-12
2.27935e-12
2.11246e-12
1.93703e-12
1.75707e-12
1.57648e-12
1.3989e-12
1.22755e-12
1.06516e-12
9.13837e-13
7.75133e-13
6.49989e-13
5.38803e-13
4.41492e-13
3.57568e-13
2.86229e-13
2.26445e-13
1.77046e-13
1.36792e-13
1.04439e-13
7.87897e-14
5.87303e-14
4.32531e-14
3.14713e-14
2.2622e-14
1.60637e-14
1.12678e-14
7.80702e-15
5.34287e-15
3.61161e-15
2.41156e-15
1.5911e-15
1.03824e-15
6.71792e-16
4.34122e-16
2.8542e-16
1.99377e-16
1.60096e-16
1.22394e-13
1.24072e-13
1.27518e-13
1.32771e-13
1.39894e-13
1.48972e-13
1.60115e-13
1.73456e-13
1.89153e-13
2.07394e-13
2.28395e-13
2.52404e-13
2.797e-13
3.10603e-13
3.45468e-13
3.84697e-13
4.28735e-13
4.78078e-13
5.33279e-13
5.94948e-13
6.6376e-13
7.40463e-13
8.25877e-13
9.20908e-13
1.02655e-12
1.1439e-12
1.27415e-12
1.41861e-12
1.57872e-12
1.75604e-12
1.95228e-12
2.16931e-12
2.40915e-12
2.674e-12
2.96626e-12
3.28851e-12
3.64355e-12
4.03443e-12
4.46442e-12
4.93703e-12
5.45606e-12
6.02558e-12
6.64998e-12
7.33392e-12
8.08241e-12
8.90078e-12
9.7947e-12
1.07702e-11
1.18337e-11
1.2992e-11
1.42521e-11
1.56217e-11
1.71085e-11
1.87209e-11
2.04676e-11
2.23574e-11
2.43997e-11
2.66041e-11
2.89807e-11
3.15395e-11
3.42911e-11
3.7246e-11
4.0415e-11
4.38089e-11
4.74385e-11
5.13146e-11
5.54477e-11
5.98483e-11
6.45264e-11
6.94916e-11
7.47529e-11
8.03187e-11
8.61967e-11
9.23934e-11
9.89145e-11
1.05764e-10
1.12946e-10
1.20461e-10
1.28309e-10
1.36489e-10
1.44996e-10
1.53825e-10
1.62967e-10
1.72413e-10
1.82149e-10
1.92162e-10
2.02431e-10
2.12939e-10
2.23661e-10
2.34572e-10
2.45645e-10
2.56848e-10
2.68148e-10
2.79511e-10
2.909e-10
3.02273e-10
3.13592e-10
3.24812e-10
3.3589e-10
3.46782e-10
3.57441e-10
3.67823e-10
3.77882e-10
3.87573e-10
3.96852e-10
4.05675e-10
4.14003e-10
4.21795e-10
4.29015e-10
4.35629e-10
4.41606e-10
4.46919e-10
4.51543e-10
4.5546e-10
4.58653e-10
4.6111e-10
4.62825e-10
4.63794e-10
4.64018e-10
4.63504e-10
4.62261e-10
4.60304e-10
4.57649e-10
4.54319e-10
4.50339e-10
4.45736e-10
4.40541e-10
4.34788e-10
4.2851e-10
4.21746e-10
4.14533e-10
4.06911e-10
3.98918e-10
3.90595e-10
3.81981e-10
3.73116e-10
3.64037e-10
3.54782e-10
3.45387e-10
3.35886e-10
3.26313e-10
3.16697e-10
3.07068e-10
2.97453e-10
2.87876e-10
2.7836e-10
2.68924e-10
2.59588e-10
2.50366e-10
2.41273e-10
2.32321e-10
2.23519e-10
2.14876e-10
2.06399e-10
1.98091e-10
1.89957e-10
1.81999e-10
1.74219e-10
1.66615e-10
1.59189e-10
1.51939e-10
1.44862e-10
1.37958e-10
1.31223e-10
1.24656e-10
1.18254e-10
1.12016e-10
1.05939e-10
1.00023e-10
9.42665e-11
8.86691e-11
8.32313e-11
7.7954e-11
7.28388e-11
6.78878e-11
6.31037e-11
5.84897e-11
5.40496e-11
4.97871e-11
4.57065e-11
4.1812e-11
3.81074e-11
3.45966e-11
3.1283e-11
2.81692e-11
2.52573e-11
2.25482e-11
2.0042e-11
1.77377e-11
1.5633e-11
1.37246e-11
1.20076e-11
1.04763e-11
9.12362e-12
7.94138e-12
6.92048e-12
6.0509e-12
5.32184e-12
4.72187e-12
4.23905e-12
3.86106e-12
3.57537e-12
3.36936e-12
3.23046e-12
3.14635e-12
3.10504e-12
3.0951e-12
3.10578e-12
3.1272e-12
3.15045e-12
3.16778e-12
3.17272e-12
3.16011e-12
3.12623e-12
3.06874e-12
2.9867e-12
2.88045e-12
2.75148e-12
2.60228e-12
2.43614e-12
2.25689e-12
2.06869e-12
1.87583e-12
1.68247e-12
1.49246e-12
1.30925e-12
1.13571e-12
9.74086e-13
8.26011e-13
6.9247e-13
5.73873e-13
4.70114e-13
3.80661e-13
3.04647e-13
2.40965e-13
1.8836e-13
1.45505e-13
1.1107e-13
8.37776e-14
6.24376e-14
4.5976e-14
3.34472e-14
2.40388e-14
1.70673e-14
1.19701e-14
8.29258e-15
5.67447e-15
3.83532e-15
2.56065e-15
1.68928e-15
1.10219e-15
7.13104e-16
4.60774e-16
3.02913e-16
2.11578e-16
1.69883e-16
2.28592e-13
2.31744e-13
2.38217e-13
2.48085e-13
2.61467e-13
2.78525e-13
2.99466e-13
3.24543e-13
3.5406e-13
3.88369e-13
4.27883e-13
4.73071e-13
5.24468e-13
5.82679e-13
6.48383e-13
7.22342e-13
8.05407e-13
8.98524e-13
1.00274e-12
1.11924e-12
1.24929e-12
1.39432e-12
1.55592e-12
1.7358e-12
1.93588e-12
2.15824e-12
2.40519e-12
2.67922e-12
2.9831e-12
3.31983e-12
3.6927e-12
4.10527e-12
4.56144e-12
5.06545e-12
5.62189e-12
6.23575e-12
6.91242e-12
7.65774e-12
8.47802e-12
9.38003e-12
1.03711e-11
1.1459e-11
1.26523e-11
1.39599e-11
1.53914e-11
1.69572e-11
1.86681e-11
2.05357e-11
2.25724e-11
2.47912e-11
2.72057e-11
2.98304e-11
3.26804e-11
3.57715e-11
3.91203e-11
4.27438e-11
4.666e-11
5.08869e-11
5.54437e-11
6.03494e-11
6.56238e-11
7.12869e-11
7.73586e-11
8.38591e-11
9.08084e-11
9.82264e-11
1.06132e-10
1.14545e-10
1.23482e-10
1.3296e-10
1.42996e-10
1.53602e-10
1.64793e-10
1.76576e-10
1.88962e-10
2.01955e-10
2.15558e-10
2.29769e-10
2.44586e-10
2.6e-10
2.76e-10
2.92569e-10
3.09687e-10
3.27329e-10
3.45465e-10
3.64061e-10
3.83077e-10
4.02468e-10
4.22184e-10
4.4217e-10
4.62366e-10
4.82709e-10
5.03129e-10
5.23554e-10
5.43907e-10
5.64108e-10
5.84075e-10
6.03723e-10
6.22964e-10
6.41713e-10
6.59881e-10
6.77382e-10
6.9413e-10
7.1004e-10
7.25033e-10
7.39032e-10
7.51964e-10
7.6376e-10
7.74361e-10
7.83711e-10
7.91762e-10
7.98473e-10
8.03813e-10
8.07758e-10
8.10291e-10
8.11408e-10
8.1111e-10
8.09407e-10
8.0632e-10
8.01877e-10
7.96113e-10
7.89072e-10
7.80804e-10
7.71365e-10
7.60818e-10
7.49229e-10
7.36672e-10
7.2322e-10
7.08951e-10
6.93944e-10
6.78281e-10
6.62042e-10
6.45308e-10
6.28158e-10
6.10669e-10
5.92918e-10
5.74977e-10
5.56916e-10
5.388e-10
5.2069e-10
5.02645e-10
4.84717e-10
4.66956e-10
4.49404e-10
4.32102e-10
4.15083e-10
3.98379e-10
3.82015e-10
3.66012e-10
3.50389e-10
3.3516e-10
3.20334e-10
3.0592e-10
2.91921e-10
2.7834e-10
2.65175e-10
2.52424e-10
2.40083e-10
2.28144e-10
2.16602e-10
2.05447e-10
1.94671e-10
1.84263e-10
1.74216e-10
1.64518e-10
1.5516e-10
1.46133e-10
1.37428e-10
1.29037e-10
1.20952e-10
1.13167e-10
1.05676e-10
9.84744e-11
9.15572e-11
8.49218e-11
7.85657e-11
7.24874e-11
6.66857e-11
6.11601e-11
5.59104e-11
5.09367e-11
4.62388e-11
4.18166e-11
3.76695e-11
3.37963e-11
3.01952e-11
2.68635e-11
2.37974e-11
2.09921e-11
1.84417e-11
1.6139e-11
1.40756e-11
1.22419e-11
1.06275e-11
9.2205e-12
8.00851e-12
6.97813e-12
6.11537e-12
5.40572e-12
4.83431e-12
4.38604e-12
4.04575e-12
3.79837e-12
3.62905e-12
3.52335e-12
3.46737e-12
3.44792e-12
3.4527e-12
3.47043e-12
3.49104e-12
3.50578e-12
3.50737e-12
3.49005e-12
3.44964e-12
3.38356e-12
3.29074e-12
3.17156e-12
3.02768e-12
2.86184e-12
2.67765e-12
2.47933e-12
2.27145e-12
2.05871e-12
1.84565e-12
1.6365e-12
1.43501e-12
1.2443e-12
1.06681e-12
9.04308e-13
7.57841e-13
6.27835e-13
5.14152e-13
4.16189e-13
3.32981e-13
2.63301e-13
2.05763e-13
1.58906e-13
1.2127e-13
9.14487e-14
6.8139e-14
5.01631e-14
3.64857e-14
2.62172e-14
1.86104e-14
1.305e-14
9.03911e-15
6.18428e-15
4.17924e-15
2.78985e-15
1.84022e-15
1.20051e-15
7.76611e-16
5.01743e-16
3.29803e-16
2.30331e-16
1.84925e-16
4.27588e-13
4.33522e-13
4.457e-13
4.64267e-13
4.89447e-13
5.2155e-13
5.60968e-13
6.08183e-13
6.6377e-13
7.28404e-13
8.02865e-13
8.8805e-13
9.84977e-13
1.0948e-12
1.21881e-12
1.35846e-12
1.51537e-12
1.69136e-12
1.88843e-12
2.1088e-12
2.35495e-12
2.62961e-12
2.93578e-12
3.27677e-12
3.65625e-12
4.07821e-12
4.54706e-12
5.06763e-12
5.64519e-12
6.28553e-12
6.99495e-12
7.78033e-12
8.64917e-12
9.60961e-12
1.06705e-11
1.18415e-11
1.31329e-11
1.4556e-11
1.6123e-11
1.7847e-11
1.9742e-11
2.18232e-11
2.41068e-11
2.66103e-11
2.93522e-11
3.23523e-11
3.56318e-11
3.9213e-11
4.31195e-11
4.73766e-11
5.20106e-11
5.70492e-11
6.25215e-11
6.84581e-11
7.48905e-11
8.18516e-11
8.93754e-11
9.74971e-11
1.06252e-10
1.15678e-10
1.25812e-10
1.36691e-10
1.48353e-10
1.60836e-10
1.74178e-10
1.88415e-10
2.03582e-10
2.19714e-10
2.36843e-10
2.55e-10
2.7421e-10
2.945e-10
3.15887e-10
3.38389e-10
3.62017e-10
3.86775e-10
4.12664e-10
4.39677e-10
4.67799e-10
4.97008e-10
5.27276e-10
5.58564e-10
5.90823e-10
6.23999e-10
6.58024e-10
6.92824e-10
7.28311e-10
7.64391e-10
8.00958e-10
8.37898e-10
8.75086e-10
9.12391e-10
9.49671e-10
9.86779e-10
1.02356e-09
1.05986e-09
1.0955e-09
1.13033e-09
1.16418e-09
1.19687e-09
1.22824e-09
1.25812e-09
1.28636e-09
1.31279e-09
1.33728e-09
1.35969e-09
1.37988e-09
1.39774e-09
1.41317e-09
1.42609e-09
1.43642e-09
1.44411e-09
1.44911e-09
1.45141e-09
1.451e-09
1.4479e-09
1.44214e-09
1.43376e-09
1.42283e-09
1.40943e-09
1.39366e-09
1.37562e-09
1.35543e-09
1.33323e-09
1.30916e-09
1.28336e-09
1.25599e-09
1.22721e-09
1.19718e-09
1.16605e-09
1.134e-09
1.10119e-09
1.06776e-09
1.03388e-09
9.99688e-10
9.65328e-10
9.30932e-10
8.96626e-10
8.62526e-10
8.28738e-10
7.95362e-10
7.62484e-10
7.30183e-10
6.9853e-10
6.67582e-10
6.37391e-10
6.08e-10
5.79441e-10
5.5174e-10
5.24916e-10
4.98982e-10
4.73942e-10
4.49797e-10
4.26542e-10
4.04168e-10
3.82662e-10
3.62007e-10
3.42186e-10
3.23176e-10
3.04956e-10
2.875e-10
2.70784e-10
2.54782e-10
2.3947e-10
2.24823e-10
2.10814e-10
1.97422e-10
1.84622e-10
1.72393e-10
1.60715e-10
1.49568e-10
1.38936e-10
1.28801e-10
1.1915e-10
1.0997e-10
1.01248e-10
9.29736e-11
8.51378e-11
7.77317e-11
7.07475e-11
6.41778e-11
5.80156e-11
5.22537e-11
4.6885e-11
4.19018e-11
3.72961e-11
3.30589e-11
2.91804e-11
2.56499e-11
2.24555e-11
1.95842e-11
1.70221e-11
1.47541e-11
1.27641e-11
1.10352e-11
9.54977e-12
8.28956e-12
7.23587e-12
6.36969e-12
5.67189e-12
5.12335e-12
4.70513e-12
4.39865e-12
4.18578e-12
4.04909e-12
3.97193e-12
3.93863e-12
3.93469e-12
3.9469e-12
3.96351e-12
3.97439e-12
3.97112e-12
3.94708e-12
3.89748e-12
3.81936e-12
3.71151e-12
3.57435e-12
3.40975e-12
3.22081e-12
3.01159e-12
2.78684e-12
2.55171e-12
2.31144e-12
2.07113e-12
1.8355e-12
1.60872e-12
1.39427e-12
1.19486e-12
1.01242e-12
8.48092e-13
7.02325e-13
5.74936e-13
4.65222e-13
3.7208e-13
2.9412e-13
2.29773e-13
1.77394e-13
1.35339e-13
1.02029e-13
7.60022e-14
5.59375e-14
4.06756e-14
2.92211e-14
2.07381e-14
1.45388e-14
1.00683e-14
6.88708e-15
4.65332e-15
3.10578e-15
2.04827e-15
1.33602e-15
8.6414e-16
5.58207e-16
3.66862e-16
2.56176e-16
2.05654e-16
7.90958e-13
8.02005e-13
8.24671e-13
8.59225e-13
9.06093e-13
9.65855e-13
1.03925e-12
1.12718e-12
1.23073e-12
1.35117e-12
1.48997e-12
1.64882e-12
1.82963e-12
2.03457e-12
2.2661e-12
2.52694e-12
2.82016e-12
3.14918e-12
3.51778e-12
3.93019e-12
4.39107e-12
4.90557e-12
5.47941e-12
6.11886e-12
6.83084e-12
7.62296e-12
8.50358e-12
9.48185e-12
1.05678e-11
1.17725e-11
1.31078e-11
1.45869e-11
1.6224e-11
1.80347e-11
2.00358e-11
2.22457e-11
2.46842e-11
2.73727e-11
3.03345e-11
3.35945e-11
3.71797e-11
4.1119e-11
4.54435e-11
5.01864e-11
5.53832e-11
6.10719e-11
6.72926e-11
7.40882e-11
8.1504e-11
8.95879e-11
9.83903e-11
1.07964e-10
1.18365e-10
1.29651e-10
1.41882e-10
1.55122e-10
1.69433e-10
1.84884e-10
2.01542e-10
2.19476e-10
2.38758e-10
2.59457e-10
2.81645e-10
3.05392e-10
3.30767e-10
3.57839e-10
3.86673e-10
4.17331e-10
4.49871e-10
4.84347e-10
5.20805e-10
5.59286e-10
5.99824e-10
6.42442e-10
6.87153e-10
7.33961e-10
7.82855e-10
8.33813e-10
8.86799e-10
9.41758e-10
9.98623e-10
1.05731e-09
1.11771e-09
1.17971e-09
1.24316e-09
1.30791e-09
1.37377e-09
1.44055e-09
1.50804e-09
1.57599e-09
1.64417e-09
1.7123e-09
1.7801e-09
1.84728e-09
1.91353e-09
1.97855e-09
2.04201e-09
2.10359e-09
2.16297e-09
2.21983e-09
2.27384e-09
2.32471e-09
2.37214e-09
2.41585e-09
2.45557e-09
2.49107e-09
2.52212e-09
2.54853e-09
2.57015e-09
2.58683e-09
2.59848e-09
2.60502e-09
2.60644e-09
2.60272e-09
2.5939e-09
2.58007e-09
2.56131e-09
2.53777e-09
2.50962e-09
2.47705e-09
2.44028e-09
2.39956e-09
2.35516e-09
2.30736e-09
2.25645e-09
2.20274e-09
2.14655e-09
2.08821e-09
2.02803e-09
1.96632e-09
1.90341e-09
1.8396e-09
1.77519e-09
1.71045e-09
1.64567e-09
1.58109e-09
1.51694e-09
1.45345e-09
1.39082e-09
1.32921e-09
1.2688e-09
1.20973e-09
1.15211e-09
1.09604e-09
1.04161e-09
9.88894e-10
9.37934e-10
8.88768e-10
8.41418e-10
7.95893e-10
7.52191e-10
7.10298e-10
6.70194e-10
6.31847e-10
5.95222e-10
5.60276e-10
5.26962e-10
4.95229e-10
4.65023e-10
4.3629e-10
4.08972e-10
3.83012e-10
3.58353e-10
3.3494e-10
3.12717e-10
2.9163e-10
2.71628e-10
2.52662e-10
2.34684e-10
2.17651e-10
2.0152e-10
1.86253e-10
1.71813e-10
1.58167e-10
1.45284e-10
1.33136e-10
1.21695e-10
1.10939e-10
1.00844e-10
9.13889e-11
8.25546e-11
7.4322e-11
6.66727e-11
5.95886e-11
5.30519e-11
4.70443e-11
4.15473e-11
3.65417e-11
3.20076e-11
2.79242e-11
2.427e-11
2.10226e-11
1.81589e-11
1.56548e-11
1.3486e-11
1.16275e-11
1.00541e-11
8.74053e-12
7.66145e-12
6.79182e-12
6.10698e-12
5.58278e-12
5.19582e-12
4.92353e-12
4.74438e-12
4.63803e-12
4.58547e-12
4.56923e-12
4.57351e-12
4.58433e-12
4.58969e-12
4.57968e-12
4.54651e-12
4.4846e-12
4.39049e-12
4.26275e-12
4.10187e-12
3.90999e-12
3.69068e-12
3.44859e-12
3.18917e-12
2.91829e-12
2.64194e-12
2.36593e-12
2.09563e-12
1.83576e-12
1.59025e-12
1.36216e-12
1.15364e-12
9.65961e-13
7.99595e-13
6.54295e-13
5.2923e-13
4.23114e-13
3.3434e-13
2.61104e-13
2.01516e-13
1.53693e-13
1.15831e-13
8.6258e-14
6.34681e-14
4.61393e-14
3.31377e-14
2.3512e-14
1.64797e-14
1.14099e-14
7.80317e-15
5.27124e-15
3.51754e-15
2.31941e-15
1.51262e-15
9.78202e-16
6.31785e-16
4.15151e-16
2.89851e-16
2.32663e-16
1.44234e-12
1.46262e-12
1.50422e-12
1.56764e-12
1.65366e-12
1.76336e-12
1.89812e-12
2.0596e-12
2.24983e-12
2.47115e-12
2.72629e-12
3.0184e-12
3.35102e-12
3.7282e-12
4.15448e-12
4.63496e-12
5.17533e-12
5.78196e-12
6.46193e-12
7.22309e-12
8.07414e-12
9.02472e-12
1.00855e-11
1.12682e-11
1.25857e-11
1.40524e-11
1.56838e-11
1.74971e-11
1.95112e-11
2.17466e-11
2.42258e-11
2.69735e-11
3.00165e-11
3.33838e-11
3.71074e-11
4.12217e-11
4.57639e-11
5.07745e-11
5.62973e-11
6.23794e-11
6.90715e-11
7.64282e-11
8.45082e-11
9.33741e-11
1.03093e-10
1.13736e-10
1.2538e-10
1.38106e-10
1.51998e-10
1.67148e-10
1.8365e-10
2.01605e-10
2.21117e-10
2.42296e-10
2.65254e-10
2.90111e-10
3.16988e-10
3.46009e-10
3.77302e-10
4.10997e-10
4.47226e-10
4.8612e-10
5.27812e-10
5.72433e-10
6.2011e-10
6.70968e-10
7.25125e-10
7.82696e-10
8.43783e-10
9.08481e-10
9.76871e-10
1.04902e-09
1.12499e-09
1.2048e-09
1.28848e-09
1.376e-09
1.46735e-09
1.56247e-09
1.66125e-09
1.7636e-09
1.86936e-09
1.97834e-09
2.09033e-09
2.20508e-09
2.32231e-09
2.44167e-09
2.56282e-09
2.68536e-09
2.80886e-09
2.93284e-09
3.05682e-09
3.18028e-09
3.30265e-09
3.42338e-09
3.54187e-09
3.65752e-09
3.76972e-09
3.87787e-09
3.98134e-09
4.07954e-09
4.17189e-09
4.25781e-09
4.33678e-09
4.4083e-09
4.47189e-09
4.52715e-09
4.5737e-09
4.61123e-09
4.6395e-09
4.6583e-09
4.66753e-09
4.6671e-09
4.65705e-09
4.63743e-09
4.60841e-09
4.57018e-09
4.52302e-09
4.46727e-09
4.40331e-09
4.33157e-09
4.25255e-09
4.16676e-09
4.07477e-09
3.97715e-09
3.87451e-09
3.76747e-09
3.65664e-09
3.54266e-09
3.42614e-09
3.30768e-09
3.18788e-09
3.06731e-09
2.94649e-09
2.82596e-09
2.70617e-09
2.58759e-09
2.4706e-09
2.35559e-09
2.24287e-09
2.13274e-09
2.02544e-09
1.92119e-09
1.82015e-09
1.72248e-09
1.62828e-09
1.53762e-09
1.45054e-09
1.36708e-09
1.28721e-09
1.21093e-09
1.13817e-09
1.06888e-09
1.00299e-09
9.40401e-10
8.81019e-10
8.24738e-10
7.71446e-10
7.21027e-10
6.73361e-10
6.2833e-10
5.85812e-10
5.45688e-10
5.07842e-10
4.72159e-10
4.38528e-10
4.06842e-10
3.76999e-10
3.48903e-10
3.2246e-10
2.97583e-10
2.74191e-10
2.52207e-10
2.3156e-10
2.12184e-10
1.94016e-10
1.77001e-10
1.61084e-10
1.46217e-10
1.32354e-10
1.19453e-10
1.07472e-10
9.63743e-11
8.61231e-11
7.66833e-11
6.80204e-11
6.01009e-11
5.28913e-11
4.63581e-11
4.04677e-11
3.51865e-11
3.048e-11
2.63139e-11
2.26532e-11
1.9463e-11
1.67081e-11
1.43534e-11
1.23641e-11
1.07058e-11
9.3446e-12
8.24742e-12
7.38207e-12
6.71747e-12
6.22376e-12
5.87245e-12
5.63663e-12
5.49107e-12
5.41238e-12
5.37921e-12
5.37237e-12
5.375e-12
5.37268e-12
5.35354e-12
5.30833e-12
5.2304e-12
5.11564e-12
4.96237e-12
4.77114e-12
4.54444e-12
4.28642e-12
4.0025e-12
3.69898e-12
3.38268e-12
3.06052e-12
2.73921e-12
2.42493e-12
2.1231e-12
1.83822e-12
1.57379e-12
1.33225e-12
1.11501e-12
9.22573e-13
7.54611e-13
6.10126e-13
4.87601e-13
3.85155e-13
3.00681e-13
2.31982e-13
1.76872e-13
1.33258e-13
9.92062e-14
7.29745e-14
5.30357e-14
3.80809e-14
2.70127e-14
1.89289e-14
1.31027e-14
8.95894e-15
6.05077e-15
4.03695e-15
2.66142e-15
1.73536e-15
1.12206e-15
7.24579e-16
4.76049e-16
3.32318e-16
2.66722e-16
2.59089e-12
2.62758e-12
2.70281e-12
2.8175e-12
2.97309e-12
3.17153e-12
3.41535e-12
3.7076e-12
4.05196e-12
4.45274e-12
4.91493e-12
5.44428e-12
6.0473e-12
6.73139e-12
7.50488e-12
8.37712e-12
9.35857e-12
1.04609e-11
1.16971e-11
1.30817e-11
1.46306e-11
1.63616e-11
1.82943e-11
2.04503e-11
2.28536e-11
2.55303e-11
2.85093e-11
3.18224e-11
3.55044e-11
3.95934e-11
4.41311e-11
4.91629e-11
5.47386e-11
6.09122e-11
6.77428e-11
7.52942e-11
8.36358e-11
9.28427e-11
1.02996e-10
1.14184e-10
1.265e-10
1.40047e-10
1.54933e-10
1.71275e-10
1.89199e-10
2.08837e-10
2.30331e-10
2.53832e-10
2.79499e-10
3.07502e-10
3.38017e-10
3.7123e-10
4.07338e-10
4.46543e-10
4.89057e-10
5.351e-10
5.84898e-10
6.38682e-10
6.96689e-10
7.59161e-10
8.26341e-10
8.98473e-10
9.75799e-10
1.05856e-09
1.14699e-09
1.24132e-09
1.34176e-09
1.44851e-09
1.56176e-09
1.68168e-09
1.8084e-09
1.94204e-09
2.08269e-09
2.23038e-09
2.38513e-09
2.54691e-09
2.71562e-09
2.89113e-09
3.07326e-09
3.26175e-09
3.4563e-09
3.65652e-09
3.862e-09
4.0722e-09
4.28657e-09
4.50445e-09
4.72513e-09
4.94783e-09
5.17171e-09
5.39587e-09
5.61934e-09
5.84111e-09
6.06013e-09
6.27531e-09
6.48552e-09
6.68963e-09
6.88649e-09
7.07495e-09
7.25389e-09
7.42219e-09
7.57879e-09
7.72266e-09
7.85285e-09
7.96847e-09
8.06872e-09
8.15289e-09
8.22038e-09
8.27069e-09
8.30345e-09
8.31841e-09
8.31545e-09
8.29458e-09
8.25593e-09
8.19977e-09
8.12651e-09
8.03665e-09
7.93084e-09
7.80981e-09
7.67439e-09
7.52553e-09
7.36421e-09
7.19151e-09
7.00855e-09
6.81649e-09
6.61651e-09
6.4098e-09
6.19757e-09
5.98099e-09
5.76122e-09
5.53938e-09
5.31655e-09
5.09377e-09
4.87199e-09
4.65211e-09
4.43496e-09
4.22131e-09
4.01182e-09
3.80709e-09
3.60765e-09
3.41395e-09
3.22636e-09
3.04518e-09
2.87064e-09
2.7029e-09
2.54209e-09
2.38825e-09
2.24138e-09
2.10144e-09
1.96835e-09
1.842e-09
1.72222e-09
1.60886e-09
1.50171e-09
1.40057e-09
1.3052e-09
1.21539e-09
1.13087e-09
1.05142e-09
9.76786e-10
9.06727e-10
8.41003e-10
7.79382e-10
7.21635e-10
6.67544e-10
6.16896e-10
5.69491e-10
5.25136e-10
4.8365e-10
4.44862e-10
4.08611e-10
3.74747e-10
3.43127e-10
3.13623e-10
2.86112e-10
2.6048e-10
2.36625e-10
2.14448e-10
1.9386e-10
1.74777e-10
1.57122e-10
1.40821e-10
1.25805e-10
1.12011e-10
9.9375e-11
8.78389e-11
7.73449e-11
6.78371e-11
5.92609e-11
5.15625e-11
4.46889e-11
3.85877e-11
3.3207e-11
2.84955e-11
2.44024e-11
2.0878e-11
1.78731e-11
1.53397e-11
1.3231e-11
1.15016e-11
1.01076e-11
9.00688e-12
8.15911e-12
7.52594e-12
7.07117e-12
6.76084e-12
6.56339e-12
6.44978e-12
6.39367e-12
6.37152e-12
6.36277e-12
6.34992e-12
6.31864e-12
6.25778e-12
6.15934e-12
6.01842e-12
5.83298e-12
5.60364e-12
5.33333e-12
5.02692e-12
4.69077e-12
4.33226e-12
3.95937e-12
3.58017e-12
3.20249e-12
2.83351e-12
2.47952e-12
2.14574e-12
1.83619e-12
1.55364e-12
1.29972e-12
1.07494e-12
8.78877e-13
7.10316e-13
5.67454e-13
4.48065e-13
3.49671e-13
2.69688e-13
2.05553e-13
1.54819e-13
1.15224e-13
8.47327e-14
6.15646e-14
4.41935e-14
3.13409e-14
2.19568e-14
1.51952e-14
1.03875e-14
7.01422e-15
4.67886e-15
3.08406e-15
2.0106e-15
1.29981e-15
8.3923e-16
5.51288e-16
3.84782e-16
3.08799e-16
4.58401e-12
4.64941e-12
4.78347e-12
4.98783e-12
5.2651e-12
5.6188e-12
6.05346e-12
6.57461e-12
7.18886e-12
7.90398e-12
8.72899e-12
9.67423e-12
1.07515e-11
1.19741e-11
1.33571e-11
1.49175e-11
1.66741e-11
1.86481e-11
2.0863e-11
2.33451e-11
2.61232e-11
2.92297e-11
3.27001e-11
3.65738e-11
4.0894e-11
4.57087e-11
5.10704e-11
5.70369e-11
6.36715e-11
7.10439e-11
7.92299e-11
8.83129e-11
9.83836e-11
1.09541e-10
1.21893e-10
1.35556e-10
1.50657e-10
1.67335e-10
1.85738e-10
2.06027e-10
2.28375e-10
2.5297e-10
2.8001e-10
3.09712e-10
3.42305e-10
3.78033e-10
4.17159e-10
4.59959e-10
5.06726e-10
5.57772e-10
6.13422e-10
6.7402e-10
7.39926e-10
8.11513e-10
8.89173e-10
9.73307e-10
1.06433e-09
1.16267e-09
1.26877e-09
1.38306e-09
1.50598e-09
1.638e-09
1.77954e-09
1.93105e-09
2.09295e-09
2.26566e-09
2.44955e-09
2.645e-09
2.85233e-09
3.07182e-09
3.30373e-09
3.54824e-09
3.80549e-09
4.07552e-09
4.35833e-09
4.65381e-09
4.96178e-09
5.28194e-09
5.61391e-09
5.95718e-09
6.31113e-09
6.67502e-09
7.04798e-09
7.42901e-09
7.817e-09
8.21069e-09
8.6087e-09
9.00954e-09
9.41159e-09
9.81312e-09
1.02123e-08
1.06072e-08
1.09959e-08
1.13762e-08
1.17461e-08
1.21036e-08
1.24463e-08
1.27723e-08
1.30794e-08
1.33656e-08
1.36291e-08
1.3868e-08
1.40805e-08
1.42652e-08
1.44207e-08
1.45457e-08
1.46394e-08
1.47009e-08
1.47298e-08
1.47257e-08
1.46887e-08
1.46189e-08
1.45168e-08
1.43831e-08
1.42187e-08
1.40248e-08
1.38028e-08
1.35542e-08
1.32808e-08
1.29844e-08
1.26671e-08
1.23309e-08
1.19781e-08
1.16108e-08
1.12314e-08
1.08421e-08
1.04451e-08
1.00426e-08
9.6368e-09
9.22967e-09
8.82316e-09
8.41908e-09
8.01913e-09
7.62485e-09
7.23765e-09
6.85879e-09
6.48936e-09
6.13034e-09
5.78251e-09
5.44655e-09
5.12299e-09
4.81221e-09
4.51448e-09
4.22996e-09
3.95871e-09
3.70067e-09
3.45573e-09
3.22367e-09
3.00423e-09
2.79709e-09
2.60187e-09
2.41818e-09
2.24558e-09
2.0836e-09
1.93178e-09
1.78965e-09
1.6567e-09
1.53247e-09
1.41648e-09
1.30826e-09
1.20736e-09
1.11333e-09
1.02576e-09
9.44234e-10
8.68371e-10
7.97805e-10
7.32188e-10
6.71196e-10
6.14523e-10
5.61883e-10
5.13011e-10
4.67658e-10
4.25596e-10
3.86612e-10
3.50508e-10
3.17104e-10
2.86231e-10
2.57734e-10
2.31469e-10
2.07302e-10
1.8511e-10
1.64776e-10
1.46191e-10
1.29252e-10
1.13862e-10
9.99284e-11
8.73608e-11
7.60739e-11
6.59844e-11
5.70116e-11
4.90771e-11
4.21044e-11
3.6019e-11
3.07486e-11
2.62229e-11
2.23735e-11
1.91347e-11
1.64429e-11
1.42374e-11
1.246e-11
1.10552e-11
9.97071e-12
9.15713e-12
8.56818e-12
8.16084e-12
7.89541e-12
7.73561e-12
7.64874e-12
7.60577e-12
7.58143e-12
7.55436e-12
7.50709e-12
7.4261e-12
7.30173e-12
7.12802e-12
6.90252e-12
6.62591e-12
6.30166e-12
5.93551e-12
5.53497e-12
5.10874e-12
4.66622e-12
4.21692e-12
3.76999e-12
3.33386e-12
2.91588e-12
2.52213e-12
2.15725e-12
1.82448e-12
1.52563e-12
1.26125e-12
1.03078e-12
8.32763e-13
6.65026e-13
5.2492e-13
4.09507e-13
3.15733e-13
2.40573e-13
1.81141e-13
1.34774e-13
9.90824e-14
7.19717e-14
5.16512e-14
3.6621e-14
2.56501e-14
1.77474e-14
1.21297e-14
8.18906e-15
5.46155e-15
3.59935e-15
2.34615e-15
1.5165e-15
9.78987e-16
6.42997e-16
4.48729e-16
3.60083e-16
7.98856e-12
8.10344e-12
8.33883e-12
8.69765e-12
9.18452e-12
9.80572e-12
1.05693e-11
1.1485e-11
1.25646e-11
1.3822e-11
1.52732e-11
1.69365e-11
1.88329e-11
2.09862e-11
2.34231e-11
2.6174e-11
2.92723e-11
3.2756e-11
3.6667e-11
4.1052e-11
4.5963e-11
5.14575e-11
5.75993e-11
6.44588e-11
7.21137e-11
8.06498e-11
9.01614e-11
1.00752e-10
1.12536e-10
1.25639e-10
1.40196e-10
1.56358e-10
1.74289e-10
1.94167e-10
2.16185e-10
2.40557e-10
2.6751e-10
2.97295e-10
3.3018e-10
3.66457e-10
4.06439e-10
4.50465e-10
4.98898e-10
5.52128e-10
6.10571e-10
6.74672e-10
7.44905e-10
8.21774e-10
9.05813e-10
9.97585e-10
1.09768e-09
1.20674e-09
1.32539e-09
1.45434e-09
1.59428e-09
1.74594e-09
1.9101e-09
2.08751e-09
2.27897e-09
2.48529e-09
2.70726e-09
2.9457e-09
3.20142e-09
3.47519e-09
3.76779e-09
4.07994e-09
4.41236e-09
4.76567e-09
5.14046e-09
5.53723e-09
5.9564e-09
6.39829e-09
6.86308e-09
7.35086e-09
7.86155e-09
8.39493e-09
8.95057e-09
9.52792e-09
1.01262e-08
1.07443e-08
1.13812e-08
1.20354e-08
1.27051e-08
1.33886e-08
1.40836e-08
1.47878e-08
1.54986e-08
1.62131e-08
1.69283e-08
1.7641e-08
1.83477e-08
1.90448e-08
1.97287e-08
2.03955e-08
2.10414e-08
2.16625e-08
2.22548e-08
2.28146e-08
2.3338e-08
2.38215e-08
2.42616e-08
2.4655e-08
2.49989e-08
2.52905e-08
2.55275e-08
2.57081e-08
2.58306e-08
2.58939e-08
2.58973e-08
2.58408e-08
2.57243e-08
2.55488e-08
2.53154e-08
2.50257e-08
2.46817e-08
2.42859e-08
2.38412e-08
2.33506e-08
2.28176e-08
2.22459e-08
2.16394e-08
2.10022e-08
2.03384e-08
1.96523e-08
1.89479e-08
1.82297e-08
1.75016e-08
1.67676e-08
1.60316e-08
1.52971e-08
1.45677e-08
1.38463e-08
1.3136e-08
1.24394e-08
1.17588e-08
1.10962e-08
1.04534e-08
9.83184e-09
9.2328e-09
8.65717e-09
8.10563e-09
7.57864e-09
7.07642e-09
6.59901e-09
6.14627e-09
5.71789e-09
5.31342e-09
4.93231e-09