/*--------------------------------*- C++ -*----------------------------------*\
| =========                 |                                                 |
| \\      /  F ield         | OpenFOAM: The Open Source CFD Toolbox           |
|  \\    /   O peration     | Version:  v2012                                 |
|   \\  /    A nd           | Website:  www.openfoam.com                      |
|    \\/     M anipulation  |                                                 |
\*---------------------------------------------------------------------------*/
FoamFile
{
    version     2.0;
    format      ascii;
    class       surfaceScalarField;
    location    "18";
    object      phi;
}
// * * * * * * * * * * * * * * * * * * * * * * * * * * * * * * * * * * * * * //

dimensions      [0 3 -1 0 0 0 0];
oriented        oriented;


internalField   nonuniform List<scalar> 
130560
(
3.2409e-06
-3.2409e-06
6.48198e-06
-3.24108e-06
9.7234e-06
-3.24142e-06
1.29653e-05
-3.24193e-06
1.62079e-05
-3.24261e-06
1.94514e-05
-3.24346e-06
2.26959e-05
-3.24447e-06
2.59415e-05
-3.24565e-06
2.91885e-05
-3.24698e-06
3.2437e-05
-3.24848e-06
3.56871e-05
-3.25013e-06
3.89391e-05
-3.25194e-06
4.21929e-05
-3.25389e-06
4.54489e-05
-3.25599e-06
4.87071e-05
-3.25822e-06
5.19677e-05
-3.26059e-06
5.52308e-05
-3.26309e-06
5.84965e-05
-3.26571e-06
6.1765e-05
-3.26845e-06
6.50363e-05
-3.2713e-06
6.83105e-05
-3.27425e-06
7.15878e-05
-3.2773e-06
7.48683e-05
-3.28043e-06
7.81519e-05
-3.28364e-06
8.14388e-05
-3.28693e-06
8.47291e-05
-3.29027e-06
8.80228e-05
-3.29367e-06
9.13199e-05
-3.29711e-06
9.46205e-05
-3.30058e-06
9.79245e-05
-3.30406e-06
0.000101232
-3.30756e-06
0.000104543
-3.31104e-06
0.000107858
-3.31451e-06
0.000111176
-3.31795e-06
0.000114497
-3.32134e-06
0.000117822
-3.32467e-06
0.00012115
-3.32792e-06
0.000124481
-3.33108e-06
0.000127815
-3.33413e-06
0.000131152
-3.33705e-06
0.000134492
-3.33982e-06
0.000137834
-3.34244e-06
0.000141179
-3.34487e-06
0.000144526
-3.34709e-06
0.000147875
-3.3491e-06
0.000151226
-3.35086e-06
0.000154578
-3.35235e-06
0.000157932
-3.35355e-06
0.000161286
-3.35444e-06
0.000164641
-3.35499e-06
0.000167996
-3.35518e-06
0.000171351
-3.35498e-06
0.000174706
-3.35436e-06
0.000178059
-3.35331e-06
0.000181411
-3.35178e-06
0.000184761
-3.34976e-06
0.000188108
-3.34721e-06
0.000191452
-3.3441e-06
0.000194792
-3.34041e-06
0.000198128
-3.3361e-06
0.00020146
-3.33114e-06
0.000204785
-3.3255e-06
0.000208104
-3.31915e-06
0.000211416
-3.31205e-06
0.00021472
-3.30417e-06
0.000218016
-3.29547e-06
0.000221302
-3.28593e-06
0.000224577
-3.27551e-06
0.000227842
-3.26417e-06
0.000231093
-3.25187e-06
0.000234332
-3.23859e-06
0.000237556
-3.22429e-06
0.000240765
-3.20893e-06
0.000243958
-3.19248e-06
0.000247133
-3.1749e-06
0.000250289
-3.15616e-06
0.000253425
-3.13623e-06
0.00025654
-3.11507e-06
0.000259633
-3.09264e-06
0.000262702
-3.06892e-06
0.000265745
-3.04388e-06
0.000268763
-3.01747e-06
0.000271753
-2.98968e-06
0.000274713
-2.96047e-06
0.000277643
-2.92982e-06
0.000280541
-2.8977e-06
0.000283405
-2.86408e-06
0.000286234
-2.82894e-06
0.000289026
-2.79226e-06
0.00029178
-2.75402e-06
0.000294494
-2.7142e-06
0.000297167
-2.67278e-06
0.000299797
-2.62976e-06
0.000302382
-2.58511e-06
0.000304921
-2.53883e-06
0.000307412
-2.49092e-06
0.000309853
-2.44136e-06
0.000312243
-2.39015e-06
0.00031458
-2.3373e-06
0.000316863
-2.28281e-06
0.00031909
-2.22669e-06
0.000321259
-2.16895e-06
0.000323368
-2.10959e-06
0.000325417
-2.04864e-06
0.000327403
-1.98612e-06
0.000329325
-1.92204e-06
0.000331182
-1.85643e-06
0.000332971
-1.78933e-06
0.000334692
-1.72076e-06
0.000336342
-1.65076e-06
0.000337922
-1.57937e-06
0.000339428
-1.50663e-06
0.000340861
-1.43258e-06
0.000342218
-1.35728e-06
0.000343499
-1.28078e-06
0.000344702
-1.20313e-06
0.000345827
-1.12438e-06
0.000346871
-1.0446e-06
0.000347835
-9.63857e-07
0.000348717
-8.82207e-07
0.000349517
-7.99721e-07
0.000350233
-7.16469e-07
0.000350866
-6.32523e-07
0.000351414
-5.47956e-07
0.000351877
-4.62844e-07
0.000352254
-3.77265e-07
0.000352545
-2.91295e-07
0.00035275
-2.05015e-07
0.000352869
-1.18505e-07
0.000352901
-3.18441e-08
0.000352846
5.48859e-08
0.000352704
1.41604e-07
0.000352476
2.28229e-07
0.000352161
3.14681e-07
0.00035176
4.00879e-07
0.000351274
4.86745e-07
0.000350701
5.722e-07
0.000350044
6.57166e-07
0.000349303
7.41569e-07
0.000348477
8.25334e-07
0.000347569
9.0839e-07
0.000346578
9.90665e-07
0.000345506
1.07209e-06
0.000344354
1.15261e-06
0.000343122
1.23214e-06
0.000341811
1.31064e-06
0.000340423
1.38804e-06
0.000338959
1.4643e-06
0.000337419
1.53935e-06
0.000335806
1.61315e-06
0.00033412
1.68565e-06
0.000332364
1.75681e-06
0.000330537
1.82659e-06
0.000328642
1.89495e-06
0.00032668
1.96186e-06
0.000324653
2.0273e-06
0.000322562
2.09122e-06
0.000320408
2.15362e-06
0.000318194
2.21446e-06
0.00031592
2.27374e-06
0.000313588
2.33143e-06
0.000311201
2.38753e-06
0.000308759
2.44203e-06
0.000306264
2.49492e-06
0.000303718
2.5462e-06
0.000301122
2.59586e-06
0.000298478
2.64393e-06
0.000295788
2.69038e-06
0.000293052
2.73525e-06
0.000290274
2.77853e-06
0.000287454
2.82023e-06
0.000284593
2.86038e-06
0.000281694
2.89899e-06
0.000278758
2.93607e-06
0.000275786
2.97164e-06
0.000272781
3.00573e-06
0.000269742
3.03837e-06
0.000266673
3.06956e-06
0.000263573
3.09934e-06
0.000260446
3.12774e-06
0.000257291
3.15478e-06
0.00025411
3.1805e-06
0.000250906
3.20491e-06
0.000247677
3.22806e-06
0.000244428
3.24997e-06
0.000241157
3.27068e-06
0.000237867
3.29021e-06
0.000234558
3.30861e-06
0.000231232
3.32589e-06
0.00022789
3.3421e-06
0.000224533
3.35727e-06
0.000221161
3.37144e-06
0.000217777
3.38462e-06
0.00021438
3.39687e-06
0.000210972
3.40821e-06
0.000207553
3.41868e-06
0.000204125
3.4283e-06
0.000200687
3.43712e-06
0.000197242
3.44516e-06
0.00019379
3.45246e-06
0.000190331
3.45905e-06
0.000186866
3.46495e-06
0.000183396
3.47021e-06
0.000179921
3.47485e-06
0.000176442
3.4789e-06
0.000172959
3.48239e-06
0.000169474
3.48535e-06
0.000165986
3.48781e-06
0.000162497
3.4898e-06
0.000159005
3.49134e-06
0.000155513
3.49246e-06
0.00015202
3.49319e-06
0.000148526
3.49354e-06
0.000145032
3.49356e-06
0.000141539
3.49325e-06
0.000138047
3.49266e-06
0.000134555
3.49178e-06
0.000131064
3.49066e-06
0.000127575
3.48931e-06
0.000124087
3.48775e-06
0.000120601
3.48601e-06
0.000117117
3.48409e-06
0.000113635
3.48203e-06
0.000110155
3.47984e-06
0.000106678
3.47754e-06
0.000103202
3.47514e-06
9.97297e-05
3.47266e-06
9.62596e-05
3.47012e-06
9.27921e-05
3.46753e-06
8.93272e-05
3.46491e-06
8.58649e-05
3.46227e-06
8.24053e-05
3.45962e-06
7.89483e-05
3.45698e-06
7.54939e-05
3.45437e-06
7.20422e-05
3.45178e-06
6.85929e-05
3.44924e-06
6.51462e-05
3.44675e-06
6.17018e-05
3.44432e-06
5.82599e-05
3.44197e-06
5.48202e-05
3.4397e-06
5.13827e-05
3.43752e-06
4.79472e-05
3.43544e-06
4.45137e-05
3.43346e-06
4.10821e-05
3.4316e-06
3.76523e-05
3.42986e-06
3.4224e-05
3.42824e-06
3.07973e-05
3.42675e-06
2.73719e-05
3.4254e-06
2.39477e-05
3.42418e-06
2.05246e-05
3.42311e-06
1.71024e-05
3.42219e-06
1.3681e-05
3.42142e-06
1.02602e-05
3.42079e-06
6.83987e-06
3.42033e-06
3.41986e-06
3.42001e-06
3.41986e-06
3.24074e-06
-6.48164e-06
6.48165e-06
-6.48198e-06
9.7229e-06
-6.48267e-06
1.29647e-05
-6.48369e-06
1.62071e-05
-6.48505e-06
1.94504e-05
-6.48675e-06
2.26947e-05
-6.48878e-06
2.59402e-05
-6.49113e-06
2.9187e-05
-6.49381e-06
3.24353e-05
-6.49681e-06
3.56853e-05
-6.50012e-06
3.89371e-05
-6.50373e-06
4.21909e-05
-6.50764e-06
4.54467e-05
-6.51183e-06
4.87048e-05
-6.51631e-06
5.19653e-05
-6.52105e-06
5.52282e-05
-6.52606e-06
5.84938e-05
-6.5313e-06
6.17622e-05
-6.53679e-06
6.50334e-05
-6.54249e-06
6.83075e-05
-6.5484e-06
7.15847e-05
-6.5545e-06
7.48651e-05
-6.56078e-06
7.81487e-05
-6.56722e-06
8.14355e-05
-6.5738e-06
8.47258e-05
-6.5805e-06
8.80194e-05
-6.5873e-06
9.13165e-05
-6.59419e-06
9.4617e-05
-6.60114e-06
9.79211e-05
-6.60812e-06
0.000101229
-6.61512e-06
0.00010454
-6.62211e-06
0.000107854
-6.62906e-06
0.000111172
-6.63595e-06
0.000114494
-6.64274e-06
0.000117818
-6.64941e-06
0.000121146
-6.65593e-06
0.000124478
-6.66227e-06
0.000127812
-6.66838e-06
0.000131149
-6.67424e-06
0.000134489
-6.67981e-06
0.000137832
-6.68506e-06
0.000141177
-6.68994e-06
0.000144524
-6.69442e-06
0.000147873
-6.69844e-06
0.000151225
-6.70198e-06
0.000154577
-6.70499e-06
0.000157931
-6.70742e-06
0.000161286
-6.70922e-06
0.000164641
-6.71034e-06
0.000167997
-6.71074e-06
0.000171352
-6.71037e-06
0.000174707
-6.70917e-06
0.000178061
-6.70708e-06
0.000181413
-6.70406e-06
0.000184763
-6.70004e-06
0.000188111
-6.69497e-06
0.000191456
-6.68879e-06
0.000194797
-6.68144e-06
0.000198134
-6.67285e-06
0.000201465
-6.66296e-06
0.000204792
-6.65171e-06
0.000208111
-6.63904e-06
0.000211424
-6.62487e-06
0.000214729
-6.60915e-06
0.000218026
-6.59179e-06
0.000221312
-6.57274e-06
0.000224589
-6.55193e-06
0.000227854
-6.52928e-06
0.000231107
-6.50473e-06
0.000234346
-6.47821e-06
0.000237572
-6.44964e-06
0.000240782
-6.41896e-06
0.000243975
-6.38609e-06
0.000247151
-6.35097e-06
0.000250309
-6.31353e-06
0.000253446
-6.27369e-06
0.000256563
-6.2314e-06
0.000259657
-6.18658e-06
0.000262727
-6.13917e-06
0.000265772
-6.08911e-06
0.000268791
-6.03633e-06
0.000271782
-5.98078e-06
0.000274744
-5.92239e-06
0.000277675
-5.86111e-06
0.000280574
-5.79689e-06
0.00028344
-5.72968e-06
0.00028627
-5.65942e-06
0.000289064
-5.58608e-06
0.00029182
-5.50962e-06
0.000294536
-5.43e-06
0.00029721
-5.34718e-06
0.000299841
-5.26114e-06
0.000302428
-5.17185e-06
0.000304969
-5.0793e-06
0.000307461
-4.98347e-06
0.000309904
-4.88435e-06
0.000312296
-4.78194e-06
0.000314635
-4.67624e-06
0.000316919
-4.56726e-06
0.000319148
-4.45501e-06
0.000321318
-4.3395e-06
0.000323429
-4.22078e-06
0.00032548
-4.09886e-06
0.000327467
-3.97378e-06
0.000329391
-3.8456e-06
0.000331249
-3.71436e-06
0.00033304
-3.58012e-06
0.000334762
-3.44295e-06
0.000336414
-3.30291e-06
0.000337995
-3.16008e-06
0.000339503
-3.01456e-06
0.000340936
-2.86642e-06
0.000342295
-2.71577e-06
0.000343577
-2.56271e-06
0.000344781
-2.40734e-06
0.000345906
-2.24979e-06
0.000346952
-2.09017e-06
0.000347917
-1.92862e-06
0.0003488
-1.76525e-06
0.0003496
-1.6002e-06
0.000350318
-1.43363e-06
0.000350951
-1.26566e-06
0.000351499
-1.09645e-06
0.000351962
-9.26153e-07
0.00035234
-7.54916e-07
0.000352632
-5.82898e-07
0.000352837
-4.10258e-07
0.000352956
-2.37156e-07
0.000352988
-6.37537e-08
0.000352933
1.09787e-07
0.000352791
2.83304e-07
0.000352563
4.56636e-07
0.000352248
6.29619e-07
0.000351846
8.02095e-07
0.000351359
9.73905e-07
0.000350786
1.14489e-06
0.000350129
1.3149e-06
0.000349387
1.48378e-06
0.000348561
1.65138e-06
0.000347651
1.81756e-06
0.00034666
1.98218e-06
0.000345587
2.1451e-06
0.000344433
2.30619e-06
0.0003432
2.46533e-06
0.000341888
2.62238e-06
0.000340499
2.77724e-06
0.000339034
2.9298e-06
0.000337493
3.07995e-06
0.000335879
3.22759e-06
0.000334192
3.37264e-06
0.000332433
3.515e-06
0.000330605
3.6546e-06
0.000328709
3.79135e-06
0.000326746
3.92521e-06
0.000324717
4.0561e-06
0.000322624
4.18398e-06
0.000320469
4.30879e-06
0.000318253
4.43049e-06
0.000315978
4.54906e-06
0.000313644
4.66446e-06
0.000311255
4.77666e-06
0.000308812
4.88566e-06
0.000306315
4.99144e-06
0.000303767
5.094e-06
0.00030117
5.19334e-06
0.000298524
5.28946e-06
0.000295832
5.38237e-06
0.000293096
5.47208e-06
0.000290315
5.55863e-06
0.000287494
5.64203e-06
0.000284632
5.72231e-06
0.000281731
5.7995e-06
0.000278794
5.87364e-06
0.000275821
5.94477e-06
0.000272813
6.01293e-06
0.000269774
6.07817e-06
0.000266703
6.14053e-06
0.000263602
6.20007e-06
0.000260473
6.25684e-06
0.000257317
6.3109e-06
0.000254135
6.3623e-06
0.000250929
6.4111e-06
0.000247699
6.45736e-06
0.000244448
6.50115e-06
0.000241176
6.54253e-06
0.000237885
6.58157e-06
0.000234575
6.61832e-06
0.000231248
6.65286e-06
0.000227905
6.68525e-06
0.000224547
6.71556e-06
0.000221174
6.74385e-06
0.000217789
6.77019e-06
0.000214391
6.79465e-06
0.000210982
6.8173e-06
0.000207562
6.8382e-06
0.000204133
6.85742e-06
0.000200695
6.87502e-06
0.00019725
6.89107e-06
0.000193796
6.90564e-06
0.000190337
6.91878e-06
0.000186871
6.93056e-06
0.0001834
6.94104e-06
0.000179925
6.95029e-06
0.000176445
6.95836e-06
0.000172962
6.96531e-06
0.000169477
6.97121e-06
0.000165988
6.9761e-06
0.000162498
6.98004e-06
0.000159006
6.9831e-06
0.000155513
6.98531e-06
0.00015202
6.98674e-06
0.000148526
6.98743e-06
0.000145032
6.98744e-06
0.000141539
6.9868e-06
0.000138046
6.98558e-06
0.000134554
6.98382e-06
0.000131063
6.98155e-06
0.000127573
6.97883e-06
0.000124085
6.97569e-06
0.000120599
6.97218e-06
0.000117115
6.96834e-06
0.000113633
6.96419e-06
0.000110153
6.95979e-06
0.000106675
6.95516e-06
0.0001032
6.95035e-06
9.97271e-05
6.94538e-06
9.6257e-05
6.94028e-06
9.27894e-05
6.93509e-06
8.93245e-05
6.92983e-06
8.58622e-05
6.92454e-06
8.24026e-05
6.91923e-06
7.89456e-05
6.91395e-06
7.54913e-05
6.9087e-06
7.20396e-05
6.90352e-06
6.85904e-05
6.89842e-06
6.51437e-05
6.89343e-06
6.16995e-05
6.88857e-06
5.82576e-05
6.88386e-06
5.4818e-05
6.87931e-06
5.13805e-05
6.87494e-06
4.79452e-05
6.87077e-06
4.45119e-05
6.86681e-06
4.10804e-05
6.86308e-06
3.76507e-05
6.85959e-06
3.42225e-05
6.85635e-06
3.07959e-05
6.85337e-06
2.73707e-05
6.85065e-06
2.39466e-05
6.84822e-06
2.05237e-05
6.84608e-06
1.71016e-05
6.84423e-06
1.36804e-05
6.84268e-06
1.02597e-05
6.84143e-06
6.83956e-06
6.8405e-06
3.4197e-06
6.83987e-06
6.83956e-06
3.24039e-06
-9.72204e-06
6.48096e-06
-9.72255e-06
9.72187e-06
-9.72358e-06
1.29633e-05
-9.72512e-06
1.62054e-05
-9.72716e-06
1.94484e-05
-9.72971e-06
2.26923e-05
-9.73276e-06
2.59375e-05
-9.7363e-06
2.9184e-05
-9.74032e-06
3.2432e-05
-9.74483e-06
3.56817e-05
-9.7498e-06
3.89332e-05
-9.75522e-06
4.21867e-05
-9.7611e-06
4.54422e-05
-9.7674e-06
4.87001e-05
-9.77413e-06
5.19603e-05
-9.78126e-06
5.5223e-05
-9.78878e-06
5.84883e-05
-9.79667e-06
6.17565e-05
-9.80491e-06
6.50274e-05
-9.81348e-06
6.83014e-05
-9.82236e-06
7.15784e-05
-9.83154e-06
7.48586e-05
-9.84098e-06
7.81421e-05
-9.85065e-06
8.14288e-05
-9.86055e-06
8.47189e-05
-9.87062e-06
8.80125e-05
-9.88085e-06
9.13095e-05
-9.89121e-06
9.461e-05
-9.90166e-06
9.79141e-05
-9.91217e-06
0.000101222
-9.9227e-06
0.000104533
-9.93321e-06
0.000107847
-9.94367e-06
0.000111165
-9.95404e-06
0.000114487
-9.96427e-06
0.000117812
-9.97431e-06
0.00012114
-9.98413e-06
0.000124471
-9.99367e-06
0.000127806
-1.00029e-05
0.000131143
-1.00117e-05
0.000134484
-1.00201e-05
0.000137827
-1.0028e-05
0.000141172
-1.00354e-05
0.00014452
-1.00422e-05
0.00014787
-1.00483e-05
0.000151222
-1.00536e-05
0.000154575
-1.00582e-05
0.000157929
-1.00619e-05
0.000161285
-1.00647e-05
0.000164641
-1.00664e-05
0.000167997
-1.00671e-05
0.000171353
-1.00666e-05
0.000174709
-1.00649e-05
0.000178064
-1.00618e-05
0.000181417
-1.00573e-05
0.000184768
-1.00514e-05
0.000188117
-1.00439e-05
0.000191463
-1.00347e-05
0.000194805
-1.00237e-05
0.000198143
-1.00109e-05
0.000201477
-9.99614e-06
0.000204804
-9.97935e-06
0.000208126
-9.96042e-06
0.00021144
-9.93926e-06
0.000214747
-9.91575e-06
0.000218045
-9.88981e-06
0.000221333
-9.86132e-06
0.000224611
-9.83019e-06
0.000227878
-9.79631e-06
0.000231133
-9.75957e-06
0.000234375
-9.71987e-06
0.000237602
-9.6771e-06
0.000240815
-9.63116e-06
0.00024401
-9.58195e-06
0.000247189
-9.52936e-06
0.000250349
-9.47328e-06
0.000253489
-9.41361e-06
0.000256607
-9.35025e-06
0.000259704
-9.28311e-06
0.000262777
-9.21207e-06
0.000265825
-9.13706e-06
0.000268846
-9.05797e-06
0.00027184
-8.97471e-06
0.000274805
-8.88719e-06
0.000277739
-8.79534e-06
0.000280642
-8.69907e-06
0.00028351
-8.59831e-06
0.000286344
-8.49299e-06
0.000289141
-8.38303e-06
0.000291899
-8.26838e-06
0.000294618
-8.14899e-06
0.000297296
-8.0248e-06
0.000299931
-7.89577e-06
0.000302521
-7.76186e-06
0.000305064
-7.62305e-06
0.00030756
-7.47932e-06
0.000310007
-7.33065e-06
0.000312402
-7.17703e-06
0.000314744
-7.01847e-06
0.000317032
-6.85498e-06
0.000319263
-6.68657e-06
0.000321437
-6.51329e-06
0.000323551
-6.33516e-06
0.000325605
-6.15223e-06
0.000327596
-5.96456e-06
0.000329522
-5.77222e-06
0.000331383
-5.57529e-06
0.000333177
-5.37385e-06
0.000334902
-5.168e-06
0.000336557
-4.95785e-06
0.00033814
-4.7435e-06
0.000339651
-4.5251e-06
0.000341087
-4.30277e-06
0.000342448
-4.07667e-06
0.000343732
-3.84694e-06
0.000344939
-3.61375e-06
0.000346066
-3.37727e-06
0.000347114
-3.13768e-06
0.00034808
-2.89518e-06
0.000348965
-2.64996e-06
0.000349767
-2.40222e-06
0.000350485
-2.15218e-06
0.00035112
-1.90004e-06
0.000351669
-1.64604e-06
0.000352134
-1.3904e-06
0.000352512
-1.13335e-06
0.000352804
-8.75124e-07
0.00035301
-6.15964e-07
0.000353129
-3.56109e-07
0.000353161
-9.58028e-08
0.000353106
1.64712e-07
0.000352964
4.2519e-07
0.000352735
6.85388e-07
0.00035242
9.45064e-07
0.000352018
1.20398e-06
0.00035153
1.46189e-06
0.000350957
1.71856e-06
0.000350298
1.97376e-06
0.000349554
2.22727e-06
0.000348727
2.47885e-06
0.000347816
2.7283e-06
0.000346823
2.9754e-06
0.000345748
3.21994e-06
0.000344592
3.46173e-06
0.000343357
3.70059e-06
0.000342043
3.93631e-06
0.000340652
4.16875e-06
0.000339184
4.39771e-06
0.000337641
4.62306e-06
0.000336024
4.84464e-06
0.000334334
5.06231e-06
0.000332573
5.27595e-06
0.000330742
5.48544e-06
0.000328843
5.69066e-06
0.000326877
5.89152e-06
0.000324845
6.08793e-06
0.000322749
6.2798e-06
0.000320591
6.46706e-06
0.000318371
6.64967e-06
0.000316093
6.82755e-06
0.000313757
7.00067e-06
0.000311364
7.16901e-06
0.000308918
7.33252e-06
0.000306418
7.4912e-06
0.000303867
7.64503e-06
0.000301266
7.79403e-06
0.000298617
7.93819e-06
0.000295922
8.07754e-06
0.000293182
8.21209e-06
0.000290399
8.34188e-06
0.000287574
8.46694e-06
0.000284709
8.58732e-06
0.000281805
8.70307e-06
0.000278865
8.81423e-06
0.000275889
8.92087e-06
0.000272879
9.02305e-06
0.000269836
9.12085e-06
0.000266762
9.21433e-06
0.000263659
9.30357e-06
0.000260527
9.38865e-06
0.000257368
9.46967e-06
0.000254184
9.54669e-06
0.000250975
9.61982e-06
0.000247743
9.68914e-06
0.00024449
9.75474e-06
0.000241215
9.81674e-06
0.000237922
9.8752e-06
0.00023461
9.93025e-06
0.000231281
9.98198e-06
0.000227935
1.00305e-05
0.000224575
1.00759e-05
0.000221201
1.01182e-05
0.000217813
1.01576e-05
0.000214414
1.01942e-05
0.000211003
1.02281e-05
0.000207582
1.02594e-05
0.000204151
1.02881e-05
0.000200712
1.03145e-05
0.000197264
1.03385e-05
0.00019381
1.03602e-05
0.000190348
1.03799e-05
0.000186882
1.03975e-05
0.000183409
1.04131e-05
0.000179933
1.04269e-05
0.000176452
1.04389e-05
0.000172968
1.04493e-05
0.000169481
1.04581e-05
0.000165992
1.04653e-05
0.000162501
1.04712e-05
0.000159008
1.04757e-05
0.000155515
1.04789e-05
0.000152021
1.0481e-05
0.000148526
1.0482e-05
0.000145031
1.0482e-05
0.000141537
1.04809e-05
0.000138044
1.04791e-05
0.000134551
1.04764e-05
0.00013106
1.04729e-05
0.00012757
1.04688e-05
0.000124082
1.0464e-05
0.000120595
1.04587e-05
0.000117111
1.04529e-05
0.000113628
1.04466e-05
0.000110148
1.044e-05
0.00010667
1.0433e-05
0.000103195
1.04257e-05
9.97221e-05
1.04182e-05
9.62518e-05
1.04105e-05
9.27842e-05
1.04027e-05
8.93192e-05
1.03948e-05
8.58569e-05
1.03868e-05
8.23973e-05
1.03788e-05
7.89404e-05
1.03709e-05
7.54861e-05
1.0363e-05
7.20345e-05
1.03552e-05
6.85854e-05
1.03475e-05
6.51389e-05
1.034e-05
6.16948e-05
1.03327e-05
5.8253e-05
1.03256e-05
5.48136e-05
1.03187e-05
5.13764e-05
1.03122e-05
4.79413e-05
1.03059e-05
4.45081e-05
1.02999e-05
4.10769e-05
1.02943e-05
3.76474e-05
1.02891e-05
3.42196e-05
1.02842e-05
3.07932e-05
1.02797e-05
2.73682e-05
1.02756e-05
2.39445e-05
1.0272e-05
2.05218e-05
1.02688e-05
1.71001e-05
1.0266e-05
1.36791e-05
1.02636e-05
1.02588e-05
1.02618e-05
6.83893e-06
1.02604e-05
3.41939e-06
1.02594e-05
1.02589e-05
3.23988e-06
-1.29619e-05
6.47993e-06
-1.29626e-05
9.72033e-06
-1.2964e-05
1.29612e-05
-1.2966e-05
1.62028e-05
-1.29688e-05
1.94453e-05
-1.29722e-05
2.26888e-05
-1.29762e-05
2.59335e-05
-1.2981e-05
2.91795e-05
-1.29864e-05
3.2427e-05
-1.29924e-05
3.56763e-05
-1.2999e-05
3.89273e-05
-1.30063e-05
4.21803e-05
-1.30141e-05
4.54355e-05
-1.30226e-05
4.86929e-05
-1.30315e-05
5.19527e-05
-1.30411e-05
5.52151e-05
-1.30511e-05
5.84801e-05
-1.30617e-05
6.17479e-05
-1.30727e-05
6.50185e-05
-1.30842e-05
6.82922e-05
-1.3096e-05
7.1569e-05
-1.31083e-05
7.48489e-05
-1.31209e-05
7.81321e-05
-1.31339e-05
8.14187e-05
-1.31471e-05
8.47087e-05
-1.31606e-05
8.80021e-05
-1.31743e-05
9.1299e-05
-1.31881e-05
9.45995e-05
-1.32021e-05
9.79035e-05
-1.32162e-05
0.000101211
-1.32303e-05
0.000104522
-1.32444e-05
0.000107837
-1.32584e-05
0.000111155
-1.32723e-05
0.000114477
-1.3286e-05
0.000117802
-1.32994e-05
0.00012113
-1.33126e-05
0.000124462
-1.33254e-05
0.000127797
-1.33378e-05
0.000131135
-1.33496e-05
0.000134476
-1.33609e-05
0.000137819
-1.33716e-05
0.000141165
-1.33815e-05
0.000144514
-1.33906e-05
0.000147864
-1.33988e-05
0.000151217
-1.34061e-05
0.000154571
-1.34123e-05
0.000157926
-1.34173e-05
0.000161283
-1.34211e-05
0.00016464
-1.34236e-05
0.000167998
-1.34246e-05
0.000171355
-1.34241e-05
0.000174712
-1.34219e-05
0.000178068
-1.34179e-05
0.000181423
-1.34121e-05
0.000184776
-1.34043e-05
0.000188126
-1.33944e-05
0.000191474
-1.33823e-05
0.000194818
-1.33678e-05
0.000198158
-1.33509e-05
0.000201493
-1.33314e-05
0.000204823
-1.33091e-05
0.000208147
-1.3284e-05
0.000211463
-1.3256e-05
0.000214772
-1.32248e-05
0.000218073
-1.31904e-05
0.000221364
-1.31525e-05
0.000224645
-1.31112e-05
0.000227915
-1.30662e-05
0.000231173
-1.30174e-05
0.000234418
-1.29646e-05
0.000237648
-1.29077e-05
0.000240864
-1.28466e-05
0.000244063
-1.27812e-05
0.000247245
-1.27112e-05
0.000250408
-1.26366e-05
0.000253552
-1.25572e-05
0.000256674
-1.24729e-05
0.000259775
-1.23835e-05
0.000262852
-1.2289e-05
0.000265904
-1.21891e-05
0.00026893
-1.20838e-05
0.000271928
-1.19729e-05
0.000274897
-1.18563e-05
0.000277836
-1.1734e-05
0.000280742
-1.16058e-05
0.000283615
-1.14715e-05
0.000286454
-1.13312e-05
0.000289255
-1.11847e-05
0.000292019
-1.10319e-05
0.000294743
-1.08728e-05
0.000297425
-1.07073e-05
0.000300065
-1.05353e-05
0.000302659
-1.03568e-05
0.000305208
-1.01717e-05
0.000307709
-9.98011e-06
0.00031016
-9.78189e-06
0.00031256
-9.57706e-06
0.000314907
-9.36563e-06
0.0003172
-9.14761e-06
0.000319436
-8.92302e-06
0.000321615
-8.69191e-06
0.000323734
-8.45433e-06
0.000325792
-8.21034e-06
0.000327788
-7.96001e-06
0.000329719
-7.70344e-06
0.000331584
-7.44073e-06
0.000333383
-7.17199e-06
0.000335112
-6.89736e-06
0.000336771
-6.61697e-06
0.000338359
-6.33098e-06
0.000339873
-6.03957e-06
0.000341313
-5.74291e-06
0.000342678
-5.44119e-06
0.000343965
-5.13463e-06
0.000345175
-4.82344e-06
0.000346306
-4.50785e-06
0.000347356
-4.18811e-06
0.000348325
-3.86447e-06
0.000349213
-3.5372e-06
0.000350017
-3.20655e-06
0.000350738
-2.87282e-06
0.000351374
-2.5363e-06
0.000351925
-2.19727e-06
0.000352391
-1.85606e-06
0.00035277
-1.51296e-06
0.000353063
-1.16829e-06
0.00035327
-8.22365e-07
0.000353389
-4.75515e-07
0.000353422
-1.28061e-07
0.000353367
2.1967e-07
0.000353224
5.67353e-07
0.000352995
9.14662e-07
0.000352679
1.26127e-06
0.000352276
1.60686e-06
0.000351787
1.95111e-06
0.000351212
2.2937e-06
0.000350551
2.63432e-06
0.000349806
2.97267e-06
0.000348976
3.30846e-06
0.000348063
3.64138e-06
0.000347067
3.97116e-06
0.00034599
4.29753e-06
0.000344831
4.62022e-06
0.000343593
4.93897e-06
0.000342276
5.25354e-06
0.000340881
5.56371e-06
0.000339409
5.86924e-06
0.000337862
6.16994e-06
0.000336241
6.46559e-06
0.000334548
6.75602e-06
0.000332782
7.04106e-06
0.000330947
7.32055e-06
0.000329044
7.59433e-06
0.000327073
7.86228e-06
0.000325037
8.12428e-06
0.000322936
8.38022e-06
0.000320773
8.63001e-06
0.000318549
8.87355e-06
0.000316266
9.1108e-06
0.000313925
9.34168e-06
0.000311528
9.56616e-06
0.000309076
9.78421e-06
0.000306572
9.99579e-06
0.000304016
1.02009e-05
0.00030141
1.03996e-05
0.000298757
1.05917e-05
0.000296057
1.07775e-05
0.000293312
1.09569e-05
0.000290524
1.11299e-05
0.000287694
1.12965e-05
0.000284825
1.1457e-05
0.000281917
1.16112e-05
0.000278971
1.17593e-05
0.000275991
1.19014e-05
0.000272976
1.20376e-05
0.000269929
1.21678e-05
0.000266851
1.22924e-05
0.000263744
1.24112e-05
0.000260608
1.25245e-05
0.000257445
1.26324e-05
0.000254257
1.2735e-05
0.000251044
1.28323e-05
0.000247809
1.29246e-05
0.000244552
1.3012e-05
0.000241274
1.30945e-05
0.000237977
1.31723e-05
0.000234662
1.32455e-05
0.000231329
1.33143e-05
0.000227981
1.33788e-05
0.000224618
1.34392e-05
0.00022124
1.34955e-05
0.00021785
1.35479e-05
0.000214448
1.35966e-05
0.000211034
1.36416e-05
0.00020761
1.36831e-05
0.000204177
1.37213e-05
0.000200736
1.37562e-05
0.000197286
1.37881e-05
0.000193829
1.3817e-05
0.000190366
1.3843e-05
0.000186897
1.38663e-05
0.000183423
1.3887e-05
0.000179945
1.39053e-05
0.000176463
1.39212e-05
0.000172977
1.39349e-05
0.000169489
1.39464e-05
0.000165998
1.3956e-05
0.000162506
1.39637e-05
0.000159012
1.39695e-05
0.000155517
1.39738e-05
0.000152022
1.39764e-05
0.000148526
1.39776e-05
0.00014503
1.39774e-05
0.000141535
1.3976e-05
0.000138041
1.39733e-05
0.000134548
1.39696e-05
0.000131056
1.39649e-05
0.000127565
1.39593e-05
0.000124076
1.39529e-05
0.000120589
1.39457e-05
0.000117104
1.39379e-05
0.000113622
1.39294e-05
0.000110141
1.39205e-05
0.000106663
1.39111e-05
0.000103187
1.39013e-05
9.97144e-05
1.38913e-05
9.6244e-05
1.38809e-05
9.27763e-05
1.38704e-05
8.93113e-05
1.38598e-05
8.5849e-05
1.38491e-05
8.23894e-05
1.38384e-05
7.89325e-05
1.38277e-05
7.54784e-05
1.38171e-05
7.20268e-05
1.38067e-05
6.85779e-05
1.37964e-05
6.51316e-05
1.37864e-05
6.16877e-05
1.37766e-05
5.82462e-05
1.37671e-05
5.4807e-05
1.37579e-05
5.13701e-05
1.37491e-05
4.79353e-05
1.37407e-05
4.45025e-05
1.37327e-05
4.10716e-05
1.37252e-05
3.76425e-05
1.37182e-05
3.42151e-05
1.37116e-05
3.07892e-05
1.37056e-05
2.73646e-05
1.37002e-05
2.39413e-05
1.36953e-05
2.0519e-05
1.3691e-05
1.70978e-05
1.36873e-05
1.36772e-05
1.36841e-05
1.02574e-05
1.36816e-05
6.83799e-06
1.36797e-05
3.41892e-06
1.36785e-05
1.36779e-05
3.23919e-06
-1.62011e-05
6.47856e-06
-1.6202e-05
9.71827e-06
-1.62037e-05
1.29585e-05
-1.62063e-05
1.61994e-05
-1.62097e-05
1.94412e-05
-1.6214e-05
2.26841e-05
-1.62191e-05
2.59281e-05
-1.6225e-05
2.91735e-05
-1.62317e-05
3.24204e-05
-1.62393e-05
3.5669e-05
-1.62476e-05
3.89194e-05
-1.62567e-05
4.21719e-05
-1.62666e-05
4.54265e-05
-1.62771e-05
4.86833e-05
-1.62884e-05
5.19426e-05
-1.63004e-05
5.52045e-05
-1.6313e-05
5.8469e-05
-1.63262e-05
6.17364e-05
-1.634e-05
6.50066e-05
-1.63544e-05
6.82799e-05
-1.63693e-05
7.15563e-05
-1.63847e-05
7.48359e-05
-1.64006e-05
7.81189e-05
-1.64168e-05
8.14052e-05
-1.64334e-05
8.46949e-05
-1.64503e-05
8.79882e-05
-1.64675e-05
9.1285e-05
-1.64849e-05
9.45854e-05
-1.65025e-05
9.78894e-05
-1.65202e-05
0.000101197
-1.65379e-05
0.000104508
-1.65556e-05
0.000107823
-1.65732e-05
0.000111141
-1.65907e-05
0.000114463
-1.66079e-05
0.000117789
-1.66249e-05
0.000121118
-1.66414e-05
0.00012445
-1.66576e-05
0.000127785
-1.66732e-05
0.000131124
-1.66881e-05
0.000134465
-1.67024e-05
0.000137809
-1.67158e-05
0.000141156
-1.67284e-05
0.000144506
-1.67399e-05
0.000147857
-1.67504e-05
0.000151211
-1.67596e-05
0.000154566
-1.67675e-05
0.000157923
-1.6774e-05
0.00016128
-1.67789e-05
0.000164639
-1.67822e-05
0.000167998
-1.67836e-05
0.000171357
-1.67832e-05
0.000174716
-1.67806e-05
0.000178074
-1.67759e-05
0.000181431
-1.67688e-05
0.000184786
-1.67593e-05
0.000188138
-1.67472e-05
0.000191488
-1.67322e-05
0.000194835
-1.67144e-05
0.000198177
-1.66935e-05
0.000201515
-1.66693e-05
0.000204848
-1.66418e-05
0.000208175
-1.66107e-05
0.000211494
-1.65758e-05
0.000214807
-1.65371e-05
0.000218111
-1.64943e-05
0.000221405
-1.64473e-05
0.00022469
-1.63959e-05
0.000227964
-1.63399e-05
0.000231226
-1.62791e-05
0.000234474
-1.62134e-05
0.000237709
-1.61426e-05
0.000240929
-1.60665e-05
0.000244133
-1.59849e-05
0.000247319
-1.58977e-05
0.000250488
-1.58047e-05
0.000253636
-1.57057e-05
0.000256764
-1.56006e-05
0.000259869
-1.54891e-05
0.000262952
-1.53712e-05
0.000266009
-1.52465e-05
0.00026904
-1.51151e-05
0.000272044
-1.49768e-05
0.000275019
-1.48313e-05
0.000277964
-1.46785e-05
0.000280876
-1.45184e-05
0.000283756
-1.43508e-05
0.0002866
-1.41756e-05
0.000289408
-1.39926e-05
0.000292178
-1.38017e-05
0.000294908
-1.3603e-05
0.000297597
-1.33962e-05
0.000300243
-1.31813e-05
0.000302844
-1.29582e-05
0.0003054
-1.2727e-05
0.000307907
-1.24875e-05
0.000310365
-1.22397e-05
0.000312772
-1.19837e-05
0.000315125
-1.17194e-05
0.000317424
-1.14468e-05
0.000319667
-1.1166e-05
0.000321853
-1.0877e-05
0.000323978
-1.05799e-05
0.000326043
-1.02748e-05
0.000328044
-9.96171e-06
0.000329982
-9.6408e-06
0.000331853
-9.3122e-06
0.000333657
-8.97603e-06
0.000335392
-8.63247e-06
0.000337057
-8.2817e-06
0.00033865
-7.9239e-06
0.00034017
-7.55929e-06
0.000341615
-7.18809e-06
0.000342984
-6.81056e-06
0.000344277
-6.42695e-06
0.000345491
-6.03753e-06
0.000346625
-5.6426e-06
0.00034768
-5.24245e-06
0.000348653
-4.83741e-06
0.000349543
-4.4278e-06
0.000350351
-4.01396e-06
0.000351074
-3.59626e-06
0.000351713
-3.17505e-06
0.000352266
-2.7507e-06
0.000352734
-2.3236e-06
0.000353115
-1.89414e-06
0.000353409
-1.4627e-06
0.000353617
-1.0297e-06
0.000353737
-5.95527e-07
0.000353769
-1.606e-07
0.000353714
2.74676e-07
0.000353572
7.0989e-07
0.000353342
1.14463e-06
0.000353025
1.5785e-06
0.00035262
2.01108e-06
0.000352129
2.44198e-06
0.000351552
2.8708e-06
0.000350889
3.29715e-06
0.000350142
3.72064e-06
0.000349309
4.14092e-06
0.000348393
4.5576e-06
0.000347394
4.97034e-06
0.000346312
5.3788e-06
0.00034515
5.78263e-06
0.000343907
6.18153e-06
0.000342586
6.57518e-06
0.000341186
6.9633e-06
0.00033971
7.34561e-06
0.000338158
7.72185e-06
0.000336532
8.09176e-06
0.000334833
8.45512e-06
0.000333062
8.81172e-06
0.000331221
9.16135e-06
0.000329312
9.50383e-06
0.000327335
9.839e-06
0.000325293
1.01667e-05
0.000323186
1.04868e-05
0.000321017
1.07992e-05
0.000318787
1.11037e-05
0.000316497
1.14004e-05
0.00031415
1.16891e-05
0.000311746
1.19698e-05
0.000309288
1.22424e-05
0.000306777
1.25068e-05
0.000304214
1.27632e-05
0.000301602
1.30115e-05
0.000298942
1.32517e-05
0.000296236
1.34839e-05
0.000293485
1.3708e-05
0.000290691
1.39241e-05
0.000287855
1.41324e-05
0.000284979
1.43328e-05
0.000282065
1.45255e-05
0.000279114
1.47105e-05
0.000276127