/*--------------------------------*- C++ -*----------------------------------*\
| =========                 |                                                 |
| \\      /  F ield         | OpenFOAM: The Open Source CFD Toolbox           |
|  \\    /   O peration     | Version:  v2012                                 |
|   \\  /    A nd           | Website:  www.openfoam.com                      |
|    \\/     M anipulation  |                                                 |
\*---------------------------------------------------------------------------*/
FoamFile
{
    version     2.0;
    format      ascii;
    class       volVectorField;
    location    "18";
    object      U;
}
// * * * * * * * * * * * * * * * * * * * * * * * * * * * * * * * * * * * * * //

dimensions      [0 1 -1 0 0 0 0];


internalField   nonuniform List<vector> 
65536
(
(0.000660223 -0.000660239 0)
(0.0019807 -0.000660275 0)
(0.00330129 -0.000660345 0)
(0.00462205 -0.000660449 0)
(0.00594305 -0.000660587 0)
(0.00726437 -0.00066076 0)
(0.00858606 -0.000660966 0)
(0.0099082 -0.000661206 0)
(0.0112308 -0.000661478 0)
(0.0125541 -0.000661783 0)
(0.013878 -0.000662119 0)
(0.0152025 -0.000662486 0)
(0.0165279 -0.000662884 0)
(0.017854 -0.000663311 0)
(0.0191811 -0.000663766 0)
(0.0205091 -0.000664248 0)
(0.0218381 -0.000664757 0)
(0.0231681 -0.00066529 0)
(0.0244992 -0.000665848 0)
(0.0258314 -0.000666428 0)
(0.0271649 -0.000667029 0)
(0.0284995 -0.000667649 0)
(0.0298355 -0.000668287 0)
(0.0311727 -0.000668942 0)
(0.0325112 -0.00066961 0)
(0.0338511 -0.000670291 0)
(0.0351924 -0.000670983 0)
(0.036535 -0.000671683 0)
(0.0378791 -0.000672389 0)
(0.0392246 -0.000673098 0)
(0.0405715 -0.000673809 0)
(0.0419198 -0.000674519 0)
(0.0432696 -0.000675225 0)
(0.0446207 -0.000675924 0)
(0.0459733 -0.000676614 0)
(0.0473272 -0.000677291 0)
(0.0486825 -0.000677953 0)
(0.050039 -0.000678595 0)
(0.0513969 -0.000679216 0)
(0.0527559 -0.00067981 0)
(0.0541161 -0.000680375 0)
(0.0554775 -0.000680906 0)
(0.0568398 -0.0006814 0)
(0.0582031 -0.000681853 0)
(0.0595673 -0.00068226 0)
(0.0609322 -0.000682617 0)
(0.0622978 -0.00068292 0)
(0.0636639 -0.000683163 0)
(0.0650305 -0.000683343 0)
(0.0663974 -0.000683454 0)
(0.0677644 -0.000683491 0)
(0.0691314 -0.000683449 0)
(0.0704983 -0.000683322 0)
(0.0718648 -0.000683105 0)
(0.0732308 -0.000682793 0)
(0.0745961 -0.00068238 0)
(0.0759604 -0.000681859 0)
(0.0773236 -0.000681224 0)
(0.0786854 -0.000680471 0)
(0.0800456 -0.000679591 0)
(0.0814039 -0.000678579 0)
(0.0827601 -0.000677428 0)
(0.0841138 -0.000676132 0)
(0.0854648 -0.000674684 0)
(0.0868127 -0.000673077 0)
(0.0881573 -0.000671304 0)
(0.0894981 -0.000669359 0)
(0.0908349 -0.000667234 0)
(0.0921672 -0.000664921 0)
(0.0934947 -0.000662415 0)
(0.0948171 -0.000659708 0)
(0.0961338 -0.000656793 0)
(0.0974445 -0.000653662 0)
(0.0987487 -0.000650309 0)
(0.100046 -0.000646726 0)
(0.101336 -0.000642907 0)
(0.102618 -0.000638845 0)
(0.103891 -0.000634532 0)
(0.105156 -0.000629962 0)
(0.106412 -0.000625128 0)
(0.107657 -0.000620024 0)
(0.108892 -0.000614643 0)
(0.110116 -0.00060898 0)
(0.111328 -0.000603029 0)
(0.112528 -0.000596783 0)
(0.113716 -0.000590238 0)
(0.114889 -0.000583388 0)
(0.116049 -0.000576228 0)
(0.117195 -0.000568755 0)
(0.118325 -0.000560964 0)
(0.119439 -0.000552851 0)
(0.120536 -0.000544413 0)
(0.121617 -0.000535648 0)
(0.122679 -0.000526552 0)
(0.123723 -0.000517123 0)
(0.124748 -0.000507362 0)
(0.125753 -0.000497265 0)
(0.126738 -0.000486834 0)
(0.127701 -0.000476068 0)
(0.128642 -0.000464968 0)
(0.129561 -0.000453536 0)
(0.130457 -0.000441773 0)
(0.131328 -0.000429682 0)
(0.132176 -0.000417266 0)
(0.132998 -0.00040453 0)
(0.133794 -0.000391477 0)
(0.134564 -0.000378114 0)
(0.135307 -0.000364445 0)
(0.136022 -0.000350478 0)
(0.136709 -0.00033622 0)
(0.137367 -0.000321678 0)
(0.137996 -0.000306862 0)
(0.138595 -0.00029178 0)
(0.139164 -0.000276443 0)
(0.139701 -0.000260861 0)
(0.140207 -0.000245044 0)
(0.140681 -0.000229005 0)
(0.141123 -0.000212756 0)
(0.141533 -0.00019631 0)
(0.141909 -0.00017968 0)
(0.142252 -0.00016288 0)
(0.142561 -0.000145923 0)
(0.142835 -0.000128826 0)
(0.143076 -0.000111602 0)
(0.143282 -9.42668e-05 0)
(0.143453 -7.68367e-05 0)
(0.143589 -5.93272e-05 0)
(0.14369 -4.17544e-05 0)
(0.143756 -2.41347e-05 0)
(0.143787 -6.48446e-06 0)
(0.143782 1.11799e-05 0)
(0.143742 2.88418e-05 0)
(0.143667 4.64849e-05 0)
(0.143556 6.40926e-05 0)
(0.143411 8.16488e-05 0)
(0.14323 9.91372e-05 0)
(0.143014 0.000116542 0)
(0.142763 0.000133847 0)
(0.142478 0.000151038 0)
(0.142159 0.000168099 0)
(0.141806 0.000185015 0)
(0.141419 0.000201773 0)
(0.140999 0.000218358 0)
(0.140545 0.000234756 0)
(0.140059 0.000250956 0)
(0.139541 0.000266945 0)
(0.138991 0.000282711 0)
(0.13841 0.000298242 0)
(0.137798 0.000313529 0)
(0.137156 0.000328561 0)
(0.136484 0.000343328 0)
(0.135782 0.000357823 0)
(0.135052 0.000372037 0)
(0.134294 0.000385962 0)
(0.133508 0.000399592 0)
(0.132695 0.00041292 0)
(0.131856 0.000425942 0)
(0.130991 0.000438652 0)
(0.130101 0.000451046 0)
(0.129186 0.000463121 0)
(0.128248 0.000474873 0)
(0.127287 0.000486301 0)
(0.126303 0.000497403 0)
(0.125297 0.000508178 0)
(0.12427 0.000518624 0)
(0.123222 0.000528743 0)
(0.122154 0.000538534 0)
(0.121067 0.000547999 0)
(0.119962 0.000557139 0)
(0.118839 0.000565957 0)
(0.117698 0.000574454 0)
(0.11654 0.000582633 0)
(0.115367 0.000590499 0)
(0.114178 0.000598054 0)
(0.112974 0.000605302 0)
(0.111757 0.000612249 0)
(0.110525 0.000618897 0)
(0.109281 0.000625254 0)
(0.108024 0.000631322 0)
(0.106755 0.000637109 0)
(0.105475 0.00064262 0)
(0.104184 0.00064786 0)
(0.102883 0.000652835 0)
(0.101573 0.000657552 0)
(0.100253 0.000662018 0)
(0.0989245 0.000666238 0)
(0.0975878 0.000670219 0)
(0.0962434 0.000673967 0)
(0.0948917 0.00067749 0)
(0.0935332 0.000680795 0)
(0.0921683 0.000683887 0)
(0.0907974 0.000686774 0)
(0.089421 0.000689462 0)
(0.0880394 0.000691959 0)
(0.086653 0.000694271 0)
(0.0852621 0.000696405 0)
(0.0838672 0.000698367 0)
(0.0824685 0.000700165 0)
(0.0810664 0.000701805 0)
(0.0796611 0.000703294 0)
(0.0782531 0.000704637 0)
(0.0768424 0.000705842 0)
(0.0754296 0.000706914 0)
(0.0740147 0.000707861 0)
(0.072598 0.000708688 0)
(0.0711798 0.0007094 0)
(0.0697603 0.000710005 0)
(0.0683397 0.000710507 0)
(0.0669182 0.000710913 0)
(0.0654959 0.000711228 0)
(0.0640732 0.000711458 0)
(0.06265 0.000711607 0)
(0.0612267 0.000711682 0)
(0.0598032 0.000711686 0)
(0.0583798 0.000711625 0)
(0.0569567 0.000711504 0)
(0.0555338 0.000711328 0)
(0.0541113 0.0007111 0)
(0.0526893 0.000710826 0)
(0.051268 0.00071051 0)
(0.0498473 0.000710155 0)
(0.0484273 0.000709766 0)
(0.0470082 0.000709347 0)
(0.0455899 0.000708902 0)
(0.0441725 0.000708433 0)
(0.0427561 0.000707945 0)
(0.0413407 0.000707441 0)
(0.0399264 0.000706924 0)
(0.038513 0.000706398 0)
(0.0371008 0.000705864 0)
(0.0356896 0.000705327 0)
(0.0342795 0.000704789 0)
(0.0328704 0.000704252 0)
(0.0314624 0.00070372 0)
(0.0300555 0.000703193 0)
(0.0286497 0.000702676 0)
(0.0272449 0.000702169 0)
(0.025841 0.000701676 0)
(0.0244382 0.000701197 0)
(0.0230363 0.000700735 0)
(0.0216352 0.000700291 0)
(0.0202351 0.000699868 0)
(0.0188358 0.000699466 0)
(0.0174373 0.000699087 0)
(0.0160395 0.000698732 0)
(0.0146424 0.000698402 0)
(0.0132459 0.000698099 0)
(0.01185 0.000697824 0)
(0.0104546 0.000697577 0)
(0.00905972 0.000697359 0)
(0.00766523 0.000697171 0)
(0.00627107 0.000697013 0)
(0.0048772 0.000696887 0)
(0.00348356 0.000696792 0)
(0.00209007 0.000696728 0)
(0.00069668 0.000696696 0)
(0.000660189 -0.00198069 0)
(0.0019806 -0.00198079 0)
(0.00330112 -0.001981 0)
(0.00462181 -0.00198131 0)
(0.00594274 -0.00198173 0)
(0.00726399 -0.00198225 0)
(0.00858562 -0.00198287 0)
(0.00990769 -0.00198359 0)
(0.0112303 -0.0019844 0)
(0.0125534 -0.00198532 0)
(0.0138773 -0.00198633 0)
(0.0152018 -0.00198743 0)
(0.0165271 -0.00198862 0)
(0.0178532 -0.00198991 0)
(0.0191802 -0.00199127 0)
(0.0205081 -0.00199272 0)
(0.021837 -0.00199425 0)
(0.023167 -0.00199585 0)
(0.0244981 -0.00199752 0)
(0.0258303 -0.00199926 0)
(0.0271637 -0.00200107 0)
(0.0284983 -0.00200293 0)
(0.0298342 -0.00200485 0)
(0.0311714 -0.00200681 0)
(0.0325099 -0.00200882 0)
(0.0338498 -0.00201087 0)
(0.035191 -0.00201294 0)
(0.0365336 -0.00201504 0)
(0.0378777 -0.00201716 0)
(0.0392232 -0.0020193 0)
(0.0405701 -0.00202143 0)
(0.0419184 -0.00202356 0)
(0.0432682 -0.00202568 0)
(0.0446194 -0.00202778 0)
(0.0459719 -0.00202986 0)
(0.0473259 -0.00203189 0)
(0.0486812 -0.00203388 0)
(0.0500378 -0.00203581 0)
(0.0513957 -0.00203767 0)
(0.0527548 -0.00203946 0)
(0.0541151 -0.00204116 0)
(0.0554765 -0.00204276 0)
(0.0568389 -0.00204424 0)
(0.0582023 -0.00204561 0)
(0.0595665 -0.00204683 0)
(0.0609316 -0.00204791 0)
(0.0622973 -0.00204882 0)
(0.0636635 -0.00204956 0)
(0.0650303 -0.0020501 0)
(0.0663973 -0.00205044 0)
(0.0677644 -0.00205055 0)
(0.0691316 -0.00205043 0)
(0.0704987 -0.00205006 0)
(0.0718654 -0.00204941 0)
(0.0732316 -0.00204848 0)
(0.0745971 -0.00204725 0)
(0.0759616 -0.00204569 0)
(0.0773251 -0.00204379 0)
(0.0786871 -0.00204154 0)
(0.0800476 -0.00203891 0)
(0.0814061 -0.00203588 0)
(0.0827626 -0.00203243 0)
(0.0841166 -0.00202855 0)
(0.0854679 -0.00202421 0)
(0.0868161 -0.0020194 0)
(0.088161 -0.00201409 0)
(0.0895022 -0.00200826 0)
(0.0908394 -0.00200189 0)
(0.0921721 -0.00199496 0)
(0.0935 -0.00198745 0)
(0.0948228 -0.00197933 0)
(0.0961399 -0.0019706 0)
(0.097451 -0.00196121 0)
(0.0987557 -0.00195116 0)
(0.100053 -0.00194042 0)
(0.101344 -0.00192897 0)
(0.102626 -0.00191679 0)
(0.1039 -0.00190385 0)
(0.105166 -0.00189015 0)
(0.106422 -0.00187565 0)
(0.107668 -0.00186035 0)
(0.108903 -0.00184421 0)
(0.110128 -0.00182723 0)
(0.11134 -0.00180938 0)
(0.112541 -0.00179065 0)
(0.113729 -0.00177102 0)
(0.114904 -0.00175047 0)
(0.116064 -0.001729 0)
(0.11721 -0.00170658 0)
(0.118341 -0.00168321 0)
(0.119456 -0.00165888 0)
(0.120554 -0.00163357 0)
(0.121635 -0.00160727 0)
(0.122698 -0.00157999 0)
(0.123743 -0.0015517 0)
(0.124768 -0.00152242 0)
(0.125774 -0.00149213 0)
(0.126759 -0.00146084 0)
(0.127723 -0.00142854 0)
(0.128665 -0.00139524 0)
(0.129584 -0.00136094 0)
(0.130481 -0.00132564 0)
(0.131353 -0.00128937 0)
(0.132201 -0.00125212 0)
(0.133024 -0.0012139 0)
(0.133821 -0.00117474 0)
(0.134591 -0.00113464 0)
(0.135335 -0.00109363 0)
(0.13605 -0.00105172 0)
(0.136738 -0.00100894 0)
(0.137397 -0.000965307 0)
(0.138026 -0.000920849 0)
(0.138626 -0.000875594 0)
(0.139194 -0.000829572 0)
(0.139733 -0.000782813 0)
(0.140239 -0.000735352 0)
(0.140714 -0.000687223 0)
(0.141156 -0.000638463 0)
(0.141566 -0.000589112 0)
(0.141942 -0.000539207 0)
(0.142285 -0.000488792 0)
(0.142595 -0.000437908 0)
(0.14287 -0.0003866 0)
(0.143111 -0.000334913 0)
(0.143317 -0.000282893 0)
(0.143488 -0.000230586 0)
(0.143624 -0.000178042 0)
(0.143726 -0.000125307 0)
(0.143792 -7.24317e-05 0)
(0.143822 -1.94644e-05 0)
(0.143818 3.35452e-05 0)
(0.143778 8.65475e-05 0)
(0.143702 0.000139493 0)
(0.143592 0.000192333 0)
(0.143446 0.000245017 0)
(0.143265 0.000297498 0)
(0.143049 0.000349728 0)
(0.142798 0.00040166 0)
(0.142513 0.000453247 0)
(0.142193 0.000504444 0)
(0.14184 0.000555207 0)
(0.141452 0.000605494 0)
(0.141032 0.000655262 0)
(0.140578 0.000704471 0)
(0.140092 0.000753084 0)
(0.139573 0.000801061 0)
(0.139023 0.00084837 0)
(0.138441 0.000894975 0)
(0.137828 0.000940845 0)
(0.137186 0.000985949 0)
(0.136513 0.00103026 0)
(0.135811 0.00107375 0)
(0.13508 0.0011164 0)
(0.134321 0.00115818 0)
(0.133535 0.00119908 0)
(0.132721 0.00123907 0)
(0.131882 0.00127814 0)
(0.131016 0.00131627 0)
(0.130125 0.00135346 0)
(0.12921 0.00138969 0)
(0.128271 0.00142495 0)
(0.127309 0.00145923 0)
(0.126324 0.00149254 0)
(0.125318 0.00152486 0)
(0.12429 0.0015562 0)
(0.123242 0.00158656 0)
(0.122174 0.00161593 0)
(0.121086 0.00164432 0)
(0.11998 0.00167174 0)
(0.118856 0.00169819 0)
(0.117714 0.00172368 0)
(0.116556 0.00174822 0)
(0.115382 0.00177181 0)
(0.114193 0.00179447 0)
(0.112989 0.00181621 0)
(0.11177 0.00183704 0)
(0.110538 0.00185699 0)
(0.109293 0.00187605 0)
(0.108036 0.00189425 0)
(0.106766 0.0019116 0)
(0.105486 0.00192813 0)
(0.104195 0.00194384 0)
(0.102893 0.00195876 0)
(0.101582 0.00197291 0)
(0.100262 0.0019863 0)
(0.0989326 0.00199895 0)
(0.0975955 0.00201089 0)
(0.0962506 0.00202213 0)
(0.0948985 0.00203269 0)
(0.0935395 0.0020426 0)
(0.0921742 0.00205187 0)
(0.090803 0.00206052 0)
(0.0894262 0.00206858 0)
(0.0880442 0.00207606 0)
(0.0866574 0.00208299 0)
(0.0852662 0.00208939 0)
(0.0838709 0.00209527 0)
(0.0824719 0.00210065 0)
(0.0810695 0.00210557 0)
(0.0796639 0.00211003 0)
(0.0782556 0.00211405 0)
(0.0768447 0.00211766 0)
(0.0754315 0.00212087 0)
(0.0740164 0.0021237 0)
(0.0725995 0.00212618 0)
(0.0711811 0.00212831 0)
(0.0697614 0.00213012 0)
(0.0683405 0.00213162 0)
(0.0669188 0.00213283 0)
(0.0654964 0.00213377 0)
(0.0640735 0.00213445 0)
(0.0626502 0.0021349 0)
(0.0612267 0.00213511 0)
(0.0598031 0.00213512 0)
(0.0583796 0.00213494 0)
(0.0569563 0.00213457 0)
(0.0555333 0.00213403 0)
(0.0541108 0.00213335 0)
(0.0526887 0.00213252 0)
(0.0512673 0.00213157 0)
(0.0498465 0.0021305 0)
(0.0484265 0.00212933 0)
(0.0470073 0.00212807 0)
(0.0455889 0.00212673 0)
(0.0441715 0.00212532 0)
(0.0427551 0.00212385 0)
(0.0413397 0.00212233 0)
(0.0399253 0.00212078 0)
(0.0385119 0.0021192 0)
(0.0370997 0.0021176 0)
(0.0356885 0.00211598 0)
(0.0342784 0.00211436 0)
(0.0328693 0.00211275 0)
(0.0314614 0.00211115 0)
(0.0300545 0.00210957 0)
(0.0286486 0.00210802 0)
(0.0272438 0.00210649 0)
(0.02584 0.00210501 0)
(0.0244372 0.00210357 0)
(0.0230353 0.00210219 0)
(0.0216344 0.00210085 0)
(0.0202343 0.00209958 0)
(0.018835 0.00209837 0)
(0.0174365 0.00209723 0)
(0.0160388 0.00209617 0)
(0.0146417 0.00209518 0)
(0.0132453 0.00209427 0)
(0.0118495 0.00209344 0)
(0.0104542 0.0020927 0)
(0.00905931 0.00209205 0)
(0.00766488 0.00209148 0)
(0.00627079 0.00209101 0)
(0.00487698 0.00209063 0)
(0.0034834 0.00209034 0)
(0.00208998 0.00209015 0)
(0.000696648 0.00209006 0)
(0.000660119 -0.00330103 0)
(0.00198039 -0.0033012 0)
(0.00330077 -0.00330155 0)
(0.00462132 -0.00330207 0)
(0.00594212 -0.00330277 0)
(0.00726323 -0.00330363 0)
(0.00858472 -0.00330467 0)
(0.00990666 -0.00330587 0)
(0.0112291 -0.00330723 0)
(0.0125522 -0.00330876 0)
(0.0138758 -0.00331044 0)
(0.0152002 -0.00331228 0)
(0.0165254 -0.00331428 0)
(0.0178514 -0.00331641 0)
(0.0191783 -0.0033187 0)
(0.0205061 -0.00332111 0)
(0.0218349 -0.00332366 0)
(0.0231648 -0.00332634 0)
(0.0244958 -0.00332913 0)
(0.0258279 -0.00333204 0)
(0.0271612 -0.00333505 0)
(0.0284958 -0.00333816 0)
(0.0298316 -0.00334136 0)
(0.0311687 -0.00334464 0)
(0.0325072 -0.00334799 0)
(0.033847 -0.00335141 0)
(0.0351882 -0.00335488 0)
(0.0365308 -0.00335839 0)
(0.0378749 -0.00336193 0)
(0.0392203 -0.00336549 0)
(0.0405672 -0.00336906 0)
(0.0419156 -0.00337262 0)
(0.0432654 -0.00337616 0)
(0.0446166 -0.00337967 0)
(0.0459692 -0.00338314 0)
(0.0473232 -0.00338654 0)
(0.0486786 -0.00338986 0)
(0.0500353 -0.00339309 0)
(0.0513932 -0.00339621 0)
(0.0527525 -0.0033992 0)
(0.0541129 -0.00340204 0)
(0.0554744 -0.00340472 0)
(0.056837 -0.00340721 0)
(0.0582005 -0.00340949 0)
(0.059565 -0.00341155 0)
(0.0609302 -0.00341336 0)
(0.0622962 -0.0034149 0)
(0.0636627 -0.00341614 0)
(0.0650296 -0.00341706 0)
(0.0663969 -0.00341764 0)
(0.0677644 -0.00341785 0)
(0.0691319 -0.00341767 0)
(0.0704993 -0.00341706 0)
(0.0718664 -0.00341601 0)
(0.073233 -0.00341448 0)
(0.0745989 -0.00341244 0)
(0.0759639 -0.00340986 0)
(0.0773278 -0.00340672 0)
(0.0786903 -0.00340299 0)
(0.0800513 -0.00339862 0)
(0.0814104 -0.00339359 0)
(0.0827674 -0.00338787 0)
(0.084122 -0.00338143 0)
(0.0854739 -0.00337422 0)
(0.0868228 -0.00336622 0)
(0.0881684 -0.00335739 0)
(0.0895103 -0.0033477 0)
(0.0908482 -0.0033371 0)
(0.0921817 -0.00332558 0)
(0.0935104 -0.00331308 0)
(0.0948339 -0.00329958 0)
(0.0961519 -0.00328504 0)
(0.0974639 -0.00326943 0)
(0.0987695 -0.0032527 0)
(0.100068 -0.00323482 0)
(0.101359 -0.00321576 0)
(0.102643 -0.00319548 0)
(0.103918 -0.00317395 0)
(0.105184 -0.00315113 0)
(0.106441 -0.00312699 0)
(0.107688 -0.0031015 0)
(0.108925 -0.00307463 0)
(0.110151 -0.00304635 0)
(0.111365 -0.00301662 0)
(0.112567 -0.00298541 0)
(0.113756 -0.00295271 0)
(0.114932 -0.00291849 0)
(0.116093 -0.00288271 0)
(0.117241 -0.00284537 0)
(0.118373 -0.00280643 0)
(0.119489 -0.00276588 0)
(0.120588 -0.00272371 0)
(0.121671 -0.00267989 0)
(0.122735 -0.00263442 0)
(0.123781 -0.00258728 0)
(0.124808 -0.00253848 0)
(0.125815 -0.002488 0)
(0.126801 -0.00243584 0)
(0.127767 -0.00238201 0)
(0.12871 -0.0023265 0)
(0.129631 -0.00226933 0)
(0.130528 -0.0022105 0)
(0.131402 -0.00215003 0)
(0.132251 -0.00208793 0)
(0.133075 -0.00202423 0)
(0.133874 -0.00195894 0)
(0.134645 -0.00189209 0)
(0.13539 -0.00182371 0)
(0.136107 -0.00175384 0)
(0.136796 -0.00168251 0)
(0.137455 -0.00160976 0)
(0.138086 -0.00153563 0)
(0.138686 -0.00146018 0)
(0.139256 -0.00138344 0)
(0.139795 -0.00130547 0)
(0.140303 -0.00122633 0)
(0.140778 -0.00114607 0)
(0.141222 -0.00106476 0)
(0.141632 -0.000982466 0)
(0.142009 -0.000899246 0)
(0.142353 -0.000815172 0)
(0.142663 -0.000730317 0)
(0.142938 -0.000644754 0)
(0.14318 -0.000558557 0)
(0.143386 -0.000471805 0)
(0.143558 -0.000384575 0)
(0.143695 -0.000296946 0)
(0.143796 -0.000209001 0)
(0.143862 -0.000120821 0)
(0.143893 -3.24868e-05 0)
(0.143888 5.59176e-05 0)
(0.143848 0.00014431 0)
(0.143773 0.000232607 0)
(0.143662 0.000320727 0)
(0.143516 0.000408589 0)
(0.143334 0.000496111 0)
(0.143118 0.000583213 0)
(0.142867 0.000669817 0)
(0.142581 0.000755845 0)
(0.142261 0.000841223 0)
(0.141907 0.000925876 0)
(0.141519 0.00100973 0)
(0.141098 0.00109272 0)
(0.140643 0.00117478 0)
(0.140156 0.00125584 0)
(0.139637 0.00133585 0)
(0.139085 0.00141473 0)
(0.138503 0.00149244 0)
(0.137889 0.00156893 0)
(0.137245 0.00164413 0)
(0.136571 0.00171801 0)
(0.135868 0.00179053 0)
(0.135136 0.00186163 0)
(0.134376 0.00193129 0)
(0.133589 0.00199947 0)
(0.132774 0.00206614 0)
(0.131933 0.00213127 0)
(0.131066 0.00219484 0)
(0.130174 0.00225683 0)
(0.129258 0.00231722 0)
(0.128318 0.00237599 0)
(0.127354 0.00243314 0)
(0.126368 0.00248866 0)
(0.12536 0.00254253 0)
(0.124331 0.00259476 0)
(0.123282 0.00264536 0)
(0.122212 0.00269431 0)
(0.121123 0.00274162 0)
(0.120016 0.00278731 0)
(0.11889 0.00283139 0)
(0.117748 0.00287386 0)
(0.116589 0.00291474 0)
(0.115413 0.00295405 0)
(0.114222 0.0029918 0)
(0.113017 0.00302803 0)
(0.111797 0.00306273 0)
(0.110564 0.00309595 0)
(0.109318 0.00312771 0)
(0.108059 0.00315802 0)
(0.106789 0.00318693 0)
(0.105507 0.00321445 0)
(0.104215 0.00324062 0)
(0.102912 0.00326547 0)
(0.1016 0.00328902 0)
(0.100279 0.00331132 0)
(0.098949 0.00333238 0)
(0.0976109 0.00335226 0)
(0.0962651 0.00337097 0)
(0.0949121 0.00338855 0)
(0.0935523 0.00340503 0)
(0.0921862 0.00342046 0)
(0.0908141 0.00343486 0)
(0.0894365 0.00344827 0)
(0.0880538 0.00346072 0)
(0.0866663 0.00347224 0)
(0.0852744 0.00348288 0)
(0.0838784 0.00349266 0)
(0.0824788 0.00350162 0)
(0.0810757 0.00350978 0)
(0.0796696 0.00351719 0)
(0.0782606 0.00352388 0)
(0.0768492 0.00352987 0)
(0.0754356 0.0035352 0)
(0.0740199 0.0035399 0)
(0.0726026 0.00354401 0)
(0.0711837 0.00354754 0)
(0.0697636 0.00355053 0)
(0.0683423 0.00355302 0)
(0.0669203 0.00355502 0)
(0.0654975 0.00355657 0)
(0.0640742 0.00355769 0)
(0.0626506 0.00355841 0)
(0.0612268 0.00355876 0)
(0.059803 0.00355875 0)
(0.0583793 0.00355843 0)
(0.0569557 0.0035578 0)
(0.0555325 0.00355689 0)
(0.0541098 0.00355573 0)
(0.0526875 0.00355434 0)
(0.0512659 0.00355274 0)
(0.049845 0.00355095 0)
(0.0484248 0.00354898 0)
(0.0470055 0.00354687 0)
(0.0455871 0.00354462 0)
(0.0441696 0.00354226 0)
(0.0427531 0.0035398 0)
(0.0413376 0.00353727 0)
(0.0399232 0.00353467 0)
(0.0385098 0.00353202 0)
(0.0370975 0.00352934 0)
(0.0356863 0.00352664 0)
(0.0342762 0.00352393 0)
(0.0328672 0.00352124 0)
(0.0314592 0.00351856 0)
(0.0300524 0.00351592 0)
(0.0286466 0.00351332 0)
(0.0272418 0.00351078 0)
(0.0258381 0.0035083 0)
(0.0244353 0.0035059 0)
(0.0230335 0.00350358 0)
(0.0216326 0.00350135 0)
(0.0202326 0.00349923 0)
(0.0188334 0.00349721 0)
(0.0174351 0.00349531 0)
(0.0160374 0.00349353 0)
(0.0146405 0.00349188 0)
(0.0132442 0.00349036 0)
(0.0118484 0.00348897 0)
(0.0104532 0.00348774 0)
(0.0090585 0.00348664 0)
(0.00766418 0.0034857 0)
(0.00627022 0.00348491 0)
(0.00487654 0.00348427 0)
(0.00348308 0.0034838 0)
(0.00208978 0.00348348 0)
(0.000696584 0.00348332 0)
(0.000660014 -0.0046212 0)
(0.00198008 -0.00462144 0)
(0.00330025 -0.00462193 0)
(0.00462059 -0.00462266 0)
(0.00594118 -0.00462364 0)
(0.00726209 -0.00462485 0)
(0.00858338 -0.0046263 0)
(0.00990512 -0.00462798 0)
(0.0112274 -0.0046299 0)
(0.0125502 -0.00463204 0)
(0.0138737 -0.0046344 0)
(0.0151979 -0.00463699 0)
(0.0165229 -0.00463978 0)
(0.0178487 -0.00464278 0)
(0.0191754 -0.00464598 0)
(0.0205031 -0.00464937 0)
(0.0218318 -0.00465295 0)
(0.0231615 -0.0046567 0)
(0.0244923 -0.00466063 0)
(0.0258243 -0.0046647 0)
(0.0271575 -0.00466893 0)
(0.028492 -0.0046733 0)
(0.0298277 -0.00467779 0)
(0.0311647 -0.00468239 0)
(0.0325031 -0.0046871 0)
(0.0338428 -0.0046919 0)
(0.035184 -0.00469677 0)
(0.0365266 -0.0047017 0)
(0.0378706 -0.00470667 0)
(0.039216 -0.00471167 0)
(0.0405629 -0.00471669 0)
(0.0419113 -0.00472169 0)
(0.0432611 -0.00472667 0)
(0.0446124 -0.00473161 0)
(0.045965 -0.00473648 0)
(0.0473191 -0.00474126 0)
(0.0486746 -0.00474594 0)
(0.0500314 -0.00475048 0)
(0.0513895 -0.00475488 0)
(0.0527489 -0.00475909 0)
(0.0541095 -0.00476309 0)
(0.0554712 -0.00476687 0)
(0.0568341 -0.00477038 0)
(0.0581979 -0.00477361 0)
(0.0595626 -0.00477652 0)
(0.0609282 -0.00477908 0)
(0.0622944 -0.00478127 0)
(0.0636613 -0.00478304 0)
(0.0650287 -0.00478437 0)
(0.0663964 -0.00478521 0)
(0.0677643 -0.00478555 0)
(0.0691323 -0.00478533 0)
(0.0705003 -0.00478452 0)
(0.0718679 -0.00478308 0)
(0.0732351 -0.00478098 0)
(0.0746016 -0.00477816 0)
(0.0759673 -0.0047746 0)
(0.0773319 -0.00477025 0)
(0.0786951 -0.00476506 0)
(0.0800569 -0.00475899 0)
(0.0814168 -0.004752 0)
(0.0827747 -0.00474404 0)
(0.0841302 -0.00473506 0)
(0.085483 -0.00472502 0)
(0.0868329 -0.00471387 0)
(0.0881795 -0.00470155 0)
(0.0895224 -0.00468803 0)
(0.0908614 -0.00467325 0)
(0.092196 -0.00465717 0)
(0.0935259 -0.00463973 0)
(0.0948507 -0.00462088 0)
(0.09617 -0.00460057 0)
(0.0974833 -0.00457875 0)
(0.0987902 -0.00455538 0)
(0.10009 -0.0045304 0)
(0.101383 -0.00450376 0)
(0.102668 -0.00447542 0)
(0.103945 -0.00444533 0)
(0.105213 -0.00441343 0)
(0.106471 -0.00437968 0)
(0.10772 -0.00434404 0)
(0.108958 -0.00430646 0)
(0.110185 -0.0042669 0)
(0.111401 -0.00422532 0)
(0.112605 -0.00418168 0)
(0.113796 -0.00413593 0)
(0.114973 -0.00408805 0)
(0.116137 -0.004038 0)
(0.117286 -0.00398574 0)
(0.11842 -0.00393125 0)
(0.119538 -0.00387451 0)
(0.12064 -0.00381549 0)
(0.121724 -0.00375416 0)
(0.122791 -0.00369051 0)
(0.123839 -0.00362454 0)
(0.124867 -0.00355622 0)
(0.125876 -0.00348555 0)
(0.126865 -0.00341253 0)
(0.127832 -0.00333715 0)
(0.128777 -0.00325943 0)
(0.1297 -0.00317938 0)
(0.1306 -0.003097 0)
(0.131476 -0.00301232 0)
(0.132327 -0.00292535 0)
(0.133153 -0.00283614 0)
(0.133953 -0.00274469 0)
(0.134726 -0.00265107 0)
(0.135473 -0.00255529 0)
(0.136192 -0.00245742 0)
(0.136882 -0.0023575 0)
(0.137544 -0.00225559 0)
(0.138176 -0.00215175 0)
(0.138778 -0.00204604 0)
(0.139349 -0.00193853 0)
(0.13989 -0.0018293 0)
(0.140399 -0.00171842 0)
(0.140875 -0.00160597 0)
(0.14132 -0.00149205 0)
(0.141731 -0.00137674 0)
(0.14211 -0.00126014 0)
(0.142454 -0.00114234 0)
(0.142765 -0.00102344 0)
(0.143042 -0.000903542 0)
(0.143284 -0.000782759 0)
(0.143491 -0.000661195 0)
(0.143663 -0.000538961 0)
(0.1438 -0.000416169 0)
(0.143902 -0.000292931 0)
(0.143968 -0.000169363 0)
(0.143999 -4.55803e-05 0)
(0.143995 7.83015e-05 0)
(0.143954 0.000202166 0)
(0.143879 0.000325898 0)
(0.143768 0.00044938 0)
(0.143621 0.0005725 0)
(0.143439 0.000695142 0)
(0.143222 0.000817195 0)
(0.142971 0.000938549 0)
(0.142684 0.00105909 0)
(0.142363 0.00117873 0)
(0.142008 0.00129734 0)
(0.141619 0.00141484 0)
(0.141197 0.00153112 0)
(0.140741 0.00164609 0)
(0.140253 0.00175966 0)
(0.139732 0.00187175 0)
(0.139179 0.00198227 0)
(0.138595 0.00209114 0)
(0.13798 0.00219828 0)
(0.137335 0.00230364 0)
(0.136659 0.00240713 0)
(0.135955 0.00250871 0)
(0.135221 0.00260831 0)
(0.134459 0.00270588 0)
(0.13367 0.00280137 0)
(0.132853 0.00289475 0)
(0.13201 0.00298597 0)
(0.131142 0.00307499 0)
(0.130248 0.0031618 0)
(0.129329 0.00324637 0)
(0.128387 0.00332867 0)
(0.127422 0.00340869 0)
(0.126434 0.00348642 0)
(0.125424 0.00356184 0)
(0.124393 0.00363497 0)
(0.123341 0.00370579 0)
(0.12227 0.00377432 0)
(0.121179 0.00384055 0)
(0.12007 0.0039045 0)
(0.118942 0.00396619 0)
(0.117798 0.00402563 0)
(0.116637 0.00408284 0)
(0.115459 0.00413785 0)
(0.114267 0.00419067 0)
(0.11306 0.00424135 0)
(0.111838 0.00428991 0)
(0.110603 0.00433638 0)
(0.109355 0.0043808 0)
(0.108095 0.00442321 0)
(0.106823 0.00446364 0)
(0.10554 0.00450213 0)
(0.104246 0.00453872 0)
(0.102941 0.00457346 0)
(0.101628 0.0046064 0)
(0.100305 0.00463756 0)
(0.0989736 0.00466701 0)
(0.097634 0.00469478 0)
(0.0962869 0.00472093 0)
(0.0949325 0.0047455 0)
(0.0935714 0.00476853 0)
(0.0922041 0.00479008 0)
(0.0908308 0.00481019 0)
(0.089452 0.00482892 0)
(0.0880681 0.0048463 0)
(0.0866795 0.00486239 0)
(0.0852866 0.00487723 0)
(0.0838896 0.00489088 0)
(0.082489 0.00490337 0)
(0.081085 0.00491476 0)
(0.079678 0.00492508 0)
(0.0782682 0.0049344 0)
(0.076856 0.00494274 0)
(0.0754416 0.00495016 0)
(0.0740252 0.0049567 0)
(0.0726071 0.00496241 0)
(0.0711876 0.00496731 0)
(0.0697668 0.00497146 0)
(0.068345 0.0049749 0)
(0.0669224 0.00497766 0)
(0.0654991 0.00497979 0)
(0.0640753 0.00498133 0)
(0.0626513 0.0049823 0)
(0.061227 0.00498275 0)
(0.0598028 0.00498271 0)
(0.0583787 0.00498222 0)
(0.0569548 0.0049813 0)
(0.0555313 0.00498001 0)
(0.0541082 0.00497835 0)
(0.0526857 0.00497637 0)
(0.0512639 0.0049741 0)
(0.0498427 0.00497156 0)
(0.0484224 0.00496879 0)
(0.0470029 0.0049658 0)
(0.0455843 0.00496263 0)
(0.0441667 0.0049593 0)
(0.0427501 0.00495584 0)
(0.0413346 0.00495226 0)
(0.03992 0.0049486 0)
(0.0385066 0.00494487 0)
(0.0370943 0.0049411 0)
(0.0356831 0.0049373 0)
(0.034273 0.0049335 0)
(0.032864 0.00492971 0)
(0.0314561 0.00492594 0)
(0.0300492 0.00492223 0)
(0.0286435 0.00491858 0)
(0.0272388 0.004915 0)
(0.0258352 0.00491152 0)
(0.0244325 0.00490814 0)
(0.0230308 0.00490488 0)
(0.02163 0.00490175 0)
(0.0202301 0.00489877 0)
(0.0188311 0.00489593 0)
(0.0174328 0.00489326 0)
(0.0160353 0.00489076 0)
(0.0146386 0.00488844 0)
(0.0132424 0.00488631 0)
(0.0118469 0.00488436 0)
(0.0104518 0.00488262 0)
(0.00905728 0.00488109 0)
(0.00766314 0.00487977 0)
(0.00626936 0.00487866 0)
(0.00487587 0.00487776 0)
(0.0034826 0.00487709 0)
(0.0020895 0.00487665 0)
(0.000696488 0.00487642 0)
(0.000659874 -0.00594112 0)
(0.00197966 -0.00594144 0)
(0.00329955 -0.00594207 0)
(0.00461961 -0.00594301 0)
(0.00593993 -0.00594426 0)
(0.00726056 -0.00594583 0)
(0.00858158 -0.0059477 0)
(0.00990305 -0.00594987 0)
(0.011225 -0.00595234 0)
(0.0125476 -0.0059551 0)
(0.0138709 -0.00595815 0)
(0.0151948 -0.00596148 0)
(0.0165196 -0.00596508 0)
(0.0178452 -0.00596895 0)
(0.0191717 -0.00597307 0)
(0.0204991 -0.00597745 0)
(0.0218276 -0.00598206 0)
(0.0231571 -0.0059869 0)
(0.0244878 -0.00599196 0)
(0.0258196 -0.00599722 0)
(0.0271526 -0.00600268 0)
(0.0284869 -0.00600831 0)
(0.0298225 -0.0060141 0)
(0.0311594 -0.00602005 0)
(0.0324976 -0.00602612 0)
(0.0338373 -0.00603231 0)
(0.0351784 -0.0060386 0)
(0.0365209 -0.00604496 0)
(0.0378648 -0.00605139 0)
(0.0392103 -0.00605785 0)
(0.0405572 -0.00606432 0)
(0.0419055 -0.00607079 0)
(0.0432554 -0.00607723 0)
(0.0446067 -0.00608361 0)
(0.0459595 -0.00608991 0)
(0.0473137 -0.00609609 0)
(0.0486693 -0.00610215 0)
(0.0500263 -0.00610803 0)
(0.0513846 -0.00611372 0)
(0.0527442 -0.00611918 0)
(0.054105 -0.00612437 0)
(0.055467 -0.00612927 0)
(0.0568302 -0.00613384 0)
(0.0581943 -0.00613804 0)
(0.0595594 -0.00614184 0)
(0.0609254 -0.00614519 0)
(0.0622921 -0.00614805 0)
(0.0636595 -0.00615039 0)
(0.0650274 -0.00615215 0)
(0.0663957 -0.0061533 0)
(0.0677642 -0.00615379 0)
(0.0691329 -0.00615357 0)
(0.0705015 -0.0061526 0)
(0.0718698 -0.00615082 0)
(0.0732378 -0.00614818 0)
(0.0746052 -0.00614464 0)
(0.0759717 -0.00614013 0)
(0.0773372 -0.00613461 0)
(0.0787015 -0.00612801 0)
(0.0800643 -0.00612029 0)
(0.0814253 -0.00611138 0)
(0.0827843 -0.00610122 0)
(0.0841409 -0.00608976 0)
(0.085495 -0.00607693 0)
(0.0868462 -0.00606267 0)
(0.0881941 -0.00604693 0)
(0.0895385 -0.00602963 0)
(0.0908789 -0.00601071 0)
(0.0922151 -0.00599011 0)
(0.0935466 -0.00596777 0)
(0.094873 -0.00594362 0)
(0.0961939 -0.0059176 0)
(0.097509 -0.00588964 0)
(0.0988177 -0.00585967 0)
(0.10012 -0.00582764 0)
(0.101414 -0.00579348 0)
(0.102701 -0.00575712 0)
(0.10398 -0.00571851 0)
(0.10525 -0.00567757 0)
(0.106511 -0.00563426 0)
(0.107762 -0.00558852 0)
(0.109002 -0.00554028 0)
(0.110232 -0.00548949 0)
(0.11145 -0.00543609 0)
(0.112656 -0.00538004 0)
(0.113849 -0.00532129 0)
(0.115029 -0.00525978 0)
(0.116196 -0.00519548 0)
(0.117347 -0.00512835 0)
(0.118484 -0.00505834 0)
(0.119604 -0.00498542 0)
(0.120708 -0.00490957 0)
(0.121795 -0.00483075 0)
(0.122865 -0.00474894 0)
(0.123915 -0.00466413 0)
(0.124947 -0.0045763 0)
(0.125958 -0.00448545 0)
(0.12695 -0.00439156 0)
(0.12792 -0.00429464 0)
(0.128868 -0.0041947 0)
(0.129793 -0.00409175 0)
(0.130695 -0.00398581 0)
(0.131574 -0.00387689 0)
(0.132427 -0.00376503 0)
(0.133256 -0.00365027 0)
(0.134059 -0.00353264 0)
(0.134835 -0.00341219 0)
(0.135584 -0.00328897 0)
(0.136305 -0.00316305 0)
(0.136997 -0.00303449 0)
(0.137661 -0.00290336 0)
(0.138296 -0.00276973 0)
(0.1389 -0.0026337 0)
(0.139473 -0.00249535 0)
(0.140016 -0.00235477 0)
(0.140526 -0.00221207 0)
(0.141005 -0.00206736 0)
(0.141451 -0.00192073 0)
(0.141864 -0.00177231 0)
(0.142244 -0.00162223 0)
(0.14259 -0.0014706 0)
(0.142902 -0.00131755 0)
(0.143179 -0.00116322 0)
(0.143422 -0.00100774 0)
(0.14363 -0.000851257 0)
(0.143803 -0.000693907 0)
(0.143941 -0.000535837 0)
(0.144043 -0.000377192 0)
(0.14411 -0.000218121 0)