/*--------------------------------*- C++ -*----------------------------------*\
| =========                 |                                                 |
| \\      /  F ield         | OpenFOAM: The Open Source CFD Toolbox           |
|  \\    /   O peration     | Version:  v2012                                 |
|   \\  /    A nd           | Website:  www.openfoam.com                      |
|    \\/     M anipulation  |                                                 |
\*---------------------------------------------------------------------------*/
FoamFile
{
    version     2.0;
    format      ascii;
    class       volScalarField;
    location    "0";
    object      pRec;
}
// * * * * * * * * * * * * * * * * * * * * * * * * * * * * * * * * * * * * * //

dimensions      [0 2 -2 0 0 0 0];


internalField   nonuniform List<scalar> 
4000
(
-6.90379e-13
-6.84958e-13
-6.85994e-13
-6.88625e-13
-6.86628e-13
-6.87471e-13
-6.85552e-13
-6.80432e-13
-6.70924e-13
-6.66517e-13
-6.67243e-13
-6.6179e-13
-6.52517e-13
-6.39535e-13
-6.25322e-13
-6.19004e-13
-6.1508e-13
-6.12556e-13
-6.05148e-13
-5.92449e-13
-5.81579e-13
-5.74287e-13
-5.69032e-13
-5.6047e-13
-5.49552e-13
-5.38473e-13
-5.35852e-13
-5.30579e-13
-5.24128e-13
-5.12553e-13
-4.97069e-13
-4.89607e-13
-4.87121e-13
-4.84531e-13
-4.79167e-13
-4.7517e-13
-4.65131e-13
-4.47263e-13
-4.29907e-13
-4.25634e-13
-4.25437e-13
-4.23332e-13
-4.22982e-13
-4.16997e-13
-4.06609e-13
-3.97565e-13
-3.88395e-13
-3.79067e-13
-3.70258e-13
-3.6262e-13
-3.5436e-13
-3.46717e-13
-3.3962e-13
-3.31195e-13
-3.2336e-13
-3.11004e-13
-3.03693e-13
-3.01219e-13
-2.98981e-13
-2.96042e-13
-2.87947e-13
-2.80867e-13
-2.70947e-13
-2.59428e-13
-2.51435e-13
-2.44164e-13
-2.39768e-13
-2.31311e-13
-2.20676e-13
-2.13462e-13
-2.06094e-13
-1.98585e-13
-1.85331e-13
-1.78129e-13
-1.76676e-13
-1.72537e-13
-1.67869e-13
-1.61364e-13
-1.51761e-13
-1.38317e-13
-1.25892e-13
-1.20165e-13
-1.11612e-13
-1.06894e-13
-1.01584e-13
-9.58686e-14
-8.73623e-14
-7.98716e-14
-7.68125e-14
-7.28179e-14
-6.71442e-14
-6.06508e-14
-5.44027e-14
-5.00033e-14
-4.0823e-14
-3.217e-14
-2.50073e-14
-1.74439e-14
-9.49133e-15
-2.18031e-15
-6.87038e-13
-6.85583e-13
-6.88599e-13
-6.8857e-13
-6.89385e-13
-6.8615e-13
-6.82871e-13
-6.80583e-13
-6.75088e-13
-6.69534e-13
-6.638e-13
-6.58944e-13
-6.50808e-13
-6.39576e-13
-6.28607e-13
-6.22298e-13
-6.17602e-13
-6.11065e-13
-6.02838e-13
-5.9569e-13
-5.8468e-13
-5.72606e-13
-5.65265e-13
-5.57525e-13
-5.47403e-13
-5.41169e-13
-5.37251e-13
-5.31331e-13
-5.22964e-13
-5.0924e-13
-4.99958e-13
-4.9297e-13
-4.86587e-13
-4.81257e-13
-4.76504e-13
-4.71482e-13
-4.63478e-13
-4.50432e-13
-4.365e-13
-4.29579e-13
-4.25381e-13
-4.23039e-13
-4.1993e-13
-4.15283e-13
-4.07726e-13
-3.97626e-13
-3.87134e-13
-3.79012e-13
-3.7023e-13
-3.60274e-13
-3.53248e-13
-3.45802e-13
-3.39888e-13
-3.32576e-13
-3.24723e-13
-3.13624e-13
-3.03339e-13
-2.99398e-13
-2.97206e-13
-2.94511e-13
-2.90117e-13
-2.81e-13
-2.71761e-13
-2.61208e-13
-2.53304e-13
-2.44315e-13
-2.37289e-13
-2.30304e-13
-2.22955e-13
-2.14931e-13
-2.06187e-13
-1.98607e-13
-1.89988e-13
-1.81416e-13
-1.76541e-13
-1.68815e-13
-1.6649e-13
-1.59171e-13
-1.48798e-13
-1.36857e-13
-1.26954e-13
-1.21501e-13
-1.15399e-13
-1.08937e-13
-1.00045e-13
-9.385e-14
-8.53804e-14
-7.78141e-14
-7.51486e-14
-7.14028e-14
-6.84502e-14
-6.32442e-14
-5.8064e-14
-4.79023e-14
-3.93679e-14
-3.28075e-14
-2.44388e-14
-1.75251e-14
-1.08434e-14
-3.9754e-15
-6.86481e-13
-6.8551e-13
-6.87713e-13
-6.90732e-13
-6.91564e-13
-6.87323e-13
-6.81893e-13
-6.79464e-13
-6.73165e-13
-6.69258e-13
-6.64563e-13
-6.58247e-13
-6.50132e-13
-6.40964e-13
-6.30625e-13
-6.23272e-13
-6.16718e-13
-6.09996e-13
-6.03324e-13
-5.94333e-13
-5.83766e-13
-5.74514e-13
-5.66051e-13
-5.58355e-13
-5.4913e-13
-5.43666e-13
-5.38244e-13
-5.29812e-13
-5.20626e-13
-5.07481e-13
-5.00293e-13
-4.93176e-13
-4.86348e-13
-4.83081e-13
-4.78524e-13
-4.72644e-13
-4.62033e-13
-4.51703e-13
-4.40733e-13
-4.29756e-13
-4.24525e-13
-4.19922e-13
-4.19846e-13
-4.15724e-13
-4.08445e-13
-3.9774e-13
-3.85546e-13
-3.76321e-13
-3.71398e-13
-3.66121e-13
-3.54902e-13
-3.46285e-13
-3.37545e-13
-3.2943e-13
-3.22643e-13
-3.14435e-13
-3.03932e-13
-3.01755e-13
-3.0166e-13
-2.96241e-13
-2.87881e-13
-2.76198e-13
-2.68245e-13
-2.62402e-13
-2.55936e-13
-2.47835e-13
-2.39957e-13
-2.29512e-13
-2.21543e-13
-2.11691e-13
-2.03349e-13
-1.96126e-13
-1.86832e-13
-1.80844e-13
-1.76068e-13
-1.70921e-13
-1.65713e-13
-1.59098e-13
-1.48449e-13
-1.37996e-13
-1.31934e-13
-1.23368e-13
-1.11375e-13
-1.05414e-13
-9.98956e-14
-9.62059e-14
-9.00199e-14
-8.14094e-14
-7.50875e-14
-6.94314e-14
-6.59008e-14
-6.29268e-14
-5.63502e-14
-4.85238e-14
-3.88135e-14
-3.04393e-14
-2.51276e-14
-1.84938e-14
-1.44194e-14
-4.60451e-15
-6.87517e-13
-6.88431e-13
-6.89155e-13
-6.85414e-13
-6.89807e-13
-6.84551e-13
-6.82043e-13
-6.79794e-13
-6.77204e-13
-6.71364e-13
-6.62873e-13
-6.53757e-13
-6.46316e-13
-6.41218e-13
-6.39037e-13
-6.28955e-13
-6.14901e-13
-6.06978e-13
-6.02218e-13
-5.9328e-13
-5.84066e-13
-5.76203e-13
-5.66637e-13
-5.52626e-13
-5.44968e-13
-5.41383e-13
-5.37389e-13
-5.31844e-13
-5.20911e-13
-5.11463e-13
-5.04265e-13
-4.95689e-13
-4.87131e-13
-4.81196e-13
-4.74176e-13
-4.72146e-13
-4.62614e-13
-4.50435e-13
-4.41935e-13
-4.3226e-13
-4.2765e-13
-4.24601e-13
-4.19542e-13
-4.12978e-13
-4.03605e-13
-3.94234e-13
-3.85549e-13
-3.79884e-13
-3.72024e-13
-3.60049e-13
-3.5094e-13
-3.45262e-13
-3.39562e-13
-3.33435e-13
-3.22023e-13
-3.15518e-13
-3.06294e-13
-3.01018e-13
-3.00556e-13
-2.9458e-13
-2.863e-13
-2.77911e-13
-2.72362e-13
-2.64878e-13
-2.55569e-13
-2.46653e-13
-2.38814e-13
-2.29579e-13
-2.22035e-13
-2.14147e-13
-2.07027e-13
-1.99344e-13
-1.89869e-13
-1.82212e-13
-1.75606e-13
-1.69498e-13
-1.6571e-13
-1.58567e-13
-1.48352e-13
-1.385e-13
-1.31027e-13
-1.23863e-13
-1.13536e-13
-1.04152e-13
-9.90468e-14
-9.44419e-14
-8.79829e-14
-8.05997e-14
-7.34562e-14
-6.99599e-14
-6.80776e-14
-6.35397e-14
-5.79652e-14
-4.71554e-14
-3.84812e-14
-3.28694e-14
-2.67371e-14
-1.77545e-14
-1.14604e-14
-4.33087e-15
-6.88248e-13
-6.92547e-13
-6.89026e-13
-6.84724e-13
-6.81395e-13
-6.8493e-13
-6.84722e-13
-6.82645e-13
-6.7618e-13
-6.68455e-13
-6.6019e-13
-6.55327e-13
-6.45756e-13
-6.39588e-13
-6.38067e-13
-6.3187e-13
-6.21719e-13
-6.11314e-13
-5.99401e-13
-5.88165e-13
-5.83223e-13
-5.75257e-13
-5.61287e-13
-5.52022e-13
-5.48331e-13
-5.43849e-13
-5.38838e-13
-5.30748e-13
-5.23185e-13
-5.13913e-13
-5.04903e-13
-4.96606e-13
-4.87368e-13
-4.81546e-13
-4.75499e-13
-4.71585e-13
-4.61469e-13
-4.50474e-13
-4.39731e-13
-4.32346e-13
-4.27933e-13
-4.26459e-13
-4.19698e-13
-4.11577e-13
-4.01662e-13
-3.91361e-13
-3.84231e-13
-3.78541e-13
-3.71012e-13
-3.63747e-13
-3.54647e-13
-3.47601e-13
-3.39938e-13
-3.32876e-13
-3.22126e-13
-3.14075e-13
-3.07584e-13
-3.02555e-13
-2.99854e-13
-2.93463e-13
-2.86388e-13
-2.78353e-13
-2.70067e-13
-2.64062e-13
-2.58317e-13
-2.51641e-13
-2.43281e-13
-2.30818e-13
-2.21832e-13
-2.11414e-13
-2.03454e-13
-1.96818e-13
-1.8995e-13
-1.8223e-13
-1.72415e-13
-1.66666e-13
-1.64518e-13
-1.58215e-13
-1.50789e-13
-1.40556e-13
-1.32183e-13
-1.25881e-13
-1.13315e-13
-1.0315e-13
-9.59193e-14
-9.13491e-14
-8.80651e-14
-8.3238e-14
-7.57262e-14
-7.12949e-14
-6.69985e-14
-6.31864e-14
-5.58369e-14
-5.04871e-14
-4.27434e-14
-3.32281e-14
-2.65121e-14
-1.98942e-14
-1.10286e-14
-1.7553e-15
-6.8491e-13
-6.93993e-13
-6.90388e-13
-6.81741e-13
-6.85804e-13
-6.88825e-13
-6.86766e-13
-6.82556e-13
-6.74375e-13
-6.6156e-13
-6.57882e-13
-6.54347e-13
-6.50461e-13
-6.41098e-13
-6.34558e-13
-6.33412e-13
-6.2318e-13
-6.13847e-13
-6.04583e-13
-5.91483e-13
-5.80439e-13
-5.69228e-13
-5.5243e-13
-5.48591e-13
-5.49016e-13
-5.47137e-13
-5.38924e-13
-5.30264e-13
-5.22353e-13
-5.16621e-13
-5.05979e-13
-4.96281e-13
-4.8818e-13
-4.84542e-13
-4.8063e-13
-4.70327e-13
-4.59254e-13
-4.50546e-13
-4.39731e-13
-4.34705e-13
-4.30456e-13
-4.268e-13
-4.1804e-13
-4.11726e-13
-4.01855e-13
-3.89935e-13
-3.81021e-13
-3.75147e-13
-3.71168e-13
-3.636e-13
-3.56271e-13
-3.47069e-13
-3.38785e-13
-3.30395e-13
-3.20796e-13
-3.15517e-13
-3.10207e-13
-3.03604e-13
-2.98407e-13
-2.9404e-13
-2.88658e-13
-2.79332e-13
-2.70711e-13
-2.63878e-13
-2.54957e-13
-2.49727e-13
-2.43778e-13
-2.32081e-13
-2.22853e-13
-2.14563e-13
-2.04995e-13
-1.96991e-13
-1.91263e-13
-1.83857e-13
-1.74166e-13
-1.6913e-13
-1.63308e-13
-1.54964e-13
-1.49997e-13
-1.42707e-13
-1.35023e-13
-1.24986e-13
-1.11048e-13
-1.01205e-13
-9.68657e-14
-9.34705e-14
-8.96944e-14
-8.14038e-14
-7.47338e-14
-7.06375e-14
-6.67176e-14
-6.34095e-14
-5.41615e-14
-4.93808e-14
-4.24766e-14
-3.58848e-14
-2.679e-14
-1.89451e-14
-9.14844e-15
-6.25085e-16
-6.89843e-13
-6.90379e-13
-6.89689e-13
-6.86451e-13
-6.83518e-13
-6.87148e-13
-6.86247e-13
-6.80214e-13
-6.72133e-13
-6.62297e-13
-6.54337e-13
-6.53648e-13
-6.52438e-13
-6.42343e-13
-6.35895e-13
-6.31131e-13
-6.27528e-13
-6.18936e-13
-6.01514e-13
-5.84148e-13
-5.68751e-13
-5.64057e-13
-5.62447e-13
-5.59636e-13
-5.53607e-13
-5.46571e-13
-5.36467e-13
-5.28072e-13
-5.23523e-13
-5.18539e-13
-5.08921e-13
-4.95256e-13
-4.88961e-13
-4.80506e-13
-4.74951e-13
-4.68181e-13
-4.61326e-13
-4.55387e-13
-4.44477e-13
-4.33279e-13
-4.26365e-13
-4.2109e-13
-4.1643e-13
-4.12167e-13
-4.05156e-13
-3.94679e-13
-3.83288e-13
-3.74058e-13
-3.67861e-13
-3.63486e-13
-3.56374e-13
-3.50699e-13
-3.41756e-13
-3.3083e-13
-3.22346e-13
-3.16456e-13
-3.09536e-13
-2.98458e-13
-2.94451e-13
-2.93537e-13
-2.93246e-13
-2.84832e-13
-2.73163e-13
-2.61534e-13
-2.52014e-13
-2.46081e-13
-2.38335e-13
-2.27837e-13
-2.18776e-13
-2.14186e-13
-2.13087e-13
-2.02838e-13
-1.92384e-13
-1.8673e-13
-1.77287e-13
-1.67536e-13
-1.59119e-13
-1.5106e-13
-1.45811e-13
-1.41204e-13
-1.34195e-13
-1.24384e-13
-1.16036e-13
-1.07052e-13
-1.00046e-13
-9.04293e-14
-8.68054e-14
-8.27135e-14
-7.56273e-14
-7.23034e-14
-6.61479e-14
-5.88579e-14
-5.4304e-14
-4.8473e-14
-4.2213e-14
-3.36859e-14
-2.64782e-14
-1.73872e-14
-9.35366e-15
-2.87067e-15
-6.88694e-13
-6.87902e-13
-6.85891e-13
-6.87465e-13
-6.89812e-13
-6.89376e-13
-6.85697e-13
-6.78654e-13
-6.70215e-13
-6.6333e-13
-6.58221e-13
-6.52894e-13
-6.48833e-13
-6.40059e-13
-6.36065e-13
-6.31374e-13
-6.27388e-13
-6.18738e-13
-5.96971e-13
-5.86151e-13
-5.81178e-13
-5.73538e-13
-5.62529e-13
-5.53117e-13
-5.50104e-13
-5.42849e-13
-5.32533e-13
-5.26774e-13
-5.213e-13
-5.15688e-13
-5.09055e-13
-5.0079e-13
-4.94685e-13
-4.87523e-13
-4.75877e-13
-4.67347e-13
-4.59759e-13
-4.50776e-13
-4.42938e-13
-4.33729e-13
-4.27283e-13
-4.23798e-13
-4.17121e-13
-4.15539e-13
-4.10146e-13
-3.95111e-13
-3.79403e-13
-3.66597e-13
-3.66095e-13
-3.64955e-13
-3.60863e-13
-3.54101e-13
-3.41726e-13
-3.30777e-13
-3.1974e-13
-3.13634e-13
-3.10171e-13
-3.04416e-13
-2.96506e-13
-2.91122e-13
-2.89087e-13
-2.81808e-13
-2.74193e-13
-2.65655e-13
-2.57313e-13
-2.48278e-13
-2.39477e-13
-2.29841e-13
-2.23471e-13
-2.16329e-13
-2.08947e-13
-2.02894e-13
-1.91093e-13
-1.78695e-13
-1.71788e-13
-1.67551e-13
-1.62804e-13
-1.5494e-13
-1.50245e-13
-1.44024e-13
-1.3506e-13
-1.24615e-13
-1.12463e-13
-1.01811e-13
-9.38113e-14
-9.00657e-14
-8.77644e-14
-8.4166e-14
-7.73309e-14
-7.07831e-14
-6.38376e-14
-5.8711e-14
-5.446e-14
-4.98171e-14
-4.07949e-14
-3.21049e-14
-2.60645e-14
-1.8883e-14
-1.07733e-14
-1.37993e-15
-6.90853e-13
-6.9205e-13
-6.8734e-13
-6.81846e-13
-6.85145e-13
-6.8764e-13
-6.87362e-13
-6.79411e-13
-6.67796e-13
-6.65001e-13
-6.59048e-13
-6.49616e-13
-6.43177e-13
-6.40225e-13
-6.37893e-13
-6.33831e-13
-6.2724e-13
-6.16503e-13
-6.01152e-13
-5.88096e-13
-5.79737e-13
-5.70969e-13
-5.65968e-13
-5.59178e-13
-5.50455e-13
-5.40255e-13
-5.31608e-13
-5.26765e-13
-5.24619e-13
-5.16402e-13
-5.09901e-13
-5.0202e-13
-4.91364e-13
-4.80726e-13
-4.76083e-13
-4.68586e-13
-4.59281e-13
-4.50491e-13
-4.44593e-13
-4.38398e-13
-4.33345e-13
-4.25886e-13
-4.1393e-13
-4.06831e-13
-4.02873e-13
-3.95909e-13
-3.84526e-13
-3.7536e-13
-3.69224e-13
-3.62762e-13
-3.56563e-13
-3.49756e-13
-3.40422e-13
-3.31995e-13
-3.24016e-13
-3.18914e-13
-3.11411e-13
-3.04648e-13
-2.97163e-13
-2.92278e-13
-2.86222e-13
-2.79252e-13
-2.72846e-13
-2.65154e-13
-2.54552e-13
-2.44433e-13
-2.38391e-13
-2.30815e-13
-2.22827e-13
-2.15491e-13
-2.07449e-13
-2.03303e-13
-1.95194e-13
-1.85021e-13
-1.73625e-13
-1.67729e-13
-1.63762e-13
-1.56429e-13
-1.50669e-13
-1.41754e-13
-1.35203e-13
-1.25397e-13
-1.12889e-13
-1.03311e-13
-9.60244e-14
-9.06731e-14
-8.83982e-14
-8.34189e-14
-7.69372e-14
-7.06122e-14
-6.33148e-14
-5.79548e-14
-5.13535e-14
-4.66806e-14
-4.03184e-14
-3.2613e-14
-2.48651e-14
-1.5389e-14
-7.0841e-15
1.27978e-15
-6.90452e-13
-6.89695e-13
-6.90031e-13
-6.86573e-13
-6.83408e-13
-6.85346e-13
-6.84395e-13
-6.81924e-13
-6.74377e-13
-6.61186e-13
-6.53424e-13
-6.46811e-13
-6.44118e-13
-6.42788e-13
-6.39134e-13
-6.32863e-13
-6.23521e-13
-6.17357e-13
-6.08567e-13
-5.9296e-13
-5.79699e-13
-5.66899e-13
-5.61492e-13
-5.54819e-13
-5.51393e-13
-5.45072e-13
-5.3542e-13
-5.29261e-13
-5.23109e-13
-5.16808e-13
-5.10492e-13
-5.01762e-13
-4.91773e-13
-4.80297e-13
-4.73177e-13
-4.67005e-13
-4.61826e-13
-4.51456e-13
-4.45806e-13
-4.39399e-13
-4.29532e-13
-4.20122e-13
-4.12988e-13
-4.07086e-13
-4.05424e-13
-4.00518e-13
-3.89033e-13
-3.77421e-13
-3.69561e-13
-3.60625e-13
-3.53847e-13
-3.49399e-13
-3.41829e-13
-3.33059e-13
-3.24547e-13
-3.17326e-13
-3.10824e-13
-3.03829e-13
-2.97171e-13
-2.94121e-13
-2.89753e-13
-2.8551e-13
-2.78641e-13
-2.65727e-13
-2.51511e-13
-2.37616e-13
-2.30597e-13
-2.2586e-13
-2.22083e-13
-2.21527e-13
-2.15219e-13
-2.05321e-13
-1.97766e-13
-1.87114e-13
-1.74438e-13
-1.65105e-13
-1.60719e-13
-1.54601e-13
-1.50071e-13
-1.41103e-13
-1.34189e-13
-1.25669e-13
-1.14886e-13
-1.06835e-13
-9.75216e-14
-8.93269e-14
-8.52676e-14
-8.00494e-14
-7.59728e-14
-7.03822e-14
-6.18908e-14
-5.35623e-14
-4.80538e-14
-4.39553e-14
-3.62929e-14
-2.84468e-14
-2.08165e-14
-1.37393e-14
-5.09137e-15
4.59803e-16
-6.88596e-13
-6.87804e-13
-6.86805e-13
-6.8831e-13
-6.88665e-13
-6.83132e-13
-6.81229e-13
-6.78149e-13
-6.72555e-13
-6.6626e-13
-6.5431e-13
-6.45437e-13
-6.4435e-13
-6.4485e-13
-6.39777e-13
-6.35249e-13
-6.22961e-13
-6.15418e-13
-6.07698e-13
-5.93982e-13
-5.8361e-13
-5.68107e-13
-5.58134e-13
-5.53463e-13
-5.47861e-13
-5.42616e-13
-5.37856e-13
-5.31054e-13
-5.2483e-13
-5.18475e-13
-5.09827e-13
-5.00595e-13
-4.90536e-13
-4.82138e-13
-4.7712e-13
-4.68938e-13
-4.6005e-13
-4.51642e-13
-4.4677e-13
-4.37484e-13
-4.29618e-13
-4.20071e-13
-4.13616e-13
-4.11016e-13
-4.079e-13
-3.98981e-13
-3.86361e-13
-3.73593e-13
-3.66557e-13
-3.5926e-13
-3.56569e-13
-3.51495e-13
-3.41281e-13
-3.32562e-13
-3.23614e-13
-3.20614e-13
-3.13761e-13
-3.06215e-13
-2.96675e-13
-2.88187e-13
-2.85925e-13
-2.78176e-13
-2.7326e-13
-2.68359e-13
-2.54704e-13
-2.40731e-13
-2.31186e-13
-2.24946e-13
-2.22617e-13
-2.24259e-13
-2.15871e-13
-2.07945e-13
-1.98407e-13
-1.86496e-13
-1.72506e-13
-1.61493e-13
-1.60303e-13
-1.57575e-13
-1.53447e-13
-1.44663e-13
-1.379e-13
-1.29164e-13
-1.14573e-13
-1.03458e-13
-9.30145e-14
-8.3789e-14
-8.58233e-14
-8.38782e-14
-7.60711e-14
-6.90261e-14
-5.9787e-14
-5.3471e-14
-4.74722e-14
-4.19395e-14
-3.79532e-14
-3.14718e-14
-1.74685e-14
-5.25392e-15
2.41223e-15
-6.62179e-16
-6.91264e-13
-6.89355e-13
-6.87207e-13
-6.88532e-13
-6.87404e-13
-6.8227e-13
-6.82607e-13
-6.79149e-13
-6.72215e-13
-6.63906e-13
-6.55584e-13
-6.48356e-13
-6.40677e-13
-6.3803e-13
-6.35346e-13
-6.3001e-13
-6.26085e-13
-6.20581e-13
-6.09906e-13
-5.95272e-13
-5.82764e-13
-5.74737e-13
-5.64339e-13
-5.5464e-13
-5.48168e-13
-5.37176e-13
-5.33697e-13
-5.30637e-13
-5.26274e-13
-5.20663e-13
-5.11967e-13
-5.01334e-13
-4.89492e-13
-4.79509e-13
-4.74058e-13
-4.66936e-13
-4.61851e-13
-4.54474e-13
-4.48782e-13
-4.36417e-13
-4.28291e-13
-4.17305e-13
-4.13237e-13
-4.13132e-13
-4.06356e-13
-3.98517e-13
-3.87199e-13
-3.76785e-13
-3.67627e-13
-3.59003e-13
-3.53127e-13
-3.49716e-13
-3.4155e-13
-3.35588e-13
-3.28452e-13
-3.19444e-13
-3.12323e-13
-3.04452e-13
-2.96343e-13
-2.90505e-13
-2.88181e-13
-2.88019e-13
-2.77801e-13
-2.65469e-13
-2.47314e-13
-2.37792e-13
-2.31232e-13
-2.27398e-13
-2.22284e-13
-2.1934e-13
-2.13122e-13
-2.11341e-13
-2.04835e-13
-1.91736e-13
-1.71593e-13
-1.55473e-13
-1.53643e-13
-1.5821e-13
-1.54916e-13
-1.44634e-13
-1.36654e-13
-1.26417e-13
-1.16258e-13
-1.07556e-13
-9.70465e-14
-8.66037e-14
-8.06625e-14
-7.99038e-14
-7.45437e-14
-6.75775e-14
-5.77475e-14
-5.26601e-14
-4.71582e-14
-4.05064e-14
-3.35306e-14
-2.78283e-14
-1.62589e-14
-6.48251e-15
-7.93927e-16
-5.88502e-16
-6.89055e-13
-6.88426e-13
-6.80811e-13
-6.89611e-13
-6.89348e-13
-6.86384e-13
-6.7999e-13
-6.7348e-13
-6.67521e-13
-6.5919e-13
-6.54906e-13
-6.50195e-13
-6.48939e-13
-6.42952e-13
-6.37064e-13
-6.33289e-13
-6.2838e-13
-6.21678e-13
-6.10535e-13
-5.95843e-13
-5.77176e-13
-5.63468e-13
-5.55121e-13
-5.52916e-13
-5.47854e-13
-5.42813e-13
-5.36374e-13
-5.30034e-13
-5.26804e-13
-5.23136e-13
-5.14866e-13
-5.01916e-13
-4.91859e-13
-4.83689e-13
-4.79097e-13
-4.68873e-13
-4.58742e-13
-4.53259e-13
-4.46661e-13
-4.36276e-13
-4.2651e-13
-4.2229e-13
-4.17557e-13
-4.11448e-13
-4.01075e-13
-3.91758e-13
-3.84859e-13
-3.77096e-13
-3.69514e-13
-3.62716e-13
-3.56161e-13
-3.50327e-13
-3.3949e-13
-3.29913e-13
-3.31121e-13
-3.30394e-13
-3.15639e-13
-3.00763e-13
-2.91642e-13
-2.84516e-13
-2.82328e-13
-2.79581e-13
-2.78628e-13
-2.68912e-13
-2.52348e-13
-2.43193e-13
-2.30114e-13
-2.28098e-13
-2.22474e-13
-2.17069e-13
-2.12559e-13
-2.11642e-13
-2.05342e-13
-1.89853e-13
-1.73421e-13
-1.59892e-13
-1.56121e-13
-1.58893e-13
-1.51279e-13
-1.4151e-13
-1.34974e-13
-1.27277e-13
-1.19062e-13
-1.08801e-13
-9.82453e-14
-8.62469e-14
-8.01947e-14
-7.96399e-14
-7.27867e-14
-6.54805e-14
-5.77499e-14
-5.14334e-14
-4.4259e-14
-3.8876e-14
-3.40069e-14
-2.64051e-14
-1.64178e-14
-7.88037e-15
9.21177e-17
1.11173e-15
-6.85615e-13
-6.95088e-13
-6.89502e-13
-6.84761e-13
-6.85425e-13
-6.84235e-13
-6.79519e-13
-6.786e-13
-6.68702e-13
-6.55331e-13
-6.50981e-13
-6.4983e-13
-6.47321e-13
-6.44444e-13
-6.40071e-13
-6.30904e-13
-6.20466e-13
-6.13137e-13
-6.07414e-13
-5.9796e-13
-5.90462e-13
-5.8209e-13
-5.70283e-13
-5.53215e-13
-5.39316e-13
-5.32726e-13
-5.34661e-13
-5.31831e-13
-5.27909e-13
-5.24697e-13
-5.15433e-13
-5.033e-13
-4.88362e-13
-4.76201e-13
-4.70207e-13
-4.65395e-13
-4.64936e-13
-4.59443e-13
-4.47449e-13
-4.40528e-13
-4.28825e-13
-4.18827e-13
-4.16074e-13
-4.09135e-13
-4.0016e-13
-3.91374e-13
-3.82042e-13
-3.77176e-13
-3.72559e-13
-3.65048e-13
-3.57236e-13
-3.48171e-13
-3.41305e-13
-3.34081e-13
-3.29296e-13
-3.23603e-13
-3.1763e-13
-3.09748e-13
-3.01287e-13
-2.90041e-13
-2.81172e-13
-2.74731e-13
-2.69401e-13
-2.63895e-13
-2.54045e-13
-2.45611e-13
-2.36257e-13
-2.29228e-13
-2.22975e-13
-2.18834e-13
-2.15103e-13
-2.06985e-13
-1.99172e-13
-1.90322e-13
-1.76106e-13
-1.65067e-13
-1.5639e-13
-1.53834e-13
-1.50601e-13
-1.42437e-13
-1.35899e-13
-1.25307e-13
-1.17244e-13
-1.07459e-13
-9.66898e-14
-8.75207e-14
-8.26613e-14
-7.8003e-14
-7.35121e-14
-6.50573e-14
-5.80548e-14
-5.40702e-14
-4.6699e-14
-3.84932e-14
-2.95135e-14
-2.147e-14
-1.5019e-14
-9.34245e-15
-2.4327e-15
6.22632e-16
-6.84608e-13
-6.89048e-13
-6.90506e-13
-6.86076e-13
-6.85526e-13
-6.86801e-13
-6.76656e-13
-6.66063e-13
-6.61488e-13
-6.59479e-13
-6.57149e-13
-6.53952e-13
-6.50934e-13
-6.45875e-13
-6.40579e-13
-6.32e-13
-6.25211e-13
-6.21441e-13
-6.12457e-13
-5.97601e-13
-5.7881e-13
-5.64797e-13
-5.56269e-13
-5.47253e-13
-5.46657e-13
-5.44578e-13
-5.39246e-13
-5.31016e-13
-5.25964e-13
-5.24152e-13
-5.1761e-13
-5.06678e-13
-4.93505e-13
-4.76482e-13
-4.66088e-13
-4.65653e-13
-4.66032e-13
-4.6072e-13
-4.53053e-13
-4.41404e-13
-4.26928e-13
-4.17206e-13
-4.09125e-13
-4.04898e-13
-4.00029e-13
-3.93893e-13
-3.86756e-13
-3.78257e-13
-3.72322e-13
-3.71824e-13
-3.63669e-13
-3.4657e-13
-3.36623e-13
-3.29278e-13
-3.2398e-13
-3.22007e-13
-3.18015e-13
-3.08732e-13
-2.96616e-13
-2.87823e-13
-2.8424e-13
-2.79824e-13
-2.72841e-13
-2.63797e-13
-2.49845e-13
-2.39806e-13
-2.34517e-13
-2.31833e-13
-2.26342e-13
-2.18636e-13
-2.12046e-13
-2.06869e-13
-1.99396e-13
-1.88766e-13
-1.77248e-13
-1.61835e-13
-1.5466e-13
-1.52983e-13
-1.52938e-13
-1.47798e-13
-1.39047e-13
-1.2849e-13
-1.16788e-13
-1.04702e-13
-9.53672e-14
-8.77991e-14
-8.2793e-14
-7.66785e-14
-7.09506e-14
-6.41628e-14
-5.81721e-14
-5.28041e-14
-4.69324e-14
-3.86016e-14
-2.88749e-14
-1.91223e-14
-1.15644e-14
-6.5549e-15
-7.672e-16
6.1445e-17
-6.83155e-13
-6.91448e-13
-6.9179e-13
-6.87407e-13
-6.84219e-13
-6.89353e-13
-6.86008e-13
-6.72353e-13
-6.54879e-13
-6.51461e-13
-6.50788e-13
-6.52364e-13
-6.51396e-13
-6.48962e-13
-6.43504e-13
-6.33091e-13
-6.2344e-13
-6.16063e-13
-6.03731e-13
-5.94662e-13
-5.86531e-13
-5.73034e-13
-5.6118e-13
-5.4773e-13
-5.46271e-13
-5.44027e-13
-5.41219e-13
-5.35479e-13
-5.27061e-13
-5.22989e-13
-5.1436e-13
-5.02378e-13
-4.92445e-13
-4.77173e-13
-4.64779e-13
-4.6317e-13
-4.64327e-13
-4.61471e-13
-4.52643e-13
-4.4219e-13
-4.25322e-13
-4.15641e-13
-4.12735e-13
-4.07722e-13
-4.0019e-13
-3.92648e-13
-3.89203e-13
-3.82495e-13
-3.72796e-13
-3.6218e-13
-3.54922e-13
-3.4906e-13
-3.40652e-13
-3.2785e-13
-3.28473e-13
-3.25464e-13
-3.17033e-13
-3.10809e-13
-3.03629e-13
-2.89971e-13
-2.82527e-13
-2.76738e-13
-2.68081e-13
-2.60486e-13
-2.49903e-13
-2.4197e-13
-2.32578e-13
-2.29264e-13
-2.22997e-13
-2.21638e-13
-2.14439e-13
-2.09728e-13
-2.02798e-13
-1.88723e-13
-1.74133e-13
-1.62065e-13
-1.57813e-13
-1.53906e-13
-1.49339e-13
-1.43894e-13
-1.37969e-13
-1.2901e-13
-1.17376e-13
-1.05227e-13
-9.84234e-14
-9.04406e-14
-8.31009e-14
-7.67535e-14
-7.11352e-14
-6.26951e-14
-5.61122e-14
-5.05295e-14
-4.31057e-14
-3.49267e-14
-2.82215e-14
-2.2985e-14
-1.02889e-14
-3.24444e-15
2.06963e-15
8.96707e-16
-6.89636e-13
-6.88908e-13
-6.8492e-13
-6.81009e-13
-6.82999e-13
-6.7762e-13
-6.73796e-13
-6.75004e-13
-6.71395e-13
-6.64225e-13
-6.59454e-13
-6.51172e-13
-6.45419e-13
-6.44199e-13
-6.4181e-13
-6.3507e-13
-6.26328e-13
-6.2262e-13
-6.11174e-13
-5.94439e-13
-5.75103e-13
-5.62904e-13
-5.56892e-13
-5.54932e-13
-5.47781e-13
-5.45448e-13
-5.41141e-13
-5.33923e-13
-5.27662e-13
-5.21824e-13
-5.14339e-13
-5.01715e-13
-4.897e-13
-4.77012e-13
-4.68137e-13
-4.6621e-13
-4.68331e-13
-4.61492e-13
-4.51197e-13
-4.40806e-13
-4.26286e-13
-4.13628e-13
-4.10944e-13
-4.07982e-13
-4.04036e-13
-3.93482e-13
-3.84244e-13
-3.80932e-13
-3.76218e-13
-3.65106e-13
-3.54287e-13
-3.4911e-13
-3.4249e-13
-3.31221e-13
-3.23677e-13
-3.20651e-13
-3.14641e-13
-3.09874e-13
-3.04526e-13
-2.95447e-13
-2.84732e-13
-2.771e-13
-2.67592e-13
-2.6009e-13
-2.53235e-13
-2.43204e-13
-2.32981e-13
-2.24099e-13
-2.20289e-13
-2.21993e-13
-2.13396e-13
-2.0798e-13
-2.01208e-13
-1.89409e-13
-1.7793e-13
-1.65532e-13
-1.54603e-13
-1.49215e-13
-1.48762e-13
-1.48944e-13
-1.42274e-13
-1.27548e-13
-1.16073e-13
-1.03072e-13
-9.83145e-14
-9.27684e-14
-8.55216e-14
-7.5384e-14
-6.66382e-14
-6.1493e-14
-5.60922e-14
-4.96584e-14
-4.44967e-14
-3.66463e-14
-2.73105e-14
-1.86266e-14
-1.07387e-14
-4.52255e-15
1.81864e-15
2.3617e-15
-6.88951e-13
-6.87847e-13
-6.85057e-13
-6.82472e-13
-6.88804e-13
-6.86175e-13
-6.74172e-13
-6.67742e-13
-6.63536e-13
-6.60933e-13
-6.59951e-13
-6.58496e-13
-6.47345e-13
-6.3972e-13
-6.37067e-13
-6.32307e-13
-6.28197e-13
-6.20773e-13
-6.08595e-13
-5.92237e-13
-5.78375e-13
-5.64531e-13
-5.55246e-13
-5.55201e-13
-5.54708e-13
-5.45468e-13
-5.37854e-13
-5.3422e-13
-5.31454e-13
-5.24503e-13
-5.16562e-13
-5.03133e-13
-4.89278e-13
-4.76081e-13
-4.64929e-13
-4.64595e-13
-4.62654e-13
-4.60119e-13
-4.55177e-13
-4.44372e-13
-4.29401e-13
-4.18056e-13
-4.11183e-13
-4.02388e-13
-4.00489e-13
-3.9468e-13
-3.8717e-13
-3.77905e-13
-3.71616e-13
-3.65374e-13
-3.55172e-13
-3.49229e-13
-3.42213e-13
-3.32578e-13
-3.29818e-13
-3.24978e-13
-3.13088e-13
-3.03947e-13
-3.00591e-13
-2.93065e-13
-2.86646e-13
-2.76803e-13
-2.69109e-13
-2.62042e-13
-2.53019e-13
-2.41577e-13
-2.34837e-13
-2.2463e-13
-2.16975e-13
-2.154e-13
-2.1293e-13
-2.08938e-13
-2.0287e-13
-1.89743e-13
-1.76926e-13
-1.65984e-13
-1.58148e-13
-1.51207e-13
-1.50999e-13
-1.47365e-13
-1.39575e-13
-1.28919e-13
-1.17465e-13
-1.05299e-13
-9.69331e-14
-8.78979e-14
-8.11567e-14
-7.71514e-14
-7.12268e-14
-6.1722e-14
-5.51239e-14
-4.82566e-14
-4.13913e-14
-3.39762e-14
-2.57201e-14
-2.00808e-14
-1.23926e-14
-2.88277e-15
2.30381e-15
5.00684e-16
-6.83936e-13
-6.86555e-13
-6.86629e-13
-6.85159e-13
-6.83636e-13
-6.77819e-13
-6.73548e-13
-6.70433e-13
-6.69523e-13
-6.66133e-13
-6.61297e-13
-6.57077e-13
-6.50231e-13
-6.41715e-13
-6.3584e-13
-6.28937e-13
-6.26072e-13
-6.19104e-13
-6.06655e-13
-5.94594e-13
-5.78806e-13
-5.65664e-13
-5.6041e-13
-5.55987e-13
-5.47546e-13
-5.43259e-13
-5.41884e-13
-5.38205e-13
-5.30777e-13
-5.20397e-13
-5.11843e-13
-5.0192e-13
-4.88919e-13
-4.77071e-13
-4.67837e-13
-4.69843e-13
-4.69854e-13
-4.6182e-13
-4.50568e-13
-4.37163e-13
-4.26597e-13
-4.20973e-13
-4.12692e-13
-4.02871e-13
-3.97759e-13
-3.91156e-13
-3.89442e-13
-3.87682e-13
-3.75808e-13
-3.61963e-13
-3.52711e-13
-3.5036e-13
-3.42963e-13
-3.31947e-13
-3.27952e-13
-3.24079e-13
-3.16603e-13
-3.06602e-13
-2.98692e-13
-2.91553e-13
-2.88821e-13
-2.80038e-13
-2.701e-13
-2.61017e-13
-2.49381e-13
-2.41011e-13
-2.32234e-13
-2.26022e-13
-2.18292e-13
-2.13575e-13
-2.09007e-13
-2.0902e-13
-2.03836e-13
-1.89915e-13
-1.77061e-13
-1.66111e-13
-1.60185e-13
-1.5434e-13
-1.46605e-13
-1.38701e-13
-1.41516e-13
-1.35488e-13
-1.18898e-13
-1.06421e-13
-9.67323e-14
-8.61327e-14
-7.90708e-14
-7.6409e-14
-7.07817e-14
-6.1869e-14
-5.41179e-14
-4.87369e-14
-4.1985e-14
-3.27794e-14
-2.79728e-14
-1.86506e-14
-9.36375e-15
-1.52939e-15
3.13611e-15
4.91558e-17
-6.90697e-13
-6.87753e-13
-6.85366e-13
-6.82556e-13
-6.77966e-13
-6.75681e-13
-6.72875e-13
-6.73003e-13
-6.70948e-13
-6.66912e-13
-6.60466e-13
-6.56338e-13
-6.50781e-13
-6.44963e-13
-6.37639e-13
-6.27572e-13
-6.17593e-13
-6.11465e-13
-6.06535e-13
-5.9883e-13
-5.81606e-13
-5.6966e-13
-5.60883e-13
-5.53596e-13
-5.49498e-13
-5.45546e-13
-5.42648e-13
-5.3903e-13
-5.2902e-13
-5.23024e-13
-5.1319e-13
-5.01251e-13
-4.87277e-13
-4.74945e-13
-4.70259e-13
-4.69653e-13
-4.66732e-13
-4.60247e-13
-4.50079e-13
-4.38801e-13
-4.27126e-13
-4.18207e-13
-4.13496e-13
-4.07457e-13
-4.02221e-13
-3.95518e-13
-3.85742e-13
-3.78895e-13
-3.74425e-13
-3.66044e-13
-3.59585e-13
-3.50284e-13
-3.4112e-13
-3.33041e-13
-3.26788e-13
-3.19186e-13
-3.15238e-13
-3.08471e-13
-2.98779e-13
-2.92233e-13
-2.89626e-13
-2.8248e-13
-2.71139e-13
-2.59273e-13
-2.50378e-13
-2.41413e-13
-2.31924e-13
-2.24452e-13
-2.18255e-13
-2.1377e-13
-2.11075e-13
-2.098e-13
-2.02711e-13
-1.87221e-13
-1.75946e-13
-1.66177e-13
-1.596e-13
-1.53427e-13
-1.49587e-13
-1.44828e-13
-1.38145e-13
-1.29909e-13
-1.19826e-13
-1.09367e-13
-1.01567e-13
-8.70001e-14
-7.81929e-14
-7.33327e-14
-7.00784e-14
-5.8935e-14
-5.15342e-14
-4.79178e-14
-4.58975e-14
-3.42338e-14
-2.36051e-14
-1.76202e-14
-1.06459e-14
6.06379e-16
1.7958e-15
-1.03778e-15
-6.93107e-13
-6.86906e-13
-6.81258e-13
-6.81599e-13
-6.74315e-13
-6.75517e-13
-6.73241e-13
-6.74333e-13
-6.74145e-13
-6.6524e-13
-6.59613e-13
-6.57224e-13
-6.55443e-13
-6.46672e-13
-6.3782e-13
-6.30556e-13
-6.22329e-13
-6.11592e-13
-6.05092e-13
-5.92303e-13
-5.81726e-13
-5.69743e-13
-5.58101e-13
-5.51888e-13
-5.48192e-13
-5.4911e-13
-5.43548e-13
-5.37807e-13
-5.29304e-13
-5.21742e-13
-5.13619e-13
-5.03317e-13
-4.87753e-13
-4.77289e-13
-4.68771e-13
-4.65658e-13
-4.65428e-13
-4.60722e-13
-4.50687e-13
-4.39269e-13
-4.30473e-13
-4.21162e-13
-4.12751e-13
-4.06315e-13
-4.00371e-13
-3.93795e-13
-3.8609e-13
-3.81276e-13
-3.76669e-13
-3.67008e-13
-3.56553e-13
-3.4642e-13
-3.40654e-13
-3.35483e-13
-3.29982e-13
-3.23744e-13
-3.16462e-13
-3.07094e-13
-3.0104e-13
-2.96361e-13
-2.91152e-13
-2.81399e-13
-2.67505e-13
-2.57664e-13
-2.4863e-13
-2.39732e-13
-2.30273e-13
-2.25302e-13
-2.18173e-13
-2.17284e-13
-2.12177e-13
-2.06012e-13
-1.9651e-13
-1.84863e-13
-1.74598e-13
-1.64493e-13
-1.63177e-13
-1.60492e-13
-1.50973e-13
-1.41917e-13
-1.35228e-13
-1.27765e-13
-1.18752e-13
-1.08193e-13
-9.65166e-14
-8.4341e-14
-7.9507e-14
-7.57515e-14
-6.89736e-14
-6.435e-14
-5.87513e-14
-4.80125e-14
-3.89917e-14
-3.21705e-14
-2.3674e-14
-1.50708e-14
-8.58721e-15
-4.89619e-15
-1.40695e-15
-1.26422e-15
-6.90901e-13
-6.85261e-13
-6.83342e-13
-6.81288e-13
-6.78458e-13
-6.752e-13
-6.70418e-13
-6.73261e-13
-6.73384e-13
-6.68956e-13
-6.62883e-13
-6.56531e-13
-6.54377e-13
-6.45192e-13
-6.34869e-13
-6.25234e-13
-6.16341e-13
-6.12081e-13
-6.05945e-13
-5.95037e-13
-5.83145e-13
-5.7128e-13
-5.60531e-13
-5.55576e-13
-5.5356e-13
-5.46993e-13
-5.40178e-13
-5.32103e-13
-5.25148e-13
-5.22027e-13
-5.14789e-13
-5.07731e-13
-4.95881e-13
-4.84224e-13
-4.67147e-13
-4.62109e-13
-4.60791e-13
-4.57126e-13
-4.50001e-13
-4.393e-13
-4.32331e-13
-4.21541e-13
-4.15353e-13
-4.04968e-13
-4.00842e-13
-3.95021e-13
-3.907e-13
-3.82901e-13
-3.73043e-13
-3.60124e-13
-3.55548e-13
-3.51732e-13
-3.44573e-13
-3.31983e-13
-3.25122e-13
-3.18847e-13
-3.11563e-13
-3.0985e-13
-3.02274e-13
-3.00461e-13
-3.001e-13
-2.78785e-13
-2.65615e-13
-2.59533e-13
-2.51445e-13
-2.42433e-13
-2.32764e-13
-2.26033e-13
-2.15575e-13
-2.11633e-13
-2.07596e-13
-2.08926e-13
-2.01354e-13
-1.88469e-13
-1.7244e-13
-1.60419e-13
-1.62693e-13
-1.59021e-13
-1.50752e-13
-1.44764e-13
-1.37426e-13
-1.28234e-13
-1.17278e-13
-1.0652e-13
-9.73234e-14
-8.57829e-14
-7.86962e-14
-7.60039e-14
-7.01629e-14
-6.01623e-14
-5.27788e-14
-4.76418e-14
-3.96293e-14
-3.16579e-14
-2.74574e-14
-2.13005e-14
-8.86045e-15
-1.61644e-15
3.39073e-15
1.30397e-17
-6.8543e-13
-6.87508e-13
-6.87182e-13
-6.8113e-13
-6.75944e-13
-6.76369e-13
-6.74675e-13
-6.70954e-13
-6.71371e-13
-6.67805e-13
-6.64532e-13
-6.60196e-13
-6.52762e-13
-6.43782e-13
-6.35782e-13
-6.28765e-13
-6.23875e-13
-6.19206e-13
-6.08354e-13
-5.92695e-13
-5.74884e-13
-5.61424e-13
-5.57525e-13
-5.57659e-13
-5.54406e-13
-5.46379e-13
-5.37231e-13
-5.32415e-13
-5.25263e-13
-5.23178e-13
-5.18884e-13
-5.04239e-13
-4.90882e-13
-4.81948e-13
-4.7343e-13
-4.68131e-13
-4.63198e-13
-4.55946e-13
-4.48972e-13
-4.4052e-13
-4.30925e-13
-4.21049e-13
-4.1235e-13
-4.07555e-13
-4.05943e-13
-3.96608e-13
-3.88539e-13
-3.76784e-13
-3.74121e-13
-3.66779e-13
-3.55181e-13
-3.50331e-13
-3.43908e-13
-3.3553e-13
-3.2835e-13
-3.15513e-13
-3.04376e-13
-3.07739e-13
-3.10929e-13
-3.0224e-13
-2.92227e-13
-2.80972e-13
-2.69255e-13
-2.6169e-13