/*--------------------------------*- C++ -*----------------------------------*\
| =========                 |                                                 |
| \\      /  F ield         | OpenFOAM: The Open Source CFD Toolbox           |
|  \\    /   O peration     | Version:  v2012                                 |
|   \\  /    A nd           | Website:  www.openfoam.com                      |
|    \\/     M anipulation  |                                                 |
\*---------------------------------------------------------------------------*/
FoamFile
{
    version     2.0;
    format      ascii;
    class       volScalarField;
    location    "0";
    object      pRec;
}
// * * * * * * * * * * * * * * * * * * * * * * * * * * * * * * * * * * * * * //

dimensions      [0 2 -2 0 0 0 0];


internalField   nonuniform List<scalar> 
4000
(
-6.92975e-13
-6.87222e-13
-6.88471e-13
-6.91433e-13
-6.89227e-13
-6.90148e-13
-6.88487e-13
-6.83195e-13
-6.72923e-13
-6.68766e-13
-6.69798e-13
-6.64193e-13
-6.53714e-13
-6.39634e-13
-6.25501e-13
-6.19098e-13
-6.14767e-13
-6.12057e-13
-6.04407e-13
-5.90892e-13
-5.79889e-13
-5.72654e-13
-5.67365e-13
-5.59573e-13
-5.48655e-13
-5.37606e-13
-5.35618e-13
-5.30167e-13
-5.23772e-13
-5.12369e-13
-4.96245e-13
-4.89141e-13
-4.8729e-13
-4.85389e-13
-4.80528e-13
-4.77507e-13
-4.67935e-13
-4.49211e-13
-4.31529e-13
-4.27802e-13
-4.28525e-13
-4.27139e-13
-4.27494e-13
-4.21436e-13
-4.10473e-13
-4.01534e-13
-3.92704e-13
-3.83436e-13
-3.74429e-13
-3.66936e-13
-3.58483e-13
-3.50641e-13
-3.43495e-13
-3.34934e-13
-3.26958e-13
-3.14399e-13
-3.07452e-13
-3.04867e-13
-3.02671e-13
-2.99951e-13
-2.91982e-13
-2.84945e-13
-2.749e-13
-2.62968e-13
-2.54918e-13
-2.47795e-13
-2.43516e-13
-2.35263e-13
-2.24478e-13
-2.17053e-13
-2.09708e-13
-2.02692e-13
-1.89534e-13
-1.82494e-13
-1.81356e-13
-1.77199e-13
-1.73355e-13
-1.66982e-13
-1.57697e-13
-1.44392e-13
-1.31691e-13
-1.25873e-13
-1.17244e-13
-1.12905e-13
-1.08238e-13
-1.02507e-13
-9.31864e-14
-8.52391e-14
-8.19285e-14
-7.78918e-14
-7.18402e-14
-6.53375e-14
-5.85102e-14
-5.32651e-14
-4.40226e-14
-3.49621e-14
-2.71739e-14
-1.92985e-14
-1.07452e-14
-2.58735e-15
-6.8944e-13
-6.881e-13
-6.91286e-13
-6.91236e-13
-6.92e-13
-6.88695e-13
-6.85499e-13
-6.83099e-13
-6.77502e-13
-6.72179e-13
-6.66199e-13
-6.60846e-13
-6.51837e-13
-6.4014e-13
-6.28984e-13
-6.22385e-13
-6.17479e-13
-6.10545e-13
-6.01593e-13
-5.94222e-13
-5.8343e-13
-5.71158e-13
-5.63456e-13
-5.5628e-13
-5.46424e-13
-5.40303e-13
-5.36916e-13
-5.31007e-13
-5.22505e-13
-5.08715e-13
-4.99427e-13
-4.92668e-13
-4.86672e-13
-4.82039e-13
-4.77863e-13
-4.73641e-13
-4.65995e-13
-4.52854e-13
-4.38528e-13
-4.32107e-13
-4.28439e-13
-4.26547e-13
-4.24152e-13
-4.19471e-13
-4.11917e-13
-4.01716e-13
-3.91304e-13
-3.83367e-13
-3.74573e-13
-3.64464e-13
-3.57359e-13
-3.49689e-13
-3.43567e-13
-3.36187e-13
-3.2827e-13
-3.17181e-13
-3.0719e-13
-3.03e-13
-3.00896e-13
-2.98487e-13
-2.94262e-13
-2.85022e-13
-2.75915e-13
-2.6479e-13
-2.56723e-13
-2.47709e-13
-2.40954e-13
-2.34329e-13
-2.26751e-13
-2.18572e-13
-2.0994e-13
-2.02744e-13
-1.94539e-13
-1.85754e-13
-1.8114e-13
-1.73592e-13
-1.71929e-13
-1.64701e-13
-1.54673e-13
-1.42638e-13
-1.32699e-13
-1.27345e-13
-1.21283e-13
-1.15245e-13
-1.0636e-13
-1.00193e-13
-9.12387e-14
-8.3147e-14
-8.0179e-14
-7.6446e-14
-7.33708e-14
-6.79526e-14
-6.23153e-14
-5.1246e-14
-4.25166e-14
-3.56944e-14
-2.67246e-14
-1.94126e-14
-1.23107e-14
-4.43466e-15
-6.88992e-13
-6.88002e-13
-6.90201e-13
-6.93443e-13
-6.94449e-13
-6.8997e-13
-6.84579e-13
-6.81905e-13
-6.75664e-13
-6.71806e-13
-6.66815e-13
-6.60181e-13
-6.51357e-13
-6.41496e-13
-6.30924e-13
-6.23145e-13
-6.16798e-13
-6.09698e-13
-6.02072e-13
-5.93052e-13
-5.82328e-13
-5.72928e-13
-5.64323e-13
-5.57132e-13
-5.48353e-13
-5.42797e-13
-5.37861e-13
-5.29716e-13
-5.20105e-13
-5.06745e-13
-4.99888e-13
-4.92975e-13
-4.86643e-13
-4.83765e-13
-4.79795e-13
-4.74817e-13
-4.64632e-13
-4.54448e-13
-4.43325e-13
-4.32272e-13
-4.27526e-13
-4.2318e-13
-4.23718e-13
-4.20028e-13
-4.1295e-13
-4.0202e-13
-3.8991e-13
-3.80516e-13
-3.75457e-13
-3.70506e-13
-3.593e-13
-3.50085e-13
-3.41219e-13
-3.32978e-13
-3.2624e-13
-3.18107e-13
-3.07572e-13
-3.05386e-13
-3.05691e-13
-3.00121e-13
-2.91929e-13
-2.79929e-13
-2.71802e-13
-2.66118e-13
-2.59574e-13
-2.51431e-13
-2.43828e-13
-2.33319e-13
-2.25335e-13
-2.15322e-13
-2.06893e-13
-2.00095e-13
-1.91027e-13
-1.85149e-13
-1.80743e-13
-1.76072e-13
-1.70867e-13
-1.64689e-13
-1.54154e-13
-1.43597e-13
-1.3798e-13
-1.29389e-13
-1.17219e-13
-1.11488e-13
-1.06038e-13
-1.02539e-13
-9.61505e-14
-8.67673e-14
-8.01042e-14
-7.43709e-14
-7.0799e-14
-6.74684e-14
-6.04885e-14
-5.21568e-14
-4.18642e-14
-3.31321e-14
-2.73348e-14
-2.04137e-14
-1.61335e-14
-5.16031e-15
-6.901e-13
-6.91164e-13
-6.9198e-13
-6.8803e-13
-6.92683e-13
-6.87018e-13
-6.84594e-13
-6.82183e-13
-6.79852e-13
-6.74203e-13
-6.64927e-13
-6.55352e-13
-6.47566e-13
-6.42195e-13
-6.39812e-13
-6.29366e-13
-6.14823e-13
-6.06317e-13
-6.01112e-13
-5.9196e-13
-5.8279e-13
-5.74832e-13
-5.64956e-13
-5.51019e-13
-5.43749e-13
-5.40465e-13
-5.37055e-13
-5.31674e-13
-5.2021e-13
-5.10977e-13
-5.04098e-13
-4.95933e-13
-4.87443e-13
-4.81739e-13
-4.75298e-13
-4.74294e-13
-4.65013e-13
-4.53005e-13
-4.44453e-13
-4.34978e-13
-4.30976e-13
-4.28307e-13
-4.23469e-13
-4.17088e-13
-4.07776e-13
-3.98206e-13
-3.89828e-13
-3.84438e-13
-3.76606e-13
-3.64095e-13
-3.54802e-13
-3.49118e-13
-3.434e-13
-3.3711e-13
-3.25593e-13
-3.19127e-13
-3.09854e-13
-3.04924e-13
-3.04605e-13
-2.98662e-13
-2.90225e-13
-2.81411e-13
-2.76119e-13
-2.68612e-13
-2.59074e-13
-2.50342e-13
-2.42585e-13
-2.3337e-13
-2.25938e-13
-2.17844e-13
-2.10782e-13
-2.03475e-13
-1.94234e-13
-1.86665e-13
-1.80229e-13
-1.74557e-13
-1.71104e-13
-1.63949e-13
-1.54056e-13
-1.4415e-13
-1.36813e-13
-1.29999e-13
-1.19453e-13
-1.09952e-13
-1.05168e-13
-1.00424e-13
-9.38033e-14
-8.61052e-14
-7.87228e-14
-7.48553e-14
-7.2948e-14
-6.7875e-14
-6.22691e-14
-5.07608e-14
-4.1767e-14
-3.56346e-14
-2.89837e-14
-1.95793e-14
-1.28688e-14
-4.76797e-15
-6.91154e-13
-6.95598e-13
-6.91954e-13
-6.87254e-13
-6.83635e-13
-6.87471e-13
-6.87538e-13
-6.85535e-13
-6.78847e-13
-6.71055e-13
-6.62477e-13
-6.57035e-13
-6.47014e-13
-6.39978e-13
-6.38696e-13
-6.32621e-13
-6.21866e-13
-6.10991e-13
-5.98411e-13
-5.86583e-13
-5.81709e-13
-5.73883e-13
-5.59432e-13
-5.50095e-13
-5.47023e-13
-5.43402e-13
-5.38742e-13
-5.30551e-13
-5.22564e-13
-5.13504e-13
-5.04821e-13
-4.97077e-13
-4.88027e-13
-4.82235e-13
-4.76475e-13
-4.73547e-13
-4.6381e-13
-4.52937e-13
-4.42068e-13
-4.34773e-13
-4.31079e-13
-4.30415e-13
-4.23725e-13
-4.15588e-13
-4.05582e-13
-3.95647e-13
-3.88414e-13
-3.82924e-13
-3.75509e-13
-3.67865e-13
-3.58609e-13
-3.51818e-13
-3.44118e-13
-3.3645e-13
-3.26019e-13
-3.17598e-13
-3.111e-13
-3.06455e-13
-3.03838e-13
-2.97339e-13
-2.90054e-13
-2.81896e-13
-2.73713e-13
-2.67676e-13
-2.62167e-13
-2.55679e-13
-2.47498e-13
-2.34751e-13
-2.25689e-13
-2.15153e-13
-2.0701e-13
-2.00668e-13
-1.94123e-13
-1.86812e-13
-1.76887e-13
-1.7152e-13
-1.69533e-13
-1.63634e-13
-1.56497e-13
-1.4621e-13
-1.38081e-13
-1.32176e-13
-1.19428e-13
-1.08944e-13
-1.01792e-13
-9.71296e-14
-9.35881e-14
-8.89409e-14
-8.11271e-14
-7.63075e-14
-7.18332e-14
-6.75513e-14
-5.9982e-14
-5.44597e-14
-4.64412e-14
-3.61217e-14
-2.89682e-14
-2.18156e-14
-1.23947e-14
-2.15175e-15
-6.8764e-13
-6.972e-13
-6.93541e-13
-6.84358e-13
-6.88383e-13
-6.91977e-13
-6.89977e-13
-6.8557e-13
-6.77045e-13
-6.63582e-13
-6.59742e-13
-6.55886e-13
-6.51876e-13
-6.42005e-13
-6.35202e-13
-6.34309e-13
-6.23548e-13
-6.13669e-13
-6.0363e-13
-5.89819e-13
-5.78951e-13
-5.67573e-13
-5.50263e-13
-5.46543e-13
-5.47651e-13
-5.46792e-13
-5.38732e-13
-5.29657e-13
-5.21599e-13
-5.16559e-13
-5.06268e-13
-4.96664e-13
-4.88403e-13
-4.85416e-13
-4.82119e-13
-4.72325e-13
-4.61446e-13
-4.52747e-13
-4.42076e-13
-4.37304e-13
-4.33942e-13
-4.3084e-13
-4.21945e-13
-4.1589e-13
-4.05829e-13
-3.93875e-13
-3.8465e-13
-3.79278e-13
-3.7574e-13
-3.67768e-13
-3.60662e-13
-3.5125e-13
-3.4278e-13
-3.34038e-13
-3.24542e-13
-3.19088e-13
-3.13904e-13
-3.07786e-13
-3.02165e-13
-2.97981e-13
-2.92288e-13
-2.82859e-13
-2.74468e-13
-2.67483e-13
-2.58559e-13
-2.53812e-13
-2.48204e-13
-2.36025e-13
-2.2673e-13
-2.18485e-13
-2.08657e-13
-2.00886e-13
-1.95483e-13
-1.88623e-13
-1.78796e-13
-1.74112e-13
-1.68223e-13
-1.60241e-13
-1.55436e-13
-1.48532e-13
-1.40975e-13
-1.31257e-13
-1.17053e-13
-1.06767e-13
-1.02513e-13
-9.94255e-14
-9.55769e-14
-8.69317e-14
-8.0144e-14
-7.57635e-14
-7.15017e-14
-6.77331e-14
-5.82359e-14
-5.35157e-14
-4.64055e-14
-3.92287e-14
-2.91798e-14
-2.06511e-14
-1.03162e-14
-9.57557e-16
-6.92937e-13
-6.93673e-13
-6.92898e-13
-6.89558e-13
-6.86602e-13
-6.9025e-13
-6.8952e-13
-6.83185e-13
-6.74903e-13
-6.64247e-13
-6.55878e-13
-6.55053e-13
-6.54034e-13
-6.4327e-13
-6.36495e-13
-6.31562e-13
-6.27749e-13
-6.19049e-13
-6.00542e-13
-5.82342e-13
-5.66411e-13
-5.6222e-13
-5.60662e-13
-5.5814e-13
-5.52856e-13
-5.46275e-13
-5.3584e-13
-5.27145e-13
-5.23199e-13
-5.186e-13
-5.09369e-13
-4.95649e-13
-4.89464e-13
-4.81222e-13
-4.76104e-13
-4.69963e-13
-4.63538e-13
-4.57994e-13
-4.47189e-13
-4.35902e-13
-4.29295e-13
-4.24592e-13
-4.20101e-13
-4.16087e-13
-4.09494e-13
-3.99062e-13
-3.8752e-13
-3.78265e-13
-3.7234e-13
-3.67501e-13
-3.60384e-13
-3.54713e-13
-3.45962e-13
-3.34596e-13
-3.26162e-13
-3.20176e-13
-3.13435e-13
-3.02195e-13
-2.98027e-13
-2.97288e-13
-2.96922e-13
-2.88619e-13
-2.76927e-13
-2.65005e-13
-2.55475e-13
-2.50166e-13
-2.42567e-13
-2.31507e-13
-2.22297e-13
-2.17897e-13
-2.17282e-13
-2.07277e-13
-1.96739e-13
-1.91513e-13
-1.81891e-13
-1.72272e-13
-1.63963e-13
-1.56351e-13
-1.51131e-13
-1.46761e-13
-1.39957e-13
-1.305e-13
-1.22277e-13
-1.1306e-13
-1.06116e-13
-9.598e-14
-9.24476e-14
-8.85775e-14
-8.08299e-14
-7.75276e-14
-7.09994e-14
-6.30231e-14
-5.84626e-14
-5.28256e-14
-4.64738e-14
-3.68227e-14
-2.88583e-14
-1.91143e-14
-1.03421e-14
-3.31726e-15
-6.9201e-13
-6.91491e-13
-6.89274e-13
-6.9049e-13
-6.93138e-13
-6.92721e-13
-6.89119e-13
-6.81949e-13
-6.73056e-13
-6.65549e-13
-6.59762e-13
-6.54174e-13
-6.50262e-13
-6.40969e-13
-6.36935e-13
-6.31605e-13
-6.277e-13
-6.18492e-13
-5.95539e-13
-5.8406e-13
-5.79487e-13
-5.72242e-13
-5.61356e-13
-5.51634e-13
-5.48847e-13
-5.42097e-13
-5.31367e-13
-5.25501e-13
-5.20607e-13
-5.15781e-13
-5.09299e-13
-5.01489e-13
-4.95541e-13
-4.88867e-13
-4.77122e-13
-4.69019e-13
-4.62043e-13
-4.5307e-13
-4.45138e-13
-4.36203e-13
-4.30377e-13
-4.2795e-13
-4.21197e-13
-4.19941e-13
-4.14584e-13
-3.99345e-13
-3.83607e-13
-3.7037e-13
-3.70018e-13
-3.69208e-13
-3.65336e-13
-3.58285e-13
-3.45866e-13
-3.34538e-13
-3.2344e-13
-3.17171e-13
-3.13957e-13
-3.08452e-13
-3.00188e-13
-2.94499e-13
-2.92327e-13
-2.8533e-13
-2.77956e-13
-2.69542e-13
-2.61202e-13
-2.52372e-13
-2.4354e-13
-2.33503e-13
-2.2733e-13
-2.20268e-13
-2.12928e-13
-2.07263e-13
-1.9558e-13
-1.82987e-13
-1.75969e-13
-1.72431e-13
-1.67963e-13
-1.60304e-13
-1.55863e-13
-1.49716e-13
-1.40694e-13
-1.30727e-13
-1.18464e-13
-1.07555e-13
-9.91016e-14
-9.54084e-14
-9.34127e-14
-9.00952e-14
-8.28376e-14
-7.59524e-14
-6.857e-14
-6.31609e-14
-5.87898e-14
-5.41263e-14
-4.48968e-14
-3.51269e-14
-2.86226e-14
-2.06372e-14
-1.17653e-14
-1.70522e-15
-6.94378e-13
-6.96048e-13
-6.90925e-13
-6.84712e-13
-6.88483e-13
-6.91357e-13
-6.91134e-13
-6.83064e-13
-6.70545e-13
-6.67285e-13
-6.60639e-13
-6.5063e-13
-6.44243e-13
-6.40908e-13
-6.38322e-13
-6.34145e-13
-6.27448e-13
-6.16307e-13
-5.99676e-13
-5.86257e-13
-5.78209e-13
-5.69628e-13
-5.65032e-13
-5.57968e-13
-5.48924e-13
-5.38804e-13
-5.30465e-13
-5.25583e-13
-5.24e-13
-5.16735e-13
-5.10288e-13
-5.02841e-13
-4.92055e-13
-4.81618e-13
-4.77428e-13
-4.70227e-13
-4.61378e-13
-4.52489e-13
-4.47273e-13
-4.4174e-13
-4.36806e-13
-4.29779e-13
-4.17956e-13
-4.10402e-13
-4.06969e-13
-4.00187e-13
-3.89123e-13
-3.79379e-13
-3.73274e-13
-3.66761e-13
-3.60462e-13
-3.53718e-13
-3.44338e-13
-3.35823e-13
-3.27942e-13
-3.2299e-13
-3.15154e-13
-3.08433e-13
-3.00849e-13
-2.95455e-13
-2.89273e-13
-2.82589e-13
-2.76502e-13
-2.68895e-13
-2.58348e-13
-2.48182e-13
-2.42166e-13
-2.34341e-13
-2.26462e-13
-2.19244e-13
-2.11438e-13
-2.07642e-13
-1.99772e-13
-1.89538e-13
-1.78126e-13
-1.72715e-13
-1.68828e-13
-1.61835e-13
-1.56256e-13
-1.47206e-13
-1.40979e-13
-1.31468e-13
-1.18774e-13
-1.09012e-13
-1.01403e-13
-9.61091e-14
-9.41575e-14
-8.92619e-14
-8.22382e-14
-7.58268e-14
-6.81086e-14
-6.23195e-14
-5.56454e-14
-5.09408e-14
-4.44381e-14
-3.59637e-14
-2.72757e-14
-1.6847e-14
-7.75836e-15
1.10247e-15
-6.94209e-13
-6.93482e-13
-6.93539e-13
-6.90206e-13
-6.8675e-13
-6.89103e-13
-6.87787e-13
-6.85714e-13
-6.77739e-13
-6.6338e-13
-6.54983e-13
-6.47726e-13
-6.45242e-13
-6.43811e-13
-6.39925e-13
-6.33376e-13
-6.23433e-13
-6.16695e-13
-6.0716e-13
-5.91265e-13
-5.78231e-13
-5.65238e-13
-5.59999e-13
-5.53154e-13
-5.50238e-13
-5.43914e-13
-5.34033e-13
-5.28206e-13
-5.22451e-13
-5.16874e-13
-5.1124e-13
-5.02701e-13
-4.9247e-13
-4.80817e-13
-4.74176e-13
-4.68587e-13
-4.63957e-13
-4.5382e-13
-4.48279e-13
-4.42601e-13
-4.33005e-13
-4.23784e-13
-4.17128e-13
-4.10815e-13
-4.0972e-13
-4.04859e-13
-3.93713e-13
-3.81591e-13
-3.73585e-13
-3.6443e-13
-3.57469e-13
-3.53406e-13
-3.45848e-13
-3.36996e-13
-3.2852e-13
-3.21138e-13
-3.14489e-13
-3.07412e-13
-3.00747e-13
-2.9756e-13
-2.93043e-13
-2.89258e-13
-2.82154e-13
-2.69353e-13
-2.55042e-13
-2.41002e-13
-2.33989e-13
-2.29223e-13
-2.25733e-13
-2.25593e-13
-2.19367e-13
-2.09906e-13
-2.02546e-13
-1.9187e-13
-1.79153e-13
-1.69866e-13
-1.65443e-13
-1.59736e-13
-1.55462e-13
-1.46732e-13
-1.40111e-13
-1.31702e-13
-1.20674e-13
-1.12571e-13
-1.03314e-13
-9.4853e-14
-9.06961e-14
-8.51921e-14
-8.132e-14
-7.60679e-14
-6.66032e-14
-5.78937e-14
-5.24745e-14
-4.80567e-14
-3.99634e-14
-3.14004e-14
-2.32771e-14
-1.49811e-14
-5.70783e-15
1.75735e-16
-6.9236e-13
-6.91655e-13
-6.90686e-13
-6.92174e-13
-6.92423e-13
-6.86892e-13
-6.84863e-13
-6.8177e-13
-6.75753e-13
-6.6866e-13
-6.55815e-13
-6.46251e-13
-6.45205e-13
-6.4547e-13
-6.40276e-13
-6.35874e-13
-6.23075e-13
-6.14911e-13
-6.06676e-13
-5.92481e-13
-5.82431e-13
-5.66506e-13
-5.56249e-13
-5.51781e-13
-5.45959e-13
-5.40906e-13
-5.36544e-13
-5.3003e-13
-5.24353e-13
-5.1882e-13
-5.10402e-13
-5.01344e-13
-4.91234e-13
-4.83039e-13
-4.78392e-13
-4.70378e-13
-4.61695e-13
-4.54018e-13
-4.49744e-13
-4.4088e-13
-4.32969e-13
-4.23685e-13
-4.17484e-13
-4.15346e-13
-4.12735e-13
-4.03236e-13
-3.90618e-13
-3.7772e-13
-3.70359e-13
-3.62966e-13
-3.60453e-13
-3.5543e-13
-3.45364e-13
-3.36491e-13
-3.27283e-13
-3.24377e-13
-3.17482e-13
-3.09837e-13
-3.00038e-13
-2.91297e-13
-2.89443e-13
-2.8172e-13
-2.76618e-13
-2.72066e-13
-2.58185e-13
-2.43991e-13
-2.34163e-13
-2.28363e-13
-2.26232e-13
-2.28607e-13
-2.2036e-13
-2.12585e-13
-2.03205e-13
-1.91079e-13
-1.76999e-13
-1.65897e-13
-1.65084e-13
-1.63272e-13
-1.59117e-13
-1.50441e-13
-1.44024e-13
-1.35359e-13
-1.20303e-13
-1.08939e-13
-9.83981e-14
-8.91255e-14
-9.13723e-14
-8.96365e-14
-8.16579e-14
-7.44542e-14
-6.46361e-14
-5.82951e-14
-5.19677e-14
-4.60111e-14
-4.17192e-14
-3.47599e-14
-1.96412e-14
-6.06712e-15
2.11576e-15
-1.13521e-15
-6.95391e-13
-6.93491e-13
-6.9124e-13
-6.92749e-13
-6.91353e-13
-6.86099e-13
-6.86326e-13
-6.8275e-13
-6.75278e-13
-6.65878e-13
-6.57307e-13
-6.49533e-13
-6.41576e-13
-6.38601e-13
-6.35536e-13
-6.2985e-13
-6.26257e-13
-6.20366e-13
-6.08983e-13
-5.9397e-13
-5.81612e-13
-5.73603e-13
-5.62631e-13
-5.52749e-13
-5.46199e-13
-5.35349e-13
-5.32136e-13
-5.2939e-13
-5.2569e-13
-5.21157e-13
-5.12638e-13
-5.02181e-13
-4.90234e-13
-4.805e-13
-4.74999e-13
-4.68098e-13
-4.63684e-13
-4.57043e-13
-4.5206e-13
-4.39549e-13
-4.31577e-13
-4.20772e-13
-4.17146e-13
-4.17639e-13
-4.11083e-13
-4.02995e-13
-3.91516e-13
-3.81259e-13
-3.71535e-13
-3.62751e-13
-3.56556e-13
-3.53655e-13
-3.45543e-13
-3.39626e-13
-3.32439e-13
-3.23232e-13
-3.15778e-13
-3.07691e-13
-2.997e-13
-2.93932e-13
-2.91898e-13
-2.91987e-13
-2.81377e-13
-2.68911e-13
-2.5034e-13
-2.40632e-13
-2.34172e-13
-2.30766e-13
-2.25981e-13
-2.23574e-13
-2.17397e-13
-2.16124e-13
-2.09844e-13
-1.96738e-13
-1.7582e-13
-1.59205e-13
-1.58032e-13
-1.64042e-13
-1.60972e-13
-1.5051e-13
-1.4285e-13
-1.32333e-13
-1.2215e-13
-1.13512e-13
-1.02868e-13
-9.21267e-14
-8.609e-14
-8.53434e-14
-8.00019e-14
-7.30272e-14
-6.25539e-14
-5.75268e-14
-5.17152e-14
-4.46662e-14
-3.70893e-14
-3.08165e-14
-1.84585e-14
-7.59854e-15
-1.52545e-15
-1.17243e-15
-6.93026e-13
-6.92639e-13
-6.84678e-13
-6.93964e-13
-6.93579e-13
-6.90439e-13
-6.83964e-13
-6.77063e-13
-6.70325e-13
-6.60831e-13
-6.56143e-13
-6.51069e-13
-6.50043e-13
-6.43829e-13
-6.37453e-13
-6.33492e-13
-6.28534e-13
-6.21663e-13
-6.09738e-13
-5.94891e-13
-5.75319e-13
-5.61231e-13
-5.52237e-13
-5.50735e-13
-5.46179e-13
-5.41469e-13
-5.35054e-13
-5.28783e-13
-5.26428e-13
-5.2366e-13
-5.15873e-13
-5.0286e-13
-4.92771e-13
-4.84688e-13
-4.80429e-13
-4.7021e-13
-4.60391e-13
-4.55579e-13
-4.49664e-13
-4.39469e-13
-4.2993e-13
-4.26151e-13
-4.2191e-13
-4.16143e-13
-4.05455e-13
-3.96187e-13
-3.8929e-13
-3.81633e-13
-3.7369e-13
-3.66704e-13
-3.60177e-13
-3.54198e-13
-3.4321e-13
-3.33321e-13
-3.35037e-13
-3.34621e-13
-3.19257e-13
-3.04064e-13
-2.95183e-13
-2.87677e-13
-2.85661e-13
-2.83035e-13
-2.82229e-13
-2.72308e-13
-2.5534e-13
-2.46246e-13
-2.33058e-13
-2.31485e-13
-2.26122e-13
-2.20916e-13
-2.16919e-13
-2.16683e-13
-2.10628e-13
-1.94617e-13
-1.77524e-13
-1.63983e-13
-1.60938e-13
-1.64524e-13
-1.5725e-13
-1.47598e-13
-1.40956e-13
-1.3316e-13
-1.25035e-13
-1.14986e-13
-1.04198e-13
-9.16475e-14
-8.57419e-14
-8.53681e-14
-7.8519e-14
-7.11368e-14
-6.28279e-14
-5.61587e-14
-4.85071e-14
-4.27924e-14
-3.75938e-14
-2.94602e-14
-1.87244e-14
-9.24034e-15
-5.8392e-16
8.04754e-16
-6.896e-13
-6.99628e-13
-6.94028e-13
-6.89027e-13
-6.89603e-13
-6.88199e-13
-6.83247e-13
-6.82117e-13
-6.7134e-13
-6.56863e-13
-6.52629e-13
-6.51031e-13
-6.48395e-13
-6.44995e-13
-6.40432e-13
-6.30657e-13
-6.19813e-13
-6.12148e-13
-6.06378e-13
-5.97235e-13
-5.90117e-13
-5.81476e-13
-5.68664e-13
-5.50765e-13
-5.36662e-13
-5.30469e-13
-5.32928e-13
-5.30718e-13
-5.27769e-13
-5.25553e-13
-5.16592e-13
-5.04186e-13
-4.88869e-13
-4.76537e-13
-4.71085e-13
-4.66742e-13
-4.66914e-13
-4.62328e-13
-4.50512e-13
-4.44019e-13
-4.32614e-13
-4.22619e-13
-4.20487e-13
-4.13517e-13
-4.04573e-13
-3.95795e-13
-3.86455e-13
-3.81714e-13
-3.77294e-13
-3.69269e-13
-3.61358e-13
-3.52117e-13
-3.45054e-13
-3.37744e-13
-3.32972e-13
-3.27439e-13
-3.21252e-13
-3.1376e-13
-3.05205e-13
-2.93561e-13
-2.84377e-13
-2.77806e-13
-2.72455e-13
-2.66939e-13
-2.56937e-13
-2.48609e-13
-2.39562e-13
-2.32643e-13
-2.26679e-13
-2.23241e-13
-2.19508e-13
-2.11509e-13
-2.03788e-13
-1.9527e-13
-1.80486e-13
-1.69347e-13
-1.6134e-13
-1.59237e-13
-1.5672e-13
-1.48502e-13
-1.4174e-13
-1.31015e-13
-1.23352e-13
-1.13711e-13
-1.027e-13
-9.31847e-14
-8.8249e-14
-8.37865e-14
-7.94376e-14
-7.07237e-14
-6.31405e-14
-5.91394e-14
-5.1106e-14
-4.24417e-14
-3.27182e-14
-2.42865e-14
-1.72683e-14
-1.0785e-14
-3.39091e-15
3.11106e-16
-6.88787e-13
-6.93228e-13
-6.95082e-13
-6.90657e-13
-6.89829e-13
-6.91115e-13
-6.80174e-13
-6.68783e-13
-6.63651e-13
-6.61408e-13
-6.5902e-13
-6.55291e-13
-6.52073e-13
-6.46443e-13
-6.40801e-13
-6.31955e-13
-6.2507e-13
-6.21153e-13
-6.11716e-13
-5.96844e-13
-5.77026e-13
-5.62839e-13
-5.53729e-13
-5.44072e-13
-5.44416e-13
-5.42989e-13
-5.38082e-13
-5.3036e-13
-5.25904e-13
-5.24788e-13
-5.18791e-13
-5.07716e-13
-4.94493e-13
-4.7687e-13
-4.66375e-13
-4.67151e-13
-4.68302e-13
-4.63748e-13
-4.56689e-13
-4.45209e-13
-4.3039e-13
-4.21122e-13
-4.13522e-13
-4.09142e-13
-4.04278e-13
-3.98646e-13
-3.91746e-13
-3.83096e-13
-3.7706e-13
-3.76399e-13
-3.67859e-13
-3.50111e-13
-3.39845e-13
-3.32556e-13
-3.27182e-13
-3.2567e-13
-3.21913e-13
-3.12823e-13
-3.00319e-13
-2.90852e-13
-2.87602e-13
-2.8324e-13
-2.75999e-13
-2.66841e-13
-2.52627e-13
-2.42202e-13
-2.37672e-13
-2.35424e-13
-2.30345e-13
-2.23032e-13
-2.16246e-13
-2.11412e-13
-2.04186e-13
-1.93748e-13
-1.81833e-13
-1.65958e-13
-1.59705e-13
-1.58286e-13
-1.58935e-13
-1.54017e-13
-1.45133e-13
-1.34542e-13
-1.23004e-13
-1.10811e-13
-1.01057e-13
-9.35397e-14
-8.8716e-14
-8.27252e-14
-7.68058e-14
-6.98528e-14
-6.33984e-14
-5.78278e-14
-5.16204e-14
-4.26214e-14
-3.19977e-14
-2.16264e-14
-1.34048e-14
-7.96099e-15
-1.57411e-15
-3.93981e-16
-6.87307e-13
-6.96322e-13
-6.96876e-13
-6.91815e-13
-6.88385e-13
-6.93986e-13
-6.90165e-13
-6.75511e-13
-6.56793e-13
-6.52732e-13
-6.51917e-13
-6.53421e-13
-6.52466e-13
-6.49616e-13
-6.44104e-13
-6.33101e-13
-6.23171e-13
-6.15258e-13
-6.02282e-13
-5.93412e-13
-5.85179e-13
-5.71393e-13
-5.59206e-13
-5.45072e-13
-5.43901e-13
-5.4203e-13
-5.40017e-13
-5.34947e-13
-5.26771e-13
-5.23743e-13
-5.15299e-13
-5.03161e-13
-4.93294e-13
-4.77862e-13
-4.65436e-13
-4.64549e-13
-4.66532e-13
-4.64647e-13
-4.56198e-13
-4.4596e-13
-4.29213e-13
-4.19776e-13
-4.17226e-13
-4.12053e-13
-4.04504e-13
-3.97079e-13
-3.94326e-13
-3.876e-13
-3.77305e-13
-3.66296e-13
-3.58666e-13
-3.5284e-13
-3.44041e-13
-3.30998e-13
-3.31987e-13
-3.2936e-13
-3.21159e-13
-3.14965e-13
-3.07539e-13
-2.93215e-13
-2.85771e-13
-2.79553e-13
-2.71011e-13
-2.63328e-13
-2.52395e-13
-2.44746e-13
-2.35439e-13
-2.32509e-13
-2.26895e-13
-2.26235e-13
-2.18832e-13
-2.14588e-13
-2.07648e-13
-1.93399e-13
-1.78588e-13
-1.66463e-13
-1.63077e-13
-1.59823e-13
-1.54969e-13
-1.49748e-13
-1.43888e-13
-1.34996e-13
-1.23686e-13
-1.11339e-13
-1.0443e-13
-9.6742e-14
-8.90784e-14
-8.25211e-14
-7.67738e-14
-6.84872e-14
-6.15885e-14
-5.55836e-14
-4.75589e-14
-3.8834e-14
-3.14458e-14
-2.54227e-14
-1.19197e-14
-4.71599e-15
1.35781e-15
6.79415e-16
-6.94344e-13
-6.93443e-13
-6.89521e-13
-6.85385e-13
-6.87129e-13
-6.81583e-13
-6.77149e-13
-6.78547e-13
-6.74173e-13
-6.66326e-13
-6.60976e-13
-6.52066e-13
-6.4595e-13
-6.44719e-13
-6.42472e-13
-6.35087e-13
-6.2582e-13
-6.22462e-13
-6.10539e-13
-5.9318e-13
-5.73044e-13
-5.59999e-13
-5.54234e-13
-5.52549e-13
-5.45699e-13
-5.44151e-13
-5.4007e-13
-5.33107e-13
-5.27433e-13
-5.22263e-13
-5.15136e-13
-5.0262e-13
-4.90379e-13
-4.7758e-13
-4.68875e-13
-4.67756e-13
-4.71065e-13
-4.64706e-13
-4.55128e-13
-4.44472e-13
-4.30126e-13
-4.17227e-13
-4.15168e-13
-4.12655e-13
-4.08952e-13
-3.98281e-13
-3.89115e-13
-3.85845e-13
-3.80968e-13
-3.69463e-13
-3.57916e-13
-3.52758e-13
-3.4582e-13
-3.34725e-13
-3.26832e-13
-3.24336e-13
-3.18704e-13
-3.14036e-13
-3.08393e-13
-2.98836e-13
-2.87936e-13
-2.79963e-13
-2.70446e-13
-2.62849e-13
-2.56184e-13
-2.46006e-13
-2.35886e-13
-2.27193e-13
-2.24004e-13
-2.26291e-13
-2.17801e-13
-2.12692e-13
-2.05809e-13
-1.94091e-13
-1.82737e-13
-1.70078e-13
-1.59444e-13
-1.54723e-13
-1.54243e-13
-1.55208e-13
-1.48745e-13
-1.33532e-13
-1.22399e-13
-1.0937e-13
-1.04513e-13
-9.91326e-14
-9.16764e-14
-8.12972e-14
-7.21614e-14
-6.72726e-14
-6.16607e-14
-5.48177e-14
-4.91515e-14
-4.08073e-14
-3.04126e-14
-2.08297e-14
-1.23479e-14
-5.96658e-15
9.74747e-16
2.08472e-15
-6.93726e-13
-6.9243e-13
-6.89711e-13
-6.87144e-13
-6.93492e-13
-6.90656e-13
-6.77443e-13
-6.7067e-13
-6.65922e-13
-6.62846e-13
-6.61728e-13
-6.59765e-13
-6.47906e-13
-6.40223e-13
-6.37187e-13
-6.32154e-13
-6.27695e-13
-6.2031e-13
-6.07493e-13
-5.90716e-13
-5.76422e-13
-5.61721e-13
-5.52325e-13
-5.52842e-13
-5.53016e-13
-5.44008e-13
-5.36379e-13
-5.3351e-13
-5.31135e-13
-5.2507e-13
-5.17479e-13
-5.04277e-13
-4.90239e-13
-4.76702e-13
-4.65667e-13
-4.66194e-13
-4.65043e-13
-4.62944e-13
-4.59139e-13
-4.48661e-13
-4.33746e-13
-4.21821e-13
-4.1526e-13
-4.06943e-13
-4.05081e-13
-3.99717e-13
-3.91931e-13
-3.82611e-13
-3.76239e-13
-3.69652e-13
-3.58806e-13
-3.53172e-13
-3.45861e-13
-3.36095e-13
-3.33282e-13
-3.28773e-13
-3.16954e-13
-3.07906e-13
-3.03936e-13
-2.96036e-13
-2.90026e-13
-2.79903e-13
-2.7178e-13
-2.64587e-13
-2.55608e-13
-2.44427e-13
-2.379e-13
-2.27628e-13
-2.20675e-13
-2.18928e-13
-2.17004e-13
-2.13577e-13
-2.07522e-13
-1.94241e-13
-1.81428e-13
-1.70831e-13
-1.63793e-13
-1.56883e-13
-1.56582e-13
-1.53353e-13
-1.45835e-13
-1.35262e-13
-1.23806e-13
-1.11928e-13
-1.03117e-13
-9.40174e-14
-8.71831e-14
-8.30083e-14
-7.70078e-14
-6.75123e-14
-6.06506e-14
-5.34758e-14
-4.5979e-14
-3.79755e-14
-2.88604e-14
-2.25283e-14
-1.4045e-14
-4.11752e-15
1.42366e-15
3.07428e-16
-6.88417e-13
-6.9127e-13
-6.91356e-13
-6.89806e-13
-6.88071e-13
-6.81748e-13
-6.76923e-13
-6.73539e-13
-6.72586e-13
-6.68467e-13
-6.62987e-13
-6.5834e-13
-6.50831e-13
-6.41979e-13
-6.35807e-13
-6.28452e-13
-6.25567e-13
-6.18655e-13
-6.05621e-13
-5.93054e-13
-5.76435e-13
-5.62809e-13
-5.5793e-13
-5.53949e-13
-5.4545e-13
-5.41328e-13
-5.40747e-13
-5.37844e-13
-5.30566e-13
-5.20564e-13
-5.12368e-13
-5.02989e-13
-4.89846e-13
-4.77778e-13
-4.684e-13
-4.71837e-13
-4.72912e-13
-4.65091e-13
-4.54171e-13
-4.41177e-13
-4.3057e-13
-4.24824e-13
-4.16949e-13
-4.07233e-13
-4.02219e-13
-3.95856e-13
-3.94507e-13
-3.93092e-13
-3.80106e-13
-3.66185e-13
-3.56499e-13
-3.54421e-13
-3.46416e-13
-3.35408e-13
-3.31682e-13
-3.28253e-13
-3.20536e-13
-3.0994e-13
-3.01749e-13
-2.94948e-13
-2.92338e-13
-2.83345e-13
-2.72918e-13
-2.63403e-13
-2.51696e-13
-2.43797e-13
-2.34853e-13
-2.29044e-13
-2.21735e-13
-2.1713e-13
-2.12879e-13
-2.13369e-13
-2.08278e-13
-1.94218e-13
-1.8151e-13
-1.70869e-13
-1.65771e-13
-1.60029e-13
-1.52119e-13
-1.4436e-13
-1.4819e-13
-1.42446e-13
-1.25396e-13
-1.12815e-13
-1.03159e-13
-9.25343e-14
-8.51772e-14
-8.23291e-14
-7.653e-14
-6.76574e-14
-5.97551e-14
-5.37676e-14
-4.67665e-14
-3.66548e-14
-3.12825e-14
-2.11812e-14
-1.10537e-14
-2.55365e-15
2.37733e-15
-1.1256e-16
-6.9572e-13
-6.92482e-13
-6.90267e-13
-6.87136e-13
-6.82138e-13
-6.7953e-13
-6.76387e-13
-6.76485e-13
-6.7401e-13
-6.68987e-13
-6.62136e-13
-6.57735e-13
-6.51779e-13
-6.45705e-13
-6.37722e-13
-6.26799e-13
-6.16404e-13
-6.10203e-13
-6.05437e-13
-5.97327e-13
-5.7915e-13
-5.67101e-13
-5.58217e-13
-5.51085e-13
-5.47573e-13
-5.43912e-13
-5.41767e-13
-5.38484e-13
-5.28874e-13
-5.23479e-13
-5.13812e-13
-5.02221e-13
-4.8817e-13
-4.75662e-13
-4.70943e-13
-4.7153e-13
-4.69498e-13
-4.63587e-13
-4.53907e-13
-4.4261e-13
-4.3099e-13
-4.2205e-13
-4.17862e-13
-4.12089e-13
-4.07139e-13
-4.00365e-13
-3.90402e-13
-3.83593e-13
-3.78848e-13
-3.70627e-13
-3.64017e-13
-3.54253e-13
-3.4465e-13
-3.36515e-13
-3.3034e-13
-3.22924e-13
-3.18879e-13
-3.11864e-13
-3.01554e-13
-2.9538e-13
-2.93258e-13
-2.8574e-13
-2.74118e-13
-2.61578e-13
-2.52783e-13
-2.43964e-13
-2.34553e-13
-2.27247e-13
-2.21485e-13
-2.17231e-13
-2.14779e-13
-2.13865e-13
-2.07052e-13
-1.91147e-13
-1.80303e-13
-1.70996e-13
-1.65093e-13
-1.59418e-13
-1.55557e-13
-1.50928e-13
-1.44598e-13
-1.36323e-13
-1.26487e-13
-1.16249e-13
-1.08301e-13
-9.29829e-14
-8.41136e-14
-7.91966e-14
-7.60257e-14
-6.4424e-14
-5.69645e-14
-5.27918e-14
-5.09579e-14
-3.83871e-14
-2.70157e-14
-2.0211e-14
-1.24914e-14
-6.7732e-17
1.21393e-15
-1.37162e-15
-6.98256e-13
-6.91709e-13
-6.85857e-13
-6.86255e-13
-6.7837e-13
-6.79524e-13
-6.76777e-13
-6.77775e-13
-6.77328e-13
-6.67429e-13
-6.61259e-13
-6.58496e-13
-6.5671e-13
-6.47273e-13
-6.37937e-13
-6.2991e-13
-6.2131e-13
-6.10485e-13
-6.04224e-13
-5.90504e-13
-5.79135e-13
-5.66821e-13
-5.55239e-13
-5.4942e-13
-5.45976e-13
-5.47688e-13
-5.42894e-13
-5.37359e-13
-5.29413e-13
-5.21847e-13
-5.14192e-13
-5.04338e-13
-4.88649e-13
-4.78375e-13
-4.69554e-13
-4.67146e-13
-4.67899e-13
-4.63921e-13
-4.5461e-13
-4.4348e-13
-4.34467e-13
-4.2541e-13
-4.17301e-13
-4.11095e-13
-4.0528e-13
-3.98634e-13
-3.90549e-13
-3.85986e-13
-3.81573e-13
-3.71389e-13
-3.60745e-13
-3.50117e-13
-3.44163e-13
-3.3923e-13
-3.33769e-13
-3.27409e-13
-3.20182e-13
-3.10436e-13
-3.04121e-13
-2.9944e-13
-2.94467e-13
-2.8454e-13
-2.70264e-13
-2.59948e-13
-2.5077e-13
-2.41915e-13
-2.32653e-13
-2.28097e-13
-2.21164e-13
-2.20927e-13
-2.15877e-13
-2.09901e-13
-2.00362e-13
-1.88488e-13
-1.78717e-13
-1.69163e-13
-1.68666e-13
-1.6669e-13
-1.5717e-13
-1.48112e-13
-1.41594e-13
-1.33985e-13
-1.25228e-13
-1.15006e-13
-1.02952e-13
-9.04477e-14
-8.54368e-14
-8.18453e-14
-7.49811e-14
-7.02601e-14
-6.44941e-14
-5.32175e-14
-4.3477e-14
-3.59955e-14
-2.71829e-14
-1.76269e-14
-1.05478e-14
-6.228e-15
-1.84846e-15
-1.34365e-15
-6.96038e-13
-6.89979e-13
-6.8819e-13
-6.86199e-13
-6.82864e-13
-6.79247e-13
-6.73801e-13
-6.7662e-13
-6.76477e-13
-6.71299e-13
-6.6491e-13
-6.57815e-13
-6.55354e-13
-6.45506e-13
-6.34877e-13
-6.2467e-13
-6.15035e-13
-6.10794e-13
-6.04895e-13
-5.93164e-13
-5.80628e-13
-5.68398e-13
-5.57592e-13
-5.53202e-13
-5.51876e-13
-5.45323e-13
-5.3898e-13
-5.31452e-13
-5.24836e-13
-5.22408e-13
-5.16015e-13
-5.08945e-13
-4.96946e-13
-4.85442e-13
-4.67549e-13
-4.63353e-13
-4.63002e-13
-4.60293e-13
-4.54332e-13
-4.43556e-13
-4.36447e-13
-4.25717e-13
-4.20038e-13
-4.09602e-13
-4.05783e-13
-4.00147e-13
-3.95892e-13
-3.87841e-13
-3.77769e-13
-3.64045e-13
-3.59947e-13
-3.55651e-13
-3.48475e-13
-3.3551e-13
-3.28475e-13
-3.221e-13
-3.14807e-13
-3.13022e-13
-3.05188e-13
-3.0385e-13
-3.04194e-13
-2.81798e-13
-2.6817e-13
-2.61845e-13
-2.53551e-13
-2.45141e-13
-2.35368e-13
-2.28529e-13
-2.1819e-13
-2.14871e-13
-2.10745e-13
-2.12931e-13
-2.05689e-13
-1.92734e-13
-1.76568e-13
-1.64668e-13
-1.68447e-13
-1.65112e-13
-1.56997e-13
-1.50859e-13
-1.43749e-13
-1.34456e-13
-1.2396e-13
-1.13132e-13
-1.03602e-13
-9.18466e-14
-8.45641e-14
-8.22586e-14
-7.63706e-14
-6.59974e-14
-5.80119e-14
-5.27202e-14
-4.43837e-14
-3.53865e-14
-3.13367e-14
-2.44183e-14
-1.08892e-14
-2.56444e-15
3.10536e-15
-1.77738e-16
-6.90319e-13
-6.9245e-13
-6.92096e-13
-6.85898e-13
-6.80184e-13
-6.80503e-13
-6.78496e-13
-6.74669e-13
-6.74244e-13
-6.70022e-13
-6.66533e-13
-6.61683e-13
-6.53553e-13
-6.44037e-13
-6.35786e-13
-6.28271e-13
-6.22928e-13
-6.18295e-13
-6.0742e-13
-5.90521e-13
-5.71636e-13
-5.57828e-13
-5.54516e-13
-5.552e-13
-5.52582e-13
-5.4489e-13
-5.35779e-13
-5.31523e-13
-5.2491e-13
-5.2368e-13
-5.20332e-13
-5.04727e-13
-4.91537e-13
-4.82909e-13
-4.74372e-13
-4.69722e-13
-4.65621e-13
-4.59121e-13
-4.52776e-13
-4.44424e-13
-4.35532e-13
-4.25483e-13
-4.17401e-13
-4.12721e-13
-4.11167e-13
-4.01567e-13
-3.93909e-13
-3.81588e-13
-3.78738e-13
-3.71133e-13
-3.59277e-13
-3.54278e-13
-3.47965e-13
-3.39544e-13
-3.31692e-13
-3.18342e-13
-3.06744e-13
-3.10601e-13
-3.14589e-13
-3.05833e-13
-2.95727e-13
-2.84057e-13
-2.71967e-13
-2.64357e-13