/*--------------------------------*- C++ -*----------------------------------*\
| =========                 |                                                 |
| \\      /  F ield         | OpenFOAM: The Open Source CFD Toolbox           |
|  \\    /   O peration     | Version:  v2012                                 |
|   \\  /    A nd           | Website:  www.openfoam.com                      |
|    \\/     M anipulation  |                                                 |
\*---------------------------------------------------------------------------*/
FoamFile
{
    version     2.0;
    format      ascii;
    class       volScalarField;
    location    "0";
    object      p;
}
// * * * * * * * * * * * * * * * * * * * * * * * * * * * * * * * * * * * * * //

dimensions      [0 2 -2 0 0 0 0];


internalField   nonuniform List<scalar> 
4000
(
1.24223e-13
1.15914e-13
1.16849e-13
1.18714e-13
1.17466e-13
1.28723e-13
1.26803e-13
1.10924e-13
1.01425e-13
1.02061e-13
1.0752e-13
1.08237e-13
1.00453e-13
8.20799e-14
7.76306e-14
8.4082e-14
8.68723e-14
7.49261e-14
7.78212e-14
7.58332e-14
7.2343e-14
6.95973e-14
6.95456e-14
6.69875e-14
5.92546e-14
5.72636e-14
6.30448e-14
6.60555e-14
7.57322e-14
6.48393e-14
5.58653e-14
5.29511e-14
5.01453e-14
5.15233e-14
5.3721e-14
6.13253e-14
5.95418e-14
4.48879e-14
3.19383e-14
3.61513e-14
3.59007e-14
4.21939e-14
5.4448e-14
5.15923e-14
5.30455e-14
5.50814e-14
5.66542e-14
5.28869e-14
5.45476e-14
5.89381e-14
5.77776e-14
5.66468e-14
6.05052e-14
5.90508e-14
6.33025e-14
5.79643e-14
5.77161e-14
5.53643e-14
6.74571e-14
7.89718e-14
7.17784e-14
7.06228e-14
6.8668e-14
5.87651e-14
6.84775e-14
6.64339e-14
6.2626e-14
5.54111e-14
5.34564e-14
5.02559e-14
5.29813e-14
4.89303e-14
4.44072e-14
3.56971e-14
3.18435e-14
3.29312e-14
4.13205e-14
4.27175e-14
4.34367e-14
3.93668e-14
3.19195e-14
2.81887e-14
3.17704e-14
3.26114e-14
2.76866e-14
2.44237e-14
2.72168e-14
1.41869e-14
1.57201e-14
1.60902e-14
1.06139e-14
1.16303e-14
1.72718e-14
1.74548e-14
1.55436e-14
1.10069e-14
9.56545e-15
7.48337e-15
6.74338e-15
-2.35034e-15
1.17125e-13
1.17946e-13
1.1671e-13
1.20601e-13
1.20186e-13
1.23639e-13
1.21719e-13
1.16736e-13
1.04761e-13
1.01105e-13
1.10366e-13
1.01106e-13
9.54531e-14
8.87806e-14
8.59881e-14
8.22859e-14
8.41873e-14
8.10314e-14
8.00915e-14
7.13259e-14
6.89581e-14
7.04894e-14
6.93957e-14
6.14413e-14
5.80578e-14
6.15448e-14
6.80886e-14
6.58938e-14
7.00266e-14
6.15904e-14
5.87139e-14
5.69461e-14
4.94435e-14
4.52474e-14
5.22638e-14
5.69772e-14
5.93171e-14
4.71368e-14
3.87705e-14
3.92037e-14
3.39492e-14
4.35782e-14
4.82882e-14
5.06886e-14
5.40267e-14
5.86783e-14
5.42691e-14
5.29638e-14
5.26218e-14
5.50929e-14
5.83572e-14
5.84003e-14
6.16076e-14
6.00579e-14
5.97005e-14
6.01254e-14
5.94472e-14
5.61056e-14
6.33517e-14
7.608e-14
7.91655e-14
7.26157e-14
7.23578e-14
6.11828e-14
6.64067e-14
6.37694e-14
5.8806e-14
5.72443e-14
5.10653e-14
5.1486e-14
5.53951e-14
5.00297e-14
4.60969e-14
3.68861e-14
3.53942e-14
3.42719e-14
4.01421e-14
3.96061e-14
3.99022e-14
3.63951e-14
3.28494e-14
3.2086e-14
3.04836e-14
3.32485e-14
2.8042e-14
2.49125e-14
2.11346e-14
1.38232e-14
1.76275e-14
1.44094e-14
1.54122e-14
9.3938e-15
1.79007e-14
1.72082e-14
1.58961e-14
1.53091e-14
8.14812e-15
6.92196e-15
7.24232e-15
1.77448e-15
1.17324e-13
1.17847e-13
1.17021e-13
1.21561e-13
1.25029e-13
1.22302e-13
1.19815e-13
1.17111e-13
1.02437e-13
1.02511e-13
1.09794e-13
1.01973e-13
9.49098e-14
8.94919e-14
8.61973e-14
8.27382e-14
7.87131e-14
8.1586e-14
8.38625e-14
7.18276e-14
6.69301e-14
6.92689e-14
6.81313e-14
6.39901e-14
5.8461e-14
5.70319e-14
6.37055e-14
6.49838e-14
6.73734e-14
6.11792e-14
5.93499e-14
5.68145e-14
5.3663e-14
4.97637e-14
5.48373e-14
5.27037e-14
5.4078e-14
5.13009e-14
4.36951e-14
3.44641e-14
3.39999e-14
4.30932e-14
5.05337e-14
5.83617e-14
6.26564e-14
5.87052e-14
4.94973e-14
4.73045e-14
5.30659e-14
5.85263e-14
6.0795e-14
6.04128e-14
5.77056e-14
5.9492e-14
5.85653e-14
6.01199e-14
5.89955e-14
5.90863e-14
6.62482e-14
7.45459e-14
7.52011e-14
6.82985e-14
7.29394e-14
6.59059e-14
6.68719e-14
6.48007e-14
6.28588e-14
5.96105e-14
5.16228e-14
5.09353e-14
5.1232e-14
4.59445e-14
3.97401e-14
4.03392e-14
3.86243e-14
4.11886e-14
3.90941e-14
3.99782e-14
3.77136e-14
3.79037e-14
3.85089e-14
2.99269e-14
2.40713e-14
2.91509e-14
2.95788e-14
2.74669e-14
2.70476e-14
1.6102e-14
2.20251e-14
1.48186e-14
1.35907e-14
1.14449e-14
1.60669e-14
2.12751e-14
1.37948e-14
8.13937e-15
5.06413e-15
7.45375e-15
9.73084e-15
4.84815e-15
1.2111e-13
1.20553e-13
1.19113e-13
1.17472e-13
1.26889e-13
1.22522e-13
1.14302e-13
1.12994e-13
1.13801e-13
1.07835e-13
9.97004e-14
9.9524e-14
9.35036e-14
8.97813e-14
9.3882e-14
8.23759e-14
7.41159e-14
7.99798e-14
7.86504e-14
7.59658e-14
6.72146e-14
6.78466e-14
6.16933e-14
5.91028e-14
5.71762e-14
5.74084e-14
5.95187e-14
6.39051e-14
6.82225e-14
6.43138e-14
5.99593e-14
5.63037e-14
5.31791e-14
5.24118e-14
4.66081e-14
5.15901e-14
5.51236e-14
4.73252e-14
3.98459e-14
3.36874e-14
4.1578e-14
4.73943e-14
5.04632e-14
5.59872e-14
5.32501e-14
5.86202e-14
5.09512e-14
5.20562e-14
5.1255e-14
5.76306e-14
5.34495e-14
5.74442e-14
5.6084e-14
6.14419e-14
6.05001e-14
6.04922e-14
5.57006e-14
6.07576e-14
6.64341e-14
7.54574e-14
6.8941e-14
7.36985e-14
7.78189e-14
7.04032e-14
6.31705e-14
6.61223e-14
6.28598e-14
6.38886e-14
5.14751e-14
5.27666e-14
5.45938e-14
5.29912e-14
4.53942e-14
3.93795e-14
3.90784e-14
4.35862e-14
3.90321e-14
4.03142e-14
4.19143e-14
3.91991e-14
3.15215e-14
2.79981e-14
2.74567e-14
3.42334e-14
3.16258e-14
2.65996e-14
2.49433e-14
1.6689e-14
2.01235e-14
1.68601e-14
1.72465e-14
1.50899e-14
2.05781e-14
1.894e-14
1.10605e-14
8.7561e-15
9.04621e-15
6.57393e-15
2.42736e-15
2.7732e-15
1.252e-13
1.23854e-13
1.21331e-13
1.18181e-13
1.20057e-13
1.20765e-13
1.20762e-13
1.13045e-13
1.08585e-13
1.0459e-13
1.00932e-13
9.73699e-14
8.85383e-14
8.93885e-14
9.59708e-14
8.48428e-14
7.39754e-14
7.75244e-14
7.44125e-14
7.30703e-14
7.27231e-14
6.36332e-14
5.59979e-14
5.54506e-14
5.76831e-14
6.66778e-14
6.34143e-14
6.16464e-14
6.27065e-14
6.23513e-14
5.81642e-14
5.32378e-14
5.49816e-14
4.85672e-14
4.90566e-14
4.54473e-14
4.76035e-14
4.41347e-14
4.00837e-14
4.18131e-14
3.90115e-14
5.00444e-14
5.22554e-14
5.54095e-14
4.92457e-14
5.11892e-14
5.49731e-14
5.01873e-14
5.2144e-14
6.13563e-14
5.67696e-14
6.24934e-14
5.77841e-14
5.60674e-14
5.90337e-14
6.08516e-14
5.47014e-14
6.15495e-14
6.74609e-14
7.3062e-14
6.85738e-14
7.05321e-14
7.13309e-14
7.1425e-14
7.01096e-14
7.00204e-14
6.72364e-14
6.23559e-14
5.18344e-14
5.20613e-14
5.49048e-14
5.43207e-14
4.72308e-14
4.22034e-14
3.78672e-14
4.1903e-14
4.05551e-14
4.35965e-14
4.30638e-14
3.68376e-14
3.67707e-14
3.31812e-14
2.63142e-14
3.21701e-14
3.0408e-14
2.4623e-14
2.58985e-14
2.26333e-14
2.11151e-14
2.06829e-14
1.69925e-14
1.67317e-14
1.68182e-14
2.28169e-14
1.4277e-14
1.15304e-14
7.57843e-15
4.16142e-15
3.95961e-15
1.55368e-17
1.18406e-13
1.24679e-13
1.22455e-13
1.15566e-13
1.2607e-13
1.2997e-13
1.24702e-13
1.11453e-13
1.09557e-13
9.91416e-14
9.5003e-14
9.80519e-14
9.52266e-14
8.76748e-14
9.06086e-14
8.99856e-14
7.62774e-14
7.64696e-14
7.7548e-14
8.06307e-14
6.46887e-14
6.0299e-14
4.9239e-14
4.73339e-14
5.83504e-14
6.65928e-14
6.1219e-14
6.09729e-14
5.7061e-14
5.89081e-14
5.71602e-14
5.74154e-14
4.85862e-14
4.91999e-14
5.49145e-14
4.82621e-14
4.4289e-14
4.08181e-14
3.8683e-14
4.05145e-14
4.45299e-14
5.16497e-14
4.92006e-14
5.48066e-14
5.20693e-14
4.92263e-14
4.6971e-14
4.9725e-14
5.85406e-14
6.30476e-14
5.78991e-14
6.09616e-14
5.9874e-14
5.83218e-14
5.77998e-14
5.401e-14
5.23463e-14
5.91032e-14
6.69213e-14
7.31647e-14
7.293e-14
7.11794e-14
6.95702e-14
6.93427e-14
6.9675e-14
6.9344e-14
6.81599e-14
6.48086e-14
5.57582e-14
5.99886e-14
5.50866e-14
5.45332e-14
5.01362e-14
4.76355e-14
3.86001e-14
4.47718e-14
4.1034e-14
4.13175e-14
3.84096e-14
3.23103e-14
3.94242e-14
3.42504e-14
2.7731e-14
3.24276e-14
3.35163e-14
2.8812e-14
2.66721e-14
2.41624e-14
2.21991e-14
1.95515e-14
1.65865e-14
1.88407e-14
1.58271e-14
1.94386e-14
1.66966e-14
1.09483e-14
9.25292e-15
3.25865e-15
-3.76377e-16
-9.98556e-16
1.19817e-13
1.22116e-13
1.23156e-13
1.22891e-13
1.21352e-13
1.19422e-13
1.24665e-13
1.14638e-13
1.06127e-13
1.00565e-13
9.24697e-14
9.84314e-14
9.51493e-14
9.31464e-14
9.28059e-14
8.72115e-14
8.42631e-14
8.4464e-14
7.15166e-14
6.40259e-14
5.00733e-14
5.2144e-14
6.03483e-14
5.88107e-14
6.27009e-14
6.50073e-14
6.05562e-14
5.68236e-14
5.55194e-14
5.74869e-14
5.82704e-14
5.51136e-14
4.57781e-14
4.27158e-14
4.87416e-14
4.75715e-14
4.78439e-14
4.18821e-14
4.10005e-14
4.31595e-14
4.13061e-14
4.97195e-14
4.95243e-14
5.54264e-14
5.24079e-14
5.21879e-14
4.96776e-14
4.86674e-14
5.93678e-14
6.17404e-14
5.65774e-14
5.97828e-14
6.34524e-14
6.26869e-14
5.83923e-14
5.11667e-14
5.08438e-14
5.41217e-14
6.65054e-14
7.34678e-14
7.62659e-14
7.11053e-14
6.689e-14
7.16548e-14
6.90401e-14
7.03083e-14
6.48373e-14
5.83803e-14
5.42932e-14
5.58701e-14
6.48666e-14
5.96465e-14
5.35127e-14
4.99509e-14
4.53274e-14
4.50006e-14
3.46087e-14
3.77364e-14
4.20772e-14
3.33045e-14
3.69691e-14
3.69232e-14
3.56033e-14
3.29167e-14
3.31649e-14
3.0592e-14
2.667e-14
2.84629e-14
2.23156e-14
2.3978e-14
2.10778e-14
1.56783e-14
1.60284e-14
1.60594e-14
1.5492e-14
8.22657e-15
6.78127e-15
1.90745e-15
1.06699e-15
4.38911e-16
1.16107e-13
1.17577e-13
1.19126e-13
1.21923e-13
1.27441e-13
1.24398e-13
1.27393e-13
1.13348e-13
1.09643e-13
1.02403e-13
9.53206e-14
9.82065e-14
9.65833e-14
9.12727e-14
8.97152e-14
8.88553e-14
8.39939e-14
8.45646e-14
6.86526e-14
6.46362e-14
5.89328e-14
5.76553e-14
6.14237e-14
5.05492e-14
5.40362e-14
5.58238e-14
5.475e-14
5.77625e-14
4.99511e-14
5.57674e-14
5.74217e-14
5.6072e-14
4.75975e-14
4.6405e-14
4.67154e-14
5.00969e-14
4.58609e-14
3.57001e-14
3.64527e-14
3.6521e-14
4.2514e-14
5.05922e-14
5.5193e-14
6.32705e-14
6.11279e-14
5.12706e-14
5.03362e-14
4.99179e-14
5.31482e-14
5.89194e-14
6.2162e-14
6.62404e-14
5.86406e-14
5.50715e-14
5.10495e-14
4.91836e-14
5.36533e-14
5.94555e-14
6.43053e-14
7.05266e-14
7.02996e-14
7.11312e-14
7.32929e-14
7.39939e-14
7.00895e-14
6.97824e-14
6.5501e-14
6.44092e-14
5.77619e-14
5.64232e-14
6.00155e-14
5.88575e-14
5.23358e-14
4.49474e-14
4.33389e-14
4.22682e-14
3.76433e-14
4.11593e-14
4.31612e-14
3.64918e-14
4.02057e-14
3.62036e-14
3.52392e-14
3.3816e-14
2.34753e-14
2.79379e-14
2.87585e-14
3.30683e-14
2.59315e-14
2.89995e-14
2.16342e-14
1.40868e-14
1.42846e-14
1.80818e-14
1.10952e-14
4.44568e-15
5.18407e-15
1.90985e-15
3.84428e-15
-1.85951e-15
1.19342e-13
1.21958e-13
1.21793e-13
1.19761e-13
1.23845e-13
1.23586e-13
1.23191e-13
1.17429e-13
1.11226e-13
1.07204e-13
9.55566e-14
9.14101e-14
9.15107e-14
9.32973e-14
9.35109e-14
8.7181e-14
8.65893e-14
8.83698e-14
7.10529e-14
6.4267e-14
5.59277e-14
5.18716e-14
5.58928e-14
5.44994e-14
5.82776e-14
5.71552e-14
4.95996e-14
5.11595e-14
4.50805e-14
5.67904e-14
6.4104e-14
5.36847e-14
4.31341e-14
3.9212e-14
4.18907e-14
4.34141e-14
4.77153e-14
3.93756e-14
3.68539e-14
4.30624e-14
5.22416e-14
4.78982e-14
4.55074e-14
5.91484e-14
5.40855e-14
5.13813e-14
5.22537e-14
5.0479e-14
5.47186e-14
5.67877e-14
5.71008e-14
6.24851e-14
5.4056e-14
5.25577e-14
5.64067e-14
6.2619e-14
5.74622e-14
6.23499e-14
6.1491e-14
6.48882e-14
6.57974e-14
6.90779e-14
6.94139e-14
7.07076e-14
6.96946e-14
6.53954e-14
6.718e-14
6.39556e-14
5.58164e-14
5.62225e-14
5.67573e-14
5.79876e-14
5.5876e-14
5.37585e-14
4.49718e-14
4.0247e-14
4.08385e-14
4.41534e-14
4.04647e-14
3.98974e-14
4.16907e-14
3.79968e-14
3.60605e-14
3.47362e-14
2.43795e-14
3.20517e-14
3.11071e-14
2.97531e-14
2.77493e-14
2.83448e-14
2.17625e-14
1.48365e-14
1.10854e-14
1.22158e-14
8.35526e-15
5.13808e-15
7.68673e-15
1.77248e-15
1.44607e-15
-1.52849e-15
1.21156e-13
1.20118e-13
1.21223e-13
1.20686e-13
1.21753e-13
1.19578e-13
1.21269e-13
1.23708e-13
1.16246e-13
1.09063e-13
9.27031e-14
8.89987e-14
8.99892e-14
9.49334e-14
1.0325e-13
8.71113e-14
7.95357e-14
8.78247e-14
8.18549e-14
6.11661e-14
5.20545e-14
4.59446e-14
5.02823e-14
5.11578e-14
5.77288e-14
5.79987e-14
5.70763e-14
5.0479e-14
4.07711e-14
5.30201e-14
6.20662e-14
5.46228e-14
4.5813e-14
3.47797e-14
3.36456e-14
3.90468e-14
4.52851e-14
4.41693e-14
4.15137e-14
4.30557e-14
4.64843e-14
4.15412e-14
4.7488e-14
5.61845e-14
5.43733e-14
5.25518e-14
5.64057e-14
5.44526e-14
5.83617e-14
5.46291e-14
5.05437e-14
5.50341e-14
5.82768e-14
5.62182e-14
5.01308e-14
5.88216e-14
5.65987e-14
6.44565e-14
6.0948e-14
6.81058e-14
7.32168e-14
7.05511e-14
7.06941e-14
7.03685e-14
6.92282e-14
6.00108e-14
6.39139e-14
6.09784e-14
5.35574e-14
6.3078e-14
6.61823e-14
5.67086e-14
5.7038e-14
5.56124e-14
5.03263e-14
3.61611e-14
4.00406e-14
4.24559e-14
4.06742e-14
3.91328e-14
3.60195e-14
4.31483e-14
3.89558e-14
3.50835e-14
2.32157e-14
2.92909e-14
3.28211e-14
3.11757e-14
2.5877e-14
2.47671e-14
2.10105e-14
1.09317e-14
1.14224e-14
9.75685e-15
5.73771e-15
-1.93487e-15
1.50956e-15
4.53734e-15
3.64266e-15
-5.96826e-16
1.15791e-13
1.17155e-13
1.19034e-13
1.22113e-13
1.24504e-13
1.20549e-13
1.16717e-13
1.18486e-13
1.15216e-13
1.13092e-13
9.60337e-14
8.84525e-14
8.79806e-14
9.75698e-14
9.31193e-14
9.35544e-14
8.73267e-14
8.41492e-14
7.91037e-14
6.60544e-14
5.86299e-14
4.2994e-14
4.01438e-14
4.5512e-14
5.6261e-14
5.36823e-14
4.89201e-14
4.95769e-14
5.18607e-14
4.97468e-14
5.30012e-14
4.47477e-14
4.14344e-14
4.66797e-14
4.34094e-14
3.64859e-14
4.32289e-14
3.83661e-14
4.14517e-14
4.0379e-14
4.92887e-14
4.94082e-14
4.79032e-14
5.54753e-14
5.81114e-14
5.33959e-14
5.22609e-14
5.11823e-14
5.67584e-14
5.24592e-14
5.51064e-14
5.79919e-14
5.2749e-14
5.55837e-14
5.27367e-14
6.19466e-14
6.19157e-14
6.80106e-14
6.15531e-14
6.05989e-14
6.649e-14
6.58549e-14
6.52015e-14
6.72802e-14
6.79746e-14
6.38419e-14
6.13843e-14
6.06146e-14
6.77109e-14
6.95064e-14
6.43217e-14
6.10468e-14
5.69632e-14
5.91307e-14
4.85252e-14
3.17229e-14
4.10102e-14
4.67443e-14
4.59184e-14
4.27304e-14
3.7529e-14
4.2003e-14
3.01193e-14
3.1256e-14
2.7818e-14
2.32608e-14
3.25671e-14
3.53693e-14
2.97843e-14
2.23838e-14
2.07246e-14
7.53212e-15
8.03781e-15
6.07821e-15
7.03994e-15
-1.8168e-15
-4.97211e-17
-5.30545e-15
-3.92554e-15
1.25578e-15
1.17427e-13
1.17027e-13
1.20195e-13
1.21981e-13
1.23643e-13
1.16735e-13
1.18942e-13
1.18994e-13
1.14333e-13
1.05144e-13
9.93346e-14
9.56079e-14
8.75533e-14
9.58452e-14
9.60284e-14
9.17733e-14
8.78434e-14
8.37868e-14
7.7984e-14
7.26658e-14
5.61194e-14
5.41923e-14
5.36162e-14
4.72437e-14
5.36537e-14
5.04469e-14
4.51924e-14
4.76292e-14
4.7952e-14
4.75153e-14
4.71649e-14
4.52362e-14
3.82364e-14
3.8546e-14
3.83225e-14
3.92808e-14
4.11518e-14
4.27629e-14
4.25033e-14
3.99934e-14
4.90438e-14
4.82945e-14
4.77397e-14
5.6266e-14
5.62982e-14
5.1447e-14
5.14286e-14
4.99138e-14
5.39922e-14
5.23063e-14
5.00962e-14
6.0938e-14
5.95178e-14
5.98284e-14
5.92217e-14
5.92175e-14
5.86752e-14
6.01953e-14
5.92556e-14
6.33495e-14
6.81389e-14
7.14585e-14
6.71313e-14
6.37144e-14
6.51517e-14
6.5944e-14
6.75542e-14
6.29506e-14
6.15387e-14
6.02214e-14
6.36862e-14
6.9069e-14
6.47708e-14
5.49336e-14
4.6903e-14
3.54849e-14
3.40968e-14
4.27259e-14
4.59269e-14
4.89726e-14
3.75283e-14
3.1237e-14
3.31899e-14
3.41293e-14
2.87545e-14
2.81148e-14
2.9027e-14
3.22115e-14
3.49007e-14
2.19955e-14
1.55669e-14
2.99407e-15
3.93123e-15
2.82526e-15
5.68927e-15
3.51275e-15
-3.69755e-15
-5.57601e-15
-7.50596e-15
-4.57687e-16
1.15408e-13
1.15985e-13
1.13579e-13
1.21939e-13
1.20858e-13
1.1715e-13
1.15824e-13
1.19792e-13
1.11642e-13
1.01472e-13
9.7329e-14
1.01486e-13
9.38772e-14
1.00234e-13
9.76505e-14
9.39348e-14
8.96682e-14
8.10367e-14
8.00653e-14
7.46801e-14
5.22203e-14
4.12851e-14
4.22581e-14
4.89314e-14
5.10104e-14
4.57611e-14
4.50847e-14
5.28711e-14
5.07011e-14
5.29508e-14
4.72222e-14
3.47029e-14
3.45015e-14
3.67546e-14
3.83368e-14
3.87423e-14
4.00448e-14
4.41899e-14
4.51111e-14
3.74207e-14
4.13101e-14
5.06818e-14
5.30123e-14
5.82977e-14
5.53851e-14
4.2677e-14
4.81847e-14
4.94507e-14
5.63327e-14
5.64524e-14
5.39403e-14
5.71608e-14
5.34289e-14
5.56344e-14
6.36184e-14
7.06857e-14
6.2636e-14
5.28106e-14
5.19327e-14
5.84905e-14
6.77321e-14
6.4135e-14
5.98318e-14
6.78509e-14
6.48484e-14
7.2679e-14
6.70016e-14
6.32379e-14
6.27418e-14
6.36967e-14
5.92999e-14
6.7824e-14
7.47979e-14
6.09062e-14
4.64357e-14
3.81868e-14
4.10691e-14
4.27157e-14
3.85746e-14
4.16979e-14
3.6946e-14
3.24088e-14
3.36089e-14
3.26793e-14
3.0359e-14
2.85493e-14
2.87048e-14
3.29192e-14
3.24062e-14
2.23905e-14
1.30205e-14
4.91393e-15
-2.4263e-15
1.27269e-15
5.96821e-15
2.91173e-15
-1.79356e-15
-6.83714e-15
-9.34543e-15
-2.70656e-15
1.13077e-13
1.21264e-13
1.16921e-13
1.16626e-13
1.17136e-13
1.17934e-13
1.14321e-13
1.20484e-13
1.10852e-13
9.66674e-14
9.80689e-14
9.63091e-14
9.73139e-14
1.03043e-13
9.80068e-14
9.06448e-14
7.85254e-14
7.05335e-14
7.16292e-14
7.77049e-14
7.77891e-14
7.11925e-14
5.84621e-14
4.24575e-14
3.74069e-14
3.71636e-14
3.91329e-14
4.13174e-14
4.91343e-14
5.24966e-14
4.64249e-14
3.62966e-14
3.15106e-14
3.32774e-14
2.84653e-14
4.08608e-14
4.60408e-14
4.98208e-14
3.84741e-14
3.5201e-14
4.65628e-14
4.96233e-14
5.09182e-14
5.19286e-14
4.47517e-14
4.05233e-14
4.95969e-14
4.92934e-14
5.71083e-14
5.54781e-14
5.88467e-14
5.85827e-14
5.60681e-14
5.6733e-14
6.21484e-14
6.26187e-14
6.33765e-14
5.65095e-14
5.73329e-14
5.97862e-14
6.19313e-14
6.00905e-14
5.78474e-14
6.56479e-14
6.88941e-14
6.83524e-14
7.0337e-14
6.46117e-14
6.61345e-14
6.58812e-14
6.06365e-14
6.31754e-14
6.46215e-14
5.76182e-14
4.83633e-14
4.53781e-14
3.73975e-14
3.98482e-14
4.01832e-14
4.46261e-14
3.67477e-14
3.38802e-14
3.09831e-14
3.10925e-14
2.89955e-14
2.88449e-14
3.00922e-14
3.30514e-14
2.99019e-14
2.50473e-14
9.35871e-15
8.24311e-15
1.93296e-15
-3.55737e-16
4.48708e-16
-6.56308e-16
-2.92323e-15
-3.9048e-15
-2.48392e-15
-4.27566e-15
1.10167e-13
1.15602e-13
1.1821e-13
1.16376e-13
1.19445e-13
1.22109e-13
1.11491e-13
1.06403e-13
1.03711e-13
1.02507e-13
1.07223e-13
1.053e-13
1.03414e-13
9.47617e-14
9.30086e-14
9.45577e-14
8.98961e-14
8.18049e-14
7.87239e-14
7.57275e-14
6.49859e-14
4.52416e-14
4.71751e-14
3.80962e-14
4.20515e-14
4.42586e-14
4.37619e-14
4.05606e-14
4.65153e-14
5.25162e-14
4.52143e-14
4.06487e-14
3.22662e-14
2.70967e-14
2.29291e-14
4.15911e-14
4.69302e-14
4.96982e-14
4.73618e-14
3.97371e-14
4.08651e-14
4.44071e-14
4.52933e-14
4.63714e-14
4.46697e-14
4.37777e-14
5.10392e-14
4.99797e-14
5.39735e-14
5.56801e-14
6.02357e-14
5.54003e-14
5.52137e-14
5.45076e-14
5.44558e-14
5.58249e-14
6.32698e-14
6.11725e-14
5.57291e-14
5.98838e-14
6.33411e-14
6.29814e-14
5.9995e-14
6.80726e-14
6.42594e-14
6.12091e-14
6.41259e-14
6.82936e-14
6.72461e-14
6.78061e-14
6.20164e-14
6.23199e-14
6.66589e-14
5.99948e-14
5.3006e-14
3.61596e-14
3.5399e-14
4.2277e-14
4.5744e-14
4.26818e-14
3.48528e-14
3.85172e-14
3.04472e-14
2.64298e-14
2.82718e-14
2.95203e-14
3.01195e-14
2.82787e-14
2.77615e-14
2.12117e-14
1.13581e-14
7.36421e-15
4.23498e-15
6.80764e-16
-1.86218e-15
-4.52327e-15
-3.8358e-15
-4.67152e-15
-2.99618e-15
1.66473e-16
1.15919e-13
1.21533e-13
1.21489e-13
1.15929e-13
1.16665e-13
1.22229e-13
1.22727e-13
1.15229e-13
1.00736e-13
9.5744e-14
9.35526e-14
1.04033e-13
1.00774e-13
9.8718e-14
9.81658e-14
9.32197e-14
8.72319e-14
7.71451e-14
6.84718e-14
7.71825e-14
7.39541e-14
5.51636e-14
5.14639e-14
4.35882e-14
4.24257e-14
4.12245e-14
4.21124e-14
4.00766e-14
4.44656e-14
5.33348e-14
4.48732e-14
3.34442e-14
2.89327e-14
2.91461e-14
2.55293e-14
4.16881e-14
4.50516e-14
5.13652e-14
5.12706e-14
4.15191e-14
4.23502e-14
3.99877e-14
4.59808e-14
4.57104e-14
4.04518e-14
4.32982e-14
5.14081e-14
5.07497e-14
5.08377e-14
5.05981e-14
5.74742e-14
5.33118e-14
5.75586e-14
5.00026e-14
5.54875e-14
5.68753e-14
5.72684e-14
6.4661e-14
6.42666e-14
6.04433e-14
6.59147e-14
6.13065e-14
5.83113e-14
6.33215e-14
6.58491e-14
6.48888e-14
6.32876e-14
5.95075e-14
6.26966e-14
7.30344e-14
6.62455e-14
6.16655e-14
6.94996e-14
5.86235e-14
5.0049e-14
3.77704e-14
4.15265e-14
4.10369e-14
4.0191e-14
3.65842e-14
3.43666e-14
4.02543e-14
3.11522e-14
2.73716e-14
3.38425e-14
3.01202e-14
2.56327e-14
2.60212e-14
2.70474e-14
1.94369e-14
7.8967e-15
3.26485e-15
-2.08857e-16
3.3904e-16
-7.47729e-16
-2.38997e-15
-3.07128e-15
-1.00978e-14
-1.76521e-15
-1.23194e-15
1.22492e-13
1.21545e-13
1.17446e-13
1.14408e-13
1.13912e-13
1.15454e-13
1.09119e-13
1.19036e-13
1.17655e-13
1.08193e-13
1.05465e-13
1.02542e-13
9.48589e-14
9.41697e-14
9.84912e-14
9.39095e-14
8.30018e-14
8.68263e-14
7.92268e-14
7.34932e-14
5.77597e-14
4.28611e-14
5.48086e-14
5.29464e-14
4.35274e-14
3.88494e-14
4.17157e-14
3.68066e-14
4.33495e-14
5.08069e-14
4.42171e-14
3.44287e-14
2.47406e-14
2.63621e-14
2.91816e-14
4.118e-14
4.89672e-14
5.36477e-14
5.56569e-14
4.38636e-14
3.68987e-14
3.41939e-14
4.21204e-14
4.52322e-14
4.23515e-14
4.6598e-14
4.41623e-14
4.52998e-14
4.91485e-14
4.80307e-14
5.50658e-14
5.40155e-14
5.1927e-14
5.19631e-14
5.05191e-14
5.41237e-14
5.60439e-14
6.03889e-14
6.62317e-14
6.12598e-14
6.50888e-14
6.49614e-14
6.23103e-14
6.59173e-14
6.74715e-14
6.40945e-14
6.24509e-14
5.71544e-14
5.86458e-14
7.20379e-14
6.41141e-14
6.16933e-14
6.2392e-14
5.67082e-14
5.29544e-14
4.19804e-14
3.89225e-14
3.52005e-14
3.80333e-14
3.98393e-14
3.98314e-14
3.24228e-14
2.74184e-14
2.61198e-14
2.8421e-14
3.06672e-14
2.81052e-14
2.43706e-14
2.06425e-14
1.49318e-14
8.82764e-15
-6.01195e-17
2.00758e-16
3.48701e-15
-1.70785e-16
-7.37799e-15
-3.87846e-15
-7.81621e-15
-2.02339e-15
-3.67279e-15
1.25709e-13
1.20374e-13
1.19352e-13
1.22244e-13
1.2287e-13
1.21658e-13
1.07722e-13
1.11864e-13
1.09602e-13
1.10072e-13
1.12347e-13
1.09949e-13
9.72354e-14
9.10466e-14
9.00839e-14
8.32605e-14
8.69156e-14
8.87474e-14
8.19064e-14
7.42286e-14
6.69138e-14
4.55608e-14
4.8921e-14
5.19443e-14
4.43856e-14
3.74478e-14
4.04252e-14
4.56909e-14
4.90838e-14
4.90783e-14
4.26476e-14
3.61509e-14
3.1477e-14
2.73737e-14
2.74049e-14
3.92057e-14
4.67397e-14
5.2026e-14
4.98103e-14
4.56522e-14
3.80746e-14
3.69977e-14
3.94994e-14
3.83002e-14
4.15621e-14
4.70635e-14
4.4543e-14
3.93049e-14
4.26107e-14
4.19109e-14
5.10042e-14
5.31131e-14
5.07105e-14
4.56366e-14
5.47229e-14
5.91414e-14
5.62612e-14
6.02423e-14
5.97581e-14
5.97846e-14
6.8762e-14
6.67165e-14
6.37317e-14
6.82907e-14
6.38184e-14
5.90045e-14
5.87625e-14
5.75002e-14
5.68484e-14
6.04863e-14
6.213e-14
6.23063e-14
6.24359e-14
5.43516e-14
5.41456e-14
4.11303e-14
3.85343e-14
3.62229e-14
3.99891e-14
3.92088e-14
3.31752e-14
2.98056e-14
2.71461e-14
2.74107e-14
2.26663e-14
1.51193e-14
2.36042e-14
2.52684e-14
2.20026e-14
8.76626e-15
4.35654e-15
-2.44671e-15
6.03e-16
3.35694e-15
-1.78628e-15
-8.71224e-15
-2.12389e-16
-7.94259e-15
-2.64468e-15
-3.2425e-15
1.2021e-13
1.21337e-13
1.23042e-13
1.19162e-13
1.18055e-13
1.14585e-13
1.10079e-13
1.14737e-13
1.15905e-13
1.20961e-13
1.12556e-13
1.05556e-13
1.02117e-13
9.75802e-14
9.16367e-14
8.81261e-14
8.45599e-14
8.75258e-14
8.2475e-14
7.05603e-14
6.08654e-14
5.04638e-14
5.45556e-14
5.55975e-14
4.01294e-14
3.91013e-14
4.31136e-14
5.04298e-14
5.13665e-14
4.79841e-14
4.01503e-14
3.86357e-14
3.27951e-14
2.63443e-14
3.09521e-14
3.84e-14
5.43924e-14
5.05519e-14
4.17708e-14
3.61439e-14
3.71815e-14
4.47521e-14
3.84927e-14
3.91899e-14
3.99665e-14
3.93217e-14
4.50869e-14
4.34249e-14
4.96029e-14
4.00641e-14
4.8196e-14
4.94906e-14
4.61918e-14
4.73724e-14
5.24528e-14
6.41436e-14
5.56459e-14
5.66447e-14
5.44364e-14
5.64189e-14
6.92844e-14
7.12982e-14
6.68708e-14
6.60425e-14
5.70227e-14
5.59435e-14
5.61927e-14
5.83668e-14
5.62787e-14
5.73581e-14
5.38493e-14
6.36685e-14
6.16853e-14
5.26281e-14
4.82743e-14
4.29374e-14
3.81722e-14
3.55667e-14
3.54605e-14
3.06015e-14
3.64664e-14
3.2e-14
2.50068e-14
2.01109e-14
1.72128e-14
1.532e-14
2.02766e-14
2.11936e-14
1.30156e-14
1.02235e-14
2.76024e-15
2.90395e-15
8.29419e-17
-2.47284e-15
-6.13689e-15
-6.34271e-15
-3.89482e-15
-7.1807e-15
-7.3235e-15
-2.77382e-15
1.2184e-13
1.21732e-13
1.26606e-13
1.20576e-13
1.14951e-13
1.13732e-13
1.09194e-13
1.19321e-13
1.19505e-13
1.19332e-13
1.11499e-13
1.09704e-13
1.04867e-13
9.74238e-14
9.57738e-14
9.21031e-14
7.89489e-14
7.81062e-14
7.94425e-14
7.96772e-14
6.96014e-14
5.68311e-14
4.66182e-14
4.63973e-14
4.32637e-14
4.47385e-14
4.78657e-14
5.30157e-14
4.91231e-14
4.78277e-14
4.07376e-14
3.84486e-14
3.9326e-14
3.05228e-14
3.17977e-14
3.63472e-14
4.66197e-14
4.77901e-14
4.07705e-14
3.36662e-14
2.83491e-14
3.83824e-14
4.16006e-14
4.84524e-14
4.60838e-14
3.73077e-14
4.14209e-14
4.21961e-14
4.35669e-14
4.14581e-14
5.26165e-14
4.65406e-14
4.53361e-14
4.56475e-14
4.87684e-14
5.6876e-14
5.72683e-14
6.11149e-14
5.52675e-14
5.68544e-14
6.42623e-14
7.00399e-14
6.83763e-14
6.23048e-14
5.70566e-14
5.47939e-14
5.42941e-14
5.62667e-14
5.44747e-14
5.63611e-14
5.49221e-14
6.18165e-14
5.83749e-14
4.59692e-14
4.34241e-14
4.62775e-14
3.63498e-14
3.54656e-14
4.0622e-14
3.88895e-14
3.02266e-14
2.20879e-14
2.36958e-14
1.88418e-14
1.9564e-14
1.56608e-14
1.18084e-14
1.47188e-14
1.27946e-14
6.20538e-15
3.57796e-15
2.45736e-15
8.91935e-16
-5.70908e-15
-1.17585e-14
3.38424e-15
-2.08323e-15
-1.24083e-14
-7.38471e-15
4.90558e-15
1.27402e-13
1.21159e-13
1.2285e-13
1.1971e-13
1.11335e-13
1.1483e-13
1.1442e-13
1.18437e-13
1.20299e-13
1.16466e-13
1.14459e-13
1.14806e-13
1.10616e-13
1.02157e-13
9.42189e-14
9.05722e-14
8.94003e-14
8.28904e-14
7.72202e-14
7.14085e-14
6.52328e-14
5.64251e-14
4.50397e-14
4.55744e-14
4.16925e-14
4.92984e-14
4.90578e-14
5.14775e-14
4.86181e-14
4.76445e-14
4.04155e-14
4.01572e-14
3.6063e-14
3.22778e-14
3.03774e-14
3.5014e-14
4.02168e-14
4.49363e-14
4.57663e-14
4.19388e-14
3.4382e-14
3.57322e-14
3.68211e-14
4.18163e-14
4.11901e-14
3.75193e-14
4.04566e-14
4.05225e-14
4.14342e-14
4.47002e-14
4.7833e-14
3.87498e-14
4.37488e-14
4.52163e-14
5.37759e-14
5.67739e-14
5.69931e-14
6.16753e-14
6.01787e-14
6.15256e-14
5.95804e-14
6.21889e-14
6.34067e-14
5.60828e-14
5.14452e-14
5.60379e-14
5.82373e-14
5.15643e-14
5.12912e-14
5.77035e-14
5.95565e-14
5.6768e-14
5.52405e-14
4.74569e-14
4.49283e-14
4.29055e-14
3.76672e-14
4.24225e-14
3.9169e-14
3.80952e-14
2.71058e-14
1.98667e-14
1.96737e-14
1.51697e-14
1.14201e-14
8.83601e-15
9.06208e-15
1.52981e-14
1.45272e-14
8.88092e-15
5.89979e-15
1.89269e-15
-1.11058e-15
-1.42888e-15
-9.46747e-15
-5.93849e-15
-1.13343e-14
-4.83344e-15
-2.60286e-15
1.35007e-15
1.28612e-13
1.24924e-13
1.23816e-13
1.21587e-13
1.20278e-13
1.16037e-13
1.12186e-13
1.16055e-13
1.20785e-13
1.22825e-13
1.19019e-13
1.09383e-13
1.09283e-13
1.05516e-13
9.49019e-14
8.64753e-14
8.66104e-14
7.88716e-14
7.95709e-14
7.50841e-14
6.92848e-14
6.12565e-14
4.84652e-14
4.31428e-14
4.10518e-14
4.76565e-14
4.87494e-14
5.31491e-14
4.4784e-14
4.81891e-14
4.56121e-14
4.40753e-14
4.51313e-14
3.08262e-14
2.25931e-14
3.29005e-14
4.05911e-14
4.1523e-14
4.4452e-14
3.9076e-14
3.54649e-14
3.4755e-14
3.88114e-14
3.63272e-14
4.11593e-14
3.96315e-14
3.96825e-14
3.86638e-14
3.71433e-14
3.74368e-14
4.97169e-14
4.38022e-14
5.06232e-14
4.38037e-14
4.94955e-14
4.96276e-14
5.12543e-14
5.75553e-14
5.66545e-14
6.06005e-14
6.57771e-14
5.97316e-14
5.93954e-14
5.90766e-14
5.38405e-14
5.46993e-14
5.53827e-14
5.85549e-14
5.33462e-14
5.21975e-14
5.35812e-14
6.14943e-14
5.5036e-14
4.85498e-14
4.60761e-14
3.81056e-14
3.96951e-14
3.90831e-14
3.95665e-14
3.68797e-14
2.96273e-14
1.92274e-14
1.55549e-14
1.36041e-14
1.36548e-14
3.78518e-15
8.56447e-15
9.59281e-15
1.48212e-14
3.13132e-15
-4.99381e-15
1.55488e-15
-2.21149e-15
2.78215e-17
-6.35751e-15
-8.84428e-15
-7.45698e-15
-6.00656e-16
-8.64652e-15
-2.46755e-15
1.27956e-13
1.27259e-13
1.267e-13
1.24718e-13
1.16483e-13
1.18094e-13
1.13479e-13
1.124e-13
1.18965e-13
1.22935e-13
1.20632e-13
1.18072e-13
1.12002e-13
1.03358e-13
9.35097e-14
8.84782e-14
9.15101e-14
8.86025e-14
8.13234e-14
7.41678e-14
6.40352e-14
4.81541e-14
4.30318e-14
4.9568e-14
5.38523e-14
4.63703e-14
4.3594e-14
4.40705e-14
4.30219e-14
5.38867e-14
5.10005e-14
3.71596e-14
3.44474e-14
3.43649e-14
3.65329e-14
3.70156e-14
4.38036e-14
4.18416e-14
3.75617e-14
3.94419e-14
3.43083e-14
3.43946e-14
3.18657e-14
3.76649e-14
4.35087e-14
3.89217e-14
3.80964e-14
3.42342e-14
3.8309e-14
4.3295e-14
3.86869e-14
4.67613e-14
4.76674e-14
4.81631e-14
4.78531e-14
4.44898e-14
4.42173e-14
5.21921e-14
6.0949e-14
5.85095e-14
5.49851e-14
5.27509e-14
5.99318e-14
6.38022e-14
5.11911e-14
5.1818e-14
4.98253e-14
5.05653e-14
6.04495e-14
5.67467e-14
4.98482e-14
5.17064e-14
5.33057e-14
5.00697e-14
4.89805e-14
4.70531e-14
3.56426e-14
3.75601e-14
4.46825e-14
4.03812e-14
2.80615e-14
1.84087e-14
3.60705e-15
7.57891e-15
7.41144e-15
6.65757e-15
7.64236e-15
1.01039e-14
9.80348e-15
4.34668e-15
2.31469e-15
4.20859e-15
1.25091e-15
2.47348e-15
-9.26538e-15
-1.14978e-14
-8.33623e-15
2.35993e-15
-2.28314e-15
-1.72749e-15
1.31549e-13
1.23883e-13
1.21954e-13
1.22953e-13
1.25145e-13
1.22125e-13
1.23335e-13
1.22753e-13
1.17022e-13
1.1901e-13
1.18564e-13
1.12898e-13
1.06066e-13
1.02976e-13
9.56011e-14
8.79727e-14
8.44941e-14
7.84485e-14
6.93845e-14
7.20617e-14
7.10348e-14
5.61144e-14
4.90182e-14
5.00683e-14
4.78809e-14
4.53135e-14
4.62144e-14
5.14807e-14
5.32392e-14
4.69717e-14
4.33573e-14
4.67149e-14
4.3439e-14
3.64651e-14
3.35599e-14
3.38494e-14
4.15206e-14
3.6586e-14
3.60542e-14
3.60789e-14
3.72219e-14
3.3692e-14
3.6326e-14
3.81641e-14
3.90371e-14
3.58298e-14
3.17501e-14
3.96839e-14
4.2671e-14
3.94807e-14
3.67487e-14
4.23323e-14
4.24919e-14
4.2277e-14
4.07634e-14
4.64069e-14
4.85929e-14
5.3197e-14
5.29825e-14
4.91418e-14
5.90545e-14
5.33928e-14
5.46496e-14
5.55187e-14
4.87287e-14
5.26968e-14
4.93885e-14
5.49857e-14
5.84099e-14
5.75106e-14
4.67764e-14
5.06975e-14
4.93664e-14
4.28945e-14
4.80195e-14
4.18786e-14
3.94249e-14
3.64462e-14
3.71469e-14
3.90886e-14
2.71457e-14
1.46022e-14
1.07684e-14
9.75121e-15
6.84348e-15
5.45715e-15
7.25994e-15
5.14475e-15
9.06872e-15
7.20177e-15
3.67391e-15
4.08288e-15
-1.99293e-16
6.55735e-15
-6.23509e-15
-7.90213e-15
-7.36312e-15
-1.25722e-15
-6.45641e-16
-2.55355e-15
1.31565e-13
1.24382e-13
1.28943e-13
1.28032e-13
1.18304e-13
1.21875e-13
1.21721e-13
1.13605e-13
1.15982e-13
1.24315e-13
1.25653e-13
1.13331e-13
1.04944e-13
1.01351e-13
9.56098e-14
8.70403e-14
8.38629e-14
8.43619e-14
7.95011e-14
7.24504e-14
6.27529e-14
4.95798e-14
4.46886e-14
5.55408e-14
5.05089e-14
5.11133e-14
4.81462e-14
4.4973e-14
4.68274e-14
4.18412e-14
4.75361e-14
4.52219e-14
4.32919e-14
4.01947e-14
4.23639e-14
3.4522e-14
3.78206e-14
3.90409e-14
3.20497e-14
3.33449e-14