/*--------------------------------*- C++ -*----------------------------------*\
| =========                 |                                                 |
| \\      /  F ield         | OpenFOAM: The Open Source CFD Toolbox           |
|  \\    /   O peration     | Version:  v2012                                 |
|   \\  /    A nd           | Website:  www.openfoam.com                      |
|    \\/     M anipulation  |                                                 |
\*---------------------------------------------------------------------------*/
FoamFile
{
    version     2.0;
    format      ascii;
    class       surfaceScalarField;
    location    "12.75";
    object      phi;
}
// * * * * * * * * * * * * * * * * * * * * * * * * * * * * * * * * * * * * * //

dimensions      [0 3 -1 0 0 0 0];
oriented        oriented;


internalField   nonuniform List<scalar> 
130560
(
3.55312e-06
-3.55312e-06
7.10644e-06
-3.55332e-06
1.06601e-05
-3.5537e-06
1.42144e-05
-3.55428e-06
1.77695e-05
-3.55505e-06
2.13255e-05
-3.55601e-06
2.48826e-05
-3.55715e-06
2.84411e-05
-3.55847e-06
3.20011e-05
-3.55996e-06
3.55627e-05
-3.56163e-06
3.91262e-05
-3.56346e-06
4.26916e-05
-3.56545e-06
4.62592e-05
-3.56759e-06
4.98291e-05
-3.56987e-06
5.34014e-05
-3.57229e-06
5.69762e-05
-3.57483e-06
6.05537e-05
-3.57749e-06
6.41339e-05
-3.58025e-06
6.7717e-05
-3.5831e-06
7.13031e-05
-3.58603e-06
7.48921e-05
-3.58903e-06
7.84842e-05
-3.59208e-06
8.20793e-05
-3.59517e-06
8.56776e-05
-3.59829e-06
8.9279e-05
-3.60141e-06
9.28836e-05
-3.60452e-06
9.64912e-05
-3.60761e-06
0.000100102
-3.61065e-06
0.000103715
-3.61363e-06
0.000107332
-3.61652e-06
0.000110951
-3.6193e-06
0.000114573
-3.62196e-06
0.000118198
-3.62447e-06
0.000121824
-3.6268e-06
0.000125453
-3.62894e-06
0.000129084
-3.63085e-06
0.000132717
-3.63251e-06
0.000136351
-3.6339e-06
0.000139986
-3.63499e-06
0.000143621
-3.63574e-06
0.000147258
-3.63614e-06
0.000150894
-3.63614e-06
0.000154529
-3.63573e-06
0.000158164
-3.63486e-06
0.000161798
-3.6335e-06
0.000165429
-3.63163e-06
0.000169059
-3.62921e-06
0.000172685
-3.62621e-06
0.000176307
-3.62258e-06
0.000179926
-3.6183e-06
0.000183539
-3.61333e-06
0.000187147
-3.60763e-06
0.000190748
-3.60117e-06
0.000194342
-3.59391e-06
0.000197928
-3.58581e-06
0.000201504
-3.57684e-06
0.000205071
-3.56695e-06
0.000208627
-3.55611e-06
0.000212172
-3.54429e-06
0.000215703
-3.53143e-06
0.000219221
-3.51752e-06
0.000222723
-3.5025e-06
0.00022621
-3.48634e-06
0.000229679
-3.469e-06
0.000233129
-3.45046e-06
0.00023656
-3.43067e-06
0.000239969
-3.40959e-06
0.000243356
-3.3872e-06
0.00024672
-3.36346e-06
0.000250058
-3.33834e-06
0.00025337
-3.31181e-06
0.000256654
-3.28384e-06
0.000259908
-3.2544e-06
0.000263132
-3.22346e-06
0.000266323
-3.191e-06
0.00026948
-3.157e-06
0.000272601
-3.12143e-06
0.000275686
-3.08428e-06
0.000278731
-3.04553e-06
0.000281736
-3.00516e-06
0.000284699
-2.96317e-06
0.000287619
-2.91953e-06
0.000290493
-2.87425e-06
0.000293321
-2.82732e-06
0.000296099
-2.77874e-06
0.000298828
-2.7285e-06
0.000301504
-2.67661e-06
0.000304127
-2.62309e-06
0.000306695
-2.56793e-06
0.000309207
-2.51115e-06
0.000311659
-2.45277e-06
0.000314052
-2.3928e-06
0.000316383
-2.33127e-06
0.000318652
-2.2682e-06
0.000320855
-2.20362e-06
0.000322993
-2.13756e-06
0.000325063
-2.07007e-06
0.000327064
-2.00116e-06
0.000328995
-1.93089e-06
0.000330854
-1.8593e-06
0.000332641
-1.78644e-06
0.000334353
-1.71235e-06
0.00033599
-1.6371e-06
0.000337551
-1.56072e-06
0.000339034
-1.48328e-06
0.000340439
-1.40485e-06
0.000341764
-1.32547e-06
0.00034301
-1.24523e-06
0.000344174
-1.16417e-06
0.000345256
-1.08238e-06
0.000346256
-9.99918e-07
0.000347173
-9.16856e-07
0.000348006
-8.33268e-07
0.000348755
-7.49226e-07
0.00034942
-6.64805e-07
0.00035
-5.8008e-07
0.000350495
-4.95126e-07
0.000350905
-4.10018e-07
0.00035123
-3.24832e-07
0.00035147
-2.39644e-07
0.000351624
-1.54529e-07
0.000351694
-6.95618e-08
0.000351679
1.51842e-08
0.000351579
9.96354e-08
0.000351395
1.8372e-07
0.000351128
2.67367e-07
0.000350778
3.50507e-07
0.000350345
4.33073e-07
0.00034983
5.14997e-07
0.000349233
5.96217e-07
0.000348557
6.76669e-07
0.0003478
7.56294e-07
0.000346965
8.35033e-07
0.000346052
9.12832e-07
0.000345063
9.89636e-07
0.000343997
1.0654e-06
0.000342857
1.14006e-06
0.000341644
1.21359e-06
0.000340358
1.28594e-06
0.000339001
1.35707e-06
0.000337574
1.42694e-06
0.000336078
1.49552e-06
0.000334516
1.56277e-06
0.000332887
1.62867e-06
0.000331194
1.6932e-06
0.000329437
1.75632e-06
0.000327619
1.81802e-06
0.000325741
1.87827e-06
0.000323804
1.93708e-06
0.00032181
1.99441e-06
0.000319759
2.05027e-06
0.000317655
2.10464e-06
0.000315497
2.15752e-06
0.000313288
2.20891e-06
0.000311029
2.2588e-06
0.000308722
2.30721e-06
0.000306368
2.35412e-06
0.000303969
2.39955e-06
0.000301525
2.44351e-06
0.000299039
2.486e-06
0.000296512
2.52705e-06
0.000293945
2.56665e-06
0.000291341
2.60482e-06
0.000288699
2.64159e-06
0.000286022
2.67697e-06
0.000283311
2.71097e-06
0.000280567
2.74362e-06
0.000277792
2.77494e-06
0.000274987
2.80495e-06
0.000272154
2.83368e-06
0.000269293
2.86115e-06
0.000266405
2.88738e-06
0.000263493
2.9124e-06
0.000260557
2.93623e-06
0.000257598
2.95891e-06
0.000254617
2.98045e-06
0.000251616
3.0009e-06
0.000248596
3.02027e-06
0.000245558
3.03859e-06
0.000242502
3.05589e-06
0.000239429
3.07221e-06
0.000236342
3.08756e-06
0.00023324
3.10198e-06
0.000230124
3.1155e-06
0.000226996
3.12814e-06
0.000223856
3.13994e-06
0.000220705
3.15092e-06
0.000217544
3.16111e-06
0.000214374
3.17054e-06
0.000211195
3.17923e-06
0.000208007
3.18722e-06
0.000204813
3.19453e-06
0.000201612
3.20119e-06
0.000198404
3.20722e-06
0.000195192
3.21265e-06
0.000191974
3.21751e-06
0.000188752
3.22183e-06
0.000185527
3.22561e-06
0.000182298
3.2289e-06
0.000179066
3.23172e-06
0.000175832
3.23408e-06
0.000172596
3.23601e-06
0.000169358
3.23754e-06
0.00016612
3.23869e-06
0.00016288
3.23947e-06
0.00015964
3.23991e-06
0.0001564
3.24003e-06
0.000153161
3.23985e-06
0.000149921
3.23939e-06
0.000146682
3.23867e-06
0.000143445
3.2377e-06
0.000140208
3.23651e-06
0.000136973
3.23511e-06
0.00013374
3.23352e-06
0.000130508
3.23176e-06
0.000127278
3.22984e-06
0.00012405
3.22777e-06
0.000120825
3.22557e-06
0.000117601
3.22327e-06
0.000114381
3.22086e-06
0.000111162
3.21837e-06
0.000107946
3.2158e-06
0.000104733
3.21318e-06
0.000101523
3.2105e-06
9.83149e-05
3.20779e-06
9.51099e-05
3.20506e-06
9.19076e-05
3.20231e-06
8.8708e-05
3.19956e-06
8.55112e-05
3.19682e-06
8.23171e-05
3.19409e-06
7.91257e-05
3.19139e-06
7.5937e-05
3.18872e-06
7.27509e-05
3.1861e-06
6.95674e-05
3.18352e-06
6.63864e-05
3.18101e-06
6.32078e-05
3.17856e-06
6.00316e-05
3.17618e-06
5.68577e-05
3.17389e-06
5.3686e-05
3.17167e-06
5.05165e-05
3.16956e-06
4.7349e-05
3.16753e-06
4.41834e-05
3.16561e-06
4.10196e-05
3.1638e-06
3.78575e-05
3.16209e-06
3.4697e-05
3.16051e-06
3.15379e-05
3.15904e-06
2.83802e-05
3.15769e-06
2.52237e-05
3.15647e-06
2.20684e-05
3.15538e-06
1.89139e-05
3.15442e-06
1.57603e-05
3.1536e-06
1.26074e-05
3.1529e-06
9.4551e-06
3.15235e-06
6.30317e-06
3.15193e-06
3.15151e-06
3.15165e-06
3.15151e-06
3.55293e-06
-7.10605e-06
7.10606e-06
-7.10644e-06
1.06596e-05
-7.10722e-06
1.42137e-05
-7.10838e-06
1.77685e-05
-7.10992e-06
2.13244e-05
-7.11183e-06
2.48813e-05
-7.11412e-06
2.84396e-05
-7.11676e-06
3.19994e-05
-7.11976e-06
3.55609e-05
-7.1231e-06
3.91242e-05
-7.12677e-06
4.26895e-05
-7.13075e-06
4.6257e-05
-7.13504e-06
4.98267e-05
-7.13961e-06
5.33989e-05
-7.14446e-06
5.69736e-05
-7.14955e-06
6.0551e-05
-7.15487e-06
6.41311e-05
-7.1604e-06
6.77141e-05
-7.16612e-06
7.13001e-05
-7.172e-06
7.48891e-05
-7.17801e-06
7.84811e-05
-7.18413e-06
8.20763e-05
-7.19033e-06
8.56746e-05
-7.19657e-06
8.9276e-05
-7.20283e-06
9.28805e-05
-7.20908e-06
9.64882e-05
-7.21527e-06
0.000100099
-7.22137e-06
0.000103713
-7.22734e-06
0.000107329
-7.23314e-06
0.000110949
-7.23873e-06
0.000114571
-7.24407e-06
0.000118195
-7.24911e-06
0.000121822
-7.2538e-06
0.000125452
-7.2581e-06
0.000129083
-7.26195e-06
0.000132715
-7.2653e-06
0.00013635
-7.26811e-06
0.000139985
-7.27031e-06
0.000143621
-7.27185e-06
0.000147258
-7.27267e-06
0.000150894
-7.27271e-06
0.00015453
-7.2719e-06
0.000158166
-7.2702e-06
0.0001618
-7.26753e-06
0.000165432
-7.26382e-06
0.000169062
-7.25901e-06
0.000172689
-7.25303e-06
0.000176312
-7.24582e-06
0.000179931
-7.23729e-06
0.000183545
-7.22739e-06
0.000187153
-7.21603e-06
0.000190755
-7.20315e-06
0.00019435
-7.18866e-06
0.000197937
-7.1725e-06
0.000201514
-7.15459e-06
0.000205082
-7.13485e-06
0.000208639
-7.11321e-06
0.000212185
-7.0896e-06
0.000215717
-7.06393e-06
0.000219236
-7.03613e-06
0.000222739
-7.00613e-06
0.000226227
-6.97385e-06
0.000229697
-6.93922e-06
0.000233149
-6.90216e-06
0.000236581
-6.86262e-06
0.000239992
-6.8205e-06
0.00024338
-6.77575e-06
0.000246745
-6.72831e-06
0.000250085
-6.6781e-06
0.000253398
-6.62507e-06
0.000256683
-6.56915e-06
0.000259939
-6.51029e-06
0.000263164
-6.44844e-06
0.000266357
-6.38355e-06
0.000269515
-6.31557e-06
0.000272638
-6.24445e-06
0.000275724
-6.17017e-06
0.000278772
-6.09268e-06
0.000281778
-6.01195e-06
0.000284743
-5.92797e-06
0.000287664
-5.84071e-06
0.00029054
-5.75015e-06
0.000293369
-5.65629e-06
0.00029615
-5.55912e-06
0.00029888
-5.45864e-06
0.000301558
-5.35487e-06
0.000304183
-5.2478e-06
0.000306752
-5.13747e-06
0.000309265
-5.0239e-06
0.000311719
-4.90711e-06
0.000314114
-4.78716e-06
0.000316446
-4.66407e-06
0.000318716
-4.5379e-06
0.000320921
-4.40872e-06
0.00032306
-4.27657e-06
0.000325132
-4.14153e-06
0.000327134
-4.00368e-06
0.000329066
-3.8631e-06
0.000330927
-3.71988e-06
0.000332715
-3.5741e-06
0.000334428
-3.42588e-06
0.000336066
-3.2753e-06
0.000337628
-3.12249e-06
0.000339112
-2.96756e-06
0.000340518
-2.81063e-06
0.000341845
-2.65182e-06
0.000343091
-2.49126e-06
0.000344256
-2.32908e-06
0.000345339
-2.16543e-06
0.000346339
-2.00043e-06
0.000347256
-1.83423e-06
0.00034809
-1.66698e-06
0.00034884
-1.49883e-06
0.000349505
-1.32991e-06
0.000350085
-1.16039e-06
0.00035058
-9.90401e-07
0.000350991
-8.2011e-07
0.000351315
-6.49663e-07
0.000351555
-4.79212e-07
0.000351709
-3.08907e-07
0.000351779
-1.38898e-07
0.000351763
3.06667e-08
0.000351663
1.99641e-07
0.000351479
3.67881e-07
0.000351211
5.35244e-07
0.00035086
7.01592e-07
0.000350426
8.66789e-07
0.000349911
1.0307e-06
0.000349314
1.1932e-06
0.000348636
1.35417e-06
0.000347879
1.51348e-06
0.000347043
1.67101e-06
0.000346129
1.82666e-06
0.000345138
1.98032e-06
0.000344072
2.13189e-06
0.000342931
2.28127e-06
0.000341716
2.42837e-06
0.000340429
2.57311e-06
0.000339071
2.7154e-06
0.000337642
2.85517e-06
0.000336145
2.99236e-06
0.000334581
3.1269e-06
0.000332951
3.25873e-06
0.000331257
3.3878e-06
0.000329499
3.51406e-06
0.000327679
3.63747e-06
0.0003258
3.75801e-06
0.000323861
3.87562e-06
0.000321865
3.9903e-06
0.000319814
4.10203e-06
0.000317707
4.21077e-06
0.000315548
4.31654e-06
0.000313338
4.41931e-06
0.000311078
4.5191e-06
0.000308769
4.6159e-06
0.000306413
4.70972e-06
0.000304012
4.80058e-06
0.000301567
4.88849e-06
0.00029908
4.97346e-06
0.000296551
5.05553e-06
0.000293983
5.13472e-06
0.000291377
5.21105e-06
0.000288734
5.28457e-06
0.000286056
5.3553e-06
0.000283343
5.42329e-06
0.000280599
5.48857e-06
0.000277822
5.55119e-06
0.000275016
5.61119e-06
0.000272181
5.66862e-06
0.000269319
5.72353e-06
0.00026643
5.77597e-06
0.000263517
5.82598e-06
0.000260579
5.87362e-06
0.000257619
5.91895e-06
0.000254638
5.96201e-06
0.000251636
6.00287e-06
0.000248614
6.04158e-06
0.000245575
6.0782e-06
0.000242518
6.11277e-06
0.000239445
6.14537e-06
0.000236356
6.17605e-06
0.000233253
6.20487e-06
0.000230137
6.23187e-06
0.000227008
6.25713e-06
0.000223867
6.2807e-06
0.000220715
6.30263e-06
0.000217554
6.32298e-06
0.000214382
6.34181e-06
0.000211202
6.35917e-06
0.000208014
6.37512e-06
0.000204819
6.38971e-06
0.000201617
6.403e-06
0.00019841
6.41504e-06
0.000195196
6.42588e-06
0.000191978
6.43557e-06
0.000188756
6.44417e-06
0.00018553
6.45172e-06
0.000182301
6.45828e-06
0.000179068
6.46388e-06
0.000175834
6.46858e-06
0.000172597
6.47243e-06
0.00016936
6.47547e-06
0.00016612
6.47773e-06
0.000162881
6.47928e-06
0.00015964
6.48014e-06
0.0001564
6.48036e-06
0.00015316
6.47999e-06
0.00014992
6.47905e-06
0.000146681
6.47758e-06
0.000143443
6.47563e-06
0.000140207
6.47323e-06
0.000136971
6.47042e-06
0.000133738
6.46722e-06
0.000130506
6.46367e-06
0.000127276
6.45981e-06
0.000124048
6.45566e-06
0.000120822
6.45126e-06
0.000117599
6.44663e-06
0.000114378
6.4418e-06
0.00011116
6.4368e-06
0.000107944
6.43166e-06
0.00010473
6.4264e-06
0.00010152
6.42104e-06
9.83121e-05
6.41561e-06
9.51071e-05
6.41013e-06
9.19047e-05
6.40462e-06
8.87052e-05
6.39911e-06
8.55084e-05
6.39362e-06
8.23143e-05
6.38815e-06
7.9123e-05
6.38274e-06
7.59343e-05
6.3774e-06
7.27483e-05
6.37214e-06
6.95648e-05
6.36698e-06
6.63839e-05
6.36195e-06
6.32054e-05
6.35704e-06
6.00293e-05
6.35228e-06
5.68555e-05
6.34768e-06
5.36839e-05
6.34326e-06
5.05144e-05
6.33901e-06
4.7347e-05
6.33496e-06
4.41815e-05
6.33111e-06
4.10178e-05
6.32748e-06
3.78558e-05
6.32407e-06
3.46955e-05
6.32089e-06
3.15365e-05
6.31795e-06
2.8379e-05
6.31526e-06
2.52226e-05
6.31282e-06
2.20674e-05
6.31063e-06
1.89131e-05
6.30871e-06
1.57596e-05
6.30705e-06
1.26069e-05
6.30567e-06
9.45467e-06
6.30455e-06
6.30288e-06
6.30372e-06
3.15137e-06
6.30316e-06
6.30289e-06
3.55254e-06
-1.06586e-05
7.10528e-06
-1.06592e-05
1.06584e-05
-1.06603e-05
1.42121e-05
-1.06621e-05
1.77666e-05
-1.06644e-05
2.13221e-05
-1.06673e-05
2.48787e-05
-1.06707e-05
2.84366e-05
-1.06747e-05
3.19961e-05
-1.06792e-05
3.55572e-05
-1.06842e-05
3.91202e-05
-1.06898e-05
4.26852e-05
-1.06958e-05
4.62524e-05
-1.07022e-05
4.98218e-05
-1.07091e-05
5.33938e-05
-1.07164e-05
5.69682e-05
-1.0724e-05
6.05454e-05
-1.0732e-05
6.41254e-05
-1.07404e-05
6.77082e-05
-1.0749e-05
7.12941e-05
-1.07578e-05
7.4883e-05
-1.07669e-05
7.84749e-05
-1.07761e-05
8.207e-05
-1.07854e-05
8.56683e-05
-1.07948e-05
8.92697e-05
-1.08043e-05
9.28743e-05
-1.08137e-05
9.64821e-05
-1.0823e-05
0.000100093
-1.08322e-05
0.000103707
-1.08412e-05
0.000107324
-1.085e-05
0.000110943
-1.08584e-05
0.000114566
-1.08665e-05
0.000118191
-1.08741e-05
0.000121818
-1.08812e-05
0.000125448
-1.08877e-05
0.000129079
-1.08935e-05
0.000132713
-1.08986e-05
0.000136347
-1.09029e-05
0.000139983
-1.09063e-05
0.00014362
-1.09087e-05
0.000147258
-1.091e-05
0.000150895
-1.09101e-05
0.000154532
-1.0909e-05
0.000158168
-1.09065e-05
0.000161803
-1.09026e-05
0.000165437
-1.08971e-05
0.000169068
-1.089e-05
0.000172696
-1.08811e-05
0.00017632
-1.08704e-05
0.000179941
-1.08577e-05
0.000183556
-1.08429e-05
0.000187166
-1.0826e-05
0.00019077
-1.08067e-05
0.000194366
-1.07851e-05
0.000197955
-1.07609e-05
0.000201534
-1.07342e-05
0.000205104
-1.07047e-05
0.000208663
-1.06723e-05
0.00021221
-1.0637e-05
0.000215745
-1.05986e-05
0.000219266
-1.0557e-05
0.000222772
-1.0512e-05
0.000226262
-1.04637e-05
0.000229734
-1.04119e-05
0.000233188
-1.03564e-05
0.000236623
-1.02971e-05
0.000240037
-1.0234e-05
0.000243428
-1.0167e-05
0.000246795
-1.00959e-05
0.000250138
-1.00207e-05
0.000253454
-9.9412e-06
0.000256742
-9.8574e-06
0.000260001
-9.76918e-06
0.000263229
-9.67647e-06
0.000266425
-9.57918e-06
0.000269587
-9.47726e-06
0.000272713
-9.37064e-06
0.000275802
-9.25925e-06
0.000278852
-9.14306e-06
0.000281862
-9.022e-06
0.00028483
-8.89605e-06
0.000287755
-8.76518e-06
0.000290634
-8.62936e-06
0.000293466
-8.48857e-06
0.00029625
-8.34281e-06
0.000298983
-8.19209e-06
0.000301665
-8.03641e-06
0.000304293
-7.87579e-06
0.000306866
-7.71026e-06
0.000309382
-7.53986e-06
0.000311839
-7.36464e-06
0.000314237
-7.18464e-06
0.000316573
-6.99995e-06
0.000318845
-6.81063e-06
0.000321053
-6.61677e-06
0.000323195
-6.41846e-06
0.00032527
-6.21582e-06
0.000327275
-6.00894e-06
0.00032921
-5.79796e-06
0.000331073
-5.583e-06
0.000332863
-5.36422e-06
0.000334579
-5.14175e-06
0.000336219
-4.91575e-06
0.000337783
-4.68639e-06
0.000339269
-4.45384e-06
0.000340677
-4.21829e-06
0.000342005
-3.97991e-06
0.000343253
-3.73891e-06
0.000344419
-3.49547e-06
0.000345504
-3.24982e-06
0.000346505
-3.00214e-06
0.000347424
-2.75267e-06
0.000348258
-2.50161e-06
0.000349009
-2.24919e-06
0.000349674
-1.99563e-06
0.000350255
-1.74115e-06
0.000350751
-1.48598e-06
0.000351161
-1.23036e-06
0.000351486
-9.74499e-07
0.000351725
-7.18634e-07
0.000351879
-4.6299e-07
0.000351948
-2.07791e-07
0.000351932
4.6739e-08
0.000351831
3.00381e-07
0.000351646
5.52918e-07
0.000351378
8.04137e-07
0.000351025
1.05383e-06
0.00035059
1.30179e-06
0.000350073
1.54782e-06
0.000349475
1.79173e-06
0.000348796
2.03332e-06
0.000348037
2.27243e-06
0.000347199
2.50887e-06
0.000346283
2.74248e-06
0.00034529
2.97309e-06
0.000344221
3.20057e-06
0.000343078
3.42475e-06
0.000341861
3.64551e-06
0.000340571
3.86271e-06
0.00033921
4.07625e-06
0.00033778
4.286e-06
0.00033628
4.49186e-06
0.000334713
4.69373e-06
0.00033308
4.89154e-06
0.000331383
5.0852e-06
0.000329622
5.27465e-06
0.0003278
5.45982e-06
0.000325917
5.64065e-06
0.000323976
5.81711e-06
0.000321977
5.98915e-06
0.000319922
6.15675e-06
0.000317813
6.31989e-06
0.000315651
6.47854e-06
0.000313438
6.63271e-06
0.000311175
6.78238e-06
0.000308863
6.92757e-06
0.000306504
7.06829e-06
0.0003041
7.20456e-06
0.000301652
7.33639e-06
0.000299162
7.46383e-06
0.000296631
7.5869e-06
0.00029406
7.70564e-06
0.000291451
7.8201e-06
0.000288805
7.93033e-06
0.000286124
8.03639e-06
0.000283409
8.13832e-06
0.000280661
8.23619e-06
0.000277882
8.33006e-06
0.000275074
8.42e-06
0.000272236
8.50609e-06
0.000269371
8.58839e-06
0.00026648
8.66697e-06
0.000263564
8.74193e-06
0.000260625
8.81332e-06
0.000257662
8.88125e-06
0.000254678
8.94577e-06
0.000251674
9.00699e-06
0.000248651
9.06499e-06
0.000245609
9.11984e-06
0.00024255
9.17164e-06
0.000239475
9.22046e-06
0.000236385
9.26641e-06
0.00023328
9.30956e-06
0.000230162
9.35e-06
0.000227032
9.38781e-06
0.000223889
9.42309e-06
0.000220736
9.45591e-06
0.000217572
9.48637e-06
0.0002144
9.51454e-06
0.000211218
9.54052e-06
0.000208029
9.56437e-06
0.000204833
9.5862e-06
0.00020163
9.60606e-06
0.000198421
9.62406e-06
0.000195206
9.64025e-06
0.000191987
9.65473e-06
0.000188764
9.66756e-06
0.000185537
9.67883e-06
0.000182306
9.6886e-06
0.000179073
9.69695e-06
0.000175838
9.70395e-06
0.000172601
9.70966e-06
0.000169362
9.71416e-06
0.000166122
9.71751e-06
0.000162882
9.71977e-06
0.000159641
9.72101e-06
0.0001564
9.7213e-06
0.000153159
9.72068e-06
0.000149919
9.71922e-06
0.000146679
9.71698e-06
0.000143441
9.71401e-06
0.000140204
9.71037e-06
0.000136968
9.7061e-06
0.000133734
9.70126e-06
0.000130502
9.6959e-06
0.000127272
9.69007e-06
0.000124044
9.68381e-06
0.000120818
9.67717e-06
0.000117594
9.67019e-06
0.000114373
9.66292e-06
0.000111154
9.65539e-06
0.000107938
9.64764e-06
0.000104725
9.63971e-06
0.000101515
9.63165e-06
9.83067e-05
9.62347e-06
9.51016e-05
9.61523e-06
9.18992e-05
9.60694e-06
8.86997e-05
9.59865e-06
8.55029e-05
9.59038e-06
8.23089e-05
9.58216e-06
7.91177e-05
9.57402e-06
7.59291e-05
9.56598e-06
7.27431e-05
9.55808e-06
6.95598e-05
9.55033e-06
6.6379e-05
9.54275e-06
6.32006e-05
9.53538e-06
6.00247e-05
9.52823e-06
5.68511e-05
9.52131e-06
5.36797e-05
9.51466e-06
5.05104e-05
9.50827e-06
4.73432e-05
9.50219e-06
4.41779e-05
9.4964e-06
4.10144e-05
9.49094e-06
3.78527e-05
9.48582e-06
3.46925e-05
9.48104e-06
3.15339e-05
9.47662e-06
2.83765e-05
9.47257e-06
2.52205e-05
9.4689e-06
2.20655e-05
9.46562e-06
1.89114e-05
9.46273e-06
1.57583e-05
9.46024e-06
1.26058e-05
9.45816e-06
9.45384e-06
9.45649e-06
6.30233e-06
9.45523e-06
3.15109e-06
9.4544e-06
9.45398e-06
3.55196e-06
-1.42106e-05
7.10411e-06
-1.42113e-05
1.06567e-05
-1.42129e-05
1.42098e-05
-1.42152e-05
1.77637e-05
-1.42183e-05
2.13186e-05
-1.42222e-05
2.48747e-05
-1.42268e-05
2.84321e-05
-1.42321e-05
3.1991e-05
-1.42382e-05
3.55517e-05
-1.42449e-05
3.91142e-05
-1.42523e-05
4.26787e-05
-1.42603e-05
4.62455e-05
-1.42689e-05
4.98145e-05
-1.42782e-05
5.33861e-05
-1.42879e-05
5.69602e-05
-1.42982e-05
6.05371e-05
-1.43089e-05
6.41168e-05
-1.43201e-05
6.76994e-05
-1.43316e-05
7.1285e-05
-1.43435e-05
7.48737e-05
-1.43556e-05
7.84656e-05
-1.43679e-05
8.20606e-05
-1.43805e-05
8.56588e-05
-1.43931e-05
8.92603e-05
-1.44057e-05
9.2865e-05
-1.44184e-05
9.64729e-05
-1.44309e-05
0.000100084
-1.44433e-05
0.000103698
-1.44554e-05
0.000107315
-1.44671e-05
0.000110935
-1.44785e-05
0.000114558
-1.44893e-05
0.000118184
-1.44996e-05
0.000121812
-1.45092e-05
0.000125442
-1.4518e-05
0.000129074
-1.45259e-05
0.000132708
-1.45328e-05
0.000136344
-1.45386e-05
0.000139981
-1.45433e-05
0.000143619
-1.45466e-05
0.000147257
-1.45485e-05
0.000150896
-1.45488e-05
0.000154535
-1.45474e-05
0.000158172
-1.45443e-05
0.000161809
-1.45392e-05
0.000165444
-1.4532e-05
0.000169077
-1.45227e-05
0.000172706
-1.4511e-05
0.000176333
-1.44969e-05
0.000179955
-1.44801e-05
0.000183573
-1.44606e-05
0.000187185
-1.44382e-05
0.000190791
-1.44127e-05
0.00019439
-1.4384e-05
0.000197981
-1.4352e-05
0.000201564
-1.43165e-05
0.000205136
-1.42773e-05
0.000208698
-1.42343e-05
0.000212249
-1.41874e-05
0.000215787
-1.41364e-05
0.000219311
-1.40811e-05
0.00022282
-1.40214e-05
0.000226313
-1.39571e-05
0.00022979
-1.38881e-05
0.000233248
-1.38143e-05
0.000236686
-1.37355e-05
0.000240104
-1.36515e-05
0.000243499
-1.35623e-05
0.000246871
-1.34677e-05
0.000250217
-1.33675e-05
0.000253538
-1.32617e-05
0.000256831
-1.31501e-05
0.000260094
-1.30326e-05
0.000263327
-1.29091e-05
0.000266527
-1.27795e-05
0.000269693
-1.26437e-05
0.000272824
-1.25016e-05
0.000275918
-1.23532e-05
0.000278973
-1.21983e-05
0.000281988
-1.2037e-05
0.000284961
-1.18691e-05
0.000287891
-1.16946e-05
0.000290775
-1.15135e-05
0.000293612
-1.13258e-05
0.000296401
-1.11315e-05
0.000299139
-1.09305e-05
0.000301826
-1.07229e-05
0.000304459
-1.05087e-05
0.000307036
-1.02879e-05
0.000309557
-1.00606e-05
0.000312019
-9.82693e-06
0.000314421
-9.58684e-06
0.000316762
-9.34046e-06
0.000319039
-9.0879e-06
0.000321252
-8.82927e-06
0.000323398
-8.5647e-06
0.000325477
-8.29433e-06
0.000327486
-8.0183e-06
0.000329425
-7.73679e-06
0.000331292
-7.44996e-06
0.000333085
-7.15802e-06
0.000334805
-6.86114e-06
0.000336449
-6.55956e-06
0.000338016
-6.25348e-06
0.000339505
-5.94313e-06
0.000340916
-5.62877e-06
0.000342246
-5.31063e-06
0.000343496
-4.98899e-06
0.000344665
-4.66409e-06
0.000345751
-4.33622e-06
0.000346755
-4.00566e-06
0.000347675
-3.67269e-06
0.000348511
-3.3376e-06
0.000349262
-3.00069e-06
0.000349929
-2.66226e-06
0.00035051
-2.3226e-06
0.000351007
-1.98203e-06
0.000351417
-1.64084e-06
0.000351742
-1.29934e-06
0.000351981
-9.57837e-07
0.000352135
-6.16628e-07
0.000352203
-2.76017e-07
0.000352186
6.36984e-08
0.000352084
4.02225e-07
0.000351898
7.39272e-07
0.000351627
1.07455e-06
0.000351273
1.40779e-06
0.000350836
1.73872e-06
0.000350317
2.06706e-06
0.000349716
2.39256e-06
0.000349035
2.71497e-06
0.000348273
3.03405e-06
0.000347432
3.34956e-06
0.000346514
3.66129e-06
0.000345518
3.96901e-06
0.000344446
4.27253e-06
0.000343299
4.57166e-06
0.000342078
4.8662e-06
0.000340785
5.156e-06
0.00033942
5.44088e-06
0.000337985
5.7207e-06
0.000336482
5.99533e-06
0.000334911
6.26464e-06
0.000333274
6.5285e-06
0.000331573
6.78683e-06
0.000329808
7.03952e-06
0.000327981
7.28649e-06
0.000326094
7.52767e-06
0.000324148
7.76301e-06
0.000322145
7.99245e-06
0.000320086
8.21595e-06
0.000317972
8.43349e-06
0.000315805
8.64504e-06
0.000313588
8.85059e-06
0.00031132
9.05015e-06
0.000309004
9.24372e-06
0.000306641
9.43132e-06
0.000304232
9.61297e-06
0.00030178
9.7887e-06
0.000299285
9.95856e-06
0.00029675
1.01226e-05
0.000294174
1.02808e-05
0.000291561
1.04334e-05
0.000288911
1.05803e-05
0.000286226
1.07216e-05
0.000283507
1.08574e-05
0.000280755
1.09878e-05
0.000277972
1.11129e-05
0.00027516
1.12327e-05
0.000272318
1.13473e-05
0.00026945
1.1457e-05
0.000266555
1.15616e-05
0.000263636
1.16614e-05
0.000260693
1.17565e-05
0.000257727
1.18469e-05
0.00025474
1.19328e-05
0.000251732
1.20143e-05
0.000248706
1.20915e-05
0.000245661
1.21645e-05
0.000242599
1.22335e-05
0.000239521
1.22984e-05
0.000236428
1.23596e-05
0.000233321
1.2417e-05
0.0002302
1.24707e-05
0.000227067
1.2521e-05
0.000223922
1.25679e-05
0.000220766
1.26116e-05
0.000217601
1.2652e-05
0.000214426
1.26895e-05
0.000211242
1.2724e-05
0.000208051
1.27557e-05
0.000204853
1.27846e-05
0.000201648
1.2811e-05
0.000198437
1.28349e-05
0.000195221
1.28563e-05
0.000192
1.28755e-05
0.000188775
1.28925e-05
0.000185546
1.29074e-05
0.000182315
1.29204e-05
0.00017908
1.29314e-05
0.000175844
1.29406e-05
0.000172605
1.29481e-05
0.000169365
1.2954e-05
0.000166124
1.29584e-05
0.000162883
1.29613e-05
0.000159641
1.29628e-05
0.000156399
1.29631e-05
0.000153158
1.29622e-05
0.000149917
1.29602e-05
0.000146677
1.29571e-05
0.000143438
1.29531e-05
0.0001402
1.29481e-05
0.000136964
1.29424e-05
0.000133729
1.29358e-05
0.000130496
1.29286e-05
0.000127266
1.29208e-05
0.000124037
1.29123e-05
0.000120811
1.29034e-05
0.000117587
1.28941e-05
0.000114366
1.28843e-05
0.000111147
1.28742e-05
0.000107931
1.28638e-05
0.000104717
1.28532e-05
0.000101506
1.28424e-05
9.82985e-05
1.28314e-05
9.50933e-05
1.28204e-05
9.1891e-05
1.28093e-05
8.86915e-05
1.27982e-05
8.54948e-05
1.27871e-05
8.23008e-05
1.27761e-05
7.91096e-05
1.27652e-05
7.59212e-05
1.27544e-05
7.27354e-05
1.27439e-05
6.95522e-05
1.27335e-05
6.63716e-05
1.27234e-05
6.31935e-05
1.27135e-05
6.00178e-05
1.27039e-05
5.68444e-05
1.26947e-05
5.36733e-05
1.26858e-05
5.05043e-05
1.26772e-05
4.73374e-05
1.26691e-05
4.41724e-05
1.26614e-05
4.10093e-05
1.26541e-05
3.78479e-05
1.26472e-05
3.46881e-05
1.26408e-05
3.15298e-05
1.26349e-05
2.83729e-05
1.26295e-05
2.52172e-05
1.26246e-05
2.20626e-05
1.26202e-05
1.8909e-05
1.26164e-05
1.57562e-05
1.2613e-05
1.26041e-05
1.26102e-05
9.45258e-06
1.2608e-05
6.30149e-06
1.26063e-05
3.15067e-06
1.26052e-05
1.26047e-05
3.55117e-06
-1.77617e-05
7.10255e-06
-1.77627e-05
1.06543e-05
-1.77647e-05
1.42067e-05
-1.77676e-05
1.77599e-05
-1.77715e-05
2.1314e-05
-1.77763e-05
2.48694e-05
-1.77821e-05
2.84261e-05
-1.77888e-05
3.19843e-05
-1.77964e-05
3.55443e-05
-1.78049e-05
3.91062e-05
-1.78141e-05
4.26701e-05
-1.78242e-05
4.62362e-05
-1.78351e-05
4.98048e-05
-1.78467e-05
5.33758e-05
-1.78589e-05
5.69495e-05
-1.78718e-05
6.05259e-05
-1.78853e-05
6.41052e-05
-1.78994e-05
6.76875e-05
-1.79139e-05
7.12728e-05
-1.79288e-05
7.48613e-05
-1.79441e-05
7.8453e-05
-1.79596e-05
8.20479e-05
-1.79754e-05
8.56461e-05
-1.79913e-05
8.92476e-05
-1.80072e-05
9.28524e-05
-1.80232e-05
9.64605e-05
-1.8039e-05
0.000100072
-1.80545e-05
0.000103686
-1.80698e-05
0.000107304
-1.80847e-05
0.000110924
-1.8099e-05
0.000114548
-1.81128e-05
0.000118174
-1.81258e-05
0.000121803
-1.81379e-05
0.000125434
-1.81491e-05
0.000129067
-1.81592e-05
0.000132702
-1.81681e-05
0.000136339
-1.81756e-05
0.000139978
-1.81816e-05
0.000143617
-1.81859e-05
0.000147257
-1.81885e-05
0.000150897
-1.81891e-05
0.000154538
-1.81877e-05
0.000158177
-1.8184e-05
0.000161816
-1.81779e-05
0.000165453
-1.81692e-05
0.000169088
-1.81577e-05
0.000172721
-1.81434e-05
0.00017635
-1.8126e-05
0.000179975
-1.81053e-05
0.000183596
-1.80812e-05
0.000187211
-1.80534e-05
0.00019082
-1.80219e-05
0.000194422
-1.79863e-05
0.000198017
-1.79466e-05
0.000201603
-1.79025e-05
0.000205179
-1.78538e-05
0.000208745
-1.78003e-05
0.0002123
-1.7742e-05
0.000215842
-1.76785e-05
0.00021937
-1.76096e-05
0.000222884
-1.75353e-05
0.000226382
-1.74552e-05
0.000229864
-1.73693e-05
0.000233326
-1.72773e-05
0.00023677
-1.7179e-05
0.000240193
-1.70743e-05
0.000243593
-1.6963e-05
0.000246971
-1.6845e-05
0.000250323
-1.672e-05
0.000253649
-1.65879e-05
0.000256948
-1.64486e-05
0.000260217
-1.63019e-05
0.000263456
-1.61478e-05
0.000266663
-1.59859e-05
0.000269835
-1.58163e-05
0.000272973
-1.56389e-05
0.000276073
-1.54535e-05
0.000279135
-1.526e-05
0.000282156
-1.50584e-05
0.000285136
-1.48487e-05
0.000288072
-1.46306e-05
0.000290963
-1.44043e-05
0.000293806
-1.41697e-05
0.000296602
-1.39268e-05
0.000299347
-1.36755e-05
0.00030204
-1.3416e-05
0.000304679
-1.31481e-05
0.000307264
-1.28721e-05
0.000309791
-1.25879e-05
0.000312259
-1.22956e-05
0.000314668
-1.19953e-05
0.000317015
-1.16872e-05
0.000319298
-1.13712e-05
0.000321516
-1.10477e-05
0.000323668
-1.07167e-05
0.000325753
-1.03785e-05
0.000327767
-1.00332e-05
0.000329712
-9.68093e-06
0.000331584
-9.32205e-06
0.000333382
-8.95674e-06
0.000335106
-8.58526e-06
0.000336755
-8.20786e-06
0.000338326
-7.82483e-06
0.000339819
-7.43645e-06
0.000341234
-7.04302e-06
0.000342568
-6.64487e-06
0.000343821
-6.24231e-06
0.000344993
-5.83568e-06
0.000346082
-5.42532e-06
0.000347088
-5.01158e-06
0.00034801
-4.59483e-06
0.000348848
-4.17541e-06
0.000349601
-3.75372e-06
0.000350269
-3.33011e-06
0.000350851
-2.90498e-06
0.000351348
-2.47869e-06
0.000351759
-2.05163e-06
0.000352083
-1.62419e-06
0.000352322
-1.19674e-06
0.000352475
-7.69671e-07
0.000352543
-3.43349e-07
0.000352525
8.18461e-08
0.000352421
5.05547e-07
0.000352233
9.27389e-07
0.000351961
1.34702e-06
0.000351604
1.76408e-06
0.000351165
2.17823e-06
0.000350643
2.58914e-06
0.000350039
2.99648e-06
0.000349354
3.39995e-06
0.000348589
3.79923e-06
0.000347744
4.19404e-06
0.000346821
4.5841e-06
0.000345821
4.96914e-06
0.000344745
5.3489e-06
0.000343593
5.72314e-06
0.000342368
6.09164e-06
0.00034107
6.45419e-06
0.0003397
6.81057e-06
0.00033826
7.16061e-06
0.000336751
7.50413e-06
0.000335175
7.84098e-06
0.000333533
8.17101e-06
0.000331825
8.49409e-06
0.000330055
8.8101e-06
0.000328222
9.11895e-06
0.000326329
9.42054e-06
0.000324378
9.71481e-06
0.000322368
1.00017e-05
0.000320303
1.02811e-05
0.000318184
1.05531e-05
0.000316011
1.08175e-05
0.000313787
1.10745e-05
0.000311514
1.13239e-05
0.000309191
1.15658e-05
0.000306822
1.18003e-05
0.000304408
1.20273e-05
0.00030195
1.22469e-05
0.000299449
1.24591e-05
0.000296908
1.26641e-05
0.000294327
1.28618e-05
0.000291708
1.30523e-05
0.000289053
1.32358e-05
0.000286362
1.34123e-05
0.000283637
1.35819e-05
0.00028088
1.37447e-05
0.000278092
1.39009e-05
0.000275274
1.40505e-05
0.000272428
1.41936e-05
0.000269555
1.43305e-05
0.000266655
1.44611e-05
0.000263731
1.45857e-05
0.000260783
1.47043e-05
0.000257813
1.48172e-05
0.000254821
1.49243e-05
0.00025181
1.5026e-05
0.000248779
1.51223e-05