/*--------------------------------*- C++ -*----------------------------------*\
| =========                 |                                                 |
| \\      /  F ield         | OpenFOAM: The Open Source CFD Toolbox           |
|  \\    /   O peration     | Version:  v2012                                 |
|   \\  /    A nd           | Website:  www.openfoam.com                      |
|    \\/     M anipulation  |                                                 |
\*---------------------------------------------------------------------------*/
FoamFile
{
    version     2.0;
    format      ascii;
    class       volVectorField;
    location    "12.75";
    object      U;
}
// * * * * * * * * * * * * * * * * * * * * * * * * * * * * * * * * * * * * * //

dimensions      [0 1 -1 0 0 0 0];


internalField   nonuniform List<vector> 
65536
(
(0.000723826 -0.000723844 0)
(0.00217152 -0.000723885 0)
(0.00361933 -0.000723964 0)
(0.00506734 -0.000724082 0)
(0.00651562 -0.000724238 0)
(0.00796425 -0.000724433 0)
(0.00941331 -0.000724665 0)
(0.0108629 -0.000724934 0)
(0.012313 -0.000725238 0)
(0.0137638 -0.000725577 0)
(0.0152153 -0.00072595 0)
(0.0166676 -0.000726355 0)
(0.0181207 -0.00072679 0)
(0.0195747 -0.000727255 0)
(0.0210297 -0.000727747 0)
(0.0224857 -0.000728264 0)
(0.0239427 -0.000728804 0)
(0.0254009 -0.000729366 0)
(0.0268602 -0.000729946 0)
(0.0283206 -0.000730543 0)
(0.0297823 -0.000731153 0)
(0.0312452 -0.000731775 0)
(0.0327094 -0.000732404 0)
(0.0341749 -0.000733037 0)
(0.0356416 -0.000733673 0)
(0.0371095 -0.000734306 0)
(0.0385788 -0.000734934 0)
(0.0400493 -0.000735552 0)
(0.041521 -0.000736157 0)
(0.0429939 -0.000736745 0)
(0.044468 -0.000737311 0)
(0.0459432 -0.000737851 0)
(0.0474195 -0.000738361 0)
(0.0488967 -0.000738835 0)
(0.0503748 -0.000739269 0)
(0.0518538 -0.000739658 0)
(0.0533335 -0.000739995 0)
(0.0548139 -0.000740277 0)
(0.0562947 -0.000740497 0)
(0.0577759 -0.000740649 0)
(0.0592574 -0.000740728 0)
(0.0607389 -0.000740727 0)
(0.0622204 -0.000740641 0)
(0.0637016 -0.000740462 0)
(0.0651823 -0.000740185 0)
(0.0666624 -0.000739802 0)
(0.0681416 -0.000739307 0)
(0.0696197 -0.000738693 0)
(0.0710965 -0.000737953 0)
(0.0725717 -0.000737079 0)
(0.074045 -0.000736065 0)
(0.0755161 -0.000734902 0)
(0.0769847 -0.000733584 0)
(0.0784506 -0.000732103 0)
(0.0799133 -0.000730451 0)
(0.0813726 -0.000728621 0)
(0.082828 -0.000726605 0)
(0.0842792 -0.000724395 0)
(0.0857258 -0.000721984 0)
(0.0871673 -0.000719363 0)
(0.0886034 -0.000716526 0)
(0.0900337 -0.000713465 0)
(0.0914575 -0.000710171 0)
(0.0928746 -0.000706638 0)
(0.0942843 -0.000702859 0)
(0.0956863 -0.000698825 0)
(0.0970799 -0.00069453 0)
(0.0984647 -0.000689967 0)
(0.09984 -0.000685129 0)
(0.101205 -0.000680011 0)
(0.10256 -0.000674604 0)
(0.103904 -0.000668904 0)
(0.105236 -0.000662905 0)
(0.106556 -0.000656601 0)
(0.107863 -0.000649988 0)
(0.109156 -0.00064306 0)
(0.110436 -0.000635813 0)
(0.1117 -0.000628244 0)
(0.112949 -0.000620349 0)
(0.114182 -0.000612125 0)
(0.115398 -0.000603569 0)
(0.116596 -0.000594679 0)
(0.117777 -0.000585454 0)
(0.118938 -0.000575894 0)
(0.120081 -0.000565996 0)
(0.121203 -0.000555762 0)
(0.122304 -0.000545193 0)
(0.123384 -0.000534289 0)
(0.124442 -0.000523052 0)
(0.125476 -0.000511486 0)
(0.126488 -0.000499594 0)
(0.127475 -0.000487378 0)
(0.128438 -0.000474845 0)
(0.129375 -0.000461998 0)
(0.130286 -0.000448844 0)
(0.13117 -0.000435389 0)
(0.132028 -0.00042164 0)
(0.132857 -0.000407605 0)
(0.133658 -0.000393292 0)
(0.134431 -0.000378711 0)
(0.135174 -0.00036387 0)
(0.135886 -0.000348779 0)
(0.136569 -0.00033345 0)
(0.13722 -0.000317894 0)
(0.137841 -0.000302122 0)
(0.138429 -0.000286146 0)
(0.138985 -0.00026998 0)
(0.139509 -0.000253636 0)
(0.14 -0.000237127 0)
(0.140458 -0.000220468 0)
(0.140882 -0.000203672 0)
(0.141273 -0.000186755 0)
(0.141629 -0.00016973 0)
(0.141952 -0.000152613 0)
(0.14224 -0.000135418 0)
(0.142493 -0.000118162 0)
(0.142712 -0.000100859 0)
(0.142897 -8.35251e-05 0)
(0.143047 -6.6175e-05 0)
(0.143162 -4.88245e-05 0)
(0.143242 -3.14888e-05 0)
(0.143288 -1.41831e-05 0)
(0.143299 3.07753e-06 0)
(0.143275 2.02782e-05 0)
(0.143217 3.74041e-05 0)
(0.143125 5.4441e-05 0)
(0.143 7.13748e-05 0)
(0.14284 8.81915e-05 0)
(0.142647 0.000104878 0)
(0.14242 0.000121421 0)
(0.142161 0.000137807 0)
(0.141869 0.000154025 0)
(0.141544 0.000170063 0)
(0.141188 0.000185909 0)
(0.140801 0.000201553 0)
(0.140382 0.000216985 0)
(0.139932 0.000232193 0)
(0.139453 0.000247171 0)
(0.138944 0.000261907 0)
(0.138405 0.000276396 0)
(0.137838 0.000290628 0)
(0.137242 0.000304597 0)
(0.136619 0.000318296 0)
(0.135969 0.00033172 0)
(0.135292 0.000344864 0)
(0.134589 0.000357721 0)
(0.133861 0.00037029 0)
(0.133108 0.000382565 0)
(0.13233 0.000394543 0)
(0.131529 0.000406223 0)
(0.130705 0.000417602 0)
(0.129858 0.000428678 0)
(0.12899 0.000439451 0)
(0.1281 0.000449919 0)
(0.12719 0.000460084 0)
(0.12626 0.000469944 0)
(0.12531 0.000479502 0)
(0.124341 0.000488758 0)
(0.123355 0.000497713 0)
(0.12235 0.000506371 0)
(0.121329 0.000514732 0)
(0.120291 0.0005228 0)
(0.119237 0.000530578 0)
(0.118168 0.000538069 0)
(0.117085 0.000545277 0)
(0.115987 0.000552205 0)
(0.114876 0.000558858 0)
(0.113751 0.00056524 0)
(0.112614 0.000571355 0)
(0.111466 0.000577209 0)
(0.110305 0.000582806 0)
(0.109134 0.00058815 0)
(0.107952 0.000593249 0)
(0.106761 0.000598105 0)
(0.10556 0.000602727 0)
(0.10435 0.000607117 0)
(0.103131 0.000611284 0)
(0.101904 0.000615231 0)
(0.10067 0.000618965 0)
(0.0994283 0.000622491 0)
(0.0981798 0.000625816 0)
(0.0969249 0.000628946 0)
(0.0956638 0.000631885 0)
(0.0943971 0.00063464 0)
(0.0931251 0.000637217 0)
(0.0918481 0.000639622 0)
(0.0905664 0.00064186 0)
(0.0892805 0.000643938 0)
(0.0879905 0.00064586 0)
(0.0866969 0.000647632 0)
(0.0853999 0.000649261 0)
(0.0840997 0.000650752 0)
(0.0827967 0.000652109 0)
(0.0814912 0.00065334 0)
(0.0801833 0.000654448 0)
(0.0788733 0.000655439 0)
(0.0775614 0.000656319 0)
(0.0762479 0.000657092 0)
(0.0749329 0.000657763 0)
(0.0736167 0.000658337 0)
(0.0722995 0.00065882 0)
(0.0709814 0.000659215 0)
(0.0696625 0.000659528 0)
(0.0683432 0.000659762 0)
(0.0670234 0.000659923 0)
(0.0657034 0.000660014 0)
(0.0643833 0.000660039 0)
(0.0630632 0.000660004 0)
(0.0617432 0.000659911 0)
(0.0604235 0.000659765 0)
(0.0591041 0.000659569 0)
(0.0577852 0.000659327 0)
(0.0564668 0.000659043 0)
(0.055149 0.00065872 0)
(0.0538319 0.000658361 0)
(0.0525155 0.00065797 0)
(0.0512 0.00065755 0)
(0.0498853 0.000657103 0)
(0.0485715 0.000656634 0)
(0.0472587 0.000656144 0)
(0.0459469 0.000655637 0)
(0.0446362 0.000655115 0)
(0.0433265 0.000654581 0)
(0.0420178 0.000654037 0)
(0.0407103 0.000653485 0)
(0.0394039 0.000652929 0)
(0.0380986 0.00065237 0)
(0.0367944 0.00065181 0)
(0.0354914 0.000651251 0)
(0.0341894 0.000650696 0)
(0.0328886 0.000650146 0)
(0.0315888 0.000649603 0)
(0.0302902 0.000649069 0)
(0.0289926 0.000648545 0)
(0.027696 0.000648033 0)
(0.0264005 0.000647535 0)
(0.0251059 0.000647051 0)
(0.0238123 0.000646584 0)
(0.0225196 0.000646133 0)
(0.0212278 0.000645702 0)
(0.0199368 0.00064529 0)
(0.0186466 0.000644899 0)
(0.0173572 0.00064453 0)
(0.0160685 0.000644183 0)
(0.0147805 0.00064386 0)
(0.0134931 0.000643561 0)
(0.0122063 0.000643287 0)
(0.01092 0.000643039 0)
(0.00963416 0.000642816 0)
(0.00834876 0.000642621 0)
(0.00706371 0.000642452 0)
(0.00577897 0.000642311 0)
(0.00449449 0.000642198 0)
(0.00321021 0.000642113 0)
(0.00192607 0.000642057 0)
(0.000642014 0.000642028 0)
(0.000723788 -0.0021715 0)
(0.0021714 -0.00217162 0)
(0.00361914 -0.00217185 0)
(0.00506707 -0.00217221 0)
(0.00651527 -0.00217268 0)
(0.00796383 -0.00217326 0)
(0.00941282 -0.00217396 0)
(0.0108623 -0.00217477 0)
(0.0123124 -0.00217568 0)
(0.0137631 -0.0021767 0)
(0.0152145 -0.00217782 0)
(0.0166667 -0.00217904 0)
(0.0181198 -0.00218034 0)
(0.0195738 -0.00218174 0)
(0.0210287 -0.00218322 0)
(0.0224846 -0.00218477 0)
(0.0239416 -0.00218639 0)
(0.0253997 -0.00218808 0)
(0.026859 -0.00218982 0)
(0.0283194 -0.00219162 0)
(0.0297811 -0.00219345 0)
(0.031244 -0.00219532 0)
(0.0327082 -0.00219721 0)
(0.0341736 -0.00219911 0)
(0.0356403 -0.00220102 0)
(0.0371083 -0.00220292 0)
(0.0385776 -0.00220481 0)
(0.0400481 -0.00220667 0)
(0.0415198 -0.00220849 0)
(0.0429928 -0.00221026 0)
(0.0444669 -0.00221196 0)
(0.0459422 -0.00221359 0)
(0.0474185 -0.00221512 0)
(0.0488958 -0.00221655 0)
(0.050374 -0.00221785 0)
(0.0518531 -0.00221902 0)
(0.0533329 -0.00222004 0)
(0.0548134 -0.00222089 0)
(0.0562943 -0.00222156 0)
(0.0577757 -0.00222202 0)
(0.0592573 -0.00222226 0)
(0.060739 -0.00222227 0)
(0.0622207 -0.00222202 0)
(0.063702 -0.00222149 0)
(0.065183 -0.00222066 0)
(0.0666633 -0.00221952 0)
(0.0681428 -0.00221804 0)
(0.0696211 -0.00221621 0)
(0.0710982 -0.00221399 0)
(0.0725736 -0.00221138 0)
(0.0740472 -0.00220834 0)
(0.0755186 -0.00220486 0)
(0.0769876 -0.00220092 0)
(0.0784538 -0.00219648 0)
(0.0799168 -0.00219153 0)
(0.0813765 -0.00218605 0)
(0.0828323 -0.00218001 0)
(0.0842839 -0.00217339 0)
(0.0857308 -0.00216616 0)
(0.0871728 -0.00215831 0)
(0.0886094 -0.0021498 0)
(0.0900401 -0.00214063 0)
(0.0914644 -0.00213075 0)
(0.0928819 -0.00212016 0)
(0.0942922 -0.00210883 0)
(0.0956946 -0.00209673 0)
(0.0970888 -0.00208386 0)
(0.0984741 -0.00207017 0)
(0.09985 -0.00205567 0)
(0.101216 -0.00204032 0)
(0.102572 -0.0020241 0)
(0.103916 -0.00200701 0)
(0.105249 -0.00198902 0)
(0.106569 -0.00197011 0)
(0.107877 -0.00195028 0)
(0.109171 -0.0019295 0)
(0.11045 -0.00190776 0)
(0.111715 -0.00188506 0)
(0.112965 -0.00186137 0)
(0.114198 -0.0018367 0)
(0.115415 -0.00181104 0)
(0.116614 -0.00178437 0)
(0.117796 -0.0017567 0)
(0.118958 -0.00172801 0)
(0.120101 -0.00169832 0)
(0.121224 -0.00166762 0)
(0.122326 -0.00163591 0)
(0.123406 -0.0016032 0)
(0.124464 -0.00156948 0)
(0.1255 -0.00153478 0)
(0.126512 -0.0014991 0)
(0.1275 -0.00146245 0)
(0.128463 -0.00142484 0)
(0.129401 -0.0013863 0)
(0.130313 -0.00134683 0)
(0.131198 -0.00130646 0)
(0.132056 -0.0012652 0)
(0.132886 -0.00122309 0)
(0.133687 -0.00118014 0)
(0.13446 -0.00113639 0)
(0.135203 -0.00109185 0)
(0.135917 -0.00104657 0)
(0.1366 -0.00100057 0)
(0.137252 -0.000953894 0)
(0.137872 -0.000906566 0)
(0.138461 -0.000858626 0)
(0.139018 -0.000810114 0)
(0.139542 -0.000761067 0)
(0.140033 -0.000711528 0)
(0.140491 -0.000661536 0)
(0.140916 -0.000611134 0)
(0.141307 -0.000560367 0)
(0.141663 -0.000509278 0)
(0.141986 -0.000457912 0)
(0.142274 -0.000406314 0)
(0.142528 -0.00035453 0)
(0.142747 -0.000302606 0)
(0.142932 -0.000250588 0)
(0.143081 -0.000198522 0)
(0.143196 -0.000146455 0)
(0.143276 -9.4433e-05 0)
(0.143322 -4.2501e-05 0)
(0.143333 9.29565e-06 0)
(0.143309 6.09121e-05 0)
(0.143252 0.000112304 0)
(0.143159 0.000163429 0)
(0.143033 0.000214244 0)
(0.142873 0.000264708 0)
(0.14268 0.00031478 0)
(0.142453 0.00036442 0)
(0.142193 0.000413592 0)
(0.141901 0.000462258 0)
(0.141576 0.000510383 0)
(0.14122 0.000557933 0)
(0.140832 0.000604875 0)
(0.140412 0.000651178 0)
(0.139963 0.000696814 0)
(0.139483 0.000741754 0)
(0.138973 0.000785972 0)
(0.138434 0.000829444 0)
(0.137866 0.000872148 0)
(0.13727 0.000914061 0)
(0.136646 0.000955165 0)
(0.135995 0.000995443 0)
(0.135318 0.00103488 0)
(0.134614 0.00107346 0)
(0.133885 0.00111116 0)
(0.133132 0.00114799 0)
(0.132354 0.00118393 0)
(0.131552 0.00121897 0)
(0.130727 0.00125311 0)
(0.12988 0.00128634 0)
(0.129011 0.00131866 0)
(0.128121 0.00135006 0)
(0.12721 0.00138056 0)
(0.126279 0.00141014 0)
(0.125329 0.00143881 0)
(0.124359 0.00146657 0)
(0.123372 0.00149344 0)
(0.122367 0.00151941 0)
(0.121345 0.00154449 0)
(0.120307 0.00156869 0)
(0.119252 0.00159202 0)
(0.118183 0.00161449 0)
(0.117099 0.00163611 0)
(0.116 0.00165689 0)
(0.114889 0.00167685 0)
(0.113764 0.00169599 0)
(0.112626 0.00171433 0)
(0.111477 0.00173188 0)
(0.110316 0.00174867 0)
(0.109144 0.0017647 0)
(0.107962 0.00177999 0)
(0.10677 0.00179455 0)
(0.105569 0.00180841 0)
(0.104358 0.00182158 0)
(0.103139 0.00183407 0)
(0.101912 0.0018459 0)
(0.100677 0.0018571 0)
(0.0994351 0.00186767 0)
(0.0981862 0.00187764 0)
(0.0969309 0.00188703 0)
(0.0956695 0.00189584 0)
(0.0944024 0.0019041 0)
(0.09313 0.00191182 0)
(0.0918527 0.00191903 0)
(0.0905707 0.00192574 0)
(0.0892844 0.00193197 0)
(0.0879942 0.00193773 0)
(0.0867002 0.00194304 0)
(0.0854029 0.00194792 0)
(0.0841025 0.00195239 0)
(0.0827993 0.00195645 0)
(0.0814934 0.00196014 0)
(0.0801853 0.00196346 0)
(0.0788751 0.00196643 0)
(0.077563 0.00196906 0)
(0.0762493 0.00197137 0)
(0.0749341 0.00197338 0)
(0.0736177 0.0019751 0)
(0.0723003 0.00197654 0)
(0.070982 0.00197773 0)
(0.069663 0.00197866 0)
(0.0683435 0.00197936 0)
(0.0670236 0.00197984 0)
(0.0657035 0.0019801 0)
(0.0643832 0.00198018 0)
(0.063063 0.00198007 0)
(0.061743 0.00197978 0)
(0.0604231 0.00197934 0)
(0.0591036 0.00197875 0)
(0.0577846 0.00197802 0)
(0.0564661 0.00197717 0)
(0.0551483 0.00197619 0)
(0.0538311 0.00197511 0)
(0.0525147 0.00197394 0)
(0.0511991 0.00197267 0)
(0.0498843 0.00197133 0)
(0.0485705 0.00196992 0)
(0.0472577 0.00196845 0)
(0.0459459 0.00196692 0)
(0.0446351 0.00196536 0)
(0.0433254 0.00196375 0)
(0.0420167 0.00196212 0)
(0.0407092 0.00196046 0)
(0.0394028 0.00195879 0)
(0.0380974 0.00195711 0)
(0.0367933 0.00195543 0)
(0.0354902 0.00195375 0)
(0.0341883 0.00195208 0)
(0.0328875 0.00195043 0)
(0.0315877 0.0019488 0)
(0.0302891 0.0019472 0)
(0.0289915 0.00194562 0)
(0.027695 0.00194408 0)
(0.0263995 0.00194259 0)
(0.0251049 0.00194114 0)
(0.0238113 0.00193973 0)
(0.0225187 0.00193838 0)
(0.0212269 0.00193708 0)
(0.019936 0.00193585 0)
(0.0186458 0.00193467 0)
(0.0173565 0.00193356 0)
(0.0160678 0.00193252 0)
(0.0147799 0.00193155 0)
(0.0134925 0.00193066 0)
(0.0122058 0.00192983 0)
(0.0109195 0.00192909 0)
(0.00963374 0.00192842 0)
(0.00834839 0.00192783 0)
(0.0070634 0.00192733 0)
(0.00577872 0.0019269 0)
(0.00449429 0.00192657 0)
(0.00321007 0.00192631 0)
(0.00192598 0.00192614 0)
(0.000641985 0.00192606 0)
(0.000723708 -0.00361903 0)
(0.00217116 -0.00361923 0)
(0.00361874 -0.00361963 0)
(0.00506651 -0.00362022 0)
(0.00651457 -0.003621 0)
(0.00796297 -0.00362198 0)
(0.00941181 -0.00362314 0)
(0.0108612 -0.00362449 0)
(0.0123111 -0.00362602 0)
(0.0137617 -0.00362772 0)
(0.015213 -0.00362959 0)
(0.016665 -0.00363162 0)
(0.018118 -0.00363381 0)
(0.0195718 -0.00363614 0)
(0.0210267 -0.00363861 0)
(0.0224825 -0.00364121 0)
(0.0239394 -0.00364392 0)
(0.0253974 -0.00364674 0)
(0.0268566 -0.00364965 0)
(0.028317 -0.00365265 0)
(0.0297786 -0.00365572 0)
(0.0312415 -0.00365884 0)
(0.0327056 -0.003662 0)
(0.034171 -0.00366518 0)
(0.0356378 -0.00366838 0)
(0.0371058 -0.00367156 0)
(0.0385751 -0.00367472 0)
(0.0400456 -0.00367783 0)
(0.0415174 -0.00368088 0)
(0.0429905 -0.00368384 0)
(0.0444647 -0.00368669 0)
(0.0459401 -0.00368941 0)
(0.0474165 -0.00369198 0)
(0.048894 -0.00369438 0)
(0.0503724 -0.00369658 0)
(0.0518516 -0.00369854 0)
(0.0533317 -0.00370026 0)
(0.0548123 -0.0037017 0)
(0.0562936 -0.00370282 0)
(0.0577752 -0.00370361 0)
(0.0592571 -0.00370404 0)
(0.0607392 -0.00370407 0)
(0.0622212 -0.00370367 0)
(0.0637029 -0.00370281 0)
(0.0651843 -0.00370145 0)
(0.066665 -0.00369957 0)
(0.068145 -0.00369713 0)
(0.0696238 -0.0036941 0)
(0.0711014 -0.00369043 0)
(0.0725774 -0.0036861 0)
(0.0740515 -0.00368106 0)
(0.0755235 -0.00367529 0)
(0.0769931 -0.00366874 0)
(0.07846 -0.00366137 0)
(0.0799238 -0.00365315 0)
(0.0813841 -0.00364404 0)
(0.0828407 -0.00363399 0)
(0.0842931 -0.00362298 0)
(0.0857409 -0.00361096 0)
(0.0871837 -0.0035979 0)
(0.0886211 -0.00358375 0)
(0.0900527 -0.00356848 0)
(0.091478 -0.00355205 0)
(0.0928965 -0.00353442 0)
(0.0943078 -0.00351556 0)
(0.0957113 -0.00349543 0)
(0.0971065 -0.00347399 0)
(0.0984929 -0.00345121 0)
(0.0998699 -0.00342705 0)
(0.101237 -0.00340149 0)
(0.102594 -0.00337449 0)
(0.103939 -0.00334601 0)
(0.105273 -0.00331605 0)
(0.106595 -0.00328455 0)
(0.107904 -0.00325151 0)
(0.109199 -0.00321689 0)
(0.11048 -0.00318068 0)
(0.111746 -0.00314285 0)
(0.112997 -0.00310339 0)
(0.114232 -0.00306228 0)
(0.11545 -0.00301951 0)
(0.116651 -0.00297507 0)
(0.117833 -0.00292895 0)
(0.118997 -0.00288115 0)
(0.120141 -0.00283166 0)
(0.121265 -0.00278048 0)
(0.122368 -0.00272763 0)
(0.12345 -0.0026731 0)
(0.12451 -0.00261691 0)
(0.125547 -0.00255906 0)
(0.12656 -0.00249958 0)
(0.127549 -0.00243848 0)
(0.128514 -0.00237578 0)
(0.129453 -0.00231152 0)
(0.130366 -0.00224572 0)
(0.131252 -0.00217841 0)
(0.132111 -0.00210962 0)
(0.132942 -0.00203941 0)
(0.133745 -0.0019678 0)
(0.134519 -0.00189484 0)
(0.135263 -0.00182059 0)
(0.135978 -0.00174508 0)
(0.136662 -0.00166838 0)
(0.137314 -0.00159054 0)
(0.137936 -0.00151162 0)
(0.138526 -0.00143168 0)
(0.139083 -0.00135078 0)
(0.139608 -0.00126899 0)
(0.1401 -0.00118638 0)
(0.140558 -0.00110301 0)
(0.140983 -0.00101896 0)
(0.141375 -0.000934302 0)
(0.141732 -0.000849103 0)
(0.142055 -0.000763443 0)
(0.142343 -0.000677395 0)
(0.142597 -0.000591037 0)
(0.142816 -0.000504446 0)
(0.143001 -0.000417698 0)
(0.143151 -0.000330871 0)
(0.143266 -0.000244042 0)
(0.143346 -0.000157287 0)
(0.143391 -7.06835e-05 0)
(0.143402 1.56939e-05 0)
(0.143378 0.00010177 0)
(0.14332 0.000187472 0)
(0.143227 0.000272727 0)
(0.143101 0.000357465 0)
(0.14294 0.000441616 0)
(0.142746 0.000525112 0)
(0.142519 0.000607889 0)
(0.142259 0.000689883 0)
(0.141966 0.000771033 0)
(0.14164 0.000851278 0)
(0.141283 0.000930564 0)
(0.140894 0.00100883 0)
(0.140474 0.00108604 0)
(0.140023 0.00116213 0)
(0.139542 0.00123706 0)
(0.139031 0.00131078 0)
(0.138491 0.00138326 0)
(0.137922 0.00145446 0)
(0.137325 0.00152433 0)
(0.1367 0.00159286 0)
(0.136048 0.00166001 0)
(0.13537 0.00172575 0)
(0.134665 0.00179006 0)
(0.133935 0.00185292 0)
(0.13318 0.00191431 0)
(0.132401 0.00197421 0)
(0.131598 0.00203262 0)
(0.130772 0.00208952 0)
(0.129924 0.00214491 0)
(0.129054 0.00219878 0)
(0.128162 0.00225112 0)
(0.12725 0.00230194 0)
(0.126318 0.00235124 0)
(0.125366 0.00239902 0)
(0.124396 0.00244529 0)
(0.123407 0.00249006 0)
(0.122401 0.00253333 0)
(0.121378 0.00257513 0)
(0.120338 0.00261545 0)
(0.119283 0.00265433 0)
(0.118212 0.00269176 0)
(0.117127 0.00272778 0)
(0.116028 0.0027624 0)
(0.114915 0.00279565 0)
(0.113789 0.00282753 0)
(0.11265 0.00285808 0)
(0.1115 0.00288733 0)
(0.110338 0.00291529 0)
(0.109165 0.00294198 0)
(0.107982 0.00296745 0)
(0.106789 0.0029917 0)
(0.105587 0.00301478 0)
(0.104375 0.00303671 0)
(0.103155 0.00305751 0)
(0.101927 0.00307722 0)
(0.100692 0.00309586 0)
(0.0994488 0.00311346 0)
(0.0981991 0.00313006 0)
(0.096943 0.00314567 0)
(0.0956808 0.00316034 0)
(0.0944131 0.00317409 0)
(0.09314 0.00318695 0)
(0.0918619 0.00319894 0)
(0.0905793 0.0032101 0)
(0.0892924 0.00322046 0)
(0.0880016 0.00323004 0)
(0.086707 0.00323888 0)
(0.0854092 0.00324699 0)
(0.0841082 0.00325442 0)
(0.0828044 0.00326118 0)
(0.0814981 0.00326731 0)
(0.0801895 0.00327282 0)
(0.0788788 0.00327775 0)
(0.0775663 0.00328212 0)
(0.0762521 0.00328596 0)
(0.0749366 0.00328929 0)
(0.0736198 0.00329214 0)
(0.0723021 0.00329453 0)
(0.0709834 0.00329649 0)
(0.0696641 0.00329803 0)
(0.0683443 0.00329918 0)
(0.0670241 0.00329996 0)
(0.0657037 0.00330039 0)
(0.0643832 0.0033005 0)
(0.0630628 0.0033003 0)
(0.0617425 0.00329982 0)
(0.0604224 0.00329907 0)
(0.0591028 0.00329807 0)
(0.0577836 0.00329684 0)
(0.0564649 0.0032954 0)
(0.0551469 0.00329377 0)
(0.0538296 0.00329196 0)
(0.052513 0.00328999 0)
(0.0511973 0.00328787 0)
(0.0498825 0.00328563 0)
(0.0485686 0.00328327 0)
(0.0472557 0.0032808 0)
(0.0459438 0.00327826 0)
(0.044633 0.00327563 0)
(0.0433232 0.00327295 0)
(0.0420145 0.00327022 0)
(0.040707 0.00326745 0)
(0.0394005 0.00326466 0)
(0.0380952 0.00326185 0)
(0.036791 0.00325904 0)
(0.035488 0.00325624 0)
(0.0341861 0.00325345 0)
(0.0328853 0.00325069 0)
(0.0315856 0.00324797 0)
(0.030287 0.00324529 0)
(0.0289894 0.00324266 0)
(0.027693 0.0032401 0)
(0.0263975 0.0032376 0)
(0.025103 0.00323517 0)
(0.0238095 0.00323283 0)
(0.0225169 0.00323057 0)
(0.0212252 0.00322841 0)
(0.0199344 0.00322634 0)
(0.0186443 0.00322438 0)
(0.0173551 0.00322253 0)
(0.0160665 0.00322079 0)
(0.0147786 0.00321917 0)
(0.0134914 0.00321768 0)
(0.0122047 0.0032163 0)
(0.0109186 0.00321506 0)
(0.00963291 0.00321394 0)
(0.00834766 0.00321297 0)
(0.00706278 0.00321212 0)
(0.00577821 0.00321141 0)
(0.0044939 0.00321085 0)
(0.00320978 0.00321042 0)
(0.00192581 0.00321014 0)
(0.000641928 0.00321 0)
(0.000723589 -0.00506637 0)
(0.00217081 -0.00506665 0)
(0.00361814 -0.00506721 0)
(0.00506568 -0.00506804 0)
(0.0065135 -0.00506914 0)
(0.00796168 -0.00507051 0)
(0.0094103 -0.00507215 0)
(0.0108594 -0.00507404 0)
(0.0123091 -0.00507619 0)
(0.0137595 -0.00507858 0)
(0.0152106 -0.0050812 0)
(0.0166625 -0.00508406 0)
(0.0181153 -0.00508713 0)
(0.0195689 -0.00509041 0)
(0.0210236 -0.00509388 0)
(0.0224793 -0.00509752 0)
(0.0239361 -0.00510134 0)
(0.025394 -0.0051053 0)
(0.0268531 -0.0051094 0)
(0.0283134 -0.00511361 0)
(0.0297749 -0.00511793 0)
(0.0312377 -0.00512232 0)
(0.0327018 -0.00512676 0)
(0.0341672 -0.00513124 0)
(0.0356339 -0.00513574 0)
(0.0371019 -0.00514022 0)
(0.0385713 -0.00514467 0)
(0.0400419 -0.00514905 0)
(0.0415138 -0.00515335 0)
(0.042987 -0.00515752 0)
(0.0444613 -0.00516155 0)
(0.0459368 -0.00516539 0)
(0.0474135 -0.00516903 0)
(0.0488912 -0.00517241 0)
(0.0503698 -0.00517552 0)
(0.0518494 -0.00517832 0)
(0.0533297 -0.00518076 0)
(0.0548108 -0.0051828 0)
(0.0562924 -0.00518442 0)
(0.0577744 -0.00518557 0)
(0.0592568 -0.00518621 0)
(0.0607393 -0.00518629 0)
(0.0622219 -0.00518578 0)
(0.0637042 -0.00518462 0)
(0.0651862 -0.00518277 0)
(0.0666676 -0.00518019 0)
(0.0681482 -0.00517682 0)
(0.0696278 -0.00517262 0)
(0.0711061 -0.00516754 0)
(0.0725829 -0.00516152 0)
(0.0740579 -0.00515453 0)
(0.0755309 -0.00514649 0)
(0.0770014 -0.00513737 0)
(0.0784693 -0.00512711 0)
(0.0799341 -0.00511565 0)
(0.0813956 -0.00510295 0)
(0.0828533 -0.00508895 0)
(0.0843068 -0.00507359 0)
(0.0857559 -0.00505681 0)
(0.0872 -0.00503858 0)
(0.0886387 -0.00501883 0)
(0.0900717 -0.0049975 0)
(0.0914984 -0.00497455 0)
(0.0929184 -0.00494992 0)
(0.0943311 -0.00492357 0)
(0.0957362 -0.00489543 0)
(0.097133 -0.00486546 0)
(0.098521 -0.00483361 0)
(0.0998997 -0.00479984 0)
(0.101269 -0.0047641 0)
(0.102627 -0.00472634 0)
(0.103974 -0.00468652 0)
(0.10531 -0.0046446 0)
(0.106634 -0.00460054 0)
(0.107944 -0.00455431 0)
(0.109241 -0.00450588 0)
(0.110524 -0.00445521 0)
(0.111793 -0.00440227 0)
(0.113046 -0.00434705 0)
(0.114282 -0.00428951 0)
(0.115502 -0.00422965 0)
(0.116705 -0.00416744 0)
(0.117889 -0.00410288 0)
(0.119055 -0.00403596 0)
(0.120201 -0.00396668 0)
(0.121328 -0.00389503 0)
(0.122433 -0.00382103 0)
(0.123517 -0.00374467 0)
(0.124578 -0.00366598 0)
(0.125617 -0.00358497 0)
(0.126633 -0.00350167 0)
(0.127624 -0.0034161 0)
(0.12859 -0.00332829 0)
(0.129531 -0.00323828 0)
(0.130446 -0.00314611 0)
(0.131334 -0.00305183 0)
(0.132195 -0.00295548 0)
(0.133028 -0.00285712 0)
(0.133832 -0.0027568 0)
(0.134607 -0.0026546 0)
(0.135353 -0.00255057 0)
(0.136069 -0.00244479 0)
(0.136754 -0.00233733 0)
(0.137409 -0.00222827 0)
(0.138031 -0.0021177 0)
(0.138622 -0.00200569 0)
(0.139181 -0.00189234 0)
(0.139707 -0.00177774 0)
(0.140199 -0.00166199 0)
(0.140659 -0.00154517 0)
(0.141085 -0.0014274 0)
(0.141477 -0.00130877 0)
(0.141834 -0.00118939 0)
(0.142158 -0.00106936 0)
(0.142447 -0.000948788 0)
(0.142701 -0.000827779 0)
(0.142921 -0.000706443 0)
(0.143105 -0.000584888 0)
(0.143255 -0.000463222 0)
(0.14337 -0.000341554 0)
(0.14345 -0.000219991 0)
(0.143495 -9.86401e-05 0)
(0.143506 2.23925e-05 0)
(0.143481 0.000143002 0)
(0.143423 0.000263086 0)
(0.143329 0.000382542 0)
(0.143202 0.000501272 0)
(0.143041 0.000619177 0)
(0.142846 0.000736164 0)
(0.142618 0.000852141 0)
(0.142357 0.000967018 0)
(0.142062 0.00108071 0)
(0.141736 0.00119313 0)
(0.141377 0.00130421 0)
(0.140987 0.00141386 0)
(0.140566 0.00152202 0)
(0.140114 0.00162861 0)
(0.139631 0.00173357 0)
(0.139119 0.00183684 0)
(0.138577 0.00193836 0)
(0.138007 0.00203809 0)
(0.137408 0.00213596 0)
(0.136782 0.00223194 0)
(0.136128 0.00232598 0)
(0.135448 0.00241805 0)
(0.134742 0.00250811 0)
(0.13401 0.00259614 0)
(0.133253 0.00268211 0)
(0.132472 0.00276599 0)
(0.131667 0.00284778 0)
(0.13084 0.00292745 0)
(0.129989 0.003005 0)
(0.129117 0.00308042 0)
(0.128224 0.0031537 0)
(0.12731 0.00322484 0)
(0.126376 0.00329386 0)
(0.125423 0.00336074 0)
(0.124451 0.00342551 0)
(0.12346 0.00348817 0)
(0.122452 0.00354874 0)
(0.121427 0.00360723 0)
(0.120386 0.00366367 0)
(0.119329 0.00371807 0)
(0.118256 0.00377045 0)
(0.117169 0.00382085 0)
(0.116068 0.00386929 0)
(0.114954 0.0039158 0)
(0.113826 0.00396041 0)
(0.112686 0.00400315 0)
(0.111534 0.00404406 0)
(0.110371 0.00408316 0)
(0.109197 0.0041205 0)
(0.108012 0.00415612 0)
(0.106818 0.00419004 0)
(0.105614 0.00422231 0)
(0.104401 0.00425296 0)
(0.10318 0.00428205 0)
(0.10195 0.0043096 0)
(0.100713 0.00433565 0)
(0.0994693 0.00436026 0)
(0.0982184 0.00438345 0)
(0.0969612 0.00440527 0)
(0.0956979 0.00442577 0)
(0.094429 0.00444497 0)
(0.0931549 0.00446293 0)
(0.0918758 0.00447968 0)
(0.0905922 0.00449527 0)
(0.0893044 0.00450973 0)
(0.0880126 0.00452311 0)
(0.0867172 0.00453544 0)
(0.0854185 0.00454676 0)
(0.0841167 0.00455712 0)
(0.0828122 0.00456654 0)
(0.0815051 0.00457508 0)
(0.0801958 0.00458277 0)
(0.0788844 0.00458963 0)
(0.0775712 0.00459572 0)
(0.0762565 0.00460106 0)
(0.0749403 0.00460569 0)
(0.073623 0.00460964 0)
(0.0723047 0.00461296 0)
(0.0709855 0.00461566 0)
(0.0696657 0.00461778 0)
(0.0683455 0.00461936 0)
(0.0670249 0.00462043 0)
(0.065704 0.004621 0)
(0.0643832 0.00462113 0)
(0.0630624 0.00462082 0)
(0.0617417 0.00462012 0)
(0.0604214 0.00461904 0)
(0.0591014 0.00461762 0)
(0.057782 0.00461588 0)
(0.0564631 0.00461384 0)
(0.0551448 0.00461153 0)
(0.0538273 0.00460897 0)
(0.0525106 0.00460619 0)
(0.0511947 0.00460321 0)
(0.0498797 0.00460004 0)
(0.0485657 0.00459672 0)
(0.0472527 0.00459325 0)
(0.0459407 0.00458966 0)
(0.0446298 0.00458597 0)
(0.04332 0.0045822 0)
(0.0420112 0.00457835 0)
(0.0407036 0.00457446 0)
(0.0393972 0.00457054 0)
(0.0380918 0.00456659 0)
(0.0367877 0.00456265 0)
(0.0354846 0.00455871 0)
(0.0341828 0.0045548 0)
(0.032882 0.00455092 0)
(0.0315823 0.0045471 0)
(0.0302838 0.00454333 0)
(0.0289863 0.00453964 0)
(0.0276899 0.00453604 0)
(0.0263945 0.00453253 0)
(0.0251002 0.00452913 0)
(0.0238067 0.00452584 0)
(0.0225143 0.00452267 0)
(0.0212227 0.00451963 0)
(0.019932 0.00451673 0)
(0.018642 0.00451398 0)
(0.0173529 0.00451139 0)
(0.0160645 0.00450895 0)
(0.0147768 0.00450667 0)
(0.0134897 0.00450457 0)
(0.0122031 0.00450264 0)
(0.0109172 0.0045009 0)
(0.00963165 0.00449934 0)
(0.00834656 0.00449796 0)
(0.00706185 0.00449678 0)
(0.00577745 0.00449579 0)
(0.0044933 0.00449499 0)
(0.00320936 0.00449439 0)
(0.00192556 0.004494 0)
(0.000641843 0.0044938 0)
(0.000723429 -0.00651343 0)
(0.00217033 -0.00651379 0)
(0.00361735 -0.00651451 0)
(0.00506457 -0.00651558 0)
(0.00651208 -0.006517 0)
(0.00795996 -0.00651877 0)
(0.00940827 -0.00652089 0)
(0.0108571 -0.00652333 0)
(0.0123065 -0.00652611 0)
(0.0137566 -0.00652919 0)
(0.0152075 -0.00653259 0)
(0.0166591 -0.00653628 0)
(0.0181116 -0.00654024 0)
(0.0195651 -0.00654448 0)
(0.0210195 -0.00654896 0)
(0.022475 -0.00655368 0)
(0.0239316 -0.00655861 0)
(0.0253893 -0.00656373 0)
(0.0268483 -0.00656903 0)
(0.0283085 -0.00657448 0)
(0.0297699 -0.00658006 0)
(0.0312326 -0.00658574 0)
(0.0326967 -0.00659149 0)
(0.034162 -0.00659729 0)
(0.0356287 -0.00660311 0)
(0.0370968 -0.00660892 0)
(0.0385662 -0.00661468 0)
(0.0400369 -0.00662037 0)
(0.0415089 -0.00662594 0)
(0.0429822 -0.00663135 0)
(0.0444568 -0.00663658 0)
(0.0459325 -0.00664158 0)
(0.0474094 -0.00664631 0)
(0.0488874 -0.00665073 0)
(0.0503664 -0.00665479 0)
(0.0518463 -0.00665844 0)
(0.0533271 -0.00666164 0)
(0.0548086 -0.00666434 0)
(0.0562907 -0.0066665 0)
(0.0577734 -0.00666804 0)
(0.0592563 -0.00666894 0)
(0.0607395 -0.00666912 0)
(0.0622228 -0.00666853 0)
(0.0637059 -0.00666712 0)
(0.0651886 -0.00666482 0)
(0.0666709 -0.00666158 0)
(0.0681524 -0.00665734 0)
(0.069633 -0.00665202 0)
(0.0711124 -0.00664558 0)
(0.0725903 -0.00663793 0)
(0.0740665 -0.00662902 0)
(0.0755406 -0.00661878 0)
(0.0770124 -0.00660715 0)
(0.0784816 -0.00659405 0)
(0.0799479 -0.00657941 0)
(0.0814107 -0.00656317 0)
(0.08287 -0.00654526 0)
(0.0843251 -0.0065256 0)
(0.0857758 -0.00650413 0)
(0.0872216 -0.00648078 0)
(0.0886621 -0.00645547 0)
(0.0900969 -0.00642814 0)
(0.0915255 -0.00639873 0)
(0.0929474 -0.00636715 0)
(0.0943622 -0.00633335 0)
(0.0957693 -0.00629726 0)
(0.0971682 -0.00625881 0)
(0.0985584 -0.00621795 0)
(0.0999394 -0.00617461 0)
(0.10131 -0.00612872 0)
(0.102671 -0.00608025 0)
(0.104021 -0.00602912 0)
(0.105359 -0.00597529 0)
(0.106685 -0.00591871 0)
(0.107998 -0.00585933 0)
(0.109298 -0.00579711 0)
(0.110584 -0.005732 0)
(0.111854 -0.00566399 0)
(0.11311 -0.00559302 0)
(0.114349 -0.00551908 0)
(0.115572 -0.00544214 0)
(0.116777 -0.00536217 0)
(0.117965 -0.00527918 0)
(0.119133 -0.00519315 0)
(0.120282 -0.00510407 0)
(0.121411 -0.00501194 0)
(0.122519 -0.00491677 0)
(0.123605 -0.00481858 0)
(0.12467 -0.00471737 0)
(0.125711 -0.00461318 0)
(0.126729 -0.00450603 0)
(0.127723 -0.00439596 0)
(0.128692 -0.004283 0)
(0.129635 -0.00416721 0)
(0.130552 -0.00404862 0)
(0.131443 -0.00392732 0)
(0.132306 -0.00380335 0)
(0.133141 -0.00367678 0)
(0.133948 -0.0035477 0)
(0.134725 -0.00341618 0)
(0.135473 -0.00328231 0)
(0.136191 -0.00314617 0)
(0.136878 -0.00300788 0)
(0.137534 -0.00286752 0)
(0.138159 -0.0027252 0)
(0.138751 -0.00258104 0)
(0.139311 -0.00243515 0)
(0.139838 -0.00228765 0)
(0.140332 -0.00213865 0)
(0.140793 -0.0019883 0)
(0.14122 -0.0018367 0)
(0.141613 -0.001684 0)
(0.141971 -0.00153033 0)
(0.142295 -0.00137582 0)
(0.142585 -0.00122062 0)
(0.14284 -0.00106485 0)
(0.14306 -0.00090866 0)
(0.143244 -0.000752189 0)
(0.143394 -0.000595577 0)
(0.143509 -0.000438962 0)
(0.143589 -0.000282483 0)
(0.143634 -0.000126279 0)
(0.143644 2.95136e-05 0)
(0.143619 0.00018476 0)
(0.14356 0.000339327 0)
(0.143466 0.000493084 0)
(0.143338 0.000645902 0)
(0.143175 0.000797657 0)
(0.142979 0.000948227 0)
(0.14275 0.00109749 0)
(0.142487 0.00124534 0)