/*--------------------------------*- C++ -*----------------------------------*\
| =========                 |                                                 |
| \\      /  F ield         | OpenFOAM: The Open Source CFD Toolbox           |
|  \\    /   O peration     | Version:  v2012                                 |
|   \\  /    A nd           | Website:  www.openfoam.com                      |
|    \\/     M anipulation  |                                                 |
\*---------------------------------------------------------------------------*/
FoamFile
{
    version     2.0;
    format      ascii;
    class       volScalarField;
    location    "12.75";
    object      W;
}
// * * * * * * * * * * * * * * * * * * * * * * * * * * * * * * * * * * * * * //

dimensions      [0 0 -1 0 0 0 0];


internalField   nonuniform List<scalar> 
65536
(
4.89215e-16
4.93834e-16
5.10246e-16
5.38632e-16
5.79419e-16
6.33281e-16
7.01139e-16
7.84179e-16
8.83865e-16
1.00196e-15
1.14053e-15
1.30203e-15
1.48927e-15
1.70548e-15
1.95438e-15
2.2402e-15
2.56773e-15
2.94242e-15
3.3704e-15
3.85861e-15
4.41483e-15
5.04784e-15
5.76744e-15
6.58464e-15
7.51174e-15
8.56248e-15
9.75218e-15
1.10979e-14
1.26186e-14
1.43354e-14
1.62716e-14
1.84531e-14
2.09086e-14
2.36697e-14
2.67712e-14
3.02517e-14
3.41533e-14
3.85224e-14
4.341e-14
4.88717e-14
5.49685e-14
6.17669e-14
6.93392e-14
7.77643e-14
8.71278e-14
9.75226e-14
1.09049e-13
1.21816e-13
1.3594e-13
1.51547e-13
1.68774e-13
1.87765e-13
2.08675e-13
2.31671e-13
2.56931e-13
2.84642e-13
3.15004e-13
3.48231e-13
3.84544e-13
4.24182e-13
4.67392e-13
5.14434e-13
5.65582e-13
6.21121e-13
6.81346e-13
7.46566e-13
8.17098e-13
8.93273e-13
9.75427e-13
1.06391e-12
1.15907e-12
1.26127e-12
1.37087e-12
1.48825e-12
1.61378e-12
1.74782e-12
1.89074e-12
2.04292e-12
2.2047e-12
2.37644e-12
2.55848e-12
2.75115e-12
2.95476e-12
3.1696e-12
3.39594e-12
3.63404e-12
3.88411e-12
4.14634e-12
4.42089e-12
4.7079e-12
5.00744e-12
5.31956e-12
5.64427e-12
5.98152e-12
6.33123e-12
6.69326e-12
7.06742e-12
7.45346e-12
7.85109e-12
8.25995e-12
8.67963e-12
9.10967e-12
9.54954e-12
9.99865e-12
1.04563e-11
1.09219e-11
1.13946e-11
1.18736e-11
1.2358e-11
1.28469e-11
1.33392e-11
1.3834e-11
1.433e-11
1.48262e-11
1.53214e-11
1.58142e-11
1.63033e-11
1.67874e-11
1.72651e-11
1.7735e-11
1.81955e-11
1.86452e-11
1.90824e-11
1.95057e-11
1.99134e-11
2.03038e-11
2.06754e-11
2.10265e-11
2.13553e-11
2.16604e-11
2.19399e-11
2.21923e-11
2.2416e-11
2.26093e-11
2.27708e-11
2.28989e-11
2.29922e-11
2.30495e-11
2.30694e-11
2.30509e-11
2.2993e-11
2.28948e-11
2.27555e-11
2.25748e-11
2.23522e-11
2.20877e-11
2.17813e-11
2.14335e-11
2.10449e-11
2.06163e-11
2.0149e-11
1.96444e-11
1.91043e-11
1.85308e-11
1.79262e-11
1.72932e-11
1.66346e-11
1.59537e-11
1.52539e-11
1.45389e-11
1.38123e-11
1.30783e-11
1.23407e-11
1.16037e-11
1.08715e-11
1.0148e-11
9.43726e-12
8.74314e-12
8.06927e-12
7.41907e-12
6.79568e-12
6.20195e-12
5.64037e-12
5.11307e-12
4.62179e-12
4.16787e-12
3.75226e-12
3.37549e-12
3.03769e-12
2.73863e-12
2.47768e-12
2.25388e-12
2.06591e-12
1.91218e-12
1.7908e-12
1.69961e-12
1.63624e-12
1.5981e-12
1.58244e-12
1.58634e-12
1.60679e-12
1.64066e-12
1.68481e-12
1.73607e-12
1.79133e-12
1.84756e-12
1.90186e-12
1.95152e-12
1.99411e-12
2.02744e-12
2.04969e-12
2.05943e-12
2.0556e-12
2.0376e-12
2.00525e-12
1.9588e-12
1.89888e-12
1.82652e-12
1.74306e-12
1.65008e-12
1.54939e-12
1.44289e-12
1.33257e-12
1.22037e-12
1.10817e-12
9.97723e-13
8.90571e-13
7.88056e-13
6.91275e-13
6.0107e-13
5.18033e-13
4.42512e-13
3.74634e-13
3.14329e-13
2.61358e-13
2.15348e-13
1.75826e-13
1.42248e-13
1.14027e-13
9.05643e-14
7.12643e-14
5.55571e-14
4.29084e-14
3.28295e-14
2.48824e-14
1.86814e-14
1.38932e-14
1.02342e-14
7.4671e-15
5.3961e-15
3.86211e-15
2.73761e-15
1.92179e-15
1.33602e-15
9.19777e-16
6.27046e-16
4.2331e-16
2.82988e-16
1.87359e-16
1.22893e-16
7.99385e-17
5.17038e-17
3.34893e-17
2.21147e-17
1.55085e-17
1.24253e-17
7.40106e-16
7.47083e-16
7.71915e-16
8.14871e-16
8.76599e-16
9.58116e-16
1.06082e-15
1.18651e-15
1.33741e-15
1.51618e-15
1.72597e-15
1.97049e-15
2.25399e-15
2.5814e-15
2.95834e-15
3.39122e-15
3.88732e-15
4.45488e-15
5.10323e-15
5.84285e-15
6.68558e-15
7.64469e-15
8.73506e-15
9.97337e-15
1.13783e-14
1.29705e-14
1.47734e-14
1.68127e-14
1.91171e-14
2.17185e-14
2.46523e-14
2.79576e-14
3.16777e-14
3.58602e-14
4.05579e-14
4.58286e-14
5.1736e-14
5.835e-14
6.57471e-14
7.40109e-14
8.32328e-14
9.35124e-14
1.04958e-13
1.17688e-13
1.31829e-13
1.4752e-13
1.6491e-13
1.84161e-13
2.05445e-13
2.28949e-13
2.54872e-13
2.83428e-13
3.14846e-13
3.49366e-13
3.87249e-13
4.28766e-13
4.74208e-13
5.23879e-13
5.78101e-13
6.3721e-13
7.01561e-13
7.71519e-13
8.4747e-13
9.2981e-13
1.01895e-12
1.11532e-12
1.21934e-12
1.33147e-12
1.45215e-12
1.58186e-12
1.72105e-12
1.8702e-12
2.02976e-12
2.20022e-12
2.38202e-12
2.57563e-12
2.78148e-12
3.00001e-12
3.23162e-12
3.47671e-12
3.73564e-12
4.00873e-12
4.29631e-12
4.59863e-12
4.91593e-12
5.24838e-12
5.59611e-12
5.95923e-12
6.33776e-12
6.73166e-12
7.14087e-12
7.56522e-12
8.00451e-12
8.45845e-12
8.9267e-12
9.40883e-12
9.90435e-12
1.04127e-11
1.09332e-11
1.14653e-11
1.2008e-11
1.25606e-11
1.31221e-11
1.36915e-11
1.42679e-11
1.485e-11
1.54367e-11
1.60267e-11
1.66188e-11
1.72116e-11
1.78037e-11
1.83937e-11
1.89801e-11
1.95613e-11
2.01358e-11
2.07019e-11
2.12582e-11
2.18029e-11
2.23343e-11
2.28509e-11
2.33507e-11
2.38323e-11
2.42938e-11
2.47336e-11
2.51499e-11
2.5541e-11
2.59052e-11
2.62409e-11
2.65464e-11
2.68201e-11
2.70604e-11
2.72658e-11
2.74348e-11
2.7566e-11
2.76579e-11
2.77094e-11
2.77193e-11
2.76865e-11
2.76101e-11
2.74892e-11
2.73232e-11
2.71117e-11
2.68542e-11
2.65508e-11
2.62014e-11
2.58064e-11
2.53665e-11
2.48824e-11
2.43552e-11
2.37864e-11
2.31777e-11
2.25309e-11
2.18485e-11
2.11329e-11
2.03871e-11
1.96141e-11
1.88175e-11
1.80008e-11
1.7168e-11
1.6323e-11
1.54702e-11
1.46138e-11
1.37582e-11
1.29078e-11
1.2067e-11
1.12402e-11
1.04315e-11
9.64481e-12
8.88399e-12
8.1525e-12
7.4535e-12
6.78983e-12
6.1639e-12
5.57776e-12
5.03301e-12
4.53083e-12
4.07197e-12
3.65674e-12
3.28504e-12
2.95637e-12
2.66984e-12
2.42419e-12
2.21783e-12
2.04887e-12
1.91512e-12
1.81414e-12
1.74326e-12
1.69962e-12
1.68019e-12
1.68178e-12
1.70112e-12
1.73484e-12
1.77957e-12
1.83193e-12
1.88859e-12
1.94633e-12
2.0021e-12
2.05304e-12
2.09656e-12
2.1304e-12
2.15265e-12
2.16179e-12
2.15675e-12
2.1369e-12
2.10207e-12
2.05253e-12
1.98897e-12
1.91245e-12
1.8244e-12
1.72648e-12
1.62058e-12
1.5087e-12
1.39291e-12
1.27525e-12
1.15768e-12
1.042e-12
9.29848e-13
8.22601e-13
7.21399e-13
6.27115e-13
5.40356e-13
4.6148e-13
3.9061e-13
3.27666e-13
2.72394e-13
2.244e-13
1.83184e-13
1.48175e-13
1.18759e-13
9.43069e-14
7.41981e-14
5.78357e-14
4.46619e-14
3.41666e-14
2.58925e-14
1.94374e-14
1.44537e-14
1.06459e-14
7.76661e-15
5.61197e-15
4.01622e-15
2.84658e-15
1.9981e-15
1.38896e-15
9.5614e-16
6.51785e-16
4.39978e-16
2.9411e-16
1.94709e-16
1.27706e-16
8.30639e-17
5.37221e-17
3.47944e-17
2.29752e-17
1.6111e-17
1.29078e-17
1.34616e-15
1.35884e-15
1.40403e-15
1.48221e-15
1.59455e-15
1.7429e-15
1.92984e-15
2.15862e-15
2.4333e-15
2.75874e-15
3.14071e-15
3.58593e-15
4.10219e-15
4.69846e-15
5.38501e-15
6.17351e-15
7.07727e-15
8.11131e-15
9.29264e-15
1.06404e-14
1.21762e-14
1.39242e-14
1.59115e-14
1.81686e-14
2.07295e-14
2.3632e-14
2.69185e-14
3.0636e-14
3.48368e-14
3.9579e-14
4.49267e-14
5.09512e-14
5.77312e-14
6.53532e-14
7.39128e-14
8.35151e-14
9.42753e-14
1.0632e-13
1.19787e-13
1.34828e-13
1.51608e-13
1.70306e-13
1.91117e-13
2.14252e-13
2.39941e-13
2.6843e-13
2.99986e-13
3.34897e-13
3.7347e-13
4.16035e-13
4.62945e-13
5.14577e-13
5.7133e-13
6.3363e-13
7.01926e-13
7.76694e-13
8.58434e-13
9.47671e-13
1.04495e-12
1.15086e-12
1.26598e-12
1.39094e-12
1.52638e-12
1.67296e-12
1.83134e-12
2.00223e-12
2.18633e-12
2.38434e-12
2.59698e-12
2.82497e-12
3.06902e-12
3.32984e-12
3.60811e-12
3.90453e-12
4.21974e-12
4.55435e-12
4.90897e-12
5.28414e-12
5.68036e-12
6.09806e-12
6.53764e-12
6.99942e-12
7.48363e-12
7.99045e-12
8.51994e-12
9.07211e-12
9.64683e-12
1.02439e-11
1.0863e-11
1.15038e-11
1.21656e-11
1.28478e-11
1.35498e-11
1.42705e-11
1.5009e-11
1.57642e-11
1.65349e-11
1.73197e-11
1.81172e-11
1.89258e-11
1.97439e-11
2.05698e-11
2.14015e-11
2.22374e-11
2.30752e-11
2.3913e-11
2.47488e-11
2.55802e-11
2.64052e-11
2.72215e-11
2.80269e-11
2.8819e-11
2.95957e-11
3.03545e-11
3.10933e-11
3.18098e-11
3.25018e-11
3.3167e-11
3.38033e-11
3.44085e-11
3.49806e-11
3.55175e-11
3.60173e-11
3.6478e-11
3.68978e-11
3.72748e-11
3.76075e-11
3.78942e-11
3.81332e-11
3.83233e-11
3.84631e-11
3.85512e-11
3.85866e-11
3.85682e-11
3.84952e-11
3.83668e-11
3.81824e-11
3.79415e-11
3.76439e-11
3.72895e-11
3.68784e-11
3.64108e-11
3.58873e-11
3.53086e-11
3.46759e-11
3.39903e-11
3.32534e-11
3.2467e-11
3.16333e-11
3.07548e-11
2.98341e-11
2.88744e-11
2.78788e-11
2.68512e-11
2.57955e-11
2.47157e-11
2.36165e-11
2.25023e-11
2.1378e-11
2.02487e-11
1.91194e-11
1.79951e-11
1.68811e-11
1.57824e-11
1.4704e-11
1.36507e-11
1.2627e-11
1.16374e-11
1.06857e-11
9.77571e-12
8.91056e-12
8.09305e-12
7.3255e-12
6.60974e-12
5.94712e-12
5.33845e-12
4.78408e-12
4.28387e-12
3.83719e-12
3.443e-12
3.09983e-12
2.8058e-12
2.55872e-12
2.35604e-12
2.19495e-12
2.07236e-12
1.98499e-12
1.92934e-12
1.90176e-12
1.8985e-12
1.9157e-12
1.94946e-12
1.99587e-12
2.05105e-12
2.11123e-12
2.17277e-12
2.23221e-12
2.28636e-12
2.33234e-12
2.36763e-12
2.39012e-12
2.39816e-12
2.39057e-12
2.36668e-12
2.32633e-12
2.26984e-12
2.198e-12
2.11202e-12
2.01347e-12
1.90422e-12
1.78634e-12
1.66205e-12
1.53363e-12
1.40333e-12
1.27328e-12
1.14548e-12
1.02169e-12
9.03429e-13
7.91927e-13
6.88126e-13
5.92678e-13
5.0596e-13
4.28093e-13
3.58975e-13
2.98315e-13
2.45668e-13
2.00479e-13
1.62112e-13
1.29889e-13
1.03115e-13
8.11052e-14
6.32024e-14
4.87934e-14
3.73178e-14
2.82737e-14
2.122e-14
1.57758e-14
1.16172e-14
8.47351e-15
6.12157e-15
4.38009e-15
3.10393e-15
2.17838e-15
1.51403e-15
1.04208e-15
7.10261e-16
4.79384e-16
3.20409e-16
2.12093e-16
1.39091e-16
9.04581e-17
5.84976e-17
3.78831e-17
2.50119e-17
1.75374e-17
1.40497e-17
2.5689e-15
2.59314e-15
2.67945e-15
2.82875e-15
3.04329e-15
3.32664e-15
3.68368e-15
4.12069e-15
4.6454e-15
5.26713e-15
5.99692e-15
6.84765e-15
7.83423e-15
8.97384e-15
1.02861e-14
1.17935e-14
1.35213e-14
1.54985e-14
1.77575e-14
2.0335e-14
2.32724e-14
2.6616e-14
3.04178e-14
3.4736e-14
3.96356e-14
4.51893e-14
5.14779e-14
5.85914e-14
6.663e-14
7.57044e-14
8.59377e-14
9.74658e-14
1.10439e-13
1.25022e-13
1.41398e-13
1.59766e-13
1.80347e-13
2.03381e-13
2.2913e-13
2.57883e-13
2.89952e-13
3.25676e-13
3.65424e-13
4.09597e-13
4.58626e-13
5.12977e-13
5.73152e-13
6.39689e-13
7.13164e-13
7.94196e-13
8.8344e-13
9.81597e-13
1.08941e-12
1.20766e-12
1.33718e-12
1.47884e-12
1.63355e-12
1.80228e-12
1.986e-12
2.18577e-12
2.40264e-12
2.63773e-12
2.89215e-12
3.16707e-12
3.46367e-12
3.78314e-12
4.12666e-12
4.49545e-12
4.8907e-12
5.31357e-12
5.76524e-12
6.24681e-12
6.75936e-12
7.30392e-12
7.88144e-12
8.4928e-12
9.13879e-12
9.82009e-12
1.05373e-11
1.12908e-11
1.2081e-11
1.29081e-11
1.37719e-11
1.46725e-11
1.56094e-11
1.65821e-11
1.75899e-11
1.86319e-11
1.9707e-11
2.08139e-11
2.19509e-11
2.31165e-11
2.43086e-11
2.55251e-11
2.67636e-11
2.80216e-11
2.92964e-11
3.05851e-11
3.18847e-11
3.31919e-11
3.45034e-11
3.58157e-11
3.71254e-11
3.84288e-11
3.97222e-11
4.10018e-11
4.22638e-11
4.35046e-11
4.47203e-11
4.59072e-11
4.70616e-11
4.81798e-11
4.92583e-11
5.02936e-11
5.12824e-11
5.22214e-11
5.31075e-11
5.39378e-11
5.47094e-11
5.54196e-11
5.6066e-11
5.66462e-11
5.71581e-11
5.75997e-11
5.79692e-11
5.82651e-11
5.84857e-11
5.86301e-11
5.86969e-11
5.86855e-11
5.85952e-11
5.84254e-11
5.81759e-11
5.78467e-11
5.74378e-11
5.69495e-11
5.63826e-11
5.57376e-11
5.50157e-11
5.42181e-11
5.33464e-11
5.24022e-11
5.13876e-11
5.03051e-11
4.9157e-11
4.79465e-11
4.66766e-11
4.5351e-11
4.39735e-11
4.25481e-11
4.10796e-11
3.95725e-11
3.8032e-11
3.64634e-11
3.48723e-11
3.32646e-11
3.16463e-11
3.00236e-11
2.84028e-11
2.67903e-11
2.51925e-11
2.36156e-11
2.20659e-11
2.05495e-11
1.90721e-11
1.76394e-11
1.62565e-11
1.49281e-11
1.36585e-11
1.24516e-11
1.13104e-11
1.02377e-11
9.23559e-12
8.30537e-12
7.44792e-12
6.66342e-12
5.9515e-12
5.31121e-12
4.74103e-12
4.23899e-12
3.80261e-12
3.42903e-12
3.11498e-12
2.85687e-12
2.65082e-12
2.49269e-12
2.37815e-12
2.30269e-12
2.26165e-12
2.25031e-12
2.26388e-12
2.29755e-12
2.34657e-12
2.40627e-12
2.4721e-12
2.53974e-12
2.60511e-12
2.66445e-12
2.71441e-12
2.75205e-12
2.77494e-12
2.78118e-12
2.76947e-12
2.73904e-12
2.68976e-12
2.62203e-12
2.53679e-12
2.43548e-12
2.31993e-12
2.1923e-12
2.05502e-12
1.91062e-12
1.76174e-12
1.61094e-12
1.46069e-12
1.31323e-12
1.17059e-12
1.03447e-12
9.06269e-13
7.87041e-13
6.77508e-13
5.78078e-13
4.88867e-13
4.09739e-13
3.40341e-13
2.80152e-13
2.28521e-13
1.84711e-13
1.47937e-13
1.17398e-13
9.23047e-14
7.19042e-14
5.54924e-14
4.24273e-14
3.21348e-14
2.41106e-14
1.79195e-14
1.31922e-14
9.61973e-15
6.94786e-15
4.97011e-15
3.52122e-15
2.47069e-15
1.71682e-15
1.18142e-15
8.05078e-16
5.4328e-16
3.63051e-16
2.40279e-16
1.5755e-16
1.02448e-16
6.62411e-17
4.28915e-17
2.83145e-17
1.98503e-17
1.59011e-17
4.91808e-15
4.96458e-15
5.13e-15
5.41612e-15
5.82728e-15
6.37031e-15
7.0546e-15
7.89221e-15
8.89802e-15
1.00899e-14
1.14891e-14
1.31204e-14
1.50123e-14
1.7198e-14
1.97152e-14
2.26069e-14
2.59221e-14
2.9716e-14
3.40514e-14
3.89986e-14
4.46372e-14
5.10563e-14
5.83557e-14
6.66475e-14
7.60566e-14
8.67226e-14
9.8801e-14
1.12465e-13
1.27906e-13
1.45338e-13
1.64996e-13
1.87142e-13
2.12063e-13
2.40077e-13
2.71533e-13
3.06815e-13
3.46342e-13
3.90576e-13
4.40019e-13
4.95219e-13
5.56773e-13
6.25329e-13
7.0159e-13
7.86316e-13
8.80326e-13
9.84505e-13
1.0998e-12
1.22723e-12
1.36789e-12
1.52293e-12
1.69359e-12
1.88118e-12
2.08709e-12
2.31278e-12
2.55979e-12
2.82973e-12
3.12428e-12
3.44521e-12
3.79432e-12
4.17351e-12
4.58471e-12
5.02989e-12
5.51109e-12
6.03035e-12
6.58974e-12
7.19134e-12
7.83721e-12
8.5294e-12
9.26991e-12
1.00607e-11
1.09036e-11
1.18005e-11
1.2753e-11
1.37626e-11
1.48306e-11
1.59584e-11
1.71469e-11
1.83968e-11
1.97087e-11
2.10828e-11
2.2519e-11
2.40171e-11
2.55764e-11
2.71958e-11
2.8874e-11
3.06093e-11
3.23995e-11
3.42422e-11
3.61345e-11
3.80732e-11
4.00546e-11
4.20748e-11
4.41294e-11
4.62136e-11
4.83226e-11
5.04508e-11
5.25929e-11
5.47428e-11
5.68945e-11
5.90418e-11
6.11782e-11
6.32971e-11
6.53921e-11
6.74563e-11
6.94832e-11
7.1466e-11
7.33984e-11
7.52737e-11
7.70858e-11
7.88285e-11
8.04959e-11
8.20824e-11
8.35825e-11
8.49913e-11
8.63038e-11
8.75158e-11
8.86231e-11
8.9622e-11
9.05091e-11
9.12815e-11
9.19365e-11
9.2472e-11
9.28861e-11
9.31774e-11
9.33448e-11
9.33876e-11
9.33054e-11
9.30982e-11
9.27664e-11
9.23105e-11
9.17317e-11
9.10311e-11
9.02105e-11
8.92717e-11
8.8217e-11
8.70488e-11
8.57699e-11
8.43836e-11
8.28931e-11
8.13021e-11
7.96147e-11
7.78351e-11
7.59679e-11
7.4018e-11
7.19907e-11
6.98914e-11
6.77259e-11
6.55006e-11
6.32217e-11
6.08962e-11
5.8531e-11
5.61335e-11
5.37112e-11
5.12721e-11
4.8824e-11
4.63751e-11
4.39337e-11
4.15082e-11
3.91067e-11
3.67376e-11
3.44089e-11
3.21286e-11
2.99042e-11
2.77431e-11
2.5652e-11
2.36374e-11
2.1705e-11
1.986e-11
1.81068e-11
1.64492e-11
1.48903e-11
1.34322e-11
1.20765e-11
1.08237e-11
9.67369e-12
8.62565e-12
7.67795e-12
6.82832e-12
6.07383e-12
5.411e-12
4.83581e-12
4.3438e-12
3.93011e-12
3.58952e-12
3.31653e-12
3.10543e-12
2.9503e-12
2.8451e-12
2.78369e-12
2.75991e-12
2.76758e-12
2.80058e-12
2.8529e-12
2.9187e-12
2.99233e-12
3.06846e-12
3.1421e-12
3.20869e-12
3.26415e-12
3.30498e-12
3.32828e-12
3.3318e-12
3.314e-12
3.27405e-12
3.21181e-12
3.12781e-12
3.02324e-12
2.89981e-12
2.75977e-12
2.6057e-12
2.44049e-12
2.26719e-12
2.08889e-12
1.90865e-12
1.72937e-12
1.55369e-12
1.38399e-12
1.22225e-12
1.0701e-12
9.28749e-13
7.99021e-13
6.81367e-13
5.75898e-13
4.82425e-13
4.0051e-13
3.29517e-13
2.68659e-13
2.17054e-13
1.73764e-13
1.37834e-13
1.08328e-13
8.43529e-14
6.5075e-14
4.97356e-14
3.76569e-14
2.82443e-14
2.0985e-14
1.54441e-14
1.12585e-14
8.12917e-15
5.81357e-15
4.11772e-15
2.88851e-15
2.00668e-15
1.38057e-15
9.40584e-16
6.34591e-16
4.23987e-16
2.80556e-16
1.83927e-16
1.19578e-16
7.73047e-17
5.00471e-17
3.30327e-17
2.31546e-17
1.8546e-17
9.33485e-15
9.42335e-15
9.73777e-15
1.02816e-14
1.10629e-14
1.2095e-14
1.33956e-14
1.49877e-14
1.68997e-14
1.91657e-14
2.18261e-14
2.49281e-14
2.85264e-14
3.26839e-14
3.74726e-14
4.29745e-14
4.92831e-14
5.65039e-14
6.47562e-14
7.41747e-14
8.49107e-14
9.71344e-14
1.11037e-13
1.26831e-13
1.44755e-13
1.65076e-13
1.8809e-13
2.14127e-13
2.43554e-13
2.76777e-13
3.14245e-13
3.56456e-13
4.03958e-13
4.57356e-13
5.17314e-13
5.84563e-13
6.59901e-13
7.44204e-13
8.38425e-13
9.43607e-13
1.06088e-12
1.19147e-12
1.33671e-12
1.49803e-12
1.67699e-12
1.87525e-12
2.09459e-12
2.33694e-12
2.60432e-12
2.89892e-12
3.22305e-12
3.57914e-12
3.96978e-12
4.39768e-12
4.86569e-12
5.37677e-12
5.93402e-12
6.54066e-12
7.19999e-12
7.91542e-12
8.69045e-12
9.52863e-12
1.04336e-11
1.14088e-11
1.24581e-11
1.3585e-11
1.4793e-11
1.60857e-11
1.74662e-11
1.8938e-11
2.05039e-11
2.21667e-11
2.3929e-11
2.5793e-11
2.77604e-11
2.98329e-11
3.20113e-11
3.42964e-11
3.6688e-11
3.91857e-11
4.17885e-11
4.44946e-11
4.73016e-11
5.02066e-11
5.32058e-11
5.62949e-11
5.94687e-11
6.27215e-11
6.60468e-11
6.94374e-11
7.28854e-11
7.63824e-11
7.99192e-11
8.34864e-11
8.70737e-11
9.06705e-11
9.42658e-11
9.78483e-11
1.01406e-10
1.04928e-10
1.08402e-10
1.11816e-10
1.15157e-10
1.18415e-10
1.21578e-10
1.24634e-10
1.27572e-10
1.30382e-10
1.33054e-10
1.35578e-10
1.37945e-10
1.40147e-10
1.42175e-10
1.44024e-10
1.45687e-10
1.47158e-10
1.48433e-10
1.49507e-10
1.50378e-10
1.51043e-10
1.51501e-10
1.51751e-10
1.51791e-10
1.51624e-10
1.5125e-10
1.50671e-10
1.4989e-10
1.48909e-10
1.47732e-10
1.46363e-10
1.44807e-10
1.43068e-10
1.41152e-10
1.39066e-10
1.36815e-10
1.34405e-10
1.31844e-10
1.29139e-10
1.26297e-10
1.23326e-10
1.20235e-10
1.17031e-10
1.13724e-10
1.10323e-10
1.06836e-10
1.03274e-10
9.96449e-11
9.59604e-11
9.22302e-11
8.84648e-11
8.4675e-11
8.08715e-11
7.70654e-11
7.32679e-11
6.949e-11
6.5743e-11
6.20379e-11
5.83858e-11
5.47974e-11
5.12833e-11
4.78535e-11
4.45178e-11
4.12853e-11
3.81646e-11
3.51636e-11
3.22893e-11
2.95478e-11
2.69446e-11
2.4484e-11
2.21692e-11
2.00027e-11
1.79857e-11
1.61184e-11
1.44001e-11
1.28289e-11
1.14022e-11
1.01165e-11
8.9672e-12
7.94932e-12
7.05704e-12
6.28399e-12
5.62333e-12
5.0678e-12
4.60979e-12
4.24146e-12
3.95477e-12
3.74154e-12
3.59354e-12
3.50252e-12
3.46024e-12
3.45861e-12
3.48964e-12
3.54557e-12
3.6189e-12
3.7025e-12
3.78961e-12
3.87399e-12
3.94996e-12
4.01249e-12
4.05726e-12
4.08073e-12
4.08021e-12
4.05384e-12
4.00065e-12
3.92054e-12
3.81421e-12
3.68316e-12
3.52953e-12
3.35607e-12
3.16597e-12
2.96276e-12
2.75015e-12
2.53189e-12
2.31167e-12
2.093e-12
1.87905e-12
1.67266e-12
1.4762e-12
1.29161e-12
1.1203e-12
9.63234e-13
8.20923e-13
6.93461e-13
5.80592e-13
4.81756e-13
3.96161e-13
3.22837e-13
2.60703e-13
2.08612e-13
1.65404e-13
1.29942e-13
1.01142e-13
7.79967e-14
5.95892e-14
4.51012e-14
3.38161e-14
2.51164e-14
1.84788e-14
1.34667e-14
9.7207e-15
6.94981e-15
4.9212e-15
3.45125e-15
2.39704e-15
1.64874e-15
1.12304e-15
7.57531e-16
5.06025e-16
3.34777e-16
2.19432e-16
1.42637e-16
9.21958e-17
5.96776e-17
3.93825e-17
2.76012e-17
2.21052e-17
1.75154e-14
1.7682e-14
1.8273e-14
1.92949e-14
2.07633e-14
2.27028e-14
2.51471e-14
2.81395e-14
3.17335e-14
3.59935e-14
4.09956e-14
4.68288e-14
5.35963e-14
6.14166e-14
7.04257e-14
8.07785e-14
9.26508e-14
1.06242e-13
1.21778e-13
1.39512e-13
1.5973e-13
1.82753e-13
2.08941e-13
2.38698e-13
2.72473e-13
3.1077e-13
3.54148e-13
4.03229e-13
4.58706e-13
5.21345e-13
5.91996e-13
6.71595e-13
7.61177e-13
8.61883e-13
9.74965e-13
1.1018e-12
1.24389e-12
1.40288e-12
1.58057e-12
1.77891e-12
2.00004e-12
2.24625e-12
2.52003e-12
2.82409e-12
3.16131e-12
3.53481e-12
3.94792e-12
4.40421e-12
4.90748e-12
5.46177e-12
6.07135e-12
6.74074e-12
7.47471e-12
8.27824e-12
9.15655e-12
1.01151e-11
1.11595e-11
1.22956e-11
1.35293e-11
1.48669e-11
1.63145e-11
1.78786e-11
1.95653e-11
2.13811e-11
2.33324e-11
2.54252e-11
2.76656e-11
3.00594e-11
3.26121e-11
3.5329e-11
3.82146e-11
4.12733e-11
4.45086e-11
4.79235e-11
5.15204e-11
5.53005e-11
5.92644e-11
6.34118e-11
6.7741e-11
7.22497e-11
7.69341e-11
8.17892e-11
8.6809e-11
9.19861e-11
9.73118e-11
1.02776e-10
1.08368e-10
1.14074e-10
1.19882e-10
1.25775e-10
1.31739e-10
1.37756e-10
1.43808e-10
1.49875e-10
1.55939e-10
1.61978e-10
1.67973e-10
1.73901e-10
1.79742e-10
1.85474e-10
1.91075e-10
1.96525e-10
2.01802e-10
2.06887e-10
2.11759e-10
2.16401e-10
2.20794e-10
2.24921e-10
2.28768e-10
2.3232e-10
2.35564e-10
2.38488e-10
2.41082e-10
2.43339e-10
2.4525e-10
2.46811e-10
2.48017e-10
2.48866e-10
2.49357e-10
2.49491e-10
2.49269e-10
2.48694e-10
2.47772e-10
2.46507e-10
2.44906e-10
2.42977e-10
2.40728e-10
2.3817e-10
2.35312e-10
2.32166e-10
2.28742e-10
2.25054e-10
2.21114e-10
2.16934e-10
2.12529e-10
2.07912e-10
2.03097e-10
1.98098e-10
1.92931e-10
1.87609e-10
1.82147e-10
1.7656e-10
1.70865e-10
1.65074e-10
1.59205e-10
1.53272e-10
1.4729e-10
1.41276e-10
1.35245e-10
1.29212e-10
1.23193e-10
1.17204e-10
1.11259e-10
1.05375e-10
9.95661e-11
9.38471e-11
8.82327e-11
8.27369e-11
7.73734e-11
7.2155e-11
6.70939e-11
6.22017e-11
5.74889e-11
5.29651e-11
4.86387e-11
4.45171e-11
4.06064e-11
3.69113e-11
3.34353e-11
3.01804e-11
2.71475e-11
2.43358e-11
2.17433e-11
1.93668e-11
1.72016e-11
1.52423e-11
1.34819e-11
1.19129e-11
1.05267e-11
9.31408e-12
8.26515e-12
7.36955e-12
6.61654e-12
5.99507e-12
5.49391e-12
5.10172e-12
4.80714e-12
4.59884e-12
4.46562e-12
4.39642e-12
4.38043e-12
4.40714e-12
4.4664e-12
4.54848e-12
4.64417e-12
4.74485e-12
4.84258e-12
4.93018e-12
5.00134e-12
5.05066e-12
5.07378e-12
5.06736e-12
5.02917e-12
4.95806e-12
4.85396e-12
4.71782e-12
4.55152e-12
4.3578e-12
4.14008e-12
3.90233e-12
3.64891e-12
3.38442e-12
3.11347e-12
2.84059e-12
2.57005e-12
2.30575e-12
2.05112e-12
1.80905e-12
1.58184e-12
1.37121e-12
1.17828e-12
1.00363e-12
8.47334e-13
7.09044e-13
5.8804e-13
4.83322e-13
3.93679e-13
3.17764e-13
2.54159e-13
2.01431e-13
1.58179e-13
1.23072e-13
9.48721e-14
7.24552e-14
5.48198e-14
4.10889e-14
3.05083e-14
2.24388e-14
1.63476e-14
1.17969e-14
8.43185e-15
5.96907e-15
4.18507e-15
2.90601e-15
1.99837e-15
1.36089e-15
9.1778e-16
6.12948e-16
4.05439e-16
2.657e-16
1.72683e-16
1.11598e-16
7.22243e-17
4.76546e-17
3.33935e-17
2.67413e-17
3.24665e-14
3.27765e-14
3.38744e-14
3.57721e-14
3.84989e-14
4.21004e-14
4.66397e-14
5.21975e-14
5.88734e-14
6.67873e-14
7.60812e-14
8.69211e-14
9.94991e-14
1.14037e-13
1.30787e-13
1.50039e-13
1.72121e-13
1.97405e-13
2.26311e-13
2.59313e-13
2.96946e-13
3.39808e-13
3.88571e-13
4.43988e-13
5.069e-13
5.78245e-13
6.59069e-13
7.50534e-13
8.53931e-13
9.70693e-13
1.1024e-12
1.25081e-12
1.41785e-12
1.60564e-12
1.81653e-12
2.05307e-12
2.31807e-12
2.61461e-12
2.94601e-12
3.31592e-12
3.7283e-12
4.18743e-12
4.69792e-12
5.26479e-12
5.89339e-12
6.58949e-12
7.35925e-12
8.20926e-12
9.14652e-12
1.01785e-11
1.13129e-11
1.25582e-11
1.3923e-11
1.54165e-11
1.70481e-11
1.88276e-11
2.07654e-11
2.28718e-11
2.51577e-11
2.76339e-11
3.03115e-11
3.32018e-11
3.63158e-11
3.96646e-11
4.3259e-11
4.71095e-11
5.12264e-11
5.56191e-11
6.02967e-11
6.52673e-11
7.05381e-11
7.61153e-11
8.20038e-11
8.82071e-11
9.47274e-11
1.01565e-10
1.08719e-10
1.16185e-10
1.23959e-10
1.32034e-10
1.40399e-10
1.49042e-10
1.57951e-10
1.67108e-10
1.76494e-10
1.86088e-10
1.95866e-10
2.05804e-10
2.15873e-10
2.26043e-10
2.36282e-10
2.46557e-10
2.56834e-10
2.67076e-10
2.77245e-10
2.87305e-10
2.97216e-10
3.0694e-10
3.16438e-10
3.25673e-10
3.34607e-10
3.43203e-10
3.51426e-10
3.59243e-10
3.66621e-10
3.73531e-10
3.79944e-10
3.85837e-10
3.91185e-10
3.9597e-10
4.00173e-10
4.03782e-10
4.06783e-10
4.0917e-10
4.10937e-10
4.12082e-10
4.12604e-10
4.12507e-10
4.11798e-10
4.10483e-10
4.08574e-10
4.06084e-10
4.03028e-10
3.99422e-10
3.95285e-10
3.90637e-10
3.85499e-10
3.79894e-10
3.73844e-10
3.67374e-10
3.60509e-10
3.53274e-10
3.45695e-10
3.37796e-10
3.29606e-10
3.21148e-10
3.1245e-10
3.03538e-10
2.94436e-10
2.85171e-10
2.75767e-10
2.66249e-10
2.56643e-10
2.46973e-10
2.37261e-10
2.27533e-10
2.17811e-10
2.08119e-10
1.98478e-10
1.88911e-10
1.7944e-10
1.70086e-10
1.60869e-10
1.51809e-10
1.42927e-10
1.34241e-10
1.25769e-10
1.17529e-10
1.09535e-10
1.01804e-10
9.43492e-11
8.71834e-11
8.03179e-11
7.37622e-11
6.75246e-11
6.16116e-11
5.60277e-11
5.07761e-11
4.58579e-11
4.12723e-11
3.70169e-11
3.30875e-11
2.94781e-11
2.61812e-11
2.31878e-11
2.04875e-11
1.80686e-11
1.59184e-11
1.40231e-11
1.23686e-11
1.09395e-11
9.72062e-12
8.69601e-12
7.84974e-12
7.16578e-12
6.62815e-12
6.22103e-12
5.92882e-12
5.73622e-12
5.62831e-12
5.59062e-12
5.6092e-12
5.67065e-12
5.76228e-12
5.87211e-12
5.98902e-12
6.10284e-12
6.20442e-12
6.28575e-12
6.34005e-12
6.36183e-12
6.34696e-12
6.29269e-12
6.19767e-12
6.06186e-12
5.88653e-12
5.67411e-12
5.42805e-12
5.15266e-12
4.85294e-12
4.53433e-12
4.20254e-12
3.86332e-12
3.52227e-12
3.18466e-12
2.85529e-12
2.53836e-12
2.23741e-12
1.95524e-12
1.69391e-12
1.45476e-12
1.23845e-12
1.04504e-12
8.74043e-13
7.24527e-13
5.95221e-13
4.84602e-13
3.90981e-13
3.12587e-13
2.47636e-13
1.94386e-13
1.51185e-13
1.16501e-13
8.89418e-14
6.72707e-14
5.04048e-14
3.74135e-14
2.75092e-14
2.00359e-14
1.44544e-14
1.03286e-14
7.30998e-15
5.12398e-15
3.55715e-15
2.44559e-15
1.66511e-15
1.12271e-15
7.49673e-16
4.95787e-16
3.24853e-16
2.11092e-16
1.36398e-16
8.8261e-17
5.82268e-17
4.07959e-17
3.26658e-17
5.94422e-14
6.00126e-14
6.20276e-14
6.55096e-14
7.05124e-14
7.71204e-14
8.54494e-14
9.56483e-14
1.079e-13
1.22427e-13
1.39489e-13
1.59393e-13
1.82493e-13
2.09196e-13
2.3997e-13
2.75348e-13
3.15934e-13
3.62415e-13
4.15566e-13
4.76263e-13
5.45489e-13
6.24351e-13
7.14089e-13
8.16094e-13
9.31916e-13
1.06329e-12
1.21214e-12
1.38063e-12
1.57112e-12
1.78627e-12
2.02901e-12
2.30255e-12
2.61048e-12
2.9567e-12
3.34554e-12
3.78172e-12
4.27042e-12
4.81728e-12
5.42848e-12
6.11072e-12
6.87126e-12
7.71799e-12
8.65942e-12
9.70471e-12
1.08637e-11
1.2147e-11
1.35659e-11
1.51324e-11
1.68592e-11
1.87601e-11
2.08491e-11
2.31415e-11
2.5653e-11
2.84e-11
3.13996e-11
3.46697e-11
3.82285e-11
4.20947e-11
4.62874e-11
5.08261e-11
5.57301e-11
6.10191e-11
6.67124e-11
7.2829e-11
7.93874e-11
8.64053e-11
9.38997e-11
1.01886e-10
1.10379e-10
1.19391e-10
1.28932e-10
1.39012e-10
1.49635e-10
1.60806e-10
1.72525e-10
1.84789e-10
1.97592e-10
2.10923e-10
2.24769e-10
2.39113e-10
2.53931e-10
2.69199e-10
2.84885e-10
3.00955e-10
3.17371e-10
3.34088e-10
3.5106e-10
3.68235e-10
3.8556e-10
4.02977e-10
4.20424e-10
4.37837e-10
4.55153e-10
4.72303e-10
4.89219e-10
5.05831e-10
5.22072e-10
5.37871e-10
5.53161e-10
5.67876e-10
5.81952e-10
5.95327e-10
6.07944e-10
6.19747e-10
6.30686e-10
6.40715e-10
6.49792e-10
6.57882e-10
6.64953e-10
6.70981e-10
6.75945e-10
6.79831e-10
6.8263e-10
6.84341e-10
6.84964e-10
6.84509e-10
6.82987e-10
6.80417e-10
6.76821e-10
6.72224e-10
6.66657e-10
6.60154e-10
6.52752e-10
6.44489e-10
6.35408e-10
6.25551e-10
6.14965e-10
6.03696e-10
5.91791e-10
5.79298e-10
5.66265e-10
5.52741e-10
5.38772e-10
5.24408e-10
5.09695e-10
4.94678e-10
4.79403e-10
4.63915e-10
4.48257e-10
4.3247e-10
4.16595e-10
4.00672e-10
3.84739e-10
3.68833e-10
3.52991e-10
3.37247e-10
3.21634e-10
3.06185e-10
2.9093e-10
2.759e-10
2.61124e-10
2.46629e-10
2.32442e-10
2.18587e-10
2.05088e-10
1.91968e-10
1.79248e-10
1.66946e-10
1.55082e-10
1.4367e-10
1.32725e-10
1.22259e-10
1.12283e-10
1.02803e-10
9.38267e-11
8.53566e-11
7.7394e-11
6.99376e-11
6.29838e-11
5.65265e-11
5.05575e-11
4.50663e-11
4.00404e-11
3.54652e-11
3.13245e-11
2.76005e-11
2.42739e-11
2.13244e-11
1.87307e-11
1.64707e-11
1.45217e-11
1.28611e-11
1.14656e-11
1.03125e-11
9.37879e-12
8.64216e-12
8.08055e-12
7.67247e-12
7.39704e-12
7.23407e-12
7.16414e-12
7.16865e-12
7.22992e-12
7.33126e-12
7.45706e-12
7.59291e-12
7.72569e-12
7.84366e-12
7.93664e-12
7.99601e-12
8.01486e-12
7.98803e-12
7.91212e-12
7.78548e-12
7.60818e-12
7.38186e-12
7.10966e-12
6.79596e-12
6.44624e-12
6.06677e-12
5.66439e-12
5.24625e-12
4.81951e-12
4.39116e-12
3.96773e-12
3.55516e-12
3.15866e-12
2.78254e-12
2.43024e-12
2.10427e-12
1.80622e-12
1.53687e-12
1.29621e-12
1.08359e-12
8.97807e-13
7.37243e-13
5.99968e-13
4.83855e-13
3.86682e-13
3.06215e-13
2.40278e-13
1.8681e-13
1.43902e-13
1.09824e-13
8.30379e-14
6.21994e-14
4.61543e-14
3.39264e-14
2.47029e-14
1.78167e-14
1.27279e-14
9.00589e-15
6.31128e-15
4.38042e-15
3.01097e-15
2.04964e-15
1.38173e-15
9.22458e-16
6.09951e-16
3.99591e-16
2.59616e-16
1.67727e-16
1.08517e-16
7.15795e-17
5.01444e-17
4.01475e-17
1.07497e-13
1.08534e-13
1.12188e-13
1.18501e-13
1.2757e-13
1.39549e-13
1.54649e-13
1.7314e-13
1.95358e-13
2.21704e-13
2.52655e-13
2.88767e-13
3.30686e-13
3.79155e-13
4.35024e-13
4.99266e-13
5.72982e-13
6.57426e-13
7.5401e-13
8.6433e-13
9.90183e-13
1.13359e-12
1.29681e-12
1.48238e-12
1.69314e-12
1.93225e-12
2.20324e-12
2.51002e-12
2.85695e-12
3.24886e-12
3.6911e-12
4.18956e-12
4.75075e-12
5.38184e-12
6.09071e-12
6.88597e-12
7.77709e-12
8.77437e-12
9.88905e-12
1.11333e-11
1.25205e-11
1.40649e-11
1.5782e-11
1.76885e-11
1.98023e-11
2.21426e-11
2.47298e-11
2.75858e-11
3.07337e-11
3.4198e-11
3.80044e-11
4.21801e-11
4.67535e-11
5.1754e-11
5.72123e-11
6.316e-11
6.96297e-11
7.66545e-11
8.42682e-11
9.25047e-11
1.01398e-10
1.10982e-10
1.21291e-10
1.32356e-10
1.44209e-10
1.5688e-10
1.70396e-10
1.84783e-10
2.00062e-10
2.16253e-10
2.33372e-10
2.51428e-10
2.70427e-10
2.90371e-10
3.11255e-10
3.33066e-10
3.55788e-10
3.79396e-10
4.03857e-10
4.29133e-10
4.55177e-10
4.81934e-10
5.09342e-10
5.3733e-10
5.65821e-10
5.94731e-10
6.23967e-10
6.53432e-10
6.8302e-10
7.12624e-10
7.42128e-10
7.71416e-10
8.00366e-10
8.28855e-10
8.56762e-10
8.83961e-10
9.10331e-10
9.35751e-10
9.60105e-10
9.8328e-10
1.00517e-09
1.02567e-09
1.04469e-09
1.06214e-09
1.07795e-09
1.09205e-09
1.10437e-09
1.11487e-09
1.12352e-09
1.13028e-09
1.13514e-09
1.13809e-09
1.13914e-09
1.13829e-09
1.13559e-09
1.13105e-09
1.12472e-09
1.11665e-09
1.10689e-09
1.09552e-09
1.0826e-09
1.0682e-09
1.0524e-09
1.03529e-09
1.01695e-09
9.97476e-10
9.76947e-10
9.55455e-10
9.33092e-10
9.09946e-10
8.86105e-10
8.61658e-10
8.36688e-10
8.1128e-10
7.85513e-10
7.59466e-10
7.33215e-10
7.06832e-10
6.80385e-10
6.53943e-10
6.27566e-10
6.01317e-10
5.75252e-10
5.49425e-10
5.23888e-10