/*--------------------------------*- C++ -*----------------------------------*\
| =========                 |                                                 |
| \\      /  F ield         | OpenFOAM: The Open Source CFD Toolbox           |
|  \\    /   O peration     | Version:  v2012                                 |
|   \\  /    A nd           | Website:  www.openfoam.com                      |
|    \\/     M anipulation  |                                                 |
\*---------------------------------------------------------------------------*/
FoamFile
{
    version     2.0;
    format      ascii;
    class       volVectorField;
    location    "2";
    object      U;
}
// * * * * * * * * * * * * * * * * * * * * * * * * * * * * * * * * * * * * * //

dimensions      [0 1 -1 0 0 0 0];


internalField   nonuniform List<vector> 
65536
(
(0.000704478 -0.000704486 0)
(0.00211341 -0.000704452 0)
(0.00352227 -0.000704358 0)
(0.0049309 -0.000704225 0)
(0.0063392 -0.000704046 0)
(0.00774709 -0.000703818 0)
(0.00915449 -0.000703543 0)
(0.0105613 -0.00070322 0)
(0.0119674 -0.000702849 0)
(0.0133727 -0.000702429 0)
(0.0147771 -0.00070196 0)
(0.0161806 -0.000701441 0)
(0.0175829 -0.00070087 0)
(0.0189841 -0.000700247 0)
(0.0203839 -0.000699569 0)
(0.0217824 -0.000698835 0)
(0.0231793 -0.000698044 0)
(0.0245746 -0.000697195 0)
(0.0259681 -0.000696285 0)
(0.0273598 -0.000695314 0)
(0.0287494 -0.000694278 0)
(0.0301369 -0.000693177 0)
(0.0315222 -0.000692008 0)
(0.032905 -0.000690769 0)
(0.0342853 -0.000689459 0)
(0.0356629 -0.000688076 0)
(0.0370377 -0.000686616 0)
(0.0384094 -0.000685079 0)
(0.039778 -0.000683461 0)
(0.0411433 -0.00068176 0)
(0.0425051 -0.000679974 0)
(0.0438633 -0.0006781 0)
(0.0452176 -0.000676137 0)
(0.0465679 -0.00067408 0)
(0.047914 -0.000671929 0)
(0.0492557 -0.00066968 0)
(0.0505928 -0.00066733 0)
(0.0519251 -0.000664878 0)
(0.0532524 -0.000662321 0)
(0.0545744 -0.000659656 0)
(0.0558911 -0.00065688 0)
(0.057202 -0.000653993 0)
(0.0585071 -0.00065099 0)
(0.0598061 -0.00064787 0)
(0.0610987 -0.00064463 0)
(0.0623847 -0.000641268 0)
(0.0636639 -0.000637781 0)
(0.0649359 -0.000634166 0)
(0.0662006 -0.000630422 0)
(0.0674577 -0.000626546 0)
(0.0687069 -0.000622537 0)
(0.069948 -0.000618392 0)
(0.0711806 -0.000614109 0)
(0.0724045 -0.000609687 0)
(0.0736194 -0.000605125 0)
(0.0748251 -0.00060042 0)
(0.0760212 -0.000595572 0)
(0.0772075 -0.000590578 0)
(0.0783837 -0.000585437 0)
(0.0795494 -0.000580147 0)
(0.0807044 -0.000574709 0)
(0.0818483 -0.000569121 0)
(0.082981 -0.000563382 0)
(0.084102 -0.000557493 0)
(0.0852111 -0.000551453 0)
(0.0863079 -0.000545262 0)
(0.0873922 -0.00053892 0)
(0.0884637 -0.000532425 0)
(0.089522 -0.00052578 0)
(0.0905669 -0.000518982 0)
(0.0915981 -0.000512034 0)
(0.0926152 -0.000504936 0)
(0.0936179 -0.000497689 0)
(0.094606 -0.000490294 0)
(0.0955792 -0.000482754 0)
(0.0965372 -0.000475069 0)
(0.0974796 -0.000467241 0)
(0.0984062 -0.000459273 0)
(0.0993168 -0.000451166 0)
(0.100211 -0.000442922 0)
(0.101089 -0.000434543 0)
(0.101949 -0.000426032 0)
(0.102793 -0.00041739 0)
(0.103619 -0.00040862 0)
(0.104427 -0.000399727 0)
(0.105218 -0.000390712 0)
(0.10599 -0.00038158 0)
(0.106744 -0.000372335 0)
(0.10748 -0.000362981 0)
(0.108196 -0.000353521 0)
(0.108894 -0.000343957 0)
(0.109572 -0.000334294 0)
(0.110231 -0.000324535 0)
(0.11087 -0.000314685 0)
(0.11149 -0.000304747 0)
(0.112089 -0.000294727 0)
(0.112669 -0.000284629 0)
(0.113228 -0.000274457 0)
(0.113767 -0.000264214 0)
(0.114285 -0.000253906 0)
(0.114782 -0.000243536 0)
(0.115259 -0.00023311 0)
(0.115715 -0.000222633 0)
(0.116149 -0.00021211 0)
(0.116563 -0.000201545 0)
(0.116956 -0.000190943 0)
(0.117327 -0.000180308 0)
(0.117677 -0.000169644 0)
(0.118005 -0.000158956 0)
(0.118313 -0.000148247 0)
(0.118598 -0.000137522 0)
(0.118863 -0.000126786 0)
(0.119105 -0.000116042 0)
(0.119327 -0.000105296 0)
(0.119527 -9.4552e-05 0)
(0.119705 -8.38131e-05 0)
(0.119862 -7.30838e-05 0)
(0.119997 -6.2368e-05 0)
(0.120111 -5.16694e-05 0)
(0.120204 -4.09914e-05 0)
(0.120275 -3.03372e-05 0)
(0.120325 -1.97104e-05 0)
(0.120354 -9.11486e-06 0)
(0.120361 1.4455e-06 0)
(0.120348 1.19652e-05 0)
(0.120314 2.24418e-05 0)
(0.120258 3.28725e-05 0)
(0.120182 4.32552e-05 0)
(0.120085 5.35882e-05 0)
(0.119967 6.38696e-05 0)
(0.119829 7.40967e-05 0)
(0.119671 8.42666e-05 0)
(0.119492 9.43764e-05 0)
(0.119293 0.000104423 0)
(0.119074 0.000114404 0)
(0.118836 0.000124317 0)
(0.118577 0.000134159 0)
(0.118299 0.000143929 0)
(0.118001 0.000153624 0)
(0.117684 0.000163244 0)
(0.117348 0.000172788 0)
(0.116993 0.000182253 0)
(0.116619 0.000191638 0)
(0.116226 0.000200942 0)
(0.115815 0.000210163 0)
(0.115385 0.000219298 0)
(0.114938 0.000228346 0)
(0.114472 0.000237305 0)
(0.113988 0.000246175 0)
(0.113487 0.000254955 0)
(0.112968 0.000263647 0)
(0.112432 0.000272248 0)
(0.111879 0.000280757 0)
(0.111309 0.000289171 0)
(0.110722 0.000297488 0)
(0.110119 0.000305707 0)
(0.109499 0.000313827 0)
(0.108864 0.000321849 0)
(0.108212 0.000329772 0)
(0.107544 0.000337596 0)
(0.106861 0.00034532 0)
(0.106163 0.000352943 0)
(0.105449 0.000360465 0)
(0.104721 0.000367884 0)
(0.103978 0.0003752 0)
(0.10322 0.000382412 0)
(0.102448 0.00038952 0)
(0.101662 0.000396522 0)
(0.100862 0.000403418 0)
(0.100048 0.000410208 0)
(0.0992206 0.000416892 0)
(0.0983801 0.000423469 0)
(0.0975266 0.00042994 0)
(0.0966602 0.000436304 0)
(0.0957812 0.000442561 0)
(0.0948898 0.00044871 0)
(0.0939862 0.000454751 0)
(0.0930707 0.000460684 0)
(0.0921433 0.000466508 0)
(0.0912045 0.000472224 0)
(0.0902543 0.000477832 0)
(0.089293 0.000483331 0)
(0.0883208 0.000488722 0)
(0.087338 0.000494005 0)
(0.0863446 0.000499181 0)
(0.0853411 0.000504248 0)
(0.0843275 0.000509208 0)
(0.0833041 0.000514061 0)
(0.0822711 0.000518809 0)
(0.0812287 0.00052345 0)
(0.0801772 0.000527987 0)
(0.0791166 0.000532418 0)
(0.0780473 0.000536744 0)
(0.0769695 0.000540967 0)
(0.0758833 0.000545085 0)
(0.074789 0.000549102 0)
(0.0736868 0.000553017 0)
(0.0725768 0.000556831 0)
(0.0714593 0.000560547 0)
(0.0703345 0.000564163 0)
(0.0692025 0.000567682 0)
(0.0680636 0.000571104 0)
(0.066918 0.00057443 0)
(0.0657658 0.00057766 0)
(0.0646072 0.000580798 0)
(0.0634425 0.000583842 0)
(0.0622717 0.000586796 0)
(0.0610952 0.000589661 0)
(0.059913 0.000592437 0)
(0.0587253 0.000595126 0)
(0.0575323 0.000597729 0)
(0.0563343 0.000600248 0)
(0.0551312 0.000602683 0)
(0.0539234 0.000605037 0)
(0.052711 0.000607309 0)
(0.0514941 0.000609503 0)
(0.0502729 0.00061162 0)
(0.0490475 0.00061366 0)
(0.0478181 0.000615625 0)
(0.0465849 0.000617518 0)
(0.0453479 0.000619339 0)
(0.0441074 0.000621089 0)
(0.0428635 0.000622771 0)
(0.0416162 0.000624386 0)
(0.0403658 0.000625935 0)
(0.0391124 0.000627418 0)
(0.0378561 0.000628839 0)
(0.036597 0.000630197 0)
(0.0353352 0.000631494 0)
(0.0340709 0.000632733 0)
(0.0328042 0.000633913 0)
(0.0315352 0.000635037 0)
(0.030264 0.000636106 0)
(0.0289907 0.00063712 0)
(0.0277154 0.000638081 0)
(0.0264383 0.00063899 0)
(0.0251594 0.000639849 0)
(0.0238788 0.000640657 0)
(0.0225967 0.000641417 0)
(0.0213131 0.00064213 0)
(0.0200281 0.000642795 0)
(0.0187418 0.000643415 0)
(0.0174543 0.000643989 0)
(0.0161658 0.000644519 0)
(0.0148762 0.000645006 0)
(0.0135857 0.000645449 0)
(0.0122943 0.000645851 0)
(0.0110022 0.000646211 0)
(0.00970943 0.000646529 0)
(0.00841604 0.000646807 0)
(0.00712214 0.000647045 0)
(0.0058278 0.000647243 0)
(0.0045331 0.000647402 0)
(0.00323813 0.000647521 0)
(0.00194297 0.0006476 0)
(0.000647678 0.00064764 0)
(0.000704516 -0.0021135 0)
(0.00211355 -0.00211337 0)
(0.0035225 -0.0021131 0)
(0.00493121 -0.00211271 0)
(0.0063396 -0.00211217 0)
(0.00774759 -0.00211149 0)
(0.00915508 -0.00211067 0)
(0.010562 -0.0021097 0)
(0.0119682 -0.00210859 0)
(0.0133736 -0.00210733 0)
(0.0147781 -0.00210592 0)
(0.0161817 -0.00210436 0)
(0.0175841 -0.00210265 0)
(0.0189854 -0.00210078 0)
(0.0203854 -0.00209875 0)
(0.0217839 -0.00209655 0)
(0.023181 -0.00209418 0)
(0.0245764 -0.00209163 0)
(0.0259701 -0.00208891 0)
(0.0273618 -0.00208599 0)
(0.0287516 -0.00208289 0)
(0.0301393 -0.00207959 0)
(0.0315246 -0.00207608 0)
(0.0329076 -0.00207237 0)
(0.034288 -0.00206844 0)
(0.0356658 -0.00206429 0)
(0.0370407 -0.00205992 0)
(0.0384126 -0.00205531 0)
(0.0397814 -0.00205045 0)
(0.0411469 -0.00204535 0)
(0.0425089 -0.00204 0)
(0.0438672 -0.00203438 0)
(0.0452217 -0.00202849 0)
(0.0465722 -0.00202232 0)
(0.0479185 -0.00201587 0)
(0.0492604 -0.00200913 0)
(0.0505977 -0.00200208 0)
(0.0519302 -0.00199473 0)
(0.0532577 -0.00198706 0)
(0.05458 -0.00197907 0)
(0.0558968 -0.00197074 0)
(0.057208 -0.00196208 0)
(0.0585133 -0.00195308 0)
(0.0598125 -0.00194372 0)
(0.0611054 -0.001934 0)
(0.0623917 -0.00192392 0)
(0.0636711 -0.00191346 0)
(0.0649434 -0.00190261 0)
(0.0662084 -0.00189138 0)
(0.0674657 -0.00187976 0)
(0.0687152 -0.00186773 0)
(0.0699565 -0.0018553 0)
(0.0711894 -0.00184245 0)
(0.0724136 -0.00182919 0)
(0.0736288 -0.0018155 0)
(0.0748348 -0.00180139 0)
(0.0760312 -0.00178685 0)
(0.0772178 -0.00177186 0)
(0.0783942 -0.00175644 0)
(0.0795602 -0.00174058 0)
(0.0807155 -0.00172426 0)
(0.0818598 -0.0017075 0)
(0.0829927 -0.00169028 0)
(0.084114 -0.00167262 0)
(0.0852234 -0.0016545 0)
(0.0863206 -0.00163592 0)
(0.0874052 -0.00161689 0)
(0.088477 -0.00159741 0)
(0.0895356 -0.00157747 0)
(0.0905808 -0.00155708 0)
(0.0916123 -0.00153623 0)
(0.0926297 -0.00151494 0)
(0.0936327 -0.00149319 0)
(0.0946211 -0.00147101 0)
(0.0955946 -0.00144839 0)
(0.0965528 -0.00142533 0)
(0.0974955 -0.00140184 0)
(0.0984225 -0.00137794 0)
(0.0993333 -0.00135361 0)
(0.100228 -0.00132888 0)
(0.101106 -0.00130374 0)
(0.101967 -0.0012782 0)
(0.10281 -0.00125227 0)
(0.103637 -0.00122596 0)
(0.104445 -0.00119928 0)
(0.105236 -0.00117223 0)
(0.106009 -0.00114483 0)
(0.106763 -0.00111709 0)
(0.107499 -0.00108903 0)
(0.108215 -0.00106064 0)
(0.108913 -0.00103195 0)
(0.109592 -0.00100295 0)
(0.110251 -0.00097367 0)
(0.11089 -0.000944114 0)
(0.11151 -0.000914296 0)
(0.11211 -0.000884232 0)
(0.112689 -0.000853932 0)
(0.113249 -0.000823411 0)
(0.113787 -0.000792679 0)
(0.114306 -0.000761749 0)
(0.114803 -0.000730635 0)
(0.11528 -0.000699353 0)
(0.115736 -0.000667916 0)
(0.116171 -0.000636341 0)
(0.116584 -0.000604641 0)
(0.116977 -0.00057283 0)
(0.117348 -0.00054092 0)
(0.117698 -0.000508924 0)
(0.118027 -0.000476855 0)
(0.118334 -0.000444724 0)
(0.11862 -0.000412545 0)
(0.118884 -0.000380331 0)
(0.119127 -0.000348096 0)
(0.119348 -0.000315854 0)
(0.119548 -0.000283616 0)
(0.119727 -0.000251395 0)
(0.119883 -0.000219203 0)
(0.120019 -0.000187051 0)
(0.120133 -0.000154952 0)
(0.120225 -0.000122914 0)
(0.120297 -9.09485e-05 0)
(0.120346 -5.90649e-05 0)
(0.120375 -2.72753e-05 0)
(0.120383 4.40792e-06 0)
(0.120369 3.5971e-05 0)
(0.120335 6.74044e-05 0)
(0.120279 9.86999e-05 0)
(0.120203 0.000129851 0)
(0.120106 0.000160854 0)
(0.119988 0.000191701 0)
(0.11985 0.000222385 0)
(0.119691 0.000252897 0)
(0.119513 0.000283229 0)
(0.119314 0.000313371 0)
(0.119094 0.000343315 0)
(0.118856 0.000373055 0)
(0.118597 0.000402584 0)
(0.118318 0.000431895 0)
(0.118021 0.000460983 0)
(0.117704 0.000489846 0)
(0.117367 0.000518478 0)
(0.117012 0.000546875 0)
(0.116638 0.000575032 0)
(0.116245 0.000602945 0)
(0.115834 0.000630608 0)
(0.115404 0.000658015 0)
(0.114956 0.00068516 0)
(0.11449 0.000712038 0)
(0.114006 0.000738649 0)
(0.113505 0.000764991 0)
(0.112986 0.000791066 0)
(0.11245 0.000816869 0)
(0.111896 0.000842397 0)
(0.111326 0.00086764 0)
(0.110739 0.000892593 0)
(0.110136 0.00091725 0)
(0.109516 0.000941611 0)
(0.10888 0.000965676 0)
(0.108228 0.000989445 0)
(0.10756 0.00101292 0)
(0.106877 0.00103609 0)
(0.106178 0.00105896 0)
(0.105464 0.00108153 0)
(0.104736 0.00110379 0)
(0.103992 0.00112573 0)
(0.103234 0.00114737 0)
(0.102462 0.00116869 0)
(0.101676 0.0011897 0)
(0.100875 0.00121039 0)
(0.100062 0.00123076 0)
(0.0992341 0.00125081 0)
(0.0983934 0.00127054 0)
(0.0975396 0.00128995 0)
(0.096673 0.00130905 0)
(0.0957938 0.00132782 0)
(0.0949022 0.00134626 0)
(0.0939984 0.00136439 0)
(0.0930826 0.00138218 0)
(0.092155 0.00139966 0)
(0.0912159 0.0014168 0)
(0.0902655 0.00143363 0)
(0.089304 0.00145012 0)
(0.0883316 0.0014663 0)
(0.0873486 0.00148215 0)
(0.086355 0.00149767 0)
(0.0853513 0.00151287 0)
(0.0843375 0.00152775 0)
(0.0833138 0.00154231 0)
(0.0822806 0.00155655 0)
(0.081238 0.00157048 0)
(0.0801863 0.00158408 0)
(0.0791255 0.00159738 0)
(0.078056 0.00161036 0)
(0.076978 0.00162302 0)
(0.0758916 0.00163538 0)
(0.0747971 0.00164743 0)
(0.0736946 0.00165917 0)
(0.0725845 0.00167061 0)
(0.0714668 0.00168176 0)
(0.0703418 0.00169261 0)
(0.0692096 0.00170316 0)
(0.0680705 0.00171342 0)
(0.0669247 0.0017234 0)
(0.0657723 0.00173309 0)
(0.0646135 0.0017425 0)
(0.0634486 0.00175163 0)
(0.0622777 0.00176049 0)
(0.0611009 0.00176909 0)
(0.0599185 0.00177741 0)
(0.0587307 0.00178548 0)
(0.0575376 0.00179329 0)
(0.0563393 0.00180084 0)
(0.0551361 0.00180815 0)
(0.0539281 0.0018152 0)
(0.0527155 0.00182202 0)
(0.0514985 0.0018286 0)
(0.0502771 0.00183495 0)
(0.0490516 0.00184107 0)
(0.047822 0.00184696 0)
(0.0465887 0.00185264 0)
(0.0453516 0.0018581 0)
(0.0441109 0.00186335 0)
(0.0428668 0.00186839 0)
(0.0416195 0.00187324 0)
(0.0403689 0.00187788 0)
(0.0391154 0.00188233 0)
(0.0378589 0.00188659 0)
(0.0365997 0.00189066 0)
(0.0353378 0.00189455 0)
(0.0340734 0.00189827 0)
(0.0328065 0.00190181 0)
(0.0315374 0.00190518 0)
(0.0302661 0.00190838 0)
(0.0289927 0.00191143 0)
(0.0277173 0.00191431 0)
(0.0264401 0.00191703 0)
(0.0251611 0.00191961 0)
(0.0238804 0.00192203 0)
(0.0225982 0.00192431 0)
(0.0213145 0.00192645 0)
(0.0200294 0.00192844 0)
(0.018743 0.0019303 0)
(0.0174555 0.00193202 0)
(0.0161668 0.00193361 0)
(0.0148772 0.00193507 0)
(0.0135866 0.0019364 0)
(0.0122951 0.00193761 0)
(0.0110029 0.00193868 0)
(0.00971004 0.00193964 0)
(0.00841657 0.00194047 0)
(0.00712258 0.00194119 0)
(0.00582816 0.00194178 0)
(0.00453338 0.00194226 0)
(0.00323833 0.00194261 0)
(0.00194309 0.00194285 0)
(0.000647718 0.00194297 0)
(0.000704618 -0.0035226 0)
(0.00211384 -0.0035224 0)
(0.00352296 -0.00352197 0)
(0.00493185 -0.00352132 0)
(0.00634042 -0.00352042 0)
(0.0077486 -0.00351929 0)
(0.00915628 -0.00351792 0)
(0.0105634 -0.00351632 0)
(0.0119698 -0.00351447 0)
(0.0133754 -0.00351237 0)
(0.0147801 -0.00351003 0)
(0.0161839 -0.00350744 0)
(0.0175866 -0.00350459 0)
(0.0189881 -0.00350148 0)
(0.0203883 -0.0034981 0)
(0.0217871 -0.00349444 0)
(0.0231843 -0.00349049 0)
(0.02458 -0.00348625 0)
(0.0259739 -0.00348171 0)
(0.0273659 -0.00347686 0)
(0.028756 -0.00347169 0)
(0.0301439 -0.0034662 0)
(0.0315295 -0.00346036 0)
(0.0329128 -0.00345418 0)
(0.0342935 -0.00344764 0)
(0.0356716 -0.00344073 0)
(0.0370468 -0.00343345 0)
(0.0384191 -0.00342577 0)
(0.0397882 -0.00341769 0)
(0.041154 -0.0034092 0)
(0.0425163 -0.00340028 0)
(0.043875 -0.00339093 0)
(0.0452299 -0.00338112 0)
(0.0465807 -0.00337085 0)
(0.0479274 -0.0033601 0)
(0.0492697 -0.00334887 0)
(0.0506074 -0.00333714 0)
(0.0519403 -0.00332489 0)
(0.0532683 -0.00331212 0)
(0.054591 -0.0032988 0)
(0.0559083 -0.00328494 0)
(0.05722 -0.00327051 0)
(0.0585258 -0.00325551 0)
(0.0598255 -0.00323992 0)
(0.0611188 -0.00322373 0)
(0.0624056 -0.00320693 0)
(0.0636855 -0.00318951 0)
(0.0649583 -0.00317145 0)
(0.0662238 -0.00315274 0)
(0.0674817 -0.00313337 0)
(0.0687317 -0.00311333 0)
(0.0699736 -0.00309261 0)
(0.071207 -0.00307121 0)
(0.0724318 -0.00304911 0)
(0.0736476 -0.0030263 0)
(0.0748541 -0.00300279 0)
(0.0760511 -0.00297855 0)
(0.0772383 -0.00295359 0)
(0.0784153 -0.00292789 0)
(0.0795819 -0.00290145 0)
(0.0807378 -0.00287426 0)
(0.0818827 -0.00284632 0)
(0.0830163 -0.00281763 0)
(0.0841382 -0.00278818 0)
(0.0852482 -0.00275798 0)
(0.0863459 -0.00272703 0)
(0.0874312 -0.00269531 0)
(0.0885036 -0.00266284 0)
(0.0895628 -0.00262961 0)
(0.0906086 -0.00259562 0)
(0.0916407 -0.00256087 0)
(0.0926587 -0.00252537 0)
(0.0936623 -0.00248913 0)
(0.0946513 -0.00245215 0)
(0.0956254 -0.00241444 0)
(0.0965842 -0.00237601 0)
(0.0975275 -0.00233686 0)
(0.0984549 -0.00229701 0)
(0.0993663 -0.00225646 0)
(0.100261 -0.00221523 0)
(0.10114 -0.00217332 0)
(0.102001 -0.00213075 0)
(0.102846 -0.00208753 0)
(0.103672 -0.00204366 0)
(0.104482 -0.00199918 0)
(0.105273 -0.00195409 0)
(0.106046 -0.00190841 0)
(0.106801 -0.00186217 0)
(0.107537 -0.00181538 0)
(0.108254 -0.00176806 0)
(0.108952 -0.00172022 0)
(0.109631 -0.00167188 0)
(0.11029 -0.00162307 0)
(0.11093 -0.00157379 0)
(0.11155 -0.00152408 0)
(0.11215 -0.00147396 0)
(0.11273 -0.00142344 0)
(0.11329 -0.00137256 0)
(0.113829 -0.00132132 0)
(0.114347 -0.00126976 0)
(0.114845 -0.00121789 0)
(0.115322 -0.00116574 0)
(0.115778 -0.00111333 0)
(0.116213 -0.00106068 0)
(0.116627 -0.00100784 0)
(0.11702 -0.000954801 0)
(0.117391 -0.000901603 0)
(0.117741 -0.000848261 0)
(0.11807 -0.000794797 0)
(0.118378 -0.00074123 0)
(0.118663 -0.000687583 0)
(0.118928 -0.000633879 0)
(0.119171 -0.00058014 0)
(0.119392 -0.000526387 0)
(0.119592 -0.000472643 0)
(0.11977 -0.000418928 0)
(0.119927 -0.000365261 0)
(0.120062 -0.000311663 0)
(0.120176 -0.000258152 0)
(0.120268 -0.000204744 0)
(0.12034 -0.000151457 0)
(0.120389 -9.83068e-05 0)
(0.120418 -4.53143e-05 0)
(0.120425 7.49997e-06 0)
(0.120412 6.01165e-05 0)
(0.120377 0.000112517 0)
(0.120321 0.000164687 0)
(0.120245 0.000216618 0)
(0.120147 0.000268299 0)
(0.12003 0.000319721 0)
(0.119891 0.00037087 0)
(0.119732 0.000421732 0)
(0.119553 0.000472292 0)
(0.119354 0.000522535 0)
(0.119135 0.00057245 0)
(0.118895 0.000622023 0)
(0.118636 0.000671243 0)
(0.118358 0.0007201 0)
(0.11806 0.000768588 0)
(0.117742 0.000816698 0)
(0.117406 0.000864423 0)
(0.11705 0.000911757 0)
(0.116676 0.000958692 0)
(0.116282 0.00100522 0)
(0.115871 0.00105133 0)
(0.115441 0.00109701 0)
(0.114992 0.00114226 0)
(0.114526 0.00118706 0)
(0.114042 0.00123141 0)
(0.11354 0.00127532 0)
(0.113021 0.00131878 0)
(0.112484 0.00136179 0)
(0.11193 0.00140434 0)
(0.11136 0.00144641 0)
(0.110772 0.001488 0)
(0.110169 0.0015291 0)
(0.109548 0.00156971 0)
(0.108912 0.00160982 0)
(0.10826 0.00164944 0)
(0.107591 0.00168856 0)
(0.106908 0.00172718 0)
(0.106209 0.0017653 0)
(0.105495 0.00180291 0)
(0.104766 0.00184001 0)
(0.104022 0.00187659 0)
(0.103263 0.00191266 0)
(0.102491 0.0019482 0)
(0.101704 0.00198321 0)
(0.100903 0.00201769 0)
(0.100089 0.00205164 0)
(0.0992609 0.00208506 0)
(0.0984198 0.00211795 0)
(0.0975656 0.00215031 0)
(0.0966986 0.00218213 0)
(0.0958189 0.00221341 0)
(0.0949268 0.00224416 0)
(0.0940226 0.00227436 0)
(0.0931064 0.00230402 0)
(0.0921784 0.00233314 0)
(0.0912389 0.00236172 0)
(0.090288 0.00238976 0)
(0.0893261 0.00241725 0)
(0.0883533 0.00244421 0)
(0.0873698 0.00247062 0)
(0.0863758 0.0024965 0)
(0.0853716 0.00252183 0)
(0.0843574 0.00254663 0)
(0.0833333 0.00257089 0)
(0.0822997 0.00259463 0)
(0.0812567 0.00261783 0)
(0.0802045 0.00264051 0)
(0.0791433 0.00266266 0)
(0.0780734 0.00268429 0)
(0.0769949 0.0027054 0)
(0.0759081 0.00272599 0)
(0.0748132 0.00274607 0)
(0.0737104 0.00276564 0)
(0.0725998 0.0027847 0)
(0.0714817 0.00280328 0)
(0.0703563 0.00282135 0)
(0.0692237 0.00283894 0)
(0.0680842 0.00285604 0)
(0.066938 0.00287267 0)
(0.0657852 0.00288881 0)
(0.0646261 0.00290449 0)
(0.0634608 0.00291971 0)
(0.0622895 0.00293447 0)
(0.0611124 0.00294879 0)
(0.0599297 0.00296266 0)
(0.0587415 0.0029761 0)
(0.057548 0.00298911 0)
(0.0563494 0.0030017 0)
(0.0551459 0.00301387 0)
(0.0539376 0.00302562 0)
(0.0527246 0.00303698 0)
(0.0515072 0.00304794 0)
(0.0502856 0.00305852 0)
(0.0490597 0.00306871 0)
(0.0478299 0.00307853 0)
(0.0465962 0.00308799 0)
(0.0453589 0.00309708 0)
(0.0441179 0.00310583 0)
(0.0428736 0.00311423 0)
(0.0416259 0.0031223 0)
(0.0403751 0.00313003 0)
(0.0391213 0.00313744 0)
(0.0378646 0.00314454 0)
(0.0366051 0.00315132 0)
(0.035343 0.0031578 0)
(0.0340783 0.00316399 0)
(0.0328113 0.00316988 0)
(0.0315419 0.0031755 0)
(0.0302703 0.00318083 0)
(0.0289967 0.0031859 0)
(0.0277211 0.0031907 0)
(0.0264437 0.00319524 0)
(0.0251645 0.00319952 0)
(0.0238836 0.00320356 0)
(0.0226012 0.00320736 0)
(0.0213173 0.00321092 0)
(0.020032 0.00321424 0)
(0.0187455 0.00321733 0)
(0.0174577 0.0032202 0)
(0.0161689 0.00322285 0)
(0.0148791 0.00322528 0)
(0.0135883 0.00322749 0)
(0.0122967 0.00322949 0)
(0.0110043 0.00323129 0)
(0.00971126 0.00323288 0)
(0.00841762 0.00323427 0)
(0.00712347 0.00323546 0)
(0.00582888 0.00323645 0)
(0.00453394 0.00323724 0)
(0.00323873 0.00323783 0)
(0.00194333 0.00323823 0)
(0.000647797 0.00323843 0)
(0.00070476 -0.00493195 0)
(0.00211426 -0.00493167 0)
(0.00352366 -0.00493108 0)
(0.00493282 -0.00493016 0)
(0.00634168 -0.00492892 0)
(0.00775013 -0.00492734 0)
(0.0091581 -0.00492543 0)
(0.0105655 -0.00492318 0)
(0.0119722 -0.0049206 0)
(0.0133781 -0.00491768 0)
(0.0147831 -0.00491441 0)
(0.0161872 -0.00491079 0)
(0.0175902 -0.00490681 0)
(0.018992 -0.00490246 0)
(0.0203926 -0.00489774 0)
(0.0217917 -0.00489262 0)
(0.0231893 -0.00488711 0)
(0.0245854 -0.00488118 0)
(0.0259796 -0.00487484 0)
(0.0273721 -0.00486806 0)
(0.0287625 -0.00486084 0)
(0.0301508 -0.00485316 0)
(0.0315369 -0.004845 0)
(0.0329206 -0.00483636 0)
(0.0343018 -0.00482722 0)
(0.0356803 -0.00481757 0)
(0.037056 -0.00480738 0)
(0.0384287 -0.00479665 0)
(0.0397983 -0.00478536 0)
(0.0411646 -0.00477349 0)
(0.0425275 -0.00476102 0)
(0.0438867 -0.00474793 0)
(0.0452421 -0.00473422 0)
(0.0465935 -0.00471986 0)
(0.0479408 -0.00470484 0)
(0.0492837 -0.00468913 0)
(0.050622 -0.00467272 0)
(0.0519556 -0.00465559 0)
(0.0532842 -0.00463772 0)
(0.0546076 -0.0046191 0)
(0.0559255 -0.00459971 0)
(0.0572379 -0.00457953 0)
(0.0585444 -0.00455855 0)
(0.0598448 -0.00453674 0)
(0.0611389 -0.00451409 0)
(0.0624264 -0.00449059 0)
(0.0637071 -0.00446621 0)
(0.0649807 -0.00444094 0)
(0.066247 -0.00441476 0)
(0.0675056 -0.00438766 0)
(0.0687565 -0.00435962 0)
(0.0699992 -0.00433063 0)
(0.0712335 -0.00430068 0)
(0.0724591 -0.00426975 0)
(0.0736757 -0.00423783 0)
(0.0748831 -0.00420492 0)
(0.076081 -0.004171 0)
(0.0772691 -0.00413605 0)
(0.078447 -0.00410008 0)
(0.0796145 -0.00406307 0)
(0.0807713 -0.00402502 0)
(0.0819171 -0.00398591 0)
(0.0830515 -0.00394575 0)
(0.0841744 -0.00390453 0)
(0.0852853 -0.00386225 0)
(0.086384 -0.00381891 0)
(0.0874701 -0.00377451 0)
(0.0885434 -0.00372904 0)
(0.0896036 -0.00368251 0)
(0.0906503 -0.00363492 0)
(0.0916832 -0.00358627 0)
(0.0927021 -0.00353657 0)
(0.0937067 -0.00348582 0)
(0.0946966 -0.00343404 0)
(0.0956715 -0.00338124 0)
(0.0966312 -0.00332742 0)
(0.0975753 -0.0032726 0)
(0.0985036 -0.00321679 0)
(0.0994159 -0.00316001 0)
(0.100312 -0.00310227 0)
(0.101191 -0.00304358 0)
(0.102053 -0.00298396 0)
(0.102898 -0.00292343 0)
(0.103726 -0.002862 0)
(0.104536 -0.0027997 0)
(0.105328 -0.00273655 0)
(0.106102 -0.00267258 0)
(0.106857 -0.00260782 0)
(0.107594 -0.00254228 0)
(0.108311 -0.00247601 0)
(0.10901 -0.00240901 0)
(0.10969 -0.00234131 0)
(0.11035 -0.00227293 0)
(0.11099 -0.00220392 0)
(0.111611 -0.00213429 0)
(0.112211 -0.00206409 0)
(0.112791 -0.00199334 0)
(0.113351 -0.00192208 0)
(0.113891 -0.00185032 0)
(0.11441 -0.0017781 0)
(0.114908 -0.00170545 0)
(0.115385 -0.0016324 0)
(0.115842 -0.00155899 0)
(0.116277 -0.00148526 0)
(0.116691 -0.00141124 0)
(0.117084 -0.00133696 0)
(0.117456 -0.00126245 0)
(0.117806 -0.00118774 0)
(0.118135 -0.00111286 0)
(0.118442 -0.00103783 0)
(0.118728 -0.000962696 0)
(0.118993 -0.000887479 0)
(0.119236 -0.000812214 0)
(0.119457 -0.00073693 0)
(0.119657 -0.000661659 0)
(0.119835 -0.000586429 0)
(0.119992 -0.000511269 0)
(0.120127 -0.000436205 0)
(0.120241 -0.000361263 0)
(0.120333 -0.000286468 0)
(0.120404 -0.000211842 0)
(0.120454 -0.00013741 0)
(0.120482 -6.31998e-05 0)
(0.120489 1.07613e-05 0)
(0.120475 8.44459e-05 0)
(0.12044 0.000157829 0)
(0.120384 0.00023089 0)
(0.120307 0.000303616 0)
(0.12021 0.000375993 0)
(0.120092 0.000448004 0)
(0.119953 0.000519632 0)
(0.119794 0.000590856 0)
(0.119614 0.000661655 0)
(0.119415 0.000732011 0)
(0.119195 0.000801904 0)
(0.118955 0.00087132 0)
(0.118696 0.000940242 0)
(0.118417 0.00100866 0)
(0.118118 0.00107655 0)
(0.1178 0.00114392 0)
(0.117463 0.00121075 0)
(0.117107 0.00127703 0)
(0.116732 0.00134275 0)
(0.116338 0.00140789 0)
(0.115926 0.00147246 0)
(0.115496 0.00153642 0)
(0.115047 0.00159978 0)
(0.11458 0.00166251 0)
(0.114095 0.00172461 0)
(0.113593 0.00178609 0)
(0.113073 0.00184694 0)
(0.112536 0.00190716 0)
(0.111982 0.00196673 0)
(0.111411 0.00202564 0)
(0.110823 0.00208388 0)
(0.110218 0.00214143 0)
(0.109597 0.00219828 0)
(0.10896 0.00225444 0)
(0.108307 0.00230991 0)
(0.107639 0.00236469 0)
(0.106954 0.00241877 0)
(0.106255 0.00247214 0)
(0.10554 0.0025248 0)
(0.10481 0.00257674 0)
(0.104066 0.00262796 0)
(0.103307 0.00267845 0)
(0.102534 0.00272821 0)
(0.101746 0.00277723 0)
(0.100945 0.00282552 0)
(0.10013 0.00287305 0)
(0.0993012 0.00291984 0)
(0.0984594 0.00296589 0)
(0.0976045 0.00301119 0)
(0.0967369 0.00305574 0)
(0.0958566 0.00309954 0)
(0.0949639 0.00314259 0)
(0.094059 0.00318487 0)
(0.0931421 0.0032264 0)
(0.0922134 0.00326716 0)
(0.0912733 0.00330717 0)
(0.0903218 0.00334642 0)
(0.0893592 0.00338492 0)
(0.0883857 0.00342265 0)
(0.0874015 0.00345963 0)
(0.0864069 0.00349586 0)
(0.0854021 0.00353132 0)
(0.0843872 0.00356603 0)
(0.0833625 0.0036 0)
(0.0823282 0.00363322 0)
(0.0812846 0.0036657 0)
(0.0802317 0.00369745 0)
(0.0791699 0.00372846 0)
(0.0780994 0.00375874 0)
(0.0770203 0.00378829 0)
(0.0759329 0.00381711 0)
(0.0748374 0.00384521 0)
(0.0737339 0.0038726 0)
(0.0726227 0.00389929 0)
(0.071504 0.00392529 0)
(0.070378 0.00395059 0)
(0.0692448 0.00397521 0)
(0.0681048 0.00399914 0)
(0.066958 0.0040224 0)
(0.0658046 0.004045 0)
(0.0646449 0.00406694 0)
(0.0634791 0.00408824 0)
(0.0623072 0.0041089 0)
(0.0611296 0.00412893 0)
(0.0599463 0.00414834 0)
(0.0587576 0.00416715 0)
(0.0575636 0.00418535 0)
(0.0563645 0.00420296 0)
(0.0551605 0.00421999 0)
(0.0539517 0.00423645 0)
(0.0527383 0.00425234 0)
(0.0515204 0.00426767 0)
(0.0502983 0.00428247 0)
(0.049072 0.00429673 0)
(0.0478417 0.00431046 0)
(0.0466076 0.00432369 0)
(0.0453698 0.00433641 0)
(0.0441284 0.00434865 0)
(0.0428836 0.0043604 0)
(0.0416356 0.00437168 0)
(0.0403844 0.0043825 0)
(0.0391302 0.00439287 0)
(0.0378731 0.00440279 0)
(0.0366132 0.00441228 0)
(0.0353507 0.00442135 0)
(0.0340857 0.00443 0)
(0.0328183 0.00443824 0)
(0.0315486 0.00444609 0)
(0.0302767 0.00445355 0)
(0.0290028 0.00446064 0)
(0.0277269 0.00446735 0)
(0.0264491 0.0044737 0)
(0.0251696 0.00447969 0)
(0.0238884 0.00448534 0)
(0.0226057 0.00449064 0)
(0.0213215 0.00449562 0)
(0.020036 0.00450026 0)
(0.0187491 0.00450459 0)
(0.0174611 0.0045086 0)
(0.016172 0.0045123 0)
(0.0148819 0.00451569 0)
(0.0135909 0.00451879 0)
(0.012299 0.00452159 0)
(0.0110064 0.0045241 0)
(0.00971308 0.00452633 0)
(0.00841919 0.00452827 0)
(0.0071248 0.00452993 0)
(0.00582997 0.00453131 0)
(0.00453478 0.00453241 0)
(0.00323933 0.00453325 0)
(0.00194369 0.0045338 0)
(0.000647917 0.00453408 0)
(0.000704948 -0.00634165 0)
(0.00211483 -0.00634128 0)
(0.00352459 -0.00634051 0)
(0.00493412 -0.00633933 0)
(0.00634335 -0.00633774 0)
(0.00775218 -0.00633572 0)
(0.00916053 -0.00633327 0)
(0.0105683 -0.00633039 0)
(0.0119754 -0.00632708 0)
(0.0133817 -0.00632334 0)
(0.0147872 -0.00631915 0)
(0.0161916 -0.00631451 0)
(0.0175951 -0.00630941 0)
(0.0189973 -0.00630383 0)
(0.0203983 -0.00629777 0)
(0.0217979 -0.00629121 0)
(0.023196 -0.00628414 0)
(0.0245925 -0.00627655 0)
(0.0259873 -0.00626841 0)
(0.0273802 -0.00625972 0)
(0.0287712 -0.00625045 0)
(0.03016 -0.0062406 0)
(0.0315467 -0.00623014 0)
(0.0329309 -0.00621905 0)
(0.0343127 -0.00620733 0)
(0.0356918 -0.00619494 0)
(0.0370681 -0.00618187 0)
(0.0384415 -0.0061681 0)
(0.0398118 -0.00615361 0)
(0.0411787 -0.00613837 0)
(0.0425423 -0.00612237 0)
(0.0439022 -0.00610558 0)
(0.0452584 -0.00608798 0)
(0.0466106 -0.00606955 0)
(0.0479586 -0.00605026 0)
(0.0493023 -0.0060301 0)
(0.0506415 -0.00600903 0)
(0.0519759 -0.00598703 0)
(0.0533053 -0.00596409 0)
(0.0546296 -0.00594018 0)
(0.0559485 -0.00591528 0)
(0.0572617 -0.00588936 0)
(0.0585692 -0.00586241 0)
(0.0598705 -0.0058344 0)
(0.0611656 -0.00580532 0)
(0.0624541 -0.00577513 0)
(0.0637358 -0.00574381 0)
(0.0650104 -0.00571134 0)
(0.0662778 -0.00567771 0)
(0.0675375 -0.00564289 0)
(0.0687894 -0.00560687 0)
(0.0700332 -0.00556962 0)
(0.0712687 -0.00553113 0)
(0.0724954 -0.00549138 0)
(0.0737132 -0.00545036 0)
(0.0749218 -0.00540806 0)
(0.0761208 -0.00536447 0)
(0.07731 -0.00531956 0)
(0.0784891 -0.00527333 0)
(0.0796578 -0.00522575 0)
(0.0808158 -0.00517683 0)
(0.0819628 -0.00512656 0)
(0.0830985 -0.00507493 0)
(0.0842226 -0.00502193 0)
(0.0853347 -0.00496758 0)
(0.0864346 -0.00491186 0)
(0.087522 -0.00485477 0)
(0.0885965 -0.00479631 0)
(0.0896579 -0.00473649 0)
(0.0907058 -0.00467529 0)
(0.09174 -0.00461273 0)
(0.0927601 -0.00454881 0)
(0.0937658 -0.00448355 0)
(0.0947569 -0.00441696 0)
(0.095733 -0.00434905 0)
(0.0966938 -0.00427983 0)
(0.0976391 -0.00420933 0)
(0.0985685 -0.00413755 0)
(0.0994819 -0.00406452 0)
(0.100379 -0.00399026 0)
(0.101259 -0.00391478 0)
(0.102122 -0.00383809 0)
(0.102969 -0.00376023 0)
(0.103797 -0.00368121 0)
(0.104608 -0.00360107 0)
(0.105401 -0.00351984 0)
(0.106176 -0.00343756 0)
(0.106932 -0.00335425 0)
(0.10767 -0.00326995 0)
(0.108388 -0.00318469 0)
(0.109088 -0.00309849 0)
(0.109768 -0.0030114 0)
(0.110429 -0.00292344 0)
(0.11107 -0.00283466 0)
(0.111691 -0.00274509 0)
(0.112292 -0.00265478 0)
(0.112873 -0.00256377 0)
(0.113434 -0.00247208 0)
(0.113974 -0.00237977 0)
(0.114493 -0.00228686 0)
(0.114992 -0.0021934 0)
(0.11547 -0.00209943 0)
(0.115927 -0.002005 0)
(0.116362 -0.00191014 0)
(0.116777 -0.00181492 0)
(0.11717 -0.00171936 0)
(0.117542 -0.0016235 0)
(0.117892 -0.00152739 0)
(0.118221 -0.00143106 0)
(0.118529 -0.00133454 0)
(0.118815 -0.00123789 0)
(0.119079 -0.00114113 0)
(0.119322 -0.00104431 0)
(0.119544 -0.000947462 0)
(0.119743 -0.000850634 0)
(0.119922 -0.000753862 0)
(0.120078 -0.000657181 0)
(0.120213 -0.000560624 0)
(0.120327 -0.000464227 0)
(0.120419 -0.000368018 0)
(0.12049 -0.000272031 0)
(0.120539 -0.000176295 0)
(0.120567 -8.08442e-05 0)
(0.120574 1.42852e-05 0)
(0.12056 0.000109059 0)