/*--------------------------------*- C++ -*----------------------------------*\
| =========                 |                                                 |
| \\      /  F ield         | OpenFOAM: The Open Source CFD Toolbox           |
|  \\    /   O peration     | Version:  v2012                                 |
|   \\  /    A nd           | Website:  www.openfoam.com                      |
|    \\/     M anipulation  |                                                 |
\*---------------------------------------------------------------------------*/
FoamFile
{
    version     2.0;
    format      ascii;
    class       volVectorField;
    location    "2";
    object      W;
}
// * * * * * * * * * * * * * * * * * * * * * * * * * * * * * * * * * * * * * //

dimensions      [0 0 -1 0 0 0 0];


internalField   nonuniform List<vector> 
65536
(
(0 -0 -9.81869e-08)
(0 -0 -2.45425e-07)
(0 -0 -3.06863e-08)
(0 -0 4.58582e-08)
(0 -0 1.03404e-07)
(0 -0 1.39732e-07)
(0 -0 1.42223e-07)
(0 -0 1.09393e-07)
(0 -0 4.83435e-08)
(0 -0 -3.19726e-08)
(0 -0 -1.22753e-07)
(0 -0 -2.15402e-07)
(0 -0 -3.02442e-07)
(0 -0 -3.80051e-07)
(0 -0 -4.48794e-07)
(0 -0 -5.12442e-07)
(0 -0 -5.75022e-07)
(0 -0 -6.37605e-07)
(0 -0 -6.98479e-07)
(0 -0 -7.55648e-07)
(0 -0 -8.09765e-07)
(0 -0 -8.64213e-07)
(0 -0 -9.21953e-07)
(0 -0 -9.83449e-07)
(0 -0 -1.04661e-06)
(0 -0 -1.10848e-06)
(0 -0 -1.16723e-06)
(0 -0 -1.22196e-06)
(0 -0 -1.27188e-06)
(0 -0 -1.31694e-06)
(0 -0 -1.35862e-06)
(0 -0 -1.39998e-06)
(0 -0 -1.44416e-06)
(0 -0 -1.49168e-06)
(0 -0 -1.54012e-06)
(0 -0 -1.58665e-06)
(0 -0 -1.63038e-06)
(0 -0 -1.67298e-06)
(0 -0 -1.71787e-06)
(0 -0 -1.7682e-06)
(0 -0 -1.82484e-06)
(0 -0 -1.88585e-06)
(0 -0 -1.94691e-06)
(0 -0 -2.00254e-06)
(0 -0 -2.0488e-06)
(0 -0 -2.08599e-06)
(0 -0 -2.11829e-06)
(0 -0 -2.15091e-06)
(0 -0 -2.18725e-06)
(0 -0 -2.22773e-06)
(0 -0 -2.27075e-06)
(0 -0 -2.31529e-06)
(0 -0 -2.36202e-06)
(0 -0 -2.41123e-06)
(0 -0 -2.45998e-06)
(0 -0 -2.50301e-06)
(0 -0 -2.53695e-06)
(0 -0 -2.56389e-06)
(0 -0 -2.59084e-06)
(0 -0 -2.62541e-06)
(0 -0 -2.67102e-06)
(0 -0 -2.72536e-06)
(0 -0 -2.78312e-06)
(0 -0 -2.83973e-06)
(0 -0 -2.8922e-06)
(0 -0 -2.93764e-06)
(0 -0 -2.97297e-06)
(0 -0 -2.99685e-06)
(0 -0 -3.01162e-06)
(0 -0 -3.02309e-06)
(0 -0 -3.03783e-06)
(0 -0 -3.05932e-06)
(0 -0 -3.08596e-06)
(0 -0 -3.11355e-06)
(0 -0 -3.14057e-06)
(0 -0 -3.17013e-06)
(0 -0 -3.20532e-06)
(0 -0 -3.24343e-06)
(0 -0 -3.27655e-06)
(0 -0 -3.2982e-06)
(0 -0 -3.30759e-06)
(0 -0 -3.30812e-06)
(0 -0 -3.30444e-06)
(0 -0 -3.30305e-06)
(0 -0 -3.31411e-06)
(0 -0 -3.34791e-06)
(0 -0 -3.40667e-06)
(0 -0 -3.47972e-06)
(0 -0 -3.54787e-06)
(0 -0 -3.59426e-06)
(0 -0 -3.61408e-06)
(0 -0 -3.61655e-06)
(0 -0 -3.61796e-06)
(0 -0 -3.63033e-06)
(0 -0 -3.65412e-06)
(0 -0 -3.68007e-06)
(0 -0 -3.69786e-06)
(0 -0 -3.70425e-06)
(0 -0 -3.70523e-06)
(0 -0 -3.71231e-06)
(0 -0 -3.73626e-06)
(0 -0 -3.78145e-06)
(0 -0 -3.84369e-06)
(0 -0 -3.91247e-06)
(0 -0 -3.97594e-06)
(0 -0 -4.02501e-06)
(0 -0 -4.05472e-06)
(0 -0 -4.06451e-06)
(0 -0 -4.05907e-06)
(0 -0 -4.04774e-06)
(0 -0 -4.03963e-06)
(0 -0 -4.03734e-06)
(0 -0 -4.03568e-06)
(0 -0 -4.02717e-06)
(0 -0 -4.00914e-06)
(0 -0 -3.98584e-06)
(0 -0 -3.96302e-06)
(0 -0 -3.94027e-06)
(0 -0 -3.9111e-06)
(0 -0 -3.87244e-06)
(0 -0 -3.83379e-06)
(0 -0 -3.81611e-06)
(0 -0 -3.84028e-06)
(0 -0 -3.91326e-06)
(0 -0 -4.0201e-06)
(0 -0 -4.12698e-06)
(0 -0 -4.19559e-06)
(0 -0 -4.20254e-06)
(0 -0 -4.15077e-06)
(0 -0 -4.06434e-06)
(0 -0 -3.9725e-06)
(0 -0 -3.89635e-06)
(0 -0 -3.84547e-06)
(0 -0 -3.82197e-06)
(0 -0 -3.824e-06)
(0 -0 -3.84559e-06)
(0 -0 -3.87528e-06)
(0 -0 -3.89867e-06)
(0 -0 -3.90493e-06)
(0 -0 -3.89129e-06)
(0 -0 -3.86175e-06)
(0 -0 -3.82289e-06)
(0 -0 -3.78222e-06)
(0 -0 -3.74969e-06)
(0 -0 -3.73613e-06)
(0 -0 -3.74524e-06)
(0 -0 -3.76478e-06)
(0 -0 -3.76836e-06)
(0 -0 -3.73157e-06)
(0 -0 -3.65214e-06)
(0 -0 -3.55697e-06)
(0 -0 -3.48778e-06)
(0 -0 -3.47526e-06)
(0 -0 -3.52066e-06)
(0 -0 -3.59623e-06)
(0 -0 -3.6623e-06)
(0 -0 -3.68904e-06)
(0 -0 -3.67013e-06)
(0 -0 -3.62128e-06)
(0 -0 -3.56714e-06)
(0 -0 -3.52615e-06)
(0 -0 -3.50334e-06)
(0 -0 -3.49384e-06)
(0 -0 -3.49087e-06)
(0 -0 -3.49007e-06)
(0 -0 -3.48849e-06)
(0 -0 -3.48297e-06)
(0 -0 -3.4707e-06)
(0 -0 -3.44993e-06)
(0 -0 -3.41854e-06)
(0 -0 -3.37321e-06)
(0 -0 -3.31287e-06)
(0 -0 -3.24336e-06)
(0 -0 -3.17606e-06)
(0 -0 -3.12011e-06)
(0 -0 -3.07724e-06)
(0 -0 -3.04464e-06)
(0 -0 -3.02028e-06)
(0 -0 -3.00293e-06)
(0 -0 -2.98955e-06)
(0 -0 -2.97605e-06)
(0 -0 -2.96072e-06)
(0 -0 -2.94494e-06)
(0 -0 -2.92921e-06)
(0 -0 -2.91032e-06)
(0 -0 -2.88382e-06)
(0 -0 -2.84902e-06)
(0 -0 -2.81098e-06)
(0 -0 -2.77719e-06)
(0 -0 -2.75278e-06)
(0 -0 -2.73741e-06)
(0 -0 -2.72675e-06)
(0 -0 -2.7153e-06)
(0 -0 -2.69814e-06)
(0 -0 -2.67196e-06)
(0 -0 -2.63512e-06)
(0 -0 -2.58815e-06)
(0 -0 -2.53433e-06)
(0 -0 -2.47851e-06)
(0 -0 -2.42506e-06)
(0 -0 -2.3764e-06)
(0 -0 -2.33346e-06)
(0 -0 -2.29633e-06)
(0 -0 -2.26396e-06)
(0 -0 -2.23295e-06)
(0 -0 -2.19846e-06)
(0 -0 -2.15731e-06)
(0 -0 -2.10985e-06)
(0 -0 -2.05971e-06)
(0 -0 -2.01143e-06)
(0 -0 -1.96775e-06)
(0 -0 -1.92821e-06)
(0 -0 -1.88923e-06)
(0 -0 -1.84607e-06)
(0 -0 -1.79595e-06)
(0 -0 -1.74032e-06)
(0 -0 -1.68377e-06)
(0 -0 -1.62991e-06)
(0 -0 -1.57829e-06)
(0 -0 -1.52567e-06)
(0 -0 -1.47011e-06)
(0 -0 -1.41397e-06)
(0 -0 -1.36234e-06)
(0 -0 -1.31878e-06)
(0 -0 -1.28244e-06)
(0 -0 -1.24905e-06)
(0 -0 -1.21418e-06)
(0 -0 -1.1755e-06)
(0 -0 -1.1329e-06)
(0 -0 -1.08756e-06)
(0 -0 -1.04144e-06)
(0 -0 -9.96872e-07)
(0 -0 -9.55653e-07)
(0 -0 -9.17867e-07)
(0 -0 -8.81387e-07)
(0 -0 -8.42644e-07)
(0 -0 -7.99052e-07)
(0 -0 -7.51442e-07)
(0 -0 -7.03613e-07)
(0 -0 -6.58982e-07)
(0 -0 -6.17526e-07)
(0 -0 -5.76089e-07)
(0 -0 -5.31471e-07)
(0 -0 -4.83017e-07)
(0 -0 -4.32567e-07)
(0 -0 -3.8248e-07)
(0 -0 -3.34054e-07)
(0 -0 -2.87357e-07)
(0 -0 -2.41684e-07)
(0 -0 -1.9597e-07)
(0 -0 -1.49509e-07)
(0 -0 -1.03337e-07)
(0 -0 -6.12677e-08)
(0 -0 -2.88177e-08)
(0 -0 -9.60986e-09)
(0 -0 -1.70009e-09)
(0 -0 -2.98693e-07)
(0 -0 -7.53973e-07)
(0 -0 -5.29703e-07)
(0 -0 -3.84533e-07)
(0 -0 -2.13623e-07)
(0 -0 -7.96517e-08)
(0 -0 -3.53324e-08)
(0 -0 -9.40245e-08)
(0 -0 -2.41029e-07)
(0 -0 -4.49723e-07)
(0 -0 -6.90923e-07)
(0 -0 -9.37763e-07)
(0 -0 -1.17007e-06)
(0 -0 -1.3782e-06)
(0 -0 -1.56377e-06)
(0 -0 -1.73654e-06)
(0 -0 -1.90659e-06)
(0 -0 -2.07705e-06)
(0 -0 -2.24369e-06)
(0 -0 -2.40157e-06)
(0 -0 -2.55287e-06)
(0 -0 -2.70658e-06)
(0 -0 -2.87113e-06)
(0 -0 -3.04774e-06)
(0 -0 -3.22961e-06)
(0 -0 -3.40749e-06)
(0 -0 -3.57496e-06)
(0 -0 -3.72876e-06)
(0 -0 -3.86767e-06)
(0 -0 -3.99291e-06)
(0 -0 -4.1099e-06)
(0 -0 -4.22832e-06)
(0 -0 -4.35668e-06)
(0 -0 -4.49544e-06)
(0 -0 -4.63688e-06)
(0 -0 -4.77192e-06)
(0 -0 -4.89735e-06)
(0 -0 -5.01865e-06)
(0 -0 -5.14677e-06)
(0 -0 -5.29115e-06)
(0 -0 -5.45418e-06)
(0 -0 -5.6297e-06)
(0 -0 -5.80444e-06)
(0 -0 -5.96299e-06)
(0 -0 -6.09597e-06)
(0 -0 -6.20563e-06)
(0 -0 -6.30379e-06)
(0 -0 -6.40426e-06)
(0 -0 -6.51544e-06)
(0 -0 -6.63723e-06)
(0 -0 -6.76461e-06)
(0 -0 -6.89531e-06)
(0 -0 -7.03289e-06)
(0 -0 -7.1799e-06)
(0 -0 -7.32891e-06)
(0 -0 -7.46357e-06)
(0 -0 -7.57124e-06)
(0 -0 -7.6553e-06)
(0 -0 -7.73525e-06)
(0 -0 -7.83386e-06)
(0 -0 -7.96236e-06)
(0 -0 -8.11607e-06)
(0 -0 -8.28252e-06)
(0 -0 -8.45098e-06)
(0 -0 -8.61297e-06)
(0 -0 -8.7573e-06)
(0 -0 -8.8704e-06)
(0 -0 -8.94468e-06)
(0 -0 -8.9863e-06)
(0 -0 -9.01441e-06)
(0 -0 -9.05111e-06)
(0 -0 -9.1081e-06)
(0 -0 -9.18065e-06)
(0 -0 -9.25655e-06)
(0 -0 -9.33303e-06)
(0 -0 -9.42169e-06)
(0 -0 -9.53261e-06)
(0 -0 -9.65535e-06)
(0 -0 -9.76179e-06)
(0 -0 -9.82833e-06)
(0 -0 -9.85169e-06)
(0 -0 -9.84467e-06)
(0 -0 -9.82533e-06)
(0 -0 -9.81641e-06)
(0 -0 -9.84916e-06)
(0 -0 -9.95334e-06)
(0 -0 -1.01338e-05)
(0 -0 -1.0357e-05)
(0 -0 -1.05639e-05)
(0 -0 -1.07034e-05)
(0 -0 -1.07612e-05)
(0 -0 -1.07654e-05)
(0 -0 -1.07656e-05)
(0 -0 -1.07991e-05)
(0 -0 -1.08685e-05)
(0 -0 -1.09466e-05)
(0 -0 -1.10018e-05)
(0 -0 -1.1022e-05)
(0 -0 -1.10233e-05)
(0 -0 -1.10394e-05)
(0 -0 -1.11042e-05)
(0 -0 -1.1234e-05)
(0 -0 -1.14188e-05)
(0 -0 -1.16275e-05)
(0 -0 -1.1823e-05)
(0 -0 -1.19754e-05)
(0 -0 -1.20674e-05)
(0 -0 -1.20957e-05)
(0 -0 -1.20736e-05)
(0 -0 -1.20295e-05)
(0 -0 -1.19926e-05)
(0 -0 -1.19744e-05)
(0 -0 -1.19635e-05)
(0 -0 -1.19402e-05)
(0 -0 -1.18961e-05)
(0 -0 -1.18404e-05)
(0 -0 -1.1786e-05)
(0 -0 -1.17291e-05)
(0 -0 -1.16497e-05)
(0 -0 -1.15393e-05)
(0 -0 -1.14262e-05)
(0 -0 -1.13732e-05)
(0 -0 -1.14434e-05)
(0 -0 -1.16588e-05)
(0 -0 -1.19759e-05)
(0 -0 -1.22942e-05)
(0 -0 -1.24997e-05)
(0 -0 -1.25239e-05)
(0 -0 -1.23766e-05)
(0 -0 -1.21298e-05)
(0 -0 -1.18697e-05)
(0 -0 -1.16564e-05)
(0 -0 -1.15156e-05)
(0 -0 -1.14513e-05)
(0 -0 -1.14582e-05)
(0 -0 -1.15205e-05)
(0 -0 -1.16059e-05)
(0 -0 -1.16719e-05)
(0 -0 -1.16857e-05)
(0 -0 -1.16393e-05)
(0 -0 -1.15459e-05)
(0 -0 -1.14268e-05)
(0 -0 -1.13039e-05)
(0 -0 -1.12054e-05)
(0 -0 -1.11631e-05)
(0 -0 -1.11897e-05)
(0 -0 -1.12503e-05)
(0 -0 -1.12657e-05)
(0 -0 -1.11592e-05)
(0 -0 -1.09191e-05)
(0 -0 -1.06239e-05)
(0 -0 -1.04009e-05)
(0 -0 -1.03476e-05)
(0 -0 -1.04726e-05)
(0 -0 -1.06948e-05)
(0 -0 -1.08938e-05)
(0 -0 -1.09767e-05)
(0 -0 -1.09212e-05)
(0 -0 -1.0773e-05)
(0 -0 -1.06057e-05)
(0 -0 -1.04757e-05)
(0 -0 -1.03993e-05)
(0 -0 -1.03628e-05)
(0 -0 -1.03466e-05)
(0 -0 -1.03382e-05)
(0 -0 -1.03303e-05)
(0 -0 -1.03146e-05)
(0 -0 -1.02839e-05)
(0 -0 -1.02323e-05)
(0 -0 -1.01512e-05)
(0 -0 -1.00281e-05)
(0 -0 -9.85778e-06)
(0 -0 -9.65859e-06)
(0 -0 -9.46649e-06)
(0 -0 -9.30958e-06)
(0 -0 -9.19173e-06)
(0 -0 -9.10164e-06)
(0 -0 -9.03008e-06)
(0 -0 -8.9718e-06)
(0 -0 -8.91843e-06)
(0 -0 -8.86072e-06)
(0 -0 -8.79825e-06)
(0 -0 -8.7391e-06)
(0 -0 -8.68655e-06)
(0 -0 -8.62946e-06)
(0 -0 -8.5512e-06)
(0 -0 -8.44598e-06)
(0 -0 -8.32713e-06)
(0 -0 -8.21788e-06)
(0 -0 -8.13637e-06)
(0 -0 -8.08557e-06)
(0 -0 -8.05456e-06)
(0 -0 -8.02655e-06)
(0 -0 -7.98455e-06)
(0 -0 -7.91471e-06)
(0 -0 -7.8088e-06)
(0 -0 -7.66723e-06)
(0 -0 -7.50166e-06)
(0 -0 -7.3306e-06)
(0 -0 -7.17044e-06)
(0 -0 -7.02886e-06)
(0 -0 -6.90659e-06)
(0 -0 -6.80104e-06)
(0 -0 -6.70671e-06)
(0 -0 -6.6134e-06)
(0 -0 -6.50828e-06)
(0 -0 -6.38368e-06)
(0 -0 -6.24228e-06)
(0 -0 -6.09546e-06)
(0 -0 -5.95629e-06)
(0 -0 -5.83165e-06)
(0 -0 -5.71869e-06)
(0 -0 -5.60626e-06)
(0 -0 -5.48093e-06)
(0 -0 -5.3356e-06)
(0 -0 -5.17478e-06)
(0 -0 -5.01096e-06)
(0 -0 -4.85349e-06)
(0 -0 -4.70085e-06)
(0 -0 -4.54431e-06)
(0 -0 -4.37921e-06)
(0 -0 -4.21254e-06)
(0 -0 -4.05885e-06)
(0 -0 -3.92827e-06)
(0 -0 -3.81855e-06)
(0 -0 -3.71789e-06)
(0 -0 -3.61406e-06)
(0 -0 -3.50035e-06)
(0 -0 -3.37564e-06)
(0 -0 -3.2426e-06)
(0 -0 -3.10669e-06)
(0 -0 -2.97481e-06)
(0 -0 -2.85234e-06)
(0 -0 -2.73953e-06)
(0 -0 -2.62993e-06)
(0 -0 -2.51314e-06)
(0 -0 -2.3821e-06)
(0 -0 -2.23981e-06)
(0 -0 -2.09772e-06)
(0 -0 -1.96582e-06)
(0 -0 -1.84386e-06)
(0 -0 -1.72243e-06)
(0 -0 -1.59196e-06)
(0 -0 -1.45025e-06)
(0 -0 -1.30221e-06)
(0 -0 -1.15432e-06)
(0 -0 -1.01032e-06)
(0 -0 -8.70666e-07)
(0 -0 -7.33576e-07)
(0 -0 -5.9605e-07)
(0 -0 -4.56015e-07)
(0 -0 -3.16594e-07)
(0 -0 -1.89219e-07)
(0 -0 -9.03926e-08)
(0 -0 -3.10944e-08)
(0 -0 -5.89486e-09)
(0 -0 -7.45407e-07)
(0 -0 -1.64833e-06)
(0 -0 -1.61376e-06)
(0 -0 -1.44112e-06)
(0 -0 -1.17044e-06)
(0 -0 -9.33364e-07)
(0 -0 -8.2368e-07)
(0 -0 -8.70376e-07)
(0 -0 -1.05503e-06)
(0 -0 -1.33782e-06)
(0 -0 -1.67407e-06)
(0 -0 -2.02281e-06)
(0 -0 -2.35325e-06)
(0 -0 -2.64988e-06)
(0 -0 -2.91457e-06)
(0 -0 -3.16147e-06)
(0 -0 -3.40555e-06)
(0 -0 -3.65204e-06)
(0 -0 -3.89529e-06)
(0 -0 -4.12909e-06)
(0 -0 -4.35698e-06)
(0 -0 -4.59216e-06)
(0 -0 -4.84748e-06)
(0 -0 -5.12423e-06)
(0 -0 -5.41071e-06)
(0 -0 -5.69021e-06)
(0 -0 -5.94934e-06)
(0 -0 -6.18182e-06)
(0 -0 -6.38794e-06)
(0 -0 -6.57345e-06)
(0 -0 -6.7505e-06)
(0 -0 -6.93546e-06)
(0 -0 -7.13972e-06)
(0 -0 -7.36119e-06)
(0 -0 -7.58533e-06)
(0 -0 -7.79582e-06)
(0 -0 -7.98733e-06)
(0 -0 -8.17039e-06)
(0 -0 -8.36465e-06)
(0 -0 -8.58641e-06)
(0 -0 -8.83927e-06)
(0 -0 -9.11139e-06)
(0 -0 -9.37985e-06)
(0 -0 -9.62192e-06)
(0 -0 -9.8275e-06)
(0 -0 -1.00039e-05)
(0 -0 -1.01694e-05)
(0 -0 -1.0342e-05)
(0 -0 -1.05301e-05)
(0 -0 -1.07305e-05)
(0 -0 -1.09346e-05)
(0 -0 -1.11409e-05)
(0 -0 -1.13596e-05)
(0 -0 -1.16004e-05)
(0 -0 -1.18545e-05)
(0 -0 -1.20934e-05)
(0 -0 -1.22885e-05)
(0 -0 -1.2437e-05)
(0 -0 -1.25657e-05)
(0 -0 -1.2712e-05)
(0 -0 -1.28986e-05)
(0 -0 -1.31257e-05)
(0 -0 -1.33825e-05)
(0 -0 -1.36586e-05)
(0 -0 -1.39406e-05)
(0 -0 -1.42017e-05)
(0 -0 -1.44078e-05)
(0 -0 -1.45379e-05)
(0 -0 -1.46014e-05)
(0 -0 -1.46341e-05)
(0 -0 -1.46777e-05)
(0 -0 -1.47543e-05)
(0 -0 -1.48573e-05)
(0 -0 -1.49686e-05)
(0 -0 -1.50882e-05)
(0 -0 -1.52405e-05)
(0 -0 -1.5443e-05)
(0 -0 -1.56722e-05)
(0 -0 -1.58694e-05)
(0 -0 -1.59849e-05)
(0 -0 -1.60111e-05)
(0 -0 -1.59768e-05)
(0 -0 -1.59238e-05)
(0 -0 -1.5898e-05)
(0 -0 -1.59526e-05)
(0 -0 -1.61328e-05)
(0 -0 -1.64406e-05)
(0 -0 -1.68159e-05)
(0 -0 -1.71592e-05)
(0 -0 -1.73858e-05)
(0 -0 -1.74725e-05)
(0 -0 -1.74673e-05)
(0 -0 -1.7454e-05)
(0 -0 -1.74975e-05)
(0 -0 -1.76056e-05)
(0 -0 -1.77354e-05)
(0 -0 -1.78316e-05)
(0 -0 -1.7868e-05)
(0 -0 -1.78636e-05)
(0 -0 -1.78717e-05)
(0 -0 -1.79529e-05)
(0 -0 -1.81438e-05)
(0 -0 -1.8437e-05)
(0 -0 -1.87833e-05)
(0 -0 -1.91167e-05)
(0 -0 -1.93807e-05)
(0 -0 -1.95405e-05)
(0 -0 -1.95858e-05)
(0 -0 -1.9536e-05)
(0 -0 -1.94387e-05)
(0 -0 -1.93468e-05)
(0 -0 -1.92889e-05)
(0 -0 -1.92581e-05)
(0 -0 -1.92293e-05)
(0 -0 -1.91874e-05)
(0 -0 -1.91373e-05)
(0 -0 -1.90879e-05)
(0 -0 -1.90258e-05)
(0 -0 -1.89178e-05)
(0 -0 -1.87516e-05)
(0 -0 -1.85746e-05)
(0 -0 -1.84882e-05)
(0 -0 -1.85955e-05)
(0 -0 -1.89346e-05)
(0 -0 -1.94374e-05)
(0 -0 -1.99431e-05)
(0 -0 -2.02707e-05)
(0 -0 -2.03139e-05)
(0 -0 -2.00923e-05)
(0 -0 -1.9723e-05)
(0 -0 -1.93413e-05)
(0 -0 -1.90375e-05)
(0 -0 -1.88446e-05)
(0 -0 -1.87633e-05)
(0 -0 -1.87846e-05)
(0 -0 -1.88873e-05)
(0 -0 -1.90232e-05)
(0 -0 -1.91239e-05)
(0 -0 -1.91347e-05)
(0 -0 -1.90434e-05)
(0 -0 -1.88766e-05)
(0 -0 -1.86727e-05)
(0 -0 -1.84672e-05)
(0 -0 -1.83025e-05)
(0 -0 -1.82307e-05)
(0 -0 -1.82776e-05)
(0 -0 -1.83916e-05)
(0 -0 -1.84397e-05)
(0 -0 -1.82832e-05)
(0 -0 -1.78878e-05)
(0 -0 -1.73752e-05)
(0 -0 -1.6962e-05)
(0 -0 -1.68251e-05)
(0 -0 -1.69949e-05)
(0 -0 -1.73451e-05)
(0 -0 -1.76743e-05)
(0 -0 -1.78205e-05)
(0 -0 -1.77383e-05)
(0 -0 -1.74973e-05)
(0 -0 -1.72171e-05)
(0 -0 -1.69909e-05)
(0 -0 -1.68483e-05)
(0 -0 -1.67693e-05)
(0 -0 -1.67239e-05)
(0 -0 -1.66945e-05)
(0 -0 -1.66734e-05)
(0 -0 -1.66523e-05)
(0 -0 -1.66209e-05)
(0 -0 -1.65673e-05)
(0 -0 -1.64705e-05)
(0 -0 -1.63016e-05)
(0 -0 -1.60497e-05)
(0 -0 -1.57488e-05)
(0 -0 -1.54647e-05)
(0 -0 -1.52451e-05)
(0 -0 -1.50893e-05)
(0 -0 -1.49679e-05)
(0 -0 -1.48565e-05)
(0 -0 -1.47437e-05)
(0 -0 -1.462e-05)
(0 -0 -1.44799e-05)
(0 -0 -1.43353e-05)
(0 -0 -1.42093e-05)
(0 -0 -1.41111e-05)
(0 -0 -1.40188e-05)
(0 -0 -1.3896e-05)
(0 -0 -1.37226e-05)
(0 -0 -1.35136e-05)
(0 -0 -1.33088e-05)
(0 -0 -1.31471e-05)
(0 -0 -1.30454e-05)
(0 -0 -1.29937e-05)
(0 -0 -1.29641e-05)
(0 -0 -1.29211e-05)
(0 -0 -1.28303e-05)
(0 -0 -1.26676e-05)
(0 -0 -1.24308e-05)
(0 -0 -1.21449e-05)
(0 -0 -1.18518e-05)
(0 -0 -1.15881e-05)
(0 -0 -1.13677e-05)
(0 -0 -1.11854e-05)
(0 -0 -1.10273e-05)
(0 -0 -1.08771e-05)
(0 -0 -1.07173e-05)
(0 -0 -1.0532e-05)
(0 -0 -1.03154e-05)
(0 -0 -1.00778e-05)
(0 -0 -9.84011e-06)
(0 -0 -9.62221e-06)
(0 -0 -9.43073e-06)
(0 -0 -9.25636e-06)
(0 -0 -9.07987e-06)
(0 -0 -8.88261e-06)
(0 -0 -8.65653e-06)
(0 -0 -8.40886e-06)
(0 -0 -8.15591e-06)
(0 -0 -7.90866e-06)
(0 -0 -7.66347e-06)
(0 -0 -7.40861e-06)
(0 -0 -7.13953e-06)
(0 -0 -6.86819e-06)
(0 -0 -6.61685e-06)
(0 -0 -6.40089e-06)
(0 -0 -6.21752e-06)
(0 -0 -6.05006e-06)
(0 -0 -5.88095e-06)
(0 -0 -5.69961e-06)
(0 -0 -5.50242e-06)
(0 -0 -5.29148e-06)
(0 -0 -5.0746e-06)
(0 -0 -4.86288e-06)
(0 -0 -4.66492e-06)
(0 -0 -4.48051e-06)
(0 -0 -4.29853e-06)
(0 -0 -4.10274e-06)
(0 -0 -3.88384e-06)
(0 -0 -3.64892e-06)
(0 -0 -3.4173e-06)
(0 -0 -3.20432e-06)
(0 -0 -3.00844e-06)
(0 -0 -2.81406e-06)
(0 -0 -2.60617e-06)
(0 -0 -2.38124e-06)
(0 -0 -2.14607e-06)
(0 -0 -1.90934e-06)
(0 -0 -1.67597e-06)
(0 -0 -1.44699e-06)
(0 -0 -1.22076e-06)
(0 -0 -9.93394e-07)
(0 -0 -7.61796e-07)
(0 -0 -5.30925e-07)
(0 -0 -3.19385e-07)
(0 -0 -1.54392e-07)
(0 -0 -5.43909e-08)
(0 -0 -1.08262e-08)
(0 -0 -9.34283e-07)
(0 -0 -2.15552e-06)
(0 -0 -2.43e-06)
(0 -0 -2.3875e-06)
(0 -0 -2.14753e-06)
(0 -0 -1.89768e-06)
(0 -0 -1.77008e-06)
(0 -0 -1.81475e-06)
(0 -0 -2.02081e-06)
(0 -0 -2.34622e-06)
(0 -0 -2.73823e-06)
(0 -0 -3.14661e-06)
(0 -0 -3.53349e-06)
(0 -0 -3.88094e-06)
(0 -0 -4.19207e-06)
(0 -0 -4.48379e-06)
(0 -0 -4.77369e-06)
(0 -0 -5.06809e-06)
(0 -0 -5.36164e-06)
(0 -0 -5.64816e-06)
(0 -0 -5.93205e-06)
(0 -0 -6.22927e-06)
(0 -0 -6.55546e-06)
(0 -0 -6.9125e-06)
(0 -0 -7.28508e-06)
(0 -0 -7.64815e-06)
(0 -0 -7.97949e-06)
(0 -0 -8.26884e-06)
(0 -0 -8.51956e-06)
(0 -0 -8.74606e-06)
(0 -0 -8.96985e-06)
(0 -0 -9.21199e-06)
(0 -0 -9.48245e-06)
(0 -0 -9.77267e-06)
(0 -0 -1.00593e-05)
(0 -0 -1.03199e-05)
(0 -0 -1.05502e-05)
(0 -0 -1.07689e-05)
(0 -0 -1.10065e-05)
(0 -0 -1.12869e-05)
(0 -0 -1.16134e-05)
(0 -0 -1.19658e-05)
(0 -0 -1.23103e-05)
(0 -0 -1.26188e-05)
(0 -0 -1.28838e-05)
(0 -0 -1.31195e-05)
(0 -0 -1.33489e-05)
(0 -0 -1.35891e-05)
(0 -0 -1.38449e-05)
(0 -0 -1.41091e-05)
(0 -0 -1.43712e-05)
(0 -0 -1.46326e-05)
(0 -0 -1.49138e-05)
(0 -0 -1.52365e-05)
(0 -0 -1.55946e-05)
(0 -0 -1.59454e-05)
(0 -0 -1.6238e-05)
(0 -0 -1.64535e-05)
(0 -0 -1.66191e-05)
(0 -0 -1.6785e-05)
(0 -0 -1.69907e-05)
(0 -0 -1.72508e-05)
(0 -0 -1.75672e-05)
(0 -0 -1.79375e-05)
(0 -0 -1.83425e-05)
(0 -0 -1.8732e-05)
(0 -0 -1.90402e-05)
(0 -0 -1.92273e-05)
(0 -0 -1.93066e-05)
(0 -0 -1.93347e-05)
(0 -0 -1.93749e-05)
(0 -0 -1.94609e-05)
(0 -0 -1.95864e-05)
(0 -0 -1.97305e-05)
(0 -0 -1.98984e-05)
(0 -0 -2.01283e-05)
(0 -0 -2.04438e-05)
(0 -0 -2.08025e-05)
(0 -0 -2.11065e-05)
(0 -0 -2.12722e-05)
(0 -0 -2.12877e-05)
(0 -0 -2.12064e-05)
(0 -0 -2.11052e-05)
(0 -0 -2.10599e-05)
(0 -0 -2.11423e-05)
(0 -0 -2.14027e-05)
(0 -0 -2.18317e-05)
(0 -0 -2.2341e-05)
(0 -0 -2.27961e-05)
(0 -0 -2.30856e-05)
(0 -0 -2.31817e-05)
(0 -0 -2.31507e-05)
(0 -0 -2.31083e-05)
(0 -0 -2.31472e-05)
(0 -0 -2.3285e-05)
(0 -0 -2.34664e-05)
(0 -0 -2.36106e-05)
(0 -0 -2.36673e-05)
(0 -0 -2.36471e-05)
(0 -0 -2.36172e-05)
(0 -0 -2.36692e-05)
(0 -0 -2.38726e-05)
(0 -0 -2.42349e-05)
(0 -0 -2.46942e-05)
(0 -0 -2.51538e-05)
(0 -0 -2.55262e-05)
(0 -0 -2.57554e-05)
(0 -0 -2.58211e-05)
(0 -0 -2.57441e-05)
(0 -0 -2.55862e-05)
(0 -0 -2.54249e-05)
(0 -0 -2.53139e-05)
(0 -0 -2.52632e-05)
(0 -0 -2.52513e-05)
(0 -0 -2.52535e-05)
(0 -0 -2.52577e-05)
(0 -0 -2.52552e-05)
(0 -0 -2.5219e-05)
(0 -0 -2.51084e-05)
(0 -0 -2.4912e-05)
(0 -0 -2.46923e-05)
(0 -0 -2.45782e-05)
(0 -0 -2.47014e-05)
(0 -0 -2.51133e-05)
(0 -0 -2.5731e-05)
(0 -0 -2.63523e-05)
(0 -0 -2.67505e-05)
(0 -0 -2.6797e-05)
(0 -0 -2.65243e-05)
(0 -0 -2.60859e-05)
(0 -0 -2.56528e-05)
(0 -0 -2.53313e-05)
(0 -0 -2.515e-05)
(0 -0 -2.50979e-05)
(0 -0 -2.51602e-05)
(0 -0 -2.53136e-05)
(0 -0 -2.55008e-05)
(0 -0 -2.56326e-05)
(0 -0 -2.56343e-05)
(0 -0 -2.54913e-05)
(0 -0 -2.52466e-05)
(0 -0 -2.49584e-05)
(0 -0 -2.46745e-05)
(0 -0 -2.44485e-05)
(0 -0 -2.43525e-05)
(0 -0 -2.44317e-05)
(0 -0 -2.46246e-05)
(0 -0 -2.4745e-05)
(0 -0 -2.45816e-05)
(0 -0 -2.40587e-05)
(0 -0 -2.33257e-05)
(0 -0 -2.26849e-05)
(0 -0 -2.24052e-05)
(0 -0 -2.25594e-05)
(0 -0 -2.29943e-05)
(0 -0 -2.34365e-05)
(0 -0 -2.36547e-05)
(0 -0 -2.35726e-05)
(0 -0 -2.32725e-05)
(0 -0 -2.29077e-05)
(0 -0 -2.26006e-05)
(0 -0 -2.23919e-05)
(0 -0 -2.2259e-05)
(0 -0 -2.21664e-05)
(0 -0 -2.20985e-05)
(0 -0 -2.20553e-05)
(0 -0 -2.20346e-05)
(0 -0 -2.20248e-05)
(0 -0 -2.20024e-05)
(0 -0 -2.19257e-05)
(0 -0 -2.17448e-05)
(0 -0 -2.14448e-05)
(0 -0 -2.10828e-05)
(0 -0 -2.07598e-05)
(0 -0 -2.05395e-05)
(0 -0 -2.04045e-05)
(0 -0 -2.02924e-05)
(0 -0 -2.01548e-05)
(0 -0 -1.99739e-05)
(0 -0 -1.97479e-05)
(0 -0 -1.9489e-05)
(0 -0 -1.92333e-05)
(0 -0 -1.9027e-05)
(0 -0 -1.88862e-05)
(0 -0 -1.87737e-05)
(0 -0 -1.86236e-05)
(0 -0 -1.83908e-05)
(0 -0 -1.80834e-05)
(0 -0 -1.77574e-05)
(0 -0 -1.74818e-05)
(0 -0 -1.73007e-05)
(0 -0 -1.72166e-05)
(0 -0 -1.71938e-05)
(0 -0 -1.71725e-05)
(0 -0 -1.70857e-05)
(0 -0 -1.6882e-05)
(0 -0 -1.65527e-05)
(0 -0 -1.6143e-05)
(0 -0 -1.573e-05)
(0 -0 -1.53789e-05)
(0 -0 -1.51102e-05)
(0 -0 -1.49028e-05)
(0 -0 -1.47183e-05)
(0 -0 -1.4521e-05)
(0 -0 -1.42854e-05)
(0 -0 -1.40002e-05)
(0 -0 -1.36733e-05)
(0 -0 -1.33313e-05)
(0 -0 -1.30081e-05)
(0 -0 -1.27262e-05)
(0 -0 -1.24839e-05)
(0 -0 -1.22599e-05)
(0 -0 -1.20286e-05)
(0 -0 -1.17736e-05)
(0 -0 -1.14917e-05)
(0 -0 -1.11909e-05)
(0 -0 -1.08834e-05)
(0 -0 -1.0574e-05)
(0 -0 -1.02552e-05)
(0 -0 -9.91508e-06)
(0 -0 -9.55331e-06)
(0 -0 -9.18831e-06)
(0 -0 -8.84833e-06)
(0 -0 -8.55232e-06)
(0 -0 -8.29793e-06)
(0 -0 -8.06702e-06)
(0 -0 -7.83991e-06)
(0 -0 -7.6032e-06)
(0 -0 -7.34977e-06)
(0 -0 -7.07911e-06)
(0 -0 -6.79936e-06)
(0 -0 -6.52447e-06)
(0 -0 -6.26504e-06)
(0 -0 -6.0192e-06)
(0 -0 -5.77102e-06)
(0 -0 -5.50008e-06)
(0 -0 -5.19783e-06)
(0 -0 -4.87754e-06)
(0 -0 -4.56619e-06)
(0 -0 -4.28269e-06)
(0 -0 -4.02305e-06)
(0 -0 -3.76644e-06)
(0 -0 -3.4941e-06)
(0 -0 -3.20171e-06)
(0 -0 -2.89627e-06)
(0 -0 -2.58612e-06)
(0 -0 -2.27589e-06)
(0 -0 -1.96771e-06)
(0 -0 -1.66139e-06)
(0 -0 -1.35307e-06)
(0 -0 -1.03852e-06)
(0 -0 -7.24009e-07)
(0 -0 -4.34935e-07)
(0 -0 -2.0919e-07)
(0 -0 -7.2724e-08)
(0 -0 -1.41557e-08)
(0 -0 -1.01889e-06)
(0 -0 -2.44333e-06)
(0 -0 -2.97496e-06)
(0 -0 -3.09774e-06)
(0 -0 -2.95323e-06)
(0 -0 -2.75072e-06)
(0 -0 -2.64295e-06)
(0 -0 -2.69687e-06)
(0 -0 -2.91298e-06)
(0 -0 -3.25378e-06)
(0 -0 -3.66557e-06)
(0 -0 -4.09466e-06)
(0 -0 -4.50119e-06)
(0 -0 -4.86775e-06)
(0 -0 -5.1991e-06)
(0 -0 -5.5134e-06)
(0 -0 -5.82817e-06)
(0 -0 -6.14988e-06)
(0 -0 -6.47352e-06)
(0 -0 -6.7927e-06)
(0 -0 -7.11173e-06)
(0 -0 -7.44719e-06)
(0 -0 -7.81692e-06)
(0 -0 -8.22523e-06)
(0 -0 -8.65522e-06)
(0 -0 -9.0747e-06)
(0 -0 -9.45254e-06)
(0 -0 -9.77437e-06)
(0 -0 -1.00489e-05)
(0 -0 -1.03025e-05)
(0 -0 -1.05656e-05)
(0 -0 -1.08594e-05)
(0 -0 -1.1185e-05)
(0 -0 -1.15216e-05)
(0 -0 -1.18368e-05)
(0 -0 -1.21075e-05)
(0 -0 -1.23382e-05)
(0 -0 -1.2562e-05)
(0 -0 -1.28235e-05)
(0 -0 -1.31532e-05)
(0 -0 -1.355e-05)
(0 -0 -1.3981e-05)
(0 -0 -1.44001e-05)
(0 -0 -1.47732e-05)
(0 -0 -1.50953e-05)
(0 -0 -1.53853e-05)
(0 -0 -1.56665e-05)
(0 -0 -1.59519e-05)
(0 -0 -1.62438e-05)
(0 -0 -1.65363e-05)
(0 -0 -1.68218e-05)
(0 -0 -1.71073e-05)
(0 -0 -1.74245e-05)
(0 -0 -1.78088e-05)
(0 -0 -1.82575e-05)
(0 -0 -1.87131e-05)
(0 -0 -1.90978e-05)
(0 -0 -1.93698e-05)
(0 -0 -1.95502e-05)
(0 -0 -1.97e-05)
(0 -0 -1.98785e-05)
(0 -0 -2.01234e-05)
(0 -0 -2.04585e-05)
(0 -0 -2.08947e-05)
(0 -0 -2.14053e-05)
(0 -0 -2.19098e-05)
(0 -0 -2.23071e-05)
(0 -0 -2.25396e-05)
(0 -0 -2.26283e-05)
(0 -0 -2.26513e-05)
(0 -0 -2.2691e-05)
(0 -0 -2.27919e-05)
(0 -0 -2.2951e-05)
(0 -0 -2.31479e-05)
(0 -0 -2.33913e-05)
(0 -0 -2.37255e-05)
(0 -0 -2.41715e-05)
(0 -0 -2.46646e-05)
(0 -0 -2.50696e-05)
(0 -0 -2.52733e-05)
(0 -0 -2.52639e-05)
(0 -0 -2.51257e-05)
(0 -0 -2.4977e-05)
(0 -0 -2.49239e-05)
(0 -0 -2.50469e-05)
(0 -0 -2.53862e-05)
(0 -0 -2.59112e-05)
(0 -0 -2.65091e-05)
(0 -0 -2.70244e-05)
(0 -0 -2.73345e-05)
(0 -0 -2.74144e-05)
(0 -0 -2.73465e-05)
(0 -0 -2.72699e-05)
(0 -0 -2.73e-05)
(0 -0 -2.74658e-05)
(0 -0 -2.77039e-05)
(0 -0 -2.79063e-05)
(0 -0 -2.79885e-05)
(0 -0 -2.79396e-05)
(0 -0 -2.78335e-05)
(0 -0 -2.77977e-05)
(0 -0 -2.79467e-05)
(0 -0 -2.83146e-05)
(0 -0 -2.88339e-05)
(0 -0 -2.93795e-05)
(0 -0 -2.98352e-05)
(0 -0 -3.01278e-05)
(0 -0 -3.02271e-05)
(0 -0 -3.01484e-05)
(0 -0 -2.99563e-05)
(0 -0 -2.97446e-05)
(0 -0 -2.95943e-05)
(0 -0 -2.95427e-05)
(0 -0 -2.95801e-05)
(0 -0 -2.96696e-05)
(0 -0 -2.97692e-05)
(0 -0 -2.98421e-05)
(0 -0 -2.98495e-05)
(0 -0 -2.97539e-05)
(0 -0 -2.95532e-05)
(0 -0 -2.93175e-05)
(0 -0 -2.91831e-05)
(0 -0 -2.92895e-05)
(0 -0 -2.96936e-05)
(0 -0 -3.03105e-05)
(0 -0 -3.09275e-05)
(0 -0 -3.13072e-05)
(0 -0 -3.13199e-05)
(0 -0 -3.10116e-05)
(0 -0 -3.05573e-05)
(0 -0 -3.01446e-05)
(0 -0 -2.98816e-05)
(0 -0 -2.97825e-05)
(0 -0 -2.98164e-05)
(0 -0 -2.99563e-05)
(0 -0 -3.01774e-05)
(0 -0 -3.042e-05)
(0 -0 -3.05839e-05)
(0 -0 -3.05814e-05)
(0 -0 -3.03974e-05)
(0 -0 -3.00899e-05)
(0 -0 -2.97348e-05)
(0 -0 -2.93888e-05)
(0 -0 -2.91144e-05)
(0 -0 -2.90045e-05)
(0 -0 -2.91288e-05)
(0 -0 -2.94245e-05)
(0 -0 -2.96575e-05)
(0 -0 -2.95396e-05)
(0 -0 -2.89377e-05)
(0 -0 -2.8007e-05)
(0 -0 -2.71215e-05)
(0 -0 -2.66446e-05)
(0 -0 -2.67114e-05)
(0 -0 -2.71686e-05)
(0 -0 -2.76932e-05)
(0 -0 -2.79944e-05)
(0 -0 -2.79605e-05)
(0 -0 -2.7668e-05)
(0 -0 -2.72809e-05)
(0 -0 -2.69331e-05)
(0 -0 -2.66721e-05)
(0 -0 -2.64779e-05)
(0 -0 -2.63193e-05)
(0 -0 -2.6192e-05)
(0 -0 -2.61132e-05)
(0 -0 -2.60934e-05)
(0 -0 -2.61199e-05)
(0 -0 -2.6151e-05)
(0 -0 -2.61164e-05)
(0 -0 -2.59434e-05)
(0 -0 -2.56194e-05)
(0 -0 -2.52347e-05)
(0 -0 -2.49282e-05)
(0 -0 -2.47715e-05)
(0 -0 -2.47155e-05)
(0 -0 -2.46498e-05)
(0 -0 -2.44946e-05)
(0 -0 -2.42311e-05)
(0 -0 -2.388e-05)
(0 -0 -2.34868e-05)
(0 -0 -2.31206e-05)
(0 -0 -2.28504e-05)
(0 -0 -2.26933e-05)
(0 -0 -2.25905e-05)
(0 -0 -2.24398e-05)
(0 -0 -2.21639e-05)
(0 -0 -2.17581e-05)
(0 -0 -2.12921e-05)
(0 -0 -2.08689e-05)
(0 -0 -2.05712e-05)
(0 -0 -2.04253e-05)
(0 -0 -2.03958e-05)
(0 -0 -2.03978e-05)
(0 -0 -2.03246e-05)
(0 -0 -2.00896e-05)
(0 -0 -1.96756e-05)
(0 -0 -1.91539e-05)
(0 -0 -1.86458e-05)
(0 -0 -1.82485e-05)
(0 -0 -1.79835e-05)
(0 -0 -1.7802e-05)
(0 -0 -1.76271e-05)
(0 -0 -1.73944e-05)
(0 -0 -1.70715e-05)
(0 -0 -1.66623e-05)
(0 -0 -1.62034e-05)
(0 -0 -1.57495e-05)
(0 -0 -1.53494e-05)
(0 -0 -1.502e-05)
(0 -0 -1.47396e-05)
(0 -0 -1.44695e-05)
(0 -0 -1.41849e-05)
(0 -0 -1.38854e-05)
(0 -0 -1.35808e-05)
(0 -0 -1.32755e-05)
(0 -0 -1.29642e-05)
(0 -0 -1.26343e-05)
(0 -0 -1.22705e-05)
(0 -0 -1.18645e-05)
(0 -0 -1.14256e-05)
(0 -0 -1.09819e-05)
(0 -0 -1.0567e-05)
(0 -0 -1.02015e-05)
(0 -0 -9.88332e-06)
(0 -0 -9.59531e-06)
(0 -0 -9.3191e-06)
(0 -0 -9.04088e-06)
(0 -0 -8.75079e-06)
(0 -0 -8.44491e-06)
(0 -0 -8.12935e-06)
(0 -0 -7.81775e-06)
(0 -0 -7.51995e-06)
(0 -0 -7.23096e-06)
(0 -0 -6.93055e-06)
(0 -0 -6.59667e-06)
(0 -0 -6.22446e-06)
(0 -0 -5.83453e-06)
(0 -0 -5.46006e-06)
(0 -0 -5.12128e-06)
(0 -0 -4.81123e-06)
(0 -0 -4.50557e-06)
(0 -0 -4.18429e-06)
(0 -0 -3.8431e-06)
(0 -0 -3.48783e-06)
(0 -0 -3.12416e-06)
(0 -0 -2.75525e-06)
(0 -0 -2.38452e-06)
(0 -0 -2.01413e-06)
(0 -0 -1.64057e-06)
(0 -0 -1.25812e-06)
(0 -0 -8.73707e-07)
(0 -0 -5.19211e-07)
(0 -0 -2.43158e-07)
(0 -0 -7.92065e-08)
(0 -0 -1.363e-08)
(0 -0 -1.02828e-06)
(0 -0 -2.52987e-06)
(0 -0 -3.21919e-06)
(0 -0 -3.47874e-06)
(0 -0 -3.44376e-06)
(0 -0 -3.31752e-06)
(0 -0 -3.25396e-06)
(0 -0 -3.32756e-06)
(0 -0 -3.54846e-06)
(0 -0 -3.88695e-06)
(0 -0 -4.29345e-06)
(0 -0 -4.7165e-06)
(0 -0 -5.11862e-06)
(0 -0 -5.48526e-06)
(0 -0 -5.82349e-06)
(0 -0 -6.15116e-06)
(0 -0 -6.4839e-06)
(0 -0 -6.82619e-06)
(0 -0 -7.17142e-06)
(0 -0 -7.51177e-06)
(0 -0 -7.84967e-06)
(0 -0 -8.20094e-06)
(0 -0 -8.5858e-06)
(0 -0 -9.01243e-06)
(0 -0 -9.4651e-06)
(0 -0 -9.9076e-06)
(0 -0 -1.0302e-05)
(0 -0 -1.06321e-05)
(0 -0 -1.09153e-05)
(0 -0 -1.11909e-05)
(0 -0 -1.14961e-05)
(0 -0 -1.18439e-05)
(0 -0 -1.22168e-05)
(0 -0 -1.25751e-05)
(0 -0 -1.28793e-05)
(0 -0 -1.31149e-05)
(0 -0 -1.33072e-05)
(0 -0 -1.35135e-05)
(0 -0 -1.37948e-05)
(0 -0 -1.41826e-05)
(0 -0 -1.46633e-05)
(0 -0 -1.51877e-05)
(0 -0 -1.56963e-05)
(0 -0 -1.61491e-05)
(0 -0 -1.65396e-05)
(0 -0 -1.68837e-05)
(0 -0 -1.71971e-05)
(0 -0 -1.74876e-05)
(0 -0 -1.77614e-05)
(0 -0 -1.80253e-05)
(0 -0 -1.8284e-05)
(0 -0 -1.85538e-05)
(0 -0 -1.88761e-05)
(0 -0 -1.92957e-05)
(0 -0 -1.9811e-05)
(0 -0 -2.03489e-05)
(0 -0 -2.08041e-05)
(0 -0 -2.11101e-05)
(0 -0 -2.12789e-05)
(0 -0 -2.13801e-05)
(0 -0 -2.14932e-05)
(0 -0 -2.16828e-05)
(0 -0 -2.19986e-05)
(0 -0 -2.24646e-05)
(0 -0 -2.30432e-05)
(0 -0 -2.36227e-05)
(0 -0 -2.4072e-05)
(0 -0 -2.43242e-05)
(0 -0 -2.44128e-05)
(0 -0 -2.4434e-05)
(0 -0 -2.44841e-05)
(0 -0 -2.46179e-05)
(0 -0 -2.48406e-05)
(0 -0 -2.51352e-05)
(0 -0 -2.55036e-05)
(0 -0 -2.59752e-05)
(0 -0 -2.65529e-05)
(0 -0 -2.71523e-05)
(0 -0 -2.76198e-05)
(0 -0 -2.7833e-05)
(0 -0 -2.77893e-05)
(0 -0 -2.76021e-05)
(0 -0 -2.7425e-05)
(0 -0 -2.73856e-05)
(0 -0 -2.75601e-05)
(0 -0 -2.79647e-05)
(0 -0 -2.85418e-05)
(0 -0 -2.91631e-05)
(0 -0 -2.96725e-05)
(0 -0 -2.99572e-05)
(0 -0 -3.00051e-05)
(0 -0 -2.99101e-05)
(0 -0 -2.98205e-05)
(0 -0 -2.98601e-05)
(0 -0 -3.00648e-05)
(0 -0 -3.0366e-05)
(0 -0 -3.06309e-05)
(0 -0 -3.0737e-05)
(0 -0 -3.06445e-05)
(0 -0 -3.04307e-05)
(0 -0 -3.02604e-05)
(0 -0 -3.02978e-05)
(0 -0 -3.06075e-05)
(0 -0 -3.11204e-05)
(0 -0 -3.16912e-05)
(0 -0 -3.21876e-05)
(0 -0 -3.25305e-05)
(0 -0 -3.26851e-05)
(0 -0 -3.2654e-05)
(0 -0 -3.24875e-05)
(0 -0 -3.22783e-05)
(0 -0 -3.2128e-05)
(0 -0 -3.21051e-05)
(0 -0 -3.22189e-05)
(0 -0 -3.24202e-05)
(0 -0 -3.26313e-05)
(0 -0 -3.27832e-05)
(0 -0 -3.28311e-05)
(0 -0 -3.27538e-05)
(0 -0 -3.2566e-05)
(0 -0 -3.23382e-05)
(0 -0 -3.21911e-05)
(0 -0 -3.22476e-05)
(0 -0 -3.25596e-05)
(0 -0 -3.30525e-05)
(0 -0 -3.35375e-05)
(0 -0 -3.38047e-05)
(0 -0 -3.37452e-05)
(0 -0 -3.34143e-05)
(0 -0 -3.29873e-05)
(0 -0 -3.26481e-05)
(0 -0 -3.24961e-05)
(0 -0 -3.2527e-05)
(0 -0 -3.26848e-05)
(0 -0 -3.29232e-05)
(0 -0 -3.32129e-05)
(0 -0 -3.35001e-05)
(0 -0 -3.36894e-05)
(0 -0 -3.36935e-05)
(0 -0 -3.34994e-05)
(0 -0 -3.31727e-05)
(0 -0 -3.27947e-05)
(0 -0 -3.24223e-05)
(0 -0 -3.21216e-05)
(0 -0 -3.20058e-05)
(0 -0 -3.21727e-05)
(0 -0 -3.25676e-05)
(0 -0 -3.29223e-05)
(0 -0 -3.28814e-05)
(0 -0 -3.22505e-05)
(0 -0 -3.11705e-05)
(0 -0 -3.00619e-05)
(0 -0 -2.93701e-05)
(0 -0 -2.93016e-05)
(0 -0 -2.97306e-05)
(0 -0 -3.03156e-05)
(0 -0 -3.07245e-05)
(0 -0 -3.08048e-05)
(0 -0 -3.06037e-05)
(0 -0 -3.0266e-05)
(0 -0 -2.99185e-05)
(0 -0 -2.96141e-05)
(0 -0 -2.93464e-05)
(0 -0 -2.91007e-05)
(0 -0 -2.88927e-05)
(0 -0 -2.87617e-05)
(0 -0 -2.8735e-05)
(0 -0 -2.87987e-05)
(0 -0 -2.88887e-05)
(0 -0 -2.8901e-05)
(0 -0 -2.87397e-05)
(0 -0 -2.84012e-05)
(0 -0 -2.80144e-05)
(0 -0 -2.77555e-05)
(0 -0 -2.76968e-05)
(0 -0 -2.77464e-05)
(0 -0 -2.77382e-05)
(0 -0 -2.75598e-05)
(0 -0 -2.72008e-05)
(0 -0 -2.67211e-05)
(0 -0 -2.62128e-05)
(0 -0 -2.57778e-05)
(0 -0 -2.54955e-05)
(0 -0 -2.53716e-05)