/*--------------------------------*- C++ -*----------------------------------*\
| =========                 |                                                 |
| \\      /  F ield         | OpenFOAM: The Open Source CFD Toolbox           |
|  \\    /   O peration     | Version:  v2012                                 |
|   \\  /    A nd           | Website:  www.openfoam.com                      |
|    \\/     M anipulation  |                                                 |
\*---------------------------------------------------------------------------*/
FoamFile
{
    version     2.0;
    format      ascii;
    class       volScalarField;
    location    "0";
    object      p;
}
// * * * * * * * * * * * * * * * * * * * * * * * * * * * * * * * * * * * * * //

dimensions      [0 2 -2 0 0 0 0];


internalField   nonuniform List<scalar> 
4000
(
9.57931e-14
8.88326e-14
8.30588e-14
8.95281e-14
9.16303e-14
9.7604e-14
9.62734e-14
9.03022e-14
7.04601e-14
6.0999e-14
6.98496e-14
7.31714e-14
6.6064e-14
6.50007e-14
6.02356e-14
5.77371e-14
4.42652e-14
4.9571e-14
4.36487e-14
3.93547e-14
3.31035e-14
2.62389e-14
2.64273e-14
2.60393e-14
1.7928e-14
1.50553e-14
1.60075e-14
1.23224e-14
9.89014e-15
7.9242e-15
6.396e-15
3.92371e-15
4.43304e-15
6.82145e-15
9.18994e-15
1.29646e-14
1.84125e-14
7.30172e-15
-6.0071e-15
-6.2106e-15
-9.30526e-16
6.1135e-15
5.08105e-15
-8.76815e-16
-8.24127e-15
-8.33565e-15
-2.2818e-15
2.20647e-16
-5.10029e-15
-5.38795e-15
4.16658e-15
3.05817e-15
7.27327e-15
7.22297e-16
-4.73593e-15
-1.25396e-15
-2.156e-15
7.50065e-15
8.59991e-15
1.3327e-14
1.52128e-14
2.3048e-14
3.06159e-14
2.11054e-14
1.62559e-14
1.71727e-14
1.80853e-14
2.28357e-14
1.93175e-14
2.38522e-14
2.23418e-14
2.3623e-14
2.1135e-14
2.52286e-14
3.24451e-14
3.33745e-14
3.78869e-14
3.68704e-14
3.88037e-14
3.61817e-14
3.40259e-14
3.90257e-14
3.85839e-14
2.96149e-14
3.75591e-14
4.60564e-14
4.06117e-14
3.02733e-14
3.3892e-14
3.43611e-14
2.88282e-14
2.69431e-14
3.04896e-14
2.05857e-14
1.83406e-14
1.29391e-14
7.22501e-15
2.35551e-15
3.6406e-15
3.87347e-15
9.18333e-14
9.17545e-14
8.77348e-14
8.89206e-14
9.43071e-14
9.36678e-14
9.30832e-14
8.44878e-14
7.75891e-14
7.06035e-14
6.48901e-14
7.00482e-14
6.39834e-14
6.40104e-14
6.18947e-14
5.52081e-14
4.87946e-14
4.58588e-14
3.96337e-14
4.18854e-14
3.72628e-14
2.70612e-14
2.48976e-14
2.37984e-14
1.81737e-14
1.19493e-14
1.85004e-14
1.30419e-14
1.18241e-14
8.46494e-15
3.32486e-15
5.97182e-15
4.06236e-15
9.51343e-15
7.69908e-15
1.24874e-14
1.42487e-14
5.33002e-15
-5.618e-15
-5.77792e-17
-6.66078e-16
5.77128e-15
4.40811e-15
-2.28606e-15
-3.55757e-15
-5.95599e-15
-7.66309e-15
-8.21483e-17
-5.61635e-15
-7.22968e-15
3.96817e-15
2.87884e-15
2.46136e-15
1.79345e-15
-3.89384e-15
-6.73549e-16
-2.31957e-15
7.63551e-15
1.34153e-14
1.3793e-14
1.6724e-14
1.72571e-14
2.70373e-14
2.69366e-14
1.95478e-14
1.97342e-14
1.70876e-14
1.73957e-14
2.4686e-14
1.96738e-14
1.84753e-14
2.84969e-14
3.08476e-14
2.57436e-14
2.90174e-14
2.76329e-14
3.58556e-14
3.92131e-14
3.59208e-14
3.57567e-14
3.66355e-14
3.78044e-14
3.88128e-14
3.52784e-14
3.82426e-14
4.05193e-14
3.54851e-14
3.17229e-14
3.00287e-14
3.54243e-14
3.12011e-14
2.74002e-14
3.2918e-14
2.23408e-14
1.8251e-14
1.41247e-14
9.0724e-15
3.34384e-15
3.75282e-15
4.31983e-15
9.17875e-14
9.08095e-14
9.04095e-14
9.09017e-14
9.27505e-14
9.14277e-14
8.95415e-14
8.38264e-14
7.76467e-14
7.04613e-14
7.01913e-14
7.25934e-14
6.99355e-14
6.36431e-14
5.58681e-14
5.47703e-14
4.88965e-14
5.08471e-14
4.11083e-14
4.19014e-14
4.05307e-14
3.15498e-14
2.54179e-14
2.62176e-14
2.00842e-14
1.11295e-14
1.82271e-14
1.17288e-14
6.8201e-15
4.46336e-15
3.83151e-15
4.60666e-15
3.86184e-15
7.61156e-15
9.96219e-15
1.45585e-14
1.2581e-14
1.22091e-14
-2.12969e-15
-2.8275e-15
2.20565e-16
-8.50915e-17
1.85831e-15
3.53076e-15
-1.57147e-15
-5.96925e-15
-6.26708e-15
-3.26791e-15
-2.77597e-15
-5.28249e-15
5.631e-15
5.74226e-17
2.06782e-15
2.4389e-15
-1.20168e-15
-3.72535e-17
-5.16451e-15
6.13616e-15
1.2046e-14
1.50749e-14
1.29717e-14
1.89134e-14
2.13815e-14
2.66283e-14
2.43412e-14
2.30777e-14
2.11716e-14
1.77526e-14
2.09954e-14
1.68367e-14
2.05833e-14
2.93526e-14
2.83032e-14
2.51186e-14
3.01282e-14
3.10339e-14
3.40935e-14
3.70489e-14
3.15634e-14
3.81359e-14
3.94905e-14
3.95821e-14
3.39764e-14
3.70188e-14
3.91117e-14
4.12312e-14
4.13802e-14
3.48353e-14
3.08993e-14
3.35281e-14
3.2627e-14
2.84057e-14
2.93132e-14
2.06216e-14
1.98654e-14
1.4513e-14
1.29781e-14
4.20697e-15
3.76191e-15
2.00676e-15
9.22731e-14
9.42855e-14
9.275e-14
8.56647e-14
9.26459e-14
8.60586e-14
9.01618e-14
8.34481e-14
8.21937e-14
7.59205e-14
7.00447e-14
6.84945e-14
6.68766e-14
6.52894e-14
6.52409e-14
5.75605e-14
4.80235e-14
4.90899e-14
4.212e-14
4.19132e-14
3.94785e-14
3.5229e-14
2.55115e-14
1.58314e-14
1.49186e-14
1.09964e-14
2.06543e-14
1.40731e-14
5.08226e-15
3.67251e-15
6.64648e-15
8.23742e-15
2.42096e-15
7.46564e-15
8.31651e-15
1.57025e-14
9.64726e-15
4.67711e-15
-1.4673e-15
1.59027e-16
2.05325e-15
4.6553e-15
-1.42459e-15
-8.983e-16
3.16748e-15
-5.11088e-15
-1.08574e-14
-3.41274e-15
-2.3698e-15
-5.13441e-15
-1.89491e-15
1.83517e-15
4.75571e-15
5.28372e-15
5.39657e-16
-1.3294e-16
-2.57762e-15
1.74783e-15
9.05118e-15
1.5813e-14
1.41313e-14
1.71989e-14
2.08925e-14
2.73655e-14
2.73212e-14
2.51362e-14
2.29288e-14
2.04422e-14
2.38674e-14
1.78557e-14
2.61335e-14
3.49942e-14
3.35576e-14
2.56218e-14
2.89299e-14
3.44917e-14
3.31593e-14
3.59475e-14
3.28585e-14
3.53257e-14
3.70557e-14
3.6092e-14
3.41508e-14
3.93694e-14
3.90661e-14
4.11237e-14
3.7779e-14
3.36171e-14
3.50672e-14
3.23173e-14
2.98573e-14
2.9226e-14
3.17599e-14
2.09314e-14
1.9036e-14
1.89877e-14
1.41543e-14
6.36934e-15
5.4645e-15
9.10198e-16
9.55367e-14
9.87457e-14
9.11583e-14
8.43983e-14
8.28987e-14
8.80152e-14
9.34982e-14
8.78101e-14
8.21285e-14
7.70734e-14
6.93334e-14
7.48166e-14
6.27674e-14
5.73464e-14
6.1151e-14
6.16442e-14
5.9551e-14
5.35858e-14
3.83853e-14
3.58339e-14
3.47771e-14
3.80756e-14
2.29281e-14
1.5087e-14
1.25222e-14
8.73021e-15
1.68411e-14
1.28061e-14
7.42403e-15
2.65108e-15
7.40831e-15
1.04242e-14
4.18965e-15
8.38949e-15
8.36623e-15
1.25524e-14
1.24175e-14
1.09321e-14
-9.57225e-16
-2.0018e-15
1.62943e-15
1.74603e-15
-3.72698e-15
-6.375e-16
2.82167e-15
6.68398e-16
-6.57136e-15
-3.23558e-15
-4.30808e-15
-5.73866e-15
1.36344e-15
3.19273e-15
4.54899e-15
4.74964e-15
2.44105e-15
1.71272e-15
-3.19579e-15
-1.42621e-15
7.67638e-15
1.38737e-14
1.68727e-14
1.95942e-14
1.63603e-14
2.23712e-14
2.67988e-14
2.53214e-14
2.7857e-14
3.12926e-14
2.43391e-14
2.08993e-14
2.1786e-14
3.04713e-14
3.12666e-14
2.7512e-14
2.58709e-14
2.82363e-14
3.40688e-14
3.47299e-14
3.59454e-14
4.11189e-14
3.9313e-14
3.7951e-14
3.29268e-14
3.60382e-14
3.6044e-14
3.86726e-14
3.70689e-14
3.49158e-14
3.65476e-14
3.11951e-14
3.00992e-14
3.05913e-14
2.93967e-14
2.72886e-14
2.0728e-14
1.90664e-14
1.02294e-14
7.61223e-15
6.29481e-15
-1.67617e-15
8.93135e-14
9.76558e-14
8.98516e-14
8.75854e-14
8.80608e-14
8.89787e-14
9.36703e-14
8.57868e-14
7.86941e-14
7.42139e-14
6.64985e-14
6.98433e-14
7.28717e-14
6.66712e-14
6.13502e-14
5.85487e-14
5.60234e-14
5.68666e-14
4.54914e-14
3.44529e-14
2.88592e-14
3.28166e-14
2.19382e-14
1.67232e-14
1.45181e-14
1.3201e-14
1.26356e-14
1.17648e-14
6.60824e-15
6.25008e-15
6.43225e-15
7.60533e-15
2.62403e-15
5.73669e-15
1.63719e-14
9.96724e-15
1.16984e-14
4.80201e-15
-1.33187e-16
1.14601e-17
5.61005e-15
2.78819e-15
-5.10599e-15
9.84681e-16
2.32915e-15
-2.29341e-15
-5.23519e-15
-5.23526e-15
-5.99399e-15
-2.5683e-15
3.17145e-15
3.49969e-15
3.08608e-15
-5.01663e-16
3.47333e-15
1.16732e-15
-9.78938e-17
5.47668e-15
7.25494e-15
1.02729e-14
1.68017e-14
1.44263e-14
1.82704e-14
1.85842e-14
1.94917e-14
2.33654e-14
2.91843e-14
3.37796e-14
2.80088e-14
2.53159e-14
2.73089e-14
2.76784e-14
3.31294e-14
3.1933e-14
3.1545e-14
3.27416e-14
3.41268e-14
3.34139e-14
3.51313e-14
4.00507e-14
3.88139e-14
3.63666e-14
3.29826e-14
3.07667e-14
3.47578e-14
4.00844e-14
3.97607e-14
3.34467e-14
3.15254e-14
2.83615e-14
3.0289e-14
3.26017e-14
2.52122e-14
2.5294e-14
2.02406e-14
1.91861e-14
1.28635e-14
5.81094e-15
2.78569e-15
-2.66645e-15
9.40433e-14
9.59184e-14
8.69745e-14
8.75464e-14
8.74732e-14
9.37407e-14
8.85434e-14
8.47654e-14
7.85704e-14
7.55608e-14
6.84673e-14
6.55932e-14
7.19453e-14
6.46578e-14
5.6856e-14
6.13706e-14
6.08202e-14
6.20982e-14
5.01738e-14
2.80985e-14
2.13503e-14
2.36962e-14
1.9364e-14
2.1198e-14
1.732e-14
1.2376e-14
1.41469e-14
1.42209e-14
8.54252e-15
4.95677e-15
5.75446e-15
4.3862e-15
2.22989e-15
3.66941e-16
7.91169e-15
1.06833e-14
1.40319e-14
8.1353e-15
4.12372e-15
-4.27383e-15
-1.89426e-15
-6.20101e-15
-1.65636e-15
1.49063e-15
7.14439e-15
5.42364e-15
-4.94845e-15
-1.2962e-14
-4.69713e-15
-6.72982e-16
1.81921e-15
1.52576e-15
1.03237e-15
3.77997e-15
4.99262e-15
1.98147e-15
-2.2929e-15
1.57511e-15
6.22742e-15
1.01052e-14
2.41413e-14
2.12109e-14
1.64095e-14
8.80315e-15
1.23261e-14
2.38476e-14
2.9261e-14
3.21575e-14
3.33314e-14
3.04907e-14
3.02244e-14
3.19378e-14
3.81046e-14
3.8182e-14
2.93197e-14
3.36039e-14
3.2811e-14
3.2165e-14
3.37194e-14
3.4393e-14
3.40237e-14
3.43344e-14
3.30406e-14
3.52526e-14
4.10341e-14
3.68682e-14
3.80497e-14
3.42765e-14
2.84607e-14
2.89902e-14
3.44767e-14
2.80629e-14
2.55244e-14
2.51301e-14
1.86473e-14
1.55219e-14
1.11634e-14
5.78169e-15
2.84914e-15
2.10615e-15
9.00112e-14
9.09955e-14
8.56107e-14
9.14069e-14
9.02146e-14
9.20126e-14
8.6408e-14
8.67372e-14
7.85955e-14
7.34291e-14
6.81653e-14
6.66127e-14
6.8166e-14
6.19402e-14
6.26428e-14
5.80363e-14
5.69023e-14
6.02514e-14
3.9949e-14
2.95036e-14
3.2113e-14
3.55902e-14
2.60124e-14
1.62906e-14
1.28886e-14
1.13294e-14
1.28926e-14
1.33039e-14
5.4492e-16
2.60757e-15
4.08873e-15
8.04076e-15
7.00793e-15
9.11147e-15
6.91525e-15
1.23771e-14
9.92735e-15
4.051e-15
-1.523e-15
2.83164e-17
-1.40506e-15
-6.09329e-15
-7.08863e-16
2.89167e-15
7.17912e-15
2.82853e-15
-7.17782e-15
-1.25085e-14
-1.6288e-15
2.04454e-15
2.79617e-15
9.16204e-16
2.62991e-15
1.07735e-14
2.95078e-15
-2.95809e-15
1.3948e-15
5.21599e-15
7.38512e-15
8.77497e-15
1.75084e-14
1.75487e-14
1.67075e-14
1.31331e-14
1.74807e-14
2.43144e-14
2.96916e-14
3.38732e-14
3.55768e-14
3.32083e-14
3.1836e-14
3.63425e-14
3.65581e-14
3.62154e-14
3.08207e-14
3.13814e-14
3.69621e-14
3.35551e-14
3.83247e-14
3.47333e-14
3.42499e-14
3.45543e-14
2.77235e-14
3.0996e-14
3.51924e-14
3.22187e-14
3.55306e-14
3.5684e-14
3.02751e-14
3.09641e-14
3.25955e-14
2.63019e-14
2.50629e-14
2.52449e-14
1.58889e-14
1.30501e-14
1.17493e-14
5.45585e-15
6.03803e-15
4.88326e-15
9.31872e-14
9.43901e-14
8.58238e-14
7.89133e-14
8.60291e-14
8.98769e-14
9.12932e-14
8.41858e-14
7.71019e-14
7.37918e-14
6.86229e-14
6.70654e-14
6.15282e-14
5.91234e-14
5.7677e-14
6.00362e-14
5.86756e-14
6.05449e-14
4.96616e-14
2.92071e-14
3.33558e-14
2.84894e-14
2.38288e-14
2.94609e-14
1.97407e-14
1.12391e-14
1.00063e-14
7.30799e-15
3.60084e-15
1.76263e-15
5.63048e-15
9.65729e-15
7.79654e-15
8.27508e-15
8.17294e-15
8.84483e-15
7.70631e-15
8.07171e-15
-2.654e-15
-1.50296e-15
-1.29105e-15
4.31598e-16
2.439e-15
-9.87842e-16
-3.15968e-15
-1.90649e-16
2.56092e-15
-5.06661e-15
-1.93292e-15
1.05285e-15
2.39953e-15
4.98218e-15
1.57606e-15
9.33951e-15
7.9544e-15
-1.37529e-15
2.59364e-15
1.00722e-14
1.17643e-14
1.07119e-14
1.56336e-14
1.13331e-14
1.41454e-14
1.20478e-14
1.85913e-14
2.19233e-14
2.88821e-14
3.53636e-14
3.50416e-14
3.38482e-14
3.31234e-14
3.58834e-14
4.05215e-14
3.95849e-14
3.3782e-14
3.55761e-14
3.96758e-14
3.92743e-14
4.24467e-14
3.39861e-14
3.57597e-14
3.2133e-14
2.78144e-14
3.30288e-14
3.95928e-14
3.63447e-14
3.39741e-14
3.05193e-14
3.10949e-14
3.16523e-14
2.91196e-14
2.76204e-14
2.26381e-14
2.34267e-14
1.72629e-14
1.64855e-14
1.53574e-14
1.94447e-15
-1.03616e-15
-3.16377e-15
9.18382e-14
8.90845e-14
8.31516e-14
8.33969e-14
8.11772e-14
8.4248e-14
8.83132e-14
8.55052e-14
8.23453e-14
7.30474e-14
6.67559e-14
5.91532e-14
5.99276e-14
6.22313e-14
6.42643e-14
6.24552e-14
6.33715e-14
5.1577e-14
4.25378e-14
3.71847e-14
3.71754e-14
2.57564e-14
2.11986e-14
2.12673e-14
2.10293e-14
1.7963e-14
1.09625e-14
1.29025e-14
3.86827e-15
4.94042e-15
4.66705e-15
1.30944e-14
9.63981e-15
5.30907e-15
8.0361e-15
9.0869e-15
8.32662e-15
5.48756e-15
-1.05264e-15
-5.93729e-16
-4.57033e-15
-1.08542e-14
-3.79736e-15
-2.05567e-15
1.986e-15
2.55892e-15
4.72164e-15
1.56762e-15
2.31145e-15
2.42426e-15
1.31129e-15
8.3644e-15
5.28757e-15
6.12182e-15
1.01775e-14
1.56198e-15
4.76494e-15
6.53989e-15
8.18224e-15
1.54551e-14
1.95555e-14
1.59083e-14
1.60944e-14
1.57276e-14
1.96664e-14
2.09919e-14
2.47443e-14
2.59706e-14
3.12578e-14
3.51987e-14
3.81503e-14
4.35049e-14
4.64926e-14
4.26093e-14
3.65066e-14
3.25705e-14
3.73468e-14
3.49549e-14
4.72147e-14
4.01714e-14
4.26998e-14
3.20954e-14
2.71312e-14
3.53421e-14
3.89231e-14
3.47237e-14
3.21167e-14
3.06974e-14
3.00982e-14
2.92581e-14
2.98924e-14
2.10489e-14
2.28611e-14
2.18253e-14
1.73495e-14
1.15647e-14
9.86765e-15
1.85433e-15
1.03598e-15
-3.10415e-16
8.81139e-14
8.47787e-14
8.26854e-14
8.76543e-14
8.75913e-14
8.38084e-14
8.06213e-14
7.84555e-14
7.4323e-14
7.22759e-14
6.42602e-14
5.9536e-14
6.0384e-14
6.47744e-14
6.93554e-14
6.23038e-14
5.45999e-14
5.19434e-14
4.52052e-14
3.92023e-14
4.52424e-14
3.39309e-14
2.18454e-14
1.76265e-14
1.65563e-14
1.31043e-14
1.38387e-14
1.13546e-14
6.2958e-15
9.51131e-15
4.68726e-15
1.15384e-14
8.6435e-15
7.58774e-15
9.098e-15
9.45461e-15
6.97619e-15
6.69401e-15
2.42581e-15
-2.12437e-15
-5.89682e-15
-8.74975e-15
-3.05e-16
2.7308e-15
2.20626e-15
1.56114e-15
1.93059e-17
1.78067e-15
2.94428e-15
3.36513e-15
5.25108e-15
1.08033e-14
3.71628e-15
1.00375e-14
2.42436e-15
7.01362e-15
1.27042e-14
7.62338e-15
9.79053e-15
1.46389e-14
1.90002e-14
1.4043e-14
1.81115e-14
1.82464e-14
1.90048e-14
2.27797e-14
1.94981e-14
2.35908e-14
2.8668e-14
3.84145e-14
4.23158e-14
4.68389e-14
4.36591e-14
4.17414e-14
3.68862e-14
3.43011e-14
4.20827e-14
4.87425e-14
4.92168e-14
4.30237e-14
4.03463e-14
3.86882e-14
3.05856e-14
3.40067e-14
3.38141e-14
2.89216e-14
3.25431e-14
3.77241e-14
2.94189e-14
2.75429e-14
2.67997e-14
2.36453e-14
2.39162e-14
2.14315e-14
2.14359e-14
1.80716e-14
7.58563e-15
-4.31409e-15
-8.17059e-15
-2.39341e-15
9.00734e-14
8.52283e-14
8.33044e-14
8.88908e-14
8.72273e-14
8.00195e-14
8.17645e-14
7.95164e-14
6.68522e-14
6.92537e-14
6.94299e-14
6.45454e-14
5.74852e-14
6.00868e-14
6.69443e-14
5.52066e-14
5.70288e-14
5.46874e-14
5.30649e-14
4.94967e-14
4.43206e-14
3.25626e-14
2.66942e-14
1.89566e-14
1.63217e-14
7.22629e-15
1.10986e-14
1.23865e-14
1.20558e-14
1.37253e-14
4.06801e-15
1.45587e-14
1.00235e-14
8.53013e-15
8.45809e-15
1.44316e-15
4.43294e-15
7.22855e-15
6.1017e-15
-5.18518e-15
-1.18633e-15
-1.19864e-14
-1.20253e-15
5.4073e-15
3.9257e-15
3.1117e-15
4.07917e-15
7.25089e-15
4.55464e-15
3.23083e-15
3.26177e-15
8.13871e-15
9.87929e-15
1.54186e-14
1.1078e-14
8.38367e-15
5.97675e-15
1.10457e-14
1.37214e-14
1.42678e-14
1.84495e-14
2.42867e-14
2.26351e-14
2.3396e-14
2.23911e-14
2.25121e-14
1.99626e-14
2.61226e-14
2.66436e-14
3.2418e-14
3.30573e-14
4.60268e-14
5.64441e-14
5.2374e-14
3.37849e-14
2.74779e-14
3.99292e-14
5.08437e-14
4.76577e-14
4.39583e-14
4.02886e-14
3.45545e-14
3.4729e-14
4.00728e-14
3.60307e-14
2.91745e-14
3.39202e-14
3.39353e-14
2.50114e-14
2.3018e-14
2.60668e-14
2.54424e-14
2.29124e-14
2.33514e-14
1.53271e-14
1.27229e-14
6.73169e-15
1.03791e-15
-3.12858e-15
-5.68351e-17
8.69227e-14
8.42366e-14
8.03713e-14
8.91875e-14
8.80619e-14
8.61404e-14
7.72352e-14
6.82198e-14
6.81604e-14
6.68764e-14
6.72674e-14
6.07272e-14
5.67199e-14
6.08431e-14
6.7211e-14
6.51811e-14
6.28446e-14
5.58192e-14
4.87359e-14
4.92596e-14
3.68876e-14
3.03962e-14
2.50412e-14
2.15969e-14
1.8367e-14
2.08989e-14
9.23237e-15
7.30812e-15
1.27381e-14
1.58613e-14
1.4718e-14
1.46991e-14
1.12226e-14
8.42652e-15
1.41827e-14
9.39275e-15
2.27409e-15
-2.03613e-15
1.55173e-15
-3.35898e-15
-3.36e-15
-2.15136e-16
2.84907e-15
1.07971e-14
4.11943e-15
8.23828e-16
1.56917e-15
1.32065e-15
3.55036e-16
1.22742e-14
1.17807e-14
1.18787e-14
1.21669e-14
1.09917e-14
1.36681e-14
1.73503e-14
1.19784e-14
9.14621e-15
7.49601e-15
8.68807e-15
1.0521e-14
2.28966e-14
2.65157e-14
2.70193e-14
2.53897e-14
3.00078e-14
2.31882e-14
2.56099e-14
2.66076e-14
2.87908e-14
3.74554e-14
5.30974e-14
5.72537e-14
5.09331e-14
3.78961e-14
3.58878e-14
3.85536e-14
4.742e-14
4.93051e-14
4.64121e-14
4.02628e-14
3.51289e-14
3.994e-14
3.71047e-14
3.73994e-14
2.8526e-14
3.27517e-14
3.13737e-14
2.36336e-14
2.5453e-14
2.87176e-14
2.60205e-14
2.28143e-14
1.70444e-14
1.55846e-14
1.5572e-14
8.08674e-15
-1.13554e-15
2.19171e-16
1.76404e-17
8.52315e-14
9.05046e-14
8.8399e-14
8.35871e-14
8.63001e-14
8.37079e-14
7.37576e-14
7.21993e-14
7.16914e-14
6.45241e-14
6.58243e-14
6.38875e-14
5.59609e-14
6.22779e-14
6.61551e-14
5.7567e-14
5.22278e-14
4.96972e-14
4.98547e-14
4.99743e-14
5.03207e-14
4.9595e-14
3.5786e-14
2.34247e-14
1.22389e-14
1.02947e-14
1.12498e-14
1.45866e-14
1.50787e-14
2.08582e-14
1.62624e-14
1.33229e-14
1.11069e-14
2.28793e-15
4.8455e-15
8.95604e-15
4.1089e-15
8.93533e-15
-7.63041e-16
-6.90997e-15
-1.35733e-15
3.18689e-15
5.11248e-15
6.12075e-15
5.08611e-16
3.14875e-15
-1.3564e-15
5.60052e-15
1.04931e-14
8.71076e-15
7.29888e-15
1.45427e-14
1.2518e-14
1.84592e-14
1.62343e-14
1.26482e-14
1.61212e-14
2.02056e-14
2.02806e-14
1.70145e-14
1.43771e-14
2.17075e-14
2.10202e-14
2.32126e-14
2.41435e-14
3.01719e-14
3.08235e-14
3.0049e-14
3.24489e-14
3.65146e-14
4.08279e-14
3.70834e-14
4.69813e-14
5.16138e-14
4.27385e-14
3.78406e-14
4.09703e-14
4.23039e-14
4.99922e-14
4.71329e-14
4.3046e-14
4.14084e-14
3.71162e-14
3.60751e-14
3.50205e-14
2.9945e-14
3.39209e-14
2.57814e-14
2.75084e-14
2.65665e-14
2.48071e-14
2.37606e-14
2.72463e-14
1.82435e-14
1.14592e-14
1.13406e-14
8.35766e-15
2.0928e-15
2.92423e-15
1.71403e-18
8.45465e-14
8.66918e-14
8.79454e-14
8.44343e-14
8.59189e-14
8.5031e-14
7.66268e-14
6.6549e-14
6.60181e-14
6.56158e-14
7.0617e-14
6.66059e-14
6.22077e-14
6.10496e-14
6.1099e-14
5.95817e-14
5.92902e-14
6.23071e-14
5.72951e-14
4.92548e-14
3.70008e-14
3.28251e-14
2.90101e-14
2.02546e-14
1.85365e-14
1.63831e-14
1.52644e-14
1.85864e-14
1.72786e-14
2.40893e-14
2.16464e-14
1.91227e-14
1.23966e-14
1.83145e-15
2.57435e-15
5.82518e-15
9.58093e-15
1.05168e-14
2.56493e-15
1.50813e-15
-5.98116e-15
-6.94757e-16
1.65207e-15
7.46483e-15
2.04147e-15
3.93781e-15
2.96903e-15
2.50326e-15
6.15691e-15
2.23904e-14
2.18194e-14
7.60735e-15
6.28927e-15
1.33191e-14
1.79787e-14
2.06648e-14
1.51534e-14
1.77371e-14
1.59444e-14
1.66342e-14
1.83974e-14
2.26918e-14
2.39711e-14
2.73947e-14
2.438e-14
2.76372e-14
2.97413e-14
3.31045e-14
3.85548e-14
3.46233e-14
3.76744e-14
3.71615e-14
5.10266e-14
5.26211e-14
4.27116e-14
3.64629e-14
3.90896e-14
4.2108e-14
5.49628e-14
4.69444e-14
4.66913e-14
4.49557e-14
3.76149e-14
3.32644e-14
3.35113e-14
3.079e-14
3.28291e-14
2.52099e-14
2.99265e-14
2.56667e-14
2.47075e-14
2.53436e-14
2.59164e-14
1.49173e-14
1.39125e-14
1.13481e-14
6.29623e-15
1.56892e-15
3.54414e-15
2.26935e-15
8.65673e-14
9.03117e-14
8.91227e-14
8.54818e-14
8.60689e-14
8.78229e-14
8.17666e-14
7.31856e-14
6.27785e-14
6.57597e-14
6.86775e-14
6.26365e-14
6.57417e-14
6.2835e-14
6.25851e-14
5.93754e-14
5.48597e-14
5.86622e-14
4.80578e-14
3.96721e-14
4.69993e-14
4.6954e-14
4.01841e-14
3.12523e-14
2.27049e-14
1.14493e-14
1.08065e-14
1.87616e-14
1.93151e-14
2.32054e-14
1.48588e-14
1.2327e-14
9.02121e-15
6.28418e-15
2.49795e-15
9.15965e-15
1.21832e-14
7.49654e-15
1.06617e-15
7.50087e-17
-4.56174e-15
-2.03547e-15
2.6542e-15
6.36224e-15
-1.59989e-15
-1.59351e-15
8.46441e-15
1.10639e-14
8.31962e-15
6.93911e-15
1.22648e-14
5.01573e-15
1.30395e-14
1.28459e-14
2.11319e-14
2.64619e-14
1.58402e-14
2.33303e-14
2.49571e-14
2.02699e-14
1.56518e-14
2.18538e-14
1.95773e-14
2.62046e-14
2.30064e-14
3.18282e-14
3.06936e-14
3.52892e-14
3.84677e-14
3.72646e-14
4.66132e-14
4.57408e-14
5.09377e-14
4.49087e-14
4.06703e-14
3.73587e-14
3.87879e-14
4.06891e-14
5.16774e-14
4.89847e-14
4.92693e-14
4.51229e-14
3.80321e-14
3.29522e-14
3.37911e-14
3.09618e-14
3.07249e-14
2.80826e-14
3.48068e-14
2.74692e-14
2.66565e-14
2.02435e-14
2.13906e-14
1.96914e-14
1.67138e-14
1.53747e-14
8.90894e-15
7.56154e-16
7.58556e-16
2.42908e-15
9.04249e-14
8.68673e-14
8.53857e-14
7.76218e-14
7.85362e-14
8.06885e-14
7.56573e-14
8.00583e-14
7.70367e-14
7.33274e-14
7.44113e-14
6.28585e-14
6.22308e-14
6.27827e-14
6.26121e-14
5.96671e-14
5.4152e-14
5.47726e-14
6.3685e-14
5.2821e-14
4.16066e-14
2.97676e-14
2.06448e-14
2.87995e-14
2.94923e-14
2.19201e-14
2.10799e-14
1.71142e-14
2.14142e-14
2.2674e-14
1.42095e-14
1.17116e-14
9.8473e-15
1.14144e-14
4.46808e-15
6.65144e-15
1.27434e-14
-7.84577e-16
-2.42041e-15
-2.73527e-15
-1.28468e-15
-8.34828e-15
-3.09897e-15
5.11966e-16
-1.81237e-15
7.0792e-15
5.63389e-15
1.37908e-14
1.44645e-14
1.0435e-14
4.83816e-15
2.53546e-15
1.52533e-14
1.7585e-14
2.0064e-14
2.27019e-14
1.66161e-14
1.71248e-14
2.47769e-14
2.64039e-14
1.97146e-14
2.37353e-14
2.18004e-14
2.35869e-14
2.89528e-14
3.37139e-14
3.06919e-14
3.42622e-14
3.9346e-14
4.11183e-14
3.81788e-14
4.80128e-14
5.15766e-14
4.73772e-14
4.34788e-14
3.68677e-14
4.03964e-14
4.35068e-14
4.82624e-14
5.25528e-14
5.1531e-14
4.22376e-14
3.65482e-14
3.32677e-14
3.52336e-14
3.7082e-14
3.6799e-14
3.33736e-14
3.19974e-14
3.31531e-14
3.06444e-14
2.15808e-14
2.07838e-14
2.08531e-14
1.23183e-14
1.54329e-14
1.04202e-14
2.29309e-15
-2.83374e-15
2.25359e-15
9.2344e-14
9.00462e-14
8.48206e-14
7.65988e-14
8.76329e-14
9.01323e-14
7.52677e-14
7.57661e-14
7.36624e-14
7.49761e-14
7.35114e-14
7.15153e-14
5.96072e-14
5.86703e-14
6.26288e-14
6.13645e-14
5.74536e-14
6.07154e-14
5.77927e-14
4.61632e-14
4.35384e-14
3.36596e-14
2.5668e-14
2.72396e-14
3.29299e-14
2.46429e-14
1.80825e-14
1.96171e-14
2.7449e-14
2.49026e-14
2.00517e-14
1.37865e-14
6.32463e-15
1.0887e-14
5.21752e-15
2.07378e-15
-1.4622e-15
1.92355e-15
5.86602e-15
2.00448e-15
-1.48601e-15
-4.38005e-15
-2.3844e-16
-4.7878e-15
-5.02188e-15
2.59484e-15
9.63353e-15
8.67422e-15
7.1823e-15
7.03843e-15
2.52591e-15
7.25475e-15
1.92519e-14
2.12086e-14
2.39925e-14
2.38806e-14
1.89384e-14
1.25634e-14
1.938e-14
2.28535e-14
2.04261e-14
2.42972e-14
2.57986e-14
2.40747e-14
2.74246e-14
3.04415e-14
3.36863e-14
4.22429e-14
4.02996e-14
3.82606e-14
4.16129e-14
4.88884e-14
5.02077e-14
4.58607e-14
3.91186e-14
3.63992e-14
4.09465e-14
4.32771e-14
5.36613e-14
5.88128e-14
5.28219e-14
4.13075e-14
3.82378e-14
3.36924e-14
3.35522e-14
3.71987e-14
3.54434e-14
3.68093e-14
3.82694e-14
3.97984e-14
3.29508e-14
2.27372e-14
1.85914e-14
1.86778e-14
1.95523e-14
2.29955e-14
6.77362e-15
-5.56697e-16
-8.96414e-16
-4.60092e-16
8.77688e-14
9.01176e-14
8.7979e-14
8.20158e-14
8.44514e-14
8.22447e-14
7.63295e-14
7.86655e-14
7.68653e-14
7.93274e-14
7.42625e-14
7.14232e-14
6.75869e-14
5.64237e-14
5.86841e-14
6.1465e-14
5.48931e-14
5.53155e-14
5.35088e-14
4.98694e-14
4.82029e-14
3.38132e-14
3.24501e-14
3.19312e-14
2.77963e-14
2.51167e-14
2.39311e-14
2.44314e-14
3.02401e-14
2.30606e-14
1.85008e-14
1.81441e-14
1.20068e-14
6.7382e-15
-1.7652e-15
4.63358e-15
1.45653e-15
7.18741e-16
5.09452e-15
1.27244e-16
-6.93324e-15
-8.61697e-15
-2.63973e-15
-7.30665e-15
-6.50794e-15
-1.48711e-15
1.12181e-14
2.63146e-14
1.53887e-14
2.28788e-15
1.93489e-15
1.3389e-14
1.76484e-14
1.67871e-14
1.76679e-14
2.49368e-14
2.09249e-14
1.32013e-14
1.82041e-14
2.00716e-14
2.73212e-14
2.80582e-14
2.4743e-14
2.58883e-14
2.44609e-14
2.91062e-14
3.43415e-14
4.00899e-14
3.81148e-14
3.57271e-14
4.27937e-14
4.86252e-14
5.0787e-14
4.38269e-14
3.97495e-14
3.92311e-14
4.38326e-14
4.50016e-14
5.21205e-14
5.27682e-14
5.56976e-14
4.93693e-14
4.3828e-14
3.668e-14
3.35348e-14
2.95463e-14
3.25628e-14
3.83183e-14
3.95764e-14
3.77814e-14
3.794e-14
2.79226e-14
1.87993e-14
1.66482e-14
2.19573e-14
1.68914e-14
8.48933e-15
-4.24125e-17
-1.1484e-15
4.35041e-16
9.35318e-14
8.9671e-14
8.65344e-14
7.96112e-14
8.02949e-14
8.34191e-14
7.97144e-14
8.13119e-14
7.57734e-14
7.90903e-14
7.44727e-14
7.25906e-14
7.20433e-14
6.56757e-14
5.6955e-14
5.70378e-14
5.08178e-14
4.62429e-14
5.09515e-14
5.10829e-14
5.20923e-14
4.07702e-14
3.16979e-14
3.00104e-14
3.08375e-14
3.20457e-14
2.96848e-14
2.7303e-14
3.22715e-14
3.30977e-14
1.83752e-14
1.44098e-14
7.27035e-15
9.10108e-16
-5.72327e-15
2.62795e-15
6.74624e-15
1.74707e-15
3.43189e-15
1.21107e-15
-2.41314e-15
-1.34844e-14
-7.80887e-15
-2.8942e-15
-1.75956e-15
9.13459e-15
9.79238e-15
1.06255e-14
5.18828e-15
8.91179e-15
1.38333e-14
9.7283e-15
8.21705e-15
1.80288e-14
1.86854e-14
2.3841e-14
2.19579e-14
1.75854e-14
1.89081e-14
2.32333e-14
2.48939e-14
2.94956e-14
2.52807e-14
1.90112e-14
2.54719e-14
3.06823e-14
3.43395e-14
3.67213e-14
3.72931e-14
3.60614e-14
4.8382e-14
5.32712e-14
5.28703e-14
4.00067e-14
3.51228e-14
4.23554e-14
4.68688e-14
4.86172e-14
5.19314e-14
5.58719e-14
5.36915e-14
4.33555e-14
3.90038e-14
4.16687e-14
3.96535e-14
3.25273e-14
3.12559e-14
3.29773e-14
4.32601e-14
3.6602e-14
3.90728e-14
2.69912e-14
2.43458e-14
2.34144e-14
1.53876e-14
1.45992e-14
8.56947e-15
8.83971e-16
-3.18735e-15
-5.07784e-15
9.36497e-14
8.95973e-14
8.4535e-14
8.21524e-14
8.12429e-14
8.39026e-14
8.22278e-14
8.37411e-14
7.83701e-14
7.8053e-14
7.69077e-14
7.5082e-14
7.5674e-14
6.66202e-14
6.25995e-14
6.09039e-14
5.00171e-14
4.5485e-14
5.09045e-14
5.03179e-14
4.65906e-14
4.29373e-14
3.23038e-14
3.04432e-14
3.17584e-14
3.47436e-14
3.6952e-14
3.57455e-14
3.22503e-14
2.69853e-14
1.78781e-14
1.86797e-14
9.36106e-15
8.41617e-15
-2.27399e-15
-6.22504e-16
1.95063e-15
-8.96193e-17
3.08697e-15
-1.1523e-15
-4.05128e-15
-5.41485e-15
-2.68244e-15
-3.365e-15
8.71316e-16
6.24553e-15
3.96377e-15
1.33876e-14
1.37249e-14
1.15556e-14
1.00339e-14
4.3954e-15
5.42254e-15
1.89362e-14
1.85713e-14
2.08057e-14
2.46561e-14
2.25819e-14
2.34088e-14
2.12914e-14
1.47629e-14
2.50968e-14
2.62576e-14
2.44179e-14
2.33933e-14
2.07585e-14
3.20982e-14
4.11916e-14
3.47032e-14
4.18827e-14
4.90848e-14
5.24243e-14
4.03408e-14
3.62644e-14
3.62833e-14
4.14356e-14
4.76237e-14
5.8508e-14
5.3563e-14
5.30558e-14
5.32974e-14
4.21775e-14
3.95413e-14
4.25512e-14
3.99744e-14
2.48028e-14
3.25306e-14
2.83492e-14
3.5963e-14
4.1109e-14
4.4051e-14
3.20796e-14
2.22421e-14
1.86667e-14
1.53285e-14
1.36553e-14
5.65144e-15
5.55937e-15
-2.10179e-15
2.23807e-15
9.59695e-14
8.92833e-14
8.84835e-14
8.58753e-14
8.52607e-14
8.4834e-14
7.51363e-14
8.11307e-14
8.03629e-14
8.00528e-14
8.18561e-14
7.90795e-14
7.85261e-14
7.29097e-14
5.73788e-14
5.10447e-14
4.85958e-14
4.73518e-14
4.94133e-14
4.96534e-14
4.31039e-14
4.41034e-14
3.56661e-14
3.55744e-14
3.6114e-14
3.12309e-14
3.31051e-14
3.4383e-14
3.67179e-14
3.38127e-14
2.36079e-14
2.32619e-14
2.18486e-14
9.13723e-15
-5.41139e-15
-7.57518e-15
-4.72362e-15
7.7992e-16
3.55345e-15
1.18116e-15
-3.66445e-15
-7.11181e-16
-1.34238e-15
-9.02996e-15
-4.14252e-16
9.01466e-15
1.27313e-14
1.53493e-14
1.12508e-14
5.04118e-15
6.49441e-15
1.07274e-14
7.51304e-15
1.00304e-14
1.00454e-14
2.00135e-14
2.23464e-14
2.39627e-14
2.49194e-14
2.43133e-14
2.42065e-14
2.58073e-14
2.16967e-14
1.98959e-14
2.22222e-14
2.82304e-14
3.59212e-14
3.78147e-14
3.50529e-14
4.02532e-14
4.83617e-14
4.75364e-14
4.03339e-14
4.38391e-14
4.19463e-14
3.80853e-14
4.81046e-14
5.73003e-14
5.26247e-14
4.88199e-14
4.91036e-14
4.49912e-14
4.35578e-14
3.47805e-14
3.89279e-14
2.8744e-14
3.03817e-14
2.97324e-14
3.89084e-14
3.41834e-14
3.8268e-14
2.80356e-14
2.56605e-14
2.43758e-14
1.78138e-14
1.48284e-14
4.7468e-15
1.70725e-15
-3.83362e-15
2.72367e-15
9.0308e-14
9.16582e-14
9.08647e-14
8.24328e-14
7.96801e-14
8.44659e-14
8.56377e-14
8.36636e-14
7.89493e-14
7.73454e-14
8.10063e-14
8.13724e-14
8.03961e-14
7.25221e-14
6.04723e-14
5.6219e-14
5.78537e-14
5.6077e-14
5.01724e-14
4.61079e-14
3.56259e-14
3.3142e-14
3.22195e-14
3.44496e-14
3.92778e-14
4.17415e-14
3.17519e-14
3.44148e-14
3.38265e-14
3.13133e-14
2.08833e-14
2.02544e-14
1.78451e-14
9.97701e-15
-1.18848e-15
-3.83115e-15
2.87728e-15
-3.80352e-15
-3.76888e-15
-6.68125e-16
-1.84114e-15
-4.65068e-16
2.88253e-15
-2.77526e-15
4.02757e-15
4.04531e-15
1.01163e-14
1.14424e-14
1.16933e-14
2.7221e-15
7.03848e-15
1.17056e-14
7.30829e-15
1.19922e-14
1.16864e-14
2.08208e-14
1.49651e-14
2.1927e-14
2.78839e-14
2.48051e-14
2.14108e-14
2.1994e-14
2.10863e-14
2.26441e-14
2.4468e-14
2.64795e-14
2.66388e-14
3.42289e-14
3.86349e-14
4.07334e-14
4.31792e-14
4.54311e-14
4.27327e-14
4.0862e-14
4.1959e-14
3.82512e-14
4.60616e-14
5.43764e-14
5.62322e-14
5.52308e-14
4.41984e-14
4.51907e-14
4.14299e-14
2.97794e-14
3.26857e-14
3.38625e-14
3.13051e-14
2.78812e-14
3.33172e-14
3.1511e-14
4.32092e-14
3.05731e-14
2.9693e-14
2.48658e-14
1.36845e-14
1.15361e-14
4.22833e-15
1.94459e-15
-2.83668e-15
1.97792e-15
9.55272e-14
8.70275e-14
8.8819e-14
8.19707e-14
8.18497e-14
8.47056e-14
8.68226e-14
8.2944e-14
7.97581e-14
8.06787e-14
7.68266e-14
7.87321e-14
8.18672e-14
7.83186e-14
7.08527e-14
4.79656e-14
4.28992e-14
4.34697e-14
4.85001e-14
4.83617e-14
3.85835e-14
3.83886e-14
3.56636e-14
3.63522e-14
3.67664e-14
3.9963e-14
4.56889e-14
3.66957e-14
3.18187e-14
2.77668e-14
1.78492e-14
1.42153e-14
1.73396e-14
1.27387e-14
7.03756e-16
-9.14593e-15
-1.91019e-15
-2.6688e-16
7.68619e-16
-1.76369e-15
-4.8154e-15
5.14582e-15
6.33624e-15
-2.99156e-15
2.67785e-15
9.21288e-16
7.45679e-15
1.56447e-14
1.18071e-14
4.01512e-15
3.22656e-15
3.99785e-15
4.04653e-15
1.09424e-14
7.94623e-15
2.19941e-14
1.85931e-14
2.39358e-14
2.60794e-14
2.51624e-14
2.23034e-14
2.71427e-14
2.34713e-14
2.41189e-14
2.24168e-14
1.96526e-14
2.88965e-14
3.51049e-14
4.27988e-14
4.1982e-14
4.01395e-14
3.64388e-14
4.34815e-14
4.31248e-14
4.49922e-14
3.7109e-14
4.36609e-14
5.23032e-14
5.19523e-14
5.46437e-14
4.8624e-14
4.32484e-14
3.79303e-14
3.42505e-14
3.42679e-14
3.40758e-14
3.08833e-14
2.78969e-14
3.15407e-14
3.16305e-14
3.44754e-14
2.91005e-14
3.07284e-14
3.07552e-14
1.64493e-14
8.45948e-15
3.71772e-15
3.72605e-15
-2.87326e-15
-1.75226e-15
9.37506e-14
8.54185e-14
9.27654e-14
8.5273e-14
7.63494e-14
8.42279e-14
8.17976e-14
7.7382e-14
7.57401e-14
8.38268e-14
8.79947e-14
8.33796e-14
7.9622e-14
7.84424e-14
6.67302e-14
5.71929e-14
5.08644e-14
4.17212e-14
4.64212e-14
4.97879e-14
3.79748e-14
3.71905e-14
3.4544e-14
3.80667e-14
3.83407e-14
3.87745e-14
3.91548e-14
3.86096e-14
2.90415e-14
2.51108e-14
1.29988e-14
1.7626e-14
1.93971e-14
1.19767e-14