/*--------------------------------*- C++ -*----------------------------------*\
| =========                 |                                                 |
| \\      /  F ield         | OpenFOAM: The Open Source CFD Toolbox           |
|  \\    /   O peration     | Version:  v2012                                 |
|   \\  /    A nd           | Website:  www.openfoam.com                      |
|    \\/     M anipulation  |                                                 |
\*---------------------------------------------------------------------------*/
FoamFile
{
    version     2.0;
    format      ascii;
    class       volVectorField;
    location    "0";
    object      U;
}
// * * * * * * * * * * * * * * * * * * * * * * * * * * * * * * * * * * * * * //

dimensions      [0 1 -1 0 0 0 0];


internalField   nonuniform List<vector> 
4000
(
(1 3.98556e-15 0)
(1 1.92762e-15 0)
(1 1.70971e-15 0)
(1 -1.11573e-17 0)
(1 -4.12378e-15 0)
(1 -2.7985e-15 0)
(1 2.40256e-16 0)
(1 4.17056e-15 0)
(1 8.25708e-15 0)
(1 -6.73028e-15 0)
(1 -1.92835e-15 0)
(1 1.66107e-15 0)
(1 3.50767e-15 0)
(1 9.15055e-16 0)
(1 -3.00168e-15 0)
(1 1.96581e-15 0)
(1 -2.68529e-15 0)
(1 -2.54353e-15 0)
(1 2.8943e-15 0)
(1 3.15332e-15 0)
(1 -9.07811e-16 0)
(1 -2.41282e-15 0)
(1 -4.28338e-15 0)
(1 -9.24078e-16 0)
(1 8.12271e-16 0)
(1 7.26345e-16 0)
(1 2.93585e-15 0)
(1 -1.01516e-15 0)
(1 -1.17538e-16 0)
(1 -1.69059e-15 0)
(1 2.93316e-15 0)
(1 -8.04979e-16 0)
(1 -1.02137e-15 0)
(1 -5.09786e-15 0)
(1 -2.79664e-15 0)
(1 -9.63699e-16 0)
(1 3.92916e-15 0)
(1 3.9463e-15 0)
(1 2.94617e-15 0)
(1 -8.47773e-16 0)
(1 -1.78071e-15 0)
(1 -4.91688e-15 0)
(1 -3.32656e-15 0)
(1 2.02382e-15 0)
(1 5.97082e-16 0)
(1 -1.35437e-16 0)
(1 -3.50288e-16 0)
(1 1.87724e-17 0)
(1 2.36438e-15 0)
(1 -8.78867e-16 0)
(1 1.78987e-15 0)
(1 2.19936e-15 0)
(1 4.94705e-15 0)
(1 4.66007e-15 0)
(1 4.43459e-15 0)
(1 4.43669e-15 0)
(1 3.61746e-16 0)
(1 -1.50842e-16 0)
(1 -3.40459e-15 0)
(1 -1.75328e-15 0)
(1 -2.20762e-15 0)
(1 -1.24851e-15 0)
(1 4.97277e-16 0)
(1 3.67673e-15 0)
(1 -1.00493e-15 0)
(1 -5.58861e-16 0)
(1 -3.38286e-15 0)
(1 2.55442e-15 0)
(1 -1.32205e-15 0)
(1 -2.61414e-15 0)
(1 -2.52605e-15 0)
(1 1.1299e-15 0)
(1 -4.78125e-15 0)
(1 -5.64761e-15 0)
(1 -5.36289e-15 0)
(1 -1.99849e-15 0)
(1 -1.65552e-16 0)
(1 -5.72333e-16 0)
(1 -5.09073e-16 0)
(1 1.65225e-15 0)
(1 7.38487e-16 0)
(1 3.29481e-15 0)
(1 -1.53779e-15 0)
(1 -3.06598e-15 0)
(1 -5.20955e-15 0)
(1 -2.38401e-15 0)
(1 5.40456e-15 0)
(1 3.40455e-15 0)
(1 -7.17998e-16 0)
(1 5.4989e-15 0)
(1 2.98767e-15 0)
(1 2.6041e-15 0)
(1 -1.16598e-15 0)
(1 9.56829e-16 0)
(1 1.69686e-16 0)
(1 7.84518e-16 0)
(1 2.82522e-16 0)
(1 -1.4213e-15 0)
(1 -1.7484e-15 0)
(1 -1.94849e-15 0)
(1 2.64017e-15 0)
(1 2.8974e-15 0)
(1 3.59441e-15 0)
(1 -9.38675e-16 0)
(1 -6.93588e-15 0)
(1 -1.90593e-15 0)
(1 -4.39014e-16 0)
(1 4.40997e-15 0)
(1 1.05344e-14 0)
(1 -7.71625e-16 0)
(1 4.63385e-16 0)
(1 -3.61859e-15 0)
(1 3.74477e-16 0)
(1 -2.91551e-15 0)
(1 -3.33393e-15 0)
(1 7.04644e-15 0)
(1 -1.06255e-15 0)
(1 -5.71354e-15 0)
(1 1.49356e-15 0)
(1 2.20527e-15 0)
(1 9.06463e-16 0)
(1 -1.44414e-15 0)
(1 -6.65431e-16 0)
(1 -6.38514e-16 0)
(1 -3.1278e-16 0)
(1 -5.76951e-15 0)
(1 1.40554e-15 0)
(1 -4.74761e-15 0)
(1 4.207e-16 0)
(1 1.54831e-15 0)
(1 4.08705e-15 0)
(1 -1.82394e-15 0)
(1 -5.42347e-16 0)
(1 -5.59398e-15 0)
(1 2.0006e-15 0)
(1 -1.57859e-15 0)
(1 2.97796e-15 0)
(1 5.07957e-15 0)
(1 -2.4562e-15 0)
(1 -4.40828e-15 0)
(1 -8.39905e-15 0)
(1 -5.81376e-15 0)
(1 -7.11773e-16 0)
(1 2.02604e-15 0)
(1 4.12406e-15 0)
(1 -6.62836e-17 0)
(1 2.86244e-15 0)
(1 1.94826e-15 0)
(1 3.44275e-15 0)
(1 -1.44438e-15 0)
(1 -2.30131e-16 0)
(1 -3.40812e-15 0)
(1 2.98998e-15 0)
(1 4.7285e-15 0)
(1 5.35574e-15 0)
(1 1.98015e-15 0)
(1 2.68598e-15 0)
(1 2.23992e-15 0)
(1 1.02802e-15 0)
(1 -4.05958e-15 0)
(1 -2.34433e-15 0)
(1 -4.70948e-17 0)
(1 3.87393e-15 0)
(1 2.35008e-15 0)
(1 -3.7593e-15 0)
(1 -2.9864e-15 0)
(1 -6.55451e-15 0)
(1 -1.6468e-15 0)
(1 1.24643e-16 0)
(1 -1.3504e-15 0)
(1 4.03708e-16 0)
(1 1.01971e-15 0)
(1 2.14302e-15 0)
(1 -1.83887e-15 0)
(1 -1.04319e-15 0)
(1 2.4641e-15 0)
(1 5.48019e-15 0)
(1 1.24795e-15 0)
(1 2.67806e-15 0)
(1 5.39984e-15 0)
(1 3.53076e-15 0)
(1 5.68001e-16 0)
(1 -2.91151e-15 0)
(1 -4.01183e-15 0)
(1 -6.13754e-15 0)
(1 -2.35888e-15 0)
(1 4.73092e-15 0)
(1 3.44439e-15 0)
(1 -2.46408e-15 0)
(1 3.61676e-15 0)
(1 2.21772e-15 0)
(1 4.59967e-16 0)
(1 -2.66716e-15 0)
(1 3.09212e-15 0)
(1 -1.79262e-15 0)
(1 2.4401e-15 0)
(1 8.02053e-17 0)
(1 -1.59583e-15 0)
(1 -4.52331e-15 0)
(1 -5.2204e-15 0)
(1 -4.07354e-15 0)
(1 4.4302e-15 0)
(1 -4.59808e-15 0)
(1 2.2169e-15 0)
(1 -3.85919e-15 0)
(1 2.75076e-15 0)
(1 3.40314e-15 0)
(1 4.2675e-15 0)
(1 2.44347e-15 0)
(1 2.10226e-15 0)
(1 1.44265e-15 0)
(1 2.65362e-15 0)
(1 4.30041e-15 0)
(1 3.45446e-15 0)
(1 3.76571e-16 0)
(1 -4.2603e-16 0)
(1 -1.47521e-15 0)
(1 3.48684e-15 0)
(1 -8.76464e-15 0)
(1 -1.87065e-15 0)
(1 3.35843e-15 0)
(1 -3.35591e-15 0)
(1 -4.47275e-15 0)
(1 5.5687e-17 0)
(1 1.06292e-14 0)
(1 -8.25112e-16 0)
(1 5.62713e-15 0)
(1 -3.74801e-15 0)
(1 2.9998e-15 0)
(1 4.22218e-15 0)
(1 1.57705e-15 0)
(1 -3.95062e-15 0)
(1 -2.06026e-15 0)
(1 -8.77479e-16 0)
(1 1.23263e-15 0)
(1 -1.62639e-15 0)
(1 -5.15779e-15 0)
(1 6.23813e-15 0)
(1 4.94282e-15 0)
(1 -9.36861e-15 0)
(1 -8.67333e-15 0)
(1 -7.87662e-15 0)
(1 -8.26807e-17 0)
(1 -1.97691e-15 0)
(1 1.68143e-15 0)
(1 -1.05791e-15 0)
(1 9.0269e-15 0)
(1 5.77676e-15 0)
(1 3.87219e-15 0)
(1 -1.24997e-15 0)
(1 5.7178e-15 0)
(1 -5.6416e-16 0)
(1 3.12057e-15 0)
(1 1.60241e-15 0)
(1 5.05254e-15 0)
(1 2.88663e-15 0)
(1 3.29324e-15 0)
(1 4.23242e-15 0)
(1 6.14181e-15 0)
(1 -1.66581e-15 0)
(1 -1.19451e-15 0)
(1 2.40365e-16 0)
(1 2.72236e-15 0)
(1 -3.83661e-15 0)
(1 -7.10105e-15 0)
(1 -4.55373e-15 0)
(1 -1.87847e-15 0)
(1 -1.91612e-15 0)
(1 2.5016e-15 0)
(1 2.14504e-15 0)
(1 -2.57692e-16 0)
(1 -4.57129e-15 0)
(1 -8.9665e-16 0)
(1 -3.04371e-15 0)
(1 2.85804e-16 0)
(1 -1.55912e-15 0)
(1 1.65076e-15 0)
(1 -3.33658e-15 0)
(1 2.08121e-15 0)
(1 3.45611e-16 0)
(1 2.11668e-16 0)
(1 -3.82027e-16 0)
(1 -1.90874e-15 0)
(1 -2.73726e-15 0)
(1 -7.69559e-16 0)
(1 1.07536e-15 0)
(1 -9.57335e-17 0)
(1 2.74714e-15 0)
(1 -2.51938e-15 0)
(1 3.10215e-15 0)
(1 1.53842e-16 0)
(1 6.67143e-16 0)
(1 -2.58855e-15 0)
(1 3.90915e-15 0)
(1 -3.16867e-16 0)
(1 4.5439e-15 0)
(1 -3.99421e-16 0)
(1 -3.71896e-15 0)
(1 -3.83734e-15 0)
(1 -5.34771e-15 0)
(1 7.12705e-16 0)
(1 -4.66704e-15 0)
(1 -4.69026e-15 0)
(1 -6.76871e-15 0)
(1 5.00965e-15 0)
(1 5.2721e-15 0)
(1 8.33123e-15 0)
(1 1.04607e-15 0)
(1 2.15162e-15 0)
(1 -4.3625e-15 0)
(1 1.46071e-15 0)
(1 4.11265e-16 0)
(1 2.42574e-15 0)
(1 1.31206e-14 0)
(1 6.82565e-15 0)
(1 -1.16481e-15 0)
(1 1.48287e-16 0)
(1 1.79993e-15 0)
(1 -8.40791e-15 0)
(1 -2.7678e-16 0)
(1 5.66131e-15 0)
(1 1.42155e-15 0)
(1 -6.67358e-15 0)
(1 2.62217e-15 0)
(1 8.27294e-15 0)
(1 6.68184e-15 0)
(1 1.403e-14 0)
(1 5.72312e-15 0)
(1 8.05205e-15 0)
(1 6.23046e-16 0)
(1 2.07313e-15 0)
(1 -6.09416e-15 0)
(1 -4.69879e-15 0)
(1 -5.8249e-15 0)
(1 -5.95312e-15 0)
(1 -7.42655e-15 0)
(1 -2.00143e-15 0)
(1 -3.94414e-15 0)
(1 5.69734e-15 0)
(1 -2.72848e-15 0)
(1 1.64754e-15 0)
(1 -4.9209e-15 0)
(1 -3.92259e-15 0)
(1 9.53777e-17 0)
(1 -1.74146e-15 0)
(1 6.19509e-15 0)
(1 8.78372e-15 0)
(1 6.68253e-15 0)
(1 9.81813e-16 0)
(1 1.55056e-15 0)
(1 6.57424e-15 0)
(1 4.57152e-15 0)
(1 3.45035e-15 0)
(1 4.64971e-15 0)
(1 5.68775e-15 0)
(1 5.96596e-15 0)
(1 2.67204e-15 0)
(1 7.1542e-16 0)
(1 6.16178e-15 0)
(1 4.85292e-15 0)
(1 3.16146e-15 0)
(1 -6.08026e-15 0)
(1 -3.46651e-15 0)
(1 -2.85626e-15 0)
(1 -3.35333e-15 0)
(1 -1.02985e-15 0)
(1 8.53542e-17 0)
(1 -2.04777e-15 0)
(1 -3.77556e-15 0)
(1 -5.46723e-15 0)
(1 -5.32472e-15 0)
(1 -7.02645e-15 0)
(1 -4.62922e-15 0)
(1 -4.49898e-15 0)
(1 -3.08962e-15 0)
(1 3.85504e-15 0)
(1 3.99004e-15 0)
(1 3.67079e-16 0)
(1 5.12584e-15 0)
(1 -5.46841e-15 0)
(1 -1.74897e-15 0)
(1 1.78308e-15 0)
(1 -2.1921e-15 0)
(1 -4.09465e-15 0)
(1 -2.43433e-15 0)
(1 7.23085e-16 0)
(1 9.48756e-15 0)
(1 5.85474e-15 0)
(1 3.55338e-15 0)
(1 5.52911e-15 0)
(1 4.89082e-16 0)
(1 2.53001e-15 0)
(1 9.01079e-16 0)
(1 4.82469e-15 0)
(1 6.23405e-16 0)
(1 4.56672e-16 0)
(1 -2.73446e-15 0)
(1 -4.61202e-15 0)
(1 -8.48135e-15 0)
(1 -5.19396e-15 0)
(1 5.4595e-15 0)
(1 -4.85154e-15 0)
(1 4.38349e-15 0)
(1 -6.23661e-15 0)
(1 5.854e-15 0)
(1 1.32719e-15 0)
(1 -1.24046e-15 0)
(1 -4.96438e-15 0)
(1 -1.43086e-15 0)
(1 1.42724e-15 0)
(1 7.20207e-15 0)
(1 6.69699e-15 0)
(1 6.53126e-15 0)
(1 2.39384e-15 0)
(1 4.39091e-15 0)
(1 -8.39931e-17 0)
(1 4.93343e-15 0)
(1 -3.32526e-15 0)
(1 -7.00284e-15 0)
(1 -5.33104e-15 0)
(1 6.52425e-16 0)
(1 4.98078e-15 0)
(1 2.6134e-15 0)
(1 6.17036e-15 0)
(1 -2.12699e-15 0)
(1 -2.66989e-15 0)
(1 2.25515e-15 0)
(1 9.03725e-15 0)
(1 3.06321e-15 0)
(1 3.07444e-15 0)
(1 -4.05434e-15 0)
(1 2.0068e-15 0)
(1 -3.32045e-15 0)
(1 2.96696e-15 0)
(1 -5.44257e-15 0)
(1 -8.21453e-15 0)
(1 -2.66553e-15 0)
(1 -1.03277e-14 0)
(1 -3.35994e-15 0)
(1 1.63406e-15 0)
(1 -4.47873e-17 0)
(1 -5.18106e-15 0)
(1 -5.9988e-15 0)
(1 -4.23856e-15 0)
(1 -1.66991e-15 0)
(1 8.58631e-15 0)
(1 4.53441e-15 0)
(1 9.02753e-15 0)
(1 4.40797e-15 0)
(1 6.69797e-15 0)
(1 -2.86729e-15 0)
(1 -4.382e-17 0)
(1 -3.00509e-16 0)
(1 5.17662e-15 0)
(1 4.97428e-15 0)
(1 3.02225e-15 0)
(1 2.41152e-15 0)
(1 -1.01328e-15 0)
(1 3.43897e-15 0)
(1 4.59207e-15 0)
(1 3.62469e-15 0)
(1 2.23375e-16 0)
(1 -9.28459e-17 0)
(1 -2.08869e-15 0)
(1 3.94376e-15 0)
(1 5.97683e-15 0)
(1 8.09428e-15 0)
(1 -1.65211e-15 0)
(1 -7.28195e-15 0)
(1 -2.52777e-15 0)
(1 -6.38693e-15 0)
(1 -4.73961e-15 0)
(1 3.38147e-15 0)
(1 -7.53369e-16 0)
(1 -1.1609e-16 0)
(1 2.41305e-15 0)
(1 1.28029e-15 0)
(1 1.77511e-15 0)
(1 4.20738e-15 0)
(1 -1.80079e-16 0)
(1 -2.37798e-15 0)
(1 -4.55072e-15 0)
(1 -3.01056e-15 0)
(1 -1.8751e-15 0)
(1 1.95886e-15 0)
(1 3.18461e-15 0)
(1 6.90562e-15 0)
(1 1.81009e-15 0)
(1 5.09716e-15 0)
(1 1.25002e-16 0)
(1 4.67376e-15 0)
(1 -1.54874e-15 0)
(1 5.01823e-15 0)
(1 5.96691e-15 0)
(1 4.483e-15 0)
(1 -2.17119e-16 0)
(1 -1.76583e-15 0)
(1 -1.07851e-15 0)
(1 -2.41146e-15 0)
(1 2.40519e-15 0)
(1 -8.60772e-16 0)
(1 1.05231e-15 0)
(1 6.91669e-15 0)
(1 3.05895e-15 0)
(1 1.0574e-16 0)
(1 -8.3555e-15 0)
(1 -5.73274e-15 0)
(1 1.09052e-15 0)
(1 -4.54414e-15 0)
(1 5.15419e-15 0)
(1 1.85582e-15 0)
(1 1.44319e-14 0)
(1 1.41842e-14 0)
(1 -1.90821e-15 0)
(1 1.64661e-15 0)
(1 -1.68791e-15 0)
(1 3.89932e-16 0)
(1 5.80653e-16 0)
(1 -9.01145e-15 0)
(1 -9.26482e-15 0)
(1 -2.45236e-15 0)
(1 7.67456e-15 0)
(1 1.36828e-14 0)
(1 9.04338e-15 0)
(1 4.07936e-15 0)
(1 -1.06977e-15 0)
(1 -6.77529e-16 0)
(1 6.75937e-15 0)
(1 -6.33734e-15 0)
(1 4.33996e-15 0)
(1 -8.01329e-15 0)
(1 5.8144e-15 0)
(1 -3.22532e-15 0)
(1 8.56829e-15 0)
(1 -2.07342e-15 0)
(1 -7.05122e-16 0)
(1 -4.57329e-15 0)
(1 2.05242e-15 0)
(1 -4.41394e-15 0)
(1 2.08271e-17 0)
(1 -6.41887e-15 0)
(1 1.09879e-15 0)
(1 -3.6125e-15 0)
(1 -5.57659e-15 0)
(1 3.7456e-15 0)
(1 3.05345e-15 0)
(1 4.06684e-15 0)
(1 4.60913e-15 0)
(1 8.79009e-15 0)
(1 4.18312e-15 0)
(1 4.42256e-16 0)
(1 4.34725e-15 0)
(1 5.07005e-15 0)
(1 3.82038e-15 0)
(1 3.6217e-15 0)
(1 2.84385e-15 0)
(1 1.30298e-15 0)
(1 4.00453e-15 0)
(1 2.69079e-15 0)
(1 1.05358e-14 0)
(1 4.1904e-15 0)
(1 2.51063e-15 0)
(1 -6.14889e-15 0)
(1 -2.2902e-15 0)
(1 2.99894e-15 0)
(1 8.21977e-15 0)
(1 1.21733e-14 0)
(1 5.87772e-15 0)
(1 6.05512e-15 0)
(1 6.48624e-15 0)
(1 3.96985e-15 0)
(1 -9.55428e-16 0)
(1 3.60186e-15 0)
(1 -1.12794e-15 0)
(1 -2.59062e-15 0)
(1 -5.43183e-15 0)
(1 -4.1699e-15 0)
(1 -1.95913e-18 0)
(1 -3.324e-15 0)
(1 3.23327e-15 0)
(1 -8.96601e-16 0)
(1 1.71425e-15 0)
(1 1.85465e-15 0)
(1 3.60618e-15 0)
(1 -3.9755e-15 0)
(1 -4.22545e-15 0)
(1 -4.80703e-15 0)
(1 -3.45997e-15 0)
(1 -7.33127e-16 0)
(1 3.8755e-16 0)
(1 2.6438e-15 0)
(1 1.72181e-15 0)
(1 6.29324e-15 0)
(1 7.46275e-15 0)
(1 9.29181e-15 0)
(1 7.58174e-15 0)
(1 5.53375e-15 0)
(1 5.27982e-16 0)
(1 9.40231e-15 0)
(1 8.6984e-15 0)
(1 -1.4652e-15 0)
(1 -1.41786e-15 0)
(1 6.14209e-15 0)
(1 4.3578e-15 0)
(1 1.62688e-15 0)
(1 -7.37116e-15 0)
(1 -5.25321e-16 0)
(1 7.05666e-15 0)
(1 1.42781e-16 0)
(1 7.14354e-15 0)
(1 -3.68387e-15 0)
(1 4.52025e-15 0)
(1 1.68088e-16 0)
(1 6.53009e-15 0)
(1 8.53982e-16 0)
(1 1.38116e-15 0)
(1 1.95436e-15 0)
(1 -2.88332e-15 0)
(1 7.47545e-17 0)
(1 4.77039e-15 0)
(1 1.83559e-15 0)
(1 -6.15026e-17 0)
(1 2.30136e-15 0)
(1 -1.12927e-14 0)
(1 1.93611e-15 0)
(1 -9.6458e-16 0)
(1 5.45689e-15 0)
(1 2.34617e-15 0)
(1 2.02498e-15 0)
(1 2.48243e-15 0)
(1 6.26995e-15 0)
(1 1.07622e-15 0)
(1 1.91644e-15 0)
(1 -3.15255e-15 0)
(1 -2.31712e-15 0)
(1 -7.76329e-16 0)
(1 -3.30668e-15 0)
(1 4.32714e-15 0)
(1 -3.07027e-15 0)
(1 4.56495e-15 0)
(1 -3.39537e-15 0)
(1 5.85376e-15 0)
(1 9.68506e-16 0)
(1 4.42219e-15 0)
(1 -2.43525e-16 0)
(1 1.69079e-15 0)
(1 3.19098e-15 0)
(1 2.28165e-15 0)
(1 4.73102e-15 0)
(1 -1.92362e-15 0)
(1 2.19244e-15 0)
(1 1.47753e-15 0)
(1 5.70401e-15 0)
(1 5.11513e-16 0)
(1 1.0374e-16 0)
(1 3.94198e-15 0)
(1 4.28972e-15 0)
(1 4.80243e-15 0)
(1 3.08767e-15 0)
(1 6.88849e-15 0)
(1 4.6151e-15 0)
(1 4.64108e-15 0)
(1 2.79069e-16 0)
(1 3.35907e-15 0)
(1 -2.07562e-15 0)
(1 -1.00817e-15 0)
(1 3.30845e-16 0)
(1 2.5289e-15 0)
(1 4.43912e-15 0)
(1 2.05612e-15 0)
(1 6.14562e-15 0)
(1 -5.55523e-16 0)
(1 -2.59396e-15 0)
(1 -1.01483e-15 0)
(1 -3.91085e-16 0)
(1 8.43096e-15 0)
(1 2.64765e-15 0)
(1 5.83221e-15 0)
(1 2.57287e-17 0)
(1 3.13546e-16 0)
(1 2.65851e-15 0)
(1 3.30813e-15 0)
(1 3.05729e-15 0)
(1 3.21552e-15 0)
(1 -1.39336e-15 0)
(1 3.19691e-15 0)
(1 4.16649e-15 0)
(1 7.3993e-15 0)
(1 1.5886e-15 0)
(1 2.75699e-15 0)
(1 6.62989e-16 0)
(1 7.30226e-15 0)
(1 8.61535e-15 0)
(1 9.25582e-15 0)
(1 5.61114e-15 0)
(1 8.99826e-15 0)
(1 9.18943e-15 0)
(1 6.96121e-15 0)
(1 9.22766e-15 0)
(1 7.78456e-15 0)
(1 -2.46169e-16 0)
(1 -7.80248e-16 0)
(1 -9.51552e-15 0)
(1 4.97146e-15 0)
(1 5.16816e-16 0)
(1 3.29661e-15 0)
(1 1.42718e-15 0)
(1 2.011e-15 0)
(1 7.13011e-15 0)
(1 4.04269e-15 0)
(1 2.31164e-15 0)
(1 -3.72592e-16 0)
(1 5.79888e-17 0)
(1 9.62558e-15 0)
(1 4.29949e-15 0)
(1 5.7223e-15 0)
(1 5.85438e-15 0)
(1 6.33733e-15 0)
(1 4.56394e-15 0)
(1 9.42897e-15 0)
(1 1.76993e-17 0)
(1 -1.50991e-14 0)
(1 -5.17976e-15 0)
(1 -1.79431e-14 0)
(1 -1.56185e-14 0)
(1 -8.19834e-15 0)
(1 -3.53576e-15 0)
(1 -1.63544e-15 0)
(1 1.19276e-14 0)
(1 9.39378e-15 0)
(1 1.3966e-14 0)
(1 8.74688e-16 0)
(1 2.5566e-15 0)
(1 -3.89785e-15 0)
(1 -1.31568e-15 0)
(1 -2.23376e-15 0)
(1 1.6718e-15 0)
(1 -1.16186e-15 0)
(1 3.72054e-15 0)
(1 5.13526e-15 0)
(1 2.91749e-15 0)
(1 -5.70419e-15 0)
(1 -7.68507e-15 0)
(1 -6.23715e-15 0)
(1 4.33199e-17 0)
(1 7.99561e-15 0)
(1 9.95805e-15 0)
(1 5.61146e-15 0)
(1 4.16161e-16 0)
(1 1.75906e-15 0)
(1 3.6193e-15 0)
(1 1.26058e-15 0)
(1 4.04703e-15 0)
(1 6.71975e-15 0)
(1 8.33793e-15 0)
(1 1.10626e-14 0)
(1 6.29938e-15 0)
(1 5.53917e-15 0)
(1 -2.42544e-15 0)
(1 -3.62155e-15 0)
(1 -3.67024e-15 0)
(1 7.69583e-15 0)
(1 1.39498e-14 0)
(1 1.41142e-14 0)
(1 2.36266e-15 0)
(1 1.21318e-15 0)
(1 5.76992e-15 0)
(1 1.12753e-15 0)
(1 3.31992e-15 0)
(1 4.28857e-15 0)
(1 2.50827e-15 0)
(1 1.76708e-15 0)
(1 2.88531e-15 0)
(1 -6.19299e-16 0)
(1 4.86311e-15 0)
(1 5.98963e-15 0)
(1 2.14854e-15 0)
(1 2.46776e-15 0)
(1 -3.06453e-15 0)
(1 -3.14597e-15 0)
(1 2.6161e-16 0)
(1 -5.58629e-16 0)
(1 -5.74202e-16 0)
(1 -1.02922e-15 0)
(1 2.46739e-15 0)
(1 5.04666e-15 0)
(1 4.50677e-15 0)
(1 4.16541e-15 0)
(1 4.47869e-15 0)
(1 7.4603e-16 0)
(1 3.10466e-15 0)
(1 4.81884e-15 0)
(1 6.77662e-15 0)
(1 8.53148e-15 0)
(1 7.22356e-15 0)
(1 8.25048e-15 0)
(1 5.89675e-15 0)
(1 7.45865e-15 0)
(1 1.2106e-14 0)
(1 1.63907e-14 0)
(1 -1.80109e-15 0)
(1 -3.22e-15 0)
(1 -7.98597e-15 0)
(1 -3.34285e-15 0)
(1 -2.10471e-15 0)
(1 7.44368e-15 0)
(1 6.53784e-15 0)
(1 6.36294e-16 0)
(1 2.88879e-15 0)
(1 -6.56053e-15 0)
(1 4.60775e-16 0)
(1 -2.33227e-15 0)
(1 6.17011e-15 0)
(1 1.29409e-14 0)
(1 7.46201e-15 0)
(1 9.55166e-15 0)
(1 -4.69755e-15 0)
(1 9.02383e-15 0)
(1 4.61487e-15 0)
(1 4.55597e-16 0)
(1 -8.98204e-15 0)
(1 -8.23998e-15 0)
(1 2.40748e-16 0)
(1 1.1592e-15 0)
(1 -6.42232e-15 0)
(1 -1.59689e-15 0)
(1 -4.15688e-15 0)
(1 -8.80333e-16 0)
(1 1.34143e-15 0)
(1 4.25231e-15 0)
(1 1.08599e-15 0)
(1 -3.88887e-15 0)
(1 -4.81454e-15 0)
(1 -2.56231e-15 0)
(1 -3.3201e-15 0)
(1 2.71325e-15 0)
(1 5.11734e-15 0)
(1 4.81239e-15 0)
(1 3.64918e-15 0)
(1 9.77055e-16 0)
(1 -8.48961e-16 0)
(1 -2.04437e-15 0)
(1 -7.88578e-16 0)
(1 -4.73266e-16 0)
(1 1.3735e-14 0)
(1 8.26979e-15 0)
(1 1.08596e-14 0)
(1 -6.59318e-16 0)
(1 -4.88479e-15 0)
(1 9.11318e-16 0)
(1 9.51924e-16 0)
(1 6.65963e-15 0)
(1 1.88813e-15 0)
(1 1.18591e-14 0)
(1 1.29169e-14 0)
(1 7.72498e-15 0)
(1 7.21846e-15 0)
(1 -3.26614e-16 0)
(1 7.73996e-15 0)
(1 3.53273e-15 0)
(1 3.35685e-15 0)
(1 -4.38163e-17 0)
(1 2.20408e-15 0)
(1 4.53523e-15 0)
(1 -4.04112e-15 0)
(1 4.01544e-15 0)
(1 2.46905e-15 0)
(1 1.07432e-14 0)
(1 1.88733e-14 0)
(1 1.58988e-14 0)
(1 1.09187e-14 0)
(1 5.60334e-15 0)
(1 6.63627e-15 0)
(1 -5.8399e-16 0)
(1 1.45392e-15 0)
(1 1.03293e-15 0)
(1 1.27779e-15 0)
(1 7.33099e-15 0)
(1 5.76735e-15 0)
(1 4.77649e-15 0)
(1 3.89677e-15 0)
(1 6.23022e-15 0)
(1 6.24242e-16 0)
(1 -5.29964e-15 0)
(1 -6.03565e-15 0)
(1 -2.55108e-15 0)
(1 -2.18251e-15 0)
(1 1.36033e-15 0)
(1 3.92544e-15 0)
(1 2.33466e-15 0)
(1 -4.61731e-16 0)
(1 4.57107e-15 0)
(1 6.44754e-15 0)
(1 1.11117e-14 0)
(1 1.45391e-14 0)
(1 1.57418e-14 0)
(1 1.62171e-14 0)
(1 1.73514e-14 0)
(1 2.41234e-14 0)
(1 2.50819e-14 0)
(1 4.81682e-16 0)
(1 3.92842e-16 0)
(1 7.20913e-15 0)
(1 -3.34834e-15 0)
(1 -1.53786e-16 0)
(1 -8.22334e-15 0)
(1 4.52681e-15 0)
(1 2.8621e-15 0)
(1 4.66941e-15 0)
(1 -1.27248e-15 0)
(1 1.91867e-16 0)
(1 6.48453e-15 0)
(1 1.0073e-14 0)
(1 1.08759e-14 0)
(1 -1.80502e-15 0)
(1 -3.82003e-15 0)
(1 -7.72029e-15 0)
(1 4.2644e-15 0)
(1 3.80941e-15 0)
(1 7.06995e-15 0)
(1 -3.67952e-15 0)
(1 -8.94751e-15 0)
(1 -1.88813e-14 0)
(1 2.76965e-16 0)
(1 4.47204e-15 0)
(1 6.93992e-15 0)
(1 2.26424e-15 0)
(1 8.3618e-15 0)
(1 1.33966e-15 0)
(1 9.67912e-16 0)
(1 -6.79055e-15 0)
(1 9.46849e-16 0)
(1 -3.85403e-15 0)
(1 1.80583e-16 0)
(1 -4.0367e-15 0)
(1 3.77318e-15 0)
(1 -4.01786e-15 0)
(1 3.68713e-15 0)
(1 -4.54182e-15 0)
(1 -5.65773e-15 0)
(1 -4.03375e-15 0)
(1 2.05578e-15 0)
(1 9.81134e-15 0)
(1 6.56542e-15 0)
(1 4.57258e-15 0)
(1 -1.85864e-15 0)
(1 1.55304e-15 0)
(1 1.41363e-15 0)
(1 -6.71954e-16 0)
(1 3.77447e-15 0)
(1 4.24055e-16 0)
(1 1.90033e-15 0)
(1 8.1283e-15 0)
(1 3.43614e-15 0)
(1 1.33339e-14 0)
(1 1.21088e-14 0)
(1 5.09257e-15 0)
(1 -1.78801e-15 0)
(1 7.03944e-15 0)
(1 9.52872e-15 0)
(1 8.41054e-15 0)
(1 4.02366e-15 0)
(1 4.22053e-15 0)
(1 3.9758e-15 0)
(1 4.15764e-15 0)
(1 1.90804e-15 0)
(1 6.22144e-15 0)
(1 1.50171e-14 0)
(1 2.06074e-14 0)
(1 1.33995e-14 0)
(1 9.72785e-15 0)
(1 3.37105e-15 0)
(1 -1.17266e-15 0)
(1 1.95665e-15 0)
(1 4.86175e-15 0)
(1 1.53567e-15 0)
(1 5.21804e-15 0)
(1 6.63545e-15 0)
(1 8.85817e-15 0)
(1 5.60153e-15 0)
(1 4.40437e-15 0)
(1 3.56517e-15 0)
(1 -1.13344e-15 0)
(1 -4.69985e-15 0)
(1 -5.53475e-15 0)
(1 3.02293e-15 0)
(1 6.43357e-15 0)
(1 6.59815e-15 0)
(1 3.20577e-15 0)
(1 1.07353e-16 0)
(1 5.80021e-15 0)
(1 6.61079e-15 0)
(1 7.21603e-15 0)
(1 9.41245e-15 0)
(1 1.93338e-14 0)
(1 9.32555e-15 0)
(1 1.40793e-14 0)
(1 1.54527e-14 0)
(1 2.97359e-14 0)
(1 2.83375e-14 0)
(1 -7.97475e-16 0)
(1 2.05383e-15 0)
(1 -4.848e-16 0)
(1 9.91868e-18 0)
(1 -6.05012e-15 0)
(1 -7.19585e-15 0)
(1 2.59231e-16 0)
(1 -7.47867e-16 0)
(1 5.09439e-15 0)
(1 7.15253e-15 0)
(1 3.8356e-15 0)
(1 -1.30953e-15 0)
(1 2.88521e-15 0)
(1 -3.06011e-15 0)
(1 4.5308e-16 0)
(1 -7.63018e-16 0)
(1 8.74621e-15 0)
(1 5.59963e-15 0)
(1 4.51765e-15 0)
(1 1.60285e-15 0)
(1 -4.6826e-15 0)
(1 -9.32745e-15 0)
(1 -1.51848e-14 0)
(1 -3.32576e-15 0)
(1 -5.74966e-15 0)
(1 5.08213e-15 0)
(1 7.87019e-15 0)
(1 1.19958e-14 0)
(1 2.29104e-15 0)
(1 -1.21927e-15 0)
(1 -7.35846e-15 0)
(1 -2.20131e-15 0)
(1 -1.63908e-15 0)
(1 1.02295e-15 0)
(1 -2.66048e-15 0)
(1 -5.03764e-16 0)
(1 2.89643e-15 0)
(1 -1.99414e-15 0)
(1 -4.54266e-15 0)
(1 -5.2715e-15 0)
(1 1.13962e-15 0)
(1 -6.9516e-16 0)
(1 8.48266e-15 0)
(1 1.95543e-16 0)
(1 4.59832e-17 0)
(1 -8.5963e-16 0)
(1 5.08297e-15 0)
(1 2.36577e-15 0)
(1 7.49212e-15 0)
(1 4.82411e-15 0)
(1 1.15837e-14 0)
(1 9.68701e-15 0)
(1 1.20696e-14 0)
(1 6.15884e-15 0)
(1 8.28131e-15 0)
(1 4.34388e-15 0)
(1 3.16343e-15 0)
(1 2.58343e-15 0)
(1 2.18215e-15 0)
(1 3.45451e-15 0)
(1 8.48182e-15 0)
(1 4.7464e-15 0)
(1 4.77673e-15 0)
(1 5.27066e-15 0)
(1 1.14839e-14 0)
(1 1.82552e-15 0)
(1 5.87433e-15 0)
(1 5.66183e-15 0)
(1 1.33023e-15 0)
(1 4.33872e-15 0)
(1 6.3897e-15 0)
(1 1.63484e-14 0)
(1 6.70847e-15 0)
(1 -1.1008e-15 0)
(1 2.87341e-15 0)
(1 -1.10169e-15 0)
(1 1.32968e-14 0)
(1 1.68226e-15 0)
(1 4.98251e-15 0)
(1 1.18173e-14 0)
(1 8.98211e-15 0)
(1 5.16454e-15 0)
(1 7.52251e-15 0)
(1 1.28614e-15 0)
(1 -1.97274e-15 0)
(1 -1.6952e-15 0)
(1 3.73502e-15 0)
(1 -7.62049e-16 0)
(1 2.24064e-15 0)
(1 -9.32147e-16 0)
(1 1.41798e-14 0)
(1 2.70734e-15 0)
(1 5.65024e-15 0)
(1 5.25292e-15 0)
(1 1.49761e-14 0)
(1 1.10182e-14 0)
(1 1.36247e-14 0)
(1 1.07169e-14 0)
(1 1.89015e-14 0)
(1 2.04143e-14 0)
(1 1.34615e-15 0)
(1 -1.08728e-15 0)
(1 -2.02416e-15 0)
(1 2.82334e-15 0)
(1 -5.65508e-15 0)
(1 5.30173e-15 0)
(1 -6.94031e-15 0)
(1 2.47097e-15 0)
(1 2.51136e-15 0)
(1 5.76874e-15 0)
(1 6.16028e-15 0)
(1 2.75552e-16 0)
(1 2.70031e-15 0)
(1 -3.19545e-15 0)
(1 1.02249e-14 0)
(1 1.67785e-15 0)
(1 2.01174e-15 0)
(1 -1.30951e-14 0)
(1 4.79523e-16 0)
(1 -1.69358e-14 0)
(1 -3.66647e-15 0)
(1 4.36417e-15 0)
(1 8.39852e-15 0)
(1 4.62817e-15 0)
(1 6.73471e-15 0)
(1 5.34098e-16 0)
(1 4.33192e-15 0)
(1 7.83819e-15 0)
(1 5.3636e-15 0)
(1 -2.92043e-15 0)
(1 -2.78761e-15 0)
(1 -6.89277e-15 0)
(1 -5.59821e-15 0)
(1 -7.32524e-15 0)
(1 -4.01154e-15 0)
(1 -6.30683e-15 0)
(1 -5.03201e-15 0)
(1 -6.84038e-16 0)
(1 3.08822e-15 0)
(1 3.38085e-15 0)
(1 8.31099e-15 0)
(1 2.28366e-15 0)
(1 -4.7072e-15 0)
(1 3.65682e-15 0)
(1 8.23175e-16 0)
(1 1.04191e-15 0)
(1 4.75937e-15 0)
(1 -4.32935e-16 0)
(1 1.41608e-14 0)
(1 7.40573e-15 0)
(1 1.02233e-14 0)
(1 4.6667e-15 0)
(1 3.86236e-15 0)
(1 7.34489e-15 0)
(1 3.3992e-15 0)
(1 -9.76126e-15 0)
(1 -2.22264e-16 0)
(1 -1.05243e-15 0)
(1 7.08814e-15 0)
(1 4.56105e-15 0)
(1 1.25782e-14 0)
(1 1.1544e-14 0)
(1 1.22726e-14 0)
(1 4.59746e-15 0)
(1 1.15454e-14 0)
(1 5.0053e-15 0)
(1 6.38424e-16 0)
(1 3.81946e-15 0)
(1 -2.29559e-15 0)
(1 3.15023e-15 0)
(1 9.97133e-15 0)
(1 1.21453e-14 0)
(1 1.91449e-15 0)
(1 -7.75673e-16 0)
(1 1.24807e-15 0)
(1 -3.97765e-15 0)
(1 4.69714e-15 0)
(1 4.50823e-15 0)
(1 5.73213e-15 0)
(1 1.47528e-14 0)
(1 1.10398e-14 0)
(1 8.70663e-15 0)
(1 1.02667e-14 0)
(1 3.06879e-15 0)
(1 4.71641e-15 0)
(1 -1.80354e-15 0)
(1 6.89053e-16 0)
(1 -6.67897e-16 0)
(1 5.47186e-15 0)
(1 6.96864e-15 0)
(1 9.95793e-15 0)
(1 9.39129e-16 0)
(1 3.83775e-15 0)
(1 4.59452e-15 0)
(1 1.14989e-14 0)
(1 1.86478e-14 0)
(1 1.89038e-14 0)
(1 1.66128e-14 0)
(1 8.19782e-15 0)
(1 9.53394e-15 0)
(1 2.76031e-15 0)
(1 1.46148e-15 0)
(1 -4.90361e-15 0)
(1 -5.63495e-15 0)
(1 1.35528e-15 0)
(1 -3.62591e-15 0)
(1 -5.04143e-15 0)
(1 3.24219e-15 0)
(1 9.27181e-16 0)
(1 2.26181e-15 0)
(1 3.65719e-15 0)
(1 4.35993e-15 0)
(1 3.42117e-15 0)
(1 2.46276e-15 0)
(1 3.69967e-15 0)
(1 -2.46419e-15 0)
(1 -3.27599e-15 0)
(1 -1.09208e-15 0)
(1 9.28534e-15 0)
(1 3.09432e-15 0)
(1 1.10445e-14 0)
(1 -1.12856e-15 0)
(1 -8.91564e-15 0)
(1 -1.13199e-14 0)
(1 -3.13423e-15 0)
(1 3.89144e-16 0)
(1 1.46456e-15 0)
(1 -2.75692e-15 0)
(1 5.9779e-15 0)
(1 -2.88236e-15 0)
(1 -5.50099e-15 0)
(1 -1.12412e-14 0)
(1 -1.1277e-14 0)
(1 -1.21076e-14 0)
(1 8.38888e-15 0)
(1 2.10569e-15 0)
(1 1.74676e-15 0)
(1 -1.13421e-15 0)
(1 2.28225e-15 0)
(1 4.21583e-15 0)
(1 5.33998e-15 0)
(1 2.8166e-15 0)
(1 -8.2715e-15 0)
(1 3.22696e-15 0)
(1 1.40821e-15 0)
(1 6.96882e-15 0)
(1 1.01938e-15 0)
(1 1.30863e-14 0)
(1 9.19408e-15 0)
(1 7.96649e-15 0)
(1 6.5044e-15 0)
(1 2.93861e-15 0)
(1 5.54454e-16 0)
(1 4.38376e-15 0)
(1 1.8487e-15 0)
(1 5.96881e-15 0)
(1 2.98798e-15 0)
(1 2.59392e-15 0)
(1 -6.51592e-15 0)
(1 -1.82997e-15 0)
(1 -9.40711e-15 0)
(1 1.32673e-15 0)
(1 6.74781e-15 0)
(1 1.31545e-14 0)
(1 1.73871e-14 0)
(1 1.21996e-14 0)
(1 8.51075e-15 0)
(1 4.70727e-15 0)
(1 6.25368e-16 0)
(1 -1.59177e-15 0)
(1 -6.05411e-15 0)
(1 -5.22483e-15 0)
(1 6.23638e-15 0)
(1 1.36438e-14 0)
(1 8.22353e-15 0)
(1 5.02887e-15 0)
(1 -6.74106e-15 0)
(1 6.5924e-15 0)
(1 5.38252e-15 0)
(1 2.65216e-15 0)
(1 4.76968e-15 0)
(1 7.52909e-15 0)
(1 5.00083e-15 0)
(1 5.44695e-15 0)
(1 8.56476e-15 0)
(1 6.27817e-15 0)
(1 5.2328e-15 0)
(1 6.49956e-15 0)
(1 8.21626e-15 0)
(1 9.52406e-15 0)
(1 4.13536e-15 0)
(1 5.1104e-15 0)
(1 5.33622e-16 0)
(1 5.0281e-15 0)
(1 4.64875e-15 0)
(1 1.06362e-14 0)
(1 9.27307e-15 0)
(1 9.59854e-15 0)
(1 5.42881e-15 0)
(1 6.00483e-15 0)
(1 -5.13751e-16 0)
(1 5.73996e-15 0)
(1 -4.77542e-15 0)
(1 -6.72934e-15 0)
(1 -9.40479e-16 0)
(1 -2.62871e-15 0)
(1 2.59636e-16 0)
(1 2.38816e-16 0)
(1 5.68873e-15 0)
(1 7.91707e-15 0)
(1 1.29953e-15 0)
(1 5.06008e-15 0)
(1 -4.28934e-15 0)
(1 -2.13937e-15 0)
(1 -6.00649e-15 0)
(1 8.15885e-15 0)
(1 2.2253e-15 0)
(1 6.41792e-15 0)
(1 -7.79988e-15 0)
(1 1.52492e-15 0)
(1 -3.79142e-15 0)
(1 3.23608e-15 0)
(1 -1.07422e-14 0)
(1 1.07479e-15 0)
(1 -1.83366e-15 0)
(1 8.04215e-15 0)
(1 7.62459e-15 0)
(1 7.77187e-16 0)
(1 4.22832e-15 0)
(1 -3.65233e-15 0)
(1 -3.58509e-15 0)
(1 -1.44164e-14 0)
(1 -1.0757e-14 0)
(1 -1.11468e-14 0)
(1 1.58245e-15 0)
(1 9.11135e-15 0)
(1 1.4106e-14 0)
(1 -7.71014e-16 0)
(1 1.21687e-15 0)
(1 -5.90547e-15 0)
(1 -6.84941e-15 0)
(1 -1.61805e-15 0)
(1 4.48707e-15 0)
(1 6.5569e-15 0)
(1 1.00729e-14 0)
(1 1.13277e-14 0)
(1 2.33627e-15 0)
(1 1.28927e-14 0)
(1 4.13993e-16 0)
(1 4.33525e-16 0)
(1 -9.81323e-15 0)
(1 -4.39009e-15 0)
(1 -2.8316e-16 0)
(1 8.68866e-15 0)
(1 1.74897e-15 0)
(1 1.4835e-14 0)
(1 1.0675e-14 0)
(1 1.06212e-14 0)
(1 -1.12487e-17 0)
(1 7.70889e-15 0)
(1 -5.25001e-15 0)
(1 -4.38435e-15 0)
(1 -4.1745e-15 0)
(1 1.04722e-14 0)
(1 4.33163e-15 0)
(1 1.35268e-14 0)
(1 1.09023e-14 0)
(1 6.77904e-15 0)
(1 8.77623e-16 0)
(1 1.18214e-15 0)
(1 -6.01304e-15 0)
(1 8.41983e-15 0)
(1 1.04392e-14 0)
(1 1.45806e-14 0)
(1 5.85755e-15 0)
(1 1.21839e-14 0)
(1 3.35717e-16 0)
(1 1.01152e-14 0)
(1 9.39759e-15 0)
(1 3.75011e-16 0)
(1 6.12957e-15 0)
(1 6.11424e-15 0)
(1 -4.72355e-17 0)
(1 5.99056e-15 0)
(1 7.91762e-15 0)
(1 9.03599e-15 0)
(1 3.46908e-15 0)
(1 9.17803e-15 0)
(1 7.66363e-15 0)
(1 8.97503e-15 0)
(1 6.6817e-15 0)
(1 9.20352e-15 0)
(1 2.8867e-15 0)
(1 7.962e-15 0)
(1 7.1421e-16 0)
(1 1.09883e-14 0)
(1 8.45521e-15 0)
(1 1.04318e-14 0)
(1 8.37838e-15 0)
(1 6.86636e-15 0)
(1 6.30737e-16 0)
(1 1.06861e-15 0)
(1 -2.7491e-16 0)
(1 -3.30449e-15 0)
(1 -8.82713e-16 0)
(1 8.15584e-16 0)
(1 -4.24114e-15 0)
(1 -6.50213e-15 0)
(1 5.0673e-15 0)
(1 1.28677e-15 0)
(1 4.82e-15 0)
(1 6.98686e-15 0)
(1 3.72183e-15 0)
(1 -4.01228e-15 0)
(1 -4.15666e-15 0)
(1 3.29824e-15 0)
(1 -1.69173e-15 0)
(1 -6.9101e-15 0)
(1 -1.45976e-14 0)
(1 3.94219e-15 0)
(1 1.91123e-15 0)
(1 9.90754e-15 0)
(1 5.57911e-15 0)
(1 -6.54601e-19 0)
(1 -3.438e-15 0)
(1 -4.58338e-15 0)
(1 -2.3783e-15 0)
(1 6.0277e-16 0)
(1 8.73096e-16 0)
(1 -2.2772e-15 0)
(1 -2.45394e-15 0)
(1 4.21874e-16 0)
(1 4.20299e-16 0)
(1 -2.00331e-15 0)
(1 -3.58478e-15 0)
(1 3.90298e-15 0)
(1 -7.19464e-16 0)
(1 -3.37567e-15 0)
(1 2.48946e-15 0)
(1 -2.71631e-15 0)
(1 -6.93249e-15 0)
(1 -1.84586e-15 0)
(1 5.6539e-15 0)
(1 4.54965e-15 0)
(1 6.2043e-15 0)
(1 8.02622e-15 0)
(1 1.75994e-15 0)
(1 -1.78885e-15 0)
(1 -3.09305e-16 0)
(1 9.98781e-16 0)
(1 -2.04815e-15 0)
(1 4.55573e-16 0)
(1 6.50402e-15 0)
(1 1.2471e-14 0)
(1 1.29628e-14 0)
(1 7.33795e-15 0)
(1 6.03628e-15 0)
(1 8.33896e-15 0)
(1 5.07622e-15 0)
(1 1.86102e-15 0)
(1 7.20711e-15 0)
(1 1.86104e-15 0)
(1 6.19943e-15 0)
(1 1.84667e-15 0)
(1 6.36156e-15 0)
(1 9.85613e-15 0)
(1 1.44925e-14 0)
(1 7.76195e-15 0)
(1 1.03379e-14 0)
(1 8.25265e-15 0)
(1 9.1563e-15 0)
(1 4.19462e-15 0)
(1 1.11531e-15 0)
(1 9.61865e-15 0)
(1 6.59302e-15 0)
(1 6.63141e-15 0)
(1 7.40065e-15 0)
(1 7.4735e-15 0)
(1 7.17428e-15 0)
(1 4.10569e-15 0)
(1 5.9563e-15 0)
(1 4.83646e-15 0)
(1 5.03375e-16 0)
(1 6.33284e-15 0)
(1 4.26365e-15 0)
(1 6.19484e-15 0)
(1 2.11557e-15 0)
(1 6.64321e-15 0)
(1 4.72341e-15 0)
(1 2.22305e-15 0)
(1 5.52062e-15 0)
(1 5.57745e-15 0)
(1 6.84625e-15 0)
(1 6.68922e-15 0)
(1 6.1007e-15 0)
(1 5.14772e-15 0)
(1 4.22775e-15 0)
(1 1.03573e-14 0)
(1 1.46529e-14 0)
(1 1.16735e-14 0)
(1 -1.97657e-15 0)
(1 -3.3896e-15 0)
(1 -1.86242e-15 0)
(1 -8.70227e-16 0)
(1 7.81654e-15 0)
(1 8.18589e-15 0)
(1 1.1929e-14 0)
(1 7.80142e-15 0)
(1 -1.6039e-15 0)
(1 -9.8874e-15 0)
(1 -5.39096e-15 0)
(1 -8.53082e-15 0)
(1 6.88638e-16 0)
(1 -2.79662e-15 0)
(1 -2.52447e-16 0)
(1 -5.65743e-15 0)
(1 -4.48542e-15 0)
(1 -3.11651e-15 0)
(1 3.70476e-15 0)
(1 -4.29443e-15 0)
(1 -1.0859e-15 0)
(1 -7.95999e-15 0)
(1 1.21773e-14 0)
(1 1.78345e-15 0)
(1 -1.33594e-15 0)
(1 -5.37239e-15 0)
(1 -2.40934e-15 0)
(1 -6.69826e-15 0)
(1 -8.97447e-15 0)
(1 -4.94924e-15 0)
(1 -5.85985e-15 0)
(1 6.59969e-15 0)
(1 1.73476e-15 0)
(1 3.83982e-15 0)
(1 -4.01274e-15 0)
(1 1.10914e-15 0)
(1 -4.39492e-15 0)
(1 -1.66046e-15 0)
(1 3.05608e-15 0)
(1 8.15743e-15 0)
(1 -7.97064e-17 0)
(1 -3.9801e-15 0)
(1 4.97469e-15 0)
(1 4.14484e-15 0)
(1 5.76376e-15 0)
(1 6.17097e-15 0)
(1 1.00477e-15 0)
(1 -3.84259e-15 0)
(1 -8.02896e-15 0)
(1 -7.06582e-15 0)
(1 1.20704e-14 0)
(1 1.43954e-14 0)
(1 8.94692e-15 0)
(1 5.05092e-15 0)
(1 7.81543e-15 0)
(1 3.81742e-15 0)
(1 3.08502e-15 0)
(1 5.18643e-15 0)
(1 4.04406e-15 0)
(1 -1.05056e-14 0)
(1 -2.01056e-15 0)
(1 -3.00259e-16 0)
(1 1.90459e-15 0)
(1 -7.16855e-16 0)
(1 9.50352e-15 0)
(1 2.95138e-16 0)
(1 3.03842e-15 0)
(1 1.45611e-16 0)
(1 8.50439e-15 0)
(1 5.56833e-15 0)
(1 5.4349e-15 0)
(1 2.43051e-15 0)
(1 6.55405e-15 0)
(1 1.04039e-14 0)
(1 8.69236e-15 0)
(1 4.89457e-15 0)
(1 4.79552e-15 0)
(1 7.27441e-15 0)
(1 4.62016e-15 0)
(1 8.34397e-15 0)
(1 -3.95672e-16 0)
(1 3.58216e-15 0)
(1 5.86903e-15 0)
(1 1.14244e-14 0)
(1 8.85612e-15 0)
(1 6.52672e-15 0)
(1 4.22663e-15 0)
(1 5.88745e-15 0)
(1 3.22956e-15 0)
(1 6.57453e-15 0)
(1 8.40699e-16 0)
(1 1.26156e-15 0)
(1 6.48588e-15 0)
(1 5.13299e-15 0)
(1 7.27091e-15 0)
(1 1.35688e-15 0)
(1 4.69659e-15 0)