/*--------------------------------*- C++ -*----------------------------------*\
| =========                 |                                                 |
| \\      /  F ield         | OpenFOAM: The Open Source CFD Toolbox           |
|  \\    /   O peration     | Version:  v2012                                 |
|   \\  /    A nd           | Website:  www.openfoam.com                      |
|    \\/     M anipulation  |                                                 |
\*---------------------------------------------------------------------------*/
FoamFile
{
    version     2.0;
    format      ascii;
    class       surfaceScalarField;
    location    "17.25";
    object      phi;
}
// * * * * * * * * * * * * * * * * * * * * * * * * * * * * * * * * * * * * * //

dimensions      [0 3 -1 0 0 0 0];
oriented        oriented;


internalField   nonuniform List<scalar> 
130560
(
3.27628e-06
-3.27628e-06
6.55274e-06
-3.27646e-06
9.82958e-06
-3.27684e-06
1.3107e-05
-3.2774e-06
1.63851e-05
-3.27814e-06
1.96642e-05
-3.27907e-06
2.29444e-05
-3.28018e-06
2.62258e-05
-3.28147e-06
2.95088e-05
-3.28293e-06
3.27933e-05
-3.28457e-06
3.60797e-05
-3.28638e-06
3.93681e-05
-3.28836e-06
4.26586e-05
-3.2905e-06
4.59514e-05
-3.29279e-06
4.92466e-05
-3.29524e-06
5.25444e-05
-3.29783e-06
5.5845e-05
-3.30057e-06
5.91485e-05
-3.30344e-06
6.24549e-05
-3.30644e-06
6.57645e-05
-3.30956e-06
6.90773e-05
-3.3128e-06
7.23934e-05
-3.31614e-06
7.5713e-05
-3.31957e-06
7.90361e-05
-3.32309e-06
8.23628e-05
-3.3267e-06
8.56931e-05
-3.33036e-06
8.90272e-05
-3.33409e-06
9.23651e-05
-3.33786e-06
9.57067e-05
-3.34166e-06
9.90522e-05
-3.34548e-06
0.000102402
-3.34932e-06
0.000105755
-3.35314e-06
0.000109112
-3.35695e-06
0.000112472
-3.36072e-06
0.000115837
-3.36444e-06
0.000119205
-3.3681e-06
0.000122577
-3.37167e-06
0.000125952
-3.37514e-06
0.00012933
-3.37849e-06
0.000132712
-3.3817e-06
0.000136097
-3.38476e-06
0.000139484
-3.38763e-06
0.000142875
-3.39031e-06
0.000146267
-3.39277e-06
0.000149662
-3.39498e-06
0.000153059
-3.39693e-06
0.000156458
-3.39859e-06
0.000159858
-3.39993e-06
0.000163259
-3.40093e-06
0.00016666
-3.40156e-06
0.000170062
-3.4018e-06
0.000173464
-3.40162e-06
0.000176865
-3.40099e-06
0.000180265
-3.39987e-06
0.000183663
-3.39825e-06
0.000187059
-3.39609e-06
0.000190452
-3.39336e-06
0.000193842
-3.39002e-06
0.000197228
-3.38605e-06
0.00020061
-3.38141e-06
0.000203986
-3.37606e-06
0.000207356
-3.36998e-06
0.000210719
-3.36313e-06
0.000214074
-3.35548e-06
0.000217421
-3.34698e-06
0.000220759
-3.33761e-06
0.000224086
-3.32732e-06
0.000227402
-3.31608e-06
0.000230706
-3.30386e-06
0.000233997
-3.29062e-06
0.000237273
-3.27631e-06
0.000240534
-3.26092e-06
0.000243778
-3.24439e-06
0.000247005
-3.22669e-06
0.000250213
-3.20779e-06
0.000253401
-3.18766e-06
0.000256567
-3.16625e-06
0.00025971
-3.14353e-06
0.00026283
-3.11948e-06
0.000265924
-3.09405e-06
0.000268991
-3.06722e-06
0.00027203
-3.03895e-06
0.000275039
-3.00922e-06
0.000278017
-2.978e-06
0.000280963
-2.94527e-06
0.000283874
-2.91099e-06
0.000286749
-2.87514e-06
0.000289586
-2.83771e-06
0.000292385
-2.79867e-06
0.000295143
-2.75801e-06
0.000297859
-2.71571e-06
0.000300531
-2.67175e-06
0.000303157
-2.62614e-06
0.000305736
-2.57885e-06
0.000308265
-2.52988e-06
0.000310745
-2.47924e-06
0.000313172
-2.42692e-06
0.000315544
-2.37293e-06
0.000317862
-2.31726e-06
0.000320122
-2.25994e-06
0.000322323
-2.20097e-06
0.000324463
-2.14036e-06
0.000326541
-2.07814e-06
0.000328555
-2.01433e-06
0.000330504
-1.94896e-06
0.000332387
-1.88205e-06
0.0003342
-1.81363e-06
0.000335944
-1.74375e-06
0.000337616
-1.67243e-06
0.000339216
-1.59973e-06
0.000340742
-1.52568e-06
0.000342192
-1.45034e-06
0.000343566
-1.37376e-06
0.000344862
-1.29599e-06
0.000346079
-1.21709e-06
0.000347216
-1.13712e-06
0.000348272
-1.05614e-06
0.000349246
-9.74225e-07
0.000350138
-8.91437e-07
0.000350946
-8.07847e-07
0.000351669
-7.23527e-07
0.000352308
-6.38552e-07
0.000352861
-5.52997e-07
0.000353328
-4.66941e-07
0.000353708
-3.80463e-07
0.000354002
-2.93641e-07
0.000354208
-2.06556e-07
0.000354328
-1.1929e-07
0.00035436
-3.19248e-08
0.000354304
5.54585e-08
0.000354161
1.42778e-07
0.000353931
2.29952e-07
0.000353614
3.169e-07
0.000353211
4.03542e-07
0.000352721
4.89799e-07
0.000352146
5.75592e-07
0.000351485
6.60846e-07
0.000350739
7.45484e-07
0.00034991
8.29435e-07
0.000348997
9.12627e-07
0.000348002
9.94991e-07
0.000346926
1.07646e-06
0.000345769
1.15697e-06
0.000344532
1.23646e-06
0.000343217
1.31487e-06
0.000341825
1.39214e-06
0.000340357
1.46822e-06
0.000338814
1.54306e-06
0.000337197
1.61662e-06
0.000335509
1.68885e-06
0.000333749
1.7597e-06
0.00033192
1.82914e-06
0.000330023
1.89714e-06
0.000328059
1.96366e-06
0.00032603
2.02868e-06
0.000323938
2.09217e-06
0.000321784
2.15411e-06
0.000319569
2.21448e-06
0.000317296
2.27327e-06
0.000314966
2.33045e-06
0.00031258
2.38604e-06
0.00031014
2.44e-06
0.000307647
2.49236e-06
0.000305104
2.54309e-06
0.000302512
2.59221e-06
0.000299872
2.63971e-06
0.000297187
2.68561e-06
0.000294457
2.72991e-06
0.000291684
2.77262e-06
0.00028887
2.81376e-06
0.000286017
2.85335e-06
0.000283126
2.89139e-06
0.000280198
2.92791e-06
0.000277235
2.96293e-06
0.000274238
2.99647e-06
0.00027121
3.02856e-06
0.000268151
3.05921e-06
0.000265062
3.08846e-06
0.000261946
3.11633e-06
0.000258803
3.14285e-06
0.000255635
3.16805e-06
0.000252443
3.19196e-06
0.000249228
3.21462e-06
0.000245992
3.23604e-06
0.000242736
3.25627e-06
0.000239461
3.27533e-06
0.000236167
3.29326e-06
0.000232857
3.3101e-06
0.000229531
3.32586e-06
0.000226191
3.3406e-06
0.000222837
3.35434e-06
0.000219469
3.36711e-06
0.00021609
3.37895e-06
0.000212701
3.38989e-06
0.000209301
3.39997e-06
0.000205891
3.40921e-06
0.000202474
3.41766e-06
0.000199048
3.42533e-06
0.000195616
3.43227e-06
0.000192178
3.43851e-06
0.000188734
3.44407e-06
0.000185285
3.449e-06
0.000181831
3.45331e-06
0.000178374
3.45704e-06
0.000174914
3.46021e-06
0.000171451
3.46286e-06
0.000167986
3.46502e-06
0.000164519
3.46671e-06
0.000161051
3.46796e-06
0.000157583
3.46879e-06
0.000154113
3.46923e-06
0.000150644
3.46931e-06
0.000147175
3.46905e-06
0.000143707
3.46848e-06
0.000140239
3.46762e-06
0.000136772
3.46648e-06
0.000133307
3.4651e-06
0.000129844
3.4635e-06
0.000126382
3.46169e-06
0.000122922
3.45969e-06
0.000119465
3.45753e-06
0.00011601
3.45522e-06
0.000112557
3.45279e-06
0.000109107
3.45024e-06
0.000105659
3.4476e-06
0.000102214
3.44489e-06
9.87721e-05
3.44211e-06
9.53328e-05
3.43929e-06
9.18964e-05
3.43644e-06
8.84628e-05
3.43357e-06
8.50321e-05
3.43069e-06
8.16043e-05
3.42783e-06
7.81793e-05
3.42498e-06
7.47571e-05
3.42217e-06
7.13377e-05
3.4194e-06
6.79211e-05
3.41669e-06
6.4507e-05
3.41404e-06
6.10955e-05
3.41147e-06
5.76866e-05
3.40898e-06
5.428e-05
3.40659e-06
5.08757e-05
3.40429e-06
4.74736e-05
3.4021e-06
4.40736e-05
3.40003e-06
4.06755e-05
3.39807e-06
3.72792e-05
3.39625e-06
3.38847e-05
3.39455e-06
3.04917e-05
3.393e-06
2.71001e-05
3.39159e-06
2.37098e-05
3.39032e-06
2.03206e-05
3.38921e-06
1.69323e-05
3.38824e-06
1.35449e-05
3.38744e-06
1.01581e-05
3.38679e-06
6.7718e-06
3.3863e-06
3.38582e-06
3.38598e-06
3.38582e-06
3.27609e-06
-6.55237e-06
6.55237e-06
-6.55274e-06
9.82903e-06
-6.55349e-06
1.31062e-05
-6.55461e-06
1.63842e-05
-6.5561e-06
1.96631e-05
-6.55796e-06
2.29431e-05
-6.56018e-06
2.62244e-05
-6.56276e-06
2.95072e-05
-6.5657e-06
3.27916e-05
-6.56898e-06
3.60778e-05
-6.5726e-06
3.9366e-05
-6.57655e-06
4.26563e-05
-6.58083e-06
4.59489e-05
-6.58543e-06
4.9244e-05
-6.59033e-06
5.25417e-05
-6.59553e-06
5.58422e-05
-6.60101e-06
5.91455e-05
-6.60676e-06
6.24518e-05
-6.61277e-06
6.57613e-05
-6.61902e-06
6.9074e-05
-6.62549e-06
7.239e-05
-6.63218e-06
7.57095e-05
-6.63906e-06
7.90325e-05
-6.64611e-06
8.23591e-05
-6.65333e-06
8.56894e-05
-6.66067e-06
8.90235e-05
-6.66813e-06
9.23613e-05
-6.67568e-06
9.5703e-05
-6.6833e-06
9.90484e-05
-6.69096e-06
0.000102398
-6.69864e-06
0.000105751
-6.70631e-06
0.000109108
-6.71393e-06
0.000112469
-6.72149e-06
0.000115833
-6.72895e-06
0.000119201
-6.73628e-06
0.000122573
-6.74344e-06
0.000125948
-6.75039e-06
0.000129327
-6.75711e-06
0.000132709
-6.76356e-06
0.000136094
-6.76969e-06
0.000139482
-6.77547e-06
0.000142872
-6.78085e-06
0.000146265
-6.78578e-06
0.00014966
-6.79023e-06
0.000153058
-6.79415e-06
0.000156457
-6.79749e-06
0.000159857
-6.8002e-06
0.000163258
-6.80223e-06
0.00016666
-6.80352e-06
0.000170062
-6.80403e-06
0.000173464
-6.80369e-06
0.000176866
-6.80245e-06
0.000180266
-6.80026e-06
0.000183665
-6.79704e-06
0.000187062
-6.79275e-06
0.000190456
-6.78732e-06
0.000193846
-6.78068e-06
0.000197233
-6.77276e-06
0.000200615
-6.76352e-06
0.000203992
-6.75287e-06
0.000207363
-6.74074e-06
0.000210727
-6.72708e-06
0.000214083
-6.7118e-06
0.000217431
-6.69484e-06
0.000220769
-6.67613e-06
0.000224098
-6.65559e-06
0.000227415
-6.63315e-06
0.00023072
-6.60875e-06
0.000234011
-6.58229e-06
0.000237289
-6.55373e-06
0.000240551
-6.52297e-06
0.000243796
-6.48994e-06
0.000247024
-6.45459e-06
0.000250233
-6.41682e-06
0.000253422
-6.37659e-06
0.00025659
-6.3338e-06
0.000259735
-6.2884e-06
0.000262855
-6.24033e-06
0.000265951
-6.1895e-06
0.00026902
-6.13587e-06
0.00027206
-6.07937e-06
0.000275071
-6.01994e-06
0.00027805
-5.95753e-06
0.000280997
-5.89208e-06
0.00028391
-5.82354e-06
0.000286786
-5.75187e-06
0.000289626
-5.67702e-06
0.000292426
-5.59896e-06
0.000295186
-5.51765e-06
0.000297903
-5.43306e-06
0.000300576
-5.34517e-06
0.000303204
-5.25394e-06
0.000305785
-5.15937e-06
0.000308316
-5.06145e-06
0.000310797
-4.96016e-06
0.000313226
-4.85552e-06
0.0003156
-4.74752e-06
0.000317919
-4.63618e-06
0.000320181
-4.52152e-06
0.000322383
-4.40356e-06
0.000324525
-4.28233e-06
0.000326605
-4.15787e-06
0.000328621
-4.03023e-06
0.000330572
-3.89945e-06
0.000332455
-3.7656e-06
0.00033427
-3.62873e-06
0.000336015
-3.48892e-06
0.000337689
-3.34625e-06
0.00033929
-3.20079e-06
0.000340817
-3.05265e-06
0.000342269
-2.90192e-06
0.000343644
-2.7487e-06
0.000344941
-2.5931e-06
0.000346159
-2.43524e-06
0.000347297
-2.27524e-06
0.000348354
-2.11322e-06
0.000349329
-1.94932e-06
0.000350221
-1.78367e-06
0.00035103
-1.61642e-06
0.000351754
-1.4477e-06
0.000352393
-1.27768e-06
0.000352947
-1.10649e-06
0.000353414
-9.34302e-07
0.000353795
-7.61265e-07
0.000354089
-5.8754e-07
0.000354296
-4.1329e-07
0.000354415
-2.38676e-07
0.000354447
-6.38637e-08
0.000354391
1.10985e-07
0.000354249
2.85705e-07
0.000354018
4.60134e-07
0.000353701
6.34111e-07
0.000353297
8.07473e-07
0.000352807
9.80065e-07
0.000352231
1.15173e-06
0.000351569
1.32231e-06
0.000350823
1.49166e-06
0.000349993
1.65963e-06
0.00034908
1.82609e-06
0.000348084
1.99088e-06
0.000347006
2.15388e-06
0.000345848
2.31496e-06
0.000344611
2.474e-06
0.000343295
2.63087e-06
0.000341901
2.78547e-06
0.000340432
2.93769e-06
0.000338888
3.08742e-06
0.00033727
3.23457e-06
0.000335579
3.37907e-06
0.000333818
3.52081e-06
0.000331988
3.65973e-06
0.000330089
3.79576e-06
0.000328124
3.92883e-06
0.000326094
4.05889e-06
0.000324
4.18589e-06
0.000321844
4.30979e-06
0.000319628
4.43055e-06
0.000317353
4.54813e-06
0.000315021
4.66252e-06
0.000312634
4.77369e-06
0.000310192
4.88163e-06
0.000307698
4.98633e-06
0.000305153
5.0878e-06
0.000302559
5.18603e-06
0.000299918
5.28103e-06
0.000297231
5.37281e-06
0.000294499
5.4614e-06
0.000291725
5.54682e-06
0.00028891
5.62909e-06
0.000286055
5.70824e-06
0.000283162
5.7843e-06
0.000280233
5.85733e-06
0.000277268
5.92734e-06
0.00027427
5.9944e-06
0.00027124
6.05854e-06
0.00026818
6.11982e-06
0.00026509
6.1783e-06
0.000261972
6.23401e-06
0.000258828
6.28702e-06
0.000255659
6.3374e-06
0.000252465
6.38519e-06
0.00024925
6.43046e-06
0.000246012
6.47328e-06
0.000242755
6.5137e-06
0.000239479
6.55179e-06
0.000236184
6.58762e-06
0.000232873
6.62126e-06
0.000229546
6.65276e-06
0.000226205
6.6822e-06
0.000222849
6.70964e-06
0.000219481
6.73515e-06
0.000216101
6.7588e-06
0.000212711
6.78065e-06
0.00020931
6.80077e-06
0.0002059
6.81922e-06
0.000202481
6.83608e-06
0.000199055
6.8514e-06
0.000195622
6.86525e-06
0.000192183
6.87769e-06
0.000188738
6.88879e-06
0.000185289
6.8986e-06
0.000181835
6.9072e-06
0.000178377
6.91462e-06
0.000174917
6.92095e-06
0.000171453
6.92622e-06
0.000167988
6.93051e-06
0.000164521
6.93386e-06
0.000161052
6.93632e-06
0.000157583
6.93796e-06
0.000154113
6.93883e-06
0.000150644
6.93896e-06
0.000147174
6.93842e-06
0.000143706
6.93725e-06
0.000140238
6.9355e-06
0.000136771
6.93321e-06
0.000133306
6.93043e-06
0.000129842
6.92719e-06
0.00012638
6.92355e-06
0.00012292
6.91954e-06
0.000119463
6.9152e-06
0.000116007
6.91057e-06
0.000112554
6.90568e-06
0.000109104
6.90058e-06
0.000105656
6.89528e-06
0.000102211
6.88984e-06
9.87692e-05
6.88427e-06
9.53299e-05
6.87861e-06
9.18935e-05
6.87289e-06
8.84599e-05
6.86713e-06
8.50292e-05
6.86137e-06
8.16014e-05
6.85563e-06
7.81765e-05
6.84993e-06
7.47543e-05
6.84429e-06
7.1335e-05
6.83875e-06
6.79184e-05
6.83331e-06
6.45044e-05
6.82801e-06
6.1093e-05
6.82286e-06
5.76841e-05
6.81787e-06
5.42777e-05
6.81307e-06
5.08735e-05
6.80847e-06
4.74715e-05
6.80408e-06
4.40716e-05
6.79993e-06
4.06736e-05
6.79602e-06
3.72775e-05
6.79236e-06
3.38831e-05
6.78897e-06
3.04903e-05
6.78585e-06
2.70988e-05
6.78303e-06
2.37087e-05
6.78049e-06
2.03196e-05
6.77826e-06
1.69315e-05
6.77633e-06
1.35442e-05
6.77472e-06
1.01576e-05
6.77342e-06
6.77147e-06
6.77244e-06
3.38565e-06
6.7718e-06
6.77147e-06
3.27572e-06
-9.82808e-06
6.55162e-06
-9.82865e-06
9.8279e-06
-9.82977e-06
1.31047e-05
-9.83146e-06
1.63823e-05
-9.8337e-06
1.96609e-05
-9.83649e-06
2.29405e-05
-9.83982e-06
2.62214e-05
-9.8437e-06
2.95039e-05
-9.84811e-06
3.27879e-05
-9.85304e-06
3.60738e-05
-9.85848e-06
3.93617e-05
-9.86443e-06
4.26517e-05
-9.87086e-06
4.5944e-05
-9.87776e-06
4.92388e-05
-9.88513e-06
5.25362e-05
-9.89294e-06
5.58364e-05
-9.90118e-06
5.91395e-05
-9.90982e-06
6.24456e-05
-9.91885e-06
6.57548e-05
-9.92824e-06
6.90673e-05
-9.93797e-06
7.23831e-05
-9.94803e-06
7.57024e-05
-9.95837e-06
7.90253e-05
-9.96898e-06
8.23518e-05
-9.97982e-06
8.5682e-05
-9.99087e-06
8.90159e-05
-1.00021e-05
9.23537e-05
-1.00134e-05
9.56953e-05
-1.00249e-05
9.90407e-05
-1.00364e-05
0.00010239
-1.0048e-05
0.000105743
-1.00595e-05
0.0001091
-1.0071e-05
0.000112461
-1.00824e-05
0.000115826
-1.00936e-05
0.000119194
-1.01046e-05
0.000122566
-1.01154e-05
0.000125942
-1.01259e-05
0.000129321
-1.0136e-05
0.000132703
-1.01457e-05
0.000136088
-1.0155e-05
0.000139476
-1.01637e-05
0.000142867
-1.01718e-05
0.000146261
-1.01793e-05
0.000149657
-1.0186e-05
0.000153054
-1.0192e-05
0.000156454
-1.0197e-05
0.000159855
-1.02012e-05
0.000163257
-1.02043e-05
0.00016666
-1.02063e-05
0.000170063
-1.02071e-05
0.000173466
-1.02067e-05
0.000176868
-1.02049e-05
0.000180269
-1.02017e-05
0.000183669
-1.01969e-05
0.000187067
-1.01906e-05
0.000190462
-1.01825e-05
0.000193854
-1.01726e-05
0.000197242
-1.01608e-05
0.000200626
-1.0147e-05
0.000204004
-1.01311e-05
0.000207376
-1.0113e-05
0.000210742
-1.00926e-05
0.0002141
-1.00698e-05
0.00021745
-1.00445e-05
0.00022079
-1.00165e-05
0.00022412
-9.98576e-06
0.000227439
-9.9522e-06
0.000230746
-9.91568e-06
0.00023404
-9.87609e-06
0.000237319
-9.83333e-06
0.000240584
-9.78728e-06
0.000243832
-9.73783e-06
0.000247062
-9.68489e-06
0.000250273
-9.62833e-06
0.000253465
-9.56806e-06
0.000256635
-9.50397e-06
0.000259783
-9.43596e-06
0.000262906
-9.36392e-06
0.000266004
-9.28776e-06
0.000269076
-9.20739e-06
0.000272119
-9.12271e-06
0.000275133
-9.03364e-06
0.000278116
-8.94009e-06
0.000281065
-8.84197e-06
0.000283981
-8.73923e-06
0.000286861
-8.63178e-06
0.000289704
-8.51956e-06
0.000292507
-8.40251e-06
0.00029527
-8.28058e-06
0.000297991
-8.15373e-06
0.000300667
-8.02191e-06
0.000303299
-7.88509e-06
0.000305883
-7.74325e-06
0.000308417
-7.59637e-06
0.000310902
-7.44444e-06
0.000313334
-7.28747e-06
0.000315712
-7.12546e-06
0.000318034
-6.95843e-06
0.000320299
-6.7864e-06
0.000322505
-6.60942e-06
0.00032465
-6.42753e-06
0.000326733
-6.24079e-06
0.000328752
-6.04926e-06
0.000330705
-5.85302e-06
0.000332592
-5.65216e-06
0.00033441
-5.44677e-06
0.000336158
-5.23696e-06
0.000337835
-5.02284e-06
0.000339438
-4.80455e-06
0.000340968
-4.58222e-06
0.000342422
-4.35599e-06
0.000343799
-4.12602e-06
0.000345099
-3.89248e-06
0.000346319
-3.65554e-06
0.000347459
-3.41537e-06
0.000348518
-3.17218e-06
0.000349495
-2.92616e-06
0.000350389
-2.67751e-06
0.000351199
-2.42645e-06
0.000351924
-2.1732e-06
0.000352565
-1.91797e-06
0.000353119
-1.66099e-06
0.000353587
-1.40251e-06
0.000353969
-1.14275e-06
0.000354263
-8.81966e-07
0.00035447
-6.20387e-07
0.00035459
-3.58263e-07
0.000354622
-9.58391e-08
0.000354566
1.66638e-07
0.000354423
4.28922e-07
0.000354192
6.90768e-07
0.000353875
9.51933e-07
0.00035347
1.21218e-06
0.000352979
1.47126e-06
0.000352401
1.72894e-06
0.000351739
1.985e-06
0.000350991
2.23921e-06
0.000350159
2.49135e-06
0.000349244
2.7412e-06
0.000348247
2.98856e-06
0.000347167
3.23322e-06
0.000346007
3.475e-06
0.000344768
3.7137e-06
0.000343449
3.94915e-06
0.000342054
4.18118e-06
0.000340582
4.40963e-06
0.000339035
4.63435e-06
0.000337414
4.85519e-06
0.000335721
5.07203e-06
0.000333957
5.28474e-06
0.000332124
5.49321e-06
0.000330222
5.69733e-06
0.000328254
5.89701e-06
0.000326221
6.09216e-06
0.000324124
6.28272e-06
0.000321965
6.46861e-06
0.000319746
6.64979e-06
0.000317468
6.82619e-06
0.000315132
6.9978e-06
0.000312742
7.16457e-06
0.000310297
7.32649e-06
0.000307799
7.48355e-06
0.000305252
7.63574e-06
0.000302654
7.78307e-06
0.00030001
7.92556e-06
0.00029732
8.06322e-06
0.000294585
8.19608e-06
0.000291808
8.32417e-06
0.000288989
8.44753e-06
0.000286131
8.56621e-06
0.000283235
8.68026e-06
0.000280303
8.78974e-06
0.000277335
8.89471e-06
0.000274335
8.99524e-06
0.000271302
9.09139e-06
0.000268238
9.18325e-06
0.000265146
9.27089e-06
0.000262025
9.35439e-06
0.000258878
9.43384e-06
0.000255707
9.50932e-06
0.000252511
9.58093e-06
0.000249292
9.64877e-06
0.000246053
9.71291e-06
0.000242793
9.77346e-06
0.000239514
9.83052e-06
0.000236218
9.88418e-06
0.000232905
9.93455e-06
0.000229576
9.98172e-06
0.000226232
1.00258e-05
0.000222875
1.00669e-05
0.000219505
1.01051e-05
0.000216123
1.01404e-05
0.000212731
1.01731e-05
0.000209328
1.02032e-05
0.000205917
1.02308e-05
0.000202497
1.0256e-05
0.000199069
1.02789e-05
0.000195635
1.02996e-05
0.000192194
1.03182e-05
0.000188748
1.03348e-05
0.000185297
1.03494e-05
0.000181842
1.03622e-05
0.000178384
1.03733e-05
0.000174922
1.03827e-05
0.000171458
1.03906e-05
0.000167991
1.03969e-05
0.000164523
1.04019e-05
0.000161054
1.04055e-05
0.000157584
1.04079e-05
0.000154114
1.04091e-05
0.000150643
1.04093e-05
0.000147173
1.04084e-05
0.000143704
1.04066e-05
0.000140235
1.04039e-05
0.000136768
1.04004e-05
0.000133302
1.03962e-05
0.000129838
1.03913e-05
0.000126376
1.03858e-05
0.000122916
1.03797e-05
0.000119458
1.03732e-05
0.000116002
1.03662e-05
0.000112549
1.03588e-05
0.000109099
1.03511e-05
0.000105651
1.03431e-05
0.000102206
1.03349e-05
9.87636e-05
1.03265e-05
9.53242e-05
1.0318e-05
9.18877e-05
1.03094e-05
8.84541e-05
1.03007e-05
8.50235e-05
1.0292e-05
8.15957e-05
1.02834e-05
7.81708e-05
1.02748e-05
7.47488e-05
1.02663e-05
7.13296e-05
1.0258e-05
6.79131e-05
1.02498e-05
6.44993e-05
1.02418e-05
6.1088e-05
1.02341e-05
5.76793e-05
1.02266e-05
5.42731e-05
1.02194e-05
5.08691e-05
1.02124e-05
4.74673e-05
1.02058e-05
4.40677e-05
1.01996e-05
4.067e-05
1.01937e-05
3.72741e-05
1.01882e-05
3.388e-05
1.01831e-05
3.04874e-05
1.01784e-05
2.70963e-05
1.01742e-05
2.37064e-05
1.01704e-05
2.03177e-05
1.0167e-05
1.69299e-05
1.01641e-05
1.35429e-05
1.01617e-05
1.01566e-05
1.01597e-05
6.77082e-06
1.01583e-05
3.38533e-06
1.01573e-05
1.01568e-05
3.27515e-06
-1.31032e-05
6.55049e-06
-1.3104e-05
9.82622e-06
-1.31055e-05
1.31025e-05
-1.31077e-05
1.63795e-05
-1.31107e-05
1.96575e-05
-1.31145e-05
2.29366e-05
-1.31189e-05
2.6217e-05
-1.31241e-05
2.94989e-05
-1.313e-05
3.27825e-05
-1.31366e-05
3.60678e-05
-1.31439e-05
3.93552e-05
-1.31518e-05
4.26448e-05
-1.31604e-05
4.59367e-05
-1.31696e-05
4.9231e-05
-1.31795e-05
5.2528e-05
-1.31899e-05
5.58277e-05
-1.32009e-05
5.91304e-05
-1.32125e-05
6.24361e-05
-1.32246e-05
6.5745e-05
-1.32371e-05
6.90572e-05
-1.32501e-05
7.23727e-05
-1.32636e-05
7.56918e-05
-1.32774e-05
7.90144e-05
-1.32916e-05
8.23407e-05
-1.33061e-05
8.56707e-05
-1.33209e-05
8.90045e-05
-1.33359e-05
9.23422e-05
-1.33511e-05
9.56837e-05
-1.33664e-05
9.90291e-05
-1.33819e-05
0.000102378
-1.33973e-05
0.000105732
-1.34128e-05
0.000109089
-1.34281e-05
0.00011245
-1.34434e-05
0.000115815
-1.34584e-05
0.000119183
-1.34732e-05
0.000122556
-1.34877e-05
0.000125931
-1.35017e-05
0.000129311
-1.35153e-05
0.000132693
-1.35284e-05
0.000136079
-1.35408e-05
0.000139468
-1.35525e-05
0.00014286
-1.35635e-05
0.000146254
-1.35735e-05
0.000149651
-1.35826e-05
0.000153049
-1.35906e-05
0.00015645
-1.35975e-05
0.000159852
-1.36031e-05
0.000163255
-1.36074e-05
0.000166659
-1.36102e-05
0.000170063
-1.36114e-05
0.000173467
-1.3611e-05
0.000176871
-1.36087e-05
0.000180274
-1.36046e-05
0.000183676
-1.35984e-05
0.000187075
-1.35901e-05
0.000190472
-1.35795e-05
0.000193866
-1.35664e-05
0.000197256
-1.35509e-05
0.000200642
-1.35326e-05
0.000204022
-1.35116e-05
0.000207397
-1.34877e-05
0.000210765
-1.34606e-05
0.000214125
-1.34303e-05
0.000217477
-1.33967e-05
0.000220821
-1.33596e-05
0.000224154
-1.33188e-05
0.000227476
-1.32742e-05
0.000230786
-1.32257e-05
0.000234082
-1.31731e-05
0.000237365
-1.31162e-05
0.000240633
-1.3055e-05
0.000243884
-1.29892e-05
0.000247118
-1.29188e-05
0.000250334
-1.28436e-05
0.000253529
-1.27634e-05
0.000256703
-1.26781e-05
0.000259855
-1.25875e-05
0.000262982
-1.24916e-05
0.000266085
-1.23902e-05
0.000269161
-1.22832e-05
0.000272208
-1.21705e-05
0.000275227
-1.20518e-05
0.000278214
-1.19272e-05
0.000281168
-1.17965e-05
0.000284089
-1.16596e-05
0.000286973
-1.15165e-05
0.000289821
-1.13669e-05
0.000292629
-1.12109e-05
0.000295397
-1.10484e-05
0.000298123
-1.08794e-05
0.000300804
-1.07036e-05
0.00030344
-1.05213e-05
0.000306029
-1.03322e-05
0.000308569
-1.01363e-05
0.000311059
-9.93377e-06
0.000313496
-9.72446e-06
0.000315879
-9.50842e-06
0.000318206
-9.28567e-06
0.000320476
-9.05624e-06
0.000322686
-8.8202e-06
0.000324837
-8.57759e-06
0.000326924
-8.3285e-06
0.000328948
-8.07301e-06
0.000330906
-7.81122e-06
0.000332797
-7.54325e-06
0.00033462
-7.26923e-06
0.000336372
-6.9893e-06
0.000338053
-6.70362e-06
0.000339661
-6.41235e-06
0.000341194
-6.11568e-06
0.000342652
-5.8138e-06
0.000344033
-5.50692e-06
0.000345336
-5.19526e-06
0.000346559
-4.87905e-06
0.000347702
-4.55854e-06
0.000348764
-4.23398e-06
0.000349744
-3.90563e-06
0.00035064
-3.57377e-06
0.000351452
-3.23869e-06
0.000352179
-2.90066e-06
0.000352822
-2.56e-06
0.000353378
-2.21701e-06
0.000353847
-1.87199e-06
0.00035423
-1.52528e-06
0.000354525
-1.17718e-06
0.000354732
-8.28031e-07
0.000354852
-4.7815e-07
0.000354884
-1.27869e-07
0.000354828
2.22482e-07
0.000354685
5.72575e-07
0.000354453
9.22082e-07
0.000354135
1.27068e-06
0.000353729
1.61804e-06
0.000353236
1.96384e-06
0.000352657
2.30778e-06
0.000351993
2.64955e-06
0.000351243
2.98884e-06
0.000350409
3.32535e-06
0.000349492
3.65881e-06
0.000348491
3.98893e-06
0.000347409
4.31545e-06
0.000346246
4.63811e-06
0.000345003
4.95665e-06
0.000343681
5.27085e-06
0.000342282
5.58047e-06
0.000340806
5.88531e-06
0.000339256
6.18515e-06
0.000337631
6.47982e-06
0.000335934
6.76913e-06
0.000334166
7.05292e-06
0.000332328
7.33103e-06
0.000330422
7.60334e-06
0.000328449
7.86971e-06
0.000326411
8.13003e-06
0.00032431
8.38421e-06
0.000322146
8.63215e-06
0.000319922
8.87379e-06
0.000317639
9.10906e-06
0.000315299
9.3379e-06
0.000312904
9.5603e-06
0.000310454
9.77621e-06
0.000307952
9.98563e-06
0.000305399
1.01885e-05
0.000302797
1.0385e-05
0.000300148
1.05749e-05
0.000297452
1.07584e-05
0.000294713
1.09355e-05
0.000291931
1.11062e-05
0.000289108
1.12707e-05
0.000286245
1.14288e-05
0.000283345
1.15808e-05
0.000280408
1.17267e-05
0.000277436
1.18665e-05
0.000274431
1.20005e-05
0.000271394
1.21285e-05
0.000268326
1.22509e-05
0.000265229
1.23676e-05
0.000262105
1.24788e-05
0.000258954
1.25846e-05
0.000255778
1.26851e-05
0.000252579
1.27805e-05
0.000249357
1.28708e-05
0.000246113
1.29561e-05
0.00024285
1.30367e-05
0.000239568
1.31126e-05
0.000236268
1.3184e-05
0.000232952
1.3251e-05
0.00022962
1.33138e-05
0.000226273
1.33724e-05
0.000222913
1.3427e-05
0.00021954
1.34778e-05
0.000216156
1.35248e-05
0.000212761
1.35682e-05
0.000209356
1.36082e-05
0.000205942
1.36448e-05
0.00020252
1.36783e-05
0.00019909
1.37087e-05
0.000195653
1.37361e-05
0.000192211
1.37608e-05
0.000188763
1.37827e-05
0.00018531
1.38021e-05
0.000181853
1.3819e-05
0.000178393
1.38337e-05
0.00017493
1.38461e-05
0.000171464
1.38564e-05
0.000167996
1.38648e-05
0.000164527
1.38712e-05
0.000161056
1.3876e-05
0.000157585
1.3879e-05
0.000154114
1.38806e-05
0.000150642
1.38806e-05
0.000147171
1.38794e-05
0.000143701
1.38768e-05
0.000140232
1.38731e-05
0.000136764
1.38684e-05
0.000133298
1.38627e-05
0.000129833
1.3856e-05
0.00012637
1.38486e-05
0.000122909
1.38404e-05
0.000119451
1.38316e-05
0.000115995
1.38222e-05
0.000112542
1.38122e-05
0.000109091
1.38019e-05
0.000105643
1.37912e-05
0.000102197
1.37802e-05
9.87551e-05
1.37689e-05
9.53156e-05
1.37575e-05
9.18791e-05
1.37459e-05
8.84455e-05
1.37343e-05
8.50149e-05
1.37227e-05
8.15872e-05
1.37111e-05
7.81624e-05
1.36996e-05
7.47405e-05
1.36882e-05
7.13214e-05
1.36771e-05
6.79051e-05
1.36661e-05
6.44915e-05
1.36554e-05
6.10806e-05
1.3645e-05
5.76721e-05
1.3635e-05
5.42661e-05
1.36253e-05
5.08625e-05
1.36161e-05
4.74611e-05
1.36072e-05
4.40618e-05
1.35989e-05
4.06645e-05
1.3591e-05
3.72691e-05
1.35837e-05
3.38753e-05
1.35768e-05
3.04832e-05
1.35706e-05
2.70925e-05
1.35649e-05
2.37031e-05
1.35598e-05
2.03148e-05
1.35553e-05
1.69275e-05
1.35514e-05
1.3541e-05
1.35482e-05
1.01552e-05
1.35456e-05
6.76984e-06
1.35436e-05
3.38484e-06
1.35423e-05
1.35416e-05
3.2744e-06
-1.63776e-05
6.54899e-06
-1.63786e-05
9.82396e-06
-1.63805e-05
1.30995e-05
-1.63833e-05
1.63758e-05
-1.6387e-05
1.96531e-05
-1.63917e-05
2.29314e-05
-1.63973e-05
2.62111e-05
-1.64038e-05
2.94923e-05
-1.64112e-05
3.27752e-05
-1.64195e-05
3.60599e-05
-1.64286e-05
3.93466e-05
-1.64385e-05
4.26355e-05
-1.64493e-05
4.59268e-05
-1.64609e-05
4.92205e-05
-1.64732e-05
5.2517e-05
-1.64863e-05
5.58162e-05
-1.65001e-05
5.91183e-05
-1.65146e-05
6.24235e-05
-1.65298e-05
6.5732e-05
-1.65455e-05
6.90437e-05
-1.65619e-05
7.23589e-05
-1.65787e-05
7.56776e-05
-1.65961e-05
7.89999e-05
-1.66139e-05
8.23259e-05
-1.66321e-05
8.56557e-05
-1.66507e-05
8.89893e-05
-1.66695e-05
9.23268e-05
-1.66886e-05
9.56682e-05
-1.67079e-05
9.90136e-05
-1.67273e-05
0.000102363
-1.67467e-05
0.000105716
-1.67661e-05
0.000109074
-1.67854e-05
0.000112435
-1.68046e-05
0.0001158
-1.68235e-05
0.000119169
-1.68421e-05
0.000122542
-1.68603e-05
0.000125918
-1.68781e-05
0.000129298
-1.68952e-05
0.000132681
-1.69116e-05
0.000136067
-1.69273e-05
0.000139457
-1.69421e-05
0.00014285
-1.6956e-05
0.000146245
-1.69687e-05
0.000149642
-1.69802e-05
0.000153042
-1.69905e-05
0.000156444
-1.69992e-05
0.000159847
-1.70065e-05
0.000163252
-1.7012e-05
0.000166657
-1.70157e-05
0.000170063
-1.70174e-05
0.00017347
-1.70171e-05
0.000176875
-1.70145e-05
0.00018028
-1.70095e-05
0.000183684
-1.7002e-05
0.000187086
-1.69919e-05
0.000190485
-1.69788e-05
0.000193881
-1.69628e-05
0.000197274
-1.69436e-05
0.000200663
-1.69211e-05
0.000204046
-1.6895e-05
0.000207424
-1.68653e-05
0.000210795
-1.68318e-05
0.000214159
-1.67942e-05
0.000217514
-1.67525e-05
0.000220861
-1.67063e-05
0.000224198
-1.66556e-05
0.000227524
-1.66001e-05
0.000230838
-1.65398e-05
0.000234139
-1.64743e-05
0.000237427
-1.64035e-05
0.000240699
-1.63272e-05
0.000243955
-1.62453e-05
0.000247194
-1.61575e-05
0.000250414
-1.60637e-05
0.000253614
-1.59638e-05
0.000256793
-1.58574e-05
0.00025995
-1.57445e-05
0.000263084
-1.56249e-05
0.000266192
-1.54983e-05
0.000269273
-1.53648e-05
0.000272327
-1.52241e-05
0.000275351
-1.5076e-05
0.000278344
-1.49204e-05
0.000281305
-1.47572e-05
0.000284232
-1.45863e-05
0.000287123
-1.44075e-05
0.000289977
-1.42207e-05
0.000292791
-1.40259e-05
0.000295566
-1.38229e-05
0.000298298
-1.36116e-05
0.000300987
-1.33921e-05
0.000303629
-1.31641e-05
0.000306225
-1.29278e-05
0.000308772
-1.26831e-05
0.000311268
-1.24298e-05
0.000313712
-1.21682e-05
0.000316101
-1.18981e-05
0.000318435
-1.16196e-05
0.000320712
-1.13327e-05
0.000322929
-1.10375e-05
0.000325086
-1.07341e-05
0.00032718
-1.04226e-05
0.00032921
-1.01031e-05
0.000331174
-9.7756e-06
0.000333071
-9.4404e-06
0.0003349
-9.09761e-06
0.000336658
-8.7474e-06
0.000338344
-8.38998e-06
0.000339957
-8.02555e-06
0.000341496
-7.65434e-06
0.000342959
-7.27661e-06
0.000344344
-6.89259e-06
0.000345652
-6.50259e-06
0.00034688
-6.10687e-06
0.000348027
-5.70576e-06
0.000349092
-5.29956e-06
0.000350075
-4.88861e-06
0.000350975
-4.47326e-06
0.00035179
-4.05386e-06
0.00035252
-3.63077e-06
0.000353164
-3.20437e-06
0.000353723
-2.77504e-06
0.000354194
-2.34318e-06
0.000354578
-1.90919e-06
0.000354874
-1.47346e-06
0.000355082
-1.03641e-06
0.000355203
-5.98439e-07
0.000355235
-1.59972e-07
0.000355179
2.78584e-07
0.000355034
7.16814e-07
0.000354802
1.15431e-06
0.000354482
1.59065e-06
0.000354075
2.02545e-06
0.00035358
2.4583e-06
0.000352999
2.8888e-06
0.000352332
3.31657e-06
0.00035158
3.74123e-06
0.000350743
4.16241e-06
0.000349822
4.57976e-06
0.000348818
4.99291e-06
0.000347732
5.40154e-06
0.000346565
5.80533e-06
0.000345317
6.20395e-06
0.000343991
6.59712e-06
0.000342587
6.98455e-06
0.000341106
7.36597e-06
0.00033955
7.74114e-06
0.00033792
8.1098e-06
0.000336218
8.47174e-06
0.000334444
8.82676e-06
0.0003326
9.17467e-06
0.000330688
9.51528e-06
0.000328709
9.84846e-06
0.000326665
1.0174e-05
0.000324558
1.04919e-05
0.000322388
1.0802e-05
0.000320158
1.11042e-05
0.000317868
1.13983e-05
0.000315522
1.16845e-05
0.000313119
1.19625e-05
0.000310663
1.22324e-05
0.000308155
1.24942e-05
0.000305595
1.27478e-05
0.000302987
1.29933e-05
0.000300331
1.32307e-05
0.00029763
1.346e-05
0.000294884
1.36813e-05
0.000292095
1.38946e-05
0.000289266
1.41e-05
0.000286397
1.42976e-05
0.000283491
1.44874e-05
0.000280548
1.46696e-05
0.00027757
1.48443e-05
0.000274559