/*--------------------------------*- C++ -*----------------------------------*\
| =========                 |                                                 |
| \\      /  F ield         | OpenFOAM: The Open Source CFD Toolbox           |
|  \\    /   O peration     | Version:  v2012                                 |
|   \\  /    A nd           | Website:  www.openfoam.com                      |
|    \\/     M anipulation  |                                                 |
\*---------------------------------------------------------------------------*/
FoamFile
{
    version     2.0;
    format      ascii;
    class       volVectorField;
    location    "17.25";
    object      Psi;
}
// * * * * * * * * * * * * * * * * * * * * * * * * * * * * * * * * * * * * * //

dimensions      [0 2 -1 0 0 0 0];


internalField   nonuniform List<vector> 
65536
(
(0 0 8.18941e-06)
(0 0 2.45687e-05)
(0 0 4.09495e-05)
(0 0 5.73325e-05)
(0 0 7.37188e-05)
(0 0 9.01093e-05)
(0 0 0.000106505)
(0 0 0.000122906)
(0 0 0.000139315)
(0 0 0.000155731)
(0 0 0.000172156)
(0 0 0.00018859)
(0 0 0.000205035)
(0 0 0.00022149)
(0 0 0.000237958)
(0 0 0.000254438)
(0 0 0.000270931)
(0 0 0.000287439)
(0 0 0.000303961)
(0 0 0.000320498)
(0 0 0.000337051)
(0 0 0.000353621)
(0 0 0.000370207)
(0 0 0.000386811)
(0 0 0.000403433)
(0 0 0.000420073)
(0 0 0.000436731)
(0 0 0.000453408)
(0 0 0.000470104)
(0 0 0.000486819)
(0 0 0.000503553)
(0 0 0.000520306)
(0 0 0.000537079)
(0 0 0.00055387)
(0 0 0.00057068)
(0 0 0.000587508)
(0 0 0.000604355)
(0 0 0.000621219)
(0 0 0.0006381)
(0 0 0.000654997)
(0 0 0.00067191)
(0 0 0.000688838)
(0 0 0.00070578)
(0 0 0.000722734)
(0 0 0.000739701)
(0 0 0.000756677)
(0 0 0.000773663)
(0 0 0.000790656)
(0 0 0.000807655)
(0 0 0.000824658)
(0 0 0.000841664)
(0 0 0.000858669)
(0 0 0.000875672)
(0 0 0.000892671)
(0 0 0.000909664)
(0 0 0.000926646)
(0 0 0.000943617)
(0 0 0.000960572)
(0 0 0.00097751)
(0 0 0.000994425)
(0 0 0.00101132)
(0 0 0.00102818)
(0 0 0.00104501)
(0 0 0.0010618)
(0 0 0.00107856)
(0 0 0.00109526)
(0 0 0.00111192)
(0 0 0.00112853)
(0 0 0.00114508)
(0 0 0.00116156)
(0 0 0.00117798)
(0 0 0.00119432)
(0 0 0.00121058)
(0 0 0.00122675)
(0 0 0.00124284)
(0 0 0.00125882)
(0 0 0.00127471)
(0 0 0.00129048)
(0 0 0.00130614)
(0 0 0.00132167)
(0 0 0.00133707)
(0 0 0.00135233)
(0 0 0.00136745)
(0 0 0.00138242)
(0 0 0.00139723)
(0 0 0.00141187)
(0 0 0.00142633)
(0 0 0.00144062)
(0 0 0.00145471)
(0 0 0.0014686)
(0 0 0.00148228)
(0 0 0.00149575)
(0 0 0.001509)
(0 0 0.00152201)
(0 0 0.00153478)
(0 0 0.00154731)
(0 0 0.00155957)
(0 0 0.00157157)
(0 0 0.0015833)
(0 0 0.00159475)
(0 0 0.0016059)
(0 0 0.00161676)
(0 0 0.00162731)
(0 0 0.00163754)
(0 0 0.00164745)
(0 0 0.00165703)
(0 0 0.00166627)
(0 0 0.00167517)
(0 0 0.00168371)
(0 0 0.0016919)
(0 0 0.00169972)
(0 0 0.00170716)
(0 0 0.00171422)
(0 0 0.0017209)
(0 0 0.00172719)
(0 0 0.00173308)
(0 0 0.00173857)
(0 0 0.00174365)
(0 0 0.00174832)
(0 0 0.00175257)
(0 0 0.00175641)
(0 0 0.00175982)
(0 0 0.0017628)
(0 0 0.00176536)
(0 0 0.00176748)
(0 0 0.00176917)
(0 0 0.00177043)
(0 0 0.00177125)
(0 0 0.00177163)
(0 0 0.00177158)
(0 0 0.00177109)
(0 0 0.00177016)
(0 0 0.0017688)
(0 0 0.00176701)
(0 0 0.00176478)
(0 0 0.00176212)
(0 0 0.00175904)
(0 0 0.00175553)
(0 0 0.0017516)
(0 0 0.00174725)
(0 0 0.00174249)
(0 0 0.00173731)
(0 0 0.00173173)
(0 0 0.00172576)
(0 0 0.00171938)
(0 0 0.00171262)
(0 0 0.00170548)
(0 0 0.00169795)
(0 0 0.00169006)
(0 0 0.0016818)
(0 0 0.00167318)
(0 0 0.00166422)
(0 0 0.00165491)
(0 0 0.00164526)
(0 0 0.00163528)
(0 0 0.00162498)
(0 0 0.00161437)
(0 0 0.00160345)
(0 0 0.00159224)
(0 0 0.00158073)
(0 0 0.00156895)
(0 0 0.00155688)
(0 0 0.00154456)
(0 0 0.00153197)
(0 0 0.00151914)
(0 0 0.00150606)
(0 0 0.00149275)
(0 0 0.00147921)
(0 0 0.00146546)
(0 0 0.00145149)
(0 0 0.00143733)
(0 0 0.00142297)
(0 0 0.00140842)
(0 0 0.0013937)
(0 0 0.0013788)
(0 0 0.00136374)
(0 0 0.00134852)
(0 0 0.00133315)
(0 0 0.00131764)
(0 0 0.00130199)
(0 0 0.00128622)
(0 0 0.00127032)
(0 0 0.0012543)
(0 0 0.00123818)
(0 0 0.00122194)
(0 0 0.00120562)
(0 0 0.00118919)
(0 0 0.00117269)
(0 0 0.0011561)
(0 0 0.00113943)
(0 0 0.00112269)
(0 0 0.00110589)
(0 0 0.00108902)
(0 0 0.0010721)
(0 0 0.00105512)
(0 0 0.0010381)
(0 0 0.00102103)
(0 0 0.00100392)
(0 0 0.000986778)
(0 0 0.0009696)
(0 0 0.000952393)
(0 0 0.000935159)
(0 0 0.000917902)
(0 0 0.000900625)
(0 0 0.00088333)
(0 0 0.000866021)
(0 0 0.0008487)
(0 0 0.000831369)
(0 0 0.00081403)
(0 0 0.000796687)
(0 0 0.00077934)
(0 0 0.000761992)
(0 0 0.000744644)
(0 0 0.000727299)
(0 0 0.000709957)
(0 0 0.000692619)
(0 0 0.000675289)
(0 0 0.000657965)
(0 0 0.00064065)
(0 0 0.000623345)
(0 0 0.00060605)
(0 0 0.000588766)
(0 0 0.000571494)
(0 0 0.000554234)
(0 0 0.000536987)
(0 0 0.000519754)
(0 0 0.000502534)
(0 0 0.000485328)
(0 0 0.000468137)
(0 0 0.00045096)
(0 0 0.000433797)
(0 0 0.000416648)
(0 0 0.000399514)
(0 0 0.000382394)
(0 0 0.000365288)
(0 0 0.000348195)
(0 0 0.000331116)
(0 0 0.00031405)
(0 0 0.000296996)
(0 0 0.000279955)
(0 0 0.000262926)
(0 0 0.000245907)
(0 0 0.0002289)
(0 0 0.000211902)
(0 0 0.000194914)
(0 0 0.000177935)
(0 0 0.000160963)
(0 0 0.000144)
(0 0 0.000127042)
(0 0 0.000110091)
(0 0 9.31453e-05)
(0 0 7.62037e-05)
(0 0 5.92658e-05)
(0 0 4.23307e-05)
(0 0 2.53976e-05)
(0 0 8.46573e-06)
(0 0 2.45678e-05)
(0 0 7.37049e-05)
(0 0 0.000122846)
(0 0 0.000171995)
(0 0 0.000221153)
(0 0 0.000270323)
(0 0 0.000319509)
(0 0 0.000368713)
(0 0 0.000417938)
(0 0 0.000467185)
(0 0 0.000516459)
(0 0 0.000565761)
(0 0 0.000615094)
(0 0 0.00066446)
(0 0 0.000713862)
(0 0 0.000763301)
(0 0 0.00081278)
(0 0 0.000862302)
(0 0 0.000911868)
(0 0 0.000961479)
(0 0 0.00101114)
(0 0 0.00106085)
(0 0 0.00111061)
(0 0 0.00116042)
(0 0 0.00121028)
(0 0 0.0012602)
(0 0 0.00131018)
(0 0 0.00136021)
(0 0 0.00141029)
(0 0 0.00146044)
(0 0 0.00151064)
(0 0 0.0015609)
(0 0 0.00161122)
(0 0 0.00166159)
(0 0 0.00171202)
(0 0 0.00176251)
(0 0 0.00181305)
(0 0 0.00186364)
(0 0 0.00191428)
(0 0 0.00196498)
(0 0 0.00201572)
(0 0 0.0020665)
(0 0 0.00211733)
(0 0 0.00216819)
(0 0 0.00221909)
(0 0 0.00227002)
(0 0 0.00232098)
(0 0 0.00237196)
(0 0 0.00242296)
(0 0 0.00247397)
(0 0 0.00252499)
(0 0 0.00257601)
(0 0 0.00262702)
(0 0 0.00267802)
(0 0 0.002729)
(0 0 0.00277995)
(0 0 0.00283087)
(0 0 0.00288174)
(0 0 0.00293255)
(0 0 0.0029833)
(0 0 0.00303398)
(0 0 0.00308457)
(0 0 0.00313506)
(0 0 0.00318545)
(0 0 0.00323571)
(0 0 0.00328584)
(0 0 0.00333583)
(0 0 0.00338565)
(0 0 0.0034353)
(0 0 0.00348475)
(0 0 0.003534)
(0 0 0.00358303)
(0 0 0.00363182)
(0 0 0.00368035)
(0 0 0.00372861)
(0 0 0.00377658)
(0 0 0.00382423)
(0 0 0.00387156)
(0 0 0.00391853)
(0 0 0.00396514)
(0 0 0.00401135)
(0 0 0.00405715)
(0 0 0.00410252)
(0 0 0.00414743)
(0 0 0.00419186)
(0 0 0.00423578)
(0 0 0.00427919)
(0 0 0.00432204)
(0 0 0.00436432)
(0 0 0.004406)
(0 0 0.00444707)
(0 0 0.00448748)
(0 0 0.00452722)
(0 0 0.00456627)
(0 0 0.0046046)
(0 0 0.00464218)
(0 0 0.00467899)
(0 0 0.004715)
(0 0 0.00475019)
(0 0 0.00478453)
(0 0 0.004818)
(0 0 0.00485058)
(0 0 0.00488223)
(0 0 0.00491294)
(0 0 0.00494268)
(0 0 0.00497143)
(0 0 0.00499917)
(0 0 0.00502586)
(0 0 0.0050515)
(0 0 0.00507606)
(0 0 0.00509952)
(0 0 0.00512186)
(0 0 0.00514306)
(0 0 0.0051631)
(0 0 0.00518197)
(0 0 0.00519965)
(0 0 0.00521611)
(0 0 0.00523136)
(0 0 0.00524537)
(0 0 0.00525814)
(0 0 0.00526964)
(0 0 0.00527988)
(0 0 0.00528883)
(0 0 0.0052965)
(0 0 0.00530288)
(0 0 0.00530795)
(0 0 0.00531172)
(0 0 0.00531418)
(0 0 0.00531534)
(0 0 0.00531518)
(0 0 0.00531371)
(0 0 0.00531093)
(0 0 0.00530685)
(0 0 0.00530146)
(0 0 0.00529477)
(0 0 0.0052868)
(0 0 0.00527754)
(0 0 0.00526701)
(0 0 0.00525521)
(0 0 0.00524216)
(0 0 0.00522787)
(0 0 0.00521234)
(0 0 0.0051956)
(0 0 0.00517766)
(0 0 0.00515854)
(0 0 0.00513825)
(0 0 0.00511681)
(0 0 0.00509423)
(0 0 0.00507054)
(0 0 0.00504576)
(0 0 0.0050199)
(0 0 0.00499299)
(0 0 0.00496505)
(0 0 0.0049361)
(0 0 0.00490617)
(0 0 0.00487526)
(0 0 0.00484342)
(0 0 0.00481066)
(0 0 0.00477701)
(0 0 0.00474248)
(0 0 0.00470711)
(0 0 0.00467092)
(0 0 0.00463393)
(0 0 0.00459616)
(0 0 0.00455765)
(0 0 0.00451841)
(0 0 0.00447847)
(0 0 0.00443785)
(0 0 0.00439658)
(0 0 0.00435468)
(0 0 0.00431218)
(0 0 0.00426909)
(0 0 0.00422544)
(0 0 0.00418126)
(0 0 0.00413656)
(0 0 0.00409137)
(0 0 0.00404571)
(0 0 0.0039996)
(0 0 0.00395306)
(0 0 0.00390611)
(0 0 0.00385877)
(0 0 0.00381107)
(0 0 0.00376301)
(0 0 0.00371463)
(0 0 0.00366593)
(0 0 0.00361694)
(0 0 0.00356767)
(0 0 0.00351814)
(0 0 0.00346836)
(0 0 0.00341836)
(0 0 0.00336814)
(0 0 0.00331772)
(0 0 0.00326712)
(0 0 0.00321635)
(0 0 0.00316542)
(0 0 0.00311434)
(0 0 0.00306313)
(0 0 0.00301181)
(0 0 0.00296037)
(0 0 0.00290883)
(0 0 0.0028572)
(0 0 0.0028055)
(0 0 0.00275372)
(0 0 0.00270189)
(0 0 0.00265)
(0 0 0.00259807)
(0 0 0.00254611)
(0 0 0.00249411)
(0 0 0.0024421)
(0 0 0.00239006)
(0 0 0.00233802)
(0 0 0.00228597)
(0 0 0.00223393)
(0 0 0.00218189)
(0 0 0.00212986)
(0 0 0.00207785)
(0 0 0.00202586)
(0 0 0.00197389)
(0 0 0.00192194)
(0 0 0.00187002)
(0 0 0.00181814)
(0 0 0.00176628)
(0 0 0.00171447)
(0 0 0.00166269)
(0 0 0.00161095)
(0 0 0.00155925)
(0 0 0.00150759)
(0 0 0.00145597)
(0 0 0.0014044)
(0 0 0.00135286)
(0 0 0.00130138)
(0 0 0.00124993)
(0 0 0.00119853)
(0 0 0.00114717)
(0 0 0.00109585)
(0 0 0.00104457)
(0 0 0.000993334)
(0 0 0.000942136)
(0 0 0.000890977)
(0 0 0.000839853)
(0 0 0.000788765)
(0 0 0.000737711)
(0 0 0.000686689)
(0 0 0.000635697)
(0 0 0.000584733)
(0 0 0.000533796)
(0 0 0.000482883)
(0 0 0.000431992)
(0 0 0.000381121)
(0 0 0.000330268)
(0 0 0.000279431)
(0 0 0.000228607)
(0 0 0.000177794)
(0 0 0.00012699)
(0 0 7.61915e-05)
(0 0 2.53968e-05)
(0 0 4.09448e-05)
(0 0 0.000122837)
(0 0 0.000204736)
(0 0 0.000286647)
(0 0 0.000368574)
(0 0 0.000450522)
(0 0 0.000532495)
(0 0 0.000614499)
(0 0 0.000696537)
(0 0 0.000778614)
(0 0 0.000860733)
(0 0 0.000942901)
(0 0 0.00102512)
(0 0 0.00110739)
(0 0 0.00118973)
(0 0 0.00127212)
(0 0 0.00135459)
(0 0 0.00143712)
(0 0 0.00151973)
(0 0 0.00160241)
(0 0 0.00168518)
(0 0 0.00176802)
(0 0 0.00185095)
(0 0 0.00193397)
(0 0 0.00201708)
(0 0 0.00210027)
(0 0 0.00218356)
(0 0 0.00226695)
(0 0 0.00235043)
(0 0 0.002434)
(0 0 0.00251767)
(0 0 0.00260144)
(0 0 0.0026853)
(0 0 0.00276926)
(0 0 0.00285331)
(0 0 0.00293745)
(0 0 0.00302169)
(0 0 0.00310601)
(0 0 0.00319042)
(0 0 0.00327491)
(0 0 0.00335948)
(0 0 0.00344412)
(0 0 0.00352884)
(0 0 0.00361362)
(0 0 0.00369845)
(0 0 0.00378335)
(0 0 0.00386828)
(0 0 0.00395326)
(0 0 0.00403826)
(0 0 0.00412328)
(0 0 0.00420832)
(0 0 0.00429336)
(0 0 0.00437839)
(0 0 0.0044634)
(0 0 0.00454837)
(0 0 0.0046333)
(0 0 0.00471817)
(0 0 0.00480296)
(0 0 0.00488766)
(0 0 0.00497226)
(0 0 0.00505673)
(0 0 0.00514106)
(0 0 0.00522523)
(0 0 0.00530922)
(0 0 0.00539301)
(0 0 0.00547657)
(0 0 0.00555989)
(0 0 0.00564295)
(0 0 0.00572571)
(0 0 0.00580815)
(0 0 0.00589026)
(0 0 0.00597199)
(0 0 0.00605332)
(0 0 0.00613423)
(0 0 0.00621468)
(0 0 0.00629465)
(0 0 0.00637409)
(0 0 0.00645299)
(0 0 0.0065313)
(0 0 0.006609)
(0 0 0.00668604)
(0 0 0.0067624)
(0 0 0.00683804)
(0 0 0.00691291)
(0 0 0.00698699)
(0 0 0.00706022)
(0 0 0.00713259)
(0 0 0.00720404)
(0 0 0.00727453)
(0 0 0.00734403)
(0 0 0.00741249)
(0 0 0.00747988)
(0 0 0.00754615)
(0 0 0.00761126)
(0 0 0.00767516)
(0 0 0.00773782)
(0 0 0.0077992)
(0 0 0.00785925)
(0 0 0.00791792)
(0 0 0.00797519)
(0 0 0.008031)
(0 0 0.00808532)
(0 0 0.00813811)
(0 0 0.00818931)
(0 0 0.00823891)
(0 0 0.00828685)
(0 0 0.0083331)
(0 0 0.00837762)
(0 0 0.00842037)
(0 0 0.00846133)
(0 0 0.00850045)
(0 0 0.0085377)
(0 0 0.00857305)
(0 0 0.00860648)
(0 0 0.00863794)
(0 0 0.00866742)
(0 0 0.00869488)
(0 0 0.00872031)
(0 0 0.00874368)
(0 0 0.00876496)
(0 0 0.00878415)
(0 0 0.00880122)
(0 0 0.00881615)
(0 0 0.00882894)
(0 0 0.00883957)
(0 0 0.00884804)
(0 0 0.00885432)
(0 0 0.00885843)
(0 0 0.00886035)
(0 0 0.00886009)
(0 0 0.00885764)
(0 0 0.008853)
(0 0 0.00884619)
(0 0 0.00883721)
(0 0 0.00882606)
(0 0 0.00881276)
(0 0 0.00879732)
(0 0 0.00877975)
(0 0 0.00876008)
(0 0 0.00873831)
(0 0 0.00871447)
(0 0 0.00868859)
(0 0 0.00866067)
(0 0 0.00863076)
(0 0 0.00859887)
(0 0 0.00856503)
(0 0 0.00852927)
(0 0 0.00849162)
(0 0 0.00845212)
(0 0 0.00841079)
(0 0 0.00836767)
(0 0 0.0083228)
(0 0 0.00827621)
(0 0 0.00822793)
(0 0 0.00817801)
(0 0 0.00812649)
(0 0 0.00807339)
(0 0 0.00801876)
(0 0 0.00796264)
(0 0 0.00790508)
(0 0 0.0078461)
(0 0 0.00778575)
(0 0 0.00772407)
(0 0 0.0076611)
(0 0 0.00759688)
(0 0 0.00753146)
(0 0 0.00746487)
(0 0 0.00739714)
(0 0 0.00732833)
(0 0 0.00725848)
(0 0 0.00718761)
(0 0 0.00711577)
(0 0 0.007043)
(0 0 0.00696934)
(0 0 0.00689481)
(0 0 0.00681947)
(0 0 0.00674335)
(0 0 0.00666647)
(0 0 0.00658888)
(0 0 0.00651061)
(0 0 0.0064317)
(0 0 0.00635217)
(0 0 0.00627206)
(0 0 0.00619139)
(0 0 0.00611021)
(0 0 0.00602854)
(0 0 0.0059464)
(0 0 0.00586383)
(0 0 0.00578086)
(0 0 0.0056975)
(0 0 0.00561379)
(0 0 0.00552974)
(0 0 0.00544539)
(0 0 0.00536076)
(0 0 0.00527586)
(0 0 0.00519072)
(0 0 0.00510536)
(0 0 0.0050198)
(0 0 0.00493405)
(0 0 0.00484815)
(0 0 0.00476209)
(0 0 0.00467591)
(0 0 0.00458961)
(0 0 0.00450321)
(0 0 0.00441672)
(0 0 0.00433016)
(0 0 0.00424354)
(0 0 0.00415688)
(0 0 0.00407018)
(0 0 0.00398345)
(0 0 0.0038967)
(0 0 0.00380996)
(0 0 0.00372321)
(0 0 0.00363647)
(0 0 0.00354976)
(0 0 0.00346306)
(0 0 0.0033764)
(0 0 0.00328978)
(0 0 0.0032032)
(0 0 0.00311667)
(0 0 0.00303019)
(0 0 0.00294377)
(0 0 0.0028574)
(0 0 0.0027711)
(0 0 0.00268487)
(0 0 0.0025987)
(0 0 0.0025126)
(0 0 0.00242657)
(0 0 0.00234061)
(0 0 0.00225472)
(0 0 0.00216891)
(0 0 0.00208317)
(0 0 0.0019975)
(0 0 0.0019119)
(0 0 0.00182637)
(0 0 0.00174091)
(0 0 0.00165551)
(0 0 0.00157019)
(0 0 0.00148492)
(0 0 0.00139972)
(0 0 0.00131457)
(0 0 0.00122948)
(0 0 0.00114445)
(0 0 0.00105946)
(0 0 0.000974525)
(0 0 0.000889632)
(0 0 0.000804779)
(0 0 0.000719964)
(0 0 0.000635182)
(0 0 0.00055043)
(0 0 0.000465704)
(0 0 0.000381)
(0 0 0.000296315)
(0 0 0.000211643)
(0 0 0.000126982)
(0 0 4.23266e-05)
(0 0 5.73195e-05)
(0 0 0.000171962)
(0 0 0.000286614)
(0 0 0.000401283)
(0 0 0.000515974)
(0 0 0.000630695)
(0 0 0.000745451)
(0 0 0.00086025)
(0 0 0.000975097)
(0 0 0.00109)
(0 0 0.00120496)
(0 0 0.00131999)
(0 0 0.00143509)
(0 0 0.00155027)
(0 0 0.00166553)
(0 0 0.00178088)
(0 0 0.00189632)
(0 0 0.00201187)
(0 0 0.00212751)
(0 0 0.00224327)
(0 0 0.00235913)
(0 0 0.00247511)
(0 0 0.00259121)
(0 0 0.00270743)
(0 0 0.00282378)
(0 0 0.00294025)
(0 0 0.00305686)
(0 0 0.00317359)
(0 0 0.00329046)
(0 0 0.00340747)
(0 0 0.00352461)
(0 0 0.00364188)
(0 0 0.00375929)
(0 0 0.00387683)
(0 0 0.0039945)
(0 0 0.00411231)
(0 0 0.00423024)
(0 0 0.0043483)
(0 0 0.00446647)
(0 0 0.00458476)
(0 0 0.00470317)
(0 0 0.00482168)
(0 0 0.00494028)
(0 0 0.00505898)
(0 0 0.00517776)
(0 0 0.00529662)
(0 0 0.00541554)
(0 0 0.00553452)
(0 0 0.00565353)
(0 0 0.00577258)
(0 0 0.00589165)
(0 0 0.00601072)
(0 0 0.00612977)
(0 0 0.0062488)
(0 0 0.00636778)
(0 0 0.0064867)
(0 0 0.00660554)
(0 0 0.00672427)
(0 0 0.00684287)
(0 0 0.00696133)
(0 0 0.00707962)
(0 0 0.00719771)
(0 0 0.00731557)
(0 0 0.00743318)
(0 0 0.00755052)
(0 0 0.00766754)
(0 0 0.00778423)
(0 0 0.00790053)
(0 0 0.00801644)
(0 0 0.0081319)
(0 0 0.00824688)
(0 0 0.00836134)
(0 0 0.00847525)
(0 0 0.00858856)
(0 0 0.00870123)
(0 0 0.00881323)
(0 0 0.0089245)
(0 0 0.009035)
(0 0 0.00914469)
(0 0 0.00925351)
(0 0 0.00936143)
(0 0 0.00946838)
(0 0 0.00957432)
(0 0 0.00967919)
(0 0 0.00978295)
(0 0 0.00988554)
(0 0 0.0099869)
(0 0 0.010087)
(0 0 0.0101857)
(0 0 0.0102831)
(0 0 0.010379)
(0 0 0.0104734)
(0 0 0.0105662)
(0 0 0.0106574)
(0 0 0.010747)
(0 0 0.0108348)
(0 0 0.0109207)
(0 0 0.0110049)
(0 0 0.0110871)
(0 0 0.0111673)
(0 0 0.0112455)
(0 0 0.0113216)
(0 0 0.0113956)
(0 0 0.0114673)
(0 0 0.0115368)
(0 0 0.011604)
(0 0 0.0116688)
(0 0 0.0117311)
(0 0 0.011791)
(0 0 0.0118484)
(0 0 0.0119032)
(0 0 0.0119554)
(0 0 0.012005)
(0 0 0.0120518)
(0 0 0.0120959)
(0 0 0.0121372)
(0 0 0.0121757)
(0 0 0.0122113)
(0 0 0.0122441)
(0 0 0.0122739)
(0 0 0.0123008)
(0 0 0.0123247)
(0 0 0.0123456)
(0 0 0.0123635)
(0 0 0.0123784)
(0 0 0.0123903)
(0 0 0.0123991)
(0 0 0.0124049)
(0 0 0.0124076)
(0 0 0.0124072)
(0 0 0.0124037)
(0 0 0.0123973)
(0 0 0.0123877)
(0 0 0.0123751)
(0 0 0.0123595)
(0 0 0.0123409)
(0 0 0.0123192)
(0 0 0.0122946)
(0 0 0.012267)
(0 0 0.0122365)
(0 0 0.0122031)
(0 0 0.0121669)
(0 0 0.0121277)
(0 0 0.0120858)
(0 0 0.0120411)
(0 0 0.0119937)
(0 0 0.0119436)
(0 0 0.0118909)
(0 0 0.0118355)
(0 0 0.0117776)
(0 0 0.0117172)
(0 0 0.0116543)
(0 0 0.011589)
(0 0 0.0115214)
(0 0 0.0114515)
(0 0 0.0113793)
(0 0 0.0113049)
(0 0 0.0112284)
(0 0 0.0111497)
(0 0 0.0110691)
(0 0 0.0109865)
(0 0 0.0109019)
(0 0 0.0108155)
(0 0 0.0107273)
(0 0 0.0106373)
(0 0 0.0105457)
(0 0 0.0104524)
(0 0 0.0103575)
(0 0 0.0102611)
(0 0 0.0101633)
(0 0 0.010064)
(0 0 0.00996338)
(0 0 0.00986145)
(0 0 0.00975827)
(0 0 0.00965389)
(0 0 0.00954836)
(0 0 0.00944173)
(0 0 0.00933406)
(0 0 0.00922539)
(0 0 0.00911576)
(0 0 0.00900523)
(0 0 0.00889385)
(0 0 0.00878165)
(0 0 0.00866868)
(0 0 0.00855498)
(0 0 0.0084406)
(0 0 0.00832557)
(0 0 0.00820994)
(0 0 0.00809373)
(0 0 0.007977)
(0 0 0.00785976)
(0 0 0.00774207)
(0 0 0.00762395)
(0 0 0.00750542)
(0 0 0.00738654)
(0 0 0.00726731)
(0 0 0.00714778)
(0 0 0.00702797)
(0 0 0.00690791)
(0 0 0.00678761)
(0 0 0.00666711)
(0 0 0.00654643)
(0 0 0.00642559)
(0 0 0.00630461)
(0 0 0.00618351)
(0 0 0.00606231)
(0 0 0.00594103)
(0 0 0.00581968)
(0 0 0.00569828)
(0 0 0.00557685)
(0 0 0.0054554)
(0 0 0.00533393)
(0 0 0.00521248)
(0 0 0.00509104)
(0 0 0.00496962)
(0 0 0.00484824)
(0 0 0.00472691)
(0 0 0.00460563)
(0 0 0.00448441)
(0 0 0.00436326)
(0 0 0.00424219)
(0 0 0.00412119)
(0 0 0.00400028)
(0 0 0.00387945)
(0 0 0.00375872)
(0 0 0.00363808)
(0 0 0.00351754)
(0 0 0.0033971)
(0 0 0.00327676)
(0 0 0.00315651)
(0 0 0.00303637)
(0 0 0.00291634)
(0 0 0.0027964)
(0 0 0.00267656)
(0 0 0.00255682)
(0 0 0.00243718)
(0 0 0.00231763)
(0 0 0.00219817)
(0 0 0.0020788)
(0 0 0.00195952)
(0 0 0.00184032)
(0 0 0.0017212)
(0 0 0.00160216)
(0 0 0.00148318)
(0 0 0.00136427)
(0 0 0.00124543)
(0 0 0.00112664)
(0 0 0.0010079)
(0 0 0.000889213)
(0 0 0.000770566)
(0 0 0.000651955)
(0 0 0.000533375)
(0 0 0.00041482)
(0 0 0.000296286)
(0 0 0.000177766)
(0 0 5.92544e-05)
(0 0 7.36909e-05)
(0 0 0.000221077)
(0 0 0.000368476)
(0 0 0.000515895)
(0 0 0.000663345)
(0 0 0.000810832)
(0 0 0.000958365)
(0 0 0.00110595)
(0 0 0.0012536)
(0 0 0.00140132)
(0 0 0.00154912)
(0 0 0.001697)
(0 0 0.00184498)
(0 0 0.00199306)
(0 0 0.00214124)
(0 0 0.00228954)
(0 0 0.00243796)
(0 0 0.00258651)
(0 0 0.00273519)
(0 0 0.00288401)
(0 0 0.00303297)
(0 0 0.00318208)
(0 0 0.00333135)
(0 0 0.00348077)
(0 0 0.00363035)
(0 0 0.0037801)
(0 0 0.00393002)
(0 0 0.00408011)
(0 0 0.00423037)
(0 0 0.0043808)
(0 0 0.00453141)
(0 0 0.00468219)
(0 0 0.00483314)
(0 0 0.00498427)
(0 0 0.00513557)
(0 0 0.00528703)
(0 0 0.00543867)
(0 0 0.00559046)
(0 0 0.00574241)
(0 0 0.00589451)
(0 0 0.00604675)
(0 0 0.00619913)
(0 0 0.00635164)
(0 0 0.00650426)
(0 0 0.006657)
(0 0 0.00680983)
(0 0 0.00696274)
(0 0 0.00711573)
(0 0 0.00726878)
(0 0 0.00742186)
(0 0 0.00757497)
(0 0 0.00772809)
(0 0 0.00788119)
(0 0 0.00803425)
(0 0 0.00818726)
(0 0 0.00834019)
(0 0 0.00849301)
(0 0 0.0086457)
(0 0 0.00879824)
(0 0 0.00895058)
(0 0 0.0091027)
(0 0 0.00925458)
(0 0 0.00940616)
(0 0 0.00955743)
(0 0 0.00970834)
(0 0 0.00985885)
(0 0 0.0100089)
(0 0 0.0101585)
(0 0 0.0103076)
(0 0 0.0104561)
(0 0 0.010604)
(0 0 0.0107512)
(0 0 0.0108978)
(0 0 0.0110435)
(0 0 0.0111885)
(0 0 0.0113325)
(0 0 0.0114757)
(0 0 0.0116178)
(0 0 0.0117589)
(0 0 0.0118989)
(0 0 0.0120378)
(0 0 0.0121754)
(0 0 0.0123117)
(0 0 0.0124466)
(0 0 0.0125801)
(0 0 0.0127121)
(0 0 0.0128425)
(0 0 0.0129713)
(0 0 0.0130983)
(0 0 0.0132236)
(0 0 0.013347)
(0 0 0.0134685)
(0 0 0.0135879)
(0 0 0.0137053)
(0 0 0.0138205)
(0 0 0.0139335)
(0 0 0.0140441)
(0 0 0.0141524)
(0 0 0.0142582)
(0 0 0.0143614)
(0 0 0.0144621)
(0 0 0.01456)
(0 0 0.0146552)
(0 0 0.0147475)
(0 0 0.014837)
(0 0 0.0149234)
(0 0 0.0150068)
(0 0 0.0150871)
(0 0 0.0151642)
(0 0 0.0152381)
(0 0 0.0153087)
(0 0 0.0153758)
(0 0 0.0154396)
(0 0 0.0154999)
(0 0 0.0155566)
(0 0 0.0156098)
(0 0 0.0156593)
(0 0 0.0157052)
(0 0 0.0157474)
(0 0 0.0157858)
(0 0 0.0158204)
(0 0 0.0158512)
(0 0 0.0158781)
(0 0 0.0159012)
(0 0 0.0159203)
(0 0 0.0159356)
(0 0 0.0159469)
(0 0 0.0159543)
(0 0 0.0159578)
(0 0 0.0159573)
(0 0 0.0159529)
(0 0 0.0159446)
(0 0 0.0159323)
(0 0 0.0159161)
(0 0 0.0158959)
(0 0 0.015872)
(0 0 0.0158441)
(0 0 0.0158124)
(0 0 0.0157769)
(0 0 0.0157377)
(0 0 0.0156947)
(0 0 0.015648)
(0 0 0.0155976)
(0 0 0.0155437)
(0 0 0.0154861)
(0 0 0.0154251)
(0 0 0.0153606)
(0 0 0.0152927)
(0 0 0.0152215)
(0 0 0.0151469)
(0 0 0.0150692)
(0 0 0.0149883)
(0 0 0.0149042)
(0 0 0.0148172)
(0 0 0.0147272)
(0 0 0.0146343)
(0 0 0.0145385)
(0 0 0.01444)
(0 0 0.0143389)
(0 0 0.0142351)
(0 0 0.0141287)
(0 0 0.0140199)
(0 0 0.0139087)
(0 0 0.0137952)
(0 0 0.0136795)
(0 0 0.0135615)
(0 0 0.0134415)
(0 0 0.0133194)
(0 0 0.0131954)
(0 0 0.0130695)
(0 0 0.0129418)
(0 0 0.0128123)
(0 0 0.0126812)
(0 0 0.0125484)
(0 0 0.0124141)
(0 0 0.0122783)
(0 0 0.0121412)
(0 0 0.0120026)
(0 0 0.0118628)
(0 0 0.0117218)
(0 0 0.0115796)
(0 0 0.0114363)
(0 0 0.011292)
(0 0 0.0111467)
(0 0 0.0110004)
(0 0 0.0108533)
(0 0 0.0107054)
(0 0 0.0105566)
(0 0 0.0104071)
(0 0 0.010257)
(0 0 0.0101062)
(0 0 0.00995483)
(0 0 0.0098029)
(0 0 0.00965046)
(0 0 0.00949756)
(0 0 0.00934422)
(0 0 0.00919049)
(0 0 0.0090364)
(0 0 0.00888199)
(0 0 0.00872728)
(0 0 0.00857231)
(0 0 0.00841711)
(0 0 0.00826171)
(0 0 0.00810613)
(0 0 0.0079504)
(0 0 0.00779454)
(0 0 0.00763858)
(0 0 0.00748253)
(0 0 0.00732642)
(0 0 0.00717027)
(0 0 0.00701409)
(0 0 0.00685791)
(0 0 0.00670173)
(0 0 0.00654557)
(0 0 0.00638945)
(0 0 0.00623338)
(0 0 0.00607737)
(0 0 0.00592142)
(0 0 0.00576556)
(0 0 0.00560978)
(0 0 0.00545411)
(0 0 0.00529853)
(0 0 0.00514306)
(0 0 0.00498771)
(0 0 0.00483248)
(0 0 0.00467737)
(0 0 0.00452238)
(0 0 0.00436753)
(0 0 0.0042128)
(0 0 0.0040582)
(0 0 0.00390374)
(0 0 0.0037494)
(0 0 0.0035952)
(0 0 0.00344112)
(0 0 0.00328717)
(0 0 0.00313335)
(0 0 0.00297965)
(0 0 0.00282607)
(0 0 0.0026726)
(0 0 0.00251924)
(0 0 0.00236599)
(0 0 0.00221284)
(0 0 0.00205979)
(0 0 0.00190683)
(0 0 0.00175396)
(0 0 0.00160117)
(0 0 0.00144845)
(0 0 0.00129579)
(0 0 0.0011432)
(0 0 0.000990665)
(0 0 0.000838174)
(0 0 0.000685724)
(0 0 0.000533306)
(0 0 0.000380915)
(0 0 0.000228542)
(0 0 7.61793e-05)
(0 0 9.0058e-05)
(0 0 0.000270179)
(0 0 0.000450316)
(0 0 0.000630479)
(0 0 0.000810678)
(0 0 0.000990923)
(0 0 0.00117122)
(0 0 0.00135159)
(0 0 0.00153204)
(0 0 0.00171257)
(0 0 0.0018932)
(0 0 0.00207393)
(0 0 0.00225477)
(0 0 0.00243574)
(0 0 0.00261684)
(0 0 0.00279808)
(0 0 0.00297947)
(0 0 0.00316102)
(0 0 0.00334273)
(0 0 0.0035246)
(0 0 0.00370666)
(0 0 0.0038889)
(0 0 0.00407132)
(0 0 0.00425394)
(0 0 0.00443676)
(0 0 0.00461978)
(0 0 0.00480301)
(0 0 0.00498645)
(0 0 0.0051701)
(0 0 0.00535396)
(0 0 0.00553803)
(0 0 0.00572232)
(0 0 0.00590682)
(0 0 0.00609154)
(0 0 0.00627646)
(0 0 0.0064616)
(0 0 0.00664693)
(0 0 0.00683246)
(0 0 0.00701819)
(0 0 0.0072041)
(0 0 0.00739019)
(0 0 0.00757645)
(0 0 0.00776287)
(0 0 0.00794943)
(0 0 0.00813613)
(0 0 0.00832295)
(0 0 0.00850988)
(0 0 0.00869689)
(0 0 0.00888398)
(0 0 0.00907112)
(0 0 0.00925829)
(0 0 0.00944547)
(0 0 0.00963263)
(0 0 0.00981976)
(0 0 0.0100068)
(0 0 0.0101938)
(0 0 0.0103806)
(0 0 0.0105673)
(0 0 0.0107538)
(0 0 0.01094)
(0 0 0.011126)
(0 0 0.0113117)
(0 0 0.0114971)
(0 0 0.011682)
(0 0 0.0118666)
(0 0 0.0120506)
(0 0 0.0122341)
(0 0 0.012417)
(0 0 0.0125993)
(0 0 0.0127809)
(0 0 0.0129618)
(0 0 0.0131419)
(0 0 0.0133211)
(0 0 0.0134993)
(0 0 0.0136766)
(0 0 0.0138528)
(0 0 0.0140278)
(0 0 0.0142017)
(0 0 0.0143743)
(0 0 0.0145455)
(0 0 0.0147153)
(0 0 0.0148836)
(0 0 0.0150504)
(0 0 0.0152154)
(0 0 0.0153787)
(0 0 0.0155402)
(0 0 0.0156997)
(0 0 0.0158573)
(0 0 0.0160127)
(0 0 0.016166)
(0 0 0.016317)
(0 0 0.0164656)
(0 0 0.0166117)
(0 0 0.0167553)
(0 0 0.0168963)
(0 0 0.0170345)
(0 0 0.0171699)
(0 0 0.0173024)
(0 0 0.0174319)
(0 0 0.0175582)
(0 0 0.0176814)
(0 0 0.0178012)
(0 0 0.0179177)
(0 0 0.0180307)
(0 0 0.0181402)
(0 0 0.018246)
(0 0 0.018348)
(0 0 0.0184463)
(0 0 0.0185407)
(0 0 0.0186311)
(0 0 0.0187174)
(0 0 0.0187997)
(0 0 0.0188777)
(0 0 0.0189515)
(0 0 0.019021)
(0 0 0.019086)
(0 0 0.0191467)
(0 0 0.0192028)
(0 0 0.0192544)
(0 0 0.0193014)
(0 0 0.0193438)
(0 0 0.0193815)
(0 0 0.0194144)
(0 0 0.0194427)
(0 0 0.0194661)
(0 0 0.0194848)
(0 0 0.0194987)
(0 0 0.0195078)
(0 0 0.019512)
(0 0 0.0195114)
(0 0 0.019506)
(0 0 0.0194958)
(0 0 0.0194807)
(0 0 0.0194609)
(0 0 0.0194363)
(0 0 0.0194069)
(0 0 0.0193728)
(0 0 0.019334)
(0 0 0.0192906)
(0 0 0.0192425)
(0 0 0.0191899)
(0 0 0.0191327)
(0 0 0.0190711)
(0 0 0.0190051)
(0 0 0.0189347)
(0 0 0.01886)
(0 0 0.018781)
(0 0 0.0186979)
(0 0 0.0186107)
(0 0 0.0185195)
(0 0 0.0184243)
(0 0 0.0183253)
(0 0 0.0182225)
(0 0 0.0181159)
(0 0 0.0180058)
(0 0 0.0178921)
(0 0 0.0177749)
(0 0 0.0176544)
(0 0 0.0175306)
(0 0 0.0174036)
(0 0 0.0172735)
(0 0 0.0171404)
(0 0 0.0170043)
(0 0 0.0168654)
(0 0 0.0167238)
(0 0 0.0165795)
(0 0 0.0164326)
(0 0 0.0162833)
(0 0 0.0161316)
(0 0 0.0159775)
(0 0 0.0158213)
(0 0 0.0156629)
(0 0 0.0155025)
(0 0 0.0153401)
(0 0 0.0151758)
(0 0 0.0150097)
(0 0 0.0148419)
(0 0 0.0146725)
(0 0 0.0145015)
(0 0 0.014329)
(0 0 0.0141551)
(0 0 0.0139799)
(0 0 0.0138034)
(0 0 0.0136256)
(0 0 0.0134468)
(0 0 0.0132668)
(0 0 0.0130859)
(0 0 0.012904)
(0 0 0.0127212)
(0 0 0.0125376)
(0 0 0.0123532)
(0 0 0.0121681)
(0 0 0.0119824)
(0 0 0.011796)
(0 0 0.011609)
(0 0 0.0114215)
(0 0 0.0112336)
(0 0 0.0110452)
(0 0 0.0108564)
(0 0 0.0106672)
(0 0 0.0104777)
(0 0 0.010288)
(0 0 0.010098)
(0 0 0.00990781)
(0 0 0.00971742)
(0 0 0.00952688)
(0 0 0.00933621)
(0 0 0.00914545)
(0 0 0.00895461)
(0 0 0.00876372)
(0 0 0.0085728)
(0 0 0.00838188)
(0 0 0.00819096)
(0 0 0.00800008)
(0 0 0.00780924)
(0 0 0.00761846)
(0 0 0.00742775)
(0 0 0.00723714)
(0 0 0.00704662)
(0 0 0.00685621)
(0 0 0.00666592)
(0 0 0.00647576)
(0 0 0.00628574)
(0 0 0.00609585)
(0 0 0.00590611)
(0 0 0.00571653)
(0 0 0.0055271)
(0 0 0.00533782)
(0 0 0.00514871)
(0 0 0.00495976)
(0 0 0.00477097)
(0 0 0.00458234)
(0 0 0.00439387)
(0 0 0.00420556)
(0 0 0.0040174)
(0 0 0.0038294)
(0 0 0.00364155)
(0 0 0.00345385)
(0 0 0.00326628)
(0 0 0.00307886)
(0 0 0.00289156)
(0 0 0.00270439)
(0 0 0.00251734)
(0 0 0.0023304)
(0 0 0.00214357)
(0 0 0.00195683)
(0 0 0.00177019)
(0 0 0.00158363)
(0 0 0.00139714)
(0 0 0.00121072)
(0 0 0.00102435)
(0 0 0.00083804)
(0 0 0.000651767)
(0 0 0.000465525)
(0 0 0.000279306)
(0 0 9.31005e-05)
(0 0 0.00010642)
(0 0 0.000319266)
(0 0 0.000532131)
(0 0 0.000745026)
(0 0 0.000957964)
(0 0 0.00117096)
(0 0 0.00138402)
(0 0 0.00159716)
(0 0 0.00181039)
(0 0 0.00202372)
(0 0 0.00223716)
(0 0 0.00245074)
(0 0 0.00266444)
(0 0 0.00287829)
(0 0 0.0030923)
(0 0 0.00330648)
(0 0 0.00352083)
(0 0 0.00373536)
(0 0 0.00395009)
(0 0 0.00416502)
(0 0 0.00438017)
(0 0 0.00459552)
(0 0 0.00481111)
(0 0 0.00502692)
(0 0 0.00524297)
(0 0 0.00545926)
(0 0 0.00567579)
(0 0 0.00589258)
(0 0 0.00610961)
(0 0 0.0063269)
(0 0 0.00654444)
(0 0 0.00676224)
(0 0 0.00698029)
(0 0 0.0071986)
(0 0 0.00741715)
(0 0 0.00763595)
(0 0 0.007855)
(0 0 0.00807428)
(0 0 0.00829379)
(0 0 0.00851352)
(0 0 0.00873347)
(0 0 0.00895362)
(0 0 0.00917395)
(0 0 0.00939447)
(0 0 0.00961515)
(0 0 0.00983597)
(0 0 0.0100569)
(0 0 0.010278)
(0 0 0.0104991)
(0 0 0.0107203)
(0 0 0.0109416)
(0 0 0.0111629)
(0 0 0.0113841)
(0 0 0.0116053)
(0 0 0.0118265)
(0 0 0.0120475)
(0 0 0.0122684)
(0 0 0.0124891)
(0 0 0.0127096)
(0 0 0.0129298)
(0 0 0.0131497)
(0 0 0.0133692)
(0 0 0.0135884)
(0 0 0.0138071)
(0 0 0.0140253)
(0 0 0.0142429)
(0 0 0.0144599)
(0 0 0.0146762)
(0 0 0.0148918)
(0 0 0.0151065)
(0 0 0.0153204)
(0 0 0.0155333)
(0 0 0.0157453)
(0 0 0.0159561)
(0 0 0.0161657)
(0 0 0.0163741)
(0 0 0.0165812)
(0 0 0.0167868)
(0 0 0.016991)
(0 0 0.0171935)
(0 0 0.0173944)
(0 0 0.0175935)
(0 0 0.0177907)
(0 0 0.017986)
(0 0 0.0181792)
(0 0 0.0183702)
(0 0 0.018559)
(0 0 0.0187454)
(0 0 0.0189293)
(0 0 0.0191106)
(0 0 0.0192893)
(0 0 0.0194651)
(0 0 0.0196381)
(0 0 0.019808)
(0 0 0.0199748)
(0 0 0.0201384)
(0 0 0.0202986)
(0 0 0.0204554)
(0 0 0.0206086)
(0 0 0.0207582)
(0 0 0.0209039)
(0 0 0.0210458)
(0 0 0.0211837)
(0 0 0.0213174)
(0 0 0.021447)
(0 0 0.0215722)
(0 0 0.021693)
(0 0 0.0218094)
(0 0 0.0219211)
(0 0 0.0220281)
(0 0 0.0221303)
(0 0 0.0222277)
(0 0 0.0223201)
(0 0 0.0224074)
(0 0 0.0224897)
(0 0 0.0225667)
(0 0 0.0226385)
(0 0 0.022705)
(0 0 0.0227661)
(0 0 0.0228217)
(0 0 0.0228719)
(0 0 0.0229165)
(0 0 0.0229555)
(0 0 0.022989)
(0 0 0.0230167)
(0 0 0.0230389)
(0 0 0.0230553)
(0 0 0.023066)
(0 0 0.0230711)
(0 0 0.0230704)
(0 0 0.0230639)
(0 0 0.0230518)
(0 0 0.023034)
(0 0 0.0230105)
(0 0 0.0229814)
(0 0 0.0229466)
(0 0 0.0229062)
(0 0 0.0228603)
(0 0 0.0228089)
(0 0 0.022752)
(0 0 0.0226896)
(0 0 0.022622)
(0 0 0.022549)
(0 0 0.0224708)
(0 0 0.0223875)
(0 0 0.022299)
(0 0 0.0222056)
(0 0 0.0221072)
(0 0 0.022004)
(0 0 0.021896)
(0 0 0.0217834)
(0 0 0.0216661)
(0 0 0.0215444)
(0 0 0.0214183)
(0 0 0.0212879)
(0 0 0.0211534)
(0 0 0.0210147)
(0 0 0.020872)
(0 0 0.0207255)
(0 0 0.0205752)
(0 0 0.0204212)
(0 0 0.0202637)
(0 0 0.0201027)
(0 0 0.0199383)
(0 0 0.0197707)
(0 0 0.0196)
(0 0 0.0194262)
(0 0 0.0192495)
(0 0 0.01907)
(0 0 0.0188878)
(0 0 0.0187029)
(0 0 0.0185155)
(0 0 0.0183257)
(0 0 0.0181336)
(0 0 0.0179393)
(0 0 0.0177429)
(0 0 0.0175444)
(0 0 0.0173439)
(0 0 0.0171417)
(0 0 0.0169377)
(0 0 0.016732)
(0 0 0.0165247)
(0 0 0.0163159)
(0 0 0.0161057)
(0 0 0.0158942)
(0 0 0.0156814)
(0 0 0.0154674)
(0 0 0.0152523)
(0 0 0.0150362)
(0 0 0.014819)
(0 0 0.014601)
(0 0 0.0143821)
(0 0 0.0141624)
(0 0 0.013942)
(0 0 0.013721)
(0 0 0.0134993)
(0 0 0.0132771)
(0 0 0.0130543)
(0 0 0.0128311)
(0 0 0.0126075)
(0 0 0.0123835)
(0 0 0.0121591)
(0 0 0.0119345)
(0 0 0.0117097)
(0 0 0.0114846)
(0 0 0.0112593)
(0 0 0.0110339)
(0 0 0.0108084)
(0 0 0.0105828)