/*--------------------------------*- C++ -*----------------------------------*\
| =========                 |                                                 |
| \\      /  F ield         | OpenFOAM: The Open Source CFD Toolbox           |
|  \\    /   O peration     | Version:  v2012                                 |
|   \\  /    A nd           | Website:  www.openfoam.com                      |
|    \\/     M anipulation  |                                                 |
\*---------------------------------------------------------------------------*/
FoamFile
{
    version     2.0;
    format      ascii;
    class       volVectorField;
    location    "17.25";
    object      U;
}
// * * * * * * * * * * * * * * * * * * * * * * * * * * * * * * * * * * * * * //

dimensions      [0 1 -1 0 0 0 0];


internalField   nonuniform List<vector> 
65536
(
(0.000667428 -0.000667446 0)
(0.00200232 -0.000667485 0)
(0.00333733 -0.000667561 0)
(0.00467253 -0.000667675 0)
(0.00600799 -0.000667827 0)
(0.0073438 -0.000668016 0)
(0.00868002 -0.000668241 0)
(0.0100167 -0.000668504 0)
(0.011354 -0.000668802 0)
(0.0126919 -0.000669136 0)
(0.0140305 -0.000669504 0)
(0.0153699 -0.000669906 0)
(0.0167101 -0.000670342 0)
(0.0180512 -0.000670809 0)
(0.0193933 -0.000671308 0)
(0.0207364 -0.000671836 0)
(0.0220806 -0.000672393 0)
(0.023426 -0.000672978 0)
(0.0247725 -0.000673589 0)
(0.0261203 -0.000674224 0)
(0.0274694 -0.000674882 0)
(0.0288198 -0.000675562 0)
(0.0301716 -0.000676262 0)
(0.0315248 -0.000676979 0)
(0.0328795 -0.000677712 0)
(0.0342357 -0.000678458 0)
(0.0355934 -0.000679217 0)
(0.0369525 -0.000679984 0)
(0.0383133 -0.000680758 0)
(0.0396756 -0.000681536 0)
(0.0410394 -0.000682316 0)
(0.0424048 -0.000683095 0)
(0.0437718 -0.00068387 0)
(0.0451403 -0.000684637 0)
(0.0465104 -0.000685394 0)
(0.0478819 -0.000686138 0)
(0.0492549 -0.000686865 0)
(0.0506294 -0.000687571 0)
(0.0520053 -0.000688252 0)
(0.0533824 -0.000688906 0)
(0.0547609 -0.000689527 0)
(0.0561406 -0.000690112 0)
(0.0575214 -0.000690657 0)
(0.0589033 -0.000691156 0)
(0.0602861 -0.000691606 0)
(0.0616697 -0.000692002 0)
(0.0630541 -0.000692338 0)
(0.0644392 -0.00069261 0)
(0.0658247 -0.000692812 0)
(0.0672105 -0.00069294 0)
(0.0685965 -0.000692987 0)
(0.0699825 -0.000692949 0)
(0.0713684 -0.000692818 0)
(0.0727539 -0.00069259 0)
(0.0741389 -0.000692258 0)
(0.075523 -0.000691816 0)
(0.0769062 -0.000691258 0)
(0.0782882 -0.000690576 0)
(0.0796687 -0.000689765 0)
(0.0810474 -0.000688818 0)
(0.0824241 -0.000687728 0)
(0.0837985 -0.000686488 0)
(0.0851702 -0.000685091 0)
(0.086539 -0.000683529 0)
(0.0879045 -0.000681797 0)
(0.0892664 -0.000679885 0)
(0.0906242 -0.000677787 0)
(0.0919777 -0.000675497 0)
(0.0933264 -0.000673005 0)
(0.0946699 -0.000670305 0)
(0.0960078 -0.000667389 0)
(0.0973397 -0.000664251 0)
(0.0986651 -0.000660882 0)
(0.0999835 -0.000657275 0)
(0.101294 -0.000653423 0)
(0.102597 -0.000649319 0)
(0.103892 -0.000644956 0)
(0.105178 -0.000640327 0)
(0.106454 -0.000635425 0)
(0.107719 -0.000630243 0)
(0.108975 -0.000624775 0)
(0.110219 -0.000619016 0)
(0.111451 -0.000612958 0)
(0.112671 -0.000606597 0)
(0.113878 -0.000599926 0)
(0.115071 -0.000592942 0)
(0.11625 -0.000585638 0)
(0.117414 -0.000578012 0)
(0.118562 -0.000570058 0)
(0.119694 -0.000561773 0)
(0.12081 -0.000553155 0)
(0.121907 -0.0005442 0)
(0.122987 -0.000534907 0)
(0.124047 -0.000525274 0)
(0.125088 -0.000515299 0)
(0.126109 -0.000504982 0)
(0.127109 -0.000494324 0)
(0.128087 -0.000483324 0)
(0.129042 -0.000471985 0)
(0.129975 -0.000460307 0)
(0.130884 -0.000448294 0)
(0.131768 -0.000435949 0)
(0.132628 -0.000423275 0)
(0.133462 -0.000410277 0)
(0.134269 -0.000396961 0)
(0.13505 -0.000383331 0)
(0.135803 -0.000369396 0)
(0.136528 -0.000355161 0)
(0.137224 -0.000340635 0)
(0.137891 -0.000325826 0)
(0.138527 -0.000310744 0)
(0.139134 -0.000295398 0)
(0.139709 -0.0002798 0)
(0.140253 -0.00026396 0)
(0.140765 -0.000247889 0)
(0.141245 -0.000231601 0)
(0.141692 -0.000215108 0)
(0.142106 -0.000198424 0)
(0.142486 -0.000181562 0)
(0.142832 -0.000164537 0)
(0.143144 -0.000147363 0)
(0.143422 -0.000130056 0)
(0.143664 -0.000112631 0)
(0.143872 -9.51038e-05 0)
(0.144045 -7.74905e-05 0)
(0.144182 -5.98074e-05 0)
(0.144284 -4.20708e-05 0)
(0.144351 -2.42974e-05 0)
(0.144381 -6.50358e-06 0)
(0.144377 1.12938e-05 0)
(0.144336 2.90783e-05 0)
(0.14426 4.68331e-05 0)
(0.144149 6.4542e-05 0)
(0.144002 8.21885e-05 0)
(0.14382 9.97566e-05 0)
(0.143603 0.00011723 0)
(0.143351 0.000134594 0)
(0.143064 0.000151833 0)
(0.142744 0.000168932 0)
(0.142389 0.000185876 0)
(0.142 0.000202652 0)
(0.141578 0.000219245 0)
(0.141123 0.000235643 0)
(0.140635 0.000251833 0)
(0.140115 0.000267804 0)
(0.139564 0.000283543 0)
(0.138981 0.00029904 0)
(0.138367 0.000314284 0)
(0.137723 0.000329267 0)
(0.13705 0.000343978 0)
(0.136347 0.00035841 0)
(0.135616 0.000372555 0)
(0.134857 0.000386406 0)
(0.13407 0.000399957 0)
(0.133256 0.000413201 0)
(0.132417 0.000426134 0)
(0.131552 0.000438751 0)
(0.130661 0.000451049 0)
(0.129747 0.000463024 0)
(0.128809 0.000474674 0)
(0.127848 0.000485997 0)
(0.126865 0.000496991 0)
(0.12586 0.000507656 0)
(0.124834 0.000517991 0)
(0.123787 0.000527997 0)
(0.122721 0.000537675 0)
(0.121636 0.000547026 0)
(0.120533 0.000556051 0)
(0.119412 0.000564754 0)
(0.118274 0.000573136 0)
(0.117119 0.0005812 0)
(0.115949 0.000588951 0)
(0.114763 0.000596392 0)
(0.113563 0.000603528 0)
(0.112349 0.000610362 0)
(0.111121 0.000616899 0)
(0.109881 0.000623145 0)
(0.108628 0.000629105 0)
(0.107364 0.000634785 0)
(0.106089 0.000640189 0)
(0.104803 0.000645325 0)
(0.103507 0.000650197 0)
(0.102202 0.000654814 0)
(0.100888 0.00065918 0)
(0.0995649 0.000663302 0)
(0.0982342 0.000667187 0)
(0.0968959 0.000670842 0)
(0.0955506 0.000674273 0)
(0.0941986 0.000677487 0)
(0.0928404 0.000680491 0)
(0.0914765 0.000683291 0)
(0.0901071 0.000685895 0)
(0.0887327 0.000688308 0)
(0.0873537 0.000690539 0)
(0.0859704 0.000692594 0)
(0.0845831 0.000694478 0)
(0.0831923 0.0006962 0)
(0.0817982 0.000697766 0)
(0.0804011 0.000699181 0)
(0.0790013 0.000700453 0)
(0.0775991 0.000701589 0)
(0.0761948 0.000702593 0)
(0.0747886 0.000703472 0)
(0.0733808 0.000704234 0)
(0.0719716 0.000704882 0)
(0.0705612 0.000705424 0)
(0.0691498 0.000705864 0)
(0.0677376 0.00070621 0)
(0.0663248 0.000706465 0)
(0.0649117 0.000706636 0)
(0.0634982 0.000706728 0)
(0.0620847 0.000706746 0)
(0.0606712 0.000706694 0)
(0.0592578 0.000706579 0)
(0.0578448 0.000706404 0)
(0.0564322 0.000706174 0)
(0.0550201 0.000705894 0)
(0.0536086 0.000705567 0)
(0.0521977 0.0007052 0)
(0.0507877 0.000704794 0)
(0.0493785 0.000704355 0)
(0.0479703 0.000703886 0)
(0.046563 0.000703391 0)
(0.0451567 0.000702873 0)
(0.0437515 0.000702337 0)
(0.0423473 0.000701784 0)
(0.0409443 0.000701219 0)
(0.0395424 0.000700645 0)
(0.0381417 0.000700065 0)
(0.0367422 0.00069948 0)
(0.0353438 0.000698895 0)
(0.0339466 0.000698312 0)
(0.0325506 0.000697733 0)
(0.0311557 0.000697161 0)
(0.0297619 0.000696598 0)
(0.0283693 0.000696046 0)
(0.0269778 0.000695507 0)
(0.0255873 0.000694984 0)
(0.0241978 0.000694477 0)
(0.0228094 0.000693989 0)
(0.0214219 0.000693522 0)
(0.0200353 0.000693076 0)
(0.0186496 0.000692654 0)
(0.0172647 0.000692257 0)
(0.0158806 0.000691885 0)
(0.0144972 0.00069154 0)
(0.0131145 0.000691224 0)
(0.0117324 0.000690936 0)
(0.0103508 0.000690679 0)
(0.00896968 0.000690452 0)
(0.00758901 0.000690256 0)
(0.00620869 0.000690092 0)
(0.00482868 0.00068996 0)
(0.00344889 0.000689861 0)
(0.00206927 0.000689795 0)
(0.000689745 0.000689761 0)
(0.000667391 -0.0020023 0)
(0.00200221 -0.00200242 0)
(0.00333714 -0.00200265 0)
(0.00467227 -0.00200299 0)
(0.00600766 -0.00200344 0)
(0.00734339 -0.00200401 0)
(0.00867954 -0.00200469 0)
(0.0100162 -0.00200548 0)
(0.0113534 -0.00200637 0)
(0.0126912 -0.00200737 0)
(0.0140298 -0.00200848 0)
(0.0153691 -0.00200969 0)
(0.0167092 -0.00201099 0)
(0.0180503 -0.0020124 0)
(0.0193923 -0.00201389 0)
(0.0207354 -0.00201548 0)
(0.0220795 -0.00201715 0)
(0.0234248 -0.00201891 0)
(0.0247713 -0.00202074 0)
(0.026119 -0.00202265 0)
(0.0274681 -0.00202463 0)
(0.0288185 -0.00202667 0)
(0.0301702 -0.00202877 0)
(0.0315234 -0.00203092 0)
(0.0328781 -0.00203312 0)
(0.0342342 -0.00203537 0)
(0.0355918 -0.00203764 0)
(0.036951 -0.00203995 0)
(0.0383118 -0.00204227 0)
(0.039674 -0.00204461 0)
(0.0410379 -0.00204695 0)
(0.0424033 -0.00204929 0)
(0.0437703 -0.00205162 0)
(0.0451388 -0.00205392 0)
(0.0465089 -0.0020562 0)
(0.0478805 -0.00205843 0)
(0.0492535 -0.00206062 0)
(0.050628 -0.00206274 0)
(0.0520039 -0.00206479 0)
(0.0533812 -0.00206675 0)
(0.0547597 -0.00206862 0)
(0.0561395 -0.00207038 0)
(0.0575204 -0.00207202 0)
(0.0589023 -0.00207352 0)
(0.0602853 -0.00207487 0)
(0.061669 -0.00207607 0)
(0.0630536 -0.00207708 0)
(0.0644387 -0.0020779 0)
(0.0658244 -0.00207851 0)
(0.0672104 -0.0020789 0)
(0.0685965 -0.00207905 0)
(0.0699827 -0.00207894 0)
(0.0713688 -0.00207855 0)
(0.0727545 -0.00207788 0)
(0.0741397 -0.00207689 0)
(0.0755241 -0.00207557 0)
(0.0769075 -0.0020739 0)
(0.0782897 -0.00207186 0)
(0.0796705 -0.00206943 0)
(0.0810495 -0.0020666 0)
(0.0824265 -0.00206334 0)
(0.0838011 -0.00205962 0)
(0.0851732 -0.00205544 0)
(0.0865423 -0.00205076 0)
(0.0879082 -0.00204557 0)
(0.0892704 -0.00203984 0)
(0.0906287 -0.00203356 0)
(0.0919825 -0.00202669 0)
(0.0933317 -0.00201922 0)
(0.0946756 -0.00201113 0)
(0.096014 -0.00200239 0)
(0.0973463 -0.00199298 0)
(0.0986721 -0.00198288 0)
(0.099991 -0.00197207 0)
(0.101302 -0.00196052 0)
(0.102606 -0.00194822 0)
(0.103901 -0.00193513 0)
(0.105187 -0.00192125 0)
(0.106464 -0.00190655 0)
(0.10773 -0.00189102 0)
(0.108986 -0.00187462 0)
(0.110231 -0.00185735 0)
(0.111464 -0.00183918 0)
(0.112684 -0.0018201 0)
(0.113892 -0.00180009 0)
(0.115085 -0.00177914 0)
(0.116265 -0.00175724 0)
(0.11743 -0.00173436 0)
(0.118579 -0.0017105 0)
(0.119711 -0.00168565 0)
(0.120827 -0.0016598 0)
(0.121926 -0.00163294 0)
(0.123006 -0.00160506 0)
(0.124067 -0.00157616 0)
(0.125109 -0.00154624 0)
(0.12613 -0.00151529 0)
(0.12713 -0.00148331 0)
(0.128109 -0.00145031 0)
(0.129065 -0.00141629 0)
(0.129999 -0.00138126 0)
(0.130908 -0.00134521 0)
(0.131793 -0.00130817 0)
(0.132654 -0.00127015 0)
(0.133488 -0.00123115 0)
(0.134296 -0.00119119 0)
(0.135078 -0.0011503 0)
(0.135831 -0.00110848 0)
(0.136557 -0.00106577 0)
(0.137253 -0.00102218 0)
(0.137921 -0.000977749 0)
(0.138558 -0.000932492 0)
(0.139165 -0.000886445 0)
(0.139741 -0.000839638 0)
(0.140285 -0.000792106 0)
(0.140798 -0.000743882 0)
(0.141278 -0.000695005 0)
(0.141725 -0.000645513 0)
(0.142139 -0.000595446 0)
(0.14252 -0.000544846 0)
(0.142866 -0.000493756 0)
(0.143179 -0.000442219 0)
(0.143456 -0.000390283 0)
(0.143699 -0.000337992 0)
(0.143907 -0.000285394 0)
(0.14408 -0.000232538 0)
(0.144218 -0.000179472 0)
(0.14432 -0.000126246 0)
(0.144386 -7.29091e-05 0)
(0.144417 -1.95111e-05 0)
(0.144412 3.38978e-05 0)
(0.144372 8.72676e-05 0)
(0.144296 0.000140549 0)
(0.144184 0.000193692 0)
(0.144037 0.000246647 0)
(0.143855 0.000299367 0)
(0.143638 0.000351804 0)
(0.143386 0.000403911 0)
(0.143099 0.000455642 0)
(0.142778 0.000506953 0)
(0.142422 0.0005578 0)
(0.142033 0.00060814 0)
(0.141611 0.000657933 0)
(0.141155 0.00070714 0)
(0.140667 0.000755723 0)
(0.140147 0.000803645 0)
(0.139595 0.000850874 0)
(0.139011 0.000897375 0)
(0.138397 0.000943118 0)
(0.137753 0.000988074 0)
(0.137079 0.00103222 0)
(0.136376 0.00107552 0)
(0.135644 0.00111796 0)
(0.134884 0.00115952 0)
(0.134097 0.00120018 0)
(0.133283 0.00123992 0)
(0.132442 0.00127872 0)
(0.131577 0.00131658 0)
(0.130686 0.00135347 0)
(0.129771 0.0013894 0)
(0.128832 0.00142435 0)
(0.12787 0.00145832 0)
(0.126886 0.0014913 0)
(0.125881 0.0015233 0)
(0.124854 0.0015543 0)
(0.123807 0.00158432 0)
(0.12274 0.00161335 0)
(0.121655 0.0016414 0)
(0.120551 0.00166848 0)
(0.119429 0.00169458 0)
(0.11829 0.00171973 0)
(0.117135 0.00174392 0)
(0.115964 0.00176717 0)
(0.114777 0.00178948 0)
(0.113577 0.00181089 0)
(0.112362 0.00183138 0)
(0.111134 0.00185099 0)
(0.109893 0.00186972 0)
(0.10864 0.0018876 0)
(0.107375 0.00190463 0)
(0.106099 0.00192084 0)
(0.104813 0.00193624 0)
(0.103517 0.00195085 0)
(0.102211 0.00196469 0)
(0.100896 0.00197778 0)
(0.0995729 0.00199014 0)
(0.0982417 0.00200179 0)
(0.096903 0.00201275 0)
(0.0955572 0.00202304 0)
(0.0942048 0.00203267 0)
(0.0928462 0.00204168 0)
(0.0914818 0.00205007 0)
(0.090112 0.00205787 0)
(0.0887373 0.00206511 0)
(0.0873579 0.00207179 0)
(0.0859742 0.00207795 0)
(0.0845867 0.0020836 0)
(0.0831955 0.00208876 0)
(0.0818011 0.00209345 0)
(0.0804037 0.00209769 0)
(0.0790037 0.0021015 0)
(0.0776012 0.0021049 0)
(0.0761966 0.0021079 0)
(0.0747902 0.00211054 0)
(0.0733822 0.00211281 0)
(0.0719727 0.00211475 0)
(0.0705621 0.00211637 0)
(0.0691505 0.00211769 0)
(0.0677382 0.00211872 0)
(0.0663252 0.00211948 0)
(0.0649119 0.00211999 0)
(0.0634983 0.00212026 0)
(0.0620846 0.00212031 0)
(0.060671 0.00212015 0)
(0.0592575 0.00211979 0)
(0.0578444 0.00211926 0)
(0.0564316 0.00211857 0)
(0.0550194 0.00211773 0)
(0.0536078 0.00211674 0)
(0.0521969 0.00211564 0)
(0.0507868 0.00211441 0)
(0.0493776 0.00211309 0)
(0.0479693 0.00211168 0)
(0.0465619 0.00211019 0)
(0.0451556 0.00210864 0)
(0.0437503 0.00210702 0)
(0.0423462 0.00210536 0)
(0.0409431 0.00210367 0)
(0.0395413 0.00210194 0)
(0.0381405 0.0021002 0)
(0.036741 0.00209844 0)
(0.0353426 0.00209668 0)
(0.0339454 0.00209493 0)
(0.0325494 0.00209319 0)
(0.0311545 0.00209147 0)
(0.0297608 0.00208978 0)
(0.0283682 0.00208812 0)
(0.0269767 0.00208651 0)
(0.0255862 0.00208493 0)
(0.0241968 0.00208341 0)
(0.0228084 0.00208195 0)
(0.021421 0.00208054 0)
(0.0200345 0.0020792 0)
(0.0186488 0.00207794 0)
(0.017264 0.00207674 0)
(0.0158799 0.00207563 0)
(0.0144966 0.00207459 0)
(0.0131139 0.00207364 0)
(0.0117318 0.00207278 0)
(0.0103503 0.002072 0)
(0.00896926 0.00207132 0)
(0.00758865 0.00207073 0)
(0.0062084 0.00207024 0)
(0.00482844 0.00206985 0)
(0.00344872 0.00206955 0)
(0.00206917 0.00206935 0)
(0.000689711 0.00206925 0)
(0.000667314 -0.00333705 0)
(0.00200198 -0.00333724 0)
(0.00333676 -0.00333762 0)
(0.00467173 -0.00333819 0)
(0.00600697 -0.00333895 0)
(0.00734256 -0.0033399 0)
(0.00867856 -0.00334103 0)
(0.0100151 -0.00334234 0)
(0.0113521 -0.00334384 0)
(0.0126898 -0.00334551 0)
(0.0140282 -0.00334735 0)
(0.0153674 -0.00334937 0)
(0.0167074 -0.00335155 0)
(0.0180483 -0.00335389 0)
(0.0193902 -0.00335639 0)
(0.0207332 -0.00335904 0)
(0.0220772 -0.00336183 0)
(0.0234224 -0.00336476 0)
(0.0247688 -0.00336782 0)
(0.0261164 -0.00337101 0)
(0.0274654 -0.00337431 0)
(0.0288157 -0.00337772 0)
(0.0301674 -0.00338122 0)
(0.0315205 -0.00338482 0)
(0.0328751 -0.00338849 0)
(0.0342312 -0.00339224 0)
(0.0355888 -0.00339604 0)
(0.0369479 -0.00339989 0)
(0.0383086 -0.00340377 0)
(0.0396709 -0.00340768 0)
(0.0410348 -0.00341159 0)
(0.0424002 -0.0034155 0)
(0.0437672 -0.00341939 0)
(0.0451358 -0.00342324 0)
(0.0465059 -0.00342704 0)
(0.0478775 -0.00343078 0)
(0.0492506 -0.00343443 0)
(0.0506252 -0.00343798 0)
(0.0520012 -0.00344141 0)
(0.0533786 -0.00344469 0)
(0.0547573 -0.00344782 0)
(0.0561372 -0.00345077 0)
(0.0575183 -0.00345351 0)
(0.0589004 -0.00345603 0)
(0.0602835 -0.00345831 0)
(0.0616675 -0.00346031 0)
(0.0630523 -0.00346201 0)
(0.0644377 -0.0034634 0)
(0.0658237 -0.00346444 0)
(0.06721 -0.00346511 0)
(0.0685965 -0.00346537 0)
(0.069983 -0.00346521 0)
(0.0713695 -0.00346458 0)
(0.0727556 -0.00346347 0)
(0.0741412 -0.00346184 0)
(0.075526 -0.00345967 0)
(0.07691 -0.00345691 0)
(0.0782927 -0.00345353 0)
(0.0796739 -0.00344951 0)
(0.0810535 -0.00344481 0)
(0.0824311 -0.00343939 0)
(0.0838064 -0.00343323 0)
(0.0851791 -0.00342628 0)
(0.0865489 -0.00341851 0)
(0.0879154 -0.00340988 0)
(0.0892784 -0.00340036 0)
(0.0906374 -0.00338991 0)
(0.0919921 -0.00337849 0)
(0.093342 -0.00336607 0)
(0.0946868 -0.0033526 0)
(0.096026 -0.00333806 0)
(0.0973592 -0.00332241 0)
(0.098686 -0.0033056 0)
(0.100006 -0.0032876 0)
(0.101318 -0.00326838 0)
(0.102623 -0.00324789 0)
(0.103919 -0.00322611 0)
(0.105206 -0.003203 0)
(0.106484 -0.00317852 0)
(0.107751 -0.00315265 0)
(0.109008 -0.00312534 0)
(0.110254 -0.00309657 0)
(0.111488 -0.00306631 0)
(0.11271 -0.00303453 0)
(0.113919 -0.0030012 0)
(0.115114 -0.0029663 0)
(0.116295 -0.00292981 0)
(0.117461 -0.00289169 0)
(0.118611 -0.00285194 0)
(0.119745 -0.00281054 0)
(0.120862 -0.00276746 0)
(0.121962 -0.00272269 0)
(0.123044 -0.00267624 0)
(0.124106 -0.00262807 0)
(0.125149 -0.0025782 0)
(0.126172 -0.00252662 0)
(0.127174 -0.00247332 0)
(0.128154 -0.00241832 0)
(0.129111 -0.00236161 0)
(0.130046 -0.00230321 0)
(0.130957 -0.00224313 0)
(0.131843 -0.00218138 0)
(0.132705 -0.00211799 0)
(0.133541 -0.00205298 0)
(0.13435 -0.00198637 0)
(0.135133 -0.00191819 0)
(0.135888 -0.00184847 0)
(0.136614 -0.00177726 0)
(0.137312 -0.00170458 0)
(0.13798 -0.00163049 0)
(0.138619 -0.00155503 0)
(0.139227 -0.00147825 0)
(0.139804 -0.0014002 0)
(0.140349 -0.00132094 0)
(0.140863 -0.00124053 0)
(0.141344 -0.00115902 0)
(0.141792 -0.00107649 0)
(0.142206 -0.000993002 0)
(0.142588 -0.000908621 0)
(0.142935 -0.000823421 0)
(0.143248 -0.000737477 0)
(0.143526 -0.000650864 0)
(0.143769 -0.00056366 0)
(0.143978 -0.000475943 0)
(0.144151 -0.000387796 0)
(0.144289 -0.000299298 0)
(0.144391 -0.000210532 0)
(0.144457 -0.000121582 0)
(0.144488 -3.25297e-05 0)
(0.144484 5.65406e-05 0)
(0.144443 0.000145546 0)
(0.144367 0.000234402 0)
(0.144255 0.000323028 0)
(0.144108 0.000411341 0)
(0.143925 0.000499261 0)
(0.143708 0.000586708 0)
(0.143455 0.000673604 0)
(0.143168 0.000759872 0)
(0.142846 0.000845438 0)
(0.14249 0.000930229 0)
(0.1421 0.00101418 0)
(0.141677 0.00109721 0)
(0.141221 0.00117926 0)
(0.140732 0.00126027 0)
(0.14021 0.00134018 0)
(0.139657 0.00141893 0)
(0.139073 0.00149647 0)
(0.138458 0.00157274 0)
(0.137812 0.00164769 0)
(0.137137 0.00172129 0)
(0.136433 0.00179349 0)
(0.1357 0.00186425 0)
(0.134939 0.00193354 0)
(0.13415 0.00200132 0)
(0.133335 0.00206757 0)
(0.132493 0.00213225 0)
(0.131626 0.00219536 0)
(0.130734 0.00225686 0)
(0.129818 0.00231675 0)
(0.128878 0.00237501 0)
(0.127915 0.00243163 0)
(0.12693 0.0024866 0)
(0.125923 0.00253993 0)
(0.124895 0.00259161 0)
(0.123847 0.00264163 0)
(0.122779 0.00269001 0)
(0.121692 0.00273676 0)
(0.120586 0.00278187 0)
(0.119463 0.00282537 0)
(0.118323 0.00286727 0)
(0.117166 0.00290757 0)
(0.115994 0.00294631 0)
(0.114807 0.00298349 0)
(0.113605 0.00301915 0)
(0.112389 0.00305329 0)
(0.111159 0.00308596 0)
(0.109917 0.00311716 0)
(0.108663 0.00314693 0)
(0.107397 0.0031753 0)
(0.10612 0.00320229 0)
(0.104833 0.00322794 0)
(0.103536 0.00325227 0)
(0.102229 0.00327532 0)
(0.100913 0.00329712 0)
(0.0995889 0.0033177 0)
(0.0982567 0.00333709 0)
(0.0969171 0.00335533 0)
(0.0955705 0.00337245 0)
(0.0942172 0.00338849 0)
(0.0928578 0.00340347 0)
(0.0914926 0.00341744 0)
(0.0901221 0.00343042 0)
(0.0887466 0.00344246 0)
(0.0873665 0.00345358 0)
(0.0859821 0.00346382 0)
(0.0845939 0.00347321 0)
(0.0832021 0.00348178 0)
(0.081807 0.00348958 0)
(0.0804091 0.00349662 0)
(0.0790085 0.00350295 0)
(0.0776055 0.0035086 0)
(0.0762004 0.00351359 0)
(0.0747935 0.00351795 0)
(0.073385 0.00352173 0)
(0.0719751 0.00352494 0)
(0.0705641 0.00352762 0)
(0.0691521 0.0035298 0)
(0.0677394 0.0035315 0)
(0.0663261 0.00353275 0)
(0.0649124 0.00353358 0)
(0.0634985 0.00353401 0)
(0.0620845 0.00353407 0)
(0.0606706 0.00353379 0)
(0.0592569 0.00353319 0)
(0.0578435 0.00353229 0)
(0.0564306 0.00353112 0)
(0.0550182 0.0035297 0)
(0.0536064 0.00352804 0)
(0.0521954 0.00352618 0)
(0.0507851 0.00352414 0)
(0.0493758 0.00352192 0)
(0.0479673 0.00351956 0)
(0.0465599 0.00351706 0)
(0.0451535 0.00351446 0)
(0.0437482 0.00351176 0)
(0.0423439 0.00350898 0)
(0.0409409 0.00350614 0)
(0.0395389 0.00350325 0)
(0.0381382 0.00350034 0)
(0.0367386 0.0034974 0)
(0.0353403 0.00349447 0)
(0.0339431 0.00349154 0)
(0.0325471 0.00348863 0)
(0.0311522 0.00348576 0)
(0.0297586 0.00348293 0)
(0.028366 0.00348016 0)
(0.0269746 0.00347746 0)
(0.0255842 0.00347483 0)
(0.0241948 0.00347229 0)
(0.0228065 0.00346984 0)
(0.0214192 0.0034675 0)
(0.0200327 0.00346526 0)
(0.0186472 0.00346314 0)
(0.0172624 0.00346115 0)
(0.0158785 0.00345929 0)
(0.0144952 0.00345756 0)
(0.0131127 0.00345597 0)
(0.0117307 0.00345453 0)
(0.0103493 0.00345324 0)
(0.00896841 0.0034521 0)
(0.00758792 0.00345112 0)
(0.0062078 0.00345029 0)
(0.00482798 0.00344963 0)
(0.00344839 0.00344914 0)
(0.00206897 0.00344881 0)
(0.000689645 0.00344864 0)
(0.000667199 -0.0046716 0)
(0.00200164 -0.00467187 0)
(0.00333619 -0.0046724 0)
(0.00467093 -0.0046732 0)
(0.00600595 -0.00467427 0)
(0.00734131 -0.0046756 0)
(0.00867708 -0.00467718 0)
(0.0100134 -0.00467903 0)
(0.0113502 -0.00468112 0)
(0.0126877 -0.00468347 0)
(0.0140259 -0.00468606 0)
(0.0153649 -0.00468889 0)
(0.0167047 -0.00469195 0)
(0.0180454 -0.00469523 0)
(0.0193871 -0.00469874 0)
(0.0207299 -0.00470245 0)
(0.0220738 -0.00470637 0)
(0.0234188 -0.00471048 0)
(0.024765 -0.00471478 0)
(0.0261125 -0.00471925 0)
(0.0274613 -0.00472388 0)
(0.0288115 -0.00472867 0)
(0.0301631 -0.00473359 0)
(0.0315161 -0.00473864 0)
(0.0328706 -0.00474379 0)
(0.0342266 -0.00474905 0)
(0.0355842 -0.00475439 0)
(0.0369433 -0.0047598 0)
(0.0383039 -0.00476525 0)
(0.0396662 -0.00477074 0)
(0.04103 -0.00477623 0)
(0.0423955 -0.00478173 0)
(0.0437625 -0.00478719 0)
(0.0451311 -0.00479261 0)
(0.0465013 -0.00479795 0)
(0.047873 -0.00480321 0)
(0.0492463 -0.00480834 0)
(0.050621 -0.00481334 0)
(0.0519972 -0.00481816 0)
(0.0533747 -0.00482279 0)
(0.0547536 -0.0048272 0)
(0.0561337 -0.00483136 0)
(0.0575151 -0.00483523 0)
(0.0588975 -0.00483879 0)
(0.0602809 -0.00484201 0)
(0.0616653 -0.00484485 0)
(0.0630504 -0.00484727 0)
(0.0644362 -0.00484925 0)
(0.0658226 -0.00485074 0)
(0.0672094 -0.00485171 0)
(0.0685964 -0.00485212 0)
(0.0699835 -0.00485193 0)
(0.0713704 -0.0048511 0)
(0.0727572 -0.00484959 0)
(0.0741434 -0.00484735 0)
(0.0755289 -0.00484435 0)
(0.0769136 -0.00484053 0)
(0.078297 -0.00483585 0)
(0.0796791 -0.00483027 0)
(0.0810595 -0.00482374 0)
(0.082438 -0.0048162 0)
(0.0838142 -0.00480762 0)
(0.0851878 -0.00479794 0)
(0.0865586 -0.00478711 0)
(0.0879262 -0.00477508 0)
(0.0892903 -0.0047618 0)
(0.0906504 -0.00474722 0)
(0.0920063 -0.00473129 0)
(0.0933574 -0.00471395 0)
(0.0947035 -0.00469516 0)
(0.0960441 -0.00467485 0)
(0.0973787 -0.00465298 0)
(0.0987068 -0.0046295 0)
(0.100028 -0.00460436 0)
(0.101342 -0.00457749 0)
(0.102648 -0.00454887 0)
(0.103946 -0.00451842 0)
(0.105235 -0.00448611 0)
(0.106514 -0.00445189 0)
(0.107783 -0.00441571 0)
(0.109042 -0.00437752 0)
(0.11029 -0.00433729 0)
(0.111526 -0.00429496 0)
(0.112749 -0.00425051 0)
(0.11396 -0.00420389 0)
(0.115157 -0.00415506 0)
(0.116339 -0.004104 0)
(0.117507 -0.00405066 0)
(0.11866 -0.00399504 0)
(0.119796 -0.00393709 0)
(0.120915 -0.0038768 0)
(0.122017 -0.00381414 0)
(0.1231 -0.00374911 0)
(0.124165 -0.00368169 0)
(0.12521 -0.00361188 0)
(0.126235 -0.00353966 0)
(0.127239 -0.00346504 0)
(0.128221 -0.00338803 0)
(0.12918 -0.00330863 0)
(0.130117 -0.00322685 0)
(0.13103 -0.00314271 0)
(0.131919 -0.00305624 0)
(0.132782 -0.00296746 0)
(0.13362 -0.0028764 0)
(0.134431 -0.00278311 0)
(0.135215 -0.00268761 0)
(0.135972 -0.00258996 0)
(0.136701 -0.0024902 0)
(0.1374 -0.0023884 0)
(0.13807 -0.00228461 0)
(0.13871 -0.00217889 0)
(0.13932 -0.00207133 0)
(0.139898 -0.00196198 0)
(0.140445 -0.00185093 0)
(0.14096 -0.00173827 0)
(0.141442 -0.00162407 0)
(0.141891 -0.00150843 0)
(0.142307 -0.00139145 0)
(0.142689 -0.00127321 0)
(0.143038 -0.00115383 0)
(0.143351 -0.0010334 0)
(0.14363 -0.000912036 0)
(0.143874 -0.00078984 0)
(0.144083 -0.000666925 0)
(0.144257 -0.000543404 0)
(0.144395 -0.000419392 0)
(0.144498 -0.000295004 0)
(0.144564 -0.000170357 0)
(0.144595 -4.5567e-05 0)
(0.14459 7.92481e-05 0)
(0.14455 0.000203971 0)
(0.144473 0.000328486 0)
(0.144361 0.000452677 0)
(0.144214 0.000576428 0)
(0.144031 0.000699627 0)
(0.143812 0.000822162 0)
(0.143559 0.000943923 0)
(0.143271 0.0010648 0)
(0.142948 0.0011847 0)
(0.142591 0.0013035 0)
(0.1422 0.00142112 0)
(0.141776 0.00153746 0)
(0.141318 0.00165242 0)
(0.140828 0.00176592 0)
(0.140306 0.00187788 0)
(0.139751 0.0019882 0)
(0.139165 0.00209682 0)
(0.138549 0.00220367 0)
(0.137902 0.00230867 0)
(0.137225 0.00241177 0)
(0.136519 0.0025129 0)
(0.135784 0.00261202 0)
(0.135021 0.00270906 0)
(0.134231 0.00280399 0)
(0.133414 0.00289678 0)
(0.13257 0.00298737 0)
(0.131701 0.00307574 0)
(0.130807 0.00316187 0)
(0.129889 0.00324573 0)
(0.128947 0.00332731 0)
(0.127982 0.00340658 0)
(0.126995 0.00348355 0)
(0.125986 0.00355821 0)
(0.124956 0.00363056 0)
(0.123906 0.00370059 0)
(0.122836 0.00376831 0)
(0.121747 0.00383374 0)
(0.120639 0.00389689 0)
(0.119514 0.00395777 0)
(0.118372 0.0040164 0)
(0.117214 0.0040728 0)
(0.11604 0.00412701 0)
(0.11485 0.00417903 0)
(0.113646 0.00422892 0)
(0.112429 0.00427669 0)
(0.111198 0.00432238 0)
(0.109954 0.00436603 0)
(0.108698 0.00440767 0)
(0.10743 0.00444734 0)
(0.106152 0.00448509 0)
(0.104863 0.00452095 0)
(0.103564 0.00455498 0)
(0.102256 0.0045872 0)
(0.100938 0.00461767 0)
(0.0996128 0.00464644 0)
(0.0982793 0.00467354 0)
(0.0969383 0.00469903 0)
(0.0955903 0.00472295 0)
(0.0942358 0.00474535 0)
(0.0928751 0.00476628 0)
(0.0915088 0.00478579 0)
(0.0901371 0.00480392 0)
(0.0887604 0.00482072 0)
(0.0873793 0.00483624 0)
(0.0859939 0.00485053 0)
(0.0846046 0.00486363 0)
(0.0832119 0.00487559 0)
(0.0818159 0.00488646 0)
(0.0804171 0.00489628 0)
(0.0790156 0.00490509 0)
(0.0776118 0.00491295 0)
(0.076206 0.00491989 0)
(0.0747984 0.00492596 0)
(0.0733892 0.00493121 0)
(0.0719786 0.00493567 0)
(0.070567 0.00493938 0)
(0.0691544 0.00494238 0)
(0.0677411 0.00494472 0)
(0.0663273 0.00494644 0)
(0.0649132 0.00494756 0)
(0.0634988 0.00494813 0)
(0.0620844 0.00494818 0)
(0.0606701 0.00494776 0)
(0.059256 0.00494688 0)
(0.0578423 0.00494559 0)
(0.056429 0.00494392 0)
(0.0550163 0.00494189 0)
(0.0536043 0.00493955 0)
(0.052193 0.00493692 0)
(0.0507826 0.00493403 0)
(0.049373 0.0049309 0)
(0.0479644 0.00492756 0)
(0.0465568 0.00492405 0)
(0.0451503 0.00492037 0)
(0.0437449 0.00491657 0)
(0.0423406 0.00491266 0)
(0.0409374 0.00490866 0)
(0.0395355 0.0049046 0)
(0.0381347 0.0049005 0)
(0.0367351 0.00489637 0)
(0.0353368 0.00489224 0)
(0.0339396 0.00488812 0)
(0.0325436 0.00488404 0)
(0.0311488 0.00488 0)
(0.0297552 0.00487603 0)
(0.0283627 0.00487213 0)
(0.0269713 0.00486833 0)
(0.0255811 0.00486464 0)
(0.0241918 0.00486107 0)
(0.0228036 0.00485763 0)
(0.0214164 0.00485434 0)
(0.0200301 0.0048512 0)
(0.0186447 0.00484823 0)
(0.0172601 0.00484543 0)
(0.0158763 0.00484281 0)
(0.0144932 0.00484038 0)
(0.0131109 0.00483816 0)
(0.0117291 0.00483613 0)
(0.0103479 0.00483432 0)
(0.00896714 0.00483272 0)
(0.00758684 0.00483134 0)
(0.00620691 0.00483018 0)
(0.00482728 0.00482926 0)
(0.00344789 0.00482856 0)
(0.00206867 0.0048281 0)
(0.000689545 0.00482786 0)
(0.000667045 -0.00600588 0)
(0.00200118 -0.00600623 0)
(0.00333542 -0.00600692 0)
(0.00466986 -0.00600795 0)
(0.00600457 -0.00600932 0)
(0.00733963 -0.00601103 0)
(0.00867512 -0.00601308 0)
(0.0100111 -0.00601546 0)
(0.0113477 -0.00601816 0)
(0.0126849 -0.00602119 0)
(0.0140228 -0.00602452 0)
(0.0153615 -0.00602817 0)
(0.016701 -0.00603212 0)
(0.0180415 -0.00603635 0)
(0.019383 -0.00604087 0)
(0.0207255 -0.00604566 0)
(0.0220691 -0.00605072 0)
(0.023414 -0.00605602 0)
(0.02476 -0.00606156 0)
(0.0261073 -0.00606733 0)
(0.0274559 -0.0060733 0)
(0.0288059 -0.00607947 0)
(0.0301574 -0.00608583 0)
(0.0315103 -0.00609234 0)
(0.0328646 -0.006099 0)
(0.0342205 -0.00610578 0)
(0.035578 -0.00611268 0)
(0.036937 -0.00611965 0)
(0.0382976 -0.0061267 0)
(0.0396599 -0.00613378 0)
(0.0410237 -0.00614088 0)
(0.0423892 -0.00614798 0)
(0.0437562 -0.00615504 0)
(0.0451249 -0.00616205 0)
(0.0464952 -0.00616896 0)
(0.0478671 -0.00617575 0)
(0.0492405 -0.0061824 0)
(0.0506154 -0.00618887 0)
(0.0519917 -0.00619512 0)
(0.0533695 -0.00620112 0)
(0.0547487 -0.00620684 0)
(0.0561291 -0.00621223 0)
(0.0575108 -0.00621726 0)
(0.0588936 -0.0062219 0)
(0.0602774 -0.00622609 0)
(0.0616622 -0.00622979 0)
(0.0630478 -0.00623297 0)
(0.0644342 -0.00623558 0)
(0.0658211 -0.00623756 0)
(0.0672085 -0.00623887 0)
(0.0685962 -0.00623947 0)
(0.069984 -0.00623929 0)
(0.0713717 -0.0062383 0)
(0.0727592 -0.00623643 0)
(0.0741463 -0.00623363 0)
(0.0755328 -0.00622984 0)
(0.0769183 -0.00622501 0)
(0.0783028 -0.00621907 0)
(0.079686 -0.00621198 0)
(0.0810675 -0.00620366 0)
(0.0824471 -0.00619406 0)
(0.0838245 -0.00618311 0)
(0.0851995 -0.00617075 0)
(0.0865716 -0.00615691 0)
(0.0879406 -0.00614153 0)
(0.0893061 -0.00612455 0)
(0.0906678 -0.00610589 0)
(0.0920252 -0.0060855 0)
(0.093378 -0.00606329 0)
(0.0947258 -0.00603922 0)
(0.0960681 -0.0060132 0)
(0.0974045 -0.00598517 0)
(0.0987345 -0.00595507 0)
(0.100058 -0.00592283 0)
(0.101374 -0.00588838 0)
(0.102682 -0.00585165 0)
(0.103982 -0.00581259 0)
(0.105273 -0.00577114 0)
(0.106554 -0.00572721 0)
(0.107826 -0.00568077 0)
(0.109087 -0.00563175 0)
(0.110337 -0.00558009 0)
(0.111575 -0.00552574 0)
(0.112801 -0.00546865 0)
(0.114014 -0.00540877 0)
(0.115214 -0.00534605 0)
(0.116399 -0.00528045 0)
(0.11757 -0.00521193 0)
(0.118725 -0.00514045 0)
(0.119863 -0.00506599 0)
(0.120985 -0.0049885 0)
(0.12209 -0.00490797 0)
(0.123176 -0.00482438 0)
(0.124243 -0.00473771 0)
(0.125291 -0.00464796 0)
(0.126319 -0.00455511 0)
(0.127325 -0.00445916 0)
(0.12831 -0.00436013 0)
(0.129272 -0.00425802 0)
(0.130212 -0.00415284 0)
(0.131128 -0.00404463 0)
(0.132019 -0.00393341 0)
(0.132885 -0.00381921 0)
(0.133725 -0.00370207 0)
(0.134539 -0.00358205 0)
(0.135326 -0.00345919 0)
(0.136085 -0.00333355 0)
(0.136816 -0.00320519 0)
(0.137518 -0.0030742 0)
(0.13819 -0.00294064 0)
(0.138832 -0.00280461 0)
(0.139444 -0.00266618 0)
(0.140024 -0.00252546 0)
(0.140573 -0.00238254 0)
(0.141089 -0.00223754 0)
(0.141573 -0.00209056 0)
(0.142024 -0.00194172 0)
(0.142442 -0.00179115 0)
(0.142825 -0.00163896 0)
(0.143175 -0.00148529 0)
(0.14349 -0.00133027 0)
(0.14377 -0.00117404 0)
(0.144015 -0.00101674 0)
(0.144224 -0.000858513 0)
(0.144399 -0.000699505 0)
(0.144537 -0.000539863 0)
(0.14464 -0.000379736 0)
(0.144707 -0.000219275 0)