/*--------------------------------*- C++ -*----------------------------------*\
| =========                 |                                                 |
| \\      /  F ield         | OpenFOAM: The Open Source CFD Toolbox           |
|  \\    /   O peration     | Version:  v2012                                 |
|   \\  /    A nd           | Website:  www.openfoam.com                      |
|    \\/     M anipulation  |                                                 |
\*---------------------------------------------------------------------------*/
FoamFile
{
    version     2.0;
    format      ascii;
    class       volScalarField;
    location    "17.25";
    object      W;
}
// * * * * * * * * * * * * * * * * * * * * * * * * * * * * * * * * * * * * * //

dimensions      [0 0 -1 0 0 0 0];


internalField   nonuniform List<scalar> 
65536
(
6.42996e-14
6.43799e-14
6.54034e-14
6.73699e-14
7.02927e-14
7.41981e-14
7.91249e-14
8.51247e-14
9.22622e-14
1.00615e-13
1.10276e-13
1.21352e-13
1.33965e-13
1.48255e-13
1.64378e-13
1.82511e-13
2.02852e-13
2.25619e-13
2.51057e-13
2.79435e-13
3.11051e-13
3.46236e-13
3.85351e-13
4.28794e-13
4.77002e-13
5.30456e-13
5.8968e-13
6.55248e-13
7.27787e-13
8.0798e-13
8.96574e-13
9.94378e-13
1.10227e-12
1.22122e-12
1.35225e-12
1.49649e-12
1.65516e-12
1.82957e-12
2.02113e-12
2.23136e-12
2.46192e-12
2.71455e-12
2.99115e-12
3.29375e-12
3.6245e-12
3.98571e-12
4.37984e-12
4.80951e-12
5.27749e-12
5.78672e-12
6.34031e-12
6.94154e-12
7.59386e-12
8.3009e-12
9.06646e-12
9.89452e-12
1.07892e-11
1.17548e-11
1.27958e-11
1.39168e-11
1.51226e-11
1.64179e-11
1.78078e-11
1.92974e-11
2.08917e-11
2.25959e-11
2.44152e-11
2.63548e-11
2.84198e-11
3.06151e-11
3.29457e-11
3.54163e-11
3.80314e-11
4.07952e-11
4.37115e-11
4.6784e-11
5.00156e-11
5.3409e-11
5.69661e-11
6.06885e-11
6.45766e-11
6.86307e-11
7.28497e-11
7.7232e-11
8.1775e-11
8.64751e-11
9.13277e-11
9.63271e-11
1.01467e-10
1.06738e-10
1.12133e-10
1.17641e-10
1.2325e-10
1.28949e-10
1.34723e-10
1.40558e-10
1.46438e-10
1.52347e-10
1.58267e-10
1.64179e-10
1.70064e-10
1.75903e-10
1.81676e-10
1.87361e-10
1.92938e-10
1.98386e-10
2.03684e-10
2.08812e-10
2.13749e-10
2.18475e-10
2.22972e-10
2.27222e-10
2.31208e-10
2.34913e-10
2.38323e-10
2.41425e-10
2.44208e-10
2.4666e-10
2.48775e-10
2.50545e-10
2.51966e-10
2.53035e-10
2.53751e-10
2.54114e-10
2.54128e-10
2.53796e-10
2.53125e-10
2.52122e-10
2.50795e-10
2.49157e-10
2.47218e-10
2.4499e-10
2.42489e-10
2.39728e-10
2.36723e-10
2.33489e-10
2.30042e-10
2.264e-10
2.22578e-10
2.18593e-10
2.14461e-10
2.10198e-10
2.05819e-10
2.0134e-10
1.96774e-10
1.92136e-10
1.87438e-10
1.82693e-10
1.77912e-10
1.73105e-10
1.68281e-10
1.63451e-10
1.5862e-10
1.53797e-10
1.48987e-10
1.44197e-10
1.3943e-10
1.3469e-10
1.29982e-10
1.25308e-10
1.2067e-10
1.16071e-10
1.11512e-10
1.06996e-10
1.02523e-10
9.80964e-11
9.37168e-11
8.93864e-11
8.51075e-11
8.08827e-11
7.67151e-11
7.26081e-11
6.85659e-11
6.4593e-11
6.06946e-11
5.68764e-11
5.31447e-11
4.95061e-11
4.59678e-11
4.2537e-11
3.92212e-11
3.6028e-11
3.29648e-11
3.00387e-11
2.72562e-11
2.46235e-11
2.21456e-11
1.98268e-11
1.76703e-11
1.56782e-11
1.38511e-11
1.21885e-11
1.06884e-11
9.34755e-12
8.16144e-12
7.12424e-12
6.22898e-12
5.46764e-12
4.83127e-12
4.31011e-12
3.89374e-12
3.5712e-12
3.33116e-12
3.16211e-12
3.05245e-12
2.99073e-12
2.96576e-12
2.96686e-12
2.98397e-12
3.00787e-12
3.03032e-12
3.04423e-12
3.04375e-12
3.02438e-12
2.98301e-12
2.91793e-12
2.82873e-12
2.71627e-12
2.58248e-12
2.43018e-12
2.2629e-12
2.08461e-12
1.89952e-12
1.71182e-12
1.52551e-12
1.34421e-12
1.17104e-12
1.00855e-12
8.58634e-13
7.22559e-13
6.00987e-13
4.94033e-13
4.01347e-13
3.22206e-13
2.55607e-13
2.00362e-13
1.5518e-13
1.18745e-13
8.97695e-14
6.70434e-14
4.94624e-14
3.60466e-14
2.59479e-14
1.84487e-14
1.29548e-14
8.98429e-15
6.15323e-15
4.16184e-15
2.78009e-15
1.83462e-15
1.19707e-15
7.74195e-16
4.99659e-16
3.27529e-16
2.27335e-16
1.80507e-16
9.56932e-14
9.58179e-14
9.73538e-14
1.003e-13
1.04677e-13
1.10525e-13
1.17902e-13
1.26886e-13
1.37576e-13
1.50089e-13
1.64565e-13
1.81165e-13
2.00076e-13
2.21508e-13
2.457e-13
2.72918e-13
3.03462e-13
3.37664e-13
3.75895e-13
4.18565e-13
4.66127e-13
5.1908e-13
5.77976e-13
6.43422e-13
7.16082e-13
7.96687e-13
8.86037e-13
9.85007e-13
1.09455e-12
1.21572e-12
1.34964e-12
1.49756e-12
1.66081e-12
1.84088e-12
2.03933e-12
2.25788e-12
2.49841e-12
2.7629e-12
3.05353e-12
3.37264e-12
3.72272e-12
4.10648e-12
4.5268e-12
4.98677e-12
5.48971e-12
6.03914e-12
6.63882e-12
7.29273e-12
8.00511e-12
8.78044e-12
9.62347e-12
1.05392e-11
1.15328e-11
1.26099e-11
1.37761e-11
1.50375e-11
1.64004e-11
1.78712e-11
1.94566e-11
2.11635e-11
2.2999e-11
2.49703e-11
2.70848e-11
2.93499e-11
3.17732e-11
3.43621e-11
3.71241e-11
4.00667e-11
4.31971e-11
4.65222e-11
5.0049e-11
5.37837e-11
5.77325e-11
6.19006e-11
6.62931e-11
7.0914e-11
7.57668e-11
8.0854e-11
8.61772e-11
9.17368e-11
9.75322e-11
1.03561e-10
1.09821e-10
1.16307e-10
1.23012e-10
1.29929e-10
1.37049e-10
1.4436e-10
1.5185e-10
1.59504e-10
1.67305e-10
1.75237e-10
1.83278e-10
1.91408e-10
1.99603e-10
2.07839e-10
2.16091e-10
2.2433e-10
2.32529e-10
2.40658e-10
2.48687e-10
2.56586e-10
2.64322e-10
2.71866e-10
2.79186e-10
2.86251e-10
2.93031e-10
2.99497e-10
3.05621e-10
3.11375e-10
3.16735e-10
3.21678e-10
3.26181e-10
3.30226e-10
3.33797e-10
3.36879e-10
3.3946e-10
3.41532e-10
3.4309e-10
3.4413e-10
3.44652e-10
3.44659e-10
3.44157e-10
3.43153e-10
3.4166e-10
3.3969e-10
3.37259e-10
3.34384e-10
3.31085e-10
3.27384e-10
3.23303e-10
3.18865e-10
3.14097e-10
3.09022e-10
3.03668e-10
2.9806e-10
2.92224e-10
2.86187e-10
2.79974e-10
2.7361e-10
2.6712e-10
2.60526e-10
2.5385e-10
2.47114e-10
2.40338e-10
2.3354e-10
2.26736e-10
2.19944e-10
2.13176e-10
2.06445e-10
1.99764e-10
1.93141e-10
1.86586e-10
1.80106e-10
1.73707e-10
1.67395e-10
1.61172e-10
1.55043e-10
1.4901e-10
1.43074e-10
1.37236e-10
1.31497e-10
1.25857e-10
1.20316e-10
1.14873e-10
1.09529e-10
1.04283e-10
9.91347e-11
9.40855e-11
8.91358e-11
8.42867e-11
7.95401e-11
7.48983e-11
7.03643e-11
6.59416e-11
6.16344e-11
5.74475e-11
5.3386e-11
4.94558e-11
4.56627e-11
4.20129e-11
3.85126e-11
3.5168e-11
3.19848e-11
2.89685e-11
2.61238e-11
2.34546e-11
2.09639e-11
1.86538e-11
1.65251e-11
1.45772e-11
1.28084e-11
1.12157e-11
9.79452e-12
8.53932e-12
7.44319e-12
6.49813e-12
5.69515e-12
5.02434e-12
4.47507e-12
4.03606e-12
3.69559e-12
3.44162e-12
3.26195e-12
3.14439e-12
3.07692e-12
3.04789e-12
3.04616e-12
3.06129e-12
3.08373e-12
3.10498e-12
3.11771e-12
3.1159e-12
3.09492e-12
3.05158e-12
2.9841e-12
2.89209e-12
2.7764e-12
2.63902e-12
2.48284e-12
2.31146e-12
2.12893e-12
1.93954e-12
1.74757e-12
1.5571e-12
1.37183e-12
1.19492e-12
1.02897e-12
8.75892e-13
7.36984e-13
6.12906e-13
5.0377e-13
4.0921e-13
3.28482e-13
2.60558e-13
2.04222e-13
1.58155e-13
1.2101e-13
9.14738e-14
6.83105e-14
5.03932e-14
3.67222e-14
2.64322e-14
1.87917e-14
1.31949e-14
9.15018e-15
6.26647e-15
4.23819e-15
2.83094e-15
1.86807e-15
1.21884e-15
7.88235e-16
5.08694e-16
3.33435e-16
2.31424e-16
1.83752e-16
1.70383e-13
1.70619e-13
1.73382e-13
1.78672e-13
1.86525e-13
1.97014e-13
2.10246e-13
2.26363e-13
2.45543e-13
2.68001e-13
2.93989e-13
3.23802e-13
3.57776e-13
3.96297e-13
4.39796e-13
4.88759e-13
5.43733e-13
6.05322e-13
6.74202e-13
7.51119e-13
8.36901e-13
9.3246e-13
1.0388e-12
1.15704e-12
1.28839e-12
1.43418e-12
1.59588e-12
1.77509e-12
1.97358e-12
2.19324e-12
2.43616e-12
2.70463e-12
3.00111e-12
3.32828e-12
3.68907e-12
4.08663e-12
4.52438e-12
5.00601e-12
5.53551e-12
6.11716e-12
6.75559e-12
7.45576e-12
8.22298e-12
9.06295e-12
9.98175e-12
1.09859e-11
1.20822e-11
1.32781e-11
1.45813e-11
1.60001e-11
1.75431e-11
1.92195e-11
2.10389e-11
2.30114e-11
2.51473e-11
2.74578e-11
2.9954e-11
3.26479e-11
3.55514e-11
3.86769e-11
4.20373e-11
4.56454e-11
4.95143e-11
5.36573e-11
5.80875e-11
6.2818e-11
6.78619e-11
7.32318e-11
7.894e-11
8.49983e-11
9.14177e-11
9.82087e-11
1.0538e-10
1.12941e-10
1.20898e-10
1.29256e-10
1.38019e-10
1.47189e-10
1.56767e-10
1.66749e-10
1.77132e-10
1.87908e-10
1.99068e-10
2.10598e-10
2.22484e-10
2.34707e-10
2.47245e-10
2.60073e-10
2.73163e-10
2.86484e-10
3.00002e-10
3.13678e-10
3.27471e-10
3.41339e-10
3.55235e-10
3.69109e-10
3.82912e-10
3.9659e-10
4.10089e-10
4.23352e-10
4.36324e-10
4.48947e-10
4.61165e-10
4.72922e-10
4.84163e-10
4.94833e-10
5.04882e-10
5.1426e-10
5.22921e-10
5.30824e-10
5.37929e-10
5.44202e-10
5.49614e-10
5.54139e-10
5.57759e-10
5.60458e-10
5.62228e-10
5.63067e-10
5.62975e-10
5.61962e-10
5.6004e-10
5.57228e-10
5.53549e-10
5.49032e-10
5.43708e-10
5.37615e-10
5.30792e-10
5.23282e-10
5.15131e-10
5.06387e-10
4.97099e-10
4.87317e-10
4.77092e-10
4.66477e-10
4.55522e-10
4.44277e-10
4.32793e-10
4.21116e-10
4.09294e-10
3.9737e-10
3.85385e-10
3.73381e-10
3.61393e-10
3.49454e-10
3.37597e-10
3.2585e-10
3.14237e-10
3.02782e-10
2.91503e-10
2.80418e-10
2.69541e-10
2.58883e-10
2.48454e-10
2.38262e-10
2.28311e-10
2.18604e-10
2.09143e-10
1.99929e-10
1.90959e-10
1.82232e-10
1.73745e-10
1.65493e-10
1.57472e-10
1.49678e-10
1.42105e-10
1.34749e-10
1.27604e-10
1.20666e-10
1.13931e-10
1.07395e-10
1.01056e-10
9.491e-11
8.89565e-11
8.31943e-11
7.76234e-11
7.22445e-11
6.7059e-11
6.20688e-11
5.72767e-11
5.26855e-11
4.82986e-11
4.41194e-11
4.01513e-11
3.63975e-11
3.28607e-11
2.9543e-11
2.64459e-11
2.35698e-11
2.09141e-11
1.84772e-11
1.6256e-11
1.42464e-11
1.24428e-11
1.08383e-11
9.42504e-12
8.19376e-12
7.13426e-12
6.23539e-12
5.48519e-12
4.87107e-12
4.3799e-12
3.9982e-12
3.7123e-12
3.50849e-12
3.37316e-12
3.29302e-12
3.25526e-12
3.24768e-12
3.25895e-12
3.27871e-12
3.29778e-12
3.30827e-12
3.30372e-12
3.27919e-12
3.23125e-12
3.15802e-12
3.05906e-12
2.93529e-12
2.7888e-12
2.62266e-12
2.44065e-12
2.24708e-12
2.04645e-12
1.84328e-12
1.64185e-12
1.44604e-12
1.25919e-12
1.08401e-12
9.22495e-13
7.75996e-13
6.45191e-13
5.3018e-13
4.30566e-13
3.4555e-13
2.7404e-13
2.14746e-13
1.66273e-13
1.27199e-13
9.61354e-14
7.17799e-14
5.29443e-14
3.85753e-14
2.77621e-14
1.97345e-14
1.38551e-14
9.60679e-15
6.5784e-15
4.44865e-15
2.9712e-15
1.96043e-15
1.27897e-15
8.27045e-16
5.33691e-16
3.49787e-16
2.42752e-16
1.92736e-16
3.17659e-13
3.18126e-13
3.23332e-13
3.33275e-13
3.48028e-13
3.67727e-13
3.92578e-13
4.2285e-13
4.58881e-13
5.01079e-13
5.49926e-13
6.0598e-13
6.69882e-13
7.42362e-13
8.24245e-13
9.16456e-13
1.02003e-12
1.13613e-12
1.26603e-12
1.41117e-12
1.57312e-12
1.75362e-12
1.9546e-12
2.17818e-12
2.42668e-12
2.70266e-12
3.00894e-12
3.34857e-12
3.72492e-12
4.14166e-12
4.6028e-12
5.1127e-12
5.67611e-12
6.29819e-12
6.98455e-12
7.74126e-12
8.5749e-12
9.49258e-12
1.0502e-11
1.16113e-11
1.28296e-11
1.41662e-11
1.56315e-11
1.72365e-11
1.89928e-11
2.09129e-11
2.30102e-11
2.52987e-11
2.77935e-11
3.05104e-11
3.34659e-11
3.66778e-11
4.01643e-11
4.39449e-11
4.80395e-11
5.24691e-11
5.72554e-11
6.24207e-11
6.79879e-11
7.39808e-11
8.04231e-11
8.73394e-11
9.47542e-11
1.02692e-10
1.11178e-10
1.20235e-10
1.29888e-10
1.4016e-10
1.51073e-10
1.62647e-10
1.74902e-10
1.87855e-10
2.01522e-10
2.15916e-10
2.31046e-10
2.46921e-10
2.63542e-10
2.80911e-10
2.99022e-10
3.17866e-10
3.37429e-10
3.57693e-10
3.78632e-10
4.00216e-10
4.22409e-10
4.45169e-10
4.68447e-10
4.92188e-10
5.16331e-10
5.40809e-10
5.65548e-10
5.90469e-10
6.15488e-10
6.40513e-10
6.65451e-10
6.90202e-10
7.14663e-10
7.3873e-10
7.62295e-10
7.85248e-10
8.0748e-10
8.28884e-10
8.4935e-10
8.68776e-10
8.87058e-10
9.04101e-10
9.19812e-10
9.34108e-10
9.4691e-10
9.58149e-10
9.67765e-10
9.75705e-10
9.81931e-10
9.8641e-10
9.89124e-10
9.90064e-10
9.89234e-10
9.86648e-10
9.8233e-10
9.76317e-10
9.68654e-10
9.59397e-10
9.4861e-10
9.36366e-10
9.22745e-10
9.07834e-10
8.91724e-10
8.74512e-10
8.56297e-10
8.37182e-10
8.17271e-10
7.96667e-10
7.75474e-10
7.53795e-10
7.31728e-10
7.09371e-10
6.86817e-10
6.64154e-10
6.41467e-10
6.18834e-10
5.96329e-10
5.74018e-10
5.51963e-10
5.30218e-10
5.08835e-10
4.87854e-10
4.67314e-10
4.47247e-10
4.27677e-10
4.08627e-10
3.90112e-10
3.72144e-10
3.5473e-10
3.37874e-10
3.21575e-10
3.0583e-10
2.90634e-10
2.75978e-10
2.61853e-10
2.48245e-10
2.35144e-10
2.22533e-10
2.104e-10
1.98728e-10
1.87502e-10
1.76708e-10
1.66331e-10
1.56356e-10
1.4677e-10
1.3756e-10
1.28716e-10
1.20225e-10
1.1208e-10
1.04271e-10
9.67906e-11
8.9634e-11
8.27956e-11
7.62715e-11
7.00585e-11
6.4154e-11
5.85562e-11
5.32633e-11
4.82739e-11
4.35863e-11
3.91988e-11
3.51089e-11
3.13137e-11
2.78092e-11
2.45906e-11
2.1652e-11
1.89861e-11
1.65847e-11
1.44381e-11
1.25357e-11
1.08655e-11
9.41462e-12
8.16918e-12
7.11454e-12
6.2354e-12
5.51599e-12
4.94015e-12
4.49158e-12
4.15394e-12
3.91104e-12
3.74702e-12
3.64649e-12
3.59473e-12
3.57788e-12
3.58308e-12
3.59868e-12
3.61438e-12
3.6214e-12
3.61254e-12
3.58233e-12
3.52699e-12
3.44442e-12
3.33416e-12
3.19719e-12
3.03579e-12
2.85331e-12
2.65387e-12
2.44214e-12
2.22301e-12
2.00139e-12
1.78189e-12
1.56872e-12
1.36547e-12
1.17504e-12
9.99595e-13
8.40553e-13
6.98628e-13
5.73905e-13
4.65929e-13
3.73819e-13
2.96374e-13
2.32184e-13
1.79728e-13
1.37457e-13
1.03864e-13
7.75326e-14
5.71749e-14
4.16491e-14
2.99683e-14
2.12987e-14
1.49505e-14
1.03646e-14
7.09613e-15
4.79802e-15
3.20406e-15
2.11377e-15
1.37882e-15
8.91499e-16
5.75209e-16
3.7695e-16
2.61572e-16
2.07661e-16
5.92724e-13
5.93649e-13
6.03466e-13
6.22174e-13
6.49912e-13
6.86943e-13
7.33656e-13
7.90563e-13
8.58309e-13
9.37668e-13
1.02956e-12
1.13504e-12
1.25533e-12
1.39182e-12
1.54609e-12
1.71988e-12
1.91519e-12
2.13421e-12
2.37939e-12
2.65346e-12
2.95944e-12
3.30064e-12
3.68075e-12
4.10383e-12
4.57432e-12
5.09713e-12
5.67763e-12
6.32171e-12
7.03581e-12
7.82698e-12
8.70292e-12
9.672e-12
1.07434e-11
1.19269e-11
1.32335e-11
1.46747e-11
1.62633e-11
1.80129e-11
1.99383e-11
2.20555e-11
2.43816e-11
2.6935e-11
2.97354e-11
3.28041e-11
3.61637e-11
3.98382e-11
4.38532e-11
4.82361e-11
5.30157e-11
5.82224e-11
6.38884e-11
7.00476e-11
7.67353e-11
8.39886e-11
9.18462e-11
1.00348e-10
1.09536e-10
1.19452e-10
1.30141e-10
1.41647e-10
1.54016e-10
1.67295e-10
1.81529e-10
1.96765e-10
2.13049e-10
2.30426e-10
2.48939e-10
2.68632e-10
2.89544e-10
3.11713e-10
3.35172e-10
3.59951e-10
3.86077e-10
4.1357e-10
4.42443e-10
4.72705e-10
5.04356e-10
5.3739e-10
5.71789e-10
6.0753e-10
6.44576e-10
6.82881e-10
7.2239e-10
7.63033e-10
8.04732e-10
8.47392e-10
8.90912e-10
9.35173e-10
9.80047e-10
1.02539e-09
1.07106e-09
1.11688e-09
1.16269e-09
1.2083e-09
1.25352e-09
1.29815e-09
1.34199e-09
1.38484e-09
1.42647e-09
1.46668e-09
1.50527e-09
1.54202e-09
1.57673e-09
1.60921e-09
1.63927e-09
1.66675e-09
1.69147e-09
1.71329e-09
1.73209e-09
1.74774e-09
1.76016e-09
1.76928e-09
1.77505e-09
1.77743e-09
1.77642e-09
1.77204e-09
1.76433e-09
1.75334e-09
1.73915e-09
1.72188e-09
1.70163e-09
1.67854e-09
1.65277e-09
1.62449e-09
1.59387e-09
1.56111e-09
1.52639e-09
1.48993e-09
1.45193e-09
1.4126e-09
1.37214e-09
1.33076e-09
1.28867e-09
1.24605e-09
1.2031e-09
1.15999e-09
1.11691e-09
1.074e-09
1.03141e-09
9.89284e-10
9.47742e-10
9.06896e-10
8.66845e-10
8.27674e-10
7.89459e-10
7.5226e-10
7.16131e-10
6.8111e-10
6.47227e-10
6.14504e-10
5.82951e-10
5.52574e-10
5.23368e-10
4.95325e-10
4.68428e-10
4.42657e-10
4.17988e-10
3.94394e-10
3.71843e-10
3.50303e-10
3.2974e-10
3.10117e-10
2.914e-10
2.73552e-10
2.56537e-10
2.40321e-10
2.24868e-10
2.10148e-10
1.96127e-10
1.82777e-10
1.70069e-10
1.57979e-10
1.4648e-10
1.35553e-10
1.25176e-10
1.15332e-10
1.06003e-10
9.71757e-11
8.88361e-11
8.09721e-11
7.35728e-11
6.66277e-11
6.01272e-11
5.40617e-11
4.84216e-11
4.31974e-11
3.83787e-11
3.39549e-11
2.99141e-11
2.6244e-11
2.29308e-11
1.99599e-11
1.73156e-11
1.49812e-11
1.29389e-11
1.11703e-11
9.65608e-12
8.37647e-12
7.31124e-12
6.43994e-12
5.74203e-12
5.19706e-12
4.78484e-12
4.48561e-12
4.28021e-12
4.15025e-12
4.07829e-12
4.04802e-12
4.04443e-12
4.054e-12
4.06485e-12
4.06689e-12
4.05188e-12
4.01359e-12
3.94771e-12
3.85187e-12
3.72552e-12
3.56978e-12
3.38718e-12
3.18146e-12
2.95723e-12
2.71967e-12
2.47424e-12
2.22636e-12
1.98116e-12
1.74329e-12
1.5167e-12
1.30458e-12
1.10931e-12
9.32421e-13
7.74673e-13
6.36128e-13
5.16255e-13
4.1405e-13
3.28159e-13
2.57001e-13
1.98877e-13
1.52057e-13
1.14863e-13
8.57197e-14
6.31959e-14
4.60236e-14
3.31081e-14
2.35249e-14
1.65096e-14
1.14431e-14
7.83304e-15
5.2953e-15
3.53552e-15
2.33205e-15
1.52096e-15
9.83248e-16
6.3431e-16
4.15618e-16
2.88363e-16
2.28908e-16
1.0934e-12
1.09521e-12
1.11352e-12
1.14833e-12
1.19991e-12
1.26875e-12
1.35558e-12
1.46137e-12
1.58733e-12
1.73492e-12
1.90586e-12
2.10215e-12
2.32608e-12
2.58027e-12
2.86767e-12
3.19161e-12
3.5558e-12
3.96441e-12
4.42205e-12
4.93387e-12
5.50555e-12
6.1434e-12
6.85436e-12
7.6461e-12
8.52706e-12
9.50651e-12
1.05946e-11
1.18026e-11
1.31426e-11
1.46281e-11
1.62737e-11
1.80952e-11
2.01101e-11
2.23372e-11
2.47971e-11
2.75121e-11
3.05062e-11
3.38055e-11
3.74383e-11
4.14349e-11
4.5828e-11
5.06529e-11
5.59471e-11
6.17512e-11
6.81083e-11
7.50644e-11
8.26686e-11
9.09727e-11
1.00032e-10
1.09905e-10
1.20652e-10
1.32339e-10
1.45032e-10
1.58803e-10
1.73725e-10
1.89874e-10
2.0733e-10
2.26173e-10
2.46487e-10
2.68356e-10
2.91867e-10
3.17107e-10
3.44163e-10
3.73121e-10
4.04068e-10
4.37087e-10
4.72258e-10
5.0966e-10
5.49364e-10
5.91437e-10
6.3594e-10
6.82923e-10
7.32429e-10
7.8449e-10
8.39124e-10
8.96337e-10
9.56122e-10
1.01845e-09
1.08329e-09
1.15056e-09
1.2202e-09
1.2921e-09
1.36613e-09
1.44215e-09
1.51999e-09
1.59946e-09
1.68034e-09
1.7624e-09
1.84535e-09
1.92893e-09
2.01283e-09
2.09671e-09
2.18023e-09
2.26303e-09
2.34473e-09
2.42494e-09
2.50327e-09
2.57932e-09
2.65268e-09
2.72294e-09
2.78973e-09
2.85264e-09
2.91131e-09
2.96537e-09
3.01451e-09
3.0584e-09
3.09677e-09
3.12938e-09
3.156e-09
3.17648e-09
3.19068e-09
3.1985e-09
3.19989e-09
3.19487e-09
3.18346e-09
3.16575e-09
3.14187e-09
3.11198e-09
3.07631e-09
3.03508e-09
2.98859e-09
2.93713e-09
2.88105e-09
2.82071e-09
2.75648e-09
2.68875e-09
2.61793e-09
2.54443e-09
2.46866e-09
2.39102e-09
2.31192e-09
2.23174e-09
2.15087e-09
2.06967e-09
1.98848e-09
1.90764e-09
1.82743e-09
1.74813e-09
1.67001e-09
1.59328e-09
1.51816e-09
1.44481e-09
1.37338e-09
1.30401e-09
1.23681e-09
1.17184e-09
1.10917e-09
1.04885e-09
9.90886e-10
9.35297e-10
8.82071e-10
8.31185e-10
7.82605e-10
7.36288e-10
6.92181e-10
6.50224e-10
6.10351e-10
5.72492e-10
5.36574e-10
5.02519e-10
4.7025e-10
4.3969e-10
4.10761e-10
3.83385e-10
3.57489e-10
3.32999e-10
3.09846e-10
2.8796e-10
2.6728e-10
2.47743e-10
2.29292e-10
2.11875e-10
1.95441e-10
1.79944e-10
1.65341e-10
1.51592e-10
1.38663e-10
1.26518e-10
1.15128e-10
1.04465e-10
9.45008e-11
8.52121e-11
7.65753e-11
6.8568e-11
6.11686e-11
5.43555e-11
4.81075e-11
4.24029e-11
3.72198e-11
3.25356e-11
2.83271e-11
2.45701e-11
2.12401e-11
1.83115e-11
1.57584e-11
1.35542e-11
1.1672e-11
1.00847e-11
8.76521e-12
7.68653e-12
6.82202e-12
6.14551e-12
5.63151e-12
5.25535e-12
4.99337e-12
4.82307e-12
4.72332e-12
4.67449e-12
4.65867e-12
4.65981e-12
4.66388e-12
4.65904e-12
4.63566e-12
4.58646e-12
4.50645e-12
4.39288e-12
4.24509e-12
4.06435e-12
3.85354e-12
3.61693e-12
3.35975e-12
3.08788e-12
2.80751e-12
2.52476e-12
2.24545e-12
1.97478e-12
1.71722e-12
1.47634e-12
1.25477e-12
1.0542e-12
8.75472e-13
7.186e-13
5.82953e-13
4.67363e-13
3.70277e-13
2.89884e-13
2.24247e-13
1.71399e-13
1.29433e-13
9.6565e-14
7.11714e-14
5.1818e-14
3.72668e-14
2.64734e-14
1.85745e-14
1.28715e-14
8.8089e-15
5.95381e-15
3.97443e-15
2.62108e-15
1.70917e-15
1.10474e-15
7.12568e-16
4.66819e-16
3.23838e-16
2.57041e-16
1.98796e-12
1.99146e-12
2.02513e-12
2.089e-12
2.18356e-12
2.30972e-12
2.46887e-12
2.66277e-12
2.89369e-12
3.16432e-12
3.47786e-12
3.83801e-12
4.24903e-12
4.71578e-12
5.24374e-12
5.83907e-12
6.50871e-12
7.26037e-12
8.10266e-12
9.04514e-12
1.00984e-11
1.12742e-11
1.25855e-11
1.40466e-11
1.56732e-11
1.74827e-11
1.94941e-11
2.17283e-11
2.42082e-11
2.69588e-11
3.00076e-11
3.33843e-11
3.71215e-11
4.12548e-11
4.58226e-11
5.08668e-11
5.64327e-11
6.25694e-11
6.933e-11
7.67716e-11
8.4956e-11
9.39492e-11
1.03822e-10
1.14652e-10
1.26519e-10
1.3951e-10
1.53718e-10
1.69241e-10
1.86183e-10
2.04654e-10
2.24769e-10
2.4665e-10
2.70425e-10
2.96227e-10
3.24194e-10
3.54469e-10
3.87202e-10
4.22545e-10
4.60654e-10
5.01688e-10
5.45808e-10
5.93178e-10
6.43958e-10
6.9831e-10
7.56393e-10
8.1836e-10
8.84359e-10
9.54531e-10
1.02901e-09
1.10791e-09
1.19133e-09
1.27937e-09
1.37209e-09
1.46955e-09
1.57175e-09
1.67871e-09
1.79039e-09
1.90672e-09
2.0276e-09
2.1529e-09
2.28244e-09
2.41601e-09
2.55334e-09
2.69414e-09
2.83806e-09
2.98471e-09
3.13364e-09
3.28439e-09
3.43641e-09
3.58915e-09
3.74199e-09
3.8943e-09
4.04539e-09
4.19457e-09
4.34109e-09
4.48422e-09
4.6232e-09
4.75727e-09
4.88565e-09
5.0076e-09
5.12238e-09
5.22928e-09
5.32762e-09
5.41676e-09
5.49611e-09
5.56514e-09
5.62337e-09
5.67039e-09
5.70587e-09
5.72956e-09
5.74128e-09
5.74094e-09
5.72854e-09
5.70417e-09
5.66798e-09
5.62023e-09
5.56126e-09
5.49146e-09
5.41133e-09
5.32141e-09
5.2223e-09
5.11467e-09
4.9992e-09
4.87665e-09
4.74778e-09
4.61336e-09
4.4742e-09
4.33108e-09
4.1848e-09
4.03613e-09
3.88583e-09
3.73462e-09
3.58319e-09
3.4322e-09
3.28227e-09
3.13395e-09
2.98778e-09
2.84421e-09
2.70366e-09
2.56651e-09
2.43306e-09
2.3036e-09
2.17833e-09
2.05743e-09
1.94102e-09
1.82921e-09
1.72203e-09
1.61951e-09
1.52164e-09
1.42837e-09
1.33963e-09
1.25533e-09
1.17538e-09
1.09965e-09
1.028e-09
9.60285e-10
8.96364e-10
8.36076e-10
7.7926e-10
7.25756e-10
6.75404e-10
6.28043e-10
5.83519e-10
5.41678e-10
5.02374e-10
4.65466e-10
4.30816e-10
3.98296e-10
3.67784e-10
3.39163e-10
3.12326e-10
2.87172e-10
2.63605e-10
2.41537e-10
2.20888e-10
2.01582e-10
1.83549e-10
1.66726e-10
1.51053e-10
1.36474e-10
1.22939e-10
1.10401e-10
9.88127e-11
8.8133e-11
7.83206e-11
6.9336e-11
6.11407e-11
5.36968e-11
4.69667e-11
4.09132e-11
3.54986e-11
3.06856e-11
2.64363e-11
2.27131e-11
1.9478e-11
1.66932e-11
1.43214e-11
1.23253e-11
1.06684e-11
9.3147e-12
8.22941e-12
7.37861e-12
6.72971e-12
6.25148e-12
5.91428e-12
5.6902e-12
5.55321e-12
5.47934e-12
5.44685e-12
5.4364e-12
5.43118e-12
5.41703e-12
5.38254e-12
5.31907e-12
5.22073e-12
5.08426e-12
4.90888e-12
4.69603e-12
4.44906e-12
4.17287e-12
3.87351e-12
3.55775e-12
3.23271e-12
2.90542e-12
2.58252e-12
2.26999e-12
1.97289e-12
1.69529e-12
1.44016e-12
1.2094e-12
1.00391e-12
8.23672e-13
6.67916e-13
5.35268e-13
4.23915e-13
3.31757e-13
2.56549e-13
1.96023e-13
1.47982e-13
1.1037e-13
8.13221e-14
5.9192e-14
4.25589e-14
3.02251e-14
2.12018e-14
1.46887e-14
1.00504e-14
6.79152e-15
4.53275e-15
2.98873e-15
1.94857e-15
1.25926e-15
8.12104e-16
5.3194e-16
3.68956e-16
2.92823e-16
3.55984e-12
3.56649e-12
3.62753e-12
3.74299e-12
3.9138e-12
4.14165e-12
4.42903e-12
4.77922e-12
5.19632e-12
5.68528e-12
6.25193e-12
6.90304e-12
7.64641e-12
8.49091e-12
9.44657e-12
1.05247e-11
1.17379e-11
1.31005e-11
1.46281e-11
1.63384e-11
1.82507e-11
2.03866e-11
2.277e-11
2.54272e-11
2.83871e-11
3.16817e-11
3.53461e-11
3.94186e-11
4.39417e-11
4.89615e-11
5.45286e-11
6.06982e-11
6.75306e-11
7.50914e-11
8.34519e-11
9.26898e-11
1.02889e-10
1.14141e-10
1.26543e-10
1.40202e-10
1.55233e-10
1.71759e-10
1.89911e-10
2.09832e-10
2.31673e-10
2.55596e-10
2.81771e-10
3.10384e-10
3.41625e-10
3.75702e-10
4.12829e-10
4.53232e-10
4.97149e-10
5.44828e-10
5.96527e-10
6.52513e-10
7.13062e-10
7.78457e-10
8.48988e-10
9.24951e-10
1.00664e-09
1.09437e-09
1.18842e-09
1.2891e-09
1.39669e-09
1.51148e-09
1.63373e-09
1.76371e-09
1.90164e-09
2.04773e-09
2.20217e-09
2.3651e-09
2.53665e-09
2.71686e-09
2.90578e-09
3.10336e-09
3.30952e-09
3.52412e-09
3.74693e-09
3.97766e-09
4.21596e-09
4.46138e-09
4.71341e-09
4.97143e-09
5.23475e-09
5.5026e-09
5.77412e-09
6.04835e-09
6.32428e-09
6.6008e-09
6.87673e-09
7.15083e-09
7.42181e-09
7.68832e-09
7.94897e-09
8.20234e-09
8.447e-09
8.68154e-09
8.90451e-09
9.11455e-09
9.31028e-09
9.49043e-09
9.65377e-09
9.79916e-09
9.92557e-09
1.00321e-08
1.01179e-08
1.01824e-08
1.02251e-08
1.02455e-08
1.02436e-08
1.02192e-08
1.01726e-08
1.0104e-08
1.00139e-08
9.90288e-09
9.77176e-09
9.62143e-09
9.45293e-09
9.2674e-09
9.06612e-09
8.8504e-09
8.62168e-09
8.3814e-09
8.13107e-09
7.8722e-09
7.60632e-09
7.33494e-09
7.05952e-09
6.78152e-09
6.5023e-09
6.22319e-09
5.94543e-09
5.67016e-09
5.39846e-09
5.13129e-09
4.86953e-09
4.61394e-09
4.3652e-09
4.12388e-09
3.89044e-09
3.66528e-09
3.44868e-09
3.24085e-09
3.04192e-09
2.85196e-09
2.67095e-09
2.49883e-09
2.33548e-09
2.18074e-09
2.0344e-09
1.89624e-09
1.76598e-09
1.64335e-09
1.52805e-09
1.41975e-09
1.31816e-09
1.22293e-09
1.13376e-09
1.05031e-09
9.72281e-10
8.99356e-10
8.31238e-10
7.6764e-10
7.08285e-10
6.5291e-10
6.01264e-10
5.5311e-10
5.08226e-10
4.664e-10
4.27439e-10
3.91158e-10
3.57389e-10
3.25974e-10
2.96767e-10
2.69634e-10
2.4445e-10
2.21102e-10
1.99483e-10
1.79496e-10
1.61049e-10
1.44058e-10
1.28445e-10
1.14135e-10
1.01057e-10
8.91439e-11
7.83322e-11
6.85592e-11
5.97643e-11
5.18885e-11
4.48738e-11
3.86632e-11
3.32007e-11
2.8431e-11
2.42998e-11
2.0754e-11
1.77413e-11
1.52109e-11
1.31135e-11
1.14013e-11
1.00284e-11
8.9505e-12
8.12577e-12
7.51437e-12
7.07882e-12
6.78416e-12
6.59804e-12
6.49086e-12
6.43599e-12
6.40984e-12
6.39203e-12
6.36547e-12
6.31647e-12
6.23465e-12
6.11297e-12
5.94755e-12
5.73741e-12
5.48423e-12
5.1919e-12
4.86614e-12
4.51401e-12
4.14339e-12
3.76254e-12
3.37963e-12
3.00234e-12
2.63758e-12
2.29118e-12
1.96782e-12
1.67087e-12
1.4025e-12
1.16368e-12
9.54355e-13
7.7357e-13
6.19697e-13
4.90595e-13
3.83802e-13
2.96694e-13
2.26622e-13
1.71027e-13
1.27519e-13
9.39307e-14
6.83506e-14
4.9131e-14
3.48838e-14
2.44639e-14
1.69448e-14
1.15916e-14
7.83142e-15
5.22579e-15
3.44507e-15
2.2457e-15
1.45104e-15
9.35632e-16
6.12755e-16
4.24947e-16
3.37226e-16
6.27765e-12
6.29011e-12
6.39911e-12
6.60478e-12
6.90877e-12
7.31416e-12
7.82544e-12
8.44853e-12
9.1908e-12
1.00612e-11
1.10701e-11
1.22299e-11
1.35545e-11
1.506e-11
1.67643e-11
1.8688e-11
2.08539e-11
2.32876e-11
2.60175e-11
2.90755e-11
3.24967e-11
3.63201e-11
4.05889e-11
4.53508e-11
5.06584e-11
5.65696e-11
6.31481e-11
7.0464e-11
7.8594e-11
8.76223e-11
9.7641e-11
1.08751e-10
1.21061e-10
1.34693e-10
1.49775e-10
1.6645e-10
1.84871e-10
2.05205e-10
2.27632e-10
2.52347e-10
2.79559e-10
3.09494e-10
3.42394e-10
3.7852e-10
4.18149e-10
4.61579e-10
5.09124e-10
5.61122e-10
6.17928e-10
6.79918e-10
7.47488e-10
8.21056e-10
9.01058e-10
9.8795e-10
1.08221e-09
1.18432e-09
1.29479e-09
1.41415e-09
1.54292e-09
1.68165e-09
1.83088e-09
1.99117e-09
2.16305e-09
2.34708e-09
2.54377e-09
2.75364e-09
2.97717e-09
3.21482e-09
3.467e-09
3.73409e-09
4.0164e-09
4.31418e-09
4.62762e-09
4.95681e-09
5.30175e-09
5.66237e-09
6.03846e-09
6.42969e-09
6.83562e-09
7.25567e-09
7.6891e-09
8.13506e-09
8.59251e-09
9.06027e-09
9.53698e-09
1.00212e-08
1.05111e-08
1.10051e-08
1.15011e-08
1.1997e-08
1.24905e-08
1.29794e-08
1.34612e-08
1.39333e-08
1.43931e-08
1.4838e-08
1.52654e-08
1.56726e-08
1.6057e-08
1.64161e-08
1.67473e-08
1.70485e-08
1.73174e-08
1.7552e-08
1.77506e-08
1.79116e-08
1.80337e-08
1.81159e-08
1.81574e-08
1.81578e-08
1.8117e-08
1.80351e-08
1.79128e-08
1.77506e-08
1.75499e-08
1.73119e-08
1.70384e-08
1.67312e-08
1.63925e-08
1.60245e-08
1.563e-08
1.52113e-08
1.47714e-08
1.43131e-08
1.38391e-08
1.33524e-08
1.28558e-08
1.23522e-08
1.18442e-08
1.13344e-08
1.08253e-08
1.03193e-08
9.81851e-09
9.32495e-09
8.84043e-09
8.36656e-09
7.90478e-09
7.45631e-09
7.0222e-09
6.60329e-09
6.20027e-09
5.81364e-09
5.44374e-09
5.09075e-09
4.75475e-09
4.43565e-09
4.13329e-09
3.84739e-09
3.57758e-09
3.32344e-09
3.08447e-09
2.86014e-09
2.64988e-09
2.45308e-09
2.26911e-09
2.09735e-09
1.93716e-09
1.78792e-09
1.64899e-09
1.51977e-09
1.39966e-09
1.2881e-09
1.18453e-09
1.08842e-09
9.99277e-10
9.16623e-10
8.40013e-10
7.69024e-10
7.03265e-10
6.42367e-10
5.85989e-10
5.33814e-10
4.85548e-10
4.40921e-10
3.99681e-10
3.61599e-10
3.26463e-10
2.94078e-10
2.64264e-10
2.36856e-10
2.11701e-10
1.88659e-10
1.67596e-10
1.48391e-10
1.30928e-10
1.15099e-10
1.00801e-10
8.79352e-11
7.64078e-11
6.61282e-11
5.70092e-11
4.89661e-11
4.19169e-11
3.57823e-11
3.04851e-11
2.59508e-11
2.21076e-11
1.8886e-11
1.62195e-11
1.40446e-11
1.23006e-11
1.093e-11
9.87846e-12
9.09508e-12
8.53225e-12
8.14591e-12
7.8956e-12
7.74457e-12
7.65992e-12
7.61269e-12
7.578e-12
7.53508e-12
7.4673e-12
7.36216e-12
7.21116e-12
7.00959e-12
6.75626e-12
6.4531e-12
6.10469e-12
5.71775e-12
5.30054e-12
4.86233e-12
4.41279e-12
3.96145e-12
3.5173e-12
3.08836e-12
2.68141e-12
2.30185e-12
1.95359e-12
1.63908e-12
1.35939e-12
1.11439e-12
9.02933e-13
7.23051e-13
5.72208e-13
4.47492e-13
3.45811e-13
2.64053e-13
1.99214e-13
1.48492e-13
1.09349e-13
7.95483e-14
5.71653e-14
4.05784e-14
2.84509e-14
1.97021e-14
1.3475e-14
9.10208e-15
6.07255e-15
4.00259e-15
2.60869e-15
1.68532e-15
1.08653e-15
7.11472e-16
4.93338e-16
3.91462e-16
1.09024e-11
1.09254e-11
1.11172e-11
1.14782e-11
1.20112e-11
1.27219e-11
1.36181e-11
1.47104e-11
1.60119e-11
1.75383e-11
1.93084e-11
2.13438e-11
2.36695e-11
2.63137e-11
2.93088e-11
3.2691e-11
3.65009e-11
4.07841e-11
4.55913e-11
5.09792e-11
5.70105e-11
6.37548e-11
7.12893e-11
7.96991e-11
8.90782e-11
9.95304e-11
1.1117e-10
1.24122e-10
1.38524e-10
1.54527e-10
1.72297e-10
1.92015e-10
2.13878e-10
2.38101e-10
2.64919e-10
2.94588e-10
3.27384e-10
3.63608e-10
4.03585e-10
4.47666e-10
4.96231e-10
5.49688e-10
6.08476e-10
6.73064e-10
7.43957e-10
8.21692e-10
9.06843e-10
1.00002e-09
1.10186e-09
1.21306e-09
1.33434e-09
1.46644e-09
1.61017e-09
1.76634e-09
1.93583e-09
2.11953e-09
2.31835e-09
2.53325e-09
2.76518e-09
3.01514e-09
3.28411e-09
3.57308e-09
3.88305e-09
4.215e-09
4.56986e-09
4.94857e-09
5.35198e-09
5.78092e-09
6.23612e-09
6.71823e-09
7.2278e-09
7.76526e-09
8.3309e-09
8.92485e-09
9.54708e-09
1.01974e-08
1.08753e-08
1.15802e-08
1.23112e-08
1.30672e-08
1.38467e-08
1.4648e-08
1.54693e-08
1.63082e-08
1.71622e-08
1.80283e-08
1.89036e-08
1.97845e-08
2.06674e-08
2.15483e-08
2.24231e-08
2.32873e-08
2.41364e-08
2.49657e-08
2.57704e-08
2.65457e-08
2.72867e-08
2.79885e-08
2.86465e-08
2.92561e-08
2.98129e-08
3.03127e-08
3.07518e-08
3.11267e-08
3.14344e-08
3.16723e-08
3.18382e-08
3.19307e-08
3.19486e-08
3.18916e-08
3.17598e-08
3.15538e-08
3.12751e-08
3.09255e-08
3.05073e-08
3.00236e-08
2.94778e-08
2.88736e-08
2.82155e-08
2.75079e-08
2.67557e-08
2.59641e-08
2.51381e-08
2.42833e-08
2.34048e-08
2.25081e-08
2.15983e-08
2.06805e-08
1.97597e-08
1.88405e-08
1.79272e-08
1.7024e-08
1.61345e-08
1.52623e-08
1.44102e-08
1.3581e-08
1.2777e-08
1.2e-08
1.12516e-08
1.05331e-08
9.84536e-09
9.1889e-09
8.56406e-09
7.97088e-09
7.40917e-09
6.87852e-09
6.37836e-09