/*--------------------------------*- C++ -*----------------------------------*\
| =========                 |                                                 |
| \\      /  F ield         | OpenFOAM: The Open Source CFD Toolbox           |
|  \\    /   O peration     | Version:  v2012                                 |
|   \\  /    A nd           | Website:  www.openfoam.com                      |
|    \\/     M anipulation  |                                                 |
\*---------------------------------------------------------------------------*/
FoamFile
{
    version     2.0;
    format      ascii;
    class       surfaceScalarField;
    location    "20";
    object      phi;
}
// * * * * * * * * * * * * * * * * * * * * * * * * * * * * * * * * * * * * * //

dimensions      [0 3 -1 0 0 0 0];
oriented        oriented;


internalField   nonuniform List<scalar> 
130560
(
3.16784e-06
-3.16784e-06
6.33581e-06
-3.16796e-06
9.504e-06
-3.1682e-06
1.26726e-05
-3.16855e-06
1.58416e-05
-3.16903e-06
1.90112e-05
-3.16961e-06
2.21815e-05
-3.17031e-06
2.53526e-05
-3.17113e-06
2.85247e-05
-3.17205e-06
3.16978e-05
-3.17308e-06
3.4872e-05
-3.17422e-06
3.80475e-05
-3.17546e-06
4.12243e-05
-3.1768e-06
4.44025e-05
-3.17824e-06
4.75823e-05
-3.17977e-06
5.07636e-05
-3.18138e-06
5.39467e-05
-3.18308e-06
5.71316e-05
-3.18486e-06
6.03183e-05
-3.18671e-06
6.35069e-05
-3.18862e-06
6.66975e-05
-3.1906e-06
6.98901e-05
-3.19264e-06
7.30849e-05
-3.19472e-06
7.62817e-05
-3.19685e-06
7.94807e-05
-3.19901e-06
8.26819e-05
-3.2012e-06
8.58853e-05
-3.2034e-06
8.9091e-05
-3.20562e-06
9.22988e-05
-3.20784e-06
9.55088e-05
-3.21005e-06
9.87211e-05
-3.21225e-06
0.000101936
-3.21441e-06
0.000105152
-3.21654e-06
0.000108371
-3.21862e-06
0.000111591
-3.22064e-06
0.000114814
-3.22259e-06
0.000118038
-3.22445e-06
0.000121265
-3.22622e-06
0.000124492
-3.22787e-06
0.000127722
-3.2294e-06
0.000130953
-3.23079e-06
0.000134185
-3.23202e-06
0.000137418
-3.23309e-06
0.000140652
-3.23397e-06
0.000143886
-3.23465e-06
0.000147121
-3.2351e-06
0.000150357
-3.23533e-06
0.000153592
-3.23529e-06
0.000156827
-3.23499e-06
0.000160061
-3.23439e-06
0.000163295
-3.23348e-06
0.000166527
-3.23223e-06
0.000169758
-3.23063e-06
0.000172986
-3.22866e-06
0.000176213
-3.22629e-06
0.000179436
-3.2235e-06
0.000182657
-3.22027e-06
0.000185873
-3.21656e-06
0.000189085
-3.21237e-06
0.000192293
-3.20767e-06
0.000195496
-3.20242e-06
0.000198692
-3.1966e-06
0.000201882
-3.19019e-06
0.000205065
-3.18316e-06
0.000208241
-3.17548e-06
0.000211408
-3.16713e-06
0.000214566
-3.15808e-06
0.000217714
-3.14829e-06
0.000220852
-3.13774e-06
0.000223979
-3.12641e-06
0.000227093
-3.11425e-06
0.000230194
-3.10125e-06
0.000233281
-3.08737e-06
0.000236354
-3.07258e-06
0.000239411
-3.05686e-06
0.000242451
-3.04016e-06
0.000245474
-3.02247e-06
0.000248477
-3.00376e-06
0.000251461
-2.98399e-06
0.000254424
-2.96313e-06
0.000257366
-2.94115e-06
0.000260284
-2.91803e-06
0.000263177
-2.89375e-06
0.000266046
-2.86826e-06
0.000268887
-2.84154e-06
0.000271701
-2.81357e-06
0.000274485
-2.78432e-06
0.000277239
-2.75377e-06
0.000279961
-2.72189e-06
0.000282649
-2.68865e-06
0.000285303
-2.65405e-06
0.000287921
-2.61805e-06
0.000290502
-2.58065e-06
0.000293044
-2.54181e-06
0.000295545
-2.50153e-06
0.000298005
-2.45979e-06
0.000300422
-2.41658e-06
0.000302794
-2.37188e-06
0.000305119
-2.3257e-06
0.000307397
-2.27802e-06
0.000309626
-2.22884e-06
0.000311804
-2.17815e-06
0.00031393
-2.12596e-06
0.000316003
-2.07227e-06
0.00031802
-2.01709e-06
0.00031998
-1.96041e-06
0.000321882
-1.90227e-06
0.000323725
-1.84266e-06
0.000325507
-1.7816e-06
0.000327226
-1.71912e-06
0.000328881
-1.65523e-06
0.000330471
-1.58996e-06
0.000331994
-1.52334e-06
0.00033345
-1.4554e-06
0.000334836
-1.38617e-06
0.000336152
-1.31569e-06
0.000337396
-1.244e-06
0.000338567
-1.17114e-06
0.000339664
-1.09717e-06
0.000340686
-1.02212e-06
0.000341632
-9.46049e-07
0.000342501
-8.69013e-07
0.000343292
-7.91067e-07
0.000344004
-7.1227e-07
0.000344637
-6.32685e-07
0.000345189
-5.52375e-07
0.000345661
-4.71405e-07
0.000346051
-3.89844e-07
0.000346358
-3.07762e-07
0.000346584
-2.25229e-07
0.000346726
-1.42319e-07
0.000346785
-5.91044e-08
0.000346761
2.43393e-08
0.000346653
1.07937e-07
0.000346461
1.91612e-07
0.000346186
2.75288e-07
0.000345827
3.58888e-07
0.000345385
4.42337e-07
0.000344859
5.25557e-07
0.000344251
6.08473e-07
0.00034356
6.91011e-07
0.000342787
7.73095e-07
0.000341932
8.54655e-07
0.000340996
9.35617e-07
0.00033998
1.01591e-06
0.000338885
1.09547e-06
0.000337711
1.17423e-06
0.000336459
1.25213e-06
0.000335129
1.3291e-06
0.000333724
1.40508e-06
0.000332244
1.48003e-06
0.00033069
1.55387e-06
0.000329064
1.62657e-06
0.000327366
1.69807e-06
0.000325597
1.76833e-06
0.00032376
1.83731e-06
0.000321855
1.90496e-06
0.000319884
1.97126e-06
0.000317848
2.03616e-06
0.000315748
2.09964e-06
0.000313586
2.16167e-06
0.000311364
2.22222e-06
0.000309083
2.28129e-06
0.000306744
2.33884e-06
0.000304349
2.39486e-06
0.0003019
2.44935e-06
0.000299398
2.5023e-06
0.000296844
2.55369e-06
0.00029424
2.60352e-06
0.000291589
2.6518e-06
0.00028889
2.69853e-06
0.000286146
2.74371e-06
0.000283359
2.78735e-06
0.00028053
2.82946e-06
0.000277659
2.87005e-06
0.00027475
2.90913e-06
0.000271804
2.94672e-06
0.000268821
2.98283e-06
0.000265803
3.0175e-06
0.000262753
3.05073e-06
0.00025967
3.08254e-06
0.000256557
3.11297e-06
0.000253415
3.14204e-06
0.000250245
3.16977e-06
0.000247049
3.19619e-06
0.000243828
3.22133e-06
0.000240583
3.24521e-06
0.000237315
3.26788e-06
0.000234025
3.28935e-06
0.000230716
3.30966e-06
0.000227387
3.32884e-06
0.00022404
3.34692e-06
0.000220676
3.36393e-06
0.000217296
3.37992e-06
0.000213901
3.3949e-06
0.000210492
3.40891e-06
0.00020707
3.42199e-06
0.000203636
3.43417e-06
0.000200191
3.44548e-06
0.000196735
3.45595e-06
0.000193269
3.46561e-06
0.000189795
3.47451e-06
0.000186312
3.48266e-06
0.000182822
3.4901e-06
0.000179325
3.49686e-06
0.000175822
3.50298e-06
0.000172313
3.50847e-06
0.0001688
3.51338e-06
0.000165282
3.51774e-06
0.000161761
3.52156e-06
0.000158236
3.52488e-06
0.000154708
3.52772e-06
0.000151178
3.53012e-06
0.000147646
3.5321e-06
0.000144112
3.53369e-06
0.000140577
3.5349e-06
0.000137042
3.53577e-06
0.000133505
3.53632e-06
0.000129969
3.53658e-06
0.000126432
3.53656e-06
0.000122896
3.53628e-06
0.00011936
3.53578e-06
0.000115825
3.53507e-06
0.000112291
3.53416e-06
0.000108758
3.53309e-06
0.000105226
3.53186e-06
0.000101695
3.5305e-06
9.81664e-05
3.52903e-06
9.46389e-05
3.52745e-06
9.11131e-05
3.52579e-06
8.7589e-05
3.52407e-06
8.40668e-05
3.52229e-06
8.05463e-05
3.52048e-06
7.70276e-05
3.51863e-06
7.35109e-05
3.51678e-06
6.99959e-05
3.51493e-06
6.64828e-05
3.51309e-06
6.29716e-05
3.51128e-06
5.94621e-05
3.5095e-06
5.59543e-05
3.50776e-06
5.24482e-05
3.50608e-06
4.89438e-05
3.50446e-06
4.54409e-05
3.50291e-06
4.19394e-05
3.50144e-06
3.84394e-05
3.50006e-06
3.49406e-05
3.49877e-06
3.1443e-05
3.49758e-06
2.79465e-05
3.49649e-06
2.4451e-05
3.49551e-06
2.09564e-05
3.49464e-06
1.74625e-05
3.49389e-06
1.39692e-05
3.49326e-06
1.04765e-05
3.49275e-06
6.9841e-06
3.49237e-06
3.49199e-06
3.49212e-06
3.49199e-06
3.16773e-06
-6.33557e-06
6.33557e-06
-6.33581e-06
9.50365e-06
-6.33628e-06
1.26721e-05
-6.33699e-06
1.5841e-05
-6.33794e-06
1.90105e-05
-6.33911e-06
2.21807e-05
-6.34052e-06
2.53517e-05
-6.34215e-06
2.85237e-05
-6.344e-06
3.16966e-05
-6.34606e-06
3.48708e-05
-6.34834e-06
3.80461e-05
-6.35083e-06
4.12228e-05
-6.35351e-06
4.4401e-05
-6.35639e-06
4.75807e-05
-6.35944e-06
5.0762e-05
-6.36268e-06
5.3945e-05
-6.36608e-06
5.71298e-05
-6.36964e-06
6.03164e-05
-6.37335e-06
6.3505e-05
-6.37719e-06
6.66955e-05
-6.38115e-06
6.98881e-05
-6.38523e-06
7.30828e-05
-6.3894e-06
7.62796e-05
-6.39366e-06
7.94786e-05
-6.39799e-06
8.26797e-05
-6.40238e-06
8.58831e-05
-6.4068e-06
8.90888e-05
-6.41124e-06
9.22966e-05
-6.41569e-06
9.55067e-05
-6.42012e-06
9.8719e-05
-6.42452e-06
0.000101933
-6.42887e-06
0.00010515
-6.43314e-06
0.000108369
-6.43731e-06
0.000111589
-6.44136e-06
0.000114812
-6.44526e-06
0.000118037
-6.449e-06
0.000121263
-6.45254e-06
0.000124491
-6.45587e-06
0.000127721
-6.45894e-06
0.000130951
-6.46173e-06
0.000134184
-6.46422e-06
0.000137417
-6.46636e-06
0.000140651
-6.46814e-06
0.000143886
-6.46951e-06
0.000147121
-6.47045e-06
0.000150357
-6.47091e-06
0.000153592
-6.47086e-06
0.000156828
-6.47027e-06
0.000160062
-6.46909e-06
0.000163296
-6.46729e-06
0.000166529
-6.46482e-06
0.00016976
-6.46165e-06
0.000172989
-6.45772e-06
0.000176216
-6.453e-06
0.00017944
-6.44744e-06
0.00018266
-6.441e-06
0.000185877
-6.43362e-06
0.00018909
-6.42526e-06
0.000192298
-6.41587e-06
0.000195501
-6.4054e-06
0.000198699
-6.39379e-06
0.000201889
-6.381e-06
0.000205073
-6.36697e-06
0.000208249
-6.35164e-06
0.000211417
-6.33497e-06
0.000214576
-6.31688e-06
0.000217725
-6.29734e-06
0.000220864
-6.27627e-06
0.000223991
-6.25363e-06
0.000227106
-6.22935e-06
0.000230208
-6.20338e-06
0.000233296
-6.17565e-06
0.00023637
-6.1461e-06
0.000239428
-6.11468e-06
0.000242469
-6.08133e-06
0.000245492
-6.04598e-06
0.000248497
-6.00857e-06
0.000251482
-5.96906e-06
0.000254447
-5.92737e-06
0.000257389
-5.88345e-06
0.000260308
-5.83724e-06
0.000263203
-5.78869e-06
0.000266072
-5.73774e-06
0.000268915
-5.68433e-06
0.00027173
-5.62842e-06
0.000274516
-5.56994e-06
0.000277271
-5.50886e-06
0.000279994
-5.44512e-06
0.000282684
-5.37868e-06
0.00028534
-5.30949e-06
0.000287959
-5.23752e-06
0.000290541
-5.16272e-06
0.000293084
-5.08507e-06
0.000295587
-5.00452e-06
0.000298049
-4.92105e-06
0.000300467
-4.83464e-06
0.00030284
-4.74526e-06
0.000305167
-4.6529e-06
0.000307447
-4.55754e-06
0.000309677
-4.45917e-06
0.000311857
-4.3578e-06
0.000313984
-4.25342e-06
0.000316058
-4.14604e-06
0.000318077
-4.03566e-06
0.000320038
-3.92231e-06
0.000321942
-3.806e-06
0.000323786
-3.68676e-06
0.000325569
-3.56463e-06
0.00032729
-3.43964e-06
0.000328946
-3.31183e-06
0.000330538
-3.18127e-06
0.000332062
-3.04799e-06
0.000333519
-2.91208e-06
0.000334906
-2.77358e-06
0.000336223
-2.63258e-06
0.000337469
-2.48916e-06
0.000338641
-2.34341e-06
0.000339739
-2.1954e-06
0.000340762
-2.04526e-06
0.000341709
-1.89306e-06
0.000342579
-1.73893e-06
0.000343371
-1.58298e-06
0.000344084
-1.42533e-06
0.000344717
-1.26609e-06
0.00034527
-1.10541e-06
0.000345742
-9.43399e-07
0.000346133
-7.80208e-07
0.000346441
-6.15972e-07
0.000346667
-4.50834e-07
0.000346809
-2.84939e-07
0.000346869
-1.18436e-07
0.000346844
4.85276e-08
0.000346737
2.15799e-07
0.000346545
3.83225e-07
0.00034627
5.50654e-07
0.000345911
7.17931e-07
0.000345468
8.84904e-07
0.000344942
1.05142e-06
0.000344333
1.21733e-06
0.000343642
1.38248e-06
0.000342868
1.54672e-06
0.000342013
1.70991e-06
0.000341077
1.8719e-06
0.00034006
2.03256e-06
0.000338964
2.19175e-06
0.000337789
2.34934e-06
0.000336536
2.50519e-06
0.000335205
2.65919e-06
0.000333799
2.81121e-06
0.000332318
2.96115e-06
0.000330763
3.10889e-06
0.000329135
3.25434e-06
0.000327436
3.39739e-06
0.000325666
3.53795e-06
0.000323828
3.67594e-06
0.000321922
3.81129e-06
0.000319949
3.94391e-06
0.000317911
4.07374e-06
0.00031581
4.20072e-06
0.000313647
4.32481e-06
0.000311423
4.44594e-06
0.000309141
4.56409e-06
0.0003068
4.6792e-06
0.000304404
4.79127e-06
0.000301953
4.90025e-06
0.000299449
5.00614e-06
0.000296894
5.10893e-06
0.000294289
5.2086e-06
0.000291635
5.30516e-06
0.000288935
5.39862e-06
0.00028619
5.48897e-06
0.000283401
5.57624e-06
0.00028057
5.66044e-06
0.000277699
5.7416e-06
0.000274788
5.81975e-06
0.00027184
5.89491e-06
0.000268855
5.96713e-06
0.000265837
6.03643e-06
0.000262784
6.10286e-06
0.0002597
6.16647e-06
0.000256586
6.22731e-06
0.000253443
6.28541e-06
0.000250272
6.34085e-06
0.000247074
6.39366e-06
0.000243852
6.44391e-06
0.000240605
6.49165e-06
0.000237336
6.53694e-06
0.000234046
6.57986e-06
0.000230735
6.62044e-06
0.000227405
6.65877e-06
0.000224057
6.6949e-06
0.000220692
6.7289e-06
0.000217311
6.76084e-06
0.000213915
6.79077e-06
0.000210505
6.81877e-06
0.000207082
6.84489e-06
0.000203647
6.86921e-06
0.000200201
6.8918e-06
0.000196744
6.9127e-06
0.000193278
6.932e-06
0.000189803
6.94975e-06
0.000186319
6.96602e-06
0.000182829
6.98088e-06
0.000179331
6.99437e-06
0.000175827
7.00657e-06
0.000172318
7.01754e-06
0.000168804
7.02733e-06
0.000165286
7.036e-06
0.000161764
7.04362e-06
0.000158239
7.05023e-06
0.000154711
7.05589e-06
0.00015118
7.06067e-06
0.000147648
7.0646e-06
0.000144113
7.06774e-06
0.000140578
7.07015e-06
0.000137042
7.07187e-06
0.000133505
7.07295e-06
0.000129969
7.07343e-06
0.000126432
7.07337e-06
0.000122895
7.0728e-06
0.000119359
7.07177e-06
0.000115824
7.07032e-06
0.00011229
7.0685e-06
0.000108756
7.06633e-06
0.000105225
7.06386e-06
0.000101694
7.06112e-06
9.81648e-05
7.05815e-06
9.46372e-05
7.05499e-06
9.11114e-05
7.05166e-06
8.75872e-05
7.04819e-06
8.40649e-05
7.04462e-06
8.05444e-05
7.04097e-06
7.70258e-05
7.03728e-06
7.3509e-05
7.03356e-06
6.99941e-05
7.02985e-06
6.6481e-05
7.02616e-06
6.29698e-05
7.02252e-06
5.94603e-05
7.01895e-06
5.59526e-05
7.01547e-06
5.24466e-05
7.01209e-06
4.89422e-05
7.00885e-06
4.54394e-05
7.00574e-06
4.1938e-05
7.0028e-06
3.84381e-05
7.00002e-06
3.49394e-05
6.99744e-06
3.14419e-05
6.99505e-06
2.79455e-05
6.99286e-06
2.44501e-05
6.9909e-06
2.09556e-05
6.98916e-06
1.74619e-05
6.98766e-06
1.39687e-05
6.9864e-06
1.04761e-05
6.98538e-06
6.98385e-06
6.98461e-06
3.49186e-06
6.9841e-06
6.98385e-06
3.16749e-06
-9.50306e-06
6.3351e-06
-9.50342e-06
9.50294e-06
-9.50413e-06
1.26711e-05
-9.5052e-06
1.58398e-05
-9.50661e-06
1.90091e-05
-9.50838e-06
2.21791e-05
-9.51049e-06
2.53499e-05
-9.51294e-06
2.85216e-05
-9.51572e-06
3.16944e-05
-9.51883e-06
3.48683e-05
-9.52226e-06
3.80434e-05
-9.52599e-06
4.122e-05
-9.53003e-06
4.43979e-05
-9.53435e-06
4.75774e-05
-9.53895e-06
5.07586e-05
-9.54381e-06
5.39414e-05
-9.54893e-06
5.7126e-05
-9.55428e-06
6.03125e-05
-9.55985e-06
6.3501e-05
-9.56562e-06
6.66914e-05
-9.57159e-06
6.98839e-05
-9.57772e-06
7.30785e-05
-9.584e-06
7.62752e-05
-9.59041e-06
7.94742e-05
-9.59692e-06
8.26753e-05
-9.60352e-06
8.58787e-05
-9.61017e-06
8.90843e-05
-9.61686e-06
9.22922e-05
-9.62356e-06
9.55023e-05
-9.63023e-06
9.87146e-05
-9.63685e-06
0.000101929
-9.6434e-06
0.000105146
-9.64983e-06
0.000108365
-9.65611e-06
0.000111585
-9.66222e-06
0.000114808
-9.66811e-06
0.000118033
-9.67375e-06
0.00012126
-9.67909e-06
0.000124488
-9.68411e-06
0.000127718
-9.68875e-06
0.000130949
-9.69298e-06
0.000134181
-9.69675e-06
0.000137415
-9.70001e-06
0.00014065
-9.70271e-06
0.000143885
-9.70481e-06
0.000147121
-9.70626e-06
0.000150357
-9.707e-06
0.000153593
-9.70698e-06
0.000156829
-9.70613e-06
0.000160064
-9.70442e-06
0.000163299
-9.70176e-06
0.000166532
-9.69812e-06
0.000169764
-9.69341e-06
0.000172994
-9.68758e-06
0.000176221
-9.68055e-06
0.000179446
-9.67227e-06
0.000182668
-9.66267e-06
0.000185886
-9.65166e-06
0.0001891
-9.63919e-06
0.000192309
-9.62516e-06
0.000195513
-9.60952e-06
0.000198711
-9.59218e-06
0.000201903
-9.57305e-06
0.000205089
-9.55207e-06
0.000208266
-9.52915e-06
0.000211435
-9.50421e-06
0.000214596
-9.47715e-06
0.000217746
-9.44791e-06
0.000220886
-9.41638e-06
0.000224015
-9.38249e-06
0.000227132
-9.34615e-06
0.000230236
-9.30726e-06
0.000233326
-9.26574e-06
0.000236401
-9.2215e-06
0.000239461
-9.17444e-06
0.000242504
-9.12448e-06
0.00024553
-9.07153e-06
0.000248537
-9.0155e-06
0.000251524
-8.9563e-06
0.00025449
-8.89384e-06
0.000257435
-8.82804e-06
0.000260357
-8.7588e-06
0.000263254
-8.68604e-06
0.000266126
-8.60968e-06
0.000268971
-8.52963e-06
0.000271789
-8.44583e-06
0.000274577
-8.35818e-06
0.000277335
-8.26661e-06
0.00028006
-8.17106e-06
0.000282753
-8.07145e-06
0.000285411
-7.96772e-06
0.000288034
-7.85981e-06
0.000290619
-7.74766e-06
0.000293165
-7.63121e-06
0.000295671
-7.51043e-06
0.000298135
-7.38526e-06
0.000300556
-7.25566e-06
0.000302932
-7.12162e-06
0.000305263
-6.98309e-06
0.000307545
-6.84006e-06
0.000309778
-6.69252e-06
0.000311961
-6.54046e-06
0.000314092
-6.38388e-06
0.000316168
-6.22279e-06
0.00031819
-6.05721e-06
0.000320155
-5.88715e-06
0.000322061
-5.71265e-06
0.000323908
-5.53376e-06
0.000325694
-5.35051e-06
0.000327418
-5.16297e-06
0.000329077
-4.9712e-06
0.000330671
-4.77528e-06
0.000332198
-4.5753e-06
0.000333657
-4.37133e-06
0.000335047
-4.1635e-06
0.000336367
-3.9519e-06
0.000337614
-3.73666e-06
0.000338789
-3.51791e-06
0.000339889
-3.29579e-06
0.000340914
-3.07044e-06
0.000341863
-2.84201e-06
0.000342735
-2.61068e-06
0.000343529
-2.3766e-06
0.000344243
-2.13997e-06
0.000344878
-1.90095e-06
0.000345432
-1.65976e-06
0.000345906
-1.41658e-06
0.000346297
-1.17162e-06
0.000346606
-9.25086e-07
0.000346833
-6.77197e-07
0.000346976
-4.2817e-07
0.000347036
-1.78227e-07
0.000347012
7.24071e-08
0.000346904
3.23504e-07
0.000346712
5.74835e-07
0.000346437
8.2617e-07
0.000346078
1.07728e-06
0.000345634
1.32793e-06
0.000345108
1.57789e-06
0.000344498
1.82694e-06
0.000343806
2.07485e-06
0.000343031
2.32139e-06
0.000342175
2.56636e-06
0.000341237
2.80952e-06
0.000340219
3.05068e-06
0.000339121
3.28963e-06
0.000337944
3.52617e-06
0.00033669
3.7601e-06
0.000335357
3.99125e-06
0.000333949
4.21943e-06
0.000332466
4.44447e-06
0.000330909
4.66621e-06
0.000329278
4.8845e-06
0.000327577
5.09919e-06
0.000325804
5.31014e-06
0.000323963
5.51722e-06
0.000322054
5.72033e-06
0.000320079
5.91934e-06
0.000318038
6.11417e-06
0.000315934
6.30471e-06
0.000313768
6.4909e-06
0.000311541
6.67265e-06
0.000309256
6.84991e-06
0.000306912
7.02262e-06
0.000304513
7.19075e-06
0.000302059
7.35425e-06
0.000299552
7.5131e-06
0.000296993
7.66728e-06
0.000294385
7.8168e-06
0.000291729
7.96163e-06
0.000289026
8.1018e-06
0.000286277
8.23731e-06
0.000283485
8.36819e-06
0.000280651
8.49447e-06
0.000277777
8.61617e-06
0.000274863
8.73335e-06
0.000271912
8.84605e-06
0.000268925
8.95433e-06
0.000265903
9.05823e-06
0.000262848
9.15783e-06
0.000259761
9.25318e-06
0.000256644
9.34437e-06
0.000253498
9.43146e-06
0.000250324
9.51454e-06
0.000247124
9.59369e-06
0.000243899
9.66899e-06
0.00024065
9.74053e-06
0.000237379
9.8084e-06
0.000234086
9.87269e-06
0.000230773
9.93349e-06
0.000227441
9.9909e-06
0.000224091
1.0045e-05
0.000220724
1.00959e-05
0.000217341
1.01438e-05
0.000213943
1.01886e-05
0.000210531
1.02305e-05
0.000207107
1.02696e-05
0.00020367
1.0306e-05
0.000200222
1.03398e-05
0.000196764
1.03711e-05
0.000193296
1.03999e-05
0.000189819
1.04265e-05
0.000186334
1.04508e-05
0.000182842
1.0473e-05
0.000179343
1.04932e-05
0.000175838
1.05114e-05
0.000172328
1.05278e-05
0.000168813
1.05424e-05
0.000165294
1.05553e-05
0.000161771
1.05667e-05
0.000158244
1.05765e-05
0.000154715
1.0585e-05
0.000151184
1.0592e-05
0.000147651
1.05979e-05
0.000144116
1.06025e-05
0.00014058
1.06061e-05
0.000137043
1.06086e-05
0.000133506
1.06102e-05
0.000129969
1.06108e-05
0.000126431
1.06107e-05
0.000122894
1.06098e-05
0.000119358
1.06082e-05
0.000115822
1.0606e-05
0.000112288
1.06032e-05
0.000108754
1.05999e-05
0.000105222
1.05961e-05
0.000101691
1.0592e-05
9.81616e-05
1.05875e-05
9.46339e-05
1.05827e-05
9.11079e-05
1.05777e-05
8.75837e-05
1.05724e-05
8.40613e-05
1.0567e-05
8.05407e-05
1.05615e-05
7.70221e-05
1.05559e-05
7.35053e-05
1.05503e-05
6.99904e-05
1.05447e-05
6.64774e-05
1.05392e-05
6.29662e-05
1.05337e-05
5.94568e-05
1.05283e-05
5.59492e-05
1.05231e-05
5.24433e-05
1.0518e-05
4.89391e-05
1.05131e-05
4.54364e-05
1.05084e-05
4.19352e-05
1.0504e-05
3.84355e-05
1.04998e-05
3.4937e-05
1.04959e-05
3.14397e-05
1.04923e-05
2.79436e-05
1.0489e-05
2.44484e-05
1.04861e-05
2.09541e-05
1.04835e-05
1.74606e-05
1.04812e-05
1.39677e-05
1.04793e-05
1.04753e-05
1.04778e-05
6.98334e-06
1.04766e-05
3.4916e-06
1.04758e-05
1.04755e-05
3.16713e-06
-1.26702e-05
6.33438e-06
-1.26707e-05
9.50187e-06
-1.26716e-05
1.26697e-05
-1.2673e-05
1.58381e-05
-1.26749e-05
1.9007e-05
-1.26773e-05
2.21766e-05
-1.26801e-05
2.53471e-05
-1.26834e-05
2.85185e-05
-1.26871e-05
3.16909e-05
-1.26913e-05
3.48645e-05
-1.26959e-05
3.80394e-05
-1.27009e-05
4.12156e-05
-1.27063e-05
4.43933e-05
-1.2712e-05
4.75725e-05
-1.27182e-05
5.07534e-05
-1.27247e-05
5.3936e-05
-1.27315e-05
5.71204e-05
-1.27387e-05
6.03067e-05
-1.27461e-05
6.3495e-05
-1.27539e-05
6.66853e-05
-1.27619e-05
6.98776e-05
-1.27701e-05
7.30721e-05
-1.27785e-05
7.62687e-05
-1.2787e-05
7.94676e-05
-1.27958e-05
8.26686e-05
-1.28046e-05
8.5872e-05
-1.28135e-05
8.90776e-05
-1.28225e-05
9.22855e-05
-1.28314e-05
9.54956e-05
-1.28404e-05
9.8708e-05
-1.28493e-05
0.000101923
-1.2858e-05
0.00010514
-1.28667e-05
0.000108358
-1.28751e-05
0.00011158
-1.28833e-05
0.000114803
-1.28912e-05
0.000118028
-1.28988e-05
0.000121255
-1.2906e-05
0.000124483
-1.29127e-05
0.000127713
-1.2919e-05
0.000130945
-1.29247e-05
0.000134178
-1.29298e-05
0.000137412
-1.29342e-05
0.000140648
-1.29379e-05
0.000143884
-1.29408e-05
0.00014712
-1.29428e-05
0.000150357
-1.29439e-05
0.000153594
-1.29439e-05
0.000156831
-1.29429e-05
0.000160067
-1.29407e-05
0.000163302
-1.29372e-05
0.000166537
-1.29325e-05
0.00016977
-1.29263e-05
0.000173001
-1.29186e-05
0.000176229
-1.29094e-05
0.000179456
-1.28984e-05
0.000182679
-1.28857e-05
0.000185898
-1.28712e-05
0.000189114
-1.28547e-05
0.000192324
-1.28361e-05
0.00019553
-1.28153e-05
0.00019873
-1.27923e-05
0.000201924
-1.2767e-05
0.000205111
-1.27391e-05
0.000208291
-1.27087e-05
0.000211462
-1.26756e-05
0.000214625
-1.26396e-05
0.000217778
-1.26008e-05
0.00022092
-1.25589e-05
0.000224051
-1.25138e-05
0.000227171
-1.24655e-05
0.000230277
-1.24138e-05
0.00023337
-1.23586e-05
0.000236448
-1.22997e-05
0.000239511
-1.22371e-05
0.000242557
-1.21706e-05
0.000245586
-1.21002e-05
0.000248596
-1.20256e-05
0.000251586
-1.19468e-05
0.000254556
-1.18637e-05
0.000257504
-1.17761e-05
0.000260429
-1.16839e-05
0.00026333
-1.1587e-05
0.000266206
-1.14853e-05
0.000269055
-1.13787e-05
0.000271876
-1.12671e-05
0.000274668
-1.11503e-05
0.00027743
-1.10284e-05
0.00028016
-1.09011e-05
0.000282857
-1.07683e-05
0.000285519
-1.06301e-05
0.000288146
-1.04863e-05
0.000290735
-1.03369e-05
0.000293286
-1.01817e-05
0.000295796
-1.00207e-05
0.000298264
-9.85388e-06
0.00030069
-9.68114e-06
0.000303071
-9.50246e-06
0.000305405
-9.31778e-06
0.000307693
-9.1271e-06
0.00030993
-8.93039e-06
0.000312118
-8.72764e-06
0.000314253
-8.51886e-06
0.000316334
-8.30405e-06
0.00031836
-8.08323e-06
0.000320329
-7.85644e-06
0.00032224
-7.62371e-06
0.000324091
-7.38511e-06
0.000325882
-7.14069e-06
0.000327609
-6.89053e-06
0.000329273
-6.63473e-06
0.000330871
-6.37337e-06
0.000332402
-6.10658e-06
0.000333865
-5.83447e-06
0.000335259
-5.55718e-06
0.000336582
-5.27486e-06
0.000337833
-4.98768e-06
0.000339011
-4.6958e-06
0.000340114
-4.3994e-06
0.000341143
-4.09869e-06
0.000342095
-3.79387e-06
0.000342969
-3.48516e-06
0.000343765
-3.17278e-06
0.000344482
-2.85698e-06
0.000345119
-2.538e-06
0.000345676
-2.2161e-06
0.000346151
-1.89154e-06
0.000346544
-1.5646e-06
0.000346854
-1.23556e-06
0.000347082
-9.04699e-07
0.000347226
-5.72318e-07
0.000347286
-2.3871e-07
0.000347263
9.58218e-08
0.000347155
4.30974e-07
0.000346964
7.6644e-07
0.000346688
1.10191e-06
0.000346328
1.43708e-06
0.000345884
1.77164e-06
0.000345357
2.10528e-06
0.000344746
2.43769e-06
0.000344053
2.76858e-06
0.000343276
3.09765e-06
0.000342418
3.4246e-06
0.000341478
3.74915e-06
0.000340458
4.07101e-06
0.000339358
4.38992e-06
0.000338178
4.7056e-06
0.000336921
5.0178e-06
0.000335586
5.32628e-06
0.000334174
5.63078e-06
0.000332688
5.93109e-06
0.000331127
6.22698e-06
0.000329493
6.51826e-06
0.000327788
6.80472e-06
0.000326012
7.08619e-06
0.000324166
7.36249e-06
0.000322253
7.63346e-06
0.000320274
7.89897e-06
0.000318229
8.15888e-06
0.00031612
8.41306e-06
0.00031395
8.66142e-06
0.000311719
8.90385e-06
0.000309428
9.14028e-06
0.00030708
9.37063e-06
0.000304676
9.59485e-06
0.000302218
9.81289e-06
0.000299706
1.00247e-05
0.000297143
1.02303e-05
0.00029453
1.04297e-05
0.000291869
1.06228e-05
0.000289161
1.08096e-05
0.000286408
1.09903e-05
0.000283612
1.11647e-05
0.000280773
1.13331e-05
0.000277894
1.14953e-05
0.000274976
1.16514e-05
0.00027202
1.18016e-05
0.000269029
1.19459e-05
0.000266003
1.20843e-05
0.000262943
1.2217e-05
0.000259853
1.23441e-05
0.000256731
1.24655e-05
0.000253581
1.25815e-05
0.000250404
1.26922e-05
0.0002472
1.27976e-05
0.000243971
1.28978e-05
0.000240718
1.29931e-05
0.000237443
1.30834e-05
0.000234147
1.3169e-05
0.000230831
1.32499e-05
0.000227495
1.33263e-05
0.000224142
1.33983e-05
0.000220772
1.34661e-05
0.000217386
1.35297e-05
0.000213985
1.35893e-05
0.000210571
1.3645e-05
0.000207143
1.3697e-05
0.000203704
1.37454e-05
0.000200253
1.37903e-05
0.000196792
1.38318e-05
0.000193322
1.38702e-05
0.000189843
1.39054e-05
0.000186356
1.39377e-05
0.000182862
1.39672e-05
0.000179361
1.39939e-05
0.000175855
1.40181e-05
0.000172343
1.40398e-05
0.000168826
1.40591e-05
0.000165305
1.40762e-05
0.000161781
1.40912e-05
0.000158253
1.41042e-05
0.000154722
1.41154e-05
0.00015119
1.41247e-05
0.000147655
1.41323e-05
0.000144119
1.41384e-05
0.000140582
1.41431e-05
0.000137045
1.41463e-05
0.000133507
1.41483e-05
0.000129968
1.41491e-05
0.00012643
1.41487e-05
0.000122893
1.41474e-05
0.000119356
1.41452e-05
0.000115819
1.41422e-05
0.000112284
1.41384e-05
0.00010875
1.41339e-05
0.000105218
1.41288e-05
0.000101686
1.41232e-05
9.81568e-05
1.41171e-05
9.46289e-05
1.41106e-05
9.11027e-05
1.41038e-05
8.75783e-05
1.40968e-05
8.40558e-05
1.40895e-05
8.05352e-05
1.40821e-05
7.70165e-05
1.40746e-05
7.34997e-05
1.40671e-05
6.99848e-05
1.40596e-05
6.64719e-05
1.40521e-05
6.29608e-05
1.40448e-05
5.94516e-05
1.40375e-05
5.59442e-05
1.40305e-05
5.24385e-05
1.40237e-05
4.89344e-05
1.40171e-05
4.5432e-05
1.40109e-05
4.19311e-05
1.40049e-05
3.84316e-05
1.39993e-05
3.49334e-05
1.39941e-05
3.14365e-05
1.39893e-05
2.79406e-05
1.39849e-05
2.44458e-05
1.39809e-05
2.09519e-05
1.39774e-05
1.74587e-05
1.39744e-05
1.39662e-05
1.39718e-05
1.04742e-05
1.39698e-05
6.98256e-06
1.39682e-05
3.49122e-06
1.39672e-05
1.39667e-05
3.16665e-06
-1.58368e-05
6.33343e-06
-1.58374e-05
9.50044e-06
-1.58386e-05
1.26678e-05
-1.58404e-05
1.58357e-05
-1.58428e-05
1.90041e-05
-1.58458e-05
2.21733e-05
-1.58493e-05
2.53433e-05
-1.58534e-05
2.85143e-05
-1.58581e-05
3.16863e-05
-1.58633e-05
3.48595e-05
-1.58691e-05
3.8034e-05
-1.58753e-05
4.12098e-05
-1.58821e-05
4.43871e-05
-1.58893e-05
4.7566e-05
-1.58971e-05
5.07466e-05
-1.59052e-05
5.39289e-05
-1.59138e-05
5.7113e-05
-1.59228e-05
6.0299e-05
-1.59322e-05
6.3487e-05
-1.59419e-05
6.6677e-05
-1.59519e-05
6.98692e-05
-1.59622e-05
7.30635e-05
-1.59728e-05
7.626e-05
-1.59835e-05
7.94587e-05
-1.59945e-05
8.26597e-05
-1.60056e-05
8.5863e-05
-1.60168e-05
8.90686e-05
-1.60281e-05
9.22765e-05
-1.60393e-05
9.54867e-05
-1.60506e-05
9.86992e-05
-1.60618e-05
0.000101914
-1.60728e-05
0.000105131
-1.60837e-05
0.00010835
-1.60943e-05
0.000111572
-1.61047e-05
0.000114795
-1.61146e-05
0.00011802
-1.61242e-05
0.000121248
-1.61333e-05
0.000124477
-1.61418e-05
0.000127708
-1.61498e-05
0.00013094
-1.6157e-05
0.000134174
-1.61635e-05
0.000137409
-1.61691e-05
0.000140645
-1.61739e-05
0.000143881
-1.61776e-05
0.000147119
-1.61802e-05
0.000150357
-1.61817e-05
0.000153595
-1.61819e-05
0.000156833
-1.61808e-05
0.00016007
-1.61782e-05
0.000163307
-1.6174e-05
0.000166543
-1.61682e-05
0.000169777
-1.61607e-05
0.00017301
-1.61512e-05
0.00017624
-1.61398e-05
0.000179468
-1.61264e-05
0.000182693
-1.61107e-05
0.000185915
-1.60926e-05
0.000189132
-1.60722e-05
0.000192345
-1.60491e-05
0.000195553
-1.60234e-05
0.000198756
-1.59949e-05
0.000201952
-1.59633e-05
0.000205142
-1.59287e-05
0.000208324
-1.58909e-05
0.000211498
-1.58497e-05
0.000214664
-1.5805e-05
0.000217819
-1.57566e-05
0.000220965
-1.57045e-05
0.0002241
-1.56484e-05
0.000227222
-1.55882e-05
0.000230332
-1.55238e-05
0.000233429
-1.5455e-05
0.000236511
-1.53817e-05
0.000239577
-1.53036e-05
0.000242627
-1.52208e-05
0.00024566
-1.51329e-05
0.000248675
-1.50399e-05
0.000251669
-1.49417e-05
0.000254644
-1.48379e-05
0.000257596
-1.47287e-05
0.000260526
-1.46136e-05
0.000263432
-1.44927e-05
0.000266312
-1.43658e-05
0.000269166
-1.42328e-05
0.000271993
-1.40935e-05
0.00027479
-1.39477e-05
0.000277557
-1.37954e-05
0.000280293
-1.36365e-05
0.000282995
-1.34707e-05
0.000285663
-1.32981e-05
0.000288295
-1.31185e-05
0.00029089
-1.29318e-05
0.000293446
-1.2738e-05
0.000295963
-1.25369e-05
0.000298437
-1.23284e-05
0.000300869
-1.21126e-05
0.000303255
-1.18893e-05
0.000305596
-1.16585e-05
0.000307889
-1.14202e-05
0.000310133
-1.11743e-05
0.000312326
-1.09209e-05
0.000314467
-1.06599e-05
0.000316555
-1.03913e-05
0.000318587
-1.01152e-05
0.000320562
-9.83166e-06
0.000322479
-9.54065e-06
0.000324336
-9.24228e-06
0.000326132
-8.93661e-06
0.000327865
-8.62375e-06
0.000329534
-8.3038e-06
0.000331138
-7.9769e-06
0.000332674
-7.64317e-06
0.000334142
-7.30278e-06
0.000335541
-6.95589e-06
0.000336869
-6.6027e-06
0.000338125
-6.24339e-06
0.000339307
-5.8782e-06
0.000340415
-5.50734e-06
0.000341447
-5.13106e-06
0.000342403
-4.74963e-06
0.000343281
-4.36331e-06
0.000344081
-3.97239e-06
0.000344801
-3.57717e-06
0.000345441
-3.17797e-06
0.000346
-2.77509e-06
0.000346477
-2.36888e-06
0.000346873
-1.95969e-06
0.000347185
-1.54785e-06
0.000347414
-1.13373e-06
0.000347559
-7.17693e-07
0.000347621
-3.0012e-07
0.000347598
1.18615e-07
0.000347491
5.38129e-07
0.000347299
9.58039e-07
0.000347023
1.37796e-06
0.000346663
1.79749e-06
0.000346218
2.21626e-06
0.000345689
2.63388e-06
0.000345077
3.04997e-06
0.000344382
3.46414e-06
0.000343603
3.87602e-06
0.000342743
4.28525e-06
0.0003418
4.69146e-06
0.000340777
5.0943e-06
0.000339673
5.49343e-06
0.000338491
5.88852e-06
0.000337229
6.27923e-06
0.00033589
6.66527e-06
0.000334475
7.04632e-06
0.000332984
7.42212e-06
0.000331418
7.79237e-06
0.00032978
8.15683e-06
0.000328069
8.51525e-06
0.000326288
8.8674e-06
0.000324437
9.21307e-06
0.000322519
9.55207e-06
0.000320533
9.8842e-06
0.000318483
1.02093e-05
0.000316369
1.05272e-05
0.000314192
1.08379e-05
0.000311955
1.11411e-05
0.000309659
1.14367e-05
0.000307305
1.17248e-05
0.000304894
1.20051e-05
0.000302429
1.22777e-05
0.000299912
1.25426e-05
0.000297342
1.27996e-05
0.000294723
1.30488e-05
0.000292056
1.32901e-05
0.000289342
1.35237e-05
0.000286583
1.37494e-05
0.00028378
1.39674e-05
0.000280935
1.41778e-05
0.00027805