/*--------------------------------*- C++ -*----------------------------------*\
| =========                 |                                                 |
| \\      /  F ield         | OpenFOAM: The Open Source CFD Toolbox           |
|  \\    /   O peration     | Version:  v2012                                 |
|   \\  /    A nd           | Website:  www.openfoam.com                      |
|    \\/     M anipulation  |                                                 |
\*---------------------------------------------------------------------------*/
FoamFile
{
    version     2.0;
    format      ascii;
    class       volScalarField;
    location    "20";
    object      W;
}
// * * * * * * * * * * * * * * * * * * * * * * * * * * * * * * * * * * * * * //

dimensions      [0 0 -1 0 0 0 0];


internalField   nonuniform List<scalar> 
65536
(
8.94423e-13
9.03576e-13
9.22379e-13
9.51003e-13
9.89714e-13
1.03887e-12
1.09894e-12
1.17047e-12
1.25413e-12
1.35069e-12
1.46105e-12
1.58621e-12
1.72734e-12
1.88572e-12
2.06277e-12
2.26012e-12
2.47951e-12
2.72292e-12
2.9925e-12
3.29061e-12
3.61988e-12
3.98314e-12
4.38352e-12
4.82443e-12
5.30959e-12
5.84306e-12
6.42926e-12
7.07299e-12
7.77947e-12
8.55437e-12
9.40384e-12
1.03345e-11
1.13536e-11
1.24689e-11
1.36889e-11
1.50225e-11
1.64795e-11
1.80706e-11
1.9807e-11
2.17008e-11
2.37652e-11
2.6014e-11
2.84623e-11
3.1126e-11
3.40223e-11
3.71693e-11
4.05863e-11
4.42941e-11
4.83144e-11
5.26705e-11
5.73867e-11
6.24891e-11
6.80048e-11
7.39626e-11
8.03926e-11
8.73264e-11
9.4797e-11
1.02839e-10
1.11488e-10
1.20781e-10
1.30756e-10
1.41454e-10
1.52915e-10
1.65181e-10
1.78295e-10
1.923e-10
2.0724e-10
2.23159e-10
2.40102e-10
2.58113e-10
2.77236e-10
2.97514e-10
3.18989e-10
3.41701e-10
3.65689e-10
3.90988e-10
4.17632e-10
4.45652e-10
4.75072e-10
5.05915e-10
5.38197e-10
5.71928e-10
6.07115e-10
6.43754e-10
6.81837e-10
7.21345e-10
7.62253e-10
8.04525e-10
8.48116e-10
8.9297e-10
9.39022e-10
9.86194e-10
1.0344e-09
1.08353e-09
1.13349e-09
1.18413e-09
1.23534e-09
1.28696e-09
1.33883e-09
1.39078e-09
1.44264e-09
1.4942e-09
1.54528e-09
1.59567e-09
1.64515e-09
1.69351e-09
1.74052e-09
1.78595e-09
1.8296e-09
1.87122e-09
1.9106e-09
1.94753e-09
1.9818e-09
2.01321e-09
2.04156e-09
2.0667e-09
2.08845e-09
2.10668e-09
2.12126e-09
2.13209e-09
2.13909e-09
2.14219e-09
2.14136e-09
2.13659e-09
2.12789e-09
2.11531e-09
2.09889e-09
2.07873e-09
2.05494e-09
2.02765e-09
1.99702e-09
1.96321e-09
1.92642e-09
1.88686e-09
1.84475e-09
1.80032e-09
1.75381e-09
1.70547e-09
1.65556e-09
1.60432e-09
1.55202e-09
1.49891e-09
1.44522e-09
1.39121e-09
1.33709e-09
1.2831e-09
1.22943e-09
1.17628e-09
1.12383e-09
1.07224e-09
1.02166e-09
9.72215e-10
9.24026e-10
8.7719e-10
8.31787e-10
7.87885e-10
7.45534e-10
7.04773e-10
6.65624e-10
6.28099e-10
5.92198e-10
5.57911e-10
5.25217e-10
4.94089e-10
4.64491e-10
4.36382e-10
4.09716e-10
3.84441e-10
3.60505e-10
3.37851e-10
3.16421e-10
2.96156e-10
2.76999e-10
2.58891e-10
2.41775e-10
2.25596e-10
2.103e-10
1.95835e-10
1.82154e-10
1.6921e-10
1.56962e-10
1.45368e-10
1.34395e-10
1.24009e-10
1.14181e-10
1.04885e-10
9.60979e-11
8.78008e-11
7.99763e-11
7.26099e-11
6.56891e-11
5.92032e-11
5.31427e-11
4.74993e-11
4.22648e-11
3.74312e-11
3.29903e-11
2.89329e-11
2.52491e-11
2.19275e-11
1.89554e-11
1.63183e-11
1.40004e-11
1.19841e-11
1.02503e-11
8.77875e-12
7.54782e-12
6.53509e-12
5.71746e-12
5.07149e-12
4.57373e-12
4.201e-12
3.93078e-12
3.74154e-12
3.61307e-12
3.5268e-12
3.46611e-12
3.41656e-12
3.3661e-12
3.3052e-12
3.22688e-12
3.12667e-12
3.00247e-12
2.8543e-12
2.68405e-12
2.49503e-12
2.29168e-12
2.07904e-12
1.86242e-12
1.64704e-12
1.43768e-12
1.23848e-12
1.05276e-12
8.82952e-13
7.30586e-13
5.96344e-13
4.80153e-13
3.81319e-13
2.98673e-13
2.30713e-13
1.75748e-13
1.32015e-13
9.7779e-14
7.14052e-14
5.14104e-14
3.64909e-14
2.55335e-14
1.76125e-14
1.19769e-14
8.03175e-15
5.31642e-15
3.4827e-15
2.27413e-15
1.50793e-15
1.06016e-15
8.54438e-16
1.27725e-12
1.29042e-12
1.31748e-12
1.35868e-12
1.41441e-12
1.48519e-12
1.57169e-12
1.67471e-12
1.79524e-12
1.9344e-12
2.0935e-12
2.27401e-12
2.47761e-12
2.70619e-12
2.96184e-12
3.24691e-12
3.56398e-12
3.91593e-12
4.30591e-12
4.7374e-12
5.21422e-12
5.74055e-12
6.32098e-12
6.96053e-12
7.66466e-12
8.43934e-12
9.29107e-12
1.02269e-11
1.12546e-11
1.23825e-11
1.36196e-11
1.49758e-11
1.64618e-11
1.80889e-11
1.98697e-11
2.18176e-11
2.3947e-11
2.62736e-11
2.88141e-11
3.15866e-11
3.46103e-11
3.79061e-11
4.1496e-11
4.5404e-11
4.96553e-11
5.4277e-11
5.92978e-11
6.47484e-11
7.06611e-11
7.70706e-11
8.4013e-11
9.15269e-11
9.96529e-11
1.08433e-10
1.17913e-10
1.28139e-10
1.3916e-10
1.51027e-10
1.63793e-10
1.77513e-10
1.92244e-10
2.08044e-10
2.24973e-10
2.43092e-10
2.62465e-10
2.83155e-10
3.05225e-10
3.28741e-10
3.53766e-10
3.80363e-10
4.08597e-10
4.38527e-10
4.70213e-10
5.03711e-10
5.39074e-10
5.76352e-10
6.15588e-10
6.56822e-10
7.00084e-10
7.45401e-10
7.92788e-10
8.42254e-10
8.93797e-10
9.47403e-10
1.00305e-09
1.06069e-09
1.12029e-09
1.18176e-09
1.24505e-09
1.31003e-09
1.37662e-09
1.44466e-09
1.51402e-09
1.58454e-09
1.65602e-09
1.72828e-09
1.80108e-09
1.87421e-09
1.94741e-09
2.0204e-09
2.09293e-09
2.16468e-09
2.23537e-09
2.30467e-09
2.37228e-09
2.43785e-09
2.50107e-09
2.56161e-09
2.61914e-09
2.67334e-09
2.72391e-09
2.77054e-09
2.81296e-09
2.85088e-09
2.88407e-09
2.9123e-09
2.93538e-09
2.95313e-09
2.96542e-09
2.97215e-09
2.97324e-09
2.96866e-09
2.9584e-09
2.94251e-09
2.92106e-09
2.89416e-09
2.86196e-09
2.82463e-09
2.78239e-09
2.73549e-09
2.68419e-09
2.62879e-09
2.5696e-09
2.50697e-09
2.44125e-09
2.37279e-09
2.30198e-09
2.22917e-09
2.15476e-09
2.07911e-09
2.00258e-09
1.92554e-09
1.84832e-09
1.77125e-09
1.69464e-09
1.61877e-09
1.54393e-09
1.47035e-09
1.39825e-09
1.32783e-09
1.25926e-09
1.19269e-09
1.12824e-09
1.06602e-09
1.00609e-09
9.48522e-10
8.93342e-10
8.4057e-10
7.90204e-10
7.42229e-10
6.96615e-10
6.53318e-10
6.12284e-10
5.73452e-10
5.3675e-10
5.02102e-10
4.69426e-10
4.38638e-10
4.09649e-10
3.82371e-10
3.56716e-10
3.32594e-10
3.09918e-10
2.88604e-10
2.68569e-10
2.49734e-10
2.32023e-10
2.15365e-10
1.99691e-10
1.84939e-10
1.7105e-10
1.57969e-10
1.45648e-10
1.34041e-10
1.23107e-10
1.12812e-10
1.03122e-10
9.40098e-11
8.54504e-11
7.74224e-11
6.9907e-11
6.28878e-11
5.63502e-11
5.02809e-11
4.46674e-11
3.94979e-11
3.47602e-11
3.04418e-11
2.65295e-11
2.3009e-11
1.98647e-11
1.70796e-11
1.46354e-11
1.2512e-11
1.06885e-11
9.14221e-12
7.84989e-12
6.78728e-12
5.92966e-12
5.2521e-12
4.72977e-12
4.33825e-12
4.05392e-12
3.85423e-12
3.7181e-12
3.62619e-12
3.56124e-12
3.50827e-12
3.45478e-12
3.39093e-12
3.30947e-12
3.20578e-12
3.07767e-12
2.92515e-12
2.75012e-12
2.556e-12
2.34729e-12
2.12916e-12
1.90705e-12
1.68628e-12
1.47174e-12
1.26767e-12
1.07744e-12
9.03553e-13
7.47554e-13
6.10132e-13
4.91207e-13
3.90062e-13
3.05494e-13
2.35962e-13
1.79732e-13
1.34998e-13
9.99808e-14
7.3008e-14
5.25609e-14
3.73052e-14
2.61017e-14
1.80034e-14
1.22421e-14
8.20916e-15
5.43359e-15
3.55928e-15
2.32402e-15
1.54094e-15
1.08332e-15
8.73099e-16
2.17814e-12
2.20081e-12
2.24742e-12
2.31838e-12
2.41437e-12
2.53631e-12
2.68536e-12
2.86294e-12
3.07075e-12
3.31077e-12
3.58529e-12
3.89689e-12
4.24851e-12
4.64347e-12
5.08543e-12
5.57851e-12
6.12727e-12
6.73674e-12
7.41249e-12
8.16062e-12
8.98788e-12
9.90163e-12
1.091e-11
1.20217e-11
1.32466e-11
1.45952e-11
1.60789e-11
1.77103e-11
1.9503e-11
2.14718e-11
2.36329e-11
2.60037e-11
2.86031e-11
3.14515e-11
3.45711e-11
3.79858e-11
4.17214e-11
4.58056e-11
5.02684e-11
5.51419e-11
6.04608e-11
6.62619e-11
7.25852e-11
7.94729e-11
8.69704e-11
9.51262e-11
1.03992e-10
1.13622e-10
1.24074e-10
1.35411e-10
1.47697e-10
1.61002e-10
1.75397e-10
1.90959e-10
2.07768e-10
2.25908e-10
2.45466e-10
2.66533e-10
2.89203e-10
3.13575e-10
3.3975e-10
3.67831e-10
3.97925e-10
4.3014e-10
4.64587e-10
5.01377e-10
5.40624e-10
5.82439e-10
6.26934e-10
6.7422e-10
7.24403e-10
7.77589e-10
8.33876e-10
8.93359e-10
9.56126e-10
1.02225e-09
1.09181e-09
1.16486e-09
1.24144e-09
1.32159e-09
1.40532e-09
1.49262e-09
1.58348e-09
1.67786e-09
1.77568e-09
1.87685e-09
1.98127e-09
2.08879e-09
2.19923e-09
2.3124e-09
2.42807e-09
2.54597e-09
2.66582e-09
2.78728e-09
2.91e-09
3.0336e-09
3.15765e-09
3.28171e-09
3.40531e-09
3.52795e-09
3.6491e-09
3.76823e-09
3.88478e-09
3.99819e-09
4.10787e-09
4.21325e-09
4.31374e-09
4.40877e-09
4.49779e-09
4.58025e-09
4.65562e-09
4.72341e-09
4.78316e-09
4.83446e-09
4.87693e-09
4.91023e-09
4.9341e-09
4.94832e-09
4.95273e-09
4.94724e-09
4.93183e-09
4.90653e-09
4.87146e-09
4.82678e-09
4.77273e-09
4.70962e-09
4.6378e-09
4.55771e-09
4.4698e-09
4.3746e-09
4.27268e-09
4.16463e-09
4.05107e-09
3.93266e-09
3.81006e-09
3.68395e-09
3.55501e-09
3.42391e-09
3.2913e-09
3.15784e-09
3.02415e-09
2.89081e-09
2.7584e-09
2.62742e-09
2.49838e-09
2.37171e-09
2.2478e-09
2.12702e-09
2.00967e-09
1.896e-09
1.78625e-09
1.68058e-09
1.57912e-09
1.48196e-09
1.38917e-09
1.30075e-09
1.2167e-09
1.13698e-09
1.06151e-09
9.90218e-10
9.22988e-10
8.59698e-10
8.0021e-10
7.44376e-10
6.92039e-10
6.43038e-10
5.97207e-10
5.54379e-10
5.14388e-10
4.77069e-10
4.42258e-10
4.09799e-10
3.79539e-10
3.5133e-10
3.25033e-10
3.00514e-10
2.77648e-10
2.56315e-10
2.36407e-10
2.17819e-10
2.00458e-10
1.84235e-10
1.69072e-10
1.54897e-10
1.41643e-10
1.29253e-10
1.17674e-10
1.06859e-10
9.67668e-11
8.73614e-11
7.86099e-11
7.04837e-11
6.29569e-11
5.60058e-11
4.96088e-11
4.37453e-11
3.83952e-11
3.35387e-11
2.91559e-11
2.52261e-11
2.17279e-11
1.86386e-11
1.59349e-11
1.3592e-11
1.15841e-11
9.88483e-12
8.46668e-12
7.30186e-12
6.36232e-12
5.62004e-12
5.04737e-12
4.61737e-12
4.30411e-12
4.083e-12
3.93115e-12
3.82769e-12
3.75401e-12
3.69403e-12
3.63438e-12
3.56449e-12
3.47666e-12
3.36591e-12
3.22989e-12
3.06857e-12
2.8839e-12
2.67943e-12
2.45988e-12
2.23064e-12
1.99741e-12
1.76573e-12
1.54072e-12
1.32677e-12
1.12744e-12
9.45283e-13
7.81924e-13
6.38064e-13
5.13603e-13
4.07777e-13
3.19316e-13
2.46599e-13
1.87806e-13
1.41042e-13
1.04443e-13
7.62568e-14
5.48931e-14
3.89558e-14
2.72536e-14
1.87959e-14
1.27797e-14
8.56885e-15
5.67114e-15
3.71456e-15
2.4252e-15
1.60789e-15
1.13029e-15
9.10912e-16
3.90375e-12
3.94479e-12
4.02914e-12
4.15756e-12
4.33129e-12
4.55201e-12
4.82185e-12
5.14345e-12
5.5199e-12
5.95485e-12
6.45248e-12
7.01758e-12
7.65555e-12
8.37247e-12
9.17511e-12
1.00711e-11
1.10687e-11
1.21774e-11
1.34073e-11
1.47697e-11
1.62772e-11
1.79433e-11
1.97831e-11
2.18128e-11
2.40505e-11
2.65157e-11
2.92298e-11
3.2216e-11
3.54997e-11
3.91085e-11
4.30723e-11
4.74235e-11
5.21975e-11
5.74325e-11
6.31696e-11
6.94536e-11
7.63327e-11
8.38587e-11
9.20878e-11
1.0108e-10
1.109e-10
1.21618e-10
1.33307e-10
1.46048e-10
1.59925e-10
1.7503e-10
1.91459e-10
2.09314e-10
2.28706e-10
2.4975e-10
2.72568e-10
2.9729e-10
3.24052e-10
3.52998e-10
3.84277e-10
4.18046e-10
4.54471e-10
4.93721e-10
5.35975e-10
5.81415e-10
6.3023e-10
6.82615e-10
7.38768e-10
7.98893e-10
8.63194e-10
9.31879e-10
1.00516e-09
1.08323e-09
1.16631e-09
1.2546e-09
1.34829e-09
1.44757e-09
1.55262e-09
1.6636e-09
1.78068e-09
1.90397e-09
2.03361e-09
2.16967e-09
2.31223e-09
2.46133e-09
2.61696e-09
2.77911e-09
2.94769e-09
3.12261e-09
3.3037e-09
3.49077e-09
3.68355e-09
3.88174e-09
4.08499e-09
4.29286e-09
4.5049e-09
4.72055e-09
4.93922e-09
5.16025e-09
5.38294e-09
5.6065e-09
5.83012e-09
6.0529e-09
6.27393e-09
6.49223e-09
6.7068e-09
6.91659e-09
7.12055e-09
7.31759e-09
7.50662e-09
7.68657e-09
7.85635e-09
8.01493e-09
8.16127e-09
8.2944e-09
8.41341e-09
8.51744e-09
8.6057e-09
8.67751e-09
8.73227e-09
8.76947e-09
8.78872e-09
8.78977e-09
8.77247e-09
8.73678e-09
8.68282e-09
8.61082e-09
8.52115e-09
8.41429e-09
8.29084e-09
8.15154e-09
7.99721e-09
7.82878e-09
7.64727e-09
7.45377e-09
7.24945e-09
7.03551e-09
6.81321e-09
6.58382e-09
6.34864e-09
6.10895e-09
5.86603e-09
5.62113e-09
5.37545e-09
5.13015e-09
4.88633e-09
4.64502e-09
4.40718e-09
4.17369e-09
3.94534e-09
3.72283e-09
3.50677e-09
3.2977e-09
3.09606e-09
2.90218e-09
2.71635e-09
2.53874e-09
2.36947e-09
2.20859e-09
2.05607e-09
1.91184e-09
1.77577e-09
1.64768e-09
1.52736e-09
1.41457e-09
1.30902e-09
1.21044e-09
1.11851e-09
1.03291e-09
9.53308e-10
8.79379e-10
8.10791e-10
7.47221e-10
6.88348e-10
6.33861e-10
5.83461e-10
5.3686e-10
4.93781e-10
4.53965e-10
4.17164e-10
3.83145e-10
3.51693e-10
3.22604e-10
2.95692e-10
2.70782e-10
2.47717e-10
2.26351e-10
2.0655e-10
1.88195e-10
1.71178e-10
1.55399e-10
1.40772e-10
1.27218e-10
1.14668e-10
1.03058e-10
9.2333e-11
8.24435e-11
7.33444e-11
6.4995e-11
5.73577e-11
5.03976e-11
4.40817e-11
3.83781e-11
3.32557e-11
2.86834e-11
2.46302e-11
2.10649e-11
1.79554e-11
1.52694e-11
1.29741e-11
1.10361e-11
9.42189e-12
8.09792e-12
7.03087e-12
6.18789e-12
5.53694e-12
5.04707e-12
4.68879e-12
4.43434e-12
4.25804e-12
4.13658e-12
4.04931e-12
3.97844e-12
3.90921e-12
3.83002e-12
3.73236e-12
3.61077e-12
3.46262e-12
3.2878e-12
3.08836e-12
2.86807e-12
2.63193e-12
2.38572e-12
2.13548e-12
1.88712e-12
1.6461e-12
1.41707e-12
1.20381e-12
1.00903e-12
8.34428e-13
6.80731e-13
5.47811e-13
4.34834e-13
3.40426e-13
2.62846e-13
2.00138e-13
1.50274e-13
1.11258e-13
8.12182e-14
5.84545e-14
4.14766e-14
2.90126e-14
2.00062e-14
1.36007e-14
9.1181e-15
6.0339e-15
3.95168e-15
2.5797e-15
1.71012e-15
1.20202e-15
9.68643e-16
7.01272e-12
7.0872e-12
7.2402e-12
7.47311e-12
7.78821e-12
8.1886e-12
8.67821e-12
9.26186e-12
9.94526e-12
1.07351e-11
1.16392e-11
1.26662e-11
1.38261e-11
1.51301e-11
1.65908e-11
1.82221e-11
2.00395e-11
2.20602e-11
2.43032e-11
2.67893e-11
2.95417e-11
3.25855e-11
3.59485e-11
3.96611e-11
4.37566e-11
4.82713e-11
5.3245e-11
5.87209e-11
6.47461e-11
7.1372e-11
7.86545e-11
8.6654e-11
9.54364e-11
1.05073e-10
1.15641e-10
1.27224e-10
1.39911e-10
1.53801e-10
1.68998e-10
1.85615e-10
2.03773e-10
2.23603e-10
2.45244e-10
2.68846e-10
2.94569e-10
3.22583e-10
3.53071e-10
3.86225e-10
4.22252e-10
4.6137e-10
5.03808e-10
5.49812e-10
5.99636e-10
6.53552e-10
7.11842e-10
7.74802e-10
8.42741e-10
9.15982e-10
9.94856e-10
1.07971e-09
1.1709e-09
1.26879e-09
1.37375e-09
1.48616e-09
1.60641e-09
1.73488e-09
1.87196e-09
2.01804e-09
2.1735e-09
2.33871e-09
2.51402e-09
2.6998e-09
2.89635e-09
3.10397e-09
3.32295e-09
3.5535e-09
3.79584e-09
4.0501e-09
4.31639e-09
4.59474e-09
4.88514e-09
5.18747e-09
5.50158e-09
5.82722e-09
6.16403e-09
6.5116e-09
6.86937e-09
7.23673e-09
7.61292e-09
7.99709e-09
8.38827e-09
8.7854e-09
9.18727e-09
9.59257e-09
9.9999e-09
1.04077e-08
1.08144e-08
1.12183e-08
1.16175e-08
1.20102e-08
1.23944e-08
1.27682e-08
1.31295e-08
1.34763e-08
1.38065e-08
1.41181e-08
1.44091e-08
1.46776e-08
1.49217e-08
1.51397e-08
1.53299e-08
1.5491e-08
1.56214e-08
1.57201e-08
1.57861e-08
1.58188e-08
1.58174e-08
1.57819e-08
1.5712e-08
1.56081e-08
1.54705e-08
1.53e-08
1.50975e-08
1.48642e-08
1.46013e-08
1.43107e-08
1.39939e-08
1.3653e-08
1.329e-08
1.29072e-08
1.2507e-08
1.20916e-08
1.16637e-08
1.12255e-08
1.07796e-08
1.03284e-08
9.87423e-09
9.41945e-09
8.96622e-09
8.51661e-09
8.07255e-09
7.63583e-09
7.20808e-09
6.79076e-09
6.38515e-09
5.99239e-09
5.61339e-09
5.24894e-09
4.89963e-09
4.5659e-09
4.24804e-09
3.94619e-09
3.66037e-09
3.39047e-09
3.13627e-09
2.89748e-09
2.67369e-09
2.46444e-09
2.26923e-09
2.08747e-09
1.91858e-09
1.76193e-09
1.61687e-09
1.48277e-09
1.35896e-09
1.2448e-09
1.13967e-09
1.04295e-09
9.54053e-10
8.72397e-10
7.97442e-10
7.2867e-10
6.65592e-10
6.07748e-10
5.54709e-10
5.06073e-10
4.61468e-10
4.20551e-10
3.83004e-10
3.48538e-10
3.16886e-10
2.87808e-10
2.61083e-10
2.36513e-10
2.13919e-10
1.9314e-10
1.74032e-10
1.56465e-10
1.40324e-10
1.25505e-10
1.11918e-10
9.94779e-11
8.81113e-11
7.77506e-11
6.83343e-11
5.98054e-11
5.21109e-11
4.52008e-11
3.90271e-11
3.35435e-11
2.87048e-11
2.44664e-11
2.07844e-11
1.76151e-11
1.49152e-11
1.26417e-11
1.07522e-11
9.20495e-12
7.95914e-12
6.97507e-12
6.21445e-12
5.64074e-12
5.21941e-12
4.91824e-12
4.70765e-12
4.56095e-12
4.45462e-12
4.3685e-12
4.28591e-12
4.19378e-12
4.08253e-12
3.946e-12
3.78115e-12
3.5878e-12
3.3681e-12
3.12611e-12
2.86726e-12
2.5978e-12
2.32427e-12
2.0531e-12
1.79016e-12
1.54051e-12
1.3082e-12
1.09615e-12
9.06178e-13
7.39035e-13
5.94553e-13
4.71801e-13
3.69266e-13
2.85039e-13
2.16983e-13
1.62883e-13
1.20567e-13
8.79942e-14
6.33184e-14
4.4919e-14
3.14147e-14
2.16587e-14
1.47217e-14
9.86807e-15
6.52919e-15
4.27543e-15
2.79065e-15
1.84969e-15
1.29995e-15
1.04746e-15
1.24532e-11
1.25869e-11
1.28612e-11
1.32789e-11
1.38439e-11
1.4562e-11
1.54403e-11
1.64876e-11
1.77142e-11
1.91323e-11
2.0756e-11
2.26013e-11
2.46863e-11
2.70315e-11
2.96596e-11
3.25961e-11
3.58694e-11
3.95108e-11
4.35549e-11
4.80399e-11
5.30081e-11
5.85057e-11
6.45835e-11
7.12971e-11
7.87078e-11
8.68821e-11
9.5893e-11
1.0582e-10
1.1675e-10
1.28777e-10
1.42005e-10
1.56544e-10
1.72517e-10
1.90054e-10
2.09299e-10
2.30405e-10
2.5354e-10
2.78883e-10
3.06628e-10
3.36985e-10
3.70179e-10
4.06451e-10
4.46061e-10
4.89287e-10
5.36424e-10
5.87792e-10
6.43728e-10
7.04593e-10
7.70769e-10
8.42662e-10
9.20701e-10
1.00534e-09
1.09706e-09
1.19636e-09
1.30377e-09
1.41985e-09
1.54516e-09
1.6803e-09
1.82591e-09
1.98262e-09
2.15109e-09
2.33201e-09
2.52606e-09
2.73395e-09
2.95641e-09
3.19413e-09
3.44785e-09
3.71827e-09
4.0061e-09
4.31202e-09
4.63669e-09
4.98074e-09
5.34475e-09
5.72926e-09
6.13475e-09
6.56164e-09
7.01025e-09
7.48083e-09
7.97352e-09
8.48834e-09
9.02519e-09
9.58385e-09
1.01639e-08
1.07649e-08
1.1386e-08
1.20265e-08
1.26851e-08
1.33606e-08
1.40516e-08
1.47564e-08
1.54729e-08
1.61993e-08
1.6933e-08
1.76715e-08
1.84121e-08
1.91519e-08
1.98878e-08
2.06163e-08
2.13342e-08
2.20377e-08
2.27232e-08
2.3387e-08
2.40253e-08
2.46342e-08
2.52098e-08
2.57486e-08
2.62468e-08
2.67009e-08
2.71075e-08
2.74636e-08
2.77663e-08
2.8013e-08
2.82014e-08
2.83297e-08
2.83964e-08
2.84004e-08
2.83411e-08
2.82184e-08
2.80324e-08
2.77839e-08
2.74742e-08
2.7105e-08
2.66784e-08
2.6197e-08
2.56636e-08
2.50817e-08
2.44548e-08
2.3787e-08
2.30824e-08
2.23454e-08
2.15804e-08
2.07922e-08
1.99854e-08
1.91645e-08
1.83343e-08
1.74992e-08
1.66635e-08
1.58313e-08
1.50065e-08
1.41929e-08
1.33936e-08
1.26119e-08
1.18504e-08
1.11115e-08
1.03973e-08
9.70944e-09
9.04938e-09
8.41817e-09
7.81656e-09
7.24503e-09
6.70376e-09
6.19272e-09
5.71161e-09
5.25995e-09
4.8371e-09
4.44223e-09
4.07441e-09
3.73259e-09
3.41566e-09
3.12242e-09
2.85165e-09
2.60209e-09
2.37249e-09
2.1616e-09
1.96819e-09
1.79103e-09
1.62898e-09
1.4809e-09
1.34571e-09
1.2224e-09
1.11e-09
1.0076e-09
9.14345e-10
8.29443e-10
7.52157e-10
6.81806e-10
6.17764e-10
5.59454e-10
5.06349e-10
4.5797e-10
4.13879e-10
3.73682e-10
3.37021e-10
3.03573e-10
2.7305e-10
2.45192e-10
2.19767e-10
1.96567e-10
1.75407e-10
1.56121e-10
1.38561e-10
1.22595e-10
1.08105e-10
9.49833e-11
8.31321e-11
7.24625e-11
6.28923e-11
5.4345e-11
4.67485e-11
4.00345e-11
3.41375e-11
2.89944e-11
2.45442e-11
2.07275e-11
1.74865e-11
1.4765e-11
1.25085e-11
1.06638e-11
9.18014e-12
8.00841e-12
7.10201e-12
6.41686e-12
5.91171e-12
5.54841e-12
5.29218e-12
5.11188e-12
4.98018e-12
4.8738e-12
4.77354e-12
4.66437e-12
4.53532e-12
4.37928e-12
4.19273e-12
3.97532e-12
3.72936e-12
3.45929e-12
3.17105e-12
2.87152e-12
2.56791e-12
2.26725e-12
1.97601e-12
1.69973e-12
1.44284e-12
1.2085e-12
9.98695e-13
8.14204e-13
6.54809e-13
5.19451e-13
4.06438e-13
3.13641e-13
2.3869e-13
1.7913e-13
1.3256e-13
9.6724e-14
6.95843e-14
4.93534e-14
3.45089e-14
2.37873e-14
1.61655e-14
1.0834e-14
7.16706e-15
4.69236e-15
3.0623e-15
2.02942e-15
1.42605e-15
1.14895e-15
2.17798e-11
2.20161e-11
2.25008e-11
2.32386e-11
2.42368e-11
2.55057e-11
2.70579e-11
2.89091e-11
3.1078e-11
3.35864e-11
3.64596e-11
3.97261e-11
4.34186e-11
4.75736e-11
5.22323e-11
5.74402e-11
6.32485e-11
6.97134e-11
7.68973e-11
8.48692e-11
9.37049e-11
1.03488e-10
1.1431e-10
1.26272e-10
1.39484e-10
1.54066e-10
1.70151e-10
1.87883e-10
2.07419e-10
2.2893e-10
2.52603e-10
2.78641e-10
3.07265e-10
3.38713e-10
3.73245e-10
4.11142e-10
4.52708e-10
4.98272e-10
5.48187e-10
6.02836e-10
6.62631e-10
7.28011e-10
7.99454e-10
8.77466e-10
9.62593e-10
1.05542e-09
1.15655e-09
1.26667e-09
1.38647e-09
1.51669e-09
1.65813e-09
1.81161e-09
1.97803e-09
2.15829e-09
2.35339e-09
2.56432e-09
2.79216e-09
3.038e-09
3.30299e-09
3.58831e-09
3.89518e-09
4.22485e-09
4.5786e-09
4.95772e-09
5.36352e-09
5.79733e-09
6.26045e-09
6.75419e-09
7.27984e-09
7.83864e-09
8.43178e-09
9.06041e-09
9.72558e-09
1.04283e-08
1.11693e-08
1.19494e-08
1.27691e-08
1.36289e-08
1.45288e-08
1.5469e-08
1.64492e-08
1.74688e-08
1.8527e-08
1.96228e-08
2.07547e-08
2.1921e-08
2.31195e-08
2.43477e-08
2.56028e-08
2.68815e-08
2.81802e-08
2.94947e-08
3.08205e-08
3.21529e-08
3.34867e-08
3.48161e-08
3.61353e-08
3.74381e-08
3.8718e-08
3.99682e-08
4.1182e-08
4.23522e-08
4.34719e-08
4.4534e-08
4.55315e-08
4.64575e-08
4.73055e-08
4.80691e-08
4.87424e-08
4.93199e-08
4.97965e-08
5.01679e-08
5.04304e-08
5.05808e-08
5.0617e-08
5.05375e-08
5.03417e-08
5.00298e-08
4.96029e-08
4.90632e-08
4.84134e-08
4.76574e-08
4.67996e-08
4.58455e-08
4.48009e-08
4.36726e-08
4.24679e-08
4.11943e-08
3.98601e-08
3.84735e-08
3.70433e-08
3.5578e-08
3.40863e-08
3.25769e-08
3.10581e-08
2.9538e-08
2.80245e-08
2.65247e-08
2.50456e-08
2.35935e-08
2.21741e-08
2.07926e-08
1.94533e-08
1.81601e-08
1.69163e-08
1.57245e-08
1.45865e-08
1.35037e-08
1.2477e-08
1.15067e-08
1.05926e-08
9.73412e-09
8.93024e-09
8.17967e-09
7.48081e-09
6.83183e-09
6.2307e-09
5.67525e-09
5.16319e-09
4.69216e-09
4.25979e-09
3.86366e-09
3.5014e-09
3.17067e-09
2.86921e-09
2.59481e-09
2.34537e-09
2.11887e-09
1.91342e-09
1.72723e-09
1.55861e-09
1.406e-09
1.26794e-09
1.14308e-09
1.0302e-09
9.28138e-10
8.35868e-10
7.52437e-10
6.76982e-10
6.08723e-10
5.46952e-10
4.91033e-10
4.40395e-10
3.94522e-10
3.52957e-10
3.15288e-10
2.81149e-10
2.50214e-10
2.22193e-10
1.96826e-10
1.73883e-10
1.53159e-10
1.34469e-10
1.17649e-10
1.02548e-10
8.90305e-11
7.69735e-11
6.62623e-11
5.67907e-11
4.84595e-11
4.11752e-11
3.4849e-11
2.93964e-11
2.47367e-11
2.07926e-11
1.74899e-11
1.47577e-11
1.25283e-11
1.07371e-11
9.32306e-12
8.22848e-12
7.3995e-12
6.78616e-12
6.34263e-12
6.02745e-12
5.80371e-12
5.63923e-12
5.50672e-12
5.38376e-12
5.25285e-12
5.1012e-12
4.92054e-12
4.70667e-12
4.45906e-12
4.18019e-12
3.87496e-12
3.54998e-12
3.21288e-12
2.87168e-12
2.53421e-12
2.20766e-12
1.89815e-12
1.61059e-12
1.34847e-12
1.11393e-12
9.0782e-13
7.29842e-13
5.7878e-13
4.52713e-13
3.49244e-13
2.65707e-13
1.99351e-13
1.47484e-13
1.07586e-13
7.73801e-14
5.48701e-14
3.83579e-14
2.6435e-14
1.79613e-14
1.20353e-14
7.96038e-15
5.21087e-15
3.40012e-15
2.25293e-15
1.58287e-15
1.27516e-15
3.74807e-11
3.78918e-11
3.87347e-11
4.00176e-11
4.17536e-11
4.39604e-11
4.66605e-11
4.98817e-11
5.36568e-11
5.80244e-11
6.30289e-11
6.87209e-11
7.51579e-11
8.24048e-11
9.05339e-11
9.96264e-11
1.09772e-10
1.21071e-10
1.33634e-10
1.47583e-10
1.63053e-10
1.80192e-10
1.99163e-10
2.20144e-10
2.43334e-10
2.68945e-10
2.97214e-10
3.28397e-10
3.62775e-10
4.00654e-10
4.42368e-10
4.88279e-10
5.38782e-10
5.94306e-10
6.55316e-10
7.22316e-10
7.95851e-10
8.76512e-10
9.64935e-10
1.06181e-09
1.16787e-09
1.28392e-09
1.41081e-09
1.54945e-09
1.70084e-09
1.86602e-09
2.04611e-09
2.24231e-09
2.45588e-09
2.68819e-09
2.94065e-09
3.21478e-09
3.51218e-09
3.83451e-09
4.18355e-09
4.56114e-09
4.96919e-09
5.40972e-09
5.88481e-09
6.3966e-09
6.9473e-09
7.53919e-09
8.17458e-09
8.85583e-09
9.58531e-09
1.03654e-08
1.11986e-08
1.20871e-08
1.30333e-08
1.40394e-08
1.51076e-08
1.624e-08
1.74384e-08
1.87046e-08
2.004e-08
2.14459e-08
2.29233e-08
2.44728e-08
2.60947e-08
2.77888e-08
2.95546e-08
3.13911e-08
3.32966e-08
3.5269e-08
3.73055e-08
3.94028e-08
4.15568e-08
4.37628e-08
4.60153e-08
4.83081e-08
5.06343e-08
5.29863e-08
5.53557e-08
5.77333e-08
6.01095e-08
6.24738e-08
6.48152e-08
6.71221e-08
6.93826e-08
7.15843e-08
7.37146e-08
7.57606e-08
7.77093e-08
7.9548e-08
8.12641e-08
8.28451e-08
8.42793e-08
8.55553e-08
8.66627e-08
8.75919e-08
8.83343e-08
8.88823e-08
8.923e-08
8.93723e-08
8.93061e-08
8.90295e-08
8.85422e-08
8.78458e-08
8.69431e-08
8.5839e-08
8.45396e-08
8.30528e-08
8.13878e-08
7.95552e-08
7.75668e-08
7.54358e-08
7.31758e-08
7.08017e-08
6.83288e-08
6.57726e-08
6.31493e-08
6.04748e-08
5.7765e-08
5.50355e-08
5.23013e-08
4.9577e-08
4.68761e-08
4.42117e-08
4.15954e-08
3.9038e-08
3.65491e-08
3.41373e-08
3.18097e-08
2.95723e-08
2.74301e-08
2.53867e-08
2.34447e-08
2.16057e-08
1.98702e-08
1.82379e-08
1.67077e-08
1.52777e-08
1.39454e-08
1.27078e-08
1.15614e-08
1.05025e-08
9.52678e-09
8.63009e-09
7.80795e-09
7.05587e-09
6.36935e-09
5.74394e-09
5.17527e-09
4.65911e-09
4.19136e-09
3.76811e-09
3.38566e-09
3.04047e-09
2.72927e-09
2.44895e-09
2.19667e-09
1.96976e-09
1.76577e-09
1.58247e-09
1.41779e-09
1.26987e-09
1.137e-09
1.01763e-09
9.10392e-10
8.14014e-10
7.27374e-10
6.49461e-10
5.79373e-10
5.16303e-10
4.59534e-10
4.08425e-10
3.6241e-10
3.20985e-10
2.83702e-10
2.50166e-10
2.20023e-10
1.92962e-10
1.68703e-10
1.46997e-10
1.27621e-10
1.10371e-10
9.50662e-11
8.15381e-11
6.96335e-11
5.92103e-11
5.01363e-11
4.22879e-11
3.55489e-11
2.98098e-11
2.49671e-11
2.09231e-11
1.75854e-11
1.48667e-11
1.26851e-11
1.09635e-11
9.63035e-12
8.61905e-12
7.86856e-12
7.32327e-12
6.93326e-12
6.65437e-12
6.44829e-12
6.28269e-12
6.13113e-12
5.97299e-12
5.79324e-12
5.5821e-12
5.33457e-12
5.04984e-12
4.7306e-12
4.3823e-12
4.01234e-12
3.62928e-12
3.24215e-12
2.85973e-12
2.49005e-12
2.13999e-12
1.81501e-12
1.519e-12
1.25431e-12
1.02184e-12
8.21217e-13
6.5102e-13
5.09052e-13
3.92584e-13
2.98591e-13
2.23958e-13
1.65644e-13
1.20803e-13
8.68645e-14
6.15811e-14
4.30399e-14
2.96555e-14
2.01455e-14
1.34963e-14
8.92512e-15
5.84139e-15
3.81091e-15
2.5247e-15
1.77353e-15
1.4286e-15
6.34559e-11
6.41599e-11
6.56026e-11
6.77982e-11
7.07692e-11
7.45467e-11
7.91696e-11
8.46862e-11
9.11534e-11
9.86381e-11
1.07217e-10
1.1698e-10
1.28025e-10
1.40465e-10
1.54427e-10
1.70052e-10
1.87497e-10
2.06935e-10
2.28561e-10
2.52586e-10
2.79247e-10
3.08803e-10
3.41538e-10
3.77767e-10
4.17834e-10
4.62114e-10
5.11021e-10
5.65005e-10
6.24561e-10
6.90226e-10
7.62587e-10
8.42284e-10
9.30011e-10
1.02653e-09
1.13265e-09
1.24927e-09
1.37735e-09
1.51794e-09
1.67216e-09
1.84123e-09
2.02647e-09
2.22928e-09
2.45119e-09
2.69382e-09
2.95892e-09
3.24836e-09
3.56413e-09
3.90837e-09
4.28334e-09
4.69145e-09
5.13524e-09
5.61743e-09
6.14085e-09
6.7085e-09
7.32355e-09
7.98928e-09
8.70914e-09
9.48673e-09
1.03258e-08
1.12301e-08
1.22037e-08
1.32506e-08
1.4375e-08
1.55811e-08
1.68733e-08
1.82556e-08
1.97325e-08
2.13082e-08
2.29868e-08
2.47724e-08
2.66688e-08
2.86796e-08
3.08082e-08
3.30576e-08
3.54305e-08
3.79291e-08
4.0555e-08
4.33092e-08
4.61923e-08
4.92038e-08
5.23425e-08
5.56065e-08
5.89926e-08
6.24968e-08
6.6114e-08
6.98378e-08
7.36607e-08
7.75738e-08
8.15671e-08
8.5629e-08
8.97469e-08
9.39067e-08
9.80928e-08
1.02289e-07
1.06476e-07
1.10637e-07
1.1475e-07
1.18794e-07
1.22748e-07
1.2659e-07
1.30295e-07
1.33842e-07
1.37207e-07
1.40366e-07
1.43297e-07
1.45979e-07
1.4839e-07
1.5051e-07
1.52321e-07
1.53806e-07
1.54951e-07
1.55743e-07
1.56172e-07
1.56231e-07
1.55914e-07
1.5522e-07
1.5415e-07
1.52708e-07
1.50901e-07
1.48738e-07
1.46233e-07
1.43401e-07
1.4026e-07
1.36831e-07
1.33136e-07
1.29201e-07
1.2505e-07
1.20712e-07
1.16214e-07
1.11586e-07
1.06857e-07
1.02056e-07
9.72104e-08
9.23493e-08
8.74991e-08
8.26852e-08
7.79314e-08
7.32599e-08
6.86908e-08
6.42421e-08
5.99299e-08
5.57679e-08
5.17675e-08
4.79382e-08
4.42869e-08
4.08189e-08
3.75372e-08
3.44431e-08
3.15362e-08
2.88145e-08
2.62747e-08
2.39124e-08
2.17219e-08
1.96969e-08
1.78304e-08
1.61148e-08
1.45422e-08
1.31042e-08
1.17927e-08
1.05993e-08
9.51569e-09
8.53393e-09
7.64614e-09
6.84479e-09
6.12268e-09
5.47299e-09
4.88927e-09
4.3655e-09
3.89605e-09
3.47569e-09
3.09962e-09
2.76339e-09
2.46297e-09
2.19465e-09
1.95507e-09
1.74119e-09
1.55026e-09
1.37982e-09
1.22764e-09
1.09174e-09
9.70337e-10
8.61852e-10
7.64877e-10
6.78163e-10
6.00602e-10
5.31211e-10
4.69124e-10
4.13574e-10
3.63884e-10
3.19455e-10
2.79758e-10
2.44326e-10
2.12743e-10
1.8464e-10
1.59687e-10
1.37589e-10
1.1808e-10
1.00919e-10
8.58872e-11
7.27838e-11
6.1424e-11
5.16368e-11
4.32637e-11
3.61568e-11
3.01781e-11
2.51988e-11
2.10984e-11
1.77646e-11
1.50925e-11
1.29852e-11
1.13529e-11
1.01131e-11
9.19069e-12
8.51782e-12
8.03394e-12
7.68582e-12
7.42757e-12
7.22056e-12
7.03339e-12
6.84158e-12
6.62731e-12
6.37897e-12
6.0905e-12
5.76078e-12
5.39272e-12
4.99241e-12
4.56819e-12
4.12977e-12
3.68731e-12
3.25077e-12
2.82921e-12
2.43038e-12
2.06042e-12
1.72369e-12
1.42278e-12
1.15865e-12
9.30834e-13
7.37666e-13
5.76615e-13
4.4455e-13
3.38015e-13
2.53456e-13
1.87411e-13
1.36642e-13
9.82297e-14
6.96221e-14
4.86492e-14
3.35135e-14
2.27618e-14
1.52462e-14
1.00806e-14
6.59654e-15
4.30287e-15
2.85017e-15
2.00186e-15
1.61236e-15
1.05698e-10
1.06885e-10
1.09315e-10
1.13013e-10
1.18018e-10
1.24382e-10
1.32173e-10
1.41472e-10
1.52376e-10
1.65002e-10
1.79479e-10
1.95959e-10
2.14614e-10
2.35636e-10
2.59241e-10
2.85671e-10
3.15197e-10
3.48115e-10
3.84759e-10
4.25495e-10
4.70728e-10
5.20903e-10
5.76513e-10
6.38097e-10
7.06248e-10
7.81618e-10
8.64919e-10
9.56931e-10
1.05851e-09
1.17058e-09
1.29417e-09
1.43037e-09
1.58041e-09
1.74559e-09
1.92734e-09
2.12721e-09
2.34687e-09
2.58815e-09
2.85301e-09
3.14357e-09
3.46213e-09
3.81116e-09
4.19331e-09
4.61143e-09
5.06858e-09
5.56805e-09
6.11332e-09
6.70814e-09
7.35648e-09
8.06259e-09
8.83094e-09
9.66628e-09
1.05736e-08
1.15583e-08
1.26258e-08
1.3782e-08
1.5033e-08
1.63851e-08
1.78448e-08
1.94191e-08
2.11148e-08
2.29393e-08
2.48999e-08
2.7004e-08
2.92592e-08
3.16732e-08
3.42534e-08
3.70074e-08
3.99425e-08
4.30659e-08
4.63843e-08
4.99043e-08
5.36317e-08
5.7572e-08
6.17296e-08
6.61085e-08
7.07115e-08
7.55404e-08
8.05958e-08
8.5877e-08
9.13816e-08
9.7106e-08
1.03044e-07
1.09189e-07
1.15532e-07
1.22059e-07
1.28759e-07
1.35615e-07
1.42608e-07
1.49718e-07
1.56921e-07
1.64193e-07
1.71505e-07
1.78827e-07
1.86127e-07
1.93371e-07
2.00521e-07
2.07541e-07
2.14392e-07
2.21032e-07
2.27422e-07
2.33519e-07
2.39282e-07
2.4467e-07
2.49644e-07
2.54164e-07
2.58194e-07
2.61699e-07
2.64647e-07
2.6701e-07
2.68763e-07
2.69885e-07
2.7036e-07
2.70175e-07
2.69325e-07
2.67807e-07
2.65626e-07
2.62792e-07
2.59318e-07
2.55224e-07
2.50537e-07
2.45285e-07
2.39504e-07
2.33231e-07
2.26509e-07
2.19384e-07
2.11904e-07
2.04118e-07
1.96077e-07
1.87835e-07
1.79444e-07
1.70954e-07
1.62417e-07
1.53882e-07
1.45395e-07
1.37e-07
1.28739e-07
1.20649e-07
1.12765e-07
1.05115e-07
9.77273e-08
9.06227e-08
8.38195e-08
7.73318e-08
7.11697e-08
6.53399e-08