/*--------------------------------*- C++ -*----------------------------------*\
| =========                 |                                                 |
| \\      /  F ield         | OpenFOAM: The Open Source CFD Toolbox           |
|  \\    /   O peration     | Version:  v2012                                 |
|   \\  /    A nd           | Website:  www.openfoam.com                      |
|    \\/     M anipulation  |                                                 |
\*---------------------------------------------------------------------------*/
FoamFile
{
    version     2.0;
    format      ascii;
    class       volScalarField;
    location    "0";
    object      p;
}
// * * * * * * * * * * * * * * * * * * * * * * * * * * * * * * * * * * * * * //

dimensions      [0 2 -2 0 0 0 0];


internalField   nonuniform List<scalar> 
4000
(
0.293
0.212999
0.150781
0.238051
0.204251
0.15392
0.0594681
0.0622929
-0.00813611
-0.0387698
-0.082801
-0.0757753
-0.127587
-0.0750257
-0.0319688
0.0876026
0.0183312
-0.0253473
-0.224968
-0.282576
-0.0322178
0.146945
0.016166
0.0574689
0.138749
0.101952
0.0923361
0.134304
0.100793
0.0767409
0.0569399
0.018756
-0.140197
-0.11917
-0.0244929
-0.0621795
0.0790738
0.178085
0.0362846
0.0135261
0.131005
0.232083
0.180877
0.0144126
-0.119014
-0.101291
0.0257949
0.15833
0.00466169
-0.10723
-0.0350292
-0.0547756
-0.0941971
-0.090112
-0.292675
-0.204329
-0.110498
0.00206462
-0.0457102
-0.00175893
0.0217188
-0.0536044
0.0445987
-1.66024e-05
-0.149858
-0.0331289
-0.0901697
-0.0611591
0.0532846
0.059457
0.0873307
0.0332726
-0.0479938
-0.189224
-0.142219
-0.11195
-0.187776
-0.109942
-0.0524483
0.0983866
0.159495
0.247968
0.141392
0.14703
0.388106
0.313155
0.173605
0.292514
0.168553
0.0505926
-0.0470677
-0.206368
-0.167346
-0.0134765
-0.0712477
-0.192293
-0.310217
-0.204885
-0.146356
-0.056849
0.297097
0.251905
0.16276
0.155865
0.232214
0.165958
0.122984
0.0356237
-0.0713246
-0.014499
-0.0938382
-0.0896294
-0.130445
-0.158588
-0.0250984
0.0903706
0.00722302
0.013133
-0.17894
-0.182629
-0.0446824
0.0729668
0.0203733
0.0365479
0.128513
0.0895655
0.0826948
0.165329
0.149367
0.0405888
-0.038414
-0.000423633
-0.0654051
-0.101936
-0.01353
-0.0226606
0.0680313
0.150664
0.00797203
0.0379054
0.108152
0.185115
0.176469
0.103688
-0.0940541
-0.0903429
0.0142524
0.124625
0.0313769
-0.0688201
-0.0620039
-0.0829945
-0.097717
-0.157386
-0.215709
-0.157341
-0.135433
-0.0103435
-0.0100595
-0.0138074
-0.0746355
-0.0508691
-0.0321393
0.0785768
-0.0745119
-0.078532
-0.100639
-0.0620791
0.0113107
0.0614651
0.0540713
0.0891787
0.0347139
-0.117341
-0.177879
-0.170893
-0.230222
-0.142114
-0.0135248
0.167449
0.154734
0.257386
0.156558
0.206736
0.323596
0.333268
0.164785
0.181437
0.218446
0.056832
-0.06177
-0.161284
-0.180406
-0.110628
-0.132529
-0.169355
-0.224003
-0.16071
-0.135853
0.00058798
0.239176
0.217979
0.167096
0.208478
0.215606
0.138737
0.142059
0.00974312
-0.0485647
-0.0271265
-0.095643
-0.189419
-0.0952516
-0.0857599
0.0956069
0.0340095
0.0523652
-0.0295215
-0.150698
-0.261357
-0.144799
0.0613795
0.10258
0.0110402
0.131654
0.115776
0.0628689
0.138531
0.176036
0.067076
0.022647
0.0209438
-0.0261493
-0.00843915
0.0646084
-0.00796117
0.100415
0.159706
0.0609086
-0.00128413
0.084134
0.109252
0.166415
0.0716693
-0.0254337
-0.107882
0.0940504
0.146516
-0.0378591
-0.0244379
-0.154047
-0.0692067
-0.0559729
-0.164418
-0.233663
-0.165691
-0.122308
0.00993046
0.0202386
-0.00837383
-0.0705977
0.0271549
-0.00957796
0.0217456
-0.00887965
-0.0775997
-0.144089
-0.0147197
-0.0360378
0.0343859
0.110637
0.132262
0.0283524
-0.1025
-0.131884
-0.130417
-0.213039
-0.087117
-0.0202565
0.0750398
0.155252
0.166339
0.174815
0.239068
0.289285
0.303446
0.170874
0.244478
0.115941
0.0135544
-0.099732
-0.206953
-0.154383
-0.0739172
-0.146894
-0.164407
-0.183552
-0.116845
-0.157943
0.0462365
0.188066
0.228121
0.214446
0.18212
0.17491
0.0756067
0.141685
0.0245472
-0.0164567
-0.00041646
-0.116947
-0.184066
-0.0975688
-0.074877
-0.0062793
0.104514
0.0134983
-0.0421364
-0.0177642
-0.236226
-0.17616
-0.0061995
0.0429054
-0.0242735
0.0978724
0.155607
0.0834483
0.18944
0.193336
0.119803
0.0626316
0.0106812
0.0232052
0.0589445
0.107207
0.0604073
0.0972096
0.125372
0.0551074
0.0222518
0.017602
0.0954368
0.0536395
0.0289246
-0.0361175
-0.055175
0.158434
0.178249
-0.0150619
-0.0884819
-0.0660211
-0.0432328
-0.0715368
-0.168857
-0.196344
-0.147537
-0.107882
0.0365402
-0.0208118
0.0240789
-0.0676297
-0.0189192
0.0163696
0.091642
-0.0168508
-0.0999333
-0.138976
-0.0640279
-0.0200063
0.0205514
0.101692
0.10987
0.0377401
-0.0437546
-0.0801644
-0.119169
-0.154526
-0.0883536
0.00498717
0.0117942
0.0840445
0.101793
0.185164
0.233057
0.278297
0.179578
0.180526
0.168102
0.0681469
-0.00457362
-0.107173
-0.200469
-0.176054
-0.0746559
-0.0728828
-0.156413
-0.153896
-0.111699
-0.146184
-0.0248244
0.15915
0.225925
0.168977
0.102501
0.0466432
0.142895
0.171228
0.0613067
-0.0127605
-0.0726496
-0.0961269
-0.127731
-0.130346
-0.131809
-0.0485811
0.100296
0.142908
-0.047496
-0.153124
-0.173424
-0.107798
-0.0665292
-0.0677361
0.0141958
0.0610069
0.161328
0.122238
0.15591
0.210255
0.172412
0.0836817
-0.0418366
0.0230276
0.146123
0.231372
0.0978728
0.108192
0.0484393
0.0107397
-0.0128143
0.0349447
0.0957615
0.0494263
0.00703959
-0.0686473
-0.000560792
0.109239
0.118468
0.0249961
0.0195177
-0.0682462
-0.116792
-0.0959644
-0.0742932
-0.116686
-0.163526
-0.17535
-0.0175575
0.0236161
0.0435447
0.00524282
0.0579444
-0.0379388
0.0284096
-0.067731
-0.0644227
-0.109955
-0.0309805
-0.0106599
0.0267782
0.108186
0.064588
0.0650989
0.0727028
-0.0730671
-0.109434
-0.190405
-0.170858
-0.0234711
-0.00460813
0.044263
0.0643526
0.0795176
0.239602
0.326024
0.175112
0.0868642
0.120502
0.0833514
-0.0209181
-0.109245
-0.167575
-0.153226
0.0280651
-0.0925543
-0.186041
-0.179128
-0.0968699
-0.130731
0.0245075
0.136416
0.215478
0.145193
0.100409
0.137361
0.101323
0.0789101
-0.0356701
-0.0796278
-0.0727538
-0.123159
-0.128057
-0.112213
-0.0363876
-0.0265597
0.0190775
0.0932804
0.0841942
-0.103038
-0.22854
-0.218835
-0.0440042
-0.119701
0.112647
0.116113
0.113268
0.11777
0.131801
0.187338
0.133031
0.0861925
0.0181452
0.0876555
0.163775
0.200536
0.14476
0.0888673
0.0273948
0.0141545
0.0165227
0.0907045
0.0358764
-0.0605123
-0.0114434
-0.0167535
0.0549861
0.1189
0.107564
0.0459859
0.0669211
-0.0426344
-0.109876
-0.0959841
-0.120353
-0.116001
-0.16288
-0.151914
-0.0561642
0.0380786
0.0544878
0.0284639
0.0849967
-0.0331449
-0.032199
-0.052775
-0.0762671
-0.112247
0.00961399
-0.0577274
0.0417208
0.0131023
0.123398
0.124203
0.0969955
-0.0698079
-0.138354
-0.195533
-0.149996
0.021972
0.0166467
0.0614423
0.100529
0.0859026
0.17693
0.249935
0.181238
0.109858
0.0876917
0.0960534
-0.0457498
-0.103382
-0.099982
-0.101269
-0.0397755
-0.0949376
-0.122564
-0.185376
-0.0699417
-0.109251
-0.0425067
0.144515
0.154948
0.144347
0.0427714
0.135496
0.0816001
0.0572652
-0.0222876
-0.0956687
-0.0590025
-0.0652511
-0.0756497
-0.0340934
-0.0987051
-0.0317379
0.151193
0.0615626
0.00292044
-0.084449
-0.0797558
-0.110201
-0.129467
-0.1442
0.0507367
0.0641931
0.115159
0.0990803
0.150119
0.113277
0.140404
0.156694
-0.0080983
0.127263
0.198164
0.13083
0.0599669
0.0692589
0.06431
-0.0376155
-0.0848698
0.0719631
0.0379956
0.0265679
-0.0729031
0.0328109
0.0878966
0.140273
0.072714
0.0966191
0.0600313
0.00399285
-0.035438
-0.162511
-0.119288
-0.0873395
-0.11217
-0.108698
-0.0716182
0.0254729
0.0301287
0.134936
0.12249
0.0165493
-0.0412897
-0.0632632
-0.0900316
-0.0885023
-0.0163318
-0.0418794
-0.0454395
0.0350206
0.166653
0.170511
0.0486625
0.0120206
-0.0539466
-0.21027
-0.190397
-0.0497815
-0.0268843
0.117323
0.0842625
0.149352
0.198786
0.157092
0.192829
0.137053
0.117119
0.082978
-0.100688
-0.104597
-0.0597696
-0.10629
-0.0550442
-0.0909119
-0.113862
-0.18007
-0.0730144
-0.0892173
-0.0828681
0.139852
0.0826398
0.0755754
0.151824
0.107112
0.0220402
-0.025067
-0.033927
-0.0646919
-0.0525466
-0.0533559
-0.130271
-0.0971489
-0.0998173
0.0477093
0.170606
0.0181451
-0.00102624
-0.0671594
-0.132245
-0.182855
-0.131354
-0.0680383
0.106532
0.111916
0.0838642
0.0651525
0.128061
0.0564875
0.0919268
0.177987
0.0652837
0.164787
0.119413
0.159533
0.00428706
0.0168379
0.0141446
0.00288977
-0.0434003
-0.05722
-0.014439
0.0571528
-0.100936
0.0906714
0.114842
0.0165917
0.186305
0.135408
0.0543198
-0.0699262
0.00855698
-0.143074
-0.0873569
-0.0759248
-0.144472
-0.0938154
0.0530111
0.115183
0.0866143
0.088372
-0.0296123
0.0551153
0.00296977
-0.0753575
-0.108642
-0.0578595
-0.00196581
-0.0253401
-0.00423631
0.0282683
0.15227
0.135565
0.0806237
0.0383186
-0.0891792
-0.149567
-0.104408
-0.054159
-0.0251938
0.0619464
0.11617
0.0638049
0.141737
0.12503
0.144778
0.143277
0.184791
0.0203447
-0.101892
-0.0698043
-0.0969404
-0.194626
-0.0316282
-0.109192
-0.0730337
-0.121851
-0.0353899
-0.0760802
-0.0363163
0.134566
0.0623705
0.0482765
0.069123
0.0695646
-0.0082732
0.0350966
-0.0379651
-0.120652
-0.0413832
-0.0843956
-0.169028
-0.0790665
-0.0777024
-0.0154757
0.228836
0.0365227
0.00406128
-0.0213169
-0.176371
-0.169061
-0.130053
-0.141425
0.0122551
0.0515987
0.0862333
0.0267456
0.140078
0.138172
0.0973786
0.0732421
0.0979602
0.0772301
0.0333344
0.0217907
0.0367841
-0.0368122
-0.10554
0.0175275
-0.0705821
-0.136417
-0.00626267
-0.0534526
-0.00201388
0.0490621
0.121164
0.0999418
0.177083
0.146032
0.0311876
0.0303303
-0.0418848
-0.113813
-0.0965379
-0.0436275
-0.0470137
-0.0490668
0.0887823
0.0941829
0.0169855
0.120836
-0.00863364
0.088178
-0.0860899
-0.0624277
-0.0319064
-0.0225567
-0.0725487
-0.0466785
0.0135025
0.0686001
0.0705379
0.079837
0.114532
0.0711905
-0.034475
-0.0307633
-0.133478
-0.079884
-0.0449908
0.0580251
0.0739925
0.031029
0.10601
0.0563676
0.12333
0.12283
0.111153
-0.0301895
-0.127724
-0.133874
-0.0958656
-0.130763
-0.0733618
-0.087321
-0.0671097
-0.0434366
-0.0526318
-0.0825656
-0.0220473
0.0649773
0.0483013
0.0423295
0.065895
0.018022
-0.0540265
0.0155057
-0.0511351
-0.137136
-0.0915903
-0.0686313
-0.124666
-0.121204
-0.0901653
-0.0408877
0.132101
0.166044
0.0441208
-0.00959067
-0.144383
-0.169233
-0.189913
-0.145474
0.0277131
0.0403453
-0.0386416
0.0160507
0.126692
0.0236848
0.164421
0.0876836
0.0282251
-0.0581646
-0.00212685
-0.0265347
-0.0930848
-0.0163054
-0.0381954
-0.033995
-0.137168
-0.143032
-0.0307472
0.00019885
-0.0134762
0.110552
0.155718
0.0917563
0.186277
0.0914656
0.0233546
-0.0142656
-0.0169945
-0.0844673
-0.0391835
-0.0471652
-0.0553344
-0.0111591
0.0851909
0.0667786
0.0882232
0.108732
0.0147786
0.00571974
-0.0233308
-0.0358535
-0.067
-0.0493205
-0.0776002
-0.0621271
-0.0405462
0.155911
0.063649
0.0531075
0.0755515
0.144629
0.0939652
0.0706035
-0.201498
-0.0785971
-0.0167689
-0.0169797
0.00305476
-0.0508694
0.0228594
0.0517691
0.0528385
0.00348566
0.0738242
-0.034714
-0.134914
-0.198995
-0.120716
-0.143533
-0.0615353
0.0132759
-0.0417204
-0.0688802
-0.0859952
-0.0472341
-0.0228315
0.0409324
-0.00606329
0.0170036
0.00671784
-0.0182277
-0.0719227
-0.027195
-0.0419616
-0.0892227
-0.167799
-0.0722401
-0.131316
-0.073487
-0.0291989
-0.024551
0.112594
0.104772
0.0563648
-0.043482
-0.183605
-0.284696
-0.22528
-0.127585
-0.123671
-0.0520048
-0.0892261
0.0403905
0.0497568
0.0417284
0.132293
0.0336524
-0.00565269
-0.0905077
-0.105758
-0.0715939
-0.0910042
-0.0508467
-0.09856
-0.194397
-0.0932488
-0.071794
-0.0417705
0.00815398
0.0480181
0.0786375
0.0358833
0.123213
0.194284
0.118366
0.0212269
0.0394003
0.0877351
-0.110144
-0.00360179
0.0184776
-0.0277496
-0.0725071
-0.0357493
0.0835516
0.103579
0.0710775
-0.00714229
0.0906373
0.0166483
0.0504959
-0.108485
-0.0707167
-0.0753432
-0.106499
-0.0264256
0.0761715
0.132564
0.138607
0.102799
0.11703
0.126605
0.0551922
-0.117114
-0.0123751
0.0404709
-0.0399557
-0.0843233
-0.0549822
-0.0537923
-0.0319122
-0.0679036
-0.0248088
0.0539734
-0.0525234
-0.0862894
-0.220248
-0.119482
-0.0702627
-0.0274622
0.0376772
-0.109845
-0.0132828
0.0578862
-0.0837911
-0.0614994
-0.0315778
-0.0171605
-0.11329
-0.0640709
-0.0322873
-0.105683
-0.0313318
0.00883655
-0.0701413
-0.153176
-0.162342
-0.140655
-0.0863558
-0.066595
0.054045
0.0871043
-0.0131862
0.0523543
-0.0420453
-0.180829
-0.208987
-0.203487
-0.188478
-0.213938
-0.123969
-0.125169
-0.0362905
0.0372361
0.0448818
0.0881476
-0.0581939
-0.0446719
-0.0957536
-0.0293452
-0.0805361
-0.136462
-0.124343
-0.208944
-0.142442
-0.131922
-0.118614
-0.061883
0.0189353
0.0256405
0.139033
0.120395
0.147591
0.0721661
0.0550576
0.0873553
0.066967
-0.0463519
0.0430271
0.0358605
0.0741792
0.00523952
-0.0185983
0.0217862
0.108843
0.0164302
0.0778464
0.147972
0.070207
-0.0735183
0.00637225
-0.172503
-0.093718
-0.0888696
0.0225323
0.0400662
0.144473
0.108715
0.0771007
0.108049
0.192125
0.148422
0.0876846
0.0297559
0.00603371
-0.0402031
-0.000712103
-0.207387
-0.0926283
-0.0519574
-0.264507
-0.044601
0.0167921
-0.0855706
-0.10256
-0.0901007
-0.143453
-0.0443443
-0.0834434
-0.0210111
0.125081
0.027
-0.0225015
-0.0283943
-0.0716163
-0.0961083
-0.0463705
-0.0668669
-0.166462
-0.0774598
-0.0847444
-0.0529257
-0.0494156
-0.0795011
-0.115187
-0.179101
-0.0784887
-0.162196
-0.127669
-0.0212379
0.102178
0.174144
0.0168831
-0.052092
-0.113023
-0.0346915
-0.193576
-0.212722
-0.165438
-0.207793
-0.223526
-0.130899
-0.103185
0.0390661
0.0580482
0.0203984
-0.0577745
-0.0165434
-0.114125
-0.104737
-0.0966901
-0.116257
-0.0879616
-0.203456
-0.261328
-0.149247
-0.0659172
0.0040563
0.00711036
0.0622825
0.0899204
0.102299
0.146324
0.00817707
-0.00106748
0.0709322
0.107791
0.0400421
0.102242
0.122975
0.0310761
0.0286119
-0.0345434
0.126591
-0.0274742
-0.0137704
0.0266079
0.0866529
0.0844157
0.0353799
-0.0584558
-0.154562
-0.173115
-0.0804418
-0.0279784
0.0111197
0.162069
0.18798
0.118538
0.125319
0.227292
0.218945
0.123909
0.0260589
0.0788597
0.000278844
-0.0773793
-0.277891
-0.176616
-0.134507
-0.221126
-0.0421319
-0.134352
-0.130997
-0.128907
-0.121009
-0.137962
0.0813232
-0.0653173
-0.00510087
0.0717216
0.0786649
-0.00265224
0.0514474
-0.02791
0.00197174
-0.0699153
-0.0944465
-0.148234
-0.14628
-0.0730001
-0.121247
-0.121692
-0.0659747
-0.0765268
-0.0790238
-0.0627225
-0.118781
-0.184413
-0.100663
0.183832
0.196198
0.102305
-0.0111309
-0.0626478
-0.0262086
-0.299889
-0.228296
-0.117167
-0.150934
-0.100877
-0.151984
-0.198984
0.0772007
0.0550935
0.0196268
-0.0665505
-0.124199
-0.161203
-0.167001
-0.155966
-0.228383
-0.0815798
-0.0585648
-0.207063
-0.183039
-0.11998
-0.0386625
0.0332117
0.117895
0.0910882
0.0688036
0.117637
-0.013866
0.04062
-0.0194103
0.0275869
0.197704
0.13312
0.188748
0.14752
-0.00148832
-0.00105758
0.0613041
0.0715578
0.0163503
0.0839636
0.0762544
0.0212813
-0.0347136
-0.0336036
-0.157625
-0.159523
-0.134047
-0.0780742
-0.0332358
0.127467
0.207294
0.223863
0.150078
0.196671
0.208336
0.133592
0.0961205
0.0946369
-0.0594292
-0.142668
-0.293368
-0.202108
-0.154602
-0.196634
-0.104577
-0.188538
-0.190101
-0.109721
-0.0943423
-0.0675514
0.036669
0.043173
0.032278
0.0782814
0.0993018
0.11813
0.108794
0.0635425
-0.0497171
-0.0650151
-0.14918
-0.209746
-0.222835
-0.143802
-0.129271
-0.140966
-0.0914277
-0.135585
-0.211386
-0.0316563
-0.0124856
-0.0635403
-0.02007
0.118806
0.18655
0.121423
0.129072
0.0107012
-0.0301509
-0.0918261
-0.191136
-0.170452
-0.165948
-0.0991753
-0.150733
-0.124585
0.010976
-0.0806455
-0.055334
0.00522798
-0.104875
-0.221026
-0.21468
-0.131709
-0.128894
-0.115018
-0.123048
-0.142793
-0.0808046
-0.085891
-0.0652378
0.0217548
0.00580342
0.0277996
0.151548
0.0685545
-0.0201309
0.110725
0.0807072
0.146667
0.102101
0.158111
0.211658
0.172219
0.0347599
0.0213864
0.0983177
0.0344746
0.0745896
0.0102372
0.0876342
0.0208732
0.00180641
-0.051532
-0.201634
-0.192918
-0.143663
-0.070035
-0.0660127
0.0671021
0.215491
0.227917
0.206963
0.231245
0.261236
0.0596682
0.0710301
0.113721
-0.00653785
-0.166117
-0.246379
-0.272537
-0.180397
-0.17247
-0.155808
-0.161187
-0.228701
-0.1414
-0.126867
-0.0433918
0.0533536
0.068183
0.0998717
0.174904
0.178534
0.181335
0.172842
0.0754003
-0.0620958
-0.124913
-0.162072
-0.166371
-0.133548
-0.193918
-0.225425
-0.140705
-0.0679751
-0.080186
-0.115284
-0.0740633
-0.068883
-0.0270655
0.0645589
0.163555
0.139034
0.154664
0.0910535
0.0416851
-0.00825949
-0.013994
-0.151533
-0.0948321
-0.0856186
-0.108678
-0.222469
-0.127061
0.0430301
-0.0678462
-0.0726799
-0.105024
-0.197546
-0.231207
-0.202694
-0.210458
-0.124565
-0.032111
-0.173124
-0.0525795
-0.050106
-0.0677805
-0.0554338
-0.0105098
-0.0603878
-0.000910631
0.0957106
0.0618922
0.0944934
0.131551
-0.000857182
0.0690874
0.137683
0.136223
0.212556
0.100439
0.101031
0.106635
0.109898
-0.0107297
0.0437514
0.101315
0.0218761
0.0151419
0.0140175
-0.0999828
-0.320421
-0.187635
-0.157519
-0.0575866
-0.0212376
0.073157
0.239221
0.181676
0.207508
0.208115
0.185485
0.110542
0.025106
0.0880995
-0.0767076
-0.0871349
-0.158884
-0.275842
-0.229966
-0.162501
-0.142059
-0.174669
-0.283473
-0.0601387
-0.0267166
0.0325787
0.0660676
0.0910757
0.072685
0.191386
0.221342
0.224467
0.124507
0.0874549
0.0195799
-0.154172
-0.0971875
-0.16097
-0.226929
-0.116965
-0.102033
-0.160395
-0.171468
-0.0994072
-0.0903822
-0.0956681
-0.0649129
-0.032274
0.0612228
0.123936
0.173092
0.213134
0.125674
0.163111
0.0114607
-0.0666978
-0.10694
-0.0956249
-0.0686936
-0.125474
-0.174886
-0.0918493
0.0654211
-0.0532454
-0.108027
-0.168907
-0.298472
-0.165799
-0.14638
-0.210962
-0.0761216
-0.128835
-0.133365
-0.133582
-0.00939815
0.0249786
-0.0669683
-0.114301
-0.0685502
-0.0552652
0.0404114
0.121237
0.159366
0.167603
0.118809
0.055241
0.0568645
0.137341
0.195771
0.114545
0.146034
0.133467
0.0916431
-0.0159885
0.0385463
0.0621862
0.089727
-0.0557767
-0.017448
-0.106665
-0.230809
-0.195328
-0.211081
-0.122315
0.0956549
0.162591
0.128078
0.213705
0.189828
0.157566
0.121451
0.177021
0.0144809
0.0303391
-0.0466152
-0.050941
-0.220885
-0.170454
-0.201695
-0.179279
-0.184828
-0.102014
-0.175208
-0.108583
-0.0402765
0.083531
0.187115
0.131408
0.128134
0.163692
0.175826
0.279468
0.104978
0.0661003
0.0449539
-0.101147
-0.0978621
-0.163736
-0.149351
-0.0999517
-0.0980857
-0.169726
-0.187992
-0.0767329
-0.0742327
-0.049508
-0.0484815
-0.00764683
0.106468
0.116545
0.132408
0.121038
0.203215
0.120678
-0.0258191
-0.118965
-0.0273304
0.0411803
0.0250221
-0.0676145
-0.135182
-0.0606169
-0.0398839
-0.063928
-0.127504
-0.210907
-0.219042
-0.220412
-0.125794
-0.184763
-0.0801848
-0.189025
-0.156441
-0.0465704
-0.0351749
-0.0216944
0.0225689
-0.0887637
-0.0842294
-0.142949
-0.0147296
0.0816476
0.177309
0.133503
0.0737593
0.0463795
0.12509
0.138578
0.175074
0.138231
0.147565
0.0886889
0.0429456
0.0523975
0.0565063
0.0414983
0.0825794
-0.0679273
-0.0906449
-0.133235
-0.105441
-0.210811
-0.162985
-0.00836835
0.0663368
0.183773
0.13468
0.186613
0.211583
0.191208
0.0574524
0.0922122
-0.0102431
-0.0117823
0.04666
-0.0441453
-0.100793
-0.134533
-0.254733
-0.190907
-0.178347
-0.0601452
-0.126085
-0.144187
-0.0582828
0.218886
0.156962
0.162231
0.152529
0.206217
0.167319
0.243558
0.0993284
0.049629
0.0577248
0.00629106
-0.111033
-0.151391
-0.0689707
-0.100726
-0.092686
-0.14645
-0.180953
-0.0622945
-0.0346133
-0.0159276
0.0314013
0.00605684
0.13897
0.152209
0.113952
0.0898275
0.130307
0.139233
-0.0152387
0.0378901
0.0403198
0.0517124
0.0927335
-0.0835093
-0.138474
-0.0455448
-0.0229911
-0.146049
-0.12857
-0.172083
-0.201052
-0.2118
-0.117639
-0.118775
-0.147326
-0.13803
-0.116628
-0.114103
-0.0274029
-0.0431028
0.043338
-0.0944789
-0.0962978
-0.157417
-0.0156165
0.101735
0.203925
0.133027
0.0538338
0.0573157
0.145487
0.0442753
0.128448
0.0617905
0.172415
0.0735435
0.0573822
0.0444252
-0.0155566
0.0206438
0.0474949
-0.0441959
-0.0782415
-0.145938
-0.184222
-0.222699
-0.143419
0.049657
0.0610526
0.13432
0.0812981
0.112681
0.266123
0.131023
0.0876255
0.0909413
0.0585675
-0.0439547
-0.0519184
-0.0389749
-0.0167669
-0.143332
-0.206085
-0.204472
-0.179816
-0.137912
-0.132821
-0.00404708
-0.0256737
0.129233
0.142091
0.234631
0.193691
0.198357
0.195601
0.249208
0.106214
0.0535656
0.0727613
0.0220458
-0.0468862
-0.122033
-0.0746314
-0.0491732
-0.0753739
-0.180038
-0.165815
-0.116854
-0.0109431
0.0274542
0.000136817
0.0614729
0.138182
0.13446
0.139259
0.0293639
0.230092
0.150516
0.0220237
-0.012097
0.0971109
0.0339542
0.0782286
-0.0375193
-0.0114323
-0.00159156
-0.0728721
-0.114778
-0.120334
-0.0447896
-0.158125
-0.2221
-0.147678
-0.220455
-0.0941008
-0.10682
-0.029018
-0.0361857
0.00306651
0.013977
0.00814062
-0.181615
-0.111414
-0.0865418
0.0256316
0.0607909
0.117649
0.0382809
0.0549935
0.0902945
0.104849
-0.017673
0.120407
0.101836
0.108776
0.0220601
-0.0108456
-0.0320897
0.00217812
0.0412678
0.0592474
-0.117056
-0.119592
-0.120008
-0.202243
-0.258843
-0.107748
0.0565119
0.065877
0.0502668
0.0808971
0.0542824
0.239642
0.22969
0.122491
0.0616272
-0.0242299
-0.0804808
-0.0236325
-0.0693664
-0.0835075
-0.0825314
-0.223766
-0.190174
-0.133559
-0.102985
-0.136559
0.0303554
0.0135488
0.154539
0.163668
0.200001
0.198375
0.136388
0.315559
0.288647
0.176972
0.0656987
0.099655
-0.00874218
-0.0387143
-0.0910858
-0.0504187
-0.0253013
-0.0732266
-0.101937
-0.126369
-0.0853892
-0.0428868
-0.0529586
0.0534226
0.107719
0.211675
0.107083
0.112432
0.108735
0.225105
0.0843778
0.0484885
0.0044503
0.112718
0.136111
0.0868864
0.0566201
-0.0410697
0.108969
-0.0513331
-0.1312
-0.132469
-0.155323
-0.0709016
-0.192512
-0.0992394
-0.106176
-0.0683292
-0.0935631
-0.0978479
-0.0591039
-0.0469698
0.00645072
0.036859
-0.0477627
-0.111662
-0.0728009
-0.0072905
0.11601
0.104506
0.055321
-0.0139186
0.0586021
0.0704281
0.0110934
0.0202118
0.0198055
0.0269666
-0.0163496
0.0507915
-0.0242473
-0.0548538
0.00435305
0.0286849
-0.0748145
-0.172557
-0.158753
-0.155702
-0.216589
-0.0408616
0.0843519
0.0236513
0.0813212
0.0894734
0.0473866
0.189459
0.245958
0.106188
0.0736374
-0.0215772
-0.0912285
-0.090905
-0.0986324
-0.0488544
-0.0539641
-0.196301
-0.22547
-0.205188
-0.0275559
-0.0408884
0.0372311
0.0857413
0.122273
0.208463
0.165422
0.156687
0.206366
0.253011
0.323659
0.165724
0.21412
0.100573
0.0302249
0.0352468
-0.069949
-0.0517844
-0.0354302
-0.00405389
-0.0819674
-0.0806869
-0.0963663
-0.0308674
-0.0107775
0.0635562
0.129848
0.126082
0.137843
0.203391
0.134421
0.180408
0.105313
0.0370543
0.0236334
0.120303
0.113139
0.0971715
0.0834588
0.0400431
0.0336795
-0.0467849
-0.0556937
0.00738692
-0.0794114
-0.0588865
-0.120212
-0.129318
-0.16119
-0.0045316
-0.0220573
-0.0390862
-0.0485742
0.0176306
0.00347306
-0.0253793
0.0129183
-0.0416276
-0.0391031
0.0694703
0.0846131
0.0868915
-0.0253097
0.0146336
-0.0174798
-0.0664415
-0.0339674
-0.0549305
-0.0402049
-0.0406481
0.026206
0.0455931
-0.0408518
-0.00105909
0.00546208
-0.0664156
-0.0869044
-0.129598
-0.117282
-0.142543
-0.151237
0.0226933
-0.00813044
0.0587818
0.0425937
0.133101
0.16685
0.205229
0.225375
0.100613
-0.0276251
-0.108863
-0.0752183
-0.0182948
-0.0816433
-0.0172456
-0.0637439
-0.205136
-0.171714
-0.13578
-0.0633995
-0.0489195
0.125513
0.121508
0.16022
0.0840983
0.151821
0.1495
0.240646
0.309152
0.341524
0.25392
0.297676
0.0880601
0.0343507
0.0737717
-0.00825345
-0.047264
-0.0167108
-0.0227973
0.0203867
-0.022603
-0.135617
0.00240344
0.0270302
0.0313807
0.0564856
0.18854
0.160823
0.180199
0.16479
0.117863
0.0655875
0.018342
0.088594
0.152843
0.147948
0.10671
0.0694292
0.112315
0.00321624
0.00997161
-0.0601675
-0.0658319
-0.150426
-0.00482796
-0.0882831
-0.0420277
-0.0251305
0.0233509
0.01341
-0.0614777
0.00988559
0.0313476
-0.0266542
-0.0327847
0.0341248
-0.0187094
-0.0143496
0.0265059
0.105532
0.100827
0.00178979
0.0091144
-0.0419134
-0.114526
-0.106361
-0.0196811
-0.00528134
-0.12881
-0.0678808
0.0336619
-0.00176134
-0.0725242
0.0297468
-0.0209325
-0.158771
-0.122245
-0.037999
-0.123695
-0.07211
-0.0276799
0.0411214
0.118339
0.148871
0.111278
0.0314213
0.176597
0.17089
0.0579254
0.00542547
-0.094134
-0.142615
-0.0441027
-0.0537723
-0.02539
-0.105956
-0.205837
-0.0550757
-0.126065
-0.115549
0.0238699
0.188526
0.134857
0.0846749
0.168033
0.0645446
0.128388
0.331743
0.428357
0.328086
0.226484
0.220898
0.0544201
0.035321
0.0880468
0.0994284
0.048012
-0.0789701
-0.123622
-0.0737395
-0.00239804
-0.0259547
0.179354
0.0700306
-0.0345431
0.0328958
0.252967
0.192002
0.111267
0.104807
0.116974
-0.0522863
-0.00408077
0.249491
0.251851
0.0463942
0.118469
0.199205
0.109363
0.0528977
0.0199728
-0.158471
-0.0729676
-0.0340619
-0.0985776
-0.0682271
0.0294361
-0.00981615
0.012058
0.0510742
0.000695321
0.063155
0.0209915
-0.0564082
-0.0101391
0.0329089
-0.0457726
0.0132865
0.0572745
0.0692598
0.127434
-0.0732605
-0.0306246
-0.0956575
-0.133645
-0.0878512
-0.120356
-0.033224
-0.0733125
-0.0788686
0.00302806
-0.0554426
-0.0617767
-0.0729498
-0.0605835
-0.106448
-0.153853
-0.139872
-0.0502606
-0.000887844
-0.024266
-0.0117034
0.0156601
0.0561062
0.188577
0.164939
0.195013
0.114264
-0.00539351
-0.0508563
-0.082576
-0.16485
-0.0608862
0.00113309
-0.0664718
-0.0906128
-0.12419
-0.0806329
-0.0760799
-0.0392515
-0.0632963
0.0924963
0.151874
0.0975841
0.137472
0.15333
0.200248
0.2156
0.276695
0.358508
0.246345
0.228351
0.0227577
0.0777986
0.119824
0.0752776
-0.0293177
-0.0521797
-0.00217701
-0.0276622
-0.0205541
0.019098
0.0370471
0.134928
0.0305849
-0.0323938
0.171125
0.275449
0.138488
0.0808551
0.0285473
0.0751278
0.064931
0.265614
0.272101
0.103359
0.14944
0.0982518
0.0612154
0.0478081
0.104293
0.00148322
-0.100824
-0.0467632
-0.0301663
-0.00824312
0.0888926
0.0600596
0.0320883
0.140701
0.0861815
0.0863221
0.0521476
-0.0664876
-0.0162023
0.00833502
-0.0379277
0.0729109
0.0209761
-0.0433148
0.0301655
-0.0133286
-0.0582519
-0.0972491
-0.127093
-0.0544297
-0.0609821
-0.104867
-0.127155
-0.162069
-0.151227
0.0464361
-0.121736
0.0201847
-0.108663
-0.102016
-0.163677
-0.047043
-0.0300194
-0.0191968
-0.0551222
-0.0765712
0.032575
0.0950761
0.246986
0.209083
0.123403
0.111545
-0.0985734
-0.186262
-0.108459
-0.0944064
-0.0605104
0.0231772
-0.144207
-0.175004
-0.149063
-0.0521588
-0.0778281
-0.0267224
0.0164351
0.0931924
0.178314
0.0013182
0.11195
0.152997
0.231386
0.230301
0.238177
0.237471
0.207543
0.193179
0.0327605
0.0661201
0.128452
0.0986869
-0.0184222
-0.0217018
-0.0151515
0.0189942
0.0158347
-0.0369385
-0.0101854
0.095252
0.144723
-0.0114713
0.154833
0.204407
0.150766
0.0503004
0.0582441
0.165346
0.0583052
0.244331
0.19533
0.121924
0.183007
0.165608
0.0168617
0.0714521
0.0876837
-0.0821985
-0.0589863
0.0789467
-0.00300041
0.0489483
0.0984721
0.189761
0.0392484
0.100121
0.0710753
0.126703
0.116408
-0.0388222
-0.0305447
0.0111212
0.00625091
-0.000486209
0.00192583
0.0202794
0.0414214
-0.078718
-0.137026
0.00675475
-0.0613812
-0.0873684
-0.0799019
-0.0858813
-0.108987
-0.122482
-0.177703
-0.0488989
-0.0454833
-0.0681736
-0.115168
-0.0438027
-0.146445
-0.0656812
-0.0335868
0.00604719
-0.1036
-0.0610568
-0.0121361
0.0511672
0.147126
0.229362
0.189073
0.0374979
-0.128717
-0.14588
-0.100441
-0.0640234
-0.119784
0.00946794
-0.102266
-0.216396
-0.126161
0.00393215
-0.0579574
-0.0650696
0.0726814
0.0279236
0.0812709
-0.0125273
0.0788904
0.115137
0.218751
0.122206
0.241379
0.119109
0.148294
0.150189
0.0546327
0.028697
0.0579029
0.120507
-0.0296165
0.00401904
-0.0204202
-0.040081
0.0457185
-0.0307442
0.0432473
0.040393
0.114572
0.0349043
0.0731995
0.192333
0.185367
0.0460042
0.13621
0.115666
0.058449
0.229022
0.219487
0.116983
0.132109
0.0894784
0.1081
0.0588196
0.134169
0.0160693
-0.0493691
0.0358156
-0.023679
0.0669644
0.0894652
0.171917
0.0448934
0.0753457
0.158066
0.22825
0.0933143
0.0187242
-0.0367686
-0.0217259
0.0424779
-0.027249
0.0114584
0.0242844
-0.0298643
-0.0707796
-0.147619
0.0473834
-0.0245653
-0.120047
-0.0698013
-0.0577426
-0.11793
-0.131471
-0.177842
-0.0564952
-0.0251821
-0.0687398
-0.10729
0.000156934
-0.099376
-0.0724955
-0.0232122
-0.0645252
-0.0131497
-0.0709601
-0.0781416
0.0554802
0.183128
0.232754
0.0569048
-0.0769629
-0.0900865
-0.214548
-0.0525887
-0.0406324
-0.0989293
-0.0176309
-0.147972
-0.125019
-0.148251
-0.133596
-0.0898968
-0.0368257
0.0322897
0.0170015
0.00471093
0.000882547
0.0883446
0.124338
0.202204
0.0978124
0.151021
0.160717
0.154542
0.0647136
0.0689429
0.0329716
0.0836324
0.0215075
-0.00265666
-0.0615224
-0.00676531
-0.00312093
0.0308995
0.029224
0.0106415
-0.00107083
0.0197205
0.0231596
0.125804
0.078453
0.189262
0.162422
0.073662
0.0489571
0.139855
0.186296
0.205932
0.197727
0.236332
0.133143
-0.0565578
0.0894201
0.155872
0.136859
-0.0294503
-0.0588564
0.00791709
0.0865213
0.124118
0.225651
0.0954421
0.175236
0.175521
0.147358
0.0724211
0.0336065
-0.0435724
-0.0754349
-0.0452894
-0.020794
-0.0125313
0.0653492
-0.00290888
-0.113442
-0.11291
0.0819726
-0.0326489
-0.0741976
-0.0729574
0.00367816
-0.040656
-0.121114
-0.193574
-0.0457105
-0.00304539
0.0103712
-0.0745573
-0.0596935
-0.121921
-0.0114181
0.0342508
-0.0416579
0.0329549
-0.000349545
-0.0843734
-0.0340582
0.06679
0.178175
0.0705699
-0.100107
-0.113439
-0.142896
-0.0425965
-0.0457715
-0.0586139
-0.0816329
-0.182369
-0.134388
-0.164013
-0.067828
-0.110499
-0.0987944
0.026617
-0.0135547
-0.0358482
-0.065884
0.130997
0.120489
0.0448998
0.0551813
0.104005
0.135622
0.0599547
0.0230036
0.0766449
0.0517879
0.127081
0.0579686
-0.0129939
-0.0201829
0.0451978
-0.0553647
-0.00553965
0.0783965
0.0431113
-0.0831658
0.0824953
0.0272914
0.0228771
0.0406092
0.127677
0.209838
0.148124
0.0321755
0.0771392
0.171156
0.237429
0.233142
0.227885
0.137522
0.0336888
0.064943
0.0603093
0.118893
0.0855907
-0.0599492
-0.00359437
0.152133
0.0930192
0.108493
0.159021
0.121165
0.126042
0.128058
0.0388286
0.0574868
-0.111012
-0.0330245
-0.0224764
0.0103784
0.05474
0.0377279
-0.0113934
-0.119231
-0.118388
-0.000542479
0.0103169
0.000186022
-0.0777189
-0.0220811
-0.0409529
-0.106369
-0.148892
-0.0871358
0.00313733
0.0238269
0.0212197
-0.00304434
-0.120558
0.0283063
0.0413666
-0.0419452
-0.0246169
0.00365481
-0.0293088
0.142596
0.0487476
-0.0143166
0.0205995
-0.0949312
-0.0973952
-0.15116
0.0036269
-0.0236419
-0.145699
-0.124566
-0.184095
-0.0977214
-0.157459
-0.0871082
-0.108892
-0.07635
0.0242962
-0.0631728
-0.09245
-0.017083
0.125761
0.0475105
0.0419628
-0.0117669
0.00842102
0.100923
0.0336969
-0.0238084
-0.0697529
0.0313831