/*--------------------------------*- C++ -*----------------------------------*\
| =========                 |                                                 |
| \\      /  F ield         | OpenFOAM: The Open Source CFD Toolbox           |
|  \\    /   O peration     | Version:  v2012                                 |
|   \\  /    A nd           | Website:  www.openfoam.com                      |
|    \\/     M anipulation  |                                                 |
\*---------------------------------------------------------------------------*/
FoamFile
{
    version     2.0;
    format      ascii;
    class       volVectorField;
    location    "0";
    object      U;
}
// * * * * * * * * * * * * * * * * * * * * * * * * * * * * * * * * * * * * * //

dimensions      [0 1 -1 0 0 0 0];


internalField   nonuniform List<vector> 
4000
(
(0.00529804 0.0117206 0)
(-0.0328678 0.046728 0)
(-0.0609525 -0.0675357 0)
(0.248912 -0.0887805 0)
(0.259456 0.0999534 0)
(-0.102714 0.0669055 0)
(-0.225164 0.0130484 0)
(0.148283 -0.0214989 0)
(-0.0367645 -0.0196047 0)
(-0.0799816 0.00674231 0)
(0.192051 -0.0730112 0)
(-0.01917 -0.0245964 0)
(-0.122865 0.0614631 0)
(0.141359 0.0845193 0)
(-0.115442 -0.0204429 0)
(0.162156 -0.145825 0)
(0.0436971 0.0755906 0)
(-0.0662991 0.0686418 0)
(-0.251571 -0.00830013 0)
(-0.03198 -0.101842 0)
(-0.117449 0.00404722 0)
(-0.00223008 0.109994 0)
(0.12521 0.0547997 0)
(-0.0727299 -0.0109053 0)
(-0.169088 0.0134895 0)
(0.0184811 -0.027344 0)
(-0.0975576 0.0824848 0)
(-0.041199 -0.100315 0)
(0.0501204 -0.0280461 0)
(-0.13082 0.0553546 0)
(-0.0539171 -0.0866744 0)
(-0.0501848 -0.133306 0)
(0.087141 0.014069 0)
(0.131318 0.138758 0)
(0.0700986 -0.00801869 0)
(0.0622102 -0.138373 0)
(0.0617462 -0.0148818 0)
(0.0653993 0.0872898 0)
(-0.122535 -0.0662319 0)
(0.0879352 -0.0310724 0)
(-0.15557 0.126463 0)
(0.0321251 0.0195895 0)
(0.0145226 -0.0811137 0)
(0.134629 -0.0174357 0)
(-0.0506031 -0.00198157 0)
(0.242227 -0.00096542 0)
(0.0355155 0.0750197 0)
(-0.021098 0.0337072 0)
(-0.0411052 -0.0519426 0)
(-0.15043 0.044582 0)
(-0.0445203 -0.0638154 0)
(0.0511734 -0.104603 0)
(0.0913875 -0.00379351 0)
(0.0125569 0.0771461 0)
(0.00468437 0.0580245 0)
(0.0123776 -0.033437 0)
(0.0343528 0.00122337 0)
(-0.0180592 -0.00377374 0)
(0.0807986 0.0271266 0)
(-0.0385398 0.0672821 0)
(-0.215437 -0.0708095 0)
(0.00123349 0.0138215 0)
(-0.00755454 -0.0161592 0)
(-0.0744045 0.0341883 0)
(0.0934143 -0.00942009 0)
(0.00574755 -0.0094032 0)
(-0.0240628 0.113386 0)
(-0.114001 -0.0744645 0)
(0.0395496 -0.0214618 0)
(-0.0382845 -0.0233869 0)
(-0.0319058 -0.0400527 0)
(-0.0460794 -0.0498531 0)
(0.199515 0.0295266 0)
(-0.00134624 0.0352329 0)
(0.047716 0.055909 0)
(0.0296742 0.0145376 0)
(-0.110271 0.0536973 0)
(-0.0190852 -0.00849296 0)
(0.0625206 -0.074344 0)
(-0.119954 -0.07242 0)
(-0.0262157 -0.0120912 0)
(-0.100572 0.107264 0)
(-0.00759657 -0.0283125 0)
(0.0750939 0.0245721 0)
(-0.11215 0.0897194 0)
(-0.245035 -0.100474 0)
(0.119056 -0.114518 0)
(0.0106612 0.0130284 0)
(0.114398 0.122746 0)
(-0.0413292 -0.00207791 0)
(0.11488 -0.0469028 0)
(0.00872857 0.0644771 0)
(0.095592 0.0229028 0)
(-0.195626 0.033939 0)
(0.00265932 0.062429 0)
(-0.0819575 -0.0275164 0)
(-0.205623 -0.100484 0)
(0.0955211 -0.01506 0)
(-0.0128499 0.0278763 0)
(-0.00988513 0.0307583 0)
(0.0644281 0.01421 0)
(-0.058821 0.133506 0)
(-0.0559911 -0.143565 0)
(0.000400543 -0.165448 0)
(-0.0371098 0.144825 0)
(-0.10519 0.0887583 0)
(-0.028389 -0.0197874 0)
(-0.000508971 -0.052014 0)
(-0.00885113 -0.0466097 0)
(0.148769 0.0959899 0)
(-0.079029 -0.00990138 0)
(0.00143126 -0.00820727 0)
(-0.00927048 -0.0385756 0)
(0.0016976 0.0390845 0)
(-0.00501488 0.0287933 0)
(0.0147598 -0.136165 0)
(0.0375051 0.0489084 0)
(-0.0543931 0.0917964 0)
(-0.0242474 -0.0690039 0)
(0.0534438 -0.0948973 0)
(-0.00480412 -0.0141642 0)
(0.0361208 0.0438026 0)
(0.0456288 -0.0167929 0)
(-0.0368007 0.135803 0)
(-0.0139979 -0.0137409 0)
(-0.0515593 -0.0868257 0)
(0.146566 0.0611691 0)
(-0.118886 -0.0205152 0)
(-0.0300853 -0.0211275 0)
(-0.0469092 0.0158076 0)
(0.125551 -0.0849283 0)
(-0.0539483 -0.000146462 0)
(-0.0653913 -0.0418226 0)
(-0.00031308 0.0192473 0)
(-0.0558648 -0.0175048 0)
(0.0867455 -0.0534428 0)
(0.00329553 0.0533103 0)
(-0.0513689 0.0514396 0)
(0.088028 -0.0866942 0)
(-0.00683556 0.042893 0)
(0.0163866 0.0296298 0)
(0.049463 -0.0779102 0)
(0.00522438 -0.0834171 0)
(-0.00993975 0.0229836 0)
(0.09216 0.115261 0)
(-0.249774 -0.0162763 0)
(0.0213044 -0.0395138 0)
(0.105114 0.0359678 0)
(-0.0837571 0.0312451 0)
(-0.0896622 0.0665694 0)
(-0.121027 -0.0274046 0)
(-0.0942018 -0.0829839 0)
(-0.10533 0.00694524 0)
(-0.0664357 -0.0156943 0)
(-0.00202262 0.046047 0)
(0.0631767 0.0222248 0)
(0.0383759 -0.0367923 0)
(-0.0756584 -0.0540765 0)
(0.0512816 -0.0341225 0)
(0.0310739 0.0692701 0)
(-0.0230306 0.00751936 0)
(0.064997 0.0378086 0)
(0.00346401 0.0110562 0)
(-0.0223694 0.0271995 0)
(0.229539 -0.116814 0)
(-0.0289994 0.0404391 0)
(0.0811726 0.0422434 0)
(0.145238 -0.120726 0)
(0.0326026 -0.0930821 0)
(0.0882974 0.0928408 0)
(-0.0137948 0.0960656 0)
(-0.0870001 -0.126945 0)
(0.0163761 -0.153077 0)
(0.136929 0.0403187 0)
(-0.0105198 0.19826 0)
(-0.00199541 0.0109492 0)
(0.0189055 0.012846 0)
(-0.0302052 0.0365637 0)
(0.031914 -0.0984425 0)
(0.0362467 -0.0298014 0)
(-0.0246287 -0.00394566 0)
(0.0971336 0.0287487 0)
(0.00883445 -0.123262 0)
(0.236737 -0.00306953 0)
(0.130426 0.198862 0)
(0.0425776 0.0405861 0)
(-0.050069 -0.1211 0)
(0.055789 -0.0874076 0)
(0.0538515 0.0770661 0)
(-0.00709477 -0.033403 0)
(-0.00255091 0.062693 0)
(0.0347979 0.0885378 0)
(0.103425 0.047537 0)
(0.111505 -0.0280069 0)
(0.000393098 0.0843215 0)
(0.0909249 0.00723598 0)
(-0.0281455 -0.160414 0)
(0.014336 -0.0573338 0)
(0.0537361 0.00774618 0)
(-0.0459633 0.037113 0)
(-0.00336165 0.0251475 0)
(-0.00261634 0.110144 0)
(-0.00335784 -0.135553 0)
(0.00543349 -0.060007 0)
(-0.0119531 0.0480683 0)
(-0.0457971 0.062093 0)
(0.00160744 -0.00932488 0)
(0.0082673 -0.00481074 0)
(-0.0942703 -0.0126268 0)
(0.128881 0.0724453 0)
(0.15639 0.038865 0)
(-0.0572012 -0.0242396 0)
(0.025778 -0.0124646 0)
(0.0483338 0.0580877 0)
(-0.0723143 0.00637947 0)
(-0.00970636 -0.0430176 0)
(0.0459283 0.0141997 0)
(0.0214685 -0.0745094 0)
(0.00281652 -0.0294887 0)
(0.0246113 0.0866956 0)
(0.0149069 -0.108576 0)
(0.0298003 0.0237332 0)
(-0.200755 0.0559676 0)
(0.0801857 0.138122 0)
(-0.0592929 -0.0471355 0)
(-0.0587367 -0.00399181 0)
(-0.0217613 0.0320024 0)
(-0.00829291 0.0179434 0)
(0.0539439 0.012365 0)
(-0.0828063 -0.114202 0)
(-0.139975 -0.0275734 0)
(0.121446 -0.0308952 0)
(0.0203558 0.0575123 0)
(-0.224137 0.0468981 0)
(-0.0737176 -0.113028 0)
(-0.0723683 0.00336808 0)
(0.0824476 -0.0965574 0)
(0.252193 -0.00828074 0)
(-0.0193779 0.0427449 0)
(0.0570004 -0.030863 0)
(0.106877 -0.0158452 0)
(-0.0375129 0.0621439 0)
(-0.0210574 0.0748103 0)
(-0.179726 0.0236068 0)
(0.00323499 -0.0167228 0)
(0.130253 -0.0111624 0)
(-0.133871 -0.0289753 0)
(-0.0861383 -0.0267497 0)
(-0.0180754 0.0874263 0)
(0.109938 0.0153485 0)
(0.0502636 -0.0280834 0)
(0.0194971 -0.0472316 0)
(0.0815538 0.0281696 0)
(0.127458 -0.0596783 0)
(0.0608019 -0.108758 0)
(0.151203 0.00908686 0)
(0.0975075 0.0300112 0)
(-0.0142241 -0.0260435 0)
(0.0100782 0.0424426 0)
(-0.00765581 0.0876075 0)
(-0.0600276 -0.0144828 0)
(-0.0957974 -0.0928136 0)
(0.127997 0.0200332 0)
(-0.00362062 -0.0965438 0)
(0.156043 -0.0670111 0)
(-0.0508175 0.161268 0)
(-0.0659333 0.0844993 0)
(0.0220126 -0.133127 0)
(-0.170863 -0.13948 0)
(0.0719011 0.0493152 0)
(-0.0660883 0.0786527 0)
(0.0345762 -0.00359219 0)
(-0.0734227 -0.109884 0)
(-0.0246344 -0.0295068 0)
(0.0356323 0.0932081 0)
(0.0830061 0.0609978 0)
(-0.114003 0.0463193 0)
(0.12692 0.0434943 0)
(0.0676438 -0.113537 0)
(0.109902 -0.041023 0)
(0.167768 0.0433651 0)
(0.0196037 -0.0229484 0)
(0.101587 -0.0618125 0)
(-0.092682 0.100743 0)
(-0.0382302 0.0612199 0)
(0.0334252 -0.00529309 0)
(0.071206 -0.0539761 0)
(0.0732216 -0.0612277 0)
(0.17362 0.117886 0)
(-0.21588 0.00973436 0)
(0.166774 -0.0644972 0)
(0.16583 0.0218048 0)
(0.126732 0.100163 0)
(0.0992753 -0.0676394 0)
(0.0682439 0.0782087 0)
(0.147896 0.0195568 0)
(0.155189 -0.0548889 0)
(0.0384521 -0.0567825 0)
(0.0577909 -0.0152612 0)
(-0.0244512 0.0738746 0)
(0.000937145 0.0138778 0)
(-0.00722263 0.118567 0)
(0.00524504 0.0110985 0)
(-0.0263717 -0.185444 0)
(0.0923325 -0.0536356 0)
(0.0542614 0.165202 0)
(-0.089681 0.0721674 0)
(0.0170518 -0.074861 0)
(0.0895178 -0.00708538 0)
(-0.0952884 0.0234499 0)
(-0.0226901 -0.215953 0)
(-0.110427 0.0513029 0)
(-0.0775018 0.101086 0)
(0.00688669 0.0300556 0)
(-0.00480493 0.0512291 0)
(0.0655311 -0.134913 0)
(-0.072821 -0.0307444 0)
(-0.128648 0.06965 0)
(-0.0780371 -0.135931 0)
(0.0490199 0.0403175 0)
(0.0752925 0.0427944 0)
(0.0981171 0.0895271 0)
(-0.150474 0.0591196 0)
(-0.0676349 0.0758786 0)
(-0.146943 0.0773661 0)
(0.0965233 0.0343542 0)
(-0.0481055 -0.0958135 0)
(0.0695835 -0.079603 0)
(0.127605 0.1904 0)
(-0.00604271 0.119636 0)
(-0.0833246 -0.222376 0)
(0.0579303 -0.208866 0)
(-0.110401 0.12864 0)
(0.0341717 0.00358326 0)
(0.0447051 -0.0752441 0)
(-0.0637483 -0.0134407 0)
(-0.0745821 -0.109643 0)
(-0.0495091 0.120164 0)
(0.0185837 -0.0279122 0)
(-0.0434341 -0.113348 0)
(-0.0403881 0.11281 0)
(-0.00964783 0.170624 0)
(-0.0079299 0.00485189 0)
(0.0254201 -0.0471157 0)
(0.0273117 0.013158 0)
(-0.0624762 -0.026597 0)
(-0.177238 0.0636697 0)
(0.081524 -0.00263597 0)
(-0.0775705 -0.00285558 0)
(0.0175852 0.0783131 0)
(-0.00440032 -0.0132305 0)
(-0.0618066 -0.175956 0)
(-0.0266652 -0.056567 0)
(0.0232598 0.0853211 0)
(-0.00561519 0.00971274 0)
(-0.11425 -0.194426 0)
(0.054365 0.0273592 0)
(0.0182473 0.184321 0)
(0.0546051 0.000210241 0)
(0.263529 0.0571874 0)
(0.0163733 0.0550611 0)
(0.00503177 -0.111519 0)
(0.00970384 -0.0530605 0)
(-0.00885876 0.0118511 0)
(-0.149405 -0.0986229 0)
(-0.156305 0.0064418 0)
(0.293045 0.0914633 0)
(0.0552837 0.0426196 0)
(-0.122088 -0.0907903 0)
(-0.0124279 -0.103109 0)
(0.0120122 -0.0095947 0)
(-0.0721496 0.047083 0)
(0.0220681 0.0400928 0)
(0.0274151 -0.138866 0)
(-0.0638081 -0.0314127 0)
(0.0408366 0.145393 0)
(0.00645075 0.0626725 0)
(-0.0167567 -0.0103721 0)
(0.118594 -0.0580374 0)
(-0.138958 -0.0144606 0)
(0.0324244 -0.0492517 0)
(0.0532284 0.0250603 0)
(0.0307319 0.00650385 0)
(-0.165314 0.16256 0)
(0.0157651 0.161979 0)
(-0.0337489 -0.178139 0)
(0.0291715 -0.184607 0)
(-0.163531 -0.00784061 0)
(0.0751872 0.112441 0)
(0.0150531 0.0200952 0)
(0.0708389 -0.13557 0)
(0.0448223 0.0821106 0)
(-0.0272821 0.0591974 0)
(0.167325 -0.0297851 0)
(-0.123552 0.131855 0)
(-0.0956423 0.0257592 0)
(0.0597944 -0.183328 0)
(-0.04144 0.0428197 0)
(-0.0561777 0.120745 0)
(0.104223 0.00599567 0)
(0.00165705 0.00215935 0)
(0.00817837 0.0484164 0)
(0.157073 -0.032654 0)
(-0.0467692 -0.137022 0)
(-0.0401407 0.0349879 0)
(0.0269049 0.140249 0)
(-0.0942219 0.0993701 0)
(0.0349777 -0.18649 0)
(0.011012 0.103317 0)
(0.022256 0.182309 0)
(-0.00629316 -0.165483 0)
(0.00342683 0.0338636 0)
(-0.0607743 -0.0408916 0)
(-0.0288255 -0.0885065 0)
(-0.0644926 0.0701617 0)
(0.0399375 -0.062439 0)
(-0.0107602 -0.0827568 0)
(-0.0140039 0.100707 0)
(-0.0336325 -0.0417801 0)
(-0.132893 -0.0315627 0)
(-0.0986486 0.0824907 0)
(0.228858 0.0333653 0)
(-0.0258199 0.144579 0)
(0.00973831 -0.0141694 0)
(0.216776 -0.0512747 0)
(0.0427404 -0.0487148 0)
(-0.0716528 -0.0880176 0)
(-0.023413 -0.108068 0)
(0.0709193 0.0756365 0)
(0.362116 0.108265 0)
(0.233757 -0.0883223 0)
(-0.00680428 0.0174897 0)
(-0.0436347 0.112138 0)
(0.0978273 -0.0192147 0)
(0.00957301 -0.0671869 0)
(0.0554419 -0.109136 0)
(0.0375896 -0.127767 0)
(0.0892559 0.116895 0)
(0.000388912 0.0507718 0)
(-0.120311 -0.0303521 0)
(-0.0722758 0.0279468 0)
(-0.024898 0.102103 0)
(0.0228285 0.0198279 0)
(0.00815552 -0.0889193 0)
(0.00759605 -0.0549198 0)
(-0.000933129 0.0846684 0)
(-0.0739171 0.0783097 0)
(-0.100111 0.0504468 0)
(0.0404553 -0.0418136 0)
(-0.0158668 0.0621367 0)
(-0.039736 -0.0330326 0)
(-0.0393493 -0.11878 0)
(0.0754275 -0.0333065 0)
(0.0148813 0.0619777 0)
(0.00491458 0.0416198 0)
(0.145178 -0.130232 0)
(0.0233345 0.0431249 0)
(-0.00938448 0.0293063 0)
(2.20446e-05 -0.0668504 0)
(0.118251 0.0306773 0)
(0.0351703 0.133978 0)
(-0.020839 -0.0864996 0)
(-0.0848197 0.00730416 0)
(-0.0845441 0.0321416 0)
(-0.071237 -0.0489331 0)
(-0.0350767 -0.0474525 0)
(-0.0596706 -0.0593767 0)
(0.0326547 0.0543104 0)
(0.0284008 0.0226404 0)
(0.0226462 -0.0536688 0)
(-0.0861185 0.0494446 0)
(-0.00498106 -0.00806185 0)
(-0.038933 -0.0951551 0)
(0.060999 -0.0738563 0)
(-0.0583105 0.0488886 0)
(0.0131883 0.0418372 0)
(0.170345 0.0846621 0)
(-0.0597703 0.00981729 0)
(-0.253094 0.0100072 0)
(-0.0403423 -0.037324 0)
(0.02981 -0.126395 0)
(0.0202628 -0.00455369 0)
(-0.0323556 0.0607299 0)
(0.0169402 0.070164 0)
(0.077655 0.105678 0)
(-0.0487882 -0.100971 0)
(0.0366863 -0.0913019 0)
(-0.198167 -0.0423297 0)
(-0.0594613 0.00948695 0)
(0.0181733 0.0344133 0)
(-0.0133604 -0.0697504 0)
(-0.00306229 0.110905 0)
(-0.05091 0.0380989 0)
(-0.0179386 0.051054 0)
(-0.0838956 0.114345 0)
(-0.0686199 0.021042 0)
(0.0243755 -0.258925 0)
(0.0272542 0.0351934 0)
(0.0849497 0.131713 0)
(0.0273949 -0.0697604 0)
(0.00188232 -0.0140394 0)
(-0.000699742 -0.0235329 0)
(-0.0163439 -0.0995668 0)
(0.0363907 0.00577661 0)
(0.01008 -0.0337125 0)
(0.0196221 0.0882501 0)
(0.0188592 0.0787112 0)
(0.148703 -0.0149549 0)
(0.0156395 0.128829 0)
(0.0768241 -0.00407413 0)
(0.0676672 0.0291352 0)
(0.032289 0.0598058 0)
(-0.0810935 -0.0867642 0)
(-0.037295 -0.0528009 0)
(-0.151196 0.0850981 0)
(-0.0188968 -0.0380198 0)
(0.0948304 -0.0735621 0)
(-0.0849684 -0.0355769 0)
(-0.044799 0.0793039 0)
(0.0487663 0.0462914 0)
(-0.056603 0.0469278 0)
(-0.0238871 -0.0854252 0)
(-0.000650747 0.0824034 0)
(0.0744213 -0.0194955 0)
(0.0997004 -0.0431047 0)
(0.0207794 0.151287 0)
(-0.0614433 -0.0109521 0)
(0.0856836 -0.119046 0)
(-0.0100396 -0.082814 0)
(-0.00364972 0.00456119 0)
(0.0795144 0.100247 0)
(-0.0958822 0.0357948 0)
(-0.0281944 0.0444099 0)
(-0.0581719 -0.0681359 0)
(0.159376 -0.132664 0)
(0.00456483 -0.153243 0)
(0.0238921 -0.0114245 0)
(-0.122727 0.0915774 0)
(-0.0374495 0.0841673 0)
(0.0272452 -0.0314571 0)
(-0.190794 0.0931491 0)
(0.0502127 0.0450295 0)
(0.00989068 0.00348789 0)
(0.00216552 0.0310169 0)
(-0.0071827 -0.172755 0)
(-0.0749192 0.0188364 0)
(-0.0282235 -0.0178012 0)
(0.081676 0.0690472 0)
(-0.00775702 -0.042731 0)
(-0.0625038 0.239348 0)
(-0.00814415 0.00505148 0)
(-0.0125319 -0.175995 0)
(-0.00841895 -0.0465509 0)
(0.00313122 0.0942197 0)
(0.0622298 -0.088323 0)
(-0.0715942 -0.0872318 0)
(-0.089419 0.0191066 0)
(0.00642582 0.0590555 0)
(0.0259963 0.0796311 0)
(-0.0176647 -0.051727 0)
(0.046963 -0.00602466 0)
(0.143706 0.00320312 0)
(0.0165421 0.0367092 0)
(0.0608336 -0.0283855 0)
(0.00656961 0.0008872 0)
(0.00383574 -0.0935226 0)
(-0.0606036 -0.0045267 0)
(0.117702 0.0196702 0)
(-0.0665978 0.0568667 0)
(0.06411 -0.0042479 0)
(-0.077908 -0.0517365 0)
(0.0214632 -0.0392817 0)
(-0.0986737 -0.0474601 0)
(0.047345 -0.00414106 0)
(0.0919537 -0.0147115 0)
(-0.0425033 0.0684486 0)
(-0.0412565 0.108461 0)
(0.0105497 -0.00616789 0)
(0.0385156 -0.0771456 0)
(-0.0257575 -0.0676265 0)
(0.0817291 -0.0454599 0)
(0.0443157 0.00102152 0)
(-0.0271317 0.0347262 0)
(0.0530771 0.0812695 0)
(0.0643915 0.0600524 0)
(-0.0940203 -0.0359683 0)
(-0.0868732 0.00173801 0)
(-0.224254 -0.0910587 0)
(0.121896 0.00969953 0)
(0.145297 0.0721176 0)
(-0.0695539 -0.0296361 0)
(0.0463782 0.0897404 0)
(-0.16789 -0.00304543 0)
(-0.194761 0.0673188 0)
(0.0246302 0.108885 0)
(-0.0469276 -0.0837003 0)
(0.109372 -0.0945626 0)
(-0.197604 -0.00866179 0)
(0.0700959 0.0502591 0)
(0.0240948 0.0147048 0)
(0.00130375 -0.00414949 0)
(-0.0191664 0.00657081 0)
(0.0088933 -0.0537162 0)
(0.0676813 -0.052782 0)
(0.0149577 0.0298708 0)
(0.000485026 0.0814547 0)
(0.0169136 -0.0349607 0)
(-0.0344277 0.0608739 0)
(-0.0260326 0.0244663 0)
(0.0578778 -0.0204331 0)
(-0.0717728 -0.0276704 0)
(-0.0415868 -0.0640155 0)
(0.0558869 0.0578423 0)
(-0.039456 0.0263268 0)
(-0.0422237 -0.0220084 0)
(-0.0371185 -0.038409 0)
(-0.0195408 -0.0799456 0)
(-0.013251 0.103951 0)
(-0.0407203 0.000659703 0)
(-0.00851639 -0.118157 0)
(-0.0316025 0.0751479 0)
(0.0367125 -0.0546092 0)
(0.0292497 0.0666078 0)
(-0.128672 0.141595 0)
(0.00778279 0.0458139 0)
(-0.0395672 0.140816 0)
(0.0930989 -0.0574399 0)
(-0.0145533 -0.152517 0)
(0.189873 -0.025579 0)
(0.101587 0.0818165 0)
(-0.103326 0.0299092 0)
(0.00515626 -0.00669637 0)
(0.0445807 -0.145978 0)
(0.00522969 -0.0331579 0)
(0.190622 0.085922 0)
(-0.130741 0.0417666 0)
(-0.252529 -0.0141528 0)
(0.00301167 0.0340487 0)
(0.00490907 0.0566428 0)
(-0.14768 -0.074392 0)
(0.0637696 -0.0146296 0)
(-0.0781133 -0.0461196 0)
(-0.298766 0.0128599 0)
(-0.0695241 0.0833518 0)
(0.0643262 -0.0115812 0)
(-0.0253929 -0.026914 0)
(-0.0547377 0.0177482 0)
(0.115115 -0.075412 0)
(-0.0947341 -0.0253047 0)
(-0.0807156 0.0355626 0)
(0.0803475 0.0988322 0)
(0.0458636 -0.0106867 0)
(-0.0632443 -0.111909 0)
(-0.0578694 -0.00259749 0)
(0.0440676 0.0128284 0)
(-0.0145605 -0.0994337 0)
(0.276913 -0.0655745 0)
(-0.0497634 0.174152 0)
(0.0336767 0.0888086 0)
(-0.0227988 -0.228 0)
(0.179067 -0.0293393 0)
(0.0440996 0.0907147 0)
(0.0243546 0.00596333 0)
(0.0763704 0.0296771 0)
(0.126921 0.0284047 0)
(-0.0560148 -0.116049 0)
(-0.0463693 -0.0528045 0)
(-0.00143303 0.0092028 0)
(-0.0418211 -0.029317 0)
(-0.0246181 0.0906436 0)
(0.0295294 0.04082 0)
(-0.005595 -0.0959599 0)
(-0.1146 -0.0153552 0)
(0.0239748 -0.0320649 0)
(0.141992 0.0519628 0)
(-0.0665894 0.0948586 0)
(-0.0283253 -0.037564 0)
(0.0959097 0.0228672 0)
(-0.144751 -0.0297909 0)
(0.0872061 -0.104859 0)
(-0.0830512 0.0665119 0)
(-0.0290529 -0.0363089 0)
(0.0127647 -0.0261508 0)
(-0.0777086 0.0389734 0)
(0.027276 0.0354104 0)
(-0.0305369 -0.0344693 0)
(0.0235302 -0.0139869 0)
(-0.0389025 -0.0817619 0)
(0.0989987 -0.11054 0)
(0.0138168 0.0646735 0)
(0.0611451 0.103289 0)
(-0.167206 0.0653673 0)
(0.102765 0.03786 0)
(-0.0167645 -0.0731712 0)
(0.138649 -0.0813035 0)
(0.276324 0.0596471 0)
(-0.0570061 0.110802 0)
(-0.0602564 -0.0138624 0)
(-0.0714508 -0.0447413 0)
(0.167275 -0.0158159 0)
(-0.0191101 0.030751 0)
(-0.00177207 -0.0307686 0)
(-0.0699198 0.062138 0)
(-0.155429 -0.0497134 0)
(-0.145571 0.00979328 0)
(-0.0650513 0.00287333 0)
(0.0317852 -0.0527447 0)
(0.10215 0.023062 0)
(-0.0234948 0.0634944 0)
(-0.233014 0.129319 0)
(0.105525 -0.0503994 0)
(0.0714433 -0.0891934 0)
(0.109625 0.00109987 0)
(0.0223489 0.0113618 0)
(-0.0253191 -0.116562 0)
(-0.00722094 0.0775167 0)
(-0.121865 -0.0313696 0)
(-0.0151907 0.0147825 0)
(-0.0431672 -0.0388069 0)
(-0.0346223 -0.121158 0)
(-0.0275911 0.195653 0)
(-0.040176 0.00387351 0)
(0.00120142 0.00257719 0)
(-0.0666063 0.0492592 0)
(0.102705 -0.0458441 0)
(-0.0600768 0.0422701 0)
(0.0714068 0.0390865 0)
(0.14756 -0.0653664 0)
(-0.129653 -0.10738 0)
(0.0599237 0.050712 0)
(-0.127407 0.0650265 0)
(-0.0477451 -0.00558242 0)
(0.0104078 -0.0787671 0)
(-0.0155716 0.0701858 0)
(0.0524672 0.0600958 0)
(-0.000610029 0.0175369 0)
(-0.0408698 -0.0934399 0)
(-0.100221 -0.0282884 0)
(-0.0888649 0.070083 0)
(0.0729368 0.0453387 0)
(-0.088431 -0.0590296 0)
(0.0226411 -0.0086765 0)
(-0.0464738 0.00378883 0)
(-0.00281533 -0.0465904 0)
(-0.00467534 0.0199749 0)
(-0.0223776 0.0151278 0)
(0.0423046 0.0370861 0)
(0.0798618 -0.091303 0)
(-0.047419 0.0338715 0)
(0.000107563 -0.00948296 0)
(-0.218098 0.0681634 0)
(0.211947 0.076459 0)
(-0.0183388 0.0538874 0)
(-0.0427282 -0.182282 0)
(-0.0299779 -0.175849 0)
(0.189185 -0.049862 0)
(0.0470577 0.0344667 0)
(0.012531 0.10088 0)
(-0.00315453 0.123507 0)
(0.0320309 -0.113661 0)
(-0.0704866 -0.0581193 0)
(-0.0985362 0.0562597 0)
(-0.0293489 0.0164206 0)
(-0.102066 -0.0460049 0)
(-0.0871786 -0.00461873 0)
(-0.0419693 0.0884888 0)
(-0.0354059 -0.0394265 0)
(0.0352081 -0.0625992 0)
(-0.0126409 0.00478566 0)
(-0.27126 0.0345046 0)
(0.00519314 0.032234 0)
(0.0643315 0.00123466 0)
(-0.0165074 -0.0676118 0)
(0.0427012 -0.145113 0)
(-0.0820894 0.0337011 0)
(-0.0652918 0.272165 0)
(0.0351808 0.00614468 0)
(-0.00104029 -0.151554 0)
(-0.116116 -0.00947352 0)
(0.0137071 -0.0190853 0)
(-0.0443824 0.0965375 0)
(0.0467176 -0.0343211 0)
(-0.0451379 0.104309 0)
(-0.133772 0.0241869 0)
(-0.108577 -0.113607 0)
(-0.137723 -0.0337448 0)
(-0.0657165 -0.0461925 0)
(-0.119706 -0.0205275 0)
(-0.0447725 -0.112724 0)
(0.00407077 0.0221371 0)
(-0.0203314 0.0526087 0)
(-0.0533775 0.0489199 0)
(-0.117486 0.0637042 0)
(0.0419675 -0.03173 0)
(-0.0265927 -0.0983153 0)
(-0.255644 0.0665888 0)
(0.242407 0.0531532 0)
(0.0673966 -0.0115784 0)
(0.103948 -0.0485495 0)
(0.0408458 -0.0225555 0)
(0.000640147 0.0201645 0)
(-0.00540928 -0.0119111 0)
(0.000672547 0.0413824 0)
(0.00363899 0.0099334 0)
(-0.0386313 -0.02819 0)
(-0.0401616 -0.0103073 0)
(-0.0601434 -0.0676145 0)
(-0.00988364 -0.00334796 0)
(-0.0140219 -0.0126876 0)
(0.110797 0.0896674 0)
(0.0773963 -0.068944 0)
(0.105413 0.0298729 0)
(-0.0580157 0.0341753 0)
(-0.0702587 0.108239 0)
(-0.0784547 0.00956248 0)
(0.00254962 -0.0580394 0)
(0.10542 0.03811 0)
(0.106226 -0.135954 0)
(0.0332337 -0.0508807 0)
(-0.150691 -0.133929 0)
(0.231039 0.103588 0)
(-0.0222062 0.212981 0)
(-0.0991038 0.0128912 0)
(0.0281778 0.0245936 0)
(0.0610858 0.0886663 0)
(-0.177975 -0.154438 0)
(-0.0500245 -0.174652 0)
(0.0337585 -0.0431329 0)
(0.0552027 0.0940383 0)
(-0.0636678 0.164996 0)
(0.0507086 0.0775448 0)
(-0.129376 -0.071761 0)
(-0.0780269 -0.0733978 0)
(-0.0508536 -0.0490213 0)
(0.100571 0.000580565 0)
(0.274998 0.0166473 0)
(-0.137507 0.138077 0)
(-0.051208 0.00845318 0)
(-0.0196811 -0.083279 0)
(0.0312793 0.0267026 0)
(0.0633782 -0.0277949 0)
(0.0483605 -0.0748267 0)
(0.0316963 -0.0773528 0)
(-0.0457632 -0.00819092 0)
(-0.105364 0.199212 0)
(0.0380558 -0.0364874 0)
(0.0232544 -0.177963 0)
(-0.101133 -0.0546429 0)
(-0.082213 0.128106 0)
(-0.0349488 0.238202 0)
(0.0788986 -0.0445606 0)
(0.0318529 -0.184135 0)
(0.178256 0.0574186 0)
(0.0457527 -0.0272828 0)
(-0.0723574 -0.0976208 0)
(-0.0440347 -0.062762 0)
(-0.152723 0.0360319 0)
(0.144797 0.0912415 0)
(0.114125 0.114813 0)
(-0.0665248 -0.0799894 0)
(-0.162098 -0.0492938 0)
(0.128433 0.0546083 0)
(-0.0367631 -0.136132 0)
(0.0777495 0.0365085 0)
(0.0134893 -0.0936925 0)
(-0.0384606 -0.0630959 0)
(0.0409213 0.0781018 0)
(0.143589 0.0707833 0)
(0.046321 0.0706772 0)
(-0.0738083 0.0279739 0)
(-0.0882826 -0.0665519 0)
(-0.0370964 -0.120337 0)
(0.000465254 -0.0352798 0)
(-0.15496 0.0679497 0)
(-0.200875 -0.0439305 0)
(-0.037397 0.10511 0)
(0.0483799 0.0606763 0)
(-0.0975498 -0.0153695 0)
(-0.0289212 -0.0175734 0)
(-0.0272677 -0.0658278 0)
(-0.0474015 -0.0271889 0)
(-0.0204157 0.0692972 0)
(-0.0122014 0.0474162 0)
(-0.0129868 -0.00609056 0)
(-0.0355708 0.0197251 0)
(-0.163933 0.0162819 0)
(0.194563 -0.0929865 0)
(0.0397582 -0.0545512 0)
(-0.0719106 -0.0702544 0)
(-0.016283 -0.0255681 0)
(0.0489517 0.0193265 0)
(-0.00537734 0.102329 0)
(0.000213742 0.0320555 0)
(0.0605461 -0.00471429 0)
(0.0687021 -0.0647266 0)
(0.100537 0.00667051 0)
(0.0640459 0.0452186 0)
(0.000660186 -0.0247052 0)
(-0.0310902 -0.0531876 0)
(-0.0324348 -0.0390127 0)
(-0.0047661 -0.0121483 0)
(0.0825568 0.00864156 0)
(0.0147786 -0.00183288 0)
(0.00427681 0.0332892 0)
(-0.0348692 0.0284984 0)
(0.00729971 0.00502166 0)
(-0.0200831 -0.0665719 0)
(0.149317 -0.0584357 0)
(-0.121434 0.0232587 0)
(0.0283104 0.121857 0)
(0.014425 0.0580126 0)
(-0.0276407 -0.0586068 0)
(-0.00931214 -0.0344979 0)
(0.0920804 0.165027 0)
(0.0359697 -0.014645 0)
(-0.0541954 -0.103921 0)
(0.0311675 -0.0498348 0)
(0.123412 0.0360325 0)
(-0.0432937 0.0259287 0)
(-0.00941194 -0.253137 0)
(-0.0727253 -0.106443 0)
(-0.121986 0.35198 0)
(-0.0423198 0.122685 0)
(-0.0137529 0.0193071 0)
(-0.0526539 -0.0267006 0)
(-0.0419299 -0.187117 0)
(-0.205386 -0.122044 0)
(-0.212621 0.0427551 0)
(-0.0914175 0.140845 0)
(-0.0679772 0.0514144 0)
(-0.0312751 0.123625 0)
(0.0240577 -0.0522545 0)
(0.0779679 0.0155957 0)
(0.0912912 -0.100661 0)
(0.0439486 -0.0955529 0)
(0.0983504 0.14888 0)
(-0.0354012 0.203864 0)
(0.0160175 -0.0972181 0)
(-0.00265903 -0.134338 0)
(-0.0188292 -0.0647524 0)
(0.0442371 -0.0241177 0)
(-0.087742 -0.0432737 0)
(0.0443093 0.00207888 0)
(-0.0019766 0.0424796 0)
(-0.02448 0.155286 0)
(-0.0624197 0.0564939 0)
(-0.00639244 -0.0589697 0)
(0.106858 -0.0461686 0)
(-0.003243 0.115033 0)
(0.0579366 -0.0239866 0)
(-0.000564223 -0.198989 0)
(0.160523 0.0567523 0)
(0.0977689 0.0833535 0)
(0.0655128 0.058327 0)
(-0.0400639 -0.0107906 0)
(0.00852324 -0.126014 0)
(-0.0762555 -0.0607246 0)
(-0.0243089 0.132897 0)
(0.0535809 0.0512422 0)
(0.00695143 -0.086749 0)
(0.0265369 -0.0795472 0)
(0.0263301 0.0439676 0)
(0.0351429 -0.017844 0)
(0.0273505 -0.0936591 0)
(0.0819255 0.0472169 0)
(0.0289279 -0.0634928 0)
(-0.0947187 0.0784084 0)
(-0.0584926 0.0455751 0)
(0.0323351 0.0974872 0)
(-0.0665512 0.110477 0)
(0.0980833 -0.066113 0)
(-0.0658255 -0.103105 0)
(-0.180527 -0.0579348 0)
(-0.0491064 0.0128507 0)
(-0.0135656 0.0636815 0)
(0.0380361 0.0408627 0)
(0.00759458 0.0371969 0)
(0.0597392 -0.061233 0)
(0.108229 -0.11397 0)
(0.116053 -0.00855205 0)
(-0.0758421 0.032692 0)
(0.110784 0.0203565 0)
(0.00076994 -0.00740735 0)
(0.0689954 0.05519 0)
(-0.0177544 0.0749453 0)
(0.0761593 -0.0906009 0)
(-0.123634 -0.0891353 0)
(0.08939 -0.0324149 0)
(-0.0410011 0.0182112 0)
(0.00919653 -0.121637 0)
(0.052751 0.036655 0)
(-0.0472279 0.122342 0)
(0.0159392 0.0329544 0)
(0.0475556 -0.11138 0)
(-0.0901199 -0.061582 0)
(-0.0422725 0.0195609 0)
(0.160492 0.0449688 0)
(0.00334164 0.0716172 0)
(0.0179532 -0.0863374 0)
(-0.0726141 -0.059257 0)
(0.000932566 -0.0443213 0)
(-0.00348338 -0.0148661 0)
(0.00211253 0.0901229 0)
(-0.00120181 0.00484118 0)
(0.000718011 -0.0382167 0)
(0.0148394 -0.0934629 0)
(-0.000707417 -0.0401935 0)
(0.00176465 -0.0111305 0)
(-0.000359293 0.111123 0)
(0.000984617 0.0707887 0)
(-0.00593845 0.147869 0)
(-0.0249161 0.104671 0)
(-0.0409642 -0.25012 0)
(0.118865 -0.0544301 0)
(0.0373258 0.138619 0)
(-0.00608753 -0.103639 0)
(0.019507 -0.00219122 0)
(0.0375888 0.0490523 0)
(-0.0170019 -0.0730014 0)
(0.137782 0.00633885 0)
(-0.192718 -0.0598235 0)
(-0.0257335 0.189274 0)
(-0.234427 0.0611615 0)
(-0.0730877 0.0754358 0)
(0.105112 -0.0859942 0)
(-0.321431 -0.170085 0)
(0.0125074 -0.106671 0)
(0.00629001 0.256697 0)
(-0.00529862 0.0672963 0)
(-0.0808972 -0.0436505 0)
(-0.0125401 0.0167948 0)
(0.021821 -0.0743017 0)
(0.0238906 -0.0362769 0)
(0.0193509 -0.116478 0)
(-0.134758 0.0346483 0)
(0.108814 0.20104 0)
(-0.0716707 -0.000251004 0)
(0.223321 -0.161482 0)
(-0.0154073 -0.105504 0)
(-0.0485924 -0.00743129 0)
(0.0330296 0.00673239 0)
(0.111546 0.0446428 0)
(0.0665796 -0.0503896 0)
(0.0214224 0.0354682 0)
(-0.0476232 0.219932 0)
(-0.0277079 0.0622756 0)
(0.000598958 -0.128456 0)
(-0.112612 -0.0661721 0)
(-0.0444605 0.112365 0)
(0.0429729 0.0042538 0)
(0.0668591 -0.126428 0)
(-0.00456322 -0.00650847 0)
(-0.00143868 0.0546616 0)
(0.0180218 0.113591 0)
(-0.000657508 0.0489786 0)
(-0.0218803 -0.102443 0)
(-0.0112346 -0.125934 0)
(-0.0135634 0.149354 0)
(0.191846 0.0843061 0)
(-0.0416817 -0.0794221 0)
(0.00813898 -0.146713 0)
(0.0601479 0.0726242 0)
(-0.0292838 0.0455094 0)
(-0.0111139 -0.130375 0)
(0.00409223 0.00649326 0)
(0.0383829 0.121498 0)
(0.0832926 -0.102278 0)
(-0.0266881 0.0837968 0)
(-0.0673901 0.0828429 0)
(0.0299541 -0.0412039 0)
(-0.0480628 -0.019274 0)
(0.086283 -0.0579435 0)
(-0.00199552 -0.0434333 0)
(-0.120967 0.0658166 0)
(0.0413636 -0.0314969 0)
(0.107444 0.0209748 0)
(0.111362 0.0992717 0)
(-0.0468039 -0.0417731 0)
(-0.079917 -0.22484 0)
(-0.0662471 0.113644 0)
(-0.168481 0.0221776 0)
(0.0050335 -0.0705681 0)
(-0.0123437 0.140204 0)
(-0.0213232 0.0814852 0)
(0.0347099 -0.00281604 0)
(0.0100357 -0.0294485 0)
(0.000751262 0.0315624 0)
(0.0307681 -0.0882127 0)
(0.0422539 0.00303378 0)
(0.0337486 -0.156466 0)
(-0.0123799 -0.0133927 0)
(0.0236142 -0.00355851 0)
(0.0382869 0.0365445 0)
(0.0359654 0.0543943 0)
(-0.12768 -0.0780139 0)
(-0.0630678 -0.00520046 0)
(-0.0165819 0.0282107 0)
(0.0420755 0.0909736 0)
(-0.00503426 -0.00582498 0)
(0.0412487 -0.023009 0)
(0.0030014 -0.0523302 0)
(-0.00290607 0.00387434 0)
(0.00583537 0.0872596 0)
(-0.0111812 0.0187403 0)
(0.000825139 -0.0648344 0)
(0.00137297 -0.148289 0)
(-0.0163471 -0.0741156 0)
(-0.0124111 0.0134027 0)
(0.00101293 0.0386853 0)
(0.0118318 0.259392 0)
(0.00632211 0.10101 0)
(-0.0149036 -0.191272 0)
(-0.00678042 -0.0856118 0)
(0.0500066 -0.0328086 0)
(0.0115751 0.182424 0)
(0.0741535 -0.101368 0)
(-0.0183656 -0.0769478 0)
(0.00454291 0.0792396 0)
(0.119027 0.0231138 0)
(-0.0188952 -0.115386 0)
(-0.0764131 0.0189752 0)
(-0.105484 0.32098 0)
(0.0218252 0.138841 0)
(0.00720925 -0.224149 0)
(0.0192419 0.0821514 0)
(-0.00159539 -0.0871577 0)
(0.00495739 -0.148803 0)
(-0.10161 -0.035372 0)
(0.284473 0.115808 0)
(0.0579427 0.177 0)
(0.0977391 0.0523687 0)
(-0.0143699 -0.0335109 0)
(-0.14616 -0.150886 0)
(-0.0985619 -0.099286 0)
(-0.0901533 -0.00538784 0)
(0.0652908 0.166658 0)
(0.00530505 0.034395 0)
(-0.0802255 -0.0970054 0)
(0.00393727 -0.0838726 0)
(-0.100214 -0.0322626 0)
(-0.000387635 -0.0618955 0)
(-0.0342965 0.0272272 0)
(-0.00987698 0.0601239 0)
(-0.0474962 -0.00453645 0)
(-0.0722738 0.100348 0)
(-0.00428247 0.0722155 0)
(-0.0844337 -0.0491072 0)
(0.0585744 -0.01048 0)
(-0.0248653 0.0325077 0)
(0.0190941 -0.0362957 0)
(0.0149542 -0.174528 0)
(-0.0612137 -0.0124759 0)
(-0.0134845 0.0703596 0)
(-0.0460787 0.0483795 0)
(-0.0274221 0.0134397 0)
(0.043723 -0.0308574 0)
(0.0229332 -0.119682 0)
(-0.00433271 -0.0538112 0)
(-0.0544368 0.144489 0)
(-0.00460985 -0.0409438 0)
(-0.00361755 -0.130547 0)
(0.0249678 0.0566428 0)
(0.0963564 0.0430745 0)
(-0.068079 -0.0221353 0)
(-0.0370792 -0.101838 0)
(0.0387622 0.0684791 0)
(0.0937269 0.0664092 0)
(0.0743195 0.0942361 0)
(-0.106404 0.0592602 0)
(-0.0876672 -0.0976199 0)
(-0.0265388 0.0809643 0)
(-0.267298 -0.0889694 0)
(0.0509297 -0.105716 0)
(0.20435 0.056474 0)
(0.0740121 0.073839 0)
(-0.0783759 0.00607685 0)
(0.0149472 0.0197425 0)
(0.0551538 -0.0702799 0)
(-0.0733204 -0.0364011 0)
(0.122757 0.00418594 0)
(-0.0199573 -0.0914986 0)
(-0.156838 0.0253023 0)