/*--------------------------------*- C++ -*----------------------------------*\
| =========                 |                                                 |
| \\      /  F ield         | OpenFOAM: The Open Source CFD Toolbox           |
|  \\    /   O peration     | Version:  v2012                                 |
|   \\  /    A nd           | Website:  www.openfoam.com                      |
|    \\/     M anipulation  |                                                 |
\*---------------------------------------------------------------------------*/
FoamFile
{
    version     2.0;
    format      ascii;
    class       surfaceScalarField;
    location    "3";
    object      phi;
}
// * * * * * * * * * * * * * * * * * * * * * * * * * * * * * * * * * * * * * //

dimensions      [0 3 -1 0 0 0 0];
oriented        oriented;


internalField   nonuniform List<scalar> 
130560
(
3.52695e-06
-3.52695e-06
7.05368e-06
-3.52674e-06
1.058e-05
-3.52632e-06
1.41057e-05
-3.52569e-06
1.76305e-05
-3.52484e-06
2.11543e-05
-3.52379e-06
2.46768e-05
-3.52251e-06
2.81978e-05
-3.52101e-06
3.17171e-05
-3.51929e-06
3.52345e-05
-3.51734e-06
3.87496e-05
-3.51516e-06
4.22624e-05
-3.51273e-06
4.57724e-05
-3.51006e-06
4.92796e-05
-3.50714e-06
5.27835e-05
-3.50396e-06
5.6284e-05
-3.50051e-06
5.97808e-05
-3.49678e-06
6.32736e-05
-3.49278e-06
6.67621e-05
-3.48848e-06
7.0246e-05
-3.48388e-06
7.37249e-05
-3.47896e-06
7.71987e-05
-3.47373e-06
8.06668e-05
-3.46816e-06
8.41291e-05
-3.46225e-06
8.75851e-05
-3.45599e-06
9.10344e-05
-3.44936e-06
9.44768e-05
-3.44235e-06
9.79117e-05
-3.43495e-06
0.000101339
-3.42714e-06
0.000104758
-3.41892e-06
0.000108168
-3.41027e-06
0.000111569
-3.40117e-06
0.000114961
-3.39162e-06
0.000118342
-3.3816e-06
0.000121714
-3.37109e-06
0.000125074
-3.36008e-06
0.000128422
-3.34856e-06
0.000131759
-3.33651e-06
0.000135083
-3.32392e-06
0.000138393
-3.31077e-06
0.00014169
-3.29705e-06
0.000144973
-3.28275e-06
0.000148241
-3.26784e-06
0.000151493
-3.25233e-06
0.00015473
-3.23619e-06
0.000157949
-3.2194e-06
0.000161151
-3.20197e-06
0.000164335
-3.18386e-06
0.0001675
-3.16508e-06
0.000170645
-3.1456e-06
0.000173771
-3.12542e-06
0.000176875
-3.10453e-06
0.000179958
-3.08291e-06
0.000183019
-3.06055e-06
0.000186056
-3.03744e-06
0.00018907
-3.01357e-06
0.000192059
-2.98894e-06
0.000195022
-2.96353e-06
0.00019796
-2.93735e-06
0.00020087
-2.91037e-06
0.000203753
-2.8826e-06
0.000206607
-2.85402e-06
0.000209431
-2.82464e-06
0.000212226
-2.79446e-06
0.000214989
-2.76346e-06
0.000217721
-2.73164e-06
0.00022042
-2.69902e-06
0.000223085
-2.66557e-06
0.000225717
-2.63132e-06
0.000228313
-2.59625e-06
0.000230873
-2.56037e-06
0.000233397
-2.52369e-06
0.000235883
-2.4862e-06
0.000238331
-2.44792e-06
0.00024074
-2.40885e-06
0.000243109
-2.369e-06
0.000245437
-2.32838e-06
0.000247724
-2.287e-06
0.000249969
-2.24487e-06
0.000252171
-2.202e-06
0.00025433
-2.1584e-06
0.000256444
-2.11409e-06
0.000258513
-2.06909e-06
0.000260536
-2.0234e-06
0.000262513
-1.97705e-06
0.000264443
-1.93006e-06
0.000266326
-1.88243e-06
0.00026816
-1.8342e-06
0.000269945
-1.78538e-06
0.000271681
-1.73599e-06
0.000273367
-1.68605e-06
0.000275003
-1.6356e-06
0.000276588
-1.58464e-06
0.000278121
-1.5332e-06
0.000279602
-1.48131e-06
0.000281031
-1.429e-06
0.000282407
-1.37628e-06
0.000283731
-1.32318e-06
0.000285
-1.26973e-06
0.000286216
-1.21596e-06
0.000287378
-1.16189e-06
0.000288486
-1.10754e-06
0.000289539
-1.05295e-06
0.000290537
-9.98142e-07
0.00029148
-9.43141e-07
0.000292368
-8.87975e-07
0.000293201
-8.32671e-07
0.000293978
-7.77255e-07
0.0002947
-7.21755e-07
0.000295366
-6.66196e-07
0.000295976
-6.10605e-07
0.000296531
-5.55008e-07
0.000297031
-4.9943e-07
0.000297475
-4.43896e-07
0.000297863
-3.88432e-07
0.000298196
-3.3306e-07
0.000298474
-2.77806e-07
0.000298697
-2.22692e-07
0.000298865
-1.67741e-07
0.000298977
-1.12975e-07
0.000299036
-5.8416e-08
0.00029904
-4.08483e-09
0.00029899
4.99983e-08
0.000298886
1.03814e-07
0.000298729
1.57342e-07
0.000298518
2.10566e-07
0.000298255
2.63467e-07
0.000297939
3.16028e-07
0.000297571
3.68233e-07
0.00029715
4.20067e-07
0.000296679
4.71515e-07
0.000296156
5.22563e-07
0.000295583
5.73196e-07
0.00029496
6.23403e-07
0.000294287
6.73171e-07
0.000293564
7.22489e-07
0.000292793
7.71346e-07
0.000291973
8.19732e-07
0.000291105
8.67637e-07
0.00029019
9.15053e-07
0.000289228
9.61971e-07
0.00028822
1.00838e-06
0.000287166
1.05428e-06
0.000286066
1.09967e-06
0.000284922
1.14452e-06
0.000283733
1.18885e-06
0.0002825
1.23264e-06
0.000281224
1.27588e-06
0.000279906
1.31859e-06
0.000278545
1.36074e-06
0.000277143
1.40235e-06
0.000275699
1.4434e-06
0.000274215
1.48389e-06
0.000272691
1.52382e-06
0.000271128
1.56319e-06
0.000269526
1.602e-06
0.000267886
1.64025e-06
0.000266208
1.67793e-06
0.000264493
1.71504e-06
0.000262741
1.75159e-06
0.000260954
1.78757e-06
0.000259131
1.82299e-06
0.000257273
1.85784e-06
0.000255381
1.89212e-06
0.000253455
1.92584e-06
0.000251496
1.959e-06
0.000249504
1.99159e-06
0.000247481
2.02362e-06
0.000245426
2.0551e-06
0.00024334
2.08601e-06
0.000241223
2.11636e-06
0.000239077
2.14617e-06
0.000236902
2.17541e-06
0.000234698
2.20411e-06
0.000232465
2.23226e-06
0.000230206
2.25987e-06
0.000227919
2.28693e-06
0.000225605
2.31345e-06
0.000223266
2.33943e-06
0.000220901
2.36488e-06
0.000218511
2.3898e-06
0.000216097
2.41418e-06
0.000213659
2.43805e-06
0.000211197
2.46139e-06
0.000208713
2.48422e-06
0.000206207
2.50654e-06
0.000203678
2.52834e-06
0.000201129
2.54964e-06
0.000198558
2.57044e-06
0.000195967
2.59075e-06
0.000193357
2.61056e-06
0.000190727
2.62988e-06
0.000188078
2.64873e-06
0.000185411
2.66709e-06
0.000182726
2.68499e-06
0.000180024
2.70241e-06
0.000177304
2.71938e-06
0.000174569
2.73589e-06
0.000171817
2.75195e-06
0.000169049
2.76757e-06
0.000166266
2.78275e-06
0.000163469
2.79749e-06
0.000160657
2.81181e-06
0.000157831
2.82571e-06
0.000154992
2.83919e-06
0.00015214
2.85226e-06
0.000149275
2.86494e-06
0.000146398
2.87721e-06
0.000143509
2.8891e-06
0.000140608
2.90061e-06
0.000137696
2.91174e-06
0.000134774
2.9225e-06
0.000131841
2.9329e-06
0.000128898
2.94295e-06
0.000125945
2.95264e-06
0.000122983
2.962e-06
0.000120012
2.97101e-06
0.000117033
2.9797e-06
0.000114044
2.98807e-06
0.000111048
2.99612e-06
0.000108044
3.00386e-06
0.000105033
3.0113e-06
0.000102015
3.01845e-06
9.89894e-05
3.0253e-06
9.59575e-05
3.03187e-06
9.29194e-05
3.03817e-06
8.98752e-05
3.04419e-06
8.68252e-05
3.04995e-06
8.37698e-05
3.05546e-06
8.07091e-05
3.06071e-06
7.76434e-05
3.06571e-06
7.45729e-05
3.07047e-06
7.14979e-05
3.07499e-06
6.84186e-05
3.07929e-06
6.53352e-05
3.08336e-06
6.2248e-05
3.0872e-06
5.91572e-05
3.09084e-06
5.6063e-05
3.09426e-06
5.29655e-05
3.09747e-06
4.9865e-05
3.10048e-06
4.67617e-05
3.1033e-06
4.36558e-05
3.10591e-06
4.05474e-05
3.10834e-06
3.74369e-05
3.11058e-06
3.43242e-05
3.11263e-06
3.12097e-05
3.11451e-06
2.80935e-05
3.1162e-06
2.49758e-05
3.11772e-06
2.18567e-05
3.11906e-06
1.87365e-05
3.12023e-06
1.56153e-05
3.12123e-06
1.24932e-05
3.12206e-06
9.37049e-06
3.12273e-06
6.24727e-06
3.12322e-06
3.12372e-06
3.12355e-06
3.12372e-06
3.52715e-06
-7.0541e-06
7.0541e-06
-7.05368e-06
1.05806e-05
-7.05284e-06
1.41065e-05
-7.05159e-06
1.76316e-05
-7.0499e-06
2.11556e-05
-7.04779e-06
2.46783e-05
-7.04524e-06
2.81996e-05
-7.04225e-06
3.17191e-05
-7.03881e-06
3.52367e-05
-7.03492e-06
3.8752e-05
-7.03055e-06
4.2265e-05
-7.02571e-06
4.57753e-05
-7.02038e-06
4.92827e-05
-7.01454e-06
5.2787e-05
-7.00818e-06
5.62877e-05
-7.00129e-06
5.97848e-05
-6.99385e-06
6.32779e-05
-6.98585e-06
6.67667e-05
-6.97726e-06
7.02508e-05
-6.96806e-06
7.37301e-05
-6.95825e-06
7.72042e-05
-6.94779e-06
8.06727e-05
-6.93667e-06
8.41353e-05
-6.92486e-06
8.75917e-05
-6.91234e-06
9.10414e-05
-6.89909e-06
9.44841e-05
-6.88509e-06
9.79195e-05
-6.8703e-06
0.000101347
-6.8547e-06
0.000104766
-6.83827e-06
0.000108177
-6.82098e-06
0.000111579
-6.8028e-06
0.000114971
-6.78371e-06
0.000118353
-6.76368e-06
0.000121724
-6.74267e-06
0.000125085
-6.72067e-06
0.000128434
-6.69764e-06
0.000131771
-6.67356e-06
0.000135096
-6.64839e-06
0.000138407
-6.62211e-06
0.000141705
-6.59468e-06
0.000144988
-6.56609e-06
0.000148256
-6.5363e-06
0.000151509
-6.50528e-06
0.000154746
-6.47301e-06
0.000157966
-6.43946e-06
0.000161169
-6.4046e-06
0.000164353
-6.3684e-06
0.000167519
-6.33085e-06
0.000170666
-6.29191e-06
0.000173792
-6.25156e-06
0.000176897
-6.20978e-06
0.000179981
-6.16655e-06
0.000183042
-6.12184e-06
0.00018608
-6.07563e-06
0.000189094
-6.02791e-06
0.000192084
-5.97865e-06
0.000195048
-5.92785e-06
0.000197987
-5.87548e-06
0.000200898
-5.82153e-06
0.000203781
-5.76599e-06
0.000206636
-5.70885e-06
0.000209461
-5.6501e-06
0.000212257
-5.58972e-06
0.000215021
-5.52773e-06
0.000217753
-5.4641e-06
0.000220453
-5.39885e-06
0.00022312
-5.33196e-06
0.000225752
-5.26345e-06
0.000228349
-5.1933e-06
0.00023091
-5.12154e-06
0.000233434
-5.04817e-06
0.000235921
-4.97319e-06
0.00023837
-4.89663e-06
0.00024078
-4.81848e-06
0.00024315
-4.73878e-06
0.000245479
-4.65753e-06
0.000247766
-4.57475e-06
0.000250012
-4.49048e-06
0.000252215
-4.40472e-06
0.000254374
-4.31751e-06
0.000256489
-4.22888e-06
0.000258558
-4.13886e-06
0.000260583
-4.04747e-06
0.00026256
-3.95475e-06
0.000264491
-3.86074e-06
0.000266374
-3.76547e-06
0.000268209
-3.66899e-06
0.000269995
-3.57132e-06
0.000271731
-3.47252e-06
0.000273418
-3.37263e-06
0.000275054
-3.27169e-06
0.000276639
-3.16975e-06
0.000278173
-3.06686e-06
0.000279654
-2.96306e-06
0.000281084
-2.8584e-06
0.00028246
-2.75294e-06
0.000283784
-2.64672e-06
0.000285054
-2.53979e-06
0.00028627
-2.43222e-06
0.000287432
-2.32405e-06
0.00028854
-2.21533e-06
0.000289593
-2.10612e-06
0.000290592
-1.99648e-06
0.000291535
-1.88645e-06
0.000292423
-1.77609e-06
0.000293256
-1.66545e-06
0.000294033
-1.5546e-06
0.000294755
-1.44357e-06
0.000295421
-1.33243e-06
0.000296032
-1.22122e-06
0.000296587
-1.11e-06
0.000297086
-9.98817e-07
0.00029753
-8.87725e-07
0.000297919
-7.76771e-07
0.000298251
-6.66005e-07
0.000298529
-5.55473e-07
0.000298752
-4.45222e-07
0.000298919
-3.35298e-07
0.000299032
-2.25745e-07
0.00029909
-1.16606e-07
0.000299094
-7.92321e-09
0.000299044
1.00263e-07
0.00029894
2.07912e-07
0.000298782
3.14988e-07
0.000298571
4.21453e-07
0.000298307
5.27272e-07
0.000297991
6.3241e-07
0.000297622
7.36837e-07
0.000297202
8.40519e-07
0.00029673
9.43429e-07
0.000296207
1.04554e-06
0.000295633
1.14682e-06
0.00029501
1.24724e-06
0.000294336
1.34679e-06
0.000293613
1.44544e-06
0.000292841
1.54316e-06
0.000292021
1.63994e-06
0.000291153
1.73576e-06
0.000290237
1.8306e-06
0.000289275
1.92445e-06
0.000288266
2.01728e-06
0.000287211
2.10909e-06
0.000286111
2.19985e-06
0.000284966
2.28957e-06
0.000283776
2.37823e-06
0.000282543
2.46581e-06
0.000281267
2.55231e-06
0.000279948
2.63772e-06
0.000278586
2.72204e-06
0.000277184
2.80525e-06
0.00027574
2.88735e-06
0.000274255
2.96834e-06
0.000272731
3.04821e-06
0.000271167
3.12695e-06
0.000269564
3.20457e-06
0.000267924
3.28106e-06
0.000266245
3.35642e-06
0.00026453
3.43065e-06
0.000262777
3.50375e-06
0.000260989
3.57571e-06
0.000259166
3.64654e-06
0.000257307
3.71624e-06
0.000255415
3.78481e-06
0.000253488
3.85225e-06
0.000251529
3.91856e-06
0.000249536
3.98374e-06
0.000247512
4.04781e-06
0.000245457
4.11075e-06
0.00024337
4.17257e-06
0.000241253
4.23328e-06
0.000239106
4.29288e-06
0.00023693
4.35138e-06
0.000234726
4.40877e-06
0.000232493
4.46507e-06
0.000230233
4.52027e-06
0.000227945
4.57439e-06
0.000225631
4.62743e-06
0.000223291
4.67939e-06
0.000220926
4.73029e-06
0.000218535
4.78012e-06
0.000216121
4.82889e-06
0.000213682
4.87662e-06
0.00021122
4.9233e-06
0.000208736
4.96896e-06
0.000206228
5.01358e-06
0.0002037
5.05719e-06
0.00020115
5.09978e-06
0.000198579
5.14138e-06
0.000195987
5.18198e-06
0.000193376
5.2216e-06
0.000190746
5.26025e-06
0.000188097
5.29793e-06
0.000185429
5.33466e-06
0.000182744
5.37044e-06
0.000180041
5.40529e-06
0.000177321
5.43922e-06
0.000174585
5.47223e-06
0.000171832
5.50435e-06
0.000169064
5.53557e-06
0.000166281
5.56592e-06
0.000163483
5.59541e-06
0.000160671
5.62404e-06
0.000157845
5.65183e-06
0.000155005
5.67878e-06
0.000152153
5.70493e-06
0.000149287
5.73027e-06
0.00014641
5.75482e-06
0.00014352
5.77859e-06
0.000140619
5.8016e-06
0.000137707
5.82385e-06
0.000134784
5.84537e-06
0.000131851
5.86616e-06
0.000128908
5.88624e-06
0.000125955
5.90563e-06
0.000122992
5.92433e-06
0.000120021
5.94236e-06
0.000117041
5.95973e-06
0.000114053
5.97645e-06
0.000111056
5.99255e-06
0.000108052
6.00803e-06
0.00010504
6.0229e-06
0.000102022
6.03718e-06
9.8996e-05
6.05089e-06
9.59639e-05
6.06403e-06
9.29254e-05
6.07661e-06
8.9881e-05
6.08865e-06
8.68308e-05
6.10017e-06
8.3775e-05
6.11117e-06
8.07141e-05
6.12166e-06
7.76481e-05
6.13166e-06
7.45774e-05
6.14117e-06
7.15022e-05
6.15022e-06
6.84227e-05
6.1588e-06
6.53391e-05
6.16693e-06
6.22517e-05
6.17462e-06
5.91606e-05
6.18188e-06
5.60662e-05
6.18872e-06
5.29685e-05
6.19515e-06
4.98678e-05
6.20116e-06
4.67643e-05
6.20679e-06
4.36582e-05
6.21202e-06
4.05497e-05
6.21687e-06
3.74389e-05
6.22134e-06
3.43261e-05
6.22545e-06
3.12114e-05
6.22919e-06
2.80951e-05
6.23258e-06
2.49772e-05
6.23561e-06
2.18579e-05
6.2383e-06
1.87375e-05
6.24064e-06
1.56161e-05
6.24263e-06
1.24939e-05
6.2443e-06
9.37099e-06
6.24562e-06
6.2476e-06
6.24661e-06
3.12388e-06
6.24727e-06
6.2476e-06
3.52757e-06
-1.05817e-05
7.05494e-06
-1.0581e-05
1.05819e-05
-1.05798e-05
1.41082e-05
-1.05779e-05
1.76337e-05
-1.05754e-05
2.11581e-05
-1.05722e-05
2.46813e-05
-1.05684e-05
2.8203e-05
-1.05639e-05
3.1723e-05
-1.05588e-05
3.5241e-05
-1.0553e-05
3.87569e-05
-1.05464e-05
4.22704e-05
-1.05392e-05
4.57812e-05
-1.05312e-05
4.92891e-05
-1.05225e-05
5.27939e-05
-1.05129e-05
5.62952e-05
-1.05026e-05
5.97928e-05
-1.04915e-05
6.32865e-05
-1.04795e-05
6.67759e-05
-1.04666e-05
7.02607e-05
-1.04529e-05
7.37406e-05
-1.04382e-05
7.72153e-05
-1.04225e-05
8.06845e-05
-1.04059e-05
8.41478e-05
-1.03882e-05
8.76049e-05
-1.03694e-05
9.10554e-05
-1.03496e-05
9.44989e-05
-1.03286e-05
9.79351e-05
-1.03065e-05
0.000101363
-1.02831e-05
0.000104784
-1.02585e-05
0.000108195
-1.02326e-05
0.000111598
-1.02053e-05
0.000114991
-1.01767e-05
0.000118374
-1.01467e-05
0.000121747
-1.01153e-05
0.000125108
-1.00823e-05
0.000128458
-1.00478e-05
0.000131796
-1.00117e-05
0.000135122
-9.97397e-06
0.000138434
-9.93459e-06
0.000141733
-9.89349e-06
0.000145018
-9.85063e-06
0.000148287
-9.80598e-06
0.000151542
-9.75949e-06
0.00015478
-9.71112e-06
0.000158001
-9.66082e-06
0.000161205
-9.60857e-06
0.000164391
-9.55431e-06
0.000167558
-9.49801e-06
0.000170706
-9.43963e-06
0.000173833
-9.37913e-06
0.00017694
-9.31649e-06
0.000180025
-9.25167e-06
0.000183088
-9.18463e-06
0.000186128
-9.11534e-06
0.000189144
-9.04378e-06
0.000192135
-8.96992e-06
0.000195101
-8.89373e-06
0.000198041
-8.81519e-06
0.000200953
-8.73429e-06
0.000203838
-8.65099e-06
0.000206695
-8.56529e-06
0.000209522
-8.47717e-06
0.000212319
-8.38662e-06
0.000215085
-8.29363e-06
0.000217819
-8.19819e-06
0.00022052
-8.10031e-06
0.000223188
-7.99998e-06
0.000225822
-7.8972e-06
0.000228421
-7.79198e-06
0.000230983
-7.68433e-06
0.000233509
-7.57426e-06
0.000235998
-7.46178e-06
0.000238448
-7.34691e-06
0.00024086
-7.22968e-06
0.000243231
-7.11009e-06
0.000245562
-6.98819e-06
0.000247851
-6.864e-06
0.000250098
-6.73756e-06
0.000252302
-6.6089e-06
0.000254463
-6.47805e-06
0.000256579
-6.34507e-06
0.00025865
-6.20999e-06
0.000260675
-6.07286e-06
0.000262654
-5.93374e-06
0.000264586
-5.79268e-06
0.00026647
-5.64973e-06
0.000268306
-5.50495e-06
0.000270094
-5.3584e-06
0.000271831
-5.21015e-06
0.000273519
-5.06026e-06
0.000275156
-4.90879e-06
0.000276742
-4.75582e-06
0.000278277
-4.60142e-06
0.000279759
-4.44566e-06
0.000281189
-4.28861e-06
0.000282567
-4.13035e-06
0.000283891
-3.97095e-06
0.000285162
-3.8105e-06
0.000286379
-3.64908e-06
0.000287541
-3.48675e-06
0.00028865
-3.32361e-06
0.000289703
-3.15973e-06
0.000290702
-2.9952e-06
0.000291645
-2.83008e-06
0.000292534
-2.66448e-06
0.000293367
-2.49846e-06
0.000294144
-2.33211e-06
0.000294866
-2.1655e-06
0.000295533
-1.99872e-06
0.000296143
-1.83184e-06
0.000296698
-1.66495e-06
0.000297197
-1.49812e-06
0.000297641
-1.33141e-06
0.000298029
-1.16492e-06
0.000298362
-9.98714e-07
0.000298639
-8.32858e-07
0.000298862
-6.67425e-07
0.000299029
-5.02483e-07
0.000299141
-3.381e-07
0.000299199
-1.74339e-07
0.000299202
-1.12643e-08
0.000299151
1.51064e-07
0.000299047
3.12586e-07
0.000298889
4.73245e-07
0.000298677
6.32986e-07
0.000298412
7.91757e-07
0.000298095
9.49506e-07
0.000297726
1.10618e-06
0.000297305
1.26175e-06
0.000296832
1.41614e-06
0.000296308
1.56934e-06
0.000295734
1.72129e-06
0.000295109
1.87196e-06
0.000294435
2.02131e-06
0.000293711
2.16931e-06
0.000292938
2.31592e-06
0.000292117
2.46112e-06
0.000291248
2.60487e-06
0.000290331
2.74715e-06
0.000289368
2.88793e-06
0.000288358
3.0272e-06
0.000287302
3.16493e-06
0.000286201
3.30109e-06
0.000285055
3.43568e-06
0.000283864
3.56868e-06
0.00028263
3.70007e-06
0.000281352
3.82983e-06
0.000280032
3.95796e-06
0.00027867
4.08444e-06
0.000277266
4.20926e-06
0.000275821
4.33242e-06
0.000274335
4.45391e-06
0.00027281
4.57371e-06
0.000271245
4.69183e-06
0.000269641
4.80827e-06
0.000267999
4.923e-06
0.000266319
5.03605e-06
0.000264603
5.14739e-06
0.000262849
5.25704e-06
0.00026106
5.36498e-06
0.000259235
5.47123e-06
0.000257376
5.57578e-06
0.000255482
5.67863e-06
0.000253554
5.77978e-06
0.000251594
5.87925e-06
0.000249601
5.97702e-06
0.000247575
6.07311e-06
0.000245518
6.16752e-06
0.000243431
6.26025e-06
0.000241313
6.35131e-06
0.000239165
6.44071e-06
0.000236988
6.52844e-06
0.000234782
6.61453e-06
0.000232548
6.69897e-06
0.000230287
6.78177e-06
0.000227998
6.86294e-06
0.000225683
6.94249e-06
0.000223342
7.02042e-06
0.000220976
7.09676e-06
0.000218584
7.1715e-06
0.000216168
7.24465e-06
0.000213729
7.31623e-06
0.000211266
7.38625e-06
0.00020878
7.45472e-06
0.000206272
7.52164e-06
0.000203742
7.58704e-06
0.000201191
7.65093e-06
0.000198619
7.71331e-06
0.000196027
7.7742e-06
0.000193415
7.83362e-06
0.000190784
7.89158e-06
0.000188133
7.94809e-06
0.000185465
8.00316e-06
0.000182779
8.05683e-06
0.000180075
8.10909e-06
0.000177354
8.15997e-06
0.000174617
8.20948e-06
0.000171863
8.25763e-06
0.000169095
8.30446e-06
0.000166311
8.34997e-06
0.000163512
8.39418e-06
0.000160699
8.43711e-06
0.000157872
8.47877e-06
0.000155031
8.5192e-06
0.000152178
8.5584e-06
0.000149312
8.59639e-06
0.000146433
8.6332e-06
0.000143543
8.66884e-06
0.000140641
8.70333e-06
0.000137729
8.7367e-06
0.000134805
8.76896e-06
0.000131871
8.80013e-06
0.000128927
8.83024e-06
0.000125973
8.8593e-06
0.00012301
8.88733e-06
0.000120038
8.91436e-06
0.000117058
8.9404e-06
0.000114069
8.96547e-06
0.000111072
8.9896e-06
0.000108067
9.0128e-06
0.000105055
9.03509e-06
0.000102035
9.0565e-06
9.90091e-05
9.07704e-06
9.59764e-05
9.09673e-06
9.29375e-05
9.11559e-06
8.98925e-05
9.13364e-06
8.68417e-05
9.1509e-06
8.37855e-05
9.16738e-06
8.07241e-05
9.18311e-06
7.76576e-05
9.19809e-06
7.45865e-05
9.21235e-06
7.15108e-05
9.2259e-06
6.84308e-05
9.23877e-06
6.53468e-05
9.25095e-06
6.2259e-05
9.26248e-06
5.91675e-05
9.27335e-06
5.60726e-05
9.2836e-06
5.29745e-05
9.29322e-06
4.98734e-05
9.30224e-06
4.67696e-05
9.31067e-06
4.36631e-05
9.31851e-06
4.05542e-05
9.32577e-06
3.7443e-05
9.33248e-06
3.43299e-05
9.33863e-06
3.12148e-05
9.34424e-06
2.80981e-05
9.34931e-06
2.49798e-05
9.35385e-06
2.18603e-05
9.35787e-06
1.87395e-05
9.36138e-06
1.56178e-05
9.36437e-06
1.24952e-05
9.36686e-06
9.37198e-06
9.36885e-06
6.24826e-06
9.37033e-06
3.12421e-06
9.37132e-06
9.37181e-06
3.5282e-06
-1.41099e-05
7.05619e-06
-1.4109e-05
1.05838e-05
-1.41074e-05
1.41107e-05
-1.41049e-05
1.76369e-05
-1.41015e-05
2.1162e-05
-1.40973e-05
2.46858e-05
-1.40923e-05
2.82082e-05
-1.40863e-05
3.17288e-05
-1.40795e-05
3.52476e-05
-1.40717e-05
3.87642e-05
-1.4063e-05
4.22784e-05
-1.40534e-05
4.57899e-05
-1.40428e-05
4.92986e-05
-1.40311e-05
5.28042e-05
-1.40185e-05
5.63063e-05
-1.40048e-05
5.98048e-05
-1.399e-05
6.32994e-05
-1.3974e-05
6.67896e-05
-1.39569e-05
7.02754e-05
-1.39386e-05
7.37563e-05
-1.39191e-05
7.7232e-05
-1.38982e-05
8.07022e-05
-1.38761e-05
8.41666e-05
-1.38526e-05
8.76248e-05
-1.38276e-05
9.10764e-05
-1.38012e-05
9.45211e-05
-1.37733e-05
9.79585e-05
-1.37438e-05
0.000101388
-1.37127e-05
0.00010481
-1.368e-05
0.000108223
-1.36455e-05
0.000111626
-1.36093e-05
0.000115021
-1.35712e-05
0.000118405
-1.35312e-05
0.00012178
-1.34893e-05
0.000125143
-1.34455e-05
0.000128494
-1.33995e-05
0.000131834
-1.33515e-05
0.000135161
-1.33012e-05
0.000138476
-1.32488e-05
0.000141776
-1.3194e-05
0.000145063
-1.3137e-05
0.000148334
-1.30775e-05
0.00015159
-1.30156e-05
0.00015483
-1.29511e-05
0.000158053
-1.28842e-05
0.000161259
-1.28145e-05
0.000164447
-1.27422e-05
0.000167617
-1.26672e-05
0.000170766
-1.25895e-05
0.000173896
-1.25089e-05
0.000177005
-1.24254e-05
0.000180092
-1.2339e-05
0.000183157
-1.22497e-05
0.000186199
-1.21573e-05
0.000189218
-1.2062e-05
0.000192211
-1.19635e-05
0.000195179
-1.1862e-05
0.000198122
-1.17573e-05
0.000201037
-1.16494e-05
0.000203924
-1.15384e-05
0.000206783
-1.14241e-05
0.000209612
-1.13067e-05
0.000212412
-1.11859e-05
0.00021518
-1.1062e-05
0.000217917
-1.09347e-05
0.000220621
-1.08042e-05
0.000223291
-1.06704e-05
0.000225927
-1.05334e-05
0.000228528
-1.03931e-05
0.000231094
-1.02495e-05
0.000233622
-1.01028e-05
0.000236113
-9.95276e-06
0.000238566
-9.79957e-06
0.000240979
-9.64321e-06
0.000243353
-9.48373e-06
0.000245686
-9.32115e-06
0.000247977
-9.15551e-06
0.000250227
-8.98686e-06
0.000252433
-8.81525e-06
0.000254596
-8.64073e-06
0.000256714
-8.46335e-06
0.000258787
-8.28317e-06
0.000260814
-8.10026e-06
0.000262795
-7.91468e-06
0.000264729
-7.72651e-06
0.000266615
-7.53582e-06
0.000268453
-7.34268e-06
0.000270242
-7.14719e-06
0.000271981
-6.94942e-06
0.00027367
-6.74946e-06
0.000275309
-6.54739e-06
0.000276896
-6.34332e-06
0.000278432
-6.13734e-06
0.000279916
-5.92954e-06
0.000281348
-5.72002e-06
0.000282726
-5.50889e-06
0.000284051
-5.29625e-06
0.000285323
-5.08219e-06
0.000286541
-4.86683e-06
0.000287704
-4.65028e-06
0.000288813
-4.43263e-06
0.000289868
-4.214e-06
0.000290867
-3.99449e-06
0.000291811
-3.77421e-06
0.0002927
-3.55328e-06
0.000293533
-3.3318e-06
0.000294311
-3.10987e-06
0.000295033
-2.8876e-06
0.0002957
-2.66511e-06
0.00029631
-2.44249e-06
0.000296865
-2.21984e-06
0.000297364
-1.99728e-06
0.000297808
-1.7749e-06
0.000298196
-1.55279e-06
0.000298528
-1.33107e-06
0.000298805
-1.10982e-06
0.000299027
-8.89135e-07
0.000299193
-6.6911e-07
0.000299305
-4.49831e-07
0.000299362
-2.31386e-07
0.000299365
-1.38577e-08
0.000299313
2.02671e-07
0.000299207
4.18123e-07
0.000299048
6.32421e-07
0.000298836
8.45491e-07
0.00029857
1.05726e-06
0.000298252
1.26767e-06
0.000297882
1.47665e-06
0.000297459
1.68413e-06
0.000296985
1.89007e-06
0.00029646
2.09439e-06
0.000295885
2.29705e-06
0.000295258
2.498e-06
0.000294583
2.69719e-06
0.000293857
2.89457e-06
0.000293083
3.09009e-06
0.000292261
3.28373e-06
0.00029139
3.47544e-06
0.000290472
3.66519e-06
0.000289507
3.85294e-06
0.000288495
4.03866e-06
0.000287438
4.22233e-06
0.000286335
4.40391e-06
0.000285188
4.58339e-06
0.000283995
4.76074e-06
0.00028276
4.93595e-06
0.00028148
5.10898e-06
0.000280159
5.27984e-06
0.000278795
5.44849e-06
0.000277389
5.61494e-06
0.000275942
5.77916e-06
0.000274455
5.94115e-06
0.000272928
6.1009e-06
0.000271361
6.25841e-06
0.000269756
6.41365e-06
0.000268112
6.56664e-06
0.000266431
6.71737e-06
0.000264712
6.86583e-06
0.000262957
7.01203e-06
0.000261166
7.15595e-06
0.00025934
7.29761e-06
0.000257479
7.43701e-06
0.000255583
7.57414e-06
0.000253654
7.70901e-06
0.000251692
7.84162e-06
0.000249697
7.97198e-06
0.00024767
8.10009e-06
0.000245611
8.22596e-06
0.000243522
8.3496e-06
0.000241402
8.471e-06
0.000239253
8.59019e-06
0.000237074
8.70716e-06
0.000234867
8.82193e-06
0.000232631
8.9345e-06
0.000230368
9.04489e-06
0.000228078
9.15311e-06
0.000225761
9.25916e-06
0.000223418
9.36306e-06
0.00022105
9.46482e-06
0.000218657
9.56446e-06
0.00021624
9.66198e-06
0.000213799
9.75741e-06
0.000211334
9.85075e-06
0.000208847
9.94202e-06
0.000206337
1.00312e-05
0.000203806
1.01184e-05
0.000201253
1.02036e-05
0.00019868
1.02867e-05
0.000196086
1.03679e-05
0.000193473
1.04471e-05
0.00019084
1.05244e-05
0.000188189
1.05997e-05
0.000185519
1.06731e-05
0.000182831
1.07446e-05
0.000180126
1.08143e-05
0.000177403
1.08821e-05
0.000174665
1.09481e-05
0.00017191
1.10123e-05
0.00016914
1.10747e-05
0.000166355
1.11353e-05
0.000163555
1.11942e-05
0.00016074
1.12514e-05
0.000157912
1.1307e-05
0.000155071
1.13608e-05
0.000152216
1.14131e-05
0.000149349
1.14637e-05
0.000146469
1.15127e-05
0.000143578
1.15602e-05
0.000140675
1.16062e-05
0.000137761
1.16507e-05
0.000134836
1.16936e-05
0.000131901
1.17352e-05
0.000128956
1.17753e-05
0.000126001
1.1814e-05
0.000123037
1.18513e-05
0.000120064
1.18873e-05
0.000117083
1.1922e-05
0.000114093
1.19554e-05
0.000111095
1.19876e-05
0.000108089
1.20185e-05
0.000105076
1.20482e-05
0.000102056
1.20767e-05
9.90288e-05
1.2104e-05
9.59953e-05
1.21303e-05
9.29555e-05
1.21554e-05
8.99097e-05
1.21794e-05
8.68582e-05
1.22024e-05
8.38012e-05
1.22244e-05
8.07391e-05
1.22453e-05
7.76719e-05
1.22652e-05
7.46e-05
1.22842e-05
7.15236e-05
1.23023e-05
6.8443e-05
1.23194e-05
6.53583e-05
1.23356e-05
6.22698e-05
1.2351e-05
5.91777e-05
1.23655e-05
5.60822e-05
1.23791e-05
5.29835e-05
1.23919e-05
4.98819e-05
1.24039e-05
4.67774e-05
1.24151e-05
4.36703e-05
1.24256e-05
4.05609e-05
1.24352e-05
3.74492e-05
1.24442e-05
3.43355e-05
1.24524e-05
3.12199e-05
1.24598e-05
2.81026e-05
1.24666e-05
2.49839e-05
1.24726e-05
2.18638e-05
1.2478e-05
1.87425e-05
1.24826e-05
1.56203e-05
1.24866e-05
1.24972e-05
1.24899e-05
9.37347e-06
1.24926e-05
6.24925e-06
1.24946e-05
3.12471e-06
1.24959e-05
1.24965e-05
3.52903e-06
-1.76389e-05
7.05786e-06
-1.76379e-05
1.05863e-05
-1.76358e-05
1.41141e-05
-1.76327e-05
1.76411e-05
-1.76285e-05
2.1167e-05
-1.76233e-05
2.46917e-05
-1.7617e-05
2.8215e-05
-1.76096e-05
3.17366e-05
-1.7601e-05
3.52563e-05
-1.75914e-05
3.87738e-05
-1.75806e-05
4.2289e-05
-1.75686e-05
4.58016e-05
-1.75553e-05
4.93113e-05
-1.75409e-05
5.28179e-05
-1.75251e-05
5.63212e-05
-1.7508e-05
5.98208e-05
-1.74896e-05
6.33165e-05
-1.74697e-05
6.6808e-05
-1.74484e-05
7.0295e-05
-1.74256e-05
7.37771e-05
-1.74012e-05
7.72542e-05
-1.73753e-05
8.07258e-05
-1.73477e-05
8.41916e-05
-1.73184e-05
8.76512e-05
-1.72873e-05
9.11044e-05
-1.72544e-05
9.45506e-05
-1.72196e-05
9.79896e-05
-1.71828e-05
0.000101421
-1.7144e-05
0.000104844
-1.71032e-05
0.000108259
-1.70602e-05
0.000111665
-1.7015e-05
0.000115061
-1.69675e-05
0.000118447
-1.69177e-05
0.000121823
-1.68654e-05
0.000125189
-1.68107e-05
0.000128542
-1.67533e-05
0.000131884
-1.66934e-05
0.000135214
-1.66307e-05
0.00013853
-1.65653e-05
0.000141833
-1.6497e-05
0.000145122
-1.64257e-05
0.000148396
-1.63515e-05
0.000151655
-1.62742e-05
0.000154897
-1.61937e-05
0.000158123
-1.61101e-05
0.000161332
-1.60232e-05
0.000164522
-1.59329e-05
0.000167694
-1.58392e-05
0.000170847
-1.57421e-05
0.00017398
-1.56414e-05
0.000177092
-1.55372e-05
0.000180182
-1.54293e-05
0.00018325
-1.53177e-05
0.000186295
-1.52023e-05
0.000189316
-1.50832e-05
0.000192313
-1.49602e-05
0.000195284
-1.48333e-05
0.000198229
-1.47025e-05
0.000201148
-1.45678e-05
0.000204038
-1.4429e-05
0.0002069
-1.42862e-05
0.000209733
-1.41394e-05
0.000212536
-1.39885e-05
0.000215307
-1.38336e-05
0.000218047
-1.36745e-05
0.000220754
-1.35114e-05
0.000223428
-1.33442e-05
0.000226068
-1.31729e-05
0.000228672
-1.29975e-05
0.00023124
-1.2818e-05
0.000233772
-1.26345e-05
0.000236266
-1.24469e-05
0.000238722
-1.22554e-05
0.000241139
-1.20599e-05
0.000243515
-1.18605e-05
0.000245851
-1.16572e-05
0.000248146
-1.145e-05
0.000250398
-1.12391e-05
0.000252608
-1.10245e-05
0.000254773
-1.08063e-05
0.000256894
-1.05844e-05
0.00025897
-1.03591e-05
0.000261
-1.01303e-05
0.000262984
-9.89821e-06
0.00026492
-9.66286e-06
0.000266809
-9.42435e-06
0.000268649
-9.18278e-06
0.00027044
-8.93825e-06
0.000272181
-8.69087e-06
0.000273872
-8.44075e-06
0.000275513
-8.188e-06
0.000277102
-7.93274e-06
0.00027864
-7.67508e-06
0.000280126
-7.41514e-06
0.000281559
-7.15306e-06
0.000282939
-6.88895e-06
0.000284266
-6.62295e-06
0.000285539
-6.35518e-06
0.000286758
-6.08579e-06
0.000287922
-5.81489e-06
0.000289032
-5.54263e-06
0.000290087
-5.26913e-06
0.000291087
-4.99455e-06
0.000292032
-4.719e-06
0.000292921
-4.44263e-06
0.000293755
-4.16558e-06
0.000294533
-3.88797e-06
0.000295256
-3.60994e-06
0.000295922
-3.33162e-06
0.000296533
-3.05315e-06
0.000297088
-2.77465e-06
0.000297587
-2.49626e-06
0.00029803
-2.21809e-06
0.000298417
-1.94028e-06
0.000298749
-1.66295e-06
0.000299026
-1.38621e-06
0.000299247
-1.11019e-06
0.000299413
-8.34988e-07
0.000299523
-5.60728e-07
0.00029958
-2.87514e-07
0.000299581
-1.54514e-08
0.000299528
2.55358e-07
0.000299422
5.24815e-07
0.000299261
7.92824e-07
0.000299048
1.0593e-06
0.000298781
1.32414e-06
0.000298461
1.58727e-06
0.000298089
1.84861e-06
0.000297665
2.10807e-06
0.00029719
2.3656e-06
0.000296663
2.6211e-06
0.000296086
2.87452e-06
0.000295458
3.1258e-06
0.00029478
3.37487e-06
0.000294053
3.62167e-06
0.000293277
3.86616e-06
0.000292452
4.10828e-06
0.00029158
4.34798e-06
0.00029066
4.58523e-06
0.000289693
4.81997e-06
0.000288679
5.05218e-06
0.00028762
5.28181e-06
0.000286515
5.50884e-06
0.000285365
5.73323e-06
0.000284171
5.95496e-06
0.000282933
6.17399e-06
0.000281651
6.39032e-06
0.000280327
6.60392e-06
0.000278961
6.81476e-06
0.000277553
7.02284e-06
0.000276104
7.22814e-06
0.000274615
7.43064e-06
0.000273085
7.63034e-06
0.000271516
7.82723e-06
0.000269909
8.0213e-06
0.000268263
8.21255e-06
0.000266579
8.40096e-06
0.000264858
8.58654e-06
0.000263101
8.76928e-06
0.000261308
8.94919e-06
0.000259479
9.12627e-06
0.000257616
9.30051e-06
0.000255718
9.47191e-06
0.000253787
9.64049e-06
0.000251822
9.80625e-06
0.000249825
9.96919e-06
0.000247796
1.01293e-05
0.000245735
1.02866e-05
0.000243643
1.04412e-05
0.000241521
1.05929e-05
0.00023937
1.07419e-05
0.000237189
1.08881e-05
0.000234979
1.10315e-05
0.000232741
1.11722e-05
0.000230476
1.13102e-05
0.000228184
1.14454e-05
0.000225865