/*--------------------------------*- C++ -*----------------------------------*\
| =========                 |                                                 |
| \\      /  F ield         | OpenFOAM: The Open Source CFD Toolbox           |
|  \\    /   O peration     | Version:  v2012                                 |
|   \\  /    A nd           | Website:  www.openfoam.com                      |
|    \\/     M anipulation  |                                                 |
\*---------------------------------------------------------------------------*/
FoamFile
{
    version     2.0;
    format      ascii;
    class       volScalarField;
    location    "3";
    object      W;
}
// * * * * * * * * * * * * * * * * * * * * * * * * * * * * * * * * * * * * * //

dimensions      [0 0 -1 0 0 0 0];


internalField   nonuniform List<scalar> 
65536
(
3.3546e-20
3.65195e-20
4.311e-20
5.37124e-20
6.8997e-20
8.99618e-20
1.18004e-19
1.55007e-19
2.03453e-19
2.66561e-19
3.48464e-19
4.54433e-19
5.91154e-19
7.67075e-19
9.92834e-19
1.28179e-18
1.65065e-18
2.12027e-18
2.71661e-18
3.47186e-18
4.42584e-18
5.62764e-18
7.13765e-18
9.02987e-18
1.13948e-17
1.43425e-17
1.8007e-17
2.25505e-17
2.81685e-17
3.50969e-17
4.36182e-17
5.40707e-17
6.68574e-17
8.24577e-17
1.01439e-16
1.24472e-16
1.52346e-16
1.85986e-16
2.26475e-16
2.75075e-16
3.3325e-16
4.02696e-16
4.85369e-16
5.83516e-16
6.99712e-16
8.36894e-16
9.98402e-16
1.18802e-15
1.41001e-15
1.66916e-15
1.97086e-15
2.32108e-15
2.72647e-15
3.19437e-15
3.73287e-15
4.35083e-15
5.0579e-15
5.86457e-15
6.78215e-15
7.82281e-15
8.99952e-15
1.03261e-14
1.1817e-14
1.34877e-14
1.53538e-14
1.7432e-14
1.97389e-14
2.22917e-14
2.51076e-14
2.82036e-14
3.15965e-14
3.53025e-14
3.93368e-14
4.37137e-14
4.84458e-14
5.35441e-14
5.90174e-14
6.4872e-14
7.11114e-14
7.77358e-14
8.47419e-14
9.21227e-14
9.98667e-14
1.07958e-13
1.16377e-13
1.25097e-13
1.3409e-13
1.43318e-13
1.52743e-13
1.62319e-13
1.71996e-13
1.81721e-13
1.91435e-13
2.01075e-13
2.10578e-13
2.19875e-13
2.28899e-13
2.37578e-13
2.45843e-13
2.53624e-13
2.60853e-13
2.67467e-13
2.73403e-13
2.78604e-13
2.83019e-13
2.86603e-13
2.89318e-13
2.91133e-13
2.92027e-13
2.91985e-13
2.91005e-13
2.89091e-13
2.86258e-13
2.82531e-13
2.77942e-13
2.72535e-13
2.66358e-13
2.59472e-13
2.5194e-13
2.43834e-13
2.35231e-13
2.26211e-13
2.1686e-13
2.07264e-13
1.9751e-13
1.87687e-13
1.77882e-13
1.68182e-13
1.5867e-13
1.49427e-13
1.40529e-13
1.32049e-13
1.24054e-13
1.16606e-13
1.09762e-13
1.03572e-13
9.80811e-14
9.33276e-14
8.93435e-14
8.61549e-14
8.37813e-14
8.22358e-14
8.15255e-14
8.16506e-14
8.26052e-14
8.43769e-14
8.69466e-14
9.02885e-14
9.43703e-14
9.91529e-14
1.0459e-13
1.1063e-13
1.17212e-13
1.2427e-13
1.31734e-13
1.39523e-13
1.47554e-13
1.5574e-13
1.63987e-13
1.722e-13
1.80281e-13
1.88131e-13
1.95652e-13
2.02747e-13
2.09322e-13
2.1529e-13
2.20567e-13
2.25078e-13
2.28758e-13
2.31549e-13
2.33408e-13
2.34301e-13
2.34208e-13
2.33124e-13
2.31054e-13
2.28018e-13
2.24049e-13
2.19191e-13
2.13501e-13
2.07044e-13
1.99895e-13
1.92136e-13
1.83854e-13
1.75141e-13
1.6609e-13
1.56795e-13
1.47348e-13
1.3784e-13
1.28356e-13
1.18976e-13
1.09773e-13
1.00814e-13
9.21561e-14
8.38501e-14
7.59366e-14
6.84478e-14
6.14077e-14
5.48322e-14
4.87295e-14
4.31008e-14
3.79413e-14
3.32403e-14
2.89827e-14
2.51496e-14
2.17187e-14
1.86657e-14
1.59646e-14
1.35885e-14
1.151e-14
9.70226e-15
8.13872e-15
6.79394e-15
5.64373e-15
4.66538e-15
3.83777e-15
3.14153e-15
2.559e-15
2.07425e-15
1.67307e-15
1.34284e-15
1.07248e-15
8.52327e-16
6.74024e-16
5.30386e-16
4.15294e-16
3.23567e-16
2.5085e-16
1.93511e-16
1.48537e-16
1.1345e-16
8.62199e-17
6.51997e-17
4.90588e-17
3.67299e-17
2.73623e-17
2.02823e-17
1.49592e-17
1.09781e-17
8.01629e-18
5.82431e-18
4.21057e-18
3.02874e-18
2.16773e-18
1.54374e-18
1.09386e-18
7.71217e-19
5.41025e-19
3.77658e-19
2.62341e-19
1.81413e-19
1.25007e-19
8.60695e-20
5.96324e-20
4.22738e-20
3.17313e-20
2.66282e-20
4.4415e-20
4.83501e-20
5.70732e-20
7.11067e-20
9.13368e-20
1.19084e-19
1.56196e-19
2.05164e-19
2.69269e-19
3.5277e-19
4.6113e-19
6.01318e-19
7.82169e-19
1.01485e-18
1.31341e-18
1.6955e-18
2.1832e-18
2.80404e-18
3.59229e-18
4.59044e-18
5.85104e-18
7.43887e-18
9.43356e-18
1.19327e-17
1.50555e-17
1.89473e-17
2.37843e-17
2.97802e-17
3.71927e-17
4.63318e-17
5.75694e-17
7.13503e-17
8.82042e-17
1.08761e-16
1.33766e-16
1.64099e-16
2.00796e-16
2.4507e-16
2.9834e-16
3.62259e-16
4.38743e-16
5.30012e-16
6.38621e-16
7.67508e-16
9.20032e-16
1.10003e-15
1.31184e-15
1.5604e-15
1.85126e-15
2.19065e-15
2.58555e-15
3.04372e-15
3.57377e-15
4.18521e-15
4.8885e-15
5.69507e-15
6.61738e-15
7.66893e-15
8.86429e-15
1.02191e-14
1.17499e-14
1.34744e-14
1.54112e-14
1.75797e-14
2.00002e-14
2.26934e-14
2.56806e-14
2.89834e-14
3.26234e-14
3.66218e-14
4.09997e-14
4.57768e-14
5.09722e-14
5.66031e-14
6.26847e-14
6.92299e-14
7.62488e-14
8.37483e-14
9.17312e-14
1.00197e-13
1.09139e-13
1.18547e-13
1.28406e-13
1.38692e-13
1.4938e-13
1.60434e-13
1.71816e-13
1.83478e-13
1.95368e-13
2.07427e-13
2.19592e-13
2.31793e-13
2.43954e-13
2.55998e-13
2.6784e-13
2.79397e-13
2.90582e-13
3.01305e-13
3.1148e-13
3.21021e-13
3.29843e-13
3.37867e-13
3.45018e-13
3.51226e-13
3.5643e-13
3.60576e-13
3.63619e-13
3.65524e-13
3.66269e-13
3.65839e-13
3.64234e-13
3.61464e-13
3.57551e-13
3.5253e-13
3.46444e-13
3.39351e-13
3.31316e-13
3.22415e-13
3.12731e-13
3.02355e-13
2.91385e-13
2.79923e-13
2.68075e-13
2.55947e-13
2.43651e-13
2.31296e-13
2.18988e-13
2.06834e-13
1.94936e-13
1.83392e-13
1.72295e-13
1.61732e-13
1.51783e-13
1.42524e-13
1.3402e-13
1.2633e-13
1.19508e-13
1.13597e-13
1.08633e-13
1.04646e-13
1.01655e-13
9.96747e-14
9.87102e-14
9.8759e-14
9.98113e-14
1.01849e-13
1.04847e-13
1.08772e-13
1.13582e-13
1.19228e-13
1.25652e-13
1.3279e-13
1.40569e-13
1.48908e-13
1.57719e-13
1.66908e-13
1.76374e-13
1.86011e-13
1.95708e-13
2.05352e-13
2.14826e-13
2.24012e-13
2.32796e-13
2.41063e-13
2.48703e-13
2.55613e-13
2.61696e-13
2.66866e-13
2.71045e-13
2.74169e-13
2.76188e-13
2.77066e-13
2.7678e-13
2.75326e-13
2.72712e-13
2.68966e-13
2.64126e-13
2.58247e-13
2.51398e-13
2.43656e-13
2.35112e-13
2.25862e-13
2.1601e-13
2.05665e-13
1.94935e-13
1.83932e-13
1.72765e-13
1.61538e-13
1.50351e-13
1.39298e-13
1.28464e-13
1.17927e-13
1.07752e-13
9.79986e-14
8.87125e-14
7.99311e-14
7.16813e-14
6.39807e-14
5.68381e-14
5.02542e-14
4.42223e-14
3.87295e-14
3.37573e-14
2.92829e-14
2.528e-14
2.17195e-14
1.85708e-14
1.5802e-14
1.33812e-14
1.12764e-14
9.45657e-15
7.89196e-15
6.55419e-15
5.41667e-15
4.45473e-15
3.64572e-15
2.96903e-15
2.40609e-15
1.94032e-15
1.55703e-15
1.24331e-15
9.87908e-16
7.81102e-16
6.14541e-16
4.81108e-16
3.74785e-16
2.90514e-16
2.24076e-16
1.71975e-16
1.31334e-16
9.97986e-17
7.54588e-17
5.67717e-17
4.24998e-17
3.16575e-17
2.34637e-17
1.73041e-17
1.26978e-17
9.27128e-18
6.73562e-18
4.86903e-18
3.50214e-18
2.5064e-18
1.78481e-18
1.26462e-18
8.91563e-19
6.25421e-19
4.36552e-19
3.03241e-19
2.09689e-19
1.44487e-19
9.94792e-20
6.89213e-20
4.88574e-20
3.66723e-20
3.07749e-20
6.867e-20
7.47505e-20
8.82313e-20
1.09919e-19
1.41182e-19
1.84058e-19
2.41401e-19
3.17057e-19
4.16091e-19
5.45074e-19
7.12438e-19
9.28934e-19
1.20819e-18
1.56743e-18
2.02833e-18
2.61808e-18
3.37071e-18
4.32865e-18
5.54469e-18
7.08426e-18
9.02826e-18
1.14764e-17
1.45512e-17
1.84028e-17
2.32144e-17
2.92093e-17
3.66586e-17
4.58901e-17
5.72994e-17
7.13623e-17
8.86493e-17
1.09842e-16
1.35752e-16
1.67344e-16
2.05758e-16
2.52342e-16
3.08676e-16
3.76617e-16
4.58328e-16
5.56331e-16
6.7355e-16
8.13363e-16
9.79661e-16
1.17691e-15
1.41022e-15
1.6854e-15
2.00905e-15
2.38864e-15
2.83257e-15
3.35026e-15
3.95224e-15
4.65022e-15
5.45717e-15
6.3874e-15
7.4566e-15
8.68194e-15
1.00821e-14
1.16771e-14
1.34889e-14
1.55406e-14
1.7857e-14
2.04641e-14
2.33896e-14
2.66621e-14
3.03113e-14
3.43678e-14
3.88626e-14
4.38271e-14
4.92926e-14
5.52898e-14
6.18486e-14
6.89975e-14
7.67629e-14
8.51689e-14
9.42363e-14
1.03982e-13
1.1442e-13
1.25556e-13
1.37394e-13
1.49929e-13
1.63149e-13
1.77037e-13
1.91566e-13
2.06701e-13
2.22397e-13
2.38604e-13
2.55258e-13
2.72289e-13
2.89617e-13
3.07153e-13
3.24803e-13
3.4246e-13
3.60015e-13
3.77351e-13
3.94347e-13
4.10878e-13
4.26818e-13
4.42039e-13
4.56415e-13
4.69822e-13
4.82142e-13
4.93262e-13
5.03076e-13
5.11489e-13
5.18415e-13
5.23783e-13
5.27534e-13
5.29624e-13
5.30025e-13
5.28724e-13
5.25727e-13
5.21056e-13
5.14749e-13
5.06862e-13
4.97465e-13
4.86647e-13
4.74505e-13
4.61155e-13
4.46721e-13
4.31337e-13
4.15145e-13
3.98294e-13
3.80937e-13
3.63229e-13
3.45327e-13
3.27387e-13
3.09561e-13
2.91998e-13
2.7484e-13
2.58225e-13
2.4228e-13
2.27125e-13
2.12871e-13
1.99617e-13
1.87453e-13
1.76459e-13
1.66701e-13
1.58236e-13
1.51111e-13
1.4536e-13
1.41006e-13
1.38064e-13
1.36536e-13
1.36413e-13
1.37676e-13
1.40297e-13
1.44235e-13
1.4944e-13
1.5585e-13
1.63395e-13
1.71992e-13
1.81548e-13
1.91962e-13
2.03121e-13
2.14902e-13
2.27176e-13
2.39804e-13
2.52642e-13
2.65538e-13
2.78339e-13
2.90887e-13
3.03026e-13
3.146e-13
3.25458e-13
3.35453e-13
3.44449e-13
3.5232e-13
3.5895e-13
3.64242e-13
3.68113e-13
3.70498e-13
3.71353e-13
3.70653e-13
3.68395e-13
3.64596e-13
3.59294e-13
3.52545e-13
3.44426e-13
3.35029e-13
3.24463e-13
3.12849e-13
3.00319e-13
2.8701e-13
2.73068e-13
2.58641e-13
2.43874e-13
2.28912e-13
2.13894e-13
1.98952e-13
1.84209e-13
1.69776e-13
1.55754e-13
1.42231e-13
1.29281e-13
1.16964e-13
1.05327e-13
9.4404e-14
8.42174e-14
7.47767e-14
6.60812e-14
5.81207e-14
5.08769e-14
4.43243e-14
3.84316e-14
3.31633e-14
2.84801e-14
2.4341e-14
2.07035e-14
1.75247e-14
1.47624e-14
1.23754e-14
1.03241e-14
8.57102e-15
7.08104e-15
5.8216e-15
4.76283e-15
3.87759e-15
3.14145e-15
2.5326e-15
2.03174e-15
1.62194e-15
1.28842e-15
1.01846e-15
8.0109e-16
6.27008e-16
4.88334e-16
3.78451e-16
2.91843e-16
2.23942e-16
1.70988e-16
1.29908e-16
9.82084e-17
7.38754e-17
5.52954e-17
4.11826e-17
3.05193e-17
2.25045e-17
1.65119e-17
1.20547e-17
8.75681e-18
6.32945e-18
4.55214e-18
3.25756e-18
2.31952e-18
1.64335e-18
1.15849e-18
8.12614e-19
5.6718e-19
3.93958e-19
2.72405e-19
1.87693e-19
1.29221e-19
8.95237e-20
6.34597e-20
4.7631e-20
3.99702e-20
1.12901e-19
1.22892e-19
1.45046e-19
1.80686e-19
2.32059e-19
3.02512e-19
3.96729e-19
5.21024e-19
6.83712e-19
8.95576e-19
1.17045e-18
1.52598e-18
1.98453e-18
2.57432e-18
3.33091e-18
4.29887e-18
5.53398e-18
7.10578e-18
9.10072e-18
1.1626e-17
1.4814e-17
1.88281e-17
2.38685e-17
3.0181e-17
3.80653e-17
4.78863e-17
6.00868e-17
7.52025e-17
9.38794e-17
1.16894e-16
1.45177e-16
1.79839e-16
2.22205e-16
2.73844e-16
3.36615e-16
4.12708e-16
5.04696e-16
6.15595e-16
7.4892e-16
9.08765e-16
1.09987e-15
1.32772e-15
1.5986e-15
1.91976e-15
2.29944e-15
2.74704e-15
3.27323e-15
3.89002e-15
4.61097e-15
5.45124e-15
6.42775e-15
7.55931e-15
8.86672e-15
1.03729e-14
1.2103e-14
1.40843e-14
1.63467e-14
1.89222e-14
2.18454e-14
2.51532e-14
2.88848e-14
3.30814e-14
3.77864e-14
4.30449e-14
4.89036e-14
5.54102e-14
6.2613e-14
7.05608e-14
7.93019e-14
8.88836e-14
9.93515e-14
1.10749e-13
1.23115e-13
1.36486e-13
1.50892e-13
1.66357e-13
1.82898e-13
2.00524e-13
2.19236e-13
2.39021e-13
2.59859e-13
2.81716e-13
3.04547e-13
3.28292e-13
3.52878e-13
3.78218e-13
4.04212e-13
4.30743e-13
4.57685e-13
4.84893e-13
5.12216e-13
5.39487e-13
5.66532e-13
5.93167e-13
6.19202e-13
6.44443e-13
6.68694e-13
6.91759e-13
7.13443e-13
7.33558e-13
7.51923e-13
7.68369e-13
7.82738e-13
7.94888e-13
8.04696e-13
8.12058e-13
8.16892e-13
8.1914e-13
8.18766e-13
8.15764e-13
8.10149e-13
8.01967e-13
7.91286e-13
7.78202e-13
7.62832e-13
7.45318e-13
7.25821e-13
7.04524e-13
6.81623e-13
6.57329e-13
6.31863e-13
6.05458e-13
5.78349e-13
5.50774e-13
5.22973e-13
4.95181e-13
4.67629e-13
4.40541e-13
4.1413e-13
3.88599e-13
3.64138e-13
3.40922e-13
3.19112e-13
2.98852e-13
2.80271e-13
2.63479e-13
2.48572e-13
2.35626e-13
2.24704e-13
2.15849e-13
2.09089e-13
2.04436e-13
2.01887e-13
2.01421e-13
2.03004e-13
2.06586e-13
2.12101e-13
2.19469e-13
2.28593e-13
2.39363e-13
2.51655e-13
2.65327e-13
2.80226e-13
2.96184e-13
3.13021e-13
3.30544e-13
3.48551e-13
3.66829e-13
3.85162e-13
4.03323e-13
4.21089e-13
4.38232e-13
4.54532e-13
4.69771e-13
4.83743e-13
4.96254e-13
5.07128e-13
5.16204e-13
5.23346e-13
5.2844e-13
5.31401e-13
5.3217e-13
5.30717e-13
5.27043e-13
5.21178e-13
5.1318e-13
5.03137e-13
4.91162e-13
4.77392e-13
4.61983e-13
4.45111e-13
4.26966e-13
4.07749e-13
3.87664e-13
3.66924e-13
3.45736e-13
3.24304e-13
3.02826e-13
2.81488e-13
2.60461e-13
2.39904e-13
2.19955e-13
2.00736e-13
1.82351e-13
1.64882e-13
1.48394e-13
1.32932e-13
1.18524e-13
1.05182e-13
9.29028e-14
8.16703e-14
7.14564e-14
6.22235e-14
5.39261e-14
4.65126e-14
3.99267e-14
3.41094e-14
2.89999e-14
2.45374e-14
2.06616e-14
1.7314e-14
1.44388e-14
1.19827e-14
9.89617e-15
8.13328e-15
6.65191e-15
5.41384e-15
4.38471e-15
3.53386e-15
2.83418e-15
2.2619e-15
1.79632e-15
1.41956e-15
1.11631e-15
8.73526e-16
6.80175e-16
5.2701e-16
4.0632e-16
3.11721e-16
2.37964e-16
1.80761e-16
1.36628e-16
1.02759e-16
7.6902e-17
5.7266e-17
4.24321e-17
3.12845e-17
2.2951e-17
1.67535e-17
1.21688e-17
8.79466e-18
6.32446e-18
4.52543e-18
3.22201e-18
2.28256e-18
1.60898e-18
1.12853e-18
7.87626e-19
5.47044e-19
3.78237e-19
2.606e-19
1.79407e-19
1.24287e-19
8.80978e-20
6.61207e-20
5.54843e-20
1.88981e-19
2.05695e-19
2.42759e-19
3.02386e-19
3.88333e-19
5.06193e-19
6.63797e-19
8.71696e-19
1.14379e-18
1.49809e-18
1.95773e-18
2.55215e-18
3.31872e-18
4.30459e-18
5.56909e-18
7.18665e-18
9.25035e-18
1.18762e-17
1.52085e-17
1.94258e-17
2.47492e-17
3.14505e-17
3.98639e-17
5.03985e-17
6.35534e-17
7.99363e-17
1.00284e-16
1.25488e-16
1.56622e-16
1.94977e-16
2.421e-16
2.99837e-16
3.70385e-16
4.5635e-16
5.60814e-16
6.87409e-16
8.40398e-16
1.02477e-15
1.24636e-15
1.51192e-15
1.8293e-15
2.20754e-15
2.65705e-15
3.18976e-15
3.81926e-15
4.56105e-15
5.43265e-15
6.45386e-15
7.6469e-15
9.03669e-15
1.0651e-14
1.25205e-14
1.46794e-14
1.7165e-14
2.00183e-14
2.32841e-14
2.70106e-14
3.12502e-14
3.60589e-14
4.14963e-14
4.76258e-14
5.45142e-14
6.22311e-14
7.0849e-14
8.04427e-14
9.10884e-14
1.02863e-13
1.15844e-13
1.30108e-13
1.45729e-13
1.62777e-13
1.81322e-13
2.01422e-13
2.23132e-13
2.46497e-13
2.71553e-13
2.98321e-13
3.2681e-13
3.57017e-13
3.88916e-13
4.22469e-13
4.57616e-13
4.94276e-13
5.32348e-13
5.71709e-13
6.12213e-13
6.53692e-13
6.95956e-13
7.38794e-13
7.81974e-13
8.25246e-13
8.68343e-13
9.10982e-13
9.52868e-13
9.93699e-13
1.03316e-12
1.07095e-12
1.10676e-12
1.14027e-12
1.17119e-12
1.19926e-12
1.22419e-12
1.24575e-12
1.26374e-12
1.27795e-12
1.28824e-12
1.2945e-12
1.29664e-12
1.29462e-12
1.28845e-12
1.27816e-12
1.26385e-12
1.24562e-12
1.22365e-12
1.19814e-12
1.16931e-12
1.13744e-12
1.10282e-12
1.06576e-12
1.02661e-12
9.85717e-13
9.4345e-13
9.00181e-13
8.56283e-13
8.12131e-13
7.6809e-13
7.2452e-13
6.81763e-13
6.40148e-13
5.99984e-13
5.61557e-13
5.25133e-13
4.9095e-13
4.59225e-13
4.30144e-13
4.0387e-13
3.80538e-13
3.60257e-13
3.43109e-13
3.29152e-13
3.18418e-13
3.10915e-13
3.06625e-13
3.0551e-13
3.07507e-13
3.12528e-13
3.20466e-13
3.31191e-13
3.44549e-13
3.60366e-13
3.78445e-13
3.98571e-13
4.20506e-13
4.43994e-13
4.68759e-13
4.94512e-13
5.20946e-13
5.47744e-13
5.74578e-13
6.01117e-13
6.27024e-13
6.51967e-13
6.75618e-13
6.97659e-13
7.1779e-13
7.35728e-13
7.51216e-13
7.64025e-13
7.73961e-13
7.80862e-13
7.84609e-13
7.85124e-13
7.82371e-13
7.76358e-13
7.67137e-13
7.54801e-13
7.39485e-13
7.21361e-13
7.00635e-13
6.77543e-13
6.52347e-13
6.25327e-13
5.9678e-13
5.67011e-13
5.36327e-13
5.05034e-13
4.73432e-13
4.41806e-13
4.10426e-13
3.79543e-13
3.49384e-13
3.20149e-13
2.92013e-13
2.65123e-13
2.39597e-13
2.15524e-13
1.92968e-13
1.71967e-13
1.52534e-13
1.34663e-13
1.18326e-13
1.03481e-13
9.00699e-14
7.80255e-14
6.72705e-14
5.77217e-14
4.92919e-14
4.18918e-14
3.5432e-14
2.98244e-14
2.49834e-14
2.08273e-14
1.72787e-14
1.42653e-14
1.17204e-14
9.58274e-15
7.79687e-15
6.31293e-15
5.08649e-15
4.07831e-15
3.25397e-15
2.58354e-15
2.04119e-15
1.60477e-15
1.25547e-15
9.77367e-16
7.57122e-16
5.83619e-16
4.47657e-16
3.41674e-16
2.59494e-16
1.96106e-16
1.47469e-16
1.10345e-16
8.21581e-17
6.08679e-17
4.4871e-17
3.29142e-17
2.40236e-17
1.74473e-17
1.26083e-17
9.06604e-18
6.48654e-18
4.61787e-18
3.27117e-18
2.30567e-18
1.61706e-18
1.12852e-18
7.83761e-19
5.41878e-19
3.73327e-19
2.57001e-19
1.78032e-19
1.26188e-19
9.47044e-20
7.94672e-20
3.17012e-19
3.45033e-19
4.07177e-19
5.07152e-19
6.5125e-19
8.48843e-19
1.11305e-18
1.46154e-18
1.91759e-18
2.51138e-18
3.28162e-18
4.27763e-18
5.56193e-18
7.21344e-18
9.33146e-18
1.20405e-17
1.54962e-17
1.98926e-17
2.54709e-17
3.25299e-17
4.14384e-17
5.26512e-17
6.67261e-17
8.43461e-17
1.06345e-16
1.33736e-16
1.67749e-16
2.09869e-16
2.61889e-16
3.25959e-16
4.04655e-16
5.01051e-16
6.18805e-16
7.62253e-16
9.36519e-16
1.14764e-15
1.4027e-15
1.70999e-15
2.07917e-15
2.52146e-15
3.04986e-15
3.67936e-15
4.42719e-15
5.31306e-15
6.35948e-15
7.59202e-15
9.03962e-15
1.07349e-14
1.27145e-14
1.50195e-14
1.76954e-14
2.07929e-14
2.43678e-14
2.84815e-14
3.32012e-14
3.85998e-14
4.47564e-14
5.17563e-14
5.96906e-14
6.86565e-14
7.87568e-14
9.00995e-14
1.02797e-13
1.16967e-13
1.3273e-13
1.50207e-13
1.69521e-13
1.90797e-13
2.14156e-13
2.39714e-13
2.67583e-13
2.97868e-13
3.30664e-13
3.66051e-13
4.04097e-13
4.44852e-13
4.88346e-13
5.34586e-13
5.83555e-13
6.35209e-13
6.89473e-13
7.46241e-13
8.05375e-13
8.66703e-13
9.30016e-13
9.9507e-13
1.06159e-12
1.12925e-12
1.19772e-12
1.2666e-12
1.3355e-12
1.40398e-12
1.47158e-12
1.53783e-12
1.60224e-12
1.66431e-12
1.72355e-12
1.77947e-12
1.83159e-12
1.87945e-12
1.9226e-12
1.96065e-12
1.99321e-12
2.01997e-12
2.04065e-12
2.05501e-12
2.0629e-12
2.06421e-12
2.0589e-12
2.04699e-12
2.02855e-12
2.00376e-12
1.97283e-12
1.93602e-12
1.89368e-12
1.84619e-12
1.79399e-12
1.73756e-12
1.67742e-12
1.6141e-12
1.54818e-12
1.48023e-12
1.41085e-12
1.34063e-12
1.27016e-12
1.2e-12
1.13072e-12
1.06285e-12
9.96901e-13
9.33339e-13
8.72606e-13
8.15104e-13
7.61195e-13
7.11198e-13
6.65393e-13
6.24017e-13
5.87264e-13
5.55288e-13
5.28201e-13
5.06076e-13
4.88947e-13
4.76812e-13
4.69629e-13
4.67323e-13
4.69784e-13
4.76865e-13
4.88389e-13
5.04144e-13
5.23885e-13
5.47335e-13
5.74189e-13
6.04106e-13
6.3672e-13
6.71637e-13
7.08434e-13
7.46668e-13
7.85874e-13
8.25572e-13
8.65269e-13
9.04463e-13
9.42654e-13
9.79343e-13
1.01404e-12
1.04628e-12
1.07562e-12
1.10163e-12
1.12395e-12
1.14225e-12
1.15623e-12
1.16567e-12
1.1704e-12
1.17032e-12
1.16538e-12
1.1556e-12
1.14108e-12
1.12196e-12
1.09845e-12
1.07081e-12
1.03936e-12
1.00445e-12
9.6648e-13
9.25867e-13
8.83054e-13
8.38494e-13
7.92644e-13
7.45958e-13
6.98876e-13
6.51819e-13
6.05186e-13
5.59342e-13
5.14619e-13
4.7131e-13
4.29669e-13
3.89906e-13
3.52191e-13
3.16652e-13
2.83378e-13
2.5242e-13
2.23795e-13
1.97487e-13
1.73454e-13
1.51628e-13
1.31923e-13
1.14236e-13
9.84511e-14
8.44441e-14
7.20849e-14
6.12408e-14
5.17792e-14
4.35694e-14
3.64853e-14
3.04059e-14
2.52174e-14
2.08132e-14
1.70951e-14
1.39732e-14
1.1366e-14
9.20027e-15
7.41098e-15
5.94058e-15
4.73867e-15
3.76146e-15
2.97116e-15
2.33541e-15
1.82669e-15
1.42177e-15
1.10117e-15
8.48663e-16
6.50839e-16
4.96668e-16
3.77147e-16
2.84974e-16
2.14264e-16
1.60302e-16
1.19338e-16
8.84011e-17
6.51601e-17
4.77911e-17
3.48781e-17
2.53278e-17
1.83012e-17
1.31583e-17
9.41363e-18
6.70114e-18
4.74652e-18
3.34532e-18
2.34605e-18
1.63715e-18
1.13695e-18
7.86019e-19
5.415e-19
3.72754e-19
2.58205e-19
1.83005e-19
1.37339e-19
1.15238e-19
5.30217e-19
5.77054e-19
6.80941e-19
8.4807e-19
1.08895e-18
1.41924e-18
1.86083e-18
2.44326e-18
3.20539e-18
4.19761e-18
5.48453e-18
7.14851e-18
9.29387e-18
1.20523e-17
1.55895e-17
2.01131e-17
2.58828e-17
3.32221e-17
4.2533e-17
5.43134e-17
6.91784e-17
8.78849e-17
1.11362e-16
1.40748e-16
1.77429e-16
2.23092e-16
2.79783e-16
3.49973e-16
4.36639e-16
5.43356e-16
6.74404e-16
8.34887e-16
1.03088e-15
1.26956e-15
1.55945e-15
1.91055e-15
2.33458e-15
2.84529e-15
3.45866e-15
4.19326e-15
5.07057e-15
6.11537e-15
7.35609e-15
8.82528e-15
1.056e-14
1.26025e-14
1.50003e-14
1.78072e-14
2.10834e-14
2.48962e-14
2.93205e-14
3.44392e-14
4.03439e-14
4.71349e-14
5.49219e-14
6.38241e-14
7.39705e-14
8.54996e-14
9.85597e-14
1.13308e-13
1.29912e-13
1.48546e-13
1.69392e-13
1.92638e-13
2.18477e-13
2.47105e-13
2.78719e-13
3.13516e-13
3.51687e-13
3.93417e-13
4.38881e-13
4.88243e-13
5.41646e-13
5.99215e-13
6.6105e-13
7.27221e-13
7.97765e-13
8.72683e-13
9.51935e-13
1.03544e-12
1.12305e-12
1.2146e-12
1.30984e-12
1.40849e-12
1.51019e-12
1.61453e-12
1.72106e-12
1.82926e-12
1.93856e-12
2.04833e-12
2.15792e-12
2.26662e-12
2.3737e-12
2.47838e-12
2.5799e-12
2.67746e-12
2.77027e-12
2.85756e-12
2.93857e-12
3.01257e-12
3.07888e-12
3.13687e-12
3.18597e-12
3.22569e-12
3.25561e-12
3.27539e-12
3.28481e-12
3.28373e-12
3.2721e-12
3.25e-12
3.21759e-12
3.17516e-12
3.12306e-12
3.06178e-12
2.99186e-12
2.91395e-12
2.82876e-12
2.73706e-12
2.63969e-12
2.53752e-12
2.43145e-12
2.32241e-12
2.21134e-12
2.09917e-12
1.98682e-12
1.87518e-12
1.76514e-12
1.6575e-12
1.55305e-12
1.45253e-12
1.35659e-12
1.26586e-12
1.18087e-12
1.10211e-12
1.02999e-12
9.64847e-13
9.06971e-13
8.56574e-13
8.13807e-13
7.78761e-13
7.51466e-13
7.31894e-13
7.19962e-13
7.15531e-13
7.18412e-13
7.28362e-13
7.45088e-13
7.68251e-13
7.97459e-13
8.32277e-13
8.72223e-13
9.1677e-13
9.65348e-13
1.01735e-12
1.07213e-12
1.12901e-12
1.18728e-12
1.24622e-12
1.30507e-12
1.3631e-12
1.41953e-12
1.47363e-12
1.52467e-12
1.57196e-12
1.61483e-12
1.65267e-12
1.68493e-12
1.71112e-12
1.73083e-12
1.74374e-12
1.74961e-12
1.7483e-12
1.73975e-12
1.72401e-12
1.70123e-12
1.67164e-12
1.63557e-12
1.59341e-12
1.54565e-12
1.49283e-12
1.43554e-12
1.3744e-12
1.31009e-12
1.24327e-12
1.17462e-12
1.10483e-12
1.03453e-12
9.6436e-13
8.94897e-13
8.26682e-13
7.60199e-13
6.95878e-13
6.34088e-13
5.75133e-13
5.19259e-13
4.66649e-13
4.17427e-13
3.71663e-13
3.29374e-13
2.90534e-13
2.55073e-13
2.22888e-13
1.93847e-13
1.67794e-13
1.44555e-13
1.23944e-13
1.05767e-13
8.98249e-14
7.59217e-14
6.38635e-14
5.34628e-14
4.4541e-14
3.69294e-14
3.0471e-14
2.50206e-14
2.04458e-14
1.66265e-14
1.3455e-14
1.08356e-14
8.68363e-15
6.92515e-15
5.49583e-15
4.3402e-15
3.4108e-15
2.6673e-15
2.07564e-15
1.6073e-15
1.23851e-15
9.49652e-16
7.24578e-16
5.50125e-16
4.15615e-16
3.12444e-16
2.33724e-16
1.73973e-16
1.28857e-16
9.49684e-17
6.96458e-17
5.08221e-17
3.69022e-17
2.6662e-17
1.91678e-17
1.37117e-17
9.75992e-18
6.91256e-18
4.87157e-18
3.41617e-18
2.38376e-18
1.65534e-18
1.14434e-18
7.88313e-19
5.42625e-19
3.75855e-19
2.66377e-19
1.99898e-19
1.67723e-19
8.82827e-19
9.60763e-19
1.13365e-18
1.41178e-18
1.81263e-18
2.36223e-18
3.097e-18
4.06603e-18
5.33392e-18
6.98442e-18
9.12495e-18
1.18923e-17
1.54599e-17
2.00465e-17
2.59272e-17
3.34469e-17
4.30367e-17
5.52337e-17
7.0705e-17
9.02767e-17
1.14969e-16
1.46038e-16
1.85024e-16
2.33812e-16
2.94701e-16
3.70485e-16
4.64553e-16
5.80995e-16
7.2474e-16
9.01702e-16
1.11896e-15
1.38495e-15
1.70971e-15
2.10512e-15
2.58521e-15
3.1665e-15
3.86836e-15
4.71342e-15
5.72803e-15
6.94278e-15
8.39304e-15
1.01195e-14
1.21691e-14
1.45951e-14
1.74586e-14
2.08286e-14
2.47833e-14
2.94107e-14
3.48094e-14
4.10895e-14
4.83733e-14
5.67964e-14
6.65079e-14
7.76714e-14
9.04655e-14
1.05084e-13
1.21736e-13
1.40646e-13
1.62054e-13
1.86216e-13
2.134e-13
2.43887e-13
2.7797e-13
3.15951e-13
3.58139e-13
4.04847e-13
4.56388e-13
5.13073e-13
5.75204e-13
6.43074e-13
7.16956e-13
7.971e-13
8.83729e-13
9.77031e-13
1.07715e-12
1.18418e-12
1.29818e-12
1.41912e-12
1.54691e-12
1.68141e-12
1.82237e-12
1.96949e-12
2.12235e-12
2.28047e-12
2.44326e-12
2.61006e-12
2.7801e-12
2.95253e-12
3.12643e-12
3.3008e-12
3.47454e-12
3.64654e-12
3.81561e-12
3.98052e-12
4.14003e-12
4.29289e-12
4.43784e-12
4.57367e-12
4.69917e-12
4.81323e-12
4.91477e-12
5.00283e-12
5.07654e-12
5.13514e-12
5.17802e-12
5.2047e-12
5.21483e-12
5.20827e-12
5.18498e-12
5.14513e-12
5.08905e-12
5.01719e-12
4.93021e-12
4.82888e-12
4.71413e-12
4.587e-12
4.44864e-12
4.30032e-12
4.14336e-12
3.97917e-12
3.80918e-12
3.63486e-12
3.45768e-12
3.27912e-12
3.1006e-12
2.92354e-12
2.74927e-12
2.57908e-12
2.41417e-12
2.25565e-12
2.10455e-12
1.96178e-12
1.82817e-12
1.70442e-12
1.59116e-12
1.48888e-12
1.39798e-12
1.31877e-12
1.25144e-12
1.19609e-12
1.15275e-12
1.12132e-12
1.10167e-12
1.09353e-12
1.09659e-12
1.11045e-12
1.13463e-12
1.16859e-12
1.21172e-12
1.26331e-12
1.32263e-12
1.38886e-12
1.4611e-12
1.53844e-12
1.61988e-12
1.70439e-12
1.79089e-12
1.87829e-12
1.96545e-12
2.05126e-12
2.13457e-12
2.21427e-12
2.28929e-12
2.35858e-12
2.42117e-12
2.47616e-12
2.52274e-12
2.5602e-12
2.58794e-12
2.6055e-12
2.61255e-12
2.60888e-12
2.59445e-12
2.56935e-12
2.53381e-12
2.48821e-12
2.43303e-12
2.3689e-12
2.29654e-12
2.21677e-12
2.13047e-12
2.03858e-12
1.94211e-12
1.84204e-12
1.7394e-12
1.63518e-12
1.53035e-12
1.42582e-12
1.32245e-12
1.22104e-12
1.1223e-12
1.02686e-12
9.35243e-13
8.47902e-13
7.65187e-13
6.8736e-13
6.14594e-13
5.46984e-13
4.84549e-13
4.27238e-13
3.74945e-13
3.2751e-13
2.84731e-13
2.46374e-13
2.12176e-13
1.81861e-13
1.55137e-13
1.3171e-13
1.11288e-13
9.35839e-14
7.83193e-14
6.52302e-14
5.40676e-14
4.45996e-14
3.66121e-14
2.991e-14
2.43166e-14
1.96735e-14
1.58396e-14
1.2691e-14
1.01187e-14
8.02854e-15
6.33903e-15
4.98061e-15
3.89416e-15
3.02979e-15
2.34573e-15
1.80721e-15
1.38548e-15
1.05694e-15
8.02345e-16
6.06075e-16
4.55561e-16
3.40736e-16
2.53595e-16
1.87808e-16
1.38399e-16
1.01485e-16
7.40477e-17
5.3761e-17
3.88387e-17
2.79193e-17
1.99703e-17
1.42136e-17
1.00661e-17
7.09351e-18
4.97395e-18
3.47054e-18
2.40988e-18
1.66586e-18
1.14751e-18
7.89834e-19
5.47059e-19
3.87692e-19
2.90921e-19
2.44087e-19
1.46268e-18
1.59172e-18
1.87801e-18
2.33857e-18
3.00232e-18
3.91233e-18
5.12887e-18
6.73312e-18
8.83196e-18
1.15639e-17
1.51066e-17
1.96863e-17
2.55896e-17
3.31781e-17
4.29066e-17
5.53451e-17
7.12055e-17
9.13752e-17
1.16956e-16
1.49312e-16
1.90126e-16
2.41472e-16
3.05892e-16
3.86495e-16
4.87071e-16
6.12228e-16
7.67549e-16
9.59775e-16
1.19702e-15
1.48903e-15
1.84744e-15
2.28615e-15
2.82165e-15
3.47349e-15
4.26472e-15
5.22246e-15
6.37852e-15
7.77004e-15
9.44024e-15
1.14393e-14
1.3825e-14
1.66643e-14
2.00336e-14
2.40204e-14
2.87242e-14
3.42581e-14
4.07494e-14
4.83417e-14
5.71957e-14
6.74906e-14
7.94255e-14
9.32206e-14
1.09118e-13
1.27383e-13
1.48305e-13
1.72198e-13
1.99399e-13
2.30272e-13
2.65203e-13
3.04603e-13
3.48903e-13
3.98554e-13
4.54026e-13
5.158e-13
5.84369e-13
6.6023e-13
7.4388e-13
8.35808e-13
9.36492e-13
1.04639e-12
1.16592e-12
1.29547e-12
1.43538e-12
1.58593e-12
1.74734e-12
1.91973e-12
2.10315e-12
2.29754e-12
2.50273e-12
2.71846e-12
2.9443e-12
3.17973e-12
3.42405e-12
3.67646e-12
3.93599e-12
4.20154e-12
4.47185e-12
4.74557e-12
5.02116e-12
5.29702e-12
5.57141e-12
5.8425e-12
6.10841e-12
6.36719e-12
6.61686e-12
6.85543e-12
7.08094e-12
7.29146e-12
7.48514e-12
7.6602e-12
7.81502e-12
7.9481e-12
8.05811e-12
8.14393e-12
8.20463e-12
8.23953e-12
8.24817e-12
8.23036e-12
8.18615e-12
8.11586e-12
8.02007e-12
7.89961e-12
7.75554e-12
7.58917e-12
7.402e-12
7.19573e-12
6.97224e-12
6.73353e-12
6.48175e-12
6.2191e-12
5.94788e-12
5.67039e-12
5.38895e-12
5.10585e-12
4.82334e-12
4.5436e-12
4.26871e-12
4.00063e-12
3.74121e-12
3.49215e-12
3.255e-12
3.03115e-12
2.82183e-12
2.6281e-12
2.45085e-12
2.29081e-12
2.14855e-12
2.02447e-12
1.91884e-12
1.83176e-12
1.76321e-12
1.71301e-12
1.68088e-12
1.66639e-12
1.66902e-12
1.68809e-12
1.72287e-12
1.77246e-12
1.83591e-12
1.91213e-12
1.99995e-12
2.09812e-12
2.20527e-12
2.31998e-12
2.44073e-12
2.56597e-12
2.69406e-12
2.82334e-12
2.95212e-12
3.07871e-12
3.2014e-12
3.31855e-12
3.42855e-12
3.52986e-12
3.62105e-12
3.70077e-12
3.76786e-12
3.82128e-12
3.86017e-12
3.88385e-12
3.89188e-12
3.88398e-12
3.8601e-12
3.82042e-12
3.7653e-12
3.69533e-12
3.61126e-12
3.51404e-12
3.40476e-12
3.28464e-12
3.15502e-12
3.0173e-12
2.87297e-12
2.7235e-12
2.57041e-12
2.41516e-12
2.25919e-12
2.10383e-12
1.95037e-12
1.79995e-12
1.65363e-12
1.5123e-12
1.37676e-12
1.24763e-12
1.12544e-12
1.01054e-12
9.03187e-13
8.03504e-13
7.11505e-13
6.27108e-13
5.50142e-13
4.80364e-13
4.17468e-13
3.61102e-13
3.10873e-13
2.66366e-13
2.27149e-13
1.92787e-13
1.62844e-13
1.36897e-13
1.14533e-13
9.53647e-14
7.90233e-14
6.51675e-14
5.34825e-14
4.3681e-14
3.55035e-14
2.87174e-14
2.31158e-14
1.85166e-14
1.47604e-14
1.17089e-14
9.24304e-15
7.26088e-15
5.67594e-15
4.41528e-15
3.41781e-15
2.63271e-15
2.01802e-15
1.53925e-15
1.16829e-15
8.82377e-16
6.63153e-16
4.95938e-16
3.69058e-16
2.73284e-16
2.01365e-16
1.47639e-16
1.07713e-16
7.81949e-17
5.64851e-17
4.06007e-17
2.90386e-17
2.06662e-17
1.46347e-17
1.03122e-17
7.23036e-18
5.04461e-18
3.50266e-18
2.42112e-18
1.66767e-18
1.1478e-18
7.9495e-19
5.63338e-19
4.22701e-19
3.54638e-19
2.41113e-18
2.6237e-18
3.09537e-18
3.85417e-18
4.94768e-18
6.44683e-18
8.45079e-18
1.10932e-17
1.455e-17
1.90491e-17
2.48828e-17
3.24233e-17
4.2142e-17
5.46337e-17
7.06463e-17
9.11167e-17
1.17216e-16
1.50401e-16
1.92483e-16
2.45703e-16
3.12826e-16
3.97256e-16
5.03165e-16
6.35657e-16
8.00952e-16
1.00661e-15
1.26178e-15
1.57752e-15
1.96712e-15
2.44655e-15
3.03487e-15
3.75483e-15
4.63342e-15
5.70261e-15
7.0001e-15
8.57024e-15
1.0465e-14
1.27449e-14
1.54807e-14
1.8754e-14
2.26594e-14
2.73055e-14
3.28171e-14
3.93365e-14
4.70256e-14
5.6068e-14
6.66707e-14
7.90668e-14
9.35166e-14
1.10311e-13
1.29772e-13
1.52255e-13
1.78153e-13
2.07893e-13
2.41942e-13
2.80806e-13
3.25027e-13
3.75189e-13
4.31913e-13
4.95856e-13
5.67708e-13
6.4819e-13
7.38048e-13
8.3805e-13
9.48977e-13
1.07161e-12
1.20674e-12
1.35514e-12
1.51755e-12
1.69467e-12
1.88717e-12
2.09563e-12
2.32058e-12
2.56242e-12
2.82146e-12
3.09787e-12
3.39168e-12
3.70275e-12
4.03079e-12
4.37529e-12
4.73554e-12
5.11065e-12
5.49948e-12
5.90068e-12
6.31267e-12
6.73363e-12
7.16156e-12
7.59421e-12
8.02915e-12
8.46378e-12
8.8953e-12
9.32083e-12
9.73735e-12
1.01418e-11
1.05309e-11
1.09018e-11
1.12512e-11
1.15761e-11
1.18737e-11
1.21412e-11
1.23761e-11
1.25762e-11
1.27394e-11
1.2864e-11
1.29487e-11
1.29924e-11
1.29947e-11
1.29553e-11
1.28744e-11
1.27526e-11
1.25909e-11
1.23908e-11
1.2154e-11
1.18826e-11
1.15792e-11
1.12464e-11
1.08873e-11
1.05051e-11
1.01032e-11
9.68503e-12
9.25426e-12
8.81451e-12
8.36939e-12
7.92248e-12
7.47728e-12
7.03713e-12
6.60525e-12
6.18467e-12
5.77818e-12
5.38839e-12
5.01762e-12
4.66797e-12
4.34127e-12
4.03909e-12
3.76272e-12
3.51322e-12
3.29139e-12
3.09777e-12
2.93268e-12
2.79622e-12
2.68826e-12
2.60848e-12
2.55635e-12
2.53116e-12