/*--------------------------------*- C++ -*----------------------------------*\
| =========                 |                                                 |
| \\      /  F ield         | OpenFOAM: The Open Source CFD Toolbox           |
|  \\    /   O peration     | Version:  v2012                                 |
|   \\  /    A nd           | Website:  www.openfoam.com                      |
|    \\/     M anipulation  |                                                 |
\*---------------------------------------------------------------------------*/
FoamFile
{
    version     2.0;
    format      ascii;
    class       volScalarField;
    location    "0";
    object      p;
}
// * * * * * * * * * * * * * * * * * * * * * * * * * * * * * * * * * * * * * //

dimensions      [0 2 -2 0 0 0 0];


internalField   nonuniform List<scalar> 
4000
(
3.00808e-13
3.00357e-13
3.04728e-13
3.05491e-13
2.98906e-13
3.11643e-13
3.01525e-13
2.94706e-13
2.98916e-13
2.95717e-13
2.97511e-13
2.89519e-13
2.90132e-13
2.79516e-13
2.70172e-13
2.54531e-13
2.56088e-13
2.53471e-13
2.48272e-13
2.35901e-13
2.29281e-13
2.43371e-13
2.44361e-13
2.37357e-13
2.25037e-13
2.20771e-13
2.18416e-13
2.24449e-13
2.27955e-13
2.12631e-13
1.9778e-13
1.97801e-13
2.12874e-13
2.17253e-13
2.07633e-13
2.08895e-13
2.01668e-13
1.90387e-13
1.75719e-13
1.72508e-13
1.83028e-13
1.83371e-13
1.81574e-13
1.85652e-13
1.85201e-13
1.87693e-13
1.78703e-13
1.77398e-13
1.86383e-13
1.8467e-13
1.94798e-13
1.96243e-13
1.97299e-13
1.94748e-13
1.92208e-13
1.91212e-13
1.89589e-13
1.89383e-13
1.95007e-13
1.95035e-13
1.95397e-13
1.89845e-13
1.75892e-13
1.6631e-13
1.64036e-13
1.58059e-13
1.63345e-13
1.57416e-13
1.51505e-13
1.43132e-13
1.49169e-13
1.39042e-13
1.22384e-13
1.16603e-13
1.20058e-13
1.23146e-13
1.27768e-13
1.22448e-13
1.05309e-13
9.04588e-14
9.17177e-14
9.11862e-14
8.35893e-14
7.67744e-14
7.11599e-14
6.38535e-14
6.72137e-14
7.01749e-14
6.16857e-14
5.72238e-14
5.22486e-14
4.81879e-14
4.42634e-14
3.66306e-14
3.05883e-14
2.36513e-14
1.9713e-14
2.0122e-14
1.47794e-14
5.04111e-15
3.01053e-13
2.98655e-13
3.03911e-13
3.04669e-13
3.03774e-13
3.09009e-13
3.03429e-13
2.98436e-13
2.99738e-13
2.94379e-13
2.92263e-13
2.88773e-13
2.91355e-13
2.78652e-13
2.7143e-13
2.62116e-13
2.56492e-13
2.48672e-13
2.44519e-13
2.41004e-13
2.40738e-13
2.37411e-13
2.35089e-13
2.3397e-13
2.29918e-13
2.20128e-13
2.17921e-13
2.23236e-13
2.24122e-13
2.1418e-13
2.05033e-13
2.06063e-13
2.09362e-13
2.08648e-13
2.0475e-13
2.06218e-13
2.00597e-13
1.92107e-13
1.81236e-13
1.76945e-13
1.83071e-13
1.83783e-13
1.76085e-13
1.86941e-13
1.84578e-13
1.84454e-13
1.79246e-13
1.82282e-13
1.84759e-13
1.82828e-13
1.90487e-13
1.96194e-13
2.01572e-13
1.9679e-13
2.00089e-13
1.91238e-13
1.81093e-13
1.86205e-13
1.90012e-13
1.97937e-13
1.97203e-13
1.92985e-13
1.77755e-13
1.66658e-13
1.6539e-13
1.60332e-13
1.58458e-13
1.55093e-13
1.5636e-13
1.48304e-13
1.45861e-13
1.3492e-13
1.24191e-13
1.23558e-13
1.20441e-13
1.21657e-13
1.22884e-13
1.1705e-13
1.03019e-13
9.31096e-14
9.47995e-14
9.19163e-14
8.35639e-14
7.70028e-14
7.42694e-14
6.64424e-14
6.48471e-14
6.15784e-14
6.16776e-14
5.96323e-14
5.42768e-14
4.9659e-14
4.65123e-14
3.77586e-14
2.85922e-14
2.43746e-14
1.95654e-14
1.85763e-14
1.10208e-14
5.20204e-15
3.02601e-13
3.03623e-13
2.99598e-13
3.06565e-13
3.07898e-13
3.0711e-13
3.01608e-13
2.97782e-13
2.9917e-13
2.98354e-13
2.93583e-13
2.84976e-13
2.86669e-13
2.82513e-13
2.77103e-13
2.6696e-13
2.53579e-13
2.45685e-13
2.41895e-13
2.4259e-13
2.41348e-13
2.38108e-13
2.36586e-13
2.3375e-13
2.27146e-13
2.22698e-13
2.21981e-13
2.23611e-13
2.22582e-13
2.13483e-13
2.089e-13
2.07673e-13
2.07962e-13
2.08675e-13
2.09056e-13
2.04319e-13
1.99829e-13
1.92923e-13
1.85475e-13
1.73189e-13
1.80885e-13
1.79076e-13
1.81001e-13
1.88069e-13
1.82256e-13
1.78193e-13
1.72509e-13
1.80917e-13
1.86276e-13
1.88306e-13
1.92107e-13
1.96032e-13
1.9352e-13
1.92754e-13
1.93843e-13
1.8954e-13
1.83882e-13
1.90776e-13
1.96985e-13
1.97958e-13
1.99373e-13
1.88422e-13
1.76595e-13
1.67094e-13
1.6337e-13
1.61827e-13
1.58387e-13
1.54933e-13
1.55367e-13
1.43871e-13
1.41692e-13
1.35425e-13
1.25725e-13
1.2229e-13
1.1971e-13
1.21194e-13
1.22359e-13
1.14676e-13
1.04729e-13
9.40383e-14
1.00026e-13
9.13425e-14
7.66885e-14
7.57399e-14
7.44552e-14
6.87973e-14
6.90105e-14
6.68996e-14
6.23431e-14
5.58479e-14
4.68644e-14
5.2315e-14
4.55525e-14
3.80132e-14
2.7857e-14
2.33068e-14
2.07722e-14
1.71814e-14
1.78086e-14
7.82714e-15
3.03595e-13
3.06845e-13
3.02504e-13
3.02702e-13
3.02077e-13
3.0858e-13
3.01476e-13
3.05899e-13
2.9937e-13
2.97612e-13
2.92095e-13
2.86279e-13
2.84958e-13
2.81416e-13
2.8136e-13
2.63825e-13
2.50867e-13
2.45516e-13
2.45532e-13
2.40879e-13
2.42199e-13
2.42955e-13
2.42194e-13
2.25906e-13
2.22021e-13
2.19464e-13
2.20368e-13
2.2061e-13
2.22403e-13
2.18724e-13
2.17966e-13
2.08685e-13
2.06947e-13
2.05749e-13
2.06258e-13
2.01314e-13
1.97156e-13
1.90808e-13
1.87048e-13
1.77873e-13
1.80365e-13
1.86174e-13
1.85634e-13
1.81527e-13
1.7954e-13
1.75182e-13
1.73764e-13
1.81837e-13
1.83482e-13
1.81804e-13
1.90904e-13
1.9257e-13
1.96353e-13
1.94794e-13
1.91224e-13
1.87592e-13
1.87644e-13
1.86712e-13
1.91461e-13
1.95239e-13
1.93386e-13
1.92829e-13
1.8243e-13
1.72951e-13
1.63519e-13
1.61316e-13
1.5522e-13
1.52058e-13
1.5216e-13
1.50555e-13
1.45554e-13
1.37974e-13
1.29062e-13
1.23515e-13
1.18334e-13
1.18968e-13
1.20797e-13
1.11016e-13
1.04435e-13
9.47162e-14
9.7364e-14
9.40501e-14
8.19772e-14
7.38339e-14
7.2172e-14
7.17341e-14
6.62853e-14
6.34135e-14
6.21457e-14
5.65486e-14
4.96303e-14
5.16277e-14
4.61614e-14
3.87752e-14
2.85073e-14
2.60508e-14
2.20911e-14
1.6881e-14
1.37421e-14
5.75504e-15
3.02822e-13
3.13309e-13
3.00817e-13
3.04886e-13
3.00419e-13
3.06865e-13
3.04018e-13
3.07215e-13
3.01695e-13
2.89981e-13
2.85182e-13
2.84051e-13
2.86354e-13
2.83504e-13
2.8149e-13
2.68106e-13
2.58477e-13
2.53937e-13
2.43178e-13
2.34058e-13
2.39113e-13
2.36708e-13
2.35609e-13
2.31189e-13
2.27222e-13
2.23162e-13
2.21395e-13
2.21648e-13
2.27493e-13
2.18878e-13
2.16818e-13
2.05497e-13
2.06788e-13
2.03296e-13
2.0919e-13
2.04125e-13
1.94926e-13
1.90821e-13
1.78356e-13
1.79081e-13
1.85583e-13
1.84475e-13
1.87472e-13
1.78728e-13
1.76018e-13
1.7149e-13
1.71432e-13
1.81894e-13
1.8451e-13
1.87596e-13
1.91542e-13
1.94613e-13
1.94977e-13
1.91698e-13
1.86543e-13
1.81118e-13
1.85158e-13
1.92876e-13
1.93184e-13
1.94164e-13
1.94018e-13
1.89483e-13
1.79035e-13
1.71035e-13
1.74324e-13
1.63069e-13
1.5695e-13
1.49984e-13
1.53124e-13
1.45118e-13
1.41992e-13
1.36551e-13
1.31688e-13
1.24989e-13
1.17061e-13
1.1723e-13
1.19045e-13
1.15243e-13
1.04855e-13
9.9218e-14
9.07961e-14
9.27804e-14
8.52477e-14
7.28019e-14
7.24289e-14
6.6955e-14
6.81725e-14
6.68449e-14
6.08987e-14
5.48221e-14
4.70476e-14
5.07258e-14
4.41144e-14
4.38049e-14
3.06132e-14
2.67806e-14
2.46651e-14
1.99392e-14
1.39233e-14
1.69787e-15
3.04093e-13
3.14598e-13
3.05719e-13
2.98809e-13
3.00927e-13
3.03501e-13
3.04339e-13
3.08507e-13
3.06531e-13
2.87788e-13
2.85422e-13
2.84132e-13
2.83773e-13
2.79355e-13
2.7556e-13
2.69218e-13
2.62593e-13
2.57781e-13
2.49929e-13
2.38995e-13
2.32566e-13
2.36915e-13
2.30383e-13
2.22542e-13
2.2702e-13
2.23609e-13
2.23611e-13
2.25559e-13
2.25544e-13
2.25605e-13
2.12298e-13
2.04358e-13
2.09014e-13
2.13163e-13
2.10874e-13
2.02565e-13
1.89237e-13
1.90136e-13
1.80732e-13
1.80587e-13
1.84626e-13
1.81151e-13
1.83856e-13
1.7776e-13
1.77516e-13
1.713e-13
1.67965e-13
1.76934e-13
1.83783e-13
1.83086e-13
1.87122e-13
1.89889e-13
1.92546e-13
1.88178e-13
1.84126e-13
1.82616e-13
1.90461e-13
1.88154e-13
1.93143e-13
1.96112e-13
1.92969e-13
1.88195e-13
1.77365e-13
1.74034e-13
1.67843e-13
1.60005e-13
1.56585e-13
1.50226e-13
1.52088e-13
1.49193e-13
1.45627e-13
1.34919e-13
1.32934e-13
1.25491e-13
1.1672e-13
1.17224e-13
1.16116e-13
1.11337e-13
1.10405e-13
1.03117e-13
9.36414e-14
9.05807e-14
7.93887e-14
7.17836e-14
7.22599e-14
6.8161e-14
6.87303e-14
6.62202e-14
5.91778e-14
5.19524e-14
4.74648e-14
5.04226e-14
4.37611e-14
4.23151e-14
3.35963e-14
2.79109e-14
2.5e-14
2.32119e-14
1.20662e-14
5.74042e-16
3.1127e-13
3.13457e-13
3.06738e-13
3.03405e-13
2.94996e-13
3.0347e-13
3.09774e-13
3.0285e-13
2.98306e-13
2.9009e-13
2.8284e-13
2.84419e-13
2.84195e-13
2.84116e-13
2.78999e-13
2.70873e-13
2.63735e-13
2.54769e-13
2.40038e-13
2.33248e-13
2.3508e-13
2.34344e-13
2.36149e-13
2.32622e-13
2.29048e-13
2.233e-13
2.21095e-13
2.21532e-13
2.20518e-13
2.30731e-13
2.14046e-13
2.03919e-13
2.06602e-13
1.99777e-13
2.04979e-13
2.05709e-13
1.91959e-13
1.90486e-13
1.81733e-13
1.76393e-13
1.8303e-13
1.80939e-13
1.82412e-13
1.83534e-13
1.76642e-13
1.73963e-13
1.6519e-13
1.68792e-13
1.77672e-13
1.83832e-13
1.8715e-13
1.91262e-13
1.93092e-13
1.86529e-13
1.83188e-13
1.8301e-13
1.85398e-13
1.81429e-13
1.87102e-13
1.93222e-13
1.95995e-13
1.92449e-13
1.78903e-13
1.70105e-13
1.64323e-13
1.57751e-13
1.5322e-13
1.48521e-13
1.49167e-13
1.52402e-13
1.53195e-13
1.36484e-13
1.29723e-13
1.27319e-13
1.24205e-13
1.1859e-13
1.13083e-13
1.04956e-13
1.09932e-13
1.00644e-13
9.15883e-14
8.69288e-14
8.64267e-14
7.99347e-14
6.90926e-14
6.67271e-14
6.67944e-14
6.48702e-14
6.47663e-14
5.50009e-14
4.84831e-14
4.56657e-14
4.2135e-14
3.80864e-14
3.53594e-14
3.36449e-14
2.1765e-14
2.26377e-14
1.27668e-14
1.5667e-15
3.09516e-13
3.08467e-13
3.06003e-13
3.02751e-13
3.00971e-13
3.05997e-13
3.08625e-13
3.00975e-13
2.93804e-13
2.87587e-13
2.89408e-13
2.89882e-13
2.84504e-13
2.84723e-13
2.77716e-13
2.7331e-13
2.63239e-13
2.57967e-13
2.37415e-13
2.38947e-13
2.41539e-13
2.37057e-13
2.28456e-13
2.27405e-13
2.30929e-13
2.22617e-13
2.17683e-13
2.16279e-13
2.18911e-13
2.21953e-13
2.1417e-13
2.11962e-13
2.14683e-13
2.08377e-13
2.03805e-13
2.00836e-13
1.88059e-13
1.84872e-13
1.85392e-13
1.81722e-13
1.8036e-13
1.78252e-13
1.74684e-13
1.84159e-13
1.79142e-13
1.76272e-13
1.62101e-13
1.59152e-13
1.71719e-13
1.79098e-13
1.83326e-13
1.90959e-13
1.89747e-13
1.80406e-13
1.83272e-13
1.82089e-13
1.87454e-13
1.87712e-13
1.8717e-13
1.88941e-13
1.91267e-13
1.86866e-13
1.80747e-13
1.72042e-13
1.66974e-13
1.61924e-13
1.5256e-13
1.53565e-13
1.56341e-13
1.49819e-13
1.46677e-13
1.36264e-13
1.29317e-13
1.24748e-13
1.19515e-13
1.16608e-13
1.11821e-13
1.11106e-13
1.11548e-13
1.08112e-13
9.38277e-14
8.78277e-14
8.0905e-14
7.32441e-14
7.0262e-14
6.70569e-14
6.50217e-14
6.30198e-14
6.37015e-14
5.62827e-14
4.87084e-14
4.48721e-14
4.1852e-14
3.89075e-14
3.62743e-14
3.16142e-14
2.35644e-14
2.15228e-14
1.07255e-14
-1.83073e-15
3.12204e-13
3.08973e-13
3.04822e-13
2.98662e-13
3.0225e-13
3.03131e-13
3.08867e-13
3.04364e-13
2.92092e-13
2.93931e-13
2.91226e-13
2.87691e-13
2.80057e-13
2.83835e-13
2.81219e-13
2.81101e-13
2.67419e-13
2.54982e-13
2.41192e-13
2.42134e-13
2.37845e-13
2.35055e-13
2.27545e-13
2.28157e-13
2.34191e-13
2.20805e-13
2.1864e-13
2.17361e-13
2.2416e-13
2.17326e-13
2.11973e-13
2.0775e-13
2.09726e-13
2.04266e-13
2.03934e-13
1.98129e-13
1.92923e-13
1.85374e-13
1.86397e-13
1.79511e-13
1.75456e-13
1.73222e-13
1.72729e-13
1.74169e-13
1.72869e-13
1.76406e-13
1.65293e-13
1.66704e-13
1.73898e-13
1.72638e-13
1.75196e-13
1.80882e-13
1.83802e-13
1.83287e-13
1.84429e-13
1.82434e-13
1.8438e-13
1.89241e-13
1.84838e-13
1.84734e-13
1.87681e-13
1.86569e-13
1.82558e-13
1.71356e-13
1.5849e-13
1.58426e-13
1.56353e-13
1.55568e-13
1.54491e-13
1.48574e-13
1.4457e-13
1.36455e-13
1.33544e-13
1.3329e-13
1.20139e-13
1.17363e-13
1.12682e-13
1.12003e-13
1.08861e-13
1.04252e-13
9.45995e-14
8.62948e-14
8.06479e-14
7.36884e-14
7.12857e-14
6.92224e-14
6.46093e-14
6.25275e-14
6.32356e-14
5.67178e-14
4.98976e-14
4.30919e-14
4.07667e-14
3.81535e-14
3.55341e-14
3.05597e-14
2.44425e-14
1.49599e-14
3.63578e-15
-2.42071e-15
3.08904e-13
3.10856e-13
3.11121e-13
3.02003e-13
2.9717e-13
3.06086e-13
3.10247e-13
3.06907e-13
2.90411e-13
2.81691e-13
2.8814e-13
2.91203e-13
2.79929e-13
2.82795e-13
2.79074e-13
2.72507e-13
2.63745e-13
2.59614e-13
2.55903e-13
2.48184e-13
2.34943e-13
2.31215e-13
2.29908e-13
2.32285e-13
2.30325e-13
2.25211e-13
2.181e-13
2.15925e-13
2.19577e-13
2.1571e-13
2.11723e-13
2.00514e-13
2.07702e-13
2.11669e-13
2.05171e-13
1.96491e-13
1.93783e-13
1.86157e-13
1.84456e-13
1.75144e-13
1.69317e-13
1.65197e-13
1.69183e-13
1.69807e-13
1.73949e-13
1.77821e-13
1.70477e-13
1.67884e-13
1.73048e-13
1.65474e-13
1.7058e-13
1.81654e-13
1.82122e-13
1.77492e-13
1.80498e-13
1.8171e-13
1.79714e-13
1.80948e-13
1.84469e-13
1.87291e-13
1.8905e-13
1.90978e-13
1.86759e-13
1.68152e-13
1.53884e-13
1.4361e-13
1.55441e-13
1.57762e-13
1.58527e-13
1.5429e-13
1.49484e-13
1.36333e-13
1.37106e-13
1.34124e-13
1.21518e-13
1.15702e-13
1.14215e-13
1.07425e-13
1.04002e-13
9.83541e-14
9.22387e-14
8.38287e-14
8.87164e-14
7.59734e-14
7.20692e-14
6.51634e-14
5.95961e-14
6.23625e-14
5.9383e-14
5.34545e-14
4.68438e-14
3.84495e-14
3.83688e-14
3.65519e-14
3.22904e-14
2.52113e-14
1.74865e-14
1.05076e-14
6.25676e-15
-1.17968e-15
3.08416e-13
3.07751e-13
3.06155e-13
3.05658e-13
3.04562e-13
3.01906e-13
3.03024e-13
3.03839e-13
3.0047e-13
2.86128e-13
2.83487e-13
2.90717e-13
2.80252e-13
2.88037e-13
2.8091e-13
2.79806e-13
2.61655e-13
2.61797e-13
2.54474e-13
2.45191e-13
2.34867e-13
2.30217e-13
2.30743e-13
2.28062e-13
2.24722e-13
2.25424e-13
2.2626e-13
2.17743e-13
2.15496e-13
2.15955e-13
2.12509e-13
2.05416e-13
2.07902e-13
2.03842e-13
2.0146e-13
1.97861e-13
1.92489e-13
1.84879e-13
1.83207e-13
1.76654e-13
1.67137e-13
1.62827e-13
1.69003e-13
1.66732e-13
1.72403e-13
1.74364e-13
1.75036e-13
1.61363e-13
1.65578e-13
1.64956e-13
1.70845e-13
1.83346e-13
1.77263e-13
1.79121e-13
1.79981e-13
1.84541e-13
1.79135e-13
1.81812e-13
1.81129e-13
1.82853e-13
1.81556e-13
1.81118e-13
1.75644e-13
1.7485e-13
1.62222e-13
1.55759e-13
1.56344e-13
1.55085e-13
1.60897e-13
1.556e-13
1.44116e-13
1.40289e-13
1.36644e-13
1.32063e-13
1.22055e-13
1.14627e-13
1.14759e-13
1.06131e-13
1.01228e-13
1.02678e-13
1.00226e-13
9.01948e-14
8.67386e-14
7.4552e-14
6.32505e-14
6.34685e-14
6.15024e-14
6.16889e-14
5.36678e-14
5.15935e-14
4.26615e-14
3.72051e-14
3.77795e-14
3.52914e-14
2.93832e-14
2.46594e-14
1.56687e-14
3.86766e-15
-2.88395e-15
2.48466e-15
3.1216e-13
3.09918e-13
3.06311e-13
3.04734e-13
3.06816e-13
3.06001e-13
3.04434e-13
3.04726e-13
3.03945e-13
2.8691e-13
2.83261e-13
2.84469e-13
2.78448e-13
2.7603e-13
2.75868e-13
2.73038e-13
2.69168e-13
2.67851e-13
2.58953e-13
2.49904e-13
2.36469e-13
2.30228e-13
2.35342e-13
2.38141e-13
2.21547e-13
2.16032e-13
2.14244e-13
2.13163e-13
2.1647e-13
2.18467e-13
2.16763e-13
2.06833e-13
2.03727e-13
1.98319e-13
1.97866e-13
1.98759e-13
1.90139e-13
1.83251e-13
1.81151e-13
1.73372e-13
1.70697e-13
1.65145e-13
1.64317e-13
1.6956e-13
1.66991e-13
1.73022e-13
1.7433e-13
1.67915e-13
1.67518e-13
1.70583e-13
1.69051e-13
1.73903e-13
1.72359e-13
1.78998e-13
1.79461e-13
1.80421e-13
1.78652e-13
1.8045e-13
1.78856e-13
1.82945e-13
1.81733e-13
1.92186e-13
1.83446e-13
1.71689e-13
1.55888e-13
1.47833e-13
1.5481e-13
1.58241e-13
1.59464e-13
1.52155e-13
1.49898e-13
1.46106e-13
1.3879e-13
1.35611e-13
1.21514e-13
1.06251e-13
1.09646e-13
1.07277e-13
1.01414e-13
9.97567e-14
9.43664e-14
9.02171e-14
8.28154e-14
8.21683e-14
6.61269e-14
6.23595e-14
6.02757e-14
5.52827e-14
5.41603e-14
5.18036e-14
3.8354e-14
3.42819e-14
3.37926e-14
3.0556e-14
2.72443e-14
2.45267e-14
1.44557e-14
1.18944e-14
-2.4246e-15
1.44186e-16
3.13251e-13
3.11687e-13
3.03145e-13
3.09156e-13
3.11257e-13
3.07358e-13
3.02668e-13
2.93221e-13
2.92828e-13
2.84058e-13
2.88312e-13
2.89263e-13
2.89476e-13
2.85171e-13
2.74759e-13
2.73892e-13
2.73035e-13
2.67976e-13
2.59257e-13
2.46582e-13
2.36784e-13
2.27193e-13
2.26285e-13
2.2553e-13
2.18851e-13
2.20483e-13
2.22466e-13
2.15434e-13
2.08847e-13
2.15567e-13
2.16099e-13
2.10665e-13
2.09796e-13
2.02935e-13
2.04227e-13
1.96499e-13
1.86069e-13
1.80414e-13
1.78125e-13
1.71993e-13
1.70133e-13
1.66244e-13
1.67901e-13
1.61302e-13
1.54797e-13
1.64851e-13
1.71227e-13
1.7183e-13
1.70627e-13
1.72757e-13
1.69899e-13
1.73151e-13
1.68218e-13
1.74275e-13
1.81845e-13
1.83293e-13
1.79392e-13
1.80545e-13
1.73716e-13
1.69731e-13
1.77808e-13
1.80027e-13
1.8497e-13
1.75998e-13
1.67329e-13
1.57798e-13
1.5663e-13
1.56026e-13
1.58335e-13
1.50769e-13
1.48956e-13
1.41547e-13
1.37018e-13
1.34184e-13
1.26999e-13
1.08522e-13
1.04795e-13
1.08623e-13
1.04413e-13
9.69008e-14
9.47901e-14
9.67205e-14
8.54946e-14
7.79514e-14
6.9957e-14
6.36102e-14
5.99313e-14
5.60708e-14
5.15042e-14
4.55949e-14
3.65526e-14
3.49174e-14
3.10049e-14
2.81674e-14
2.71102e-14
2.41247e-14
1.52584e-14
9.31998e-15
3.49598e-15
-4.51425e-15
3.11319e-13
3.1804e-13
3.1189e-13
3.03433e-13
3.05395e-13
3.03113e-13
3.0806e-13
3.0546e-13
3.0116e-13
2.86259e-13
2.78883e-13
2.82174e-13
2.81509e-13
2.83483e-13
2.83336e-13
2.82554e-13
2.75176e-13
2.6877e-13
2.52303e-13
2.44362e-13
2.34058e-13
2.30808e-13
2.31431e-13
2.31516e-13
2.19493e-13
2.13668e-13
2.17616e-13
2.18442e-13
2.13532e-13
2.14473e-13
2.14619e-13
2.11381e-13
2.06146e-13
1.98857e-13
1.98386e-13
1.88906e-13
1.87836e-13
1.83259e-13
1.81024e-13
1.81802e-13
1.65603e-13
1.5781e-13
1.64622e-13
1.60366e-13
1.57425e-13
1.6499e-13
1.68136e-13
1.71016e-13
1.68026e-13
1.75435e-13
1.69499e-13
1.66839e-13
1.72557e-13
1.78757e-13
1.77791e-13
1.75945e-13
1.73912e-13
1.81975e-13
1.79964e-13
1.74605e-13
1.74976e-13
1.76587e-13
1.75855e-13
1.73838e-13
1.69578e-13
1.63806e-13
1.5739e-13
1.5576e-13
1.60865e-13
1.48322e-13
1.50123e-13
1.45285e-13
1.37051e-13
1.3033e-13
1.25964e-13
1.16242e-13
1.05371e-13
9.96277e-14
1.01463e-13
9.79882e-14
9.62318e-14
9.04706e-14
8.56979e-14
7.99849e-14
7.1595e-14
6.41112e-14
6.17398e-14
5.52588e-14
4.76858e-14
4.60509e-14
3.7507e-14
3.3535e-14
3.09458e-14
2.68914e-14
2.07896e-14
2.18673e-14
1.30349e-14
5.43621e-15
6.32511e-16
-2.92818e-15
3.13479e-13
3.1588e-13
3.1551e-13
3.04794e-13
3.0703e-13
3.07898e-13
3.01925e-13
2.97851e-13
2.93935e-13
2.9217e-13
2.8521e-13
2.86919e-13
2.86785e-13
2.90419e-13
2.9239e-13
2.81162e-13
2.6852e-13
2.64839e-13
2.54277e-13
2.44554e-13
2.39144e-13
2.22013e-13
2.18509e-13
2.2393e-13
2.20639e-13
2.28195e-13
2.20857e-13
2.13404e-13
2.05224e-13
2.1175e-13
2.13477e-13
2.09945e-13
2.11628e-13
2.01448e-13
2.02733e-13
1.9166e-13
1.88914e-13
1.84995e-13
1.82916e-13
1.73917e-13
1.66568e-13
1.58287e-13
1.54215e-13
1.55572e-13
1.62292e-13
1.61757e-13
1.68513e-13
1.68529e-13
1.70618e-13
1.7545e-13
1.72026e-13
1.65614e-13
1.72894e-13
1.79422e-13
1.703e-13
1.69827e-13
1.67308e-13
1.72585e-13
1.77988e-13
1.8104e-13
1.7824e-13
1.8143e-13
1.78652e-13
1.75046e-13
1.64644e-13
1.61141e-13
1.61849e-13
1.60451e-13
1.60396e-13
1.48958e-13
1.44111e-13
1.39895e-13
1.32885e-13
1.27546e-13
1.23475e-13
1.14791e-13
1.06126e-13
9.53912e-14
1.03355e-13
9.98743e-14
9.69273e-14
9.14414e-14
8.7476e-14
7.90864e-14
7.19976e-14
6.12973e-14
5.68292e-14
5.07873e-14
4.45668e-14
4.73674e-14
3.6032e-14
3.11317e-14
2.85128e-14
3.01445e-14
1.99799e-14
1.14032e-14
9.83012e-15
1.83815e-16
-5.38034e-15
1.29593e-15
3.14335e-13
3.17224e-13
3.11631e-13
3.12707e-13
3.11435e-13
3.13792e-13
3.11169e-13
3.02875e-13
2.90713e-13
2.87247e-13
2.89734e-13
2.94656e-13
2.87141e-13
2.8338e-13
2.88399e-13
2.82223e-13
2.72895e-13
2.647e-13
2.57334e-13
2.38563e-13
2.33024e-13
2.22383e-13
2.21793e-13
2.22483e-13
2.19738e-13
2.28734e-13
2.274e-13
2.14502e-13
2.06384e-13
2.11096e-13
2.12908e-13
2.06454e-13
2.14061e-13
2.03445e-13
1.92735e-13
1.86279e-13
1.85997e-13
1.8677e-13
1.81755e-13
1.70864e-13
1.62482e-13
1.58241e-13
1.63303e-13
1.60869e-13
1.59237e-13
1.63115e-13
1.68613e-13
1.65385e-13
1.70688e-13
1.73565e-13
1.68209e-13
1.67258e-13
1.72179e-13
1.71664e-13
1.6988e-13
1.69361e-13
1.66669e-13
1.75428e-13
1.80685e-13
1.74659e-13
1.76275e-13
1.82047e-13
1.76762e-13
1.74781e-13
1.68546e-13
1.61253e-13
1.5611e-13
1.63413e-13
1.60411e-13
1.51323e-13
1.44703e-13
1.3763e-13
1.36976e-13
1.25943e-13
1.18422e-13
1.11633e-13
1.07682e-13
9.85461e-14
9.69196e-14
9.44576e-14
9.80492e-14
8.74189e-14
8.30346e-14
8.43236e-14
7.5732e-14
6.0821e-14
5.75499e-14
5.10805e-14
4.319e-14
3.84402e-14
3.2526e-14
2.96258e-14
2.68368e-14
2.07799e-14
1.8715e-14
1.66621e-14
1.05091e-14
-1.39883e-15
-6.94232e-15
-1.0598e-15
3.17492e-13
3.19148e-13
3.08914e-13
3.0658e-13
3.11506e-13
3.00978e-13
3.00965e-13
3.04552e-13
3.00474e-13
2.99987e-13
2.98291e-13
2.92079e-13
2.86597e-13
2.85798e-13
2.83034e-13
2.86442e-13
2.80821e-13
2.67042e-13
2.51771e-13
2.43467e-13
2.30055e-13
2.29496e-13
2.28377e-13
2.22626e-13
2.19899e-13
2.26316e-13
2.27212e-13
2.11683e-13
2.06925e-13
2.09837e-13
2.11543e-13
2.02497e-13
2.06296e-13
1.99229e-13
1.95873e-13
1.9322e-13
1.925e-13
1.83888e-13
1.74164e-13
1.69698e-13
1.67916e-13
1.65483e-13
1.66016e-13
1.67202e-13
1.6446e-13
1.62335e-13
1.61821e-13
1.66395e-13
1.68496e-13
1.7055e-13
1.66096e-13
1.67284e-13
1.78422e-13
1.71088e-13
1.63482e-13
1.61202e-13
1.61892e-13
1.75557e-13
1.82356e-13
1.85465e-13
1.83069e-13
1.78812e-13
1.70314e-13
1.74497e-13
1.64034e-13
1.63368e-13
1.60339e-13
1.59556e-13
1.54695e-13
1.5312e-13
1.44068e-13
1.36432e-13
1.29969e-13
1.25093e-13
1.1698e-13
1.11335e-13
1.05602e-13
9.44294e-14
9.18623e-14
9.81886e-14
9.65364e-14
9.08986e-14
8.38924e-14
7.95503e-14
7.26809e-14
5.96814e-14
5.43849e-14
4.84238e-14
3.88886e-14
3.02058e-14
3.32774e-14
3.21276e-14
2.76348e-14
2.11208e-14
1.53314e-14
1.02713e-14
8.10799e-15
-3.18459e-15
-5.09966e-15
-1.36598e-15
3.15877e-13
3.16611e-13
3.16252e-13
3.03054e-13
3.1288e-13
3.13099e-13
3.05345e-13
2.99651e-13
2.98289e-13
2.98895e-13
3.0084e-13
3.01397e-13
2.87714e-13
2.8151e-13
2.81405e-13
2.87151e-13
2.82208e-13
2.65544e-13
2.55641e-13
2.4384e-13
2.36539e-13
2.27733e-13
2.22999e-13
2.25165e-13
2.28898e-13
2.26233e-13
2.25432e-13
2.13592e-13
2.12514e-13
2.17171e-13
2.09997e-13
2.07416e-13
2.03449e-13
1.91587e-13
1.85929e-13
1.89944e-13
1.911e-13
1.85475e-13
1.7633e-13
1.70721e-13
1.6767e-13
1.68467e-13
1.67606e-13
1.67432e-13
1.67459e-13
1.56987e-13
1.67736e-13
1.68387e-13
1.65433e-13
1.64562e-13
1.6677e-13
1.66584e-13
1.71788e-13
1.73718e-13
1.6724e-13
1.60586e-13
1.57213e-13
1.65384e-13
1.74414e-13
1.83648e-13
1.85343e-13
1.76192e-13
1.73656e-13
1.74016e-13
1.68401e-13
1.65365e-13
1.61559e-13
1.61984e-13
1.53396e-13
1.45623e-13
1.40842e-13
1.36192e-13
1.30183e-13
1.25148e-13
1.1307e-13
1.06515e-13
1.05856e-13
9.46078e-14
9.70344e-14
9.77278e-14
8.92763e-14
8.68102e-14
8.4621e-14
8.21929e-14
6.65093e-14
5.98937e-14
4.96071e-14
4.76545e-14
4.24643e-14
2.83393e-14
3.66923e-14
3.19401e-14
2.26706e-14
1.42077e-14
1.29319e-14
1.14399e-14
8.62611e-15
-3.37316e-16
-5.86399e-15
-1.121e-15
3.09992e-13
3.12367e-13
3.1842e-13
3.14466e-13
3.12049e-13
3.11201e-13
3.06988e-13
3.02245e-13
3.04769e-13
3.05198e-13
3.03019e-13
2.95318e-13
2.91327e-13
2.85411e-13
2.82018e-13
2.83147e-13
2.78338e-13
2.64241e-13
2.5698e-13
2.46587e-13
2.43711e-13
2.32723e-13
2.25348e-13
2.20103e-13
2.23734e-13
2.2547e-13
2.28814e-13
2.16642e-13
2.15308e-13
2.15677e-13
2.12043e-13
2.0467e-13
1.99151e-13
1.88906e-13
1.8584e-13
1.94333e-13
1.9665e-13
1.87677e-13
1.75021e-13
1.68329e-13
1.68192e-13
1.71748e-13
1.69788e-13
1.65321e-13
1.64487e-13
1.62253e-13
1.64845e-13
1.66889e-13
1.60888e-13
1.59811e-13
1.65143e-13
1.67784e-13
1.69669e-13
1.70721e-13
1.67335e-13
1.5996e-13
1.6193e-13
1.71107e-13
1.73919e-13
1.78541e-13
1.79001e-13
1.74924e-13
1.70715e-13
1.76834e-13
1.63772e-13
1.64555e-13
1.64056e-13
1.61181e-13
1.54289e-13
1.4277e-13
1.3264e-13
1.32987e-13
1.2921e-13
1.24997e-13
1.13432e-13
1.07094e-13
1.04889e-13
9.68649e-14
9.05562e-14
9.46953e-14
8.96075e-14
8.15461e-14
8.40689e-14
8.87493e-14
7.06494e-14
5.51058e-14
4.1775e-14
4.89618e-14
4.48597e-14
3.2634e-14
3.22122e-14
3.24541e-14
2.39176e-14
1.28241e-14
1.26875e-14
1.36089e-14
3.26064e-15
-2.53419e-15
-6.93739e-15
4.88357e-16
3.18302e-13
3.14893e-13
3.14814e-13
3.14132e-13
3.10088e-13
3.09549e-13
3.06138e-13
3.07108e-13
3.05196e-13
3.12195e-13
3.03443e-13
2.96682e-13
2.87741e-13
2.86027e-13
2.87103e-13
2.8298e-13
2.67903e-13
2.61339e-13
2.58389e-13
2.5329e-13
2.46895e-13
2.35547e-13
2.26334e-13
2.23328e-13
2.23817e-13
2.30059e-13
2.26618e-13
2.17377e-13
2.20434e-13
2.2087e-13
2.12295e-13
2.05312e-13
1.90424e-13
1.84232e-13
1.87279e-13
1.92638e-13
1.97387e-13
1.85942e-13
1.73115e-13
1.7123e-13
1.69093e-13
1.72917e-13
1.7079e-13
1.6702e-13
1.65976e-13
1.67262e-13
1.6054e-13
1.62225e-13
1.60341e-13
1.56843e-13
1.61613e-13
1.66072e-13
1.67672e-13
1.72543e-13
1.65172e-13
1.6022e-13
1.59265e-13
1.65473e-13
1.74654e-13
1.79709e-13
1.75489e-13
1.81742e-13
1.71712e-13
1.68253e-13
1.60251e-13
1.60714e-13
1.59332e-13
1.60113e-13
1.55895e-13
1.45089e-13
1.38261e-13
1.32774e-13
1.2602e-13
1.21622e-13
1.07475e-13
1.02584e-13
1.02531e-13
9.29669e-14
9.1482e-14
9.73942e-14
9.14698e-14
8.61406e-14
8.42308e-14
8.02448e-14
6.9966e-14
5.95477e-14
4.38453e-14
4.70909e-14
4.51941e-14
3.37316e-14
3.13724e-14
3.24955e-14
3.06623e-14
1.58273e-14
6.91804e-15
7.63842e-15
3.57108e-15
-5.27174e-15
-7.49594e-15
-1.07896e-15
3.20721e-13
3.15849e-13
3.15609e-13
3.1577e-13
3.09944e-13
3.13517e-13
3.04628e-13
3.06915e-13
3.11197e-13
3.06214e-13
3.00905e-13
2.98329e-13
2.93622e-13
2.91559e-13
2.88414e-13
2.85793e-13
2.74789e-13
2.59006e-13
2.55318e-13
2.50842e-13
2.44733e-13
2.35844e-13
2.29456e-13
2.26329e-13
2.28748e-13
2.2752e-13
2.2536e-13
2.17099e-13
2.1831e-13
2.21678e-13
2.17916e-13
2.0542e-13
1.9195e-13
1.82763e-13
1.85815e-13
1.91496e-13
1.95194e-13
1.91624e-13
1.78035e-13
1.69351e-13
1.7152e-13
1.74464e-13
1.71701e-13
1.6732e-13
1.62374e-13
1.58272e-13
1.61315e-13
1.60748e-13
1.58673e-13
1.54908e-13
1.58185e-13
1.64098e-13
1.67421e-13
1.70242e-13
1.69082e-13
1.68187e-13
1.64861e-13
1.61297e-13
1.6944e-13
1.75139e-13
1.80195e-13
1.79381e-13
1.64785e-13
1.62955e-13
1.57886e-13
1.60334e-13
1.57756e-13
1.59897e-13
1.53987e-13
1.46499e-13
1.35245e-13
1.3178e-13
1.22595e-13
1.18461e-13
1.05369e-13
9.98864e-14
1.06138e-13
1.01215e-13
9.20501e-14
8.55924e-14
8.5348e-14
9.15203e-14
8.62539e-14
7.44536e-14
6.08624e-14
6.14699e-14
4.75787e-14
4.55129e-14
4.61902e-14
3.85781e-14
3.45922e-14
3.12545e-14
2.48853e-14
1.69054e-14
4.58676e-15
6.8817e-16
-5.70884e-16
8.20035e-16
-4.63728e-16
-3.27097e-16
3.18045e-13
3.15924e-13
3.14769e-13
3.16146e-13
3.15154e-13
3.11572e-13
3.0442e-13
3.07659e-13
3.08622e-13
3.07904e-13
3.0754e-13
3.04174e-13
2.96651e-13
2.89946e-13
2.84596e-13
2.72454e-13
2.66198e-13
2.66827e-13
2.65044e-13
2.5622e-13
2.41892e-13
2.35219e-13
2.34044e-13
2.32726e-13
2.35285e-13
2.33748e-13
2.22463e-13
2.09438e-13
2.16529e-13
2.20533e-13
2.1218e-13
2.06658e-13
2.0072e-13
1.94707e-13
1.94664e-13
1.8572e-13
1.86772e-13
1.81144e-13
1.74889e-13
1.72883e-13
1.77505e-13
1.75099e-13
1.73756e-13
1.64835e-13
1.62617e-13
1.60039e-13
1.60847e-13
1.59016e-13
1.57427e-13
1.52523e-13
1.49348e-13
1.64843e-13
1.72057e-13
1.68536e-13
1.67359e-13
1.63364e-13
1.65675e-13
1.69025e-13
1.72046e-13
1.76084e-13
1.787e-13
1.68815e-13
1.63504e-13
1.67705e-13
1.58246e-13
1.61441e-13
1.53208e-13
1.59502e-13
1.48591e-13
1.44918e-13
1.30143e-13
1.34446e-13
1.28529e-13
1.16177e-13
9.98988e-14
9.23508e-14
1.04121e-13
9.90776e-14
9.34465e-14
9.54841e-14
9.25408e-14
9.25654e-14
7.9156e-14
7.18915e-14
6.50689e-14
5.51541e-14
4.55541e-14
4.86864e-14
4.34573e-14
3.53374e-14
3.53022e-14
3.05943e-14
2.00265e-14
1.38055e-14
1.06643e-14
5.49206e-15
-5.21014e-15
-7.90649e-16
-1.62078e-15
1.4529e-16
3.16521e-13
3.17128e-13
3.21806e-13
3.19827e-13
3.17798e-13
3.11548e-13
3.06421e-13
3.04428e-13
3.0773e-13
3.07994e-13
3.06635e-13
3.06913e-13
2.95273e-13
2.89829e-13
2.82154e-13
2.72755e-13
2.75062e-13
2.72024e-13
2.65216e-13
2.54566e-13
2.43284e-13
2.34188e-13
2.33706e-13
2.34215e-13
2.31851e-13
2.25222e-13
2.22367e-13
2.21641e-13
2.20769e-13
2.21239e-13
2.2285e-13
2.06666e-13
1.96579e-13
1.90005e-13
1.95005e-13
1.91368e-13
1.84156e-13
1.87489e-13
1.81558e-13
1.81858e-13
1.70874e-13
1.6712e-13
1.66883e-13
1.63821e-13
1.69175e-13
1.63561e-13
1.58182e-13
1.5077e-13
1.55986e-13
1.56934e-13
1.49791e-13
1.62899e-13
1.70562e-13
1.70351e-13
1.67032e-13
1.61997e-13
1.632e-13
1.65997e-13
1.7379e-13
1.73461e-13
1.75121e-13
1.67124e-13
1.65986e-13
1.6434e-13
1.57114e-13
1.54704e-13
1.5184e-13
1.54009e-13
1.48703e-13
1.45446e-13
1.32346e-13
1.27931e-13
1.21492e-13
1.08532e-13
1.03211e-13
9.80012e-14
9.96984e-14
9.9597e-14
9.88554e-14
9.21716e-14
8.83287e-14
8.52866e-14
8.06684e-14
7.72744e-14
6.17549e-14
5.5724e-14
4.45265e-14
4.77791e-14
4.03622e-14
3.11137e-14
3.6521e-14
2.97527e-14
2.33503e-14
1.3291e-14
1.28542e-14
6.24238e-15
-2.43799e-15
-2.73719e-15
-1.60866e-15
1.73415e-15
3.22411e-13
3.15571e-13
3.14762e-13
3.13762e-13
3.18063e-13
3.18729e-13
3.10431e-13
3.0969e-13
3.11172e-13
3.13044e-13
3.04738e-13
3.00703e-13
2.91135e-13
2.8778e-13
2.86269e-13
2.79323e-13
2.68512e-13
2.65437e-13
2.63644e-13
2.56406e-13
2.48256e-13
2.38407e-13
2.32751e-13
2.3309e-13
2.31823e-13
2.36452e-13
2.36265e-13
2.228e-13
2.19156e-13
2.20023e-13
2.17854e-13
2.07948e-13
1.97716e-13
1.95182e-13
1.95148e-13
1.90822e-13
1.86609e-13
1.86021e-13
1.78232e-13
1.78335e-13
1.73815e-13
1.70743e-13
1.65773e-13
1.65039e-13
1.64282e-13
1.60911e-13
1.60153e-13
1.50454e-13
1.5796e-13
1.54018e-13
1.54035e-13
1.65167e-13
1.63052e-13
1.65102e-13
1.66943e-13
1.64859e-13
1.67401e-13
1.74156e-13
1.71058e-13
1.64329e-13
1.6799e-13
1.63377e-13
1.63593e-13
1.66628e-13
1.6211e-13
1.60512e-13
1.53779e-13
1.53325e-13
1.41029e-13
1.35512e-13
1.33786e-13
1.26371e-13
1.18351e-13
1.06142e-13
1.04851e-13
1.01364e-13
9.77781e-14
9.93247e-14
9.33479e-14
8.79845e-14
8.5823e-14
8.36537e-14
8.04183e-14
7.37271e-14
6.10231e-14
5.8076e-14
4.86923e-14
4.13504e-14
4.0323e-14
3.6861e-14
3.54859e-14
3.04858e-14
2.40596e-14
1.47252e-14
9.4896e-15
8.83898e-15
4.71689e-15
2.35868e-16
-9.31283e-15
-4.5938e-15
3.24274e-13
3.2508e-13
3.19128e-13
3.1278e-13
3.20685e-13
3.16195e-13
3.11792e-13
3.09794e-13
3.08434e-13
3.14022e-13
3.05862e-13
3.05392e-13
2.94967e-13
2.90013e-13
2.83979e-13
2.69472e-13
2.66827e-13
2.68141e-13
2.70208e-13
2.64434e-13
2.50644e-13
2.39905e-13
2.36278e-13
2.33057e-13
2.30406e-13
2.34449e-13
2.29537e-13
2.27105e-13
2.28633e-13
2.25098e-13
2.12694e-13
2.06147e-13
2.01976e-13
1.96942e-13
1.91425e-13
1.89709e-13
1.88503e-13
1.88047e-13
1.77648e-13
1.77389e-13
1.74859e-13
1.68193e-13
1.69416e-13
1.66993e-13
1.62487e-13
1.70599e-13
1.62127e-13
1.50196e-13
1.5219e-13