/*--------------------------------*- C++ -*----------------------------------*\
| =========                 |                                                 |
| \\      /  F ield         | OpenFOAM: The Open Source CFD Toolbox           |
|  \\    /   O peration     | Version:  v2012                                 |
|   \\  /    A nd           | Website:  www.openfoam.com                      |
|    \\/     M anipulation  |                                                 |
\*---------------------------------------------------------------------------*/
FoamFile
{
    version     2.0;
    format      ascii;
    class       volVectorField;
    location    "0";
    object      uRec;
}
// * * * * * * * * * * * * * * * * * * * * * * * * * * * * * * * * * * * * * //

dimensions      [0 1 -1 0 0 0 0];


internalField   nonuniform List<vector> 
4000
(
(1 -3.93359e-16 0)
(1 2.41664e-15 0)
(1 1.28127e-15 0)
(1 9.17662e-16 0)
(1 -5.34033e-16 0)
(1 -7.48904e-16 0)
(1 8.34175e-17 0)
(1 -3.48616e-16 0)
(1 -1.77793e-15 0)
(1 -1.3499e-16 0)
(1 1.64969e-15 0)
(1 4.11336e-16 0)
(1 6.09539e-16 0)
(1 -4.93131e-17 0)
(1 1.9877e-15 0)
(1 -2.0856e-15 0)
(1 -2.18127e-15 0)
(1 -1.35533e-15 0)
(1 -1.6543e-16 0)
(1 -1.66443e-15 0)
(1 -2.38407e-15 0)
(1 -2.14489e-15 0)
(1 1.73812e-15 0)
(1 3.84922e-16 0)
(1 2.70713e-15 0)
(1 4.16257e-16 0)
(1 1.74008e-15 0)
(1 3.49423e-16 0)
(1 -2.92776e-17 0)
(1 2.61457e-16 0)
(1 -7.80464e-16 0)
(1 -2.57819e-15 0)
(1 -1.8901e-15 0)
(1 -4.56385e-16 0)
(1 1.32026e-15 0)
(1 1.75756e-15 0)
(1 3.26173e-15 0)
(1 1.54424e-15 0)
(1 1.61512e-15 0)
(1 -2.2267e-16 0)
(1 -7.91803e-16 0)
(1 -1.478e-15 0)
(1 -5.75801e-17 0)
(1 -1.01637e-15 0)
(1 -5.20172e-16 0)
(1 -6.96337e-17 0)
(1 -5.00576e-16 0)
(1 -2.23562e-16 0)
(1 -2.95206e-16 0)
(1 1.31662e-15 0)
(1 2.80957e-16 0)
(1 1.82276e-15 0)
(1 3.87391e-16 0)
(1 5.89877e-16 0)
(1 -8.35371e-16 0)
(1 -1.47798e-15 0)
(1 -1.457e-15 0)
(1 9.13759e-16 0)
(1 1.39245e-15 0)
(1 2.66888e-15 0)
(1 1.59989e-15 0)
(1 3.12408e-16 0)
(1 1.25408e-15 0)
(1 1.21858e-16 0)
(1 -2.73479e-16 0)
(1 -1.08252e-15 0)
(1 -1.89344e-16 0)
(1 2.10484e-16 0)
(1 -3.53198e-16 0)
(1 -4.93456e-16 0)
(1 -1.25809e-15 0)
(1 -5.04243e-16 0)
(1 4.50954e-17 0)
(1 -1.63334e-15 0)
(1 -1.8059e-15 0)
(1 -7.93272e-16 0)
(1 -4.13276e-16 0)
(1 3.16066e-16 0)
(1 5.81238e-16 0)
(1 1.4508e-15 0)
(1 9.33323e-16 0)
(1 -8.81167e-17 0)
(1 -2.55554e-17 0)
(1 -4.95102e-16 0)
(1 -1.56285e-15 0)
(1 -7.40686e-16 0)
(1 -1.7441e-15 0)
(1 2.44685e-16 0)
(1 1.96454e-15 0)
(1 1.36689e-15 0)
(1 -1.18696e-16 0)
(1 2.70345e-16 0)
(1 -1.37833e-15 0)
(1 -5.28695e-16 0)
(1 -1.12849e-15 0)
(1 -1.51113e-15 0)
(1 -1.23069e-15 0)
(1 3.35907e-16 0)
(1 1.08803e-15 0)
(1 2.28175e-16 0)
(1 3.33299e-16 0)
(1 2.12465e-15 0)
(1 2.19129e-15 0)
(1 1.22465e-16 0)
(1 -1.73314e-16 0)
(1 -1.99202e-15 0)
(1 -2.36778e-16 0)
(1 -7.85773e-16 0)
(1 -1.1333e-15 0)
(1 -9.64548e-16 0)
(1 1.3086e-15 0)
(1 1.29276e-15 0)
(1 2.67178e-15 0)
(1 2.1544e-15 0)
(1 2.43663e-15 0)
(1 -3.75412e-15 0)
(1 -4.26862e-15 0)
(1 -8.06496e-16 0)
(1 3.55978e-16 0)
(1 -1.77849e-15 0)
(1 -3.0581e-15 0)
(1 -2.39945e-15 0)
(1 8.03668e-16 0)
(1 -1.04881e-16 0)
(1 2.32134e-15 0)
(1 -6.36239e-16 0)
(1 3.2894e-16 0)
(1 -8.46199e-16 0)
(1 3.10957e-16 0)
(1 6.6596e-16 0)
(1 1.36675e-15 0)
(1 -1.14444e-15 0)
(1 -2.55345e-16 0)
(1 -1.46497e-15 0)
(1 -2.6347e-16 0)
(1 2.17605e-16 0)
(1 1.98359e-15 0)
(1 1.13213e-15 0)
(1 1.15036e-15 0)
(1 -1.80527e-16 0)
(1 -1.48866e-15 0)
(1 -8.08727e-16 0)
(1 -3.98625e-16 0)
(1 -2.0331e-15 0)
(1 -3.02557e-16 0)
(1 -1.99234e-15 0)
(1 2.22042e-16 0)
(1 9.11628e-17 0)
(1 1.54663e-15 0)
(1 -1.82086e-15 0)
(1 -1.63138e-15 0)
(1 -3.22759e-16 0)
(1 1.74038e-15 0)
(1 2.07643e-15 0)
(1 2.24305e-15 0)
(1 1.73192e-15 0)
(1 6.44695e-16 0)
(1 1.34505e-15 0)
(1 -5.49649e-16 0)
(1 -2.78324e-16 0)
(1 -2.04385e-15 0)
(1 -6.60206e-16 0)
(1 1.24879e-15 0)
(1 1.07649e-15 0)
(1 4.70432e-16 0)
(1 -1.00457e-15 0)
(1 -1.25895e-15 0)
(1 -5.14124e-16 0)
(1 -1.24252e-15 0)
(1 -6.1049e-16 0)
(1 6.65836e-17 0)
(1 1.30479e-15 0)
(1 1.43357e-15 0)
(1 -6.89198e-16 0)
(1 -4.79896e-16 0)
(1 -1.6487e-16 0)
(1 4.32251e-16 0)
(1 1.22194e-15 0)
(1 1.90424e-15 0)
(1 1.35606e-15 0)
(1 9.00966e-16 0)
(1 -2.6174e-15 0)
(1 1.13924e-16 0)
(1 3.65454e-16 0)
(1 3.63469e-17 0)
(1 2.50251e-16 0)
(1 -9.18917e-16 0)
(1 -2.20811e-15 0)
(1 -6.54545e-16 0)
(1 -7.36816e-16 0)
(1 -2.82925e-16 0)
(1 -2.70683e-16 0)
(1 -2.04287e-15 0)
(1 -9.99501e-16 0)
(1 -2.11398e-15 0)
(1 -9.95663e-16 0)
(1 -1.30755e-15 0)
(1 1.43497e-15 0)
(1 3.22075e-16 0)
(1 -2.44578e-16 0)
(1 3.58962e-16 0)
(1 -5.44809e-16 0)
(1 -1.49134e-16 0)
(1 -2.12825e-16 0)
(1 2.10218e-15 0)
(1 7.60727e-16 0)
(1 1.47248e-15 0)
(1 6.08033e-16 0)
(1 2.64056e-16 0)
(1 -5.26538e-16 0)
(1 -1.67911e-16 0)
(1 7.3497e-16 0)
(1 3.00087e-15 0)
(1 3.74589e-15 0)
(1 6.84858e-16 0)
(1 -2.00332e-15 0)
(1 -3.34588e-15 0)
(1 -1.48824e-15 0)
(1 -6.04647e-16 0)
(1 1.47334e-16 0)
(1 -1.42195e-15 0)
(1 3.67277e-16 0)
(1 -1.46653e-15 0)
(1 9.6124e-16 0)
(1 1.75136e-15 0)
(1 1.74779e-15 0)
(1 2.11887e-15 0)
(1 1.59027e-15 0)
(1 2.06628e-15 0)
(1 7.00727e-16 0)
(1 2.11274e-15 0)
(1 -8.41033e-16 0)
(1 -1.47885e-16 0)
(1 -2.83974e-15 0)
(1 -1.17387e-15 0)
(1 -2.15754e-15 0)
(1 -9.19235e-16 0)
(1 -1.37386e-16 0)
(1 -2.06245e-16 0)
(1 4.37111e-16 0)
(1 -8.91814e-16 0)
(1 -8.31675e-16 0)
(1 -2.09178e-15 0)
(1 -2.46968e-15 0)
(1 -6.2962e-16 0)
(1 -1.21036e-15 0)
(1 6.50272e-17 0)
(1 -4.35131e-16 0)
(1 6.06366e-16 0)
(1 -5.36115e-16 0)
(1 8.07213e-17 0)
(1 3.43513e-16 0)
(1 3.01086e-15 0)
(1 1.95542e-15 0)
(1 3.44778e-15 0)
(1 2.42527e-15 0)
(1 1.15696e-15 0)
(1 -1.17701e-15 0)
(1 -1.90721e-15 0)
(1 -2.01355e-15 0)
(1 4.74487e-18 0)
(1 5.90395e-16 0)
(1 9.93536e-16 0)
(1 6.67299e-16 0)
(1 1.1343e-17 0)
(1 -3.32478e-17 0)
(1 -8.94867e-16 0)
(1 -4.1024e-16 0)
(1 -9.73067e-16 0)
(1 1.25724e-16 0)
(1 9.65429e-17 0)
(1 8.33023e-16 0)
(1 9.46692e-16 0)
(1 4.76514e-16 0)
(1 -6.96019e-16 0)
(1 -5.92847e-16 0)
(1 -3.62934e-16 0)
(1 1.00792e-16 0)
(1 2.86947e-16 0)
(1 -4.93101e-17 0)
(1 -1.49523e-15 0)
(1 -2.46556e-15 0)
(1 -1.93138e-15 0)
(1 -4.33536e-16 0)
(1 7.01145e-16 0)
(1 -2.71527e-16 0)
(1 3.49663e-16 0)
(1 -2.7531e-15 0)
(1 -2.18079e-15 0)
(1 -1.28902e-15 0)
(1 -6.75883e-16 0)
(1 -9.40756e-16 0)
(1 -1.28374e-15 0)
(1 -1.01898e-15 0)
(1 -8.23819e-16 0)
(1 -9.56766e-16 0)
(1 -1.18998e-15 0)
(1 -2.77693e-16 0)
(1 -7.31924e-16 0)
(1 -1.18955e-16 0)
(1 1.1484e-15 0)
(1 -1.62677e-15 0)
(1 -1.22769e-16 0)
(1 -9.20392e-16 0)
(1 1.35166e-15 0)
(1 1.76067e-15 0)
(1 1.84432e-15 0)
(1 -4.95615e-16 0)
(1 8.90566e-17 0)
(1 -5.06112e-16 0)
(1 2.65982e-15 0)
(1 2.9699e-15 0)
(1 3.93908e-15 0)
(1 1.66635e-15 0)
(1 4.07844e-16 0)
(1 6.51418e-16 0)
(1 -1.58398e-15 0)
(1 -4.69718e-15 0)
(1 -4.48846e-15 0)
(1 -2.66308e-16 0)
(1 -1.89599e-16 0)
(1 4.22832e-16 0)
(1 8.7367e-16 0)
(1 2.99704e-15 0)
(1 1.23945e-15 0)
(1 3.65107e-15 0)
(1 2.3922e-15 0)
(1 4.69551e-15 0)
(1 2.24982e-15 0)
(1 1.19079e-15 0)
(1 -4.98217e-16 0)
(1 -1.96972e-15 0)
(1 -2.11013e-15 0)
(1 -1.17927e-15 0)
(1 4.1773e-16 0)
(1 -9.57778e-16 0)
(1 2.68675e-16 0)
(1 -1.94151e-16 0)
(1 3.25461e-16 0)
(1 -1.70136e-17 0)
(1 -4.46051e-16 0)
(1 -2.43399e-15 0)
(1 -2.05832e-15 0)
(1 -1.99517e-15 0)
(1 -1.91113e-15 0)
(1 1.41784e-15 0)
(1 1.33387e-15 0)
(1 3.77743e-16 0)
(1 2.37214e-16 0)
(1 2.70451e-15 0)
(1 7.25127e-16 0)
(1 6.05672e-16 0)
(1 4.38992e-16 0)
(1 6.33021e-16 0)
(1 6.68415e-16 0)
(1 4.30877e-16 0)
(1 -1.99326e-16 0)
(1 -1.49504e-15 0)
(1 -1.48072e-15 0)
(1 5.82335e-16 0)
(1 1.30927e-15 0)
(1 2.05488e-15 0)
(1 1.09037e-15 0)
(1 1.19744e-15 0)
(1 -3.89484e-16 0)
(1 -7.1554e-16 0)
(1 -2.0083e-15 0)
(1 -1.53098e-15 0)
(1 -1.44694e-15 0)
(1 -2.88988e-16 0)
(1 -4.16173e-16 0)
(1 1.0775e-15 0)
(1 -4.99023e-17 0)
(1 -7.67639e-17 0)
(1 -1.33906e-15 0)
(1 -1.25422e-15 0)
(1 -5.20861e-17 0)
(1 -3.42192e-16 0)
(1 2.02355e-16 0)
(1 -8.2189e-16 0)
(1 3.86953e-16 0)
(1 -8.18202e-16 0)
(1 -1.22977e-15 0)
(1 -1.38124e-15 0)
(1 -2.28433e-16 0)
(1 1.0151e-17 0)
(1 9.97229e-16 0)
(1 -2.57586e-16 0)
(1 -7.15634e-17 0)
(1 -6.56087e-16 0)
(1 -1.22436e-15 0)
(1 -1.54001e-15 0)
(1 -8.68512e-16 0)
(1 -8.46825e-16 0)
(1 -7.11486e-16 0)
(1 -1.92904e-15 0)
(1 -2.79053e-15 0)
(1 -2.63107e-15 0)
(1 -1.6012e-15 0)
(1 2.19523e-16 0)
(1 1.81112e-15 0)
(1 -5.09539e-16 0)
(1 -1.47099e-15 0)
(1 -8.9493e-16 0)
(1 9.65004e-16 0)
(1 4.35781e-16 0)
(1 4.2025e-16 0)
(1 -1.28724e-15 0)
(1 -3.58182e-16 0)
(1 2.78731e-16 0)
(1 3.33161e-15 0)
(1 2.0335e-15 0)
(1 2.64299e-15 0)
(1 -1.85875e-15 0)
(1 2.02966e-15 0)
(1 6.2246e-16 0)
(1 2.8344e-16 0)
(1 -2.30032e-15 0)
(1 -2.25634e-15 0)
(1 -4.22147e-15 0)
(1 -7.94052e-16 0)
(1 -2.38944e-15 0)
(1 2.16558e-15 0)
(1 5.06929e-15 0)
(1 4.77348e-15 0)
(1 3.33955e-15 0)
(1 2.85235e-15 0)
(1 2.14389e-15 0)
(1 2.21528e-15 0)
(1 -3.16934e-17 0)
(1 -8.44779e-16 0)
(1 5.99156e-16 0)
(1 -1.77623e-16 0)
(1 -1.32366e-15 0)
(1 -3.56629e-15 0)
(1 -2.95562e-15 0)
(1 -2.3613e-15 0)
(1 -2.08973e-15 0)
(1 -1.80661e-15 0)
(1 -7.78887e-16 0)
(1 -2.14638e-15 0)
(1 -1.09462e-15 0)
(1 -1.3648e-15 0)
(1 4.44233e-16 0)
(1 -1.06057e-15 0)
(1 5.6222e-16 0)
(1 1.9115e-15 0)
(1 1.04384e-15 0)
(1 9.70587e-16 0)
(1 -7.60967e-17 0)
(1 -9.73847e-17 0)
(1 1.32224e-16 0)
(1 -3.89665e-17 0)
(1 1.8315e-15 0)
(1 2.30459e-15 0)
(1 3.59925e-15 0)
(1 1.71994e-15 0)
(1 1.63011e-16 0)
(1 -8.71121e-16 0)
(1 -1.65908e-15 0)
(1 -1.90826e-15 0)
(1 5.15791e-17 0)
(1 1.15412e-15 0)
(1 1.13598e-15 0)
(1 1.35206e-15 0)
(1 -1.11903e-16 0)
(1 -1.44501e-15 0)
(1 -1.91697e-15 0)
(1 1.84735e-16 0)
(1 -5.19345e-16 0)
(1 5.31193e-16 0)
(1 1.91346e-15 0)
(1 6.38268e-16 0)
(1 4.68833e-16 0)
(1 5.10229e-16 0)
(1 3.37018e-17 0)
(1 9.35612e-17 0)
(1 1.48056e-15 0)
(1 2.53237e-15 0)
(1 -8.47004e-16 0)
(1 5.22515e-17 0)
(1 -2.20251e-15 0)
(1 4.86546e-16 0)
(1 -5.64828e-16 0)
(1 1.07912e-16 0)
(1 -9.08713e-16 0)
(1 -1.07773e-15 0)
(1 -2.12304e-15 0)
(1 -2.28487e-15 0)
(1 -2.10083e-15 0)
(1 -1.06611e-15 0)
(1 -2.62751e-15 0)
(1 -8.91512e-16 0)
(1 -6.41242e-16 0)
(1 -1.13185e-15 0)
(1 -9.10306e-16 0)
(1 -1.31222e-15 0)
(1 -8.22856e-16 0)
(1 -1.13044e-15 0)
(1 9.3545e-17 0)
(1 -6.27924e-16 0)
(1 -7.0341e-16 0)
(1 -1.92801e-15 0)
(1 -4.72264e-16 0)
(1 8.6879e-16 0)
(1 7.35774e-16 0)
(1 -2.32278e-16 0)
(1 1.08099e-16 0)
(1 9.97679e-16 0)
(1 3.06856e-15 0)
(1 2.10963e-15 0)
(1 1.69565e-15 0)
(1 8.86845e-16 0)
(1 -3.91588e-16 0)
(1 2.73951e-15 0)
(1 -2.22247e-16 0)
(1 -3.23644e-16 0)
(1 -2.21341e-15 0)
(1 -1.53919e-15 0)
(1 -1.5146e-15 0)
(1 1.44895e-15 0)
(1 2.54527e-15 0)
(1 2.58211e-15 0)
(1 1.20585e-15 0)
(1 1.12768e-15 0)
(1 9.79186e-16 0)
(1 3.29014e-15 0)
(1 -2.3445e-16 0)
(1 3.0381e-15 0)
(1 8.69969e-16 0)
(1 -2.11084e-15 0)
(1 -1.61365e-15 0)
(1 -2.33709e-15 0)
(1 -6.07411e-16 0)
(1 -2.11651e-15 0)
(1 6.53087e-16 0)
(1 -5.73661e-16 0)
(1 8.67401e-16 0)
(1 -1.26947e-15 0)
(1 -8.93954e-16 0)
(1 -1.38042e-15 0)
(1 -4.21533e-16 0)
(1 2.57871e-16 0)
(1 1.07513e-15 0)
(1 -7.66726e-17 0)
(1 -2.08578e-15 0)
(1 -1.98288e-15 0)
(1 -4.66828e-16 0)
(1 1.46318e-15 0)
(1 2.56119e-15 0)
(1 3.28731e-15 0)
(1 1.51627e-15 0)
(1 3.75342e-17 0)
(1 1.05359e-15 0)
(1 2.38649e-15 0)
(1 1.82789e-15 0)
(1 8.41214e-16 0)
(1 7.7382e-16 0)
(1 2.27209e-15 0)
(1 1.01113e-15 0)
(1 2.7203e-15 0)
(1 3.48856e-16 0)
(1 3.63205e-18 0)
(1 -9.87593e-16 0)
(1 8.9207e-16 0)
(1 1.30381e-15 0)
(1 2.8549e-15 0)
(1 4.12757e-15 0)
(1 4.87721e-15 0)
(1 4.49018e-15 0)
(1 1.47053e-15 0)
(1 -5.40282e-16 0)
(1 7.77995e-16 0)
(1 -4.25545e-16 0)
(1 -2.38393e-15 0)
(1 -3.43812e-15 0)
(1 -2.57423e-15 0)
(1 7.88191e-16 0)
(1 1.56583e-15 0)
(1 1.79943e-15 0)
(1 -9.27661e-16 0)
(1 7.02736e-16 0)
(1 -5.99712e-16 0)
(1 -1.80604e-15 0)
(1 -1.54733e-15 0)
(1 -2.46657e-15 0)
(1 -1.97896e-15 0)
(1 -2.09355e-15 0)
(1 -2.72262e-15 0)
(1 -1.73029e-15 0)
(1 -2.68092e-15 0)
(1 -1.53308e-15 0)
(1 -1.03785e-15 0)
(1 -3.46238e-17 0)
(1 1.85673e-16 0)
(1 5.95998e-16 0)
(1 1.4963e-15 0)
(1 1.87836e-15 0)
(1 2.70869e-15 0)
(1 1.73031e-15 0)
(1 -8.75507e-16 0)
(1 -8.67111e-16 0)
(1 2.35453e-15 0)
(1 1.55606e-15 0)
(1 -1.53671e-16 0)
(1 -1.25093e-15 0)
(1 -3.94279e-15 0)
(1 -1.55922e-15 0)
(1 1.37636e-15 0)
(1 1.93382e-15 0)
(1 1.8435e-15 0)
(1 7.0849e-16 0)
(1 1.44152e-15 0)
(1 2.01805e-15 0)
(1 2.9288e-15 0)
(1 1.10246e-15 0)
(1 3.15127e-15 0)
(1 -1.24784e-15 0)
(1 1.3535e-15 0)
(1 3.2626e-15 0)
(1 2.24418e-15 0)
(1 4.79324e-16 0)
(1 -8.39293e-16 0)
(1 -7.86269e-16 0)
(1 -3.24953e-15 0)
(1 -8.81407e-16 0)
(1 -1.11831e-15 0)
(1 8.17024e-16 0)
(1 1.55864e-15 0)
(1 3.01175e-15 0)
(1 1.49192e-15 0)
(1 -5.92571e-16 0)
(1 -3.14757e-15 0)
(1 -1.69067e-15 0)
(1 -4.11268e-16 0)
(1 1.33248e-16 0)
(1 1.77032e-15 0)
(1 1.09282e-15 0)
(1 8.50647e-16 0)
(1 -3.6389e-15 0)
(1 -1.99861e-16 0)
(1 -1.28682e-15 0)
(1 2.63722e-15 0)
(1 1.88055e-15 0)
(1 -9.52363e-16 0)
(1 -3.36935e-15 0)
(1 -3.90659e-15 0)
(1 1.18067e-15 0)
(1 1.7914e-15 0)
(1 3.95014e-15 0)
(1 3.3377e-15 0)
(1 1.05706e-16 0)
(1 5.58366e-17 0)
(1 4.00379e-16 0)
(1 1.25875e-15 0)
(1 1.12477e-15 0)
(1 -3.15552e-16 0)
(1 4.13878e-16 0)
(1 2.45519e-16 0)
(1 2.10388e-15 0)
(1 2.22538e-15 0)
(1 1.56311e-15 0)
(1 3.64197e-16 0)
(1 2.54382e-16 0)
(1 -5.18975e-16 0)
(1 1.22702e-17 0)
(1 -4.5405e-17 0)
(1 1.81344e-15 0)
(1 1.36554e-15 0)
(1 1.3637e-15 0)
(1 6.42068e-16 0)
(1 -8.25654e-16 0)
(1 -3.9389e-16 0)
(1 6.42285e-16 0)
(1 1.81165e-15 0)
(1 6.0863e-16 0)
(1 2.37663e-15 0)
(1 1.15125e-15 0)
(1 1.04291e-15 0)
(1 1.62125e-15 0)
(1 3.54315e-16 0)
(1 4.74921e-16 0)
(1 -7.4524e-16 0)
(1 -1.30827e-15 0)
(1 -1.2335e-15 0)
(1 -8.69329e-16 0)
(1 -8.06792e-17 0)
(1 -7.6027e-16 0)
(1 -8.40442e-16 0)
(1 -1.23591e-15 0)
(1 -1.72047e-15 0)
(1 1.13186e-15 0)
(1 -2.58791e-16 0)
(1 5.00126e-16 0)
(1 3.51608e-16 0)
(1 1.06976e-15 0)
(1 1.78184e-15 0)
(1 2.03538e-15 0)
(1 2.38759e-15 0)
(1 2.60975e-15 0)
(1 -5.38648e-16 0)
(1 6.10835e-16 0)
(1 7.30237e-16 0)
(1 1.59086e-15 0)
(1 -1.0676e-15 0)
(1 -5.54655e-16 0)
(1 -1.81325e-15 0)
(1 -1.795e-15 0)
(1 -4.71361e-16 0)
(1 3.2455e-16 0)
(1 -3.02729e-16 0)
(1 -1.03896e-15 0)
(1 1.10127e-15 0)
(1 4.60347e-15 0)
(1 1.89596e-15 0)
(1 2.25676e-15 0)
(1 1.54285e-15 0)
(1 2.64201e-15 0)
(1 5.04204e-15 0)
(1 7.82989e-16 0)
(1 -2.3205e-15 0)
(1 -3.14161e-15 0)
(1 -3.81087e-15 0)
(1 -5.75623e-16 0)
(1 3.19246e-16 0)
(1 3.96614e-16 0)
(1 -1.70391e-15 0)
(1 1.70855e-15 0)
(1 -2.60775e-15 0)
(1 -1.33681e-15 0)
(1 1.15338e-15 0)
(1 2.98138e-16 0)
(1 -1.89738e-15 0)
(1 -1.34069e-15 0)
(1 6.31702e-16 0)
(1 -1.38944e-15 0)
(1 2.62273e-16 0)
(1 -1.63135e-15 0)
(1 -5.07791e-16 0)
(1 -2.07664e-15 0)
(1 2.29142e-16 0)
(1 -1.31048e-15 0)
(1 1.03036e-15 0)
(1 2.26216e-15 0)
(1 2.73401e-15 0)
(1 1.7473e-15 0)
(1 -2.02523e-17 0)
(1 1.64548e-15 0)
(1 -1.07292e-15 0)
(1 -2.94232e-17 0)
(1 5.57865e-16 0)
(1 3.19031e-15 0)
(1 3.90439e-15 0)
(1 2.36124e-15 0)
(1 1.57918e-15 0)
(1 1.41288e-15 0)
(1 2.24021e-15 0)
(1 -4.83159e-16 0)
(1 6.7028e-16 0)
(1 1.3373e-15 0)
(1 2.08531e-15 0)
(1 2.00563e-15 0)
(1 2.53167e-15 0)
(1 1.15135e-15 0)
(1 1.11278e-15 0)
(1 1.40257e-15 0)
(1 2.49745e-15 0)
(1 -1.22545e-16 0)
(1 2.94129e-16 0)
(1 -1.76066e-16 0)
(1 2.54719e-15 0)
(1 3.5664e-15 0)
(1 1.91092e-15 0)
(1 1.73564e-15 0)
(1 2.51833e-15 0)
(1 3.74869e-15 0)
(1 3.17171e-15 0)
(1 1.23568e-15 0)
(1 2.06222e-16 0)
(1 -8.73489e-16 0)
(1 -2.61039e-15 0)
(1 -2.89216e-15 0)
(1 -2.55969e-15 0)
(1 -2.07199e-16 0)
(1 -1.68216e-15 0)
(1 -1.79771e-15 0)
(1 -2.39508e-15 0)
(1 -8.61861e-16 0)
(1 -1.32546e-15 0)
(1 -1.9655e-15 0)
(1 -1.71874e-15 0)
(1 -1.34142e-15 0)
(1 -1.75455e-15 0)
(1 -4.69776e-16 0)
(1 8.79658e-16 0)
(1 1.16973e-15 0)
(1 1.35584e-15 0)
(1 2.81728e-15 0)
(1 2.65655e-15 0)
(1 4.25315e-15 0)
(1 -9.61575e-16 0)
(1 2.02363e-15 0)
(1 -1.57392e-15 0)
(1 -3.61103e-15 0)
(1 -2.18875e-15 0)
(1 -7.58035e-16 0)
(1 1.20027e-15 0)
(1 -1.86474e-15 0)
(1 -2.38573e-15 0)
(1 1.83376e-15 0)
(1 1.02435e-15 0)
(1 4.35244e-15 0)
(1 4.01768e-15 0)
(1 5.74516e-15 0)
(1 1.10715e-15 0)
(1 3.26228e-15 0)
(1 1.55529e-15 0)
(1 5.47007e-15 0)
(1 7.28944e-16 0)
(1 -1.56981e-15 0)
(1 -4.50135e-15 0)
(1 8.95235e-16 0)
(1 -1.07524e-15 0)
(1 -1.54318e-15 0)
(1 -1.59943e-15 0)
(1 -1.5571e-15 0)
(1 -2.87708e-15 0)
(1 -3.51678e-15 0)
(1 -4.87362e-15 0)
(1 -2.44666e-15 0)
(1 -2.91091e-15 0)
(1 6.66014e-17 0)
(1 -1.88884e-16 0)
(1 1.80855e-15 0)
(1 8.47525e-16 0)
(1 1.89357e-15 0)
(1 -3.19777e-16 0)
(1 -5.00811e-16 0)
(1 -8.10618e-16 0)
(1 -6.93456e-16 0)
(1 6.10232e-17 0)
(1 1.86842e-15 0)
(1 1.90569e-15 0)
(1 2.49209e-15 0)
(1 5.8833e-15 0)
(1 5.44503e-15 0)
(1 2.10392e-15 0)
(1 -1.50351e-15 0)
(1 -1.74155e-15 0)
(1 -3.13621e-15 0)
(1 2.80639e-16 0)
(1 2.17214e-15 0)
(1 2.78452e-15 0)
(1 1.8426e-15 0)
(1 1.66373e-15 0)
(1 1.10955e-15 0)
(1 3.86683e-15 0)
(1 2.75667e-15 0)
(1 3.64861e-15 0)
(1 2.1352e-15 0)
(1 1.79461e-15 0)
(1 1.80846e-15 0)
(1 -2.59804e-15 0)
(1 -2.44839e-15 0)
(1 -1.00849e-16 0)
(1 1.68783e-15 0)
(1 6.5469e-15 0)
(1 6.92512e-15 0)
(1 4.92872e-15 0)
(1 5.61926e-15 0)
(1 3.26593e-15 0)
(1 4.02768e-15 0)
(1 2.40302e-15 0)
(1 1.03982e-16 0)
(1 -2.51515e-15 0)
(1 -3.56278e-16 0)
(1 1.11355e-15 0)
(1 1.02616e-15 0)
(1 -7.7158e-16 0)
(1 7.2431e-16 0)
(1 -4.50674e-16 0)
(1 2.38499e-15 0)
(1 -1.55758e-15 0)
(1 -4.95204e-16 0)
(1 -3.15328e-15 0)
(1 -3.04299e-15 0)
(1 -2.22698e-15 0)
(1 -1.64377e-15 0)
(1 -2.30883e-15 0)
(1 -1.76984e-15 0)
(1 -1.82146e-15 0)
(1 -2.22184e-15 0)
(1 5.92413e-16 0)
(1 1.20819e-15 0)
(1 4.67122e-15 0)
(1 4.06415e-15 0)
(1 5.65041e-15 0)
(1 5.25173e-15 0)
(1 7.34531e-15 0)
(1 7.34808e-15 0)
(1 6.47905e-16 0)
(1 1.03348e-15 0)
(1 5.66174e-16 0)
(1 3.41596e-16 0)
(1 -1.61174e-15 0)
(1 -1.10568e-16 0)
(1 7.54171e-16 0)
(1 1.49169e-15 0)
(1 6.5743e-16 0)
(1 2.17506e-15 0)
(1 1.70119e-15 0)
(1 3.25958e-15 0)
(1 2.78957e-15 0)
(1 -1.25116e-15 0)
(1 -1.21221e-15 0)
(1 -9.53999e-16 0)
(1 1.17211e-15 0)
(1 2.82553e-15 0)
(1 -7.54707e-16 0)
(1 -1.9756e-15 0)
(1 -3.46536e-15 0)
(1 -1.64321e-15 0)
(1 1.66786e-15 0)
(1 2.47582e-17 0)
(1 1.26138e-15 0)
(1 1.84148e-16 0)
(1 2.59794e-16 0)
(1 -5.0581e-15 0)
(1 -3.05441e-15 0)
(1 -2.08364e-15 0)
(1 -2.41241e-15 0)
(1 -3.74474e-16 0)
(1 -2.049e-16 0)
(1 5.63762e-17 0)
(1 -2.61513e-15 0)
(1 -3.56443e-16 0)
(1 -2.60993e-15 0)
(1 -1.29307e-15 0)
(1 -2.74595e-15 0)
(1 -1.62296e-16 0)
(1 -1.59659e-15 0)
(1 2.33264e-15 0)
(1 1.63915e-15 0)
(1 2.957e-15 0)
(1 2.26181e-15 0)
(1 2.40323e-15 0)
(1 9.30751e-16 0)
(1 -1.149e-15 0)
(1 2.59031e-15 0)
(1 1.20997e-15 0)
(1 4.09665e-15 0)
(1 1.88553e-15 0)
(1 1.37243e-15 0)
(1 1.29624e-15 0)
(1 2.68638e-15 0)
(1 1.90148e-15 0)
(1 2.24236e-15 0)
(1 3.2423e-15 0)
(1 2.31432e-15 0)
(1 1.73952e-15 0)
(1 2.12028e-15 0)
(1 3.30615e-15 0)
(1 5.22569e-15 0)
(1 3.19368e-15 0)
(1 1.95158e-15 0)
(1 1.1859e-15 0)
(1 3.04426e-15 0)
(1 4.80257e-15 0)
(1 5.37942e-15 0)
(1 3.7197e-15 0)
(1 1.76199e-15 0)
(1 2.06343e-15 0)
(1 1.21417e-15 0)
(1 1.07755e-16 0)
(1 -9.16031e-16 0)
(1 1.67482e-15 0)
(1 3.51257e-15 0)
(1 2.4749e-15 0)
(1 5.26555e-16 0)
(1 9.3947e-16 0)
(1 6.51029e-16 0)
(1 -2.14258e-16 0)
(1 -2.42565e-15 0)
(1 -3.14037e-15 0)
(1 -3.01947e-15 0)
(1 -2.98415e-15 0)
(1 -1.5248e-15 0)
(1 -3.29365e-15 0)
(1 -1.23536e-15 0)
(1 -1.77877e-15 0)
(1 6.47683e-16 0)
(1 -1.28053e-15 0)
(1 2.81335e-15 0)
(1 1.43927e-15 0)
(1 3.41749e-15 0)
(1 2.87648e-15 0)
(1 4.20423e-15 0)
(1 5.74097e-15 0)
(1 1.05458e-14 0)
(1 8.5895e-15 0)
(1 2.98334e-16 0)
(1 -1.18202e-15 0)
(1 -3.43365e-16 0)
(1 2.02046e-15 0)
(1 -1.07981e-15 0)
(1 1.27298e-15 0)
(1 -9.58009e-17 0)
(1 2.27183e-15 0)
(1 1.38202e-15 0)
(1 -2.79508e-15 0)
(1 -1.92816e-15 0)
(1 -2.25458e-16 0)
(1 -6.64413e-17 0)
(1 7.24712e-16 0)
(1 2.38849e-15 0)
(1 2.37353e-15 0)
(1 1.6796e-15 0)
(1 -1.31546e-15 0)
(1 2.47863e-16 0)
(1 -1.44185e-15 0)
(1 1.73826e-16 0)
(1 -1.58905e-16 0)
(1 5.50479e-16 0)
(1 -2.04044e-15 0)
(1 -1.82224e-15 0)
(1 -1.77966e-15 0)
(1 2.27487e-15 0)
(1 -1.20047e-15 0)
(1 -2.5115e-16 0)
(1 -2.86879e-15 0)
(1 -2.30034e-15 0)
(1 -4.81286e-15 0)
(1 -2.04027e-15 0)
(1 -8.70142e-16 0)
(1 4.83521e-16 0)
(1 -2.7878e-16 0)
(1 -7.73206e-16 0)
(1 -1.67824e-15 0)
(1 -1.72968e-15 0)
(1 6.50516e-16 0)
(1 4.95742e-16 0)
(1 -1.3333e-15 0)
(1 8.41456e-16 0)
(1 -3.41007e-16 0)
(1 9.08793e-16 0)
(1 9.56894e-16 0)
(1 2.97543e-15 0)
(1 6.85896e-16 0)
(1 3.3874e-15 0)
(1 3.46464e-15 0)
(1 3.43278e-15 0)
(1 2.51216e-15 0)
(1 3.73423e-15 0)
(1 2.57247e-15 0)
(1 3.84796e-15 0)
(1 2.41577e-15 0)
(1 4.16437e-15 0)
(1 1.68741e-15 0)
(1 3.82983e-15 0)
(1 1.52297e-15 0)
(1 3.91683e-15 0)
(1 4.97016e-16 0)
(1 4.69601e-15 0)
(1 1.83156e-15 0)
(1 1.96106e-15 0)
(1 3.43482e-15 0)
(1 2.83496e-15 0)
(1 1.44969e-15 0)
(1 4.54727e-15 0)
(1 2.75047e-15 0)
(1 4.99325e-15 0)
(1 1.17016e-15 0)
(1 3.25368e-16 0)
(1 -8.18418e-16 0)
(1 -3.60726e-16 0)
(1 1.01441e-15 0)
(1 2.30008e-15 0)
(1 2.12435e-15 0)
(1 2.31436e-15 0)
(1 -1.37637e-15 0)
(1 1.84042e-16 0)
(1 -2.56629e-15 0)
(1 2.69725e-16 0)
(1 -2.1279e-15 0)
(1 -1.41564e-15 0)
(1 -1.95727e-15 0)
(1 -1.90384e-15 0)
(1 -6.0733e-16 0)
(1 -6.86191e-16 0)
(1 -2.43925e-15 0)
(1 -1.07917e-15 0)
(1 -9.80647e-16 0)
(1 2.01691e-16 0)
(1 1.61768e-16 0)
(1 6.26876e-16 0)
(1 1.03688e-15 0)
(1 2.84306e-15 0)
(1 4.97838e-15 0)
(1 6.91983e-15 0)
(1 6.5793e-15 0)
(1 9.44768e-16 0)
(1 -2.2479e-15 0)
(1 1.72783e-15 0)
(1 6.83007e-16 0)
(1 9.43953e-16 0)
(1 -1.60025e-15 0)
(1 -2.13862e-15 0)
(1 6.32747e-16 0)
(1 2.31427e-15 0)
(1 2.90497e-15 0)
(1 2.31023e-15 0)
(1 5.78585e-16 0)
(1 -1.92063e-15 0)
(1 -1.09818e-15 0)
(1 -1.71432e-16 0)
(1 3.08064e-15 0)
(1 1.54563e-15 0)
(1 -1.81967e-15 0)
(1 -2.04176e-15 0)
(1 -3.05865e-15 0)
(1 9.93221e-16 0)
(1 -1.23436e-16 0)
(1 2.59045e-16 0)
(1 -1.08362e-16 0)
(1 -4.99871e-16 0)
(1 -1.23348e-15 0)
(1 -1.88782e-15 0)
(1 -3.26066e-16 0)
(1 1.28655e-15 0)
(1 -1.29915e-17 0)
(1 -1.54881e-15 0)
(1 -2.3487e-15 0)
(1 -1.57688e-15 0)
(1 -2.12078e-15 0)
(1 -2.72239e-15 0)
(1 -5.11369e-15 0)
(1 -8.87188e-16 0)
(1 -1.15829e-15 0)
(1 -8.05739e-16 0)
(1 -1.72879e-15 0)
(1 -9.14936e-17 0)
(1 -1.50378e-15 0)
(1 -1.06225e-15 0)
(1 -2.8894e-15 0)
(1 1.11202e-15 0)
(1 4.55367e-15 0)
(1 5.41771e-15 0)
(1 5.29969e-15 0)
(1 2.03124e-15 0)
(1 2.80532e-15 0)
(1 1.88704e-15 0)
(1 2.65689e-15 0)
(1 3.21725e-15 0)
(1 4.75814e-15 0)
(1 4.71886e-15 0)
(1 1.96666e-15 0)
(1 -4.91413e-17 0)
(1 7.49465e-16 0)
(1 2.73628e-15 0)
(1 3.79216e-15 0)
(1 4.86505e-15 0)
(1 3.95103e-15 0)
(1 1.4173e-15 0)
(1 1.30577e-15 0)
(1 1.48775e-15 0)
(1 6.48746e-16 0)
(1 2.47238e-15 0)
(1 2.46683e-15 0)
(1 2.56107e-15 0)
(1 3.32711e-15 0)
(1 3.9611e-15 0)
(1 2.72681e-15 0)
(1 1.66312e-15 0)
(1 6.62049e-16 0)
(1 1.29068e-15 0)
(1 5.19376e-16 0)
(1 1.98695e-15 0)
(1 9.96435e-16 0)
(1 -7.54741e-17 0)
(1 -1.48384e-15 0)
(1 1.67295e-15 0)
(1 1.00261e-15 0)
(1 -3.94225e-16 0)
(1 -9.46272e-16 0)
(1 -1.86327e-15 0)
(1 -2.33353e-15 0)
(1 -2.42526e-15 0)
(1 -1.10741e-15 0)
(1 -2.41638e-15 0)
(1 -1.11173e-15 0)
(1 -8.27816e-16 0)
(1 8.57428e-16 0)
(1 7.03209e-16 0)
(1 6.17188e-16 0)
(1 1.45577e-15 0)
(1 3.10279e-15 0)
(1 4.938e-15 0)
(1 3.96153e-15 0)
(1 2.40939e-15 0)
(1 4.69223e-15 0)
(1 2.67915e-15 0)
(1 -7.93969e-16 0)
(1 2.96818e-17 0)
(1 7.84106e-16 0)
(1 1.92476e-15 0)
(1 1.04256e-15 0)
(1 1.11235e-15 0)
(1 3.73701e-16 0)
(1 -5.60117e-16 0)
(1 1.3443e-15 0)
(1 4.21374e-15 0)
(1 5.57299e-15 0)
(1 2.15385e-15 0)
(1 3.93504e-16 0)
(1 -2.70453e-15 0)
(1 -3.20127e-15 0)
(1 -3.46138e-15 0)
(1 -3.50937e-15 0)
(1 -1.64409e-15 0)
(1 -1.47532e-15 0)
(1 1.48385e-15 0)
(1 -2.95997e-15 0)
(1 1.20936e-15 0)
(1 -2.06761e-15 0)
(1 2.40202e-15 0)
(1 4.95015e-16 0)
(1 -4.2218e-15 0)
(1 -2.61323e-15 0)
(1 -3.67618e-15 0)
(1 -2.09393e-15 0)
(1 -1.81471e-15 0)
(1 -7.89263e-16 0)
(1 -2.2398e-15 0)
(1 -1.47578e-15 0)
(1 -2.77143e-15 0)
(1 -2.29468e-16 0)
(1 -6.11051e-16 0)
(1 -4.68442e-16 0)
(1 -1.13907e-15 0)
(1 -1.76849e-15 0)
(1 -4.43788e-15 0)
(1 4.21495e-16 0)
(1 -3.21503e-15 0)
(1 -1.311e-15 0)
(1 8.93429e-16 0)
(1 3.08292e-15 0)
(1 4.15834e-15 0)
(1 6.90043e-15 0)
(1 3.36965e-15 0)
(1 4.3241e-15 0)
(1 3.08878e-16 0)
(1 3.37398e-15 0)
(1 2.82881e-15 0)
(1 4.88929e-15 0)
(1 3.2198e-15 0)
(1 3.33699e-15 0)
(1 3.31528e-17 0)
(1 2.15337e-15 0)
(1 -6.30935e-16 0)
(1 1.24148e-15 0)
(1 9.78011e-16 0)
(1 5.42072e-15 0)
(1 5.79967e-15 0)
(1 7.5229e-15 0)
(1 3.6408e-15 0)
(1 4.33817e-16 0)
(1 -5.74635e-16 0)
(1 3.71551e-16 0)
(1 -4.57768e-16 0)
(1 9.26472e-16 0)
(1 1.78964e-15 0)
(1 1.57617e-15 0)
(1 3.09891e-15 0)
(1 3.40261e-15 0)
(1 2.88508e-15 0)
(1 -1.45176e-16 0)
(1 -1.04983e-15 0)
(1 -2.8905e-16 0)
(1 -1.4578e-15 0)
(1 1.93166e-15 0)
(1 -1.17364e-16 0)
(1 -2.04559e-16 0)
(1 -1.71612e-15 0)
(1 -2.86254e-16 0)
(1 -1.35601e-15 0)
(1 3.52559e-16 0)
(1 -2.4935e-15 0)
(1 -2.09884e-15 0)
(1 -2.13517e-15 0)
(1 -1.03353e-15 0)
(1 -1.00624e-16 0)
(1 -6.09357e-16 0)
(1 -1.52885e-15 0)
(1 -1.4567e-15 0)
(1 -1.15223e-15 0)
(1 2.81105e-15 0)
(1 2.83238e-15 0)
(1 2.74746e-15 0)
(1 1.212e-15 0)
(1 3.11032e-15 0)
(1 -5.2652e-16 0)
(1 3.97416e-15 0)
(1 -3.41049e-15 0)
(1 9.08578e-16 0)
(1 1.32383e-15 0)
(1 3.46275e-15 0)
(1 1.37465e-15 0)
(1 2.15413e-15 0)
(1 -9.40512e-16 0)
(1 -2.44936e-15 0)
(1 1.07308e-15 0)
(1 4.11107e-15 0)
(1 2.222e-15 0)
(1 3.97517e-15 0)
(1 -2.23751e-15 0)
(1 -5.42659e-15 0)
(1 -3.8682e-15 0)
(1 -2.51122e-15 0)
(1 -1.21696e-15 0)
(1 -8.24937e-16 0)
(1 -1.42923e-15 0)
(1 -2.11606e-15 0)
(1 9.22063e-16 0)
(1 -2.40408e-16 0)
(1 2.52492e-15 0)
(1 -1.76451e-15 0)
(1 -2.01332e-15 0)
(1 -2.98803e-15 0)
(1 -2.6017e-15 0)
(1 -1.29951e-15 0)
(1 -4.22319e-16 0)
(1 -1.24561e-15 0)
(1 -1.99189e-15 0)
(1 -2.87501e-15 0)
(1 1.02328e-15 0)
(1 8.83198e-16 0)
(1 -1.51511e-17 0)
(1 -2.79129e-15 0)
(1 -1.43636e-15 0)
(1 -3.77391e-15 0)
(1 -3.11531e-15 0)
(1 -1.90287e-15 0)
(1 -9.81468e-16 0)
(1 4.23749e-15 0)
(1 1.239e-15 0)
(1 2.65256e-15 0)
(1 2.8417e-15 0)
(1 4.61111e-15 0)
(1 3.41166e-15 0)
(1 3.3742e-15 0)
(1 5.82077e-16 0)
(1 1.13521e-15 0)
(1 1.83854e-15 0)
(1 1.84309e-15 0)
(1 2.48573e-15 0)
(1 4.49455e-15 0)
(1 6.241e-15 0)
(1 5.95833e-15 0)
(1 3.18712e-15 0)
(1 1.23069e-15 0)
(1 9.48782e-17 0)
(1 1.15871e-15 0)
(1 7.88159e-16 0)
(1 2.60047e-15 0)
(1 2.6858e-15 0)
(1 5.79587e-15 0)
(1 1.04608e-15 0)
(1 3.20518e-15 0)
(1 7.57528e-16 0)
(1 1.82533e-15 0)
(1 2.93589e-15 0)
(1 1.37166e-15 0)
(1 3.47262e-15 0)
(1 4.6234e-15 0)
(1 3.60527e-15 0)
(1 1.4903e-15 0)
(1 8.80129e-17 0)
(1 1.50082e-15 0)
(1 2.08955e-15 0)
(1 2.894e-15 0)
(1 -1.23859e-15 0)
(1 -1.27545e-15 0)
(1 -8.87243e-16 0)
(1 -1.45455e-16 0)
(1 -8.85998e-16 0)
(1 -1.02767e-15 0)
(1 -2.5976e-15 0)
(1 -5.85717e-16 0)
(1 5.59358e-16 0)
(1 -5.72812e-16 0)
(1 -1.21161e-15 0)
(1 -5.21661e-16 0)
(1 -1.11754e-15 0)
(1 -2.99005e-16 0)
(1 -1.19806e-15 0)
(1 1.70737e-15 0)
(1 1.68107e-15 0)
(1 3.30945e-15 0)
(1 2.9391e-15 0)
(1 1.90647e-15 0)
(1 6.55099e-16 0)
(1 1.25093e-15 0)
(1 3.7536e-15 0)
(1 1.91842e-15 0)
(1 2.591e-15 0)
(1 -1.3731e-15 0)
(1 -1.73988e-15 0)
(1 -2.99256e-15 0)
(1 1.348e-15 0)
(1 4.01152e-15 0)
(1 1.32567e-15 0)
(1 -8.5968e-16 0)
(1 -8.43026e-16 0)
(1 -2.12521e-15 0)
(1 -3.32334e-15 0)
(1 -3.9065e-15 0)
(1 -4.65913e-15 0)
(1 -1.16891e-15 0)
(1 -2.54315e-15 0)
(1 2.39777e-17 0)
(1 -2.85974e-15 0)
(1 9.21458e-16 0)
(1 -2.12013e-15 0)
(1 5.35558e-15 0)
(1 4.34461e-15 0)
(1 1.87583e-15 0)
(1 -7.32351e-16 0)
(1 -1.57954e-15 0)
(1 -3.18985e-15 0)
(1 -2.39953e-15 0)
(1 -2.15175e-15 0)
(1 -1.23464e-15 0)
(1 -2.24277e-15 0)
(1 -5.46874e-15 0)
(1 -1.60517e-15 0)
(1 -2.19539e-15 0)
(1 -9.64529e-16 0)
(1 -4.54464e-16 0)
(1 -1.34589e-15 0)
(1 -1.49884e-15 0)
(1 1.08571e-15 0)
(1 4.25334e-17 0)
(1 8.5055e-16 0)
(1 3.3342e-15 0)
(1 1.38e-15 0)
(1 3.35663e-15 0)
(1 1.53874e-15 0)
(1 2.17351e-15 0)
(1 1.41798e-15 0)
(1 -2.90471e-17 0)
(1 2.48748e-15 0)
(1 1.89988e-15 0)
(1 1.42e-15 0)
(1 2.02309e-15 0)
(1 3.16189e-15 0)
(1 2.498e-15 0)
(1 5.50527e-15 0)
(1 4.92157e-15 0)
(1 5.26851e-15 0)
(1 4.80845e-15 0)
(1 4.40327e-15 0)
(1 1.67443e-15 0)
(1 1.67531e-15 0)
(1 1.85231e-15 0)
(1 3.7472e-15 0)
(1 3.37465e-15 0)
(1 4.37421e-15 0)
(1 3.87909e-15 0)
(1 3.52363e-15 0)
(1 3.34385e-15 0)
(1 1.83575e-15 0)
(1 5.42329e-15 0)
(1 3.87587e-15 0)
(1 3.8064e-15 0)
(1 2.49828e-15 0)
(1 3.459e-15 0)
(1 2.56078e-15 0)
(1 7.72522e-16 0)
(1 2.38441e-15 0)
(1 2.01266e-16 0)
(1 -3.14942e-16 0)
(1 -6.68489e-16 0)
(1 -1.09462e-15 0)
(1 -1.21372e-15 0)
(1 -2.94706e-15 0)
(1 -5.51708e-15 0)
(1 -4.13677e-15 0)
(1 -3.95366e-15 0)
(1 -2.44652e-15 0)
(1 -2.26632e-15 0)
(1 -5.84528e-16 0)
(1 -1.12973e-16 0)
(1 1.66374e-15 0)
(1 1.49657e-15 0)
(1 3.72509e-15 0)
(1 1.31809e-15 0)
(1 1.1016e-15 0)
(1 2.63791e-15 0)
(1 3.54534e-15 0)
(1 3.06147e-15 0)
(1 -6.00813e-16 0)
(1 -1.47103e-15 0)
(1 1.07447e-15 0)
(1 2.13931e-15 0)
(1 8.06269e-16 0)
(1 2.55362e-15 0)
(1 5.20507e-15 0)
(1 2.14468e-15 0)
(1 4.2779e-16 0)
(1 1.20324e-15 0)
(1 -3.16799e-15 0)
(1 -3.95751e-15 0)
(1 -2.06453e-15 0)
(1 -3.09765e-15 0)
(1 1.03437e-15 0)
(1 5.28437e-16 0)
(1 -3.2057e-15 0)
(1 -4.01539e-15 0)
(1 -3.80165e-15 0)
(1 3.46725e-17 0)
(1 3.42369e-16 0)
(1 3.4981e-15 0)
(1 -3.00292e-15 0)
(1 -3.87205e-16 0)
(1 -3.70495e-15 0)
(1 5.75153e-16 0)
(1 -1.11758e-15 0)
(1 5.15754e-16 0)
(1 -1.70334e-15 0)
(1 -3.06194e-15 0)
(1 -1.00807e-15 0)
(1 -3.16328e-15 0)
(1 9.03445e-16 0)
(1 -1.15968e-15 0)
(1 -1.54331e-15 0)
(1 -5.11414e-17 0)
(1 -2.21421e-15 0)
(1 7.55707e-17 0)
(1 -5.69256e-17 0)
(1 1.63313e-15 0)
(1 9.45793e-16 0)
(1 1.41752e-15 0)
(1 1.68794e-15 0)
(1 -3.6571e-15 0)
(1 -8.27773e-16 0)
(1 -4.03286e-15 0)
(1 1.55668e-15 0)
(1 1.08014e-15 0)
(1 3.23751e-15 0)
(1 1.64894e-15 0)
(1 3.69613e-15 0)
(1 2.82296e-15 0)
(1 3.44903e-15 0)
(1 1.49347e-15 0)
(1 2.52886e-15 0)
(1 3.63989e-15 0)
(1 6.19177e-15 0)
(1 4.01321e-15 0)
(1 4.87048e-15 0)
(1 1.68314e-15 0)
(1 1.03197e-15 0)
(1 -4.3912e-16 0)
(1 2.12121e-15 0)
(1 1.61254e-15 0)
(1 2.96494e-15 0)
(1 1.2348e-15 0)
(1 3.64492e-15 0)
(1 1.54842e-15 0)
(1 4.65632e-15 0)
(1 2.20233e-15 0)
(1 2.16122e-15 0)
(1 4.16777e-15 0)
(1 2.67545e-15 0)
(1 3.29538e-15 0)
(1 2.50655e-15 0)
(1 2.02753e-16 0)
(1 -3.01884e-16 0)
(1 -1.06986e-15 0)
(1 1.65498e-15 0)
(1 -3.37131e-16 0)
(1 4.08295e-18 0)
(1 -1.15685e-15 0)
(1 2.59e-16 0)
(1 5.35843e-17 0)
(1 -1.25956e-15 0)
(1 -3.2798e-15 0)
(1 -4.36657e-15 0)
(1 -5.22566e-15 0)
(1 -3.44229e-15 0)