/*--------------------------------*- C++ -*----------------------------------*\
| =========                 |                                                 |
| \\      /  F ield         | OpenFOAM: The Open Source CFD Toolbox           |
|  \\    /   O peration     | Version:  v2012                                 |
|   \\  /    A nd           | Website:  www.openfoam.com                      |
|    \\/     M anipulation  |                                                 |
\*---------------------------------------------------------------------------*/
FoamFile
{
    version     2.0;
    format      ascii;
    class       volScalarField;
    location    "0";
    object      pRec;
}
// * * * * * * * * * * * * * * * * * * * * * * * * * * * * * * * * * * * * * //

dimensions      [0 2 -2 0 0 0 0];


internalField   nonuniform List<scalar> 
4000
(
-6.95451e-13
-6.89932e-13
-6.91145e-13
-6.94181e-13
-6.92126e-13
-6.92435e-13
-6.91154e-13
-6.86255e-13
-6.76184e-13
-6.72335e-13
-6.73665e-13
-6.68202e-13
-6.57214e-13
-6.43374e-13
-6.29957e-13
-6.23484e-13
-6.18778e-13
-6.16255e-13
-6.09069e-13
-5.95457e-13
-5.84532e-13
-5.77457e-13
-5.72071e-13
-5.64838e-13
-5.54435e-13
-5.43759e-13
-5.41639e-13
-5.36016e-13
-5.29501e-13
-5.18662e-13
-5.02647e-13
-4.95736e-13
-4.93595e-13
-4.9154e-13
-4.86414e-13
-4.83406e-13
-4.74211e-13
-4.55887e-13
-4.38418e-13
-4.34768e-13
-4.35232e-13
-4.33206e-13
-4.33289e-13
-4.26846e-13
-4.15443e-13
-4.06493e-13
-3.97678e-13
-3.88362e-13
-3.78891e-13
-3.70854e-13
-3.61566e-13
-3.53396e-13
-3.45869e-13
-3.36757e-13
-3.28409e-13
-3.1575e-13
-3.08869e-13
-3.0597e-13
-3.03351e-13
-3.00221e-13
-2.91913e-13
-2.84571e-13
-2.74553e-13
-2.62685e-13
-2.54596e-13
-2.47185e-13
-2.42875e-13
-2.34943e-13
-2.24445e-13
-2.16996e-13
-2.09673e-13
-2.02923e-13
-1.90063e-13
-1.83082e-13
-1.8204e-13
-1.77735e-13
-1.73995e-13
-1.67728e-13
-1.58875e-13
-1.45929e-13
-1.33263e-13
-1.27688e-13
-1.19221e-13
-1.14885e-13
-1.10574e-13
-1.04804e-13
-9.5605e-14
-8.77102e-14
-8.40568e-14
-8.00866e-14
-7.40227e-14
-6.75461e-14
-6.04081e-14
-5.44306e-14
-4.55529e-14
-3.64669e-14
-2.82387e-14
-1.99857e-14
-1.13363e-14
-2.82098e-15
-6.92064e-13
-6.90866e-13
-6.94009e-13
-6.93932e-13
-6.94452e-13
-6.91161e-13
-6.88418e-13
-6.86052e-13
-6.80737e-13
-6.75812e-13
-6.7012e-13
-6.64759e-13
-6.55424e-13
-6.44029e-13
-6.33006e-13
-6.26638e-13
-6.2179e-13
-6.14849e-13
-6.05995e-13
-5.98657e-13
-5.88107e-13
-5.76235e-13
-5.68287e-13
-5.6168e-13
-5.52341e-13
-5.46206e-13
-5.42863e-13
-5.3673e-13
-5.28359e-13
-5.14985e-13
-5.05724e-13
-4.99035e-13
-4.93052e-13
-4.88424e-13
-4.83852e-13
-4.79778e-13
-4.72293e-13
-4.595e-13
-4.45327e-13
-4.38747e-13
-4.35051e-13
-4.32536e-13
-4.30092e-13
-4.24932e-13
-4.17121e-13
-4.06679e-13
-3.9625e-13
-3.88193e-13
-3.79143e-13
-3.68433e-13
-3.60519e-13
-3.52544e-13
-3.45854e-13
-3.37877e-13
-3.29456e-13
-3.18444e-13
-3.08806e-13
-3.0426e-13
-3.01677e-13
-2.987e-13
-2.94065e-13
-2.84596e-13
-2.75632e-13
-2.64432e-13
-2.56239e-13
-2.46987e-13
-2.40497e-13
-2.3409e-13
-2.26501e-13
-2.18393e-13
-2.1002e-13
-2.0288e-13
-1.94925e-13
-1.86118e-13
-1.81795e-13
-1.74431e-13
-1.72639e-13
-1.65563e-13
-1.55873e-13
-1.44169e-13
-1.34402e-13
-1.291e-13
-1.22959e-13
-1.17281e-13
-1.0857e-13
-1.02534e-13
-9.37655e-14
-8.57879e-14
-8.2437e-14
-7.86145e-14
-7.5553e-14
-7.0054e-14
-6.40965e-14
-5.26267e-14
-4.40033e-14
-3.71011e-14
-2.78175e-14
-2.01867e-14
-1.29973e-14
-4.59676e-15
-6.91611e-13
-6.90688e-13
-6.92876e-13
-6.96048e-13
-6.97009e-13
-6.92536e-13
-6.87511e-13
-6.84984e-13
-6.79056e-13
-6.75512e-13
-6.70426e-13
-6.64047e-13
-6.55077e-13
-6.45305e-13
-6.34834e-13
-6.2717e-13
-6.21281e-13
-6.14308e-13
-6.0648e-13
-5.97461e-13
-5.86901e-13
-5.78041e-13
-5.69242e-13
-5.62487e-13
-5.54119e-13
-5.48594e-13
-5.43835e-13
-5.3574e-13
-5.26144e-13
-5.13137e-13
-5.06318e-13
-4.9927e-13
-4.92982e-13
-4.89889e-13
-4.85714e-13
-4.81116e-13
-4.71081e-13
-4.6102e-13
-4.49995e-13
-4.38984e-13
-4.34228e-13
-4.2929e-13
-4.29489e-13
-4.25544e-13
-4.18154e-13
-4.06947e-13
-3.95079e-13
-3.85541e-13
-3.79669e-13
-3.74213e-13
-3.62666e-13
-3.52846e-13
-3.43544e-13
-3.34878e-13
-3.27775e-13
-3.19511e-13
-3.08995e-13
-3.06348e-13
-3.0631e-13
-2.9995e-13
-2.91782e-13
-2.79803e-13
-2.71484e-13
-2.65729e-13
-2.58967e-13
-2.50599e-13
-2.43239e-13
-2.32973e-13
-2.25214e-13
-2.15448e-13
-2.07116e-13
-2.0018e-13
-1.91487e-13
-1.8574e-13
-1.81283e-13
-1.76692e-13
-1.71506e-13
-1.65617e-13
-1.55318e-13
-1.44871e-13
-1.39603e-13
-1.31215e-13
-1.19175e-13
-1.1363e-13
-1.08223e-13
-1.04801e-13
-9.84934e-14
-8.90165e-14
-8.23256e-14
-7.66442e-14
-7.31517e-14
-6.93721e-14
-6.22754e-14
-5.37889e-14
-4.3356e-14
-3.45018e-14
-2.84403e-14
-2.11976e-14
-1.65041e-14
-5.23858e-15
-6.92639e-13
-6.93845e-13
-6.94598e-13
-6.90932e-13
-6.95314e-13
-6.89574e-13
-6.87551e-13
-6.85176e-13
-6.83152e-13
-6.77769e-13
-6.68693e-13
-6.59452e-13
-6.5164e-13
-6.45963e-13
-6.43468e-13
-6.3341e-13
-6.19406e-13
-6.10964e-13
-6.05544e-13
-5.96377e-13
-5.87505e-13
-5.7994e-13
-5.70033e-13
-5.56676e-13
-5.49551e-13
-5.46317e-13
-5.43104e-13
-5.37654e-13
-5.25983e-13
-5.17138e-13
-5.1024e-13
-5.02314e-13
-4.93706e-13
-4.87812e-13
-4.81411e-13
-4.80514e-13
-4.71346e-13
-4.59635e-13
-4.51142e-13
-4.41644e-13
-4.37412e-13
-4.34335e-13
-4.29313e-13
-4.22771e-13
-4.13249e-13
-4.03212e-13
-3.94802e-13
-3.89385e-13
-3.81056e-13
-3.67846e-13
-3.58142e-13
-3.51821e-13
-3.45591e-13
-3.38944e-13
-3.27187e-13
-3.2039e-13
-3.11153e-13
-3.06046e-13
-3.05229e-13
-2.98757e-13
-2.90159e-13
-2.81113e-13
-2.75556e-13
-2.6813e-13
-2.58379e-13
-2.49744e-13
-2.42086e-13
-2.32988e-13
-2.25898e-13
-2.17795e-13
-2.10862e-13
-2.03481e-13
-1.94501e-13
-1.87055e-13
-1.80784e-13
-1.75322e-13
-1.7182e-13
-1.64876e-13
-1.55179e-13
-1.45601e-13
-1.38378e-13
-1.32043e-13
-1.21292e-13
-1.11902e-13
-1.07437e-13
-1.02564e-13
-9.61383e-14
-8.85457e-14
-8.12209e-14
-7.71761e-14
-7.51613e-14
-6.97285e-14
-6.4038e-14
-5.23806e-14
-4.3394e-14
-3.70203e-14
-3.00005e-14
-2.04058e-14
-1.33401e-14
-4.84748e-15
-6.93687e-13
-6.98037e-13
-6.94612e-13
-6.90089e-13
-6.8666e-13
-6.90049e-13
-6.90234e-13
-6.88622e-13
-6.82327e-13
-6.74844e-13
-6.66416e-13
-6.61101e-13
-6.5144e-13
-6.43796e-13
-6.42293e-13
-6.36514e-13
-6.26026e-13
-6.15574e-13
-6.03208e-13
-5.91257e-13
-5.86279e-13
-5.78958e-13
-5.64898e-13
-5.5559e-13
-5.52777e-13
-5.4932e-13
-5.44669e-13
-5.36427e-13
-5.28217e-13
-5.19394e-13
-5.10811e-13
-5.03537e-13
-4.94578e-13
-4.88321e-13
-4.82395e-13
-4.79711e-13
-4.70378e-13
-4.59594e-13
-4.48557e-13
-4.41076e-13
-4.37467e-13
-4.3643e-13
-4.29547e-13
-4.21264e-13
-4.10944e-13
-4.01032e-13
-3.93419e-13
-3.87722e-13
-3.79855e-13
-3.71469e-13
-3.61672e-13
-3.54615e-13
-3.46494e-13
-3.38251e-13
-3.27806e-13
-3.1901e-13
-3.1245e-13
-3.07527e-13
-3.0415e-13
-2.9725e-13
-2.89956e-13
-2.81609e-13
-2.73269e-13
-2.67189e-13
-2.61666e-13
-2.54945e-13
-2.46937e-13
-2.34369e-13
-2.25557e-13
-2.15394e-13
-2.07248e-13
-2.00738e-13
-1.94245e-13
-1.87223e-13
-1.7751e-13
-1.72317e-13
-1.70193e-13
-1.64586e-13
-1.57484e-13
-1.47528e-13
-1.39783e-13
-1.34159e-13
-1.21526e-13
-1.11205e-13
-1.04216e-13
-9.93431e-14
-9.57655e-14
-9.12958e-14
-8.34934e-14
-7.86517e-14
-7.40877e-14
-6.93835e-14
-6.18903e-14
-5.6086e-14
-4.79877e-14
-3.74609e-14
-3.00664e-14
-2.27096e-14
-1.29239e-14
-2.52065e-15
-6.90318e-13
-6.99629e-13
-6.96236e-13
-6.87265e-13
-6.91091e-13
-6.94731e-13
-6.92955e-13
-6.88773e-13
-6.80494e-13
-6.67441e-13
-6.63812e-13
-6.59905e-13
-6.55908e-13
-6.45763e-13
-6.39169e-13
-6.38318e-13
-6.27797e-13
-6.18018e-13
-6.07789e-13
-5.9449e-13
-5.84005e-13
-5.72673e-13
-5.55808e-13
-5.52359e-13
-5.53291e-13
-5.52586e-13
-5.4464e-13
-5.35306e-13
-5.27202e-13
-5.22408e-13
-5.12373e-13
-5.02925e-13
-4.94438e-13
-4.91297e-13
-4.87857e-13
-4.7853e-13
-4.68151e-13
-4.59335e-13
-4.48707e-13
-4.43463e-13
-4.40083e-13
-4.36921e-13
-4.2797e-13
-4.21704e-13
-4.11181e-13
-3.9913e-13
-3.89586e-13
-3.84046e-13
-3.79952e-13
-3.71318e-13
-3.63835e-13
-3.53995e-13
-3.4494e-13
-3.35988e-13
-3.264e-13
-3.20652e-13
-3.15033e-13
-3.08798e-13
-3.02536e-13
-2.98057e-13
-2.92008e-13
-2.82508e-13
-2.7426e-13
-2.67182e-13
-2.58017e-13
-2.53122e-13
-2.47709e-13
-2.3553e-13
-2.26567e-13
-2.18399e-13
-2.08727e-13
-2.01042e-13
-1.95639e-13
-1.8909e-13
-1.79457e-13
-1.7479e-13
-1.68984e-13
-1.61446e-13
-1.56404e-13
-1.49866e-13
-1.42413e-13
-1.33303e-13
-1.19327e-13
-1.09004e-13
-1.0493e-13
-1.01708e-13
-9.78654e-14
-8.92478e-14
-8.26075e-14
-7.82309e-14
-7.36738e-14
-6.95867e-14
-6.01936e-14
-5.53422e-14
-4.8148e-14
-4.07849e-14
-3.025e-14
-2.15644e-14
-1.10013e-14
-1.39502e-15
-6.95465e-13
-6.96322e-13
-6.95802e-13
-6.92318e-13
-6.89822e-13
-6.93279e-13
-6.92471e-13
-6.86454e-13
-6.78577e-13
-6.67942e-13
-6.59896e-13
-6.59029e-13
-6.57936e-13
-6.47101e-13
-6.40433e-13
-6.3548e-13
-6.31622e-13
-6.23263e-13
-6.0502e-13
-5.87414e-13
-5.71677e-13
-5.67824e-13
-5.65896e-13
-5.6346e-13
-5.58527e-13
-5.52081e-13
-5.41463e-13
-5.32879e-13
-5.2889e-13
-5.24229e-13
-5.15256e-13
-5.01958e-13
-4.95521e-13
-4.87303e-13
-4.82139e-13
-4.76096e-13
-4.69918e-13
-4.64597e-13
-4.53884e-13
-4.42168e-13
-4.35201e-13
-4.3069e-13
-4.25901e-13
-4.21701e-13
-4.14736e-13
-4.04203e-13
-3.92689e-13
-3.83232e-13
-3.76758e-13
-3.70943e-13
-3.63434e-13
-3.57241e-13
-3.48079e-13
-3.36325e-13
-3.2788e-13
-3.21668e-13
-3.14766e-13
-3.0339e-13
-2.98668e-13
-2.97367e-13
-2.9622e-13
-2.88034e-13
-2.76696e-13
-2.64689e-13
-2.55137e-13
-2.49765e-13
-2.4229e-13
-2.31255e-13
-2.22169e-13
-2.1767e-13
-2.16844e-13
-2.07244e-13
-1.96958e-13
-1.91924e-13
-1.82276e-13
-1.72907e-13
-1.65108e-13
-1.5781e-13
-1.52277e-13
-1.48043e-13
-1.41601e-13
-1.32526e-13
-1.24286e-13
-1.15222e-13
-1.08699e-13
-9.8355e-14
-9.49157e-14
-9.10809e-14
-8.3115e-14
-7.99069e-14
-7.31926e-14
-6.50618e-14
-6.05048e-14
-5.48672e-14
-4.83898e-14
-3.83866e-14
-3.00736e-14
-2.01831e-14
-1.10959e-14
-3.58093e-15
-6.94826e-13
-6.94498e-13
-6.9245e-13
-6.93222e-13
-6.95812e-13
-6.95476e-13
-6.92302e-13
-6.85694e-13
-6.77006e-13
-6.69345e-13
-6.63463e-13
-6.57856e-13
-6.54288e-13
-6.4506e-13
-6.41059e-13
-6.35355e-13
-6.31683e-13
-6.22577e-13
-6.00173e-13
-5.88709e-13
-5.84293e-13
-5.77338e-13
-5.66925e-13
-5.57382e-13
-5.54384e-13
-5.48048e-13
-5.37136e-13
-5.30978e-13
-5.2622e-13
-5.21643e-13
-5.15127e-13
-5.07353e-13
-5.01217e-13
-4.9468e-13
-4.83129e-13
-4.75089e-13
-4.68548e-13
-4.59718e-13
-4.5162e-13
-4.42327e-13
-4.3652e-13
-4.34342e-13
-4.27233e-13
-4.25291e-13
-4.19206e-13
-4.04433e-13
-3.8907e-13
-3.75289e-13
-3.73892e-13
-3.72791e-13
-3.68499e-13
-3.60683e-13
-3.47826e-13
-3.36417e-13
-3.25396e-13
-3.18932e-13
-3.15177e-13
-3.09388e-13
-3.00743e-13
-2.94507e-13
-2.91858e-13
-2.84976e-13
-2.7759e-13
-2.69055e-13
-2.60649e-13
-2.51869e-13
-2.42995e-13
-2.32998e-13
-2.27042e-13
-2.20054e-13
-2.12692e-13
-2.07219e-13
-1.95949e-13
-1.83679e-13
-1.76485e-13
-1.7351e-13
-1.68931e-13
-1.61578e-13
-1.57064e-13
-1.51104e-13
-1.42234e-13
-1.3271e-13
-1.20726e-13
-1.10002e-13
-1.01684e-13
-9.79261e-14
-9.59362e-14
-9.26074e-14
-8.52552e-14
-7.84352e-14
-7.08257e-14
-6.54089e-14
-6.08882e-14
-5.60719e-14
-4.68318e-14
-3.68251e-14
-3.00819e-14
-2.16142e-14
-1.24154e-14
-2.02668e-15
-6.97127e-13
-6.99006e-13
-6.9395e-13
-6.87634e-13
-6.9167e-13
-6.94528e-13
-6.94313e-13
-6.8684e-13
-6.74311e-13
-6.70984e-13
-6.6441e-13
-6.54572e-13
-6.48618e-13
-6.44939e-13
-6.42051e-13
-6.37838e-13
-6.313e-13
-6.20303e-13
-6.03791e-13
-5.90851e-13
-5.83132e-13
-5.74967e-13
-5.70926e-13
-5.63641e-13
-5.54296e-13
-5.44517e-13
-5.36235e-13
-5.31115e-13
-5.29369e-13
-5.22647e-13
-5.15961e-13
-5.08457e-13
-4.98118e-13
-4.87867e-13
-4.83554e-13
-4.76185e-13
-4.67468e-13
-4.58612e-13
-4.53732e-13
-4.48292e-13
-4.42765e-13
-4.35664e-13
-4.24103e-13
-4.15884e-13
-4.12171e-13
-4.0493e-13
-3.94287e-13
-3.83934e-13
-3.77274e-13
-3.70187e-13
-3.63333e-13
-3.56263e-13
-3.46434e-13
-3.37651e-13
-3.29581e-13
-3.2445e-13
-3.16183e-13
-3.0919e-13
-3.01466e-13
-2.95463e-13
-2.89041e-13
-2.8234e-13
-2.76101e-13
-2.68434e-13
-2.57904e-13
-2.47745e-13
-2.41537e-13
-2.33763e-13
-2.26095e-13
-2.18889e-13
-2.11323e-13
-2.07708e-13
-1.99989e-13
-1.89956e-13
-1.78797e-13
-1.73882e-13
-1.69878e-13
-1.63048e-13
-1.57524e-13
-1.48501e-13
-1.42695e-13
-1.33541e-13
-1.21008e-13
-1.11567e-13
-1.03911e-13
-9.86388e-14
-9.67495e-14
-9.18886e-14
-8.46784e-14
-7.84186e-14
-7.05373e-14
-6.45432e-14
-5.79192e-14
-5.32648e-14
-4.64425e-14
-3.78e-14
-2.86854e-14
-1.78574e-14
-8.4367e-15
7.28437e-16
-6.97175e-13
-6.96533e-13
-6.96409e-13
-6.93392e-13
-6.90137e-13
-6.92416e-13
-6.90959e-13
-6.89471e-13
-6.81586e-13
-6.67209e-13
-6.59031e-13
-6.51728e-13
-6.49734e-13
-6.47984e-13
-6.43741e-13
-6.37051e-13
-6.27223e-13
-6.20558e-13
-6.10722e-13
-5.95374e-13
-5.83261e-13
-5.70842e-13
-5.65583e-13
-5.5852e-13
-5.55727e-13
-5.49754e-13
-5.39526e-13
-5.3361e-13
-5.27913e-13
-5.2247e-13
-5.16926e-13
-5.0841e-13
-4.98118e-13
-4.86808e-13
-4.80257e-13
-4.74626e-13
-4.70077e-13
-4.6e-13
-4.5432e-13
-4.48912e-13
-4.39495e-13
-4.30146e-13
-4.23319e-13
-4.16343e-13
-4.14795e-13
-4.09183e-13
-3.9828e-13
-3.86051e-13
-3.77348e-13
-3.67578e-13
-3.60318e-13
-3.56059e-13
-3.48025e-13
-3.38852e-13
-3.30139e-13
-3.22596e-13
-3.15558e-13
-3.08192e-13
-3.01256e-13
-2.97551e-13
-2.92694e-13
-2.8861e-13
-2.81324e-13
-2.69052e-13
-2.5479e-13
-2.40768e-13
-2.33762e-13
-2.28964e-13
-2.25258e-13
-2.24934e-13
-2.18873e-13
-2.10165e-13
-2.02727e-13
-1.92381e-13
-1.79941e-13
-1.71208e-13
-1.6673e-13
-1.60925e-13
-1.5676e-13
-1.48388e-13
-1.4206e-13
-1.33846e-13
-1.22719e-13
-1.14976e-13
-1.06058e-13
-9.77052e-14
-9.34286e-14
-8.76304e-14
-8.38937e-14
-7.90411e-14
-6.91448e-14
-6.04e-14
-5.50916e-14
-5.05346e-14
-4.19928e-14
-3.34314e-14
-2.51613e-14
-1.60374e-14
-6.27503e-15
-1.44303e-16
-6.95518e-13
-6.9484e-13
-6.94042e-13
-6.95378e-13
-6.95633e-13
-6.90297e-13
-6.88368e-13
-6.85804e-13
-6.79792e-13
-6.72489e-13
-6.59747e-13
-6.50246e-13
-6.49385e-13
-6.49174e-13
-6.44054e-13
-6.39598e-13
-6.27268e-13
-6.18781e-13
-6.10372e-13
-5.96726e-13
-5.87421e-13
-5.72054e-13
-5.61911e-13
-5.57397e-13
-5.51467e-13
-5.4645e-13
-5.41828e-13
-5.35115e-13
-5.29656e-13
-5.24385e-13
-5.1606e-13
-5.07096e-13
-4.97072e-13
-4.88929e-13
-4.84204e-13
-4.7601e-13
-4.67581e-13
-4.60254e-13
-4.55899e-13
-4.47255e-13
-4.39205e-13
-4.29799e-13
-4.23379e-13
-4.20919e-13
-4.17947e-13
-4.07785e-13
-3.95095e-13
-3.82328e-13
-3.74167e-13
-3.66136e-13
-3.6324e-13
-3.57966e-13
-3.47485e-13
-3.38336e-13
-3.28801e-13
-3.25335e-13
-3.18339e-13
-3.10517e-13
-3.00448e-13
-2.9148e-13
-2.89429e-13
-2.81599e-13
-2.76141e-13
-2.71652e-13
-2.57627e-13
-2.43525e-13
-2.3387e-13
-2.28277e-13
-2.25681e-13
-2.27987e-13
-2.20236e-13
-2.1269e-13
-2.03424e-13
-1.91512e-13
-1.77923e-13
-1.67495e-13
-1.66357e-13
-1.64512e-13
-1.60559e-13
-1.52041e-13
-1.4592e-13
-1.37368e-13
-1.22495e-13
-1.11583e-13
-1.01007e-13
-9.22136e-14
-9.42619e-14
-9.22441e-14
-8.44346e-14
-7.76348e-14
-6.7494e-14
-6.12122e-14
-5.46094e-14
-4.85508e-14
-4.36777e-14
-3.65352e-14
-2.14748e-14
-7.47179e-15
1.06171e-15
-1.45829e-15
-6.98644e-13
-6.96723e-13
-6.94575e-13
-6.9624e-13
-6.94812e-13
-6.89766e-13
-6.89871e-13
-6.86624e-13
-6.79215e-13
-6.69625e-13
-6.614e-13
-6.5361e-13
-6.45773e-13
-6.42654e-13
-6.39402e-13
-6.33544e-13
-6.30418e-13
-6.2422e-13
-6.1271e-13
-5.98107e-13
-5.86682e-13
-5.78893e-13
-5.67971e-13
-5.58098e-13
-5.51338e-13
-5.4103e-13
-5.37381e-13
-5.34457e-13
-5.31014e-13
-5.26896e-13
-5.18247e-13
-5.07752e-13
-4.95786e-13
-4.86498e-13
-4.8086e-13
-4.73813e-13
-4.69657e-13
-4.63034e-13
-4.58165e-13
-4.45811e-13
-4.37784e-13
-4.26946e-13
-4.2307e-13
-4.23183e-13
-4.16273e-13
-4.07699e-13
-3.9597e-13
-3.85738e-13
-3.7541e-13
-3.65956e-13
-3.59193e-13
-3.55959e-13
-3.47405e-13
-3.41203e-13
-3.3387e-13
-3.24312e-13
-3.16542e-13
-3.08218e-13
-3.00104e-13
-2.94246e-13
-2.91857e-13
-2.91466e-13
-2.8069e-13
-2.68492e-13
-2.50092e-13
-2.40189e-13
-2.33722e-13
-2.30489e-13
-2.25749e-13
-2.23521e-13
-2.17289e-13
-2.16018e-13
-2.09873e-13
-1.97258e-13
-1.76811e-13
-1.60657e-13
-1.59513e-13
-1.65557e-13
-1.62798e-13
-1.52126e-13
-1.44968e-13
-1.34696e-13
-1.24706e-13
-1.16e-13
-1.05784e-13
-9.51512e-14
-8.9068e-14
-8.81736e-14
-8.28752e-14
-7.61471e-14
-6.54188e-14
-6.05313e-14
-5.46348e-14
-4.73378e-14
-3.93774e-14
-3.27047e-14
-2.0372e-14
-9.11016e-15
-2.60367e-15
-1.63166e-15
-6.96271e-13
-6.95979e-13
-6.88512e-13
-6.97383e-13
-6.97028e-13
-6.94039e-13
-6.87995e-13
-6.81346e-13
-6.74472e-13
-6.64736e-13
-6.59887e-13
-6.54911e-13
-6.53823e-13
-6.47665e-13
-6.41409e-13
-6.37234e-13
-6.32335e-13
-6.25556e-13
-6.1359e-13
-5.99155e-13
-5.80438e-13
-5.6672e-13
-5.5771e-13
-5.55942e-13
-5.51359e-13
-5.46958e-13
-5.40271e-13
-5.34104e-13
-5.31766e-13
-5.28908e-13
-5.2131e-13
-5.08476e-13
-4.98534e-13
-4.90501e-13
-4.8591e-13
-4.7571e-13
-4.6634e-13
-4.61539e-13
-4.55617e-13
-4.45615e-13
-4.36367e-13
-4.32163e-13
-4.2759e-13
-4.21756e-13
-4.10661e-13
-4.0146e-13
-3.93997e-13
-3.86117e-13
-3.77331e-13
-3.69636e-13
-3.62817e-13
-3.56317e-13
-3.44892e-13
-3.3489e-13
-3.36142e-13
-3.35137e-13
-3.1976e-13
-3.05002e-13
-2.96296e-13
-2.88261e-13
-2.85685e-13
-2.82763e-13
-2.81541e-13
-2.71605e-13
-2.54893e-13
-2.45623e-13
-2.32689e-13
-2.31206e-13
-2.25976e-13
-2.20837e-13
-2.16949e-13
-2.16766e-13
-2.10652e-13
-1.95131e-13
-1.7831e-13
-1.65498e-13
-1.62729e-13
-1.66182e-13
-1.59198e-13
-1.49745e-13
-1.43187e-13
-1.35492e-13
-1.27444e-13
-1.1768e-13
-1.07032e-13
-9.46677e-14
-8.90383e-14
-8.8523e-14
-8.16898e-14
-7.44484e-14
-6.58947e-14
-5.90501e-14
-5.13316e-14
-4.54205e-14
-3.99486e-14
-3.15665e-14
-2.05988e-14
-1.08663e-14
-1.65241e-15
3.05572e-16
-6.92965e-13
-7.02734e-13
-6.97632e-13
-6.92838e-13
-6.93334e-13
-6.91845e-13
-6.87228e-13
-6.85789e-13
-6.75051e-13
-6.61034e-13
-6.57049e-13
-6.55144e-13
-6.52327e-13
-6.48525e-13
-6.43949e-13
-6.34406e-13
-6.2388e-13
-6.16095e-13
-6.10505e-13
-6.01659e-13
-5.94772e-13
-5.86245e-13
-5.73717e-13
-5.55833e-13
-5.42005e-13
-5.35809e-13
-5.38013e-13
-5.35842e-13
-5.33202e-13
-5.31012e-13
-5.22146e-13
-5.0967e-13
-4.94495e-13
-4.8238e-13
-4.77063e-13
-4.72614e-13
-4.72419e-13
-4.68048e-13
-4.56463e-13
-4.50052e-13
-4.39024e-13
-4.28722e-13
-4.26131e-13
-4.19004e-13
-4.09988e-13
-4.00882e-13
-3.91202e-13
-3.86139e-13
-3.81015e-13
-3.7206e-13
-3.63959e-13
-3.54121e-13
-3.46499e-13
-3.3906e-13
-3.34103e-13
-3.28349e-13
-3.21742e-13
-3.14302e-13
-3.05658e-13
-2.93925e-13
-2.84472e-13
-2.77792e-13
-2.72104e-13
-2.66403e-13
-2.56232e-13
-2.47884e-13
-2.39024e-13
-2.32375e-13
-2.26542e-13
-2.23396e-13
-2.19421e-13
-2.11629e-13
-2.04155e-13
-1.96067e-13
-1.81434e-13
-1.70597e-13
-1.63272e-13
-1.61166e-13
-1.58859e-13
-1.50614e-13
-1.44024e-13
-1.33543e-13
-1.26154e-13
-1.16612e-13
-1.05727e-13
-9.63835e-14
-9.15893e-14
-8.70807e-14
-8.27449e-14
-7.4017e-14
-6.61565e-14
-6.20305e-14
-5.39664e-14
-4.50588e-14
-3.52161e-14
-2.66661e-14
-1.9234e-14
-1.22715e-14
-4.41788e-15
-1.53081e-16
-6.92376e-13
-6.96487e-13
-6.9862e-13
-6.94562e-13
-6.93698e-13
-6.94739e-13
-6.84222e-13
-6.72909e-13
-6.67701e-13
-6.65608e-13
-6.62986e-13
-6.59001e-13
-6.55709e-13
-6.50017e-13
-6.44223e-13
-6.35723e-13
-6.29082e-13
-6.24922e-13
-6.15566e-13
-6.01155e-13
-5.81652e-13
-5.68284e-13
-5.5907e-13
-5.49293e-13
-5.49618e-13
-5.47969e-13
-5.432e-13
-5.35859e-13
-5.31423e-13
-5.30086e-13
-5.24084e-13
-5.13082e-13
-4.99976e-13
-4.82731e-13
-4.72296e-13
-4.72974e-13
-4.73878e-13
-4.69444e-13
-4.62259e-13
-4.51123e-13
-4.36701e-13
-4.27444e-13
-4.19805e-13
-4.14788e-13
-4.09365e-13
-4.03645e-13
-3.96329e-13
-3.87325e-13
-3.80633e-13
-3.78888e-13
-3.70107e-13
-3.52173e-13
-3.41368e-13
-3.34003e-13
-3.28278e-13
-3.26545e-13
-3.2258e-13
-3.13507e-13
-3.00945e-13
-2.90995e-13
-2.87454e-13
-2.82786e-13
-2.7555e-13
-2.66318e-13
-2.5209e-13
-2.41828e-13
-2.37299e-13
-2.3499e-13
-2.30153e-13
-2.23254e-13
-2.16414e-13
-2.11738e-13
-2.04661e-13
-1.94646e-13
-1.82745e-13
-1.67399e-13
-1.62059e-13
-1.60233e-13
-1.60907e-13
-1.56086e-13
-1.47474e-13
-1.37092e-13
-1.25911e-13
-1.13923e-13
-1.04077e-13
-9.69124e-14
-9.23143e-14
-8.65327e-14
-8.02021e-14
-7.31463e-14
-6.65157e-14
-6.08598e-14
-5.46211e-14
-4.50626e-14
-3.44271e-14
-2.40737e-14
-1.53605e-14
-9.4927e-15
-2.64643e-15
-8.66787e-16
-6.9098e-13
-6.99806e-13
-7.00578e-13
-6.95527e-13
-6.92278e-13
-6.97658e-13
-6.93788e-13
-6.79437e-13
-6.61121e-13
-6.56891e-13
-6.55943e-13
-6.57194e-13
-6.56047e-13
-6.53089e-13
-6.47634e-13
-6.36881e-13
-6.27312e-13
-6.19174e-13
-6.06514e-13
-5.97687e-13
-5.8938e-13
-5.76409e-13
-5.64162e-13
-5.50008e-13
-5.48874e-13
-5.46936e-13
-5.45077e-13
-5.40127e-13
-5.32249e-13
-5.29208e-13
-5.20694e-13
-5.08638e-13
-4.98795e-13
-4.83564e-13
-4.71525e-13
-4.7056e-13
-4.72026e-13
-4.70202e-13
-4.61766e-13
-4.51826e-13
-4.35786e-13
-4.26237e-13
-4.2333e-13
-4.1746e-13
-4.09543e-13
-4.01682e-13
-3.98655e-13
-3.91642e-13
-3.80631e-13
-3.69035e-13
-3.6095e-13
-3.54884e-13
-3.45398e-13
-3.32325e-13
-3.33014e-13
-3.30225e-13
-3.21995e-13
-3.1534e-13
-3.0765e-13
-2.93332e-13
-2.85734e-13
-2.78946e-13
-2.70684e-13
-2.63112e-13
-2.51775e-13
-2.44196e-13
-2.35015e-13
-2.32087e-13
-2.26833e-13
-2.26365e-13
-2.18966e-13
-2.14961e-13
-2.0818e-13
-1.94311e-13
-1.79896e-13
-1.68057e-13
-1.65097e-13
-1.62136e-13
-1.57097e-13
-1.52115e-13
-1.46285e-13
-1.37509e-13
-1.2683e-13
-1.14393e-13
-1.07277e-13
-1.00332e-13
-9.29049e-14
-8.60415e-14
-8.02359e-14
-7.21536e-14
-6.50548e-14
-5.87278e-14
-5.06111e-14
-4.15275e-14
-3.40339e-14
-2.76576e-14
-1.37022e-14
-6.38264e-15
1.01861e-16
2.00191e-16
-6.97943e-13
-6.96974e-13
-6.93421e-13
-6.89537e-13
-6.91083e-13
-6.85868e-13
-6.81277e-13
-6.82502e-13
-6.77855e-13
-6.69944e-13
-6.64778e-13
-6.55766e-13
-6.49593e-13
-6.48428e-13
-6.46132e-13
-6.38607e-13
-6.29595e-13
-6.26349e-13
-6.14656e-13
-5.97607e-13
-5.77902e-13
-5.6492e-13
-5.59091e-13
-5.57288e-13
-5.50359e-13
-5.49297e-13
-5.45225e-13
-5.38386e-13
-5.32755e-13
-5.27588e-13
-5.20473e-13
-5.08216e-13
-4.95913e-13
-4.82988e-13
-4.74714e-13
-4.73502e-13
-4.76668e-13
-4.70297e-13
-4.60807e-13
-4.50004e-13
-4.36372e-13
-4.23678e-13
-4.21042e-13
-4.1802e-13
-4.14009e-13
-4.02834e-13
-3.9357e-13
-3.8957e-13
-3.84188e-13
-3.72284e-13
-3.60108e-13
-3.54535e-13
-3.46933e-13
-3.36118e-13
-3.27934e-13
-3.25292e-13
-3.19588e-13
-3.14419e-13
-3.08458e-13
-2.98544e-13
-2.87656e-13
-2.79454e-13
-2.70085e-13
-2.62392e-13
-2.55755e-13
-2.45393e-13
-2.35337e-13
-2.26869e-13
-2.23946e-13
-2.26452e-13
-2.18397e-13
-2.13306e-13
-2.06336e-13
-1.95016e-13
-1.83918e-13
-1.7161e-13
-1.61486e-13
-1.57156e-13
-1.56483e-13
-1.57429e-13
-1.5123e-13
-1.36312e-13
-1.25669e-13
-1.12717e-13
-1.07777e-13
-1.02594e-13
-9.52394e-14
-8.50473e-14
-7.59636e-14
-7.11389e-14
-6.51503e-14
-5.81444e-14
-5.22848e-14
-4.36534e-14
-3.31303e-14
-2.30873e-14
-1.40021e-14
-7.72398e-15
-3.00544e-16
1.57777e-15
-6.9745e-13
-6.96189e-13
-6.93725e-13
-6.91527e-13
-6.97377e-13
-6.94493e-13
-6.81562e-13
-6.74867e-13
-6.69848e-13
-6.66617e-13
-6.6548e-13
-6.631e-13
-6.51453e-13
-6.44211e-13
-6.41075e-13
-6.35889e-13
-6.31297e-13
-6.23928e-13
-6.11398e-13
-5.95054e-13
-5.80843e-13
-5.66552e-13
-5.57246e-13
-5.57587e-13
-5.57502e-13
-5.48967e-13
-5.41457e-13
-5.386e-13
-5.36058e-13
-5.3013e-13
-5.22747e-13
-5.09939e-13
-4.95952e-13
-4.8218e-13
-4.71393e-13
-4.72038e-13
-4.70779e-13
-4.68251e-13
-4.64549e-13
-4.54559e-13
-4.40008e-13
-4.27694e-13
-4.20562e-13
-4.12352e-13
-4.10128e-13
-4.04363e-13
-3.96036e-13
-3.86415e-13
-3.79495e-13
-3.72464e-13
-3.60801e-13
-3.55031e-13
-3.47156e-13
-3.37336e-13
-3.3402e-13
-3.29433e-13
-3.17853e-13
-3.0846e-13
-3.03875e-13
-2.95749e-13
-2.89648e-13
-2.79509e-13
-2.71225e-13
-2.63864e-13
-2.54877e-13
-2.43968e-13
-2.37292e-13
-2.27277e-13
-2.20999e-13
-2.19029e-13
-2.17352e-13
-2.14308e-13
-2.08143e-13
-1.95158e-13
-1.82761e-13
-1.72622e-13
-1.65959e-13
-1.59481e-13
-1.58719e-13
-1.55458e-13
-1.48343e-13
-1.38152e-13
-1.27103e-13
-1.15676e-13
-1.06761e-13
-9.74738e-14
-9.09389e-14
-8.66591e-14
-8.06875e-14
-7.14571e-14
-6.42417e-14
-5.70455e-14
-4.92936e-14
-4.09506e-14
-3.15395e-14
-2.4869e-14
-1.57562e-14
-5.76249e-15
3.65322e-17
-9.74661e-17
-6.92399e-13
-6.95366e-13
-6.95396e-13
-6.93827e-13
-6.92184e-13
-6.8591e-13
-6.81284e-13
-6.77812e-13
-6.76464e-13
-6.71944e-13
-6.6646e-13
-6.61854e-13
-6.54173e-13
-6.45612e-13
-6.39609e-13
-6.32109e-13
-6.29306e-13
-6.22468e-13
-6.09763e-13
-5.97358e-13
-5.80578e-13
-5.67343e-13
-5.62496e-13
-5.58652e-13
-5.50247e-13
-5.4619e-13
-5.45688e-13
-5.42866e-13
-5.35444e-13
-5.2564e-13
-5.17594e-13
-5.08531e-13
-4.95618e-13
-4.83385e-13
-4.73775e-13
-4.77479e-13
-4.78389e-13
-4.70284e-13
-4.59702e-13
-4.47268e-13
-4.36576e-13
-4.30259e-13
-4.22475e-13
-4.1251e-13
-4.07218e-13
-4.00249e-13
-3.98398e-13
-3.96382e-13
-3.82706e-13
-3.69101e-13
-3.58824e-13
-3.56104e-13
-3.47523e-13
-3.36727e-13
-3.32652e-13
-3.29199e-13
-3.21068e-13
-3.10017e-13
-3.01584e-13
-2.94819e-13
-2.91994e-13
-2.82879e-13
-2.72229e-13
-2.62532e-13
-2.51015e-13
-2.434e-13
-2.34339e-13
-2.28781e-13
-2.2192e-13
-2.17437e-13
-2.13371e-13
-2.1414e-13
-2.08883e-13
-1.95162e-13
-1.82861e-13
-1.72601e-13
-1.67947e-13
-1.62382e-13
-1.54509e-13
-1.47097e-13
-1.50921e-13
-1.45473e-13
-1.28741e-13
-1.16168e-13
-1.06805e-13
-9.6557e-14
-8.91575e-14
-8.60844e-14
-8.03098e-14
-7.16391e-14
-6.36733e-14
-5.7186e-14
-5.01355e-14
-3.96136e-14
-3.3863e-14
-2.35587e-14
-1.30982e-14
-4.17916e-15
9.54861e-16
-4.86805e-16
-6.99575e-13
-6.96588e-13
-6.94557e-13
-6.91493e-13
-6.86552e-13
-6.83884e-13
-6.8081e-13
-6.80695e-13
-6.77737e-13
-6.72329e-13
-6.65675e-13
-6.61397e-13
-6.55229e-13
-6.49398e-13
-6.41589e-13
-6.30536e-13
-6.20368e-13
-6.14202e-13
-6.09442e-13
-6.01162e-13
-5.8309e-13
-5.71381e-13
-5.62671e-13
-5.55758e-13
-5.52319e-13
-5.48594e-13
-5.4677e-13
-5.43249e-13
-5.33622e-13
-5.28448e-13
-5.18759e-13
-5.07693e-13
-4.93869e-13
-4.81377e-13
-4.76205e-13
-4.76844e-13
-4.748e-13
-4.68746e-13
-4.59551e-13
-4.48478e-13
-4.36894e-13
-4.27695e-13
-4.23012e-13
-4.16797e-13
-4.11759e-13
-4.04653e-13
-3.94283e-13
-3.8688e-13
-3.8176e-13
-3.73368e-13
-3.66082e-13
-3.55939e-13
-3.46077e-13
-3.37487e-13
-3.31105e-13
-3.2384e-13
-3.19335e-13
-3.1198e-13
-3.01211e-13
-2.95026e-13
-2.92766e-13
-2.84841e-13
-2.73317e-13
-2.60749e-13
-2.52181e-13
-2.43641e-13
-2.3424e-13
-2.27077e-13
-2.21724e-13
-2.17565e-13
-2.15056e-13
-2.14287e-13
-2.07705e-13
-1.92108e-13
-1.81827e-13
-1.72935e-13
-1.67441e-13
-1.61907e-13
-1.57943e-13
-1.53628e-13
-1.47541e-13
-1.39445e-13
-1.29903e-13
-1.20052e-13
-1.11853e-13
-9.6563e-14
-8.79997e-14
-8.31082e-14
-8.0085e-14
-6.84556e-14
-6.09313e-14
-5.62314e-14
-5.40511e-14
-4.13519e-14
-2.99311e-14
-2.27305e-14
-1.46988e-14
-1.75328e-15
1.24884e-19
-1.64032e-15
-7.02178e-13
-6.95977e-13
-6.90161e-13
-6.90801e-13
-6.83071e-13
-6.84058e-13
-6.81133e-13
-6.81811e-13
-6.81068e-13
-6.71094e-13
-6.6493e-13
-6.61922e-13
-6.60013e-13
-6.50743e-13
-6.4167e-13
-6.3362e-13
-6.25086e-13
-6.14784e-13
-6.08475e-13
-5.94595e-13
-5.82999e-13
-5.7095e-13
-5.5968e-13
-5.54016e-13
-5.50445e-13
-5.5214e-13
-5.4784e-13
-5.41998e-13
-5.3426e-13
-5.26578e-13
-5.19061e-13
-5.09538e-13
-4.94173e-13
-4.8416e-13
-4.74805e-13
-4.72366e-13
-4.73032e-13
-4.69018e-13
-4.59975e-13
-4.49195e-13
-4.40068e-13
-4.30944e-13
-4.22478e-13
-4.15907e-13
-4.09899e-13
-4.02808e-13
-3.94039e-13
-3.89142e-13
-3.84409e-13
-3.73756e-13
-3.62805e-13
-3.51931e-13
-3.45509e-13
-3.4028e-13
-3.3431e-13
-3.27885e-13
-3.20569e-13
-3.10534e-13
-3.03774e-13
-2.98895e-13
-2.93729e-13
-2.83474e-13
-2.69246e-13
-2.59247e-13
-2.50387e-13
-2.41487e-13
-2.32317e-13
-2.28122e-13
-2.21351e-13
-2.21314e-13
-2.16093e-13
-2.10458e-13
-2.01092e-13
-1.89616e-13
-1.80272e-13
-1.7127e-13
-1.70893e-13
-1.69008e-13
-1.5971e-13
-1.51168e-13
-1.44795e-13
-1.37026e-13
-1.28616e-13
-1.1892e-13
-1.06781e-13
-9.43726e-14
-8.92764e-14
-8.57636e-14
-7.90714e-14
-7.42133e-14
-6.81277e-14
-5.67394e-14
-4.69196e-14
-3.88592e-14
-3.01146e-14
-2.03642e-14
-1.29093e-14
-7.97984e-15
-2.70433e-15
-1.56472e-15
-7.00178e-13
-6.94239e-13
-6.92718e-13
-6.90831e-13
-6.87393e-13
-6.83952e-13
-6.78396e-13
-6.80852e-13
-6.80385e-13
-6.74747e-13
-6.68393e-13
-6.61244e-13
-6.5867e-13
-6.48822e-13
-6.38766e-13
-6.28851e-13
-6.18931e-13
-6.14703e-13
-6.09084e-13
-5.97067e-13
-5.8465e-13
-5.72487e-13
-5.61551e-13
-5.57584e-13
-5.56426e-13
-5.4976e-13
-5.43519e-13
-5.36246e-13
-5.29453e-13
-5.27088e-13
-5.20976e-13
-5.13946e-13
-5.01869e-13
-4.90761e-13
-4.72778e-13
-4.68775e-13
-4.68219e-13
-4.65586e-13
-4.5983e-13
-4.49055e-13
-4.41861e-13
-4.31127e-13
-4.25109e-13
-4.14251e-13
-4.10171e-13
-4.04228e-13
-3.99381e-13
-3.90937e-13
-3.80656e-13
-3.66547e-13
-3.62211e-13
-3.57048e-13
-3.49621e-13
-3.36322e-13
-3.29023e-13
-3.22496e-13
-3.15112e-13
-3.12872e-13
-3.04671e-13
-3.02852e-13
-3.0302e-13
-2.80904e-13
-2.67359e-13
-2.61151e-13
-2.52948e-13
-2.44866e-13
-2.35134e-13
-2.28287e-13
-2.18577e-13
-2.15543e-13
-2.11083e-13
-2.13209e-13
-2.06404e-13
-1.93981e-13
-1.78288e-13
-1.66908e-13
-1.70854e-13
-1.67722e-13
-1.59921e-13
-1.53637e-13
-1.46637e-13
-1.37506e-13
-1.27673e-13
-1.16969e-13
-1.07421e-13
-9.58767e-14
-8.85292e-14
-8.62963e-14
-8.05088e-14
-7.00324e-14
-6.19137e-14
-5.62905e-14
-4.79459e-14
-3.83168e-14
-3.43483e-14
-2.70237e-14
-1.33103e-14
-4.16355e-15
2.15987e-15
-5.39378e-16
-6.94691e-13
-6.96758e-13
-6.96418e-13
-6.90464e-13
-6.84905e-13
-6.85309e-13
-6.83081e-13
-6.79258e-13
-6.78203e-13
-6.73575e-13
-6.70021e-13
-6.65144e-13
-6.56831e-13
-6.47449e-13
-6.3959e-13
-6.32159e-13
-6.26583e-13
-6.21825e-13
-6.11415e-13
-5.94599e-13
-5.75805e-13
-5.62363e-13
-5.58844e-13
-5.59194e-13
-5.56724e-13
-5.49262e-13
-5.40275e-13
-5.36233e-13
-5.29525e-13
-5.28178e-13
-5.25067e-13
-5.09479e-13
-4.96543e-13
-4.88119e-13
-4.79347e-13
-4.74804e-13
-4.70649e-13
-4.64363e-13
-4.57973e-13
-4.49526e-13
-4.41201e-13
-4.3067e-13
-4.22778e-13
-4.17649e-13
-4.15219e-13
-4.0537e-13
-3.97436e-13
-3.84902e-13
-3.814e-13
-3.733e-13
-3.61245e-13
-3.55656e-13
-3.49059e-13
-3.40366e-13
-3.31918e-13
-3.18664e-13
-3.07048e-13
-3.10435e-13
-3.14082e-13
-3.04855e-13
-2.94859e-13
-2.83103e-13