/*--------------------------------*- C++ -*----------------------------------*\
| =========                 |                                                 |
| \\      /  F ield         | OpenFOAM: The Open Source CFD Toolbox           |
|  \\    /   O peration     | Version:  v2012                                 |
|   \\  /    A nd           | Website:  www.openfoam.com                      |
|    \\/     M anipulation  |                                                 |
\*---------------------------------------------------------------------------*/
FoamFile
{
    version     2.0;
    format      ascii;
    class       surfaceScalarField;
    location    "11.25";
    object      phi;
}
// * * * * * * * * * * * * * * * * * * * * * * * * * * * * * * * * * * * * * //

dimensions      [0 3 -1 0 0 0 0];
oriented        oriented;


internalField   nonuniform List<scalar> 
130560
(
3.63949e-06
-3.63949e-06
7.27913e-06
-3.63964e-06
1.09191e-05
-3.63994e-06
1.45594e-05
-3.64037e-06
1.82004e-05
-3.64096e-06
2.18421e-05
-3.64168e-06
2.54846e-05
-3.64254e-06
2.91281e-05
-3.64353e-06
3.27728e-05
-3.64465e-06
3.64187e-05
-3.64588e-06
4.00659e-05
-3.64724e-06
4.37146e-05
-3.64869e-06
4.73649e-05
-3.65025e-06
5.10167e-05
-3.6519e-06
5.46704e-05
-3.65362e-06
5.83258e-05
-3.65542e-06
6.19831e-05
-3.65727e-06
6.56422e-05
-3.65917e-06
6.93033e-05
-3.6611e-06
7.29664e-05
-3.66304e-06
7.66314e-05
-3.665e-06
8.02983e-05
-3.66694e-06
8.39672e-05
-3.66885e-06
8.76379e-05
-3.67072e-06
9.13104e-05
-3.67253e-06
9.49847e-05
-3.67426e-06
9.86606e-05
-3.67589e-06
0.000102338
-3.67739e-06
0.000106017
-3.67876e-06
0.000109697
-3.67996e-06
0.000113378
-3.68098e-06
0.000117059
-3.68179e-06
0.000120742
-3.68236e-06
0.000124424
-3.68268e-06
0.000128107
-3.68271e-06
0.00013179
-3.68243e-06
0.000135471
-3.68181e-06
0.000139152
-3.68082e-06
0.000142832
-3.67944e-06
0.000146509
-3.67763e-06
0.000150185
-3.67537e-06
0.000153857
-3.67262e-06
0.000157527
-3.66935e-06
0.000161192
-3.66553e-06
0.000164853
-3.66113e-06
0.000168509
-3.65612e-06
0.00017216
-3.65045e-06
0.000175804
-3.6441e-06
0.000179441
-3.63703e-06
0.00018307
-3.62921e-06
0.000186691
-3.6206e-06
0.000190302
-3.61117e-06
0.000193903
-3.60087e-06
0.000197493
-3.58969e-06
0.00020107
-3.57757e-06
0.000204635
-3.56449e-06
0.000208185
-3.5504e-06
0.00021172
-3.53528e-06
0.000215239
-3.51909e-06
0.000218741
-3.5018e-06
0.000222225
-3.48336e-06
0.000225688
-3.46375e-06
0.000229131
-3.44294e-06
0.000232552
-3.4209e-06
0.00023595
-3.39758e-06
0.000239323
-3.37297e-06
0.00024267
-3.34703e-06
0.000245989
-3.31974e-06
0.000249281
-3.29106e-06
0.000252542
-3.26099e-06
0.000255771
-3.22948e-06
0.000258968
-3.19653e-06
0.00026213
-3.16211e-06
0.000265256
-3.12619e-06
0.000268345
-3.08878e-06
0.000271394
-3.04985e-06
0.000274404
-3.00939e-06
0.000277371
-2.96738e-06
0.000280295
-2.92384e-06
0.000283174
-2.87874e-06
0.000286006
-2.83209e-06
0.00028879
-2.78388e-06
0.000291524
-2.73413e-06
0.000294207
-2.68283e-06
0.000296837
-2.62999e-06
0.000299412
-2.57563e-06
0.000301932
-2.51976e-06
0.000304394
-2.46239e-06
0.000306798
-2.40355e-06
0.000309141
-2.34326e-06
0.000311423
-2.28154e-06
0.000313641
-2.21842e-06
0.000315795
-2.15394e-06
0.000317883
-2.08812e-06
0.000319904
-2.02101e-06
0.000321857
-1.95264e-06
0.00032374
-1.88305e-06
0.000325552
-1.8123e-06
0.000327293
-1.74042e-06
0.00032896
-1.66747e-06
0.000330554
-1.5935e-06
0.000332072
-1.51857e-06
0.000333515
-1.44272e-06
0.000334881
-1.36602e-06
0.00033617
-1.28853e-06
0.00033738
-1.21031e-06
0.000338511
-1.13142e-06
0.000339563
-1.05193e-06
0.000340535
-9.71904e-07
0.000341427
-8.91404e-07
0.000342237
-8.10502e-07
0.000342966
-7.29264e-07
0.000343614
-6.4776e-07
0.00034418
-5.66058e-07
0.000344664
-4.84229e-07
0.000345067
-4.0234e-07
0.000345387
-3.20461e-07
0.000345626
-2.3866e-07
0.000345783
-1.57006e-07
0.000345858
-7.55654e-08
0.000345853
5.59518e-09
0.000345766
8.64102e-08
0.0003456
1.66815e-07
0.000345353
2.46748e-07
0.000345027
3.26146e-07
0.000344622
4.0495e-07
0.000344139
4.83102e-07
0.000343578
5.60545e-07
0.000342941
6.37225e-07
0.000342228
7.13089e-07
0.00034144
7.88087e-07
0.000340577
8.62171e-07
0.000339642
9.35294e-07
0.000338635
1.00741e-06
0.000337556
1.07849e-06
0.000336408
1.14848e-06
0.00033519
1.21735e-06
0.000333905
1.28506e-06
0.000332554
1.35159e-06
0.000331137
1.4169e-06
0.000329656
1.48098e-06
0.000328112
1.54378e-06
0.000326507
1.6053e-06
0.000324841
1.66551e-06
0.000323117
1.7244e-06
0.000321335
1.78194e-06
0.000319497
1.83814e-06
0.000317604
1.89298e-06
0.000315657
1.94645e-06
0.000313659
1.99854e-06
0.00031161
2.04926e-06
0.000309511
2.0986e-06
0.000307364
2.14656e-06
0.000305171
2.19314e-06
0.000302933
2.23836e-06
0.000300651
2.2822e-06
0.000298326
2.32469e-06
0.00029596
2.36583e-06
0.000293555
2.40563e-06
0.000291111
2.44411e-06
0.000288629
2.48127e-06
0.000286112
2.51713e-06
0.00028356
2.55172e-06
0.000280975
2.58504e-06
0.000278358
2.61711e-06
0.00027571
2.64795e-06
0.000273033
2.67758e-06
0.000270327
2.70603e-06
0.000267593
2.73331e-06
0.000264834
2.75945e-06
0.000262049
2.78447e-06
0.000259241
2.80839e-06
0.00025641
2.83124e-06
0.000253557
2.85303e-06
0.000250683
2.8738e-06
0.000247789
2.89357e-06
0.000244877
2.91237e-06
0.000241947
2.93021e-06
0.000239
2.94713e-06
0.000236037
2.96315e-06
0.000233058
2.9783e-06
0.000230066
2.9926e-06
0.00022706
3.00607e-06
0.000224041
3.01875e-06
0.00022101
3.03065e-06
0.000217968
3.04181e-06
0.000214916
3.05225e-06
0.000211854
3.06198e-06
0.000208783
3.07105e-06
0.000205704
3.07946e-06
0.000202616
3.08725e-06
0.000199522
3.09444e-06
0.000196421
3.10105e-06
0.000193314
3.10711e-06
0.000190201
3.11263e-06
0.000187084
3.11764e-06
0.000183961
3.12217e-06
0.000180835
3.12623e-06
0.000177705
3.12984e-06
0.000174572
3.13303e-06
0.000171436
3.13581e-06
0.000168298
3.13821e-06
0.000165158
3.14025e-06
0.000162016
3.14193e-06
0.000158873
3.1433e-06
0.000155728
3.14435e-06
0.000152583
3.14511e-06
0.000149438
3.1456e-06
0.000146292
3.14583e-06
0.000143146
3.14582e-06
0.00014
3.14558e-06
0.000136855
3.14513e-06
0.000133711
3.1445e-06
0.000130567
3.14368e-06
0.000127424
3.14269e-06
0.000124283
3.14156e-06
0.000121143
3.14029e-06
0.000118004
3.13889e-06
0.000114866
3.13738e-06
0.000111731
3.13577e-06
0.000108597
3.13407e-06
0.000105464
3.13229e-06
0.000102334
3.13045e-06
9.92052e-05
3.12856e-06
9.60786e-05
3.12662e-06
9.2954e-05
3.12464e-06
8.98313e-05
3.12264e-06
8.67107e-05
3.12062e-06
8.35921e-05
3.1186e-06
8.04755e-05
3.11657e-06
7.7361e-05
3.11456e-06
7.42484e-05
3.11256e-06
7.11378e-05
3.11058e-06
6.80292e-05
3.10864e-06
6.49225e-05
3.10673e-06
6.18176e-05
3.10487e-06
5.87145e-05
3.10306e-06
5.56132e-05
3.1013e-06
5.25136e-05
3.09961e-06
4.94157e-05
3.09798e-06
4.63192e-05
3.09642e-06
4.32243e-05
3.09494e-06
4.01308e-05
3.09354e-06
3.70385e-05
3.09222e-06
3.39475e-05
3.09099e-06
3.08577e-05
3.08985e-06
2.77689e-05
3.08881e-06
2.4681e-05
3.08786e-06
2.1594e-05
3.08701e-06
1.85078e-05
3.08626e-06
1.54221e-05
3.08562e-06
1.23371e-05
3.08508e-06
9.25241e-06
3.08464e-06
6.16809e-06
3.08432e-06
3.08399e-06
3.0841e-06
3.08399e-06
3.63935e-06
-7.27884e-06
7.27884e-06
-7.27914e-06
1.09186e-05
-7.27973e-06
1.45589e-05
-7.28061e-06
1.81997e-05
-7.28177e-06
2.18412e-05
-7.28322e-06
2.54836e-05
-7.28494e-06
2.9127e-05
-7.28693e-06
3.27716e-05
-7.28917e-06
3.64173e-05
-7.29165e-06
4.00645e-05
-7.29437e-06
4.37131e-05
-7.29729e-06
4.73632e-05
-7.30041e-06
5.1015e-05
-7.30372e-06
5.46686e-05
-7.30718e-06
5.8324e-05
-7.31078e-06
6.19812e-05
-7.31449e-06
6.56403e-05
-7.3183e-06
6.93014e-05
-7.32217e-06
7.29644e-05
-7.32609e-06
7.66294e-05
-7.33001e-06
8.02964e-05
-7.33391e-06
8.39653e-05
-7.33775e-06
8.76361e-05
-7.34151e-06
9.13087e-05
-7.34515e-06
9.49831e-05
-7.34862e-06
9.86591e-05
-7.3519e-06
0.000102337
-7.35493e-06
0.000106016
-7.35769e-06
0.000109696
-7.36011e-06
0.000113377
-7.36217e-06
0.000117059
-7.36381e-06
0.000120742
-7.36498e-06
0.000124424
-7.36564e-06
0.000128108
-7.36573e-06
0.00013179
-7.36519e-06
0.000135472
-7.36398e-06
0.000139154
-7.36204e-06
0.000142834
-7.3593e-06
0.000146512
-7.35572e-06
0.000150187
-7.35122e-06
0.000153861
-7.34576e-06
0.000157531
-7.33925e-06
0.000161197
-7.33165e-06
0.000164858
-7.32288e-06
0.000168515
-7.31288e-06
0.000172166
-7.30158e-06
0.000175811
-7.28892e-06
0.000179449
-7.27482e-06
0.000183079
-7.25921e-06
0.0001867
-7.24202e-06
0.000190312
-7.22319e-06
0.000193914
-7.20264e-06
0.000197505
-7.1803e-06
0.000201083
-7.1561e-06
0.000204649
-7.12997e-06
0.0002082
-7.10184e-06
0.000211737
-7.07163e-06
0.000215257
-7.03929e-06
0.00021876
-7.00473e-06
0.000222244
-6.96789e-06
0.000225709
-6.92871e-06
0.000229153
-6.88712e-06
0.000232575
-6.84306e-06
0.000235974
-6.79646e-06
0.000239349
-6.74726e-06
0.000242697
-6.69541e-06
0.000246018
-6.64085e-06
0.000249311
-6.58353e-06
0.000252573
-6.5234e-06
0.000255804
-6.46042e-06
0.000259002
-6.39453e-06
0.000262166
-6.3257e-06
0.000265293
-6.25389e-06
0.000268384
-6.17907e-06
0.000271435
-6.10122e-06
0.000274446
-6.02031e-06
0.000277415
-5.93631e-06
0.00028034
-5.84922e-06
0.00028322
-5.75903e-06
0.000286054
-5.66573e-06
0.00028884
-5.56931e-06
0.000291575
-5.4698e-06
0.00029426
-5.36719e-06
0.000296891
-5.26151e-06
0.000299468
-5.15277e-06
0.000301989
-5.04101e-06
0.000304453
-4.92626e-06
0.000306858
-4.80855e-06
0.000309203
-4.68794e-06
0.000311486
-4.56447e-06
0.000313706
-4.43821e-06
0.000315861
-4.3092e-06
0.00031795
-4.17753e-06
0.000319973
-4.04327e-06
0.000321927
-3.90648e-06
0.000323811
-3.76727e-06
0.000325624
-3.62572e-06
0.000327366
-3.48191e-06
0.000329034
-3.33596e-06
0.000330629
-3.18797e-06
0.000332148
-3.03804e-06
0.000333592
-2.88629e-06
0.000334958
-2.73284e-06
0.000336248
-2.57779e-06
0.000337459
-2.42129e-06
0.000338591
-2.26345e-06
0.000339643
-2.1044e-06
0.000340616
-1.94428e-06
0.000341507
-1.78321e-06
0.000342318
-1.62134e-06
0.000343048
-1.45879e-06
0.000343696
-1.29572e-06
0.000344262
-1.13224e-06
0.000344746
-9.68515e-07
0.000345148
-8.04669e-07
0.000345469
-6.40842e-07
0.000345707
-4.77173e-07
0.000345864
-3.13797e-07
0.000345939
-1.50849e-07
0.000345934
1.15373e-08
0.000345847
1.73232e-07
0.000345679
3.34105e-07
0.000345432
4.94031e-07
0.000345105
6.52888e-07
0.0003447
8.10554e-07
0.000344216
9.66914e-07
0.000343655
1.12185e-06
0.000343017
1.27527e-06
0.000342303
1.42705e-06
0.000341514
1.57709e-06
0.000340651
1.7253e-06
0.000339714
1.87159e-06
0.000338706
2.01587e-06
0.000337626
2.15806e-06
0.000336477
2.29808e-06
0.000335258
2.43585e-06
0.000333972
2.57131e-06
0.000332619
2.7044e-06
0.000331201
2.83505e-06
0.000329719
2.96322e-06
0.000328174
3.08885e-06
0.000326567
3.2119e-06
0.0003249
3.33234e-06
0.000323174
3.45013e-06
0.000321391
3.56524e-06
0.000319552
3.67764e-06
0.000317657
3.78733e-06
0.000315709
3.89427e-06
0.00031371
3.99846e-06
0.000311659
4.0999e-06
0.000309559
4.19858e-06
0.000307411
4.2945e-06
0.000305216
4.38766e-06
0.000302977
4.47808e-06
0.000300693
4.56576e-06
0.000298367
4.65073e-06
0.000296
4.733e-06
0.000293593
4.81259e-06
0.000291148
4.88953e-06
0.000288665
4.96384e-06
0.000286147
5.03555e-06
0.000283594
5.1047e-06
0.000281007
5.17132e-06
0.000278389
5.23544e-06
0.00027574
5.2971e-06
0.000273061
5.35635e-06
0.000270354
5.41323e-06
0.000267619
5.46777e-06
0.000264859
5.52002e-06
0.000262073
5.57004e-06
0.000259264
5.61785e-06
0.000256432
5.66352e-06
0.000253577
5.70709e-06
0.000250703
5.7486e-06
0.000247808
5.78812e-06
0.000244895
5.82569e-06
0.000241964
5.86135e-06
0.000239016
5.89516e-06
0.000236052
5.92718e-06
0.000233072
5.95745e-06
0.000230079
5.98602e-06
0.000227072
6.01294e-06
0.000224053
6.03827e-06
0.000221021
6.06205e-06
0.000217979
6.08434e-06
0.000214926
6.10519e-06
0.000211863
6.12464e-06
0.000208791
6.14274e-06
0.000205711
6.15955e-06
0.000202623
6.1751e-06
0.000199528
6.18946e-06
0.000196427
6.20265e-06
0.000193319
6.21474e-06
0.000190206
6.22577e-06
0.000187088
6.23577e-06
0.000183965
6.2448e-06
0.000180839
6.25289e-06
0.000177708
6.2601e-06
0.000174575
6.26646e-06
0.000171439
6.27201e-06
0.0001683
6.27679e-06
0.00016516
6.28084e-06
0.000162017
6.2842e-06
0.000158874
6.2869e-06
0.000155729
6.28899e-06
0.000152584
6.29049e-06
0.000149438
6.29145e-06
0.000146292
6.29189e-06
0.000143146
6.29185e-06
0.00014
6.29137e-06
0.000136855
6.29046e-06
0.00013371
6.28917e-06
0.000130566
6.28752e-06
0.000127423
6.28554e-06
0.000124282
6.28325e-06
0.000121141
6.28069e-06
0.000118002
6.27789e-06
0.000114865
6.27485e-06
0.000111729
6.27162e-06
0.000108595
6.26822e-06
0.000105462
6.26465e-06
0.000102332
6.26096e-06
9.92033e-05
6.25716e-06
9.60766e-05
6.25327e-06
9.29519e-05
6.24931e-06
8.98293e-05
6.2453e-06
8.67087e-05
6.24125e-06
8.35901e-05
6.23719e-06
8.04735e-05
6.23314e-06
7.7359e-05
6.2291e-06
7.42464e-05
6.22509e-06
7.11359e-05
6.22113e-06
6.80273e-05
6.21724e-06
6.49206e-05
6.21342e-06
6.18158e-05
6.20969e-06
5.87128e-05
6.20606e-06
5.56115e-05
6.20254e-06
5.2512e-05
6.19915e-06
4.94141e-05
6.19588e-06
4.63177e-05
6.19277e-06
4.32229e-05
6.1898e-06
4.01294e-05
6.18699e-06
3.70373e-05
6.18435e-06
3.39464e-05
6.18189e-06
3.08566e-05
6.17961e-06
2.77679e-05
6.17752e-06
2.46802e-05
6.17562e-06
2.15933e-05
6.17392e-06
1.85071e-05
6.17242e-06
1.54216e-05
6.17113e-06
1.23366e-05
6.17005e-06
9.25209e-06
6.16918e-06
6.16788e-06
6.16853e-06
3.08388e-06
6.16809e-06
6.16788e-06
3.63905e-06
-1.09179e-05
7.27825e-06
-1.09183e-05
1.09178e-05
-1.09192e-05
1.45577e-05
-1.09206e-05
1.81982e-05
-1.09223e-05
2.18395e-05
-1.09245e-05
2.54816e-05
-1.09271e-05
2.91248e-05
-1.09301e-05
3.27691e-05
-1.09335e-05
3.64146e-05
-1.09372e-05
4.00615e-05
-1.09413e-05
4.37099e-05
-1.09457e-05
4.73599e-05
-1.09504e-05
5.10116e-05
-1.09554e-05
5.4665e-05
-1.09606e-05
5.83202e-05
-1.0966e-05
6.19774e-05
-1.09716e-05
6.56364e-05
-1.09774e-05
6.92975e-05
-1.09832e-05
7.29605e-05
-1.09891e-05
7.66255e-05
-1.0995e-05
8.02926e-05
-1.10009e-05
8.39615e-05
-1.10067e-05
8.76325e-05
-1.10124e-05
9.13052e-05
-1.10179e-05
9.49798e-05
-1.10232e-05
9.8656e-05
-1.10281e-05
0.000102334
-1.10328e-05
0.000106013
-1.10369e-05
0.000109694
-1.10406e-05
0.000113375
-1.10438e-05
0.000117058
-1.10463e-05
0.000120741
-1.10481e-05
0.000124424
-1.10492e-05
0.000128108
-1.10494e-05
0.000131791
-1.10486e-05
0.000135474
-1.10469e-05
0.000139156
-1.1044e-05
0.000142837
-1.104e-05
0.000146516
-1.10347e-05
0.000150193
-1.10281e-05
0.000153867
-1.10199e-05
0.000157538
-1.10103e-05
0.000161205
-1.09989e-05
0.000164868
-1.09859e-05
0.000168526
-1.0971e-05
0.000172179
-1.09541e-05
0.000175825
-1.09352e-05
0.000179464
-1.09141e-05
0.000183096
-1.08908e-05
0.000186719
-1.08651e-05
0.000190333
-1.08369e-05
0.000193936
-1.08062e-05
0.000197529
-1.07728e-05
0.000201109
-1.07366e-05
0.000204677
-1.06975e-05
0.00020823
-1.06553e-05
0.000211769
-1.06101e-05
0.000215291
-1.05617e-05
0.000218796
-1.05099e-05
0.000222283
-1.04548e-05
0.000225751
-1.03961e-05
0.000229197
-1.03338e-05
0.000232622
-1.02678e-05
0.000236024
-1.01979e-05
0.000239401
-1.01242e-05
0.000242752
-1.00465e-05
0.000246075
-9.96473e-06
0.000249371
-9.87881e-06
0.000252636
-9.78868e-06
0.00025587
-9.69425e-06
0.000259071
-9.59546e-06
0.000262237
-9.49227e-06
0.000265368
-9.3846e-06
0.000268461
-9.27241e-06
0.000271516
-9.15566e-06
0.00027453
-9.03431e-06
0.000277502
-8.90834e-06
0.00028043
-8.77772e-06
0.000283314
-8.64243e-06
0.000286151
-8.50248e-06
0.000288939
-8.35785e-06
0.000291678
-8.20856e-06
0.000294365
-8.05463e-06
0.000297
-7.89608e-06
0.00029958
-7.73294e-06
0.000302104
-7.56526e-06
0.000304571
-7.39308e-06
0.000306979
-7.21646e-06
0.000309326
-7.03548e-06
0.000311612
-6.85021e-06
0.000313835
-6.66073e-06
0.000315993
-6.46714e-06
0.000318085
-6.26954e-06
0.000320109
-6.06804e-06
0.000322066
-5.86276e-06
0.000323952
-5.65383e-06
0.000325768
-5.44138e-06
0.000327512
-5.22555e-06
0.000329182
-5.0065e-06
0.000330779
-4.78438e-06
0.0003323
-4.55934e-06
0.000333745
-4.33157e-06
0.000335114
-4.10124e-06
0.000336404
-3.86852e-06
0.000337617
-3.6336e-06
0.00033875
-3.39668e-06
0.000339803
-3.15794e-06
0.000340777
-2.91759e-06
0.000341669
-2.67582e-06
0.000342481
-2.43284e-06
0.000343211
-2.18885e-06
0.000343859
-1.94407e-06
0.000344426
-1.69869e-06
0.00034491
-1.45292e-06
0.000345312
-1.20698e-06
0.000345633
-9.61066e-07
0.000345871
-7.15392e-07
0.000346027
-4.7016e-07
0.000346102
-2.25572e-07
0.000346095
1.81713e-08
0.000346008
2.60873e-07
0.000345839
5.02341e-07
0.000345591
7.42385e-07
0.000345263
9.80819e-07
0.000344856
1.21746e-06
0.000344371
1.45215e-06
0.000343808
1.68469e-06
0.000343168
1.91494e-06
0.000342453
2.14274e-06
0.000341662
2.36792e-06
0.000340797
2.59036e-06
0.000339859
2.8099e-06
0.000338848
3.02643e-06
0.000337766
3.2398e-06
0.000336614
3.44992e-06
0.000335394
3.65666e-06
0.000334105
3.85993e-06
0.00033275
4.05964e-06
0.000331329
4.25568e-06
0.000329844
4.44799e-06
0.000328297
4.6365e-06
0.000326687
4.82113e-06
0.000325018
5.00183e-06
0.00032329
5.17854e-06
0.000321504
5.35124e-06
0.000319661
5.51987e-06
0.000317764
5.68441e-06
0.000315814
5.84484e-06
0.000313811
6.00114e-06
0.000311758
6.1533e-06
0.000309655
6.30131e-06
0.000307504
6.44518e-06
0.000305307
6.58492e-06
0.000303064
6.72053e-06
0.000300778
6.85204e-06
0.000298449
6.97947e-06
0.00029608
7.10285e-06
0.00029367
7.2222e-06
0.000291222
7.33758e-06
0.000288737
7.449e-06
0.000286216
7.55653e-06
0.00028366
7.66021e-06
0.000281071
7.76009e-06
0.000278451
7.85623e-06
0.000275799
7.94868e-06
0.000273118
8.0375e-06
0.000270408
8.12276e-06
0.000267672
8.20451e-06
0.000264909
8.28284e-06
0.000262121
8.3578e-06
0.00025931
8.42946e-06
0.000256475
8.4979e-06
0.000253619
8.56319e-06
0.000250742
8.62541e-06
0.000247846
8.68462e-06
0.000244931
8.7409e-06
0.000241998
8.79434e-06
0.000239048
8.84499e-06
0.000236082
8.89295e-06
0.000233101
8.93829e-06
0.000230106
8.98108e-06
0.000227098
9.02141e-06
0.000224076
9.05934e-06
0.000221044
9.09495e-06
0.000218
9.12832e-06
0.000214945
9.15953e-06
0.000211881
9.18864e-06
0.000208808
9.21573e-06
0.000205727
9.24088e-06
0.000202638
9.26416e-06
0.000199542
9.28563e-06
0.000196439
9.30537e-06
0.00019333
9.32344e-06
0.000190216
9.33992e-06
0.000187097
9.35487e-06
0.000183973
9.36836e-06
0.000180846
9.38046e-06
0.000177715
9.39121e-06
0.000174581
9.4007e-06
0.000171444
9.40897e-06
0.000168304
9.41609e-06
0.000165163
9.42212e-06
0.00016202
9.42711e-06
0.000158876
9.43112e-06
0.000155731
9.43421e-06
0.000152585
9.43642e-06
0.000149438
9.43782e-06
0.000146292
9.43844e-06
0.000143145
9.43834e-06
0.000139999
9.43757e-06
0.000136853
9.43618e-06
0.000133708
9.4342e-06
0.000130564
9.43169e-06
0.000127421
9.42868e-06
0.000124279
9.42522e-06
0.000121138
9.42135e-06
0.000117999
9.41711e-06
0.000114862
9.41253e-06
0.000111725
9.40765e-06
0.000108591
9.40251e-06
0.000105459
9.39715e-06
0.000102328
9.39158e-06
9.91994e-05
9.38585e-06
9.60727e-05
9.37999e-06
9.29479e-05
9.37403e-06
8.98253e-05
9.36799e-06
8.67046e-05
9.3619e-06
8.3586e-05
9.35579e-06
8.04695e-05
9.34968e-06
7.7355e-05
9.3436e-06
7.42425e-05
9.33758e-06
7.1132e-05
9.33162e-06
6.80235e-05
9.32576e-06
6.49169e-05
9.32002e-06
6.18121e-05
9.31441e-06
5.87093e-05
9.30895e-06
5.56081e-05
9.30366e-06
5.25087e-05
9.29855e-06
4.9411e-05
9.29365e-06
4.63148e-05
9.28896e-06
4.32201e-05
9.2845e-06
4.01268e-05
9.28028e-06
3.70348e-05
9.27631e-06
3.39441e-05
9.27261e-06
3.08545e-05
9.26918e-06
2.7766e-05
9.26603e-06
2.46785e-05
9.26318e-06
2.15918e-05
9.26062e-06
1.85058e-05
9.25837e-06
1.54205e-05
9.25643e-06
1.23358e-05
9.25481e-06
9.25143e-06
9.2535e-06
6.16744e-06
9.25252e-06
3.08367e-06
9.25187e-06
9.25154e-06
3.63861e-06
-1.45565e-05
7.27736e-06
-1.45571e-05
1.09164e-05
-1.45583e-05
1.45559e-05
-1.45601e-05
1.8196e-05
-1.45624e-05
2.18369e-05
-1.45654e-05
2.54786e-05
-1.45688e-05
2.91214e-05
-1.45728e-05
3.27653e-05
-1.45774e-05
3.64105e-05
-1.45824e-05
4.00571e-05
-1.45879e-05
4.37052e-05
-1.45938e-05
4.73549e-05
-1.46001e-05
5.10064e-05
-1.46068e-05
5.46596e-05
-1.46138e-05
5.83146e-05
-1.46211e-05
6.19716e-05
-1.46286e-05
6.56306e-05
-1.46363e-05
6.92916e-05
-1.46442e-05
7.29546e-05
-1.46521e-05
7.66196e-05
-1.46601e-05
8.02867e-05
-1.4668e-05
8.39559e-05
-1.46759e-05
8.76269e-05
-1.46835e-05
9.13e-05
-1.46909e-05
9.49748e-05
-1.4698e-05
9.86514e-05
-1.47047e-05
0.00010233
-1.4711e-05
0.000106009
-1.47167e-05
0.00010969
-1.47217e-05
0.000113373
-1.4726e-05
0.000117056
-1.47295e-05
0.00012074
-1.4732e-05
0.000124424
-1.47336e-05
0.000128109
-1.47339e-05
0.000131793
-1.47331e-05
0.000135477
-1.47309e-05
0.00013916
-1.47272e-05
0.000142842
-1.4722e-05
0.000146523
-1.47151e-05
0.000150201
-1.47063e-05
0.000153877
-1.46957e-05
0.000157549
-1.46829e-05
0.000161218
-1.4668e-05
0.000164883
-1.46507e-05
0.000168543
-1.4631e-05
0.000172198
-1.46086e-05
0.000175846
-1.45836e-05
0.000179488
-1.45557e-05
0.000183122
-1.45247e-05
0.000186747
-1.44906e-05
0.000190364
-1.44533e-05
0.00019397
-1.44124e-05
0.000197565
-1.4368e-05
0.000201148
-1.43199e-05
0.000204719
-1.42679e-05
0.000208276
-1.4212e-05
0.000211817
-1.41518e-05
0.000215343
-1.40874e-05
0.000218852
-1.40186e-05
0.000222342
-1.39452e-05
0.000225813
-1.38671e-05
0.000229263
-1.37841e-05
0.000232692
-1.36963e-05
0.000236097
-1.36033e-05
0.000239478
-1.35051e-05
0.000242833
-1.34017e-05
0.000246161
-1.32928e-05
0.000249461
-1.31783e-05
0.00025273
-1.30582e-05
0.000255969
-1.29324e-05
0.000259174
-1.28008e-05
0.000262345
-1.26633e-05
0.00026548
-1.25198e-05
0.000268578
-1.23703e-05
0.000271637
-1.22147e-05
0.000274656
-1.20529e-05
0.000277633
-1.1885e-05
0.000280566
-1.17109e-05
0.000283454
-1.15305e-05
0.000286295
-1.13439e-05
0.000289088
-1.1151e-05
0.000291832
-1.0952e-05
0.000294524
-1.07467e-05
0.000297163
-1.05352e-05
0.000299748
-1.03177e-05
0.000302276
-1.0094e-05
0.000304748
-9.86433e-06
0.00030716
-9.62874e-06
0.000309512
-9.38731e-06
0.000311802
-9.14015e-06
0.000314028
-8.88737e-06
0.00031619
-8.62909e-06
0.000318286
-8.36545e-06
0.000320315
-8.0966e-06
0.000322275
-7.8227e-06
0.000324165
-7.54391e-06
0.000325984
-7.26042e-06
0.000327731
-6.97242e-06
0.000329404
-6.68011e-06
0.000331004
-6.38369e-06
0.000332528
-6.08338e-06
0.000333976
-5.77941e-06
0.000335346
-5.47202e-06
0.000336639
-5.16144e-06
0.000337854
-4.84793e-06
0.000338989
-4.53173e-06
0.000340044
-4.21311e-06
0.000341018
-3.89232e-06
0.000341912
-3.56965e-06
0.000342725
-3.24536e-06
0.000343456
-2.91972e-06
0.000344105
-2.59301e-06
0.000344671
-2.26551e-06
0.000345156
-1.9375e-06
0.000345558
-1.60926e-06
0.000345878
-1.28105e-06
0.000346116
-9.5317e-07
0.000346272
-6.25879e-07
0.000346346
-2.99451e-07
0.000346338
2.58461e-08
0.000346249
3.49749e-07
0.000346079
6.72001e-07
0.00034583
9.92346e-07
0.0003455
1.31054e-06
0.000345091
1.62634e-06
0.000344604
1.93951e-06
0.000344038
2.24983e-06
0.000343396
2.55707e-06
0.000342678
2.86103e-06
0.000341884
3.16151e-06
0.000341016
3.4583e-06
0.000340075
3.75123e-06
0.000339061
4.04012e-06
0.000337976
4.32481e-06
0.000336821
4.60513e-06
0.000335597
4.88095e-06
0.000334305
5.15213e-06
0.000332946
5.41853e-06
0.000331521
5.68005e-06
0.000330033
5.93658e-06
0.000328481
6.18802e-06
0.000326868
6.43428e-06
0.000325195
6.67529e-06
0.000323462
6.91098e-06
0.000321672
7.1413e-06
0.000319826
7.36619e-06
0.000317925
7.58561e-06
0.00031597
7.79954e-06
0.000313963
8.00796e-06
0.000311906
8.21084e-06
0.000309799
8.40819e-06
0.000307644
8.60001e-06
0.000305443
8.7863e-06
0.000303196
8.96709e-06
0.000300906
9.14241e-06
0.000298573
9.31227e-06
0.000296199
9.47672e-06
0.000293785
9.6358e-06
0.000291333
9.78957e-06
0.000288844
9.93807e-06
0.00028632
1.00814e-05
0.00028376
1.02195e-05
0.000281168
1.03526e-05
0.000278543
1.04807e-05
0.000275888
1.06039e-05
0.000273203
1.07222e-05
0.00027049
1.08358e-05
0.00026775
1.09447e-05
0.000264984
1.1049e-05
0.000262193
1.11489e-05
0.000259378
1.12443e-05
0.00025654
1.13354e-05
0.000253681
1.14224e-05
0.000250801
1.15052e-05
0.000247902
1.1584e-05
0.000244984
1.1659e-05
0.000242048
1.17301e-05
0.000239096
1.17975e-05
0.000236127
1.18614e-05
0.000233144
1.19217e-05
0.000230146
1.19786e-05
0.000227136
1.20323e-05
0.000224112
1.20827e-05
0.000221077
1.21301e-05
0.000218031
1.21745e-05
0.000214974
1.2216e-05
0.000211908
1.22547e-05
0.000208833
1.22907e-05
0.00020575
1.23241e-05
0.000202659
1.2355e-05
0.000199561
1.23835e-05
0.000196457
1.24097e-05
0.000193347
1.24337e-05
0.000190231
1.24556e-05
0.000187111
1.24754e-05
0.000183986
1.24933e-05
0.000180857
1.25094e-05
0.000177724
1.25236e-05
0.000174589
1.25361e-05
0.000171451
1.25471e-05
0.00016831
1.25565e-05
0.000165168
1.25644e-05
0.000162024
1.2571e-05
0.000158879
1.25763e-05
0.000155733
1.25803e-05
0.000152586
1.25832e-05
0.000149439
1.2585e-05
0.000146292
1.25857e-05
0.000143145
1.25855e-05
0.000139998
1.25844e-05
0.000136851
1.25825e-05
0.000133706
1.25798e-05
0.000130561
1.25764e-05
0.000127418
1.25723e-05
0.000124275
1.25676e-05
0.000121134
1.25624e-05
0.000117995
1.25567e-05
0.000114857
1.25505e-05
0.00011172
1.25439e-05
0.000108586
1.2537e-05
0.000105453
1.25298e-05
0.000102322
1.25224e-05
9.91935e-05
1.25147e-05
9.60667e-05
1.25068e-05
9.29419e-05
1.24988e-05
8.98192e-05
1.24907e-05
8.66985e-05
1.24826e-05
8.35799e-05
1.24744e-05
8.04634e-05
1.24662e-05
7.7349e-05
1.24581e-05
7.42365e-05
1.245e-05
7.11261e-05
1.2442e-05
6.80177e-05
1.24342e-05
6.49113e-05
1.24265e-05
6.18067e-05
1.2419e-05
5.8704e-05
1.24117e-05
5.5603e-05
1.24046e-05
5.25038e-05
1.23978e-05
4.94063e-05
1.23912e-05
4.63103e-05
1.23849e-05
4.32159e-05
1.2379e-05
4.01228e-05
1.23733e-05
3.70311e-05
1.2368e-05
3.39407e-05
1.23631e-05
3.08514e-05
1.23585e-05
2.77632e-05
1.23543e-05
2.46759e-05
1.23504e-05
2.15895e-05
1.2347e-05
1.85039e-05
1.2344e-05
1.54189e-05
1.23414e-05
1.23345e-05
1.23392e-05
9.25045e-06
1.23375e-05
6.16679e-06
1.23362e-05
3.08334e-06
1.23353e-05
1.23349e-05
3.63801e-06
-1.81945e-05
7.27617e-06
-1.81953e-05
1.09146e-05
-1.81968e-05
1.45536e-05
-1.8199e-05
1.81931e-05
-1.8202e-05
2.18334e-05
-1.82057e-05
2.54746e-05
-1.821e-05
2.91169e-05
-1.82151e-05
3.27603e-05
-1.82208e-05
3.6405e-05
-1.82271e-05
4.00512e-05
-1.8234e-05
4.36989e-05
-1.82415e-05
4.73482e-05
-1.82495e-05
5.09993e-05
-1.82579e-05
5.46523e-05
-1.82667e-05
5.83071e-05
-1.82759e-05
6.19639e-05
-1.82854e-05
6.56227e-05
-1.82952e-05
6.92836e-05
-1.83051e-05
7.29466e-05
-1.83151e-05
7.66117e-05
-1.83252e-05
8.02789e-05
-1.83352e-05
8.39482e-05
-1.83451e-05
8.76195e-05
-1.83548e-05
9.12928e-05
-1.83643e-05
9.49681e-05
-1.83733e-05
9.86452e-05
-1.83818e-05
0.000102324
-1.83898e-05
0.000106004
-1.83971e-05
0.000109686
-1.84035e-05
0.000113369
-1.84091e-05
0.000117053
-1.84136e-05
0.000120738
-1.8417e-05
0.000124424
-1.84191e-05
0.00012811
-1.84198e-05
0.000131795
-1.84189e-05
0.000135481
-1.84164e-05
0.000139166
-1.8412e-05
0.000142849
-1.84057e-05
0.000146532
-1.83973e-05
0.000150212
-1.83866e-05
0.00015389
-1.83734e-05
0.000157564
-1.83578e-05
0.000161236
-1.83393e-05
0.000164903
-1.8318e-05
0.000168566
-1.82936e-05
0.000172223
-1.82659e-05
0.000175874
-1.82349e-05
0.000179519
-1.82002e-05
0.000183156
-1.81618e-05
0.000186785
-1.81195e-05
0.000190404
-1.8073e-05
0.000194014
-1.80223e-05
0.000197613
-1.7967e-05
0.0002012
-1.79072e-05
0.000204775
-1.78424e-05
0.000208336
-1.77727e-05
0.000211882
-1.76978e-05
0.000215412
-1.76176e-05
0.000218925
-1.75318e-05
0.00022242
-1.74403e-05
0.000225896
-1.73429e-05
0.000229351
-1.72395e-05
0.000232785
-1.71298e-05
0.000236195
-1.70139e-05
0.000239582
-1.68914e-05
0.000242942
-1.67622e-05
0.000246276
-1.66263e-05
0.000249581
-1.64834e-05
0.000252856
-1.63335e-05
0.0002561
-1.61764e-05
0.000259312
-1.60121e-05
0.000262489
-1.58403e-05
0.00026563
-1.56611e-05
0.000268734
-1.54743e-05
0.000271799
-1.52799e-05
0.000274824
-1.50778e-05
0.000277807
-1.48679e-05
0.000280746
-1.46503e-05
0.00028364
-1.44248e-05
0.000286488
-1.41916e-05
0.000289287
-1.39505e-05
0.000292037
-1.37016e-05
0.000294735
-1.34449e-05
0.000297381
-1.31805e-05
0.000299971
-1.29084e-05
0.000302506
-1.26287e-05
0.000304983
-1.23415e-05
0.000307401
-1.20469e-05
0.000309759
-1.17449e-05
0.000312055
-1.14357e-05
0.000314287
-1.11195e-05
0.000316454
-1.07964e-05
0.000318555
-1.04666e-05
0.000320589
-1.01302e-05
0.000322554
-9.78752e-06
0.000324448
-9.4387e-06
0.000326272
-9.08398e-06
0.000328023
-8.72361e-06
0.000329701
-8.35782e-06
0.000331304
-7.98689e-06
0.000332832
-7.61108e-06
0.000334283
-7.23069e-06
0.000335657
-6.84599e-06
0.000336953
-6.45731e-06
0.00033817
-6.06493e-06
0.000339307
-5.6692e-06
0.000340365
-5.27043e-06
0.000341341
-4.86895e-06
0.000342237
-4.4651e-06
0.000343051
-4.05922e-06
0.000343782
-3.65165e-06
0.000344432
-3.24275e-06
0.000345
-2.83285e-06
0.000345484
-2.42232e-06
0.000345887
-2.01149e-06
0.000346206
-1.60072e-06
0.000346443
-1.19036e-06
0.000346598
-7.80735e-07
0.000346671
-3.722e-07
0.000346662
3.49141e-08
0.000346571
4.40277e-07
0.0003464
8.43565e-07
0.000346148
1.24446e-06
0.000345816
1.64265e-06
0.000345404
2.03784e-06
0.000344914
2.42973e-06
0.000344346
2.81804e-06
0.0003437
3.20249e-06
0.000342979
3.58282e-06
0.000342181
3.95877e-06
0.000341309
4.33011e-06
0.000340364
4.6966e-06
0.000339346
5.05802e-06
0.000338257
5.41417e-06
0.000337097
5.76485e-06
0.000335868
6.10988e-06
0.000334571
6.44909e-06
0.000333207
6.78231e-06
0.000331778
7.10941e-06
0.000330284
7.43025e-06
0.000328728
7.74471e-06
0.000327109
8.05268e-06
0.000325431
8.35407e-06
0.000323693
8.6488e-06
0.000321897
8.93678e-06
0.000320045
9.21797e-06
0.000318139
9.49231e-06
0.000316179
9.75976e-06
0.000314166
1.00203e-05
0.000312103
1.02739e-05
0.000309991
1.05206e-05
0.00030783
1.07604e-05
0.000305623
1.09932e-05
0.000303371
1.12191e-05
0.000301076
1.14382e-05
0.000298737
1.16505e-05
0.000296358
1.1856e-05
0.000293939
1.20547e-05
0.000291482
1.22468e-05
0.000288988
1.24323e-05
0.000286458
1.26113e-05
0.000283893
1.27839e-05
0.000281296
1.29501e-05
0.000278666
1.31101e-05
0.000276006
1.32639e-05
0.000273317
1.34117e-05
0.000270599
1.35535e-05
0.000267854
1.36895e-05
0.000265084
1.38197e-05
0.000262288
1.39443e-05
0.000259469
1.40634e-05
0.000256627
1.41772e-05
0.000253764
1.42857e-05
0.00025088
1.4389e-05
0.000247977
1.44874e-05
0.000245055
1.45808e-05
0.000242116