/*--------------------------------*- C++ -*----------------------------------*\
| =========                 |                                                 |
| \\      /  F ield         | OpenFOAM: The Open Source CFD Toolbox           |
|  \\    /   O peration     | Version:  v2012                                 |
|   \\  /    A nd           | Website:  www.openfoam.com                      |
|    \\/     M anipulation  |                                                 |
\*---------------------------------------------------------------------------*/
FoamFile
{
    version     2.0;
    format      ascii;
    class       volScalarField;
    location    "11.25";
    object      Psi_z;
}
// * * * * * * * * * * * * * * * * * * * * * * * * * * * * * * * * * * * * * //

dimensions      [0 2 -1 0 0 0 0];


internalField   nonuniform List<scalar> 
65536
(
9.09773e-06
2.72936e-05
4.54906e-05
6.36894e-05
8.18907e-05
0.000100095
0.000118304
0.000136517
0.000154736
0.00017296
0.000191191
0.000209429
0.000227674
0.000245928
0.00026419
0.000282461
0.000300741
0.00031903
0.000337329
0.000355637
0.000373956
0.000392284
0.000410622
0.000428969
0.000447326
0.000465691
0.000484065
0.000502447
0.000520836
0.000539231
0.000557633
0.000576038
0.000594447
0.000612859
0.000631271
0.000649683
0.000668093
0.000686498
0.000704898
0.00072329
0.000741672
0.000760041
0.000778396
0.000796733
0.000815049
0.000833342
0.000851608
0.000869844
0.000888047
0.000906213
0.000924338
0.000942417
0.000960448
0.000978425
0.000996343
0.0010142
0.00103199
0.0010497
0.00106734
0.00108489
0.00110236
0.00111973
0.00113699
0.00115416
0.0011712
0.00118813
0.00120493
0.0012216
0.00123813
0.00125452
0.00127074
0.00128681
0.00130271
0.00131844
0.00133398
0.00134933
0.00136448
0.00137942
0.00139415
0.00140866
0.00142295
0.00143699
0.00145079
0.00146434
0.00147762
0.00149064
0.00150338
0.00151584
0.00152801
0.00153988
0.00155145
0.00156271
0.00157364
0.00158425
0.00159453
0.00160447
0.00161406
0.00162331
0.0016322
0.00164072
0.00164888
0.00165666
0.00166407
0.0016711
0.00167774
0.00168399
0.00168985
0.00169532
0.00170038
0.00170504
0.0017093
0.00171316
0.00171661
0.00171964
0.00172228
0.0017245
0.00172631
0.00172771
0.0017287
0.00172929
0.00172947
0.00172924
0.00172861
0.00172758
0.00172615
0.00172433
0.00172211
0.0017195
0.00171651
0.00171314
0.00170939
0.00170526
0.00170077
0.00169592
0.00169071
0.00168514
0.00167923
0.00167297
0.00166638
0.00165946
0.00165222
0.00164465
0.00163678
0.00162861
0.00162013
0.00161136
0.00160231
0.00159299
0.00158339
0.00157352
0.0015634
0.00155303
0.00154242
0.00153157
0.00152049
0.00150918
0.00149767
0.00148594
0.00147401
0.00146188
0.00144957
0.00143707
0.00142439
0.00141155
0.00139854
0.00138538
0.00137206
0.0013586
0.001345
0.00133126
0.0013174
0.00130342
0.00128931
0.0012751
0.00126078
0.00124636
0.00123184
0.00121723
0.00120254
0.00118776
0.0011729
0.00115797
0.00114297
0.00112791
0.00111278
0.0010976
0.00108236
0.00106707
0.00105173
0.00103635
0.00102093
0.00100548
0.000989986
0.000974463
0.000958911
0.000943332
0.00092773
0.000912106
0.000896464
0.000880804
0.000865129
0.000849441
0.000833742
0.000818034
0.000802319
0.000786597
0.000770871
0.000755142
0.000739411
0.000723679
0.000707948
0.000692219
0.000676493
0.00066077
0.000645052
0.000629339
0.000613632
0.000597932
0.00058224
0.000566555
0.000550878
0.00053521
0.000519551
0.000503902
0.000488262
0.000472632
0.000457011
0.000441401
0.000425801
0.000410212
0.000394632
0.000379062
0.000363503
0.000347953
0.000332413
0.000316882
0.000301361
0.000285848
0.000270344
0.000254849
0.000239361
0.000223881
0.000208408
0.000192942
0.000177483
0.000162029
0.000146581
0.000131138
0.000115699
0.000100264
8.4833e-05
6.94047e-05
5.39789e-05
3.8555e-05
2.31325e-05
7.71073e-06
2.72929e-05
8.18798e-05
0.00013647
0.000191066
0.000245669
0.000300282
0.000354908
0.000409547
0.000464202
0.000518874
0.000573566
0.00062828
0.000683016
0.000737776
0.000792561
0.000847373
0.000902213
0.000957081
0.00101198
0.0010669
0.00112186
0.00117684
0.00123186
0.0012869
0.00134197
0.00139707
0.00145219
0.00150733
0.0015625
0.00161769
0.00167289
0.00172811
0.00178334
0.00183858
0.00189382
0.00194905
0.00200428
0.0020595
0.0021147
0.00216988
0.00222503
0.00228014
0.00233521
0.00239022
0.00244517
0.00250005
0.00255485
0.00260957
0.00266418
0.00271868
0.00277306
0.0028273
0.0028814
0.00293533
0.00298909
0.00304267
0.00309604
0.00314919
0.0032021
0.00325477
0.00330717
0.00335928
0.00341109
0.00346258
0.00351373
0.00356452
0.00361494
0.00366495
0.00371455
0.0037637
0.00381239
0.00386061
0.00390831
0.00395549
0.00400212
0.00404818
0.00409364
0.00413848
0.00418269
0.00422622
0.00426907
0.00431121
0.00435262
0.00439327
0.00443313
0.0044722
0.00451043
0.00454782
0.00458434
0.00461996
0.00465467
0.00468844
0.00472125
0.00475309
0.00478393
0.00481375
0.00484254
0.00487028
0.00489695
0.00492253
0.004947
0.00497037
0.0049926
0.00501368
0.00503361
0.00505237
0.00506995
0.00508635
0.00510154
0.00511553
0.00512832
0.00513988
0.00515022
0.00515934
0.00516723
0.0051739
0.00517933
0.00518354
0.00518651
0.00518827
0.0051888
0.00518812
0.00518623
0.00518314
0.00517885
0.00517337
0.00516672
0.00515889
0.00514992
0.00513979
0.00512853
0.00511616
0.00510268
0.00508811
0.00507247
0.00505576
0.00503802
0.00501925
0.00499947
0.0049787
0.00495696
0.00493427
0.00491065
0.00488611
0.00486068
0.00483437
0.00480722
0.00477922
0.00475042
0.00472082
0.00469046
0.00465934
0.00462749
0.00459493
0.00456168
0.00452777
0.0044932
0.00445801
0.00442221
0.00438583
0.00434888
0.00431138
0.00427335
0.00423481
0.00419578
0.00415628
0.00411632
0.00407593
0.00403512
0.00399391
0.00395232
0.00391036
0.00386805
0.00382541
0.00378244
0.00373917
0.00369561
0.00365178
0.00360769
0.00356335
0.00351877
0.00347398
0.00342898
0.00338378
0.0033384
0.00329284
0.00324712
0.00320125
0.00315524
0.0031091
0.00306284
0.00301647
0.00296999
0.00292342
0.00287676
0.00283002
0.00278321
0.00273634
0.00268941
0.00264242
0.0025954
0.00254833
0.00250124
0.00245411
0.00240696
0.00235979
0.00231261
0.00226543
0.00221823
0.00217104
0.00212384
0.00207665
0.00202947
0.0019823
0.00193515
0.00188801
0.00184089
0.00179379
0.00174671
0.00169965
0.00165262
0.00160562
0.00155864
0.00151169
0.00146477
0.00141788
0.00137102
0.00132419
0.00127739
0.00123062
0.00118389
0.00113718
0.0010905
0.00104385
0.000997229
0.000950637
0.000904073
0.000857535
0.000811024
0.000764537
0.000718075
0.000671635
0.000625218
0.00057882
0.000532442
0.000486081
0.000439737
0.000393408
0.000347092
0.000300789
0.000254496
0.000208212
0.000161935
0.000115664
6.93966e-05
2.31319e-05
4.54869e-05
0.000136463
0.000227444
0.000318434
0.000409438
0.000500458
0.000591497
0.00068256
0.00077365
0.000864769
0.000955921
0.00104711
0.00113833
0.0012296
0.00132091
0.00141226
0.00150366
0.0015951
0.0016866
0.00177814
0.00186973
0.00196137
0.00205306
0.0021448
0.00223659
0.00232842
0.00242029
0.0025122
0.00260415
0.00269613
0.00278814
0.00288018
0.00297223
0.00306429
0.00315636
0.00324843
0.00334049
0.00343252
0.00352453
0.0036165
0.00370842
0.00380028
0.00389207
0.00398377
0.00407536
0.00416684
0.00425819
0.00434939
0.00444042
0.00453127
0.00462191
0.00471233
0.00480251
0.00489242
0.00498203
0.00507134
0.0051603
0.0052489
0.00533712
0.00542491
0.00551226
0.00559914
0.00568551
0.00577135
0.00585662
0.00594129
0.00602534
0.00610872
0.0061914
0.00627335
0.00635453
0.0064349
0.00651444
0.00659309
0.00667083
0.00674762
0.00682342
0.00689818
0.00697188
0.00704447
0.00711591
0.00718617
0.00725521
0.00732298
0.00738945
0.00745458
0.00751833
0.00758067
0.00764155
0.00770095
0.00775882
0.00781513
0.00786984
0.00792292
0.00797435
0.00802407
0.00807207
0.00811832
0.00816278
0.00820544
0.00824625
0.0082852
0.00832226
0.00835742
0.00839065
0.00842193
0.00845124
0.00847857
0.00850391
0.00852724
0.00854854
0.00856782
0.00858506
0.00860027
0.00861342
0.00862452
0.00863358
0.00864059
0.00864555
0.00864847
0.00864936
0.00864822
0.00864506
0.00863989
0.00863273
0.00862359
0.00861249
0.00859944
0.00858446
0.00856758
0.0085488
0.00852816
0.00850568
0.00848138
0.00845528
0.00842743
0.00839783
0.00836653
0.00833354
0.00829891
0.00826266
0.00822482
0.00818543
0.00814451
0.0081021
0.00805824
0.00801295
0.00796628
0.00791825
0.0078689
0.00781826
0.00776637
0.00771327
0.00765898
0.00760355
0.007547
0.00748937
0.0074307
0.00737101
0.00731035
0.00724874
0.00718621
0.00712281
0.00705856
0.00699349
0.00692763
0.00686102
0.00679368
0.00672565
0.00665695
0.00658761
0.00651766
0.00644712
0.00637603
0.00630441
0.00623227
0.00615966
0.00608659
0.00601309
0.00593917
0.00586487
0.0057902
0.00571518
0.00563983
0.00556418
0.00548824
0.00541204
0.00533558
0.00525888
0.00518197
0.00510486
0.00502756
0.00495009
0.00487246
0.00479468
0.00471678
0.00463875
0.00456062
0.0044824
0.00440409
0.00432571
0.00424726
0.00416876
0.00409021
0.00401162
0.00393301
0.00385437
0.00377571
0.00369705
0.00361839
0.00353973
0.00346108
0.00338244
0.00330383
0.00322523
0.00314666
0.00306813
0.00298962
0.00291116
0.00283273
0.00275434
0.002676
0.00259771
0.00251946
0.00244126
0.00236311
0.00228501
0.00220695
0.00212896
0.00205101
0.00197311
0.00189526
0.00181746
0.00173972
0.00166202
0.00158436
0.00150676
0.0014292
0.00135168
0.0012742
0.00119677
0.00111937
0.00104201
0.000964679
0.000887383
0.000810117
0.000732879
0.000655665
0.000578474
0.000501303
0.00042415
0.000347011
0.000269885
0.000192768
0.000115658
3.85523e-05
6.36791e-05
0.00019104
0.000318409
0.00044579
0.00057319
0.000700613
0.000828064
0.000955547
0.00108307
0.00121063
0.00133824
0.0014659
0.00159361
0.00172138
0.00184921
0.0019771
0.00210505
0.00223308
0.00236117
0.00248933
0.00261756
0.00274585
0.00287422
0.00300266
0.00313116
0.00325972
0.00338835
0.00351703
0.00364576
0.00377454
0.00390337
0.00403222
0.0041611
0.00429
0.00441891
0.00454781
0.00467671
0.00480557
0.0049344
0.00506317
0.00519188
0.0053205
0.00544902
0.00557742
0.00570567
0.00583377
0.00596168
0.00608938
0.00621685
0.00634407
0.00647099
0.00659761
0.00672389
0.00684979
0.00697529
0.00710035
0.00722493
0.00734901
0.00747255
0.0075955
0.00771783
0.0078395
0.00796046
0.00808068
0.00820011
0.0083187
0.0084364
0.00855318
0.00866899
0.00878376
0.00889747
0.00901004
0.00912144
0.00923161
0.0093405
0.00944806
0.00955423
0.00965895
0.00976218
0.00986386
0.00996394
0.0100624
0.0101591
0.010254
0.0103471
0.0104383
0.0105276
0.010615
0.0107003
0.0107835
0.0108645
0.0109434
0.0110201
0.0110944
0.0111665
0.0112361
0.0113034
0.0113681
0.0114304
0.0114902
0.0115474
0.0116019
0.0116538
0.0117031
0.0117496
0.0117934
0.0118345
0.0118728
0.0119083
0.011941
0.0119708
0.0119978
0.0120219
0.0120432
0.0120617
0.0120772
0.0120899
0.0120997
0.0121066
0.0121107
0.0121119
0.0121103
0.0121059
0.0120986
0.0120886
0.0120758
0.0120602
0.0120419
0.0120209
0.0119972
0.0119709
0.011942
0.0119105
0.0118764
0.0118399
0.0118008
0.0117594
0.0117155
0.0116693
0.0116207
0.0115699
0.0115169
0.0114617
0.0114044
0.011345
0.0112835
0.0112201
0.0111547
0.0110874
0.0110183
0.0109473
0.0108746
0.0108002
0.0107242
0.0106465
0.0105673
0.0104866
0.0104044
0.0103208
0.0102358
0.0101495
0.0100619
0.00997312
0.00988313
0.00979198
0.00969974
0.00960645
0.00951213
0.00941685
0.00932063
0.00922351
0.00912554
0.00902675
0.00892719
0.00882688
0.00872586
0.00862417
0.00852184
0.0084189
0.00831539
0.00821133
0.00810676
0.00800171
0.0078962
0.00779026
0.00768392
0.0075772
0.00747014
0.00736274
0.00725504
0.00714706
0.00703882
0.00693034
0.00682164
0.00671274
0.00660365
0.00649441
0.00638501
0.00627548
0.00616583
0.00605608
0.00594624
0.00583632
0.00572634
0.00561631
0.00550624
0.00539614
0.00528601
0.00517588
0.00506574
0.00495561
0.00484549
0.0047354
0.00462532
0.00451529
0.00440529
0.00429533
0.00418542
0.00407556
0.00396576
0.00385602
0.00374634
0.00363672
0.00352717
0.00341769
0.00330828
0.00319894
0.00308967
0.00298047
0.00287134
0.00276228
0.0026533
0.00254438
0.00243553
0.00232676
0.00221805
0.0021094
0.00200081
0.00189229
0.00178383
0.00167542
0.00156706
0.00145876
0.00135051
0.00124229
0.00113413
0.00102599
0.000917899
0.000809836
0.0007018
0.000593789
0.000485799
0.000377826
0.000269866
0.000161916
5.39713e-05
8.18686e-05
0.000245609
0.00040936
0.000573128
0.000736919
0.00090074
0.0010646
0.0012285
0.00139244
0.00155645
0.00172051
0.00188463
0.00204883
0.0022131
0.00237744
0.00254187
0.00270638
0.00287098
0.00303567
0.00320044
0.00336531
0.00353027
0.00369531
0.00386045
0.00402567
0.00419097
0.00435635
0.00452181
0.00468733
0.00485292
0.00501855
0.00518424
0.00534996
0.0055157
0.00568146
0.00584721
0.00601295
0.00617866
0.00634432
0.00650991
0.00667542
0.00684082
0.00700609
0.00717121
0.00733614
0.00750087
0.00766537
0.0078296
0.00799354
0.00815714
0.00832039
0.00848323
0.00864564
0.00880757
0.00896898
0.00912983
0.00929007
0.00944967
0.00960856
0.00976671
0.00992406
0.0100806
0.0102362
0.0103908
0.0105444
0.010697
0.0108484
0.0109986
0.0111476
0.0112953
0.0114415
0.0115864
0.0117297
0.0118714
0.0120115
0.0121499
0.0122865
0.0124212
0.012554
0.0126849
0.0128136
0.0129403
0.0130647
0.0131868
0.0133066
0.013424
0.0135389
0.0136513
0.0137611
0.0138681
0.0139724
0.0140739
0.0141726
0.0142682
0.0143609
0.0144506
0.0145371
0.0146205
0.0147006
0.0147775
0.0148511
0.0149213
0.0149881
0.0150515
0.0151114
0.0151677
0.0152206
0.0152698
0.0153155
0.0153575
0.0153959
0.0154306
0.0154617
0.0154891
0.0155128
0.0155328
0.015549
0.0155617
0.0155706
0.0155758
0.0155774
0.0155753
0.0155695
0.0155602
0.0155472
0.0155307
0.0155107
0.0154871
0.0154601
0.0154296
0.0153957
0.0153584
0.0153179
0.015274
0.0152269
0.0151767
0.0151233
0.0150668
0.0150073
0.0149448
0.0148795
0.0148112
0.0147402
0.0146664
0.0145899
0.0145108
0.0144291
0.014345
0.0142584
0.0141694
0.0140781
0.0139846
0.0138888
0.013791
0.0136911
0.0135891
0.0134853
0.0133795
0.0132719
0.0131626
0.0130516
0.0129389
0.0128246
0.0127088
0.0125916
0.0124729
0.0123529
0.0122316
0.012109
0.0119852
0.0118603
0.0117342
0.0116072
0.0114791
0.0113501
0.0112201
0.0110893
0.0109577
0.0108253
0.0106921
0.0105583
0.0104238
0.0102887
0.010153
0.0100167
0.00987997
0.00974272
0.00960502
0.0094669
0.0093284
0.00918953
0.00905033
0.00891082
0.00877103
0.00863098
0.0084907
0.00835021
0.00820952
0.00806867
0.00792767
0.00778654
0.0076453
0.00750395
0.00736253
0.00722104
0.0070795
0.00693793
0.00679632
0.00665471
0.00651309
0.00637148
0.00622989
0.00608832
0.00594679
0.0058053
0.00566387
0.00552249
0.00538117
0.00523992
0.00509874
0.00495764
0.00481661
0.00467567
0.00453482
0.00439406
0.00425338
0.0041128
0.00397231
0.00383191
0.0036916
0.00355138
0.00341126
0.00327123
0.00313129
0.00299143
0.00285166
0.00271198
0.00257237
0.00243285
0.0022934
0.00215402
0.00201471
0.00187547
0.00173629
0.00159716
0.0014581
0.00131908
0.0011801
0.00104117
0.000902272
0.000763407
0.000624569
0.000485753
0.000346954
0.000208168
6.93883e-05
0.000100055
0.000300169
0.000500295
0.000700442
0.000900618
0.00110083
0.00130109
0.0015014
0.00170177
0.0019022
0.00210271
0.0023033
0.00250398
0.00270474
0.0029056
0.00310656
0.00330763
0.0035088
0.00371008
0.00391147
0.00411297
0.00431459
0.00451632
0.00471815
0.00492009
0.00512214
0.00532428
0.00552651
0.00572884
0.00593123
0.0061337
0.00633622
0.00653879
0.00674139
0.00694401
0.00714663
0.00734923
0.0075518
0.00775431
0.00795674
0.00815907
0.00836127
0.00856332
0.00876518
0.00896682
0.00916822
0.00936933
0.00957012
0.00977055
0.00997059
0.0101702
0.0103693
0.0105679
0.0107659
0.0109632
0.0111599
0.0113559
0.011551
0.0117453
0.0119387
0.0121311
0.0123225
0.0125128
0.0127019
0.0128898
0.0130764
0.0132616
0.0134453
0.0136275
0.0138081
0.013987
0.0141642
0.0143395
0.0145129
0.0146842
0.0148535
0.0150206
0.0151854
0.0153479
0.0155079
0.0156654
0.0158204
0.0159726
0.016122
0.0162686
0.0164122
0.0165528
0.0166903
0.0168245
0.0169555
0.0170831
0.0172073
0.017328
0.0174451
0.0175585
0.0176682
0.017774
0.017876
0.0179741
0.0180681
0.0181582
0.0182441
0.0183258
0.0184033
0.0184766
0.0185456
0.0186102
0.0186704
0.0187263
0.0187777
0.0188247
0.0188671
0.0189051
0.0189386
0.0189676
0.018992
0.0190119
0.0190273
0.0190382
0.0190446
0.0190464
0.0190438
0.0190368
0.0190253
0.0190094
0.0189892
0.0189646
0.0189358
0.0189026
0.0188653
0.0188238
0.0187782
0.0187285
0.0186748
0.0186172
0.0185556
0.0184903
0.0184212
0.0183483
0.0182719
0.0181918
0.0181083
0.0180213
0.017931
0.0178374
0.0177407
0.0176407
0.0175377
0.0174318
0.0173229
0.0172112
0.0170967
0.0169796
0.0168599
0.0167376
0.0166129
0.0164858
0.0163564
0.0162248
0.0160911
0.0159553
0.0158174
0.0156777
0.015536
0.0153926
0.0152474
0.0151006
0.0149522
0.0148023
0.0146509
0.0144981
0.014344
0.0141886
0.0140319
0.0138741
0.0137152
0.0135553
0.0133943
0.0132324
0.0130696
0.0129059
0.0127415
0.0125763
0.0124103
0.0122437
0.0120765
0.0119087
0.0117403
0.0115715
0.0114021
0.0112323
0.0110621
0.0108916
0.0107207
0.0105495
0.010378
0.0102062
0.0100342
0.00986202
0.00968965
0.00951712
0.00934445
0.00917167
0.00899878
0.00882583
0.00865281
0.00847974
0.00830665
0.00813354
0.00796043
0.00778733
0.00761425
0.00744121
0.00726821
0.00709527
0.00692239
0.00674958
0.00657685
0.0064042
0.00623164
0.00605917
0.0058868
0.00571454
0.00554238
0.00537033
0.00519839
0.00502657
0.00485485
0.00468325
0.00451177
0.00434039
0.00416914
0.00399799
0.00382695
0.00365602
0.00348519
0.00331447
0.00314385
0.00297333
0.00280289
0.00263255
0.00246229
0.00229211
0.00212201
0.00195198
0.00178202
0.00161211
0.00144226
0.00127247
0.00110271
0.000932999
0.000763317
0.000593663
0.00042403
0.000254412
8.4803e-05
0.000118237
0.000354716
0.000591209
0.000827727
0.00106428
0.00130088
0.00153753
0.00177424
0.00201102
0.00224789
0.00248484
0.00272188
0.00295903
0.00319629
0.00343366
0.00367115
0.00390876
0.00414651
0.00438438
0.00462239
0.00486053
0.0050988
0.00533721
0.00557575
0.00581441
0.00605321
0.00629212
0.00653114
0.00677026
0.00700948
0.00724879
0.00748816
0.00772759
0.00796706
0.00820656
0.00844606
0.00868554
0.00892499
0.00916437
0.00940367
0.00964285
0.00988188
0.0101207
0.0103594
0.0105977
0.0108358
0.0110736
0.011311
0.011548
0.0117845
0.0120205
0.0122559
0.0124907
0.0127248
0.0129582
0.0131907
0.0134224
0.0136532
0.013883
0.0141117
0.0143393
0.0145656
0.0147906
0.0150143
0.0152365
0.0154572
0.0156762
0.0158935
0.0161091
0.0163227
0.0165343
0.0167439
0.0169512
0.0171563
0.017359
0.0175593
0.017757
0.0179519
0.0181442
0.0183335
0.0185199
0.0187031
0.0188832
0.0190601
0.0192335
0.0194034
0.0195698
0.0197324
0.0198913
0.0200463
0.0201973
0.0203442
0.020487
0.0206256
0.0207598
0.0208895
0.0210148
0.0211355
0.0212515
0.0213628
0.0214693
0.021571
0.0216677
0.0217594
0.0218461
0.0219277
0.0220042
0.0220755
0.0221415
0.0222024
0.0222579
0.0223081
0.0223531
0.0223927
0.0224269
0.0224558
0.0224793
0.0224975
0.0225103
0.0225178
0.02252
0.0225169
0.0225085
0.0224949
0.022476
0.022452
0.0224229
0.0223887
0.0223494
0.0223052
0.022256
0.022202
0.0221431
0.0220796
0.0220113
0.0219384
0.021861
0.0217792
0.021693
0.0216024
0.0215077
0.0214088
0.0213059
0.021199
0.0210882
0.0209736
0.0208554
0.0207335
0.020608
0.0204792
0.020347
0.0202116
0.0200729
0.0199313
0.0197866
0.019639
0.0194887
0.0193356
0.0191799
0.0190216
0.018861
0.0186979
0.0185325
0.018365
0.0181953
0.0180236
0.01785
0.0176744
0.0174971
0.017318
0.0171373
0.016955
0.0167712
0.016586
0.0163993
0.0162114
0.0160223
0.0158319
0.0156404
0.0154479
0.0152544
0.0150599
0.0148645
0.0146683
0.0144714
0.0142736
0.0140752
0.0138761
0.0136765
0.0134763
0.0132755
0.0130743
0.0128727
0.0126706
0.0124682
0.0122655
0.0120624
0.0118591
0.0116555
0.0114518
0.0112478
0.0110437
0.0108395
0.0106351
0.0104307
0.0102262
0.0100216
0.00981698
0.00961237
0.00940775
0.00920315
0.00899858
0.00879406
0.00858958
0.00838518
0.00818084
0.0079766
0.00777244
0.00756839
0.00736444
0.00716061
0.00695689
0.0067533
0.00654983
0.0063465
0.00614329
0.00594022
0.00573729
0.00553449
0.00533182
0.00512929
0.0049269
0.00472464
0.0045225
0.0043205
0.00411862
0.00391687
0.00371523
0.00351371
0.0033123
0.003111
0.00290979
0.00270868
0.00250766
0.00230673
0.00210588
0.00190509
0.00170438
0.00150372
0.00130312
0.00110256
0.000902038
0.000701552
0.000501091
0.000300647
0.000100215
0.000136414
0.000409247
0.000682098
0.000954978
0.0012279
0.00150087
0.0017739
0.00204701
0.0023202
0.00259348
0.00286687
0.00314036
0.00341398
0.00368772
0.0039616
0.00423561
0.00450977
0.00478408
0.00505855
0.00533317
0.00560794
0.00588288
0.00615797
0.00643322
0.00670861
0.00698416
0.00725984
0.00753566
0.0078116
0.00808765
0.0083638
0.00864004
0.00891635
0.00919271
0.0094691
0.00974551
0.0100219
0.0102982
0.0105745
0.0108507
0.0111268
0.0114027
0.0116784
0.0119538
0.012229
0.0125038
0.0127783
0.0130523
0.0133258
0.0135989
0.0138713
0.0141431
0.0144142
0.0146845
0.0149539
0.0152224
0.01549
0.0157564
0.0160217
0.0162858
0.0165486
0.01681
0.0170699
0.0173281
0.0175848
0.0178396
0.0180926
0.0183436
0.0185925
0.0188392
0.0190837
0.0193257
0.0195652
0.0198022
0.0200363
0.0202676
0.020496
0.0207213
0.0209433
0.0211621
0.0213774
0.0215891
0.0217972
0.0220015
0.0222019
0.0223982
0.0225904
0.0227784
0.0229619
0.023141
0.0233155
0.0234853
0.0236503
0.0238104
0.0239655
0.0241154
0.0242602
0.0243996
0.0245337
0.0246623
0.0247854
0.0249028
0.0250146
0.0251206
0.0252207
0.025315
0.0254034
0.0254857
0.025562
0.0256323
0.0256964
0.0257545
0.0258063
0.0258521
0.0258916
0.0259249
0.025952
0.025973
0.0259878
0.0259964
0.0259988
0.0259952
0.0259854
0.0259696
0.0259478
0.02592
0.0258862
0.0258466
0.0258012
0.02575
0.0256931
0.0256306
0.0255625
0.025489
0.02541
0.0253258
0.0252363
0.0251416
0.0250419
0.0249372
0.0248277
0.0247134
0.0245944
0.0244708
0.0243427
0.0242103
0.0240736
0.0239327
0.0237878
0.0236388
0.0234861
0.0233295
0.0231694
0.0230056
0.0228385
0.022668
0.0224942
0.0223174
0.0221375
0.0219547
0.021769
0.0215806
0.0213896
0.0211961
0.0210001
0.0208018
0.0206012
0.0203984
0.0201936
0.0199868
0.0197781
0.0195676
0.0193553
0.0191414
0.0189259
0.0187088
0.0184904
0.0182706
0.0180495
0.0178272
0.0176038
0.0173792
0.0171537
0.0169271
0.0166997
0.0164714
0.0162424
0.0160126
0.0157821
0.0155509
0.0153192
0.0150869
0.0148542
0.0146209
0.0143873
0.0141533
0.0139189
0.0136842
0.0134493
0.0132141
0.0129787
0.0127431
0.0125074
0.0122715
0.0120356
0.0117996
0.0115635
0.0113273
0.0110912
0.0108551
0.010619
0.0103829
0.0101468
0.00991089
0.00967501
0.00943921
0.00920352
0.00896794
0.00873247
0.00849713
0.00826193
0.00802686
0.00779193
0.00755716
0.00732253
0.00708806
0.00685374
0.00661958
0.00638558
0.00615174
0.00591806
0.00568453
0.00545115
0.00521793
0.00498486
0.00475193
0.00451915
0.0042865
0.00405399
0.0038216
0.00358934
0.0033572
0.00312516
0.00289323
0.0026614
0.00242966
0.00219801
0.00196643
0.00173492
0.00150347
0.00127208
0.00104073
0.000809416
0.000578133
0.000346872
0.000115622
0.000154585
0.000463762
0.000772959
0.00108219
0.00139146
0.0017008
0.00201021
0.0023197
0.00262928
0.00293897
0.00324878
0.00355872
0.0038688
0.00417902
0.00448939
0.00479993
0.00511063
0.00542151
0.00573256
0.00604379
0.00635521
0.0066668
0.00697858
0.00729053
0.00760267
0.00791497
0.00822743
0.00854005
0.00885282
0.00916572
0.00947873
0.00979185
0.0101051
0.0104183
0.0107316
0.011045
0.0113583
0.0116716
0.0119848
0.0122979
0.0126109
0.0129236
0.0132362
0.0135485
0.0138605
0.0141721
0.0144833
0.0147941
0.0151043
0.0154139
0.0157228
0.016031
0.0163384
0.016645
0.0169506
0.0172551
0.0175585
0.0178608
0.0181617
0.0184613
0.0187593
0.0190558
0.0193506
0.0196437
0.0199348
0.0202239
0.0205109
0.0207957
0.0210781
0.0213581
0.0216354
0.0219101
0.0221819
0.0224507
0.0227165
0.022979
0.0232381
0.0234938
0.0237458
0.0239941
0.0242384
0.0244788
0.024715
0.0249468
0.0251743
0.0253972
0.0256153
0.0258287
0.0260371
0.0262404
0.0264384
0.0266312
0.0268185
0.0270002
0.0271763
0.0273465
0.0275108
0.0276692
0.0278214
0.0279674
0.0281071
0.0282404
0.0283672
0.0284876
0.0286012
0.0287083
0.0288085
0.028902
0.0289886
0.0290683
0.0291411
0.029207
0.0292658
0.0293176
0.0293624
0.0294002
0.029431
0.0294547
0.0294714
0.0294811
0.0294838
0.0294796
0.0294684
0.0294504
0.0294255
0.0293939
0.0293555
0.0293104
0.0292587
0.0292005
0.0291358
0.0290648
0.0289874
0.0289038
0.0288141
0.0287183
0.0286166
0.0285091
0.0283958
0.0282769
0.0281525
0.0280226
0.0278875
0.0277471
0.0276017
0.0274513
0.027296
0.027136
0.0269714
0.0268024
0.0266289
0.0264512
0.0262693
0.0260835
0.0258937
0.0257002
0.025503
0.0253022
0.025098
0.0248905
0.0246798
0.024466
0.0242493
0.0240296
0.0238072
0.0235822
0.0233546
0.0231245
0.0228921
0.0226575
0.0224207
0.0221818
0.021941
0.0216983
0.0214539
0.0212077
0.0209599
0.0207106
0.0204598
0.0202077
0.0199542
0.0196996
0.0194438
0.0191869
0.0189289
0.01867
0.0184103
0.0181497
0.0178883
0.0176262
0.0173634
0.0171001
0.0168361
0.0165717
0.0163068
0.0160414
0.0157757
0.0155096
0.0152433
0.0149766
0.0147098
0.0144427
0.0141754
0.0139081
0.0136406
0.013373
0.0131054
0.0128377
0.01257
0.0123024
0.0120347
0.0117671
0.0114996
0.0112321
0.0109647
0.0106975
0.0104303
0.0101633
0.00989643
0.00962969
0.00936311
0.00909668
0.00883042
0.00856433
0.00829841
0.00803267
0.00776711
0.00750173
0.00723652
0.00697151
0.00670667
0.00644201
0.00617752
0.00591321
0.00564907
0.0053851
0.00512129
0.00485764
0.00459414
0.00433078
0.00406757
0.00380449
0.00354154
0.0032787
0.00301598
0.00275337
0.00249085
0.00222841
0.00196606
0.00170377
0.00144155
0.00117938
0.00091725
0.000655155
0.000393084
0.000131026
0.00017275
0.000518257
0.000863786
0.00120935
0.00155497
0.00190066
0.00224643
0.00259229
0.00293826
0.00328435
0.00363058
0.00397694
0.00432347
0.00467016
0.00501703
0.00536408
0.00571132
0.00605875
0.00640639
0.00675423
0.00710228
0.00745054
0.00779901
0.00814768
0.00849655
0.00884561
0.00919487
0.0095443
0.00989391
0.0102437
0.0105936
0.0109436
0.0112937
0.0116439
0.0119942
0.0123444
0.0126947
0.013045
0.0133951
0.0137452
0.0140951
0.0144449
0.0147944
0.0151436
0.0154924
0.0158409
0.0161889
0.0165364
0.0168833
0.0172295
0.017575
0.0179197
0.0182636
0.0186064
0.0189482
0.0192889
0.0196283
0.0199664
0.0203031
0.0206382
0.0209717
0.0213034
0.0216332
0.0219611
0.0222868
0.0226103
0.0229315
0.0232502
0.0235662
0.0238795
0.0241899
0.0244973
0.0248015
0.0251024
0.0253998
0.0256937
0.0259837
0.0262699
0.0265521
0.02683
0.0271035
0.0273726
0.027637
0.0278966
0.0281513
0.0284008
0.0286451
0.0288839
0.0291173
0.0293449
0.0295667
0.0297825
0.0299923
0.0301958
0.0303929
0.0305835
0.0307675
0.0309448
0.0311152
0.0312787
0.0314351
0.0315844
0.0317264
0.0318611
0.0319884
0.0321082
0.0322205
0.0323251
0.0324221
0.0325113
0.0325928
0.0326664
0.0327323
0.0327902
0.0328404
0.0328826
0.0329169
0.0329434
0.032962
0.0329728
0.0329757
0.0329709
0.0329583
0.032938
0.03291
0.0328745
0.0328314
0.0327808
0.0327228
0.0326575
0.0325849
0.0325053
0.0324185
0.0323248
0.0322242
0.0321169
0.0320029
0.0318823
0.0317554
0.0316221
0.0314827
0.0313372
0.0311857
0.0310285
0.0308656
0.0306971
0.0305232
0.030344
0.0301596
0.0299702
0.029776
0.029577
0.0293733
0.0291652
0.0289527
0.028736
0.0285152
0.0282904
0.0280619
0.0278296
0.0275937
0.0273544
0.0271118
0.0268659
0.026617
0.0263651
0.0261104
0.025853
0.0255929
0.0253303
0.0250653
0.0247981
0.0245286
0.0242571
0.0239836
0.0237082
0.0234309
0.023152
0.0228715
0.0225894
0.0223059
0.0220211
0.0217349
0.0214476
0.0211591
0.0208695
0.020579
0.0202876
0.0199952
0.0197021
0.0194083
0.0191138
0.0188186
0.0185229
0.0182267
0.01793
0.0176328
0.0173354
0.0170375
0.0167394
0.016441
0.0161424
0.0158436
0.0155447
0.0152457
0.0149465
0.0146473
0.0143481
0.0140489
0.0137496
0.0134504
0.0131513
0.0128522
0.0125533
0.0122544
0.0119556
0.011657
0.0113586
0.0110602
0.0107621
0.0104641
0.0101663
0.00986874
0.00957133
0.00927411
0.0089771
0.00868029
0.00838369
0.00808728
0.00779109
0.0074951
0.00719931
0.00690371
0.00660832
0.00631312
0.0060181
0.00572327
0.00542862
0.00513414
0.00483982
0.00454566
0.00425166
0.00395779
0.00366406
0.00337046
0.00307697
0.0027836
0.00249032
0.00219713
0.00190401
0.00161097
0.00131799
0.00102505
0.000732153
0.000439281
0.000146425
0.000190907
0.000572729
0.000954576
0.00133647
0.00171841
0.00210044
0.00248255
0.00286477
0.00324711
0.00362959
0.00401222
0.00439501
0.00477798
0.00516113
0.00554448
0.00592804
0.00631181
0.0066958
0.00708002
0.00746447
0.00784915
0.00823407
0.00861923
0.00900462
0.00939023
0.00977607
0.0101621
0.0105484
0.0109348
0.0113215
0.0117083
0.0120952
0.0124823
0.0128694
0.0132566
0.0136439
0.0140312
0.0144184
0.0148056
0.0151927
0.0155796
0.0159663
0.0163528
0.0167389
0.0171247
0.0175101
0.017895
0.0182793
0.0186629
0.0190459
0.0194281
0.0198094
0.0201897
0.0205689
0.0209471
0.0213239
0.0216994
0.0220735
0.022446
0.0228168
0.0231857
0.0235528
0.0239178
0.0242806
0.0246411
0.0249991
0.0253545
0.0257072
0.0260571
0.0264038
0.0267474
0.0270877
0.0274244
0.0277575
0.0280868
0.0284121
0.0287333
0.0290501
0.0293625
0.0296702
0.0299731
0.0302711
0.0305639
0.0308514
0.0311333
0.0314097
0.0316802
0.0319448
0.0322032
0.0324553
0.0327009
0.03294
0.0331723
0.0333977
0.033616
0.0338271
0.0340309
0.0342273
0.034416
0.0345971
0.0347704
0.0349357
0.035093
0.0352422
0.0353831
0.0355158
0.0356401
0.0357559
0.0358633
0.035962
0.0360522
0.0361337
0.0362066
0.0362707
0.0363261
0.0363728
0.0364108
0.03644
0.0364605
0.0364723
0.0364755
0.03647
0.0364559
0.0364333
0.0364022
0.0363626
0.0363147
0.0362586
0.0361942
0.0361217
0.0360412
0.0359528
0.0358566
0.0357526
0.035641
0.035522
0.0353956
0.035262
0.0351212
0.0349735
0.034819
0.0346577
0.0344898
0.0343156
0.034135
0.0339483
0.0337556
0.0335571
0.0333528
0.033143
0.0329278
0.0327074
0.0324818
0.0322513
0.0320159
0.0317759
0.0315314
0.0312825
0.0310294
0.0307722
0.030511
0.0302461
0.0299775
0.0297053
0.0294298
0.0291509
0.028869
0.028584
0.0282962
0.0280055
0.0277123
0.0274165
0.0271183
0.0268178
0.0265152
0.0262104
0.0259037
0.0255951
0.0252847
0.0249727
0.024659
0.0243439
0.0240273
0.0237094
0.0233903
0.02307
0.0227487
0.0224263
0.022103
0.0217788
0.0214538
0.0211281
0.0208017
0.0204746
0.020147
0.0198189
0.0194904
0.0191614
0.0188321
0.0185024
0.0181725
0.0178423
0.017512
0.0171815
0.0168508
0.0165201
0.0161893