/*--------------------------------*- C++ -*----------------------------------*\
| =========                 |                                                 |
| \\      /  F ield         | OpenFOAM: The Open Source CFD Toolbox           |
|  \\    /   O peration     | Version:  v2012                                 |
|   \\  /    A nd           | Website:  www.openfoam.com                      |
|    \\/     M anipulation  |                                                 |
\*---------------------------------------------------------------------------*/
FoamFile
{
    version     2.0;
    format      ascii;
    class       volScalarField;
    location    "11.25";
    object      W;
}
// * * * * * * * * * * * * * * * * * * * * * * * * * * * * * * * * * * * * * //

dimensions      [0 0 -1 0 0 0 0];


internalField   nonuniform List<scalar> 
65536
(
9.43605e-17
9.57019e-17
9.98092e-17
1.06747e-16
1.16649e-16
1.29717e-16
1.46228e-16
1.66534e-16
1.91069e-16
2.20357e-16
2.55024e-16
2.95803e-16
3.43551e-16
3.99261e-16
4.64081e-16
5.39329e-16
6.2652e-16
7.27382e-16
8.43893e-16
9.78299e-16
1.13316e-15
1.31138e-15
1.51624e-15
1.75147e-15
2.02127e-15
2.33038e-15
2.68415e-15
3.08858e-15
3.55044e-15
4.0773e-15
4.67764e-15
5.36096e-15
6.13786e-15
7.02018e-15
8.02108e-15
9.15522e-15
1.04389e-14
1.18901e-14
1.35289e-14
1.53773e-14
1.74596e-14
1.98029e-14
2.24366e-14
2.53931e-14
2.87081e-14
3.24206e-14
3.65731e-14
4.12121e-14
4.63882e-14
5.21565e-14
5.85766e-14
6.57133e-14
7.36366e-14
8.24218e-14
9.21504e-14
1.0291e-13
1.14794e-13
1.27902e-13
1.42344e-13
1.58231e-13
1.75688e-13
1.94842e-13
2.15831e-13
2.38799e-13
2.63899e-13
2.91292e-13
3.21146e-13
3.53636e-13
3.88948e-13
4.27272e-13
4.68806e-13
5.13758e-13
5.62338e-13
6.14764e-13
6.71261e-13
7.32057e-13
7.97384e-13
8.67477e-13
9.42575e-13
1.02292e-12
1.10874e-12
1.20028e-12
1.29777e-12
1.40145e-12
1.51154e-12
1.62826e-12
1.75181e-12
1.88239e-12
2.0202e-12
2.16538e-12
2.31811e-12
2.47851e-12
2.6467e-12
2.82275e-12
3.00675e-12
3.19871e-12
3.39865e-12
3.60654e-12
3.82231e-12
4.04586e-12
4.27705e-12
4.51571e-12
4.76159e-12
5.01443e-12
5.27392e-12
5.53967e-12
5.81128e-12
6.08826e-12
6.37008e-12
6.65617e-12
6.94589e-12
7.23853e-12
7.53335e-12
7.82953e-12
8.12621e-12
8.42246e-12
8.71731e-12
9.00973e-12
9.29862e-12
9.58287e-12
9.8613e-12
1.01327e-11
1.03958e-11
1.06493e-11
1.08919e-11
1.11224e-11
1.13393e-11
1.15413e-11
1.17271e-11
1.18954e-11
1.20448e-11
1.21743e-11
1.22824e-11
1.23682e-11
1.24306e-11
1.24686e-11
1.24814e-11
1.24682e-11
1.24285e-11
1.23618e-11
1.22678e-11
1.21464e-11
1.19977e-11
1.18219e-11
1.16195e-11
1.13912e-11
1.11378e-11
1.08605e-11
1.05606e-11
1.02395e-11
9.89896e-12
9.54086e-12
9.16726e-12
8.78035e-12
8.38248e-12
7.97607e-12
7.56367e-12
7.14784e-12
6.73119e-12
6.31631e-12
5.90575e-12
5.50201e-12
5.10749e-12
4.72443e-12
4.35498e-12
4.00106e-12
3.66442e-12
3.34662e-12
3.04895e-12
2.77251e-12
2.51814e-12
2.28645e-12
2.0778e-12
1.89233e-12
1.72994e-12
1.59032e-12
1.47294e-12
1.37708e-12
1.30184e-12
1.24613e-12
1.20872e-12
1.1882e-12
1.18304e-12
1.19161e-12
1.21213e-12
1.24277e-12
1.2816e-12
1.32665e-12
1.37593e-12
1.42744e-12
1.47921e-12
1.52932e-12
1.57597e-12
1.61745e-12
1.65223e-12
1.67898e-12
1.69656e-12
1.70412e-12
1.70105e-12
1.687e-12
1.66194e-12
1.62609e-12
1.57995e-12
1.52425e-12
1.45995e-12
1.38819e-12
1.31022e-12
1.22743e-12
1.14121e-12
1.053e-12
9.64162e-13
8.76007e-13
7.89721e-13
7.06358e-13
6.26812e-13
5.51809e-13
4.819e-13
4.17467e-13
3.58727e-13
3.05748e-13
2.58466e-13
2.16702e-13
1.80188e-13
1.48586e-13
1.21506e-13
9.85313e-14
7.923e-14
6.31728e-14
4.99436e-14
3.91495e-14
3.04266e-14
2.3445e-14
1.79102e-14
1.35642e-14
1.0184e-14
7.57979e-15
5.59244e-15
4.09014e-15
2.9652e-15
2.13078e-15
1.51768e-15
1.07144e-15
7.49695e-16
5.19907e-16
3.57337e-16
2.43407e-16
1.6432e-16
1.09941e-16
7.29125e-17
4.79487e-17
3.13e-17
2.03386e-17
1.32515e-17
8.81449e-18
6.2311e-18
5.02295e-18
1.41465e-16
1.43471e-16
1.49622e-16
1.60016e-16
1.7485e-16
1.94429e-16
2.19166e-16
2.49588e-16
2.86345e-16
3.30224e-16
3.82159e-16
4.43249e-16
5.14777e-16
5.98229e-16
6.95323e-16
8.08033e-16
9.38622e-16
1.08968e-15
1.26416e-15
1.46542e-15
1.69729e-15
1.96411e-15
2.27078e-15
2.62286e-15
3.02664e-15
3.48917e-15
4.01844e-15
4.6234e-15
5.31411e-15
6.10184e-15
6.99923e-15
8.02038e-15
9.18104e-15
1.04988e-14
1.19931e-14
1.36858e-14
1.56008e-14
1.77649e-14
2.02076e-14
2.29613e-14
2.60621e-14
2.95493e-14
3.34665e-14
3.7861e-14
4.27851e-14
4.82956e-14
5.44546e-14
6.13296e-14
6.89941e-14
7.75277e-14
8.70166e-14
9.75541e-14
1.0924e-13
1.22184e-13
1.365e-13
1.52314e-13
1.69758e-13
1.88974e-13
2.10113e-13
2.33335e-13
2.5881e-13
2.86718e-13
3.17246e-13
3.50595e-13
3.86972e-13
4.26596e-13
4.69692e-13
5.16498e-13
5.67258e-13
6.22225e-13
6.81659e-13
7.45826e-13
8.15e-13
8.89459e-13
9.69484e-13
1.05536e-12
1.14737e-12
1.24581e-12
1.35095e-12
1.46308e-12
1.58247e-12
1.70939e-12
1.84411e-12
1.98686e-12
2.1379e-12
2.29743e-12
2.46565e-12
2.64276e-12
2.8289e-12
3.02421e-12
3.22879e-12
3.44272e-12
3.66605e-12
3.89877e-12
4.14085e-12
4.39222e-12
4.65277e-12
4.92234e-12
5.20071e-12
5.48763e-12
5.78279e-12
6.08584e-12
6.39635e-12
6.71385e-12
7.03783e-12
7.36768e-12
7.70276e-12
8.04238e-12
8.38576e-12
8.73208e-12
9.08046e-12
9.42995e-12
9.77956e-12
1.01282e-11
1.04748e-11
1.08183e-11
1.11572e-11
1.14905e-11
1.18168e-11
1.21348e-11
1.24431e-11
1.27403e-11
1.30249e-11
1.32956e-11
1.35508e-11
1.37892e-11
1.40093e-11
1.42097e-11
1.4389e-11
1.45458e-11
1.46788e-11
1.47868e-11
1.48687e-11
1.49234e-11
1.49499e-11
1.49474e-11
1.49152e-11
1.48527e-11
1.47595e-11
1.46353e-11
1.44802e-11
1.42943e-11
1.4078e-11
1.38317e-11
1.35564e-11
1.3253e-11
1.29227e-11
1.25671e-11
1.21877e-11
1.17865e-11
1.13655e-11
1.0927e-11
1.04734e-11
1.00074e-11
9.53145e-12
9.0485e-12
8.56133e-12
8.07282e-12
7.58586e-12
7.10327e-12
6.62784e-12
6.16224e-12
5.70902e-12
5.27059e-12
4.84915e-12
4.4467e-12
4.06504e-12
3.70571e-12
3.36999e-12
3.05893e-12
2.77328e-12
2.51357e-12
2.28003e-12
2.07267e-12
1.89124e-12
1.73528e-12
1.60408e-12
1.49674e-12
1.41217e-12
1.34911e-12
1.30612e-12
1.2816e-12
1.27385e-12
1.28103e-12
1.30119e-12
1.3323e-12
1.37227e-12
1.41895e-12
1.4702e-12
1.52384e-12
1.57778e-12
1.62997e-12
1.67846e-12
1.72146e-12
1.75735e-12
1.78471e-12
1.80235e-12
1.80937e-12
1.80514e-12
1.78931e-12
1.76186e-12
1.72303e-12
1.67337e-12
1.61367e-12
1.54494e-12
1.46839e-12
1.38537e-12
1.29733e-12
1.20575e-12
1.11215e-12
1.01797e-12
9.2459e-13
8.33251e-13
7.45061e-13
6.60958e-13
5.817e-13
5.07863e-13
4.3984e-13
3.77854e-13
3.2197e-13
2.72113e-13
2.28091e-13
1.89616e-13
1.56326e-13
1.27809e-13
1.03622e-13
8.33077e-14
6.64118e-14
5.24951e-14
4.11425e-14
3.19704e-14
2.46307e-14
1.88132e-14
1.4246e-14
1.06944e-14
7.95864e-15
5.87122e-15
4.29351e-15
3.11228e-15
2.23622e-15
1.59261e-15
1.12422e-15
7.86556e-16
5.4542e-16
3.7484e-16
2.55308e-16
1.72341e-16
1.15299e-16
7.64601e-17
5.02783e-17
3.28185e-17
2.1324e-17
1.38927e-17
9.24037e-18
6.5318e-18
5.26525e-18
2.54805e-16
2.58409e-16
2.69478e-16
2.88183e-16
3.14882e-16
3.50123e-16
3.94647e-16
4.49403e-16
5.15561e-16
5.94536e-16
6.88009e-16
7.97956e-16
9.26684e-16
1.07687e-15
1.25159e-15
1.45441e-15
1.68938e-15
1.96117e-15
2.27507e-15
2.63713e-15
3.05421e-15
3.53409e-15
4.08558e-15
4.71866e-15
5.44456e-15
6.27597e-15
7.22715e-15
8.31414e-15
9.55493e-15
1.09697e-14
1.25809e-14
1.44138e-14
1.64964e-14
1.88601e-14
2.15396e-14
2.45734e-14
2.80043e-14
3.18797e-14
3.62516e-14
4.11777e-14
4.67213e-14
5.2952e-14
5.99461e-14
6.77872e-14
7.65665e-14
8.63834e-14
9.73463e-14
1.09573e-13
1.2319e-13
1.38337e-13
1.55161e-13
1.73823e-13
1.94495e-13
2.17362e-13
2.42621e-13
2.70484e-13
3.01174e-13
3.3493e-13
3.72004e-13
4.12663e-13
4.57189e-13
5.05875e-13
5.59032e-13
6.16981e-13
6.8006e-13
7.48617e-13
8.23012e-13
9.03617e-13
9.90814e-13
1.08499e-12
1.18655e-12
1.29589e-12
1.41342e-12
1.53955e-12
1.67468e-12
1.81921e-12
1.97356e-12
2.1381e-12
2.31322e-12
2.49928e-12
2.69662e-12
2.90558e-12
3.12646e-12
3.35951e-12
3.605e-12
3.86312e-12
4.13403e-12
4.41787e-12
4.71471e-12
5.02458e-12
5.34745e-12
5.68324e-12
6.03181e-12
6.39295e-12
6.76641e-12
7.15184e-12
7.54883e-12
7.95692e-12
8.37554e-12
8.80409e-12
9.24185e-12
9.68806e-12
1.01419e-11
1.06023e-11
1.10685e-11
1.15392e-11
1.20134e-11
1.24898e-11
1.29672e-11
1.34442e-11
1.39193e-11
1.43912e-11
1.48582e-11
1.53189e-11
1.57715e-11
1.62144e-11
1.66459e-11
1.70643e-11
1.74679e-11
1.78547e-11
1.82232e-11
1.85714e-11
1.88977e-11
1.92002e-11
1.94773e-11
1.97273e-11
1.99486e-11
2.01395e-11
2.02987e-11
2.04247e-11
2.05162e-11
2.05721e-11
2.05913e-11
2.05728e-11
2.0516e-11
2.04203e-11
2.02853e-11
2.01107e-11
1.98968e-11
1.96436e-11
1.93516e-11
1.90217e-11
1.86548e-11
1.8252e-11
1.7815e-11
1.73454e-11
1.68452e-11
1.63167e-11
1.57624e-11
1.51848e-11
1.4587e-11
1.39719e-11
1.33428e-11
1.2703e-11
1.20559e-11
1.14051e-11
1.07541e-11
1.01063e-11
9.46525e-12
8.83429e-12
8.21667e-12
7.61547e-12
7.0336e-12
6.47371e-12
5.93823e-12
5.42931e-12
4.94881e-12
4.49828e-12
4.07896e-12
3.69179e-12
3.33736e-12
3.016e-12
2.72769e-12
2.47214e-12
2.2488e-12
2.05685e-12
1.89521e-12
1.7626e-12
1.65753e-12
1.57831e-12
1.5231e-12
1.4899e-12
1.47657e-12
1.48085e-12
1.5004e-12
1.53277e-12
1.57549e-12
1.62604e-12
1.6819e-12
1.74055e-12
1.79958e-12
1.85664e-12
1.9095e-12
1.95614e-12
1.99472e-12
2.02364e-12
2.04161e-12
2.0476e-12
2.04093e-12
2.02124e-12
1.98853e-12
1.94311e-12
1.88561e-12
1.81693e-12
1.73826e-12
1.65094e-12
1.55652e-12
1.45662e-12
1.35292e-12
1.24711e-12
1.14081e-12
1.03555e-12
9.32715e-13
8.33539e-13
7.39055e-13
6.50099e-13
5.67297e-13
4.91078e-13
4.21676e-13
3.5915e-13
3.03405e-13
2.54215e-13
2.11248e-13
1.74093e-13
1.42283e-13
1.15315e-13
9.26761e-14
7.38556e-14
5.83603e-14
4.57252e-14
3.55209e-14
2.73583e-14
2.08909e-14
1.58152e-14
1.18694e-14
8.83091e-15
6.5132e-15
4.76192e-15
3.45109e-15
2.47917e-15
1.76529e-15
1.24589e-15
8.71523e-16
6.04237e-16
4.15195e-16
2.82751e-16
1.90838e-16
1.27656e-16
8.46436e-17
5.56525e-17
3.63221e-17
2.35977e-17
1.53722e-17
1.02233e-17
7.22583e-18
5.82431e-18
4.82528e-16
4.89344e-16
5.10292e-16
5.45694e-16
5.96229e-16
6.62932e-16
7.47207e-16
8.50847e-16
9.76071e-16
1.12555e-15
1.30248e-15
1.51058e-15
1.75423e-15
2.03847e-15
2.36916e-15
2.75301e-15
3.1977e-15
3.71203e-15
4.30603e-15
4.99112e-15
5.78026e-15
6.68814e-15
7.73143e-15
8.92891e-15
1.03018e-14
1.18741e-14
1.36725e-14
1.57275e-14
1.80727e-14
2.07462e-14
2.37903e-14
2.72524e-14
3.11853e-14
3.56475e-14
4.07043e-14
4.64278e-14
5.28982e-14
6.02037e-14
6.84418e-14
7.77199e-14
8.81559e-14
9.98791e-14
1.13031e-13
1.27767e-13
1.44255e-13
1.62679e-13
1.83239e-13
2.06151e-13
2.31648e-13
2.59982e-13
2.91426e-13
3.2627e-13
3.64827e-13
4.07431e-13
4.54437e-13
5.06224e-13
5.63194e-13
6.25769e-13
6.94398e-13
7.69551e-13
8.51721e-13
9.41422e-13
1.03919e-12
1.14558e-12
1.26117e-12
1.38655e-12
1.52233e-12
1.66913e-12
1.82757e-12
1.9983e-12
2.18196e-12
2.3792e-12
2.59064e-12
2.81693e-12
3.05868e-12
3.31649e-12
3.59095e-12
3.88261e-12
4.19198e-12
4.51955e-12
4.86575e-12
5.23097e-12
5.61553e-12
6.0197e-12
6.44367e-12
6.88757e-12
7.35142e-12
7.83519e-12
8.33873e-12
8.86182e-12
9.40411e-12
9.96517e-12
1.05445e-11
1.11413e-11
1.17549e-11
1.23845e-11
1.3029e-11
1.36872e-11
1.4358e-11
1.50401e-11
1.57319e-11
1.64319e-11
1.71384e-11
1.78497e-11
1.85638e-11
1.92788e-11
1.99927e-11
2.07033e-11
2.14084e-11
2.21057e-11
2.27929e-11
2.34676e-11
2.41274e-11
2.47699e-11
2.53926e-11
2.59929e-11
2.65684e-11
2.71167e-11
2.76352e-11
2.81216e-11
2.85735e-11
2.89886e-11
2.93647e-11
2.96995e-11
2.99911e-11
3.02375e-11
3.04369e-11
3.05876e-11
3.06882e-11
3.07372e-11
3.07335e-11
3.06762e-11
3.05645e-11
3.03979e-11
3.01762e-11
2.98993e-11
2.95676e-11
2.91816e-11
2.87421e-11
2.82502e-11
2.77076e-11
2.71158e-11
2.6477e-11
2.57936e-11
2.50682e-11
2.4304e-11
2.3504e-11
2.2672e-11
2.18117e-11
2.0927e-11
2.00223e-11
1.91019e-11
1.81703e-11
1.72321e-11
1.6292e-11
1.53545e-11
1.44243e-11
1.35058e-11
1.26035e-11
1.17215e-11
1.08639e-11
1.00342e-11
9.23588e-12
8.47206e-12
7.74541e-12
7.05825e-12
6.41252e-12
5.80974e-12
5.25103e-12
4.73709e-12
4.26822e-12
3.84437e-12
3.46507e-12
3.12954e-12
2.83665e-12
2.58499e-12
2.37287e-12
2.19833e-12
2.05922e-12
1.95317e-12
1.87762e-12
1.82989e-12
1.80715e-12
1.80645e-12
1.82476e-12
1.859e-12
1.90603e-12
1.96271e-12
2.02594e-12
2.09264e-12
2.15985e-12
2.22474e-12
2.28464e-12
2.33713e-12
2.38003e-12
2.41146e-12
2.42991e-12
2.43419e-12
2.42354e-12
2.39757e-12
2.35631e-12
2.30017e-12
2.22992e-12
2.14668e-12
2.05184e-12
1.94705e-12
1.83412e-12
1.71497e-12
1.5916e-12
1.46598e-12
1.34001e-12
1.21548e-12
1.094e-12
9.77008e-13
8.65687e-13
7.60999e-13
6.6366e-13
5.74149e-13
4.92721e-13
4.19425e-13
3.54132e-13
2.96562e-13
2.46314e-13
2.02893e-13
1.65741e-13
1.34267e-13
1.0786e-13
8.59197e-14
6.78657e-14
5.3152e-14
4.12748e-14
3.17784e-14
2.42577e-14
1.83579e-14
1.37733e-14
1.02443e-14
7.55339e-15
5.52086e-15
4.00004e-15
2.87277e-15
2.04505e-15
1.44299e-15
1.00917e-15
6.99519e-16
4.80568e-16
3.27207e-16
2.20801e-16
1.47673e-16
9.78995e-17
6.43578e-17
4.19972e-17
2.72806e-17
1.77687e-17
1.18153e-17
8.34995e-18
6.72977e-18
9.18436e-16
9.31399e-16
9.71254e-16
1.03861e-15
1.13477e-15
1.2617e-15
1.42206e-15
1.61928e-15
1.85757e-15
2.14202e-15
2.47869e-15
2.8747e-15
3.33834e-15
3.87925e-15
4.50853e-15
5.23895e-15
6.08514e-15
7.06383e-15
8.19408e-15
9.49761e-15
1.0999e-14
1.27263e-14
1.47111e-14
1.6989e-14
1.96004e-14
2.25907e-14
2.60109e-14
2.99183e-14
3.4377e-14
3.9459e-14
4.52445e-14
5.18232e-14
5.92946e-14
6.77698e-14
7.73716e-14
8.82365e-14
1.00515e-13
1.14374e-13
1.29996e-13
1.47584e-13
1.67358e-13
1.89561e-13
2.14457e-13
2.42337e-13
2.73515e-13
3.08333e-13
3.47161e-13
3.90401e-13
4.38485e-13
4.91879e-13
5.51083e-13
6.16632e-13
6.891e-13
7.69095e-13
8.57265e-13
9.54296e-13
1.06092e-12
1.17788e-12
1.30601e-12
1.44612e-12
1.5991e-12
1.76585e-12
1.94732e-12
2.14447e-12
2.35831e-12
2.58985e-12
2.84012e-12
3.11017e-12
3.40107e-12
3.71385e-12
4.04958e-12
4.40929e-12
4.79399e-12
5.20466e-12
5.64226e-12
6.10767e-12
6.60173e-12
7.12521e-12
7.6788e-12
8.26309e-12
8.87859e-12
9.52568e-12
1.02046e-11
1.09156e-11
1.16585e-11
1.24333e-11
1.32396e-11
1.4077e-11
1.49447e-11
1.5842e-11
1.67679e-11
1.77211e-11
1.87002e-11
1.97037e-11
2.07299e-11
2.17766e-11
2.28418e-11
2.39232e-11
2.50182e-11
2.61241e-11
2.72381e-11
2.83573e-11
2.94783e-11
3.05981e-11
3.17131e-11
3.28199e-11
3.39149e-11
3.49945e-11
3.60548e-11
3.70922e-11
3.81029e-11
3.9083e-11
4.00287e-11
4.09363e-11
4.18021e-11
4.26224e-11
4.33936e-11
4.41122e-11
4.47748e-11
4.53783e-11
4.59195e-11
4.63956e-11
4.68036e-11
4.71413e-11
4.74061e-11
4.75961e-11
4.77094e-11
4.77444e-11
4.76999e-11
4.7575e-11
4.73689e-11
4.70814e-11
4.67124e-11
4.62623e-11
4.5732e-11
4.51225e-11
4.44353e-11
4.36723e-11
4.2836e-11
4.19289e-11
4.09542e-11
3.99155e-11
3.88166e-11
3.76618e-11
3.64557e-11
3.52034e-11
3.39102e-11
3.25815e-11
3.12234e-11
2.98417e-11
2.84428e-11
2.7033e-11
2.56186e-11
2.42061e-11
2.2802e-11
2.14124e-11
2.00435e-11
1.87012e-11
1.73911e-11
1.61185e-11
1.48884e-11
1.37052e-11
1.2573e-11
1.14953e-11
1.04752e-11
9.51497e-12
8.61669e-12
7.78166e-12
7.01069e-12
6.30407e-12
5.66154e-12
5.08238e-12
4.56537e-12
4.1089e-12
3.71095e-12
3.36915e-12
3.08081e-12
2.84296e-12
2.65238e-12
2.50566e-12
2.39918e-12
2.32919e-12
2.2918e-12
2.28305e-12
2.2989e-12
2.33527e-12
2.38807e-12
2.45324e-12
2.52679e-12
2.60483e-12
2.6836e-12
2.75956e-12
2.82941e-12
2.89014e-12
2.93907e-12
2.97392e-12
2.99285e-12
2.99446e-12
2.97784e-12
2.94259e-12
2.88878e-12
2.81696e-12
2.72812e-12
2.62367e-12
2.50534e-12
2.37516e-12
2.23536e-12
2.08831e-12
1.93643e-12
1.78211e-12
1.62767e-12
1.47525e-12
1.32681e-12
1.18405e-12
1.04839e-12
9.20978e-13
8.02642e-13
6.93938e-13
5.95149e-13
5.0631e-13
4.27243e-13
3.57586e-13
2.96836e-13
2.4438e-13
1.9953e-13
1.6156e-13
1.29724e-13
1.03289e-13
8.15494e-14
6.38418e-14
4.95557e-14
3.81391e-14
2.91021e-14
2.2016e-14
1.65121e-14
1.22772e-14
9.04945e-15
6.61232e-15
4.78941e-15
3.43871e-15
2.44727e-15
1.72635e-15
1.20705e-15
8.36481e-16
5.74531e-16
3.91101e-16
2.63863e-16
1.76439e-16
1.16948e-16
7.68663e-17
5.01512e-17
3.25719e-17
2.12117e-17
1.41025e-17
9.96476e-18
8.03042e-18
1.7358e-15
1.7603e-15
1.83561e-15
1.9629e-15
2.14461e-15
2.38447e-15
2.68752e-15
3.06023e-15
3.51057e-15
4.04817e-15
4.68447e-15
5.43293e-15
6.30924e-15
7.33159e-15
8.52099e-15
9.90156e-15
1.1501e-14
1.33508e-14
1.54871e-14
1.79509e-14
2.07887e-14
2.40533e-14
2.78043e-14
3.21092e-14
3.70441e-14
4.26945e-14
4.91568e-14
5.65388e-14
6.49616e-14
7.45605e-14
8.54868e-14
9.79089e-14
1.12014e-13
1.28011e-13
1.46131e-13
1.66629e-13
1.89789e-13
2.15921e-13
2.45369e-13
2.7851e-13
3.15758e-13
3.57563e-13
4.0442e-13
4.56867e-13
5.15489e-13
5.80918e-13
6.53843e-13
7.35002e-13
8.25195e-13
9.25277e-13
1.03617e-12
1.15884e-12
1.29435e-12
1.4438e-12
1.60837e-12
1.7893e-12
1.9879e-12
2.20553e-12
2.44363e-12
2.7037e-12
2.98727e-12
3.29596e-12
3.63141e-12
3.9953e-12
4.38937e-12
4.81534e-12
5.27498e-12
5.77006e-12
6.30233e-12
6.87352e-12
7.48534e-12
8.13944e-12
8.8374e-12
9.58075e-12
1.03709e-11
1.12091e-11
1.20965e-11
1.30342e-11
1.40229e-11
1.50634e-11
1.61559e-11
1.73009e-11
1.84982e-11
1.97475e-11
2.10482e-11
2.23996e-11
2.38004e-11
2.52492e-11
2.67442e-11
2.82834e-11
2.98642e-11
3.14839e-11
3.31395e-11
3.48276e-11
3.65444e-11
3.82859e-11
4.00478e-11
4.18256e-11
4.36143e-11
4.5409e-11
4.72042e-11
4.89944e-11
5.07741e-11
5.25374e-11
5.42782e-11
5.59907e-11
5.76687e-11
5.93061e-11
6.08969e-11
6.24348e-11
6.3914e-11
6.53284e-11
6.66725e-11
6.79404e-11
6.91268e-11
7.02264e-11
7.12343e-11
7.21458e-11
7.29563e-11
7.36619e-11
7.42586e-11
7.47432e-11
7.51126e-11
7.53641e-11
7.54956e-11
7.55051e-11
7.53915e-11
7.51538e-11
7.47917e-11
7.43052e-11
7.3695e-11
7.29621e-11
7.21083e-11
7.11357e-11
7.0047e-11
6.88454e-11
6.75347e-11
6.61193e-11
6.4604e-11
6.29941e-11
6.12955e-11
5.95146e-11
5.76581e-11
5.57334e-11
5.37481e-11
5.17102e-11
4.96281e-11
4.75103e-11
4.53658e-11
4.32035e-11
4.10325e-11
3.8862e-11
3.6701e-11
3.45585e-11
3.24433e-11
3.03639e-11
2.83283e-11
2.63444e-11
2.44194e-11
2.25599e-11
2.07721e-11
1.90613e-11
1.74323e-11
1.5889e-11
1.44346e-11
1.30717e-11
1.18018e-11
1.06258e-11
9.544e-12
8.55577e-12
7.65992e-12
6.8546e-12
6.13739e-12
5.50532e-12
4.95497e-12
4.4825e-12
4.08369e-12
3.75403e-12
3.48873e-12
3.28281e-12
3.13108e-12
3.02824e-12
2.96889e-12
2.94756e-12
2.95877e-12
2.99701e-12
3.05686e-12
3.13293e-12
3.22001e-12
3.31303e-12
3.40716e-12
3.49784e-12
3.58088e-12
3.65246e-12
3.70923e-12
3.74834e-12
3.76752e-12
3.76506e-12
3.73988e-12
3.69151e-12
3.62012e-12
3.52645e-12
3.41181e-12
3.27798e-12
3.12718e-12
2.96196e-12
2.78514e-12
2.59967e-12
2.40857e-12
2.21481e-12
2.02126e-12
1.83058e-12
1.64516e-12
1.46708e-12
1.29808e-12
1.13954e-12
9.92467e-13
8.57506e-13
7.34975e-13
6.24889e-13
5.26997e-13
4.40828e-13
3.65737e-13
3.00946e-13
2.45591e-13
1.98757e-13
1.59516e-13
1.26952e-13
1.00188e-13
7.83998e-14
6.0831e-14
4.67984e-14
3.5696e-14
2.69945e-14
2.02389e-14
1.50432e-14
1.10846e-14
8.09686e-15
5.86295e-15
4.2083e-15
2.99415e-15
2.11158e-15
1.47603e-15
1.02264e-15
7.02233e-16
4.77928e-16
3.22375e-16
2.15522e-16
1.42827e-16
9.38588e-17
6.12274e-17
3.9759e-17
2.58879e-17
1.72086e-17
1.21577e-17
9.79661e-18
3.24746e-15
3.29328e-15
3.43418e-15
3.67234e-15
4.01233e-15
4.46111e-15
5.02816e-15
5.72555e-15
6.56823e-15
7.57423e-15
8.76496e-15
1.01656e-14
1.18056e-14
1.3719e-14
1.5945e-14
1.8529e-14
2.15226e-14
2.4985e-14
2.89837e-14
3.35953e-14
3.8907e-14
4.50176e-14
5.20386e-14
6.00962e-14
6.93326e-14
7.99078e-14
9.20017e-14
1.05816e-13
1.21577e-13
1.39537e-13
1.59978e-13
1.83214e-13
2.09595e-13
2.3951e-13
2.73388e-13
3.11705e-13
3.54986e-13
4.03811e-13
4.58816e-13
5.207e-13
5.90228e-13
6.68237e-13
7.55639e-13
8.53427e-13
9.62676e-13
1.08455e-12
1.22032e-12
1.37134e-12
1.53906e-12
1.72505e-12
1.93098e-12
2.15864e-12
2.40991e-12
2.68681e-12
2.99146e-12
3.32607e-12
3.693e-12
4.09468e-12
4.53366e-12
5.01258e-12
5.53416e-12
6.1012e-12
6.71657e-12
7.38316e-12
8.10395e-12
8.88188e-12
9.71992e-12
1.0621e-11
1.15881e-11
1.26239e-11
1.37311e-11
1.49125e-11
1.61704e-11
1.7507e-11
1.89244e-11
2.04244e-11
2.20084e-11
2.36775e-11
2.54327e-11
2.72744e-11
2.92025e-11
3.12166e-11
3.33158e-11
3.54988e-11
3.77636e-11
4.01079e-11
4.25285e-11
4.50219e-11
4.75842e-11
5.02105e-11
5.28957e-11
5.5634e-11
5.8419e-11
6.12439e-11
6.41015e-11
6.69838e-11
6.98827e-11
7.27895e-11
7.56952e-11
7.85905e-11
8.14659e-11
8.43115e-11
8.71175e-11
8.98738e-11
9.25702e-11
9.51968e-11
9.77434e-11
1.002e-10
1.02557e-10
1.04806e-10
1.06936e-10
1.08938e-10
1.10806e-10
1.12529e-10
1.14101e-10
1.15515e-10
1.16764e-10
1.17842e-10
1.18744e-10
1.19465e-10
1.20001e-10
1.20349e-10
1.20506e-10
1.20469e-10
1.20239e-10
1.19814e-10
1.19195e-10
1.18383e-10
1.17379e-10
1.16186e-10
1.14807e-10
1.13247e-10
1.1151e-10
1.09602e-10
1.07529e-10
1.05298e-10
1.02917e-10
1.00395e-10
9.7739e-11
9.49604e-11
9.2069e-11
8.90757e-11
8.59917e-11
8.2829e-11
7.95996e-11
7.63161e-11
7.29914e-11
6.96385e-11
6.62704e-11
6.29005e-11
5.95416e-11
5.62069e-11
5.2909e-11
4.96602e-11
4.64724e-11
4.3357e-11
4.03247e-11
3.73854e-11
3.45483e-11
3.18216e-11
2.92128e-11
2.6728e-11
2.43726e-11
2.21508e-11
2.00656e-11
1.81192e-11
1.63124e-11
1.46453e-11
1.31167e-11
1.17247e-11
1.04664e-11
9.33813e-12
8.33549e-12
7.45345e-12
6.6864e-12
6.02825e-12
5.47253e-12
5.01239e-12
4.64076e-12
4.35035e-12
4.13372e-12
3.98335e-12
3.89166e-12
3.85107e-12
3.85405e-12
3.89313e-12
3.96097e-12
4.05041e-12
4.15452e-12
4.26662e-12
4.38041e-12
4.48996e-12
4.58986e-12
4.67522e-12
4.74176e-12
4.78588e-12
4.80472e-12
4.79618e-12
4.75893e-12
4.69247e-12
4.59706e-12
4.47372e-12
4.32415e-12
4.15069e-12
3.95619e-12
3.74391e-12
3.51742e-12
3.28048e-12
3.03689e-12
2.79042e-12
2.54464e-12
2.30289e-12
2.06815e-12
1.84301e-12
1.62961e-12
1.42964e-12
1.24434e-12
1.07447e-12
9.20384e-13
7.82075e-13
6.5919e-13
5.51108e-13
4.56993e-13
3.75845e-13
3.06563e-13
2.47984e-13
1.98933e-13
1.58252e-13
1.24836e-13
9.76477e-14
7.57356e-14
5.82426e-14
4.44088e-14
3.35716e-14
2.51614e-14
1.86959e-14
1.37718e-14
1.00567e-14
7.27998e-15
5.22396e-15
3.7158e-15
2.61985e-15
1.83087e-15
1.26819e-15
8.70659e-16
5.9243e-16
3.9953e-16
2.67053e-16
1.76943e-16
1.16259e-16
7.58268e-17
4.92314e-17
3.20504e-17
2.13017e-17
1.50471e-17
1.21237e-17
6.00973e-15
6.09457e-15
6.35539e-15
6.79623e-15
7.42558e-15
8.25634e-15
9.30604e-15
1.05971e-14
1.21572e-14
1.40197e-14
1.62244e-14
1.88179e-14
2.18547e-14
2.53979e-14
2.95204e-14
3.43059e-14
3.98502e-14
4.62632e-14
5.36696e-14
6.22117e-14
7.20509e-14
8.33699e-14
9.63756e-14
1.11302e-13
1.28411e-13
1.48e-13
1.70402e-13
1.95989e-13
2.25181e-13
2.58443e-13
2.96297e-13
3.39324e-13
3.8817e-13
4.43549e-13
5.06256e-13
5.77168e-13
6.57253e-13
7.47575e-13
8.49306e-13
9.6373e-13
1.09225e-12
1.2364e-12
1.39786e-12
1.57843e-12
1.78008e-12
2.00494e-12
2.25532e-12
2.53366e-12
2.84263e-12
3.18505e-12
3.56395e-12
3.98254e-12
4.44422e-12
4.95259e-12
5.51144e-12
6.12475e-12
6.79665e-12
7.53149e-12
8.33374e-12
9.20802e-12
1.01591e-11
1.11918e-11
1.23111e-11
1.35219e-11
1.48293e-11
1.62383e-11
1.77538e-11
1.93806e-11
2.11235e-11
2.2987e-11
2.49752e-11
2.70923e-11
2.93418e-11
3.1727e-11
3.42506e-11
3.69148e-11
3.97213e-11
4.2671e-11
4.57644e-11
4.90009e-11
5.23794e-11
5.58977e-11
5.9553e-11
6.33412e-11
6.72577e-11
7.12966e-11
7.54512e-11
7.97138e-11
8.40756e-11
8.85271e-11
9.30575e-11
9.76554e-11
1.02308e-10
1.07003e-10
1.11726e-10
1.16463e-10
1.21197e-10
1.25914e-10
1.30597e-10
1.3523e-10
1.39796e-10
1.44278e-10
1.48659e-10
1.52922e-10
1.5705e-10
1.61028e-10
1.64838e-10
1.68466e-10
1.71897e-10
1.75115e-10
1.78108e-10
1.80862e-10
1.83366e-10
1.85608e-10
1.8758e-10
1.89271e-10
1.90674e-10
1.91783e-10
1.92591e-10
1.93095e-10
1.93292e-10
1.93179e-10
1.92757e-10
1.92024e-10
1.90984e-10
1.8964e-10
1.87994e-10
1.86053e-10
1.83823e-10
1.81311e-10
1.78526e-10
1.75477e-10
1.72176e-10
1.68634e-10
1.64863e-10
1.60877e-10
1.5669e-10
1.52318e-10
1.47775e-10
1.4308e-10
1.38248e-10
1.33298e-10
1.28248e-10
1.23116e-10
1.17922e-10
1.12684e-10
1.07421e-10
1.02154e-10
9.69002e-11
9.16794e-11
8.651e-11
8.14098e-11
7.63963e-11
7.14862e-11
6.66953e-11
6.20384e-11
5.75292e-11
5.31803e-11
4.90029e-11
4.50069e-11
4.12006e-11
3.75912e-11
3.41839e-11
3.09827e-11
2.799e-11
2.52066e-11
2.2632e-11
2.02643e-11
1.81002e-11
1.61351e-11
1.43636e-11
1.27789e-11
1.13737e-11
1.01396e-11
9.06767e-12
8.14856e-12
7.37234e-12
6.7288e-12
6.20751e-12
5.79786e-12
5.48919e-12
5.27081e-12
5.13209e-12
5.06248e-12
5.0516e-12
5.08926e-12
5.16552e-12
5.27074e-12
5.39568e-12
5.53149e-12
5.66987e-12
5.80307e-12
5.92403e-12
6.02643e-12
6.10478e-12
6.15449e-12
6.17192e-12
6.15444e-12
6.10044e-12
6.00933e-12
5.88156e-12
5.71848e-12
5.52237e-12
5.29624e-12
5.04379e-12
4.76924e-12
4.47715e-12
4.17232e-12
3.8596e-12
3.54375e-12
3.22932e-12
2.92049e-12
2.62103e-12
2.33417e-12
2.06258e-12
1.80837e-12
1.57303e-12
1.3575e-12
1.16217e-12
9.86987e-13
8.31463e-13
6.94778e-13
5.7584e-13
4.73361e-13
3.85922e-13
3.12039e-13
2.50208e-13
1.98958e-13
1.56883e-13
1.22667e-13
9.51045e-14
7.31111e-14
5.57261e-14
4.21129e-14
3.15527e-14
2.34375e-14
1.72594e-14
1.25999e-14
9.11845e-15
6.54147e-15
4.65177e-15
3.27896e-15
2.29095e-15
1.58653e-15
1.08898e-15
7.40833e-16
4.99516e-16
3.33824e-16
2.21146e-16
1.45277e-16
9.47382e-17
6.15003e-17
4.00315e-17
2.66021e-17
1.87886e-17
1.51368e-17
1.09993e-14
1.11547e-14
1.16323e-14
1.24395e-14
1.35919e-14
1.51132e-14
1.70354e-14
1.93998e-14
2.22569e-14
2.56682e-14
2.97064e-14
3.44572e-14
4.00203e-14
4.65115e-14
5.40646e-14
6.28329e-14
7.29924e-14
8.47443e-14
9.83176e-14
1.13973e-13
1.32006e-13
1.52753e-13
1.76592e-13
2.03952e-13
2.35315e-13
2.71224e-13
3.12288e-13
3.59192e-13
4.12701e-13
4.7367e-13
5.43053e-13
6.21912e-13
7.11427e-13
8.12907e-13
9.27803e-13
1.05771e-12
1.20441e-12
1.36982e-12
1.5561e-12
1.76557e-12
2.00078e-12
2.26454e-12
2.55986e-12
2.89003e-12
3.25863e-12
3.6695e-12
4.12677e-12
4.6349e-12
5.19865e-12
5.82311e-12
6.51369e-12
7.27614e-12
8.11653e-12
9.04125e-12
1.0057e-11
1.11709e-11
1.23901e-11
1.37224e-11
1.51754e-11
1.67573e-11
1.84763e-11
2.03407e-11
2.2359e-11
2.45396e-11
2.6891e-11
2.94214e-11
3.21391e-11
3.50519e-11
3.81674e-11
4.14925e-11
4.50341e-11
4.87978e-11
5.27891e-11
5.70121e-11
6.14704e-11
6.61664e-11
7.11012e-11
7.62749e-11
8.16861e-11
8.73322e-11
9.32088e-11
9.93101e-11
1.05629e-10
1.12156e-10
1.1888e-10
1.2579e-10
1.3287e-10
1.40106e-10
1.47479e-10
1.5497e-10
1.62559e-10
1.70224e-10
1.77942e-10
1.85687e-10
1.93434e-10
2.01156e-10
2.08827e-10
2.16418e-10
2.239e-10
2.31245e-10
2.38424e-10
2.45409e-10
2.52172e-10
2.58684e-10
2.64919e-10
2.7085e-10
2.76453e-10
2.81704e-10
2.8658e-10
2.9106e-10
2.95126e-10
2.98759e-10
3.01944e-10
3.04667e-10
3.06917e-10
3.08682e-10
3.09957e-10
3.10735e-10
3.11012e-10
3.10788e-10
3.10062e-10
3.08838e-10
3.0712e-10
3.04914e-10
3.02229e-10
2.99076e-10
2.95466e-10
2.91412e-10
2.86931e-10
2.82039e-10
2.76754e-10
2.71096e-10
2.65086e-10
2.58745e-10
2.52098e-10
2.45167e-10
2.37979e-10
2.30559e-10
2.22934e-10
2.15131e-10
2.07177e-10
1.99102e-10
1.90932e-10
1.82697e-10
1.74426e-10
1.66146e-10
1.57885e-10
1.49673e-10
1.41534e-10
1.33497e-10
1.25587e-10
1.17827e-10
1.10242e-10
1.02853e-10
9.56814e-11
8.8745e-11
8.20613e-11
7.56453e-11
6.95102e-11
6.36672e-11
5.81253e-11
5.28913e-11
4.79699e-11
4.33637e-11
3.90731e-11
3.50965e-11
3.14305e-11
2.80696e-11
2.50069e-11
2.22336e-11
1.97399e-11
1.75144e-11
1.55448e-11
1.3818e-11
1.23201e-11
1.10366e-11
9.95257e-12
9.05296e-12
8.32244e-12
7.74569e-12
7.30742e-12
6.9925e-12
6.78599e-12
6.67325e-12
6.63994e-12
6.67213e-12
6.75632e-12
6.87954e-12
7.02939e-12
7.19413e-12
7.36275e-12
7.5251e-12
7.67194e-12
7.79506e-12
7.88737e-12
7.94296e-12
7.95721e-12
7.92679e-12
7.84973e-12
7.72538e-12
7.55437e-12
7.33856e-12
7.08093e-12
6.78544e-12
6.45689e-12
6.1007e-12
5.72276e-12
5.32923e-12
4.92629e-12
4.52002e-12
4.11619e-12
3.72011e-12
3.33653e-12
2.96952e-12
2.62243e-12
2.29788e-12
1.9977e-12
1.72302e-12
1.47431e-12
1.25143e-12
1.0537e-12
8.80053e-13
7.29052e-13
5.99032e-13
4.88163e-13
3.94537e-13
3.16228e-13
2.51355e-13
1.98122e-13
1.54853e-13
1.20016e-13
9.22293e-14
7.02748e-14
5.30903e-14
3.97651e-14
2.95289e-14
2.17389e-14
1.58657e-14
1.14788e-14
8.23271e-15
5.85302e-15
4.12474e-15
2.88125e-15
1.9949e-15
1.369e-15
9.31154e-16
6.27726e-16
4.19433e-16
2.77812e-16
1.82474e-16
1.18977e-16
7.72235e-17
5.02587e-17
3.33935e-17
2.3582e-17
1.89968e-17
1.99096e-14
2.01912e-14
2.10564e-14
2.25185e-14
2.46059e-14
2.73614e-14
3.08435e-14
3.51267e-14
4.03031e-14
4.64838e-14
5.38009e-14
6.24098e-14
7.24918e-14
8.42569e-14
9.79476e-14
1.13843e-13
1.32261e-13
1.53568e-13
1.7818e-13
2.06569e-13
2.39273e-13
2.76901e-13
3.20139e-13
3.69766e-13
4.26657e-13
4.91796e-13
5.6629e-13
6.5138e-13
7.48452e-13
8.59058e-13
9.84925e-13
1.12798e-12
1.29036e-12
1.47443e-12
1.68281e-12
1.91841e-12
2.18441e-12
2.48433e-12
2.822e-12
3.20166e-12
3.6279e-12
4.10574e-12
4.64063e-12
5.23848e-12
5.9057e-12
6.64916e-12
7.47629e-12
8.39504e-12
9.41391e-12
1.0542e-11
1.17888e-11
1.31646e-11
1.46801e-11
1.63467e-11
1.81761e-11
2.01806e-11
2.23731e-11
2.47667e-11
2.73751e-11
3.02121e-11
3.32918e-11
3.66285e-11
4.02364e-11
4.41299e-11
4.8323e-11
5.28294e-11
5.76624e-11
6.28346e-11
6.83581e-11
7.42437e-11
8.05013e-11
8.71394e-11
9.41653e-11
1.01584e-10
1.094e-10
1.17614e-10
1.26226e-10
1.35232e-10
1.44628e-10
1.54405e-10
1.64552e-10
1.75056e-10
1.85901e-10
1.97066e-10
2.0853e-10
2.20267e-10
2.32249e-10
2.44444e-10
2.56818e-10
2.69336e-10
2.81958e-10
2.94644e-10
3.07349e-10
3.2003e-10
3.3264e-10
3.45132e-10
3.57457e-10
3.69567e-10
3.81412e-10
3.92945e-10
4.04116e-10
4.14879e-10
4.25188e-10
4.34998e-10
4.44266e-10
4.52953e-10
4.6102e-10
4.68433e-10
4.75158e-10
4.81168e-10
4.86435e-10
4.90939e-10
4.94659e-10
4.97581e-10
4.99693e-10
5.00988e-10
5.01461e-10
5.01112e-10
4.99944e-10
4.97964e-10
4.9518e-10
4.91607e-10
4.87261e-10
4.82161e-10
4.76329e-10
4.69789e-10
4.6257e-10
4.54699e-10
4.4621e-10
4.37134e-10
4.27509e-10
4.17369e-10
4.06754e-10
3.95704e-10
3.84258e-10
3.72458e-10
3.60346e-10
3.47965e-10
3.35359e-10
3.22569e-10
3.09641e-10
2.96618e-10
2.83541e-10
2.70455e-10
2.57401e-10
2.44421e-10