/*--------------------------------*- C++ -*----------------------------------*\
| =========                 |                                                 |
| \\      /  F ield         | OpenFOAM: The Open Source CFD Toolbox           |
|  \\    /   O peration     | Version:  v2012                                 |
|   \\  /    A nd           | Website:  www.openfoam.com                      |
|    \\/     M anipulation  |                                                 |
\*---------------------------------------------------------------------------*/
FoamFile
{
    version     2.0;
    format      ascii;
    class       volVectorField;
    location    "70";
    object      Usup;
}
// * * * * * * * * * * * * * * * * * * * * * * * * * * * * * * * * * * * * * //

dimensions      [0 1 -1 0 0 0 0];


internalField   nonuniform List<vector> 
4000
(
(-3.53468e-16 1.10082e-16 0)
(-9.71431e-16 4.96504e-16 0)
(-1.5179e-15 9.80703e-16 0)
(-2.08074e-15 8.20941e-16 0)
(-2.4931e-15 8.46118e-16 0)
(-2.98694e-15 6.04097e-16 0)
(-3.64482e-15 8.12694e-16 0)
(-4.06212e-15 1.08793e-15 0)
(-4.15543e-15 1.17055e-15 0)
(-4.06376e-15 1.01129e-15 0)
(-4.12139e-15 9.5251e-16 0)
(-4.61728e-15 1.04721e-15 0)
(-5.19623e-15 1.20966e-15 0)
(-5.9146e-15 1.38138e-15 0)
(-6.15607e-15 1.86267e-15 0)
(-5.35562e-15 2.27132e-15 0)
(-4.46613e-15 1.91541e-15 0)
(-4.39819e-15 9.75108e-16 0)
(-5.16762e-15 6.30641e-16 0)
(-5.78343e-15 6.63912e-16 0)
(-5.5237e-15 1.01781e-15 0)
(-4.73619e-15 8.80644e-16 0)
(-3.7777e-15 5.52566e-16 0)
(-2.96796e-15 7.74525e-16 0)
(-2.7228e-15 8.57141e-16 0)
(-2.2899e-15 8.69525e-16 0)
(-1.95273e-15 5.93075e-16 0)
(-2.10491e-15 6.25483e-16 0)
(-2.04696e-15 5.52798e-16 0)
(-1.89894e-15 7.75937e-16 0)
(-1.08995e-15 1.61303e-15 0)
(1.76497e-16 1.51827e-15 0)
(5.99195e-16 8.47987e-16 0)
(4.21853e-16 8.60484e-16 0)
(4.2726e-16 1.0105e-15 0)
(1.23776e-16 8.23105e-16 0)
(-6.16837e-17 1.10409e-15 0)
(5.6792e-16 1.29576e-15 0)
(1.32474e-15 1.10662e-15 0)
(1.90708e-15 1.05337e-15 0)
(2.57774e-15 1.02625e-15 0)
(2.74643e-15 7.53995e-16 0)
(2.47067e-15 6.9092e-16 0)
(2.62491e-15 4.2851e-16 0)
(2.72808e-15 2.28109e-16 0)
(2.48775e-15 8.58252e-17 0)
(2.46248e-15 2.86939e-16 0)
(2.70884e-15 6.35432e-16 0)
(3.11425e-15 7.45724e-16 0)
(3.2118e-15 2.58829e-16 0)
(3.32367e-15 1.33241e-16 0)
(3.6234e-15 1.70867e-16 0)
(3.38638e-15 2.9197e-16 0)
(3.17497e-15 2.19122e-16 0)
(3.01458e-15 3.88489e-17 0)
(2.70687e-15 7.60284e-18 0)
(2.45766e-15 -2.83376e-16 0)
(2.6997e-15 -5.20709e-16 0)
(3.32034e-15 -9.70588e-16 0)
(3.39324e-15 -9.69276e-16 0)
(2.93686e-15 -7.32217e-16 0)
(2.53991e-15 -5.20181e-16 0)
(2.53902e-15 -1.23256e-16 0)
(2.56837e-15 -3.48681e-16 0)
(2.57138e-15 -7.16387e-16 0)
(2.94599e-15 -7.28381e-16 0)
(3.04345e-15 -9.67497e-16 0)
(2.47276e-15 -8.9891e-16 0)
(2.46758e-15 -3.98797e-16 0)
(2.89751e-15 -3.31483e-16 0)
(2.93544e-15 -3.96135e-16 0)
(3.32708e-15 -4.02448e-16 0)
(3.72486e-15 -5.57304e-16 0)
(3.91169e-15 -5.96873e-16 0)
(4.00484e-15 -8.53461e-16 0)
(3.88779e-15 -1.17071e-15 0)
(3.60703e-15 -1.26267e-15 0)
(3.14342e-15 -1.46432e-15 0)
(2.54454e-15 -1.45671e-15 0)
(2.34909e-15 -1.2946e-15 0)
(2.64577e-15 -1.25032e-15 0)
(2.73336e-15 -1.37145e-15 0)
(2.46709e-15 -1.5804e-15 0)
(2.28582e-15 -1.5646e-15 0)
(2.566e-15 -1.30657e-15 0)
(3.31996e-15 -1.06529e-15 0)
(3.97116e-15 -1.28767e-15 0)
(3.855e-15 -1.42302e-15 0)
(3.3346e-15 -1.46824e-15 0)
(2.84949e-15 -1.25766e-15 0)
(2.4673e-15 -8.4291e-16 0)
(2.43518e-15 -4.85791e-16 0)
(2.33345e-15 -3.56199e-16 0)
(2.23967e-15 -6.01675e-16 0)
(2.38997e-15 -9.40796e-16 0)
(1.74061e-15 -9.53338e-16 0)
(9.00792e-16 -6.2094e-16 0)
(7.15646e-16 -3.18286e-16 0)
(4.96457e-16 -6.03941e-17 0)
(1.99843e-16 5.5984e-17 0)
(-8.82201e-16 5.5696e-16 0)
(-2.45198e-15 1.60275e-15 0)
(-4.37337e-15 2.33268e-15 0)
(-6.20893e-15 2.35991e-15 0)
(-7.50937e-15 2.2978e-15 0)
(-8.74256e-15 2.33281e-15 0)
(-9.95915e-15 2.69741e-15 0)
(-1.11525e-14 3.09037e-15 0)
(-1.18966e-14 3.33206e-15 0)
(-1.20511e-14 3.28054e-15 0)
(-1.22187e-14 3.09205e-15 0)
(-1.32397e-14 3.33202e-15 0)
(-1.45885e-14 3.59143e-15 0)
(-1.5878e-14 4.23355e-15 0)
(-1.61493e-14 5.32364e-15 0)
(-1.52103e-14 5.99045e-15 0)
(-1.4434e-14 5.02796e-15 0)
(-1.42274e-14 3.09869e-15 0)
(-1.49042e-14 2.18922e-15 0)
(-1.54796e-14 2.1386e-15 0)
(-1.49572e-14 2.86353e-15 0)
(-1.36061e-14 2.80218e-15 0)
(-1.10491e-14 2.39125e-15 0)
(-8.74837e-15 2.37099e-15 0)
(-7.92897e-15 2.53743e-15 0)
(-7.04913e-15 2.55634e-15 0)
(-6.15792e-15 2.13387e-15 0)
(-5.99619e-15 2.19246e-15 0)
(-5.50087e-15 2.29369e-15 0)
(-4.13678e-15 2.59635e-15 0)
(-2.38803e-15 3.7773e-15 0)
(-7.38745e-16 3.97836e-15 0)
(5.43283e-16 3.12195e-15 0)
(1.10758e-15 3.04746e-15 0)
(1.03204e-15 3.2256e-15 0)
(6.92031e-16 2.66562e-15 0)
(8.69413e-16 2.91124e-15 0)
(1.96216e-15 3.41176e-15 0)
(3.59881e-15 3.31803e-15 0)
(5.27187e-15 3.06781e-15 0)
(6.67369e-15 3.0304e-15 0)
(7.20669e-15 2.39472e-15 0)
(6.91233e-15 1.93794e-15 0)
(7.13594e-15 1.2967e-15 0)
(7.44418e-15 7.07583e-16 0)
(7.38758e-15 7.44434e-16 0)
(7.78367e-15 1.04159e-15 0)
(8.297e-15 1.51899e-15 0)
(8.55664e-15 1.84448e-15 0)
(8.74057e-15 1.20076e-15 0)
(9.45716e-15 8.53774e-16 0)
(1.01783e-14 5.10062e-16 0)
(9.67446e-15 6.64065e-16 0)
(8.96684e-15 4.57951e-16 0)
(8.55741e-15 1.295e-16 0)
(7.8139e-15 -3.87016e-16 0)
(7.1996e-15 -9.6731e-16 0)
(7.57746e-15 -1.4368e-15 0)
(8.90891e-15 -2.00943e-15 0)
(9.56243e-15 -2.37685e-15 0)
(8.83352e-15 -2.1786e-15 0)
(8.12463e-15 -2.03471e-15 0)
(7.69428e-15 -1.48761e-15 0)
(7.17238e-15 -1.69296e-15 0)
(7.41076e-15 -1.97156e-15 0)
(8.19309e-15 -1.87727e-15 0)
(8.4093e-15 -2.43342e-15 0)
(7.98587e-15 -2.47985e-15 0)
(7.99303e-15 -1.60166e-15 0)
(8.41357e-15 -1.49221e-15 0)
(8.66502e-15 -1.38002e-15 0)
(9.49357e-15 -1.15293e-15 0)
(1.03749e-14 -1.67441e-15 0)
(1.07831e-14 -1.97168e-15 0)
(1.07697e-14 -2.56377e-15 0)
(1.0593e-14 -3.16309e-15 0)
(9.96609e-15 -3.67353e-15 0)
(8.93011e-15 -4.3403e-15 0)
(7.89488e-15 -4.31865e-15 0)
(7.41631e-15 -3.97014e-15 0)
(7.63694e-15 -3.81999e-15 0)
(7.57295e-15 -4.22328e-15 0)
(7.19948e-15 -4.63532e-15 0)
(7.28193e-15 -4.56422e-15 0)
(8.12447e-15 -4.07033e-15 0)
(9.34528e-15 -3.34692e-15 0)
(1.03805e-14 -3.62347e-15 0)
(1.03142e-14 -4.047e-15 0)
(9.45752e-15 -4.02743e-15 0)
(8.63786e-15 -3.54848e-15 0)
(7.80435e-15 -2.7102e-15 0)
(7.28999e-15 -1.9064e-15 0)
(6.48625e-15 -1.69161e-15 0)
(5.79563e-15 -2.00928e-15 0)
(5.88945e-15 -2.5789e-15 0)
(4.8646e-15 -2.67255e-15 0)
(3.19688e-15 -1.98536e-15 0)
(2.35655e-15 -1.10083e-15 0)
(1.48896e-15 -1.26289e-16 0)
(4.18173e-16 8.17389e-17 0)
(-1.40053e-15 1.10463e-15 0)
(-4.17838e-15 2.69628e-15 0)
(-7.2281e-15 3.54906e-15 0)
(-1.00908e-14 3.92761e-15 0)
(-1.20721e-14 3.65656e-15 0)
(-1.38774e-14 4.22862e-15 0)
(-1.59466e-14 5.01152e-15 0)
(-1.77222e-14 5.29678e-15 0)
(-1.88613e-14 5.43415e-15 0)
(-1.95104e-14 5.4275e-15 0)
(-2.00006e-14 5.42295e-15 0)
(-2.13752e-14 5.87399e-15 0)
(-2.30661e-14 6.2024e-15 0)
(-2.44677e-14 7.05759e-15 0)
(-2.50131e-14 8.58325e-15 0)
(-2.46093e-14 8.63514e-15 0)
(-2.42998e-14 7.3812e-15 0)
(-2.39354e-14 5.58497e-15 0)
(-2.41428e-14 4.238e-15 0)
(-2.41287e-14 3.84147e-15 0)
(-2.31332e-14 4.37354e-15 0)
(-2.134e-14 4.94723e-15 0)
(-1.80409e-14 4.78535e-15 0)
(-1.46885e-14 4.10425e-15 0)
(-1.29596e-14 4.21214e-15 0)
(-1.16092e-14 3.96315e-15 0)
(-1.01892e-14 3.77848e-15 0)
(-9.43448e-15 3.76099e-15 0)
(-8.48479e-15 4.20399e-15 0)
(-6.40104e-15 4.84781e-15 0)
(-3.59733e-15 5.55469e-15 0)
(-1.33219e-15 5.92771e-15 0)
(3.46735e-16 5.60514e-15 0)
(1.39228e-15 5.28076e-15 0)
(1.29632e-15 5.22232e-15 0)
(1.02616e-15 4.76899e-15 0)
(1.96923e-15 4.74925e-15 0)
(3.77262e-15 4.87311e-15 0)
(5.82704e-15 4.94257e-15 0)
(8.19608e-15 4.75559e-15 0)
(1.01468e-14 4.66885e-15 0)
(1.07961e-14 4.03515e-15 0)
(1.06589e-14 3.12526e-15 0)
(1.10534e-14 2.36759e-15 0)
(1.18935e-14 1.35825e-15 0)
(1.22346e-14 1.44401e-15 0)
(1.27106e-14 1.97146e-15 0)
(1.35612e-14 2.24403e-15 0)
(1.39225e-14 2.49702e-15 0)
(1.40192e-14 1.84668e-15 0)
(1.47517e-14 1.59212e-15 0)
(1.57819e-14 1.15135e-15 0)
(1.53813e-14 9.96828e-16 0)
(1.43687e-14 3.74555e-16 0)
(1.34997e-14 -3.52879e-16 0)
(1.24425e-14 -1.16592e-15 0)
(1.19097e-14 -1.93385e-15 0)
(1.25304e-14 -2.35648e-15 0)
(1.39923e-14 -2.66583e-15 0)
(1.47361e-14 -3.31056e-15 0)
(1.40151e-14 -3.55056e-15 0)
(1.32052e-14 -3.48854e-15 0)
(1.27356e-14 -3.44956e-15 0)
(1.21598e-14 -3.61104e-15 0)
(1.25219e-14 -3.37596e-15 0)
(1.31468e-14 -3.19136e-15 0)
(1.32337e-14 -3.68227e-15 0)
(1.32023e-14 -3.73308e-15 0)
(1.33711e-14 -3.03307e-15 0)
(1.38825e-14 -2.57398e-15 0)
(1.4532e-14 -2.07786e-15 0)
(1.53089e-14 -1.90271e-15 0)
(1.61666e-14 -2.47009e-15 0)
(1.68091e-14 -3.42616e-15 0)
(1.68299e-14 -4.47953e-15 0)
(1.64501e-14 -5.22571e-15 0)
(1.53682e-14 -6.0735e-15 0)
(1.42018e-14 -7.06185e-15 0)
(1.31914e-14 -7.15537e-15 0)
(1.25248e-14 -6.86074e-15 0)
(1.23639e-14 -6.68117e-15 0)
(1.20451e-14 -6.9916e-15 0)
(1.18361e-14 -7.33707e-15 0)
(1.22565e-14 -7.47226e-15 0)
(1.36741e-14 -7.03497e-15 0)
(1.51289e-14 -6.07791e-15 0)
(1.59318e-14 -6.01243e-15 0)
(1.58998e-14 -6.38868e-15 0)
(1.50804e-14 -6.12886e-15 0)
(1.40432e-14 -5.40111e-15 0)
(1.28936e-14 -4.51327e-15 0)
(1.17972e-14 -3.79573e-15 0)
(1.03012e-14 -3.71966e-15 0)
(9.05208e-15 -3.52342e-15 0)
(8.74325e-15 -3.72458e-15 0)
(7.4651e-15 -3.85508e-15 0)
(5.49393e-15 -3.21411e-15 0)
(4.28938e-15 -2.12916e-15 0)
(2.51986e-15 -8.1371e-16 0)
(4.42666e-16 -1.65922e-16 0)
(-1.88709e-15 1.44803e-15 0)
(-5.68295e-15 3.61833e-15 0)
(-9.89195e-15 4.93217e-15 0)
(-1.39853e-14 5.50012e-15 0)
(-1.65359e-14 5.60346e-15 0)
(-1.83832e-14 6.27361e-15 0)
(-2.11517e-14 7.15554e-15 0)
(-2.39144e-14 7.8591e-15 0)
(-2.56554e-14 7.81252e-15 0)
(-2.6525e-14 7.41247e-15 0)
(-2.70545e-14 7.47374e-15 0)
(-2.87631e-14 8.16031e-15 0)
(-3.08146e-14 9.13899e-15 0)
(-3.20337e-14 9.93231e-15 0)
(-3.3103e-14 1.09847e-14 0)
(-3.36791e-14 1.10137e-14 0)
(-3.35653e-14 9.97985e-15 0)
(-3.31752e-14 8.54558e-15 0)
(-3.30154e-14 6.8636e-15 0)
(-3.22257e-14 5.81438e-15 0)
(-3.02919e-14 5.83496e-15 0)
(-2.80701e-14 6.48715e-15 0)
(-2.47085e-14 6.22889e-15 0)
(-2.05271e-14 5.8003e-15 0)
(-1.80006e-14 5.76289e-15 0)
(-1.61076e-14 5.64212e-15 0)
(-1.40255e-14 5.51639e-15 0)
(-1.26089e-14 5.24563e-15 0)
(-1.0745e-14 5.60271e-15 0)
(-8.01568e-15 6.81873e-15 0)
(-4.84817e-15 7.65166e-15 0)
(-2.19423e-15 7.85886e-15 0)
(-1.55453e-16 7.6943e-15 0)
(1.31648e-15 7.26584e-15 0)
(1.61586e-15 6.68812e-15 0)
(1.66715e-15 6.45169e-15 0)
(2.86964e-15 6.64017e-15 0)
(5.15709e-15 6.18789e-15 0)
(7.97774e-15 5.92231e-15 0)
(1.09321e-14 5.89583e-15 0)
(1.32194e-14 5.84487e-15 0)
(1.39276e-14 5.20733e-15 0)
(1.39501e-14 4.33139e-15 0)
(1.44559e-14 3.64571e-15 0)
(1.56512e-14 2.58231e-15 0)
(1.68756e-14 2.21368e-15 0)
(1.76679e-14 2.60097e-15 0)
(1.84329e-14 2.70474e-15 0)
(1.85567e-14 2.7325e-15 0)
(1.87954e-14 2.20055e-15 0)
(1.99931e-14 2.20881e-15 0)
(2.09909e-14 1.91433e-15 0)
(2.0243e-14 1.02031e-15 0)
(1.88389e-14 -3.51268e-16 0)
(1.79559e-14 -1.6399e-15 0)
(1.68453e-14 -2.33509e-15 0)
(1.63531e-14 -2.99465e-15 0)
(1.72387e-14 -3.32955e-15 0)
(1.87332e-14 -3.76581e-15 0)
(1.94692e-14 -4.58551e-15 0)
(1.89321e-14 -5.11166e-15 0)
(1.80496e-14 -4.92131e-15 0)
(1.72724e-14 -5.12464e-15 0)
(1.68707e-14 -5.24364e-15 0)
(1.74601e-14 -4.66333e-15 0)
(1.7921e-14 -4.76507e-15 0)
(1.80289e-14 -5.0689e-15 0)
(1.83484e-14 -4.87873e-15 0)
(1.88405e-14 -4.17783e-15 0)
(1.95162e-14 -3.28399e-15 0)
(2.00243e-14 -2.85555e-15 0)
(2.06661e-14 -3.03246e-15 0)
(2.12827e-14 -3.5319e-15 0)
(2.16897e-14 -5.099e-15 0)
(2.19082e-14 -6.43244e-15 0)
(2.16283e-14 -7.62645e-15 0)
(2.02661e-14 -8.90878e-15 0)
(1.9019e-14 -9.58306e-15 0)
(1.81577e-14 -9.90127e-15 0)
(1.74127e-14 -9.76528e-15 0)
(1.7058e-14 -9.72104e-15 0)
(1.65261e-14 -9.73939e-15 0)
(1.61546e-14 -9.56948e-15 0)
(1.68579e-14 -9.92616e-15 0)
(1.89232e-14 -9.62538e-15 0)
(2.05542e-14 -9.08809e-15 0)
(2.10987e-14 -8.58167e-15 0)
(2.10587e-14 -8.51801e-15 0)
(2.03753e-14 -7.98717e-15 0)
(1.9169e-14 -6.91917e-15 0)
(1.75023e-14 -6.19643e-15 0)
(1.57129e-14 -5.65125e-15 0)
(1.38734e-14 -5.81194e-15 0)
(1.22811e-14 -5.01538e-15 0)
(1.1292e-14 -4.7264e-15 0)
(9.60712e-15 -4.81892e-15 0)
(7.37503e-15 -3.98603e-15 0)
(5.77895e-15 -2.83277e-15 0)
(3.47104e-15 -1.9716e-15 0)
(6.96175e-16 -7.05805e-16 0)
(-2.27041e-15 1.54526e-15 0)
(-7.07038e-15 4.21505e-15 0)
(-1.24062e-14 5.93468e-15 0)
(-1.73446e-14 7.06986e-15 0)
(-2.04421e-14 7.90653e-15 0)
(-2.28518e-14 8.75107e-15 0)
(-2.6011e-14 9.54637e-15 0)
(-2.94266e-14 1.01189e-14 0)
(-3.21468e-14 1.00665e-14 0)
(-3.33732e-14 9.79091e-15 0)
(-3.37354e-14 9.88579e-15 0)
(-3.5182e-14 1.03748e-14 0)
(-3.7526e-14 1.15591e-14 0)
(-3.94223e-14 1.2204e-14 0)
(-4.06942e-14 1.24529e-14 0)
(-4.15725e-14 1.30763e-14 0)
(-4.19439e-14 1.26035e-14 0)
(-4.18098e-14 1.14685e-14 0)
(-4.16353e-14 9.85595e-15 0)
(-4.01219e-14 8.55406e-15 0)
(-3.72055e-14 7.88719e-15 0)
(-3.45148e-14 7.58643e-15 0)
(-3.06544e-14 7.46901e-15 0)
(-2.57594e-14 7.26526e-15 0)
(-2.25513e-14 7.01403e-15 0)
(-2.01349e-14 7.17981e-15 0)
(-1.78267e-14 6.65494e-15 0)
(-1.5823e-14 6.46578e-15 0)
(-1.28359e-14 6.8924e-15 0)
(-9.287e-15 8.18705e-15 0)
(-5.89493e-15 9.31783e-15 0)
(-2.99301e-15 9.36473e-15 0)
(-6.66616e-16 9.28557e-15 0)
(8.70925e-16 9.20668e-15 0)
(1.52605e-15 8.29705e-15 0)
(2.37487e-15 7.63007e-15 0)
(3.85482e-15 7.58852e-15 0)
(6.29168e-15 7.5039e-15 0)
(9.79683e-15 7.2218e-15 0)
(1.34605e-14 7.02545e-15 0)
(1.5962e-14 6.63554e-15 0)
(1.67438e-14 5.77259e-15 0)
(1.70716e-14 5.43954e-15 0)
(1.77207e-14 5.11251e-15 0)
(1.91041e-14 4.45838e-15 0)
(2.07632e-14 3.70572e-15 0)
(2.18801e-14 3.18426e-15 0)
(2.28468e-14 2.78802e-15 0)
(2.31564e-14 2.5255e-15 0)
(2.35935e-14 2.4987e-15 0)
(2.4767e-14 2.40969e-15 0)
(2.52806e-14 1.85884e-15 0)
(2.4051e-14 3.47748e-16 0)
(2.25865e-14 -1.50773e-15 0)
(2.19996e-14 -3.04837e-15 0)
(2.11991e-14 -3.75062e-15 0)
(2.08313e-14 -4.19972e-15 0)
(2.16816e-14 -4.58101e-15 0)
(2.2917e-14 -5.04765e-15 0)
(2.35885e-14 -5.91011e-15 0)
(2.34284e-14 -6.51568e-15 0)
(2.26342e-14 -6.48734e-15 0)
(2.18044e-14 -6.616e-15 0)
(2.17753e-14 -6.62272e-15 0)
(2.22069e-14 -6.32298e-15 0)
(2.22945e-14 -6.78075e-15 0)
(2.26598e-14 -6.64231e-15 0)
(2.33792e-14 -6.30847e-15 0)
(2.41977e-14 -5.38174e-15 0)
(2.48011e-14 -4.28988e-15 0)
(2.50315e-14 -3.79723e-15 0)
(2.55509e-14 -4.16929e-15 0)
(2.57738e-14 -5.14866e-15 0)
(2.60444e-14 -6.79463e-15 0)
(2.63738e-14 -8.37168e-15 0)
(2.58296e-14 -9.92872e-15 0)
(2.4716e-14 -1.17079e-14 0)
(2.37103e-14 -1.22037e-14 0)
(2.27494e-14 -1.25293e-14 0)
(2.19621e-14 -1.23135e-14 0)
(2.14874e-14 -1.23649e-14 0)
(2.11408e-14 -1.25091e-14 0)
(2.06033e-14 -1.22646e-14 0)
(2.11658e-14 -1.19254e-14 0)
(2.34817e-14 -1.15048e-14 0)
(2.54351e-14 -1.1579e-14 0)
(2.6097e-14 -1.10422e-14 0)
(2.59377e-14 -1.04341e-14 0)
(2.53737e-14 -9.79683e-15 0)
(2.38092e-14 -8.59153e-15 0)
(2.15624e-14 -8.05088e-15 0)
(1.91318e-14 -7.51328e-15 0)
(1.7124e-14 -7.66395e-15 0)
(1.54421e-14 -6.80553e-15 0)
(1.35755e-14 -6.13328e-15 0)
(1.15525e-14 -6.0625e-15 0)
(9.22349e-15 -4.8657e-15 0)
(6.80681e-15 -3.59702e-15 0)
(3.93236e-15 -2.83185e-15 0)
(1.08691e-15 -1.10953e-15 0)
(-2.57948e-15 1.69634e-15 0)
(-8.20016e-15 4.46731e-15 0)
(-1.44504e-14 6.44602e-15 0)
(-2.01718e-14 8.4533e-15 0)
(-2.3937e-14 9.93685e-15 0)
(-2.68056e-14 1.10145e-14 0)
(-3.07134e-14 1.20275e-14 0)
(-3.49357e-14 1.19576e-14 0)
(-3.80169e-14 1.18306e-14 0)
(-3.94119e-14 1.22435e-14 0)
(-3.99897e-14 1.23942e-14 0)
(-4.15069e-14 1.28854e-14 0)
(-4.39977e-14 1.35113e-14 0)
(-4.63016e-14 1.42198e-14 0)
(-4.75257e-14 1.44766e-14 0)
(-4.85094e-14 1.46264e-14 0)
(-4.94372e-14 1.45281e-14 0)
(-4.96453e-14 1.35978e-14 0)
(-4.93782e-14 1.22186e-14 0)
(-4.75296e-14 1.10368e-14 0)
(-4.42237e-14 1.00705e-14 0)
(-4.06767e-14 9.61402e-15 0)
(-3.61351e-14 9.96109e-15 0)
(-3.08918e-14 9.30212e-15 0)
(-2.69806e-14 8.38342e-15 0)
(-2.42493e-14 7.96495e-15 0)
(-2.1467e-14 7.02019e-15 0)
(-1.84397e-14 7.11915e-15 0)
(-1.4544e-14 8.07883e-15 0)
(-1.02614e-14 9.3084e-15 0)
(-6.87443e-15 1.04405e-14 0)
(-3.97154e-15 1.0473e-14 0)
(-1.03063e-15 1.04183e-14 0)
(6.36811e-16 1.0233e-14 0)
(1.18267e-15 9.46327e-15 0)
(2.51559e-15 8.76113e-15 0)
(4.86551e-15 8.42631e-15 0)
(7.83654e-15 8.60639e-15 0)
(1.15302e-14 8.48223e-15 0)
(1.53564e-14 7.99924e-15 0)
(1.80068e-14 7.07566e-15 0)
(1.94427e-14 6.1777e-15 0)
(2.03812e-14 5.98548e-15 0)
(2.10665e-14 6.48897e-15 0)
(2.22898e-14 6.46375e-15 0)
(2.39085e-14 5.65507e-15 0)
(2.52674e-14 4.23304e-15 0)
(2.6558e-14 3.16154e-15 0)
(2.72941e-14 2.30337e-15 0)
(2.79565e-14 1.99364e-15 0)
(2.8992e-14 1.51775e-15 0)
(2.90693e-14 1.0452e-15 0)
(2.73668e-14 -7.94975e-16 0)
(2.58541e-14 -2.52016e-15 0)
(2.56878e-14 -4.05167e-15 0)
(2.52534e-14 -4.7998e-15 0)
(2.49301e-14 -5.28734e-15 0)
(2.58174e-14 -5.9801e-15 0)
(2.70004e-14 -6.53746e-15 0)
(2.76117e-14 -7.22363e-15 0)
(2.76203e-14 -7.71103e-15 0)
(2.69543e-14 -7.71477e-15 0)
(2.60608e-14 -7.74017e-15 0)
(2.59483e-14 -7.9486e-15 0)
(2.62394e-14 -8.50569e-15 0)
(2.66518e-14 -8.75266e-15 0)
(2.74059e-14 -8.52423e-15 0)
(2.83687e-14 -7.96673e-15 0)
(2.95514e-14 -6.9003e-15 0)
(3.01329e-14 -5.57127e-15 0)
(2.9846e-14 -4.81625e-15 0)
(2.97106e-14 -5.64744e-15 0)
(2.96571e-14 -6.95769e-15 0)
(2.97838e-14 -8.37252e-15 0)
(3.00746e-14 -1.04226e-14 0)
(2.94833e-14 -1.2167e-14 0)
(2.85891e-14 -1.38978e-14 0)
(2.80064e-14 -1.50048e-14 0)
(2.72604e-14 -1.54537e-14 0)
(2.63943e-14 -1.49405e-14 0)
(2.55628e-14 -1.48416e-14 0)
(2.51113e-14 -1.5017e-14 0)
(2.50165e-14 -1.46581e-14 0)
(2.58584e-14 -1.3633e-14 0)
(2.77298e-14 -1.34175e-14 0)
(2.95907e-14 -1.36646e-14 0)
(3.06765e-14 -1.34949e-14 0)
(3.05286e-14 -1.24243e-14 0)
(2.98743e-14 -1.15793e-14 0)
(2.80321e-14 -1.07022e-14 0)
(2.52354e-14 -1.01486e-14 0)
(2.22686e-14 -9.66397e-15 0)
(1.99533e-14 -9.11284e-15 0)
(1.81773e-14 -8.59334e-15 0)
(1.56978e-14 -7.90258e-15 0)
(1.33278e-14 -7.41497e-15 0)
(1.0795e-14 -6.41651e-15 0)
(7.665e-15 -4.84141e-15 0)
(4.45069e-15 -3.41683e-15 0)
(1.45016e-15 -1.30375e-15 0)
(-3.05081e-15 1.87912e-15 0)
(-9.56176e-15 4.85658e-15 0)
(-1.6193e-14 6.8319e-15 0)
(-2.22915e-14 9.12855e-15 0)
(-2.69002e-14 1.14155e-14 0)
(-3.04831e-14 1.26708e-14 0)
(-3.52783e-14 1.3645e-14 0)
(-4.02562e-14 1.37692e-14 0)
(-4.3265e-14 1.38948e-14 0)
(-4.48656e-14 1.45006e-14 0)
(-4.57084e-14 1.44798e-14 0)
(-4.73079e-14 1.51861e-14 0)
(-4.9923e-14 1.53686e-14 0)
(-5.23904e-14 1.59988e-14 0)
(-5.41889e-14 1.64442e-14 0)
(-5.52618e-14 1.63959e-14 0)
(-5.62442e-14 1.61413e-14 0)
(-5.68192e-14 1.53384e-14 0)
(-5.65461e-14 1.39808e-14 0)
(-5.43244e-14 1.34828e-14 0)
(-5.02795e-14 1.29086e-14 0)
(-4.58302e-14 1.21257e-14 0)
(-4.11841e-14 1.18725e-14 0)
(-3.62257e-14 1.08363e-14 0)
(-3.18537e-14 9.53198e-15 0)
(-2.85056e-14 8.5299e-15 0)
(-2.49084e-14 8.05628e-15 0)
(-2.06196e-14 8.65043e-15 0)
(-1.58988e-14 9.74643e-15 0)
(-1.12709e-14 1.04708e-14 0)
(-7.76145e-15 1.09215e-14 0)
(-4.74641e-15 1.13403e-14 0)
(-1.68165e-15 1.11633e-14 0)
(1.1352e-16 1.07825e-14 0)
(1.08696e-15 1.03476e-14 0)
(2.92638e-15 9.7821e-15 0)
(5.76257e-15 9.40938e-15 0)
(9.13301e-15 9.43184e-15 0)
(1.29769e-14 9.28945e-15 0)
(1.68685e-14 8.63245e-15 0)
(1.98093e-14 7.55498e-15 0)
(2.17592e-14 6.78872e-15 0)
(2.36303e-14 6.32895e-15 0)
(2.48237e-14 7.11423e-15 0)
(2.55975e-14 7.73216e-15 0)
(2.65439e-14 7.08341e-15 0)
(2.77703e-14 5.09265e-15 0)
(2.94554e-14 2.99823e-15 0)
(3.06174e-14 1.92846e-15 0)
(3.1589e-14 1.30336e-15 0)
(3.28357e-14 6.28583e-16 0)
(3.24619e-14 -3.93278e-16 0)
(3.03419e-14 -2.11252e-15 0)
(2.90671e-14 -3.3623e-15 0)
(2.91245e-14 -4.6919e-15 0)
(2.90155e-14 -5.65313e-15 0)
(2.86418e-14 -5.95982e-15 0)
(2.94337e-14 -6.69627e-15 0)
(3.06787e-14 -7.78688e-15 0)
(3.13745e-14 -8.5593e-15 0)
(3.16461e-14 -9.0107e-15 0)
(3.11079e-14 -9.14907e-15 0)
(3.00677e-14 -9.15752e-15 0)
(2.96288e-14 -9.24553e-15 0)
(3.00539e-14 -9.94608e-15 0)
(3.07696e-14 -1.01647e-14 0)
(3.1788e-14 -1.01348e-14 0)
(3.32009e-14 -9.28625e-15 0)
(3.47089e-14 -7.92374e-15 0)
(3.52601e-14 -6.98546e-15 0)
(3.41143e-14 -6.90788e-15 0)
(3.33343e-14 -7.76175e-15 0)
(3.33111e-14 -9.00664e-15 0)
(3.31392e-14 -1.06052e-14 0)
(3.32151e-14 -1.27405e-14 0)
(3.27713e-14 -1.44967e-14 0)
(3.18845e-14 -1.5777e-14 0)
(3.15128e-14 -1.69077e-14 0)
(3.14258e-14 -1.75652e-14 0)
(3.07691e-14 -1.74075e-14 0)
(2.95836e-14 -1.71835e-14 0)
(2.92827e-14 -1.71686e-14 0)
(2.95347e-14 -1.6876e-14 0)
(2.99567e-14 -1.59964e-14 0)
(3.13525e-14 -1.56923e-14 0)
(3.32888e-14 -1.56077e-14 0)
(3.48548e-14 -1.54973e-14 0)
(3.49774e-14 -1.46042e-14 0)
(3.38944e-14 -1.34981e-14 0)
(3.16105e-14 -1.30433e-14 0)
(2.84861e-14 -1.2369e-14 0)
(2.54069e-14 -1.16238e-14 0)
(2.27166e-14 -1.07164e-14 0)
(2.03477e-14 -1.02135e-14 0)
(1.75596e-14 -9.67182e-15 0)
(1.47392e-14 -8.74207e-15 0)
(1.20798e-14 -7.95549e-15 0)
(8.77002e-15 -6.19751e-15 0)
(5.01581e-15 -4.21617e-15 0)
(1.70947e-15 -1.64543e-15 0)
(-3.3571e-15 2.04156e-15 0)
(-1.07475e-14 5.21187e-15 0)
(-1.80536e-14 7.47876e-15 0)
(-2.41754e-14 9.74742e-15 0)
(-2.93781e-14 1.22883e-14 0)
(-3.38942e-14 1.36024e-14 0)
(-3.92966e-14 1.45632e-14 0)
(-4.47615e-14 1.56949e-14 0)
(-4.80511e-14 1.63762e-14 0)
(-5.0063e-14 1.63713e-14 0)
(-5.10306e-14 1.63295e-14 0)
(-5.28123e-14 1.67216e-14 0)
(-5.56995e-14 1.70267e-14 0)
(-5.80407e-14 1.74765e-14 0)
(-5.98557e-14 1.81139e-14 0)
(-6.13083e-14 1.839e-14 0)
(-6.26397e-14 1.76987e-14 0)
(-6.3434e-14 1.67269e-14 0)
(-6.26433e-14 1.59266e-14 0)
(-5.98107e-14 1.62367e-14 0)
(-5.61638e-14 1.58002e-14 0)
(-5.16859e-14 1.44893e-14 0)
(-4.65255e-14 1.33137e-14 0)
(-4.11914e-14 1.18458e-14 0)
(-3.6378e-14 1.04579e-14 0)
(-3.21706e-14 9.73094e-15 0)
(-2.73684e-14 1.03857e-14 0)
(-2.2351e-14 1.10775e-14 0)
(-1.75131e-14 1.19543e-14 0)
(-1.28336e-14 1.18187e-14 0)
(-8.78205e-15 1.15727e-14 0)
(-5.46701e-15 1.18054e-14 0)
(-2.2966e-15 1.12503e-14 0)
(-7.45351e-17 1.1034e-14 0)
(1.0223e-15 1.13458e-14 0)
(3.06453e-15 1.08965e-14 0)
(6.52404e-15 1.03686e-14 0)
(1.0374e-14 1.01614e-14 0)
(1.4297e-14 1.01567e-14 0)
(1.81488e-14 9.34733e-15 0)
(2.13777e-14 8.1237e-15 0)
(2.38446e-14 7.34882e-15 0)
(2.64132e-14 7.11289e-15 0)
(2.83049e-14 7.24812e-15 0)
(2.88296e-14 7.7294e-15 0)
(2.88462e-14 7.22981e-15 0)
(2.9436e-14 5.68825e-15 0)
(3.16834e-14 3.31044e-15 0)
(3.37584e-14 1.7851e-15 0)
(3.49337e-14 5.73188e-16 0)
(3.5849e-14 -7.00323e-16 0)
(3.52692e-14 -2.4602e-15 0)
(3.34464e-14 -3.52149e-15 0)
(3.22157e-14 -4.03023e-15 0)
(3.22259e-14 -4.82313e-15 0)
(3.25004e-14 -5.93994e-15 0)
(3.23111e-14 -6.66793e-15 0)
(3.26084e-14 -7.50073e-15 0)
(3.37555e-14 -8.75079e-15 0)
(3.48112e-14 -9.5339e-15 0)
(3.52391e-14 -1.00251e-14 0)
(3.48456e-14 -1.04526e-14 0)
(3.39504e-14 -1.05114e-14 0)
(3.33172e-14 -1.07932e-14 0)
(3.35292e-14 -1.16145e-14 0)
(3.4519e-14 -1.20168e-14 0)
(3.61144e-14 -1.15263e-14 0)
(3.81325e-14 -1.0496e-14 0)
(3.94869e-14 -9.08216e-15 0)
(3.92623e-14 -8.62843e-15 0)
(3.78164e-14 -8.87244e-15 0)
(3.6865e-14 -9.42348e-15 0)
(3.63878e-14 -1.05993e-14 0)
(3.59206e-14 -1.25813e-14 0)
(3.60718e-14 -1.48557e-14 0)
(3.59948e-14 -1.67992e-14 0)
(3.53671e-14 -1.7734e-14 0)
(3.49983e-14 -1.83018e-14 0)
(3.49432e-14 -1.89978e-14 0)
(3.44919e-14 -1.96441e-14 0)
(3.3363e-14 -1.95716e-14 0)
(3.28117e-14 -1.91588e-14 0)
(3.32418e-14 -1.91546e-14 0)
(3.40172e-14 -1.86446e-14 0)
(3.52514e-14 -1.79196e-14 0)
(3.69032e-14 -1.74574e-14 0)
(3.84511e-14 -1.71401e-14 0)
(3.87946e-14 -1.68675e-14 0)
(3.7456e-14 -1.5871e-14 0)
(3.48273e-14 -1.54033e-14 0)
(3.16908e-14 -1.45113e-14 0)
(2.82726e-14 -1.33603e-14 0)
(2.50859e-14 -1.27144e-14 0)
(2.22647e-14 -1.18803e-14 0)
(1.92233e-14 -1.12014e-14 0)
(1.60468e-14 -1.01427e-14 0)
(1.3028e-14 -9.15153e-15 0)
(9.57626e-15 -7.74166e-15 0)
(5.64155e-15 -5.3963e-15 0)
(2.16106e-15 -2.02221e-15 0)
(-3.80776e-15 2.18956e-15 0)
(-1.1906e-14 5.26933e-15 0)
(-1.9589e-14 8.21621e-15 0)
(-2.59664e-14 1.09362e-14 0)
(-3.18099e-14 1.28812e-14 0)
(-3.71082e-14 1.42628e-14 0)
(-4.25847e-14 1.51036e-14 0)
(-4.82877e-14 1.70784e-14 0)
(-5.26121e-14 1.83258e-14 0)
(-5.51804e-14 1.77678e-14 0)
(-5.61225e-14 1.79461e-14 0)
(-5.78059e-14 1.82892e-14 0)
(-6.06479e-14 1.88324e-14 0)
(-6.30479e-14 1.92681e-14 0)
(-6.50419e-14 1.96309e-14 0)
(-6.70496e-14 1.98109e-14 0)
(-6.88127e-14 1.89566e-14 0)
(-6.92514e-14 1.80112e-14 0)
(-6.77391e-14 1.81904e-14 0)
(-6.4857e-14 1.80006e-14 0)
(-6.1499e-14 1.74204e-14 0)
(-5.69779e-14 1.61838e-14 0)
(-5.1744e-14 1.4617e-14 0)
(-4.6184e-14 1.33893e-14 0)
(-4.04862e-14 1.24932e-14 0)
(-3.48523e-14 1.21757e-14 0)
(-2.94331e-14 1.27438e-14 0)
(-2.42048e-14 1.30769e-14 0)
(-1.93098e-14 1.38164e-14 0)
(-1.47132e-14 1.34294e-14 0)
(-1.01337e-14 1.30154e-14 0)
(-6.56232e-15 1.24331e-14 0)
(-3.08246e-15 1.176e-14 0)
(4.71097e-17 1.13282e-14 0)
(1.50586e-15 1.15457e-14 0)
(3.36413e-15 1.16104e-14 0)
(7.0153e-15 1.11837e-14 0)
(1.14181e-14 1.06944e-14 0)
(1.54696e-14 1.04025e-14 0)
(1.90965e-14 9.91853e-15 0)
(2.26508e-14 8.85124e-15 0)
(2.58533e-14 8.09902e-15 0)
(2.88524e-14 8.07931e-15 0)
(3.09705e-14 7.51621e-15 0)
(3.16241e-14 7.13096e-15 0)
(3.13912e-14 6.55223e-15 0)
(3.15176e-14 5.83846e-15 0)
(3.34734e-14 3.87284e-15 0)
(3.57259e-14 1.65465e-15 0)
(3.70818e-14 -2.11124e-16 0)
(3.80816e-14 -1.98883e-15 0)
(3.79709e-14 -3.64614e-15 0)
(3.68287e-14 -4.57285e-15 0)
(3.57681e-14 -4.89957e-15 0)
(3.53685e-14 -5.27953e-15 0)
(3.52864e-14 -6.36982e-15 0)
(3.51026e-14 -7.58413e-15 0)
(3.54978e-14 -8.57716e-15 0)
(3.67667e-14 -9.42754e-15 0)
(3.79992e-14 -1.02198e-14 0)
(3.85004e-14 -1.07407e-14 0)
(3.82461e-14 -1.14313e-14 0)
(3.72888e-14 -1.15418e-14 0)
(3.62834e-14 -1.25442e-14 0)
(3.6635e-14 -1.36266e-14 0)
(3.83493e-14 -1.37489e-14 0)
(4.04711e-14 -1.28155e-14 0)
(4.26301e-14 -1.17939e-14 0)
(4.38023e-14 -1.07436e-14 0)
(4.32421e-14 -9.95654e-15 0)
(4.14749e-14 -1.02667e-14 0)
(4.01197e-14 -1.09572e-14 0)
(3.91255e-14 -1.19697e-14 0)
(3.81773e-14 -1.40072e-14 0)
(3.82488e-14 -1.64422e-14 0)
(3.86892e-14 -1.889e-14 0)
(3.86537e-14 -1.96892e-14 0)
(3.82573e-14 -1.98779e-14 0)
(3.78983e-14 -2.06205e-14 0)
(3.76019e-14 -2.17331e-14 0)
(3.70143e-14 -2.19822e-14 0)
(3.65102e-14 -2.1399e-14 0)
(3.67063e-14 -2.11075e-14 0)
(3.75512e-14 -2.06109e-14 0)
(3.88106e-14 -1.97739e-14 0)
(4.03251e-14 -1.94044e-14 0)
(4.15748e-14 -1.93625e-14 0)
(4.1937e-14 -1.9241e-14 0)
(4.06427e-14 -1.84169e-14 0)
(3.78365e-14 -1.76024e-14 0)
(3.4689e-14 -1.66628e-14 0)
(3.08307e-14 -1.5484e-14 0)
(2.72354e-14 -1.44739e-14 0)
(2.41369e-14 -1.36243e-14 0)
(2.06667e-14 -1.27217e-14 0)
(1.71252e-14 -1.17237e-14 0)
(1.36623e-14 -1.02215e-14 0)
(1.01608e-14 -8.85536e-15 0)
(6.49398e-15 -6.19795e-15 0)
(2.80309e-15 -2.04729e-15 0)
(-4.25837e-15 2.13391e-15 0)
(-1.27376e-14 5.4472e-15 0)
(-2.05549e-14 8.6474e-15 0)
(-2.77657e-14 1.17053e-14 0)
(-3.4364e-14 1.36132e-14 0)
(-4.01314e-14 1.48756e-14 0)
(-4.55403e-14 1.62301e-14 0)
(-5.11335e-14 1.79867e-14 0)
(-5.66847e-14 1.9396e-14 0)
(-5.98464e-14 1.96026e-14 0)
(-6.0474e-14 1.99916e-14 0)
(-6.22606e-14 2.00121e-14 0)
(-6.529e-14 2.05232e-14 0)
(-6.78966e-14 2.07441e-14 0)
(-6.99435e-14 2.06635e-14 0)
(-7.22443e-14 2.06753e-14 0)
(-7.42725e-14 2.02722e-14 0)
(-7.4099e-14 1.97301e-14 0)
(-7.24677e-14 1.98535e-14 0)
(-6.98239e-14 1.90128e-14 0)
(-6.64862e-14 1.83617e-14 0)
(-6.2186e-14 1.70883e-14 0)
(-5.63995e-14 1.56522e-14 0)
(-4.99037e-14 1.5063e-14 0)
(-4.37253e-14 1.47499e-14 0)
(-3.77344e-14 1.47153e-14 0)
(-3.17441e-14 1.46144e-14 0)
(-2.58889e-14 1.49377e-14 0)
(-2.08644e-14 1.51951e-14 0)
(-1.63121e-14 1.51748e-14 0)
(-1.16843e-14 1.45346e-14 0)
(-7.85385e-15 1.33968e-14 0)
(-3.89401e-15 1.26732e-14 0)
(-3.71945e-16 1.20202e-14 0)
(1.70569e-15 1.16034e-14 0)
(3.8719e-15 1.18914e-14 0)
(7.51528e-15 1.15539e-14 0)
(1.20544e-14 1.12281e-14 0)
(1.65648e-14 1.06189e-14 0)
(2.04098e-14 1.01222e-14 0)
(2.39688e-14 9.5061e-15 0)
(2.76847e-14 9.01932e-15 0)
(3.08179e-14 8.60963e-15 0)
(3.28155e-14 7.675e-15 0)
(3.36591e-14 6.73889e-15 0)
(3.37286e-14 5.89919e-15 0)
(3.3564e-14 5.15252e-15 0)
(3.49449e-14 3.47701e-15 0)
(3.7306e-14 1.24797e-15 0)
(3.89858e-14 -6.84036e-16 0)
(4.0198e-14 -2.24233e-15 0)
(4.03472e-14 -3.7782e-15 0)
(3.95668e-14 -5.02359e-15 0)
(3.87688e-14 -5.85558e-15 0)
(3.82248e-14 -6.33401e-15 0)
(3.78806e-14 -7.23719e-15 0)
(3.77538e-14 -8.28752e-15 0)
(3.83097e-14 -9.14016e-15 0)
(3.95935e-14 -1.00759e-14 0)
(4.08754e-14 -1.11148e-14 0)
(4.13568e-14 -1.15909e-14 0)
(4.12436e-14 -1.24929e-14 0)
(4.01049e-14 -1.28677e-14 0)
(3.8756e-14 -1.35411e-14 0)
(3.96292e-14 -1.42161e-14 0)
(4.21304e-14 -1.42219e-14 0)
(4.461e-14 -1.35479e-14 0)
(4.6771e-14 -1.26063e-14 0)
(4.8024e-14 -1.18987e-14 0)
(4.68811e-14 -1.14173e-14 0)
(4.44338e-14 -1.19769e-14 0)
(4.30413e-14 -1.2679e-14 0)
(4.16234e-14 -1.36793e-14 0)
(4.01202e-14 -1.55712e-14 0)
(3.99301e-14 -1.80524e-14 0)
(4.09639e-14 -2.03741e-14 0)
(4.18596e-14 -2.13661e-14 0)
(4.13621e-14 -2.15112e-14 0)
(4.04426e-14 -2.19142e-14 0)
(4.01705e-14 -2.29366e-14 0)
(4.01171e-14 -2.34927e-14 0)
(3.9808e-14 -2.35409e-14 0)
(4.00341e-14 -2.32546e-14 0)
(4.10791e-14 -2.2759e-14 0)
(4.20843e-14 -2.19795e-14 0)
(4.29924e-14 -2.15905e-14 0)
(4.41521e-14 -2.15026e-14 0)
(4.47981e-14 -2.10295e-14 0)
(4.36193e-14 -2.04965e-14 0)
(4.06478e-14 -1.9563e-14 0)
(3.72775e-14 -1.8634e-14 0)
(3.33381e-14 -1.76694e-14 0)
(2.92632e-14 -1.60098e-14 0)
(2.56377e-14 -1.50977e-14 0)
(2.18921e-14 -1.41392e-14 0)
(1.82454e-14 -1.2973e-14 0)
(1.44772e-14 -1.11108e-14 0)
(1.07236e-14 -9.14464e-15 0)
(7.49882e-15 -6.16363e-15 0)
(3.39973e-15 -1.76664e-15 0)
(-4.53728e-15 2.22308e-15 0)
(-1.35034e-14 5.85231e-15 0)
(-2.15358e-14 8.85911e-15 0)
(-2.91126e-14 1.19163e-14 0)
(-3.65834e-14 1.43098e-14 0)
(-4.26271e-14 1.58689e-14 0)
(-4.80887e-14 1.75538e-14 0)
(-5.4093e-14 1.88015e-14 0)
(-5.98795e-14 2.01574e-14 0)
(-6.34925e-14 2.1466e-14 0)
(-6.48301e-14 2.22229e-14 0)
(-6.66382e-14 2.18376e-14 0)
(-6.94926e-14 2.22861e-14 0)
(-7.2422e-14 2.20928e-14 0)
(-7.45906e-14 2.15598e-14 0)
(-7.67806e-14 2.11985e-14 0)
(-7.88224e-14 2.16105e-14 0)
(-7.86751e-14 2.16137e-14 0)
(-7.71129e-14 2.08011e-14 0)