/*--------------------------------*- C++ -*----------------------------------*\
| =========                 |                                                 |
| \\      /  F ield         | OpenFOAM: The Open Source CFD Toolbox           |
|  \\    /   O peration     | Version:  v2012                                 |
|   \\  /    A nd           | Website:  www.openfoam.com                      |
|    \\/     M anipulation  |                                                 |
\*---------------------------------------------------------------------------*/
FoamFile
{
    version     2.0;
    format      ascii;
    class       volScalarField;
    location    "0";
    object      p;
}
// * * * * * * * * * * * * * * * * * * * * * * * * * * * * * * * * * * * * * //

dimensions      [0 2 -2 0 0 0 0];


internalField   nonuniform List<scalar> 
4000
(
-2.7047e-13
-2.66727e-13
-2.63948e-13
-2.66365e-13
-2.70342e-13
-2.73685e-13
-2.71669e-13
-2.68078e-13
-2.66703e-13
-2.6737e-13
-2.67954e-13
-2.75806e-13
-2.73395e-13
-2.72695e-13
-2.73559e-13
-2.80972e-13
-2.74331e-13
-2.67781e-13
-2.69711e-13
-2.84091e-13
-2.86647e-13
-2.77068e-13
-2.68004e-13
-2.67901e-13
-2.7274e-13
-2.75266e-13
-2.71475e-13
-2.71047e-13
-2.69534e-13
-2.76503e-13
-2.84567e-13
-2.9101e-13
-2.75836e-13
-2.73143e-13
-2.74002e-13
-2.68615e-13
-2.71434e-13
-2.83615e-13
-2.86901e-13
-2.74752e-13
-2.70746e-13
-2.68139e-13
-2.63268e-13
-2.57556e-13
-2.58462e-13
-2.65626e-13
-2.68251e-13
-2.64475e-13
-2.65872e-13
-2.71731e-13
-2.58284e-13
-2.56313e-13
-2.57669e-13
-2.5297e-13
-2.55714e-13
-2.47631e-13
-2.42622e-13
-2.35145e-13
-2.28601e-13
-2.16388e-13
-2.08889e-13
-2.0704e-13
-2.02647e-13
-1.95585e-13
-1.96175e-13
-1.95613e-13
-1.79297e-13
-1.69225e-13
-1.63322e-13
-1.63155e-13
-1.55576e-13
-1.48713e-13
-1.4874e-13
-1.50997e-13
-1.41417e-13
-1.26081e-13
-1.16972e-13
-1.09221e-13
-1.08235e-13
-1.15336e-13
-1.16063e-13
-1.02693e-13
-9.82627e-14
-9.91904e-14
-9.042e-14
-8.72313e-14
-7.48456e-14
-6.92406e-14
-6.08385e-14
-5.35057e-14
-4.41846e-14
-4.69968e-14
-4.24758e-14
-2.57475e-14
-2.1984e-14
-2.13444e-14
-1.25653e-14
-8.23198e-16
2.62221e-15
-7.48237e-16
-2.72504e-13
-2.70414e-13
-2.63055e-13
-2.63301e-13
-2.68158e-13
-2.70672e-13
-2.7113e-13
-2.68745e-13
-2.66805e-13
-2.70799e-13
-2.75916e-13
-2.73175e-13
-2.73099e-13
-2.73172e-13
-2.74541e-13
-2.73966e-13
-2.72364e-13
-2.6981e-13
-2.7258e-13
-2.75442e-13
-2.79113e-13
-2.81759e-13
-2.75843e-13
-2.71549e-13
-2.7155e-13
-2.76025e-13
-2.74033e-13
-2.70485e-13
-2.7011e-13
-2.78285e-13
-2.81148e-13
-2.82529e-13
-2.78399e-13
-2.81864e-13
-2.74595e-13
-2.70477e-13
-2.73254e-13
-2.79006e-13
-2.80462e-13
-2.73715e-13
-2.72407e-13
-2.66142e-13
-2.6457e-13
-2.57306e-13
-2.60456e-13
-2.71601e-13
-2.64713e-13
-2.60453e-13
-2.67359e-13
-2.70746e-13
-2.64705e-13
-2.57996e-13
-2.55768e-13
-2.52145e-13
-2.47655e-13
-2.46816e-13
-2.49246e-13
-2.38544e-13
-2.30482e-13
-2.16316e-13
-2.10419e-13
-2.02548e-13
-2.03041e-13
-1.93929e-13
-1.97171e-13
-1.92802e-13
-1.79639e-13
-1.71222e-13
-1.67254e-13
-1.60559e-13
-1.561e-13
-1.4909e-13
-1.44393e-13
-1.42658e-13
-1.39592e-13
-1.30753e-13
-1.19633e-13
-1.14714e-13
-1.10665e-13
-1.11107e-13
-1.13238e-13
-1.03486e-13
-9.85131e-14
-9.62245e-14
-9.34705e-14
-8.23144e-14
-7.56346e-14
-7.89175e-14
-6.30795e-14
-5.07095e-14
-4.24724e-14
-4.41824e-14
-3.80729e-14
-2.89941e-14
-2.105e-14
-1.77491e-14
-1.51376e-14
-2.37745e-15
1.98397e-15
4.80491e-16
-2.71802e-13
-2.70419e-13
-2.68884e-13
-2.63009e-13
-2.6659e-13
-2.72062e-13
-2.72456e-13
-2.74138e-13
-2.66803e-13
-2.69439e-13
-2.76922e-13
-2.78762e-13
-2.76531e-13
-2.71789e-13
-2.6688e-13
-2.68708e-13
-2.72329e-13
-2.74543e-13
-2.73032e-13
-2.72531e-13
-2.81345e-13
-2.78712e-13
-2.74731e-13
-2.73437e-13
-2.75852e-13
-2.7455e-13
-2.71247e-13
-2.67782e-13
-2.71357e-13
-2.79113e-13
-2.84257e-13
-2.82427e-13
-2.77904e-13
-2.76328e-13
-2.7311e-13
-2.69189e-13
-2.7319e-13
-2.76128e-13
-2.74267e-13
-2.76567e-13
-2.75569e-13
-2.69584e-13
-2.61256e-13
-2.62981e-13
-2.63375e-13
-2.70663e-13
-2.65938e-13
-2.61302e-13
-2.61054e-13
-2.61354e-13
-2.67546e-13
-2.59481e-13
-2.59002e-13
-2.55221e-13
-2.51649e-13
-2.48312e-13
-2.43642e-13
-2.33908e-13
-2.22831e-13
-2.1347e-13
-2.11429e-13
-2.07545e-13
-2.04627e-13
-2.01662e-13
-1.95493e-13
-1.89824e-13
-1.80454e-13
-1.72537e-13
-1.68633e-13
-1.69171e-13
-1.5825e-13
-1.45409e-13
-1.46721e-13
-1.40512e-13
-1.37806e-13
-1.32046e-13
-1.19962e-13
-1.13468e-13
-1.09274e-13
-1.12813e-13
-1.07092e-13
-1.02101e-13
-1.03915e-13
-9.83048e-14
-9.11206e-14
-8.21791e-14
-7.5049e-14
-7.07554e-14
-6.59206e-14
-5.71718e-14
-4.75099e-14
-4.15533e-14
-3.4315e-14
-2.63377e-14
-2.2984e-14
-1.84656e-14
-1.45969e-14
-3.81981e-15
4.18648e-15
1.41216e-15
-2.71851e-13
-2.67804e-13
-2.67696e-13
-2.71059e-13
-2.75608e-13
-2.73016e-13
-2.72756e-13
-2.70636e-13
-2.66552e-13
-2.75895e-13
-2.77639e-13
-2.76349e-13
-2.77794e-13
-2.71596e-13
-2.67421e-13
-2.66705e-13
-2.73142e-13
-2.73129e-13
-2.71131e-13
-2.74313e-13
-2.79326e-13
-2.70239e-13
-2.73903e-13
-2.81762e-13
-2.80109e-13
-2.76253e-13
-2.73067e-13
-2.6801e-13
-2.70825e-13
-2.76821e-13
-2.809e-13
-2.81928e-13
-2.7553e-13
-2.76419e-13
-2.75399e-13
-2.69946e-13
-2.74154e-13
-2.78053e-13
-2.71332e-13
-2.7095e-13
-2.70821e-13
-2.63189e-13
-2.63817e-13
-2.71721e-13
-2.64916e-13
-2.69475e-13
-2.62178e-13
-2.57847e-13
-2.61524e-13
-2.6597e-13
-2.65363e-13
-2.59239e-13
-2.53192e-13
-2.54301e-13
-2.48665e-13
-2.46352e-13
-2.37905e-13
-2.35324e-13
-2.24157e-13
-2.1712e-13
-2.16081e-13
-2.08328e-13
-2.00625e-13
-2.01293e-13
-1.97396e-13
-1.88716e-13
-1.81663e-13
-1.75255e-13
-1.69608e-13
-1.63352e-13
-1.58358e-13
-1.4526e-13
-1.4436e-13
-1.43245e-13
-1.37177e-13
-1.32064e-13
-1.20037e-13
-1.1646e-13
-1.08722e-13
-1.1016e-13
-1.07989e-13
-1.02982e-13
-9.8266e-14
-9.87392e-14
-9.39286e-14
-8.51438e-14
-7.8364e-14
-7.31922e-14
-6.65923e-14
-5.59971e-14
-4.3433e-14
-4.21668e-14
-3.44349e-14
-2.39652e-14
-2.09178e-14
-1.69113e-14
-1.57335e-14
-6.42323e-15
-3.38073e-15
-1.50556e-15
-2.70228e-13
-2.64879e-13
-2.68769e-13
-2.74069e-13
-2.80245e-13
-2.73095e-13
-2.7409e-13
-2.67622e-13
-2.72607e-13
-2.8507e-13
-2.82255e-13
-2.77561e-13
-2.72677e-13
-2.67818e-13
-2.66032e-13
-2.65216e-13
-2.65979e-13
-2.63739e-13
-2.75366e-13
-2.79367e-13
-2.81824e-13
-2.79908e-13
-2.79216e-13
-2.77167e-13
-2.72841e-13
-2.73052e-13
-2.71439e-13
-2.70125e-13
-2.70363e-13
-2.73742e-13
-2.77699e-13
-2.84022e-13
-2.80779e-13
-2.75147e-13
-2.71826e-13
-2.67389e-13
-2.72088e-13
-2.75326e-13
-2.74581e-13
-2.69435e-13
-2.6855e-13
-2.61538e-13
-2.6769e-13
-2.67929e-13
-2.64511e-13
-2.679e-13
-2.64476e-13
-2.58218e-13
-2.61402e-13
-2.58847e-13
-2.5819e-13
-2.51874e-13
-2.50931e-13
-2.57114e-13
-2.51569e-13
-2.51523e-13
-2.41843e-13
-2.29442e-13
-2.21656e-13
-2.17718e-13
-2.1415e-13
-2.10599e-13
-2.09683e-13
-2.04245e-13
-1.93356e-13
-1.85058e-13
-1.8017e-13
-1.7753e-13
-1.70699e-13
-1.67614e-13
-1.60937e-13
-1.49397e-13
-1.44287e-13
-1.42263e-13
-1.37147e-13
-1.32082e-13
-1.21588e-13
-1.17311e-13
-1.08426e-13
-1.02578e-13
-1.09429e-13
-1.02142e-13
-1.01476e-13
-9.95944e-14
-9.28456e-14
-8.89467e-14
-8.34414e-14
-6.96959e-14
-6.49393e-14
-5.48645e-14
-4.58804e-14
-4.27449e-14
-3.48551e-14
-2.12092e-14
-1.63028e-14
-1.56114e-14
-1.28875e-14
-5.38781e-15
-2.41e-15
-5.03261e-15
-2.71511e-13
-2.63234e-13
-2.70035e-13
-2.81016e-13
-2.82842e-13
-2.76425e-13
-2.7361e-13
-2.68434e-13
-2.71589e-13
-2.81653e-13
-2.83475e-13
-2.78824e-13
-2.72956e-13
-2.70556e-13
-2.74298e-13
-2.68715e-13
-2.61952e-13
-2.63252e-13
-2.67056e-13
-2.77001e-13
-2.88087e-13
-2.83406e-13
-2.85295e-13
-2.82736e-13
-2.71387e-13
-2.70821e-13
-2.70719e-13
-2.68046e-13
-2.68933e-13
-2.70966e-13
-2.76549e-13
-2.8475e-13
-2.77244e-13
-2.65728e-13
-2.68301e-13
-2.70163e-13
-2.78314e-13
-2.7245e-13
-2.69901e-13
-2.66481e-13
-2.65537e-13
-2.63517e-13
-2.69585e-13
-2.68391e-13
-2.61496e-13
-2.67595e-13
-2.67439e-13
-2.58916e-13
-2.64625e-13
-2.57881e-13
-2.54832e-13
-2.55715e-13
-2.50871e-13
-2.57953e-13
-2.52263e-13
-2.46666e-13
-2.3761e-13
-2.3223e-13
-2.21788e-13
-2.133e-13
-2.15414e-13
-2.11959e-13
-2.12137e-13
-2.00703e-13
-1.94044e-13
-1.89456e-13
-1.82607e-13
-1.81017e-13
-1.73458e-13
-1.62583e-13
-1.58132e-13
-1.50959e-13
-1.44218e-13
-1.3707e-13
-1.41201e-13
-1.33052e-13
-1.23982e-13
-1.17138e-13
-1.04017e-13
-9.95659e-14
-1.02956e-13
-1.02548e-13
-1.0473e-13
-9.98283e-14
-9.31183e-14
-8.55241e-14
-7.73877e-14
-7.1544e-14
-6.63882e-14
-5.58503e-14
-4.6353e-14
-4.05643e-14
-3.8154e-14
-2.28942e-14
-1.56992e-14
-1.46514e-14
-1.39406e-14
-7.15392e-15
-4.72532e-15
-3.81829e-15
-2.69549e-13
-2.64614e-13
-2.70829e-13
-2.80322e-13
-2.88274e-13
-2.78181e-13
-2.70009e-13
-2.77515e-13
-2.80581e-13
-2.82061e-13
-2.83832e-13
-2.79266e-13
-2.70814e-13
-2.68924e-13
-2.74215e-13
-2.70666e-13
-2.63013e-13
-2.67673e-13
-2.74397e-13
-2.81674e-13
-2.86994e-13
-2.87046e-13
-2.79167e-13
-2.69499e-13
-2.66627e-13
-2.67735e-13
-2.76006e-13
-2.72741e-13
-2.71589e-13
-2.67134e-13
-2.70283e-13
-2.82696e-13
-2.79753e-13
-2.76503e-13
-2.74808e-13
-2.73948e-13
-2.7104e-13
-2.70423e-13
-2.69209e-13
-2.71248e-13
-2.63402e-13
-2.6421e-13
-2.66419e-13
-2.67998e-13
-2.58996e-13
-2.61566e-13
-2.70232e-13
-2.67393e-13
-2.66344e-13
-2.55385e-13
-2.51793e-13
-2.50031e-13
-2.46718e-13
-2.56356e-13
-2.54803e-13
-2.4159e-13
-2.3959e-13
-2.37992e-13
-2.29317e-13
-2.16566e-13
-2.10602e-13
-2.02606e-13
-2.05406e-13
-2.00206e-13
-1.97262e-13
-1.91351e-13
-1.89195e-13
-1.83383e-13
-1.74175e-13
-1.61041e-13
-1.49433e-13
-1.48109e-13
-1.48771e-13
-1.37762e-13
-1.331e-13
-1.31111e-13
-1.28175e-13
-1.19071e-13
-1.09305e-13
-1.0653e-13
-9.99113e-14
-1.0509e-13
-9.779e-14
-9.27376e-14
-9.46546e-14
-8.51253e-14
-7.81459e-14
-7.08063e-14
-6.77175e-14
-5.52697e-14
-4.59806e-14
-4.37102e-14
-3.56997e-14
-2.6142e-14
-1.72931e-14
-1.42428e-14
-1.47825e-14
-9.7776e-15
-4.17883e-15
-2.37073e-15
-2.7027e-13
-2.68723e-13
-2.75361e-13
-2.80294e-13
-2.82762e-13
-2.75726e-13
-2.71219e-13
-2.80666e-13
-2.85104e-13
-2.88236e-13
-2.82467e-13
-2.7272e-13
-2.74746e-13
-2.72493e-13
-2.78078e-13
-2.70406e-13
-2.65956e-13
-2.65138e-13
-2.80315e-13
-2.79425e-13
-2.80113e-13
-2.84004e-13
-2.81981e-13
-2.69691e-13
-2.72511e-13
-2.67668e-13
-2.76029e-13
-2.72971e-13
-2.73562e-13
-2.74031e-13
-2.73219e-13
-2.69211e-13
-2.68948e-13
-2.70936e-13
-2.7711e-13
-2.77824e-13
-2.77166e-13
-2.70077e-13
-2.66495e-13
-2.67125e-13
-2.65229e-13
-2.64341e-13
-2.65416e-13
-2.64487e-13
-2.53537e-13
-2.57461e-13
-2.71076e-13
-2.76983e-13
-2.66951e-13
-2.54451e-13
-2.52209e-13
-2.44579e-13
-2.45587e-13
-2.52728e-13
-2.56075e-13
-2.41908e-13
-2.36988e-13
-2.3459e-13
-2.26554e-13
-2.18731e-13
-2.10724e-13
-2.03523e-13
-2.01619e-13
-2.00825e-13
-1.91423e-13
-1.89632e-13
-1.87747e-13
-1.79649e-13
-1.7e-13
-1.62818e-13
-1.53679e-13
-1.54461e-13
-1.50803e-13
-1.44233e-13
-1.37753e-13
-1.33103e-13
-1.24436e-13
-1.15278e-13
-1.06043e-13
-1.0192e-13
-9.84848e-14
-1.06484e-13
-1.01529e-13
-9.51531e-14
-9.27274e-14
-8.42332e-14
-7.71445e-14
-7.15698e-14
-6.69284e-14
-5.75785e-14
-4.99634e-14
-4.43632e-14
-3.45203e-14
-2.43693e-14
-1.83735e-14
-2.14957e-14
-1.82112e-14
-6.28976e-15
-7.17456e-15
-6.37375e-15
-2.67959e-13
-2.74156e-13
-2.77304e-13
-2.84162e-13
-2.77691e-13
-2.77583e-13
-2.7246e-13
-2.80457e-13
-2.85919e-13
-2.84655e-13
-2.815e-13
-2.77165e-13
-2.8111e-13
-2.73229e-13
-2.76506e-13
-2.65788e-13
-2.67045e-13
-2.7226e-13
-2.81982e-13
-2.80782e-13
-2.80431e-13
-2.84784e-13
-2.83281e-13
-2.66213e-13
-2.69118e-13
-2.71733e-13
-2.72597e-13
-2.69174e-13
-2.70742e-13
-2.76211e-13
-2.76149e-13
-2.73784e-13
-2.74762e-13
-2.77541e-13
-2.77163e-13
-2.7416e-13
-2.71581e-13
-2.69374e-13
-2.67978e-13
-2.68599e-13
-2.67716e-13
-2.66685e-13
-2.65814e-13
-2.65281e-13
-2.56972e-13
-2.53747e-13
-2.66965e-13
-2.6472e-13
-2.59245e-13
-2.55743e-13
-2.52434e-13
-2.48545e-13
-2.5121e-13
-2.48812e-13
-2.47956e-13
-2.38659e-13
-2.37955e-13
-2.33415e-13
-2.25989e-13
-2.19233e-13
-2.07992e-13
-1.98627e-13
-1.96763e-13
-2.00832e-13
-2.00697e-13
-1.91542e-13
-1.83947e-13
-1.77577e-13
-1.75322e-13
-1.64642e-13
-1.57255e-13
-1.54834e-13
-1.48949e-13
-1.38763e-13
-1.35405e-13
-1.31021e-13
-1.22784e-13
-1.18102e-13
-1.10739e-13
-1.00996e-13
-1.01463e-13
-1.03772e-13
-1.02166e-13
-9.71157e-14
-9.0513e-14
-8.27333e-14
-7.95209e-14
-7.36645e-14
-6.35265e-14
-5.72149e-14
-5.08765e-14
-4.28264e-14
-3.4733e-14
-2.77388e-14
-2.01792e-14
-1.9534e-14
-1.81697e-14
-1.48611e-14
-1.3021e-14
-9.09519e-15
-2.73895e-13
-2.79351e-13
-2.75159e-13
-2.76094e-13
-2.7908e-13
-2.77382e-13
-2.76378e-13
-2.78056e-13
-2.8974e-13
-2.96817e-13
-2.82707e-13
-2.75178e-13
-2.80491e-13
-2.76388e-13
-2.76782e-13
-2.74567e-13
-2.72881e-13
-2.72589e-13
-2.72415e-13
-2.7547e-13
-2.80576e-13
-2.86777e-13
-2.82494e-13
-2.72164e-13
-2.69901e-13
-2.73635e-13
-2.74952e-13
-2.68045e-13
-2.74566e-13
-2.74834e-13
-2.751e-13
-2.78576e-13
-2.78977e-13
-2.71923e-13
-2.76523e-13
-2.74311e-13
-2.7238e-13
-2.71652e-13
-2.6734e-13
-2.69578e-13
-2.74375e-13
-2.73124e-13
-2.68753e-13
-2.63488e-13
-2.54453e-13
-2.5338e-13
-2.56697e-13
-2.60215e-13
-2.57593e-13
-2.54716e-13
-2.5338e-13
-2.48163e-13
-2.46823e-13
-2.44914e-13
-2.47153e-13
-2.41131e-13
-2.38211e-13
-2.3261e-13
-2.22159e-13
-2.18047e-13
-2.00362e-13
-1.90456e-13
-1.86099e-13
-2.01703e-13
-2.07057e-13
-2.02468e-13
-1.85251e-13
-1.78196e-13
-1.72214e-13
-1.62054e-13
-1.51813e-13
-1.5418e-13
-1.44007e-13
-1.38319e-13
-1.3824e-13
-1.32712e-13
-1.23547e-13
-1.23093e-13
-1.20155e-13
-1.04868e-13
-1.02214e-13
-1.0712e-13
-9.92743e-14
-9.51829e-14
-8.58654e-14
-8.56637e-14
-8.15577e-14
-7.27042e-14
-6.61392e-14
-5.67727e-14
-5.25426e-14
-4.53176e-14
-3.79702e-14
-3.23566e-14
-2.3026e-14
-1.98594e-14
-2.13883e-14
-1.89788e-14
-1.22856e-14
-4.0416e-15
-2.76866e-13
-2.79092e-13
-2.80367e-13
-2.75483e-13
-2.74516e-13
-2.81384e-13
-2.85862e-13
-2.81985e-13
-2.81476e-13
-2.89473e-13
-2.88569e-13
-2.81206e-13
-2.7576e-13
-2.72505e-13
-2.75482e-13
-2.69516e-13
-2.7795e-13
-2.70664e-13
-2.74184e-13
-2.8289e-13
-2.8664e-13
-2.8966e-13
-2.83532e-13
-2.78735e-13
-2.79045e-13
-2.74035e-13
-2.62846e-13
-2.70496e-13
-2.77423e-13
-2.72248e-13
-2.80347e-13
-2.78876e-13
-2.77784e-13
-2.77732e-13
-2.75357e-13
-2.73471e-13
-2.76062e-13
-2.69699e-13
-2.69141e-13
-2.70118e-13
-2.70693e-13
-2.76272e-13
-2.72232e-13
-2.6254e-13
-2.55162e-13
-2.54079e-13
-2.51101e-13
-2.64174e-13
-2.60444e-13
-2.53879e-13
-2.50853e-13
-2.42992e-13
-2.41688e-13
-2.44623e-13
-2.43674e-13
-2.37144e-13
-2.34508e-13
-2.30612e-13
-2.23483e-13
-2.18612e-13
-2.04023e-13
-1.95326e-13
-1.95289e-13
-1.94188e-13
-1.90619e-13
-1.89091e-13
-1.83949e-13
-1.79581e-13
-1.70926e-13
-1.64802e-13
-1.56534e-13
-1.51981e-13
-1.4159e-13
-1.40227e-13
-1.39259e-13
-1.36129e-13
-1.27367e-13
-1.27141e-13
-1.16545e-13
-1.01781e-13
-9.9761e-14
-1.01493e-13
-1.00359e-13
-9.96937e-14
-9.41873e-14
-8.69771e-14
-7.89328e-14
-6.93838e-14
-6.88822e-14
-5.71997e-14
-5.41444e-14
-4.46453e-14
-3.43116e-14
-3.03341e-14
-2.47082e-14
-1.91989e-14
-2.41264e-14
-2.65973e-14
-1.79012e-14
-2.74919e-15
-2.74757e-13
-2.78534e-13
-2.80455e-13
-2.77955e-13
-2.74726e-13
-2.81331e-13
-2.83153e-13
-2.79099e-13
-2.78206e-13
-2.9101e-13
-2.92154e-13
-2.83677e-13
-2.79631e-13
-2.82504e-13
-2.84806e-13
-2.78268e-13
-2.70982e-13
-2.64552e-13
-2.74955e-13
-2.76649e-13
-2.8775e-13
-2.89205e-13
-2.81395e-13
-2.7223e-13
-2.8166e-13
-2.86876e-13
-2.72105e-13
-2.71197e-13
-2.76259e-13
-2.73088e-13
-2.75907e-13
-2.81753e-13
-2.85308e-13
-2.78309e-13
-2.75981e-13
-2.7658e-13
-2.78001e-13
-2.70935e-13
-2.70093e-13
-2.72325e-13
-2.70465e-13
-2.73292e-13
-2.74592e-13
-2.62927e-13
-2.59364e-13
-2.55422e-13
-2.4917e-13
-2.58055e-13
-2.58879e-13
-2.48375e-13
-2.48987e-13
-2.43621e-13
-2.4219e-13
-2.42292e-13
-2.41871e-13
-2.3855e-13
-2.32966e-13
-2.285e-13
-2.21537e-13
-2.15163e-13
-1.9792e-13
-1.85022e-13
-1.87663e-13
-1.93695e-13
-1.99139e-13
-1.96192e-13
-1.8762e-13
-1.74296e-13
-1.71348e-13
-1.66108e-13
-1.55878e-13
-1.47597e-13
-1.40828e-13
-1.34952e-13
-1.41836e-13
-1.43647e-13
-1.29894e-13
-1.23236e-13
-1.17179e-13
-1.15066e-13
-1.05405e-13
-9.94639e-14
-1.01295e-13
-9.30195e-14
-9.23904e-14
-8.78539e-14
-8.0503e-14
-7.42835e-14
-6.63321e-14
-5.51038e-14
-5.26715e-14
-4.44872e-14
-3.53395e-14
-3.02033e-14
-2.57586e-14
-2.19495e-14
-2.67483e-14
-2.33075e-14
-1.65132e-14
-3.93719e-15
-2.78339e-13
-2.80963e-13
-2.87547e-13
-2.76212e-13
-2.7428e-13
-2.76836e-13
-2.84245e-13
-2.90897e-13
-2.90837e-13
-2.91904e-13
-2.86091e-13
-2.79816e-13
-2.7155e-13
-2.73958e-13
-2.86002e-13
-2.78536e-13
-2.679e-13
-2.68154e-13
-2.70489e-13
-2.79163e-13
-2.87528e-13
-2.92848e-13
-2.90626e-13
-2.89092e-13
-2.87887e-13
-2.78931e-13
-2.66127e-13
-2.72833e-13
-2.83104e-13
-2.77643e-13
-2.78259e-13
-2.80494e-13
-2.79369e-13
-2.75081e-13
-2.69812e-13
-2.78468e-13
-2.80055e-13
-2.71729e-13
-2.72052e-13
-2.74386e-13
-2.719e-13
-2.69065e-13
-2.69324e-13
-2.69039e-13
-2.69961e-13
-2.61e-13
-2.51728e-13
-2.54004e-13
-2.55217e-13
-2.46077e-13
-2.46371e-13
-2.4045e-13
-2.45267e-13
-2.46459e-13
-2.37237e-13
-2.29279e-13
-2.26187e-13
-2.25855e-13
-2.27706e-13
-2.1789e-13
-2.05597e-13
-1.9508e-13
-1.82837e-13
-1.83525e-13
-1.88256e-13
-1.90961e-13
-1.87872e-13
-1.76603e-13
-1.7269e-13
-1.64072e-13
-1.60452e-13
-1.50332e-13
-1.39642e-13
-1.4039e-13
-1.31678e-13
-1.43281e-13
-1.33257e-13
-1.26203e-13
-1.16236e-13
-1.14464e-13
-1.04986e-13
-9.58736e-14
-9.71223e-14
-9.66622e-14
-9.32806e-14
-8.67641e-14
-8.44816e-14
-7.64762e-14
-6.71426e-14
-5.64718e-14
-5.35736e-14
-4.28529e-14
-3.56296e-14
-3.12021e-14
-2.7858e-14
-2.22073e-14
-2.35065e-14
-2.17535e-14
-1.48478e-14
-2.55094e-15
-2.84367e-13
-2.76993e-13
-2.8273e-13
-2.83434e-13
-2.80535e-13
-2.80143e-13
-2.81108e-13
-2.81771e-13
-2.86427e-13
-2.93648e-13
-2.9363e-13
-2.83253e-13
-2.83557e-13
-2.76378e-13
-2.77248e-13
-2.73616e-13
-2.66234e-13
-2.70467e-13
-2.75845e-13
-2.80516e-13
-2.94868e-13
-2.86639e-13
-2.82454e-13
-2.85645e-13
-2.8892e-13
-2.84579e-13
-2.80962e-13
-2.67392e-13
-2.74788e-13
-2.78267e-13
-2.82183e-13
-2.79038e-13
-2.84374e-13
-2.79205e-13
-2.7696e-13
-2.84168e-13
-2.7649e-13
-2.68247e-13
-2.68987e-13
-2.64495e-13
-2.75752e-13
-2.78687e-13
-2.69275e-13
-2.62651e-13
-2.67696e-13
-2.5895e-13
-2.5376e-13
-2.54296e-13
-2.53814e-13
-2.46239e-13
-2.41749e-13
-2.42629e-13
-2.41658e-13
-2.39366e-13
-2.35352e-13
-2.30777e-13
-2.27265e-13
-2.19381e-13
-2.16711e-13
-2.12219e-13
-2.0743e-13
-1.96399e-13
-1.89627e-13
-1.83948e-13
-1.83388e-13
-1.88862e-13
-1.86699e-13
-1.79665e-13
-1.7325e-13
-1.64396e-13
-1.55813e-13
-1.45748e-13
-1.41282e-13
-1.40923e-13
-1.33582e-13
-1.37657e-13
-1.32354e-13
-1.28316e-13
-1.21684e-13
-1.14266e-13
-1.04814e-13
-1.00447e-13
-9.63663e-14
-1.00118e-13
-9.4157e-14
-8.92928e-14
-8.40178e-14
-7.83075e-14
-6.41177e-14
-5.73175e-14
-4.99831e-14
-4.21824e-14
-3.15963e-14
-3.28426e-14
-3.42545e-14
-2.51726e-14
-2.24023e-14
-1.94609e-14
-1.54465e-14
-8.85098e-15
-2.86658e-13
-2.8436e-13
-2.82231e-13
-2.84627e-13
-2.79825e-13
-2.80728e-13
-2.86344e-13
-2.93426e-13
-2.94173e-13
-2.91431e-13
-2.89108e-13
-2.80661e-13
-2.77358e-13
-2.69833e-13
-2.68507e-13
-2.74973e-13
-2.74112e-13
-2.72157e-13
-2.75846e-13
-2.80487e-13
-2.87575e-13
-2.91851e-13
-2.92919e-13
-2.96695e-13
-2.88523e-13
-2.76986e-13
-2.78008e-13
-2.72125e-13
-2.81962e-13
-2.79756e-13
-2.81369e-13
-2.76378e-13
-2.78281e-13
-2.74603e-13
-2.77135e-13
-2.77762e-13
-2.72264e-13
-2.67537e-13
-2.66031e-13
-2.69639e-13
-2.74532e-13
-2.77985e-13
-2.76817e-13
-2.65832e-13
-2.65666e-13
-2.60979e-13
-2.54933e-13
-2.52466e-13
-2.48668e-13
-2.42114e-13
-2.35344e-13
-2.43388e-13
-2.39197e-13
-2.3902e-13
-2.39138e-13
-2.33713e-13
-2.30191e-13
-2.22947e-13
-2.15165e-13
-2.06877e-13
-2.07353e-13
-1.93025e-13
-1.87398e-13
-1.82411e-13
-1.93856e-13
-1.95941e-13
-1.84628e-13
-1.79352e-13
-1.70151e-13
-1.6478e-13
-1.56979e-13
-1.4537e-13
-1.45378e-13
-1.41207e-13
-1.36528e-13
-1.36011e-13
-1.30907e-13
-1.30308e-13
-1.17043e-13
-1.09966e-13
-1.02553e-13
-9.48182e-14
-9.94888e-14
-1.02595e-13
-9.01115e-14
-8.94509e-14
-8.57116e-14
-7.87579e-14
-6.15445e-14
-5.42159e-14
-5.06123e-14
-4.00572e-14
-3.90538e-14
-2.72008e-14
-2.92478e-14
-2.80161e-14
-2.41803e-14
-2.05311e-14
-1.49029e-14
-9.53097e-15
-2.90198e-13
-2.84942e-13
-2.90145e-13
-2.8575e-13
-2.80419e-13
-2.75087e-13
-2.80004e-13
-2.89716e-13
-3.00166e-13
-2.99138e-13
-2.89331e-13
-2.80715e-13
-2.77453e-13
-2.75133e-13
-2.71684e-13
-2.77102e-13
-2.74232e-13
-2.692e-13
-2.74756e-13
-2.87229e-13
-2.93865e-13
-2.96687e-13
-2.95381e-13
-2.92777e-13
-2.88076e-13
-2.83911e-13
-2.76782e-13
-2.66692e-13
-2.73102e-13
-2.77164e-13
-2.81805e-13
-2.77256e-13
-2.74838e-13
-2.7449e-13
-2.87315e-13
-2.77823e-13
-2.75344e-13
-2.67431e-13
-2.6831e-13
-2.66823e-13
-2.74086e-13
-2.74197e-13
-2.69326e-13
-2.65725e-13
-2.66728e-13
-2.59393e-13
-2.54635e-13
-2.53964e-13
-2.44794e-13
-2.43259e-13
-2.38171e-13
-2.41528e-13
-2.35962e-13
-2.41232e-13
-2.35907e-13
-2.29684e-13
-2.2964e-13
-2.20735e-13
-2.13516e-13
-2.14522e-13
-2.0613e-13
-1.95614e-13
-1.92471e-13
-1.82059e-13
-1.92648e-13
-1.92559e-13
-1.92594e-13
-1.79509e-13
-1.71971e-13
-1.59941e-13
-1.53367e-13
-1.46584e-13
-1.43217e-13
-1.39516e-13
-1.36338e-13
-1.38692e-13
-1.28545e-13
-1.26645e-13
-1.18943e-13
-1.12288e-13
-1.00644e-13
-9.97609e-14
-1.01739e-13
-9.72207e-14
-8.6341e-14
-8.59102e-14
-7.7876e-14
-7.62806e-14
-6.07424e-14
-5.7633e-14
-5.16529e-14
-4.24348e-14
-4.14165e-14
-3.19634e-14
-3.13699e-14
-2.15165e-14
-2.12463e-14
-1.87042e-14
-1.63758e-14
-9.8602e-15
-2.8498e-13
-2.85784e-13
-2.91606e-13
-2.9111e-13
-2.81811e-13
-2.93273e-13
-2.93765e-13
-2.90123e-13
-2.93034e-13
-2.88752e-13
-2.88578e-13
-2.85558e-13
-2.82337e-13
-2.77363e-13
-2.7711e-13
-2.71097e-13
-2.70639e-13
-2.69005e-13
-2.82287e-13
-2.86376e-13
-2.95924e-13
-2.94427e-13
-2.91707e-13
-2.8887e-13
-2.90317e-13
-2.8731e-13
-2.78201e-13
-2.73301e-13
-2.75662e-13
-2.77171e-13
-2.79078e-13
-2.82223e-13
-2.80808e-13
-2.74507e-13
-2.76142e-13
-2.6952e-13
-2.69794e-13
-2.70669e-13
-2.65891e-13
-2.64214e-13
-2.70009e-13
-2.69194e-13
-2.63224e-13
-2.60351e-13
-2.66104e-13
-2.62753e-13
-2.587e-13
-2.52743e-13
-2.47141e-13
-2.36563e-13
-2.42721e-13
-2.40068e-13
-2.31879e-13
-2.38861e-13
-2.3974e-13
-2.3602e-13
-2.31508e-13
-2.20449e-13
-2.13441e-13
-2.01331e-13
-1.97882e-13
-2.00302e-13
-1.93244e-13
-1.87303e-13
-1.95005e-13
-1.91328e-13
-1.88493e-13
-1.80748e-13
-1.69879e-13
-1.5728e-13
-1.55024e-13
-1.50324e-13
-1.46996e-13
-1.40178e-13
-1.34813e-13
-1.3522e-13
-1.32346e-13
-1.34549e-13
-1.17855e-13
-1.04179e-13
-9.78035e-14
-9.55197e-14
-1.02521e-13
-1.01225e-13
-8.64227e-14
-8.08409e-14
-7.88026e-14
-7.72678e-14
-6.81668e-14
-5.96196e-14
-4.85719e-14
-4.13044e-14
-3.65639e-14
-3.31817e-14
-3.26707e-14
-2.94728e-14
-1.96896e-14
-1.43834e-14
-1.43978e-14
-9.57335e-15
-2.87068e-13
-2.87948e-13
-2.88511e-13
-2.95025e-13
-2.83756e-13
-2.84248e-13
-2.93451e-13
-3.00407e-13
-2.96988e-13
-2.94455e-13
-2.91376e-13
-2.79057e-13
-2.81172e-13
-2.82326e-13
-2.81205e-13
-2.74403e-13
-2.72331e-13
-2.74823e-13
-2.81722e-13
-2.84344e-13
-2.94908e-13
-2.98042e-13
-2.95106e-13
-2.87665e-13
-2.85308e-13
-2.8384e-13
-2.79605e-13
-2.73594e-13
-2.74269e-13
-2.71892e-13
-2.7294e-13
-2.75951e-13
-2.80351e-13
-2.76962e-13
-2.82059e-13
-2.73392e-13
-2.73432e-13
-2.70642e-13
-2.62104e-13
-2.63348e-13
-2.68983e-13
-2.68647e-13
-2.58849e-13
-2.64924e-13
-2.69002e-13
-2.63389e-13
-2.49924e-13
-2.48205e-13
-2.44015e-13
-2.37592e-13
-2.38354e-13
-2.38763e-13
-2.37078e-13
-2.38105e-13
-2.38053e-13
-2.3387e-13
-2.3378e-13
-2.31964e-13
-2.13193e-13
-1.99248e-13
-1.95995e-13
-1.99109e-13
-1.97136e-13
-1.91022e-13
-1.92777e-13
-1.83765e-13
-1.85566e-13
-1.81926e-13
-1.70411e-13
-1.65764e-13
-1.56932e-13
-1.51185e-13
-1.44955e-13
-1.40226e-13
-1.34512e-13
-1.39513e-13
-1.34788e-13
-1.29475e-13
-1.18614e-13
-1.0505e-13
-1.01281e-13
-9.45792e-14
-9.7198e-14
-9.61002e-14
-9.03959e-14
-7.90688e-14
-7.82855e-14
-7.662e-14
-6.87559e-14
-6.52663e-14
-4.4244e-14
-4.46739e-14
-4.12673e-14
-3.89244e-14
-3.61264e-14
-2.72072e-14
-1.76038e-14
-1.66152e-14
-1.04792e-14
-9.27894e-15
-2.92549e-13
-2.91622e-13
-2.89273e-13
-2.89374e-13
-2.8907e-13
-2.92384e-13
-2.93814e-13
-2.99458e-13
-2.95762e-13
-2.91476e-13
-2.88156e-13
-2.84723e-13
-2.84108e-13
-2.80215e-13
-2.80307e-13
-2.77402e-13
-2.75985e-13
-2.80615e-13
-2.81305e-13
-2.87323e-13
-2.90954e-13
-2.92881e-13
-2.93743e-13
-2.90268e-13
-2.92724e-13
-2.85941e-13
-2.75616e-13
-2.74466e-13
-2.72494e-13
-2.73016e-13
-2.7369e-13
-2.76849e-13
-2.77229e-13
-2.77474e-13
-2.76322e-13
-2.69553e-13
-2.7094e-13
-2.68884e-13
-2.61818e-13
-2.66235e-13
-2.67359e-13
-2.64578e-13
-2.5914e-13
-2.64436e-13
-2.72802e-13
-2.58546e-13
-2.49627e-13
-2.46828e-13
-2.44256e-13
-2.4253e-13
-2.37276e-13
-2.40557e-13
-2.39611e-13
-2.41852e-13
-2.35e-13
-2.3401e-13
-2.32229e-13
-2.18173e-13
-2.10639e-13
-2.0261e-13
-2.00468e-13
-1.99492e-13
-1.97196e-13
-1.90911e-13
-1.89784e-13
-1.82689e-13
-1.85215e-13
-1.79142e-13
-1.7341e-13
-1.66565e-13
-1.62149e-13
-1.54475e-13
-1.49442e-13
-1.3988e-13
-1.31732e-13
-1.34605e-13
-1.3691e-13
-1.29281e-13
-1.24816e-13
-1.12165e-13
-9.93676e-14
-9.77323e-14
-9.33481e-14
-8.59306e-14
-8.49935e-14
-8.90079e-14
-8.26761e-14
-7.19298e-14
-6.89327e-14
-6.16054e-14
-5.4216e-14
-4.541e-14
-4.2715e-14
-3.82526e-14
-3.42181e-14
-2.69536e-14
-2.20744e-14
-1.80452e-14
-1.23473e-14
-6.75807e-15
-2.86919e-13
-2.88401e-13
-2.93931e-13
-2.95523e-13
-2.96266e-13
-3.0036e-13
-2.94148e-13
-2.94802e-13
-2.9456e-13
-2.87517e-13
-2.90016e-13
-2.87975e-13
-2.88557e-13
-2.81595e-13
-2.7568e-13
-2.77198e-13
-2.83169e-13
-2.84785e-13
-2.83207e-13
-2.80399e-13
-2.9474e-13
-2.95225e-13
-2.91425e-13
-2.89558e-13
-2.86344e-13
-2.85502e-13
-2.81875e-13
-2.73668e-13
-2.69106e-13
-2.67286e-13
-2.70822e-13
-2.72688e-13
-2.83346e-13
-2.80178e-13
-2.75226e-13
-2.71511e-13
-2.68503e-13
-2.67191e-13
-2.67496e-13
-2.6656e-13
-2.64565e-13
-2.65949e-13
-2.58283e-13
-2.58811e-13
-2.68335e-13
-2.57604e-13
-2.53704e-13
-2.47591e-13
-2.44367e-13
-2.43571e-13
-2.36878e-13
-2.40922e-13
-2.38735e-13
-2.36484e-13
-2.40309e-13
-2.36556e-13
-2.33947e-13
-2.21019e-13
-2.1074e-13
-2.00017e-13
-1.97995e-13
-1.91461e-13
-1.96358e-13
-1.95801e-13
-1.90318e-13
-1.85525e-13
-1.85934e-13
-1.78246e-13
-1.74055e-13
-1.66917e-13
-1.59599e-13
-1.58763e-13
-1.47194e-13
-1.44815e-13
-1.38756e-13
-1.36916e-13
-1.36467e-13
-1.31494e-13
-1.24391e-13
-1.10377e-13
-9.95197e-14
-9.6705e-14
-9.01257e-14
-8.85013e-14
-8.22153e-14
-8.16701e-14
-8.31924e-14
-7.21246e-14
-6.75771e-14
-6.32754e-14
-5.8097e-14
-4.98836e-14
-3.5854e-14
-3.34908e-14
-3.97329e-14
-2.84089e-14
-2.07509e-14
-2.23221e-14
-1.12883e-14
-7.70008e-16
-2.84356e-13
-2.89943e-13
-2.96255e-13
-2.95832e-13
-2.97916e-13
-2.98824e-13
-2.9543e-13
-2.93102e-13
-2.89358e-13
-2.95805e-13
-2.93683e-13
-2.83575e-13
-2.83357e-13
-2.79289e-13
-2.79613e-13
-2.76201e-13
-2.77015e-13
-2.85455e-13
-2.8895e-13
-2.92334e-13
-2.93504e-13
-2.95833e-13
-2.94238e-13
-2.88341e-13
-2.85978e-13
-2.86176e-13
-2.7888e-13
-2.79492e-13
-2.73271e-13
-2.66026e-13
-2.66053e-13
-2.70242e-13
-2.79335e-13
-2.85522e-13
-2.79858e-13
-2.80504e-13
-2.66066e-13
-2.58475e-13
-2.67333e-13
-2.71716e-13
-2.6597e-13
-2.61955e-13
-2.58741e-13
-2.60452e-13
-2.62806e-13
-2.62668e-13
-2.53998e-13
-2.49621e-13
-2.48489e-13
-2.42913e-13
-2.39079e-13
-2.4232e-13
-2.38785e-13
-2.38042e-13
-2.36475e-13
-2.30112e-13
-2.29369e-13
-2.27212e-13
-2.10976e-13
-1.99988e-13
-1.92408e-13
-1.90533e-13
-2.02263e-13
-2.00298e-13
-1.94339e-13
-1.84727e-13
-1.83651e-13
-1.7717e-13
-1.76038e-13
-1.62892e-13
-1.63165e-13
-1.58588e-13
-1.52455e-13
-1.44671e-13
-1.44714e-13
-1.41263e-13
-1.31262e-13
-1.22336e-13
-1.2417e-13
-1.21666e-13
-1.06238e-13
-9.03235e-14
-8.5695e-14
-8.97122e-14
-8.7568e-14
-8.4172e-14
-7.73957e-14
-6.94226e-14
-6.58903e-14
-5.81061e-14
-5.89463e-14
-5.16661e-14
-4.35745e-14
-3.56536e-14
-3.75861e-14
-2.89049e-14
-2.14693e-14
-1.92413e-14
-4.08377e-15
-1.50866e-15
-2.865e-13
-2.89363e-13
-2.9617e-13
-2.96478e-13
-2.97558e-13
-2.99241e-13
-2.99357e-13
-2.94064e-13
-2.90726e-13
-2.92456e-13
-2.88995e-13
-2.79448e-13
-2.84443e-13
-2.82862e-13
-2.87696e-13
-2.87932e-13
-2.8624e-13
-2.81081e-13
-2.84319e-13
-2.89667e-13
-2.92315e-13
-2.96265e-13
-2.94103e-13
-2.85742e-13
-2.80216e-13
-2.77414e-13
-2.80126e-13
-2.91712e-13
-2.77481e-13
-2.67776e-13
-2.76257e-13
-2.68864e-13
-2.72169e-13
-2.76214e-13
-2.8027e-13
-2.82826e-13
-2.74031e-13
-2.67113e-13
-2.72593e-13
-2.70072e-13
-2.63263e-13
-2.61809e-13
-2.58556e-13
-2.61187e-13
-2.60633e-13
-2.56967e-13
-2.52501e-13
-2.50833e-13
-2.50473e-13
-2.49853e-13
-2.41439e-13
-2.4392e-13
-2.32988e-13
-2.39579e-13
-2.39403e-13
-2.33882e-13
-2.31333e-13
-2.19251e-13
-2.07912e-13
-1.97475e-13
-1.91756e-13
-1.96975e-13
-2.03299e-13
-1.95652e-13
-1.95203e-13
-1.85348e-13
-1.83926e-13
-1.77885e-13
-1.76581e-13
-1.66576e-13
-1.68731e-13
-1.53992e-13
-1.51214e-13
-1.51177e-13
-1.49053e-13
-1.46217e-13
-1.30026e-13
-1.28652e-13
-1.23854e-13
-1.06278e-13
-1.0023e-13
-9.04064e-14
-9.25136e-14
-9.04859e-14
-8.3311e-14
-8.42449e-14
-7.8026e-14
-6.72226e-14
-6.31373e-14
-5.99697e-14
-5.95776e-14
-5.60649e-14
-4.96687e-14
-3.94854e-14
-3.01252e-14
-2.29497e-14
-1.95142e-14
-1.83676e-14
-1.25008e-14
-6.34907e-15
-2.87089e-13
-2.86255e-13
-2.90547e-13
-2.93338e-13
-2.96934e-13
-3.00322e-13
-2.98871e-13
-3.0013e-13
-2.92302e-13
-2.94419e-13
-2.91614e-13
-2.82232e-13
-2.8225e-13
-2.87169e-13
-2.89413e-13
-2.868e-13
-2.81148e-13
-2.80197e-13
-2.90596e-13
-2.89251e-13
-2.92898e-13
-2.93263e-13
-2.97816e-13
-2.89212e-13
-2.83692e-13
-2.85474e-13
-2.80485e-13
-2.84165e-13
-2.7721e-13
-2.72928e-13
-2.71992e-13
-2.72483e-13
-2.80478e-13
-2.82871e-13
-2.79069e-13
-2.79571e-13
-2.71298e-13
-2.66941e-13
-2.66079e-13
-2.62144e-13
-2.7238e-13
-2.66812e-13
-2.65048e-13
-2.59832e-13
-2.53861e-13
-2.51956e-13
-2.56991e-13
-2.59955e-13
-2.47822e-13
-2.45399e-13
-2.43641e-13
-2.41815e-13
-2.36223e-13
-2.36149e-13
-2.37512e-13
-2.34943e-13
-2.29788e-13
-2.2078e-13
-2.05855e-13
-1.98588e-13
-1.9529e-13