/*--------------------------------*- C++ -*----------------------------------*\
| =========                 |                                                 |
| \\      /  F ield         | OpenFOAM: The Open Source CFD Toolbox           |
|  \\    /   O peration     | Version:  v2012                                 |
|   \\  /    A nd           | Website:  www.openfoam.com                      |
|    \\/     M anipulation  |                                                 |
\*---------------------------------------------------------------------------*/
FoamFile
{
    version     2.0;
    format      ascii;
    class       volVectorField;
    location    "18";
    object      U;
}
// * * * * * * * * * * * * * * * * * * * * * * * * * * * * * * * * * * * * * //

dimensions      [0 1 -1 0 0 0 0];


internalField   nonuniform List<vector> 
65536
(
(0.000659819 -0.000659836 0)
(0.00197949 -0.000659871 0)
(0.00329927 -0.00065994 0)
(0.00461922 -0.000660044 0)
(0.00593941 -0.000660182 0)
(0.00725992 -0.000660354 0)
(0.0085808 -0.000660559 0)
(0.00990212 -0.000660798 0)
(0.011224 -0.000661069 0)
(0.0125464 -0.000661372 0)
(0.0138694 -0.000661707 0)
(0.0151932 -0.000662073 0)
(0.0165177 -0.000662468 0)
(0.017843 -0.000662893 0)
(0.0191692 -0.000663346 0)
(0.0204964 -0.000663826 0)
(0.0218245 -0.000664333 0)
(0.0231537 -0.000664864 0)
(0.0244839 -0.000665419 0)
(0.0258153 -0.000665996 0)
(0.0271479 -0.000666594 0)
(0.0284817 -0.000667211 0)
(0.0298167 -0.000667846 0)
(0.0311531 -0.000668497 0)
(0.0324907 -0.000669162 0)
(0.0338297 -0.00066984 0)
(0.0351701 -0.000670528 0)
(0.0365118 -0.000671223 0)
(0.0378549 -0.000671925 0)
(0.0391995 -0.000672631 0)
(0.0405455 -0.000673338 0)
(0.0418929 -0.000674044 0)
(0.0432417 -0.000674745 0)
(0.0445918 -0.00067544 0)
(0.0459434 -0.000676125 0)
(0.0472964 -0.000676798 0)
(0.0486506 -0.000677455 0)
(0.0500062 -0.000678093 0)
(0.051363 -0.000678708 0)
(0.0527211 -0.000679297 0)
(0.0540802 -0.000679857 0)
(0.0554405 -0.000680384 0)
(0.0568018 -0.000680873 0)
(0.0581641 -0.00068132 0)
(0.0595271 -0.000681722 0)
(0.060891 -0.000682075 0)
(0.0622555 -0.000682372 0)
(0.0636205 -0.000682611 0)
(0.064986 -0.000682786 0)
(0.0663518 -0.000682892 0)
(0.0677177 -0.000682924 0)
(0.0690835 -0.000682877 0)
(0.0704492 -0.000682745 0)
(0.0718146 -0.000682524 0)
(0.0731794 -0.000682207 0)
(0.0745435 -0.000681789 0)
(0.0759067 -0.000681264 0)
(0.0772687 -0.000680626 0)
(0.0786293 -0.000679868 0)
(0.0799883 -0.000678984 0)
(0.0813454 -0.000677969 0)
(0.0827003 -0.000676815 0)
(0.0840528 -0.000675515 0)
(0.0854025 -0.000674064 0)
(0.0867492 -0.000672455 0)
(0.0880925 -0.00067068 0)
(0.0894321 -0.000668732 0)
(0.0907676 -0.000666605 0)
(0.0920987 -0.000664291 0)
(0.093425 -0.000661784 0)
(0.0947461 -0.000659076 0)
(0.0960615 -0.000656161 0)
(0.0973709 -0.00065303 0)
(0.0986739 -0.000649678 0)
(0.0999699 -0.000646096 0)
(0.101258 -0.000642279 0)
(0.102539 -0.000638218 0)
(0.103812 -0.000633908 0)
(0.105075 -0.000629341 0)
(0.106329 -0.000624511 0)
(0.107573 -0.000619411 0)
(0.108807 -0.000614036 0)
(0.11003 -0.000608378 0)
(0.111241 -0.000602433 0)
(0.11244 -0.000596194 0)
(0.113626 -0.000589656 0)
(0.114799 -0.000582815 0)
(0.115958 -0.000575664 0)
(0.117102 -0.000568201 0)
(0.118231 -0.00056042 0)
(0.119344 -0.000552318 0)
(0.12044 -0.000543892 0)
(0.12152 -0.000535139 0)
(0.122581 -0.000526056 0)
(0.123624 -0.000516642 0)
(0.124648 -0.000506896 0)
(0.125652 -0.000496815 0)
(0.126636 -0.0004864 0)
(0.127598 -0.000475651 0)
(0.128539 -0.000464569 0)
(0.129457 -0.000453156 0)
(0.130352 -0.000441412 0)
(0.131223 -0.000429341 0)
(0.132069 -0.000416946 0)
(0.132891 -0.000404232 0)
(0.133687 -0.000391201 0)
(0.134456 -0.000377861 0)
(0.135198 -0.000364215 0)
(0.135913 -0.000350272 0)
(0.1366 -0.000336039 0)
(0.137257 -0.000321522 0)
(0.137886 -0.000306732 0)
(0.138485 -0.000291676 0)
(0.139053 -0.000276365 0)
(0.13959 -0.00026081 0)
(0.140096 -0.00024502 0)
(0.140571 -0.000229009 0)
(0.141013 -0.000212788 0)
(0.141422 -0.00019637 0)
(0.141798 -0.000179767 0)
(0.142141 -0.000162995 0)
(0.14245 -0.000146067 0)
(0.142726 -0.000128998 0)
(0.142967 -0.000111802 0)
(0.143173 -9.4495e-05 0)
(0.143345 -7.70927e-05 0)
(0.143481 -5.96109e-05 0)
(0.143583 -4.20655e-05 0)
(0.14365 -2.44728e-05 0)
(0.143681 -6.84916e-06 0)
(0.143677 1.0789e-05 0)
(0.143638 2.84252e-05 0)
(0.143563 4.6043e-05 0)
(0.143454 6.36261e-05 0)
(0.143309 8.11583e-05 0)
(0.143129 9.86233e-05 0)
(0.142914 0.000116005 0)
(0.142665 0.000133289 0)
(0.142381 0.000150458 0)
(0.142063 0.000167499 0)
(0.141711 0.000184396 0)
(0.141325 0.000201135 0)
(0.140906 0.000217702 0)
(0.140454 0.000234084 0)
(0.13997 0.000250268 0)
(0.139453 0.000266242 0)
(0.138904 0.000281994 0)
(0.138325 0.000297512 0)
(0.137714 0.000312787 0)
(0.137073 0.000327808 0)
(0.136403 0.000342566 0)
(0.135703 0.000357051 0)
(0.134974 0.000371257 0)
(0.134217 0.000385175 0)
(0.133433 0.000398799 0)
(0.132622 0.000412123 0)
(0.131784 0.00042514 0)
(0.130921 0.000437847 0)
(0.130033 0.00045024 0)
(0.12912 0.000462313 0)
(0.128183 0.000474066 0)
(0.127223 0.000485494 0)
(0.126241 0.000496598 0)
(0.125236 0.000507374 0)
(0.124211 0.000517824 0)
(0.123165 0.000527947 0)
(0.122099 0.000537743 0)
(0.121014 0.000547213 0)
(0.11991 0.000556359 0)
(0.118788 0.000565184 0)
(0.117649 0.000573688 0)
(0.116493 0.000581876 0)
(0.115321 0.00058975 0)
(0.114133 0.000597314 0)
(0.112931 0.000604572 0)
(0.111715 0.000611529 0)
(0.110485 0.000618188 0)
(0.109242 0.000624555 0)
(0.107986 0.000630636 0)
(0.106719 0.000636434 0)
(0.10544 0.000641957 0)
(0.104151 0.000647209 0)
(0.102851 0.000652197 0)
(0.101542 0.000656928 0)
(0.100223 0.000661406 0)
(0.0988959 0.00066564 0)
(0.0975604 0.000669634 0)
(0.0962171 0.000673396 0)
(0.0948666 0.000676933 0)
(0.0935092 0.000680251 0)
(0.0921454 0.000683357 0)
(0.0907755 0.000686258 0)
(0.0894001 0.000688961 0)
(0.0880195 0.000691472 0)
(0.0866341 0.000693798 0)
(0.0852441 0.000695946 0)
(0.0838501 0.000697922 0)
(0.0824523 0.000699734 0)
(0.081051 0.000701388 0)
(0.0796466 0.00070289 0)
(0.0782393 0.000704247 0)
(0.0768295 0.000705465 0)
(0.0754173 0.000706551 0)
(0.0740031 0.000707511 0)
(0.0725872 0.000708351 0)
(0.0711696 0.000709076 0)
(0.0697507 0.000709694 0)
(0.0683307 0.000710209 0)
(0.0669098 0.000710627 0)
(0.0654881 0.000710954 0)
(0.0640659 0.000711196 0)
(0.0626433 0.000711357 0)
(0.0612204 0.000711442 0)
(0.0597974 0.000711458 0)
(0.0583745 0.000711408 0)
(0.0569517 0.000711298 0)
(0.0555293 0.000711132 0)
(0.0541072 0.000710915 0)
(0.0526856 0.000710651 0)
(0.0512645 0.000710345 0)
(0.0498441 0.00071 0)
(0.0484245 0.00070962 0)
(0.0470056 0.00070921 0)
(0.0455876 0.000708773 0)
(0.0441705 0.000708313 0)
(0.0427543 0.000707833 0)
(0.0413392 0.000707337 0)
(0.039925 0.000706828 0)
(0.0385118 0.000706309 0)
(0.0370997 0.000705783 0)
(0.0356887 0.000705253 0)
(0.0342787 0.000704721 0)
(0.0328698 0.000704191 0)
(0.031462 0.000703664 0)
(0.0300552 0.000703144 0)
(0.0286494 0.000702632 0)
(0.0272447 0.000702131 0)
(0.0258409 0.000701642 0)
(0.0244381 0.000701168 0)
(0.0230362 0.000700711 0)
(0.0216353 0.000700271 0)
(0.0202352 0.000699852 0)
(0.0188359 0.000699453 0)
(0.0174374 0.000699078 0)
(0.0160396 0.000698726 0)
(0.0146425 0.000698399 0)
(0.013246 0.000698099 0)
(0.0118501 0.000697826 0)
(0.0104548 0.000697581 0)
(0.00905985 0.000697365 0)
(0.00766534 0.000697179 0)
(0.00627117 0.000697022 0)
(0.00487728 0.000696897 0)
(0.00348362 0.000696802 0)
(0.00209011 0.000696739 0)
(0.000696692 0.000696708 0)
(0.000659785 -0.00197948 0)
(0.00197939 -0.00197958 0)
(0.0032991 -0.00197979 0)
(0.00461898 -0.0019801 0)
(0.00593911 -0.00198051 0)
(0.00725954 -0.00198103 0)
(0.00858036 -0.00198165 0)
(0.00990162 -0.00198236 0)
(0.0112234 -0.00198318 0)
(0.0125457 -0.00198409 0)
(0.0138687 -0.00198509 0)
(0.0151924 -0.00198619 0)
(0.0165169 -0.00198738 0)
(0.0178421 -0.00198865 0)
(0.0191683 -0.00199001 0)
(0.0204954 -0.00199145 0)
(0.0218235 -0.00199297 0)
(0.0231526 -0.00199457 0)
(0.0244828 -0.00199624 0)
(0.0258142 -0.00199797 0)
(0.0271467 -0.00199976 0)
(0.0284805 -0.00200162 0)
(0.0298155 -0.00200352 0)
(0.0311518 -0.00200548 0)
(0.0324894 -0.00200748 0)
(0.0338283 -0.00200951 0)
(0.0351687 -0.00201158 0)
(0.0365104 -0.00201367 0)
(0.0378536 -0.00201577 0)
(0.0391981 -0.00201789 0)
(0.0405441 -0.00202002 0)
(0.0418915 -0.00202214 0)
(0.0432403 -0.00202424 0)
(0.0445905 -0.00202633 0)
(0.0459421 -0.00202839 0)
(0.0472951 -0.00203041 0)
(0.0486494 -0.00203238 0)
(0.050005 -0.0020343 0)
(0.0513618 -0.00203615 0)
(0.0527199 -0.00203792 0)
(0.0540792 -0.00203961 0)
(0.0554395 -0.00204119 0)
(0.0568009 -0.00204266 0)
(0.0581632 -0.00204401 0)
(0.0595264 -0.00204522 0)
(0.0608904 -0.00204628 0)
(0.062255 -0.00204718 0)
(0.0636202 -0.0020479 0)
(0.0649858 -0.00204843 0)
(0.0663517 -0.00204875 0)
(0.0677177 -0.00204885 0)
(0.0690838 -0.00204872 0)
(0.0704496 -0.00204833 0)
(0.0718152 -0.00204767 0)
(0.0731802 -0.00204673 0)
(0.0745445 -0.00204548 0)
(0.0759079 -0.00204391 0)
(0.0772702 -0.002042 0)
(0.078631 -0.00203973 0)
(0.0799903 -0.00203709 0)
(0.0813476 -0.00203405 0)
(0.0827028 -0.00203059 0)
(0.0840556 -0.0020267 0)
(0.0854056 -0.00202235 0)
(0.0867527 -0.00201753 0)
(0.0880963 -0.00201221 0)
(0.0894362 -0.00200638 0)
(0.0907721 -0.002 0)
(0.0921036 -0.00199307 0)
(0.0934303 -0.00198555 0)
(0.0947517 -0.00197744 0)
(0.0960676 -0.0019687 0)
(0.0973775 -0.00195931 0)
(0.0986808 -0.00194926 0)
(0.0999773 -0.00193853 0)
(0.101266 -0.00192708 0)
(0.102548 -0.00191491 0)
(0.103821 -0.00190198 0)
(0.105085 -0.00188829 0)
(0.106339 -0.0018738 0)
(0.107584 -0.00185851 0)
(0.108818 -0.00184239 0)
(0.110042 -0.00182542 0)
(0.111253 -0.00180759 0)
(0.112453 -0.00178888 0)
(0.113639 -0.00176927 0)
(0.114813 -0.00174875 0)
(0.115972 -0.00172731 0)
(0.117117 -0.00170492 0)
(0.118247 -0.00168158 0)
(0.11936 -0.00165728 0)
(0.120458 -0.001632 0)
(0.121538 -0.00160575 0)
(0.1226 -0.0015785 0)
(0.123643 -0.00155026 0)
(0.124668 -0.00152102 0)
(0.125673 -0.00149078 0)
(0.126657 -0.00145953 0)
(0.12762 -0.00142729 0)
(0.128561 -0.00139404 0)
(0.12948 -0.0013598 0)
(0.130375 -0.00132456 0)
(0.131247 -0.00128835 0)
(0.132094 -0.00125116 0)
(0.132917 -0.00121301 0)
(0.133713 -0.00117391 0)
(0.134483 -0.00113388 0)
(0.135226 -0.00109294 0)
(0.135941 -0.00105111 0)
(0.136628 -0.0010084 0)
(0.137287 -0.000964839 0)
(0.137916 -0.000920458 0)
(0.138515 -0.000875281 0)
(0.139084 -0.000829338 0)
(0.139622 -0.00078266 0)
(0.140128 -0.000735281 0)
(0.140603 -0.000687234 0)
(0.141045 -0.000638558 0)
(0.141455 -0.00058929 0)
(0.141832 -0.00053947 0)
(0.142175 -0.000489139 0)
(0.142485 -0.00043834 0)
(0.14276 -0.000387116 0)
(0.143001 -0.000335514 0)
(0.143208 -0.000283578 0)
(0.14338 -0.000231355 0)
(0.143516 -0.000178893 0)
(0.143618 -0.000126241 0)
(0.143685 -7.34462e-05 0)
(0.143716 -2.05589e-05 0)
(0.143712 3.23719e-05 0)
(0.143673 8.5297e-05 0)
(0.143599 0.000138167 0)
(0.143489 0.000190932 0)
(0.143344 0.000243545 0)
(0.143164 0.000295956 0)
(0.142949 0.000348118 0)
(0.142699 0.000399984 0)
(0.142415 0.000451507 0)
(0.142097 0.000502643 0)
(0.141745 0.000553348 0)
(0.141358 0.000603579 0)
(0.140939 0.000653294 0)
(0.140487 0.000702453 0)
(0.140002 0.000751017 0)
(0.139485 0.000798951 0)
(0.138936 0.000846217 0)
(0.138355 0.000892784 0)
(0.137744 0.000938618 0)
(0.137103 0.00098369 0)
(0.136432 0.00102797 0)
(0.135731 0.00107144 0)
(0.135002 0.00111406 0)
(0.134245 0.00115582 0)
(0.13346 0.0011967 0)
(0.132648 0.00123668 0)
(0.13181 0.00127573 0)
(0.130946 0.00131386 0)
(0.130057 0.00135104 0)
(0.129144 0.00138726 0)
(0.128206 0.00142252 0)
(0.127246 0.00145681 0)
(0.126263 0.00149012 0)
(0.125258 0.00152245 0)
(0.124231 0.0015538 0)
(0.123185 0.00158417 0)
(0.122118 0.00161356 0)
(0.121032 0.00164197 0)
(0.119928 0.0016694 0)
(0.118805 0.00169587 0)
(0.117665 0.00172138 0)
(0.116509 0.00174594 0)
(0.115336 0.00176956 0)
(0.114148 0.00179225 0)
(0.112945 0.00181402 0)
(0.111728 0.00183488 0)
(0.110498 0.00185486 0)
(0.109254 0.00187395 0)
(0.107998 0.00189219 0)
(0.10673 0.00190958 0)
(0.105451 0.00192614 0)
(0.104161 0.00194189 0)
(0.102861 0.00195685 0)
(0.101551 0.00197104 0)
(0.100232 0.00198446 0)
(0.0989041 0.00199716 0)
(0.0975681 0.00200913 0)
(0.0962244 0.00202042 0)
(0.0948734 0.00203102 0)
(0.0935156 0.00204097 0)
(0.0921513 0.00205028 0)
(0.0907811 0.00205897 0)
(0.0894053 0.00206707 0)
(0.0880243 0.0020746 0)
(0.0866385 0.00208157 0)
(0.0852482 0.00208801 0)
(0.0838539 0.00209393 0)
(0.0824557 0.00209936 0)
(0.0810541 0.00210431 0)
(0.0796494 0.00210881 0)
(0.0782418 0.00211288 0)
(0.0768317 0.00211653 0)
(0.0754193 0.00211978 0)
(0.0740049 0.00212265 0)
(0.0725887 0.00212517 0)
(0.0711709 0.00212734 0)
(0.0697518 0.00212918 0)
(0.0683316 0.00213072 0)
(0.0669105 0.00213197 0)
(0.0654887 0.00213295 0)
(0.0640663 0.00213367 0)
(0.0626435 0.00213414 0)
(0.0612205 0.0021344 0)
(0.0597974 0.00213444 0)
(0.0583743 0.00213428 0)
(0.0569514 0.00213395 0)
(0.0555288 0.00213345 0)
(0.0541067 0.00213279 0)
(0.052685 0.002132 0)
(0.0512638 0.00213107 0)
(0.0498434 0.00213003 0)
(0.0484237 0.00212889 0)
(0.0470048 0.00212766 0)
(0.0455867 0.00212634 0)
(0.0441695 0.00212496 0)
(0.0427534 0.00212352 0)
(0.0413381 0.00212202 0)
(0.0399239 0.00212049 0)
(0.0385108 0.00211893 0)
(0.0370987 0.00211735 0)
(0.0356876 0.00211576 0)
(0.0342777 0.00211416 0)
(0.0328688 0.00211257 0)
(0.0314609 0.00211099 0)
(0.0300541 0.00210942 0)
(0.0286484 0.00210788 0)
(0.0272437 0.00210638 0)
(0.0258399 0.00210491 0)
(0.0244372 0.00210349 0)
(0.0230353 0.00210211 0)
(0.0216344 0.00210079 0)
(0.0202344 0.00209953 0)
(0.0188351 0.00209834 0)
(0.0174367 0.00209721 0)
(0.0160389 0.00209615 0)
(0.0146419 0.00209517 0)
(0.0132455 0.00209427 0)
(0.0118496 0.00209345 0)
(0.0104543 0.00209271 0)
(0.00905945 0.00209206 0)
(0.00766499 0.0020915 0)
(0.00627089 0.00209103 0)
(0.00487706 0.00209066 0)
(0.00348346 0.00209037 0)
(0.00209001 0.00209019 0)
(0.00069666 0.00209009 0)
(0.000659716 -0.00329901 0)
(0.00197918 -0.00329919 0)
(0.00329875 -0.00329953 0)
(0.0046185 -0.00330005 0)
(0.00593849 -0.00330074 0)
(0.00725879 -0.0033016 0)
(0.00857947 -0.00330263 0)
(0.00990059 -0.00330383 0)
(0.0112222 -0.00330519 0)
(0.0125445 -0.00330671 0)
(0.0138673 -0.00330838 0)
(0.0151909 -0.00331022 0)
(0.0165152 -0.0033122 0)
(0.0178404 -0.00331433 0)
(0.0191664 -0.0033166 0)
(0.0204934 -0.003319 0)
(0.0218214 -0.00332154 0)
(0.0231504 -0.0033242 0)
(0.0244805 -0.00332698 0)
(0.0258118 -0.00332988 0)
(0.0271443 -0.00333287 0)
(0.0284779 -0.00333597 0)
(0.0298129 -0.00333915 0)
(0.0311491 -0.00334242 0)
(0.0324867 -0.00334575 0)
(0.0338256 -0.00334915 0)
(0.0351659 -0.0033526 0)
(0.0365076 -0.00335609 0)
(0.0378507 -0.00335961 0)
(0.0391953 -0.00336315 0)
(0.0405412 -0.0033667 0)
(0.0418886 -0.00337024 0)
(0.0432375 -0.00337376 0)
(0.0445877 -0.00337725 0)
(0.0459393 -0.00338069 0)
(0.0472924 -0.00338407 0)
(0.0486467 -0.00338737 0)
(0.0500024 -0.00339058 0)
(0.0513594 -0.00339367 0)
(0.0527176 -0.00339664 0)
(0.054077 -0.00339946 0)
(0.0554375 -0.00340211 0)
(0.056799 -0.00340457 0)
(0.0581615 -0.00340683 0)
(0.0595249 -0.00340887 0)
(0.060889 -0.00341065 0)
(0.0622539 -0.00341216 0)
(0.0636193 -0.00341338 0)
(0.0649852 -0.00341428 0)
(0.0663513 -0.00341483 0)
(0.0677177 -0.00341502 0)
(0.0690841 -0.00341481 0)
(0.0704503 -0.00341418 0)
(0.0718162 -0.0034131 0)
(0.0731816 -0.00341155 0)
(0.0745464 -0.00340949 0)
(0.0759102 -0.00340689 0)
(0.0772729 -0.00340373 0)
(0.0786343 -0.00339997 0)
(0.079994 -0.00339558 0)
(0.0813519 -0.00339054 0)
(0.0827077 -0.0033848 0)
(0.0840611 -0.00337834 0)
(0.0854117 -0.00337112 0)
(0.0867594 -0.0033631 0)
(0.0881037 -0.00335426 0)
(0.0894443 -0.00334456 0)
(0.090781 -0.00333396 0)
(0.0921132 -0.00332243 0)
(0.0934406 -0.00330993 0)
(0.0947629 -0.00329642 0)
(0.0960797 -0.00328188 0)
(0.0973904 -0.00326626 0)
(0.0986947 -0.00324954 0)
(0.0999921 -0.00323166 0)
(0.101282 -0.00321261 0)
(0.102564 -0.00319234 0)
(0.103838 -0.00317082 0)
(0.105103 -0.00314802 0)
(0.106359 -0.0031239 0)
(0.107605 -0.00309844 0)
(0.10884 -0.00307159 0)
(0.110065 -0.00304333 0)
(0.111278 -0.00301363 0)
(0.112478 -0.00298247 0)
(0.113666 -0.0029498 0)
(0.114841 -0.00291562 0)
(0.116001 -0.00287989 0)
(0.117148 -0.00284259 0)
(0.118278 -0.0028037 0)
(0.119393 -0.00276321 0)
(0.120492 -0.0027211 0)
(0.121573 -0.00267734 0)
(0.122637 -0.00263194 0)
(0.123682 -0.00258488 0)
(0.124708 -0.00253615 0)
(0.125714 -0.00248574 0)
(0.126699 -0.00243367 0)
(0.127664 -0.00237992 0)
(0.128606 -0.0023245 0)
(0.129526 -0.00226743 0)
(0.130423 -0.00220869 0)
(0.131296 -0.00214832 0)
(0.132145 -0.00208633 0)
(0.132968 -0.00202273 0)
(0.133766 -0.00195756 0)
(0.134537 -0.00189082 0)
(0.135281 -0.00182256 0)
(0.135998 -0.00175281 0)
(0.136686 -0.0016816 0)
(0.137345 -0.00160898 0)
(0.137976 -0.00153498 0)
(0.138576 -0.00145965 0)
(0.139146 -0.00138305 0)
(0.139684 -0.00130521 0)
(0.140192 -0.00122621 0)
(0.140667 -0.00114609 0)
(0.141111 -0.00106492 0)
(0.141521 -0.000982762 0)
(0.141899 -0.000899683 0)
(0.142242 -0.000815751 0)
(0.142553 -0.000731037 0)
(0.142829 -0.000645615 0)
(0.14307 -0.000559559 0)
(0.143277 -0.000472947 0)
(0.143449 -0.000385856 0)
(0.143587 -0.000298366 0)
(0.143689 -0.000210558 0)
(0.143755 -0.000122513 0)
(0.143787 -3.43124e-05 0)
(0.143783 5.39606e-05 0)
(0.143744 0.000142224 0)
(0.143669 0.000230395 0)
(0.143559 0.000318392 0)
(0.143414 0.000406133 0)
(0.143234 0.000493538 0)
(0.143018 0.000580526 0)
(0.142768 0.000667021 0)
(0.142484 0.000752943 0)
(0.142165 0.000838219 0)
(0.141812 0.000922775 0)
(0.141425 0.00100654 0)
(0.141005 0.00108944 0)
(0.140552 0.00117142 0)
(0.140066 0.0012524 0)
(0.139548 0.00133233 0)
(0.138998 0.00141114 0)
(0.138417 0.00148879 0)
(0.137805 0.00156521 0)
(0.137163 0.00164036 0)
(0.13649 0.00171419 0)
(0.135789 0.00178666 0)
(0.135059 0.00185773 0)
(0.1343 0.00192735 0)
(0.133514 0.0019955 0)
(0.132701 0.00206215 0)
(0.131862 0.00212726 0)
(0.130996 0.00219082 0)
(0.130106 0.0022528 0)
(0.129191 0.00231318 0)
(0.128253 0.00237195 0)
(0.127291 0.0024291 0)
(0.126306 0.00248463 0)
(0.1253 0.00253851 0)
(0.124273 0.00259076 0)
(0.123225 0.00264137 0)
(0.122157 0.00269035 0)
(0.121069 0.00273769 0)
(0.119964 0.00278341 0)
(0.11884 0.00282752 0)
(0.117699 0.00287003 0)
(0.116541 0.00291095 0)
(0.115367 0.0029503 0)
(0.114178 0.0029881 0)
(0.112974 0.00302437 0)
(0.111756 0.00305913 0)
(0.110524 0.0030924 0)
(0.109279 0.00312421 0)
(0.108022 0.00315459 0)
(0.106753 0.00318355 0)
(0.105473 0.00321114 0)
(0.104181 0.00323737 0)
(0.10288 0.00326228 0)
(0.101569 0.0032859 0)
(0.100249 0.00330826 0)
(0.0989205 0.00332939 0)
(0.0975836 0.00334933 0)
(0.096239 0.00336811 0)
(0.0948871 0.00338576 0)
(0.0935284 0.00340232 0)
(0.0921633 0.00341781 0)
(0.0907923 0.00343228 0)
(0.0894157 0.00344576 0)
(0.088034 0.00345828 0)
(0.0866474 0.00346988 0)
(0.0852565 0.00348058 0)
(0.0838614 0.00349043 0)
(0.0824626 0.00349946 0)
(0.0810604 0.0035077 0)
(0.0796551 0.00351517 0)
(0.078247 0.00352193 0)
(0.0768363 0.00352799 0)
(0.0754234 0.00353339 0)
(0.0740085 0.00353815 0)
(0.0725918 0.00354232 0)
(0.0711736 0.00354592 0)
(0.0697541 0.00354898 0)
(0.0683335 0.00355153 0)
(0.066912 0.00355359 0)
(0.0654898 0.0035552 0)
(0.0640671 0.00355638 0)
(0.062644 0.00355716 0)
(0.0612207 0.00355756 0)
(0.0597973 0.00355761 0)
(0.058374 0.00355734 0)
(0.0569509 0.00355677 0)
(0.0555281 0.00355592 0)
(0.0541057 0.00355481 0)
(0.0526838 0.00355347 0)
(0.0512625 0.00355191 0)
(0.0498419 0.00355017 0)
(0.0484221 0.00354825 0)
(0.0470031 0.00354618 0)
(0.0455849 0.00354398 0)
(0.0441677 0.00354166 0)
(0.0427514 0.00353925 0)
(0.0413361 0.00353675 0)
(0.0399219 0.00353419 0)
(0.0385087 0.00353158 0)
(0.0370965 0.00352893 0)
(0.0356855 0.00352627 0)
(0.0342755 0.0035236 0)
(0.0328666 0.00352093 0)
(0.0314588 0.00351829 0)
(0.0300521 0.00351568 0)
(0.0286463 0.0035131 0)
(0.0272417 0.00351059 0)
(0.025838 0.00350814 0)
(0.0244353 0.00350576 0)
(0.0230335 0.00350346 0)
(0.0216327 0.00350125 0)
(0.0202327 0.00349915 0)
(0.0188336 0.00349715 0)
(0.0174352 0.00349527 0)
(0.0160376 0.0034935 0)
(0.0146406 0.00349186 0)
(0.0132443 0.00349036 0)
(0.0118486 0.00348899 0)
(0.0104534 0.00348776 0)
(0.00905864 0.00348667 0)
(0.00766431 0.00348574 0)
(0.00627032 0.00348496 0)
(0.00487662 0.00348433 0)
(0.00348314 0.00348385 0)
(0.00208982 0.00348354 0)
(0.000696596 0.00348338 0)
(0.000659611 -0.00461837 0)
(0.00197887 -0.00461862 0)
(0.00329823 -0.0046191 0)
(0.00461777 -0.00461983 0)
(0.00593755 -0.0046208 0)
(0.00725765 -0.00462201 0)
(0.00857813 -0.00462345 0)
(0.00989905 -0.00462513 0)
(0.0112205 -0.00462704 0)
(0.0125425 -0.00462917 0)
(0.0138652 -0.00463152 0)
(0.0151886 -0.00463409 0)
(0.0165127 -0.00463687 0)
(0.0178377 -0.00463986 0)
(0.0191636 -0.00464305 0)
(0.0204904 -0.00464642 0)
(0.0218183 -0.00464998 0)
(0.0231471 -0.00465372 0)
(0.0244771 -0.00465762 0)
(0.0258083 -0.00466168 0)
(0.0271406 -0.00466589 0)
(0.0284741 -0.00467023 0)
(0.029809 -0.0046747 0)
(0.0311451 -0.00467928 0)
(0.0324826 -0.00468397 0)
(0.0338215 -0.00468874 0)
(0.0351617 -0.00469358 0)
(0.0365034 -0.00469848 0)
(0.0378465 -0.00470343 0)
(0.039191 -0.0047084 0)
(0.040537 -0.00471339 0)
(0.0418844 -0.00471836 0)
(0.0432332 -0.00472331 0)
(0.0445835 -0.00472822 0)
(0.0459352 -0.00473306 0)
(0.0472883 -0.00473781 0)
(0.0486428 -0.00474245 0)
(0.0499986 -0.00474697 0)
(0.0513557 -0.00475132 0)
(0.0527141 -0.0047555 0)
(0.0540737 -0.00475947 0)
(0.0554344 -0.00476321 0)
(0.0567961 -0.00476669 0)
(0.0581589 -0.00476988 0)
(0.0595226 -0.00477276 0)
(0.060887 -0.00477529 0)
(0.0622522 -0.00477744 0)
(0.063618 -0.00477917 0)
(0.0649842 -0.00478047 0)
(0.0663509 -0.00478128 0)
(0.0677177 -0.00478158 0)
(0.0690845 -0.00478132 0)
(0.0704513 -0.00478048 0)
(0.0718177 -0.00477901 0)
(0.0731838 -0.00477687 0)
(0.0745491 -0.00477403 0)
(0.0759136 -0.00477044 0)
(0.077277 -0.00476605 0)
(0.0786391 -0.00476084 0)
(0.0799996 -0.00475474 0)
(0.0813583 -0.00474772 0)
(0.0827149 -0.00473974 0)
(0.0840692 -0.00473074 0)
(0.0854208 -0.00472068 0)
(0.0867694 -0.0047095 0)
(0.0881148 -0.00469718 0)
(0.0894565 -0.00468364 0)
(0.0907942 -0.00466885 0)
(0.0921275 -0.00465275 0)
(0.0934562 -0.0046353 0)
(0.0947797 -0.00461645 0)
(0.0960977 -0.00459614 0)
(0.0974097 -0.00457432 0)
(0.0987154 -0.00455096 0)
(0.100014 -0.00452598 0)
(0.101306 -0.00449936 0)
(0.102589 -0.00447103 0)
(0.103865 -0.00444095 0)
(0.105131 -0.00440907 0)
(0.106389 -0.00437535 0)
(0.107636 -0.00433974 0)
(0.108873 -0.0043022 0)
(0.110099 -0.00426268 0)
(0.111314 -0.00422114 0)
(0.112516 -0.00417754 0)
(0.113706 -0.00413185 0)
(0.114883 -0.00408403 0)
(0.116045 -0.00403404 0)
(0.117193 -0.00398185 0)
(0.118326 -0.00392743 0)
(0.119443 -0.00387077 0)
(0.120543 -0.00381183 0)
(0.121627 -0.00375059 0)
(0.122692 -0.00368704 0)
(0.123739 -0.00362116 0)
(0.124767 -0.00355294 0)
(0.125775 -0.00348238 0)
(0.126763 -0.00340948 0)
(0.127729 -0.00333423 0)
(0.128674 -0.00325663 0)
(0.129596 -0.00317671 0)
(0.130495 -0.00309447 0)
(0.13137 -0.00300993 0)
(0.13222 -0.00292311 0)
(0.133045 -0.00283404 0)
(0.133845 -0.00274275 0)
(0.134618 -0.00264929 0)
(0.135364 -0.00255368 0)
(0.136082 -0.00245598 0)
(0.136772 -0.00235623 0)
(0.137433 -0.00225449 0)
(0.138065 -0.00215083 0)
(0.138667 -0.0020453 0)
(0.139238 -0.00193798 0)
(0.139779 -0.00182894 0)
(0.140287 -0.00171825 0)
(0.140764 -0.001606 0)
(0.141209 -0.00149227 0)
(0.14162 -0.00137716 0)
(0.141999 -0.00126075 0)
(0.142344 -0.00114314 0)
(0.142655 -0.00102444 0)
(0.142932 -0.000904747 0)
(0.143174 -0.000784162 0)
(0.143381 -0.000662795 0)
(0.143554 -0.000540757 0)
(0.143692 -0.000418158 0)
(0.143794 -0.000295113 0)
(0.143861 -0.000171735 0)
(0.143893 -4.81393e-05 0)
(0.143889 7.55583e-05 0)
(0.14385 0.000199242 0)
(0.143775 0.000322796 0)
(0.143665 0.000446106 0)
(0.143519 0.000569057 0)
(0.143338 0.000691535 0)
(0.143123 0.000813429 0)
(0.142872 0.000934628 0)
(0.142587 0.00105503 0)
(0.142267 0.00117451 0)
(0.141913 0.00129299 0)
(0.141525 0.00141036 0)
(0.141104 0.00152652 0)
(0.14065 0.00164137 0)
(0.140163 0.00175483 0)
(0.139643 0.00186681 0)
(0.139092 0.00197723 0)
(0.13851 0.00208601 0)
(0.137896 0.00219307 0)
(0.137252 0.00229835 0)
(0.136578 0.00240178 0)
(0.135875 0.00250329 0)
(0.135143 0.00260283 0)
(0.134383 0.00270036 0)
(0.133595 0.00279581 0)
(0.13278 0.00288915 0)
(0.131939 0.00298034 0)
(0.131072 0.00306935 0)
(0.130179 0.00315615 0)
(0.129263 0.0032407 0)
(0.128322 0.003323 0)
(0.127358 0.00340303 0)
(0.126372 0.00348076 0)
(0.125364 0.00355621 0)
(0.124334 0.00362936 0)
(0.123284 0.00370021 0)
(0.122214 0.00376877 0)
(0.121125 0.00383504 0)
(0.120017 0.00389903 0)
(0.118892 0.00396077 0)
(0.117749 0.00402026 0)
(0.116589 0.00407753 0)
(0.115413 0.0041326 0)
(0.114222 0.00418549 0)
(0.113016 0.00423624 0)
(0.111796 0.00428487 0)
(0.110563 0.00433141 0)
(0.109316 0.00437591 0)
(0.108057 0.0044184 0)
(0.106787 0.00445891 0)
(0.105505 0.00449748 0)
(0.104212 0.00453417 0)
(0.102909 0.004569 0)
(0.101597 0.00460202 0)
(0.100275 0.00463328 0)
(0.0989452 0.00466282 0)
(0.0976068 0.00469069 0)
(0.0962608 0.00471693 0)
(0.0949076 0.0047416 0)
(0.0935476 0.00476473 0)
(0.0921813 0.00478638 0)
(0.090809 0.00480659 0)
(0.0894313 0.00482541 0)
(0.0880484 0.00484289 0)
(0.0866608 0.00485908 0)
(0.0852688 0.00487402 0)
(0.0838727 0.00488776 0)
(0.082473 0.00490035 0)
(0.0810698 0.00491183 0)
(0.0796636 0.00492226 0)
(0.0782546 0.00493167 0)
(0.0768432 0.00494011 0)
(0.0754295 0.00494762 0)
(0.0740138 0.00495426 0)
(0.0725964 0.00496005 0)
(0.0711776 0.00496505 0)
(0.0697574 0.00496929 0)
(0.0683362 0.00497281 0)
(0.0669142 0.00497566 0)
(0.0654915 0.00497788 0)
(0.0640682 0.00497949 0)
(0.0626447 0.00498055 0)
(0.0612209 0.00498108 0)
(0.0597971 0.00498112 0)
(0.0583735 0.0049807 0)
(0.05695 0.00497987 0)
(0.0555269 0.00497864 0)
(0.0541042 0.00497706 0)
(0.0526821 0.00497515 0)
(0.0512605 0.00497295 0)
(0.0498397 0.00497048 0)
(0.0484197 0.00496776 0)
(0.0470005 0.00496484 0)
(0.0455822 0.00496173 0)
(0.0441648 0.00495846 0)
(0.0427484 0.00495506 0)
(0.0413331 0.00495154 0)
(0.0399188 0.00494793 0)
(0.0385055 0.00494426 0)
(0.0370934 0.00494053 0)
(0.0356823 0.00493678 0)
(0.0342723 0.00493303 0)
(0.0328634 0.00492928 0)
(0.0314557 0.00492556 0)
(0.0300489 0.00492189 0)
(0.0286433 0.00491827 0)
(0.0272387 0.00491473 0)
(0.0258351 0.00491129 0)
(0.0244325 0.00490794 0)
(0.0230308 0.00490472 0)
(0.0216301 0.00490162 0)
(0.0202302 0.00489866 0)
(0.0188312 0.00489585 0)
(0.017433 0.0048932 0)
(0.0160355 0.00489072 0)
(0.0146387 0.00488842 0)
(0.0132426 0.00488631 0)
(0.011847 0.00488438 0)
(0.010452 0.00488266 0)
(0.00905743 0.00488114 0)
(0.00766327 0.00487982 0)
(0.00626947 0.00487872 0)
(0.00487596 0.00487784 0)
(0.00348267 0.00487717 0)
(0.00208954 0.00487673 0)
(0.000696501 0.00487651 0)
(0.000659471 -0.00593749 0)
(0.00197845 -0.00593781 0)
(0.00329753 -0.00593843 0)
(0.0046168 -0.00593937 0)
(0.0059363 -0.00594062 0)
(0.00725613 -0.00594218 0)
(0.00857634 -0.00594404 0)
(0.009897 -0.0059462 0)
(0.0112182 -0.00594866 0)
(0.01254 -0.00595141 0)
(0.0138624 -0.00595444 0)
(0.0151855 -0.00595776 0)
(0.0165094 -0.00596134 0)
(0.0178342 -0.0059652 0)
(0.0191598 -0.0059693 0)
(0.0204865 -0.00597366 0)
(0.0218141 -0.00597825 0)
(0.0231428 -0.00598307 0)
(0.0244726 -0.0059881 0)
(0.0258035 -0.00599334 0)
(0.0271357 -0.00599877 0)
(0.0284691 -0.00600437 0)
(0.0298038 -0.00601014 0)
(0.0311398 -0.00601605 0)
(0.0324772 -0.00602209 0)
(0.0338159 -0.00602825 0)
(0.0351561 -0.0060345 0)
(0.0364977 -0.00604083 0)
(0.0378408 -0.00604722 0)
(0.0391853 -0.00605365 0)
(0.0405312 -0.00606008 0)
(0.0418787 -0.00606651 0)
(0.0432276 -0.00607291 0)
(0.0445779 -0.00607925 0)
(0.0459297 -0.00608551 0)
(0.0472829 -0.00609166 0)
(0.0486375 -0.00609767 0)
(0.0499935 -0.00610351 0)
(0.0513508 -0.00610915 0)
(0.0527094 -0.00611457 0)
(0.0540692 -0.00611972 0)
(0.0554302 -0.00612457 0)
(0.0567923 -0.0061291 0)
(0.0581554 -0.00613325 0)
(0.0595194 -0.006137 0)
(0.0608843 -0.00614031 0)
(0.0622499 -0.00614312 0)
(0.0636162 -0.00614542 0)
(0.064983 -0.00614714 0)
(0.0663501 -0.00614824 0)
(0.0677176 -0.00614869 0)
(0.0690851 -0.00614842 0)
(0.0704525 -0.00614741 0)
(0.0718197 -0.00614559 0)
(0.0731865 -0.00614291 0)
(0.0745527 -0.00613932 0)
(0.0759181 -0.00613478 0)
(0.0772824 -0.00612921 0)
(0.0786455 -0.00612258 0)
(0.080007 -0.00611482 0)
(0.0813668 -0.00610588 0)
(0.0827246 -0.00609569 0)
(0.08408 -0.0060842 0)
(0.0854328 -0.00607134 0)
(0.0867828 -0.00605706 0)
(0.0881295 -0.00604129 0)
(0.0894726 -0.00602397 0)
(0.0908117 -0.00600504 0)
(0.0921466 -0.00598443 0)
(0.0934768 -0.00596208 0)
(0.094802 -0.00593793 0)
(0.0961217 -0.0059119 0)
(0.0974354 -0.00588394 0)
(0.0987429 -0.00585398 0)
(0.100044 -0.00582196 0)
(0.101337 -0.00578781 0)
(0.102623 -0.00575147 0)
(0.1039 -0.00571288 0)
(0.105169 -0.00567197 0)
(0.106428 -0.00562869 0)
(0.107678 -0.00558299 0)
(0.108917 -0.00553479 0)
(0.110146 -0.00548405 0)
(0.111363 -0.00543071 0)
(0.112567 -0.00537472 0)
(0.11376 -0.00531603 0)
(0.114939 -0.0052546 0)
(0.116104 -0.00519038 0)
(0.117254 -0.00512333 0)
(0.118389 -0.00505342 0)
(0.119509 -0.0049806 0)
(0.120612 -0.00490485 0)
(0.121698 -0.00482615 0)
(0.122766 -0.00474446 0)
(0.123816 -0.00465978 0)
(0.124846 -0.00457209 0)
(0.125857 -0.00448137 0)
(0.126847 -0.00438763 0)
(0.127816 -0.00429087 0)
(0.128764 -0.00419109 0)
(0.129688 -0.00408831 0)
(0.13059 -0.00398254 0)
(0.131467 -0.0038738 0)
(0.132321 -0.00376213 0)
(0.133148 -0.00364756 0)
(0.13395 -0.00353013 0)
(0.134726 -0.00340989 0)
(0.135474 -0.00328689 0)
(0.136195 -0.00316118 0)
(0.136887 -0.00303284 0)
(0.137551 -0.00290194 0)
(0.138185 -0.00276855 0)
(0.138789 -0.00263275 0)
(0.139362 -0.00249464 0)
(0.139904 -0.00235431 0)
(0.140415 -0.00221185 0)
(0.140893 -0.00206738 0)
(0.14134 -0.00192101 0)
(0.141753 -0.00177285 0)
(0.142133 -0.00162301 0)
(0.142479 -0.00147164 0)
(0.142791 -0.00131884 0)
(0.143069 -0.00116477 0)
(0.143312 -0.00100955 0)
(0.143521 -0.000853316 0)
(0.143694 -0.000696218 0)
(0.143832 -0.000538398 0)