/*--------------------------------*- C++ -*----------------------------------*\
| =========                 |                                                 |
| \\      /  F ield         | OpenFOAM: The Open Source CFD Toolbox           |
|  \\    /   O peration     | Version:  v2012                                 |
|   \\  /    A nd           | Website:  www.openfoam.com                      |
|    \\/     M anipulation  |                                                 |
\*---------------------------------------------------------------------------*/
FoamFile
{
    version     2.0;
    format      ascii;
    class       volScalarField;
    location    "18";
    object      W;
}
// * * * * * * * * * * * * * * * * * * * * * * * * * * * * * * * * * * * * * //

dimensions      [0 0 -1 0 0 0 0];


internalField   nonuniform List<scalar> 
65536
(
1.29429e-13
1.3102e-13
1.34286e-13
1.39261e-13
1.46e-13
1.54574e-13
1.65078e-13
1.77625e-13
1.9235e-13
2.0941e-13
2.2899e-13
2.51296e-13
2.76566e-13
3.05067e-13
3.37095e-13
3.72984e-13
4.13104e-13
4.57867e-13
5.07725e-13
5.63182e-13
6.2479e-13
6.93156e-13
7.6895e-13
8.52904e-13
9.4582e-13
1.04858e-12
1.16214e-12
1.28754e-12
1.42594e-12
1.57857e-12
1.74679e-12
1.93206e-12
2.13599e-12
2.3603e-12
2.60686e-12
2.8777e-12
3.17501e-12
3.50114e-12
3.85864e-12
4.25024e-12
4.67888e-12
5.14772e-12
5.66013e-12
6.21973e-12
6.83038e-12
7.49619e-12
8.22155e-12
9.01112e-12
9.86985e-12
1.0803e-11
1.1816e-11
1.29148e-11
1.41054e-11
1.53944e-11
1.67885e-11
1.82948e-11
1.99206e-11
2.16735e-11
2.35615e-11
2.55928e-11
2.77758e-11
3.01191e-11
3.26316e-11
3.53224e-11
3.82005e-11
4.12751e-11
4.45555e-11
4.80509e-11
5.17703e-11
5.57228e-11
5.99171e-11
6.43616e-11
6.90644e-11
7.40329e-11
7.92742e-11
8.47946e-11
9.05996e-11
9.66937e-11
1.03081e-10
1.09763e-10
1.16741e-10
1.24016e-10
1.31586e-10
1.39447e-10
1.47594e-10
1.56022e-10
1.64721e-10
1.73681e-10
1.82888e-10
1.92329e-10
2.01987e-10
2.11842e-10
2.21873e-10
2.32057e-10
2.42369e-10
2.52779e-10
2.63259e-10
2.73778e-10
2.84301e-10
2.94793e-10
3.05219e-10
3.1554e-10
3.25717e-10
3.35712e-10
3.45484e-10
3.54993e-10
3.64198e-10
3.73061e-10
3.81541e-10
3.89602e-10
3.97206e-10
4.0432e-10
4.10909e-10
4.16944e-10
4.22397e-10
4.27242e-10
4.31459e-10
4.35029e-10
4.37936e-10
4.4017e-10
4.41723e-10
4.4259e-10
4.42774e-10
4.42276e-10
4.41105e-10
4.39273e-10
4.36794e-10
4.33686e-10
4.29972e-10
4.25674e-10
4.20821e-10
4.15441e-10
4.09566e-10
4.03228e-10
3.96463e-10
3.89305e-10
3.8179e-10
3.73956e-10
3.65839e-10
3.57475e-10
3.489e-10
3.40148e-10
3.31255e-10
3.22253e-10
3.13172e-10
3.04043e-10
2.94893e-10
2.85749e-10
2.76634e-10
2.6757e-10
2.58577e-10
2.49674e-10
2.40875e-10
2.32195e-10
2.23645e-10
2.15235e-10
2.06975e-10
1.98869e-10
1.90923e-10
1.83141e-10
1.75525e-10
1.68076e-10
1.60795e-10
1.53679e-10
1.46729e-10
1.39942e-10
1.33316e-10
1.26848e-10
1.20536e-10
1.14377e-10
1.08369e-10
1.02511e-10
9.67997e-11
9.12355e-11
8.58178e-11
8.0547e-11
7.54242e-11
7.04513e-11
6.5631e-11
6.09666e-11
5.64621e-11
5.2122e-11
4.79514e-11
4.39553e-11
4.01391e-11
3.6508e-11
3.30671e-11
2.98208e-11
2.67729e-11
2.39264e-11
2.12832e-11
1.88441e-11
1.66086e-11
1.45748e-11
1.27393e-11
1.10974e-11
9.64278e-12
8.368e-12
7.26421e-12
6.32141e-12
5.52858e-12
4.87384e-12
4.34458e-12
3.92763e-12
3.60948e-12
3.37646e-12
3.21489e-12
3.11132e-12
3.05273e-12
3.02672e-12
3.02172e-12
3.0272e-12
3.03382e-12
3.0336e-12
3.02004e-12
2.98822e-12
2.93478e-12
2.85795e-12
2.75744e-12
2.63429e-12
2.49071e-12
2.32984e-12
2.15549e-12
1.97189e-12
1.78344e-12
1.59441e-12
1.40883e-12
1.23021e-12
1.06151e-12
9.05006e-13
7.62309e-13
6.34351e-13
5.21457e-13
4.23419e-13
3.39593e-13
2.69004e-13
2.10448e-13
1.6259e-13
1.24045e-13
9.34511e-14
6.95154e-14
5.1056e-14
3.70219e-14
2.65029e-14
1.87296e-14
1.3066e-14
8.99742e-15
6.11575e-15
4.10363e-15
2.71895e-15
1.78052e-15
1.15541e-15
7.48274e-16
4.92691e-16
3.44439e-16
2.76648e-16
1.89443e-13
1.91784e-13
1.96591e-13
2.03916e-13
2.13838e-13
2.26466e-13
2.41937e-13
2.60422e-13
2.8212e-13
3.07269e-13
3.36139e-13
3.69042e-13
4.0633e-13
4.484e-13
4.95697e-13
5.48718e-13
6.08017e-13
6.74206e-13
7.47966e-13
8.30047e-13
9.21277e-13
1.02257e-12
1.13492e-12
1.25943e-12
1.3973e-12
1.54985e-12
1.71853e-12
1.90491e-12
2.1107e-12
2.33777e-12
2.58817e-12
2.8641e-12
3.16797e-12
3.50238e-12
3.87016e-12
4.27435e-12
4.71827e-12
5.20546e-12
5.73978e-12
6.32534e-12
6.96658e-12
7.66827e-12
8.43551e-12
9.27376e-12
1.01888e-11
1.1187e-11
1.22748e-11
1.34593e-11
1.4748e-11
1.61488e-11
1.767e-11
1.93203e-11
2.11091e-11
2.3046e-11
2.51411e-11
2.74051e-11
2.9849e-11
3.24842e-11
3.53226e-11
3.83762e-11
4.16577e-11
4.51799e-11
4.89558e-11
5.29986e-11
5.73218e-11
6.19387e-11
6.68627e-11
7.2107e-11
7.76847e-11
8.36085e-11
8.98905e-11
9.65424e-11
1.03575e-10
1.10999e-10
1.18822e-10
1.27053e-10
1.35698e-10
1.44763e-10
1.54249e-10
1.64159e-10
1.74492e-10
1.85245e-10
1.96413e-10
2.07987e-10
2.19956e-10
2.32309e-10
2.45026e-10
2.5809e-10
2.71478e-10
2.85162e-10
2.99114e-10
3.13301e-10
3.27688e-10
3.42234e-10
3.56897e-10
3.71633e-10
3.86394e-10
4.01127e-10
4.15782e-10
4.30301e-10
4.4463e-10
4.5871e-10
4.72481e-10
4.85885e-10
4.98862e-10
5.11352e-10
5.23298e-10
5.34644e-10
5.45334e-10
5.55316e-10
5.64541e-10
5.72963e-10
5.8054e-10
5.87235e-10
5.93014e-10
5.97851e-10
6.01722e-10
6.0461e-10
6.06504e-10
6.07399e-10
6.07295e-10
6.06199e-10
6.04123e-10
6.01085e-10
5.97107e-10
5.92218e-10
5.86452e-10
5.79846e-10
5.72442e-10
5.64285e-10
5.55424e-10
5.45909e-10
5.35793e-10
5.25131e-10
5.13979e-10
5.02393e-10
4.90428e-10
4.7814e-10
4.65584e-10
4.52814e-10
4.3988e-10
4.26832e-10
4.13718e-10
4.00581e-10
3.87464e-10
3.74405e-10
3.6144e-10
3.48602e-10
3.35918e-10
3.23416e-10
3.11117e-10
2.99043e-10
2.87208e-10
2.75628e-10
2.64313e-10
2.53271e-10
2.42509e-10
2.32029e-10
2.21835e-10
2.11926e-10
2.023e-10
1.92954e-10
1.83884e-10
1.75086e-10
1.66552e-10
1.58277e-10
1.50254e-10
1.42476e-10
1.34936e-10
1.27628e-10
1.20544e-10
1.1368e-10
1.07029e-10
1.00588e-10
9.4353e-11
8.83208e-11
8.24895e-11
7.68583e-11
7.14271e-11
6.61967e-11
6.11686e-11
5.63451e-11
5.17291e-11
4.73236e-11
4.31322e-11
3.91581e-11
3.54045e-11
3.18743e-11
2.85696e-11
2.54917e-11
2.26411e-11
2.00169e-11
1.7617e-11
1.54382e-11
1.34755e-11
1.17228e-11
1.01726e-11
8.8158e-12
7.6424e-12
6.64111e-12
5.7997e-12
5.10513e-12
4.54366e-12
4.10113e-12
3.76304e-12
3.5148e-12
3.34191e-12
3.23014e-12
3.16579e-12
3.13583e-12
3.12814e-12
3.13169e-12
3.13676e-12
3.13503e-12
3.11974e-12
3.08576e-12
3.02962e-12
2.94948e-12
2.84501e-12
2.71731e-12
2.56864e-12
2.40224e-12
2.22204e-12
2.0324e-12
1.83784e-12
1.64278e-12
1.45133e-12
1.26713e-12
1.09321e-12
9.31902e-13
7.8486e-13
6.53033e-13
5.36749e-13
4.35785e-13
3.49472e-13
2.76799e-13
2.16524e-13
1.67268e-13
1.27603e-13
9.61225e-14
7.14964e-14
5.25067e-14
3.80709e-14
2.72518e-14
1.92575e-14
1.34334e-14
9.2498e-15
6.28692e-15
4.21824e-15
2.79473e-15
1.83005e-15
1.18749e-15
7.69011e-16
5.06319e-16
3.53949e-16
2.84284e-16
3.33006e-13
3.37149e-13
3.4566e-13
3.58629e-13
3.76198e-13
3.98563e-13
4.25971e-13
4.58724e-13
4.97185e-13
5.41775e-13
5.92984e-13
6.51369e-13
7.17565e-13
7.92285e-13
8.7633e-13
9.70594e-13
1.07607e-12
1.19388e-12
1.32523e-12
1.47148e-12
1.63413e-12
1.81482e-12
2.01536e-12
2.23775e-12
2.48415e-12
2.75697e-12
3.05881e-12
3.39252e-12
3.76124e-12
4.16834e-12
4.61754e-12
5.11286e-12
5.65867e-12
6.25971e-12
6.92113e-12
7.64849e-12
8.44781e-12
9.32558e-12
1.02888e-11
1.1345e-11
1.25023e-11
1.37694e-11
1.51556e-11
1.66708e-11
1.83258e-11
2.01318e-11
2.21011e-11
2.42463e-11
2.65811e-11
2.912e-11
3.1878e-11
3.48713e-11
3.81167e-11
4.16317e-11
4.54348e-11
4.95452e-11
5.39829e-11
5.87685e-11
6.39234e-11
6.94696e-11
7.54294e-11
8.18258e-11
8.86821e-11
9.60218e-11
1.03868e-10
1.12246e-10
1.21177e-10
1.30685e-10
1.40792e-10
1.51519e-10
1.62888e-10
1.74917e-10
1.87623e-10
2.01023e-10
2.15129e-10
2.29954e-10
2.45504e-10
2.61785e-10
2.78799e-10
2.96543e-10
3.15011e-10
3.34192e-10
3.5407e-10
3.74625e-10
3.95831e-10
4.17656e-10
4.40063e-10
4.6301e-10
4.86446e-10
5.10317e-10
5.34561e-10
5.59112e-10
5.83896e-10
6.08834e-10
6.33843e-10
6.58834e-10
6.83712e-10
7.0838e-10
7.32737e-10
7.56679e-10
7.801e-10
8.02892e-10
8.24949e-10
8.46161e-10
8.66424e-10
8.85635e-10
9.03692e-10
9.205e-10
9.35968e-10
9.50012e-10
9.62554e-10
9.73525e-10
9.82865e-10
9.90521e-10
9.96452e-10
1.00063e-09
1.00303e-09
1.00364e-09
1.00247e-09
9.99534e-10
9.94849e-10
9.88452e-10
9.8039e-10
9.70717e-10
9.59497e-10
9.46803e-10
9.32715e-10
9.17319e-10
9.0071e-10
8.82983e-10
8.64241e-10
8.44588e-10
8.24129e-10
8.02971e-10
7.81219e-10
7.58979e-10
7.36353e-10
7.13442e-10
6.90341e-10
6.67142e-10
6.43933e-10
6.20795e-10
5.97803e-10
5.75028e-10
5.52535e-10
5.30379e-10
5.08612e-10
4.8728e-10
4.66421e-10
4.46067e-10
4.26245e-10
4.06977e-10
3.88279e-10
3.70163e-10
3.52634e-10
3.35696e-10
3.19348e-10
3.03585e-10
2.88401e-10
2.73784e-10
2.59723e-10
2.46205e-10
2.33214e-10
2.20733e-10
2.08746e-10
1.97234e-10
1.86181e-10
1.75568e-10
1.65378e-10
1.55594e-10
1.462e-10
1.3718e-10
1.28522e-10
1.20211e-10
1.12236e-10
1.04587e-10
9.7255e-11
9.02317e-11
8.35112e-11
7.70884e-11
7.09594e-11
6.51213e-11
5.9572e-11
5.43101e-11
4.93346e-11
4.46449e-11
4.02401e-11
3.61192e-11
3.22809e-11
2.87228e-11
2.54419e-11
2.24342e-11
1.96942e-11
1.72155e-11
1.49901e-11
1.30089e-11
1.12612e-11
9.73541e-12
8.41857e-12
7.29681e-12
6.35535e-12
5.57876e-12
4.95103e-12
4.45583e-12
4.07667e-12
3.79709e-12
3.60085e-12
3.47218e-12
3.39592e-12
3.35777e-12
3.34447e-12
3.34404e-12
3.34589e-12
3.34105e-12
3.3222e-12
3.28382e-12
3.22219e-12
3.1353e-12
3.0228e-12
2.88585e-12
2.72684e-12
2.54922e-12
2.35715e-12
2.15524e-12
1.94829e-12
1.74097e-12
1.53763e-12
1.3421e-12
1.15757e-12
9.86519e-13
8.30654e-13
6.90974e-13
5.67806e-13
4.609e-13
3.69536e-13
2.92633e-13
2.28867e-13
1.76771e-13
1.34829e-13
1.01549e-13
7.55206e-14
5.54537e-14
4.02018e-14
2.87732e-14
2.033e-14
1.41797e-14
9.76254e-15
6.63467e-15
4.45109e-15
2.9487e-15
1.93068e-15
1.25267e-15
8.11145e-16
5.3401e-16
3.73275e-16
2.99789e-16
6.14513e-13
6.22214e-13
6.38032e-13
6.62135e-13
6.94792e-13
7.36369e-13
7.87331e-13
8.48248e-13
9.198e-13
1.00278e-12
1.09812e-12
1.20686e-12
1.33019e-12
1.46947e-12
1.62621e-12
1.80209e-12
1.99899e-12
2.21901e-12
2.46447e-12
2.73792e-12
3.0422e-12
3.38043e-12
3.75603e-12
4.17279e-12
4.63483e-12
5.1467e-12
5.71336e-12
6.34025e-12
7.03329e-12
7.79896e-12
8.64431e-12
9.57701e-12
1.06054e-11
1.17385e-11
1.29862e-11
1.43591e-11
1.58687e-11
1.75274e-11
1.93486e-11
2.13467e-11
2.35373e-11
2.59369e-11
2.85635e-11
3.14361e-11
3.45751e-11
3.80024e-11
4.1741e-11
4.58155e-11
5.0252e-11
5.50781e-11
6.0323e-11
6.60171e-11
7.21927e-11
7.88835e-11
8.61247e-11
9.39529e-11
1.02406e-10
1.11524e-10
1.21346e-10
1.31915e-10
1.43272e-10
1.55462e-10
1.68528e-10
1.82513e-10
1.97463e-10
2.1342e-10
2.30428e-10
2.48529e-10
2.67763e-10
2.88169e-10
3.09783e-10
3.32639e-10
3.56766e-10
3.8219e-10
4.08933e-10
4.3701e-10
4.66431e-10
4.972e-10
5.29313e-10
5.62758e-10
5.97514e-10
6.33554e-10
6.70838e-10
7.09316e-10
7.48929e-10
7.89606e-10
8.31266e-10
8.73813e-10
9.17143e-10
9.61138e-10
1.00567e-09
1.0506e-09
1.09577e-09
1.14103e-09
1.1862e-09
1.23111e-09
1.27555e-09
1.31936e-09
1.36231e-09
1.40421e-09
1.44485e-09
1.48403e-09
1.52154e-09
1.55719e-09
1.59076e-09
1.62208e-09
1.65097e-09
1.67725e-09
1.70076e-09
1.72138e-09
1.73896e-09
1.7534e-09
1.76461e-09
1.77253e-09
1.7771e-09
1.77829e-09
1.77611e-09
1.77056e-09
1.76169e-09
1.74957e-09
1.73426e-09
1.71588e-09
1.69454e-09
1.67039e-09
1.64358e-09
1.61427e-09
1.58265e-09
1.5489e-09
1.51324e-09
1.47586e-09
1.43697e-09
1.39679e-09
1.35552e-09
1.31338e-09
1.27056e-09
1.22727e-09
1.1837e-09
1.14003e-09
1.09643e-09
1.05307e-09
1.0101e-09
9.6766e-10
9.25867e-10
8.84838e-10
8.44672e-10
8.05455e-10
7.67263e-10
7.30156e-10
6.94185e-10
6.59387e-10
6.25792e-10
5.93416e-10
5.62268e-10
5.32351e-10
5.03655e-10
4.7617e-10
4.49874e-10
4.24743e-10
4.00749e-10
3.7786e-10
3.5604e-10
3.35251e-10
3.15457e-10
2.96615e-10
2.78686e-10
2.61629e-10
2.45404e-10
2.29972e-10
2.15295e-10
2.01336e-10
1.8806e-10
1.75433e-10
1.63425e-10
1.52006e-10
1.4115e-10
1.30831e-10
1.21029e-10
1.11722e-10
1.02893e-10
9.45261e-11
8.6607e-11
7.91236e-11
7.2065e-11
6.54215e-11
5.91844e-11
5.33457e-11
4.78976e-11
4.28325e-11
3.81427e-11
3.38199e-11
2.98552e-11
2.62388e-11
2.29599e-11
2.00068e-11
1.73663e-11
1.50244e-11
1.29656e-11
1.11737e-11
9.6312e-12
8.32008e-12
7.22151e-12
6.31617e-12
5.58445e-12
5.00663e-12
4.56303e-12
4.23425e-12
4.00135e-12
3.84607e-12
3.75103e-12
3.69993e-12
3.67774e-12
3.67096e-12
3.6677e-12
3.65793e-12
3.63351e-12
3.5883e-12
3.51815e-12
3.42084e-12
3.29597e-12
3.14476e-12
2.96985e-12
2.77496e-12
2.56463e-12
2.34387e-12
2.11788e-12
1.89172e-12
1.67011e-12
1.45718e-12
1.25637e-12
1.07034e-12
9.00935e-13
7.49196e-13
6.15461e-13
4.99436e-13
4.0032e-13
3.16926e-13
2.47802e-13
1.91349e-13
1.45913e-13
1.09873e-13
8.16933e-14
5.99738e-14
4.34702e-14
3.11067e-14
2.19747e-14
1.53243e-14
1.05489e-14
7.16796e-15
4.80816e-15
3.18481e-15
2.08499e-15
1.35261e-15
8.75753e-16
5.76471e-16
4.02907e-16
3.23561e-16
1.13581e-12
1.15015e-12
1.17959e-12
1.22446e-12
1.28526e-12
1.36268e-12
1.45758e-12
1.57106e-12
1.70439e-12
1.85907e-12
2.03683e-12
2.23966e-12
2.46981e-12
2.72983e-12
3.02256e-12
3.35121e-12
3.71932e-12
4.13086e-12
4.59022e-12
5.10224e-12
5.67229e-12
6.30629e-12
7.01075e-12
7.79283e-12
8.6604e-12
9.62208e-12
1.06873e-11
1.18665e-11
1.31708e-11
1.46127e-11
1.62056e-11
1.79641e-11
1.99042e-11
2.20431e-11
2.43996e-11
2.69941e-11
2.98485e-11
3.29866e-11
3.64342e-11
4.02187e-11
4.43699e-11
4.89199e-11
5.39027e-11
5.9355e-11
6.53161e-11
7.18276e-11
7.8934e-11
8.66824e-11
9.51231e-11
1.04309e-10
1.14295e-10
1.25142e-10
1.36909e-10
1.49663e-10
1.6347e-10
1.784e-10
1.94527e-10
2.11925e-10
2.30671e-10
2.50846e-10
2.72528e-10
2.95802e-10
3.20748e-10
3.47452e-10
3.75994e-10
4.06457e-10
4.38922e-10
4.73466e-10
5.10163e-10
5.49084e-10
5.90294e-10
6.33853e-10
6.7981e-10
7.2821e-10
7.79087e-10
8.32461e-10
8.88345e-10
9.46733e-10
1.00761e-09
1.07094e-09
1.13667e-09
1.20474e-09
1.27504e-09
1.34748e-09
1.42193e-09
1.49823e-09
1.5762e-09
1.65565e-09
1.73636e-09
1.81808e-09
1.90055e-09
1.98349e-09
2.06658e-09
2.1495e-09
2.23191e-09
2.31345e-09
2.39374e-09
2.47241e-09
2.54906e-09
2.6233e-09
2.69473e-09
2.76297e-09
2.82761e-09
2.8883e-09
2.94465e-09
2.99633e-09
3.04301e-09
3.08439e-09
3.1202e-09
3.1502e-09
3.1742e-09
3.19202e-09
3.20354e-09
3.20867e-09
3.20738e-09
3.19967e-09
3.18557e-09
3.16519e-09
3.13866e-09
3.10615e-09
3.06788e-09
3.02409e-09
2.97507e-09
2.92113e-09
2.86263e-09
2.79992e-09
2.73338e-09
2.66342e-09
2.59045e-09
2.51488e-09
2.43713e-09
2.35762e-09
2.27674e-09
2.19491e-09
2.11251e-09
2.02991e-09
1.94745e-09
1.86546e-09
1.78426e-09
1.70412e-09
1.6253e-09
1.54803e-09
1.47251e-09
1.39892e-09
1.3274e-09
1.25808e-09
1.19107e-09
1.12643e-09
1.06424e-09
1.00451e-09
9.47264e-10
8.92506e-10
8.40216e-10
7.90365e-10
7.42909e-10
6.97796e-10
6.54964e-10
6.14345e-10
5.75862e-10
5.39437e-10
5.04988e-10
4.72428e-10
4.41673e-10
4.12637e-10
3.85233e-10
3.59377e-10
3.34988e-10
3.11985e-10
2.90292e-10
2.69836e-10
2.50546e-10
2.32358e-10
2.15209e-10
1.99041e-10
1.838e-10
1.69438e-10
1.55909e-10
1.43171e-10
1.31186e-10
1.1992e-10
1.09341e-10
9.94219e-11
9.01364e-11
8.14612e-11
7.33747e-11
6.58566e-11
5.88881e-11
5.24508e-11
4.65268e-11
4.10983e-11
3.6147e-11
3.16546e-11
2.76017e-11
2.39685e-11
2.07342e-11
1.7877e-11
1.53746e-11
1.32036e-11
1.13402e-11
9.76014e-12
8.43856e-12
7.35064e-12
6.47154e-12
5.77664e-12
5.24171e-12
4.84318e-12
4.55824e-12
4.36514e-12
4.24333e-12
4.17368e-12
4.13872e-12
4.12276e-12
4.11215e-12
4.09533e-12
4.06303e-12
4.00823e-12
3.9262e-12
3.81442e-12
3.67239e-12
3.50148e-12
3.30458e-12
3.08586e-12
2.85033e-12
2.60357e-12
2.35133e-12
2.09921e-12
1.85242e-12
1.61552e-12
1.3923e-12
1.18566e-12
9.97605e-13
8.29271e-13
6.80996e-13
5.52425e-13
4.42646e-13
3.50323e-13
2.73832e-13
2.11386e-13
1.61148e-13
1.21312e-13
9.01759e-14
6.61851e-14
4.79611e-14
3.43127e-14
2.42345e-14
1.68967e-14
1.16291e-14
7.90053e-15
5.29864e-15
3.50911e-15
2.29695e-15
1.48989e-15
9.64489e-16
6.34788e-16
4.43603e-16
3.56207e-16
2.07551e-12
2.10192e-12
2.15613e-12
2.23873e-12
2.35066e-12
2.4932e-12
2.66799e-12
2.87702e-12
3.12269e-12
3.40779e-12
3.73556e-12
4.1097e-12
4.5344e-12
5.01442e-12
5.55509e-12
6.16237e-12
6.84292e-12
7.60415e-12
8.45425e-12
9.40233e-12
1.04584e-11
1.16337e-11
1.29403e-11
1.43916e-11
1.60026e-11
1.77893e-11
1.97696e-11
2.1963e-11
2.43907e-11
2.7076e-11
3.00442e-11
3.33229e-11
3.69424e-11
4.09352e-11
4.53367e-11
5.01856e-11
5.55234e-11
6.13952e-11
6.78495e-11
7.49387e-11
8.27193e-11
9.12517e-11
1.00601e-10
1.10837e-10
1.22033e-10
1.3427e-10
1.47631e-10
1.62206e-10
1.78091e-10
1.95386e-10
2.14197e-10
2.34636e-10
2.56819e-10
2.80871e-10
3.06918e-10
3.35094e-10
3.65536e-10
3.98387e-10
4.33793e-10
4.71905e-10
5.12874e-10
5.56855e-10
6.04003e-10
6.54475e-10
7.08426e-10
7.66007e-10
8.27368e-10
8.92653e-10
9.61997e-10
1.03553e-09
1.11336e-09
1.19561e-09
1.28235e-09
1.37366e-09
1.46959e-09
1.57017e-09
1.67541e-09
1.78529e-09
1.89974e-09
2.0187e-09
2.14204e-09
2.2696e-09
2.4012e-09
2.5366e-09
2.67553e-09
2.81767e-09
2.96267e-09
3.11011e-09
3.25955e-09
3.41049e-09
3.56241e-09
3.71474e-09
3.86685e-09
4.01811e-09
4.16785e-09
4.31535e-09
4.4599e-09
4.60075e-09
4.73716e-09
4.86837e-09
4.99362e-09
5.11218e-09
5.22332e-09
5.32635e-09
5.4206e-09
5.50545e-09
5.58032e-09
5.64469e-09
5.6981e-09
5.74016e-09
5.77056e-09
5.78905e-09
5.79548e-09
5.78977e-09
5.77193e-09
5.74206e-09
5.70033e-09
5.64703e-09
5.58249e-09
5.50714e-09
5.42147e-09
5.32605e-09
5.2215e-09
5.10848e-09
4.98773e-09
4.86e-09
4.72606e-09
4.58673e-09
4.4428e-09
4.29511e-09
4.14444e-09
3.99159e-09
3.83734e-09
3.68242e-09
3.52755e-09
3.37339e-09
3.22056e-09
3.06964e-09
2.92115e-09
2.77558e-09
2.63334e-09
2.4948e-09
2.36028e-09
2.23004e-09
2.10429e-09
1.9832e-09
1.86688e-09
1.75543e-09
1.64888e-09
1.54722e-09
1.45043e-09
1.35846e-09
1.27121e-09
1.18859e-09
1.11046e-09
1.0367e-09
9.67138e-10
9.01625e-10
8.39988e-10
7.82055e-10
7.27649e-10
6.76594e-10
6.28714e-10
5.83836e-10
5.4179e-10
5.02413e-10
4.65545e-10
4.31034e-10
3.98734e-10
3.68506e-10
3.4022e-10
3.13754e-10
2.88992e-10
2.65827e-10
2.44159e-10
2.23897e-10
2.04956e-10
1.87258e-10
1.70731e-10
1.55311e-10
1.40939e-10
1.27559e-10
1.15122e-10
1.03583e-10
9.28989e-11
8.30308e-11
7.39417e-11
6.55967e-11
5.79623e-11
5.10058e-11
4.46953e-11
3.8999e-11
3.38852e-11
2.93219e-11
2.52772e-11
2.17185e-11
1.86131e-11
1.59279e-11
1.36299e-11
1.16859e-11
1.00631e-11
8.72872e-12
7.65083e-12
6.79805e-12
6.14e-12
5.64735e-12
5.29213e-12
5.04783e-12
4.88967e-12
4.79474e-12
4.74225e-12
4.71367e-12
4.69293e-12
4.66652e-12
4.6236e-12
4.55603e-12
4.4583e-12
4.32746e-12
4.16292e-12
3.9662e-12
3.74056e-12
3.49069e-12
3.22227e-12
2.94159e-12
2.65512e-12
2.36917e-12
2.08959e-12
1.82147e-12
1.56906e-12
1.33559e-12
1.12328e-12
9.33354e-13
7.66167e-13
6.21282e-13
4.97639e-13
3.9371e-13
3.07643e-13
2.37412e-13
1.80933e-13
1.36167e-13
1.0119e-13
7.42491e-14
5.37911e-14
3.84744e-14
2.71675e-14
1.89376e-14
1.3031e-14
8.8512e-15
5.93512e-15
3.92993e-15
2.57196e-15
1.668e-15
1.07962e-15
7.10447e-16
4.964e-16
3.9856e-16
3.73727e-12
3.78521e-12
3.88358e-12
4.03345e-12
4.23657e-12
4.49527e-12
4.81257e-12
5.19213e-12
5.63834e-12
6.15635e-12
6.75208e-12
7.43236e-12
8.2049e-12
9.07846e-12
1.00628e-11
1.1169e-11
1.24093e-11
1.37973e-11
1.53482e-11
1.70788e-11
1.90077e-11
2.11554e-11
2.35444e-11
2.61997e-11
2.91487e-11
3.24215e-11
3.6051e-11
4.00734e-11
4.45282e-11
4.94586e-11
5.49119e-11
6.09393e-11
6.75971e-11
7.4946e-11
8.30523e-11
9.19876e-11
1.0183e-10
1.12663e-10
1.24578e-10
1.37673e-10
1.52053e-10
1.67831e-10
1.8513e-10
2.0408e-10
2.24819e-10
2.47497e-10
2.72273e-10
2.99313e-10
3.28798e-10
3.60916e-10
3.95865e-10
4.33856e-10
4.75108e-10
5.19853e-10
5.68329e-10
6.20786e-10
6.77484e-10
7.38687e-10
8.04672e-10
8.75717e-10
9.52107e-10
1.03413e-09
1.12208e-09
1.21624e-09
1.31691e-09
1.42435e-09
1.53886e-09
1.66068e-09
1.79007e-09
1.92726e-09
2.07245e-09
2.22584e-09
2.38758e-09
2.55777e-09
2.73651e-09
2.92383e-09
3.11971e-09
3.3241e-09
3.53685e-09
3.7578e-09
3.98668e-09
4.22317e-09
4.46688e-09
4.71731e-09
4.97393e-09
5.23608e-09
5.50305e-09
5.77403e-09
6.04813e-09
6.32438e-09
6.60175e-09
6.87909e-09
7.15524e-09
7.42893e-09
7.69887e-09
7.96369e-09
8.22202e-09
8.47244e-09
8.71353e-09
8.94387e-09
9.16206e-09
9.36672e-09
9.55651e-09
9.73017e-09
9.8865e-09
1.00244e-08
1.01428e-08
1.02409e-08
1.03179e-08
1.03732e-08
1.04062e-08
1.04167e-08
1.04046e-08
1.03697e-08
1.03124e-08
1.02329e-08
1.01317e-08
1.00094e-08
9.86698e-09
9.70527e-09
9.52537e-09
9.32846e-09
9.11585e-09
8.88891e-09
8.6491e-09
8.39792e-09
8.13691e-09
7.86764e-09
7.59166e-09
7.31052e-09
7.02575e-09
6.7388e-09
6.45112e-09
6.16402e-09
5.8788e-09
5.59662e-09
5.31858e-09
5.04566e-09
4.77873e-09
4.51859e-09
4.2659e-09
4.02123e-09
3.78506e-09
3.55774e-09
3.33956e-09
3.13072e-09
2.9313e-09
2.74136e-09
2.56086e-09
2.38969e-09
2.22771e-09
2.07473e-09
1.9305e-09
1.79476e-09
1.66721e-09
1.54753e-09
1.43539e-09
1.33045e-09
1.23234e-09
1.14073e-09
1.05525e-09
9.75569e-10
9.01333e-10
8.32216e-10
7.67895e-10
7.08064e-10
6.52426e-10
6.00702e-10
5.52626e-10
5.07947e-10
4.6643e-10
4.27856e-10
3.92018e-10
3.58728e-10
3.27808e-10
2.99097e-10
2.72445e-10
2.47715e-10
2.24782e-10
2.0353e-10
1.83855e-10
1.65661e-10
1.48859e-10
1.33369e-10
1.19116e-10
1.06032e-10
9.40524e-11
8.31163e-11
7.31667e-11
6.4149e-11
5.60105e-11
4.87e-11
4.21677e-11
3.63644e-11
3.12419e-11
2.67523e-11
2.28484e-11
1.94838e-11
1.66125e-11
1.41893e-11
1.21703e-11
1.05122e-11
9.17333e-12
8.11344e-12
7.29383e-12
6.67765e-12
6.23004e-12
5.9183e-12
5.71209e-12
5.58358e-12
5.50768e-12
5.46218e-12
5.42788e-12
5.38874e-12
5.33192e-12
5.24782e-12
5.12994e-12
4.97479e-12
4.78163e-12
4.55216e-12
4.2901e-12
4.00084e-12
3.69086e-12
3.36734e-12
3.03767e-12
2.70904e-12
2.3881e-12
2.08064e-12
1.79146e-12
1.52419e-12
1.28133e-12
1.06423e-12
8.73247e-13
7.07837e-13
5.66757e-13
4.48231e-13
3.50126e-13
2.70107e-13
2.05786e-13
1.54824e-13
1.15021e-13
8.4375e-14
6.1111e-14
4.36991e-14
3.08495e-14
2.14993e-14
1.47905e-14
1.00443e-14
6.73386e-15
4.458e-15
2.91705e-15
1.89149e-15
1.22407e-15
8.05372e-16
5.62639e-16
4.51695e-16
6.62604e-12
6.71177e-12
6.88759e-12
7.15545e-12
7.51849e-12
7.98098e-12
8.54832e-12
9.22718e-12
1.00255e-11
1.09525e-11
1.20191e-11
1.32375e-11
1.46217e-11
1.61877e-11
1.79531e-11
1.99381e-11
2.21647e-11
2.46579e-11
2.74452e-11
3.05572e-11
3.40277e-11
3.78941e-11
4.21976e-11
4.69836e-11
5.23021e-11
5.82081e-11
6.47619e-11
7.20296e-11
8.00835e-11
8.90028e-11
9.88741e-11
1.09792e-10
1.21858e-10
1.35186e-10
1.49896e-10
1.66121e-10
1.84003e-10
2.03698e-10
2.25373e-10
2.49208e-10
2.75399e-10
3.04154e-10
3.35698e-10
3.70272e-10
4.08133e-10
4.49557e-10
4.94837e-10
5.44283e-10
5.98228e-10
6.57019e-10
7.21027e-10
7.90639e-10
8.66264e-10
9.48327e-10
1.03727e-09
1.13357e-09
1.23768e-09
1.35012e-09
1.47138e-09
1.60198e-09
1.74246e-09
1.89333e-09
2.05515e-09
2.22843e-09
2.41372e-09
2.61151e-09
2.82232e-09
3.04663e-09
3.28487e-09
3.53747e-09
3.80481e-09
4.08719e-09
4.38489e-09
4.69809e-09
5.02693e-09
5.37143e-09
5.73154e-09
6.10709e-09
6.49781e-09
6.90331e-09
7.32307e-09
7.75642e-09
8.20256e-09
8.66056e-09
9.1293e-09
9.60754e-09
1.00939e-08
1.05867e-08
1.10843e-08
1.15849e-08
1.20863e-08
1.25865e-08
1.30832e-08
1.3574e-08
1.40563e-08
1.45278e-08
1.49857e-08
1.54274e-08
1.58502e-08
1.62516e-08
1.66289e-08
1.69796e-08
1.73012e-08
1.75916e-08
1.78485e-08
1.807e-08
1.82544e-08
1.84002e-08
1.8506e-08
1.8571e-08
1.85945e-08
1.85761e-08
1.85156e-08
1.84135e-08
1.82702e-08
1.80866e-08
1.78639e-08
1.76036e-08
1.73075e-08
1.69774e-08
1.66157e-08
1.62248e-08
1.58072e-08
1.53658e-08
1.49033e-08
1.44226e-08
1.39268e-08
1.34188e-08
1.29015e-08
1.23778e-08
1.18505e-08
1.13223e-08
1.07957e-08
1.02732e-08
9.75695e-09
9.249e-09
8.7512e-09
8.26522e-09
7.79249e-09
7.33426e-09
6.89157e-09
6.46526e-09
6.05598e-09
5.66422e-09
5.29027e-09
4.9343e-09
4.5963e-09
4.27616e-09
3.97364e-09
3.6884e-09
3.42002e-09
3.16801e-09
2.9318e-09
2.71079e-09
2.50434e-09
2.31178e-09
2.13243e-09
1.9656e-09
1.81059e-09
1.66672e-09
1.53331e-09
1.40971e-09
1.29528e-09
1.18941e-09
1.09151e-09
1.00102e-09
9.17414e-10
8.40186e-10
7.68868e-10
7.03019e-10
6.42228e-10
5.86115e-10
5.34323e-10
4.86527e-10
4.42425e-10
4.0174e-10
3.64217e-10
3.29626e-10
2.97752e-10
2.68403e-10
2.41401e-10
2.16585e-10
1.93808e-10
1.72934e-10
1.5384e-10
1.3641e-10
1.2054e-10
1.0613e-10
9.30882e-11
8.13273e-11
7.07642e-11
6.13197e-11
5.29178e-11
4.54848e-11
3.89497e-11
3.32432e-11
2.82981e-11
2.40493e-11
2.04334e-11
1.73891e-11
1.48571e-11
1.27805e-11
1.11046e-11
9.77735e-12
8.7492e-12
7.97347e-12
7.40638e-12
7.00722e-12
6.7385e-12
6.56611e-12
6.45945e-12
6.3916e-12
6.33943e-12
6.28367e-12
6.20897e-12
6.10386e-12
5.96061e-12
5.77502e-12
5.54616e-12
5.27595e-12
4.9687e-12
4.63058e-12
4.26912e-12
3.89259e-12
3.5095e-12
3.12812e-12
2.75609e-12
2.40006e-12
2.06549e-12
1.75654e-12
1.476e-12
1.2254e-12
1.00508e-12
8.14382e-13
6.51823e-13
5.15322e-13
4.02393e-13
3.10328e-13
2.36354e-13
1.77768e-13
1.32029e-13
9.68245e-14
7.01095e-14
5.01212e-14
3.53748e-14
2.46475e-14
1.69527e-14
1.15104e-14
7.71523e-15
5.10677e-15
3.34099e-15
2.16602e-15
1.40151e-15
9.2197e-16
6.43998e-16
5.16957e-16
1.15656e-11
1.17166e-11
1.20261e-11
1.24975e-11
1.31366e-11
1.39509e-11
1.495e-11
1.61458e-11
1.75525e-11
1.91865e-11
2.10672e-11
2.32165e-11
2.56595e-11
2.84244e-11
3.1543e-11
3.50512e-11
3.89887e-11
4.33999e-11
4.83342e-11
5.38465e-11
5.99974e-11
6.68539e-11
7.44902e-11
8.2988e-11
9.2437e-11
1.02936e-10
1.14595e-10
1.27531e-10
1.41876e-10
1.57772e-10
1.75376e-10
1.94858e-10
2.16405e-10
2.40219e-10
2.66519e-10
2.95547e-10
3.2756e-10
3.6284e-10
4.01692e-10
4.44443e-10
4.91447e-10
5.43085e-10
5.99767e-10
6.6193e-10
7.30045e-10
8.04614e-10
8.8617e-10
9.75284e-10
1.07256e-09
1.17863e-09
1.29418e-09
1.41991e-09
1.55656e-09
1.70493e-09
1.86582e-09
2.04008e-09
2.22859e-09
2.43224e-09
2.65196e-09
2.88871e-09
3.14345e-09
3.41714e-09
3.71076e-09
4.02528e-09
4.36167e-09
4.72086e-09
5.10375e-09
5.51122e-09
5.94406e-09
6.40302e-09
6.88877e-09
7.40185e-09
7.94273e-09
8.51173e-09
9.10902e-09
9.73463e-09
1.03884e-08
1.107e-08
1.17788e-08
1.2514e-08
1.32746e-08
1.40594e-08
1.48667e-08
1.56947e-08
1.65414e-08
1.74042e-08
1.82805e-08
1.91673e-08
2.00614e-08
2.09591e-08
2.18567e-08
2.27501e-08
2.3635e-08
2.4507e-08
2.53615e-08
2.61936e-08
2.69986e-08
2.77715e-08
2.85075e-08
2.92017e-08
2.98494e-08
3.04461e-08
3.09874e-08
3.14691e-08
3.18877e-08
3.22396e-08
3.25219e-08
3.27322e-08
3.28683e-08
3.29288e-08
3.29129e-08
3.28202e-08
3.26509e-08
3.2406e-08
3.20868e-08
3.16954e-08
3.12345e-08
3.0707e-08
3.01167e-08
2.94675e-08
2.87639e-08
2.80107e-08
2.72129e-08
2.63759e-08
2.5505e-08
2.46057e-08
2.36837e-08
2.27444e-08
2.17932e-08
2.08355e-08
1.98762e-08
1.89201e-08
1.79719e-08
1.70356e-08
1.61151e-08
1.5214e-08
1.43352e-08
1.34815e-08
1.26553e-08
1.18584e-08
1.10923e-08
1.03584e-08
9.65732e-09
8.98971e-09
8.35576e-09
7.75542e-09
7.1884e-09
6.65419e-09
6.15208e-09
5.68122e-09
5.24061e-09
4.82914e-09
4.44561e-09
4.08877e-09
3.75732e-09
3.44992e-09
3.16526e-09
2.90198e-09
2.65879e-09
2.4344e-09
2.22755e-09
2.03704e-09
1.86172e-09
1.70049e-09
1.55229e-09
1.41615e-09
1.29112e-09
1.17634e-09
1.071e-09
9.74331e-10
8.85643e-10
8.04283e-10
7.29655e-10
6.6121e-10
5.98445e-10
5.40899e-10
4.88151e-10
4.3982e-10
3.95554e-10
3.55038e-10
3.17983e-10
2.84125e-10
2.53226e-10
2.25068e-10
1.99452e-10
1.76195e-10
1.55129e-10
1.36099e-10
1.1896e-10
1.03578e-10
8.98259e-11
7.75841e-11
6.67393e-11
5.71835e-11
4.88135e-11
4.15307e-11
3.52403e-11
2.98518e-11
2.52781e-11
2.14362e-11
1.82468e-11
1.56344e-11
1.35275e-11
1.18585e-11
1.05638e-11
9.5841e-12
8.86407e-12
8.35275e-12
8.00357e-12
7.77441e-12
7.62774e-12
7.53071e-12
7.45524e-12
7.37802e-12
7.28057e-12
7.14907e-12
6.97424e-12
6.75101e-12
6.4782e-12
6.15797e-12
5.79533e-12
5.39745e-12
4.97307e-12
4.5318e-12
4.08353e-12
3.63784e-12
3.20356e-12
2.78836e-12
2.39854e-12
2.03885e-12
1.71248e-12
1.42114e-12
1.16516e-12
9.43727e-13
7.5507e-13
5.96737e-13
4.65809e-13
3.59118e-13
2.73429e-13
2.05592e-13
1.52651e-13
1.11918e-13
8.10174e-14
5.79051e-14
4.08591e-14
2.84624e-14
1.95726e-14
1.32865e-14
8.90411e-15
5.89266e-15
3.8545e-15
2.49854e-15
1.61641e-15
1.06318e-15
7.42529e-16
5.95992e-16
1.98752e-11
2.01371e-11
2.06736e-11
2.1491e-11
2.25991e-11
2.40111e-11
2.57441e-11
2.78187e-11
3.026e-11
3.30969e-11
3.63633e-11
4.00978e-11
4.43445e-11
4.91531e-11
5.45797e-11
6.06872e-11
6.75458e-11
7.5234e-11
8.38388e-11
9.34571e-11
1.04196e-10
1.16174e-10
1.29523e-10
1.44387e-10
1.60926e-10
1.79314e-10
1.99745e-10
2.2243e-10
2.47602e-10
2.75515e-10
3.06447e-10
3.40701e-10
3.7861e-10
4.20535e-10
4.66869e-10
5.1804e-10
5.74511e-10
6.36787e-10
7.0541e-10
7.8097e-10
8.64101e-10
9.55486e-10
1.05586e-09
1.16601e-09
1.28678e-09
1.41908e-09
1.56386e-09
1.72215e-09
1.89504e-09
2.08368e-09
2.28929e-09
2.51314e-09
2.75658e-09
3.02103e-09
3.30794e-09
3.61886e-09
3.95535e-09
4.31906e-09
4.71166e-09
5.13486e-09
5.59039e-09
6.08002e-09
6.60551e-09
7.1686e-09
7.77103e-09
8.41448e-09
9.10058e-09
9.83088e-09
1.06068e-08
1.14297e-08
1.23008e-08
1.32209e-08
1.41909e-08
1.52114e-08
1.62825e-08
1.74043e-08
1.85764e-08
1.97981e-08
2.10682e-08
2.23852e-08
2.37472e-08
2.51516e-08
2.65955e-08
2.80754e-08
2.95874e-08
3.11269e-08
3.26889e-08
3.42677e-08
3.58573e-08
3.7451e-08
3.90418e-08
4.06222e-08
4.21841e-08
4.37195e-08
4.52198e-08
4.66762e-08
4.80799e-08
4.94219e-08
5.06934e-08
5.18857e-08
5.29902e-08
5.39988e-08
5.49037e-08
5.56978e-08
5.63746e-08
5.6928e-08
5.73532e-08
5.76461e-08
5.78034e-08
5.7823e-08
5.77038e-08
5.74458e-08
5.70501e-08
5.6519e-08
5.58556e-08
5.50645e-08
5.41508e-08
5.3121e-08
5.19821e-08
5.07422e-08
4.94097e-08
4.79939e-08
4.65044e-08
4.49512e-08
4.33443e-08
4.16942e-08
4.00108e-08
3.83044e-08
3.65847e-08
3.48612e-08
3.31428e-08
3.14381e-08
2.97549e-08
2.81005e-08
2.64813e-08
2.49033e-08
2.33714e-08
2.18901e-08
2.04629e-08
1.90927e-08
1.77819e-08
1.65318e-08
1.53435e-08
1.42173e-08
1.31532e-08
1.21504e-08
1.1208e-08
1.03247e-08
9.49863e-09