/*--------------------------------*- C++ -*----------------------------------*\
| =========                 |                                                 |
| \\      /  F ield         | OpenFOAM: The Open Source CFD Toolbox           |
|  \\    /   O peration     | Version:  v2012                                 |
|   \\  /    A nd           | Website:  www.openfoam.com                      |
|    \\/     M anipulation  |                                                 |
\*---------------------------------------------------------------------------*/
FoamFile
{
    version     2.0;
    format      ascii;
    class       volScalarField;
    location    "2.5";
    object      Psi_z;
}
// * * * * * * * * * * * * * * * * * * * * * * * * * * * * * * * * * * * * * //

dimensions      [0 2 -1 0 0 0 0];


internalField   nonuniform List<scalar> 
65536
(
8.73664e-06
2.62093e-05
4.36804e-05
6.11488e-05
7.86133e-05
9.6073e-05
0.000113527
0.000130973
0.000148411
0.00016584
0.000183258
0.000200664
0.000218057
0.000235435
0.000252798
0.000270144
0.000287472
0.000304779
0.000322065
0.000339329
0.000356568
0.000373782
0.000390967
0.000408124
0.000425249
0.000442342
0.0004594
0.000476422
0.000493405
0.000510347
0.000527247
0.000544102
0.00056091
0.000577668
0.000594375
0.000611028
0.000627625
0.000644162
0.000660637
0.000677048
0.000693392
0.000709666
0.000725867
0.000741992
0.000758039
0.000774003
0.000789883
0.000805674
0.000821374
0.000836978
0.000852485
0.00086789
0.00088319
0.000898382
0.000913461
0.000928424
0.000943268
0.000957989
0.000972582
0.000987045
0.00100137
0.00101556
0.00102961
0.00104351
0.00105727
0.00107086
0.0010843
0.00109758
0.0011107
0.00112364
0.00113641
0.001149
0.00116142
0.00117365
0.00118568
0.00119753
0.00120918
0.00122063
0.00123188
0.00124292
0.00125375
0.00126437
0.00127477
0.00128495
0.00129491
0.00130464
0.00131414
0.0013234
0.00133243
0.00134123
0.00134978
0.00135809
0.00136615
0.00137396
0.00138152
0.00138883
0.00139589
0.00140269
0.00140923
0.00141551
0.00142153
0.00142728
0.00143277
0.00143799
0.00144295
0.00144764
0.00145206
0.00145622
0.0014601
0.00146371
0.00146705
0.00147013
0.00147293
0.00147546
0.00147771
0.0014797
0.00148142
0.00148287
0.00148405
0.00148497
0.00148561
0.00148599
0.0014861
0.00148595
0.00148553
0.00148486
0.00148392
0.00148272
0.00148126
0.00147955
0.00147758
0.00147536
0.00147289
0.00147017
0.0014672
0.00146399
0.00146053
0.00145683
0.00145289
0.00144871
0.0014443
0.00143965
0.00143478
0.00142967
0.00142434
0.00141879
0.00141301
0.00140701
0.0014008
0.00139438
0.00138774
0.00138089
0.00137384
0.00136658
0.00135912
0.00135146
0.0013436
0.00133555
0.00132731
0.00131889
0.00131027
0.00130147
0.0012925
0.00128334
0.00127401
0.0012645
0.00125483
0.00124499
0.00123498
0.00122481
0.00121449
0.001204
0.00119337
0.00118258
0.00117164
0.00116056
0.00114934
0.00113797
0.00112647
0.00111483
0.00110306
0.00109116
0.00107913
0.00106698
0.0010547
0.00104231
0.0010298
0.00101717
0.00100444
0.000991594
0.000978643
0.000965588
0.000952431
0.000939175
0.000925823
0.000912377
0.000898839
0.000885211
0.000871497
0.000857698
0.000843816
0.000829855
0.000815815
0.0008017
0.000787512
0.000773252
0.000758924
0.000744528
0.000730067
0.000715544
0.00070096
0.000686316
0.000671616
0.000656861
0.000642052
0.000627193
0.000612283
0.000597326
0.000582323
0.000567276
0.000552186
0.000537055
0.000521884
0.000506676
0.000491431
0.000476152
0.000460839
0.000445495
0.00043012
0.000414716
0.000399284
0.000383825
0.000368342
0.000352834
0.000337304
0.000321753
0.000306181
0.00029059
0.000274981
0.000259356
0.000243714
0.000228058
0.000212388
0.000196705
0.000181011
0.000165306
0.000149592
0.000133868
0.000118137
0.000102399
8.66554e-05
7.09066e-05
5.51538e-05
3.93978e-05
2.36396e-05
7.88001e-06
2.62104e-05
7.86296e-05
0.000131044
0.00018345
0.000235845
0.000288225
0.000340587
0.000392927
0.000445243
0.00049753
0.000549785
0.000602004
0.000654184
0.000706321
0.000758411
0.00081045
0.000862434
0.000914358
0.000966219
0.00101801
0.00106973
0.00112137
0.00117293
0.0012244
0.00127578
0.00132706
0.00137824
0.0014293
0.00148025
0.00153108
0.00158178
0.00163235
0.00168278
0.00173306
0.00178318
0.00183314
0.00188293
0.00193255
0.00198197
0.00203121
0.00208025
0.00212907
0.00217768
0.00222605
0.0022742
0.00232209
0.00236973
0.00241711
0.00246421
0.00251103
0.00255756
0.00260377
0.00264968
0.00269526
0.0027405
0.00278539
0.00282993
0.00287409
0.00291788
0.00296127
0.00300426
0.00304683
0.00308898
0.00313069
0.00317195
0.00321275
0.00325307
0.00329291
0.00333226
0.00337109
0.00340941
0.00344719
0.00348444
0.00352112
0.00355724
0.00359279
0.00362774
0.0036621
0.00369585
0.00372898
0.00376147
0.00379333
0.00382453
0.00385507
0.00388495
0.00391414
0.00394264
0.00397044
0.00399754
0.00402392
0.00404958
0.0040745
0.00409869
0.00412213
0.00414483
0.00416676
0.00418792
0.00420832
0.00422794
0.00424678
0.00426484
0.0042821
0.00429857
0.00431425
0.00432912
0.00434319
0.00435646
0.00436892
0.00438057
0.0043914
0.00440143
0.00441064
0.00441905
0.00442664
0.00443341
0.00443938
0.00444454
0.00444888
0.00445243
0.00445516
0.0044571
0.00445823
0.00445857
0.00445811
0.00445686
0.00445483
0.00445201
0.00444842
0.00444405
0.00443891
0.00443301
0.00442634
0.00441893
0.00441076
0.00440185
0.00439221
0.00438183
0.00437073
0.00435891
0.00434637
0.00433313
0.0043192
0.00430456
0.00428925
0.00427325
0.00425658
0.00423925
0.00422126
0.00420262
0.00418334
0.00416342
0.00414288
0.00412171
0.00409993
0.00407755
0.00405457
0.00403101
0.00400686
0.00398213
0.00395684
0.003931
0.0039046
0.00387766
0.00385019
0.00382219
0.00379368
0.00376465
0.00373513
0.00370511
0.0036746
0.00364362
0.00361217
0.00358025
0.00354789
0.00351507
0.00348182
0.00344815
0.00341405
0.00337953
0.00334462
0.0033093
0.0032736
0.00323751
0.00320105
0.00316423
0.00312704
0.00308951
0.00305164
0.00301343
0.00297489
0.00293603
0.00289687
0.00285739
0.00281762
0.00277756
0.00273722
0.00269661
0.00265572
0.00261458
0.00257318
0.00253153
0.00248964
0.00244752
0.00240518
0.00236261
0.00231983
0.00227684
0.00223365
0.00219027
0.00214669
0.00210294
0.00205901
0.0020149
0.00197064
0.00192621
0.00188163
0.0018369
0.00179203
0.00174701
0.00170187
0.0016566
0.0016112
0.00156569
0.00152006
0.00147433
0.00142849
0.00138255
0.00133652
0.00129039
0.00124417
0.00119788
0.0011515
0.00110505
0.00105853
0.00101194
0.00096528
0.000918563
0.000871789
0.000824962
0.000778083
0.000731158
0.000684188
0.000637177
0.000590128
0.000543044
0.000495928
0.000448784
0.000401613
0.000354418
0.000307204
0.000259971
0.000212724
0.000165465
0.000118196
7.09201e-05
2.36405e-05
4.36858e-05
0.000131055
0.000218415
0.000305763
0.000393091
0.000480395
0.000567668
0.000654906
0.000742102
0.000829252
0.000916347
0.00100338
0.00109036
0.00117725
0.00126408
0.00135081
0.00143746
0.001524
0.00161044
0.00169677
0.00178297
0.00186904
0.00195498
0.00204077
0.00212641
0.00221188
0.00229718
0.0023823
0.00246722
0.00255195
0.00263646
0.00272074
0.00280479
0.0028886
0.00297215
0.00305542
0.00313842
0.00322112
0.00330351
0.00338557
0.00346731
0.00354869
0.00362971
0.00371035
0.0037906
0.00387044
0.00394985
0.00402882
0.00410734
0.00418538
0.00426293
0.00433997
0.00441649
0.00449247
0.00456788
0.00464271
0.00471695
0.00479057
0.00486356
0.0049359
0.00500756
0.00507853
0.00514879
0.00521832
0.0052871
0.00535511
0.00542233
0.00548874
0.00555433
0.00561907
0.00568294
0.00574593
0.00580801
0.00586917
0.00592938
0.00598863
0.00604691
0.00610418
0.00616044
0.00621566
0.00626983
0.00632294
0.00637495
0.00642587
0.00647566
0.00652433
0.00657184
0.00661819
0.00666336
0.00670734
0.00675011
0.00679166
0.00683198
0.00687106
0.00690888
0.00694544
0.00698073
0.00701473
0.00704744
0.00707884
0.00710894
0.00713772
0.00716518
0.0071913
0.0072161
0.00723955
0.00726166
0.00728243
0.00730184
0.00731991
0.00733662
0.00735198
0.00736598
0.00737863
0.00738992
0.00739987
0.00740846
0.0074157
0.0074216
0.00742616
0.00742938
0.00743127
0.00743182
0.00743106
0.00742898
0.00742558
0.00742088
0.00741489
0.0074076
0.00739903
0.00738919
0.00737808
0.00736571
0.00735209
0.00733724
0.00732116
0.00730386
0.00728535
0.00726564
0.00724474
0.00722267
0.00719943
0.00717503
0.0071495
0.00712283
0.00709504
0.00706615
0.00703616
0.00700508
0.00697294
0.00693973
0.00690548
0.0068702
0.0068339
0.00679658
0.00675828
0.00671899
0.00667873
0.00663752
0.00659536
0.00655227
0.00650827
0.00646337
0.00641757
0.0063709
0.00632337
0.00627498
0.00622576
0.00617572
0.00612487
0.00607322
0.00602079
0.00596759
0.00591364
0.00585894
0.00580352
0.00574738
0.00569054
0.00563301
0.0055748
0.00551593
0.00545642
0.00539627
0.00533549
0.00527411
0.00521213
0.00514957
0.00508643
0.00502274
0.0049585
0.00489374
0.00482845
0.00476265
0.00469636
0.00462959
0.00456234
0.00449464
0.00442649
0.00435791
0.0042889
0.00421948
0.00414966
0.00407946
0.00400887
0.00393792
0.00386661
0.00379496
0.00372297
0.00365065
0.00357803
0.00350509
0.00343187
0.00335836
0.00328457
0.00321052
0.00313621
0.00306166
0.00298686
0.00291184
0.00283659
0.00276113
0.00268547
0.00260961
0.00253356
0.00245733
0.00238093
0.00230436
0.00222763
0.00215075
0.00207372
0.00199655
0.00191925
0.00184183
0.00176429
0.00168663
0.00160887
0.001531
0.00145304
0.00137499
0.00129686
0.00121865
0.00114036
0.001062
0.000983586
0.000905109
0.00082658
0.000748002
0.00066938
0.00059072
0.000512026
0.000433302
0.000354554
0.000275785
0.000197
0.000118205
3.94023e-05
6.11639e-05
0.000183488
0.000305801
0.000428094
0.000550362
0.000672594
0.000794785
0.000916927
0.00103901
0.00116103
0.00128297
0.00140483
0.0015266
0.00164827
0.00176983
0.00189127
0.00201258
0.00213375
0.00225478
0.00237564
0.00249634
0.00261685
0.00273718
0.0028573
0.0029772
0.00309688
0.00321631
0.00333549
0.0034544
0.00357302
0.00369135
0.00380937
0.00392706
0.0040444
0.00416138
0.00427799
0.0043942
0.00450999
0.00462536
0.00474027
0.00485472
0.00496868
0.00508213
0.00519505
0.00530741
0.00541921
0.00553041
0.00564099
0.00575094
0.00586022
0.00596881
0.0060767
0.00618385
0.00629024
0.00639584
0.00650064
0.0066046
0.00670769
0.0068099
0.0069112
0.00701155
0.00711093
0.00720932
0.00730669
0.00740301
0.00749825
0.00759239
0.0076854
0.00777724
0.00786791
0.00795735
0.00804556
0.0081325
0.00821815
0.00830248
0.00838546
0.00846707
0.00854728
0.00862606
0.0087034
0.00877927
0.00885363
0.00892648
0.00899778
0.00906752
0.00913567
0.00920221
0.00926711
0.00933037
0.00939196
0.00945186
0.00951005
0.00956651
0.00962124
0.00967421
0.00972541
0.00977482
0.00982243
0.00986824
0.00991221
0.00995436
0.00999466
0.0100331
0.0100697
0.0101044
0.0101373
0.0101682
0.0101973
0.0102245
0.0102498
0.0102732
0.0102947
0.0103143
0.010332
0.0103478
0.0103617
0.0103737
0.0103839
0.0103921
0.0103985
0.010403
0.0104056
0.0104064
0.0104053
0.0104024
0.0103976
0.0103911
0.0103826
0.0103724
0.0103604
0.0103466
0.0103311
0.0103137
0.0102947
0.0102739
0.0102513
0.0102271
0.0102012
0.0101736
0.0101443
0.0101134
0.0100808
0.0100466
0.0100109
0.00997353
0.00993461
0.00989414
0.00985214
0.00980862
0.00976359
0.00971709
0.00966912
0.00961971
0.00956886
0.00951661
0.00946296
0.00940794
0.00935156
0.00929384
0.0092348
0.00917447
0.00911284
0.00904996
0.00898583
0.00892047
0.0088539
0.00878615
0.00871722
0.00864714
0.00857593
0.00850361
0.00843018
0.00835569
0.00828013
0.00820354
0.00812593
0.00804731
0.00796772
0.00788715
0.00780565
0.00772322
0.00763987
0.00755564
0.00747054
0.00738459
0.0072978
0.00721019
0.00712179
0.0070326
0.00694265
0.00685196
0.00676054
0.00666841
0.00657558
0.00648208
0.00638792
0.00629312
0.0061977
0.00610166
0.00600504
0.00590784
0.00581007
0.00571177
0.00561293
0.00551358
0.00541374
0.00531341
0.00521261
0.00511135
0.00500966
0.00490754
0.00480501
0.00470209
0.00459877
0.00449509
0.00439104
0.00428665
0.00418193
0.00407688
0.00397153
0.00386588
0.00375994
0.00365372
0.00354724
0.00344051
0.00333353
0.00322632
0.00311889
0.00301125
0.0029034
0.00279536
0.00268713
0.00257873
0.00247016
0.00236143
0.00225256
0.00214354
0.00203439
0.00192511
0.00181571
0.00170621
0.0015966
0.00148689
0.0013771
0.00126723
0.00115728
0.00104726
0.000937187
0.000827056
0.000716877
0.000606658
0.000496404
0.000386121
0.000275816
0.000165496
5.51664e-05
7.86458e-05
0.000235932
0.000393205
0.000550453
0.000707667
0.000864837
0.00102195
0.00117901
0.00133598
0.00149288
0.00164967
0.00180637
0.00196294
0.00211939
0.00227569
0.00243185
0.00258784
0.00274365
0.00289927
0.00305469
0.00320989
0.00336486
0.00351958
0.00367404
0.00382822
0.00398211
0.00413569
0.00428895
0.00444185
0.0045944
0.00474656
0.00489832
0.00504966
0.00520056
0.005351
0.00550095
0.00565039
0.0057993
0.00594766
0.00609544
0.00624262
0.00638917
0.00653507
0.00668029
0.0068248
0.00696857
0.00711158
0.0072538
0.0073952
0.00753575
0.00767541
0.00781416
0.00795197
0.00808879
0.00822462
0.0083594
0.0084931
0.0086257
0.00875716
0.00888744
0.00901651
0.00914434
0.00927088
0.00939612
0.00952
0.0096425
0.00976358
0.00988321
0.0100013
0.010118
0.010233
0.0103465
0.0104583
0.0105685
0.0106769
0.0107837
0.0108886
0.0109918
0.0110931
0.0111926
0.0112902
0.0113858
0.0114795
0.0115713
0.011661
0.0117486
0.0118342
0.0119177
0.0119991
0.0120783
0.0121553
0.0122302
0.0123028
0.0123732
0.0124413
0.0125072
0.0125707
0.0126319
0.0126909
0.0127474
0.0128016
0.0128535
0.0129029
0.01295
0.0129946
0.0130368
0.0130766
0.013114
0.013149
0.0131815
0.0132116
0.0132392
0.0132645
0.0132872
0.0133075
0.0133254
0.0133409
0.0133539
0.0133645
0.0133727
0.0133785
0.0133819
0.0133828
0.0133814
0.0133777
0.0133715
0.013363
0.0133522
0.0133391
0.0133236
0.0133059
0.0132858
0.0132635
0.013239
0.0132122
0.0131832
0.013152
0.0131187
0.0130831
0.0130455
0.0130057
0.0129638
0.0129199
0.0128738
0.0128258
0.0127757
0.0127237
0.0126696
0.0126136
0.0125557
0.0124959
0.0124342
0.0123706
0.0123052
0.012238
0.012169
0.0120982
0.0120257
0.0119515
0.0118756
0.0117979
0.0117187
0.0116378
0.0115553
0.0114712
0.0113856
0.0112985
0.0112098
0.0111197
0.0110281
0.0109351
0.0108407
0.0107448
0.0106477
0.0105492
0.0104493
0.0103482
0.0102459
0.0101422
0.0100374
0.0099314
0.00982422
0.00971589
0.00960644
0.0094959
0.00938428
0.00927161
0.00915792
0.00904322
0.00892754
0.00881091
0.00869334
0.00857485
0.00845548
0.00833523
0.00821415
0.00809223
0.00796951
0.00784601
0.00772175
0.00759675
0.00747103
0.00734461
0.00721751
0.00708975
0.00696135
0.00683233
0.0067027
0.0065725
0.00644172
0.00631041
0.00617856
0.0060462
0.00591334
0.00578001
0.00564622
0.00551198
0.00537732
0.00524224
0.00510676
0.0049709
0.00483467
0.00469809
0.00456117
0.00442393
0.00428637
0.00414851
0.00401037
0.00387195
0.00373327
0.00359435
0.00345518
0.00331579
0.00317619
0.00303638
0.00289639
0.00275621
0.00261585
0.00247534
0.00233468
0.00219387
0.00205293
0.00191187
0.0017707
0.00162942
0.00148805
0.00134659
0.00120505
0.00106344
0.00092177
0.000780048
0.000638282
0.000496479
0.000354648
0.000212797
7.09336e-05
9.61325e-05
0.000288392
0.000480633
0.000672845
0.000865015
0.00105713
0.00124918
0.00144116
0.00163304
0.00182482
0.00201649
0.00220802
0.00239941
0.00259065
0.00278171
0.00297259
0.00316327
0.00335374
0.00354397
0.00373395
0.00392367
0.00411311
0.00430224
0.00449106
0.00467954
0.00486766
0.00505541
0.00524275
0.00542968
0.00561616
0.00580217
0.0059877
0.00617271
0.00635719
0.0065411
0.00672441
0.00690711
0.00708917
0.00727054
0.00745122
0.00763115
0.00781033
0.0079887
0.00816624
0.00834292
0.0085187
0.00869355
0.00886744
0.00904032
0.00921215
0.00938292
0.00955256
0.00972106
0.00988836
0.0100544
0.0102192
0.0103827
0.0105448
0.0107056
0.0108649
0.0110227
0.011179
0.0113338
0.0114869
0.0116384
0.0117882
0.0119362
0.0120825
0.012227
0.0123696
0.0125103
0.012649
0.0127858
0.0129205
0.0130531
0.0131836
0.013312
0.0134381
0.0135621
0.0136837
0.013803
0.01392
0.0140346
0.0141468
0.0142564
0.0143636
0.0144683
0.0145704
0.0146699
0.0147668
0.014861
0.0149525
0.0150413
0.0151274
0.0152107
0.0152912
0.0153689
0.0154438
0.0155158
0.015585
0.0156513
0.0157146
0.0157751
0.0158326
0.0158872
0.0159388
0.0159875
0.0160332
0.016076
0.0161157
0.0161525
0.0161863
0.0162171
0.0162449
0.0162697
0.0162916
0.0163105
0.0163264
0.0163393
0.0163493
0.0163564
0.0163605
0.0163617
0.0163599
0.0163553
0.0163478
0.0163374
0.0163241
0.016308
0.0162891
0.0162674
0.0162428
0.0162155
0.0161855
0.0161527
0.0161173
0.0160791
0.0160383
0.0159949
0.0159488
0.0159001
0.0158489
0.0157951
0.0157389
0.0156801
0.0156188
0.0155552
0.0154891
0.0154206
0.0153498
0.0152766
0.0152012
0.0151234
0.0150434
0.0149612
0.0148769
0.0147903
0.0147016
0.0146108
0.014518
0.0144231
0.0143261
0.0142272
0.0141264
0.0140236
0.0139189
0.0138123
0.0137039
0.0135937
0.0134817
0.013368
0.0132525
0.0131354
0.0130165
0.0128961
0.012774
0.0126504
0.0125252
0.0123986
0.0122704
0.0121408
0.0120097
0.0118773
0.0117434
0.0116083
0.0114718
0.0113341
0.0111951
0.0110548
0.0109134
0.0107708
0.010627
0.0104822
0.0103362
0.0101892
0.0100412
0.00989214
0.00974211
0.00959112
0.0094392
0.00928638
0.00913268
0.00897813
0.00882274
0.00866655
0.00850958
0.00835185
0.00819338
0.0080342
0.00787433
0.0077138
0.00755261
0.00739081
0.00722839
0.0070654
0.00690184
0.00673774
0.00657312
0.00640799
0.00624238
0.0060763
0.00590977
0.00574281
0.00557543
0.00540766
0.0052395
0.00507099
0.00490212
0.00473292
0.0045634
0.00439357
0.00422346
0.00405307
0.00388243
0.00371153
0.0035404
0.00336904
0.00319748
0.00302572
0.00285378
0.00268167
0.00250939
0.00233696
0.0021644
0.00199171
0.0018189
0.00164599
0.00147298
0.00129988
0.00112672
0.000953483
0.000780196
0.000606865
0.000433499
0.000260109
8.67048e-05
0.000113625
0.000340868
0.000568091
0.000795279
0.00102242
0.00124949
0.00147649
0.0017034
0.0019302
0.00215688
0.00238343
0.00260982
0.00283604
0.00306208
0.00328792
0.00351354
0.00373893
0.00396406
0.00418891
0.00441348
0.00463773
0.00486166
0.00508522
0.00530842
0.00553121
0.00575359
0.00597552
0.00619697
0.00641794
0.00663838
0.00685827
0.00707759
0.0072963
0.00751438
0.00773179
0.0079485
0.00816448
0.00837971
0.00859413
0.00880772
0.00902045
0.00923227
0.00944316
0.00965306
0.00986194
0.0100698
0.0102765
0.0104821
0.0106865
0.0108896
0.0110915
0.0112921
0.0114913
0.0116892
0.0118855
0.0120804
0.0122737
0.0124654
0.0126555
0.0128438
0.0130304
0.0132153
0.0133982
0.0135793
0.0137584
0.0139356
0.0141107
0.0142836
0.0144545
0.0146231
0.0147895
0.0149535
0.0151152
0.0152745
0.0154314
0.0155857
0.0157375
0.0158867
0.0160333
0.0161771
0.0163183
0.0164566
0.0165921
0.0167247
0.0168544
0.0169812
0.017105
0.0172257
0.0173433
0.0174579
0.0175693
0.0176775
0.0177826
0.0178843
0.0179828
0.0180781
0.01817
0.0182585
0.0183437
0.0184254
0.0185038
0.0185787
0.0186502
0.0187182
0.0187828
0.0188438
0.0189013
0.0189554
0.0190059
0.0190529
0.0190963
0.0191363
0.0191727
0.0192056
0.0192349
0.0192607
0.019283
0.0193018
0.0193171
0.0193289
0.0193372
0.019342
0.0193434
0.0193413
0.0193358
0.0193269
0.0193145
0.0192988
0.0192798
0.0192574
0.0192316
0.0192026
0.0191703
0.0191348
0.019096
0.019054
0.0190089
0.0189606
0.0189092
0.0188547
0.0187971
0.0187365
0.0186729
0.0186064
0.0185368
0.0184644
0.0183891
0.0183109
0.0182299
0.0181462
0.0180596
0.0179704
0.0178784
0.0177839
0.0176866
0.0175868
0.0174845
0.0173796
0.0172722
0.0171624
0.0170502
0.0169356
0.0168186
0.0166994
0.0165778
0.016454
0.016328
0.0161998
0.0160695
0.0159371
0.0158026
0.0156661
0.0155275
0.015387
0.0152446
0.0151003
0.0149541
0.0148061
0.0146563
0.0145048
0.0143515
0.0141966
0.01404
0.0138818
0.013722
0.0135606
0.0133978
0.0132334
0.0130676
0.0129004
0.0127318
0.0125619
0.0123906
0.0122181
0.0120443
0.0118692
0.011693
0.0115157
0.0113372
0.0111576
0.0109769
0.0107952
0.0106125
0.0104288
0.0102441
0.0100586
0.0098721
0.00968477
0.0094966
0.00930761
0.00911783
0.00892729
0.00873602
0.00854403
0.00835135
0.00815801
0.00796402
0.00776942
0.00757423
0.00737846
0.00718214
0.00698529
0.00678793
0.00659009
0.00639177
0.006193
0.00599381
0.0057942
0.0055942
0.00539382
0.00519309
0.00499201
0.00479061
0.00458891
0.00438691
0.00418463
0.00398209
0.00377931
0.00357629
0.00337306
0.00316962
0.002966
0.00276219
0.00255823
0.00235411
0.00214986
0.00194548
0.00174099
0.0015364
0.00133173
0.00112697
0.000922155
0.000717285
0.000512376
0.000307437
0.000102481
0.000131125
0.000393366
0.000655584
0.000917761
0.00117988
0.00144193
0.00170389
0.00196575
0.00222749
0.00248908
0.00275052
0.00301178
0.00327286
0.00353372
0.00379435
0.00405472
0.00431483
0.00457465
0.00483415
0.00509332
0.00535213
0.00561056
0.00586858
0.00612617
0.00638331
0.00663996
0.0068961
0.0071517
0.00740672
0.00766115
0.00791495
0.00816809
0.00842053
0.00867223
0.00892318
0.00917332
0.00942262
0.00967104
0.00991855
0.0101651
0.0104107
0.0106552
0.0108986
0.0111409
0.011382
0.0116219
0.0118606
0.0120979
0.0123339
0.0125684
0.0128015
0.013033
0.013263
0.0134914
0.0137181
0.0139431
0.0141663
0.0143876
0.014607
0.0148245
0.01504
0.0152534
0.0154646
0.0156737
0.0158805
0.016085
0.0162872
0.0164869
0.0166842
0.0168789
0.017071
0.0172604
0.0174471
0.0176311
0.0178122
0.0179904
0.0181657
0.018338
0.0185072
0.0186733
0.0188363
0.018996
0.0191524
0.0193056
0.0194554
0.0196017
0.0197447
0.0198841
0.0200199
0.0201522
0.0202808
0.0204058
0.020527
0.0206446
0.0207583
0.0208682
0.0209743
0.0210766
0.0211749
0.0212693
0.0213598
0.0214463
0.0215288
0.0216073
0.0216818
0.0217523
0.0218187
0.021881
0.0219393
0.0219936
0.0220437
0.0220898
0.0221318
0.0221698
0.0222036
0.0222334
0.0222591
0.0222808
0.0222984
0.022312
0.0223215
0.022327
0.0223286
0.0223261
0.0223197
0.0223094
0.0222951
0.0222769
0.0222549
0.022229
0.0221992
0.0221657
0.0221283
0.0220873
0.0220425
0.021994
0.0219418
0.021886
0.0218266
0.0217637
0.0216972
0.0216272
0.0215537
0.0214768
0.0213965
0.0213128
0.0212258
0.0211356
0.021042
0.0209453
0.0208454
0.0207423
0.0206361
0.0205269
0.0204146
0.0202994
0.0201812
0.0200601
0.0199361
0.0198093
0.0196797
0.0195474
0.0194123
0.0192746
0.0191343
0.0189913
0.0188459
0.0186979
0.0185474
0.0183945
0.0182392
0.0180816
0.0179217
0.0177595
0.017595
0.0174284
0.0172597
0.0170888
0.0169159
0.0167409
0.016564
0.0163851
0.0162044
0.0160217
0.0158372
0.015651
0.015463
0.0152732
0.0150818
0.0148888
0.0146942
0.014498
0.0143003
0.0141011
0.0139005
0.0136985
0.0134951
0.0132903
0.0130843
0.012877
0.0126684
0.0124587
0.0122478
0.0120358
0.0118226
0.0116085
0.0113932
0.011177
0.0109598
0.0107417
0.0105226
0.0103027
0.0100819
0.00986035
0.00963796
0.00941481
0.00919092
0.00896632
0.00874104
0.00851509
0.00828851
0.00806132
0.00783355
0.00760521
0.00737633
0.00714693
0.00691704
0.00668668
0.00645586
0.00622461
0.00599295
0.00576089
0.00552846
0.00529568
0.00506256
0.00482913
0.00459539
0.00436137
0.00412708
0.00389254
0.00365777
0.00342278
0.00318759
0.00295221
0.00271665
0.00248094
0.00224509
0.00200911
0.00177301
0.00153681
0.00130053
0.00106417
0.000827747
0.000591281
0.000354782
0.000118263
0.000148632
0.000445888
0.000743116
0.0010403
0.00133742
0.00163446
0.0019314
0.00222822
0.00252491
0.00282144
0.00311779
0.00341394
0.00370988
0.00400558
0.00430102
0.00459618
0.00489103
0.00518556
0.00547973
0.00577352
0.00606691
0.00635987
0.00665237
0.00694439
0.00723589
0.00752684
0.00781722
0.00810699
0.00839611
0.00868456
0.00897229
0.00925928
0.00954548
0.00983086
0.0101154
0.010399
0.0106816
0.0109633
0.0112439
0.0115235
0.0118019
0.0120791
0.0123552
0.0126299
0.0129033
0.0131754
0.013446
0.0137151
0.0139827
0.0142486
0.0145129
0.0147755
0.0150364
0.0152953
0.0155524
0.0158076
0.0160607
0.0163117
0.0165605
0.0168072
0.0170516
0.0172936
0.0175332
0.0177703
0.0180049
0.0182369
0.0184661
0.0186927
0.0189164
0.0191372
0.0193551
0.01957
0.0197818
0.0199905
0.0201959
0.020398
0.0205969
0.0207923
0.0209842
0.0211726
0.0213575
0.0215386
0.0217161
0.0218898
0.0220597
0.0222258
0.0223879
0.022546
0.0227001
0.0228501
0.022996
0.0231378
0.0232753
0.0234086
0.0235376
0.0236623
0.0237826
0.0238985
0.02401
0.0241171
0.0242197
0.0243178
0.0244114
0.0245004
0.0245849
0.0246648
0.0247401
0.0248108
0.0248769
0.0249384
0.0249952
0.0250474
0.025095
0.025138
0.0251764
0.0252101
0.0252392
0.0252638
0.0252837
0.025299
0.0253098
0.0253161
0.0253177
0.0253149
0.0253076
0.0252958
0.0252796
0.0252589
0.0252338
0.0252044
0.0251706
0.0251325
0.0250901
0.0250435
0.0249926
0.0249376
0.0248784
0.024815
0.0247476
0.0246762
0.0246007
0.0245213
0.0244379
0.0243506
0.0242595
0.0241646
0.0240659
0.0239635
0.0238574
0.0237476
0.0236342
0.0235173
0.0233969
0.0232729
0.0231456
0.0230149
0.0228808
0.0227434
0.0226028
0.022459
0.022312
0.0221619
0.0220087
0.0218525
0.0216933
0.0215312
0.0213662
0.0211984
0.0210277
0.0208543
0.0206782
0.0204994
0.0203181
0.0201341
0.0199477
0.0197587
0.0195673
0.0193736
0.0191775
0.0189791
0.0187784
0.0185756
0.0183706
0.0181635
0.0179543
0.017743
0.0175298
0.0173147
0.0170977
0.0168788
0.0166581
0.0164357
0.0162115
0.0159857
0.0157582
0.0155291
0.0152985
0.0150663
0.0148327
0.0145976
0.0143612
0.0141234
0.0138843
0.0136439
0.0134022
0.0131594
0.0129154
0.0126702
0.012424
0.0121766
0.0119283
0.011679
0.0114287
0.0111775
0.0109253
0.0106724
0.0104185
0.0101639
0.00990851
0.00965236
0.0093955
0.00913794
0.00887973
0.00862087
0.00836141
0.00810136
0.00784075
0.00757961
0.00731795
0.00705581
0.0067932
0.00653014
0.00626667
0.00600279
0.00573854
0.00547392
0.00520897
0.00494369
0.00467812
0.00441226
0.00414613
0.00387976
0.00361317
0.00334636
0.00307935
0.00281217
0.00254483
0.00227734
0.00200972
0.00174198
0.00147415
0.00120624
0.000938254
0.000670219
0.000402146
0.000134051
0.000166149
0.000498436
0.000830693
0.0011629
0.00149504
0.00182709
0.00215903
0.00249083
0.00282249
0.00315397
0.00348525
0.00381632
0.00414714
0.00447771
0.00480798
0.00513794
0.00546756
0.00579682
0.00612568
0.00645413
0.00678212
0.00710964
0.00743665
0.00776312
0.00808901
0.0084143
0.00873895
0.00906292
0.00938617
0.00970868
0.0100304
0.0103513
0.0106713
0.0109903
0.0113085
0.0116256
0.0119416
0.0122566
0.0125704
0.012883
0.0131943
0.0135043
0.013813
0.0141202
0.014426
0.0147302
0.0150328
0.0153338
0.0156331
0.0159305
0.0162261
0.0165198
0.0168115
0.0171012
0.0173887
0.0176741
0.0179572
0.0182379
0.0185163
0.0187922
0.0190655
0.0193362
0.0196042
0.0198695
0.0201319
0.0203914
0.0206479
0.0209013
0.0211515
0.0213986
0.0216423
0.0218827
0.0221196
0.022353
0.0225829
0.022809
0.0230314
0.02325
0.0234648
0.0236756
0.0238823
0.024085
0.0242836
0.0244779
0.024668
0.0248537
0.025035
0.0252119
0.0253843
0.0255521
0.0257154
0.0258739
0.0260278
0.0261769
0.0263212
0.0264606
0.0265952
0.0267249
0.0268496
0.0269694
0.0270841
0.0271939
0.0272985
0.0273981
0.0274925
0.0275819
0.0276661
0.0277451
0.027819
0.0278878
0.0279513
0.0280097
0.0280629
0.0281109
0.0281538
0.0281915
0.028224
0.0282514
0.0282736
0.0282907
0.0283027
0.0283096
0.0283114
0.0283082
0.0283
0.0282867
0.0282685
0.0282453
0.0282172
0.0281842
0.0281463
0.0281036
0.0280562
0.0280039
0.027947
0.0278853
0.027819
0.0277481
0.0276727
0.0275927
0.0275082
0.0274193
0.027326
0.0272283
0.0271264
0.0270201
0.0269097
0.0267951
0.0266763
0.0265535
0.0264267
0.0262958
0.0261611
0.0260224
0.02588
0.0257337
0.0255837
0.02543
0.0252727
0.0251118
0.0249474
0.0247795
0.0246081
0.0244334
0.0242553
0.024074
0.0238894
0.0237017
0.0235108
0.0233168
0.0231199
0.0229199
0.022717
0.0225113
0.0223027
0.0220914
0.0218774
0.0216607
0.0214413
0.0212194
0.020995
0.0207682
0.0205389
0.0203073
0.0200733
0.0198371
0.0195987
0.0193581
0.0191154
0.0188706
0.0186238
0.0183751
0.0181244
0.0178718
0.0176174
0.0173613
0.0171034
0.0168438
0.0165825
0.0163197
0.0160553
0.0157894
0.015522
0.0152532
0.014983
0.0147115
0.0144386
0.0141645
0.0138892
0.0136126
0.013335
0.0130562
0.0127764
0.0124955
0.0122136
0.0119307
0.011647
0.0113623
0.0110767
0.0107903
0.0105032
0.0102152
0.00992654
0.00963715
0.00934707
0.00905634
0.00876499
0.00847305
0.00818053
0.00788747
0.00759389
0.00729981
0.00700527
0.00671028
0.00641487
0.00611905
0.00582286
0.00552632
0.00522943
0.00493224
0.00463474
0.00433698
0.00403896
0.0037407
0.00344223
0.00314356
0.00284471
0.0025457
0.00224654
0.00194725
0.00164786
0.00134838
0.00104881
0.000749195
0.000449533
0.000149847
0.000183675
0.000551014
0.000918321
0.00128557
0.00165275
0.00201983
0.00238678
0.00275359
0.00312024
0.00348669
0.00385293
0.00421893
0.00458467
0.00495012
0.00531525
0.00568004
0.00604445
0.00640847
0.00677205
0.00713518
0.00749781
0.00785992
0.00822147
0.00858242
0.00894275
0.0093024
0.00966136
0.0100196
0.010377
0.0107336
0.0110893
0.0114441
0.011798
0.0121508
0.0125026
0.0128532
0.0132027
0.013551
0.013898
0.0142437
0.014588
0.0149309
0.0152723
0.0156121
0.0159502
0.0162867
0.0166214
0.0169543
0.0172852
0.0176142
0.0179412
0.0182661
0.0185887
0.0189091
0.0192272
0.0195428
0.019856
0.0201666
0.0204745
0.0207797
0.0210821
0.0213816
0.0216781
0.0219715
0.0222618
0.0225489
0.0228326
0.023113
0.0233899
0.0236632
0.0239329
0.0241988
0.024461
0.0247192
0.0249735
0.0252237
0.0254698
0.0257117
0.0259493
0.0261825
0.0264113
0.0266355
0.0268552
0.0270702
0.0272805
0.027486
0.0276867
0.0278824
0.0280731
0.0282588
0.0284394
0.0286148
0.028785
0.02895
0.0291096
0.0292639
0.0294128
0.0295563
0.0296942
0.0298267
0.0299536
0.030075
0.0301907
0.0303008
0.0304053
0.0305041
0.0305972
0.0306846
0.0307663
0.0308423
0.0309126
0.0309771
0.0310359
0.031089
0.0311363
0.031178
0.0312139
0.0312441
0.0312686
0.0312875
0.0313007
0.0313082
0.0313102
0.0313065
0.0312973
0.0312826
0.0312623
0.0312366
0.0312054
0.0311688
0.0311269
0.0310796
0.0310269
0.0309691
0.030906
0.0308377
0.0307643
0.0306858
0.0306022
0.0305137
0.0304201
0.0303217
0.0302184
0.0301103
0.0299975
0.0298799
0.0297576
0.0296308
0.0294994
0.0293634
0.0292231
0.0290783
0.0289292
0.0287758
0.0286181
0.0284563
0.0282903
0.0281203
0.0279462
0.0277682
0.0275863
0.0274005
0.0272109
0.0270176
0.0268206
0.02662
0.0264158
0.0262081
0.0259969
0.0257824
0.0255645
0.0253433
0.0251189
0.0248913
0.0246606
0.0244268
0.0241901
0.0239504
0.0237078
0.0234623
0.0232141
0.0229632
0.0227096
0.0224534
0.0221946
0.0219334
0.0216697
0.0214036
0.0211352
0.0208644
0.0205915
0.0203164
0.0200391
0.0197598
0.0194785
0.0191952
0.01891
0.0186229
0.018334