/*--------------------------------*- C++ -*----------------------------------*\
| =========                 |                                                 |
| \\      /  F ield         | OpenFOAM: The Open Source CFD Toolbox           |
|  \\    /   O peration     | Version:  v2012                                 |
|   \\  /    A nd           | Website:  www.openfoam.com                      |
|    \\/     M anipulation  |                                                 |
\*---------------------------------------------------------------------------*/
FoamFile
{
    version     2.0;
    format      ascii;
    class       volVectorField;
    location    "2.5";
    object      U;
}
// * * * * * * * * * * * * * * * * * * * * * * * * * * * * * * * * * * * * * //

dimensions      [0 1 -1 0 0 0 0];


internalField   nonuniform List<vector> 
65536
(
(0.000711799 -0.000711777 0)
(0.00213535 -0.000711732 0)
(0.00355877 -0.000711644 0)
(0.00498197 -0.000711511 0)
(0.00640486 -0.000711333 0)
(0.00782734 -0.00071111 0)
(0.00924934 -0.000710841 0)
(0.0106708 -0.000710525 0)
(0.0120915 -0.000710163 0)
(0.0135114 -0.000709752 0)
(0.0149305 -0.000709292 0)
(0.0163487 -0.000708783 0)
(0.0177657 -0.000708222 0)
(0.0191816 -0.000707608 0)
(0.0205962 -0.000706941 0)
(0.0220094 -0.000706218 0)
(0.0234211 -0.000705439 0)
(0.0248312 -0.000704601 0)
(0.0262396 -0.000703703 0)
(0.0276461 -0.000702744 0)
(0.0290506 -0.00070172 0)
(0.0304531 -0.00070063 0)
(0.0318532 -0.000699473 0)
(0.033251 -0.000698245 0)
(0.0346463 -0.000696946 0)
(0.0360389 -0.000695572 0)
(0.0374286 -0.000694121 0)
(0.0388154 -0.000692591 0)
(0.0401991 -0.00069098 0)
(0.0415794 -0.000689284 0)
(0.0429563 -0.000687502 0)
(0.0443295 -0.000685631 0)
(0.0456989 -0.000683668 0)
(0.0470643 -0.00068161 0)
(0.0484255 -0.000679456 0)
(0.0497822 -0.000677201 0)
(0.0511344 -0.000674845 0)
(0.0524817 -0.000672383 0)
(0.053824 -0.000669813 0)
(0.0551611 -0.000667132 0)
(0.0564926 -0.000664339 0)
(0.0578185 -0.000661429 0)
(0.0591385 -0.0006584 0)
(0.0604522 -0.00065525 0)
(0.0617596 -0.000651977 0)
(0.0630603 -0.000648576 0)
(0.064354 -0.000645047 0)
(0.0656406 -0.000641386 0)
(0.0669197 -0.000637592 0)
(0.0681911 -0.000633661 0)
(0.0694545 -0.000629591 0)
(0.0707096 -0.000625381 0)
(0.0719562 -0.000621029 0)
(0.0731939 -0.000616531 0)
(0.0744224 -0.000611887 0)
(0.0756416 -0.000607095 0)
(0.076851 -0.000602152 0)
(0.0780503 -0.000597059 0)
(0.0792393 -0.000591812 0)
(0.0804177 -0.000586411 0)
(0.0815851 -0.000580855 0)
(0.0827413 -0.000575143 0)
(0.0838859 -0.000569273 0)
(0.0850185 -0.000563246 0)
(0.086139 -0.000557061 0)
(0.0872469 -0.000550717 0)
(0.088342 -0.000544215 0)
(0.089424 -0.000537554 0)
(0.0904924 -0.000530735 0)
(0.0915471 -0.000523757 0)
(0.0925876 -0.000516623 0)
(0.0936137 -0.000509332 0)
(0.0946251 -0.000501885 0)
(0.0956214 -0.000494284 0)
(0.0966024 -0.00048653 0)
(0.0975677 -0.000478624 0)
(0.098517 -0.000470568 0)
(0.0994501 -0.000462365 0)
(0.100367 -0.000454016 0)
(0.101266 -0.000445523 0)
(0.102149 -0.000436889 0)
(0.103014 -0.000428118 0)
(0.103861 -0.00041921 0)
(0.104691 -0.000410171 0)
(0.105502 -0.000401002 0)
(0.106295 -0.000391707 0)
(0.107069 -0.00038229 0)
(0.107824 -0.000372754 0)
(0.10856 -0.000363104 0)
(0.109277 -0.000353343 0)
(0.109974 -0.000343474 0)
(0.110651 -0.000333504 0)
(0.111308 -0.000323435 0)
(0.111945 -0.000313272 0)
(0.112561 -0.00030302 0)
(0.113157 -0.000292684 0)
(0.113732 -0.000282267 0)
(0.114286 -0.000271775 0)
(0.114819 -0.000261213 0)
(0.115331 -0.000250586 0)
(0.115822 -0.000239898 0)
(0.116291 -0.000229155 0)
(0.116738 -0.000218361 0)
(0.117164 -0.000207522 0)
(0.117568 -0.000196642 0)
(0.117951 -0.000185726 0)
(0.118311 -0.000174781 0)
(0.11865 -0.000163809 0)
(0.118967 -0.000152817 0)
(0.119261 -0.00014181 0)
(0.119534 -0.000130791 0)
(0.119784 -0.000119767 0)
(0.120013 -0.000108741 0)
(0.120219 -9.77188e-05 0)
(0.120404 -8.67044e-05 0)
(0.120566 -7.57024e-05 0)
(0.120706 -6.47173e-05 0)
(0.120825 -5.37534e-05 0)
(0.120921 -4.28149e-05 0)
(0.120996 -3.1906e-05 0)
(0.121049 -2.10305e-05 0)
(0.12108 -1.01926e-05 0)
(0.12109 6.04184e-07 0)
(0.121078 1.1356e-05 0)
(0.121044 2.20594e-05 0)
(0.12099 3.2711e-05 0)
(0.120913 4.33073e-05 0)
(0.120816 5.38453e-05 0)
(0.120698 6.43218e-05 0)
(0.120559 7.47339e-05 0)
(0.120399 8.50788e-05 0)
(0.120218 9.53537e-05 0)
(0.120018 0.000105556 0)
(0.119796 0.000115684 0)
(0.119555 0.000125734 0)
(0.119293 0.000135704 0)
(0.119012 0.000145593 0)
(0.118711 0.000155399 0)
(0.11839 0.000165118 0)
(0.11805 0.00017475 0)
(0.117691 0.000184293 0)
(0.117313 0.000193745 0)
(0.116916 0.000203105 0)
(0.1165 0.000212372 0)
(0.116066 0.000221543 0)
(0.115614 0.000230617 0)
(0.115144 0.000239595 0)
(0.114656 0.000248473 0)
(0.11415 0.000257252 0)
(0.113627 0.000265931 0)
(0.113086 0.000274507 0)
(0.112528 0.000282982 0)
(0.111954 0.000291353 0)
(0.111363 0.00029962 0)
(0.110755 0.000307783 0)
(0.110132 0.000315841 0)
(0.109492 0.000323793 0)
(0.108836 0.000331638 0)
(0.108165 0.000339377 0)
(0.107479 0.000347009 0)
(0.106777 0.000354533 0)
(0.106061 0.000361949 0)
(0.105329 0.000369257 0)
(0.104583 0.000376456 0)
(0.103823 0.000383547 0)
(0.103049 0.000390529 0)
(0.102261 0.000397401 0)
(0.101459 0.000404164 0)
(0.100644 0.000410818 0)
(0.099816 0.000417363 0)
(0.0989747 0.000423798 0)
(0.0981207 0.000430123 0)
(0.0972541 0.000436339 0)
(0.0963752 0.000442446 0)
(0.0954842 0.000448444 0)
(0.0945814 0.000454332 0)
(0.0936668 0.000460111 0)
(0.0927408 0.000465782 0)
(0.0918036 0.000471344 0)
(0.0908553 0.000476798 0)
(0.0898963 0.000482144 0)
(0.0889266 0.000487382 0)
(0.0879466 0.000492513 0)
(0.0869565 0.000497538 0)
(0.0859564 0.000502456 0)
(0.0849466 0.000507268 0)
(0.0839272 0.000511975 0)
(0.0828985 0.000516578 0)
(0.0818608 0.000521077 0)
(0.0808141 0.000525472 0)
(0.0797588 0.000529764 0)
(0.078695 0.000533955 0)
(0.0776229 0.000538045 0)
(0.0765427 0.000542034 0)
(0.0754546 0.000545924 0)
(0.0743589 0.000549715 0)
(0.0732557 0.000553408 0)
(0.0721452 0.000557006 0)
(0.0710276 0.000560507 0)
(0.0699031 0.000563914 0)
(0.0687718 0.000567227 0)
(0.0676341 0.000570448 0)
(0.0664899 0.000573577 0)
(0.0653397 0.000576617 0)
(0.0641834 0.000579568 0)
(0.0630213 0.00058243 0)
(0.0618536 0.000585207 0)
(0.0606804 0.000587898 0)
(0.0595019 0.000590505 0)
(0.0583183 0.00059303 0)
(0.0571297 0.000595474 0)
(0.0559363 0.000597837 0)
(0.0547383 0.000600123 0)
(0.0535357 0.000602331 0)
(0.0523289 0.000604463 0)
(0.0511178 0.00060652 0)
(0.0499027 0.000608505 0)
(0.0486837 0.000610418 0)
(0.047461 0.000612261 0)
(0.0462346 0.000614035 0)
(0.0450048 0.000615741 0)
(0.0437716 0.000617382 0)
(0.0425352 0.000618957 0)
(0.0412957 0.00062047 0)
(0.0400532 0.00062192 0)
(0.0388079 0.00062331 0)
(0.0375599 0.00062464 0)
(0.0363093 0.000625912 0)
(0.0350562 0.000627128 0)
(0.0338008 0.000628287 0)
(0.032543 0.000629393 0)
(0.0312831 0.000630445 0)
(0.0300212 0.000631446 0)
(0.0287573 0.000632396 0)
(0.0274916 0.000633296 0)
(0.0262241 0.000634147 0)
(0.0249549 0.000634951 0)
(0.0236842 0.000635708 0)
(0.022412 0.000636419 0)
(0.0211385 0.000637086 0)
(0.0198636 0.000637709 0)
(0.0185876 0.000638289 0)
(0.0173104 0.000638826 0)
(0.0160323 0.000639322 0)
(0.0147531 0.000639778 0)
(0.0134731 0.000640193 0)
(0.0121923 0.000640568 0)
(0.0109108 0.000640904 0)
(0.00962865 0.000641202 0)
(0.00834595 0.000641461 0)
(0.00706276 0.000641683 0)
(0.00577918 0.000641867 0)
(0.00449526 0.000642014 0)
(0.00321108 0.000642124 0)
(0.00192672 0.000642198 0)
(0.000642253 0.000642234 0)
(0.000711842 -0.00213537 0)
(0.00213548 -0.00213524 0)
(0.00355899 -0.00213497 0)
(0.00498228 -0.00213458 0)
(0.00640525 -0.00213404 0)
(0.00782783 -0.00213337 0)
(0.00924992 -0.00213257 0)
(0.0106714 -0.00213162 0)
(0.0120923 -0.00213053 0)
(0.0135123 -0.0021293 0)
(0.0149315 -0.00212793 0)
(0.0163497 -0.0021264 0)
(0.0177669 -0.00212472 0)
(0.0191829 -0.00212288 0)
(0.0205976 -0.00212088 0)
(0.0220109 -0.00211871 0)
(0.0234227 -0.00211637 0)
(0.024833 -0.00211386 0)
(0.0262414 -0.00211117 0)
(0.0276481 -0.00210829 0)
(0.0290527 -0.00210522 0)
(0.0304553 -0.00210196 0)
(0.0318556 -0.00209849 0)
(0.0332535 -0.00209481 0)
(0.0346489 -0.00209091 0)
(0.0360417 -0.00208679 0)
(0.0374316 -0.00208244 0)
(0.0388186 -0.00207785 0)
(0.0402024 -0.00207302 0)
(0.0415829 -0.00206794 0)
(0.0429599 -0.00206259 0)
(0.0443333 -0.00205698 0)
(0.0457029 -0.0020511 0)
(0.0470685 -0.00204493 0)
(0.0484298 -0.00203847 0)
(0.0497868 -0.00203171 0)
(0.0511392 -0.00202464 0)
(0.0524867 -0.00201725 0)
(0.0538292 -0.00200955 0)
(0.0551665 -0.00200151 0)
(0.0564983 -0.00199313 0)
(0.0578244 -0.0019844 0)
(0.0591446 -0.00197532 0)
(0.0604586 -0.00196587 0)
(0.0617662 -0.00195606 0)
(0.0630672 -0.00194586 0)
(0.0643612 -0.00193527 0)
(0.065648 -0.00192429 0)
(0.0669274 -0.00191291 0)
(0.0681991 -0.00190112 0)
(0.0694627 -0.00188891 0)
(0.0707181 -0.00187629 0)
(0.071965 -0.00186323 0)
(0.073203 -0.00184974 0)
(0.0744318 -0.00183581 0)
(0.0756513 -0.00182143 0)
(0.076861 -0.00180661 0)
(0.0780606 -0.00179133 0)
(0.07925 -0.00177559 0)
(0.0804286 -0.00175939 0)
(0.0815964 -0.00174272 0)
(0.0827528 -0.00172558 0)
(0.0838977 -0.00170798 0)
(0.0850307 -0.0016899 0)
(0.0861515 -0.00167134 0)
(0.0872598 -0.00165231 0)
(0.0883552 -0.0016328 0)
(0.0894374 -0.00161282 0)
(0.0905062 -0.00159236 0)
(0.0915611 -0.00157143 0)
(0.092602 -0.00155002 0)
(0.0936284 -0.00152815 0)
(0.0946401 -0.00150581 0)
(0.0956367 -0.001483 0)
(0.096618 -0.00145974 0)
(0.0975836 -0.00143602 0)
(0.0985332 -0.00141185 0)
(0.0994666 -0.00138724 0)
(0.100383 -0.00136219 0)
(0.101283 -0.00133671 0)
(0.102166 -0.00131081 0)
(0.103032 -0.00128449 0)
(0.103879 -0.00125776 0)
(0.104709 -0.00123064 0)
(0.105521 -0.00120313 0)
(0.106314 -0.00117524 0)
(0.107088 -0.00114699 0)
(0.107844 -0.00111838 0)
(0.10858 -0.00108942 0)
(0.109296 -0.00106013 0)
(0.109994 -0.00103053 0)
(0.110671 -0.00100061 0)
(0.111328 -0.000970399 0)
(0.111965 -0.000939906 0)
(0.112582 -0.000909146 0)
(0.113178 -0.000878131 0)
(0.113753 -0.000846877 0)
(0.114307 -0.000815397 0)
(0.11484 -0.000783706 0)
(0.115352 -0.000751819 0)
(0.115843 -0.000719751 0)
(0.116312 -0.000687516 0)
(0.11676 -0.000655129 0)
(0.117186 -0.000622606 0)
(0.11759 -0.000589962 0)
(0.117973 -0.000557211 0)
(0.118333 -0.000524369 0)
(0.118672 -0.00049145 0)
(0.118988 -0.000458469 0)
(0.119283 -0.000425441 0)
(0.119556 -0.000392381 0)
(0.119806 -0.000359303 0)
(0.120035 -0.000326221 0)
(0.120241 -0.00029315 0)
(0.120426 -0.000260102 0)
(0.120588 -0.000227092 0)
(0.120728 -0.000194132 0)
(0.120847 -0.000161236 0)
(0.120943 -0.000128417 0)
(0.121018 -9.56858e-05 0)
(0.121071 -6.30557e-05 0)
(0.121102 -3.0538e-05 0)
(0.121111 1.85593e-06 0)
(0.121099 3.4115e-05 0)
(0.121066 6.62287e-05 0)
(0.121011 9.81865e-05 0)
(0.120935 0.000129979 0)
(0.120837 0.000161596 0)
(0.120719 0.000193028 0)
(0.12058 0.000224267 0)
(0.12042 0.000255305 0)
(0.120239 0.000286132 0)
(0.120038 0.000316742 0)
(0.119816 0.000347127 0)
(0.119575 0.00037728 0)
(0.119313 0.000407193 0)
(0.119031 0.000436862 0)
(0.11873 0.00046628 0)
(0.118409 0.00049544 0)
(0.118069 0.000524338 0)
(0.11771 0.000552969 0)
(0.117332 0.000581327 0)
(0.116935 0.000609408 0)
(0.116519 0.000637208 0)
(0.116085 0.000664723 0)
(0.115632 0.000691948 0)
(0.115162 0.000718881 0)
(0.114673 0.000745518 0)
(0.114167 0.000771856 0)
(0.113644 0.000797892 0)
(0.113103 0.000823623 0)
(0.112545 0.000849047 0)
(0.111971 0.000874161 0)
(0.111379 0.000898964 0)
(0.110772 0.000923453 0)
(0.110148 0.000947626 0)
(0.109508 0.000971483 0)
(0.108852 0.00099502 0)
(0.108181 0.00101824 0)
(0.107494 0.00104113 0)
(0.106792 0.0010637 0)
(0.106075 0.00108595 0)
(0.105344 0.00110788 0)
(0.104598 0.00112948 0)
(0.103837 0.00115075 0)
(0.103063 0.00117169 0)
(0.102275 0.00119231 0)
(0.101473 0.0012126 0)
(0.100658 0.00123256 0)
(0.099829 0.0012522 0)
(0.0989875 0.0012715 0)
(0.0981333 0.00129048 0)
(0.0972665 0.00130913 0)
(0.0963874 0.00132745 0)
(0.0954961 0.00134544 0)
(0.094593 0.0013631 0)
(0.0936783 0.00138044 0)
(0.0927521 0.00139745 0)
(0.0918146 0.00141414 0)
(0.0908661 0.0014305 0)
(0.0899069 0.00144654 0)
(0.088937 0.00146225 0)
(0.0879568 0.00147765 0)
(0.0869664 0.00149272 0)
(0.0859661 0.00150747 0)
(0.0849561 0.00152191 0)
(0.0839365 0.00153603 0)
(0.0829077 0.00154984 0)
(0.0818697 0.00156333 0)
(0.0808228 0.00157652 0)
(0.0797673 0.00158939 0)
(0.0787033 0.00160197 0)
(0.077631 0.00161423 0)
(0.0765506 0.0016262 0)
(0.0754623 0.00163787 0)
(0.0743664 0.00164924 0)
(0.073263 0.00166032 0)
(0.0721523 0.00167111 0)
(0.0710345 0.00168162 0)
(0.0699098 0.00169183 0)
(0.0687784 0.00170177 0)
(0.0676404 0.00171143 0)
(0.0664961 0.00172082 0)
(0.0653457 0.00172994 0)
(0.0641892 0.00173879 0)
(0.063027 0.00174738 0)
(0.0618591 0.00175571 0)
(0.0606857 0.00176378 0)
(0.059507 0.0017716 0)
(0.0583233 0.00177917 0)
(0.0571345 0.0017865 0)
(0.055941 0.00179359 0)
(0.0547428 0.00180045 0)
(0.0535401 0.00180707 0)
(0.0523331 0.00181346 0)
(0.0511219 0.00181963 0)
(0.0499066 0.00182559 0)
(0.0486875 0.00183133 0)
(0.0474646 0.00183685 0)
(0.0462381 0.00184217 0)
(0.0450081 0.00184729 0)
(0.0437748 0.00185221 0)
(0.0425383 0.00185694 0)
(0.0412987 0.00186147 0)
(0.0400561 0.00186582 0)
(0.0388107 0.00186999 0)
(0.0375625 0.00187398 0)
(0.0363118 0.00187779 0)
(0.0350586 0.00188144 0)
(0.033803 0.00188492 0)
(0.0325452 0.00188823 0)
(0.0312852 0.00189139 0)
(0.0300231 0.00189439 0)
(0.0287592 0.00189724 0)
(0.0274933 0.00189994 0)
(0.0262257 0.00190249 0)
(0.0249565 0.0019049 0)
(0.0236857 0.00190717 0)
(0.0224134 0.0019093 0)
(0.0211398 0.0019113 0)
(0.0198649 0.00191317 0)
(0.0185887 0.00191491 0)
(0.0173115 0.00191652 0)
(0.0160332 0.00191801 0)
(0.014754 0.00191937 0)
(0.0134739 0.00192062 0)
(0.012193 0.00192174 0)
(0.0109114 0.00192275 0)
(0.00962921 0.00192364 0)
(0.00834643 0.00192442 0)
(0.00706317 0.00192509 0)
(0.00577951 0.00192564 0)
(0.00449551 0.00192608 0)
(0.00321126 0.00192641 0)
(0.00192683 0.00192663 0)
(0.000642289 0.00192674 0)
(0.00071193 -0.0035591 0)
(0.00213575 -0.00355888 0)
(0.00355943 -0.00355844 0)
(0.0049829 -0.00355777 0)
(0.00640605 -0.00355689 0)
(0.00782881 -0.00355577 0)
(0.00925109 -0.00355443 0)
(0.0106728 -0.00355286 0)
(0.0120938 -0.00355105 0)
(0.013514 -0.003549 0)
(0.0149334 -0.00354671 0)
(0.0163519 -0.00354417 0)
(0.0177692 -0.00354137 0)
(0.0191854 -0.00353831 0)
(0.0206004 -0.00353498 0)
(0.0220139 -0.00353137 0)
(0.023426 -0.00352749 0)
(0.0248364 -0.0035233 0)
(0.0262452 -0.00351882 0)
(0.027652 -0.00351403 0)
(0.029057 -0.00350893 0)
(0.0304598 -0.00350349 0)
(0.0318604 -0.00349771 0)
(0.0332586 -0.00349158 0)
(0.0346543 -0.0034851 0)
(0.0360473 -0.00347824 0)
(0.0374376 -0.003471 0)
(0.0388248 -0.00346336 0)
(0.040209 -0.00345532 0)
(0.0415898 -0.00344685 0)
(0.0429672 -0.00343795 0)
(0.044341 -0.00342861 0)
(0.045711 -0.00341881 0)
(0.0470769 -0.00340853 0)
(0.0484387 -0.00339777 0)
(0.049796 -0.00338652 0)
(0.0511488 -0.00337475 0)
(0.0524968 -0.00336245 0)
(0.0538397 -0.00334961 0)
(0.0551774 -0.00333623 0)
(0.0565097 -0.00332227 0)
(0.0578363 -0.00330773 0)
(0.059157 -0.00329261 0)
(0.0604715 -0.00327687 0)
(0.0617796 -0.00326051 0)
(0.063081 -0.00324352 0)
(0.0643756 -0.00322589 0)
(0.0656629 -0.0032076 0)
(0.0669429 -0.00318864 0)
(0.0682151 -0.00316899 0)
(0.0694793 -0.00314866 0)
(0.0707353 -0.00312762 0)
(0.0719827 -0.00310586 0)
(0.0732213 -0.00308339 0)
(0.0744507 -0.00306018 0)
(0.0756707 -0.00303622 0)
(0.076881 -0.00301152 0)
(0.0780813 -0.00298606 0)
(0.0792713 -0.00295983 0)
(0.0804506 -0.00293283 0)
(0.0816189 -0.00290505 0)
(0.082776 -0.0028765 0)
(0.0839215 -0.00284715 0)
(0.0850552 -0.00281702 0)
(0.0861766 -0.0027861 0)
(0.0872855 -0.00275438 0)
(0.0883815 -0.00272187 0)
(0.0894644 -0.00268856 0)
(0.0905338 -0.00265446 0)
(0.0915894 -0.00261957 0)
(0.0926308 -0.0025839 0)
(0.0936579 -0.00254744 0)
(0.0946702 -0.0025102 0)
(0.0956674 -0.00247218 0)
(0.0966493 -0.00243341 0)
(0.0976155 -0.00239387 0)
(0.0985658 -0.00235358 0)
(0.0994997 -0.00231255 0)
(0.100417 -0.0022708 0)
(0.101318 -0.00222832 0)
(0.102201 -0.00218514 0)
(0.103067 -0.00214127 0)
(0.103915 -0.00209671 0)
(0.104746 -0.0020515 0)
(0.105558 -0.00200564 0)
(0.106351 -0.00195915 0)
(0.107126 -0.00191204 0)
(0.107882 -0.00186435 0)
(0.108619 -0.00181607 0)
(0.109336 -0.00176725 0)
(0.110033 -0.00171789 0)
(0.110711 -0.00166801 0)
(0.111369 -0.00161764 0)
(0.112006 -0.00156681 0)
(0.112623 -0.00151553 0)
(0.113219 -0.00146382 0)
(0.113795 -0.00141171 0)
(0.114349 -0.00135923 0)
(0.114883 -0.0013064 0)
(0.115395 -0.00125323 0)
(0.115886 -0.00119977 0)
(0.116355 -0.00114603 0)
(0.116803 -0.00109203 0)
(0.117229 -0.00103781 0)
(0.117634 -0.000983388 0)
(0.118016 -0.000928787 0)
(0.118377 -0.000874033 0)
(0.118716 -0.000819152 0)
(0.119033 -0.000764168 0)
(0.119327 -0.000709105 0)
(0.1196 -0.000653989 0)
(0.11985 -0.000598844 0)
(0.120079 -0.000543692 0)
(0.120285 -0.000488557 0)
(0.12047 -0.000433462 0)
(0.120632 -0.00037843 0)
(0.120772 -0.000323483 0)
(0.120891 -0.000268643 0)
(0.120987 -0.00021393 0)
(0.121062 -0.000159365 0)
(0.121114 -0.000104968 0)
(0.121145 -5.07595e-05 0)
(0.121154 3.24258e-06 0)
(0.121142 5.70196e-05 0)
(0.121108 0.000110554 0)
(0.121053 0.000163828 0)
(0.120977 0.000216825 0)
(0.120879 0.000269531 0)
(0.120761 0.000321928 0)
(0.120621 0.000374002 0)
(0.120461 0.00042574 0)
(0.12028 0.000477128 0)
(0.120078 0.000528153 0)
(0.119857 0.000578802 0)
(0.119615 0.000629064 0)
(0.119353 0.000678928 0)
(0.119071 0.000728382 0)
(0.118769 0.000777418 0)
(0.118448 0.000826025 0)
(0.118108 0.000874194 0)
(0.117748 0.000921917 0)
(0.117369 0.000969185 0)
(0.116972 0.00101599 0)
(0.116556 0.00106233 0)
(0.116121 0.00110819 0)
(0.115668 0.00115357 0)
(0.115197 0.00119846 0)
(0.114709 0.00124286 0)
(0.114202 0.00128676 0)
(0.113678 0.00133016 0)
(0.113137 0.00137305 0)
(0.112579 0.00141542 0)
(0.112004 0.00145728 0)
(0.111412 0.00149862 0)
(0.110804 0.00153944 0)
(0.11018 0.00157973 0)
(0.109539 0.00161949 0)
(0.108883 0.00165872 0)
(0.108211 0.00169742 0)
(0.107524 0.00173558 0)
(0.106822 0.0017732 0)
(0.106105 0.00181028 0)
(0.105373 0.00184682 0)
(0.104626 0.00188282 0)
(0.103866 0.00191828 0)
(0.103091 0.00195319 0)
(0.102302 0.00198755 0)
(0.1015 0.00202137 0)
(0.100684 0.00205464 0)
(0.099855 0.00208736 0)
(0.099013 0.00211953 0)
(0.0981583 0.00215116 0)
(0.0972911 0.00218224 0)
(0.0964116 0.00221278 0)
(0.0955199 0.00224276 0)
(0.0946164 0.0022722 0)
(0.0937012 0.0023011 0)
(0.0927745 0.00232945 0)
(0.0918366 0.00235726 0)
(0.0908877 0.00238453 0)
(0.089928 0.00241125 0)
(0.0889578 0.00243744 0)
(0.0879771 0.0024631 0)
(0.0869863 0.00248822 0)
(0.0859856 0.00251281 0)
(0.0849751 0.00253687 0)
(0.0839551 0.0025604 0)
(0.0829259 0.00258341 0)
(0.0818875 0.0026059 0)
(0.0808402 0.00262787 0)
(0.0797843 0.00264933 0)
(0.0787198 0.00267028 0)
(0.0776471 0.00269072 0)
(0.0765663 0.00271067 0)
(0.0754777 0.00273011 0)
(0.0743814 0.00274906 0)
(0.0732776 0.00276753 0)
(0.0721665 0.00278551 0)
(0.0710483 0.00280301 0)
(0.0699232 0.00282004 0)
(0.0687914 0.0028366 0)
(0.0676531 0.0028527 0)
(0.0665085 0.00286834 0)
(0.0653576 0.00288353 0)
(0.0642008 0.00289828 0)
(0.0630382 0.00291258 0)
(0.06187 0.00292646 0)
(0.0606963 0.00293991 0)
(0.0595173 0.00295294 0)
(0.0583332 0.00296556 0)
(0.0571441 0.00297777 0)
(0.0559503 0.00298958 0)
(0.0547518 0.003001 0)
(0.0535488 0.00301203 0)
(0.0523414 0.00302269 0)
(0.0511299 0.00303297 0)
(0.0499144 0.00304288 0)
(0.048695 0.00305244 0)
(0.0474718 0.00306165 0)
(0.0462451 0.00307051 0)
(0.0450148 0.00307904 0)
(0.0437812 0.00308723 0)
(0.0425444 0.0030951 0)
(0.0413046 0.00310266 0)
(0.0400618 0.0031099 0)
(0.0388161 0.00311685 0)
(0.0375677 0.00312349 0)
(0.0363168 0.00312985 0)
(0.0350634 0.00313592 0)
(0.0338076 0.00314171 0)
(0.0325495 0.00314723 0)
(0.0312893 0.00315249 0)
(0.030027 0.00315749 0)
(0.0287628 0.00316223 0)
(0.0274968 0.00316672 0)
(0.026229 0.00317098 0)
(0.0249596 0.00317499 0)
(0.0236886 0.00317877 0)
(0.0224162 0.00318232 0)
(0.0211424 0.00318565 0)
(0.0198673 0.00318876 0)
(0.018591 0.00319166 0)
(0.0173135 0.00319434 0)
(0.0160351 0.00319682 0)
(0.0147557 0.00319909 0)
(0.0134755 0.00320116 0)
(0.0121944 0.00320304 0)
(0.0109127 0.00320472 0)
(0.00963032 0.0032062 0)
(0.00834739 0.0032075 0)
(0.00706398 0.0032086 0)
(0.00578017 0.00320952 0)
(0.00449603 0.00321026 0)
(0.00321163 0.00321081 0)
(0.00192705 0.00321117 0)
(0.000642362 0.00321135 0)
(0.000712062 -0.00498305 0)
(0.00213614 -0.00498274 0)
(0.00356009 -0.00498212 0)
(0.00498383 -0.0049812 0)
(0.00640725 -0.00497996 0)
(0.00783029 -0.0049784 0)
(0.00925283 -0.00497653 0)
(0.0106748 -0.00497433 0)
(0.0120961 -0.00497181 0)
(0.0135167 -0.00496895 0)
(0.0149363 -0.00496574 0)
(0.0163551 -0.00496219 0)
(0.0177727 -0.00495828 0)
(0.0191893 -0.00495401 0)
(0.0206045 -0.00494936 0)
(0.0220184 -0.00494432 0)
(0.0234308 -0.00493889 0)
(0.0248416 -0.00493305 0)
(0.0262507 -0.00492679 0)
(0.027658 -0.00492009 0)
(0.0290633 -0.00491296 0)
(0.0304665 -0.00490536 0)
(0.0318675 -0.00489729 0)
(0.0332661 -0.00488872 0)
(0.0346623 -0.00487966 0)
(0.0360558 -0.00487007 0)
(0.0374465 -0.00485995 0)
(0.0388342 -0.00484928 0)
(0.0402189 -0.00483803 0)
(0.0416003 -0.0048262 0)
(0.0429782 -0.00481376 0)
(0.0443525 -0.0048007 0)
(0.045723 -0.00478699 0)
(0.0470895 -0.00477263 0)
(0.0484519 -0.00475758 0)
(0.0498098 -0.00474184 0)
(0.0511632 -0.00472538 0)
(0.0525118 -0.00470819 0)
(0.0538555 -0.00469024 0)
(0.0551939 -0.00467151 0)
(0.0565268 -0.00465199 0)
(0.0578541 -0.00463166 0)
(0.0591755 -0.0046105 0)
(0.0604907 -0.00458849 0)
(0.0617996 -0.0045656 0)
(0.0631018 -0.00454184 0)
(0.0643971 -0.00451717 0)
(0.0656853 -0.00449158 0)
(0.066966 -0.00446505 0)
(0.0682391 -0.00443756 0)
(0.0695041 -0.00440911 0)
(0.0707609 -0.00437967 0)
(0.0720092 -0.00434922 0)
(0.0732487 -0.00431777 0)
(0.074479 -0.00428529 0)
(0.0756999 -0.00425176 0)
(0.0769111 -0.00421719 0)
(0.0781123 -0.00418155 0)
(0.0793032 -0.00414484 0)
(0.0804834 -0.00410705 0)
(0.0816527 -0.00406817 0)
(0.0828108 -0.0040282 0)
(0.0839572 -0.00398712 0)
(0.0850918 -0.00394494 0)
(0.0862142 -0.00390164 0)
(0.087324 -0.00385724 0)
(0.088421 -0.00381172 0)
(0.0895048 -0.00376509 0)
(0.0905752 -0.00371735 0)
(0.0916317 -0.00366851 0)
(0.0926742 -0.00361855 0)
(0.0937021 -0.0035675 0)
(0.0947154 -0.00351536 0)
(0.0957136 -0.00346213 0)
(0.0966963 -0.00340783 0)
(0.0976635 -0.00335247 0)
(0.0986146 -0.00329605 0)
(0.0995494 -0.0032386 0)
(0.100468 -0.00318012 0)
(0.101369 -0.00312064 0)
(0.102253 -0.00306016 0)
(0.10312 -0.00299872 0)
(0.103969 -0.00293633 0)
(0.1048 -0.002873 0)
(0.105613 -0.00280878 0)
(0.106407 -0.00274366 0)
(0.107183 -0.00267769 0)
(0.10794 -0.00261089 0)
(0.108677 -0.00254328 0)
(0.109395 -0.00247489 0)
(0.110093 -0.00240576 0)
(0.110771 -0.0023359 0)
(0.111429 -0.00226536 0)
(0.112067 -0.00219416 0)
(0.112685 -0.00212233 0)
(0.113281 -0.00204991 0)
(0.113857 -0.00197692 0)
(0.114412 -0.00190341 0)
(0.114946 -0.00182941 0)
(0.115459 -0.00175495 0)
(0.11595 -0.00168007 0)
(0.11642 -0.00160479 0)
(0.116868 -0.00152917 0)
(0.117295 -0.00145322 0)
(0.117699 -0.00137699 0)
(0.118082 -0.00130051 0)
(0.118443 -0.00122382 0)
(0.118782 -0.00114696 0)
(0.119099 -0.00106994 0)
(0.119393 -0.000992823 0)
(0.119666 -0.000915627 0)
(0.119917 -0.00083839 0)
(0.120145 -0.000761144 0)
(0.120352 -0.000683923 0)
(0.120536 -0.000606759 0)
(0.120698 -0.000529684 0)
(0.120838 -0.000452728 0)
(0.120956 -0.000375921 0)
(0.121053 -0.000299294 0)
(0.121127 -0.000222875 0)
(0.121179 -0.000146693 0)
(0.12121 -7.0774e-05 0)
(0.121219 4.85466e-06 0)
(0.121207 8.01673e-05 0)
(0.121173 0.000155139 0)
(0.121117 0.000229746 0)
(0.12104 0.000303965 0)
(0.120942 0.000377774 0)
(0.120823 0.00045115 0)
(0.120683 0.000524075 0)
(0.120523 0.000596527 0)
(0.120341 0.000668488 0)
(0.12014 0.00073994 0)
(0.119917 0.000810865 0)
(0.119675 0.000881247 0)
(0.119412 0.000951071 0)
(0.11913 0.00102032 0)
(0.118828 0.00108898 0)
(0.118506 0.00115705 0)
(0.118165 0.0012245 0)
(0.117805 0.00129132 0)
(0.117426 0.00135751 0)
(0.117028 0.00142305 0)
(0.116611 0.00148793 0)
(0.116176 0.00155214 0)
(0.115722 0.00161568 0)
(0.115251 0.00167854 0)
(0.114762 0.0017407 0)
(0.114255 0.00180217 0)
(0.11373 0.00186293 0)
(0.113188 0.00192298 0)
(0.112629 0.00198231 0)
(0.112054 0.00204092 0)
(0.111461 0.0020988 0)
(0.110853 0.00215595 0)
(0.110228 0.00221236 0)
(0.109587 0.00226803 0)
(0.10893 0.00232296 0)
(0.108257 0.00237714 0)
(0.10757 0.00243056 0)
(0.106867 0.00248324 0)
(0.106149 0.00253515 0)
(0.105416 0.00258631 0)
(0.104669 0.00263671 0)
(0.103908 0.00268635 0)
(0.103132 0.00273522 0)
(0.102343 0.00278333 0)
(0.10154 0.00283068 0)
(0.100723 0.00287726 0)
(0.0998939 0.00292307 0)
(0.0990513 0.00296811 0)
(0.098196 0.00301239 0)
(0.0973281 0.0030559 0)
(0.0964479 0.00309865 0)
(0.0955556 0.00314063 0)
(0.0946514 0.00318185 0)
(0.0937355 0.0032223 0)
(0.0928082 0.00326199 0)
(0.0918697 0.00330092 0)
(0.0909201 0.00333909 0)
(0.0899598 0.00337651 0)
(0.0889889 0.00341317 0)
(0.0880076 0.00344909 0)
(0.0870161 0.00348425 0)
(0.0860148 0.00351867 0)
(0.0850037 0.00355235 0)
(0.0839831 0.00358529 0)
(0.0829532 0.0036175 0)
(0.0819141 0.00364898 0)
(0.0808663 0.00367974 0)
(0.0798097 0.00370978 0)
(0.0787447 0.0037391 0)
(0.0776713 0.00376772 0)
(0.07659 0.00379563 0)
(0.0755007 0.00382284 0)
(0.0744038 0.00384937 0)
(0.0732994 0.00387521 0)
(0.0721878 0.00390038 0)
(0.071069 0.00392487 0)
(0.0699434 0.00394871 0)
(0.068811 0.00397188 0)
(0.0676721 0.00399441 0)
(0.0665269 0.0040163 0)
(0.0653756 0.00403756 0)
(0.0642182 0.0040582 0)
(0.0630551 0.00407822 0)
(0.0618864 0.00409764 0)
(0.0607122 0.00411646 0)
(0.0595327 0.0041347 0)
(0.0583481 0.00415235 0)
(0.0571585 0.00416944 0)
(0.0559642 0.00418596 0)
(0.0547652 0.00420194 0)
(0.0535618 0.00421738 0)
(0.052354 0.00423228 0)
(0.051142 0.00424667 0)
(0.0499261 0.00426054 0)
(0.0487062 0.00427391 0)
(0.0474827 0.00428679 0)
(0.0462555 0.00429919 0)
(0.0450248 0.00431112 0)
(0.0437909 0.00432258 0)
(0.0425537 0.00433359 0)
(0.0413134 0.00434416 0)
(0.0400703 0.00435429 0)
(0.0388242 0.004364 0)
(0.0375755 0.00437329 0)
(0.0363242 0.00438218 0)
(0.0350705 0.00439067 0)
(0.0338143 0.00439877 0)
(0.032556 0.0044065 0)
(0.0312954 0.00441385 0)
(0.0300329 0.00442084 0)
(0.0287684 0.00442747 0)
(0.027502 0.00443375 0)
(0.026234 0.0044397 0)
(0.0249643 0.00444531 0)
(0.023693 0.0044506 0)
(0.0224203 0.00445557 0)
(0.0211462 0.00446022 0)
(0.0198709 0.00446457 0)
(0.0185943 0.00446862 0)
(0.0173166 0.00447237 0)
(0.016038 0.00447583 0)
(0.0147583 0.00447901 0)
(0.0134778 0.00448191 0)
(0.0121966 0.00448453 0)
(0.0109146 0.00448687 0)
(0.00963199 0.00448895 0)
(0.00834883 0.00449076 0)
(0.0070652 0.00449231 0)
(0.00578116 0.00449359 0)
(0.0044968 0.00449462 0)
(0.00321218 0.00449539 0)
(0.00192738 0.0044959 0)
(0.000642472 0.00449615 0)
(0.000712238 -0.00640731 0)
(0.00213667 -0.00640691 0)
(0.00356098 -0.00640612 0)
(0.00498506 -0.00640493 0)
(0.00640885 -0.00640335 0)
(0.00783224 -0.00640135 0)
(0.00925516 -0.00639895 0)
(0.0106775 -0.00639614 0)
(0.0120992 -0.0063929 0)
(0.0135201 -0.00638923 0)
(0.0149402 -0.00638513 0)
(0.0163593 -0.00638057 0)
(0.0177774 -0.00637556 0)
(0.0191944 -0.00637008 0)
(0.0206101 -0.00636412 0)
(0.0220244 -0.00635766 0)
(0.0234372 -0.0063507 0)
(0.0248485 -0.00634321 0)
(0.0262581 -0.00633518 0)
(0.0276659 -0.0063266 0)
(0.0290717 -0.00631745 0)
(0.0304755 -0.0063077 0)
(0.031877 -0.00629735 0)
(0.0332762 -0.00628637 0)
(0.0346729 -0.00627474 0)
(0.036067 -0.00626244 0)
(0.0374584 -0.00624946 0)
(0.0388468 -0.00623576 0)
(0.0402321 -0.00622133 0)
(0.0416141 -0.00620615 0)
(0.0429927 -0.00619019 0)
(0.0443678 -0.00617342 0)
(0.045739 -0.00615584 0)
(0.0471063 -0.0061374 0)
(0.0484695 -0.00611809 0)
(0.0498282 -0.00609788 0)
(0.0511825 -0.00607675 0)
(0.0525319 -0.00605468 0)
(0.0538764 -0.00603163 0)
(0.0552157 -0.00600759 0)
(0.0565496 -0.00598252 0)
(0.0578778 -0.00595642 0)
(0.0592002 -0.00592924 0)
(0.0605164 -0.00590097 0)
(0.0618263 -0.00587158 0)
(0.0631295 -0.00584106 0)
(0.0644259 -0.00580937 0)
(0.0657151 -0.00577649 0)
(0.0669969 -0.00574241 0)
(0.068271 -0.0057071 0)
(0.0695372 -0.00567054 0)
(0.0707952 -0.00563271 0)
(0.0720446 -0.0055936 0)
(0.0732852 -0.00555318 0)
(0.0745167 -0.00551144 0)
(0.0757389 -0.00546835 0)
(0.0769513 -0.00542392 0)
(0.0781537 -0.00537812 0)
(0.0793458 -0.00533093 0)
(0.0805273 -0.00528236 0)
(0.0816978 -0.00523238 0)
(0.0828571 -0.005181 0)
(0.0840048 -0.00512819 0)
(0.0851407 -0.00507396 0)
(0.0862643 -0.0050183 0)
(0.0873754 -0.00496121 0)
(0.0884737 -0.00490269 0)
(0.0895588 -0.00484274 0)
(0.0906304 -0.00478135 0)
(0.0916882 -0.00471854 0)
(0.0927319 -0.00465431 0)
(0.0937611 -0.00458866 0)
(0.0947756 -0.0045216 0)
(0.095775 -0.00445315 0)
(0.0967591 -0.00438332 0)
(0.0977274 -0.00431211 0)
(0.0986797 -0.00423956 0)
(0.0996157 -0.00416566 0)
(0.100535 -0.00409045 0)
(0.101438 -0.00401394 0)
(0.102323 -0.00393616 0)
(0.103191 -0.00385713 0)
(0.104041 -0.00377687 0)
(0.104873 -0.00369542 0)
(0.105687 -0.0036128 0)
(0.106482 -0.00352904 0)
(0.107259 -0.00344417 0)
(0.108016 -0.00335824 0)
(0.108755 -0.00327127 0)
(0.109473 -0.00318329 0)
(0.110172 -0.00309435 0)
(0.110851 -0.00300449 0)
(0.11151 -0.00291373 0)
(0.112149 -0.00282213 0)
(0.112767 -0.00272972 0)
(0.113365 -0.00263655 0)
(0.113941 -0.00254266 0)
(0.114497 -0.00244809 0)
(0.115031 -0.00235289 0)
(0.115544 -0.00225709 0)
(0.116036 -0.00216075 0)
(0.116506 -0.00206391 0)
(0.116955 -0.00196662 0)
(0.117382 -0.00186891 0)
(0.117786 -0.00177084 0)
(0.11817 -0.00167246 0)
(0.118531 -0.00157379 0)
(0.11887 -0.0014749 0)
(0.119187 -0.00137583 0)
(0.119482 -0.00127662 0)
(0.119754 -0.00117731 0)
(0.120005 -0.00107794 0)
(0.120234 -0.000978572 0)
(0.12044 -0.000879233 0)
(0.120624 -0.000779968 0)
(0.120786 -0.000680817 0)
(0.120926 -0.000581822 0)
(0.121044 -0.00048302 0)
(0.12114 -0.00038445 0)
(0.121214 -0.000286149 0)
(0.121266 -0.000188153 0)
(0.121297 -9.04978e-05 0)
(0.121305 6.78304e-06 0)
(0.121293 0.000103656 0)
(0.121258 0.00020009 0)