/*--------------------------------*- C++ -*----------------------------------*\
| =========                 |                                                 |
| \\      /  F ield         | OpenFOAM: The Open Source CFD Toolbox           |
|  \\    /   O peration     | Version:  v2012                                 |
|   \\  /    A nd           | Website:  www.openfoam.com                      |
|    \\/     M anipulation  |                                                 |
\*---------------------------------------------------------------------------*/
FoamFile
{
    version     2.0;
    format      ascii;
    class       volScalarField;
    location    "2.5";
    object      W;
}
// * * * * * * * * * * * * * * * * * * * * * * * * * * * * * * * * * * * * * //

dimensions      [0 0 -1 0 0 0 0];


internalField   nonuniform List<scalar> 
65536
(
2.17025e-20
2.38752e-20
2.8648e-20
3.63138e-20
4.73778e-20
6.26051e-20
8.30798e-20
1.10277e-19
1.46154e-19
1.93266e-19
2.54914e-19
3.35338e-19
4.3995e-19
5.7564e-19
7.51144e-19
9.77506e-19
1.26864e-18
1.64204e-18
2.11959e-18
2.72861e-18
3.50312e-18
4.48531e-18
5.72732e-18
7.29344e-18
9.26266e-18
1.17317e-17
1.48186e-17
1.8667e-17
2.34511e-17
2.93814e-17
3.67114e-17
4.57455e-17
5.6848e-17
7.04532e-17
8.70772e-17
1.07331e-16
1.31936e-16
1.6174e-16
1.97737e-16
2.41087e-16
2.93138e-16
3.55455e-16
4.29844e-16
5.1838e-16
6.23443e-16
7.47747e-16
8.94381e-16
1.06684e-15
1.26906e-15
1.50546e-15
1.78099e-15
2.10116e-15
2.47204e-15
2.90038e-15
3.39354e-15
3.95957e-15
4.60722e-15
5.34593e-15
6.18587e-15
7.13787e-15
8.21343e-15
9.42469e-15
1.07844e-14
1.23056e-14
1.4002e-14
1.58875e-14
1.79762e-14
2.02819e-14
2.28187e-14
2.55999e-14
2.86385e-14
3.19464e-14
3.55346e-14
3.94125e-14
4.3588e-14
4.8067e-14
5.28531e-14
5.79473e-14
6.33478e-14
6.90496e-14
7.50444e-14
8.13202e-14
8.78613e-14
9.46477e-14
1.01656e-13
1.08858e-13
1.16221e-13
1.23711e-13
1.31286e-13
1.38903e-13
1.46517e-13
1.54075e-13
1.61528e-13
1.6882e-13
1.75897e-13
1.82701e-13
1.89176e-13
1.95268e-13
2.00922e-13
2.06086e-13
2.10712e-13
2.14755e-13
2.18174e-13
2.20935e-13
2.23007e-13
2.24368e-13
2.25002e-13
2.24899e-13
2.24058e-13
2.22485e-13
2.20194e-13
2.17204e-13
2.13546e-13
2.09253e-13
2.04367e-13
1.98937e-13
1.93014e-13
1.86657e-13
1.79927e-13
1.72889e-13
1.6561e-13
1.58159e-13
1.50605e-13
1.43018e-13
1.35466e-13
1.28015e-13
1.20732e-13
1.13679e-13
1.06914e-13
1.00494e-13
9.44695e-14
8.88885e-14
8.37938e-14
7.9224e-14
7.52126e-14
7.17885e-14
6.89756e-14
6.67932e-14
6.52554e-14
6.43717e-14
6.41464e-14
6.4579e-14
6.5664e-14
6.73909e-14
6.9744e-14
7.27024e-14
7.62401e-14
8.03257e-14
8.49225e-14
8.99884e-14
9.54762e-14
1.01334e-13
1.07503e-13
1.13922e-13
1.20526e-13
1.27243e-13
1.34001e-13
1.40723e-13
1.47334e-13
1.53754e-13
1.59906e-13
1.65713e-13
1.71103e-13
1.76004e-13
1.80352e-13
1.84087e-13
1.87156e-13
1.89515e-13
1.91128e-13
1.91968e-13
1.9202e-13
1.91276e-13
1.89741e-13
1.87429e-13
1.84366e-13
1.80584e-13
1.76127e-13
1.71045e-13
1.65396e-13
1.59244e-13
1.52657e-13
1.45706e-13
1.38464e-13
1.31007e-13
1.23406e-13
1.15733e-13
1.08057e-13
1.00442e-13
9.2948e-14
8.56288e-14
7.85325e-14
7.17006e-14
6.5168e-14
5.8963e-14
5.31071e-14
4.76154e-14
4.24973e-14
3.77561e-14
3.33904e-14
2.93941e-14
2.57572e-14
2.24663e-14
1.95055e-14
1.68566e-14
1.44999e-14
1.24148e-14
1.05801e-14
8.97462e-15
7.57722e-15
6.36753e-15
5.32592e-15
4.43384e-15
3.67386e-15
3.02984e-15
2.48697e-15
2.03175e-15
1.65203e-15
1.33694e-15
1.07684e-15
8.63233e-16
6.88726e-16
5.46893e-16
4.32209e-16
3.39954e-16
2.66121e-16
2.07333e-16
1.60764e-16
1.24062e-16
9.52827e-17
7.28309e-17
5.54042e-17
4.19463e-17
3.16059e-17
2.37008e-17
1.76881e-17
1.31377e-17
9.71128e-18
7.14419e-18
5.23055e-18
3.81119e-18
2.7637e-18
1.99451e-18
1.43252e-18
1.02395e-18
7.28409e-19
5.15688e-19
3.63343e-19
2.54785e-19
1.77824e-19
1.23561e-19
8.55474e-20
5.91586e-20
4.11309e-20
2.92183e-20
2.19408e-20
1.84029e-20
2.85956e-20
3.14575e-20
3.77449e-20
4.78435e-20
6.24184e-20
8.24769e-20
1.09446e-19
1.45269e-19
1.92521e-19
2.54566e-19
3.35751e-19
4.41651e-19
5.79392e-19
7.58037e-19
9.89079e-19
1.28704e-18
1.67023e-18
2.16164e-18
2.79004e-18
3.59135e-18
4.61027e-18
5.90221e-18
7.53569e-18
9.59515e-18
1.21843e-17
1.543e-17
1.94873e-17
2.45445e-17
3.08302e-17
3.86202e-17
4.8247e-17
6.01093e-17
7.46842e-17
9.25404e-17
1.14353e-16
1.40922e-16
1.73191e-16
2.12267e-16
2.59448e-16
3.16251e-16
3.84434e-16
4.66039e-16
5.63419e-16
6.79279e-16
8.16718e-16
9.79268e-16
1.17094e-15
1.39628e-15
1.66041e-15
1.96905e-15
2.32861e-15
2.74623e-15
3.2298e-15
3.78798e-15
4.43033e-15
5.16721e-15
6.00989e-15
6.97055e-15
8.06221e-15
9.2988e-15
1.06951e-14
1.22665e-14
1.40294e-14
1.60004e-14
1.8197e-14
2.06367e-14
2.33372e-14
2.63164e-14
2.95915e-14
3.31794e-14
3.70962e-14
4.13566e-14
4.59741e-14
5.09601e-14
5.63239e-14
6.20721e-14
6.82086e-14
7.47337e-14
8.16441e-14
8.89323e-14
9.65866e-14
1.04591e-13
1.12923e-13
1.21558e-13
1.30463e-13
1.39603e-13
1.48934e-13
1.58412e-13
1.67983e-13
1.77592e-13
1.87178e-13
1.96679e-13
2.06028e-13
2.15155e-13
2.23991e-13
2.32464e-13
2.40504e-13
2.48041e-13
2.55009e-13
2.61342e-13
2.6698e-13
2.7187e-13
2.7596e-13
2.7921e-13
2.81583e-13
2.83054e-13
2.83605e-13
2.83226e-13
2.81918e-13
2.79691e-13
2.76564e-13
2.72567e-13
2.67737e-13
2.62121e-13
2.55772e-13
2.48753e-13
2.41131e-13
2.3298e-13
2.2438e-13
2.1541e-13
2.06156e-13
1.96705e-13
1.87143e-13
1.77556e-13
1.68029e-13
1.58646e-13
1.49487e-13
1.40628e-13
1.32141e-13
1.24095e-13
1.16551e-13
1.09567e-13
1.03194e-13
9.74779e-14
9.24582e-14
8.81686e-14
8.46366e-14
8.18837e-14
7.99254e-14
7.87712e-14
7.84245e-14
7.88826e-14
8.01369e-14
8.21726e-14
8.49687e-14
8.84982e-14
9.27277e-14
9.76174e-14
1.03121e-13
1.09187e-13
1.15756e-13
1.22764e-13
1.30141e-13
1.37811e-13
1.45693e-13
1.53702e-13
1.6175e-13
1.69746e-13
1.77597e-13
1.85209e-13
1.92489e-13
1.99347e-13
2.05695e-13
2.1145e-13
2.16534e-13
2.20878e-13
2.2442e-13
2.27108e-13
2.28902e-13
2.2977e-13
2.29696e-13
2.28673e-13
2.26707e-13
2.23818e-13
2.20037e-13
2.15405e-13
2.09975e-13
2.03808e-13
1.96974e-13
1.8955e-13
1.81617e-13
1.73261e-13
1.6457e-13
1.55631e-13
1.46533e-13
1.37359e-13
1.28191e-13
1.19104e-13
1.1017e-13
1.01451e-13
9.30051e-14
8.48796e-14
7.71155e-14
6.97457e-14
6.2795e-14
5.62806e-14
5.02128e-14
4.45951e-14
3.9425e-14
3.46948e-14
3.0392e-14
2.65005e-14
2.30008e-14
1.98712e-14
1.7088e-14
1.46266e-14
1.24616e-14
1.05677e-14
8.91993e-15
7.49397e-15
6.26656e-15
5.21567e-15
4.32069e-15
3.56249e-15
2.92355e-15
2.38792e-15
1.94124e-15
1.57069e-15
1.26487e-15
1.01379e-15
8.08702e-16
6.42055e-16
5.07334e-16
3.98982e-16
3.12283e-16
2.43263e-16
1.88598e-16
1.45522e-16
1.11751e-16
8.54087e-17
6.49651e-17
4.91796e-17
3.70522e-17
2.77823e-17
2.07322e-17
1.53973e-17
1.13807e-17
8.37164e-18
6.12878e-18
4.46537e-18
3.23787e-18
2.33658e-18
1.67811e-18
1.19944e-18
8.53206e-19
6.04014e-19
4.2556e-19
2.98403e-19
2.08261e-19
1.44706e-19
1.00185e-19
6.92791e-20
4.81663e-20
3.42152e-20
2.56926e-20
2.15499e-20
4.38881e-20
4.82786e-20
5.79253e-20
7.34194e-20
9.57807e-20
1.26554e-19
1.67926e-19
2.22876e-19
2.95353e-19
3.90512e-19
5.15013e-19
6.77402e-19
8.88592e-19
1.16247e-18
1.51663e-18
1.97333e-18
2.56057e-18
3.31355e-18
4.2763e-18
5.50379e-18
7.06436e-18
9.04277e-18
1.15438e-17
1.46964e-17
1.8659e-17
2.36256e-17
2.98327e-17
3.7568e-17
4.71799e-17
5.90894e-17
7.38033e-17
9.19293e-17
1.14194e-16
1.41464e-16
1.74767e-16
2.15319e-16
2.64553e-16
3.24155e-16
3.96097e-16
4.82676e-16
5.86565e-16
7.10855e-16
8.59113e-16
1.03543e-15
1.24451e-15
1.49167e-15
1.78298e-15
2.1253e-15
2.52633e-15
2.99473e-15
3.54012e-15
4.17323e-15
4.9059e-15
5.75115e-15
6.72325e-15
7.83774e-15
9.11145e-15
1.05625e-14
1.22104e-14
1.40757e-14
1.61804e-14
1.85474e-14
2.12007e-14
2.4165e-14
2.74659e-14
3.1129e-14
3.51804e-14
3.96458e-14
4.45505e-14
4.99185e-14
5.5773e-14
6.21349e-14
6.90228e-14
7.64527e-14
8.4437e-14
9.29841e-14
1.02098e-13
1.11777e-13
1.22016e-13
1.328e-13
1.44112e-13
1.55924e-13
1.68203e-13
1.80909e-13
1.93993e-13
2.074e-13
2.21065e-13
2.34919e-13
2.48883e-13
2.62875e-13
2.76805e-13
2.90579e-13
3.04098e-13
3.17262e-13
3.29968e-13
3.42111e-13
3.53591e-13
3.64305e-13
3.74159e-13
3.83059e-13
3.90921e-13
3.97668e-13
4.03231e-13
4.07551e-13
4.10582e-13
4.1229e-13
4.12652e-13
4.11659e-13
4.09318e-13
4.05647e-13
4.00678e-13
3.94459e-13
3.87047e-13
3.78514e-13
3.68942e-13
3.58424e-13
3.47061e-13
3.34961e-13
3.2224e-13
3.09018e-13
2.95417e-13
2.81562e-13
2.67579e-13
2.5359e-13
2.39718e-13
2.26081e-13
2.12791e-13
1.99957e-13
1.8768e-13
1.76053e-13
1.65164e-13
1.5509e-13
1.45903e-13
1.37662e-13
1.30421e-13
1.24225e-13
1.19108e-13
1.15097e-13
1.12211e-13
1.10459e-13
1.09843e-13
1.10355e-13
1.1198e-13
1.14694e-13
1.18464e-13
1.23249e-13
1.29001e-13
1.3566e-13
1.43161e-13
1.51429e-13
1.6038e-13
1.69924e-13
1.79961e-13
1.90386e-13
2.01087e-13
2.11946e-13
2.22841e-13
2.33647e-13
2.44236e-13
2.54481e-13
2.64256e-13
2.73436e-13
2.81904e-13
2.89548e-13
2.96265e-13
3.01962e-13
3.06556e-13
3.09981e-13
3.12183e-13
3.13124e-13
3.12782e-13
3.11153e-13
3.08249e-13
3.04097e-13
2.98743e-13
2.92245e-13
2.84677e-13
2.76124e-13
2.66683e-13
2.56459e-13
2.45564e-13
2.34114e-13
2.22229e-13
2.10027e-13
1.97626e-13
1.85141e-13
1.72681e-13
1.60348e-13
1.48235e-13
1.36428e-13
1.25001e-13
1.14019e-13
1.03535e-13
9.35925e-14
8.42229e-14
7.54485e-14
6.72818e-14
5.97265e-14
5.2778e-14
4.64249e-14
4.06498e-14
3.54298e-14
3.07382e-14
2.65451e-14
2.28182e-14
1.9524e-14
1.66279e-14
1.40958e-14
1.18937e-14
9.989e-15
8.3502e-15
6.94768e-15
5.75371e-15
4.74263e-15
3.8909e-15
3.17716e-15
2.58216e-15
2.08871e-15
1.68161e-15
1.34747e-15
1.07464e-15
8.52998e-16
6.7387e-16
5.29841e-16
4.14623e-16
3.22923e-16
2.50311e-16
1.93106e-16
1.48267e-16
1.13299e-16
8.61664e-17
6.52197e-17
4.91302e-17
3.68337e-17
2.74833e-17
2.04088e-17
1.50831e-17
1.1094e-17
8.12096e-18
5.9163e-18
4.28958e-18
3.09529e-18
2.22284e-18
1.58867e-18
1.13001e-18
7.99924e-19
5.63558e-19
3.95148e-19
2.75769e-19
1.91605e-19
1.3265e-19
9.1726e-20
6.37704e-20
4.52982e-20
3.40138e-20
2.85288e-20
7.15529e-20
7.87077e-20
9.44296e-20
1.19681e-19
1.56124e-19
2.06272e-19
2.7369e-19
3.63225e-19
4.8131e-19
6.36336e-19
8.39146e-19
1.10365e-18
1.44761e-18
1.89361e-18
2.47029e-18
3.21384e-18
4.16981e-18
5.39542e-18
6.96226e-18
8.95964e-18
1.14986e-17
1.47169e-17
1.87846e-17
2.39112e-17
3.03539e-17
3.84273e-17
4.85152e-17
6.1084e-17
7.66987e-17
9.60416e-17
1.19933e-16
1.49359e-16
1.85494e-16
2.2974e-16
2.83759e-16
3.49518e-16
4.29333e-16
5.25926e-16
6.42477e-16
7.82697e-16
9.50892e-16
1.15205e-15
1.3919e-15
1.67704e-15
2.01501e-15
2.4144e-15
2.88492e-15
3.43758e-15
4.08474e-15
4.84024e-15
5.71951e-15
6.73968e-15
7.91965e-15
9.28022e-15
1.08441e-14
1.2636e-14
1.46827e-14
1.7013e-14
1.96577e-14
2.26494e-14
2.60228e-14
2.9814e-14
3.40608e-14
3.8802e-14
4.40774e-14
4.99273e-14
5.63921e-14
6.35117e-14
7.1325e-14
7.98691e-14
8.91791e-14
9.92866e-14
1.1022e-13
1.22001e-13
1.34649e-13
1.48174e-13
1.62581e-13
1.77865e-13
1.94012e-13
2.11001e-13
2.28798e-13
2.47359e-13
2.66628e-13
2.86539e-13
3.07013e-13
3.27959e-13
3.49276e-13
3.7085e-13
3.92558e-13
4.14268e-13
4.35837e-13
4.57118e-13
4.77956e-13
4.98194e-13
5.17671e-13
5.36226e-13
5.53702e-13
5.69944e-13
5.84804e-13
5.98142e-13
6.09831e-13
6.19754e-13
6.27809e-13
6.33911e-13
6.37995e-13
6.40011e-13
6.39932e-13
6.37751e-13
6.33484e-13
6.27165e-13
6.18853e-13
6.08625e-13
5.96577e-13
5.82825e-13
5.67501e-13
5.50752e-13
5.32739e-13
5.13632e-13
4.93612e-13
4.72864e-13
4.5158e-13
4.29951e-13
4.08169e-13
3.86424e-13
3.649e-13
3.43778e-13
3.23226e-13
3.03407e-13
2.84473e-13
2.66562e-13
2.49802e-13
2.34309e-13
2.20183e-13
2.07514e-13
1.96376e-13
1.86831e-13
1.78927e-13
1.727e-13
1.68172e-13
1.65351e-13
1.64236e-13
1.64809e-13
1.67043e-13
1.70898e-13
1.7632e-13
1.83243e-13
1.91591e-13
2.01273e-13
2.12187e-13
2.24219e-13
2.37243e-13
2.51121e-13
2.65707e-13
2.80841e-13
2.96357e-13
3.12082e-13
3.27836e-13
3.43434e-13
3.5869e-13
3.73419e-13
3.87436e-13
4.00563e-13
4.12629e-13
4.23474e-13
4.3295e-13
4.40924e-13
4.47282e-13
4.51929e-13
4.54791e-13
4.55817e-13
4.5498e-13
4.52277e-13
4.47729e-13
4.41382e-13
4.33303e-13
4.23583e-13
4.1233e-13
3.99672e-13
3.85749e-13
3.70717e-13
3.54738e-13
3.37983e-13
3.20623e-13
3.02833e-13
2.8478e-13
2.66631e-13
2.48542e-13
2.30658e-13
2.13115e-13
1.96032e-13
1.79516e-13
1.63658e-13
1.48533e-13
1.34201e-13
1.20706e-13
1.08078e-13
9.63342e-14
8.54768e-14
7.54984e-14
6.63811e-14
5.80984e-14
5.06165e-14
4.3896e-14
3.78928e-14
3.25601e-14
2.78489e-14
2.37093e-14
2.00916e-14
1.6947e-14
1.42282e-14
1.189e-14
9.8898e-15
8.18771e-15
6.7469e-15
5.53363e-15
4.51729e-15
3.67032e-15
2.96816e-15
2.38905e-15
1.91388e-15
1.526e-15
1.21099e-15
9.56481e-16
7.51891e-16
5.88269e-16
4.58076e-16
3.55009e-16
2.73828e-16
2.1021e-16
1.60607e-16
1.22126e-16
9.2424e-17
6.96134e-17
5.21833e-17
3.89313e-17
2.89065e-17
2.13609e-17
1.57097e-17
1.14986e-17
8.37617e-18
6.07255e-18
4.38147e-18
3.14624e-18
2.24847e-18
1.59921e-18
1.132e-18
7.97461e-19
5.59123e-19
3.90186e-19
2.71091e-19
1.87671e-19
1.29768e-19
9.02149e-20
6.40801e-20
4.81151e-20
4.03548e-20
1.18715e-19
1.3058e-19
1.56655e-19
1.98534e-19
2.58971e-19
3.42135e-19
4.5393e-19
6.02393e-19
7.98178e-19
1.05519e-18
1.3914e-18
1.82983e-18
2.39991e-18
3.13904e-18
4.09464e-18
5.3266e-18
6.91033e-18
8.94051e-18
1.15356e-17
1.48433e-17
1.90473e-17
2.43753e-17
3.11085e-17
3.9593e-17
5.02538e-17
6.36106e-17
8.02971e-17
1.01083e-16
1.26902e-16
1.58877e-16
1.98365e-16
2.46986e-16
3.06681e-16
3.79756e-16
4.6895e-16
5.77499e-16
7.09214e-16
8.6857e-16
1.0608e-15
1.29199e-15
1.56922e-15
1.90066e-15
2.29573e-15
2.76524e-15
3.32153e-15
3.97864e-15
4.7525e-15
5.66108e-15
6.72457e-15
7.96556e-15
9.40922e-15
1.10834e-14
1.3019e-14
1.52497e-14
1.78124e-14
2.07472e-14
2.40976e-14
2.791e-14
3.22343e-14
3.71231e-14
4.26323e-14
4.88199e-14
5.57466e-14
6.34745e-14
7.20673e-14
8.15892e-14
9.21043e-14
1.03676e-13
1.16365e-13
1.3023e-13
1.45325e-13
1.617e-13
1.79397e-13
1.9845e-13
2.18885e-13
2.40717e-13
2.63949e-13
2.8857e-13
3.14556e-13
3.41866e-13
3.70441e-13
4.00209e-13
4.31075e-13
4.62929e-13
4.95639e-13
5.29057e-13
5.63017e-13
5.97334e-13
6.31807e-13
6.66222e-13
7.00351e-13
7.33956e-13
7.66789e-13
7.98598e-13
8.29129e-13
8.58128e-13
8.85345e-13
9.10536e-13
9.33472e-13
9.53935e-13
9.71726e-13
9.86667e-13
9.98605e-13
1.00741e-12
1.01299e-12
1.01528e-12
1.01423e-12
1.00985e-12
1.00218e-12
9.91268e-13
9.77227e-13
9.60185e-13
9.40302e-13
9.1777e-13
8.92804e-13
8.65642e-13
8.36542e-13
8.05779e-13
7.73639e-13
7.4042e-13
7.0642e-13
6.71945e-13
6.37295e-13
6.02765e-13
5.68645e-13
5.35211e-13
5.02727e-13
4.71442e-13
4.41586e-13
4.13372e-13
3.86994e-13
3.62623e-13
3.40412e-13
3.2049e-13
3.02967e-13
2.87931e-13
2.7545e-13
2.6557e-13
2.58319e-13
2.53704e-13
2.51712e-13
2.52312e-13
2.55454e-13
2.61069e-13
2.6907e-13
2.79352e-13
2.91788e-13
3.06238e-13
3.22541e-13
3.40518e-13
3.59975e-13
3.807e-13
4.02465e-13
4.2503e-13
4.48142e-13
4.71536e-13
4.9494e-13
5.18076e-13
5.40666e-13
5.62431e-13
5.83096e-13
6.02397e-13
6.20079e-13
6.35905e-13
6.49659e-13
6.61147e-13
6.70201e-13
6.76686e-13
6.80496e-13
6.81561e-13
6.79846e-13
6.75353e-13
6.68118e-13
6.58215e-13
6.45751e-13
6.30862e-13
6.13717e-13
5.94508e-13
5.73448e-13
5.50771e-13
5.2672e-13
5.01549e-13
4.75516e-13
4.48877e-13
4.21886e-13
3.94784e-13
3.67804e-13
3.4116e-13
3.15049e-13
2.89649e-13
2.65115e-13
2.41578e-13
2.19147e-13
1.97909e-13
1.77927e-13
1.59242e-13
1.41877e-13
1.25833e-13
1.11097e-13
9.76409e-14
8.54238e-14
7.43942e-14
6.44922e-14
5.56519e-14
4.78028e-14
4.08718e-14
3.47846e-14
2.94672e-14
2.48472e-14
2.08545e-14
1.74221e-14
1.4487e-14
1.19903e-14
9.87758e-15
8.09917e-15
6.60991e-15
5.36924e-15
4.34101e-15
3.49323e-15
2.79781e-15
2.2303e-15
1.76954e-15
1.39735e-15
1.09825e-15
8.59091e-16
6.68841e-16
5.18261e-16
3.99683e-16
3.06776e-16
2.34351e-16
1.78175e-16
1.34823e-16
1.01535e-16
7.61022e-17
5.67692e-17
4.21462e-17
3.11412e-17
2.29002e-17
1.676e-17
1.22077e-17
8.84956e-18
6.38462e-18
4.58431e-18
3.27596e-18
2.32984e-18
1.64907e-18
1.16166e-18
8.14431e-19
5.68326e-19
3.94841e-19
2.73329e-19
1.8899e-19
1.31381e-19
9.33172e-20
7.00652e-20
5.87628e-20
1.97365e-19
2.17082e-19
2.60415e-19
3.30013e-19
4.30448e-19
5.68644e-19
7.54406e-19
1.00108e-18
1.32636e-18
1.75332e-18
2.3118e-18
3.04002e-18
3.98681e-18
5.21424e-18
6.80098e-18
8.84638e-18
1.14755e-17
1.48454e-17
1.91524e-17
2.46414e-17
3.16168e-17
4.04559e-17
5.16245e-17
6.56959e-17
8.33737e-17
1.05518e-16
1.33178e-16
1.67628e-16
2.10409e-16
2.63382e-16
3.28786e-16
4.09301e-16
5.08131e-16
6.29085e-16
7.76683e-16
9.56265e-16
1.17412e-15
1.43761e-15
1.75537e-15
2.13742e-15
2.59542e-15
3.14281e-15
3.79507e-15
4.56996e-15
5.48776e-15
6.57152e-15
7.84736e-15
9.34473e-15
1.10967e-14
1.31402e-14
1.55165e-14
1.82711e-14
2.14542e-14
2.51209e-14
2.93314e-14
3.4151e-14
3.96501e-14
4.59044e-14
5.29944e-14
6.10057e-14
7.00283e-14
8.01561e-14
9.14866e-14
1.0412e-13
1.18158e-13
1.33704e-13
1.50859e-13
1.69725e-13
1.90397e-13
2.12969e-13
2.37525e-13
2.64141e-13
2.92882e-13
3.23801e-13
3.56933e-13
3.92299e-13
4.29897e-13
4.69705e-13
5.11679e-13
5.55745e-13
6.01806e-13
6.49735e-13
6.99376e-13
7.50543e-13
8.03021e-13
8.56565e-13
9.109e-13
9.65727e-13
1.02072e-12
1.07553e-12
1.12978e-12
1.1831e-12
1.23509e-12
1.28534e-12
1.33344e-12
1.379e-12
1.42162e-12
1.4609e-12
1.4965e-12
1.52807e-12
1.55531e-12
1.57793e-12
1.5957e-12
1.60844e-12
1.616e-12
1.61828e-12
1.61525e-12
1.60692e-12
1.59335e-12
1.57466e-12
1.55102e-12
1.52266e-12
1.48984e-12
1.45288e-12
1.41213e-12
1.36798e-12
1.32084e-12
1.27115e-12
1.21938e-12
1.16599e-12
1.11147e-12
1.05629e-12
1.00093e-12
9.45859e-13
8.9152e-13
8.38348e-13
7.86753e-13
7.3712e-13
6.89804e-13
6.45131e-13
6.03395e-13
5.64856e-13
5.29743e-13
4.98248e-13
4.70532e-13
4.46722e-13
4.26913e-13
4.11166e-13
3.99512e-13
3.91953e-13
3.8846e-13
3.88973e-13
3.93405e-13
4.01641e-13
4.13537e-13
4.28922e-13
4.47595e-13
4.69333e-13
4.9388e-13
5.20958e-13
5.50264e-13
5.81468e-13
6.14221e-13
6.4815e-13
6.82868e-13
7.17971e-13
7.53045e-13
7.87669e-13
8.21418e-13
8.53873e-13
8.84621e-13
9.13264e-13
9.39422e-13
9.62742e-13
9.82902e-13
9.99615e-13
1.01264e-12
1.02177e-12
1.02686e-12
1.02781e-12
1.02459e-12
1.01718e-12
1.00567e-12
9.90166e-13
9.70837e-13
9.47896e-13
9.216e-13
8.92244e-13
8.60154e-13
8.2568e-13
7.89194e-13
7.51076e-13
7.11715e-13
6.71495e-13
6.30795e-13
5.89977e-13
5.49385e-13
5.0934e-13
4.70134e-13
4.32029e-13
3.95253e-13
3.60001e-13
3.26431e-13
2.94669e-13
2.64806e-13
2.369e-13
2.1098e-13
1.87048e-13
1.6508e-13
1.45031e-13
1.26837e-13
1.10421e-13
9.569e-14
8.2545e-14
7.08793e-14
6.05827e-14
5.15436e-14
4.3651e-14
3.67962e-14
3.08744e-14
2.57856e-14
2.14356e-14
1.77366e-14
1.46077e-14
1.19746e-14
9.7704e-15
7.93466e-15
6.41369e-15
5.15999e-15
4.13189e-15
3.2931e-15
2.61226e-15
2.06243e-15
1.62067e-15
1.26753e-15
9.86658e-16
7.64402e-16
5.89415e-16
4.52337e-16
3.45496e-16
2.62642e-16
1.98712e-16
1.4963e-16
1.12137e-16
8.36403e-17
6.20889e-17
4.58717e-17
3.37293e-17
2.46831e-17
1.79772e-17
1.30309e-17
9.40054e-18
6.74931e-18
4.82273e-18
3.42967e-18
2.42739e-18
1.70984e-18
1.19869e-18
8.36429e-19
5.81077e-19
4.02234e-19
2.78109e-19
1.93327e-19
1.3731e-19
1.03092e-19
8.64593e-20
3.27182e-19
3.59851e-19
4.31657e-19
5.46986e-19
7.13408e-19
9.4239e-19
1.25017e-18
1.65884e-18
2.19769e-18
2.90495e-18
3.82996e-18
5.03603e-18
6.60393e-18
8.63639e-18
1.12635e-17
1.46497e-17
1.90018e-17
2.45793e-17
3.1707e-17
4.07897e-17
5.23305e-17
6.69525e-17
8.54253e-17
1.08696e-16
1.37926e-16
1.74536e-16
2.20256e-16
2.77188e-16
3.47875e-16
4.35387e-16
5.43412e-16
6.76368e-16
8.39531e-16
1.03918e-15
1.28274e-15
1.57901e-15
1.93833e-15
2.37281e-15
2.89663e-15
3.52626e-15
4.28083e-15
5.18239e-15
6.25636e-15
7.53182e-15
9.042e-15
1.08246e-14
1.29225e-14
1.53836e-14
1.82622e-14
2.16185e-14
2.55196e-14
3.00399e-14
3.52612e-14
4.12731e-14
4.81734e-14
5.60681e-14
6.50715e-14
7.5306e-14
8.69022e-14
9.99982e-14
1.14739e-13
1.31276e-13
1.49767e-13
1.70371e-13
1.93251e-13
2.18573e-13
2.46499e-13
2.77187e-13
3.10792e-13
3.47458e-13
3.87317e-13
4.30488e-13
4.77069e-13
5.27138e-13
5.80748e-13
6.37922e-13
6.98652e-13
7.62893e-13
8.30563e-13
9.01538e-13
9.75649e-13
1.05268e-12
1.13238e-12
1.21444e-12
1.29849e-12
1.38415e-12
1.47095e-12
1.55842e-12
1.64601e-12
1.73318e-12
1.81932e-12
1.90381e-12
1.98603e-12
2.06532e-12
2.14103e-12
2.21253e-12
2.27919e-12
2.3404e-12
2.3956e-12
2.44425e-12
2.48588e-12
2.52007e-12
2.54645e-12
2.56475e-12
2.57476e-12
2.57634e-12
2.56945e-12
2.55413e-12
2.53051e-12
2.49879e-12
2.45928e-12
2.41233e-12
2.3584e-12
2.298e-12
2.2317e-12
2.16013e-12
2.08396e-12
2.00389e-12
1.92067e-12
1.83505e-12
1.74777e-12
1.65961e-12
1.5713e-12
1.48359e-12
1.39716e-12
1.31271e-12
1.23085e-12
1.1522e-12
1.07729e-12
1.00662e-12
9.4065e-13
8.79761e-13
8.24298e-13
7.74549e-13
7.30749e-13
6.93079e-13
6.61671e-13
6.36606e-13
6.17916e-13
6.05586e-13
5.99557e-13
5.99723e-13
6.05935e-13
6.18e-13
6.35683e-13
6.58709e-13
6.86759e-13
7.19474e-13
7.56458e-13
7.97273e-13
8.41446e-13
8.88467e-13
9.37796e-13
9.88862e-13
1.04107e-12
1.0938e-12
1.14642e-12
1.1983e-12
1.24879e-12
1.29725e-12
1.34307e-12
1.38564e-12
1.4244e-12
1.45882e-12
1.48842e-12
1.51278e-12
1.53153e-12
1.54439e-12
1.55115e-12
1.55166e-12
1.54587e-12
1.5338e-12
1.51556e-12
1.49135e-12
1.46141e-12
1.42609e-12
1.38577e-12
1.34091e-12
1.29199e-12
1.23956e-12
1.18418e-12
1.12641e-12
1.06685e-12
1.00606e-12
9.44628e-13
8.83083e-13
8.21941e-13
7.61681e-13
7.02735e-13
6.45493e-13
5.9029e-13
5.37414e-13
4.87099e-13
4.39524e-13
3.94823e-13
3.53077e-13
3.14326e-13
2.78566e-13
2.4576e-13
2.15835e-13
1.88694e-13
1.64215e-13
1.42261e-13
1.22678e-13
1.05308e-13
8.99819e-14
7.65334e-14
6.47953e-14
5.46046e-14
4.58042e-14
3.82443e-14
3.17843e-14
2.62929e-14
2.16492e-14
1.77427e-14
1.44734e-14
1.17514e-14
9.49673e-15
7.63879e-15
6.11556e-15
4.87313e-15
3.86489e-15
3.05086e-15
2.39695e-15
1.87434e-15
1.45878e-15
1.12999e-15
8.71183e-16
6.68479e-16
5.10516e-16
3.88037e-16
2.93546e-16
2.21014e-16
1.65615e-16
1.23514e-16
9.16788e-17
6.77261e-17
4.9794e-17
3.64359e-17
2.65347e-17
1.92322e-17
1.38732e-17
9.95978e-18
7.11629e-18
5.06041e-18
3.58134e-18
2.52253e-18
1.76834e-18
1.23386e-18
8.57138e-19
5.93304e-19
4.102e-19
2.85138e-19
2.0251e-19
1.52038e-19
1.27504e-19
5.40043e-19
5.93938e-19
7.1241e-19
9.0269e-19
1.17726e-18
1.55503e-18
2.06276e-18
2.73687e-18
3.62567e-18
4.79214e-18
6.31763e-18
8.30644e-18
1.08917e-17
1.42426e-17
1.85735e-17
2.4155e-17
3.13279e-17
4.05195e-17
5.22643e-17
6.72285e-17
8.62399e-17
1.10324e-16
1.40746e-16
1.79064e-16
2.27187e-16
2.8745e-16
3.62697e-16
4.5638e-16
5.72677e-16
7.16626e-16
8.94281e-16
1.11289e-15
1.38112e-15
1.70924e-15
2.10945e-15
2.59615e-15
3.18627e-15
3.89966e-15
4.7595e-15
5.79275e-15
7.03067e-15
8.50931e-15
1.02702e-14
1.23607e-14
1.48352e-14
1.77551e-14
2.11901e-14
2.52186e-14
2.99284e-14
3.54179e-14
4.1796e-14
4.91833e-14
5.77126e-14
6.75292e-14
7.87913e-14
9.16704e-14
1.06351e-13
1.23031e-13
1.41921e-13
1.63243e-13
1.8723e-13
2.14125e-13
2.44179e-13
2.7765e-13
3.14796e-13
3.5588e-13
4.0116e-13
4.50887e-13
5.05303e-13
5.64634e-13
6.29087e-13
6.98842e-13
7.74051e-13
8.54828e-13
9.41248e-13
1.03334e-12
1.13107e-12
1.23436e-12
1.34306e-12
1.45696e-12
1.57578e-12
1.69916e-12
1.82666e-12
1.95779e-12
2.09196e-12
2.22851e-12
2.36671e-12
2.50577e-12
2.64485e-12
2.78301e-12
2.91932e-12
3.05279e-12
3.18239e-12
3.3071e-12
3.42589e-12
3.53774e-12
3.64168e-12
3.73674e-12
3.82205e-12
3.89677e-12
3.96018e-12
4.01161e-12
4.05055e-12
4.07654e-12
4.08931e-12
4.08867e-12
4.07457e-12
4.04713e-12
4.00657e-12
3.95325e-12
3.88767e-12
3.81045e-12
3.72231e-12
3.62409e-12
3.51673e-12
3.40123e-12
3.27867e-12
3.15017e-12
3.01692e-12
2.88009e-12
2.7409e-12
2.60052e-12
2.46014e-12
2.3209e-12
2.1839e-12
2.05019e-12
1.92074e-12
1.79648e-12
1.67825e-12
1.5668e-12
1.46282e-12
1.3669e-12
1.27956e-12
1.2012e-12
1.13218e-12
1.07276e-12
1.02312e-12
9.8335e-13
9.53487e-13
9.33484e-13
9.23224e-13
9.22521e-13
9.31126e-13
9.4872e-13
9.74924e-13
1.00929e-12
1.05133e-12
1.10045e-12
1.15605e-12
1.21745e-12
1.28389e-12
1.35461e-12
1.42877e-12
1.50548e-12
1.58385e-12
1.66292e-12
1.74174e-12
1.81934e-12
1.89474e-12
1.967e-12
2.03516e-12
2.09834e-12
2.15569e-12
2.20642e-12
2.24981e-12
2.28525e-12
2.31221e-12
2.33025e-12
2.33908e-12
2.3385e-12
2.32845e-12
2.30898e-12
2.28027e-12
2.24261e-12
2.19641e-12
2.14218e-12
2.08052e-12
2.01213e-12
1.93774e-12
1.85817e-12
1.77427e-12
1.68689e-12
1.59693e-12
1.50523e-12
1.41266e-12
1.32002e-12
1.22808e-12
1.13754e-12
1.04905e-12
9.63192e-13
8.80453e-13
8.01259e-13
7.2595e-13
6.5479e-13
5.87969e-13
5.25604e-13
4.67745e-13
4.14382e-13
3.65452e-13
3.20843e-13
2.80402e-13
2.43947e-13
2.11265e-13
1.82127e-13
1.56291e-13
1.33506e-13
1.1352e-13
9.60817e-14
8.09482e-14
6.78839e-14
5.66652e-14
4.70818e-14
3.89379e-14
3.20533e-14
2.62634e-14
2.14192e-14
1.73871e-14
1.40483e-14
1.12976e-14
9.04298e-15
7.20445e-15
5.71282e-15
4.50877e-15
3.54179e-15
2.76911e-15
2.15482e-15
1.66891e-15
1.28648e-15
9.87005e-16
7.53671e-16
5.72781e-16
4.3325e-16
3.26159e-16
2.44377e-16
1.82234e-16
1.3525e-16
9.99035e-17
7.34446e-17
5.3737e-17
3.9131e-17
2.83597e-17
2.04556e-17
1.46844e-17
1.04913e-17
7.4599e-18
5.27918e-18
3.7182e-18
2.60638e-18
1.81851e-18
1.26323e-18
8.74356e-19
6.04489e-19
4.20174e-19
2.98401e-19
2.24019e-19
1.87863e-19
8.87185e-19
9.75677e-19
1.17022e-18
1.48268e-18
1.93353e-18
2.55381e-18
3.38743e-18
4.49416e-18
5.95323e-18
7.86799e-18
1.03718e-17
1.36359e-17
1.78784e-17
2.33769e-17
3.04827e-17
3.96395e-17
5.14057e-17
6.64816e-17
8.57428e-17
1.10281e-16
1.41451e-16
1.80933e-16
2.30798e-16
2.93596e-16
3.72451e-16
4.71183e-16
5.94443e-16
7.47876e-16
9.38311e-16
1.17398e-15
1.46478e-15
1.82255e-15
2.26141e-15
2.79817e-15
3.4527e-15
4.2485e-15
5.21316e-15
6.37905e-15
7.7839e-15
9.47163e-15
1.14931e-14
1.39069e-14
1.67807e-14
2.01914e-14
2.42272e-14
2.89879e-14
3.45865e-14
4.11501e-14
4.88211e-14
5.77585e-14
6.81386e-14
8.01563e-14
9.40262e-14
1.09983e-13
1.2828e-13
1.49196e-13
1.73027e-13
2.0009e-13
2.30722e-13
2.65282e-13
3.0414e-13
3.47687e-13
3.96321e-13
4.50453e-13
5.10495e-13
5.76861e-13
6.49959e-13
7.30185e-13
8.17919e-13
9.13511e-13
1.01728e-12
1.12951e-12
1.25042e-12
1.38019e-12
1.51891e-12
1.66661e-12
1.82322e-12
1.98861e-12
2.1625e-12
2.34453e-12
2.53424e-12
2.73103e-12
2.9342e-12
3.1429e-12
3.3562e-12
3.57302e-12
3.79218e-12
4.01242e-12
4.23234e-12
4.45051e-12
4.66537e-12
4.87537e-12
5.07889e-12
5.27429e-12
5.45995e-12
5.63427e-12
5.79571e-12
5.94278e-12
6.07409e-12
6.18837e-12
6.28449e-12
6.36147e-12
6.41847e-12
6.45489e-12
6.47028e-12
6.46443e-12
6.43731e-12
6.38913e-12
6.3203e-12
6.23145e-12
6.1234e-12
5.99717e-12
5.85394e-12
5.69509e-12
5.5221e-12
5.3366e-12
5.1403e-12
4.935e-12
4.72256e-12
4.50484e-12
4.28375e-12
4.06115e-12
3.83888e-12
3.61872e-12
3.40238e-12
3.19148e-12
2.98754e-12
2.79196e-12
2.60603e-12
2.43091e-12
2.26762e-12
2.11706e-12
1.97998e-12
1.85701e-12
1.74864e-12
1.65525e-12
1.57706e-12
1.51421e-12
1.46671e-12
1.43443e-12
1.41718e-12
1.41463e-12
1.42637e-12
1.45187e-12
1.49054e-12
1.54165e-12
1.60442e-12
1.67796e-12
1.76128e-12
1.85334e-12
1.953e-12
2.05905e-12
2.1702e-12
2.28512e-12
2.40242e-12
2.52066e-12
2.6384e-12
2.75416e-12
2.86648e-12
2.97392e-12
3.07508e-12
3.1686e-12
3.25323e-12
3.3278e-12
3.39125e-12
3.44266e-12
3.48126e-12
3.50643e-12
3.51774e-12
3.51492e-12
3.49789e-12
3.46676e-12
3.42182e-12
3.36353e-12
3.29252e-12
3.20957e-12
3.11561e-12
3.01168e-12
2.89891e-12
2.77852e-12
2.65179e-12
2.52002e-12
2.38451e-12
2.24657e-12
2.10746e-12
1.96838e-12
1.83048e-12
1.69481e-12
1.56232e-12
1.43386e-12
1.31016e-12
1.19184e-12
1.07941e-12
9.73229e-13
8.73585e-13
7.8064e-13
6.94458e-13
6.15015e-13
5.42209e-13
4.75864e-13
4.15748e-13
3.6158e-13
3.13041e-13
2.69785e-13
2.31445e-13
1.97646e-13
1.6801e-13
1.42163e-13
1.19739e-13
1.00389e-13
8.37768e-14
6.9591e-14
5.75399e-14
4.73553e-14
3.87926e-14
3.16305e-14
2.56708e-14
2.0737e-14
1.66733e-14
1.33433e-14
1.06285e-14
8.42646e-15
6.64932e-15
5.22238e-15
4.08241e-15
3.17629e-15
2.45966e-15
1.89576e-15
1.45425e-15
1.11031e-15
8.43715e-16
6.38104e-16
4.80321e-16
3.59843e-16
2.68309e-16
1.99112e-16
1.47062e-16
1.08103e-16
7.90883e-17
5.75867e-17
4.17318e-17
3.00985e-17
2.16051e-17
1.54348e-17
1.09743e-17
7.76572e-18
5.46918e-18
3.83358e-18
2.67461e-18
1.85782e-18
1.28585e-18
8.88938e-19
6.17863e-19
4.38777e-19
3.29388e-19
2.76216e-19
1.45045e-18
1.59505e-18
1.91297e-18
2.42357e-18
3.16032e-18
4.17387e-18
5.53596e-18
7.34416e-18
9.72784e-18
1.28557e-17
1.69456e-17
2.22767e-17
2.92053e-17
3.81842e-17
4.97866e-17
6.47365e-17
8.39443e-17
1.08552e-16
1.39988e-16
1.80031e-16
2.30891e-16
2.95304e-16
3.76645e-16
4.79067e-16
6.07659e-16
7.68639e-16
9.69578e-16
1.21966e-15
1.53001e-15
1.914e-15
2.38772e-15
2.97042e-15
3.68506e-15
4.55891e-15
5.62427e-15
6.91927e-15
8.4887e-15
1.0385e-14
1.26694e-14
1.54131e-14
1.86984e-14
2.26204e-14
2.72881e-14
3.28264e-14
3.93776e-14
4.71031e-14
5.61853e-14
6.68292e-14
7.92645e-14
9.37474e-14
1.10562e-13
1.30021e-13
1.52471e-13
1.78287e-13
2.07879e-13
2.41689e-13
2.80193e-13
3.239e-13
3.73349e-13
4.29107e-13
4.91771e-13
5.61957e-13
6.40302e-13
7.27452e-13
8.24063e-13
9.30787e-13
1.04826e-12
1.17712e-12
1.31794e-12
1.47127e-12
1.63761e-12
1.81737e-12
2.01091e-12
2.21846e-12
2.44017e-12
2.67603e-12
2.92593e-12
3.18959e-12
3.46657e-12
3.75626e-12
4.05788e-12
4.37044e-12
4.6928e-12
5.02358e-12
5.36126e-12
5.70412e-12
6.05025e-12
6.3976e-12
6.74397e-12
7.08704e-12
7.42438e-12
7.75348e-12
8.07178e-12
8.37673e-12
8.66574e-12
8.93633e-12
9.18607e-12
9.41265e-12
9.61393e-12
9.78795e-12
9.93295e-12
1.00475e-11
1.01302e-11
1.01804e-11
1.01973e-11
1.01806e-11
1.01305e-11
1.00473e-11
9.93177e-12
9.78491e-12
9.6081e-12
9.40303e-12
9.17161e-12
8.91605e-12
8.63873e-12
8.34224e-12
8.02931e-12
7.70279e-12
7.36559e-12
7.02068e-12
6.671e-12
6.31949e-12
5.96901e-12
5.62232e-12
5.28207e-12
4.95075e-12
4.63069e-12
4.32406e-12
4.03279e-12
3.75866e-12
3.5032e-12
3.26775e-12
3.05343e-12
2.86116e-12
2.69165e-12
2.5454e-12
2.42275e-12
2.32381e-12
2.24856e-12
2.19677e-12
2.16806e-12
2.16191e-12
2.17762e-12
2.21435e-12
2.27113e-12
2.34684e-12
2.44022e-12
2.54989e-12