/*--------------------------------*- C++ -*----------------------------------*\
| =========                 |                                                 |
| \\      /  F ield         | OpenFOAM: The Open Source CFD Toolbox           |
|  \\    /   O peration     | Version:  v2012                                 |
|   \\  /    A nd           | Website:  www.openfoam.com                      |
|    \\/     M anipulation  |                                                 |
\*---------------------------------------------------------------------------*/
FoamFile
{
    version     2.0;
    format      ascii;
    class       volScalarField;
    location    "20";
    object      p;
}
// * * * * * * * * * * * * * * * * * * * * * * * * * * * * * * * * * * * * * //

dimensions      [0 2 -2 0 0 0 0];


internalField   nonuniform List<scalar> 
65536
(
1.11126e-10
-1.39107e-06
-4.1803e-06
-8.3686e-06
-1.39565e-05
-2.09435e-05
-2.9329e-05
-3.91127e-05
-5.02943e-05
-6.28735e-05
-7.68501e-05
-9.22237e-05
-0.000108994
-0.000127161
-0.000146724
-0.000167681
-0.000190033
-0.000213779
-0.000238918
-0.000265449
-0.00029337
-0.000322681
-0.00035338
-0.000385465
-0.000418934
-0.000453785
-0.000490017
-0.000527625
-0.000566608
-0.000606962
-0.000648683
-0.000691768
-0.000736213
-0.000782012
-0.000829161
-0.000877654
-0.000927485
-0.000978647
-0.00103113
-0.00108494
-0.00114005
-0.00119646
-0.00125416
-0.00131314
-0.00137338
-0.00143489
-0.00149763
-0.00156161
-0.0016268
-0.00169319
-0.00176076
-0.0018295
-0.00189938
-0.00197039
-0.0020425
-0.0021157
-0.00218996
-0.00226524
-0.00234154
-0.00241882
-0.00249704
-0.00257619
-0.00265622
-0.00273711
-0.00281881
-0.00290129
-0.0029845
-0.00306842
-0.00315299
-0.00323817
-0.00332392
-0.00341017
-0.00349689
-0.00358402
-0.0036715
-0.00375928
-0.0038473
-0.00393549
-0.00402379
-0.00411213
-0.00420045
-0.00428867
-0.00437673
-0.00446454
-0.00455204
-0.00463913
-0.00472574
-0.00481179
-0.00489718
-0.00498184
-0.00506567
-0.00514859
-0.00523049
-0.00531128
-0.00539088
-0.00546917
-0.00554606
-0.00562146
-0.00569526
-0.00576736
-0.00583766
-0.00590605
-0.00597244
-0.00603672
-0.00609879
-0.00615854
-0.00621588
-0.0062707
-0.00632291
-0.00637241
-0.00641909
-0.00646288
-0.00650367
-0.00654137
-0.00657591
-0.00660719
-0.00663514
-0.00665967
-0.00668072
-0.00669822
-0.0067121
-0.00672231
-0.00672878
-0.00673147
-0.00673033
-0.00672532
-0.00671642
-0.00670359
-0.00668681
-0.00666607
-0.00664136
-0.00661267
-0.00658001
-0.00654339
-0.00650282
-0.00645833
-0.00640994
-0.0063577
-0.00630165
-0.00624183
-0.00617829
-0.0061111
-0.00604033
-0.00596605
-0.00588832
-0.00580725
-0.0057229
-0.00563538
-0.00554479
-0.00545121
-0.00535477
-0.00525555
-0.00515369
-0.00504928
-0.00494246
-0.00483333
-0.00472201
-0.00460864
-0.00449334
-0.00437622
-0.00425742
-0.00413707
-0.00401528
-0.00389219
-0.00376791
-0.00364259
-0.00351633
-0.00338927
-0.00326152
-0.0031332
-0.00300443
-0.00287533
-0.00274601
-0.00261658
-0.00248714
-0.00235782
-0.00222869
-0.00209987
-0.00197146
-0.00184354
-0.00171621
-0.00158955
-0.00146365
-0.00133858
-0.00121443
-0.00109127
-0.000969167
-0.000848192
-0.000728406
-0.000609871
-0.000492644
-0.000376781
-0.00026233
-0.000149342
-3.786e-05
7.20727e-05
0.000180417
0.000287137
0.000392198
0.000495569
0.000597221
0.000697129
0.000795268
0.000891617
0.000986156
0.00107887
0.00116974
0.00125875
0.0013459
0.00143116
0.00151454
0.00159603
0.00167562
0.00175331
0.00182909
0.00190296
0.00197493
0.00204499
0.00211314
0.00217939
0.00224374
0.00230619
0.00236675
0.00242543
0.00248222
0.00253713
0.00259018
0.00264136
0.00269069
0.00273817
0.00278381
0.00282762
0.0028696
0.00290976
0.00294811
0.00298465
0.00301941
0.00305237
0.00308355
0.00311296
0.0031406
0.00316647
0.0031906
0.00321297
0.0032336
0.00325249
0.00326965
0.00328508
0.00329879
0.00331077
0.00332104
0.00332959
0.00333642
0.00334155
0.00334497
0.00334668
-1.91547e-06
-3.30803e-06
-6.09984e-06
-1.02903e-05
-1.58799e-05
-2.28684e-05
-3.12556e-05
-4.10413e-05
-5.22251e-05
-6.48069e-05
-7.87863e-05
-9.41631e-05
-0.000110937
-0.000129107
-0.000148674
-0.000169636
-0.000191992
-0.000215743
-0.000240887
-0.000267423
-0.00029535
-0.000324667
-0.000355372
-0.000387463
-0.000420939
-0.000455798
-0.000492036
-0.000529653
-0.000568644
-0.000609006
-0.000650736
-0.000693831
-0.000738285
-0.000784094
-0.000831253
-0.000879756
-0.000929598
-0.000980771
-0.00103327
-0.00108708
-0.00114221
-0.00119863
-0.00125634
-0.00131534
-0.0013756
-0.00143711
-0.00149987
-0.00156386
-0.00162907
-0.00169548
-0.00176306
-0.00183182
-0.00190172
-0.00197274
-0.00204487
-0.00211809
-0.00219236
-0.00226767
-0.00234399
-0.00242128
-0.00249953
-0.0025787
-0.00265875
-0.00273966
-0.00282138
-0.00290388
-0.00298712
-0.00307106
-0.00315566
-0.00324086
-0.00332663
-0.00341291
-0.00349965
-0.00358681
-0.00367432
-0.00376212
-0.00385016
-0.00393838
-0.0040267
-0.00411508
-0.00420342
-0.00429168
-0.00437976
-0.0044676
-0.00455512
-0.00464225
-0.00472889
-0.00481496
-0.00490039
-0.00498508
-0.00506894
-0.00515188
-0.00523381
-0.00531464
-0.00539426
-0.00547258
-0.00554951
-0.00562494
-0.00569876
-0.00577089
-0.00584122
-0.00590964
-0.00597606
-0.00604036
-0.00610246
-0.00616223
-0.0062196
-0.00627445
-0.00632668
-0.0063762
-0.00642291
-0.00646671
-0.00650752
-0.00654525
-0.0065798
-0.0066111
-0.00663906
-0.00666361
-0.00668468
-0.00670218
-0.00671607
-0.00672629
-0.00673276
-0.00673546
-0.00673432
-0.00672932
-0.00672042
-0.00670758
-0.0066908
-0.00667006
-0.00664534
-0.00661664
-0.00658397
-0.00654733
-0.00650675
-0.00646224
-0.00641384
-0.00636158
-0.0063055
-0.00624566
-0.0061821
-0.00611489
-0.00604409
-0.00596977
-0.00589202
-0.00581091
-0.00572654
-0.00563898
-0.00554835
-0.00545474
-0.00535826
-0.00525901
-0.00515711
-0.00505267
-0.0049458
-0.00483663
-0.00472528
-0.00461187
-0.00449653
-0.00437938
-0.00426054
-0.00414015
-0.00401832
-0.00389519
-0.00377088
-0.00364552
-0.00351923
-0.00339213
-0.00326434
-0.00313599
-0.00300719
-0.00287806
-0.00274871
-0.00261925
-0.00248979
-0.00236043
-0.00223128
-0.00210244
-0.001974
-0.00184605
-0.0017187
-0.00159202
-0.00146609
-0.00134101
-0.00121684
-0.00109366
-0.000971545
-0.000850554
-0.000730754
-0.000612205
-0.000494966
-0.000379091
-0.00026463
-0.000151631
-4.01407e-05
6.98002e-05
0.000178152
0.000284878
0.000389945
0.000493321
0.000594979
0.00069489
0.000793033
0.000889384
0.000983925
0.00107664
0.00116751
0.00125652
0.00134367
0.00142894
0.00151232
0.0015938
0.00167339
0.00175108
0.00182686
0.00190073
0.00197269
0.00204275
0.0021109
0.00217715
0.0022415
0.00230395
0.0023645
0.00242317
0.00247996
0.00253487
0.00258792
0.0026391
0.00268842
0.0027359
0.00278154
0.00282534
0.00286731
0.00290747
0.00294582
0.00298236
0.00301711
0.00305007
0.00308125
0.00311066
0.00313829
0.00316417
0.00318829
0.00321066
0.00323129
0.00325018
0.00326734
0.00328277
0.00329647
0.00330845
0.00331872
0.00332727
0.0033341
0.00333923
0.00334265
0.00334435
-5.75464e-06
-7.14966e-06
-9.94474e-06
-1.41383e-05
-1.97309e-05
-2.67225e-05
-3.51133e-05
-4.4903e-05
-5.60913e-05
-6.86781e-05
-8.26631e-05
-9.80461e-05
-0.000114827
-0.000133004
-0.000152578
-0.000173549
-0.000195914
-0.000219675
-0.000244829
-0.000271375
-0.000299314
-0.000328642
-0.00035936
-0.000391464
-0.000424954
-0.000459827
-0.000496081
-0.000533713
-0.00057272
-0.0006131
-0.000654848
-0.00069796
-0.000742433
-0.000788262
-0.000835441
-0.000883966
-0.000933829
-0.000985025
-0.00103755
-0.00109138
-0.00114653
-0.00120298
-0.00126072
-0.00131974
-0.00138003
-0.00144157
-0.00150436
-0.00156838
-0.00163362
-0.00170006
-0.00176768
-0.00183646
-0.0019064
-0.00197746
-0.00204962
-0.00212288
-0.00219719
-0.00227253
-0.00234889
-0.00242622
-0.00250451
-0.00258372
-0.00266381
-0.00274476
-0.00282653
-0.00290907
-0.00299236
-0.00307635
-0.00316099
-0.00324624
-0.00333206
-0.00341839
-0.00350519
-0.00359239
-0.00367995
-0.00376781
-0.0038559
-0.00394417
-0.00403255
-0.00412098
-0.00420938
-0.00429769
-0.00438583
-0.00447373
-0.00456131
-0.00464849
-0.00473519
-0.00482133
-0.00490681
-0.00499156
-0.00507548
-0.00515848
-0.00524047
-0.00532136
-0.00540104
-0.00547942
-0.00555641
-0.00563189
-0.00570578
-0.00577797
-0.00584835
-0.00591683
-0.0059833
-0.00604766
-0.00610981
-0.00616964
-0.00622705
-0.00628195
-0.00633423
-0.00638379
-0.00643055
-0.0064744
-0.00651525
-0.00655301
-0.0065876
-0.00661893
-0.00664693
-0.0066715
-0.00669259
-0.00671012
-0.00672403
-0.00673426
-0.00674075
-0.00674345
-0.00674233
-0.00673733
-0.00672842
-0.00671559
-0.0066988
-0.00667804
-0.00665331
-0.00662459
-0.0065919
-0.00655524
-0.00651462
-0.00647008
-0.00642165
-0.00636935
-0.00631323
-0.00625334
-0.00618973
-0.00612247
-0.00605161
-0.00597724
-0.00589943
-0.00581826
-0.00573382
-0.0056462
-0.0055555
-0.00546182
-0.00536526
-0.00526594
-0.00516397
-0.00505945
-0.00495251
-0.00484326
-0.00473184
-0.00461835
-0.00450293
-0.0043857
-0.00426679
-0.00414632
-0.00402442
-0.00390121
-0.00377683
-0.0036514
-0.00352503
-0.00339786
-0.00327001
-0.00314159
-0.00301273
-0.00288353
-0.00275412
-0.0026246
-0.00249508
-0.00236567
-0.00223646
-0.00210757
-0.00197908
-0.00185109
-0.00172369
-0.00159696
-0.001471
-0.00134588
-0.00122167
-0.00109846
-0.000976308
-0.000855286
-0.000735457
-0.000616882
-0.000499618
-0.000383719
-0.000269236
-0.000156218
-4.47095e-05
6.52479e-05
0.000173615
0.000280354
0.000385433
0.00048882
0.000590486
0.000690406
0.000788555
0.000884912
0.000979458
0.00107218
0.00116305
0.00125206
0.00133921
0.00142448
0.00150786
0.00158934
0.00166893
0.00174661
0.00182239
0.00189626
0.00196822
0.00203827
0.00210642
0.00217266
0.002237
0.00229944
0.00236
0.00241866
0.00247544
0.00253035
0.00258339
0.00263456
0.00268388
0.00273135
0.00277698
0.00282078
0.00286275
0.0029029
0.00294124
0.00297778
0.00301252
0.00304547
0.00307665
0.00310605
0.00313368
0.00315955
0.00318367
0.00320604
0.00322666
0.00324555
0.0032627
0.00327813
0.00329183
0.00330381
0.00331407
0.00332262
0.00332945
0.00333458
0.003338
0.0033397
-1.15166e-05
-1.29135e-05
-1.57115e-05
-1.99085e-05
-2.55051e-05
-3.25014e-05
-4.08975e-05
-5.06931e-05
-6.18882e-05
-7.44826e-05
-8.8476e-05
-0.000103868
-0.000120659
-0.000138847
-0.000158433
-0.000179416
-0.000201795
-0.00022557
-0.000250739
-0.000277302
-0.000305257
-0.000334604
-0.00036534
-0.000397464
-0.000430975
-0.000465869
-0.000502146
-0.000539801
-0.000578833
-0.000619238
-0.000661012
-0.000704152
-0.000748654
-0.000794512
-0.000841722
-0.000890278
-0.000940174
-0.000991404
-0.00104396
-0.00109783
-0.00115302
-0.00120951
-0.00126728
-0.00132634
-0.00138667
-0.00144826
-0.00151109
-0.00157516
-0.00164044
-0.00170693
-0.0017746
-0.00184343
-0.00191342
-0.00198453
-0.00205675
-0.00213006
-0.00220442
-0.00227983
-0.00235624
-0.00243363
-0.00251198
-0.00259125
-0.00267141
-0.00275242
-0.00283426
-0.00291687
-0.00300022
-0.00308428
-0.00316899
-0.00325432
-0.00334021
-0.00342661
-0.00351348
-0.00360076
-0.0036884
-0.00377634
-0.00386451
-0.00395286
-0.00404133
-0.00412984
-0.00421832
-0.00430672
-0.00439494
-0.00448293
-0.0045706
-0.00465787
-0.00474465
-0.00483088
-0.00491645
-0.00500129
-0.0050853
-0.00516839
-0.00525047
-0.00533145
-0.00541122
-0.00548969
-0.00556676
-0.00564234
-0.00571631
-0.00578859
-0.00585906
-0.00592762
-0.00599417
-0.00605862
-0.00612084
-0.00618075
-0.00623824
-0.00629321
-0.00634557
-0.0063952
-0.00644202
-0.00648593
-0.00652685
-0.00656467
-0.00659931
-0.00663069
-0.00665873
-0.00668335
-0.00670448
-0.00672204
-0.00673598
-0.00674624
-0.00675275
-0.00675546
-0.00675435
-0.00674935
-0.00674045
-0.00672761
-0.00671081
-0.00669003
-0.00666528
-0.00663653
-0.00660381
-0.00656711
-0.00652645
-0.00648186
-0.00643337
-0.00638101
-0.00632483
-0.00626487
-0.00620119
-0.00613385
-0.00606291
-0.00598845
-0.00591055
-0.00582929
-0.00574475
-0.00565703
-0.00556623
-0.00547244
-0.00537578
-0.00527635
-0.00517426
-0.00506963
-0.00496258
-0.00485322
-0.00474168
-0.00462807
-0.00451254
-0.00439519
-0.00427616
-0.00415558
-0.00403357
-0.00391025
-0.00378576
-0.00366022
-0.00353375
-0.00340647
-0.00327852
-0.00315
-0.00302104
-0.00289175
-0.00276224
-0.00263263
-0.00250302
-0.00237353
-0.00224424
-0.00211527
-0.00198671
-0.00185865
-0.00173118
-0.00160439
-0.00147836
-0.00135318
-0.00122892
-0.00110566
-0.000983455
-0.000862387
-0.000742515
-0.000623899
-0.000506597
-0.000390663
-0.000276149
-0.000163101
-5.15649e-05
5.84172e-05
0.000166806
0.000273566
0.000378663
0.000482066
0.000583746
0.000683678
0.000781838
0.000878204
0.000972756
0.00106548
0.00115636
0.00124537
0.00133252
0.00141779
0.00150117
0.00158265
0.00166224
0.00173991
0.00181569
0.00188955
0.0019615
0.00203155
0.00209969
0.00216592
0.00223026
0.00229269
0.00235324
0.00241189
0.00246866
0.00252356
0.00257659
0.00262775
0.00267706
0.00272452
0.00277014
0.00281393
0.00285589
0.00289604
0.00293437
0.0029709
0.00300563
0.00303858
0.00306974
0.00309914
0.00312676
0.00315263
0.00317674
0.0031991
0.00321972
0.0032386
0.00325575
0.00327117
0.00328487
0.00329684
0.0033071
0.00331565
0.00332248
0.00332761
0.00333102
0.00333273
-1.92001e-05
-2.05986e-05
-2.33995e-05
-2.76004e-05
-3.32019e-05
-4.02042e-05
-4.86072e-05
-5.84108e-05
-6.96149e-05
-8.22194e-05
-9.62239e-05
-0.000111628
-0.000128432
-0.000146635
-0.000166237
-0.000187237
-0.000209634
-0.000233427
-0.000258617
-0.000285201
-0.000313179
-0.00034255
-0.000373311
-0.000405462
-0.000439
-0.000473924
-0.00051023
-0.000547917
-0.000586982
-0.000627421
-0.00066923
-0.000712407
-0.000756947
-0.000802844
-0.000850095
-0.000898694
-0.000948633
-0.000999908
-0.00105251
-0.00110643
-0.00116167
-0.00121821
-0.00127604
-0.00133515
-0.00139553
-0.00145718
-0.00152007
-0.0015842
-0.00164954
-0.00171609
-0.00178382
-0.00185272
-0.00192278
-0.00199396
-0.00206625
-0.00213963
-0.00221407
-0.00228955
-0.00236604
-0.00244352
-0.00252195
-0.0026013
-0.00268154
-0.00276264
-0.00284456
-0.00292727
-0.00301071
-0.00309486
-0.00317967
-0.00326509
-0.00335108
-0.00343758
-0.00352455
-0.00361194
-0.00369968
-0.00378772
-0.003876
-0.00396446
-0.00405304
-0.00414166
-0.00423026
-0.00431876
-0.0044071
-0.00449521
-0.00458299
-0.00467038
-0.00475728
-0.00484363
-0.00492932
-0.00501428
-0.00509841
-0.00518162
-0.00526382
-0.00534492
-0.00542481
-0.0055034
-0.00558059
-0.00565628
-0.00573038
-0.00580277
-0.00587335
-0.00594203
-0.00600869
-0.00607324
-0.00613558
-0.00619559
-0.00625319
-0.00630826
-0.00636071
-0.00641043
-0.00645735
-0.00650134
-0.00654234
-0.00658023
-0.00661495
-0.0066464
-0.0066745
-0.00669918
-0.00672036
-0.00673797
-0.00675195
-0.00676223
-0.00676877
-0.00677151
-0.0067704
-0.00676541
-0.00675651
-0.00674366
-0.00672685
-0.00670605
-0.00668127
-0.00665248
-0.00661971
-0.00658296
-0.00654225
-0.0064976
-0.00644904
-0.0063966
-0.00634033
-0.00628028
-0.0062165
-0.00614905
-0.00607801
-0.00600343
-0.00592541
-0.00584402
-0.00575935
-0.0056715
-0.00558056
-0.00548663
-0.00538983
-0.00529025
-0.00518801
-0.00508323
-0.00497603
-0.00486651
-0.00475482
-0.00464106
-0.00452537
-0.00440787
-0.00428869
-0.00416795
-0.00404579
-0.00392232
-0.00379768
-0.00367199
-0.00354538
-0.00341797
-0.00328988
-0.00316122
-0.00303213
-0.00290271
-0.00277308
-0.00264335
-0.00251363
-0.00238402
-0.00225463
-0.00212555
-0.00199689
-0.00186874
-0.00174118
-0.0016143
-0.00148819
-0.00136293
-0.0012386
-0.00111526
-0.000992994
-0.000871864
-0.000751934
-0.000633264
-0.000515911
-0.000399931
-0.000285372
-0.000172285
-6.07122e-05
4.93032e-05
0.000157723
0.00026451
0.000369631
0.000473055
0.000574754
0.000674703
0.000772876
0.000869254
0.000963816
0.00105655
0.00114743
0.00123645
0.0013236
0.00140887
0.00149225
0.00157373
0.00165331
0.00173098
0.00180675
0.0018806
0.00195255
0.00202259
0.00209072
0.00215694
0.00222126
0.00228369
0.00234422
0.00240286
0.00245963
0.00251451
0.00256753
0.00261868
0.00266798
0.00271542
0.00276103
0.00280481
0.00284676
0.00288689
0.00292521
0.00296173
0.00299645
0.00302938
0.00306054
0.00308992
0.00311754
0.00314339
0.0031675
0.00318985
0.00321046
0.00322934
0.00324648
0.00326189
0.00327559
0.00328756
0.00329782
0.00330636
0.00331319
0.00331831
0.00332173
0.00332343
-2.88024e-05
-3.02027e-05
-3.30067e-05
-3.72122e-05
-4.28197e-05
-4.98292e-05
-5.82407e-05
-6.80542e-05
-7.92696e-05
-9.18867e-05
-0.000105905
-0.000121325
-0.000138146
-0.000156367
-0.000175988
-0.000197009
-0.000219428
-0.000243246
-0.000268461
-0.000295072
-0.000323079
-0.00035248
-0.000383272
-0.000415456
-0.000449029
-0.000483989
-0.000520333
-0.00055806
-0.000597165
-0.000637647
-0.000679501
-0.000722724
-0.000767311
-0.000813258
-0.00086056
-0.000909212
-0.000959206
-0.00101054
-0.0010632
-0.00111718
-0.00117248
-0.00122908
-0.00128698
-0.00134616
-0.00140661
-0.00146833
-0.00153129
-0.00159549
-0.00166092
-0.00172754
-0.00179536
-0.00186434
-0.00193448
-0.00200575
-0.00207813
-0.0021516
-0.00222614
-0.00230171
-0.0023783
-0.00245588
-0.00253441
-0.00261387
-0.00269422
-0.00277542
-0.00285745
-0.00294027
-0.00302383
-0.0031081
-0.00319302
-0.00327857
-0.00336468
-0.00345131
-0.00353841
-0.00362592
-0.00371379
-0.00380197
-0.00389038
-0.00397898
-0.00406769
-0.00415645
-0.00424519
-0.00433384
-0.00442232
-0.00451057
-0.0045985
-0.00468603
-0.00477309
-0.00485958
-0.00494543
-0.00503053
-0.00511481
-0.00519818
-0.00528053
-0.00536178
-0.00544182
-0.00552056
-0.0055979
-0.00567375
-0.00574798
-0.00582052
-0.00589125
-0.00596007
-0.00602688
-0.00609157
-0.00615404
-0.00621418
-0.0062719
-0.0063271
-0.00637967
-0.00642952
-0.00647654
-0.00652064
-0.00656174
-0.00659974
-0.00663454
-0.00666608
-0.00669426
-0.00671901
-0.00674025
-0.00675792
-0.00677194
-0.00678227
-0.00678884
-0.00679161
-0.00679052
-0.00678554
-0.00677664
-0.00676378
-0.00674695
-0.00672612
-0.0067013
-0.00667247
-0.00663965
-0.00660284
-0.00656205
-0.00651732
-0.00646866
-0.00641613
-0.00635975
-0.00629958
-0.00623568
-0.0061681
-0.00609692
-0.0060222
-0.00594403
-0.00586248
-0.00577765
-0.00568963
-0.00559852
-0.00550442
-0.00540743
-0.00530767
-0.00520524
-0.00510027
-0.00499288
-0.00488317
-0.00477128
-0.00465733
-0.00454144
-0.00442375
-0.00430438
-0.00418345
-0.00406109
-0.00393744
-0.00381262
-0.00368675
-0.00355995
-0.00343236
-0.0033041
-0.00317528
-0.00304602
-0.00291644
-0.00278666
-0.00265678
-0.00252691
-0.00239716
-0.00226764
-0.00213843
-0.00200964
-0.00188137
-0.00175369
-0.00162671
-0.00150049
-0.00137514
-0.00125071
-0.00112728
-0.00100493
-0.000883725
-0.000763721
-0.000644983
-0.000527567
-0.000411527
-0.000296914
-0.000183776
-7.21578e-05
3.78997e-05
0.000146357
0.000253179
0.000358331
0.000461782
0.000563506
0.000663475
0.000761666
0.000858058
0.000952633
0.00104537
0.00113626
0.00122529
0.00131244
0.00139771
0.00148109
0.00156257
0.00164214
0.00171981
0.00179557
0.00186942
0.00194135
0.00201138
0.0020795
0.00214571
0.00221002
0.00227243
0.00233295
0.00239158
0.00244832
0.00250319
0.00255619
0.00260733
0.00265661
0.00270405
0.00274964
0.0027934
0.00283533
0.00287545
0.00291376
0.00295026
0.00298497
0.00301789
0.00304903
0.0030784
0.00310601
0.00313185
0.00315594
0.00317829
0.00319889
0.00321776
0.00323489
0.0032503
0.00326399
0.00327596
0.00328621
0.00329474
0.00330157
0.00330669
0.0033101
0.00331181
-4.03207e-05
-4.17228e-05
-4.45306e-05
-4.87414e-05
-5.43557e-05
-6.13738e-05
-6.97955e-05
-7.96208e-05
-9.08497e-05
-0.000103482
-0.000117517
-0.000132956
-0.000149796
-0.000168039
-0.000187684
-0.00020873
-0.000231177
-0.000255024
-0.000280269
-0.000306913
-0.000334954
-0.000364391
-0.000395222
-0.000427445
-0.00046106
-0.000496063
-0.000532453
-0.000570227
-0.000609382
-0.000649915
-0.000691823
-0.000735101
-0.000779746
-0.000825753
-0.000873116
-0.000921831
-0.000971892
-0.00102329
-0.00107602
-0.00113008
-0.00118545
-0.00124213
-0.0013001
-0.00135937
-0.0014199
-0.00148171
-0.00154476
-0.00160905
-0.00167457
-0.00174129
-0.0018092
-0.00187829
-0.00194853
-0.00201991
-0.0020924
-0.00216598
-0.00224062
-0.00231632
-0.00239302
-0.00247072
-0.00254937
-0.00262896
-0.00270943
-0.00279077
-0.00287294
-0.00295589
-0.00303959
-0.00312399
-0.00320906
-0.00329475
-0.00338101
-0.00346779
-0.00355504
-0.00364271
-0.00373074
-0.00381908
-0.00390766
-0.00399642
-0.00408529
-0.00417422
-0.00426313
-0.00435195
-0.00444061
-0.00452904
-0.00461714
-0.00470485
-0.00479209
-0.00487876
-0.00496479
-0.00505008
-0.00513454
-0.00521809
-0.00530062
-0.00538205
-0.00546228
-0.0055412
-0.00561872
-0.00569474
-0.00576916
-0.00584187
-0.00591278
-0.00598177
-0.00604875
-0.0061136
-0.00617623
-0.00623654
-0.00629442
-0.00634977
-0.00640248
-0.00645247
-0.00649963
-0.00654387
-0.00658509
-0.0066232
-0.00665811
-0.00668975
-0.00671803
-0.00674286
-0.00676418
-0.00678192
-0.00679601
-0.00680639
-0.006813
-0.0068158
-0.00681473
-0.00680976
-0.00680086
-0.00678799
-0.00677114
-0.00675028
-0.00672541
-0.00669653
-0.00666364
-0.00662675
-0.00658588
-0.00654105
-0.00649229
-0.00643963
-0.00638313
-0.00632282
-0.00625877
-0.00619104
-0.00611969
-0.00604479
-0.00596644
-0.0058847
-0.00579968
-0.00571145
-0.00562013
-0.00552582
-0.00542861
-0.00532863
-0.00522598
-0.00512078
-0.00501315
-0.00490321
-0.00479109
-0.0046769
-0.00456079
-0.00444286
-0.00432325
-0.00420209
-0.00407951
-0.00395563
-0.00383058
-0.00370449
-0.00357748
-0.00344968
-0.00332121
-0.00319218
-0.00306273
-0.00293296
-0.00280299
-0.00267292
-0.00254288
-0.00241296
-0.00228327
-0.00215391
-0.00202497
-0.00189655
-0.00176874
-0.00164162
-0.00151528
-0.0013898
-0.00126526
-0.00114173
-0.00101928
-0.00089798
-0.000777887
-0.000659066
-0.000541573
-0.000425462
-0.000310783
-0.000197584
-8.59092e-05
2.41994e-05
0.000132703
0.000239567
0.000344756
0.000448241
0.000549994
0.000649988
0.000748201
0.000844612
0.000939202
0.00103195
0.00112285
0.00121189
0.00129904
0.00138431
0.00146769
0.00154916
0.00162874
0.0017064
0.00178215
0.00185599
0.00192791
0.00199793
0.00206603
0.00213223
0.00219652
0.00225892
0.00231942
0.00237803
0.00243476
0.00248961
0.00254259
0.00259371
0.00264298
0.00269039
0.00273597
0.00277971
0.00282162
0.00286172
0.00290001
0.0029365
0.00297119
0.0030041
0.00303523
0.00306458
0.00309217
0.00311801
0.00314208
0.00316442
0.00318501
0.00320387
0.00322099
0.00323639
0.00325007
0.00326203
0.00327228
0.00328081
0.00328763
0.00329275
0.00329616
0.00329786
-5.37516e-05
-5.51558e-05
-5.79677e-05
-6.21845e-05
-6.78068e-05
-7.48348e-05
-8.32684e-05
-9.31076e-05
-0.000104352
-0.000117002
-0.000131057
-0.000146517
-0.000163381
-0.00018165
-0.000201323
-0.000222398
-0.000244877
-0.000268757
-0.000294039
-0.000320721
-0.000348802
-0.000378281
-0.000409156
-0.000441426
-0.00047509
-0.000510144
-0.000546587
-0.000584417
-0.00062363
-0.000664223
-0.000706194
-0.000749537
-0.000794249
-0.000840326
-0.000887762
-0.000936552
-0.00098669
-0.00103817
-0.00109098
-0.00114512
-0.00120058
-0.00125735
-0.00131542
-0.00137478
-0.00143541
-0.00149732
-0.00156048
-0.00162487
-0.0016905
-0.00175733
-0.00182536
-0.00189456
-0.00196493
-0.00203643
-0.00210904
-0.00218275
-0.00225753
-0.00233336
-0.00241021
-0.00248804
-0.00256684
-0.00264657
-0.0027272
-0.00280869
-0.00289101
-0.00297413
-0.00305799
-0.00314256
-0.0032278
-0.00331366
-0.00340009
-0.00348705
-0.00357448
-0.00366233
-0.00375055
-0.00383907
-0.00392784
-0.00401679
-0.00410587
-0.00419499
-0.0042841
-0.00437313
-0.00446199
-0.00455062
-0.00463893
-0.00472685
-0.0048143
-0.00490118
-0.00498742
-0.00507292
-0.0051576
-0.00524136
-0.00532411
-0.00540576
-0.0054862
-0.00556533
-0.00564307
-0.0057193
-0.00579393
-0.00586685
-0.00593796
-0.00600715
-0.00607433
-0.00613938
-0.00620221
-0.0062627
-0.00632076
-0.00637629
-0.00642918
-0.00647933
-0.00652665
-0.00657104
-0.0066124
-0.00665066
-0.0066857
-0.00671746
-0.00674585
-0.00677079
-0.0067922
-0.00681002
-0.00682418
-0.00683462
-0.00684128
-0.00684412
-0.00684307
-0.00683812
-0.00682922
-0.00681634
-0.00679946
-0.00677856
-0.00675365
-0.0067247
-0.00669174
-0.00665476
-0.00661378
-0.00656883
-0.00651994
-0.00646715
-0.00641049
-0.00635003
-0.0062858
-0.00621788
-0.00614634
-0.00607124
-0.00599267
-0.00591072
-0.00582546
-0.005737
-0.00564543
-0.00555087
-0.00545341
-0.00535316
-0.00525025
-0.00514478
-0.00503688
-0.00492667
-0.00481427
-0.00469981
-0.00458342
-0.00446522
-0.00434534
-0.00422391
-0.00410106
-0.00397691
-0.0038516
-0.00372525
-0.00359799
-0.00346994
-0.00334122
-0.00321196
-0.00308227
-0.00295227
-0.00282208
-0.00269181
-0.00256156
-0.00243144
-0.00230156
-0.00217201
-0.00204289
-0.0019143
-0.00178633
-0.00165906
-0.00153257
-0.00140695
-0.00128228
-0.00115862
-0.00103605
-0.000914639
-0.000794443
-0.000675524
-0.00055794
-0.000441744
-0.000326987
-0.000213716
-0.000101975
8.19369e-06
0.000116753
0.000223665
0.000328899
0.000432424
0.000534212
0.000634237
0.000732476
0.000828909
0.000923517
0.00101628
0.00110719
0.00119624
0.0012834
0.00136867
0.00145205
0.00153352
0.00161308
0.00169074
0.00176648
0.00184031
0.00191222
0.00198222
0.00205031
0.00211649
0.00218077
0.00224315
0.00230363
0.00236222
0.00241893
0.00247376
0.00252672
0.00257782
0.00262706
0.00267446
0.00272001
0.00276373
0.00280563
0.00284571
0.00288398
0.00292045
0.00295512
0.00298801
0.00301912
0.00304846
0.00307603
0.00310185
0.00312591
0.00314823
0.00316881
0.00318766
0.00320477
0.00322017
0.00323384
0.00324579
0.00325603
0.00326456
0.00327137
0.00327649
0.0032799
0.0032816
-6.90914e-05
-7.04978e-05
-7.33143e-05
-7.7538e-05
-8.31693e-05
-9.02086e-05
-9.86558e-05
-0.000108511
-0.000119773
-0.000132444
-0.000146521
-0.000162006
-0.000178897
-0.000197195
-0.0002169
-0.00023801
-0.000260524
-0.000284444
-0.000309767
-0.000336492
-0.000364619
-0.000394147
-0.000425073
-0.000457397
-0.000491116
-0.00052623
-0.000562734
-0.000600628
-0.000639907
-0.00068057
-0.000722612
-0.00076603
-0.00081082
-0.000856977
-0.000904496
-0.000953372
-0.0010036
-0.00105517
-0.00110808
-0.00116232
-0.00121787
-0.00127475
-0.00133292
-0.00139239
-0.00145314
-0.00151516
-0.00157844
-0.00164296
-0.00170871
-0.00177567
-0.00184383
-0.00191317
-0.00198367
-0.00205532
-0.00212808
-0.00220194
-0.00227687
-0.00235285
-0.00242986
-0.00250786
-0.00258682
-0.00266672
-0.00274753
-0.00282919
-0.0029117
-0.00299499
-0.00307904
-0.0031638
-0.00324924
-0.00333529
-0.00342193
-0.00350909
-0.00359673
-0.00368479
-0.00377322
-0.00386196
-0.00395095
-0.00404012
-0.00412942
-0.00421877
-0.00430811
-0.00439737
-0.00448647
-0.00457534
-0.00466389
-0.00475205
-0.00483974
-0.00492687
-0.00501335
-0.0050991
-0.00518403
-0.00526803
-0.00535103
-0.00543292
-0.00551361
-0.00559299
-0.00567097
-0.00574745
-0.00582232
-0.00589548
-0.00596682
-0.00603625
-0.00610366
-0.00616894
-0.00623198
-0.00629269
-0.00635097
-0.0064067
-0.00645979
-0.00651013
-0.00655764
-0.0066022
-0.00664374
-0.00668215
-0.00671735
-0.00674925
-0.00677776
-0.00680282
-0.00682434
-0.00684226
-0.0068565
-0.00686701
-0.00687373
-0.00687661
-0.0068756
-0.00687066
-0.00686175
-0.00684886
-0.00683195
-0.00681102
-0.00678604
-0.00675703
-0.00672397
-0.00668689
-0.0066458
-0.00660072
-0.00655169
-0.00649873
-0.0064419
-0.00638125
-0.00631682
-0.00624869
-0.00617692
-0.00610159
-0.00602278
-0.00594057
-0.00585504
-0.00576631
-0.00567447
-0.00557961
-0.00548186
-0.00538131
-0.00527809
-0.00517232
-0.00506411
-0.00495358
-0.00484087
-0.00472609
-0.00460938
-0.00449087
-0.00437067
-0.00424893
-0.00412577
-0.00400132
-0.0038757
-0.00374906
-0.0036215
-0.00349316
-0.00336416
-0.00323463
-0.00310467
-0.00297442
-0.00284397
-0.00271345
-0.00258296
-0.00245261
-0.00232251
-0.00219275
-0.00206343
-0.00193464
-0.00180648
-0.00167903
-0.00155237
-0.00142659
-0.00130177
-0.00117797
-0.00105526
-0.000933718
-0.000813401
-0.000694369
-0.00057668
-0.000460387
-0.000345539
-0.000232184
-0.000120367
-1.01276e-05
9.84951e-05
0.000205466
0.000310752
0.000414323
0.000516151
0.000616212
0.000714482
0.000810942
0.000905572
0.000998356
0.00108928
0.00117833
0.0012655
0.00135078
0.00143415
0.00151562
0.00159518
0.00167283
0.00174856
0.00182238
0.00189428
0.00196426
0.00203234
0.0020985
0.00216276
0.00222512
0.00228558
0.00234415
0.00240083
0.00245564
0.00250858
0.00255966
0.00260888
0.00265625
0.00270178
0.00274547
0.00278735
0.0028274
0.00286565
0.0029021
0.00293675
0.00296962
0.00300071
0.00303003
0.00305759
0.00308339
0.00310744
0.00312974
0.00315031
0.00316914
0.00318624
0.00320162
0.00321528
0.00322723
0.00323746
0.00324598
0.0032528
0.0032579
0.00326131
0.00326301
-8.63357e-05
-8.77446e-05
-9.0566e-05
-9.47974e-05
-0.000100439
-0.000107491
-0.000115953
-0.000125826
-0.000137109
-0.000149802
-0.000163905
-0.000179418
-0.00019634
-0.000214671
-0.000234412
-0.00025556
-0.000278116
-0.000302079
-0.000327449
-0.000354223
-0.000382403
-0.000411985
-0.000442969
-0.000475354
-0.000509137
-0.000544316
-0.00058089
-0.000618856
-0.000658211
-0.000698952
-0.000741075
-0.000784578
-0.000829455
-0.000875703
-0.000923316
-0.000972289
-0.00102262
-0.00107429
-0.00112731
-0.00118166
-0.00123733
-0.00129432
-0.00135261
-0.00141221
-0.00147308
-0.00153524
-0.00159865
-0.00166331
-0.0017292
-0.00179631
-0.00186462
-0.00193411
-0.00200477
-0.00207658
-0.0021495
-0.00222353
-0.00229864
-0.0023748
-0.00245198
-0.00253017
-0.00260932
-0.00268942
-0.00277041
-0.00285228
-0.00293499
-0.00301849
-0.00310275
-0.00318773
-0.00327339
-0.00335967
-0.00344653
-0.00353392
-0.0036218
-0.0037101
-0.00379877
-0.00388775
-0.00397699
-0.00406642
-0.00415597
-0.00424558
-0.00433519
-0.00442471
-0.00451407
-0.00460321
-0.00469203
-0.00478047
-0.00486843
-0.00495584
-0.0050426
-0.00512863
-0.00521383
-0.00529812
-0.0053814
-0.00546357
-0.00554454
-0.0056242
-0.00570246
-0.00577922
-0.00585436
-0.00592779
-0.00599941
-0.0060691
-0.00613677
-0.0062023
-0.0062656
-0.00632656
-0.00638508
-0.00644104
-0.00649436
-0.00654492
-0.00659264
-0.00663741
-0.00667913
-0.00671772
-0.00675309
-0.00678515
-0.00681382
-0.00683901
-0.00686065
-0.00687868
-0.00689302
-0.00690361
-0.00691039
-0.00691332
-0.00691235
-0.00690743
-0.00689853
-0.00688562
-0.00686868
-0.0068477
-0.00682266
-0.00679356
-0.00676041
-0.00672321
-0.00668199
-0.00663676
-0.00658756
-0.00653443
-0.0064774
-0.00641653
-0.00635188
-0.00628351
-0.00621149
-0.0061359