/*--------------------------------*- C++ -*----------------------------------*\
| =========                 |                                                 |
| \\      /  F ield         | OpenFOAM: The Open Source CFD Toolbox           |
|  \\    /   O peration     | Version:  v2012                                 |
|   \\  /    A nd           | Website:  www.openfoam.com                      |
|    \\/     M anipulation  |                                                 |
\*---------------------------------------------------------------------------*/
FoamFile
{
    version     2.0;
    format      ascii;
    class       surfaceScalarField;
    location    "20";
    object      phi;
}
// * * * * * * * * * * * * * * * * * * * * * * * * * * * * * * * * * * * * * //

dimensions      [0 3 -1 0 0 0 0];
oriented        oriented;


internalField   nonuniform List<scalar> 
130560
(
3.16273e-06
-3.16273e-06
6.32558e-06
-3.16285e-06
9.48868e-06
-3.16309e-06
1.26521e-05
-3.16345e-06
1.58161e-05
-3.16394e-06
1.89806e-05
-3.16454e-06
2.21459e-05
-3.16526e-06
2.5312e-05
-3.1661e-06
2.8479e-05
-3.16705e-06
3.16471e-05
-3.16812e-06
3.48164e-05
-3.16929e-06
3.7987e-05
-3.17057e-06
4.1159e-05
-3.17195e-06
4.43324e-05
-3.17343e-06
4.75074e-05
-3.17501e-06
5.06841e-05
-3.17667e-06
5.38625e-05
-3.17843e-06
5.70428e-05
-3.18026e-06
6.02249e-05
-3.18218e-06
6.34091e-05
-3.18416e-06
6.65953e-05
-3.18621e-06
6.97836e-05
-3.18832e-06
7.29741e-05
-3.19048e-06
7.61668e-05
-3.19269e-06
7.93617e-05
-3.19493e-06
8.25589e-05
-3.19721e-06
8.57584e-05
-3.19951e-06
8.89603e-05
-3.20182e-06
9.21644e-05
-3.20414e-06
9.53708e-05
-3.20645e-06
9.85796e-05
-3.20875e-06
0.000101791
-3.21103e-06
0.000105004
-3.21327e-06
0.000108219
-3.21546e-06
0.000111437
-3.2176e-06
0.000114657
-3.21967e-06
0.000117878
-3.22166e-06
0.000121102
-3.22356e-06
0.000124327
-3.22535e-06
0.000127554
-3.22701e-06
0.000130783
-3.22854e-06
0.000134013
-3.22992e-06
0.000137244
-3.23113e-06
0.000140476
-3.23217e-06
0.000143709
-3.233e-06
0.000146943
-3.23361e-06
0.000150177
-3.234e-06
0.000153411
-3.23413e-06
0.000156645
-3.23399e-06
0.000159878
-3.23356e-06
0.000163111
-3.23282e-06
0.000166343
-3.23175e-06
0.000169573
-3.23033e-06
0.000172802
-3.22854e-06
0.000176028
-3.22635e-06
0.000179252
-3.22374e-06
0.000182472
-3.22069e-06
0.00018569
-3.21718e-06
0.000188903
-3.21318e-06
0.000192111
-3.20866e-06
0.000195315
-3.20361e-06
0.000198513
-3.19798e-06
0.000201705
-3.19177e-06
0.00020489
-3.18493e-06
0.000208067
-3.17745e-06
0.000211237
-3.16929e-06
0.000214397
-3.16043e-06
0.000217548
-3.15084e-06
0.000220688
-3.14049e-06
0.000223818
-3.12935e-06
0.000226935
-3.11738e-06
0.00023004
-3.10457e-06
0.00023313
-3.09088e-06
0.000236207
-3.07628e-06
0.000239267
-3.06073e-06
0.000242312
-3.04422e-06
0.000245338
-3.02671e-06
0.000248347
-3.00816e-06
0.000251335
-2.98856e-06
0.000254303
-2.96786e-06
0.000257249
-2.94605e-06
0.000260172
-2.92308e-06
0.000263071
-2.89894e-06
0.000265945
-2.87359e-06
0.000268792
-2.84701e-06
0.000271611
-2.81916e-06
0.000274401
-2.79003e-06
0.00027716
-2.75959e-06
0.000279888
-2.72781e-06
0.000282583
-2.69467e-06
0.000285243
-2.66015e-06
0.000287867
-2.62423e-06
0.000290454
-2.58689e-06
0.000293002
-2.5481e-06
0.00029551
-2.50786e-06
0.000297976
-2.46615e-06
0.000300399
-2.42296e-06
0.000302778
-2.37828e-06
0.00030511
-2.33209e-06
0.000307394
-2.28439e-06
0.000309629
-2.23517e-06
0.000311814
-2.18444e-06
0.000313946
-2.1322e-06
0.000316024
-2.07843e-06
0.000318047
-2.02317e-06
0.000320014
-1.9664e-06
0.000321922
-1.90814e-06
0.00032377
-1.8484e-06
0.000325558
-1.7872e-06
0.000327282
-1.72456e-06
0.000328943
-1.66051e-06
0.000330538
-1.59506e-06
0.000332066
-1.52824e-06
0.000333526
-1.46009e-06
0.000334917
-1.39064e-06
0.000336237
-1.31993e-06
0.000337485
-1.248e-06
0.00033866
-1.17488e-06
0.00033976
-1.10064e-06
0.000340785
-1.02531e-06
0.000341734
-9.48955e-07
0.000342606
-8.71621e-07
0.000343399
-7.93369e-07
0.000344114
-7.14258e-07
0.000344748
-6.34351e-07
0.000345302
-5.53712e-07
0.000345774
-4.72409e-07
0.000346165
-3.9051e-07
0.000346473
-3.08086e-07
0.000346698
-2.25208e-07
0.00034684
-1.41951e-07
0.000346898
-5.83889e-08
0.000346873
2.54023e-08
0.000346764
1.09346e-07
0.00034657
1.93365e-07
0.000346293
2.77383e-07
0.000345931
3.6132e-07
0.000345486
4.45101e-07
0.000344958
5.28647e-07
0.000344346
6.11883e-07
0.000343651
6.94732e-07
0.000342874
7.77119e-07
0.000342015
8.58972e-07
0.000341075
9.40217e-07
0.000340054
1.02078e-06
0.000338953
1.10061e-06
0.000337774
1.17961e-06
0.000336516
1.25774e-06
0.000335181
1.33493e-06
0.00033377
1.41113e-06
0.000332284
1.48626e-06
0.000330723
1.56028e-06
0.00032909
1.63314e-06
0.000327386
1.70479e-06
0.00032561
1.77518e-06
0.000323766
1.84428e-06
0.000321854
1.91203e-06
0.000319876
1.97841e-06
0.000317832
2.04338e-06
0.000315725
2.10691e-06
0.000313556
2.16898e-06
0.000311327
2.22955e-06
0.000309038
2.28862e-06
0.000306692
2.34617e-06
0.00030429
2.40217e-06
0.000301833
2.45662e-06
0.000299324
2.50951e-06
0.000296763
2.56084e-06
0.000294152
2.6106e-06
0.000291493
2.65879e-06
0.000288788
2.70541e-06
0.000286038
2.75048e-06
0.000283244
2.79399e-06
0.000280408
2.83597e-06
0.000277531
2.87641e-06
0.000274616
2.91533e-06
0.000271663
2.95276e-06
0.000268674
2.9887e-06
0.000265651
3.02319e-06
0.000262595
3.05623e-06
0.000259507
3.08785e-06
0.000256389
3.11808e-06
0.000253242
3.14694e-06
0.000250068
3.17446e-06
0.000246867
3.20066e-06
0.000243641
3.22558e-06
0.000240392
3.24925e-06
0.000237121
3.27168e-06
0.000233828
3.29293e-06
0.000230515
3.31301e-06
0.000227183
3.33195e-06
0.000223833
3.3498e-06
0.000220466
3.36658e-06
0.000217084
3.38233e-06
0.000213687
3.39707e-06
0.000210276
3.41085e-06
0.000206852
3.42369e-06
0.000203417
3.43563e-06
0.00019997
3.44671e-06
0.000196513
3.45694e-06
0.000193047
3.46637e-06
0.000189572
3.47503e-06
0.000186089
3.48295e-06
0.000182598
3.49017e-06
0.000179102
3.4967e-06
0.000175599
3.50259e-06
0.000172091
3.50787e-06
0.000168579
3.51256e-06
0.000165062
3.51669e-06
0.000161542
3.5203e-06
0.000158018
3.52341e-06
0.000154492
3.52605e-06
0.000150964
3.52824e-06
0.000147434
3.53002e-06
0.000143903
3.53141e-06
0.00014037
3.53243e-06
0.000136837
3.53311e-06
0.000133304
3.53347e-06
0.00012977
3.53355e-06
0.000126237
3.53335e-06
0.000122704
3.5329e-06
0.000119172
3.53222e-06
0.00011564
3.53134e-06
0.00011211
3.53028e-06
0.000108581
3.52905e-06
0.000105053
3.52767e-06
0.000101527
3.52616e-06
9.80026e-05
3.52454e-06
9.44798e-05
3.52282e-06
9.09587e-05
3.52103e-06
8.74395e-05
3.51918e-06
8.39223e-05
3.51728e-06
8.04069e-05
3.51534e-06
7.68935e-05
3.51338e-06
7.33821e-05
3.51142e-06
6.98727e-05
3.50947e-06
6.63651e-05
3.50753e-06
6.28595e-05
3.50562e-06
5.93558e-05
3.50375e-06
5.58538e-05
3.50193e-06
5.23536e-05
3.50017e-06
4.88552e-05
3.49848e-06
4.53583e-05
3.49686e-06
4.1863e-05
3.49533e-06
3.83691e-05
3.49389e-06
3.48765e-05
3.49255e-06
3.13852e-05
3.49131e-06
2.78951e-05
3.49017e-06
2.44059e-05
3.48916e-06
2.09176e-05
3.48826e-06
1.74302e-05
3.48748e-06
1.39433e-05
3.48682e-06
1.0457e-05
3.4863e-06
6.97114e-06
3.4859e-06
3.4855e-06
3.48564e-06
3.4855e-06
3.16261e-06
-6.32535e-06
6.32535e-06
-6.32558e-06
9.48832e-06
-6.32607e-06
1.26517e-05
-6.32679e-06
1.58155e-05
-6.32776e-06
1.89799e-05
-6.32897e-06
2.21451e-05
-6.33041e-06
2.5311e-05
-6.33209e-06
2.8478e-05
-6.334e-06
3.1646e-05
-6.33613e-06
3.48152e-05
-6.33847e-06
3.79856e-05
-6.34103e-06
4.11575e-05
-6.3438e-06
4.43308e-05
-6.34677e-06
4.75058e-05
-6.34992e-06
5.06823e-05
-6.35326e-06
5.38607e-05
-6.35678e-06
5.70409e-05
-6.36045e-06
6.0223e-05
-6.36428e-06
6.34071e-05
-6.36826e-06
6.65932e-05
-6.37236e-06
6.97815e-05
-6.37659e-06
7.29719e-05
-6.38092e-06
7.61646e-05
-6.38534e-06
7.93595e-05
-6.38983e-06
8.25567e-05
-6.39439e-06
8.57562e-05
-6.399e-06
8.8958e-05
-6.40363e-06
9.21621e-05
-6.40828e-06
9.53686e-05
-6.41291e-06
9.85774e-05
-6.41752e-06
0.000101788
-6.42209e-06
0.000105002
-6.42658e-06
0.000108217
-6.43099e-06
0.000111435
-6.43528e-06
0.000114655
-6.43943e-06
0.000117876
-6.44342e-06
0.0001211
-6.44722e-06
0.000124326
-6.45081e-06
0.000127553
-6.45416e-06
0.000130781
-6.45724e-06
0.000134012
-6.46001e-06
0.000137243
-6.46245e-06
0.000140475
-6.46453e-06
0.000143708
-6.46621e-06
0.000146942
-6.46746e-06
0.000150177
-6.46825e-06
0.000153411
-6.46853e-06
0.000156645
-6.46827e-06
0.000159879
-6.46743e-06
0.000163112
-6.46597e-06
0.000166344
-6.46385e-06
0.000169575
-6.46103e-06
0.000172804
-6.45747e-06
0.000176031
-6.45312e-06
0.000179255
-6.44793e-06
0.000182476
-6.44186e-06
0.000185694
-6.43485e-06
0.000188907
-6.42687e-06
0.000192117
-6.41787e-06
0.000195321
-6.40778e-06
0.000198519
-6.39656e-06
0.000201712
-6.38416e-06
0.000204897
-6.37051e-06
0.000208075
-6.35558e-06
0.000211245
-6.33929e-06
0.000214407
-6.3216e-06
0.000217558
-6.30245e-06
0.0002207
-6.28177e-06
0.00022383
-6.25951e-06
0.000226948
-6.23562e-06
0.000230053
-6.21002e-06
0.000233145
-6.18267e-06
0.000236222
-6.15349e-06
0.000239284
-6.12244e-06
0.000242329
-6.08944e-06
0.000245357
-6.05445e-06
0.000248366
-6.01739e-06
0.000251356
-5.97821e-06
0.000254325
-5.93685e-06
0.000257272
-5.89324e-06
0.000260196
-5.84734e-06
0.000263096
-5.79908e-06
0.000265971
-5.74841e-06
0.00026882
-5.69527e-06
0.00027164
-5.63961e-06
0.000274431
-5.58138e-06
0.000277192
-5.52052e-06
0.000279921
-5.45698e-06
0.000282618
-5.39073e-06
0.000285279
-5.32171e-06
0.000287905
-5.24988e-06
0.000290493
-5.17521e-06
0.000293043
-5.09766e-06
0.000295552
-5.0172e-06
0.00029802
-4.93379e-06
0.000300444
-4.84742e-06
0.000302824
-4.75805e-06
0.000305157
-4.66568e-06
0.000307443
-4.57029e-06
0.00030968
-4.47186e-06
0.000311866
-4.3704e-06
0.000314
-4.2659e-06
0.00031608
-4.15838e-06
0.000318104
-4.04783e-06
0.000320072
-3.93428e-06
0.000321982
-3.81775e-06
0.000323832
-3.69826e-06
0.00032562
-3.57585e-06
0.000327346
-3.45055e-06
0.000329008
-3.32241e-06
0.000330605
-3.19148e-06
0.000332134
-3.05782e-06
0.000333596
-2.92148e-06
0.000334987
-2.78255e-06
0.000336309
-2.64108e-06
0.000337558
-2.49717e-06
0.000338734
-2.3509e-06
0.000339836
-2.20236e-06
0.000340862
-2.05166e-06
0.000341812
-1.89889e-06
0.000342684
-1.74416e-06
0.000343479
-1.5876e-06
0.000344194
-1.42931e-06
0.000344829
-1.26943e-06
0.000345383
-1.10809e-06
0.000345856
-9.45416e-07
0.000346247
-7.81547e-07
0.000346556
-6.16627e-07
0.000346781
-4.50798e-07
0.000346924
-2.84209e-07
0.000346982
-1.17009e-07
0.000346957
5.06498e-08
0.000346848
2.18614e-07
0.000346654
3.8673e-07
0.000346377
5.54842e-07
0.000346015
7.22795e-07
0.00034557
8.90433e-07
0.000345041
1.0576e-06
0.000344429
1.22415e-06
0.000343734
1.38992e-06
0.000342956
1.55477e-06
0.000342096
1.71855e-06
0.000341155
1.88111e-06
0.000340134
2.04231e-06
0.000339033
2.20202e-06
0.000337852
2.3601e-06
0.000336593
2.51643e-06
0.000335257
2.67087e-06
0.000333845
2.82331e-06
0.000332358
2.97363e-06
0.000330796
3.12173e-06
0.000329162
3.2675e-06
0.000327456
3.41084e-06
0.00032568
3.55167e-06
0.000323834
3.68989e-06
0.000321921
3.82543e-06
0.000319941
3.95822e-06
0.000317896
4.08819e-06
0.000315788
4.21528e-06
0.000313617
4.33944e-06
0.000311386
4.46061e-06
0.000309096
4.57877e-06
0.000306748
4.69387e-06
0.000304344
4.80589e-06
0.000301886
4.9148e-06
0.000299375
5.02059e-06
0.000296813
5.12324e-06
0.000294201
5.22276e-06
0.00029154
5.31914e-06
0.000288833
5.41239e-06
0.000286081
5.50251e-06
0.000283286
5.58953e-06
0.000280448
5.67346e-06
0.00027757
5.75433e-06
0.000274653
5.83217e-06
0.000271699
5.907e-06
0.000268709
5.97887e-06
0.000265684
6.04781e-06
0.000262627
6.11387e-06
0.000259538
6.17709e-06
0.000256418
6.23753e-06
0.00025327
6.29522e-06
0.000250094
6.35023e-06
0.000246892
6.40261e-06
0.000243665
6.45242e-06
0.000240415
6.49972e-06
0.000237142
6.54456e-06
0.000233848
6.58702e-06
0.000230534
6.62714e-06
0.000227201
6.66501e-06
0.00022385
6.70067e-06
0.000220482
6.7342e-06
0.000217099
6.76566e-06
0.000213701
6.79512e-06
0.000210289
6.82264e-06
0.000206864
6.84829e-06
0.000203428
6.87214e-06
0.00019998
6.89425e-06
0.000196523
6.91469e-06
0.000193055
6.93352e-06
0.00018958
6.95081e-06
0.000186096
6.96662e-06
0.000182605
6.98101e-06
0.000179108
6.99405e-06
0.000175605
7.0058e-06
0.000172096
7.01632e-06
0.000168583
7.02568e-06
0.000165066
7.03392e-06
0.000161545
7.0411e-06
0.000158021
7.04729e-06
0.000154495
7.05254e-06
0.000150966
7.05691e-06
0.000147436
7.06044e-06
0.000143904
7.06318e-06
0.000140371
7.0652e-06
0.000136838
7.06654e-06
0.000133304
7.06724e-06
0.00012977
7.06736e-06
0.000126236
7.06694e-06
0.000122703
7.06603e-06
0.000119171
7.06466e-06
0.000115639
7.06287e-06
0.000112109
7.06072e-06
0.00010858
7.05824e-06
0.000105052
7.05546e-06
0.000101526
7.05243e-06
9.80009e-05
7.04917e-06
9.4478e-05
7.04573e-06
9.09569e-05
7.04213e-06
8.74377e-05
7.03841e-06
8.39204e-05
7.03459e-06
8.0405e-05
7.0307e-06
7.68917e-05
7.02678e-06
7.33802e-05
7.02284e-06
6.98708e-05
7.01892e-06
6.63633e-05
7.01503e-06
6.28577e-05
7.0112e-06
5.9354e-05
7.00746e-06
5.58521e-05
7.00381e-06
5.2352e-05
7.00028e-06
4.88536e-05
6.99689e-06
4.53568e-05
6.99365e-06
4.18616e-05
6.99058e-06
3.83678e-05
6.98769e-06
3.48753e-05
6.98499e-06
3.13841e-05
6.98251e-06
2.78941e-05
6.98024e-06
2.4405e-05
6.9782e-06
2.09169e-05
6.97639e-06
1.74295e-05
6.97483e-06
1.39428e-05
6.97352e-06
1.04567e-05
6.97247e-06
6.97088e-06
6.97168e-06
3.48537e-06
6.97114e-06
6.97088e-06
3.16237e-06
-9.48772e-06
6.32486e-06
-9.48808e-06
9.4876e-06
-9.4888e-06
1.26507e-05
-9.48989e-06
1.58143e-05
-9.49135e-06
1.89785e-05
-9.49316e-06
2.21434e-05
-9.49533e-06
2.53092e-05
-9.49786e-06
2.84759e-05
-9.50072e-06
3.16437e-05
-9.50392e-06
3.48127e-05
-9.50745e-06
3.79829e-05
-9.5113e-06
4.11546e-05
-9.51546e-06
4.43277e-05
-9.51991e-06
4.75025e-05
-9.52466e-06
5.06789e-05
-9.52968e-06
5.38571e-05
-9.53496e-06
5.70371e-05
-9.54049e-06
6.02191e-05
-9.54625e-06
6.3403e-05
-9.55223e-06
6.65891e-05
-9.5584e-06
6.97772e-05
-9.56475e-06
7.29676e-05
-9.57126e-06
7.61602e-05
-9.57791e-06
7.9355e-05
-9.58468e-06
8.25521e-05
-9.59154e-06
8.57516e-05
-9.59846e-06
8.89534e-05
-9.60544e-06
9.21576e-05
-9.61243e-06
9.53641e-05
-9.61941e-06
9.85729e-05
-9.62635e-06
0.000101784
-9.63322e-06
0.000104997
-9.63999e-06
0.000108213
-9.64662e-06
0.000111431
-9.65309e-06
0.000114651
-9.65935e-06
0.000117873
-9.66537e-06
0.000121097
-9.67111e-06
0.000124322
-9.67653e-06
0.00012755
-9.68158e-06
0.000130779
-9.68623e-06
0.000134009
-9.69043e-06
0.000137241
-9.69414e-06
0.000140474
-9.6973e-06
0.000143707
-9.69986e-06
0.000146942
-9.70178e-06
0.000150176
-9.703e-06
0.000153411
-9.70347e-06
0.000156646
-9.70313e-06
0.000159881
-9.70192e-06
0.000163114
-9.69978e-06
0.000166347
-9.69666e-06
0.000169579
-9.69248e-06
0.000172808
-9.68719e-06
0.000176036
-9.68072e-06
0.000179261
-9.67299e-06
0.000182483
-9.66395e-06
0.000185702
-9.65351e-06
0.000188917
-9.6416e-06
0.000192127
-9.62815e-06
0.000195332
-9.61309e-06
0.000198532
-9.59632e-06
0.000201726
-9.57778e-06
0.000204912
-9.55739e-06
0.000208092
-9.53505e-06
0.000211263
-9.5107e-06
0.000214426
-9.48423e-06
0.000217579
-9.45557e-06
0.000220722
-9.42463e-06
0.000223854
-9.39132e-06
0.000226974
-9.35555e-06
0.000230081
-9.31723e-06
0.000233174
-9.27627e-06
0.000236254
-9.23259e-06
0.000239317
-9.18608e-06
0.000242364
-9.13667e-06
0.000245394
-9.08425e-06
0.000248406
-9.02873e-06
0.000251397
-8.97004e-06
0.000254369
-8.90807e-06
0.000257318
-8.84274e-06
0.000260245
-8.77396e-06
0.000263147
-8.70164e-06
0.000266025
-8.62571e-06
0.000268875
-8.54606e-06
0.000271698
-8.46264e-06
0.000274492
-8.37535e-06
0.000277256
-8.28411e-06
0.000279988
-8.18887e-06
0.000282687
-8.08954e-06
0.000285351
-7.98606e-06
0.00028798
-7.87838e-06
0.000290571
-7.76642e-06
0.000293123
-7.65013e-06
0.000295635
-7.52947e-06
0.000298106
-7.40439e-06
0.000300534
-7.27486e-06
0.000302916
-7.14084e-06
0.000305253
-7.00229e-06
0.000307542
-6.85921e-06
0.000309782
-6.71158e-06
0.000311971
-6.55939e-06
0.000314107
-6.40264e-06
0.00031619
-6.24134e-06
0.000318218
-6.0755e-06
0.000320189
-5.90515e-06
0.000322101
-5.73031e-06
0.000323954
-5.55104e-06
0.000325746
-5.36737e-06
0.000327475
-5.17937e-06
0.000329139
-4.9871e-06
0.000330738
-4.79064e-06
0.000332271
-4.59006e-06
0.000333735
-4.38548e-06
0.000335129
-4.17698e-06
0.000336453
-3.96468e-06
0.000337704
-3.74871e-06
0.000338882
-3.52919e-06
0.000339986
-3.30626e-06
0.000341015
-3.08007e-06
0.000341967
-2.85077e-06
0.000342841
-2.61854e-06
0.000343637
-2.38354e-06
0.000344354
-2.14596e-06
0.00034499
-1.90598e-06
0.000345546
-1.6638e-06
0.00034602
-1.41962e-06
0.000346412
-1.17364e-06
0.000346722
-9.26076e-07
0.000346948
-6.77149e-07
0.000347091
-4.27079e-07
0.00034715
-1.7609e-07
0.000347125
7.559e-08
0.000347016
3.27729e-07
0.000346822
5.80097e-07
0.000346545
8.32459e-07
0.000346183
1.08458e-06
0.000345737
1.33623e-06
0.000345208
1.58718e-06
0.000344595
1.83719e-06
0.000343899
2.08603e-06
0.00034312
2.33349e-06
0.000342259
2.57934e-06
0.000341317
2.82335e-06
0.000340294
3.06533e-06
0.000339191
3.30506e-06
0.000338008
3.54234e-06
0.000336748
3.77698e-06
0.00033541
4.0088e-06
0.000333996
4.2376e-06
0.000332506
4.46322e-06
0.000330942
4.68549e-06
0.000329306
4.90427e-06
0.000327597
5.1194e-06
0.000325818
5.33075e-06
0.00032397
5.53818e-06
0.000322054
5.74159e-06
0.000320071
5.94085e-06
0.000318023
6.13588e-06
0.000315912
6.32658e-06
0.000313738
6.51288e-06
0.000311504
6.69469e-06
0.000309211
6.87197e-06
0.00030686
7.04466e-06
0.000304454
7.21271e-06
0.000301992
7.3761e-06
0.000299478
7.53479e-06
0.000296913
7.68878e-06
0.000294297
7.83806e-06
0.000291634
7.98262e-06
0.000288924
8.12248e-06
0.000286169
8.25764e-06
0.00028337
8.38815e-06
0.000280529
8.51402e-06
0.000277648
8.63529e-06
0.000274729
8.752e-06
0.000271771
8.8642e-06
0.000268778
8.97196e-06
0.000265751
9.07532e-06
0.00026269
9.17435e-06
0.000259598
9.26913e-06
0.000256476
9.35971e-06
0.000253325
9.44619e-06
0.000250147
9.52864e-06
0.000246942
9.60714e-06
0.000243713
9.68178e-06
0.00024046
9.75265e-06
0.000237185
9.81984e-06
0.000233888
9.88344e-06
0.000230572
9.94355e-06
0.000227237
1.00003e-05
0.000223884
1.00537e-05
0.000220514
1.01039e-05
0.000217129
1.0151e-05
0.000213729
1.01951e-05
0.000210315
1.02363e-05
0.000206888
1.02747e-05
0.00020345
1.03104e-05
0.000200001
1.03435e-05
0.000196542
1.0374e-05
0.000193073
1.04022e-05
0.000189596
1.04281e-05
0.000186111
1.04517e-05
0.000182618
1.04732e-05
0.00017912
1.04927e-05
0.000175615
1.05102e-05
0.000172106
1.0526e-05
0.000168591
1.05399e-05
0.000165073
1.05522e-05
0.000161551
1.05629e-05
0.000158027
1.05721e-05
0.000154499
1.05799e-05
0.00015097
1.05864e-05
0.000147439
1.05916e-05
0.000143906
1.05957e-05
0.000140373
1.05987e-05
0.000136838
1.06006e-05
0.000133304
1.06016e-05
0.00012977
1.06017e-05
0.000126236
1.0601e-05
0.000122702
1.05996e-05
0.000119169
1.05975e-05
0.000115637
1.05948e-05
0.000112107
1.05915e-05
0.000108577
1.05877e-05
0.000105049
1.05835e-05
0.000101523
1.05789e-05
9.79977e-05
1.0574e-05
9.44746e-05
1.05688e-05
9.09534e-05
1.05634e-05
8.74341e-05
1.05577e-05
8.39167e-05
1.0552e-05
8.04013e-05
1.05461e-05
7.68879e-05
1.05402e-05
7.33764e-05
1.05343e-05
6.9867e-05
1.05283e-05
6.63596e-05
1.05225e-05
6.28541e-05
1.05167e-05
5.93505e-05
1.05111e-05
5.58487e-05
1.05056e-05
5.23487e-05
1.05003e-05
4.88504e-05
1.04951e-05
4.53538e-05
1.04903e-05
4.18588e-05
1.04856e-05
3.83652e-05
1.04813e-05
3.48729e-05
1.04772e-05
3.13819e-05
1.04735e-05
2.78921e-05
1.04701e-05
2.44033e-05
1.0467e-05
2.09154e-05
1.04643e-05
1.74283e-05
1.04619e-05
1.39418e-05
1.046e-05
1.04559e-05
1.04584e-05
6.97036e-06
1.04572e-05
3.48511e-06
1.04564e-05
1.0456e-05
3.16201e-06
-1.26497e-05
6.32414e-06
-1.26502e-05
9.48651e-06
-1.26512e-05
1.26493e-05
-1.26526e-05
1.58125e-05
-1.26546e-05
1.89763e-05
-1.2657e-05
2.21409e-05
-1.26599e-05
2.53063e-05
-1.26633e-05
2.84727e-05
-1.26671e-05
3.16402e-05
-1.26714e-05
3.48089e-05
-1.26761e-05
3.79788e-05
-1.26813e-05
4.11502e-05
-1.26868e-05
4.4323e-05
-1.26928e-05
4.74975e-05
-1.26991e-05
5.06737e-05
-1.27058e-05
5.38516e-05
-1.27129e-05
5.70314e-05
-1.27203e-05
6.02132e-05
-1.2728e-05
6.3397e-05
-1.2736e-05
6.65828e-05
-1.27443e-05
6.97708e-05
-1.27528e-05
7.2961e-05
-1.27615e-05
7.61535e-05
-1.27704e-05
7.93482e-05
-1.27794e-05
8.25453e-05
-1.27886e-05
8.57448e-05
-1.27979e-05
8.89465e-05
-1.28072e-05
9.21507e-05
-1.28166e-05
9.53572e-05
-1.28259e-05
9.85661e-05
-1.28352e-05
0.000101777
-1.28445e-05
0.000104991
-1.28535e-05
0.000108207
-1.28624e-05
0.000111425
-1.28711e-05
0.000114645
-1.28795e-05
0.000117867
-1.28876e-05
0.000121091
-1.28953e-05
0.000124317
-1.29026e-05
0.000127545
-1.29094e-05
0.000130775
-1.29157e-05
0.000134006
-1.29214e-05
0.000137238
-1.29264e-05
0.000140471
-1.29307e-05
0.000143706
-1.29342e-05
0.000146941
-1.29368e-05
0.000150176
-1.29385e-05
0.000153412
-1.29392e-05
0.000156648
-1.29389e-05
0.000159883
-1.29373e-05
0.000163118
-1.29346e-05
0.000166352
-1.29305e-05
0.000169584
-1.29251e-05
0.000172815
-1.29181e-05
0.000176044
-1.29096e-05
0.00017927
-1.28994e-05
0.000182494
-1.28874e-05
0.000185714
-1.28736e-05
0.00018893
-1.28579e-05
0.000192142
-1.28401e-05
0.000195349
-1.28201e-05
0.000198551
-1.27979e-05
0.000201746
-1.27733e-05
0.000204935
-1.27462e-05
0.000208116
-1.27166e-05
0.00021129
-1.26842e-05
0.000214455
-1.26491e-05
0.00021761
-1.2611e-05
0.000220755
-1.25699e-05
0.00022389
-1.25256e-05
0.000227012
-1.2478e-05
0.000230122
-1.24271e-05
0.000233218
-1.23726e-05
0.0002363
-1.23145e-05
0.000239367
-1.22526e-05
0.000242417
-1.21869e-05
0.00024545
-1.21171e-05
0.000248465
-1.20433e-05
0.00025146
-1.19651e-05
0.000254434
-1.18827e-05
0.000257387
-1.17957e-05
0.000260317
-1.17041e-05
0.000263223
-1.16078e-05
0.000266104
-1.15067e-05
0.000268959
-1.14006e-05
0.000271786
-1.12895e-05
0.000274584
-1.11733e-05
0.000277351
-1.10517e-05
0.000280087
-1.09248e-05
0.00028279
-1.07925e-05
0.000285459
-1.06546e-05
0.000288092
-1.05111e-05
0.000290687
-1.03619e-05
0.000293244
-1.0207e-05
0.000295761
-1.00462e-05
0.000298236
-9.87945e-06
0.000300668
-9.70679e-06
0.000303055
-9.52813e-06
0.000305396
-9.34344e-06
0.00030769
-9.15269e-06
0.000309934
-8.95586e-06
0.000312128
-8.75294e-06
0.000314269
-8.54393e-06
0.000316356
-8.32883e-06
0.000318388
-8.10768e-06
0.000320364
-7.88049e-06
0.000322281
-7.64732e-06
0.000324138
-7.40821e-06
0.000325934
-7.16323e-06
0.000327667
-6.91246e-06
0.000329336
-6.65598e-06
0.000330939
-6.3939e-06
0.000332475
-6.12632e-06
0.000333943
-5.85338e-06
0.000335341
-5.57521e-06
0.000336669
-5.29196e-06
0.000337924
-5.00379e-06
0.000339106
-4.71088e-06
0.000340213
-4.4134e-06
0.000341244
-4.11158e-06
0.000342199
-3.8056e-06
0.000343076
-3.49568e-06
0.000343875
-3.18208e-06
0.000344594
-2.86501e-06
0.000345232
-2.54473e-06
0.00034579
-2.22151e-06
0.000346266
-1.89561e-06
0.00034666
-1.56731e-06
0.000346971
-1.23689e-06
0.000347198
-9.04646e-07
0.000347342
-5.70869e-07
0.000347402
-2.35863e-07
0.000347377
1.00068e-07
0.000347268
4.36614e-07
0.000347075
7.73466e-07
0.000346797
1.11031e-06
0.000346435
1.44684e-06
0.000345988
1.78273e-06
0.000345458
2.11768e-06
0.000344844
2.45138e-06
0.000344146
2.78353e-06
0.000343366
3.11381e-06
0.000342503
3.44195e-06
0.000341559
3.76763e-06
0.000340534
4.09059e-06
0.000339428
4.41054e-06
0.000338243
4.72722e-06
0.00033698
5.04037e-06
0.000335639
5.34973e-06
0.000334222
5.65506e-06
0.000332729
5.95615e-06
0.000331161
6.25275e-06
0.000329521
6.54468e-06
0.000327809
6.83174e-06
0.000326026
7.11373e-06
0.000324173
7.39049e-06
0.000322253
7.66187e-06
0.000320266
7.92772e-06
0.000318214
8.18789e-06
0.000316098
8.44229e-06
0.000313921
8.69079e-06
0.000311682
8.93331e-06
0.000309384
9.16976e-06
0.000307029
9.40007e-06
0.000304617
9.62419e-06
0.000302151
9.84208e-06
0.000299632
1.00537e-05
0.000297062
1.0259e-05
0.000294442
1.04581e-05
0.000291774
1.06508e-05
0.000289059
1.08373e-05
0.000286299
1.10174e-05
0.000283496
1.11914e-05
0.000280651
1.13592e-05
0.000277765
1.15208e-05
0.000274841
1.16763e-05
0.000271879
1.18259e-05
0.000268882
1.19694e-05
0.00026585
1.21072e-05
0.000262785
1.22391e-05
0.000259689
1.23653e-05
0.000256563
1.2486e-05
0.000253408
1.26012e-05
0.000250226
1.2711e-05
0.000247017
1.28155e-05
0.000243784
1.29149e-05
0.000240527
1.30093e-05
0.000237249
1.30987e-05
0.000233949
1.31833e-05
0.000230629
1.32633e-05
0.00022729
1.33388e-05
0.000223934
1.34099e-05
0.000220561
1.34767e-05
0.000217173
1.35393e-05
0.00021377
1.3598e-05
0.000210354
1.36528e-05
0.000206925
1.37038e-05
0.000203484
1.37512e-05
0.000200032
1.37952e-05
0.00019657
1.38358e-05
0.000193099
1.38732e-05
0.00018962
1.39075e-05
0.000186133
1.39389e-05
0.000182638
1.39674e-05
0.000179138
1.39933e-05
0.000175631
1.40165e-05
0.00017212
1.40373e-05
0.000168604
1.40558e-05
0.000165084
1.40721e-05
0.000161561
1.40862e-05
0.000158035
1.40984e-05
0.000154506
1.41086e-05
0.000150975
1.41172e-05
0.000147443
1.4124e-05
0.000143909
1.41293e-05
0.000140375
1.41331e-05
0.00013684
1.41356e-05
0.000133305
1.41368e-05
0.000129769
1.41369e-05
0.000126235
1.41359e-05
0.0001227
1.41339e-05
0.000119167
1.4131e-05
0.000115634
1.41272e-05
0.000112103
1.41228e-05
0.000108573
1.41177e-05
0.000105045
1.4112e-05
0.000101518
1.41058e-05
9.79927e-05
1.40991e-05
9.44694e-05
1.40921e-05
9.0948e-05
1.40848e-05
8.74285e-05
1.40772e-05
8.39111e-05
1.40695e-05
8.03956e-05
1.40616e-05
7.68821e-05
1.40536e-05
7.33707e-05
1.40457e-05
6.98614e-05
1.40377e-05
6.6354e-05
1.40299e-05
6.28486e-05
1.40221e-05
5.93451e-05
1.40145e-05
5.58435e-05
1.40072e-05
5.23437e-05
1.4e-05
4.88457e-05
1.39932e-05
4.53493e-05
1.39866e-05
4.18545e-05
1.39804e-05
3.83612e-05
1.39746e-05
3.48693e-05
1.39692e-05
3.13786e-05
1.39642e-05
2.78891e-05
1.39596e-05
2.44006e-05
1.39555e-05
2.09131e-05
1.39518e-05
1.74263e-05
1.39487e-05
1.39403e-05
1.39461e-05
1.04547e-05
1.39439e-05
6.96958e-06
1.39423e-05
3.48472e-06
1.39413e-05
1.39407e-05
3.16152e-06
-1.58112e-05
6.32316e-06
-1.58119e-05
9.48506e-06
-1.58131e-05
1.26473e-05
-1.58149e-05
1.58101e-05
-1.58173e-05
1.89735e-05
-1.58204e-05
2.21376e-05
-1.5824e-05
2.53026e-05
-1.58283e-05
2.84685e-05
-1.58331e-05
3.16355e-05
-1.58384e-05
3.48038e-05
-1.58443e-05
3.79733e-05
-1.58508e-05
4.11443e-05
-1.58578e-05
4.43168e-05
-1.58653e-05
4.74909e-05
-1.58732e-05
5.06667e-05
-1.58817e-05
5.38443e-05
-1.58905e-05
5.70238e-05
-1.58998e-05
6.02053e-05
-1.59095e-05
6.33888e-05
-1.59195e-05
6.65744e-05
-1.59299e-05
6.97622e-05
-1.59406e-05
7.29523e-05
-1.59515e-05
7.61446e-05
-1.59627e-05
7.93392e-05
-1.59741e-05
8.25362e-05
-1.59856e-05
8.57356e-05
-1.59973e-05
8.89373e-05
-1.6009e-05
9.21415e-05
-1.60208e-05
9.53481e-05
-1.60325e-05
9.85571e-05
-1.60442e-05
0.000101768
-1.60558e-05
0.000104982
-1.60673e-05
0.000108198
-1.60785e-05
0.000111417
-1.60894e-05
0.000114637
-1.61e-05
0.00011786
-1.61102e-05
0.000121084
-1.612e-05
0.000124311
-1.61292e-05
0.000127539
-1.61378e-05
0.000130769
-1.61457e-05
0.000134001
-1.61529e-05
0.000137234
-1.61593e-05
0.000140468
-1.61648e-05
0.000143703
-1.61693e-05
0.000146939
-1.61727e-05
0.000150176
-1.6175e-05
0.000153412
-1.61761e-05
0.000156649
-1.61757e-05
0.000159886
-1.6174e-05
0.000163122
-1.61707e-05
0.000166357
-1.61658e-05
0.000169591
-1.61591e-05
0.000172824
-1.61506e-05
0.000176054
-1.61401e-05
0.000179283
-1.61275e-05
0.000182508
-1.61128e-05
0.00018573
-1.60957e-05
0.000188948
-1.60762e-05
0.000192162
-1.60541e-05
0.000195372
-1.60294e-05
0.000198576
-1.60018e-05
0.000201773
-1.59712e-05
0.000204965
-1.59376e-05
0.000208149
-1.59008e-05
0.000211325
-1.58605e-05
0.000214493
-1.58168e-05
0.000217652
-1.57694e-05
0.0002208
-1.57183e-05
0.000223938
-1.56631e-05
0.000227063
-1.56039e-05
0.000230177
-1.55404e-05
0.000233277
-1.54726e-05
0.000236362
-1.54002e-05
0.000239433
-1.53231e-05
0.000242487
-1.52411e-05
0.000245524
-1.51542e-05
0.000248543
-1.5062e-05
0.000251542
-1.49646e-05
0.000254521
-1.48617e-05
0.000257479
-1.47532e-05
0.000260414
-1.4639e-05
0.000263325
-1.45188e-05
0.000266211
-1.43926e-05
0.00026907
-1.42603e-05
0.000271902
-1.41216e-05
0.000274706
-1.39764e-05
0.000277479
-1.38247e-05
0.00028022
-1.36663e-05
0.000282929
-1.3501e-05
0.000285603
-1.33288e-05
0.000288241
-1.31496e-05
0.000290842
-1.29632e-05
0.000293405
-1.27697e-05
0.000295928
-1.25688e-05
0.000298409
-1.23605e-05
0.000300847
-1.21447e-05
0.00030324
-1.19215e-05
0.000305587
-1.16907e-05
0.000307887
-1.14522e-05
0.000310137
-1.12062e-05
0.000312337
-1.09526e-05
0.000314484
-1.06913e-05
0.000316578
-1.04224e-05
0.000318616
-1.01459e-05
0.000320597
-9.86182e-06
0.00032252
-9.57025e-06
0.000324383
-9.27125e-06
0.000326185
-8.96488e-06
0.000327924
-8.65125e-06
0.000329598
-8.33046e-06
0.000331207
-8.00265e-06
0.000332748
-7.66794e-06
0.000334222
-7.32651e-06
0.000335625
-6.97851e-06
0.000336957
-6.62414e-06
0.000338217
-6.26361e-06
0.000339403
-5.89712e-06
0.000340515
-5.52491e-06
0.00034155
-5.14723e-06
0.000342509
-4.76435e-06
0.00034339
-4.37653e-06
0.000344192
-3.98406e-06
0.000344914
-3.58726e-06
0.000345556
-3.18643e-06
0.000346116
-2.7819e-06
0.000346595
-2.37401e-06
0.00034699
-1.9631e-06
0.000347303
-1.54954e-06
0.000347532
-1.13367e-06
0.000347677
-7.15891e-07
0.000347738
-2.96563e-07
0.000347714
1.23927e-07
0.000347605
5.4519e-07
0.000347412
9.66838e-07
0.000347134
1.38848e-06
0.000346771
1.80972e-06
0.000346324
2.23017e-06
0.000345792
2.64943e-06
0.000345176
3.06713e-06
0.000344477
3.48287e-06
0.000343694
3.89629e-06
0.000342829
4.30699e-06
0.000341882
4.71463e-06
0.000340854
5.11885e-06
0.000339745
5.51929e-06
0.000338557
5.91563e-06
0.00033729
6.30753e-06
0.000335945
6.69468e-06
0.000334523
7.07678e-06
0.000333026
7.45354e-06
0.000331454
7.82469e-06
0.000329808
8.18996e-06
0.000328091
8.54912e-06
0.000326303
8.90194e-06
0.000324445
9.24819e-06
0.000322519
9.58768e-06
0.000320527
9.92024e-06
0.000318469
1.02457e-05
0.000316347
1.05639e-05
0.000314163
1.08747e-05
0.000311919
1.1178e-05
0.000309615
1.14737e-05
0.000307253
1.17617e-05
0.000304836
1.20419e-05
0.000302363
1.23143e-05
0.000299838
1.25789e-05
0.000297262
1.28356e-05
0.000294635
1.30844e-05
0.000291961
1.33253e-05
0.00028924
1.35583e-05
0.000286474
1.37835e-05
0.000283664
1.40008e-05