/*--------------------------------*- C++ -*----------------------------------*\
| =========                 |                                                 |
| \\      /  F ield         | OpenFOAM: The Open Source CFD Toolbox           |
|  \\    /   O peration     | Version:  v2012                                 |
|   \\  /    A nd           | Website:  www.openfoam.com                      |
|    \\/     M anipulation  |                                                 |
\*---------------------------------------------------------------------------*/
FoamFile
{
    version     2.0;
    format      ascii;
    class       volVectorField;
    location    "20";
    object      U;
}
// * * * * * * * * * * * * * * * * * * * * * * * * * * * * * * * * * * * * * //

dimensions      [0 1 -1 0 0 0 0];


internalField   nonuniform List<vector> 
65536
(
(0.000644294 -0.000644322 0)
(0.00193293 -0.000644343 0)
(0.00322163 -0.000644395 0)
(0.00451044 -0.000644469 0)
(0.00579944 -0.000644568 0)
(0.00708865 -0.000644691 0)
(0.00837814 -0.000644838 0)
(0.00966794 -0.000645009 0)
(0.0109581 -0.000645203 0)
(0.0122487 -0.000645419 0)
(0.0135397 -0.000645658 0)
(0.0148313 -0.000645918 0)
(0.0161233 -0.000646199 0)
(0.017416 -0.000646501 0)
(0.0187093 -0.000646822 0)
(0.0200032 -0.000647161 0)
(0.0212979 -0.000647518 0)
(0.0225932 -0.000647892 0)
(0.0238894 -0.000648282 0)
(0.0251863 -0.000648686 0)
(0.0264841 -0.000649103 0)
(0.0277827 -0.000649532 0)
(0.0290821 -0.000649972 0)
(0.0303825 -0.000650421 0)
(0.0316838 -0.000650878 0)
(0.032986 -0.000651341 0)
(0.0342891 -0.000651809 0)
(0.0355932 -0.00065228 0)
(0.0368982 -0.000652751 0)
(0.0382041 -0.000653222 0)
(0.039511 -0.00065369 0)
(0.0408188 -0.000654154 0)
(0.0421276 -0.00065461 0)
(0.0434373 -0.000655057 0)
(0.0447478 -0.000655492 0)
(0.0460592 -0.000655913 0)
(0.0473714 -0.000656318 0)
(0.0486844 -0.000656703 0)
(0.0499982 -0.000657067 0)
(0.0513127 -0.000657405 0)
(0.0526278 -0.000657716 0)
(0.0539435 -0.000657997 0)
(0.0552598 -0.000658243 0)
(0.0565765 -0.000658452 0)
(0.0578936 -0.000658621 0)
(0.059211 -0.000658746 0)
(0.0605286 -0.000658823 0)
(0.0618463 -0.000658849 0)
(0.063164 -0.000658819 0)
(0.0644816 -0.000658731 0)
(0.0657989 -0.000658579 0)
(0.0671159 -0.00065836 0)
(0.0684324 -0.00065807 0)
(0.0697482 -0.000657704 0)
(0.0710632 -0.000657257 0)
(0.0723773 -0.000656725 0)
(0.0736902 -0.000656103 0)
(0.0750017 -0.000655386 0)
(0.0763118 -0.000654569 0)
(0.07762 -0.000653648 0)
(0.0789264 -0.000652616 0)
(0.0802306 -0.00065147 0)
(0.0815323 -0.000650202 0)
(0.0828315 -0.000648808 0)
(0.0841277 -0.000647283 0)
(0.0854207 -0.00064562 0)
(0.0867102 -0.000643813 0)
(0.087996 -0.000641858 0)
(0.0892778 -0.000639748 0)
(0.0905551 -0.000637476 0)
(0.0918278 -0.000635038 0)
(0.0930954 -0.000632426 0)
(0.0943576 -0.000629635 0)
(0.0956141 -0.000626659 0)
(0.0968644 -0.000623491 0)
(0.0981082 -0.000620126 0)
(0.099345 -0.000616557 0)
(0.100575 -0.000612777 0)
(0.101796 -0.000608782 0)
(0.10301 -0.000604564 0)
(0.104215 -0.000600119 0)
(0.10541 -0.000595439 0)
(0.106597 -0.000590519 0)
(0.107773 -0.000585354 0)
(0.108938 -0.000579937 0)
(0.110093 -0.000574264 0)
(0.111236 -0.000568328 0)
(0.112366 -0.000562125 0)
(0.113484 -0.00055565 0)
(0.114589 -0.000548898 0)
(0.11568 -0.000541865 0)
(0.116757 -0.000534546 0)
(0.117818 -0.000526937 0)
(0.118865 -0.000519036 0)
(0.119895 -0.000510838 0)
(0.120908 -0.00050234 0)
(0.121904 -0.00049354 0)
(0.122883 -0.000484437 0)
(0.123842 -0.000475027 0)
(0.124783 -0.000465309 0)
(0.125704 -0.000455283 0)
(0.126604 -0.000444949 0)
(0.127484 -0.000434305 0)
(0.128342 -0.000423354 0)
(0.129178 -0.000412095 0)
(0.129991 -0.00040053 0)
(0.13078 -0.000388663 0)
(0.131545 -0.000376494 0)
(0.132286 -0.000364028 0)
(0.133002 -0.000351269 0)
(0.133691 -0.000338221 0)
(0.134355 -0.000324889 0)
(0.134991 -0.000311279 0)
(0.1356 -0.000297397 0)
(0.136181 -0.000283251 0)
(0.136733 -0.000268848 0)
(0.137257 -0.000254196 0)
(0.13775 -0.000239304 0)
(0.138214 -0.000224181 0)
(0.138647 -0.000208839 0)
(0.13905 -0.000193286 0)
(0.139421 -0.000177534 0)
(0.13976 -0.000161596 0)
(0.140067 -0.000145483 0)
(0.140342 -0.000129208 0)
(0.140584 -0.000112783 0)
(0.140793 -9.62239e-05 0)
(0.140969 -7.95431e-05 0)
(0.141111 -6.27554e-05 0)
(0.14122 -4.58754e-05 0)
(0.141295 -2.89181e-05 0)
(0.141336 -1.18988e-05 0)
(0.141342 5.16721e-06 0)
(0.141315 2.22642e-05 0)
(0.141253 3.93766e-05 0)
(0.141157 5.64885e-05 0)
(0.141027 7.35843e-05 0)
(0.140863 9.06481e-05 0)
(0.140665 0.000107664 0)
(0.140432 0.000124617 0)
(0.140166 0.000141491 0)
(0.139866 0.000158271 0)
(0.139533 0.000174943 0)
(0.139166 0.00019149 0)
(0.138767 0.0002079 0)
(0.138334 0.000224158 0)
(0.13787 0.00024025 0)
(0.137373 0.000256163 0)
(0.136845 0.000271886 0)
(0.136285 0.000287404 0)
(0.135695 0.000302708 0)
(0.135074 0.000317785 0)
(0.134424 0.000332626 0)
(0.133744 0.00034722 0)
(0.133034 0.000361558 0)
(0.132297 0.000375631 0)
(0.131532 0.000389432 0)
(0.130739 0.000402953 0)
(0.129919 0.000416187 0)
(0.129074 0.000429129 0)
(0.128203 0.000441772 0)
(0.127306 0.000454112 0)
(0.126386 0.000466144 0)
(0.125441 0.000477866 0)
(0.124474 0.000489275 0)
(0.123484 0.000500367 0)
(0.122472 0.000511142 0)
(0.121439 0.000521598 0)
(0.120385 0.000531735 0)
(0.119312 0.000541552 0)
(0.118219 0.000551051 0)
(0.117107 0.000560232 0)
(0.115978 0.000569098 0)
(0.11483 0.000577649 0)
(0.113667 0.000585888 0)
(0.112487 0.000593819 0)
(0.111291 0.000601444 0)
(0.11008 0.000608768 0)
(0.108855 0.000615794 0)
(0.107617 0.000622526 0)
(0.106365 0.00062897 0)
(0.105101 0.000635129 0)
(0.103824 0.00064101 0)
(0.102536 0.000646618 0)
(0.101237 0.000651958 0)
(0.0999281 0.000657036 0)
(0.098609 0.000661858 0)
(0.0972804 0.000666431 0)
(0.0959429 0.00067076 0)
(0.0945971 0.000674852 0)
(0.0932433 0.000678713 0)
(0.0918819 0.000682351 0)
(0.0905136 0.000685771 0)
(0.0891386 0.000688981 0)
(0.0877574 0.000691986 0)
(0.0863704 0.000694795 0)
(0.084978 0.000697413 0)
(0.0835805 0.000699847 0)
(0.0821784 0.000702104 0)
(0.0807719 0.000704191 0)
(0.0793614 0.000706114 0)
(0.0779472 0.00070788 0)
(0.0765297 0.000709495 0)
(0.0751091 0.000710966 0)
(0.0736856 0.000712299 0)
(0.0722597 0.000713501 0)
(0.0708315 0.000714577 0)
(0.0694012 0.000715534 0)
(0.0679692 0.000716378 0)
(0.0665355 0.000717114 0)
(0.0651006 0.000717749 0)
(0.0636644 0.000718288 0)
(0.0622273 0.000718736 0)
(0.0607893 0.000719099 0)
(0.0593507 0.000719383 0)
(0.0579117 0.000719593 0)
(0.0564723 0.000719732 0)
(0.0550326 0.000719808 0)
(0.0535929 0.000719823 0)
(0.0521532 0.000719784 0)
(0.0507137 0.000719694 0)
(0.0492744 0.000719557 0)
(0.0478354 0.000719379 0)
(0.0463968 0.000719163 0)
(0.0449586 0.000718913 0)
(0.043521 0.000718632 0)
(0.042084 0.000718326 0)
(0.0406477 0.000717997 0)
(0.039212 0.000717649 0)
(0.037777 0.000717284 0)
(0.0363428 0.000716907 0)
(0.0349093 0.00071652 0)
(0.0334767 0.000716127 0)
(0.0320448 0.000715729 0)
(0.0306137 0.00071533 0)
(0.0291834 0.000714932 0)
(0.0277539 0.000714538 0)
(0.0263252 0.00071415 0)
(0.0248973 0.000713769 0)
(0.0234701 0.000713399 0)
(0.0220437 0.000713041 0)
(0.0206179 0.000712697 0)
(0.0191928 0.000712368 0)
(0.0177684 0.000712056 0)
(0.0163446 0.000711763 0)
(0.0149213 0.000711489 0)
(0.0134986 0.000711237 0)
(0.0120764 0.000711006 0)
(0.0106546 0.000710799 0)
(0.00923315 0.000710616 0)
(0.00781208 0.000710458 0)
(0.0063913 0.000710325 0)
(0.00497076 0.000710218 0)
(0.0035504 0.000710137 0)
(0.0021302 0.000710083 0)
(0.000710063 0.000710055 0)
(0.000644272 -0.00193292 0)
(0.00193285 -0.00193299 0)
(0.0032215 -0.00193314 0)
(0.00451028 -0.00193336 0)
(0.00579922 -0.00193366 0)
(0.00708839 -0.00193403 0)
(0.00837783 -0.00193447 0)
(0.00966759 -0.00193498 0)
(0.0109577 -0.00193557 0)
(0.0122482 -0.00193622 0)
(0.0135392 -0.00193693 0)
(0.0148307 -0.00193771 0)
(0.0161228 -0.00193856 0)
(0.0174154 -0.00193946 0)
(0.0187086 -0.00194043 0)
(0.0200025 -0.00194145 0)
(0.0212971 -0.00194252 0)
(0.0225925 -0.00194364 0)
(0.0238886 -0.00194481 0)
(0.0251855 -0.00194602 0)
(0.0264832 -0.00194728 0)
(0.0277818 -0.00194857 0)
(0.0290813 -0.00194989 0)
(0.0303816 -0.00195124 0)
(0.0316829 -0.00195261 0)
(0.0329851 -0.001954 0)
(0.0342882 -0.0019554 0)
(0.0355922 -0.00195682 0)
(0.0368972 -0.00195823 0)
(0.0382032 -0.00195965 0)
(0.0395101 -0.00196106 0)
(0.0408179 -0.00196245 0)
(0.0421267 -0.00196382 0)
(0.0434364 -0.00196516 0)
(0.044747 -0.00196647 0)
(0.0460584 -0.00196773 0)
(0.0473706 -0.00196895 0)
(0.0486837 -0.00197011 0)
(0.0499975 -0.0019712 0)
(0.0513121 -0.00197222 0)
(0.0526272 -0.00197316 0)
(0.053943 -0.001974 0)
(0.0552593 -0.00197474 0)
(0.0565761 -0.00197538 0)
(0.0578933 -0.00197588 0)
(0.0592108 -0.00197626 0)
(0.0605285 -0.0019765 0)
(0.0618463 -0.00197658 0)
(0.0631641 -0.00197649 0)
(0.0644818 -0.00197623 0)
(0.0657993 -0.00197578 0)
(0.0671164 -0.00197513 0)
(0.0684331 -0.00197426 0)
(0.069749 -0.00197317 0)
(0.0710642 -0.00197183 0)
(0.0723784 -0.00197024 0)
(0.0736915 -0.00196838 0)
(0.0750033 -0.00196623 0)
(0.0763135 -0.00196379 0)
(0.077622 -0.00196103 0)
(0.0789286 -0.00195794 0)
(0.080233 -0.0019545 0)
(0.081535 -0.00195071 0)
(0.0828344 -0.00194653 0)
(0.0841309 -0.00194196 0)
(0.0854242 -0.00193698 0)
(0.086714 -0.00193156 0)
(0.0880001 -0.0019257 0)
(0.0892822 -0.00191938 0)
(0.0905599 -0.00191257 0)
(0.0918329 -0.00190526 0)
(0.0931008 -0.00189743 0)
(0.0943634 -0.00188906 0)
(0.0956202 -0.00188014 0)
(0.0968709 -0.00187064 0)
(0.0981151 -0.00186055 0)
(0.0993524 -0.00184985 0)
(0.100582 -0.00183852 0)
(0.101805 -0.00182654 0)
(0.103019 -0.00181389 0)
(0.104224 -0.00180056 0)
(0.10542 -0.00178653 0)
(0.106607 -0.00177177 0)
(0.107783 -0.00175628 0)
(0.108949 -0.00174004 0)
(0.110104 -0.00172302 0)
(0.111248 -0.00170522 0)
(0.112379 -0.00168662 0)
(0.113497 -0.00166719 0)
(0.114603 -0.00164694 0)
(0.115694 -0.00162585 0)
(0.116772 -0.00160389 0)
(0.117834 -0.00158107 0)
(0.118881 -0.00155737 0)
(0.119912 -0.00153278 0)
(0.120926 -0.00150729 0)
(0.121922 -0.00148089 0)
(0.122901 -0.00145358 0)
(0.123862 -0.00142535 0)
(0.124803 -0.0013962 0)
(0.125724 -0.00136612 0)
(0.126625 -0.00133512 0)
(0.127506 -0.00130319 0)
(0.128364 -0.00127033 0)
(0.1292 -0.00123655 0)
(0.130014 -0.00120186 0)
(0.130804 -0.00116625 0)
(0.13157 -0.00112974 0)
(0.132311 -0.00109234 0)
(0.133028 -0.00105406 0)
(0.133718 -0.00101491 0)
(0.134382 -0.000974906 0)
(0.135019 -0.00093407 0)
(0.135628 -0.000892418 0)
(0.13621 -0.000849972 0)
(0.136762 -0.000806753 0)
(0.137286 -0.000762789 0)
(0.13778 -0.000718103 0)
(0.138245 -0.000672726 0)
(0.138678 -0.000626686 0)
(0.139081 -0.000580017 0)
(0.139452 -0.000532751 0)
(0.139792 -0.000484923 0)
(0.140099 -0.000436571 0)
(0.140375 -0.000387732 0)
(0.140617 -0.000338446 0)
(0.140826 -0.000288754 0)
(0.141002 -0.000238697 0)
(0.141145 -0.000188319 0)
(0.141254 -0.000137665 0)
(0.141329 -8.67776e-05 0)
(0.14137 -3.57043e-05 0)
(0.141377 1.55091e-05 0)
(0.141349 6.68157e-05 0)
(0.141288 0.000118168 0)
(0.141192 0.00016952 0)
(0.141062 0.000220823 0)
(0.140897 0.00027203 0)
(0.140699 0.000323093 0)
(0.140466 0.000373967 0)
(0.1402 0.000424604 0)
(0.1399 0.00047496 0)
(0.139566 0.000524988 0)
(0.139199 0.000574645 0)
(0.138799 0.000623888 0)
(0.138367 0.000672674 0)
(0.137902 0.000720964 0)
(0.137405 0.000768717 0)
(0.136876 0.000815895 0)
(0.136316 0.000862463 0)
(0.135726 0.000908384 0)
(0.135104 0.000953626 0)
(0.134453 0.000998158 0)
(0.133773 0.00104195 0)
(0.133063 0.00108497 0)
(0.132325 0.0011272 0)
(0.131559 0.00116861 0)
(0.130766 0.00120918 0)
(0.129946 0.00124889 0)
(0.129099 0.00128772 0)
(0.128228 0.00132565 0)
(0.127331 0.00136267 0)
(0.12641 0.00139877 0)
(0.125465 0.00143394 0)
(0.124497 0.00146817 0)
(0.123506 0.00150145 0)
(0.122493 0.00153377 0)
(0.12146 0.00156514 0)
(0.120405 0.00159555 0)
(0.119331 0.001625 0)
(0.118238 0.0016535 0)
(0.117125 0.00168104 0)
(0.115995 0.00170763 0)
(0.114847 0.00173328 0)
(0.113683 0.001758 0)
(0.112502 0.00178179 0)
(0.111306 0.00180466 0)
(0.110095 0.00182663 0)
(0.108869 0.0018477 0)
(0.10763 0.00186789 0)
(0.106378 0.00188722 0)
(0.105113 0.00190569 0)
(0.103836 0.00192333 0)
(0.102547 0.00194015 0)
(0.101248 0.00195616 0)
(0.0999381 0.00197139 0)
(0.0986184 0.00198585 0)
(0.0972893 0.00199956 0)
(0.0959514 0.00201254 0)
(0.0946051 0.00202481 0)
(0.0932508 0.00203639 0)
(0.091889 0.00204729 0)
(0.0905203 0.00205755 0)
(0.0891449 0.00206717 0)
(0.0877633 0.00207618 0)
(0.0863759 0.0020846 0)
(0.0849831 0.00209244 0)
(0.0835853 0.00209974 0)
(0.0821828 0.00210651 0)
(0.0807759 0.00211276 0)
(0.0793651 0.00211852 0)
(0.0779506 0.00212381 0)
(0.0765328 0.00212865 0)
(0.0751119 0.00213306 0)
(0.0736882 0.00213705 0)
(0.072262 0.00214065 0)
(0.0708335 0.00214387 0)
(0.069403 0.00214674 0)
(0.0679708 0.00214926 0)
(0.066537 0.00215147 0)
(0.0651018 0.00215336 0)
(0.0636654 0.00215498 0)
(0.0622281 0.00215632 0)
(0.06079 0.0021574 0)
(0.0593513 0.00215825 0)
(0.0579121 0.00215887 0)
(0.0564725 0.00215928 0)
(0.0550328 0.00215951 0)
(0.0535929 0.00215955 0)
(0.0521531 0.00215942 0)
(0.0507135 0.00215915 0)
(0.0492741 0.00215874 0)
(0.047835 0.0021582 0)
(0.0463963 0.00215754 0)
(0.0449581 0.00215679 0)
(0.0435205 0.00215595 0)
(0.0420834 0.00215502 0)
(0.040647 0.00215403 0)
(0.0392113 0.00215298 0)
(0.0377763 0.00215189 0)
(0.0363421 0.00215075 0)
(0.0349086 0.00214959 0)
(0.0334759 0.00214841 0)
(0.032044 0.00214721 0)
(0.0306129 0.00214601 0)
(0.0291826 0.00214482 0)
(0.0277532 0.00214363 0)
(0.0263245 0.00214246 0)
(0.0248966 0.00214132 0)
(0.0234694 0.00214021 0)
(0.022043 0.00213913 0)
(0.0206173 0.0021381 0)
(0.0191922 0.00213711 0)
(0.0177678 0.00213617 0)
(0.016344 0.00213529 0)
(0.0149208 0.00213447 0)
(0.0134981 0.00213371 0)
(0.0120759 0.00213302 0)
(0.0106542 0.0021324 0)
(0.00923281 0.00213185 0)
(0.00781179 0.00213137 0)
(0.00639106 0.00213097 0)
(0.00497057 0.00213065 0)
(0.00355027 0.00213041 0)
(0.00213012 0.00213025 0)
(0.000710036 0.00213016 0)
(0.000644221 -0.00322144 0)
(0.0019327 -0.00322156 0)
(0.00322126 -0.00322181 0)
(0.00450993 -0.00322218 0)
(0.00579878 -0.00322267 0)
(0.00708786 -0.00322329 0)
(0.0083772 -0.00322402 0)
(0.00966687 -0.00322488 0)
(0.0109569 -0.00322585 0)
(0.0122473 -0.00322694 0)
(0.0135382 -0.00322813 0)
(0.0148297 -0.00322944 0)
(0.0161216 -0.00323085 0)
(0.0174142 -0.00323236 0)
(0.0187073 -0.00323397 0)
(0.0200012 -0.00323567 0)
(0.0212957 -0.00323746 0)
(0.022591 -0.00323933 0)
(0.023887 -0.00324129 0)
(0.0251839 -0.00324331 0)
(0.0264816 -0.0032454 0)
(0.0277801 -0.00324756 0)
(0.0290795 -0.00324976 0)
(0.0303798 -0.00325202 0)
(0.0316811 -0.00325431 0)
(0.0329832 -0.00325663 0)
(0.0342863 -0.00325898 0)
(0.0355904 -0.00326134 0)
(0.0368954 -0.00326371 0)
(0.0382013 -0.00326607 0)
(0.0395083 -0.00326842 0)
(0.0408161 -0.00327075 0)
(0.0421249 -0.00327304 0)
(0.0434347 -0.00327529 0)
(0.0447453 -0.00327748 0)
(0.0460568 -0.0032796 0)
(0.0473691 -0.00328163 0)
(0.0486822 -0.00328357 0)
(0.0499961 -0.0032854 0)
(0.0513108 -0.00328711 0)
(0.0526261 -0.00328868 0)
(0.053942 -0.0032901 0)
(0.0552585 -0.00329135 0)
(0.0565754 -0.00329241 0)
(0.0578928 -0.00329327 0)
(0.0592104 -0.00329391 0)
(0.0605283 -0.00329431 0)
(0.0618463 -0.00329446 0)
(0.0631644 -0.00329433 0)
(0.0644823 -0.00329391 0)
(0.0658001 -0.00329317 0)
(0.0671175 -0.0032921 0)
(0.0684344 -0.00329067 0)
(0.0697507 -0.00328886 0)
(0.0710662 -0.00328665 0)
(0.0723808 -0.00328401 0)
(0.0736942 -0.00328093 0)
(0.0750064 -0.00327737 0)
(0.076317 -0.00327331 0)
(0.077626 -0.00326873 0)
(0.078933 -0.0032636 0)
(0.0802379 -0.00325789 0)
(0.0815404 -0.00325158 0)
(0.0828403 -0.00324464 0)
(0.0841373 -0.00323704 0)
(0.0854311 -0.00322875 0)
(0.0867216 -0.00321975 0)
(0.0880083 -0.00321 0)
(0.089291 -0.00319948 0)
(0.0905693 -0.00318815 0)
(0.091843 -0.00317598 0)
(0.0931117 -0.00316296 0)
(0.094375 -0.00314903 0)
(0.0956326 -0.00313418 0)
(0.096884 -0.00311837 0)
(0.098129 -0.00310158 0)
(0.0993671 -0.00308376 0)
(0.100598 -0.00306489 0)
(0.101821 -0.00304495 0)
(0.103036 -0.00302389 0)
(0.104242 -0.00300169 0)
(0.105439 -0.00297832 0)
(0.106627 -0.00295375 0)
(0.107805 -0.00292795 0)
(0.108972 -0.00290089 0)
(0.110128 -0.00287255 0)
(0.111272 -0.0028429 0)
(0.112404 -0.00281191 0)
(0.113524 -0.00277955 0)
(0.11463 -0.00274581 0)
(0.115723 -0.00271067 0)
(0.116802 -0.00267409 0)
(0.117865 -0.00263607 0)
(0.118913 -0.00259658 0)
(0.119945 -0.0025556 0)
(0.12096 -0.00251312 0)
(0.121958 -0.00246914 0)
(0.122938 -0.00242363 0)
(0.1239 -0.00237658 0)
(0.124842 -0.002328 0)
(0.125765 -0.00227787 0)
(0.126667 -0.0022262 0)
(0.127549 -0.00217298 0)
(0.128409 -0.00211821 0)
(0.129246 -0.00206191 0)
(0.130061 -0.00200408 0)
(0.130852 -0.00194472 0)
(0.131619 -0.00188386 0)
(0.132362 -0.00182151 0)
(0.133079 -0.00175769 0)
(0.133771 -0.00169243 0)
(0.134436 -0.00162574 0)
(0.135074 -0.00155766 0)
(0.135684 -0.00148821 0)
(0.136267 -0.00141744 0)
(0.136821 -0.00134539 0)
(0.137345 -0.00127208 0)
(0.137841 -0.00119757 0)
(0.138306 -0.00112191 0)
(0.13874 -0.00104514 0)
(0.139144 -0.000967324 0)
(0.139516 -0.000888508 0)
(0.139856 -0.000808755 0)
(0.140164 -0.000728125 0)
(0.14044 -0.000646683 0)
(0.140683 -0.000564494 0)
(0.140893 -0.000481627 0)
(0.14107 -0.000398152 0)
(0.141212 -0.00031414 0)
(0.141322 -0.000229665 0)
(0.141397 -0.000144803 0)
(0.141438 -5.96296e-05 0)
(0.141445 2.57778e-05 0)
(0.141418 0.000111341 0)
(0.141356 0.000196981 0)
(0.14126 0.00028262 0)
(0.14113 0.000368177 0)
(0.140965 0.000453574 0)
(0.140767 0.000538732 0)
(0.140534 0.000623573 0)
(0.140267 0.000708019 0)
(0.139967 0.000791994 0)
(0.139633 0.000875423 0)
(0.139265 0.000958233 0)
(0.138865 0.00104035 0)
(0.138432 0.00112171 0)
(0.137966 0.00120223 0)
(0.137468 0.00128186 0)
(0.136939 0.00136053 0)
(0.136378 0.00143818 0)
(0.135786 0.00151476 0)
(0.135164 0.0015902 0)
(0.134512 0.00166445 0)
(0.13383 0.00173746 0)
(0.13312 0.0018092 0)
(0.132381 0.0018796 0)
(0.131614 0.00194864 0)
(0.130819 0.00201628 0)
(0.129998 0.00208248 0)
(0.129151 0.00214721 0)
(0.128278 0.00221045 0)
(0.12738 0.00227217 0)
(0.126457 0.00233235 0)
(0.125511 0.00239097 0)
(0.124542 0.00244803 0)
(0.12355 0.0025035 0)
(0.122536 0.00255737 0)
(0.121501 0.00260966 0)
(0.120445 0.00266034 0)
(0.11937 0.00270942 0)
(0.118275 0.00275691 0)
(0.117161 0.00280281 0)
(0.11603 0.00284713 0)
(0.114881 0.00288987 0)
(0.113715 0.00293105 0)
(0.112533 0.00297069 0)
(0.111336 0.0030088 0)
(0.110124 0.00304539 0)
(0.108897 0.0030805 0)
(0.107657 0.00311414 0)
(0.106403 0.00314633 0)
(0.105137 0.0031771 0)
(0.103859 0.00320648 0)
(0.102569 0.00323449 0)
(0.101269 0.00326116 0)
(0.099958 0.00328652 0)
(0.0986373 0.0033106 0)
(0.0973072 0.00333343 0)
(0.0959683 0.00335504 0)
(0.094621 0.00337547 0)
(0.0932659 0.00339475 0)
(0.0919032 0.0034129 0)
(0.0905336 0.00342997 0)
(0.0891574 0.00344598 0)
(0.087775 0.00346098 0)
(0.0863868 0.00347498 0)
(0.0849933 0.00348804 0)
(0.0835947 0.00350018 0)
(0.0821915 0.00351143 0)
(0.080784 0.00352183 0)
(0.0793726 0.00353141 0)
(0.0779575 0.00354021 0)
(0.0765391 0.00354825 0)
(0.0751176 0.00355558 0)
(0.0736934 0.00356221 0)
(0.0722666 0.00356819 0)
(0.0708377 0.00357354 0)
(0.0694067 0.00357829 0)
(0.067974 0.00358248 0)
(0.0665398 0.00358614 0)
(0.0651042 0.00358928 0)
(0.0636675 0.00359195 0)
(0.0622298 0.00359416 0)
(0.0607914 0.00359595 0)
(0.0593523 0.00359735 0)
(0.0579128 0.00359837 0)
(0.056473 0.00359904 0)
(0.055033 0.0035994 0)
(0.053593 0.00359945 0)
(0.052153 0.00359923 0)
(0.0507131 0.00359876 0)
(0.0492735 0.00359805 0)
(0.0478343 0.00359714 0)
(0.0463955 0.00359604 0)
(0.0449572 0.00359477 0)
(0.0435194 0.00359335 0)
(0.0420822 0.0035918 0)
(0.0406457 0.00359014 0)
(0.0392099 0.00358838 0)
(0.0377749 0.00358654 0)
(0.0363406 0.00358464 0)
(0.0349071 0.0035827 0)
(0.0334744 0.00358071 0)
(0.0320425 0.00357871 0)
(0.0306114 0.0035767 0)
(0.0291811 0.0035747 0)
(0.0277516 0.00357272 0)
(0.026323 0.00357077 0)
(0.0248951 0.00356886 0)
(0.023468 0.003567 0)
(0.0220416 0.0035652 0)
(0.0206159 0.00356347 0)
(0.019191 0.00356182 0)
(0.0177666 0.00356025 0)
(0.0163429 0.00355878 0)
(0.0149198 0.0035574 0)
(0.0134972 0.00355613 0)
(0.0120751 0.00355498 0)
(0.0106534 0.00355394 0)
(0.00923214 0.00355302 0)
(0.00781122 0.00355222 0)
(0.00639059 0.00355156 0)
(0.0049702 0.00355102 0)
(0.00355001 0.00355061 0)
(0.00212996 0.00355034 0)
(0.000709983 0.00355021 0)
(0.000644146 -0.00450985 0)
(0.00193248 -0.00451002 0)
(0.00322089 -0.00451036 0)
(0.00450942 -0.00451088 0)
(0.00579812 -0.00451158 0)
(0.00708705 -0.00451244 0)
(0.00837626 -0.00451347 0)
(0.00966578 -0.00451467 0)
(0.0109557 -0.00451603 0)
(0.012246 -0.00451756 0)
(0.0135368 -0.00451924 0)
(0.014828 -0.00452107 0)
(0.0161199 -0.00452305 0)
(0.0174123 -0.00452517 0)
(0.0187054 -0.00452743 0)
(0.0199991 -0.00452982 0)
(0.0212935 -0.00453233 0)
(0.0225887 -0.00453496 0)
(0.0238847 -0.0045377 0)
(0.0251814 -0.00454054 0)
(0.026479 -0.00454348 0)
(0.0277775 -0.00454651 0)
(0.0290769 -0.0045496 0)
(0.0303771 -0.00455277 0)
(0.0316783 -0.00455599 0)
(0.0329804 -0.00455925 0)
(0.0342835 -0.00456255 0)
(0.0355876 -0.00456587 0)
(0.0368926 -0.0045692 0)
(0.0381986 -0.00457252 0)
(0.0395055 -0.00457583 0)
(0.0408134 -0.0045791 0)
(0.0421223 -0.00458233 0)
(0.043432 -0.00458549 0)
(0.0447427 -0.00458857 0)
(0.0460543 -0.00459155 0)
(0.0473668 -0.00459442 0)
(0.04868 -0.00459716 0)
(0.0499941 -0.00459974 0)
(0.0513089 -0.00460215 0)
(0.0526243 -0.00460437 0)
(0.0539405 -0.00460638 0)
(0.0552571 -0.00460815 0)
(0.0565743 -0.00460966 0)
(0.0578919 -0.00461089 0)
(0.0592099 -0.00461181 0)
(0.060528 -0.0046124 0)
(0.0618464 -0.00461263 0)
(0.0631648 -0.00461248 0)
(0.0644831 -0.00461192 0)
(0.0658012 -0.00461092 0)
(0.067119 -0.00460944 0)
(0.0684364 -0.00460747 0)
(0.0697532 -0.00460497 0)
(0.0710692 -0.00460191 0)
(0.0723843 -0.00459825 0)
(0.0736983 -0.00459396 0)
(0.075011 -0.00458901 0)
(0.0763223 -0.00458337 0)
(0.0776319 -0.00457699 0)
(0.0789396 -0.00456984 0)
(0.0802452 -0.00456189 0)
(0.0815484 -0.00455309 0)
(0.0828491 -0.00454342 0)
(0.0841469 -0.00453282 0)
(0.0854416 -0.00452125 0)
(0.0867329 -0.00450869 0)
(0.0880205 -0.00449508 0)
(0.0893041 -0.00448039 0)
(0.0905835 -0.00446458 0)
(0.0918582 -0.00444759 0)
(0.0931279 -0.00442939 0)
(0.0943923 -0.00440994 0)
(0.095651 -0.00438919 0)
(0.0969037 -0.00436711 0)
(0.0981499 -0.00434363 0)
(0.0993892 -0.00431873 0)
(0.100621 -0.00429236 0)
(0.101846 -0.00426448 0)
(0.103062 -0.00423504 0)
(0.10427 -0.004204 0)
(0.105468 -0.00417133 0)
(0.106657 -0.00413697 0)
(0.107836 -0.00410089 0)
(0.109005 -0.00406305 0)
(0.110162 -0.0040234 0)
(0.111308 -0.00398193 0)
(0.112442 -0.00393857 0)
(0.113564 -0.00389331 0)
(0.114672 -0.00384611 0)
(0.115766 -0.00379694 0)
(0.116846 -0.00374576 0)
(0.117912 -0.00369255 0)
(0.118961 -0.00363728 0)
(0.119995 -0.00357994 0)
(0.121012 -0.00352049 0)
(0.122012 -0.00345892 0)
(0.122994 -0.00339522 0)
(0.123957 -0.00332937 0)
(0.124902 -0.00326136 0)
(0.125826 -0.00319118 0)
(0.12673 -0.00311884 0)
(0.127614 -0.00304433 0)
(0.128475 -0.00296765 0)
(0.129315 -0.00288881 0)
(0.130131 -0.00280783 0)
(0.130924 -0.00272472 0)
(0.131693 -0.00263949 0)
(0.132438 -0.00255217 0)
(0.133157 -0.0024628 0)
(0.13385 -0.00237139 0)
(0.134517 -0.00227798 0)
(0.135156 -0.00218262 0)
(0.135769 -0.00208535 0)
(0.136353 -0.00198622 0)
(0.136908 -0.00188528 0)
(0.137434 -0.0017826 0)
(0.137931 -0.00167822 0)
(0.138397 -0.00157222 0)
(0.138833 -0.00146467 0)
(0.139238 -0.00135565 0)
(0.139611 -0.00124522 0)
(0.139952 -0.00113348 0)
(0.140262 -0.00102051 0)
(0.140538 -0.000906401 0)
(0.140782 -0.000791242 0)
(0.140993 -0.00067513 0)
(0.14117 -0.000558164 0)
(0.141314 -0.000440444 0)
(0.141423 -0.000322075 0)
(0.141499 -0.000203161 0)
(0.141541 -8.38106e-05 0)
(0.141548 3.5869e-05 0)
(0.141521 0.000155768 0)
(0.141459 0.000275775 0)
(0.141363 0.000395779 0)
(0.141233 0.00051567 0)
(0.141068 0.000635335 0)
(0.140869 0.000754666 0)
(0.140636 0.000873551 0)
(0.140368 0.000991882 0)
(0.140067 0.00110955 0)
(0.139733 0.00122646 0)
(0.139364 0.00134249 0)
(0.138963 0.00145755 0)
(0.138529 0.00157155 0)
(0.138062 0.00168438 0)
(0.137563 0.00179595 0)
(0.137033 0.00190617 0)
(0.136471 0.00201496 0)
(0.135878 0.00212224 0)
(0.135254 0.00222793 0)
(0.134601 0.00233195 0)
(0.133917 0.00243424 0)
(0.133205 0.00253473 0)
(0.132465 0.00263335 0)
(0.131696 0.00273006 0)
(0.1309 0.0028248 0)
(0.130077 0.00291752 0)
(0.129228 0.00300819 0)
(0.128353 0.00309675 0)
(0.127453 0.00318319 0)
(0.126529 0.00326747 0)
(0.125581 0.00334956 0)
(0.124609 0.00342945 0)
(0.123615 0.00350712 0)
(0.1226 0.00358256 0)
(0.121563 0.00365576 0)
(0.120505 0.00372671 0)
(0.119428 0.00379543 0)
(0.118331 0.0038619 0)
(0.117216 0.00392615 0)
(0.116082 0.00398818 0)
(0.114931 0.004048 0)
(0.113764 0.00410563 0)
(0.11258 0.0041611 0)
(0.111381 0.00421443 0)
(0.110167 0.00426564 0)
(0.108938 0.00431476 0)
(0.107696 0.00436182 0)
(0.106441 0.00440685 0)
(0.105173 0.0044499 0)
(0.103893 0.00449099 0)
(0.102602 0.00453016 0)
(0.1013 0.00456746 0)
(0.0999877 0.00460292 0)
(0.0986655 0.00463659 0)
(0.097334 0.00466851 0)
(0.0959937 0.00469872 0)
(0.094645 0.00472727 0)
(0.0932884 0.00475421 0)
(0.0919245 0.00477958 0)
(0.0905536 0.00480343 0)
(0.0891761 0.0048258 0)
(0.0877925 0.00484675 0)
(0.0864032 0.00486631 0)
(0.0850085 0.00488454 0)
(0.0836089 0.00490149 0)
(0.0822046 0.00491719 0)
(0.0807961 0.00493171 0)
(0.0793837 0.00494508 0)
(0.0779677 0.00495735 0)
(0.0765484 0.00496856 0)
(0.0751261 0.00497877 0)
(0.073701 0.00498802 0)
(0.0722735 0.00499634 0)
(0.0708438 0.00500379 0)
(0.0694122 0.0050104 0)
(0.0679788 0.00501623 0)
(0.066544 0.0050213 0)
(0.0651078 0.00502566 0)
(0.0636705 0.00502936 0)
(0.0622323 0.00503242 0)
(0.0607934 0.00503489 0)
(0.0593539 0.00503681 0)
(0.057914 0.0050382 0)
(0.0564737 0.00503911 0)
(0.0550334 0.00503957 0)
(0.053593 0.00503962 0)
(0.0521526 0.00503928 0)
(0.0507125 0.00503859 0)
(0.0492727 0.00503757 0)
(0.0478332 0.00503627 0)
(0.0463942 0.0050347 0)
(0.0449556 0.00503289 0)
(0.0435177 0.00503088 0)
(0.0420804 0.00502869 0)
(0.0406438 0.00502633 0)
(0.0392079 0.00502385 0)
(0.0377727 0.00502126 0)
(0.0363384 0.00501857 0)
(0.0349048 0.00501582 0)
(0.0334721 0.00501303 0)
(0.0320401 0.00501021 0)
(0.030609 0.00500738 0)
(0.0291788 0.00500456 0)
(0.0277494 0.00500177 0)
(0.0263207 0.00499902 0)
(0.0248929 0.00499633 0)
(0.0234658 0.00499372 0)
(0.0220395 0.00499118 0)
(0.020614 0.00498875 0)
(0.0191891 0.00498643 0)
(0.0177649 0.00498422 0)
(0.0163413 0.00498215 0)
(0.0149182 0.00498022 0)
(0.0134958 0.00497844 0)
(0.0120738 0.00497681 0)
(0.0106523 0.00497535 0)
(0.00923114 0.00497406 0)
(0.00781036 0.00497294 0)
(0.00638988 0.004972 0)
(0.00496965 0.00497124 0)
(0.00354961 0.00497068 0)
(0.00212972 0.00497029 0)
(0.000709903 0.0049701 0)
(0.000644046 -0.00579808 0)
(0.00193218 -0.0057983 0)
(0.00322039 -0.00579875 0)
(0.00450873 -0.00579942 0)
(0.00579724 -0.00580031 0)
(0.00708598 -0.00580142 0)
(0.00837499 -0.00580276 0)
(0.00966433 -0.0058043 0)
(0.010954 -0.00580606 0)
(0.0122442 -0.00580803 0)
(0.0135348 -0.00581019 0)
(0.0148259 -0.00581255 0)
(0.0161176 -0.00581511 0)
(0.0174098 -0.00581784 0)
(0.0187027 -0.00582076 0)
(0.0199963 -0.00582384 0)
(0.0212906 -0.00582708 0)
(0.0225857 -0.00583048 0)
(0.0238815 -0.00583402 0)
(0.0251782 -0.00583769 0)
(0.0264757 -0.00584148 0)
(0.0277741 -0.00584538 0)
(0.0290733 -0.00584938 0)
(0.0303735 -0.00585347 0)
(0.0316747 -0.00585763 0)
(0.0329767 -0.00586185 0)
(0.0342798 -0.00586611 0)
(0.0355838 -0.0058704 0)
(0.0368888 -0.0058747 0)
(0.0381948 -0.005879 0)
(0.0395018 -0.00588327 0)
(0.0408097 -0.0058875 0)
(0.0421187 -0.00589168 0)
(0.0434285 -0.00589577 0)
(0.0447393 -0.00589976 0)
(0.046051 -0.00590362 0)
(0.0473636 -0.00590734 0)
(0.048677 -0.00591089 0)
(0.0499913 -0.00591425 0)
(0.0513063 -0.00591739 0)
(0.052622 -0.00592027 0)
(0.0539384 -0.00592289 0)
(0.0552553 -0.00592521 0)
(0.0565728 -0.00592719 0)
(0.0578907 -0.00592881 0)
(0.059209 -0.00593004 0)
(0.0605276 -0.00593084 0)
(0.0618464 -0.00593119 0)
(0.0631652 -0.00593104 0)
(0.064484 -0.00593037 0)
(0.0658027 -0.00592913 0)
(0.0671211 -0.00592729 0)
(0.068439 -0.00592481 0)
(0.0697564 -0.00592164 0)
(0.0710731 -0.00591776 0)
(0.0723889 -0.00591311 0)
(0.0737036 -0.00590766 0)
(0.0750171 -0.00590136 0)
(0.0763292 -0.00589416 0)
(0.0776396 -0.00588602 0)
(0.0789483 -0.0058769 0)
(0.0802548 -0.00586674 0)
(0.081559 -0.00585549 0)
(0.0828607 -0.00584312 0)
(0.0841596 -0.00582956 0)
(0.0854554 -0.00581476 0)
(0.0867479 -0.00579868 0)
(0.0880367 -0.00578125 0)
(0.0893216 -0.00576244 0)
(0.0906023 -0.00574217 0)
(0.0918783 -0.00572041 0)
(0.0931495 -0.00569709 0)
(0.0944153 -0.00567215 0)
(0.0956756 -0.00564555 0)
(0.0969298 -0.00561723 0)
(0.0981776 -0.00558712 0)
(0.0994186 -0.00555518 0)
(0.100652 -0.00552135 0)
(0.101878 -0.00548557 0)
(0.103097 -0.00544779 0)
(0.104306 -0.00540796 0)
(0.105507 -0.00536602 0)
(0.106698 -0.00532191 0)
(0.107879 -0.00527559 0)
(0.109049 -0.005227 0)
(0.110209 -0.0051761 0)
(0.111357 -0.00512283 0)
(0.112493 -0.00506715 0)
(0.113617 -0.00500902 0)
(0.114727 -0.00494838 0)
(0.115824 -0.00488521 0)
(0.116906 -0.00481945 0)
(0.117974 -0.00475109 0)
(0.119026 -0.00468007 0)
(0.120062 -0.00460638 0)
(0.121081 -0.00452998 0)
(0.122084 -0.00445084 0)
(0.123068 -0.00436896 0)
(0.124034 -0.00428431 0)
(0.124981 -0.00419688 0)
(0.125908 -0.00410666 0)
(0.126814 -0.00401365 0)
(0.1277 -0.00391784 0)
(0.128564 -0.00381925 0)
(0.129406 -0.00371787 0)
(0.130225 -0.00361372 0)
(0.131021 -0.00350683 0)
(0.131792 -0.00339721 0)
(0.132539 -0.0032849 0)
(0.13326 -0.00316993 0)
(0.133956 -0.00305234 0)
(0.134625 -0.00293218 0)
(0.135267 -0.0028095 0)
(0.135881 -0.00268435 0)
(0.136467 -0.00255681 0)
(0.137025 -0.00242693 0)
(0.137553 -0.0022948 0)
(0.138051 -0.00216049 0)
(0.138519 -0.00202408 0)
(0.138957 -0.00188568 0)
(0.139363 -0.00174537 0)
(0.139738 -0.00160325 0)
(0.140081 -0.00145944 0)
(0.140392 -0.00131404 0)
(0.14067 -0.00116717 0)
(0.140915 -0.00101894 0)
(0.141126 -0.000869488 0)
(0.141304 -0.000718931 0)