/*--------------------------------*- C++ -*----------------------------------*\
| =========                 |                                                 |
| \\      /  F ield         | OpenFOAM: The Open Source CFD Toolbox           |
|  \\    /   O peration     | Version:  v2012                                 |
|   \\  /    A nd           | Website:  www.openfoam.com                      |
|    \\/     M anipulation  |                                                 |
\*---------------------------------------------------------------------------*/
FoamFile
{
    version     2.0;
    format      ascii;
    class       volScalarField;
    location    "7.5";
    object      p;
}
// * * * * * * * * * * * * * * * * * * * * * * * * * * * * * * * * * * * * * //

dimensions      [0 2 -2 0 0 0 0];


internalField   nonuniform List<scalar> 
65536
(
-1.70746e-08
-2.4456e-06
-7.28524e-06
-1.4537e-05
-2.42049e-05
-3.62917e-05
-5.07995e-05
-6.77305e-05
-8.70873e-05
-0.000108873
-0.000133092
-0.000159748
-0.000188844
-0.000220385
-0.000254375
-0.000290818
-0.000329719
-0.000371083
-0.000414914
-0.000461216
-0.000509994
-0.000561252
-0.000614994
-0.000671224
-0.000729944
-0.000791158
-0.000854868
-0.000921075
-0.00098978
-0.00106098
-0.00113468
-0.00121088
-0.00128957
-0.00137075
-0.00145441
-0.00154056
-0.00162917
-0.00172024
-0.00181376
-0.00190973
-0.00200811
-0.0021089
-0.00221208
-0.00231763
-0.00242553
-0.00253575
-0.00264826
-0.00276304
-0.00288005
-0.00299926
-0.00312063
-0.00324412
-0.0033697
-0.0034973
-0.00362689
-0.00375842
-0.00389182
-0.00402704
-0.00416403
-0.00430271
-0.00444302
-0.00458489
-0.00472824
-0.00487301
-0.0050191
-0.00516644
-0.00531494
-0.00546452
-0.00561508
-0.00576653
-0.00591876
-0.00607169
-0.0062252
-0.0063792
-0.00653357
-0.00668821
-0.00684301
-0.00699785
-0.00715261
-0.00730719
-0.00746146
-0.00761531
-0.00776861
-0.00792124
-0.00807309
-0.00822403
-0.00837394
-0.0085227
-0.00867019
-0.00881629
-0.00896088
-0.00910385
-0.00924506
-0.00938442
-0.0095218
-0.0096571
-0.0097902
-0.009921
-0.0100494
-0.0101753
-0.0102986
-0.0104192
-0.010537
-0.0106519
-0.0107639
-0.0108728
-0.0109786
-0.0110812
-0.0111806
-0.0112767
-0.0113693
-0.0114586
-0.0115444
-0.0116267
-0.0117054
-0.0117805
-0.011852
-0.0119198
-0.011984
-0.0120445
-0.0121013
-0.0121545
-0.0122039
-0.0122496
-0.0122916
-0.01233
-0.0123647
-0.0123958
-0.0124232
-0.0124471
-0.0124674
-0.0124842
-0.0124975
-0.0125074
-0.0125139
-0.012517
-0.0125169
-0.0125135
-0.0125069
-0.0124972
-0.0124845
-0.0124688
-0.0124501
-0.0124286
-0.0124042
-0.0123772
-0.0123475
-0.0123152
-0.0122804
-0.0122432
-0.0122036
-0.0121618
-0.0121177
-0.0120715
-0.0120233
-0.0119731
-0.011921
-0.0118671
-0.0118114
-0.0117541
-0.0116952
-0.0116347
-0.0115729
-0.0115096
-0.0114451
-0.0113794
-0.0113125
-0.0112446
-0.0111757
-0.0111058
-0.0110351
-0.0109636
-0.0108914
-0.0108185
-0.010745
-0.010671
-0.0105965
-0.0105217
-0.0104465
-0.010371
-0.0102953
-0.0102194
-0.0101434
-0.0100674
-0.00999135
-0.00991536
-0.00983947
-0.00976374
-0.0096882
-0.00961291
-0.00953792
-0.00946326
-0.00938898
-0.00931514
-0.00924175
-0.00916888
-0.00909655
-0.00902481
-0.00895369
-0.00888322
-0.00881345
-0.00874441
-0.00867613
-0.00860864
-0.00854197
-0.00847615
-0.00841122
-0.0083472
-0.00828411
-0.00822199
-0.00816086
-0.00810074
-0.00804165
-0.00798363
-0.00792669
-0.00787085
-0.00781613
-0.00776256
-0.00771015
-0.00765892
-0.00760888
-0.00756006
-0.00751248
-0.00746614
-0.00742106
-0.00737725
-0.00733474
-0.00729353
-0.00725363
-0.00721506
-0.00717783
-0.00714194
-0.00710742
-0.00707426
-0.00704248
-0.00701209
-0.0069831
-0.00695551
-0.00692933
-0.00690456
-0.00688122
-0.00685931
-0.00683884
-0.0068198
-0.00680222
-0.00678608
-0.0067714
-0.00675817
-0.00674641
-0.00673611
-0.00672728
-0.00671991
-0.00671402
-0.0067096
-0.00670665
-0.00670518
-2.21175e-06
-4.62934e-06
-9.46504e-06
-1.67145e-05
-2.63797e-05
-3.84634e-05
-5.29676e-05
-6.98947e-05
-8.92475e-05
-0.000111029
-0.000135243
-0.000161893
-0.000190983
-0.000222518
-0.000256501
-0.000292936
-0.00033183
-0.000373185
-0.000417008
-0.000463301
-0.000512071
-0.00056332
-0.000617052
-0.000673272
-0.000731983
-0.000793187
-0.000856886
-0.000923083
-0.000991778
-0.00106297
-0.00113666
-0.00121285
-0.00129153
-0.0013727
-0.00145635
-0.00154249
-0.00163109
-0.00172215
-0.00181567
-0.00191162
-0.00201
-0.00211078
-0.00221396
-0.0023195
-0.00242739
-0.00253761
-0.00265011
-0.00276489
-0.0028819
-0.00300111
-0.00312248
-0.00324597
-0.00337155
-0.00349916
-0.00362875
-0.00376028
-0.00389369
-0.00402892
-0.00416591
-0.0043046
-0.00444493
-0.00458681
-0.00473018
-0.00487496
-0.00502107
-0.00516843
-0.00531695
-0.00546655
-0.00561713
-0.00576859
-0.00592085
-0.00607381
-0.00622735
-0.00638137
-0.00653578
-0.00669045
-0.00684527
-0.00700014
-0.00715494
-0.00730956
-0.00746386
-0.00761774
-0.00777108
-0.00792376
-0.00807564
-0.00822662
-0.00837657
-0.00852538
-0.00867291
-0.00881905
-0.00896368
-0.00910668
-0.00924794
-0.00938733
-0.00952476
-0.00966009
-0.00979324
-0.00992408
-0.0100525
-0.0101784
-0.0103018
-0.0104224
-0.0105402
-0.0106552
-0.0107672
-0.0108762
-0.010982
-0.0110847
-0.0111841
-0.0112802
-0.0113729
-0.0114621
-0.011548
-0.0116302
-0.011709
-0.0117841
-0.0118556
-0.0119235
-0.0119877
-0.0120482
-0.012105
-0.0121582
-0.0122076
-0.0122533
-0.0122954
-0.0123337
-0.0123684
-0.0123995
-0.0124269
-0.0124508
-0.0124711
-0.0124879
-0.0125012
-0.0125111
-0.0125176
-0.0125207
-0.0125205
-0.0125171
-0.0125106
-0.0125009
-0.0124881
-0.0124724
-0.0124537
-0.0124321
-0.0124078
-0.0123807
-0.012351
-0.0123187
-0.0122839
-0.0122466
-0.012207
-0.0121652
-0.0121211
-0.0120749
-0.0120266
-0.0119764
-0.0119242
-0.0118703
-0.0118146
-0.0117572
-0.0116983
-0.0116378
-0.0115759
-0.0115127
-0.0114481
-0.0113824
-0.0113155
-0.0112475
-0.0111786
-0.0111087
-0.0110379
-0.0109664
-0.0108941
-0.0108212
-0.0107477
-0.0106737
-0.0105992
-0.0105243
-0.0104491
-0.0103736
-0.0102979
-0.010222
-0.0101459
-0.0100699
-0.00999381
-0.0099178
-0.00984188
-0.00976612
-0.00969056
-0.00961524
-0.00954022
-0.00946554
-0.00939124
-0.00931737
-0.00924396
-0.00917106
-0.00909871
-0.00902695
-0.0089558
-0.00888532
-0.00881553
-0.00874646
-0.00867816
-0.00861065
-0.00854396
-0.00847813
-0.00841318
-0.00834914
-0.00828603
-0.00822389
-0.00816274
-0.0081026
-0.0080435
-0.00798546
-0.0079285
-0.00787265
-0.00781792
-0.00776433
-0.00771191
-0.00766066
-0.00761061
-0.00756178
-0.00751418
-0.00746783
-0.00742274
-0.00737892
-0.0073364
-0.00729518
-0.00725527
-0.00721669
-0.00717945
-0.00714355
-0.00710902
-0.00707586
-0.00704407
-0.00701367
-0.00698467
-0.00695707
-0.00693088
-0.00690611
-0.00688277
-0.00686085
-0.00684037
-0.00682134
-0.00680374
-0.0067876
-0.00677292
-0.00675969
-0.00674792
-0.00673762
-0.00672879
-0.00672142
-0.00671552
-0.0067111
-0.00670815
-0.00670668
-6.58374e-06
-8.99709e-06
-1.38287e-05
-2.10741e-05
-3.07347e-05
-4.28126e-05
-5.73101e-05
-7.42296e-05
-9.3574e-05
-0.000115346
-0.00013955
-0.000166189
-0.000195267
-0.000226788
-0.000260757
-0.000297179
-0.000336057
-0.000377397
-0.000421202
-0.000467479
-0.00051623
-0.000567461
-0.000621174
-0.000677375
-0.000736066
-0.00079725
-0.00086093
-0.000927106
-0.000995781
-0.00106695
-0.00114062
-0.00121679
-0.00129545
-0.0013766
-0.00146024
-0.00154635
-0.00163494
-0.00172598
-0.00181948
-0.00191542
-0.00201378
-0.00211455
-0.00221771
-0.00232325
-0.00243113
-0.00254133
-0.00265383
-0.0027686
-0.00288561
-0.00300481
-0.00312619
-0.00324968
-0.00337526
-0.00350287
-0.00363248
-0.00376402
-0.00389744
-0.00403269
-0.0041697
-0.00430841
-0.00444875
-0.00459066
-0.00473405
-0.00487886
-0.00502501
-0.0051724
-0.00532096
-0.0054706
-0.00562122
-0.00577274
-0.00592505
-0.00607805
-0.00623165
-0.00638573
-0.00654019
-0.00669492
-0.00684981
-0.00700475
-0.00715962
-0.0073143
-0.00746868
-0.00762263
-0.00777605
-0.00792879
-0.00808076
-0.00823182
-0.00838185
-0.00853073
-0.00867834
-0.00882457
-0.00896928
-0.00911236
-0.0092537
-0.00939318
-0.00953068
-0.0096661
-0.00979932
-0.00993024
-0.0100588
-0.0101848
-0.0103082
-0.0104289
-0.0105468
-0.0106618
-0.0107739
-0.0108829
-0.0109888
-0.0110915
-0.011191
-0.0112871
-0.0113799
-0.0114692
-0.0115551
-0.0116374
-0.0117162
-0.0117914
-0.0118629
-0.0119308
-0.0119951
-0.0120556
-0.0121125
-0.0121656
-0.012215
-0.0122608
-0.0123028
-0.0123412
-0.0123759
-0.012407
-0.0124344
-0.0124583
-0.0124786
-0.0124954
-0.0125087
-0.0125185
-0.012525
-0.0125281
-0.0125279
-0.0125245
-0.0125179
-0.0125082
-0.0124954
-0.0124796
-0.0124609
-0.0124393
-0.0124149
-0.0123878
-0.012358
-0.0123257
-0.0122908
-0.0122535
-0.0122139
-0.0121719
-0.0121278
-0.0120815
-0.0120332
-0.0119829
-0.0119308
-0.0118768
-0.011821
-0.0117636
-0.0117046
-0.0116441
-0.0115821
-0.0115188
-0.0114542
-0.0113884
-0.0113214
-0.0112534
-0.0111844
-0.0111145
-0.0110437
-0.0109721
-0.0108997
-0.0108268
-0.0107532
-0.0106791
-0.0106046
-0.0105296
-0.0104544
-0.0103788
-0.010303
-0.010227
-0.010151
-0.0100749
-0.00999874
-0.00992267
-0.0098467
-0.00977089
-0.00969528
-0.00961991
-0.00954484
-0.00947011
-0.00939576
-0.00932184
-0.00924839
-0.00917544
-0.00910305
-0.00903124
-0.00896005
-0.00888952
-0.00881969
-0.00875058
-0.00868224
-0.00861468
-0.00854796
-0.00848208
-0.00841709
-0.00835302
-0.00828988
-0.0082277
-0.00816651
-0.00810634
-0.00804721
-0.00798913
-0.00793214
-0.00787626
-0.0078215
-0.00776788
-0.00771543
-0.00766416
-0.00761408
-0.00756523
-0.0075176
-0.00747122
-0.00742611
-0.00738227
-0.00733972
-0.00729848
-0.00725855
-0.00721995
-0.00718269
-0.00714678
-0.00711223
-0.00707905
-0.00704725
-0.00701683
-0.00698782
-0.0069602
-0.006934
-0.00690922
-0.00688586
-0.00686394
-0.00684345
-0.0068244
-0.0068068
-0.00679065
-0.00677596
-0.00676272
-0.00675095
-0.00674065
-0.00673181
-0.00672444
-0.00671854
-0.00671412
-0.00671116
-0.00670969
-1.31355e-05
-1.5546e-05
-2.03731e-05
-2.76129e-05
-3.72667e-05
-4.93365e-05
-6.38242e-05
-8.07325e-05
-0.000100064
-0.000121823
-0.000146011
-0.000172633
-0.000201693
-0.000233195
-0.000267143
-0.000303543
-0.000342398
-0.000383714
-0.000427495
-0.000473745
-0.000522469
-0.000573672
-0.000627358
-0.00068353
-0.000742192
-0.000803346
-0.000866995
-0.000933141
-0.00100179
-0.00107293
-0.00114657
-0.0012227
-0.00130134
-0.00138246
-0.00146606
-0.00155215
-0.00164071
-0.00173173
-0.0018252
-0.00192111
-0.00201945
-0.0021202
-0.00222335
-0.00232886
-0.00243673
-0.00254692
-0.00265941
-0.00277417
-0.00289117
-0.00301038
-0.00313175
-0.00325525
-0.00338083
-0.00350845
-0.00363807
-0.00376962
-0.00390306
-0.00403833
-0.00417537
-0.00431411
-0.00445449
-0.00459643
-0.00473987
-0.00488472
-0.00503092
-0.00517837
-0.00532699
-0.00547669
-0.00562738
-0.00577896
-0.00593134
-0.00608442
-0.0062381
-0.00639227
-0.00654682
-0.00670164
-0.00685663
-0.00701166
-0.00716663
-0.00732142
-0.0074759
-0.00762997
-0.00778349
-0.00793636
-0.00808844
-0.00823962
-0.00838977
-0.00853877
-0.0086865
-0.00883285
-0.00897768
-0.00912089
-0.00926235
-0.00940195
-0.00953958
-0.00967512
-0.00980846
-0.0099395
-0.0100681
-0.0101943
-0.0103178
-0.0104386
-0.0105566
-0.0106717
-0.0107839
-0.010893
-0.010999
-0.0111019
-0.0112014
-0.0112976
-0.0113905
-0.0114799
-0.0115658
-0.0116482
-0.0117271
-0.0118023
-0.0118739
-0.0119419
-0.0120061
-0.0120667
-0.0121236
-0.0121768
-0.0122262
-0.012272
-0.0123141
-0.0123524
-0.0123872
-0.0124182
-0.0124457
-0.0124695
-0.0124898
-0.0125066
-0.0125198
-0.0125297
-0.0125361
-0.0125392
-0.012539
-0.0125355
-0.0125289
-0.0125191
-0.0125063
-0.0124904
-0.0124716
-0.01245
-0.0124256
-0.0123984
-0.0123686
-0.0123361
-0.0123012
-0.0122639
-0.0122241
-0.0121821
-0.0121379
-0.0120916
-0.0120432
-0.0119928
-0.0119405
-0.0118865
-0.0118306
-0.0117731
-0.011714
-0.0116534
-0.0115914
-0.011528
-0.0114633
-0.0113974
-0.0113304
-0.0112623
-0.0111932
-0.0111231
-0.0110522
-0.0109805
-0.0109081
-0.0108351
-0.0107614
-0.0106873
-0.0106126
-0.0105376
-0.0104622
-0.0103866
-0.0103107
-0.0102347
-0.0101585
-0.0100823
-0.0100061
-0.00992998
-0.00985393
-0.00977804
-0.00970235
-0.00962691
-0.00955177
-0.00947696
-0.00940254
-0.00932855
-0.00925503
-0.00918201
-0.00910955
-0.00903767
-0.00896641
-0.00889582
-0.00882592
-0.00875675
-0.00868835
-0.00862073
-0.00855395
-0.00848802
-0.00842297
-0.00835883
-0.00829564
-0.00823341
-0.00817217
-0.00811195
-0.00805276
-0.00799464
-0.00793761
-0.00788167
-0.00782687
-0.00777321
-0.00772071
-0.0076694
-0.00761928
-0.00757039
-0.00752272
-0.00747631
-0.00743116
-0.00738729
-0.00734471
-0.00730343
-0.00726347
-0.00722484
-0.00718755
-0.00715161
-0.00711704
-0.00708383
-0.00705201
-0.00702157
-0.00699253
-0.0069649
-0.00693868
-0.00691388
-0.0068905
-0.00686856
-0.00684806
-0.006829
-0.00681138
-0.00679522
-0.00678052
-0.00676728
-0.0067555
-0.00674518
-0.00673634
-0.00672896
-0.00672306
-0.00671863
-0.00671568
-0.0067142
-2.18708e-05
-2.42787e-05
-2.91008e-05
-3.63334e-05
-4.59783e-05
-5.80373e-05
-7.25123e-05
-8.94059e-05
-0.000108721
-0.00013046
-0.000154628
-0.000181228
-0.000210264
-0.00024174
-0.000275661
-0.000312032
-0.000350856
-0.00039214
-0.000435888
-0.000482103
-0.000530792
-0.000581959
-0.000635607
-0.00069174
-0.000750363
-0.000811477
-0.000875086
-0.000941192
-0.0010098
-0.0010809
-0.0011545
-0.00123059
-0.00130918
-0.00139027
-0.00147384
-0.00155988
-0.00164841
-0.00173939
-0.00183283
-0.00192871
-0.00202703
-0.00212775
-0.00223087
-0.00233636
-0.0024442
-0.00255438
-0.00266685
-0.0027816
-0.0028986
-0.0030178
-0.00313917
-0.00326267
-0.00338826
-0.0035159
-0.00364553
-0.0037771
-0.00391057
-0.00404587
-0.00418294
-0.00432172
-0.00446214
-0.00460414
-0.00474763
-0.00489255
-0.00503881
-0.00518633
-0.00533503
-0.00548481
-0.00563559
-0.00578727
-0.00593975
-0.00609293
-0.00624672
-0.006401
-0.00655566
-0.00671061
-0.00686573
-0.00702089
-0.007176
-0.00733092
-0.00748555
-0.00763977
-0.00779344
-0.00794646
-0.00809869
-0.00825003
-0.00840034
-0.0085495
-0.0086974
-0.00884391
-0.00898891
-0.00913228
-0.00927391
-0.00941367
-0.00955146
-0.00968716
-0.00982067
-0.00995187
-0.0100807
-0.0102069
-0.0103306
-0.0104516
-0.0105697
-0.010685
-0.0107973
-0.0109066
-0.0110127
-0.0111156
-0.0112153
-0.0113116
-0.0114046
-0.0114941
-0.0115801
-0.0116626
-0.0117416
-0.0118169
-0.0118885
-0.0119566
-0.0120209
-0.0120815
-0.0121385
-0.0121917
-0.0122412
-0.012287
-0.0123291
-0.0123674
-0.0124022
-0.0124332
-0.0124607
-0.0124845
-0.0125048
-0.0125215
-0.0125348
-0.0125446
-0.012551
-0.012554
-0.0125537
-0.0125502
-0.0125435
-0.0125337
-0.0125208
-0.0125049
-0.012486
-0.0124643
-0.0124398
-0.0124125
-0.0123826
-0.0123501
-0.0123151
-0.0122776
-0.0122378
-0.0121957
-0.0121514
-0.012105
-0.0120565
-0.012006
-0.0119536
-0.0118994
-0.0118435
-0.0117858
-0.0117266
-0.0116659
-0.0116038
-0.0115403
-0.0114755
-0.0114094
-0.0113423
-0.011274
-0.0112048
-0.0111347
-0.0110637
-0.0109919
-0.0109193
-0.0108462
-0.0107724
-0.0106981
-0.0106234
-0.0105482
-0.0104728
-0.010397
-0.010321
-0.0102449
-0.0101686
-0.0100923
-0.010016
-0.00993973
-0.00986358
-0.00978758
-0.00971179
-0.00963625
-0.00956101
-0.0094861
-0.00941158
-0.0093375
-0.00926388
-0.00919077
-0.00911821
-0.00904624
-0.0089749
-0.00890422
-0.00883424
-0.00876498
-0.00869649
-0.0086288
-0.00856194
-0.00849593
-0.0084308
-0.00836659
-0.00830332
-0.00824102
-0.00817971
-0.00811942
-0.00806017
-0.00800199
-0.00794489
-0.00788889
-0.00783402
-0.00778031
-0.00772775
-0.00767638
-0.00762622
-0.00757727
-0.00752956
-0.00748309
-0.00743789
-0.00739398
-0.00735135
-0.00731003
-0.00727003
-0.00723136
-0.00719404
-0.00715806
-0.00712345
-0.00709021
-0.00705835
-0.00702789
-0.00699882
-0.00697116
-0.00694491
-0.00692009
-0.00689669
-0.00687473
-0.0068542
-0.00683512
-0.00681749
-0.00680132
-0.0067866
-0.00677334
-0.00676155
-0.00675123
-0.00674237
-0.00673499
-0.00672908
-0.00672465
-0.0067217
-0.00672022
-3.27927e-05
-3.51978e-05
-4.00144e-05
-4.72386e-05
-5.68725e-05
-6.8918e-05
-8.33772e-05
-0.000100252
-0.000119547
-0.000141263
-0.000165405
-0.000191977
-0.000220983
-0.000252427
-0.000286314
-0.000322648
-0.000361435
-0.000402679
-0.000446384
-0.000492557
-0.000541202
-0.000592322
-0.000645923
-0.000702009
-0.000760582
-0.000821648
-0.000885207
-0.000951262
-0.00101982
-0.00109087
-0.00116442
-0.00124046
-0.001319
-0.00140004
-0.00148356
-0.00156956
-0.00165804
-0.00174898
-0.00184238
-0.00193822
-0.0020365
-0.00213719
-0.00224027
-0.00234574
-0.00245356
-0.00256371
-0.00267617
-0.0027909
-0.00290789
-0.00302708
-0.00314845
-0.00327196
-0.00339756
-0.00352521
-0.00365486
-0.00378646
-0.00391996
-0.0040553
-0.00419242
-0.00433125
-0.00447173
-0.00461379
-0.00475735
-0.00490234
-0.00504869
-0.0051963
-0.00534509
-0.00549498
-0.00564587
-0.00579766
-0.00595027
-0.00610358
-0.0062575
-0.00641192
-0.00656674
-0.00672184
-0.00687712
-0.00703245
-0.00718772
-0.00734283
-0.00749764
-0.00765203
-0.00780589
-0.0079591
-0.00811153
-0.00826307
-0.00841358
-0.00856295
-0.00871105
-0.00885776
-0.00900297
-0.00914654
-0.00928838
-0.00942835
-0.00956634
-0.00970225
-0.00983595
-0.00996735
-0.0100963
-0.0102228
-0.0103467
-0.0104678
-0.0105862
-0.0107016
-0.0108141
-0.0109235
-0.0110298
-0.0111329
-0.0112327
-0.0113292
-0.0114223
-0.0115119
-0.0115981
-0.0116807
-0.0117597
-0.0118351
-0.0119069
-0.011975
-0.0120394
-0.0121001
-0.0121571
-0.0122103
-0.0122599
-0.0123057
-0.0123478
-0.0123862
-0.012421
-0.012452
-0.0124795
-0.0125033
-0.0125236
-0.0125403
-0.0125535
-0.0125632
-0.0125696
-0.0125726
-0.0125722
-0.0125687
-0.0125619
-0.012552
-0.012539
-0.012523
-0.0125041
-0.0124822
-0.0124576
-0.0124303
-0.0124002
-0.0123676
-0.0123325
-0.0122949
-0.012255
-0.0122127
-0.0121683
-0.0121217
-0.0120731
-0.0120225
-0.0119699
-0.0119156
-0.0118595
-0.0118018
-0.0117424
-0.0116816
-0.0116193
-0.0115556
-0.0114906
-0.0114245
-0.0113572
-0.0112888
-0.0112194
-0.0111491
-0.011078
-0.011006
-0.0109334
-0.0108601
-0.0107861
-0.0107117
-0.0106368
-0.0105615
-0.0104859
-0.01041
-0.0103339
-0.0102576
-0.0101812
-0.0101048
-0.0100283
-0.00995193
-0.00987564
-0.00979952
-0.0097236
-0.00964793
-0.00957256
-0.00949753
-0.00942289
-0.00934868
-0.00927495
-0.00920172
-0.00912905
-0.00905697
-0.00898551
-0.00891472
-0.00884463
-0.00877527
-0.00870668
-0.00863889
-0.00857192
-0.00850581
-0.00844059
-0.00837629
-0.00831293
-0.00825054
-0.00818914
-0.00812877
-0.00806943
-0.00801117
-0.00795399
-0.00789791
-0.00784297
-0.00778918
-0.00773656
-0.00768512
-0.00763488
-0.00758587
-0.00753809
-0.00749157
-0.00744631
-0.00740234
-0.00735966
-0.00731828
-0.00727823
-0.00723951
-0.00720214
-0.00716612
-0.00713146
-0.00709818
-0.00706628
-0.00703578
-0.00700668
-0.00697898
-0.0069527
-0.00692785
-0.00690442
-0.00688243
-0.00686188
-0.00684278
-0.00682513
-0.00680893
-0.0067942
-0.00678092
-0.00676912
-0.00675878
-0.00674992
-0.00674253
-0.00673661
-0.00673218
-0.00672922
-0.00672774
-4.59048e-05
-4.83068e-05
-5.31169e-05
-6.03314e-05
-6.99524e-05
-8.1982e-05
-9.64221e-05
-0.000113275
-0.000132545
-0.000154233
-0.000178345
-0.000204884
-0.000233853
-0.000265259
-0.000299105
-0.000335396
-0.000374137
-0.000415333
-0.000458989
-0.00050511
-0.000553701
-0.000604767
-0.000658312
-0.00071434
-0.000772856
-0.000833861
-0.000897361
-0.000963356
-0.00103185
-0.00110284
-0.00117633
-0.00125232
-0.0013308
-0.00141177
-0.00149524
-0.00158118
-0.00166961
-0.0017605
-0.00185385
-0.00194964
-0.00204787
-0.00214852
-0.00225157
-0.002357
-0.00246479
-0.00257492
-0.00268736
-0.00280208
-0.00291905
-0.00303824
-0.00315961
-0.00328312
-0.00340873
-0.0035364
-0.00366608
-0.00379771
-0.00393125
-0.00406664
-0.0042038
-0.0043427
-0.00448325
-0.00462538
-0.00476903
-0.00491412
-0.00506056
-0.00520828
-0.00535719
-0.0055072
-0.00565822
-0.00581016
-0.00596291
-0.00611638
-0.00627047
-0.00642506
-0.00658006
-0.00673535
-0.00689081
-0.00704634
-0.00720182
-0.00735714
-0.00751216
-0.00766678
-0.00782087
-0.00797431
-0.00812698
-0.00827875
-0.0084295
-0.00857911
-0.00872746
-0.00887442
-0.00901987
-0.0091637
-0.00930578
-0.009446
-0.00958424
-0.00972039
-0.00985434
-0.00998598
-0.0101152
-0.0102419
-0.010366
-0.0104874
-0.0106059
-0.0107216
-0.0108343
-0.0109439
-0.0110504
-0.0111537
-0.0112537
-0.0113503
-0.0114436
-0.0115334
-0.0116197
-0.0117024
-0.0117815
-0.0118571
-0.0119289
-0.0119971
-0.0120616
-0.0121224
-0.0121795
-0.0122328
-0.0122824
-0.0123283
-0.0123704
-0.0124088
-0.0124436
-0.0124747
-0.0125021
-0.0125259
-0.0125461
-0.0125628
-0.012576
-0.0125857
-0.012592
-0.0125949
-0.0125945
-0.0125908
-0.012584
-0.012574
-0.0125609
-0.0125448
-0.0125257
-0.0125038
-0.012479
-0.0124515
-0.0124214
-0.0123886
-0.0123534
-0.0123156
-0.0122755
-0.0122332
-0.0121886
-0.0121418
-0.012093
-0.0120423
-0.0119896
-0.0119351
-0.0118788
-0.0118209
-0.0117614
-0.0117003
-0.0116379
-0.011574
-0.0115089
-0.0114426
-0.0113751
-0.0113065
-0.011237
-0.0111665
-0.0110952
-0.011023
-0.0109502
-0.0108767
-0.0108026
-0.010728
-0.010653
-0.0105775
-0.0105017
-0.0104256
-0.0103493
-0.0102729
-0.0101963
-0.0101197
-0.0100431
-0.00996657
-0.00989013
-0.00981385
-0.00973777
-0.00966195
-0.00958643
-0.00951125
-0.00943647
-0.00936211
-0.00928823
-0.00921487
-0.00914206
-0.00906984
-0.00899825
-0.00892733
-0.00885711
-0.00878763
-0.00871891
-0.00865099
-0.00858391
-0.00851768
-0.00845235
-0.00838793
-0.00832446
-0.00826196
-0.00820046
-0.00813998
-0.00808055
-0.00802218
-0.00796491
-0.00790874
-0.00785371
-0.00779983
-0.00774712
-0.0076956
-0.00764528
-0.00759619
-0.00754834
-0.00750174
-0.00745641
-0.00741237
-0.00736962
-0.00732818
-0.00728807
-0.00724929
-0.00721186
-0.00717578
-0.00714108
-0.00710774
-0.0070758
-0.00704525
-0.0070161
-0.00698837
-0.00696205
-0.00693716
-0.0069137
-0.00689167
-0.00687109
-0.00685196
-0.00683429
-0.00681807
-0.00680331
-0.00679002
-0.0067782
-0.00676784
-0.00675897
-0.00675157
-0.00674564
-0.0067412
-0.00673824
-0.00673676
-6.12114e-05
-6.36096e-05
-6.84123e-05
-7.56156e-05
-8.52218e-05
-9.72329e-05
-0.000111651
-0.000128479
-0.000147719
-0.000169376
-0.000193452
-0.000219952
-0.00024888
-0.00028024
-0.000314038
-0.000350279
-0.000388967
-0.000430107
-0.000473706
-0.000519767
-0.000568296
-0.000619298
-0.000672778
-0.000728739
-0.000787187
-0.000848124
-0.000911553
-0.000977478
-0.0010459
-0.00111682
-0.00119024
-0.00126616
-0.00134457
-0.00142548
-0.00150888
-0.00159476
-0.00168312
-0.00177395
-0.00186724
-0.00196299
-0.00206116
-0.00216176
-0.00226477
-0.00237016
-0.00247792
-0.00258801
-0.00270043
-0.00281513
-0.00293209
-0.00305127
-0.00317264
-0.00329616
-0.00342179
-0.00354948
-0.00367919
-0.00381086
-0.00394444
-0.00407988
-0.00421711
-0.00435608
-0.00449671
-0.00463893
-0.00478268
-0.00492788
-0.00507444
-0.00522229
-0.00537133
-0.00552149
-0.00567267
-0.00582477
-0.0059777
-0.00613135
-0.00628563
-0.00644042
-0.00659563
-0.00675113
-0.00690683
-0.00706259
-0.00721831
-0.00737388
-0.00752916
-0.00768403
-0.00783839
-0.0079921
-0.00814504
-0.00829709
-0.00844813
-0.00859802
-0.00874666
-0.00889391
-0.00903965
-0.00918377
-0.00932614
-0.00946665
-0.00960518
-0.00974162
-0.00987585
-0.0100078
-0.0101373
-0.0102642
-0.0103886
-0.0105102
-0.0106291
-0.010745
-0.0108579
-0.0109678
-0.0110745
-0.011178
-0.0112782
-0.011375
-0.0114685
-0.0115584
-0.0116449
-0.0117278
-0.0118071
-0.0118828
-0.0119548
-0.0120231
-0.0120877
-0.0121485
-0.0122057
-0.0122591
-0.0123087
-0.0123546
-0.0123968
-0.0124353
-0.01247
-0.0125011
-0.0125285
-0.0125523
-0.0125725
-0.0125891
-0.0126023
-0.0126119
-0.0126181
-0.012621
-0.0126205
-0.0126167
-0.0126098
-0.0125997
-0.0125865
-0.0125702
-0.0125511
-0.012529
-0.0125041
-0.0124764
-0.0124461
-0.0124132
-0.0123778
-0.0123399
-0.0122996
-0.0122571
-0.0122123
-0.0121653
-0.0121164
-0.0120654
-0.0120125
-0.0119578
-0.0119014
-0.0118432
-0.0117835
-0.0117223
-0.0116596
-0.0115956
-0.0115302
-0.0114637
-0.011396
-0.0113272
-0.0112575
-0.0111868
-0.0111152
-0.0110429
-0.0109699
-0.0108962
-0.0108219
-0.0107471
-0.0106718
-0.0105962
-0.0105202
-0.0104439
-0.0103674
-0.0102908
-0.010214
-0.0101372
-0.0100604
-0.00998367
-0.00990705
-0.00983058
-0.00975432
-0.00967832
-0.00960262
-0.00952727
-0.00945231
-0.00937779
-0.00930375
-0.00923022
-0.00915724
-0.00908487
-0.00901312
-0.00894205
-0.00887168
-0.00880204
-0.00873318
-0.00866512
-0.00859789
-0.00853153
-0.00846606
-0.00840151
-0.00833791
-0.00827529
-0.00821366
-0.00815306
-0.00809351
-0.00803503
-0.00797764
-0.00792137
-0.00786623
-0.00781225
-0.00775944
-0.00770782
-0.00765741
-0.00760823
-0.00756028
-0.0075136
-0.00746819
-0.00742406
-0.00738124
-0.00733973
-0.00729954
-0.00726069
-0.0072232
-0.00718706
-0.00715229
-0.0071189
-0.0070869
-0.00705629
-0.00702709
-0.00699931
-0.00697295
-0.00694801
-0.00692451
-0.00690245
-0.00688184
-0.00686267
-0.00684497
-0.00682872
-0.00681394
-0.00680062
-0.00678878
-0.00677841
-0.00676952
-0.00676211
-0.00675617
-0.00675172
-0.00674875
-0.00674727
-7.8717e-05
-8.11109e-05
-8.5905e-05
-9.30957e-05
-0.000102685
-0.000114675
-0.000129068
-0.000145867
-0.000165075
-0.000186694
-0.00021073
-0.000237186
-0.000266066
-0.000297376
-0.000331119
-0.000367303
-0.00040593
-0.000447008
-0.00049054
-0.000536533
-0.000584992
-0.000635921
-0.000689326
-0.000745212
-0.000803582
-0.00086444
-0.000927791
-0.000993636
-0.00106198
-0.00113282
-0.00120616
-0.001282
-0.00136033
-0.00144116
-0.00152448
-0.00161029
-0.00169858
-0.00178935
-0.00188257
-0.00197825
-0.00207637
-0.00217692
-0.00227988
-0.00238522
-0.00249294
-0.00260301
-0.00271539
-0.00283007
-0.00294702
-0.00306619
-0.00318757
-0.0033111
-0.00343674
-0.00356446
-0.0036942
-0.00382591
-0.00395955
-0.00409505
-0.00423236
-0.0043714
-0.00451213
-0.00465445
-0.00479832
-0.00494364
-0.00509033
-0.00523833
-0.00538753
-0.00553786
-0.00568921
-0.00584151
-0.00599463
-0.0061485
-0.006303
-0.00645803
-0.00661347
-0.00676923
-0.00692518
-0.00708121
-0.00723721
-0.00739306
-0.00754863
-0.00770381
-0.00785847
-0.00801249
-0.00816575
-0.00831812
-0.00846948
-0.0086197
-0.00876867
-0.00891625
-0.00906233
-0.00920678
-0.00934949
-0.00949033
-0.00962919
-0.00976596
-0.00990052
-0.0100328
-0.0101626
-0.0102899
-0.0104145
-0.0105365
-0.0106556
-0.0107718
-0.010885
-0.0109951
-0.0111021
-0.0112058
-0.0113063
-0.0114033
-0.011497
-0.0115872
-0.0116738
-0.0117569
-0.0118364
-0.0119122
-0.0119844
-0.0120528
-0.0121175
-0.0121785
-0.0122357
-0.0122892
-0.0123389
-0.0123849
-0.0124271
-0.0124656
-0.0125003
-0.0125314
-0.0125588
-0.0125826
-0.0126028
-0.0126193
-0.0126324
-0.012642
-0.0126481
-0.0126509
-0.0126503
-0.0126464
-0.0126394
-0.0126291
-0.0126158
-0.0125994
-0.0125801
-0.0125578
-0.0125328
-0.012505
-0.0124745
-0.0124414
-0.0124057
-0.0123676
-0.0123272
-0.0122844
-0.0122394
-0.0121923
-0.0121431
-0.0120919
-0.0120388
-0.0119839
-0.0119272
-0.0118688
-0.0118089
-0.0117474
-0.0116845
-0.0116202
-0.0115546
-0.0114879
-0.0114199
-0.0113509
-0.0112809
-0.01121
-0.0111382
-0.0110657
-0.0109924
-0.0109184
-0.0108439
-0.0107689
-0.0106934
-0.0106175
-0.0105413
-0.0104648
-0.0103881
-0.0103112
-0.0102342
-0.0101572
-0.0100802
-0.0100032
-0.00992639
-0.00984971
-0.00977325
-0.00969704
-0.00962114
-0.00954559
-0.00947044
-0.00939572
-0.00932148
-0.00924777
-0.00917461
-0.00910205
-0.00903012
-0.00895887
-0.00888833
-0.00881852
-0.00874949
-0.00868127
-0.00861388
-0.00854736
-0.00848174
-0.00841704
-0.00835329
-0.00829052
-0.00822876
-0.00816802
-0.00810833
-0.00804972
-0.0079922
-0.00793581
-0.00788055
-0.00782644
-0.00777352
-0.00772179
-0.00767127
-0.00762198
-0.00757394
-0.00752715
-0.00748165
-0.00743743
-0.00739452
-0.00735292
-0.00731265
-0.00727372
-0.00723615
-0.00719993
-0.00716509
-0.00713164
-0.00709957
-0.00706891
-0.00703965
-0.00701181
-0.0069854
-0.00696041
-0.00693687
-0.00691476
-0.00689411
-0.00687491
-0.00685717
-0.00684089
-0.00682608
-0.00681274
-0.00680087
-0.00679048
-0.00678157
-0.00677415
-0.0067682
-0.00676374
-0.00676077
-0.00675928
-9.84266e-05
-0.000100816
-0.0001056
-0.000112777
-0.000122347
-0.000134314
-0.000148679
-0.000165445
-0.000184616
-0.000206194
-0.000230185
-0.000256591
-0.000285418
-0.000316671
-0.000350354
-0.000386472
-0.000425032
-0.000466039
-0.000509497
-0.000555414
-0.000603793
-0.000654642
-0.000707963
-0.000763764
-0.000822047
-0.000882818
-0.000946079
-0.00101183
-0.00108009
-0.00115084
-0.00122409
-0.00129984
-0.00137809
-0.00145883
-0.00154207
-0.0016278
-0.00171601
-0.00180669
-0.00189985
-0.00199546
-0.00209351
-0.002194
-0.0022969
-0.0024022
-0.00250987
-0.0026199
-0.00273226
-0.00284692
-0.00296385
-0.00308301
-0.00320439
-0.00332793
-0.00345359
-0.00358134
-0.00371112
-0.00384288
-0.00397658
-0.00411215
-0.00424954
-0.00438868
-0.00452951
-0.00467196
-0.00481595
-0.00496141
-0.00510826
-0.00525642
-0.00540581
-0.00555632
-0.00570788
-0.00586039
-0.00601374
-0.00616785
-0.0063226
-0.00647789
-0.00663361
-0.00678964
-0.00694589
-0.00710223
-0.00725854
-0.00741471
-0.00757061
-0.00772612
-0.00788113
-0.0080355
-0.00818912
-0.00834186
-0.00849358
-0.00864418
-0.00879352
-0.00894148
-0.00908793
-0.00923276
-0.00937585
-0.00951707
-0.00965631
-0.00979344
-0.00992837
-0.010061
-0.0101912
-0.0103188
-0.0104438
-0.0105661
-0.0106855
-0.010802
-0.0109156
-0.011026
-0.0111333
-0.0112373
-0.011338
-0.0114353
-0.0115292
-0.0116197
-0.0117065
-0.0117898
-0.0118695
-0.0119455
-0.0120178
-0.0120864
-0.0121512
-0.0122123
-0.0122696
-0.0123232
-0.012373
-0.012419
-0.0124613
-0.0124998
-0.0125346
-0.0125656
-0.012593
-0.0126168
-0.0126369
-0.0126534
-0.0126664
-0.0126759
-0.012682
-0.0126846
-0.0126839
-0.01268
-0.0126727
-0.0126624
-0.0126489
-0.0126323
-0.0126128
-0.0125904
-0.0125652
-0.0125371
-0.0125064
-0.0124731
-0.0124373
-0.012399
-0.0123583
-0.0123153
-0.01227
-0.0122227
-0.0121732
-0.0121218
-0.0120684
-0.0120132
-0.0119563
-0.0118977
-0.0118375
-0.0117757
-0.0117125
-0.011648
-0.0115822
-0.0115151
-0.0114469
-0.0113776
-0.0113074
-0.0112362
-0.0111641
-0.0110913
-0.0110177
-0.0109435
-0.0108688
-0.0107935
-0.0107177
-0.0106415
-0.0105651
-0.0104883
-0.0104113
-0.0103342
-0.010257
-0.0101797
-0.0101024
-0.0100253
-0.00994818
-0.00987126
-0.00979456
-0.00971812
-0.00964199
-0.00956622
-0.00949084
-0.0094159
-0.00934145
-0.00926752