/*--------------------------------*- C++ -*----------------------------------*\
| =========                 |                                                 |
| \\      /  F ield         | OpenFOAM: The Open Source CFD Toolbox           |
|  \\    /   O peration     | Version:  v2012                                 |
|   \\  /    A nd           | Website:  www.openfoam.com                      |
|    \\/     M anipulation  |                                                 |
\*---------------------------------------------------------------------------*/
FoamFile
{
    version     2.0;
    format      ascii;
    class       surfaceScalarField;
    location    "7.5";
    object      phi;
}
// * * * * * * * * * * * * * * * * * * * * * * * * * * * * * * * * * * * * * //

dimensions      [0 3 -1 0 0 0 0];
oriented        oriented;


internalField   nonuniform List<scalar> 
130560
(
3.72086e-06
-3.72083e-06
7.44166e-06
-3.7208e-06
1.11624e-05
-3.72071e-06
1.4883e-05
-3.72058e-06
1.86034e-05
-3.7204e-06
2.23235e-05
-3.72016e-06
2.60434e-05
-3.71987e-06
2.97629e-05
-3.71951e-06
3.3482e-05
-3.71909e-06
3.72006e-05
-3.7186e-06
4.09186e-05
-3.71802e-06
4.4636e-05
-3.71735e-06
4.83525e-05
-3.71659e-06
5.20683e-05
-3.71572e-06
5.5783e-05
-3.71473e-06
5.94966e-05
-3.71362e-06
6.3209e-05
-3.71236e-06
6.69199e-05
-3.71096e-06
7.06293e-05
-3.70939e-06
7.4337e-05
-3.70764e-06
7.80427e-05
-3.70569e-06
8.17462e-05
-3.70354e-06
8.54474e-05
-3.70116e-06
8.91459e-05
-3.69854e-06
9.28416e-05
-3.69566e-06
9.65341e-05
-3.69251e-06
0.000100223
-3.68905e-06
0.000103908
-3.68528e-06
0.00010759
-3.68118e-06
0.000111266
-3.67672e-06
0.000114938
-3.67188e-06
0.000118605
-3.66665e-06
0.000122266
-3.66099e-06
0.000125921
-3.65489e-06
0.000129569
-3.64832e-06
0.00013321
-3.64126e-06
0.000136844
-3.63369e-06
0.00014047
-3.62558e-06
0.000144086
-3.6169e-06
0.000147694
-3.60764e-06
0.000151292
-3.59776e-06
0.000154879
-3.58725e-06
0.000158455
-3.57607e-06
0.000162019
-3.5642e-06
0.000165571
-3.55162e-06
0.000169109
-3.5383e-06
0.000172634
-3.52421e-06
0.000176143
-3.50933e-06
0.000179636
-3.49363e-06
0.000183114
-3.47709e-06
0.000186573
-3.45968e-06
0.000190015
-3.44138e-06
0.000193437
-3.42216e-06
0.000196839
-3.40201e-06
0.00020022
-3.38089e-06
0.000203578
-3.35879e-06
0.000206914
-3.33569e-06
0.000210226
-3.31156e-06
0.000213512
-3.28638e-06
0.000216772
-3.26014e-06
0.000220005
-3.23281e-06
0.000223209
-3.20438e-06
0.000226384
-3.17484e-06
0.000229528
-3.14417e-06
0.000232641
-3.11235e-06
0.00023572
-3.07937e-06
0.000238765
-3.04523e-06
0.000241775
-3.00991e-06
0.000244749
-2.9734e-06
0.000247684
-2.9357e-06
0.000250581
-2.89681e-06
0.000253438
-2.85672e-06
0.000256253
-2.81543e-06
0.000259026
-2.77294e-06
0.000261756
-2.72925e-06
0.00026444
-2.68437e-06
0.000267078
-2.6383e-06
0.000269669
-2.59106e-06
0.000272212
-2.54264e-06
0.000274705
-2.49307e-06
0.000277147
-2.44236e-06
0.000279538
-2.39051e-06
0.000281875
-2.33756e-06
0.000284159
-2.28352e-06
0.000286387
-2.22841e-06
0.00028856
-2.17225e-06
0.000290675
-2.11507e-06
0.000292732
-2.0569e-06
0.000294729
-1.99777e-06
0.000296667
-1.9377e-06
0.000298544
-1.87673e-06
0.000300359
-1.81489e-06
0.000302111
-1.75222e-06
0.0003038
-1.68875e-06
0.000305424
-1.62453e-06
0.000306984
-1.55959e-06
0.000308478
-1.49397e-06
0.000309905
-1.42773e-06
0.000311266
-1.36089e-06
0.00031256
-1.29351e-06
0.000313785
-1.22562e-06
0.000314943
-1.15729e-06
0.000316031
-1.08855e-06
0.000317051
-1.01945e-06
0.000318001
-9.50033e-07
0.000318881
-8.80357e-07
0.000319692
-8.10466e-07
0.000320432
-7.40409e-07
0.000321102
-6.70235e-07
0.000321702
-5.99992e-07
0.000322232
-5.29728e-07
0.000322691
-4.59493e-07
0.000323081
-3.89334e-07
0.0003234
-3.19298e-07
0.000323649
-2.49433e-07
0.000323829
-1.79784e-07
0.00032394
-1.10397e-07
0.000323981
-4.13168e-08
0.000323954
2.74128e-08
0.000323858
9.57496e-08
0.000323694
1.63652e-07
0.000323463
2.31079e-07
0.000323165
2.97991e-07
0.000322801
3.64352e-07
0.000322371
4.30123e-07
0.000321875
4.9527e-07
0.000321316
5.5976e-07
0.000320692
6.23558e-07
0.000320005
6.86635e-07
0.000319256
7.48962e-07
0.000318446
8.10509e-07
0.000317575
8.71251e-07
0.000316644
9.31162e-07
0.000315653
9.90221e-07
0.000314605
1.0484e-06
0.000313499
1.10569e-06
0.000312337
1.16207e-06
0.00031112
1.21751e-06
0.000309848
1.27201e-06
0.000308522
1.32556e-06
0.000307144
1.37813e-06
0.000305714
1.42971e-06
0.000304234
1.48031e-06
0.000302704
1.52991e-06
0.000301125
1.5785e-06
0.000299499
1.62608e-06
0.000297827
1.67265e-06
0.000296109
1.7182e-06
0.000294346
1.76273e-06
0.00029254
1.80625e-06
0.000290691
1.84875e-06
0.000288801
1.89023e-06
0.00028687
1.9307e-06
0.0002849
1.97017e-06
0.000282891
2.00863e-06
0.000280845
2.0461e-06
0.000278762
2.08258e-06
0.000276644
2.11809e-06
0.000274492
2.15262e-06
0.000272306
2.18619e-06
0.000270087
2.21881e-06
0.000267836
2.25048e-06
0.000265555
2.28123e-06
0.000263244
2.31107e-06
0.000260904
2.34e-06
0.000258536
2.36804e-06
0.000256141
2.3952e-06
0.000253719
2.4215e-06
0.000251272
2.44695e-06
0.000248801
2.47157e-06
0.000246305
2.49536e-06
0.000243787
2.51836e-06
0.000241246
2.54057e-06
0.000238684
2.562e-06
0.000236102
2.58268e-06
0.000233499
2.60262e-06
0.000230877
2.62183e-06
0.000228237
2.64033e-06
0.000225579
2.65814e-06
0.000222904
2.67527e-06
0.000220212
2.69175e-06
0.000217504
2.70758e-06
0.000214781
2.72278e-06
0.000212044
2.73737e-06
0.000209293
2.75136e-06
0.000206528
2.76478e-06
0.00020375
2.77763e-06
0.00020096
2.78993e-06
0.000198159
2.8017e-06
0.000195346
2.81295e-06
0.000192522
2.8237e-06
0.000189688
2.83397e-06
0.000186844
2.84376e-06
0.000183991
2.85309e-06
0.000181129
2.86199e-06
0.000178259
2.87045e-06
0.00017538
2.8785e-06
0.000172494
2.88615e-06
0.000169601
2.89341e-06
0.0001667
2.9003e-06
0.000163794
2.90683e-06
0.000160881
2.91302e-06
0.000157962
2.91887e-06
0.000155037
2.9244e-06
0.000152108
2.92962e-06
0.000149173
2.93454e-06
0.000146234
2.93918e-06
0.00014329
2.94354e-06
0.000140343
2.94764e-06
0.000137391
2.95149e-06
0.000134436
2.9551e-06
0.000131478
2.95848e-06
0.000128516
2.96163e-06
0.000125551
2.96458e-06
0.000122584
2.96733e-06
0.000119614
2.96989e-06
0.000116642
2.97226e-06
0.000113668
2.97446e-06
0.000110691
2.9765e-06
0.000107713
2.97838e-06
0.000104733
2.98012e-06
0.000101751
2.98172e-06
9.87676e-05
2.98319e-06
9.57831e-05
2.98453e-06
9.27973e-05
2.98576e-06
8.98105e-05
2.98688e-06
8.68226e-05
2.98789e-06
8.38338e-05
2.98881e-06
8.08441e-05
2.98964e-06
7.78537e-05
2.99039e-06
7.48627e-05
2.99106e-06
7.1871e-05
2.99166e-06
6.88788e-05
2.99219e-06
6.58861e-05
2.99267e-06
6.28931e-05
2.99308e-06
5.98996e-05
2.99345e-06
5.69059e-05
2.99377e-06
5.39118e-05
2.99404e-06
5.09175e-05
2.99428e-06
4.7923e-05
2.99448e-06
4.49284e-05
2.99466e-06
4.19336e-05
2.9948e-06
3.89387e-05
2.99492e-06
3.59436e-05
2.99502e-06
3.29485e-05
2.99511e-06
2.99534e-05
2.99517e-06
2.69581e-05
2.99523e-06
2.39629e-05
2.99527e-06
2.09676e-05
2.9953e-06
1.79722e-05
2.99533e-06
1.49769e-05
2.99535e-06
1.19815e-05
2.99536e-06
8.98616e-06
2.99537e-06
5.99078e-06
2.99538e-06
2.99539e-06
2.99539e-06
2.99539e-06
3.7209e-06
-7.44173e-06
7.44176e-06
-7.44165e-06
1.11625e-05
-7.44148e-06
1.48832e-05
-7.44122e-06
1.86036e-05
-7.44085e-06
2.23238e-05
-7.44039e-06
2.60438e-05
-7.4398e-06
2.97634e-05
-7.4391e-06
3.34825e-05
-7.43826e-06
3.72012e-05
-7.43727e-06
4.09193e-05
-7.43613e-06
4.46368e-05
-7.4348e-06
4.83535e-05
-7.43329e-06
5.20693e-05
-7.43156e-06
5.57842e-05
-7.4296e-06
5.94979e-05
-7.42738e-06
6.32104e-05
-7.42488e-06
6.69216e-05
-7.42208e-06
7.06311e-05
-7.41896e-06
7.4339e-05
-7.41547e-06
7.80449e-05
-7.4116e-06
8.17486e-05
-7.40731e-06
8.54501e-05
-7.40257e-06
8.91489e-05
-7.39735e-06
9.28448e-05
-7.39161e-06
9.65376e-05
-7.38531e-06
0.000100227
-7.37843e-06
0.000103913
-7.37091e-06
0.000107594
-7.36272e-06
0.000111271
-7.35382e-06
0.000114944
-7.34417e-06
0.000118611
-7.33372e-06
0.000122272
-7.32242e-06
0.000125927
-7.31024e-06
0.000129576
-7.29713e-06
0.000133218
-7.28304e-06
0.000136852
-7.26792e-06
0.000140478
-7.25172e-06
0.000144096
-7.23439e-06
0.000147704
-7.21589e-06
0.000151303
-7.19617e-06
0.00015489
-7.17517e-06
0.000158467
-7.15284e-06
0.000162032
-7.12913e-06
0.000165584
-7.10399e-06
0.000169124
-7.07736e-06
0.000172649
-7.04921e-06
0.000176159
-7.01947e-06
0.000179653
-6.9881e-06
0.000183131
-6.95504e-06
0.000186592
-6.92025e-06
0.000190034
-6.88367e-06
0.000193457
-6.84526e-06
0.00019686
-6.80498e-06
0.000200242
-6.76277e-06
0.000203602
-6.71859e-06
0.000206938
-6.6724e-06
0.000210251
-6.62416e-06
0.000213538
-6.57383e-06
0.0002168
-6.52136e-06
0.000220034
-6.46672e-06
0.000223239
-6.40989e-06
0.000226415
-6.35081e-06
0.00022956
-6.28948e-06
0.000232674
-6.22585e-06
0.000235754
-6.15991e-06
0.000238801
-6.09163e-06
0.000241812
-6.021e-06
0.000244787
-5.94799e-06
0.000247723
-5.8726e-06
0.000250621
-5.79482e-06
0.000253479
-5.71464e-06
0.000256296
-5.63205e-06
0.00025907
-5.54707e-06
0.000261801
-5.45969e-06
0.000264486
-5.36992e-06
0.000267126
-5.27778e-06
0.000269718
-5.18328e-06
0.000272262
-5.08644e-06
0.000274756
-4.98729e-06
0.000277199
-4.88584e-06
0.000279591
-4.78214e-06
0.00028193
-4.67622e-06
0.000284214
-4.56811e-06
0.000286444
-4.45786e-06
0.000288617
-4.34552e-06
0.000290733
-4.23114e-06
0.000292791
-4.11477e-06
0.00029479
-3.99647e-06
0.000296728
-3.8763e-06
0.000298606
-3.75432e-06
0.000300421
-3.63061e-06
0.000302175
-3.50523e-06
0.000303864
-3.37826e-06
0.000305489
-3.24977e-06
0.00030705
-3.11985e-06
0.000308544
-2.98858e-06
0.000309972
-2.85604e-06
0.000311334
-2.72232e-06
0.000312628
-2.58751e-06
0.000313854
-2.4517e-06
0.000315012
-2.31499e-06
0.000316101
-2.17746e-06
0.00031712
-2.0392e-06
0.000318071
-1.90033e-06
0.000318951
-1.76093e-06
0.000319762
-1.6211e-06
0.000320502
-1.48094e-06
0.000321173
-1.34054e-06
0.000321773
-1.20001e-06
0.000322302
-1.05943e-06
0.000322762
-9.18913e-07
0.000323151
-7.78547e-07
0.00032347
-6.38428e-07
0.000323719
-4.98651e-07
0.000323899
-3.59308e-07
0.000324009
-2.2049e-07
0.00032405
-8.22858e-08
0.000324022
5.52165e-08
0.000323926
1.91932e-07
0.000323762
3.27776e-07
0.00032353
4.62669e-07
0.000323232
5.96533e-07
0.000322867
7.2929e-07
0.000322436
8.60868e-07
0.00032194
9.91197e-07
0.00032138
1.12021e-06
0.000320755
1.24784e-06
0.000320068
1.37402e-06
0.000319318
1.4987e-06
0.000318507
1.62182e-06
0.000317635
1.74333e-06
0.000316703
1.86318e-06
0.000315712
1.98131e-06
0.000314662
2.0977e-06
0.000313556
2.2123e-06
0.000312393
2.32507e-06
0.000311174
2.43597e-06
0.000309901
2.54499e-06
0.000308575
2.65208e-06
0.000307196
2.75723e-06
0.000305765
2.86042e-06
0.000304284
2.96162e-06
0.000302753
3.06082e-06
0.000301173
3.15801e-06
0.000299546
3.25318e-06
0.000297873
3.34632e-06
0.000296153
3.43742e-06
0.00029439
3.52648e-06
0.000292582
3.61351e-06
0.000290733
3.69851e-06
0.000288841
3.78147e-06
0.00028691
3.86241e-06
0.000284938
3.94134e-06
0.000282929
4.01826e-06
0.000280882
4.09319e-06
0.000278798
4.16615e-06
0.000276679
4.23714e-06
0.000274526
4.3062e-06
0.000272338
4.37333e-06
0.000270119
4.43855e-06
0.000267867
4.5019e-06
0.000265585
4.56339e-06
0.000263273
4.62304e-06
0.000260932
4.68089e-06
0.000258563
4.73695e-06
0.000256167
4.79126e-06
0.000253745
4.84385e-06
0.000251297
4.89473e-06
0.000248825
4.94395e-06
0.000246329
4.99153e-06
0.000243809
5.03751e-06
0.000241268
5.08191e-06
0.000238705
5.12476e-06
0.000236122
5.1661e-06
0.000233519
5.20596e-06
0.000230896
5.24437e-06
0.000228255
5.28136e-06
0.000225596
5.31696e-06
0.00022292
5.35121e-06
0.000220228
5.38414e-06
0.00021752
5.41578e-06
0.000214796
5.44617e-06
0.000212058
5.47534e-06
0.000209306
5.50331e-06
0.000206541
5.53012e-06
0.000203763
5.55581e-06
0.000200972
5.58039e-06
0.00019817
5.60392e-06
0.000195357
5.62641e-06
0.000192533
5.64789e-06
0.000189698
5.66841e-06
0.000186854
5.68798e-06
0.000184
5.70663e-06
0.000181138
5.7244e-06
0.000178267
5.74132e-06
0.000175388
5.7574e-06
0.000172502
5.77269e-06
0.000169608
5.7872e-06
0.000166707
5.80097e-06
0.0001638
5.81402e-06
0.000160887
5.82637e-06
0.000157967
5.83806e-06
0.000155043
5.8491e-06
0.000152113
5.85953e-06
0.000149178
5.86937e-06
0.000146238
5.87863e-06
0.000143295
5.88734e-06
0.000140347
5.89554e-06
0.000137395
5.90322e-06
0.00013444
5.91043e-06
0.000131481
5.91718e-06
0.000128519
5.92348e-06
0.000125554
5.92937e-06
0.000122587
5.93485e-06
0.000119617
5.93996e-06
0.000116644
5.9447e-06
0.00011367
5.94909e-06
0.000110693
5.95316e-06
0.000107715
5.95692e-06
0.000104734
5.96039e-06
0.000101752
5.96357e-06
9.87691e-05
5.9665e-06
9.57845e-05
5.96918e-06
9.27986e-05
5.97163e-06
8.98116e-05
5.97386e-06
8.68236e-05
5.97588e-06
8.38347e-05
5.97772e-06
8.0845e-05
5.97937e-06
7.78545e-05
5.98086e-06
7.48634e-05
5.9822e-06
7.18716e-05
5.98339e-06
6.88794e-05
5.98445e-06
6.58866e-05
5.98539e-06
6.28935e-05
5.98622e-06
5.99e-05
5.98694e-06
5.69062e-05
5.98758e-06
5.39121e-05
5.98812e-06
5.09178e-05
5.9886e-06
4.79233e-05
5.989e-06
4.49286e-05
5.98934e-06
4.19338e-05
5.98963e-06
3.89388e-05
5.98987e-06
3.59438e-05
5.99007e-06
3.29487e-05
5.99023e-06
2.99535e-05
5.99036e-06
2.69582e-05
5.99047e-06
2.39629e-05
5.99055e-06
2.09676e-05
5.99062e-06
1.79723e-05
5.99067e-06
1.49769e-05
5.99071e-06
1.19816e-05
5.99073e-06
8.98618e-06
5.99076e-06
5.99079e-06
5.99077e-06
2.99539e-06
5.99078e-06
5.99078e-06
3.721e-06
-1.11627e-05
7.44195e-06
-1.11626e-05
1.11628e-05
-1.11624e-05
1.48836e-05
-1.1162e-05
1.86041e-05
-1.11614e-05
2.23245e-05
-1.11607e-05
2.60445e-05
-1.11599e-05
2.97643e-05
-1.11588e-05
3.34836e-05
-1.11576e-05
3.72024e-05
-1.11561e-05
4.09207e-05
-1.11544e-05
4.46384e-05
-1.11525e-05
4.83553e-05
-1.11502e-05
5.20714e-05
-1.11476e-05
5.57865e-05
-1.11447e-05
5.95005e-05
-1.11414e-05
6.32134e-05
-1.11377e-05
6.69248e-05
-1.11335e-05
7.06347e-05
-1.11289e-05
7.4343e-05
-1.11237e-05
7.80493e-05
-1.11179e-05
8.17535e-05
-1.11115e-05
8.54554e-05
-1.11045e-05
8.91547e-05
-1.10967e-05
9.28513e-05
-1.10881e-05
9.65447e-05
-1.10787e-05
0.000100235
-1.10684e-05
0.000103921
-1.10572e-05
0.000107603
-1.1045e-05
0.000111281
-1.10317e-05
0.000114954
-1.10173e-05
0.000118622
-1.10016e-05
0.000122284
-1.09848e-05
0.000125941
-1.09665e-05
0.000129591
-1.09469e-05
0.000133233
-1.09259e-05
0.000136869
-1.09032e-05
0.000140496
-1.0879e-05
0.000144115
-1.08531e-05
0.000147724
-1.08254e-05
0.000151324
-1.07959e-05
0.000154913
-1.07644e-05
0.000158491
-1.0731e-05
0.000162058
-1.06955e-05
0.000165611
-1.06578e-05
0.000169152
-1.0618e-05
0.000172679
-1.05758e-05
0.00017619
-1.05313e-05
0.000179686
-1.04843e-05
0.000183166
-1.04347e-05
0.000186629
-1.03826e-05
0.000190073
-1.03278e-05
0.000193498
-1.02702e-05
0.000196903
-1.02099e-05
0.000200286
-1.01466e-05
0.000203648
-1.00804e-05
0.000206987
-1.00112e-05
0.000210302
-9.93886e-06
0.000213591
-9.86341e-06
0.000216855
-9.78475e-06
0.000220091
-9.70284e-06
0.000223299
-9.61763e-06
0.000226477
-9.52905e-06
0.000229624
-9.43709e-06
0.00023274
-9.34168e-06
0.000235823
-9.24279e-06
0.000238872
-9.1404e-06
0.000241885
-9.03446e-06
0.000244862
-8.92497e-06
0.000247802
-8.8119e-06
0.000250702
-8.69523e-06
0.000253562
-8.57496e-06
0.000256381
-8.45108e-06
0.000259158
-8.3236e-06
0.000261891
-8.19252e-06
0.000264579
-8.05786e-06
0.000267221
-7.91963e-06
0.000269815
-7.77785e-06
0.000272361
-7.63256e-06
0.000274858
-7.48379e-06
0.000277303
-7.33159e-06
0.000279697
-7.17599e-06
0.000282038
-7.01706e-06
0.000284325
-6.85484e-06
0.000286556
-6.68942e-06
0.000288732
-6.52084e-06
0.00029085
-6.3492e-06
0.00029291
-6.17457e-06
0.00029491
-5.99704e-06
0.000296851
-5.81671e-06
0.00029873
-5.63366e-06
0.000300547
-5.448e-06
0.000302302
-5.25984e-06
0.000303993
-5.06928e-06
0.00030562
-4.87646e-06
0.000307181
-4.68147e-06
0.000308677
-4.48446e-06
0.000310107
-4.28554e-06
0.000311469
-4.08485e-06
0.000312764
-3.88252e-06
0.000313991
-3.67869e-06
0.00031515
-3.4735e-06
0.000316239
-3.26709e-06
0.00031726
-3.05959e-06
0.000318211
-2.85116e-06
0.000319092
-2.64194e-06
0.000319902
-2.43207e-06
0.000320643
-2.2217e-06
0.000321314
-2.01099e-06
0.000321914
-1.80006e-06
0.000322443
-1.58908e-06
0.000322903
-1.37818e-06
0.000323292
-1.16751e-06
0.00032361
-9.5722e-07
0.000323859
-7.47438e-07
0.000324038
-5.3831e-07
0.000324148
-3.29971e-07
0.000324188
-1.22555e-07
0.000324159
8.38051e-08
0.000324062
2.88982e-07
0.000323897
4.9285e-07
0.000323665
6.95288e-07
0.000323365
8.96178e-07
0.000322999
1.09541e-06
0.000322567
1.29286e-06
0.00032207
1.48844e-06
0.000321508
1.68204e-06
0.000320882
1.87356e-06
0.000320193
2.06291e-06
0.000319442
2.25e-06
0.000318629
2.43474e-06
0.000317755
2.61707e-06
0.000316822
2.7969e-06
0.000315829
2.97416e-06
0.000314778
3.14879e-06
0.000313669
3.32073e-06
0.000312504
3.48992e-06
0.000311284
3.65632e-06
0.000310009
3.81988e-06
0.000308681
3.98055e-06
0.0003073
4.1383e-06
0.000305867
4.2931e-06
0.000304384
4.44493e-06
0.000302851
4.59375e-06
0.000301269
4.73954e-06
0.00029964
4.8823e-06
0.000297964
5.02202e-06
0.000296243
5.15867e-06
0.000294477
5.29227e-06
0.000292668
5.42281e-06
0.000290816
5.5503e-06
0.000288923
5.67473e-06
0.000286989
5.79613e-06
0.000285016
5.91451e-06
0.000283004
6.02988e-06
0.000280955
6.14226e-06
0.00027887
6.25167e-06
0.000276749
6.35814e-06
0.000274593
6.4617e-06
0.000272404
6.56237e-06
0.000270183
6.66018e-06
0.000267929
6.75517e-06
0.000265645
6.84737e-06
0.000263332
6.93682e-06
0.000260989
7.02356e-06
0.000258618
7.10762e-06
0.00025622
7.18905e-06
0.000253796
7.26789e-06
0.000251347
7.34419e-06
0.000248873
7.41798e-06
0.000246375
7.48931e-06
0.000243854
7.55824e-06
0.000241311
7.62479e-06
0.000238747
7.68903e-06
0.000236162
7.751e-06
0.000233558
7.81075e-06
0.000230934
7.86832e-06
0.000228291
7.92377e-06
0.000225631
7.97714e-06
0.000222954
8.02847e-06
0.00022026
8.07783e-06
0.000217551
8.12525e-06
0.000214826
8.17079e-06
0.000212087
8.2145e-06
0.000209334
8.25641e-06
0.000206567
8.29659e-06
0.000203788
8.33508e-06
0.000200996
8.37193e-06
0.000198193
8.40718e-06
0.000195379
8.44087e-06
0.000192553
8.47306e-06
0.000189718
8.5038e-06
0.000186873
8.53311e-06
0.000184019
8.56106e-06
0.000181155
8.58768e-06
0.000178284
8.61302e-06
0.000175404
8.63711e-06
0.000172517
8.66001e-06
0.000169622
8.68174e-06
0.000166721
8.70236e-06
0.000163813
8.7219e-06
0.000160899
8.7404e-06
0.000157979
8.7579e-06
0.000155054
8.77444e-06
0.000152123
8.79005e-06
0.000149188
8.80477e-06
0.000146248
8.81863e-06
0.000143303
8.83168e-06
0.000140355
8.84394e-06
0.000137403
8.85545e-06
0.000134447
8.86623e-06
0.000131488
8.87632e-06
0.000128525
8.88576e-06
0.00012556
8.89456e-06
0.000122592
8.90276e-06
0.000119622
8.9104e-06
0.000116649
8.91748e-06
0.000113674
8.92406e-06
0.000110697
8.93014e-06
0.000107718
8.93576e-06
0.000104738
8.94093e-06
0.000101756
8.9457e-06
9.8772e-05
8.95007e-06
9.57871e-05
8.95407e-06
9.28011e-05
8.95772e-06
8.98139e-05
8.96105e-06
8.68257e-05
8.96407e-06
8.38366e-05
8.96681e-06
8.08467e-05
8.96928e-06
7.7856e-05
8.9715e-06
7.48647e-05
8.97349e-06
7.18729e-05
8.97526e-06
6.88805e-05
8.97684e-06
6.58876e-05
8.97824e-06
6.28944e-05
8.97947e-06
5.99008e-05
8.98054e-06
5.69069e-05
8.98148e-06
5.39127e-05
8.98229e-06
5.09183e-05
8.98299e-06
4.79237e-05
8.98358e-06
4.4929e-05
8.98409e-06
4.19341e-05
8.98451e-06
3.89391e-05
8.98487e-06
3.5944e-05
8.98516e-06
3.29489e-05
8.9854e-06
2.99536e-05
8.98559e-06
2.69584e-05
8.98574e-06
2.39631e-05
8.98586e-06
2.09677e-05
8.98595e-06
1.79724e-05
8.98603e-06
1.4977e-05
8.98608e-06
1.19816e-05
8.98612e-06
8.98621e-06
8.98615e-06
5.99081e-06
8.98617e-06
2.99541e-06
8.98618e-06
8.98619e-06
3.72114e-06
-1.48839e-05
7.44224e-06
-1.48837e-05
1.11633e-05
-1.48834e-05
1.48842e-05
-1.48829e-05
1.86049e-05
-1.48822e-05
2.23254e-05
-1.48812e-05
2.60457e-05
-1.48801e-05
2.97656e-05
-1.48788e-05
3.34851e-05
-1.48771e-05
3.72042e-05
-1.48752e-05
4.09228e-05
-1.4873e-05
4.46407e-05
-1.48704e-05
4.8358e-05
-1.48674e-05
5.20744e-05
-1.48641e-05
5.57899e-05
-1.48602e-05
5.95044e-05
-1.48559e-05
6.32177e-05
-1.4851e-05
6.69296e-05
-1.48455e-05
7.06401e-05
-1.48394e-05
7.43489e-05
-1.48325e-05
7.80559e-05
-1.48249e-05
8.17608e-05
-1.48164e-05
8.54634e-05
-1.48071e-05
8.91635e-05
-1.47968e-05
9.28609e-05
-1.47855e-05
9.65552e-05
-1.4773e-05
0.000100246
-1.47594e-05
0.000103933
-1.47445e-05
0.000107617
-1.47283e-05
0.000111296
-1.47107e-05
0.00011497
-1.46915e-05
0.000118639
-1.46708e-05
0.000122303
-1.46484e-05
0.000125961
-1.46242e-05
0.000129612
-1.45982e-05
0.000133256
-1.45702e-05
0.000136893
-1.45402e-05
0.000140522
-1.4508e-05
0.000144143
-1.44735e-05
0.000147754
-1.44367e-05
0.000151356
-1.43975e-05
0.000154947
-1.43557e-05
0.000158527
-1.43112e-05
0.000162096
-1.4264e-05
0.000165652
-1.42139e-05
0.000169195
-1.41609e-05
0.000172724
-1.41048e-05
0.000176238
-1.40455e-05
0.000179736
-1.3983e-05
0.000183219
-1.3917e-05
0.000186684
-1.38476e-05
0.000190131
-1.37747e-05
0.000193558
-1.36981e-05
0.000196966
-1.36177e-05
0.000200353
-1.35334e-05
0.000203718
-1.34453e-05
0.00020706
-1.3353e-05
0.000210378
-1.32567e-05
0.00021367
-1.31562e-05
0.000216937
-1.30514e-05
0.000220177
-1.29423e-05
0.000223388
-1.28287e-05
0.000226569
-1.27107e-05
0.00022972
-1.25881e-05
0.00023284
-1.2461e-05
0.000235926
-1.23292e-05
0.000238978
-1.21927e-05
0.000241995
-1.20515e-05
0.000244976
-1.19055e-05
0.000247919
-1.17548e-05
0.000250823
-1.15992e-05
0.000253687
-1.14389e-05
0.000256509
-1.12737e-05
0.00025929
-1.11037e-05
0.000262026
-1.09289e-05
0.000264717
-1.07494e-05
0.000267363
-1.0565e-05
0.000269961
-1.03759e-05
0.000272511
-1.01822e-05
0.000275011
-9.98374e-06
0.00027746
-9.78073e-06
0.000279857
-9.57318e-06
0.000282201
-9.36118e-06
0.000284491
-9.14479e-06
0.000286726
-8.92411e-06
0.000288904
-8.69923e-06
0.000291025
-8.47025e-06
0.000293088
-8.23728e-06
0.000295091
-8.00043e-06
0.000297034
-7.75983e-06
0.000298916
-7.5156e-06
0.000300736
-7.26789e-06
0.000302493
-7.01684e-06
0.000304186
-6.76259e-06
0.000305815
-6.5053e-06
0.000307379
-6.24513e-06
0.000308877
-5.98224e-06
0.000310308
-5.71682e-06
0.000311672
-5.44903e-06
0.000312969
-5.17904e-06
0.000314197
-4.90705e-06
0.000315357
-4.63324e-06
0.000316447
-4.3578e-06
0.000317469
-4.08092e-06
0.00031842
-3.80278e-06
0.000319302
-3.52359e-06
0.000320114
-3.24354e-06
0.000320855
-2.96283e-06
0.000321525
-2.68164e-06
0.000322125
-2.40018e-06
0.000322655
-2.11865e-06
0.000323114
-1.83723e-06
0.000323503
-1.55611e-06
0.000323821
-1.2755e-06
0.000324069
-9.95577e-07
0.000324247
-7.16526e-07
0.000324356
-4.38532e-07
0.000324395
-1.61773e-07
0.000324365
1.13574e-07
0.000324267
3.87337e-07
0.0003241
6.59351e-07
0.000323866
9.29452e-07
0.000323565
1.19748e-06
0.000323197
1.46329e-06
0.000322763
1.72673e-06
0.000322264
1.98766e-06
0.0003217
2.24594e-06
0.000321072
2.50145e-06
0.000320381
2.75405e-06
0.000319627
3.00363e-06
0.000318812
3.25008e-06
0.000317936
3.4933e-06
0.000317
3.73318e-06
0.000316004
3.96963e-06
0.00031495
4.20256e-06
0.000313839
4.4319e-06
0.000312672
4.65757e-06
0.000311448
4.87951e-06
0.000310171
5.09765e-06
0.000308839
5.31193e-06
0.000307455
5.52232e-06
0.000306019
5.72877e-06
0.000304533
5.93124e-06
0.000302997
6.12969e-06
0.000301413
6.32411e-06
0.00029978
6.51448e-06
0.000298102
6.70077e-06
0.000296377
6.88299e-06
0.000294609
7.06112e-06
0.000292796
7.23516e-06
0.000290941
7.40513e-06
0.000289045
7.57103e-06
0.000287108
7.73288e-06
0.000285132
7.89069e-06
0.000283118
8.04448e-06
0.000281066
8.19429e-06
0.000278977
8.34014e-06
0.000276853
8.48206e-06
0.000274695
8.62009e-06
0.000272503
8.75427e-06
0.000270278
8.88464e-06
0.000268022
9.01123e-06
0.000265736
9.13411e-06
0.000263419
9.25332e-06
0.000261074
9.36891e-06
0.0002587
9.48093e-06
0.0002563
9.58944e-06
0.000253873
9.69449e-06
0.000251421
9.79615e-06
0.000248945
9.89447e-06
0.000246445
9.98951e-06
0.000243922
1.00813e-05
0.000241376
1.017e-05
0.00023881
1.02556e-05
0.000236223
1.03381e-05
0.000233616
1.04177e-05
0.00023099
1.04944e-05
0.000228345
1.05683e-05
0.000225683
1.06393e-05
0.000223004
1.07077e-05
0.000220308
1.07734e-05
0.000217597
1.08366e-05
0.00021487
1.08973e-05
0.000212129
1.09554e-05
0.000209375
1.10113e-05
0.000206606
1.10648e-05
0.000203825
1.1116e-05
0.000201032
1.11651e-05
0.000198228
1.1212e-05
0.000195412
1.12568e-05
0.000192585
1.12997e-05
0.000189748
1.13406e-05
0.000186902
1.13796e-05
0.000184046
1.14168e-05
0.000181181
1.14522e-05
0.000178308
1.1486e-05
0.000175427
1.1518e-05
0.000172539
1.15485e-05
0.000169643
1.15774e-05
0.000166741
1.16048e-05
0.000163832
1.16308e-05
0.000160917
1.16554e-05
0.000157996
1.16787e-05
0.00015507
1.17007e-05
0.000152138
1.17215e-05
0.000149202
1.1741e-05
0.000146261
1.17595e-05
0.000143316
1.17768e-05
0.000140367
1.17931e-05
0.000137414
1.18084e-05
0.000134457
1.18227e-05
0.000131498
1.18361e-05
0.000128535
1.18487e-05
0.000125569
1.18604e-05
0.0001226
1.18713e-05
0.000119629
1.18814e-05
0.000116656
1.18908e-05
0.000113681
1.18995e-05
0.000110703
1.19076e-05
0.000107724
1.1915e-05
0.000104743
1.19219e-05
0.00010176
1.19282e-05
9.87764e-05
1.1934e-05
9.57912e-05
1.19393e-05
9.28047e-05
1.19442e-05
8.98172e-05
1.19486e-05
8.68287e-05
1.19526e-05
8.38394e-05
1.19562e-05
8.08492e-05
1.19594e-05
7.78583e-05
1.19624e-05
7.48668e-05
1.1965e-05
7.18747e-05
1.19673e-05
6.88821e-05
1.19694e-05
6.58891e-05
1.19713e-05
6.28957e-05
1.19729e-05
5.9902e-05
1.19743e-05
5.69079e-05
1.19755e-05
5.39136e-05
1.19766e-05
5.09191e-05
1.19775e-05
4.79244e-05
1.19783e-05
4.49296e-05
1.19789e-05
4.19346e-05
1.19795e-05
3.89395e-05
1.19799e-05
3.59444e-05
1.19803e-05
3.29492e-05
1.19806e-05
2.99539e-05
1.19809e-05
2.69586e-05
1.19811e-05
2.39632e-05
1.19812e-05
2.09679e-05
1.19813e-05
1.79725e-05
1.19814e-05
1.49771e-05
1.19815e-05
1.19817e-05
1.19815e-05
8.98626e-06
1.19816e-05
5.99084e-06
1.19816e-05
2.99542e-06
1.19816e-05
1.19816e-05
3.72132e-06
-1.86052e-05
7.44261e-06
-1.8605e-05
1.11638e-05
-1.86046e-05
1.48849e-05
-1.8604e-05
1.86059e-05
-1.86031e-05
2.23266e-05
-1.8602e-05
2.60471e-05
-1.86006e-05
2.97673e-05
-1.8599e-05
3.34872e-05
-1.8597e-05
3.72066e-05
-1.85946e-05
4.09255e-05
-1.85919e-05
4.46438e-05
-1.85887e-05
4.83615e-05
-1.85851e-05
5.20784e-05
-1.8581e-05
5.57944e-05
-1.85763e-05
5.95095e-05
-1.85709e-05
6.32234e-05
-1.85649e-05
6.6936e-05
-1.85581e-05
7.06472e-05
-1.85506e-05
7.43568e-05
-1.85421e-05
7.80646e-05
-1.85327e-05
8.17704e-05
-1.85222e-05
8.5474e-05
-1.85107e-05
8.91752e-05
-1.84979e-05
9.28736e-05
-1.84839e-05
9.65691e-05
-1.84685e-05
0.000100261
-1.84516e-05
0.00010395
-1.84332e-05
0.000107635
-1.84131e-05
0.000111315
-1.83912e-05
0.000114991
-1.83674e-05
0.000118662
-1.83417e-05
0.000122327
-1.83139e-05
0.000125987
-1.82838e-05
0.00012964
-1.82515e-05
0.000133287
-1.82166e-05
0.000136926
-1.81793e-05
0.000140557
-1.81392e-05
0.00014418
-1.80963e-05
0.000147794
-1.80505e-05
0.000151398
-1.80016e-05
0.000154992
-1.79496e-05
0.000158575
-1.78942e-05
0.000162146
-1.78354e-05
0.000165705
-1.7773e-05
0.000169251
-1.77069e-05
0.000172783
-1.76369e-05
0.000176301
-1.7563e-05
0.000179803
-1.7485e-05
0.000183289
-1.74028e-05
0.000186757
-1.73163e-05
0.000190208
-1.72252e-05
0.000193639
-1.71296e-05
0.000197051
-1.70293e-05
0.000200442
-1.69242e-05
0.000203811
-1.68141e-05
0.000207157
-1.6699e-05
0.000210479
-1.65788e-05
0.000213776
-1.64533e-05
0.000217047
-1.63224e-05
0.000220291
-1.61861e-05
0.000223506
-1.60443e-05
0.000226692
-1.58969e-05
0.000229848
-1.57438e-05
0.000232972
-1.55849e-05
0.000236063
-1.54203e-05
0.00023912
-1.52497e-05
0.000242142
-1.50733e-05
0.000245127
-1.48909e-05
0.000248075
-1.47025e-05
0.000250984
-1.45081e-05
0.000253853
-1.43077e-05
0.00025668
-1.41012e-05
0.000259465
-1.38887e-05
0.000262206
-1.36702e-05
0.000264903
-1.34456e-05
0.000267553
-1.32151e-05
0.000270155
-1.29787e-05
0.00027271
-1.27364e-05
0.000275214
-1.24883e-05
0.000277668
-1.22344e-05
0.00028007
-1.19748e-05
0.000282418
-1.17097e-05
0.000284712
-1.1439e-05
0.000286951
-1.1163e-05
0.000289134
-1.08817e-05
0.000291259
-1.05953e-05
0.000293325
-1.03039e-05
0.000295333
-1.00076e-05
0.000297279
-9.70658e-06
0.000299165
-9.40104e-06
0.000300988
-9.09113e-06
0.000302748
-8.77704e-06
0.000304445
-8.45893e-06
0.000306076
-8.13702e-06
0.000307643
-7.8115e-06
0.000309143
-7.48258e-06
0.000310577
-7.15047e-06
0.000311943
-6.81539e-06
0.000313242
-6.47757e-06
0.000314472
-6.13724e-06
0.000315633
-5.79463e-06
0.000316725
-5.44996e-06
0.000317748
-5.1035e-06
0.000318701
-4.75547e-06
0.000319583
-4.40611e-06
0.000320395
-4.05568e-06
0.000321137
-3.70442e-06
0.000321808
-3.35257e-06
0.000322408
-3.00039e-06
0.000322937
-2.6481e-06
0.000323396
-2.29597e-06
0.000323784
-1.94422e-06
0.000324102
-1.5931e-06
0.000324349
-1.24285e-06
0.000324526
-8.93691e-07
0.000324634
-5.45862e-07
0.000324671
-1.99585e-07
0.00032464
1.4492e-07
0.00032454
4.87438e-07
0.000324372
8.2776e-07
0.000324135
1.16568e-06
0.000323832
1.50101e-06
0.000323462
1.83354e-06
0.000323025
2.16311e-06
0.000322523
2.48952e-06
0.000321957
2.81262e-06
0.000321326
3.13223e-06
0.000320632
3.44821e-06
0.000319875
3.76039e-06
0.000319056
4.06866e-06
0.000318177
4.37286e-06
0.000317237
4.67288e-06
0.000316238
4.96861e-06
0.000315181
5.25993e-06
0.000314066
5.54674e-06
0.000312894
5.82895e-06
0.000311668
6.10649e-06
0.000310386
6.37927e-06
0.000309051
6.64722e-06
0.000307663
6.91028e-06
0.000306223
7.16841e-06
0.000304733
7.42155e-06
0.000303193
7.66967e-06
0.000301604
7.91274e-06
0.000299968
8.15072e-06
0.000298285
8.38361e-06
0.000296557
8.61138e-06
0.000294784
8.83405e-06
0.000292967
9.0516e-06
0.000291108
9.26404e-06
0.000289208
9.47139e-06
0.000287267
9.67366e-06
0.000285287
9.87088e-06
0.000283268
1.00631e-05
0.000281212
1.02503e-05
0.00027912
1.04325e-05
0.000276992
1.06099e-05
0.00027483
1.07823e-05
0.000272634
1.095e-05
0.000270406
1.11129e-05
0.000268146
1.1271e-05
0.000265856
1.14245e-05
0.000263536
1.15734e-05
0.000261187
1.17178e-05
0.00025881
1.18578e-05
0.000256406
1.19933e-05
0.000253976
1.21245e-05
0.000251521
1.22515e-05
0.000249041
1.23742e-05
0.000246538
1.24929e-05
0.000244011
1.26076e-05
0.000241463
1.27183e-05
0.000238893
1.28252e-05
0.000236303
1.29282e-05
0.000233694
1.30276e-05
0.000231065
1.31233e-05
0.000228417
1.32155e-05