/*--------------------------------*- C++ -*----------------------------------*\
| =========                 |                                                 |
| \\      /  F ield         | OpenFOAM: The Open Source CFD Toolbox           |
|  \\    /   O peration     | Version:  v2012                                 |
|   \\  /    A nd           | Website:  www.openfoam.com                      |
|    \\/     M anipulation  |                                                 |
\*---------------------------------------------------------------------------*/
FoamFile
{
    version     2.0;
    format      ascii;
    class       volVectorField;
    location    "7.5";
    object      Psi;
}
// * * * * * * * * * * * * * * * * * * * * * * * * * * * * * * * * * * * * * //

dimensions      [0 2 -1 0 0 0 0];


internalField   nonuniform List<vector> 
65536
(
(0 0 9.30301e-06)
(0 0 2.79089e-05)
(0 0 4.65145e-05)
(0 0 6.51195e-05)
(0 0 8.37238e-05)
(0 0 0.000102327)
(0 0 0.000120929)
(0 0 0.000139529)
(0 0 0.000158127)
(0 0 0.000176723)
(0 0 0.000195316)
(0 0 0.000213906)
(0 0 0.000232493)
(0 0 0.000251075)
(0 0 0.000269653)
(0 0 0.000288226)
(0 0 0.000306792)
(0 0 0.000325352)
(0 0 0.000343904)
(0 0 0.000362448)
(0 0 0.000380983)
(0 0 0.000399507)
(0 0 0.000418021)
(0 0 0.000436521)
(0 0 0.000455008)
(0 0 0.000473479)
(0 0 0.000491935)
(0 0 0.000510371)
(0 0 0.000528789)
(0 0 0.000547184)
(0 0 0.000565557)
(0 0 0.000583904)
(0 0 0.000602224)
(0 0 0.000620514)
(0 0 0.000638773)
(0 0 0.000656997)
(0 0 0.000675185)
(0 0 0.000693334)
(0 0 0.00071144)
(0 0 0.000729502)
(0 0 0.000747515)
(0 0 0.000765478)
(0 0 0.000783386)
(0 0 0.000801237)
(0 0 0.000819026)
(0 0 0.000836751)
(0 0 0.000854406)
(0 0 0.00087199)
(0 0 0.000889497)
(0 0 0.000906923)
(0 0 0.000924264)
(0 0 0.000941515)
(0 0 0.000958673)
(0 0 0.000975732)
(0 0 0.000992688)
(0 0 0.00100954)
(0 0 0.00102627)
(0 0 0.00104289)
(0 0 0.00105938)
(0 0 0.00107575)
(0 0 0.00109198)
(0 0 0.00110807)
(0 0 0.00112401)
(0 0 0.00113981)
(0 0 0.00115545)
(0 0 0.00117092)
(0 0 0.00118623)
(0 0 0.00120137)
(0 0 0.00121632)
(0 0 0.00123109)
(0 0 0.00124567)
(0 0 0.00126005)
(0 0 0.00127423)
(0 0 0.0012882)
(0 0 0.00130195)
(0 0 0.00131548)
(0 0 0.00132879)
(0 0 0.00134186)
(0 0 0.00135469)
(0 0 0.00136727)
(0 0 0.00137961)
(0 0 0.00139169)
(0 0 0.0014035)
(0 0 0.00141505)
(0 0 0.00142633)
(0 0 0.00143733)
(0 0 0.00144805)
(0 0 0.00145847)
(0 0 0.00146861)
(0 0 0.00147844)
(0 0 0.00148797)
(0 0 0.0014972)
(0 0 0.00150612)
(0 0 0.00151472)
(0 0 0.001523)
(0 0 0.00153095)
(0 0 0.00153859)
(0 0 0.00154589)
(0 0 0.00155286)
(0 0 0.00155949)
(0 0 0.00156579)
(0 0 0.00157174)
(0 0 0.00157736)
(0 0 0.00158263)
(0 0 0.00158755)
(0 0 0.00159212)
(0 0 0.00159635)
(0 0 0.00160022)
(0 0 0.00160375)
(0 0 0.00160693)
(0 0 0.00160975)
(0 0 0.00161222)
(0 0 0.00161434)
(0 0 0.00161612)
(0 0 0.00161754)
(0 0 0.00161861)
(0 0 0.00161934)
(0 0 0.00161972)
(0 0 0.00161975)
(0 0 0.00161944)
(0 0 0.0016188)
(0 0 0.00161781)
(0 0 0.00161649)
(0 0 0.00161483)
(0 0 0.00161285)
(0 0 0.00161054)
(0 0 0.0016079)
(0 0 0.00160494)
(0 0 0.00160167)
(0 0 0.00159808)
(0 0 0.00159419)
(0 0 0.00158998)
(0 0 0.00158548)
(0 0 0.00158068)
(0 0 0.00157558)
(0 0 0.0015702)
(0 0 0.00156453)
(0 0 0.00155859)
(0 0 0.00155236)
(0 0 0.00154587)
(0 0 0.00153912)
(0 0 0.0015321)
(0 0 0.00152483)
(0 0 0.0015173)
(0 0 0.00150953)
(0 0 0.00150152)
(0 0 0.00149328)
(0 0 0.0014848)
(0 0 0.0014761)
(0 0 0.00146718)
(0 0 0.00145805)
(0 0 0.0014487)
(0 0 0.00143915)
(0 0 0.0014294)
(0 0 0.00141946)
(0 0 0.00140932)
(0 0 0.001399)
(0 0 0.0013885)
(0 0 0.00137783)
(0 0 0.00136698)
(0 0 0.00135597)
(0 0 0.0013448)
(0 0 0.00133347)
(0 0 0.00132199)
(0 0 0.00131037)
(0 0 0.0012986)
(0 0 0.00128669)
(0 0 0.00127465)
(0 0 0.00126248)
(0 0 0.00125019)
(0 0 0.00123777)
(0 0 0.00122524)
(0 0 0.00121259)
(0 0 0.00119984)
(0 0 0.00118697)
(0 0 0.00117401)
(0 0 0.00116095)
(0 0 0.0011478)
(0 0 0.00113455)
(0 0 0.00112122)
(0 0 0.0011078)
(0 0 0.00109431)
(0 0 0.00108073)
(0 0 0.00106708)
(0 0 0.00105336)
(0 0 0.00103957)
(0 0 0.00102571)
(0 0 0.0010118)
(0 0 0.000997817)
(0 0 0.000983781)
(0 0 0.00096969)
(0 0 0.000955546)
(0 0 0.000941352)
(0 0 0.00092711)
(0 0 0.000912823)
(0 0 0.000898492)
(0 0 0.00088412)
(0 0 0.000869708)
(0 0 0.00085526)
(0 0 0.000840776)
(0 0 0.000826258)
(0 0 0.000811708)
(0 0 0.000797129)
(0 0 0.00078252)
(0 0 0.000767885)
(0 0 0.000753225)
(0 0 0.000738541)
(0 0 0.000723834)
(0 0 0.000709106)
(0 0 0.000694358)
(0 0 0.000679591)
(0 0 0.000664807)
(0 0 0.000650007)
(0 0 0.000635191)
(0 0 0.000620361)
(0 0 0.000605518)
(0 0 0.000590662)
(0 0 0.000575795)
(0 0 0.000560917)
(0 0 0.00054603)
(0 0 0.000531133)
(0 0 0.000516228)
(0 0 0.000501315)
(0 0 0.000486396)
(0 0 0.00047147)
(0 0 0.000456538)
(0 0 0.0004416)
(0 0 0.000426658)
(0 0 0.000411711)
(0 0 0.000396761)
(0 0 0.000381807)
(0 0 0.000366849)
(0 0 0.000351889)
(0 0 0.000336927)
(0 0 0.000321962)
(0 0 0.000306995)
(0 0 0.000292026)
(0 0 0.000277056)
(0 0 0.000262085)
(0 0 0.000247112)
(0 0 0.000232139)
(0 0 0.000217164)
(0 0 0.00020219)
(0 0 0.000187214)
(0 0 0.000172238)
(0 0 0.000157262)
(0 0 0.000142285)
(0 0 0.000127308)
(0 0 0.000112331)
(0 0 9.73539e-05)
(0 0 8.23765e-05)
(0 0 6.73991e-05)
(0 0 5.24216e-05)
(0 0 3.7444e-05)
(0 0 2.24664e-05)
(0 0 7.48881e-06)
(0 0 2.79091e-05)
(0 0 8.37271e-05)
(0 0 0.000139544)
(0 0 0.000195359)
(0 0 0.000251172)
(0 0 0.000306982)
(0 0 0.000362788)
(0 0 0.000418589)
(0 0 0.000474384)
(0 0 0.000530172)
(0 0 0.000585952)
(0 0 0.000641723)
(0 0 0.000697483)
(0 0 0.000753231)
(0 0 0.000808965)
(0 0 0.000864683)
(0 0 0.000920383)
(0 0 0.000976063)
(0 0 0.00103172)
(0 0 0.00108735)
(0 0 0.00114296)
(0 0 0.00119853)
(0 0 0.00125407)
(0 0 0.00130958)
(0 0 0.00136504)
(0 0 0.00142046)
(0 0 0.00147582)
(0 0 0.00153113)
(0 0 0.00158639)
(0 0 0.00164158)
(0 0 0.0016967)
(0 0 0.00175174)
(0 0 0.0018067)
(0 0 0.00186157)
(0 0 0.00191635)
(0 0 0.00197103)
(0 0 0.00202559)
(0 0 0.00208004)
(0 0 0.00213437)
(0 0 0.00218855)
(0 0 0.0022426)
(0 0 0.00229649)
(0 0 0.00235022)
(0 0 0.00240377)
(0 0 0.00245714)
(0 0 0.00251032)
(0 0 0.00256329)
(0 0 0.00261605)
(0 0 0.00266857)
(0 0 0.00272085)
(0 0 0.00277288)
(0 0 0.00282464)
(0 0 0.00287612)
(0 0 0.0029273)
(0 0 0.00297817)
(0 0 0.00302872)
(0 0 0.00307893)
(0 0 0.00312879)
(0 0 0.00317827)
(0 0 0.00322737)
(0 0 0.00327607)
(0 0 0.00332434)
(0 0 0.00337219)
(0 0 0.00341958)
(0 0 0.0034665)
(0 0 0.00351294)
(0 0 0.00355887)
(0 0 0.00360428)
(0 0 0.00364916)
(0 0 0.00369347)
(0 0 0.00373721)
(0 0 0.00378036)
(0 0 0.0038229)
(0 0 0.00386481)
(0 0 0.00390607)
(0 0 0.00394667)
(0 0 0.00398659)
(0 0 0.00402581)
(0 0 0.00406431)
(0 0 0.00410207)
(0 0 0.00413908)
(0 0 0.00417532)
(0 0 0.00421078)
(0 0 0.00424544)
(0 0 0.00427927)
(0 0 0.00431227)
(0 0 0.00434442)
(0 0 0.00437571)
(0 0 0.00440611)
(0 0 0.00443563)
(0 0 0.00446423)
(0 0 0.00449191)
(0 0 0.00451866)
(0 0 0.00454447)
(0 0 0.00456931)
(0 0 0.00459319)
(0 0 0.00461609)
(0 0 0.004638)
(0 0 0.00465891)
(0 0 0.00467881)
(0 0 0.0046977)
(0 0 0.00471557)
(0 0 0.00473241)
(0 0 0.00474822)
(0 0 0.00476299)
(0 0 0.00477671)
(0 0 0.00478939)
(0 0 0.00480102)
(0 0 0.0048116)
(0 0 0.00482113)
(0 0 0.0048296)
(0 0 0.00483702)
(0 0 0.00484338)
(0 0 0.0048487)
(0 0 0.00485296)
(0 0 0.00485618)
(0 0 0.00485835)
(0 0 0.00485949)
(0 0 0.0048596)
(0 0 0.00485867)
(0 0 0.00485673)
(0 0 0.00485377)
(0 0 0.0048498)
(0 0 0.00484483)
(0 0 0.00483888)
(0 0 0.00483194)
(0 0 0.00482402)
(0 0 0.00481515)
(0 0 0.00480533)
(0 0 0.00479456)
(0 0 0.00478286)
(0 0 0.00477025)
(0 0 0.00475674)
(0 0 0.00474233)
(0 0 0.00472704)
(0 0 0.00471089)
(0 0 0.00469388)
(0 0 0.00467603)
(0 0 0.00465736)
(0 0 0.00463788)
(0 0 0.00461761)
(0 0 0.00459655)
(0 0 0.00457473)
(0 0 0.00455215)
(0 0 0.00452884)
(0 0 0.00450481)
(0 0 0.00448007)
(0 0 0.00445464)
(0 0 0.00442853)
(0 0 0.00440177)
(0 0 0.00437435)
(0 0 0.00434631)
(0 0 0.00431766)
(0 0 0.0042884)
(0 0 0.00425856)
(0 0 0.00422815)
(0 0 0.00419719)
(0 0 0.00416568)
(0 0 0.00413365)
(0 0 0.00410111)
(0 0 0.00406807)
(0 0 0.00403456)
(0 0 0.00400057)
(0 0 0.00396613)
(0 0 0.00393124)
(0 0 0.00389593)
(0 0 0.00386021)
(0 0 0.00382408)
(0 0 0.00378757)
(0 0 0.00375068)
(0 0 0.00371343)
(0 0 0.00367582)
(0 0 0.00363788)
(0 0 0.00359961)
(0 0 0.00356103)
(0 0 0.00352214)
(0 0 0.00348295)
(0 0 0.00344348)
(0 0 0.00340375)
(0 0 0.00336374)
(0 0 0.00332349)
(0 0 0.00328299)
(0 0 0.00324227)
(0 0 0.00320131)
(0 0 0.00316015)
(0 0 0.00311878)
(0 0 0.00307721)
(0 0 0.00303545)
(0 0 0.00299351)
(0 0 0.0029514)
(0 0 0.00290912)
(0 0 0.00286669)
(0 0 0.0028241)
(0 0 0.00278138)
(0 0 0.00273851)
(0 0 0.00269552)
(0 0 0.0026524)
(0 0 0.00260916)
(0 0 0.00256581)
(0 0 0.00252236)
(0 0 0.00247881)
(0 0 0.00243516)
(0 0 0.00239141)
(0 0 0.00234759)
(0 0 0.00230368)
(0 0 0.0022597)
(0 0 0.00221564)
(0 0 0.00217152)
(0 0 0.00212734)
(0 0 0.00208309)
(0 0 0.00203879)
(0 0 0.00199444)
(0 0 0.00195004)
(0 0 0.00190559)
(0 0 0.0018611)
(0 0 0.00181657)
(0 0 0.001772)
(0 0 0.0017274)
(0 0 0.00168276)
(0 0 0.0016381)
(0 0 0.00159341)
(0 0 0.00154869)
(0 0 0.00150395)
(0 0 0.00145919)
(0 0 0.00141442)
(0 0 0.00136962)
(0 0 0.00132481)
(0 0 0.00127998)
(0 0 0.00123514)
(0 0 0.00119029)
(0 0 0.00114542)
(0 0 0.00110055)
(0 0 0.00105567)
(0 0 0.00101078)
(0 0 0.000965887)
(0 0 0.000920986)
(0 0 0.00087608)
(0 0 0.00083117)
(0 0 0.000786255)
(0 0 0.000741338)
(0 0 0.000696417)
(0 0 0.000651494)
(0 0 0.000606569)
(0 0 0.000561643)
(0 0 0.000516715)
(0 0 0.000471786)
(0 0 0.000426856)
(0 0 0.000381925)
(0 0 0.000336994)
(0 0 0.000292062)
(0 0 0.00024713)
(0 0 0.000202197)
(0 0 0.000157265)
(0 0 0.000112332)
(0 0 6.73993e-05)
(0 0 2.24664e-05)
(0 0 4.65157e-05)
(0 0 0.000139546)
(0 0 0.000232576)
(0 0 0.000325602)
(0 0 0.000418624)
(0 0 0.000511642)
(0 0 0.000604652)
(0 0 0.000697655)
(0 0 0.000790648)
(0 0 0.00088363)
(0 0 0.000976598)
(0 0 0.00106955)
(0 0 0.00116249)
(0 0 0.0012554)
(0 0 0.00134829)
(0 0 0.00144116)
(0 0 0.00153399)
(0 0 0.0016268)
(0 0 0.00171956)
(0 0 0.00181229)
(0 0 0.00190497)
(0 0 0.0019976)
(0 0 0.00209017)
(0 0 0.00218268)
(0 0 0.00227512)
(0 0 0.00236748)
(0 0 0.00245976)
(0 0 0.00255196)
(0 0 0.00264405)
(0 0 0.00273604)
(0 0 0.00282791)
(0 0 0.00291966)
(0 0 0.00301127)
(0 0 0.00310273)
(0 0 0.00319404)
(0 0 0.00328517)
(0 0 0.00337612)
(0 0 0.00346688)
(0 0 0.00355743)
(0 0 0.00364775)
(0 0 0.00373783)
(0 0 0.00382766)
(0 0 0.00391722)
(0 0 0.00400649)
(0 0 0.00409546)
(0 0 0.0041841)
(0 0 0.0042724)
(0 0 0.00436033)
(0 0 0.00444789)
(0 0 0.00453504)
(0 0 0.00462177)
(0 0 0.00470805)
(0 0 0.00479386)
(0 0 0.00487918)
(0 0 0.00496398)
(0 0 0.00504825)
(0 0 0.00513195)
(0 0 0.00521506)
(0 0 0.00529755)
(0 0 0.0053794)
(0 0 0.00546058)
(0 0 0.00554106)
(0 0 0.00562082)
(0 0 0.00569982)
(0 0 0.00577805)
(0 0 0.00585546)
(0 0 0.00593203)
(0 0 0.00600774)
(0 0 0.00608255)
(0 0 0.00615643)
(0 0 0.00622935)
(0 0 0.00630129)
(0 0 0.0063722)
(0 0 0.00644207)
(0 0 0.00651087)
(0 0 0.00657855)
(0 0 0.0066451)
(0 0 0.00671048)
(0 0 0.00677466)
(0 0 0.00683762)
(0 0 0.00689933)
(0 0 0.00695975)
(0 0 0.00701886)
(0 0 0.00707664)
(0 0 0.00713305)
(0 0 0.00718807)
(0 0 0.00724167)
(0 0 0.00729383)
(0 0 0.00734452)
(0 0 0.00739372)
(0 0 0.00744141)
(0 0 0.00748756)
(0 0 0.00753216)
(0 0 0.00757518)
(0 0 0.0076166)
(0 0 0.00765641)
(0 0 0.00769458)
(0 0 0.00773111)
(0 0 0.00776597)
(0 0 0.00779915)
(0 0 0.00783064)
(0 0 0.00786043)
(0 0 0.00788851)
(0 0 0.00791486)
(0 0 0.00793948)
(0 0 0.00796236)
(0 0 0.00798349)
(0 0 0.00800288)
(0 0 0.00802051)
(0 0 0.00803639)
(0 0 0.0080505)
(0 0 0.00806287)
(0 0 0.00807347)
(0 0 0.00808233)
(0 0 0.00808943)
(0 0 0.00809479)
(0 0 0.00809842)
(0 0 0.00810031)
(0 0 0.00810047)
(0 0 0.00809893)
(0 0 0.00809568)
(0 0 0.00809074)
(0 0 0.00808411)
(0 0 0.00807583)
(0 0 0.00806589)
(0 0 0.00805431)
(0 0 0.00804111)
(0 0 0.00802631)
(0 0 0.00800992)
(0 0 0.00799197)
(0 0 0.00797246)
(0 0 0.00795143)
(0 0 0.00792889)
(0 0 0.00790486)
(0 0 0.00787937)
(0 0 0.00785243)
(0 0 0.00782407)
(0 0 0.00779431)
(0 0 0.00776318)
(0 0 0.00773069)
(0 0 0.00769688)
(0 0 0.00766177)
(0 0 0.00762538)
(0 0 0.00758774)
(0 0 0.00754887)
(0 0 0.0075088)
(0 0 0.00746755)
(0 0 0.00742515)
(0 0 0.00738162)
(0 0 0.007337)
(0 0 0.00729129)
(0 0 0.00724454)
(0 0 0.00719676)
(0 0 0.00714799)
(0 0 0.00709824)
(0 0 0.00704754)
(0 0 0.00699591)
(0 0 0.00694339)
(0 0 0.00688999)
(0 0 0.00683574)
(0 0 0.00678066)
(0 0 0.00672478)
(0 0 0.00666812)
(0 0 0.0066107)
(0 0 0.00655255)
(0 0 0.00649368)
(0 0 0.00643413)
(0 0 0.00637391)
(0 0 0.00631304)
(0 0 0.00625154)
(0 0 0.00618944)
(0 0 0.00612675)
(0 0 0.0060635)
(0 0 0.00599971)
(0 0 0.00593539)
(0 0 0.00587056)
(0 0 0.00580524)
(0 0 0.00573945)
(0 0 0.0056732)
(0 0 0.00560652)
(0 0 0.00553942)
(0 0 0.00547192)
(0 0 0.00540403)
(0 0 0.00533576)
(0 0 0.00526714)
(0 0 0.00519818)
(0 0 0.00512889)
(0 0 0.00505928)
(0 0 0.00498938)
(0 0 0.00491918)
(0 0 0.00484872)
(0 0 0.00477799)
(0 0 0.004707)
(0 0 0.00463578)
(0 0 0.00456434)
(0 0 0.00449267)
(0 0 0.0044208)
(0 0 0.00434873)
(0 0 0.00427648)
(0 0 0.00420405)
(0 0 0.00413145)
(0 0 0.0040587)
(0 0 0.00398579)
(0 0 0.00391274)
(0 0 0.00383956)
(0 0 0.00376625)
(0 0 0.00369282)
(0 0 0.00361928)
(0 0 0.00354563)
(0 0 0.00347189)
(0 0 0.00339805)
(0 0 0.00332412)
(0 0 0.00325011)
(0 0 0.00317603)
(0 0 0.00310187)
(0 0 0.00302765)
(0 0 0.00295337)
(0 0 0.00287903)
(0 0 0.00280464)
(0 0 0.0027302)
(0 0 0.00265571)
(0 0 0.00258118)
(0 0 0.00250661)
(0 0 0.00243201)
(0 0 0.00235738)
(0 0 0.00228272)
(0 0 0.00220803)
(0 0 0.00213331)
(0 0 0.00205858)
(0 0 0.00198382)
(0 0 0.00190905)
(0 0 0.00183426)
(0 0 0.00175946)
(0 0 0.00168465)
(0 0 0.00160982)
(0 0 0.00153498)
(0 0 0.00146014)
(0 0 0.00138529)
(0 0 0.00131043)
(0 0 0.00123557)
(0 0 0.0011607)
(0 0 0.00108583)
(0 0 0.00101095)
(0 0 0.000936074)
(0 0 0.000861193)
(0 0 0.000786311)
(0 0 0.000711428)
(0 0 0.000636543)
(0 0 0.000561657)
(0 0 0.000486771)
(0 0 0.000411884)
(0 0 0.000336996)
(0 0 0.000262108)
(0 0 0.00018722)
(0 0 0.000112332)
(0 0 3.74441e-05)
(0 0 6.51228e-05)
(0 0 0.000195368)
(0 0 0.00032561)
(0 0 0.000455849)
(0 0 0.000586082)
(0 0 0.000716308)
(0 0 0.000846526)
(0 0 0.000976732)
(0 0 0.00110692)
(0 0 0.0012371)
(0 0 0.00136726)
(0 0 0.0014974)
(0 0 0.00162751)
(0 0 0.0017576)
(0 0 0.00188765)
(0 0 0.00201766)
(0 0 0.00214764)
(0 0 0.00227757)
(0 0 0.00240745)
(0 0 0.00253727)
(0 0 0.00266703)
(0 0 0.00279671)
(0 0 0.00292632)
(0 0 0.00305584)
(0 0 0.00318527)
(0 0 0.00331459)
(0 0 0.0034438)
(0 0 0.00357288)
(0 0 0.00370183)
(0 0 0.00383062)
(0 0 0.00395926)
(0 0 0.00408771)
(0 0 0.00421598)
(0 0 0.00434405)
(0 0 0.00447189)
(0 0 0.0045995)
(0 0 0.00472685)
(0 0 0.00485393)
(0 0 0.00498072)
(0 0 0.00510719)
(0 0 0.00523333)
(0 0 0.00535911)
(0 0 0.00548452)
(0 0 0.00560952)
(0 0 0.0057341)
(0 0 0.00585822)
(0 0 0.00598187)
(0 0 0.00610501)
(0 0 0.00622761)
(0 0 0.00634965)
(0 0 0.0064711)
(0 0 0.00659193)
(0 0 0.0067121)
(0 0 0.00683158)
(0 0 0.00695034)
(0 0 0.00706834)
(0 0 0.00718556)
(0 0 0.00730195)
(0 0 0.00741747)
(0 0 0.0075321)
(0 0 0.00764579)
(0 0 0.0077585)
(0 0 0.0078702)
(0 0 0.00798085)
(0 0 0.00809041)
(0 0 0.00819883)
(0 0 0.00830607)
(0 0 0.0084121)
(0 0 0.00851687)
(0 0 0.00862035)
(0 0 0.00872248)
(0 0 0.00882323)
(0 0 0.00892256)
(0 0 0.00902042)
(0 0 0.00911677)
(0 0 0.00921157)
(0 0 0.00930478)
(0 0 0.00939635)
(0 0 0.00948625)
(0 0 0.00957443)
(0 0 0.00966086)
(0 0 0.00974549)
(0 0 0.00982829)
(0 0 0.00990921)
(0 0 0.00998822)
(0 0 0.0100653)
(0 0 0.0101404)
(0 0 0.0102134)
(0 0 0.0102844)
(0 0 0.0103533)
(0 0 0.0104201)
(0 0 0.0104848)
(0 0 0.0105472)
(0 0 0.0106075)
(0 0 0.0106655)
(0 0 0.0107213)
(0 0 0.0107747)
(0 0 0.0108259)
(0 0 0.0108747)
(0 0 0.0109212)
(0 0 0.0109653)
(0 0 0.011007)
(0 0 0.0110463)
(0 0 0.0110832)
(0 0 0.0111177)
(0 0 0.0111498)
(0 0 0.0111793)
(0 0 0.0112065)
(0 0 0.0112312)
(0 0 0.0112534)
(0 0 0.0112732)
(0 0 0.0112905)
(0 0 0.0113053)
(0 0 0.0113177)
(0 0 0.0113277)
(0 0 0.0113352)
(0 0 0.0113402)
(0 0 0.0113429)
(0 0 0.0113431)
(0 0 0.0113409)
(0 0 0.0113363)
(0 0 0.0113294)
(0 0 0.0113201)
(0 0 0.0113085)
(0 0 0.0112945)
(0 0 0.0112783)
(0 0 0.0112598)
(0 0 0.0112391)
(0 0 0.0112161)
(0 0 0.0111909)
(0 0 0.0111636)
(0 0 0.0111341)
(0 0 0.0111025)
(0 0 0.0110689)
(0 0 0.0110331)
(0 0 0.0109954)
(0 0 0.0109557)
(0 0 0.010914)
(0 0 0.0108703)
(0 0 0.0108248)
(0 0 0.0107775)
(0 0 0.0107283)
(0 0 0.0106773)
(0 0 0.0106246)
(0 0 0.0105701)
(0 0 0.010514)
(0 0 0.0104562)
(0 0 0.0103968)
(0 0 0.0103358)
(0 0 0.0102733)
(0 0 0.0102093)
(0 0 0.0101438)
(0 0 0.0100769)
(0 0 0.0100086)
(0 0 0.00993887)
(0 0 0.00986786)
(0 0 0.00979555)
(0 0 0.00972198)
(0 0 0.00964719)
(0 0 0.00957121)
(0 0 0.00949406)
(0 0 0.0094158)
(0 0 0.00933644)
(0 0 0.00925602)
(0 0 0.00917458)
(0 0 0.00909213)
(0 0 0.00900873)
(0 0 0.00892438)
(0 0 0.00883914)
(0 0 0.00875301)
(0 0 0.00866604)
(0 0 0.00857826)
(0 0 0.00848968)
(0 0 0.00840034)
(0 0 0.00831026)
(0 0 0.00821947)
(0 0 0.008128)
(0 0 0.00803587)
(0 0 0.00794311)
(0 0 0.00784973)
(0 0 0.00775577)
(0 0 0.00766124)
(0 0 0.00756617)
(0 0 0.00747058)
(0 0 0.00737449)
(0 0 0.00727792)
(0 0 0.00718089)
(0 0 0.00708343)
(0 0 0.00698554)
(0 0 0.00688725)
(0 0 0.00678858)
(0 0 0.00668954)
(0 0 0.00659015)
(0 0 0.00649042)
(0 0 0.00639038)
(0 0 0.00629004)
(0 0 0.0061894)
(0 0 0.00608849)
(0 0 0.00598733)
(0 0 0.00588591)
(0 0 0.00578426)
(0 0 0.00568239)
(0 0 0.00558031)
(0 0 0.00547803)
(0 0 0.00537556)
(0 0 0.00527292)
(0 0 0.00517011)
(0 0 0.00506714)
(0 0 0.00496403)
(0 0 0.00486078)
(0 0 0.00475739)
(0 0 0.00465389)
(0 0 0.00455027)
(0 0 0.00444655)
(0 0 0.00434272)
(0 0 0.00423881)
(0 0 0.0041348)
(0 0 0.00403072)
(0 0 0.00392657)
(0 0 0.00382234)
(0 0 0.00371806)
(0 0 0.00361371)
(0 0 0.00350931)
(0 0 0.00340487)
(0 0 0.00330038)
(0 0 0.00319585)
(0 0 0.00309128)
(0 0 0.00298667)
(0 0 0.00288204)
(0 0 0.00277738)
(0 0 0.0026727)
(0 0 0.00256799)
(0 0 0.00246327)
(0 0 0.00235852)
(0 0 0.00225376)
(0 0 0.00214899)
(0 0 0.00204421)
(0 0 0.00193941)
(0 0 0.00183461)
(0 0 0.0017298)
(0 0 0.00162499)
(0 0 0.00152016)
(0 0 0.00141534)
(0 0 0.00131051)
(0 0 0.00120567)
(0 0 0.00110084)
(0 0 0.000996001)
(0 0 0.000891162)
(0 0 0.000786322)
(0 0 0.00068148)
(0 0 0.000576638)
(0 0 0.000471796)
(0 0 0.000366952)
(0 0 0.000262109)
(0 0 0.000157266)
(0 0 5.24219e-05)
(0 0 8.37307e-05)
(0 0 0.000251191)
(0 0 0.000418649)
(0 0 0.000586102)
(0 0 0.000753548)
(0 0 0.000920985)
(0 0 0.00108841)
(0 0 0.00125582)
(0 0 0.00142322)
(0 0 0.00159059)
(0 0 0.00175794)
(0 0 0.00192527)
(0 0 0.00209256)
(0 0 0.00225982)
(0 0 0.00242704)
(0 0 0.00259421)
(0 0 0.00276133)
(0 0 0.0029284)
(0 0 0.00309539)
(0 0 0.00326232)
(0 0 0.00342916)
(0 0 0.00359591)
(0 0 0.00376257)
(0 0 0.00392911)
(0 0 0.00409553)
(0 0 0.00426182)
(0 0 0.00442796)
(0 0 0.00459394)
(0 0 0.00475975)
(0 0 0.00492537)
(0 0 0.00509078)
(0 0 0.00525596)
(0 0 0.00542091)
(0 0 0.00558559)
(0 0 0.00574999)
(0 0 0.00591409)
(0 0 0.00607786)
(0 0 0.00624128)
(0 0 0.00640432)
(0 0 0.00656697)
(0 0 0.00672918)
(0 0 0.00689094)
(0 0 0.00705222)
(0 0 0.00721298)
(0 0 0.00737319)
(0 0 0.00753283)
(0 0 0.00769185)
(0 0 0.00785022)
(0 0 0.0080079)
(0 0 0.00816487)
(0 0 0.00832107)
(0 0 0.00847647)
(0 0 0.00863103)
(0 0 0.00878471)
(0 0 0.00893746)
(0 0 0.00908924)
(0 0 0.00924)
(0 0 0.00938971)
(0 0 0.0095383)
(0 0 0.00968575)
(0 0 0.00983198)
(0 0 0.00997697)
(0 0 0.0101207)
(0 0 0.010263)
(0 0 0.0104039)
(0 0 0.0105434)
(0 0 0.0106813)
(0 0 0.0108177)
(0 0 0.0109525)
(0 0 0.0110856)
(0 0 0.011217)
(0 0 0.0113466)
(0 0 0.0114744)
(0 0 0.0116003)
(0 0 0.0117242)
(0 0 0.0118462)
(0 0 0.0119661)
(0 0 0.0120839)
(0 0 0.0121996)
(0 0 0.012313)
(0 0 0.0124242)
(0 0 0.0125331)
(0 0 0.0126396)
(0 0 0.0127437)
(0 0 0.0128454)
(0 0 0.0129445)
(0 0 0.0130411)
(0 0 0.0131351)
(0 0 0.0132264)
(0 0 0.0133151)
(0 0 0.013401)
(0 0 0.0134842)
(0 0 0.0135645)
(0 0 0.0136421)
(0 0 0.0137167)
(0 0 0.0137884)
(0 0 0.0138572)
(0 0 0.013923)
(0 0 0.0139858)
(0 0 0.0140456)
(0 0 0.0141023)
(0 0 0.014156)
(0 0 0.0142066)
(0 0 0.014254)
(0 0 0.0142984)
(0 0 0.0143396)
(0 0 0.0143777)
(0 0 0.0144126)
(0 0 0.0144443)
(0 0 0.0144729)
(0 0 0.0144983)
(0 0 0.0145206)
(0 0 0.0145396)
(0 0 0.0145556)
(0 0 0.0145683)
(0 0 0.014578)
(0 0 0.0145844)
(0 0 0.0145878)
(0 0 0.0145881)
(0 0 0.0145853)
(0 0 0.0145794)
(0 0 0.0145704)
(0 0 0.0145584)
(0 0 0.0145435)
(0 0 0.0145255)
(0 0 0.0145046)
(0 0 0.0144808)
(0 0 0.0144541)
(0 0 0.0144245)
(0 0 0.0143921)
(0 0 0.0143569)
(0 0 0.0143189)
(0 0 0.0142783)
(0 0 0.0142349)
(0 0 0.014189)
(0 0 0.0141404)
(0 0 0.0140892)
(0 0 0.0140356)
(0 0 0.0139794)
(0 0 0.0139209)
(0 0 0.0138599)
(0 0 0.0137966)
(0 0 0.013731)
(0 0 0.0136631)
(0 0 0.013593)
(0 0 0.0135208)
(0 0 0.0134465)
(0 0 0.01337)
(0 0 0.0132916)
(0 0 0.0132111)
(0 0 0.0131288)
(0 0 0.0130445)
(0 0 0.0129584)
(0 0 0.0128705)
(0 0 0.0127808)
(0 0 0.0126895)
(0 0 0.0125965)
(0 0 0.0125018)
(0 0 0.0124056)
(0 0 0.0123078)
(0 0 0.0122086)
(0 0 0.0121079)
(0 0 0.0120058)
(0 0 0.0119024)
(0 0 0.0117976)
(0 0 0.0116916)
(0 0 0.0115843)
(0 0 0.0114758)
(0 0 0.0113661)
(0 0 0.0112553)
(0 0 0.0111435)
(0 0 0.0110306)
(0 0 0.0109166)
(0 0 0.0108017)
(0 0 0.0106859)
(0 0 0.0105691)
(0 0 0.0104514)
(0 0 0.0103329)
(0 0 0.0102136)
(0 0 0.0100935)
(0 0 0.00997268)
(0 0 0.00985111)
(0 0 0.00972884)
(0 0 0.0096059)
(0 0 0.00948232)
(0 0 0.00935813)
(0 0 0.00923335)
(0 0 0.009108)
(0 0 0.00898211)
(0 0 0.00885571)
(0 0 0.00872882)
(0 0 0.00860145)
(0 0 0.00847363)
(0 0 0.00834539)
(0 0 0.00821674)
(0 0 0.0080877)
(0 0 0.00795828)
(0 0 0.00782852)
(0 0 0.00769843)
(0 0 0.00756801)
(0 0 0.0074373)
(0 0 0.0073063)
(0 0 0.00717504)
(0 0 0.00704352)
(0 0 0.00691175)
(0 0 0.00677977)
(0 0 0.00664757)
(0 0 0.00651516)
(0 0 0.00638257)
(0 0 0.0062498)
(0 0 0.00611687)
(0 0 0.00598378)
(0 0 0.00585054)
(0 0 0.00571717)
(0 0 0.00558367)
(0 0 0.00545005)
(0 0 0.00531632)
(0 0 0.00518249)
(0 0 0.00504857)
(0 0 0.00491456)
(0 0 0.00478047)
(0 0 0.0046463)
(0 0 0.00451207)
(0 0 0.00437777)
(0 0 0.00424342)
(0 0 0.00410901)
(0 0 0.00397456)
(0 0 0.00384007)
(0 0 0.00370554)
(0 0 0.00357097)
(0 0 0.00343637)
(0 0 0.00330174)
(0 0 0.00316709)
(0 0 0.00303242)
(0 0 0.00289772)
(0 0 0.00276301)
(0 0 0.00262829)
(0 0 0.00249355)
(0 0 0.0023588)
(0 0 0.00222405)
(0 0 0.00208928)
(0 0 0.00195451)
(0 0 0.00181973)
(0 0 0.00168495)
(0 0 0.00155016)
(0 0 0.00141537)
(0 0 0.00128058)
(0 0 0.00114578)
(0 0 0.00101099)
(0 0 0.000876192)
(0 0 0.000741394)
(0 0 0.000606596)
(0 0 0.000471797)
(0 0 0.000336998)
(0 0 0.000202199)
(0 0 6.73997e-05)
(0 0 0.00010234)
(0 0 0.000307018)
(0 0 0.000511693)
(0 0 0.000716362)
(0 0 0.000921023)
(0 0 0.00112567)
(0 0 0.00133031)
(0 0 0.00153493)
(0 0 0.00173953)
(0 0 0.00194411)
(0 0 0.00214866)
(0 0 0.00235317)
(0 0 0.00255765)
(0 0 0.00276209)
(0 0 0.00296648)
(0 0 0.00317082)
(0 0 0.00337509)
(0 0 0.00357929)
(0 0 0.00378341)
(0 0 0.00398745)
(0 0 0.00419139)
(0 0 0.00439522)
(0 0 0.00459893)
(0 0 0.0048025)
(0 0 0.00500593)
(0 0 0.0052092)
(0 0 0.00541229)
(0 0 0.00561518)
(0 0 0.00581787)
(0 0 0.00602032)
(0 0 0.00622253)
(0 0 0.00642446)
(0 0 0.0066261)
(0 0 0.00682742)
(0 0 0.00702839)
(0 0 0.007229)
(0 0 0.00742921)
(0 0 0.007629)
(0 0 0.00782833)
(0 0 0.00802717)
(0 0 0.0082255)
(0 0 0.00842327)
(0 0 0.00862044)
(0 0 0.00881699)
(0 0 0.00901288)
(0 0 0.00920805)
(0 0 0.00940248)
(0 0 0.00959612)
(0 0 0.00978892)
(0 0 0.00998085)
(0 0 0.0101718)
(0 0 0.0103619)
(0 0 0.0105509)
(0 0 0.0107388)
(0 0 0.0109255)
(0 0 0.0111111)
(0 0 0.0112955)
(0 0 0.0114786)
(0 0 0.0116603)
(0 0 0.0118406)
(0 0 0.0120194)
(0 0 0.0121967)
(0 0 0.0123725)
(0 0 0.0125465)
(0 0 0.0127189)
(0 0 0.0128894)
(0 0 0.0130582)
(0 0 0.013225)
(0 0 0.0133898)
(0 0 0.0135526)
(0 0 0.0137133)
(0 0 0.0138718)
(0 0 0.0140281)
(0 0 0.0141821)
(0 0 0.0143337)
(0 0 0.0144829)
(0 0 0.0146295)
(0 0 0.0147736)
(0 0 0.0149151)
(0 0 0.0150539)
(0 0 0.0151899)
(0 0 0.015323)
(0 0 0.0154533)
(0 0 0.0155807)
(0 0 0.015705)
(0 0 0.0158263)
(0 0 0.0159444)
(0 0 0.0160594)
(0 0 0.0161711)
(0 0 0.0162796)
(0 0 0.0163847)
(0 0 0.0164864)
(0 0 0.0165847)
(0 0 0.0166795)
(0 0 0.0167708)
(0 0 0.0168585)
(0 0 0.0169427)
(0 0 0.0170231)
(0 0 0.0171)
(0 0 0.0171731)
(0 0 0.0172425)
(0 0 0.0173081)
(0 0 0.0173699)
(0 0 0.017428)
(0 0 0.0174822)
(0 0 0.0175326)
(0 0 0.0175791)
(0 0 0.0176218)
(0 0 0.0176606)
(0 0 0.0176956)
(0 0 0.0177266)
(0 0 0.0177538)
(0 0 0.0177771)
(0 0 0.0177966)
(0 0 0.0178122)
(0 0 0.0178239)
(0 0 0.0178318)
(0 0 0.0178359)
(0 0 0.0178362)
(0 0 0.0178327)
(0 0 0.0178254)
(0 0 0.0178145)
(0 0 0.0177998)
(0 0 0.0177814)
(0 0 0.0177594)
(0 0 0.0177338)
(0 0 0.0177046)
(0 0 0.0176719)
(0 0 0.0176357)
(0 0 0.017596)
(0 0 0.0175529)
(0 0 0.0175065)
(0 0 0.0174567)
(0 0 0.0174037)
(0 0 0.0173474)
(0 0 0.0172879)
(0 0 0.0172253)
(0 0 0.0171596)
(0 0 0.0170909)
(0 0 0.0170193)
(0 0 0.0169447)
(0 0 0.0168672)
(0 0 0.0167869)
(0 0 0.0167039)
(0 0 0.0166182)
(0 0 0.0165298)
(0 0 0.0164388)
(0 0 0.0163453)
(0 0 0.0162493)
(0 0 0.0161509)
(0 0 0.0160501)
(0 0 0.0159471)
(0 0 0.0158417)
(0 0 0.0157342)
(0 0 0.0156245)
(0 0 0.0155128)
(0 0 0.015399)
(0 0 0.0152832)
(0 0 0.0151655)
(0 0 0.015046)
(0 0 0.0149246)
(0 0 0.0148014)
(0 0 0.0146766)
(0 0 0.0145501)
(0 0 0.0144219)
(0 0 0.0142922)
(0 0 0.014161)
(0 0 0.0140283)
(0 0 0.0138942)
(0 0 0.0137588)
(0 0 0.013622)
(0 0 0.0134839)
(0 0 0.0133446)
(0 0 0.013204)
(0 0 0.0130624)
(0 0 0.0129196)
(0 0 0.0127757)
(0 0 0.0126308)
(0 0 0.0124849)
(0 0 0.0123381)
(0 0 0.0121903)
(0 0 0.0120417)
(0 0 0.0118922)
(0 0 0.0117419)
(0 0 0.0115908)
(0 0 0.0114389)
(0 0 0.0112864)
(0 0 0.0111331)
(0 0 0.0109792)
(0 0 0.0108247)
(0 0 0.0106695)
(0 0 0.0105138)
(0 0 0.0103576)
(0 0 0.0102008)
(0 0 0.0100435)
(0 0 0.00988574)
(0 0 0.00972753)
(0 0 0.00956889)
(0 0 0.00940985)
(0 0 0.00925043)
(0 0 0.00909063)
(0 0 0.00893049)
(0 0 0.00877003)
(0 0 0.00860925)
(0 0 0.00844818)
(0 0 0.00828683)
(0 0 0.00812523)
(0 0 0.00796338)
(0 0 0.0078013)
(0 0 0.007639)
(0 0 0.00747651)
(0 0 0.00731382)
(0 0 0.00715095)
(0 0 0.00698792)
(0 0 0.00682474)
(0 0 0.00666141)
(0 0 0.00649795)
(0 0 0.00633436)
(0 0 0.00617066)
(0 0 0.00600686)
(0 0 0.00584295)
(0 0 0.00567896)
(0 0 0.00551489)
(0 0 0.00535074)
(0 0 0.00518652)
(0 0 0.00502224)
(0 0 0.0048579)
(0 0 0.00469351)
(0 0 0.00452907)
(0 0 0.00436459)
(0 0 0.00420007)
(0 0 0.00403552)
(0 0 0.00387094)
(0 0 0.00370634)
(0 0 0.00354171)
(0 0 0.00337706)
(0 0 0.00321239)
(0 0 0.0030477)
(0 0 0.00288301)
(0 0 0.0027183)
(0 0 0.00255358)
(0 0 0.00238886)
(0 0 0.00222413)
(0 0 0.00205939)
(0 0 0.00189465)
(0 0 0.00172991)
(0 0 0.00156516)
(0 0 0.00140041)
(0 0 0.00123566)
(0 0 0.0010709)
(0 0 0.000906151)
(0 0 0.000741397)
(0 0 0.000576643)
(0 0 0.000411888)
(0 0 0.000247133)
(0 0 8.23776e-05)
(0 0 0.00012095)
(0 0 0.000362848)
(0 0 0.000604743)
(0 0 0.000846631)
(0 0 0.00108851)
(0 0 0.00133038)
(0 0 0.00157223)
(0 0 0.00181406)
(0 0 0.00205587)
(0 0 0.00229765)
(0 0 0.0025394)
(0 0 0.00278112)
(0 0 0.00302279)
(0 0 0.00326441)
(0 0 0.00350598)
(0 0 0.00374748)
(0 0 0.00398891)
(0 0 0.00423026)
(0 0 0.00447152)
(0 0 0.00471268)
(0 0 0.00495373)
(0 0 0.00519464)
(0 0 0.00543542)
(0 0 0.00567604)
(0 0 0.00591649)
(0 0 0.00615675)
(0 0 0.00639681)
(0 0 0.00663664)
(0 0 0.00687622)
(0 0 0.00711553)
(0 0 0.00735455)
(0 0 0.00759325)
(0 0 0.00783161)
(0 0 0.00806959)
(0 0 0.00830717)
(0 0 0.00854432)
(0 0 0.008781)
(0 0 0.00901719)
(0 0 0.00925283)
(0 0 0.00948791)
(0 0 0.00972237)
(0 0 0.00995618)
(0 0 0.0101893)
(0 0 0.0104217)
(0 0 0.0106533)
(0 0 0.010884)
(0 0 0.0111139)
(0 0 0.0113429)
(0 0 0.0115708)
(0 0 0.0117978)
(0 0 0.0120236)
(0 0 0.0122483)
(0 0 0.0124718)
(0 0 0.012694)
(0 0 0.0129148)
(0 0 0.0131343)
(0 0 0.0133523)
(0 0 0.0135688)
(0 0 0.0137837)
(0 0 0.0139969)
(0 0 0.0142084)
(0 0 0.0144181)
(0 0 0.0146259)
(0 0 0.0148318)
(0 0 0.0150356)
(0 0 0.0152374)
(0 0 0.0154369)
(0 0 0.0156342)
(0 0 0.0158292)
(0 0 0.0160217)
(0 0 0.0162118)
(0 0 0.0163993)
(0 0 0.0165841)
(0 0 0.0167663)
(0 0 0.0169456)
(0 0 0.0171221)
(0 0 0.0172955)
(0 0 0.017466)
(0 0 0.0176333)
(0 0 0.0177975)
(0 0 0.0179584)
(0 0 0.0181159)
(0 0 0.01827)
(0 0 0.0184207)
(0 0 0.0185677)
(0 0 0.0187112)
(0 0 0.0188509)
(0 0 0.0189869)
(0 0 0.0191191)
(0 0 0.0192474)
(0 0 0.0193717)
(0 0 0.0194921)
(0 0 0.0196083)
(0 0 0.0197205)
(0 0 0.0198285)
(0 0 0.0199322)
(0 0 0.0200318)
(0 0 0.020127)
(0 0 0.0202178)
(0 0 0.0203043)
(0 0 0.0203864)
(0 0 0.020464)
(0 0 0.0205371)
(0 0 0.0206058)
(0 0 0.0206699)
(0 0 0.0207295)
(0 0 0.0207845)
(0 0 0.020835)
(0 0 0.0208808)
(0 0 0.0209221)
(0 0 0.0209588)
(0 0 0.020991)
(0 0 0.0210185)
(0 0 0.0210415)
(0 0 0.0210599)
(0 0 0.0210737)
(0 0 0.021083)
(0 0 0.0210878)
(0 0 0.0210881)
(0 0 0.0210839)
(0 0 0.0210753)
(0 0 0.0210622)
(0 0 0.0210448)
(0 0 0.0210231)
(0 0 0.020997)
(0 0 0.0209666)
(0 0 0.020932)
(0 0 0.0208933)
(0 0 0.0208504)
(0 0 0.0208034)
(0 0 0.0207524)
(0 0 0.0206974)
(0 0 0.0206384)
(0 0 0.0205756)
(0 0 0.020509)
(0 0 0.0204386)
(0 0 0.0203645)
(0 0 0.0202868)
(0 0 0.0202054)
(0 0 0.0201206)
(0 0 0.0200323)
(0 0 0.0199407)
(0 0 0.0198456)
(0 0 0.0197474)
(0 0 0.0196459)
(0 0 0.0195414)
(0 0 0.0194337)
(0 0 0.0193231)
(0 0 0.0192095)
(0 0 0.0190931)
(0 0 0.0189738)
(0 0 0.0188519)
(0 0 0.0187273)
(0 0 0.0186001)
(0 0 0.0184703)
(0 0 0.0183381)
(0 0 0.0182035)
(0 0 0.0180666)
(0 0 0.0179274)
(0 0 0.0177859)
(0 0 0.0176424)
(0 0 0.0174967)
(0 0 0.017349)
(0 0 0.0171994)
(0 0 0.0170478)
(0 0 0.0168944)
(0 0 0.0167393)
(0 0 0.0165823)
(0 0 0.0164237)
(0 0 0.0162635)
(0 0 0.0161018)
(0 0 0.0159385)
(0 0 0.0157737)
(0 0 0.0156075)
(0 0 0.01544)
(0 0 0.0152712)
(0 0 0.0151011)
(0 0 0.0149297)
(0 0 0.0147572)
(0 0 0.0145836)
(0 0 0.0144089)
(0 0 0.0142331)
(0 0 0.0140564)
(0 0 0.0138786)
(0 0 0.0137)
(0 0 0.0135205)
(0 0 0.0133401)
(0 0 0.0131589)
(0 0 0.012977)
(0 0 0.0127942)
(0 0 0.0126108)
(0 0 0.0124267)
(0 0 0.012242)
(0 0 0.0120567)
(0 0 0.0118707)
(0 0 0.0116842)
(0 0 0.0114972)
(0 0 0.0113097)
(0 0 0.0111217)
(0 0 0.0109332)
(0 0 0.0107443)
(0 0 0.010555)
(0 0 0.0103653)
(0 0 0.0101753)