/*--------------------------------*- C++ -*----------------------------------*\
| =========                 |                                                 |
| \\      /  F ield         | OpenFOAM: The Open Source CFD Toolbox           |
|  \\    /   O peration     | Version:  v2012                                 |
|   \\  /    A nd           | Website:  www.openfoam.com                      |
|    \\/     M anipulation  |                                                 |
\*---------------------------------------------------------------------------*/
FoamFile
{
    version     2.0;
    format      ascii;
    class       volScalarField;
    location    "7.5";
    object      W_z;
}
// * * * * * * * * * * * * * * * * * * * * * * * * * * * * * * * * * * * * * //

dimensions      [0 0 -1 0 0 0 0];


internalField   nonuniform List<scalar> 
65536
(
-2.08741e-08
-6.05637e-08
-9.86387e-08
-1.23177e-07
-1.45266e-07
-1.67307e-07
-1.8888e-07
-2.09199e-07
-2.28002e-07
-2.45853e-07
-2.6374e-07
-2.82251e-07
-3.01313e-07
-3.20659e-07
-3.40259e-07
-3.60319e-07
-3.81042e-07
-4.02472e-07
-4.24486e-07
-4.46898e-07
-4.69567e-07
-4.92416e-07
-5.154e-07
-5.38472e-07
-5.61599e-07
-5.84771e-07
-6.07976e-07
-6.3119e-07
-6.54394e-07
-6.77605e-07
-7.00862e-07
-7.24179e-07
-7.47505e-07
-7.70785e-07
-7.94028e-07
-8.17296e-07
-8.40633e-07
-8.63982e-07
-8.87202e-07
-9.10194e-07
-9.32971e-07
-9.5559e-07
-9.78044e-07
-1.00025e-06
-1.02212e-06
-1.04369e-06
-1.06509e-06
-1.08646e-06
-1.1079e-06
-1.12953e-06
-1.15153e-06
-1.17408e-06
-1.19728e-06
-1.22111e-06
-1.24549e-06
-1.2703e-06
-1.29546e-06
-1.32077e-06
-1.34598e-06
-1.37078e-06
-1.39495e-06
-1.4183e-06
-1.44076e-06
-1.46233e-06
-1.48313e-06
-1.50331e-06
-1.52308e-06
-1.54269e-06
-1.56236e-06
-1.58233e-06
-1.60278e-06
-1.62377e-06
-1.64522e-06
-1.66699e-06
-1.68888e-06
-1.71072e-06
-1.73235e-06
-1.75369e-06
-1.77475e-06
-1.79554e-06
-1.81604e-06
-1.83622e-06
-1.85607e-06
-1.8756e-06
-1.89477e-06
-1.91341e-06
-1.93131e-06
-1.94835e-06
-1.96458e-06
-1.98014e-06
-1.99514e-06
-2.00969e-06
-2.02397e-06
-2.03828e-06
-2.05299e-06
-2.06833e-06
-2.08432e-06
-2.1008e-06
-2.11754e-06
-2.13435e-06
-2.15094e-06
-2.167e-06
-2.18215e-06
-2.19613e-06
-2.20889e-06
-2.22052e-06
-2.23117e-06
-2.24101e-06
-2.25021e-06
-2.2589e-06
-2.26729e-06
-2.2755e-06
-2.28356e-06
-2.29136e-06
-2.2988e-06
-2.30575e-06
-2.31217e-06
-2.31801e-06
-2.32311e-06
-2.3273e-06
-2.33048e-06
-2.33273e-06
-2.33418e-06
-2.33503e-06
-2.33553e-06
-2.33592e-06
-2.33648e-06
-2.33751e-06
-2.33914e-06
-2.34133e-06
-2.34398e-06
-2.34694e-06
-2.34996e-06
-2.35273e-06
-2.35491e-06
-2.35624e-06
-2.35659e-06
-2.35601e-06
-2.35457e-06
-2.35242e-06
-2.34966e-06
-2.34636e-06
-2.34266e-06
-2.33876e-06
-2.3348e-06
-2.33084e-06
-2.32687e-06
-2.32286e-06
-2.31869e-06
-2.31421e-06
-2.30921e-06
-2.30352e-06
-2.29723e-06
-2.29048e-06
-2.28343e-06
-2.2763e-06
-2.26921e-06
-2.26225e-06
-2.25548e-06
-2.24883e-06
-2.24215e-06
-2.23521e-06
-2.22773e-06
-2.21945e-06
-2.21036e-06
-2.2004e-06
-2.18934e-06
-2.17705e-06
-2.16358e-06
-2.149e-06
-2.13356e-06
-2.11772e-06
-2.10186e-06
-2.08645e-06
-2.07197e-06
-2.05873e-06
-2.04666e-06
-2.03547e-06
-2.02471e-06
-2.01386e-06
-2.00264e-06
-1.99087e-06
-1.97846e-06
-1.96537e-06
-1.95167e-06
-1.93741e-06
-1.92266e-06
-1.90746e-06
-1.89168e-06
-1.87515e-06
-1.85784e-06
-1.83978e-06
-1.82095e-06
-1.80137e-06
-1.78105e-06
-1.76002e-06
-1.73833e-06
-1.71596e-06
-1.69298e-06
-1.6693e-06
-1.64474e-06
-1.61936e-06
-1.59329e-06
-1.56664e-06
-1.53966e-06
-1.51256e-06
-1.48551e-06
-1.45866e-06
-1.43212e-06
-1.40587e-06
-1.37981e-06
-1.35384e-06
-1.32784e-06
-1.30161e-06
-1.27489e-06
-1.24747e-06
-1.21929e-06
-1.19041e-06
-1.16098e-06
-1.13122e-06
-1.10129e-06
-1.07126e-06
-1.0412e-06
-1.01107e-06
-9.8081e-07
-9.50301e-07
-9.19461e-07
-8.88307e-07
-8.56877e-07
-8.2527e-07
-7.93596e-07
-7.61955e-07
-7.30406e-07
-6.98987e-07
-6.67684e-07
-6.36426e-07
-6.05142e-07
-5.73749e-07
-5.42169e-07
-5.10344e-07
-4.78248e-07
-4.45861e-07
-4.13179e-07
-3.80237e-07
-3.47076e-07
-3.13769e-07
-2.80447e-07
-2.47288e-07
-2.14511e-07
-1.82354e-07
-1.5108e-07
-1.20947e-07
-9.21639e-08
-6.48079e-08
-3.85376e-08
-1.27029e-08
-6.83386e-08
-1.90918e-07
-2.95673e-07
-3.74487e-07
-4.45996e-07
-5.13504e-07
-5.76565e-07
-6.3543e-07
-6.91668e-07
-7.47008e-07
-8.02441e-07
-8.5816e-07
-9.14161e-07
-9.70853e-07
-1.02899e-06
-1.0891e-06
-1.15117e-06
-1.21482e-06
-1.27966e-06
-1.3454e-06
-1.41189e-06
-1.47901e-06
-1.54662e-06
-1.6145e-06
-1.68242e-06
-1.75025e-06
-1.81802e-06
-1.88582e-06
-1.95374e-06
-2.02172e-06
-2.08971e-06
-2.15769e-06
-2.22571e-06
-2.29387e-06
-2.36219e-06
-2.43058e-06
-2.49893e-06
-2.56709e-06
-2.63498e-06
-2.70251e-06
-2.76963e-06
-2.83622e-06
-2.90211e-06
-2.96716e-06
-3.0313e-06
-3.09467e-06
-3.15752e-06
-3.22019e-06
-3.28303e-06
-3.34651e-06
-3.41112e-06
-3.47729e-06
-3.54527e-06
-3.61511e-06
-3.68669e-06
-3.75976e-06
-3.83388e-06
-3.90841e-06
-3.98255e-06
-4.05555e-06
-4.12679e-06
-4.19578e-06
-4.2622e-06
-4.32595e-06
-4.38729e-06
-4.44679e-06
-4.50518e-06
-4.56324e-06
-4.62165e-06
-4.681e-06
-4.74173e-06
-4.80402e-06
-4.86773e-06
-4.93245e-06
-4.99766e-06
-5.06283e-06
-5.12756e-06
-5.19149e-06
-5.25449e-06
-5.31652e-06
-5.37764e-06
-5.43789e-06
-5.4973e-06
-5.55576e-06
-5.61305e-06
-5.66874e-06
-5.72238e-06
-5.77365e-06
-5.8225e-06
-5.86917e-06
-5.91407e-06
-5.95773e-06
-6.0009e-06
-6.04442e-06
-6.08915e-06
-6.13562e-06
-6.18394e-06
-6.23379e-06
-6.28463e-06
-6.3357e-06
-6.38614e-06
-6.43498e-06
-6.48125e-06
-6.52426e-06
-6.56371e-06
-6.59972e-06
-6.63268e-06
-6.66315e-06
-6.69171e-06
-6.71883e-06
-6.74498e-06
-6.77047e-06
-6.79539e-06
-6.81963e-06
-6.84289e-06
-6.86481e-06
-6.88508e-06
-6.90346e-06
-6.91963e-06
-6.93325e-06
-6.94412e-06
-6.95227e-06
-6.95803e-06
-6.96187e-06
-6.9645e-06
-6.96671e-06
-6.96935e-06
-6.97328e-06
-6.97905e-06
-6.98671e-06
-6.99582e-06
-7.00572e-06
-7.01557e-06
-7.02455e-06
-7.03185e-06
-7.03694e-06
-7.03943e-06
-7.03925e-06
-7.03645e-06
-7.0313e-06
-7.02425e-06
-7.01568e-06
-7.00608e-06
-6.99599e-06
-6.98573e-06
-6.97541e-06
-6.96498e-06
-6.95431e-06
-6.94305e-06
-6.93078e-06
-6.91707e-06
-6.90151e-06
-6.88413e-06
-6.86529e-06
-6.84547e-06
-6.82538e-06
-6.80554e-06
-6.78624e-06
-6.7675e-06
-6.74903e-06
-6.73028e-06
-6.71058e-06
-6.68924e-06
-6.66555e-06
-6.63918e-06
-6.60993e-06
-6.57745e-06
-6.54134e-06
-6.5015e-06
-6.45821e-06
-6.4121e-06
-6.36454e-06
-6.317e-06
-6.27096e-06
-6.22766e-06
-6.18777e-06
-6.15128e-06
-6.11733e-06
-6.08473e-06
-6.05204e-06
-6.01807e-06
-5.98228e-06
-5.9444e-06
-5.90456e-06
-5.86295e-06
-5.81986e-06
-5.7753e-06
-5.72936e-06
-5.68189e-06
-5.63256e-06
-5.5811e-06
-5.52749e-06
-5.47172e-06
-5.41388e-06
-5.35412e-06
-5.29251e-06
-5.22908e-06
-5.16364e-06
-5.09605e-06
-5.0262e-06
-4.95381e-06
-4.87886e-06
-4.80161e-06
-4.72236e-06
-4.6417e-06
-4.56029e-06
-4.47866e-06
-4.39724e-06
-4.31634e-06
-4.23604e-06
-4.15627e-06
-4.07662e-06
-3.99651e-06
-3.91521e-06
-3.83212e-06
-3.74678e-06
-3.65917e-06
-3.56946e-06
-3.47807e-06
-3.38554e-06
-3.29247e-06
-3.19928e-06
-3.10616e-06
-3.01305e-06
-2.91972e-06
-2.82589e-06
-2.73134e-06
-2.63614e-06
-2.5404e-06
-2.44439e-06
-2.34843e-06
-2.25283e-06
-2.15777e-06
-2.06333e-06
-1.96947e-06
-1.87598e-06
-1.78259e-06
-1.68905e-06
-1.59514e-06
-1.5007e-06
-1.40564e-06
-1.30987e-06
-1.21336e-06
-1.11617e-06
-1.01845e-06
-9.20409e-07
-8.22398e-07
-7.24884e-07
-6.28503e-07
-5.34053e-07
-4.42403e-07
-3.54344e-07
-2.70328e-07
-1.90163e-07
-1.12665e-07
-3.72469e-08
-1.09083e-07
-3.15808e-07
-4.91666e-07
-6.31401e-07
-7.53796e-07
-8.65469e-07
-9.6918e-07
-1.06691e-06
-1.16054e-06
-1.25167e-06
-1.3416e-06
-1.43147e-06
-1.52226e-06
-1.61483e-06
-1.70971e-06
-1.80717e-06
-1.90718e-06
-2.00951e-06
-2.11383e-06
-2.21974e-06
-2.32685e-06
-2.4348e-06
-2.5433e-06
-2.65209e-06
-2.76095e-06
-2.86973e-06
-2.97839e-06
-3.08699e-06
-3.19563e-06
-3.30435e-06
-3.41318e-06
-3.52215e-06
-3.63133e-06
-3.74079e-06
-3.8505e-06
-3.96039e-06
-4.07034e-06
-4.18024e-06
-4.28996e-06
-4.39929e-06
-4.50793e-06
-4.6156e-06
-4.72208e-06
-4.82724e-06
-4.93106e-06
-5.03365e-06
-5.13532e-06
-5.23655e-06
-5.33803e-06
-5.44051e-06
-5.54472e-06
-5.65133e-06
-5.76083e-06
-5.87344e-06
-5.98902e-06
-6.10712e-06
-6.22697e-06
-6.34752e-06
-6.46757e-06
-6.58589e-06
-6.7014e-06
-6.8133e-06
-6.92111e-06
-7.02472e-06
-7.12453e-06
-7.22134e-06
-7.31634e-06
-7.41087e-06
-7.50616e-06
-7.60321e-06
-7.70269e-06
-7.80483e-06
-7.90942e-06
-8.01586e-06
-8.12331e-06
-8.2309e-06
-8.33783e-06
-8.44354e-06
-8.54768e-06
-8.65021e-06
-8.75124e-06
-8.85091e-06
-8.94915e-06
-9.0457e-06
-9.14013e-06
-9.23193e-06
-9.32055e-06
-9.40549e-06
-9.48653e-06
-9.56391e-06
-9.63837e-06
-9.71102e-06
-9.78315e-06
-9.85606e-06
-9.93093e-06
-1.00086e-05
-1.00894e-05
-1.0173e-05
-1.02585e-05
-1.03445e-05
-1.04295e-05
-1.05119e-05
-1.05903e-05
-1.06636e-05
-1.07313e-05
-1.07933e-05
-1.08502e-05
-1.09028e-05
-1.09522e-05
-1.09991e-05
-1.10442e-05
-1.1088e-05
-1.11306e-05
-1.1172e-05
-1.1212e-05
-1.12499e-05
-1.12853e-05
-1.13176e-05
-1.13464e-05
-1.13712e-05
-1.13916e-05
-1.14077e-05
-1.14197e-05
-1.14284e-05
-1.1435e-05
-1.14409e-05
-1.14472e-05
-1.14554e-05
-1.14663e-05
-1.14802e-05
-1.14967e-05
-1.15145e-05
-1.15324e-05
-1.15489e-05
-1.15628e-05
-1.15733e-05
-1.15796e-05
-1.15817e-05
-1.15796e-05
-1.15738e-05
-1.15649e-05
-1.15538e-05
-1.1541e-05
-1.15273e-05
-1.15131e-05
-1.14989e-05
-1.14843e-05
-1.14692e-05
-1.14528e-05
-1.14345e-05
-1.14136e-05
-1.13899e-05
-1.13632e-05
-1.13341e-05
-1.13034e-05
-1.12723e-05
-1.12419e-05
-1.12124e-05
-1.1184e-05
-1.11558e-05
-1.11271e-05
-1.10965e-05
-1.10631e-05
-1.1026e-05
-1.09843e-05
-1.09375e-05
-1.08852e-05
-1.08269e-05
-1.07624e-05
-1.0692e-05
-1.06169e-05
-1.05391e-05
-1.04613e-05
-1.03859e-05
-1.03151e-05
-1.02497e-05
-1.01898e-05
-1.01339e-05
-1.00801e-05
-1.00261e-05
-9.96984e-06
-9.91033e-06
-9.84708e-06
-9.78051e-06
-9.71101e-06
-9.63925e-06
-9.56522e-06
-9.48896e-06
-9.41023e-06
-9.3288e-06
-9.24423e-06
-9.15632e-06
-9.06513e-06
-8.97079e-06
-8.87353e-06
-8.7734e-06
-8.67033e-06
-8.5641e-06
-8.45422e-06
-8.34031e-06
-8.22209e-06
-8.09929e-06
-7.97216e-06
-7.84127e-06
-7.7075e-06
-7.57192e-06
-7.43563e-06
-7.29945e-06
-7.16393e-06
-7.02918e-06
-6.895e-06
-6.76072e-06
-6.62541e-06
-6.48786e-06
-6.34714e-06
-6.2025e-06
-6.05388e-06
-5.9016e-06
-5.74644e-06
-5.58941e-06
-5.43157e-06
-5.27372e-06
-5.11617e-06
-4.95887e-06
-4.80147e-06
-4.64357e-06
-4.48488e-06
-4.32539e-06
-4.16537e-06
-4.00523e-06
-3.84551e-06
-3.68667e-06
-3.52902e-06
-3.3726e-06
-3.21729e-06
-3.06278e-06
-2.90867e-06
-2.75459e-06
-2.60017e-06
-2.44511e-06
-2.28921e-06
-2.13236e-06
-1.97454e-06
-1.8158e-06
-1.65632e-06
-1.49642e-06
-1.33662e-06
-1.17772e-06
-1.02079e-06
-8.67137e-07
-7.18142e-07
-5.75e-07
-4.3838e-07
-3.08023e-07
-1.82539e-07
-6.06496e-08
-1.49523e-07
-4.33836e-07
-6.74472e-07
-8.71937e-07
-1.0439e-06
-1.19882e-06
-1.34142e-06
-1.47501e-06
-1.60232e-06
-1.72566e-06
-1.84699e-06
-1.96797e-06
-2.09003e-06
-2.21427e-06
-2.34142e-06
-2.4718e-06
-2.60539e-06
-2.74194e-06
-2.88108e-06
-3.02234e-06
-3.1652e-06
-3.30915e-06
-3.45373e-06
-3.59862e-06
-3.74359e-06
-3.88847e-06
-4.03319e-06
-4.17776e-06
-4.32226e-06
-4.46686e-06
-4.61168e-06
-4.75685e-06
-4.90247e-06
-5.04862e-06
-5.19533e-06
-5.34257e-06
-5.49017e-06
-5.63796e-06
-5.78571e-06
-5.93313e-06
-6.07984e-06
-6.22541e-06
-6.36942e-06
-6.51162e-06
-6.65193e-06
-6.79051e-06
-6.92772e-06
-7.06421e-06
-7.20085e-06
-7.33867e-06
-7.4787e-06
-7.62185e-06
-7.76881e-06
-7.91989e-06
-8.07502e-06
-8.23363e-06
-8.39471e-06
-8.5569e-06
-8.71862e-06
-8.87822e-06
-9.03416e-06
-9.18529e-06
-9.33097e-06
-9.47112e-06
-9.60625e-06
-9.73744e-06
-9.86625e-06
-9.99451e-06
-1.0124e-05
-1.02562e-05
-1.0392e-05
-1.05317e-05
-1.06751e-05
-1.08212e-05
-1.09691e-05
-1.11173e-05
-1.12648e-05
-1.14107e-05
-1.15545e-05
-1.16961e-05
-1.18356e-05
-1.1973e-05
-1.21083e-05
-1.22412e-05
-1.23711e-05
-1.24972e-05
-1.2619e-05
-1.27358e-05
-1.28475e-05
-1.29545e-05
-1.30575e-05
-1.31581e-05
-1.32583e-05
-1.33597e-05
-1.3464e-05
-1.35723e-05
-1.36849e-05
-1.38015e-05
-1.39209e-05
-1.40415e-05
-1.4161e-05
-1.42771e-05
-1.4388e-05
-1.44922e-05
-1.45889e-05
-1.4678e-05
-1.476e-05
-1.48359e-05
-1.49069e-05
-1.49741e-05
-1.50386e-05
-1.5101e-05
-1.51615e-05
-1.52201e-05
-1.52766e-05
-1.53307e-05
-1.53817e-05
-1.54289e-05
-1.54714e-05
-1.55088e-05
-1.55403e-05
-1.5566e-05
-1.55861e-05
-1.56015e-05
-1.56136e-05
-1.56244e-05
-1.56356e-05
-1.56489e-05
-1.56655e-05
-1.56859e-05
-1.57097e-05
-1.57356e-05
-1.57619e-05
-1.57867e-05
-1.58083e-05
-1.58252e-05
-1.58366e-05
-1.58424e-05
-1.58428e-05
-1.58383e-05
-1.58299e-05
-1.58186e-05
-1.58052e-05
-1.57905e-05
-1.57749e-05
-1.57589e-05
-1.57423e-05
-1.57244e-05
-1.57044e-05
-1.56812e-05
-1.56542e-05
-1.5623e-05
-1.55878e-05
-1.55496e-05
-1.55095e-05
-1.54691e-05
-1.54295e-05
-1.53915e-05
-1.5355e-05
-1.5319e-05
-1.52821e-05
-1.52427e-05
-1.51993e-05
-1.51508e-05
-1.50961e-05
-1.50343e-05
-1.49647e-05
-1.4887e-05
-1.48007e-05
-1.47065e-05
-1.46059e-05
-1.45015e-05
-1.43968e-05
-1.42954e-05
-1.42002e-05
-1.41126e-05
-1.40322e-05
-1.39571e-05
-1.38843e-05
-1.38108e-05
-1.37341e-05
-1.36526e-05
-1.35657e-05
-1.3474e-05
-1.33782e-05
-1.32791e-05
-1.3177e-05
-1.3072e-05
-1.29636e-05
-1.28516e-05
-1.27355e-05
-1.2615e-05
-1.24902e-05
-1.23611e-05
-1.22282e-05
-1.20916e-05
-1.19509e-05
-1.1806e-05
-1.1656e-05
-1.15001e-05
-1.13377e-05
-1.11686e-05
-1.09931e-05
-1.08118e-05
-1.06263e-05
-1.0438e-05
-1.02486e-05
-1.00593e-05
-9.87107e-06
-9.68408e-06
-9.498e-06
-9.31191e-06
-9.12448e-06
-8.93408e-06
-8.73921e-06
-8.53883e-06
-8.33268e-06
-8.12127e-06
-7.90584e-06
-7.68786e-06
-7.46881e-06
-7.24981e-06
-7.03136e-06
-6.81343e-06
-6.59555e-06
-6.37718e-06
-6.15795e-06
-5.9378e-06
-5.71707e-06
-5.49633e-06
-5.2763e-06
-5.05753e-06
-4.84038e-06
-4.6249e-06
-4.41085e-06
-4.19786e-06
-3.98546e-06
-3.77316e-06
-3.56053e-06
-3.34723e-06
-3.13297e-06
-2.9176e-06
-2.70108e-06
-2.48346e-06
-2.26494e-06
-2.04592e-06
-1.8271e-06
-1.60955e-06
-1.39475e-06
-1.18449e-06
-9.8069e-07
-7.84987e-07
-5.98284e-07
-4.20222e-07
-2.49045e-07
-8.25777e-08
-1.82009e-07
-5.26526e-07
-8.22009e-07
-1.07134e-06
-1.28965e-06
-1.48573e-06
-1.66536e-06
-1.8328e-06
-1.99154e-06
-2.14462e-06
-2.29464e-06
-2.44378e-06
-2.5938e-06
-2.74602e-06
-2.90135e-06
-3.06025e-06
-3.22276e-06
-3.38866e-06
-3.55754e-06
-3.72889e-06
-3.90212e-06
-4.07664e-06
-4.25189e-06
-4.42743e-06
-4.60295e-06
-4.77826e-06
-4.95328e-06
-5.12804e-06
-5.30264e-06
-5.47729e-06
-5.65228e-06
-5.82786e-06
-6.00421e-06
-6.18149e-06
-6.35979e-06
-6.53912e-06
-6.71935e-06
-6.90025e-06
-7.08144e-06
-7.2625e-06
-7.44293e-06
-7.62217e-06
-7.79964e-06
-7.97492e-06
-8.14779e-06
-8.31834e-06
-8.48699e-06
-8.65447e-06
-8.82182e-06
-8.99028e-06
-9.16117e-06
-9.33567e-06
-9.51467e-06
-9.69864e-06
-9.88757e-06
-1.00808e-05
-1.02773e-05
-1.04753e-05
-1.0673e-05
-1.08685e-05
-1.10598e-05
-1.12455e-05
-1.14246e-05
-1.15971e-05
-1.17636e-05
-1.19255e-05
-1.20847e-05
-1.22434e-05
-1.24038e-05
-1.25679e-05
-1.27369e-05
-1.29112e-05
-1.30904e-05
-1.32735e-05
-1.34591e-05
-1.36455e-05
-1.38311e-05
-1.40149e-05
-1.41962e-05
-1.43746e-05
-1.45501e-05
-1.47228e-05
-1.48927e-05
-1.50593e-05
-1.52221e-05
-1.53802e-05
-1.55327e-05
-1.56791e-05
-1.58193e-05
-1.59538e-05
-1.60838e-05
-1.62111e-05
-1.63379e-05
-1.64666e-05
-1.65991e-05
-1.67367e-05
-1.68799e-05
-1.70283e-05
-1.71805e-05
-1.73344e-05
-1.74875e-05
-1.7637e-05
-1.77804e-05
-1.79159e-05
-1.80423e-05
-1.81594e-05
-1.82675e-05
-1.83677e-05
-1.84611e-05
-1.85493e-05
-1.86333e-05
-1.87142e-05
-1.87924e-05
-1.88681e-05
-1.89413e-05
-1.90116e-05
-1.90784e-05
-1.9141e-05
-1.91984e-05
-1.92498e-05
-1.92943e-05
-1.93317e-05
-1.93621e-05
-1.93863e-05
-1.9406e-05
-1.94232e-05
-1.94404e-05
-1.94598e-05
-1.94828e-05
-1.95101e-05
-1.95415e-05
-1.95757e-05
-1.96107e-05
-1.96442e-05
-1.9674e-05
-1.96984e-05
-1.97162e-05
-1.97273e-05
-1.97319e-05
-1.9731e-05
-1.97255e-05
-1.97165e-05
-1.97052e-05
-1.96924e-05
-1.96785e-05
-1.96636e-05
-1.96473e-05
-1.96288e-05
-1.9607e-05
-1.95807e-05
-1.9549e-05
-1.95118e-05
-1.94696e-05
-1.94237e-05
-1.9376e-05
-1.93283e-05
-1.92819e-05
-1.92376e-05
-1.91952e-05
-1.91536e-05
-1.91109e-05
-1.90652e-05
-1.90145e-05
-1.89573e-05
-1.88923e-05
-1.88188e-05
-1.87355e-05
-1.86419e-05
-1.85378e-05
-1.84238e-05
-1.8302e-05
-1.81755e-05
-1.80487e-05
-1.7926e-05
-1.78107e-05
-1.77049e-05
-1.76077e-05
-1.75167e-05
-1.74282e-05
-1.73381e-05
-1.72434e-05
-1.71422e-05
-1.70338e-05
-1.69191e-05
-1.67989e-05
-1.66745e-05
-1.65462e-05
-1.64144e-05
-1.62785e-05
-1.61379e-05
-1.59924e-05
-1.58416e-05
-1.56856e-05
-1.55246e-05
-1.53588e-05
-1.51885e-05
-1.50134e-05
-1.48328e-05
-1.46456e-05
-1.44508e-05
-1.42471e-05
-1.40344e-05
-1.3813e-05
-1.35839e-05
-1.33489e-05
-1.31102e-05
-1.28699e-05
-1.26299e-05
-1.23915e-05
-1.21553e-05
-1.19208e-05
-1.16869e-05
-1.14515e-05
-1.12125e-05
-1.09678e-05
-1.07159e-05
-1.04566e-05
-1.01905e-05
-9.9191e-06
-9.64454e-06
-9.36866e-06
-9.09292e-06
-8.81799e-06
-8.54381e-06
-8.26988e-06
-7.99551e-06
-7.72024e-06
-7.44397e-06
-7.16712e-06
-6.89038e-06
-6.61451e-06
-6.34014e-06
-6.06759e-06
-5.79689e-06
-5.52774e-06
-5.25971e-06
-4.99229e-06
-4.72498e-06
-4.45737e-06
-4.18909e-06
-3.9199e-06
-3.6496e-06
-3.37808e-06
-3.10538e-06
-2.83169e-06
-2.55745e-06
-2.28352e-06
-2.01122e-06
-1.74238e-06
-1.47927e-06
-1.22434e-06
-9.7967e-07
-7.4641e-07
-5.24099e-07
-3.10531e-07
-1.02813e-07
-2.04196e-07
-5.90547e-07
-9.29371e-07
-1.22183e-06
-1.48044e-06
-1.71341e-06
-1.92688e-06
-2.1256e-06
-2.31354e-06
-2.49416e-06
-2.67049e-06
-2.84513e-06
-3.02012e-06
-3.19698e-06
-3.37676e-06
-3.56005e-06
-3.74703e-06
-3.93754e-06
-4.1312e-06
-4.32747e-06
-4.52573e-06
-4.72535e-06
-4.92575e-06
-5.12636e-06
-5.32677e-06
-5.52673e-06
-5.72615e-06
-5.92507e-06
-6.1237e-06
-6.32235e-06
-6.52143e-06
-6.72133e-06
-6.92243e-06
-7.12501e-06
-7.32922e-06
-7.53514e-06
-7.7427e-06
-7.95162e-06
-8.16144e-06
-8.37157e-06
-8.5813e-06
-8.7899e-06
-8.99662e-06
-9.20085e-06
-9.40218e-06
-9.6006e-06
-9.79645e-06
-9.99053e-06
-1.0184e-05
-1.03782e-05
-1.05747e-05
-1.0775e-05
-1.09801e-05
-1.11908e-05
-1.14072e-05
-1.16286e-05
-1.18539e-05
-1.20814e-05
-1.2309e-05
-1.25344e-05
-1.27555e-05
-1.29705e-05
-1.31784e-05
-1.3379e-05
-1.35729e-05
-1.37618e-05
-1.39479e-05
-1.41338e-05
-1.4322e-05
-1.45148e-05
-1.47138e-05
-1.49194e-05
-1.51312e-05
-1.53482e-05
-1.55684e-05
-1.579e-05
-1.6011e-05
-1.62298e-05
-1.64457e-05
-1.6658e-05
-1.68668e-05
-1.70719e-05
-1.72733e-05
-1.74706e-05
-1.76632e-05
-1.78502e-05
-1.80307e-05
-1.82041e-05
-1.83703e-05
-1.85302e-05
-1.86852e-05
-1.88375e-05
-1.89894e-05
-1.91438e-05
-1.93028e-05
-1.9468e-05
-1.96399e-05
-1.98182e-05
-2.00013e-05
-2.01867e-05
-2.03717e-05
-2.05532e-05
-2.07284e-05
-2.08948e-05
-2.10511e-05
-2.11965e-05
-2.13312e-05
-2.14562e-05
-2.15725e-05
-2.16817e-05
-2.17852e-05
-2.18842e-05
-2.19795e-05
-2.20717e-05
-2.21609e-05
-2.2247e-05
-2.23296e-05
-2.24079e-05
-2.24809e-05
-2.25475e-05
-2.26066e-05
-2.26575e-05
-2.27002e-05
-2.27354e-05
-2.27647e-05
-2.27902e-05
-2.28147e-05
-2.28409e-05
-2.28707e-05
-2.29052e-05
-2.29443e-05
-2.29867e-05
-2.30302e-05
-2.30723e-05
-2.31105e-05
-2.31428e-05
-2.31678e-05
-2.31852e-05
-2.31954e-05
-2.31994e-05
-2.31985e-05
-2.31941e-05
-2.31873e-05
-2.3179e-05
-2.31695e-05
-2.31584e-05
-2.3145e-05
-2.31282e-05
-2.31065e-05
-2.30787e-05
-2.30441e-05
-2.30026e-05
-2.29552e-05
-2.29036e-05
-2.28501e-05
-2.27971e-05
-2.2746e-05
-2.26977e-05
-2.26519e-05
-2.2607e-05
-2.25609e-05
-2.25112e-05
-2.24558e-05
-2.23928e-05
-2.23207e-05
-2.22386e-05
-2.21453e-05
-2.204e-05
-2.19224e-05
-2.17933e-05
-2.16551e-05
-2.15117e-05
-2.1368e-05
-2.12291e-05
-2.10989e-05
-2.09792e-05
-2.08695e-05
-2.07663e-05
-2.06655e-05
-2.0562e-05
-2.04522e-05
-2.03339e-05
-2.02066e-05
-2.00712e-05
-1.9929e-05
-1.97816e-05
-1.96297e-05
-1.94733e-05
-1.93122e-05
-1.91457e-05
-1.89734e-05
-1.87949e-05
-1.86105e-05
-1.84204e-05
-1.82251e-05
-1.80246e-05
-1.78186e-05
-1.7606e-05
-1.73854e-05
-1.71552e-05
-1.6914e-05
-1.66612e-05
-1.6397e-05
-1.6123e-05
-1.58412e-05
-1.55547e-05
-1.52663e-05
-1.49786e-05
-1.46934e-05
-1.44117e-05
-1.41329e-05
-1.38554e-05
-1.35766e-05
-1.32936e-05
-1.30039e-05
-1.27055e-05
-1.23979e-05
-1.2082e-05
-1.17598e-05
-1.14336e-05
-1.11059e-05
-1.07785e-05
-1.04521e-05
-1.01268e-05
-9.80195e-06
-9.47672e-06
-9.15059e-06
-8.82348e-06
-8.49584e-06
-8.16842e-06
-7.84199e-06
-7.51715e-06
-7.1941e-06
-6.87278e-06
-6.55284e-06
-6.2338e-06
-5.91523e-06
-5.59672e-06
-5.27794e-06
-4.95864e-06
-4.63857e-06
-4.31758e-06
-3.99549e-06
-3.67226e-06
-3.34804e-06
-3.02329e-06
-2.69895e-06
-2.37656e-06
-2.05831e-06
-1.7469e-06
-1.44527e-06
-1.15595e-06
-8.80367e-07
-6.17957e-07
-3.66048e-07
-1.21128e-07
-2.17002e-07
-6.30489e-07
-1.00024e-06
-1.32562e-06
-1.61683e-06
-1.881e-06
-2.12401e-06
-2.35069e-06
-2.56516e-06
-2.77103e-06
-2.97149e-06
-3.16929e-06
-3.36665e-06
-3.56526e-06
-3.76628e-06
-3.97042e-06
-4.17798e-06
-4.38891e-06
-4.60291e-06
-4.81947e-06
-5.03799e-06
-5.25782e-06
-5.4783e-06
-5.69882e-06
-5.91888e-06
-6.13813e-06
-6.35646e-06
-6.57395e-06
-6.79091e-06
-7.00781e-06
-7.2252e-06
-7.44367e-06
-7.66382e-06
-7.88611e-06
-8.11086e-06
-8.33821e-06
-8.56811e-06
-8.80028e-06
-9.0342e-06
-9.26911e-06
-9.50411e-06
-9.7382e-06
-9.97043e-06
-1.01999e-05
-1.04261e-05
-1.06487e-05
-1.08679e-05
-1.10846e-05
-1.12999e-05
-1.15153e-05
-1.17326e-05
-1.19533e-05
-1.21789e-05
-1.24103e-05
-1.26477e-05
-1.28908e-05
-1.31385e-05
-1.33891e-05
-1.36403e-05
-1.38897e-05
-1.41351e-05
-1.43746e-05
-1.46068e-05
-1.48316e-05
-1.50495e-05
-1.52623e-05
-1.54724e-05
-1.56826e-05
-1.58958e-05
-1.61145e-05
-1.63405e-05
-1.65744e-05
-1.68158e-05
-1.70633e-05
-1.73148e-05
-1.75682e-05
-1.78212e-05
-1.80718e-05
-1.8319e-05
-1.85621e-05
-1.88008e-05
-1.9035e-05
-1.92646e-05
-1.94893e-05
-1.97084e-05
-1.99211e-05
-2.01264e-05
-2.0324e-05
-2.0514e-05
-2.06971e-05
-2.08752e-05
-2.10506e-05
-2.1226e-05
-2.14044e-05
-2.1588e-05
-2.17787e-05
-2.1977e-05
-2.21826e-05
-2.23937e-05
-2.26081e-05
-2.28226e-05
-2.30339e-05
-2.32391e-05
-2.34352e-05
-2.36204e-05
-2.37936e-05
-2.39547e-05
-2.41041e-05
-2.4243e-05
-2.43729e-05
-2.44952e-05
-2.46114e-05
-2.47227e-05
-2.48301e-05
-2.49342e-05
-2.50352e-05
-2.51328e-05
-2.52265e-05
-2.53152e-05
-2.53976e-05
-2.54723e-05
-2.55382e-05
-2.55948e-05
-2.56427e-05
-2.56832e-05
-2.57185e-05
-2.57515e-05
-2.57852e-05
-2.58221e-05
-2.58636e-05
-2.59099e-05
-2.59598e-05
-2.60112e-05
-2.60613e-05
-2.61073e-05
-2.6147e-05
-2.61788e-05
-2.62025e-05
-2.62183e-05
-2.62277e-05
-2.62321e-05
-2.62332e-05
-2.62323e-05
-2.62301e-05
-2.62268e-05
-2.62216e-05
-2.62133e-05
-2.62002e-05
-2.61806e-05
-2.61531e-05
-2.61172e-05
-2.6073e-05
-2.60221e-05
-2.59666e-05
-2.59093e-05
-2.58528e-05
-2.5799e-05
-2.57487e-05
-2.57011e-05
-2.56549e-05
-2.56073e-05
-2.55557e-05
-2.54977e-05
-2.54314e-05
-2.53551e-05
-2.52675e-05
-2.51676e-05
-2.50544e-05
-2.49276e-05
-2.47882e-05
-2.46388e-05
-2.44837e-05
-2.43285e-05
-2.41787e-05
-2.40386e-05
-2.39099e-05
-2.37918e-05
-2.36803e-05
-2.35704e-05
-2.34566e-05
-2.33346e-05
-2.32019e-05
-2.30583e-05
-2.29048e-05
-2.27433e-05
-2.25753e-05
-2.24022e-05
-2.2224e-05
-2.20402e-05
-2.18505e-05
-2.16539e-05
-2.14506e-05
-2.12407e-05
-2.10247e-05
-2.08031e-05
-2.0576e-05
-2.03429e-05
-2.01024e-05
-1.98525e-05
-1.9591e-05
-1.93161e-05
-1.90268e-05
-1.87234e-05
-1.84076e-05
-1.80824e-05
-1.77512e-05
-1.7418e-05
-1.70861e-05
-1.67578e-05
-1.64344e-05
-1.61154e-05
-1.57988e-05
-1.54814e-05
-1.51594e-05
-1.48297e-05
-1.44898e-05
-1.41391e-05
-1.37787e-05
-1.34109e-05
-1.30385e-05
-1.26644e-05
-1.22907e-05
-1.19184e-05
-1.15474e-05
-1.1177e-05
-1.08064e-05
-1.04351e-05
-1.00628e-05
-9.69019e-06
-9.31794e-06
-8.94675e-06
-8.57708e-06
-8.20895e-06
-7.84207e-06
-7.47606e-06
-7.11046e-06
-6.74495e-06
-6.37936e-06
-6.01359e-06
-5.64756e-06
-5.28114e-06
-4.91415e-06
-4.54638e-06
-4.17769e-06
-3.80811e-06
-3.43808e-06
-3.06857e-06
-2.7013e-06
-2.33878e-06
-1.98413e-06
-1.64076e-06
-1.31164e-06
-9.98445e-07
-7.00571e-07
-4.14881e-07
-1.37268e-07
-2.23836e-07
-6.53491e-07
-1.04229e-06
-1.39053e-06
-1.70631e-06
-1.99555e-06
-2.26342e-06
-2.5144e-06
-2.7525e-06
-2.98122e-06
-3.20369e-06
-3.4226e-06
-3.64019e-06
-3.8582e-06
-4.07787e-06
-4.3e-06
-4.52499e-06
-4.75294e-06
-4.98365e-06
-5.21671e-06
-5.45155e-06
-5.68752e-06
-5.9239e-06
-6.16001e-06
-6.39526e-06
-6.62925e-06
-6.8618e-06
-7.09306e-06
-7.32344e-06
-7.55357e-06
-7.78421e-06
-8.01621e-06
-8.25039e-06
-8.48748e-06
-8.72802e-06
-8.97228e-06
-9.22024e-06
-9.47159e-06
-9.72577e-06
-9.98187e-06
-1.02388e-05
-1.04953e-05
-1.075e-05
-1.10019e-05
-1.12501e-05
-1.1494e-05
-1.17337e-05
-1.19699e-05
-1.22036e-05
-1.24365e-05
-1.26703e-05
-1.29069e-05
-1.3148e-05
-1.33946e-05
-1.36475e-05
-1.39063e-05
-1.41704e-05
-1.4438e-05
-1.47071e-05
-1.49752e-05
-1.524e-05
-1.54995e-05
-1.57523e-05
-1.5998e-05
-1.62372e-05
-1.64716e-05
-1.67036e-05
-1.69362e-05
-1.71724e-05
-1.74149e-05
-1.76655e-05
-1.7925e-05
-1.81928e-05
-1.84676e-05
-1.87471e-05
-1.90288e-05
-1.93101e-05
-1.9589e-05
-1.9864e-05
-2.01342e-05
-2.03993e-05
-2.06591e-05
-2.09136e-05
-2.11622e-05
-2.14045e-05
-2.16396e-05
-2.18669e-05
-2.20862e-05
-2.22975e-05
-2.25019e-05
-2.27014e-05
-2.28984e-05
-2.30958e-05
-2.32966e-05
-2.35031e-05
-2.3717e-05
-2.39391e-05
-2.41689e-05
-2.4405e-05
-2.46449e-05
-2.48857e-05
-2.51238e-05
-2.53561e-05
-2.55796e-05
-2.57919e-05
-2.59913e-05
-2.61774e-05
-2.63501e-05
-2.65105e-05
-2.66599e-05
-2.67997e-05
-2.69317e-05
-2.70574e-05
-2.71784e-05
-2.72956e-05
-2.74098e-05
-2.75211e-05
-2.76292e-05
-2.77329e-05
-2.78309e-05
-2.79214e-05
-2.80029e-05
-2.80744e-05
-2.8136e-05
-2.81887e-05
-2.82347e-05
-2.8277e-05
-2.83186e-05
-2.83625e-05
-2.84105e-05
-2.8463e-05
-2.85193e-05
-2.85772e-05
-2.86339e-05
-2.86863e-05
-2.8732e-05
-2.87692e-05
-2.87976e-05
-2.88178e-05
-2.88313e-05
-2.88402e-05
-2.88464e-05
-2.88513e-05
-2.88556e-05
-2.88592e-05
-2.88609e-05
-2.88589e-05
-2.8851e-05
-2.8835e-05
-2.88093e-05
-2.87735e-05
-2.87282e-05
-2.86752e-05
-2.86173e-05
-2.85577e-05
-2.84993e-05
-2.84441e-05
-2.83929e-05
-2.8345e-05
-2.82984e-05
-2.82504e-05
-2.81984e-05
-2.81394e-05
-2.80715e-05
-2.79931e-05
-2.79027e-05
-2.77991e-05
-2.76814e-05
-2.75495e-05
-2.74042e-05
-2.72485e-05
-2.70868e-05
-2.69253e-05
-2.67696e-05
-2.66242e-05
-2.64909e-05
-2.63682e-05
-2.62518e-05
-2.61359e-05
-2.60144e-05
-2.58827e-05
-2.57381e-05
-2.55807e-05
-2.54116e-05
-2.52333e-05
-2.50477e-05
-2.48559e-05
-2.46584e-05
-2.44546e-05
-2.4244e-05
-2.40259e-05
-2.38003e-05
-2.35677e-05
-2.33288e-05
-2.30843e-05
-2.28342e-05
-2.25777e-05
-2.2313e-05
-2.20377e-05
-2.17489e-05
-2.14441e-05
-2.11221e-05
-2.07833e-05
-2.04296e-05
-2.00644e-05
-1.96922e-05
-1.93176e-05
-1.8945e-05
-1.85774e-05
-1.82164e-05
-1.78615e-05
-1.75102e-05
-1.71587e-05
-1.68026e-05
-1.64376e-05
-1.60613e-05
-1.56726e-05
-1.52728e-05
-1.48647e-05
-1.44515e-05
-1.40366e-05
-1.36223e-05
-1.32096e-05
-1.27985e-05
-1.23882e-05
-1.19778e-05
-1.15668e-05
-1.11553e-05
-1.07437e-05
-1.03326e-05
-9.92277e-06
-9.51416e-06
-9.10657e-06
-8.69947e-06
-8.29232e-06
-7.88475e-06
-7.47669e-06
-7.06832e-06
-6.65988e-06
-6.25158e-06
-5.84348e-06
-5.43542e-06
-5.02711e-06
-4.61825e-06
-4.20876e-06
-3.79894e-06
-3.38979e-06
-2.98314e-06
-2.58176e-06
-2.1892e-06
-1.80932e-06
-1.44551e-06
-1.09971e-06
-7.71255e-07
-4.56615e-07
-1.51069e-07
-2.27366e-07
-6.64623e-07
-1.06355e-06
-1.42642e-06
-1.75975e-06
-2.06842e-06
-2.35671e-06
-2.62853e-06
-2.88748e-06
-3.13678e-06
-3.37932e-06
-3.61758e-06
-3.85367e-06
-4.08927e-06
-4.32562e-06
-4.5636e-06
-4.8037e-06
-5.04613e-06
-5.29084e-06
-5.53753e-06
-5.78571e-06
-6.03473e-06
-6.28381e-06
-6.53219e-06
-6.77919e-06
-7.02433e-06
-7.26743e-06
-7.50865e-06
-7.74851e-06
-7.9878e-06
-8.22756e-06
-8.46893e-06
-8.71304e-06
-8.9609e-06
-9.21332e-06
-9.47076e-06
-9.73331e-06
-1.00007e-05
-1.02722e-05
-1.05468e-05
-1.08232e-05
-1.10999e-05
-1.13752e-05
-1.16476e-05
-1.19159e-05
-1.21793e-05
-1.24376e-05
-1.26911e-05
-1.2941e-05
-1.31886e-05
-1.34359e-05
-1.36849e-05
-1.39374e-05
-1.4195e-05
-1.44585e-05
-1.47282e-05
-1.50034e-05
-1.5283e-05
-1.5565e-05
-1.58472e-05
-1.61273e-05
-1.64032e-05
-1.66736e-05
-1.6938e-05
-1.71967e-05
-1.74513e-05
-1.77041e-05
-1.79581e-05
-1.82162e-05
-1.84811e-05
-1.87546e-05
-1.90374e-05
-1.93291e-05
-1.96281e-05
-1.99322e-05
-2.02386e-05
-2.05445e-05
-2.08479e-05
-2.1147e-05
-2.14408e-05
-2.17287e-05
-2.20107e-05
-2.22866e-05
-2.25559e-05
-2.28183e-05
-2.30732e-05
-2.332e-05
-2.35586e-05
-2.37895e-05
-2.40139e-05
-2.42335e-05
-2.44511e-05
-2.46694e-05
-2.48912e-05
-2.51189e-05
-2.5354e-05
-2.55973e-05
-2.58485e-05
-2.61061e-05
-2.63679e-05
-2.66311e-05
-2.68924e-05
-2.71484e-05
-2.73959e-05
-2.76322e-05
-2.78554e-05
-2.80643e-05
-2.82585e-05
-2.84385e-05
-2.86054e-05
-2.87609e-05
-2.89067e-05
-2.90448e-05
-2.91772e-05
-2.93055e-05
-2.94309e-05
-2.9554e-05
-2.96746e-05
-2.9792e-05
-2.99045e-05
-3.00101e-05
-3.01069e-05
-3.01933e-05
-3.02689e-05
-3.03342e-05
-3.03912e-05
-3.04428e-05
-3.04923e-05
-3.05426e-05
-3.05961e-05
-3.06537e-05
-3.07147e-05
-3.07772e-05
-3.08384e-05
-3.08948e-05
-3.09439e-05
-3.09839e-05
-3.10144e-05
-3.10362e-05
-3.10515e-05
-3.10625e-05
-3.10717e-05
-3.10809e-05
-3.10906e-05
-3.11005e-05
-3.11089e-05
-3.11132e-05
-3.11109e-05
-3.10992e-05
-3.10763e-05
-3.10417e-05
-3.09964e-05
-3.09425e-05
-3.08834e-05
-3.08225e-05
-3.07631e-05
-3.07072e-05
-3.06557e-05
-3.06077e-05
-3.05611e-05
-3.05131e-05
-3.04609e-05
-3.04016e-05
-3.03332e-05
-3.02539e-05
-3.01624e-05
-3.00575e-05
-2.99383e-05
-2.98045e-05
-2.96572e-05
-2.94994e-05
-2.93358e-05
-2.91724e-05
-2.90151e-05
-2.88685e-05
-2.87342e-05
-2.861e-05
-2.84913e-05
-2.83716e-05
-2.82446e-05
-2.81052e-05
-2.79509e-05
-2.77819e-05
-2.75998e-05
-2.74071e-05
-2.72062e-05
-2.69985e-05
-2.67842e-05
-2.65629e-05
-2.63338e-05
-2.60965e-05
-2.58511e-05
-2.55984e-05
-2.53392e-05
-2.50744e-05
-2.48042e-05
-2.45274e-05
-2.4242e-05
-2.39447e-05
-2.36323e-05
-2.33016e-05
-2.29508e-05
-2.25804e-05
-2.21924e-05
-2.17909e-05
-2.13813e-05
-2.09691e-05
-2.05596e-05
-2.01566e-05
-1.97619e-05
-1.93751e-05
-1.89934e-05
-1.8612e-05