/*--------------------------------*- C++ -*----------------------------------*\
| =========                 |                                                 |
| \\      /  F ield         | OpenFOAM: The Open Source CFD Toolbox           |
|  \\    /   O peration     | Version:  v2012                                 |
|   \\  /    A nd           | Website:  www.openfoam.com                      |
|    \\/     M anipulation  |                                                 |
\*---------------------------------------------------------------------------*/
FoamFile
{
    version     2.0;
    format      ascii;
    class       volVectorField;
    location    "0";
    object      uRec;
}
// * * * * * * * * * * * * * * * * * * * * * * * * * * * * * * * * * * * * * //

dimensions      [0 1 -1 0 0 0 0];


internalField   nonuniform List<vector> 
4000
(
(1 1.30036e-18 0)
(1 1.28485e-15 0)
(1 -6.78135e-17 0)
(1 2.25044e-16 0)
(1 -2.73337e-17 0)
(1 -7.29689e-16 0)
(1 4.26476e-16 0)
(1 5.71482e-16 0)
(1 5.35897e-16 0)
(1 -9.39917e-17 0)
(1 -1.14346e-16 0)
(1 2.53613e-16 0)
(1 7.03977e-16 0)
(1 4.8036e-16 0)
(1 8.7738e-16 0)
(1 -5.3899e-16 0)
(1 -1.05329e-15 0)
(1 -3.87198e-16 0)
(1 1.62169e-16 0)
(1 -1.28634e-16 0)
(1 -2.41399e-16 0)
(1 -9.17919e-16 0)
(1 3.01882e-16 0)
(1 -1.69501e-16 0)
(1 8.00962e-16 0)
(1 -1.33439e-16 0)
(1 7.5e-16 0)
(1 3.3244e-16 0)
(1 7.56731e-16 0)
(1 7.28667e-16 0)
(1 2.50646e-16 0)
(1 -1.0098e-15 0)
(1 -6.87991e-16 0)
(1 -4.42528e-16 0)
(1 2.28778e-18 0)
(1 1.53886e-16 0)
(1 1.19343e-15 0)
(1 8.5011e-16 0)
(1 7.58584e-16 0)
(1 -1.79532e-16 0)
(1 -4.17973e-16 0)
(1 -9.62542e-16 0)
(1 -1.96333e-16 0)
(1 3.40932e-16 0)
(1 6.62469e-16 0)
(1 6.30938e-17 0)
(1 4.1489e-16 0)
(1 2.3477e-16 0)
(1 -2.59114e-16 0)
(1 6.78215e-16 0)
(1 3.27289e-16 0)
(1 9.0361e-16 0)
(1 5.70198e-16 0)
(1 8.09228e-16 0)
(1 6.26549e-16 0)
(1 -1.92493e-16 0)
(1 -1.61437e-16 0)
(1 2.54702e-16 0)
(1 6.62633e-16 0)
(1 1.12221e-15 0)
(1 3.83848e-16 0)
(1 1.79385e-16 0)
(1 5.23363e-16 0)
(1 1.66564e-16 0)
(1 -2.6913e-16 0)
(1 6.80261e-17 0)
(1 -1.16789e-16 0)
(1 8.0561e-16 0)
(1 -1.56352e-16 0)
(1 -3.36975e-16 0)
(1 -6.62407e-16 0)
(1 -9.51519e-17 0)
(1 -4.71196e-16 0)
(1 -4.57098e-16 0)
(1 -8.39654e-16 0)
(1 -3.56874e-16 0)
(1 -2.9739e-16 0)
(1 7.93888e-17 0)
(1 1.1216e-16 0)
(1 2.584e-16 0)
(1 7.00224e-16 0)
(1 5.80645e-16 0)
(1 -1.48083e-16 0)
(1 -1.37078e-16 0)
(1 -7.76737e-16 0)
(1 -1.85281e-16 0)
(1 1.79205e-16 0)
(1 1.60525e-16 0)
(1 9.24901e-16 0)
(1 1.00352e-15 0)
(1 -3.3515e-17 0)
(1 4.06307e-16 0)
(1 -3.41764e-16 0)
(1 -3.62966e-17 0)
(1 -4.03253e-16 0)
(1 -1.88697e-16 0)
(1 -2.19044e-16 0)
(1 -9.32218e-17 0)
(1 -5.01733e-17 0)
(1 -1.26918e-16 0)
(1 1.80368e-16 0)
(1 1.29921e-15 0)
(1 2.41721e-16 0)
(1 1.74686e-16 0)
(1 3.55907e-16 0)
(1 -6.95635e-16 0)
(1 4.92639e-16 0)
(1 9.83761e-16 0)
(1 1.2362e-15 0)
(1 2.04979e-16 0)
(1 4.08697e-16 0)
(1 3.2987e-16 0)
(1 1.24668e-15 0)
(1 1.06173e-15 0)
(1 1.53165e-15 0)
(1 -3.15804e-16 0)
(1 -1.18648e-15 0)
(1 6.82232e-17 0)
(1 4.81136e-16 0)
(1 3.39149e-16 0)
(1 -7.33134e-17 0)
(1 -1.08053e-15 0)
(1 6.00437e-16 0)
(1 -2.51222e-16 0)
(1 9.96002e-16 0)
(1 -6.02486e-16 0)
(1 4.22736e-16 0)
(1 -1.20455e-16 0)
(1 1.01282e-15 0)
(1 8.55182e-16 0)
(1 6.87205e-16 0)
(1 4.89583e-17 0)
(1 -3.38456e-16 0)
(1 -5.53333e-16 0)
(1 2.02367e-17 0)
(1 2.2479e-16 0)
(1 1.40263e-15 0)
(1 1.19672e-15 0)
(1 2.70741e-16 0)
(1 -3.88305e-16 0)
(1 -8.27594e-16 0)
(1 -7.0181e-16 0)
(1 -2.78927e-17 0)
(1 6.85485e-16 0)
(1 1.46602e-15 0)
(1 2.21104e-16 0)
(1 9.98139e-16 0)
(1 8.23897e-16 0)
(1 1.065e-15 0)
(1 4.21642e-16 0)
(1 2.69953e-17 0)
(1 6.28977e-16 0)
(1 1.48012e-15 0)
(1 1.21964e-15 0)
(1 1.37106e-15 0)
(1 1.14474e-15 0)
(1 8.39667e-16 0)
(1 1.48278e-15 0)
(1 5.32632e-16 0)
(1 5.65312e-16 0)
(1 -2.14971e-16 0)
(1 1.98208e-17 0)
(1 1.12749e-15 0)
(1 8.65615e-16 0)
(1 2.36008e-16 0)
(1 6.68038e-17 0)
(1 -5.37162e-16 0)
(1 4.48101e-16 0)
(1 -9.6073e-17 0)
(1 -4.09446e-16 0)
(1 1.94947e-16 0)
(1 2.21569e-16 0)
(1 7.41112e-16 0)
(1 6.16259e-17 0)
(1 7.23688e-16 0)
(1 7.48389e-17 0)
(1 1.974e-16 0)
(1 7.12535e-16 0)
(1 9.85171e-16 0)
(1 7.98271e-16 0)
(1 7.74886e-16 0)
(1 8.04321e-17 0)
(1 6.98492e-17 0)
(1 1.18545e-16 0)
(1 -1.13668e-16 0)
(1 3.66826e-16 0)
(1 1.30804e-16 0)
(1 -1.23005e-16 0)
(1 1.97513e-16 0)
(1 6.63337e-16 0)
(1 1.32795e-16 0)
(1 3.04591e-16 0)
(1 -2.76035e-16 0)
(1 2.27063e-16 0)
(1 -6.62503e-16 0)
(1 3.68914e-16 0)
(1 -2.46864e-16 0)
(1 3.84724e-16 0)
(1 -4.85844e-16 0)
(1 -7.88424e-16 0)
(1 9.91198e-18 0)
(1 -3.81492e-17 0)
(1 5.39297e-17 0)
(1 1.12089e-16 0)
(1 8.28574e-16 0)
(1 9.53442e-16 0)
(1 1.41211e-15 0)
(1 1.89441e-15 0)
(1 1.26656e-15 0)
(1 6.76015e-16 0)
(1 1.04217e-15 0)
(1 9.23e-16 0)
(1 1.86522e-15 0)
(1 2.3524e-15 0)
(1 8.74845e-16 0)
(1 -1.07268e-16 0)
(1 -1.3495e-16 0)
(1 2.0897e-16 0)
(1 5.88333e-16 0)
(1 1.26156e-15 0)
(1 1.61613e-16 0)
(1 4.66068e-16 0)
(1 -3.85443e-17 0)
(1 4.6652e-16 0)
(1 5.79201e-16 0)
(1 5.79869e-16 0)
(1 1.05584e-15 0)
(1 4.65027e-16 0)
(1 1.88573e-15 0)
(1 1.15355e-15 0)
(1 1.45482e-15 0)
(1 4.02253e-16 0)
(1 3.82934e-16 0)
(1 -1.85128e-16 0)
(1 -9.10135e-17 0)
(1 -2.48891e-16 0)
(1 -4.066e-16 0)
(1 3.32668e-16 0)
(1 1.25352e-16 0)
(1 -3.45972e-16 0)
(1 -1.61341e-16 0)
(1 -1.58714e-16 0)
(1 -5.13754e-18 0)
(1 2.28955e-16 0)
(1 1.10571e-15 0)
(1 1.46157e-15 0)
(1 1.74483e-15 0)
(1 1.83176e-15 0)
(1 1.83929e-15 0)
(1 9.77762e-16 0)
(1 1.60472e-15 0)
(1 1.28708e-15 0)
(1 2.09245e-15 0)
(1 1.0263e-15 0)
(1 1.67721e-15 0)
(1 2.04309e-15 0)
(1 1.77782e-15 0)
(1 1.60577e-15 0)
(1 9.45841e-16 0)
(1 3.44901e-16 0)
(1 6.42331e-16 0)
(1 4.23265e-16 0)
(1 1.29449e-15 0)
(1 7.88219e-16 0)
(1 8.31802e-16 0)
(1 4.0385e-16 0)
(1 2.65822e-16 0)
(1 2.31673e-16 0)
(1 3.78813e-16 0)
(1 2.34011e-16 0)
(1 1.79812e-16 0)
(1 -8.25714e-17 0)
(1 3.4748e-16 0)
(1 1.44528e-16 0)
(1 3.29836e-16 0)
(1 1.06511e-16 0)
(1 -1.49897e-16 0)
(1 4.83045e-16 0)
(1 7.47452e-16 0)
(1 5.48014e-16 0)
(1 2.22408e-16 0)
(1 -3.71766e-16 0)
(1 3.50613e-16 0)
(1 1.00981e-16 0)
(1 9.52178e-16 0)
(1 4.67047e-16 0)
(1 2.11859e-16 0)
(1 3.37237e-17 0)
(1 -3.55995e-16 0)
(1 2.32881e-16 0)
(1 -8.24644e-17 0)
(1 4.32504e-16 0)
(1 3.36735e-17 0)
(1 7.82802e-16 0)
(1 3.42809e-17 0)
(1 2.39379e-16 0)
(1 -3.26774e-16 0)
(1 -5.11026e-17 0)
(1 -4.46116e-16 0)
(1 -5.7071e-16 0)
(1 5.19089e-16 0)
(1 -7.30706e-16 0)
(1 1.40191e-16 0)
(1 -5.97427e-16 0)
(1 1.4539e-15 0)
(1 1.42238e-15 0)
(1 2.30087e-15 0)
(1 1.6296e-15 0)
(1 9.9924e-16 0)
(1 9.57358e-16 0)
(1 1.86829e-15 0)
(1 2.13173e-15 0)
(1 2.31604e-15 0)
(1 2.67096e-15 0)
(1 2.06364e-15 0)
(1 9.32674e-16 0)
(1 6.99119e-16 0)
(1 -1.03526e-15 0)
(1 -3.52912e-16 0)
(1 1.13563e-15 0)
(1 9.22717e-16 0)
(1 1.23282e-15 0)
(1 8.24707e-16 0)
(1 1.59515e-15 0)
(1 1.25493e-15 0)
(1 2.37091e-15 0)
(1 1.72134e-15 0)
(1 1.54664e-15 0)
(1 1.94708e-15 0)
(1 1.09474e-15 0)
(1 9.13776e-16 0)
(1 -6.45733e-16 0)
(1 -1.51498e-16 0)
(1 -1.65063e-16 0)
(1 4.39783e-16 0)
(1 -1.41715e-16 0)
(1 -3.7913e-17 0)
(1 -1.9001e-16 0)
(1 1.13407e-15 0)
(1 1.67259e-16 0)
(1 1.12031e-15 0)
(1 1.65751e-16 0)
(1 4.41736e-16 0)
(1 1.89195e-16 0)
(1 7.55138e-16 0)
(1 2.69395e-15 0)
(1 2.64225e-15 0)
(1 2.79234e-15 0)
(1 2.24867e-15 0)
(1 2.52075e-15 0)
(1 2.43398e-15 0)
(1 1.99418e-15 0)
(1 1.64999e-15 0)
(1 1.6649e-15 0)
(1 1.90952e-15 0)
(1 1.75539e-15 0)
(1 1.72371e-15 0)
(1 1.58272e-15 0)
(1 1.49564e-15 0)
(1 1.4103e-15 0)
(1 1.83881e-15 0)
(1 1.41938e-15 0)
(1 1.35253e-15 0)
(1 1.40795e-15 0)
(1 1.09533e-15 0)
(1 9.53691e-16 0)
(1 3.79746e-16 0)
(1 8.56163e-17 0)
(1 -4.18918e-16 0)
(1 -4.17346e-16 0)
(1 -3.48225e-16 0)
(1 3.58576e-16 0)
(1 5.11839e-17 0)
(1 1.66293e-17 0)
(1 -3.23812e-16 0)
(1 9.14897e-19 0)
(1 9.05635e-16 0)
(1 6.81586e-16 0)
(1 7.40389e-16 0)
(1 4.14495e-16 0)
(1 8.63742e-16 0)
(1 7.10425e-16 0)
(1 2.93918e-16 0)
(1 2.14588e-16 0)
(1 7.14211e-16 0)
(1 7.74117e-16 0)
(1 1.47449e-15 0)
(1 9.78571e-16 0)
(1 1.09009e-15 0)
(1 9.85111e-16 0)
(1 1.36415e-16 0)
(1 5.02507e-16 0)
(1 4.52179e-16 0)
(1 6.89184e-16 0)
(1 2.36922e-16 0)
(1 -2.20753e-16 0)
(1 -1.05429e-15 0)
(1 -1.06005e-15 0)
(1 -9.54785e-16 0)
(1 -1.64823e-16 0)
(1 8.58569e-16 0)
(1 1.52669e-16 0)
(1 5.00744e-16 0)
(1 -1.19804e-16 0)
(1 1.75682e-15 0)
(1 1.39746e-15 0)
(1 1.26575e-15 0)
(1 9.90112e-16 0)
(1 1.28443e-15 0)
(1 1.40285e-15 0)
(1 2.71526e-15 0)
(1 2.40443e-15 0)
(1 2.3724e-15 0)
(1 5.63837e-16 0)
(1 2.86294e-15 0)
(1 1.90642e-15 0)
(1 1.59543e-15 0)
(1 5.65752e-17 0)
(1 -1.09694e-16 0)
(1 -6.57904e-16 0)
(1 1.05559e-15 0)
(1 9.23491e-16 0)
(1 1.8334e-15 0)
(1 1.94893e-15 0)
(1 2.25913e-15 0)
(1 1.83066e-15 0)
(1 1.38099e-15 0)
(1 1.542e-15 0)
(1 1.58189e-15 0)
(1 7.83888e-16 0)
(1 7.40148e-16 0)
(1 1.26283e-15 0)
(1 4.57399e-16 0)
(1 5.01995e-16 0)
(1 -1.01576e-15 0)
(1 -9.36444e-16 0)
(1 -5.45197e-16 0)
(1 -7.36478e-16 0)
(1 -2.91316e-16 0)
(1 3.67583e-16 0)
(1 6.68674e-16 0)
(1 4.20219e-16 0)
(1 7.72376e-16 0)
(1 1.25304e-15 0)
(1 1.3311e-15 0)
(1 2.50799e-15 0)
(1 2.74459e-15 0)
(1 3.73076e-15 0)
(1 3.15183e-15 0)
(1 2.72309e-15 0)
(1 2.01494e-15 0)
(1 1.92041e-15 0)
(1 1.45665e-15 0)
(1 2.54113e-15 0)
(1 2.60475e-15 0)
(1 2.83746e-15 0)
(1 2.76762e-15 0)
(1 2.22621e-15 0)
(1 1.62445e-15 0)
(1 1.60859e-15 0)
(1 1.59356e-15 0)
(1 1.66058e-15 0)
(1 1.8171e-15 0)
(1 2.13512e-15 0)
(1 2.2561e-15 0)
(1 1.50534e-15 0)
(1 9.26031e-16 0)
(1 7.43228e-18 0)
(1 1.65993e-16 0)
(1 8.71093e-17 0)
(1 1.58692e-16 0)
(1 6.72202e-16 0)
(1 9.48434e-16 0)
(1 3.75893e-16 0)
(1 8.70886e-16 0)
(1 2.08249e-16 0)
(1 1.31883e-15 0)
(1 1.49297e-15 0)
(1 1.66198e-15 0)
(1 1.06504e-15 0)
(1 6.81758e-16 0)
(1 5.53049e-16 0)
(1 4.11944e-16 0)
(1 8.96815e-16 0)
(1 1.01604e-15 0)
(1 1.12503e-15 0)
(1 1.16025e-15 0)
(1 5.06189e-16 0)
(1 8.09964e-16 0)
(1 2.48472e-16 0)
(1 9.46534e-16 0)
(1 -1.34118e-16 0)
(1 8.31684e-16 0)
(1 4.8068e-16 0)
(1 5.9091e-16 0)
(1 1.00125e-16 0)
(1 -2.71909e-16 0)
(1 -2.14067e-16 0)
(1 -3.14741e-16 0)
(1 3.80807e-16 0)
(1 -9.22548e-17 0)
(1 7.15357e-16 0)
(1 5.44209e-16 0)
(1 1.59667e-15 0)
(1 1.06917e-15 0)
(1 1.07768e-15 0)
(1 7.66175e-16 0)
(1 9.392e-16 0)
(1 2.0719e-15 0)
(1 2.34395e-15 0)
(1 2.70962e-15 0)
(1 3.18233e-15 0)
(1 2.46928e-15 0)
(1 1.12072e-15 0)
(1 2.20137e-15 0)
(1 1.77978e-15 0)
(1 1.73926e-15 0)
(1 1.26718e-15 0)
(1 8.26308e-16 0)
(1 -1.09512e-16 0)
(1 1.72172e-15 0)
(1 2.54157e-15 0)
(1 2.34661e-15 0)
(1 1.20514e-15 0)
(1 9.10236e-16 0)
(1 6.31634e-16 0)
(1 9.39899e-16 0)
(1 1.61075e-15 0)
(1 1.64727e-15 0)
(1 2.46985e-15 0)
(1 6.77521e-16 0)
(1 1.49017e-15 0)
(1 2.74221e-16 0)
(1 3.87674e-16 0)
(1 -1.08879e-15 0)
(1 5.89802e-16 0)
(1 -1.56025e-17 0)
(1 1.01559e-15 0)
(1 -4.78746e-16 0)
(1 4.51679e-16 0)
(1 1.87322e-16 0)
(1 1.29609e-15 0)
(1 1.56868e-15 0)
(1 2.73267e-15 0)
(1 2.66317e-15 0)
(1 1.80711e-15 0)
(1 1.95135e-15 0)
(1 2.69707e-15 0)
(1 3.45243e-15 0)
(1 3.68896e-15 0)
(1 3.5182e-15 0)
(1 3.01233e-15 0)
(1 2.40693e-15 0)
(1 2.68644e-15 0)
(1 3.06045e-15 0)
(1 2.82563e-15 0)
(1 2.8911e-15 0)
(1 2.4544e-15 0)
(1 3.08479e-15 0)
(1 3.50047e-15 0)
(1 3.05005e-15 0)
(1 1.99041e-15 0)
(1 1.33556e-15 0)
(1 1.59687e-15 0)
(1 2.34862e-15 0)
(1 2.34101e-15 0)
(1 2.62059e-15 0)
(1 2.26912e-15 0)
(1 2.74078e-15 0)
(1 2.76925e-15 0)
(1 1.75862e-15 0)
(1 4.83779e-16 0)
(1 5.39204e-16 0)
(1 2.11715e-16 0)
(1 -4.06846e-16 0)
(1 -6.7262e-16 0)
(1 -1.93634e-16 0)
(1 1.24446e-15 0)
(1 1.53847e-15 0)
(1 1.98498e-15 0)
(1 1.00691e-15 0)
(1 1.68369e-15 0)
(1 1.2228e-15 0)
(1 8.10646e-16 0)
(1 9.73031e-17 0)
(1 4.35742e-16 0)
(1 5.18616e-16 0)
(1 3.08071e-16 0)
(1 8.40896e-17 0)
(1 4.79152e-16 0)
(1 3.74086e-16 0)
(1 7.9257e-16 0)
(1 9.37045e-16 0)
(1 1.12773e-15 0)
(1 1.33557e-15 0)
(1 4.92814e-16 0)
(1 1.21284e-15 0)
(1 7.34214e-16 0)
(1 1.58658e-15 0)
(1 1.35506e-15 0)
(1 -3.95701e-16 0)
(1 5.46286e-16 0)
(1 1.27559e-15 0)
(1 2.24593e-15 0)
(1 1.64087e-15 0)
(1 8.46137e-16 0)
(1 8.17353e-16 0)
(1 1.12322e-15 0)
(1 2.55111e-15 0)
(1 2.3418e-15 0)
(1 2.5345e-15 0)
(1 2.26788e-15 0)
(1 1.94081e-15 0)
(1 2.74664e-15 0)
(1 1.92484e-15 0)
(1 2.28085e-15 0)
(1 2.69514e-15 0)
(1 1.5769e-15 0)
(1 2.04724e-15 0)
(1 2.41949e-15 0)
(1 2.09134e-15 0)
(1 1.54742e-15 0)
(1 1.27758e-15 0)
(1 1.05185e-15 0)
(1 -1.55072e-16 0)
(1 -2.26014e-16 0)
(1 3.635e-16 0)
(1 9.57519e-16 0)
(1 1.77166e-15 0)
(1 2.22783e-15 0)
(1 1.98665e-15 0)
(1 1.10739e-15 0)
(1 3.41706e-16 0)
(1 -8.63328e-16 0)
(1 2.72724e-17 0)
(1 9.77227e-16 0)
(1 1.2472e-15 0)
(1 1.20333e-15 0)
(1 8.02064e-16 0)
(1 4.59627e-16 0)
(1 7.38792e-16 0)
(1 1.77841e-15 0)
(1 3.0026e-15 0)
(1 3.49761e-15 0)
(1 2.12548e-15 0)
(1 1.68593e-15 0)
(1 1.68005e-15 0)
(1 2.42046e-15 0)
(1 3.63124e-15 0)
(1 3.94177e-15 0)
(1 4.14882e-15 0)
(1 2.74573e-15 0)
(1 3.14467e-15 0)
(1 2.71964e-15 0)
(1 2.99579e-15 0)
(1 3.16174e-15 0)
(1 2.98236e-15 0)
(1 2.82245e-15 0)
(1 2.86892e-15 0)
(1 3.30373e-15 0)
(1 3.3593e-15 0)
(1 3.38748e-15 0)
(1 2.60427e-15 0)
(1 2.30514e-15 0)
(1 1.53647e-15 0)
(1 1.5666e-15 0)
(1 1.3187e-15 0)
(1 1.86634e-15 0)
(1 1.66783e-15 0)
(1 1.26874e-15 0)
(1 1.78731e-15 0)
(1 7.36544e-16 0)
(1 2.9089e-16 0)
(1 8.97189e-16 0)
(1 1.20253e-15 0)
(1 1.5298e-15 0)
(1 1.81424e-15 0)
(1 1.82796e-15 0)
(1 1.60413e-15 0)
(1 1.45544e-15 0)
(1 1.76574e-15 0)
(1 1.74131e-15 0)
(1 1.42571e-15 0)
(1 1.21395e-15 0)
(1 7.94007e-16 0)
(1 1.33337e-15 0)
(1 1.4528e-15 0)
(1 1.49648e-15 0)
(1 8.12688e-16 0)
(1 1.33459e-15 0)
(1 8.69132e-16 0)
(1 1.96148e-15 0)
(1 1.28261e-15 0)
(1 1.52064e-15 0)
(1 1.19167e-15 0)
(1 1.4671e-15 0)
(1 1.48527e-15 0)
(1 1.56917e-15 0)
(1 1.54047e-15 0)
(1 1.37928e-15 0)
(1 -1.12274e-16 0)
(1 6.71286e-16 0)
(1 5.84987e-16 0)
(1 1.60796e-15 0)
(1 1.67633e-15 0)
(1 2.05325e-15 0)
(1 1.6323e-15 0)
(1 1.80037e-15 0)
(1 2.0823e-15 0)
(1 1.89217e-15 0)
(1 1.89904e-15 0)
(1 1.04938e-15 0)
(1 2.3412e-15 0)
(1 3.82675e-15 0)
(1 2.85313e-15 0)
(1 3.23644e-15 0)
(1 2.70849e-15 0)
(1 2.97784e-15 0)
(1 3.35123e-15 0)
(1 1.85403e-15 0)
(1 5.31993e-16 0)
(1 -2.64452e-16 0)
(1 -9.27559e-16 0)
(1 -1.63523e-16 0)
(1 6.32316e-17 0)
(1 6.3741e-16 0)
(1 1.04466e-15 0)
(1 1.47912e-15 0)
(1 1.60415e-15 0)
(1 6.01504e-16 0)
(1 2.04269e-15 0)
(1 5.59864e-16 0)
(1 2.30904e-16 0)
(1 4.248e-16 0)
(1 1.31209e-15 0)
(1 -1.08825e-16 0)
(1 8.98954e-16 0)
(1 2.78141e-16 0)
(1 1.31878e-15 0)
(1 5.82273e-16 0)
(1 1.32536e-15 0)
(1 8.79681e-16 0)
(1 1.8843e-15 0)
(1 2.54987e-15 0)
(1 2.94581e-15 0)
(1 3.64566e-15 0)
(1 3.25736e-15 0)
(1 3.75384e-15 0)
(1 3.19719e-15 0)
(1 3.45713e-15 0)
(1 3.89798e-15 0)
(1 3.78465e-15 0)
(1 4.42959e-15 0)
(1 4.07438e-15 0)
(1 3.82007e-15 0)
(1 3.72253e-15 0)
(1 3.86196e-15 0)
(1 2.64653e-15 0)
(1 3.0283e-15 0)
(1 2.34051e-15 0)
(1 2.97111e-15 0)
(1 4.22325e-15 0)
(1 4.43574e-15 0)
(1 3.48476e-15 0)
(1 2.20164e-15 0)
(1 2.47002e-15 0)
(1 2.8457e-15 0)
(1 1.77203e-15 0)
(1 1.51993e-15 0)
(1 1.28689e-15 0)
(1 1.9088e-15 0)
(1 1.94505e-15 0)
(1 1.52306e-15 0)
(1 1.16719e-15 0)
(1 1.55919e-15 0)
(1 2.57522e-15 0)
(1 2.4117e-15 0)
(1 1.59031e-15 0)
(1 1.17763e-15 0)
(1 9.48007e-16 0)
(1 1.05821e-15 0)
(1 3.37679e-16 0)
(1 7.46941e-16 0)
(1 1.50444e-15 0)
(1 1.35636e-15 0)
(1 1.30713e-15 0)
(1 9.14547e-16 0)
(1 9.55928e-16 0)
(1 9.91705e-16 0)
(1 7.34331e-16 0)
(1 1.23544e-15 0)
(1 1.4513e-15 0)
(1 1.21539e-15 0)
(1 1.29575e-15 0)
(1 1.58943e-15 0)
(1 1.48723e-15 0)
(1 9.19924e-16 0)
(1 1.88948e-15 0)
(1 1.66052e-15 0)
(1 2.31338e-15 0)
(1 1.84024e-16 0)
(1 2.50987e-16 0)
(1 1.0103e-15 0)
(1 -8.00528e-17 0)
(1 1.11055e-15 0)
(1 2.02242e-15 0)
(1 2.3458e-15 0)
(1 2.25555e-15 0)
(1 8.51022e-16 0)
(1 2.27118e-15 0)
(1 2.13582e-15 0)
(1 2.8679e-15 0)
(1 3.3226e-15 0)
(1 4.32925e-15 0)
(1 3.0936e-15 0)
(1 3.35352e-15 0)
(1 1.78435e-15 0)
(1 3.30543e-15 0)
(1 2.40377e-15 0)
(1 1.19437e-15 0)
(1 -5.80281e-16 0)
(1 1.19681e-15 0)
(1 6.64963e-16 0)
(1 1.283e-15 0)
(1 6.24002e-16 0)
(1 5.24396e-16 0)
(1 3.10229e-16 0)
(1 5.66885e-16 0)
(1 -6.97273e-16 0)
(1 5.98465e-16 0)
(1 -7.04341e-16 0)
(1 -1.66247e-16 0)
(1 -3.89262e-16 0)
(1 8.63244e-16 0)
(1 1.46439e-15 0)
(1 1.25357e-15 0)
(1 1.22656e-15 0)
(1 1.43219e-15 0)
(1 1.4627e-15 0)
(1 9.85859e-16 0)
(1 1.1093e-15 0)
(1 2.20763e-15 0)
(1 2.506e-15 0)
(1 3.20061e-15 0)
(1 5.11142e-15 0)
(1 4.54917e-15 0)
(1 4.20679e-15 0)
(1 2.73798e-15 0)
(1 2.77635e-15 0)
(1 2.63253e-15 0)
(1 3.38705e-15 0)
(1 4.56119e-15 0)
(1 4.33379e-15 0)
(1 4.92631e-15 0)
(1 4.26322e-15 0)
(1 3.5958e-15 0)
(1 4.1289e-15 0)
(1 3.62993e-15 0)
(1 4.48253e-15 0)
(1 3.56023e-15 0)
(1 3.36911e-15 0)
(1 3.48281e-15 0)
(1 1.77161e-15 0)
(1 2.2579e-15 0)
(1 1.84939e-15 0)
(1 3.30328e-15 0)
(1 3.89097e-15 0)
(1 4.771e-15 0)
(1 4.2412e-15 0)
(1 3.90224e-15 0)
(1 2.81916e-15 0)
(1 2.46467e-15 0)
(1 2.13449e-15 0)
(1 8.83479e-16 0)
(1 1.18276e-17 0)
(1 9.6597e-16 0)
(1 1.87066e-15 0)
(1 2.07392e-15 0)
(1 1.55005e-15 0)
(1 2.26155e-15 0)
(1 1.57501e-15 0)
(1 2.01023e-15 0)
(1 1.30756e-15 0)
(1 1.23929e-15 0)
(1 3.63769e-16 0)
(1 -1.49213e-16 0)
(1 2.84507e-16 0)
(1 7.74417e-16 0)
(1 1.17096e-15 0)
(1 1.0431e-15 0)
(1 1.23172e-15 0)
(1 1.22285e-15 0)
(1 1.90052e-15 0)
(1 2.19004e-15 0)
(1 2.89419e-15 0)
(1 2.69131e-15 0)
(1 3.07961e-15 0)
(1 3.121e-15 0)
(1 3.93917e-15 0)
(1 3.87982e-15 0)
(1 4.47047e-16 0)
(1 1.03682e-15 0)
(1 2.0733e-15 0)
(1 1.3146e-15 0)
(1 9.84724e-16 0)
(1 1.39366e-15 0)
(1 2.35093e-15 0)
(1 2.21797e-15 0)
(1 2.27504e-15 0)
(1 2.88909e-15 0)
(1 3.09227e-15 0)
(1 3.68768e-15 0)
(1 3.34135e-15 0)
(1 1.9784e-15 0)
(1 2.14792e-15 0)
(1 1.54272e-15 0)
(1 1.45001e-15 0)
(1 2.62685e-15 0)
(1 1.25809e-15 0)
(1 1.48227e-15 0)
(1 -1.01133e-16 0)
(1 6.37463e-17 0)
(1 1.3213e-15 0)
(1 1.67791e-15 0)
(1 1.7727e-15 0)
(1 1.73248e-15 0)
(1 1.34787e-15 0)
(1 3.20767e-16 0)
(1 -1.55676e-16 0)
(1 -1.61222e-17 0)
(1 -8.74407e-16 0)
(1 4.9855e-16 0)
(1 4.58253e-17 0)
(1 5.66212e-16 0)
(1 -6.05139e-16 0)
(1 5.07548e-16 0)
(1 -1.08815e-16 0)
(1 1.03538e-15 0)
(1 2.70083e-16 0)
(1 1.59346e-15 0)
(1 1.18698e-15 0)
(1 2.94061e-15 0)
(1 2.81288e-15 0)
(1 3.11174e-15 0)
(1 3.37468e-15 0)
(1 2.838e-15 0)
(1 3.19248e-15 0)
(1 2.56148e-15 0)
(1 3.69136e-15 0)
(1 4.25281e-15 0)
(1 4.65888e-15 0)
(1 4.87226e-15 0)
(1 4.71203e-15 0)
(1 4.57113e-15 0)
(1 4.87914e-15 0)
(1 4.36284e-15 0)
(1 3.84496e-15 0)
(1 3.99987e-15 0)
(1 4.0613e-15 0)
(1 4.65596e-15 0)
(1 4.2071e-15 0)
(1 3.9593e-15 0)
(1 4.11273e-15 0)
(1 3.48789e-15 0)
(1 3.58408e-15 0)
(1 2.73805e-15 0)
(1 3.2693e-15 0)
(1 4.00043e-15 0)
(1 4.48043e-15 0)
(1 3.57152e-15 0)
(1 1.97502e-15 0)
(1 2.04174e-15 0)
(1 1.40002e-15 0)
(1 1.11428e-15 0)
(1 9.03935e-16 0)
(1 1.87092e-15 0)
(1 2.80205e-15 0)
(1 2.56788e-15 0)
(1 2.16219e-15 0)
(1 1.98029e-15 0)
(1 1.83193e-15 0)
(1 1.51253e-15 0)
(1 7.02695e-16 0)
(1 4.12827e-16 0)
(1 5.1329e-16 0)
(1 4.49177e-16 0)
(1 1.25569e-15 0)
(1 1.19496e-15 0)
(1 1.30339e-15 0)
(1 7.34237e-16 0)
(1 2.1126e-15 0)
(1 1.17714e-15 0)
(1 2.38156e-15 0)
(1 2.18729e-15 0)
(1 3.14924e-15 0)
(1 1.97557e-15 0)
(1 2.71661e-15 0)
(1 3.05033e-15 0)
(1 5.31952e-15 0)
(1 4.37378e-15 0)
(1 1.96774e-16 0)
(1 8.97421e-16 0)
(1 8.8522e-16 0)
(1 1.87305e-15 0)
(1 5.24356e-16 0)
(1 1.5792e-15 0)
(1 1.98461e-15 0)
(1 1.68536e-15 0)
(1 3.01627e-15 0)
(1 2.24883e-15 0)
(1 1.806e-15 0)
(1 2.57204e-15 0)
(1 2.73862e-15 0)
(1 1.51945e-15 0)
(1 2.43634e-15 0)
(1 1.79473e-15 0)
(1 3.41242e-15 0)
(1 1.97464e-15 0)
(1 1.99199e-15 0)
(1 1.38314e-15 0)
(1 1.02493e-15 0)
(1 7.92364e-16 0)
(1 5.22961e-16 0)
(1 -1.82505e-17 0)
(1 2.1659e-16 0)
(1 1.24623e-15 0)
(1 2.25016e-15 0)
(1 8.26967e-16 0)
(1 5.99966e-16 0)
(1 -9.02883e-16 0)
(1 -1.05991e-15 0)
(1 -4.85306e-16 0)
(1 -3.72008e-16 0)
(1 7.31637e-16 0)
(1 7.28951e-16 0)
(1 8.54018e-16 0)
(1 6.80429e-16 0)
(1 3.76823e-16 0)
(1 3.88366e-16 0)
(1 1.28471e-15 0)
(1 2.49267e-15 0)
(1 1.5423e-15 0)
(1 2.54914e-15 0)
(1 1.5426e-15 0)
(1 2.64171e-15 0)
(1 2.49523e-15 0)
(1 3.80407e-15 0)
(1 3.35604e-15 0)
(1 4.57247e-15 0)
(1 5.2661e-15 0)
(1 5.5971e-15 0)
(1 5.07487e-15 0)
(1 5.57904e-15 0)
(1 4.6445e-15 0)
(1 5.0128e-15 0)
(1 4.34949e-15 0)
(1 4.27588e-15 0)
(1 3.63723e-15 0)
(1 4.35683e-15 0)
(1 3.84158e-15 0)
(1 4.93527e-15 0)
(1 3.41673e-15 0)
(1 4.87612e-15 0)
(1 3.2757e-15 0)
(1 3.52149e-15 0)
(1 2.94726e-15 0)
(1 3.65237e-15 0)
(1 2.44211e-15 0)
(1 2.9233e-15 0)
(1 2.68928e-15 0)
(1 3.34392e-15 0)
(1 2.57554e-15 0)
(1 1.50174e-15 0)
(1 6.03789e-16 0)
(1 1.07345e-15 0)
(1 1.78273e-15 0)
(1 3.09692e-15 0)
(1 2.15608e-15 0)
(1 2.62935e-15 0)
(1 1.70636e-15 0)
(1 2.04097e-15 0)
(1 1.29699e-15 0)
(1 2.09201e-15 0)
(1 7.39928e-16 0)
(1 7.43588e-16 0)
(1 9.44114e-16 0)
(1 1.19385e-15 0)
(1 8.64804e-16 0)
(1 1.38455e-15 0)
(1 5.4705e-16 0)
(1 1.8176e-15 0)
(1 7.45081e-16 0)
(1 1.97117e-15 0)
(1 1.39652e-15 0)
(1 2.15408e-15 0)
(1 1.79154e-15 0)
(1 2.46246e-15 0)
(1 2.83344e-15 0)
(1 3.24815e-15 0)
(1 3.09034e-15 0)
(1 6.96201e-16 0)
(1 4.27968e-18 0)
(1 1.39753e-15 0)
(1 1.72735e-15 0)
(1 1.13184e-15 0)
(1 1.33263e-15 0)
(1 4.89842e-16 0)
(1 2.45914e-15 0)
(1 2.80747e-15 0)
(1 4.35466e-15 0)
(1 3.60322e-15 0)
(1 2.58514e-15 0)
(1 2.07702e-15 0)
(1 1.92645e-15 0)
(1 1.80514e-15 0)
(1 2.23209e-15 0)
(1 2.82289e-15 0)
(1 1.50542e-16 0)
(1 1.1881e-15 0)
(1 -1.77224e-16 0)
(1 9.68292e-16 0)
(1 1.33112e-15 0)
(1 1.86971e-15 0)
(1 2.08779e-15 0)
(1 1.81047e-15 0)
(1 6.78336e-16 0)
(1 1.34542e-16 0)
(1 3.59679e-16 0)
(1 1.02351e-15 0)
(1 4.2054e-16 0)
(1 -1.03095e-16 0)
(1 -7.81998e-16 0)
(1 -7.82543e-16 0)
(1 -9.76407e-16 0)
(1 -1.46389e-16 0)
(1 -9.83871e-16 0)
(1 4.62653e-16 0)
(1 1.7159e-16 0)
(1 9.2663e-16 0)
(1 6.4009e-16 0)
(1 1.84778e-15 0)
(1 1.2699e-15 0)
(1 1.56439e-15 0)
(1 1.07052e-15 0)
(1 2.44069e-15 0)
(1 3.92324e-15 0)
(1 4.96591e-15 0)
(1 4.6778e-15 0)
(1 4.87552e-15 0)
(1 4.65645e-15 0)
(1 4.64615e-15 0)
(1 4.60755e-15 0)
(1 4.66399e-15 0)
(1 5.16287e-15 0)
(1 5.37323e-15 0)
(1 4.15312e-15 0)
(1 3.71916e-15 0)
(1 3.73298e-15 0)
(1 4.31067e-15 0)
(1 3.9858e-15 0)
(1 5.42912e-15 0)
(1 5.12355e-15 0)
(1 4.53593e-15 0)
(1 3.31902e-15 0)
(1 3.17998e-15 0)
(1 2.54721e-15 0)
(1 2.67395e-15 0)
(1 2.67857e-15 0)
(1 1.9147e-15 0)
(1 2.47695e-15 0)
(1 3.64198e-15 0)
(1 3.04503e-15 0)
(1 1.70672e-15 0)
(1 1.12902e-15 0)
(1 1.49517e-15 0)
(1 1.28659e-15 0)
(1 1.88338e-15 0)
(1 1.80554e-15 0)
(1 2.25052e-15 0)
(1 1.94566e-15 0)
(1 2.37628e-15 0)
(1 2.57531e-15 0)
(1 2.09421e-15 0)
(1 1.4787e-15 0)
(1 6.13093e-16 0)
(1 2.06422e-16 0)
(1 6.78714e-16 0)
(1 5.55133e-16 0)
(1 1.51555e-15 0)
(1 1.28232e-15 0)
(1 1.36195e-15 0)
(1 1.43755e-15 0)
(1 1.70113e-15 0)
(1 1.5812e-15 0)
(1 1.62542e-15 0)
(1 3.50826e-15 0)
(1 3.37731e-15 0)
(1 2.87608e-15 0)
(1 9.07437e-16 0)
(1 1.73904e-15 0)
(1 1.09635e-15 0)
(1 7.69426e-16 0)
(1 4.15686e-16 0)
(1 1.30946e-15 0)
(1 1.8283e-15 0)
(1 1.82162e-15 0)
(1 2.02875e-15 0)
(1 2.16403e-15 0)
(1 1.54216e-15 0)
(1 3.14045e-15 0)
(1 4.18902e-15 0)
(1 3.7119e-15 0)
(1 1.85446e-15 0)
(1 2.29873e-15 0)
(1 1.36627e-15 0)
(1 1.52732e-15 0)
(1 1.13331e-15 0)
(1 1.26491e-15 0)
(1 2.09628e-15 0)
(1 1.75396e-15 0)
(1 2.18882e-15 0)
(1 -3.45514e-16 0)
(1 3.1937e-16 0)
(1 -9.82521e-16 0)
(1 1.7469e-15 0)
(1 9.53017e-16 0)
(1 -1.23623e-15 0)
(1 -8.19695e-16 0)
(1 -4.54083e-16 0)
(1 -6.52578e-16 0)
(1 -5.74607e-16 0)
(1 -1.12701e-15 0)
(1 -8.90971e-16 0)
(1 -6.78531e-16 0)
(1 1.71595e-17 0)
(1 5.82505e-16 0)
(1 1.3329e-15 0)
(1 6.66212e-16 0)
(1 5.95014e-16 0)
(1 7.36724e-16 0)
(1 -1.41021e-16 0)
(1 1.46834e-15 0)
(1 4.13423e-16 0)
(1 1.58495e-15 0)
(1 1.95554e-15 0)
(1 3.95977e-15 0)
(1 3.9562e-15 0)
(1 5.77356e-15 0)
(1 5.15335e-15 0)
(1 5.03771e-15 0)
(1 4.03142e-15 0)
(1 4.36717e-15 0)
(1 4.83138e-15 0)
(1 5.11789e-15 0)
(1 5.09404e-15 0)
(1 4.73163e-15 0)
(1 3.78415e-15 0)
(1 4.25289e-15 0)
(1 2.56555e-15 0)
(1 3.03487e-15 0)
(1 2.61693e-15 0)
(1 4.76294e-15 0)
(1 5.01047e-15 0)
(1 5.74776e-15 0)
(1 4.77192e-15 0)
(1 3.2763e-15 0)
(1 2.01712e-15 0)
(1 1.61295e-15 0)
(1 1.43992e-15 0)
(1 1.71079e-15 0)
(1 1.62776e-15 0)
(1 1.56217e-15 0)
(1 2.15035e-15 0)
(1 2.81336e-15 0)
(1 2.40717e-15 0)
(1 1.4544e-15 0)
(1 2.80909e-16 0)
(1 1.59708e-15 0)
(1 1.26394e-15 0)
(1 2.07786e-15 0)
(1 1.60595e-15 0)
(1 1.77558e-15 0)
(1 9.83358e-16 0)
(1 1.45672e-15 0)
(1 1.31829e-15 0)
(1 1.56163e-15 0)
(1 7.76437e-16 0)
(1 1.27977e-15 0)
(1 9.4037e-16 0)
(1 1.2178e-15 0)
(1 1.19831e-15 0)
(1 1.40189e-15 0)
(1 8.55553e-16 0)
(1 9.59382e-16 0)
(1 1.08529e-15 0)
(1 2.68123e-15 0)
(1 1.8259e-15 0)
(1 1.76221e-15 0)
(1 7.4333e-16 0)
(1 1.17201e-15 0)
(1 3.83349e-17 0)
(1 1.88566e-15 0)
(1 1.64755e-16 0)
(1 7.48838e-16 0)
(1 2.06721e-15 0)
(1 2.46326e-15 0)
(1 2.40875e-15 0)
(1 2.4864e-15 0)
(1 2.17093e-15 0)
(1 1.37445e-15 0)
(1 2.49576e-15 0)
(1 3.40693e-15 0)
(1 2.17057e-15 0)
(1 3.08873e-15 0)
(1 1.43893e-15 0)
(1 9.89098e-16 0)
(1 2.62508e-16 0)
(1 1.76487e-15 0)
(1 1.16233e-15 0)
(1 1.24705e-15 0)
(1 5.82595e-16 0)
(1 1.58916e-16 0)
(1 -3.87768e-16 0)
(1 -2.61562e-16 0)
(1 1.03841e-15 0)
(1 6.46061e-16 0)
(1 -1.6508e-17 0)
(1 -5.03485e-16 0)
(1 -8.00776e-16 0)
(1 -6.09961e-16 0)
(1 -1.3055e-15 0)
(1 -1.52907e-15 0)
(1 -6.55977e-16 0)
(1 -9.06897e-16 0)
(1 1.13121e-15 0)
(1 1.614e-15 0)
(1 1.30848e-15 0)
(1 -4.46641e-16 0)
(1 -7.34617e-17 0)
(1 -7.5149e-16 0)
(1 -9.6061e-16 0)
(1 5.01668e-16 0)
(1 1.395e-15 0)
(1 3.64055e-15 0)
(1 3.3395e-15 0)
(1 3.41932e-15 0)
(1 3.2696e-15 0)
(1 4.50484e-15 0)
(1 3.91911e-15 0)
(1 3.78585e-15 0)
(1 2.70318e-15 0)
(1 3.34867e-15 0)
(1 4.77222e-15 0)
(1 5.01021e-15 0)
(1 4.68622e-15 0)
(1 5.64603e-15 0)
(1 5.36497e-15 0)
(1 5.91757e-15 0)
(1 4.54794e-15 0)
(1 4.1027e-15 0)
(1 2.52154e-15 0)
(1 2.9776e-15 0)
(1 2.59283e-15 0)
(1 4.26692e-15 0)
(1 3.44696e-15 0)
(1 4.21726e-15 0)
(1 2.91666e-15 0)
(1 3.03734e-15 0)
(1 2.37212e-15 0)
(1 1.80183e-15 0)
(1 1.37743e-15 0)
(1 1.75879e-15 0)
(1 2.36409e-15 0)
(1 3.61804e-15 0)
(1 2.27954e-15 0)
(1 2.22615e-15 0)
(1 1.44425e-15 0)
(1 2.42657e-15 0)
(1 1.818e-15 0)
(1 1.97307e-15 0)
(1 1.23079e-15 0)
(1 7.80173e-16 0)
(1 8.90315e-16 0)
(1 1.33552e-15 0)
(1 1.32e-15 0)
(1 1.77913e-15 0)
(1 3.47716e-16 0)
(1 1.61876e-15 0)
(1 1.44455e-15 0)
(1 1.46706e-15 0)
(1 1.03192e-15 0)
(1 1.27857e-15 0)
(1 9.90509e-16 0)
(1 1.41161e-15 0)
(1 8.20362e-16 0)
(1 1.73766e-15 0)
(1 1.62995e-15 0)
(1 2.24775e-15 0)
(1 1.75089e-15 0)
(1 1.07295e-15 0)
(1 5.54114e-16 0)
(1 1.15363e-15 0)
(1 1.68177e-15 0)
(1 1.79251e-15 0)
(1 2.47533e-15 0)
(1 1.45546e-15 0)
(1 3.5732e-16 0)
(1 5.21396e-16 0)
(1 2.04745e-15 0)
(1 2.90087e-15 0)
(1 2.49888e-15 0)
(1 2.2319e-15 0)
(1 2.45015e-15 0)
(1 1.51911e-15 0)
(1 1.15154e-15 0)
(1 9.88161e-16 0)
(1 -5.8909e-16 0)
(1 1.0602e-15 0)
(1 1.53792e-16 0)
(1 7.17576e-16 0)
(1 3.26045e-16 0)
(1 1.14124e-15 0)
(1 7.46338e-16 0)
(1 1.75061e-15 0)
(1 7.2416e-16 0)
(1 5.49071e-17 0)
(1 -2.34243e-16 0)
(1 -7.106e-16 0)
(1 -1.24724e-15 0)
(1 -1.18885e-15 0)
(1 -1.21751e-15 0)
(1 -4.89548e-16 0)
(1 -5.24504e-16 0)
(1 -1.64413e-15 0)
(1 -6.18543e-16 0)
(1 -3.57087e-16 0)
(1 -5.86586e-16 0)
(1 -2.37838e-16 0)
(1 -8.32997e-17 0)
(1 -3.58272e-16 0)
(1 4.67699e-16 0)
(1 1.06345e-15 0)
(1 1.3657e-15 0)
(1 2.85393e-15 0)
(1 2.58688e-15 0)
(1 3.41551e-15 0)
(1 2.86298e-15 0)
(1 2.49615e-15 0)
(1 2.81754e-15 0)
(1 2.77839e-15 0)
(1 3.77026e-15 0)
(1 4.7517e-15 0)
(1 4.57672e-15 0)
(1 5.17112e-15 0)
(1 4.75569e-15 0)
(1 4.97965e-15 0)
(1 5.04937e-15 0)
(1 4.90138e-15 0)
(1 4.56183e-15 0)
(1 4.68435e-15 0)
(1 4.69712e-15 0)
(1 3.53905e-15 0)
(1 3.42861e-15 0)
(1 3.37064e-15 0)
(1 3.84179e-15 0)
(1 3.00111e-15 0)
(1 3.43629e-15 0)
(1 3.5176e-15 0)
(1 3.71186e-15 0)
(1 2.68623e-15 0)
(1 1.9437e-15 0)
(1 2.36479e-15 0)
(1 1.98124e-15 0)
(1 2.4567e-15 0)
(1 2.14296e-15 0)
(1 2.56403e-15 0)
(1 2.09812e-15 0)
(1 1.50474e-15 0)
(1 1.49845e-15 0)
(1 1.10913e-15 0)
(1 1.20325e-15 0)
(1 8.055e-16 0)
(1 4.78707e-16 0)
(1 1.26378e-15 0)
(1 7.1624e-16 0)
(1 -1.25881e-16 0)
(1 -1.75711e-16 0)
(1 1.30634e-16 0)
(1 1.60949e-16 0)
(1 6.46381e-16 0)
(1 8.97641e-16 0)
(1 9.95894e-16 0)
(1 1.97687e-15 0)
(1 1.40125e-15 0)
(1 2.27582e-15 0)
(1 1.02165e-15 0)
(1 1.51418e-15 0)
(1 2.30705e-15 0)
(1 2.15317e-15 0)
(1 1.78104e-15 0)
(1 -4.89046e-19 0)
(1 1.63826e-16 0)
(1 9.11436e-16 0)
(1 1.91877e-15 0)
(1 2.31014e-15 0)
(1 2.73972e-15 0)
(1 3.86983e-15 0)
(1 3.00336e-15 0)
(1 1.57513e-15 0)
(1 1.35304e-15 0)
(1 -5.89747e-17 0)
(1 4.92663e-17 0)
(1 1.925e-15 0)
(1 6.2936e-16 0)
(1 2.11314e-15 0)
(1 1.11068e-15 0)
(1 7.80615e-16 0)
(1 2.20561e-16 0)
(1 -1.82101e-17 0)
(1 1.64984e-17 0)
(1 4.08314e-16 0)
(1 1.23256e-15 0)
(1 6.91467e-16 0)
(1 -2.22653e-16 0)
(1 -1.6079e-15 0)
(1 -1.38013e-15 0)
(1 -1.48264e-15 0)
(1 -1.35015e-15 0)
(1 -1.84146e-15 0)
(1 -2.31927e-15 0)
(1 -4.90186e-16 0)
(1 -6.39768e-16 0)
(1 1.59505e-16 0)
(1 -1.36608e-16 0)
(1 -1.2677e-15 0)
(1 5.57785e-17 0)
(1 -9.86126e-16 0)
(1 -1.92046e-16 0)
(1 -4.22501e-16 0)
(1 2.80006e-16 0)
(1 8.28596e-16 0)
(1 1.30054e-15 0)
(1 2.09247e-15 0)
(1 8.12263e-16 0)
(1 7.82524e-16 0)
(1 6.57745e-16 0)
(1 1.97229e-15 0)
(1 2.04699e-15 0)
(1 2.52269e-15 0)
(1 2.62613e-15 0)
(1 4.8474e-15 0)
(1 5.06071e-15 0)
(1 4.9325e-15 0)
(1 4.15013e-15 0)
(1 4.48831e-15 0)
(1 4.26073e-15 0)
(1 5.02863e-15 0)
(1 3.84551e-15 0)
(1 3.6561e-15 0)
(1 2.86357e-15 0)
(1 3.38807e-15 0)
(1 2.34124e-15 0)
(1 3.49843e-15 0)
(1 2.4697e-15 0)
(1 3.20308e-15 0)
(1 2.085e-15 0)
(1 2.60311e-15 0)
(1 1.97769e-15 0)
(1 3.02528e-15 0)
(1 1.63086e-15 0)
(1 2.14773e-15 0)
(1 1.88344e-15 0)
(1 2.18096e-15 0)
(1 2.23577e-15 0)
(1 2.41507e-15 0)
(1 1.43001e-15 0)
(1 1.12901e-15 0)
(1 6.46262e-16 0)
(1 1.04361e-15 0)
(1 1.21149e-15 0)
(1 2.86639e-17 0)
(1 7.17499e-16 0)
(1 6.57524e-16 0)
(1 1.33398e-15 0)
(1 8.04606e-16 0)
(1 -2.00757e-17 0)
(1 -1.23463e-16 0)
(1 -5.31501e-16 0)
(1 -4.13644e-16 0)
(1 5.65775e-16 0)
(1 1.18107e-15 0)
(1 9.6078e-16 0)
(1 1.62265e-15 0)
(1 1.02342e-15 0)
(1 1.68839e-15 0)
(1 1.39544e-15 0)
(1 1.6273e-15 0)
(1 1.37079e-15 0)
(1 1.3307e-15 0)
(1 1.58568e-15 0)
(1 -8.60172e-16 0)
(1 5.68746e-16 0)
(1 9.83041e-16 0)
(1 1.85406e-15 0)
(1 1.68725e-15 0)
(1 2.3909e-15 0)
(1 2.86043e-15 0)
(1 4.23976e-15 0)
(1 2.65508e-15 0)
(1 1.42322e-15 0)
(1 9.08402e-16 0)
(1 1.74247e-16 0)
(1 1.23143e-16 0)
(1 9.955e-16 0)
(1 1.43844e-15 0)
(1 1.25939e-15 0)
(1 1.28913e-15 0)
(1 4.36384e-17 0)