/*--------------------------------*- C++ -*----------------------------------*\
| =========                 |                                                 |
| \\      /  F ield         | OpenFOAM: The Open Source CFD Toolbox           |
|  \\    /   O peration     | Version:  v2012                                 |
|   \\  /    A nd           | Website:  www.openfoam.com                      |
|    \\/     M anipulation  |                                                 |
\*---------------------------------------------------------------------------*/
FoamFile
{
    version     2.0;
    format      ascii;
    class       volVectorField;
    location    "70";
    object      Usup;
}
// * * * * * * * * * * * * * * * * * * * * * * * * * * * * * * * * * * * * * //

dimensions      [0 1 -1 0 0 0 0];


internalField   nonuniform List<vector> 
4000
(
(-2.0947e-16 -1.20688e-16 0)
(-4.14486e-16 2.09912e-16 0)
(-5.28915e-16 3.50698e-16 0)
(-8.01448e-16 4.33563e-16 0)
(-9.81815e-16 3.89994e-16 0)
(-1.40178e-15 2.29833e-16 0)
(-2.57346e-15 -2.28168e-16 0)
(-3.97244e-15 1.15444e-16 0)
(-4.66876e-15 8.4346e-16 0)
(-4.31892e-15 1.02352e-15 0)
(-3.99545e-15 5.93308e-16 0)
(-4.14927e-15 5.74675e-16 0)
(-4.6507e-15 7.56114e-16 0)
(-5.39509e-15 1.16184e-15 0)
(-5.50948e-15 1.66375e-15 0)
(-5.44607e-15 1.7678e-15 0)
(-5.34065e-15 1.70296e-15 0)
(-5.52517e-15 1.18051e-15 0)
(-5.86504e-15 1.28907e-15 0)
(-5.88313e-15 1.61619e-15 0)
(-5.81601e-15 1.51362e-15 0)
(-5.60652e-15 1.30129e-15 0)
(-5.59592e-15 1.22254e-15 0)
(-5.7174e-15 9.54016e-16 0)
(-5.82231e-15 8.27943e-16 0)
(-5.74303e-15 1.16011e-15 0)
(-5.15398e-15 1.42169e-15 0)
(-4.76944e-15 1.3988e-15 0)
(-5.18278e-15 1.24213e-15 0)
(-5.487e-15 1.13634e-15 0)
(-5.57707e-15 1.09161e-15 0)
(-5.94629e-15 9.8571e-16 0)
(-6.44477e-15 8.24515e-16 0)
(-6.97085e-15 4.39014e-16 0)
(-7.61197e-15 2.19392e-16 0)
(-8.75736e-15 1.51015e-16 0)
(-1.00494e-14 2.06324e-16 0)
(-9.89225e-15 9.43501e-16 0)
(-8.37669e-15 1.49345e-15 0)
(-7.67653e-15 1.09125e-15 0)
(-7.72336e-15 6.32406e-16 0)
(-7.47263e-15 6.13402e-16 0)
(-7.60749e-15 5.98254e-16 0)
(-8.02933e-15 7.04114e-16 0)
(-8.16588e-15 1.0974e-15 0)
(-8.17718e-15 8.8243e-16 0)
(-7.98058e-15 6.59837e-16 0)
(-7.23218e-15 6.51539e-16 0)
(-6.58078e-15 6.60259e-16 0)
(-6.24064e-15 5.95686e-16 0)
(-6.443e-15 3.77725e-16 0)
(-7.11727e-15 1.32871e-16 0)
(-7.71971e-15 3.8226e-17 0)
(-8.24447e-15 1.99868e-16 0)
(-8.34449e-15 9.62967e-17 0)
(-8.13704e-15 1.40596e-16 0)
(-7.70606e-15 1.04441e-16 0)
(-7.59035e-15 4.41656e-18 0)
(-7.92495e-15 5.54606e-17 0)
(-8.07802e-15 -9.50557e-17 0)
(-8.46786e-15 -3.37016e-16 0)
(-9.13045e-15 -3.71973e-16 0)
(-9.64621e-15 -4.16489e-16 0)
(-1.01883e-14 -2.73169e-16 0)
(-1.05759e-14 -4.7193e-17 0)
(-1.0638e-14 1.11789e-17 0)
(-1.05554e-14 7.65737e-17 0)
(-1.07853e-14 2.90679e-17 0)
(-1.07981e-14 2.95705e-16 0)
(-1.04264e-14 2.18252e-16 0)
(-1.01984e-14 2.962e-16 0)
(-1.00265e-14 5.59271e-16 0)
(-9.85238e-15 7.46428e-16 0)
(-9.41145e-15 7.93454e-16 0)
(-9.12905e-15 3.98093e-16 0)
(-9.24961e-15 1.8555e-17 0)
(-9.43146e-15 4.58572e-17 0)
(-9.7444e-15 1.41137e-16 0)
(-1.0264e-14 1.11905e-16 0)
(-1.04553e-14 2.7548e-16 0)
(-1.04779e-14 3.63486e-16 0)
(-1.06298e-14 3.41949e-16 0)
(-1.06907e-14 2.79395e-16 0)
(-1.04288e-14 2.1611e-16 0)
(-9.65019e-15 3.62095e-17 0)
(-9.30812e-15 -3.88353e-16 0)
(-9.34093e-15 -1.26921e-16 0)
(-8.62694e-15 1.82765e-16 0)
(-7.25851e-15 8.06947e-17 0)
(-6.60507e-15 -2.29396e-16 0)
(-6.29271e-15 3.71365e-17 0)
(-5.90571e-15 -7.21125e-17 0)
(-6.01741e-15 -1.78423e-16 0)
(-5.71445e-15 -6.37632e-17 0)
(-4.88901e-15 -2.26083e-16 0)
(-4.25895e-15 -2.50732e-16 0)
(-4.0766e-15 -1.9681e-16 0)
(-3.67902e-15 6.93343e-17 0)
(-2.5919e-15 8.61387e-18 0)
(-1.00864e-15 5.91321e-17 0)
(-2.98683e-16 -3.26942e-17 0)
(-9.41675e-16 4.69744e-16 0)
(-1.69675e-15 7.81458e-16 0)
(-2.64646e-15 9.85279e-16 0)
(-3.59651e-15 9.64561e-16 0)
(-5.27354e-15 5.26689e-16 0)
(-7.70853e-15 3.29511e-17 0)
(-1.00196e-14 9.01704e-16 0)
(-1.18897e-14 1.97339e-15 0)
(-1.24505e-14 2.24264e-15 0)
(-1.21984e-14 2.09625e-15 0)
(-1.2229e-14 2.1299e-15 0)
(-1.31256e-14 2.49006e-15 0)
(-1.44915e-14 3.53394e-15 0)
(-1.51837e-14 4.52526e-15 0)
(-1.56259e-14 5.20534e-15 0)
(-1.6018e-14 4.94592e-15 0)
(-1.63302e-14 4.10564e-15 0)
(-1.6401e-14 4.17549e-15 0)
(-1.66728e-14 4.34403e-15 0)
(-1.69471e-14 4.40018e-15 0)
(-1.65518e-14 4.04931e-15 0)
(-1.65596e-14 3.57947e-15 0)
(-1.68109e-14 3.07805e-15 0)
(-1.65267e-14 2.89191e-15 0)
(-1.59825e-14 3.72867e-15 0)
(-1.51016e-14 4.29811e-15 0)
(-1.47036e-14 3.88131e-15 0)
(-1.55362e-14 3.39027e-15 0)
(-1.61982e-14 3.36895e-15 0)
(-1.66686e-14 3.24891e-15 0)
(-1.77603e-14 2.89152e-15 0)
(-1.93001e-14 2.18195e-15 0)
(-2.08302e-14 1.2848e-15 0)
(-2.23985e-14 7.78307e-16 0)
(-2.48636e-14 6.68314e-16 0)
(-2.69115e-14 1.06448e-15 0)
(-2.62944e-14 2.82093e-15 0)
(-2.42488e-14 3.73571e-15 0)
(-2.33634e-14 3.00302e-15 0)
(-2.28592e-14 2.04033e-15 0)
(-2.20389e-14 1.78795e-15 0)
(-2.22011e-14 1.92355e-15 0)
(-2.26935e-14 2.42959e-15 0)
(-2.32264e-14 3.1218e-15 0)
(-2.36228e-14 2.71156e-15 0)
(-2.28783e-14 2.32708e-15 0)
(-2.10889e-14 2.07772e-15 0)
(-1.96738e-14 1.90254e-15 0)
(-1.91084e-14 1.92106e-15 0)
(-1.96964e-14 1.16068e-15 0)
(-2.10647e-14 5.938e-16 0)
(-2.21987e-14 2.00199e-16 0)
(-2.34096e-14 2.38759e-16 0)
(-2.38272e-14 2.5555e-16 0)
(-2.34177e-14 2.43754e-16 0)
(-2.27504e-14 1.01392e-17 0)
(-2.25209e-14 -1.5531e-16 0)
(-2.32676e-14 1.11826e-16 0)
(-2.40514e-14 -2.71436e-16 0)
(-2.50313e-14 -9.62099e-16 0)
(-2.64808e-14 -1.11536e-15 0)
(-2.77368e-14 -1.03274e-15 0)
(-2.88994e-14 -7.34171e-16 0)
(-2.99478e-14 -3.22421e-16 0)
(-3.03769e-14 -7.58083e-17 0)
(-3.04423e-14 1.53724e-16 0)
(-3.07141e-14 1.70209e-16 0)
(-3.07105e-14 5.24468e-16 0)
(-3.00947e-14 6.9802e-16 0)
(-2.92583e-14 1.16404e-15 0)
(-2.86811e-14 1.60117e-15 0)
(-2.83116e-14 1.79737e-15 0)
(-2.77891e-14 1.75268e-15 0)
(-2.74954e-14 1.11646e-15 0)
(-2.73807e-14 5.23954e-16 0)
(-2.74835e-14 4.11003e-16 0)
(-2.8291e-14 4.07639e-16 0)
(-2.93497e-14 4.08755e-16 0)
(-2.97796e-14 1.02855e-15 0)
(-3.00607e-14 1.08513e-15 0)
(-3.04311e-14 8.03559e-16 0)
(-3.04424e-14 4.26107e-16 0)
(-2.97805e-14 5.03787e-16 0)
(-2.83376e-14 9.90698e-17 0)
(-2.69777e-14 -3.91855e-16 0)
(-2.594e-14 -4.2767e-17 0)
(-2.43135e-14 5.43642e-16 0)
(-2.16953e-14 2.89733e-16 0)
(-1.95666e-14 -5.67351e-16 0)
(-1.83041e-14 -2.04536e-16 0)
(-1.75065e-14 -3.34325e-16 0)
(-1.7088e-14 -6.15262e-16 0)
(-1.61154e-14 -2.99684e-16 0)
(-1.42231e-14 -5.24527e-16 0)
(-1.2344e-14 -7.93087e-16 0)
(-1.11098e-14 -6.14345e-16 0)
(-9.64409e-15 -1.08963e-16 0)
(-6.77789e-15 2.38824e-19 0)
(-2.58948e-15 8.54525e-17 0)
(-5.80575e-16 2.18413e-16 0)
(-1.74916e-15 7.97204e-16 0)
(-3.044e-15 1.04993e-15 0)
(-4.65901e-15 9.70923e-16 0)
(-6.55476e-15 1.19151e-15 0)
(-9.16659e-15 9.85274e-16 0)
(-1.22224e-14 1.23665e-15 0)
(-1.5501e-14 2.2601e-15 0)
(-1.85489e-14 2.96663e-15 0)
(-1.95059e-14 3.44884e-15 0)
(-1.94893e-14 3.44936e-15 0)
(-1.99539e-14 3.54422e-15 0)
(-2.09557e-14 4.32718e-15 0)
(-2.26709e-14 6.03536e-15 0)
(-2.37655e-14 7.6898e-15 0)
(-2.48989e-14 8.44946e-15 0)
(-2.60863e-14 8.04612e-15 0)
(-2.64894e-14 7.48489e-15 0)
(-2.66678e-14 7.16628e-15 0)
(-2.68991e-14 6.65216e-15 0)
(-2.71605e-14 6.86721e-15 0)
(-2.71123e-14 6.68961e-15 0)
(-2.71794e-14 6.00973e-15 0)
(-2.72211e-14 5.14929e-15 0)
(-2.63928e-14 5.16497e-15 0)
(-2.54529e-14 6.27397e-15 0)
(-2.49778e-14 6.97786e-15 0)
(-2.49374e-14 6.32576e-15 0)
(-2.56313e-14 5.79285e-15 0)
(-2.64509e-14 5.77267e-15 0)
(-2.75775e-14 5.29355e-15 0)
(-2.95835e-14 4.54812e-15 0)
(-3.2029e-14 3.20945e-15 0)
(-3.41969e-14 2.35515e-15 0)
(-3.63701e-14 1.63469e-15 0)
(-3.94163e-14 1.39457e-15 0)
(-4.14828e-14 2.24451e-15 0)
(-4.0877e-14 3.84687e-15 0)
(-3.91933e-14 4.98377e-15 0)
(-3.83757e-14 4.60629e-15 0)
(-3.75098e-14 3.86487e-15 0)
(-3.60406e-14 3.51803e-15 0)
(-3.57655e-14 3.51092e-15 0)
(-3.62971e-14 4.20902e-15 0)
(-3.73253e-14 4.79186e-15 0)
(-3.79564e-14 4.46892e-15 0)
(-3.6926e-14 4.07205e-15 0)
(-3.46157e-14 3.80054e-15 0)
(-3.24669e-14 3.21088e-15 0)
(-3.19362e-14 2.62562e-15 0)
(-3.29847e-14 1.60025e-15 0)
(-3.46577e-14 1.12799e-15 0)
(-3.62079e-14 4.50074e-16 0)
(-3.75808e-14 2.64606e-16 0)
(-3.81768e-14 3.12533e-16 0)
(-3.8006e-14 3.80874e-16 0)
(-3.72616e-14 1.2427e-16 0)
(-3.6789e-14 -2.88128e-16 0)
(-3.79472e-14 -9.27829e-17 0)
(-3.96258e-14 -3.84656e-16 0)
(-4.10933e-14 -1.08089e-15 0)
(-4.283e-14 -1.48175e-15 0)
(-4.45916e-14 -1.30115e-15 0)
(-4.63565e-14 -1.22142e-15 0)
(-4.78719e-14 -8.9063e-16 0)
(-4.85982e-14 -5.74721e-16 0)
(-4.88991e-14 -2.37369e-16 0)
(-4.93353e-14 2.2596e-16 0)
(-4.91545e-14 7.50135e-16 0)
(-4.80959e-14 1.46836e-15 0)
(-4.70513e-14 2.3558e-15 0)
(-4.64807e-14 2.77144e-15 0)
(-4.60148e-14 2.77418e-15 0)
(-4.53537e-14 2.30623e-15 0)
(-4.49475e-14 1.60049e-15 0)
(-4.47804e-14 1.26238e-15 0)
(-4.49816e-14 8.15463e-16 0)
(-4.59689e-14 8.20871e-16 0)
(-4.69759e-14 9.91284e-16 0)
(-4.76846e-14 1.72629e-15 0)
(-4.85901e-14 1.32745e-15 0)
(-4.9175e-14 9.62525e-16 0)
(-4.87269e-14 5.26659e-16 0)
(-4.75702e-14 6.38374e-16 0)
(-4.56092e-14 5.47379e-17 0)
(-4.3357e-14 3.29669e-17 0)
(-4.13793e-14 1.54783e-16 0)
(-3.89304e-14 6.93633e-16 0)
(-3.56885e-14 3.28136e-16 0)
(-3.23298e-14 -6.66724e-16 0)
(-2.98534e-14 -5.18154e-16 0)
(-2.85504e-14 -7.06202e-16 0)
(-2.7374e-14 -8.93401e-16 0)
(-2.55643e-14 -9.61957e-16 0)
(-2.30207e-14 -1.16832e-15 0)
(-1.99906e-14 -1.25746e-15 0)
(-1.7396e-14 -1.00547e-15 0)
(-1.46418e-14 -7.1466e-16 0)
(-1.01842e-14 -3.13841e-16 0)
(-3.92542e-15 -1.32154e-16 0)
(-7.84862e-16 4.85198e-16 0)
(-2.64559e-15 1.27548e-15 0)
(-4.89313e-15 1.58468e-15 0)
(-6.9714e-15 1.25954e-15 0)
(-9.30439e-15 1.42188e-15 0)
(-1.26382e-14 2.15559e-15 0)
(-1.63225e-14 3.01234e-15 0)
(-2.0484e-14 3.548e-15 0)
(-2.43327e-14 4.00866e-15 0)
(-2.62151e-14 5.04067e-15 0)
(-2.67895e-14 5.13867e-15 0)
(-2.69715e-14 5.49914e-15 0)
(-2.76573e-14 6.53094e-15 0)
(-2.94005e-14 8.31566e-15 0)
(-3.14757e-14 1.02977e-14 0)
(-3.3843e-14 1.11666e-14 0)
(-3.55205e-14 1.17368e-14 0)
(-3.61573e-14 1.11368e-14 0)
(-3.65873e-14 9.8482e-15 0)
(-3.66733e-14 9.07113e-15 0)
(-3.67371e-14 8.8468e-15 0)
(-3.6939e-14 8.79961e-15 0)
(-3.74437e-14 8.53376e-15 0)
(-3.7233e-14 7.78477e-15 0)
(-3.54898e-14 7.55635e-15 0)
(-3.42475e-14 8.4644e-15 0)
(-3.4304e-14 9.07204e-15 0)
(-3.46911e-14 8.59821e-15 0)
(-3.54439e-14 8.35953e-15 0)
(-3.67107e-14 8.00051e-15 0)
(-3.85098e-14 7.00454e-15 0)
(-4.13011e-14 5.92112e-15 0)
(-4.42459e-14 4.58838e-15 0)
(-4.68479e-14 3.78618e-15 0)
(-4.96711e-14 3.02394e-15 0)
(-5.27693e-14 2.63882e-15 0)
(-5.4795e-14 3.71252e-15 0)
(-5.40898e-14 5.01439e-15 0)
(-5.25876e-14 5.77112e-15 0)
(-5.21781e-14 5.64504e-15 0)
(-5.11346e-14 5.69416e-15 0)
(-4.9476e-14 5.53777e-15 0)
(-4.88777e-14 5.3094e-15 0)
(-4.91231e-14 5.86481e-15 0)
(-5.04571e-14 6.39971e-15 0)
(-5.13584e-14 6.3381e-15 0)
(-5.00148e-14 5.86317e-15 0)
(-4.74862e-14 5.28389e-15 0)
(-4.54998e-14 4.55113e-15 0)
(-4.48923e-14 3.25223e-15 0)
(-4.56702e-14 2.22485e-15 0)
(-4.75803e-14 1.4625e-15 0)
(-4.94526e-14 6.37697e-16 0)
(-5.09425e-14 4.70187e-16 0)
(-5.16146e-14 4.36536e-16 0)
(-5.15243e-14 5.71113e-16 0)
(-5.11745e-14 5.45694e-16 0)
(-5.08007e-14 -1.5208e-16 0)
(-5.20087e-14 -5.67689e-16 0)
(-5.42243e-14 -4.83458e-16 0)
(-5.63395e-14 -8.39331e-16 0)
(-5.84213e-14 -1.29672e-15 0)
(-6.06033e-14 -1.53479e-15 0)
(-6.28232e-14 -1.93158e-15 0)
(-6.46029e-14 -1.85534e-15 0)
(-6.55835e-14 -1.42294e-15 0)
(-6.58475e-14 -6.65507e-16 0)
(-6.61771e-14 3.24278e-16 0)
(-6.59241e-14 1.34222e-15 0)
(-6.46829e-14 2.3403e-15 0)
(-6.36136e-14 3.23927e-15 0)
(-6.32023e-14 3.61524e-15 0)
(-6.29667e-14 3.61035e-15 0)
(-6.24265e-14 3.0182e-15 0)
(-6.1702e-14 1.97917e-15 0)
(-6.14193e-14 1.55657e-15 0)
(-6.1568e-14 1.09842e-15 0)
(-6.24229e-14 1.31597e-15 0)
(-6.35187e-14 1.90554e-15 0)
(-6.47492e-14 2.27875e-15 0)
(-6.59865e-14 1.65217e-15 0)
(-6.63367e-14 1.24299e-15 0)
(-6.56348e-14 8.07261e-16 0)
(-6.42702e-14 5.29598e-16 0)
(-6.17086e-14 -2.17756e-16 0)
(-5.85537e-14 -1.22524e-16 0)
(-5.57253e-14 2.11008e-16 0)
(-5.25984e-14 6.94889e-16 0)
(-4.89022e-14 3.77517e-16 0)
(-4.44356e-14 -4.66773e-16 0)
(-4.09553e-14 -8.2326e-16 0)
(-3.89827e-14 -1.18416e-15 0)
(-3.72018e-14 -1.35011e-15 0)
(-3.47251e-14 -1.82905e-15 0)
(-3.09797e-14 -2.07943e-15 0)
(-2.67905e-14 -1.94666e-15 0)
(-2.32392e-14 -1.81031e-15 0)
(-1.91785e-14 -1.48298e-15 0)
(-1.31078e-14 -8.69079e-16 0)
(-4.93552e-15 -4.56877e-16 0)
(-1.13589e-15 6.28224e-16 0)
(-3.67794e-15 1.40322e-15 0)
(-6.75789e-15 2.14415e-15 0)
(-9.54497e-15 2.38198e-15 0)
(-1.18863e-14 2.97521e-15 0)
(-1.54568e-14 3.86164e-15 0)
(-2.03596e-14 4.59061e-15 0)
(-2.5613e-14 4.59521e-15 0)
(-2.96402e-14 5.14759e-15 0)
(-3.17781e-14 6.22175e-15 0)
(-3.29639e-14 7.25943e-15 0)
(-3.34774e-14 8.43618e-15 0)
(-3.42514e-14 9.71613e-15 0)
(-3.60719e-14 1.08995e-14 0)
(-3.84664e-14 1.20335e-14 0)
(-4.10901e-14 1.34268e-14 0)
(-4.37188e-14 1.4955e-14 0)
(-4.5837e-14 1.46129e-14 0)
(-4.64581e-14 1.29743e-14 0)
(-4.61074e-14 1.15074e-14 0)
(-4.59207e-14 1.06517e-14 0)
(-4.59238e-14 1.05322e-14 0)
(-4.65302e-14 1.08008e-14 0)
(-4.65766e-14 1.08327e-14 0)
(-4.45228e-14 1.05873e-14 0)
(-4.28803e-14 1.05755e-14 0)
(-4.32988e-14 1.05466e-14 0)
(-4.39182e-14 1.031e-14 0)
(-4.48609e-14 1.00516e-14 0)
(-4.67968e-14 9.4774e-15 0)
(-4.9192e-14 8.37668e-15 0)
(-5.23857e-14 7.18488e-15 0)
(-5.5754e-14 6.23544e-15 0)
(-5.8776e-14 5.26018e-15 0)
(-6.19983e-14 5.01255e-15 0)
(-6.49952e-14 4.63149e-15 0)
(-6.67481e-14 5.57654e-15 0)
(-6.65937e-14 6.73763e-15 0)
(-6.55704e-14 6.84713e-15 0)
(-6.47542e-14 6.89435e-15 0)
(-6.35283e-14 7.32338e-15 0)
(-6.20303e-14 7.25662e-15 0)
(-6.11684e-14 7.18436e-15 0)
(-6.11638e-14 7.72569e-15 0)
(-6.25983e-14 8.01962e-15 0)
(-6.37563e-14 8.35198e-15 0)
(-6.26854e-14 7.74469e-15 0)
(-5.99951e-14 6.41645e-15 0)
(-5.7877e-14 5.62773e-15 0)
(-5.73529e-14 4.58914e-15 0)
(-5.81973e-14 3.27331e-15 0)
(-6.02487e-14 1.93876e-15 0)
(-6.20228e-14 8.64894e-16 0)
(-6.34168e-14 5.67574e-16 0)
(-6.42e-14 6.55824e-16 0)
(-6.42454e-14 7.57901e-16 0)
(-6.42754e-14 7.14485e-16 0)
(-6.43795e-14 1.80153e-17 0)
(-6.54726e-14 -8.92496e-16 0)
(-6.781e-14 -9.07821e-16 0)
(-7.05699e-14 -9.19655e-16 0)
(-7.32503e-14 -1.2805e-15 0)
(-7.60093e-14 -1.9378e-15 0)
(-7.84961e-14 -2.72164e-15 0)
(-8.01681e-14 -2.93478e-15 0)
(-8.09225e-14 -2.44301e-15 0)
(-8.11388e-14 -1.2244e-15 0)
(-8.15543e-14 3.9118e-16 0)
(-8.13429e-14 1.66098e-15 0)
(-8.01519e-14 3.04828e-15 0)
(-7.92405e-14 3.83509e-15 0)
(-7.89631e-14 4.09993e-15 0)
(-7.88188e-14 4.22682e-15 0)
(-7.85512e-14 3.66366e-15 0)
(-7.77927e-14 2.77907e-15 0)
(-7.719e-14 2.11136e-15 0)
(-7.71046e-14 1.84787e-15 0)
(-7.76366e-14 1.80548e-15 0)
(-7.88731e-14 2.48958e-15 0)
(-8.07053e-14 2.49036e-15 0)
(-8.22395e-14 2.2023e-15 0)
(-8.25399e-14 1.3789e-15 0)
(-8.15867e-14 8.14389e-16 0)
(-7.9928e-14 2.36413e-16 0)
(-7.66726e-14 -1.60552e-16 0)
(-7.24521e-14 -9.88608e-17 0)
(-6.8854e-14 4.63367e-16 0)
(-6.52727e-14 5.68622e-16 0)
(-6.12103e-14 2.74851e-16 0)
(-5.61637e-14 -4.40665e-16 0)
(-5.17839e-14 -1.37323e-15 0)
(-4.89163e-14 -1.98048e-15 0)
(-4.64494e-14 -2.34004e-15 0)
(-4.31885e-14 -2.79572e-15 0)
(-3.84736e-14 -2.9874e-15 0)
(-3.32947e-14 -3.01703e-15 0)
(-2.85317e-14 -3.13417e-15 0)
(-2.3053e-14 -2.48423e-15 0)
(-1.56431e-14 -1.62671e-15 0)
(-5.77327e-15 -7.01342e-16 0)
(-1.55364e-15 7.08417e-16 0)
(-4.6481e-15 1.55447e-15 0)
(-8.20015e-15 2.63162e-15 0)
(-1.13774e-14 3.94295e-15 0)
(-1.43462e-14 4.99411e-15 0)
(-1.88466e-14 5.45546e-15 0)
(-2.45635e-14 5.96916e-15 0)
(-3.02106e-14 6.09738e-15 0)
(-3.44299e-14 7.20818e-15 0)
(-3.68602e-14 8.39723e-15 0)
(-3.81089e-14 9.58891e-15 0)
(-3.88263e-14 1.11644e-14 0)
(-4.02246e-14 1.25925e-14 0)
(-4.27525e-14 1.34947e-14 0)
(-4.52391e-14 1.42786e-14 0)
(-4.77636e-14 1.59137e-14 0)
(-5.10833e-14 1.73644e-14 0)
(-5.4371e-14 1.74034e-14 0)
(-5.59005e-14 1.6065e-14 0)
(-5.5605e-14 1.415e-14 0)
(-5.47945e-14 1.29902e-14 0)
(-5.42343e-14 1.25761e-14 0)
(-5.46758e-14 1.28757e-14 0)
(-5.48841e-14 1.30529e-14 0)
(-5.31922e-14 1.32717e-14 0)
(-5.17821e-14 1.23069e-14 0)
(-5.20112e-14 1.1897e-14 0)
(-5.2693e-14 1.18023e-14 0)
(-5.40135e-14 1.13902e-14 0)
(-5.64009e-14 1.06211e-14 0)
(-5.93156e-14 9.76539e-15 0)
(-6.28161e-14 8.69794e-15 0)
(-6.65606e-14 8.04725e-15 0)
(-6.97005e-14 6.79745e-15 0)
(-7.31666e-14 6.53538e-15 0)
(-7.63733e-14 6.62945e-15 0)
(-7.79669e-14 7.53356e-15 0)
(-7.81359e-14 8.56133e-15 0)
(-7.73269e-14 8.86399e-15 0)
(-7.64061e-14 8.73179e-15 0)
(-7.51922e-14 8.71458e-15 0)
(-7.37235e-14 8.71891e-15 0)
(-7.25872e-14 9.07629e-15 0)
(-7.25138e-14 9.43755e-15 0)
(-7.39083e-14 9.69742e-15 0)
(-7.52767e-14 1.0119e-14 0)
(-7.4842e-14 9.33946e-15 0)
(-7.20701e-14 7.80372e-15 0)
(-6.95581e-14 6.59256e-15 0)
(-6.922e-14 5.75268e-15 0)
(-7.03579e-14 4.08877e-15 0)
(-7.24574e-14 2.65974e-15 0)
(-7.40443e-14 1.51295e-15 0)
(-7.5146e-14 8.55618e-16 0)
(-7.58981e-14 8.93827e-16 0)
(-7.61851e-14 7.21041e-16 0)
(-7.6682e-14 4.86078e-16 0)
(-7.72873e-14 -1.31356e-16 0)
(-7.84791e-14 -1.1155e-15 0)
(-8.06638e-14 -1.36951e-15 0)
(-8.37961e-14 -1.11961e-15 0)
(-8.72034e-14 -1.66403e-15 0)
(-9.05556e-14 -2.56178e-15 0)
(-9.32398e-14 -3.52119e-15 0)
(-9.47367e-14 -3.66742e-15 0)
(-9.51476e-14 -3.25465e-15 0)
(-9.49024e-14 -2.17822e-15 0)
(-9.53631e-14 -1.20725e-16 0)
(-9.52909e-14 1.63269e-15 0)
(-9.42742e-14 3.37828e-15 0)
(-9.3806e-14 4.28794e-15 0)
(-9.36066e-14 4.98409e-15 0)
(-9.36926e-14 4.86868e-15 0)
(-9.36379e-14 4.16324e-15 0)
(-9.28271e-14 3.31657e-15 0)
(-9.20631e-14 2.65677e-15 0)
(-9.18546e-14 2.63875e-15 0)
(-9.2197e-14 2.56692e-15 0)
(-9.34528e-14 2.8183e-15 0)
(-9.55081e-14 2.40413e-15 0)
(-9.73222e-14 2.05565e-15 0)
(-9.76711e-14 1.32152e-15 0)
(-9.63662e-14 8.38726e-16 0)
(-9.42091e-14 6.1686e-16 0)
(-9.02802e-14 4.83856e-16 0)
(-8.53534e-14 1.37024e-17 0)
(-8.12645e-14 3.80889e-16 0)
(-7.7355e-14 5.96247e-16 0)
(-7.27297e-14 1.11898e-17 0)
(-6.72116e-14 -6.75871e-16 0)
(-6.2205e-14 -1.92141e-15 0)
(-5.84247e-14 -3.06464e-15 0)
(-5.51518e-14 -3.39726e-15 0)
(-5.10819e-14 -3.89429e-15 0)
(-4.54135e-14 -4.18624e-15 0)
(-3.94231e-14 -4.56976e-15 0)
(-3.34603e-14 -4.50535e-15 0)
(-2.65129e-14 -3.75426e-15 0)
(-1.7736e-14 -2.32073e-15 0)
(-6.36036e-15 -6.65789e-16 0)
(-2.04109e-15 9.77764e-16 0)
(-5.73135e-15 2.26494e-15 0)
(-9.3093e-15 3.36246e-15 0)
(-1.30096e-14 5.02346e-15 0)
(-1.69603e-14 6.24682e-15 0)
(-2.20092e-14 6.81404e-15 0)
(-2.83028e-14 7.67938e-15 0)
(-3.42373e-14 8.40175e-15 0)
(-3.84833e-14 9.82453e-15 0)
(-4.14042e-14 1.13747e-14 0)
(-4.30325e-14 1.27631e-14 0)
(-4.40424e-14 1.38219e-14 0)
(-4.59501e-14 1.47617e-14 0)
(-4.88339e-14 1.57452e-14 0)
(-5.11982e-14 1.72107e-14 0)
(-5.37531e-14 1.83263e-14 0)
(-5.79068e-14 1.94219e-14 0)
(-6.23751e-14 1.96555e-14 0)
(-6.4681e-14 1.85265e-14 0)
(-6.43865e-14 1.74269e-14 0)
(-6.32263e-14 1.67459e-14 0)
(-6.22452e-14 1.60753e-14 0)
(-6.24853e-14 1.53113e-14 0)
(-6.2649e-14 1.45426e-14 0)
(-6.14833e-14 1.45682e-14 0)
(-6.03505e-14 1.36184e-14 0)
(-6.02104e-14 1.3317e-14 0)
(-6.10056e-14 1.30132e-14 0)
(-6.27561e-14 1.25928e-14 0)
(-6.54728e-14 1.17289e-14 0)
(-6.86754e-14 1.10735e-14 0)
(-7.24298e-14 1.04035e-14 0)
(-7.67443e-14 9.96057e-15 0)
(-8.03521e-14 8.80513e-15 0)
(-8.34548e-14 7.94068e-15 0)
(-8.63672e-14 8.31279e-15 0)
(-8.79959e-14 9.3275e-15 0)
(-8.85547e-14 1.012e-14 0)
(-8.83949e-14 1.07295e-14 0)
(-8.76871e-14 1.05532e-14 0)
(-8.62057e-14 1.04178e-14 0)
(-8.4301e-14 1.05656e-14 0)
(-8.30836e-14 1.10063e-14 0)
(-8.30726e-14 1.06945e-14 0)
(-8.43555e-14 1.07314e-14 0)
(-8.61096e-14 1.08419e-14 0)
(-8.6247e-14 1.05422e-14 0)
(-8.36206e-14 9.4116e-15 0)
(-8.07936e-14 7.95024e-15 0)
(-8.05405e-14 6.51822e-15 0)
(-8.19317e-14 4.83787e-15 0)
(-8.38721e-14 3.20526e-15 0)
(-8.54374e-14 2.16786e-15 0)
(-8.6334e-14 1.26516e-15 0)
(-8.70992e-14 7.20078e-16 0)
(-8.76452e-14 2.4068e-16 0)
(-8.83031e-14 1.51432e-16 0)
(-8.93184e-14 -3.13115e-16 0)
(-9.06026e-14 -1.09689e-15 0)
(-9.25961e-14 -1.85002e-15 0)
(-9.62262e-14 -2.12058e-15 0)
(-1.00465e-13 -2.91546e-15 0)
(-1.04247e-13 -3.43075e-15 0)
(-1.06846e-13 -3.79194e-15 0)
(-1.08073e-13 -3.80508e-15 0)
(-1.08362e-13 -3.4376e-15 0)
(-1.07669e-13 -2.62116e-15 0)
(-1.07757e-13 -6.4179e-16 0)
(-1.07819e-13 1.54241e-15 0)
(-1.0718e-13 3.25376e-15 0)
(-1.06891e-13 4.32955e-15 0)
(-1.07174e-13 5.26664e-15 0)
(-1.07852e-13 5.01729e-15 0)
(-1.07937e-13 4.15436e-15 0)
(-1.07023e-13 3.1953e-15 0)
(-1.05776e-13 2.86188e-15 0)
(-1.05304e-13 3.10437e-15 0)
(-1.05732e-13 3.1994e-15 0)
(-1.07308e-13 3.38564e-15 0)
(-1.09603e-13 2.74514e-15 0)
(-1.1128e-13 2.00971e-15 0)
(-1.11437e-13 1.37686e-15 0)
(-1.09686e-13 9.4791e-16 0)
(-1.07152e-13 8.58063e-16 0)
(-1.03274e-13 6.82706e-16 0)
(-9.77219e-14 3.23482e-16 0)
(-9.25097e-14 3.47319e-16 0)
(-8.83812e-14 6.38652e-16 0)
(-8.36427e-14 -3.35516e-17 0)
(-7.77221e-14 -8.62394e-16 0)
(-7.23399e-14 -2.488e-15 0)
(-6.74822e-14 -3.97651e-15 0)
(-6.32076e-14 -4.45913e-15 0)
(-5.85181e-14 -4.86474e-15 0)
(-5.22202e-14 -5.39629e-15 0)
(-4.51662e-14 -6.0745e-15 0)
(-3.78209e-14 -5.90245e-15 0)
(-2.94097e-14 -4.98266e-15 0)
(-1.91987e-14 -2.86735e-15 0)
(-7.05328e-15 -8.4569e-16 0)
(-2.36243e-15 1.25601e-15 0)
(-6.74417e-15 3.30009e-15 0)
(-1.07313e-14 4.47819e-15 0)
(-1.45942e-14 5.36923e-15 0)
(-1.9219e-14 6.92886e-15 0)
(-2.49017e-14 8.23675e-15 0)
(-3.14602e-14 9.55569e-15 0)
(-3.76335e-14 1.08489e-14 0)
(-4.21037e-14 1.23612e-14 0)
(-4.53176e-14 1.44575e-14 0)
(-4.75991e-14 1.60183e-14 0)
(-4.92597e-14 1.65855e-14 0)
(-5.12827e-14 1.71031e-14 0)
(-5.39433e-14 1.8554e-14 0)
(-5.67877e-14 2.03248e-14 0)
(-5.99711e-14 2.08025e-14 0)
(-6.4266e-14 2.14007e-14 0)
(-6.94654e-14 2.18072e-14 0)
(-7.22035e-14 2.15034e-14 0)
(-7.17581e-14 2.07755e-14 0)
(-7.07673e-14 2.01648e-14 0)
(-7.03702e-14 1.89161e-14 0)
(-7.09669e-14 1.73443e-14 0)
(-7.06688e-14 1.66159e-14 0)
(-6.91831e-14 1.62499e-14 0)
(-6.80981e-14 1.5086e-14 0)
(-6.79753e-14 1.49069e-14 0)
(-6.89428e-14 1.44161e-14 0)
(-7.09767e-14 1.37716e-14 0)
(-7.39501e-14 1.28938e-14 0)
(-7.72422e-14 1.24035e-14 0)
(-8.12013e-14 1.18827e-14 0)
(-8.59902e-14 1.12206e-14 0)
(-9.01633e-14 1.04496e-14 0)
(-9.32132e-14 9.623e-15 0)
(-9.56611e-14 9.85556e-15 0)
(-9.7412e-14 1.07935e-14 0)
(-9.81441e-14 1.15986e-14 0)
(-9.81282e-14 1.22678e-14 0)
(-9.77189e-14 1.24821e-14 0)
(-9.6182e-14 1.24667e-14 0)
(-9.41985e-14 1.2608e-14 0)
(-9.33175e-14 1.26022e-14 0)
(-9.34581e-14 1.13677e-14 0)
(-9.4438e-14 1.08894e-14 0)
(-9.5914e-14 1.12645e-14 0)
(-9.62206e-14 1.15065e-14 0)
(-9.413e-14 1.09553e-14 0)
(-9.1715e-14 9.21617e-15 0)
(-9.15107e-14 6.9369e-15 0)
(-9.28913e-14 5.29038e-15 0)
(-9.47251e-14 3.57121e-15 0)
(-9.60558e-14 2.32631e-15 0)
(-9.7104e-14 1.23266e-15 0)
(-9.78497e-14 5.48745e-16 0)
(-9.80989e-14 1.92596e-16 0)
(-9.88961e-14 -1.7744e-17 0)
(-1.0037e-13 -5.38182e-16 0)
(-1.02202e-13 -1.22994e-15 0)
(-1.04513e-13 -2.68196e-15 0)
(-1.08245e-13 -3.90959e-15 0)
(-1.1244e-13 -4.73779e-15 0)
(-1.1608e-13 -4.54364e-15 0)
(-1.1896e-13 -4.16774e-15 0)
(-1.20409e-13 -3.93725e-15 0)
(-1.20598e-13 -3.67675e-15 0)
(-1.19446e-13 -2.64362e-15 0)
(-1.19072e-13 -9.08792e-16 0)
(-1.19264e-13 1.33544e-15 0)
(-1.19039e-13 2.7976e-15 0)
(-1.19049e-13 3.92599e-15 0)
(-1.19691e-13 4.63845e-15 0)
(-1.20953e-13 4.77735e-15 0)
(-1.21286e-13 4.05194e-15 0)
(-1.19992e-13 3.13435e-15 0)
(-1.18303e-13 3.01655e-15 0)
(-1.17787e-13 3.21624e-15 0)
(-1.18201e-13 3.41979e-15 0)
(-1.20015e-13 3.57442e-15 0)
(-1.22707e-13 3.0373e-15 0)
(-1.24379e-13 2.10378e-15 0)
(-1.2424e-13 1.43987e-15 0)
(-1.22125e-13 1.30772e-15 0)
(-1.1921e-13 9.71725e-16 0)
(-1.14751e-13 1.13708e-15 0)
(-1.08809e-13 1.02816e-15 0)
(-1.03245e-13 6.63288e-16 0)
(-9.87402e-14 2.0968e-16 0)
(-9.3753e-14 -1.90478e-16 0)
(-8.77155e-14 -1.12765e-15 0)
(-8.1966e-14 -3.07888e-15 0)
(-7.61121e-14 -4.67643e-15 0)
(-7.07865e-14 -5.65247e-15 0)
(-6.54439e-14 -6.11464e-15 0)
(-5.8593e-14 -6.57616e-15 0)
(-5.06175e-14 -6.91173e-15 0)
(-4.19185e-14 -7.03658e-15 0)
(-3.18783e-14 -6.22682e-15 0)
(-2.05237e-14 -4.22552e-15 0)
(-7.55874e-15 -1.49379e-15 0)
(-2.50961e-15 1.37361e-15 0)
(-7.56472e-15 3.61693e-15 0)
(-1.25625e-14 5.41428e-15 0)
(-1.66415e-14 6.76874e-15 0)
(-2.10082e-14 7.91095e-15 0)
(-2.70056e-14 9.42351e-15 0)
(-3.41058e-14 1.09242e-14 0)
(-4.0681e-14 1.29708e-14 0)
(-4.50703e-14 1.52439e-14 0)
(-4.86217e-14 1.75771e-14 0)
(-5.19755e-14 1.8845e-14 0)
(-5.4301e-14 1.95307e-14 0)
(-5.60626e-14 2.01182e-14 0)
(-5.84813e-14 2.17329e-14 0)
(-6.19643e-14 2.31662e-14 0)
(-6.57295e-14 2.3639e-14 0)
(-7.02324e-14 2.38361e-14 0)
(-7.56152e-14 2.39599e-14 0)
(-7.89641e-14 2.41201e-14 0)
(-7.90644e-14 2.35263e-14 0)
(-7.84211e-14 2.26274e-14 0)
(-7.82545e-14 2.06498e-14 0)
(-7.82043e-14 1.87885e-14 0)
(-7.75678e-14 1.87021e-14 0)
(-7.68127e-14 1.83933e-14 0)
(-7.56502e-14 1.73071e-14 0)
(-7.51604e-14 1.68265e-14 0)
(-7.65044e-14 1.63672e-14 0)
(-7.88265e-14 1.55034e-14 0)
(-8.18042e-14 1.44797e-14 0)
(-8.52024e-14 1.35743e-14 0)
(-8.96137e-14 1.28916e-14 0)
(-9.46946e-14 1.21334e-14 0)
(-9.90266e-14 1.15015e-14 0)
(-1.01974e-13 1.10192e-14 0)
(-1.04101e-13 1.15379e-14 0)
(-1.05703e-13 1.24301e-14 0)
(-1.06709e-13 1.34415e-14 0)
(-1.07099e-13 1.38543e-14 0)
(-1.06912e-13 1.40665e-14 0)
(-1.05447e-13 1.38435e-14 0)
(-1.03476e-13 1.36067e-14 0)
(-1.03202e-13 1.33941e-14 0)
(-1.03462e-13 1.23422e-14 0)
(-1.03469e-13 1.1805e-14 0)
(-1.0458e-13 1.22401e-14 0)
(-1.0527e-13 1.22523e-14 0)
(-1.03981e-13 1.17891e-14 0)
(-1.02346e-13 9.95082e-15 0)
(-1.02019e-13 7.42032e-15 0)
(-1.03081e-13 5.56334e-15 0)
(-1.04892e-13 4.07975e-15 0)
(-1.06224e-13 2.49573e-15 0)
(-1.06968e-13 1.09553e-15 0)
(-1.07465e-13 1.00797e-15 0)
(-1.07946e-13 5.23912e-16 0)
(-1.09028e-13 -1.53261e-16 0)
(-1.1074e-13 -1.31834e-15 0)
(-1.13105e-13 -2.64295e-15 0)
(-1.15942e-13 -3.70895e-15 0)
(-1.19609e-13 -5.04005e-15 0)
(-1.23324e-13 -5.42953e-15 0)
(-1.26739e-13 -5.35916e-15 0)
(-1.29796e-13 -4.88809e-15 0)
(-1.31532e-13 -4.3888e-15 0)
(-1.31577e-13 -4.02809e-15 0)
(-1.30057e-13 -3.03706e-15 0)
(-1.29423e-13 -1.72706e-15 0)
(-1.29769e-13 8.38536e-16 0)
(-1.2996e-13 2.34148e-15 0)
(-1.30174e-13 3.56541e-15 0)
(-1.31098e-13 4.188e-15 0)
(-1.32733e-13 4.21796e-15 0)
(-1.33497e-13 3.78113e-15 0)
(-1.32061e-13 2.90308e-15 0)
(-1.29949e-13 2.56975e-15 0)
(-1.29222e-13 2.6181e-15 0)
(-1.29672e-13 2.97307e-15 0)
(-1.31762e-13 3.19449e-15 0)
(-1.34774e-13 2.87543e-15 0)
(-1.3638e-13 2.12716e-15 0)
(-1.35678e-13 1.9056e-15 0)
(-1.33291e-13 1.93348e-15 0)
(-1.30011e-13 1.90131e-15 0)
(-1.25307e-13 1.89882e-15 0)
(-1.19363e-13 1.23535e-15 0)
(-1.13513e-13 7.04442e-16 0)
(-1.08425e-13 -1.20007e-16 0)
(-1.02987e-13 -4.50708e-16 0)
(-9.71109e-14 -1.47087e-15 0)
(-9.1095e-14 -3.54509e-15 0)
(-8.43828e-14 -5.26126e-15 0)
(-7.81086e-14 -6.74016e-15 0)
(-7.18338e-14 -7.41849e-15 0)
(-6.41821e-14 -7.66361e-15 0)
(-5.55629e-14 -7.91876e-15 0)
(-4.60059e-14 -8.06241e-15 0)
(-3.46299e-14 -7.18955e-15 0)
(-2.16233e-14 -5.22764e-15 0)
(-7.49702e-15 -1.83117e-15 0)
(-2.8277e-15 1.22481e-15 0)
(-8.22726e-15 3.64837e-15 0)
(-1.33565e-14 6.16626e-15 0)
(-1.82545e-14 8.74454e-15 0)
(-2.33638e-14 9.86261e-15 0)
(-2.94204e-14 1.08194e-14 0)
(-3.62422e-14 1.18744e-14 0)
(-4.24968e-14 1.44727e-14 0)
(-4.73745e-14 1.7468e-14 0)
(-5.18998e-14 1.99294e-14 0)
(-5.59169e-14 2.15936e-14 0)
(-5.85577e-14 2.27629e-14 0)
(-6.03364e-14 2.36499e-14 0)
(-6.27721e-14 2.47594e-14 0)
(-6.68085e-14 2.57262e-14 0)
(-7.12079e-14 2.60361e-14 0)
(-7.60235e-14 2.59294e-14 0)
(-8.14746e-14 2.59199e-14 0)
(-8.49289e-14 2.61403e-14 0)
(-8.54181e-14 2.57259e-14 0)
(-8.55728e-14 2.51565e-14 0)
(-8.59911e-14 2.31507e-14 0)
(-8.52934e-14 2.09478e-14 0)
(-8.39473e-14 2.02523e-14 0)
(-8.32972e-14 1.96958e-14 0)
(-8.24584e-14 1.92291e-14 0)
(-8.20289e-14 1.86704e-14 0)
(-8.34834e-14 1.8144e-14 0)
(-8.6201e-14 1.73461e-14 0)
(-8.95421e-14 1.62031e-14 0)
(-9.2986e-14 1.46934e-14 0)
(-9.72943e-14 1.36379e-14 0)
(-1.0254e-13 1.29368e-14 0)
(-1.07016e-13 1.26238e-14 0)
(-1.09704e-13 1.24901e-14 0)
(-1.11568e-13 1.33033e-14 0)
(-1.13294e-13 1.40052e-14 0)
(-1.14609e-13 1.49638e-14 0)
(-1.15308e-13 1.5303e-14 0)
(-1.15414e-13 1.51706e-14 0)
(-1.14202e-13 1.48939e-14 0)
(-1.12175e-13 1.46763e-14 0)
(-1.11841e-13 1.43895e-14 0)
(-1.12154e-13 1.38342e-14 0)
(-1.11962e-13 1.31805e-14 0)
(-1.12942e-13 1.27464e-14 0)
(-1.13813e-13 1.23265e-14 0)
(-1.12999e-13 1.18577e-14 0)
(-1.12055e-13 1.01509e-14 0)
(-1.11871e-13 8.02979e-15 0)
(-1.12554e-13 6.44505e-15 0)
(-1.14324e-13 4.80261e-15 0)
(-1.15782e-13 3.1853e-15 0)
(-1.15952e-13 1.80396e-15 0)
(-1.16269e-13 1.30121e-15 0)
(-1.17214e-13 9.19652e-16 0)
(-1.18799e-13 -2.93832e-16 0)
(-1.21069e-13 -2.23784e-15 0)
(-1.23189e-13 -4.22211e-15 0)
(-1.25906e-13 -5.16372e-15 0)
(-1.29574e-13 -5.85053e-15 0)
(-1.33189e-13 -5.83286e-15 0)
(-1.36643e-13 -5.84642e-15 0)
(-1.39627e-13 -5.43345e-15 0)
(-1.41528e-13 -4.69694e-15 0)
(-1.41663e-13 -4.01132e-15 0)
(-1.40051e-13 -3.31889e-15 0)
(-1.38683e-13 -2.21558e-15 0)
(-1.38827e-13 -1.23836e-16 0)
(-1.39621e-13 1.70127e-15 0)
(-1.40262e-13 2.88227e-15 0)
(-1.41732e-13 3.29e-15 0)
(-1.43706e-13 3.19682e-15 0)
(-1.44637e-13 2.72284e-15 0)
(-1.43206e-13 2.29233e-15 0)
(-1.40792e-13 1.76079e-15 0)
(-1.39735e-13 1.85968e-15 0)
(-1.39985e-13 2.40785e-15 0)
(-1.42233e-13 2.3083e-15 0)
(-1.45529e-13 2.30338e-15 0)
(-1.4695e-13 2.38469e-15 0)
(-1.45972e-13 2.74942e-15 0)
(-1.43344e-13 2.70335e-15 0)
(-1.39967e-13 2.53015e-15 0)
(-1.35377e-13 1.9658e-15 0)
(-1.29123e-13 1.21508e-15 0)
(-1.22883e-13 7.10245e-16 0)
(-1.17354e-13 -2.12348e-17 0)
(-1.11572e-13 -8.75017e-16 0)
(-1.05834e-13 -1.97725e-15 0)
(-9.95834e-14 -3.84323e-15 0)
(-9.22545e-14 -5.46247e-15 0)
(-8.51007e-14 -7.1412e-15 0)
(-7.77521e-14 -8.23794e-15 0)
(-6.94535e-14 -8.23504e-15 0)
(-6.02329e-14 -8.47328e-15 0)
(-4.95159e-14 -8.61136e-15 0)
(-3.67607e-14 -7.63956e-15 0)
(-2.24953e-14 -5.54161e-15 0)
(-7.53905e-15 -1.89687e-15 0)
(-2.91547e-15 1.38731e-15 0)
(-8.54568e-15 4.4318e-15 0)
(-1.3891e-14 7.28614e-15 0)
(-1.94564e-14 9.97491e-15 0)