/*--------------------------------*- C++ -*----------------------------------*\
| =========                 |                                                 |
| \\      /  F ield         | OpenFOAM: The Open Source CFD Toolbox           |
|  \\    /   O peration     | Version:  v2012                                 |
|   \\  /    A nd           | Website:  www.openfoam.com                      |
|    \\/     M anipulation  |                                                 |
\*---------------------------------------------------------------------------*/
FoamFile
{
    version     2.0;
    format      ascii;
    class       surfaceScalarField;
    location    "12.5";
    object      phi;
}
// * * * * * * * * * * * * * * * * * * * * * * * * * * * * * * * * * * * * * //

dimensions      [0 3 -1 0 0 0 0];
oriented        oriented;


internalField   nonuniform List<scalar> 
130560
(
3.56442e-06
-3.56442e-06
7.12902e-06
-3.56461e-06
1.0694e-05
-3.56498e-06
1.42595e-05
-3.56554e-06
1.78258e-05
-3.56628e-06
2.1393e-05
-3.5672e-06
2.49613e-05
-3.5683e-06
2.85309e-05
-3.56957e-06
3.21019e-05
-3.57101e-06
3.56745e-05
-3.57261e-06
3.92489e-05
-3.57437e-06
4.28252e-05
-3.57628e-06
4.64035e-05
-3.57834e-06
4.9984e-05
-3.58053e-06
5.35669e-05
-3.58284e-06
5.71522e-05
-3.58527e-06
6.074e-05
-3.58781e-06
6.43304e-05
-3.59044e-06
6.79235e-05
-3.59315e-06
7.15195e-05
-3.59594e-06
7.51183e-05
-3.59878e-06
7.87199e-05
-3.60166e-06
8.23245e-05
-3.60458e-06
8.5932e-05
-3.60751e-06
8.95424e-05
-3.61043e-06
9.31558e-05
-3.61334e-06
9.6772e-05
-3.6162e-06
0.000100391
-3.61901e-06
0.000104013
-3.62174e-06
0.000107637
-3.62438e-06
0.000111264
-3.6269e-06
0.000114893
-3.62927e-06
0.000118525
-3.63149e-06
0.000122158
-3.63351e-06
0.000125794
-3.63533e-06
0.000129431
-3.63691e-06
0.000133069
-3.63822e-06
0.000136708
-3.63925e-06
0.000140348
-3.63995e-06
0.000143988
-3.64031e-06
0.000147629
-3.6403e-06
0.000151268
-3.63988e-06
0.000154907
-3.63902e-06
0.000158545
-3.6377e-06
0.000162181
-3.63588e-06
0.000165815
-3.63352e-06
0.000169445
-3.63059e-06
0.000173072
-3.62707e-06
0.000176695
-3.62291e-06
0.000180313
-3.61807e-06
0.000183926
-3.61254e-06
0.000187532
-3.60626e-06
0.000191131
-3.59919e-06
0.000194723
-3.59132e-06
0.000198305
-3.58259e-06
0.000201878
-3.57297e-06
0.00020544
-3.56242e-06
0.000208991
-3.55091e-06
0.00021253
-3.53839e-06
0.000216055
-3.52484e-06
0.000219565
-3.5102e-06
0.000223059
-3.49446e-06
0.000226537
-3.47756e-06
0.000229996
-3.45948e-06
0.000233436
-3.44017e-06
0.000236856
-3.41961e-06
0.000240254
-3.39776e-06
0.000243628
-3.37458e-06
0.000246978
-3.35005e-06
0.000250303
-3.32414e-06
0.000253599
-3.29681e-06
0.000256867
-3.26803e-06
0.000260105
-3.23779e-06
0.000263311
-3.20605e-06
0.000266484
-3.17279e-06
0.000269622
-3.13799e-06
0.000272724
-3.10163e-06
0.000275787
-3.06369e-06
0.000278812
-3.02416e-06
0.000281795
-2.98302e-06
0.000284735
-2.94027e-06
0.000287631
-2.89588e-06
0.000290481
-2.84987e-06
0.000293283
-2.80222e-06
0.000296036
-2.75294e-06
0.000298738
-2.70203e-06
0.000301387
-2.64949e-06
0.000303983
-2.59533e-06
0.000306522
-2.53956e-06
0.000309004
-2.4822e-06
0.000311428
-2.42327e-06
0.00031379
-2.36278e-06
0.000316091
-2.30076e-06
0.000318328
-2.23723e-06
0.000320501
-2.17223e-06
0.000322606
-2.10579e-06
0.000324644
-2.03795e-06
0.000326613
-1.96874e-06
0.000328511
-1.8982e-06
0.000330338
-1.82638e-06
0.000332091
-1.75334e-06
0.00033377
-1.67911e-06
0.000335374
-1.60375e-06
0.000336901
-1.52733e-06
0.000338351
-1.44988e-06
0.000339723
-1.37149e-06
0.000341015
-1.2922e-06
0.000342227
-1.21208e-06
0.000343358
-1.13121e-06
0.000344408
-1.04964e-06
0.000345375
-9.67446e-07
0.00034626
-8.84699e-07
0.000347061
-8.01471e-07
0.000347779
-7.17834e-07
0.000348413
-6.33862e-07
0.000348963
-5.49628e-07
0.000349428
-4.65207e-07
0.000349809
-3.80674e-07
0.000350105
-2.96102e-07
0.000350316
-2.11566e-07
0.000350443
-1.27139e-07
0.000350486
-4.28953e-08
0.000350445
4.10933e-08
0.00035032
1.24755e-07
0.000350112
2.0802e-07
0.000349822
2.9082e-07
0.000349449
3.73086e-07
0.000348994
4.54753e-07
0.000348458
5.35757e-07
0.000347842
6.16035e-07
0.000347146
6.95528e-07
0.000346372
7.74177e-07
0.00034552
8.51926e-07
0.000344592
9.28723e-07
0.000343587
1.00452e-06
0.000342508
1.07926e-06
0.000341355
1.1529e-06
0.00034013
1.2254e-06
0.000338833
1.29671e-06
0.000337466
1.36681e-06
0.00033603
1.43565e-06
0.000334527
1.5032e-06
0.000332958
1.56944e-06
0.000331323
1.63433e-06
0.000329626
1.69785e-06
0.000327866
1.75997e-06
0.000326045
1.82069e-06
0.000324165
1.87998e-06
0.000322227
1.93783e-06
0.000320233
1.99423e-06
0.000318184
2.04917e-06
0.000316081
2.10264e-06
0.000313926
2.15464e-06
0.000311721
2.20517e-06
0.000309467
2.25422e-06
0.000307165
2.3018e-06
0.000304817
2.34792e-06
0.000302425
2.39259e-06
0.000299989
2.4358e-06
0.000297511
2.47757e-06
0.000294993
2.51791e-06
0.000292437
2.55684e-06
0.000289842
2.59437e-06
0.000287212
2.63051e-06
0.000284546
2.66529e-06
0.000281848
2.69872e-06
0.000279117
2.73083e-06
0.000276355
2.76163e-06
0.000273564
2.79115e-06
0.000270745
2.81941e-06
0.000267898
2.84643e-06
0.000265026
2.87224e-06
0.000262129
2.89687e-06
0.000259209
2.92033e-06
0.000256266
2.94266e-06
0.000253302
2.96388e-06
0.000250318
2.98403e-06
0.000247315
3.00312e-06
0.000244294
3.02118e-06
0.000241256
3.03825e-06
0.000238201
3.05435e-06
0.000235132
3.06951e-06
0.000232048
3.08376e-06
0.000228951
3.09712e-06
0.000225841
3.10963e-06
0.00022272
3.1213e-06
0.000219588
3.13218e-06
0.000216446
3.14228e-06
0.000213294
3.15164e-06
0.000210134
3.16028e-06
0.000206965
3.16823e-06
0.00020379
3.17552e-06
0.000200608
3.18216e-06
0.00019742
3.18819e-06
0.000194226
3.19364e-06
0.000191027
3.19852e-06
0.000187824
3.20287e-06
0.000184618
3.2067e-06
0.000181408
3.21004e-06
0.000178195
3.21292e-06
0.000174979
3.21536e-06
0.000171762
3.21737e-06
0.000168543
3.21899e-06
0.000165323
3.22023e-06
0.000162102
3.22111e-06
0.00015888
3.22166e-06
0.000155658
3.22189e-06
0.000152436
3.22183e-06
0.000149215
3.22149e-06
0.000145994
3.22089e-06
0.000142774
3.22005e-06
0.000139555
3.21899e-06
0.000136337
3.21772e-06
0.000133121
3.21627e-06
0.000129906
3.21464e-06
0.000126694
3.21286e-06
0.000123483
3.21093e-06
0.000120274
3.20888e-06
0.000117067
3.20671e-06
0.000113863
3.20444e-06
0.00011066
3.20209e-06
0.000107461
3.19966e-06
0.000104264
3.19718e-06
0.000101069
3.19464e-06
9.78769e-05
3.19207e-06
9.46874e-05
3.18947e-06
9.15006e-05
3.18685e-06
8.83164e-05
3.18423e-06
8.51348e-05
3.18161e-06
8.19557e-05
3.17901e-06
7.87793e-05
3.17643e-06
7.56054e-05
3.17388e-06
7.24341e-05
3.17137e-06
6.92652e-05
3.16891e-06
6.60987e-05
3.1665e-06
6.29345e-05
3.16415e-06
5.97726e-05
3.16188e-06
5.6613e-05
3.15968e-06
5.34554e-05
3.15756e-06
5.02999e-05
3.15552e-06
4.71463e-05
3.15358e-06
4.39945e-05
3.15174e-06
4.08445e-05
3.15e-06
3.76962e-05
3.14837e-06
3.45493e-05
3.14684e-06
3.14039e-05
3.14543e-06
2.82598e-05
3.14414e-06
2.51168e-05
3.14297e-06
2.19749e-05
3.14192e-06
1.88339e-05
3.141e-06
1.56937e-05
3.1402e-06
1.25541e-05
3.13954e-06
9.41514e-06
3.139e-06
6.27654e-06
3.1386e-06
3.1382e-06
3.13833e-06
3.1382e-06
3.56424e-06
-7.12865e-06
7.12866e-06
-7.12903e-06
1.06935e-05
-7.12978e-06
1.42588e-05
-7.1309e-06
1.78249e-05
-7.13238e-06
2.13919e-05
-7.13423e-06
2.49601e-05
-7.13643e-06
2.85295e-05
-7.13898e-06
3.21003e-05
-7.14186e-06
3.56728e-05
-7.14507e-06
3.9247e-05
-7.1486e-06
4.28232e-05
-7.15243e-06
4.64014e-05
-7.15654e-06
4.99818e-05
-7.16093e-06
5.35645e-05
-7.16556e-06
5.71497e-05
-7.17044e-06
6.07374e-05
-7.17552e-06
6.43277e-05
-7.18079e-06
6.79208e-05
-7.18623e-06
7.15167e-05
-7.19182e-06
7.51154e-05
-7.19752e-06
7.87171e-05
-7.2033e-06
8.23216e-05
-7.20915e-06
8.59291e-05
-7.21502e-06
8.95396e-05
-7.22089e-06
9.3153e-05
-7.22671e-06
9.67692e-05
-7.23247e-06
0.000100388
-7.2381e-06
0.00010401
-7.24359e-06
0.000107635
-7.24888e-06
0.000111262
-7.25393e-06
0.000114891
-7.25871e-06
0.000118523
-7.26316e-06
0.000122157
-7.26724e-06
0.000125792
-7.27089e-06
0.000129429
-7.27408e-06
0.000133068
-7.27673e-06
0.000136707
-7.27881e-06
0.000140348
-7.28025e-06
0.000143988
-7.28101e-06
0.000147629
-7.28101e-06
0.000151269
-7.2802e-06
0.000154909
-7.27852e-06
0.000158547
-7.2759e-06
0.000162183
-7.27229e-06
0.000165818
-7.2676e-06
0.000169449
-7.26179e-06
0.000173076
-7.25477e-06
0.0001767
-7.24648e-06
0.000180319
-7.23686e-06
0.000183932
-7.22582e-06
0.000187539
-7.21329e-06
0.000191139
-7.19921e-06
0.000194731
-7.18349e-06
0.000198315
-7.16607e-06
0.000201889
-7.14686e-06
0.000205452
-7.12581e-06
0.000209004
-7.10282e-06
0.000212543
-7.07782e-06
0.000216069
-7.05075e-06
0.000219581
-7.02152e-06
0.000223076
-6.99006e-06
0.000226555
-6.9563e-06
0.000230016
-6.92017e-06
0.000233457
-6.8816e-06
0.000236878
-6.84051e-06
0.000240277
-6.79684e-06
0.000243653
-6.75052e-06
0.000247004
-6.70149e-06
0.00025033
-6.64969e-06
0.000253628
-6.59506e-06
0.000256898
-6.53754e-06
0.000260137
-6.47707e-06
0.000263345
-6.41361e-06
0.000266519
-6.34712e-06
0.000269659
-6.27754e-06
0.000272762
-6.20483e-06
0.000275827
-6.12897e-06
0.000278853
-6.04992e-06
0.000281837
-5.96766e-06
0.000284779
-5.88215e-06
0.000287677
-5.7934e-06
0.000290528
-5.70137e-06
0.000293332
-5.60608e-06
0.000296087
-5.50752e-06
0.00029879
-5.40568e-06
0.000301441
-5.30059e-06
0.000304038
-5.19226e-06
0.00030658
-5.08071e-06
0.000309063
-4.96598e-06
0.000311488
-4.84809e-06
0.000313852
-4.72709e-06
0.000316155
-4.60302e-06
0.000318393
-4.47594e-06
0.000320567
-4.34591e-06
0.000322674
-4.21299e-06
0.000324714
-4.07726e-06
0.000326684
-3.93879e-06
0.000328583
-3.79767e-06
0.000330411
-3.654e-06
0.000332165
-3.50785e-06
0.000333846
-3.35934e-06
0.00033545
-3.20858e-06
0.000336979
-3.05566e-06
0.000338429
-2.90072e-06
0.000339802
-2.74386e-06
0.000341095
-2.58522e-06
0.000342308
-2.42493e-06
0.00034344
-2.26311e-06
0.00034449
-2.0999e-06
0.000345458
-1.93544e-06
0.000346343
-1.76988e-06
0.000347145
-1.60335e-06
0.000347863
-1.436e-06
0.000348497
-1.26798e-06
0.000349047
-1.09944e-06
0.000349512
-9.30524e-07
0.000349893
-7.61382e-07
0.000350189
-5.92164e-07
0.000350401
-4.23018e-07
0.000350528
-2.54092e-07
0.00035057
-8.55318e-08
0.000350529
8.25167e-08
0.000350404
2.49911e-07
0.000350195
4.1651e-07
0.000349904
5.82176e-07
0.00034953
7.46774e-07
0.000349075
9.10172e-07
0.000348538
1.07224e-06
0.000347921
1.23286e-06
0.000347225
1.3919e-06
0.00034645
1.54926e-06
0.000345597
1.70481e-06
0.000344667
1.85845e-06
0.000343662
2.01009e-06
0.000342581
2.15961e-06
0.000341427
2.30694e-06
0.000340201
2.45198e-06
0.000338903
2.59465e-06
0.000337535
2.73488e-06
0.000336098
2.87259e-06
0.000334593
3.00773e-06
0.000333022
3.14022e-06
0.000331387
3.27003e-06
0.000329688
3.39709e-06
0.000327926
3.52136e-06
0.000326104
3.64281e-06
0.000324223
3.76141e-06
0.000322283
3.87712e-06
0.000320288
3.98992e-06
0.000318237
4.0998e-06
0.000316133
4.20675e-06
0.000313977
4.31075e-06
0.00031177
4.4118e-06
0.000309514
4.50991e-06
0.000307211
4.60508e-06
0.000304862
4.69731e-06
0.000302468
4.78662e-06
0.00030003
4.87303e-06
0.000297551
4.95656e-06
0.000295032
5.03723e-06
0.000292474
5.11507e-06
0.000289878
5.19011e-06
0.000287246
5.26239e-06
0.00028458
5.33193e-06
0.00028188
5.39877e-06
0.000279147
5.46296e-06
0.000276385
5.52454e-06
0.000273592
5.58356e-06
0.000270772
5.64005e-06
0.000267924
5.69407e-06
0.00026505
5.74567e-06
0.000262152
5.79489e-06
0.000259231
5.84179e-06
0.000256287
5.88643e-06
0.000253322
5.92884e-06
0.000250337
5.9691e-06
0.000247333
6.00726e-06
0.000244311
6.04336e-06
0.000241272
6.07747e-06
0.000238216
6.10964e-06
0.000235146
6.13993e-06
0.000232061
6.1684e-06
0.000228963
6.19509e-06
0.000225853
6.22008e-06
0.000222731
6.24341e-06
0.000219598
6.26513e-06
0.000216455
6.28531e-06
0.000213302
6.304e-06
0.000210141
6.32126e-06
0.000206973
6.33713e-06
0.000203796
6.35167e-06
0.000200614
6.36493e-06
0.000197425
6.37697e-06
0.000194231
6.38784e-06
0.000191032
6.39758e-06
0.000187828
6.40625e-06
0.000184621
6.41389e-06
0.000181411
6.42055e-06
0.000178197
6.42628e-06
0.000174981
6.43113e-06
0.000171764
6.43514e-06
0.000168544
6.43835e-06
0.000165324
6.4408e-06
0.000162102
6.44255e-06
0.00015888
6.44363e-06
0.000155658
6.44407e-06
0.000152436
6.44393e-06
0.000149214
6.44323e-06
0.000145993
6.44201e-06
0.000142773
6.44032e-06
0.000139554
6.43818e-06
0.000136336
6.43563e-06
0.000133119
6.43271e-06
0.000129904
6.42944e-06
0.000126691
6.42585e-06
0.00012348
6.42198e-06
0.000120271
6.41786e-06
0.000117065
6.41351e-06
0.00011386
6.40897e-06
0.000110658
6.40425e-06
0.000107458
6.39938e-06
0.000104261
6.3944e-06
0.000101066
6.38932e-06
9.78743e-05
6.38416e-06
9.46848e-05
6.37895e-06
9.14979e-05
6.3737e-06
8.83137e-05
6.36845e-06
8.51321e-05
6.36321e-06
8.19531e-05
6.35799e-06
7.87767e-05
6.35282e-06
7.56029e-05
6.34772e-06
7.24316e-05
6.34269e-06
6.92627e-05
6.33776e-06
6.60963e-05
6.33294e-06
6.29322e-05
6.32824e-06
5.97704e-05
6.32368e-06
5.66108e-05
6.31927e-06
5.34533e-05
6.31503e-06
5.02979e-05
6.31096e-06
4.71444e-05
6.30707e-06
4.39928e-05
6.30338e-06
4.08429e-05
6.29989e-06
3.76946e-05
6.29662e-06
3.45479e-05
6.29357e-06
3.14026e-05
6.29074e-06
2.82586e-05
6.28816e-06
2.51157e-05
6.28581e-06
2.19739e-05
6.28371e-06
1.88331e-05
6.28186e-06
1.5693e-05
6.28027e-06
1.25536e-05
6.27894e-06
9.41473e-06
6.27787e-06
6.27627e-06
6.27707e-06
3.13807e-06
6.27653e-06
6.27627e-06
3.56386e-06
-1.06925e-05
7.12791e-06
-1.06931e-05
1.06923e-05
-1.06942e-05
1.42573e-05
-1.06959e-05
1.78231e-05
-1.06981e-05
2.13897e-05
-1.07009e-05
2.49575e-05
-1.07042e-05
2.85266e-05
-1.0708e-05
3.20971e-05
-1.07124e-05
3.56693e-05
-1.07172e-05
3.92432e-05
-1.07225e-05
4.2819e-05
-1.07283e-05
4.6397e-05
-1.07345e-05
4.99771e-05
-1.07411e-05
5.35596e-05
-1.07481e-05
5.71446e-05
-1.07554e-05
6.07321e-05
-1.0763e-05
6.43223e-05
-1.0771e-05
6.79152e-05
-1.07792e-05
7.1511e-05
-1.07876e-05
7.51096e-05
-1.07962e-05
7.87112e-05
-1.08049e-05
8.23157e-05
-1.08137e-05
8.59233e-05
-1.08225e-05
8.95338e-05
-1.08314e-05
9.31472e-05
-1.08402e-05
9.67636e-05
-1.08488e-05
0.000100383
-1.08573e-05
0.000104005
-1.08656e-05
0.00010763
-1.08736e-05
0.000111257
-1.08813e-05
0.000114887
-1.08885e-05
0.000118519
-1.08952e-05
0.000122153
-1.09014e-05
0.000125789
-1.09069e-05
0.000129427
-1.09118e-05
0.000133066
-1.09158e-05
0.000136706
-1.0919e-05
0.000140347
-1.09212e-05
0.000143988
-1.09224e-05
0.00014763
-1.09225e-05
0.000151271
-1.09214e-05
0.000154911
-1.09189e-05
0.000158551
-1.09151e-05
0.000162188
-1.09098e-05
0.000165823
-1.09028e-05
0.000169456
-1.08942e-05
0.000173085
-1.08837e-05
0.00017671
-1.08714e-05
0.00018033
-1.08571e-05
0.000183945
-1.08406e-05
0.000187553
-1.08219e-05
0.000191155
-1.08008e-05
0.000194749
-1.07774e-05
0.000198334
-1.07513e-05
0.00020191
-1.07226e-05
0.000205475
-1.06911e-05
0.000209029
-1.06567e-05
0.00021257
-1.06193e-05
0.000216099
-1.05788e-05
0.000219612
-1.05351e-05
0.00022311
-1.0488e-05
0.000226591
-1.04374e-05
0.000230054
-1.03833e-05
0.000233498
-1.03255e-05
0.000236922
-1.0264e-05
0.000240323
-1.01986e-05
0.000243702
-1.01292e-05
0.000247056
-1.00557e-05
0.000250385
-9.97808e-06
0.000253686
-9.8962e-06
0.000256958
-9.80998e-06
0.000260201
-9.71935e-06
0.000263411
-9.62422e-06
0.000266589
-9.52453e-06
0.000269731
-9.42021e-06
0.000272838
-9.3112e-06
0.000275906
-9.19744e-06
0.000278935
-9.0789e-06
0.000281923
-8.95553e-06
0.000284868
-8.8273e-06
0.000287769
-8.69418e-06
0.000290624
-8.55615e-06
0.000293431
-8.41321e-06
0.000296189
-8.26536e-06
0.000298895
-8.11259e-06
0.00030155
-7.95494e-06
0.00030415
-7.79241e-06
0.000306694
-7.62506e-06
0.000309181
-7.45291e-06
0.000311609
-7.27602e-06
0.000313977
-7.09446e-06
0.000316282
-6.90829e-06
0.000318523
-6.71759e-06
0.0003207
-6.52246e-06
0.00032281
-6.323e-06
0.000324852
-6.11931e-06
0.000326825
-5.9115e-06
0.000328727
-5.69971e-06
0.000330557
-5.48407e-06
0.000332314
-5.26473e-06
0.000333996
-5.04184e-06
0.000335603
-4.81555e-06
0.000337134
-4.58603e-06
0.000338586
-4.35346e-06
0.000339961
-4.11802e-06
0.000341255
-3.8799e-06
0.00034247
-3.63929e-06
0.000343603
-3.39639e-06
0.000344654
-3.15141e-06
0.000345623
-2.90454e-06
0.00034651
-2.65602e-06
0.000347312
-2.40604e-06
0.000348031
-2.15484e-06
0.000348666
-1.90263e-06
0.000349216
-1.64963e-06
0.000349682
-1.39607e-06
0.000350062
-1.14217e-06
0.000350358
-8.88154e-07
0.00035057
-6.34251e-07
0.000350696
-3.80678e-07
0.000350738
-1.27658e-07
0.000350696
1.24594e-07
0.00035057
3.75861e-07
0.000350361
6.25932e-07
0.000350068
8.746e-07
0.000349693
1.12166e-06
0.000349237
1.36692e-06
0.000348699
1.61018e-06
0.00034808
1.85126e-06
0.000347382
2.08997e-06
0.000346605
2.32614e-06
0.000345751
2.5596e-06
0.000344819
2.79019e-06
0.000343811
3.01776e-06
0.000342729
3.24217e-06
0.000341572
3.46327e-06
0.000340343
3.68093e-06
0.000339043
3.89503e-06
0.000337672
4.10546e-06
0.000336233
4.31212e-06
0.000334726
4.51489e-06
0.000333152
4.7137e-06
0.000331514
4.90847e-06
0.000329812
5.09911e-06
0.000328048
5.28557e-06
0.000326223
5.46779e-06
0.000324338
5.64571e-06
0.000322396
5.81931e-06
0.000320398
5.98854e-06
0.000318344
6.15338e-06
0.000316237
6.3138e-06
0.000314078
6.46981e-06
0.000311868
6.62139e-06
0.00030961
6.76854e-06
0.000307303
6.91128e-06
0.000304951
7.04961e-06
0.000302554
7.18356e-06
0.000300114
7.31315e-06
0.000297632
7.43842e-06
0.00029511
7.55939e-06
0.000292549
7.67611e-06
0.000289951
7.78863e-06
0.000287316
7.897e-06
0.000284647
8.00126e-06
0.000281944
8.10148e-06
0.000279209
8.19771e-06
0.000276444
8.29003e-06
0.000273649
8.37849e-06
0.000270826
8.46317e-06
0.000267976
8.54414e-06
0.0002651
8.62147e-06
0.000262199
8.69524e-06
0.000259276
8.76552e-06
0.00025633
8.83241e-06
0.000253363
8.89597e-06
0.000250375
8.95629e-06
0.000247369
9.01345e-06
0.000244345
9.06753e-06
0.000241304
9.11863e-06
0.000238247
9.16681e-06
0.000235174
9.21218e-06
0.000232088
9.25481e-06
0.000228988
9.29478e-06
0.000225876
9.33219e-06
0.000222753
9.36711e-06
0.000219618
9.39963e-06
0.000216473
9.42983e-06
0.00021332
9.4578e-06
0.000210157
9.48361e-06
0.000206987
9.50735e-06
0.00020381
9.5291e-06
0.000200626
9.54893e-06
0.000197436
9.56693e-06
0.00019424
9.58316e-06
0.00019104
9.59771e-06
0.000187836
9.61065e-06
0.000184628
9.62205e-06
0.000181416
9.63199e-06
0.000178202
9.64053e-06
0.000174985
9.64775e-06
0.000171767
9.6537e-06
0.000168547
9.65846e-06
0.000165325
9.6621e-06
0.000162103
9.66466e-06
0.000158881
9.66623e-06
0.000155658
9.66685e-06
0.000152435
9.66658e-06
0.000149213
9.66549e-06
0.000145991
9.66362e-06
0.000142771
9.66104e-06
0.000139551
9.65779e-06
0.000136333
9.65392e-06
0.000133116
9.64949e-06
0.000129901
9.64455e-06
0.000126688
9.63913e-06
0.000123476
9.63329e-06
0.000120267
9.62708e-06
0.00011706
9.62052e-06
0.000113855
9.61367e-06
0.000110653
9.60656e-06
0.000107453
9.59923e-06
0.000104256
9.59172e-06
0.000101061
9.58407e-06
9.78691e-05
9.5763e-06
9.46795e-05
9.56846e-06
9.14927e-05
9.56057e-06
8.83085e-05
9.55267e-06
8.51269e-05
9.54478e-06
8.1948e-05
9.53693e-06
7.87716e-05
9.52916e-06
7.55979e-05
9.52147e-06
7.24266e-05
9.51391e-06
6.92579e-05
9.5065e-06
6.60916e-05
9.49925e-06
6.29276e-05
9.49219e-06
5.9766e-05
9.48533e-06
5.66066e-05
9.4787e-06
5.34493e-05
9.47232e-06
5.0294e-05
9.4662e-06
4.71407e-05
9.46036e-06
4.39893e-05
9.45481e-06
4.08396e-05
9.44957e-06
3.76916e-05
9.44465e-06
3.45451e-05
9.44007e-06
3.14e-05
9.43582e-06
2.82562e-05
9.43193e-06
2.51136e-05
9.42841e-06
2.19721e-05
9.42525e-06
1.88315e-05
9.42247e-06
1.56917e-05
9.42008e-06
1.25525e-05
9.41808e-06
9.41393e-06
9.41647e-06
6.27573e-06
9.41527e-06
3.1378e-06
9.41447e-06
9.41407e-06
3.5633e-06
-1.42558e-05
7.12678e-06
-1.42566e-05
1.06906e-05
-1.42581e-05
1.42551e-05
-1.42603e-05
1.78203e-05
-1.42633e-05
2.13864e-05
-1.4267e-05
2.49537e-05
-1.42715e-05
2.85222e-05
-1.42766e-05
3.20923e-05
-1.42824e-05
3.56639e-05
-1.42889e-05
3.92374e-05
-1.4296e-05
4.28128e-05
-1.43037e-05
4.63904e-05
-1.4312e-05
4.99701e-05
-1.43208e-05
5.35523e-05
-1.43302e-05
5.71369e-05
-1.434e-05
6.07241e-05
-1.43503e-05
6.43141e-05
-1.43609e-05
6.79068e-05
-1.43719e-05
7.15024e-05
-1.43832e-05
7.51009e-05
-1.43947e-05
7.87024e-05
-1.44064e-05
8.23069e-05
-1.44182e-05
8.59144e-05
-1.44301e-05
8.9525e-05
-1.44419e-05
9.31385e-05
-1.44537e-05
9.67551e-05
-1.44654e-05
0.000100375
-1.44768e-05
0.000103997
-1.44879e-05
0.000107622
-1.44987e-05
0.00011125
-1.4509e-05
0.00011488
-1.45187e-05
0.000118513
-1.45278e-05
0.000122147
-1.45362e-05
0.000125784
-1.45437e-05
0.000129423
-1.45503e-05
0.000133062
-1.45558e-05
0.000136704
-1.45602e-05
0.000140346
-1.45633e-05
0.000143988
-1.4565e-05
0.000147631
-1.45653e-05
0.000151273
-1.45639e-05
0.000154915
-1.45608e-05
0.000158556
-1.45558e-05
0.000162195
-1.45488e-05
0.000165832
-1.45397e-05
0.000169466
-1.45284e-05
0.000173097
-1.45146e-05
0.000176724
-1.44983e-05
0.000180346
-1.44794e-05
0.000183963
-1.44576e-05
0.000187574
-1.44328e-05
0.000191178
-1.44049e-05
0.000194775
-1.43738e-05
0.000198363
-1.43393e-05
0.000201941
-1.43012e-05
0.000205509
-1.42593e-05
0.000209066
-1.42137e-05
0.000212611
-1.4164e-05
0.000216142
-1.41101e-05
0.000219659
-1.4052e-05
0.000223161
-1.39893e-05
0.000226645
-1.39221e-05
0.000230112
-1.38501e-05
0.00023356
-1.37732e-05
0.000236987
-1.36913e-05
0.000240393
-1.36043e-05
0.000243776
-1.35119e-05
0.000247134
-1.34141e-05
0.000250467
-1.33107e-05
0.000253772
-1.32017e-05
0.000257049
-1.30868e-05
0.000260296
-1.29661e-05
0.000263511
-1.28394e-05
0.000266693
-1.27066e-05
0.00026984
-1.25676e-05
0.000272951
-1.24223e-05
0.000276025
-1.22707e-05
0.000279058
-1.21127e-05
0.000282051
-1.19483e-05
0.000285001
-1.17773e-05
0.000287907
-1.15999e-05
0.000290767
-1.14158e-05
0.000293579
-1.12253e-05
0.000296341
-1.10281e-05
0.000299053
-1.08244e-05
0.000301712
-1.06142e-05
0.000304317
-1.03974e-05
0.000306867
-1.01742e-05
0.000309358
-9.94458e-06
0.000311791
-9.70863e-06
0.000314163
-9.46644e-06
0.000316473
-9.21809e-06
0.000318719
-8.96369e-06
0.0003209
-8.70336e-06
0.000323014
-8.43724e-06
0.00032506
-8.16546e-06
0.000327037
-7.8882e-06
0.000328943
-7.6056e-06
0.000330776
-7.31786e-06
0.000332537
-7.02517e-06
0.000334223
-6.72772e-06
0.000335833
-6.42574e-06
0.000337366
-6.11945e-06
0.000338822
-5.80908e-06
0.000340199
-5.49487e-06
0.000341496
-5.17707e-06
0.000342713
-4.85595e-06
0.000343848
-4.53176e-06
0.000344901
-4.20479e-06
0.000345872
-3.87531e-06
0.00034676
-3.54361e-06
0.000347564
-3.20997e-06
0.000348283
-2.87469e-06
0.000348919
-2.53806e-06
0.00034947
-2.20038e-06
0.000349936
-1.86195e-06
0.000350316
-1.52307e-06
0.000350612
-1.18404e-06
0.000350823
-8.45154e-07
0.000350949
-5.06715e-07
0.000350991
-1.69015e-07
0.000350948
1.67654e-07
0.00035082
5.03005e-07
0.00035061
8.36756e-07
0.000350316
1.16863e-06
0.000349939
1.49835e-06
0.00034948
1.82566e-06
0.00034894
2.1503e-06
0.000348319
2.47202e-06
0.000347619
2.79057e-06
0.000346839
3.10572e-06
0.000345981
3.41726e-06
0.000345047
3.72495e-06
0.000344036
4.02861e-06
0.00034295
4.32803e-06
0.00034179
4.62303e-06
0.000340558
4.91344e-06
0.000339254
5.19908e-06
0.000337879
5.47982e-06
0.000336436
5.75551e-06
0.000334925
6.02602e-06
0.000333347
6.29123e-06
0.000331705
6.55103e-06
0.000329998
6.80532e-06
0.00032823
7.05402e-06
0.000326401
7.29705e-06
0.000324512
7.53435e-06
0.000322565
7.76587e-06
0.000320562
7.99155e-06
0.000318504
8.21136e-06
0.000316393
8.42528e-06
0.00031423
8.6333e-06
0.000312016
8.8354e-06
0.000309752
9.03159e-06
0.000307442
9.22188e-06
0.000305085
9.4063e-06
0.000302684
9.58486e-06
0.000300239
9.7576e-06
0.000297753
9.92456e-06
0.000295227
1.00858e-05
0.000292662
1.02414e-05
0.000290059
1.03913e-05
0.00028742
1.05357e-05
0.000284747
1.06746e-05
0.00028204
1.08082e-05
0.000279302
1.09364e-05
0.000276532
1.10594e-05
0.000273733
1.11772e-05
0.000270907
1.129e-05
0.000268053
1.13978e-05
0.000265174
1.15008e-05
0.00026227
1.15991e-05
0.000259343
1.16927e-05
0.000256393
1.17817e-05
0.000253423
1.18663e-05
0.000250433
1.19466e-05
0.000247423
1.20227e-05
0.000244396
1.20947e-05
0.000241352
1.21627e-05
0.000238292
1.22268e-05
0.000235217
1.22872e-05
0.000232128
1.23439e-05
0.000229026
1.2397e-05
0.000225911
1.24468e-05
0.000222785
1.24932e-05
0.000219648
1.25364e-05
0.000216502
1.25766e-05
0.000213346
1.26138e-05
0.000210181
1.2648e-05
0.000207009
1.26796e-05
0.00020383
1.27084e-05
0.000200644
1.27348e-05
0.000197452
1.27586e-05
0.000194255
1.27802e-05
0.000191053
1.27995e-05
0.000187847
1.28166e-05
0.000184638
1.28317e-05
0.000181425
1.28448e-05
0.000178209
1.28561e-05
0.000174991
1.28656e-05
0.000171772
1.28735e-05
0.00016855
1.28797e-05
0.000165328
1.28845e-05
0.000162105
1.28878e-05
0.000158881
1.28898e-05
0.000155658
1.28905e-05
0.000152434
1.28901e-05
0.000149211
1.28885e-05
0.000145989
1.28859e-05
0.000142768
1.28824e-05
0.000139547
1.2878e-05
0.000136328
1.28728e-05
0.000133111
1.28668e-05
0.000129896
1.28601e-05
0.000126682
1.28528e-05
0.00012347
1.2845e-05
0.000120261
1.28366e-05
0.000117053
1.28278e-05
0.000113848
1.28186e-05
0.000110646
1.28091e-05
0.000107446
1.27993e-05
0.000104248
1.27892e-05
0.000101053
1.27789e-05
9.78613e-05
1.27685e-05
9.46717e-05
1.2758e-05
9.14848e-05
1.27475e-05
8.83006e-05
1.27369e-05
8.51191e-05
1.27263e-05
8.19402e-05
1.27158e-05
7.8764e-05
1.27054e-05
7.55903e-05
1.26951e-05
7.24193e-05
1.2685e-05
6.92507e-05
1.26751e-05
6.60846e-05
1.26654e-05
6.29208e-05
1.26559e-05
5.97594e-05
1.26468e-05
5.66002e-05
1.26379e-05
5.34432e-05
1.26294e-05
5.02882e-05
1.26212e-05
4.71352e-05
1.26134e-05
4.39841e-05
1.26059e-05
4.08347e-05
1.25989e-05
3.7687e-05
1.25924e-05
3.45409e-05
1.25862e-05
3.13961e-05
1.25805e-05
2.82527e-05
1.25753e-05
2.51105e-05
1.25706e-05
2.19693e-05
1.25664e-05
1.88291e-05
1.25627e-05
1.56897e-05
1.25595e-05
1.25509e-05
1.25568e-05
9.41272e-06
1.25547e-05
6.27492e-06
1.25531e-05
3.13739e-06
1.2552e-05
1.25515e-05
3.56254e-06
-1.78183e-05
7.12527e-06
-1.78193e-05
1.06884e-05
-1.78212e-05
1.42521e-05
-1.7824e-05
1.78166e-05
-1.78278e-05
2.1382e-05
-1.78325e-05
2.49485e-05
-1.7838e-05
2.85164e-05
-1.78445e-05
3.20858e-05
-1.78518e-05
3.56568e-05
-1.78599e-05
3.92297e-05
-1.78689e-05
4.28045e-05
-1.78786e-05
4.63815e-05
-1.7889e-05
4.99608e-05
-1.79001e-05
5.35424e-05
-1.79119e-05
5.71266e-05
-1.79242e-05
6.07135e-05
-1.79371e-05
6.43031e-05
-1.79505e-05
6.78955e-05
-1.79643e-05
7.14908e-05
-1.79785e-05
7.50892e-05
-1.7993e-05
7.86905e-05
-1.80077e-05
8.2295e-05
-1.80226e-05
8.59025e-05
-1.80376e-05
8.95131e-05
-1.80526e-05
9.31268e-05
-1.80674e-05
9.67436e-05
-1.80821e-05
0.000100363
-1.80966e-05
0.000103986
-1.81107e-05
0.000107612
-1.81243e-05
0.00011124
-1.81373e-05
0.000114871
-1.81496e-05
0.000118504
-1.81612e-05
0.00012214
-1.81718e-05
0.000125777
-1.81814e-05
0.000129417
-1.81898e-05
0.000133058
-1.81969e-05
0.0001367
-1.82026e-05
0.000140344
-1.82067e-05
0.000143988
-1.82091e-05
0.000147632
-1.82096e-05
0.000151277
-1.82081e-05
0.00015492
-1.82045e-05
0.000158563
-1.81985e-05
0.000162204
-1.819e-05
0.000165843
-1.81789e-05
0.00016948
-1.8165e-05
0.000173113
-1.8148e-05
0.000176743
-1.81279e-05
0.000180368
-1.81045e-05
0.000183988
-1.80775e-05
0.000187602
-1.80469e-05
0.000191209
-1.80123e-05
0.000194809
-1.79737e-05
0.000198401
-1.79308e-05
0.000201983
-1.78834e-05
0.000205555
-1.78314e-05
0.000209116
-1.77746e-05
0.000212665
-1.77128e-05
0.0002162
-1.76457e-05
0.000219722
-1.75733e-05
0.000223228
-1.74953e-05
0.000226717
-1.74115e-05
0.000230189
-1.73218e-05
0.000233642
-1.7226e-05
0.000237074
-1.71239e-05
0.000240485
-1.70153e-05
0.000243873
-1.69e-05
0.000247237
-1.6778e-05
0.000250576
-1.6649e-05
0.000253887
-1.65129e-05
0.00025717
-1.63696e-05
0.000260422
-1.62189e-05
0.000263644
-1.60607e-05
0.000266832
-1.58948e-05
0.000269986
-1.57212e-05
0.000273103
-1.55397e-05
0.000276183
-1.53504e-05
0.000279223
-1.5153e-05
0.000282222
-1.49475e-05
0.000285179
-1.47339e-05
0.000288091
-1.45121e-05
0.000290957
-1.42821e-05
0.000293776
-1.40439e-05
0.000296545
-1.37974e-05
0.000299263
-1.35427e-05
0.000301929
-1.32799e-05
0.000304541
-1.30088e-05
0.000307096
-1.27297e-05
0.000309594
-1.24426e-05
0.000312033
-1.21475e-05
0.000314411
-1.18446e-05
0.000316727
-1.15339e-05
0.000318979
-1.12157e-05
0.000321166
-1.08901e-05
0.000323286
-1.05571e-05
0.000325337
-1.02171e-05
0.000327319
-9.87022e-06
0.00032923
-9.51664e-06
0.000331069
-9.1566e-06
0.000332834
-8.79036e-06
0.000334525
-8.41815e-06
0.000336139
-8.04026e-06
0.000337677
-7.65695e-06
0.000339136
-7.26853e-06
0.000340517
-6.8753e-06
0.000341817
-6.47757e-06
0.000343037
-6.07567e-06
0.000344175
-5.66993e-06
0.000345231
-5.26069e-06
0.000346204
-4.84831e-06
0.000347093
-4.43314e-06
0.000347899
-4.01554e-06
0.00034862
-3.59588e-06
0.000349257
-3.17454e-06
0.000349808
-2.75188e-06
0.000350274
-2.32828e-06
0.000350656
-1.90412e-06
0.000350951
-1.47977e-06
0.000351162
-1.05561e-06
0.000351287
-6.32013e-07
0.000351327
-2.09344e-07
0.000351283
2.12031e-07
0.000351154
6.3175e-07
0.000350942
1.04946e-06
0.000350645
1.46481e-06
0.000350266
1.87746e-06
0.000349805
2.28708e-06
0.000349262
2.69334e-06
0.000348638
3.09594e-06
0.000347934
3.49457e-06
0.000347151
3.88893e-06
0.000346289
4.27875e-06
0.00034535
4.66375e-06
0.000344335
5.04369e-06
0.000343245
5.41831e-06
0.000342081
5.78739e-06
0.000340843
6.1507e-06
0.000339534
6.50805e-06
0.000338155
6.85924e-06
0.000336706
7.20409e-06
0.00033519
7.54245e-06
0.000333607
7.87416e-06
0.000331959
8.19909e-06
0.000330247
8.51712e-06
0.000328473
8.82814e-06
0.000326638
9.13205e-06
0.000324744
9.42878e-06
0.000322791
9.71825e-06
0.000320782
1.00004e-05
0.000318719
1.02752e-05
0.000316601
1.05427e-05
0.000314432
1.08027e-05
0.000312212
1.10553e-05
0.000309943
1.13005e-05
0.000307626
1.15384e-05
0.000305264
1.17688e-05
0.000302857
1.1992e-05
0.000300407
1.22078e-05
0.000297915
1.24164e-05
0.000295383
1.26179e-05
0.000292812
1.28122e-05
0.000290203
1.29995e-05
0.000287559
1.31799e-05
0.000284881
1.33534e-05
0.000282169
1.35202e-05
0.000279425
1.36803e-05
0.00027665
1.38338e-05
0.000273846
1.3981e-05
0.000271015
1.41218e-05
0.000268156
1.42564e-05
0.000265272
1.43849e-05
0.000262363
1.45075e-05
0.000259432
1.46243e-05
0.000256478
1.47355e-05
0.000253503
1.4841e-05