/*--------------------------------*- C++ -*----------------------------------*\
| =========                 |                                                 |
| \\      /  F ield         | OpenFOAM: The Open Source CFD Toolbox           |
|  \\    /   O peration     | Version:  v2012                                 |
|   \\  /    A nd           | Website:  www.openfoam.com                      |
|    \\/     M anipulation  |                                                 |
\*---------------------------------------------------------------------------*/
FoamFile
{
    version     2.0;
    format      ascii;
    class       volVectorField;
    location    "12.5";
    object      Psi;
}
// * * * * * * * * * * * * * * * * * * * * * * * * * * * * * * * * * * * * * //

dimensions      [0 2 -1 0 0 0 0];


internalField   nonuniform List<vector> 
65536
(
(0 0 8.90948e-06)
(0 0 2.6729e-05)
(0 0 4.45498e-05)
(0 0 6.23731e-05)
(0 0 8.01995e-05)
(0 0 9.80302e-05)
(0 0 0.000115866)
(0 0 0.000133707)
(0 0 0.000151556)
(0 0 0.000169412)
(0 0 0.000187276)
(0 0 0.00020515)
(0 0 0.000223034)
(0 0 0.000240928)
(0 0 0.000258833)
(0 0 0.000276751)
(0 0 0.00029468)
(0 0 0.000312623)
(0 0 0.000330579)
(0 0 0.000348549)
(0 0 0.000366533)
(0 0 0.000384531)
(0 0 0.000402544)
(0 0 0.000420572)
(0 0 0.000438614)
(0 0 0.000456671)
(0 0 0.000474742)
(0 0 0.000492827)
(0 0 0.000510927)
(0 0 0.00052904)
(0 0 0.000547165)
(0 0 0.000565303)
(0 0 0.000583453)
(0 0 0.000601613)
(0 0 0.000619783)
(0 0 0.000637962)
(0 0 0.000656147)
(0 0 0.000674339)
(0 0 0.000692535)
(0 0 0.000710734)
(0 0 0.000728934)
(0 0 0.000747133)
(0 0 0.000765328)
(0 0 0.000783518)
(0 0 0.000801701)
(0 0 0.000819873)
(0 0 0.000838032)
(0 0 0.000856175)
(0 0 0.000874299)
(0 0 0.000892401)
(0 0 0.000910477)
(0 0 0.000928523)
(0 0 0.000946536)
(0 0 0.000964512)
(0 0 0.000982446)
(0 0 0.00100033)
(0 0 0.00101817)
(0 0 0.00103596)
(0 0 0.00105368)
(0 0 0.00107134)
(0 0 0.00108893)
(0 0 0.00110644)
(0 0 0.00112387)
(0 0 0.00114121)
(0 0 0.00115846)
(0 0 0.00117561)
(0 0 0.00119266)
(0 0 0.00120959)
(0 0 0.00122641)
(0 0 0.00124309)
(0 0 0.00125965)
(0 0 0.00127606)
(0 0 0.00129233)
(0 0 0.00130844)
(0 0 0.00132439)
(0 0 0.00134017)
(0 0 0.00135577)
(0 0 0.00137119)
(0 0 0.00138641)
(0 0 0.00140143)
(0 0 0.00141625)
(0 0 0.00143084)
(0 0 0.00144521)
(0 0 0.00145934)
(0 0 0.00147324)
(0 0 0.00148688)
(0 0 0.00150026)
(0 0 0.00151338)
(0 0 0.00152622)
(0 0 0.00153878)
(0 0 0.00155105)
(0 0 0.00156302)
(0 0 0.00157469)
(0 0 0.00158604)
(0 0 0.00159707)
(0 0 0.00160777)
(0 0 0.00161813)
(0 0 0.00162816)
(0 0 0.00163783)
(0 0 0.00164715)
(0 0 0.0016561)
(0 0 0.00166469)
(0 0 0.0016729)
(0 0 0.00168074)
(0 0 0.00168819)
(0 0 0.00169525)
(0 0 0.00170191)
(0 0 0.00170818)
(0 0 0.00171405)
(0 0 0.0017195)
(0 0 0.00172455)
(0 0 0.00172919)
(0 0 0.00173341)
(0 0 0.00173722)
(0 0 0.0017406)
(0 0 0.00174357)
(0 0 0.00174611)
(0 0 0.00174823)
(0 0 0.00174993)
(0 0 0.00175121)
(0 0 0.00175206)
(0 0 0.00175249)
(0 0 0.0017525)
(0 0 0.00175209)
(0 0 0.00175126)
(0 0 0.00175002)
(0 0 0.00174837)
(0 0 0.0017463)
(0 0 0.00174383)
(0 0 0.00174096)
(0 0 0.00173768)
(0 0 0.00173401)
(0 0 0.00172995)
(0 0 0.0017255)
(0 0 0.00172067)
(0 0 0.00171547)
(0 0 0.00170989)
(0 0 0.00170395)
(0 0 0.00169765)
(0 0 0.00169099)
(0 0 0.00168399)
(0 0 0.00167664)
(0 0 0.00166896)
(0 0 0.00166096)
(0 0 0.00165263)
(0 0 0.00164398)
(0 0 0.00163503)
(0 0 0.00162578)
(0 0 0.00161624)
(0 0 0.00160641)
(0 0 0.0015963)
(0 0 0.00158592)
(0 0 0.00157528)
(0 0 0.00156438)
(0 0 0.00155323)
(0 0 0.00154184)
(0 0 0.00153022)
(0 0 0.00151837)
(0 0 0.00150629)
(0 0 0.00149401)
(0 0 0.00148152)
(0 0 0.00146883)
(0 0 0.00145595)
(0 0 0.00144289)
(0 0 0.00142965)
(0 0 0.00141624)
(0 0 0.00140266)
(0 0 0.00138893)
(0 0 0.00137504)
(0 0 0.00136102)
(0 0 0.00134685)
(0 0 0.00133255)
(0 0 0.00131813)
(0 0 0.00130358)
(0 0 0.00128892)
(0 0 0.00127415)
(0 0 0.00125928)
(0 0 0.00124431)
(0 0 0.00122925)
(0 0 0.00121409)
(0 0 0.00119886)
(0 0 0.00118355)
(0 0 0.00116816)
(0 0 0.00115271)
(0 0 0.00113719)
(0 0 0.00112161)
(0 0 0.00110597)
(0 0 0.00109028)
(0 0 0.00107454)
(0 0 0.00105876)
(0 0 0.00104293)
(0 0 0.00102707)
(0 0 0.00101117)
(0 0 0.000995245)
(0 0 0.000979287)
(0 0 0.000963303)
(0 0 0.000947296)
(0 0 0.000931269)
(0 0 0.000915224)
(0 0 0.000899164)
(0 0 0.00088309)
(0 0 0.000867005)
(0 0 0.00085091)
(0 0 0.000834809)
(0 0 0.000818703)
(0 0 0.000802593)
(0 0 0.00078648)
(0 0 0.000770368)
(0 0 0.000754257)
(0 0 0.000738148)
(0 0 0.000722042)
(0 0 0.000705941)
(0 0 0.000689847)
(0 0 0.000673758)
(0 0 0.000657678)
(0 0 0.000641606)
(0 0 0.000625544)
(0 0 0.000609491)
(0 0 0.00059345)
(0 0 0.000577419)
(0 0 0.000561399)
(0 0 0.000545392)
(0 0 0.000529397)
(0 0 0.000513415)
(0 0 0.000497445)
(0 0 0.000481489)
(0 0 0.000465545)
(0 0 0.000449615)
(0 0 0.000433697)
(0 0 0.000417793)
(0 0 0.000401902)
(0 0 0.000386023)
(0 0 0.000370157)
(0 0 0.000354304)
(0 0 0.000338463)
(0 0 0.000322634)
(0 0 0.000306816)
(0 0 0.00029101)
(0 0 0.000275214)
(0 0 0.000259429)
(0 0 0.000243653)
(0 0 0.000227888)
(0 0 0.000212131)
(0 0 0.000196382)
(0 0 0.000180642)
(0 0 0.000164909)
(0 0 0.000149182)
(0 0 0.000133462)
(0 0 0.000117747)
(0 0 0.000102038)
(0 0 8.63322e-05)
(0 0 7.06304e-05)
(0 0 5.49316e-05)
(0 0 3.92352e-05)
(0 0 2.35405e-05)
(0 0 7.84671e-06)
(0 0 2.67281e-05)
(0 0 8.01856e-05)
(0 0 0.000133647)
(0 0 0.000187116)
(0 0 0.000240595)
(0 0 0.000294086)
(0 0 0.000347592)
(0 0 0.000401116)
(0 0 0.000454661)
(0 0 0.000508228)
(0 0 0.00056182)
(0 0 0.000615441)
(0 0 0.000669091)
(0 0 0.000722773)
(0 0 0.000776488)
(0 0 0.00083024)
(0 0 0.000884029)
(0 0 0.000937857)
(0 0 0.000991725)
(0 0 0.00104563)
(0 0 0.00109959)
(0 0 0.00115358)
(0 0 0.00120762)
(0 0 0.0012617)
(0 0 0.00131583)
(0 0 0.00137)
(0 0 0.00142421)
(0 0 0.00147847)
(0 0 0.00153277)
(0 0 0.00158711)
(0 0 0.00164149)
(0 0 0.0016959)
(0 0 0.00175035)
(0 0 0.00180483)
(0 0 0.00185934)
(0 0 0.00191388)
(0 0 0.00196844)
(0 0 0.00202301)
(0 0 0.0020776)
(0 0 0.0021322)
(0 0 0.0021868)
(0 0 0.0022414)
(0 0 0.00229599)
(0 0 0.00235057)
(0 0 0.00240512)
(0 0 0.00245963)
(0 0 0.00251411)
(0 0 0.00256855)
(0 0 0.00262292)
(0 0 0.00267723)
(0 0 0.00273146)
(0 0 0.0027856)
(0 0 0.00283965)
(0 0 0.00289358)
(0 0 0.00294739)
(0 0 0.00300106)
(0 0 0.00305458)
(0 0 0.00310793)
(0 0 0.00316111)
(0 0 0.00321409)
(0 0 0.00326686)
(0 0 0.0033194)
(0 0 0.0033717)
(0 0 0.00342374)
(0 0 0.00347549)
(0 0 0.00352695)
(0 0 0.00357809)
(0 0 0.0036289)
(0 0 0.00367934)
(0 0 0.00372941)
(0 0 0.00377908)
(0 0 0.00382833)
(0 0 0.00387714)
(0 0 0.00392549)
(0 0 0.00397334)
(0 0 0.00402069)
(0 0 0.00406751)
(0 0 0.00411376)
(0 0 0.00415944)
(0 0 0.00420451)
(0 0 0.00424896)
(0 0 0.00429275)
(0 0 0.00433586)
(0 0 0.00437828)
(0 0 0.00441996)
(0 0 0.0044609)
(0 0 0.00450105)
(0 0 0.00454041)
(0 0 0.00457895)
(0 0 0.00461664)
(0 0 0.00465345)
(0 0 0.00468937)
(0 0 0.00472437)
(0 0 0.00475843)
(0 0 0.00479153)
(0 0 0.00482364)
(0 0 0.00485474)
(0 0 0.00488482)
(0 0 0.00491384)
(0 0 0.0049418)
(0 0 0.00496868)
(0 0 0.00499444)
(0 0 0.00501909)
(0 0 0.0050426)
(0 0 0.00506495)
(0 0 0.00508614)
(0 0 0.00510614)
(0 0 0.00512494)
(0 0 0.00514254)
(0 0 0.00515892)
(0 0 0.00517407)
(0 0 0.00518799)
(0 0 0.00520065)
(0 0 0.00521207)
(0 0 0.00522223)
(0 0 0.00523113)
(0 0 0.00523876)
(0 0 0.00524512)
(0 0 0.00525021)
(0 0 0.00525404)
(0 0 0.0052566)
(0 0 0.00525789)
(0 0 0.00525792)
(0 0 0.00525669)
(0 0 0.0052542)
(0 0 0.00525048)
(0 0 0.00524551)
(0 0 0.00523931)
(0 0 0.00523189)
(0 0 0.00522327)
(0 0 0.00521344)
(0 0 0.00520242)
(0 0 0.00519024)
(0 0 0.00517689)
(0 0 0.0051624)
(0 0 0.00514677)
(0 0 0.00513004)
(0 0 0.0051122)
(0 0 0.00509329)
(0 0 0.00507331)
(0 0 0.0050523)
(0 0 0.00503026)
(0 0 0.00500721)
(0 0 0.00498318)
(0 0 0.00495819)
(0 0 0.00493225)
(0 0 0.0049054)
(0 0 0.00487764)
(0 0 0.004849)
(0 0 0.0048195)
(0 0 0.00478917)
(0 0 0.00475803)
(0 0 0.00472609)
(0 0 0.00469339)
(0 0 0.00465994)
(0 0 0.00462576)
(0 0 0.00459088)
(0 0 0.00455531)
(0 0 0.00451909)
(0 0 0.00448223)
(0 0 0.00444476)
(0 0 0.00440669)
(0 0 0.00436804)
(0 0 0.00432884)
(0 0 0.00428911)
(0 0 0.00424887)
(0 0 0.00420814)
(0 0 0.00416693)
(0 0 0.00412528)
(0 0 0.00408318)
(0 0 0.00404068)
(0 0 0.00399778)
(0 0 0.00395449)
(0 0 0.00391085)
(0 0 0.00386687)
(0 0 0.00382255)
(0 0 0.00377793)
(0 0 0.00373302)
(0 0 0.00368782)
(0 0 0.00364236)
(0 0 0.00359665)
(0 0 0.00355071)
(0 0 0.00350455)
(0 0 0.00345818)
(0 0 0.00341161)
(0 0 0.00336487)
(0 0 0.00331795)
(0 0 0.00327088)
(0 0 0.00322367)
(0 0 0.00317631)
(0 0 0.00312884)
(0 0 0.00308125)
(0 0 0.00303355)
(0 0 0.00298576)
(0 0 0.00293788)
(0 0 0.00288993)
(0 0 0.00284191)
(0 0 0.00279382)
(0 0 0.00274569)
(0 0 0.0026975)
(0 0 0.00264928)
(0 0 0.00260102)
(0 0 0.00255274)
(0 0 0.00250443)
(0 0 0.00245611)
(0 0 0.00240778)
(0 0 0.00235944)
(0 0 0.0023111)
(0 0 0.00226277)
(0 0 0.00221444)
(0 0 0.00216612)
(0 0 0.00211782)
(0 0 0.00206953)
(0 0 0.00202127)
(0 0 0.00197302)
(0 0 0.00192481)
(0 0 0.00187662)
(0 0 0.00182846)
(0 0 0.00178034)
(0 0 0.00173224)
(0 0 0.00168418)
(0 0 0.00163616)
(0 0 0.00158818)
(0 0 0.00154023)
(0 0 0.00149232)
(0 0 0.00144445)
(0 0 0.00139662)
(0 0 0.00134883)
(0 0 0.00130108)
(0 0 0.00125336)
(0 0 0.00120569)
(0 0 0.00115806)
(0 0 0.00111046)
(0 0 0.0010629)
(0 0 0.00101538)
(0 0 0.000967889)
(0 0 0.000920436)
(0 0 0.000873017)
(0 0 0.000825631)
(0 0 0.000778275)
(0 0 0.00073095)
(0 0 0.000683653)
(0 0 0.000636383)
(0 0 0.000589138)
(0 0 0.000541918)
(0 0 0.000494719)
(0 0 0.00044754)
(0 0 0.00040038)
(0 0 0.000353237)
(0 0 0.000306108)
(0 0 0.000258993)
(0 0 0.000211888)
(0 0 0.000164793)
(0 0 0.000117704)
(0 0 7.06204e-05)
(0 0 2.35398e-05)
(0 0 4.45452e-05)
(0 0 0.000133638)
(0 0 0.000222738)
(0 0 0.000311849)
(0 0 0.000400977)
(0 0 0.000490126)
(0 0 0.0005793)
(0 0 0.000668504)
(0 0 0.000757742)
(0 0 0.000847018)
(0 0 0.000936337)
(0 0 0.0010257)
(0 0 0.00111512)
(0 0 0.00120458)
(0 0 0.00129411)
(0 0 0.00138369)
(0 0 0.00147334)
(0 0 0.00156305)
(0 0 0.00165283)
(0 0 0.00174268)
(0 0 0.00183259)
(0 0 0.00192259)
(0 0 0.00201265)
(0 0 0.00210279)
(0 0 0.002193)
(0 0 0.00228328)
(0 0 0.00237364)
(0 0 0.00246407)
(0 0 0.00255457)
(0 0 0.00264514)
(0 0 0.00273577)
(0 0 0.00282646)
(0 0 0.00291721)
(0 0 0.00300802)
(0 0 0.00309888)
(0 0 0.00318977)
(0 0 0.00328071)
(0 0 0.00337168)
(0 0 0.00346267)
(0 0 0.00355367)
(0 0 0.00364468)
(0 0 0.00373568)
(0 0 0.00382667)
(0 0 0.00391763)
(0 0 0.00400856)
(0 0 0.00409943)
(0 0 0.00419024)
(0 0 0.00428098)
(0 0 0.00437161)
(0 0 0.00446214)
(0 0 0.00455253)
(0 0 0.00464278)
(0 0 0.00473287)
(0 0 0.00482277)
(0 0 0.00491246)
(0 0 0.00500193)
(0 0 0.00509115)
(0 0 0.00518009)
(0 0 0.00526873)
(0 0 0.00535705)
(0 0 0.00544502)
(0 0 0.00553261)
(0 0 0.00561979)
(0 0 0.00570654)
(0 0 0.00579282)
(0 0 0.00587861)
(0 0 0.00596386)
(0 0 0.00604856)
(0 0 0.00613266)
(0 0 0.00621613)
(0 0 0.00629894)
(0 0 0.00638105)
(0 0 0.00646242)
(0 0 0.00654302)
(0 0 0.00662281)
(0 0 0.00670175)
(0 0 0.0067798)
(0 0 0.00685692)
(0 0 0.00693307)
(0 0 0.00700822)
(0 0 0.00708232)
(0 0 0.00715534)
(0 0 0.00722722)
(0 0 0.00729793)
(0 0 0.00736744)
(0 0 0.00743569)
(0 0 0.00750265)
(0 0 0.00756827)
(0 0 0.00763252)
(0 0 0.00769536)
(0 0 0.00775675)
(0 0 0.00781664)
(0 0 0.007875)
(0 0 0.00793179)
(0 0 0.00798697)
(0 0 0.00804051)
(0 0 0.00809238)
(0 0 0.00814252)
(0 0 0.00819092)
(0 0 0.00823754)
(0 0 0.00828235)
(0 0 0.00832532)
(0 0 0.00836642)
(0 0 0.00840561)
(0 0 0.00844289)
(0 0 0.00847821)
(0 0 0.00851156)
(0 0 0.00854292)
(0 0 0.00857226)
(0 0 0.00859957)
(0 0 0.00862483)
(0 0 0.00864803)
(0 0 0.00866915)
(0 0 0.00868818)
(0 0 0.00870512)
(0 0 0.00871995)
(0 0 0.00873267)
(0 0 0.00874327)
(0 0 0.00875176)
(0 0 0.00875814)
(0 0 0.0087624)
(0 0 0.00876455)
(0 0 0.00876459)
(0 0 0.00876254)
(0 0 0.00875839)
(0 0 0.00875217)
(0 0 0.00874388)
(0 0 0.00873354)
(0 0 0.00872117)
(0 0 0.00870678)
(0 0 0.00869038)
(0 0 0.00867201)
(0 0 0.00865168)
(0 0 0.00862942)
(0 0 0.00860525)
(0 0 0.00857919)
(0 0 0.00855128)
(0 0 0.00852153)
(0 0 0.00848999)
(0 0 0.00845668)
(0 0 0.00842163)
(0 0 0.00838488)
(0 0 0.00834645)
(0 0 0.00830637)
(0 0 0.0082647)
(0 0 0.00822145)
(0 0 0.00817666)
(0 0 0.00813037)
(0 0 0.00808262)
(0 0 0.00803344)
(0 0 0.00798286)
(0 0 0.00793093)
(0 0 0.00787768)
(0 0 0.00782314)
(0 0 0.00776736)
(0 0 0.00771038)
(0 0 0.00765222)
(0 0 0.00759292)
(0 0 0.00753253)
(0 0 0.00747107)
(0 0 0.00740859)
(0 0 0.00734511)
(0 0 0.00728068)
(0 0 0.00721533)
(0 0 0.00714909)
(0 0 0.007082)
(0 0 0.00701409)
(0 0 0.00694539)
(0 0 0.00687594)
(0 0 0.00680577)
(0 0 0.0067349)
(0 0 0.00666338)
(0 0 0.00659122)
(0 0 0.00651847)
(0 0 0.00644514)
(0 0 0.00637127)
(0 0 0.00629688)
(0 0 0.006222)
(0 0 0.00614666)
(0 0 0.00607088)
(0 0 0.00599468)
(0 0 0.0059181)
(0 0 0.00584114)
(0 0 0.00576384)
(0 0 0.00568622)
(0 0 0.0056083)
(0 0 0.0055301)
(0 0 0.00545163)
(0 0 0.00537293)
(0 0 0.00529399)
(0 0 0.00521485)
(0 0 0.00513552)
(0 0 0.00505602)
(0 0 0.00497636)
(0 0 0.00489656)
(0 0 0.00481663)
(0 0 0.00473658)
(0 0 0.00465643)
(0 0 0.00457619)
(0 0 0.00449588)
(0 0 0.0044155)
(0 0 0.00433506)
(0 0 0.00425458)
(0 0 0.00417407)
(0 0 0.00409353)
(0 0 0.00401297)
(0 0 0.0039324)
(0 0 0.00385183)
(0 0 0.00377127)
(0 0 0.00369072)
(0 0 0.00361018)
(0 0 0.00352967)
(0 0 0.00344919)
(0 0 0.00336875)
(0 0 0.00328834)
(0 0 0.00320798)
(0 0 0.00312767)
(0 0 0.0030474)
(0 0 0.00296719)
(0 0 0.00288703)
(0 0 0.00280693)
(0 0 0.0027269)
(0 0 0.00264692)
(0 0 0.00256701)
(0 0 0.00248716)
(0 0 0.00240738)
(0 0 0.00232766)
(0 0 0.00224801)
(0 0 0.00216842)
(0 0 0.0020889)
(0 0 0.00200944)
(0 0 0.00193005)
(0 0 0.00185072)
(0 0 0.00177146)
(0 0 0.00169225)
(0 0 0.00161311)
(0 0 0.00153402)
(0 0 0.00145499)
(0 0 0.00137602)
(0 0 0.00129709)
(0 0 0.00121822)
(0 0 0.00113939)
(0 0 0.00106061)
(0 0 0.000981871)
(0 0 0.000903171)
(0 0 0.000824509)
(0 0 0.00074588)
(0 0 0.000667282)
(0 0 0.000588712)
(0 0 0.000510166)
(0 0 0.000431642)
(0 0 0.000353137)
(0 0 0.000274646)
(0 0 0.000196168)
(0 0 0.000117697)
(0 0 3.92319e-05)
(0 0 6.236e-05)
(0 0 0.000187083)
(0 0 0.000311817)
(0 0 0.000436566)
(0 0 0.000561339)
(0 0 0.000686141)
(0 0 0.000810979)
(0 0 0.000935858)
(0 0 0.00106079)
(0 0 0.00118577)
(0 0 0.00131081)
(0 0 0.00143591)
(0 0 0.00156109)
(0 0 0.00168634)
(0 0 0.00181167)
(0 0 0.00193708)
(0 0 0.00206258)
(0 0 0.00218818)
(0 0 0.00231386)
(0 0 0.00243965)
(0 0 0.00256553)
(0 0 0.00269152)
(0 0 0.00281761)
(0 0 0.0029438)
(0 0 0.00307009)
(0 0 0.00319649)
(0 0 0.003323)
(0 0 0.0034496)
(0 0 0.0035763)
(0 0 0.0037031)
(0 0 0.00382999)
(0 0 0.00395697)
(0 0 0.00408402)
(0 0 0.00421116)
(0 0 0.00433837)
(0 0 0.00446563)
(0 0 0.00459295)
(0 0 0.00472032)
(0 0 0.00484771)
(0 0 0.00497513)
(0 0 0.00510255)
(0 0 0.00522997)
(0 0 0.00535738)
(0 0 0.00548474)
(0 0 0.00561206)
(0 0 0.0057393)
(0 0 0.00586645)
(0 0 0.0059935)
(0 0 0.00612041)
(0 0 0.00624717)
(0 0 0.00637375)
(0 0 0.00650013)
(0 0 0.00662628)
(0 0 0.00675217)
(0 0 0.00687777)
(0 0 0.00700305)
(0 0 0.00712799)
(0 0 0.00725254)
(0 0 0.00737668)
(0 0 0.00750036)
(0 0 0.00762355)
(0 0 0.00774622)
(0 0 0.00786832)
(0 0 0.00798981)
(0 0 0.00811064)
(0 0 0.00823079)
(0 0 0.00835019)
(0 0 0.00846882)
(0 0 0.00858661)
(0 0 0.00870352)
(0 0 0.0088195)
(0 0 0.0089345)
(0 0 0.00904847)
(0 0 0.00916136)
(0 0 0.00927312)
(0 0 0.00938369)
(0 0 0.00949301)
(0 0 0.00960104)
(0 0 0.00970772)
(0 0 0.00981298)
(0 0 0.00991678)
(0 0 0.0100191)
(0 0 0.0101197)
(0 0 0.0102188)
(0 0 0.0103162)
(0 0 0.0104118)
(0 0 0.0105056)
(0 0 0.0105975)
(0 0 0.0106875)
(0 0 0.0107755)
(0 0 0.0108615)
(0 0 0.0109454)
(0 0 0.0110272)
(0 0 0.0111068)
(0 0 0.0111841)
(0 0 0.0112591)
(0 0 0.0113317)
(0 0 0.011402)
(0 0 0.0114698)
(0 0 0.0115351)
(0 0 0.0115979)
(0 0 0.0116581)
(0 0 0.0117156)
(0 0 0.0117706)
(0 0 0.0118228)
(0 0 0.0118723)
(0 0 0.011919)
(0 0 0.0119629)
(0 0 0.012004)
(0 0 0.0120423)
(0 0 0.0120777)
(0 0 0.0121101)
(0 0 0.0121397)
(0 0 0.0121664)
(0 0 0.0121901)
(0 0 0.0122109)
(0 0 0.0122287)
(0 0 0.0122435)
(0 0 0.0122554)
(0 0 0.0122644)
(0 0 0.0122703)
(0 0 0.0122733)
(0 0 0.0122734)
(0 0 0.0122705)
(0 0 0.0122647)
(0 0 0.0122559)
(0 0 0.0122443)
(0 0 0.0122298)
(0 0 0.0122125)
(0 0 0.0121923)
(0 0 0.0121693)
(0 0 0.0121436)
(0 0 0.0121151)
(0 0 0.0120839)
(0 0 0.01205)
(0 0 0.0120135)
(0 0 0.0119743)
(0 0 0.0119327)
(0 0 0.0118885)
(0 0 0.0118418)
(0 0 0.0117927)
(0 0 0.0117412)
(0 0 0.0116873)
(0 0 0.0116312)
(0 0 0.0115728)
(0 0 0.0115122)
(0 0 0.0114494)
(0 0 0.0113846)
(0 0 0.0113177)
(0 0 0.0112488)
(0 0 0.0111779)
(0 0 0.0111051)
(0 0 0.0110305)
(0 0 0.0109541)
(0 0 0.010876)
(0 0 0.0107962)
(0 0 0.0107147)
(0 0 0.0106316)
(0 0 0.010547)
(0 0 0.0104609)
(0 0 0.0103734)
(0 0 0.0102845)
(0 0 0.0101942)
(0 0 0.0101027)
(0 0 0.0100099)
(0 0 0.00991595)
(0 0 0.00982082)
(0 0 0.0097246)
(0 0 0.00962733)
(0 0 0.00952904)
(0 0 0.00942979)
(0 0 0.00932961)
(0 0 0.00922855)
(0 0 0.00912666)
(0 0 0.00902396)
(0 0 0.0089205)
(0 0 0.00881632)
(0 0 0.00871145)
(0 0 0.00860594)
(0 0 0.00849981)
(0 0 0.0083931)
(0 0 0.00828585)
(0 0 0.00817808)
(0 0 0.00806984)
(0 0 0.00796114)
(0 0 0.00785202)
(0 0 0.0077425)
(0 0 0.00763263)
(0 0 0.00752241)
(0 0 0.00741188)
(0 0 0.00730106)
(0 0 0.00718998)
(0 0 0.00707865)
(0 0 0.00696711)
(0 0 0.00685536)
(0 0 0.00674344)
(0 0 0.00663135)
(0 0 0.00651913)
(0 0 0.00640678)
(0 0 0.00629432)
(0 0 0.00618178)
(0 0 0.00606915)
(0 0 0.00595647)
(0 0 0.00584373)
(0 0 0.00573096)
(0 0 0.00561817)
(0 0 0.00550536)
(0 0 0.00539256)
(0 0 0.00527976)
(0 0 0.00516698)
(0 0 0.00505422)
(0 0 0.0049415)
(0 0 0.00482882)
(0 0 0.0047162)
(0 0 0.00460362)
(0 0 0.00449111)
(0 0 0.00437866)
(0 0 0.00426629)
(0 0 0.00415399)
(0 0 0.00404176)
(0 0 0.00392962)
(0 0 0.00381757)
(0 0 0.0037056)
(0 0 0.00359372)
(0 0 0.00348193)
(0 0 0.00337023)
(0 0 0.00325863)
(0 0 0.00314712)
(0 0 0.00303569)
(0 0 0.00292437)
(0 0 0.00281313)
(0 0 0.00270198)
(0 0 0.00259093)
(0 0 0.00247996)
(0 0 0.00236907)
(0 0 0.00225827)
(0 0 0.00214755)
(0 0 0.00203691)
(0 0 0.00192635)
(0 0 0.00181586)
(0 0 0.00170544)
(0 0 0.00159509)
(0 0 0.0014848)
(0 0 0.00137456)
(0 0 0.00126439)
(0 0 0.00115426)
(0 0 0.00104419)
(0 0 0.000934155)
(0 0 0.000824162)
(0 0 0.000714203)
(0 0 0.000604274)
(0 0 0.00049437)
(0 0 0.000384488)
(0 0 0.000274623)
(0 0 0.000164769)
(0 0 5.49222e-05)
(0 0 8.01715e-05)
(0 0 0.000240519)
(0 0 0.000400879)
(0 0 0.00056126)
(0 0 0.000721671)
(0 0 0.00088212)
(0 0 0.00104262)
(0 0 0.00120316)
(0 0 0.00136378)
(0 0 0.00152446)
(0 0 0.00168521)
(0 0 0.00184605)
(0 0 0.00200698)
(0 0 0.00216801)
(0 0 0.00232914)
(0 0 0.00249038)
(0 0 0.00265174)
(0 0 0.00281321)
(0 0 0.0029748)
(0 0 0.00313652)
(0 0 0.00329837)
(0 0 0.00346035)
(0 0 0.00362246)
(0 0 0.00378471)
(0 0 0.00394709)
(0 0 0.0041096)
(0 0 0.00427225)
(0 0 0.00443503)
(0 0 0.00459794)
(0 0 0.00476097)
(0 0 0.00492412)
(0 0 0.00508739)
(0 0 0.00525076)
(0 0 0.00541423)
(0 0 0.00557779)
(0 0 0.00574144)
(0 0 0.00590515)
(0 0 0.00606892)
(0 0 0.00623274)
(0 0 0.00639658)
(0 0 0.00656044)
(0 0 0.00672429)
(0 0 0.00688812)
(0 0 0.0070519)
(0 0 0.00721562)
(0 0 0.00737925)
(0 0 0.00754277)
(0 0 0.00770615)
(0 0 0.00786937)
(0 0 0.00803238)
(0 0 0.00819517)
(0 0 0.0083577)
(0 0 0.00851994)
(0 0 0.00868185)
(0 0 0.00884339)
(0 0 0.00900452)
(0 0 0.00916521)
(0 0 0.00932541)
(0 0 0.00948508)
(0 0 0.00964416)
(0 0 0.00980262)
(0 0 0.0099604)
(0 0 0.0101175)
(0 0 0.0102737)
(0 0 0.0104292)
(0 0 0.0105837)
(0 0 0.0107373)
(0 0 0.0108899)
(0 0 0.0110414)
(0 0 0.0111918)
(0 0 0.011341)
(0 0 0.011489)
(0 0 0.0116356)
(0 0 0.0117808)
(0 0 0.0119246)
(0 0 0.0120669)
(0 0 0.0122075)
(0 0 0.0123465)
(0 0 0.0124838)
(0 0 0.0126192)
(0 0 0.0127528)
(0 0 0.0128843)
(0 0 0.0130139)
(0 0 0.0131414)
(0 0 0.0132666)
(0 0 0.0133897)
(0 0 0.0135104)
(0 0 0.0136287)
(0 0 0.0137445)
(0 0 0.0138578)
(0 0 0.0139684)
(0 0 0.0140764)
(0 0 0.0141816)
(0 0 0.014284)
(0 0 0.0143835)
(0 0 0.01448)
(0 0 0.0145735)
(0 0 0.0146639)
(0 0 0.0147511)
(0 0 0.0148352)
(0 0 0.014916)
(0 0 0.0149934)
(0 0 0.0150675)
(0 0 0.0151382)
(0 0 0.0152054)
(0 0 0.0152691)
(0 0 0.0153292)
(0 0 0.0153857)
(0 0 0.0154386)
(0 0 0.0154878)
(0 0 0.0155334)
(0 0 0.0155752)
(0 0 0.0156132)
(0 0 0.0156475)
(0 0 0.0156781)
(0 0 0.0157048)
(0 0 0.0157277)
(0 0 0.0157468)
(0 0 0.0157621)
(0 0 0.0157735)
(0 0 0.0157812)
(0 0 0.015785)
(0 0 0.0157851)
(0 0 0.0157813)
(0 0 0.0157738)
(0 0 0.0157626)
(0 0 0.0157476)
(0 0 0.0157289)
(0 0 0.0157066)
(0 0 0.0156806)
(0 0 0.015651)
(0 0 0.0156178)
(0 0 0.0155812)
(0 0 0.015541)
(0 0 0.0154974)
(0 0 0.0154503)
(0 0 0.0154)
(0 0 0.0153463)
(0 0 0.0152894)
(0 0 0.0152293)
(0 0 0.0151661)
(0 0 0.0150998)
(0 0 0.0150305)
(0 0 0.0149582)
(0 0 0.0148831)
(0 0 0.0148051)
(0 0 0.0147243)
(0 0 0.0146408)
(0 0 0.0145547)
(0 0 0.014466)
(0 0 0.0143748)
(0 0 0.0142812)
(0 0 0.0141852)
(0 0 0.0140869)
(0 0 0.0139863)
(0 0 0.0138836)
(0 0 0.0137788)
(0 0 0.0136719)
(0 0 0.013563)
(0 0 0.0134522)
(0 0 0.0133396)
(0 0 0.0132252)
(0 0 0.0131091)
(0 0 0.0129913)
(0 0 0.0128719)
(0 0 0.012751)
(0 0 0.0126287)
(0 0 0.0125049)
(0 0 0.0123797)
(0 0 0.0122533)
(0 0 0.0121256)
(0 0 0.0119967)
(0 0 0.0118667)
(0 0 0.0117356)
(0 0 0.0116035)
(0 0 0.0114705)
(0 0 0.0113364)
(0 0 0.0112016)
(0 0 0.0110658)
(0 0 0.0109293)
(0 0 0.0107921)
(0 0 0.0106541)
(0 0 0.0105155)
(0 0 0.0103763)
(0 0 0.0102365)
(0 0 0.0100961)
(0 0 0.00995528)
(0 0 0.00981396)
(0 0 0.00967221)
(0 0 0.00953006)
(0 0 0.00938753)
(0 0 0.00924467)
(0 0 0.0091015)
(0 0 0.00895805)
(0 0 0.00881434)
(0 0 0.00867041)
(0 0 0.00852627)
(0 0 0.00838195)
(0 0 0.00823747)
(0 0 0.00809286)
(0 0 0.00794813)
(0 0 0.0078033)
(0 0 0.0076584)
(0 0 0.00751343)
(0 0 0.00736842)
(0 0 0.00722338)
(0 0 0.00707833)
(0 0 0.00693327)
(0 0 0.00678823)
(0 0 0.00664321)
(0 0 0.00649823)
(0 0 0.00635329)
(0 0 0.00620841)
(0 0 0.00606359)
(0 0 0.00591884)
(0 0 0.00577417)
(0 0 0.00562959)
(0 0 0.0054851)
(0 0 0.00534071)
(0 0 0.00519641)
(0 0 0.00505223)
(0 0 0.00490815)
(0 0 0.00476419)
(0 0 0.00462034)
(0 0 0.00447661)
(0 0 0.004333)
(0 0 0.00418951)
(0 0 0.00404613)
(0 0 0.00390288)
(0 0 0.00375974)
(0 0 0.00361673)
(0 0 0.00347382)
(0 0 0.00333104)
(0 0 0.00318837)
(0 0 0.00304581)
(0 0 0.00290335)
(0 0 0.002761)
(0 0 0.00261876)
(0 0 0.00247661)
(0 0 0.00233456)
(0 0 0.00219259)
(0 0 0.00205072)
(0 0 0.00190892)
(0 0 0.0017672)
(0 0 0.00162555)
(0 0 0.00148397)
(0 0 0.00134245)
(0 0 0.00120099)
(0 0 0.00105958)
(0 0 0.000918209)
(0 0 0.000776879)
(0 0 0.000635583)
(0 0 0.000494314)
(0 0 0.000353066)
(0 0 0.000211834)
(0 0 7.06103e-05)
(0 0 9.79788e-05)
(0 0 0.000293942)
(0 0 0.00048992)
(0 0 0.000685925)
(0 0 0.000881966)
(0 0 0.00107805)
(0 0 0.0012742)
(0 0 0.00147041)
(0 0 0.0016667)
(0 0 0.00186307)
(0 0 0.00205953)
(0 0 0.0022561)
(0 0 0.00245278)
(0 0 0.00264958)
(0 0 0.00284651)
(0 0 0.00304357)
(0 0 0.00324077)
(0 0 0.00343812)
(0 0 0.00363561)
(0 0 0.00383326)
(0 0 0.00403107)
(0 0 0.00422904)
(0 0 0.00442718)
(0 0 0.00462548)
(0 0 0.00482395)
(0 0 0.00502258)
(0 0 0.00522137)
(0 0 0.00542033)
(0 0 0.00561945)
(0 0 0.00581872)
(0 0 0.00601814)
(0 0 0.0062177)
(0 0 0.00641739)
(0 0 0.00661721)
(0 0 0.00681714)
(0 0 0.00701717)
(0 0 0.00721729)
(0 0 0.00741748)
(0 0 0.00761773)
(0 0 0.00781802)
(0 0 0.00801832)
(0 0 0.00821862)
(0 0 0.0084189)
(0 0 0.00861913)
(0 0 0.00881928)
(0 0 0.00901932)
(0 0 0.00921923)
(0 0 0.00941897)
(0 0 0.00961852)
(0 0 0.00981782)
(0 0 0.0100169)
(0 0 0.0102156)
(0 0 0.0104139)
(0 0 0.0106119)
(0 0 0.0108094)
(0 0 0.0110064)
(0 0 0.0112029)
(0 0 0.0113988)
(0 0 0.0115941)
(0 0 0.0117886)
(0 0 0.0119824)
(0 0 0.0121753)
(0 0 0.0123674)
(0 0 0.0125585)
(0 0 0.0127486)
(0 0 0.0129376)
(0 0 0.0131254)
(0 0 0.0133121)
(0 0 0.0134974)
(0 0 0.0136813)
(0 0 0.0138638)
(0 0 0.0140448)
(0 0 0.0142241)
(0 0 0.0144018)
(0 0 0.0145776)
(0 0 0.0147517)
(0 0 0.0149237)
(0 0 0.0150937)
(0 0 0.0152616)
(0 0 0.0154273)
(0 0 0.0155907)
(0 0 0.0157517)
(0 0 0.0159102)
(0 0 0.0160661)
(0 0 0.0162194)
(0 0 0.0163699)
(0 0 0.0165176)
(0 0 0.0166623)
(0 0 0.016804)
(0 0 0.0169426)
(0 0 0.017078)
(0 0 0.0172101)
(0 0 0.0173388)
(0 0 0.0174641)
(0 0 0.0175858)
(0 0 0.0177039)
(0 0 0.0178183)
(0 0 0.0179289)
(0 0 0.0180357)
(0 0 0.0181386)
(0 0 0.0182374)
(0 0 0.0183322)
(0 0 0.0184228)
(0 0 0.0185093)
(0 0 0.0185915)
(0 0 0.0186694)
(0 0 0.018743)
(0 0 0.0188122)
(0 0 0.0188769)
(0 0 0.0189371)
(0 0 0.0189928)
(0 0 0.0190439)
(0 0 0.0190905)
(0 0 0.0191325)
(0 0 0.0191698)
(0 0 0.0192025)
(0 0 0.0192305)
(0 0 0.0192538)
(0 0 0.0192725)
(0 0 0.0192865)
(0 0 0.0192959)
(0 0 0.0193005)
(0 0 0.0193006)
(0 0 0.019296)
(0 0 0.0192868)
(0 0 0.019273)
(0 0 0.0192546)
(0 0 0.0192317)
(0 0 0.0192043)
(0 0 0.0191725)
(0 0 0.0191363)
(0 0 0.0190957)
(0 0 0.0190507)
(0 0 0.0190015)
(0 0 0.0189481)
(0 0 0.0188906)
(0 0 0.0188289)
(0 0 0.0187632)
(0 0 0.0186936)
(0 0 0.01862)
(0 0 0.0185426)
(0 0 0.0184615)
(0 0 0.0183766)
(0 0 0.0182882)
(0 0 0.0181962)
(0 0 0.0181007)
(0 0 0.0180019)
(0 0 0.0178997)
(0 0 0.0177943)
(0 0 0.0176858)
(0 0 0.0175742)
(0 0 0.0174597)
(0 0 0.0173422)
(0 0 0.0172219)
(0 0 0.0170988)
(0 0 0.0169731)
(0 0 0.0168449)
(0 0 0.0167141)
(0 0 0.0165809)
(0 0 0.0164454)
(0 0 0.0163076)
(0 0 0.0161677)
(0 0 0.0160256)
(0 0 0.0158815)
(0 0 0.0157355)
(0 0 0.0155876)
(0 0 0.0154379)
(0 0 0.0152865)
(0 0 0.0151334)
(0 0 0.0149788)
(0 0 0.0148226)
(0 0 0.014665)
(0 0 0.014506)
(0 0 0.0143457)
(0 0 0.0141841)
(0 0 0.0140213)
(0 0 0.0138574)
(0 0 0.0136925)
(0 0 0.0135265)
(0 0 0.0133596)
(0 0 0.0131917)
(0 0 0.013023)
(0 0 0.0128535)
(0 0 0.0126833)
(0 0 0.0125123)
(0 0 0.0123407)
(0 0 0.0121685)
(0 0 0.0119957)
(0 0 0.0118224)
(0 0 0.0116486)
(0 0 0.0114743)
(0 0 0.0112997)
(0 0 0.0111246)
(0 0 0.0109493)
(0 0 0.0107736)
(0 0 0.0105976)
(0 0 0.0104214)
(0 0 0.0102449)
(0 0 0.0100683)
(0 0 0.00989151)
(0 0 0.00971458)
(0 0 0.00953753)
(0 0 0.00936039)
(0 0 0.00918318)
(0 0 0.00900591)
(0 0 0.00882861)
(0 0 0.00865129)
(0 0 0.00847398)
(0 0 0.00829668)
(0 0 0.00811941)
(0 0 0.00794219)
(0 0 0.00776502)
(0 0 0.00758792)
(0 0 0.00741091)
(0 0 0.00723398)
(0 0 0.00705715)
(0 0 0.00688042)
(0 0 0.00670381)
(0 0 0.00652732)
(0 0 0.00635096)
(0 0 0.00617473)
(0 0 0.00599863)
(0 0 0.00582267)
(0 0 0.00564685)
(0 0 0.00547118)
(0 0 0.00529565)
(0 0 0.00512027)
(0 0 0.00494503)
(0 0 0.00476994)
(0 0 0.004595)
(0 0 0.00442021)
(0 0 0.00424555)
(0 0 0.00407104)
(0 0 0.00389667)
(0 0 0.00372243)
(0 0 0.00354833)
(0 0 0.00337436)
(0 0 0.00320051)
(0 0 0.00302678)
(0 0 0.00285316)
(0 0 0.00267966)
(0 0 0.00250627)
(0 0 0.00233297)
(0 0 0.00215977)
(0 0 0.00198665)
(0 0 0.00181362)
(0 0 0.00164066)
(0 0 0.00146777)
(0 0 0.00129495)
(0 0 0.00112218)
(0 0 0.000949452)
(0 0 0.000776769)
(0 0 0.000604119)
(0 0 0.000431495)
(0 0 0.000258889)
(0 0 8.62952e-05)
(0 0 0.000115781)
(0 0 0.000347349)
(0 0 0.000578935)
(0 0 0.000810553)
(0 0 0.00104221)
(0 0 0.00127393)
(0 0 0.00150571)
(0 0 0.00173758)
(0 0 0.00196953)
(0 0 0.00220158)
(0 0 0.00243375)
(0 0 0.00266604)
(0 0 0.00289846)
(0 0 0.00313103)
(0 0 0.00336374)
(0 0 0.00359662)
(0 0 0.00382966)
(0 0 0.00406287)
(0 0 0.00429627)
(0 0 0.00452985)
(0 0 0.00476361)
(0 0 0.00499757)
(0 0 0.00523173)
(0 0 0.00546609)
(0 0 0.00570064)
(0 0 0.00593539)
(0 0 0.00617034)
(0 0 0.00640548)
(0 0 0.00664081)
(0 0 0.00687632)
(0 0 0.00711202)
(0 0 0.00734788)
(0 0 0.0075839)
(0 0 0.00782008)
(0 0 0.00805639)
(0 0 0.00829282)
(0 0 0.00852936)
(0 0 0.00876599)
(0 0 0.00900269)
(0 0 0.00923944)
(0 0 0.00947621)
(0 0 0.00971298)
(0 0 0.00994973)
(0 0 0.0101864)
(0 0 0.010423)
(0 0 0.0106595)
(0 0 0.0108959)
(0 0 0.011132)
(0 0 0.0113679)
(0 0 0.0116035)
(0 0 0.0118388)
(0 0 0.0120738)
(0 0 0.0123083)
(0 0 0.0125424)
(0 0 0.0127759)
(0 0 0.0130089)
(0 0 0.0132412)
(0 0 0.0134729)
(0 0 0.0137037)
(0 0 0.0139338)
(0 0 0.0141629)
(0 0 0.0143911)
(0 0 0.0146182)
(0 0 0.0148442)
(0 0 0.0150691)
(0 0 0.0152926)
(0 0 0.0155148)
(0 0 0.0157355)
(0 0 0.0159547)
(0 0 0.0161723)
(0 0 0.0163881)
(0 0 0.0166022)
(0 0 0.0168143)
(0 0 0.0170245)
(0 0 0.0172325)
(0 0 0.0174384)
(0 0 0.0176419)
(0 0 0.0178431)
(0 0 0.0180417)
(0 0 0.0182377)
(0 0 0.018431)
(0 0 0.0186215)
(0 0 0.018809)
(0 0 0.0189935)
(0 0 0.0191749)
(0 0 0.019353)
(0 0 0.0195277)
(0 0 0.0196989)
(0 0 0.0198666)
(0 0 0.0200306)
(0 0 0.0201908)
(0 0 0.0203472)
(0 0 0.0204995)
(0 0 0.0206477)
(0 0 0.0207918)
(0 0 0.0209316)
(0 0 0.0210669)
(0 0 0.0211978)
(0 0 0.0213242)
(0 0 0.0214459)
(0 0 0.0215629)
(0 0 0.0216751)
(0 0 0.0217823)
(0 0 0.0218847)
(0 0 0.0219819)
(0 0 0.0220742)
(0 0 0.0221612)
(0 0 0.022243)
(0 0 0.0223196)
(0 0 0.0223909)
(0 0 0.0224568)
(0 0 0.0225173)
(0 0 0.0225724)
(0 0 0.022622)
(0 0 0.0226662)
(0 0 0.0227048)
(0 0 0.022738)
(0 0 0.0227656)
(0 0 0.0227876)
(0 0 0.0228042)
(0 0 0.0228152)
(0 0 0.0228207)
(0 0 0.0228207)
(0 0 0.0228152)
(0 0 0.0228043)
(0 0 0.0227879)
(0 0 0.0227661)
(0 0 0.022739)
(0 0 0.0227066)
(0 0 0.0226688)
(0 0 0.0226259)
(0 0 0.0225778)
(0 0 0.0225246)
(0 0 0.0224663)
(0 0 0.0224031)
(0 0 0.0223349)
(0 0 0.0222619)
(0 0 0.0221841)
(0 0 0.0221016)
(0 0 0.0220145)
(0 0 0.0219229)
(0 0 0.0218268)
(0 0 0.0217264)
(0 0 0.0216217)
(0 0 0.0215128)
(0 0 0.0213998)
(0 0 0.0212828)
(0 0 0.0211618)
(0 0 0.0210371)
(0 0 0.0209087)
(0 0 0.0207766)
(0 0 0.020641)
(0 0 0.020502)
(0 0 0.0203596)
(0 0 0.020214)
(0 0 0.0200653)
(0 0 0.0199135)
(0 0 0.0197587)
(0 0 0.0196012)
(0 0 0.0194408)
(0 0 0.0192778)
(0 0 0.0191122)
(0 0 0.0189441)
(0 0 0.0187737)
(0 0 0.0186009)
(0 0 0.018426)
(0 0 0.0182489)
(0 0 0.0180698)
(0 0 0.0178887)
(0 0 0.0177058)
(0 0 0.017521)
(0 0 0.0173346)
(0 0 0.0171465)
(0 0 0.0169569)
(0 0 0.0167658)
(0 0 0.0165734)
(0 0 0.0163795)
(0 0 0.0161844)
(0 0 0.0159881)
(0 0 0.0157907)
(0 0 0.0155923)
(0 0 0.0153928)
(0 0 0.0151923)
(0 0 0.014991)
(0 0 0.0147889)
(0 0 0.014586)
(0 0 0.0143823)
(0 0 0.014178)
(0 0 0.0139731)
(0 0 0.0137676)
(0 0 0.0135616)
(0 0 0.0133551)
(0 0 0.0131481)
(0 0 0.0129408)
(0 0 0.012733)
(0 0 0.012525)
(0 0 0.0123167)
(0 0 0.0121081)
(0 0 0.0118993)
(0 0 0.0116903)
(0 0 0.0114811)
(0 0 0.0112719)
(0 0 0.0110625)
(0 0 0.010853)
(0 0 0.0106434)