/*--------------------------------*- C++ -*----------------------------------*\
| =========                 |                                                 |
| \\      /  F ield         | OpenFOAM: The Open Source CFD Toolbox           |
|  \\    /   O peration     | Version:  v2012                                 |
|   \\  /    A nd           | Website:  www.openfoam.com                      |
|    \\/     M anipulation  |                                                 |
\*---------------------------------------------------------------------------*/
FoamFile
{
    version     2.0;
    format      ascii;
    class       volScalarField;
    location    "12.5";
    object      W;
}
// * * * * * * * * * * * * * * * * * * * * * * * * * * * * * * * * * * * * * //

dimensions      [0 0 -1 0 0 0 0];


internalField   nonuniform List<scalar> 
65536
(
3.53005e-16
3.61162e-16
3.77833e-16
4.0333e-16
4.38136e-16
4.8291e-16
5.38493e-16
6.05928e-16
6.86472e-16
7.81618e-16
8.93115e-16
1.023e-15
1.17361e-15
1.34766e-15
1.54822e-15
1.7788e-15
2.0434e-15
2.34655e-15
2.69335e-15
3.08958e-15
3.54176e-15
4.0572e-15
4.64413e-15
5.31176e-15
6.07043e-15
6.93168e-15
7.90842e-15
9.01503e-15
1.02675e-14
1.16838e-14
1.32835e-14
1.50887e-14
1.71237e-14
1.94155e-14
2.19937e-14
2.48911e-14
2.81438e-14
3.17916e-14
3.58781e-14
4.0451e-14
4.55628e-14
5.12707e-14
5.7637e-14
6.47299e-14
7.26233e-14
8.13976e-14
9.11398e-14
1.01944e-13
1.13913e-13
1.27155e-13
1.4179e-13
1.57943e-13
1.75751e-13
1.9536e-13
2.16924e-13
2.4061e-13
2.66593e-13
2.95061e-13
3.2621e-13
3.60251e-13
3.97403e-13
4.37897e-13
4.81976e-13
5.29893e-13
5.81914e-13
6.38313e-13
6.99375e-13
7.65397e-13
8.36682e-13
9.13542e-13
9.96299e-13
1.08528e-12
1.18081e-12
1.28324e-12
1.39289e-12
1.51012e-12
1.63526e-12
1.76864e-12
1.91061e-12
2.06149e-12
2.2216e-12
2.39126e-12
2.57074e-12
2.76035e-12
2.96034e-12
3.17095e-12
3.39241e-12
3.62491e-12
3.86862e-12
4.12368e-12
4.39018e-12
4.6682e-12
4.95777e-12
5.25888e-12
5.57147e-12
5.89545e-12
6.23066e-12
6.57692e-12
6.93398e-12
7.30155e-12
7.67926e-12
8.06672e-12
8.46347e-12
8.86898e-12
9.28268e-12
9.70394e-12
1.01321e-11
1.05663e-11
1.10058e-11
1.14498e-11
1.18973e-11
1.23473e-11
1.27988e-11
1.32508e-11
1.37019e-11
1.41512e-11
1.45973e-11
1.50389e-11
1.54747e-11
1.59033e-11
1.63233e-11
1.67332e-11
1.71315e-11
1.75168e-11
1.78873e-11
1.82417e-11
1.85783e-11
1.88954e-11
1.91916e-11
1.94651e-11
1.97145e-11
1.99381e-11
2.01344e-11
2.0302e-11
2.04393e-11
2.0545e-11
2.06178e-11
2.06566e-11
2.06601e-11
2.06274e-11
2.05576e-11
2.04501e-11
2.03044e-11
2.012e-11
1.9897e-11
1.96352e-11
1.9335e-11
1.89971e-11
1.86221e-11
1.82112e-11
1.77658e-11
1.72873e-11
1.67777e-11
1.62392e-11
1.56741e-11
1.50853e-11
1.44755e-11
1.38479e-11
1.32058e-11
1.25527e-11
1.18922e-11
1.12279e-11
1.05637e-11
9.90322e-12
9.25019e-12
8.60825e-12
7.98087e-12
7.3714e-12
6.78294e-12
6.21837e-12
5.68027e-12
5.17093e-12
4.69229e-12
4.24598e-12
3.83322e-12
3.45492e-12
3.11158e-12
2.80338e-12
2.53014e-12
2.29135e-12
2.08617e-12
1.91349e-12
1.7719e-12
1.65974e-12
1.57514e-12
1.51598e-12
1.47999e-12
1.46473e-12
1.4676e-12
1.48591e-12
1.51688e-12
1.55769e-12
1.6055e-12
1.65748e-12
1.71088e-12
1.76306e-12
1.81153e-12
1.85401e-12
1.88847e-12
1.91314e-12
1.92662e-12
1.92785e-12
1.91614e-12
1.8912e-12
1.85312e-12
1.80236e-12
1.73972e-12
1.66631e-12
1.58351e-12
1.49288e-12
1.39614e-12
1.29506e-12
1.19145e-12
1.08705e-12
9.83535e-13
8.82392e-13
7.84944e-13
6.92304e-13
6.05355e-13
5.24755e-13
4.50935e-13
3.84114e-13
3.2432e-13
2.71417e-13
2.25127e-13
1.85067e-13
1.50773e-13
1.21729e-13
9.73912e-14
7.72125e-14
6.06569e-14
4.72152e-14
3.64147e-14
2.7826e-14
2.10662e-14
1.58005e-14
1.17406e-14
8.64226e-15
6.30188e-15
4.55201e-15
3.25697e-15
2.30827e-15
1.62035e-15
1.12659e-15
7.75792e-16
5.29098e-16
3.57382e-16
2.39082e-16
1.58427e-16
1.04026e-16
6.77557e-17
4.39015e-17
2.85103e-17
1.89092e-17
1.33613e-17
1.08292e-17
5.28255e-16
5.40452e-16
5.65395e-16
6.03552e-16
6.55643e-16
7.22654e-16
8.05847e-16
9.06784e-16
1.02735e-15
1.16978e-15
1.33669e-15
1.53114e-15
1.75664e-15
2.01723e-15
2.31754e-15
2.66282e-15
3.05905e-15
3.51303e-15
4.0324e-15
4.62583e-15
5.30306e-15
6.07506e-15
6.95413e-15
7.95408e-15
9.09037e-15
1.03803e-14
1.18431e-14
1.35004e-14
1.5376e-14
1.74967e-14
1.98919e-14
2.25945e-14
2.56408e-14
2.90708e-14
3.29288e-14
3.72638e-14
4.21292e-14
4.75843e-14
5.36936e-14
6.05282e-14
6.81655e-14
7.66903e-14
8.61947e-14
9.67791e-14
1.08553e-13
1.21633e-13
1.36149e-13
1.52237e-13
1.70048e-13
1.8974e-13
2.11487e-13
2.35471e-13
2.61891e-13
2.90956e-13
3.22889e-13
3.57928e-13
3.96325e-13
4.38346e-13
4.8427e-13
5.34394e-13
5.89025e-13
6.48488e-13
7.1312e-13
7.83271e-13
8.59305e-13
9.41598e-13
1.03054e-12
1.12652e-12
1.22995e-12
1.34124e-12
1.46081e-12
1.58909e-12
1.7265e-12
1.87346e-12
2.0304e-12
2.19774e-12
2.37589e-12
2.56524e-12
2.76619e-12
2.97911e-12
3.20434e-12
3.44221e-12
3.69302e-12
3.95706e-12
4.23454e-12
4.52569e-12
4.83065e-12
5.14955e-12
5.48246e-12
5.82941e-12
6.19036e-12
6.56523e-12
6.95389e-12
7.35612e-12
7.77167e-12
8.20021e-12
8.64136e-12
9.09464e-12
9.55955e-12
1.00355e-11
1.05218e-11
1.10177e-11
1.15225e-11
1.20353e-11
1.25552e-11
1.30811e-11
1.36121e-11
1.4147e-11
1.46846e-11
1.52238e-11
1.57632e-11
1.63015e-11
1.68374e-11
1.73693e-11
1.7896e-11
1.84157e-11
1.89271e-11
1.94284e-11
1.99182e-11
2.03949e-11
2.08566e-11
2.13019e-11
2.17289e-11
2.21361e-11
2.25218e-11
2.28842e-11
2.32218e-11
2.35328e-11
2.38156e-11
2.40686e-11
2.42902e-11
2.4479e-11
2.46335e-11
2.47522e-11
2.48339e-11
2.48773e-11
2.48814e-11
2.48451e-11
2.47675e-11
2.46479e-11
2.44858e-11
2.42808e-11
2.40326e-11
2.37414e-11
2.34072e-11
2.30306e-11
2.26124e-11
2.21534e-11
2.1655e-11
2.11186e-11
2.05462e-11
1.99397e-11
1.93015e-11
1.86344e-11
1.79411e-11
1.72249e-11
1.64892e-11
1.57375e-11
1.49735e-11
1.42013e-11
1.34248e-11
1.2648e-11
1.18751e-11
1.11101e-11
1.0357e-11
9.6197e-12
8.90183e-12
8.2069e-12
7.53816e-12
6.89856e-12
6.29072e-12
5.71691e-12
5.17906e-12
4.67868e-12
4.2169e-12
3.79448e-12
3.41175e-12
3.06869e-12
2.76489e-12
2.4996e-12
2.27174e-12
2.07991e-12
1.92245e-12
1.79742e-12
1.70265e-12
1.63576e-12
1.59418e-12
1.57519e-12
1.57593e-12
1.59344e-12
1.62469e-12
1.6666e-12
1.71609e-12
1.77011e-12
1.82572e-12
1.88007e-12
1.9305e-12
1.97458e-12
2.01014e-12
2.03533e-12
2.04865e-12
2.04898e-12
2.03562e-12
2.00825e-12
1.96699e-12
1.91235e-12
1.84518e-12
1.76667e-12
1.67828e-12
1.58168e-12
1.47869e-12
1.3712e-12
1.2611e-12
1.15026e-12
1.04043e-12
9.33172e-13
8.29894e-13
7.31758e-13
6.39695e-13
5.54389e-13
4.76289e-13
4.05619e-13
3.42404e-13
2.86491e-13
2.37583e-13
1.95269e-13
1.59054e-13
1.28392e-13
1.02704e-13
8.14112e-14
6.39451e-14
4.97671e-14
3.83772e-14
2.93214e-14
2.21954e-14
1.66453e-14
1.23667e-14
9.10208e-15
6.63642e-15
4.79314e-15
3.42913e-15
2.43004e-15
1.70567e-15
1.1858e-15
8.16495e-16
5.56812e-16
3.76072e-16
2.51566e-16
1.66688e-16
1.09443e-16
7.12791e-17
4.61815e-17
2.9989e-17
1.98887e-17
1.40526e-17
1.13894e-17
9.56165e-16
9.78231e-16
1.02338e-15
1.09246e-15
1.18678e-15
1.30811e-15
1.45874e-15
1.64152e-15
1.85985e-15
2.1178e-15
2.42011e-15
2.77231e-15
3.18079e-15
3.65286e-15
4.19692e-15
4.82251e-15
5.54047e-15
6.3631e-15
7.30429e-15
8.37975e-15
9.60713e-15
1.10063e-14
1.25996e-14
1.4412e-14
1.64716e-14
1.88096e-14
2.1461e-14
2.44646e-14
2.78639e-14
3.1707e-14
3.60473e-14
4.09441e-14
4.64627e-14
5.26757e-14
5.96628e-14
6.75118e-14
7.63194e-14
8.61918e-14
9.7245e-14
1.09606e-13
1.23414e-13
1.38821e-13
1.5599e-13
1.75101e-13
1.96348e-13
2.1994e-13
2.46104e-13
2.75085e-13
3.07144e-13
3.42563e-13
3.81644e-13
4.24708e-13
4.721e-13
5.24184e-13
5.81347e-13
6.43998e-13
7.12569e-13
7.87514e-13
8.6931e-13
9.58455e-13
1.05547e-12
1.16089e-12
1.27528e-12
1.39922e-12
1.5333e-12
1.67812e-12
1.83432e-12
2.00251e-12
2.18334e-12
2.37745e-12
2.58548e-12
2.80806e-12
3.04582e-12
3.29939e-12
3.56937e-12
3.85632e-12
4.16081e-12
4.48335e-12
4.82443e-12
5.18448e-12
5.56389e-12
5.963e-12
6.38208e-12
6.82134e-12
7.28091e-12
7.76086e-12
8.26117e-12
8.78173e-12
9.32234e-12
9.88272e-12
1.04625e-11
1.10611e-11
1.16781e-11
1.23126e-11
1.2964e-11
1.36313e-11
1.43136e-11
1.50096e-11
1.57183e-11
1.64383e-11
1.71682e-11
1.79065e-11
1.86517e-11
1.94021e-11
2.0156e-11
2.09115e-11
2.16669e-11
2.24201e-11
2.31693e-11
2.39124e-11
2.46473e-11
2.53719e-11
2.60842e-11
2.67821e-11
2.74633e-11
2.81257e-11
2.87673e-11
2.93858e-11
2.99793e-11
3.05455e-11
3.10824e-11
3.15881e-11
3.20605e-11
3.24978e-11
3.28979e-11
3.32591e-11
3.35797e-11
3.3858e-11
3.40923e-11
3.42812e-11
3.44232e-11
3.45169e-11
3.45613e-11
3.45552e-11
3.44977e-11
3.43879e-11
3.42253e-11
3.40092e-11
3.37395e-11
3.3416e-11
3.30388e-11
3.26083e-11
3.2125e-11
3.15897e-11
3.10035e-11
3.03678e-11
2.96841e-11
2.89544e-11
2.81809e-11
2.73662e-11
2.6513e-11
2.56244e-11
2.47039e-11
2.3755e-11
2.27818e-11
2.17884e-11
2.07791e-11
1.97584e-11
1.87311e-11
1.7702e-11
1.66757e-11
1.56573e-11
1.46514e-11
1.36627e-11
1.26957e-11
1.17549e-11
1.08443e-11
9.96759e-12
9.12833e-12
8.32956e-12
7.57395e-12
6.86372e-12
6.20067e-12
5.58611e-12
5.02091e-12
4.50548e-12
4.03977e-12
3.62331e-12
3.25521e-12
2.93419e-12
2.65863e-12
2.42657e-12
2.23575e-12
2.08363e-12
1.96745e-12
1.88423e-12
1.83081e-12
1.80388e-12
1.80002e-12
1.81571e-12
1.84736e-12
1.8914e-12
1.94424e-12
2.00239e-12
2.06245e-12
2.12118e-12
2.17558e-12
2.22289e-12
2.26068e-12
2.28687e-12
2.29981e-12
2.29826e-12
2.28145e-12
2.24906e-12
2.20124e-12
2.13858e-12
2.06206e-12
1.97304e-12
1.87314e-12
1.76425e-12
1.6484e-12
1.5277e-12
1.40427e-12
1.28017e-12
1.15734e-12
1.03752e-12
9.22251e-13
8.12819e-13
7.10241e-13
6.15263e-13
5.28368e-13
4.49792e-13
3.79546e-13
3.17449e-13
2.63162e-13
2.16217e-13
1.76059e-13
1.42073e-13
1.13613e-13
9.00318e-14
7.06961e-14
5.50062e-14
4.24061e-14
3.23914e-14
2.45133e-14
1.83793e-14
1.3652e-14
1.00459e-14
7.32305e-15
5.28802e-15
3.78247e-15
2.67995e-15
1.88076e-15
1.30731e-15
9.00022e-16
6.13682e-16
4.14424e-16
2.77183e-16
1.83638e-16
1.20557e-16
7.85082e-17
5.08594e-17
3.3023e-17
2.18983e-17
1.54708e-17
1.2538e-17
1.82094e-15
1.86297e-15
1.94899e-15
2.0806e-15
2.26029e-15
2.49148e-15
2.77852e-15
3.12683e-15
3.54292e-15
4.03453e-15
4.61075e-15
5.28212e-15
6.06083e-15
6.96087e-15
7.99823e-15
9.19114e-15
1.05603e-14
1.21292e-14
1.39244e-14
1.59758e-14
1.83171e-14
2.09864e-14
2.40261e-14
2.7484e-14
3.14136e-14
3.58745e-14
4.09334e-14
4.66645e-14
5.31503e-14
6.04827e-14
6.87633e-14
7.81049e-14
8.8632e-14
1.00482e-13
1.13807e-13
1.28774e-13
1.45565e-13
1.64383e-13
1.85446e-13
2.08996e-13
2.35295e-13
2.64628e-13
2.97306e-13
3.33665e-13
3.7407e-13
4.18913e-13
4.6862e-13
5.23646e-13
5.8448e-13
6.51646e-13
7.25704e-13
8.07248e-13
8.96913e-13
9.95369e-13
1.10332e-12
1.22153e-12
1.35076e-12
1.49185e-12
1.64565e-12
1.81306e-12
1.995e-12
2.19243e-12
2.40633e-12
2.63771e-12
2.8876e-12
3.15705e-12
3.44711e-12
3.75885e-12
4.09331e-12
4.45156e-12
4.83462e-12
5.24352e-12
5.67922e-12
6.14267e-12
6.63476e-12
7.1563e-12
7.70806e-12
8.2907e-12
8.90482e-12
9.5509e-12
1.02293e-11
1.09403e-11
1.1684e-11
1.24603e-11
1.32691e-11
1.41102e-11
1.49829e-11
1.58866e-11
1.68205e-11
1.77835e-11
1.87746e-11
1.97922e-11
2.08349e-11
2.19009e-11
2.29883e-11
2.4095e-11
2.52187e-11
2.63571e-11
2.75075e-11
2.86673e-11
2.98336e-11
3.10035e-11
3.21739e-11
3.33416e-11
3.45035e-11
3.56561e-11
3.67963e-11
3.79205e-11
3.90255e-11
4.01078e-11
4.1164e-11
4.21909e-11
4.3185e-11
4.41431e-11
4.50621e-11
4.59389e-11
4.67703e-11
4.75536e-11
4.8286e-11
4.89647e-11
4.95871e-11
5.0151e-11
5.0654e-11
5.1094e-11
5.14691e-11
5.17774e-11
5.20173e-11
5.21873e-11
5.22862e-11
5.23128e-11
5.22662e-11
5.21457e-11
5.19508e-11
5.16811e-11
5.13366e-11
5.09173e-11
5.04236e-11
4.9856e-11
4.92155e-11
4.85032e-11
4.77203e-11
4.68686e-11
4.595e-11
4.49668e-11
4.39215e-11
4.2817e-11
4.16566e-11
4.04436e-11
3.9182e-11
3.7876e-11
3.653e-11
3.51487e-11
3.37373e-11
3.2301e-11
3.08453e-11
2.9376e-11
2.78991e-11
2.64204e-11
2.4946e-11
2.34822e-11
2.20349e-11
2.061e-11
1.92135e-11
1.78508e-11
1.65274e-11
1.52481e-11
1.40176e-11
1.284e-11
1.1719e-11
1.06578e-11
9.65908e-12
8.72478e-12
7.85645e-12
7.05499e-12
6.32075e-12
5.65351e-12
5.05252e-12
4.51653e-12
4.04381e-12
3.6322e-12
3.27914e-12
2.98172e-12
2.73668e-12
2.54053e-12
2.38949e-12
2.27962e-12
2.20678e-12
2.16672e-12
2.15508e-12
2.16744e-12
2.19937e-12
2.24643e-12
2.30428e-12
2.36867e-12
2.43552e-12
2.50096e-12
2.56142e-12
2.61364e-12
2.65478e-12
2.68242e-12
2.69463e-12
2.68999e-12
2.66764e-12
2.62725e-12
2.56903e-12
2.49369e-12
2.40241e-12
2.2968e-12
2.17878e-12
2.05055e-12
1.91448e-12
1.77302e-12
1.62864e-12
1.48372e-12
1.34048e-12
1.20095e-12
1.06688e-12
9.39739e-13
8.20679e-13
7.10545e-13
6.09871e-13
5.1891e-13
4.37654e-13
3.65877e-13
3.03169e-13
2.48978e-13
2.0265e-13
1.63463e-13
1.30667e-13
1.03507e-13
8.12474e-14
6.31936e-14
4.87016e-14
3.71881e-14
2.81346e-14
2.10881e-14
1.56596e-14
1.152e-14
8.39542e-15
6.06085e-15
4.33423e-15
3.07017e-15
2.15413e-15
1.49702e-15
1.03042e-15
7.02457e-16
4.74287e-16
3.17167e-16
2.10093e-16
1.37902e-16
8.97901e-17
5.81594e-17
3.77573e-17
2.50341e-17
1.76838e-17
1.433e-17
3.48255e-15
3.56297e-15
3.72758e-15
3.97943e-15
4.32333e-15
4.76579e-15
5.31519e-15
5.9819e-15
6.77842e-15
7.7196e-15
8.82284e-15
1.01084e-14
1.15996e-14
1.33234e-14
1.53103e-14
1.75955e-14
2.02185e-14
2.32245e-14
2.66643e-14
3.05955e-14
3.50827e-14
4.01987e-14
4.60253e-14
5.26539e-14
6.01871e-14
6.87394e-14
7.84385e-14
8.94266e-14
1.01862e-13
1.15921e-13
1.31797e-13
1.49707e-13
1.69889e-13
1.92607e-13
2.18149e-13
2.46835e-13
2.79015e-13
3.15072e-13
3.55425e-13
4.00533e-13
4.50894e-13
5.07052e-13
5.69594e-13
6.3916e-13
7.16438e-13
8.02172e-13
8.97162e-13
1.00227e-12
1.11841e-12
1.24656e-12
1.38778e-12
1.54318e-12
1.71393e-12
1.90127e-12
2.10653e-12
2.33108e-12
2.57635e-12
2.84386e-12
3.13516e-12
3.45188e-12
3.79568e-12
4.16828e-12
4.57144e-12
5.00692e-12
5.47654e-12
5.98212e-12
6.52546e-12
7.10838e-12
7.73265e-12
8.40001e-12
9.11215e-12
9.87068e-12
1.06771e-11
1.15329e-11
1.24393e-11
1.33974e-11
1.44083e-11
1.54728e-11
1.65914e-11
1.77645e-11
1.89923e-11
2.02747e-11
2.16113e-11
2.30014e-11
2.44441e-11
2.5938e-11
2.74816e-11
2.9073e-11
3.07099e-11
3.23898e-11
3.41097e-11
3.58665e-11
3.76566e-11
3.94761e-11
4.13209e-11
4.31866e-11
4.50684e-11
4.69616e-11
4.88609e-11
5.0761e-11
5.26564e-11
5.45415e-11
5.64107e-11
5.8258e-11
6.00776e-11
6.18638e-11
6.36107e-11
6.53125e-11
6.69635e-11
6.85583e-11
7.00912e-11
7.15572e-11
7.29512e-11
7.42683e-11
7.55038e-11
7.66536e-11
7.77135e-11
7.86796e-11
7.95487e-11
8.03174e-11
8.09828e-11
8.15426e-11
8.19944e-11
8.23363e-11
8.25668e-11
8.26847e-11
8.26891e-11
8.25793e-11
8.23551e-11
8.20166e-11
8.15641e-11
8.09984e-11
8.03205e-11
7.95317e-11
7.86337e-11
7.76284e-11
7.65181e-11
7.53055e-11
7.39936e-11
7.25855e-11
7.1085e-11
6.94959e-11
6.78226e-11
6.60698e-11
6.42424e-11
6.23458e-11
6.03856e-11
5.8368e-11
5.62991e-11
5.41858e-11
5.2035e-11
4.98539e-11
4.76499e-11
4.54308e-11
4.32044e-11
4.09787e-11
3.87616e-11
3.65614e-11
3.43858e-11
3.22429e-11
3.01404e-11
2.80856e-11
2.60857e-11
2.41473e-11
2.22768e-11
2.04799e-11
1.87616e-11
1.71265e-11
1.55784e-11
1.41203e-11
1.27547e-11
1.14832e-11
1.03065e-11
9.22495e-12
8.23783e-12
7.34389e-12
6.54123e-12
5.8273e-12
5.19904e-12
4.65288e-12
4.1848e-12
3.79038e-12
3.46491e-12
3.20335e-12
3.00047e-12
2.85082e-12
2.74883e-12
2.68883e-12
2.66509e-12
2.67188e-12
2.70347e-12
2.75425e-12
2.8187e-12
2.89151e-12
2.96761e-12
3.04222e-12
3.11096e-12
3.16986e-12
3.21547e-12
3.24488e-12
3.25579e-12
3.24653e-12
3.21609e-12
3.16412e-12
3.09093e-12
2.99742e-12
2.88505e-12
2.75576e-12
2.61191e-12
2.45614e-12
2.29131e-12
2.12036e-12
1.94623e-12
1.77175e-12
1.59958e-12
1.4321e-12
1.27138e-12
1.11915e-12
9.76759e-13
8.45173e-13
7.25006e-13
6.16528e-13
5.19706e-13
4.34246e-13
3.5964e-13
2.95212e-13
2.40168e-13
1.93639e-13
1.54722e-13
1.2251e-13
9.61253e-14
7.47365e-14
5.75759e-14
4.39487e-14
3.32379e-14
2.4905e-14
1.8488e-14
1.35966e-14
9.90591e-15
7.14931e-15
5.11124e-15
3.61964e-15
2.53904e-15
1.7641e-15
1.21398e-15
8.2742e-16
5.58546e-16
3.73441e-16
2.47323e-16
1.62311e-16
1.05665e-16
6.84309e-17
4.44184e-17
2.94458e-17
2.07969e-17
1.68509e-17
6.60628e-15
6.75895e-15
7.07145e-15
7.54962e-15
8.20254e-15
9.04266e-15
1.00859e-14
1.1352e-14
1.28648e-14
1.46525e-14
1.67482e-14
1.91905e-14
2.20239e-14
2.52994e-14
2.90756e-14
3.34189e-14
3.84052e-14
4.412e-14
5.06605e-14
5.8136e-14
6.66698e-14
7.64006e-14
8.74839e-14
1.00094e-13
1.14426e-13
1.30699e-13
1.49155e-13
1.70064e-13
1.93729e-13
2.20484e-13
2.50699e-13
2.84784e-13
3.23193e-13
3.66426e-13
4.15033e-13
4.69619e-13
5.30847e-13
5.99445e-13
6.76207e-13
7.62e-13
8.57767e-13
9.64534e-13
1.08341e-12
1.2156e-12
1.36241e-12
1.52522e-12
1.70554e-12
1.90498e-12
2.12527e-12
2.36822e-12
2.6358e-12
2.93007e-12
3.25321e-12
3.60753e-12
3.99544e-12
4.41946e-12
4.88225e-12
5.38654e-12
5.93517e-12
6.53105e-12
7.17719e-12
7.87665e-12
8.63254e-12
9.448e-12
1.03262e-11
1.12702e-11
1.22832e-11
1.33683e-11
1.45283e-11
1.57661e-11
1.70845e-11
1.8486e-11
1.99729e-11
2.15473e-11
2.32109e-11
2.49652e-11
2.68114e-11
2.87502e-11
3.07819e-11
3.29064e-11
3.5123e-11
3.74306e-11
3.98275e-11
4.23116e-11
4.488e-11
4.75293e-11
5.02555e-11
5.30541e-11
5.59198e-11
5.88469e-11
6.18291e-11
6.48593e-11
6.79302e-11
7.10339e-11
7.41618e-11
7.73052e-11
8.04548e-11
8.36011e-11
8.67343e-11
8.98444e-11
9.29211e-11
9.59541e-11
9.89332e-11
1.01848e-10
1.04689e-10
1.07445e-10
1.10107e-10
1.12665e-10
1.1511e-10
1.17434e-10
1.19627e-10
1.21683e-10
1.23593e-10
1.25351e-10
1.26951e-10
1.28388e-10
1.29655e-10
1.30749e-10
1.31666e-10
1.32403e-10
1.32958e-10
1.33328e-10
1.33513e-10
1.33512e-10
1.33325e-10
1.32953e-10
1.32397e-10
1.31658e-10
1.30739e-10
1.29643e-10
1.28374e-10
1.26934e-10
1.25328e-10
1.2356e-10
1.21637e-10
1.19562e-10
1.17343e-10
1.14985e-10
1.12495e-10
1.0988e-10
1.07147e-10
1.04305e-10
1.01361e-10
9.83232e-11
9.52015e-11
9.20044e-11
8.87414e-11
8.54224e-11
8.20572e-11
7.86563e-11
7.523e-11
7.1789e-11
6.83443e-11
6.49066e-11
6.1487e-11
5.80964e-11
5.47456e-11
5.14452e-11
4.82056e-11
4.5037e-11
4.1949e-11
3.89507e-11
3.60507e-11
3.32569e-11
3.05765e-11
2.80159e-11
2.55805e-11
2.32749e-11
2.11028e-11
1.90667e-11
1.71683e-11
1.54082e-11
1.37861e-11
1.23008e-11
1.095e-11
9.73072e-12
8.63916e-12
7.67078e-12
6.82042e-12
6.08234e-12
5.45034e-12
4.91778e-12
4.47772e-12
4.12292e-12
3.84597e-12
3.6393e-12
3.49526e-12
3.40615e-12
3.3643e-12
3.3621e-12
3.39207e-12
3.44687e-12
3.51941e-12
3.60288e-12
3.69084e-12
3.77727e-12
3.85667e-12
3.9241e-12
3.97528e-12
4.00664e-12
4.01536e-12
3.99944e-12
3.95769e-12
3.88974e-12
3.796e-12
3.67764e-12
3.5365e-12
3.37501e-12
3.19608e-12
3.00296e-12
2.79917e-12
2.5883e-12
2.37393e-12
2.15953e-12
1.94829e-12
1.74309e-12
1.54644e-12
1.3604e-12
1.18657e-12
1.0261e-12
8.7969e-13
7.47644e-13
6.29886e-13
5.26031e-13
4.35433e-13
3.5725e-13
2.90501e-13
2.34113e-13
1.86979e-13
1.47988e-13
1.16068e-13
9.02064e-14
6.94672e-14
5.30061e-14
4.00738e-14
3.00169e-14
2.22756e-14
1.63771e-14
1.1928e-14
8.60625e-15
6.15116e-15
4.35495e-15
3.05406e-15
2.12142e-15
1.45954e-15
9.94572e-16
6.71242e-16
4.487e-16
2.97109e-16
1.9495e-16
1.26891e-16
8.21632e-17
5.33231e-17
3.5343e-17
2.4958e-17
2.02203e-17
1.23921e-14
1.26787e-14
1.32655e-14
1.41634e-14
1.53895e-14
1.69672e-14
1.89266e-14
2.13048e-14
2.41465e-14
2.7505e-14
3.14428e-14
3.60323e-14
4.13574e-14
4.75144e-14
5.46134e-14
6.27797e-14
7.21562e-14
8.29043e-14
9.52068e-14
1.0927e-13
1.25327e-13
1.43638e-13
1.64496e-13
1.88231e-13
2.15211e-13
2.45846e-13
2.80594e-13
3.19966e-13
3.6453e-13
4.14915e-13
4.71819e-13
5.36016e-13
6.08357e-13
6.89785e-13
7.81333e-13
8.84139e-13
9.99451e-13
1.12863e-12
1.27318e-12
1.43471e-12
1.61499e-12
1.81595e-12
2.03967e-12
2.28838e-12
2.56452e-12
2.87068e-12
3.20967e-12
3.58446e-12
3.99826e-12
4.45445e-12
4.95665e-12
5.50865e-12
6.11447e-12
6.77835e-12
7.50468e-12
8.2981e-12
9.16338e-12
1.01055e-11
1.11295e-11
1.22408e-11
1.34445e-11
1.47462e-11
1.61514e-11
1.76654e-11
1.92939e-11
2.1042e-11
2.29153e-11
2.49186e-11
2.7057e-11
2.93351e-11
3.1757e-11
3.43267e-11
3.70476e-11
3.99225e-11
4.29536e-11
4.61427e-11
4.94906e-11
5.29973e-11
5.66622e-11
6.04836e-11
6.44588e-11
6.85842e-11
7.28553e-11
7.72663e-11
8.18105e-11
8.648e-11
9.12658e-11
9.61579e-11
1.01145e-10
1.06216e-10
1.11356e-10
1.16552e-10
1.2179e-10
1.27052e-10
1.32324e-10
1.37587e-10
1.42825e-10
1.4802e-10
1.53153e-10
1.58206e-10
1.63161e-10
1.68e-10
1.72704e-10
1.77256e-10
1.81638e-10
1.85835e-10
1.8983e-10
1.93608e-10
1.97155e-10
2.00457e-10
2.03503e-10
2.06281e-10
2.08781e-10
2.10994e-10
2.12914e-10
2.14533e-10
2.15847e-10
2.16853e-10
2.17546e-10
2.17927e-10
2.17995e-10
2.17751e-10
2.17198e-10
2.16338e-10
2.15176e-10
2.13717e-10
2.11968e-10
2.09934e-10
2.07624e-10
2.05047e-10
2.02211e-10
1.99126e-10
1.95802e-10
1.9225e-10
1.88483e-10
1.8451e-10
1.80345e-10
1.75999e-10
1.71487e-10
1.66821e-10
1.62014e-10
1.5708e-10
1.52034e-10
1.4689e-10
1.41661e-10
1.36364e-10
1.31013e-10
1.25622e-10
1.20208e-10
1.14785e-10
1.09369e-10
1.03974e-10
9.86169e-11
9.33119e-11
8.8074e-11
8.29177e-11
7.78573e-11
7.29065e-11
6.80785e-11
6.33857e-11
5.884e-11
5.44522e-11
5.02323e-11
4.61891e-11
4.23305e-11
3.86631e-11
3.51922e-11
3.19218e-11
2.88546e-11
2.59921e-11
2.33343e-11
2.088e-11
1.86266e-11
1.65705e-11
1.47069e-11
1.30299e-11
1.15327e-11
1.02077e-11
9.04656e-12
8.04031e-12
7.17948e-12
6.45418e-12
5.85423e-12
5.36924e-12
4.98867e-12
4.70193e-12
4.49844e-12
4.36768e-12
4.29929e-12
4.28307e-12
4.30906e-12
4.36764e-12
4.44954e-12
4.54594e-12
4.64854e-12
4.74965e-12
4.84227e-12
4.92017e-12
4.97797e-12
5.01121e-12
5.01643e-12
4.99115e-12
4.93395e-12
4.84443e-12
4.72318e-12
4.5717e-12
4.39235e-12
4.18817e-12
3.96283e-12
3.72038e-12
3.46519e-12
3.20172e-12
2.9344e-12
2.66747e-12
2.40488e-12
2.15016e-12
1.90635e-12
1.67595e-12
1.46091e-12
1.26259e-12
1.08183e-12
9.18931e-13
7.73781e-13
6.45866e-13
5.34362e-13
4.38205e-13
3.56164e-13
2.86902e-13
2.2904e-13
1.81203e-13
1.42062e-13
1.10365e-13
8.49595e-14
6.4804e-14
4.89763e-14
3.66731e-14
2.72065e-14
1.99961e-14
1.45597e-14
1.05021e-14
7.50413e-15
5.31146e-15
3.72393e-15
2.58612e-15
1.77886e-15
1.2119e-15
8.17752e-16
5.4653e-16
3.61821e-16
2.37369e-16
1.54475e-16
1.00007e-16
6.48933e-17
4.30048e-17
3.03639e-17
2.45974e-17
2.2969e-14
2.3501e-14
2.45899e-14
2.62562e-14
2.85319e-14
3.14604e-14
3.50975e-14
3.95126e-14
4.47888e-14
5.10254e-14
5.83385e-14
6.68634e-14
7.6756e-14
8.81958e-14
1.01388e-13
1.16566e-13
1.33996e-13
1.53979e-13
1.76856e-13
2.03011e-13
2.32877e-13
2.66943e-13
3.05754e-13
3.49924e-13
4.00138e-13
4.57163e-13
5.21853e-13
5.9516e-13
6.78142e-13
7.71972e-13
8.77953e-13
9.97523e-13
1.13227e-12
1.28395e-12
1.45448e-12
1.64599e-12
1.8608e-12
2.10143e-12
2.37067e-12
2.67152e-12
3.00728e-12
3.3815e-12
3.79802e-12
4.26102e-12
4.77495e-12
5.34465e-12
5.97525e-12
6.67226e-12
7.44154e-12
8.28934e-12
9.22224e-12
1.02472e-11
1.13716e-11
1.2603e-11
1.39495e-11
1.54194e-11
1.70214e-11
1.87643e-11
2.06573e-11
2.27097e-11
2.4931e-11
2.73306e-11
2.99183e-11
3.27034e-11
3.56953e-11
3.89033e-11
4.2336e-11
4.60021e-11
4.99094e-11
5.40651e-11
5.8476e-11
6.31475e-11
6.80845e-11
7.32906e-11
7.87682e-11
8.45183e-11
9.05406e-11
9.68331e-11
1.03392e-10
1.10213e-10
1.17287e-10
1.24607e-10
1.3216e-10
1.39935e-10
1.47916e-10
1.56086e-10
1.64427e-10
1.72917e-10
1.81534e-10
1.90254e-10
1.9905e-10
2.07896e-10
2.16762e-10
2.25619e-10
2.34435e-10
2.43179e-10
2.51819e-10
2.60321e-10
2.68654e-10
2.76785e-10
2.84682e-10
2.92313e-10
2.99647e-10
3.06656e-10
3.13311e-10
3.19585e-10
3.25453e-10
3.30893e-10
3.35883e-10
3.40404e-10
3.44439e-10
3.47975e-10
3.50999e-10
3.53501e-10
3.55474e-10
3.56914e-10
3.57819e-10
3.58187e-10
3.58022e-10
3.57328e-10
3.5611e-10
3.54378e-10
3.52142e-10
3.49413e-10
3.46206e-10
3.42534e-10
3.38415e-10
3.33865e-10
3.28903e-10
3.23549e-10
3.17822e-10
3.11743e-10
3.05333e-10
2.98615e-10
2.9161e-10
2.84341e-10
2.7683e-10
2.69101e-10
2.61177e-10
2.5308e-10
2.44833e-10
2.36461e-10
2.27984e-10
2.19428e-10
2.10813e-10
2.02164e-10
1.93503e-10
1.84851e-10
1.76232e-10
1.67666e-10
1.59176e-10
1.50782e-10
1.42506e-10
1.34367e-10
1.26384e-10
1.18577e-10
1.10963e-10
1.03559e-10
9.63818e-11
8.94456e-11
8.2764e-11
7.63492e-11
7.02121e-11
6.43617e-11
5.88056e-11
5.35497e-11
4.85981e-11
4.3953e-11
3.96151e-11
3.55831e-11
3.1854e-11
2.84232e-11
2.52845e-11
2.24301e-11
1.98511e-11
1.7537e-11
1.54765e-11
1.36573e-11
1.20662e-11
1.06894e-11
9.51277e-12
8.52161e-12
7.70115e-12
7.03644e-12
6.51257e-12
6.1147e-12
5.82818e-12
5.63859e-12
5.53184e-12
5.4942e-12
5.51239e-12
5.57366e-12
5.66583e-12
5.77737e-12
5.89754e-12
6.01641e-12
6.12501e-12
6.2154e-12
6.28077e-12
6.31551e-12
6.31528e-12
6.27702e-12
6.19902e-12
6.08084e-12
5.92328e-12
5.72832e-12
5.49896e-12
5.23907e-12
4.95326e-12
4.64666e-12
4.32472e-12
3.99301e-12
3.65706e-12
3.32214e-12
2.99313e-12
2.6744e-12
2.36967e-12
2.08203e-12
1.81383e-12
1.56672e-12
1.34167e-12
1.13905e-12
9.58638e-13
7.99767e-13
6.61376e-13
5.42112e-13
4.4042e-13
3.5462e-13
2.82982e-13
2.23788e-13
1.7538e-13
1.36199e-13
1.04809e-13
7.99165e-14
6.03775e-14
4.51958e-14
3.35189e-14
2.46283e-14
1.79274e-14
1.29277e-14
9.23496e-15
6.53493e-15
4.58063e-15
3.18034e-15
2.18712e-15
1.48973e-15
1.00503e-15
6.71565e-16
4.4452e-16
2.91572e-16
1.89718e-16
1.22805e-16
7.96738e-17
5.27916e-17
3.72683e-17
3.01875e-17
4.20616e-14
4.30372e-14
4.50343e-14
4.80903e-14
5.22641e-14
5.76357e-14
6.43079e-14
7.2408e-14
8.20894e-14
9.35345e-14
1.06957e-13
1.22607e-13
1.4077e-13
1.61777e-13
1.86007e-13
2.13889e-13
2.45914e-13
2.82637e-13
3.24685e-13
3.72768e-13
4.27684e-13
4.90332e-13
5.6172e-13
6.42978e-13
7.35371e-13
8.40313e-13
9.5938e-13
1.09433e-12
1.2471e-12
1.41987e-12
1.61504e-12
1.83525e-12
2.08345e-12
2.36284e-12
2.67699e-12
3.0298e-12
3.42553e-12
3.86885e-12
4.36487e-12
4.91912e-12
5.53764e-12
6.22695e-12
6.99413e-12
7.84679e-12
8.79312e-12
9.84193e-12
1.10026e-11
1.22853e-11
1.37005e-11
1.52597e-11
1.69748e-11
1.88584e-11
2.09238e-11
2.31848e-11
2.56558e-11
2.83517e-11
3.12881e-11
3.44807e-11
3.79458e-11
4.16997e-11
4.5759e-11
5.01405e-11
5.48606e-11
5.99356e-11
6.53816e-11
7.12139e-11
7.74472e-11
8.40953e-11
9.11707e-11
9.86848e-11
1.06647e-10
1.15066e-10
1.23948e-10
1.33295e-10
1.43111e-10
1.53393e-10
1.64137e-10
1.75337e-10
1.86982e-10
1.99059e-10
2.1155e-10
2.24436e-10
2.37693e-10
2.51292e-10
2.65203e-10
2.79391e-10
2.93818e-10
3.08442e-10
3.2322e-10
3.38104e-10
3.53044e-10
3.67988e-10
3.82882e-10
3.9767e-10
4.12294e-10
4.26698e-10
4.40824e-10
4.54612e-10
4.68006e-10
4.8095e-10
4.93387e-10
5.05267e-10
5.16537e-10
5.27149e-10
5.3706e-10
5.46227e-10
5.54612e-10
5.62183e-10
5.6891e-10
5.74767e-10
5.79734e-10
5.83795e-10
5.86938e-10
5.89157e-10
5.9045e-10
5.90818e-10
5.90267e-10
5.88808e-10
5.86456e-10
5.83228e-10
5.79146e-10
5.74233e-10
5.68518e-10
5.6203e-10
5.54801e-10
5.46865e-10
5.38259e-10
5.29018e-10
5.19181e-10
5.08788e-10
4.97878e-10
4.86491e-10
4.74669e-10
4.6245e-10
4.49877e-10
4.36988e-10
4.23825e-10
4.10425e-10
3.96828e-10
3.83073e-10
3.69196e-10
3.55234e-10
3.41224e-10
3.27201e-10
3.13199e-10
2.99251e-10
2.85391e-10
2.71651e-10
2.5806e-10
2.4465e-10
2.31449e-10
2.18485e-10
2.05785e-10
1.93374e-10
1.81277e-10
1.69517e-10
1.58114e-10
1.47089e-10
1.36459e-10
1.26242e-10
1.1645e-10
1.07097e-10
9.8192e-11
8.97435e-11
8.17568e-11
7.42352e-11
6.71794e-11
6.0588e-11
5.44569e-11
4.87802e-11
4.35493e-11
3.87539e-11
3.43815e-11
3.04179e-11
2.68472e-11
2.36524e-11
2.08148e-11
1.83151e-11
1.6133e-11
1.42478e-11
1.26382e-11
1.12829e-11
1.01604e-11
9.24934e-12
8.52873e-12
7.97778e-12
7.57618e-12
7.30418e-12
7.14259e-12
7.0729e-12
7.07735e-12
7.13897e-12
7.24171e-12
7.37046e-12
7.51121e-12
7.65113e-12
7.77865e-12
7.88361e-12
7.95732e-12
7.99269e-12
7.98425e-12
7.92821e-12
7.82245e-12
7.66652e-12
7.4615e-12
7.20997e-12
6.91577e-12
6.58384e-12
6.22001e-12
5.83077e-12
5.42297e-12
5.0036e-12
4.57959e-12
4.1575e-12
3.74342e-12
3.34275e-12
2.96013e-12
2.59932e-12
2.26323e-12
1.95384e-12
1.67232e-12
1.41904e-12
1.1937e-12
9.95401e-13
8.2278e-13
6.74112e-13
5.47424e-13
4.40595e-13
3.51449e-13
2.77826e-13
2.17648e-13
1.68963e-13
1.29977e-13
9.90741e-14
7.48273e-14
5.59951e-14
4.15158e-14
3.04954e-14
2.21921e-14
1.59989e-14
1.1426e-14
8.08347e-15
5.66479e-15
3.93221e-15
2.70362e-15
1.84118e-15
1.24189e-15
8.29691e-16
5.49092e-16
3.60105e-16
2.34275e-16
1.51623e-16
9.83561e-17
6.51607e-17
4.59939e-17
3.72516e-17
7.60979e-14
7.78661e-14
8.14852e-14
8.7024e-14
9.45889e-14
1.04326e-13
1.16422e-13
1.31108e-13
1.48664e-13
1.69421e-13
1.93769e-13
2.22161e-13
2.5512e-13
2.93247e-13
3.37232e-13
3.87857e-13
4.46016e-13
5.12721e-13
5.89115e-13
6.76491e-13
7.76305e-13
8.90196e-13
1.02e-12
1.16778e-12
1.33585e-12
1.52678e-12
1.74345e-12
1.98905e-12
2.26715e-12
2.58171e-12
2.93708e-12
3.33813e-12
3.79017e-12
4.29912e-12
4.87143e-12
5.51421e-12
6.23524e-12
7.04304e-12
7.94687e-12
8.95685e-12
1.00839e-11
1.134e-11
1.27378e-11
1.42913e-11
1.60153e-11
1.79257e-11
2.00396e-11
2.23751e-11
2.49515e-11
2.77893e-11
3.09099e-11
3.4336e-11
3.80913e-11
4.22007e-11
4.66897e-11
5.1585e-11
5.69139e-11
6.27044e-11
6.8985e-11
7.57843e-11
8.31314e-11
9.1055e-11
9.95835e-11
1.08745e-10
1.18566e-10
1.29072e-10
1.40287e-10
1.52234e-10
1.64932e-10
1.78398e-10
1.92647e-10
2.07688e-10
2.23529e-10
2.40172e-10
2.57613e-10
2.75847e-10
2.9486e-10
3.14634e-10
3.35143e-10
3.56359e-10
3.78244e-10
4.00755e-10
4.23843e-10
4.4745e-10
4.71516e-10
4.95971e-10
5.20741e-10
5.45747e-10
5.70904e-10
5.96121e-10
6.21306e-10
6.46361e-10
6.71188e-10
6.95684e-10
7.19746e-10
7.43272e-10
7.66159e-10
7.88305e-10
8.09613e-10
8.29985e-10
8.49329e-10
8.67559e-10
8.84593e-10
9.00354e-10
9.14773e-10
9.27789e-10
9.39347e-10
9.49402e-10
9.57914e-10
9.64855e-10
9.70204e-10
9.7395e-10
9.76087e-10
9.76621e-10
9.75565e-10
9.72939e-10
9.68771e-10
9.63095e-10
9.55953e-10
9.4739e-10
9.37461e-10
9.26221e-10
9.13731e-10
9.00056e-10
8.85264e-10
8.69423e-10
8.52606e-10
8.34886e-10
8.16336e-10
7.97029e-10
7.77041e-10
7.56443e-10
7.3531e-10
7.13711e-10
6.91718e-10
6.69399e-10
6.46819e-10
6.24045e-10
6.01139e-10
5.78162e-10
5.55172e-10
5.32226e-10
5.09377e-10
4.86679e-10
4.6418e-10
4.41929e-10
4.19971e-10
3.9835e-10