/*--------------------------------*- C++ -*----------------------------------*\
| =========                 |                                                 |
| \\      /  F ield         | OpenFOAM: The Open Source CFD Toolbox           |
|  \\    /   O peration     | Version:  v2012                                 |
|   \\  /    A nd           | Website:  www.openfoam.com                      |
|    \\/     M anipulation  |                                                 |
\*---------------------------------------------------------------------------*/
FoamFile
{
    version     2.0;
    format      ascii;
    class       volScalarField;
    location    "0";
    object      p;
}
// * * * * * * * * * * * * * * * * * * * * * * * * * * * * * * * * * * * * * //

dimensions      [0 2 -2 0 0 0 0];


internalField   nonuniform List<scalar> 
4000
(
-1.51353e-14
-2.1607e-14
-1.16483e-14
-1.19896e-14
-8.93843e-15
-1.67077e-14
-1.55473e-14
-1.13888e-14
-8.09994e-15
-6.72286e-15
-2.41284e-15
-7.82029e-15
-7.23838e-15
-1.51122e-14
-2.37815e-14
-2.4746e-14
-2.68909e-14
-2.51569e-14
-3.29978e-14
-3.30873e-14
-2.85547e-14
-2.81037e-14
-2.2015e-14
-1.80741e-14
-1.98932e-14
-2.30802e-14
-1.5198e-14
-1.89033e-14
-1.73247e-14
-2.70553e-14
-2.86658e-14
-3.15884e-14
-1.93253e-14
-1.70373e-14
-1.49802e-14
-1.22379e-14
-8.05696e-15
-1.82176e-14
-2.60626e-14
-2.43248e-14
-1.41955e-14
-1.0623e-14
-2.22036e-15
5.39436e-16
-1.31612e-15
-2.3749e-15
-5.33595e-15
-1.22567e-14
-5.64215e-15
-2.86306e-15
-1.817e-15
1.8262e-16
-1.34496e-15
1.20015e-16
1.05642e-15
-3.7195e-15
-1.40437e-15
9.69801e-15
1.69097e-14
2.43409e-14
2.30309e-14
2.1785e-14
1.85429e-14
1.05833e-14
2.3516e-14
1.69553e-14
1.67563e-14
1.87787e-14
1.05983e-14
2.10416e-14
2.82769e-14
2.9122e-14
2.38592e-14
1.85629e-14
3.03207e-14
3.63197e-14
3.63037e-14
3.83144e-14
3.39145e-14
2.84296e-14
3.09105e-14
3.41774e-14
2.2612e-14
2.75801e-14
3.18996e-14
2.24086e-14
1.57863e-14
1.64284e-14
1.67542e-14
1.51654e-14
9.36832e-15
9.09946e-15
1.26883e-14
1.19648e-14
1.3514e-14
1.1041e-14
5.32886e-15
7.58223e-15
6.72795e-15
-1.42083e-15
-1.54895e-14
-1.67286e-14
-1.53897e-14
-1.77635e-14
-1.46764e-14
-1.5776e-14
-1.31859e-14
-8.334e-15
-4.85258e-15
-4.62935e-15
-4.38819e-15
-1.12982e-14
-9.80759e-15
-1.44321e-14
-2.24577e-14
-2.42062e-14
-2.50922e-14
-2.38068e-14
-3.36734e-14
-3.04703e-14
-2.75323e-14
-2.46617e-14
-2.58011e-14
-2.00879e-14
-2.20946e-14
-2.13491e-14
-1.62215e-14
-1.65016e-14
-2.38839e-14
-3.10039e-14
-2.7579e-14
-2.52283e-14
-2.25558e-14
-2.0081e-14
-1.30946e-14
-1.07647e-14
-1.20495e-14
-1.16913e-14
-2.00539e-14
-2.37813e-14
-1.51892e-14
-1.40281e-14
-5.22831e-15
4.96968e-15
1.18573e-15
-3.83218e-15
-6.86645e-15
-1.18785e-14
-3.08457e-15
-7.99087e-15
-6.47395e-15
5.20292e-16
4.20836e-16
-6.87257e-16
2.16355e-15
4.54012e-17
4.64794e-17
7.24848e-15
1.57452e-14
1.89182e-14
2.15657e-14
2.03108e-14
2.41602e-14
1.78884e-14
2.17158e-14
1.65151e-14
1.32951e-14
1.88184e-14
1.54047e-14
2.18354e-14
2.66498e-14
2.70217e-14
2.74204e-14
2.42959e-14
2.81774e-14
3.30565e-14
3.23123e-14
3.55032e-14
3.43788e-14
3.16111e-14
3.32803e-14
3.17106e-14
2.72379e-14
2.76601e-14
2.98296e-14
2.21248e-14
1.37937e-14
1.4402e-14
1.64766e-14
1.12925e-14
1.35799e-14
1.0518e-14
1.34372e-14
1.2761e-14
1.37674e-14
8.65421e-15
4.56574e-15
6.50085e-15
1.00843e-14
3.53564e-16
-2.29134e-14
-1.87954e-14
-2.07535e-14
-1.62522e-14
-1.16627e-14
-1.87775e-14
-1.2538e-14
-1.04641e-14
-9.23153e-15
-6.02479e-15
-6.52298e-15
-1.41179e-14
-1.17129e-14
-1.03781e-14
-1.90069e-14
-2.13757e-14
-2.44395e-14
-2.60584e-14
-2.97432e-14
-3.33125e-14
-3.20187e-14
-2.05114e-14
-2.32322e-14
-2.42922e-14
-1.83766e-14
-2.27192e-14
-1.59287e-14
-1.89782e-14
-2.96306e-14
-3.11036e-14
-2.84096e-14
-2.50998e-14
-2.54294e-14
-1.97589e-14
-9.3398e-15
-9.9635e-15
-1.06562e-14
-1.33666e-14
-1.76322e-14
-2.01352e-14
-1.60561e-14
-1.64666e-14
-6.72161e-15
4.1142e-15
7.43132e-16
-2.61131e-16
-7.79848e-15
-9.92491e-15
-6.56153e-15
-2.90738e-15
-3.19853e-16
-4.07492e-16
-1.50175e-15
-5.6833e-15
1.0539e-15
3.41944e-15
1.22692e-15
1.18182e-14
1.6626e-14
1.83416e-14
1.7377e-14
1.95703e-14
1.8734e-14
1.9048e-14
2.40668e-14
1.82166e-14
1.88968e-14
1.89387e-14
1.52217e-14
1.76943e-14
2.24071e-14
2.33196e-14
2.64025e-14
2.86346e-14
2.91576e-14
3.16441e-14
3.10042e-14
3.42159e-14
3.46727e-14
3.16732e-14
3.4792e-14
2.87272e-14
2.43875e-14
2.97771e-14
2.77713e-14
2.22154e-14
1.82235e-14
1.62504e-14
1.29771e-14
7.95168e-15
1.40338e-14
1.02256e-14
1.18802e-14
1.43549e-14
1.2239e-14
6.24927e-15
6.73488e-15
8.50235e-15
1.03061e-14
1.09374e-15
-2.48321e-14
-1.69574e-14
-1.9208e-14
-2.2289e-14
-1.60404e-14
-1.92619e-14
-1.57513e-14
-1.27197e-14
-5.06368e-15
-5.7158e-15
-5.40235e-15
-9.95577e-15
-1.10837e-14
-1.64031e-14
-1.37586e-14
-1.46098e-14
-2.43256e-14
-3.0401e-14
-3.33815e-14
-3.75938e-14
-3.07893e-14
-2.20314e-14
-2.11628e-14
-2.87049e-14
-2.61002e-14
-2.23106e-14
-2.13409e-14
-1.74579e-14
-2.65857e-14
-3.05928e-14
-2.70514e-14
-2.24735e-14
-2.45066e-14
-2.01496e-14
-1.89519e-14
-1.12943e-14
-7.63907e-15
-1.36113e-14
-1.74257e-14
-2.09869e-14
-1.52649e-14
-1.34916e-14
-4.47857e-15
-1.54861e-15
-7.37588e-15
-8.12174e-15
-7.59463e-16
1.22054e-16
-3.01506e-15
-1.14178e-14
-6.4757e-15
-3.9999e-15
-1.98887e-15
2.66324e-15
3.753e-16
8.39159e-15
3.1953e-15
8.36542e-15
1.18513e-14
1.92062e-14
1.80198e-14
1.67619e-14
1.78482e-14
1.93072e-14
1.98569e-14
1.76574e-14
1.95916e-14
1.57777e-14
1.61105e-14
1.95532e-14
2.26942e-14
2.71909e-14
2.95298e-14
2.78756e-14
2.83651e-14
3.17546e-14
3.30762e-14
3.21819e-14
3.0578e-14
3.29965e-14
3.0782e-14
3.11892e-14
2.2434e-14
2.29299e-14
2.6007e-14
2.14708e-14
1.68944e-14
1.90372e-14
1.19596e-14
8.9422e-15
1.40496e-14
1.10944e-14
1.03153e-14
1.46841e-14
1.43148e-14
1.04407e-14
7.57063e-15
1.28521e-14
7.13548e-15
1.88148e-15
-2.71582e-14
-1.94576e-14
-2.41732e-14
-2.1935e-14
-2.1386e-14
-1.92773e-14
-1.84447e-14
-9.12035e-15
-5.29424e-15
-5.95862e-15
-1.06588e-14
-9.54016e-15
-6.29767e-15
-1.21714e-14
-1.80317e-14
-1.24462e-14
-2.17755e-14
-2.82929e-14
-3.29622e-14
-4.23197e-14
-3.44377e-14
-2.70694e-14
-2.99585e-14
-3.17512e-14
-2.02853e-14
-1.5541e-14
-1.9092e-14
-2.62105e-14
-3.12949e-14
-3.00607e-14
-2.94084e-14
-1.84169e-14
-1.52948e-14
-1.91514e-14
-2.05505e-14
-7.16911e-15
-9.62734e-15
-1.98808e-14
-2.39485e-14
-2.5032e-14
-1.59558e-14
-9.38782e-15
-6.92687e-16
-5.13063e-15
-6.87826e-15
-1.12795e-14
-3.9184e-15
-5.03054e-15
-2.6538e-15
-2.09935e-15
2.15949e-17
2.47906e-15
1.10992e-15
5.15262e-15
2.55312e-15
2.65521e-15
5.99526e-15
1.03902e-14
7.58325e-15
9.84716e-15
1.81214e-14
1.50027e-14
1.56304e-14
1.5559e-14
2.74738e-14
1.95803e-14
1.91878e-14
1.18726e-14
1.53077e-14
1.89337e-14
2.30182e-14
2.33817e-14
2.8279e-14
2.76958e-14
2.66734e-14
2.5905e-14
2.85727e-14
3.36953e-14
3.34085e-14
3.30073e-14
3.03809e-14
2.73326e-14
2.40223e-14
2.12395e-14
2.2746e-14
2.07197e-14
1.92619e-14
2.04571e-14
1.3571e-14
1.02823e-14
9.95779e-15
8.89308e-15
1.08707e-14
2.06535e-14
1.80232e-14
1.09476e-14
9.24757e-15
1.66758e-14
9.97518e-15
1.84959e-15
-2.97971e-14
-1.74484e-14
-2.4626e-14
-2.80818e-14
-1.885e-14
-1.31943e-14
-1.20051e-14
-7.61647e-15
-1.38409e-14
-1.42619e-14
-1.07279e-14
-7.65371e-15
-7.99575e-15
-1.2723e-14
-1.94386e-14
-1.31117e-14
-1.43695e-14
-2.63697e-14
-3.11328e-14
-4.04094e-14
-3.71259e-14
-3.43014e-14
-4.24338e-14
-3.3464e-14
-2.06603e-14
-1.78334e-14
-2.17454e-14
-2.89441e-14
-3.37913e-14
-2.43129e-14
-2.43687e-14
-1.88195e-14
-1.92816e-14
-1.66154e-14
-1.32536e-14
-6.75387e-15
-8.36127e-15
-2.01015e-14
-2.2333e-14
-1.77113e-14
-1.10215e-14
-1.11047e-14
-4.16191e-15
-4.02357e-15
-3.83848e-15
-1.57715e-14
-9.74277e-15
-5.15397e-15
-2.51904e-15
-2.0134e-15
3.57698e-15
-1.56189e-15
1.09278e-15
4.9416e-15
2.08307e-15
5.31366e-15
6.68075e-15
6.49373e-15
8.62729e-15
1.31775e-14
1.47881e-14
1.35258e-14
1.5469e-14
1.85645e-14
1.69307e-14
1.48084e-14
1.92632e-14
1.30542e-14
1.50805e-14
1.94098e-14
2.15474e-14
2.74877e-14
3.11876e-14
3.15803e-14
2.68757e-14
2.66783e-14
2.92909e-14
3.21118e-14
3.28812e-14
3.34536e-14
3.18043e-14
2.5757e-14
2.30675e-14
1.90819e-14
2.4388e-14
2.26386e-14
1.6866e-14
1.64771e-14
1.37302e-14
9.48032e-15
1.01342e-14
8.64481e-15
1.21793e-14
1.51969e-14
1.96056e-14
1.49087e-14
1.36557e-14
1.25654e-14
1.23025e-14
3.27297e-15
-2.75316e-14
-2.59834e-14
-2.6282e-14
-2.00088e-14
-1.99506e-14
-1.39659e-14
-1.14895e-14
-1.0493e-14
-1.63371e-14
-1.78699e-14
-1.33825e-14
-5.53402e-15
-4.83344e-15
-1.51165e-14
-1.64421e-14
-1.4641e-14
-1.88307e-14
-2.32573e-14
-3.28838e-14
-3.56231e-14
-4.18747e-14
-3.67055e-14
-3.35522e-14
-2.63693e-14
-2.25484e-14
-1.92267e-14
-2.76995e-14
-3.18719e-14
-3.36362e-14
-2.4614e-14
-2.3012e-14
-1.78511e-14
-1.93473e-14
-2.10917e-14
-1.65846e-14
-1.38621e-14
-7.03107e-15
-6.7288e-15
-1.13045e-14
-1.97445e-14
-1.55031e-14
-1.24071e-14
-8.5044e-15
-5.91512e-15
-9.33665e-15
-8.7414e-15
-4.31663e-15
1.81426e-15
-1.63304e-15
-8.20719e-15
4.00622e-15
5.61186e-15
6.31083e-15
2.64509e-15
1.32468e-15
2.34716e-15
7.12628e-15
2.70773e-15
9.05066e-15
1.30666e-14
1.16625e-14
1.67478e-14
1.5358e-14
1.58029e-14
1.75181e-14
1.28168e-14
1.24787e-14
1.25297e-14
1.27115e-14
1.8514e-14
2.75183e-14
3.16381e-14
2.76385e-14
3.65634e-14
3.01381e-14
2.32756e-14
2.55528e-14
2.99832e-14
2.38199e-14
2.58045e-14
3.34984e-14
2.90238e-14
2.92291e-14
2.43057e-14
2.3791e-14
1.69851e-14
1.7638e-14
1.5806e-14
1.18336e-14
1.04464e-14
1.05412e-14
6.58181e-15
1.04203e-14
1.69678e-14
2.06537e-14
1.29986e-14
9.38615e-15
1.23376e-14
1.00065e-14
3.3304e-15
-2.61072e-14
-2.89606e-14
-3.1473e-14
-2.47285e-14
-2.27738e-14
-1.72889e-14
-8.93608e-15
-6.01897e-15
-1.29939e-14
-1.37012e-14
-9.72132e-15
-1.06781e-14
-1.46914e-14
-1.46877e-14
-1.58162e-14
-1.67215e-14
-1.83717e-14
-1.88952e-14
-3.3616e-14
-3.26915e-14
-3.61266e-14
-3.33008e-14
-2.84736e-14
-2.89891e-14
-2.64608e-14
-2.99892e-14
-3.59506e-14
-3.05892e-14
-3.65785e-14
-2.71757e-14
-2.45413e-14
-2.02308e-14
-1.42785e-14
-1.31074e-14
-1.55004e-14
-1.23353e-14
-9.53164e-15
-1.29504e-14
-1.67713e-14
-2.21527e-14
-1.17662e-14
-4.47071e-15
-5.25772e-15
-5.38562e-15
-4.26174e-15
-6.5816e-15
-1.00811e-14
-1.12466e-14
-1.00973e-14
5.87593e-16
9.75501e-15
8.12785e-15
2.38517e-15
-1.12172e-15
3.65782e-15
3.44517e-15
-1.39426e-16
7.95265e-15
9.08812e-15
1.01909e-14
6.8024e-15
1.24581e-14
1.43216e-14
1.32277e-14
1.64979e-14
1.6515e-14
1.25715e-14
1.27296e-14
2.16554e-14
2.15837e-14
2.46124e-14
2.88552e-14
2.84878e-14
2.9831e-14
2.24369e-14
2.63477e-14
2.92846e-14
2.87355e-14
2.84142e-14
2.87468e-14
2.9599e-14
2.8849e-14
2.54107e-14
1.95976e-14
1.6911e-14
1.22692e-14
1.83387e-14
1.51434e-14
1.27539e-14
9.49638e-15
1.11656e-14
5.34095e-15
9.35379e-15
1.96063e-14
1.68017e-14
1.0626e-14
1.18765e-14
1.08618e-14
9.80209e-15
3.36239e-15
-2.7004e-14
-2.80462e-14
-3.18904e-14
-2.97127e-14
-2.36659e-14
-1.73023e-14
-9.34873e-15
-4.49091e-15
-1.65862e-14
-1.06548e-14
-8.18099e-15
-1.58107e-14
-1.4217e-14
-1.52202e-14
-1.65669e-14
-1.57822e-14
-1.73704e-14
-2.32428e-14
-3.31371e-14
-3.04739e-14
-3.22278e-14
-3.35788e-14
-2.5154e-14
-2.65144e-14
-3.11672e-14
-3.66052e-14
-3.37314e-14
-3.18622e-14
-3.23334e-14
-2.53214e-14
-2.51975e-14
-1.97845e-14
-1.40467e-14
-1.2773e-14
-1.81272e-14
-1.21078e-14
-1.38627e-14
-2.63848e-14
-1.59759e-14
-9.04167e-15
-7.14669e-15
-1.44336e-14
-1.35659e-14
-1.17556e-14
-5.91893e-15
-6.30905e-15
-5.6053e-15
-2.95366e-15
-1.20245e-15
-2.6811e-15
5.14603e-16
4.73738e-15
6.00604e-16
2.30751e-16
1.93812e-15
2.51184e-15
5.721e-15
5.24628e-15
9.53989e-15
9.16775e-15
2.0852e-15
6.71989e-15
1.35803e-14
1.08747e-14
1.14605e-14
1.2996e-14
1.13317e-14
1.63559e-14
1.98591e-14
1.90027e-14
2.45118e-14
3.17109e-14
2.978e-14
2.95363e-14
2.72512e-14
2.90821e-14
3.05631e-14
2.7322e-14
2.65001e-14
2.49461e-14
2.73517e-14
2.72046e-14
2.18396e-14
1.99035e-14
1.56157e-14
1.2411e-14
2.08625e-14
1.63728e-14
1.41156e-14
9.99202e-15
8.66569e-15
6.15766e-15
1.05951e-14
1.28355e-14
1.60562e-14
1.39776e-14
8.78497e-15
4.40218e-15
7.69392e-15
-3.37319e-16
-2.73344e-14
-3.02534e-14
-3.01375e-14
-2.74672e-14
-2.53119e-14
-1.77659e-14
-1.38123e-14
-5.32572e-15
-1.11777e-15
-1.7168e-14
-1.53841e-14
-1.4464e-14
-1.43009e-14
-1.28745e-14
-1.68219e-14
-1.80302e-14
-2.60958e-14
-2.08052e-14
-2.10693e-14
-2.67994e-14
-3.30072e-14
-3.6095e-14
-3.67499e-14
-3.28103e-14
-2.71621e-14
-2.93014e-14
-3.54787e-14
-2.8776e-14
-3.13724e-14
-2.62412e-14
-2.03998e-14
-1.90587e-14
-2.38093e-14
-2.16147e-14
-1.80029e-14
-1.12182e-14
-1.03446e-14
-2.10571e-14
-1.89187e-14
-1.62361e-14
-1.18913e-14
-1.2715e-14
-8.07156e-15
-5.06055e-15
-4.06104e-15
-3.40424e-15
-4.91424e-15
-4.06761e-15
-2.74178e-15
-5.92806e-15
-3.27826e-15
1.4606e-15
-1.32637e-15
1.95895e-15
-8.51583e-16
1.0425e-15
3.57971e-15
4.85165e-15
4.65924e-15
1.00693e-14
4.41858e-15
1.1477e-14
1.18365e-14
9.20947e-15
7.79402e-15
3.57439e-15
9.0719e-15
1.35504e-14
1.70404e-14
2.17989e-14
3.22309e-14
3.3985e-14
2.5507e-14
2.52885e-14
3.2032e-14
3.17998e-14
2.80453e-14
2.502e-14
2.0156e-14
2.63626e-14
2.38737e-14
2.15513e-14
2.04234e-14
2.03712e-14
1.89648e-14
1.6041e-14
1.79519e-14
8.36571e-15
1.33299e-14
6.57786e-15
5.07864e-15
1.12761e-14
7.53197e-15
9.83349e-15
1.37652e-14
1.17712e-14
9.53849e-15
6.78372e-15
-1.99743e-15
-1.02596e-15
-2.99501e-14
-3.24637e-14
-3.19868e-14
-2.77677e-14
-2.26821e-14
-1.90553e-14
-1.44696e-14
-4.881e-15
-4.02418e-15
-8.28759e-15
-1.59801e-14
-1.89325e-14
-1.74304e-14
-1.10234e-14
-1.899e-14
-1.36996e-14
-1.72728e-14
-2.50082e-14
-2.24334e-14
-2.35119e-14
-3.15525e-14
-4.07424e-14
-4.1637e-14
-3.12933e-14
-3.06911e-14
-3.62802e-14
-3.17835e-14
-2.84898e-14
-3.2981e-14
-1.86723e-14
-2.00322e-14
-2.2772e-14
-2.31621e-14
-2.08006e-14
-1.81565e-14
-1.40337e-14
-1.94478e-14
-2.61061e-14
-1.5766e-14
-1.26206e-14
-1.5124e-14
-1.65187e-14
-1.37061e-14
-1.91257e-16
4.15403e-15
6.1833e-16
-6.27878e-15
-6.88425e-15
-4.76927e-15
-9.50498e-15
2.12674e-17
4.7974e-15
1.10612e-16
2.70259e-15
-4.68484e-15
-3.09099e-15
5.18521e-15
4.23749e-15
1.54946e-15
2.94157e-15
4.31887e-15
5.5499e-17
5.79962e-15
1.49031e-14
8.07064e-15
1.75891e-15
6.52153e-15
1.28882e-14
1.03443e-14
2.30868e-14
3.14348e-14
3.13463e-14
2.58676e-14
2.51238e-14
3.13813e-14
2.50863e-14
2.63862e-14
2.84681e-14
2.88264e-14
2.93621e-14
2.85841e-14
2.39365e-14
1.8509e-14
1.40131e-14
1.13705e-14
9.5977e-15
1.90022e-14
1.79256e-14
1.51386e-14
8.61114e-15
5.47262e-15
8.03121e-15
1.1936e-14
9.24477e-15
1.12622e-14
6.34978e-15
6.98422e-15
3.92081e-15
-8.29818e-15
1.57305e-15
-2.73285e-14
-3.14991e-14
-3.37275e-14
-2.56907e-14
-2.00698e-14
-1.93799e-14
-1.12434e-14
-8.55164e-15
-9.30204e-15
-9.58283e-15
-1.19247e-14
-1.90948e-14
-2.25375e-14
-2.01552e-14
-1.67064e-14
-2.13557e-14
-1.50292e-14
-1.412e-14
-1.84339e-14
-2.59719e-14
-3.1592e-14
-3.46688e-14
-3.67647e-14
-3.70395e-14
-3.44995e-14
-3.9398e-14
-3.65436e-14
-3.24551e-14
-3.19071e-14
-1.52904e-14
-1.52048e-14
-2.06625e-14
-2.54e-14
-2.41562e-14
-2.21555e-14
-1.68487e-14
-2.05179e-14
-2.39996e-14
-1.14794e-14
-1.66789e-14
-2.17163e-14
-1.45017e-14
-7.74798e-15
-6.07972e-16
1.16396e-15
1.45636e-15
-2.81057e-15
-6.67699e-15
-7.16629e-15
-6.09425e-15
-7.52744e-16
-2.86067e-15
-3.51414e-15
-2.7075e-16
-4.11516e-15
-1.48642e-15
-7.86875e-16
4.11918e-15
-1.5181e-15
7.12933e-15
7.52066e-15
1.06146e-14
8.4534e-15
2.38777e-15
-4.93481e-16
-1.58291e-15
6.03471e-15
8.66681e-15
1.42706e-14
1.99037e-14
3.34365e-14
3.0573e-14
2.60806e-14
2.68171e-14
2.89925e-14
1.85629e-14
1.72692e-14
3.39354e-14
3.11635e-14
2.83944e-14
2.42815e-14
2.42301e-14
2.11621e-14
1.8156e-14
1.40621e-14
1.49184e-14
1.31452e-14
1.5326e-14
1.51502e-14
1.23704e-14
5.4858e-15
4.82848e-15
1.06683e-14
1.30545e-14
1.49545e-14
5.90562e-15
3.25595e-15
1.82804e-15
-2.82763e-15
-3.72576e-16
-3.01837e-14
-3.07491e-14
-3.48229e-14
-2.71559e-14
-2.1803e-14
-1.38103e-14
-8.97799e-15
-1.02149e-14
-9.96552e-15
-1.95905e-14
-2.53038e-14
-1.81494e-14
-1.16397e-14
-1.37952e-14
-1.20322e-14
-1.71445e-14
-1.7558e-14
-1.48905e-14
-1.67752e-14
-2.44977e-14
-3.61251e-14
-4.26188e-14
-4.27401e-14
-4.31264e-14
-3.96677e-14
-3.79897e-14
-3.39296e-14
-2.59667e-14
-2.8842e-14
-2.11926e-14
-1.78176e-14
-1.65283e-14
-1.88168e-14
-2.08343e-14
-2.7333e-14
-2.29189e-14
-2.4023e-14
-2.39947e-14
-1.48671e-14
-1.84409e-14
-2.03816e-14
-1.11272e-14
-7.77186e-15
-4.81688e-15
-3.17362e-15
-5.78828e-15
1.46603e-16
-1.57581e-15
-8.84054e-15
-3.8356e-15
-3.03761e-15
-1.3521e-15
-1.1924e-14
-6.66372e-15
-1.6271e-15
2.34651e-15
1.50439e-15
2.98837e-15
1.4995e-15
8.48729e-16
2.33126e-15
3.51791e-15
5.8435e-15
3.6359e-15
2.01762e-15
2.17927e-15
1.56124e-15
3.53957e-15
1.59756e-14
1.70591e-14
2.76389e-14
2.49819e-14
2.7008e-14
2.2648e-14
2.46116e-14
2.5983e-14
2.56202e-14
3.20215e-14
3.33168e-14
2.81912e-14
2.37394e-14
1.93762e-14
2.27548e-14
1.25676e-14
1.81166e-14
1.5441e-14
1.59616e-14
1.7365e-14
1.8614e-14
1.66931e-14
6.47837e-15
5.83309e-15
7.85163e-15
1.36785e-14
8.51666e-15
5.89053e-15
4.33426e-15
1.52586e-15
1.74886e-15
2.48187e-15
-3.27316e-14
-2.69841e-14
-2.92892e-14
-2.97167e-14
-2.37122e-14
-1.47991e-14
-1.66635e-14
-1.13235e-14
-1.44236e-14
-2.30907e-14
-2.35069e-14
-1.36061e-14
-1.00547e-14
-1.43145e-14
-1.15565e-14
-1.64524e-14
-1.92623e-14
-2.54259e-14
-1.71013e-14
-2.13605e-14
-2.60571e-14
-2.83037e-14
-3.07557e-14
-3.96289e-14
-5.06633e-14
-5.62314e-14
-4.33472e-14
-2.66037e-14
-2.45913e-14
-1.91716e-14
-1.44186e-14
-1.9679e-14
-2.40995e-14
-3.1224e-14
-3.31199e-14
-2.76715e-14
-2.12087e-14
-1.62456e-14
-1.80694e-14
-1.56148e-14
-1.35917e-14
-1.41841e-14
-8.06938e-15
-5.00939e-15
-2.68551e-15
-5.79213e-15
-7.374e-15
-3.9238e-15
-3.55207e-15
-4.50454e-15
-2.07376e-15
-4.37195e-15
-7.72731e-15
-8.09284e-15
-5.42398e-15
-2.90991e-15
4.39185e-15
3.17808e-15
5.45925e-15
-1.14382e-15
3.28049e-15
-1.67696e-15
-9.59978e-16
1.36642e-16
-3.46537e-15
5.29948e-15
5.16905e-15
3.73902e-15
1.39282e-14
1.63569e-14
2.18378e-14
2.29263e-14
2.48728e-14
2.83231e-14
2.61358e-14
2.40626e-14
2.17346e-14
2.73996e-14
3.42962e-14
3.2027e-14
2.09455e-14
1.69661e-14
1.89447e-14
1.97141e-14
2.02257e-14
1.63786e-14
1.73917e-14
1.56315e-14
1.99282e-14
1.68154e-14
9.92933e-15
8.72461e-15
1.28835e-14
1.27424e-14
4.6455e-15
4.26763e-15
3.3604e-15
3.25678e-15
2.73317e-15
6.79599e-16
-3.06595e-14
-3.27584e-14
-2.98027e-14
-2.76849e-14
-2.08658e-14
-1.49985e-14
-2.07618e-14
-2.05383e-14
-1.9467e-14
-1.79087e-14
-2.12329e-14
-1.28516e-14
-9.90284e-15
-1.29234e-14
-1.09957e-14
-1.40966e-14
-1.22106e-14
-1.81078e-14
-1.8824e-14
-3.07326e-14
-3.84046e-14
-4.39049e-14
-4.35491e-14
-4.61394e-14
-4.48085e-14
-4.01218e-14
-3.44249e-14
-2.66598e-14
-2.70079e-14
-2.54848e-14
-1.31742e-14
-1.61353e-14
-2.51243e-14
-2.98673e-14
-4.08205e-14
-3.13294e-14
-2.36443e-14
-1.6694e-14
-1.3917e-14
-1.82549e-14
-1.34706e-14
-1.05002e-14
-7.30062e-15
-9.19182e-15
-9.32365e-15
-6.49248e-15
-3.75453e-15
-3.47725e-15
-5.82824e-15
-1.9408e-15
3.73265e-15
-1.05514e-14
-1.042e-14
-7.0548e-15
-9.32296e-15
-8.04821e-15
1.59777e-15
4.14315e-15
6.64671e-15
-3.38342e-15
3.34087e-15
7.69043e-16
1.22022e-15
-1.2549e-15
-1.01698e-14
-9.77208e-16
3.75913e-15
6.00886e-15
1.4894e-14
1.13752e-14
1.73749e-14
2.148e-14
2.55861e-14
2.75447e-14
2.58047e-14
2.20694e-14
2.11435e-14
2.33114e-14
3.45858e-14
3.66192e-14
2.99881e-14
1.88102e-14
1.71358e-14
1.97808e-14
1.52405e-14
1.72494e-14
1.61156e-14
1.93043e-14
1.81199e-14
1.74633e-14
1.34186e-14
6.74259e-15
1.48434e-14
1.03403e-14
6.43705e-15
3.79741e-15
-1.83549e-15
1.11784e-15
2.70426e-15
2.36593e-15
-3.519e-14
-2.69894e-14
-2.83111e-14
-2.79119e-14
-2.21948e-14
-1.72833e-14
-1.3949e-14
-1.50946e-14
-2.94867e-14
-2.85113e-14
-2.67795e-14
-1.58795e-14
-7.40221e-15
-6.25645e-15
-8.46247e-15
-1.3019e-14
-1.82082e-14
-2.74896e-14
-2.6312e-14
-2.93284e-14
-3.05739e-14
-3.43956e-14
-4.41503e-14
-6.12272e-14
-4.77919e-14
-3.83397e-14
-3.30584e-14
-2.75528e-14
-2.52733e-14
-1.89899e-14
-1.54764e-14
-2.63477e-14
-2.43655e-14
-3.33636e-14
-4.18484e-14
-3.70605e-14
-2.75727e-14
-1.36294e-14
-1.75903e-14
-1.8098e-14
-1.5159e-14
-1.2418e-14
-9.25014e-15
-1.0222e-14
-9.38469e-15
-8.38053e-15
-3.34085e-15
-1.50387e-15
-7.16526e-15
-1.12695e-14
-4.56091e-15
-7.42885e-15
-5.05262e-15
-7.31116e-15
-8.95076e-15
-3.49591e-15
8.35301e-16
1.71535e-15
4.56498e-15
4.75632e-15
-1.59534e-16
-4.98397e-15
-5.23778e-15
-4.00582e-15
-6.67957e-15
-2.6733e-15
-1.43886e-15
5.00975e-15
8.51539e-15
1.00059e-14
1.48121e-14
2.34442e-14
3.36211e-14
2.71395e-14
1.8368e-14
2.10112e-14
2.55174e-14
2.95057e-14
2.86617e-14
2.51032e-14
2.71358e-14
2.50523e-14
2.22786e-14
1.8596e-14
1.33028e-14
1.65614e-14
1.89024e-14
1.42019e-14
1.32979e-14
1.93421e-14
9.03245e-15
9.95253e-15
1.17785e-14
5.25367e-15
7.38721e-15
1.06822e-14
-1.72597e-15
-1.22818e-15
1.81287e-15
-1.3118e-15
-3.2562e-14
-2.96131e-14
-2.87097e-14
-3.57288e-14
-2.51722e-14
-2.66359e-14
-2.52363e-14
-1.39951e-14
-1.68595e-14
-1.86388e-14
-1.75429e-14
-2.09743e-14
-1.84126e-14
-1.09441e-14
-9.76186e-15
-1.2858e-14
-1.47182e-14
-1.30301e-14
-2.32913e-14
-3.21355e-14
-4.22671e-14
-4.20144e-14
-4.18532e-14
-4.85289e-14
-5.14624e-14
-3.81157e-14
-3.2342e-14
-2.96847e-14
-2.53499e-14
-2.23537e-14
-1.9595e-14
-2.78593e-14
-3.03118e-14
-4.06589e-14
-4.24571e-14
-3.53939e-14
-2.02417e-14
-1.264e-14
-1.98727e-14
-1.92847e-14
-1.79086e-14
-1.90177e-14
-1.33093e-14
-1.16987e-14
-7.73565e-15
-5.01298e-15
-9.57386e-15
-5.37403e-15
-3.04887e-15
-7.04551e-15
-7.34292e-15
-6.42526e-15
-7.72319e-15
-5.43189e-15
-1.54459e-14
-1.22324e-14
-3.72707e-15
5.02964e-15
5.33321e-15
3.06131e-15
8.59173e-16
-3.39564e-15
-5.47006e-15
-4.37382e-15
5.86101e-16
1.01271e-15
-3.2067e-15
-5.10587e-15
-2.6624e-15
1.30409e-14
2.14508e-14
2.15718e-14
2.60188e-14
2.52786e-14
1.67939e-14
1.63474e-14
2.31517e-14
2.28428e-14
2.68416e-14
3.50758e-14
3.68633e-14
2.5806e-14
2.60253e-14
1.6355e-14
1.12108e-14
1.37139e-14
1.52615e-14
1.44579e-14
1.53308e-14
1.81973e-14
9.6453e-15
7.75429e-15
1.07937e-14
1.10304e-14
9.90862e-15
5.06111e-15
-4.12037e-15
1.92996e-16
8.47638e-16
-3.66802e-16
-3.15363e-14
-2.96761e-14
-3.01808e-14
-3.20406e-14
-2.306e-14
-2.05004e-14
-2.46497e-14
-2.46414e-14
-2.13503e-14
-2.29347e-14
-2.09565e-14
-1.65195e-14
-1.68134e-14
-1.15308e-14
-1.51529e-14
-1.70759e-14
-1.81442e-14
-2.17364e-14
-2.79681e-14
-3.62663e-14
-3.8242e-14
-3.67179e-14
-4.32519e-14
-4.60044e-14
-4.43004e-14
-3.87871e-14
-3.97783e-14
-2.92546e-14
-2.43074e-14
-2.3018e-14
-1.82521e-14
-2.08347e-14
-3.08048e-14
-4.53307e-14
-5.19203e-14
-3.17642e-14
-2.21026e-14
-2.17923e-14
-2.09895e-14
-1.26733e-14
-1.35694e-14
-1.75686e-14
-2.36453e-14
-1.51997e-14
-1.07137e-14
-6.24079e-15
-5.34662e-15
-8.05014e-15
-3.90594e-15
-9.00602e-15
-9.97919e-15
-3.27957e-15
-8.10609e-15
-1.30851e-14
-1.01168e-14
-9.22254e-15
-3.92787e-15
-2.09143e-15
2.25603e-15
1.20443e-15
-5.22473e-16
-3.61653e-15
-6.73716e-15
-3.29302e-15
-1.3639e-15
1.72076e-15
-3.69424e-15
-6.47244e-15
-7.44278e-15
1.47564e-15
1.2763e-14
2.5374e-14
2.6707e-14
2.30615e-14
1.81899e-14
1.66887e-14
2.45887e-14
2.6796e-14
3.11391e-14
2.80822e-14
3.05684e-14
3.16275e-14
2.5185e-14
2.45642e-14
1.55521e-14
4.20095e-15
1.58249e-14
1.61871e-14
1.51313e-14
1.61144e-14
9.20527e-15
6.28708e-15
9.7201e-15
9.16441e-15
4.19598e-15
4.9707e-15
-4.37428e-16
3.41279e-15
1.49986e-15
-4.78149e-16
-3.5393e-14
-2.81396e-14
-2.77163e-14
-3.46662e-14
-3.23677e-14
-2.72607e-14
-2.06513e-14
-1.56654e-14
-1.13287e-14
-2.26828e-14
-2.58648e-14
-1.85185e-14
-1.80873e-14
-1.53942e-14
-1.81105e-14
-2.44069e-14
-1.88272e-14
-2.04282e-14
-2.59024e-14
-3.16327e-14
-3.87047e-14
-4.11898e-14
-4.07255e-14
-4.19397e-14
-5.00011e-14
-4.34349e-14
-3.43244e-14
-2.33271e-14
-2.79038e-14
-2.32681e-14
-2.45411e-14
-2.91517e-14
-3.53977e-14
-4.2623e-14
-4.82413e-14
-2.68832e-14
-1.65973e-14
-2.1408e-14
-2.53645e-14
-2.24469e-14
-2.01477e-14
-2.12082e-14
-1.84908e-14
-1.599e-14
-1.59814e-14
-1.25521e-14
-2.29364e-15
-8.53291e-15
-7.73466e-15
-1.23925e-14
-9.08295e-15
-5.25343e-15
-1.2147e-14
-1.32435e-14
-1.06443e-14
-5.747e-15
-2.41127e-15
-6.41138e-15
-3.49732e-15
-1.30615e-15
2.76439e-15
1.42648e-15
-2.72959e-15
-7.26271e-15
-6.65838e-15
-4.34463e-15
-8.4103e-15
-4.58701e-15
-2.55253e-15
-2.55283e-15
3.88018e-15
2.23142e-14
2.86273e-14
2.40061e-14
1.9449e-14
1.16121e-14
2.51415e-14
2.75622e-14
2.27403e-14
2.13295e-14
3.33785e-14
3.90312e-14
2.49683e-14
1.89342e-14
1.60623e-14
1.79269e-14
1.74673e-14
1.21913e-14
1.68211e-14
1.4018e-14
1.02733e-14
7.04368e-15
9.32699e-15
5.59025e-15
4.42725e-15
8.43825e-16
-2.84826e-15
3.06213e-15
2.05194e-15
1.68827e-15
-2.7705e-14
-3.0306e-14
-3.15582e-14
-3.20649e-14
-3.51372e-14
-3.21311e-14
-2.09137e-14
-1.49517e-14
-1.57522e-14
-2.23735e-14
-2.64783e-14
-2.28626e-14
-2.00599e-14
-1.61937e-14
-2.05012e-14
-2.16547e-14
-2.96704e-14
-2.56528e-14
-2.53859e-14
-3.37849e-14
-3.50835e-14
-3.6792e-14
-4.07958e-14
-4.40311e-14
-4.26462e-14
-3.93384e-14
-3.12902e-14
-2.73083e-14
-3.00849e-14
-2.55752e-14
-2.79283e-14
-3.0714e-14
-3.61274e-14
-4.24657e-14
-4.25853e-14
-3.35803e-14
-2.18617e-14
-2.56877e-14
-2.18084e-14
-2.68734e-14
-2.09918e-14
-1.92712e-14
-2.13035e-14
-1.7044e-14
-1.16002e-14
-1.37155e-14
-7.95375e-15
-1.48228e-14
-1.11528e-14
-1.08502e-14
-8.73682e-15
-2.96771e-15
-9.1421e-15
-1.11447e-14
-1.48646e-14
-1.51706e-14
-6.16718e-15
-7.32548e-15
-8.03497e-15
-1.71371e-15
2.04868e-15
3.16499e-15
-3.10567e-16
-4.60146e-15
-6.39313e-15
-2.90583e-15
-6.46279e-15
-8.78361e-15
-6.11258e-15
-5.94407e-15
6.77903e-15
1.7169e-14
1.89305e-14
2.37281e-14
2.2651e-14
1.74924e-14
2.03412e-14
2.03955e-14
2.31916e-14
3.23003e-14
3.29302e-14
3.18272e-14
2.7015e-14
2.91675e-14
2.35906e-14
1.68037e-14
1.14507e-14
8.35866e-15
1.72112e-14
1.11126e-14
8.50476e-15
7.51584e-15
7.20515e-15
4.29358e-15
-1.41392e-15
6.39984e-15
3.3413e-15
-1.22924e-15
2.73869e-15
1.61339e-15
-2.63468e-14
-3.19209e-14
-3.5931e-14
-3.37645e-14
-3.56572e-14
-3.01452e-14
-2.57286e-14
-1.84676e-14
-1.48053e-14
-2.37798e-14
-2.82654e-14
-2.31083e-14
-1.89497e-14
-2.06557e-14
-2.13799e-14
-2.56357e-14
-2.12523e-14
-2.10761e-14
-3.32147e-14
-3.82375e-14
-3.95812e-14
-3.68237e-14
-4.10542e-14
-4.11334e-14
-4.57236e-14
-3.68973e-14
-2.929e-14
-3.07288e-14
-2.93784e-14
-2.77177e-14
-3.07165e-14
-3.46646e-14
-3.41164e-14
-3.87783e-14
-4.28872e-14
-3.50157e-14
-2.87348e-14
-2.81004e-14
-2.49333e-14
-2.95187e-14
-2.37734e-14
-1.80697e-14
-2.04971e-14
-1.75948e-14
-1.43398e-14
-1.8099e-14
-1.41434e-14
-1.38238e-14
-1.04183e-14
-1.3371e-14
-7.98529e-15
-8.03783e-15
-1.24924e-14
-9.99863e-15
-1.14609e-14
-1.14306e-14
-7.50599e-15
-6.11463e-15
-7.07642e-15
-1.18895e-15
5.45205e-15
3.51094e-15
-6.63785e-15
-1.18347e-14
-5.40894e-15
8.70375e-16
-6.38729e-15
-1.41635e-14
-4.94103e-15
-3.22396e-15
4.4497e-15
9.50835e-15
1.28793e-14
1.80351e-14
1.69901e-14
1.44943e-14
2.11102e-14
3.00356e-14
2.81354e-14
2.82487e-14
2.94727e-14
2.66363e-14
2.72206e-14
2.72193e-14
2.38877e-14
1.83653e-14
1.24275e-14
1.8426e-14
1.4241e-14
1.56192e-14
1.1185e-14
5.94474e-15
2.1768e-15
-1.3422e-15
-3.50306e-15
-2.31126e-15
2.6032e-15
2.22057e-15
5.59275e-15
-1.1975e-15
-2.97026e-14
-3.54351e-14
-3.53084e-14
-3.28885e-14
-3.52731e-14
-2.98179e-14
-2.76042e-14
-2.3039e-14
-1.54174e-14
-2.15267e-14
-2.98877e-14
-2.69455e-14
-2.18723e-14
-2.92556e-14
-2.44441e-14
-2.68852e-14
-2.91471e-14
-2.88085e-14
-3.20088e-14
-3.45267e-14
-3.59373e-14
-3.85151e-14
-4.65804e-14
-3.62459e-14
-3.49888e-14
-3.33678e-14
-3.62706e-14
-3.70115e-14
-3.66111e-14
-3.39009e-14
-2.68099e-14
-2.80733e-14
-3.28611e-14
-3.55708e-14
-4.03625e-14
-3.89282e-14
-3.57058e-14
-3.23668e-14
-3.12711e-14
-3.24965e-14
-2.72064e-14
-2.06101e-14
-1.88093e-14
-1.78149e-14
-1.56505e-14
-1.96341e-14
-1.12022e-14
-1.26085e-14
-1.99817e-14
-1.80089e-14
-2.88154e-15
-7.20963e-15
-9.9101e-15
-1.37682e-14
-1.01352e-14
-1.98272e-14
-1.69062e-14
-4.82178e-15
-6.50528e-15
3.68018e-16
1.08226e-14
-9.59108e-16
-7.17962e-15
-2.48544e-15
-5.67181e-15
-2.86466e-15
-5.90494e-15
-1.20974e-14
-8.8378e-15
-7.43544e-15
-2.95635e-15
6.98812e-15
1.72164e-14
1.82439e-14
1.3606e-14
9.99194e-15
1.70696e-14
3.29795e-14
3.11805e-14
2.87588e-14
2.98509e-14
3.16342e-14
2.36041e-14
2.17985e-14
2.4476e-14
2.25427e-14
1.69105e-14
1.57954e-14
1.61734e-14
1.18341e-14
1.15424e-14
5.08829e-15
-2.88696e-15
-6.45308e-15
3.41272e-15
2.62917e-15
5.21745e-16
-2.58639e-15
-4.8088e-15
-1.25332e-15
-3.3815e-14
-3.21562e-14
-3.06998e-14
-3.38848e-14
-3.53115e-14
-3.22537e-14
-2.61476e-14
-2.85728e-14
-2.18139e-14
-2.66298e-14
-2.62412e-14
-2.17003e-14
-2.41131e-14
-3.34475e-14
-3.32354e-14
-3.17003e-14
-2.41412e-14
-2.42855e-14
-3.14908e-14
-4.38415e-14
-4.8412e-14
-4.83857e-14
-4.09765e-14
-3.14846e-14
-3.66607e-14
-3.54996e-14
-3.84907e-14
-3.60297e-14
-3.32157e-14
-3.13026e-14
-2.37749e-14
-2.76632e-14
-4.00165e-14
-3.78863e-14
-3.69769e-14
-3.69463e-14
-3.58587e-14
-3.56658e-14
-3.45724e-14
-3.47484e-14
-2.90189e-14
-2.56176e-14
-2.16341e-14
-1.73017e-14
-1.5705e-14
-1.88745e-14
-1.38347e-14
-1.69773e-14
-1.60617e-14
-1.23961e-14
-9.40157e-15
-1.19453e-14
-1.22088e-14
-6.59089e-15
-5.25441e-15
-2.25909e-14
-2.78274e-14
-7.51585e-15
5.90404e-15
-1.14452e-15
2.07454e-16
1.0524e-15
-6.89046e-15
-3.72791e-15
-5.26571e-15
-7.708e-15
-1.02532e-14
-1.29862e-14
-6.01642e-15
-1.87859e-15
-1.99311e-15
5.0345e-15
1.27768e-14
1.22801e-14
1.09574e-14
1.49107e-14
1.87165e-14
2.96165e-14
3.25773e-14
3.52076e-14
3.16114e-14
2.28613e-14
1.73805e-14
2.1075e-14
2.61587e-14
1.9712e-14
1.37578e-14
1.35307e-14
1.70814e-14
1.18078e-14
1.36487e-14
2.01393e-15
1.14356e-15
-9.44097e-15
-1.36529e-15
1.06241e-15
5.27806e-15
-1.93508e-15
-8.44487e-15
-7.3294e-16
-3.10859e-14
-3.65888e-14
-3.49317e-14
-4.01316e-14
-3.51226e-14
-3.08872e-14
-2.01785e-14
-1.73589e-14
-2.34673e-14
-2.93959e-14
-3.24913e-14
-3.01091e-14
-2.89986e-14
-3.7369e-14
-3.34935e-14
-3.84182e-14
-2.65945e-14
-2.85142e-14
-3.84534e-14
-4.8603e-14
-4.20754e-14
-4.67234e-14
-3.73601e-14
-3.83196e-14
-3.57984e-14
-3.72617e-14
-3.73937e-14
-3.83803e-14
-3.61351e-14
-3.32842e-14
-2.71439e-14
-3.09687e-14
-3.6249e-14
-2.95877e-14
-3.63602e-14
-3.74439e-14