/*--------------------------------*- C++ -*----------------------------------*\
| =========                 |                                                 |
| \\      /  F ield         | OpenFOAM: The Open Source CFD Toolbox           |
|  \\    /   O peration     | Version:  v2012                                 |
|   \\  /    A nd           | Website:  www.openfoam.com                      |
|    \\/     M anipulation  |                                                 |
\*---------------------------------------------------------------------------*/
FoamFile
{
    version     2.0;
    format      ascii;
    class       surfaceScalarField;
    location    "14.5";
    object      phi;
}
// * * * * * * * * * * * * * * * * * * * * * * * * * * * * * * * * * * * * * //

dimensions      [0 3 -1 0 0 0 0];
oriented        oriented;


internalField   nonuniform List<scalar> 
130560
(
3.43518e-06
-3.43518e-06
6.87057e-06
-3.43539e-06
1.03064e-05
-3.43582e-06
1.37429e-05
-3.43646e-06
1.71802e-05
-3.43731e-06
2.06185e-05
-3.43837e-06
2.40582e-05
-3.43963e-06
2.74993e-05
-3.4411e-06
3.0942e-05
-3.44276e-06
3.43866e-05
-3.44462e-06
3.78333e-05
-3.44667e-06
4.12822e-05
-3.4489e-06
4.47335e-05
-3.45132e-06
4.81874e-05
-3.4539e-06
5.16441e-05
-3.45665e-06
5.51036e-05
-3.45956e-06
5.85662e-05
-3.46261e-06
6.20321e-05
-3.46581e-06
6.55012e-05
-3.46913e-06
6.89738e-05
-3.47258e-06
7.24499e-05
-3.47614e-06
7.59297e-05
-3.47979e-06
7.94132e-05
-3.48353e-06
8.29006e-05
-3.48734e-06
8.63918e-05
-3.49122e-06
8.98869e-05
-3.49513e-06
9.3386e-05
-3.49908e-06
9.6889e-05
-3.50305e-06
0.000100396
-3.50701e-06
0.000103907
-3.51096e-06
0.000107422
-3.51486e-06
0.000110941
-3.51872e-06
0.000114463
-3.5225e-06
0.000117989
-3.52618e-06
0.000121519
-3.52975e-06
0.000125052
-3.53318e-06
0.000128589
-3.53646e-06
0.000132128
-3.53954e-06
0.000135671
-3.54243e-06
0.000139216
-3.54508e-06
0.000142763
-3.54747e-06
0.000146313
-3.54957e-06
0.000149864
-3.55136e-06
0.000153417
-3.55281e-06
0.000156971
-3.5539e-06
0.000160525
-3.55458e-06
0.00016408
-3.55483e-06
0.000167635
-3.55461e-06
0.000171189
-3.55391e-06
0.000174741
-3.55267e-06
0.000178292
-3.55088e-06
0.000181841
-3.54849e-06
0.000185386
-3.54547e-06
0.000188928
-3.54178e-06
0.000192465
-3.53739e-06
0.000195998
-3.53226e-06
0.000199524
-3.52636e-06
0.000203044
-3.51964e-06
0.000206556
-3.51207e-06
0.000210059
-3.50361e-06
0.000213554
-3.49423e-06
0.000217037
-3.48387e-06
0.00022051
-3.47252e-06
0.00022397
-3.46012e-06
0.000227417
-3.44663e-06
0.000230849
-3.43203e-06
0.000234265
-3.41627e-06
0.000237664
-3.39931e-06
0.000241045
-3.38111e-06
0.000244407
-3.36165e-06
0.000247748
-3.34088e-06
0.000251067
-3.31876e-06
0.000254362
-3.29527e-06
0.000257632
-3.27037e-06
0.000260876
-3.24403e-06
0.000264093
-3.21622e-06
0.00026728
-3.1869e-06
0.000270436
-3.15605e-06
0.000273559
-3.12364e-06
0.000276649
-3.08965e-06
0.000279703
-3.05405e-06
0.00028272
-3.01683e-06
0.000285698
-2.97796e-06
0.000288635
-2.93743e-06
0.00029153
-2.89522e-06
0.000294382
-2.85133e-06
0.000297187
-2.80574e-06
0.000299946
-2.75845e-06
0.000302655
-2.70945e-06
0.000305314
-2.65874e-06
0.00030792
-2.60633e-06
0.000310473
-2.55222e-06
0.000312969
-2.49642e-06
0.000315408
-2.43893e-06
0.000317788
-2.37979e-06
0.000320107
-2.31899e-06
0.000322363
-2.25657e-06
0.000324556
-2.19256e-06
0.000326683
-2.12697e-06
0.000328743
-2.05983e-06
0.000330734
-1.9912e-06
0.000332655
-1.92109e-06
0.000334504
-1.84956e-06
0.000336281
-1.77665e-06
0.000337984
-1.70241e-06
0.00033961
-1.62688e-06
0.000341161
-1.55012e-06
0.000342633
-1.47219e-06
0.000344026
-1.39315e-06
0.000345339
-1.31305e-06
0.000346571
-1.23197e-06
0.000347721
-1.14997e-06
0.000348788
-1.06712e-06
0.000349771
-9.83485e-07
0.000350671
-8.99145e-07
0.000351485
-8.14173e-07
0.000352213
-7.28644e-07
0.000352856
-6.42635e-07
0.000353412
-5.56223e-07
0.000353882
-4.6949e-07
0.000354264
-3.82512e-07
0.00035456
-2.95371e-07
0.000354768
-2.08147e-07
0.000354889
-1.20919e-07
0.000354923
-3.37677e-08
0.000354869
5.32281e-08
0.000354729
1.3999e-07
0.000354503
2.26439e-07
0.00035419
3.125e-07
0.000353792
3.98097e-07
0.000353309
4.83156e-07
0.000352741
5.67606e-07
0.00035209
6.51374e-07
0.000351356
7.34394e-07
0.000350539
8.16598e-07
0.000349641
8.97923e-07
0.000348663
9.78307e-07
0.000347605
1.05769e-06
0.000346469
1.13602e-06
0.000345256
1.21323e-06
0.000343967
1.28929e-06
0.000342603
1.36413e-06
0.000341165
1.43773e-06
0.000339655
1.51002e-06
0.000338074
1.58097e-06
0.000336423
1.65056e-06
0.000334705
1.71874e-06
0.000332919
1.78548e-06
0.000331068
1.85076e-06
0.000329154
1.91455e-06
0.000327177
1.97683e-06
0.000325139
2.03759e-06
0.000323043
2.0968e-06
0.000320888
2.15446e-06
0.000318678
2.21055e-06
0.000316412
2.26508e-06
0.000314094
2.31803e-06
0.000311725
2.3694e-06
0.000309306
2.4192e-06
0.000306838
2.46742e-06
0.000304324
2.51407e-06
0.000301765
2.55917e-06
0.000299162
2.60271e-06
0.000296518
2.64471e-06
0.000293833
2.68519e-06
0.000291108
2.72416e-06
0.000288347
2.76164e-06
0.000285549
2.79764e-06
0.000282717
2.83219e-06
0.000279852
2.86531e-06
0.000276955
2.89702e-06
0.000274027
2.92734e-06
0.000271071
2.9563e-06
0.000268087
2.98393e-06
0.000265077
3.01025e-06
0.000262041
3.03529e-06
0.000258982
3.05908e-06
0.000255901
3.08164e-06
0.000252798
3.10302e-06
0.000249674
3.12323e-06
0.000246532
3.14232e-06
0.000243372
3.1603e-06
0.000240195
3.17721e-06
0.000237002
3.19308e-06
0.000233794
3.20795e-06
0.000230572
3.22184e-06
0.000227337
3.23479e-06
0.00022409
3.24682e-06
0.000220832
3.25797e-06
0.000217564
3.26828e-06
0.000214286
3.27776e-06
0.000211
3.28646e-06
0.000207705
3.29439e-06
0.000204404
3.3016e-06
0.000201096
3.30811e-06
0.000197782
3.31395e-06
0.000194463
3.31915e-06
0.000191139
3.32374e-06
0.000187811
3.32774e-06
0.00018448
3.33119e-06
0.000181146
3.33411e-06
0.000177809
3.33653e-06
0.000174471
3.33847e-06
0.000171131
3.33995e-06
0.00016779
3.34102e-06
0.000164448
3.34168e-06
0.000161106
3.34196e-06
0.000157764
3.34189e-06
0.000154423
3.34149e-06
0.000151082
3.34078e-06
0.000147742
3.33978e-06
0.000144404
3.33851e-06
0.000141067
3.337e-06
0.000137731
3.33526e-06
0.000134398
3.33332e-06
0.000131067
3.33118e-06
0.000127738
3.32888e-06
0.000124412
3.32642e-06
0.000121088
3.32382e-06
0.000117767
3.32111e-06
0.000114448
3.31829e-06
0.000111133
3.31539e-06
0.000107821
3.31241e-06
0.000104511
3.30937e-06
0.000101205
3.30629e-06
9.79018e-05
3.30318e-06
9.46017e-05
3.30004e-06
9.13048e-05
3.2969e-06
8.80111e-05
3.29377e-06
8.47204e-05
3.29065e-06
8.14328e-05
3.28756e-06
7.81483e-05
3.28451e-06
7.48668e-05
3.2815e-06
7.15883e-05
3.27855e-06
6.83126e-05
3.27567e-06
6.50398e-05
3.27286e-06
6.17696e-05
3.27013e-06
5.85021e-05
3.2675e-06
5.52372e-05
3.26496e-06
5.19746e-05
3.26252e-06
4.87144e-05
3.2602e-06
4.54565e-05
3.25799e-06
4.22005e-05
3.25591e-06
3.89466e-05
3.25395e-06
3.56945e-05
3.25213e-06
3.2444e-05
3.25044e-06
2.91951e-05
3.24889e-06
2.59476e-05
3.24749e-06
2.27014e-05
3.24623e-06
1.94563e-05
3.24513e-06
1.62121e-05
3.24418e-06
1.29687e-05
3.24338e-06
9.72598e-06
3.24274e-06
6.48372e-06
3.24226e-06
3.24178e-06
3.24194e-06
3.24178e-06
3.43497e-06
-6.87015e-06
6.87015e-06
-6.87058e-06
1.03058e-05
-6.87143e-06
1.3742e-05
-6.87271e-06
1.71791e-05
-6.87441e-06
2.06173e-05
-6.87653e-06
2.40567e-05
-6.87906e-06
2.74976e-05
-6.882e-06
3.09402e-05
-6.88533e-06
3.43846e-05
-6.88905e-06
3.78311e-05
-6.89316e-06
4.12798e-05
-6.89763e-06
4.4731e-05
-6.90246e-06
4.81847e-05
-6.90764e-06
5.16412e-05
-6.91315e-06
5.51006e-05
-6.91897e-06
5.85631e-05
-6.92509e-06
6.20288e-05
-6.93149e-06
6.54978e-05
-6.93815e-06
6.89703e-05
-6.94505e-06
7.24463e-05
-6.95218e-06
7.5926e-05
-6.9595e-06
7.94095e-05
-6.96699e-06
8.28968e-05
-6.97463e-06
8.63879e-05
-6.98239e-06
8.9883e-05
-6.99024e-06
9.33821e-05
-6.99815e-06
9.68852e-05
-7.0061e-06
0.000100392
-7.01404e-06
0.000103903
-7.02195e-06
0.000107418
-7.02979e-06
0.000110937
-7.03751e-06
0.000114459
-7.04509e-06
0.000117986
-7.05248e-06
0.000121516
-7.05964e-06
0.000125049
-7.06653e-06
0.000128586
-7.0731e-06
0.000132125
-7.0793e-06
0.000135668
-7.08509e-06
0.000139213
-7.09041e-06
0.000142761
-7.09522e-06
0.000146311
-7.09946e-06
0.000149863
-7.10307e-06
0.000153416
-7.106e-06
0.00015697
-7.10819e-06
0.000160525
-7.10959e-06
0.000164081
-7.11012e-06
0.000167636
-7.10973e-06
0.00017119
-7.10835e-06
0.000174743
-7.10591e-06
0.000178295
-7.10235e-06
0.000181844
-7.09761e-06
0.00018539
-7.0916e-06
0.000188933
-7.08426e-06
0.000192471
-7.07552e-06
0.000196004
-7.0653e-06
0.000199531
-7.05353e-06
0.000203051
-7.04013e-06
0.000206564
-7.02503e-06
0.000210069
-7.00815e-06
0.000213564
-6.98942e-06
0.000217049
-6.96875e-06
0.000220523
-6.94608e-06
0.000223984
-6.92131e-06
0.000227431
-6.89439e-06
0.000230865
-6.86522e-06
0.000234282
-6.83373e-06
0.000237683
-6.79985e-06
0.000241065
-6.7635e-06
0.000244428
-6.7246e-06
0.00024777
-6.6831e-06
0.00025109
-6.6389e-06
0.000254387
-6.59196e-06
0.000257659
-6.54219e-06
0.000260904
-6.48954e-06
0.000264122
-6.43393e-06
0.000267311
-6.37532e-06
0.000270468
-6.31365e-06
0.000273593
-6.24886e-06
0.000276685
-6.1809e-06
0.00027974
-6.10972e-06
0.000282759
-6.0353e-06
0.000285738
-5.95758e-06
0.000288677
-5.87653e-06
0.000291574
-5.79213e-06
0.000294427
-5.70435e-06
0.000297235
-5.61318e-06
0.000299995
-5.5186e-06
0.000302706
-5.4206e-06
0.000305367
-5.31918e-06
0.000307975
-5.21435e-06
0.000310528
-5.10612e-06
0.000313027
-4.99451e-06
0.000315467
-4.87953e-06
0.000317849
-4.76122e-06
0.000320169
-4.63961e-06
0.000322427
-4.51475e-06
0.000324622
-4.38668e-06
0.00032675
-4.25547e-06
0.000328811
-4.12117e-06
0.000330804
-3.98386e-06
0.000332727
-3.84361e-06
0.000334577
-3.7005e-06
0.000336355
-3.55463e-06
0.000338059
-3.40609e-06
0.000339687
-3.25498e-06
0.000341239
-3.10141e-06
0.000342712
-2.94549e-06
0.000344106
-2.78734e-06
0.00034542
-2.62709e-06
0.000346653
-2.46486e-06
0.000347804
-2.30078e-06
0.000348872
-2.13501e-06
0.000349856
-1.96767e-06
0.000350756
-1.79892e-06
0.00035157
-1.6289e-06
0.000352299
-1.45776e-06
0.000352942
-1.28567e-06
0.000353499
-1.11277e-06
0.000353969
-9.39218e-07
0.000354351
-7.65183e-07
0.000354647
-5.90821e-07
0.000354855
-4.16293e-07
0.000354976
-2.41757e-07
0.000355009
-6.73754e-08
0.000354956
1.06695e-07
0.000354816
2.80296e-07
0.000354589
4.53271e-07
0.000354276
6.25469e-07
0.000353877
7.96736e-07
0.000353393
9.66927e-07
0.000352825
1.1359e-06
0.000352173
1.3035e-06
0.000351438
1.46961e-06
0.00035062
1.63408e-06
0.000349722
1.79679e-06
0.000348742
1.95762e-06
0.000347683
2.11644e-06
0.000346546
2.27315e-06
0.000345332
2.42763e-06
0.000344041
2.57979e-06
0.000342676
2.72953e-06
0.000341237
2.87675e-06
0.000339726
3.02138e-06
0.000338143
3.16333e-06
0.000336491
3.30253e-06
0.000334771
3.43891e-06
0.000332984
3.57242e-06
0.000331132
3.703e-06
0.000329216
3.83061e-06
0.000327238
3.95519e-06
0.000325198
4.07672e-06
0.0003231
4.19516e-06
0.000320944
4.31048e-06
0.000318732
4.42268e-06
0.000316465
4.53174e-06
0.000314146
4.63763e-06
0.000311775
4.74038e-06
0.000309354
4.83997e-06
0.000306885
4.9364e-06
0.000304369
5.0297e-06
0.000301809
5.11988e-06
0.000299204
5.20696e-06
0.000296558
5.29095e-06
0.000293871
5.3719e-06
0.000291146
5.44982e-06
0.000288383
5.52475e-06
0.000285583
5.59674e-06
0.00028275
5.66582e-06
0.000279883
5.73203e-06
0.000276985
5.79542e-06
0.000274056
5.85604e-06
0.000271098
5.91393e-06
0.000268113
5.96916e-06
0.000265102
6.02177e-06
0.000262065
6.07182e-06
0.000259005
6.11937e-06
0.000255922
6.16448e-06
0.000252818
6.2072e-06
0.000249693
6.2476e-06
0.00024655
6.28573e-06
0.000243389
6.32166e-06
0.00024021
6.35545e-06
0.000237016
6.38717e-06
0.000233807
6.41687e-06
0.000230585
6.44462e-06
0.000227349
6.47049e-06
0.000224101
6.49452e-06
0.000220842
6.5168e-06
0.000217573
6.53737e-06
0.000214295
6.55631e-06
0.000211008
6.57367e-06
0.000207712
6.58951e-06
0.00020441
6.6039e-06
0.000201101
6.61689e-06
0.000197787
6.62854e-06
0.000194467
6.63891e-06
0.000191143
6.64806e-06
0.000187814
6.65604e-06
0.000184483
6.66291e-06
0.000181148
6.66872e-06
0.000177811
6.67353e-06
0.000174472
6.67738e-06
0.000171132
6.68033e-06
0.00016779
6.68244e-06
0.000164448
6.68373e-06
0.000161106
6.68428e-06
0.000157764
6.68412e-06
0.000154422
6.68329e-06
0.000151081
6.68185e-06
0.000147741
6.67983e-06
0.000144402
6.67727e-06
0.000141065
6.67423e-06
0.000137729
6.67073e-06
0.000134396
6.66682e-06
0.000131065
6.66253e-06
0.000127735
6.6579e-06
0.000124409
6.65297e-06
0.000121085
6.64776e-06
0.000117764
6.64232e-06
0.000114445
6.63667e-06
0.00011113
6.63084e-06
0.000107817
6.62487e-06
0.000104508
6.61879e-06
0.000101202
6.61261e-06
9.78986e-05
6.60637e-06
9.45985e-05
6.60009e-06
9.13016e-05
6.5938e-06
8.80079e-05
6.58752e-06
8.47173e-05
6.58127e-06
8.14297e-05
6.57508e-06
7.81453e-05
6.56896e-06
7.48638e-05
6.56294e-06
7.15854e-05
6.55703e-06
6.83098e-05
6.55126e-06
6.5037e-05
6.54563e-06
6.1767e-05
6.54017e-06
5.84996e-05
6.5349e-06
5.52347e-05
6.52981e-06
5.19723e-05
6.52494e-06
4.87122e-05
6.52028e-06
4.54543e-05
6.51586e-06
4.21986e-05
6.51169e-06
3.89447e-05
6.50777e-06
3.56928e-05
6.50412e-06
3.24425e-05
6.50073e-06
2.91937e-05
6.49764e-06
2.59464e-05
6.49483e-06
2.27003e-05
6.49231e-06
1.94553e-05
6.4901e-06
1.62113e-05
6.4882e-06
1.29681e-05
6.4866e-06
9.7255e-06
6.48532e-06
6.4834e-06
6.48436e-06
3.24162e-06
6.48372e-06
6.4834e-06
3.43454e-06
-1.03047e-05
6.8693e-06
-1.03053e-05
1.03045e-05
-1.03066e-05
1.37403e-05
-1.03085e-05
1.7177e-05
-1.03111e-05
2.06147e-05
-1.03143e-05
2.40538e-05
-1.03181e-05
2.74943e-05
-1.03225e-05
3.09364e-05
-1.03275e-05
3.43805e-05
-1.03331e-05
3.78266e-05
-1.03393e-05
4.1275e-05
-1.0346e-05
4.47258e-05
-1.03533e-05
4.81792e-05
-1.0361e-05
5.16354e-05
-1.03693e-05
5.50945e-05
-1.03781e-05
5.85567e-05
-1.03873e-05
6.20221e-05
-1.03969e-05
6.54909e-05
-1.04069e-05
6.89631e-05
-1.04173e-05
7.2439e-05
-1.0428e-05
7.59185e-05
-1.0439e-05
7.94018e-05
-1.04503e-05
8.2889e-05
-1.04618e-05
8.63801e-05
-1.04735e-05
8.98751e-05
-1.04853e-05
9.33741e-05
-1.04972e-05
9.68772e-05
-1.05092e-05
0.000100384
-1.05211e-05
0.000103895
-1.0533e-05
0.00010741
-1.05448e-05
0.000110929
-1.05565e-05
0.000114452
-1.05679e-05
0.000117979
-1.0579e-05
0.000121509
-1.05898e-05
0.000125042
-1.06002e-05
0.000128579
-1.06101e-05
0.00013212
-1.06195e-05
0.000135663
-1.06282e-05
0.000139209
-1.06363e-05
0.000142757
-1.06435e-05
0.000146307
-1.065e-05
0.00014986
-1.06555e-05
0.000153414
-1.06599e-05
0.000156969
-1.06633e-05
0.000160525
-1.06655e-05
0.000164081
-1.06663e-05
0.000167637
-1.06658e-05
0.000171193
-1.06638e-05
0.000174747
-1.06603e-05
0.0001783
-1.0655e-05
0.00018185
-1.0648e-05
0.000185397
-1.06391e-05
0.000188941
-1.06281e-05
0.000192481
-1.06151e-05
0.000196015
-1.05999e-05
0.000199544
-1.05823e-05
0.000203066
-1.05623e-05
0.000206581
-1.05398e-05
0.000210088
-1.05146e-05
0.000213585
-1.04865e-05
0.000217072
-1.04556e-05
0.000220547
-1.04217e-05
0.000224011
-1.03847e-05
0.000227461
-1.03444e-05
0.000230896
-1.03007e-05
0.000234316
-1.02536e-05
0.000237719
-1.02029e-05
0.000241104
-1.01484e-05
0.000244469
-1.00902e-05
0.000247814
-1.0028e-05
0.000251137
-9.9618e-06
0.000254437
-9.89146e-06
0.000257711
-9.81689e-06
0.00026096
-9.73799e-06
0.000264181
-9.65466e-06
0.000267372
-9.56681e-06
0.000270533
-9.47437e-06
0.000273661
-9.37724e-06
0.000276756
-9.27536e-06
0.000279815
-9.16865e-06
0.000282836
-9.05706e-06
0.000285819
-8.94052e-06
0.000288762
-8.81899e-06
0.000291662
-8.69242e-06
0.000294519
-8.56077e-06
0.000297329
-8.42403e-06
0.000300093
-8.28217e-06
0.000302808
-8.13517e-06
0.000305471
-7.98304e-06
0.000308083
-7.82578e-06
0.00031064
-7.66342e-06
0.000313142
-7.49596e-06
0.000315585
-7.32346e-06
0.00031797
-7.14594e-06
0.000320294
-6.96348e-06
0.000322555
-6.77612e-06
0.000324753
-6.58395e-06
0.000326884
-6.38705e-06
0.000328949
-6.18552e-06
0.000330944
-5.97946e-06
0.00033287
-5.76898e-06
0.000334723
-5.55421e-06
0.000336504
-5.33529e-06
0.00033821
-5.11235e-06
0.000339841
-4.88555e-06
0.000341394
-4.65505e-06
0.00034287
-4.42102e-06
0.000344266
-4.18364e-06
0.000345582
-3.9431e-06
0.000346817
-3.69958e-06
0.00034797
-3.45331e-06
0.000349039
-3.20446e-06
0.000350025
-2.95328e-06
0.000350926
-2.69996e-06
0.000351741
-2.44474e-06
0.000352472
-2.18784e-06
0.000353115
-1.9295e-06
0.000353673
-1.66995e-06
0.000354143
-1.40943e-06
0.000354526
-1.14818e-06
0.000354821
-8.86439e-07
0.00035503
-6.24446e-07
0.00035515
-3.62444e-07
0.000355184
-1.00672e-07
0.00035513
1.6063e-07
0.000354989
4.21226e-07
0.000354761
6.80881e-07
0.000354447
9.39365e-07
0.000354047
1.19645e-06
0.000353562
1.45192e-06
0.000352993
1.70555e-06
0.000352339
1.95713e-06
0.000351602
2.20645e-06
0.000350783
2.45332e-06
0.000349882
2.69754e-06
0.000348901
2.93893e-06
0.00034784
3.17731e-06
0.000346701
3.41251e-06
0.000345484
3.64436e-06
0.000344191
3.87272e-06
0.000342823
4.09743e-06
0.000341382
4.31837e-06
0.000339868
4.53541e-06
0.000338283
4.74842e-06
0.000336628
4.95731e-06
0.000334905
5.16196e-06
0.000333115
5.3623e-06
0.00033126
5.55823e-06
0.000329341
5.74968e-06
0.000327359
5.9366e-06
0.000325317
6.11893e-06
0.000323215
6.29662e-06
0.000321056
6.46964e-06
0.000318841
6.63795e-06
0.000316571
6.80154e-06
0.000314248
6.9604e-06
0.000311874
7.11451e-06
0.00030945
7.26388e-06
0.000306978
7.40853e-06
0.000304459
7.54846e-06
0.000301896
7.6837e-06
0.000299288
7.81429e-06
0.000296639
7.94025e-06
0.000293949
8.06162e-06
0.000291221
8.17846e-06
0.000288455
8.29082e-06
0.000285653
8.39875e-06
0.000282816
8.50231e-06
0.000279947
8.60157e-06
0.000277045
8.69659e-06
0.000274114
8.78746e-06
0.000271154
8.87424e-06
0.000268166
8.95701e-06
0.000265152
9.03586e-06
0.000262113
9.11087e-06
0.00025905
9.18212e-06
0.000255965
9.2497e-06
0.000252858
9.31371e-06
0.000249732
9.37423e-06
0.000246586
9.43135e-06
0.000243422
9.48517e-06
0.000240242
9.53578e-06
0.000237046
9.58327e-06
0.000233835
9.62775e-06
0.000230611
9.66929e-06
0.000227373
9.70801e-06
0.000224124
9.74399e-06
0.000220863
9.77732e-06
0.000217592
9.80811e-06
0.000214312
9.83644e-06
0.000211023
9.8624e-06
0.000207727
9.88609e-06
0.000204423
9.90759e-06
0.000201113
9.927e-06
0.000197797
9.94441e-06
0.000194476
9.95989e-06
0.000191151
9.97354e-06
0.000187821
9.98545e-06
0.000184488
9.99568e-06
0.000181153
1.00043e-05
0.000177815
1.00115e-05
0.000174475
1.00172e-05
0.000171134
1.00216e-05
0.000167792
1.00247e-05
0.000164449
1.00265e-05
0.000161106
1.00273e-05
0.000157763
1.0027e-05
0.000154421
1.00257e-05
0.000151079
1.00235e-05
0.000147738
1.00204e-05
0.000144399
1.00165e-05
0.000141061
1.00119e-05
0.000137725
1.00066e-05
0.000134392
1.00007e-05
0.00013106
9.99422e-06
0.000127731
9.98723e-06
0.000124404
9.97979e-06
0.00012108
9.97194e-06
0.000117758
9.96374e-06
0.00011444
9.95522e-06
0.000111124
9.94645e-06
0.000107811
9.93746e-06
0.000104502
9.92829e-06
0.000101196
9.91899e-06
9.78923e-05
9.9096e-06
9.45923e-05
9.90015e-06
9.12954e-05
9.89068e-06
8.80016e-05
9.88124e-06
8.47111e-05
9.87184e-06
8.14236e-05
9.86252e-06
7.81393e-05
9.85332e-06
7.48579e-05
9.84427e-06
7.15796e-05
9.83539e-06
6.83042e-05
9.8267e-06
6.50315e-05
9.81824e-06
6.17617e-05
9.81004e-06
5.84945e-05
9.8021e-06
5.52298e-05
9.79446e-06
5.19676e-05
9.78713e-06
4.87078e-05
9.78013e-06
4.54502e-05
9.77349e-06
4.21946e-05
9.76721e-06
3.89411e-05
9.76132e-06
3.56894e-05
9.75583e-06
3.24394e-05
9.75075e-06
2.91909e-05
9.74609e-06
2.59439e-05
9.74187e-06
2.26981e-05
9.73809e-06
1.94534e-05
9.73477e-06
1.62097e-05
9.73191e-06
1.29668e-05
9.72951e-06
9.72454e-06
9.72758e-06
6.48276e-06
9.72614e-06
3.2413e-06
9.72518e-06
9.7247e-06
3.4339e-06
-1.37386e-05
6.86801e-06
-1.37394e-05
1.03026e-05
-1.37412e-05
1.37377e-05
-1.37437e-05
1.71738e-05
-1.37472e-05
2.06109e-05
-1.37514e-05
2.40493e-05
-1.37565e-05
2.74892e-05
-1.37624e-05
3.09308e-05
-1.37691e-05
3.43743e-05
-1.37766e-05
3.78199e-05
-1.37848e-05
4.12677e-05
-1.37938e-05
4.4718e-05
-1.38035e-05
4.81709e-05
-1.3814e-05
5.16266e-05
-1.3825e-05
5.50853e-05
-1.38367e-05
5.8547e-05
-1.3849e-05
6.20121e-05
-1.38619e-05
6.54805e-05
-1.38753e-05
6.89524e-05
-1.38892e-05
7.24279e-05
-1.39036e-05
7.59072e-05
-1.39183e-05
7.93903e-05
-1.39334e-05
8.28773e-05
-1.39488e-05
8.63682e-05
-1.39644e-05
8.98632e-05
-1.39802e-05
9.33621e-05
-1.39962e-05
9.68652e-05
-1.40122e-05
0.000100372
-1.40282e-05
0.000103883
-1.40442e-05
0.000107399
-1.406e-05
0.000110918
-1.40756e-05
0.000114441
-1.40909e-05
0.000117968
-1.41059e-05
0.000121498
-1.41204e-05
0.000125032
-1.41343e-05
0.00012857
-1.41477e-05
0.000132111
-1.41603e-05
0.000135655
-1.4172e-05
0.000139201
-1.41829e-05
0.00014275
-1.41927e-05
0.000146302
-1.42014e-05
0.000149855
-1.42089e-05
0.00015341
-1.4215e-05
0.000156967
-1.42196e-05
0.000160524
-1.42226e-05
0.000164081
-1.42239e-05
0.000167639
-1.42234e-05
0.000171196
-1.42209e-05
0.000174752
-1.42163e-05
0.000178307
-1.42095e-05
0.000181859
-1.42003e-05
0.000185408
-1.41885e-05
0.000188954
-1.41741e-05
0.000192496
-1.41569e-05
0.000196033
-1.41368e-05
0.000199564
-1.41136e-05
0.000203089
-1.40871e-05
0.000206606
-1.40572e-05
0.000210116
-1.40237e-05
0.000213616
-1.39866e-05
0.000217105
-1.39456e-05
0.000220584
-1.39005e-05
0.000224051
-1.38513e-05
0.000227504
-1.37977e-05
0.000230943
-1.37397e-05
0.000234367
-1.3677e-05
0.000237773
-1.36096e-05
0.000241162
-1.35372e-05
0.000244532
-1.34597e-05
0.000247881
-1.33769e-05
0.000251208
-1.32888e-05
0.000254511
-1.31952e-05
0.00025779
-1.30959e-05
0.000261043
-1.29909e-05
0.000264268
-1.28799e-05
0.000267465
-1.27629e-05
0.00027063
-1.26398e-05
0.000273763
-1.25104e-05
0.000276862
-1.23747e-05
0.000279926
-1.22325e-05
0.000282953
-1.20838e-05
0.000285941
-1.19285e-05
0.000288888
-1.17665e-05
0.000291794
-1.15978e-05
0.000294655
-1.14223e-05
0.000297471
-1.124e-05
0.00030024
-1.10509e-05
0.00030296
-1.08549e-05
0.000305629
-1.0652e-05
0.000308245
-1.04423e-05
0.000310808
-1.02258e-05
0.000313314
-1.00025e-05
0.000315763
-9.77239e-06
0.000318153
-9.53562e-06
0.000320481
-9.29223e-06
0.000322748
-9.04231e-06
0.00032495
-8.78596e-06
0.000327086
-8.52328e-06
0.000329155
-8.25441e-06
0.000331155
-7.97948e-06
0.000333084
-7.69865e-06
0.000334942
-7.41208e-06
0.000336727
-7.11995e-06
0.000338437
-6.82246e-06
0.000340071
-6.51981e-06
0.000341628
-6.21221e-06
0.000343107
-5.8999e-06
0.000344507
-5.5831e-06
0.000345826
-5.26208e-06
0.000347063
-4.93708e-06
0.000348218
-4.60839e-06
0.00034929
-4.27627e-06
0.000350278
-3.94101e-06
0.000351181
-3.60291e-06
0.000351998
-3.26226e-06
0.00035273
-2.91937e-06
0.000353375
-2.57455e-06
0.000353933
-2.22812e-06
0.000354404
-1.88038e-06
0.000354788
-1.53167e-06
0.000355083
-1.18231e-06
0.000355292
-8.3261e-07
0.000355412
-4.829e-07
0.000355445
-1.33501e-07
0.00035539
2.1527e-07
0.000355248
5.63094e-07
0.00035502
9.0966e-07
0.000354704
1.25466e-06
0.000354303
1.59779e-06
0.000353816
1.93875e-06
0.000353244
2.27725e-06
0.000352589
2.61301e-06
0.000351849
2.94575e-06
0.000351027
3.27521e-06
0.000350124
3.60113e-06
0.000349139
3.92325e-06
0.000348075
4.24136e-06
0.000346933
4.5552e-06
0.000345713
4.86458e-06
0.000344416
5.16928e-06
0.000343044
5.46911e-06
0.000341599
5.7639e-06
0.000340081
6.05346e-06
0.000338491
6.33765e-06
0.000336832
6.61632e-06
0.000335105
6.88933e-06
0.000333311
7.15657e-06
0.000331451
7.41792e-06
0.000329528
7.6733e-06
0.000327542
7.92261e-06
0.000325495
8.16579e-06
0.000323389
8.40277e-06
0.000321225
8.6335e-06
0.000319005
8.85795e-06
0.00031673
9.07609e-06
0.000314403
9.2879e-06
0.000312024
9.49338e-06
0.000309595
9.69253e-06
0.000307118
9.88537e-06
0.000304595
1.00719e-05
0.000302026
1.02522e-05
0.000299414
1.04262e-05
0.00029676
1.05941e-05
0.000294066
1.07559e-05
0.000291333
1.09116e-05
0.000288563
1.10613e-05
0.000285756
1.12051e-05
0.000282915
1.13431e-05
0.000280042
1.14753e-05
0.000277136
1.16019e-05
0.000274201
1.1723e-05
0.000271237
1.18385e-05
0.000268245
1.19488e-05
0.000265227
1.20538e-05
0.000262184
1.21537e-05
0.000259118
1.22485e-05
0.000256029
1.23385e-05
0.000252919
1.24237e-05
0.000249789
1.25042e-05
0.00024664
1.25803e-05
0.000243473
1.26519e-05
0.00024029
1.27192e-05
0.000237091
1.27824e-05
0.000233877
1.28415e-05
0.000230649
1.28968e-05
0.000227409
1.29483e-05
0.000224157
1.29961e-05
0.000220894
1.30404e-05
0.000217621
1.30813e-05
0.000214338
1.31189e-05
0.000211047
1.31534e-05
0.000207748
1.31848e-05
0.000204443
1.32134e-05
0.00020113
1.32391e-05
0.000197813
1.32622e-05
0.00019449
1.32827e-05
0.000191163
1.33008e-05
0.000187832
1.33165e-05
0.000184497
1.333e-05
0.00018116
1.33415e-05
0.000177821
1.33509e-05
0.00017448
1.33584e-05
0.000171137
1.33641e-05
0.000167794
1.33681e-05
0.00016445
1.33705e-05
0.000161106
1.33714e-05
0.000157762
1.33709e-05
0.000154418
1.33691e-05
0.000151076
1.3366e-05
0.000147734
1.33618e-05
0.000144394
1.33565e-05
0.000141056
1.33503e-05
0.00013772
1.33431e-05
0.000134385
1.33351e-05
0.000131053
1.33264e-05
0.000127723
1.3317e-05
0.000124396
1.3307e-05
0.000121071
1.32965e-05
0.00011775
1.32855e-05
0.000114431
1.3274e-05
0.000111115
1.32623e-05
0.000107802
1.32502e-05
0.000104493
1.32379e-05
0.000101186
1.32255e-05
9.78829e-05
1.32129e-05
9.45828e-05
1.32002e-05
9.12859e-05
1.31876e-05
8.79923e-05
1.31749e-05
8.47018e-05
1.31623e-05
8.14145e-05
1.31499e-05
7.81302e-05
1.31375e-05
7.48491e-05
1.31254e-05
7.15709e-05
1.31135e-05
6.82957e-05
1.31019e-05
6.50234e-05
1.30906e-05
6.17538e-05
1.30796e-05
5.84869e-05
1.3069e-05
5.52225e-05
1.30588e-05
5.19607e-05
1.3049e-05
4.87012e-05
1.30396e-05
4.54439e-05
1.30307e-05
4.21888e-05
1.30224e-05
3.89356e-05
1.30145e-05
3.56843e-05
1.30071e-05
3.24347e-05
1.30003e-05
2.91867e-05
1.29941e-05
2.59401e-05
1.29885e-05
2.26948e-05
1.29834e-05
1.94506e-05
1.2979e-05
1.62073e-05
1.29751e-05
1.29649e-05
1.29719e-05
9.72309e-06
1.29694e-05
6.48179e-06
1.29674e-05
3.24082e-06
1.29662e-05
1.29655e-05
3.43303e-06
-1.71716e-05
6.86629e-06
-1.71727e-05
1.03e-05
-1.71749e-05
1.37343e-05
-1.71781e-05
1.71695e-05
-1.71824e-05
2.06058e-05
-1.71877e-05
2.40434e-05
-1.71941e-05
2.74825e-05
-1.72015e-05
3.09233e-05
-1.72099e-05
3.4366e-05
-1.72193e-05
3.78109e-05
-1.72297e-05
4.1258e-05
-1.72409e-05
4.47076e-05
-1.72531e-05
4.81598e-05
-1.72662e-05
5.16149e-05
-1.72801e-05
5.50729e-05
-1.72948e-05
5.85341e-05
-1.73102e-05
6.19986e-05
-1.73264e-05
6.54665e-05
-1.73432e-05
6.8938e-05
-1.73607e-05
7.24132e-05
-1.73787e-05
7.58921e-05
-1.73972e-05
7.93749e-05
-1.74162e-05
8.28616e-05
-1.74355e-05
8.63523e-05
-1.74552e-05
8.98472e-05
-1.7475e-05
9.33461e-05
-1.74951e-05
9.68491e-05
-1.75153e-05
0.000100356
-1.75354e-05
0.000103868
-1.75555e-05
0.000107383
-1.75754e-05
0.000110902
-1.75951e-05
0.000114426
-1.76144e-05
0.000117953
-1.76332e-05
0.000121484
-1.76515e-05
0.000125019
-1.76691e-05
0.000128557
-1.76859e-05
0.000132099
-1.77019e-05
0.000135644
-1.77168e-05
0.000139191
-1.77305e-05
0.000142742
-1.7743e-05
0.000146294
-1.77541e-05
0.000149849
-1.77636e-05
0.000153406
-1.77715e-05
0.000156964
-1.77775e-05
0.000160522
-1.77815e-05
0.000164082
-1.77834e-05
0.000167641
-1.7783e-05
0.000171201
-1.77801e-05
0.000174759
-1.77746e-05
0.000178316
-1.77663e-05
0.00018187
-1.7755e-05
0.000185423
-1.77406e-05
0.000188971
-1.77229e-05
0.000192516
-1.77017e-05
0.000196056
-1.76768e-05
0.000199591
-1.7648e-05
0.000203119
-1.76152e-05
0.00020664
-1.75781e-05
0.000210153
-1.75366e-05
0.000213657
-1.74905e-05
0.00021715
-1.74395e-05
0.000220633
-1.73835e-05
0.000224104
-1.73222e-05
0.000227562
-1.72556e-05
0.000231006
-1.71833e-05
0.000234434
-1.71053e-05
0.000237846
-1.70212e-05
0.00024124
-1.6931e-05
0.000244614
-1.68344e-05
0.000247969
-1.67313e-05
0.000251301
-1.66214e-05
0.000254611
-1.65046e-05
0.000257895
-1.63807e-05
0.000261154
-1.62497e-05
0.000264385
-1.61112e-05
0.000267588
-1.59651e-05
0.000270759
-1.58114e-05
0.000273899
-1.56499e-05
0.000277005
-1.54804e-05
0.000280075
-1.53028e-05
0.000283108
-1.51171e-05
0.000286103
-1.49231e-05
0.000289057
-1.47207e-05
0.000291969
-1.45099e-05
0.000294838
-1.42906e-05
0.00029766
-1.40628e-05
0.000300436
-1.38264e-05
0.000303162
-1.35814e-05
0.000305838
-1.33279e-05
0.000308462
-1.30657e-05
0.000311031
-1.2795e-05
0.000313544
-1.25157e-05
0.000316
-1.2228e-05
0.000318396
-1.19319e-05
0.000320731
-1.16275e-05
0.000323004
-1.13149e-05
0.000325212
-1.09943e-05
0.000327355
-1.06657e-05
0.00032943
-1.03293e-05
0.000331436
-9.9854e-06
0.000333371
-9.63405e-06
0.000335234
-9.27551e-06
0.000337024
-8.90999e-06
0.00033874
-8.53774e-06
0.000340379
-8.15902e-06
0.000341941
-7.7741e-06
0.000343424
-7.38326e-06
0.000344828
-6.9868e-06
0.000346151
-6.58503e-06
0.000347392
-6.17829e-06
0.000348551
-5.7669e-06
0.000349625
-5.35121e-06
0.000350616
-4.93159e-06
0.000351522
-4.5084e-06
0.000352341
-4.08202e-06
0.000353075
-3.65283e-06
0.000353721
-3.22122e-06
0.000354281
-2.78758e-06
0.000354753
-2.35231e-06
0.000355137
-1.91582e-06
0.000355433
-1.47851e-06
0.000355641
-1.04079e-06
0.000355762
-6.03049e-07
0.000355794
-1.65701e-07
0.000355738
2.70854e-07
0.000355595
7.0622e-07
0.000355365
1.14e-06
0.000355048
1.57182e-06
0.000354644
2.00129e-06
0.000354155
2.42803e-06
0.00035358
2.85169e-06
0.000352921
3.2719e-06
0.000352179
3.68833e-06
0.000351353
4.10064e-06
0.000350446
4.5085e-06
0.000349458
4.9116e-06
0.000348389
5.30965e-06
0.000347242
5.70237e-06
0.000346017
6.08947e-06
0.000344716
6.47071e-06
0.000343339
6.84584e-06
0.000341888
7.21464e-06
0.000340365
7.57689e-06
0.00033877
7.9324e-06
0.000337106
8.28098e-06
0.000335372
8.62248e-06
0.000333572
8.95673e-06
0.000331707
9.2836e-06
0.000329777
9.60298e-06
0.000327785
9.91475e-06
0.000325732
1.02188e-05
0.000323619
1.05152e-05
0.000321449
1.08036e-05
0.000319223
1.10843e-05
0.000316942
1.1357e-05
0.000314608
1.16217e-05
0.000312223
1.18786e-05
0.000309788
1.21275e-05
0.000307305
1.23685e-05
0.000304775
1.26016e-05
0.0003022
1.28269e-05
0.000299582
1.30444e-05
0.000296922
1.32541e-05
0.000294222
1.34562e-05
0.000291483
1.36507e-05
0.000288707
1.38377e-05
0.000285894
1.40173e-05
0.000283048
1.41896e-05
0.000280168
1.43548e-05
0.000277257
1.45128e-05
0.000274316
1.46639e-05
0.000271347
1.48082e-05
0.00026835
1.49458e-05
0.000265327
1.50768e-05
0.000262279
1.52015e-05