/*--------------------------------*- C++ -*----------------------------------*\
| =========                 |                                                 |
| \\      /  F ield         | OpenFOAM: The Open Source CFD Toolbox           |
|  \\    /   O peration     | Version:  v2012                                 |
|   \\  /    A nd           | Website:  www.openfoam.com                      |
|    \\/     M anipulation  |                                                 |
\*---------------------------------------------------------------------------*/
FoamFile
{
    version     2.0;
    format      ascii;
    class       volVectorField;
    location    "14.5";
    object      Psi;
}
// * * * * * * * * * * * * * * * * * * * * * * * * * * * * * * * * * * * * * //

dimensions      [0 2 -1 0 0 0 0];


internalField   nonuniform List<vector> 
65536
(
(0 0 8.58629e-06)
(0 0 2.57594e-05)
(0 0 4.29342e-05)
(0 0 6.01116e-05)
(0 0 7.72928e-05)
(0 0 9.44787e-05)
(0 0 0.00011167)
(0 0 0.000128869)
(0 0 0.000146075)
(0 0 0.000163291)
(0 0 0.000180516)
(0 0 0.000197751)
(0 0 0.000214998)
(0 0 0.000232258)
(0 0 0.000249531)
(0 0 0.000266819)
(0 0 0.000284121)
(0 0 0.000301439)
(0 0 0.000318773)
(0 0 0.000336124)
(0 0 0.000353492)
(0 0 0.000370879)
(0 0 0.000388284)
(0 0 0.000405708)
(0 0 0.000423151)
(0 0 0.000440614)
(0 0 0.000458096)
(0 0 0.000475598)
(0 0 0.00049312)
(0 0 0.000510662)
(0 0 0.000528224)
(0 0 0.000545805)
(0 0 0.000563404)
(0 0 0.000581023)
(0 0 0.00059866)
(0 0 0.000616314)
(0 0 0.000633985)
(0 0 0.000651672)
(0 0 0.000669374)
(0 0 0.00068709)
(0 0 0.000704819)
(0 0 0.000722559)
(0 0 0.000740308)
(0 0 0.000758066)
(0 0 0.00077583)
(0 0 0.000793599)
(0 0 0.00081137)
(0 0 0.000829141)
(0 0 0.00084691)
(0 0 0.000864674)
(0 0 0.00088243)
(0 0 0.000900177)
(0 0 0.000917909)
(0 0 0.000935625)
(0 0 0.000953321)
(0 0 0.000970994)
(0 0 0.000988638)
(0 0 0.00100625)
(0 0 0.00102383)
(0 0 0.00104137)
(0 0 0.00105886)
(0 0 0.0010763)
(0 0 0.00109369)
(0 0 0.00111102)
(0 0 0.00112829)
(0 0 0.00114549)
(0 0 0.00116261)
(0 0 0.00117964)
(0 0 0.0011966)
(0 0 0.00121345)
(0 0 0.00123021)
(0 0 0.00124686)
(0 0 0.00126339)
(0 0 0.00127981)
(0 0 0.00129609)
(0 0 0.00131225)
(0 0 0.00132825)
(0 0 0.00134411)
(0 0 0.00135981)
(0 0 0.00137535)
(0 0 0.00139071)
(0 0 0.00140589)
(0 0 0.00142088)
(0 0 0.00143567)
(0 0 0.00145025)
(0 0 0.00146462)
(0 0 0.00147877)
(0 0 0.00149268)
(0 0 0.00150635)
(0 0 0.00151978)
(0 0 0.00153294)
(0 0 0.00154584)
(0 0 0.00155847)
(0 0 0.00157081)
(0 0 0.00158286)
(0 0 0.00159461)
(0 0 0.00160605)
(0 0 0.00161718)
(0 0 0.00162799)
(0 0 0.00163846)
(0 0 0.00164859)
(0 0 0.00165838)
(0 0 0.00166781)
(0 0 0.00167688)
(0 0 0.00168558)
(0 0 0.00169391)
(0 0 0.00170186)
(0 0 0.00170942)
(0 0 0.00171659)
(0 0 0.00172336)
(0 0 0.00172973)
(0 0 0.00173569)
(0 0 0.00174124)
(0 0 0.00174638)
(0 0 0.00175109)
(0 0 0.00175538)
(0 0 0.00175924)
(0 0 0.00176268)
(0 0 0.00176568)
(0 0 0.00176825)
(0 0 0.00177039)
(0 0 0.00177209)
(0 0 0.00177336)
(0 0 0.00177419)
(0 0 0.00177458)
(0 0 0.00177454)
(0 0 0.00177406)
(0 0 0.00177315)
(0 0 0.00177181)
(0 0 0.00177004)
(0 0 0.00176784)
(0 0 0.00176522)
(0 0 0.00176218)
(0 0 0.00175872)
(0 0 0.00175485)
(0 0 0.00175057)
(0 0 0.00174588)
(0 0 0.0017408)
(0 0 0.00173532)
(0 0 0.00172945)
(0 0 0.0017232)
(0 0 0.00171657)
(0 0 0.00170957)
(0 0 0.00170221)
(0 0 0.00169448)
(0 0 0.00168641)
(0 0 0.00167799)
(0 0 0.00166923)
(0 0 0.00166014)
(0 0 0.00165073)
(0 0 0.00164101)
(0 0 0.00163097)
(0 0 0.00162064)
(0 0 0.00161002)
(0 0 0.00159911)
(0 0 0.00158792)
(0 0 0.00157646)
(0 0 0.00156475)
(0 0 0.00155278)
(0 0 0.00154056)
(0 0 0.00152811)
(0 0 0.00151543)
(0 0 0.00150252)
(0 0 0.00148941)
(0 0 0.00147608)
(0 0 0.00146256)
(0 0 0.00144884)
(0 0 0.00143495)
(0 0 0.00142087)
(0 0 0.00140663)
(0 0 0.00139222)
(0 0 0.00137766)
(0 0 0.00136295)
(0 0 0.0013481)
(0 0 0.00133311)
(0 0 0.001318)
(0 0 0.00130276)
(0 0 0.00128741)
(0 0 0.00127195)
(0 0 0.00125638)
(0 0 0.00124071)
(0 0 0.00122496)
(0 0 0.00120911)
(0 0 0.00119318)
(0 0 0.00117718)
(0 0 0.0011611)
(0 0 0.00114496)
(0 0 0.00112875)
(0 0 0.00111249)
(0 0 0.00109617)
(0 0 0.0010798)
(0 0 0.00106339)
(0 0 0.00104694)
(0 0 0.00103044)
(0 0 0.00101392)
(0 0 0.00099736)
(0 0 0.000980775)
(0 0 0.000964165)
(0 0 0.000947534)
(0 0 0.000930884)
(0 0 0.000914218)
(0 0 0.000897539)
(0 0 0.000880849)
(0 0 0.00086415)
(0 0 0.000847445)
(0 0 0.000830735)
(0 0 0.000814023)
(0 0 0.000797311)
(0 0 0.0007806)
(0 0 0.000763891)
(0 0 0.000747187)
(0 0 0.000730488)
(0 0 0.000713797)
(0 0 0.000697113)
(0 0 0.000680439)
(0 0 0.000663775)
(0 0 0.000647122)
(0 0 0.000630481)
(0 0 0.000613853)
(0 0 0.000597237)
(0 0 0.000580636)
(0 0 0.000564049)
(0 0 0.000547477)
(0 0 0.000530919)
(0 0 0.000514377)
(0 0 0.000497851)
(0 0 0.00048134)
(0 0 0.000464845)
(0 0 0.000448365)
(0 0 0.000431901)
(0 0 0.000415453)
(0 0 0.00039902)
(0 0 0.000382602)
(0 0 0.000366199)
(0 0 0.000349811)
(0 0 0.000333437)
(0 0 0.000317077)
(0 0 0.00030073)
(0 0 0.000284396)
(0 0 0.000268074)
(0 0 0.000251765)
(0 0 0.000235467)
(0 0 0.000219179)
(0 0 0.000202902)
(0 0 0.000186634)
(0 0 0.000170375)
(0 0 0.000154124)
(0 0 0.00013788)
(0 0 0.000121643)
(0 0 0.000105412)
(0 0 8.91859e-05)
(0 0 7.29643e-05)
(0 0 5.67462e-05)
(0 0 4.0531e-05)
(0 0 2.43178e-05)
(0 0 8.10581e-06)
(0 0 2.57584e-05)
(0 0 7.72769e-05)
(0 0 0.0001288)
(0 0 0.000180331)
(0 0 0.000231874)
(0 0 0.000283431)
(0 0 0.000335005)
(0 0 0.0003866)
(0 0 0.000438218)
(0 0 0.000489862)
(0 0 0.000541536)
(0 0 0.000593243)
(0 0 0.000644984)
(0 0 0.000696762)
(0 0 0.000748581)
(0 0 0.000800442)
(0 0 0.000852348)
(0 0 0.000904301)
(0 0 0.000956302)
(0 0 0.00100835)
(0 0 0.00106046)
(0 0 0.00111262)
(0 0 0.00116483)
(0 0 0.00121711)
(0 0 0.00126944)
(0 0 0.00132182)
(0 0 0.00137427)
(0 0 0.00142678)
(0 0 0.00147934)
(0 0 0.00153197)
(0 0 0.00158465)
(0 0 0.0016374)
(0 0 0.0016902)
(0 0 0.00174305)
(0 0 0.00179596)
(0 0 0.00184893)
(0 0 0.00190194)
(0 0 0.001955)
(0 0 0.00200811)
(0 0 0.00206126)
(0 0 0.00211445)
(0 0 0.00216767)
(0 0 0.00222092)
(0 0 0.00227419)
(0 0 0.00232749)
(0 0 0.0023808)
(0 0 0.00243411)
(0 0 0.00248743)
(0 0 0.00254074)
(0 0 0.00259403)
(0 0 0.0026473)
(0 0 0.00270055)
(0 0 0.00275375)
(0 0 0.0028069)
(0 0 0.00285999)
(0 0 0.00291301)
(0 0 0.00296595)
(0 0 0.00301879)
(0 0 0.00307153)
(0 0 0.00312415)
(0 0 0.00317663)
(0 0 0.00322897)
(0 0 0.00328114)
(0 0 0.00333314)
(0 0 0.00338494)
(0 0 0.00343654)
(0 0 0.0034879)
(0 0 0.00353902)
(0 0 0.00358988)
(0 0 0.00364046)
(0 0 0.00369074)
(0 0 0.00374069)
(0 0 0.0037903)
(0 0 0.00383955)
(0 0 0.00388842)
(0 0 0.00393688)
(0 0 0.00398492)
(0 0 0.0040325)
(0 0 0.00407961)
(0 0 0.00412622)
(0 0 0.00417231)
(0 0 0.00421785)
(0 0 0.00426283)
(0 0 0.00430721)
(0 0 0.00435097)
(0 0 0.00439409)
(0 0 0.00443653)
(0 0 0.00447828)
(0 0 0.00451931)
(0 0 0.00455959)
(0 0 0.00459909)
(0 0 0.0046378)
(0 0 0.00467569)
(0 0 0.00471272)
(0 0 0.00474888)
(0 0 0.00478414)
(0 0 0.00481848)
(0 0 0.00485187)
(0 0 0.00488429)
(0 0 0.00491571)
(0 0 0.00494612)
(0 0 0.00497549)
(0 0 0.00500379)
(0 0 0.00503101)
(0 0 0.00505713)
(0 0 0.00508212)
(0 0 0.00510597)
(0 0 0.00512866)
(0 0 0.00515018)
(0 0 0.0051705)
(0 0 0.00518961)
(0 0 0.0052075)
(0 0 0.00522415)
(0 0 0.00523955)
(0 0 0.00525369)
(0 0 0.00526657)
(0 0 0.00527816)
(0 0 0.00528847)
(0 0 0.00529748)
(0 0 0.00530519)
(0 0 0.0053116)
(0 0 0.00531671)
(0 0 0.00532051)
(0 0 0.00532299)
(0 0 0.00532417)
(0 0 0.00532404)
(0 0 0.00532261)
(0 0 0.00531988)
(0 0 0.00531586)
(0 0 0.00531054)
(0 0 0.00530395)
(0 0 0.00529608)
(0 0 0.00528695)
(0 0 0.00527657)
(0 0 0.00526496)
(0 0 0.00525211)
(0 0 0.00523805)
(0 0 0.00522279)
(0 0 0.00520635)
(0 0 0.00518873)
(0 0 0.00516997)
(0 0 0.00515008)
(0 0 0.00512907)
(0 0 0.00510697)
(0 0 0.0050838)
(0 0 0.00505956)
(0 0 0.0050343)
(0 0 0.00500802)
(0 0 0.00498075)
(0 0 0.00495251)
(0 0 0.00492333)
(0 0 0.00489322)
(0 0 0.00486221)
(0 0 0.00483033)
(0 0 0.00479759)
(0 0 0.00476402)
(0 0 0.00472965)
(0 0 0.00469449)
(0 0 0.00465857)
(0 0 0.00462192)
(0 0 0.00458455)
(0 0 0.0045465)
(0 0 0.00450778)
(0 0 0.00446842)
(0 0 0.00442844)
(0 0 0.00438786)
(0 0 0.00434671)
(0 0 0.00430501)
(0 0 0.00426278)
(0 0 0.00422004)
(0 0 0.00417682)
(0 0 0.00413313)
(0 0 0.00408899)
(0 0 0.00404443)
(0 0 0.00399947)
(0 0 0.00395411)
(0 0 0.0039084)
(0 0 0.00386233)
(0 0 0.00381594)
(0 0 0.00376923)
(0 0 0.00372223)
(0 0 0.00367495)
(0 0 0.00362741)
(0 0 0.00357962)
(0 0 0.0035316)
(0 0 0.00348337)
(0 0 0.00343494)
(0 0 0.00338631)
(0 0 0.00333752)
(0 0 0.00328856)
(0 0 0.00323945)
(0 0 0.00319021)
(0 0 0.00314084)
(0 0 0.00309136)
(0 0 0.00304178)
(0 0 0.0029921)
(0 0 0.00294235)
(0 0 0.00289251)
(0 0 0.00284262)
(0 0 0.00279266)
(0 0 0.00274266)
(0 0 0.00269262)
(0 0 0.00264255)
(0 0 0.00259245)
(0 0 0.00254234)
(0 0 0.00249221)
(0 0 0.00244207)
(0 0 0.00239193)
(0 0 0.00234179)
(0 0 0.00229167)
(0 0 0.00224155)
(0 0 0.00219146)
(0 0 0.00214138)
(0 0 0.00209133)
(0 0 0.00204131)
(0 0 0.00199131)
(0 0 0.00194135)
(0 0 0.00189143)
(0 0 0.00184154)
(0 0 0.0017917)
(0 0 0.00174189)
(0 0 0.00169213)
(0 0 0.00164241)
(0 0 0.00159274)
(0 0 0.00154312)
(0 0 0.00149354)
(0 0 0.001444)
(0 0 0.00139452)
(0 0 0.00134508)
(0 0 0.00129569)
(0 0 0.00124634)
(0 0 0.00119704)
(0 0 0.00114779)
(0 0 0.00109858)
(0 0 0.00104942)
(0 0 0.0010003)
(0 0 0.000951216)
(0 0 0.000902176)
(0 0 0.000853175)
(0 0 0.000804211)
(0 0 0.000755283)
(0 0 0.000706389)
(0 0 0.000657527)
(0 0 0.000608695)
(0 0 0.000559892)
(0 0 0.000511116)
(0 0 0.000462363)
(0 0 0.000413633)
(0 0 0.000364923)
(0 0 0.00031623)
(0 0 0.000267553)
(0 0 0.000218889)
(0 0 0.000170236)
(0 0 0.000121591)
(0 0 7.29522e-05)
(0 0 2.4317e-05)
(0 0 4.29289e-05)
(0 0 0.00012879)
(0 0 0.000214658)
(0 0 0.00030054)
(0 0 0.000386441)
(0 0 0.000472365)
(0 0 0.000558319)
(0 0 0.000644307)
(0 0 0.000730334)
(0 0 0.000816405)
(0 0 0.000902525)
(0 0 0.000988699)
(0 0 0.00107493)
(0 0 0.00116123)
(0 0 0.00124759)
(0 0 0.00133402)
(0 0 0.00142053)
(0 0 0.00150711)
(0 0 0.00159378)
(0 0 0.00168053)
(0 0 0.00176737)
(0 0 0.0018543)
(0 0 0.00194133)
(0 0 0.00202845)
(0 0 0.00211566)
(0 0 0.00220297)
(0 0 0.00229039)
(0 0 0.0023779)
(0 0 0.00246551)
(0 0 0.00255322)
(0 0 0.00264102)
(0 0 0.00272893)
(0 0 0.00281693)
(0 0 0.00290503)
(0 0 0.00299322)
(0 0 0.00308149)
(0 0 0.00316985)
(0 0 0.00325829)
(0 0 0.00334681)
(0 0 0.00343539)
(0 0 0.00352404)
(0 0 0.00361275)
(0 0 0.0037015)
(0 0 0.0037903)
(0 0 0.00387913)
(0 0 0.00396799)
(0 0 0.00405685)
(0 0 0.00414572)
(0 0 0.00423458)
(0 0 0.00432341)
(0 0 0.00441221)
(0 0 0.00450095)
(0 0 0.00458963)
(0 0 0.00467823)
(0 0 0.00476673)
(0 0 0.00485511)
(0 0 0.00494335)
(0 0 0.00503144)
(0 0 0.00511935)
(0 0 0.00520706)
(0 0 0.00529455)
(0 0 0.0053818)
(0 0 0.00546877)
(0 0 0.00555545)
(0 0 0.00564181)
(0 0 0.00572782)
(0 0 0.00581345)
(0 0 0.00589867)
(0 0 0.00598345)
(0 0 0.00606777)
(0 0 0.00615158)
(0 0 0.00623486)
(0 0 0.00631757)
(0 0 0.00639968)
(0 0 0.00648115)
(0 0 0.00656195)
(0 0 0.00664203)
(0 0 0.00672136)
(0 0 0.0067999)
(0 0 0.00687761)
(0 0 0.00695446)
(0 0 0.00703039)
(0 0 0.00710538)
(0 0 0.00717937)
(0 0 0.00725233)
(0 0 0.00732422)
(0 0 0.00739499)
(0 0 0.0074646)
(0 0 0.00753301)
(0 0 0.00760017)
(0 0 0.00766604)
(0 0 0.00773058)
(0 0 0.00779375)
(0 0 0.00785551)
(0 0 0.0079158)
(0 0 0.0079746)
(0 0 0.00803186)
(0 0 0.00808753)
(0 0 0.00814159)
(0 0 0.00819399)
(0 0 0.00824469)
(0 0 0.00829366)
(0 0 0.00834085)
(0 0 0.00838624)
(0 0 0.00842979)
(0 0 0.00847147)
(0 0 0.00851124)
(0 0 0.00854908)
(0 0 0.00858495)
(0 0 0.00861884)
(0 0 0.0086507)
(0 0 0.00868053)
(0 0 0.0087083)
(0 0 0.00873398)
(0 0 0.00875757)
(0 0 0.00877903)
(0 0 0.00879836)
(0 0 0.00881555)
(0 0 0.00883057)
(0 0 0.00884344)
(0 0 0.00885412)
(0 0 0.00886263)
(0 0 0.00886896)
(0 0 0.00887311)
(0 0 0.00887507)
(0 0 0.00887486)
(0 0 0.00887247)
(0 0 0.00886791)
(0 0 0.00886119)
(0 0 0.00885233)
(0 0 0.00884133)
(0 0 0.00882821)
(0 0 0.00881298)
(0 0 0.00879567)
(0 0 0.00877629)
(0 0 0.00875486)
(0 0 0.00873141)
(0 0 0.00870596)
(0 0 0.00867854)
(0 0 0.00864917)
(0 0 0.00861788)
(0 0 0.00858471)
(0 0 0.00854967)
(0 0 0.00851281)
(0 0 0.00847416)
(0 0 0.00843375)
(0 0 0.00839162)
(0 0 0.0083478)
(0 0 0.00830233)
(0 0 0.00825524)
(0 0 0.00820657)
(0 0 0.00815637)
(0 0 0.00810466)
(0 0 0.0080515)
(0 0 0.00799691)
(0 0 0.00794093)
(0 0 0.00788361)
(0 0 0.00782499)
(0 0 0.0077651)
(0 0 0.00770399)
(0 0 0.00764169)
(0 0 0.00757824)
(0 0 0.00751368)
(0 0 0.00744805)
(0 0 0.00738139)
(0 0 0.00731374)
(0 0 0.00724513)
(0 0 0.00717561)
(0 0 0.0071052)
(0 0 0.00703394)
(0 0 0.00696188)
(0 0 0.00688904)
(0 0 0.00681546)
(0 0 0.00674117)
(0 0 0.0066662)
(0 0 0.0065906)
(0 0 0.00651438)
(0 0 0.00643759)
(0 0 0.00636024)
(0 0 0.00628238)
(0 0 0.00620403)
(0 0 0.00612521)
(0 0 0.00604596)
(0 0 0.00596629)
(0 0 0.00588625)
(0 0 0.00580584)
(0 0 0.0057251)
(0 0 0.00564405)
(0 0 0.00556271)
(0 0 0.0054811)
(0 0 0.00539924)
(0 0 0.00531716)
(0 0 0.00523487)
(0 0 0.00515239)
(0 0 0.00506974)
(0 0 0.00498693)
(0 0 0.00490399)
(0 0 0.00482093)
(0 0 0.00473776)
(0 0 0.00465449)
(0 0 0.00457115)
(0 0 0.00448774)
(0 0 0.00440428)
(0 0 0.00432078)
(0 0 0.00423724)
(0 0 0.00415368)
(0 0 0.00407012)
(0 0 0.00398654)
(0 0 0.00390298)
(0 0 0.00381943)
(0 0 0.0037359)
(0 0 0.0036524)
(0 0 0.00356894)
(0 0 0.00348552)
(0 0 0.00340214)
(0 0 0.00331882)
(0 0 0.00323555)
(0 0 0.00315234)
(0 0 0.00306919)
(0 0 0.00298611)
(0 0 0.00290311)
(0 0 0.00282017)
(0 0 0.0027373)
(0 0 0.00265452)
(0 0 0.00257181)
(0 0 0.00248917)
(0 0 0.00240662)
(0 0 0.00232414)
(0 0 0.00224175)
(0 0 0.00215943)
(0 0 0.00207719)
(0 0 0.00199502)
(0 0 0.00191294)
(0 0 0.00183092)
(0 0 0.00174898)
(0 0 0.00166711)
(0 0 0.00158531)
(0 0 0.00150358)
(0 0 0.00142192)
(0 0 0.00134031)
(0 0 0.00125877)
(0 0 0.00117728)
(0 0 0.00109584)
(0 0 0.00101446)
(0 0 0.000933124)
(0 0 0.000851832)
(0 0 0.000770581)
(0 0 0.000689366)
(0 0 0.000608185)
(0 0 0.000527033)
(0 0 0.000445907)
(0 0 0.000364803)
(0 0 0.000283717)
(0 0 0.000202645)
(0 0 0.000121583)
(0 0 4.0527e-05)
(0 0 6.00968e-05)
(0 0 0.000180294)
(0 0 0.000300503)
(0 0 0.00042073)
(0 0 0.000540984)
(0 0 0.000661271)
(0 0 0.000781599)
(0 0 0.000901974)
(0 0 0.00102241)
(0 0 0.0011429)
(0 0 0.00126346)
(0 0 0.0013841)
(0 0 0.00150482)
(0 0 0.00162562)
(0 0 0.00174652)
(0 0 0.00186752)
(0 0 0.00198863)
(0 0 0.00210984)
(0 0 0.00223117)
(0 0 0.00235262)
(0 0 0.0024742)
(0 0 0.0025959)
(0 0 0.00271773)
(0 0 0.00283969)
(0 0 0.00296179)
(0 0 0.00308402)
(0 0 0.0032064)
(0 0 0.00332891)
(0 0 0.00345157)
(0 0 0.00357436)
(0 0 0.0036973)
(0 0 0.00382037)
(0 0 0.00394357)
(0 0 0.00406691)
(0 0 0.00419038)
(0 0 0.00431397)
(0 0 0.00443768)
(0 0 0.0045615)
(0 0 0.00468543)
(0 0 0.00480946)
(0 0 0.00493358)
(0 0 0.00505778)
(0 0 0.00518205)
(0 0 0.00530638)
(0 0 0.00543075)
(0 0 0.00555516)
(0 0 0.00567959)
(0 0 0.00580402)
(0 0 0.00592844)
(0 0 0.00605283)
(0 0 0.00617716)
(0 0 0.00630143)
(0 0 0.0064256)
(0 0 0.00654966)
(0 0 0.00667359)
(0 0 0.00679735)
(0 0 0.00692091)
(0 0 0.00704427)
(0 0 0.00716737)
(0 0 0.0072902)
(0 0 0.00741272)
(0 0 0.00753489)
(0 0 0.00765669)
(0 0 0.00777808)
(0 0 0.00789902)
(0 0 0.00801947)
(0 0 0.00813939)
(0 0 0.00825875)
(0 0 0.00837749)
(0 0 0.00849558)
(0 0 0.00861296)
(0 0 0.0087296)
(0 0 0.00884545)
(0 0 0.00896045)
(0 0 0.00907456)
(0 0 0.00918772)
(0 0 0.00929989)
(0 0 0.00941101)
(0 0 0.00952102)
(0 0 0.00962987)
(0 0 0.00973751)
(0 0 0.00984388)
(0 0 0.00994892)
(0 0 0.0100526)
(0 0 0.0101548)
(0 0 0.0102555)
(0 0 0.0103546)
(0 0 0.0104521)
(0 0 0.010548)
(0 0 0.010642)
(0 0 0.0107343)
(0 0 0.0108247)
(0 0 0.0109132)
(0 0 0.0109997)
(0 0 0.0110842)
(0 0 0.0111666)
(0 0 0.0112468)
(0 0 0.0113248)
(0 0 0.0114006)
(0 0 0.011474)
(0 0 0.011545)
(0 0 0.0116136)
(0 0 0.0116797)
(0 0 0.0117433)
(0 0 0.0118043)
(0 0 0.0118627)
(0 0 0.0119184)
(0 0 0.0119715)
(0 0 0.0120217)
(0 0 0.0120692)
(0 0 0.0121138)
(0 0 0.0121556)
(0 0 0.0121945)
(0 0 0.0122305)
(0 0 0.0122636)
(0 0 0.0122936)
(0 0 0.0123207)
(0 0 0.0123448)
(0 0 0.0123658)
(0 0 0.0123839)
(0 0 0.0123988)
(0 0 0.0124107)
(0 0 0.0124196)
(0 0 0.0124254)
(0 0 0.0124282)
(0 0 0.0124278)
(0 0 0.0124245)
(0 0 0.0124181)
(0 0 0.0124087)
(0 0 0.0123962)
(0 0 0.0123808)
(0 0 0.0123624)
(0 0 0.0123411)
(0 0 0.0123168)
(0 0 0.0122897)
(0 0 0.0122596)
(0 0 0.0122268)
(0 0 0.0121911)
(0 0 0.0121527)
(0 0 0.0121115)
(0 0 0.0120677)
(0 0 0.0120212)
(0 0 0.0119721)
(0 0 0.0119204)
(0 0 0.0118663)
(0 0 0.0118097)
(0 0 0.0117506)
(0 0 0.0116892)
(0 0 0.0116255)
(0 0 0.0115595)
(0 0 0.0114914)
(0 0 0.011421)
(0 0 0.0113486)
(0 0 0.0112741)
(0 0 0.0111976)
(0 0 0.0111192)
(0 0 0.0110389)
(0 0 0.0109568)
(0 0 0.0108729)
(0 0 0.0107872)
(0 0 0.0107)
(0 0 0.0106111)
(0 0 0.0105206)
(0 0 0.0104287)
(0 0 0.0103353)
(0 0 0.0102406)
(0 0 0.0101445)
(0 0 0.0100471)
(0 0 0.00994846)
(0 0 0.00984866)
(0 0 0.00974771)
(0 0 0.00964569)
(0 0 0.00954263)
(0 0 0.00943858)
(0 0 0.00933358)
(0 0 0.00922769)
(0 0 0.00912095)
(0 0 0.00901339)
(0 0 0.00890507)
(0 0 0.00879602)
(0 0 0.00868628)
(0 0 0.0085759)
(0 0 0.00846491)
(0 0 0.00835335)
(0 0 0.00824125)
(0 0 0.00812865)
(0 0 0.00801558)
(0 0 0.00790207)
(0 0 0.00778816)
(0 0 0.00767388)
(0 0 0.00755925)
(0 0 0.00744431)
(0 0 0.00732908)
(0 0 0.00721358)
(0 0 0.00709785)
(0 0 0.0069819)
(0 0 0.00686576)
(0 0 0.00674945)
(0 0 0.00663299)
(0 0 0.0065164)
(0 0 0.00639971)
(0 0 0.00628292)
(0 0 0.00616605)
(0 0 0.00604913)
(0 0 0.00593217)
(0 0 0.00581517)
(0 0 0.00569816)
(0 0 0.00558115)
(0 0 0.00546415)
(0 0 0.00534717)
(0 0 0.00523022)
(0 0 0.00511332)
(0 0 0.00499646)
(0 0 0.00487966)
(0 0 0.00476293)
(0 0 0.00464626)
(0 0 0.00452968)
(0 0 0.00441318)
(0 0 0.00429678)
(0 0 0.00418046)
(0 0 0.00406425)
(0 0 0.00394813)
(0 0 0.00383212)
(0 0 0.00371622)
(0 0 0.00360042)
(0 0 0.00348473)
(0 0 0.00336916)
(0 0 0.00325369)
(0 0 0.00313833)
(0 0 0.00302309)
(0 0 0.00290795)
(0 0 0.00279293)
(0 0 0.002678)
(0 0 0.00256319)
(0 0 0.00244848)
(0 0 0.00233386)
(0 0 0.00221935)
(0 0 0.00210493)
(0 0 0.0019906)
(0 0 0.00187635)
(0 0 0.00176219)
(0 0 0.00164811)
(0 0 0.00153411)
(0 0 0.00142018)
(0 0 0.00130631)
(0 0 0.00119251)
(0 0 0.00107876)
(0 0 0.000965066)
(0 0 0.000851417)
(0 0 0.00073781)
(0 0 0.000624239)
(0 0 0.000510699)
(0 0 0.000397184)
(0 0 0.000283689)
(0 0 0.000170208)
(0 0 5.6735e-05)
(0 0 7.72608e-05)
(0 0 0.000231787)
(0 0 0.000386328)
(0 0 0.000540894)
(0 0 0.000695493)
(0 0 0.000850135)
(0 0 0.00100483)
(0 0 0.00115959)
(0 0 0.00131441)
(0 0 0.00146932)
(0 0 0.00162432)
(0 0 0.00177941)
(0 0 0.00193461)
(0 0 0.00208993)
(0 0 0.00224536)
(0 0 0.00240092)
(0 0 0.00255662)
(0 0 0.00271246)
(0 0 0.00286845)
(0 0 0.00302459)
(0 0 0.00318089)
(0 0 0.00333736)
(0 0 0.00349399)
(0 0 0.0036508)
(0 0 0.00380778)
(0 0 0.00396494)
(0 0 0.00412227)
(0 0 0.00427979)
(0 0 0.00443749)
(0 0 0.00459537)
(0 0 0.00475343)
(0 0 0.00491167)
(0 0 0.00507008)
(0 0 0.00522867)
(0 0 0.00538742)
(0 0 0.00554633)
(0 0 0.00570539)
(0 0 0.00586461)
(0 0 0.00602396)
(0 0 0.00618344)
(0 0 0.00634303)
(0 0 0.00650274)
(0 0 0.00666253)
(0 0 0.00682241)
(0 0 0.00698234)
(0 0 0.00714232)
(0 0 0.00730233)
(0 0 0.00746234)
(0 0 0.00762233)
(0 0 0.00778229)
(0 0 0.00794219)
(0 0 0.008102)
(0 0 0.00826169)
(0 0 0.00842124)
(0 0 0.00858061)
(0 0 0.00873977)
(0 0 0.00889869)
(0 0 0.00905734)
(0 0 0.00921567)
(0 0 0.00937364)
(0 0 0.00953122)
(0 0 0.00968837)
(0 0 0.00984503)
(0 0 0.0100012)
(0 0 0.0101567)
(0 0 0.0103117)
(0 0 0.0104659)
(0 0 0.0106194)
(0 0 0.0107722)
(0 0 0.0109241)
(0 0 0.0110751)
(0 0 0.0112251)
(0 0 0.0113742)
(0 0 0.0115221)
(0 0 0.0116689)
(0 0 0.0118145)
(0 0 0.0119588)
(0 0 0.0121018)
(0 0 0.0122433)
(0 0 0.0123833)
(0 0 0.0125218)
(0 0 0.0126587)
(0 0 0.0127938)
(0 0 0.0129272)
(0 0 0.0130587)
(0 0 0.0131883)
(0 0 0.0133159)
(0 0 0.0134413)
(0 0 0.0135646)
(0 0 0.0136857)
(0 0 0.0138045)
(0 0 0.0139208)
(0 0 0.0140347)
(0 0 0.014146)
(0 0 0.0142547)
(0 0 0.0143607)
(0 0 0.014464)
(0 0 0.0145644)
(0 0 0.0146618)
(0 0 0.0147563)
(0 0 0.0148477)
(0 0 0.014936)
(0 0 0.0150211)
(0 0 0.015103)
(0 0 0.0151815)
(0 0 0.0152566)
(0 0 0.0153284)
(0 0 0.0153966)
(0 0 0.0154613)
(0 0 0.0155224)
(0 0 0.0155798)
(0 0 0.0156336)
(0 0 0.0156837)
(0 0 0.01573)
(0 0 0.0157725)
(0 0 0.0158112)
(0 0 0.0158461)
(0 0 0.015877)
(0 0 0.0159041)
(0 0 0.0159273)
(0 0 0.0159466)
(0 0 0.0159619)
(0 0 0.0159733)
(0 0 0.0159808)
(0 0 0.0159843)
(0 0 0.0159839)
(0 0 0.0159795)
(0 0 0.0159713)
(0 0 0.0159592)
(0 0 0.0159432)
(0 0 0.0159233)
(0 0 0.0158996)
(0 0 0.0158721)
(0 0 0.0158409)
(0 0 0.0158059)
(0 0 0.0157673)
(0 0 0.0157249)
(0 0 0.015679)
(0 0 0.0156295)
(0 0 0.0155766)
(0 0 0.0155201)
(0 0 0.0154603)
(0 0 0.0153971)
(0 0 0.0153306)
(0 0 0.0152609)
(0 0 0.015188)
(0 0 0.015112)
(0 0 0.015033)
(0 0 0.014951)
(0 0 0.0148661)
(0 0 0.0147783)
(0 0 0.0146878)
(0 0 0.0145945)
(0 0 0.0144987)
(0 0 0.0144002)
(0 0 0.0142993)
(0 0 0.014196)
(0 0 0.0140903)
(0 0 0.0139823)
(0 0 0.0138722)
(0 0 0.0137599)
(0 0 0.0136455)
(0 0 0.0135291)
(0 0 0.0134108)
(0 0 0.0132907)
(0 0 0.0131688)
(0 0 0.0130451)
(0 0 0.0129198)
(0 0 0.0127929)
(0 0 0.0126645)
(0 0 0.0125346)
(0 0 0.0124034)
(0 0 0.0122708)
(0 0 0.0121369)
(0 0 0.0120019)
(0 0 0.0118656)
(0 0 0.0117283)
(0 0 0.01159)
(0 0 0.0114506)
(0 0 0.0113103)
(0 0 0.0111692)
(0 0 0.0110272)
(0 0 0.0108844)
(0 0 0.0107409)
(0 0 0.0105968)
(0 0 0.0104519)
(0 0 0.0103065)
(0 0 0.0101605)
(0 0 0.010014)
(0 0 0.00986701)
(0 0 0.00971958)
(0 0 0.00957175)
(0 0 0.00942355)
(0 0 0.00927502)
(0 0 0.00912617)
(0 0 0.00897706)
(0 0 0.0088277)
(0 0 0.00867812)
(0 0 0.00852835)
(0 0 0.00837842)
(0 0 0.00822835)
(0 0 0.00807816)
(0 0 0.00792788)
(0 0 0.00777753)
(0 0 0.00762712)
(0 0 0.00747668)
(0 0 0.00732622)
(0 0 0.00717575)
(0 0 0.0070253)
(0 0 0.00687488)
(0 0 0.0067245)
(0 0 0.00657418)
(0 0 0.00642392)
(0 0 0.00627374)
(0 0 0.00612364)
(0 0 0.00597363)
(0 0 0.00582373)
(0 0 0.00567394)
(0 0 0.00552427)
(0 0 0.00537471)
(0 0 0.00522529)
(0 0 0.00507599)
(0 0 0.00492683)
(0 0 0.00477781)
(0 0 0.00462893)
(0 0 0.00448018)
(0 0 0.00433158)
(0 0 0.00418313)
(0 0 0.00403481)
(0 0 0.00388664)
(0 0 0.00373861)
(0 0 0.00359072)
(0 0 0.00344297)
(0 0 0.00329535)
(0 0 0.00314787)
(0 0 0.00300051)
(0 0 0.00285328)
(0 0 0.00270618)
(0 0 0.00255919)
(0 0 0.00241231)
(0 0 0.00226554)
(0 0 0.00211888)
(0 0 0.00197231)
(0 0 0.00182583)
(0 0 0.00167944)
(0 0 0.00153313)
(0 0 0.00138689)
(0 0 0.00124072)
(0 0 0.00109461)
(0 0 0.000948551)
(0 0 0.000802541)
(0 0 0.00065657)
(0 0 0.000510632)
(0 0 0.000364719)
(0 0 0.000218824)
(0 0 7.29401e-05)
(0 0 9.442e-05)
(0 0 0.000283266)
(0 0 0.00047213)
(0 0 0.000661024)
(0 0 0.000849959)
(0 0 0.00103895)
(0 0 0.001228)
(0 0 0.00141713)
(0 0 0.00160634)
(0 0 0.00179566)
(0 0 0.00198508)
(0 0 0.00217462)
(0 0 0.0023643)
(0 0 0.00255411)
(0 0 0.00274407)
(0 0 0.00293418)
(0 0 0.00312447)
(0 0 0.00331493)
(0 0 0.00350557)
(0 0 0.0036964)
(0 0 0.00388742)
(0 0 0.00407865)
(0 0 0.00427008)
(0 0 0.00446173)
(0 0 0.00465359)
(0 0 0.00484567)
(0 0 0.00503797)
(0 0 0.00523049)
(0 0 0.00542324)
(0 0 0.0056162)
(0 0 0.00580939)
(0 0 0.0060028)
(0 0 0.00619642)
(0 0 0.00639025)
(0 0 0.00658429)
(0 0 0.00677853)
(0 0 0.00697296)
(0 0 0.00716757)
(0 0 0.00736235)
(0 0 0.0075573)
(0 0 0.00775238)
(0 0 0.0079476)
(0 0 0.00814294)
(0 0 0.00833837)
(0 0 0.00853388)
(0 0 0.00872945)
(0 0 0.00892505)
(0 0 0.00912067)
(0 0 0.00931627)
(0 0 0.00951182)
(0 0 0.0097073)
(0 0 0.00990268)
(0 0 0.0100979)
(0 0 0.010293)
(0 0 0.0104878)
(0 0 0.0106824)
(0 0 0.0108767)
(0 0 0.0110707)
(0 0 0.0112643)
(0 0 0.0114575)
(0 0 0.0116502)
(0 0 0.0118423)
(0 0 0.0120339)
(0 0 0.0122248)
(0 0 0.012415)
(0 0 0.0126045)
(0 0 0.0127932)
(0 0 0.0129809)
(0 0 0.0131677)
(0 0 0.0133535)
(0 0 0.0135382)
(0 0 0.0137217)
(0 0 0.013904)
(0 0 0.0140849)
(0 0 0.0142645)
(0 0 0.0144425)
(0 0 0.0146191)
(0 0 0.0147939)
(0 0 0.0149671)
(0 0 0.0151384)
(0 0 0.0153078)
(0 0 0.0154752)
(0 0 0.0156406)
(0 0 0.0158037)
(0 0 0.0159646)
(0 0 0.0161231)
(0 0 0.0162792)
(0 0 0.0164327)
(0 0 0.0165836)
(0 0 0.0167317)
(0 0 0.016877)
(0 0 0.0170194)
(0 0 0.0171587)
(0 0 0.0172949)
(0 0 0.017428)
(0 0 0.0175577)
(0 0 0.017684)
(0 0 0.0178068)
(0 0 0.0179261)
(0 0 0.0180417)
(0 0 0.0181536)
(0 0 0.0182616)
(0 0 0.0183658)
(0 0 0.0184659)
(0 0 0.018562)
(0 0 0.018654)
(0 0 0.0187418)
(0 0 0.0188253)
(0 0 0.0189044)
(0 0 0.0189792)
(0 0 0.0190495)
(0 0 0.0191153)
(0 0 0.0191766)
(0 0 0.0192333)
(0 0 0.0192853)
(0 0 0.0193327)
(0 0 0.0193753)
(0 0 0.0194132)
(0 0 0.0194463)
(0 0 0.0194747)
(0 0 0.0194983)
(0 0 0.019517)
(0 0 0.0195309)
(0 0 0.0195401)
(0 0 0.0195443)
(0 0 0.0195438)
(0 0 0.0195385)
(0 0 0.0195284)
(0 0 0.0195135)
(0 0 0.0194939)
(0 0 0.0194696)
(0 0 0.0194406)
(0 0 0.0194069)
(0 0 0.0193687)
(0 0 0.0193259)
(0 0 0.0192785)
(0 0 0.0192267)
(0 0 0.0191705)
(0 0 0.0191099)
(0 0 0.0190451)
(0 0 0.018976)
(0 0 0.0189027)
(0 0 0.0188254)
(0 0 0.018744)
(0 0 0.0186586)
(0 0 0.0185694)
(0 0 0.0184764)
(0 0 0.0183797)
(0 0 0.0182793)
(0 0 0.0181754)
(0 0 0.018068)
(0 0 0.0179572)
(0 0 0.0178431)
(0 0 0.0177258)
(0 0 0.0176054)
(0 0 0.0174819)
(0 0 0.0173554)
(0 0 0.0172261)
(0 0 0.017094)
(0 0 0.0169592)
(0 0 0.0168218)
(0 0 0.0166819)
(0 0 0.0165395)
(0 0 0.0163948)
(0 0 0.0162478)
(0 0 0.0160986)
(0 0 0.0159474)
(0 0 0.0157941)
(0 0 0.0156389)
(0 0 0.0154818)
(0 0 0.015323)
(0 0 0.0151624)
(0 0 0.0150002)
(0 0 0.0148365)
(0 0 0.0146713)
(0 0 0.0145047)
(0 0 0.0143367)
(0 0 0.0141675)
(0 0 0.0139971)
(0 0 0.0138256)
(0 0 0.0136529)
(0 0 0.0134793)
(0 0 0.0133047)
(0 0 0.0131292)
(0 0 0.0129529)
(0 0 0.0127758)
(0 0 0.012598)
(0 0 0.0124195)
(0 0 0.0122403)
(0 0 0.0120606)
(0 0 0.0118803)
(0 0 0.0116996)
(0 0 0.0115184)
(0 0 0.0113368)
(0 0 0.0111548)
(0 0 0.0109725)
(0 0 0.0107898)
(0 0 0.010607)
(0 0 0.0104239)
(0 0 0.0102406)
(0 0 0.0100571)
(0 0 0.00987351)
(0 0 0.00968979)
(0 0 0.00950598)
(0 0 0.00932211)
(0 0 0.0091382)
(0 0 0.00895427)
(0 0 0.00877034)
(0 0 0.00858643)
(0 0 0.00840255)
(0 0 0.00821873)
(0 0 0.00803498)
(0 0 0.0078513)
(0 0 0.00766773)
(0 0 0.00748426)
(0 0 0.0073009)
(0 0 0.00711767)
(0 0 0.00693458)
(0 0 0.00675164)
(0 0 0.00656884)
(0 0 0.0063862)
(0 0 0.00620372)
(0 0 0.00602141)
(0 0 0.00583926)
(0 0 0.00565729)
(0 0 0.00547549)
(0 0 0.00529387)
(0 0 0.00511242)
(0 0 0.00493115)
(0 0 0.00475005)
(0 0 0.00456913)
(0 0 0.00438838)
(0 0 0.0042078)
(0 0 0.00402738)
(0 0 0.00384713)
(0 0 0.00366704)
(0 0 0.0034871)
(0 0 0.00330731)
(0 0 0.00312767)
(0 0 0.00294816)
(0 0 0.00276879)
(0 0 0.00258954)
(0 0 0.00241041)
(0 0 0.0022314)
(0 0 0.00205249)
(0 0 0.00187367)
(0 0 0.00169495)
(0 0 0.00151631)
(0 0 0.00133775)
(0 0 0.00115925)
(0 0 0.000980802)
(0 0 0.000802408)
(0 0 0.000624054)
(0 0 0.00044573)
(0 0 0.000267429)
(0 0 8.91417e-05)
(0 0 0.000111573)
(0 0 0.000334727)
(0 0 0.000557902)
(0 0 0.000781112)
(0 0 0.00100437)
(0 0 0.00122769)
(0 0 0.00145109)
(0 0 0.00167458)
(0 0 0.00189818)
(0 0 0.00212188)
(0 0 0.00234572)
(0 0 0.0025697)
(0 0 0.00279384)
(0 0 0.00301814)
(0 0 0.00324262)
(0 0 0.00346728)
(0 0 0.00369214)
(0 0 0.00391721)
(0 0 0.0041425)
(0 0 0.00436801)
(0 0 0.00459375)
(0 0 0.00481974)
(0 0 0.00504597)
(0 0 0.00527245)
(0 0 0.00549918)
(0 0 0.00572618)
(0 0 0.00595344)
(0 0 0.00618096)
(0 0 0.00640875)
(0 0 0.00663681)
(0 0 0.00686513)
(0 0 0.00709371)
(0 0 0.00732255)
(0 0 0.00755163)
(0 0 0.00778097)
(0 0 0.00801054)
(0 0 0.00824035)
(0 0 0.00847037)
(0 0 0.00870059)
(0 0 0.00893101)
(0 0 0.0091616)
(0 0 0.00939235)
(0 0 0.00962325)
(0 0 0.00985426)
(0 0 0.0100854)
(0 0 0.0103165)
(0 0 0.0105478)
(0 0 0.010779)
(0 0 0.0110102)
(0 0 0.0112414)
(0 0 0.0114725)
(0 0 0.0117035)
(0 0 0.0119343)
(0 0 0.0121649)
(0 0 0.0123953)
(0 0 0.0126254)
(0 0 0.0128551)
(0 0 0.0130845)
(0 0 0.0133134)
(0 0 0.0135418)
(0 0 0.0137696)
(0 0 0.0139969)
(0 0 0.0142234)
(0 0 0.0144492)
(0 0 0.0146741)
(0 0 0.0148982)
(0 0 0.0151213)
(0 0 0.0153433)
(0 0 0.0155643)
(0 0 0.015784)
(0 0 0.0160024)
(0 0 0.0162195)
(0 0 0.0164351)
(0 0 0.0166491)
(0 0 0.0168615)
(0 0 0.0170722)
(0 0 0.017281)
(0 0 0.0174878)
(0 0 0.0176926)
(0 0 0.0178953)
(0 0 0.0180958)
(0 0 0.0182938)
(0 0 0.0184894)
(0 0 0.0186825)
(0 0 0.0188728)
(0 0 0.0190604)
(0 0 0.0192451)
(0 0 0.0194267)
(0 0 0.0196052)
(0 0 0.0197805)
(0 0 0.0199525)
(0 0 0.0201209)
(0 0 0.0202858)
(0 0 0.0204471)
(0 0 0.0206045)
(0 0 0.020758)
(0 0 0.0209075)
(0 0 0.0210529)
(0 0 0.021194)
(0 0 0.0213309)
(0 0 0.0214633)
(0 0 0.0215912)
(0 0 0.0217144)
(0 0 0.021833)
(0 0 0.0219467)
(0 0 0.0220556)
(0 0 0.0221594)
(0 0 0.0222583)
(0 0 0.022352)
(0 0 0.0224405)
(0 0 0.0225237)
(0 0 0.0226016)
(0 0 0.0226741)
(0 0 0.0227412)
(0 0 0.0228028)
(0 0 0.0228588)
(0 0 0.0229093)
(0 0 0.0229541)
(0 0 0.0229933)
(0 0 0.0230269)
(0 0 0.0230548)
(0 0 0.0230769)
(0 0 0.0230934)
(0 0 0.0231042)
(0 0 0.0231092)
(0 0 0.0231086)
(0 0 0.0231023)
(0 0 0.0230903)
(0 0 0.0230727)
(0 0 0.0230494)
(0 0 0.0230206)
(0 0 0.0229862)
(0 0 0.0229464)
(0 0 0.022901)
(0 0 0.0228503)
(0 0 0.0227942)
(0 0 0.0227329)
(0 0 0.0226663)
(0 0 0.0225946)
(0 0 0.0225178)
(0 0 0.022436)
(0 0 0.0223492)
(0 0 0.0222577)
(0 0 0.0221613)
(0 0 0.0220603)
(0 0 0.0219547)
(0 0 0.0218446)
(0 0 0.0217301)
(0 0 0.0216113)
(0 0 0.0214882)
(0 0 0.0213611)
(0 0 0.02123)
(0 0 0.0210949)
(0 0 0.0209561)
(0 0 0.0208136)
(0 0 0.0206674)
(0 0 0.0205178)
(0 0 0.0203647)
(0 0 0.0202084)
(0 0 0.0200489)
(0 0 0.0198863)
(0 0 0.0197207)
(0 0 0.0195523)
(0 0 0.019381)
(0 0 0.0192071)
(0 0 0.0190306)
(0 0 0.0188517)
(0 0 0.0186703)
(0 0 0.0184867)
(0 0 0.0183009)
(0 0 0.018113)
(0 0 0.017923)
(0 0 0.0177312)
(0 0 0.0175375)
(0 0 0.0173421)
(0 0 0.0171451)
(0 0 0.0169464)
(0 0 0.0167463)
(0 0 0.0165447)
(0 0 0.0163418)
(0 0 0.0161377)
(0 0 0.0159323)
(0 0 0.0157259)
(0 0 0.0155183)
(0 0 0.0153098)
(0 0 0.0151004)
(0 0 0.0148901)
(0 0 0.014679)
(0 0 0.0144672)
(0 0 0.0142547)
(0 0 0.0140416)
(0 0 0.0138278)
(0 0 0.0136136)
(0 0 0.0133989)
(0 0 0.0131837)
(0 0 0.0129682)
(0 0 0.0127523)
(0 0 0.0125361)
(0 0 0.0123196)
(0 0 0.0121029)
(0 0 0.011886)
(0 0 0.011669)
(0 0 0.0114518)
(0 0 0.0112345)
(0 0 0.0110171)
(0 0 0.0107997)