/*--------------------------------*- C++ -*----------------------------------*\
| =========                 |                                                 |
| \\      /  F ield         | OpenFOAM: The Open Source CFD Toolbox           |
|  \\    /   O peration     | Version:  v2012                                 |
|   \\  /    A nd           | Website:  www.openfoam.com                      |
|    \\/     M anipulation  |                                                 |
\*---------------------------------------------------------------------------*/
FoamFile
{
    version     2.0;
    format      ascii;
    class       volScalarField;
    location    "14.5";
    object      W;
}
// * * * * * * * * * * * * * * * * * * * * * * * * * * * * * * * * * * * * * //

dimensions      [0 0 -1 0 0 0 0];


internalField   nonuniform List<scalar> 
65536
(
3.19056e-15
3.24784e-15
3.36507e-15
3.54399e-15
3.78729e-15
4.09862e-15
4.48265e-15
4.9451e-15
5.49284e-15
6.13396e-15
6.87788e-15
7.73546e-15
8.71909e-15
9.84289e-15
1.11229e-14
1.2577e-14
1.42256e-14
1.60914e-14
1.81998e-14
2.05792e-14
2.32613e-14
2.62813e-14
2.96783e-14
3.34957e-14
3.77817e-14
4.25894e-14
4.79776e-14
5.40112e-14
6.07616e-14
6.83074e-14
7.67352e-14
8.61398e-14
9.66251e-14
1.08305e-13
1.21304e-13
1.35758e-13
1.51815e-13
1.69637e-13
1.89398e-13
2.11288e-13
2.35515e-13
2.623e-13
2.91885e-13
3.24529e-13
3.60512e-13
4.00135e-13
4.43719e-13
4.9161e-13
5.44177e-13
6.01814e-13
6.64938e-13
7.33995e-13
8.09456e-13
8.9182e-13
9.81613e-13
1.07939e-12
1.18573e-12
1.30124e-12
1.42657e-12
1.56237e-12
1.70932e-12
1.86815e-12
2.03959e-12
2.2244e-12
2.42334e-12
2.63722e-12
2.86683e-12
3.113e-12
3.37653e-12
3.65826e-12
3.959e-12
4.27957e-12
4.62077e-12
4.98337e-12
5.36814e-12
5.77581e-12
6.20705e-12
6.66252e-12
7.14281e-12
7.64846e-12
8.17992e-12
8.7376e-12
9.32181e-12
9.93278e-12
1.05706e-11
1.12354e-11
1.1927e-11
1.26453e-11
1.33899e-11
1.41604e-11
1.49563e-11
1.57768e-11
1.66212e-11
1.74884e-11
1.83775e-11
1.9287e-11
2.02159e-11
2.11624e-11
2.2125e-11
2.31021e-11
2.40916e-11
2.50918e-11
2.61004e-11
2.71155e-11
2.81347e-11
2.91557e-11
3.01763e-11
3.1194e-11
3.22062e-11
3.32107e-11
3.42048e-11
3.5186e-11
3.6152e-11
3.71001e-11
3.8028e-11
3.89332e-11
3.98135e-11
4.06664e-11
4.14898e-11
4.22815e-11
4.30394e-11
4.37615e-11
4.44459e-11
4.50907e-11
4.56943e-11
4.62548e-11
4.67709e-11
4.7241e-11
4.76637e-11
4.80378e-11
4.8362e-11
4.86352e-11
4.88564e-11
4.90245e-11
4.91387e-11
4.91981e-11
4.92021e-11
4.91498e-11
4.90406e-11
4.88741e-11
4.86497e-11
4.8367e-11
4.80257e-11
4.76256e-11
4.71665e-11
4.66484e-11
4.60714e-11
4.54358e-11
4.47419e-11
4.39903e-11
4.31818e-11
4.23173e-11
4.1398e-11
4.04255e-11
3.94014e-11
3.83279e-11
3.72072e-11
3.6042e-11
3.48355e-11
3.3591e-11
3.23123e-11
3.10035e-11
2.96691e-11
2.83139e-11
2.6943e-11
2.55619e-11
2.41762e-11
2.27918e-11
2.14147e-11
2.0051e-11
1.87067e-11
1.7388e-11
1.61007e-11
1.48505e-11
1.36429e-11
1.24828e-11
1.13749e-11
1.03233e-11
9.33154e-12
8.40254e-12
7.53863e-12
6.74144e-12
6.01197e-12
5.35051e-12
4.75671e-12
4.22958e-12
3.76751e-12
3.36834e-12
3.02936e-12
2.74739e-12
2.51882e-12
2.33963e-12
2.2055e-12
2.11184e-12
2.0538e-12
2.02642e-12
2.02459e-12
2.04319e-12
2.07713e-12
2.1214e-12
2.17121e-12
2.222e-12
2.26956e-12
2.3101e-12
2.34034e-12
2.35753e-12
2.35955e-12
2.34493e-12
2.31285e-12
2.26317e-12
2.19635e-12
2.11345e-12
2.01604e-12
1.90611e-12
1.78597e-12
1.65816e-12
1.52528e-12
1.38998e-12
1.25475e-12
1.12193e-12
9.93578e-13
8.71431e-13
7.56887e-13
6.50984e-13
5.54403e-13
4.6749e-13
3.90289e-13
3.22588e-13
2.63957e-13
2.13808e-13
1.71434e-13
1.36061e-13
1.06885e-13
8.31049e-14
6.39504e-14
4.87023e-14
3.67052e-14
2.73753e-14
2.02035e-14
1.47541e-14
1.06611e-14
7.62205e-15
5.39149e-15
3.77306e-15
2.61223e-15
1.78914e-15
1.21223e-15
8.12521e-16
5.3881e-16
3.53617e-16
2.29906e-16
1.48481e-16
9.59529e-17
6.32146e-17
4.4319e-17
3.57038e-17
4.78588e-15
4.87186e-15
5.04799e-15
5.31686e-15
5.68252e-15
6.15047e-15
6.72776e-15
7.42302e-15
8.24664e-15
9.21085e-15
1.03299e-14
1.16201e-14
1.31002e-14
1.47917e-14
1.67186e-14
1.89082e-14
2.13912e-14
2.4202e-14
2.73791e-14
3.09654e-14
3.50088e-14
3.95628e-14
4.46865e-14
5.04458e-14
5.69133e-14
6.41698e-14
7.23043e-14
8.1415e-14
9.16102e-14
1.03009e-13
1.15742e-13
1.29954e-13
1.45801e-13
1.63457e-13
1.83109e-13
2.04962e-13
2.29242e-13
2.56192e-13
2.86076e-13
3.19182e-13
3.5582e-13
3.96327e-13
4.41066e-13
4.90427e-13
5.44831e-13
6.04729e-13
6.70604e-13
7.42973e-13
8.22387e-13
9.09433e-13
1.00474e-12
1.10896e-12
1.22279e-12
1.34698e-12
1.4823e-12
1.62956e-12
1.78962e-12
1.96336e-12
2.15171e-12
2.35563e-12
2.57612e-12
2.81418e-12
3.07088e-12
3.34728e-12
3.64448e-12
3.96357e-12
4.30566e-12
4.67189e-12
5.06335e-12
5.48116e-12
5.92638e-12
6.40009e-12
6.9033e-12
7.43698e-12
8.00206e-12
8.59939e-12
9.22975e-12
9.89384e-12
1.05923e-11
1.13255e-11
1.20939e-11
1.28977e-11
1.37371e-11
1.46119e-11
1.5522e-11
1.64671e-11
1.74464e-11
1.84594e-11
1.95051e-11
2.05825e-11
2.16901e-11
2.28266e-11
2.39903e-11
2.51792e-11
2.63913e-11
2.76244e-11
2.88761e-11
3.01438e-11
3.14247e-11
3.2716e-11
3.40146e-11
3.53175e-11
3.66214e-11
3.7923e-11
3.9219e-11
4.05059e-11
4.17803e-11
4.30388e-11
4.42779e-11
4.54943e-11
4.66846e-11
4.78455e-11
4.89738e-11
5.00664e-11
5.11204e-11
5.21328e-11
5.31011e-11
5.40226e-11
5.48949e-11
5.57158e-11
5.64831e-11
5.71951e-11
5.78499e-11
5.8446e-11
5.89821e-11
5.94568e-11
5.98691e-11
6.02181e-11
6.0503e-11
6.07231e-11
6.0878e-11
6.09673e-11
6.09907e-11
6.0948e-11
6.08391e-11
6.0664e-11
6.04228e-11
6.01157e-11
5.97429e-11
5.93046e-11
5.88013e-11
5.82333e-11
5.76012e-11
5.69054e-11
5.61468e-11
5.53259e-11
5.44437e-11
5.35011e-11
5.24993e-11
5.14395e-11
5.03231e-11
4.91518e-11
4.79274e-11
4.6652e-11
4.5328e-11
4.3958e-11
4.2545e-11
4.10922e-11
3.96032e-11
3.80819e-11
3.65326e-11
3.49599e-11
3.33688e-11
3.17645e-11
3.01526e-11
2.85388e-11
2.69293e-11
2.53301e-11
2.37476e-11
2.2188e-11
2.06578e-11
1.91631e-11
1.77099e-11
1.63039e-11
1.49506e-11
1.3655e-11
1.24215e-11
1.12541e-11
1.01561e-11
9.1303e-12
8.17859e-12
7.30231e-12
6.50206e-12
5.77774e-12
5.12855e-12
4.55305e-12
4.04915e-12
3.61419e-12
3.24498e-12
2.93784e-12
2.68865e-12
2.49294e-12
2.3459e-12
2.24247e-12
2.17737e-12
2.14518e-12
2.14041e-12
2.15755e-12
2.19114e-12
2.23585e-12
2.28655e-12
2.33843e-12
2.38702e-12
2.42834e-12
2.45889e-12
2.47583e-12
2.47691e-12
2.46059e-12
2.42603e-12
2.37308e-12
2.30225e-12
2.21465e-12
2.11193e-12
1.9962e-12
1.86986e-12
1.73557e-12
1.59609e-12
1.45414e-12
1.31236e-12
1.17317e-12
1.03873e-12
9.10837e-13
7.90953e-13
6.8015e-13
5.79132e-13
4.88253e-13
4.07553e-13
3.368e-13
2.75542e-13
2.23157e-13
1.78903e-13
1.41969e-13
1.11511e-13
8.669e-14
6.67008e-14
5.07908e-14
3.82747e-14
2.85427e-14
2.10629e-14
1.53801e-14
1.11123e-14
7.94392e-15
5.61866e-15
3.93171e-15
2.72184e-15
1.86407e-15
1.26291e-15
8.4643e-16
5.61259e-16
3.68326e-16
2.39455e-16
1.54639e-16
9.99262e-17
6.58283e-17
4.6149e-17
3.71775e-17
8.67504e-15
8.83117e-15
9.15114e-15
9.63965e-15
1.03041e-14
1.11545e-14
1.22038e-14
1.34677e-14
1.49652e-14
1.67187e-14
1.87541e-14
2.11015e-14
2.37952e-14
2.68742e-14
3.03827e-14
3.43708e-14
3.88944e-14
4.40167e-14
4.98081e-14
5.63475e-14
6.37227e-14
7.20314e-14
8.13824e-14
9.18963e-14
1.03707e-13
1.16961e-13
1.31824e-13
1.48475e-13
1.67112e-13
1.87955e-13
2.11243e-13
2.37241e-13
2.66237e-13
2.98548e-13
3.34518e-13
3.74525e-13
4.18979e-13
4.68326e-13
5.23051e-13
5.8368e-13
6.50781e-13
7.24967e-13
8.06901e-13
8.97295e-13
9.96915e-13
1.10658e-12
1.22717e-12
1.35961e-12
1.50492e-12
1.66414e-12
1.8384e-12
2.02889e-12
2.23686e-12
2.46362e-12
2.71057e-12
2.97915e-12
3.27086e-12
3.58726e-12
3.92999e-12
4.30071e-12
4.70114e-12
5.13305e-12
5.59821e-12
6.09846e-12
6.63562e-12
7.21153e-12
7.82803e-12
8.48692e-12
9.18999e-12
9.93898e-12
1.07355e-11
1.15813e-11
1.24777e-11
1.34262e-11
1.44279e-11
1.5484e-11
1.65954e-11
1.77629e-11
1.89868e-11
2.02675e-11
2.16051e-11
2.29992e-11
2.44493e-11
2.59546e-11
2.75139e-11
2.91258e-11
3.07884e-11
3.24996e-11
3.42569e-11
3.60574e-11
3.7898e-11
3.9775e-11
4.16847e-11
4.36228e-11
4.55849e-11
4.75662e-11
4.95616e-11
5.1566e-11
5.35738e-11
5.55793e-11
5.75768e-11
5.95605e-11
6.15242e-11
6.34621e-11
6.53681e-11
6.72363e-11
6.90608e-11
7.08359e-11
7.25561e-11
7.42158e-11
7.58101e-11
7.7334e-11
7.8783e-11
8.01527e-11
8.14391e-11
8.26388e-11
8.37485e-11
8.47652e-11
8.56866e-11
8.65106e-11
8.72354e-11
8.78598e-11
8.83827e-11
8.88036e-11
8.91221e-11
8.93384e-11
8.94527e-11
8.94658e-11
8.93785e-11
8.91919e-11
8.89074e-11
8.85265e-11
8.80509e-11
8.74823e-11
8.68228e-11
8.60744e-11
8.52391e-11
8.43192e-11
8.33168e-11
8.22343e-11
8.10739e-11
7.98378e-11
7.85286e-11
7.71484e-11
7.56997e-11
7.41849e-11
7.26065e-11
7.0967e-11
6.92691e-11
6.75154e-11
6.57088e-11
6.38522e-11
6.19489e-11
6.00022e-11
5.80156e-11
5.5993e-11
5.39383e-11
5.1856e-11
4.97507e-11
4.76273e-11
4.54911e-11
4.33475e-11
4.12024e-11
3.90618e-11
3.69321e-11
3.48197e-11
3.27314e-11
3.06738e-11
2.86538e-11
2.6678e-11
2.47531e-11
2.28854e-11
2.10812e-11
1.93462e-11
1.76857e-11
1.61045e-11
1.46067e-11
1.3196e-11
1.18752e-11
1.06463e-11
9.51075e-12
8.46898e-12
7.52078e-12
6.66516e-12
5.90037e-12
5.22395e-12
4.63282e-12
4.12328e-12
3.69108e-12
3.33149e-12
3.03938e-12
2.80924e-12
2.63526e-12
2.51142e-12
2.43151e-12
2.38924e-12
2.37824e-12
2.39221e-12
2.42494e-12
2.47041e-12
2.52285e-12
2.57688e-12
2.62752e-12
2.67035e-12
2.70153e-12
2.7179e-12
2.71701e-12
2.69719e-12
2.65753e-12
2.59789e-12
2.51883e-12
2.4216e-12
2.30802e-12
2.1804e-12
2.04137e-12
1.89385e-12
1.74084e-12
1.58531e-12
1.43012e-12
1.27792e-12
1.13102e-12
9.91383e-13
8.60579e-13
7.39759e-13
6.29672e-13
5.30688e-13
4.42834e-13
3.65844e-13
2.99216e-13
2.42262e-13
1.94167e-13
1.54042e-13
1.20963e-13
9.40159e-14
7.23208e-14
5.50581e-14
4.14817e-14
3.0928e-14
2.28186e-14
1.66591e-14
1.20343e-14
8.60153e-15
6.0828e-15
4.25583e-15
2.94579e-15
2.01716e-15
1.36644e-15
9.15703e-16
6.07119e-16
3.98376e-16
2.58962e-16
1.67218e-16
1.08043e-16
7.11678e-17
4.98872e-17
4.01864e-17
1.65121e-14
1.681e-14
1.74205e-14
1.83527e-14
1.96207e-14
2.12438e-14
2.32466e-14
2.56596e-14
2.85191e-14
3.1868e-14
3.57563e-14
4.02415e-14
4.53896e-14
5.12757e-14
5.79847e-14
6.56127e-14
7.42677e-14
8.40707e-14
9.51577e-14
1.0768e-13
1.21807e-13
1.37727e-13
1.5565e-13
1.75807e-13
1.98456e-13
2.23883e-13
2.52402e-13
2.8436e-13
3.20141e-13
3.60167e-13
4.049e-13
4.54849e-13
5.10571e-13
5.72675e-13
6.41828e-13
7.18754e-13
8.04245e-13
8.99159e-13
1.00443e-12
1.12107e-12
1.25017e-12
1.39291e-12
1.55056e-12
1.72448e-12
1.91615e-12
2.12713e-12
2.35911e-12
2.61386e-12
2.89329e-12
3.19941e-12
3.53436e-12
3.9004e-12
4.29988e-12
4.73529e-12
5.20924e-12
5.72444e-12
6.28369e-12
6.88991e-12
7.5461e-12
8.25536e-12
9.02082e-12
9.8457e-12
1.07332e-11
1.16867e-11
1.27094e-11
1.38045e-11
1.49752e-11
1.62247e-11
1.75559e-11
1.89718e-11
2.04751e-11
2.20682e-11
2.37534e-11
2.55329e-11
2.74081e-11
2.93805e-11
3.1451e-11
3.36202e-11
3.5888e-11
3.8254e-11
4.07173e-11
4.32762e-11
4.59287e-11
4.8672e-11
5.15026e-11
5.44167e-11
5.74093e-11
6.04752e-11
6.36084e-11
6.68022e-11
7.00492e-11
7.33415e-11
7.66707e-11
8.00276e-11
8.34029e-11
8.67864e-11
9.01678e-11
9.35363e-11
9.68812e-11
1.00191e-10
1.03455e-10
1.06661e-10
1.09799e-10
1.12857e-10
1.15824e-10
1.18691e-10
1.21446e-10
1.24079e-10
1.26583e-10
1.28947e-10
1.31165e-10
1.33228e-10
1.3513e-10
1.36866e-10
1.3843e-10
1.39818e-10
1.41027e-10
1.42054e-10
1.42897e-10
1.43557e-10
1.44031e-10
1.44322e-10
1.44431e-10
1.44359e-10
1.44109e-10
1.43685e-10
1.4309e-10
1.42329e-10
1.41406e-10
1.40326e-10
1.39095e-10
1.37718e-10
1.36202e-10
1.34551e-10
1.32772e-10
1.30871e-10
1.28855e-10
1.26729e-10
1.24499e-10
1.22171e-10
1.19751e-10
1.17244e-10
1.14658e-10
1.11995e-10
1.09264e-10
1.06467e-10
1.03611e-10
1.00701e-10
9.77419e-11
9.47384e-11
9.16957e-11
8.86189e-11
8.5513e-11
8.23834e-11
7.92352e-11
7.6074e-11
7.29054e-11
6.97352e-11
6.65695e-11
6.34145e-11
6.02767e-11
5.71628e-11
5.40798e-11
5.10347e-11
4.80347e-11
4.50871e-11
4.21994e-11
3.93789e-11
3.66328e-11
3.39683e-11
3.13921e-11
2.89108e-11
2.65304e-11
2.42564e-11
2.20939e-11
2.00471e-11
1.81194e-11
1.63136e-11
1.46316e-11
1.30742e-11
1.16416e-11
1.03329e-11
9.14639e-12
8.07957e-12
7.12904e-12
6.29068e-12
5.5597e-12
4.93066e-12
4.3976e-12
3.95407e-12
3.59325e-12
3.30796e-12
3.09081e-12
2.93421e-12
2.83046e-12
2.77182e-12
2.7506e-12
2.75922e-12
2.79027e-12
2.83664e-12
2.89156e-12
2.94873e-12
3.0024e-12
3.04744e-12
3.07945e-12
3.09481e-12
3.09076e-12
3.06539e-12
3.01771e-12
2.94756e-12
2.85564e-12
2.74338e-12
2.61285e-12
2.46669e-12
2.3079e-12
2.13978e-12
1.9657e-12
1.78904e-12
1.61301e-12
1.44056e-12
1.2743e-12
1.11642e-12
9.68649e-13
8.3227e-13
7.081e-13
5.96529e-13
4.97569e-13
4.10899e-13
3.35936e-13
2.71892e-13
2.17838e-13
1.72762e-13
1.35619e-13
1.05374e-13
8.10332e-14
6.1673e-14
4.64526e-14
3.4625e-14
2.55397e-14
1.86411e-14
1.34629e-14
9.62051e-15
6.80194e-15
4.75801e-15
3.29275e-15
2.25433e-15
1.52683e-15
1.02301e-15
6.78156e-16
4.4492e-16
2.89175e-16
1.867e-16
1.20614e-16
7.94371e-17
5.56763e-17
4.48457e-17
3.15047e-14
3.20746e-14
3.32425e-14
3.50259e-14
3.74519e-14
4.05576e-14
4.43906e-14
4.90092e-14
5.44834e-14
6.08959e-14
6.83429e-14
7.69352e-14
8.67998e-14
9.80815e-14
1.10944e-13
1.25572e-13
1.42175e-13
1.60985e-13
1.82266e-13
2.06309e-13
2.33441e-13
2.64026e-13
2.98469e-13
3.37217e-13
3.80769e-13
4.29677e-13
4.84548e-13
5.46054e-13
6.14938e-13
6.92013e-13
7.78176e-13
8.7441e-13
9.81793e-13
1.1015e-12
1.23483e-12
1.38317e-12
1.54806e-12
1.73116e-12
1.93427e-12
2.15934e-12
2.40848e-12
2.68398e-12
2.98827e-12
3.32399e-12
3.69397e-12
4.10122e-12
4.54897e-12
5.04064e-12
5.57989e-12
6.17057e-12
6.81676e-12
7.52275e-12
8.29305e-12
9.13238e-12
1.00457e-11
1.1038e-11
1.21147e-11
1.32813e-11
1.45433e-11
1.59065e-11
1.73767e-11
1.89599e-11
2.06619e-11
2.24887e-11
2.44461e-11
2.654e-11
2.87759e-11
3.11594e-11
3.36955e-11
3.6389e-11
3.92445e-11
4.22657e-11
4.54563e-11
4.88189e-11
5.23556e-11
5.60679e-11
5.99562e-11
6.402e-11
6.82582e-11
7.26681e-11
7.72463e-11
8.19881e-11
8.68877e-11
9.19379e-11
9.71304e-11
1.02456e-10
1.07902e-10
1.13459e-10
1.19111e-10
1.24846e-10
1.30645e-10
1.36494e-10
1.42375e-10
1.48267e-10
1.54153e-10
1.60011e-10
1.65821e-10
1.71563e-10
1.77214e-10
1.82753e-10
1.88159e-10
1.93411e-10
1.98489e-10
2.03372e-10
2.08041e-10
2.12477e-10
2.16664e-10
2.20584e-10
2.24224e-10
2.2757e-10
2.3061e-10
2.33334e-10
2.35732e-10
2.37799e-10
2.39528e-10
2.40917e-10
2.41963e-10
2.42667e-10
2.4303e-10
2.43054e-10
2.42745e-10
2.42109e-10
2.41152e-10
2.39884e-10
2.38313e-10
2.36451e-10
2.34309e-10
2.31898e-10
2.29231e-10
2.26322e-10
2.23184e-10
2.19831e-10
2.16276e-10
2.12533e-10
2.08615e-10
2.04537e-10
2.00312e-10
1.95952e-10
1.91471e-10
1.8688e-10
1.82192e-10
1.77417e-10
1.72567e-10
1.67653e-10
1.62683e-10
1.57669e-10
1.52619e-10
1.47541e-10
1.42446e-10
1.37339e-10
1.32231e-10
1.27128e-10
1.22038e-10
1.16968e-10
1.11926e-10
1.06919e-10
1.01955e-10
9.70409e-11
9.21844e-11
8.7393e-11
8.26745e-11
7.80367e-11
7.34874e-11
6.90345e-11
6.46861e-11
6.045e-11
5.63339e-11
5.23456e-11
4.84924e-11
4.47814e-11
4.12192e-11
3.78118e-11
3.45647e-11
3.14827e-11
2.85696e-11
2.58285e-11
2.32615e-11
2.08696e-11
1.8653e-11
1.66107e-11
1.47405e-11
1.30393e-11
1.15032e-11
1.0127e-11
8.90477e-12
7.82989e-12
6.89489e-12
6.09172e-12
5.41179e-12
4.8461e-12
4.38527e-12
4.01971e-12
3.73963e-12
3.53515e-12
3.39642e-12
3.31361e-12
3.27707e-12
3.27738e-12
3.30543e-12
3.35252e-12
3.41047e-12
3.47167e-12
3.52924e-12
3.57709e-12
3.61e-12
3.62373e-12
3.61502e-12
3.58169e-12
3.52259e-12
3.43757e-12
3.32748e-12
3.19402e-12
3.03965e-12
2.86743e-12
2.68088e-12
2.48384e-12
2.28023e-12
2.07395e-12
1.86871e-12
1.66791e-12
1.47455e-12
1.29113e-12
1.11963e-12
9.61488e-13
8.17626e-13
6.88464e-13
5.73983e-13
4.73789e-13
3.87185e-13
3.1324e-13
2.50865e-13
1.98878e-13
1.56062e-13
1.21214e-13
9.31828e-14
7.08965e-14
5.3383e-14
3.97788e-14
2.93327e-14
2.14036e-14
1.54539e-14
1.10405e-14
7.804e-15
5.4577e-15
3.77613e-15
2.58472e-15
1.75025e-15
1.17248e-15
7.771e-16
5.09745e-16
3.31253e-16
2.13832e-16
1.3812e-16
9.0952e-17
6.37373e-17
5.13331e-17
5.95217e-14
6.06016e-14
6.28146e-14
6.61937e-14
7.0791e-14
7.66772e-14
8.39427e-14
9.26987e-14
1.03079e-13
1.15241e-13
1.29368e-13
1.45672e-13
1.64395e-13
1.85813e-13
2.1024e-13
2.38028e-13
2.69576e-13
3.05331e-13
3.45793e-13
3.91522e-13
4.43143e-13
5.01353e-13
5.66924e-13
6.40717e-13
7.23686e-13
8.16884e-13
9.2148e-13
1.03876e-12
1.17015e-12
1.3172e-12
1.48165e-12
1.66536e-12
1.87041e-12
2.09907e-12
2.35379e-12
2.63727e-12
2.95244e-12
3.30249e-12
3.69086e-12
4.12131e-12
4.59787e-12
5.12489e-12
5.70708e-12
6.34946e-12
7.05743e-12
7.83675e-12
8.69358e-12
9.63446e-12
1.06663e-11
1.17965e-11
1.30327e-11
1.43832e-11
1.58563e-11
1.74612e-11
1.92069e-11
2.11031e-11
2.31598e-11
2.53872e-11
2.77957e-11
3.03959e-11
3.31986e-11
3.62146e-11
3.94547e-11
4.29296e-11
4.665e-11
5.06259e-11
5.48674e-11
5.93838e-11
6.41838e-11
6.92753e-11
7.46656e-11
8.03607e-11
8.63654e-11
9.26834e-11
9.93167e-11
1.06266e-10
1.1353e-10
1.21106e-10
1.28988e-10
1.37169e-10
1.45641e-10
1.5439e-10
1.63404e-10
1.72666e-10
1.82156e-10
1.91854e-10
2.01736e-10
2.11776e-10
2.21945e-10
2.32213e-10
2.42547e-10
2.52914e-10
2.63276e-10
2.73597e-10
2.83838e-10
2.9396e-10
3.03922e-10
3.13684e-10
3.23206e-10
3.32448e-10
3.4137e-10
3.49934e-10
3.58103e-10
3.65843e-10
3.73119e-10
3.79902e-10
3.86161e-10
3.91873e-10
3.97013e-10
4.01563e-10
4.05507e-10
4.0883e-10
4.11525e-10
4.13586e-10
4.15008e-10
4.15795e-10
4.1595e-10
4.1548e-10
4.14395e-10
4.12711e-10
4.10441e-10
4.07606e-10
4.04225e-10
4.00321e-10
3.95919e-10
3.91044e-10
3.85723e-10
3.79984e-10
3.73855e-10
3.67365e-10
3.60542e-10
3.53417e-10
3.46016e-10
3.38369e-10
3.30502e-10
3.22443e-10
3.14217e-10
3.05849e-10
2.97363e-10
2.88782e-10
2.80126e-10
2.71417e-10
2.62673e-10
2.53912e-10
2.45151e-10
2.36407e-10
2.27693e-10
2.19023e-10
2.10411e-10
2.01868e-10
1.93406e-10
1.85035e-10
1.76766e-10
1.68608e-10
1.60571e-10
1.52663e-10
1.44893e-10
1.3727e-10
1.29802e-10
1.22498e-10
1.15365e-10
1.08412e-10
1.01646e-10
9.50762e-11
8.87096e-11
8.25541e-11
7.66167e-11
7.09046e-11
6.54241e-11
6.01812e-11
5.51812e-11
5.04287e-11
4.59273e-11
4.16798e-11
3.76879e-11
3.39523e-11
3.04721e-11
2.72458e-11
2.42701e-11
2.15409e-11
1.90525e-11
1.67983e-11
1.47704e-11
1.29599e-11
1.13572e-11
9.95159e-12
8.73171e-12
7.68569e-12
6.80114e-12
6.06533e-12
5.46529e-12
4.9879e-12
4.62005e-12
4.34865e-12
4.16077e-12
4.04373e-12
3.98515e-12
3.97308e-12
3.99606e-12
4.04324e-12
4.10448e-12
4.17042e-12
4.23266e-12
4.28377e-12
4.31746e-12
4.32862e-12
4.31338e-12
4.26913e-12
4.19453e-12
4.08948e-12
3.95499e-12
3.79313e-12
3.60686e-12
3.39984e-12
3.17627e-12
2.94068e-12
2.69773e-12
2.45202e-12
2.20793e-12
1.96945e-12
1.74008e-12
1.52274e-12
1.31972e-12
1.13271e-12
9.6272e-13
8.10227e-13
6.75169e-13
5.57051e-13
4.55021e-13
3.6796e-13
2.94565e-13
2.33428e-13
1.83103e-13
1.42164e-13
1.09249e-13
8.30913e-14
6.25447e-14
4.6591e-14
3.43456e-14
2.50541e-14
1.80847e-14
1.29165e-14
9.12774e-15
6.3819e-15
4.41455e-15
3.02105e-15
2.04528e-15
1.36985e-15
9.07738e-16
5.9533e-16
3.86802e-16
2.49649e-16
1.61228e-16
1.06151e-16
7.43765e-17
5.98951e-17
1.1102e-13
1.13041e-13
1.17182e-13
1.23505e-13
1.32109e-13
1.43125e-13
1.56725e-13
1.73119e-13
1.92557e-13
2.15337e-13
2.41803e-13
2.72357e-13
3.07453e-13
3.47613e-13
3.93428e-13
4.45564e-13
5.04772e-13
5.71898e-13
6.47887e-13
7.33796e-13
8.30807e-13
9.40236e-13
1.06355e-12
1.20237e-12
1.3585e-12
1.53395e-12
1.73092e-12
1.95185e-12
2.19943e-12
2.47663e-12
2.7867e-12
3.13321e-12
3.52009e-12
3.95162e-12
4.43248e-12
4.96778e-12
5.56307e-12
6.22439e-12
6.9583e-12
7.77187e-12
8.67278e-12
9.66926e-12
1.07702e-11
1.19852e-11
1.33243e-11
1.47985e-11
1.64195e-11
1.81995e-11
2.01517e-11
2.22898e-11
2.46284e-11
2.71828e-11
2.9969e-11
3.30037e-11
3.63041e-11
3.98883e-11
4.37746e-11
4.79819e-11
5.25295e-11
5.74369e-11
6.27239e-11
6.84101e-11
7.45151e-11
8.10581e-11
8.80578e-11
9.55324e-11
1.03499e-10
1.11974e-10
1.20971e-10
1.30504e-10
1.40584e-10
1.5122e-10
1.62418e-10
1.74182e-10
1.86514e-10
1.99409e-10
2.12864e-10
2.26867e-10
2.41405e-10
2.5646e-10
2.72011e-10
2.88029e-10
3.04485e-10
3.21343e-10
3.38561e-10
3.56096e-10
3.73896e-10
3.9191e-10
4.10079e-10
4.28341e-10
4.46631e-10
4.64882e-10
4.83022e-10
5.0098e-10
5.18679e-10
5.36046e-10
5.53004e-10
5.69478e-10
5.85393e-10
6.00676e-10
6.15257e-10
6.29067e-10
6.42043e-10
6.54123e-10
6.65253e-10
6.75382e-10
6.84465e-10
6.92464e-10
6.99346e-10
7.05085e-10
7.09662e-10
7.13066e-10
7.1529e-10
7.16337e-10
7.16215e-10
7.14937e-10
7.12526e-10
7.09006e-10
7.04411e-10
6.98778e-10
6.92147e-10
6.84564e-10
6.76078e-10
6.66741e-10
6.56608e-10
6.45733e-10
6.34173e-10
6.21988e-10
6.09235e-10
5.95972e-10
5.82257e-10
5.68145e-10
5.53691e-10
5.38949e-10
5.2397e-10
5.08803e-10
4.93494e-10
4.78087e-10
4.62625e-10
4.47145e-10
4.31685e-10
4.16277e-10
4.00954e-10
3.85742e-10
3.70668e-10
3.55756e-10
3.41027e-10
3.265e-10
3.12194e-10
2.98124e-10
2.84304e-10
2.70747e-10
2.57465e-10
2.44468e-10
2.31767e-10
2.19369e-10
2.07285e-10
1.9552e-10
1.84083e-10
1.72981e-10
1.6222e-10
1.51806e-10
1.41747e-10
1.32046e-10
1.22711e-10
1.13746e-10
1.05155e-10
9.69432e-11
8.91137e-11
8.16693e-11
7.46118e-11
6.79422e-11
6.16602e-11
5.57646e-11
5.02527e-11
4.51205e-11
4.03626e-11
3.59722e-11
3.1941e-11
2.82593e-11
2.49161e-11
2.18991e-11
1.91947e-11
1.67882e-11
1.46643e-11
1.28064e-11
1.11977e-11
9.82071e-12
8.65756e-12
7.69028e-12
6.90086e-12
6.27131e-12
5.78385e-12
5.421e-12
5.16566e-12
5.00121e-12
4.91162e-12
4.88153e-12
4.89633e-12
4.94229e-12
5.00668e-12
5.07782e-12
5.14527e-12
5.19989e-12
5.23395e-12
5.24123e-12
5.21701e-12
5.15818e-12
5.06314e-12
4.9318e-12
4.76544e-12
4.56659e-12
4.33886e-12
4.08667e-12
3.8151e-12
3.5296e-12
3.23576e-12
2.9391e-12
2.64482e-12
2.35768e-12
2.08184e-12
1.82076e-12
1.57713e-12
1.3529e-12
1.14927e-12
9.66743e-13
8.05204e-13
6.64026e-13
5.42158e-13
4.38234e-13
3.50675e-13
2.7778e-13
2.17809e-13
1.69047e-13
1.29861e-13
9.87346e-14
7.42953e-14
5.53267e-14
4.0773e-14
2.97341e-14
2.14568e-14
1.53209e-14
1.08241e-14
7.56615e-15
5.23252e-15
3.58003e-15
2.42321e-15
1.62265e-15
1.07505e-15
7.04935e-16
4.57936e-16
2.9551e-16
1.90815e-16
1.2561e-16
8.79971e-17
7.0856e-17
2.04295e-13
2.08028e-13
2.15674e-13
2.27351e-13
2.4324e-13
2.63588e-13
2.88712e-13
3.19002e-13
3.54925e-13
3.97034e-13
4.45971e-13
5.0248e-13
5.6741e-13
6.41731e-13
7.26544e-13
8.2309e-13
9.32772e-13
1.05716e-12
1.19802e-12
1.35734e-12
1.5373e-12
1.74037e-12
1.96929e-12
2.2271e-12
2.51716e-12
2.84322e-12
3.20941e-12
3.62029e-12
4.08091e-12
4.5968e-12
5.17407e-12
5.81942e-12
6.54017e-12
7.34436e-12
8.24076e-12
9.23895e-12
1.03493e-11
1.15832e-11
1.29529e-11
1.44716e-11
1.61538e-11
1.80148e-11
2.00713e-11
2.23412e-11
2.48435e-11
2.75986e-11
3.06282e-11
3.39554e-11
3.76046e-11
4.16015e-11
4.59732e-11
5.07482e-11
5.59561e-11
6.16279e-11
6.77955e-11
7.44921e-11
8.17515e-11
8.96086e-11
9.80985e-11
1.07257e-10
1.17119e-10
1.27722e-10
1.39099e-10
1.51285e-10
1.64313e-10
1.78216e-10
1.93021e-10
2.08758e-10
2.25449e-10
2.43116e-10
2.61775e-10
2.8144e-10
3.02117e-10
3.23809e-10
3.46512e-10
3.70216e-10
3.94903e-10
4.20548e-10
4.4712e-10
4.74577e-10
5.02871e-10
5.31944e-10
5.61731e-10
5.92156e-10
6.23137e-10
6.54581e-10
6.8639e-10
7.18455e-10
7.50662e-10
7.82891e-10
8.15013e-10
8.46898e-10
8.7841e-10
9.0941e-10
9.39758e-10
9.69312e-10
9.97934e-10
1.02548e-09
1.05183e-09
1.07683e-09
1.10038e-09
1.12234e-09
1.14261e-09
1.1611e-09
1.1777e-09
1.19235e-09
1.20497e-09
1.21551e-09
1.22393e-09
1.23019e-09
1.23429e-09
1.23622e-09
1.236e-09
1.23364e-09
1.22919e-09
1.22269e-09
1.2142e-09
1.20379e-09
1.19154e-09
1.17754e-09
1.16187e-09
1.14465e-09
1.12597e-09
1.10595e-09
1.0847e-09
1.06232e-09
1.03894e-09
1.01466e-09
9.89607e-10
9.63884e-10
9.37599e-10
9.10856e-10
8.83757e-10
8.56397e-10
8.28865e-10
8.01249e-10
7.73628e-10
7.46076e-10
7.18663e-10
6.9145e-10
6.64497e-10
6.37854e-10
6.11569e-10
5.85684e-10
5.60234e-10
5.35254e-10
5.10771e-10
4.86808e-10
4.63388e-10
4.40528e-10
4.18241e-10
3.96541e-10
3.75437e-10
3.54937e-10
3.35048e-10
3.15773e-10
2.97118e-10
2.79084e-10
2.61674e-10
2.44888e-10
2.28727e-10
2.13193e-10
1.98284e-10
1.83999e-10
1.70339e-10
1.57301e-10
1.44883e-10
1.33083e-10
1.21897e-10
1.11321e-10
1.01349e-10
9.1976e-11
8.31931e-11
7.49917e-11
6.73613e-11
6.02899e-11
5.37639e-11
4.77681e-11
4.22859e-11
3.72991e-11
3.27879e-11
2.87315e-11
2.51076e-11
2.18932e-11
1.90641e-11
1.65957e-11
1.4463e-11
1.26406e-11
1.1103e-11
9.8249e-12
8.78122e-12
7.9473e-12
7.29899e-12
6.81283e-12
6.46609e-12
6.23688e-12
6.10428e-12
6.04839e-12
6.05045e-12
6.09296e-12
6.15975e-12
6.23616e-12
6.30909e-12
6.36716e-12
6.40081e-12
6.40234e-12
6.366e-12
6.28798e-12
6.16638e-12
6.00112e-12
5.79382e-12
5.54761e-12
5.26688e-12
4.95708e-12
4.62436e-12
4.27536e-12
3.91683e-12
3.55543e-12
3.19745e-12
2.84861e-12
2.51387e-12
2.19737e-12
1.90232e-12
1.631e-12
1.38481e-12
1.1643e-12
9.69297e-13
7.98984e-13
6.52061e-13
5.26847e-13
4.21411e-13
3.33681e-13
2.61543e-13
2.02916e-13
1.55825e-13
1.18435e-13
8.90909e-14
6.63244e-14
4.88633e-14
3.5624e-14
2.57001e-14
1.8346e-14
1.29582e-14
9.05571e-15
6.26126e-15
4.28296e-15
2.89841e-15
1.94048e-15
1.28539e-15
8.42712e-16
5.47347e-16
3.53151e-16
2.27998e-16
1.50063e-16
1.05112e-16
8.46285e-17
3.70841e-13
3.77642e-13
3.91575e-13
4.12852e-13
4.41807e-13
4.78894e-13
5.24693e-13
5.79919e-13
6.45432e-13
7.22244e-13
8.11537e-13
9.14675e-13
1.03322e-12
1.16896e-12
1.3239e-12
1.50035e-12
1.70087e-12
1.92837e-12
2.18609e-12
2.47768e-12
2.80719e-12
3.17915e-12
3.59863e-12
4.07121e-12
4.60314e-12
5.20131e-12
5.87336e-12
6.62773e-12
7.47373e-12
8.42161e-12
9.48265e-12
1.06692e-11
1.1995e-11
1.34747e-11
1.51247e-11
1.69626e-11
1.90078e-11
2.12812e-11
2.38055e-11
2.66053e-11
2.97072e-11
3.31399e-11
3.69341e-11
4.11228e-11
4.57413e-11
5.08274e-11
5.64212e-11
6.25653e-11
6.93046e-11
7.66868e-11
8.47618e-11
9.35818e-11
1.03201e-10
1.13677e-10
1.25069e-10
1.37435e-10
1.50839e-10
1.65344e-10
1.81013e-10
1.97912e-10
2.16103e-10
2.35652e-10
2.5662e-10
2.79068e-10
3.03054e-10
3.28633e-10
3.55856e-10
3.84767e-10
4.15408e-10
4.4781e-10
4.81998e-10
5.17989e-10
5.55788e-10
5.95392e-10
6.36784e-10
6.79935e-10
7.24804e-10
7.71333e-10
8.19451e-10
8.69072e-10
9.20094e-10
9.72397e-10
1.02585e-09
1.08029e-09
1.13557e-09
1.19149e-09
1.24787e-09
1.30449e-09
1.36113e-09
1.41756e-09
1.47354e-09
1.52881e-09
1.58312e-09
1.63621e-09
1.68783e-09
1.73771e-09
1.78559e-09
1.83124e-09
1.8744e-09
1.91485e-09
1.95238e-09
1.98678e-09
2.01787e-09
2.04548e-09
2.06949e-09
2.08976e-09
2.1062e-09
2.11875e-09
2.12735e-09
2.132e-09
2.13269e-09
2.12946e-09
2.12237e-09
2.11149e-09
2.09693e-09
2.07881e-09
2.05728e-09
2.03248e-09
2.0046e-09
1.97382e-09
1.94034e-09
1.90436e-09
1.86611e-09
1.82579e-09
1.78364e-09
1.73986e-09
1.69467e-09
1.64829e-09
1.60093e-09
1.55279e-09
1.50407e-09
1.45495e-09
1.4056e-09
1.3562e-09
1.30689e-09
1.25783e-09
1.20914e-09
1.16094e-09
1.11334e-09
1.06644e-09
1.02033e-09
9.75077e-10
9.30751e-10
8.87409e-10
8.45097e-10
8.03855e-10
7.63715e-10
7.24701e-10
6.86832e-10
6.5012e-10
6.14574e-10
5.80198e-10
5.4699e-10
5.14949e-10
4.84068e-10
4.54338e-10
4.25751e-10
3.98294e-10
3.71957e-10
3.46724e-10
3.22584e-10
2.9952e-10
2.7752e-10
2.56567e-10
2.36647e-10
2.17743e-10
1.99841e-10
1.82922e-10
1.66971e-10
1.51969e-10
1.37897e-10
1.24735e-10
1.12463e-10
1.01057e-10
9.04936e-11
8.07474e-11
7.17914e-11
6.3597e-11
5.61341e-11
4.93712e-11
4.32755e-11
3.78129e-11
3.29486e-11
2.86466e-11
2.48708e-11
2.15845e-11
1.8751e-11
1.63339e-11
1.4297e-11
1.26047e-11
1.12224e-11
1.01162e-11
9.25335e-12
8.60229e-12
8.13275e-12
7.81584e-12
7.62415e-12
7.53181e-12
7.51463e-12
7.55015e-12
7.6178e-12
7.69899e-12
7.77723e-12
7.83828e-12
7.87018e-12
7.86341e-12
7.81086e-12
7.70785e-12
7.55209e-12
7.34353e-12
7.0842e-12
6.77796e-12
6.43026e-12
6.04774e-12
5.63798e-12
5.20905e-12
4.76919e-12
4.32649e-12
3.88856e-12
3.46232e-12
3.05377e-12
2.66786e-12
2.30843e-12
1.9782e-12
1.67879e-12
1.4108e-12
1.17398e-12
9.67277e-13
7.89073e-13
6.37289e-13
5.09551e-13
4.03319e-13
3.1601e-13
2.45089e-13
1.88147e-13
1.42956e-13
1.07503e-13
8.00073e-14
5.89271e-14
4.29494e-14
3.09767e-14
2.21072e-14
1.56111e-14
1.09072e-14
7.53979e-15
5.15648e-15
3.48886e-15
2.33536e-15
1.54669e-15
1.01385e-15
6.58399e-16
4.24738e-16
2.74175e-16
1.80429e-16
1.26364e-16
1.01729e-16
6.64038e-13
6.76269e-13
7.01321e-13
7.39579e-13
7.91647e-13
8.58348e-13
9.40732e-13
1.0401e-12
1.158e-12
1.29627e-12
1.45705e-12
1.64282e-12
1.85641e-12
2.10106e-12
2.38044e-12
2.69869e-12
3.06051e-12
3.47117e-12
3.93656e-12
4.46331e-12
5.05882e-12
5.73134e-12
6.49006e-12
7.3452e-12
8.30811e-12
9.39139e-12
1.0609e-11
1.19762e-11
1.35102e-11
1.52296e-11
1.71551e-11
1.93093e-11
2.17169e-11
2.44053e-11
2.74041e-11
3.07458e-11
3.44656e-11
3.86018e-11
4.31962e-11
4.82938e-11
5.39431e-11
6.01966e-11
6.71106e-11
7.47456e-11
8.31662e-11
9.24415e-11
1.02645e-10
1.13854e-10
1.26151e-10
1.39622e-10
1.5436e-10
1.70459e-10
1.88019e-10
2.07142e-10
2.27935e-10
2.50509e-10
2.74974e-10
3.01445e-10
3.30036e-10
3.60864e-10
3.94043e-10
4.29686e-10
4.67904e-10
5.08803e-10
5.52485e-10
5.99043e-10
6.48563e-10
7.01122e-10
7.56783e-10
8.15597e-10
8.77598e-10
9.42805e-10
1.01122e-09
1.08281e-09
1.15754e-09
1.23535e-09
1.31613e-09
1.39976e-09
1.4861e-09
1.57497e-09
1.66616e-09
1.75943e-09
1.85452e-09
1.95113e-09
2.04894e-09
2.14759e-09
2.24672e-09
2.34591e-09
2.44474e-09
2.54279e-09
2.63958e-09
2.73466e-09
2.82756e-09
2.91779e-09
3.00489e-09
3.08839e-09
3.16782e-09
3.24275e-09
3.31276e-09
3.37745e-09
3.43645e-09
3.48943e-09
3.53609e-09
3.57618e-09
3.60947e-09
3.63581e-09
3.65507e-09
3.66718e-09
3.6721e-09
3.66987e-09
3.66056e-09
3.64428e-09
3.62119e-09
3.5915e-09
3.55545e-09
3.51332e-09
3.46541e-09
3.41207e-09
3.35366e-09
3.29055e-09
3.22316e-09
3.15187e-09
3.07711e-09
2.9993e-09
2.91884e-09
2.83616e-09
2.75165e-09
2.6657e-09
2.57869e-09
2.49097e-09
2.4029e-09
2.31479e-09
2.22693e-09
2.13962e-09
2.0531e-09
1.9676e-09
1.88333e-09
1.80049e-09
1.71922e-09
1.63968e-09
1.56199e-09
1.48625e-09
1.41255e-09
1.34094e-09
1.27149e-09
1.20423e-09