/*--------------------------------*- C++ -*----------------------------------*\
| =========                 |                                                 |
| \\      /  F ield         | OpenFOAM: The Open Source CFD Toolbox           |
|  \\    /   O peration     | Version:  v2012                                 |
|   \\  /    A nd           | Website:  www.openfoam.com                      |
|    \\/     M anipulation  |                                                 |
\*---------------------------------------------------------------------------*/
FoamFile
{
    version     2.0;
    format      ascii;
    class       volVectorField;
    location    "0";
    object      U;
}
// * * * * * * * * * * * * * * * * * * * * * * * * * * * * * * * * * * * * * //

dimensions      [0 1 -1 0 0 0 0];


internalField   nonuniform List<vector> 
4000
(
(1 -3.47541e-15 0)
(1 8.35151e-15 0)
(1 -6.35119e-15 0)
(1 6.18085e-15 0)
(1 -5.04642e-16 0)
(1 -3.73299e-15 0)
(1 4.62716e-15 0)
(1 -1.62352e-15 0)
(1 -2.21549e-15 0)
(1 -5.99827e-16 0)
(1 1.38777e-15 0)
(1 3.18654e-15 0)
(1 4.4846e-15 0)
(1 -2.88902e-16 0)
(1 6.46143e-15 0)
(1 -4.41534e-15 0)
(1 -4.78798e-15 0)
(1 -4.64775e-15 0)
(1 -7.17772e-16 0)
(1 -2.61209e-15 0)
(1 -1.48591e-15 0)
(1 -8.45902e-15 0)
(1 -1.11264e-15 0)
(1 -5.20928e-15 0)
(1 6.61459e-15 0)
(1 -3.29059e-15 0)
(1 6.90692e-15 0)
(1 2.09324e-15 0)
(1 3.44489e-15 0)
(1 6.43576e-15 0)
(1 4.45034e-15 0)
(1 -2.35992e-15 0)
(1 -3.8199e-15 0)
(1 -3.08577e-15 0)
(1 -4.55636e-16 0)
(1 1.6525e-15 0)
(1 8.6425e-15 0)
(1 4.94746e-15 0)
(1 1.50392e-15 0)
(1 -1.56354e-15 0)
(1 -3.61853e-15 0)
(1 -6.11529e-15 0)
(1 -3.54625e-15 0)
(1 2.82752e-15 0)
(1 3.67563e-15 0)
(1 -1.18577e-15 0)
(1 3.20553e-15 0)
(1 -1.52233e-15 0)
(1 -4.82244e-15 0)
(1 1.72476e-15 0)
(1 -2.36833e-15 0)
(1 5.98749e-15 0)
(1 3.26889e-16 0)
(1 2.62059e-15 0)
(1 -9.3971e-18 0)
(1 -7.20136e-15 0)
(1 -7.70157e-16 0)
(1 9.88959e-16 0)
(1 5.84289e-15 0)
(1 4.67465e-15 0)
(1 2.7054e-15 0)
(1 -9.04774e-16 0)
(1 2.85386e-15 0)
(1 -5.65984e-16 0)
(1 -9.29556e-16 0)
(1 -3.70601e-16 0)
(1 8.01655e-17 0)
(1 1.98665e-15 0)
(1 -3.45912e-15 0)
(1 6.0351e-16 0)
(1 -5.01995e-15 0)
(1 -1.50747e-15 0)
(1 -1.51378e-16 0)
(1 -5.91026e-16 0)
(1 -5.94593e-15 0)
(1 -3.38223e-15 0)
(1 -2.54083e-15 0)
(1 7.46765e-16 0)
(1 4.67325e-16 0)
(1 1.17382e-15 0)
(1 4.83202e-15 0)
(1 3.70261e-16 0)
(1 1.3765e-15 0)
(1 1.59828e-15 0)
(1 -4.04644e-15 0)
(1 -7.08463e-16 0)
(1 -3.08698e-15 0)
(1 -2.59237e-15 0)
(1 7.19906e-15 0)
(1 2.81892e-15 0)
(1 -3.47337e-16 0)
(1 1.49392e-15 0)
(1 -5.65822e-15 0)
(1 8.60224e-16 0)
(1 -1.59235e-15 0)
(1 -5.83365e-15 0)
(1 -2.06698e-15 0)
(1 -4.72008e-16 0)
(1 4.72734e-16 0)
(1 3.43888e-17 0)
(1 -1.29895e-17 0)
(1 4.43532e-15 0)
(1 -5.51444e-15 0)
(1 6.32896e-15 0)
(1 1.25091e-15 0)
(1 -7.42202e-15 0)
(1 6.42599e-15 0)
(1 -3.57238e-15 0)
(1 -1.24033e-15 0)
(1 -1.61482e-15 0)
(1 -5.62825e-16 0)
(1 2.70663e-15 0)
(1 1.00832e-14 0)
(1 8.3902e-15 0)
(1 7.30614e-15 0)
(1 -7.5567e-15 0)
(1 -8.17604e-15 0)
(1 -6.60558e-15 0)
(1 -2.3827e-15 0)
(1 -4.55809e-15 0)
(1 -1.77017e-15 0)
(1 -9.80219e-15 0)
(1 -1.64613e-15 0)
(1 -1.10347e-14 0)
(1 8.07782e-15 0)
(1 -4.58967e-15 0)
(1 8.51151e-15 0)
(1 2.47087e-15 0)
(1 5.18543e-15 0)
(1 6.47291e-15 0)
(1 7.10748e-15 0)
(1 8.02088e-16 0)
(1 -6.98915e-15 0)
(1 -1.99919e-15 0)
(1 -8.65914e-16 0)
(1 2.88584e-15 0)
(1 8.25356e-15 0)
(1 7.21185e-15 0)
(1 3.3561e-16 0)
(1 -4.56659e-15 0)
(1 -8.24876e-15 0)
(1 -9.79587e-15 0)
(1 -5.48276e-15 0)
(1 1.51973e-15 0)
(1 5.3989e-15 0)
(1 -3.70592e-15 0)
(1 2.50106e-15 0)
(1 5.72513e-16 0)
(1 3.7346e-15 0)
(1 -2.60343e-15 0)
(1 -7.50787e-15 0)
(1 -1.32e-16 0)
(1 9.75448e-16 0)
(1 3.00628e-15 0)
(1 8.74173e-16 0)
(1 -3.93461e-16 0)
(1 2.31129e-15 0)
(1 5.34121e-15 0)
(1 7.39095e-16 0)
(1 3.90728e-15 0)
(1 -6.04078e-15 0)
(1 -2.44264e-15 0)
(1 2.77193e-15 0)
(1 1.01084e-15 0)
(1 3.41304e-15 0)
(1 1.60989e-15 0)
(1 -3.39681e-15 0)
(1 -1.42832e-15 0)
(1 -5.85867e-15 0)
(1 -1.79824e-15 0)
(1 -2.35717e-15 0)
(1 -5.14491e-16 0)
(1 5.25829e-15 0)
(1 1.20988e-15 0)
(1 1.70395e-15 0)
(1 -3.54264e-15 0)
(1 7.1838e-16 0)
(1 3.76593e-15 0)
(1 1.77837e-15 0)
(1 1.50035e-15 0)
(1 4.65526e-15 0)
(1 -1.59934e-15 0)
(1 1.86096e-15 0)
(1 2.86169e-15 0)
(1 1.75873e-15 0)
(1 1.13369e-15 0)
(1 -2.55438e-15 0)
(1 -4.08152e-15 0)
(1 2.57956e-16 0)
(1 1.18413e-15 0)
(1 1.35352e-15 0)
(1 2.23408e-15 0)
(1 -5.8739e-15 0)
(1 1.24432e-15 0)
(1 -3.25484e-15 0)
(1 -3.29936e-15 0)
(1 -3.20082e-15 0)
(1 2.68179e-15 0)
(1 -3.53515e-15 0)
(1 -4.48182e-15 0)
(1 2.43878e-15 0)
(1 -7.1307e-15 0)
(1 -6.84598e-16 0)
(1 -6.2376e-15 0)
(1 4.74332e-15 0)
(1 3.9383e-16 0)
(1 6.92276e-15 0)
(1 5.49331e-15 0)
(1 -7.99293e-16 0)
(1 -1.76516e-15 0)
(1 5.98634e-17 0)
(1 4.63022e-15 0)
(1 5.4679e-15 0)
(1 1.32911e-14 0)
(1 -9.00084e-16 0)
(1 -2.75895e-15 0)
(1 -4.42613e-15 0)
(1 -1.63624e-16 0)
(1 -1.77945e-16 0)
(1 -5.58448e-16 0)
(1 -2.44851e-16 0)
(1 -1.33836e-17 0)
(1 -9.06715e-15 0)
(1 -9.73574e-15 0)
(1 -3.63508e-15 0)
(1 4.82012e-15 0)
(1 1.05163e-14 0)
(1 9.16727e-15 0)
(1 1.26296e-14 0)
(1 1.05982e-14 0)
(1 1.11485e-14 0)
(1 2.60917e-15 0)
(1 -2.48895e-16 0)
(1 -4.33868e-15 0)
(1 -5.13861e-15 0)
(1 -3.70587e-15 0)
(1 -3.93957e-15 0)
(1 5.26937e-15 0)
(1 -1.96199e-16 0)
(1 -5.89557e-15 0)
(1 -4.73162e-15 0)
(1 -5.30578e-15 0)
(1 -8.74037e-15 0)
(1 -5.09617e-15 0)
(1 -7.35706e-16 0)
(1 -5.13185e-16 0)
(1 9.32745e-16 0)
(1 6.31652e-15 0)
(1 -1.79544e-16 0)
(1 -2.56705e-15 0)
(1 -2.16601e-16 0)
(1 4.56789e-17 0)
(1 3.7143e-15 0)
(1 -2.66652e-15 0)
(1 2.02647e-15 0)
(1 8.11697e-15 0)
(1 3.21721e-15 0)
(1 3.00123e-15 0)
(1 -2.39102e-15 0)
(1 -3.50835e-15 0)
(1 -6.44527e-15 0)
(1 1.53587e-15 0)
(1 4.42907e-15 0)
(1 -1.4093e-15 0)
(1 4.48879e-15 0)
(1 2.84986e-15 0)
(1 -1.35085e-15 0)
(1 -3.87109e-15 0)
(1 -1.52069e-15 0)
(1 -2.34051e-15 0)
(1 -9.09873e-16 0)
(1 2.50094e-16 0)
(1 -1.09804e-15 0)
(1 -3.4084e-16 0)
(1 5.41469e-16 0)
(1 2.89232e-16 0)
(1 -8.16401e-16 0)
(1 1.31064e-15 0)
(1 -2.27865e-15 0)
(1 2.73423e-15 0)
(1 3.48784e-16 0)
(1 -3.75911e-15 0)
(1 -5.87002e-17 0)
(1 -2.12959e-15 0)
(1 5.43949e-15 0)
(1 -3.41693e-16 0)
(1 4.78405e-16 0)
(1 -2.35151e-15 0)
(1 -5.8309e-15 0)
(1 -2.32273e-15 0)
(1 -7.49088e-16 0)
(1 2.42907e-15 0)
(1 -1.46521e-15 0)
(1 -2.22796e-16 0)
(1 -1.60423e-15 0)
(1 -2.42254e-15 0)
(1 -4.10814e-15 0)
(1 -2.53448e-15 0)
(1 -3.85749e-15 0)
(1 -2.60429e-15 0)
(1 3.49251e-15 0)
(1 -7.23071e-15 0)
(1 -3.1836e-15 0)
(1 -1.14597e-14 0)
(1 6.41629e-15 0)
(1 -8.75531e-16 0)
(1 6.10456e-15 0)
(1 5.40336e-15 0)
(1 -2.70752e-15 0)
(1 1.67508e-15 0)
(1 5.77813e-15 0)
(1 1.2909e-14 0)
(1 6.5475e-15 0)
(1 4.77935e-15 0)
(1 3.54315e-15 0)
(1 -2.36807e-15 0)
(1 -1.20829e-15 0)
(1 -5.50004e-15 0)
(1 -1.38199e-14 0)
(1 -3.8925e-16 0)
(1 2.14235e-15 0)
(1 4.40256e-15 0)
(1 -1.38793e-15 0)
(1 8.23529e-16 0)
(1 2.63274e-15 0)
(1 3.85821e-15 0)
(1 6.3264e-15 0)
(1 1.07747e-14 0)
(1 1.09607e-14 0)
(1 9.99552e-15 0)
(1 7.23061e-15 0)
(1 5.88408e-16 0)
(1 2.04727e-15 0)
(1 2.25482e-16 0)
(1 2.46765e-16 0)
(1 -4.14353e-15 0)
(1 -4.14039e-15 0)
(1 -3.7257e-15 0)
(1 -2.08475e-16 0)
(1 1.3654e-15 0)
(1 4.48974e-15 0)
(1 -2.76546e-15 0)
(1 -9.03887e-15 0)
(1 -6.76341e-15 0)
(1 -4.40938e-15 0)
(1 5.65073e-15 0)
(1 6.48101e-15 0)
(1 6.09815e-15 0)
(1 -2.4667e-15 0)
(1 2.5663e-15 0)
(1 4.08092e-15 0)
(1 1.86274e-15 0)
(1 -4.00128e-15 0)
(1 -8.65866e-15 0)
(1 -1.10304e-15 0)
(1 8.68357e-16 0)
(1 4.73317e-16 0)
(1 -8.74601e-16 0)
(1 -4.44681e-15 0)
(1 -1.51042e-15 0)
(1 4.03025e-15 0)
(1 5.41361e-15 0)
(1 3.08378e-15 0)
(1 5.35186e-15 0)
(1 5.04629e-16 0)
(1 -1.47022e-16 0)
(1 -2.64391e-15 0)
(1 -4.21012e-15 0)
(1 -4.60278e-15 0)
(1 -3.41276e-15 0)
(1 -3.08868e-15 0)
(1 2.48936e-15 0)
(1 -2.19006e-15 0)
(1 -1.94462e-15 0)
(1 1.61363e-16 0)
(1 -2.38615e-15 0)
(1 1.863e-15 0)
(1 -4.9544e-15 0)
(1 3.53375e-16 0)
(1 5.30008e-15 0)
(1 2.64188e-15 0)
(1 2.54334e-15 0)
(1 -1.45834e-15 0)
(1 9.42368e-16 0)
(1 5.64078e-17 0)
(1 -4.56255e-16 0)
(1 5.10509e-15 0)
(1 6.42833e-16 0)
(1 2.77535e-15 0)
(1 6.80399e-16 0)
(1 -3.42207e-15 0)
(1 1.24552e-16 0)
(1 -9.6715e-16 0)
(1 3.5591e-16 0)
(1 -2.77348e-16 0)
(1 -6.70586e-15 0)
(1 -9.55743e-15 0)
(1 -5.26067e-15 0)
(1 -4.34023e-15 0)
(1 -1.61528e-15 0)
(1 2.80706e-15 0)
(1 -4.5332e-16 0)
(1 -8.06587e-15 0)
(1 -2.14761e-15 0)
(1 3.3119e-15 0)
(1 1.09282e-15 0)
(1 6.94425e-16 0)
(1 -5.45906e-16 0)
(1 -1.47507e-15 0)
(1 -3.98096e-15 0)
(1 5.26695e-15 0)
(1 2.63787e-15 0)
(1 6.42941e-15 0)
(1 -2.50754e-15 0)
(1 1.19046e-14 0)
(1 1.28289e-15 0)
(1 3.69768e-15 0)
(1 -8.0501e-15 0)
(1 -1.13278e-14 0)
(1 -9.96381e-15 0)
(1 -7.55681e-16 0)
(1 -2.05536e-15 0)
(1 7.29185e-15 0)
(1 8.12762e-15 0)
(1 1.2146e-14 0)
(1 5.28377e-15 0)
(1 6.89765e-15 0)
(1 8.36112e-15 0)
(1 1.05203e-14 0)
(1 3.7965e-15 0)
(1 8.41619e-15 0)
(1 6.52499e-15 0)
(1 1.90391e-15 0)
(1 -9.66643e-16 0)
(1 -4.73876e-15 0)
(1 -9.37955e-15 0)
(1 -5.82812e-15 0)
(1 -8.3936e-15 0)
(1 -6.15667e-15 0)
(1 -1.1946e-15 0)
(1 -2.6846e-15 0)
(1 -4.66521e-15 0)
(1 -3.86256e-15 0)
(1 -3.30752e-15 0)
(1 -2.58616e-15 0)
(1 1.35279e-15 0)
(1 4.9342e-15 0)
(1 4.84371e-15 0)
(1 4.13635e-15 0)
(1 6.12709e-15 0)
(1 -6.70307e-16 0)
(1 -4.13731e-15 0)
(1 -5.59242e-15 0)
(1 -5.44955e-16 0)
(1 3.66199e-15 0)
(1 6.90382e-15 0)
(1 4.50396e-15 0)
(1 6.75256e-16 0)
(1 -1.57671e-15 0)
(1 -3.95938e-15 0)
(1 -1.12821e-16 0)
(1 -2.0976e-16 0)
(1 2.69563e-15 0)
(1 5.63442e-15 0)
(1 1.24072e-15 0)
(1 -1.13878e-15 0)
(1 -1.07417e-15 0)
(1 -3.23013e-15 0)
(1 -2.75866e-15 0)
(1 -1.46449e-15 0)
(1 2.31838e-15 0)
(1 1.00008e-15 0)
(1 4.21679e-15 0)
(1 -2.00425e-15 0)
(1 3.22645e-15 0)
(1 -2.32482e-15 0)
(1 7.2147e-15 0)
(1 2.13001e-15 0)
(1 5.85066e-15 0)
(1 4.24469e-15 0)
(1 2.67548e-15 0)
(1 1.54242e-16 0)
(1 -1.42485e-15 0)
(1 5.21819e-15 0)
(1 1.78313e-16 0)
(1 3.34072e-15 0)
(1 1.34934e-15 0)
(1 -1.03222e-15 0)
(1 -7.34327e-16 0)
(1 -5.18446e-15 0)
(1 -2.43839e-15 0)
(1 -3.49698e-15 0)
(1 -7.35584e-16 0)
(1 -2.61064e-16 0)
(1 -2.67499e-15 0)
(1 -3.71045e-15 0)
(1 -3.58482e-15 0)
(1 -3.53484e-17 0)
(1 -4.79345e-15 0)
(1 -1.3164e-15 0)
(1 -2.08783e-15 0)
(1 -1.03673e-15 0)
(1 -6.06661e-15 0)
(1 4.44155e-15 0)
(1 -4.86261e-15 0)
(1 6.61391e-15 0)
(1 -4.90686e-15 0)
(1 -6.28319e-15 0)
(1 1.01965e-15 0)
(1 -1.05234e-15 0)
(1 1.02741e-14 0)
(1 1.34846e-15 0)
(1 -1.44868e-16 0)
(1 4.04949e-16 0)
(1 4.23181e-15 0)
(1 4.13442e-15 0)
(1 3.95205e-15 0)
(1 3.26871e-16 0)
(1 3.83225e-15 0)
(1 -4.22443e-15 0)
(1 6.36309e-15 0)
(1 -8.84521e-16 0)
(1 2.82281e-18 0)
(1 2.16674e-15 0)
(1 2.29439e-15 0)
(1 -1.33321e-16 0)
(1 3.41695e-15 0)
(1 1.36201e-14 0)
(1 1.13074e-14 0)
(1 1.60361e-14 0)
(1 5.39423e-15 0)
(1 6.04836e-15 0)
(1 -5.13246e-15 0)
(1 -7.4003e-15 0)
(1 -5.14925e-15 0)
(1 7.86867e-16 0)
(1 1.08942e-15 0)
(1 2.04789e-15 0)
(1 -5.27535e-15 0)
(1 -6.40358e-15 0)
(1 -4.41091e-15 0)
(1 -2.16162e-15 0)
(1 3.92403e-15 0)
(1 5.9634e-15 0)
(1 6.18658e-16 0)
(1 -3.94783e-15 0)
(1 -4.51387e-15 0)
(1 -4.54858e-15 0)
(1 1.85117e-15 0)
(1 8.16801e-15 0)
(1 2.57601e-15 0)
(1 -8.83585e-16 0)
(1 -2.85603e-15 0)
(1 -8.48766e-16 0)
(1 3.99947e-15 0)
(1 4.72751e-15 0)
(1 2.20833e-15 0)
(1 3.22545e-17 0)
(1 9.16146e-15 0)
(1 3.08755e-15 0)
(1 6.24834e-15 0)
(1 -1.78652e-15 0)
(1 3.65732e-17 0)
(1 -3.4182e-15 0)
(1 2.27693e-15 0)
(1 3.21848e-15 0)
(1 7.52418e-15 0)
(1 7.72371e-15 0)
(1 1.20681e-14 0)
(1 1.28741e-14 0)
(1 4.33764e-15 0)
(1 -5.11808e-15 0)
(1 -8.95135e-16 0)
(1 -2.38145e-15 0)
(1 -5.84411e-15 0)
(1 -5.19677e-15 0)
(1 -6.70259e-15 0)
(1 1.66709e-15 0)
(1 3.18814e-15 0)
(1 1.15879e-14 0)
(1 6.28852e-15 0)
(1 3.60146e-15 0)
(1 3.49106e-15 0)
(1 1.87922e-15 0)
(1 -4.97424e-16 0)
(1 -1.33888e-15 0)
(1 -1.60377e-15 0)
(1 -1.43529e-15 0)
(1 -5.99831e-15 0)
(1 -3.65609e-15 0)
(1 -3.34566e-15 0)
(1 6.12169e-17 0)
(1 -2.4862e-15 0)
(1 -2.58079e-15 0)
(1 -1.14504e-15 0)
(1 -1.05326e-15 0)
(1 5.12132e-15 0)
(1 1.86836e-15 0)
(1 4.38722e-15 0)
(1 5.9358e-15 0)
(1 -4.69315e-15 0)
(1 -1.38102e-15 0)
(1 -2.75319e-15 0)
(1 8.26156e-15 0)
(1 -5.01105e-17 0)
(1 -1.80185e-15 0)
(1 -1.26015e-14 0)
(1 -1.17698e-14 0)
(1 6.53333e-16 0)
(1 4.38537e-16 0)
(1 1.38381e-14 0)
(1 1.37618e-15 0)
(1 1.8139e-15 0)
(1 1.06246e-15 0)
(1 1.03704e-15 0)
(1 2.27149e-15 0)
(1 1.00949e-14 0)
(1 4.77306e-15 0)
(1 5.02117e-15 0)
(1 1.03067e-14 0)
(1 7.71104e-15 0)
(1 4.9533e-16 0)
(1 6.60093e-16 0)
(1 -2.22077e-15 0)
(1 -1.0476e-14 0)
(1 -3.97339e-15 0)
(1 -4.44475e-15 0)
(1 1.03892e-14 0)
(1 9.86532e-15 0)
(1 1.32146e-14 0)
(1 1.21142e-14 0)
(1 4.10544e-15 0)
(1 -6.07582e-15 0)
(1 -9.28523e-15 0)
(1 -7.88394e-16 0)
(1 6.22631e-15 0)
(1 3.84965e-15 0)
(1 1.00965e-15 0)
(1 -7.56005e-16 0)
(1 -5.70093e-15 0)
(1 -2.42688e-15 0)
(1 -4.31337e-15 0)
(1 9.14771e-15 0)
(1 6.46139e-15 0)
(1 -1.07766e-15 0)
(1 -2.89736e-15 0)
(1 -6.90968e-15 0)
(1 -9.01688e-15 0)
(1 8.04704e-15 0)
(1 9.67318e-15 0)
(1 5.33349e-15 0)
(1 -6.89943e-16 0)
(1 1.25885e-15 0)
(1 -1.10258e-15 0)
(1 -3.12784e-15 0)
(1 2.64931e-15 0)
(1 1.64327e-15 0)
(1 -3.87147e-16 0)
(1 -1.76552e-15 0)
(1 5.05105e-15 0)
(1 4.39898e-15 0)
(1 6.07655e-15 0)
(1 3.64683e-15 0)
(1 1.34248e-15 0)
(1 -2.00372e-15 0)
(1 -3.02756e-16 0)
(1 -1.39915e-15 0)
(1 3.68252e-15 0)
(1 4.67192e-15 0)
(1 1.36538e-15 0)
(1 1.65309e-15 0)
(1 -1.93606e-15 0)
(1 -2.31242e-15 0)
(1 1.37273e-15 0)
(1 4.54633e-15 0)
(1 4.7074e-15 0)
(1 1.18445e-17 0)
(1 1.75024e-15 0)
(1 4.36928e-15 0)
(1 6.9313e-15 0)
(1 7.55775e-15 0)
(1 4.9292e-15 0)
(1 4.51207e-15 0)
(1 3.42862e-15 0)
(1 1.86231e-15 0)
(1 1.07923e-15 0)
(1 3.7428e-15 0)
(1 1.16149e-15 0)
(1 7.49259e-16 0)
(1 4.98814e-15 0)
(1 8.35434e-17 0)
(1 3.81927e-15 0)
(1 2.70479e-15 0)
(1 -9.31283e-16 0)
(1 1.80152e-15 0)
(1 4.59412e-15 0)
(1 3.50978e-15 0)
(1 3.83136e-15 0)
(1 6.05114e-15 0)
(1 6.5608e-15 0)
(1 -7.42418e-15 0)
(1 4.30862e-15 0)
(1 -1.87649e-15 0)
(1 4.85663e-15 0)
(1 2.32766e-15 0)
(1 -3.41685e-15 0)
(1 -3.3261e-15 0)
(1 -7.36359e-15 0)
(1 -1.91535e-15 0)
(1 -2.2339e-15 0)
(1 -1.17459e-15 0)
(1 -8.9114e-15 0)
(1 4.11129e-15 0)
(1 4.45444e-15 0)
(1 7.64519e-15 0)
(1 7.58349e-15 0)
(1 4.51611e-15 0)
(1 6.50941e-15 0)
(1 8.68466e-15 0)
(1 8.34281e-15 0)
(1 -5.28045e-15 0)
(1 -9.00073e-15 0)
(1 -8.5628e-15 0)
(1 -6.29134e-16 0)
(1 -2.92326e-15 0)
(1 1.04643e-14 0)
(1 4.84091e-15 0)
(1 1.14068e-14 0)
(1 2.26397e-15 0)
(1 -5.34205e-15 0)
(1 3.91474e-15 0)
(1 1.78288e-15 0)
(1 1.04077e-15 0)
(1 2.11365e-15 0)
(1 1.77625e-15 0)
(1 -1.51093e-15 0)
(1 8.72461e-16 0)
(1 -7.29637e-16 0)
(1 3.43935e-15 0)
(1 -5.86188e-15 0)
(1 -6.07029e-15 0)
(1 -5.21177e-15 0)
(1 5.57289e-15 0)
(1 5.41826e-15 0)
(1 6.36864e-15 0)
(1 5.54037e-15 0)
(1 -2.88246e-15 0)
(1 3.40563e-15 0)
(1 -1.05276e-15 0)
(1 2.09466e-15 0)
(1 -1.15203e-15 0)
(1 2.00203e-15 0)
(1 6.08807e-15 0)
(1 4.08614e-15 0)
(1 1.39538e-15 0)
(1 1.19933e-15 0)
(1 6.37187e-15 0)
(1 -4.83449e-16 0)
(1 7.51284e-16 0)
(1 -3.0687e-15 0)
(1 2.61673e-15 0)
(1 6.3282e-15 0)
(1 9.36779e-15 0)
(1 1.61636e-15 0)
(1 2.06778e-15 0)
(1 5.85765e-15 0)
(1 6.10587e-15 0)
(1 2.14825e-15 0)
(1 1.61087e-15 0)
(1 -1.58922e-15 0)
(1 2.4363e-15 0)
(1 7.80386e-15 0)
(1 3.89645e-15 0)
(1 1.97403e-15 0)
(1 5.17719e-15 0)
(1 1.10938e-14 0)
(1 5.89161e-15 0)
(1 4.72568e-15 0)
(1 2.49419e-15 0)
(1 2.59732e-15 0)
(1 1.74888e-15 0)
(1 -2.70542e-15 0)
(1 3.14916e-17 0)
(1 1.66053e-15 0)
(1 2.75065e-15 0)
(1 5.72305e-15 0)
(1 -1.37131e-15 0)
(1 -1.55538e-15 0)
(1 4.18053e-15 0)
(1 7.27352e-16 0)
(1 2.85439e-15 0)
(1 -6.50937e-16 0)
(1 3.247e-16 0)
(1 3.62624e-17 0)
(1 1.47334e-15 0)
(1 3.01098e-15 0)
(1 1.05891e-15 0)
(1 3.87551e-15 0)
(1 5.1866e-15 0)
(1 1.15831e-14 0)
(1 -1.37447e-16 0)
(1 -1.27703e-15 0)
(1 5.08232e-15 0)
(1 -9.72403e-15 0)
(1 -4.46925e-15 0)
(1 -7.73404e-15 0)
(1 1.87003e-15 0)
(1 -4.99209e-16 0)
(1 -7.97997e-15 0)
(1 4.18043e-15 0)
(1 -4.01693e-15 0)
(1 6.0214e-15 0)
(1 3.57831e-15 0)
(1 8.16784e-15 0)
(1 1.15142e-15 0)
(1 9.21331e-15 0)
(1 8.94734e-16 0)
(1 1.54531e-14 0)
(1 9.97024e-15 0)
(1 -2.82569e-15 0)
(1 -4.40695e-15 0)
(1 5.23999e-15 0)
(1 -7.71977e-15 0)
(1 -4.30291e-16 0)
(1 -2.12431e-15 0)
(1 -1.59953e-15 0)
(1 5.44981e-15 0)
(1 2.65115e-15 0)
(1 -9.88382e-15 0)
(1 -6.44698e-16 0)
(1 -1.48482e-14 0)
(1 -4.96476e-15 0)
(1 2.12235e-15 0)
(1 1.18297e-14 0)
(1 5.2083e-15 0)
(1 4.3047e-15 0)
(1 3.10131e-15 0)
(1 -1.00577e-16 0)
(1 4.02666e-15 0)
(1 -7.94959e-17 0)
(1 -4.00064e-15 0)
(1 8.38195e-15 0)
(1 7.85414e-15 0)
(1 1.28007e-14 0)
(1 1.67401e-14 0)
(1 1.10735e-14 0)
(1 1.37957e-15 0)
(1 1.23237e-15 0)
(1 -7.1339e-15 0)
(1 -1.21091e-14 0)
(1 -5.93296e-15 0)
(1 2.37638e-15 0)
(1 2.37335e-15 0)
(1 4.19727e-15 0)
(1 8.99412e-16 0)
(1 -3.00754e-15 0)
(1 4.60742e-15 0)
(1 8.98015e-15 0)
(1 5.5563e-15 0)
(1 2.33701e-15 0)
(1 3.52451e-15 0)
(1 6.37167e-15 0)
(1 -7.29925e-15 0)
(1 2.87943e-16 0)
(1 -1.1397e-15 0)
(1 1.43187e-14 0)
(1 1.60903e-14 0)
(1 1.50819e-14 0)
(1 1.38473e-14 0)
(1 1.57063e-14 0)
(1 5.25819e-15 0)
(1 4.15187e-15 0)
(1 3.64593e-15 0)
(1 9.61046e-16 0)
(1 -7.05323e-15 0)
(1 -1.78221e-15 0)
(1 -1.06838e-16 0)
(1 2.29655e-15 0)
(1 -1.37602e-15 0)
(1 9.89868e-15 0)
(1 6.398e-15 0)
(1 1.26276e-14 0)
(1 5.60209e-15 0)
(1 -2.30959e-15 0)
(1 -2.53988e-15 0)
(1 -6.36357e-15 0)
(1 -2.41074e-15 0)
(1 1.74544e-15 0)
(1 3.98647e-15 0)
(1 2.57723e-15 0)
(1 4.59782e-15 0)
(1 -1.89224e-15 0)
(1 2.77277e-15 0)
(1 4.38903e-15 0)
(1 1.02143e-14 0)
(1 7.62527e-15 0)
(1 1.10916e-14 0)
(1 1.2224e-14 0)
(1 1.73121e-14 0)
(1 1.82484e-14 0)
(1 3.24947e-15 0)
(1 7.05061e-16 0)
(1 4.56558e-15 0)
(1 -3.70845e-15 0)
(1 -5.55968e-15 0)
(1 -4.83346e-16 0)
(1 -1.37484e-15 0)
(1 4.41399e-15 0)
(1 3.38281e-16 0)
(1 4.637e-15 0)
(1 -8.54905e-16 0)
(1 6.57104e-15 0)
(1 6.99575e-15 0)
(1 -1.86761e-15 0)
(1 -1.29812e-15 0)
(1 -3.63496e-15 0)
(1 3.3426e-15 0)
(1 5.41163e-15 0)
(1 -3.1718e-15 0)
(1 -1.00041e-14 0)
(1 -3.60577e-15 0)
(1 3.99435e-15 0)
(1 3.89697e-15 0)
(1 -3.00379e-15 0)
(1 3.7212e-15 0)
(1 5.37798e-15 0)
(1 1.26386e-14 0)
(1 -4.22764e-15 0)
(1 1.16151e-15 0)
(1 -1.83659e-15 0)
(1 -8.39659e-15 0)
(1 -5.88743e-15 0)
(1 2.00524e-16 0)
(1 3.48323e-16 0)
(1 -2.42786e-15 0)
(1 2.15446e-15 0)
(1 -3.20546e-15 0)
(1 -5.83658e-16 0)
(1 -5.48148e-15 0)
(1 3.6072e-15 0)
(1 3.65222e-16 0)
(1 9.27078e-15 0)
(1 4.59898e-15 0)
(1 9.32999e-15 0)
(1 5.90081e-15 0)
(1 2.92074e-15 0)
(1 -1.01167e-15 0)
(1 -5.58811e-15 0)
(1 5.26748e-15 0)
(1 1.3365e-15 0)
(1 6.41927e-15 0)
(1 4.93826e-15 0)
(1 1.02788e-15 0)
(1 2.57804e-15 0)
(1 3.86527e-15 0)
(1 -4.70865e-16 0)
(1 5.2761e-15 0)
(1 7.95166e-15 0)
(1 1.57569e-15 0)
(1 6.053e-15 0)
(1 4.72537e-15 0)
(1 8.75055e-15 0)
(1 7.39917e-15 0)
(1 1.0023e-14 0)
(1 7.161e-15 0)
(1 1.26341e-15 0)
(1 6.69621e-15 0)
(1 9.91764e-15 0)
(1 1.37041e-14 0)
(1 7.16661e-15 0)
(1 2.04702e-15 0)
(1 7.09566e-15 0)
(1 -5.31677e-16 0)
(1 4.31077e-15 0)
(1 -8.15913e-16 0)
(1 3.31462e-16 0)
(1 5.23142e-15 0)
(1 7.22403e-15 0)
(1 6.81042e-15 0)
(1 7.39661e-15 0)
(1 6.28478e-15 0)
(1 7.3139e-15 0)
(1 -1.19633e-15 0)
(1 -2.54162e-15 0)
(1 -9.33592e-17 0)
(1 -3.92508e-15 0)
(1 3.71554e-15 0)
(1 1.47903e-15 0)
(1 1.53478e-15 0)
(1 2.33003e-15 0)
(1 7.19916e-15 0)
(1 2.19842e-16 0)
(1 6.2552e-15 0)
(1 2.93926e-15 0)
(1 8.27035e-15 0)
(1 5.72821e-15 0)
(1 1.17356e-14 0)
(1 1.36357e-14 0)
(1 2.56003e-14 0)
(1 1.99234e-14 0)
(1 2.05669e-16 0)
(1 8.56157e-16 0)
(1 -2.58036e-15 0)
(1 1.62232e-15 0)
(1 -3.49722e-15 0)
(1 2.72269e-16 0)
(1 1.06253e-15 0)
(1 -1.38207e-15 0)
(1 5.62088e-15 0)
(1 -9.46865e-15 0)
(1 -1.27345e-14 0)
(1 7.75088e-17 0)
(1 2.06955e-16 0)
(1 -1.80034e-15 0)
(1 6.01285e-15 0)
(1 1.30667e-15 0)
(1 1.11561e-14 0)
(1 -4.73489e-15 0)
(1 2.35418e-15 0)
(1 -5.11882e-16 0)
(1 -9.62677e-16 0)
(1 -1.60127e-15 0)
(1 -1.71773e-15 0)
(1 -7.57537e-15 0)
(1 -4.91119e-15 0)
(1 4.8543e-15 0)
(1 1.57702e-14 0)
(1 8.6812e-15 0)
(1 1.03461e-14 0)
(1 -7.28153e-15 0)
(1 -7.45516e-15 0)
(1 -8.01745e-15 0)
(1 -4.42475e-15 0)
(1 -2.49248e-17 0)
(1 7.42866e-15 0)
(1 4.66143e-15 0)
(1 -6.50176e-16 0)
(1 1.9817e-15 0)
(1 -7.00778e-16 0)
(1 5.40001e-15 0)
(1 1.34653e-14 0)
(1 -2.61246e-15 0)
(1 2.38641e-15 0)
(1 -8.43759e-16 0)
(1 -1.37935e-16 0)
(1 -2.71376e-15 0)
(1 2.29688e-15 0)
(1 -1.59795e-16 0)
(1 8.64765e-15 0)
(1 5.96944e-15 0)
(1 1.79616e-15 0)
(1 1.29601e-15 0)
(1 3.64602e-15 0)
(1 3.10635e-15 0)
(1 1.06677e-14 0)
(1 3.72011e-15 0)
(1 9.36865e-15 0)
(1 6.10023e-16 0)
(1 5.81938e-15 0)
(1 3.2093e-16 0)
(1 9.61498e-15 0)
(1 -9.61692e-16 0)
(1 1.11849e-14 0)
(1 1.48919e-15 0)
(1 7.06989e-15 0)
(1 1.96308e-15 0)
(1 1.05991e-14 0)
(1 6.47014e-15 0)
(1 1.00381e-14 0)
(1 3.89797e-15 0)
(1 1.22038e-14 0)
(1 4.33101e-15 0)
(1 -5.30481e-16 0)
(1 -2.64958e-15 0)
(1 -4.48629e-16 0)
(1 4.64273e-15 0)
(1 1.13653e-14 0)
(1 5.65289e-15 0)
(1 7.97739e-15 0)
(1 5.52398e-16 0)
(1 7.84212e-15 0)
(1 1.1538e-15 0)
(1 5.72654e-15 0)
(1 1.90617e-15 0)
(1 -7.84929e-16 0)
(1 7.4448e-15 0)
(1 1.96379e-15 0)
(1 1.45253e-15 0)
(1 2.74962e-15 0)
(1 9.54679e-17 0)
(1 5.96655e-15 0)
(1 1.95479e-15 0)
(1 1.34558e-15 0)
(1 -1.62883e-16 0)
(1 1.48794e-15 0)
(1 6.00217e-15 0)
(1 1.32243e-14 0)
(1 1.27133e-14 0)
(1 1.14329e-14 0)
(1 1.20695e-14 0)
(1 4.49622e-15 0)
(1 -5.55082e-15 0)
(1 1.54359e-15 0)
(1 -1.38259e-15 0)
(1 -1.04916e-15 0)
(1 -5.99679e-15 0)
(1 -4.01904e-15 0)
(1 -3.27945e-15 0)
(1 5.43764e-15 0)
(1 1.25199e-14 0)
(1 4.24526e-15 0)
(1 2.60144e-15 0)
(1 -3.29283e-15 0)
(1 -2.0063e-15 0)
(1 -5.73363e-15 0)
(1 2.06117e-15 0)
(1 4.90748e-15 0)
(1 -5.77196e-15 0)
(1 -9.11292e-16 0)
(1 -2.25351e-15 0)
(1 -5.28724e-15 0)
(1 -3.38415e-15 0)
(1 -1.47996e-15 0)
(1 9.43865e-15 0)
(1 4.359e-15 0)
(1 2.23309e-16 0)
(1 5.53163e-16 0)
(1 3.87421e-15 0)
(1 9.33789e-15 0)
(1 5.34926e-15 0)
(1 1.49859e-16 0)
(1 -2.21523e-15 0)
(1 -7.34551e-15 0)
(1 -5.27485e-15 0)
(1 1.78736e-15 0)
(1 -6.44741e-15 0)
(1 -4.05005e-15 0)
(1 -5.15109e-15 0)
(1 1.94181e-15 0)
(1 -1.37235e-16 0)
(1 8.8377e-15 0)
(1 -3.72297e-15 0)
(1 -4.00423e-15 0)
(1 -9.1468e-15 0)
(1 6.61746e-15 0)
(1 7.99781e-15 0)
(1 1.44777e-14 0)
(1 9.15568e-15 0)
(1 3.69929e-15 0)
(1 -1.22699e-15 0)
(1 -1.86192e-15 0)
(1 2.60286e-15 0)
(1 3.68633e-15 0)
(1 1.17431e-14 0)
(1 1.25817e-14 0)
(1 8.49353e-15 0)
(1 2.61436e-15 0)
(1 2.92371e-15 0)
(1 -6.91303e-16 0)
(1 -1.2623e-15 0)
(1 5.30324e-15 0)
(1 1.11391e-14 0)
(1 7.7788e-15 0)
(1 1.26077e-15 0)
(1 -3.68726e-15 0)
(1 2.93012e-15 0)
(1 6.7541e-15 0)
(1 6.92436e-15 0)
(1 3.39245e-15 0)
(1 5.79607e-15 0)
(1 1.04931e-14 0)
(1 4.48777e-15 0)
(1 4.72311e-15 0)
(1 2.92853e-15 0)
(1 3.53482e-15 0)
(1 3.2425e-15 0)
(1 5.45944e-15 0)
(1 5.35338e-15 0)
(1 8.40036e-15 0)
(1 3.06921e-15 0)
(1 1.35071e-14 0)
(1 8.91317e-15 0)
(1 5.24392e-15 0)
(1 8.80949e-16 0)
(1 -4.35274e-15 0)
(1 2.72999e-15 0)
(1 -2.03548e-15 0)
(1 9.09243e-16 0)
(1 3.57108e-15 0)
(1 3.71851e-16 0)
(1 5.04253e-15 0)
(1 5.03641e-15 0)
(1 3.23611e-15 0)
(1 4.57426e-15 0)
(1 3.6993e-15 0)
(1 1.50204e-14 0)
(1 1.33549e-14 0)
(1 1.09669e-14 0)
(1 2.79664e-16 0)
(1 6.24293e-15 0)
(1 5.78045e-15 0)
(1 6.5554e-16 0)
(1 -2.80572e-15 0)
(1 -3.29831e-15 0)
(1 1.058e-15 0)
(1 5.24324e-15 0)
(1 2.74402e-15 0)
(1 -1.49092e-15 0)
(1 -2.83148e-15 0)
(1 7.81391e-15 0)
(1 1.10403e-14 0)
(1 -2.32835e-15 0)
(1 6.37397e-16 0)
(1 7.04063e-15 0)
(1 1.48682e-15 0)
(1 -4.68143e-15 0)
(1 -1.02741e-14 0)
(1 -8.16087e-15 0)
(1 -9.54388e-16 0)
(1 -9.31437e-16 0)
(1 -2.71736e-15 0)
(1 -7.51312e-15 0)
(1 9.66455e-16 0)
(1 -3.52751e-15 0)
(1 1.27629e-14 0)
(1 5.1778e-15 0)
(1 -3.67062e-15 0)
(1 -2.93735e-15 0)
(1 -2.11519e-16 0)
(1 -2.77067e-15 0)
(1 -3.42398e-15 0)
(1 -1.04046e-15 0)
(1 -5.8822e-15 0)
(1 -5.15192e-16 0)
(1 2.14503e-15 0)
(1 3.09908e-15 0)
(1 5.60216e-15 0)
(1 8.6875e-16 0)
(1 2.79093e-15 0)
(1 -1.83087e-15 0)
(1 -1.11649e-14 0)
(1 -1.1154e-15 0)
(1 -3.26647e-15 0)
(1 -1.62365e-15 0)
(1 -1.12496e-15 0)
(1 6.26386e-15 0)
(1 6.99881e-15 0)
(1 1.38532e-14 0)
(1 4.30907e-15 0)
(1 4.16536e-15 0)
(1 1.53423e-15 0)
(1 -1.3411e-15 0)
(1 2.53311e-15 0)
(1 6.70839e-15 0)
(1 8.38439e-15 0)
(1 2.61585e-15 0)
(1 4.60789e-15 0)
(1 3.57071e-15 0)
(1 -6.11663e-15 0)
(1 -2.85242e-15 0)
(1 1.08567e-15 0)
(1 1.30837e-14 0)
(1 1.38058e-14 0)
(1 1.5932e-14 0)
(1 1.01523e-14 0)
(1 1.41734e-15 0)
(1 -5.85993e-15 0)
(1 -8.05161e-16 0)
(1 -1.41035e-15 0)
(1 2.77193e-15 0)
(1 8.97125e-16 0)
(1 6.65959e-15 0)
(1 7.25194e-15 0)
(1 1.07455e-14 0)
(1 9.45667e-15 0)
(1 3.50415e-15 0)
(1 -4.26563e-15 0)
(1 5.14947e-15 0)
(1 6.9838e-15 0)
(1 8.51553e-15 0)
(1 4.15059e-15 0)
(1 5.37831e-15 0)
(1 -3.97406e-16 0)
(1 2.04722e-15 0)
(1 4.14382e-15 0)
(1 3.5493e-15 0)
(1 -6.01058e-16 0)
(1 1.05056e-15 0)
(1 -2.33194e-15 0)
(1 3.13482e-15 0)
(1 2.40259e-15 0)
(1 2.52185e-15 0)
(1 3.16012e-15 0)
(1 1.68325e-15 0)
(1 3.03353e-15 0)
(1 1.05545e-14 0)
(1 6.01635e-15 0)
(1 7.19138e-15 0)
(1 3.17315e-15 0)
(1 6.79758e-15 0)
(1 -2.92947e-15 0)
(1 9.64619e-15 0)
(1 -6.35979e-15 0)
(1 -2.56924e-15 0)
(1 5.25594e-15 0)
(1 5.37561e-15 0)
(1 2.13628e-15 0)
(1 5.02514e-15 0)
(1 -1.22399e-15 0)
(1 -6.97522e-15 0)
(1 1.98682e-16 0)
(1 8.22284e-15 0)
(1 3.57005e-15 0)
(1 9.41597e-15 0)
(1 -1.52245e-15 0)
(1 -1.50888e-14 0)
(1 -1.2985e-14 0)
(1 2.11132e-15 0)
(1 5.8613e-15 0)
(1 -2.57302e-15 0)
(1 1.54203e-15 0)
(1 -1.08635e-14 0)
(1 -3.45674e-15 0)
(1 -8.00768e-15 0)
(1 6.61448e-15 0)
(1 -1.54578e-15 0)
(1 1.05854e-15 0)
(1 -6.40061e-16 0)
(1 1.04683e-15 0)
(1 -3.10118e-15 0)
(1 -5.72956e-15 0)
(1 1.75097e-15 0)
(1 2.46399e-15 0)
(1 4.40102e-15 0)
(1 1.08492e-14 0)
(1 5.24655e-15 0)
(1 4.54189e-15 0)
(1 -9.79508e-16 0)
(1 -1.23153e-15 0)
(1 -3.57384e-15 0)
(1 -1.22774e-14 0)
(1 -5.52424e-15 0)
(1 -1.38113e-15 0)
(1 1.56434e-14 0)
(1 4.54436e-15 0)
(1 3.73591e-15 0)
(1 -3.1815e-15 0)
(1 4.56728e-15 0)
(1 3.51173e-15 0)
(1 1.80793e-15 0)
(1 2.37059e-17 0)
(1 -5.441e-15 0)
(1 7.71427e-15 0)
(1 -1.04017e-15 0)
(1 3.96557e-15 0)
(1 8.67749e-15 0)
(1 1.13611e-14 0)
(1 1.02585e-14 0)
(1 1.0219e-14 0)
(1 2.66762e-15 0)
(1 2.83349e-16 0)
(1 1.48349e-16 0)
(1 4.0013e-16 0)
(1 8.92392e-15 0)
(1 8.12116e-15 0)
(1 1.02805e-14 0)
(1 3.82814e-15 0)
(1 4.58488e-15 0)
(1 6.94339e-16 0)
(1 1.68678e-15 0)
(1 3.14056e-15 0)
(1 4.17023e-15 0)
(1 1.16799e-14 0)
(1 1.26571e-14 0)
(1 8.61862e-15 0)
(1 1.32547e-14 0)
(1 4.06402e-15 0)
(1 7.01022e-15 0)
(1 8.94716e-15 0)
(1 8.8679e-15 0)
(1 1.66453e-15 0)
(1 4.33215e-15 0)
(1 3.77404e-15 0)
(1 4.27555e-15 0)
(1 3.85468e-15 0)
(1 1.96791e-15 0)
(1 -4.05756e-15 0)
(1 4.48592e-15 0)
(1 4.85651e-15 0)
(1 5.28825e-15 0)
(1 -5.24027e-16 0)
(1 3.30361e-15 0)
(1 4.7777e-15 0)
(1 5.09001e-15 0)
(1 3.33652e-16 0)
(1 2.43535e-15 0)
(1 7.89862e-15 0)
(1 9.09086e-15 0)
(1 9.39932e-15 0)
(1 8.57852e-15 0)
(1 1.50044e-15 0)
(1 3.72821e-15 0)
(1 6.02014e-15 0)
(1 5.38026e-15 0)
(1 6.16335e-15 0)
(1 -1.8696e-15 0)
(1 -9.95087e-15 0)
(1 -8.17684e-15 0)
(1 1.54559e-15 0)
(1 7.14339e-15 0)
(1 2.41731e-17 0)
(1 8.91259e-15 0)
(1 -1.33856e-15 0)
(1 -7.68495e-15 0)
(1 -1.18445e-14 0)
(1 -1.05366e-14 0)
(1 -1.9363e-14 0)
(1 6.38642e-15 0)
(1 -7.10151e-15 0)
(1 -5.46273e-15 0)
(1 -1.49186e-15 0)
(1 5.00959e-16 0)
(1 7.15441e-15 0)
(1 1.15812e-14 0)
(1 5.23724e-15 0)
(1 6.19255e-15 0)
(1 -3.6109e-16 0)
(1 -1.0918e-15 0)
(1 -2.39665e-15 0)
(1 -2.01304e-16 0)
(1 -2.30901e-15 0)
(1 2.74855e-15 0)
(1 2.66127e-15 0)
(1 -6.84184e-15 0)
(1 -3.43864e-15 0)
(1 -4.38789e-15 0)
(1 -9.85019e-16 0)
(1 2.60627e-15 0)
(1 2.30795e-15 0)
(1 1.44425e-15 0)
(1 4.0855e-15 0)
(1 1.5137e-15 0)
(1 -1.65072e-15 0)
(1 7.46924e-15 0)
(1 6.41146e-15 0)
(1 9.36302e-15 0)
(1 -3.79392e-15 0)
(1 -2.54508e-15 0)
(1 3.9277e-15 0)
(1 -3.21974e-15 0)
(1 6.34148e-15 0)
(1 6.35616e-15 0)
(1 1.06727e-15 0)
(1 -1.38989e-15 0)
(1 -6.58631e-16 0)
(1 7.47577e-15 0)
(1 4.44054e-15 0)
(1 4.99017e-15 0)
(1 6.4806e-15 0)
(1 8.42649e-15 0)
(1 1.13423e-14 0)
(1 5.06848e-15 0)
(1 4.68768e-15 0)
(1 3.85949e-15 0)
(1 5.21867e-15 0)
(1 5.74535e-15 0)
(1 1.06732e-14 0)
(1 1.12382e-14 0)
(1 6.40887e-15 0)
(1 5.13931e-15 0)
(1 -3.6526e-16 0)
(1 1.0578e-14 0)
(1 1.20969e-14 0)
(1 1.18894e-14 0)
(1 1.22176e-14 0)
(1 1.05081e-14 0)
(1 8.52777e-15 0)
(1 7.02364e-15 0)
(1 8.30916e-15 0)
(1 5.74641e-15 0)
(1 5.62794e-15 0)
(1 2.91941e-15 0)
(1 2.81049e-15 0)
(1 6.58993e-15 0)
(1 2.48091e-15 0)
(1 -4.87946e-15 0)
(1 -5.91934e-15 0)
(1 -2.28835e-15 0)
(1 4.50137e-16 0)
(1 -3.53028e-16 0)
(1 7.63214e-16 0)
(1 3.20327e-15 0)
(1 7.44746e-15 0)
(1 5.98508e-15 0)
(1 9.99559e-15 0)
(1 3.04369e-15 0)
(1 6.60882e-15 0)
(1 8.41144e-15 0)
(1 1.12824e-14 0)
(1 1.09466e-14 0)
(1 -1.82791e-15 0)
(1 -4.98455e-16 0)
(1 -1.51227e-15 0)
(1 7.23332e-15 0)
(1 8.62697e-16 0)
(1 3.6211e-15 0)
(1 8.90285e-15 0)
(1 6.24492e-15 0)
(1 -3.37359e-16 0)
(1 9.93882e-16 0)
(1 -8.67545e-15 0)
(1 -6.61301e-15 0)
(1 -6.64298e-15 0)
(1 -6.50728e-15 0)
(1 4.27917e-15 0)
(1 2.29826e-15 0)
(1 -2.50036e-15 0)
(1 -1.4764e-14 0)
(1 -1.30213e-14 0)
(1 -5.0264e-15 0)
(1 2.47913e-16 0)
(1 1.13986e-14 0)
(1 1.4555e-15 0)
(1 -2.58434e-15 0)
(1 -1.47915e-14 0)
(1 -4.43899e-16 0)
(1 -3.02832e-15 0)
(1 5.52789e-15 0)
(1 -4.62152e-15 0)
(1 -4.45766e-16 0)
(1 3.62641e-15 0)
(1 2.67422e-15 0)
(1 8.41149e-15 0)
(1 4.58652e-15 0)
(1 -5.45899e-16 0)
(1 6.27623e-15 0)
(1 3.515e-15 0)
(1 3.4272e-15 0)
(1 1.87516e-15 0)
(1 1.3869e-16 0)
(1 8.74788e-15 0)
(1 8.4639e-15 0)
(1 4.39511e-15 0)
(1 -9.44203e-15 0)
(1 -1.13994e-14 0)
(1 -7.70804e-15 0)
(1 -4.16056e-15 0)
(1 -2.9057e-15 0)
(1 1.84223e-15 0)
(1 1.06175e-15 0)
(1 6.74086e-15 0)
(1 8.00621e-15 0)
(1 1.44787e-15 0)
(1 8.62667e-16 0)
(1 2.58704e-15 0)
(1 3.91787e-15 0)
(1 9.14924e-15 0)
(1 2.92117e-15 0)
(1 2.70213e-15 0)
(1 2.86706e-15 0)
(1 8.14538e-16 0)
(1 -4.5858e-15 0)
(1 8.30679e-15 0)
(1 -1.70268e-15 0)
(1 7.58052e-15 0)
(1 1.82722e-15 0)
(1 6.57642e-15 0)
(1 4.4282e-15 0)
(1 7.81854e-15 0)
(1 4.18319e-15 0)
(1 5.70344e-15 0)
(1 5.67774e-15 0)
(1 8.764e-15 0)
(1 8.5656e-15 0)
(1 1.24486e-14 0)
(1 1.38208e-15 0)
(1 7.20617e-15 0)
(1 6.49923e-15 0)
(1 6.35616e-15 0)
(1 5.42744e-15 0)
(1 -2.76579e-16 0)
(1 2.14764e-15 0)
(1 4.41904e-15 0)
(1 4.38936e-15 0)
(1 -7.03287e-16 0)
(1 -2.80744e-15 0)
(1 -2.31864e-15 0)
(1 -2.98434e-15 0)
(1 -9.2288e-16 0)
(1 1.6341e-15 0)
(1 8.59588e-15 0)
(1 9.14497e-15 0)
(1 8.14476e-15 0)