/*--------------------------------*- C++ -*----------------------------------*\
| =========                 |                                                 |
| \\      /  F ield         | OpenFOAM: The Open Source CFD Toolbox           |
|  \\    /   O peration     | Version:  v2012                                 |
|   \\  /    A nd           | Website:  www.openfoam.com                      |
|    \\/     M anipulation  |                                                 |
\*---------------------------------------------------------------------------*/
FoamFile
{
    version     2.0;
    format      ascii;
    class       volScalarField;
    location    "0";
    object      p;
}
// * * * * * * * * * * * * * * * * * * * * * * * * * * * * * * * * * * * * * //

dimensions      [0 2 -2 0 0 0 0];


internalField   nonuniform List<scalar> 
4000
(
0.0250259
0.0382686
0.0349747
0.03325
0.0533522
0.0205718
0.0441882
0.0672847
0.0912121
0.0946555
0.0990192
0.113561
0.109289
0.138019
0.180392
0.197628
0.19059
0.172787
0.175973
0.197105
0.211486
0.20754
0.195208
0.197009
0.208646
0.211526
0.173928
0.179279
0.169284
0.179991
0.209696
0.197919
0.169836
0.126165
0.0820663
0.0646454
0.0472611
0.0885145
0.102098
0.0815533
0.0273972
-0.015614
-0.055045
-0.0913416
-0.0859586
-0.0911976
-0.090409
-0.0971611
-0.113971
-0.134884
-0.175594
-0.180838
-0.192568
-0.197493
-0.199298
-0.189319
-0.185743
-0.180636
-0.19708
-0.203807
-0.217482
-0.222049
-0.196529
-0.167144
-0.144743
-0.144948
-0.147434
-0.123283
-0.0838745
-0.0643567
-0.0515443
-0.0390534
-0.0192837
-0.00187367
0.00533472
0.00781842
-0.00116576
0.0116505
0.0402308
0.0550994
0.0678575
0.0782528
0.0973017
0.100006
0.118764
0.106505
0.120058
0.125327
0.110468
0.102681
0.107922
0.109535
0.0990309
0.0593153
0.0773003
0.0668438
0.0470073
0.033581
0.022464
0.0087741
0.0389416
0.0431515
0.0271273
0.0331129
0.025733
0.0372664
0.0630219
0.0669867
0.0760864
0.0946087
0.107949
0.121764
0.113758
0.13635
0.165646
0.179569
0.182699
0.183879
0.18861
0.189981
0.196262
0.211987
0.207627
0.214528
0.218047
0.206271
0.182587
0.172278
0.174961
0.191844
0.183875
0.179132
0.169651
0.135205
0.0917621
0.0793156
0.0614223
0.0765081
0.087853
0.0569913
0.0256041
-0.0168296
-0.0412932
-0.077997
-0.0851826
-0.095991
-0.0895024
-0.108133
-0.115885
-0.125397
-0.165477
-0.176814
-0.195539
-0.203583
-0.211736
-0.198049
-0.172668
-0.174972
-0.187855
-0.210926
-0.226168
-0.224304
-0.202431
-0.17303
-0.151074
-0.144145
-0.138592
-0.11837
-0.095985
-0.0699627
-0.0472965
-0.0392816
-0.0292752
-0.0163011
-0.00128979
0.0180271
0.00853675
0.0170951
0.0453258
0.0643487
0.0720072
0.0718798
0.0855987
0.104142
0.109714
0.112393
0.126933
0.137321
0.120386
0.104716
0.106017
0.100148
0.086019
0.0722134
0.07429
0.0633845
0.0464173
0.0351117
0.0242854
0.00275759
0.0296359
0.0361487
0.032722
0.0249889
0.030632
0.0424735
0.0600733
0.0682747
0.0753011
0.0996376
0.101902
0.114399
0.122194
0.140688
0.161113
0.168466
0.177653
0.190251
0.200248
0.189733
0.194221
0.213564
0.205337
0.214477
0.2224
0.202299
0.181296
0.176383
0.179206
0.207279
0.188311
0.168111
0.155783
0.125335
0.0934372
0.0808724
0.0730742
0.0638356
0.0624836
0.0581413
0.0324887
-0.0138201
-0.043099
-0.0695886
-0.0878146
-0.106532
-0.0880614
-0.0927772
-0.126368
-0.144876
-0.161646
-0.176409
-0.189025
-0.193471
-0.204812
-0.191695
-0.176201
-0.188089
-0.206938
-0.224754
-0.227611
-0.204254
-0.191305
-0.174969
-0.162329
-0.163233
-0.151893
-0.116986
-0.0835706
-0.0539825
-0.0394482
-0.0394425
-0.0197478
-0.00445302
-0.00344361
-0.00303829
0.0101339
0.0221047
0.042488
0.0561891
0.0657181
0.0774037
0.0978196
0.112298
0.109762
0.105024
0.110837
0.119704
0.116793
0.118901
0.119872
0.0869373
0.0883567
0.0834341
0.0821678
0.0677124
0.0526438
0.0306937
0.000308501
0.00132761
0.0226266
0.0308331
0.0135577
0.0366609
0.0405404
0.0430648
0.0553967
0.0647951
0.0742624
0.0892454
0.11497
0.136069
0.14283
0.13099
0.128525
0.15988
0.189323
0.201306
0.197212
0.193215
0.196373
0.202242
0.204196
0.239928
0.230748
0.213919
0.193699
0.18293
0.17655
0.18703
0.167959
0.152342
0.150649
0.120842
0.0917728
0.0792272
0.0791179
0.079731
0.0566004
0.0397077
0.0226251
-0.0213549
-0.0440305
-0.0616294
-0.0732139
-0.0903658
-0.085445
-0.101517
-0.128525
-0.130798
-0.142916
-0.175652
-0.200988
-0.201265
-0.195536
-0.196263
-0.182076
-0.185436
-0.205543
-0.219287
-0.220277
-0.206069
-0.209985
-0.187282
-0.161599
-0.154974
-0.139858
-0.116018
-0.0807749
-0.0657414
-0.0528412
-0.0511374
-0.0319566
-0.0105593
0.000861043
0.00754184
0.00536687
0.0244593
0.0426662
0.0661303
0.072346
0.0867301
0.0947547
0.112444
0.120733
0.101401
0.114415
0.125321
0.123343
0.118611
0.10809
0.0909259
0.0795298
0.086734
0.0849458
0.0653561
0.0515607
0.0420716
0.0151184
-0.00100479
0.0132483
0.00443348
0.00896016
0.038892
0.0617514
0.0386769
0.0437032
0.060545
0.0775514
0.108745
0.123946
0.134154
0.155179
0.142483
0.128843
0.13342
0.156282
0.185069
0.207438
0.220249
0.208924
0.208886
0.223699
0.236086
0.231924
0.203402
0.185159
0.169288
0.172503
0.17712
0.163847
0.150937
0.148736
0.118061
0.0904037
0.0808186
0.0740315
0.0709905
0.0655083
0.0475036
0.0182696
-0.0253454
-0.0435283
-0.05819
-0.0682287
-0.0750434
-0.0889789
-0.103159
-0.121519
-0.131415
-0.156293
-0.176686
-0.194956
-0.194399
-0.188432
-0.187433
-0.180709
-0.192744
-0.215962
-0.219352
-0.211994
-0.211797
-0.197531
-0.183134
-0.170279
-0.170712
-0.150679
-0.121515
-0.0861344
-0.051302
-0.0395637
-0.0419183
-0.0332523
-0.00839098
0.012311
0.0134612
0.00393041
0.0239369
0.0354408
0.057751
0.0868159
0.086798
0.0978679
0.120989
0.131008
0.113482
0.118352
0.12061
0.116592
0.117182
0.107778
0.0916009
0.0905774
0.0796187
0.0743015
0.0608419
0.0502065
0.0381519
0.0155141
0.00948402
0.0211494
0.00163469
0.00793952
0.0368758
0.04017
0.0397349
0.0430174
0.0519315
0.0696779
0.114723
0.129
0.142232
0.138209
0.132857
0.14761
0.131434
0.149778
0.166873
0.184204
0.22083
0.22355
0.223953
0.241364
0.24866
0.218552
0.195386
0.187415
0.172222
0.17454
0.16826
0.163097
0.161945
0.136081
0.0961185
0.0648968
0.0779138
0.090101
0.0713982
0.0601473
0.0369748
0.00872837
-0.0234884
-0.0356931
-0.0588761
-0.0647396
-0.0699358
-0.0772392
-0.091936
-0.118806
-0.134262
-0.157722
-0.175402
-0.190334
-0.177286
-0.178448
-0.185211
-0.201528
-0.196484
-0.206684
-0.213742
-0.21476
-0.206306
-0.192387
-0.184438
-0.161058
-0.158563
-0.140941
-0.129327
-0.0843074
-0.0681883
-0.053714
-0.0368311
-0.0311901
-0.013816
0.0104601
0.00719146
0.0213655
0.0390129
0.0362234
0.050108
0.0698696
0.0945332
0.109015
0.131588
0.136707
0.115763
0.112392
0.121867
0.119477
0.117179
0.108424
0.0961983
0.0969051
0.077705
0.0713815
0.0670261
0.049879
0.0354586
0.0242956
0.0214961
-0.000641584
0.00535606
0.0183199
0.0170452
0.0470144
0.0366228
0.0261475
0.0573178
0.0795306
0.104862
0.126462
0.132518
0.128027
0.128692
0.138912
0.134754
0.141014
0.160938
0.197634
0.240789
0.249758
0.248779
0.22156
0.2164
0.19858
0.192333
0.191529
0.187532
0.170544
0.167913
0.148761
0.155372
0.125955
0.117572
0.0944387
0.0690904
0.0755351
0.0610112
0.0552809
0.0465073
0.0111558
0.000379613
-0.0360674
-0.0637269
-0.0847232
-0.0829963
-0.0825661
-0.0841325
-0.104648
-0.131175
-0.147695
-0.181789
-0.19499
-0.18836
-0.174838
-0.187762
-0.189738
-0.178605
-0.181555
-0.211353
-0.235278
-0.223839
-0.195105
-0.170682
-0.148245
-0.14804
-0.128548
-0.109273
-0.0757075
-0.0722673
-0.0841571
-0.0467048
-0.0266364
-0.0205304
-0.00682391
0.0133283
0.0365616
0.0507195
0.0542219
0.0604434
0.0856878
0.102758
0.0928503
0.11254
0.130323
0.132937
0.128279
0.120128
0.114919
0.113068
0.113945
0.103564
0.0899521
0.084702
0.0685147
0.0695382
0.0537685
0.0426531
0.0280768
0.00922068
-0.000921758
0.00508758
0.0203973
0.0246829
0.0148578
0.0182983
0.0225092
0.0629954
0.0797833
0.0980986
0.108104
0.1164
0.124653
0.13529
0.136756
0.130513
0.140001
0.154624
0.216691
0.227665
0.2174
0.220558
0.222758
0.221339
0.206013
0.211296
0.210877
0.194017
0.179582
0.172376
0.155336
0.122451
0.10187
0.0902402
0.0982984
0.0781761
0.0705471
0.0697539
0.0554344
0.0328646
0.00816305
0.000304429
-0.0255188
-0.0719464
-0.110923
-0.0781602
-0.0632481
-0.0701945
-0.109389
-0.135414
-0.153463
-0.179262
-0.188551
-0.180282
-0.159752
-0.16554
-0.196261
-0.198472
-0.191854
-0.200612
-0.211108
-0.20171
-0.195381
-0.190499
-0.170631
-0.148926
-0.130823
-0.117768
-0.093767
-0.0738949
-0.0603083
-0.0418858
-0.0201245
0.000643448
0.012203
0.0294319
0.0284971
0.0476131
0.0428569
0.0641351
0.0824654
0.103076
0.11638
0.130547
0.141268
0.137608
0.131067
0.117242
0.117665
0.121733
0.114489
0.102935
0.0904704
0.0804819
0.0735624
0.0725699
0.0588133
0.042265
0.0222552
0.0124281
-0.0119984
-0.0124537
0.00957445
0.0324657
0.0233027
0.0185739
0.00908872
0.045645
0.0711077
0.0828148
0.100756
0.120786
0.140132
0.139152
0.127886
0.118916
0.12883
0.155876
0.195038
0.213124
0.205837
0.212619
0.225866
0.218826
0.214029
0.221944
0.201145
0.189865
0.165958
0.170281
0.15715
0.125895
0.127421
0.12024
0.0866384
0.0744963
0.0608444
0.0487614
0.0380936
0.0346807
0.00607627
-0.0117934
-0.0236011
-0.0490741
-0.0783874
-0.0969701
-0.086121
-0.100647
-0.10896
-0.126406
-0.144889
-0.160001
-0.175141
-0.180248
-0.178784
-0.186714
-0.18715
-0.196646
-0.188848
-0.196638
-0.192738
-0.193333
-0.196928
-0.18684
-0.158917
-0.133497
-0.128706
-0.117385
-0.0910347
-0.07638
-0.0587273
-0.0387879
-0.0255261
-0.00938816
0.0112866
0.0363315
0.0330453
0.0415434
0.0485638
0.070409
0.0892053
0.108289
0.125875
0.138189
0.14068
0.131832
0.126432
0.127235
0.118198
0.123591
0.113666
0.103844
0.105086
0.0950966
0.0735373
0.0683205
0.0615118
0.0519286
0.040818
0.0271862
-0.0141345
-0.00600796
-0.00371205
0.00419924
0.0234293
0.0147882
0.0193353
0.0330519
0.0549329
0.0929036
0.109293
0.116732
0.131998
0.132973
0.125172
0.112358
0.121057
0.159925
0.167136
0.175956
0.201922
0.228627
0.22459
0.216057
0.209139
0.213161
0.205146
0.188042
0.176739
0.160529
0.139906
0.129114
0.116273
0.107605
0.0905567
0.0766119
0.0622758
0.0489076
0.0307328
0.0248937
0.0265947
0.0131365
-0.0234302
-0.0416178
-0.0798629
-0.111772
-0.113403
-0.109749
-0.116358
-0.12629
-0.134162
-0.153081
-0.1673
-0.168313
-0.182758
-0.174865
-0.178099
-0.183889
-0.187912
-0.198717
-0.196501
-0.211795
-0.213226
-0.168944
-0.140753
-0.113666
-0.114869
-0.0956876
-0.0979795
-0.102448
-0.0799659
-0.0371193
-0.0369685
-0.0147863
0.0155148
0.0585189
0.0530856
0.0506902
0.0577597
0.0864099
0.0997994
0.112399
0.116956
0.127619
0.134297
0.142514
0.145342
0.133831
0.122556
0.128511
0.119889
0.120952
0.119883
0.11045
0.0898455
0.0799152
0.0865035
0.0562352
0.0397189
0.0178152
-0.00845492
-0.0091316
-0.000265992
-0.00565592
-0.00759265
0.0188818
0.0224682
0.0433151
0.0509927
0.073365
0.110749
0.119413
0.125563
0.115786
0.109955
0.102232
0.137553
0.139172
0.148433
0.181788
0.193047
0.213558
0.223976
0.228467
0.232435
0.21293
0.185672
0.175208
0.171613
0.143129
0.133747
0.128293
0.12455
0.104474
0.0779509
0.0638772
0.0624992
0.0423145
0.023855
0.0267401
0.0293851
0.00670883
-0.0228982
-0.0520801
-0.0854795
-0.10169
-0.110083
-0.0896465
-0.103764
-0.116753
-0.134298
-0.153143
-0.173853
-0.162032
-0.166225
-0.193346
-0.190854
-0.187847
-0.175131
-0.174652
-0.186938
-0.182811
-0.183037
-0.173602
-0.153561
-0.131816
-0.102224
-0.0781612
-0.103267
-0.10643
-0.0668244
-0.0528462
-0.0404287
-0.00375592
0.0348331
0.0610524
0.0617227
0.0521614
0.057808
0.0766109
0.0887474
0.104711
0.11905
0.145656
0.141833
0.157816
0.142836
0.121294
0.129366
0.140848
0.135776
0.12485
0.121931
0.107707
0.0815047
0.0644792
0.0907196
0.0920165
0.0691075
0.011645
-0.0226323
-0.0230288
-0.0154325
-0.00948763
-0.00684463
0.0139432
0.0124788
0.0267433
0.0359541
0.0629249
0.0994692
0.10901
0.120028
0.120032
0.127607
0.114495
0.125862
0.121259
0.138419
0.164343
0.184953
0.198006
0.2036
0.210522
0.210522
0.236813
0.205085
0.176085
0.159882
0.141027
0.119883
0.113024
0.111322
0.113526
0.0927752
0.0705908
0.0565587
0.0351762
0.0300209
0.0359695
0.0214534
0.0151761
-0.0135109
-0.058081
-0.0746496
-0.0921632
-0.105069
-0.102317
-0.100896
-0.119564
-0.130125
-0.148322
-0.167525
-0.173259
-0.184665
-0.184682
-0.183027
-0.178708
-0.174505
-0.175491
-0.180908
-0.205858
-0.197171
-0.165355
-0.120685
-0.109993
-0.0928662
-0.0869842
-0.0924078
-0.0812458
-0.0652789
-0.0676924
-0.0624518
-0.0160423
0.045246
0.0837794
0.078902
0.0544167
0.0731654
0.0856459
0.101762
0.123499
0.124194
0.122172
0.138134
0.157024
0.149843
0.139616
0.134783
0.141569
0.135064
0.124967
0.126895
0.11685
0.104682
0.0912709
0.0886972
0.0731427
0.0509025
0.0163779
-0.0267017
-0.0286333
0.00022062
-0.0234652
-0.0244097
-0.00323692
0.0136588
0.0439138
0.05899
0.0708586
0.0734492
0.0904983
0.0839204
0.0890788
0.118009
0.108894
0.0957494
0.099354
0.133778
0.159522
0.19651
0.225936
0.23591
0.215383
0.200169
0.196152
0.176742
0.191389
0.161202
0.122923
0.107108
0.104528
0.106875
0.0978985
0.0639107
0.0555657
0.0643311
0.0540002
0.0381854
0.0281098
0.0249609
-0.00853708
-0.0330685
-0.0433674
-0.0464152
-0.0598053
-0.0936783
-0.0987117
-0.113674
-0.130887
-0.140606
-0.15256
-0.161652
-0.148019
-0.192624
-0.211184
-0.195236
-0.166781
-0.148518
-0.147852
-0.155043
-0.171736
-0.20025
-0.179234
-0.139609
-0.116501
-0.0950024
-0.0827875
-0.0809671
-0.0664135
-0.0666033
-0.0647156
-0.053719
-0.00208933
0.0346208
0.077366
0.0919641
0.0795695
0.0803306
0.096319
0.111159
0.117302
0.115556
0.120217
0.133611
0.16148
0.156238
0.142378
0.142204
0.144166
0.141551
0.127511
0.125977
0.116719
0.103279
0.104226
0.0831989
0.0730531
0.0448095
0.0269621
-0.0301983
-0.0559431
-0.0395849
-0.0146287
-0.0166731
-0.00906008
-0.00113636
-0.00123769
0.026527
0.0691608
0.0804523
0.0858003
0.0914864
0.0815672
0.0838785
0.10006
0.107003
0.118937
0.139468
0.148051
0.150565
0.15533
0.1881
0.200357
0.216515
0.212569
0.176038
0.170114
0.143976
0.118676
0.113176
0.107234
0.114426
0.120638
0.10512
0.0801694
0.0465197
0.0334863
0.0221852
0.00580886
0.0281501
0.0136855
-0.0240473
-0.0391558
-0.0528752
-0.0696542
-0.0803986
-0.0843751
-0.115762
-0.136022
-0.137123
-0.147762
-0.167145
-0.166698
-0.180285
-0.181217
-0.182594
-0.19645
-0.180931
-0.158426
-0.152904
-0.155227
-0.156968
-0.147233
-0.138379
-0.122279
-0.106561
-0.0862752
-0.0722091
-0.0651394
-0.0751365
-0.0455457
-0.0206694
-0.000631945
0.0408054
0.0603449
0.091958
0.0924651
0.0824999
0.0996379
0.115383
0.125688
0.12715
0.128333
0.143589
0.156855
0.159126
0.147626
0.140632
0.14595
0.138946
0.11997
0.125471
0.114762
0.118731
0.109733
0.0868377
0.0722997
0.0495198
0.0255416
-0.0315931
-0.0497505
-0.0510121
-0.0329307
-0.0251434
-0.0297781
-0.00571876
0.0311736
0.039251
0.047702
0.0563271
0.0630951
0.0614274
0.057065
0.0565106
0.0892807
0.10583
0.0966076
0.105457
0.119226
0.158781
0.190116
0.225899
0.230473
0.198885
0.171064
0.162278
0.168101
0.146878
0.116469
0.109385
0.10351
0.0962815
0.117513
0.114259
0.0736466
0.039182
0.0219441
0.00649006
0.00486095
0.0328266
0.0198447
0.00710287
-0.0134509
-0.0553751
-0.0761139
-0.0901876
-0.0906974
-0.119602
-0.158252
-0.148035
-0.12345
-0.143626
-0.151285
-0.159349
-0.176531
-0.172891
-0.166999
-0.161568
-0.163778
-0.166403
-0.177375
-0.160921
-0.138875
-0.115795
-0.0950957
-0.0991845
-0.0938261
-0.0804298
-0.0571277
-0.0431109
-0.0343755
-0.0182747
0.00370266
0.033287
0.0753099
0.106752
0.095075
0.0830352
0.0919665
0.114687
0.1187
0.125517
0.13672
0.14518
0.159887
0.164071
0.16859
0.144619
0.143344
0.139856
0.132023
0.13226
0.10717
0.109512
0.115613
0.0912481
0.0724963
0.0674198
0.0209862
-0.040489
-0.0649704
-0.0637324
-0.0481737
-0.0385109
-0.0548677
-0.0474624
0.0024961
0.0475221
0.0510766
0.0529907
0.0472242
0.0506738
0.0569769
0.0479193
0.0727779
0.0944194
0.0996526
0.11485
0.134562
0.148163
0.181376
0.171964
0.180321
0.190349
0.176522
0.159654
0.148171
0.153359
0.11909
0.113185
0.111031
0.0957359
0.105907
0.119953
0.0989555
0.0461257
0.015822
0.0127342
0.0115331
0.038242
0.0156226
-0.00395575
-0.0269251
-0.0439935
-0.077573
-0.103522
-0.0914677
-0.114167
-0.131648
-0.131467
-0.127535
-0.150011
-0.136173
-0.163367
-0.173752
-0.172118
-0.180825
-0.180253
-0.146186
-0.149449
-0.174273
-0.14432
-0.118707
-0.118681
-0.0915902
-0.085463
-0.085705
-0.0686381
-0.0661794
-0.0448093
-0.0365464
-0.0211397
0.0148031
0.0505408
0.0746123
0.0929958
0.0893271
0.0926765
0.114749
0.118591
0.124859
0.133948
0.133893
0.13386
0.149318
0.165694
0.165094
0.158345
0.161145
0.151624
0.133247
0.130712
0.123331
0.113805
0.10793
0.0964248
0.0830417
0.0677909
0.0244752
-0.0702565
-0.0671111
-0.0526147
-0.0454981
-0.0486201
-0.0160084
-0.0147876
-0.0191401
-0.0132291
-0.00690463
0.0209438
0.0389989
0.0507987
0.0556608
0.0430289
0.0513525
0.067761
0.0729538
0.098335
0.126086
0.16581
0.186425
0.189734
0.167552
0.16412
0.158802
0.162958
0.154602
0.147019
0.114142
0.114067
0.119532
0.105349
0.0899152
0.106476
0.0849946
0.0323988
0.0135833
0.0169187
0.00550557
0.0260275
0.0270607
-0.00750327
-0.0367104
-0.0519306
-0.0762483
-0.0812778
-0.093329
-0.122659
-0.121067
-0.12166
-0.126483
-0.155851
-0.134997
-0.144171
-0.150705
-0.159897
-0.171509
-0.176193
-0.172816
-0.166128
-0.159904
-0.134055
-0.119297
-0.10599
-0.0927895
-0.0921369
-0.0737191
-0.0581532
-0.0528546
-0.0231186
-0.0211118
-0.0159358
0.0161751
0.0407191
0.0731702
0.102173
0.110424
0.101015
0.0918495
0.104202
0.124129
0.146486
0.143502
0.139451
0.148368
0.16317
0.173266
0.176979
0.173225
0.148834
0.129033
0.128561
0.119863
0.129208
0.11815
0.0963083
0.084307
0.0653628
0.0265674
-0.0771006
-0.0703363
-0.0644915
-0.044756
-0.0660743
-0.0661904
-0.026829
-0.0141844
-0.00925137
-0.00875332
-0.00404435
0.0013018
0.0225851
0.053305
0.0535413
0.0448312
0.0524049
0.0602071
0.0981919
0.129027
0.145132
0.176159
0.187312
0.167536
0.138541
0.146951
0.164496
0.146679
0.124806
0.100846
0.100116
0.108938
0.106816
0.0958634
0.102629
0.082002
0.0535247
0.0194432
-0.00145363
0.0089585
0.0219215
0.0112375
-0.0224607
-0.0236125
-0.0374535
-0.0701443
-0.0811568
-0.0988234
-0.110875
-0.108495
-0.116701
-0.125358
-0.146443
-0.142069
-0.164863
-0.163483
-0.139741
-0.148325
-0.160687
-0.152869
-0.169371
-0.150715
-0.13149
-0.115957
-0.103542
-0.0857767
-0.0977779
-0.0679931
-0.0341088
-0.0340555
-0.0230904
-0.0197224
-0.0101201
0.0195033
0.0575195
0.083355
0.0919286
0.109671
0.0893451
0.0927201
0.115947
0.127913
0.142917
0.153019
0.152993
0.151571
0.179516
0.168996
0.164478
0.17231
0.152897
0.134364
0.13954
0.135227
0.130626
0.113567
0.0932369
0.0943198
0.067892
0.0203274
-0.0724844
-0.0678708
-0.0737607
-0.0741092
-0.0618693
-0.0522162
-0.0354445
-0.0308237
-0.0414114
-0.040956
-0.0280065
-0.010518
0.001541
0.0327189
0.0435553
0.0415558
0.0511333
0.0568181
0.0902231
0.11239
0.128396
0.15617
0.15709
0.156487
0.157689
0.14432
0.14274
0.132406
0.118154
0.11695
0.106739
0.100625
0.107507
0.110628
0.087082
0.056559
0.0248805
0.000398859
0.00403372
0.0179974
0.0238991
-0.00176375
-0.00943537
-0.0176049
-0.0314565
-0.0744129
-0.0947346
-0.119134
-0.112195
-0.0944579
-0.10382
-0.129483
-0.142779
-0.132394
-0.153918
-0.153786
-0.149576
-0.158151
-0.150215
-0.144737
-0.150769
-0.141006
-0.137426
-0.122181
-0.0889407
-0.0795177
-0.0748853
-0.0548717
-0.0285971
-0.0292915
-0.00533927
-0.00168486
-0.00279735
0.026757
0.0636547
0.0834467
0.0909281
0.0988634
0.10822
0.12098
0.111615
0.123846
0.141913
0.132519
0.147099
0.170922
0.193096
0.1701
0.162108
0.170512
0.16683
0.140419
0.132825
0.137815
0.124179
0.11366
0.103896
0.0909722
0.0658239
0.02626
-0.105584
-0.0846643
-0.0670101
-0.05966
-0.0593972
-0.0566333
-0.0518449
-0.0575862
-0.0611421
-0.0587685
-0.0451731
-0.0228869
-0.00859435
0.00825169
0.0255736
0.0381979
0.0654513
0.0735888
0.0838923
0.0818122
0.110143
0.136322
0.157739
0.155547
0.140207
0.128855
0.131441
0.126332
0.113395
0.0919971
0.0920074
0.0931213
0.122877
0.114129
0.0809437
0.0373146
0.0211593
0.00555143
0.00705824
0.0103205
0.019036
0.000664593
-0.0199541
-0.0438169
-0.0545047
-0.0766568
-0.0776195
-0.101615
-0.0982811
-0.0973324
-0.119945
-0.123208
-0.126627
-0.142016
-0.144662
-0.136561
-0.140704
-0.150401
-0.143507
-0.143331
-0.149386
-0.155772
-0.138402
-0.10506
-0.084267
-0.0665596
-0.060786
-0.0442497
-0.0218384
-0.019625
-0.0155024
-0.0128522
0.00807417
0.0397862
0.0826911
0.100402
0.0946624
0.0979446
0.102182
0.104647
0.116298
0.137959
0.141468
0.149586
0.13596
0.16575
0.189287
0.18273
0.17499
0.172551
0.169089
0.142779
0.108679
0.12663
0.143508
0.12181
0.104705
0.0906889
0.0598701
0.0152197
-0.117311
-0.0856661
-0.0754017
-0.0693304
-0.0571648
-0.0737345
-0.0630324
-0.0765159
-0.0847868
-0.0616942
-0.0436945
-0.03942
-0.0368458
-0.011361
0.00124933
0.0106316
0.0431071
0.0817919
0.069684
0.0787382
0.103733
0.134034
0.150405
0.141954
0.128962
0.117132
0.127263
0.11154
0.0989992
0.0945727
0.0843266
0.0805883
0.106514
0.111064
0.0781301
0.0479622
0.0105399
-0.00631228
-0.00311349
0.00778171
0.00757404
-0.00884008
-0.0315741
-0.0488656
-0.049248
-0.0665594
-0.0833604
-0.0966908
-0.0994481
-0.103466
-0.113368
-0.110874
-0.119943
-0.136159
-0.155843
-0.148051
-0.149425
-0.141611
-0.138042
-0.142773
-0.149012
-0.154976
-0.135599
-0.096859
-0.0691019
-0.0448105
-0.0413913
-0.0340765
-0.0157559
-0.0220553
-0.00772899
0.00387854
0.0243841
0.0628158
0.0894067
0.112681
0.0863015
0.0848343
0.101468
0.123541
0.134417
0.138379
0.145999
0.159142
0.158383
0.171291
0.178101
0.180524
0.180812
0.163824
0.143655
0.136677
0.147668
0.126355
0.144538
0.131982
0.107304
0.0731503
0.0442431
0.0151523
-0.118664
-0.0946035
-0.0865226
-0.0894189
-0.0824079
-0.0761644
-0.065614
-0.0773388
-0.0865138
-0.0885353
-0.0830108
-0.0654098
-0.0411908
-0.0328216
0.00473015
0.032117
0.0444995
0.0459516
0.0563694
0.0633206
0.107058
0.128789
0.131492
0.123003
0.106525
0.109885
0.120441
0.12762
0.094893
0.0794362
0.0783071
0.0743386
0.0696708
0.0718051
0.0719299
0.0658765
0.0362313
0.0172336
-0.00945654
-0.00951111
-0.00374707
-0.0110808
-0.0381266
-0.0500909
-0.0496877
-0.0750472
-0.0936279
-0.102312
-0.0978902
-0.0878331
-0.0970624
-0.113879
-0.134574
-0.133906
-0.135121
-0.135508
-0.133708
-0.141782
-0.147361
-0.165418
-0.177512
-0.131898
-0.113109
-0.0916581
-0.0619584
-0.0514415
-0.0370733
-0.0275114
-0.00272394
0.00576572
0.0158748
-0.0104178
0.0221202
0.0536334
0.102407
0.126174
0.0949081
0.0989663
0.113974
0.10659
0.120644
0.141169
0.156241
0.170228
0.169215
0.18159
0.179356
0.175182
0.17948
0.17213
0.173353
0.138869
0.149948
0.137046
0.132081
0.107669
0.112547
0.078486
0.0555857
0.0163881
-0.10938
-0.114249
-0.110488
-0.103918
-0.0856212
-0.0879664
-0.0892218
-0.0927295
-0.0978546
-0.0982074
-0.0890005
-0.075118
-0.0538043
-0.0379114
-0.0112243
0.00376029
0.0141088
-0.00674189
0.0333193
0.068305
0.112467
0.146717
0.139218
0.112971
0.104012
0.103335
0.113226
0.112743
0.0841936
0.0709482
0.0513087
0.0632635
0.0845017
0.0829134
0.0606306
0.0371745
0.0135204
0.0140246
-0.00419786
-0.0131749
-0.00258669
-0.0208716
-0.0257018
-0.0485825
-0.0742935
-0.0791539
-0.0810798
-0.0744735
-0.0989703
-0.109598
-0.104505
-0.113636
-0.132296
-0.139642
-0.144851
-0.121719
-0.0963987
-0.133165
-0.16119
-0.167002
-0.148043
-0.130461
-0.119201
-0.0901985
-0.0593892
-0.0337796
-0.00787665
-0.0133862
-0.00718037
0.00384176
0.00998051
0.019158
0.0523487
0.0839806
0.100342
0.109814
0.112159
0.110132
0.106402
0.114502
0.133145
0.14958
0.167831
0.176883
0.182652
0.177792
0.181887
0.178011
0.186797
0.168843
0.157361
0.152028
0.150901
0.14671
0.13245
0.113284
0.106097
0.0791998
0.0517164
0.0119826
-0.137243
-0.109687
-0.100231
-0.0945541
-0.106849
-0.105933
-0.11254
-0.116178
-0.111871
-0.124702
-0.0847389
-0.0759818
-0.0600517
-0.0534088
-0.0283737
-0.0057082
0.0330164
0.026582
0.0329545
0.0618778
0.080101
0.121331
0.12223
0.105303
0.0989213
0.0903395
0.065386
0.0846887
0.0883765
0.0857172
0.0605757
0.0647803
0.0605213
0.0669028
0.0651093
0.0459748
0.015435
0.0144836
0.00589455
0.0032068
-0.00581969
-0.0292962
-0.0492851
-0.0578742
-0.0609043
-0.0625352
-0.0845877
-0.100047
-0.106648
-0.0983465
-0.107914
-0.108073
-0.117466
-0.119937
-0.124088
-0.131538
-0.128779
-0.158271
-0.143406
-0.142369
-0.142122
-0.123269
-0.102437
-0.0826673
-0.0572756
-0.0359344
-0.0291619
-0.0121073
0.0068329
0.0181007
0.0235777
0.0351488
0.0573344
0.0919998
0.0922529
0.121729
0.113109
0.131998
0.127159
0.130438
0.146124
0.149984
0.167524
0.18491
0.185777
0.188074
0.182987
0.179486
0.183902
0.168673
0.166641
0.159274
0.152537
0.136551
0.133057
0.110906
0.102564
0.0826247
0.0526803
0.0223271
-0.143771
-0.127552
-0.125722
-0.106229
-0.120151
-0.117522
-0.11041
-0.106856
-0.109321
-0.125724
-0.113848
-0.0911061
-0.0762865
-0.0599864
-0.0359278
-0.010099
0.0120284
0.0111448
0.0277691
0.0480851
0.0752767
0.111383
0.120021
0.101703
0.087824
0.0889667
0.0725422
0.0704117
0.0668767
0.0684158
0.0568865
0.0563842
0.0579142
0.0518545
0.0644982
0.0385775
0.0182863
0.00956086
0.0140508
-0.000209738
-0.0208055
-0.0231599
-0.032262
-0.0641882
-0.0657063
-0.0835975
-0.100036
-0.0875189
-0.0878189
-0.0938746
-0.120324
-0.107609
-0.115401
-0.124695
-0.148588
-0.137049
-0.117452
-0.124744
-0.14345
-0.135172
-0.118391
-0.113545
-0.0959139
-0.0812458
-0.0571765
-0.0288598
0.00034639
0.000861787
0.00789919
0.00538972
0.0313914
0.0437484
0.0607508
0.0979825
0.117385
0.129471
0.126256
0.132445
0.132739
0.147277
0.154774
0.155214
0.185432
0.187372
0.186875
0.192616
0.19858
0.181761
0.177201
0.170892
0.179718
0.167542
0.15792
0.132124
0.124169
0.105336
0.11486
0.101953
0.0645521
0.0210362
-0.126193
-0.128953
-0.141337
-0.133809
-0.139219
-0.139656
-0.121125
-0.116464
-0.12559
-0.120492
-0.11152
-0.0818124
-0.0709029
-0.053146
-0.0543587
-0.0391988
-0.00894735
0.00463257
0.0324301
0.0614224
0.0671157
0.093396
0.106244
0.0957785
0.0851825
0.0759375
0.0649818
0.0602874
0.0483144
0.0446679
0.0435236
0.07175
0.0728797
0.0544224
0.0491729
0.0286872
0.0245085
0.0033187
0.00315264
-0.00773452
-0.00894342
-0.0305344
-0.0389234
-0.0651807
-0.0746609
-0.0903204
-0.102263
-0.0850849
-0.0874588
-0.104761
-0.110997
-0.099119
-0.110452
-0.123256
-0.140292
-0.124646
-0.121093
-0.121017
-0.135413
-0.12476
-0.1113
-0.108227
-0.100432
-0.0985937
-0.0544525
-0.02142
0.00472385
0.00495167
0.0151244
0.0204586
0.0425213
0.0603942
0.0755016
0.100117
0.12136
0.142313
0.154756
0.143366
0.132207
0.157159
0.164143
0.157143
0.199086
0.199851
0.178049
0.186764
0.204023
0.191297
0.182732
0.175596
0.171803
0.16209
0.163295
0.144542
0.132451
0.109517
0.0992513
0.0939923
0.0651338
0.0191014
-0.142385
-0.15251
-0.160125
-0.155251
-0.143675
-0.111374
-0.0992853
-0.118598
-0.153959
-0.140657
-0.112163
-0.100642
-0.0869958
-0.0723159
-0.0457357
-0.024991
-0.0213121
-0.0128021
0.011523
0.0654345
0.0611258
0.0711637
0.0928712
0.0704592
0.071946
0.0670991
0.0584218
0.0531347
0.0394471
0.0481935
0.0661703
0.0575083
0.0352198
0.0553135
0.0627898
0.0517972
0.0316274
0.00820016
-0.00569414
-0.0168897
-0.0120065
-0.0213201
-0.0473867
-0.064398
-0.0903021
-0.102848
-0.096946
-0.0866905
-0.0845709
-0.0960154
-0.107356
-0.104626
-0.108389
-0.1223
-0.135606
-0.127333
-0.133551
-0.124149
-0.121827
-0.120936
-0.109577
-0.105058
-0.0830788
-0.0776094
-0.0506651
-0.0310514
-0.0141995
0.00624475
0.021195
0.0504784
0.0576411
0.0634205
0.0801393
0.0942884
0.120188
0.13784
0.161666
0.160257
0.165507
0.170793
0.174915
0.179418
0.195832
0.189424
0.189321
0.192181
0.204833
0.205918
0.199473
0.195765
0.173601
0.157334
0.157442
0.144618
0.130656
0.111992
0.106303
0.0870441
0.0588329
0.0228113
-0.156353
-0.148964
-0.139092
-0.160129
-0.151813
-0.151972
-0.15232
-0.14644
-0.133304
-0.116112
-0.110788
-0.103916
-0.0926328
-0.0608858
-0.0578441
-0.0670727
-0.0501203
-0.00693469
0.0241208
0.0455899
0.0533677
0.0799844
0.0870542
0.0746839
0.0598094
0.0626424
0.0504372
0.0448028
0.0409097
0.0503138
0.0463959
0.0293149
0.0486061
0.0744278
0.0639514
0.0439527
0.0247454
0.0108896
-0.00827256
-0.00714454
-0.0170095
-0.035345
-0.0527708
-0.0720247
-0.0834355
-0.0937983
-0.102141
-0.0882232
-0.0857118
-0.0919132
-0.108498
-0.108696
-0.1178
-0.114913
-0.12217
-0.124161
-0.12513
-0.114896
-0.118462
-0.116505
-0.11758
-0.104282
-0.0778075
-0.0767706
-0.0535638
-0.0166434
0.0150286
0.0225302
0.0150209
0.0422613
0.0628822
0.072108
0.0772839
0.100454
0.128279
0.152546
0.176694
0.163909
0.157823
0.178259
0.182155
0.1885
0.205233
0.201304
0.193709
0.187355
0.200675
0.20217
0.197325
0.208704
0.188107
0.179863
0.162311
0.152401
0.124598
0.108451
0.104444
0.0935076
0.0747944
0.0302434
-0.158722
-0.167954
-0.187808
-0.165823
-0.154131
-0.140591
-0.132518
-0.148548
-0.147721
-0.136441
-0.129928
-0.108684
-0.095883
-0.0638775
-0.0465879
-0.0489991
-0.0650449
-0.0355799
-8.15776e-06
0.0322756
0.0531405
0.0841072
0.0864103
0.0695005
0.0640012
0.0552191
0.0494921
0.0342066
0.0283416
0.0342096
0.0232598
0.0344168
0.0349082
0.0652866
0.0736101
0.0660838
0.0426386
0.0142006
-0.00889504
-0.0135986
-0.0213818
-0.0351102
-0.0604985
-0.0790949
-0.0956379
-0.0852833
-0.0874941
-0.0888392
-0.0989154
-0.103376
-0.111529
-0.103702
-0.107146
-0.118268
-0.118722
-0.128015
-0.121755
-0.122108
-0.12017
-0.11678
-0.114978
-0.103826
-0.0809067
-0.0770051
-0.0569968
-0.0155188
0.0231854
0.0295935
0.0242032
0.0525872
0.0796194
0.0810857
0.085877
0.103804
0.146831
0.168845
0.179671
0.156175
0.157658
0.176607
0.195407
0.199732
0.208094
0.206408
0.19885
0.203752
0.222245
0.212289
0.202339
0.201504
0.194066
0.190393
0.183227
0.160112
0.11961
0.0930002
0.103274
0.094638
0.0740262
0.0242264
-0.161331
-0.169507
-0.179234
-0.178213
-0.170928
-0.164558
-0.147379
-0.146836
-0.155106
-0.133737
-0.110686
-0.10539
-0.0943246
-0.0982501
-0.087062
-0.0810883
-0.0567939
-0.0227842
-0.00170832
0.0216747
0.0397508
0.0874851
0.08195
0.065027
0.0526494
0.0597695
0.045619
0.0453525
0.0507521
0.041234
0.0235143
0.0160943
0.0164758
0.036083
0.0661352
0.0654192
0.0473954
0.0220144
-0.0161848
-0.0185864
-0.0192774
-0.0369273
-0.0555713
-0.0838931
-0.094573
-0.113553
-0.0984852
-0.0740264
-0.0874182
-0.0885975
-0.107822
-0.11706
-0.128815
-0.120174
-0.117384
-0.123668
-0.115907
-0.109096
-0.111798
-0.10714
-0.117375
-0.0999169
-0.0864663
-0.0660725
-0.0317109