/*--------------------------------*- C++ -*----------------------------------*\
| =========                 |                                                 |
| \\      /  F ield         | OpenFOAM: The Open Source CFD Toolbox           |
|  \\    /   O peration     | Version:  v2012                                 |
|   \\  /    A nd           | Website:  www.openfoam.com                      |
|    \\/     M anipulation  |                                                 |
\*---------------------------------------------------------------------------*/
FoamFile
{
    version     2.0;
    format      ascii;
    class       volScalarField;
    location    "0";
    object      p;
}
// * * * * * * * * * * * * * * * * * * * * * * * * * * * * * * * * * * * * * //

dimensions      [0 2 -2 0 0 0 0];


internalField   nonuniform List<scalar> 
4000
(
1.43543e-13
1.33767e-13
1.395e-13
1.40145e-13
1.38819e-13
1.32376e-13
1.30762e-13
1.29137e-13
1.26367e-13
1.23275e-13
1.27758e-13
1.2084e-13
1.07057e-13
1.04133e-13
9.23192e-14
8.40188e-14
7.64075e-14
7.8904e-14
8.33939e-14
7.93968e-14
7.33563e-14
6.75517e-14
6.87587e-14
6.71761e-14
7.11662e-14
6.95991e-14
7.56765e-14
6.84694e-14
7.0875e-14
6.44375e-14
5.60771e-14
5.00457e-14
5.99301e-14
6.09266e-14
5.97065e-14
5.49011e-14
5.55882e-14
4.48759e-14
3.27473e-14
3.60647e-14
3.81985e-14
4.90705e-14
5.43787e-14
5.42408e-14
5.87658e-14
5.87806e-14
6.02416e-14
5.99382e-14
5.93826e-14
6.15371e-14
6.47446e-14
6.94439e-14
7.03074e-14
7.23424e-14
6.70272e-14
6.10599e-14
6.0839e-14
5.87161e-14
6.07167e-14
5.94664e-14
6.47323e-14
6.30762e-14
5.67453e-14
5.19511e-14
5.81799e-14
6.16039e-14
6.47674e-14
6.88953e-14
6.08044e-14
5.71583e-14
5.4585e-14
5.63213e-14
5.4818e-14
5.14365e-14
5.51976e-14
5.37205e-14
6.19982e-14
5.97765e-14
5.05127e-14
4.62721e-14
3.93016e-14
4.0662e-14
3.25195e-14
3.42501e-14
3.47216e-14
2.5665e-14
2.41372e-14
2.55214e-14
2.83678e-14
3.05853e-14
2.30202e-14
2.23939e-14
2.19981e-14
2.86647e-14
2.9864e-14
2.76409e-14
2.36835e-14
2.0415e-14
1.2662e-14
1.2957e-15
1.41113e-13
1.36825e-13
1.4105e-13
1.36407e-13
1.33853e-13
1.33906e-13
1.3301e-13
1.30135e-13
1.29055e-13
1.26401e-13
1.22723e-13
1.15262e-13
1.10803e-13
1.02666e-13
9.16103e-14
8.83942e-14
7.89169e-14
8.13425e-14
8.13929e-14
8.20118e-14
7.61926e-14
6.42552e-14
6.40574e-14
6.58747e-14
6.98353e-14
7.11042e-14
7.38067e-14
7.1179e-14
6.57439e-14
5.69333e-14
5.883e-14
5.53706e-14
6.10916e-14
5.75345e-14
5.43688e-14
5.32476e-14
5.49158e-14
5.28381e-14
3.86053e-14
3.62991e-14
3.86173e-14
4.40722e-14
5.3606e-14
5.78492e-14
6.09701e-14
5.72445e-14
5.30964e-14
6.24895e-14
6.3784e-14
6.06277e-14
6.33e-14
7.01718e-14
7.05822e-14
7.2056e-14
6.93937e-14
6.29671e-14
5.85955e-14
5.7813e-14
5.81483e-14
5.85574e-14
6.50985e-14
6.45579e-14
6.01124e-14
5.43155e-14
5.74326e-14
5.97908e-14
6.1472e-14
6.6819e-14
5.989e-14
6.29735e-14
5.32634e-14
5.48595e-14
5.69795e-14
5.867e-14
5.36757e-14
5.57131e-14
6.04692e-14
5.63223e-14
4.95338e-14
4.45877e-14
4.12257e-14
4.18115e-14
3.57199e-14
3.48166e-14
2.96665e-14
2.60993e-14
2.30448e-14
2.46164e-14
2.5847e-14
2.75264e-14
2.62255e-14
2.81125e-14
2.53913e-14
2.30803e-14
3.03542e-14
2.91898e-14
2.34213e-14
2.13809e-14
1.41024e-14
4.25981e-15
1.37142e-13
1.36414e-13
1.36413e-13
1.37688e-13
1.39347e-13
1.34323e-13
1.31238e-13
1.28808e-13
1.25908e-13
1.27928e-13
1.19886e-13
1.12196e-13
1.09538e-13
1.08824e-13
9.44714e-14
8.48016e-14
8.23344e-14
8.16984e-14
8.09588e-14
7.88835e-14
7.0205e-14
6.71625e-14
6.43464e-14
6.75953e-14
7.03605e-14
7.10987e-14
7.53204e-14
7.45781e-14
6.48732e-14
5.64351e-14
5.81476e-14
5.53827e-14
6.20416e-14
5.70576e-14
5.88763e-14
5.79095e-14
5.46306e-14
5.01836e-14
4.5227e-14
3.89218e-14
3.85069e-14
4.1224e-14
5.36603e-14
5.60605e-14
5.70036e-14
5.79297e-14
5.42578e-14
5.7276e-14
6.19437e-14
6.73539e-14
6.62407e-14
6.96233e-14
6.95401e-14
6.56083e-14
6.88265e-14
6.48647e-14
5.70843e-14
6.1256e-14
6.05872e-14
5.84764e-14
6.45317e-14
6.08762e-14
6.01638e-14
5.65163e-14
6.07716e-14
6.46526e-14
6.37449e-14
6.29804e-14
6.74423e-14
6.28564e-14
5.26478e-14
5.30541e-14
5.29377e-14
6.17043e-14
5.93599e-14
5.95149e-14
5.69245e-14
5.49378e-14
5.27813e-14
4.5538e-14
4.7186e-14
3.73864e-14
3.50545e-14
3.527e-14
2.63948e-14
3.16145e-14
3.11007e-14
2.8196e-14
2.49875e-14
2.45619e-14
2.82259e-14
2.78091e-14
2.4998e-14
2.5539e-14
2.75956e-14
2.86259e-14
2.29765e-14
2.3311e-14
1.43422e-14
6.48361e-15
1.37438e-13
1.41755e-13
1.37523e-13
1.30287e-13
1.36231e-13
1.33112e-13
1.28852e-13
1.24629e-13
1.2972e-13
1.24808e-13
1.19345e-13
1.1162e-13
1.08632e-13
1.02043e-13
9.84078e-14
9.06182e-14
8.26918e-14
8.04994e-14
7.99546e-14
7.61916e-14
6.84661e-14
7.3169e-14
6.97906e-14
6.74871e-14
7.15007e-14
6.97822e-14
7.15562e-14
7.45305e-14
6.42044e-14
6.09998e-14
6.36991e-14
6.12416e-14
6.02694e-14
5.4045e-14
5.26357e-14
5.87408e-14
5.77234e-14
5.44863e-14
4.82581e-14
3.85318e-14
4.38662e-14
5.05346e-14
5.55494e-14
5.44278e-14
5.14962e-14
5.01907e-14
5.73968e-14
6.09003e-14
6.46619e-14
6.24206e-14
6.17634e-14
6.49304e-14
7.03741e-14
6.8022e-14
6.67852e-14
6.41877e-14
5.84345e-14
6.10401e-14
6.24817e-14
5.84688e-14
6.27367e-14
5.9681e-14
6.48826e-14
5.93288e-14
6.30286e-14
6.75546e-14
6.28896e-14
6.2295e-14
6.88438e-14
5.92168e-14
5.66419e-14
5.76561e-14
5.59732e-14
6.64409e-14
6.23895e-14
6.0419e-14
6.01629e-14
5.57695e-14
5.33852e-14
4.99382e-14
4.60039e-14
4.08834e-14
3.44432e-14
3.50918e-14
2.95484e-14
2.82422e-14
3.20103e-14
2.98976e-14
2.84213e-14
2.47046e-14
3.23984e-14
2.8418e-14
2.56168e-14
2.61751e-14
3.10392e-14
2.75234e-14
2.55003e-14
2.32043e-14
1.15362e-14
3.71064e-15
1.35389e-13
1.4314e-13
1.35627e-13
1.26259e-13
1.32345e-13
1.32143e-13
1.25766e-13
1.26577e-13
1.2857e-13
1.23217e-13
1.13254e-13
1.09334e-13
1.11595e-13
1.03028e-13
9.82322e-14
9.11598e-14
8.49772e-14
8.37291e-14
7.75783e-14
6.94351e-14
7.23361e-14
7.04151e-14
6.61399e-14
6.94067e-14
8.18264e-14
7.53445e-14
7.40971e-14
7.07483e-14
6.93111e-14
6.43867e-14
6.63799e-14
6.54556e-14
6.19576e-14
5.38763e-14
5.40654e-14
5.8828e-14
5.55592e-14
4.91907e-14
4.37785e-14
4.04885e-14
5.07728e-14
5.23923e-14
5.7927e-14
5.41555e-14
5.08596e-14
4.81175e-14
5.48522e-14
6.22124e-14
6.52053e-14
6.71854e-14
6.54546e-14
7.08794e-14
7.10001e-14
6.75386e-14
6.36838e-14
6.08605e-14
6.21409e-14
5.93633e-14
5.97165e-14
5.89862e-14
6.09717e-14
6.18678e-14
6.07625e-14
6.32922e-14
7.00956e-14
7.36087e-14
6.62988e-14
5.93823e-14
6.6215e-14
5.90896e-14
5.66168e-14
5.62865e-14
5.75165e-14
6.59716e-14
5.99234e-14
5.86259e-14
5.66688e-14
5.83286e-14
5.66884e-14
4.81705e-14
4.64708e-14
4.01183e-14
3.79259e-14
3.34737e-14
2.99535e-14
2.87602e-14
3.44423e-14
3.32915e-14
3.27933e-14
2.85474e-14
3.12559e-14
3.09528e-14
2.42966e-14
2.85245e-14
3.52322e-14
2.80983e-14
2.33835e-14
2.30766e-14
1.60303e-14
4.5683e-15
1.32999e-13
1.44515e-13
1.34804e-13
1.19603e-13
1.31797e-13
1.33581e-13
1.32642e-13
1.27985e-13
1.22984e-13
1.16892e-13
1.10604e-13
1.09871e-13
1.07265e-13
1.03678e-13
9.52079e-14
9.42832e-14
9.20327e-14
8.88993e-14
7.97805e-14
7.11807e-14
7.32598e-14
6.14746e-14
6.18701e-14
7.30321e-14
7.80627e-14
8.14472e-14
8.01036e-14
6.95734e-14
6.52632e-14
6.45613e-14
6.8772e-14
6.55664e-14
5.9509e-14
5.621e-14
5.71889e-14
5.68599e-14
4.91712e-14
5.09311e-14
4.70439e-14
5.00444e-14
4.85309e-14
5.50328e-14
5.45396e-14
5.40316e-14
5.39182e-14
4.94467e-14
4.69893e-14
5.62311e-14
6.38063e-14
6.53223e-14
6.72584e-14
7.28799e-14
7.21716e-14
6.67117e-14
6.2849e-14
6.27181e-14
6.27601e-14
5.91872e-14
6.17436e-14
6.14368e-14
6.45506e-14
6.37612e-14
6.22732e-14
6.55642e-14
6.34345e-14
7.26057e-14
6.51504e-14
5.93501e-14
6.37726e-14
5.79029e-14
5.69988e-14
6.2006e-14
6.14603e-14
6.30562e-14
5.65024e-14
5.84565e-14
5.79608e-14
5.62731e-14
5.4374e-14
5.03933e-14
4.77906e-14
4.15976e-14
3.64522e-14
3.34009e-14
3.19721e-14
2.88001e-14
3.5585e-14
3.51853e-14
3.1827e-14
2.8048e-14
3.10416e-14
2.86839e-14
2.20735e-14
2.7691e-14
3.85381e-14
3.3996e-14
2.36228e-14
1.94165e-14
1.35791e-14
2.69984e-16
1.32095e-13
1.34243e-13
1.33506e-13
1.25516e-13
1.27218e-13
1.31096e-13
1.30865e-13
1.25474e-13
1.19246e-13
1.13593e-13
1.06545e-13
1.11215e-13
1.10495e-13
1.07009e-13
9.83503e-14
8.66478e-14
9.15898e-14
8.72447e-14
7.71281e-14
7.15407e-14
6.01993e-14
6.23528e-14
7.55471e-14
8.20721e-14
8.61725e-14
8.28908e-14
7.85442e-14
6.24552e-14
6.42406e-14
6.79764e-14
6.76977e-14
6.73826e-14
6.19429e-14
5.42892e-14
5.64089e-14
5.01903e-14
5.30047e-14
5.84317e-14
5.10492e-14
4.85024e-14
4.47314e-14
5.14119e-14
5.20511e-14
5.17599e-14
5.3788e-14
5.45924e-14
5.38448e-14
6.30619e-14
6.10379e-14
6.24501e-14
6.67004e-14
7.43733e-14
7.81109e-14
6.36519e-14
6.21579e-14
6.45399e-14
6.34322e-14
5.31518e-14
5.81499e-14
6.18091e-14
6.60437e-14
6.90669e-14
6.53795e-14
6.73324e-14
6.37664e-14
6.64313e-14
6.15256e-14
5.95552e-14
6.19899e-14
5.56078e-14
6.53466e-14
6.26723e-14
6.68647e-14
6.08971e-14
5.80383e-14
5.77383e-14
5.81544e-14
4.99331e-14
4.27624e-14
5.02051e-14
5.25094e-14
4.4767e-14
3.74351e-14
3.68859e-14
3.60726e-14
3.03097e-14
3.02429e-14
3.20409e-14
3.12107e-14
3.24305e-14
3.05356e-14
2.27555e-14
2.31397e-14
2.54816e-14
3.48706e-14
2.96008e-14
2.32394e-14
1.89397e-14
9.16886e-15
6.41613e-16
1.33895e-13
1.31032e-13
1.32144e-13
1.23956e-13
1.22506e-13
1.24664e-13
1.30674e-13
1.27334e-13
1.16888e-13
1.12323e-13
1.1217e-13
1.079e-13
1.01106e-13
1.02627e-13
9.59074e-14
9.10167e-14
9.28324e-14
8.69552e-14
7.46651e-14
7.5347e-14
7.27229e-14
7.10505e-14
7.43448e-14
7.31367e-14
8.34707e-14
7.80344e-14
7.39993e-14
6.25412e-14
6.69854e-14
6.22871e-14
6.68329e-14
6.90443e-14
6.50062e-14
5.86009e-14
5.7494e-14
5.08994e-14
5.01562e-14
5.33376e-14
5.36486e-14
4.91844e-14
5.03965e-14
5.39779e-14
5.59536e-14
5.49141e-14
5.65241e-14
5.83838e-14
5.16077e-14
4.70897e-14
5.19247e-14
6.19781e-14
7.42546e-14
7.71959e-14
7.1111e-14
6.09275e-14
6.13404e-14
5.93791e-14
6.3501e-14
6.12478e-14
5.94004e-14
6.45198e-14
6.19633e-14
6.69584e-14
6.74967e-14
6.66066e-14
6.74002e-14
6.65119e-14
6.22163e-14
6.36013e-14
6.31654e-14
5.93622e-14
5.79376e-14
6.5412e-14
6.59938e-14
5.63101e-14
5.20619e-14
5.43997e-14
6.03245e-14
5.03764e-14
4.73323e-14
5.33245e-14
5.31827e-14
4.43061e-14
3.79631e-14
3.47799e-14
2.98416e-14
2.91912e-14
3.09463e-14
2.9921e-14
3.67765e-14
3.31588e-14
2.78693e-14
1.80202e-14
2.44652e-14
2.55368e-14
2.97026e-14
2.79325e-14
2.6047e-14
1.49521e-14
7.66448e-15
9.44108e-16
1.33378e-13
1.33399e-13
1.28231e-13
1.22413e-13
1.23616e-13
1.24739e-13
1.27426e-13
1.26075e-13
1.1547e-13
1.17198e-13
1.12351e-13
1.05107e-13
1.00155e-13
9.79195e-14
9.64211e-14
9.6054e-14
9.20285e-14
8.85109e-14
7.25789e-14
7.25378e-14
7.098e-14
7.61424e-14
7.68978e-14
7.57098e-14
7.56916e-14
6.93076e-14
7.51862e-14
6.98141e-14
6.81065e-14
6.86311e-14
6.21766e-14
6.94496e-14
6.11036e-14
5.55094e-14
5.82077e-14
5.82884e-14
4.87402e-14
4.7162e-14
6.10846e-14
6.18938e-14
5.51583e-14
4.38809e-14
4.83939e-14
5.01059e-14
5.49082e-14
5.8646e-14
5.73838e-14
5.81657e-14
5.62007e-14
5.79118e-14
6.37956e-14
6.6469e-14
6.22168e-14
6.1414e-14
6.55162e-14
6.26422e-14
6.01095e-14
5.84542e-14
5.95673e-14
6.07047e-14
6.23704e-14
6.52775e-14
6.41432e-14
6.37211e-14
6.24468e-14
5.96794e-14
6.02504e-14
6.33509e-14
5.90048e-14
5.56888e-14
5.96291e-14
6.33118e-14
6.56347e-14
6.34544e-14
5.45996e-14
5.5609e-14
5.42104e-14
5.34419e-14
4.84029e-14
4.97702e-14
5.07173e-14
4.66382e-14
3.9842e-14
3.59737e-14
3.10696e-14
2.81033e-14
3.04125e-14
3.12827e-14
3.71068e-14
3.27787e-14
2.45699e-14
1.74258e-14
1.76154e-14
2.47808e-14
2.94709e-14
3.04618e-14
1.92976e-14
1.0054e-14
2.67663e-15
-1.3832e-15
1.32851e-13
1.30386e-13
1.30828e-13
1.26536e-13
1.22621e-13
1.22606e-13
1.19727e-13
1.26644e-13
1.25942e-13
1.08724e-13
1.06415e-13
1.04623e-13
1.06213e-13
9.95254e-14
9.16941e-14
9.58785e-14
8.69524e-14
9.4884e-14
8.4314e-14
7.27487e-14
6.75933e-14
7.05891e-14
7.17415e-14
7.06837e-14
7.4699e-14
8.11325e-14
7.85333e-14
7.3356e-14
6.9773e-14
6.80807e-14
6.80272e-14
6.47317e-14
5.55282e-14
4.90447e-14
5.77915e-14
5.63512e-14
5.44709e-14
5.51891e-14
5.5634e-14
5.81948e-14
6.09563e-14
4.84129e-14
4.89528e-14
5.02896e-14
6.04684e-14
6.03306e-14
6.11638e-14
5.84547e-14
5.05055e-14
5.28683e-14
5.94096e-14
6.21942e-14
6.05906e-14
5.84389e-14
6.18694e-14
6.23245e-14
5.68203e-14
5.89192e-14
5.81342e-14
6.2069e-14
6.68088e-14
6.70093e-14
6.56343e-14
6.42516e-14
5.49155e-14
4.80883e-14
5.82665e-14
6.11518e-14
6.02495e-14
5.82799e-14
6.07178e-14
6.26253e-14
6.24764e-14
6.07395e-14
5.92868e-14
5.38802e-14
5.46019e-14
5.7488e-14
4.8187e-14
4.5762e-14
5.02092e-14
4.43239e-14
3.81783e-14
3.8872e-14
3.64229e-14
2.82659e-14
2.77154e-14
2.29605e-14
3.19106e-14
3.34576e-14
2.36899e-14
1.72027e-14
1.45693e-14
2.18416e-14
2.66182e-14
2.6756e-14
1.95441e-14
9.85408e-15
-3.17868e-15
-3.54228e-15
1.29791e-13
1.27976e-13
1.27098e-13
1.27115e-13
1.23966e-13
1.19595e-13
1.21962e-13
1.26277e-13
1.23122e-13
1.13325e-13
1.064e-13
9.99357e-14
9.88477e-14
9.56583e-14
1.00007e-13
1.00718e-13
9.24114e-14
8.9323e-14
8.19958e-14
7.48479e-14
6.74641e-14
6.74279e-14
6.77855e-14
7.4952e-14
7.56472e-14
7.7116e-14
8.05721e-14
7.37143e-14
7.08502e-14
7.45802e-14
7.0903e-14
6.30081e-14
5.47432e-14
5.47923e-14
5.74984e-14
5.40534e-14
5.03078e-14
5.59935e-14
6.05685e-14
6.1169e-14
5.86525e-14
4.86801e-14
4.76611e-14
5.72955e-14
6.34984e-14
5.89103e-14
5.81411e-14
5.27825e-14
5.05536e-14
4.69966e-14
5.75296e-14
6.05875e-14
5.8701e-14
5.81647e-14
5.77879e-14
6.27201e-14
6.01631e-14
5.82117e-14
5.55365e-14
5.90175e-14
6.21619e-14
6.25508e-14
6.64646e-14
6.83073e-14
5.5845e-14
5.30117e-14
5.7116e-14
5.93167e-14
5.71092e-14
5.8388e-14
5.91372e-14
5.9973e-14
6.08385e-14
6.08356e-14
5.68257e-14
5.59019e-14
5.2561e-14
5.53434e-14
5.0364e-14
5.67036e-14
5.30131e-14
4.2931e-14
3.93872e-14
3.25786e-14
3.00737e-14
2.18267e-14
3.00873e-14
3.15632e-14
3.21172e-14
2.77992e-14
2.32998e-14
2.48014e-14
1.54876e-14
2.00039e-14
2.59117e-14
2.31427e-14
1.3112e-14
5.06165e-15
-7.15733e-15
-1.99061e-15
1.31589e-13
1.29585e-13
1.25476e-13
1.27005e-13
1.24478e-13
1.21574e-13
1.23236e-13
1.23425e-13
1.19204e-13
1.1297e-13
1.02374e-13
1.02528e-13
9.49318e-14
8.801e-14
9.85467e-14
9.73302e-14
9.84181e-14
9.66393e-14
8.53889e-14
7.85505e-14
7.1578e-14
7.13286e-14
6.86373e-14
6.84999e-14
7.63676e-14
7.27909e-14
7.52016e-14
7.80858e-14
7.52677e-14
7.92656e-14
7.45266e-14
6.44515e-14
5.49346e-14
5.26242e-14
5.30607e-14
4.99503e-14
5.57551e-14
5.5336e-14
6.65861e-14
5.6798e-14
5.27601e-14
5.4089e-14
5.18374e-14
5.64468e-14
6.62584e-14
6.31082e-14
5.32619e-14
4.82958e-14
5.30947e-14
4.98709e-14
5.5196e-14
5.60394e-14
5.50179e-14
6.10756e-14
5.81509e-14
5.93976e-14
5.94847e-14
5.62711e-14
5.38421e-14
6.22448e-14
6.31311e-14
7.31898e-14
6.5979e-14
5.83354e-14
5.03872e-14
4.59965e-14
5.75156e-14
5.84997e-14
5.81449e-14
5.86387e-14
5.65408e-14
6.08528e-14
6.28055e-14
6.93393e-14
5.40944e-14
4.55718e-14
4.48529e-14
5.57835e-14
5.25178e-14
5.26331e-14
4.98048e-14
4.24847e-14
4.25453e-14
3.62705e-14
2.99542e-14
3.01216e-14
2.52472e-14
2.5268e-14
2.87963e-14
2.15734e-14
1.96895e-14
2.84797e-14
1.59718e-14
2.02691e-14
2.49431e-14
2.21051e-14
8.65818e-15
1.35562e-15
-2.6189e-15
-3.65401e-15
1.30604e-13
1.28952e-13
1.21304e-13
1.26673e-13
1.24991e-13
1.23349e-13
1.20984e-13
1.21925e-13
1.1777e-13
1.06754e-13
9.66651e-14
9.81509e-14
1.07468e-13
9.46122e-14
1.00244e-13
9.91612e-14
9.55214e-14
1.01381e-13
8.73474e-14
8.50018e-14
7.20781e-14
6.46634e-14
6.22089e-14
6.38637e-14
7.26452e-14
7.48349e-14
7.94797e-14
8.37202e-14
7.88945e-14
7.72896e-14
7.61441e-14
6.66017e-14
6.14842e-14
5.99199e-14
5.29509e-14
4.90462e-14
5.575e-14
5.54812e-14
5.84486e-14
5.28795e-14
5.17729e-14
5.70238e-14
5.27487e-14
5.57947e-14
5.41617e-14
5.87735e-14
6.11495e-14
5.46184e-14
5.42896e-14
5.53373e-14
5.23664e-14
5.4842e-14
4.89433e-14
5.40574e-14
6.22228e-14
6.3773e-14
5.89455e-14
5.22761e-14
5.80916e-14
6.18987e-14
6.08008e-14
6.3998e-14
6.83815e-14
6.71552e-14
5.33054e-14
5.09884e-14
5.41703e-14
6.02848e-14
5.77759e-14
5.5662e-14
5.48409e-14
6.09685e-14
6.48503e-14
5.90604e-14
5.24204e-14
5.27757e-14
5.34913e-14
5.16755e-14
4.95589e-14
5.01234e-14
4.78477e-14
4.6252e-14
4.14111e-14
3.25419e-14
3.28365e-14
3.06634e-14
2.34334e-14
3.17097e-14
2.32199e-14
2.34419e-14
2.08043e-14
2.14748e-14
1.41062e-14
2.01756e-14
2.09206e-14
1.69255e-14
7.84469e-15
6.20857e-15
-1.65823e-15
-2.09225e-15
1.26646e-13
1.3243e-13
1.27323e-13
1.22714e-13
1.22732e-13
1.2194e-13
1.16468e-13
1.19928e-13
1.13932e-13
1.05875e-13
1.016e-13
1.02625e-13
1.01488e-13
1.00637e-13
1.02179e-13
9.2457e-14
8.86393e-14
8.88866e-14
9.44717e-14
8.51803e-14
8.05194e-14
7.44847e-14
7.73291e-14
6.37731e-14
6.0911e-14
6.08619e-14
6.98207e-14
8.46547e-14
8.10101e-14
8.11674e-14
8.18327e-14
6.83349e-14
5.40536e-14
4.95209e-14
5.44914e-14
4.67736e-14
5.53529e-14
6.27898e-14
6.04531e-14
6.2715e-14
5.45112e-14
5.41958e-14
5.17749e-14
5.3993e-14
6.1128e-14
6.00215e-14
6.0845e-14
5.63e-14
5.49172e-14
5.98907e-14
5.7805e-14
5.15034e-14
5.13743e-14
5.47089e-14
5.99118e-14
5.90127e-14
5.57327e-14
5.44744e-14
6.22429e-14
6.45088e-14
6.12774e-14
6.23955e-14
6.30252e-14
6.06652e-14
5.85437e-14
5.31565e-14
5.82304e-14
5.80702e-14
5.68061e-14
6.02498e-14
5.72499e-14
6.09622e-14
6.24445e-14
5.89107e-14
5.47889e-14
5.43849e-14
5.16586e-14
4.96034e-14
5.11305e-14
4.8296e-14
4.78469e-14
4.53194e-14
4.02157e-14
3.46785e-14
3.27261e-14
3.13196e-14
2.53643e-14
2.50233e-14
2.54459e-14
2.72433e-14
2.33436e-14
2.29285e-14
1.66523e-14
1.95747e-14
1.55547e-14
7.93893e-15
6.06453e-15
4.48761e-15
-4.3494e-16
8.40658e-16
1.27287e-13
1.24052e-13
1.2768e-13
1.26428e-13
1.2711e-13
1.22545e-13
1.13218e-13
1.10063e-13
1.07786e-13
1.11142e-13
1.10216e-13
1.07457e-13
1.03737e-13
1.04288e-13
1.00501e-13
1.00218e-13
9.27927e-14
9.74264e-14
9.16992e-14
8.61755e-14
7.66371e-14
6.40221e-14
6.01551e-14
6.34729e-14
6.68285e-14
7.54417e-14
8.08464e-14
7.9226e-14
7.88844e-14
8.01726e-14
8.28275e-14
6.81296e-14
6.24986e-14
5.05416e-14
4.7912e-14
5.04058e-14
5.62644e-14
6.35298e-14
6.76384e-14
5.61682e-14
5.47956e-14
5.70491e-14
5.43352e-14
4.98918e-14
5.63172e-14
6.63582e-14
6.88057e-14
5.89321e-14
5.54727e-14
6.3118e-14
6.36897e-14
5.01353e-14
5.06669e-14
4.99777e-14
5.69695e-14
5.51864e-14
5.48651e-14
5.75169e-14
5.77886e-14
6.11563e-14
6.04215e-14
6.85023e-14
6.80475e-14
6.04877e-14
5.12554e-14
5.44322e-14
5.66892e-14
5.72504e-14
6.11917e-14
5.80956e-14
5.92464e-14
5.87431e-14
5.7255e-14
5.13025e-14
5.42066e-14
5.01325e-14
5.22121e-14
5.22518e-14
5.2035e-14
5.31874e-14
5.38421e-14
4.82315e-14
3.84303e-14
3.22602e-14
3.21233e-14
3.26703e-14
2.78669e-14
2.81672e-14
2.51997e-14
2.5686e-14
2.72783e-14
2.10463e-14
1.67538e-14
2.30791e-14
1.33456e-14
4.65549e-15
-4.09512e-16
1.84735e-15
1.97086e-15
1.50622e-15
1.21943e-13
1.30384e-13
1.30421e-13
1.25288e-13
1.23713e-13
1.2533e-13
1.18564e-13
1.12568e-13
1.00413e-13
1.03542e-13
1.07127e-13
1.07547e-13
1.05437e-13
1.04377e-13
1.08188e-13
1.06605e-13
9.47653e-14
8.69237e-14
8.63076e-14
8.80561e-14
8.11732e-14
7.08258e-14
6.13733e-14
5.56391e-14
6.78911e-14
7.51199e-14
7.95013e-14
8.18055e-14
7.87269e-14
8.35785e-14
8.26363e-14
6.4668e-14
6.62687e-14
5.22176e-14
4.74372e-14
4.50893e-14
5.31278e-14
6.96508e-14
6.72653e-14
6.4443e-14
5.98887e-14
5.31603e-14
5.75875e-14
5.28894e-14
6.13342e-14
6.06781e-14
6.61639e-14
6.79392e-14
5.61167e-14
5.28854e-14
5.74567e-14
5.84785e-14
5.5645e-14
4.99706e-14
5.66328e-14
5.93205e-14
5.52938e-14
5.27627e-14
6.28347e-14
5.928e-14
5.49916e-14
6.32002e-14
6.2981e-14
6.31742e-14
5.08588e-14
5.35295e-14
5.19059e-14
5.74148e-14
5.92479e-14
5.92889e-14
5.94972e-14
5.96122e-14
6.17248e-14
5.10285e-14
4.9604e-14
4.78875e-14
5.36194e-14
6.00594e-14
5.1584e-14
4.89704e-14
5.25631e-14
5.04995e-14
3.77405e-14
3.06824e-14
3.66648e-14
3.57204e-14
2.68358e-14
2.21556e-14
2.59562e-14
3.23831e-14
2.67001e-14
1.79648e-14
1.45087e-14
1.92858e-14
1.41044e-14
9.24945e-15
-1.58706e-15
-1.52313e-15
-7.56705e-16
-3.21205e-16
1.27498e-13
1.29553e-13
1.27181e-13
1.20204e-13
1.24261e-13
1.1562e-13
1.08759e-13
1.08093e-13
1.18646e-13
1.18386e-13
1.16065e-13
1.06581e-13
9.64649e-14
1.0297e-13
1.07721e-13
1.06038e-13
9.9004e-14
9.95371e-14
9.30194e-14
8.65745e-14
7.29215e-14
6.80257e-14
6.66185e-14
6.27297e-14
6.56634e-14
7.36142e-14
8.27505e-14
8.26816e-14
8.11877e-14
7.57892e-14
7.96823e-14
6.49056e-14
6.3942e-14
5.13356e-14
5.3838e-14
4.7412e-14
5.92269e-14
7.29735e-14
6.9342e-14
6.36081e-14
5.68966e-14
5.29628e-14
5.55364e-14
6.03155e-14
6.54255e-14
6.20139e-14
6.32831e-14
6.38842e-14
6.27522e-14
5.68409e-14
5.5941e-14
5.70905e-14
5.8642e-14
5.39e-14
5.14915e-14
5.2564e-14
5.44482e-14
5.88135e-14
6.18853e-14
5.95272e-14
5.57109e-14
5.89156e-14
5.54196e-14
5.73877e-14
6.24187e-14
5.5811e-14
5.08708e-14
5.48274e-14
5.58636e-14
6.40771e-14
6.38315e-14
5.48145e-14
5.17052e-14
4.56309e-14
5.26789e-14
5.22935e-14
5.31156e-14
5.90293e-14
5.18693e-14
5.93155e-14
5.74169e-14
4.46837e-14
4.19894e-14
3.31701e-14
3.70779e-14
3.18235e-14
2.75422e-14
1.70834e-14
2.26581e-14
2.8663e-14
2.61551e-14
1.97815e-14
2.24152e-14
2.2021e-14
9.59456e-15
1.65507e-15
3.31904e-16
-3.65306e-15
8.56562e-16
-2.25938e-15
1.28066e-13
1.30354e-13
1.23346e-13
1.22247e-13
1.29872e-13
1.21659e-13
1.13601e-13
1.10842e-13
1.09809e-13
1.16845e-13
1.16907e-13
1.10502e-13
1.07255e-13
1.04852e-13
1.06038e-13
1.06905e-13
9.80552e-14
9.43857e-14
9.3083e-14
8.13283e-14
7.29258e-14
6.57059e-14
6.58852e-14
7.05109e-14
7.07459e-14
7.5861e-14
7.64434e-14
7.81418e-14
8.04229e-14
7.97151e-14
7.83066e-14
7.36115e-14
6.69716e-14
5.05345e-14
4.58928e-14
4.70854e-14
6.02935e-14
6.36658e-14
6.89629e-14
7.36418e-14
5.87989e-14
5.62892e-14
5.51515e-14
6.02731e-14
6.07285e-14
6.68135e-14
6.57076e-14
6.10952e-14
6.42475e-14
5.93006e-14
5.61398e-14
5.97239e-14
5.47337e-14
5.67441e-14
5.36274e-14
5.40017e-14
5.45567e-14
5.18639e-14
5.66803e-14
6.02805e-14
5.87816e-14
5.42844e-14
5.04294e-14
5.67296e-14
5.67714e-14
5.7002e-14
5.72856e-14
5.5795e-14
5.62345e-14
5.44267e-14
5.59275e-14
5.52396e-14
5.2421e-14
4.59251e-14
5.39678e-14
5.54142e-14
6.06796e-14
6.36194e-14
5.58217e-14
5.75248e-14
5.04191e-14
4.47064e-14
4.2777e-14
4.22952e-14
3.87629e-14
2.49728e-14
2.48327e-14
1.60228e-14
2.35124e-14
2.79621e-14
2.29851e-14
1.81152e-14
1.7349e-14
1.83401e-14
7.7153e-15
6.88957e-15
3.81271e-16
1.31862e-15
-3.78231e-15
-5.94731e-16
1.23519e-13
1.28345e-13
1.24051e-13
1.24219e-13
1.24303e-13
1.16725e-13
1.18479e-13
1.19912e-13
1.21562e-13
1.2484e-13
1.14511e-13
1.15001e-13
1.08878e-13
1.06878e-13
1.02055e-13
1.02413e-13
9.83786e-14
9.84566e-14
9.45653e-14
8.48562e-14
7.1787e-14
6.52854e-14
6.72608e-14
7.47187e-14
6.79443e-14
7.06683e-14
8.06915e-14
7.96826e-14
7.93895e-14
7.75617e-14
6.95884e-14
7.01821e-14
7.1624e-14
6.10492e-14
4.72528e-14
5.63559e-14
6.67356e-14
6.61891e-14
6.31773e-14
6.40881e-14
5.71089e-14
5.78191e-14
6.05907e-14
5.93156e-14
5.55093e-14
6.46421e-14
6.91057e-14
6.20664e-14
6.82993e-14
6.35984e-14
5.48951e-14
5.90057e-14
5.3998e-14
5.52407e-14
5.67349e-14
5.57879e-14
5.49677e-14
5.23381e-14
5.13488e-14
5.81797e-14
6.38052e-14
5.78996e-14
4.84781e-14
4.70927e-14
5.11266e-14
5.74618e-14
5.68068e-14
5.63086e-14
5.60296e-14
5.57303e-14
4.77781e-14
5.95895e-14
5.40968e-14
4.69e-14
5.07324e-14
5.67904e-14
6.05467e-14
6.07723e-14
5.33647e-14
5.30318e-14
5.73564e-14
5.17464e-14
3.90623e-14
3.9119e-14
4.31133e-14
3.08017e-14
2.08323e-14
1.76537e-14
2.71529e-14
2.61526e-14
2.62563e-14
1.81966e-14
1.52087e-14
1.37104e-14
1.16796e-14
4.96167e-15
-4.75469e-15
-8.49088e-16
-3.80673e-15
-1.71089e-15
1.31835e-13
1.26823e-13
1.25098e-13
1.23976e-13
1.19777e-13
1.16281e-13
1.19847e-13
1.20696e-13
1.21504e-13
1.2504e-13
1.14035e-13
1.15053e-13
1.12728e-13
1.10356e-13
1.02299e-13
1.00756e-13
9.06554e-14
9.26483e-14
9.44663e-14
8.56502e-14
7.37482e-14
7.0101e-14
6.90707e-14
7.28705e-14
7.15915e-14
7.29568e-14
7.96129e-14
8.11813e-14
7.48681e-14
7.87384e-14
7.45248e-14
6.85818e-14
7.3115e-14
5.93567e-14
5.5793e-14
5.34768e-14
6.30631e-14
6.7457e-14
6.43648e-14
5.96926e-14
5.79179e-14
6.31222e-14
6.05754e-14
5.94148e-14
6.1995e-14
6.68664e-14
6.50683e-14
6.02666e-14
7.26236e-14
6.4985e-14
6.21998e-14
5.99615e-14
5.0551e-14
5.32234e-14
5.37186e-14
5.11684e-14
4.87497e-14
5.1985e-14
5.11775e-14
5.82489e-14
6.04319e-14
5.94043e-14
5.23666e-14
4.84354e-14
4.91269e-14
5.28709e-14
5.59971e-14
5.62186e-14
5.77451e-14
5.28378e-14
4.87996e-14
5.48025e-14
5.17426e-14
4.83401e-14
5.44281e-14
6.07766e-14
5.32953e-14
5.55693e-14
6.05161e-14
6.0831e-14
5.33014e-14
4.81584e-14
4.17165e-14
3.90139e-14
4.28622e-14
3.178e-14
2.23415e-14
1.93753e-14
2.70845e-14
2.5962e-14
2.46829e-14
1.92407e-14
1.63822e-14
1.32266e-14
6.98866e-15
5.28383e-15
-1.13478e-16
-4.61856e-15
-3.20587e-15
3.3074e-16
1.35132e-13
1.24485e-13
1.21427e-13
1.24204e-13
1.18417e-13
1.17195e-13
1.19438e-13
1.24385e-13
1.26794e-13
1.24188e-13
1.16206e-13
1.1613e-13
1.15438e-13
1.12771e-13
1.01426e-13
9.68506e-14
9.93254e-14
9.58554e-14
8.7357e-14
8.33233e-14
7.14618e-14
6.68168e-14
7.133e-14
7.3283e-14
6.95731e-14
7.4594e-14
8.35892e-14
7.79741e-14
7.89187e-14
7.55606e-14
7.66607e-14
7.73075e-14
7.41253e-14
5.91449e-14
5.41882e-14
5.31064e-14
5.93069e-14
6.63425e-14
6.2543e-14
5.85187e-14
6.37391e-14
6.32184e-14
6.29266e-14
5.88695e-14
6.19913e-14
6.1343e-14
6.43412e-14
6.66618e-14
7.22807e-14
6.15097e-14
5.77769e-14
5.9409e-14
5.30924e-14
5.15025e-14
5.59232e-14
5.59498e-14
4.97805e-14
5.15566e-14
5.57365e-14
6.16185e-14
6.05761e-14
5.97785e-14
4.44908e-14
4.20083e-14
5.22747e-14
5.54242e-14
5.62689e-14
5.36968e-14
5.51619e-14
5.42947e-14
5.39268e-14
4.91498e-14
5.07406e-14
4.81787e-14
5.3613e-14
5.74084e-14
5.20935e-14
6.45408e-14
6.10992e-14
5.74112e-14
4.89669e-14
4.47633e-14
4.12958e-14
4.0034e-14
3.67928e-14
3.47937e-14
2.88459e-14
2.59698e-14
2.65984e-14
2.91875e-14
3.02563e-14
2.18276e-14
1.3058e-14
9.63952e-15
3.69468e-15
1.03431e-15
-1.2298e-15
-6.38693e-16
4.7084e-16
7.81889e-16
1.32599e-13
1.24281e-13
1.24366e-13
1.23113e-13
1.21228e-13
1.19006e-13
1.2212e-13
1.21939e-13
1.29705e-13
1.27407e-13
1.20521e-13
1.15397e-13
1.13612e-13
1.02811e-13
1.01657e-13
9.72397e-14
9.15087e-14
9.2299e-14
8.9955e-14
8.56948e-14
7.80711e-14
6.96469e-14
6.8932e-14
7.44175e-14
7.99879e-14
7.2922e-14
7.40378e-14
7.4746e-14
7.20292e-14
7.66796e-14
7.98086e-14
8.70112e-14
7.80244e-14
6.61298e-14
5.27672e-14
5.20543e-14
5.92612e-14
6.43759e-14
6.24613e-14
6.08097e-14
6.69524e-14
6.16667e-14
6.22325e-14
6.04307e-14
6.40891e-14
6.19623e-14
7.01901e-14
7.01047e-14
6.95874e-14
5.91138e-14
5.71691e-14
6.0317e-14
5.49443e-14
4.89115e-14
5.60465e-14
5.19721e-14
4.66012e-14
5.37576e-14
5.65808e-14
6.50051e-14
7.07183e-14
5.31612e-14
4.587e-14
4.8413e-14
5.20029e-14
5.50651e-14
5.26839e-14
5.27121e-14
5.02852e-14
5.00878e-14
4.69684e-14
5.75179e-14
5.43976e-14
5.30592e-14
5.37955e-14
4.53229e-14
5.02529e-14
6.54783e-14
6.03085e-14
5.86522e-14
5.11113e-14
4.96335e-14
4.27173e-14
3.43992e-14
3.84441e-14
3.60196e-14
3.17404e-14
2.98696e-14
3.16612e-14
2.67821e-14
2.70603e-14
2.27643e-14
1.4736e-14
4.9421e-15
7.75224e-15
4.77813e-15
-1.0005e-15
-6.94702e-15
-5.83967e-15
-1.62182e-15
1.26843e-13
1.26856e-13
1.26774e-13
1.2454e-13
1.17303e-13
1.18663e-13
1.21692e-13
1.24728e-13
1.28645e-13
1.24213e-13
1.23752e-13
1.23536e-13
1.118e-13
1.06416e-13
1.00721e-13
9.57319e-14
9.76148e-14
9.51543e-14
9.38804e-14
7.9122e-14
7.09028e-14
7.01092e-14
7.21896e-14
7.73253e-14
7.50617e-14
7.03164e-14
7.22563e-14
7.49704e-14
7.94741e-14
8.29124e-14
8.65215e-14
8.66996e-14
7.26253e-14
6.55684e-14
5.72859e-14
5.50266e-14
6.06275e-14
6.11044e-14
6.36265e-14
6.54071e-14
6.73433e-14
5.70133e-14
5.83818e-14
6.22251e-14
6.81658e-14
6.09991e-14
7.02741e-14
6.25418e-14
6.79266e-14
6.38418e-14
5.59122e-14
6.20701e-14
5.84606e-14
6.10306e-14
5.54534e-14
4.20869e-14
3.67394e-14
5.40751e-14
6.23632e-14
6.40069e-14
6.73803e-14
5.8098e-14
4.80829e-14
5.30901e-14
4.93582e-14
5.01515e-14
5.03601e-14
4.60781e-14
5.51801e-14
5.30253e-14
5.67562e-14
5.36694e-14
4.68022e-14
4.56456e-14
5.03281e-14
5.28988e-14
4.7668e-14
5.71143e-14
6.15996e-14
6.28079e-14
5.60194e-14
4.27218e-14
3.95593e-14
3.19918e-14
3.92564e-14
3.45719e-14
3.35354e-14
3.19892e-14
3.36079e-14
2.79861e-14
3.11919e-14
2.31088e-14
1.0903e-14
9.25427e-15
1.01603e-14
7.3813e-15
-1.55604e-15
-2.98396e-15
-5.40142e-15
-3.48798e-15
1.28824e-13
1.21653e-13
1.20412e-13
1.14774e-13
1.19229e-13
1.20461e-13
1.32904e-13
1.34925e-13
1.27727e-13
1.21049e-13
1.1649e-13
1.156e-13
1.12532e-13
1.03811e-13
1.07155e-13
9.91741e-14
9.77255e-14
8.8727e-14
8.69144e-14
8.45261e-14
7.86928e-14
7.33282e-14
7.65155e-14
7.82494e-14
7.55829e-14
7.06622e-14
7.4133e-14
7.78847e-14
7.89513e-14
8.42302e-14
8.66475e-14
8.18361e-14
7.85108e-14
7.03094e-14
6.39937e-14
5.44849e-14
5.93333e-14
5.95952e-14
6.20726e-14
6.96363e-14
6.35958e-14
5.83247e-14
6.21221e-14
6.5787e-14
6.61729e-14
6.26946e-14
6.48058e-14
6.87787e-14
6.82927e-14
6.37857e-14
5.45401e-14
6.38533e-14
5.90213e-14
5.04183e-14
5.13954e-14
5.09007e-14
5.0187e-14
5.45147e-14
5.88848e-14
5.0891e-14
6.37389e-14
6.14376e-14
5.51246e-14
5.30079e-14
5.11982e-14
5.24891e-14
5.29174e-14
4.48077e-14
5.21338e-14
5.90163e-14
5.54701e-14
5.32975e-14
4.75725e-14
4.01419e-14
4.76485e-14
5.40389e-14
5.18176e-14
5.45617e-14
5.78e-14
5.6527e-14
5.30392e-14
4.08793e-14
3.4377e-14
3.64002e-14
4.00962e-14
3.82881e-14
3.92969e-14
2.93136e-14
3.12881e-14
3.4924e-14
3.03695e-14
2.16394e-14
1.3559e-14
1.12821e-14
1.06678e-14
8.833e-15
-1.18896e-15
-2.70137e-15
-3.6337e-15
-3.47719e-16
1.26957e-13
1.22849e-13
1.17488e-13
1.15929e-13
1.2497e-13
1.25021e-13
1.28791e-13
1.24219e-13
1.27791e-13
1.29478e-13
1.20061e-13
1.1124e-13
1.06761e-13
1.08029e-13
1.00451e-13
9.8603e-14
9.50979e-14
9.10881e-14
9.30244e-14
9.08877e-14
8.58023e-14
7.83235e-14
6.89991e-14
7.48232e-14
7.64418e-14
7.94352e-14
7.89354e-14
7.60761e-14
7.95412e-14
8.61456e-14
8.70176e-14
8.05402e-14
8.11633e-14
7.40171e-14
6.84749e-14
5.86783e-14
5.87947e-14
6.21696e-14
6.73655e-14
6.81179e-14
5.91785e-14
5.75729e-14
6.401e-14
6.58964e-14
6.93976e-14
6.42013e-14
6.80827e-14
6.75088e-14
6.7056e-14