/*--------------------------------*- C++ -*----------------------------------*\
| =========                 |                                                 |
| \\      /  F ield         | OpenFOAM: The Open Source CFD Toolbox           |
|  \\    /   O peration     | Version:  v2012                                 |
|   \\  /    A nd           | Website:  www.openfoam.com                      |
|    \\/     M anipulation  |                                                 |
\*---------------------------------------------------------------------------*/
FoamFile
{
    version     2.0;
    format      ascii;
    class       volScalarField;
    location    "0";
    object      pRec;
}
// * * * * * * * * * * * * * * * * * * * * * * * * * * * * * * * * * * * * * //

dimensions      [0 2 -2 0 0 0 0];


internalField   nonuniform List<scalar> 
4000
(
-6.9508e-13
-6.89568e-13
-6.9078e-13
-6.9381e-13
-6.91749e-13
-6.92066e-13
-6.9078e-13
-6.85881e-13
-6.75824e-13
-6.71976e-13
-6.73299e-13
-6.67837e-13
-6.5688e-13
-6.43056e-13
-6.29632e-13
-6.23156e-13
-6.18455e-13
-6.15942e-13
-6.08771e-13
-5.9517e-13
-5.8425e-13
-5.77177e-13
-5.71809e-13
-5.64569e-13
-5.5417e-13
-5.43498e-13
-5.41381e-13
-5.35767e-13
-5.29261e-13
-5.18419e-13
-5.02415e-13
-4.95515e-13
-4.93377e-13
-4.91328e-13
-4.86212e-13
-4.83199e-13
-4.74004e-13
-4.55693e-13
-4.3824e-13
-4.34592e-13
-4.35057e-13
-4.33031e-13
-4.33117e-13
-4.26693e-13
-4.15299e-13
-4.06353e-13
-3.97541e-13
-3.88231e-13
-3.78769e-13
-3.70734e-13
-3.61462e-13
-3.53296e-13
-3.45777e-13
-3.3667e-13
-3.28331e-13
-3.15677e-13
-3.08789e-13
-3.0588e-13
-3.03264e-13
-3.00129e-13
-2.91818e-13
-2.84478e-13
-2.74458e-13
-2.62593e-13
-2.5449e-13
-2.47071e-13
-2.42759e-13
-2.34815e-13
-2.24304e-13
-2.16853e-13
-2.09524e-13
-2.02758e-13
-1.89893e-13
-1.82903e-13
-1.81844e-13
-1.77533e-13
-1.73786e-13
-1.67511e-13
-1.58642e-13
-1.45691e-13
-1.33031e-13
-1.27459e-13
-1.18982e-13
-1.14642e-13
-1.10316e-13
-1.04557e-13
-9.53766e-14
-8.74944e-14
-8.38536e-14
-7.98848e-14
-7.38376e-14
-6.73666e-14
-6.02463e-14
-5.43015e-14
-4.54261e-14
-3.63612e-14
-2.81544e-14
-1.9926e-14
-1.12972e-14
-2.80903e-15
-6.91697e-13
-6.90496e-13
-6.93641e-13
-6.93561e-13
-6.94079e-13
-6.90793e-13
-6.88045e-13
-6.85684e-13
-6.80371e-13
-6.75444e-13
-6.69757e-13
-6.64403e-13
-6.55091e-13
-6.43703e-13
-6.32679e-13
-6.26315e-13
-6.21468e-13
-6.14535e-13
-6.05702e-13
-5.98368e-13
-5.87822e-13
-5.75957e-13
-5.68022e-13
-5.6141e-13
-5.52076e-13
-5.45946e-13
-5.42605e-13
-5.36478e-13
-5.2812e-13
-5.14747e-13
-5.05495e-13
-4.98812e-13
-4.92833e-13
-4.88214e-13
-4.83653e-13
-4.79572e-13
-4.72086e-13
-4.59302e-13
-4.45142e-13
-4.38569e-13
-4.34876e-13
-4.3237e-13
-4.29923e-13
-4.24778e-13
-4.1697e-13
-4.06539e-13
-3.96114e-13
-3.88068e-13
-3.7902e-13
-3.68317e-13
-3.60413e-13
-3.52444e-13
-3.45763e-13
-3.37794e-13
-3.2938e-13
-3.18369e-13
-3.08722e-13
-3.04174e-13
-3.01589e-13
-2.9861e-13
-2.93969e-13
-2.84505e-13
-2.75534e-13
-2.64337e-13
-2.56135e-13
-2.46878e-13
-2.40382e-13
-2.3396e-13
-2.26365e-13
-2.18249e-13
-2.09867e-13
-2.02714e-13
-1.94748e-13
-1.8594e-13
-1.81605e-13
-1.74228e-13
-1.72427e-13
-1.65345e-13
-1.55641e-13
-1.43935e-13
-1.34167e-13
-1.28868e-13
-1.22717e-13
-1.17033e-13
-1.08323e-13
-1.02291e-13
-9.3535e-14
-8.55715e-14
-8.22317e-14
-7.84137e-14
-7.53643e-14
-6.98728e-14
-6.39303e-14
-5.2492e-14
-4.38792e-14
-3.69973e-14
-2.7732e-14
-2.01254e-14
-1.29556e-14
-4.58333e-15
-6.91244e-13
-6.90322e-13
-6.92509e-13
-6.95677e-13
-6.96631e-13
-6.92164e-13
-6.87137e-13
-6.84617e-13
-6.78691e-13
-6.75142e-13
-6.70063e-13
-6.63692e-13
-6.54739e-13
-6.44976e-13
-6.34507e-13
-6.26852e-13
-6.20959e-13
-6.1399e-13
-6.0618e-13
-5.9717e-13
-5.86619e-13
-5.77766e-13
-5.68975e-13
-5.62213e-13
-5.53846e-13
-5.48335e-13
-5.43581e-13
-5.35484e-13
-5.25905e-13
-5.12897e-13
-5.06086e-13
-4.99049e-13
-4.92762e-13
-4.89679e-13
-4.85511e-13
-4.80905e-13
-4.7087e-13
-4.60819e-13
-4.49811e-13
-4.38806e-13
-4.34055e-13
-4.29129e-13
-4.29323e-13
-4.25381e-13
-4.17996e-13
-4.06805e-13
-3.94943e-13
-3.85411e-13
-3.79549e-13
-3.74094e-13
-3.62556e-13
-3.52748e-13
-3.43454e-13
-3.34797e-13
-3.27699e-13
-3.1943e-13
-3.08913e-13
-3.06263e-13
-3.06218e-13
-2.99864e-13
-2.91692e-13
-2.79714e-13
-2.71393e-13
-2.6563e-13
-2.58861e-13
-2.5049e-13
-2.43123e-13
-2.32846e-13
-2.25074e-13
-2.15304e-13
-2.06968e-13
-2.00018e-13
-1.91314e-13
-1.85559e-13
-1.81091e-13
-1.76487e-13
-1.713e-13
-1.654e-13
-1.55091e-13
-1.4464e-13
-1.39362e-13
-1.30977e-13
-1.18938e-13
-1.13386e-13
-1.07982e-13
-1.04562e-13
-9.82596e-14
-8.8799e-14
-8.21175e-14
-7.64439e-14
-7.29588e-14
-6.91972e-14
-6.21115e-14
-5.36444e-14
-4.32319e-14
-3.44002e-14
-2.83551e-14
-2.11365e-14
-1.64617e-14
-5.22375e-15
-6.92274e-13
-6.93473e-13
-6.9423e-13
-6.90562e-13
-6.94933e-13
-6.89207e-13
-6.87182e-13
-6.84809e-13
-6.82781e-13
-6.77393e-13
-6.68328e-13
-6.591e-13
-6.51294e-13
-6.45627e-13
-6.43136e-13
-6.3308e-13
-6.19081e-13
-6.10649e-13
-6.05243e-13
-5.96083e-13
-5.87221e-13
-5.79662e-13
-5.69767e-13
-5.56403e-13
-5.49283e-13
-5.46053e-13
-5.42841e-13
-5.37395e-13
-5.25742e-13
-5.16898e-13
-5.10008e-13
-5.02088e-13
-4.93485e-13
-4.87606e-13
-4.81215e-13
-4.80301e-13
-4.71136e-13
-4.59434e-13
-4.50957e-13
-4.41466e-13
-4.37232e-13
-4.34165e-13
-4.29145e-13
-4.2261e-13
-4.13095e-13
-4.03071e-13
-3.94663e-13
-3.89246e-13
-3.80931e-13
-3.67733e-13
-3.58038e-13
-3.51723e-13
-3.45502e-13
-3.3886e-13
-3.27106e-13
-3.20312e-13
-3.11073e-13
-3.05956e-13
-3.05138e-13
-2.98668e-13
-2.9007e-13
-2.81026e-13
-2.75464e-13
-2.6803e-13
-2.58273e-13
-2.49635e-13
-2.41969e-13
-2.32861e-13
-2.25755e-13
-2.17651e-13
-2.10708e-13
-2.03319e-13
-1.94328e-13
-1.86872e-13
-1.80593e-13
-1.75122e-13
-1.71612e-13
-1.64662e-13
-1.54952e-13
-1.45368e-13
-1.38144e-13
-1.318e-13
-1.21054e-13
-1.11663e-13
-1.07196e-13
-1.02335e-13
-9.59113e-14
-8.83254e-14
-8.10062e-14
-7.69782e-14
-7.49693e-14
-6.95542e-14
-6.38725e-14
-5.22391e-14
-4.32639e-14
-3.69144e-14
-2.99161e-14
-2.03416e-14
-1.32962e-14
-4.83586e-15
-6.93315e-13
-6.97664e-13
-6.94239e-13
-6.89715e-13
-6.86289e-13
-6.8968e-13
-6.89861e-13
-6.88245e-13
-6.81952e-13
-6.74465e-13
-6.66046e-13
-6.60744e-13
-6.51088e-13
-6.43464e-13
-6.41964e-13
-6.36185e-13
-6.25701e-13
-6.15255e-13
-6.029e-13
-5.90959e-13
-5.85994e-13
-5.78678e-13
-5.64628e-13
-5.55319e-13
-5.52504e-13
-5.49048e-13
-5.44402e-13
-5.36173e-13
-5.27973e-13
-5.1915e-13
-5.10576e-13
-5.03304e-13
-4.94351e-13
-4.88112e-13
-4.82194e-13
-4.79499e-13
-4.70172e-13
-4.59396e-13
-4.48368e-13
-4.40898e-13
-4.37293e-13
-4.36256e-13
-4.29376e-13
-4.21105e-13
-4.10795e-13
-4.00885e-13
-3.9328e-13
-3.87586e-13
-3.79726e-13
-3.71351e-13
-3.61568e-13
-3.54511e-13
-3.46399e-13
-3.38164e-13
-3.27717e-13
-3.18931e-13
-3.12369e-13
-3.07438e-13
-3.04065e-13
-2.97162e-13
-2.89869e-13
-2.81524e-13
-2.73176e-13
-2.67089e-13
-2.61558e-13
-2.54831e-13
-2.46811e-13
-2.34241e-13
-2.25418e-13
-2.15245e-13
-2.07098e-13
-2.00578e-13
-1.94074e-13
-1.87037e-13
-1.77322e-13
-1.72121e-13
-1.69993e-13
-1.64373e-13
-1.5726e-13
-1.47299e-13
-1.39541e-13
-1.33913e-13
-1.21286e-13
-1.10967e-13
-1.03978e-13
-9.91193e-14
-9.55424e-14
-9.10687e-14
-8.32756e-14
-7.84491e-14
-7.38974e-14
-6.92093e-14
-6.17257e-14
-5.59387e-14
-4.78548e-14
-3.73522e-14
-2.9977e-14
-2.26453e-14
-1.28829e-14
-2.50991e-15
-6.89949e-13
-6.9925e-13
-6.9586e-13
-6.86895e-13
-6.90713e-13
-6.94342e-13
-6.92573e-13
-6.88395e-13
-6.80123e-13
-6.67077e-13
-6.63448e-13
-6.59543e-13
-6.55553e-13
-6.45422e-13
-6.3883e-13
-6.37981e-13
-6.27472e-13
-6.17697e-13
-6.07482e-13
-5.94188e-13
-5.83712e-13
-5.72389e-13
-5.55542e-13
-5.52092e-13
-5.53022e-13
-5.5231e-13
-5.44369e-13
-5.35054e-13
-5.26955e-13
-5.22158e-13
-5.12129e-13
-5.02688e-13
-4.94219e-13
-4.91087e-13
-4.8765e-13
-4.78317e-13
-4.67937e-13
-4.59139e-13
-4.48522e-13
-4.43285e-13
-4.399e-13
-4.36742e-13
-4.278e-13
-4.21541e-13
-4.11027e-13
-3.98987e-13
-3.89451e-13
-3.83911e-13
-3.7982e-13
-3.71203e-13
-3.63724e-13
-3.53892e-13
-3.44846e-13
-3.35894e-13
-3.26311e-13
-3.20569e-13
-3.14952e-13
-3.08706e-13
-3.0245e-13
-2.97967e-13
-2.91922e-13
-2.82419e-13
-2.74162e-13
-2.67084e-13
-2.57911e-13
-2.53003e-13
-2.47576e-13
-2.35401e-13
-2.26425e-13
-2.1825e-13
-2.08579e-13
-2.00882e-13
-1.95463e-13
-1.88902e-13
-1.79264e-13
-1.74592e-13
-1.68782e-13
-1.61235e-13
-1.56189e-13
-1.49636e-13
-1.42173e-13
-1.33056e-13
-1.19087e-13
-1.08768e-13
-1.04697e-13
-1.01478e-13
-9.76396e-14
-8.90255e-14
-8.23911e-14
-7.80264e-14
-7.34829e-14
-6.94121e-14
-6.00316e-14
-5.51933e-14
-4.80134e-14
-4.06674e-14
-3.01603e-14
-2.1502e-14
-1.09628e-14
-1.37914e-15
-6.95089e-13
-6.95942e-13
-6.95418e-13
-6.91936e-13
-6.89431e-13
-6.92893e-13
-6.92091e-13
-6.86074e-13
-6.782e-13
-6.67579e-13
-6.59537e-13
-6.58674e-13
-6.57578e-13
-6.46756e-13
-6.40095e-13
-6.35148e-13
-6.31291e-13
-6.22933e-13
-6.04709e-13
-5.87112e-13
-5.71396e-13
-5.67538e-13
-5.65618e-13
-5.63182e-13
-5.58251e-13
-5.51805e-13
-5.41193e-13
-5.32624e-13
-5.28635e-13
-5.23972e-13
-5.15008e-13
-5.01719e-13
-4.95303e-13
-4.87092e-13
-4.81928e-13
-4.75888e-13
-4.69707e-13
-4.64394e-13
-4.53688e-13
-4.41983e-13
-4.35027e-13
-4.30515e-13
-4.25735e-13
-4.21542e-13
-4.14578e-13
-4.04051e-13
-3.92545e-13
-3.83092e-13
-3.76625e-13
-3.70827e-13
-3.63323e-13
-3.5714e-13
-3.47979e-13
-3.3623e-13
-3.27787e-13
-3.21582e-13
-3.14679e-13
-3.033e-13
-2.98576e-13
-2.97277e-13
-2.96137e-13
-2.87945e-13
-2.76598e-13
-2.64589e-13
-2.55031e-13
-2.49643e-13
-2.42159e-13
-2.31127e-13
-2.22033e-13
-2.17526e-13
-2.16692e-13
-2.07074e-13
-1.9678e-13
-1.91736e-13
-1.82089e-13
-1.72714e-13
-1.64907e-13
-1.57593e-13
-1.52058e-13
-1.47818e-13
-1.41363e-13
-1.3228e-13
-1.24044e-13
-1.14982e-13
-1.08459e-13
-9.81258e-14
-9.46911e-14
-9.08548e-14
-8.29039e-14
-7.9701e-14
-7.30025e-14
-6.48921e-14
-6.0344e-14
-5.4714e-14
-4.82506e-14
-3.82733e-14
-2.99824e-14
-2.01182e-14
-1.10606e-14
-3.56776e-15
-6.94447e-13
-6.94112e-13
-6.92063e-13
-6.92835e-13
-6.9542e-13
-6.95085e-13
-6.91919e-13
-6.85306e-13
-6.76628e-13
-6.68978e-13
-6.63106e-13
-6.57504e-13
-6.5393e-13
-6.44713e-13
-6.40712e-13
-6.35021e-13
-6.31348e-13
-6.22253e-13
-5.99861e-13
-5.88409e-13
-5.83997e-13
-5.77039e-13
-5.66635e-13
-5.57108e-13
-5.54117e-13
-5.47774e-13
-5.36869e-13
-5.30724e-13
-5.25967e-13
-5.21388e-13
-5.14879e-13
-5.07112e-13
-5.00988e-13
-4.9446e-13
-4.82911e-13
-4.74879e-13
-4.68337e-13
-4.59518e-13
-4.51432e-13
-4.42148e-13
-4.36344e-13
-4.34152e-13
-4.27055e-13
-4.2512e-13
-4.19049e-13
-4.04282e-13
-3.88922e-13
-3.75156e-13
-3.73768e-13
-3.72669e-13
-3.68376e-13
-3.60577e-13
-3.47725e-13
-3.36319e-13
-3.25301e-13
-3.18842e-13
-3.15092e-13
-3.09296e-13
-3.0065e-13
-2.94419e-13
-2.91775e-13
-2.84884e-13
-2.77491e-13
-2.68951e-13
-2.60538e-13
-2.51744e-13
-2.42865e-13
-2.32872e-13
-2.26904e-13
-2.19908e-13
-2.12536e-13
-2.07048e-13
-1.95771e-13
-1.83499e-13
-1.76303e-13
-1.73312e-13
-1.68724e-13
-1.6136e-13
-1.56842e-13
-1.50873e-13
-1.41999e-13
-1.32466e-13
-1.20485e-13
-1.09764e-13
-1.01458e-13
-9.7701e-14
-9.57087e-14
-9.23812e-14
-8.50406e-14
-7.82283e-14
-7.06386e-14
-6.52382e-14
-6.07237e-14
-5.59179e-14
-4.66924e-14
-3.67134e-14
-2.99908e-14
-2.15506e-14
-1.23817e-14
-2.01466e-15
-6.96741e-13
-6.9861e-13
-6.93556e-13
-6.87247e-13
-6.91277e-13
-6.94133e-13
-6.93923e-13
-6.86448e-13
-6.73935e-13
-6.70612e-13
-6.64052e-13
-6.54222e-13
-6.48263e-13
-6.44591e-13
-6.41707e-13
-6.375e-13
-6.30968e-13
-6.19976e-13
-6.03478e-13
-5.90546e-13
-5.82835e-13
-5.74671e-13
-5.70628e-13
-5.63355e-13
-5.54024e-13
-5.44251e-13
-5.35973e-13
-5.30861e-13
-5.29116e-13
-5.22382e-13
-5.15705e-13
-5.08208e-13
-4.97884e-13
-4.87646e-13
-4.8334e-13
-4.75979e-13
-4.67264e-13
-4.58417e-13
-4.5354e-13
-4.48093e-13
-4.42576e-13
-4.35476e-13
-4.23928e-13
-4.15726e-13
-4.12017e-13
-4.04782e-13
-3.94136e-13
-3.83802e-13
-3.77144e-13
-3.70066e-13
-3.63217e-13
-3.56156e-13
-3.46329e-13
-3.3755e-13
-3.29483e-13
-3.24356e-13
-3.16089e-13
-3.09098e-13
-3.01372e-13
-2.95379e-13
-2.88956e-13
-2.8225e-13
-2.76003e-13
-2.68332e-13
-2.57791e-13
-2.47624e-13
-2.41412e-13
-2.33638e-13
-2.25961e-13
-2.1875e-13
-2.11168e-13
-2.07537e-13
-1.99807e-13
-1.89772e-13
-1.78607e-13
-1.73677e-13
-1.69673e-13
-1.62832e-13
-1.57299e-13
-1.48271e-13
-1.42456e-13
-1.33297e-13
-1.20767e-13
-1.11328e-13
-1.03681e-13
-9.84143e-14
-9.65216e-14
-9.16624e-14
-8.44673e-14
-7.82123e-14
-7.03502e-14
-6.43722e-14
-5.77558e-14
-5.31088e-14
-4.63037e-14
-3.7683e-14
-2.85991e-14
-1.7799e-14
-8.4048e-15
7.40649e-16
-6.96783e-13
-6.96135e-13
-6.96013e-13
-6.92997e-13
-6.89744e-13
-6.9202e-13
-6.90567e-13
-6.89076e-13
-6.812e-13
-6.66835e-13
-6.5867e-13
-6.51376e-13
-6.49375e-13
-6.47623e-13
-6.43385e-13
-6.36709e-13
-6.26894e-13
-6.20231e-13
-6.10408e-13
-5.95072e-13
-5.82963e-13
-5.70548e-13
-5.65292e-13
-5.58237e-13
-5.55446e-13
-5.49481e-13
-5.3926e-13
-5.33351e-13
-5.27654e-13
-5.2221e-13
-5.16666e-13
-5.08156e-13
-4.97882e-13
-4.86594e-13
-4.8005e-13
-4.74419e-13
-4.69868e-13
-4.59798e-13
-4.54128e-13
-4.48719e-13
-4.39301e-13
-4.29957e-13
-4.23139e-13
-4.16178e-13
-4.14637e-13
-4.09031e-13
-3.9813e-13
-3.85915e-13
-3.7722e-13
-3.6746e-13
-3.60203e-13
-3.55945e-13
-3.47915e-13
-3.38743e-13
-3.3004e-13
-3.22502e-13
-3.1546e-13
-3.08102e-13
-3.01166e-13
-2.9746e-13
-2.92602e-13
-2.88514e-13
-2.81229e-13
-2.68944e-13
-2.54675e-13
-2.40652e-13
-2.33647e-13
-2.28838e-13
-2.25122e-13
-2.24793e-13
-2.18717e-13
-2.0999e-13
-2.02544e-13
-1.92192e-13
-1.79748e-13
-1.71002e-13
-1.66524e-13
-1.60711e-13
-1.56535e-13
-1.48154e-13
-1.41818e-13
-1.336e-13
-1.22478e-13
-1.1474e-13
-1.05825e-13
-9.7479e-14
-9.32013e-14
-8.74144e-14
-8.3681e-14
-7.88288e-14
-6.89605e-14
-6.02293e-14
-5.49241e-14
-5.03766e-14
-4.18618e-14
-3.33231e-14
-2.50686e-14
-1.59836e-14
-6.2443e-15
-1.32382e-16
-6.95121e-13
-6.94439e-13
-6.93638e-13
-6.94975e-13
-6.95237e-13
-6.89895e-13
-6.87972e-13
-6.85407e-13
-6.79406e-13
-6.72109e-13
-6.59378e-13
-6.49892e-13
-6.49027e-13
-6.48819e-13
-6.43705e-13
-6.39252e-13
-6.26927e-13
-6.18453e-13
-6.10055e-13
-5.9641e-13
-5.87113e-13
-5.7176e-13
-5.61624e-13
-5.57107e-13
-5.51189e-13
-5.46183e-13
-5.41565e-13
-5.34853e-13
-5.29391e-13
-5.24123e-13
-5.15804e-13
-5.06846e-13
-4.9683e-13
-4.88707e-13
-4.8399e-13
-4.75804e-13
-4.67379e-13
-4.60052e-13
-4.557e-13
-4.47053e-13
-4.39008e-13
-4.29608e-13
-4.23202e-13
-4.20745e-13
-4.17776e-13
-4.07631e-13
-3.94951e-13
-3.82186e-13
-3.74039e-13
-3.66014e-13
-3.63119e-13
-3.5785e-13
-3.47373e-13
-3.38224e-13
-3.28705e-13
-3.25241e-13
-3.18241e-13
-3.1042e-13
-3.00354e-13
-2.91389e-13
-2.89334e-13
-2.81505e-13
-2.76043e-13
-2.7154e-13
-2.57515e-13
-2.43414e-13
-2.33756e-13
-2.28145e-13
-2.25551e-13
-2.27838e-13
-2.20071e-13
-2.12517e-13
-2.03242e-13
-1.91324e-13
-1.77731e-13
-1.67296e-13
-1.66146e-13
-1.64284e-13
-1.6033e-13
-1.51806e-13
-1.45677e-13
-1.37119e-13
-1.22258e-13
-1.11348e-13
-1.0078e-13
-9.19894e-14
-9.4036e-14
-9.20221e-14
-8.42162e-14
-7.74233e-14
-6.73038e-14
-6.1033e-14
-5.44415e-14
-4.83966e-14
-4.35479e-14
-3.64259e-14
-2.13864e-14
-7.42209e-15
1.09106e-15
-1.44264e-15
-6.9824e-13
-6.96316e-13
-6.94164e-13
-6.9583e-13
-6.94408e-13
-6.89361e-13
-6.89471e-13
-6.86226e-13
-6.7883e-13
-6.69253e-13
-6.61024e-13
-6.53246e-13
-6.45413e-13
-6.42299e-13
-6.3905e-13
-6.33207e-13
-6.30071e-13
-6.23884e-13
-6.12388e-13
-5.97791e-13
-5.86374e-13
-5.78587e-13
-5.67675e-13
-5.57812e-13
-5.51063e-13
-5.40753e-13
-5.37114e-13
-5.34197e-13
-5.30752e-13
-5.26628e-13
-5.17988e-13
-5.075e-13
-4.9555e-13
-4.8627e-13
-4.80647e-13
-4.73608e-13
-4.69451e-13
-4.62825e-13
-4.57952e-13
-4.45607e-13
-4.37588e-13
-4.26754e-13
-4.22888e-13
-4.23004e-13
-4.161e-13
-4.07538e-13
-3.95817e-13
-3.85587e-13
-3.75275e-13
-3.65835e-13
-3.5908e-13
-3.5584e-13
-3.47292e-13
-3.41092e-13
-3.3377e-13
-3.24212e-13
-3.16446e-13
-3.08124e-13
-3.0001e-13
-2.94147e-13
-2.91756e-13
-2.91362e-13
-2.80591e-13
-2.68382e-13
-2.4998e-13
-2.40079e-13
-2.33603e-13
-2.3036e-13
-2.25615e-13
-2.23369e-13
-2.17127e-13
-2.15844e-13
-2.09689e-13
-1.97069e-13
-1.76621e-13
-1.60464e-13
-1.59309e-13
-1.65332e-13
-1.62558e-13
-1.51884e-13
-1.44722e-13
-1.34448e-13
-1.24468e-13
-1.15764e-13
-1.05548e-13
-9.49222e-14
-8.8847e-14
-8.79536e-14
-8.26571e-14
-7.59374e-14
-6.52307e-14
-6.03533e-14
-5.4467e-14
-4.71835e-14
-3.92439e-14
-3.25948e-14
-2.0288e-14
-9.0595e-15
-2.57362e-15
-1.61608e-15
-6.95866e-13
-6.9557e-13
-6.88102e-13
-6.96967e-13
-6.96617e-13
-6.93627e-13
-6.87588e-13
-6.80943e-13
-6.74079e-13
-6.64364e-13
-6.59524e-13
-6.54552e-13
-6.53459e-13
-6.47304e-13
-6.4105e-13
-6.36885e-13
-6.31992e-13
-6.25219e-13
-6.1326e-13
-5.98831e-13
-5.80139e-13
-5.66425e-13
-5.57425e-13
-5.55653e-13
-5.51077e-13
-5.46677e-13
-5.40006e-13
-5.33837e-13
-5.31496e-13
-5.28638e-13
-5.21047e-13
-5.08227e-13
-4.98293e-13
-4.9027e-13
-4.85691e-13
-4.75501e-13
-4.66133e-13
-4.61325e-13
-4.55401e-13
-4.45412e-13
-4.36169e-13
-4.31967e-13
-4.27401e-13
-4.21566e-13
-4.10482e-13
-4.01288e-13
-3.93842e-13
-3.85964e-13
-3.77191e-13
-3.69507e-13
-3.62694e-13
-3.562e-13
-3.44783e-13
-3.34786e-13
-3.36041e-13
-3.35031e-13
-3.19664e-13
-3.04905e-13
-2.96193e-13
-2.88163e-13
-2.85582e-13
-2.8266e-13
-2.81443e-13
-2.71501e-13
-2.54784e-13
-2.45508e-13
-2.32573e-13
-2.31075e-13
-2.25835e-13
-2.20687e-13
-2.16788e-13
-2.16588e-13
-2.10464e-13
-1.94939e-13
-1.78124e-13
-1.65303e-13
-1.62513e-13
-1.6595e-13
-1.58958e-13
-1.49502e-13
-1.42947e-13
-1.35245e-13
-1.27204e-13
-1.17442e-13
-1.06798e-13
-9.44398e-14
-8.8815e-14
-8.82961e-14
-8.14699e-14
-7.42353e-14
-6.56985e-14
-5.88748e-14
-5.11744e-14
-4.52722e-14
-3.98147e-14
-3.14519e-14
-2.05154e-14
-1.08134e-14
-1.62656e-15
3.20084e-16
-6.92557e-13
-7.02318e-13
-6.97214e-13
-6.9242e-13
-6.92919e-13
-6.91432e-13
-6.86821e-13
-6.8539e-13
-6.74663e-13
-6.60663e-13
-6.56677e-13
-6.54772e-13
-6.51955e-13
-6.48169e-13
-6.43594e-13
-6.34066e-13
-6.23546e-13
-6.15769e-13
-6.10176e-13
-6.01332e-13
-5.94442e-13
-5.85926e-13
-5.73416e-13
-5.5555e-13
-5.41732e-13
-5.35539e-13
-5.3775e-13
-5.35574e-13
-5.32931e-13
-5.30736e-13
-5.21873e-13
-5.09414e-13
-4.94256e-13
-4.82151e-13
-4.76844e-13
-4.72395e-13
-4.722e-13
-4.67828e-13
-4.56252e-13
-4.49847e-13
-4.38813e-13
-4.28514e-13
-4.25936e-13
-4.18822e-13
-4.09812e-13
-4.0071e-13
-3.91042e-13
-3.85981e-13
-3.8086e-13
-3.71924e-13
-3.63829e-13
-3.54e-13
-3.46389e-13
-3.38954e-13
-3.34004e-13
-3.28242e-13
-3.21641e-13
-3.14197e-13
-3.05552e-13
-2.93818e-13
-2.8437e-13
-2.77694e-13
-2.72003e-13
-2.66297e-13
-2.56121e-13
-2.47772e-13
-2.389e-13
-2.32244e-13
-2.26397e-13
-2.23236e-13
-2.19261e-13
-2.11456e-13
-2.03975e-13
-1.95874e-13
-1.8124e-13
-1.70401e-13
-1.63056e-13
-1.60939e-13
-1.58621e-13
-1.50369e-13
-1.43779e-13
-1.333e-13
-1.2591e-13
-1.16374e-13
-1.05488e-13
-9.61515e-14
-9.13636e-14
-8.6857e-14
-8.2524e-14
-7.38039e-14
-6.59626e-14
-6.1849e-14
-5.38037e-14
-4.49122e-14
-3.50888e-14
-2.65595e-14
-1.91506e-14
-1.22154e-14
-4.38572e-15
-1.39767e-16
-6.9196e-13
-6.96074e-13
-6.98198e-13
-6.94138e-13
-6.93277e-13
-6.94318e-13
-6.83817e-13
-6.72515e-13
-6.67317e-13
-6.65226e-13
-6.62603e-13
-6.58626e-13
-6.55338e-13
-6.49659e-13
-6.43875e-13
-6.35377e-13
-6.28734e-13
-6.24579e-13
-6.15236e-13
-6.00834e-13
-5.81347e-13
-5.67989e-13
-5.58773e-13
-5.49011e-13
-5.49333e-13
-5.47687e-13
-5.42925e-13
-5.35579e-13
-5.31149e-13
-5.2981e-13
-5.23805e-13
-5.1282e-13
-4.99729e-13
-4.82498e-13
-4.72078e-13
-4.72753e-13
-4.73652e-13
-4.69221e-13
-4.62035e-13
-4.50904e-13
-4.36492e-13
-4.27233e-13
-4.19601e-13
-4.14599e-13
-4.09189e-13
-4.0347e-13
-3.96155e-13
-3.87161e-13
-3.80476e-13
-3.78748e-13
-3.69973e-13
-3.52049e-13
-3.41263e-13
-3.33897e-13
-3.2818e-13
-3.2644e-13
-3.2247e-13
-3.13387e-13
-3.00838e-13
-2.90902e-13
-2.87352e-13
-2.82686e-13
-2.75446e-13
-2.66207e-13
-2.5198e-13
-2.4172e-13
-2.37176e-13
-2.34856e-13
-2.30006e-13
-2.23093e-13
-2.1625e-13
-2.11563e-13
-2.04476e-13
-1.94453e-13
-1.82551e-13
-1.67202e-13
-1.61841e-13
-1.60008e-13
-1.60667e-13
-1.55839e-13
-1.47221e-13
-1.36843e-13
-1.25667e-13
-1.13687e-13
-1.03846e-13
-9.66813e-14
-9.20833e-14
-8.63013e-14
-7.99848e-14
-7.29344e-14
-6.63224e-14
-6.06775e-14
-5.44505e-14
-4.49182e-14
-3.43074e-14
-2.39725e-14
-1.52823e-14
-9.44371e-15
-2.60985e-15
-8.51089e-16
-6.90566e-13
-6.99378e-13
-7.00145e-13
-6.95105e-13
-6.91856e-13
-6.97233e-13
-6.93374e-13
-6.79034e-13
-6.6074e-13
-6.56519e-13
-6.55571e-13
-6.56822e-13
-6.55677e-13
-6.52722e-13
-6.47276e-13
-6.36531e-13
-6.26968e-13
-6.18835e-13
-6.06193e-13
-5.97364e-13
-5.89059e-13
-5.76096e-13
-5.63868e-13
-5.49732e-13
-5.48591e-13
-5.46653e-13
-5.44795e-13
-5.39846e-13
-5.31968e-13
-5.28926e-13
-5.20418e-13
-5.08375e-13
-4.98545e-13
-4.83325e-13
-4.71297e-13
-4.70328e-13
-4.71795e-13
-4.69974e-13
-4.61541e-13
-4.51603e-13
-4.35562e-13
-4.26024e-13
-4.23123e-13
-4.17268e-13
-4.09355e-13
-4.0151e-13
-3.98479e-13
-3.91468e-13
-3.80474e-13
-3.68901e-13
-3.60824e-13
-3.54756e-13
-3.45289e-13
-3.32215e-13
-3.32906e-13
-3.30111e-13
-3.21879e-13
-3.15219e-13
-3.07538e-13
-2.93224e-13
-2.85628e-13
-2.78852e-13
-2.70578e-13
-2.63e-13
-2.5167e-13
-2.4408e-13
-2.34892e-13
-2.31957e-13
-2.26688e-13
-2.26203e-13
-2.188e-13
-2.14782e-13
-2.07994e-13
-1.94122e-13
-1.79702e-13
-1.67857e-13
-1.64875e-13
-1.61903e-13
-1.56864e-13
-1.51868e-13
-1.46035e-13
-1.37257e-13
-1.26584e-13
-1.14157e-13
-1.07045e-13
-1.00096e-13
-9.26738e-14
-8.58155e-14
-8.0017e-14
-7.19398e-14
-6.48573e-14
-5.85475e-14
-5.04476e-14
-4.13842e-14
-3.39115e-14
-2.75561e-14
-1.36278e-14
-6.33036e-15
1.34229e-16
2.12378e-16
-6.97518e-13
-6.96548e-13
-6.9299e-13
-6.89115e-13
-6.90663e-13
-6.85444e-13
-6.80868e-13
-6.8209e-13
-6.77458e-13
-6.69562e-13
-6.64398e-13
-6.55393e-13
-6.49226e-13
-6.48061e-13
-6.45773e-13
-6.38258e-13
-6.29257e-13
-6.26003e-13
-6.14317e-13
-5.97283e-13
-5.77594e-13
-5.64628e-13
-5.58799e-13
-5.57002e-13
-5.50073e-13
-5.49007e-13
-5.44935e-13
-5.38105e-13
-5.32473e-13
-5.27308e-13
-5.20193e-13
-5.07942e-13
-4.95658e-13
-4.8275e-13
-4.74481e-13
-4.73264e-13
-4.76424e-13
-4.70066e-13
-4.60571e-13
-4.49778e-13
-4.36148e-13
-4.23472e-13
-4.20838e-13
-4.1782e-13
-4.13808e-13
-4.02648e-13
-3.93395e-13
-3.89397e-13
-3.84032e-13
-3.72137e-13
-3.59978e-13
-3.54409e-13
-3.46819e-13
-3.35997e-13
-3.27827e-13
-3.25174e-13
-3.19471e-13
-3.14297e-13
-3.08344e-13
-2.98436e-13
-2.87553e-13
-2.79354e-13
-2.69973e-13
-2.62278e-13
-2.55635e-13
-2.45273e-13
-2.35215e-13
-2.26742e-13
-2.23805e-13
-2.26294e-13
-2.18226e-13
-2.13126e-13
-2.06158e-13
-1.94828e-13
-1.83716e-13
-1.71406e-13
-1.61271e-13
-1.56927e-13
-1.56252e-13
-1.57182e-13
-1.50974e-13
-1.36066e-13
-1.25421e-13
-1.12477e-13
-1.07542e-13
-1.02358e-13
-9.50036e-14
-8.48168e-14
-7.57431e-14
-7.09243e-14
-6.49513e-14
-5.79652e-14
-5.21177e-14
-4.35053e-14
-3.30071e-14
-2.29899e-14
-1.39302e-14
-7.66912e-15
-2.6719e-16
1.58984e-15
-6.97021e-13
-6.95758e-13
-6.93292e-13
-6.91092e-13
-6.96944e-13
-6.94063e-13
-6.81152e-13
-6.74465e-13
-6.69459e-13
-6.66234e-13
-6.65097e-13
-6.62721e-13
-6.51086e-13
-6.43845e-13
-6.40721e-13
-6.35542e-13
-6.30954e-13
-6.23585e-13
-6.11061e-13
-5.94727e-13
-5.80528e-13
-5.66254e-13
-5.56958e-13
-5.57294e-13
-5.57209e-13
-5.48678e-13
-5.41169e-13
-5.38317e-13
-5.35776e-13
-5.29845e-13
-5.22465e-13
-5.09658e-13
-4.95687e-13
-4.81937e-13
-4.71159e-13
-4.71797e-13
-4.70536e-13
-4.68014e-13
-4.64311e-13
-4.54317e-13
-4.39773e-13
-4.27483e-13
-4.20358e-13
-4.12149e-13
-4.09926e-13
-4.04168e-13
-3.95856e-13
-3.86247e-13
-3.79338e-13
-3.7231e-13
-3.60665e-13
-3.54898e-13
-3.47034e-13
-3.37215e-13
-3.33907e-13
-3.29316e-13
-3.17733e-13
-3.08336e-13
-3.03764e-13
-2.9564e-13
-2.89543e-13
-2.79402e-13
-2.71113e-13
-2.63747e-13
-2.54759e-13
-2.43847e-13
-2.37167e-13
-2.2715e-13
-2.20853e-13
-2.1888e-13
-2.1719e-13
-2.14132e-13
-2.07962e-13
-1.94973e-13
-1.82564e-13
-1.7241e-13
-1.65732e-13
-1.5925e-13
-1.58491e-13
-1.55217e-13
-1.48093e-13
-1.37902e-13
-1.26855e-13
-1.15427e-13
-1.06526e-13
-9.72462e-14
-9.07069e-14
-8.64299e-14
-8.04634e-14
-7.12436e-14
-6.40422e-14
-5.68664e-14
-4.9126e-14
-4.07988e-14
-3.14144e-14
-2.47695e-14
-1.56839e-14
-5.70993e-15
7.09267e-17
-8.7621e-17
-6.91972e-13
-6.94929e-13
-6.94957e-13
-6.93395e-13
-6.91751e-13
-6.85488e-13
-6.80871e-13
-6.77403e-13
-6.76062e-13
-6.71552e-13
-6.6608e-13
-6.61476e-13
-6.53805e-13
-6.45248e-13
-6.39254e-13
-6.31761e-13
-6.28957e-13
-6.22124e-13
-6.09428e-13
-5.97032e-13
-5.80271e-13
-5.67049e-13
-5.62199e-13
-5.58353e-13
-5.49955e-13
-5.45909e-13
-5.45396e-13
-5.42571e-13
-5.35155e-13
-5.25353e-13
-5.17313e-13
-5.08253e-13
-4.95353e-13
-4.83131e-13
-4.73541e-13
-4.77234e-13
-4.78136e-13
-4.70042e-13
-4.59466e-13
-4.47032e-13
-4.36343e-13
-4.30043e-13
-4.22259e-13
-4.12301e-13
-4.07016e-13
-4.00063e-13
-3.98216e-13
-3.96198e-13
-3.82547e-13
-3.68946e-13
-3.58679e-13
-3.55964e-13
-3.47399e-13
-3.36604e-13
-3.32529e-13
-3.29074e-13
-3.20945e-13
-3.09905e-13
-3.01475e-13
-2.947e-13
-2.91876e-13
-2.82763e-13
-2.72119e-13
-2.6242e-13
-2.509e-13
-2.43276e-13
-2.34215e-13
-2.2865e-13
-2.21778e-13
-2.17286e-13
-2.1321e-13
-2.13963e-13
-2.08703e-13
-1.94975e-13
-1.82662e-13
-1.72393e-13
-1.6772e-13
-1.62153e-13
-1.5428e-13
-1.46863e-13
-1.50669e-13
-1.45213e-13
-1.28493e-13
-1.15934e-13
-1.06572e-13
-9.63202e-14
-8.89202e-14
-8.58557e-14
-8.00897e-14
-7.14249e-14
-6.34694e-14
-5.70073e-14
-4.99678e-14
-3.94644e-14
-3.37332e-14
-2.34574e-14
-1.30258e-14
-4.13443e-15
9.86018e-16
-4.74111e-16
-6.99139e-13
-6.96152e-13
-6.94109e-13
-6.91054e-13
-6.86124e-13
-6.83461e-13
-6.80395e-13
-6.80281e-13
-6.77332e-13
-6.71943e-13
-6.65298e-13
-6.61015e-13
-6.54851e-13
-6.49024e-13
-6.41229e-13
-6.30191e-13
-6.20026e-13
-6.13866e-13
-6.09103e-13
-6.00837e-13
-5.82783e-13
-5.71078e-13
-5.62368e-13
-5.55461e-13
-5.52024e-13
-5.48307e-13
-5.46472e-13
-5.42955e-13
-5.33329e-13
-5.28159e-13
-5.18473e-13
-5.07418e-13
-4.93595e-13
-4.81121e-13
-4.75966e-13
-4.76602e-13
-4.74551e-13
-4.68501e-13
-4.59306e-13
-4.48242e-13
-4.36662e-13
-4.27477e-13
-4.22791e-13
-4.16585e-13
-4.11554e-13
-4.0446e-13
-3.94097e-13
-3.86703e-13
-3.81595e-13
-3.73201e-13
-3.65927e-13
-3.55798e-13
-3.45949e-13
-3.37364e-13
-3.30982e-13
-3.23717e-13
-3.19212e-13
-3.11863e-13
-3.011e-13
-2.94913e-13
-2.92646e-13
-2.84729e-13
-2.73202e-13
-2.60638e-13
-2.52062e-13
-2.43515e-13
-2.34115e-13
-2.26948e-13
-2.21581e-13
-2.17415e-13
-2.149e-13
-2.14117e-13
-2.07528e-13
-1.91925e-13
-1.81622e-13
-1.72723e-13
-1.6722e-13
-1.61677e-13
-1.57708e-13
-1.53392e-13
-1.47299e-13
-1.39195e-13
-1.29655e-13
-1.19803e-13
-1.11617e-13
-9.63362e-14
-8.77704e-14
-8.28801e-14
-7.986e-14
-6.82477e-14
-6.07339e-14
-5.6056e-14
-5.3884e-14
-4.12011e-14
-2.97952e-14
-2.26288e-14
-1.46252e-14
-1.71439e-15
2.57247e-17
-1.62685e-15
-7.01736e-13
-6.95536e-13
-6.89722e-13
-6.90359e-13
-6.82641e-13
-6.83633e-13
-6.80715e-13
-6.81396e-13
-6.80662e-13
-6.70705e-13
-6.64547e-13
-6.61539e-13
-6.59632e-13
-6.50372e-13
-6.41309e-13
-6.33274e-13
-6.24741e-13
-6.14435e-13
-6.08135e-13
-5.94275e-13
-5.82692e-13
-5.70648e-13
-5.59382e-13
-5.53719e-13
-5.50153e-13
-5.51843e-13
-5.47535e-13
-5.41703e-13
-5.33962e-13
-5.26286e-13
-5.18775e-13
-5.0926e-13
-4.93901e-13
-4.83891e-13
-4.74565e-13
-4.72128e-13
-4.7279e-13
-4.68775e-13
-4.59724e-13
-4.48945e-13
-4.39834e-13
-4.30717e-13
-4.22262e-13
-4.15695e-13
-4.09691e-13
-4.0261e-13
-3.93857e-13
-3.88958e-13
-3.84228e-13
-3.7359e-13
-3.62651e-13
-3.51794e-13
-3.45376e-13
-3.40149e-13
-3.34184e-13
-3.27759e-13
-3.20444e-13
-3.10419e-13
-3.03654e-13
-2.98778e-13
-2.93615e-13
-2.83363e-13
-2.6914e-13
-2.59135e-13
-2.50268e-13
-2.41362e-13
-2.32192e-13
-2.27991e-13
-2.21214e-13
-2.2116e-13
-2.15931e-13
-2.10289e-13
-2.0092e-13
-1.89432e-13
-1.80073e-13
-1.71058e-13
-1.70676e-13
-1.68777e-13
-1.59473e-13
-1.5093e-13
-1.44553e-13
-1.36786e-13
-1.28374e-13
-1.18671e-13
-1.06546e-13
-9.41478e-14
-8.90501e-14
-8.5535e-14
-7.88455e-14
-7.40001e-14
-6.79272e-14
-5.65602e-14
-4.67536e-14
-3.8717e-14
-2.99815e-14
-2.02642e-14
-1.28334e-14
-7.93123e-15
-2.68129e-15
-1.5562e-15
-6.99735e-13
-6.93798e-13
-6.92273e-13
-6.90388e-13
-6.86958e-13
-6.83524e-13
-6.77978e-13
-6.80434e-13
-6.79976e-13
-6.74353e-13
-6.68007e-13
-6.60865e-13
-6.58291e-13
-6.48459e-13
-6.38404e-13
-6.28497e-13
-6.18586e-13
-6.14365e-13
-6.08744e-13
-5.96745e-13
-5.84336e-13
-5.72174e-13
-5.6125e-13
-5.57286e-13
-5.56126e-13
-5.49466e-13
-5.4322e-13
-5.35942e-13
-5.2916e-13
-5.26796e-13
-5.20679e-13
-5.13658e-13
-5.01595e-13
-4.90495e-13
-4.7254e-13
-4.68532e-13
-4.67971e-13
-4.65333e-13
-4.59576e-13
-4.48807e-13
-4.41622e-13
-4.309e-13
-4.24886e-13
-4.14041e-13
-4.0996e-13
-4.04025e-13
-3.99187e-13
-3.9075e-13
-3.8048e-13
-3.66384e-13
-3.62046e-13
-3.56898e-13
-3.49481e-13
-3.36194e-13
-3.28897e-13
-3.22378e-13
-3.14996e-13
-3.12756e-13
-3.04556e-13
-3.02734e-13
-3.02895e-13
-2.8079e-13
-2.67251e-13
-2.61036e-13
-2.52824e-13
-2.44731e-13
-2.35002e-13
-2.28156e-13
-2.18445e-13
-2.15391e-13
-2.10925e-13
-2.13043e-13
-2.0622e-13
-1.93793e-13
-1.78089e-13
-1.667e-13
-1.70629e-13
-1.67491e-13
-1.59683e-13
-1.53405e-13
-1.46401e-13
-1.37266e-13
-1.27427e-13
-1.16724e-13
-1.07183e-13
-9.56474e-14
-8.83053e-14
-8.60701e-14
-8.02823e-14
-6.9824e-14
-6.17189e-14
-5.61143e-14
-4.7776e-14
-3.81735e-14
-3.42125e-14
-2.69171e-14
-1.32327e-14
-4.12351e-15
2.1824e-15
-5.29505e-16
-6.94249e-13
-6.96313e-13
-6.95971e-13
-6.90025e-13
-6.84471e-13
-6.84879e-13
-6.82656e-13
-6.7884e-13
-6.77797e-13
-6.73181e-13
-6.69629e-13
-6.64756e-13
-6.56454e-13
-6.47082e-13
-6.39224e-13
-6.31806e-13
-6.2623e-13
-6.21486e-13
-6.1107e-13
-5.94276e-13
-5.755e-13
-5.62062e-13
-5.58538e-13
-5.5889e-13
-5.56418e-13
-5.4896e-13
-5.39983e-13
-5.35935e-13
-5.29231e-13
-5.2788e-13
-5.24769e-13
-5.09206e-13
-4.96272e-13
-4.87851e-13
-4.79096e-13
-4.74554e-13
-4.70399e-13
-4.64108e-13
-4.57719e-13
-4.49282e-13
-4.40956e-13
-4.30439e-13
-4.22547e-13
-4.17426e-13
-4.15003e-13
-4.05167e-13
-3.97234e-13
-3.84708e-13
-3.8122e-13
-3.73131e-13
-3.61086e-13
-3.55503e-13
-3.48914e-13
-3.40228e-13
-3.31796e-13
-3.1855e-13
-3.06938e-13
-3.10318e-13
-3.13954e-13
-3.04732e-13
-2.94743e-13
-2.82987e-13
-2.70749e-13