/*--------------------------------*- C++ -*----------------------------------*\
| =========                 |                                                 |
| \\      /  F ield         | OpenFOAM: The Open Source CFD Toolbox           |
|  \\    /   O peration     | Version:  v2012                                 |
|   \\  /    A nd           | Website:  www.openfoam.com                      |
|    \\/     M anipulation  |                                                 |
\*---------------------------------------------------------------------------*/
FoamFile
{
    version     2.0;
    format      ascii;
    class       volVectorField;
    location    "70";
    object      Usup;
}
// * * * * * * * * * * * * * * * * * * * * * * * * * * * * * * * * * * * * * //

dimensions      [0 1 -1 0 0 0 0];


internalField   nonuniform List<vector> 
4000
(
(-0.0011735 0.00150772 0)
(-0.00967843 -0.00651571 0)
(-0.0191942 -0.00129505 0)
(-0.0276909 0.000624401 0)
(-0.0334858 0.00498966 0)
(-0.0227339 0.00733895 0)
(-0.00449127 0.0113702 0)
(0.00787336 0.0015731 0)
(-0.00173865 -0.0138175 0)
(-0.02503 -0.0150539 0)
(-0.0240688 0.000631228 0)
(0.00257886 0.0169323 0)
(0.024002 0.0163804 0)
(0.0167868 -0.000542307 0)
(-0.00845326 0.00742081 0)
(-0.00446143 0.0290369 0)
(0.0216603 0.018942 0)
(0.0234808 0.00829225 0)
(0.0183501 0.0197492 0)
(0.0221251 0.0194698 0)
(0.0247672 0.0110652 0)
(0.0110845 0.000885107 0)
(-0.0115349 0.00123625 0)
(-0.0201549 -0.000585313 0)
(-0.0186738 -0.00201673 0)
(-0.0168306 -0.00197116 0)
(-0.0160745 -0.00086712 0)
(-0.00511071 0.00712387 0)
(0.00252763 0.0114223 0)
(-0.000980816 0.00948654 0)
(-0.0079198 0.00418037 0)
(-0.00715824 0.011229 0)
(-0.00329808 0.0120391 0)
(-0.00621166 0.01169 0)
(-0.00514715 0.0112003 0)
(0.00494668 0.0138619 0)
(0.0120252 0.00215801 0)
(0.0142428 -0.00233537 0)
(0.0169868 -0.00206992 0)
(0.013503 0.00179685 0)
(0.00229757 0.0113422 0)
(-0.0090285 0.0176918 0)
(-0.00587088 0.024608 0)
(0.0066464 0.013593 0)
(0.00718599 -0.00478632 0)
(-0.0054664 -0.00804129 0)
(-0.0145837 -0.00137003 0)
(-0.0217594 0.00826354 0)
(-0.0240863 0.0130533 0)
(-0.0117803 0.0160406 0)
(0.00193361 0.00950658 0)
(0.00604404 0.00532168 0)
(0.00930822 0.00905175 0)
(0.0166435 0.0180867 0)
(0.0204632 0.0205453 0)
(0.0115654 0.0117262 0)
(0.00372918 0.00807283 0)
(0.0131443 0.0063548 0)
(0.0189943 0.00538271 0)
(0.0107434 0.0101188 0)
(0.000615627 0.011408 0)
(-0.0118966 0.00603482 0)
(-0.0212424 0.00294059 0)
(-0.0288154 0.00540504 0)
(-0.030064 0.0101138 0)
(-0.0159906 0.00912173 0)
(-0.00330108 0.00410619 0)
(0.000898396 -0.00210801 0)
(0.00212613 -0.00654983 0)
(0.00710401 -0.00458253 0)
(0.0101633 -0.00387905 0)
(0.00861667 -0.00195513 0)
(0.0105772 0.00327895 0)
(0.0191261 0.00765488 0)
(0.0254914 0.00141101 0)
(0.0189786 -0.00100945 0)
(0.0110359 0.00289479 0)
(0.00220813 0.0105052 0)
(-0.00538792 0.0169016 0)
(-0.00140179 0.0219544 0)
(0.00224831 0.0188153 0)
(-0.00594014 0.0109622 0)
(-0.0300794 0.00477705 0)
(-0.0446579 0.0162318 0)
(-0.0240332 0.019796 0)
(-0.00285274 0.0114834 0)
(-0.00025558 0.002475 0)
(-0.00571128 -0.00540882 0)
(-0.00915448 4.59398e-05 0)
(-0.00492857 0.00618238 0)
(0.000781944 0.00226973 0)
(0.0129571 -0.00282152 0)
(0.0257839 -0.00736053 0)
(0.0235018 -0.00616784 0)
(0.0198089 -0.000356655 0)
(0.0258607 -0.0033679 0)
(0.0239406 -0.010909 0)
(0.0126998 -0.0113429 0)
(0.00594825 -0.00831319 0)
(0.00319041 -0.00289083 0)
(-0.0116956 0.000635675 0)
(-0.028975 -0.00729402 0)
(-0.0444282 -0.00141155 0)
(-0.0645757 0.00168943 0)
(-0.074347 0.00645263 0)
(-0.0521126 0.013478 0)
(-0.0233366 0.0169231 0)
(-0.0130231 0.00305907 0)
(-0.0243452 -0.0207769 0)
(-0.0426638 -0.0242111 0)
(-0.0255837 0.00230261 0)
(0.0152839 0.033341 0)
(0.0339895 0.0358304 0)
(0.0292313 0.0203436 0)
(0.01434 0.0344623 0)
(0.00944754 0.067122 0)
(0.0341153 0.0536801 0)
(0.0582288 0.0354432 0)
(0.0589229 0.0546737 0)
(0.049579 0.0494881 0)
(0.0424088 0.032781 0)
(0.0175938 0.0159674 0)
(-0.0240055 0.0127542 0)
(-0.0476927 -7.57016e-05 0)
(-0.0472771 -0.00829643 0)
(-0.0421676 3.63646e-05 0)
(-0.0320105 0.00777006 0)
(-0.0076079 0.0174816 0)
(0.000830746 0.0186511 0)
(-0.0114566 0.0144906 0)
(-0.0171125 0.00829334 0)
(-0.0116715 0.0240109 0)
(-0.0101731 0.0374242 0)
(-0.0142367 0.0426523 0)
(-0.00715613 0.0401676 0)
(0.0057508 0.0404081 0)
(0.0169009 0.0139875 0)
(0.0324439 0.00575453 0)
(0.0431825 0.00577198 0)
(0.0411841 0.0181116 0)
(0.0192374 0.0266078 0)
(-0.00540997 0.0392473 0)
(-0.0136326 0.0492979 0)
(-0.0107275 0.0270925 0)
(-0.00539708 -0.00487714 0)
(-0.0124841 -0.0109665 0)
(-0.0242227 -0.00402502 0)
(-0.0411928 0.0183745 0)
(-0.0488251 0.0370052 0)
(-0.0315254 0.0482462 0)
(-0.0068597 0.0321931 0)
(0.0142035 0.0184239 0)
(0.0345346 0.0201108 0)
(0.0493846 0.0420455 0)
(0.0434853 0.0496152 0)
(0.022946 0.0382533 0)
(0.0141256 0.036766 0)
(0.0314079 0.0345645 0)
(0.0449317 0.0239134 0)
(0.0287503 0.0269597 0)
(-0.00341646 0.0323793 0)
(-0.0360588 0.0265194 0)
(-0.0534593 0.0201308 0)
(-0.0644576 0.0121257 0)
(-0.0678702 0.0174999 0)
(-0.0463364 0.018553 0)
(-0.0218812 0.00802409 0)
(-0.00838376 -0.00686204 0)
(0.00424931 -0.0149502 0)
(0.0197887 -0.00944934 0)
(0.0276247 -0.00456088 0)
(0.0309126 0.00442074 0)
(0.0389299 0.00972614 0)
(0.0477777 0.0132219 0)
(0.0543484 0.0048453 0)
(0.0488385 0.00471784 0)
(0.0375233 0.0163346 0)
(0.018577 0.0303479 0)
(-0.00022754 0.0468098 0)
(-0.00365584 0.0560561 0)
(-0.0108288 0.048907 0)
(-0.0341463 0.0325492 0)
(-0.0684731 0.0238757 0)
(-0.0884933 0.0433858 0)
(-0.0647891 0.0482624 0)
(-0.030896 0.0302936 0)
(-0.0206795 0.00972807 0)
(-0.0172973 -0.00454471 0)
(-0.0112741 -0.00250211 0)
(-0.00785301 0.00573003 0)
(-0.000259862 0.00170254 0)
(0.027033 -0.0036501 0)
(0.0587894 -0.0134371 0)
(0.065924 -0.0164478 0)
(0.0576511 -0.0107793 0)
(0.0567645 -0.0126327 0)
(0.052372 -0.0206638 0)
(0.0359727 -0.0234489 0)
(0.021984 -0.0191336 0)
(0.011236 -0.00684907 0)
(-0.0155061 -0.00236499 0)
(-0.041993 -0.00399026 0)
(-0.0668574 -0.0054617 0)
(-0.0946834 -0.00101279 0)
(-0.103904 -0.000390852 0)
(-0.0759617 0.0156851 0)
(-0.0430764 0.0149656 0)
(-0.0317837 0.00788839 0)
(-0.0441186 -0.0174807 0)
(-0.0541828 -0.0201605 0)
(-0.0211175 0.0177285 0)
(0.0278515 0.0502641 0)
(0.0487451 0.0509469 0)
(0.0469725 0.0466581 0)
(0.0338784 0.0553928 0)
(0.0252384 0.075907 0)
(0.0467269 0.0839857 0)
(0.0841709 0.0782619 0)
(0.0872625 0.0799008 0)
(0.0654663 0.0694892 0)
(0.0526355 0.0521382 0)
(0.0194838 0.0372336 0)
(-0.0405766 0.0334065 0)
(-0.0768809 0.0141546 0)
(-0.0660732 0.00178018 0)
(-0.0510693 0.00327332 0)
(-0.0430403 0.0139269 0)
(-0.0198722 0.0243787 0)
(-0.00972213 0.0186619 0)
(-0.0201381 0.0131522 0)
(-0.0194779 0.0138401 0)
(-0.00386277 0.0313858 0)
(-0.00286764 0.0568317 0)
(-0.0161567 0.070153 0)
(-0.0112441 0.0753276 0)
(-0.000904606 0.0633392 0)
(0.0154503 0.0394657 0)
(0.0450934 0.0336644 0)
(0.0654561 0.0345534 0)
(0.0591839 0.0426925 0)
(0.028363 0.0315403 0)
(0.00039785 0.0363555 0)
(-0.0214189 0.0440238 0)
(-0.0284084 0.0345102 0)
(-0.018742 0.0187956 0)
(-0.022905 0.00646033 0)
(-0.0307191 0.0023248 0)
(-0.042509 0.0143326 0)
(-0.0527485 0.0396025 0)
(-0.0447406 0.0658529 0)
(-0.0229102 0.0637513 0)
(0.0116668 0.0492715 0)
(0.0549849 0.0439829 0)
(0.0806454 0.0525783 0)
(0.0655521 0.0651078 0)
(0.0401313 0.0690072 0)
(0.0300537 0.0737523 0)
(0.0397336 0.0655199 0)
(0.0516927 0.0446098 0)
(0.0389203 0.0379418 0)
(-0.00278313 0.037934 0)
(-0.052589 0.0393241 0)
(-0.0871199 0.037287 0)
(-0.101028 0.0252171 0)
(-0.094523 0.0193464 0)
(-0.0693008 0.0220397 0)
(-0.0427178 0.00747386 0)
(-0.0202475 -0.0117535 0)
(0.00704799 -0.0147936 0)
(0.0337621 -0.0078065 0)
(0.0484101 -0.00179373 0)
(0.0514989 0.00716617 0)
(0.0573286 0.00955174 0)
(0.0692712 0.0135811 0)
(0.0802439 0.019674 0)
(0.0780945 0.0239434 0)
(0.062522 0.036212 0)
(0.0369908 0.0496597 0)
(0.0096912 0.0663019 0)
(-0.00753725 0.0743506 0)
(-0.0282688 0.0694332 0)
(-0.0599019 0.0536018 0)
(-0.0951233 0.051864 0)
(-0.118388 0.0630775 0)
(-0.0997345 0.0664458 0)
(-0.0634805 0.0453549 0)
(-0.0444496 0.018074 0)
(-0.0331968 0.00265657 0)
(-0.018962 -0.00499301 0)
(-0.00785052 -0.000917632 0)
(0.0061165 -0.000722328 0)
(0.0400685 -0.00570709 0)
(0.0779648 -0.0186714 0)
(0.0920515 -0.025833 0)
(0.087986 -0.0248524 0)
(0.0867788 -0.0242521 0)
(0.0756234 -0.0246734 0)
(0.0517686 -0.02689 0)
(0.0348955 -0.0211425 0)
(0.0186224 -0.00809567 0)
(-0.0195528 -0.0068952 0)
(-0.0551507 -0.00829611 0)
(-0.0845832 -0.00884063 0)
(-0.116104 -0.00160204 0)
(-0.120704 0.00229087 0)
(-0.089542 0.00818676 0)
(-0.0613769 0.00626502 0)
(-0.058243 0.00235449 0)
(-0.0685251 -0.0141054 0)
(-0.0472244 -0.00521763 0)
(0.00266842 0.0346297 0)
(0.0380718 0.0701029 0)
(0.0489835 0.0786415 0)
(0.0531661 0.0713971 0)
(0.050876 0.068446 0)
(0.0514893 0.0808284 0)
(0.0729896 0.105607 0)
(0.101037 0.11192 0)
(0.0993797 0.097779 0)
(0.0741531 0.0910292 0)
(0.0550245 0.0699611 0)
(0.020096 0.0480246 0)
(-0.0498609 0.0460229 0)
(-0.0975982 0.0403559 0)
(-0.0894577 0.0265601 0)
(-0.0681132 0.0030131 0)
(-0.0471343 0.0102167 0)
(-0.0255652 0.0308172 0)
(-0.0214718 0.030327 0)
(-0.0279887 0.0213112 0)
(-0.0185412 0.0228002 0)
(0.00590914 0.0383581 0)
(0.00749584 0.0646369 0)
(-0.00808618 0.0844421 0)
(-0.0127486 0.0965101 0)
(-0.00990624 0.0885659 0)
(0.0161193 0.0807263 0)
(0.0557857 0.0777552 0)
(0.0776779 0.0659256 0)
(0.0607068 0.0542153 0)
(0.0246653 0.0415464 0)
(0.0034795 0.0289425 0)
(-0.0175333 0.0305981 0)
(-0.0296234 0.0424017 0)
(-0.0302025 0.0369772 0)
(-0.0405245 0.0195899 0)
(-0.0465413 0.0198659 0)
(-0.0493664 0.0259049 0)
(-0.0448766 0.043141 0)
(-0.0347854 0.0713457 0)
(-0.0229314 0.0897939 0)
(0.0100529 0.0805359 0)
(0.059013 0.0711201 0)
(0.0965087 0.063644 0)
(0.0910337 0.0762616 0)
(0.0611631 0.0948779 0)
(0.039186 0.104886 0)
(0.0380927 0.0951984 0)
(0.0501201 0.0727689 0)
(0.0373739 0.054261 0)
(-0.00682044 0.0418659 0)
(-0.0608893 0.0385109 0)
(-0.10485 0.0375897 0)
(-0.128356 0.0350418 0)
(-0.119675 0.0281064 0)
(-0.0913476 0.0206138 0)
(-0.0663296 0.00455071 0)
(-0.0307013 -0.00808127 0)
(0.0119935 -0.00774977 0)
(0.0441597 -0.00270643 0)
(0.0614079 -0.00239665 0)
(0.0678026 0.00458051 0)
(0.0787568 0.0126135 0)
(0.0977457 0.0204049 0)
(0.10728 0.0399627 0)
(0.0997579 0.0448202 0)
(0.0828234 0.0504739 0)
(0.0527576 0.0619914 0)
(0.0176316 0.0813695 0)
(-0.00933115 0.0858137 0)
(-0.0429939 0.0743228 0)
(-0.0802395 0.072234 0)
(-0.115277 0.0740768 0)
(-0.140824 0.0818262 0)
(-0.129075 0.0848394 0)
(-0.0991958 0.0592123 0)
(-0.0733523 0.0274902 0)
(-0.0505918 0.00689638 0)
(-0.0252051 -0.00432541 0)
(-0.00605633 -0.00779209 0)
(0.0093363 -0.00745682 0)
(0.0446879 -0.0122607 0)
(0.0900534 -0.0242956 0)
(0.113659 -0.0345265 0)
(0.111971 -0.0390217 0)
(0.109026 -0.0374654 0)
(0.0946317 -0.0329738 0)
(0.0674267 -0.0287261 0)
(0.0471426 -0.0147677 0)
(0.0248506 -0.004737 0)
(-0.0211239 -0.00136537 0)
(-0.0616386 -0.00405689 0)
(-0.0953476 -0.00837294 0)
(-0.129394 -0.0118008 0)
(-0.142077 -0.0130112 0)
(-0.11307 -0.0169035 0)
(-0.0781008 -0.0158494 0)
(-0.0704485 -0.00989155 0)
(-0.0719304 0.00218987 0)
(-0.0405949 0.0397865 0)
(0.0184721 0.0688027 0)
(0.0577276 0.0852801 0)
(0.0594775 0.0908769 0)
(0.0542932 0.0901421 0)
(0.0566488 0.0815591 0)
(0.0735454 0.0867878 0)
(0.0995422 0.106994 0)
(0.114172 0.114931 0)
(0.108758 0.111776 0)
(0.079187 0.107815 0)
(0.0473265 0.0877373 0)
(0.0140645 0.061254 0)
(-0.0507427 0.0468843 0)
(-0.108783 0.048919 0)
(-0.118105 0.0427195 0)
(-0.0894573 0.0234627 0)
(-0.0467773 0.0324447 0)
(-0.0242235 0.0439995 0)
(-0.0313373 0.0398478 0)
(-0.0385337 0.0305707 0)
(-0.0194943 0.024785 0)
(0.0156677 0.0386363 0)
(0.0225146 0.0758256 0)
(0.00245904 0.100897 0)
(-0.00732571 0.104956 0)
(-0.00396402 0.110652 0)
(0.023054 0.116528 0)
(0.0539342 0.119425 0)
(0.0682727 0.100673 0)
(0.0573627 0.0706067 0)
(0.0187397 0.0524927 0)
(-0.00536791 0.0302569 0)
(-0.012409 0.0258463 0)
(-0.0259296 0.0363948 0)
(-0.0416562 0.0361642 0)
(-0.0490515 0.033261 0)
(-0.0471239 0.0440887 0)
(-0.05058 0.0502677 0)
(-0.0426723 0.0588263 0)
(-0.0253317 0.0776568 0)
(-0.0194459 0.0945802 0)
(0.00560372 0.0975012 0)
(0.0594927 0.0896312 0)
(0.108362 0.0842384 0)
(0.115621 0.0948811 0)
(0.0872233 0.117517 0)
(0.0539437 0.128935 0)
(0.0379965 0.122755 0)
(0.039252 0.107668 0)
(0.0245603 0.0758973 0)
(-0.0190622 0.0521674 0)
(-0.0745288 0.0414819 0)
(-0.120189 0.0353299 0)
(-0.145048 0.0340156 0)
(-0.141348 0.0287946 0)
(-0.114735 0.0169079 0)
(-0.080658 0.00480541 0)
(-0.0353811 0.00420489 0)
(0.014296 0.00337109 0)
(0.049385 0.00261183 0)
(0.0724453 0.000913824 0)
(0.0868228 0.00982846 0)
(0.0984379 0.0202883 0)
(0.123194 0.0288819 0)
(0.132861 0.0471669 0)
(0.115812 0.05534 0)
(0.0963478 0.0550272 0)
(0.0703677 0.0652981 0)
(0.0279097 0.0965673 0)
(-0.0203264 0.0983088 0)
(-0.0548775 0.08167 0)
(-0.0885392 0.0821419 0)
(-0.128722 0.0845872 0)
(-0.15632 0.0966737 0)
(-0.156438 0.0956545 0)
(-0.135003 0.0711819 0)
(-0.103377 0.0437376 0)
(-0.0708155 0.0176353 0)
(-0.037674 -0.00428063 0)
(-0.00926365 -0.0184541 0)
(0.0150618 -0.0131194 0)
(0.0525117 -0.0115869 0)
(0.0969867 -0.0249018 0)
(0.122071 -0.0371398 0)
(0.127797 -0.0457823 0)
(0.131031 -0.0459255 0)
(0.114817 -0.0404359 0)
(0.0861035 -0.0264677 0)
(0.0593928 -0.0106645 0)
(0.0251973 -0.00315228 0)
(-0.0271207 0.00612515 0)
(-0.0774691 0.00290202 0)
(-0.117847 -0.0100329 0)
(-0.153839 -0.0258039 0)
(-0.16079 -0.0253545 0)
(-0.125108 -0.00973528 0)
(-0.0841728 -0.0178827 0)
(-0.0679595 -0.0127145 0)
(-0.0521494 0.0112397 0)
(-0.0157801 0.0609381 0)
(0.0243565 0.100829 0)
(0.0515304 0.103643 0)
(0.0583816 0.0955773 0)
(0.0574543 0.0951105 0)
(0.0628174 0.0938508 0)
(0.0890688 0.10264 0)
(0.118158 0.107029 0)
(0.132798 0.102592 0)
(0.122995 0.107731 0)
(0.0826394 0.11512 0)
(0.0404663 0.11269 0)
(-0.000461047 0.0749397 0)
(-0.0610728 0.0442822 0)
(-0.112482 0.0455444 0)
(-0.12595 0.0461797 0)
(-0.0956902 0.0472747 0)
(-0.0512978 0.0581562 0)
(-0.0366747 0.0490539 0)
(-0.045065 0.0317071 0)
(-0.0510156 0.0304125 0)
(-0.0234236 0.0325788 0)
(0.0342425 0.0489862 0)
(0.046589 0.0779661 0)
(0.0100457 0.104031 0)
(-0.00427928 0.119838 0)
(0.00533472 0.134382 0)
(0.0341692 0.143052 0)
(0.0586582 0.14501 0)
(0.056565 0.129404 0)
(0.0374387 0.0929177 0)
(0.00257262 0.0624024 0)
(-0.0131511 0.0366428 0)
(-0.013249 0.0340345 0)
(-0.0247083 0.0390642 0)
(-0.03872 0.0450689 0)
(-0.0458669 0.0494608 0)
(-0.0498367 0.0529444 0)
(-0.056554 0.054149 0)
(-0.0410416 0.0654165 0)
(-0.0189791 0.0859667 0)
(-0.0107022 0.107146 0)
(0.0122817 0.122318 0)
(0.062287 0.115856 0)
(0.118723 0.111731 0)
(0.136524 0.118164 0)
(0.10715 0.133749 0)
(0.0623867 0.135084 0)
(0.0394167 0.130602 0)
(0.0282647 0.121561 0)
(0.00178991 0.0943751 0)
(-0.036544 0.0710057 0)
(-0.0877927 0.0586183 0)
(-0.133168 0.04252 0)
(-0.160532 0.0252019 0)
(-0.159154 0.019269 0)
(-0.130649 0.0166801 0)
(-0.0894727 0.0138867 0)
(-0.0372541 0.0200138 0)
(0.0131061 0.0229184 0)
(0.0516683 0.0111721 0)
(0.0820374 0.000365603 0)
(0.1023 0.00283087 0)
(0.117059 0.0256714 0)
(0.144493 0.0437613 0)
(0.153738 0.0549975 0)
(0.128976 0.0640408 0)
(0.107098 0.0616156 0)
(0.0922467 0.0660488 0)
(0.0427103 0.0858445 0)
(-0.0271444 0.0987726 0)
(-0.0697001 0.0976194 0)
(-0.10164 0.0891009 0)
(-0.135913 0.090646 0)
(-0.167254 0.095774 0)
(-0.179395 0.0938592 0)
(-0.16236 0.0819096 0)
(-0.130931 0.0570538 0)
(-0.0980604 0.0235509 0)
(-0.0576092 -0.00113431 0)
(-0.0108087 -0.0193656 0)
(0.0250515 -0.0158118 0)
(0.0559136 -0.0110488 0)
(0.0987535 -0.0226627 0)
(0.130062 -0.0352457 0)
(0.138075 -0.0404822 0)
(0.143071 -0.0390721 0)
(0.132861 -0.0440197 0)
(0.103583 -0.0321036 0)
(0.0669528 -0.0186508 0)
(0.026563 -0.00641025 0)
(-0.0309535 0.00495674 0)
(-0.0913561 0.00188605 0)
(-0.140157 -0.00158281 0)
(-0.168979 -0.00923175 0)
(-0.16019 -0.00113918 0)
(-0.13595 0.0102339 0)
(-0.105159 -0.00772339 0)
(-0.0701526 -0.0119635 0)
(-0.0357214 0.0148973 0)
(0.0107467 0.0477998 0)
(0.0403983 0.0940413 0)
(0.0510189 0.112071 0)
(0.05684 0.108531 0)
(0.061591 0.10554 0)
(0.0745136 0.105084 0)
(0.0993963 0.111057 0)
(0.119491 0.107217 0)
(0.137128 0.100989 0)
(0.140584 0.102952 0)
(0.103034 0.119308 0)
(0.0328298 0.108806 0)
(-0.0286835 0.0594361 0)
(-0.073167 0.0285266 0)
(-0.115457 0.048717 0)
(-0.129811 0.061037 0)
(-0.0959513 0.0744139 0)
(-0.0608742 0.0632181 0)
(-0.057707 0.039235 0)
(-0.0572819 0.0228624 0)
(-0.0485957 0.0171619 0)
(-0.0151728 0.0357843 0)
(0.0413949 0.0610508 0)
(0.0576355 0.0712304 0)
(0.0308501 0.0955657 0)
(0.0162367 0.13393 0)
(0.0183294 0.15825 0)
(0.0395589 0.168489 0)
(0.0546822 0.168996 0)
(0.0409632 0.152317 0)
(0.0173668 0.109933 0)
(-0.0164309 0.0586233 0)
(-0.0233574 0.0285594 0)
(-0.010606 0.0274187 0)
(-0.0203549 0.0463845 0)
(-0.0395344 0.0605659 0)
(-0.052212 0.0624567 0)
(-0.0555328 0.0618166 0)
(-0.0544064 0.0718527 0)
(-0.0307678 0.0865128 0)
(-0.00196606 0.090868 0)
(0.0057911 0.105632 0)
(0.0166532 0.124489 0)
(0.0618187 0.139714 0)
(0.124269 0.145767 0)
(0.148227 0.138255 0)
(0.116335 0.136874 0)
(0.0671008 0.137548 0)
(0.0411618 0.132183 0)
(0.0217763 0.125942 0)
(-0.0092992 0.116003 0)
(-0.0492458 0.10125 0)
(-0.1067 0.0740038 0)
(-0.161934 0.0501751 0)
(-0.182552 0.0213314 0)
(-0.167777 0.0149436 0)
(-0.135325 0.0179437 0)
(-0.0892148 0.0257497 0)
(-0.0333681 0.0286701 0)
(0.00946936 0.0240924 0)
(0.040296 0.00923459 0)
(0.0788614 0.00155802 0)
(0.122123 0.00720915 0)
(0.14837 0.0310819 0)
(0.166352 0.0518364 0)
(0.169048 0.0549911 0)
(0.139142 0.0623995 0)
(0.111348 0.0668224 0)
(0.0954808 0.0683957 0)
(0.0526221 0.0691955 0)
(-0.0176236 0.0898709 0)
(-0.0745916 0.0968919 0)
(-0.112817 0.0926356 0)
(-0.14826 0.0939027 0)
(-0.180622 0.0961399 0)
(-0.191656 0.101116 0)
(-0.182802 0.0867634 0)
(-0.161844 0.0565947 0)
(-0.123835 0.0209852 0)
(-0.0737708 0.00268745 0)
(-0.0181597 -0.0126861 0)
(0.0301111 -0.01554 0)
(0.0633042 -0.0121811 0)
(0.100579 -0.0133159 0)
(0.133503 -0.0298565 0)
(0.149898 -0.0327384 0)
(0.150873 -0.0311603 0)
(0.13689 -0.0440701 0)
(0.113389 -0.0426461 0)
(0.0764968 -0.030883 0)
(0.03034 -0.0091518 0)
(-0.0362951 0.000356395 0)
(-0.0983546 -0.000461539 0)
(-0.146531 0.0101607 0)
(-0.177454 0.0174972 0)
(-0.171709 0.0231866 0)
(-0.154275 0.0111353 0)
(-0.122412 0.00879062 0)
(-0.0702684 0.000431821 0)
(-0.0240814 0.0177317 0)
(0.0299944 0.0438324 0)
(0.06358 0.085507 0)
(0.059339 0.116002 0)
(0.0558666 0.116882 0)
(0.0615462 0.114648 0)
(0.0770827 0.112045 0)
(0.104087 0.111403 0)
(0.126987 0.101774 0)
(0.147527 0.0917135 0)
(0.154245 0.0954322 0)
(0.102663 0.10273 0)
(0.00812549 0.0742254 0)
(-0.053401 0.0433252 0)
(-0.0690302 0.0276968 0)
(-0.0941659 0.0458226 0)
(-0.116638 0.0691473 0)
(-0.105865 0.0839538 0)
(-0.0895092 0.0628174 0)
(-0.0780994 0.0392955 0)
(-0.0719107 0.0208273 0)
(-0.0508793 -0.00240984 0)
(0.00081406 0.0135168 0)
(0.0538836 0.0469172 0)
(0.0675869 0.0722815 0)
(0.0542701 0.10496 0)
(0.0428239 0.150948 0)
(0.0347375 0.180089 0)
(0.0485926 0.190953 0)
(0.0548196 0.182087 0)
(0.0213859 0.149711 0)
(-0.0243497 0.0900857 0)
(-0.0522727 0.0337745 0)
(-0.0335867 0.0287078 0)
(-2.39466e-05 0.0417264 0)
(-0.00251443 0.0613999 0)
(-0.0314957 0.0719485 0)
(-0.0519648 0.0797728 0)
(-0.0517947 0.0859658 0)
(-0.0477981 0.0952777 0)
(-0.0351809 0.105153 0)
(-0.00996756 0.0946339 0)
(0.0132269 0.0993498 0)
(0.0411258 0.120008 0)
(0.0858659 0.152757 0)
(0.128739 0.163925 0)
(0.142851 0.143096 0)
(0.11981 0.124459 0)
(0.0711553 0.127 0)
(0.0409941 0.1313 0)
(0.0231187 0.131161 0)
(-0.0142336 0.130672 0)
(-0.0707229 0.117833 0)
(-0.134029 0.0882408 0)
(-0.184888 0.0643957 0)
(-0.201765 0.035659 0)
(-0.176848 0.0196517 0)
(-0.135441 0.0219819 0)
(-0.0902102 0.0338619 0)
(-0.042191 0.0318267 0)
(0.000139514 0.0143166 0)
(0.0411816 0.00175108 0)
(0.0908143 0.00915146 0)
(0.137683 0.0217447 0)
(0.165998 0.0321699 0)
(0.179399 0.0436714 0)
(0.178398 0.0432778 0)
(0.152313 0.0487099 0)
(0.122296 0.0626299 0)
(0.0998668 0.0652158 0)
(0.0589716 0.0632991 0)
(-0.0118105 0.0780065 0)
(-0.0781098 0.0811247 0)
(-0.119273 0.0835527 0)
(-0.152569 0.0874412 0)
(-0.182803 0.0962103 0)
(-0.206192 0.102295 0)
(-0.212063 0.0778409 0)
(-0.192283 0.048209 0)
(-0.146208 0.0272752 0)
(-0.0859843 0.012364 0)
(-0.0224917 -0.0018147 0)
(0.0327002 -0.00865206 0)
(0.0700438 -0.0104703 0)
(0.102335 -0.00645076 0)
(0.13459 -0.0220548 0)
(0.155924 -0.0300514 0)
(0.151145 -0.0338743 0)
(0.135915 -0.0416955 0)
(0.117415 -0.043833 0)
(0.0859201 -0.0318788 0)
(0.0372235 -0.00863655 0)
(-0.0365141 -0.00523077 0)
(-0.0970804 0.00885868 0)
(-0.14481 0.0248473 0)
(-0.180122 0.0260679 0)
(-0.186592 0.029341 0)
(-0.167625 0.0192219 0)
(-0.132304 0.0256132 0)
(-0.0803942 0.0196291 0)
(-0.0178251 0.0140819 0)
(0.0497717 0.0403145 0)
(0.0864329 0.0771595 0)
(0.0712731 0.109102 0)
(0.0572118 0.11818 0)
(0.0631277 0.119083 0)
(0.0804002 0.112482 0)
(0.102828 0.105886 0)
(0.118109 0.0999822 0)
(0.146687 0.0862167 0)
(0.162697 0.0758008 0)
(0.0997458 0.0612337 0)
(-0.00169177 0.0424971 0)
(-0.0579626 0.0440068 0)
(-0.071026 0.0471052 0)
(-0.0889084 0.0384059 0)
(-0.108937 0.0501573 0)
(-0.109744 0.0582321 0)
(-0.103623 0.0520654 0)
(-0.0983441 0.0339182 0)
(-0.0970044 0.00613275 0)
(-0.0620436 -0.0046589 0)
(0.0142126 0.00444118 0)
(0.0791718 0.0280787 0)
(0.0966557 0.069112 0)
(0.0871216 0.126632 0)
(0.0722066 0.170623 0)
(0.0507477 0.188304 0)
(0.0459201 0.191083 0)
(0.0303981 0.164763 0)
(-0.0204541 0.12754 0)
(-0.0624202 0.077238 0)
(-0.0575991 0.0402441 0)
(-0.0154113 0.0494576 0)
(0.0135945 0.0591498 0)
(0.000109615 0.0655662 0)
(-0.0296854 0.0699344 0)
(-0.0473017 0.0810638 0)
(-0.0507213 0.0910792 0)
(-0.0470917 0.0924114 0)
(-0.0369634 0.103152 0)
(-0.00964957 0.103438 0)
(0.0241807 0.110616 0)
(0.0590755 0.132793 0)
(0.100402 0.148343 0)
(0.125873 0.14953 0)
(0.129313 0.138229 0)
(0.114878 0.120662 0)
(0.0817125 0.113129 0)
(0.0520099 0.127424 0)
(0.0263331 0.131284 0)
(-0.0177113 0.120263 0)
(-0.0831746 0.10619 0)
(-0.152713 0.098381 0)
(-0.210471 0.0853998 0)
(-0.227034 0.0520424 0)
(-0.189347 0.0341149 0)
(-0.134612 0.0298612 0)
(-0.0886482 0.0375956 0)
(-0.0506249 0.0292496 0)
(-0.0115206 0.0146682 0)
(0.041478 0.000933793 0)
(0.101962 0.00810656 0)
(0.150216 0.0221997 0)
(0.177581 0.0314153 0)
(0.188458 0.0381123 0)
(0.186246 0.0331643 0)
(0.16504 0.0338679 0)
(0.132111 0.0495527 0)
(0.100688 0.0542182 0)
(0.0623674 0.0499269 0)
(-0.00867526 0.0494049 0)
(-0.0790253 0.0555313 0)
(-0.120542 0.0726784 0)
(-0.154151 0.0863715 0)
(-0.186134 0.0895636 0)
(-0.22102 0.0871027 0)
(-0.236335 0.0628834 0)
(-0.209708 0.0480659 0)
(-0.157204 0.0411037 0)
(-0.0980952 0.0196061 0)
(-0.0321914 0.00400309 0)
(0.0295495 -0.00322734 0)
(0.0746944 -0.00900981 0)
(0.104831 -0.00979461 0)
(0.130439 -0.0214659 0)
(0.155205 -0.0345906 0)
(0.154033 -0.0386887 0)
(0.136947 -0.0381665 0)
(0.121561 -0.035064 0)
(0.0946371 -0.0241625 0)
(0.0402978 -0.00563398 0)
(-0.029705 0.00319211 0)
(-0.0873938 0.0196119 0)
(-0.1502 0.0257041 0)
(-0.192657 0.0248404 0)
(-0.195846 0.0276262 0)
(-0.175509 0.0223949 0)
(-0.139092 0.022387 0)
(-0.093623 0.0313065 0)
(-0.0212477 0.0349679 0)
(0.0668646 0.0488987 0)
(0.107894 0.0696247 0)
(0.086732 0.0939244 0)
(0.0639001 0.111889 0)
(0.0612113 0.122309 0)
(0.0739661 0.116999 0)
(0.103739 0.093415 0)
(0.123016 0.0856532 0)
(0.141047 0.0775681 0)
(0.146929 0.0468668 0)
(0.0878416 0.00660284 0)
(0.00267612 -0.00326474 0)
(-0.0460187 0.0233109 0)
(-0.0726777 0.0472403 0)
(-0.094734 0.0356863 0)
(-0.107485 0.0325349 0)
(-0.11161 0.0410483 0)
(-0.115367 0.0364355 0)
(-0.119947 0.0159859 0)
(-0.107926 -0.00425711 0)
(-0.0590142 0.0107885 0)
(0.019007 0.0230058 0)
(0.0968177 0.0386763 0)
(0.136947 0.0658205 0)
(0.12753 0.116923 0)
(0.088628 0.154751 0)
(0.052002 0.174003 0)
(0.034945 0.178785 0)
(0.0126428 0.146097 0)
(-0.0382419 0.115464 0)
(-0.0843275 0.0876605 0)
(-0.0695655 0.0709005 0)
(-0.0179575 0.0620058 0)
(0.0120163 0.0509119 0)
(0.00406876 0.0461489 0)
(-0.0229194 0.0488712 0)
(-0.0404878 0.068081 0)
(-0.048298 0.0763534 0)
(-0.0437961 0.0736199 0)
(-0.0310654 0.085945 0)
(-0.00672225 0.0984628 0)
(0.0349206 0.103516 0)
(0.0715367 0.127857 0)
(0.103211 0.140079 0)
(0.128179 0.13403 0)
(0.129574 0.132374 0)
(0.109504 0.123996 0)
(0.0836104 0.111478 0)
(0.0603371 0.118673 0)
(0.0216033 0.122713 0)
(-0.0317798 0.107205 0)
(-0.0890446 0.0881138 0)
(-0.154531 0.0839165 0)
(-0.226504 0.0816012 0)
(-0.248271 0.0754463 0)
(-0.201906 0.0597915 0)
(-0.140313 0.0410149 0)
(-0.0957728 0.0309916 0)
(-0.0612238 0.0148161 0)
(-0.0196749 0.00125721 0)
(0.0404674 -0.00382364 0)
(0.113334 0.00197868 0)
(0.163938 0.0132578 0)
(0.188328 0.0222648 0)
(0.191934 0.0276429 0)
(0.186113 0.0263699 0)
(0.17372 0.0272672 0)
(0.144191 0.0324367 0)
(0.103946 0.0354455 0)
(0.0557076 0.0302126 0)
(-0.0110566 0.0195445 0)
(-0.0678474 0.0369844 0)
(-0.106459 0.0622686 0)
(-0.15218 0.0830691 0)
(-0.19526 0.0803073 0)
(-0.238444 0.0714701 0)
(-0.251865 0.061185 0)
(-0.217 0.0539837 0)
(-0.17287 0.0429368 0)
(-0.115669 0.0219907 0)
(-0.038173 0.00666365 0)
(0.0276822 -0.00108761 0)
(0.0727868 -0.00590415 0)
(0.102939 -0.0155272 0)
(0.127105 -0.0259598 0)
(0.15352 -0.0418624 0)
(0.156669 -0.0511132 0)
(0.142967 -0.0378839 0)
(0.126708 -0.0216279 0)
(0.0995805 -0.0120446 0)
(0.0424728 -0.0069586 0)
(-0.0312633 0.0117752 0)
(-0.0952639 0.0178868 0)
(-0.157364 0.0173594 0)
(-0.195862 0.0247039 0)
(-0.205526 0.0315093 0)
(-0.187863 0.0310035 0)
(-0.140758 0.0267049 0)
(-0.0842934 0.0360642 0)
(-0.0158252 0.0663772 0)
(0.0668378 0.0749319 0)
(0.113904 0.0600166 0)
(0.0996428 0.0662582 0)
(0.0782666 0.0835859 0)
(0.069733 0.0968499 0)
(0.064313 0.100257 0)
(0.0868082 0.0927452 0)
(0.114799 0.0817128 0)
(0.127113 0.058571 0)
(0.119229 0.0168326 0)
(0.0704844 -0.027077 0)
(0.0162873 -0.0368209 0)
(-0.0176106 -0.0170281 0)
(-0.0614205 0.0174893 0)
(-0.10178 0.0260259 0)
(-0.109162 0.0180567 0)
(-0.112518 0.0144685 0)
(-0.1285 0.0121633 0)
(-0.134931 0.00327317 0)
(-0.107251 0.00219325 0)
(-0.0478455 0.0138579 0)
(0.0297096 0.0300471 0)
(0.106713 0.052902 0)
(0.15152 0.0712076 0)
(0.151261 0.0967518 0)
(0.114402 0.124895 0)
(0.0700296 0.151337 0)
(0.0281327 0.153528 0)
(-0.0127315 0.126336 0)
(-0.0598159 0.0980996 0)
(-0.0919284 0.0894631 0)
(-0.0739809 0.0937494 0)
(-0.0286851 0.0745233 0)
(0.00216802 0.0466307 0)
(-0.00236588 0.0300032 0)
(-0.0156573 0.0231872 0)
(-0.0300971 0.0414925 0)
(-0.0501597 0.045499 0)
(-0.0434904 0.0447824 0)
(-0.0214282 0.0557389 0)
(0.00187388 0.0779587 0)
(0.0461634 0.0901885 0)
(0.088251 0.104349 0)
(0.109014 0.12057 0)
(0.125666 0.118837 0)
(0.128198 0.1132 0)
(0.105904 0.104303 0)
(0.0836248 0.103127 0)
(0.064875 0.111047 0)
(0.0207052 0.1073 0)
(-0.0425721 0.0918782 0)
(-0.102119 0.0750388 0)
(-0.161566 0.0712129 0)
(-0.222495 0.0719397 0)
(-0.249788 0.0857155 0)
(-0.221335 0.0661839 0)
(-0.16146 0.0305444 0)
(-0.111803 0.0058484 0)
(-0.0740853 -0.00449998 0)
(-0.0242999 -0.00923502 0)
(0.0454266 -0.00109298 0)
(0.120178 -0.000333767 0)
(0.172585 -0.00138718 0)
(0.196809 0.00145737 0)
(0.200591 0.0116629 0)
(0.194723 0.0176814 0)
(0.177057 0.0183199 0)
(0.143738 0.0241065 0)
(0.102161 0.0251809 0)
(0.0509444 0.00975123 0)
(-0.0063595 -0.00239161 0)
(-0.0530565 0.0220477 0)
(-0.0944744 0.04929 0)
(-0.150391 0.0595012 0)
(-0.204939 0.0588712 0)
(-0.245128 0.0484321 0)
(-0.258093 0.0585352 0)
(-0.230158 0.0577984 0)
(-0.185387 0.0443151 0)
(-0.126741 0.032963 0)
(-0.0483298 0.0126796 0)
(0.0238323 -0.00027878 0)
(0.0698969 -0.00128735 0)
(0.0974915 -0.0147804 0)
(0.119076 -0.0320272 0)
(0.144105 -0.0507865 0)
(0.162442 -0.0625589 0)
(0.160897 -0.0370683 0)
(0.138455 -0.00906696 0)
(0.0981257 -0.00331555 0)
(0.0417664 -0.00930443 0)
(-0.0356478 0.0119485 0)
(-0.102448 0.0150553 0)
(-0.162154 0.0196348 0)
(-0.198468 0.0289659 0)
(-0.20678 0.0376581 0)
(-0.19366 0.0466684 0)
(-0.148662 0.0374827 0)
(-0.0760702 0.03242 0)
(-0.00232874 0.0526271 0)
(0.0547223 0.0750231 0)
(0.0964277 0.0622996 0)
(0.101439 0.0511331 0)
(0.0861895 0.0511519 0)
(0.0754993 0.0600924 0)
(0.0749148 0.0646138 0)
(0.0956179 0.079888 0)
(0.104463 0.0766676 0)
(0.100384 0.0437205 0)
(0.0907964 -0.00603971 0)
(0.0543535 -0.0479494 0)
(0.0145435 -0.0457311 0)
(-0.00352205 -0.0294318 0)
(-0.0405582 -0.00532524 0)
(-0.0958698 -0.000423884 0)
(-0.119237 0.00170239 0)
(-0.120441 -0.000170119 0)
(-0.128836 -0.00603373 0)
(-0.132784 -0.0200487 0)
(-0.105526 -0.0158244 0)
(-0.043481 -0.00693338 0)
(0.0434527 0.0132897 0)
(0.12371 0.0515907 0)
(0.166873 0.0794969 0)
(0.165855 0.0962809 0)
(0.128803 0.109497 0)
(0.0741968 0.11978 0)
(0.0185926 0.114295 0)
(-0.0255186 0.101395 0)
(-0.062589 0.0907751 0)
(-0.0849859 0.0967073 0)
(-0.0785695 0.0968715 0)
(-0.0514137 0.0724648 0)
(-0.0204403 0.0358485 0)
(-0.013819 0.00699466 0)
(-0.0159687 0.00107287 0)
(-0.0262326 0.00830612 0)
(-0.0483623 0.0123318 0)
(-0.0386522 0.0174343 0)
(-0.00847646 0.0218702 0)
(0.0178246 0.0422011 0)
(0.0548707 0.0652061 0)
(0.095861 0.0776707 0)
(0.117184 0.0918908 0)
(0.127114 0.0981596 0)
(0.12383 0.0932896 0)
(0.107103 0.0783201 0)
(0.0930921 0.0843965 0)
(0.0669304 0.0927356 0)
(0.00959689 0.0812735 0)
(-0.0551533 0.0639004 0)
(-0.105735 0.050143 0)
(-0.160002 0.0568277 0)
(-0.220326 0.0706432 0)
(-0.257667 0.0749115 0)
(-0.247585 0.0552799 0)
(-0.189012 0.0130661 0)
(-0.124489 -0.0127409 0)
(-0.073459 -0.0212724 0)
(-0.0163075 -0.0193585 0)
(0.0498741 -0.00785326 0)
(0.117784 -0.00773988 0)
(0.171368 -0.0153545 0)
(0.204991 -0.0198094 0)
(0.211288 -0.00963241 0)
(0.198129 0.00122179 0)
(0.184599 0.00627209 0)
(0.153834 0.00648902 0)
(0.0959824 0.0131097 0)
(0.0357453 0.0036918 0)
(-0.00405752 -0.00488666 0)
(-0.0341112 0.0150048 0)
(-0.0850642 0.0373739 0)
(-0.152611 0.0341905 0)
(-0.211501 0.0359215 0)
(-0.246649 0.0347239 0)
(-0.252071 0.0519992 0)
(-0.233092 0.0562713 0)
(-0.194883 0.0456879 0)
(-0.140539 0.0306277 0)
(-0.0620018 0.00985234 0)
(0.0201236 -0.00257577 0)
(0.0665741 0.000594221 0)
(0.0859227 -0.0120304 0)
(0.106532 -0.0374365 0)
(0.136306 -0.0549928 0)