/*--------------------------------*- C++ -*----------------------------------*\
| =========                 |                                                 |
| \\      /  F ield         | OpenFOAM: The Open Source CFD Toolbox           |
|  \\    /   O peration     | Version:  v2012                                 |
|   \\  /    A nd           | Website:  www.openfoam.com                      |
|    \\/     M anipulation  |                                                 |
\*---------------------------------------------------------------------------*/
FoamFile
{
    version     2.0;
    format      ascii;
    class       volScalarField;
    location    "8.75";
    object      Psi_z;
}
// * * * * * * * * * * * * * * * * * * * * * * * * * * * * * * * * * * * * * //

dimensions      [0 2 -1 0 0 0 0];


internalField   nonuniform List<scalar> 
65536
(
9.30209e-06
2.79063e-05
4.65107e-05
6.51154e-05
8.37205e-05
0.000102326
0.000120932
0.000139539
0.000158146
0.000176754
0.000195362
0.000213971
0.000232581
0.00025119
0.000269799
0.000288408
0.000307017
0.000325624
0.00034423
0.000362833
0.000381434
0.000400032
0.000418625
0.000437213
0.000455796
0.000474371
0.000492939
0.000511497
0.000530044
0.000548579
0.0005671
0.000585606
0.000604095
0.000622565
0.000641013
0.000659438
0.000677838
0.000696209
0.00071455
0.000732858
0.000751129
0.000769362
0.000787552
0.000805696
0.000823792
0.000841836
0.000859823
0.00087775
0.000895613
0.000913408
0.000931131
0.000948777
0.000966342
0.00098382
0.00100121
0.0010185
0.00103569
0.00105277
0.00106975
0.0010866
0.00110334
0.00111994
0.00113641
0.00115274
0.00116892
0.00118495
0.00120083
0.00121653
0.00123207
0.00124743
0.0012626
0.00127758
0.00129237
0.00130695
0.00132132
0.00133548
0.00134941
0.00136311
0.00137657
0.00138979
0.00140276
0.00141547
0.00142792
0.0014401
0.00145201
0.00146363
0.00147497
0.00148602
0.00149676
0.0015072
0.00151734
0.00152715
0.00153665
0.00154582
0.00155466
0.00156317
0.00157134
0.00157917
0.00158665
0.00159379
0.00160057
0.00160699
0.00161306
0.00161876
0.0016241
0.00162907
0.00163368
0.00163792
0.00164179
0.00164529
0.00164841
0.00165117
0.00165355
0.00165556
0.0016572
0.00165847
0.00165937
0.0016599
0.00166006
0.00165986
0.0016593
0.00165838
0.00165709
0.00165546
0.00165347
0.00165113
0.00164844
0.00164541
0.00164205
0.00163835
0.00163432
0.00162996
0.00162528
0.00162029
0.00161498
0.00160937
0.00160345
0.00159723
0.00159073
0.00158393
0.00157686
0.0015695
0.00156188
0.00155399
0.00154585
0.00153745
0.0015288
0.00151991
0.00151078
0.00150142
0.00149184
0.00148203
0.00147201
0.00146179
0.00145136
0.00144073
0.00142992
0.00141891
0.00140773
0.00139637
0.00138484
0.00137315
0.0013613
0.00134929
0.00133713
0.00132484
0.0013124
0.00129983
0.00128712
0.0012743
0.00126135
0.00124829
0.00123512
0.00122184
0.00120846
0.00119497
0.0011814
0.00116773
0.00115398
0.00114015
0.00112623
0.00111224
0.00109818
0.00108405
0.00106985
0.00105559
0.00104128
0.0010269
0.00101247
0.000997994
0.000983467
0.000968895
0.00095428
0.000939625
0.000924932
0.000910203
0.00089544
0.000880646
0.000865823
0.000850972
0.000836095
0.000821195
0.000806272
0.000791329
0.000776368
0.000761388
0.000746393
0.000731384
0.000716361
0.000701325
0.000686279
0.000671223
0.000656159
0.000641087
0.000626007
0.000610922
0.000595832
0.000580738
0.000565639
0.000550538
0.000535435
0.00052033
0.000505223
0.000490116
0.000475009
0.000459902
0.000444795
0.00042969
0.000414585
0.000399482
0.00038438
0.000369281
0.000354183
0.000339088
0.000323995
0.000308904
0.000293815
0.00027873
0.000263646
0.000248565
0.000233487
0.00021841
0.000203336
0.000188265
0.000173195
0.000158128
0.000143062
0.000127998
0.000112935
9.78745e-05
8.28147e-05
6.7756e-05
5.26982e-05
3.76411e-05
2.25844e-05
7.52812e-06
2.79062e-05
8.37188e-05
0.000139532
0.000195346
0.000251161
0.000306978
0.000362796
0.000418616
0.000474438
0.000530262
0.000586087
0.000641914
0.000697742
0.00075357
0.000809398
0.000865226
0.000921051
0.000976873
0.00103269
0.0010885
0.00114431
0.0012001
0.00125588
0.00131165
0.00136739
0.00142312
0.00147883
0.0015345
0.00159014
0.00164575
0.00170132
0.00175684
0.0018123
0.00186771
0.00192306
0.00197834
0.00203354
0.00208866
0.00214368
0.00219861
0.00225343
0.00230813
0.0023627
0.00241714
0.00247143
0.00252556
0.00257953
0.00263331
0.00268691
0.0027403
0.00279347
0.00284641
0.00289911
0.00295155
0.00300372
0.0030556
0.00310718
0.00315843
0.00320936
0.00325993
0.00331013
0.00335995
0.00340937
0.00345836
0.00350692
0.00355502
0.00360264
0.00364977
0.00369638
0.00374246
0.00378799
0.00383295
0.00387731
0.00392106
0.00396418
0.00400665
0.00404845
0.00408955
0.00412995
0.00416961
0.00420853
0.00424667
0.00428403
0.00432058
0.00435631
0.00439119
0.00442521
0.00445835
0.00449059
0.00452192
0.00455232
0.00458178
0.00461027
0.00463779
0.00466433
0.00468986
0.00471437
0.00473786
0.00476031
0.00478171
0.00480206
0.00482133
0.00483953
0.00485664
0.00487266
0.00488759
0.00490141
0.00491413
0.00492573
0.00493623
0.00494561
0.00495387
0.00496102
0.00496705
0.00497197
0.00497577
0.00497847
0.00498006
0.00498055
0.00497995
0.00497826
0.00497548
0.00497163
0.00496672
0.00496074
0.00495372
0.00494567
0.00493658
0.00492648
0.00491537
0.00490328
0.0048902
0.00487616
0.00486117
0.00484525
0.0048284
0.00481064
0.00479199
0.00477246
0.00475207
0.00473084
0.00470878
0.00468591
0.00466224
0.0046378
0.00461259
0.00458664
0.00455996
0.00453257
0.00450448
0.00447573
0.00444631
0.00441625
0.00438556
0.00435427
0.00432239
0.00428993
0.00425691
0.00422336
0.00418928
0.00415468
0.0041196
0.00408404
0.00404801
0.00401154
0.00397464
0.00393732
0.0038996
0.00386149
0.00382301
0.00378417
0.00374498
0.00370546
0.00366561
0.00362546
0.00358502
0.00354429
0.00350329
0.00346203
0.00342052
0.00337877
0.0033368
0.00329461
0.00325221
0.00320962
0.00316684
0.00312388
0.00308076
0.00303747
0.00299403
0.00295045
0.00290673
0.00286288
0.00281891
0.00277483
0.00273064
0.00268635
0.00264197
0.00259749
0.00255294
0.00250831
0.00246361
0.00241884
0.00237401
0.00232912
0.00228418
0.00223919
0.00219416
0.00214909
0.00210399
0.00205885
0.00201368
0.00196848
0.00192327
0.00187803
0.00183277
0.0017875
0.00174222
0.00169692
0.00165162
0.00160631
0.00156099
0.00151567
0.00147035
0.00142503
0.0013797
0.00133438
0.00128907
0.00124375
0.00119844
0.00115314
0.00110784
0.00106255
0.00101726
0.000971981
0.000926709
0.000881444
0.000836186
0.000790936
0.000745693
0.000700457
0.000655228
0.000610007
0.000564792
0.000519583
0.000474381
0.000429184
0.000383992
0.000338805
0.000293622
0.000248443
0.000203267
0.000158094
0.000112923
6.77531e-05
2.25843e-05
4.65101e-05
0.000139531
0.000232552
0.000325575
0.0004186
0.000511628
0.000604658
0.000697691
0.000790728
0.000883767
0.00097681
0.00106986
0.0011629
0.00125595
0.001349
0.00144204
0.00153509
0.00162813
0.00172116
0.00181418
0.00190719
0.00200018
0.00209315
0.0021861
0.00227901
0.0023719
0.00246474
0.00255754
0.00265028
0.00274296
0.00283558
0.00292812
0.00302057
0.00311293
0.00320518
0.00329732
0.00338933
0.0034812
0.00357292
0.00366447
0.00375584
0.00384702
0.00393799
0.00402873
0.00411922
0.00420946
0.00429941
0.00438907
0.00447841
0.0045674
0.00465604
0.00474429
0.00483214
0.00491955
0.00500652
0.005093
0.00517898
0.00526443
0.00534932
0.00543363
0.00551732
0.00560037
0.00568275
0.00576443
0.00584537
0.00592556
0.00600495
0.00608352
0.00616123
0.00623805
0.00631395
0.0063889
0.00646286
0.0065358
0.00660769
0.00667849
0.00674818
0.00681671
0.00688406
0.00695019
0.00701507
0.00707866
0.00714095
0.00720189
0.00726145
0.0073196
0.00737632
0.00743157
0.00748533
0.00753757
0.00758825
0.00763736
0.00768487
0.00773076
0.00777499
0.00781756
0.00785843
0.00789759
0.00793502
0.0079707
0.00800461
0.00803674
0.00806708
0.00809561
0.00812232
0.00814721
0.00817025
0.00819145
0.00821079
0.00822829
0.00824392
0.00825769
0.0082696
0.00827965
0.00828785
0.00829419
0.00829868
0.00830132
0.00830214
0.00830112
0.0082983
0.00829366
0.00828724
0.00827904
0.00826907
0.00825736
0.00824392
0.00822876
0.00821191
0.00819339
0.00817322
0.00815141
0.008128
0.008103
0.00807643
0.00804833
0.00801872
0.00798762
0.00795506
0.00792106
0.00788566
0.00784887
0.00781073
0.00777127
0.0077305
0.00768847
0.0076452
0.00760072
0.00755505
0.00750822
0.00746027
0.00741123
0.00736111
0.00730995
0.00725778
0.00720462
0.0071505
0.00709546
0.00703951
0.00698269
0.00692502
0.00686653
0.00680724
0.00674719
0.00668639
0.00662487
0.00656265
0.00649977
0.00643624
0.00637209
0.00630733
0.006242
0.00617612
0.0061097
0.00604277
0.00597534
0.00590745
0.0058391
0.00577032
0.00570113
0.00563154
0.00556157
0.00549125
0.00542057
0.00534958
0.00527826
0.00520666
0.00513477
0.00506262
0.00499021
0.00491756
0.00484469
0.0047716
0.00469831
0.00462484
0.00455118
0.00447736
0.00440338
0.00432925
0.00425498
0.00418059
0.00410608
0.00403146
0.00395674
0.00388192
0.00380702
0.00373204
0.00365698
0.00358186
0.00350668
0.00343144
0.00335616
0.00328083
0.00320547
0.00313007
0.00305464
0.00297918
0.00290371
0.00282821
0.0027527
0.00267718
0.00260165
0.00252612
0.00245058
0.00237504
0.00229951
0.00222397
0.00214844
0.00207292
0.0019974
0.00192189
0.00184639
0.0017709
0.00169543
0.00161996
0.00154451
0.00146906
0.00139364
0.00131822
0.00124281
0.00116742
0.00109204
0.00101667
0.000941313
0.000865966
0.000790628
0.0007153
0.000639981
0.00056467
0.000489366
0.000414068
0.000338776
0.000263488
0.000188203
0.000112921
3.76401e-05
6.51138e-05
0.000195342
0.000325571
0.000455803
0.000586037
0.000716275
0.000846517
0.000976763
0.00110701
0.00123727
0.00136753
0.00149779
0.00162806
0.00175833
0.0018886
0.00201887
0.00214913
0.00227939
0.00240964
0.00253987
0.00267009
0.00280028
0.00293045
0.00306058
0.00319067
0.00332071
0.0034507
0.00358063
0.00371048
0.00384024
0.00396992
0.00409948
0.00422893
0.00435825
0.00448742
0.00461643
0.00474526
0.00487389
0.00500232
0.00513051
0.00525845
0.00538612
0.0055135
0.00564056
0.00576728
0.00589363
0.0060196
0.00614514
0.00627024
0.00639487
0.00651899
0.00664258
0.00676559
0.00688801
0.00700979
0.00713091
0.00725132
0.00737098
0.00748987
0.00760794
0.00772515
0.00784146
0.00795683
0.00807122
0.00818459
0.00829689
0.00840809
0.00851813
0.00862697
0.00873456
0.00884087
0.00894584
0.00904943
0.0091516
0.00925229
0.00935146
0.00944906
0.00954505
0.00963938
0.00973201
0.00982289
0.00991197
0.00999921
0.0100846
0.010168
0.0102495
0.0103289
0.0104063
0.0104816
0.0105548
0.0106258
0.0106945
0.0107611
0.0108254
0.0108873
0.0109469
0.0110042
0.011059
0.0111115
0.0111614
0.0112089
0.011254
0.0112964
0.0113364
0.0113738
0.0114087
0.0114409
0.0114706
0.0114977
0.0115222
0.0115441
0.0115634
0.01158
0.0115941
0.0116056
0.0116144
0.0116207
0.0116244
0.0116255
0.0116241
0.0116201
0.0116136
0.0116046
0.0115931
0.0115791
0.0115627
0.0115439
0.0115226
0.011499
0.0114731
0.0114448
0.0114142
0.0113814
0.0113464
0.0113092
0.0112698
0.0112283
0.0111847
0.0111391
0.0110915
0.0110419
0.0109903
0.0109369
0.0108816
0.0108245
0.0107656
0.010705
0.0106427
0.0105787
0.0105131
0.0104459
0.0103772
0.010307
0.0102353
0.0101623
0.0100878
0.010012
0.00993491
0.00985654
0.00977696
0.00969618
0.00961426
0.00953122
0.0094471
0.00936195
0.00927579
0.00918865
0.00910058
0.00901161
0.00892176
0.00883107
0.00873958
0.00864731
0.00855429
0.00846056
0.00836614
0.00827106
0.00817535
0.00807903
0.00798213
0.00788469
0.00778671
0.00768823
0.00758926
0.00748984
0.00738999
0.00728972
0.00718905
0.00708802
0.00698663
0.0068849
0.00678286
0.00668052
0.0065779
0.00647502
0.00637189
0.00626852
0.00616493
0.00606114
0.00595716
0.005853
0.00574867
0.00564419
0.00553957
0.00543482
0.00532994
0.00522496
0.00511987
0.00501469
0.00490943
0.00480409
0.00469868
0.00459322
0.0044877
0.00438213
0.00427653
0.00417088
0.00406521
0.00395952
0.0038538
0.00374807
0.00364232
0.00353657
0.00343082
0.00332506
0.00321931
0.00311355
0.00300781
0.00290207
0.00279635
0.00269064
0.00258494
0.00247925
0.00237358
0.00226793
0.00216229
0.00205667
0.00195107
0.00184549
0.00173992
0.00163437
0.00152884
0.00142332
0.00131782
0.00121234
0.00110687
0.00100141
0.000895963
0.000790528
0.000685104
0.000579688
0.00047428
0.000368878
0.000263481
0.000158087
5.26954e-05
8.3717e-05
0.000251152
0.000418588
0.000586027
0.00075347
0.000920918
0.00108837
0.00125583
0.0014233
0.00159077
0.00175825
0.00192573
0.00209322
0.00226071
0.0024282
0.00259569
0.00276318
0.00293066
0.00309813
0.00326558
0.00343301
0.00360041
0.00376777
0.0039351
0.00410237
0.00426958
0.00443673
0.00460379
0.00477076
0.00493762
0.00510436
0.00527097
0.00543743
0.00560371
0.00576981
0.00593571
0.00610138
0.0062668
0.00643195
0.0065968
0.00676133
0.00692552
0.00708933
0.00725273
0.0074157
0.0075782
0.0077402
0.00790166
0.00806256
0.00822284
0.00838248
0.00854143
0.00869965
0.0088571
0.00901374
0.00916952
0.00932439
0.00947831
0.00963123
0.0097831
0.00993387
0.0100835
0.0102319
0.010379
0.0105249
0.0106693
0.0108124
0.0109539
0.0110939
0.0112324
0.0113691
0.0115042
0.0116374
0.0117689
0.0118984
0.012026
0.0121516
0.0122751
0.0123964
0.0125156
0.0126325
0.0127471
0.0128594
0.0129692
0.0130765
0.0131813
0.0132835
0.0133831
0.01348
0.0135741
0.0136655
0.013754
0.0138396
0.0139223
0.014002
0.0140787
0.0141524
0.0142229
0.0142904
0.0143547
0.0144158
0.0144737
0.0145283
0.0145797
0.0146279
0.0146727
0.0147142
0.0147524
0.0147872
0.0148187
0.0148469
0.0148717
0.0148931
0.0149112
0.0149259
0.0149373
0.0149454
0.0149501
0.0149515
0.0149497
0.0149445
0.0149361
0.0149245
0.0149097
0.0148917
0.0148705
0.0148462
0.0148189
0.0147885
0.014755
0.0147186
0.0146793
0.0146371
0.014592
0.014544
0.0144934
0.0144399
0.0143839
0.0143251
0.0142638
0.0142
0.0141337
0.0140649
0.0139937
0.0139202
0.0138445
0.0137665
0.0136863
0.0136039
0.0135195
0.0134331
0.0133447
0.0132544
0.0131622
0.0130681
0.0129723
0.0128748
0.0127756
0.0126748
0.0125724
0.0124685
0.0123631
0.0122563
0.0121481
0.0120385
0.0119277
0.0118156
0.0117023
0.0115878
0.0114723
0.0113556
0.0112379
0.0111193
0.0109996
0.010879
0.0107576
0.0106353
0.0105122
0.0103883
0.0102637
0.0101384
0.0100123
0.00988569
0.00975841
0.00963054
0.00950212
0.00937317
0.00924371
0.00911377
0.00898338
0.00885256
0.00872134
0.00858973
0.00845776
0.00832545
0.00819283
0.0080599
0.00792669
0.00779322
0.00765951
0.00752557
0.00739141
0.00725706
0.00712253
0.00698783
0.00685297
0.00671797
0.00658285
0.0064476
0.00631225
0.0061768
0.00604127
0.00590566
0.00576998
0.00563424
0.00549845
0.00536262
0.00522674
0.00509084
0.00495491
0.00481896
0.004683
0.00454703
0.00441105
0.00427507
0.0041391
0.00400313
0.00386717
0.00373122
0.00359529
0.00345937
0.00332346
0.00318758
0.00305172
0.00291588
0.00278006
0.00264426
0.00250849
0.00237274
0.00223701
0.00210131
0.00196562
0.00182996
0.00169432
0.0015587
0.00142309
0.0012875
0.00115193
0.00101638
0.000880833
0.0007453
0.000609778
0.000474263
0.000338755
0.000203251
6.77501e-05
0.00010232
0.000306959
0.000511602
0.000716248
0.000920898
0.00112556
0.00133022
0.00153489
0.00173957
0.00194426
0.00214896
0.00235366
0.00255837
0.00276309
0.00296781
0.00317252
0.00337724
0.00358194
0.00378663
0.00399131
0.00419596
0.00440057
0.00460514
0.00480967
0.00501413
0.00521853
0.00542283
0.00562704
0.00583114
0.00603512
0.00623894
0.00644261
0.00664609
0.00684936
0.00705242
0.00725522
0.00745775
0.00765998
0.00786187
0.00806341
0.00826456
0.00846529
0.00866556
0.00886534
0.00906459
0.00926327
0.00946134
0.00965876
0.00985548
0.0100515
0.0102467
0.010441
0.0106345
0.010827
0.0110185
0.011209
0.0113984
0.0115866
0.0117737
0.0119594
0.0121437
0.0123267
0.0125082
0.0126882
0.0128665
0.0130432
0.0132182
0.0133913
0.0135625
0.0137318
0.0138991
0.0140643
0.0142273
0.014388
0.0145465
0.0147025
0.0148561
0.0150072
0.0151556
0.0153014
0.0154444
0.0155846
0.0157219
0.0158563
0.0159876
0.0161158
0.0162408
0.0163626
0.0164811
0.0165963
0.016708
0.0168163
0.016921
0.0170222
0.0171197
0.0172135
0.0173036
0.0173899
0.0174724
0.0175511
0.0176258
0.0176966
0.0177635
0.0178264
0.0178852
0.01794
0.0179908
0.0180375
0.0180801
0.0181186
0.018153
0.0181833
0.0182095
0.0182316
0.0182496
0.0182635
0.0182733
0.0182791
0.0182808
0.0182785
0.0182721
0.0182618
0.0182476
0.0182294
0.0182073
0.0181814
0.0181517
0.0181182
0.0180809
0.01804
0.0179954
0.0179473
0.0178956
0.0178403
0.0177817
0.0177197
0.0176543
0.0175856
0.0175138
0.0174387
0.0173606
0.0172794
0.0171953
0.0171082
0.0170183
0.0169256
0.0168301
0.016732
0.0166313
0.016528
0.0164223
0.0163141
0.0162036
0.0160908
0.0159758
0.0158586
0.0157393
0.0156179
0.0154946
0.0153694
0.0152423
0.0151134
0.0149827
0.0148504
0.0147164
0.0145808
0.0144437
0.0143052
0.0141652
0.0140239
0.0138812
0.0137373
0.0135922
0.0134458
0.0132984
0.0131499
0.0130004
0.0128498
0.0126984
0.012546
0.0123927
0.0122386
0.0120838
0.0119281
0.0117718
0.0116148
0.0114571
0.0112988
0.01114
0.0109806
0.0108206
0.0106602
0.0104993
0.010338
0.0101762
0.0100141
0.00985156
0.00968872
0.00952555
0.00936209
0.00919835
0.00903435
0.00887011
0.00870566
0.00854099
0.00837614
0.00821112
0.00804594
0.00788062
0.00771517
0.00754961
0.00738393
0.00721817
0.00705232
0.0068864
0.00672042
0.00655439
0.00638831
0.00622219
0.00605604
0.00588987
0.00572369
0.00555749
0.00539129
0.00522509
0.00505889
0.0048927
0.00472652
0.00456035
0.00439421
0.00422808
0.00406197
0.00389589
0.00372984
0.00356381
0.00339781
0.00323183
0.00306589
0.00289997
0.00273408
0.00256822
0.00240239
0.00223658
0.00207079
0.00190504
0.0017393
0.00157358
0.00140789
0.00124221
0.00107655
0.000910903
0.000745267
0.000579642
0.000414024
0.000248412
8.28038e-05
0.000120921
0.000362765
0.000604612
0.000846463
0.00108832
0.00133019
0.00157206
0.00181394
0.00205584
0.00229775
0.00253966
0.00278159
0.00302352
0.00326547
0.00350741
0.00374936
0.0039913
0.00423324
0.00447516
0.00471706
0.00495894
0.00520077
0.00544257
0.0056843
0.00592597
0.00616755
0.00640904
0.00665041
0.00689166
0.00713276
0.00737369
0.00761443
0.00785495
0.00809524
0.00833527
0.008575
0.00881442
0.00905348
0.00929216
0.00953041
0.00976821
0.0100055
0.0102423
0.0104785
0.010714
0.0109489
0.0111831
0.0114165
0.0116491
0.0118809
0.0121117
0.0123415
0.0125702
0.0127979
0.0130244
0.0132497
0.0134736
0.0136962
0.0139174
0.014137
0.014355
0.0145714
0.0147861
0.0149989
0.0152099
0.0154188
0.0156257
0.0158305
0.0160331
0.0162333
0.0164312
0.0166265
0.0168193
0.0170095
0.0171969
0.0173815
0.0175632
0.0177419
0.0179175
0.01809
0.0182592
0.018425
0.0185875
0.0187464
0.0189017
0.0190534
0.0192013
0.0193454
0.0194856
0.0196219
0.0197541
0.0198821
0.020006
0.0201257
0.0202411
0.0203521
0.0204587
0.0205608
0.0206584
0.0207514
0.0208398
0.0209236
0.0210026
0.021077
0.0211466
0.0212114
0.0212715
0.0213267
0.021377
0.0214226
0.0214632
0.0214991
0.02153
0.0215561
0.0215774
0.0215938
0.0216053
0.0216121
0.0216141
0.0216113
0.0216037
0.0215915
0.0215746
0.021553
0.0215269
0.0214961
0.0214609
0.0214212
0.0213771
0.0213286
0.0212758
0.0212188
0.0211576
0.0210922
0.0210227
0.0209493
0.0208719
0.0207906
0.0207055
0.0206167
0.0205243
0.0204282
0.0203286
0.0202255
0.0201191
0.0200094
0.0198964
0.0197803
0.0196612
0.019539
0.0194138
0.0192859
0.0191551
0.0190217
0.0188856
0.0187469
0.0186058
0.0184623
0.0183164
0.0181682
0.0180179
0.0178654
0.0177108
0.0175543
0.0173958
0.0172355
0.0170733
0.0169095
0.0167439
0.0165768
0.0164081
0.0162379
0.0160662
0.0158932
0.0157189
0.0155432
0.0153664
0.0151884
0.0150093
0.0148291
0.0146479
0.0144657
0.0142826
0.0140986
0.0139138
0.0137281
0.0135417
0.0133546
0.0131667
0.0129783
0.0127892
0.0125995
0.0124093
0.0122186
0.0120273
0.0118357
0.0116436
0.0114511
0.0112582
0.0110649
0.0108714
0.0106775
0.0104834
0.010289
0.0100943
0.00989949
0.00970443
0.00950918
0.00931377
0.00911821
0.00892251
0.00872669
0.00853076
0.00833474
0.00813863
0.00794245
0.0077462
0.00754991
0.00735357
0.0071572
0.0069608
0.00676439
0.00656796
0.00637153
0.0061751
0.00597867
0.00578225
0.00558585
0.00538947
0.00519311
0.00499677
0.00480046
0.00460418
0.00440793
0.00421171
0.00401552
0.00381937
0.00362326
0.00342717
0.00323112
0.00303511
0.00283912
0.00264317
0.00244725
0.00225135
0.00205549
0.00185964
0.00166383
0.00146803
0.00127225
0.00107649
0.000880747
0.000685013
0.000489289
0.00029357
9.78564e-05
0.000139522
0.000418568
0.000697617
0.000976672
0.00125574
0.00153481
0.00181389
0.00209299
0.0023721
0.00265122
0.00293036
0.00320951
0.00348867
0.00376784
0.00404702
0.0043262
0.00460538
0.00488455
0.00516371
0.00544285
0.00572195
0.00600102
0.00628004
0.006559
0.00683788
0.00711667
0.00739535
0.00767391
0.00795232
0.00823056
0.00850862
0.00878646
0.00906406
0.00934138
0.00961841
0.00989511
0.0101714
0.0104474
0.0107229
0.0109979
0.0112724
0.0115463
0.0118196
0.0120922
0.0123642
0.0126353
0.0129057
0.0131752
0.0134437
0.0137112
0.0139777
0.014243
0.0145071
0.01477
0.0150315
0.0152916
0.0155502
0.0158072
0.0160626
0.0163162
0.016568
0.0168179
0.0170658
0.0173115
0.0175552
0.0177965
0.0180355
0.018272
0.0185059
0.0187372
0.0189657
0.0191914
0.0194141
0.0196337
0.0198502
0.0200635
0.0202733
0.0204798
0.0206826
0.0208818
0.0210773
0.0212689
0.0214565
0.0216401
0.0218195
0.0219948
0.0221656
0.0223321
0.0224941
0.0226515
0.0228042
0.0229522
0.0230953
0.0232335
0.0233668
0.023495
0.0236182
0.0237361
0.0238489
0.0239563
0.0240584
0.0241552
0.0242465
0.0243324
0.0244128
0.0244876
0.024557
0.0246207
0.0246789
0.0247314
0.0247783
0.0248197
0.0248554
0.0248855
0.02491
0.0249289
0.0249422
0.0249499
0.0249521
0.0249488
0.0249401
0.0249258
0.0249062
0.0248812
0.024851
0.0248154
0.0247746
0.0247287
0.0246776
0.0246215
0.0245605
0.0244945
0.0244237
0.0243481
0.0242678
0.0241829
0.0240934
0.0239994
0.0239011
0.0237984
0.0236915
0.0235805
0.0234654
0.0233463
0.0232233
0.0230965
0.0229659
0.0228318
0.022694
0.0225528
0.0224083
0.0222604
0.0221094
0.0219552
0.021798
0.0216378
0.0214747
0.0213089
0.0211404
0.0209693
0.0207956
0.0206195
0.020441
0.0202602
0.0200771
0.0198919
0.0197047
0.0195154
0.0193243
0.0191312
0.0189364
0.0187399
0.0185417
0.0183419
0.0181406
0.0179378
0.0177336
0.0175281
0.0173213
0.0171133
0.016904
0.0166937
0.0164823
0.0162699
0.0160565
0.0158422
0.015627
0.015411
0.0151942
0.0149766
0.0147583
0.0145394
0.0143198
0.0140997
0.0138789
0.0136577
0.013436
0.0132138
0.0129912
0.0127681
0.0125447
0.012321
0.0120969
0.0118726
0.0116479
0.011423
0.0111979
0.0109726
0.0107471
0.0105214
0.0102955
0.0100696
0.00984345
0.00961723
0.00939092
0.00916453
0.00893807
0.00871155
0.00848499
0.00825838
0.00803175
0.0078051
0.00757843
0.00735177
0.0071251
0.00689844
0.00667179
0.00644517
0.00621856
0.00599198
0.00576543
0.00553892
0.00531243
0.00508599
0.00485958
0.00463321
0.00440688
0.00418059
0.00395434
0.00372813
0.00350196
0.00327583
0.00304973
0.00282367
0.00259764
0.00237165
0.00214568
0.00191974
0.00169383
0.00146794
0.00124207
0.00101622
0.000790375
0.000564546
0.000338724
0.000112908
0.000158122
0.000474367
0.000790617
0.00110687
0.00142314
0.00173942
0.00205571
0.00237202
0.00268834
0.00300468
0.00332104
0.00363741
0.0039538
0.0042702
0.00458662
0.00490304
0.00521946
0.00553587
0.00585227
0.00616866
0.00648501
0.00680133
0.00711759
0.00743378
0.00774989
0.0080659
0.0083818
0.00869755
0.00901315
0.00932856
0.00964377
0.00995873
0.0102734
0.0105878
0.0109019
0.0112156
0.0115289
0.0118417
0.012154
0.0124659
0.0127771
0.0130877
0.0133976
0.0137067
0.0140151
0.0143226
0.0146291
0.0149347
0.0152392
0.0155426
0.0158448
0.0161457
0.0164453
0.0167434
0.01704
0.017335
0.0176283
0.0179199
0.0182095
0.0184972
0.0187828
0.0190663
0.0193475
0.0196264
0.0199027
0.0201765
0.0204476
0.020716
0.0209814
0.0212438
0.0215031
0.0217592
0.0220119
0.0222611
0.0225068
0.0227487
0.0229869
0.0232212
0.0234514
0.0236774
0.0238992
0.0241166
0.0243296
0.0245379
0.0247416
0.0249405
0.0251344
0.0253233
0.0255072
0.0256858
0.0258591
0.026027
0.0261895
0.0263463
0.0264976
0.0266431
0.0267828
0.0269167
0.0270446
0.0271666
0.0272824
0.0273922
0.0274958
0.0275933
0.0276845
0.0277694
0.027848
0.0279203
0.0279863
0.0280459
0.0280991
0.0281459
0.0281864
0.0282204
0.0282482
0.0282695
0.0282846
0.0282933
0.0282957
0.0282919
0.0282818
0.0282656
0.0282432
0.0282148
0.0281803
0.0281398
0.0280935
0.0280412
0.0279832
0.0279194
0.02785
0.0277751
0.0276946
0.0276087
0.0275175
0.027421
0.0273193
0.0272126
0.0271009
0.0269843
0.0268629
0.0267368
0.0266061
0.0264709
0.0263312
0.0261872
0.026039
0.0258867
0.0257304
0.0255701
0.025406
0.0252382
0.0250667
0.0248917
0.0247133
0.0245315
0.0243465
0.0241583
0.023967
0.0237728
0.0235758
0.0233759
0.0231734
0.0229682
0.0227606
0.0225505
0.022338
0.0221233
0.0219065
0.0216875
0.0214665
0.0212435
0.0210187
0.0207921
0.0205638
0.0203338
0.0201022
0.0198691
0.0196345
0.0193986
0.0191613
0.0189228
0.0186831
0.0184422
0.0182002
0.0179571
0.0177131
0.0174682
0.0172223
0.0169756
0.0167281
0.0164799
0.0162309
0.0159813
0.0157311
0.0154802
0.0152288
0.0149769
0.0147245
0.0144717
0.0142184
0.0139648
0.0137108
0.0134564
0.0132018
0.0129468
0.0126916
0.0124362
0.0121805
0.0119247
0.0116687
0.0114125
0.0111562
0.0108998
0.0106433
0.0103867
0.01013
0.00987324
0.00961644
0.00935959
0.00910272
0.00884582
0.00858891
0.008332
0.00807509
0.0078182
0.00756132
0.00730446
0.00704763
0.00679083
0.00653407
0.00627734
0.00602065
0.00576401
0.00550741
0.00525085
0.00499435
0.00473788
0.00448147
0.0042251
0.00396877
0.00371249
0.00345626
0.00320006
0.0029439
0.00268778
0.00243169
0.00217564
0.00191961
0.00166361
0.00140763
0.00115167
0.000895726
0.000639796
0.000383874
0.000127957
0.00017672
0.000530163
0.00088361
0.00123707
0.00159053
0.00194401
0.00229751
0.00265103
0.00300457
0.00335812
0.0037117
0.0040653
0.00441892
0.00477256
0.00512621
0.00547987
0.00583354
0.00618721
0.00654086
0.0068945
0.00724811
0.00760168
0.00795519
0.00830864
0.008662
0.00901525
0.00936838
0.00972136
0.0100742
0.0104268
0.0107792
0.0111313
0.0114831
0.0118346
0.0121857
0.0125365
0.0128867
0.0132365
0.0135858
0.0139344
0.0142824
0.0146297
0.0149763
0.015322
0.0156668
0.0160107
0.0163535
0.0166953
0.0170359
0.0173752
0.0177132
0.0180498
0.0183849
0.0187183
0.0190501
0.0193801
0.0197082
0.0200344
0.0203584
0.0206803
0.0209999
0.021317
0.0216317
0.0219436
0.0222529
0.0225593
0.0228626
0.0231629
0.0234599
0.0237536
0.0240437
0.0243303
0.0246131
0.0248921
0.025167
0.0254378
0.0257044
0.0259666
0.0262242
0.0264773
0.0267255
0.0269689
0.0272073
0.0274405
0.0276685
0.0278911
0.0281082
0.0283196
0.0285254
0.0287254
0.0289194
0.0291073
0.0292892
0.0294648
0.0296341
0.029797
0.0299534
0.0301032
0.0302464
0.0303829
0.0305125
0.0306354
0.0307514
0.0308604
0.0309624
0.0310574
0.0311454
0.0312263
0.0313
0.0313667
0.0314262
0.0314785
0.0315237
0.0315618
0.0315927
0.0316165
0.0316333
0.0316429
0.0316455
0.0316411
0.0316298
0.0316115
0.0315863
0.0315544
0.0315156
0.0314702
0.0314182
0.0313596
0.0312945
0.031223
0.0311452
0.0310611
0.0309709
0.0308746
0.0307724
0.0306643
0.0305504
0.0304308
0.0303057
0.030175
0.030039
0.0298978
0.0297514
0.0295999
0.0294435
0.0292823
0.0291163
0.0289457
0.0287707
0.0285912
0.0284075
0.0282196
0.0280276
0.0278317
0.0276319
0.0274284
0.0272213
0.0270107
0.0267967
0.0265793
0.0263587
0.0261351
0.0259084
0.0256788
0.0254465
0.0252114
0.0249737
0.0247334
0.0244908
0.0242458
0.0239985
0.0237491
0.0234976
0.023244
0.0229886
0.0227313
0.0224723
0.0222115
0.0219492
0.0216853
0.0214199
0.0211531
0.0208849
0.0206155
0.0203449
0.0200731
0.0198002
0.0195262
0.0192513
0.0189754
0.0186987
0.0184211
0.0181427
0.0178636
0.0175838
0.0173033
0.0170222
0.0167406
0.0164584
0.0161757
0.0158925
0.0156089
0.0153249
0.0150406
0.0147559
0.0144708
0.0141856
0.0139
0.0136142
0.0133282
0.013042
0.0127557
0.0124692
0.0121825
0.0118958
0.0116089
0.011322
0.011035
0.0107479
0.0104608
0.0101737
0.00988655
0.0095994
0.00931223
0.00902508
0.00873794
0.00845082
0.00816373
0.00787667
0.00758964
0.00730266
0.00701572
0.00672883
0.00644199
0.00615519
0.00586845
0.00558177
0.00529513
0.00500855
0.00472202
0.00443555
0.00414912
0.00386274
0.00357641
0.00329012
0.00300388
0.00271767
0.0024315
0.00214536
0.00185925
0.00157317
0.00128711
0.00100106
0.000715036
0.000429018
0.000143005
0.000195317
0.000585953
0.000976595
0.00136725
0.00175791
0.00214859
0.0025393
0.00293002
0.00332077
0.00371154
0.00410235
0.00449317
0.00488403
0.0052749
0.0056658
0.00605671
0.00644763
0.00683855
0.00722947
0.00762037
0.00801125
0.00840209
0.00879287
0.00918358
0.00957421
0.00996472
0.0103551
0.0107453
0.0111354
0.0115252
0.0119148
0.0123041
0.0126931
0.0130817
0.01347
0.0138578
0.0142451
0.0146319
0.0150181
0.0154036
0.0157885
0.0161726
0.0165558
0.0169382
0.0173195
0.0176999
0.0180791
0.0184571
0.0188338
0.0192091
0.019583
0.0199554
0.020326
0.0206949
0.021062
0.0214271
0.0217901
0.022151
0.0225096
0.0228657
0.0232193
0.0235702
0.0239184
0.0242637
0.0246059
0.024945
0.0252807
0.025613
0.0259418
0.0262668
0.026588
0.0269052
0.0272182
0.027527
0.0278314
0.0281312
0.0284263
0.0287165
0.0290018
0.0292819
0.0295568
0.0298262
0.0300901
0.0303483
0.0306007
0.0308472
0.0310875
0.0313217
0.0315495
0.0317709
0.0319857
0.0321938
0.0323951
0.0325896
0.032777
0.0329573
0.0331305
0.0332963
0.0334549
0.0336059
0.0337495
0.0338855
0.0340138
0.0341345
0.0342474
0.0343526
0.0344499
0.0345393
0.0346209
0.0346946
0.0347604
0.0348183
0.0348682
0.0349103
0.0349444
0.0349707
0.034989
0.0349996
0.0350023
0.0349973
0.0349846
0.0349642
0.0349362
0.0349007
0.0348577
0.0348072
0.0347494
0.0346844
0.0346122
0.0345329
0.0344466
0.0343533
0.0342533
0.0341466
0.0340332
0.0339133
0.0337871
0.0336546
0.0335159
0.0333711
0.0332204
0.0330639
0.0329017
0.0327339
0.0325606
0.032382
0.0321982
0.0320092
0.0318153
0.0316166
0.0314131
0.031205
0.0309924
0.0307755
0.0305543
0.030329
0.0300997
0.0298665
0.0296296
0.029389
0.0291448
0.0288972
0.0286463
0.0283922
0.0281351
0.0278749
0.0276118
0.0273459
0.0270774
0.0268063
0.0265327
0.0262567
0.0259784
0.0256979
0.0254153
0.0251306
0.024844
0.0245556
0.0242653
0.0239734
0.0236798
0.0233847
0.0230881
0.0227901
0.0224908
0.0221901
0.0218883
0.0215853
0.0212813
0.0209762
0.0206701
0.0203631
0.0200553
0.0197466
0.0194372
0.019127
0.0188162
0.0185047
0.0181927
0.0178801
0.017567
0.0172535
0.0169395