/*--------------------------------*- C++ -*----------------------------------*\
| =========                 |                                                 |
| \\      /  F ield         | OpenFOAM: The Open Source CFD Toolbox           |
|  \\    /   O peration     | Version:  v2012                                 |
|   \\  /    A nd           | Website:  www.openfoam.com                      |
|    \\/     M anipulation  |                                                 |
\*---------------------------------------------------------------------------*/
FoamFile
{
    version     2.0;
    format      ascii;
    class       surfaceScalarField;
    location    "3.5";
    object      phi;
}
// * * * * * * * * * * * * * * * * * * * * * * * * * * * * * * * * * * * * * //

dimensions      [0 3 -1 0 0 0 0];
oriented        oriented;


internalField   nonuniform List<scalar> 
130560
(
3.55381e-06
-3.55381e-06
7.10743e-06
-3.55361e-06
1.06606e-05
-3.55321e-06
1.42133e-05
-3.55261e-06
1.77651e-05
-3.55181e-06
2.13159e-05
-3.5508e-06
2.48654e-05
-3.54958e-06
2.84136e-05
-3.54815e-06
3.19601e-05
-3.54651e-06
3.55047e-05
-3.54464e-06
3.90473e-05
-3.54255e-06
4.25875e-05
-3.54023e-06
4.61252e-05
-3.53767e-06
4.96601e-05
-3.53486e-06
5.31919e-05
-3.53181e-06
5.67204e-05
-3.52849e-06
6.02453e-05
-3.5249e-06
6.37663e-05
-3.52104e-06
6.72832e-05
-3.51689e-06
7.07956e-05
-3.51245e-06
7.43033e-05
-3.50769e-06
7.7806e-05
-3.50262e-06
8.13032e-05
-3.49722e-06
8.47947e-05
-3.49148e-06
8.82801e-05
-3.48539e-06
9.1759e-05
-3.47893e-06
9.52311e-05
-3.4721e-06
9.8696e-05
-3.46487e-06
0.000102153
-3.45724e-06
0.000105602
-3.44919e-06
0.000109043
-3.44071e-06
0.000112475
-3.43178e-06
0.000115897
-3.42239e-06
0.00011931
-3.41252e-06
0.000122712
-3.40216e-06
0.000126103
-3.3913e-06
0.000129483
-3.37992e-06
0.000132851
-3.368e-06
0.000136207
-3.35553e-06
0.000139549
-3.34249e-06
0.000142878
-3.32887e-06
0.000146193
-3.31465e-06
0.000149493
-3.29982e-06
0.000152777
-3.28436e-06
0.000156045
-3.26826e-06
0.000159297
-3.2515e-06
0.000162531
-3.23407e-06
0.000165747
-3.21596e-06
0.000168944
-3.19714e-06
0.000172121
-3.17761e-06
0.000175279
-3.15736e-06
0.000178415
-3.13637e-06
0.00018153
-3.11463e-06
0.000184622
-3.09212e-06
0.000187691
-3.06884e-06
0.000190736
-3.04478e-06
0.000193755
-3.01992e-06
0.00019675
-2.99426e-06
0.000199717
-2.96779e-06
0.000202658
-2.9405e-06
0.00020557
-2.91238e-06
0.000208454
-2.88343e-06
0.000211307
-2.85365e-06
0.00021413
-2.82302e-06
0.000216922
-2.79154e-06
0.000219681
-2.75922e-06
0.000222407
-2.72605e-06
0.000225099
-2.69202e-06
0.000227756
-2.65715e-06
0.000230378
-2.62143e-06
0.000232963
-2.58486e-06
0.00023551
-2.54745e-06
0.000238019
-2.5092e-06
0.00024049
-2.47013e-06
0.00024292
-2.43022e-06
0.000245309
-2.3895e-06
0.000247657
-2.34797e-06
0.000249963
-2.30565e-06
0.000252225
-2.26253e-06
0.000254444
-2.21865e-06
0.000256618
-2.174e-06
0.000258747
-2.12861e-06
0.000260829
-2.08249e-06
0.000262865
-2.03565e-06
0.000264853
-1.98812e-06
0.000266793
-1.93991e-06
0.000268684
-1.89105e-06
0.000270525
-1.84154e-06
0.000272317
-1.79143e-06
0.000274058
-1.74071e-06
0.000275747
-1.68943e-06
0.000277385
-1.6376e-06
0.00027897
-1.58525e-06
0.000280502
-1.5324e-06
0.000281981
-1.47909e-06
0.000283407
-1.42532e-06
0.000284778
-1.37114e-06
0.000286094
-1.31657e-06
0.000287356
-1.26164e-06
0.000288562
-1.20637e-06
0.000289713
-1.1508e-06
0.000290808
-1.09495e-06
0.000291847
-1.03885e-06
0.00029283
-9.82537e-07
0.000293756
-9.2603e-07
0.000294625
-8.69363e-07
0.000295438
-8.12564e-07
0.000296193
-7.55663e-07
0.000296892
-6.98687e-07
0.000297534
-6.41666e-07
0.000298118
-5.84629e-07
0.000298646
-5.27603e-07
0.000299116
-4.70615e-07
0.00029953
-4.13694e-07
0.000299887
-3.56866e-07
0.000300187
-3.00158e-07
0.000300431
-2.43595e-07
0.000300618
-1.87203e-07
0.000300749
-1.31006e-07
0.000300824
-7.50297e-08
0.000300843
-1.9296e-08
0.000300807
3.61717e-08
0.000300716
9.13514e-08
0.000300569
1.46222e-07
0.000300369
2.00762e-07
0.000300114
2.54953e-07
0.000299805
3.08774e-07
0.000299443
3.62208e-07
0.000299028
4.15238e-07
0.00029856
4.67846e-07
0.00029804
5.20016e-07
0.000297468
5.71734e-07
0.000296845
6.22985e-07
0.000296171
6.73756e-07
0.000295447
7.24033e-07
0.000294673
7.73804e-07
0.00029385
8.2306e-07
0.000292979
8.71788e-07
0.000292059
9.19979e-07
0.000291091
9.67624e-07
0.000290076
1.01472e-06
0.000289015
1.06124e-06
0.000287908
1.1072e-06
0.000286755
1.15259e-06
0.000285558
1.19739e-06
0.000284316
1.24161e-06
0.000283031
1.28524e-06
0.000281703
1.32827e-06
0.000280332
1.3707e-06
0.000278919
1.41254e-06
0.000277466
1.45377e-06
0.000275971
1.49439e-06
0.000274437
1.53441e-06
0.000272863
1.57382e-06
0.00027125
1.61262e-06
0.0002696
1.65081e-06
0.000267911
1.6884e-06
0.000266186
1.72537e-06
0.000264424
1.76174e-06
0.000262627
1.7975e-06
0.000260794
1.83266e-06
0.000258927
1.86722e-06
0.000257026
1.90117e-06
0.000255091
1.93452e-06
0.000253124
1.96728e-06
0.000251124
1.99944e-06
0.000249093
2.03101e-06
0.000247031
2.06199e-06
0.000244939
2.09239e-06
0.000242817
2.1222e-06
0.000240665
2.15144e-06
0.000238485
2.1801e-06
0.000236277
2.2082e-06
0.000234041
2.23572e-06
0.000231779
2.26268e-06
0.000229489
2.28909e-06
0.000227175
2.31494e-06
0.000224834
2.34024e-06
0.000222469
2.36499e-06
0.00022008
2.38921e-06
0.000217667
2.41289e-06
0.000215231
2.43604e-06
0.000212772
2.45866e-06
0.000210292
2.48077e-06
0.000207789
2.50235e-06
0.000205266
2.52343e-06
0.000202722
2.54401e-06
0.000200158
2.56408e-06
0.000197574
2.58366e-06
0.000194971
2.60275e-06
0.00019235
2.62137e-06
0.000189711
2.6395e-06
0.000187053
2.65716e-06
0.000184379
2.67436e-06
0.000181688
2.69111e-06
0.000178981
2.7074e-06
0.000176257
2.72324e-06
0.000173519
2.73864e-06
0.000170765
2.75361e-06
0.000167997
2.76815e-06
0.000165215
2.78228e-06
0.000162419
2.79598e-06
0.000159609
2.80928e-06
0.000156787
2.82218e-06
0.000153952
2.83469e-06
0.000151106
2.84681e-06
0.000148247
2.85854e-06
0.000145377
2.8699e-06
0.000142496
2.8809e-06
0.000139605
2.89153e-06
0.000136703
2.90181e-06
0.000133791
2.91174e-06
0.00013087
2.92134e-06
0.000127939
2.93059e-06
0.000125
2.93952e-06
0.000122052
2.94813e-06
0.000119095
2.95643e-06
0.000116131
2.96442e-06
0.000113159
2.97211e-06
0.000110179
2.97951e-06
0.000107193
2.98662e-06
0.000104199
2.99344e-06
0.000101199
3e-06
9.81928e-05
3.00628e-06
9.51805e-05
3.0123e-06
9.21625e-05
3.01807e-06
8.91389e-05
3.02358e-06
8.611e-05
3.02885e-06
8.30761e-05
3.03389e-06
8.00374e-05
3.03869e-06
7.69942e-05
3.04326e-06
7.39466e-05
3.04761e-06
7.08948e-05
3.05174e-06
6.78392e-05
3.05566e-06
6.47798e-05
3.05938e-06
6.17169e-05
3.06289e-06
5.86507e-05
3.0662e-06
5.55814e-05
3.06932e-06
5.25091e-05
3.07225e-06
4.94342e-05
3.07499e-06
4.63566e-05
3.07756e-06
4.32767e-05
3.07994e-06
4.01945e-05
3.08215e-06
3.71103e-05
3.08419e-06
3.40243e-05
3.08606e-06
3.09365e-05
3.08777e-06
2.78472e-05
3.08931e-06
2.47565e-05
3.09069e-06
2.16646e-05
3.09191e-06
1.85716e-05
3.09297e-06
1.54777e-05
3.09388e-06
1.23831e-05
3.09464e-06
9.28784e-06
3.09524e-06
6.19214e-06
3.0957e-06
3.09615e-06
3.096e-06
3.09615e-06
3.55401e-06
-7.10782e-06
7.10782e-06
-7.10742e-06
1.06612e-05
-7.10663e-06
1.4214e-05
-7.10543e-06
1.77661e-05
-7.10382e-06
2.13171e-05
-7.10181e-06
2.48669e-05
-7.09938e-06
2.84152e-05
-7.09652e-06
3.1962e-05
-7.09324e-06
3.55068e-05
-7.08951e-06
3.90496e-05
-7.08533e-06
4.25901e-05
-7.08069e-06
4.6128e-05
-7.07558e-06
4.96631e-05
-7.06998e-06
5.31952e-05
-7.06387e-06
5.67239e-05
-7.05725e-06
6.02491e-05
-7.05008e-06
6.37704e-05
-7.04237e-06
6.72876e-05
-7.03408e-06
7.08004e-05
-7.0252e-06
7.43084e-05
-7.0157e-06
7.78113e-05
-7.00558e-06
8.13089e-05
-6.99479e-06
8.48007e-05
-6.98332e-06
8.82865e-05
-6.97115e-06
9.17658e-05
-6.95824e-06
9.52383e-05
-6.94459e-06
9.87036e-05
-6.93015e-06
0.000102161
-6.9149e-06
0.000105611
-6.89881e-06
0.000109052
-6.88186e-06
0.000112484
-6.86402e-06
0.000115907
-6.84525e-06
0.00011932
-6.82553e-06
0.000122723
-6.80483e-06
0.000126115
-6.78312e-06
0.000129495
-6.76037e-06
0.000132864
-6.73655e-06
0.00013622
-6.71162e-06
0.000139563
-6.68555e-06
0.000142892
-6.65833e-06
0.000146207
-6.62991e-06
0.000149508
-6.60026e-06
0.000152793
-6.56936e-06
0.000156062
-6.53717e-06
0.000159314
-6.50367e-06
0.000162549
-6.46883e-06
0.000165765
-6.43261e-06
0.000168963
-6.395e-06
0.000172142
-6.35595e-06
0.0001753
-6.31546e-06
0.000178437
-6.27349e-06
0.000181552
-6.23001e-06
0.000184645
-6.18502e-06
0.000187715
-6.13847e-06
0.00019076
-6.09035e-06
0.000193781
-6.04065e-06
0.000196776
-5.98934e-06
0.000199745
-5.9364e-06
0.000202686
-5.88183e-06
0.000205599
-5.8256e-06
0.000208484
-5.76771e-06
0.000211338
-5.70814e-06
0.000214162
-5.64688e-06
0.000216954
-5.58393e-06
0.000219714
-5.51929e-06
0.000222441
-5.45294e-06
0.000225134
-5.3849e-06
0.000227792
-5.31515e-06
0.000230414
-5.2437e-06
0.000233
-5.17056e-06
0.000235548
-5.09574e-06
0.000238058
-5.01924e-06
0.000240529
-4.94108e-06
0.00024296
-4.86126e-06
0.000245351
-4.77981e-06
0.000247699
-4.69674e-06
0.000250006
-4.61208e-06
0.000252269
-4.52584e-06
0.000254489
-4.43806e-06
0.000256663
-4.34875e-06
0.000258793
-4.25795e-06
0.000260876
-4.16569e-06
0.000262912
-4.072e-06
0.000264901
-3.97692e-06
0.000266842
-3.88048e-06
0.000268733
-3.78273e-06
0.000270575
-3.6837e-06
0.000272367
-3.58344e-06
0.000274109
-3.482e-06
0.000275799
-3.37941e-06
0.000277437
-3.27573e-06
0.000279023
-3.171e-06
0.000280555
-3.06528e-06
0.000282035
-2.95862e-06
0.000283461
-2.85106e-06
0.000284832
-2.74268e-06
0.000286149
-2.63351e-06
0.000287411
-2.52361e-06
0.000288618
-2.41305e-06
0.000289769
-2.30188e-06
0.000290864
-2.19015e-06
0.000291903
-2.07793e-06
0.000292886
-1.96526e-06
0.000293812
-1.85222e-06
0.000294682
-1.73886e-06
0.000295494
-1.62523e-06
0.00029625
-1.5114e-06
0.000296949
-1.39742e-06
0.00029759
-1.28335e-06
0.000298175
-1.16925e-06
0.000298703
-1.05517e-06
0.000299173
-9.41165e-07
0.000299587
-8.27296e-07
0.000299944
-7.13614e-07
0.000300244
-6.00171e-07
0.000300487
-4.8702e-07
0.000300674
-3.74212e-07
0.000300805
-2.61795e-07
0.00030088
-1.49818e-07
0.000300899
-3.83276e-08
0.000300862
7.26299e-08
0.00030077
1.83011e-07
0.000300624
2.92772e-07
0.000300423
4.01872e-07
0.000300168
5.10272e-07
0.000299858
6.17934e-07
0.000299496
7.2482e-07
0.00029908
8.30896e-07
0.000298612
9.36127e-07
0.000298091
1.04048e-06
0.000297519
1.14393e-06
0.000296896
1.24645e-06
0.000296221
1.348e-06
0.000295497
1.44857e-06
0.000294723
1.54812e-06
0.000293899
1.64664e-06
0.000293027
1.74411e-06
0.000292106
1.8405e-06
0.000291138
1.9358e-06
0.000290123
2.02999e-06
0.000289061
2.12306e-06
0.000287953
2.21498e-06
0.0002868
2.30576e-06
0.000285602
2.39537e-06
0.00028436
2.48381e-06
0.000283074
2.57107e-06
0.000281745
2.65714e-06
0.000280374
2.74201e-06
0.000278961
2.82568e-06
0.000277506
2.90814e-06
0.000276011
2.98939e-06
0.000274476
3.06943e-06
0.000272902
3.14825e-06
0.000271289
3.22585e-06
0.000269637
3.30224e-06
0.000267948
3.3774e-06
0.000266222
3.45135e-06
0.00026446
3.52409e-06
0.000262662
3.59561e-06
0.000260828
3.66592e-06
0.000258961
3.73503e-06
0.000257059
3.80293e-06
0.000255124
3.86964e-06
0.000253156
3.93515e-06
0.000251156
3.99947e-06
0.000249124
4.06261e-06
0.000247062
4.12457e-06
0.000244969
4.18536e-06
0.000242846
4.24499e-06
0.000240694
4.30346e-06
0.000238513
4.36078e-06
0.000236304
4.41696e-06
0.000234068
4.472e-06
0.000231805
4.52592e-06
0.000229515
4.57873e-06
0.0002272
4.63042e-06
0.000224859
4.68102e-06
0.000222494
4.73053e-06
0.000220104
4.77895e-06
0.00021769
4.82631e-06
0.000215254
4.8726e-06
0.000212795
4.91784e-06
0.000210313
4.96205e-06
0.00020781
5.00522e-06
0.000205287
5.04737e-06
0.000202742
5.08851e-06
0.000200177
5.12865e-06
0.000197593
5.16781e-06
0.00019499
5.20599e-06
0.000192368
5.24321e-06
0.000189728
5.27947e-06
0.000187071
5.31479e-06
0.000184396
5.34919e-06
0.000181704
5.38266e-06
0.000178996
5.41524e-06
0.000176273
5.44692e-06
0.000173534
5.47772e-06
0.00017078
5.50765e-06
0.000168011
5.53673e-06
0.000165228
5.56497e-06
0.000162432
5.59238e-06
0.000159622
5.61897e-06
0.0001568
5.64476e-06
0.000153965
5.66977e-06
0.000151117
5.69399e-06
0.000148259
5.71746e-06
0.000145388
5.74018e-06
0.000142507
5.76216e-06
0.000139615
5.78342e-06
0.000136713
5.80397e-06
0.000133801
5.82383e-06
0.000130879
5.843e-06
0.000127948
5.86151e-06
0.000125008
5.87937e-06
0.00012206
5.89658e-06
0.000119103
5.91317e-06
0.000116139
5.92914e-06
0.000113166
5.94452e-06
0.000110186
5.9593e-06
0.000107199
5.97351e-06
0.000104206
5.98716e-06
0.000101205
6.00026e-06
9.81989e-05
6.01282e-06
9.51863e-05
6.02486e-06
9.2168e-05
6.03639e-06
8.91442e-05
6.04741e-06
8.61151e-05
6.05795e-06
8.3081e-05
6.06801e-06
8.0042e-05
6.0776e-06
7.69986e-05
6.08674e-06
7.39507e-05
6.09543e-06
7.08988e-05
6.1037e-06
6.78429e-05
6.11153e-06
6.47833e-05
6.11895e-06
6.17202e-05
6.12597e-06
5.86539e-05
6.13259e-06
5.55843e-05
6.13883e-06
5.25119e-05
6.14468e-06
4.94367e-05
6.15017e-06
4.6359e-05
6.15529e-06
4.32789e-05
6.16006e-06
4.01966e-05
6.16448e-06
3.71122e-05
6.16855e-06
3.4026e-05
6.17229e-06
3.0938e-05
6.1757e-06
2.78486e-05
6.17878e-06
2.47577e-05
6.18154e-06
2.16657e-05
6.18398e-06
1.85725e-05
6.18611e-06
1.54785e-05
6.18792e-06
1.23837e-05
6.18944e-06
9.28829e-06
6.19064e-06
6.19244e-06
6.19154e-06
3.0963e-06
6.19214e-06
6.19244e-06
3.55441e-06
-1.06622e-05
7.10862e-06
-1.06616e-05
1.06624e-05
-1.06604e-05
1.42157e-05
-1.06586e-05
1.77681e-05
-1.06562e-05
2.13195e-05
-1.06532e-05
2.48697e-05
-1.06496e-05
2.84185e-05
-1.06453e-05
3.19657e-05
-1.06404e-05
3.5511e-05
-1.06348e-05
3.90543e-05
-1.06286e-05
4.25952e-05
-1.06216e-05
4.61336e-05
-1.0614e-05
4.96692e-05
-1.06056e-05
5.32018e-05
-1.05965e-05
5.67311e-05
-1.05865e-05
6.02568e-05
-1.05758e-05
6.37787e-05
-1.05643e-05
6.72965e-05
-1.05519e-05
7.08099e-05
-1.05386e-05
7.43185e-05
-1.05244e-05
7.78221e-05
-1.05092e-05
8.13204e-05
-1.0493e-05
8.48129e-05
-1.04759e-05
8.82994e-05
-1.04576e-05
9.17795e-05
-1.04383e-05
9.52527e-05
-1.04179e-05
9.87188e-05
-1.03962e-05
0.000102177
-1.03734e-05
0.000105628
-1.03493e-05
0.00010907
-1.03239e-05
0.000112503
-1.02972e-05
0.000115927
-1.02691e-05
0.000119341
-1.02395e-05
0.000122744
-1.02085e-05
0.000126137
-1.0176e-05
0.000129519
-1.01419e-05
0.000132889
-1.01062e-05
0.000136246
-1.00688e-05
0.00013959
-1.00298e-05
0.000142921
-9.98899e-06
0.000146237
-9.94639e-06
0.000149539
-9.90196e-06
0.000152825
-9.85564e-06
0.000156095
-9.8074e-06
0.000159349
-9.75718e-06
0.000162585
-9.70495e-06
0.000165803
-9.65066e-06
0.000169002
-9.59428e-06
0.000172182
-9.53575e-06
0.000175342
-9.47504e-06
0.00017848
-9.41211e-06
0.000181597
-9.34693e-06
0.000184692
-9.27946e-06
0.000187763
-9.20966e-06
0.00019081
-9.13751e-06
0.000193832
-9.06298e-06
0.000196829
-8.98604e-06
0.000199799
-8.90665e-06
0.000202742
-8.82481e-06
0.000205657
-8.74048e-06
0.000208543
-8.65365e-06
0.000211399
-8.56431e-06
0.000214225
-8.47244e-06
0.000217019
-8.37802e-06
0.000219781
-8.28106e-06
0.000222509
-8.18154e-06
0.000225204
-8.07947e-06
0.000227864
-7.97484e-06
0.000230488
-7.86767e-06
0.000233075
-7.75795e-06
0.000235625
-7.64571e-06
0.000238137
-7.53094e-06
0.000240609
-7.41368e-06
0.000243042
-7.29393e-06
0.000245434
-7.17174e-06
0.000247784
-7.04711e-06
0.000250092
-6.92009e-06
0.000252357
-6.7907e-06
0.000254578
-6.65899e-06
0.000256754
-6.52499e-06
0.000258885
-6.38875e-06
0.00026097
-6.25032e-06
0.000263007
-6.10974e-06
0.000264998
-5.96707e-06
0.000266939
-5.82237e-06
0.000268832
-5.67569e-06
0.000270676
-5.5271e-06
0.000272469
-5.37665e-06
0.000274211
-5.22442e-06
0.000275902
-5.07048e-06
0.000277542
-4.9149e-06
0.000279128
-4.75774e-06
0.000280662
-4.5991e-06
0.000282143
-4.43904e-06
0.000283569
-4.27764e-06
0.000284942
-4.11499e-06
0.000286259
-3.95117e-06
0.000287522
-3.78626e-06
0.000288729
-3.62034e-06
0.000289881
-3.45351e-06
0.000290976
-3.28585e-06
0.000292016
-3.11744e-06
0.000292999
-2.94837e-06
0.000293926
-2.77874e-06
0.000294795
-2.60862e-06
0.000295608
-2.43811e-06
0.000296364
-2.26728e-06
0.000297063
-2.09624e-06
0.000297705
-1.92507e-06
0.000298289
-1.75384e-06
0.000298817
-1.58265e-06
0.000299287
-1.41158e-06
0.000299701
-1.24071e-06
0.000300057
-1.07012e-06
0.000300357
-8.99893e-07
0.0003006
-7.30103e-07
0.000300786
-5.60828e-07
0.000300917
-3.92142e-07
0.000300991
-2.24118e-07
0.00030101
-5.68261e-08
0.000300973
1.09665e-07
0.00030088
2.7529e-07
0.000300733
4.39983e-07
0.000300531
6.03684e-07
0.000300275
7.66332e-07
0.000299965
9.27869e-07
0.000299602
1.08824e-06
0.000299185
1.2474e-06
0.000298716
1.40529e-06
0.000298195
1.56186e-06
0.000297622
1.71707e-06
0.000296997
1.87088e-06
0.000296322
2.02324e-06
0.000295596
2.17412e-06
0.000294821
2.32348e-06
0.000293996
2.47128e-06
0.000293123
2.61751e-06
0.000292201
2.76212e-06
0.000291232
2.90509e-06
0.000290216
3.04639e-06
0.000289153
3.18601e-06
0.000288044
3.32391e-06
0.00028689
3.46009e-06
0.00028569
3.59452e-06
0.000284447
3.72719e-06
0.00028316
3.85809e-06
0.00028183
3.9872e-06
0.000280457
4.11451e-06
0.000279043
4.24002e-06
0.000277588
4.36372e-06
0.000276091
4.4856e-06
0.000274555
4.60566e-06
0.000272979
4.72389e-06
0.000271365
4.8403e-06
0.000269712
4.95488e-06
0.000268022
5.06763e-06
0.000266295
5.17855e-06
0.000264531
5.28765e-06
0.000262732
5.39493e-06
0.000260898
5.5004e-06
0.000259029
5.60405e-06
0.000257126
5.7059e-06
0.000255189
5.80595e-06
0.00025322
5.90421e-06
0.000251219
6.00068e-06
0.000249186
6.09538e-06
0.000247122
6.18831e-06
0.000245028
6.27949e-06
0.000242904
6.36892e-06
0.000240751
6.45662e-06
0.000238569
6.54259e-06
0.00023636
6.62685e-06
0.000234122
6.70941e-06
0.000231858
6.79028e-06
0.000229567
6.86948e-06
0.00022725
6.94701e-06
0.000224909
7.02289e-06
0.000222542
7.09714e-06
0.000220151
7.16977e-06
0.000217737
7.24079e-06
0.000215299
7.31022e-06
0.000212839
7.37807e-06
0.000210356
7.44436e-06
0.000207853
7.5091e-06
0.000205328
7.57231e-06
0.000202782
7.63401e-06
0.000200217
7.69421e-06
0.000197631
7.75293e-06
0.000195027
7.81019e-06
0.000192404
7.866e-06
0.000189764
7.92038e-06
0.000187105
7.97335e-06
0.000184429
8.02493e-06
0.000181737
8.07513e-06
0.000179028
8.12397e-06
0.000176304
8.17147e-06
0.000173564
8.21766e-06
0.000170809
8.26254e-06
0.000168039
8.30615e-06
0.000165256
8.34849e-06
0.000162459
8.38958e-06
0.000159648
8.42946e-06
0.000156825
8.46813e-06
0.000153989
8.50562e-06
0.000151141
8.54194e-06
0.000148281
8.57712e-06
0.00014541
8.61118e-06
0.000142528
8.64414e-06
0.000139636
8.67601e-06
0.000136733
8.70682e-06
0.00013382
8.73659e-06
0.000130898
8.76534e-06
0.000127966
8.79309e-06
0.000125026
8.81985e-06
0.000122077
8.84566e-06
0.000119119
8.87052e-06
0.000116154
8.89447e-06
0.000113181
8.91751e-06
0.000110201
8.93967e-06
0.000107213
8.96097e-06
0.000104219
8.98143e-06
0.000101218
9.00106e-06
9.82109e-05
9.01989e-06
9.51978e-05
9.03793e-06
9.2179e-05
9.0552e-06
8.91547e-05
9.07173e-06
8.61251e-05
9.08752e-06
8.30905e-05
9.10259e-06
8.00512e-05
9.11697e-06
7.70073e-05
9.13067e-06
7.3959e-05
9.14369e-06
7.09066e-05
9.15607e-06
6.78503e-05
9.16782e-06
6.47903e-05
9.17894e-06
6.17269e-05
9.18945e-06
5.86601e-05
9.19937e-06
5.55902e-05
9.20872e-06
5.25174e-05
9.21749e-06
4.94419e-05
9.22571e-06
4.63638e-05
9.23338e-06
4.32833e-05
9.24053e-06
4.02006e-05
9.24714e-06
3.71159e-05
9.25325e-06
3.40294e-05
9.25885e-06
3.09411e-05
9.26395e-06
2.78513e-05
9.26857e-06
2.47602e-05
9.2727e-06
2.16678e-05
9.27636e-06
1.85743e-05
9.27955e-06
1.548e-05
9.28227e-06
1.23849e-05
9.28453e-06
9.28919e-06
9.28634e-06
6.19304e-06
9.28769e-06
3.0966e-06
9.28859e-06
9.28904e-06
3.55501e-06
-1.42172e-05
7.10982e-06
-1.42164e-05
1.06642e-05
-1.42149e-05
1.42181e-05
-1.42125e-05
1.77711e-05
-1.42093e-05
2.13231e-05
-1.42053e-05
2.4874e-05
-1.42004e-05
2.84234e-05
-1.41948e-05
3.19713e-05
-1.41882e-05
3.55173e-05
-1.41808e-05
3.90612e-05
-1.41725e-05
4.26029e-05
-1.41633e-05
4.6142e-05
-1.41531e-05
4.96784e-05
-1.4142e-05
5.32117e-05
-1.41298e-05
5.67418e-05
-1.41166e-05
6.02684e-05
-1.41024e-05
6.37912e-05
-1.4087e-05
6.73098e-05
-1.40705e-05
7.08241e-05
-1.40529e-05
7.43337e-05
-1.40339e-05
7.78383e-05
-1.40138e-05
8.13376e-05
-1.39923e-05
8.48312e-05
-1.39695e-05
8.83187e-05
-1.39452e-05
9.17999e-05
-1.39195e-05
9.52744e-05
-1.38923e-05
9.87417e-05
-1.38635e-05
0.000102201
-1.38331e-05
0.000105653
-1.38011e-05
0.000109097
-1.37673e-05
0.000112531
-1.37317e-05
0.000115956
-1.36943e-05
0.000119372
-1.3655e-05
0.000122777
-1.36137e-05
0.000126171
-1.35704e-05
0.000129555
-1.3525e-05
0.000132926
-1.34775e-05
0.000136285
-1.34278e-05
0.000139631
-1.33758e-05
0.000142963
-1.33214e-05
0.000146282
-1.32647e-05
0.000149585
-1.32055e-05
0.000152873
-1.31439e-05
0.000156146
-1.30796e-05
0.000159401
-1.30127e-05
0.000162639
-1.29431e-05
0.000165859
-1.28708e-05
0.000169061
-1.27957e-05
0.000172243
-1.27177e-05
0.000175405
-1.26368e-05
0.000178546
-1.2553e-05
0.000181665
-1.24661e-05
0.000184762
-1.23762e-05
0.000187835
-1.22832e-05
0.000190885
-1.21871e-05
0.000193909
-1.20877e-05
0.000196909
-1.19852e-05
0.000199881
-1.18794e-05
0.000202827
-1.17703e-05
0.000205744
-1.16579e-05
0.000208633
-1.15421e-05
0.000211491
-1.1423e-05
0.000214319
-1.13005e-05
0.000217116
-1.11747e-05
0.00021988
-1.10454e-05
0.000222611
-1.09127e-05
0.000225309
-1.07766e-05
0.000227971
-1.06371e-05
0.000230597
-1.04942e-05
0.000233187
-1.03479e-05
0.00023574
-1.01982e-05
0.000238254
-1.00451e-05
0.000240729
-9.88876e-06
0.000243164
-9.72906e-06
0.000245558
-9.56609e-06
0.000247911
-9.39987e-06
0.000250222
-9.23046e-06
0.000252489
-9.05788e-06
0.000254712
-8.8822e-06
0.00025689
-8.70347e-06
0.000259023
-8.52175e-06
0.00026111
-8.33709e-06
0.00026315
-8.14958e-06
0.000265142
-7.95926e-06
0.000267086
-7.76623e-06
0.000268981
-7.57056e-06
0.000270826
-7.37234e-06
0.000272621
-7.17164e-06
0.000274365
-6.96856e-06
0.000276058
-6.76319e-06
0.000277699
-6.55563e-06
0.000279287
-6.34598e-06
0.000280822
-6.13433e-06
0.000282304
-5.92079e-06
0.000283732
-5.70547e-06
0.000285105
-5.48847e-06
0.000286424
-5.26991e-06
0.000287688
-5.0499e-06
0.000288896
-4.82855e-06
0.000290048
-4.60597e-06
0.000291145
-4.38229e-06
0.000292185
-4.1576e-06
0.000293169
-3.93205e-06
0.000294096
-3.70573e-06
0.000294966
-3.47877e-06
0.000295779
-3.25128e-06
0.000296535
-3.02339e-06
0.000297234
-2.7952e-06
0.000297876
-2.56683e-06
0.00029846
-2.3384e-06
0.000298988
-2.11002e-06
0.000299458
-1.8818e-06
0.000299871
-1.65384e-06
0.000300227
-1.42627e-06
0.000300527
-1.19918e-06
0.000300769
-9.72671e-07
0.000300955
-7.46855e-07
0.000301085
-5.21828e-07
0.000301158
-2.97686e-07
0.000301176
-7.45233e-08
0.000301138
1.47569e-07
0.000301045
3.68501e-07
0.000300897
5.88189e-07
0.000300694
8.06549e-07
0.000300437
1.0235e-06
0.000300126
1.23897e-06
0.000299761
1.45288e-06
0.000299343
1.66517e-06
0.000298873
1.87576e-06
0.00029835
2.08459e-06
0.000297776
2.29161e-06
0.00029715
2.49675e-06
0.000296473
2.69996e-06
0.000295746
2.90119e-06
0.000294969
3.10038e-06
0.000294143
3.29751e-06
0.000293268
3.49252e-06
0.000292344
3.68538e-06
0.000291374
3.87604e-06
0.000290355
4.06448e-06
0.000289291
4.25067e-06
0.00028818
4.43457e-06
0.000287024
4.61617e-06
0.000285823
4.79543e-06
0.000284578
4.97235e-06
0.000283289
5.1469e-06
0.000281957
5.31906e-06
0.000280583
5.48883e-06
0.000279167
5.65619e-06
0.000277709
5.82112e-06
0.000276211
5.98364e-06
0.000274673
6.14372e-06
0.000273096
6.30137e-06
0.00027148
6.45658e-06
0.000269825
6.60934e-06
0.000268133
6.75968e-06
0.000266404
6.90757e-06
0.000264639
7.05303e-06
0.000262838
7.19607e-06
0.000261001
7.33668e-06
0.00025913
7.47487e-06
0.000257226
7.61066e-06
0.000255288
7.74405e-06
0.000253317
7.87505e-06
0.000251314
8.00367e-06
0.000249279
8.12992e-06
0.000247214
8.25382e-06
0.000245118
8.37537e-06
0.000242992
8.4946e-06
0.000240837
8.61151e-06
0.000238654
8.72612e-06
0.000236442
8.83845e-06
0.000234203
8.94851e-06
0.000231937
9.05632e-06
0.000229645
9.16189e-06
0.000227326
9.26525e-06
0.000224983
9.3664e-06
0.000222615
9.46538e-06
0.000220222
9.56219e-06
0.000217806
9.65686e-06
0.000215367
9.74941e-06
0.000212905
9.83985e-06
0.000210421
9.92821e-06
0.000207916
1.00145e-05
0.000205389
1.00988e-05
0.000202842
1.0181e-05
0.000200275
1.02613e-05
0.000197689
1.03395e-05
0.000195083
1.04158e-05
0.000192459
1.04902e-05
0.000189817
1.05627e-05
0.000187157
1.06333e-05
0.000184479
1.0702e-05
0.000181786
1.07689e-05
0.000179076
1.0834e-05
0.00017635
1.08974e-05
0.000173608
1.09589e-05
0.000170852
1.10187e-05
0.000168082
1.10768e-05
0.000165297
1.11332e-05
0.000162498
1.1188e-05
0.000159687
1.12412e-05
0.000156862
1.12927e-05
0.000154025
1.13426e-05
0.000151176
1.1391e-05
0.000148315
1.14379e-05
0.000145443
1.14833e-05
0.00014256
1.15272e-05
0.000139666
1.15697e-05
0.000136763
1.16107e-05
0.000133849
1.16504e-05
0.000130925
1.16887e-05
0.000127993
1.17256e-05
0.000125051
1.17613e-05
0.000122101
1.17957e-05
0.000119143
1.18288e-05
0.000116177
1.18607e-05
0.000113203
1.18914e-05
0.000110222
1.19209e-05
0.000107233
1.19493e-05
0.000104238
1.19765e-05
0.000101237
1.20027e-05
9.82289e-05
1.20277e-05
9.52151e-05
1.20518e-05
9.21955e-05
1.20748e-05
8.91705e-05
1.20968e-05
8.61402e-05
1.21178e-05
8.31049e-05
1.21379e-05
8.00649e-05
1.2157e-05
7.70203e-05
1.21753e-05
7.39714e-05
1.21926e-05
7.09183e-05
1.22091e-05
6.78614e-05
1.22247e-05
6.48009e-05
1.22395e-05
6.17368e-05
1.22535e-05
5.86694e-05
1.22667e-05
5.5599e-05
1.22792e-05
5.25256e-05
1.22909e-05
4.94495e-05
1.23018e-05
4.63709e-05
1.2312e-05
4.32899e-05
1.23215e-05
4.02067e-05
1.23303e-05
3.71215e-05
1.23384e-05
3.40345e-05
1.23459e-05
3.09457e-05
1.23527e-05
2.78555e-05
1.23588e-05
2.47638e-05
1.23643e-05
2.1671e-05
1.23692e-05
1.85771e-05
1.23735e-05
1.54823e-05
1.23771e-05
1.23867e-05
1.23801e-05
9.29054e-06
1.23825e-05
6.19394e-06
1.23843e-05
3.09705e-06
1.23855e-05
1.23861e-05
3.5558e-06
-1.7773e-05
7.11141e-06
-1.77721e-05
1.06666e-05
-1.77701e-05
1.42213e-05
-1.77671e-05
1.77751e-05
-1.77631e-05
2.1328e-05
-1.77582e-05
2.48797e-05
-1.77521e-05
2.843e-05
-1.77451e-05
3.19787e-05
-1.77369e-05
3.55256e-05
-1.77277e-05
3.90704e-05
-1.77174e-05
4.2613e-05
-1.77059e-05
4.61532e-05
-1.76932e-05
4.96905e-05
-1.76793e-05
5.32249e-05
-1.76642e-05
5.67561e-05
-1.76478e-05
6.02838e-05
-1.76301e-05
6.38077e-05
-1.76109e-05
6.73275e-05
-1.75904e-05
7.0843e-05
-1.75684e-05
7.43539e-05
-1.75448e-05
7.78598e-05
-1.75197e-05
8.13604e-05
-1.74929e-05
8.48554e-05
-1.74645e-05
8.83445e-05
-1.74343e-05
9.18272e-05
-1.74022e-05
9.53032e-05
-1.73683e-05
9.87721e-05
-1.73324e-05
0.000102234
-1.72946e-05
0.000105687
-1.72546e-05
0.000109132
-1.72125e-05
0.000112569
-1.71681e-05
0.000115996
-1.71215e-05
0.000119413
-1.70724e-05
0.00012282
-1.70209e-05
0.000126217
-1.69669e-05
0.000129602
-1.69103e-05
0.000132976
-1.6851e-05
0.000136337
-1.6789e-05
0.000139685
-1.67241e-05
0.00014302
-1.66563e-05
0.000146341
-1.65855e-05
0.000149647
-1.65116e-05
0.000152938
-1.64346e-05
0.000156213
-1.63544e-05
0.000159471
-1.62709e-05
0.000162712
-1.61841e-05
0.000165935
-1.60938e-05
0.000169139
-1.6e-05
0.000172324
-1.59026e-05
0.000175489
-1.58016e-05
0.000178632
-1.56969e-05
0.000181755
-1.55884e-05
0.000184855
-1.54761e-05
0.000187931
-1.53599e-05
0.000190984
-1.52398e-05
0.000194012
-1.51157e-05
0.000197014
-1.49876e-05
0.00019999
-1.48554e-05
0.000202939
-1.4719e-05
0.00020586
-1.45786e-05
0.000208752
-1.44339e-05
0.000211614
-1.42851e-05
0.000214445
-1.4132e-05
0.000217245
-1.39747e-05
0.000220013
-1.38131e-05
0.000222748
-1.36473e-05
0.000225448
-1.34771e-05
0.000228114
-1.33027e-05
0.000230744
-1.31241e-05
0.000233337
-1.29412e-05
0.000235893
-1.2754e-05
0.00023841
-1.25627e-05
0.000240889
-1.23671e-05
0.000243327
-1.21675e-05
0.000245725
-1.19637e-05
0.000248081
-1.17558e-05
0.000250394
-1.1544e-05
0.000252665
-1.13282e-05
0.000254891
-1.11085e-05
0.000257072
-1.08849e-05
0.000259208
-1.06577e-05
0.000261298
-1.04267e-05
0.00026334
-1.01922e-05
0.000265335
-9.95417e-06
0.000267282
-9.71274e-06
0.000269179
-9.46799e-06
0.000271027
-9.22005e-06
0.000272824
-8.96901e-06
0.000274571
-8.71499e-06
0.000276266
-8.4581e-06
0.000277909
-8.19846e-06
0.000279499
-7.93621e-06
0.000281036
-7.67145e-06
0.000282519
-7.40433e-06
0.000283949
-7.13498e-06
0.000285324
-6.86352e-06
0.000286644
-6.59012e-06
0.000287909
-6.31489e-06
0.000289119
-6.03798e-06
0.000290272
-5.75954e-06
0.00029137
-5.47972e-06
0.000292411
-5.19865e-06
0.000293395
-4.91648e-06
0.000294323
-4.63337e-06
0.000295193
-4.34945e-06
0.000296007
-4.06487e-06
0.000296763
-3.77979e-06
0.000297463
-3.49434e-06
0.000298104
-3.20866e-06
0.000298689
-2.92291e-06
0.000299216
-2.63723e-06
0.000299686
-2.35174e-06
0.000300099
-2.0666e-06
0.000300454
-1.78193e-06
0.000300753
-1.49787e-06
0.000300995
-1.21455e-06
0.00030118
-9.32092e-07
0.000301309
-6.50627e-07
0.000301382
-3.70273e-07
0.000301398
-9.11489e-08
0.000301359
1.86632e-07
0.000301265
4.62958e-07
0.000301115
7.37722e-07
0.000300911
1.01082e-06
0.000300652
1.28216e-06
0.00030034
1.55163e-06
0.000299973
1.81915e-06
0.000299554
2.08463e-06
0.000299082
2.34799e-06
0.000298557
2.60915e-06
0.000297981
2.86802e-06
0.000297353
3.12455e-06
0.000296674
3.37866e-06
0.000295945
3.63028e-06
0.000295166
3.87937e-06
0.000294338
4.12585e-06
0.000293461
4.36969e-06
0.000292535
4.61082e-06
0.000291562
4.84922e-06
0.000290542
5.08483e-06
0.000289475
5.31761e-06
0.000288362
5.54754e-06
0.000287203
5.77458e-06
0.000286
5.9987e-06
0.000284753
6.21988e-06
0.000283461
6.43809e-06
0.000282127
6.65332e-06
0.00028075
6.86555e-06
0.000279332
7.07476e-06
0.000277872
7.28095e-06
0.000276371
7.48411e-06
0.000274831
7.68422e-06
0.000273251
7.88128e-06
0.000271632
8.07529e-06
0.000269975
8.26625e-06
0.000268281
8.45416e-06
0.00026655
8.63903e-06
0.000264782
8.82084e-06
0.000262978
8.99963e-06
0.000261139
9.17538e-06
0.000259266
9.34811e-06
0.000257359
9.51782e-06
0.000255419
9.68454e-06
0.000253445
9.84827e-06
0.00025144
1.0009e-05
0.000249403
1.01668e-05
0.000247335
1.03217e-05
0.000245237
1.04736e-05
0.000243109
1.06226e-05
0.000240952
1.07687e-05
0.000238766
1.09119e-05
0.000236552
1.10523e-05
0.000234311
1.11899e-05
0.000232043
1.13246e-05
0.000229748
1.14565e-05