/*--------------------------------*- C++ -*----------------------------------*\
| =========                 |                                                 |
| \\      /  F ield         | OpenFOAM: The Open Source CFD Toolbox           |
|  \\    /   O peration     | Version:  v2012                                 |
|   \\  /    A nd           | Website:  www.openfoam.com                      |
|    \\/     M anipulation  |                                                 |
\*---------------------------------------------------------------------------*/
FoamFile
{
    version     2.0;
    format      ascii;
    class       volVectorField;
    location    "3.5";
    object      U;
}
// * * * * * * * * * * * * * * * * * * * * * * * * * * * * * * * * * * * * * //

dimensions      [0 1 -1 0 0 0 0];


internalField   nonuniform List<vector> 
65536
(
(0.000724355 -0.000724335 0)
(0.00217302 -0.000724293 0)
(0.00362157 -0.000724212 0)
(0.00506991 -0.000724089 0)
(0.00651797 -0.000723925 0)
(0.00796565 -0.00072372 0)
(0.00941288 -0.000723471 0)
(0.0108596 -0.00072318 0)
(0.0123056 -0.000722844 0)
(0.013751 -0.000722464 0)
(0.0151955 -0.000722037 0)
(0.0166392 -0.000721564 0)
(0.0180818 -0.000721041 0)
(0.0195234 -0.000720469 0)
(0.0209638 -0.000719846 0)
(0.0224028 -0.000719169 0)
(0.0238405 -0.000718438 0)
(0.0252767 -0.00071765 0)
(0.0267112 -0.000716804 0)
(0.0281439 -0.000715897 0)
(0.0295748 -0.000714928 0)
(0.0310037 -0.000713894 0)
(0.0324305 -0.000712793 0)
(0.0338549 -0.000711622 0)
(0.035277 -0.00071038 0)
(0.0366965 -0.000709063 0)
(0.0381133 -0.000707669 0)
(0.0395273 -0.000706195 0)
(0.0409382 -0.000704639 0)
(0.0423459 -0.000702998 0)
(0.0437503 -0.000701268 0)
(0.0451511 -0.000699448 0)
(0.0465482 -0.000697533 0)
(0.0479413 -0.000695521 0)
(0.0493304 -0.000693409 0)
(0.0507151 -0.000691195 0)
(0.0520952 -0.000688873 0)
(0.0534707 -0.000686443 0)
(0.0548411 -0.0006839 0)
(0.0562064 -0.000681242 0)
(0.0575662 -0.000678465 0)
(0.0589204 -0.000675566 0)
(0.0602686 -0.000672542 0)
(0.0616107 -0.000669391 0)
(0.0629463 -0.000666109 0)
(0.0642752 -0.000662692 0)
(0.0655972 -0.000659139 0)
(0.0669119 -0.000655446 0)
(0.0682191 -0.000651611 0)
(0.0695185 -0.00064763 0)
(0.0708098 -0.000643501 0)
(0.0720927 -0.000639222 0)
(0.0733668 -0.00063479 0)
(0.074632 -0.000630202 0)
(0.0758878 -0.000625457 0)
(0.077134 -0.000620552 0)
(0.0783702 -0.000615485 0)
(0.0795961 -0.000610255 0)
(0.0808113 -0.000604859 0)
(0.0820157 -0.000599296 0)
(0.0832087 -0.000593565 0)
(0.0843901 -0.000587664 0)
(0.0855595 -0.000581592 0)
(0.0867166 -0.000575349 0)
(0.0878611 -0.000568934 0)
(0.0889925 -0.000562346 0)
(0.0901106 -0.000555584 0)
(0.091215 -0.00054865 0)
(0.0923054 -0.000541542 0)
(0.0933814 -0.000534261 0)
(0.0944426 -0.000526808 0)
(0.0954888 -0.000519183 0)
(0.0965195 -0.000511388 0)
(0.0975345 -0.000503423 0)
(0.0985334 -0.00049529 0)
(0.0995158 -0.000486991 0)
(0.100482 -0.000478527 0)
(0.10143 -0.000469901 0)
(0.102361 -0.000461114 0)
(0.103275 -0.00045217 0)
(0.10417 -0.000443071 0)
(0.105047 -0.00043382 0)
(0.105906 -0.00042442 0)
(0.106745 -0.000414875 0)
(0.107565 -0.000405188 0)
(0.108366 -0.000395363 0)
(0.109147 -0.000385404 0)
(0.109908 -0.000375315 0)
(0.110648 -0.000365101 0)
(0.111368 -0.000354766 0)
(0.112067 -0.000344315 0)
(0.112746 -0.000333752 0)
(0.113402 -0.000323083 0)
(0.114038 -0.000312313 0)
(0.114652 -0.000301447 0)
(0.115244 -0.00029049 0)
(0.115814 -0.000279449 0)
(0.116362 -0.000268327 0)
(0.116887 -0.000257132 0)
(0.11739 -0.000245869 0)
(0.117871 -0.000234544 0)
(0.118329 -0.000223162 0)
(0.118763 -0.000211729 0)
(0.119175 -0.000200252 0)
(0.119565 -0.000188737 0)
(0.11993 -0.000177188 0)
(0.120273 -0.000165613 0)
(0.120593 -0.000154016 0)
(0.120889 -0.000142405 0)
(0.121163 -0.000130784 0)
(0.121413 -0.00011916 0)
(0.121639 -0.000107539 0)
(0.121843 -9.59247e-05 0)
(0.122023 -8.43243e-05 0)
(0.12218 -7.27429e-05 0)
(0.122314 -6.11858e-05 0)
(0.122425 -4.96583e-05 0)
(0.122512 -3.81657e-05 0)
(0.122577 -2.67128e-05 0)
(0.122619 -1.53047e-05 0)
(0.122638 -3.94617e-06 0)
(0.122635 7.35824e-06 0)
(0.122609 1.8604e-05 0)
(0.122561 2.97867e-05 0)
(0.12249 4.09022e-05 0)
(0.122397 5.19464e-05 0)
(0.122282 6.29155e-05 0)
(0.122145 7.38057e-05 0)
(0.121987 8.46134e-05 0)
(0.121807 9.53352e-05 0)
(0.121605 0.000105968 0)
(0.121383 0.000116508 0)
(0.121139 0.000126954 0)
(0.120875 0.000137301 0)
(0.12059 0.000147548 0)
(0.120284 0.000157692 0)
(0.119959 0.000167731 0)
(0.119613 0.000177662 0)
(0.119248 0.000187484 0)
(0.118863 0.000197195 0)
(0.118459 0.000206793 0)
(0.118036 0.000216276 0)
(0.117594 0.000225643 0)
(0.117133 0.000234893 0)
(0.116654 0.000244025 0)
(0.116157 0.000253037 0)
(0.115642 0.000261929 0)
(0.115109 0.0002707 0)
(0.114559 0.000279349 0)
(0.113992 0.000287875 0)
(0.113407 0.000296279 0)
(0.112807 0.000304559 0)
(0.112189 0.000312715 0)
(0.111556 0.000320748 0)
(0.110906 0.000328657 0)
(0.110241 0.000336441 0)
(0.10956 0.000344102 0)
(0.108864 0.000351638 0)
(0.108153 0.000359051 0)
(0.107428 0.00036634 0)
(0.106688 0.000373506 0)
(0.105934 0.000380549 0)
(0.105166 0.000387469 0)
(0.104384 0.000394267 0)
(0.103588 0.000400944 0)
(0.10278 0.000407499 0)
(0.101958 0.000413934 0)
(0.101124 0.000420249 0)
(0.100277 0.000426445 0)
(0.0994182 0.000432522 0)
(0.098547 0.000438481 0)
(0.0976641 0.000444324 0)
(0.0967696 0.00045005 0)
(0.0958638 0.00045566 0)
(0.0949469 0.000461156 0)
(0.0940191 0.000466538 0)
(0.0930806 0.000471807 0)
(0.0921317 0.000476964 0)
(0.0911726 0.00048201 0)
(0.0902036 0.000486946 0)
(0.0892248 0.000491772 0)
(0.0882364 0.000496491 0)
(0.0872387 0.000501102 0)
(0.0862319 0.000505608 0)
(0.0852161 0.000510008 0)
(0.0841917 0.000514305 0)
(0.0831588 0.000518498 0)
(0.0821176 0.00052259 0)
(0.0810684 0.000526581 0)
(0.0800112 0.000530473 0)
(0.0789464 0.000534267 0)
(0.0778741 0.000537963 0)
(0.0767944 0.000541564 0)
(0.0757077 0.00054507 0)
(0.0746141 0.000548483 0)
(0.0735137 0.000551803 0)
(0.0724068 0.000555033 0)
(0.0712935 0.000558173 0)
(0.070174 0.000561224 0)
(0.0690485 0.000564188 0)
(0.0679171 0.000567067 0)
(0.0667801 0.000569861 0)
(0.0656376 0.000572573 0)
(0.0644897 0.000575202 0)
(0.0633367 0.000577751 0)
(0.0621787 0.000580221 0)
(0.0610158 0.000582614 0)
(0.0598481 0.00058493 0)
(0.058676 0.000587171 0)
(0.0574994 0.000589339 0)
(0.0563185 0.000591434 0)
(0.0551336 0.000593459 0)
(0.0539446 0.000595414 0)
(0.0527518 0.000597302 0)
(0.0515554 0.000599122 0)
(0.0503553 0.000600878 0)
(0.0491518 0.000602569 0)
(0.0479449 0.000604198 0)
(0.0467349 0.000605766 0)
(0.0455218 0.000607273 0)
(0.0443058 0.000608722 0)
(0.0430869 0.000610114 0)
(0.0418653 0.00061145 0)
(0.040641 0.000612731 0)
(0.0394143 0.000613959 0)
(0.0381851 0.000615135 0)
(0.0369537 0.000616259 0)
(0.03572 0.000617334 0)
(0.0344843 0.00061836 0)
(0.0332466 0.000619338 0)
(0.0320069 0.000620271 0)
(0.0307654 0.000621157 0)
(0.0295222 0.000622 0)
(0.0282774 0.000622799 0)
(0.027031 0.000623556 0)
(0.0257831 0.000624272 0)
(0.0245339 0.000624948 0)
(0.0232833 0.000625584 0)
(0.0220315 0.000626181 0)
(0.0207785 0.000626741 0)
(0.0195245 0.000627263 0)
(0.0182694 0.00062775 0)
(0.0170134 0.0006282 0)
(0.0157566 0.000628616 0)
(0.0144989 0.000628997 0)
(0.0132406 0.000629345 0)
(0.0119815 0.000629659 0)
(0.0107219 0.000629941 0)
(0.00946174 0.00063019 0)
(0.00820111 0.000630407 0)
(0.00694008 0.000630593 0)
(0.0056787 0.000630747 0)
(0.00441706 0.00063087 0)
(0.00315519 0.000630962 0)
(0.00189318 0.000631023 0)
(0.000631069 0.000631054 0)
(0.000724394 -0.00217304 0)
(0.00217314 -0.00217292 0)
(0.00362177 -0.00217268 0)
(0.00507019 -0.00217231 0)
(0.00651833 -0.00217182 0)
(0.0079661 -0.0021712 0)
(0.00941342 -0.00217046 0)
(0.0108602 -0.00216958 0)
(0.0123064 -0.00216858 0)
(0.0137518 -0.00216744 0)
(0.0151964 -0.00216616 0)
(0.0166402 -0.00216474 0)
(0.0180829 -0.00216317 0)
(0.0195246 -0.00216146 0)
(0.0209651 -0.00215959 0)
(0.0224042 -0.00215756 0)
(0.023842 -0.00215537 0)
(0.0252783 -0.00215301 0)
(0.0267129 -0.00215047 0)
(0.0281458 -0.00214775 0)
(0.0295768 -0.00214485 0)
(0.0310058 -0.00214175 0)
(0.0324327 -0.00213845 0)
(0.0338573 -0.00213494 0)
(0.0352796 -0.00213121 0)
(0.0366992 -0.00212727 0)
(0.0381162 -0.00212309 0)
(0.0395303 -0.00211867 0)
(0.0409414 -0.002114 0)
(0.0423493 -0.00210908 0)
(0.0437538 -0.00210389 0)
(0.0451548 -0.00209844 0)
(0.0465521 -0.00209269 0)
(0.0479454 -0.00208666 0)
(0.0493347 -0.00208033 0)
(0.0507196 -0.00207369 0)
(0.0521 -0.00206673 0)
(0.0534756 -0.00205944 0)
(0.0548463 -0.00205182 0)
(0.0562118 -0.00204384 0)
(0.0575719 -0.00203552 0)
(0.0589263 -0.00202682 0)
(0.0602747 -0.00201775 0)
(0.0616171 -0.0020083 0)
(0.062953 -0.00199846 0)
(0.0642822 -0.00198821 0)
(0.0656044 -0.00197756 0)
(0.0669194 -0.00196648 0)
(0.0682269 -0.00195498 0)
(0.0695266 -0.00194304 0)
(0.0708182 -0.00193065 0)
(0.0721013 -0.00191782 0)
(0.0733758 -0.00190452 0)
(0.0746413 -0.00189076 0)
(0.0758974 -0.00187653 0)
(0.0771439 -0.00186182 0)
(0.0783804 -0.00184662 0)
(0.0796067 -0.00183093 0)
(0.0808223 -0.00181474 0)
(0.0820269 -0.00179806 0)
(0.0832203 -0.00178086 0)
(0.084402 -0.00176316 0)
(0.0855718 -0.00174495 0)
(0.0867293 -0.00172622 0)
(0.0878741 -0.00170697 0)
(0.0890059 -0.00168721 0)
(0.0901243 -0.00166693 0)
(0.0912291 -0.00164612 0)
(0.0923198 -0.0016248 0)
(0.0933961 -0.00160295 0)
(0.0944577 -0.00158059 0)
(0.0955042 -0.00155772 0)
(0.0965353 -0.00153433 0)
(0.0975506 -0.00151044 0)
(0.0985498 -0.00148604 0)
(0.0995326 -0.00146114 0)
(0.100499 -0.00143574 0)
(0.101447 -0.00140986 0)
(0.102379 -0.0013835 0)
(0.103293 -0.00135666 0)
(0.104188 -0.00132936 0)
(0.105066 -0.00130161 0)
(0.105924 -0.00127341 0)
(0.106764 -0.00124477 0)
(0.107585 -0.0012157 0)
(0.108386 -0.00118622 0)
(0.109167 -0.00115634 0)
(0.109928 -0.00112607 0)
(0.110669 -0.00109542 0)
(0.111389 -0.00106441 0)
(0.112088 -0.00103306 0)
(0.112767 -0.00100136 0)
(0.113424 -0.000969351 0)
(0.11406 -0.000937035 0)
(0.114674 -0.000904432 0)
(0.115266 -0.000871556 0)
(0.115836 -0.000838426 0)
(0.116384 -0.000805056 0)
(0.11691 -0.000771465 0)
(0.117413 -0.00073767 0)
(0.117893 -0.000703688 0)
(0.118351 -0.000669537 0)
(0.118786 -0.000635234 0)
(0.119198 -0.000600797 0)
(0.119588 -0.000566243 0)
(0.119954 -0.000531592 0)
(0.120296 -0.00049686 0)
(0.120616 -0.000462065 0)
(0.120913 -0.000427225 0)
(0.121186 -0.000392358 0)
(0.121436 -0.00035748 0)
(0.121662 -0.000322609 0)
(0.121866 -0.000287762 0)
(0.122046 -0.000252955 0)
(0.122203 -0.000218205 0)
(0.122337 -0.000183529 0)
(0.122448 -0.000148941 0)
(0.122535 -0.000114458 0)
(0.1226 -8.0095e-05 0)
(0.122642 -4.58659e-05 0)
(0.122661 -1.17856e-05 0)
(0.122658 2.21321e-05 0)
(0.122631 5.58736e-05 0)
(0.122583 8.94259e-05 0)
(0.122512 0.000122776 0)
(0.122419 0.000155913 0)
(0.122304 0.000188824 0)
(0.122167 0.000221498 0)
(0.122008 0.000253925 0)
(0.121828 0.000286093 0)
(0.121626 0.000317994 0)
(0.121404 0.000349619 0)
(0.12116 0.000380958 0)
(0.120895 0.000412003 0)
(0.12061 0.000442746 0)
(0.120305 0.00047318 0)
(0.119979 0.000503299 0)
(0.119633 0.000533095 0)
(0.119268 0.000562562 0)
(0.118883 0.000591696 0)
(0.118478 0.000620491 0)
(0.118055 0.000648942 0)
(0.117613 0.000677046 0)
(0.117152 0.000704797 0)
(0.116672 0.000732193 0)
(0.116175 0.000759231 0)
(0.11566 0.000785908 0)
(0.115127 0.000812221 0)
(0.114576 0.000838168 0)
(0.114009 0.000863748 0)
(0.113424 0.000888959 0)
(0.112823 0.000913799 0)
(0.112205 0.000938269 0)
(0.111571 0.000962367 0)
(0.110922 0.000986092 0)
(0.110256 0.00100945 0)
(0.109575 0.00103243 0)
(0.108879 0.00105504 0)
(0.108168 0.00107727 0)
(0.107442 0.00109914 0)
(0.106702 0.00112064 0)
(0.105948 0.00114177 0)
(0.105179 0.00116253 0)
(0.104397 0.00118292 0)
(0.103602 0.00120295 0)
(0.102793 0.00122262 0)
(0.101971 0.00124192 0)
(0.101137 0.00126087 0)
(0.10029 0.00127945 0)
(0.0994302 0.00129768 0)
(0.0985588 0.00131556 0)
(0.0976757 0.00133309 0)
(0.096781 0.00135026 0)
(0.0958749 0.00136709 0)
(0.0949578 0.00138358 0)
(0.0940297 0.00139973 0)
(0.093091 0.00141553 0)
(0.0921419 0.001431 0)
(0.0911826 0.00144614 0)
(0.0902134 0.00146094 0)
(0.0892343 0.00147542 0)
(0.0882457 0.00148958 0)
(0.0872478 0.00150341 0)
(0.0862408 0.00151693 0)
(0.0852249 0.00153013 0)
(0.0842002 0.00154302 0)
(0.0831671 0.0015556 0)
(0.0821257 0.00156787 0)
(0.0810763 0.00157984 0)
(0.0800189 0.00159152 0)
(0.0789539 0.0016029 0)
(0.0778814 0.00161399 0)
(0.0768015 0.00162479 0)
(0.0757146 0.0016353 0)
(0.0746208 0.00164554 0)
(0.0735202 0.0016555 0)
(0.0724131 0.00166519 0)
(0.0712997 0.00167461 0)
(0.07018 0.00168376 0)
(0.0690543 0.00169265 0)
(0.0679228 0.00170129 0)
(0.0667856 0.00170967 0)
(0.065643 0.0017178 0)
(0.0644949 0.00172569 0)
(0.0633417 0.00173333 0)
(0.0621835 0.00174074 0)
(0.0610205 0.00174792 0)
(0.0598527 0.00175486 0)
(0.0586804 0.00176159 0)
(0.0575037 0.00176809 0)
(0.0563227 0.00177437 0)
(0.0551376 0.00178045 0)
(0.0539485 0.00178631 0)
(0.0527556 0.00179197 0)
(0.0515589 0.00179743 0)
(0.0503587 0.0018027 0)
(0.0491551 0.00180777 0)
(0.0479482 0.00181266 0)
(0.046738 0.00181736 0)
(0.0455248 0.00182188 0)
(0.0443086 0.00182622 0)
(0.0430896 0.0018304 0)
(0.0418679 0.00183441 0)
(0.0406435 0.00183825 0)
(0.0394167 0.00184193 0)
(0.0381874 0.00184546 0)
(0.0369559 0.00184883 0)
(0.0357222 0.00185205 0)
(0.0344863 0.00185513 0)
(0.0332485 0.00185806 0)
(0.0320087 0.00186086 0)
(0.0307672 0.00186352 0)
(0.0295239 0.00186604 0)
(0.028279 0.00186844 0)
(0.0270325 0.00187071 0)
(0.0257845 0.00187286 0)
(0.0245352 0.00187488 0)
(0.0232845 0.00187679 0)
(0.0220326 0.00187858 0)
(0.0207796 0.00188026 0)
(0.0195255 0.00188183 0)
(0.0182704 0.00188329 0)
(0.0170143 0.00188464 0)
(0.0157574 0.00188588 0)
(0.0144997 0.00188703 0)
(0.0132412 0.00188807 0)
(0.0119821 0.00188901 0)
(0.0107224 0.00188986 0)
(0.00946221 0.0018906 0)
(0.00820151 0.00189125 0)
(0.00694042 0.00189181 0)
(0.00567898 0.00189227 0)
(0.00441727 0.00189264 0)
(0.00315535 0.00189292 0)
(0.00189327 0.0018931 0)
(0.0006311 0.00189319 0)
(0.000724476 -0.00362187 0)
(0.00217339 -0.00362167 0)
(0.00362218 -0.00362126 0)
(0.00507077 -0.00362065 0)
(0.00651907 -0.00361983 0)
(0.00796701 -0.00361881 0)
(0.0094145 -0.00361757 0)
(0.0108615 -0.00361612 0)
(0.0123078 -0.00361444 0)
(0.0137534 -0.00361255 0)
(0.0151982 -0.00361042 0)
(0.0166422 -0.00360806 0)
(0.0180851 -0.00360545 0)
(0.019527 -0.0036026 0)
(0.0209677 -0.00359949 0)
(0.0224071 -0.00359612 0)
(0.023845 -0.00359247 0)
(0.0252815 -0.00358854 0)
(0.0267164 -0.00358432 0)
(0.0281495 -0.0035798 0)
(0.0295808 -0.00357496 0)
(0.0310101 -0.0035698 0)
(0.0324373 -0.00356431 0)
(0.0338622 -0.00355847 0)
(0.0352847 -0.00355227 0)
(0.0367046 -0.0035457 0)
(0.0381219 -0.00353874 0)
(0.0395364 -0.00353139 0)
(0.0409478 -0.00352362 0)
(0.042356 -0.00351543 0)
(0.0437609 -0.00350679 0)
(0.0451623 -0.00349771 0)
(0.0465599 -0.00348815 0)
(0.0479537 -0.0034781 0)
(0.0493433 -0.00346756 0)
(0.0507286 -0.0034565 0)
(0.0521095 -0.00344491 0)
(0.0534856 -0.00343278 0)
(0.0548567 -0.00342008 0)
(0.0562227 -0.0034068 0)
(0.0575832 -0.00339293 0)
(0.0589381 -0.00337845 0)
(0.0602871 -0.00336335 0)
(0.0616299 -0.00334761 0)
(0.0629664 -0.00333121 0)
(0.0642961 -0.00331414 0)
(0.0656189 -0.00329639 0)
(0.0669345 -0.00327794 0)
(0.0682425 -0.00325878 0)
(0.0695428 -0.00323889 0)
(0.070835 -0.00321826 0)
(0.0721188 -0.00319687 0)
(0.0733939 -0.00317472 0)
(0.0746599 -0.0031518 0)
(0.0759167 -0.00312808 0)
(0.0771638 -0.00310357 0)
(0.078401 -0.00307824 0)
(0.0796279 -0.0030521 0)
(0.0808442 -0.00302513 0)
(0.0820495 -0.00299732 0)
(0.0832436 -0.00296867 0)
(0.084426 -0.00293917 0)
(0.0855964 -0.00290882 0)
(0.0867546 -0.00287761 0)
(0.0879001 -0.00284553 0)
(0.0890326 -0.00281259 0)
(0.0901517 -0.00277879 0)
(0.0912572 -0.00274411 0)
(0.0923486 -0.00270857 0)
(0.0934256 -0.00267217 0)
(0.0944878 -0.0026349 0)
(0.095535 -0.00259677 0)
(0.0965668 -0.00255779 0)
(0.0975828 -0.00251796 0)
(0.0985827 -0.00247728 0)
(0.0995661 -0.00243578 0)
(0.100533 -0.00239345 0)
(0.101482 -0.0023503 0)
(0.102414 -0.00230636 0)
(0.103329 -0.00226162 0)
(0.104225 -0.00221611 0)
(0.105103 -0.00216984 0)
(0.105962 -0.00212283 0)
(0.106803 -0.00207508 0)
(0.107624 -0.00202663 0)
(0.108425 -0.00197748 0)
(0.109207 -0.00192767 0)
(0.109969 -0.0018772 0)
(0.11071 -0.00182611 0)
(0.111431 -0.00177441 0)
(0.11213 -0.00172213 0)
(0.112809 -0.00166929 0)
(0.113467 -0.00161592 0)
(0.114103 -0.00156205 0)
(0.114717 -0.00150769 0)
(0.11531 -0.00145288 0)
(0.11588 -0.00139764 0)
(0.116429 -0.00134201 0)
(0.116955 -0.001286 0)
(0.117458 -0.00122966 0)
(0.117939 -0.001173 0)
(0.118397 -0.00111606 0)
(0.118832 -0.00105887 0)
(0.119244 -0.00100146 0)
(0.119634 -0.000943849 0)
(0.12 -0.000886076 0)
(0.120343 -0.00082817 0)
(0.120663 -0.000770159 0)
(0.120959 -0.000712073 0)
(0.121232 -0.000653941 0)
(0.121482 -0.000595792 0)
(0.121709 -0.000537655 0)
(0.121912 -0.000479558 0)
(0.122092 -0.000421529 0)
(0.122249 -0.000363595 0)
(0.122383 -0.000305783 0)
(0.122494 -0.00024812 0)
(0.122581 -0.000190631 0)
(0.122646 -0.000133343 0)
(0.122688 -7.62784e-05 0)
(0.122706 -1.94623e-05 0)
(0.122703 3.70821e-05 0)
(0.122676 9.33325e-05 0)
(0.122627 0.000149267 0)
(0.122556 0.000204865 0)
(0.122463 0.000260105 0)
(0.122347 0.000314969 0)
(0.12221 0.000369438 0)
(0.122051 0.000423494 0)
(0.121871 0.000477119 0)
(0.121669 0.000530298 0)
(0.121446 0.000583015 0)
(0.121201 0.000635256 0)
(0.120936 0.000687006 0)
(0.120651 0.000738253 0)
(0.120345 0.000788984 0)
(0.120019 0.000839189 0)
(0.119673 0.000888855 0)
(0.119307 0.000937974 0)
(0.118921 0.000986536 0)
(0.118516 0.00103453 0)
(0.118093 0.00108196 0)
(0.11765 0.0011288 0)
(0.117188 0.00117506 0)
(0.116709 0.00122072 0)
(0.116211 0.00126579 0)
(0.115695 0.00131025 0)
(0.115162 0.00135411 0)
(0.114611 0.00139735 0)
(0.114043 0.00143999 0)
(0.113458 0.00148201 0)
(0.112856 0.00152341 0)
(0.112238 0.00156419 0)
(0.111603 0.00160436 0)
(0.110953 0.0016439 0)
(0.110287 0.00168282 0)
(0.109606 0.00172112 0)
(0.108909 0.00175881 0)
(0.108198 0.00179587 0)
(0.107471 0.00183231 0)
(0.106731 0.00186814 0)
(0.105976 0.00190335 0)
(0.105207 0.00193795 0)
(0.104424 0.00197194 0)
(0.103628 0.00200532 0)
(0.102819 0.0020381 0)
(0.101997 0.00207027 0)
(0.101162 0.00210184 0)
(0.100314 0.00213281 0)
(0.0994543 0.0021632 0)
(0.0985824 0.00219299 0)
(0.0976988 0.0022222 0)
(0.0968036 0.00225082 0)
(0.0958971 0.00227887 0)
(0.0949795 0.00230635 0)
(0.094051 0.00233325 0)
(0.0931119 0.00235959 0)
(0.0921623 0.00238537 0)
(0.0912026 0.0024106 0)
(0.0902329 0.00243527 0)
(0.0892534 0.0024594 0)
(0.0882644 0.00248299 0)
(0.087266 0.00250604 0)
(0.0862586 0.00252856 0)
(0.0852422 0.00255056 0)
(0.0842172 0.00257204 0)
(0.0831837 0.002593 0)
(0.0821419 0.00261345 0)
(0.081092 0.0026334 0)
(0.0800343 0.00265286 0)
(0.0789689 0.00267182 0)
(0.0778959 0.0026903 0)
(0.0768158 0.00270829 0)
(0.0757285 0.00272582 0)
(0.0746343 0.00274287 0)
(0.0735333 0.00275947 0)
(0.0724259 0.00277561 0)
(0.071312 0.0027913 0)
(0.070192 0.00280655 0)
(0.069066 0.00282137 0)
(0.0679342 0.00283576 0)
(0.0667966 0.00284972 0)
(0.0656536 0.00286327 0)
(0.0645053 0.00287641 0)
(0.0633518 0.00288915 0)
(0.0621933 0.0029015 0)
(0.0610299 0.00291345 0)
(0.0598618 0.00292502 0)
(0.0586892 0.00293622 0)
(0.0575122 0.00294705 0)
(0.0563309 0.00295753 0)
(0.0551455 0.00296764 0)
(0.0539562 0.00297741 0)
(0.052763 0.00298684 0)
(0.0515661 0.00299594 0)
(0.0503656 0.00300471 0)
(0.0491617 0.00301316 0)
(0.0479545 0.0030213 0)
(0.0467442 0.00302913 0)
(0.0455307 0.00303666 0)
(0.0443143 0.0030439 0)
(0.0430951 0.00305085 0)
(0.0418731 0.00305753 0)
(0.0406486 0.00306393 0)
(0.0394215 0.00307006 0)
(0.038192 0.00307593 0)
(0.0369603 0.00308155 0)
(0.0357264 0.00308691 0)
(0.0344903 0.00309204 0)
(0.0332523 0.00309693 0)
(0.0320124 0.00310158 0)
(0.0307706 0.00310601 0)
(0.0295272 0.00311022 0)
(0.0282821 0.00311421 0)
(0.0270354 0.00311799 0)
(0.0257873 0.00312156 0)
(0.0245378 0.00312494 0)
(0.023287 0.00312811 0)
(0.022035 0.0031311 0)
(0.0207818 0.00313389 0)
(0.0195275 0.0031365 0)
(0.0182722 0.00313893 0)
(0.017016 0.00314118 0)
(0.015759 0.00314325 0)
(0.0145011 0.00314516 0)
(0.0132426 0.00314689 0)
(0.0119833 0.00314846 0)
(0.0107235 0.00314987 0)
(0.00946314 0.00315111 0)
(0.00820232 0.0031522 0)
(0.00694109 0.00315312 0)
(0.00567954 0.00315389 0)
(0.0044177 0.00315451 0)
(0.00315565 0.00315496 0)
(0.00189345 0.00315527 0)
(0.000631161 0.00315542 0)
(0.000724597 -0.0050709 0)
(0.00217375 -0.00507062 0)
(0.00362279 -0.00507005 0)
(0.00507162 -0.0050692 0)
(0.00652018 -0.00506806 0)
(0.00796837 -0.00506663 0)
(0.00941611 -0.0050649 0)
(0.0108633 -0.00506287 0)
(0.0123099 -0.00506054 0)
(0.0137558 -0.00505789 0)
(0.0152009 -0.00505492 0)
(0.0166451 -0.00505162 0)
(0.0180884 -0.00504798 0)
(0.0195306 -0.005044 0)
(0.0209715 -0.00503966 0)
(0.0224113 -0.00503495 0)
(0.0238496 -0.00502985 0)
(0.0252864 -0.00502437 0)
(0.0267216 -0.00501847 0)
(0.0281551 -0.00501215 0)
(0.0295868 -0.0050054 0)
(0.0310165 -0.00499819 0)
(0.0324441 -0.00499052 0)
(0.0338694 -0.00498236 0)
(0.0352923 -0.0049737 0)
(0.0367128 -0.00496452 0)
(0.0381305 -0.0049548 0)
(0.0395454 -0.00494452 0)
(0.0409574 -0.00493367 0)
(0.0423661 -0.00492222 0)
(0.0437715 -0.00491015 0)
(0.0451735 -0.00489745 0)
(0.0465717 -0.00488409 0)
(0.047966 -0.00487005 0)
(0.0493563 -0.00485531 0)
(0.0507422 -0.00483985 0)
(0.0521237 -0.00482364 0)
(0.0535005 -0.00480667 0)
(0.0548723 -0.00478892 0)
(0.0562389 -0.00477035 0)
(0.0576002 -0.00475096 0)
(0.0589558 -0.00473071 0)
(0.0603056 -0.00470959 0)
(0.0616492 -0.00468757 0)
(0.0629864 -0.00466463 0)
(0.064317 -0.00464076 0)
(0.0656406 -0.00461593 0)
(0.066957 -0.00459012 0)
(0.068266 -0.00456331 0)
(0.0695671 -0.00453548 0)
(0.0708602 -0.00450661 0)
(0.0721449 -0.00447669 0)
(0.0734209 -0.0044457 0)
(0.0746879 -0.00441362 0)
(0.0759457 -0.00438043 0)
(0.0771938 -0.00434613 0)
(0.0784319 -0.00431069 0)
(0.0796598 -0.0042741 0)
(0.0808771 -0.00423635 0)
(0.0820834 -0.00419743 0)
(0.0832785 -0.00415733 0)
(0.0844619 -0.00411604 0)
(0.0856334 -0.00407355 0)
(0.0867926 -0.00402986 0)
(0.0879391 -0.00398496 0)
(0.0890726 -0.00393884 0)
(0.0901928 -0.00389151 0)
(0.0912993 -0.00384297 0)
(0.0923918 -0.00379321 0)
(0.0934698 -0.00374224 0)
(0.0945331 -0.00369006 0)
(0.0955813 -0.00363667 0)
(0.0966141 -0.00358209 0)
(0.0976311 -0.00352632 0)
(0.098632 -0.00346936 0)
(0.0996164 -0.00341124 0)
(0.100584 -0.00335197 0)
(0.101535 -0.00329155 0)
(0.102468 -0.00323001 0)
(0.103383 -0.00316736 0)
(0.10428 -0.00310362 0)
(0.105159 -0.00303882 0)
(0.106019 -0.00297298 0)
(0.10686 -0.00290611 0)
(0.107682 -0.00283825 0)
(0.108485 -0.00276942 0)
(0.109267 -0.00269965 0)
(0.11003 -0.00262896 0)
(0.110772 -0.0025574 0)
(0.111493 -0.00248499 0)
(0.112194 -0.00241176 0)
(0.112873 -0.00233776 0)
(0.113531 -0.002263 0)
(0.114168 -0.00218754 0)
(0.114783 -0.0021114 0)
(0.115376 -0.00203462 0)
(0.115947 -0.00195725 0)
(0.116496 -0.00187933 0)
(0.117022 -0.00180088 0)
(0.117526 -0.00172196 0)
(0.118007 -0.0016426 0)
(0.118466 -0.00156284 0)
(0.118901 -0.00148273 0)
(0.119314 -0.00140231 0)
(0.119703 -0.00132162 0)
(0.120069 -0.00124069 0)
(0.120412 -0.00115958 0)
(0.120732 -0.00107833 0)
(0.121029 -0.000996967 0)
(0.121302 -0.000915541 0)
(0.121552 -0.000834093 0)
(0.121779 -0.000752661 0)
(0.121982 -0.000671286 0)
(0.122162 -0.000590007 0)
(0.122319 -0.000508861 0)
(0.122452 -0.000427888 0)
(0.122563 -0.000347124 0)
(0.12265 -0.000266604 0)
(0.122715 -0.000186366 0)
(0.122756 -0.000106442 0)
(0.122775 -2.68672e-05 0)
(0.12277 5.23266e-05 0)
(0.122744 0.000131108 0)
(0.122694 0.000209445 0)
(0.122623 0.000287311 0)
(0.122529 0.000364675 0)
(0.122413 0.00044151 0)
(0.122275 0.000517791 0)
(0.122116 0.000593493 0)
(0.121935 0.000668591 0)
(0.121732 0.000743064 0)
(0.121509 0.000816888 0)
(0.121264 0.000890044 0)
(0.120998 0.000962513 0)
(0.120712 0.00103428 0)
(0.120406 0.00110532 0)
(0.120079 0.00117562 0)
(0.119732 0.00124516 0)
(0.119365 0.00131394 0)
(0.118979 0.00138194 0)
(0.118574 0.00144915 0)
(0.118149 0.00151555 0)
(0.117706 0.00158114 0)
(0.117244 0.00164591 0)
(0.116763 0.00170984 0)
(0.116265 0.00177294 0)
(0.115748 0.0018352 0)
(0.115214 0.0018966 0)
(0.114662 0.00195715 0)
(0.114093 0.00201685 0)
(0.113508 0.00207568 0)
(0.112905 0.00213364 0)
(0.112286 0.00219074 0)
(0.111651 0.00224697 0)
(0.111 0.00230233 0)
(0.110333 0.00235682 0)
(0.109651 0.00241044 0)
(0.108954 0.0024632 0)
(0.108242 0.00251508 0)
(0.107515 0.0025661 0)
(0.106773 0.00261626 0)
(0.106018 0.00266555 0)
(0.105248 0.00271399 0)
(0.104465 0.00276157 0)
(0.103668 0.0028083 0)
(0.102858 0.00285418 0)
(0.102035 0.00289921 0)
(0.101199 0.00294341 0)
(0.100351 0.00298677 0)
(0.0994904 0.0030293 0)
(0.0986178 0.00307101 0)
(0.0977335 0.00311189 0)
(0.0968376 0.00315196 0)
(0.0959304 0.00319122 0)
(0.0950121 0.00322968 0)
(0.094083 0.00326734 0)
(0.0931432 0.00330421 0)
(0.0921929 0.0033403 0)
(0.0912325 0.00337561 0)
(0.0902621 0.00341014 0)
(0.089282 0.00344392 0)
(0.0882924 0.00347693 0)
(0.0872934 0.0035092 0)
(0.0862853 0.00354072 0)
(0.0852683 0.00357151 0)
(0.0842427 0.00360157 0)
(0.0832085 0.00363091 0)
(0.0821661 0.00365954 0)
(0.0811157 0.00368746 0)
(0.0800573 0.00371469 0)
(0.0789913 0.00374123 0)
(0.0779178 0.00376709 0)
(0.0768371 0.00379227 0)
(0.0757492 0.0038168 0)
(0.0746544 0.00384067 0)
(0.073553 0.00386389 0)
(0.072445 0.00388648 0)
(0.0713306 0.00390844 0)
(0.0702101 0.00392979 0)
(0.0690835 0.00395052 0)
(0.0679512 0.00397065 0)
(0.0668131 0.00399019 0)
(0.0656696 0.00400915 0)
(0.0645208 0.00402754 0)
(0.0633668 0.00404537 0)
(0.0622078 0.00406264 0)
(0.061044 0.00407936 0)
(0.0598755 0.00409556 0)
(0.0587024 0.00411123 0)
(0.0575249 0.00412638 0)
(0.0563432 0.00414103 0)
(0.0551574 0.00415519 0)
(0.0539677 0.00416885 0)
(0.0527741 0.00418205 0)
(0.0515768 0.00419477 0)
(0.050376 0.00420704 0)
(0.0491717 0.00421886 0)
(0.0479641 0.00423024 0)
(0.0467534 0.0042412 0)
(0.0455396 0.00425173 0)
(0.0443228 0.00426186 0)
(0.0431032 0.00427158 0)
(0.0418809 0.00428092 0)
(0.0406561 0.00428987 0)
(0.0394287 0.00429845 0)
(0.0381989 0.00430666 0)
(0.0369669 0.00431451 0)
(0.0357326 0.00432202 0)
(0.0344963 0.00432919 0)
(0.033258 0.00433602 0)
(0.0320178 0.00434253 0)
(0.0307758 0.00434872 0)
(0.0295321 0.00435461 0)
(0.0282867 0.00436019 0)
(0.0270398 0.00436547 0)
(0.0257915 0.00437047 0)
(0.0245417 0.00437519 0)
(0.0232907 0.00437963 0)
(0.0220384 0.0043838 0)
(0.020785 0.00438771 0)
(0.0195305 0.00439135 0)
(0.018275 0.00439475 0)
(0.0170186 0.00439789 0)
(0.0157614 0.0044008 0)
(0.0145033 0.00440346 0)
(0.0132445 0.00440588 0)
(0.0119851 0.00440808 0)
(0.0107251 0.00441004 0)
(0.00946453 0.00441178 0)
(0.00820352 0.0044133 0)
(0.00694211 0.00441459 0)
(0.00568036 0.00441567 0)
(0.00441834 0.00441652 0)
(0.00315611 0.00441717 0)
(0.00189373 0.00441759 0)
(0.000631253 0.00441781 0)
(0.000724759 -0.00652022 0)
(0.00217424 -0.00651986 0)
(0.0036236 -0.00651913 0)
(0.00507276 -0.00651804 0)
(0.00652164 -0.00651658 0)
(0.00797017 -0.00651474 0)
(0.00941826 -0.00651253 0)
(0.0108658 -0.00650993 0)
(0.0123128 -0.00650694 0)
(0.013759 -0.00650355 0)
(0.0152045 -0.00649974 0)
(0.0166491 -0.00649552 0)
(0.0180927 -0.00649086 0)
(0.0195353 -0.00648576 0)
(0.0209767 -0.0064802 0)
(0.0224169 -0.00647416 0)
(0.0238556 -0.00646763 0)
(0.0252929 -0.0064606 0)
(0.0267286 -0.00645304 0)
(0.0281626 -0.00644495 0)
(0.0295948 -0.00643629 0)
(0.031025 -0.00642705 0)
(0.0324531 -0.00641721 0)
(0.033879 -0.00640675 0)
(0.0353025 -0.00639565 0)
(0.0367236 -0.00638387 0)
(0.0381419 -0.00637141 0)
(0.0395575 -0.00635823 0)
(0.0409701 -0.00634431 0)
(0.0423795 -0.00632962 0)
(0.0437857 -0.00631414 0)
(0.0451883 -0.00629784 0)
(0.0465873 -0.0062807 0)
(0.0479825 -0.00626269 0)
(0.0493735 -0.00624377 0)
(0.0507603 -0.00622393 0)
(0.0521426 -0.00620314 0)
(0.0535203 -0.00618136 0)
(0.054893 -0.00615856 0)
(0.0562606 -0.00613473 0)
(0.0576229 -0.00610983 0)
(0.0589795 -0.00608384 0)
(0.0603302 -0.00605672 0)
(0.0616749 -0.00602844 0)
(0.0630132 -0.00599899 0)
(0.0643448 -0.00596833 0)
(0.0656696 -0.00593644 0)
(0.0669871 -0.00590329 0)
(0.0682972 -0.00586885 0)
(0.0695995 -0.00583311 0)
(0.0708938 -0.00579603 0)
(0.0721797 -0.00575759 0)
(0.073457 -0.00571777 0)
(0.0747252 -0.00567655 0)
(0.0759842 -0.00563391 0)
(0.0772336 -0.00558982 0)
(0.0784731 -0.00554428 0)
(0.0797023 -0.00549725 0)
(0.0809209 -0.00544874 0)
(0.0821286 -0.00539872 0)
(0.083325 -0.00534717 0)
(0.0845098 -0.0052941 0)
(0.0856827 -0.00523948 0)
(0.0868432 -0.00518332 0)
(0.0879911 -0.00512559 0)
(0.0891261 -0.00506631 0)
(0.0902476 -0.00500546 0)
(0.0913555 -0.00494304 0)
(0.0924493 -0.00487907 0)
(0.0935288 -0.00481352 0)
(0.0945935 -0.00474642 0)
(0.0956431 -0.00467777 0)
(0.0966772 -0.00460758 0)
(0.0976956 -0.00453586 0)
(0.0986978 -0.00446261 0)
(0.0996836 -0.00438786 0)
(0.100653 -0.00431162 0)
(0.101604 -0.00423392 0)
(0.102539 -0.00415476 0)
(0.103455 -0.00407418 0)
(0.104354 -0.0039922 0)
(0.105234 -0.00390885 0)
(0.106095 -0.00382415 0)
(0.106937 -0.00373813 0)
(0.10776 -0.00365083 0)
(0.108564 -0.00356229 0)
(0.109347 -0.00347253 0)
(0.110111 -0.0033816 0)
(0.110854 -0.00328954 0)
(0.111576 -0.00319638 0)
(0.112278 -0.00310218 0)
(0.112958 -0.00300696 0)
(0.113617 -0.00291079 0)
(0.114255 -0.0028137 0)
(0.11487 -0.00271574 0)
(0.115464 -0.00261697 0)
(0.116036 -0.00251743 0)
(0.116585 -0.00241716 0)
(0.117112 -0.00231624 0)
(0.117616 -0.00221469 0)
(0.118098 -0.00211259 0)
(0.118557 -0.00200998 0)
(0.118993 -0.00190691 0)
(0.119406 -0.00180344 0)
(0.119795 -0.00169962 0)
(0.120162 -0.0015955 0)
(0.120505 -0.00149114 0)
(0.120825 -0.0013866 0)
(0.121122 -0.00128192 0)
(0.121395 -0.00117716 0)
(0.121645 -0.00107238 0)
(0.121872 -0.00096761 0)
(0.122075 -0.000862918 0)
(0.122255 -0.00075835 0)
(0.122412 -0.000653956 0)
(0.122545 -0.000549784 0)
(0.122655 -0.000445882 0)
(0.122742 -0.000342296 0)
(0.122806 -0.000239073 0)
(0.122847 -0.000136257 0)
(0.122865 -3.38906e-05 0)
(0.122861 6.79841e-05 0)
(0.122833 0.000169326 0)
(0.122784 0.000270097 0)
(0.122712 0.000370258 0)