/*--------------------------------*- C++ -*----------------------------------*\
| =========                 |                                                 |
| \\      /  F ield         | OpenFOAM: The Open Source CFD Toolbox           |
|  \\    /   O peration     | Version:  v2012                                 |
|   \\  /    A nd           | Website:  www.openfoam.com                      |
|    \\/     M anipulation  |                                                 |
\*---------------------------------------------------------------------------*/
FoamFile
{
    version     2.0;
    format      ascii;
    class       volScalarField;
    location    "3.5";
    object      W;
}
// * * * * * * * * * * * * * * * * * * * * * * * * * * * * * * * * * * * * * //

dimensions      [0 0 -1 0 0 0 0];


internalField   nonuniform List<scalar> 
65536
(
5.11675e-20
5.58365e-20
6.54756e-20
8.06692e-20
1.02352e-19
1.31873e-19
1.71087e-19
2.2246e-19
2.89208e-19
3.75473e-19
4.86532e-19
6.29069e-19
8.11503e-19
1.0444e-18
1.34096e-18
1.71767e-18
2.19499e-18
2.79831e-18
3.55899e-18
4.51573e-18
5.71607e-18
7.2183e-18
9.09371e-18
1.14292e-17
1.43303e-17
1.79252e-17
2.23686e-17
2.78471e-17
3.4585e-17
4.28509e-17
5.29661e-17
6.5313e-17
8.03463e-17
9.86041e-17
1.20722e-16
1.47449e-16
1.79663e-16
2.18391e-16
2.64832e-16
3.20382e-16
3.86654e-16
4.65516e-16
5.59119e-16
6.6993e-16
8.00774e-16
9.54869e-16
1.13588e-15
1.34794e-15
1.59573e-15
1.8845e-15
2.22015e-15
2.60924e-15
3.05908e-15
3.57776e-15
4.17419e-15
4.85819e-15
5.64045e-15
6.53266e-15
7.54745e-15
8.69846e-15
1.00003e-14
1.14687e-14
1.31202e-14
1.49723e-14
1.70434e-14
1.93527e-14
2.19201e-14
2.47659e-14
2.7911e-14
3.13762e-14
3.51827e-14
3.93509e-14
4.39012e-14
4.88528e-14
5.42238e-14
6.00307e-14
6.62881e-14
7.30084e-14
8.02012e-14
8.78728e-14
9.60259e-14
1.0466e-13
1.13768e-13
1.23341e-13
1.33362e-13
1.43812e-13
1.54663e-13
1.65882e-13
1.7743e-13
1.89264e-13
2.01332e-13
2.13576e-13
2.25936e-13
2.38342e-13
2.50722e-13
2.62999e-13
2.75092e-13
2.86916e-13
2.98385e-13
3.09414e-13
3.19913e-13
3.29796e-13
3.3898e-13
3.47382e-13
3.54926e-13
3.6154e-13
3.6716e-13
3.71727e-13
3.75194e-13
3.77521e-13
3.78679e-13
3.7865e-13
3.77427e-13
3.75015e-13
3.71432e-13
3.66705e-13
3.60874e-13
3.53991e-13
3.46116e-13
3.37323e-13
3.2769e-13
3.17308e-13
3.0627e-13
2.94679e-13
2.82641e-13
2.70263e-13
2.57658e-13
2.44936e-13
2.3221e-13
2.19588e-13
2.07177e-13
1.9508e-13
1.83395e-13
1.72216e-13
1.61628e-13
1.51713e-13
1.42542e-13
1.34181e-13
1.26688e-13
1.20113e-13
1.14498e-13
1.09876e-13
1.06273e-13
1.03706e-13
1.02184e-13
1.0171e-13
1.02276e-13
1.03866e-13
1.06457e-13
1.10017e-13
1.14506e-13
1.19876e-13
1.2607e-13
1.33021e-13
1.40656e-13
1.48894e-13
1.57645e-13
1.66811e-13
1.7629e-13
1.85972e-13
1.95741e-13
2.05481e-13
2.1507e-13
2.24386e-13
2.33308e-13
2.41716e-13
2.49495e-13
2.56536e-13
2.62738e-13
2.68007e-13
2.72264e-13
2.7544e-13
2.77481e-13
2.78349e-13
2.78019e-13
2.76487e-13
2.73761e-13
2.69869e-13
2.64853e-13
2.5877e-13
2.51692e-13
2.43701e-13
2.34893e-13
2.25369e-13
2.15239e-13
2.04616e-13
1.93616e-13
1.82353e-13
1.70943e-13
1.59494e-13
1.48109e-13
1.36885e-13
1.2591e-13
1.15262e-13
1.05008e-13
9.52066e-14
8.5903e-14
7.7133e-14
6.89217e-14
6.12841e-14
5.42262e-14
4.77457e-14
4.18328e-14
3.64712e-14
3.16394e-14
2.73115e-14
2.34583e-14
2.00483e-14
1.70483e-14
1.44245e-14
1.21433e-14
1.01714e-14
8.47672e-15
7.02871e-15
5.79855e-15
4.75944e-15
3.88668e-15
3.15782e-15
2.55256e-15
2.05279e-15
1.64242e-15
1.30737e-15
1.03533e-15
8.15687e-16
6.3934e-16
4.98541e-16
3.86748e-16
2.98476e-16
2.29163e-16
1.75038e-16
1.33005e-16
1.00542e-16
7.56096e-17
5.65651e-17
4.2098e-17
3.11685e-17
2.29566e-17
1.68205e-17
1.22604e-17
8.89011e-18
6.41273e-18
4.60163e-18
3.28483e-18
2.33263e-18
1.64781e-18
1.15798e-18
8.09534e-19
5.63021e-19
3.89611e-19
2.68373e-19
1.8423e-19
1.26429e-19
8.74159e-20
6.19982e-20
4.67539e-20
3.96174e-20
6.74538e-20
7.36059e-20
8.63084e-20
1.06331e-19
1.34903e-19
1.73804e-19
2.25473e-19
2.93157e-19
3.81092e-19
4.94729e-19
6.41014e-19
8.28742e-19
1.06899e-18
1.37566e-18
1.76611e-18
2.26202e-18
2.8903e-18
3.68431e-18
4.68529e-18
5.94405e-18
7.52306e-18
9.49887e-18
1.19651e-17
1.50357e-17
1.88493e-17
2.35738e-17
2.94123e-17
3.66093e-17
4.54587e-17
5.63123e-17
6.95908e-17
8.57948e-17
1.05519e-16
1.29467e-16
1.5847e-16
1.93505e-16
2.35719e-16
2.86454e-16
3.47273e-16
4.19992e-16
5.06718e-16
6.09879e-16
7.32274e-16
8.77112e-16
1.04806e-15
1.2493e-15
1.48557e-15
1.76225e-15
2.08539e-15
2.46179e-15
2.89906e-15
3.40568e-15
3.99108e-15
4.66568e-15
5.44095e-15
6.32949e-15
7.34507e-15
8.50263e-15
9.81836e-15
1.13097e-14
1.29953e-14
1.48952e-14
1.70303e-14
1.9423e-14
2.20966e-14
2.50753e-14
2.83841e-14
3.20487e-14
3.6095e-14
4.05494e-14
4.54378e-14
5.0786e-14
5.66186e-14
6.29593e-14
6.983e-14
7.72507e-14
8.52386e-14
9.38079e-14
1.02969e-13
1.12729e-13
1.23089e-13
1.34046e-13
1.45592e-13
1.5771e-13
1.70379e-13
1.8357e-13
1.97248e-13
2.11369e-13
2.25883e-13
2.40731e-13
2.55847e-13
2.71157e-13
2.86583e-13
3.02036e-13
3.17424e-13
3.3265e-13
3.47611e-13
3.62202e-13
3.76316e-13
3.89843e-13
4.02675e-13
4.14705e-13
4.2583e-13
4.3595e-13
4.44971e-13
4.52808e-13
4.59383e-13
4.64628e-13
4.68486e-13
4.70914e-13
4.71879e-13
4.71363e-13
4.69363e-13
4.6589e-13
4.60969e-13
4.54639e-13
4.46956e-13
4.37986e-13
4.27809e-13
4.16518e-13
4.04215e-13
3.91014e-13
3.77033e-13
3.624e-13
3.47247e-13
3.31709e-13
3.15923e-13
3.00026e-13
2.84155e-13
2.68444e-13
2.53021e-13
2.38012e-13
2.23535e-13
2.09701e-13
1.96614e-13
1.84368e-13
1.7305e-13
1.62736e-13
1.53494e-13
1.45379e-13
1.3844e-13
1.32714e-13
1.28229e-13
1.25002e-13
1.23042e-13
1.22345e-13
1.22901e-13
1.24688e-13
1.27674e-13
1.3182e-13
1.37073e-13
1.43373e-13
1.50649e-13
1.58822e-13
1.678e-13
1.77486e-13
1.8777e-13
1.98537e-13
2.09661e-13
2.21014e-13
2.32457e-13
2.43852e-13
2.55054e-13
2.6592e-13
2.76307e-13
2.86075e-13
2.9509e-13
3.03223e-13
3.10356e-13
3.16384e-13
3.21212e-13
3.24764e-13
3.26976e-13
3.27807e-13
3.27231e-13
3.25243e-13
3.21858e-13
3.17109e-13
3.11048e-13
3.03744e-13
2.95282e-13
2.85762e-13
2.75296e-13
2.64005e-13
2.52017e-13
2.39466e-13
2.26487e-13
2.13216e-13
1.99786e-13
1.86324e-13
1.7295e-13
1.59777e-13
1.46907e-13
1.3443e-13
1.22423e-13
1.10954e-13
1.00074e-13
8.98249e-14
8.0234e-14
7.13182e-14
6.30836e-14
5.55264e-14
4.86343e-14
4.23878e-14
3.67611e-14
3.17233e-14
2.72399e-14
2.32736e-14
1.97857e-14
1.67362e-14
1.40858e-14
1.17956e-14
9.82796e-15
8.14725e-15
6.71982e-15
5.51442e-15
4.50228e-15
3.65724e-15
2.95568e-15
2.37653e-15
1.9011e-15
1.51301e-15
1.19798e-15
9.4368e-16
7.39547e-16
5.76594e-16
4.47234e-16
3.45109e-16
2.64932e-16
2.02333e-16
1.53727e-16
1.16194e-16
8.73701e-17
6.53565e-17
4.86362e-17
3.60058e-17
2.65171e-17
1.94277e-17
1.41597e-17
1.02665e-17
7.40504e-18
5.31334e-18
3.79264e-18
2.69308e-18
1.90234e-18
1.33679e-18
9.34491e-19
6.499e-19
4.49715e-19
3.09764e-19
2.12636e-19
1.45919e-19
1.00889e-19
7.15516e-20
5.39571e-20
4.57215e-20
1.04684e-19
1.14225e-19
1.33928e-19
1.64985e-19
2.09302e-19
2.69633e-19
3.4976e-19
4.54712e-19
5.91051e-19
7.67216e-19
9.93965e-19
1.28491e-18
1.6572e-18
2.13234e-18
2.73721e-18
3.5053e-18
4.47824e-18
5.70759e-18
7.25708e-18
9.20521e-18
1.16484e-17
1.4705e-17
1.85192e-17
2.3267e-17
2.91621e-17
3.64635e-17
4.54838e-17
5.65996e-17
7.02632e-17
8.70162e-17
1.07505e-16
1.32499e-16
1.62913e-16
1.99825e-16
2.44511e-16
2.98469e-16
3.63456e-16
4.41527e-16
5.35071e-16
6.46867e-16
7.8013e-16
9.38569e-16
1.12645e-15
1.34866e-15
1.61077e-15
1.91916e-15
2.28101e-15
2.70449e-15
3.19875e-15
3.77409e-15
4.44201e-15
5.21532e-15
6.10822e-15
7.13639e-15
8.31709e-15
9.6692e-15
1.12133e-14
1.29718e-14
1.49689e-14
1.72304e-14
1.97842e-14
2.26597e-14
2.58882e-14
2.95025e-14
3.35369e-14
3.80268e-14
4.30087e-14
4.85201e-14
5.45986e-14
6.1282e-14
6.86077e-14
7.6612e-14
8.53302e-14
9.47951e-14
1.05037e-13
1.16083e-13
1.27957e-13
1.40675e-13
1.54251e-13
1.68692e-13
1.83995e-13
2.00154e-13
2.1715e-13
2.34957e-13
2.53539e-13
2.72851e-13
2.92836e-13
3.13425e-13
3.34541e-13
3.56095e-13
3.77987e-13
4.00105e-13
4.22332e-13
4.44537e-13
4.66583e-13
4.88329e-13
5.09623e-13
5.30313e-13
5.50243e-13
5.69258e-13
5.87202e-13
6.03924e-13
6.19278e-13
6.33124e-13
6.45334e-13
6.55789e-13
6.64385e-13
6.71031e-13
6.75654e-13
6.782e-13
6.78631e-13
6.76931e-13
6.73104e-13
6.67176e-13
6.59191e-13
6.49216e-13
6.37336e-13
6.23657e-13
6.083e-13
5.91403e-13
5.7312e-13
5.53614e-13
5.33063e-13
5.11648e-13
4.8956e-13
4.66993e-13
4.4414e-13
4.21196e-13
3.98353e-13
3.75796e-13
3.53706e-13
3.32254e-13
3.11602e-13
2.91903e-13
2.73294e-13
2.55905e-13
2.39847e-13
2.25223e-13
2.12117e-13
2.00604e-13
1.90742e-13
1.82575e-13
1.76135e-13
1.71439e-13
1.68491e-13
1.67283e-13
1.6779e-13
1.69978e-13
1.73798e-13
1.79189e-13
1.86075e-13
1.94369e-13
2.0397e-13
2.14767e-13
2.26632e-13
2.39429e-13
2.5301e-13
2.67215e-13
2.81876e-13
2.96816e-13
3.11852e-13
3.26796e-13
3.41457e-13
3.55643e-13
3.69166e-13
3.81841e-13
3.93492e-13
4.03952e-13
4.13067e-13
4.20699e-13
4.2673e-13
4.31059e-13
4.33612e-13
4.34334e-13
4.33199e-13
4.30204e-13
4.25372e-13
4.18753e-13
4.10418e-13
4.00463e-13
3.89004e-13
3.76176e-13
3.62126e-13
3.47017e-13
3.3102e-13
3.1431e-13
2.97068e-13
2.79471e-13
2.61691e-13
2.43897e-13
2.26246e-13
2.08882e-13
1.91938e-13
1.7553e-13
1.59759e-13
1.44708e-13
1.30445e-13
1.17021e-13
1.0447e-13
9.28123e-14
8.20538e-14
7.2188e-14
6.31972e-14
5.50542e-14
4.7724e-14
4.11654e-14
3.53321e-14
3.01748e-14
2.5642e-14
2.16813e-14
1.82407e-14
1.52691e-14
1.27174e-14
1.05389e-14
8.68943e-15
7.12835e-15
5.81812e-15
4.72464e-15
3.81718e-15
3.06833e-15
2.45382e-15
1.95237e-15
1.54546e-15
1.2171e-15
9.53592e-16
7.43304e-16
5.76414e-16
4.44698e-16
3.41314e-16
2.60616e-16
1.97972e-16
1.4961e-16
1.12478e-16
8.41243e-17
6.25929e-17
4.63313e-17
3.41168e-17
2.49922e-17
1.82131e-17
1.32039e-17
9.52266e-18
6.83208e-18
4.87624e-18
3.4622e-18
2.44543e-18
1.71829e-18
1.20109e-18
8.35254e-19
5.7794e-19
3.98063e-19
2.73235e-19
1.87495e-19
1.29629e-19
9.19301e-20
6.93218e-20
5.87395e-20
1.7337e-19
1.89163e-19
2.21777e-19
2.73182e-19
3.46532e-19
4.46381e-19
5.7898e-19
7.52643e-19
9.78217e-19
1.26965e-18
1.64471e-18
2.1259e-18
2.74154e-18
3.52712e-18
4.52704e-18
5.79657e-18
7.4044e-18
9.4356e-18
1.19952e-17
1.52128e-17
1.92472e-17
2.42931e-17
3.05885e-17
3.84228e-17
4.8148e-17
6.01897e-17
7.50624e-17
9.33849e-17
1.159e-16
1.43498e-16
1.77239e-16
2.18386e-16
2.68436e-16
3.29159e-16
4.02643e-16
4.9134e-16
5.98124e-16
7.26349e-16
8.79924e-16
1.06338e-15
1.28196e-15
1.5417e-15
1.84956e-15
2.21347e-15
2.64251e-15
3.147e-15
3.73861e-15
4.43056e-15
5.23767e-15
6.17657e-15
7.26584e-15
8.52611e-15
9.98025e-15
1.16535e-14
1.35735e-14
1.57705e-14
1.82775e-14
2.11303e-14
2.43672e-14
2.80297e-14
3.21617e-14
3.681e-14
4.20239e-14
4.78552e-14
5.43575e-14
6.15865e-14
6.95993e-14
7.84538e-14
8.82084e-14
9.89212e-14
1.10649e-13
1.23449e-13
1.37372e-13
1.52467e-13
1.68781e-13
1.86351e-13
2.0521e-13
2.25382e-13
2.46883e-13
2.69716e-13
2.93876e-13
3.19343e-13
3.46085e-13
3.74054e-13
4.03188e-13
4.33408e-13
4.64619e-13
4.9671e-13
5.29551e-13
5.62999e-13
5.9689e-13
6.3105e-13
6.65285e-13
6.99393e-13
7.33158e-13
7.66354e-13
7.98748e-13
8.30103e-13
8.6018e-13
8.88738e-13
9.15541e-13
9.4036e-13
9.62975e-13
9.8318e-13
1.00078e-12
1.01561e-12
1.02751e-12
1.03636e-12
1.04206e-12
1.04454e-12
1.04375e-12
1.03968e-12
1.03235e-12
1.02182e-12
1.00817e-12
9.91519e-13
9.72003e-13
9.49797e-13
9.25099e-13
8.9813e-13
8.69132e-13
8.38363e-13
8.06097e-13
7.72618e-13
7.38218e-13
7.0319e-13
6.67831e-13
6.32434e-13
5.97285e-13
5.62663e-13
5.28833e-13
4.9605e-13
4.6455e-13
4.34553e-13
4.06259e-13
3.79851e-13
3.55488e-13
3.33312e-13
3.1344e-13
2.95971e-13
2.8098e-13
2.68525e-13
2.58639e-13
2.5134e-13
2.46621e-13
2.44461e-13
2.44815e-13
2.47623e-13
2.52804e-13
2.6026e-13
2.69874e-13
2.81512e-13
2.9502e-13
3.1023e-13
3.26955e-13
3.44992e-13
3.64122e-13
3.84114e-13
4.04723e-13
4.25695e-13
4.46765e-13
4.67665e-13
4.88123e-13
5.07868e-13
5.26633e-13
5.44159e-13
5.60198e-13
5.74518e-13
5.86906e-13
5.97174e-13
6.05158e-13
6.10725e-13
6.13773e-13
6.14235e-13
6.12079e-13
6.0731e-13
5.99966e-13
5.90123e-13
5.77889e-13
5.63403e-13
5.46835e-13
5.28376e-13
5.0824e-13
4.86656e-13
4.63868e-13
4.40122e-13
4.15672e-13
3.90767e-13
3.65648e-13
3.40549e-13
3.15687e-13
2.91265e-13
2.67463e-13
2.44442e-13
2.2234e-13
2.0127e-13
1.81323e-13
1.62568e-13
1.45049e-13
1.28791e-13
1.138e-13
1.00064e-13
8.7556e-14
7.62358e-14
6.60529e-14
5.6948e-14
4.88555e-14
4.17053e-14
3.54247e-14
2.99401e-14
2.51784e-14
2.10681e-14
1.75405e-14
1.45301e-14
1.19759e-14
9.82088e-15
8.01298e-15
6.50481e-15
5.25374e-15
4.22175e-15
3.37523e-15
2.6847e-15
2.12456e-15
1.67271e-15
1.31022e-15
1.02103e-15
7.91596e-16
6.10567e-16
4.68519e-16
3.5767e-16
2.71642e-16
2.05243e-16
1.54274e-16
1.15365e-16
8.58228e-17
6.35159e-17
4.67638e-17
3.42518e-17
2.49575e-17
1.80911e-17
1.30457e-17
9.35864e-18
6.67879e-18
4.74156e-18
3.34875e-18
2.3528e-18
1.64448e-18
1.14351e-18
7.91176e-19
5.44897e-19
3.74001e-19
2.56627e-19
1.77415e-19
1.25813e-19
9.4867e-20
8.03823e-20
2.92647e-19
3.19289e-19
3.74312e-19
4.61036e-19
5.84775e-19
7.53205e-19
9.7686e-19
1.26975e-18
1.65015e-18
2.14155e-18
2.7739e-18
3.58507e-18
4.62273e-18
5.94665e-18
7.63153e-18
9.77039e-18
1.24787e-17
1.58997e-17
2.02098e-17
2.56267e-17
3.24175e-17
4.09092e-17
5.15013e-17
6.46798e-17
8.1035e-17
1.01281e-16
1.26281e-16
1.57071e-16
1.94897e-16
2.41247e-16
2.97899e-16
3.66963e-16
4.50944e-16
5.52799e-16
6.76016e-16
8.24688e-16
1.00361e-15
1.21837e-15
1.47549e-15
1.7825e-15
2.14813e-15
2.58243e-15
3.09693e-15
3.70482e-15
4.42114e-15
5.26299e-15
6.2497e-15
7.4031e-15
8.7477e-15
1.03109e-14
1.21234e-14
1.42191e-14
1.66356e-14
1.94143e-14
2.26006e-14
2.6244e-14
3.03985e-14
3.51223e-14
4.0478e-14
4.65329e-14
5.33584e-14
6.10302e-14
6.9628e-14
7.92349e-14
8.99375e-14
1.01825e-13
1.14988e-13
1.29519e-13
1.45511e-13
1.63055e-13
1.8224e-13
2.03154e-13
2.25877e-13
2.50485e-13
2.77045e-13
3.05615e-13
3.3624e-13
3.68954e-13
4.03773e-13
4.40698e-13
4.79711e-13
5.20772e-13
5.6382e-13
6.0877e-13
6.55513e-13
7.03914e-13
7.53811e-13
8.05016e-13
8.57315e-13
9.10468e-13
9.64209e-13
1.01825e-12
1.07228e-12
1.12596e-12
1.17896e-12
1.2309e-12
1.28142e-12
1.33014e-12
1.37669e-12
1.42068e-12
1.46175e-12
1.49953e-12
1.5337e-12
1.56394e-12
1.58995e-12
1.61149e-12
1.62831e-12
1.64026e-12
1.64718e-12
1.64898e-12
1.64562e-12
1.63709e-12
1.62346e-12
1.60482e-12
1.58133e-12
1.55319e-12
1.52063e-12
1.48395e-12
1.44348e-12
1.39957e-12
1.3526e-12
1.30301e-12
1.25122e-12
1.19768e-12
1.14285e-12
1.0872e-12
1.03117e-12
9.75232e-13
9.19817e-13
8.65353e-13
8.12245e-13
7.60877e-13
7.11604e-13
6.64755e-13
6.20625e-13
5.79482e-13
5.41558e-13
5.07054e-13
4.76137e-13
4.4894e-13
4.25567e-13
4.06086e-13
3.90538e-13
3.78929e-13
3.71241e-13
3.67421e-13
3.67393e-13
3.7105e-13
3.7826e-13
3.88863e-13
4.02673e-13
4.19479e-13
4.39044e-13
4.61106e-13
4.8538e-13
5.11558e-13
5.39311e-13
5.68292e-13
5.98135e-13
6.28461e-13
6.58882e-13
6.89e-13
7.18419e-13
7.4674e-13
7.73577e-13
7.98554e-13
8.21312e-13
8.41521e-13
8.58876e-13
8.73108e-13
8.83989e-13
8.91333e-13
8.95002e-13
8.94907e-13
8.91011e-13
8.8333e-13
8.71931e-13
8.56932e-13
8.38498e-13
8.16838e-13
7.92204e-13
7.64881e-13
7.35181e-13
7.03443e-13
6.70018e-13
6.35269e-13
5.99559e-13
5.63249e-13
5.26689e-13
4.90212e-13
4.54131e-13
4.18732e-13
3.84275e-13
3.50986e-13
3.1906e-13
2.88656e-13
2.59901e-13
2.32888e-13
2.07677e-13
1.84302e-13
1.62765e-13
1.43046e-13
1.25103e-13
1.08875e-13
9.42883e-14
8.1254e-14
6.96764e-14
5.94531e-14
5.04784e-14
4.26456e-14
3.58489e-14
2.9985e-14
2.49549e-14
2.06645e-14
1.70259e-14
1.39573e-14
1.13842e-14
9.23852e-15
7.45935e-15
5.99231e-15
4.78936e-15
3.80846e-15
3.01304e-15
2.3716e-15
1.85719e-15
1.44693e-15
1.12153e-15
8.64853e-16
6.63503e-16
5.06417e-16
3.84536e-16
2.90486e-16
2.18309e-16
1.63221e-16
1.21405e-16
8.98351e-17
6.61315e-17
4.84307e-17
3.52842e-17
2.55733e-17
1.8439e-17
1.32261e-17
9.43781e-18
6.69963e-18
4.7312e-18
3.32379e-18
2.32297e-18
1.61517e-18
1.11744e-18
7.69547e-19
5.28161e-19
3.62386e-19
2.50515e-19
1.77641e-19
1.33941e-19
1.13486e-19
4.95171e-19
5.40225e-19
6.33277e-19
7.79936e-19
9.89181e-19
1.27398e-18
1.65213e-18
2.14729e-18
2.79033e-18
3.62092e-18
4.68961e-18
6.06034e-18
7.81358e-18
1.00502e-17
1.28962e-17
1.65084e-17
2.10818e-17
2.68574e-17
3.41331e-17
4.32753e-17
5.47342e-17
6.90604e-17
8.69264e-17
1.0915e-16
1.36725e-16
1.70852e-16
2.12981e-16
2.64856e-16
3.28567e-16
4.06615e-16
5.01982e-16
6.18209e-16
7.59496e-16
9.30801e-16
1.13796e-15
1.38784e-15
1.68844e-15
2.04913e-15
2.48079e-15
2.99601e-15
3.60935e-15
4.33757e-15
5.19987e-15
6.21824e-15
7.4177e-15
8.82665e-15
1.04772e-14
1.24056e-14
1.46525e-14
1.72632e-14
2.02884e-14
2.37843e-14
2.78129e-14
3.24423e-14
3.77473e-14
4.38094e-14
5.0717e-14
5.85655e-14
6.74575e-14
7.75026e-14
8.88174e-14
1.01525e-13
1.15754e-13
1.3164e-13
1.49323e-13
1.68945e-13
1.90653e-13
2.14594e-13
2.40915e-13
2.69762e-13
3.01276e-13
3.35592e-13
3.72836e-13
4.13124e-13
4.56558e-13
5.03222e-13
5.53183e-13
6.06482e-13
6.63138e-13
7.2314e-13
7.86446e-13
8.5298e-13
9.2263e-13
9.95246e-13
1.07064e-12
1.14857e-12
1.22878e-12
1.31094e-12
1.3947e-12
1.47966e-12
1.56538e-12
1.65139e-12
1.73717e-12
1.8222e-12
1.90591e-12
1.98772e-12
2.06704e-12
2.14326e-12
2.21578e-12
2.28401e-12
2.34737e-12
2.4053e-12
2.45729e-12
2.50284e-12
2.54151e-12
2.57292e-12
2.59674e-12
2.6127e-12
2.62062e-12
2.62036e-12
2.6119e-12
2.59526e-12
2.57055e-12
2.53798e-12
2.49781e-12
2.45039e-12
2.39612e-12
2.33549e-12
2.26903e-12
2.19732e-12
2.12101e-12
2.04075e-12
1.95725e-12
1.87122e-12
1.78337e-12
1.69445e-12
1.60516e-12
1.51622e-12
1.42831e-12
1.34208e-12
1.25815e-12
1.17712e-12
1.09951e-12
1.02582e-12
9.56491e-13
8.91922e-13
8.32452e-13
7.78368e-13
7.29908e-13
6.87257e-13
6.50549e-13
6.19871e-13
5.95261e-13
5.7671e-13
5.64166e-13
5.57533e-13
5.56673e-13
5.61405e-13
5.71511e-13
5.86731e-13
6.06771e-13
6.31295e-13
6.59933e-13
6.9228e-13
7.27896e-13
7.66311e-13
8.07024e-13
8.49508e-13
8.93214e-13
9.37573e-13
9.82003e-13
1.02592e-12
1.06872e-12
1.10983e-12
1.14867e-12
1.1847e-12
1.2174e-12
1.24627e-12
1.27088e-12
1.29085e-12
1.30585e-12
1.31562e-12
1.31997e-12
1.31878e-12
1.312e-12
1.29968e-12
1.28193e-12
1.25893e-12
1.23093e-12
1.19826e-12
1.16129e-12
1.12044e-12
1.07619e-12
1.02902e-12
9.79465e-13
9.28052e-13
8.75315e-13
8.2178e-13
7.67957e-13
7.14331e-13
6.61354e-13
6.09442e-13
5.58966e-13
5.10254e-13
4.63582e-13
4.19177e-13
3.77218e-13
3.37835e-13
3.0111e-13
2.67085e-13
2.35759e-13
2.07098e-13
1.81036e-13
1.57482e-13
1.36322e-13
1.17427e-13
1.00653e-13
8.58494e-14
7.28611e-14
6.15313e-14
5.17052e-14
4.32318e-14
3.59667e-14
2.97729e-14
2.45222e-14
2.00961e-14
1.63861e-14
1.32936e-14
1.07303e-14
8.61753e-15
6.88569e-15
5.47398e-15
4.32959e-15
3.40703e-15
2.6674e-15
2.07768e-15
1.61007e-15
1.24132e-15
9.52131e-16
7.26568e-16
5.51598e-16
4.16613e-16
3.13044e-16
2.34012e-16
1.74031e-16
1.28758e-16
9.47704e-17
6.93945e-17
5.05508e-17
3.66337e-17
2.64108e-17
1.89421e-17
1.35151e-17
9.59306e-18
6.77388e-18
4.75841e-18
3.32534e-18
2.31195e-18
1.59938e-18
1.10137e-18
7.55856e-19
5.18583e-19
3.58472e-19
2.54179e-19
1.9164e-19
1.62368e-19
8.3532e-19
9.1128e-19
1.06817e-18
1.31543e-18
1.6682e-18
2.14831e-18
2.78573e-18
3.62032e-18
4.70404e-18
6.1037e-18
7.90438e-18
1.02137e-17
1.3167e-17
1.69341e-17
2.17269e-17
2.78092e-17
3.55086e-17
4.52306e-17
5.74754e-17
7.2859e-17
9.21372e-17
1.16235e-16
1.46281e-16
1.83647e-16
2.30001e-16
2.87356e-16
3.58143e-16
4.45283e-16
5.5228e-16
6.83321e-16
8.43394e-16
1.03843e-15
1.27544e-15
1.56272e-15
1.91002e-15
2.32879e-15
2.83241e-15
3.43647e-15
4.15912e-15
5.02133e-15
6.04734e-15
7.26502e-15
8.7063e-15
1.04077e-14
1.24107e-14
1.47624e-14
1.75161e-14
2.07317e-14
2.44763e-14
2.88251e-14
3.38615e-14
3.96781e-14
4.63771e-14
5.40705e-14
6.28812e-14
7.29427e-14
8.43998e-14
9.74087e-14
1.12137e-13
1.28763e-13
1.47476e-13
1.68476e-13
1.91973e-13
2.18184e-13
2.47334e-13
2.79655e-13
3.15378e-13
3.54741e-13
3.97978e-13
4.45316e-13
4.9698e-13
5.5318e-13
6.14112e-13
6.79952e-13
7.50854e-13
8.26942e-13
9.08308e-13
9.95007e-13
1.08705e-12
1.1844e-12
1.28698e-12
1.39464e-12
1.50718e-12
1.62434e-12
1.74579e-12
1.87114e-12
1.99993e-12
2.13163e-12
2.26564e-12
2.40131e-12
2.53793e-12
2.6747e-12
2.81082e-12
2.94541e-12
3.07755e-12
3.20633e-12
3.33079e-12
3.44997e-12
3.56292e-12
3.66871e-12
3.76642e-12
3.85519e-12
3.93421e-12
4.00274e-12
4.0601e-12
4.10571e-12
4.1391e-12
4.15987e-12
4.16778e-12
4.16267e-12
4.14452e-12
4.11343e-12
4.06963e-12
4.01347e-12
3.94543e-12
3.86608e-12
3.77611e-12
3.67632e-12
3.56759e-12
3.45086e-12
3.32717e-12
3.19757e-12
3.06319e-12
2.92515e-12
2.78461e-12
2.64269e-12
2.50053e-12
2.35922e-12
2.21983e-12
2.08337e-12
1.95079e-12
1.82297e-12
1.70074e-12
1.58484e-12
1.47592e-12
1.37458e-12
1.2813e-12
1.19651e-12
1.12053e-12
1.05363e-12
9.95979e-13
9.47674e-13
9.08746e-13
8.7915e-13
8.58776e-13
8.47447e-13
8.44925e-13
8.50909e-13
8.65041e-13
8.86903e-13
9.16026e-13
9.51882e-13
9.93893e-13
1.04143e-12
1.09382e-12
1.15034e-12
1.21022e-12
1.27268e-12
1.33687e-12
1.40195e-12
1.46704e-12
1.53126e-12
1.59375e-12
1.65362e-12
1.71003e-12
1.76219e-12
1.80932e-12
1.85072e-12
1.88576e-12
1.91387e-12
1.93459e-12
1.94756e-12
1.9525e-12
1.94927e-12
1.93783e-12
1.91823e-12
1.89067e-12
1.85543e-12
1.8129e-12
1.76357e-12
1.70799e-12
1.64682e-12
1.58073e-12
1.51048e-12
1.43683e-12
1.36056e-12
1.28246e-12
1.2033e-12
1.12382e-12
1.04474e-12
9.66704e-13
8.90326e-13
8.1614e-13
7.44615e-13
6.7615e-13
6.1107e-13
5.49625e-13
4.91999e-13
4.38304e-13
3.88592e-13
3.42856e-13
3.0104e-13
2.6304e-13
2.28719e-13
1.97905e-13
1.70404e-13
1.46004e-13
1.24482e-13
1.05609e-13
8.91543e-14
7.48901e-14
6.25956e-14
5.20588e-14
4.30796e-14
3.54709e-14
2.90597e-14
2.36877e-14
1.92117e-14
1.5503e-14
1.2447e-14
9.94297e-15
7.90245e-15
6.24884e-15
4.91616e-15
3.84802e-15
2.99662e-15
2.3217e-15
1.78961e-15
1.37241e-15
1.04709e-15
7.94787e-16
6.00185e-16
4.50905e-16
3.37014e-16
2.50594e-16
1.85376e-16
1.36425e-16
9.9882e-17
7.27504e-17
5.27152e-17
3.80003e-17
2.72513e-17
1.94417e-17
1.37984e-17
9.74247e-18
6.84315e-18
4.78184e-18
3.32433e-18
2.29957e-18
1.58344e-18
1.08662e-18
7.4547e-19
5.15278e-19
3.65343e-19
2.75437e-19
2.33356e-19
1.40253e-18
1.53e-18
1.79327e-18
2.2082e-18
2.80014e-18
3.6057e-18
4.67512e-18
6.07522e-18
7.89306e-18
1.02406e-17
1.32604e-17
1.71328e-17
2.20844e-17
2.83996e-17
3.6433e-17
4.66265e-17
5.95282e-17
7.58163e-17
9.6328e-17
1.22093e-16
1.54375e-16
1.9472e-16
2.45014e-16
3.07549e-16
3.85108e-16
4.81055e-16
5.99443e-16
7.45147e-16
9.24008e-16
1.143e-15
1.41045e-15
1.73621e-15
2.13198e-15
2.61155e-15
3.19113e-15
3.88974e-15
4.72963e-15
5.73669e-15
6.94101e-15
8.37738e-15
1.0086e-14
1.21129e-14
1.45111e-14
1.73408e-14
2.06707e-14
2.45786e-14
2.91523e-14
3.44905e-14
4.07039e-14
4.79159e-14
5.62639e-14
6.58997e-14
7.69907e-14
8.97208e-14
1.04291e-13
1.20919e-13
1.39841e-13
1.61311e-13
1.85602e-13
2.13004e-13
2.43824e-13
2.78385e-13
3.17024e-13
3.60093e-13
4.07952e-13
4.60971e-13
5.19524e-13
5.83983e-13
6.5472e-13
7.32098e-13
8.16463e-13
9.08144e-13
1.00744e-12
1.11463e-12
1.22993e-12
1.35353e-12
1.48555e-12
1.62605e-12
1.77504e-12
1.93242e-12
2.09803e-12
2.27162e-12
2.45282e-12
2.64119e-12
2.83617e-12
3.03709e-12
3.24319e-12
3.45359e-12
3.6673e-12
3.88326e-12
4.10028e-12
4.31711e-12
4.53241e-12
4.74477e-12
4.95275e-12
5.15484e-12
5.34955e-12
5.53533e-12
5.71071e-12
5.8742e-12
6.02439e-12
6.15994e-12
6.27959e-12
6.38221e-12
6.46679e-12
6.53245e-12
6.57849e-12
6.60438e-12
6.60976e-12
6.59448e-12
6.55856e-12
6.50224e-12
6.42595e-12
6.33031e-12
6.21613e-12
6.08438e-12
5.93623e-12
5.77296e-12
5.596e-12
5.40691e-12
5.20731e-12
4.99893e-12
4.78351e-12
4.56287e-12
4.33879e-12
4.11306e-12
3.88745e-12
3.66366e-12
3.44332e-12
3.22799e-12
3.01913e-12
2.81808e-12
2.62609e-12
2.44425e-12
2.27357e-12
2.1149e-12
1.96895e-12
1.83634e-12
1.71752e-12
1.61283e-12
1.52251e-12
1.44666e-12
1.38527e-12
1.33824e-12
1.30534e-12
1.28626e-12
1.28061e-12
1.28789e-12
1.30751e-12
1.3388e-12
1.38103e-12
1.43336e-12
1.4949e-12
1.56468e-12
1.64165e-12
1.72472e-12
1.81273e-12
1.90447e-12
1.99868e-12
2.09409e-12
2.18939e-12
2.28327e-12
2.37443e-12
2.46159e-12
2.5435e-12
2.61897e-12
2.68689e-12
2.74623e-12
2.79607e-12
2.8356e-12
2.86417e-12
2.88124e-12
2.88646e-12
2.87962e-12
2.86069e-12
2.82979e-12
2.78721e-12
2.73341e-12
2.66898e-12
2.59464e-12
2.51126e-12
2.41977e-12
2.32121e-12
2.21668e-12
2.10731e-12
1.99426e-12
1.87868e-12
1.76171e-12
1.64442e-12
1.52785e-12
1.41296e-12
1.30063e-12
1.19163e-12
1.08664e-12
9.8623e-13
8.90864e-13
8.00898e-13
7.16587e-13
6.38086e-13
5.65459e-13
4.98686e-13
4.37674e-13
3.82267e-13
3.32251e-13
2.87373e-13
2.47342e-13
2.11845e-13
1.8055e-13
1.53121e-13
1.29218e-13
1.08507e-13
9.06629e-14
7.5377e-14
6.23562e-14
5.13271e-14
4.20374e-14
3.42565e-14
2.77757e-14
2.24076e-14
1.79859e-14
1.43639e-14
1.14133e-14
9.0229e-15
7.09697e-15
5.55379e-15
4.32406e-15
3.34947e-15
2.58132e-15
1.97918e-15
1.50975e-15
1.14576e-15
8.6508e-16
6.49809e-16
4.85602e-16
3.61027e-16
2.6703e-16
1.9649e-16
1.43839e-16
1.04754e-16
7.58963e-17
5.47044e-17
3.92261e-17
2.7982e-17
1.98578e-17
1.40195e-17
9.84651e-18
6.87996e-18
4.78258e-18
3.30805e-18
2.2777e-18
1.56295e-18
1.07219e-18
7.41065e-19
5.25399e-19
3.96082e-19
3.35556e-19
2.34272e-18
2.55551e-18
2.99503e-18
3.6877e-18
4.67581e-18
6.02044e-18
7.80535e-18
1.0142e-17
1.31754e-17
1.70924e-17
2.21305e-17
2.85902e-17
3.68493e-17
4.73812e-17
6.0777e-17
7.77722e-17
9.92794e-17
1.26428e-16
1.6061e-16
2.0354e-16
2.57319e-16
3.24518e-16
4.08271e-16
5.1239e-16
6.41496e-16
8.01175e-16
9.98159e-16
1.24054e-15
1.538e-15
1.90212e-15
2.34668e-15
2.88803e-15
3.54553e-15
4.34201e-15
5.30431e-15
6.46388e-15
7.85748e-15
9.52791e-15
1.15248e-14
1.39056e-14
1.67366e-14
2.00937e-14
2.40641e-14
2.8747e-14
3.42553e-14
4.07168e-14
4.82756e-14
5.70938e-14
6.73526e-14
7.92542e-14
9.30231e-14
1.08907e-13
1.27181e-13
1.48142e-13
1.72119e-13
1.99466e-13
2.30566e-13
2.65831e-13
3.05704e-13
3.50651e-13
4.01169e-13
4.57777e-13
5.21018e-13
5.91455e-13
6.69664e-13
7.56233e-13
8.51757e-13
9.56827e-13
1.07203e-12
1.19793e-12
1.33507e-12
1.48395e-12
1.64505e-12
1.81877e-12
2.00544e-12
2.20533e-12
2.41859e-12
2.64531e-12
2.88542e-12
3.13875e-12
3.405e-12
3.68369e-12
3.97421e-12
4.2758e-12
4.58751e-12
4.90824e-12
5.23671e-12
5.57147e-12
5.91091e-12
6.25329e-12
6.59668e-12
6.93904e-12
7.27824e-12
7.61202e-12
7.93804e-12
8.25395e-12
8.55734e-12
8.84581e-12
9.11702e-12
9.36865e-12
9.59851e-12
9.80453e-12
9.98479e-12
1.01375e-11
1.02613e-11
1.03547e-11
1.04169e-11
1.04469e-11
1.04445e-11
1.04093e-11
1.03417e-11
1.0242e-11
1.01111e-11
9.95001e-12
9.7601e-12
9.54303e-12
9.30069e-12
9.03518e-12
8.74883e-12
8.44411e-12
8.12365e-12
7.79017e-12
7.44644e-12
7.0953e-12
6.73957e-12
6.38203e-12
6.02542e-12
5.67237e-12
5.3254e-12
4.98689e-12
4.65907e-12
4.34396e-12
4.04345e-12
3.75918e-12
3.49262e-12
3.24502e-12
3.01743e-12
2.81071e-12
2.62549e-12
2.46224e-12
2.32123e-12
2.20254e-12
2.10611e-12
2.03169e-12
1.97889e-12
1.94718e-12
1.93587e-12
1.94416e-12
1.97112e-12
2.01568e-12
2.07667e-12
2.1528e-12
2.24269e-12
2.34483e-12
2.45763e-12
2.57943e-12
2.70845e-12
2.84289e-12
2.98085e-12
3.12042e-12
3.25966e-12
3.39661e-12
3.52935e-12
3.65597e-12
3.77466e-12
3.88366e-12
3.98134e-12
4.06622e-12
4.13695e-12
4.19238e-12
4.23157e-12
4.25377e-12
4.2585e-12
4.24548e-12
4.21469e-12
4.16637e-12
4.10097e-12
4.01919e-12
3.92193e-12
3.81028e-12
3.68553e-12
3.54908e-12
3.40247e-12
3.24732e-12
3.08529e-12
2.9181e-12
2.74743e-12
2.57492e-12
2.40218e-12
2.2307e-12
2.06188e-12
1.89698e-12
1.73712e-12
1.58328e-12
1.43628e-12
1.29677e-12
1.16527e-12
1.04213e-12
9.27547e-13
8.21613e-13
7.24282e-13
6.35403e-13
5.54737e-13
4.81964e-13
4.16701e-13
3.58518e-13
3.06951e-13
2.61513e-13
2.21706e-13
1.87032e-13
1.57001e-13
1.3114e-13
1.08995e-13
9.01395e-14
7.41742e-14
6.07318e-14
4.94768e-14
4.01056e-14
3.2346e-14
2.59566e-14
2.07243e-14
1.64632e-14
1.30121e-14
1.02324e-14
8.00572e-15
6.23177e-15
4.82625e-15
3.7187e-15
2.85071e-15
2.17417e-15
1.64972e-15
1.24537e-15
9.35316e-16
6.98854e-16
5.19495e-16
3.84185e-16
2.82659e-16
2.06892e-16
1.50655e-16
1.0914e-16
7.86567e-17
5.63953e-17
4.02256e-17
2.85439e-17
2.015e-17
1.4151e-17
9.88678e-18
6.87223e-18
4.75309e-18
3.27243e-18
2.24539e-18
1.54024e-18
1.0645e-18
7.54658e-19
5.6888e-19
4.81929e-19
3.89242e-18
4.24575e-18
4.97559e-18
6.12578e-18
7.76647e-18
9.99897e-18
1.29622e-17
1.68411e-17
2.18762e-17
2.83772e-17
3.67379e-17
4.74564e-17
6.1159e-17
7.86303e-17
1.00849e-16
1.29035e-16
1.64697e-16
2.09707e-16
2.6637e-16
3.37522e-16
4.26639e-16
5.37975e-16
6.76712e-16
8.49151e-16
1.06293e-15
1.32728e-15
1.65331e-15
2.05439e-15
2.5465e-15
3.14875e-15
3.88384e-15
4.77875e-15
5.86537e-15
7.18129e-15
8.7707e-15
1.06854e-14
1.29857e-14
1.57421e-14
1.90361e-14
2.29619e-14
2.76283e-14
3.316e-14
3.96995e-14
4.74094e-14
5.64745e-14
6.71036e-14
7.95322e-14
9.40247e-14
1.10877e-13
1.30418e-13
1.53013e-13
1.79066e-13
2.09021e-13
2.43364e-13
2.82624e-13
3.27375e-13
3.78237e-13
4.35875e-13
5.00999e-13
5.74363e-13
6.56762e-13
7.49029e-13
8.52033e-13
9.66668e-13
1.09386e-12
1.23453e-12
1.38962e-12
1.56007e-12
1.74679e-12
1.95067e-12
2.17255e-12
2.4132e-12
2.67334e-12
2.95358e-12
3.2544e-12
3.57617e-12
3.91912e-12
4.28327e-12
4.6685e-12
5.07444e-12
5.50054e-12
5.94599e-12
6.40974e-12
6.89048e-12
7.38664e-12
7.89639e-12
8.41761e-12
8.94796e-12
9.48479e-12
1.00253e-11
1.05663e-11
1.11046e-11
1.16368e-11
1.21592e-11
1.26681e-11
1.31599e-11
1.36306e-11
1.40766e-11
1.44942e-11
1.48798e-11
1.52299e-11
1.55415e-11
1.58115e-11
1.60374e-11
1.62169e-11
1.63481e-11
1.64295e-11
1.64602e-11
1.64395e-11
1.63675e-11
1.62444e-11
1.60713e-11
1.58495e-11
1.55808e-11
1.52676e-11
1.49125e-11
1.45187e-11
1.40895e-11
1.36288e-11
1.31403e-11
1.26284e-11
1.20974e-11
1.15515e-11
1.09952e-11
1.0433e-11
9.86911e-12
9.30782e-12
8.75317e-12
8.20901e-12
7.67897e-12
7.16643e-12
6.67448e-12
6.20589e-12
5.76313e-12
5.34838e-12
4.96344e-12
4.60984e-12
4.28877e-12
4.00111e-12
3.74745e-12
3.52811e-12
3.34312e-12
3.19225e-12
3.07505e-12
2.99082e-12
2.93865e-12
2.91744e-12
2.92586e-12