/*--------------------------------*- C++ -*----------------------------------*\
| =========                 |                                                 |
| \\      /  F ield         | OpenFOAM: The Open Source CFD Toolbox           |
|  \\    /   O peration     | Version:  v2012                                 |
|   \\  /    A nd           | Website:  www.openfoam.com                      |
|    \\/     M anipulation  |                                                 |
\*---------------------------------------------------------------------------*/
FoamFile
{
    version     2.0;
    format      ascii;
    class       volVectorField;
    location    "0";
    object      U;
}
// * * * * * * * * * * * * * * * * * * * * * * * * * * * * * * * * * * * * * //

dimensions      [0 1 -1 0 0 0 0];


internalField   nonuniform List<vector> 
4000
(
(1 4.02355e-15 0)
(1 1.70556e-15 0)
(1 8.7909e-16 0)
(1 -3.27697e-16 0)
(1 -1.04827e-15 0)
(1 -3.80461e-15 0)
(1 -1.19266e-15 0)
(1 5.99454e-15 0)
(1 5.83026e-15 0)
(1 -3.22961e-15 0)
(1 -3.84919e-15 0)
(1 -1.22924e-15 0)
(1 -1.36206e-15 0)
(1 3.05577e-15 0)
(1 6.76942e-15 0)
(1 -3.61342e-15 0)
(1 -4.46023e-15 0)
(1 2.09183e-15 0)
(1 2.29441e-15 0)
(1 6.04997e-16 0)
(1 -4.68078e-15 0)
(1 -5.97022e-15 0)
(1 -2.01129e-15 0)
(1 3.95652e-16 0)
(1 1.58418e-15 0)
(1 1.7512e-15 0)
(1 8.93566e-16 0)
(1 2.65175e-16 0)
(1 3.38075e-15 0)
(1 1.49653e-15 0)
(1 3.16568e-15 0)
(1 -5.70066e-15 0)
(1 -6.00477e-15 0)
(1 -4.88173e-15 0)
(1 -3.84786e-16 0)
(1 -1.37952e-15 0)
(1 5.19653e-15 0)
(1 6.94329e-15 0)
(1 2.03863e-15 0)
(1 -4.55738e-15 0)
(1 -4.32676e-15 0)
(1 -6.00176e-15 0)
(1 -9.53448e-16 0)
(1 5.56918e-15 0)
(1 2.64169e-15 0)
(1 -9.55026e-16 0)
(1 -2.60203e-15 0)
(1 -8.13955e-16 0)
(1 -1.25812e-15 0)
(1 1.57803e-15 0)
(1 4.74498e-15 0)
(1 3.15441e-15 0)
(1 4.71327e-15 0)
(1 5.16067e-15 0)
(1 3.5915e-15 0)
(1 3.14648e-15 0)
(1 -2.15219e-15 0)
(1 7.92256e-17 0)
(1 -2.50275e-15 0)
(1 -7.75291e-17 0)
(1 -1.71571e-15 0)
(1 6.73858e-16 0)
(1 4.19585e-15 0)
(1 1.71726e-15 0)
(1 -2.99663e-15 0)
(1 -1.30564e-15 0)
(1 -3.05104e-15 0)
(1 3.56431e-15 0)
(1 -1.71972e-15 0)
(1 -3.77849e-15 0)
(1 -1.123e-15 0)
(1 7.67344e-16 0)
(1 -4.24109e-15 0)
(1 -4.67531e-15 0)
(1 -5.64804e-15 0)
(1 -3.37025e-16 0)
(1 -7.29456e-16 0)
(1 -1.41197e-15 0)
(1 -1.24975e-15 0)
(1 2.66961e-15 0)
(1 3.66642e-15 0)
(1 4.18753e-16 0)
(1 -1.75741e-15 0)
(1 -2.95991e-15 0)
(1 -8.53407e-15 0)
(1 -5.7579e-16 0)
(1 3.79488e-15 0)
(1 4.11856e-15 0)
(1 4.74402e-15 0)
(1 6.95832e-15 0)
(1 -1.69174e-15 0)
(1 3.02765e-15 0)
(1 -3.95471e-16 0)
(1 -7.84091e-16 0)
(1 -3.09635e-15 0)
(1 3.29355e-15 0)
(1 5.58904e-16 0)
(1 -2.23217e-15 0)
(1 -1.40763e-15 0)
(1 -1.65957e-15 0)
(1 2.48418e-15 0)
(1 3.48899e-15 0)
(1 9.6471e-16 0)
(1 -2.32398e-16 0)
(1 -1.0252e-15 0)
(1 -5.80795e-15 0)
(1 -3.11111e-15 0)
(1 8.63056e-15 0)
(1 6.54897e-15 0)
(1 1.26353e-15 0)
(1 -1.8253e-15 0)
(1 -4.16277e-15 0)
(1 -1.76033e-15 0)
(1 -3.31126e-16 0)
(1 7.9858e-15 0)
(1 -3.86765e-15 0)
(1 -9.85712e-15 0)
(1 6.2933e-15 0)
(1 3.77152e-15 0)
(1 3.63807e-15 0)
(1 -1.43916e-15 0)
(1 -7.51209e-15 0)
(1 -1.77853e-15 0)
(1 2.54165e-15 0)
(1 1.85108e-15 0)
(1 -1.47979e-15 0)
(1 -3.93408e-15 0)
(1 -6.21225e-15 0)
(1 7.55778e-15 0)
(1 -1.99523e-16 0)
(1 2.09237e-15 0)
(1 -2.53527e-15 0)
(1 -5.42215e-15 0)
(1 -2.89401e-15 0)
(1 1.64847e-15 0)
(1 -1.21886e-15 0)
(1 7.51399e-15 0)
(1 4.85436e-15 0)
(1 -6.02588e-15 0)
(1 -1.0059e-14 0)
(1 -9.48762e-15 0)
(1 -3.32271e-15 0)
(1 3.33184e-15 0)
(1 1.02924e-14 0)
(1 8.96975e-15 0)
(1 -1.20365e-15 0)
(1 -1.58542e-15 0)
(1 -3.1763e-15 0)
(1 7.08015e-16 0)
(1 -3.0027e-15 0)
(1 -1.26844e-15 0)
(1 1.22337e-15 0)
(1 5.30155e-15 0)
(1 2.5376e-15 0)
(1 4.19279e-15 0)
(1 4.13975e-15 0)
(1 2.12644e-15 0)
(1 3.00804e-15 0)
(1 -1.54962e-15 0)
(1 -4.01371e-15 0)
(1 -2.4838e-15 0)
(1 -3.15845e-15 0)
(1 2.37696e-15 0)
(1 1.92016e-15 0)
(1 -8.01863e-16 0)
(1 -4.53565e-15 0)
(1 -5.44835e-15 0)
(1 1.4092e-15 0)
(1 2.01222e-16 0)
(1 -2.74364e-15 0)
(1 1.64959e-15 0)
(1 9.05087e-16 0)
(1 1.17207e-15 0)
(1 -2.13049e-16 0)
(1 6.01833e-15 0)
(1 1.68255e-15 0)
(1 -2.4089e-15 0)
(1 -4.77958e-16 0)
(1 4.11989e-15 0)
(1 7.28263e-15 0)
(1 5.37691e-15 0)
(1 -5.04068e-15 0)
(1 -4.88031e-15 0)
(1 -2.27199e-15 0)
(1 -5.15166e-15 0)
(1 1.87387e-15 0)
(1 3.90272e-15 0)
(1 3.19892e-15 0)
(1 -2.05195e-16 0)
(1 4.71737e-15 0)
(1 -2.05866e-15 0)
(1 6.06957e-16 0)
(1 -1.66701e-15 0)
(1 1.35183e-15 0)
(1 -4.16085e-15 0)
(1 6.64478e-15 0)
(1 -1.49943e-15 0)
(1 -2.85792e-15 0)
(1 -3.03976e-15 0)
(1 -5.76263e-15 0)
(1 -4.34174e-15 0)
(1 4.89074e-15 0)
(1 -6.52604e-15 0)
(1 3.05723e-15 0)
(1 -1.98892e-15 0)
(1 1.24944e-15 0)
(1 1.2796e-15 0)
(1 4.68277e-15 0)
(1 5.35965e-15 0)
(1 3.35958e-15 0)
(1 2.6311e-15 0)
(1 -4.2091e-15 0)
(1 2.74379e-15 0)
(1 7.65526e-15 0)
(1 4.93034e-15 0)
(1 -3.4915e-15 0)
(1 -5.28294e-15 0)
(1 -3.46433e-15 0)
(1 -6.12798e-16 0)
(1 4.07196e-15 0)
(1 -6.58054e-15 0)
(1 -4.72599e-15 0)
(1 2.73105e-15 0)
(1 7.29648e-15 0)
(1 5.3106e-15 0)
(1 2.88905e-16 0)
(1 2.67878e-15 0)
(1 -5.79478e-15 0)
(1 9.56518e-15 0)
(1 -2.08205e-16 0)
(1 1.02227e-15 0)
(1 -1.23331e-15 0)
(1 -1.08598e-15 0)
(1 -5.08559e-15 0)
(1 -2.05546e-15 0)
(1 1.93494e-18 0)
(1 2.74443e-15 0)
(1 5.90812e-17 0)
(1 -1.01876e-14 0)
(1 -8.22711e-15 0)
(1 -3.82377e-15 0)
(1 -3.70459e-15 0)
(1 2.17035e-15 0)
(1 1.48643e-15 0)
(1 7.04501e-15 0)
(1 3.16907e-15 0)
(1 7.29192e-15 0)
(1 1.11715e-15 0)
(1 8.45269e-16 0)
(1 -2.26221e-15 0)
(1 3.30835e-15 0)
(1 1.18735e-15 0)
(1 5.30539e-15 0)
(1 -1.7799e-16 0)
(1 3.45392e-15 0)
(1 7.22345e-15 0)
(1 5.69399e-15 0)
(1 2.70148e-15 0)
(1 5.7498e-16 0)
(1 -4.35795e-15 0)
(1 -3.43979e-15 0)
(1 -4.77877e-15 0)
(1 -2.17899e-15 0)
(1 7.95892e-16 0)
(1 3.23438e-15 0)
(1 -9.24737e-16 0)
(1 -3.51028e-15 0)
(1 -2.43223e-15 0)
(1 7.60928e-16 0)
(1 -2.35955e-15 0)
(1 -1.77177e-15 0)
(1 -4.36625e-15 0)
(1 -8.74219e-16 0)
(1 2.69274e-15 0)
(1 4.32431e-15 0)
(1 -2.96501e-15 0)
(1 -2.76741e-15 0)
(1 -5.02076e-15 0)
(1 2.58061e-15 0)
(1 1.73785e-15 0)
(1 1.60476e-15 0)
(1 -4.91501e-15 0)
(1 -2.88665e-15 0)
(1 8.99025e-16 0)
(1 6.43285e-16 0)
(1 -1.37135e-16 0)
(1 2.21981e-15 0)
(1 2.35903e-15 0)
(1 -1.6219e-15 0)
(1 7.68746e-16 0)
(1 -3.02415e-15 0)
(1 3.13109e-15 0)
(1 -5.82434e-16 0)
(1 3.21413e-15 0)
(1 1.52988e-15 0)
(1 4.62276e-15 0)
(1 -3.14881e-15 0)
(1 -1.89776e-15 0)
(1 -3.88984e-15 0)
(1 -6.1764e-15 0)
(1 7.16884e-16 0)
(1 -5.0128e-15 0)
(1 -6.6395e-15 0)
(1 -6.57752e-15 0)
(1 4.19824e-15 0)
(1 9.28469e-15 0)
(1 1.06492e-14 0)
(1 -3.52649e-15 0)
(1 1.65389e-15 0)
(1 -1.94311e-15 0)
(1 2.16561e-15 0)
(1 -3.53735e-15 0)
(1 -4.04044e-16 0)
(1 1.35537e-14 0)
(1 1.15006e-14 0)
(1 6.14847e-15 0)
(1 2.09593e-15 0)
(1 -1.2797e-14 0)
(1 -1.57011e-15 0)
(1 3.29767e-15 0)
(1 -5.15415e-15 0)
(1 -5.10794e-15 0)
(1 -9.13592e-16 0)
(1 6.85662e-15 0)
(1 7.41828e-15 0)
(1 1.51482e-14 0)
(1 1.04051e-14 0)
(1 4.28054e-15 0)
(1 9.83115e-15 0)
(1 -2.03334e-15 0)
(1 1.98525e-15 0)
(1 -9.04471e-15 0)
(1 -4.01278e-15 0)
(1 -1.08708e-14 0)
(1 -6.32708e-15 0)
(1 -2.99323e-15 0)
(1 9.8456e-16 0)
(1 9.4226e-17 0)
(1 1.50313e-15 0)
(1 -9.56608e-15 0)
(1 5.2157e-16 0)
(1 -4.73917e-15 0)
(1 2.21548e-15 0)
(1 8.99357e-16 0)
(1 1.06717e-15 0)
(1 7.33913e-15 0)
(1 3.14489e-15 0)
(1 4.68154e-15 0)
(1 2.13192e-15 0)
(1 5.31325e-15 0)
(1 4.11442e-15 0)
(1 2.99147e-15 0)
(1 4.80331e-15 0)
(1 5.04126e-15 0)
(1 4.42829e-15 0)
(1 6.0535e-15 0)
(1 4.35385e-15 0)
(1 1.98598e-15 0)
(1 3.23713e-15 0)
(1 -2.32458e-15 0)
(1 -3.0696e-15 0)
(1 -4.51448e-15 0)
(1 -4.7782e-16 0)
(1 1.56532e-16 0)
(1 4.01839e-15 0)
(1 4.12462e-15 0)
(1 -1.165e-15 0)
(1 -4.07767e-15 0)
(1 -8.06366e-15 0)
(1 -9.97437e-15 0)
(1 -5.05338e-15 0)
(1 -1.81761e-15 0)
(1 -2.35671e-15 0)
(1 -1.52385e-15 0)
(1 -2.07747e-15 0)
(1 -6.16843e-16 0)
(1 9.77733e-16 0)
(1 9.80964e-16 0)
(1 2.80793e-15 0)
(1 -4.71314e-15 0)
(1 2.0215e-15 0)
(1 -2.37015e-15 0)
(1 -3.35176e-15 0)
(1 -6.22277e-16 0)
(1 -5.40401e-17 0)
(1 3.25345e-15 0)
(1 8.68355e-15 0)
(1 3.86431e-15 0)
(1 5.95038e-15 0)
(1 2.04329e-15 0)
(1 1.56809e-15 0)
(1 5.27858e-15 0)
(1 2.59398e-15 0)
(1 2.09381e-15 0)
(1 2.8647e-16 0)
(1 -2.07235e-15 0)
(1 -4.67406e-15 0)
(1 -3.75311e-15 0)
(1 -8.97338e-15 0)
(1 -4.12541e-15 0)
(1 4.93373e-15 0)
(1 -3.22903e-15 0)
(1 2.25643e-15 0)
(1 -5.88985e-15 0)
(1 6.71615e-15 0)
(1 -9.58466e-16 0)
(1 1.27212e-16 0)
(1 -6.58893e-15 0)
(1 -2.06576e-15 0)
(1 2.64925e-16 0)
(1 8.48017e-15 0)
(1 8.29151e-15 0)
(1 4.26276e-15 0)
(1 -1.3959e-15 0)
(1 4.60215e-15 0)
(1 6.86788e-15 0)
(1 2.9944e-15 0)
(1 -8.21182e-15 0)
(1 -4.52868e-15 0)
(1 -9.14503e-15 0)
(1 1.30039e-15 0)
(1 4.26985e-15 0)
(1 8.79248e-16 0)
(1 -1.51482e-15 0)
(1 2.04267e-16 0)
(1 1.17142e-14 0)
(1 4.96557e-15 0)
(1 6.94886e-15 0)
(1 5.99275e-15 0)
(1 -2.76243e-17 0)
(1 -2.47124e-15 0)
(1 3.29712e-15 0)
(1 -3.53096e-15 0)
(1 -4.73538e-16 0)
(1 -7.6753e-15 0)
(1 -5.51335e-15 0)
(1 -3.59261e-15 0)
(1 -8.12756e-15 0)
(1 -3.74674e-15 0)
(1 -5.03518e-15 0)
(1 -2.63519e-15 0)
(1 -5.27352e-15 0)
(1 -2.0664e-15 0)
(1 1.49184e-15 0)
(1 2.77775e-15 0)
(1 9.00751e-15 0)
(1 -1.17145e-15 0)
(1 5.44023e-15 0)
(1 6.38141e-15 0)
(1 3.85544e-15 0)
(1 -4.45017e-15 0)
(1 3.11857e-15 0)
(1 1.14805e-15 0)
(1 5.93244e-15 0)
(1 3.59701e-15 0)
(1 1.38417e-16 0)
(1 4.92182e-15 0)
(1 2.75551e-16 0)
(1 5.01289e-16 0)
(1 2.25216e-15 0)
(1 5.12036e-16 0)
(1 -1.74734e-15 0)
(1 -6.34349e-16 0)
(1 3.54202e-15 0)
(1 1.09019e-14 0)
(1 8.52058e-15 0)
(1 4.18904e-15 0)
(1 -4.89955e-15 0)
(1 -4.77747e-15 0)
(1 -6.77379e-15 0)
(1 -7.99651e-15 0)
(1 1.22713e-15 0)
(1 6.23024e-16 0)
(1 9.10213e-16 0)
(1 3.04447e-15 0)
(1 -4.812e-16 0)
(1 -2.13733e-15 0)
(1 4.14284e-15 0)
(1 3.89065e-15 0)
(1 1.68188e-15 0)
(1 -1.70375e-15 0)
(1 -6.69126e-15 0)
(1 -2.99288e-15 0)
(1 -1.59141e-15 0)
(1 4.26915e-15 0)
(1 5.77972e-15 0)
(1 5.92773e-15 0)
(1 6.36005e-16 0)
(1 5.22169e-15 0)
(1 -9.1572e-16 0)
(1 6.1728e-15 0)
(1 1.6879e-15 0)
(1 6.21269e-15 0)
(1 1.58221e-15 0)
(1 3.47444e-15 0)
(1 -2.19952e-15 0)
(1 -2.65119e-15 0)
(1 2.25404e-16 0)
(1 -1.29768e-15 0)
(1 1.62842e-15 0)
(1 -8.77697e-16 0)
(1 2.97846e-15 0)
(1 3.11391e-15 0)
(1 2.7848e-15 0)
(1 -1.2186e-15 0)
(1 -8.20389e-15 0)
(1 -6.88352e-15 0)
(1 -3.23763e-15 0)
(1 1.74312e-15 0)
(1 5.33392e-15 0)
(1 1.95578e-15 0)
(1 1.59292e-14 0)
(1 1.00151e-14 0)
(1 -4.14986e-15 0)
(1 2.56068e-15 0)
(1 9.74258e-16 0)
(1 3.97004e-15 0)
(1 -8.72409e-16 0)
(1 -9.79713e-15 0)
(1 -1.35402e-14 0)
(1 -3.4448e-15 0)
(1 1.37055e-14 0)
(1 1.60546e-14 0)
(1 4.05164e-15 0)
(1 3.54165e-15 0)
(1 3.20577e-16 0)
(1 2.97899e-15 0)
(1 4.07102e-15 0)
(1 2.78798e-16 0)
(1 6.29166e-15 0)
(1 -5.15071e-15 0)
(1 4.02865e-15 0)
(1 -4.3618e-15 0)
(1 2.16534e-15 0)
(1 -6.77581e-15 0)
(1 3.07929e-15 0)
(1 -1.70419e-16 0)
(1 -1.717e-15 0)
(1 -1.13852e-14 0)
(1 6.73328e-16 0)
(1 -8.53688e-15 0)
(1 -7.72607e-16 0)
(1 -1.92343e-15 0)
(1 7.0269e-15 0)
(1 9.57444e-15 0)
(1 7.70455e-16 0)
(1 7.36617e-16 0)
(1 2.17336e-15 0)
(1 7.36209e-15 0)
(1 6.63678e-15 0)
(1 6.61483e-15 0)
(1 3.65406e-15 0)
(1 1.74341e-15 0)
(1 5.31112e-15 0)
(1 3.64931e-15 0)
(1 1.05571e-15 0)
(1 3.3899e-15 0)
(1 -5.09874e-16 0)
(1 -1.53654e-15 0)
(1 8.20853e-15 0)
(1 1.50481e-15 0)
(1 1.06138e-15 0)
(1 -4.13968e-15 0)
(1 2.90259e-15 0)
(1 6.31575e-15 0)
(1 1.06321e-14 0)
(1 7.1999e-15 0)
(1 5.31457e-15 0)
(1 9.20704e-15 0)
(1 5.23459e-15 0)
(1 6.18971e-15 0)
(1 2.94129e-15 0)
(1 -3.39161e-16 0)
(1 -1.68485e-15 0)
(1 -2.17067e-16 0)
(1 -8.44922e-15 0)
(1 -5.32197e-15 0)
(1 -2.81789e-15 0)
(1 6.63197e-16 0)
(1 6.11399e-15 0)
(1 -2.01626e-15 0)
(1 3.60016e-15 0)
(1 2.81317e-15 0)
(1 -2.27004e-15 0)
(1 -6.99374e-15 0)
(1 -1.5624e-15 0)
(1 -1.50525e-15 0)
(1 -1.25052e-15 0)
(1 2.06548e-16 0)
(1 5.39911e-16 0)
(1 1.62383e-15 0)
(1 6.57481e-15 0)
(1 6.29203e-15 0)
(1 3.90174e-15 0)
(1 8.52318e-15 0)
(1 1.43853e-15 0)
(1 3.3569e-15 0)
(1 4.93082e-15 0)
(1 1.08629e-14 0)
(1 7.70831e-15 0)
(1 -1.09831e-15 0)
(1 -7.40182e-16 0)
(1 5.63174e-15 0)
(1 5.16752e-15 0)
(1 -3.43888e-15 0)
(1 -5.76082e-15 0)
(1 1.01246e-15 0)
(1 6.71287e-15 0)
(1 4.47753e-15 0)
(1 6.2941e-15 0)
(1 -5.66052e-15 0)
(1 3.24404e-15 0)
(1 -1.64424e-15 0)
(1 4.13284e-15 0)
(1 2.76576e-15 0)
(1 2.86725e-15 0)
(1 1.14295e-15 0)
(1 -3.17064e-16 0)
(1 -4.05773e-16 0)
(1 3.25803e-15 0)
(1 3.61492e-16 0)
(1 4.57623e-15 0)
(1 -2.37213e-15 0)
(1 -4.8973e-16 0)
(1 4.50916e-15 0)
(1 -8.91014e-15 0)
(1 8.91779e-16 0)
(1 -6.12273e-16 0)
(1 3.33484e-15 0)
(1 5.18306e-15 0)
(1 6.91626e-15 0)
(1 2.44548e-15 0)
(1 9.43836e-16 0)
(1 -6.65272e-15 0)
(1 -2.07311e-15 0)
(1 3.29969e-15 0)
(1 -3.97028e-15 0)
(1 2.1424e-15 0)
(1 -6.19544e-16 0)
(1 1.14547e-15 0)
(1 -5.92002e-15 0)
(1 6.99091e-15 0)
(1 5.88159e-15 0)
(1 1.02161e-14 0)
(1 2.90552e-16 0)
(1 -2.71209e-15 0)
(1 -4.2532e-15 0)
(1 -2.89354e-16 0)
(1 4.41999e-15 0)
(1 5.27707e-16 0)
(1 6.88798e-15 0)
(1 3.96575e-15 0)
(1 4.36763e-15 0)
(1 -3.57691e-15 0)
(1 2.68004e-15 0)
(1 1.64083e-15 0)
(1 6.03288e-15 0)
(1 3.05477e-15 0)
(1 9.34676e-16 0)
(1 3.33472e-15 0)
(1 5.94517e-15 0)
(1 5.87099e-15 0)
(1 4.77865e-15 0)
(1 -1.93335e-16 0)
(1 -3.6392e-15 0)
(1 1.74305e-15 0)
(1 1.61713e-15 0)
(1 6.56082e-15 0)
(1 3.48927e-15 0)
(1 3.69292e-15 0)
(1 7.56521e-15 0)
(1 -5.97334e-16 0)
(1 -2.38643e-15 0)
(1 -2.30424e-15 0)
(1 3.82611e-15 0)
(1 1.84636e-15 0)
(1 4.21805e-15 0)
(1 5.6262e-15 0)
(1 2.44385e-15 0)
(1 -1.20449e-16 0)
(1 -1.48232e-16 0)
(1 3.2153e-15 0)
(1 1.53749e-15 0)
(1 1.34899e-15 0)
(1 -3.9717e-16 0)
(1 6.14258e-15 0)
(1 4.48085e-15 0)
(1 5.55224e-15 0)
(1 -3.90938e-16 0)
(1 3.62972e-15 0)
(1 3.13595e-15 0)
(1 1.07819e-14 0)
(1 5.67475e-15 0)
(1 6.34332e-15 0)
(1 4.24058e-15 0)
(1 6.62863e-15 0)
(1 7.56947e-15 0)
(1 1.15234e-14 0)
(1 7.92477e-15 0)
(1 6.81588e-15 0)
(1 5.52779e-16 0)
(1 -2.06754e-15 0)
(1 -3.75576e-15 0)
(1 -1.3509e-15 0)
(1 -4.24221e-15 0)
(1 7.03955e-15 0)
(1 5.12082e-16 0)
(1 7.53601e-15 0)
(1 2.74223e-15 0)
(1 3.88633e-16 0)
(1 -1.51405e-15 0)
(1 -4.07369e-15 0)
(1 -5.97822e-16 0)
(1 1.30186e-14 0)
(1 4.28656e-15 0)
(1 8.21868e-15 0)
(1 7.3676e-15 0)
(1 6.27474e-15 0)
(1 6.03824e-15 0)
(1 -1.05205e-15 0)
(1 -3.34671e-15 0)
(1 -2.97671e-15 0)
(1 -8.32292e-15 0)
(1 -1.5305e-14 0)
(1 -9.74513e-15 0)
(1 -1.08939e-14 0)
(1 -1.52157e-15 0)
(1 4.52811e-15 0)
(1 1.35384e-14 0)
(1 6.24545e-15 0)
(1 1.14788e-14 0)
(1 7.79278e-16 0)
(1 -2.03221e-15 0)
(1 -5.29104e-15 0)
(1 2.80986e-15 0)
(1 -1.42789e-15 0)
(1 -2.30797e-15 0)
(1 -3.19003e-15 0)
(1 9.88968e-15 0)
(1 7.75499e-16 0)
(1 2.13872e-15 0)
(1 -5.19427e-15 0)
(1 -8.11656e-15 0)
(1 -2.68532e-15 0)
(1 2.53843e-15 0)
(1 7.04199e-15 0)
(1 6.38698e-15 0)
(1 3.32782e-15 0)
(1 2.96182e-15 0)
(1 -4.09639e-16 0)
(1 3.4254e-15 0)
(1 5.44549e-15 0)
(1 9.43318e-15 0)
(1 6.12098e-15 0)
(1 7.09815e-15 0)
(1 6.58422e-15 0)
(1 5.90508e-15 0)
(1 4.08034e-15 0)
(1 -6.36609e-15 0)
(1 -5.62328e-15 0)
(1 5.90786e-16 0)
(1 1.16074e-14 0)
(1 1.49028e-14 0)
(1 9.51357e-15 0)
(1 2.42388e-15 0)
(1 8.30719e-16 0)
(1 7.73769e-15 0)
(1 6.47642e-15 0)
(1 1.11234e-15 0)
(1 1.09551e-15 0)
(1 3.12609e-15 0)
(1 3.3913e-15 0)
(1 4.08781e-15 0)
(1 2.59588e-15 0)
(1 4.96423e-15 0)
(1 4.84807e-15 0)
(1 5.29221e-15 0)
(1 8.68614e-16 0)
(1 -1.58322e-15 0)
(1 -5.59135e-16 0)
(1 -2.59844e-15 0)
(1 -4.95886e-15 0)
(1 -1.52444e-15 0)
(1 2.18251e-15 0)
(1 7.72552e-15 0)
(1 2.6579e-15 0)
(1 1.3944e-15 0)
(1 4.21138e-15 0)
(1 6.27414e-16 0)
(1 1.11893e-15 0)
(1 3.99003e-15 0)
(1 5.38536e-15 0)
(1 7.98288e-15 0)
(1 5.16084e-15 0)
(1 4.72546e-15 0)
(1 8.07194e-15 0)
(1 6.36853e-15 0)
(1 1.57463e-14 0)
(1 1.11299e-14 0)
(1 1.23041e-14 0)
(1 -1.2514e-15 0)
(1 -5.18224e-15 0)
(1 -5.24758e-15 0)
(1 -7.54594e-15 0)
(1 -1.51762e-15 0)
(1 1.20955e-14 0)
(1 2.88155e-15 0)
(1 2.72509e-15 0)
(1 -2.44422e-15 0)
(1 -5.03192e-15 0)
(1 5.46628e-16 0)
(1 -2.6672e-16 0)
(1 7.5424e-15 0)
(1 1.17429e-14 0)
(1 6.18775e-15 0)
(1 8.75852e-15 0)
(1 5.46418e-16 0)
(1 7.18993e-15 0)
(1 -4.88435e-16 0)
(1 -5.59325e-15 0)
(1 -8.30207e-15 0)
(1 -3.55794e-15 0)
(1 1.59343e-15 0)
(1 5.12496e-15 0)
(1 -2.32697e-15 0)
(1 -6.04553e-15 0)
(1 -4.41222e-15 0)
(1 5.06374e-15 0)
(1 2.43271e-15 0)
(1 2.58276e-15 0)
(1 -4.2115e-15 0)
(1 -2.44115e-15 0)
(1 -9.50813e-15 0)
(1 -5.35491e-15 0)
(1 2.99477e-15 0)
(1 5.37075e-15 0)
(1 5.09838e-15 0)
(1 5.14272e-15 0)
(1 2.65483e-15 0)
(1 -5.99796e-15 0)
(1 -3.73877e-16 0)
(1 -3.98356e-15 0)
(1 -2.29732e-15 0)
(1 4.42612e-15 0)
(1 1.61905e-14 0)
(1 8.34461e-15 0)
(1 1.10299e-14 0)
(1 -3.68602e-15 0)
(1 1.14659e-16 0)
(1 1.55832e-15 0)
(1 1.92548e-15 0)
(1 5.93901e-15 0)
(1 7.3178e-15 0)
(1 1.64359e-14 0)
(1 5.91402e-15 0)
(1 5.4128e-15 0)
(1 6.00858e-15 0)
(1 2.73236e-16 0)
(1 6.201e-15 0)
(1 -1.74982e-15 0)
(1 3.36716e-15 0)
(1 7.31964e-17 0)
(1 2.56933e-15 0)
(1 3.92554e-16 0)
(1 -2.56342e-15 0)
(1 -5.78743e-16 0)
(1 5.77246e-15 0)
(1 2.27127e-14 0)
(1 1.66881e-14 0)
(1 1.14118e-14 0)
(1 8.47561e-15 0)
(1 1.07389e-14 0)
(1 1.0824e-14 0)
(1 2.09515e-15 0)
(1 3.74189e-17 0)
(1 -1.07127e-15 0)
(1 5.9373e-15 0)
(1 5.35964e-15 0)
(1 9.61965e-15 0)
(1 4.60459e-15 0)
(1 6.03603e-16 0)
(1 -1.7166e-15 0)
(1 -1.83724e-15 0)
(1 1.084e-15 0)
(1 6.50595e-16 0)
(1 -4.69578e-15 0)
(1 -1.5166e-18 0)
(1 -1.00551e-15 0)
(1 -1.40916e-16 0)
(1 9.48527e-16 0)
(1 1.4683e-15 0)
(1 4.22761e-15 0)
(1 8.20973e-15 0)
(1 1.08208e-14 0)
(1 1.23004e-14 0)
(1 1.31655e-14 0)
(1 1.9236e-14 0)
(1 2.25976e-14 0)
(1 2.11889e-14 0)
(1 2.00973e-14 0)
(1 -7.86662e-17 0)
(1 2.81284e-16 0)
(1 6.04888e-15 0)
(1 1.3668e-15 0)
(1 -1.90225e-16 0)
(1 -7.92591e-15 0)
(1 4.29105e-15 0)
(1 -7.93998e-16 0)
(1 3.56085e-15 0)
(1 2.01969e-16 0)
(1 7.1617e-15 0)
(1 6.7988e-15 0)
(1 4.1404e-15 0)
(1 -2.62466e-15 0)
(1 -2.20077e-15 0)
(1 -1.51937e-15 0)
(1 -5.06547e-15 0)
(1 5.63532e-15 0)
(1 -3.253e-16 0)
(1 5.70216e-15 0)
(1 -8.37193e-15 0)
(1 -1.14901e-14 0)
(1 -6.39524e-15 0)
(1 1.12661e-14 0)
(1 5.7524e-15 0)
(1 6.07601e-15 0)
(1 1.9044e-15 0)
(1 6.33343e-15 0)
(1 -4.90168e-15 0)
(1 3.12048e-16 0)
(1 -5.78618e-15 0)
(1 5.71661e-15 0)
(1 -3.54128e-15 0)
(1 3.18619e-15 0)
(1 -6.16127e-15 0)
(1 -7.85695e-16 0)
(1 -5.65925e-15 0)
(1 5.35715e-15 0)
(1 -7.52933e-15 0)
(1 -2.67291e-15 0)
(1 1.05514e-15 0)
(1 6.26224e-15 0)
(1 5.28501e-15 0)
(1 1.44179e-15 0)
(1 1.52064e-15 0)
(1 -4.66811e-15 0)
(1 1.31869e-15 0)
(1 2.93927e-16 0)
(1 8.03062e-17 0)
(1 4.24347e-15 0)
(1 4.05726e-15 0)
(1 7.78954e-15 0)
(1 1.03091e-14 0)
(1 5.88422e-15 0)
(1 6.90062e-15 0)
(1 5.64032e-15 0)
(1 5.84892e-15 0)
(1 9.38586e-17 0)
(1 6.72964e-15 0)
(1 7.7445e-15 0)
(1 1.14998e-14 0)
(1 2.9137e-15 0)
(1 5.09761e-15 0)
(1 2.90735e-15 0)
(1 2.70638e-15 0)
(1 3.39801e-15 0)
(1 8.27261e-15 0)
(1 1.23035e-14 0)
(1 2.02693e-14 0)
(1 1.91591e-14 0)
(1 6.12836e-15 0)
(1 2.12878e-15 0)
(1 4.54882e-15 0)
(1 3.5773e-15 0)
(1 -2.84706e-15 0)
(1 1.55251e-15 0)
(1 8.83742e-15 0)
(1 7.88776e-15 0)
(1 9.1479e-15 0)
(1 3.14386e-15 0)
(1 3.51782e-15 0)
(1 -9.53884e-16 0)
(1 -3.8616e-15 0)
(1 -3.20174e-15 0)
(1 -1.2791e-15 0)
(1 4.46909e-15 0)
(1 4.79873e-15 0)
(1 5.70203e-15 0)
(1 3.40823e-15 0)
(1 2.30511e-15 0)
(1 4.98441e-15 0)
(1 4.03911e-15 0)
(1 8.21778e-15 0)
(1 1.39762e-14 0)
(1 1.53782e-14 0)
(1 6.63699e-15 0)
(1 1.81837e-14 0)
(1 1.69523e-14 0)
(1 2.8552e-14 0)
(1 2.35978e-14 0)
(1 -1.22928e-15 0)
(1 1.85301e-15 0)
(1 -1.1338e-15 0)
(1 2.73688e-16 0)
(1 -6.8896e-15 0)
(1 -3.90518e-15 0)
(1 -2.43511e-16 0)
(1 -5.6386e-15 0)
(1 3.09488e-15 0)
(1 6.30906e-15 0)
(1 6.84384e-15 0)
(1 1.90692e-15 0)
(1 7.10321e-16 0)
(1 -3.04514e-15 0)
(1 -1.0904e-15 0)
(1 -1.99447e-15 0)
(1 1.20669e-14 0)
(1 4.93468e-15 0)
(1 -8.86127e-16 0)
(1 -2.13899e-15 0)
(1 -3.9907e-15 0)
(1 -2.44323e-15 0)
(1 -2.29527e-15 0)
(1 -4.16695e-15 0)
(1 -8.41997e-16 0)
(1 8.66687e-15 0)
(1 7.48972e-15 0)
(1 -1.28207e-15 0)
(1 -6.47008e-15 0)
(1 -2.67266e-15 0)
(1 -8.19106e-15 0)
(1 2.52211e-15 0)
(1 8.44852e-16 0)
(1 7.78002e-15 0)
(1 -4.92381e-16 0)
(1 -3.34163e-15 0)
(1 -1.38949e-15 0)
(1 -1.56934e-15 0)
(1 -2.68871e-15 0)
(1 -1.78376e-15 0)
(1 -2.65183e-15 0)
(1 -2.67858e-16 0)
(1 6.39127e-15 0)
(1 -4.20703e-15 0)
(1 -1.32266e-15 0)
(1 -1.44009e-15 0)
(1 3.26966e-15 0)
(1 1.76475e-15 0)
(1 3.86519e-15 0)
(1 7.54749e-15 0)
(1 1.71703e-14 0)
(1 1.18445e-14 0)
(1 1.47236e-14 0)
(1 6.84655e-15 0)
(1 5.23673e-15 0)
(1 1.78957e-15 0)
(1 -7.75948e-16 0)
(1 8.21978e-16 0)
(1 5.17586e-17 0)
(1 1.2667e-15 0)
(1 8.06976e-15 0)
(1 8.29786e-15 0)
(1 1.0282e-14 0)
(1 8.91352e-15 0)
(1 5.09446e-15 0)
(1 3.48995e-15 0)
(1 7.20687e-15 0)
(1 -2.31637e-15 0)
(1 3.66319e-15 0)
(1 9.84117e-15 0)
(1 1.09832e-14 0)
(1 1.2849e-14 0)
(1 4.42351e-15 0)
(1 1.10782e-15 0)
(1 -4.43964e-16 0)
(1 5.40963e-15 0)
(1 9.32017e-15 0)
(1 4.00414e-15 0)
(1 9.18815e-15 0)
(1 1.17052e-14 0)
(1 8.37535e-15 0)
(1 3.61455e-15 0)
(1 3.349e-15 0)
(1 -3.90427e-15 0)
(1 1.42027e-15 0)
(1 1.37047e-16 0)
(1 9.53176e-16 0)
(1 1.23266e-15 0)
(1 4.41656e-15 0)
(1 3.56812e-15 0)
(1 6.64937e-15 0)
(1 -2.59146e-15 0)
(1 1.1967e-14 0)
(1 7.33661e-15 0)
(1 1.14745e-14 0)
(1 6.93899e-15 0)
(1 1.04394e-14 0)
(1 1.03717e-14 0)
(1 2.12064e-14 0)
(1 2.16279e-14 0)
(1 1.75753e-15 0)
(1 -2.92517e-15 0)
(1 -8.32564e-16 0)
(1 2.37316e-15 0)
(1 -2.8483e-15 0)
(1 3.56299e-15 0)
(1 -1.05187e-14 0)
(1 4.86082e-15 0)
(1 -3.66308e-16 0)
(1 7.65366e-15 0)
(1 6.33706e-15 0)
(1 1.70175e-15 0)
(1 5.21803e-15 0)
(1 5.26041e-15 0)
(1 2.86344e-15 0)
(1 -8.37691e-15 0)
(1 9.38744e-16 0)
(1 -9.64063e-15 0)
(1 1.29762e-15 0)
(1 -1.48529e-14 0)
(1 1.00499e-15 0)
(1 -1.36768e-15 0)
(1 1.16946e-14 0)
(1 6.72097e-15 0)
(1 8.25204e-15 0)
(1 7.98633e-15 0)
(1 2.5222e-15 0)
(1 -1.70433e-15 0)
(1 2.14462e-15 0)
(1 2.79463e-16 0)
(1 -2.62432e-15 0)
(1 -8.30522e-15 0)
(1 -1.03262e-15 0)
(1 -3.12695e-15 0)
(1 -6.31187e-16 0)
(1 -1.18895e-14 0)
(1 1.03469e-16 0)
(1 5.29799e-15 0)
(1 2.4487e-15 0)
(1 -1.15467e-15 0)
(1 -4.2252e-15 0)
(1 -5.8789e-17 0)
(1 5.77614e-15 0)
(1 2.61283e-15 0)
(1 -9.76562e-15 0)
(1 1.63808e-15 0)
(1 1.80351e-15 0)
(1 2.70215e-15 0)
(1 1.16985e-14 0)
(1 6.37562e-15 0)
(1 1.28607e-14 0)
(1 1.11051e-14 0)
(1 8.15918e-15 0)
(1 2.75216e-15 0)
(1 2.96718e-15 0)
(1 -2.94997e-15 0)
(1 -4.92821e-15 0)
(1 -2.85584e-15 0)
(1 2.4116e-15 0)
(1 8.29673e-16 0)
(1 1.68142e-14 0)
(1 1.75706e-14 0)
(1 1.45791e-14 0)
(1 3.21549e-15 0)
(1 1.09253e-14 0)
(1 5.99176e-15 0)
(1 2.96247e-16 0)
(1 1.73054e-15 0)
(1 -8.17315e-16 0)
(1 3.21599e-15 0)
(1 1.26893e-14 0)
(1 1.1546e-14 0)
(1 8.95188e-15 0)
(1 -8.76286e-16 0)
(1 -2.44326e-15 0)
(1 2.54447e-15 0)
(1 3.90232e-15 0)
(1 4.71528e-15 0)
(1 8.21774e-15 0)
(1 1.08388e-14 0)
(1 4.25032e-15 0)
(1 9.46921e-15 0)
(1 7.76876e-15 0)
(1 6.39858e-15 0)
(1 5.35885e-15 0)
(1 -5.1243e-15 0)
(1 5.31516e-16 0)
(1 -1.62409e-15 0)
(1 7.94228e-15 0)
(1 5.44278e-15 0)
(1 2.23168e-15 0)
(1 -8.91644e-17 0)
(1 1.21727e-14 0)
(1 7.10295e-15 0)
(1 8.69217e-15 0)
(1 1.54798e-14 0)
(1 1.7471e-14 0)
(1 1.40291e-14 0)
(1 5.95772e-15 0)
(1 1.32738e-14 0)
(1 2.76766e-15 0)
(1 7.89708e-16 0)
(1 -5.51904e-15 0)
(1 -3.27847e-15 0)
(1 1.34136e-15 0)
(1 -6.01672e-15 0)
(1 -4.5969e-15 0)
(1 1.92819e-15 0)
(1 -2.59076e-15 0)
(1 7.27526e-16 0)
(1 5.4845e-15 0)
(1 7.43446e-15 0)
(1 2.93972e-15 0)
(1 5.51807e-15 0)
(1 -3.36323e-15 0)
(1 -4.99384e-15 0)
(1 -3.44977e-15 0)
(1 6.25569e-15 0)
(1 1.1059e-14 0)
(1 8.29704e-15 0)
(1 5.17647e-15 0)
(1 -1.05228e-14 0)
(1 -3.42256e-15 0)
(1 -6.23135e-15 0)
(1 1.06019e-15 0)
(1 4.692e-15 0)
(1 -3.22474e-15 0)
(1 -9.43269e-16 0)
(1 2.11249e-15 0)
(1 -5.72814e-15 0)
(1 -1.5784e-15 0)
(1 -1.5036e-14 0)
(1 -4.78331e-15 0)
(1 -3.23233e-15 0)
(1 -1.81983e-15 0)
(1 -3.35038e-15 0)
(1 1.04699e-14 0)
(1 3.80212e-15 0)
(1 -3.23949e-17 0)
(1 1.13542e-15 0)
(1 2.13779e-16 0)
(1 2.36739e-15 0)
(1 -1.72978e-15 0)
(1 -1.99872e-15 0)
(1 -9.07034e-15 0)
(1 3.24546e-15 0)
(1 4.56028e-15 0)
(1 1.51503e-14 0)
(1 1.09936e-14 0)
(1 1.40925e-14 0)
(1 4.56776e-15 0)
(1 6.2108e-15 0)
(1 3.18643e-15 0)
(1 2.49343e-15 0)
(1 1.93119e-15 0)
(1 6.75293e-15 0)
(1 8.23763e-17 0)
(1 -8.6406e-16 0)
(1 -8.85822e-15 0)
(1 -3.7659e-15 0)
(1 -6.74284e-15 0)
(1 8.52367e-15 0)
(1 8.34088e-15 0)
(1 1.35279e-14 0)
(1 1.72525e-14 0)
(1 1.47029e-14 0)
(1 3.19354e-15 0)
(1 -3.33211e-15 0)
(1 2.66461e-15 0)
(1 9.5316e-16 0)
(1 1.04124e-15 0)
(1 -3.09957e-15 0)
(1 7.45872e-15 0)
(1 7.98381e-15 0)
(1 4.46661e-15 0)
(1 3.8116e-15 0)
(1 -1.81349e-15 0)
(1 5.67645e-15 0)
(1 -1.8334e-15 0)
(1 4.92622e-15 0)
(1 5.7822e-15 0)
(1 9.62176e-15 0)
(1 5.69695e-15 0)
(1 1.12885e-14 0)
(1 6.12392e-15 0)
(1 3.99026e-15 0)
(1 2.58526e-15 0)
(1 8.13612e-15 0)
(1 9.73879e-15 0)
(1 2.94339e-15 0)
(1 3.10529e-15 0)
(1 6.22335e-15 0)
(1 3.18444e-15 0)
(1 5.21341e-15 0)
(1 1.98832e-15 0)
(1 8.05171e-15 0)
(1 1.02863e-14 0)
(1 1.01887e-14 0)
(1 4.07996e-15 0)
(1 5.98155e-15 0)
(1 -1.03741e-16 0)
(1 3.88334e-15 0)
(1 -3.94259e-15 0)
(1 -5.788e-15 0)
(1 -1.99776e-15 0)
(1 -3.21648e-15 0)
(1 7.39633e-16 0)
(1 -1.76488e-15 0)
(1 4.9543e-15 0)
(1 3.11553e-15 0)
(1 8.85553e-15 0)
(1 5.1974e-15 0)
(1 -7.30006e-15 0)
(1 -3.09409e-16 0)
(1 -4.14074e-15 0)
(1 4.17775e-15 0)
(1 -1.21443e-15 0)
(1 8.71257e-15 0)
(1 -6.03439e-15 0)
(1 6.83393e-15 0)
(1 -9.98693e-15 0)
(1 3.33557e-15 0)
(1 -1.03006e-14 0)
(1 2.40433e-15 0)
(1 2.90079e-15 0)
(1 9.3555e-15 0)
(1 3.07201e-15 0)
(1 4.97473e-15 0)
(1 -6.49112e-16 0)
(1 -2.41312e-15 0)
(1 -7.10878e-15 0)
(1 -1.36685e-14 0)
(1 -5.86646e-15 0)
(1 -9.3001e-15 0)
(1 4.28647e-15 0)
(1 1.44934e-14 0)
(1 1.12488e-14 0)
(1 -7.8778e-16 0)
(1 -5.88603e-16 0)
(1 -1.0436e-14 0)
(1 -8.64725e-15 0)
(1 -3.22808e-15 0)
(1 1.55487e-15 0)
(1 1.74933e-15 0)
(1 8.36851e-15 0)
(1 8.17686e-15 0)
(1 9.04168e-15 0)
(1 9.55175e-15 0)
(1 -8.37457e-16 0)
(1 5.98362e-15 0)
(1 -9.75182e-15 0)
(1 -4.07421e-16 0)
(1 2.97381e-15 0)
(1 1.13294e-14 0)
(1 5.4317e-15 0)
(1 1.28496e-14 0)
(1 4.9921e-15 0)
(1 1.03308e-14 0)
(1 2.38101e-15 0)
(1 5.00035e-15 0)
(1 -9.03877e-15 0)
(1 -6.74341e-16 0)
(1 -8.85114e-16 0)
(1 1.22833e-14 0)
(1 -8.05183e-16 0)
(1 1.14362e-14 0)
(1 7.03602e-15 0)
(1 8.38644e-15 0)
(1 5.60266e-15 0)
(1 1.12077e-15 0)
(1 -3.45208e-15 0)
(1 6.8359e-15 0)
(1 7.70671e-16 0)
(1 1.51383e-14 0)
(1 1.19764e-14 0)
(1 5.63869e-15 0)
(1 3.43797e-15 0)
(1 1.06189e-14 0)
(1 3.9281e-15 0)
(1 7.5571e-15 0)
(1 8.94408e-15 0)
(1 -3.78261e-16 0)
(1 5.4574e-15 0)
(1 1.00744e-14 0)
(1 5.3949e-15 0)
(1 8.4229e-15 0)
(1 3.90287e-15 0)
(1 1.14965e-14 0)
(1 7.25815e-15 0)
(1 5.54795e-15 0)
(1 7.76979e-15 0)
(1 1.00513e-14 0)
(1 2.79799e-15 0)
(1 3.40453e-15 0)
(1 6.14423e-16 0)
(1 8.3275e-15 0)
(1 6.22138e-15 0)
(1 1.09205e-14 0)
(1 7.03094e-15 0)
(1 7.11976e-15 0)
(1 1.25345e-15 0)
(1 1.64832e-16 0)
(1 1.44175e-15 0)
(1 -3.74187e-15 0)
(1 -9.09981e-16 0)
(1 -2.84888e-15 0)
(1 -2.40511e-15 0)
(1 -6.65617e-15 0)
(1 -1.84535e-15 0)
(1 4.43128e-15 0)
(1 8.15559e-15 0)
(1 2.42042e-16 0)
(1 1.77417e-15 0)
(1 -3.82636e-15 0)
(1 4.08278e-15 0)
(1 -5.6927e-17 0)
(1 -1.27457e-15 0)
(1 -4.76741e-15 0)
(1 -8.65013e-15 0)
(1 5.11155e-15 0)
(1 -1.84147e-15 0)
(1 2.40066e-15 0)
(1 -1.055e-15 0)
(1 2.34357e-15 0)
(1 3.0028e-15 0)
(1 2.43193e-15 0)
(1 5.04366e-15 0)
(1 8.20803e-16 0)
(1 -2.95953e-15 0)
(1 -2.89919e-15 0)
(1 -2.41838e-15 0)
(1 -2.41224e-15 0)
(1 2.26327e-16 0)
(1 -2.30259e-16 0)
(1 -2.35581e-16 0)
(1 7.55384e-15 0)
(1 -8.1381e-16 0)
(1 1.44146e-15 0)
(1 -6.93919e-16 0)
(1 -1.00987e-14 0)
(1 -6.70045e-15 0)
(1 -1.34536e-15 0)
(1 -1.33621e-15 0)
(1 4.19854e-15 0)
(1 6.63193e-15 0)
(1 3.84456e-15 0)
(1 7.22877e-15 0)
(1 -7.30039e-16 0)
(1 -3.31125e-15 0)
(1 -1.49983e-15 0)
(1 6.68294e-16 0)
(1 5.81965e-15 0)
(1 9.0338e-15 0)
(1 1.30596e-14 0)
(1 1.34959e-14 0)
(1 6.55116e-15 0)
(1 6.51074e-15 0)
(1 7.97615e-15 0)
(1 6.46933e-16 0)
(1 3.04171e-15 0)
(1 6.72732e-15 0)
(1 4.34534e-15 0)
(1 7.11658e-15 0)
(1 4.20442e-15 0)
(1 9.13556e-15 0)
(1 2.5349e-15 0)
(1 7.292e-15 0)
(1 7.38785e-15 0)
(1 1.30636e-14 0)
(1 8.86669e-15 0)
(1 1.00773e-14 0)
(1 8.20728e-15 0)
(1 1.87016e-15 0)
(1 6.4848e-15 0)
(1 7.20327e-15 0)
(1 8.2611e-15 0)
(1 8.46845e-15 0)
(1 4.6669e-15 0)
(1 4.18528e-15 0)
(1 6.48216e-15 0)
(1 7.08537e-15 0)
(1 3.62643e-15 0)
(1 2.66994e-15 0)
(1 8.2671e-15 0)
(1 5.52776e-15 0)
(1 3.75508e-15 0)
(1 2.59169e-15 0)
(1 5.45882e-15 0)
(1 -1.20214e-16 0)
(1 4.88336e-15 0)
(1 4.34163e-15 0)
(1 4.70169e-15 0)
(1 9.73633e-15 0)
(1 3.86628e-15 0)
(1 8.32426e-15 0)
(1 4.7213e-15 0)
(1 5.87398e-15 0)
(1 1.25536e-14 0)
(1 1.1865e-14 0)
(1 1.09246e-14 0)
(1 -1.86535e-15 0)
(1 -5.42703e-15 0)
(1 -5.5885e-16 0)
(1 2.18362e-16 0)
(1 6.94301e-15 0)
(1 4.97617e-15 0)
(1 1.58757e-14 0)
(1 5.37098e-15 0)
(1 -4.60638e-15 0)
(1 -8.30531e-15 0)
(1 -9.95566e-15 0)
(1 -8.73553e-15 0)
(1 3.53329e-15 0)
(1 -3.67473e-15 0)
(1 -1.16653e-15 0)
(1 -7.89229e-15 0)
(1 -6.60439e-16 0)
(1 5.75331e-16 0)
(1 4.29795e-15 0)
(1 -8.47095e-15 0)
(1 1.34616e-15 0)
(1 -8.45583e-16 0)
(1 9.01751e-15 0)
(1 3.45016e-16 0)
(1 -1.57721e-16 0)
(1 -4.13352e-15 0)
(1 -1.63464e-15 0)
(1 -7.90594e-15 0)
(1 -9.40029e-15 0)
(1 -9.11957e-15 0)
(1 8.47589e-16 0)
(1 5.6336e-15 0)
(1 3.36998e-15 0)
(1 7.39229e-15 0)
(1 -5.12053e-15 0)
(1 4.62537e-15 0)
(1 -5.27269e-15 0)
(1 7.47323e-16 0)
(1 -2.41868e-17 0)
(1 1.02076e-15 0)
(1 9.26947e-16 0)
(1 -3.18996e-15 0)
(1 4.1925e-15 0)
(1 1.41219e-15 0)
(1 7.53813e-15 0)
(1 -9.71571e-16 0)
(1 -1.50666e-15 0)
(1 -1.42733e-15 0)
(1 -3.03828e-15 0)
(1 -1.39678e-15 0)
(1 1.26341e-14 0)
(1 1.0065e-14 0)
(1 9.51777e-15 0)
(1 6.91356e-15 0)
(1 9.87156e-15 0)
(1 -1.22007e-15 0)
(1 4.77176e-15 0)
(1 1.09727e-15 0)
(1 -1.46986e-15 0)
(1 -5.14178e-15 0)
(1 3.40243e-16 0)
(1 1.31036e-16 0)
(1 5.07377e-15 0)
(1 4.43853e-15 0)
(1 8.98684e-15 0)
(1 -5.68017e-15 0)
(1 -1.4691e-15 0)
(1 -4.17397e-15 0)
(1 6.27257e-15 0)
(1 4.36723e-15 0)
(1 1.01321e-14 0)
(1 7.45846e-15 0)
(1 6.6915e-15 0)
(1 6.57772e-15 0)
(1 7.02208e-15 0)
(1 1.12674e-14 0)
(1 7.01113e-15 0)
(1 3.06678e-15 0)
(1 2.16045e-15 0)
(1 6.73914e-15 0)
(1 2.25249e-15 0)
(1 1.2619e-14 0)
(1 4.64053e-15 0)
(1 1.10345e-14 0)
(1 1.1158e-14 0)
(1 9.89453e-15 0)
(1 4.05152e-15 0)
(1 1.57232e-15 0)
(1 -2.73214e-15 0)
(1 2.73986e-15 0)
(1 2.47211e-16 0)
(1 3.9495e-15 0)
(1 2.18107e-15 0)
(1 2.25349e-15 0)
(1 4.42926e-15 0)
(1 9.36245e-15 0)