/*--------------------------------*- C++ -*----------------------------------*\
| =========                 |                                                 |
| \\      /  F ield         | OpenFOAM: The Open Source CFD Toolbox           |
|  \\    /   O peration     | Version:  v2012                                 |
|   \\  /    A nd           | Website:  www.openfoam.com                      |
|    \\/     M anipulation  |                                                 |
\*---------------------------------------------------------------------------*/
FoamFile
{
    version     2.0;
    format      ascii;
    class       volScalarField;
    location    "0";
    object      pRec;
}
// * * * * * * * * * * * * * * * * * * * * * * * * * * * * * * * * * * * * * //

dimensions      [0 2 -2 0 0 0 0];


internalField   nonuniform List<scalar> 
4000
(
-6.85318e-13
-6.80765e-13
-6.8135e-13
-6.83322e-13
-6.82158e-13
-6.82522e-13
-6.8049e-13
-6.76191e-13
-6.68341e-13
-6.63483e-13
-6.63578e-13
-6.58738e-13
-6.51672e-13
-6.41379e-13
-6.28437e-13
-6.23063e-13
-6.1981e-13
-6.1736e-13
-6.10357e-13
-6.00067e-13
-5.90319e-13
-5.83267e-13
-5.77771e-13
-5.6842e-13
-5.58017e-13
-5.47448e-13
-5.432e-13
-5.38395e-13
-5.31938e-13
-5.20766e-13
-5.07458e-13
-4.99351e-13
-4.95196e-13
-4.90847e-13
-4.84331e-13
-4.78554e-13
-4.68172e-13
-4.5298e-13
-4.36975e-13
-4.31525e-13
-4.28967e-13
-4.25085e-13
-4.22849e-13
-4.16568e-13
-4.07665e-13
-3.98668e-13
-3.89177e-13
-3.79925e-13
-3.71516e-13
-3.63736e-13
-3.55477e-13
-3.48252e-13
-3.41174e-13
-3.3313e-13
-3.25599e-13
-3.14112e-13
-3.06298e-13
-3.04085e-13
-3.01248e-13
-2.97646e-13
-2.89505e-13
-2.82298e-13
-2.73178e-13
-2.62925e-13
-2.55551e-13
-2.48241e-13
-2.43234e-13
-2.34875e-13
-2.25139e-13
-2.18416e-13
-2.11068e-13
-2.0278e-13
-1.89865e-13
-1.82605e-13
-1.80464e-13
-1.76023e-13
-1.69446e-13
-1.62602e-13
-1.52886e-13
-1.3977e-13
-1.28112e-13
-1.22072e-13
-1.13771e-13
-1.08109e-13
-1.01655e-13
-9.52982e-14
-8.75345e-14
-8.02164e-14
-7.65514e-14
-7.19338e-14
-6.62497e-14
-5.92896e-14
-5.32655e-14
-4.89323e-14
-3.97632e-14
-3.10711e-14
-2.41576e-14
-1.62205e-14
-8.61699e-15
-1.9613e-15
-6.82627e-13
-6.81134e-13
-6.83341e-13
-6.83495e-13
-6.84402e-13
-6.81662e-13
-6.78637e-13
-6.76598e-13
-6.71454e-13
-6.65865e-13
-6.60723e-13
-6.56914e-13
-6.50363e-13
-6.4076e-13
-6.31209e-13
-6.25765e-13
-6.21632e-13
-6.16077e-13
-6.09173e-13
-6.02936e-13
-5.92259e-13
-5.81266e-13
-5.74836e-13
-5.66448e-13
-5.56221e-13
-5.49839e-13
-5.44933e-13
-5.39003e-13
-5.31125e-13
-5.18298e-13
-5.09241e-13
-5.0194e-13
-4.94962e-13
-4.88075e-13
-4.81886e-13
-4.75651e-13
-4.67247e-13
-4.5496e-13
-4.42326e-13
-4.34401e-13
-4.28923e-13
-4.25232e-13
-4.20616e-13
-4.15538e-13
-4.08213e-13
-3.98484e-13
-3.88299e-13
-3.79736e-13
-3.71173e-13
-3.61786e-13
-3.54683e-13
-3.47424e-13
-3.41668e-13
-3.34515e-13
-3.26824e-13
-3.16225e-13
-3.06049e-13
-3.02476e-13
-2.99745e-13
-2.9608e-13
-2.91278e-13
-2.82443e-13
-2.73532e-13
-2.64426e-13
-2.57353e-13
-2.48749e-13
-2.41222e-13
-2.3387e-13
-2.27095e-13
-2.19636e-13
-2.10916e-13
-2.02906e-13
-1.93673e-13
-1.85568e-13
-1.80329e-13
-1.72376e-13
-1.68473e-13
-1.60868e-13
-1.50268e-13
-1.38896e-13
-1.29219e-13
-1.23058e-13
-1.16913e-13
-1.09583e-13
-1.00558e-13
-9.38592e-14
-8.57723e-14
-7.85343e-14
-7.5355e-14
-7.0607e-14
-6.70563e-14
-6.16117e-14
-5.63644e-14
-4.69882e-14
-3.83639e-14
-3.14346e-14
-2.34844e-14
-1.63683e-14
-9.52692e-15
-3.53706e-15
-6.8189e-13
-6.81031e-13
-6.82969e-13
-6.85359e-13
-6.86075e-13
-6.82644e-13
-6.77611e-13
-6.75676e-13
-6.69492e-13
-6.65811e-13
-6.61789e-13
-6.56245e-13
-6.49671e-13
-6.42212e-13
-6.33084e-13
-6.26827e-13
-6.2036e-13
-6.14802e-13
-6.09894e-13
-6.01328e-13
-5.91745e-13
-5.83216e-13
-5.75395e-13
-5.67303e-13
-5.57755e-13
-5.52153e-13
-5.45818e-13
-5.37291e-13
-5.29029e-13
-5.17216e-13
-5.09478e-13
-5.01821e-13
-4.94281e-13
-4.89882e-13
-4.8403e-13
-4.76782e-13
-4.65943e-13
-4.55538e-13
-4.45075e-13
-4.34574e-13
-4.28265e-13
-4.2268e-13
-4.21088e-13
-4.16094e-13
-4.08409e-13
-3.98145e-13
-3.86505e-13
-3.77859e-13
-3.72669e-13
-3.66761e-13
-3.55725e-13
-3.48158e-13
-3.39632e-13
-3.31703e-13
-3.24729e-13
-3.16896e-13
-3.0684e-13
-3.04455e-13
-3.0314e-13
-2.978e-13
-2.89248e-13
-2.78712e-13
-2.71379e-13
-2.65464e-13
-2.59373e-13
-2.51442e-13
-2.43266e-13
-2.33481e-13
-2.2591e-13
-2.16731e-13
-2.08647e-13
-2.00859e-13
-1.91409e-13
-1.85226e-13
-1.79774e-13
-1.73629e-13
-1.68135e-13
-1.6068e-13
-1.50081e-13
-1.40134e-13
-1.33292e-13
-1.24613e-13
-1.13278e-13
-1.0673e-13
-1.00653e-13
-9.58695e-14
-8.94439e-14
-8.17151e-14
-7.5334e-14
-6.91581e-14
-6.49295e-14
-6.13529e-14
-5.49048e-14
-4.72798e-14
-3.81891e-14
-2.96734e-14
-2.43364e-14
-1.71053e-14
-1.22463e-14
-4.00243e-15
-6.82618e-13
-6.83376e-13
-6.83604e-13
-6.80695e-13
-6.84717e-13
-6.80346e-13
-6.77861e-13
-6.75992e-13
-6.73041e-13
-6.6741e-13
-6.60749e-13
-6.52714e-13
-6.4634e-13
-6.41788e-13
-6.3986e-13
-6.31283e-13
-6.19101e-13
-6.12635e-13
-6.08714e-13
-6.00637e-13
-5.91714e-13
-5.8432e-13
-5.75671e-13
-5.62818e-13
-5.54701e-13
-5.50476e-13
-5.45368e-13
-5.39482e-13
-5.29702e-13
-5.20389e-13
-5.12562e-13
-5.03304e-13
-4.95026e-13
-4.88388e-13
-4.80105e-13
-4.76425e-13
-4.66942e-13
-4.54818e-13
-4.46189e-13
-4.36372e-13
-4.30663e-13
-4.26312e-13
-4.20738e-13
-4.139e-13
-4.04602e-13
-3.95638e-13
-3.86746e-13
-3.80508e-13
-3.72411e-13
-3.61916e-13
-3.53107e-13
-3.47174e-13
-3.41094e-13
-3.35198e-13
-3.24332e-13
-3.17854e-13
-3.09046e-13
-3.0332e-13
-3.02154e-13
-2.9602e-13
-2.88126e-13
-2.80636e-13
-2.74726e-13
-2.67663e-13
-2.59362e-13
-2.50313e-13
-2.42532e-13
-2.3364e-13
-2.26223e-13
-2.18788e-13
-2.11673e-13
-2.03407e-13
-1.93878e-13
-1.86282e-13
-1.79466e-13
-1.72452e-13
-1.67659e-13
-1.60519e-13
-1.50023e-13
-1.40552e-13
-1.32794e-13
-1.24909e-13
-1.15134e-13
-1.06075e-13
-1.00038e-13
-9.46198e-14
-8.80389e-14
-8.07518e-14
-7.35129e-14
-6.95924e-14
-6.68654e-14
-6.23714e-14
-5.6111e-14
-4.59829e-14
-3.752e-14
-3.18237e-14
-2.57389e-14
-1.68434e-14
-1.02668e-14
-3.89475e-15
-6.82795e-13
-6.86425e-13
-6.83427e-13
-6.80393e-13
-6.7796e-13
-6.80546e-13
-6.80004e-13
-6.77811e-13
-6.72134e-13
-6.65419e-13
-6.58133e-13
-6.54165e-13
-6.45849e-13
-6.41193e-13
-6.39159e-13
-6.3321e-13
-6.24814e-13
-6.15889e-13
-6.06138e-13
-5.968e-13
-5.91603e-13
-5.83638e-13
-5.71277e-13
-5.62691e-13
-5.57997e-13
-5.51946e-13
-5.46283e-13
-5.38407e-13
-5.31809e-13
-5.22616e-13
-5.13082e-13
-5.039e-13
-4.94659e-13
-4.88488e-13
-4.81799e-13
-4.76299e-13
-4.65723e-13
-4.5495e-13
-4.4488e-13
-4.37115e-13
-4.31092e-13
-4.27675e-13
-4.20762e-13
-4.12694e-13
-4.03319e-13
-3.92643e-13
-3.85682e-13
-3.79586e-13
-3.7176e-13
-3.65219e-13
-3.56252e-13
-3.4866e-13
-3.40967e-13
-3.35097e-13
-3.24115e-13
-3.16736e-13
-3.10267e-13
-3.04591e-13
-3.01502e-13
-2.95442e-13
-2.88758e-13
-2.81006e-13
-2.73038e-13
-2.67222e-13
-2.61097e-13
-2.54171e-13
-2.46012e-13
-2.34529e-13
-2.261e-13
-2.16343e-13
-2.08744e-13
-2.01617e-13
-1.94311e-13
-1.86266e-13
-1.76803e-13
-1.70114e-13
-1.67066e-13
-1.60099e-13
-1.52234e-13
-1.42312e-13
-1.33943e-13
-1.26583e-13
-1.14518e-13
-1.05012e-13
-9.75297e-14
-9.21355e-14
-8.85823e-14
-8.29604e-14
-7.54111e-14
-7.06978e-14
-6.59087e-14
-6.19978e-14
-5.44813e-14
-4.84899e-14
-4.06674e-14
-3.19148e-14
-2.51833e-14
-1.86145e-14
-9.82246e-15
-1.55995e-15
-6.80038e-13
-6.87557e-13
-6.84394e-13
-6.77546e-13
-6.81555e-13
-6.83456e-13
-6.81171e-13
-6.77477e-13
-6.70334e-13
-6.59786e-13
-6.5654e-13
-6.53763e-13
-6.50081e-13
-6.41926e-13
-6.36324e-13
-6.34447e-13
-6.25618e-13
-6.17965e-13
-6.10758e-13
-5.99969e-13
-5.89223e-13
-5.78861e-13
-5.63809e-13
-5.59818e-13
-5.58633e-13
-5.54948e-13
-5.46711e-13
-5.38691e-13
-5.31344e-13
-5.24555e-13
-5.13621e-13
-5.04099e-13
-4.96125e-13
-4.9073e-13
-4.85552e-13
-4.75076e-13
-4.64252e-13
-4.55411e-13
-4.44664e-13
-4.39e-13
-4.32963e-13
-4.27981e-13
-4.19474e-13
-4.12667e-13
-4.03482e-13
-3.91954e-13
-3.8374e-13
-3.76938e-13
-3.71903e-13
-3.64983e-13
-3.5715e-13
-3.48297e-13
-3.40323e-13
-3.32924e-13
-3.23271e-13
-3.18e-13
-3.1231e-13
-3.05176e-13
-3.00593e-13
-2.95843e-13
-2.90955e-13
-2.82144e-13
-2.73517e-13
-2.6692e-13
-2.58521e-13
-2.52549e-13
-2.46299e-13
-2.35714e-13
-2.27163e-13
-2.1888e-13
-2.09812e-13
-2.0165e-13
-1.95571e-13
-1.87377e-13
-1.78258e-13
-1.72204e-13
-1.66293e-13
-1.57385e-13
-1.51833e-13
-1.43903e-13
-1.36267e-13
-1.25891e-13
-1.12704e-13
-1.03679e-13
-9.86855e-14
-9.38805e-14
-8.94143e-14
-8.14668e-14
-7.44543e-14
-6.99581e-14
-6.57838e-14
-6.22975e-14
-5.30432e-14
-4.71613e-14
-3.99065e-14
-3.37582e-14
-2.56156e-14
-1.81391e-14
-8.46251e-15
-8.25291e-16
-6.8394e-13
-6.84166e-13
-6.83893e-13
-6.81146e-13
-6.78755e-13
-6.81788e-13
-6.80365e-13
-6.75475e-13
-6.68381e-13
-6.60598e-13
-6.53759e-13
-6.53169e-13
-6.51616e-13
-6.43003e-13
-6.37514e-13
-6.33161e-13
-6.30135e-13
-6.22451e-13
-6.08192e-13
-5.93656e-13
-5.7995e-13
-5.74466e-13
-5.72333e-13
-5.68978e-13
-5.61776e-13
-5.54265e-13
-5.45444e-13
-5.37568e-13
-5.31908e-13
-5.26322e-13
-5.16012e-13
-5.03054e-13
-4.96312e-13
-4.87565e-13
-4.81218e-13
-4.73342e-13
-4.66006e-13
-4.59217e-13
-4.48514e-13
-4.37855e-13
-4.30137e-13
-4.23849e-13
-4.18445e-13
-4.13401e-13
-4.05765e-13
-3.95597e-13
-3.84877e-13
-3.75897e-13
-3.69187e-13
-3.65263e-13
-3.58052e-13
-3.51733e-13
-3.42722e-13
-3.33146e-13
-3.24829e-13
-3.18723e-13
-3.1155e-13
-3.01366e-13
-2.976e-13
-2.95742e-13
-2.95057e-13
-2.86629e-13
-2.75664e-13
-2.65164e-13
-2.56164e-13
-2.4927e-13
-2.41605e-13
-2.32467e-13
-2.24016e-13
-2.18759e-13
-2.16196e-13
-2.0634e-13
-1.96404e-13
-1.89897e-13
-1.80855e-13
-1.71078e-13
-1.62642e-13
-1.53965e-13
-1.48451e-13
-1.43045e-13
-1.35814e-13
-1.25617e-13
-1.16721e-13
-1.08145e-13
-1.00885e-13
-9.1898e-14
-8.7276e-14
-8.20928e-14
-7.55317e-14
-7.13539e-14
-6.52333e-14
-5.82478e-14
-5.28839e-14
-4.60307e-14
-3.90826e-14
-3.20409e-14
-2.54816e-14
-1.66747e-14
-8.91168e-15
-2.60807e-15
-6.82458e-13
-6.81414e-13
-6.80164e-13
-6.82429e-13
-6.83991e-13
-6.83375e-13
-6.79518e-13
-6.73661e-13
-6.66391e-13
-6.61112e-13
-6.57195e-13
-6.52594e-13
-6.48606e-13
-6.41097e-13
-6.37426e-13
-6.3389e-13
-6.30025e-13
-6.22737e-13
-6.04975e-13
-5.95929e-13
-5.90345e-13
-5.82513e-13
-5.71693e-13
-5.62879e-13
-5.59412e-13
-5.51789e-13
-5.4283e-13
-5.3712e-13
-5.30571e-13
-5.23682e-13
-5.16665e-13
-5.07453e-13
-5.00967e-13
-4.92953e-13
-4.82178e-13
-4.72966e-13
-4.64428e-13
-4.55522e-13
-4.47937e-13
-4.38345e-13
-4.30723e-13
-4.25508e-13
-4.18747e-13
-4.15874e-13
-4.09988e-13
-3.96248e-13
-3.815e-13
-3.69932e-13
-3.6856e-13
-3.66198e-13
-3.61433e-13
-3.54769e-13
-3.42991e-13
-3.33256e-13
-3.22735e-13
-3.16693e-13
-3.12223e-13
-3.06266e-13
-2.99262e-13
-2.94332e-13
-2.92141e-13
-2.84569e-13
-2.76686e-13
-2.68198e-13
-2.60204e-13
-2.51338e-13
-2.4297e-13
-2.3419e-13
-2.27651e-13
-2.20408e-13
-2.13019e-13
-2.06613e-13
-1.95063e-13
-1.83386e-13
-1.7667e-13
-1.70973e-13
-1.65568e-13
-1.5743e-13
-1.51867e-13
-1.45531e-13
-1.36728e-13
-1.25769e-13
-1.13965e-13
-1.03846e-13
-9.62551e-14
-9.18371e-14
-8.82326e-14
-8.33268e-14
-7.65701e-14
-7.01052e-14
-6.3272e-14
-5.75971e-14
-5.28159e-14
-4.73399e-14
-3.81064e-14
-3.07482e-14
-2.46932e-14
-1.79739e-14
-1.02016e-14
-1.46971e-15
-6.84134e-13
-6.84673e-13
-6.81194e-13
-6.77524e-13
-6.79547e-13
-6.81137e-13
-6.80522e-13
-6.73605e-13
-6.64294e-13
-6.62484e-13
-6.57956e-13
-6.50066e-13
-6.44138e-13
-6.41791e-13
-6.39847e-13
-6.36021e-13
-6.29976e-13
-6.2092e-13
-6.09023e-13
-5.97325e-13
-5.88598e-13
-5.80062e-13
-5.74425e-13
-5.68338e-13
-5.6054e-13
-5.50717e-13
-5.41741e-13
-5.36873e-13
-5.33353e-13
-5.24088e-13
-5.17561e-13
-5.08796e-13
-4.98505e-13
-4.87802e-13
-4.81991e-13
-4.74006e-13
-4.64214e-13
-4.55725e-13
-4.48491e-13
-4.41395e-13
-4.36024e-13
-4.28065e-13
-4.15924e-13
-4.09271e-13
-4.03922e-13
-3.96755e-13
-3.85399e-13
-3.7727e-13
-3.71222e-13
-3.64717e-13
-3.58596e-13
-3.51467e-13
-3.42415e-13
-3.343e-13
-3.26206e-13
-3.20678e-13
-3.13859e-13
-3.07003e-13
-3.00013e-13
-2.9578e-13
-2.89922e-13
-2.82446e-13
-2.75619e-13
-2.68001e-13
-2.58077e-13
-2.48556e-13
-2.42464e-13
-2.35322e-13
-2.27449e-13
-2.19923e-13
-2.11697e-13
-2.06985e-13
-1.98629e-13
-1.88798e-13
-1.77847e-13
-1.71189e-13
-1.6663e-13
-1.58664e-13
-1.52409e-13
-1.43887e-13
-1.36616e-13
-1.26488e-13
-1.14652e-13
-1.05314e-13
-9.82316e-14
-9.2116e-14
-8.85495e-14
-8.28141e-14
-7.6485e-14
-6.98493e-14
-6.25918e-14
-5.70947e-14
-5.01106e-14
-4.46244e-14
-3.75884e-14
-3.05108e-14
-2.3786e-14
-1.53044e-14
-7.45605e-15
5.45804e-16
-6.83406e-13
-6.82988e-13
-6.83704e-13
-6.80289e-13
-6.77922e-13
-6.78893e-13
-6.78688e-13
-6.75653e-13
-6.69407e-13
-6.5947e-13
-6.52987e-13
-6.47616e-13
-6.44838e-13
-6.43742e-13
-6.40649e-13
-6.34968e-13
-6.27117e-13
-6.2251e-13
-6.15551e-13
-6.01306e-13
-5.88519e-13
-5.76949e-13
-5.71385e-13
-5.65235e-13
-5.60875e-13
-5.54689e-13
-5.45876e-13
-5.39062e-13
-5.3237e-13
-5.24895e-13
-5.17393e-13
-5.08524e-13
-4.99021e-13
-4.87843e-13
-4.79843e-13
-4.72734e-13
-4.66622e-13
-4.56167e-13
-4.50188e-13
-4.42477e-13
-4.32704e-13
-4.23232e-13
-4.14917e-13
-4.0947e-13
-4.06136e-13
-4.00927e-13
-3.8926e-13
-3.78923e-13
-3.71516e-13
-3.63145e-13
-3.56695e-13
-3.5123e-13
-3.43674e-13
-3.35385e-13
-3.26707e-13
-3.19822e-13
-3.13748e-13
-3.067e-13
-3.00104e-13
-2.97138e-13
-2.92899e-13
-2.87517e-13
-2.81008e-13
-2.69034e-13
-2.55983e-13
-2.43112e-13
-2.35796e-13
-2.31178e-13
-2.26691e-13
-2.24713e-13
-2.18506e-13
-2.08437e-13
-2.00539e-13
-1.90267e-13
-1.78254e-13
-1.69438e-13
-1.64584e-13
-1.5749e-13
-1.52346e-13
-1.43188e-13
-1.35604e-13
-1.26846e-13
-1.16473e-13
-1.08307e-13
-9.87026e-14
-9.06753e-14
-8.63945e-14
-8.08744e-14
-7.56315e-14
-6.88752e-14
-6.13738e-14
-5.31489e-14
-4.69334e-14
-4.26117e-14
-3.46027e-14
-2.72293e-14
-2.01533e-14
-1.39992e-14
-5.7879e-15
9.9237e-17
-6.81824e-13
-6.81116e-13
-6.8022e-13
-6.81569e-13
-6.81873e-13
-6.771e-13
-6.75365e-13
-6.72493e-13
-6.67916e-13
-6.63673e-13
-6.5415e-13
-6.46717e-13
-6.45534e-13
-6.4628e-13
-6.41582e-13
-6.36936e-13
-6.26598e-13
-6.2038e-13
-6.14005e-13
-6.02244e-13
-5.91846e-13
-5.77951e-13
-5.68942e-13
-5.64219e-13
-5.59156e-13
-5.53449e-13
-5.47792e-13
-5.4066e-13
-5.33804e-13
-5.25817e-13
-5.16991e-13
-5.0772e-13
-4.98057e-13
-4.89065e-13
-4.83116e-13
-4.74835e-13
-4.6588e-13
-4.56305e-13
-4.50176e-13
-4.40704e-13
-4.33219e-13
-4.23472e-13
-4.16036e-13
-4.12147e-13
-4.07682e-13
-3.99626e-13
-3.87401e-13
-3.75788e-13
-3.69331e-13
-3.62311e-13
-3.58893e-13
-3.53367e-13
-3.43065e-13
-3.35083e-13
-3.26569e-13
-3.22972e-13
-3.16245e-13
-3.08985e-13
-3.00323e-13
-2.92437e-13
-2.89053e-13
-2.81313e-13
-2.76759e-13
-2.71279e-13
-2.58743e-13
-2.45915e-13
-2.37182e-13
-2.30459e-13
-2.27096e-13
-2.26902e-13
-2.18758e-13
-2.1069e-13
-2.01041e-13
-1.90091e-13
-1.76983e-13
-1.66581e-13
-1.64292e-13
-1.59631e-13
-1.54991e-13
-1.45995e-13
-1.3852e-13
-1.29699e-13
-1.16211e-13
-1.05723e-13
-9.52509e-14
-8.59078e-14
-8.64985e-14
-8.32412e-14
-7.53945e-14
-6.81303e-14
-5.93219e-14
-5.22491e-14
-4.62577e-14
-4.06e-14
-3.58752e-14
-2.93991e-14
-1.75853e-14
-7.15029e-15
4.87617e-16
-5.89621e-16
-6.8361e-13
-6.81979e-13
-6.80359e-13
-6.81135e-13
-6.80455e-13
-6.76106e-13
-6.76482e-13
-6.73393e-13
-6.67677e-13
-6.61933e-13
-6.5507e-13
-6.49019e-13
-6.42231e-13
-6.40167e-13
-6.38394e-13
-6.33564e-13
-6.29373e-13
-6.24572e-13
-6.15908e-13
-6.0302e-13
-5.91032e-13
-5.83517e-13
-5.74384e-13
-5.655e-13
-5.59469e-13
-5.49115e-13
-5.44842e-13
-5.4072e-13
-5.35132e-13
-5.27592e-13
-5.18615e-13
-5.08168e-13
-4.9702e-13
-4.86797e-13
-4.81157e-13
-4.73514e-13
-4.67193e-13
-4.58748e-13
-4.51989e-13
-4.40359e-13
-4.32054e-13
-4.21151e-13
-4.1581e-13
-4.13849e-13
-4.06668e-13
-3.99191e-13
-3.88356e-13
-3.78193e-13
-3.70266e-13
-3.61885e-13
-3.56398e-13
-3.5195e-13
-3.43695e-13
-3.37661e-13
-3.30452e-13
-3.22025e-13
-3.155e-13
-3.0813e-13
-2.99971e-13
-2.94066e-13
-2.9095e-13
-2.8965e-13
-2.80427e-13
-2.69199e-13
-2.53099e-13
-2.44246e-13
-2.37606e-13
-2.32758e-13
-2.26686e-13
-2.22702e-13
-2.16432e-13
-2.13449e-13
-2.06456e-13
-1.94014e-13
-1.76746e-13
-1.62397e-13
-1.58844e-13
-1.59828e-13
-1.55881e-13
-1.4608e-13
-1.37441e-13
-1.27795e-13
-1.17403e-13
-1.08414e-13
-9.81404e-14
-8.82265e-14
-8.1903e-14
-8.02257e-14
-7.41712e-14
-6.66486e-14
-5.74157e-14
-5.14347e-14
-4.57882e-14
-3.91286e-14
-3.23891e-14
-2.68759e-14
-1.63126e-14
-7.54753e-15
-1.50578e-15
-2.90567e-16
-6.81858e-13
-6.80922e-13
-6.74777e-13
-6.8193e-13
-6.81765e-13
-6.79466e-13
-6.73669e-13
-6.68441e-13
-6.64342e-13
-6.58324e-13
-6.54841e-13
-6.50902e-13
-6.49244e-13
-6.43987e-13
-6.3971e-13
-6.36238e-13
-6.31384e-13
-6.25091e-13
-6.16413e-13
-6.03131e-13
-5.87079e-13
-5.75064e-13
-5.68199e-13
-5.64807e-13
-5.58771e-13
-5.53199e-13
-5.4645e-13
-5.40472e-13
-5.35618e-13
-5.2987e-13
-5.20803e-13
-5.08408e-13
-4.98798e-13
-4.90571e-13
-4.84989e-13
-4.751e-13
-4.64869e-13
-4.58423e-13
-4.50715e-13
-4.40176e-13
-4.30248e-13
-4.2502e-13
-4.19076e-13
-4.12466e-13
-4.02986e-13
-3.935e-13
-3.86142e-13
-3.78325e-13
-3.71579e-13
-3.65053e-13
-3.5832e-13
-3.52611e-13
-3.4234e-13
-3.33752e-13
-3.33002e-13
-3.31342e-13
-3.18213e-13
-3.04695e-13
-2.95586e-13
-2.89217e-13
-2.86461e-13
-2.83101e-13
-2.81135e-13
-2.72239e-13
-2.57442e-13
-2.48849e-13
-2.36505e-13
-2.33466e-13
-2.2718e-13
-2.21389e-13
-2.15863e-13
-2.13478e-13
-2.06587e-13
-1.92908e-13
-1.78548e-13
-1.65683e-13
-1.60523e-13
-1.61162e-13
-1.52709e-13
-1.42772e-13
-1.36203e-13
-1.28477e-13
-1.19817e-13
-1.09266e-13
-9.90186e-14
-8.81249e-14
-8.12238e-14
-7.95184e-14
-7.2105e-14
-6.43802e-14
-5.71175e-14
-5.05644e-14
-4.34053e-14
-3.79023e-14
-3.28927e-14
-2.56221e-14
-1.6118e-14
-8.38743e-15
-6.07604e-16
7.32893e-16
-6.78728e-13
-6.8637e-13
-6.81448e-13
-6.77732e-13
-6.78434e-13
-6.77761e-13
-6.73495e-13
-6.72845e-13
-6.65284e-13
-6.54939e-13
-6.50748e-13
-6.50309e-13
-6.48026e-13
-6.45981e-13
-6.42248e-13
-6.34525e-13
-6.25343e-13
-6.19098e-13
-6.14055e-13
-6.04727e-13
-5.97105e-13
-5.8949e-13
-5.79953e-13
-5.65276e-13
-5.52639e-13
-5.45493e-13
-5.45806e-13
-5.41692e-13
-5.35891e-13
-5.3081e-13
-5.21326e-13
-5.10051e-13
-4.96514e-13
-4.85079e-13
-4.77929e-13
-4.72319e-13
-4.70263e-13
-4.63155e-13
-4.51079e-13
-4.43292e-13
-4.32066e-13
-4.22519e-13
-4.17929e-13
-4.10849e-13
-4.01865e-13
-3.93192e-13
-3.83871e-13
-3.78761e-13
-3.73624e-13
-3.66878e-13
-3.59239e-13
-3.50712e-13
-3.44131e-13
-3.37083e-13
-3.31831e-13
-3.25949e-13
-3.20356e-13
-3.11822e-13
-3.0377e-13
-2.93765e-13
-2.85613e-13
-2.79273e-13
-2.73938e-13
-2.68505e-13
-2.59314e-13
-2.51013e-13
-2.41541e-13
-2.34413e-13
-2.27791e-13
-2.22246e-13
-2.18096e-13
-2.10038e-13
-2.0215e-13
-1.93076e-13
-1.80635e-13
-1.70032e-13
-1.60531e-13
-1.56756e-13
-1.51778e-13
-1.43747e-13
-1.37461e-13
-1.26934e-13
-1.17988e-13
-1.07861e-13
-9.77064e-14
-8.87828e-14
-8.34669e-14
-7.78438e-14
-7.23734e-14
-6.40277e-14
-5.7287e-14
-5.2381e-14
-4.54608e-14
-3.74542e-14
-2.93716e-14
-2.14093e-14
-1.4935e-14
-9.63997e-15
-2.69043e-15
2.969e-16
-6.77559e-13
-6.81507e-13
-6.82282e-13
-6.78365e-13
-6.78318e-13
-6.79492e-13
-6.71276e-13
-6.62999e-13
-6.59451e-13
-6.57998e-13
-6.56197e-13
-6.53872e-13
-6.51123e-13
-6.47047e-13
-6.42537e-13
-6.35287e-13
-6.2931e-13
-6.25873e-13
-6.18057e-13
-6.04111e-13
-5.88479e-13
-5.75564e-13
-5.69091e-13
-5.61484e-13
-5.58821e-13
-5.55135e-13
-5.49088e-13
-5.40349e-13
-5.34147e-13
-5.30783e-13
-5.23471e-13
-5.12997e-13
-5.00421e-13
-4.85372e-13
-4.7533e-13
-4.72245e-13
-4.70771e-13
-4.64055e-13
-4.55546e-13
-4.44012e-13
-4.30969e-13
-4.20793e-13
-4.11948e-13
-4.07682e-13
-4.0214e-13
-3.94974e-13
-3.87529e-13
-3.7933e-13
-3.73454e-13
-3.72507e-13
-3.65218e-13
-3.50224e-13
-3.40773e-13
-3.3342e-13
-3.28061e-13
-3.24895e-13
-3.20571e-13
-3.11352e-13
-2.99949e-13
-2.92272e-13
-2.88051e-13
-2.83344e-13
-2.7698e-13
-2.6868e-13
-2.55914e-13
-2.4677e-13
-2.40179e-13
-2.36594e-13
-2.30273e-13
-2.22175e-13
-2.15865e-13
-2.10015e-13
-2.0227e-13
-1.91638e-13
-1.81226e-13
-1.67476e-13
-1.5876e-13
-1.56135e-13
-1.54177e-13
-1.48299e-13
-1.39953e-13
-1.29292e-13
-1.17336e-13
-1.05635e-13
-9.69173e-14
-8.88472e-14
-8.30997e-14
-7.63463e-14
-7.00224e-14
-6.30434e-14
-5.71228e-14
-5.13984e-14
-4.54267e-14
-3.73916e-14
-2.86506e-14
-1.96728e-14
-1.24091e-14
-6.98659e-15
-1.64476e-15
4.33467e-17
-6.76306e-13
-6.82602e-13
-6.82725e-13
-6.79762e-13
-6.77263e-13
-6.81022e-13
-6.78582e-13
-6.68011e-13
-6.53953e-13
-6.51767e-13
-6.51385e-13
-6.52706e-13
-6.51599e-13
-6.50101e-13
-6.44794e-13
-6.36157e-13
-6.27753e-13
-6.21818e-13
-6.11118e-13
-6.02535e-13
-5.95403e-13
-5.83178e-13
-5.72258e-13
-5.60599e-13
-5.58664e-13
-5.55493e-13
-5.51074e-13
-5.44145e-13
-5.35689e-13
-5.29623e-13
-5.20914e-13
-5.09638e-13
-4.99672e-13
-4.85559e-13
-4.73774e-13
-4.70734e-13
-4.69731e-13
-4.64617e-13
-4.55372e-13
-4.44973e-13
-4.2906e-13
-4.18859e-13
-4.1503e-13
-4.10121e-13
-4.02689e-13
-3.94468e-13
-3.89564e-13
-3.83108e-13
-3.74466e-13
-3.64466e-13
-3.58007e-13
-3.52152e-13
-3.44212e-13
-3.326e-13
-3.31822e-13
-3.27935e-13
-3.19313e-13
-3.13095e-13
-3.06228e-13
-2.94461e-13
-2.86919e-13
-2.81525e-13
-2.73168e-13
-2.66031e-13
-2.56278e-13
-2.48334e-13
-2.39118e-13
-2.34755e-13
-2.27409e-13
-2.24443e-13
-2.17763e-13
-2.12208e-13
-2.05177e-13
-1.92063e-13
-1.78661e-13
-1.67193e-13
-1.61207e-13
-1.55786e-13
-1.51375e-13
-1.45507e-13
-1.39189e-13
-1.30014e-13
-1.17867e-13
-1.05976e-13
-9.89826e-14
-9.02449e-14
-8.31296e-14
-7.68763e-14
-7.076e-14
-6.16149e-14
-5.48624e-14
-4.91623e-14
-4.21101e-14
-3.42708e-14
-2.79313e-14
-2.33072e-14
-1.16263e-14
-3.96848e-15
9.81085e-16
4.40411e-16
-6.81212e-13
-6.80824e-13
-6.77271e-13
-6.73888e-13
-6.76097e-13
-6.71793e-13
-6.69067e-13
-6.69763e-13
-6.67527e-13
-6.61771e-13
-6.58522e-13
-6.51954e-13
-6.4712e-13
-6.45971e-13
-6.43189e-13
-6.37891e-13
-6.30519e-13
-6.26516e-13
-6.16895e-13
-6.0243e-13
-5.85912e-13
-5.75736e-13
-5.69491e-13
-5.66818e-13
-5.59573e-13
-5.55666e-13
-5.51064e-13
-5.43372e-13
-5.36256e-13
-5.29058e-13
-5.21339e-13
-5.0917e-13
-4.97796e-13
-4.85691e-13
-4.76725e-13
-4.73274e-13
-4.72494e-13
-4.64618e-13
-4.53635e-13
-4.44063e-13
-4.3012e-13
-4.17942e-13
-4.1388e-13
-4.09704e-13
-4.05298e-13
-3.95064e-13
-3.85845e-13
-3.82213e-13
-3.77159e-13
-3.67083e-13
-3.57751e-13
-3.52466e-13
-3.46194e-13
-3.35333e-13
-3.28247e-13
-3.24287e-13
-3.17382e-13
-3.12264e-13
-3.07179e-13
-2.99115e-13
-2.88849e-13
-2.81991e-13
-2.73133e-13
-2.65983e-13
-2.58955e-13
-2.49519e-13
-2.3938e-13
-2.30238e-13
-2.25199e-13
-2.25296e-13
-2.16902e-13
-2.10911e-13
-2.04132e-13
-1.92653e-13
-1.81544e-13
-1.70177e-13
-1.5895e-13
-1.52232e-13
-1.51052e-13
-1.49113e-13
-1.42095e-13
-1.28459e-13
-1.16682e-13
-1.03802e-13
-9.8452e-14
-9.22327e-14
-8.52181e-14
-7.54569e-14
-6.70046e-14
-6.0686e-14
-5.46504e-14
-4.80186e-14
-4.30306e-14
-3.53512e-14
-2.74789e-14
-1.97301e-14
-1.2024e-14
-5.15861e-15
1.03245e-15
1.88892e-15
-6.80488e-13
-6.79878e-13
-6.77187e-13
-6.74929e-13
-6.80635e-13
-6.78483e-13
-6.69423e-13
-6.64027e-13
-6.60907e-13
-6.59201e-13
-6.58424e-13
-6.57897e-13
-6.48699e-13
-6.41822e-13
-6.39787e-13
-6.35577e-13
-6.32371e-13
-6.25487e-13
-6.15449e-13
-6.00931e-13
-5.88776e-13
-5.77224e-13
-5.68458e-13
-5.67129e-13
-5.65172e-13
-5.55905e-13
-5.48774e-13
-5.43526e-13
-5.39881e-13
-5.31372e-13
-5.23039e-13
-5.10051e-13
-4.97117e-13
-4.8496e-13
-4.74042e-13
-4.71787e-13
-4.68094e-13
-4.64377e-13
-4.573e-13
-4.46463e-13
-4.32349e-13
-4.22037e-13
-4.14506e-13
-4.05038e-13
-4.02818e-13
-3.9594e-13
-3.88886e-13
-3.79588e-13
-3.73233e-13
-3.67778e-13
-3.58711e-13
-3.5231e-13
-3.45723e-13
-3.36687e-13
-3.33323e-13
-3.27963e-13
-3.1654e-13
-3.07551e-13
-3.04637e-13
-2.97836e-13
-2.904e-13
-2.81454e-13
-2.75024e-13
-2.68419e-13
-2.59465e-13
-2.4791e-13
-2.40831e-13
-2.30911e-13
-2.22276e-13
-2.20631e-13
-2.16991e-13
-2.11772e-13
-2.05619e-13
-1.93225e-13
-1.81113e-13
-1.70158e-13
-1.60855e-13
-1.53731e-13
-1.52768e-13
-1.48227e-13
-1.40076e-13
-1.29103e-13
-1.17818e-13
-1.05278e-13
-9.71742e-14
-8.79975e-14
-8.14079e-14
-7.71615e-14
-7.07556e-14
-6.08051e-14
-5.38205e-14
-4.66337e-14
-4.03873e-14
-3.3462e-14
-2.60255e-14
-2.05027e-14
-1.33729e-14
-4.05604e-15
1.47787e-15
4.43015e-17
-6.76395e-13
-6.78555e-13
-6.78603e-13
-6.77279e-13
-6.76304e-13
-6.71701e-13
-6.6863e-13
-6.66182e-13
-6.65208e-13
-6.63232e-13
-6.59649e-13
-6.56562e-13
-6.51289e-13
-6.43961e-13
-6.3895e-13
-6.33219e-13
-6.3057e-13
-6.23921e-13
-6.13365e-13
-6.02965e-13
-5.89723e-13
-5.78227e-13
-5.72547e-13
-5.67423e-13
-5.59436e-13
-5.54544e-13
-5.51807e-13
-5.46776e-13
-5.39181e-13
-5.28613e-13
-5.19593e-13
-5.09148e-13
-4.96932e-13
-4.8603e-13
-4.76998e-13
-4.75833e-13
-4.73562e-13
-4.65127e-13
-4.53729e-13
-4.40414e-13
-4.30467e-13
-4.24745e-13
-4.15944e-13
-4.06067e-13
-4.00713e-13
-3.93145e-13
-3.90401e-13
-3.87866e-13
-3.77998e-13
-3.64947e-13
-3.56453e-13
-3.53362e-13
-3.46912e-13
-3.3625e-13
-3.31446e-13
-3.26558e-13
-3.19711e-13
-3.10735e-13
-3.03517e-13
-2.95963e-13
-2.92653e-13
-2.84443e-13
-2.75593e-13
-2.67677e-13
-2.5667e-13
-2.47627e-13
-2.39305e-13
-2.32295e-13
-2.23954e-13
-2.1888e-13
-2.13858e-13
-2.12494e-13
-2.06899e-13
-1.93759e-13
-1.81337e-13
-1.7033e-13
-1.6283e-13
-1.56541e-13
-1.49058e-13
-1.40756e-13
-1.41009e-13
-1.34266e-13
-1.188e-13
-1.06228e-13
-9.63903e-14
-8.60673e-14
-7.94903e-14
-7.61967e-14
-7.02717e-14
-6.09273e-14
-5.27831e-14
-4.75048e-14
-4.05804e-14
-3.25136e-14
-2.78316e-14
-1.90633e-14
-1.0603e-14
-2.99708e-15
2.14539e-15
-4.90277e-16
-6.81582e-13
-6.79495e-13
-6.77393e-13
-6.75252e-13
-6.7151e-13
-6.69905e-13
-6.67701e-13
-6.67706e-13
-6.66454e-13
-6.64191e-13
-6.58751e-13
-6.55666e-13
-6.51278e-13
-6.46168e-13
-6.4033e-13
-6.32403e-13
-6.24045e-13
-6.18341e-13
-6.13484e-13
-6.06696e-13
-5.92315e-13
-5.81505e-13
-5.73448e-13
-5.65958e-13
-5.60797e-13
-5.56266e-13
-5.52134e-13
-5.47874e-13
-5.37617e-13
-5.30441e-13
-5.20787e-13
-5.08579e-13
-4.95952e-13
-4.84191e-13
-4.79126e-13
-4.75834e-13
-4.7122e-13
-4.63798e-13
-4.53179e-13
-4.42329e-13
-4.31138e-13
-4.222e-13
-4.16568e-13
-4.09883e-13
-4.04025e-13
-3.97144e-13
-3.87977e-13
-3.80963e-13
-3.76642e-13
-3.68411e-13
-3.61928e-13
-3.53532e-13
-3.45207e-13
-3.37271e-13
-3.3089e-13
-3.23003e-13
-3.19162e-13
-3.12601e-13
-3.04249e-13
-2.96932e-13
-2.9329e-13
-2.86653e-13
-2.76345e-13
-2.66298e-13
-2.57639e-13
-2.48611e-13
-2.39084e-13
-2.31207e-13
-2.24359e-13
-2.1924e-13
-2.15757e-13
-2.13621e-13
-2.06049e-13
-1.91999e-13
-1.80689e-13
-1.70375e-13
-1.62347e-13
-1.55222e-13
-1.5099e-13
-1.4548e-13
-1.38086e-13
-1.29953e-13
-1.19231e-13
-1.08258e-13
-1.00282e-13
-8.74904e-14
-7.88963e-14
-7.35058e-14
-6.93689e-14
-5.85685e-14
-5.06991e-14
-4.69634e-14
-4.34727e-14
-3.32444e-14
-2.38385e-14
-1.80827e-14
-1.14711e-14
-1.58256e-15
7.47035e-16
-1.11459e-15
-6.83568e-13
-6.78671e-13
-6.73951e-13
-6.74166e-13
-6.68406e-13
-6.69309e-13
-6.67984e-13
-6.6896e-13
-6.69016e-13
-6.62444e-13
-6.58202e-13
-6.56665e-13
-6.5497e-13
-6.47929e-13
-6.4038e-13
-6.34719e-13
-6.27985e-13
-6.18511e-13
-6.11729e-13
-6.01129e-13
-5.9266e-13
-5.82253e-13
-5.71142e-13
-5.64322e-13
-5.59975e-13
-5.59343e-13
-5.52678e-13
-5.46629e-13
-5.37458e-13
-5.30063e-13
-5.21205e-13
-5.10455e-13
-4.96287e-13
-4.86111e-13
-4.77715e-13
-4.72989e-13
-4.70367e-13
-4.64268e-13
-4.53758e-13
-4.42419e-13
-4.34062e-13
-4.24375e-13
-4.15404e-13
-4.08596e-13
-4.025e-13
-3.95941e-13
-3.88733e-13
-3.8341e-13
-3.78361e-13
-3.69738e-13
-3.59671e-13
-3.50446e-13
-3.44953e-13
-3.39197e-13
-3.334e-13
-3.27396e-13
-3.20065e-13
-3.11517e-13
-3.061e-13
-3.00945e-13
-2.95131e-13
-2.85909e-13
-2.73496e-13
-2.65011e-13
-2.56486e-13
-2.47759e-13
-2.38118e-13
-2.32159e-13
-2.24663e-13
-2.22201e-13
-2.16988e-13
-2.10514e-13
-2.01119e-13
-1.90445e-13
-1.79803e-13
-1.69085e-13
-1.65456e-13
-1.61096e-13
-1.5183e-13
-1.42832e-13
-1.3565e-13
-1.28159e-13
-1.18427e-13
-1.07356e-13
-9.63342e-14
-8.47483e-14
-7.97619e-14
-7.52712e-14
-6.8189e-14
-6.27303e-14
-5.67148e-14
-4.64776e-14
-3.83877e-14
-3.17858e-14
-2.36712e-14
-1.58259e-14
-9.35403e-15
-5.47609e-15
-2.33621e-15
-1.70156e-15
-6.81583e-13
-6.77277e-13
-6.75416e-13
-6.73365e-13
-6.71555e-13
-6.69005e-13
-6.656e-13
-6.68234e-13
-6.68564e-13
-6.65439e-13
-6.60286e-13
-6.55712e-13
-6.5456e-13
-6.46901e-13
-6.38007e-13
-6.30011e-13
-6.23097e-13
-6.18843e-13
-6.12668e-13
-6.03662e-13
-5.93995e-13
-5.83793e-13
-5.73588e-13
-5.67466e-13
-5.63868e-13
-5.57525e-13
-5.50517e-13
-5.42246e-13
-5.34481e-13
-5.29821e-13
-5.21383e-13
-5.1444e-13
-5.03303e-13
-4.91865e-13
-4.76782e-13
-4.70418e-13
-4.67068e-13
-4.61574e-13
-4.52434e-13
-4.42275e-13
-4.35616e-13
-4.24888e-13
-4.1761e-13
-4.07586e-13
-4.02993e-13
-3.967e-13
-3.92001e-13
-3.84496e-13
-3.75308e-13
-3.64277e-13
-3.58667e-13
-3.553e-13
-3.47942e-13
-3.36449e-13
-3.29843e-13
-3.2362e-13
-3.1647e-13
-3.14412e-13
-3.07298e-13
-3.041e-13
-3.02178e-13
-2.83996e-13
-2.7221e-13
-2.66597e-13
-2.59225e-13
-2.49475e-13
-2.40157e-13
-2.33512e-13
-2.22916e-13
-2.1789e-13
-2.13915e-13
-2.12735e-13
-2.04868e-13
-1.92609e-13
-1.77859e-13
-1.66096e-13
-1.64737e-13
-1.59966e-13
-1.51467e-13
-1.4525e-13
-1.3743e-13
-1.28512e-13
-1.16914e-13
-1.0632e-13
-9.74031e-14
-8.6244e-14
-7.90263e-14
-7.50364e-14
-6.88192e-14
-5.89369e-14
-5.21193e-14
-4.62417e-14
-3.86025e-14
-3.16203e-14
-2.63677e-14
-2.04823e-14
-9.58438e-15
-3.13323e-15
1.55082e-15
-4.02481e-16
-6.77056e-13
-6.78889e-13
-6.78685e-13
-6.7327e-13
-6.69403e-13
-6.69911e-13
-6.68814e-13
-6.65392e-13
-6.66986e-13
-6.64567e-13
-6.61951e-13
-6.58871e-13
-6.53253e-13
-6.458e-13
-6.38846e-13
-6.32993e-13
-6.29294e-13
-6.24332e-13
-6.14686e-13
-6.02136e-13
-5.87606e-13
-5.75787e-13
-5.71018e-13
-5.69744e-13
-5.65252e-13
-5.5701e-13
-5.48076e-13
-5.42555e-13
-5.34491e-13
-5.30797e-13
-5.24635e-13
-5.12349e-13
-4.99671e-13
-4.90513e-13
-4.81916e-13
-4.75352e-13
-4.68831e-13
-4.60515e-13
-4.52587e-13
-4.43987e-13
-4.33602e-13
-4.24143e-13
-4.14529e-13
-4.09295e-13
-4.07131e-13
-3.98449e-13
-3.8999e-13
-3.79639e-13
-3.76596e-13
-3.6969e-13
-3.58865e-13
-3.5406e-13
-3.47168e-13
-3.38928e-13
-3.32775e-13
-3.21437e-13
-3.11645e-13
-3.13089e-13
-3.14024e-13
-3.05469e-13
-2.9595e-13
-2.85953e-13
-2.75365e-13