/*--------------------------------*- C++ -*----------------------------------*\
| =========                 |                                                 |
| \\      /  F ield         | OpenFOAM: The Open Source CFD Toolbox           |
|  \\    /   O peration     | Version:  v2012                                 |
|   \\  /    A nd           | Website:  www.openfoam.com                      |
|    \\/     M anipulation  |                                                 |
\*---------------------------------------------------------------------------*/
FoamFile
{
    version     2.0;
    format      ascii;
    class       volVectorField;
    location    "0";
    object      uRec;
}
// * * * * * * * * * * * * * * * * * * * * * * * * * * * * * * * * * * * * * //

dimensions      [0 1 -1 0 0 0 0];


internalField   nonuniform List<vector> 
4000
(
(1 3.53764e-15 0)
(1 1.83463e-15 0)
(1 -1.72956e-15 0)
(1 -2.39555e-15 0)
(1 -1.34527e-15 0)
(1 -1.74279e-15 0)
(1 2.19708e-15 0)
(1 4.13525e-15 0)
(1 5.70191e-15 0)
(1 -3.89538e-15 0)
(1 -6.55478e-15 0)
(1 -6.44735e-16 0)
(1 4.16758e-15 0)
(1 2.30377e-15 0)
(1 -2.4805e-15 0)
(1 1.91783e-16 0)
(1 -1.87205e-16 0)
(1 -1.81553e-15 0)
(1 1.48156e-15 0)
(1 1.504e-15 0)
(1 1.95428e-15 0)
(1 -1.38875e-15 0)
(1 -3.81698e-15 0)
(1 -1.8209e-15 0)
(1 -2.48434e-15 0)
(1 -9.7963e-16 0)
(1 -1.93577e-15 0)
(1 -4.16404e-16 0)
(1 -3.60378e-16 0)
(1 3.01304e-15 0)
(1 2.73872e-15 0)
(1 1.7891e-15 0)
(1 -2.82075e-16 0)
(1 -9.05433e-16 0)
(1 -1.04847e-15 0)
(1 4.60138e-16 0)
(1 1.83045e-15 0)
(1 4.07433e-15 0)
(1 4.40667e-16 0)
(1 -3.6765e-15 0)
(1 -3.50306e-15 0)
(1 -4.64468e-15 0)
(1 -2.42558e-15 0)
(1 3.5969e-15 0)
(1 3.13797e-15 0)
(1 -1.16429e-15 0)
(1 -1.58562e-16 0)
(1 1.70966e-16 0)
(1 4.20327e-16 0)
(1 4.42698e-16 0)
(1 2.03192e-15 0)
(1 1.12344e-15 0)
(1 3.30838e-15 0)
(1 2.85103e-15 0)
(1 5.10122e-15 0)
(1 3.35071e-15 0)
(1 -2.29115e-16 0)
(1 -1.21126e-15 0)
(1 -2.53131e-15 0)
(1 3.87246e-16 0)
(1 -2.03943e-15 0)
(1 -5.8581e-17 0)
(1 -9.51871e-16 0)
(1 -1.70065e-16 0)
(1 -2.43458e-15 0)
(1 9.83353e-16 0)
(1 -9.97739e-16 0)
(1 2.99087e-15 0)
(1 -9.17694e-17 0)
(1 -1.58274e-15 0)
(1 -1.95165e-15 0)
(1 -5.79111e-17 0)
(1 -3.93849e-15 0)
(1 -1.79681e-15 0)
(1 -3.01911e-15 0)
(1 -2.79164e-15 0)
(1 -1.91788e-15 0)
(1 -2.59756e-15 0)
(1 -9.3573e-16 0)
(1 6.71087e-16 0)
(1 7.22019e-16 0)
(1 2.35703e-15 0)
(1 -2.07865e-15 0)
(1 -2.02286e-15 0)
(1 -3.05954e-15 0)
(1 1.72642e-16 0)
(1 4.26435e-15 0)
(1 2.60323e-15 0)
(1 -1.50152e-16 0)
(1 4.54179e-15 0)
(1 1.51028e-15 0)
(1 2.34881e-15 0)
(1 2.67475e-16 0)
(1 6.38005e-16 0)
(1 -1.18034e-15 0)
(1 1.71122e-15 0)
(1 1.01841e-15 0)
(1 -3.51509e-16 0)
(1 -2.47643e-15 0)
(1 -2.72275e-15 0)
(1 2.46412e-15 0)
(1 3.52865e-15 0)
(1 -1.39306e-15 0)
(1 -2.01928e-15 0)
(1 -2.02603e-15 0)
(1 -7.79905e-16 0)
(1 2.04921e-15 0)
(1 4.31927e-15 0)
(1 6.44243e-15 0)
(1 -6.2049e-16 0)
(1 -4.60775e-15 0)
(1 -2.75906e-15 0)
(1 8.88276e-16 0)
(1 -1.26644e-15 0)
(1 -1.57828e-15 0)
(1 4.20761e-15 0)
(1 3.03528e-15 0)
(1 -1.57615e-15 0)
(1 8.29537e-16 0)
(1 1.62379e-15 0)
(1 3.16301e-15 0)
(1 -1.68772e-15 0)
(1 -2.28059e-15 0)
(1 -1.68653e-15 0)
(1 -4.78792e-15 0)
(1 -3.65681e-15 0)
(1 -2.82056e-15 0)
(1 -2.48618e-15 0)
(1 -6.79672e-16 0)
(1 2.54091e-15 0)
(1 7.58591e-17 0)
(1 2.31208e-15 0)
(1 -2.25104e-15 0)
(1 1.06037e-16 0)
(1 6.857e-16 0)
(1 1.81974e-15 0)
(1 2.82912e-15 0)
(1 5.81252e-15 0)
(1 -4.41838e-15 0)
(1 -6.83313e-15 0)
(1 -7.91278e-15 0)
(1 -4.57834e-15 0)
(1 -1.79754e-15 0)
(1 5.83611e-15 0)
(1 3.07571e-15 0)
(1 -3.06736e-16 0)
(1 -1.32603e-15 0)
(1 3.64452e-16 0)
(1 1.17438e-15 0)
(1 2.91928e-15 0)
(1 1.46322e-15 0)
(1 3.79685e-16 0)
(1 1.99948e-15 0)
(1 -4.83394e-18 0)
(1 2.42834e-15 0)
(1 4.95805e-16 0)
(1 -1.70012e-15 0)
(1 9.15864e-16 0)
(1 -1.5653e-15 0)
(1 -3.48342e-15 0)
(1 -6.77349e-16 0)
(1 5.72732e-16 0)
(1 2.99707e-15 0)
(1 1.85079e-15 0)
(1 -1.50656e-15 0)
(1 9.98471e-16 0)
(1 -2.48944e-15 0)
(1 1.06632e-15 0)
(1 8.50721e-16 0)
(1 -1.84613e-15 0)
(1 -4.44618e-16 0)
(1 -5.23686e-16 0)
(1 2.25378e-15 0)
(1 9.79078e-16 0)
(1 2.14278e-15 0)
(1 -1.28175e-15 0)
(1 -7.92794e-16 0)
(1 -7.51237e-16 0)
(1 5.11553e-16 0)
(1 4.33053e-15 0)
(1 9.54146e-16 0)
(1 1.02295e-15 0)
(1 -2.81854e-15 0)
(1 -2.94994e-15 0)
(1 -3.85612e-15 0)
(1 9.54198e-16 0)
(1 7.8669e-16 0)
(1 2.4412e-15 0)
(1 -2.22827e-15 0)
(1 3.48852e-15 0)
(1 1.24153e-16 0)
(1 2.25573e-16 0)
(1 8.10895e-16 0)
(1 2.41963e-15 0)
(1 -2.65317e-15 0)
(1 3.24613e-15 0)
(1 1.10404e-15 0)
(1 2.43145e-16 0)
(1 -3.84244e-15 0)
(1 -5.2578e-15 0)
(1 -3.1932e-15 0)
(1 4.32736e-15 0)
(1 -4.72228e-15 0)
(1 2.14092e-15 0)
(1 -5.59639e-15 0)
(1 1.21446e-15 0)
(1 7.21706e-16 0)
(1 5.5692e-15 0)
(1 2.64456e-15 0)
(1 1.0708e-15 0)
(1 -8.32562e-16 0)
(1 1.86739e-15 0)
(1 2.56098e-15 0)
(1 1.76638e-15 0)
(1 1.26136e-17 0)
(1 -1.44184e-15 0)
(1 -2.60263e-16 0)
(1 6.65112e-16 0)
(1 -3.66235e-16 0)
(1 2.01696e-15 0)
(1 7.63921e-16 0)
(1 -1.4751e-15 0)
(1 9.39941e-16 0)
(1 1.83848e-16 0)
(1 7.97528e-16 0)
(1 -1.8925e-15 0)
(1 -8.85109e-17 0)
(1 -3.50153e-15 0)
(1 1.55032e-15 0)
(1 1.10725e-15 0)
(1 1.10668e-16 0)
(1 -2.40428e-15 0)
(1 -1.469e-15 0)
(1 1.83952e-15 0)
(1 1.65715e-15 0)
(1 3.98804e-15 0)
(1 -8.98094e-16 0)
(1 3.40951e-15 0)
(1 2.31138e-16 0)
(1 -5.085e-15 0)
(1 -4.69979e-15 0)
(1 -4.09291e-15 0)
(1 -5.48541e-16 0)
(1 -1.03077e-15 0)
(1 9.02779e-16 0)
(1 2.17005e-15 0)
(1 4.57316e-15 0)
(1 3.38168e-15 0)
(1 1.30619e-15 0)
(1 -3.4415e-16 0)
(1 2.86493e-15 0)
(1 1.60084e-15 0)
(1 2.56341e-15 0)
(1 -1.07413e-15 0)
(1 -8.08537e-16 0)
(1 6.21327e-16 0)
(1 1.50666e-15 0)
(1 4.25638e-15 0)
(1 2.77058e-15 0)
(1 -2.83337e-15 0)
(1 -2.92553e-15 0)
(1 -2.07612e-15 0)
(1 2.07597e-15 0)
(1 -6.96858e-17 0)
(1 -5.59658e-16 0)
(1 -3.32626e-16 0)
(1 3.24032e-16 0)
(1 -1.95501e-16 0)
(1 2.03526e-15 0)
(1 -3.84326e-16 0)
(1 -5.74199e-16 0)
(1 -3.69074e-15 0)
(1 -9.27713e-16 0)
(1 -2.93704e-15 0)
(1 -2.61844e-16 0)
(1 -3.18578e-15 0)
(1 -1.64498e-15 0)
(1 -3.02928e-15 0)
(1 1.54617e-15 0)
(1 -8.34284e-16 0)
(1 4.58068e-16 0)
(1 -1.57089e-15 0)
(1 -4.38405e-16 0)
(1 -1.52774e-15 0)
(1 -1.14088e-15 0)
(1 1.90636e-15 0)
(1 -1.79316e-15 0)
(1 2.76528e-15 0)
(1 -1.9027e-15 0)
(1 1.36202e-15 0)
(1 -1.50977e-15 0)
(1 1.09669e-15 0)
(1 -2.69141e-16 0)
(1 3.5339e-15 0)
(1 3.44442e-17 0)
(1 2.06668e-15 0)
(1 -1.03004e-16 0)
(1 -1.16156e-15 0)
(1 -2.84493e-15 0)
(1 -4.09696e-15 0)
(1 -2.84233e-16 0)
(1 -2.79527e-15 0)
(1 -4.31139e-15 0)
(1 -5.90438e-15 0)
(1 1.23493e-15 0)
(1 2.39123e-15 0)
(1 5.33738e-15 0)
(1 5.96999e-15 0)
(1 3.14822e-15 0)
(1 -1.14524e-15 0)
(1 -2.85556e-15 0)
(1 5.83554e-16 0)
(1 3.40146e-16 0)
(1 7.95481e-15 0)
(1 5.36169e-15 0)
(1 -2.214e-15 0)
(1 -1.17051e-15 0)
(1 -5.20463e-16 0)
(1 -2.56148e-16 0)
(1 3.30048e-15 0)
(1 2.32299e-15 0)
(1 1.71145e-15 0)
(1 2.56091e-16 0)
(1 2.78137e-15 0)
(1 7.78725e-15 0)
(1 4.01477e-15 0)
(1 2.70656e-15 0)
(1 -3.44388e-15 0)
(1 1.71574e-15 0)
(1 -2.09582e-15 0)
(1 1.96619e-16 0)
(1 -5.85613e-15 0)
(1 -3.24524e-15 0)
(1 -4.83777e-15 0)
(1 -1.52935e-15 0)
(1 -9.91123e-16 0)
(1 8.82346e-17 0)
(1 -1.59038e-15 0)
(1 4.60557e-15 0)
(1 -3.3263e-15 0)
(1 3.01768e-15 0)
(1 -2.6047e-15 0)
(1 -1.52372e-15 0)
(1 -3.48502e-15 0)
(1 2.46004e-15 0)
(1 4.51328e-15 0)
(1 5.43361e-15 0)
(1 4.41386e-15 0)
(1 2.70468e-15 0)
(1 -1.49537e-15 0)
(1 4.77406e-15 0)
(1 3.73128e-15 0)
(1 3.35826e-15 0)
(1 2.6402e-15 0)
(1 1.13617e-15 0)
(1 1.40706e-15 0)
(1 1.55905e-15 0)
(1 1.93611e-15 0)
(1 3.03073e-15 0)
(1 5.46116e-16 0)
(1 -6.1929e-16 0)
(1 -4.15584e-15 0)
(1 -1.6602e-15 0)
(1 -6.28686e-16 0)
(1 1.12643e-15 0)
(1 1.38229e-15 0)
(1 9.12474e-16 0)
(1 -6.25474e-16 0)
(1 -1.6644e-15 0)
(1 -4.75864e-15 0)
(1 -3.73569e-15 0)
(1 -6.25601e-15 0)
(1 -5.12197e-15 0)
(1 -6.3153e-15 0)
(1 -4.46533e-15 0)
(1 5.71331e-16 0)
(1 2.45715e-15 0)
(1 4.81727e-16 0)
(1 1.35135e-15 0)
(1 -9.7785e-16 0)
(1 -2.58034e-15 0)
(1 -2.10543e-16 0)
(1 -1.94969e-15 0)
(1 -2.35438e-15 0)
(1 2.00783e-17 0)
(1 1.44821e-15 0)
(1 6.19365e-15 0)
(1 3.49516e-15 0)
(1 2.88384e-15 0)
(1 2.74228e-15 0)
(1 5.79455e-17 0)
(1 3.04482e-15 0)
(1 6.66231e-16 0)
(1 3.02067e-15 0)
(1 -5.72826e-17 0)
(1 -1.30086e-15 0)
(1 -2.49321e-15 0)
(1 -3.7101e-15 0)
(1 -6.04247e-15 0)
(1 -3.58437e-15 0)
(1 2.99046e-15 0)
(1 -2.67083e-15 0)
(1 3.91175e-15 0)
(1 -4.35721e-15 0)
(1 6.29983e-15 0)
(1 3.38343e-16 0)
(1 -2.00844e-15 0)
(1 -4.19879e-15 0)
(1 -1.83139e-15 0)
(1 -7.94052e-18 0)
(1 4.76087e-15 0)
(1 3.56988e-15 0)
(1 1.5196e-15 0)
(1 -5.10248e-16 0)
(1 4.87208e-15 0)
(1 1.2412e-15 0)
(1 3.04527e-15 0)
(1 -2.14683e-15 0)
(1 -3.5884e-15 0)
(1 -2.7602e-15 0)
(1 9.41045e-16 0)
(1 1.74054e-15 0)
(1 3.0968e-15 0)
(1 2.02433e-15 0)
(1 2.16073e-15 0)
(1 1.92977e-16 0)
(1 -2.11096e-15 0)
(1 1.34513e-15 0)
(1 1.71943e-15 0)
(1 2.66394e-16 0)
(1 -8.01178e-16 0)
(1 1.10599e-16 0)
(1 -3.72904e-15 0)
(1 2.68907e-15 0)
(1 -3.06509e-15 0)
(1 -4.81717e-15 0)
(1 -1.45857e-15 0)
(1 -4.96056e-15 0)
(1 -7.08633e-16 0)
(1 -7.76216e-16 0)
(1 2.24167e-15 0)
(1 -2.61526e-15 0)
(1 -4.21902e-15 0)
(1 -3.90784e-15 0)
(1 -3.44602e-15 0)
(1 2.46315e-15 0)
(1 1.98303e-16 0)
(1 7.79898e-15 0)
(1 5.62175e-15 0)
(1 4.62278e-15 0)
(1 2.07009e-15 0)
(1 7.70379e-17 0)
(1 -9.67233e-16 0)
(1 8.37188e-16 0)
(1 5.54257e-16 0)
(1 -1.4902e-15 0)
(1 1.30434e-15 0)
(1 2.18673e-16 0)
(1 2.02481e-15 0)
(1 3.3776e-15 0)
(1 5.35518e-15 0)
(1 9.8938e-16 0)
(1 1.39227e-15 0)
(1 1.12734e-15 0)
(1 5.87876e-15 0)
(1 4.33523e-15 0)
(1 3.99849e-15 0)
(1 -6.34263e-16 0)
(1 -2.95543e-15 0)
(1 -2.35227e-15 0)
(1 -4.60024e-15 0)
(1 -3.52249e-15 0)
(1 7.2819e-16 0)
(1 -2.88814e-15 0)
(1 -2.95525e-15 0)
(1 -1.74593e-15 0)
(1 -8.32977e-16 0)
(1 4.64394e-17 0)
(1 -1.09639e-15 0)
(1 3.34639e-15 0)
(1 -3.53374e-15 0)
(1 -1.15993e-15 0)
(1 -4.56741e-15 0)
(1 -1.27859e-15 0)
(1 2.30443e-15 0)
(1 2.3324e-15 0)
(1 5.71994e-15 0)
(1 2.50409e-15 0)
(1 4.83242e-15 0)
(1 -7.1223e-16 0)
(1 3.12364e-15 0)
(1 8.03053e-17 0)
(1 4.08113e-15 0)
(1 2.27212e-15 0)
(1 3.07259e-15 0)
(1 -1.50271e-15 0)
(1 -2.70548e-15 0)
(1 -2.70289e-15 0)
(1 -1.34491e-15 0)
(1 2.06018e-15 0)
(1 -8.16714e-16 0)
(1 2.53464e-15 0)
(1 5.76326e-15 0)
(1 5.28916e-15 0)
(1 -3.19045e-15 0)
(1 -4.26324e-15 0)
(1 -5.9043e-15 0)
(1 -4.83943e-15 0)
(1 -3.95804e-15 0)
(1 -1.0144e-15 0)
(1 5.00475e-15 0)
(1 9.6191e-15 0)
(1 6.88415e-15 0)
(1 -1.6343e-15 0)
(1 1.08717e-16 0)
(1 -2.78075e-16 0)
(1 1.57938e-15 0)
(1 -1.88754e-15 0)
(1 -3.10723e-15 0)
(1 -7.39743e-15 0)
(1 7.06579e-16 0)
(1 6.58986e-15 0)
(1 1.074e-14 0)
(1 3.72626e-15 0)
(1 -2.34514e-17 0)
(1 -1.88763e-15 0)
(1 -5.92925e-15 0)
(1 4.15789e-15 0)
(1 -4.20892e-15 0)
(1 3.78434e-15 0)
(1 -1.62472e-15 0)
(1 2.63079e-15 0)
(1 1.72134e-16 0)
(1 3.94074e-15 0)
(1 -1.58923e-15 0)
(1 -8.84141e-17 0)
(1 3.12145e-16 0)
(1 1.76334e-17 0)
(1 -4.7173e-15 0)
(1 -3.94649e-15 0)
(1 -4.38573e-15 0)
(1 -2.648e-16 0)
(1 -1.08825e-15 0)
(1 1.47711e-15 0)
(1 2.97906e-15 0)
(1 2.9395e-15 0)
(1 2.79955e-15 0)
(1 4.13054e-15 0)
(1 3.01733e-15 0)
(1 2.6464e-15 0)
(1 -7.53157e-16 0)
(1 1.97672e-15 0)
(1 2.75186e-15 0)
(1 1.70267e-15 0)
(1 3.93281e-16 0)
(1 6.43073e-16 0)
(1 3.00211e-15 0)
(1 2.06827e-15 0)
(1 2.59227e-15 0)
(1 8.4872e-15 0)
(1 1.72922e-15 0)
(1 1.24576e-15 0)
(1 -2.22353e-15 0)
(1 2.10439e-16 0)
(1 3.20584e-15 0)
(1 4.84297e-15 0)
(1 6.23447e-15 0)
(1 3.91504e-15 0)
(1 4.37295e-15 0)
(1 6.22627e-15 0)
(1 5.36975e-15 0)
(1 1.64183e-15 0)
(1 -1.36038e-15 0)
(1 -2.92583e-15 0)
(1 -4.83728e-15 0)
(1 -4.94077e-15 0)
(1 -3.53856e-15 0)
(1 -1.87144e-15 0)
(1 -3.32241e-15 0)
(1 -1.64092e-15 0)
(1 -7.89572e-16 0)
(1 1.45521e-15 0)
(1 -2.16285e-16 0)
(1 1.90917e-15 0)
(1 -4.14694e-15 0)
(1 -2.73787e-15 0)
(1 -1.41353e-15 0)
(1 -8.94131e-16 0)
(1 4.00086e-16 0)
(1 1.2368e-16 0)
(1 1.92529e-15 0)
(1 2.42024e-15 0)
(1 4.55226e-15 0)
(1 4.48702e-15 0)
(1 6.13987e-15 0)
(1 2.3319e-15 0)
(1 2.6262e-15 0)
(1 -6.72903e-16 0)
(1 5.05827e-15 0)
(1 5.84841e-15 0)
(1 -1.43623e-15 0)
(1 4.12994e-16 0)
(1 3.94079e-15 0)
(1 2.94019e-15 0)
(1 9.00032e-16 0)
(1 -2.3117e-15 0)
(1 4.17191e-15 0)
(1 3.3577e-15 0)
(1 6.81197e-16 0)
(1 4.63996e-16 0)
(1 -2.51269e-15 0)
(1 3.04936e-15 0)
(1 -2.82094e-15 0)
(1 4.32116e-15 0)
(1 -4.74083e-15 0)
(1 2.47259e-15 0)
(1 -2.28691e-15 0)
(1 -3.42802e-16 0)
(1 -2.05546e-15 0)
(1 2.85656e-15 0)
(1 4.0187e-15 0)
(1 5.16502e-15 0)
(1 1.33634e-15 0)
(1 -4.81324e-15 0)
(1 -1.92591e-15 0)
(1 -4.61017e-15 0)
(1 7.96799e-16 0)
(1 -9.91989e-16 0)
(1 3.72122e-16 0)
(1 1.16859e-15 0)
(1 1.69416e-15 0)
(1 3.2492e-15 0)
(1 4.22937e-15 0)
(1 -4.76778e-15 0)
(1 -3.79549e-15 0)
(1 8.06524e-16 0)
(1 -1.35737e-15 0)
(1 3.49611e-16 0)
(1 -4.33176e-15 0)
(1 3.40999e-15 0)
(1 1.80674e-15 0)
(1 5.52383e-15 0)
(1 3.61885e-15 0)
(1 2.26033e-15 0)
(1 2.17793e-15 0)
(1 1.37623e-15 0)
(1 1.09141e-15 0)
(1 -3.85087e-15 0)
(1 3.42421e-15 0)
(1 3.93942e-16 0)
(1 -8.11312e-16 0)
(1 -1.17466e-15 0)
(1 2.22207e-15 0)
(1 4.84045e-16 0)
(1 7.78948e-16 0)
(1 7.86856e-16 0)
(1 4.40052e-15 0)
(1 4.10398e-15 0)
(1 3.98732e-15 0)
(1 4.90602e-15 0)
(1 4.02675e-15 0)
(1 4.98153e-15 0)
(1 2.5365e-15 0)
(1 2.98669e-15 0)
(1 -9.50816e-16 0)
(1 -9.71665e-16 0)
(1 -1.58751e-16 0)
(1 3.86035e-15 0)
(1 3.86528e-15 0)
(1 1.84172e-15 0)
(1 4.88903e-15 0)
(1 3.96519e-16 0)
(1 -3.89096e-15 0)
(1 -2.42659e-15 0)
(1 -1.72972e-15 0)
(1 4.16757e-15 0)
(1 5.74261e-16 0)
(1 3.2835e-15 0)
(1 -1.66279e-15 0)
(1 -4.4193e-15 0)
(1 -8.36547e-17 0)
(1 -1.44982e-16 0)
(1 1.01395e-15 0)
(1 5.76808e-16 0)
(1 -7.184e-16 0)
(1 3.25827e-15 0)
(1 2.95333e-15 0)
(1 4.64969e-15 0)
(1 1.60445e-15 0)
(1 2.46397e-15 0)
(1 1.192e-15 0)
(1 4.77371e-15 0)
(1 4.88235e-15 0)
(1 5.46025e-15 0)
(1 2.91403e-15 0)
(1 7.44541e-15 0)
(1 6.85699e-15 0)
(1 5.73321e-15 0)
(1 4.94247e-15 0)
(1 4.4614e-15 0)
(1 6.64995e-16 0)
(1 -2.07788e-15 0)
(1 -4.97712e-15 0)
(1 -1.68863e-15 0)
(1 5.37402e-15 0)
(1 2.49849e-15 0)
(1 3.73969e-15 0)
(1 3.51844e-15 0)
(1 3.62784e-15 0)
(1 3.13912e-15 0)
(1 -2.01438e-15 0)
(1 -2.10421e-15 0)
(1 -9.73545e-16 0)
(1 5.26865e-15 0)
(1 -5.68603e-16 0)
(1 6.50011e-15 0)
(1 2.24663e-17 0)
(1 6.77926e-15 0)
(1 -9.56594e-16 0)
(1 5.9236e-15 0)
(1 -7.14529e-16 0)
(1 -4.24417e-15 0)
(1 -7.93343e-15 0)
(1 -1.26955e-14 0)
(1 -1.22819e-14 0)
(1 -7.18876e-15 0)
(1 3.15449e-15 0)
(1 6.14404e-16 0)
(1 1.23338e-14 0)
(1 4.85932e-15 0)
(1 6.68742e-15 0)
(1 -4.29176e-16 0)
(1 -8.58483e-16 0)
(1 -3.90601e-15 0)
(1 -5.00755e-15 0)
(1 -3.49203e-15 0)
(1 -4.06342e-15 0)
(1 8.41986e-16 0)
(1 6.74624e-15 0)
(1 8.77362e-15 0)
(1 1.77799e-16 0)
(1 -5.2006e-15 0)
(1 -5.25385e-15 0)
(1 -5.74935e-15 0)
(1 -2.33799e-15 0)
(1 3.38396e-15 0)
(1 5.72255e-15 0)
(1 2.96094e-15 0)
(1 5.44966e-15 0)
(1 3.31891e-15 0)
(1 4.99623e-15 0)
(1 -2.40385e-15 0)
(1 4.16559e-16 0)
(1 4.07486e-15 0)
(1 7.61925e-15 0)
(1 5.3566e-15 0)
(1 2.24662e-15 0)
(1 1.49185e-15 0)
(1 1.31639e-15 0)
(1 -2.85359e-15 0)
(1 9.35866e-16 0)
(1 7.6819e-15 0)
(1 9.35919e-15 0)
(1 8.71424e-15 0)
(1 6.93172e-16 0)
(1 1.04095e-15 0)
(1 3.98207e-15 0)
(1 3.3647e-15 0)
(1 3.24439e-15 0)
(1 2.14509e-15 0)
(1 1.67264e-15 0)
(1 1.20405e-15 0)
(1 9.11599e-16 0)
(1 -1.50608e-15 0)
(1 4.81629e-16 0)
(1 1.20248e-15 0)
(1 -9.46355e-16 0)
(1 -2.07428e-15 0)
(1 -3.78636e-15 0)
(1 -4.31061e-15 0)
(1 6.17248e-16 0)
(1 -3.1046e-15 0)
(1 -5.8274e-16 0)
(1 -1.51691e-15 0)
(1 2.23505e-15 0)
(1 4.01326e-15 0)
(1 3.39033e-15 0)
(1 7.32842e-16 0)
(1 2.25873e-15 0)
(1 -2.38936e-16 0)
(1 2.54564e-15 0)
(1 3.88405e-15 0)
(1 5.8063e-15 0)
(1 6.39622e-15 0)
(1 6.05937e-15 0)
(1 7.0446e-15 0)
(1 4.05197e-15 0)
(1 7.23573e-15 0)
(1 6.71261e-15 0)
(1 9.90781e-15 0)
(1 8.62754e-17 0)
(1 -5.97337e-15 0)
(1 -2.84949e-15 0)
(1 -1.92635e-15 0)
(1 -1.99288e-16 0)
(1 6.51856e-15 0)
(1 1.41657e-15 0)
(1 6.2897e-15 0)
(1 9.12625e-16 0)
(1 -2.46276e-15 0)
(1 -6.26778e-16 0)
(1 -2.49663e-15 0)
(1 1.52755e-15 0)
(1 4.15204e-15 0)
(1 2.48789e-15 0)
(1 1.24963e-15 0)
(1 -4.43855e-15 0)
(1 2.11414e-15 0)
(1 1.5574e-15 0)
(1 1.43899e-16 0)
(1 -4.33261e-15 0)
(1 -2.62868e-15 0)
(1 1.45039e-15 0)
(1 5.04771e-15 0)
(1 -9.83026e-16 0)
(1 -8.64825e-16 0)
(1 -6.92482e-16 0)
(1 2.45535e-15 0)
(1 2.19271e-15 0)
(1 2.34035e-15 0)
(1 -1.41474e-15 0)
(1 -8.32149e-15 0)
(1 -1.09232e-14 0)
(1 -6.81317e-15 0)
(1 -1.57876e-15 0)
(1 -2.3169e-16 0)
(1 1.34582e-15 0)
(1 4.458e-15 0)
(1 3.05089e-15 0)
(1 1.56524e-15 0)
(1 -6.83589e-15 0)
(1 -4.97303e-15 0)
(1 -2.76941e-15 0)
(1 9.9759e-16 0)
(1 8.24642e-15 0)
(1 4.06007e-15 0)
(1 6.93874e-15 0)
(1 2.06284e-15 0)
(1 -6.31832e-16 0)
(1 2.64771e-15 0)
(1 3.70496e-15 0)
(1 6.99082e-15 0)
(1 3.45896e-15 0)
(1 9.06559e-15 0)
(1 8.0857e-15 0)
(1 5.47395e-15 0)
(1 1.60143e-15 0)
(1 -2.75623e-15 0)
(1 5.11294e-15 0)
(1 -9.10566e-17 0)
(1 1.93903e-15 0)
(1 -2.78895e-16 0)
(1 2.9239e-15 0)
(1 4.11543e-15 0)
(1 -2.26139e-15 0)
(1 2.55101e-15 0)
(1 4.23944e-15 0)
(1 8.8709e-15 0)
(1 1.32346e-14 0)
(1 1.14756e-14 0)
(1 9.88081e-15 0)
(1 5.18181e-15 0)
(1 5.93249e-15 0)
(1 6.05564e-16 0)
(1 6.82616e-16 0)
(1 -1.66637e-15 0)
(1 -2.8337e-16 0)
(1 2.68586e-16 0)
(1 1.52254e-15 0)
(1 9.56857e-16 0)
(1 1.4088e-15 0)
(1 -2.1029e-15 0)
(1 -8.97572e-17 0)
(1 -2.51159e-15 0)
(1 -3.02114e-15 0)
(1 -4.87246e-15 0)
(1 -4.55028e-15 0)
(1 -2.60948e-15 0)
(1 1.72892e-15 0)
(1 1.08334e-15 0)
(1 1.40011e-15 0)
(1 4.13007e-15 0)
(1 6.04653e-15 0)
(1 9.3125e-15 0)
(1 1.0642e-14 0)
(1 1.09177e-14 0)
(1 1.09684e-14 0)
(1 1.25778e-14 0)
(1 1.49347e-14 0)
(1 1.6568e-14 0)
(1 -2.31997e-16 0)
(1 6.56053e-16 0)
(1 5.72875e-15 0)
(1 3.13859e-16 0)
(1 -9.59209e-16 0)
(1 -3.06103e-15 0)
(1 1.02696e-15 0)
(1 -1.55284e-16 0)
(1 3.09993e-15 0)
(1 -4.36903e-15 0)
(1 -6.4138e-17 0)
(1 1.35885e-15 0)
(1 3.8147e-15 0)
(1 2.67737e-15 0)
(1 4.78589e-15 0)
(1 -8.01504e-16 0)
(1 -4.0546e-15 0)
(1 7.69116e-16 0)
(1 2.34489e-15 0)
(1 2.52128e-15 0)
(1 -5.64562e-15 0)
(1 -9.60979e-15 0)
(1 -7.48501e-15 0)
(1 3.65103e-15 0)
(1 2.2488e-15 0)
(1 5.33909e-15 0)
(1 1.29845e-15 0)
(1 6.00054e-15 0)
(1 -8.31747e-16 0)
(1 -1.21509e-16 0)
(1 -4.08045e-15 0)
(1 7.99043e-16 0)
(1 -3.51602e-15 0)
(1 -2.76786e-15 0)
(1 -2.91686e-15 0)
(1 -2.64576e-15 0)
(1 -1.99863e-15 0)
(1 8.82809e-16 0)
(1 -3.15489e-15 0)
(1 -2.64777e-15 0)
(1 -1.39869e-16 0)
(1 3.23677e-15 0)
(1 4.40446e-15 0)
(1 2.91873e-15 0)
(1 2.67798e-15 0)
(1 -3.71675e-15 0)
(1 -6.75386e-16 0)
(1 5.58676e-16 0)
(1 -1.73287e-15 0)
(1 4.8413e-15 0)
(1 3.7611e-16 0)
(1 3.2147e-15 0)
(1 6.74165e-15 0)
(1 5.56827e-15 0)
(1 6.99326e-15 0)
(1 8.74864e-15 0)
(1 4.21591e-15 0)
(1 -4.89203e-16 0)
(1 2.44183e-15 0)
(1 8.36908e-15 0)
(1 6.42745e-15 0)
(1 3.87899e-15 0)
(1 1.55822e-15 0)
(1 7.94865e-16 0)
(1 4.03003e-15 0)
(1 2.90977e-15 0)
(1 6.90596e-15 0)
(1 1.04696e-14 0)
(1 1.40224e-14 0)
(1 1.13065e-14 0)
(1 4.95381e-15 0)
(1 3.11441e-15 0)
(1 7.80597e-16 0)
(1 5.05121e-16 0)
(1 1.19677e-15 0)
(1 -6.14841e-16 0)
(1 2.71062e-15 0)
(1 -3.73357e-16 0)
(1 3.2635e-15 0)
(1 -9.31513e-16 0)
(1 -2.05446e-16 0)
(1 -3.13142e-15 0)
(1 -2.69343e-15 0)
(1 -2.18277e-15 0)
(1 -2.17601e-15 0)
(1 8.56965e-16 0)
(1 2.32134e-15 0)
(1 5.57511e-15 0)
(1 1.79822e-15 0)
(1 2.9687e-16 0)
(1 4.33755e-15 0)
(1 2.6016e-15 0)
(1 5.68517e-15 0)
(1 5.1201e-15 0)
(1 1.33296e-14 0)
(1 6.76268e-15 0)
(1 1.0401e-14 0)
(1 1.1515e-14 0)
(1 2.0225e-14 0)
(1 1.79616e-14 0)
(1 -3.92722e-17 0)
(1 2.08859e-15 0)
(1 9.79566e-16 0)
(1 -1.97984e-15 0)
(1 -3.82848e-15 0)
(1 -7.23516e-15 0)
(1 -2.77022e-16 0)
(1 -6.67333e-15 0)
(1 3.38746e-15 0)
(1 6.81327e-15 0)
(1 2.4315e-15 0)
(1 -1.89619e-15 0)
(1 1.49666e-15 0)
(1 -3.11197e-15 0)
(1 1.09668e-15 0)
(1 -1.96998e-16 0)
(1 8.637e-15 0)
(1 5.71542e-15 0)
(1 5.00452e-15 0)
(1 1.22304e-15 0)
(1 -5.33283e-15 0)
(1 -8.71907e-15 0)
(1 -1.32004e-14 0)
(1 -7.46206e-15 0)
(1 -6.08347e-15 0)
(1 2.81787e-15 0)
(1 3.19624e-15 0)
(1 3.11203e-15 0)
(1 -3.11786e-16 0)
(1 -2.60045e-15 0)
(1 -5.88393e-15 0)
(1 1.72999e-15 0)
(1 -9.96192e-17 0)
(1 2.60715e-16 0)
(1 -3.56776e-15 0)
(1 -3.21753e-15 0)
(1 1.58118e-16 0)
(1 -2.40452e-15 0)
(1 -3.15176e-15 0)
(1 -5.63885e-15 0)
(1 1.16142e-15 0)
(1 4.05516e-15 0)
(1 4.81592e-15 0)
(1 2.66751e-15 0)
(1 1.04251e-15 0)
(1 -6.76825e-16 0)
(1 2.98023e-15 0)
(1 2.4714e-15 0)
(1 3.14438e-15 0)
(1 3.35629e-15 0)
(1 6.8786e-15 0)
(1 4.41568e-15 0)
(1 7.54672e-15 0)
(1 5.10787e-15 0)
(1 4.37198e-15 0)
(1 2.40783e-15 0)
(1 7.21792e-16 0)
(1 8.80492e-16 0)
(1 1.37169e-15 0)
(1 3.46069e-15 0)
(1 5.96208e-15 0)
(1 6.10349e-15 0)
(1 3.27191e-15 0)
(1 3.35104e-15 0)
(1 8.00663e-15 0)
(1 5.33113e-15 0)
(1 6.31321e-15 0)
(1 4.87164e-15 0)
(1 1.32806e-15 0)
(1 5.50285e-15 0)
(1 5.54124e-15 0)
(1 1.11818e-14 0)
(1 3.37963e-15 0)
(1 -1.49144e-15 0)
(1 -2.35761e-16 0)
(1 -1.93466e-15 0)
(1 7.69965e-15 0)
(1 4.05548e-15 0)
(1 3.61061e-15 0)
(1 4.25929e-15 0)
(1 1.84754e-15 0)
(1 1.92211e-15 0)
(1 1.21948e-15 0)
(1 -1.78028e-15 0)
(1 -4.11083e-15 0)
(1 -4.2978e-15 0)
(1 9.25057e-16 0)
(1 -1.97678e-15 0)
(1 -4.42177e-16 0)
(1 7.94675e-17 0)
(1 7.3216e-15 0)
(1 1.09299e-15 0)
(1 6.55341e-15 0)
(1 4.13915e-15 0)
(1 1.00716e-14 0)
(1 6.10989e-15 0)
(1 8.33266e-15 0)
(1 8.85121e-15 0)
(1 1.36389e-14 0)
(1 1.27385e-14 0)
(1 1.34495e-15 0)
(1 -4.67943e-16 0)
(1 -8.88385e-16 0)
(1 1.38704e-15 0)
(1 -4.97216e-15 0)
(1 2.25995e-15 0)
(1 -4.80922e-15 0)
(1 5.41915e-16 0)
(1 -4.62164e-15 0)
(1 4.03947e-15 0)
(1 5.58213e-15 0)
(1 3.08067e-15 0)
(1 3.37188e-15 0)
(1 1.05644e-15 0)
(1 1.08685e-15 0)
(1 -4.47967e-15 0)
(1 3.33999e-15 0)
(1 -6.16559e-15 0)
(1 2.00563e-15 0)
(1 -9.52351e-15 0)
(1 -3.78581e-15 0)
(1 3.62773e-16 0)
(1 4.22278e-15 0)
(1 3.30081e-15 0)
(1 5.32837e-15 0)
(1 5.91042e-16 0)
(1 3.41009e-15 0)
(1 1.4416e-15 0)
(1 1.36527e-16 0)
(1 -2.95355e-15 0)
(1 -4.18266e-15 0)
(1 -5.94123e-15 0)
(1 -5.67732e-15 0)
(1 -5.13374e-15 0)
(1 -3.19541e-15 0)
(1 -2.98655e-15 0)
(1 -1.53653e-15 0)
(1 -3.02313e-15 0)
(1 -1.64866e-15 0)
(1 -4.21661e-16 0)
(1 3.98923e-15 0)
(1 5.56114e-15 0)
(1 2.58357e-15 0)
(1 4.06205e-15 0)
(1 -1.26117e-15 0)
(1 8.23425e-16 0)
(1 3.79428e-15 0)
(1 9.24985e-16 0)
(1 7.40683e-15 0)
(1 2.96225e-15 0)
(1 4.35697e-15 0)
(1 3.40159e-15 0)
(1 1.89536e-15 0)
(1 4.44567e-15 0)
(1 5.06573e-15 0)
(1 -3.94526e-15 0)
(1 -7.17733e-16 0)
(1 2.59192e-15 0)
(1 5.9057e-15 0)
(1 1.82204e-15 0)
(1 7.93919e-15 0)
(1 6.26067e-15 0)
(1 9.92175e-15 0)
(1 5.48339e-15 0)
(1 9.53525e-15 0)
(1 6.46971e-15 0)
(1 1.94891e-15 0)
(1 3.55356e-15 0)
(1 -1.11108e-15 0)
(1 2.57951e-15 0)
(1 9.55147e-15 0)
(1 9.45493e-15 0)
(1 2.01797e-16 0)
(1 -1.93559e-15 0)
(1 -2.2925e-15 0)
(1 -2.28438e-15 0)
(1 -1.39676e-15 0)
(1 1.21492e-16 0)
(1 2.05007e-15 0)
(1 7.89544e-15 0)
(1 3.14223e-15 0)
(1 6.80623e-15 0)
(1 5.70244e-15 0)
(1 8.58118e-16 0)
(1 -7.77732e-16 0)
(1 -5.71975e-15 0)
(1 -2.06881e-15 0)
(1 -3.83112e-15 0)
(1 3.34239e-15 0)
(1 4.00453e-15 0)
(1 1.61577e-15 0)
(1 5.15927e-16 0)
(1 4.42715e-15 0)
(1 6.45178e-15 0)
(1 5.60028e-15 0)
(1 1.16497e-14 0)
(1 1.17146e-14 0)
(1 1.1285e-14 0)
(1 6.45214e-15 0)
(1 6.27402e-15 0)
(1 6.16512e-16 0)
(1 2.3477e-15 0)
(1 -5.0801e-15 0)
(1 -3.04514e-15 0)
(1 -2.69297e-15 0)
(1 -2.49211e-15 0)
(1 -4.49877e-15 0)
(1 2.06886e-15 0)
(1 -3.16288e-15 0)
(1 4.56505e-15 0)
(1 5.32467e-15 0)
(1 3.65267e-15 0)
(1 -3.53748e-15 0)
(1 9.43166e-18 0)
(1 -1.48103e-15 0)
(1 1.29207e-15 0)
(1 -4.27763e-16 0)
(1 9.73218e-15 0)
(1 9.42028e-15 0)
(1 7.35153e-15 0)
(1 1.59073e-15 0)
(1 -6.38174e-15 0)
(1 -1.44644e-14 0)
(1 -1.36087e-14 0)
(1 -5.51183e-15 0)
(1 -1.04e-15 0)
(1 -4.63092e-16 0)
(1 1.89352e-15 0)
(1 4.04742e-15 0)
(1 -1.68905e-15 0)
(1 -5.15106e-15 0)
(1 -9.4375e-15 0)
(1 -5.86016e-15 0)
(1 -7.22781e-15 0)
(1 2.31808e-15 0)
(1 -1.63194e-15 0)
(1 1.44425e-15 0)
(1 -3.49595e-15 0)
(1 4.35935e-16 0)
(1 4.68322e-15 0)
(1 5.87738e-15 0)
(1 1.68843e-15 0)
(1 -1.64837e-15 0)
(1 1.71995e-15 0)
(1 -8.11479e-16 0)
(1 7.16617e-15 0)
(1 4.53678e-15 0)
(1 1.00318e-14 0)
(1 8.0884e-15 0)
(1 4.2486e-15 0)
(1 1.98434e-15 0)
(1 -6.41144e-16 0)
(1 1.55833e-16 0)
(1 1.13851e-15 0)
(1 2.37629e-15 0)
(1 3.10081e-15 0)
(1 8.74223e-16 0)
(1 3.23134e-15 0)
(1 -3.905e-15 0)
(1 -1.09894e-15 0)
(1 -3.99586e-15 0)
(1 2.0909e-15 0)
(1 6.19244e-15 0)
(1 1.01168e-14 0)
(1 1.36871e-14 0)
(1 1.22573e-14 0)
(1 7.34897e-15 0)
(1 3.05012e-15 0)
(1 1.8312e-15 0)
(1 -4.48613e-16 0)
(1 -3.67717e-15 0)
(1 -2.59887e-15 0)
(1 2.8072e-15 0)
(1 6.04551e-15 0)
(1 2.38351e-15 0)
(1 2.59083e-15 0)
(1 -6.46727e-15 0)
(1 -1.95256e-15 0)
(1 7.04668e-16 0)
(1 5.40959e-16 0)
(1 8.28329e-16 0)
(1 4.62353e-15 0)
(1 2.23055e-15 0)
(1 3.02614e-15 0)
(1 2.69347e-15 0)
(1 2.7093e-15 0)
(1 4.05663e-17 0)
(1 3.8145e-15 0)
(1 2.90511e-15 0)
(1 2.73563e-15 0)
(1 7.56277e-16 0)
(1 1.78479e-15 0)
(1 2.04688e-16 0)
(1 2.82005e-15 0)
(1 3.1829e-15 0)
(1 7.01811e-15 0)
(1 5.72677e-15 0)
(1 6.2402e-15 0)
(1 3.83649e-15 0)
(1 4.08628e-15 0)
(1 -1.85575e-16 0)
(1 3.95391e-16 0)
(1 8.44664e-16 0)
(1 -6.29068e-15 0)
(1 -1.34919e-15 0)
(1 -5.81561e-15 0)
(1 -1.75535e-15 0)
(1 -1.4897e-16 0)
(1 8.37402e-15 0)
(1 1.02227e-14 0)
(1 4.10662e-15 0)
(1 -1.25508e-15 0)
(1 -6.91957e-15 0)
(1 -5.41471e-15 0)
(1 -2.65258e-15 0)
(1 7.30153e-15 0)
(1 -6.51671e-16 0)
(1 5.39047e-15 0)
(1 -4.33129e-15 0)
(1 2.41882e-15 0)
(1 -3.66004e-15 0)
(1 2.89556e-15 0)
(1 -1.16735e-14 0)
(1 -4.19737e-15 0)
(1 -4.19599e-15 0)
(1 5.52761e-15 0)
(1 -1.8321e-16 0)
(1 -1.3579e-15 0)
(1 -1.17978e-15 0)
(1 -3.6175e-15 0)
(1 -5.94171e-15 0)
(1 -1.25318e-14 0)
(1 -8.09797e-15 0)
(1 -7.99228e-15 0)
(1 1.92578e-16 0)
(1 7.95465e-15 0)
(1 7.22433e-15 0)
(1 8.88193e-16 0)
(1 9.31254e-16 0)
(1 -2.08544e-15 0)
(1 -2.44854e-15 0)
(1 -3.65591e-16 0)
(1 3.30494e-15 0)
(1 1.72762e-15 0)
(1 9.40492e-15 0)
(1 8.56604e-15 0)
(1 3.43549e-15 0)
(1 5.89992e-15 0)
(1 4.9006e-16 0)
(1 -1.76195e-15 0)
(1 -6.07336e-15 0)
(1 -3.81054e-15 0)
(1 3.32696e-15 0)
(1 6.57064e-15 0)
(1 8.11683e-16 0)
(1 1.07467e-14 0)
(1 5.56074e-15 0)
(1 6.17751e-15 0)
(1 1.22493e-16 0)
(1 6.46818e-15 0)
(1 2.17354e-16 0)
(1 2.16668e-15 0)
(1 5.13844e-16 0)
(1 9.94821e-15 0)
(1 3.8231e-15 0)
(1 1.03904e-14 0)
(1 1.06913e-14 0)
(1 6.85559e-15 0)
(1 3.70099e-15 0)
(1 3.63288e-16 0)
(1 -6.5053e-15 0)
(1 2.76579e-15 0)
(1 2.55911e-15 0)
(1 8.2736e-15 0)
(1 1.00702e-15 0)
(1 4.84124e-15 0)
(1 1.52964e-15 0)
(1 7.6369e-15 0)
(1 4.32546e-15 0)
(1 -9.01647e-17 0)
(1 1.73044e-15 0)
(1 -3.53377e-16 0)
(1 -2.7444e-15 0)
(1 4.67935e-16 0)
(1 1.23743e-15 0)
(1 5.9017e-15 0)
(1 -1.57726e-16 0)
(1 4.68879e-15 0)
(1 5.441e-16 0)
(1 3.08433e-15 0)
(1 5.44108e-15 0)
(1 4.31007e-15 0)
(1 -2.6506e-16 0)
(1 1.65034e-15 0)
(1 1.14743e-15 0)
(1 5.11275e-15 0)
(1 5.71253e-15 0)
(1 7.62292e-15 0)
(1 5.41586e-15 0)
(1 6.0796e-15 0)
(1 9.94909e-17 0)
(1 5.20747e-16 0)
(1 -2.96763e-15 0)
(1 -3.46279e-15 0)
(1 -1.25208e-15 0)
(1 -7.52113e-16 0)
(1 -3.37814e-15 0)
(1 -6.75138e-15 0)
(1 2.64273e-15 0)
(1 -1.48324e-15 0)
(1 5.92835e-15 0)
(1 5.58954e-15 0)
(1 6.90387e-15 0)
(1 5.92443e-17 0)
(1 3.15863e-15 0)
(1 1.13317e-15 0)
(1 -3.65597e-15 0)
(1 -8.55817e-15 0)
(1 -8.53957e-15 0)
(1 -3.98096e-15 0)
(1 -2.5998e-17 0)
(1 2.48165e-15 0)
(1 7.29254e-15 0)
(1 3.57657e-15 0)
(1 -3.09445e-16 0)
(1 -1.94817e-15 0)
(1 -1.97095e-15 0)
(1 -5.3137e-15 0)
(1 -5.29467e-15 0)
(1 -5.45919e-15 0)
(1 -3.87431e-15 0)
(1 -3.05304e-15 0)
(1 -1.52976e-15 0)
(1 -1.4978e-15 0)
(1 -1.10504e-15 0)
(1 2.57546e-15 0)
(1 1.1636e-15 0)
(1 1.22915e-15 0)
(1 1.11895e-15 0)
(1 -4.38212e-15 0)
(1 -5.7714e-15 0)
(1 3.98748e-16 0)
(1 3.27817e-15 0)
(1 2.33725e-15 0)
(1 4.6347e-15 0)
(1 4.47542e-15 0)
(1 2.91218e-15 0)
(1 -3.2533e-15 0)
(1 -2.92366e-15 0)
(1 6.87395e-16 0)
(1 1.96039e-15 0)
(1 6.60296e-15 0)
(1 7.6146e-15 0)
(1 1.07271e-14 0)
(1 8.13823e-15 0)
(1 8.72153e-15 0)
(1 4.97527e-15 0)
(1 4.9543e-15 0)
(1 1.93418e-15 0)
(1 1.06391e-15 0)
(1 3.7444e-15 0)
(1 2.67907e-15 0)
(1 5.78155e-15 0)
(1 3.8664e-15 0)
(1 7.14259e-15 0)
(1 6.28745e-15 0)
(1 9.15225e-15 0)
(1 8.76762e-15 0)
(1 1.11968e-14 0)
(1 6.80766e-15 0)
(1 6.4674e-15 0)
(1 9.67475e-16 0)
(1 -2.34552e-15 0)
(1 1.35265e-15 0)
(1 1.56038e-15 0)
(1 3.94788e-15 0)
(1 3.83298e-15 0)
(1 3.70128e-15 0)
(1 1.25948e-16 0)
(1 -2.78524e-16 0)
(1 4.37464e-15 0)
(1 -6.15005e-16 0)
(1 -2.40967e-15 0)
(1 3.52046e-16 0)
(1 2.71985e-15 0)
(1 2.89804e-15 0)
(1 8.34597e-16 0)
(1 1.26806e-15 0)
(1 2.59549e-16 0)
(1 1.85382e-15 0)
(1 7.66938e-16 0)
(1 5.81888e-16 0)
(1 3.01038e-15 0)
(1 2.45708e-15 0)
(1 2.75561e-15 0)
(1 7.3544e-16 0)
(1 2.8415e-15 0)
(1 7.39952e-15 0)
(1 8.41913e-15 0)
(1 9.89169e-15 0)
(1 -1.50171e-15 0)
(1 -9.98583e-16 0)
(1 -3.28459e-15 0)
(1 -1.43769e-15 0)
(1 7.42649e-15 0)
(1 4.70009e-15 0)
(1 8.78046e-15 0)
(1 3.97837e-15 0)
(1 -2.41928e-15 0)
(1 -8.65159e-15 0)
(1 -4.26408e-15 0)
(1 -4.14895e-15 0)
(1 4.5253e-15 0)
(1 -5.01982e-16 0)
(1 -5.00154e-16 0)
(1 -9.06417e-15 0)
(1 1.37239e-15 0)
(1 1.37169e-15 0)
(1 1.5795e-15 0)
(1 -7.43267e-15 0)
(1 -3.5351e-15 0)
(1 -7.68222e-15 0)
(1 8.5584e-15 0)
(1 -2.1661e-15 0)
(1 -2.90627e-15 0)
(1 -8.63079e-15 0)
(1 -7.70649e-15 0)
(1 -7.55775e-15 0)
(1 -1.05763e-14 0)
(1 -6.32134e-15 0)
(1 -5.3913e-15 0)
(1 2.67424e-15 0)
(1 -2.17921e-16 0)
(1 4.3375e-15 0)
(1 7.61029e-16 0)
(1 9.27601e-16 0)
(1 5.46573e-16 0)
(1 -1.11306e-15 0)
(1 -2.37521e-15 0)
(1 -1.7207e-15 0)
(1 -3.40124e-15 0)
(1 -4.0105e-16 0)
(1 5.41856e-15 0)
(1 9.62359e-15 0)
(1 4.56511e-15 0)
(1 3.8076e-15 0)
(1 2.41656e-15 0)
(1 -7.2855e-16 0)
(1 -3.31718e-15 0)
(1 -3.58808e-15 0)
(1 8.61019e-15 0)
(1 1.1617e-14 0)
(1 8.08148e-15 0)
(1 4.14388e-15 0)
(1 7.07457e-15 0)
(1 1.23972e-15 0)
(1 2.33298e-15 0)
(1 1.81447e-15 0)
(1 7.68083e-16 0)
(1 -4.18412e-15 0)
(1 2.08677e-15 0)
(1 4.28384e-15 0)
(1 3.96981e-15 0)
(1 2.53845e-15 0)
(1 6.38387e-15 0)
(1 -7.21579e-16 0)
(1 6.43743e-17 0)
(1 1.23612e-15 0)
(1 5.61901e-15 0)
(1 4.9529e-15 0)
(1 7.06221e-15 0)
(1 -9.89279e-16 0)
(1 4.16694e-15 0)
(1 3.4118e-15 0)
(1 4.09706e-15 0)
(1 3.56984e-15 0)
(1 3.23597e-15 0)
(1 4.65676e-15 0)
(1 7.17967e-16 0)
(1 6.68139e-15 0)
(1 -2.4546e-15 0)
(1 1.23922e-15 0)
(1 -2.45631e-16 0)
(1 3.11158e-15 0)
(1 2.67824e-15 0)
(1 -9.2994e-17 0)
(1 1.25421e-16 0)
(1 2.65235e-16 0)
(1 8.53034e-17 0)
(1 1.08501e-16 0)
(1 -2.1653e-15 0)
(1 -6.82623e-16 0)
(1 3.59186e-15 0)
(1 1.78307e-15 0)
(1 8.14967e-16 0)