/*--------------------------------*- C++ -*----------------------------------*\
| =========                 |                                                 |
| \\      /  F ield         | OpenFOAM: The Open Source CFD Toolbox           |
|  \\    /   O peration     | Version:  v2012                                 |
|   \\  /    A nd           | Website:  www.openfoam.com                      |
|    \\/     M anipulation  |                                                 |
\*---------------------------------------------------------------------------*/
FoamFile
{
    version     2.0;
    format      ascii;
    class       volVectorField;
    location    "70";
    object      Usup;
}
// * * * * * * * * * * * * * * * * * * * * * * * * * * * * * * * * * * * * * //

dimensions      [0 1 -1 0 0 0 0];


internalField   nonuniform List<vector> 
4000
(
(-1.50616e-16 -2.29153e-16 0)
(-2.15854e-16 -1.351e-16 0)
(-3.47638e-16 -1.42804e-16 0)
(-1.12397e-15 -3.14022e-16 0)
(-1.77182e-15 2.76776e-17 0)
(-1.75922e-15 -1.36465e-16 0)
(-1.85078e-15 -1.59959e-16 0)
(-1.96823e-15 3.37309e-17 0)
(-1.96249e-15 -3.63995e-17 0)
(-2.37659e-15 -2.32377e-16 0)
(-3.14548e-15 -2.94724e-16 0)
(-3.64205e-15 -1.83475e-16 0)
(-3.92959e-15 6.27289e-17 0)
(-4.39572e-15 4.20531e-16 0)
(-4.64398e-15 1.01757e-15 0)
(-4.51892e-15 1.41035e-15 0)
(-4.27051e-15 1.32121e-15 0)
(-4.05209e-15 9.17749e-16 0)
(-4.03573e-15 6.86998e-16 0)
(-3.75113e-15 6.67785e-16 0)
(-3.04334e-15 6.03051e-16 0)
(-2.9854e-15 2.22416e-16 0)
(-3.27266e-15 1.53958e-16 0)
(-3.34127e-15 1.1158e-16 0)
(-3.21145e-15 3.10763e-16 0)
(-3.06717e-15 2.45381e-16 0)
(-3.41375e-15 -1.66585e-16 0)
(-3.91849e-15 1.26254e-16 0)
(-3.91688e-15 4.36508e-16 0)
(-3.67962e-15 5.58632e-16 0)
(-3.50697e-15 1.26082e-15 0)
(-2.83667e-15 1.4465e-15 0)
(-2.06641e-15 1.09976e-15 0)
(-1.5633e-15 9.4753e-16 0)
(-1.26888e-15 8.9739e-16 0)
(-9.79178e-16 6.66965e-16 0)
(-3.78575e-16 7.41043e-16 0)
(3.60664e-16 1.05041e-15 0)
(1.13735e-15 8.9693e-16 0)
(1.95218e-15 5.96284e-16 0)
(2.50583e-15 2.78048e-16 0)
(2.69723e-15 -1.31095e-16 0)
(2.92254e-15 -4.74843e-16 0)
(3.05974e-15 -8.5895e-16 0)
(2.9966e-15 -1.04126e-15 0)
(2.86444e-15 -1.09765e-15 0)
(2.9634e-15 -1.06808e-15 0)
(3.02578e-15 -9.2369e-16 0)
(3.50382e-15 -7.70546e-16 0)
(4.14972e-15 -1.31279e-15 0)
(4.45805e-15 -1.34311e-15 0)
(4.97944e-15 -1.31515e-15 0)
(5.50205e-15 -1.27656e-15 0)
(6.04038e-15 -1.30965e-15 0)
(6.17642e-15 -8.54127e-16 0)
(6.02799e-15 -9.66147e-16 0)
(6.18579e-15 -1.3805e-15 0)
(6.75768e-15 -1.63656e-15 0)
(6.65925e-15 -2.14466e-15 0)
(6.10104e-15 -1.88311e-15 0)
(6.08491e-15 -1.78216e-15 0)
(5.70335e-15 -2.15026e-15 0)
(4.99402e-15 -2.00616e-15 0)
(5.14181e-15 -1.51926e-15 0)
(5.99848e-15 -1.56932e-15 0)
(6.80562e-15 -1.87632e-15 0)
(7.20473e-15 -2.0763e-15 0)
(7.39593e-15 -1.75373e-15 0)
(7.3483e-15 -1.57786e-15 0)
(7.27056e-15 -1.39475e-15 0)
(7.31674e-15 -1.56359e-15 0)
(7.35854e-15 -1.63365e-15 0)
(7.20632e-15 -1.66017e-15 0)
(7.00215e-15 -1.35842e-15 0)
(7.44728e-15 -1.36091e-15 0)
(7.95736e-15 -1.1875e-15 0)
(7.96064e-15 -1.33817e-15 0)
(7.36707e-15 -1.478e-15 0)
(7.17941e-15 -1.12933e-15 0)
(7.3808e-15 -1.01581e-15 0)
(7.26668e-15 -8.98563e-16 0)
(7.2e-15 -8.24463e-16 0)
(6.99075e-15 -1.12119e-15 0)
(6.62367e-15 -9.20646e-16 0)
(6.83233e-15 -7.18542e-16 0)
(7.2898e-15 -7.37373e-16 0)
(7.22645e-15 -8.43095e-16 0)
(6.94339e-15 -9.29013e-16 0)
(6.96814e-15 -8.61815e-16 0)
(6.78951e-15 -7.26493e-16 0)
(6.34735e-15 -4.14052e-16 0)
(6.16924e-15 -2.93509e-16 0)
(6.17617e-15 -1.39939e-16 0)
(5.58128e-15 -7.76774e-16 0)
(4.46751e-15 -4.92224e-16 0)
(4.09118e-15 -1.9011e-16 0)
(4.00839e-15 -1.32031e-16 0)
(3.31143e-15 -1.5511e-16 0)
(1.86018e-15 -1.10297e-16 0)
(5.57093e-16 7.38915e-17 0)
(-2.24035e-16 -2.80946e-16 0)
(-6.14128e-16 -2.7363e-16 0)
(-1.5082e-15 -6.38773e-16 0)
(-3.03052e-15 -7.85168e-16 0)
(-4.55232e-15 -3.23814e-16 0)
(-5.14941e-15 -4.68585e-16 0)
(-5.26603e-15 -3.25398e-16 0)
(-5.71076e-15 6.07702e-17 0)
(-6.28804e-15 -1.75756e-16 0)
(-7.3832e-15 -6.65571e-16 0)
(-8.92831e-15 -8.65703e-16 0)
(-1.00227e-14 -4.33487e-16 0)
(-1.07494e-14 3.11025e-16 0)
(-1.15824e-14 1.52155e-15 0)
(-1.21535e-14 3.13535e-15 0)
(-1.24721e-14 3.72806e-15 0)
(-1.25379e-14 3.55912e-15 0)
(-1.21271e-14 2.62785e-15 0)
(-1.16091e-14 1.9622e-15 0)
(-1.07424e-14 1.83128e-15 0)
(-9.59138e-15 1.44022e-15 0)
(-9.3394e-15 6.91036e-16 0)
(-9.53705e-15 7.78276e-16 0)
(-9.46133e-15 7.52147e-16 0)
(-9.24795e-15 8.86192e-16 0)
(-9.49997e-15 7.47236e-16 0)
(-9.92459e-15 2.35485e-17 0)
(-1.03369e-14 5.59448e-16 0)
(-1.04536e-14 1.45151e-15 0)
(-9.58351e-15 1.81546e-15 0)
(-8.85827e-15 3.19264e-15 0)
(-7.99182e-15 3.81573e-15 0)
(-6.35384e-15 3.51935e-15 0)
(-4.7136e-15 3.18433e-15 0)
(-3.745e-15 2.88259e-15 0)
(-2.60741e-15 2.63802e-15 0)
(-5.6724e-16 2.35252e-15 0)
(1.23541e-15 2.39427e-15 0)
(2.8566e-15 2.22268e-15 0)
(4.80712e-15 1.55118e-15 0)
(6.23197e-15 6.1218e-16 0)
(6.96956e-15 -3.1924e-16 0)
(7.65828e-15 -1.09654e-15 0)
(8.20178e-15 -2.08377e-15 0)
(8.46001e-15 -2.83045e-15 0)
(8.50672e-15 -3.19874e-15 0)
(8.96745e-15 -3.25652e-15 0)
(9.45155e-15 -3.08812e-15 0)
(1.01451e-14 -2.64305e-15 0)
(1.15607e-14 -3.4735e-15 0)
(1.30179e-14 -3.82255e-15 0)
(1.4437e-14 -3.84709e-15 0)
(1.57601e-14 -3.86879e-15 0)
(1.73598e-14 -3.70593e-15 0)
(1.77986e-14 -3.12406e-15 0)
(1.71017e-14 -3.31086e-15 0)
(1.74412e-14 -3.71942e-15 0)
(1.84393e-14 -4.5138e-15 0)
(1.86558e-14 -5.89196e-15 0)
(1.80522e-14 -5.86385e-15 0)
(1.73219e-14 -5.76119e-15 0)
(1.64887e-14 -6.48533e-15 0)
(1.58319e-14 -6.17065e-15 0)
(1.60681e-14 -5.06835e-15 0)
(1.73169e-14 -4.85627e-15 0)
(1.90539e-14 -5.10291e-15 0)
(2.05961e-14 -5.62851e-15 0)
(2.14309e-14 -5.25792e-15 0)
(2.13641e-14 -5.07909e-15 0)
(2.10291e-14 -4.68046e-15 0)
(2.09423e-14 -4.78608e-15 0)
(2.11164e-14 -4.76452e-15 0)
(2.11281e-14 -4.89267e-15 0)
(2.08789e-14 -4.55057e-15 0)
(2.16682e-14 -4.01742e-15 0)
(2.2553e-14 -3.57896e-15 0)
(2.23217e-14 -3.95951e-15 0)
(2.15841e-14 -4.114e-15 0)
(2.13167e-14 -3.45169e-15 0)
(2.1382e-14 -3.04503e-15 0)
(2.10992e-14 -2.69017e-15 0)
(2.05562e-14 -2.86155e-15 0)
(2.01485e-14 -3.18202e-15 0)
(1.98218e-14 -2.80475e-15 0)
(2.00079e-14 -2.29999e-15 0)
(2.05754e-14 -2.20525e-15 0)
(2.03986e-14 -2.29155e-15 0)
(1.99389e-14 -2.4139e-15 0)
(1.99372e-14 -2.07297e-15 0)
(1.95598e-14 -2.10787e-15 0)
(1.85048e-14 -1.67656e-15 0)
(1.77381e-14 -1.19763e-15 0)
(1.67352e-14 -1.07197e-15 0)
(1.52267e-14 -1.88807e-15 0)
(1.33683e-14 -1.6409e-15 0)
(1.18537e-14 -7.70967e-16 0)
(1.07187e-14 -5.04964e-16 0)
(8.59021e-15 -2.77954e-16 0)
(5.1442e-15 -2.08339e-16 0)
(1.53446e-15 1.12153e-17 0)
(-4.35583e-16 -1.19099e-16 0)
(-1.4807e-15 -4.03176e-16 0)
(-2.88e-15 -1.03529e-15 0)
(-4.80708e-15 -1.21049e-15 0)
(-7.0195e-15 -1.24325e-15 0)
(-8.02733e-15 -9.07259e-16 0)
(-8.37863e-15 -5.41634e-16 0)
(-9.42004e-15 -1.5856e-16 0)
(-1.07503e-14 -4.19107e-16 0)
(-1.24103e-14 -9.60777e-16 0)
(-1.42362e-14 -1.11385e-15 0)
(-1.55337e-14 -2.98101e-16 0)
(-1.64225e-14 9.02259e-16 0)
(-1.73431e-14 2.73746e-15 0)
(-1.86669e-14 4.77139e-15 0)
(-1.98126e-14 5.29248e-15 0)
(-2.02677e-14 5.03353e-15 0)
(-1.99063e-14 4.2319e-15 0)
(-1.88491e-14 3.26468e-15 0)
(-1.75559e-14 2.64816e-15 0)
(-1.61799e-14 2.04887e-15 0)
(-1.53803e-14 1.54674e-15 0)
(-1.52888e-14 1.79816e-15 0)
(-1.53682e-14 1.7367e-15 0)
(-1.51712e-14 1.70437e-15 0)
(-1.55993e-14 1.23909e-15 0)
(-1.59416e-14 8.42532e-16 0)
(-1.58582e-14 1.35115e-15 0)
(-1.59061e-14 2.56297e-15 0)
(-1.46573e-14 3.42608e-15 0)
(-1.32842e-14 4.83777e-15 0)
(-1.21138e-14 5.66784e-15 0)
(-1.00529e-14 5.54434e-15 0)
(-7.80814e-15 5.26855e-15 0)
(-5.95579e-15 5.08875e-15 0)
(-4.10511e-15 4.98095e-15 0)
(-1.31421e-15 4.03397e-15 0)
(1.7905e-15 3.09377e-15 0)
(4.4218e-15 2.74696e-15 0)
(6.95896e-15 2.02245e-15 0)
(9.11049e-15 5.26777e-16 0)
(1.0589e-14 -4.63963e-16 0)
(1.16779e-14 -1.49705e-15 0)
(1.24529e-14 -2.79985e-15 0)
(1.31313e-14 -4.38028e-15 0)
(1.37049e-14 -5.22912e-15 0)
(1.46832e-14 -5.31667e-15 0)
(1.58357e-14 -5.08464e-15 0)
(1.68953e-14 -4.89757e-15 0)
(1.85737e-14 -5.683e-15 0)
(2.08884e-14 -6.1103e-15 0)
(2.32132e-14 -6.0822e-15 0)
(2.54129e-14 -6.09301e-15 0)
(2.77467e-14 -5.82819e-15 0)
(2.83686e-14 -5.88672e-15 0)
(2.78104e-14 -5.94456e-15 0)
(2.80625e-14 -6.18072e-15 0)
(2.86788e-14 -7.29381e-15 0)
(2.91127e-14 -9.42064e-15 0)
(2.8918e-14 -1.00304e-14 0)
(2.78838e-14 -1.00845e-14 0)
(2.6896e-14 -1.03189e-14 0)
(2.67333e-14 -9.75231e-15 0)
(2.72371e-14 -8.86197e-15 0)
(2.86842e-14 -8.42359e-15 0)
(3.06843e-14 -8.37527e-15 0)
(3.27541e-14 -8.82227e-15 0)
(3.41668e-14 -8.68261e-15 0)
(3.43789e-14 -8.596e-15 0)
(3.41584e-14 -8.09838e-15 0)
(3.40389e-14 -7.86636e-15 0)
(3.41237e-14 -7.6836e-15 0)
(3.40838e-14 -7.64212e-15 0)
(3.43407e-14 -7.33449e-15 0)
(3.55286e-14 -6.68378e-15 0)
(3.60858e-14 -6.47899e-15 0)
(3.5644e-14 -6.6127e-15 0)
(3.50643e-14 -6.4508e-15 0)
(3.48366e-14 -5.79967e-15 0)
(3.47679e-14 -5.34312e-15 0)
(3.3961e-14 -4.88612e-15 0)
(3.30629e-14 -4.89209e-15 0)
(3.27552e-14 -4.96255e-15 0)
(3.24795e-14 -4.63935e-15 0)
(3.26243e-14 -4.16052e-15 0)
(3.30645e-14 -3.90628e-15 0)
(3.26888e-14 -3.82315e-15 0)
(3.21834e-14 -3.62958e-15 0)
(3.182e-14 -3.10069e-15 0)
(3.09457e-14 -3.08488e-15 0)
(2.97686e-14 -2.77443e-15 0)
(2.83673e-14 -2.60087e-15 0)
(2.63606e-14 -2.4557e-15 0)
(2.39434e-14 -2.72161e-15 0)
(2.15119e-14 -2.41215e-15 0)
(1.91514e-14 -1.29723e-15 0)
(1.67371e-14 -1.04581e-15 0)
(1.30872e-14 -8.05823e-16 0)
(7.70904e-15 -7.44708e-16 0)
(2.32598e-15 -3.80646e-16 0)
(-7.22547e-16 -1.74739e-16 0)
(-2.38165e-15 -4.63545e-16 0)
(-4.36354e-15 -1.09357e-15 0)
(-6.83726e-15 -1.59782e-15 0)
(-9.25702e-15 -1.86877e-15 0)
(-1.04706e-14 -1.10627e-15 0)
(-1.13108e-14 -8.68776e-16 0)
(-1.29492e-14 -4.22806e-16 0)
(-1.50167e-14 -8.22914e-16 0)
(-1.71273e-14 -1.3633e-15 0)
(-1.89837e-14 -1.11419e-15 0)
(-2.03009e-14 9.25568e-17 0)
(-2.12987e-14 1.89469e-15 0)
(-2.23611e-14 3.57021e-15 0)
(-2.43981e-14 5.24709e-15 0)
(-2.64798e-14 6.38225e-15 0)
(-2.72976e-14 6.37743e-15 0)
(-2.7045e-14 6.05e-15 0)
(-2.59599e-14 4.83344e-15 0)
(-2.42177e-14 3.43858e-15 0)
(-2.22946e-14 2.65681e-15 0)
(-2.10525e-14 2.24079e-15 0)
(-2.08499e-14 2.31509e-15 0)
(-2.09311e-14 2.90183e-15 0)
(-2.09191e-14 3.23508e-15 0)
(-2.14163e-14 2.59703e-15 0)
(-2.13131e-14 2.60168e-15 0)
(-2.07188e-14 2.80866e-15 0)
(-2.03781e-14 3.80637e-15 0)
(-1.875e-14 5.06922e-15 0)
(-1.70782e-14 6.09281e-15 0)
(-1.59404e-14 6.87398e-15 0)
(-1.35043e-14 6.95095e-15 0)
(-1.03369e-14 7.03804e-15 0)
(-7.75102e-15 6.90214e-15 0)
(-5.61712e-15 6.70019e-15 0)
(-2.40371e-15 5.59275e-15 0)
(1.80506e-15 4.07774e-15 0)
(5.59918e-15 2.6389e-15 0)
(8.61073e-15 1.60264e-15 0)
(1.14261e-14 1.06893e-16 0)
(1.36994e-14 -9.29652e-16 0)
(1.50861e-14 -2.31296e-15 0)
(1.59172e-14 -3.68323e-15 0)
(1.69974e-14 -5.55814e-15 0)
(1.858e-14 -6.86625e-15 0)
(2.04198e-14 -7.09013e-15 0)
(2.18961e-14 -7.25594e-15 0)
(2.2957e-14 -7.27789e-15 0)
(2.52292e-14 -7.91949e-15 0)
(2.85759e-14 -8.01718e-15 0)
(3.16298e-14 -8.04543e-15 0)
(3.44038e-14 -8.06621e-15 0)
(3.70679e-14 -8.23091e-15 0)
(3.80231e-14 -8.86647e-15 0)
(3.76884e-14 -8.90019e-15 0)
(3.77343e-14 -9.40116e-15 0)
(3.77834e-14 -1.05203e-14 0)
(3.83921e-14 -1.26452e-14 0)
(3.89779e-14 -1.37353e-14 0)
(3.81784e-14 -1.40114e-14 0)
(3.73818e-14 -1.38602e-14 0)
(3.7272e-14 -1.31408e-14 0)
(3.77914e-14 -1.2479e-14 0)
(3.9436e-14 -1.20432e-14 0)
(4.17016e-14 -1.18299e-14 0)
(4.42633e-14 -1.20059e-14 0)
(4.61214e-14 -1.18485e-14 0)
(4.66504e-14 -1.185e-14 0)
(4.65965e-14 -1.15713e-14 0)
(4.64083e-14 -1.12717e-14 0)
(4.6521e-14 -1.06655e-14 0)
(4.66398e-14 -1.01537e-14 0)
(4.69354e-14 -9.59627e-15 0)
(4.80154e-14 -9.43151e-15 0)
(4.86769e-14 -9.56189e-15 0)
(4.8402e-14 -9.41619e-15 0)
(4.78695e-14 -8.82997e-15 0)
(4.74963e-14 -8.06059e-15 0)
(4.72356e-14 -7.5553e-15 0)
(4.63605e-14 -7.21971e-15 0)
(4.51194e-14 -6.80613e-15 0)
(4.45771e-14 -6.56938e-15 0)
(4.432e-14 -6.43762e-15 0)
(4.43957e-14 -6.02718e-15 0)
(4.47119e-14 -5.87282e-15 0)
(4.42751e-14 -5.53289e-15 0)
(4.3687e-14 -4.93105e-15 0)
(4.30023e-14 -4.28838e-15 0)
(4.16986e-14 -3.83067e-15 0)
(3.97689e-14 -3.69809e-15 0)
(3.78076e-14 -3.68487e-15 0)
(3.52235e-14 -3.733e-15 0)
(3.21018e-14 -3.52067e-15 0)
(2.91547e-14 -2.99138e-15 0)
(2.55528e-14 -1.91106e-15 0)
(2.16246e-14 -1.51734e-15 0)
(1.66431e-14 -1.67292e-15 0)
(9.94241e-15 -1.46603e-15 0)
(3.28846e-15 -6.19731e-16 0)
(-9.09928e-16 -3.68337e-16 0)
(-3.2404e-15 -5.13111e-16 0)
(-5.96006e-15 -1.06065e-15 0)
(-8.83403e-15 -1.6017e-15 0)
(-1.123e-14 -1.52488e-15 0)
(-1.27811e-14 -7.50028e-16 0)
(-1.41632e-14 -7.59248e-16 0)
(-1.644e-14 -7.43189e-16 0)
(-1.93121e-14 -1.22167e-15 0)
(-2.14486e-14 -1.43267e-15 0)
(-2.30392e-14 -5.83993e-16 0)
(-2.41924e-14 8.18792e-16 0)
(-2.55942e-14 2.85488e-15 0)
(-2.7287e-14 4.09482e-15 0)
(-2.94292e-14 5.08051e-15 0)
(-3.19382e-14 6.85353e-15 0)
(-3.33605e-14 7.52744e-15 0)
(-3.36336e-14 7.45561e-15 0)
(-3.30084e-14 6.27734e-15 0)
(-3.09433e-14 4.56116e-15 0)
(-2.83746e-14 3.56528e-15 0)
(-2.66253e-14 3.12421e-15 0)
(-2.56337e-14 2.88557e-15 0)
(-2.54111e-14 3.92733e-15 0)
(-2.60107e-14 4.68699e-15 0)
(-2.66187e-14 4.57268e-15 0)
(-2.6345e-14 4.3749e-15 0)
(-2.54784e-14 4.33116e-15 0)
(-2.44558e-14 5.02856e-15 0)
(-2.25912e-14 6.34138e-15 0)
(-2.06782e-14 6.91442e-15 0)
(-1.90161e-14 7.34925e-15 0)
(-1.61009e-14 8.20675e-15 0)
(-1.26039e-14 8.65985e-15 0)
(-9.54452e-15 8.24203e-15 0)
(-6.92196e-15 7.56578e-15 0)
(-3.48115e-15 6.6021e-15 0)
(1.09807e-15 5.17118e-15 0)
(5.81643e-15 2.87221e-15 0)
(9.95082e-15 1.17702e-15 0)
(1.35242e-14 -5.14237e-16 0)
(1.62421e-14 -2.22941e-15 0)
(1.80191e-14 -3.85906e-15 0)
(1.91784e-14 -5.00048e-15 0)
(2.05103e-14 -6.25128e-15 0)
(2.2869e-14 -7.82474e-15 0)
(2.53387e-14 -8.84192e-15 0)
(2.74355e-14 -9.6556e-15 0)
(2.91316e-14 -9.77101e-15 0)
(3.1868e-14 -9.91857e-15 0)
(3.57734e-14 -9.7777e-15 0)
(3.92973e-14 -1.01065e-14 0)
(4.24789e-14 -1.03879e-14 0)
(4.52992e-14 -1.10895e-14 0)
(4.67356e-14 -1.18196e-14 0)
(4.68081e-14 -1.23948e-14 0)
(4.67025e-14 -1.28417e-14 0)
(4.64538e-14 -1.39889e-14 0)
(4.69923e-14 -1.53309e-14 0)
(4.80257e-14 -1.65721e-14 0)
(4.77137e-14 -1.71831e-14 0)
(4.72641e-14 -1.72857e-14 0)
(4.74331e-14 -1.68307e-14 0)
(4.80632e-14 -1.61996e-14 0)
(4.98836e-14 -1.59562e-14 0)
(5.22695e-14 -1.5533e-14 0)
(5.50369e-14 -1.52959e-14 0)
(5.7124e-14 -1.5174e-14 0)
(5.77758e-14 -1.53924e-14 0)
(5.79966e-14 -1.51306e-14 0)
(5.82706e-14 -1.44829e-14 0)
(5.8616e-14 -1.34168e-14 0)
(5.86156e-14 -1.28455e-14 0)
(5.87344e-14 -1.22971e-14 0)
(5.96301e-14 -1.19487e-14 0)
(6.0352e-14 -1.22466e-14 0)
(6.04189e-14 -1.21896e-14 0)
(6.00853e-14 -1.13755e-14 0)
(5.95576e-14 -1.02735e-14 0)
(5.89599e-14 -9.39649e-15 0)
(5.78432e-14 -8.88813e-15 0)
(5.65911e-14 -9.0018e-15 0)
(5.5766e-14 -8.50099e-15 0)
(5.53394e-14 -8.38774e-15 0)
(5.5332e-14 -7.84135e-15 0)
(5.55742e-14 -7.58223e-15 0)
(5.52418e-14 -6.90536e-15 0)
(5.45048e-14 -6.04236e-15 0)
(5.34469e-14 -5.40454e-15 0)
(5.14344e-14 -4.85576e-15 0)
(4.8985e-14 -4.9812e-15 0)
(4.63583e-14 -4.75606e-15 0)
(4.32007e-14 -5.04353e-15 0)
(3.95946e-14 -4.09006e-15 0)
(3.59182e-14 -3.52482e-15 0)
(3.14562e-14 -2.87091e-15 0)
(2.59395e-14 -2.15743e-15 0)
(1.95724e-14 -2.24574e-15 0)
(1.19336e-14 -1.8939e-15 0)
(4.06118e-15 -7.18661e-16 0)
(-1.0411e-15 -3.28804e-16 0)
(-3.92024e-15 -7.827e-16 0)
(-7.36786e-15 -1.19484e-15 0)
(-1.04906e-14 -1.26388e-15 0)
(-1.29542e-14 -6.86505e-16 0)
(-1.5113e-14 -2.28826e-16 0)
(-1.73018e-14 -1.73273e-16 0)
(-2.00411e-14 -1.06891e-15 0)
(-2.30514e-14 -1.37284e-15 0)
(-2.50217e-14 -9.36448e-16 0)
(-2.65608e-14 2.5143e-16 0)
(-2.78296e-14 2.04646e-15 0)
(-2.96622e-14 3.75534e-15 0)
(-3.20589e-14 4.74254e-15 0)
(-3.40657e-14 5.48315e-15 0)
(-3.65207e-14 6.76703e-15 0)
(-3.86523e-14 7.58283e-15 0)
(-3.95832e-14 7.95742e-15 0)
(-3.94339e-14 7.05441e-15 0)
(-3.72159e-14 5.60778e-15 0)
(-3.40033e-14 4.5325e-15 0)
(-3.19261e-14 4.52405e-15 0)
(-3.04413e-14 4.66448e-15 0)
(-2.96406e-14 5.04416e-15 0)
(-3.03474e-14 5.71846e-15 0)
(-3.14344e-14 5.78542e-15 0)
(-3.11695e-14 5.07531e-15 0)
(-2.97339e-14 5.1685e-15 0)
(-2.80374e-14 6.00523e-15 0)
(-2.59155e-14 7.01811e-15 0)
(-2.40696e-14 7.62455e-15 0)
(-2.16846e-14 8.30305e-15 0)
(-1.80452e-14 9.24664e-15 0)
(-1.45484e-14 9.04362e-15 0)
(-1.14778e-14 8.43619e-15 0)
(-8.367e-15 7.74408e-15 0)
(-4.24879e-15 7.06777e-15 0)
(4.96206e-16 5.81517e-15 0)
(5.61277e-15 3.6158e-15 0)
(1.05089e-14 1.11256e-15 0)
(1.45934e-14 -1.35323e-15 0)
(1.80074e-14 -3.86375e-15 0)
(2.07364e-14 -5.48437e-15 0)
(2.26203e-14 -6.52981e-15 0)
(2.40555e-14 -6.96949e-15 0)
(2.64508e-14 -8.38593e-15 0)
(2.95333e-14 -1.01034e-14 0)
(3.24491e-14 -1.1364e-14 0)
(3.48909e-14 -1.19901e-14 0)
(3.83255e-14 -1.2049e-14 0)
(4.25396e-14 -1.17791e-14 0)
(4.62739e-14 -1.19496e-14 0)
(4.97063e-14 -1.25755e-14 0)
(5.28595e-14 -1.35519e-14 0)
(5.4572e-14 -1.45651e-14 0)
(5.49648e-14 -1.54839e-14 0)
(5.49993e-14 -1.6091e-14 0)
(5.46804e-14 -1.74839e-14 0)
(5.5347e-14 -1.84418e-14 0)
(5.64585e-14 -1.95472e-14 0)
(5.643e-14 -2.02042e-14 0)
(5.63668e-14 -2.03109e-14 0)
(5.68654e-14 -2.01659e-14 0)
(5.75269e-14 -1.99726e-14 0)
(5.95373e-14 -1.98489e-14 0)
(6.24141e-14 -1.96383e-14 0)
(6.53311e-14 -1.92412e-14 0)
(6.7317e-14 -1.91065e-14 0)
(6.82822e-14 -1.9067e-14 0)
(6.90964e-14 -1.829e-14 0)
(6.96645e-14 -1.70567e-14 0)
(6.98415e-14 -1.62354e-14 0)
(6.96765e-14 -1.57015e-14 0)
(6.99162e-14 -1.50167e-14 0)
(7.05057e-14 -1.43141e-14 0)
(7.10441e-14 -1.46189e-14 0)
(7.15615e-14 -1.45784e-14 0)
(7.16545e-14 -1.37672e-14 0)
(7.1137e-14 -1.25637e-14 0)
(7.02373e-14 -1.15887e-14 0)
(6.84047e-14 -1.09188e-14 0)
(6.69001e-14 -1.09842e-14 0)
(6.62482e-14 -1.02826e-14 0)
(6.57596e-14 -1.00921e-14 0)
(6.57119e-14 -9.59207e-15 0)
(6.58796e-14 -9.17489e-15 0)
(6.55463e-14 -8.25717e-15 0)
(6.44591e-14 -7.0391e-15 0)
(6.29401e-14 -6.5434e-15 0)
(6.03188e-14 -6.31574e-15 0)
(5.7232e-14 -6.19455e-15 0)
(5.40707e-14 -6.0309e-15 0)
(5.07459e-14 -6.02223e-15 0)
(4.6733e-14 -4.91869e-15 0)
(4.18219e-14 -3.79503e-15 0)
(3.64095e-14 -3.67652e-15 0)
(2.9803e-14 -3.21253e-15 0)
(2.21258e-14 -2.91739e-15 0)
(1.3616e-14 -2.34396e-15 0)
(4.8059e-15 -8.79232e-16 0)
(-1.48614e-15 -1.01315e-16 0)
(-4.95207e-15 -7.06039e-16 0)
(-8.51149e-15 -1.14772e-15 0)
(-1.16795e-14 -1.02681e-15 0)
(-1.46137e-14 -1.45323e-16 0)
(-1.7375e-14 1.43592e-16 0)
(-2.05047e-14 3.35919e-16 0)
(-2.37615e-14 -8.0776e-16 0)
(-2.63678e-14 -9.55224e-16 0)
(-2.81384e-14 7.39237e-17 0)
(-2.94619e-14 1.43574e-15 0)
(-3.09188e-14 3.19561e-15 0)
(-3.35107e-14 4.35558e-15 0)
(-3.63845e-14 5.57227e-15 0)
(-3.86205e-14 6.4651e-15 0)
(-4.1219e-14 6.99043e-15 0)
(-4.3305e-14 7.51487e-15 0)
(-4.47195e-14 8.21435e-15 0)
(-4.52257e-14 7.62995e-15 0)
(-4.30243e-14 6.69943e-15 0)
(-3.91221e-14 5.90991e-15 0)
(-3.62356e-14 5.35347e-15 0)
(-3.47607e-14 5.2757e-15 0)
(-3.39761e-14 5.65887e-15 0)
(-3.46468e-14 6.00436e-15 0)
(-3.61131e-14 5.82255e-15 0)
(-3.56371e-14 5.65788e-15 0)
(-3.33752e-14 6.43917e-15 0)
(-3.12817e-14 7.08587e-15 0)
(-2.90169e-14 7.51472e-15 0)
(-2.65958e-14 8.13442e-15 0)
(-2.37613e-14 9.30407e-15 0)
(-2.04389e-14 9.59078e-15 0)
(-1.69411e-14 8.79342e-15 0)
(-1.30389e-14 7.97662e-15 0)
(-9.20644e-15 7.69557e-15 0)
(-4.86128e-15 7.24985e-15 0)
(-5.18075e-17 5.85823e-15 0)
(5.08747e-15 3.76656e-15 0)
(1.0303e-14 8.35054e-16 0)
(1.50353e-14 -2.04707e-15 0)
(1.94011e-14 -4.85927e-15 0)
(2.31474e-14 -6.69128e-15 0)
(2.59535e-14 -7.75918e-15 0)
(2.77126e-14 -8.04814e-15 0)
(2.98018e-14 -9.32038e-15 0)
(3.30761e-14 -1.11686e-14 0)
(3.67204e-14 -1.26863e-14 0)
(4.01134e-14 -1.34335e-14 0)
(4.43731e-14 -1.35599e-14 0)
(4.90777e-14 -1.36861e-14 0)
(5.28083e-14 -1.38431e-14 0)
(5.62098e-14 -1.47343e-14 0)
(5.94673e-14 -1.56041e-14 0)
(6.15515e-14 -1.71646e-14 0)
(6.24106e-14 -1.81859e-14 0)
(6.2339e-14 -1.89279e-14 0)
(6.21075e-14 -2.04242e-14 0)
(6.30149e-14 -2.1587e-14 0)
(6.43318e-14 -2.30601e-14 0)
(6.47744e-14 -2.37411e-14 0)
(6.49515e-14 -2.37694e-14 0)
(6.54634e-14 -2.35358e-14 0)
(6.63425e-14 -2.32799e-14 0)
(6.8577e-14 -2.31846e-14 0)
(7.16335e-14 -2.33699e-14 0)
(7.48008e-14 -2.31534e-14 0)
(7.70125e-14 -2.28284e-14 0)
(7.84376e-14 -2.23175e-14 0)
(7.97598e-14 -2.14923e-14 0)
(8.0232e-14 -2.05427e-14 0)
(8.01878e-14 -1.96266e-14 0)
(8.01868e-14 -1.8713e-14 0)
(8.05217e-14 -1.78086e-14 0)
(8.07746e-14 -1.72944e-14 0)
(8.10544e-14 -1.6989e-14 0)
(8.19098e-14 -1.63267e-14 0)
(8.23204e-14 -1.54979e-14 0)
(8.17534e-14 -1.44811e-14 0)
(8.0576e-14 -1.36588e-14 0)
(7.84798e-14 -1.30744e-14 0)
(7.70109e-14 -1.24917e-14 0)
(7.61154e-14 -1.20443e-14 0)
(7.52764e-14 -1.18089e-14 0)
(7.51693e-14 -1.12304e-14 0)
(7.54203e-14 -1.05578e-14 0)
(7.52997e-14 -9.3581e-15 0)
(7.37675e-14 -8.07332e-15 0)
(7.13744e-14 -7.68141e-15 0)
(6.8342e-14 -7.55484e-15 0)
(6.49522e-14 -7.34439e-15 0)
(6.11917e-14 -7.1834e-15 0)
(5.74952e-14 -6.6372e-15 0)
(5.32772e-14 -5.95445e-15 0)
(4.72455e-14 -4.86004e-15 0)
(4.0481e-14 -4.37099e-15 0)
(3.30688e-14 -4.06693e-15 0)
(2.45083e-14 -3.78655e-15 0)
(1.52004e-14 -2.87985e-15 0)
(5.4661e-15 -1.00729e-15 0)
(-1.83214e-15 -1.35765e-16 0)
(-5.91436e-15 -3.11873e-16 0)
(-9.84975e-15 -4.93396e-16 0)
(-1.29321e-14 -4.24402e-16 0)
(-1.61132e-14 2.11308e-16 0)
(-1.95364e-14 4.24586e-16 0)
(-2.34728e-14 7.13411e-16 0)
(-2.71185e-14 4.29278e-16 0)
(-2.91723e-14 5.41228e-16 0)
(-3.06683e-14 1.69191e-15 0)
(-3.22891e-14 2.6175e-15 0)
(-3.42801e-14 3.93191e-15 0)
(-3.70089e-14 4.99316e-15 0)
(-3.99943e-14 6.42379e-15 0)
(-4.2777e-14 7.54159e-15 0)
(-4.56393e-14 8.01761e-15 0)
(-4.76583e-14 8.20638e-15 0)
(-4.93206e-14 8.28023e-15 0)
(-5.02113e-14 8.44497e-15 0)
(-4.79373e-14 8.01203e-15 0)
(-4.42246e-14 7.18782e-15 0)
(-4.14089e-14 5.8601e-15 0)
(-3.90383e-14 5.32063e-15 0)
(-3.77451e-14 5.52001e-15 0)
(-3.86871e-14 5.52519e-15 0)
(-3.99562e-14 5.61475e-15 0)
(-3.8755e-14 6.68023e-15 0)
(-3.64234e-14 7.81289e-15 0)
(-3.45755e-14 8.17885e-15 0)
(-3.19247e-14 8.37636e-15 0)
(-2.88388e-14 8.48057e-15 0)
(-2.5866e-14 9.08837e-15 0)
(-2.27277e-14 8.6967e-15 0)
(-1.90137e-14 8.18452e-15 0)
(-1.44719e-14 7.97728e-15 0)
(-9.94437e-15 7.85175e-15 0)
(-5.45745e-15 7.08303e-15 0)
(-7.1703e-16 5.48188e-15 0)
(4.46061e-15 3.4939e-15 0)
(9.91836e-15 5.78538e-16 0)
(1.51491e-14 -2.55046e-15 0)
(2.02907e-14 -5.37818e-15 0)
(2.51548e-14 -7.23809e-15 0)
(2.89371e-14 -8.7271e-15 0)
(3.0923e-14 -9.51093e-15 0)
(3.28438e-14 -1.03984e-14 0)
(3.64229e-14 -1.17788e-14 0)
(4.08549e-14 -1.32886e-14 0)
(4.50646e-14 -1.42599e-14 0)
(4.97291e-14 -1.47526e-14 0)
(5.47001e-14 -1.54085e-14 0)
(5.86321e-14 -1.60166e-14 0)
(6.22533e-14 -1.70193e-14 0)
(6.55534e-14 -1.79432e-14 0)
(6.77012e-14 -1.92822e-14 0)
(6.91462e-14 -2.07203e-14 0)
(6.91885e-14 -2.21256e-14 0)
(6.88256e-14 -2.34411e-14 0)
(6.96857e-14 -2.46808e-14 0)
(7.12585e-14 -2.62428e-14 0)
(7.23675e-14 -2.7076e-14 0)
(7.3064e-14 -2.7138e-14 0)
(7.39165e-14 -2.6814e-14 0)
(7.47111e-14 -2.66534e-14 0)
(7.6718e-14 -2.6903e-14 0)
(8.00516e-14 -2.73502e-14 0)
(8.3708e-14 -2.69698e-14 0)
(8.62328e-14 -2.6448e-14 0)
(8.78294e-14 -2.55872e-14 0)
(8.91716e-14 -2.47162e-14 0)
(8.99638e-14 -2.38213e-14 0)
(9.02342e-14 -2.26495e-14 0)
(9.01543e-14 -2.13214e-14 0)
(9.01761e-14 -2.04049e-14 0)
(9.03808e-14 -2.02211e-14 0)
(9.10463e-14 -1.97121e-14 0)
(9.19109e-14 -1.83606e-14 0)
(9.21689e-14 -1.72854e-14 0)
(9.15065e-14 -1.6167e-14 0)
(9.01166e-14 -1.52451e-14 0)
(8.79071e-14 -1.47375e-14 0)
(8.60756e-14 -1.39373e-14 0)
(8.49204e-14 -1.38532e-14 0)
(8.42631e-14 -1.33367e-14 0)
(8.42511e-14 -1.26247e-14 0)
(8.45484e-14 -1.15521e-14 0)
(8.42675e-14 -1.03289e-14 0)
(8.20945e-14 -9.3126e-15 0)
(7.91216e-14 -8.68147e-15 0)
(7.56403e-14 -8.45395e-15 0)
(7.17161e-14 -8.42366e-15 0)
(6.7792e-14 -8.34495e-15 0)
(6.36794e-14 -7.60747e-15 0)
(5.87227e-14 -7.03146e-15 0)
(5.21441e-14 -6.10579e-15 0)
(4.4447e-14 -5.08564e-15 0)
(3.57905e-14 -4.83664e-15 0)
(2.64424e-14 -4.6983e-15 0)
(1.67555e-14 -3.36442e-15 0)
(6.17892e-15 -1.29755e-15 0)
(-2.0462e-15 -2.37009e-17 0)
(-6.5928e-15 -3.82182e-17 0)
(-1.09367e-14 4.74196e-16 0)
(-1.43488e-14 9.62118e-16 0)
(-1.7929e-14 9.16477e-16 0)
(-2.16232e-14 9.55549e-16 0)
(-2.57409e-14 1.10382e-15 0)
(-2.97131e-14 1.81802e-15 0)
(-3.18276e-14 2.46421e-15 0)
(-3.35461e-14 2.89283e-15 0)
(-3.52707e-14 3.46395e-15 0)
(-3.71059e-14 5.14297e-15 0)
(-4.00246e-14 6.39779e-15 0)
(-4.31834e-14 7.71808e-15 0)
(-4.6348e-14 8.6883e-15 0)
(-4.97519e-14 9.08027e-15 0)
(-5.21579e-14 9.11159e-15 0)
(-5.35311e-14 8.85656e-15 0)
(-5.42866e-14 9.41195e-15 0)
(-5.26453e-14 8.89513e-15 0)
(-4.92119e-14 7.31278e-15 0)
(-4.59234e-14 6.10563e-15 0)
(-4.31374e-14 5.63366e-15 0)
(-4.17658e-14 5.61482e-15 0)
(-4.23233e-14 5.78529e-15 0)
(-4.27957e-14 6.26318e-15 0)
(-4.12989e-14 7.4885e-15 0)
(-3.9232e-14 8.10789e-15 0)
(-3.74142e-14 8.46329e-15 0)
(-3.48185e-14 9.0537e-15 0)
(-3.14541e-14 8.91402e-15 0)
(-2.823e-14 8.73901e-15 0)
(-2.48805e-14 7.90096e-15 0)
(-2.03199e-14 7.6294e-15 0)
(-1.51468e-14 7.60318e-15 0)
(-1.06943e-14 7.5073e-15 0)
(-6.36863e-15 6.48034e-15 0)
(-1.37675e-15 4.83158e-15 0)
(3.86303e-15 2.84301e-15 0)
(9.2664e-15 9.58556e-17 0)
(1.50259e-14 -2.98579e-15 0)
(2.12096e-14 -5.58506e-15 0)
(2.67454e-14 -7.22244e-15 0)
(3.10778e-14 -9.38989e-15 0)
(3.39629e-14 -1.06849e-14 0)
(3.6269e-14 -1.13337e-14 0)
(3.97369e-14 -1.20758e-14 0)
(4.43453e-14 -1.35972e-14 0)
(4.91679e-14 -1.4839e-14 0)
(5.43537e-14 -1.58322e-14 0)
(5.9665e-14 -1.67186e-14 0)
(6.38106e-14 -1.76248e-14 0)
(6.76074e-14 -1.88236e-14 0)
(7.11835e-14 -2.02471e-14 0)
(7.33804e-14 -2.17527e-14 0)
(7.46013e-14 -2.33693e-14 0)
(7.49508e-14 -2.54889e-14 0)
(7.50954e-14 -2.65513e-14 0)
(7.6006e-14 -2.769e-14 0)
(7.77535e-14 -2.88548e-14 0)
(7.94053e-14 -2.97698e-14 0)
(8.05461e-14 -3.00423e-14 0)
(8.13718e-14 -3.01275e-14 0)
(8.20362e-14 -3.06542e-14 0)
(8.40854e-14 -3.09286e-14 0)
(8.78982e-14 -3.13657e-14 0)
(9.2071e-14 -3.08098e-14 0)
(9.49027e-14 -3.01684e-14 0)
(9.68104e-14 -2.87777e-14 0)
(9.83397e-14 -2.72192e-14 0)
(9.91757e-14 -2.59353e-14 0)
(9.95595e-14 -2.51952e-14 0)
(9.94537e-14 -2.36773e-14 0)
(9.90079e-14 -2.28636e-14 0)
(9.89971e-14 -2.29847e-14 0)
(1.00137e-13 -2.25537e-14 0)
(1.01367e-13 -2.09953e-14 0)
(1.01518e-13 -1.93626e-14 0)
(1.00712e-13 -1.81152e-14 0)
(9.89255e-14 -1.703e-14 0)
(9.65516e-14 -1.64318e-14 0)
(9.45566e-14 -1.53594e-14 0)
(9.32131e-14 -1.49188e-14 0)
(9.25719e-14 -1.44725e-14 0)
(9.25792e-14 -1.3601e-14 0)
(9.28662e-14 -1.26765e-14 0)
(9.22987e-14 -1.18462e-14 0)
(8.98409e-14 -1.09559e-14 0)
(8.6278e-14 -9.75991e-15 0)
(8.21014e-14 -9.4247e-15 0)
(7.77761e-14 -9.46093e-15 0)
(7.35752e-14 -9.2011e-15 0)
(6.91388e-14 -8.68559e-15 0)
(6.37989e-14 -8.18286e-15 0)
(5.66746e-14 -7.25093e-15 0)
(4.78307e-14 -6.20844e-15 0)
(3.80155e-14 -5.94442e-15 0)
(2.83074e-14 -5.06797e-15 0)
(1.8251e-14 -3.44079e-15 0)
(6.97791e-15 -1.23488e-15 0)
(-2.41898e-15 1.52971e-16 0)
(-7.17759e-15 4.99531e-16 0)
(-1.16179e-14 1.35588e-15 0)
(-1.58533e-14 2.23641e-15 0)
(-2.00178e-14 2.08833e-15 0)
(-2.38864e-14 1.86258e-15 0)
(-2.78664e-14 2.22577e-15 0)
(-3.16523e-14 2.8795e-15 0)
(-3.43984e-14 3.77397e-15 0)
(-3.64108e-14 4.23372e-15 0)
(-3.75463e-14 5.1139e-15 0)
(-3.94288e-14 6.66098e-15 0)
(-4.276e-14 8.14333e-15 0)
(-4.62232e-14 9.22385e-15 0)
(-4.98768e-14 9.84454e-15 0)
(-5.3534e-14 9.88817e-15 0)
(-5.60539e-14 9.94337e-15 0)
(-5.72868e-14 1.00562e-14 0)
(-5.82706e-14 9.84883e-15 0)
(-5.74293e-14 8.92685e-15 0)
(-5.40612e-14 7.50206e-15 0)
(-5.02545e-14 6.3343e-15 0)
(-4.68302e-14 5.9135e-15 0)
(-4.48776e-14 5.81643e-15 0)
(-4.52539e-14 5.84339e-15 0)
(-4.55221e-14 6.65923e-15 0)
(-4.39513e-14 7.88825e-15 0)
(-4.19347e-14 8.229e-15 0)
(-3.97054e-14 8.64465e-15 0)
(-3.69242e-14 9.3724e-15 0)
(-3.38099e-14 9.64419e-15 0)
(-3.06661e-14 8.93422e-15 0)
(-2.6832e-14 7.70642e-15 0)
(-2.16862e-14 7.59085e-15 0)
(-1.61265e-14 7.13155e-15 0)
(-1.14055e-14 6.57764e-15 0)
(-7.10419e-15 5.55889e-15 0)
(-2.10492e-15 4.29104e-15 0)
(3.22049e-15 2.14634e-15 0)
(8.79845e-15 -5.11469e-16 0)
(1.50126e-14 -3.15445e-15 0)
(2.20307e-14 -5.37475e-15 0)
(2.79648e-14 -7.50716e-15 0)
(3.26955e-14 -9.49134e-15 0)
(3.64516e-14 -1.13099e-14 0)
(3.94056e-14 -1.2307e-14 0)
(4.29591e-14 -1.29513e-14 0)
(4.76404e-14 -1.41647e-14 0)
(5.28603e-14 -1.55324e-14 0)
(5.84092e-14 -1.6591e-14 0)
(6.40583e-14 -1.78275e-14 0)
(6.83516e-14 -1.89081e-14 0)
(7.21449e-14 -2.04062e-14 0)
(7.57194e-14 -2.22629e-14 0)
(7.8163e-14 -2.43384e-14 0)
(7.95268e-14 -2.60552e-14 0)
(8.02798e-14 -2.79214e-14 0)
(8.08777e-14 -2.91705e-14 0)
(8.18459e-14 -3.03934e-14 0)
(8.37246e-14 -3.15953e-14 0)
(8.56099e-14 -3.25442e-14 0)
(8.70384e-14 -3.34006e-14 0)
(8.78487e-14 -3.39101e-14 0)
(8.86846e-14 -3.37945e-14 0)
(9.09722e-14 -3.41217e-14 0)
(9.5152e-14 -3.45428e-14 0)
(9.98375e-14 -3.42719e-14 0)
(1.03195e-13 -3.33349e-14 0)
(1.05656e-13 -3.14608e-14 0)
(1.07076e-13 -2.97043e-14 0)
(1.0739e-13 -2.83892e-14 0)
(1.07928e-13 -2.75124e-14 0)
(1.07973e-13 -2.61173e-14 0)
(1.06836e-13 -2.56671e-14 0)
(1.06781e-13 -2.5735e-14 0)
(1.08672e-13 -2.49301e-14 0)
(1.10374e-13 -2.3236e-14 0)
(1.1032e-13 -2.1277e-14 0)
(1.09138e-13 -1.98653e-14 0)
(1.07122e-13 -1.84431e-14 0)
(1.04726e-13 -1.75422e-14 0)
(1.02574e-13 -1.66611e-14 0)
(1.00728e-13 -1.6172e-14 0)
(1.00128e-13 -1.59219e-14 0)
(1.00172e-13 -1.48889e-14 0)
(1.00098e-13 -1.40367e-14 0)
(9.93884e-14 -1.30599e-14 0)
(9.70039e-14 -1.19001e-14 0)
(9.30526e-14 -1.07323e-14 0)
(8.79931e-14 -1.0284e-14 0)
(8.32296e-14 -1.02712e-14 0)
(7.88061e-14 -9.71822e-15 0)
(7.38374e-14 -9.29781e-15 0)
(6.80158e-14 -8.94756e-15 0)
(6.05225e-14 -8.32266e-15 0)
(5.08797e-14 -7.52721e-15 0)
(4.04985e-14 -6.87306e-15 0)
(3.03923e-14 -5.01224e-15 0)
(1.97399e-14 -3.0853e-15 0)
(7.57128e-15 -8.03025e-16 0)
(-2.58559e-15 5.04757e-16 0)
(-7.70475e-15 1.50355e-15 0)
(-1.23956e-14 2.40911e-15 0)
(-1.7164e-14 3.33805e-15 0)
(-2.20994e-14 3.72758e-15 0)
(-2.59063e-14 3.62884e-15 0)
(-2.98273e-14 3.86542e-15 0)
(-3.38309e-14 4.18903e-15 0)
(-3.64881e-14 5.00332e-15 0)
(-3.85964e-14 6.14819e-15 0)
(-3.98752e-14 7.04431e-15 0)