/*--------------------------------*- C++ -*----------------------------------*\
| =========                 |                                                 |
| \\      /  F ield         | OpenFOAM: The Open Source CFD Toolbox           |
|  \\    /   O peration     | Version:  v2012                                 |
|   \\  /    A nd           | Website:  www.openfoam.com                      |
|    \\/     M anipulation  |                                                 |
\*---------------------------------------------------------------------------*/
FoamFile
{
    version     2.0;
    format      ascii;
    class       volVectorField;
    location    "70";
    object      Usup;
}
// * * * * * * * * * * * * * * * * * * * * * * * * * * * * * * * * * * * * * //

dimensions      [0 1 -1 0 0 0 0];


internalField   nonuniform List<vector> 
4000
(
(0.000355561 -0.000911688 0)
(0.00120968 -0.00294792 0)
(0.00106142 -0.00503557 0)
(-0.000946749 -0.00654106 0)
(-0.00317482 -0.00852922 0)
(-0.00423233 -0.00945841 0)
(-0.00403709 -0.00959017 0)
(-0.00383787 -0.0105742 0)
(-0.00435442 -0.012136 0)
(-0.00380514 -0.0149416 0)
(-0.00123847 -0.0152272 0)
(-0.000144528 -0.0148047 0)
(0.000682988 -0.0142415 0)
(0.00203229 -0.0135064 0)
(0.0014529 -0.0141922 0)
(0.00164167 -0.0134802 0)
(0.00341489 -0.0138383 0)
(0.00413718 -0.0154528 0)
(0.00405946 -0.0166023 0)
(0.00419219 -0.01615 0)
(0.00561424 -0.0163118 0)
(0.00772895 -0.0160473 0)
(0.00578167 -0.016339 0)
(0.00373447 -0.0149588 0)
(0.00579752 -0.0146981 0)
(0.00561644 -0.0145322 0)
(0.00227427 -0.012528 0)
(0.0016151 -0.0109438 0)
(0.00272101 -0.0117597 0)
(-0.00117754 -0.0119564 0)
(-0.00605653 -0.0105888 0)
(-0.00609517 -0.00965353 0)
(-0.00592563 -0.00898106 0)
(-0.00722195 -0.0088486 0)
(-0.0095092 -0.00826074 0)
(-0.0118236 -0.00616561 0)
(-0.0137289 -0.00417882 0)
(-0.0154509 -0.0016069 0)
(-0.0161584 -0.00111602 0)
(-0.0143785 -0.000409207 0)
(-0.0127743 -0.000316783 0)
(-0.0129313 0.000986323 0)
(-0.0126867 0.00216889 0)
(-0.0122976 0.00275055 0)
(-0.0123877 0.00220291 0)
(-0.0129587 0.00211969 0)
(-0.0123784 0.00248923 0)
(-0.0094864 0.00378206 0)
(-0.00677464 0.00581745 0)
(-0.00477453 0.00753616 0)
(-0.00166712 0.00777403 0)
(0.000975618 0.00873253 0)
(0.00243643 0.00878465 0)
(0.00373717 0.0103366 0)
(0.00559771 0.0100564 0)
(0.00813044 0.0103524 0)
(0.0105407 0.0109479 0)
(0.0114281 0.0108525 0)
(0.0127807 0.0113017 0)
(0.0151835 0.0109037 0)
(0.0158443 0.00987731 0)
(0.0118 0.00881887 0)
(0.00591287 0.00986976 0)
(0.00463655 0.0103318 0)
(0.00623979 0.00997571 0)
(0.00522387 0.00969397 0)
(0.00125242 0.0100051 0)
(-0.00172115 0.0105637 0)
(-0.00319956 0.0101253 0)
(-0.00482502 0.00906294 0)
(-0.00726786 0.00990885 0)
(-0.00769904 0.0099149 0)
(-0.00607623 0.0108622 0)
(-0.00554301 0.00997358 0)
(-0.00472607 0.0102918 0)
(-0.00629475 0.0092899 0)
(-0.010495 0.0100585 0)
(-0.0142868 0.0106848 0)
(-0.0168031 0.0116011 0)
(-0.0163638 0.0142839 0)
(-0.0145143 0.0156822 0)
(-0.0139802 0.0162988 0)
(-0.0127989 0.0172174 0)
(-0.00858346 0.0189908 0)
(-0.00569751 0.0188086 0)
(-0.0035647 0.0171808 0)
(-0.0012976 0.0163937 0)
(0.000748618 0.0159533 0)
(0.00477252 0.0159534 0)
(0.00668393 0.0137943 0)
(0.00616405 0.0147013 0)
(0.00859867 0.0140931 0)
(0.0124724 0.0136029 0)
(0.0136748 0.0123141 0)
(0.0136676 0.011349 0)
(0.0129865 0.0103527 0)
(0.0115039 0.00799825 0)
(0.0106312 0.00585086 0)
(0.00878721 0.00316892 0)
(0.00387939 0.00114094 0)
(0.000570349 -0.00295299 0)
(0.00166537 -0.0094325 0)
(0.000942964 -0.0147805 0)
(-0.00373405 -0.0204594 0)
(-0.00856395 -0.0251627 0)
(-0.010119 -0.0281243 0)
(-0.0104669 -0.0303921 0)
(-0.0114303 -0.0323527 0)
(-0.0134639 -0.0374003 0)
(-0.0109258 -0.0428761 0)
(-0.00327582 -0.0444646 0)
(0.00039057 -0.044454 0)
(0.00303101 -0.0424059 0)
(0.00503845 -0.0411989 0)
(0.00469802 -0.0421544 0)
(0.00590161 -0.0419612 0)
(0.00786322 -0.0439387 0)
(0.00921276 -0.0464354 0)
(0.0111521 -0.0480346 0)
(0.0126977 -0.048485 0)
(0.0156173 -0.0483633 0)
(0.0192441 -0.0480466 0)
(0.0166022 -0.0485203 0)
(0.0131772 -0.0461072 0)
(0.0150953 -0.0441662 0)
(0.0152576 -0.0423198 0)
(0.00959673 -0.0378075 0)
(0.00503281 -0.0344848 0)
(0.00373864 -0.0352043 0)
(-0.0033843 -0.035125 0)
(-0.0130313 -0.0312293 0)
(-0.015604 -0.029283 0)
(-0.0173197 -0.0283703 0)
(-0.0211011 -0.0260418 0)
(-0.025379 -0.0228577 0)
(-0.0302221 -0.0175799 0)
(-0.034851 -0.0130082 0)
(-0.040061 -0.00807485 0)
(-0.0429879 -0.00460651 0)
(-0.0400202 -0.00155669 0)
(-0.0363005 0.000380467 0)
(-0.0351826 0.00272224 0)
(-0.0349365 0.00613745 0)
(-0.0352189 0.00785601 0)
(-0.0355001 0.00714112 0)
(-0.0351268 0.00702608 0)
(-0.0318284 0.0087668 0)
(-0.0237856 0.0131541 0)
(-0.0164349 0.0175007 0)
(-0.0116611 0.0220673 0)
(-0.00433629 0.0243731 0)
(0.00250492 0.0253012 0)
(0.00767786 0.0258106 0)
(0.0117249 0.0292308 0)
(0.0160847 0.0315492 0)
(0.0231708 0.032948 0)
(0.0288825 0.0337679 0)
(0.0319669 0.0327704 0)
(0.0353504 0.0339632 0)
(0.0389622 0.0325675 0)
(0.0389401 0.0291418 0)
(0.0316496 0.0267125 0)
(0.020411 0.0281172 0)
(0.0151664 0.0307006 0)
(0.0157543 0.0300323 0)
(0.0127923 0.0290108 0)
(0.00444672 0.0297595 0)
(-0.00363897 0.0317033 0)
(-0.00959765 0.02958 0)
(-0.0133302 0.0269575 0)
(-0.0180547 0.0282215 0)
(-0.0194818 0.0297083 0)
(-0.0176704 0.0311546 0)
(-0.0172379 0.0300826 0)
(-0.0166605 0.0306167 0)
(-0.0205794 0.02784 0)
(-0.0287854 0.0303365 0)
(-0.0375037 0.0330493 0)
(-0.0417381 0.0362656 0)
(-0.0409906 0.0418532 0)
(-0.0387927 0.0466678 0)
(-0.036855 0.049505 0)
(-0.0319154 0.0525144 0)
(-0.02311 0.0563041 0)
(-0.0178233 0.0555897 0)
(-0.01187 0.0526145 0)
(-0.00448556 0.0506878 0)
(0.00243921 0.0486352 0)
(0.0105475 0.0481891 0)
(0.0167092 0.0434926 0)
(0.0191156 0.0432285 0)
(0.024239 0.042106 0)
(0.0322386 0.0404331 0)
(0.035433 0.0373711 0)
(0.0361437 0.0344959 0)
(0.0336328 0.0296904 0)
(0.0293899 0.0244715 0)
(0.0260473 0.0180114 0)
(0.0204093 0.010113 0)
(0.00866341 0.00324643 0)
(0.000182568 -0.00531991 0)
(0.00131447 -0.0156728 0)
(-0.000637396 -0.0250653 0)
(-0.00718897 -0.0350158 0)
(-0.0128218 -0.0414549 0)
(-0.0156673 -0.047044 0)
(-0.0161119 -0.0508152 0)
(-0.0184405 -0.055255 0)
(-0.0217414 -0.062494 0)
(-0.016829 -0.0676845 0)
(-0.0059241 -0.0699818 0)
(0.00128696 -0.0715983 0)
(0.00589439 -0.0696464 0)
(0.00777676 -0.0687716 0)
(0.00738424 -0.069696 0)
(0.00843715 -0.0717575 0)
(0.0113647 -0.0750098 0)
(0.0145601 -0.0776156 0)
(0.0171471 -0.0789512 0)
(0.0199289 -0.0794937 0)
(0.0245057 -0.0794341 0)
(0.0284497 -0.0793361 0)
(0.0258502 -0.0802068 0)
(0.0228065 -0.0777977 0)
(0.0248516 -0.0728411 0)
(0.0245056 -0.0685954 0)
(0.0167109 -0.0643401 0)
(0.00845665 -0.0600945 0)
(0.00411638 -0.0575961 0)
(-0.00468636 -0.0568143 0)
(-0.0175864 -0.0521004 0)
(-0.0242693 -0.0498988 0)
(-0.0270394 -0.0487522 0)
(-0.0314048 -0.0438481 0)
(-0.0377301 -0.0375095 0)
(-0.045395 -0.0302972 0)
(-0.0530757 -0.0235326 0)
(-0.0597905 -0.0167276 0)
(-0.0634388 -0.00927509 0)
(-0.060749 -0.00401603 0)
(-0.057086 0.000675759 0)
(-0.0551049 0.00473914 0)
(-0.054217 0.00898152 0)
(-0.05564 0.0117522 0)
(-0.0561532 0.0136062 0)
(-0.0537586 0.0142087 0)
(-0.0463329 0.0174712 0)
(-0.0345473 0.0239817 0)
(-0.0238092 0.029247 0)
(-0.0155161 0.0363237 0)
(-0.00636322 0.0399567 0)
(0.00301248 0.0410749 0)
(0.0127929 0.0436311 0)
(0.0214065 0.0475039 0)
(0.0282984 0.0528777 0)
(0.0368285 0.0552205 0)
(0.0439457 0.0563812 0)
(0.0495793 0.054976 0)
(0.054644 0.0553346 0)
(0.0570967 0.0532998 0)
(0.0562106 0.0483945 0)
(0.0479291 0.045525 0)
(0.035265 0.0460218 0)
(0.0267944 0.0503095 0)
(0.0235326 0.0501982 0)
(0.0185975 0.0478328 0)
(0.00815872 0.0483505 0)
(-0.00511744 0.0503037 0)
(-0.0163018 0.047868 0)
(-0.0212034 0.0455891 0)
(-0.0260286 0.0456586 0)
(-0.0286318 0.0485994 0)
(-0.0282985 0.0487242 0)
(-0.0283986 0.0481041 0)
(-0.029853 0.0486289 0)
(-0.0348872 0.0481341 0)
(-0.0437136 0.0510936 0)
(-0.055383 0.05614 0)
(-0.0611891 0.062462 0)
(-0.0599047 0.0693551 0)
(-0.0570791 0.076845 0)
(-0.0543539 0.0819951 0)
(-0.0468365 0.0872355 0)
(-0.035976 0.0909507 0)
(-0.0290561 0.0897571 0)
(-0.0196171 0.087978 0)
(-0.00851422 0.0855195 0)
(0.00289025 0.08298 0)
(0.0144877 0.0807478 0)
(0.0234781 0.0752897 0)
(0.0299684 0.0722505 0)
(0.0381978 0.0705225 0)
(0.0485043 0.067016 0)
(0.0532 0.0619957 0)
(0.0531485 0.0561285 0)
(0.0495707 0.0478096 0)
(0.0436677 0.0399126 0)
(0.036606 0.0294235 0)
(0.0273697 0.0173703 0)
(0.0114738 0.00474493 0)
(5.8249e-05 -0.0080833 0)
(6.43819e-05 -0.0216438 0)
(-0.00368815 -0.0359929 0)
(-0.010681 -0.0479159 0)
(-0.0168222 -0.0575777 0)
(-0.0198003 -0.0650389 0)
(-0.0212339 -0.069993 0)
(-0.0256734 -0.0773219 0)
(-0.0283858 -0.084837 0)
(-0.020975 -0.0889403 0)
(-0.0081229 -0.0922976 0)
(0.00124572 -0.0951125 0)
(0.00807255 -0.0952968 0)
(0.0100656 -0.0966966 0)
(0.00898615 -0.0984527 0)
(0.0101075 -0.101338 0)
(0.0138144 -0.103104 0)
(0.018362 -0.106506 0)
(0.0231163 -0.108757 0)
(0.0269715 -0.108609 0)
(0.0318915 -0.109449 0)
(0.035768 -0.11039 0)
(0.0337485 -0.110755 0)
(0.0329154 -0.105397 0)
(0.0351488 -0.0983622 0)
(0.0325407 -0.0934274 0)
(0.0229992 -0.0917044 0)
(0.0133931 -0.0860229 0)
(0.00551027 -0.0793504 0)
(-0.00619067 -0.0772031 0)
(-0.0214882 -0.074134 0)
(-0.0314782 -0.0717616 0)
(-0.035206 -0.0674598 0)
(-0.0396605 -0.0613957 0)
(-0.0473509 -0.052435 0)
(-0.0569842 -0.0434007 0)
(-0.0663376 -0.0341172 0)
(-0.0742677 -0.0251845 0)
(-0.0797029 -0.0151083 0)
(-0.0780859 -0.00886776 0)
(-0.0738523 -0.00135754 0)
(-0.0719749 0.00651016 0)
(-0.0715367 0.0111996 0)
(-0.0722763 0.0156633 0)
(-0.0727081 0.0209559 0)
(-0.0692639 0.0234262 0)
(-0.057996 0.0287492 0)
(-0.04287 0.0356678 0)
(-0.0285131 0.0420077 0)
(-0.0180038 0.0496362 0)
(-0.00774774 0.0543538 0)
(0.0052752 0.0579027 0)
(0.0186762 0.0614166 0)
(0.0306066 0.0658399 0)
(0.0397077 0.0708517 0)
(0.0495746 0.0746736 0)
(0.0577974 0.0772205 0)
(0.0643297 0.0765779 0)
(0.0703509 0.0743589 0)
(0.0718707 0.0725838 0)
(0.070034 0.0680929 0)
(0.0616601 0.0640861 0)
(0.0489652 0.0640468 0)
(0.0381428 0.0674678 0)
(0.0300255 0.0681043 0)
(0.0225801 0.064981 0)
(0.0108096 0.0645287 0)
(-0.00607056 0.0641565 0)
(-0.0209108 0.0641097 0)
(-0.0279142 0.0633375 0)
(-0.0331345 0.0622495 0)
(-0.0370919 0.0648531 0)
(-0.0389404 0.0653867 0)
(-0.0392967 0.0645482 0)
(-0.0406072 0.064971 0)
(-0.0468081 0.0679667 0)
(-0.0568296 0.0718245 0)
(-0.0687552 0.0779477 0)
(-0.0752956 0.0871582 0)
(-0.0742388 0.0965555 0)
(-0.0713738 0.10605 0)
(-0.0677412 0.112947 0)
(-0.0587368 0.119165 0)
(-0.0474973 0.122826 0)
(-0.0386725 0.122851 0)
(-0.0262017 0.121917 0)
(-0.0119222 0.119141 0)
(0.00270184 0.117489 0)
(0.016369 0.112778 0)
(0.0284163 0.106937 0)
(0.0388741 0.101588 0)
(0.0494979 0.0982765 0)
(0.060859 0.0923825 0)
(0.0661417 0.0856861 0)
(0.0660194 0.0754518 0)
(0.0616341 0.0642759 0)
(0.0537182 0.0521548 0)
(0.0438622 0.0386501 0)
(0.0311463 0.023485 0)
(0.0132377 0.00678619 0)
(0.000123755 -0.0110163 0)
(-0.00145948 -0.0284534 0)
(-0.00655274 -0.0467618 0)
(-0.0142262 -0.061058 0)
(-0.0208414 -0.0723228 0)
(-0.0235895 -0.0801032 0)
(-0.0261792 -0.0878448 0)
(-0.0316489 -0.095704 0)
(-0.0329381 -0.103791 0)
(-0.0242935 -0.108089 0)
(-0.010877 -0.112855 0)
(0.000502366 -0.117373 0)
(0.00797583 -0.120604 0)
(0.0103927 -0.124691 0)
(0.010334 -0.127155 0)
(0.0128571 -0.128597 0)
(0.017036 -0.129471 0)
(0.0213297 -0.132831 0)
(0.0277045 -0.135794 0)
(0.0325671 -0.13533 0)
(0.0372668 -0.135406 0)
(0.0419246 -0.139778 0)
(0.0432432 -0.139506 0)
(0.0443381 -0.13114 0)
(0.0446175 -0.122692 0)
(0.0381317 -0.117326 0)
(0.0277135 -0.115512 0)
(0.0195736 -0.110642 0)
(0.00862588 -0.100619 0)
(-0.0078499 -0.0964824 0)
(-0.0258706 -0.0944512 0)
(-0.0361875 -0.0921295 0)
(-0.0403254 -0.0857468 0)
(-0.0454384 -0.0776972 0)
(-0.0539304 -0.0663691 0)
(-0.0655576 -0.0548811 0)
(-0.0769227 -0.0448321 0)
(-0.0856792 -0.0348461 0)
(-0.0926003 -0.0229481 0)
(-0.0917522 -0.0130347 0)
(-0.0861359 -0.00363464 0)
(-0.0852927 0.00624193 0)
(-0.0857802 0.01472 0)
(-0.0853804 0.0216333 0)
(-0.0856388 0.0283182 0)
(-0.0808515 0.0332246 0)
(-0.0666525 0.0406046 0)
(-0.0493317 0.0487148 0)
(-0.0324439 0.0556349 0)
(-0.0192829 0.0630492 0)
(-0.00683818 0.0687838 0)
(0.00777911 0.0730611 0)
(0.0239152 0.0782781 0)
(0.0390295 0.0842596 0)
(0.050717 0.0881001 0)
(0.0624303 0.0932348 0)
(0.070664 0.0948109 0)
(0.0762381 0.094973 0)
(0.082875 0.0925778 0)
(0.084664 0.0903613 0)
(0.080996 0.085884 0)
(0.0724808 0.0812935 0)
(0.0605448 0.0807273 0)
(0.0481266 0.0812189 0)
(0.0359654 0.0799355 0)
(0.0255811 0.0782701 0)
(0.0117297 0.0770189 0)
(-0.00677639 0.0754377 0)
(-0.0233397 0.0763319 0)
(-0.0335322 0.0757209 0)
(-0.039671 0.0753285 0)
(-0.0437913 0.079177 0)
(-0.0478147 0.0798979 0)
(-0.0497368 0.081107 0)
(-0.0506683 0.0821749 0)
(-0.056561 0.0850403 0)
(-0.0673011 0.0907958 0)
(-0.078964 0.0984119 0)
(-0.0848806 0.110176 0)
(-0.0838233 0.122427 0)
(-0.0813429 0.132716 0)
(-0.0780478 0.142019 0)
(-0.0684541 0.149245 0)
(-0.0563179 0.153417 0)
(-0.0463351 0.154855 0)
(-0.0323327 0.15524 0)
(-0.015045 0.152247 0)
(0.00168208 0.149835 0)
(0.0168474 0.142549 0)
(0.0313515 0.137244 0)
(0.0450147 0.130234 0)
(0.0580241 0.124443 0)
(0.0705721 0.116562 0)
(0.0754954 0.106791 0)
(0.0739581 0.0936181 0)
(0.0692519 0.0791937 0)
(0.0605154 0.0625708 0)
(0.0488814 0.0461959 0)
(0.033641 0.0288733 0)
(0.0140647 0.00967627 0)
(1.58227e-05 -0.0131531 0)
(-0.00348185 -0.0361322 0)
(-0.0103281 -0.0555427 0)
(-0.017077 -0.0715032 0)
(-0.0227562 -0.0843517 0)
(-0.0266077 -0.0939985 0)
(-0.0305788 -0.10345 0)
(-0.0368154 -0.112336 0)
(-0.0375763 -0.120217 0)
(-0.0275341 -0.125898 0)
(-0.0139558 -0.13177 0)
(-0.00221318 -0.139316 0)
(0.00629471 -0.145156 0)
(0.0102008 -0.149806 0)
(0.0123289 -0.152458 0)
(0.0158889 -0.152094 0)
(0.0194808 -0.154268 0)
(0.0236686 -0.158178 0)
(0.0322146 -0.161582 0)
(0.0389879 -0.160661 0)
(0.040905 -0.159769 0)
(0.0451154 -0.162746 0)
(0.0518467 -0.161432 0)
(0.0558762 -0.154676 0)
(0.0543712 -0.146956 0)
(0.0447566 -0.141729 0)
(0.032069 -0.136588 0)
(0.0252708 -0.131148 0)
(0.0131595 -0.122078 0)
(-0.00866459 -0.115967 0)
(-0.0297196 -0.112884 0)
(-0.0406406 -0.108513 0)
(-0.0440255 -0.101842 0)
(-0.0486526 -0.0933165 0)
(-0.0575846 -0.0809186 0)
(-0.0716912 -0.0678363 0)
(-0.085157 -0.0553174 0)
(-0.093938 -0.0419264 0)
(-0.100645 -0.0299237 0)
(-0.101115 -0.0168205 0)
(-0.0965004 -0.00570569 0)
(-0.0945254 0.00624654 0)
(-0.0951859 0.017906 0)
(-0.0958328 0.0283919 0)
(-0.0959097 0.0367287 0)
(-0.0895098 0.044013 0)
(-0.072589 0.0526578 0)
(-0.0535966 0.0607985 0)
(-0.0348654 0.0698358 0)
(-0.0199327 0.0774099 0)
(-0.00649884 0.0835607 0)
(0.0115579 0.0882363 0)
(0.0313805 0.0951749 0)
(0.0472034 0.101622 0)
(0.0603351 0.105978 0)
(0.072841 0.109594 0)
(0.0811322 0.109722 0)
(0.0876433 0.110737 0)
(0.093818 0.109672 0)
(0.0944475 0.105261 0)
(0.0899018 0.101341 0)
(0.0818297 0.0965126 0)
(0.0693044 0.0940329 0)
(0.054159 0.0913171 0)
(0.0405903 0.0888333 0)
(0.0289399 0.086928 0)
(0.0125851 0.0842395 0)
(-0.00744061 0.083692 0)
(-0.0260303 0.0844493 0)
(-0.0380091 0.0849627 0)
(-0.043401 0.0858208 0)
(-0.0492786 0.0906784 0)
(-0.0552458 0.0912335 0)
(-0.0573984 0.0939742 0)
(-0.059816 0.0965878 0)
(-0.0654065 0.0998003 0)
(-0.0750732 0.106597 0)
(-0.0853689 0.117652 0)
(-0.0902367 0.132086 0)
(-0.0905031 0.145818 0)
(-0.088528 0.15579 0)
(-0.0845356 0.166805 0)
(-0.0754552 0.175376 0)
(-0.0635665 0.181027 0)
(-0.0519888 0.183297 0)
(-0.0369255 0.185764 0)
(-0.018703 0.182347 0)
(-0.00120705 0.17922 0)
(0.0162318 0.17118 0)
(0.0339715 0.165132 0)
(0.0490983 0.15745 0)
(0.0637696 0.149333 0)
(0.0763498 0.13895 0)
(0.0809172 0.124047 0)
(0.0793634 0.10871 0)
(0.0732494 0.0926842 0)
(0.0636441 0.0730662 0)
(0.0521216 0.0535185 0)
(0.0354586 0.034014 0)
(0.0139338 0.0121359 0)
(-0.00145153 -0.0151354 0)
(-0.00535491 -0.042296 0)
(-0.0115477 -0.0616616 0)
(-0.0197727 -0.0788313 0)
(-0.0262805 -0.0941787 0)
(-0.0301593 -0.106612 0)
(-0.0348801 -0.116472 0)
(-0.0409903 -0.127107 0)
(-0.0408879 -0.135885 0)
(-0.0309754 -0.141533 0)
(-0.0185327 -0.148978 0)
(-0.00634838 -0.158658 0)
(0.00423191 -0.164721 0)
(0.0100393 -0.169405 0)
(0.0147143 -0.172957 0)
(0.0186417 -0.173086 0)
(0.0207152 -0.176537 0)
(0.0250428 -0.181341 0)
(0.0357463 -0.182827 0)
(0.0443459 -0.182753 0)
(0.0464902 -0.181643 0)
(0.0513655 -0.179609 0)
(0.0592365 -0.178245 0)
(0.0639678 -0.175254 0)
(0.0616248 -0.169065 0)
(0.0512502 -0.164543 0)
(0.0384879 -0.156887 0)
(0.0303129 -0.14838 0)
(0.0165405 -0.143664 0)
(-0.0080129 -0.136666 0)
(-0.0311263 -0.130409 0)
(-0.0425095 -0.121325 0)
(-0.047139 -0.112915 0)
(-0.0514743 -0.104631 0)
(-0.0599116 -0.0937844 0)
(-0.0744714 -0.0804298 0)
(-0.0881633 -0.0652364 0)
(-0.0992011 -0.0488397 0)
(-0.107465 -0.0354124 0)
(-0.107648 -0.0203624 0)
(-0.102661 -0.00674013 0)
(-0.100768 0.00740077 0)
(-0.101316 0.0207207 0)
(-0.101964 0.0350398 0)
(-0.102741 0.0461944 0)
(-0.0953368 0.0556529 0)
(-0.0774465 0.0643228 0)
(-0.0560929 0.071961 0)
(-0.0353303 0.0824714 0)
(-0.0196436 0.0917239 0)
(-0.00451237 0.0984105 0)
(0.0154812 0.103547 0)
(0.0375541 0.108957 0)
(0.0551723 0.115904 0)
(0.0688998 0.122479 0)
(0.0812414 0.124474 0)
(0.0907457 0.125182 0)
(0.0978874 0.124817 0)
(0.102079 0.121954 0)
(0.102228 0.117122 0)
(0.0974701 0.112781 0)
(0.0880393 0.106823 0)
(0.0748423 0.102718 0)
(0.0591887 0.0983011 0)
(0.0441392 0.0970504 0)
(0.0298247 0.0926465 0)
(0.0129304 0.0879691 0)
(-0.00714195 0.0880918 0)
(-0.0268597 0.0887005 0)
(-0.0405906 0.0913145 0)
(-0.0467122 0.0935721 0)
(-0.0537414 0.0970311 0)
(-0.0616171 0.0997274 0)
(-0.0641717 0.103228 0)
(-0.066981 0.106598 0)
(-0.0721995 0.11231 0)
(-0.0795895 0.120622 0)
(-0.0876639 0.13407 0)
(-0.0928033 0.150215 0)
(-0.0950796 0.165009 0)
(-0.0934375 0.177219 0)
(-0.088873 0.186574 0)
(-0.0798847 0.196051 0)
(-0.068173 0.203498 0)
(-0.0557236 0.208319 0)
(-0.0407366 0.210113 0)
(-0.0222105 0.206983 0)
(-0.00348378 0.203361 0)
(0.0148324 0.198633 0)
(0.0346256 0.190466 0)
(0.0514413 0.181153 0)
(0.0667693 0.171459 0)
(0.0781197 0.157445 0)
(0.0824479 0.140272 0)
(0.0822557 0.121554 0)
(0.0756958 0.103706 0)
(0.0648903 0.0837184 0)
(0.0532741 0.0610948 0)
(0.0359784 0.0372362 0)
(0.0129695 0.0131427 0)
(-0.00244469 -0.0167014 0)
(-0.0064933 -0.0444155 0)
(-0.0129775 -0.0672471 0)
(-0.0225669 -0.0865567 0)
(-0.0295396 -0.102537 0)
(-0.0331658 -0.116185 0)
(-0.0386939 -0.127516 0)
(-0.0461462 -0.13878 0)
(-0.0444629 -0.148898 0)
(-0.0339696 -0.155272 0)
(-0.0233263 -0.162545 0)
(-0.0101488 -0.1715 0)
(0.00268916 -0.178132 0)
(0.0092226 -0.183299 0)
(0.0155321 -0.185955 0)
(0.0200133 -0.189804 0)
(0.0209897 -0.194757 0)
(0.027358 -0.198287 0)
(0.0400826 -0.197893 0)
(0.0491642 -0.198723 0)
(0.0526633 -0.197386 0)
(0.0568556 -0.195461 0)
(0.0636763 -0.193817 0)
(0.0702288 -0.191845 0)
(0.0684235 -0.186711 0)
(0.0580393 -0.183775 0)
(0.0460154 -0.175172 0)
(0.0344186 -0.165814 0)
(0.0182342 -0.162043 0)
(-0.00568021 -0.155964 0)
(-0.0285413 -0.145559 0)
(-0.0411829 -0.133555 0)
(-0.0483542 -0.1231 0)
(-0.0542618 -0.113116 0)
(-0.062361 -0.10253 0)
(-0.0758866 -0.0900558 0)
(-0.0893148 -0.0749907 0)
(-0.101051 -0.0578798 0)
(-0.109784 -0.0410304 0)
(-0.110531 -0.0219125 0)
(-0.10647 -0.00709801 0)
(-0.104161 0.00746994 0)
(-0.103739 0.0238367 0)
(-0.104632 0.0402094 0)
(-0.106505 0.0545078 0)
(-0.0996593 0.0656567 0)
(-0.0812567 0.0756122 0)
(-0.057554 0.0859857 0)
(-0.0338362 0.0950128 0)
(-0.0176128 0.103184 0)
(-0.00295104 0.110214 0)
(0.0184233 0.116312 0)
(0.0437126 0.121708 0)
(0.0643222 0.127617 0)
(0.077459 0.134895 0)
(0.088911 0.13807 0)
(0.0982088 0.138538 0)
(0.104174 0.135982 0)
(0.108348 0.13128 0)
(0.108255 0.125917 0)
(0.102252 0.118761 0)
(0.0927871 0.11274 0)
(0.0791052 0.109037 0)
(0.0632997 0.103448 0)
(0.046661 0.100464 0)
(0.0291417 0.0951933 0)
(0.0125697 0.0902334 0)
(-0.00716739 0.0898306 0)
(-0.0274162 0.0893409 0)
(-0.0414388 0.0922046 0)
(-0.0491433 0.0970506 0)
(-0.0572776 0.100498 0)
(-0.0654976 0.105219 0)
(-0.069272 0.110488 0)
(-0.0721349 0.114618 0)
(-0.0761458 0.121375 0)
(-0.0820365 0.13189 0)
(-0.0880815 0.146124 0)
(-0.0927717 0.163413 0)
(-0.0958355 0.179447 0)
(-0.0967791 0.193278 0)
(-0.092756 0.201917 0)
(-0.082159 0.212797 0)
(-0.0700337 0.22205 0)
(-0.0584027 0.228038 0)
(-0.0446137 0.22859 0)
(-0.025595 0.227415 0)
(-0.00442369 0.223559 0)
(0.0144646 0.220416 0)
(0.0334371 0.212397 0)
(0.0517734 0.201209 0)
(0.0669868 0.189124 0)
(0.0776292 0.172469 0)
(0.0817321 0.154303 0)
(0.0820332 0.134335 0)
(0.0767082 0.112992 0)
(0.064787 0.0924164 0)
(0.0512713 0.0677408 0)
(0.0343428 0.0392283 0)
(0.0123812 0.0128854 0)
(-0.0026298 -0.0171419 0)
(-0.00825304 -0.0454989 0)
(-0.01576 -0.0703842 0)
(-0.0250688 -0.0915855 0)
(-0.0324025 -0.109014 0)
(-0.0368331 -0.123669 0)
(-0.0428362 -0.136335 0)
(-0.0502399 -0.147308 0)
(-0.0479685 -0.157157 0)
(-0.03674 -0.166038 0)
(-0.0264447 -0.173862 0)
(-0.0136498 -0.179273 0)
(0.000114967 -0.186263 0)
(0.00940091 -0.190954 0)
(0.0156793 -0.19243 0)
(0.0185799 -0.200788 0)
(0.0215292 -0.206155 0)
(0.0303532 -0.206993 0)
(0.0434765 -0.207107 0)
(0.0530236 -0.210194 0)
(0.057212 -0.209628 0)
(0.0620323 -0.208395 0)
(0.0693125 -0.206375 0)
(0.0756287 -0.204528 0)
(0.0726535 -0.201582 0)
(0.0631233 -0.197926 0)
(0.0530248 -0.189248 0)
(0.0389225 -0.181593 0)
(0.0200936 -0.176676 0)
(-0.00243038 -0.170476 0)
(-0.0241346 -0.158157 0)
(-0.038422 -0.146945 0)
(-0.0474002 -0.134928 0)
(-0.0543755 -0.122545 0)
(-0.0635331 -0.10955 0)
(-0.0770819 -0.0968978 0)
(-0.0892777 -0.0813699 0)
(-0.100457 -0.063496 0)
(-0.108183 -0.0453739 0)
(-0.11028 -0.0248978 0)
(-0.108576 -0.0075768 0)
(-0.105053 0.00777705 0)
(-0.103388 0.0242418 0)
(-0.104281 0.0414237 0)
(-0.107213 0.0591307 0)
(-0.100876 0.0738957 0)
(-0.0809709 0.0872068 0)
(-0.0572793 0.0988969 0)
(-0.0347528 0.105523 0)
(-0.016896 0.1112 0)
(0.000482118 0.1202 0)
(0.0230561 0.128244 0)
(0.0486751 0.133752 0)
(0.0711743 0.137243 0)
(0.0861163 0.143488 0)
(0.0963073 0.14817 0)
(0.103976 0.146864 0)
(0.109103 0.14423 0)
(0.11232 0.139062 0)
(0.110975 0.130823 0)
(0.105227 0.121272 0)
(0.0970608 0.115079 0)
(0.0822789 0.111301 0)
(0.0647891 0.105872 0)
(0.0472707 0.0999178 0)
(0.0285452 0.0935937 0)
(0.0121025 0.0884772 0)
(-0.00786584 0.0872561 0)
(-0.0282982 0.0883197 0)
(-0.0410533 0.0906652 0)
(-0.0494536 0.096499 0)
(-0.0590153 0.101667 0)
(-0.0677516 0.107162 0)
(-0.072765 0.113432 0)
(-0.0763825 0.117986 0)
(-0.0786811 0.125826 0)
(-0.0821231 0.137983 0)
(-0.0863628 0.152504 0)
(-0.0907268 0.170393 0)
(-0.0953457 0.187151 0)
(-0.0981227 0.201393 0)
(-0.0939026 0.213765 0)
(-0.0818895 0.225341 0)
(-0.0705605 0.235863 0)
(-0.0607966 0.241606 0)
(-0.0470122 0.242522 0)
(-0.0274484 0.243621 0)
(-0.00579586 0.241095 0)
(0.0138122 0.235963 0)
(0.0319171 0.228881 0)
(0.0497655 0.218098 0)
(0.0648245 0.203549 0)
(0.0751064 0.18527 0)
(0.0799786 0.165306 0)
(0.0799738 0.144082 0)
(0.075065 0.121057 0)
(0.0635795 0.0982514 0)
(0.0477342 0.0722599 0)
(0.0308763 0.0410676 0)
(0.0118437 0.0131792 0)
(-0.00307074 -0.0175438 0)
(-0.00938559 -0.046929 0)
(-0.0182732 -0.0721235 0)
(-0.0286982 -0.0942117 0)
(-0.0359967 -0.113082 0)
(-0.040208 -0.128568 0)
(-0.0461737 -0.141051 0)
(-0.0538631 -0.152788 0)
(-0.0522175 -0.15973 0)
(-0.04119 -0.169363 0)
(-0.028447 -0.179364 0)
(-0.0147269 -0.18432 0)
(-0.00116291 -0.190565 0)
(0.00979415 -0.19382 0)
(0.0138737 -0.195945 0)
(0.0159976 -0.203958 0)
(0.0229925 -0.20873 0)
(0.0336455 -0.210133 0)
(0.0450218 -0.21219 0)
(0.0547442 -0.215293 0)
(0.0613469 -0.215926 0)
(0.0662761 -0.216015 0)
(0.0729209 -0.215606 0)
(0.0792158 -0.214341 0)
(0.077487 -0.213136 0)
(0.0697492 -0.20813 0)
(0.058796 -0.20043 0)
(0.0422948 -0.192746 0)
(0.0226778 -0.187288 0)
(0.00167718 -0.178834 0)
(-0.0201124 -0.167748 0)
(-0.0355929 -0.158105 0)
(-0.0444564 -0.146248 0)
(-0.0520777 -0.13108 0)
(-0.062233 -0.117162 0)
(-0.0758996 -0.102737 0)
(-0.0871639 -0.0855475 0)
(-0.0982731 -0.0665414 0)
(-0.105935 -0.0467795 0)
(-0.107664 -0.0275838 0)
(-0.107333 -0.00845567 0)
(-0.105214 0.00726166 0)
(-0.102627 0.0233454 0)
(-0.10141 0.0427873 0)
(-0.103482 0.061902 0)
(-0.097898 0.0808839 0)
(-0.079395 0.0968582 0)
(-0.0578837 0.107026 0)
(-0.0355621 0.113012 0)
(-0.0143528 0.120487 0)
(0.00540394 0.129516 0)
(0.027577 0.13761 0)
(0.0528006 0.142737 0)
(0.0770629 0.146451 0)
(0.0939312 0.15046 0)
(0.102344 0.153913 0)
(0.108339 0.151905 0)
(0.113013 0.148638 0)
(0.114006 0.142391 0)
(0.110966 0.132907 0)
(0.106058 0.122434 0)
(0.0997825 0.115167 0)
(0.0850564 0.107697 0)
(0.0656112 0.101922 0)
(0.0459446 0.0948494 0)
(0.0264274 0.0887435 0)
(0.0108361 0.0834044 0)
(-0.00719008 0.079877 0)
(-0.0276137 0.0830156 0)
(-0.040806 0.0867361 0)
(-0.0489318 0.0924246 0)
(-0.0596029 0.0978779 0)
(-0.0690943 0.1047 0)
(-0.0754623 0.110178 0)
(-0.0789074 0.116106 0)
(-0.0788759 0.125849 0)
(-0.0811367 0.137884 0)
(-0.0838579 0.153779 0)
(-0.0872676 0.17061 0)
(-0.0927448 0.189288 0)
(-0.0959564 0.204727 0)
(-0.0922485 0.219449 0)
(-0.080725 0.232139 0)
(-0.070043 0.241891 0)
(-0.0621801 0.248118 0)
(-0.0481788 0.251754 0)
(-0.0278453 0.253745 0)
(-0.0072978 0.251853 0)
(0.0122098 0.246798 0)
(0.0309228 0.239463 0)
(0.0475182 0.229943 0)
(0.0607638 0.214937 0)
(0.0707085 0.196803 0)
(0.075629 0.175423 0)
(0.076359 0.151338 0)
(0.0722902 0.128112 0)
(0.0604453 0.101518 0)
(0.0430045 0.0731469 0)
(0.0270637 0.0430774 0)
(0.0112319 0.0143508 0)
(-0.00341443 -0.0173444 0)
(-0.0109571 -0.0476103 0)
(-0.020845 -0.0738502 0)
(-0.0319288 -0.0955218 0)
(-0.0396281 -0.113813 0)
(-0.043508 -0.129087 0)
(-0.0499533 -0.141981 0)
(-0.0556551 -0.15207 0)
(-0.0535011 -0.157763 0)
(-0.0455915 -0.167808 0)
(-0.0324468 -0.176991 0)
(-0.0171116 -0.18318 0)
(-0.00204906 -0.189368 0)
(0.0104919 -0.194626 0)
(0.013602 -0.198257 0)
(0.0149301 -0.201002 0)
(0.0231047 -0.20319 0)
(0.0342318 -0.207231 0)
(0.0463068 -0.211593 0)
(0.0569538 -0.21524 0)
(0.0632213 -0.216929 0)
(0.0684421 -0.219648 0)
(0.0760961 -0.21933 0)
(0.082106 -0.218022 0)
(0.0807145 -0.218962 0)
(0.0745201 -0.215643 0)
(0.0646934 -0.208489 0)
(0.0470164 -0.199866 0)
(0.0266391 -0.192328 0)
(0.00600211 -0.183115 0)
(-0.0171513 -0.174856 0)
(-0.0332014 -0.164786 0)
(-0.0403908 -0.154523 0)
(-0.0480128 -0.138589 0)
(-0.0597111 -0.123157 0)
(-0.0726196 -0.107131 0)
(-0.0829223 -0.0884918 0)
(-0.0933413 -0.0692241 0)
(-0.101681 -0.048393 0)
(-0.104603 -0.0290105 0)
(-0.105429 -0.00974988 0)
(-0.103744 0.00697038 0)
(-0.0985802 0.0239177 0)
(-0.0961308 0.0448476 0)
(-0.0979362 0.064015 0)
(-0.0920933 0.0853922 0)
(-0.0765157 0.10336 0)
(-0.057708 0.11546 0)
(-0.0344476 0.122466 0)
(-0.0114572 0.129432 0)
(0.00936898 0.137085 0)
(0.0320764 0.143185 0)
(0.057402 0.149301 0)
(0.0818493 0.15493 0)
(0.0991334 0.15715 0)
(0.107119 0.15575 0)
(0.11167 0.152778 0)
(0.115035 0.147566 0)
(0.114505 0.140596 0)
(0.110302 0.13173 0)
(0.10585 0.123162 0)
(0.0990048 0.113098 0)
(0.0839476 0.100769 0)
(0.0649795 0.0912654 0)
(0.0451344 0.0840476 0)
(0.0253676 0.0786141 0)
(0.00835335 0.0748014 0)
(-0.00791776 0.0705552 0)
(-0.0255442 0.0730605 0)
(-0.0388639 0.07865 0)
(-0.0482916 0.0840395 0)
(-0.0591516 0.0889289 0)
(-0.0698208 0.0970121 0)
(-0.0772615 0.102467 0)
(-0.0793257 0.110257 0)
(-0.0784984 0.119984 0)
(-0.0784992 0.133548 0)
(-0.0799219 0.150717 0)
(-0.0824785 0.166667 0)
(-0.0878118 0.185328 0)
(-0.0926005 0.202261 0)
(-0.0889142 0.218469 0)
(-0.0785122 0.233435 0)
(-0.0693992 0.241287 0)
(-0.0611899 0.248489 0)
(-0.0472674 0.254875 0)
(-0.0282983 0.257153 0)
(-0.00823193 0.257242 0)
(0.011009 0.253298 0)
(0.0294329 0.245338 0)
(0.0451485 0.235705 0)
(0.0572394 0.222944 0)
(0.0660211 0.205262 0)
(0.0695086 0.183438 0)
(0.0709575 0.158527 0)
(0.0668906 0.13336 0)
(0.0542884 0.104193 0)
(0.0386785 0.0755269 0)
(0.0246325 0.0455632 0)
(0.0100503 0.0153853 0)
(-0.00431687 -0.0175519 0)
(-0.0131162 -0.0476863 0)
(-0.023444 -0.0736438 0)
(-0.0344936 -0.0943169 0)
(-0.0423193 -0.110869 0)
(-0.0466964 -0.125105 0)
(-0.0520357 -0.138961 0)
(-0.0568055 -0.145933 0)
(-0.0568182 -0.15312 0)
(-0.0494805 -0.162097 0)
(-0.0345691 -0.169945 0)
(-0.0189615 -0.175969 0)
(-0.00476916 -0.180518 0)
(0.00818857 -0.187957 0)
(0.0143432 -0.194631 0)
(0.0178007 -0.19554 0)
(0.024111 -0.196887 0)
(0.0333818 -0.200955 0)
(0.0451689 -0.205553 0)
(0.0568443 -0.211976 0)
(0.0639469 -0.21555 0)
(0.0699692 -0.218326 0)
(0.0789685 -0.217077 0)
(0.0834956 -0.216741 0)
(0.0821616 -0.219563 0)
(0.0790561 -0.216931 0)
(0.0704636 -0.209715 0)
(0.0525099 -0.201528 0)
(0.0314318 -0.193194 0)
(0.00895166 -0.186674 0)
(-0.0142769 -0.178723 0)
(-0.030358 -0.167109 0)
(-0.0369352 -0.155845 0)
(-0.0426772 -0.142016 0)
(-0.0545328 -0.126699 0)
(-0.0674021 -0.10958 0)
(-0.0775854 -0.090192 0)
(-0.0880849 -0.0710667 0)
(-0.0963323 -0.0501995 0)
(-0.0995385 -0.0290689 0)
(-0.101138 -0.0104876 0)
(-0.100351 0.00809726 0)
(-0.0939658 0.0256701 0)
(-0.0900861 0.0453281 0)
(-0.0904765 0.0644113 0)
(-0.0841089 0.0870876 0)
(-0.0704659 0.106823 0)
(-0.0547888 0.121512 0)
(-0.0337991 0.130713 0)
(-0.00951777 0.136744 0)
(0.0122811 0.14404 0)
(0.03601 0.148871 0)
(0.0635031 0.154233 0)
(0.0873717 0.159319 0)
(0.101326 0.160474 0)
(0.107889 0.155851 0)
(0.112694 0.149968 0)
(0.115624 0.142486 0)
(0.114658 0.134131 0)
(0.110672 0.126277 0)
(0.104609 0.118683 0)
(0.0948124 0.104668 0)
(0.0793128 0.0901706 0)
(0.062077 0.0792754 0)
(0.0435624 0.0718717 0)
(0.0244883 0.0643553 0)
(0.00756157 0.0605928 0)
(-0.00810243 0.0591268 0)
(-0.0235821 0.06172 0)
(-0.0368844 0.0663863 0)
(-0.0476487 0.0699561 0)
(-0.0583213 0.0752769 0)
(-0.0692164 0.0831888 0)
(-0.0774418 0.0912294 0)
(-0.079192 0.100229 0)
(-0.0761313 0.112217 0)
(-0.0738511 0.127649 0)
(-0.0753963 0.143642 0)
(-0.0778638 0.159074 0)
(-0.0822934 0.176528 0)
(-0.0864723 0.194499 0)
(-0.0828606 0.213371 0)
(-0.0756456 0.227955 0)
(-0.0683996 0.236034 0)
(-0.0589743 0.244602 0)
(-0.0456632 0.25257 0)
(-0.0268172 0.25765 0)
(-0.00756729 0.259371 0)
(0.00936271 0.255104 0)
(0.0272342 0.247885 0)
(0.0435925 0.239316 0)
(0.054127 0.226409 0)