/*--------------------------------*- C++ -*----------------------------------*\
| =========                 |                                                 |
| \\      /  F ield         | OpenFOAM: The Open Source CFD Toolbox           |
|  \\    /   O peration     | Version:  v2012                                 |
|   \\  /    A nd           | Website:  www.openfoam.com                      |
|    \\/     M anipulation  |                                                 |
\*---------------------------------------------------------------------------*/
FoamFile
{
    version     2.0;
    format      ascii;
    class       volVectorField;
    location    "4.5";
    object      U;
}
// * * * * * * * * * * * * * * * * * * * * * * * * * * * * * * * * * * * * * //

dimensions      [0 1 -1 0 0 0 0];


internalField   nonuniform List<vector> 
65536
(
(0.000736135 -0.000736118 0)
(0.00220837 -0.000736081 0)
(0.00368049 -0.00073601 0)
(0.00515244 -0.000735903 0)
(0.00662414 -0.00073576 0)
(0.00809552 -0.00073558 0)
(0.0095665 -0.000735363 0)
(0.011037 -0.000735107 0)
(0.012507 -0.000734812 0)
(0.0139763 -0.000734477 0)
(0.0154449 -0.000734101 0)
(0.0169127 -0.000733682 0)
(0.0183797 -0.000733219 0)
(0.0198457 -0.00073271 0)
(0.0213106 -0.000732154 0)
(0.0227743 -0.000731549 0)
(0.0242368 -0.000730893 0)
(0.025698 -0.000730184 0)
(0.0271576 -0.00072942 0)
(0.0286157 -0.000728599 0)
(0.0300721 -0.000727718 0)
(0.0315266 -0.000726775 0)
(0.0329792 -0.000725767 0)
(0.0344298 -0.000724692 0)
(0.0358781 -0.000723546 0)
(0.037324 -0.000722328 0)
(0.0387675 -0.000721034 0)
(0.0402082 -0.000719662 0)
(0.0416462 -0.000718207 0)
(0.0430811 -0.000716667 0)
(0.0445129 -0.000715039 0)
(0.0459414 -0.00071332 0)
(0.0473663 -0.000711505 0)
(0.0487875 -0.000709593 0)
(0.0502048 -0.000707578 0)
(0.0516179 -0.000705459 0)
(0.0530267 -0.00070323 0)
(0.054431 -0.00070089 0)
(0.0558304 -0.000698434 0)
(0.0572248 -0.000695858 0)
(0.058614 -0.00069316 0)
(0.0599976 -0.000690335 0)
(0.0613754 -0.00068738 0)
(0.0627472 -0.000684292 0)
(0.0641127 -0.000681066 0)
(0.0654716 -0.0006777 0)
(0.0668237 -0.00067419 0)
(0.0681685 -0.000670533 0)
(0.0695059 -0.000666725 0)
(0.0708356 -0.000662764 0)
(0.0721572 -0.000658645 0)
(0.0734703 -0.000654367 0)
(0.0747748 -0.000649925 0)
(0.0760702 -0.000645318 0)
(0.0773562 -0.000640542 0)
(0.0786325 -0.000635595 0)
(0.0798988 -0.000630475 0)
(0.0811546 -0.000625179 0)
(0.0823997 -0.000619704 0)
(0.0836336 -0.00061405 0)
(0.0848561 -0.000608214 0)
(0.0860666 -0.000602194 0)
(0.087265 -0.000595989 0)
(0.0884508 -0.000589599 0)
(0.0896236 -0.000583021 0)
(0.0907831 -0.000576255 0)
(0.0919288 -0.000569301 0)
(0.0930604 -0.000562158 0)
(0.0941776 -0.000554826 0)
(0.0952799 -0.000547305 0)
(0.096367 -0.000539595 0)
(0.0974385 -0.000531697 0)
(0.098494 -0.000523613 0)
(0.0995331 -0.000515342 0)
(0.100556 -0.000506887 0)
(0.101561 -0.000498248 0)
(0.102549 -0.000489429 0)
(0.103519 -0.00048043 0)
(0.104471 -0.000471255 0)
(0.105404 -0.000461907 0)
(0.106318 -0.000452387 0)
(0.107214 -0.0004427 0)
(0.108089 -0.000432848 0)
(0.108945 -0.000422836 0)
(0.109781 -0.000412667 0)
(0.110596 -0.000402346 0)
(0.11139 -0.000391876 0)
(0.112164 -0.000381263 0)
(0.112916 -0.000370512 0)
(0.113646 -0.000359627 0)
(0.114354 -0.000348614 0)
(0.11504 -0.000337478 0)
(0.115704 -0.000326225 0)
(0.116345 -0.000314861 0)
(0.116964 -0.000303391 0)
(0.117559 -0.000291822 0)
(0.118131 -0.00028016 0)
(0.11868 -0.000268411 0)
(0.119205 -0.000256582 0)
(0.119706 -0.00024468 0)
(0.120184 -0.00023271 0)
(0.120637 -0.00022068 0)
(0.121066 -0.000208597 0)
(0.121472 -0.000196467 0)
(0.121852 -0.000184297 0)
(0.122209 -0.000172095 0)
(0.122541 -0.000159866 0)
(0.122848 -0.000147618 0)
(0.123131 -0.000135357 0)
(0.12339 -0.000123091 0)
(0.123624 -0.000110826 0)
(0.123833 -9.85684e-05 0)
(0.124018 -8.63253e-05 0)
(0.124178 -7.41031e-05 0)
(0.124314 -6.1908e-05 0)
(0.124426 -4.97464e-05 0)
(0.124513 -3.76245e-05 0)
(0.124576 -2.55483e-05 0)
(0.124615 -1.35237e-05 0)
(0.12463 -1.55645e-06 0)
(0.124622 1.03479e-05 0)
(0.124589 2.21838e-05 0)
(0.124533 3.39462e-05 0)
(0.124453 4.56298e-05 0)
(0.12435 5.72298e-05 0)
(0.124224 6.87415e-05 0)
(0.124075 8.01603e-05 0)
(0.123903 9.14819e-05 0)
(0.123709 0.000102702 0)
(0.123492 0.000113817 0)
(0.123254 0.000124823 0)
(0.122993 0.000135717 0)
(0.122711 0.000146494 0)
(0.122407 0.000157152 0)
(0.122082 0.000167689 0)
(0.121736 0.0001781 0)
(0.121369 0.000188385 0)
(0.120982 0.000198539 0)
(0.120575 0.000208562 0)
(0.120148 0.000218451 0)
(0.119701 0.000228205 0)
(0.119235 0.000237821 0)
(0.11875 0.000247299 0)
(0.118246 0.000256636 0)
(0.117723 0.000265833 0)
(0.117182 0.000274887 0)
(0.116623 0.000283799 0)
(0.116047 0.000292568 0)
(0.115453 0.000301192 0)
(0.114842 0.000309673 0)
(0.114214 0.000318009 0)
(0.11357 0.0003262 0)
(0.112909 0.000334247 0)
(0.112233 0.00034215 0)
(0.11154 0.000349909 0)
(0.110833 0.000357524 0)
(0.11011 0.000364996 0)
(0.109373 0.000372326 0)
(0.108621 0.000379513 0)
(0.107855 0.00038656 0)
(0.107074 0.000393466 0)
(0.106281 0.000400233 0)
(0.105473 0.000406861 0)
(0.104653 0.000413352 0)
(0.10382 0.000419707 0)
(0.102974 0.000425927 0)
(0.102116 0.000432013 0)
(0.101246 0.000437967 0)
(0.100364 0.000443789 0)
(0.0994706 0.000449481 0)
(0.0985659 0.000455045 0)
(0.0976503 0.000460482 0)
(0.0967239 0.000465793 0)
(0.095787 0.00047098 0)
(0.0948398 0.000476044 0)
(0.0938827 0.000480987 0)
(0.0929158 0.000485811 0)
(0.0919393 0.000490517 0)
(0.0909536 0.000495106 0)
(0.0899588 0.000499581 0)
(0.0889551 0.000503943 0)
(0.0879429 0.000508193 0)
(0.0869223 0.000512333 0)
(0.0858935 0.000516365 0)
(0.0848567 0.00052029 0)
(0.0838122 0.000524111 0)
(0.0827602 0.000527828 0)
(0.0817008 0.000531443 0)
(0.0806343 0.000534959 0)
(0.0795609 0.000538376 0)
(0.0784807 0.000541697 0)
(0.077394 0.000544923 0)
(0.0763009 0.000548055 0)
(0.0752017 0.000551096 0)
(0.0740964 0.000554047 0)
(0.0729854 0.00055691 0)
(0.0718687 0.000559686 0)
(0.0707466 0.000562377 0)
(0.0696191 0.000564984 0)
(0.0684865 0.00056751 0)
(0.067349 0.000569956 0)
(0.0662066 0.000572323 0)
(0.0650596 0.000574613 0)
(0.0639081 0.000576828 0)
(0.0627522 0.00057897 0)
(0.0615922 0.000581039 0)
(0.060428 0.000583037 0)
(0.0592599 0.000584967 0)
(0.0580881 0.000586829 0)
(0.0569126 0.000588625 0)
(0.0557335 0.000590357 0)
(0.0545511 0.000592026 0)
(0.0533653 0.000593634 0)
(0.0521765 0.000595181 0)
(0.0509846 0.000596671 0)
(0.0497897 0.000598103 0)
(0.0485921 0.000599479 0)
(0.0473918 0.000600801 0)
(0.0461888 0.000602071 0)
(0.0449834 0.000603289 0)
(0.0437756 0.000604457 0)
(0.0425655 0.000605576 0)
(0.0413533 0.000606647 0)
(0.0401389 0.000607673 0)
(0.0389225 0.000608653 0)
(0.0377043 0.000609589 0)
(0.0364841 0.000610483 0)
(0.0352623 0.000611335 0)
(0.0340388 0.000612147 0)
(0.0328137 0.00061292 0)
(0.031587 0.000613655 0)
(0.030359 0.000614352 0)
(0.0291296 0.000615014 0)
(0.0278989 0.00061564 0)
(0.026667 0.000616232 0)
(0.0254339 0.000616791 0)
(0.0241998 0.000617317 0)
(0.0229646 0.000617812 0)
(0.0217285 0.000618276 0)
(0.0204915 0.00061871 0)
(0.0192536 0.000619115 0)
(0.018015 0.000619491 0)
(0.0167757 0.000619839 0)
(0.0155356 0.000620159 0)
(0.014295 0.000620453 0)
(0.0130538 0.00062072 0)
(0.0118121 0.000620962 0)
(0.0105699 0.000621178 0)
(0.00932735 0.000621369 0)
(0.00808442 0.000621536 0)
(0.00684118 0.000621678 0)
(0.00559768 0.000621796 0)
(0.00435397 0.00062189 0)
(0.0031101 0.000621961 0)
(0.0018661 0.000622007 0)
(0.000622043 0.000622031 0)
(0.000736169 -0.00220839 0)
(0.00220847 -0.00220828 0)
(0.00368067 -0.00220807 0)
(0.00515269 -0.00220775 0)
(0.00662446 -0.00220732 0)
(0.00809591 -0.00220678 0)
(0.00956697 -0.00220613 0)
(0.0110376 -0.00220536 0)
(0.0125076 -0.00220448 0)
(0.013977 -0.00220347 0)
(0.0154457 -0.00220234 0)
(0.0169136 -0.00220109 0)
(0.0183807 -0.0021997 0)
(0.0198467 -0.00219818 0)
(0.0213117 -0.00219651 0)
(0.0227756 -0.0021947 0)
(0.0242382 -0.00219273 0)
(0.0256994 -0.00219061 0)
(0.0271592 -0.00218832 0)
(0.0286174 -0.00218586 0)
(0.0300739 -0.00218321 0)
(0.0315286 -0.00218039 0)
(0.0329813 -0.00217737 0)
(0.034432 -0.00217414 0)
(0.0358804 -0.00217071 0)
(0.0373265 -0.00216706 0)
(0.0387701 -0.00216318 0)
(0.040211 -0.00215907 0)
(0.0416492 -0.0021547 0)
(0.0430843 -0.00215009 0)
(0.0445163 -0.00214521 0)
(0.0459449 -0.00214005 0)
(0.04737 -0.00213461 0)
(0.0487914 -0.00212888 0)
(0.0502089 -0.00212284 0)
(0.0516222 -0.00211648 0)
(0.0530313 -0.0021098 0)
(0.0544357 -0.00210278 0)
(0.0558354 -0.00209542 0)
(0.0572301 -0.0020877 0)
(0.0586194 -0.0020796 0)
(0.0600033 -0.00207113 0)
(0.0613814 -0.00206227 0)
(0.0627535 -0.00205301 0)
(0.0641193 -0.00204334 0)
(0.0654785 -0.00203324 0)
(0.0668308 -0.00202272 0)
(0.068176 -0.00201175 0)
(0.0695137 -0.00200033 0)
(0.0708436 -0.00198845 0)
(0.0721655 -0.00197609 0)
(0.073479 -0.00196326 0)
(0.0747838 -0.00194994 0)
(0.0760795 -0.00193612 0)
(0.0773659 -0.0019218 0)
(0.0786426 -0.00190696 0)
(0.0799092 -0.0018916 0)
(0.0811653 -0.00187571 0)
(0.0824108 -0.00185929 0)
(0.0836451 -0.00184233 0)
(0.0848679 -0.00182482 0)
(0.0860788 -0.00180677 0)
(0.0872776 -0.00178815 0)
(0.0884637 -0.00176898 0)
(0.0896369 -0.00174925 0)
(0.0907967 -0.00172895 0)
(0.0919429 -0.00170809 0)
(0.0930749 -0.00168666 0)
(0.0941924 -0.00166467 0)
(0.0952951 -0.0016421 0)
(0.0963826 -0.00161897 0)
(0.0974545 -0.00159528 0)
(0.0985103 -0.00157102 0)
(0.0995498 -0.00154621 0)
(0.100573 -0.00152084 0)
(0.101578 -0.00149492 0)
(0.102567 -0.00146846 0)
(0.103537 -0.00144147 0)
(0.104489 -0.00141394 0)
(0.105423 -0.00138589 0)
(0.106338 -0.00135733 0)
(0.107233 -0.00132826 0)
(0.108109 -0.0012987 0)
(0.108965 -0.00126866 0)
(0.109801 -0.00123815 0)
(0.110617 -0.00120718 0)
(0.111411 -0.00117577 0)
(0.112185 -0.00114393 0)
(0.112937 -0.00111167 0)
(0.113668 -0.00107901 0)
(0.114376 -0.00104597 0)
(0.115063 -0.00101255 0)
(0.115727 -0.000978787 0)
(0.116368 -0.000944688 0)
(0.116987 -0.000910273 0)
(0.117582 -0.000875559 0)
(0.118155 -0.000840567 0)
(0.118703 -0.000805314 0)
(0.119229 -0.000769821 0)
(0.11973 -0.000734107 0)
(0.120208 -0.000698191 0)
(0.120661 -0.000662095 0)
(0.121091 -0.000625838 0)
(0.121496 -0.000589442 0)
(0.121877 -0.000552926 0)
(0.122233 -0.000516311 0)
(0.122565 -0.000479617 0)
(0.122873 -0.000442866 0)
(0.123156 -0.000406078 0)
(0.123414 -0.000369272 0)
(0.123648 -0.00033247 0)
(0.123858 -0.000295692 0)
(0.124042 -0.000258956 0)
(0.124203 -0.000222283 0)
(0.124339 -0.000185691 0)
(0.12445 -0.000149201 0)
(0.124537 -0.000112829 0)
(0.1246 -7.65944e-05 0)
(0.124639 -4.05148e-05 0)
(0.124654 -4.60747e-06 0)
(0.124645 3.11109e-05 0)
(0.124613 6.6624e-05 0)
(0.124556 0.000101916 0)
(0.124476 0.000136972 0)
(0.124373 0.000171777 0)
(0.124247 0.000206316 0)
(0.124098 0.000240577 0)
(0.123926 0.000274546 0)
(0.123731 0.000308211 0)
(0.123515 0.000341559 0)
(0.123276 0.000374581 0)
(0.123015 0.000407264 0)
(0.122732 0.0004396 0)
(0.122428 0.000471578 0)
(0.122103 0.00050319 0)
(0.121757 0.000534427 0)
(0.12139 0.000565283 0)
(0.121003 0.000595749 0)
(0.120595 0.000625819 0)
(0.120168 0.000655488 0)
(0.119721 0.00068475 0)
(0.119254 0.0007136 0)
(0.118769 0.000742034 0)
(0.118264 0.000770048 0)
(0.117741 0.000797639 0)
(0.1172 0.000824803 0)
(0.116641 0.00085154 0)
(0.116064 0.000877845 0)
(0.11547 0.00090372 0)
(0.114859 0.000929161 0)
(0.114231 0.000954169 0)
(0.113586 0.000978744 0)
(0.112925 0.00100288 0)
(0.112248 0.00102659 0)
(0.111556 0.00104987 0)
(0.110848 0.00107271 0)
(0.110125 0.00109513 0)
(0.109387 0.00111712 0)
(0.108635 0.00113868 0)
(0.107869 0.00115982 0)
(0.107088 0.00118054 0)
(0.106294 0.00120084 0)
(0.105486 0.00122072 0)
(0.104666 0.00124019 0)
(0.103832 0.00125926 0)
(0.102986 0.00127791 0)
(0.102128 0.00129617 0)
(0.101258 0.00131403 0)
(0.100375 0.00133149 0)
(0.0994818 0.00134857 0)
(0.0985769 0.00136526 0)
(0.097661 0.00138157 0)
(0.0967344 0.0013975 0)
(0.0957972 0.00141306 0)
(0.0948498 0.00142825 0)
(0.0938925 0.00144308 0)
(0.0929253 0.00145755 0)
(0.0919486 0.00147167 0)
(0.0909627 0.00148543 0)
(0.0899676 0.00149886 0)
(0.0889638 0.00151194 0)
(0.0879513 0.00152469 0)
(0.0869304 0.00153711 0)
(0.0859014 0.0015492 0)
(0.0848645 0.00156097 0)
(0.0838197 0.00157243 0)
(0.0827675 0.00158358 0)
(0.0817079 0.00159443 0)
(0.0806412 0.00160497 0)
(0.0795676 0.00161523 0)
(0.0784872 0.00162519 0)
(0.0774003 0.00163486 0)
(0.0763071 0.00164426 0)
(0.0752077 0.00165338 0)
(0.0741022 0.00166223 0)
(0.072991 0.00167082 0)
(0.0718742 0.00167914 0)
(0.0707519 0.00168721 0)
(0.0696243 0.00169503 0)
(0.0684915 0.00170261 0)
(0.0673538 0.00170995 0)
(0.0662113 0.00171705 0)
(0.0650641 0.00172392 0)
(0.0639125 0.00173056 0)
(0.0627565 0.00173698 0)
(0.0615962 0.00174319 0)
(0.0604319 0.00174918 0)
(0.0592637 0.00175497 0)
(0.0580917 0.00176055 0)
(0.0569161 0.00176594 0)
(0.0557369 0.00177113 0)
(0.0545543 0.00177614 0)
(0.0533685 0.00178096 0)
(0.0521795 0.0017856 0)
(0.0509875 0.00179007 0)
(0.0497925 0.00179436 0)
(0.0485948 0.00179849 0)
(0.0473944 0.00180246 0)
(0.0461913 0.00180626 0)
(0.0449858 0.00180992 0)
(0.0437779 0.00181342 0)
(0.0425677 0.00181678 0)
(0.0413554 0.00181999 0)
(0.0401409 0.00182306 0)
(0.0389245 0.001826 0)
(0.0377061 0.00182881 0)
(0.0364859 0.00183149 0)
(0.035264 0.00183405 0)
(0.0340403 0.00183648 0)
(0.0328152 0.0018388 0)
(0.0315885 0.001841 0)
(0.0303604 0.00184309 0)
(0.0291309 0.00184508 0)
(0.0279001 0.00184695 0)
(0.0266682 0.00184873 0)
(0.025435 0.00185041 0)
(0.0242008 0.00185198 0)
(0.0229656 0.00185347 0)
(0.0217294 0.00185486 0)
(0.0204923 0.00185616 0)
(0.0192544 0.00185737 0)
(0.0180157 0.0018585 0)
(0.0167763 0.00185954 0)
(0.0155363 0.00186051 0)
(0.0142956 0.00186139 0)
(0.0130543 0.00186219 0)
(0.0118125 0.00186291 0)
(0.0105703 0.00186356 0)
(0.00932771 0.00186413 0)
(0.00808473 0.00186463 0)
(0.00684144 0.00186506 0)
(0.00559789 0.00186541 0)
(0.00435414 0.00186569 0)
(0.00311021 0.00186591 0)
(0.00186617 0.00186605 0)
(0.000622066 0.00186612 0)
(0.00073624 -0.00368076 0)
(0.00220869 -0.00368058 0)
(0.00368103 -0.00368023 0)
(0.00515319 -0.0036797 0)
(0.00662511 -0.00367898 0)
(0.00809671 -0.00367809 0)
(0.00956791 -0.003677 0)
(0.0110387 -0.00367573 0)
(0.0125088 -0.00367426 0)
(0.0139784 -0.00367259 0)
(0.0154473 -0.00367072 0)
(0.0169154 -0.00366863 0)
(0.0183826 -0.00366632 0)
(0.0198488 -0.00366379 0)
(0.021314 -0.00366101 0)
(0.0227781 -0.003658 0)
(0.0242409 -0.00365473 0)
(0.0257024 -0.00365119 0)
(0.0271624 -0.00364739 0)
(0.0286208 -0.00364329 0)
(0.0300775 -0.0036389 0)
(0.0315325 -0.00363419 0)
(0.0329855 -0.00362917 0)
(0.0344364 -0.00362381 0)
(0.0358851 -0.00361809 0)
(0.0373315 -0.00361202 0)
(0.0387754 -0.00360556 0)
(0.0402167 -0.00359871 0)
(0.0416551 -0.00359146 0)
(0.0430906 -0.00358377 0)
(0.044523 -0.00357565 0)
(0.045952 -0.00356707 0)
(0.0473775 -0.00355802 0)
(0.0487993 -0.00354847 0)
(0.0502172 -0.00353841 0)
(0.0516309 -0.00352783 0)
(0.0530404 -0.00351671 0)
(0.0544453 -0.00350503 0)
(0.0558455 -0.00349276 0)
(0.0572406 -0.0034799 0)
(0.0586305 -0.00346643 0)
(0.0600149 -0.00345232 0)
(0.0613935 -0.00343757 0)
(0.0627661 -0.00342214 0)
(0.0641325 -0.00340603 0)
(0.0654922 -0.00338922 0)
(0.0668451 -0.00337169 0)
(0.0681909 -0.00335342 0)
(0.0695292 -0.00333439 0)
(0.0708598 -0.0033146 0)
(0.0721823 -0.00329402 0)
(0.0734965 -0.00327265 0)
(0.0748019 -0.00325045 0)
(0.0760983 -0.00322743 0)
(0.0773854 -0.00320356 0)
(0.0786627 -0.00317884 0)
(0.07993 -0.00315325 0)
(0.0811869 -0.00312678 0)
(0.082433 -0.00309942 0)
(0.0836681 -0.00307116 0)
(0.0848916 -0.00304198 0)
(0.0861033 -0.00301189 0)
(0.0873028 -0.00298088 0)
(0.0884897 -0.00294893 0)
(0.0896636 -0.00291604 0)
(0.0908242 -0.00288222 0)
(0.0919711 -0.00284745 0)
(0.0931039 -0.00281173 0)
(0.0942222 -0.00277507 0)
(0.0953256 -0.00273746 0)
(0.0964138 -0.00269891 0)
(0.0974864 -0.00265942 0)
(0.0985431 -0.00261899 0)
(0.0995833 -0.00257763 0)
(0.100607 -0.00253535 0)
(0.101613 -0.00249215 0)
(0.102602 -0.00244804 0)
(0.103573 -0.00240303 0)
(0.104526 -0.00235715 0)
(0.105461 -0.00231039 0)
(0.106376 -0.00226277 0)
(0.107272 -0.00221432 0)
(0.108149 -0.00216504 0)
(0.109006 -0.00211496 0)
(0.109842 -0.0020641 0)
(0.110658 -0.00201247 0)
(0.111454 -0.0019601 0)
(0.112228 -0.00190701 0)
(0.112981 -0.00185323 0)
(0.113712 -0.00179878 0)
(0.114421 -0.00174368 0)
(0.115108 -0.00168798 0)
(0.115772 -0.00163168 0)
(0.116414 -0.00157483 0)
(0.117033 -0.00151745 0)
(0.117629 -0.00145958 0)
(0.118201 -0.00140123 0)
(0.118751 -0.00134246 0)
(0.119276 -0.00128328 0)
(0.119778 -0.00122373 0)
(0.120256 -0.00116385 0)
(0.12071 -0.00110367 0)
(0.121139 -0.00104322 0)
(0.121545 -0.000982536 0)
(0.121926 -0.000921653 0)
(0.122282 -0.000860605 0)
(0.122614 -0.000799426 0)
(0.122922 -0.000738152 0)
(0.123205 -0.000676815 0)
(0.123463 -0.000615451 0)
(0.123697 -0.000554092 0)
(0.123907 -0.000492772 0)
(0.124091 -0.000431524 0)
(0.124252 -0.000370381 0)
(0.124387 -0.000309374 0)
(0.124499 -0.000248535 0)
(0.124586 -0.000187896 0)
(0.124649 -0.000127485 0)
(0.124687 -6.73337e-05 0)
(0.124702 -7.46944e-06 0)
(0.124693 5.20793e-05 0)
(0.12466 0.000111285 0)
(0.124603 0.000170122 0)
(0.124523 0.000228565 0)
(0.124419 0.000286589 0)
(0.124293 0.00034417 0)
(0.124143 0.000401285 0)
(0.123971 0.000457914 0)
(0.123776 0.000514035 0)
(0.123559 0.000569629 0)
(0.123319 0.000624676 0)
(0.123058 0.00067916 0)
(0.122775 0.000733063 0)
(0.122471 0.00078637 0)
(0.122145 0.000839065 0)
(0.121798 0.000891136 0)
(0.121431 0.00094257 0)
(0.121043 0.000993354 0)
(0.120635 0.00104348 0)
(0.120207 0.00109293 0)
(0.119759 0.00114171 0)
(0.119292 0.0011898 0)
(0.118806 0.00123719 0)
(0.118301 0.00128388 0)
(0.117778 0.00132987 0)
(0.117236 0.00137515 0)
(0.116676 0.00141971 0)
(0.116099 0.00146355 0)
(0.115504 0.00150668 0)
(0.114892 0.00154908 0)
(0.114264 0.00159076 0)
(0.113619 0.00163172 0)
(0.112957 0.00167196 0)
(0.11228 0.00171147 0)
(0.111587 0.00175026 0)
(0.110878 0.00178833 0)
(0.110155 0.00182569 0)
(0.109416 0.00186233 0)
(0.108664 0.00189827 0)
(0.107896 0.0019335 0)
(0.107115 0.00196802 0)
(0.106321 0.00200185 0)
(0.105513 0.00203499 0)
(0.104692 0.00206744 0)
(0.103858 0.00209921 0)
(0.103011 0.0021303 0)
(0.102152 0.00216073 0)
(0.101281 0.00219049 0)
(0.100399 0.00221959 0)
(0.0995043 0.00224805 0)
(0.0985989 0.00227586 0)
(0.0976825 0.00230303 0)
(0.0967554 0.00232958 0)
(0.0958177 0.00235551 0)
(0.0948699 0.00238082 0)
(0.093912 0.00240553 0)
(0.0929444 0.00242964 0)
(0.0919672 0.00245316 0)
(0.0909808 0.0024761 0)
(0.0899853 0.00249847 0)
(0.088981 0.00252027 0)
(0.0879681 0.00254151 0)
(0.0869468 0.0025622 0)
(0.0859173 0.00258236 0)
(0.0848799 0.00260197 0)
(0.0838348 0.00262107 0)
(0.0827822 0.00263965 0)
(0.0817222 0.00265772 0)
(0.0806551 0.00267529 0)
(0.0795811 0.00269236 0)
(0.0785003 0.00270896 0)
(0.077413 0.00272508 0)
(0.0763194 0.00274073 0)
(0.0752196 0.00275593 0)
(0.0741139 0.00277068 0)
(0.0730023 0.00278498 0)
(0.0718851 0.00279885 0)
(0.0707624 0.0028123 0)
(0.0696345 0.00282533 0)
(0.0685014 0.00283795 0)
(0.0673634 0.00285017 0)
(0.0662206 0.002862 0)
(0.0650731 0.00287344 0)
(0.0639212 0.00288451 0)
(0.0627649 0.00289521 0)
(0.0616044 0.00290555 0)
(0.0604398 0.00291553 0)
(0.0592713 0.00292517 0)
(0.058099 0.00293448 0)
(0.0569231 0.00294345 0)
(0.0557437 0.0029521 0)
(0.0545609 0.00296044 0)
(0.0533748 0.00296847 0)
(0.0521856 0.0029762 0)
(0.0509933 0.00298364 0)
(0.0497982 0.00299079 0)
(0.0486002 0.00299767 0)
(0.0473995 0.00300427 0)
(0.0461963 0.00301061 0)
(0.0449906 0.0030167 0)
(0.0437825 0.00302253 0)
(0.0425721 0.00302812 0)
(0.0413596 0.00303347 0)
(0.0401449 0.00303859 0)
(0.0389283 0.00304348 0)
(0.0377097 0.00304816 0)
(0.0364894 0.00305262 0)
(0.0352673 0.00305688 0)
(0.0340435 0.00306093 0)
(0.0328182 0.00306479 0)
(0.0315913 0.00306846 0)
(0.0303631 0.00307194 0)
(0.0291335 0.00307525 0)
(0.0279026 0.00307837 0)
(0.0266705 0.00308133 0)
(0.0254372 0.00308412 0)
(0.0242029 0.00308675 0)
(0.0229675 0.00308922 0)
(0.0217312 0.00309153 0)
(0.020494 0.0030937 0)
(0.019256 0.00309572 0)
(0.0180172 0.00309759 0)
(0.0167777 0.00309933 0)
(0.0155375 0.00310093 0)
(0.0142967 0.0031024 0)
(0.0130553 0.00310373 0)
(0.0118135 0.00310494 0)
(0.0105711 0.00310602 0)
(0.00932842 0.00310697 0)
(0.00808534 0.0031078 0)
(0.00684196 0.00310851 0)
(0.00559832 0.0031091 0)
(0.00435446 0.00310957 0)
(0.00311045 0.00310992 0)
(0.00186632 0.00311016 0)
(0.000622113 0.00311027 0)
(0.000736346 -0.00515331 0)
(0.002209 -0.00515306 0)
(0.00368156 -0.00515257 0)
(0.00515394 -0.00515183 0)
(0.00662607 -0.00515083 0)
(0.00809789 -0.00514958 0)
(0.00956933 -0.00514807 0)
(0.0110403 -0.00514629 0)
(0.0125107 -0.00514425 0)
(0.0139805 -0.00514192 0)
(0.0154497 -0.0051393 0)
(0.016918 -0.00513639 0)
(0.0183855 -0.00513317 0)
(0.019852 -0.00512963 0)
(0.0213175 -0.00512576 0)
(0.0227819 -0.00512155 0)
(0.024245 -0.00511699 0)
(0.0257068 -0.00511206 0)
(0.0271671 -0.00510674 0)
(0.0286259 -0.00510102 0)
(0.030083 -0.00509489 0)
(0.0315383 -0.00508832 0)
(0.0329917 -0.00508131 0)
(0.034443 -0.00507382 0)
(0.0358922 -0.00506584 0)
(0.037339 -0.00505736 0)
(0.0387834 -0.00504834 0)
(0.0402251 -0.00503877 0)
(0.0416641 -0.00502864 0)
(0.0431001 -0.0050179 0)
(0.044533 -0.00500655 0)
(0.0459625 -0.00499456 0)
(0.0473886 -0.00498191 0)
(0.048811 -0.00496857 0)
(0.0502295 -0.00495452 0)
(0.051644 -0.00493973 0)
(0.0530541 -0.00492418 0)
(0.0544597 -0.00490785 0)
(0.0558605 -0.0048907 0)
(0.0572564 -0.00487273 0)
(0.058647 -0.00485389 0)
(0.0600322 -0.00483416 0)
(0.0614116 -0.00481353 0)
(0.0627851 -0.00479196 0)
(0.0641522 -0.00476943 0)
(0.0655128 -0.00474591 0)
(0.0668666 -0.00472139 0)
(0.0682133 -0.00469584 0)
(0.0695525 -0.00466923 0)
(0.070884 -0.00464154 0)
(0.0722075 -0.00461275 0)
(0.0735226 -0.00458285 0)
(0.074829 -0.0045518 0)
(0.0761265 -0.00451958 0)
(0.0774145 -0.00448619 0)
(0.0786929 -0.0044516 0)
(0.0799612 -0.00441578 0)
(0.0812192 -0.00437874 0)
(0.0824664 -0.00434045 0)
(0.0837025 -0.00430089 0)
(0.0849272 -0.00426006 0)
(0.08614 -0.00421794 0)
(0.0873406 -0.00417453 0)
(0.0885286 -0.00412981 0)
(0.0897036 -0.00408378 0)
(0.0908654 -0.00403643 0)
(0.0920134 -0.00398775 0)
(0.0931473 -0.00393775 0)
(0.0942667 -0.00388642 0)
(0.0953713 -0.00383377 0)
(0.0964607 -0.0037798 0)
(0.0975344 -0.0037245 0)
(0.0985922 -0.00366789 0)
(0.0996335 -0.00360998 0)
(0.100658 -0.00355077 0)
(0.101666 -0.00349027 0)
(0.102656 -0.00342851 0)
(0.103628 -0.00336548 0)
(0.104582 -0.00330122 0)
(0.105517 -0.00323574 0)
(0.106434 -0.00316906 0)
(0.107331 -0.0031012 0)
(0.108209 -0.00303218 0)
(0.109066 -0.00296204 0)
(0.109904 -0.0028908 0)
(0.110721 -0.00281849 0)
(0.111517 -0.00274514 0)
(0.112292 -0.00267078 0)
(0.113046 -0.00259545 0)
(0.113777 -0.00251919 0)
(0.114487 -0.00244202 0)
(0.115175 -0.00236399 0)
(0.11584 -0.00228514 0)
(0.116483 -0.0022055 0)
(0.117102 -0.00212513 0)
(0.117699 -0.00204406 0)
(0.118272 -0.00196233 0)
(0.118821 -0.00188 0)
(0.119347 -0.00179711 0)
(0.11985 -0.0017137 0)
(0.120328 -0.00162982 0)
(0.120782 -0.00154551 0)
(0.121212 -0.00146083 0)
(0.121618 -0.00137583 0)
(0.121999 -0.00129054 0)
(0.122356 -0.00120503 0)
(0.122688 -0.00111933 0)
(0.122995 -0.0010335 0)
(0.123279 -0.000947581 0)
(0.123537 -0.000861623 0)
(0.123771 -0.000775674 0)
(0.12398 -0.00068978 0)
(0.124165 -0.000603987 0)
(0.124325 -0.000518342 0)
(0.124461 -0.000432888 0)
(0.124572 -0.000347671 0)
(0.124659 -0.000262733 0)
(0.124721 -0.000178117 0)
(0.124759 -9.38648e-05 0)
(0.124774 -1.00157e-05 0)
(0.124764 7.33906e-05 0)
(0.124731 0.000156316 0)
(0.124674 0.000238723 0)
(0.124593 0.000320577 0)
(0.124489 0.000401844 0)
(0.124362 0.000482489 0)
(0.124212 0.000562481 0)
(0.124039 0.00064179 0)
(0.123843 0.000720387 0)
(0.123625 0.000798245 0)
(0.123385 0.000875336 0)
(0.123123 0.000951636 0)
(0.122839 0.00102712 0)
(0.122534 0.00110177 0)
(0.122208 0.00117557 0)
(0.12186 0.00124848 0)
(0.121492 0.00132051 0)
(0.121103 0.00139162 0)
(0.120695 0.00146181 0)
(0.120266 0.00153106 0)
(0.119817 0.00159935 0)
(0.11935 0.00166669 0)
(0.118863 0.00173305 0)
(0.118357 0.00179842 0)
(0.117833 0.00186281 0)
(0.11729 0.00192621 0)
(0.11673 0.0019886 0)
(0.116151 0.00204998 0)
(0.115556 0.00211036 0)
(0.114943 0.00216973 0)
(0.114313 0.00222808 0)
(0.113667 0.00228542 0)
(0.113005 0.00234175 0)
(0.112327 0.00239706 0)
(0.111633 0.00245137 0)
(0.110923 0.00250467 0)
(0.110199 0.00255696 0)
(0.10946 0.00260826 0)
(0.108706 0.00265856 0)
(0.107938 0.00270788 0)
(0.107156 0.00275621 0)
(0.106361 0.00280356 0)
(0.105552 0.00284995 0)
(0.10473 0.00289537 0)
(0.103895 0.00293984 0)
(0.103048 0.00298336 0)
(0.102188 0.00302594 0)
(0.101317 0.0030676 0)
(0.100433 0.00310834 0)
(0.0995381 0.00314816 0)
(0.0986319 0.00318709 0)
(0.0977147 0.00322513 0)
(0.0967868 0.00326228 0)
(0.0958485 0.00329857 0)
(0.0948999 0.003334 0)
(0.0939413 0.00336858 0)
(0.0929729 0.00340233 0)
(0.0919951 0.00343525 0)
(0.091008 0.00346735 0)
(0.0900118 0.00349865 0)
(0.0890068 0.00352916 0)
(0.0879932 0.00355889 0)
(0.0869713 0.00358784 0)
(0.0859412 0.00361604 0)
(0.0849032 0.0036435 0)
(0.0838574 0.00367022 0)
(0.0828041 0.00369622 0)
(0.0817436 0.0037215 0)
(0.0806759 0.00374609 0)
(0.0796013 0.00376999 0)
(0.0785199 0.00379321 0)
(0.0774321 0.00381576 0)
(0.0763379 0.00383767 0)
(0.0752376 0.00385893 0)
(0.0741313 0.00387957 0)
(0.0730192 0.00389958 0)
(0.0719015 0.00391899 0)
(0.0707783 0.0039378 0)
(0.0696499 0.00395603 0)
(0.0685163 0.00397369 0)
(0.0673778 0.00399079 0)
(0.0662346 0.00400734 0)
(0.0650866 0.00402335 0)
(0.0639342 0.00403883 0)
(0.0627775 0.0040538 0)
(0.0616165 0.00406826 0)
(0.0604516 0.00408223 0)
(0.0592827 0.00409571 0)
(0.05811 0.00410873 0)
(0.0569337 0.00412128 0)
(0.0557539 0.00413338 0)
(0.0545707 0.00414504 0)
(0.0533843 0.00415628 0)
(0.0521947 0.00416709 0)
(0.0510021 0.00417749 0)
(0.0498066 0.0041875 0)
(0.0486083 0.00419711 0)
(0.0474073 0.00420635 0)
(0.0462037 0.00421522 0)
(0.0449977 0.00422372 0)
(0.0437893 0.00423188 0)
(0.0425787 0.0042397 0)
(0.0413658 0.00424718 0)
(0.0401509 0.00425434 0)
(0.038934 0.00426118 0)
(0.0377152 0.00426772 0)
(0.0364946 0.00427396 0)
(0.0352723 0.00427991 0)
(0.0340483 0.00428558 0)
(0.0328227 0.00429098 0)
(0.0315956 0.0042961 0)
(0.0303671 0.00430097 0)
(0.0291373 0.00430559 0)
(0.0279062 0.00430996 0)
(0.0266739 0.00431409 0)
(0.0254404 0.00431799 0)
(0.0242059 0.00432167 0)
(0.0229704 0.00432512 0)
(0.0217339 0.00432835 0)
(0.0204965 0.00433138 0)
(0.0192583 0.00433421 0)
(0.0180194 0.00433683 0)
(0.0167797 0.00433926 0)
(0.0155393 0.00434149 0)
(0.0142984 0.00434354 0)
(0.0130568 0.00434541 0)
(0.0118148 0.00434709 0)
(0.0105724 0.0043486 0)
(0.00932949 0.00434993 0)
(0.00808627 0.00435109 0)
(0.00684274 0.00435208 0)
(0.00559895 0.00435291 0)
(0.00435496 0.00435356 0)
(0.0031108 0.00435406 0)
(0.00186653 0.00435438 0)
(0.000622183 0.00435454 0)
(0.000736487 -0.00662611 0)
(0.00220943 -0.00662579 0)
(0.00368226 -0.00662516 0)
(0.00515493 -0.00662421 0)
(0.00662735 -0.00662294 0)
(0.00809947 -0.00662134 0)
(0.0095712 -0.00661941 0)
(0.0110425 -0.00661713 0)
(0.0125132 -0.00661451 0)
(0.0139834 -0.00661153 0)
(0.0154528 -0.00660818 0)
(0.0169215 -0.00660445 0)
(0.0183893 -0.00660033 0)
(0.0198562 -0.0065958 0)
(0.0213221 -0.00659085 0)
(0.0227869 -0.00658547 0)
(0.0242504 -0.00657962 0)
(0.0257126 -0.00657331 0)
(0.0271734 -0.0065665 0)
(0.0286326 -0.00655917 0)
(0.0300902 -0.00655132 0)
(0.031546 -0.00654291 0)
(0.033 -0.00653392 0)
(0.0344519 -0.00652432 0)
(0.0359016 -0.0065141 0)
(0.037349 -0.00650322 0)
(0.038794 -0.00649167 0)
(0.0402364 -0.00647941 0)
(0.041676 -0.00646641 0)
(0.0431127 -0.00645265 0)
(0.0445463 -0.00643809 0)
(0.0459766 -0.00642272 0)
(0.0474035 -0.00640649 0)
(0.0488267 -0.00638938 0)
(0.050246 -0.00637136 0)
(0.0516613 -0.00635238 0)
(0.0530723 -0.00633244 0)
(0.0544788 -0.00631148 0)
(0.0558806 -0.00628948 0)
(0.0572774 -0.00626641 0)
(0.0586691 -0.00624223 0)
(0.0600553 -0.00621691 0)
(0.0614357 -0.00619042 0)
(0.0628102 -0.00616273 0)
(0.0641785 -0.00613381 0)
(0.0655403 -0.00610362 0)
(0.0668952 -0.00607213 0)
(0.0682431 -0.00603931 0)
(0.0695835 -0.00600514 0)
(0.0709163 -0.00596958 0)
(0.072241 -0.00593261 0)
(0.0735574 -0.00589419 0)
(0.0748652 -0.0058543 0)
(0.0761639 -0.00581292 0)
(0.0774534 -0.00577001 0)
(0.0787331 -0.00572557 0)
(0.0800029 -0.00567955 0)
(0.0812623 -0.00563195 0)
(0.0825109 -0.00558274 0)
(0.0837485 -0.0055319 0)
(0.0849746 -0.00547943 0)
(0.0861889 -0.00542529 0)
(0.0873909 -0.00536949 0)
(0.0885805 -0.00531201 0)
(0.089757 -0.00525283 0)
(0.0909203 -0.00519196 0)
(0.0920698 -0.00512938 0)
(0.0932052 -0.0050651 0)
(0.0943262 -0.0049991 0)
(0.0954323 -0.0049314 0)
(0.0965232 -0.004862 0)
(0.0975984 -0.00479089 0)
(0.0986576 -0.0047181 0)
(0.0997005 -0.00464362 0)
(0.100727 -0.00456747 0)
(0.101736 -0.00448967 0)
(0.102727 -0.00441023 0)
(0.103701 -0.00432917 0)
(0.104656 -0.00424652 0)
(0.105593 -0.00416229 0)
(0.106511 -0.00407652 0)
(0.107409 -0.00398923 0)
(0.108288 -0.00390045 0)
(0.109147 -0.00381023 0)
(0.109986 -0.00371858 0)
(0.110804 -0.00362556 0)
(0.111601 -0.00353119 0)
(0.112378 -0.00343553 0)
(0.113132 -0.00333862 0)
(0.113865 -0.0032405 0)
(0.114576 -0.00314122 0)
(0.115265 -0.00304082 0)
(0.115931 -0.00293937 0)
(0.116574 -0.00283691 0)
(0.117194 -0.0027335 0)
(0.117792 -0.00262919 0)
(0.118366 -0.00252404 0)
(0.118916 -0.00241811 0)
(0.119443 -0.00231145 0)
(0.119945 -0.00220413 0)
(0.120424 -0.0020962 0)
(0.120879 -0.00198773 0)
(0.121309 -0.00187878 0)
(0.121715 -0.0017694 0)
(0.122096 -0.00165967 0)
(0.122453 -0.00154964 0)
(0.122786 -0.00143937 0)
(0.123094 -0.00132893 0)
(0.123377 -0.00121838 0)
(0.123635 -0.00110779 0)
(0.123869 -0.000997201 0)
(0.124078 -0.000886686 0)
(0.124263 -0.000776303 0)
(0.124423 -0.000666111 0)
(0.124558 -0.000556166 0)
(0.124669 -0.000446527 0)
(0.124755 -0.000337249 0)
(0.124818 -0.000228386 0)
(0.124856 -0.000119992 0)
(0.124869 -1.21188e-05 0)
(0.124859 9.51832e-05 0)
(0.124825 0.000201865 0)
(0.124767 0.000307878 0)
(0.124686 0.000413178 0)
(0.124581 0.00051772 0)
(0.124454 0.000621461 0)