/*--------------------------------*- C++ -*----------------------------------*\
| =========                 |                                                 |
| \\      /  F ield         | OpenFOAM: The Open Source CFD Toolbox           |
|  \\    /   O peration     | Version:  v2012                                 |
|   \\  /    A nd           | Website:  www.openfoam.com                      |
|    \\/     M anipulation  |                                                 |
\*---------------------------------------------------------------------------*/
FoamFile
{
    version     2.0;
    format      ascii;
    class       volScalarField;
    location    "4.5";
    object      W;
}
// * * * * * * * * * * * * * * * * * * * * * * * * * * * * * * * * * * * * * //

dimensions      [0 0 -1 0 0 0 0];


internalField   nonuniform List<scalar> 
65536
(
1.21622e-19
1.3091e-19
1.50043e-19
1.80064e-19
2.22618e-19
2.80047e-19
3.55511e-19
4.53157e-19
5.78319e-19
7.37767e-19
9.40026e-19
1.19575e-18
1.51817e-18
1.92371e-18
2.43262e-18
3.0698e-18
3.86585e-18
4.85822e-18
6.09261e-18
7.62473e-18
9.52225e-18
1.18672e-17
1.47588e-17
1.83166e-17
2.26846e-17
2.80357e-17
3.45765e-17
4.25543e-17
5.22632e-17
6.40529e-17
7.83379e-17
9.56078e-17
1.1644e-16
1.41515e-16
1.71628e-16
2.07712e-16
2.50853e-16
3.02318e-16
3.63574e-16
4.3632e-16
5.22518e-16
6.24424e-16
7.44627e-16
8.86091e-16
1.0522e-15
1.24679e-15
1.47424e-15
1.73948e-15
2.04807e-15
2.40627e-15
2.82108e-15
3.30033e-15
3.85273e-15
4.48794e-15
5.21666e-15
6.05066e-15
7.00286e-15
8.0874e-15
9.31969e-15
1.07164e-14
1.22957e-14
1.4077e-14
1.60812e-14
1.83304e-14
2.08483e-14
2.36598e-14
2.67912e-14
3.02698e-14
3.41241e-14
3.83832e-14
4.30774e-14
4.82371e-14
5.3893e-14
6.00758e-14
6.68157e-14
7.41422e-14
8.20836e-14
9.06665e-14
9.99152e-14
1.09852e-13
1.20494e-13
1.31858e-13
1.43953e-13
1.56784e-13
1.70353e-13
1.84651e-13
1.99668e-13
2.15381e-13
2.31764e-13
2.48781e-13
2.66387e-13
2.84528e-13
3.03144e-13
3.22164e-13
3.41506e-13
3.61084e-13
3.80799e-13
4.00548e-13
4.20219e-13
4.39693e-13
4.58847e-13
4.77552e-13
4.95677e-13
5.13089e-13
5.29654e-13
5.4524e-13
5.59716e-13
5.72959e-13
5.84848e-13
5.95273e-13
6.04132e-13
6.11335e-13
6.16805e-13
6.20476e-13
6.22302e-13
6.2225e-13
6.20304e-13
6.16468e-13
6.10762e-13
6.03225e-13
5.93913e-13
5.82902e-13
5.70281e-13
5.56158e-13
5.40654e-13
5.23904e-13
5.06054e-13
4.8726e-13
4.67686e-13
4.47503e-13
4.26884e-13
4.06006e-13
3.85045e-13
3.64176e-13
3.4357e-13
3.23392e-13
3.03801e-13
2.84947e-13
2.66973e-13
2.50008e-13
2.34171e-13
2.19571e-13
2.06303e-13
1.94448e-13
1.84076e-13
1.75244e-13
1.67993e-13
1.62354e-13
1.58343e-13
1.55962e-13
1.55203e-13
1.56042e-13
1.58441e-13
1.62353e-13
1.67713e-13
1.74447e-13
1.82464e-13
1.91664e-13
2.01932e-13
2.1314e-13
2.2515e-13
2.37811e-13
2.50964e-13
2.6444e-13
2.78063e-13
2.91651e-13
3.05019e-13
3.17981e-13
3.30351e-13
3.4195e-13
3.52603e-13
3.62146e-13
3.70428e-13
3.77314e-13
3.82686e-13
3.86448e-13
3.88524e-13
3.88866e-13
3.87447e-13
3.84269e-13
3.79358e-13
3.72767e-13
3.64571e-13
3.54868e-13
3.43778e-13
3.31437e-13
3.17996e-13
3.03617e-13
2.88471e-13
2.72733e-13
2.56578e-13
2.40179e-13
2.23705e-13
2.07314e-13
1.91154e-13
1.75359e-13
1.60049e-13
1.45328e-13
1.31282e-13
1.17981e-13
1.05478e-13
9.38092e-14
8.2995e-14
7.30422e-14
6.39444e-14
5.56841e-14
4.82337e-14
4.1558e-14
3.56152e-14
3.03588e-14
2.57394e-14
2.17054e-14
1.82048e-14
1.51862e-14
1.25994e-14
1.03963e-14
8.53177e-15
6.96336e-15
5.65216e-15
4.5627e-15
3.66298e-15
2.92449e-15
2.322e-15
1.83345e-15
1.43968e-15
1.1242e-15
8.72987e-16
6.74137e-16
5.17683e-16
3.95322e-16
3.00197e-16
2.26687e-16
1.7022e-16
1.27102e-16
9.43741e-17
6.96799e-17
5.11582e-17
3.73484e-17
2.7113e-17
1.95717e-17
1.40483e-17
1.00268e-17
7.11605e-18
5.02176e-18
3.5238e-18
2.4587e-18
1.70588e-18
1.17697e-18
8.07676e-19
5.51538e-19
3.75281e-19
2.55293e-19
1.75049e-19
1.23233e-19
9.23927e-20
7.80305e-20
1.6278e-19
1.75203e-19
2.00796e-19
2.40954e-19
2.97874e-19
3.74685e-19
4.75611e-19
6.06191e-19
7.73548e-19
9.86728e-19
1.25711e-18
1.59891e-18
2.02982e-18
2.57172e-18
3.25164e-18
4.10281e-18
5.16601e-18
6.49117e-18
8.13921e-18
1.01843e-17
1.27167e-17
1.58455e-17
1.97027e-17
2.44476e-17
3.02715e-17
3.74043e-17
4.61207e-17
5.67488e-17
6.96795e-17
8.53766e-17
1.0439e-16
1.27368e-16
1.55078e-16
1.88417e-16
2.2844e-16
2.76381e-16
3.33675e-16
4.01993e-16
4.83274e-16
5.79758e-16
6.94029e-16
8.29057e-16
9.88249e-16
1.1755e-15
1.39525e-15
1.65255e-15
1.95311e-15
2.3034e-15
2.71068e-15
3.18314e-15
3.72991e-15
4.36118e-15
5.0883e-15
5.92383e-15
6.88162e-15
7.97694e-15
9.22651e-15
1.06486e-14
1.2263e-14
1.40914e-14
1.61568e-14
1.84843e-14
2.11005e-14
2.40338e-14
2.73142e-14
3.09735e-14
3.50449e-14
3.95628e-14
4.4563e-14
5.00825e-14
5.61585e-14
6.28292e-14
7.01326e-14
7.81064e-14
8.67877e-14
9.62123e-14
1.06414e-13
1.17425e-13
1.29273e-13
1.41984e-13
1.55578e-13
1.70072e-13
1.85474e-13
2.01788e-13
2.19011e-13
2.37131e-13
2.56127e-13
2.7597e-13
2.96621e-13
3.1803e-13
3.40137e-13
3.62871e-13
3.86151e-13
4.09883e-13
4.33964e-13
4.5828e-13
4.82707e-13
5.0711e-13
5.31349e-13
5.55275e-13
5.78731e-13
6.01559e-13
6.23594e-13
6.44673e-13
6.64631e-13
6.83307e-13
7.00543e-13
7.16189e-13
7.30102e-13
7.42152e-13
7.52218e-13
7.60197e-13
7.66001e-13
7.6956e-13
7.70822e-13
7.69758e-13
7.66358e-13
7.60634e-13
7.52623e-13
7.42379e-13
7.29983e-13
7.15534e-13
6.99151e-13
6.80972e-13
6.61153e-13
6.39864e-13
6.1729e-13
5.93625e-13
5.69072e-13
5.43842e-13
5.18148e-13
4.92204e-13
4.66225e-13
4.40422e-13
4.15e-13
3.90156e-13
3.6608e-13
3.42949e-13
3.20929e-13
3.00172e-13
2.80818e-13
2.62989e-13
2.46793e-13
2.32324e-13
2.19658e-13
2.08854e-13
1.99959e-13
1.93001e-13
1.87993e-13
1.84933e-13
1.83803e-13
1.84569e-13
1.87183e-13
1.91582e-13
1.97685e-13
2.05399e-13
2.14615e-13
2.25209e-13
2.37044e-13
2.49967e-13
2.63812e-13
2.78403e-13
2.9355e-13
3.09055e-13
3.24713e-13
3.4031e-13
3.55632e-13
3.70462e-13
3.84587e-13
3.97799e-13
4.09897e-13
4.20694e-13
4.30017e-13
4.37713e-13
4.43649e-13
4.47717e-13
4.49833e-13
4.49945e-13
4.48025e-13
4.4408e-13
4.38144e-13
4.30279e-13
4.20577e-13
4.09153e-13
3.96148e-13
3.8172e-13
3.66046e-13
3.49313e-13
3.31719e-13
3.13465e-13
2.94754e-13
2.75785e-13
2.56749e-13
2.37829e-13
2.19192e-13
2.00993e-13
1.83368e-13
1.66433e-13
1.50287e-13
1.35007e-13
1.20654e-13
1.07266e-13
9.48656e-14
8.34597e-14
7.30392e-14
6.35826e-14
5.50575e-14
4.74223e-14
4.06283e-14
3.46218e-14
2.93451e-14
2.4739e-14
2.07435e-14
1.72994e-14
1.43489e-14
1.18371e-14
9.71176e-15
7.9246e-15
6.43096e-15
5.19026e-15
4.16593e-15
3.32536e-15
2.63978e-15
2.08398e-15
1.6361e-15
1.27737e-15
9.91758e-16
7.65733e-16
5.87931e-16
4.489e-16
3.40835e-16
2.57339e-16
1.93212e-16
1.44253e-16
1.07096e-16
7.90643e-17
5.80419e-17
4.23697e-17
3.07553e-17
2.21989e-17
1.59327e-17
1.13709e-17
8.06935e-18
5.6941e-18
3.99532e-18
2.78754e-18
1.93392e-18
1.33424e-18
9.15552e-19
6.25176e-19
4.25369e-19
2.89355e-19
1.98397e-19
1.39665e-19
1.04709e-19
8.84329e-20
2.57815e-19
2.77472e-19
3.17976e-19
3.81528e-19
4.71604e-19
5.93145e-19
7.52826e-19
9.59398e-19
1.22411e-18
1.56125e-18
1.98879e-18
2.52916e-18
3.21028e-18
4.06667e-18
5.14095e-18
6.48551e-18
8.16464e-18
1.0257e-17
1.28585e-17
1.60859e-17
2.00812e-17
2.50161e-17
3.10981e-17
3.85773e-17
4.77545e-17
5.89902e-17
7.27156e-17
8.94453e-17
1.09791e-16
1.3448e-16
1.64373e-16
2.00483e-16
2.44009e-16
2.96353e-16
3.59161e-16
4.34354e-16
5.24171e-16
6.31211e-16
7.58488e-16
9.09481e-16
1.0882e-15
1.29925e-15
1.5479e-15
1.84018e-15
2.18295e-15
2.58398e-15
3.0521e-15
3.59723e-15
4.23055e-15
4.9646e-15
5.81336e-15
6.79244e-15
7.91912e-15
9.21254e-15
1.06938e-14
1.2386e-14
1.43145e-14
1.65069e-14
1.89931e-14
2.18055e-14
2.49788e-14
2.85505e-14
3.25602e-14
3.70501e-14
4.20649e-14
4.76512e-14
5.3858e-14
6.07357e-14
6.83366e-14
7.67141e-14
8.59222e-14
9.60155e-14
1.07048e-13
1.19073e-13
1.32143e-13
1.46307e-13
1.61612e-13
1.78099e-13
1.95807e-13
2.14768e-13
2.35005e-13
2.56537e-13
2.7937e-13
3.03504e-13
3.28924e-13
3.55607e-13
3.83514e-13
4.12594e-13
4.42782e-13
4.73996e-13
5.06141e-13
5.39105e-13
5.72762e-13
6.06968e-13
6.41567e-13
6.76386e-13
7.11239e-13
7.4593e-13
7.80249e-13
8.13979e-13
8.46894e-13
8.78763e-13
9.09355e-13
9.38435e-13
9.65773e-13
9.91143e-13
1.01433e-12
1.03512e-12
1.05333e-12
1.06878e-12
1.08132e-12
1.09081e-12
1.09714e-12
1.10023e-12
1.10003e-12
1.09651e-12
1.08968e-12
1.07957e-12
1.06626e-12
1.04984e-12
1.03043e-12
1.00821e-12
9.83342e-13
9.56046e-13
9.26552e-13
8.95109e-13
8.61985e-13
8.2746e-13
7.91825e-13
7.55377e-13
7.18417e-13
6.81243e-13
6.44152e-13
6.07433e-13
5.71367e-13
5.36222e-13
5.0225e-13
4.69688e-13
4.38756e-13
4.09652e-13
3.82555e-13
3.57622e-13
3.34989e-13
3.14769e-13
2.97054e-13
2.81912e-13
2.69392e-13
2.5952e-13
2.52301e-13
2.4772e-13
2.45739e-13
2.46304e-13
2.49338e-13
2.54746e-13
2.62412e-13
2.72203e-13
2.83965e-13
2.97528e-13
3.12701e-13
3.2928e-13
3.4704e-13
3.65745e-13
3.85144e-13
4.04974e-13
4.24966e-13
4.44841e-13
4.6432e-13
4.83123e-13
5.00974e-13
5.17605e-13
5.32763e-13
5.46208e-13
5.57723e-13
5.67115e-13
5.74219e-13
5.78902e-13
5.81065e-13
5.80646e-13
5.77619e-13
5.71997e-13
5.63833e-13
5.53212e-13
5.4026e-13
5.25129e-13
5.08004e-13
4.89094e-13
4.68626e-13
4.46845e-13
4.24005e-13
4.00364e-13
3.76182e-13
3.51712e-13
3.27199e-13
3.02873e-13
2.78946e-13
2.55614e-13
2.33044e-13
2.11385e-13
1.90758e-13
1.71259e-13
1.52959e-13
1.35907e-13
1.20127e-13
1.05625e-13
9.23874e-14
8.03835e-14
6.95701e-14
5.98925e-14
5.12872e-14
4.36842e-14
3.70095e-14
3.11866e-14
2.61385e-14
2.17895e-14
1.8066e-14
1.48976e-14
1.22182e-14
9.96611e-15
8.08483e-15
6.52282e-15
5.23377e-15
4.17642e-15
3.31436e-15
2.61575e-15
2.053e-15
1.60242e-15
1.2438e-15
9.60092e-16
7.36981e-16
5.62572e-16
4.27047e-16
3.22363e-16
2.41982e-16
1.8063e-16
1.34078e-16
9.89663e-17
7.26399e-17
5.30176e-17
3.84785e-17
2.77695e-17
1.99281e-17
1.42205e-17
1.00903e-17
7.1194e-18
4.99486e-18
3.48457e-18
2.41728e-18
1.66757e-18
1.14419e-18
7.81244e-19
5.3152e-19
3.6154e-19
2.47877e-19
1.74486e-19
1.30809e-19
1.10472e-19
4.35669e-19
4.68859e-19
5.37253e-19
6.44564e-19
7.9665e-19
1.00184e-18
1.2714e-18
1.62007e-18
2.06681e-18
2.6357e-18
3.357e-18
4.26853e-18
5.41725e-18
6.86131e-18
8.67241e-18
1.09387e-17
1.37683e-17
1.72934e-17
2.16753e-17
2.71101e-17
3.38362e-17
4.21417e-17
5.2375e-17
6.49555e-17
8.03872e-17
9.92743e-17
1.22339e-16
1.50441e-16
1.84607e-16
2.26049e-16
2.76204e-16
3.36769e-16
4.09738e-16
4.97451e-16
6.0265e-16
7.28531e-16
8.78818e-16
1.05783e-15
1.27057e-15
1.52281e-15
1.82119e-15
2.17334e-15
2.58797e-15
3.07502e-15
3.64583e-15
4.3132e-15
5.09163e-15
5.99746e-15
7.04902e-15
8.26685e-15
9.67384e-15
1.12955e-14
1.31599e-14
1.52983e-14
1.7745e-14
2.05374e-14
2.37166e-14
2.7327e-14
3.1417e-14
3.60385e-14
4.12474e-14
4.71032e-14
5.36694e-14
6.1013e-14
6.92047e-14
7.83181e-14
8.84302e-14
9.96201e-14
1.11969e-13
1.2556e-13
1.40477e-13
1.56802e-13
1.74619e-13
1.94007e-13
2.15045e-13
2.37805e-13
2.62355e-13
2.88755e-13
3.17058e-13
3.47304e-13
3.79524e-13
4.13736e-13
4.49942e-13
4.88129e-13
5.28263e-13
5.70295e-13
6.14153e-13
6.59745e-13
7.06954e-13
7.55644e-13
8.0565e-13
8.56787e-13
9.08846e-13
9.61593e-13
1.01477e-12
1.06811e-12
1.12131e-12
1.17406e-12
1.22603e-12
1.27688e-12
1.32626e-12
1.37382e-12
1.41921e-12
1.46206e-12
1.50203e-12
1.53879e-12
1.57202e-12
1.60141e-12
1.62669e-12
1.64761e-12
1.66395e-12
1.67554e-12
1.68224e-12
1.68394e-12
1.68059e-12
1.67218e-12
1.65876e-12
1.64039e-12
1.61722e-12
1.58943e-12
1.55722e-12
1.52087e-12
1.48067e-12
1.43697e-12
1.39012e-12
1.34052e-12
1.28858e-12
1.23475e-12
1.17945e-12
1.12314e-12
1.06627e-12
1.00929e-12
9.5263e-13
8.96722e-13
8.41971e-13
7.88765e-13
7.37466e-13
6.88411e-13
6.41908e-13
5.98232e-13
5.5763e-13
5.20313e-13
4.86461e-13
4.56219e-13
4.29703e-13
4.06992e-13
3.88136e-13
3.73154e-13
3.62035e-13
3.54737e-13
3.5119e-13
3.51298e-13
3.54934e-13
3.61948e-13
3.7216e-13
3.85366e-13
4.01339e-13
4.19823e-13
4.40542e-13
4.63197e-13
4.87467e-13
5.13013e-13
5.39479e-13
5.66495e-13
5.93682e-13
6.20652e-13
6.47017e-13
6.72391e-13
6.96393e-13
7.1866e-13
7.38843e-13
7.56622e-13
7.71702e-13
7.83828e-13
7.92781e-13
7.9839e-13
8.00528e-13
7.9912e-13
7.94143e-13
7.85626e-13
7.73649e-13
7.58341e-13
7.39881e-13
7.18487e-13
6.94419e-13
6.67967e-13
6.39448e-13
6.09199e-13
5.77568e-13
5.4491e-13
5.11579e-13
4.77919e-13
4.44261e-13
4.10915e-13
3.7817e-13
3.46283e-13
3.15481e-13
2.85959e-13
2.57878e-13
2.31362e-13
2.06505e-13
1.83366e-13
1.61975e-13
1.42335e-13
1.24423e-13
1.08194e-13
9.35869e-14
8.05244e-14
6.89181e-14
5.86712e-14
4.96816e-14
4.18444e-14
3.50547e-14
2.92088e-14
2.42066e-14
1.99526e-14
1.63572e-14
1.33369e-14
1.0815e-14
8.72225e-15
6.99599e-15
5.58066e-15
4.42723e-15
3.4929e-15
2.74058e-15
2.13844e-15
1.65938e-15
1.28051e-15
9.82674e-16
7.49927e-16
5.69125e-16
4.2951e-16
3.22339e-16
2.4056e-16
1.78526e-16
1.31748e-16
9.66832e-17
7.05532e-17
5.11965e-17
3.69419e-17
2.65065e-17
1.89119e-17
1.34174e-17
9.46562e-18
6.64013e-18
4.63183e-18
3.21281e-18
2.21615e-18
1.52046e-18
1.03806e-18
7.06191e-19
4.80315e-19
3.29287e-19
2.31776e-19
1.73747e-19
1.46728e-19
7.49629e-19
8.06691e-19
9.24288e-19
1.10879e-18
1.37026e-18
1.72301e-18
2.18635e-18
2.78561e-18
3.55333e-18
4.53082e-18
5.77001e-18
7.33574e-18
9.30857e-18
1.17882e-17
1.48975e-17
1.87875e-17
2.36434e-17
2.96916e-17
3.72081e-17
4.65287e-17
5.80608e-17
7.22975e-17
8.98338e-17
1.11387e-16
1.37816e-16
1.70154e-16
2.09632e-16
2.57718e-16
3.16158e-16
3.8702e-16
4.72749e-16
5.7623e-16
7.00855e-16
8.50602e-16
1.03012e-15
1.24484e-15
1.50107e-15
1.80613e-15
2.16848e-15
2.59788e-15
3.10556e-15
3.70439e-15
4.40905e-15
5.23632e-15
6.20523e-15
7.33732e-15
8.65694e-15
1.01915e-14
1.19716e-14
1.40317e-14
1.641e-14
1.91489e-14
2.22954e-14
2.59013e-14
3.00233e-14
3.47237e-14
4.00702e-14
4.61363e-14
5.30013e-14
6.07507e-14
6.94759e-14
7.92744e-14
9.02496e-14
1.0251e-13
1.16171e-13
1.31351e-13
1.48174e-13
1.66766e-13
1.87257e-13
2.0978e-13
2.34465e-13
2.61444e-13
2.90844e-13
3.22791e-13
3.57402e-13
3.94789e-13
4.3505e-13
4.78273e-13
5.24532e-13
5.73882e-13
6.26359e-13
6.81975e-13
7.4072e-13
8.02556e-13
8.67415e-13
9.35198e-13
1.00577e-12
1.07897e-12
1.15459e-12
1.23239e-12
1.3121e-12
1.39339e-12
1.47593e-12
1.55931e-12
1.64312e-12
1.72691e-12
1.8102e-12
1.89248e-12
1.97323e-12
2.0519e-12
2.12794e-12
2.20079e-12
2.26991e-12
2.33473e-12
2.39473e-12
2.44939e-12
2.49823e-12
2.5408e-12
2.57669e-12
2.60555e-12
2.62707e-12
2.641e-12
2.64716e-12
2.64543e-12
2.63577e-12
2.61821e-12
2.59285e-12
2.55985e-12
2.51947e-12
2.47201e-12
2.41786e-12
2.35746e-12
2.2913e-12
2.21994e-12
2.14397e-12
2.06402e-12
1.98073e-12
1.89481e-12
1.80693e-12
1.7178e-12
1.6281e-12
1.53853e-12
1.44974e-12
1.36238e-12
1.27706e-12
1.19436e-12
1.1148e-12
1.03889e-12
9.67055e-13
8.99704e-13
8.37179e-13
7.79772e-13
7.27728e-13
6.81239e-13
6.40446e-13
6.05445e-13
5.7628e-13
5.52953e-13
5.3542e-13
5.23593e-13
5.17344e-13
5.16505e-13
5.20869e-13
5.30191e-13
5.44188e-13
5.62544e-13
5.84905e-13
6.10887e-13
6.40073e-13
6.72016e-13
7.0624e-13
7.42247e-13
7.79516e-13
8.1751e-13
8.55677e-13
8.93462e-13
9.30307e-13
9.6566e-13
9.98986e-13
1.02977e-12
1.05752e-12
1.08178e-12
1.10216e-12
1.1183e-12
1.1299e-12
1.13674e-12
1.13863e-12
1.13551e-12
1.12734e-12
1.11418e-12
1.09616e-12
1.07348e-12
1.04639e-12
1.01523e-12
9.80357e-13
9.42199e-13
9.01207e-13
8.57861e-13
8.12655e-13
7.66091e-13
7.18665e-13
6.70862e-13
6.23145e-13
5.75947e-13
5.29667e-13
4.84662e-13
4.41245e-13
3.99683e-13
3.60195e-13
3.2295e-13
2.8807e-13
2.55634e-13
2.25677e-13
1.98196e-13
1.73154e-13
1.50485e-13
1.30097e-13
1.11879e-13
9.57043e-14
8.14338e-14
6.89228e-14
5.80229e-14
4.85856e-14
4.0465e-14
3.35206e-14
2.76182e-14
2.26322e-14
1.84459e-14
1.49523e-14
1.20545e-14
9.66525e-15
7.70725e-15
6.11225e-15
4.82076e-15
3.78126e-15
2.94958e-15
2.28815e-15
1.76523e-15
1.35429e-15
1.03326e-15
7.83957e-16
5.91501e-16
4.4381e-16
3.31141e-16
2.45698e-16
1.81284e-16
1.3301e-16
9.70446e-17
7.04078e-17
5.0796e-17
3.64414e-17
2.59965e-17
1.84412e-17
1.30081e-17
9.12404e-18
6.36375e-18
4.41366e-18
3.04417e-18
2.08835e-18
1.42566e-18
9.69788e-19
6.59549e-19
4.52128e-19
3.18218e-19
2.38531e-19
2.01428e-19
1.2919e-18
1.39017e-18
1.59269e-18
1.91043e-18
2.36068e-18
2.96806e-18
3.76579e-18
4.79741e-18
6.11887e-18
7.80118e-18
9.93356e-18
1.26275e-17
1.60212e-17
2.02861e-17
2.5633e-17
3.23213e-17
4.06686e-17
5.10634e-17
6.3979e-17
7.99911e-17
9.97978e-17
1.24244e-16
1.54348e-16
1.91338e-16
2.36685e-16
2.92153e-16
3.59849e-16
4.4228e-16
5.42427e-16
6.63822e-16
8.10635e-16
9.87785e-16
1.20105e-15
1.45721e-15
1.76417e-15
2.13116e-15
2.56891e-15
3.08984e-15
3.70832e-15
4.44089e-15
5.30656e-15
6.3271e-15
7.52737e-15
8.93568e-15
1.05841e-14
1.25091e-14
1.47515e-14
1.73574e-14
2.03784e-14
2.3872e-14
2.79023e-14
3.25404e-14
3.78647e-14
4.39615e-14
5.09253e-14
5.88597e-14
6.78768e-14
7.80984e-14
8.96558e-14
1.0269e-13
1.17351e-13
1.33799e-13
1.52203e-13
1.72741e-13
1.95599e-13
2.20971e-13
2.49056e-13
2.80059e-13
3.14188e-13
3.51652e-13
3.9266e-13
4.3742e-13
4.86131e-13
5.38988e-13
5.9617e-13
6.57846e-13
7.24165e-13
7.95252e-13
8.7121e-13
9.52109e-13
1.03799e-12
1.12885e-12
1.22464e-12
1.32529e-12
1.43066e-12
1.54056e-12
1.65476e-12
1.77294e-12
1.89477e-12
2.01983e-12
2.14764e-12
2.27767e-12
2.40934e-12
2.542e-12
2.67496e-12
2.80748e-12
2.93876e-12
3.068e-12
3.19435e-12
3.31694e-12
3.43488e-12
3.5473e-12
3.65333e-12
3.75211e-12
3.84281e-12
3.92465e-12
3.99689e-12
4.05886e-12
4.10995e-12
4.14965e-12
4.17752e-12
4.19323e-12
4.19654e-12
4.18733e-12
4.1656e-12
4.13143e-12
4.08506e-12
4.02681e-12
3.95712e-12
3.87654e-12
3.78573e-12
3.68541e-12
3.57642e-12
3.45964e-12
3.33605e-12
3.20665e-12
3.07249e-12
2.93465e-12
2.7942e-12
2.65225e-12
2.50987e-12
2.36811e-12
2.22799e-12
2.09049e-12
1.95652e-12
1.82696e-12
1.70259e-12
1.58414e-12
1.47225e-12
1.3675e-12
1.27038e-12
1.1813e-12
1.10058e-12
1.02849e-12
9.65192e-13
9.10792e-13
8.65322e-13
8.28742e-13
8.00949e-13
7.81776e-13
7.70995e-13
7.68322e-13
7.73414e-13
7.85877e-13
8.05265e-13
8.3108e-13
8.62778e-13
8.99769e-13
9.41419e-13
9.87054e-13
1.03596e-12
1.0874e-12
1.1406e-12
1.19477e-12
1.2491e-12
1.30278e-12
1.355e-12
1.40497e-12
1.4519e-12
1.49507e-12
1.53378e-12
1.56739e-12
1.59533e-12
1.61711e-12
1.63231e-12
1.64062e-12
1.64182e-12
1.63581e-12
1.62257e-12
1.6022e-12
1.57491e-12
1.54099e-12
1.50084e-12
1.45492e-12
1.4038e-12
1.34807e-12
1.2884e-12
1.22548e-12
1.16002e-12
1.09273e-12
1.02433e-12
9.55508e-13
8.86918e-13
8.19175e-13
7.52839e-13
6.88414e-13
6.26338e-13
5.66982e-13
5.10647e-13
4.57566e-13
4.07905e-13
3.61765e-13
3.1919e-13
2.80167e-13
2.44636e-13
2.12497e-13
1.83614e-13
1.57823e-13
1.3494e-13
1.14765e-13
9.70881e-14
8.16973e-14
6.83796e-14
5.69267e-14
4.71378e-14
3.88223e-14
3.18013e-14
2.59092e-14
2.09945e-14
1.69197e-14
1.35616e-14
1.08107e-14
8.57075e-15
6.75771e-15
5.29898e-15
4.13231e-15
3.20477e-15
2.47173e-15
1.89583e-15
1.44608e-15
1.09691e-15
8.27442e-16
6.20705e-16
4.63032e-16
3.4349e-16
2.5339e-16
1.85881e-16
1.35596e-16
9.83615e-17
7.09522e-17
5.0894e-17
3.63016e-17
2.57478e-17
1.81597e-17
1.2736e-17
8.88197e-18
6.15954e-18
4.24792e-18
2.91386e-18
1.98904e-18
1.35291e-18
9.20036e-19
6.30646e-19
4.43829e-19
3.32664e-19
2.80906e-19
2.21831e-18
2.38691e-18
2.73441e-18
3.27958e-18
4.05208e-18
5.09407e-18
6.4625e-18
8.23193e-18
1.04982e-17
1.3383e-17
1.7039e-17
2.16571e-17
2.7474e-17
3.47828e-17
4.39444e-17
5.54022e-17
6.96995e-17
8.75002e-17
1.09613e-16
1.37022e-16
1.70918e-16
2.12745e-16
2.6424e-16
3.27497e-16
4.05026e-16
4.99833e-16
6.15507e-16
7.56317e-16
9.27338e-16
1.13457e-15
1.38512e-15
1.68734e-15
2.05103e-15
2.48771e-15
3.01078e-15
3.63591e-15
4.38124e-15
5.26782e-15
6.31993e-15
7.56555e-15
9.03676e-15
1.07703e-14
1.28081e-14
1.51978e-14
1.79934e-14
2.1256e-14
2.50544e-14
2.94658e-14
3.45765e-14
4.0483e-14
4.72922e-14
5.51226e-14
6.41049e-14
7.43827e-14
8.61132e-14
9.94676e-14
1.14632e-13
1.31807e-13
1.5121e-13
1.73072e-13
1.9764e-13
2.25176e-13
2.55957e-13
2.90272e-13
3.28424e-13
3.70726e-13
4.17499e-13
4.69073e-13
5.25781e-13
5.87956e-13
6.5593e-13
7.30027e-13
8.10561e-13
8.97832e-13
9.92115e-13
1.09366e-12
1.2027e-12
1.3194e-12
1.4439e-12
1.57629e-12
1.7166e-12
1.86481e-12
2.02079e-12
2.18439e-12
2.35533e-12
2.5333e-12
2.71784e-12
2.90846e-12
3.10452e-12
3.30534e-12
3.5101e-12
3.71793e-12
3.92783e-12
4.13875e-12
4.34954e-12
4.559e-12
4.76584e-12
4.96876e-12
5.16638e-12
5.35733e-12
5.54021e-12
5.71362e-12
5.8762e-12
6.02661e-12
6.16359e-12
6.28592e-12
6.3925e-12
6.48231e-12
6.55447e-12
6.60823e-12
6.64297e-12
6.65825e-12
6.65379e-12
6.62949e-12
6.58542e-12
6.52183e-12
6.43915e-12
6.338e-12
6.21915e-12
6.08355e-12
5.93228e-12
5.76658e-12
5.5878e-12
5.39741e-12
5.19694e-12
4.98802e-12
4.77232e-12
4.55153e-12
4.32736e-12
4.10151e-12
3.87564e-12
3.65138e-12
3.4303e-12
3.21386e-12
3.00347e-12
2.80042e-12
2.60589e-12
2.42095e-12
2.24655e-12
2.0835e-12
1.9325e-12
1.79412e-12
1.66881e-12
1.5569e-12
1.45859e-12
1.37397e-12
1.30305e-12
1.2457e-12
1.20172e-12
1.17079e-12
1.15254e-12
1.14647e-12
1.15205e-12
1.16862e-12
1.1955e-12
1.2319e-12
1.27698e-12
1.32983e-12
1.3895e-12
1.45497e-12
1.52516e-12
1.59897e-12
1.67525e-12
1.75283e-12
1.83054e-12
1.90717e-12
1.98155e-12
2.05253e-12
2.11898e-12
2.17984e-12
2.23412e-12
2.28091e-12
2.31941e-12
2.34891e-12
2.36884e-12
2.37879e-12
2.37845e-12
2.3677e-12
2.34654e-12
2.31515e-12
2.27385e-12
2.22307e-12
2.16343e-12
2.0956e-12
2.02041e-12
1.93874e-12
1.85155e-12
1.75984e-12
1.66464e-12
1.56698e-12
1.46789e-12
1.36834e-12
1.26927e-12
1.17156e-12
1.076e-12
9.83307e-13
8.94093e-13
8.08878e-13
7.28082e-13
6.52026e-13
5.80934e-13
5.14941e-13
4.54096e-13
3.98371e-13
3.47673e-13
3.01847e-13
2.60693e-13
2.2397e-13
1.91408e-13
1.62717e-13
1.37595e-13
1.15734e-13
9.68278e-14
8.05778e-14
6.6696e-14
5.49095e-14
4.49627e-14
3.66191e-14
2.96627e-14
2.38975e-14
1.91483e-14
1.52594e-14
1.2094e-14
9.53292e-15
7.47302e-15
5.82611e-15
4.5172e-15
3.48308e-15
2.6709e-15
2.0368e-15
1.54465e-15
1.16494e-15
8.73694e-16
6.51628e-16
4.83303e-16
3.56464e-16
2.61448e-16
1.90689e-16
1.38304e-16
9.97491e-17
7.15397e-17
5.10207e-17
3.6183e-17
2.55165e-17
1.78934e-17
1.24773e-17
8.65198e-18
5.96623e-18
4.09216e-18
2.79312e-18
1.89968e-18
1.29176e-18
8.85376e-19
6.23052e-19
4.66964e-19
3.94293e-19
3.78899e-18
4.07675e-18
4.66986e-18
5.60034e-18
6.91873e-18
8.69692e-18
1.10319e-17
1.40509e-17
1.79171e-17
2.28378e-17
2.90732e-17
3.69482e-17
4.68661e-17
5.93256e-17
7.4941e-17
9.44667e-17
1.18827e-16
1.49151e-16
1.86813e-16
2.33485e-16
2.91192e-16
3.62383e-16
4.50011e-16
5.57627e-16
6.8949e-16
8.50697e-16
1.04733e-15
1.28662e-15
1.57717e-15
1.92914e-15
2.35452e-15
2.86745e-15
3.48452e-15
4.22513e-15
5.11195e-15
6.17137e-15
7.43399e-15
8.93525e-15
1.0716e-14
1.28234e-14
1.53112e-14
1.82412e-14
2.16837e-14
2.57185e-14
3.04362e-14
3.59388e-14
4.23414e-14
4.97727e-14
5.83768e-14
6.83142e-14
7.97627e-14
9.29193e-14
1.08001e-13
1.25244e-13
1.44911e-13
1.67282e-13
1.92665e-13
2.21391e-13
2.53814e-13
2.90314e-13
3.31296e-13
3.77186e-13
4.28435e-13
4.85512e-13
5.48906e-13
6.19122e-13
6.96678e-13
7.82101e-13
8.75919e-13
9.78663e-13
1.09086e-12
1.213e-12
1.3456e-12
1.48909e-12
1.64391e-12
1.81044e-12
1.98898e-12
2.1798e-12
2.38307e-12
2.5989e-12
2.82727e-12
3.06809e-12
3.32113e-12
3.58605e-12
3.86238e-12
4.14952e-12
4.4467e-12
4.75304e-12
5.06749e-12
5.38886e-12
5.71581e-12
6.04685e-12
6.38037e-12
6.71462e-12
7.04773e-12
7.37774e-12
7.7026e-12
8.02018e-12
8.3283e-12
8.62477e-12
8.90738e-12
9.17394e-12
9.42233e-12
9.65048e-12
9.85642e-12
1.00383e-11
1.01945e-11
1.03235e-11
1.0424e-11
1.04949e-11
1.05354e-11
1.05449e-11
1.0523e-11
1.04699e-11
1.03857e-11
1.02709e-11
1.01264e-11
9.95323e-12
9.75279e-12
9.52665e-12
9.27665e-12
9.00479e-12
8.7133e-12
8.40453e-12
8.08096e-12
7.74517e-12
7.3998e-12
7.04753e-12
6.691e-12
6.33287e-12
5.97572e-12
5.62202e-12
5.27418e-12
4.93442e-12
4.60487e-12
4.28744e-12
3.98389e-12
3.69579e-12
3.42452e-12
3.17125e-12
2.93696e-12
2.72244e-12
2.52828e-12
2.3549e-12
2.20251e-12
2.07119e-12
1.96084e-12
1.87119e-12
1.80186e-12
1.75231e-12
1.72187e-12
1.70977e-12
1.71511e-12
1.73688e-12
1.77398e-12
1.82519e-12
1.88923e-12
1.96471e-12
2.05016e-12
2.14406e-12
2.24479e-12
2.35071e-12
2.46012e-12
2.57129e-12
2.68247e-12
2.79192e-12
2.89794e-12
2.99882e-12
3.09297e-12
3.17884e-12
3.25501e-12
3.32019e-12
3.37324e-12
3.41316e-12
3.43918e-12
3.4507e-12
3.44735e-12
3.42896e-12
3.39558e-12
3.34751e-12
3.28522e-12
3.2094e-12
3.12093e-12
3.02084e-12
2.91032e-12
2.79068e-12
2.6633e-12
2.52963e-12
2.39115e-12
2.24937e-12
2.10574e-12
1.96166e-12
1.81849e-12
1.67746e-12
1.53971e-12
1.40623e-12
1.2779e-12
1.15545e-12
1.03945e-12
9.30362e-13
8.2848e-13
7.33983e-13
6.46926e-13
5.67256e-13
4.94824e-13
4.29399e-13
3.70683e-13
3.18322e-13
2.71923e-13
2.31065e-13
1.95309e-13
1.64211e-13
1.37332e-13
1.14241e-13
9.45243e-14
7.77918e-14
6.36775e-14
5.18435e-14
4.1981e-14
3.38109e-14
2.70832e-14
2.15763e-14
1.70956e-14
1.34715e-14
1.05577e-14
8.22884e-15
6.37851e-15
4.91709e-15
3.76964e-15
2.87403e-15
2.17912e-15
1.64309e-15
1.23206e-15
9.18731e-16
6.81283e-16
5.02396e-16
3.6842e-16
2.68666e-16
1.94829e-16
1.40496e-16
1.00749e-16
7.18427e-17
5.09431e-17
3.5921e-17
2.51866e-17
1.75611e-17
1.21759e-17
8.39544e-18
5.75779e-18
3.92965e-18
2.67244e-18
1.81708e-18
1.24534e-18
8.76293e-19
6.56715e-19
5.54486e-19
6.4347e-18
6.92301e-18
7.92952e-18
9.5085e-18
1.17456e-17
1.47627e-17
1.87242e-17
2.38456e-17
3.04034e-17
3.87487e-17
4.93224e-17
6.26744e-17
7.94877e-17
1.00606e-16
1.2707e-16
1.60154e-16
2.01423e-16
2.52785e-16
3.16565e-16
3.95586e-16
4.93271e-16
6.13754e-16
7.62021e-16
9.44064e-16
1.16707e-15
1.43963e-15
1.772e-15
2.17636e-15
2.66719e-15
3.26159e-15
3.97976e-15
4.84546e-15
5.88654e-15
7.13563e-15
8.63076e-15
1.04162e-14
1.25432e-14
1.50713e-14
1.80687e-14
2.16143e-14
2.57981e-14
3.07231e-14
3.65067e-14
4.32821e-14
5.11999e-14
6.04301e-14
7.11638e-14
8.36148e-14
9.80222e-14
1.14652e-13
1.33798e-13
1.55785e-13
1.80972e-13
2.0975e-13
2.42547e-13
2.79827e-13
3.22093e-13
3.69886e-13
4.23786e-13
4.84413e-13
5.52423e-13
6.2851e-13
7.13402e-13
8.07858e-13
9.12665e-13
1.02863e-12
1.15659e-12
1.29737e-12
1.45182e-12
1.62078e-12
1.80505e-12
2.00544e-12
2.22269e-12
2.45751e-12
2.71054e-12
2.98232e-12
3.27332e-12
3.58388e-12
3.91424e-12
4.26446e-12
4.63447e-12
5.02401e-12
5.43266e-12
5.85976e-12
6.30448e-12
6.76573e-12
7.24223e-12
7.73244e-12
8.2346e-12
8.7467e-12
9.26653e-12
9.79163e-12
1.03194e-11
1.08468e-11
1.13711e-11
1.18889e-11
1.2397e-11
1.28919e-11
1.33703e-11
1.38286e-11
1.42634e-11
1.46713e-11
1.50489e-11
1.53932e-11
1.5701e-11
1.59696e-11
1.61966e-11
1.63796e-11
1.65169e-11
1.66069e-11
1.66484e-11
1.66409e-11
1.65839e-11
1.64777e-11
1.63229e-11
1.61205e-11
1.5872e-11
1.55793e-11
1.52447e-11
1.48708e-11
1.44608e-11
1.40178e-11
1.35455e-11
1.30476e-11
1.25282e-11
1.19912e-11
1.14409e-11
1.08814e-11
1.03169e-11
9.75142e-12
9.18894e-12
8.63329e-12
8.08807e-12
7.5567e-12
7.04231e-12
6.5478e-12
6.07573e-12
5.62842e-12
5.20785e-12
4.81569e-12
4.4533e-12
4.12177e-12
3.82187e-12
3.55408e-12
3.31863e-12
3.11549e-12
2.94438e-12
2.80479e-12
2.69601e-12
2.61714e-12
2.56706e-12
2.54452e-12
2.54807e-12
2.57612e-12
2.62696e-12
2.69871e-12
2.78939e-12
2.89688e-12
3.01898e-12
3.15338e-12
3.29767e-12
3.44941e-12
3.60606e-12
3.76509e-12
3.92394e-12
4.08005e-12
4.23093e-12
4.37414e-12
4.50734e-12
4.62833e-12
4.73508e-12
4.82573e-12
4.89866e-12
4.9525e-12
4.98615e-12
4.99881e-12
4.98997e-12
4.95945e-12
4.90739e-12
4.83423e-12
4.74073e-12
4.62791e-12
4.49707e-12
4.34975e-12
4.18768e-12
4.01276e-12
3.827e-12
3.6325e-12
3.43142e-12
3.22588e-12
3.01798e-12
2.80976e-12
2.60311e-12
2.3998e-12
2.20144e-12
2.00945e-12
1.82505e-12
1.64926e-12
1.48289e-12
1.32657e-12
1.18069e-12
1.04549e-12
9.21036e-13
8.07221e-13
7.03818e-13
6.10481e-13
5.26768e-13
4.52163e-13
3.86091e-13
3.27943e-13
2.77084e-13
2.32875e-13
1.94682e-13
1.61887e-13
1.339e-13
1.10158e-13
9.01409e-14
7.33647e-14
5.9389e-14
4.78162e-14
3.82902e-14
3.04957e-14
2.41559e-14
1.90299e-14
1.49099e-14
1.16181e-14
9.00344e-15
6.93895e-15
5.31847e-15
4.05399e-15
3.07312e-15
2.31671e-15
1.73683e-15
1.29489e-15
9.60046e-16
7.07841e-16
5.18991e-16
3.78408e-16
2.7437e-16
1.97826e-16
1.4184e-16
1.01131e-16
7.17019e-17
5.05523e-17
3.54416e-17
2.47086e-17
1.71298e-17
1.18101e-17
8.09886e-18
5.52693e-18
3.75839e-18
2.55524e-18
1.75109e-18
1.23207e-18
9.23275e-19
7.79512e-19
1.08637e-17
1.16875e-17
1.33855e-17
1.60493e-17
1.98231e-17
2.49122e-17
3.15938e-17
4.02306e-17
5.12887e-17
6.53591e-17
8.31842e-17
1.0569e-16
1.34026e-16
1.69612e-16
2.14197e-16
2.69929e-16
3.39434e-16
4.25923e-16
5.33302e-16
6.66316e-16
8.30712e-16
1.03343e-15
1.28284e-15
1.589e-15
1.96396e-15
2.42213e-15
2.98068e-15
3.66004e-15
4.48444e-15
5.4825e-15
6.68801e-15
8.14069e-15
9.88711e-15
1.19817e-14
1.44881e-14
1.74799e-14
2.10428e-14
2.52757e-14
3.02925e-14
3.62241e-14
4.32204e-14
5.14524e-14
6.11148e-14
7.24284e-14
8.5643e-14
1.0104e-13
1.18934e-13
1.3968e-13
1.63672e-13
1.91347e-13
2.2319e-13
2.59735e-13
3.0157e-13
3.49337e-13
4.03735e-13
4.65524e-13
5.35523e-13
6.14614e-13
7.0374e-13
8.03904e-13
9.16172e-13
1.04166e-12
1.18154e-12
1.33704e-12
1.50942e-12
1.69996e-12
1.90998e-12
2.14082e-12
2.39379e-12
2.67021e-12
2.97135e-12
3.29844e-12
3.65263e-12
4.03499e-12
4.44647e-12
4.88787e-12
5.35984e-12
5.86284e-12
6.39714e-12
6.96272e-12
7.55936e-12
8.18652e-12
8.84335e-12
9.52871e-12
1.02411e-11
1.09786e-11
1.17391e-11
1.252e-11
1.33183e-11
1.41306e-11
1.49534e-11
1.57826e-11
1.66139e-11
1.74427e-11
1.8264e-11
1.90728e-11
1.98639e-11
2.06318e-11
2.13711e-11
2.20763e-11
2.27421e-11
2.3363e-11
2.39341e-11
2.44505e-11
2.49075e-11
2.53011e-11
2.56276e-11
2.58836e-11
2.60665e-11
2.61743e-11
2.62054e-11
2.6159e-11
2.60351e-11
2.58343e-11
2.55577e-11
2.52073e-11
2.47858e-11
2.42964e-11
2.3743e-11
2.313e-11
2.24623e-11
2.17453e-11
2.09848e-11
2.01867e-11
1.93573e-11
1.85031e-11
1.76306e-11
1.67462e-11
1.58564e-11
1.49675e-11
1.40855e-11
1.32162e-11
1.23651e-11
1.15374e-11
1.07376e-11
9.97016e-12
9.23878e-12
8.54681e-12
7.89712e-12
7.29206e-12
6.73353e-12
6.22296e-12
5.76133e-12
5.34918e-12
4.98668e-12
4.67357e-12
4.40925e-12
4.1928e-12