/*--------------------------------*- C++ -*----------------------------------*\
| =========                 |                                                 |
| \\      /  F ield         | OpenFOAM: The Open Source CFD Toolbox           |
|  \\    /   O peration     | Version:  v2012                                 |
|   \\  /    A nd           | Website:  www.openfoam.com                      |
|    \\/     M anipulation  |                                                 |
\*---------------------------------------------------------------------------*/
FoamFile
{
    version     2.0;
    format      ascii;
    class       volVectorField;
    location    "70";
    object      Usup;
}
// * * * * * * * * * * * * * * * * * * * * * * * * * * * * * * * * * * * * * //

dimensions      [0 1 -1 0 0 0 0];


internalField   nonuniform List<vector> 
4000
(
(-3.00427e-16 1.47517e-16 0)
(-6.20686e-16 5.23926e-16 0)
(-7.33765e-16 8.66296e-16 0)
(-1.65719e-15 7.86064e-16 0)
(-2.76901e-15 1.4626e-15 0)
(-3.18096e-15 1.28253e-15 0)
(-3.85244e-15 1.48539e-15 0)
(-4.39557e-15 1.85314e-15 0)
(-4.50802e-15 1.86637e-15 0)
(-4.89497e-15 1.84106e-15 0)
(-5.59519e-15 1.83053e-15 0)
(-6.18774e-15 2.29681e-15 0)
(-6.18476e-15 2.58634e-15 0)
(-6.11477e-15 3.03388e-15 0)
(-6.16467e-15 3.43668e-15 0)
(-5.69526e-15 3.80667e-15 0)
(-5.66889e-15 3.33657e-15 0)
(-6.43929e-15 2.9316e-15 0)
(-6.63657e-15 2.78004e-15 0)
(-6.71422e-15 2.75568e-15 0)
(-6.78552e-15 2.60483e-15 0)
(-6.77397e-15 2.22824e-15 0)
(-6.54044e-15 2.17147e-15 0)
(-6.11707e-15 1.88766e-15 0)
(-5.84719e-15 1.92035e-15 0)
(-5.11333e-15 1.95354e-15 0)
(-5.08173e-15 1.63143e-15 0)
(-5.4416e-15 1.85445e-15 0)
(-5.62763e-15 1.79767e-15 0)
(-5.93911e-15 2.06828e-15 0)
(-5.93176e-15 2.45886e-15 0)
(-5.62206e-15 2.58417e-15 0)
(-4.99989e-15 2.12364e-15 0)
(-4.84385e-15 1.69178e-15 0)
(-5.29977e-15 1.23512e-15 0)
(-5.80892e-15 1.08908e-15 0)
(-6.27326e-15 1.09869e-15 0)
(-6.60375e-15 1.38704e-15 0)
(-6.20112e-15 1.71492e-15 0)
(-5.14094e-15 1.41484e-15 0)
(-4.41714e-15 1.22304e-15 0)
(-4.18118e-15 9.16101e-16 0)
(-4.30683e-15 9.12126e-16 0)
(-4.68867e-15 8.95776e-16 0)
(-5.02816e-15 8.03375e-16 0)
(-4.74101e-15 7.5254e-16 0)
(-4.46049e-15 6.82164e-16 0)
(-4.7695e-15 1.2388e-15 0)
(-4.75351e-15 1.4942e-15 0)
(-4.27765e-15 1.24836e-15 0)
(-3.26214e-15 1.18004e-15 0)
(-2.49069e-15 1.11751e-15 0)
(-2.10323e-15 1.36527e-15 0)
(-1.49348e-15 1.39006e-15 0)
(-1.06692e-15 1.45697e-15 0)
(-8.17333e-16 1.3474e-15 0)
(-4.93735e-16 8.95849e-16 0)
(-2.05962e-16 9.18094e-16 0)
(-9.4681e-17 1.14583e-15 0)
(-3.60602e-16 1.51952e-15 0)
(-6.94699e-16 1.53167e-15 0)
(-1.43331e-15 1.29722e-15 0)
(-2.07296e-15 1.28429e-15 0)
(-2.18178e-15 1.19177e-15 0)
(-2.40487e-15 1.14685e-15 0)
(-2.48851e-15 1.1177e-15 0)
(-2.85207e-15 1.00831e-15 0)
(-3.40915e-15 1.00846e-15 0)
(-3.88223e-15 1.06888e-15 0)
(-4.04316e-15 1.02253e-15 0)
(-4.04712e-15 1.00231e-15 0)
(-4.49633e-15 1.06217e-15 0)
(-4.9028e-15 1.36298e-15 0)
(-4.4016e-15 1.64528e-15 0)
(-3.77967e-15 1.59864e-15 0)
(-4.10303e-15 1.24261e-15 0)
(-4.61406e-15 1.30606e-15 0)
(-4.71557e-15 1.29347e-15 0)
(-4.89126e-15 1.46993e-15 0)
(-5.01981e-15 1.31307e-15 0)
(-5.31786e-15 1.09118e-15 0)
(-5.73157e-15 1.14897e-15 0)
(-5.93063e-15 1.03585e-15 0)
(-5.78007e-15 1.29131e-15 0)
(-5.37082e-15 1.18815e-15 0)
(-4.66113e-15 1.40127e-15 0)
(-3.68265e-15 1.15504e-15 0)
(-2.96837e-15 7.3094e-16 0)
(-2.75633e-15 4.59651e-16 0)
(-2.9079e-15 5.63913e-16 0)
(-2.96846e-15 4.05654e-16 0)
(-3.05124e-15 4.07026e-16 0)
(-3.56823e-15 1.92226e-16 0)
(-3.88696e-15 3.09494e-16 0)
(-3.28544e-15 2.50428e-16 0)
(-2.71299e-15 5.69866e-17 0)
(-2.45115e-15 8.98896e-17 0)
(-2.03934e-15 9.61426e-17 0)
(-1.59729e-15 1.50451e-16 0)
(-8.52044e-16 3.77659e-17 0)
(-7.34362e-16 6.46957e-16 0)
(-1.77604e-15 1.71172e-15 0)
(-2.88412e-15 2.41375e-15 0)
(-4.86577e-15 2.54287e-15 0)
(-7.5449e-15 3.6523e-15 0)
(-9.33363e-15 4.12907e-15 0)
(-1.06703e-14 4.59765e-15 0)
(-1.22488e-14 5.42591e-15 0)
(-1.32176e-14 5.63734e-15 0)
(-1.43582e-14 5.71588e-15 0)
(-1.56518e-14 5.83157e-15 0)
(-1.68095e-14 6.83477e-15 0)
(-1.70621e-14 7.93226e-15 0)
(-1.69487e-14 9.27423e-15 0)
(-1.70566e-14 1.02791e-14 0)
(-1.69251e-14 1.06258e-14 0)
(-1.75637e-14 9.76966e-15 0)
(-1.88027e-14 8.88886e-15 0)
(-1.90908e-14 8.47331e-15 0)
(-1.93435e-14 7.98334e-15 0)
(-1.97469e-14 7.72491e-15 0)
(-1.95767e-14 6.89049e-15 0)
(-1.8921e-14 6.76998e-15 0)
(-1.78696e-14 6.04047e-15 0)
(-1.68239e-14 5.93293e-15 0)
(-1.56098e-14 5.93135e-15 0)
(-1.52852e-14 5.12654e-15 0)
(-1.57301e-14 5.4365e-15 0)
(-1.61436e-14 5.50264e-15 0)
(-1.64045e-14 6.11126e-15 0)
(-1.64626e-14 6.76031e-15 0)
(-1.63894e-14 7.03459e-15 0)
(-1.55809e-14 6.43831e-15 0)
(-1.52719e-14 5.36843e-15 0)
(-1.59723e-14 4.24602e-15 0)
(-1.6759e-14 3.83765e-15 0)
(-1.74475e-14 3.47785e-15 0)
(-1.7769e-14 3.83353e-15 0)
(-1.72388e-14 4.38517e-15 0)
(-1.53678e-14 3.99874e-15 0)
(-1.36785e-14 3.45374e-15 0)
(-1.28645e-14 2.91136e-15 0)
(-1.28092e-14 2.75819e-15 0)
(-1.35813e-14 2.59852e-15 0)
(-1.41976e-14 2.42109e-15 0)
(-1.36509e-14 2.40538e-15 0)
(-1.26375e-14 2.1219e-15 0)
(-1.27589e-14 3.22968e-15 0)
(-1.30745e-14 4.30569e-15 0)
(-1.20292e-14 4.35424e-15 0)
(-9.55692e-15 4.00031e-15 0)
(-7.35411e-15 3.61067e-15 0)
(-6.00798e-15 3.89254e-15 0)
(-4.59493e-15 4.06071e-15 0)
(-3.51842e-15 3.87042e-15 0)
(-3.10229e-15 3.85672e-15 0)
(-2.17588e-15 3.47725e-15 0)
(-1.01039e-15 3.66867e-15 0)
(-5.49549e-16 4.05742e-15 0)
(-1.31635e-15 4.15081e-15 0)
(-2.69598e-15 3.98966e-15 0)
(-4.40822e-15 3.48893e-15 0)
(-5.81941e-15 3.44985e-15 0)
(-6.41146e-15 3.40708e-15 0)
(-7.02366e-15 3.27966e-15 0)
(-7.53461e-15 3.31401e-15 0)
(-8.49262e-15 3.08738e-15 0)
(-9.71605e-15 2.98665e-15 0)
(-1.09225e-14 3.20709e-15 0)
(-1.15521e-14 3.05935e-15 0)
(-1.17503e-14 3.0413e-15 0)
(-1.24833e-14 3.35666e-15 0)
(-1.30893e-14 3.95983e-15 0)
(-1.24711e-14 4.54637e-15 0)
(-1.1856e-14 4.55965e-15 0)
(-1.23776e-14 4.00669e-15 0)
(-1.3177e-14 4.0172e-15 0)
(-1.35e-14 4.06133e-15 0)
(-1.40872e-14 4.17383e-15 0)
(-1.48041e-14 3.98154e-15 0)
(-1.53634e-14 3.47335e-15 0)
(-1.61521e-14 3.287e-15 0)
(-1.63856e-14 3.221e-15 0)
(-1.59624e-14 3.65594e-15 0)
(-1.49069e-14 3.49279e-15 0)
(-1.32342e-14 3.97504e-15 0)
(-1.14245e-14 3.69316e-15 0)
(-9.70621e-15 2.63366e-15 0)
(-8.63633e-15 1.77603e-15 0)
(-8.67152e-15 1.34992e-15 0)
(-8.85072e-15 1.01428e-15 0)
(-9.12338e-15 1.03586e-15 0)
(-9.97877e-15 5.44959e-16 0)
(-1.03243e-14 7.48534e-16 0)
(-9.29025e-15 5.65423e-16 0)
(-7.83479e-15 3.94695e-16 0)
(-6.7475e-15 5.67674e-16 0)
(-5.4937e-15 4.01421e-16 0)
(-4.12154e-15 4.19002e-16 0)
(-1.98041e-15 6.94918e-17 0)
(-1.17389e-15 1.11676e-15 0)
(-3.18431e-15 2.9088e-15 0)
(-5.33592e-15 3.98346e-15 0)
(-8.27059e-15 4.27021e-15 0)
(-1.17392e-14 5.09499e-15 0)
(-1.46109e-14 6.90886e-15 0)
(-1.69993e-14 7.86625e-15 0)
(-1.94176e-14 8.98795e-15 0)
(-2.12898e-14 9.48527e-15 0)
(-2.31547e-14 9.62155e-15 0)
(-2.48486e-14 1.02784e-14 0)
(-2.60944e-14 1.16536e-14 0)
(-2.63888e-14 1.35333e-14 0)
(-2.65582e-14 1.52044e-14 0)
(-2.73869e-14 1.64618e-14 0)
(-2.79323e-14 1.65338e-14 0)
(-2.90341e-14 1.59314e-14 0)
(-3.0556e-14 1.50498e-14 0)
(-3.11095e-14 1.44042e-14 0)
(-3.13929e-14 1.31402e-14 0)
(-3.18265e-14 1.25483e-14 0)
(-3.15233e-14 1.18185e-14 0)
(-3.05877e-14 1.14366e-14 0)
(-2.91915e-14 1.06124e-14 0)
(-2.74159e-14 1.02301e-14 0)
(-2.60141e-14 9.6032e-15 0)
(-2.54398e-14 8.63867e-15 0)
(-2.55236e-14 8.80096e-15 0)
(-2.58873e-14 9.15503e-15 0)
(-2.61635e-14 9.92802e-15 0)
(-2.63082e-14 1.05963e-14 0)
(-2.6289e-14 1.06983e-14 0)
(-2.57587e-14 1.02108e-14 0)
(-2.57654e-14 9.06248e-15 0)
(-2.64244e-14 7.73787e-15 0)
(-2.73469e-14 6.97922e-15 0)
(-2.80819e-14 6.101e-15 0)
(-2.80087e-14 5.94806e-15 0)
(-2.71941e-14 6.20916e-15 0)
(-2.50191e-14 6.15317e-15 0)
(-2.27797e-14 5.4915e-15 0)
(-2.14388e-14 5.31941e-15 0)
(-2.12272e-14 4.70941e-15 0)
(-2.20371e-14 4.20108e-15 0)
(-2.25738e-14 4.05687e-15 0)
(-2.19644e-14 4.21538e-15 0)
(-2.03543e-14 4.07779e-15 0)
(-1.95522e-14 5.03514e-15 0)
(-1.97003e-14 6.42226e-15 0)
(-1.87869e-14 6.88812e-15 0)
(-1.58138e-14 7.05622e-15 0)
(-1.24229e-14 6.68489e-15 0)
(-9.90397e-15 6.82572e-15 0)
(-7.92802e-15 6.90552e-15 0)
(-6.23486e-15 6.42769e-15 0)
(-5.06628e-15 6.46447e-15 0)
(-3.67498e-15 6.61943e-15 0)
(-2.17696e-15 6.65138e-15 0)
(-2.00774e-15 6.72739e-15 0)
(-3.26918e-15 6.19935e-15 0)
(-5.11256e-15 5.72636e-15 0)
(-7.38555e-15 5.52825e-15 0)
(-9.21902e-15 5.48348e-15 0)
(-1.03422e-14 5.45615e-15 0)
(-1.13867e-14 5.15379e-15 0)
(-1.23579e-14 5.10811e-15 0)
(-1.39746e-14 4.93872e-15 0)
(-1.56069e-14 4.97751e-15 0)
(-1.7373e-14 5.29311e-15 0)
(-1.8533e-14 5.58601e-15 0)
(-1.87975e-14 5.8869e-15 0)
(-1.96694e-14 6.14942e-15 0)
(-2.0466e-14 6.79328e-15 0)
(-1.99344e-14 7.26864e-15 0)
(-1.95567e-14 7.1499e-15 0)
(-2.03328e-14 6.84939e-15 0)
(-2.12747e-14 6.90776e-15 0)
(-2.18834e-14 6.87961e-15 0)
(-2.28039e-14 6.59582e-15 0)
(-2.39458e-14 6.4109e-15 0)
(-2.4948e-14 6.00681e-15 0)
(-2.57424e-14 5.9638e-15 0)
(-2.57175e-14 5.97952e-15 0)
(-2.51258e-14 5.96621e-15 0)
(-2.34565e-14 5.77311e-15 0)
(-2.09631e-14 6.02916e-15 0)
(-1.89006e-14 5.64082e-15 0)
(-1.68218e-14 4.5701e-15 0)
(-1.52233e-14 3.30974e-15 0)
(-1.47827e-14 2.30119e-15 0)
(-1.45062e-14 1.59618e-15 0)
(-1.48905e-14 1.27993e-15 0)
(-1.58121e-14 8.03541e-16 0)
(-1.59721e-14 1.08645e-15 0)
(-1.45155e-14 1.21037e-15 0)
(-1.22226e-14 1.06043e-15 0)
(-1.05991e-14 1.0191e-15 0)
(-8.67001e-15 6.15201e-16 0)
(-6.34678e-15 2.86557e-16 0)
(-2.8908e-15 -5.56871e-17 0)
(-1.50171e-15 1.28787e-15 0)
(-4.41676e-15 3.90637e-15 0)
(-7.97994e-15 5.51934e-15 0)
(-1.19723e-14 6.14019e-15 0)
(-1.55361e-14 7.27485e-15 0)
(-1.9022e-14 9.72933e-15 0)
(-2.25566e-14 1.10975e-14 0)
(-2.59654e-14 1.25147e-14 0)
(-2.89174e-14 1.30637e-14 0)
(-3.12097e-14 1.33729e-14 0)
(-3.28893e-14 1.46055e-14 0)
(-3.42142e-14 1.65308e-14 0)
(-3.4861e-14 1.88856e-14 0)
(-3.55122e-14 2.03657e-14 0)
(-3.69384e-14 2.15155e-14 0)
(-3.81804e-14 2.23676e-14 0)
(-3.97825e-14 2.21667e-14 0)
(-4.16538e-14 2.13905e-14 0)
(-4.26857e-14 2.00483e-14 0)
(-4.31512e-14 1.82423e-14 0)
(-4.32114e-14 1.71321e-14 0)
(-4.26917e-14 1.63026e-14 0)
(-4.16248e-14 1.55874e-14 0)
(-3.98769e-14 1.53866e-14 0)
(-3.79374e-14 1.49773e-14 0)
(-3.64168e-14 1.3636e-14 0)
(-3.52034e-14 1.22602e-14 0)
(-3.47562e-14 1.21981e-14 0)
(-3.49008e-14 1.26097e-14 0)
(-3.50771e-14 1.32506e-14 0)
(-3.55211e-14 1.37519e-14 0)
(-3.59154e-14 1.39123e-14 0)
(-3.55634e-14 1.31155e-14 0)
(-3.57535e-14 1.19737e-14 0)
(-3.65202e-14 1.0848e-14 0)
(-3.75183e-14 9.79664e-15 0)
(-3.81836e-14 8.99739e-15 0)
(-3.76704e-14 8.16716e-15 0)
(-3.63781e-14 7.74092e-15 0)
(-3.39783e-14 7.72662e-15 0)
(-3.12496e-14 7.4811e-15 0)
(-2.9704e-14 7.38615e-15 0)
(-2.96598e-14 6.58128e-15 0)
(-3.01309e-14 6.16216e-15 0)
(-3.02547e-14 6.11005e-15 0)
(-2.93959e-14 6.12303e-15 0)
(-2.73678e-14 6.50905e-15 0)
(-2.59593e-14 7.13652e-15 0)
(-2.58977e-14 8.03433e-15 0)
(-2.44848e-14 8.93758e-15 0)
(-2.09249e-14 9.94566e-15 0)
(-1.70164e-14 9.97658e-15 0)
(-1.37939e-14 9.84361e-15 0)
(-1.13998e-14 9.72225e-15 0)
(-9.14039e-15 9.389e-15 0)
(-7.29837e-15 9.16013e-15 0)
(-5.62443e-15 9.36991e-15 0)
(-4.04817e-15 9.32816e-15 0)
(-3.94147e-15 8.96444e-15 0)
(-5.54984e-15 8.13838e-15 0)
(-7.52708e-15 7.59918e-15 0)
(-1.00892e-14 7.30252e-15 0)
(-1.25443e-14 7.28535e-15 0)
(-1.42716e-14 7.18463e-15 0)
(-1.57675e-14 7.09606e-15 0)
(-1.7045e-14 6.97011e-15 0)
(-1.89535e-14 6.8584e-15 0)
(-2.09366e-14 7.03565e-15 0)
(-2.29841e-14 7.25824e-15 0)
(-2.44261e-14 7.96323e-15 0)
(-2.52977e-14 8.73874e-15 0)
(-2.64265e-14 9.07327e-15 0)
(-2.72918e-14 9.97145e-15 0)
(-2.71813e-14 1.0192e-14 0)
(-2.70213e-14 9.97407e-15 0)
(-2.77261e-14 9.66949e-15 0)
(-2.88841e-14 9.70916e-15 0)
(-2.9966e-14 9.49178e-15 0)
(-3.11552e-14 9.3748e-15 0)
(-3.24322e-14 9.06399e-15 0)
(-3.33725e-14 8.74646e-15 0)
(-3.42359e-14 8.92866e-15 0)
(-3.44827e-14 8.89843e-15 0)
(-3.37368e-14 8.42838e-15 0)
(-3.14922e-14 8.24744e-15 0)
(-2.85469e-14 7.70162e-15 0)
(-2.61144e-14 7.04867e-15 0)
(-2.3676e-14 6.2699e-15 0)
(-2.16962e-14 4.95311e-15 0)
(-2.0913e-14 3.5633e-15 0)
(-2.04062e-14 2.18659e-15 0)
(-2.04874e-14 1.28836e-15 0)
(-2.09658e-14 1.14657e-15 0)
(-2.06193e-14 1.39671e-15 0)
(-1.90369e-14 1.76039e-15 0)
(-1.65141e-14 1.48359e-15 0)
(-1.43009e-14 8.86789e-16 0)
(-1.17054e-14 3.9281e-16 0)
(-8.38771e-15 -7.10667e-17 0)
(-3.49196e-15 -2.32886e-16 0)
(-1.68883e-15 1.50975e-15 0)
(-5.53066e-15 4.61876e-15 0)
(-1.04151e-14 6.6142e-15 0)
(-1.52059e-14 8.12264e-15 0)
(-1.89417e-14 1.0213e-14 0)
(-2.31843e-14 1.27959e-14 0)
(-2.77875e-14 1.45239e-14 0)
(-3.21259e-14 1.57261e-14 0)
(-3.59895e-14 1.65075e-14 0)
(-3.84728e-14 1.73788e-14 0)
(-4.00389e-14 1.89356e-14 0)
(-4.13378e-14 2.10795e-14 0)
(-4.25557e-14 2.33621e-14 0)
(-4.39781e-14 2.47778e-14 0)
(-4.54917e-14 2.58997e-14 0)
(-4.71833e-14 2.73322e-14 0)
(-4.9737e-14 2.75707e-14 0)
(-5.24813e-14 2.69284e-14 0)
(-5.41129e-14 2.52805e-14 0)
(-5.44046e-14 2.35856e-14 0)
(-5.4133e-14 2.20174e-14 0)
(-5.33621e-14 2.09073e-14 0)
(-5.15901e-14 1.97956e-14 0)
(-4.94497e-14 1.98384e-14 0)
(-4.79501e-14 1.93459e-14 0)
(-4.67477e-14 1.78885e-14 0)
(-4.49509e-14 1.62009e-14 0)
(-4.36645e-14 1.55618e-14 0)
(-4.3548e-14 1.5914e-14 0)
(-4.3777e-14 1.62625e-14 0)
(-4.41649e-14 1.62621e-14 0)
(-4.48557e-14 1.65932e-14 0)
(-4.50229e-14 1.59896e-14 0)
(-4.51965e-14 1.46826e-14 0)
(-4.59575e-14 1.34766e-14 0)
(-4.69099e-14 1.20282e-14 0)
(-4.76572e-14 1.14411e-14 0)
(-4.7198e-14 1.04445e-14 0)
(-4.52632e-14 9.85668e-15 0)
(-4.21386e-14 9.61782e-15 0)
(-3.91501e-14 9.1969e-15 0)
(-3.76364e-14 8.60205e-15 0)
(-3.7344e-14 8.17549e-15 0)
(-3.74466e-14 8.46956e-15 0)
(-3.74995e-14 8.82083e-15 0)
(-3.6254e-14 8.7114e-15 0)
(-3.37657e-14 8.91276e-15 0)
(-3.20695e-14 9.28625e-15 0)
(-3.12583e-14 9.91895e-15 0)
(-2.91781e-14 1.1307e-14 0)
(-2.54948e-14 1.24855e-14 0)
(-2.15331e-14 1.28027e-14 0)
(-1.77972e-14 1.24156e-14 0)
(-1.47492e-14 1.19702e-14 0)
(-1.20888e-14 1.19425e-14 0)
(-9.68177e-15 1.1837e-14 0)
(-7.52829e-15 1.20992e-14 0)
(-6.09001e-15 1.17324e-14 0)
(-6.46669e-15 1.12092e-14 0)
(-8.19214e-15 1.04097e-14 0)
(-1.02963e-14 9.94416e-15 0)
(-1.30636e-14 9.25337e-15 0)
(-1.5685e-14 8.95143e-15 0)
(-1.77229e-14 8.53816e-15 0)
(-1.96105e-14 8.54638e-15 0)
(-2.14294e-14 8.61832e-15 0)
(-2.37188e-14 8.7129e-15 0)
(-2.60377e-14 8.79737e-15 0)
(-2.82876e-14 9.20773e-15 0)
(-2.97795e-14 1.02067e-14 0)
(-3.09377e-14 1.12601e-14 0)
(-3.22598e-14 1.19849e-14 0)
(-3.35102e-14 1.29187e-14 0)
(-3.39375e-14 1.32978e-14 0)
(-3.40433e-14 1.29623e-14 0)
(-3.49052e-14 1.27469e-14 0)
(-3.61914e-14 1.22239e-14 0)
(-3.73311e-14 1.2048e-14 0)
(-3.87197e-14 1.24378e-14 0)
(-4.03798e-14 1.22989e-14 0)
(-4.13442e-14 1.18699e-14 0)
(-4.21215e-14 1.14264e-14 0)
(-4.25019e-14 1.11343e-14 0)
(-4.15829e-14 1.09348e-14 0)
(-3.91639e-14 1.0716e-14 0)
(-3.59247e-14 9.75818e-15 0)
(-3.28278e-14 8.81849e-15 0)
(-3.01618e-14 7.96495e-15 0)
(-2.82283e-14 6.49383e-15 0)
(-2.73394e-14 4.48972e-15 0)
(-2.63982e-14 2.72801e-15 0)
(-2.56768e-14 1.68047e-15 0)
(-2.55592e-14 1.34325e-15 0)
(-2.49421e-14 1.33659e-15 0)
(-2.31111e-14 1.32135e-15 0)
(-2.04982e-14 9.89205e-16 0)
(-1.78302e-14 1.19381e-16 0)
(-1.43868e-14 -1.73501e-16 0)
(-1.01342e-14 -3.87771e-16 0)
(-3.9914e-15 -3.63297e-16 0)
(-1.99464e-15 1.89097e-15 0)
(-6.75448e-15 5.05877e-15 0)
(-1.262e-14 7.57741e-15 0)
(-1.77945e-14 1.02164e-14 0)
(-2.18911e-14 1.31659e-14 0)
(-2.69436e-14 1.55909e-14 0)
(-3.27322e-14 1.77232e-14 0)
(-3.79842e-14 1.84515e-14 0)
(-4.22284e-14 1.9514e-14 0)
(-4.49259e-14 2.11433e-14 0)
(-4.65598e-14 2.31687e-14 0)
(-4.80951e-14 2.55181e-14 0)
(-4.98292e-14 2.74291e-14 0)
(-5.1715e-14 2.89019e-14 0)
(-5.33925e-14 3.01346e-14 0)
(-5.54912e-14 3.12115e-14 0)
(-5.88517e-14 3.15878e-14 0)
(-6.23786e-14 3.10404e-14 0)
(-6.44067e-14 2.98736e-14 0)
(-6.49326e-14 2.87355e-14 0)
(-6.45514e-14 2.72094e-14 0)
(-6.35403e-14 2.60896e-14 0)
(-6.13299e-14 2.50087e-14 0)
(-5.87305e-14 2.42532e-14 0)
(-5.74661e-14 2.30856e-14 0)
(-5.644e-14 2.16905e-14 0)
(-5.43716e-14 1.9997e-14 0)
(-5.23073e-14 1.876e-14 0)
(-5.16785e-14 1.87884e-14 0)
(-5.20654e-14 1.90561e-14 0)
(-5.24125e-14 1.92509e-14 0)
(-5.30794e-14 1.91132e-14 0)
(-5.37663e-14 1.84939e-14 0)
(-5.43346e-14 1.65643e-14 0)
(-5.52655e-14 1.50954e-14 0)
(-5.59157e-14 1.3858e-14 0)
(-5.62797e-14 1.33385e-14 0)
(-5.56062e-14 1.27731e-14 0)
(-5.33468e-14 1.22737e-14 0)
(-5.02333e-14 1.15488e-14 0)
(-4.71575e-14 1.06738e-14 0)
(-4.51197e-14 9.78651e-15 0)
(-4.40732e-14 9.71705e-15 0)
(-4.37194e-14 1.0752e-14 0)
(-4.38836e-14 1.1808e-14 0)
(-4.27949e-14 1.19761e-14 0)
(-3.9975e-14 1.17496e-14 0)
(-3.77021e-14 1.15431e-14 0)
(-3.6169e-14 1.22261e-14 0)
(-3.34134e-14 1.351e-14 0)
(-2.95282e-14 1.4839e-14 0)
(-2.56019e-14 1.53883e-14 0)
(-2.18115e-14 1.51813e-14 0)
(-1.8116e-14 1.45506e-14 0)
(-1.47102e-14 1.44545e-14 0)
(-1.19333e-14 1.44555e-14 0)
(-9.92739e-15 1.45165e-14 0)
(-8.63653e-15 1.35598e-14 0)
(-8.82527e-15 1.28214e-14 0)
(-1.06507e-14 1.24372e-14 0)
(-1.3055e-14 1.23982e-14 0)
(-1.61825e-14 1.16281e-14 0)
(-1.9195e-14 1.10105e-14 0)
(-2.14553e-14 9.92372e-15 0)
(-2.33496e-14 9.60932e-15 0)
(-2.5329e-14 9.71761e-15 0)
(-2.80221e-14 1.00524e-14 0)
(-3.05743e-14 1.02546e-14 0)
(-3.27047e-14 1.10872e-14 0)
(-3.43402e-14 1.27471e-14 0)
(-3.59855e-14 1.40781e-14 0)
(-3.76834e-14 1.4777e-14 0)
(-3.916e-14 1.53647e-14 0)
(-4.02094e-14 1.61286e-14 0)
(-4.06783e-14 1.57368e-14 0)
(-4.1782e-14 1.53617e-14 0)
(-4.32373e-14 1.49082e-14 0)
(-4.39848e-14 1.48192e-14 0)
(-4.54657e-14 1.4983e-14 0)
(-4.76239e-14 1.51449e-14 0)
(-4.8998e-14 1.4719e-14 0)
(-4.98401e-14 1.39408e-14 0)
(-4.97754e-14 1.35452e-14 0)
(-4.85771e-14 1.35807e-14 0)
(-4.62275e-14 1.2938e-14 0)
(-4.29484e-14 1.19478e-14 0)
(-3.94946e-14 1.06398e-14 0)
(-3.65707e-14 9.43006e-15 0)
(-3.47319e-14 7.35724e-15 0)
(-3.36434e-14 5.4218e-15 0)
(-3.2049e-14 3.81136e-15 0)
(-3.07659e-14 2.42815e-15 0)
(-3.01415e-14 1.44995e-15 0)
(-2.90767e-14 8.36718e-16 0)
(-2.70266e-14 4.29419e-16 0)
(-2.4222e-14 -1.39767e-16 0)
(-2.09029e-14 -8.95786e-16 0)
(-1.65753e-14 -8.23256e-16 0)
(-1.15811e-14 -7.73161e-16 0)
(-4.35317e-15 -2.61689e-16 0)
(-2.4911e-15 2.08209e-15 0)
(-8.05555e-15 5.49058e-15 0)
(-1.42658e-14 8.88038e-15 0)
(-1.9769e-14 1.21561e-14 0)
(-2.47428e-14 1.56065e-14 0)
(-3.06653e-14 1.79769e-14 0)
(-3.7558e-14 1.99152e-14 0)
(-4.36629e-14 2.07804e-14 0)
(-4.77716e-14 2.22627e-14 0)
(-5.03835e-14 2.44904e-14 0)
(-5.2172e-14 2.69796e-14 0)
(-5.41902e-14 2.91612e-14 0)
(-5.65482e-14 3.08262e-14 0)
(-5.88362e-14 3.24706e-14 0)
(-6.09119e-14 3.37224e-14 0)
(-6.34503e-14 3.47366e-14 0)
(-6.74035e-14 3.48357e-14 0)
(-7.14812e-14 3.4707e-14 0)
(-7.37011e-14 3.40119e-14 0)
(-7.43308e-14 3.3443e-14 0)
(-7.40182e-14 3.23693e-14 0)
(-7.27829e-14 3.08176e-14 0)
(-7.05043e-14 2.9697e-14 0)
(-6.81174e-14 2.82112e-14 0)
(-6.6754e-14 2.65346e-14 0)
(-6.56336e-14 2.50881e-14 0)
(-6.34935e-14 2.35521e-14 0)
(-6.0798e-14 2.23249e-14 0)
(-5.94827e-14 2.19329e-14 0)
(-5.95052e-14 2.15988e-14 0)
(-6.00824e-14 2.16696e-14 0)
(-6.12382e-14 2.1545e-14 0)
(-6.26e-14 2.02455e-14 0)
(-6.33306e-14 1.8061e-14 0)
(-6.35773e-14 1.64294e-14 0)
(-6.38419e-14 1.54946e-14 0)
(-6.40453e-14 1.49847e-14 0)
(-6.33922e-14 1.45249e-14 0)
(-6.1238e-14 1.40601e-14 0)
(-5.79362e-14 1.33354e-14 0)
(-5.45874e-14 1.23692e-14 0)
(-5.20534e-14 1.13819e-14 0)
(-4.99977e-14 1.14969e-14 0)
(-4.89745e-14 1.29941e-14 0)
(-4.93615e-14 1.42766e-14 0)
(-4.86996e-14 1.48635e-14 0)
(-4.60473e-14 1.46944e-14 0)
(-4.31424e-14 1.43468e-14 0)
(-4.05611e-14 1.49458e-14 0)
(-3.71846e-14 1.61807e-14 0)
(-3.31056e-14 1.7156e-14 0)
(-2.9293e-14 1.72688e-14 0)
(-2.54689e-14 1.72661e-14 0)
(-2.14576e-14 1.72525e-14 0)
(-1.75675e-14 1.69497e-14 0)
(-1.44287e-14 1.66735e-14 0)
(-1.2537e-14 1.66035e-14 0)
(-1.1444e-14 1.58054e-14 0)
(-1.13782e-14 1.45843e-14 0)
(-1.27922e-14 1.39692e-14 0)
(-1.55811e-14 1.37306e-14 0)
(-1.93229e-14 1.29076e-14 0)
(-2.2809e-14 1.25208e-14 0)
(-2.52871e-14 1.16191e-14 0)
(-2.6973e-14 1.12784e-14 0)
(-2.90048e-14 1.11291e-14 0)
(-3.19284e-14 1.14172e-14 0)
(-3.45802e-14 1.22522e-14 0)
(-3.64204e-14 1.32915e-14 0)
(-3.81428e-14 1.48617e-14 0)
(-4.05287e-14 1.58927e-14 0)
(-4.28374e-14 1.67489e-14 0)
(-4.43876e-14 1.74213e-14 0)
(-4.57986e-14 1.77513e-14 0)
(-4.69716e-14 1.75552e-14 0)
(-4.81278e-14 1.71915e-14 0)
(-4.94773e-14 1.75337e-14 0)
(-5.04365e-14 1.77388e-14 0)
(-5.18906e-14 1.76191e-14 0)
(-5.41879e-14 1.76169e-14 0)
(-5.59715e-14 1.71077e-14 0)
(-5.67351e-14 1.65365e-14 0)
(-5.63568e-14 1.5847e-14 0)
(-5.52593e-14 1.55716e-14 0)
(-5.30409e-14 1.50769e-14 0)
(-4.95909e-14 1.3799e-14 0)
(-4.58913e-14 1.26022e-14 0)
(-4.30546e-14 1.07175e-14 0)
(-4.1021e-14 8.29756e-15 0)
(-3.92742e-14 6.56392e-15 0)
(-3.74983e-14 5.13096e-15 0)
(-3.59234e-14 3.29988e-15 0)
(-3.48263e-14 1.7623e-15 0)
(-3.32756e-14 4.01945e-16 0)
(-3.07482e-14 -5.22183e-16 0)
(-2.75778e-14 -1.13219e-15 0)
(-2.34914e-14 -1.65671e-15 0)
(-1.83827e-14 -1.56325e-15 0)
(-1.26082e-14 -1.36212e-15 0)
(-4.77764e-15 -3.03237e-16 0)
(-2.92262e-15 2.30909e-15 0)
(-8.99954e-15 6.38612e-15 0)
(-1.57388e-14 1.04048e-14 0)
(-2.16972e-14 1.38852e-14 0)
(-2.73271e-14 1.72486e-14 0)
(-3.43681e-14 1.96444e-14 0)
(-4.21217e-14 2.16426e-14 0)
(-4.85275e-14 2.32221e-14 0)
(-5.25356e-14 2.5028e-14 0)
(-5.51978e-14 2.75661e-14 0)
(-5.74967e-14 3.0136e-14 0)
(-6.01765e-14 3.20196e-14 0)
(-6.27392e-14 3.35241e-14 0)
(-6.52634e-14 3.52665e-14 0)
(-6.76604e-14 3.67645e-14 0)
(-7.08106e-14 3.79613e-14 0)
(-7.51863e-14 3.7919e-14 0)
(-7.94465e-14 3.78607e-14 0)
(-8.19035e-14 3.79964e-14 0)
(-8.27477e-14 3.77877e-14 0)
(-8.30499e-14 3.66826e-14 0)
(-8.19505e-14 3.491e-14 0)
(-7.9494e-14 3.31035e-14 0)
(-7.70533e-14 3.12965e-14 0)
(-7.54912e-14 2.96897e-14 0)
(-7.41103e-14 2.82546e-14 0)
(-7.16765e-14 2.70164e-14 0)
(-6.862e-14 2.61901e-14 0)
(-6.72201e-14 2.56524e-14 0)
(-6.71647e-14 2.45836e-14 0)
(-6.72497e-14 2.34278e-14 0)
(-6.88092e-14 2.27389e-14 0)
(-7.09062e-14 2.09816e-14 0)
(-7.16441e-14 1.93698e-14 0)
(-7.16109e-14 1.82055e-14 0)
(-7.13902e-14 1.71087e-14 0)
(-7.13118e-14 1.63144e-14 0)
(-7.04233e-14 1.58329e-14 0)
(-6.8073e-14 1.56482e-14 0)
(-6.49635e-14 1.53051e-14 0)
(-6.16882e-14 1.41537e-14 0)
(-5.84816e-14 1.33366e-14 0)
(-5.52714e-14 1.34888e-14 0)
(-5.3746e-14 1.47184e-14 0)
(-5.42569e-14 1.62025e-14 0)
(-5.38701e-14 1.75656e-14 0)
(-5.13062e-14 1.78095e-14 0)
(-4.79538e-14 1.80048e-14 0)
(-4.46413e-14 1.81807e-14 0)
(-4.08903e-14 1.84506e-14 0)
(-3.70331e-14 1.8636e-14 0)
(-3.29971e-14 1.85871e-14 0)
(-2.84894e-14 1.89742e-14 0)
(-2.42656e-14 1.93424e-14 0)
(-2.04014e-14 1.9218e-14 0)
(-1.69289e-14 1.86104e-14 0)
(-1.49322e-14 1.81134e-14 0)
(-1.42831e-14 1.74626e-14 0)
(-1.43155e-14 1.63964e-14 0)
(-1.55786e-14 1.55668e-14 0)
(-1.84577e-14 1.45091e-14 0)
(-2.21423e-14 1.38964e-14 0)
(-2.57425e-14 1.35726e-14 0)
(-2.85436e-14 1.29275e-14 0)
(-3.0484e-14 1.23783e-14 0)
(-3.26159e-14 1.2252e-14 0)
(-3.52076e-14 1.29154e-14 0)
(-3.78216e-14 1.4327e-14 0)
(-3.99954e-14 1.52906e-14 0)
(-4.21709e-14 1.65237e-14 0)
(-4.48137e-14 1.72911e-14 0)
(-4.71803e-14 1.82e-14 0)
(-4.93778e-14 1.90476e-14 0)
(-5.13384e-14 1.93178e-14 0)
(-5.25564e-14 1.89172e-14 0)
(-5.34982e-14 1.86818e-14 0)
(-5.47698e-14 1.94335e-14 0)
(-5.60797e-14 1.97883e-14 0)
(-5.79063e-14 1.98418e-14 0)
(-6.04949e-14 1.96102e-14 0)
(-6.2357e-14 1.94023e-14 0)
(-6.32961e-14 1.88386e-14 0)
(-6.28421e-14 1.8012e-14 0)
(-6.11755e-14 1.7285e-14 0)
(-5.90927e-14 1.67936e-14 0)
(-5.57489e-14 1.55661e-14 0)
(-5.21064e-14 1.43e-14 0)
(-4.94555e-14 1.20548e-14 0)
(-4.69338e-14 9.71735e-15 0)
(-4.46175e-14 7.85862e-15 0)
(-4.26478e-14 6.34769e-15 0)
(-4.10166e-14 4.27554e-15 0)
(-3.95977e-14 2.08515e-15 0)
(-3.75627e-14 1.64347e-16 0)
(-3.43396e-14 -1.16577e-15 0)
(-3.05142e-14 -1.8555e-15 0)
(-2.58581e-14 -2.47065e-15 0)
(-2.01023e-14 -2.45206e-15 0)
(-1.34506e-14 -2.11101e-15 0)
(-4.9353e-15 -7.48588e-16 0)
(-3.22858e-15 2.64037e-15 0)
(-9.86902e-15 7.55363e-15 0)
(-1.71203e-14 1.20811e-14 0)
(-2.37401e-14 1.57386e-14 0)
(-3.01824e-14 1.84256e-14 0)
(-3.7798e-14 2.0968e-14 0)
(-4.5977e-14 2.3261e-14 0)
(-5.28875e-14 2.56263e-14 0)
(-5.69193e-14 2.75281e-14 0)
(-5.955e-14 2.97301e-14 0)
(-6.23405e-14 3.23062e-14 0)
(-6.55904e-14 3.47488e-14 0)
(-6.84206e-14 3.66572e-14 0)
(-7.10048e-14 3.81362e-14 0)
(-7.37084e-14 3.95834e-14 0)
(-7.75575e-14 4.03701e-14 0)
(-8.25766e-14 4.0632e-14 0)
(-8.66333e-14 4.09214e-14 0)
(-8.90317e-14 4.1526e-14 0)
(-9.05873e-14 4.09363e-14 0)
(-9.13757e-14 3.93582e-14 0)
(-9.05434e-14 3.7943e-14 0)
(-8.81211e-14 3.62765e-14 0)
(-8.53793e-14 3.46187e-14 0)
(-8.35189e-14 3.2994e-14 0)
(-8.19137e-14 3.13596e-14 0)
(-7.91413e-14 3.04059e-14 0)
(-7.57807e-14 2.9574e-14 0)
(-7.45205e-14 2.83883e-14 0)
(-7.48878e-14 2.72403e-14 0)
(-7.50786e-14 2.54943e-14 0)
(-7.6571e-14 2.33842e-14 0)
(-7.85143e-14 2.16939e-14 0)
(-7.87281e-14 2.04732e-14 0)
(-7.85273e-14 1.9438e-14 0)
(-7.84428e-14 1.84527e-14 0)
(-7.80793e-14 1.76914e-14 0)
(-7.68012e-14 1.74879e-14 0)
(-7.42979e-14 1.72215e-14 0)
(-7.14031e-14 1.68398e-14 0)
(-6.80722e-14 1.57817e-14 0)
(-6.425e-14 1.54459e-14 0)
(-6.03728e-14 1.55374e-14 0)
(-5.80601e-14 1.63909e-14 0)
(-5.80252e-14 1.82152e-14 0)
(-5.79157e-14 1.99684e-14 0)
(-5.57091e-14 2.07667e-14 0)
(-5.2374e-14 2.09873e-14 0)
(-4.91818e-14 2.09088e-14 0)
(-4.51688e-14 2.03407e-14 0)
(-4.06407e-14 2.01499e-14 0)
(-3.59753e-14 2.05689e-14 0)
(-3.11569e-14 2.09223e-14 0)
(-2.68858e-14 2.07968e-14 0)
(-2.31598e-14 2.07215e-14 0)
(-1.98494e-14 1.99785e-14 0)
(-1.76724e-14 1.91036e-14 0)
(-1.68241e-14 1.83347e-14 0)
(-1.68682e-14 1.781e-14 0)
(-1.8404e-14 1.68516e-14 0)
(-2.12959e-14 1.55923e-14 0)
(-2.4869e-14 1.50378e-14 0)
(-2.88267e-14 1.46073e-14 0)
(-3.19676e-14 1.37295e-14 0)
(-3.37989e-14 1.31383e-14 0)
(-3.54829e-14 1.30191e-14 0)
(-3.78253e-14 1.40723e-14 0)
(-4.07979e-14 1.52912e-14 0)
(-4.3286e-14 1.6291e-14 0)
(-4.56295e-14 1.7918e-14 0)
(-4.86809e-14 1.87882e-14 0)
(-5.13024e-14 1.93997e-14 0)
(-5.36377e-14 1.98503e-14 0)
(-5.62328e-14 2.04137e-14 0)
(-5.8011e-14 2.01065e-14 0)
(-5.85356e-14 1.96337e-14 0)
(-5.96533e-14 2.03228e-14 0)
(-6.13072e-14 2.10446e-14 0)
(-6.33402e-14 2.12986e-14 0)
(-6.59275e-14 2.11088e-14 0)
(-6.79835e-14 2.11415e-14 0)
(-6.91386e-14 2.07132e-14 0)
(-6.87063e-14 2.04226e-14 0)
(-6.70684e-14 1.94589e-14 0)
(-6.4812e-14 1.815e-14 0)
(-6.14391e-14 1.68347e-14 0)
(-5.79483e-14 1.52934e-14 0)
(-5.53549e-14 1.36439e-14 0)
(-5.25192e-14 1.13107e-14 0)
(-4.9686e-14 9.22289e-15 0)
(-4.76199e-14 7.3328e-15 0)
(-4.61073e-14 4.99718e-15 0)
(-4.44416e-14 2.45524e-15 0)
(-4.17507e-14 3.76494e-16 0)
(-3.77413e-14 -1.32293e-15 0)
(-3.33982e-14 -2.42904e-15 0)
(-2.80885e-14 -3.1502e-15 0)
(-2.15481e-14 -3.16993e-15 0)
(-1.40832e-14 -2.42944e-15 0)
(-4.83574e-15 -7.43329e-16 0)
(-3.37012e-15 2.93349e-15 0)
(-1.03643e-14 8.38164e-15 0)
(-1.84201e-14 1.31456e-14 0)
(-2.61711e-14 1.71712e-14 0)
(-3.31047e-14 1.99449e-14 0)
(-4.09487e-14 2.23501e-14 0)
(-4.93567e-14 2.49161e-14 0)
(-5.65679e-14 2.75783e-14 0)
(-6.11923e-14 3.01017e-14 0)
(-6.38213e-14 3.19863e-14 0)
(-6.63608e-14 3.41674e-14 0)
(-6.98938e-14 3.69117e-14 0)
(-7.34664e-14 3.93522e-14 0)
(-7.65713e-14 4.07295e-14 0)
(-7.96661e-14 4.18463e-14 0)
(-8.38331e-14 4.22763e-14 0)
(-8.86841e-14 4.30716e-14 0)
(-9.27678e-14 4.38932e-14 0)
(-9.59082e-14 4.37283e-14 0)
(-9.83492e-14 4.25787e-14 0)
(-9.92006e-14 4.12115e-14 0)
(-9.80593e-14 4.01797e-14 0)
(-9.56317e-14 3.91356e-14 0)
(-9.29812e-14 3.75697e-14 0)
(-9.12102e-14 3.54624e-14 0)
(-8.91493e-14 3.39895e-14 0)
(-8.59573e-14 3.35332e-14 0)
(-8.29265e-14 3.25572e-14 0)
(-8.16344e-14 3.06864e-14 0)
(-8.18793e-14 2.92929e-14 0)
(-8.25665e-14 2.73266e-14 0)
(-8.39846e-14 2.50364e-14 0)
(-8.53342e-14 2.31751e-14 0)
(-8.55056e-14 2.16334e-14 0)
(-8.52177e-14 2.01468e-14 0)
(-8.47031e-14 1.94561e-14 0)
(-8.39278e-14 1.91608e-14 0)
(-8.25085e-14 1.91579e-14 0)
(-8.00723e-14 1.88751e-14 0)
(-7.72859e-14 1.82104e-14 0)
(-7.36932e-14 1.77809e-14 0)
(-6.93492e-14 1.76797e-14 0)
(-6.49721e-14 1.76022e-14 0)
(-6.1876e-14 1.83235e-14 0)
(-6.14124e-14 1.9751e-14 0)
(-6.14362e-14 2.13962e-14 0)
(-5.96117e-14 2.24972e-14 0)
(-5.64632e-14 2.2437e-14 0)
(-5.32327e-14 2.23281e-14 0)
(-4.90135e-14 2.23451e-14 0)
(-4.38426e-14 2.22783e-14 0)
(-3.88061e-14 2.27386e-14 0)
(-3.41148e-14 2.25769e-14 0)
(-2.96668e-14 2.16221e-14 0)
(-2.57875e-14 2.11866e-14 0)
(-2.25255e-14 2.09075e-14 0)
(-2.02796e-14 2.02017e-14 0)
(-1.92257e-14 1.92985e-14 0)
(-1.93772e-14 1.83843e-14 0)
(-2.12847e-14 1.71182e-14 0)
(-2.40839e-14 1.60186e-14 0)
(-2.74696e-14 1.52504e-14 0)
(-3.16887e-14 1.48767e-14 0)
(-3.50378e-14 1.47035e-14 0)
(-3.68815e-14 1.45374e-14 0)
(-3.82832e-14 1.45401e-14 0)
(-4.03756e-14 1.48108e-14 0)
(-4.35066e-14 1.55943e-14 0)
(-4.58378e-14 1.6647e-14 0)
(-4.85339e-14 1.82179e-14 0)
(-5.23078e-14 1.88559e-14 0)
(-5.53222e-14 1.96992e-14 0)
(-5.78482e-14 2.0017e-14 0)
(-6.06174e-14 2.00824e-14 0)
(-6.28166e-14 2.01757e-14 0)
(-6.32211e-14 2.01594e-14 0)
(-6.37879e-14 2.08894e-14 0)
(-6.55647e-14 2.21521e-14 0)
(-6.81726e-14 2.28523e-14 0)
(-7.09859e-14 2.28475e-14 0)
(-7.30219e-14 2.26519e-14 0)
(-7.41182e-14 2.24707e-14 0)
(-7.38863e-14 2.19332e-14 0)
(-7.27014e-14 2.07068e-14 0)
(-7.05216e-14 1.92376e-14 0)
(-6.69236e-14 1.80519e-14 0)
(-6.30597e-14 1.66997e-14 0)
(-6.05112e-14 1.53166e-14 0)
(-5.78413e-14 1.29263e-14 0)
(-5.47478e-14 1.04971e-14 0)
(-5.25249e-14 8.15109e-15 0)
(-5.09397e-14 5.79515e-15 0)
(-4.88817e-14 3.43743e-15 0)
(-4.57414e-14 1.37344e-15 0)
(-4.12714e-14 -7.76923e-16 0)
(-3.61516e-14 -2.39837e-15 0)
(-3.00958e-14 -3.07202e-15 0)
(-2.2674e-14 -3.36141e-15 0)
(-1.42523e-14 -2.50986e-15 0)
(-4.87356e-15 -5.52939e-16 0)
(-3.60296e-15 3.33685e-15 0)
(-1.11908e-14 9.04044e-15 0)
(-1.96633e-14 1.3698e-14 0)
(-2.79912e-14 1.84135e-14 0)
(-3.59296e-14 2.18005e-14 0)
(-4.40453e-14 2.42879e-14 0)
(-5.24073e-14 2.69153e-14 0)
(-5.97282e-14 2.9496e-14 0)
(-6.47031e-14 3.23587e-14 0)
(-6.79364e-14 3.45236e-14 0)