/*--------------------------------*- C++ -*----------------------------------*\
| =========                 |                                                 |
| \\      /  F ield         | OpenFOAM: The Open Source CFD Toolbox           |
|  \\    /   O peration     | Version:  v2012                                 |
|   \\  /    A nd           | Website:  www.openfoam.com                      |
|    \\/     M anipulation  |                                                 |
\*---------------------------------------------------------------------------*/
FoamFile
{
    version     2.0;
    format      ascii;
    class       volScalarField;
    location    "0";
    object      p;
}
// * * * * * * * * * * * * * * * * * * * * * * * * * * * * * * * * * * * * * //

dimensions      [0 2 -2 0 0 0 0];


internalField   nonuniform List<scalar> 
4000
(
8.56166e-14
8.13327e-14
7.89067e-14
8.03017e-14
8.19809e-14
8.5958e-14
9.65699e-14
8.21917e-14
6.52552e-14
6.518e-14
7.18553e-14
7.38223e-14
6.95331e-14
5.45824e-14
5.04076e-14
5.51585e-14
5.80822e-14
5.50358e-14
4.56381e-14
4.19923e-14
4.11358e-14
3.03259e-14
1.92934e-14
1.52427e-14
1.28258e-14
7.77076e-15
7.61516e-15
5.23645e-15
3.75087e-15
-1.87557e-15
1.77676e-15
3.84967e-15
5.5916e-15
4.83519e-15
1.61512e-14
2.07477e-14
1.6175e-14
1.24755e-14
1.08489e-14
5.26734e-15
1.06718e-14
1.55177e-14
2.42567e-14
2.84736e-14
2.36794e-14
2.1319e-14
2.65153e-14
2.65617e-14
1.88347e-14
2.28086e-14
2.41063e-14
2.44496e-14
1.19807e-14
1.81626e-14
1.95727e-14
1.73162e-14
2.39729e-14
2.60639e-14
2.30753e-14
3.11692e-14
2.76706e-14
2.50151e-14
2.45801e-14
3.04822e-14
3.08095e-14
2.73873e-14
2.486e-14
2.18068e-14
2.52706e-14
2.98608e-14
2.8827e-14
3.1749e-14
3.47883e-14
3.29852e-14
3.52594e-14
4.20457e-14
4.32834e-14
4.06711e-14
3.76543e-14
3.61609e-14
2.89437e-14
2.18657e-14
1.14576e-14
1.33957e-14
1.68786e-14
7.5153e-15
-1.77482e-15
-3.33336e-15
-3.9477e-15
6.85128e-15
6.19413e-15
1.2134e-14
1.17262e-14
1.01583e-14
1.51759e-14
6.96618e-15
-2.3467e-15
-2.69967e-16
6.56657e-15
-1.07398e-15
8.02023e-14
8.32047e-14
8.04813e-14
8.27924e-14
8.75049e-14
8.84104e-14
8.26756e-14
7.98538e-14
7.27394e-14
6.99123e-14
6.89661e-14
6.82292e-14
6.61567e-14
5.82884e-14
5.78717e-14
5.40153e-14
5.27754e-14
5.48239e-14
4.64279e-14
4.42785e-14
4.29064e-14
2.87351e-14
2.31003e-14
1.24172e-14
1.08529e-14
6.62951e-15
1.06128e-14
8.74761e-15
1.5257e-15
-3.38776e-15
3.70319e-15
3.96838e-15
4.59816e-15
9.16699e-15
9.75045e-15
1.73246e-14
1.72664e-14
1.26552e-14
1.25028e-14
1.17664e-14
1.17341e-14
1.41528e-14
2.09209e-14
2.34234e-14
2.36074e-14
2.75355e-14
2.79719e-14
2.17093e-14
1.99856e-14
1.8474e-14
2.31269e-14
2.01771e-14
1.57193e-14
1.93408e-14
2.03542e-14
2.22194e-14
2.33281e-14
2.66408e-14
2.36995e-14
2.84792e-14
2.73691e-14
2.77265e-14
2.76806e-14
3.05136e-14
2.86082e-14
2.40289e-14
2.32584e-14
2.38941e-14
2.86779e-14
2.979e-14
2.76873e-14
3.58794e-14
3.86185e-14
3.31258e-14
3.54721e-14
3.73548e-14
4.29553e-14
3.96107e-14
3.48987e-14
3.28131e-14
2.90227e-14
2.3391e-14
2.21692e-14
1.63981e-14
6.50732e-15
1.00872e-14
-4.02716e-16
-1.04722e-14
-2.86679e-15
3.36515e-15
6.93996e-15
1.28683e-14
1.43479e-14
9.59129e-15
1.13151e-14
8.49652e-15
1.77701e-15
3.15918e-15
3.57837e-15
1.35161e-15
8.08992e-14
8.03431e-14
8.03412e-14
8.33966e-14
8.73884e-14
8.85226e-14
8.17802e-14
7.59092e-14
6.75698e-14
6.94779e-14
7.60217e-14
6.98481e-14
6.29534e-14
5.56763e-14
6.17952e-14
5.52573e-14
4.98548e-14
5.01064e-14
4.67737e-14
4.43236e-14
4.27265e-14
2.668e-14
2.14241e-14
2.08175e-14
1.67132e-14
1.21209e-14
6.9044e-15
4.56126e-15
-1.30623e-15
-2.06888e-15
1.44647e-15
5.99049e-15
6.03951e-15
9.51071e-15
1.4361e-14
1.41579e-14
2.05811e-14
1.75684e-14
1.33654e-14
9.23235e-15
1.08935e-14
1.31738e-14
2.19671e-14
1.9822e-14
2.89304e-14
2.80247e-14
2.81654e-14
2.03137e-14
2.33743e-14
2.40443e-14
1.81911e-14
1.83455e-14
1.88607e-14
1.7409e-14
1.38301e-14
2.16542e-14
2.60164e-14
2.85164e-14
2.74272e-14
2.66985e-14
2.59547e-14
2.49205e-14
2.38423e-14
3.21786e-14
2.87711e-14
2.52246e-14
2.28893e-14
2.33989e-14
2.83979e-14
2.58548e-14
2.44991e-14
3.41397e-14
3.43027e-14
3.13838e-14
3.8374e-14
4.21461e-14
4.2666e-14
4.16429e-14
3.54842e-14
3.42927e-14
3.23802e-14
1.98556e-14
1.4049e-14
1.46213e-14
9.55731e-15
9.83759e-15
5.89789e-15
1.99536e-15
-1.05308e-15
-9.31142e-16
5.3113e-15
1.01123e-14
1.22957e-14
1.22687e-14
9.93826e-15
8.1511e-15
1.47617e-15
1.75546e-15
7.53395e-15
4.02929e-15
7.80267e-14
7.97752e-14
8.35139e-14
7.94498e-14
8.80441e-14
8.1529e-14
8.01455e-14
7.39849e-14
7.25172e-14
7.54398e-14
7.31227e-14
6.21408e-14
6.00302e-14
6.14899e-14
6.4086e-14
6.03507e-14
4.59415e-14
4.49225e-14
4.91457e-14
5.04203e-14
4.15557e-14
2.8635e-14
1.79934e-14
1.49146e-14
1.43693e-14
1.42777e-14
1.39647e-14
7.01358e-15
1.42189e-15
3.84062e-15
2.6118e-15
7.5244e-15
4.87904e-15
9.96679e-15
1.01849e-14
1.88023e-14
2.30551e-14
1.86953e-14
7.56461e-15
7.29757e-15
1.46115e-14
1.67053e-14
1.95717e-14
1.92067e-14
2.39436e-14
2.37659e-14
2.86846e-14
2.59081e-14
2.15091e-14
1.47421e-14
1.66365e-14
1.74161e-14
1.81419e-14
1.6756e-14
1.65084e-14
2.18027e-14
2.47229e-14
2.77195e-14
2.8062e-14
2.09408e-14
2.35005e-14
2.59973e-14
3.03972e-14
3.5426e-14
2.48499e-14
1.94147e-14
2.1949e-14
2.43131e-14
2.69212e-14
2.74074e-14
2.71809e-14
3.28806e-14
3.22567e-14
3.86925e-14
4.15539e-14
3.81831e-14
4.06148e-14
4.02061e-14
3.78623e-14
3.16398e-14
2.67202e-14
1.99938e-14
1.93402e-14
1.82049e-14
1.31054e-14
7.73501e-15
3.82512e-15
2.81489e-16
2.2149e-16
-2.86021e-15
4.72067e-15
1.20061e-14
1.37011e-14
1.13458e-14
8.36032e-15
9.84483e-15
1.28664e-15
2.89395e-15
3.82398e-15
1.42148e-15
8.19471e-14
8.42088e-14
8.18515e-14
7.79438e-14
7.70225e-14
8.09221e-14
8.30594e-14
7.7927e-14
7.40198e-14
7.27117e-14
7.54072e-14
6.53805e-14
5.27811e-14
5.2852e-14
6.12828e-14
6.39698e-14
5.51856e-14
4.15021e-14
4.40887e-14
4.49116e-14
4.3657e-14
3.51783e-14
1.32177e-14
1.22757e-14
1.15474e-14
1.8829e-14
1.73808e-14
1.07695e-14
8.04567e-15
8.33609e-15
6.09103e-15
8.39153e-15
4.52761e-15
9.63759e-15
1.52856e-14
2.04886e-14
1.85447e-14
1.60726e-14
1.43848e-14
1.07149e-14
1.03462e-14
1.96329e-14
1.88822e-14
2.17929e-14
1.94987e-14
2.48397e-14
2.51237e-14
2.01241e-14
2.05508e-14
1.66228e-14
1.83256e-14
1.49402e-14
1.47737e-14
1.68347e-14
2.19831e-14
2.15116e-14
2.18988e-14
2.43999e-14
2.72575e-14
2.87134e-14
2.18748e-14
2.25632e-14
2.93682e-14
3.46352e-14
2.06501e-14
2.60185e-14
2.88594e-14
2.61544e-14
2.08318e-14
2.46602e-14
2.22538e-14
2.84684e-14
3.52314e-14
3.71719e-14
3.78631e-14
3.81434e-14
3.97479e-14
3.94104e-14
4.0293e-14
3.18211e-14
2.43618e-14
2.1977e-14
1.9222e-14
1.87623e-14
1.18484e-14
3.81076e-15
3.74494e-15
3.15654e-15
3.92126e-15
2.77795e-15
5.42973e-15
1.03347e-14
1.12013e-14
1.54597e-14
8.84235e-15
1.11645e-14
4.39229e-15
3.03728e-15
-2.09594e-15
-9.54364e-16
7.68956e-14
8.24563e-14
8.38757e-14
7.87376e-14
8.37152e-14
8.82342e-14
8.00615e-14
7.76469e-14
7.41588e-14
6.49017e-14
6.84641e-14
6.46337e-14
6.2853e-14
6.18558e-14
6.50751e-14
6.1374e-14
5.3873e-14
4.89566e-14
4.61971e-14
4.047e-14
3.8201e-14
3.31209e-14
1.00131e-14
7.32957e-15
9.92517e-15
2.19612e-14
1.62154e-14
1.05872e-14
1.14226e-14
8.28245e-15
9.9407e-15
1.43854e-14
1.12045e-14
1.51417e-14
2.30631e-14
2.46993e-14
1.74269e-14
1.18303e-14
9.81574e-15
1.37802e-14
1.81945e-14
1.90578e-14
1.6427e-14
1.89364e-14
2.10059e-14
2.31661e-14
2.22041e-14
2.11554e-14
1.7708e-14
1.69832e-14
1.60494e-14
1.57279e-14
2.03279e-14
1.42926e-14
1.73191e-14
2.00324e-14
2.25644e-14
2.17452e-14
2.36238e-14
2.69791e-14
2.00942e-14
2.51284e-14
2.61004e-14
2.7047e-14
2.62586e-14
2.95219e-14
3.13556e-14
3.12793e-14
2.23565e-14
2.59683e-14
2.30947e-14
2.61991e-14
3.74693e-14
3.72976e-14
3.7601e-14
4.25697e-14
4.18698e-14
3.40984e-14
3.51289e-14
2.96553e-14
3.03179e-14
2.34452e-14
1.55196e-14
1.2442e-14
1.16374e-14
7.92448e-15
2.31403e-15
4.04424e-15
4.52282e-15
5.44704e-15
4.39481e-15
1.19265e-14
9.62944e-15
1.52885e-14
6.39865e-15
1.25493e-14
3.62897e-15
2.16075e-15
-2.04127e-15
1.27255e-16
8.0437e-14
7.91802e-14
8.18491e-14
8.79889e-14
8.5597e-14
8.13788e-14
8.05996e-14
7.80145e-14
7.2878e-14
7.26272e-14
6.76257e-14
6.01864e-14
6.76986e-14
6.13961e-14
6.17253e-14
6.08972e-14
5.43161e-14
5.41603e-14
4.17668e-14
3.7297e-14
2.53489e-14
1.98261e-14
1.64248e-14
1.24629e-14
1.19395e-14
2.34945e-14
1.87972e-14
1.0239e-14
1.46571e-14
1.72024e-14
1.79215e-14
1.23786e-14
1.06666e-14
1.09855e-14
1.75735e-14
2.27842e-14
1.98788e-14
1.0883e-14
9.94283e-15
1.54598e-14
1.2908e-14
1.46232e-14
2.04553e-14
1.7827e-14
2.54762e-14
2.40222e-14
1.89548e-14
1.48604e-14
1.83323e-14
1.9058e-14
1.435e-14
1.38814e-14
2.09099e-14
1.66635e-14
1.86123e-14
1.99109e-14
2.09853e-14
1.78351e-14
1.84814e-14
2.04011e-14
2.28961e-14
3.01692e-14
2.42154e-14
2.80512e-14
2.82225e-14
2.7807e-14
2.77483e-14
2.54179e-14
1.89788e-14
2.32977e-14
2.99843e-14
3.56368e-14
3.64381e-14
3.63114e-14
4.07092e-14
4.09694e-14
3.40596e-14
3.08675e-14
3.68928e-14
3.10649e-14
2.71951e-14
2.18504e-14
1.93812e-14
1.82776e-14
1.65636e-14
1.50785e-15
-2.03955e-15
3.34929e-15
5.11648e-15
8.07276e-15
5.31531e-15
1.17953e-14
8.87263e-15
1.53422e-14
9.82569e-15
1.17728e-14
6.07919e-15
-4.30642e-16
4.61881e-16
2.52447e-15
7.69182e-14
7.65047e-14
7.83039e-14
8.8463e-14
8.94597e-14
8.83794e-14
7.94095e-14
7.22856e-14
7.24462e-14
6.93158e-14
6.72559e-14
6.22968e-14
6.47398e-14
6.00827e-14
6.63032e-14
6.34911e-14
5.39219e-14
4.71993e-14
3.82324e-14
3.58266e-14
3.00023e-14
2.57866e-14
2.10835e-14
1.07737e-14
1.45934e-14
1.73464e-14
1.35017e-14
1.42067e-14
1.43361e-14
1.7418e-14
1.66044e-14
1.71709e-14
2.19896e-14
2.059e-14
1.92298e-14
2.1039e-14
1.82147e-14
8.09679e-15
7.08567e-15
1.34364e-14
9.40616e-15
1.30827e-14
2.14636e-14
2.8874e-14
3.49252e-14
2.0313e-14
8.77746e-15
1.05419e-14
2.05494e-14
1.72939e-14
1.61223e-14
2.02931e-14
2.34461e-14
1.73508e-14
9.98355e-15
1.38519e-14
1.34235e-14
1.82625e-14
1.87066e-14
1.52526e-14
1.55821e-14
2.50164e-14
3.23655e-14
3.48829e-14
3.03666e-14
3.05334e-14
3.17865e-14
2.72107e-14
2.35582e-14
2.51382e-14
3.02529e-14
3.68212e-14
3.32132e-14
2.79703e-14
3.77239e-14
3.87812e-14
3.96644e-14
3.70309e-14
3.36602e-14
2.92135e-14
2.72219e-14
2.3629e-14
1.95622e-14
1.23844e-14
6.7892e-15
9.84048e-16
-4.47518e-16
4.58482e-15
7.42049e-15
1.05729e-14
5.568e-15
1.08396e-14
8.71405e-15
1.43138e-14
1.27793e-14
1.11239e-14
4.75427e-15
6.3545e-15
5.08216e-15
1.0333e-15
8.13672e-14
8.32085e-14
8.16709e-14
8.44604e-14
8.04108e-14
8.09716e-14
8.17305e-14
7.77105e-14
7.13982e-14
7.10865e-14
6.21233e-14
5.66019e-14
5.4214e-14
6.13917e-14
6.52535e-14
6.10961e-14
4.9461e-14
5.39138e-14
4.61743e-14
3.81014e-14
2.98017e-14
2.17801e-14
1.92868e-14
1.98273e-14
1.8236e-14
1.53747e-14
1.1774e-14
1.32047e-14
1.80992e-14
2.05495e-14
2.05403e-14
2.5134e-14
1.50832e-14
1.09756e-14
1.45403e-14
2.19285e-14
2.26227e-14
1.2938e-14
9.41139e-15
1.4166e-14
1.81952e-14
1.76601e-14
1.64846e-14
1.64965e-14
1.95461e-14
1.89793e-14
1.30821e-14
1.14145e-14
1.77012e-14
2.17287e-14
1.82721e-14
1.4822e-14
2.2018e-14
1.49677e-14
1.27116e-14
1.70306e-14
1.69171e-14
1.74792e-14
1.67521e-14
1.20812e-14
8.60702e-15
1.98909e-14
3.26442e-14
3.59355e-14
3.17242e-14
2.94288e-14
3.0115e-14
2.91686e-14
2.13954e-14
2.6161e-14
2.9175e-14
3.34124e-14
3.81749e-14
3.89551e-14
3.94561e-14
4.04099e-14
3.63569e-14
3.22434e-14
3.36296e-14
2.9207e-14
2.68818e-14
2.07842e-14
2.0794e-14
1.21216e-14
5.03674e-15
2.83686e-15
7.50355e-15
3.85138e-15
7.41363e-15
8.24464e-15
7.98134e-15
1.37542e-14
5.39772e-15
1.21566e-14
1.49061e-14
1.10746e-14
8.83092e-15
9.55535e-15
4.39542e-15
2.32931e-15
8.48157e-14
8.34335e-14
8.2528e-14
8.25054e-14
7.73942e-14
7.83322e-14
8.18314e-14
7.89466e-14
7.25661e-14
7.17322e-14
6.2859e-14
5.37794e-14
5.00057e-14
6.33865e-14
6.87535e-14
6.32099e-14
5.33075e-14
4.83122e-14
4.56903e-14
3.98908e-14
3.2024e-14
1.60975e-14
1.85504e-14
2.58334e-14
2.5758e-14
1.74062e-14
1.17634e-14
1.48172e-14
1.87196e-14
1.86584e-14
2.61098e-14
2.81741e-14
2.42663e-14
1.36138e-14
1.47817e-14
1.63195e-14
2.07629e-14
1.74037e-14
1.26714e-14
1.20178e-14
1.65254e-14
1.29965e-14
1.38862e-14
1.5782e-14
1.9348e-14
2.1815e-14
1.52858e-14
1.20338e-14
1.40963e-14
1.96336e-14
1.42302e-14
1.73148e-14
1.44229e-14
1.79953e-14
1.29715e-14
1.21293e-14
1.63301e-14
1.15667e-14
1.39698e-14
1.67675e-14
1.31729e-14
2.78685e-14
3.1778e-14
3.8219e-14
3.07368e-14
2.46448e-14
2.11386e-14
2.28246e-14
2.29185e-14
3.14221e-14
3.94791e-14
3.02457e-14
3.92443e-14
3.83201e-14
4.11871e-14
3.68415e-14
3.4279e-14
2.68373e-14
3.41446e-14
2.8637e-14
2.26516e-14
2.19882e-14
2.22001e-14
1.04939e-14
4.81505e-15
3.57851e-15
4.25432e-15
6.11407e-15
8.58392e-15
7.60584e-15
6.55215e-15
1.19878e-14
6.56127e-15
9.3243e-15
1.27812e-14
9.52503e-15
9.05565e-15
4.03615e-15
4.50261e-15
1.15237e-15
8.12723e-14
8.3185e-14
8.19411e-14
8.50787e-14
8.28109e-14
7.91601e-14
7.98509e-14
7.51594e-14
6.96551e-14
6.86786e-14
6.41785e-14
5.2518e-14
6.004e-14
6.47952e-14
6.52074e-14
6.38031e-14
5.19006e-14
4.93077e-14
4.5267e-14
4.28484e-14
3.613e-14
2.28613e-14
1.69683e-14
2.63048e-14
1.91295e-14
1.33373e-14
1.88562e-14
2.06184e-14
2.44252e-14
1.98937e-14
2.32562e-14
2.68714e-14
2.60036e-14
1.95251e-14
2.16294e-14
2.00099e-14
2.15507e-14
1.69672e-14
9.16928e-15
1.54505e-14
2.37095e-14
1.8429e-14
1.09991e-14
1.84335e-14
1.81724e-14
1.201e-14
9.32983e-15
1.22192e-14
1.28776e-14
1.56919e-14
1.77836e-14
1.7312e-14
1.48091e-14
1.77136e-14
1.24756e-14
1.38006e-14
1.63765e-14
1.08006e-14
1.10611e-14
1.42339e-14
1.52898e-14
2.24483e-14
2.90086e-14
3.67711e-14
2.87258e-14
2.31539e-14
1.84372e-14
1.88829e-14
2.48191e-14
3.6762e-14
3.63073e-14
3.83683e-14
4.27993e-14
4.02283e-14
3.84094e-14
2.76718e-14
3.07592e-14
3.24162e-14
3.29809e-14
3.08988e-14
2.53547e-14
2.62138e-14
1.90853e-14
3.64676e-15
6.59772e-15
2.46772e-15
5.02894e-15
7.03324e-15
1.04244e-14
9.64054e-15
7.25461e-15
1.19417e-14
1.04788e-14
5.10672e-15
1.67351e-14
2.13199e-14
1.03753e-14
-5.04307e-15
-6.58298e-15
-5.98439e-16
8.44325e-14
8.56856e-14
8.50741e-14
8.19782e-14
8.01215e-14
7.78342e-14
7.83144e-14
7.64114e-14
6.72786e-14
6.30233e-14
6.27126e-14
5.96355e-14
6.40448e-14
6.71846e-14
6.64352e-14
5.95888e-14
5.39522e-14
5.09144e-14
4.80301e-14
4.27581e-14
3.41683e-14
3.3838e-14
2.97139e-14
2.38584e-14
2.42816e-14
1.8706e-14
1.829e-14
1.91439e-14
1.99459e-14
1.97982e-14
2.1054e-14
2.75019e-14
3.1552e-14
2.49657e-14
1.78561e-14
1.77077e-14
1.91285e-14
1.36153e-14
1.56748e-14
2.00981e-14
1.74587e-14
1.18077e-14
1.47165e-14
1.83467e-14
1.81945e-14
1.35932e-14
1.15493e-14
1.31571e-14
6.81087e-15
9.59936e-15
1.50617e-14
1.53849e-14
1.73453e-14
1.84696e-14
1.55812e-14
8.36067e-15
1.55577e-14
1.20636e-14
1.17521e-14
1.04983e-14
2.42764e-14
3.24756e-14
2.99626e-14
3.53784e-14
2.08679e-14
2.38889e-14
2.41027e-14
1.98796e-14
2.5866e-14
3.19141e-14
3.12603e-14
3.92666e-14
4.45605e-14
3.8784e-14
3.89808e-14
2.90131e-14
2.12285e-14
2.73573e-14
2.88071e-14
3.55127e-14
2.48825e-14
2.09281e-14
1.27783e-14
1.28941e-14
1.07053e-14
7.30853e-15
2.95526e-15
4.51137e-15
7.81052e-15
1.24067e-14
8.69302e-15
1.39068e-14
1.07248e-14
1.04074e-14
1.54075e-14
1.7898e-14
5.86041e-15
-9.5053e-15
-4.55072e-15
-3.61469e-15
8.30404e-14
8.27394e-14
7.75005e-14
8.40274e-14
8.40939e-14
7.7103e-14
7.39024e-14
7.13617e-14
6.75626e-14
6.15798e-14
6.25407e-14
5.64168e-14
6.92571e-14
6.80004e-14
6.88174e-14
6.14809e-14
6.17579e-14
5.93558e-14
5.2341e-14
4.81643e-14
2.57628e-14
2.02994e-14
1.7263e-14
2.76252e-14
2.99877e-14
2.44492e-14
1.71812e-14
1.87546e-14
2.84334e-14
3.01704e-14
2.33644e-14
2.89824e-14
2.3511e-14
2.71671e-14
2.35776e-14
2.49816e-14
9.24498e-15
1.43286e-14
1.91727e-14
1.49344e-14
1.17678e-14
1.31129e-14
1.83343e-14
1.9262e-14
1.57712e-14
8.75771e-15
9.42076e-15
8.50845e-15
1.46212e-14
1.33177e-14
1.3903e-14
1.68924e-14
1.32079e-14
1.22905e-14
1.26715e-14
1.58727e-14
1.88746e-14
9.30038e-15
3.72691e-15
8.06094e-15
2.49131e-14
2.78646e-14
2.71968e-14
3.05394e-14
2.43803e-14
2.72559e-14
2.20604e-14
2.0152e-14
2.9326e-14
2.83631e-14
3.11509e-14
3.8723e-14
4.77807e-14
4.50175e-14
3.71793e-14
2.57698e-14
2.36518e-14
2.59762e-14
2.44273e-14
2.83779e-14
2.10911e-14
2.48919e-14
1.77414e-14
9.85507e-15
1.53727e-14
4.34118e-15
1.26799e-15
7.78609e-15
7.46732e-15
1.42723e-14
1.16533e-14
1.45051e-14
1.09472e-14
1.17512e-14
1.46606e-14
1.32915e-14
7.60138e-15
-5.61542e-15
-5.18595e-15
-2.29249e-15
8.18118e-14
8.87889e-14
8.37986e-14
7.85791e-14
8.22836e-14
7.45621e-14
7.25434e-14
7.76564e-14
7.0442e-14
5.81354e-14
5.76601e-14
6.45451e-14
7.00821e-14
6.99815e-14
6.79586e-14
5.96843e-14
5.39772e-14
4.82129e-14
5.43888e-14
4.60071e-14
5.11905e-14
4.20755e-14
2.89607e-14
2.34464e-14
2.56226e-14
2.35882e-14
2.09421e-14
2.16635e-14
2.58998e-14
3.00822e-14
2.86136e-14
2.65402e-14
2.51119e-14
2.1903e-14
1.13928e-14
1.6678e-14
2.43798e-14
2.43909e-14
1.33018e-14
1.39064e-14
1.1379e-14
1.30982e-14
2.2562e-14
1.31318e-14
6.95483e-15
6.18429e-15
8.41077e-15
5.80481e-15
2.08005e-14
1.5683e-14
1.23847e-14
2.05027e-14
1.55909e-14
1.27281e-14
1.60625e-14
8.88584e-15
1.84149e-14
1.774e-14
1.67448e-14
1.82534e-14
2.20684e-14
1.89147e-14
1.95469e-14
2.80497e-14
3.15124e-14
2.7142e-14
2.60493e-14
2.5754e-14
2.89303e-14
3.10426e-14
3.28489e-14
3.38986e-14
4.10828e-14
4.44675e-14
3.30793e-14
2.91167e-14
2.0341e-14
2.51351e-14
2.10707e-14
2.65058e-14
1.78716e-14
2.16632e-14
2.13661e-14
1.16115e-14
1.23221e-14
3.79964e-15
8.08473e-16
6.78939e-15
5.98109e-15
1.09148e-14
1.28089e-14
2.13582e-14
1.45898e-14
1.10664e-14
1.06825e-14
6.04252e-15
7.15947e-15
8.20679e-16
1.34955e-15
-1.87737e-15
8.06634e-14
8.51112e-14
8.49138e-14
8.14551e-14
8.10362e-14
7.72051e-14
7.14643e-14
7.04307e-14
6.45695e-14
6.33293e-14
6.95971e-14
7.12935e-14
6.83365e-14
6.76021e-14
6.34343e-14
6.02501e-14
6.58107e-14
6.57099e-14
5.8467e-14
4.86532e-14
3.49819e-14
2.3608e-14
1.92878e-14
1.58782e-14
2.99482e-14
3.12054e-14
3.06206e-14
2.18132e-14
2.67805e-14
2.97153e-14
4.09901e-14
3.35198e-14
2.61002e-14
1.63542e-14
5.29083e-15
1.63336e-14
2.25685e-14
2.34586e-14
2.61501e-14
1.91734e-14
6.32481e-15
9.94114e-15
1.12625e-14
7.45786e-15
4.41161e-15
3.22294e-15
1.36771e-14
1.67851e-14
1.98268e-14
1.98317e-14
1.7176e-14
1.14198e-14
1.07695e-14
8.58221e-15
1.08112e-14
1.5028e-14
1.89485e-14
1.9162e-14
1.62788e-14
1.6507e-14
2.50838e-14
2.15966e-14
2.37175e-14
3.10788e-14
2.94533e-14
1.9915e-14
2.21934e-14
3.23732e-14
3.19975e-14
2.9777e-14
2.91556e-14
3.3153e-14
3.82048e-14
4.61916e-14
3.58665e-14
2.14938e-14
1.5699e-14
2.54007e-14
2.66917e-14
2.2988e-14
1.63961e-14
1.82696e-14
2.05451e-14
1.075e-14
7.88246e-15
1.11533e-15
2.07362e-15
3.96599e-15
7.83841e-15
1.07467e-14
1.11465e-14
2.08546e-14
1.11881e-14
1.48636e-14
1.15888e-14
1.71043e-15
4.77348e-16
5.74363e-16
4.19105e-15
-1.37595e-15
8.09697e-14
9.04114e-14
8.82429e-14
7.97935e-14
7.98943e-14
7.81152e-14
8.27488e-14
7.95404e-14
6.37594e-14
6.36874e-14
6.26793e-14
6.4784e-14
6.61786e-14
6.83148e-14
7.20582e-14
6.3684e-14
5.75619e-14
6.10266e-14
5.31738e-14
4.90432e-14
4.98994e-14
3.28171e-14
2.7425e-14
2.22871e-14
2.96148e-14
2.91349e-14
3.36079e-14
2.81356e-14
2.68082e-14
2.62061e-14
3.54892e-14
2.89869e-14
2.23145e-14
1.76679e-14
7.88966e-15
1.22726e-14
2.14691e-14
2.19244e-14
2.49847e-14
2.10507e-14
8.41707e-15
3.50219e-15
6.01191e-15
6.726e-15
7.91932e-15
2.88889e-15
1.55939e-14
2.21735e-14
1.85091e-14
1.5032e-14
9.30917e-15
1.72423e-14
1.24094e-14
7.38765e-15
1.61841e-14
1.85655e-14
2.23195e-14
2.29599e-14
2.5797e-14
2.43411e-14
2.31809e-14
1.92521e-14
2.25835e-14
2.76971e-14
2.6439e-14
2.98224e-14
2.68388e-14
2.99125e-14
3.01726e-14
3.19066e-14
3.26946e-14
3.73759e-14
3.94687e-14
4.16675e-14
2.93966e-14
2.38721e-14
2.30708e-14
2.29795e-14
2.24029e-14
1.35691e-14
1.51318e-14
2.48309e-14
1.6429e-14
9.69939e-15
1.30289e-14
6.75482e-15
-4.46577e-15
1.15953e-15
5.30645e-15
7.35912e-15
1.255e-14
1.76854e-14
1.13008e-14
7.88575e-15
7.91066e-15
3.5766e-15
2.67093e-16
6.17069e-16
2.98759e-15
-1.51719e-15
8.38886e-14
8.61044e-14
8.50656e-14
7.57211e-14
7.59605e-14
7.88705e-14
7.28731e-14
8.24779e-14
7.94126e-14
7.21977e-14
6.75588e-14
6.74057e-14
6.6702e-14
7.05404e-14
6.76433e-14
6.26923e-14
5.67948e-14
6.67731e-14
6.86349e-14
4.63994e-14
3.38704e-14
2.21846e-14
2.35929e-14
2.8359e-14
3.37526e-14
3.33969e-14
3.31405e-14
2.94853e-14
3.01887e-14
2.72751e-14
3.51353e-14
3.30252e-14
2.43597e-14
1.70554e-14
7.8667e-15
1.59345e-14
2.34033e-14
2.49409e-14
2.38348e-14
2.30362e-14
1.00261e-14
-3.40852e-15
4.72753e-15
5.84065e-15
7.59769e-15
9.99307e-15
1.26766e-14
2.06434e-14
2.2562e-14
1.58324e-14
1.0156e-14
1.67691e-14
1.613e-14
1.09914e-14
1.72843e-14
1.88538e-14
2.21186e-14
2.7254e-14
2.6779e-14
2.64649e-14
2.48569e-14
2.24451e-14
2.61169e-14
3.39458e-14
3.44103e-14
3.12707e-14
2.78504e-14
3.48614e-14
2.81167e-14
3.14987e-14
2.75686e-14
3.74069e-14
3.89729e-14
3.89016e-14
3.66679e-14
2.59462e-14
1.94254e-14
1.93118e-14
2.27215e-14
1.64457e-14
1.63925e-14
1.91486e-14
1.43433e-14
4.89273e-15
7.85089e-15
7.10169e-15
7.65039e-15
3.30736e-15
-7.90993e-16
5.8642e-15
1.1013e-14
1.17986e-14
8.20405e-15
6.8662e-15
4.75248e-15
3.85827e-15
1.57049e-15
2.16335e-15
9.25983e-16
-1.87682e-15
8.56035e-14
8.4832e-14
8.38751e-14
7.84755e-14
8.61037e-14
8.8033e-14
7.17023e-14
7.10454e-14
7.21145e-14
6.93781e-14
6.91869e-14
7.57946e-14
7.22156e-14
6.67502e-14
5.90876e-14
6.16542e-14
6.22275e-14
6.83184e-14
6.2505e-14
5.12868e-14
4.07203e-14
2.53244e-14
2.19244e-14
2.92356e-14
4.12494e-14
3.67073e-14
3.30522e-14
2.87865e-14
3.29828e-14
3.14007e-14
3.62473e-14
3.33133e-14
2.32423e-14
1.5643e-14
7.65954e-15
1.37344e-14
1.94818e-14
2.32987e-14
2.7315e-14
1.97205e-14
1.32454e-14
9.50207e-15
1.23308e-14
6.78976e-15
4.13954e-15
9.37862e-15
1.4948e-14
1.45666e-14
1.76009e-14
1.3069e-14
1.21037e-14
2.03236e-14
2.09732e-14
1.58246e-14
2.31303e-14
2.31596e-14
2.1019e-14
2.66619e-14
2.70417e-14
2.50488e-14
2.63699e-14
2.85056e-14
2.92596e-14
3.68507e-14
3.6327e-14
2.95023e-14
2.97028e-14
3.68139e-14
2.77901e-14
2.88593e-14
3.10613e-14
3.25703e-14
3.65053e-14
3.30455e-14
3.09247e-14
2.84046e-14
2.34251e-14
1.43346e-14
2.09663e-14
2.31414e-14
2.05077e-14
2.18366e-14
1.28783e-14
2.91496e-15
3.22935e-15
6.27087e-15
7.88438e-15
3.34088e-15
2.20738e-15
2.40198e-15
1.03338e-14
4.06196e-15
3.49972e-15
8.95111e-15
4.34696e-15
5.17295e-15
-3.95457e-16
2.57666e-15
5.66873e-17
-1.91913e-15
8.38661e-14
8.45646e-14
8.39741e-14
8.11438e-14
8.19369e-14
8.28406e-14
7.3325e-14
7.1148e-14
7.65331e-14
7.62725e-14
7.46046e-14
7.87105e-14
7.60043e-14
7.08327e-14
6.19351e-14
6.08844e-14
6.47804e-14
6.46039e-14
5.73293e-14
4.57268e-14
4.06993e-14
2.80506e-14
3.09174e-14
3.58051e-14
3.38986e-14
3.00222e-14
3.52187e-14
3.51667e-14
3.45527e-14
3.61472e-14
3.52907e-14
2.98375e-14
1.76692e-14
1.22898e-14
1.31966e-14
1.68012e-14
3.15043e-14
2.81164e-14
2.01581e-14
1.20454e-14
1.30191e-14
1.29201e-14
8.77401e-15
8.16806e-15
5.27542e-15
9.73951e-15
1.62771e-14
2.7959e-14
2.21921e-14
8.85281e-15
5.90624e-15
1.98219e-14
2.4157e-14
1.72632e-14
2.55495e-14
2.29728e-14
2.00925e-14
2.3276e-14
2.60366e-14
2.90748e-14
3.39662e-14
3.34765e-14
3.05017e-14
3.49802e-14
3.27813e-14
3.08145e-14
3.20407e-14
3.8654e-14
3.0329e-14
3.0607e-14
3.10571e-14
2.64255e-14
3.57401e-14
3.24291e-14
2.93123e-14
2.734e-14
2.2653e-14
1.83847e-14
1.82495e-14
1.69443e-14
2.16548e-14
2.50717e-14
1.25865e-14
1.07725e-14
5.73211e-15
3.84074e-15
4.65931e-15
2.98056e-15
4.75691e-15
2.102e-15
5.22607e-15
4.34795e-15
2.67558e-15
9.36785e-15
9.48036e-15
5.47482e-15
-6.16832e-15
-1.4482e-15
2.32952e-15
2.62864e-15
8.9492e-14
8.64941e-14
8.75401e-14
7.91173e-14
7.52624e-14
7.8656e-14
7.59384e-14
7.7321e-14
8.34377e-14
7.89186e-14
7.55685e-14
7.84633e-14
8.12968e-14
7.77943e-14
6.16987e-14
5.81905e-14
5.92594e-14
5.75275e-14
5.79878e-14
4.96119e-14
3.5412e-14
3.30888e-14
3.07646e-14
3.53546e-14
3.6373e-14
3.54468e-14
3.67294e-14
3.60526e-14
3.80569e-14
3.79634e-14
3.62434e-14
2.69588e-14
2.05713e-14
1.06967e-14
1.78763e-14
2.09837e-14
2.87665e-14
2.71474e-14
2.35854e-14
1.24965e-14
1.1753e-14
7.37557e-15
1.17863e-14
1.58716e-14
1.22496e-14
1.20334e-14
1.35771e-14
1.75737e-14
1.90483e-14
1.46715e-14
1.48633e-14
1.78938e-14
1.52804e-14
2.1564e-14
2.45803e-14
2.01394e-14
1.93746e-14
2.60427e-14
2.532e-14
3.03416e-14
3.60796e-14
3.89194e-14
3.54933e-14
3.2858e-14
3.23951e-14
3.25075e-14
3.44925e-14
3.27067e-14
3.07519e-14
3.14268e-14
3.08014e-14
2.82422e-14
3.27454e-14
3.33574e-14
3.01546e-14
2.5517e-14
1.51154e-14
1.6658e-14
2.04528e-14
2.14829e-14
1.71315e-14
1.71456e-14
1.44465e-14
1.88466e-14
1.3855e-14
8.10121e-15
3.86057e-15
2.74466e-15
4.65804e-15
-5.45506e-15
2.10515e-15
8.89533e-16
9.24872e-15
1.49321e-14
5.97117e-15
-4.10461e-15
-5.5243e-15
-9.01481e-16
2.96145e-15
2.44271e-15
8.90041e-14
8.80089e-14
8.54061e-14
7.85246e-14
6.98446e-14
7.96921e-14
7.9216e-14
8.34612e-14
8.29387e-14
7.75191e-14
7.69825e-14
8.45606e-14
8.53948e-14
8.17139e-14
6.75702e-14
5.46721e-14
6.10398e-14
5.71156e-14
5.60909e-14
4.54328e-14
3.6695e-14
3.15776e-14
2.83613e-14
3.32463e-14
3.69613e-14
4.11526e-14
3.9731e-14
3.66113e-14
4.11112e-14
3.63058e-14
3.37593e-14
2.80162e-14
2.46147e-14
2.00293e-14
2.04419e-14
1.8183e-14
2.54649e-14
2.50305e-14
2.64944e-14
1.97357e-14
1.24879e-14
9.18011e-15
1.28999e-14
1.35302e-14
1.2286e-14
1.63269e-14
1.26274e-14
1.93115e-14
2.8726e-14
1.82345e-14
1.05286e-14
1.3563e-14
1.5057e-14
2.00668e-14
2.54275e-14
2.28494e-14
1.90163e-14
2.69375e-14
3.16851e-14
3.06099e-14
2.9938e-14
3.55965e-14
3.56186e-14
2.93154e-14
2.41108e-14
3.25552e-14
3.39979e-14
3.27229e-14
2.84878e-14
3.28052e-14
3.95907e-14
3.00985e-14
2.79078e-14
2.50777e-14
2.72589e-14
1.94823e-14
1.73594e-14
1.91167e-14
2.16385e-14
1.85914e-14
1.51291e-14
1.7402e-14
1.56612e-14
1.94853e-14
9.63819e-15
8.41138e-15
7.8434e-15
3.69635e-15
2.592e-15
-3.01055e-15
8.2673e-15
7.01238e-15
3.93976e-15
7.32165e-15
7.54628e-15
-4.01006e-15
-3.17537e-15
2.99021e-15
4.6555e-15
7.47019e-16
8.90568e-14
8.81594e-14
8.7866e-14
8.21858e-14
7.63978e-14
7.89239e-14
7.87596e-14
7.95443e-14
8.55388e-14
8.37497e-14
8.57685e-14
8.47792e-14
7.86402e-14
7.71603e-14
6.96881e-14
5.95132e-14
6.0701e-14
5.63788e-14
5.22281e-14
4.59834e-14
3.68441e-14
3.6715e-14
3.54459e-14
3.79351e-14
3.74037e-14
3.61833e-14
3.81051e-14
3.98028e-14
4.23784e-14
3.9809e-14
4.03501e-14
3.56268e-14
3.2192e-14
2.41895e-14
1.66907e-14
1.94414e-14
2.5187e-14
2.39204e-14
2.42281e-14
2.36783e-14
1.39766e-14
8.24312e-15
1.79749e-14
1.45253e-14
1.4372e-14
1.90027e-14
1.91943e-14
1.57299e-14
1.97435e-14
1.52664e-14
1.24655e-14
2.05669e-14
1.80334e-14
1.86643e-14
1.90758e-14
1.99051e-14
1.90047e-14
2.40822e-14
2.85881e-14
3.96694e-14
4.14655e-14
3.32623e-14
3.08918e-14
2.8373e-14
2.7033e-14
3.27794e-14
3.12828e-14
3.56442e-14
2.66017e-14
2.67606e-14
3.64775e-14
3.43085e-14
3.14018e-14
2.65197e-14
2.22901e-14
1.549e-14
1.84275e-14
1.75699e-14
1.64985e-14
2.02701e-14
2.11944e-14
1.657e-14
1.71876e-14
1.85258e-14
1.24437e-14
6.74488e-15
2.59329e-15
3.66072e-15
2.33542e-15
1.62287e-16
-1.76e-15
6.095e-15
8.89153e-15
7.52746e-15
1.19296e-14
4.38278e-15
-4.17836e-15
-2.04789e-15
7.11855e-15
1.6052e-15
8.95972e-14
8.9763e-14
8.93423e-14
8.07786e-14
7.86416e-14
7.9579e-14
8.30209e-14
8.24066e-14
8.28554e-14
8.60044e-14
8.90002e-14
8.37952e-14
8.11558e-14
7.3833e-14
7.52021e-14
7.11813e-14
6.61814e-14
6.18751e-14
5.32332e-14
4.39608e-14
2.91877e-14
2.47119e-14
3.46656e-14
4.17473e-14
4.42237e-14
4.51559e-14
3.32967e-14
3.52519e-14
3.88602e-14
4.14666e-14
4.10519e-14
3.12494e-14
3.4502e-14
2.55205e-14
2.56846e-14
2.64587e-14
2.45975e-14
1.91922e-14
2.56988e-14
2.39646e-14
1.59959e-14
2.01694e-14
1.3094e-14
1.72215e-14
2.18011e-14
2.00285e-14
2.05638e-14
1.806e-14
1.71734e-14
1.71093e-14
1.41287e-14
1.99744e-14
2.05805e-14
1.92777e-14
2.3574e-14
1.43126e-14
1.11451e-14
1.83009e-14
3.38647e-14
4.02768e-14
3.21968e-14
2.81958e-14
3.34166e-14
3.20224e-14
2.9969e-14
2.87385e-14
2.71091e-14
2.98302e-14
3.30481e-14
3.20204e-14
3.75356e-14
3.11372e-14
2.6083e-14
2.30349e-14
2.23195e-14
1.64968e-14
1.97021e-14
2.09364e-14
2.55756e-14
2.00287e-14
2.14017e-14
1.2719e-14
7.51362e-15
5.73967e-15
1.06229e-14
1.36475e-14
8.51311e-15
1.8832e-15
-2.42092e-15
-1.12011e-15
3.6643e-15
1.02291e-14
1.45875e-14
1.54596e-14
6.44627e-15
-1.1804e-15
-7.97388e-16
3.82044e-15
3.35571e-15
1.20412e-15
9.77904e-14
8.52896e-14
8.48732e-14
8.24222e-14
8.53335e-14
8.41321e-14
8.76691e-14
8.69906e-14
8.38529e-14
8.85669e-14
8.69014e-14
8.13981e-14
8.54674e-14
7.92289e-14
7.17836e-14
6.394e-14
6.53991e-14
6.1417e-14
4.76543e-14
4.40624e-14
4.09691e-14
3.83047e-14
3.28849e-14
3.92696e-14
4.44645e-14
4.44041e-14
4.33482e-14
4.11767e-14
4.13161e-14
3.77523e-14
3.7472e-14
3.63121e-14
3.92726e-14
3.02688e-14
2.33013e-14
2.492e-14
2.79568e-14
2.41914e-14
2.03014e-14
2.07574e-14
1.96245e-14
1.87966e-14
1.53089e-14
2.3892e-14
2.32392e-14
2.24755e-14
1.88148e-14
2.3861e-14
2.09883e-14
1.46797e-14
1.45574e-14
1.5136e-14
1.92258e-14
1.38435e-14
1.95255e-14
1.68846e-14
1.98689e-14
2.67732e-14
3.09135e-14
3.84486e-14
4.16866e-14
3.37577e-14
2.73223e-14
2.88615e-14
2.90095e-14
2.26931e-14
3.25241e-14
3.03248e-14
4.18648e-14
3.73255e-14
3.19349e-14
3.50108e-14
2.67609e-14
1.82231e-14
2.24604e-14
1.73718e-14
2.08034e-14
1.81933e-14
2.32335e-14
2.10262e-14
1.90625e-14
8.20226e-15
1.3244e-14
1.58218e-14
1.23268e-14
5.82265e-15
7.23331e-15
-2.25282e-16
-7.60683e-15
-3.19912e-15
9.99964e-16
1.04466e-14
1.31282e-14
1.47309e-14
9.57931e-15
4.11329e-15
-3.51987e-16
3.8953e-15
5.46887e-15
9.36285e-16
9.34188e-14
8.54953e-14
9.01914e-14
8.75936e-14
8.07926e-14
8.54647e-14
8.5652e-14
8.60748e-14
7.76119e-14
9.19468e-14
9.44756e-14
8.85354e-14
8.45028e-14
7.91111e-14
7.36964e-14
6.82286e-14
6.37249e-14
6.27105e-14
5.36285e-14
4.29753e-14
3.60119e-14
3.77374e-14
3.30016e-14
3.71311e-14
4.17763e-14
4.52414e-14
4.76229e-14
4.12833e-14
3.66448e-14
3.79387e-14
4.2979e-14
4.29188e-14
4.45102e-14
3.6618e-14
2.66433e-14
2.77272e-14
2.6267e-14
2.31994e-14
2.06228e-14
1.73853e-14
2.28878e-14
2.22701e-14
1.76628e-14
2.55011e-14
2.67351e-14
2.40252e-14
2.1465e-14
1.73595e-14