/*--------------------------------*- C++ -*----------------------------------*\
| =========                 |                                                 |
| \\      /  F ield         | OpenFOAM: The Open Source CFD Toolbox           |
|  \\    /   O peration     | Version:  v2012                                 |
|   \\  /    A nd           | Website:  www.openfoam.com                      |
|    \\/     M anipulation  |                                                 |
\*---------------------------------------------------------------------------*/
FoamFile
{
    version     2.0;
    format      ascii;
    class       volVectorField;
    location    "0";
    object      U;
}
// * * * * * * * * * * * * * * * * * * * * * * * * * * * * * * * * * * * * * //

dimensions      [0 1 -1 0 0 0 0];


internalField   nonuniform List<vector> 
4000
(
(1 3.39886e-15 0)
(1 1.75752e-15 0)
(1 1.65476e-15 0)
(1 2.61837e-16 0)
(1 -5.43747e-16 0)
(1 -6.42575e-15 0)
(1 4.44227e-16 0)
(1 7.8972e-15 0)
(1 2.17292e-15 0)
(1 -3.9629e-15 0)
(1 -2.27109e-15 0)
(1 1.5707e-15 0)
(1 2.72273e-15 0)
(1 2.3538e-15 0)
(1 -3.33758e-15 0)
(1 -8.23191e-15 0)
(1 3.00411e-15 0)
(1 2.27026e-15 0)
(1 -3.65947e-16 0)
(1 -4.75127e-16 0)
(1 -4.55193e-15 0)
(1 -2.55121e-15 0)
(1 -1.52936e-15 0)
(1 -6.94092e-16 0)
(1 5.07387e-15 0)
(1 3.94476e-15 0)
(1 4.33052e-16 0)
(1 1.06309e-15 0)
(1 -4.61958e-15 0)
(1 -3.03811e-15 0)
(1 -6.51255e-15 0)
(1 -2.13672e-15 0)
(1 7.68396e-16 0)
(1 -2.34548e-15 0)
(1 3.77984e-16 0)
(1 2.88484e-15 0)
(1 8.47784e-15 0)
(1 2.66179e-15 0)
(1 4.71633e-15 0)
(1 -3.24331e-15 0)
(1 -5.5497e-15 0)
(1 -4.2371e-15 0)
(1 2.13115e-15 0)
(1 1.94757e-15 0)
(1 2.10334e-15 0)
(1 4.30951e-16 0)
(1 -3.16166e-15 0)
(1 2.95775e-15 0)
(1 1.90579e-15 0)
(1 2.79849e-15 0)
(1 2.15934e-15 0)
(1 3.152e-15 0)
(1 2.31004e-15 0)
(1 2.12087e-15 0)
(1 2.00255e-15 0)
(1 5.45343e-16 0)
(1 -2.58181e-15 0)
(1 2.42801e-15 0)
(1 -1.29655e-15 0)
(1 3.256e-15 0)
(1 -7.17895e-17 0)
(1 1.50516e-15 0)
(1 -7.41671e-16 0)
(1 -9.07473e-16 0)
(1 -7.44161e-16 0)
(1 -2.91709e-15 0)
(1 -1.37865e-17 0)
(1 3.46335e-15 0)
(1 -2.76099e-15 0)
(1 6.53605e-16 0)
(1 -2.89645e-15 0)
(1 1.37679e-15 0)
(1 -3.40058e-15 0)
(1 -5.07931e-15 0)
(1 -6.63825e-15 0)
(1 -2.7072e-15 0)
(1 -1.1985e-15 0)
(1 -1.10319e-15 0)
(1 -1.26433e-15 0)
(1 2.01753e-16 0)
(1 4.14317e-16 0)
(1 4.26182e-15 0)
(1 -4.54745e-16 0)
(1 -6.40468e-15 0)
(1 -1.38529e-15 0)
(1 5.65836e-15 0)
(1 1.14732e-15 0)
(1 1.70663e-15 0)
(1 1.42714e-15 0)
(1 3.04653e-15 0)
(1 -1.26958e-16 0)
(1 2.15916e-15 0)
(1 3.15229e-16 0)
(1 -1.01878e-15 0)
(1 -1.5229e-15 0)
(1 4.71939e-15 0)
(1 -2.25507e-15 0)
(1 -1.03163e-15 0)
(1 -4.40434e-16 0)
(1 -2.16012e-15 0)
(1 2.18749e-15 0)
(1 2.93771e-15 0)
(1 2.30123e-15 0)
(1 1.20392e-15 0)
(1 -2.04758e-15 0)
(1 -6.84828e-15 0)
(1 -1.70754e-15 0)
(1 7.78087e-15 0)
(1 5.42532e-15 0)
(1 1.11714e-15 0)
(1 -4.52936e-15 0)
(1 1.76026e-15 0)
(1 1.71146e-15 0)
(1 -1.12744e-16 0)
(1 -4.42647e-15 0)
(1 -7.95568e-15 0)
(1 5.045e-15 0)
(1 1.5151e-15 0)
(1 -1.19147e-16 0)
(1 1.99442e-15 0)
(1 -2.88319e-15 0)
(1 1.32897e-15 0)
(1 2.59157e-15 0)
(1 -1.85415e-15 0)
(1 2.05376e-15 0)
(1 -4.09294e-15 0)
(1 -6.28774e-15 0)
(1 -1.07281e-15 0)
(1 -3.04681e-15 0)
(1 6.65676e-16 0)
(1 1.08402e-15 0)
(1 -1.4705e-15 0)
(1 2.01992e-15 0)
(1 -2.9749e-15 0)
(1 -4.46011e-15 0)
(1 3.20118e-15 0)
(1 4.16893e-15 0)
(1 1.90715e-15 0)
(1 3.57611e-16 0)
(1 -4.4499e-15 0)
(1 -8.1562e-15 0)
(1 -2.2258e-15 0)
(1 3.89592e-15 0)
(1 7.83542e-15 0)
(1 4.64157e-15 0)
(1 -2.75926e-15 0)
(1 -4.91199e-15 0)
(1 -2.71592e-15 0)
(1 1.1177e-15 0)
(1 -2.73532e-15 0)
(1 -2.84207e-16 0)
(1 3.28475e-15 0)
(1 4.24338e-15 0)
(1 2.08339e-15 0)
(1 5.88691e-15 0)
(1 1.75822e-15 0)
(1 -1.47013e-15 0)
(1 1.66247e-15 0)
(1 -2.13721e-15 0)
(1 -3.00938e-15 0)
(1 -6.37909e-15 0)
(1 -1.83585e-15 0)
(1 7.2081e-15 0)
(1 2.9495e-15 0)
(1 -1.81989e-15 0)
(1 -6.3572e-15 0)
(1 2.96347e-18 0)
(1 1.50657e-15 0)
(1 -2.39419e-15 0)
(1 9.2778e-16 0)
(1 3.02467e-15 0)
(1 3.24628e-15 0)
(1 1.5293e-15 0)
(1 -6.7568e-17 0)
(1 9.66178e-17 0)
(1 -1.61396e-15 0)
(1 3.05987e-15 0)
(1 8.35669e-16 0)
(1 3.55962e-15 0)
(1 2.41156e-15 0)
(1 6.41758e-17 0)
(1 1.53033e-15 0)
(1 -2.03904e-15 0)
(1 -7.3394e-15 0)
(1 -6.97578e-16 0)
(1 7.78648e-15 0)
(1 5.4296e-15 0)
(1 -1.40582e-15 0)
(1 -2.90093e-15 0)
(1 -1.5697e-15 0)
(1 -3.54883e-15 0)
(1 1.74259e-15 0)
(1 6.15836e-17 0)
(1 6.5336e-16 0)
(1 -2.48794e-15 0)
(1 6.90775e-15 0)
(1 -4.5521e-15 0)
(1 2.3898e-15 0)
(1 -3.86599e-15 0)
(1 -6.15208e-15 0)
(1 -4.73003e-15 0)
(1 3.902e-15 0)
(1 -4.19313e-15 0)
(1 3.5093e-15 0)
(1 -5.19848e-15 0)
(1 2.94149e-15 0)
(1 1.89557e-15 0)
(1 -2.99726e-16 0)
(1 6.87003e-15 0)
(1 5.86265e-15 0)
(1 -1.67724e-15 0)
(1 1.32333e-15 0)
(1 8.28224e-15 0)
(1 -1.70759e-15 0)
(1 -1.37679e-15 0)
(1 -6.92537e-15 0)
(1 -4.77821e-15 0)
(1 -1.04634e-16 0)
(1 2.17116e-15 0)
(1 -2.34124e-15 0)
(1 4.60117e-16 0)
(1 4.55771e-15 0)
(1 4.20606e-15 0)
(1 4.12251e-15 0)
(1 1.88975e-15 0)
(1 -5.17192e-16 0)
(1 -4.05661e-15 0)
(1 7.80517e-16 0)
(1 5.64854e-15 0)
(1 2.55807e-15 0)
(1 3.57759e-15 0)
(1 -8.43028e-15 0)
(1 9.93542e-16 0)
(1 -3.91383e-15 0)
(1 -1.8181e-15 0)
(1 -8.39315e-16 0)
(1 -5.47219e-15 0)
(1 -1.8479e-15 0)
(1 -2.43841e-15 0)
(1 -2.79353e-15 0)
(1 -2.355e-15 0)
(1 9.6363e-16 0)
(1 3.88636e-15 0)
(1 7.17831e-15 0)
(1 4.30903e-15 0)
(1 1.97122e-15 0)
(1 8.57491e-15 0)
(1 -3.36032e-15 0)
(1 -2.40189e-16 0)
(1 -3.4096e-15 0)
(1 9.89316e-16 0)
(1 2.16503e-15 0)
(1 4.92976e-15 0)
(1 3.78332e-15 0)
(1 5.28809e-15 0)
(1 1.79863e-15 0)
(1 1.16314e-15 0)
(1 3.64543e-16 0)
(1 -4.22232e-15 0)
(1 -5.48922e-15 0)
(1 -2.3517e-15 0)
(1 3.37013e-16 0)
(1 7.28867e-15 0)
(1 4.59591e-15 0)
(1 -5.34213e-15 0)
(1 -4.20168e-15 0)
(1 1.79912e-15 0)
(1 -2.75706e-15 0)
(1 -2.74278e-15 0)
(1 -2.95227e-16 0)
(1 -1.67305e-16 0)
(1 -8.56954e-17 0)
(1 5.76359e-15 0)
(1 2.88468e-16 0)
(1 -4.38346e-15 0)
(1 -3.523e-15 0)
(1 -6.75165e-16 0)
(1 -3.69858e-16 0)
(1 2.8681e-15 0)
(1 -7.49147e-16 0)
(1 -1.83421e-16 0)
(1 1.12609e-16 0)
(1 -1.7078e-15 0)
(1 -3.66789e-15 0)
(1 -1.79361e-16 0)
(1 1.63295e-15 0)
(1 3.79466e-15 0)
(1 -9.2142e-16 0)
(1 -3.79626e-15 0)
(1 -9.13852e-16 0)
(1 -5.14916e-18 0)
(1 1.59918e-15 0)
(1 3.96228e-15 0)
(1 4.73235e-15 0)
(1 -1.39505e-15 0)
(1 2.33867e-15 0)
(1 -3.23493e-15 0)
(1 -1.29856e-16 0)
(1 -5.65985e-15 0)
(1 -4.84996e-15 0)
(1 1.69346e-16 0)
(1 -6.60514e-15 0)
(1 -4.23857e-15 0)
(1 -4.86497e-15 0)
(1 1.61276e-16 0)
(1 1.11766e-14 0)
(1 8.26413e-15 0)
(1 6.22039e-16 0)
(1 3.65304e-15 0)
(1 -1.35537e-15 0)
(1 3.28937e-15 0)
(1 -5.26253e-15 0)
(1 6.22535e-15 0)
(1 9.59236e-15 0)
(1 5.04358e-15 0)
(1 3.54948e-15 0)
(1 -7.7157e-15 0)
(1 -4.57641e-15 0)
(1 2.23787e-15 0)
(1 -4.4004e-15 0)
(1 7.396e-15 0)
(1 2.7337e-15 0)
(1 4.67986e-16 0)
(1 7.8672e-15 0)
(1 7.30157e-15 0)
(1 1.33732e-14 0)
(1 3.11488e-15 0)
(1 5.83103e-15 0)
(1 4.1348e-15 0)
(1 -7.5818e-16 0)
(1 -4.27292e-15 0)
(1 -1.67631e-14 0)
(1 -1.12875e-15 0)
(1 -6.44454e-15 0)
(1 1.54809e-15 0)
(1 -8.8112e-15 0)
(1 -1.96902e-15 0)
(1 2.76452e-16 0)
(1 9.17637e-16 0)
(1 -2.79395e-15 0)
(1 4.54097e-15 0)
(1 6.30528e-16 0)
(1 8.40179e-16 0)
(1 -5.44486e-15 0)
(1 3.19623e-15 0)
(1 7.18613e-15 0)
(1 9.26262e-15 0)
(1 5.62184e-15 0)
(1 1.38697e-15 0)
(1 2.18202e-15 0)
(1 3.17004e-15 0)
(1 3.93345e-15 0)
(1 4.56216e-15 0)
(1 1.04812e-14 0)
(1 1.91398e-15 0)
(1 -3.47527e-15 0)
(1 -4.09244e-15 0)
(1 2.93442e-16 0)
(1 1.61195e-15 0)
(1 -1.73845e-15 0)
(1 1.93279e-15 0)
(1 1.20579e-15 0)
(1 1.66922e-15 0)
(1 -2.17118e-15 0)
(1 7.82247e-16 0)
(1 2.62649e-15 0)
(1 -2.8541e-15 0)
(1 -6.31324e-15 0)
(1 -3.89619e-15 0)
(1 -2.49523e-15 0)
(1 -4.33412e-15 0)
(1 -1.69982e-15 0)
(1 4.55337e-15 0)
(1 -5.17901e-15 0)
(1 -1.13535e-14 0)
(1 -1.5274e-15 0)
(1 2.88393e-16 0)
(1 -6.96661e-16 0)
(1 9.58871e-16 0)
(1 -1.24025e-15 0)
(1 2.66221e-15 0)
(1 4.16222e-16 0)
(1 2.78442e-16 0)
(1 -2.93755e-15 0)
(1 -1.62776e-15 0)
(1 3.57397e-15 0)
(1 5.26345e-15 0)
(1 8.73194e-15 0)
(1 3.94123e-15 0)
(1 2.76345e-15 0)
(1 3.61067e-15 0)
(1 1.81777e-15 0)
(1 5.07971e-15 0)
(1 2.60362e-15 0)
(1 -1.00983e-15 0)
(1 -3.30765e-15 0)
(1 -6.26233e-15 0)
(1 -9.83831e-15 0)
(1 -5.4976e-15 0)
(1 7.44077e-16 0)
(1 4.83171e-15 0)
(1 -2.83212e-15 0)
(1 8.21538e-16 0)
(1 -2.58763e-15 0)
(1 4.05716e-15 0)
(1 1.6689e-15 0)
(1 -1.13298e-15 0)
(1 -2.86977e-15 0)
(1 -6.75942e-15 0)
(1 -3.72941e-15 0)
(1 1.44876e-14 0)
(1 -8.33156e-16 0)
(1 4.71392e-15 0)
(1 1.93188e-15 0)
(1 4.92571e-15 0)
(1 3.33564e-15 0)
(1 -2.3645e-16 0)
(1 -4.66777e-15 0)
(1 -5.21325e-15 0)
(1 -1.9388e-15 0)
(1 5.36503e-15 0)
(1 -3.91942e-15 0)
(1 -4.43256e-15 0)
(1 5.65827e-15 0)
(1 8.81966e-15 0)
(1 5.64683e-15 0)
(1 4.08897e-15 0)
(1 7.77028e-15 0)
(1 3.68351e-15 0)
(1 5.78406e-15 0)
(1 1.96281e-15 0)
(1 -1.53998e-15 0)
(1 -5.90021e-16 0)
(1 -2.89774e-15 0)
(1 -9.02232e-15 0)
(1 -1.46647e-14 0)
(1 -8.17903e-15 0)
(1 -2.93205e-15 0)
(1 -2.47586e-15 0)
(1 1.15703e-15 0)
(1 1.42655e-15 0)
(1 -2.7346e-15 0)
(1 2.43804e-15 0)
(1 -2.80445e-15 0)
(1 -1.35213e-15 0)
(1 6.90207e-16 0)
(1 7.64951e-16 0)
(1 9.65537e-15 0)
(1 2.15099e-15 0)
(1 4.83216e-15 0)
(1 2.72538e-15 0)
(1 3.02368e-15 0)
(1 1.5147e-15 0)
(1 6.21421e-15 0)
(1 1.67186e-15 0)
(1 -1.1109e-15 0)
(1 3.76963e-16 0)
(1 -2.99924e-15 0)
(1 1.49421e-15 0)
(1 -1.13593e-15 0)
(1 5.78984e-16 0)
(1 3.04157e-15 0)
(1 7.0878e-16 0)
(1 5.51941e-15 0)
(1 1.06221e-14 0)
(1 4.61448e-15 0)
(1 9.72105e-16 0)
(1 -6.36026e-15 0)
(1 6.38445e-16 0)
(1 -4.50158e-15 0)
(1 -2.66092e-15 0)
(1 2.53523e-16 0)
(1 2.3885e-15 0)
(1 -4.16427e-15 0)
(1 -1.4034e-15 0)
(1 6.07926e-16 0)
(1 -2.73972e-15 0)
(1 -2.8665e-15 0)
(1 3.17249e-15 0)
(1 3.84624e-15 0)
(1 8.29859e-16 0)
(1 -2.98088e-15 0)
(1 -1.85054e-15 0)
(1 2.46052e-15 0)
(1 4.92555e-15 0)
(1 1.63511e-15 0)
(1 5.18519e-15 0)
(1 3.48893e-15 0)
(1 4.51939e-15 0)
(1 1.76556e-15 0)
(1 4.31038e-15 0)
(1 -2.86149e-18 0)
(1 4.04557e-15 0)
(1 3.3811e-15 0)
(1 3.26605e-15 0)
(1 -2.87799e-15 0)
(1 -3.93146e-15 0)
(1 -6.94381e-15 0)
(1 3.59866e-16 0)
(1 5.84279e-15 0)
(1 -1.36804e-15 0)
(1 4.58848e-15 0)
(1 2.2232e-15 0)
(1 3.33851e-15 0)
(1 -6.26177e-15 0)
(1 -7.74852e-15 0)
(1 1.0586e-15 0)
(1 -2.31396e-15 0)
(1 -1.99518e-15 0)
(1 1.32951e-15 0)
(1 6.81955e-15 0)
(1 1.21423e-14 0)
(1 8.82139e-15 0)
(1 -3.94158e-15 0)
(1 1.70169e-15 0)
(1 -5.39807e-15 0)
(1 3.45542e-15 0)
(1 -2.81948e-15 0)
(1 -6.3179e-15 0)
(1 -3.57459e-15 0)
(1 -2.94983e-15 0)
(1 7.25675e-15 0)
(1 8.79113e-15 0)
(1 8.3185e-15 0)
(1 4.3721e-15 0)
(1 3.42993e-15 0)
(1 3.74846e-15 0)
(1 5.25077e-15 0)
(1 4.85175e-15 0)
(1 6.92974e-15 0)
(1 -4.97726e-15 0)
(1 4.40295e-16 0)
(1 -3.13664e-15 0)
(1 -4.87815e-16 0)
(1 -3.81613e-15 0)
(1 -2.2868e-15 0)
(1 -7.18574e-15 0)
(1 -1.45491e-15 0)
(1 -5.38073e-15 0)
(1 2.19383e-15 0)
(1 -2.65939e-15 0)
(1 4.10776e-15 0)
(1 3.4118e-15 0)
(1 7.74035e-15 0)
(1 -1.40263e-15 0)
(1 -1.95508e-15 0)
(1 2.8515e-15 0)
(1 5.82158e-15 0)
(1 4.62114e-15 0)
(1 6.44531e-15 0)
(1 2.55074e-15 0)
(1 5.77885e-15 0)
(1 4.57377e-15 0)
(1 7.76771e-15 0)
(1 4.73492e-15 0)
(1 -7.99707e-16 0)
(1 -5.67276e-15 0)
(1 -4.57663e-15 0)
(1 -2.84533e-15 0)
(1 7.78219e-15 0)
(1 6.90734e-15 0)
(1 1.19984e-15 0)
(1 -2.9183e-15 0)
(1 9.19366e-15 0)
(1 2.83619e-15 0)
(1 2.87783e-15 0)
(1 8.19029e-15 0)
(1 7.96238e-15 0)
(1 1.37295e-14 0)
(1 1.20934e-14 0)
(1 8.87633e-15 0)
(1 -4.96204e-16 0)
(1 -1.97341e-15 0)
(1 -5.39743e-15 0)
(1 -4.49775e-15 0)
(1 -6.66629e-15 0)
(1 -5.75578e-15 0)
(1 -6.50416e-16 0)
(1 2.00159e-15 0)
(1 4.33055e-15 0)
(1 4.30224e-17 0)
(1 3.56349e-15 0)
(1 -7.3056e-16 0)
(1 5.32507e-16 0)
(1 -1.92082e-15 0)
(1 -5.84989e-15 0)
(1 -2.32829e-15 0)
(1 -1.11353e-15 0)
(1 2.21043e-15 0)
(1 5.40847e-15 0)
(1 8.3298e-16 0)
(1 2.80026e-15 0)
(1 4.75245e-15 0)
(1 8.13928e-15 0)
(1 4.63927e-15 0)
(1 8.99853e-16 0)
(1 5.95314e-15 0)
(1 2.66404e-15 0)
(1 9.09152e-15 0)
(1 8.31381e-15 0)
(1 -1.58258e-15 0)
(1 1.00404e-15 0)
(1 4.60033e-15 0)
(1 6.37196e-15 0)
(1 -1.00297e-15 0)
(1 -3.30294e-15 0)
(1 2.68976e-15 0)
(1 2.92964e-16 0)
(1 7.21417e-16 0)
(1 4.27952e-15 0)
(1 -3.91414e-15 0)
(1 2.0366e-15 0)
(1 -1.5821e-15 0)
(1 1.88098e-15 0)
(1 -2.80142e-15 0)
(1 -7.70071e-16 0)
(1 5.68155e-16 0)
(1 7.83007e-16 0)
(1 4.84959e-15 0)
(1 4.24545e-15 0)
(1 2.80843e-15 0)
(1 7.66675e-15 0)
(1 2.62869e-15 0)
(1 -4.98245e-15 0)
(1 -1.26989e-14 0)
(1 -2.78351e-15 0)
(1 5.88712e-15 0)
(1 2.59123e-15 0)
(1 9.25378e-15 0)
(1 7.6481e-15 0)
(1 4.45153e-15 0)
(1 1.4085e-15 0)
(1 -3.98675e-16 0)
(1 -2.68125e-15 0)
(1 -5.28698e-15 0)
(1 -2.85597e-15 0)
(1 -7.27517e-16 0)
(1 -1.08079e-15 0)
(1 -2.24226e-15 0)
(1 4.7369e-16 0)
(1 5.10955e-15 0)
(1 1.90178e-14 0)
(1 5.76919e-15 0)
(1 4.76104e-15 0)
(1 -7.40986e-15 0)
(1 -5.06614e-15 0)
(1 -4.99858e-15 0)
(1 4.23824e-15 0)
(1 6.88296e-15 0)
(1 2.70888e-15 0)
(1 3.0753e-15 0)
(1 6.63178e-16 0)
(1 4.97531e-15 0)
(1 1.53353e-15 0)
(1 3.22753e-15 0)
(1 -1.13521e-15 0)
(1 9.20044e-16 0)
(1 1.23776e-15 0)
(1 2.24769e-15 0)
(1 4.41738e-15 0)
(1 6.7802e-15 0)
(1 1.65932e-15 0)
(1 4.5034e-15 0)
(1 1.96061e-15 0)
(1 -8.6196e-16 0)
(1 8.13773e-16 0)
(1 -5.17168e-16 0)
(1 6.60588e-15 0)
(1 5.72428e-15 0)
(1 1.06039e-14 0)
(1 6.76712e-15 0)
(1 -3.08715e-15 0)
(1 -7.09258e-15 0)
(1 -1.27687e-16 0)
(1 2.37338e-15 0)
(1 4.65368e-15 0)
(1 7.25879e-15 0)
(1 -3.07699e-16 0)
(1 1.20385e-15 0)
(1 1.00359e-15 0)
(1 6.1971e-15 0)
(1 1.59744e-15 0)
(1 8.91982e-16 0)
(1 -3.94692e-16 0)
(1 -3.20014e-15 0)
(1 3.90718e-15 0)
(1 5.31341e-15 0)
(1 6.65256e-15 0)
(1 5.82567e-15 0)
(1 7.28797e-15 0)
(1 -8.49979e-16 0)
(1 5.46987e-15 0)
(1 6.16265e-15 0)
(1 1.14281e-14 0)
(1 3.35358e-15 0)
(1 6.89035e-15 0)
(1 9.05563e-15 0)
(1 9.22518e-15 0)
(1 5.98607e-15 0)
(1 6.56163e-15 0)
(1 8.87454e-16 0)
(1 -1.70768e-15 0)
(1 -3.37031e-15 0)
(1 -1.4255e-15 0)
(1 3.61655e-15 0)
(1 2.4831e-15 0)
(1 1.39779e-15 0)
(1 1.55488e-15 0)
(1 -5.64528e-15 0)
(1 2.07131e-15 0)
(1 -5.12716e-15 0)
(1 -1.2014e-15 0)
(1 3.6942e-15 0)
(1 1.18721e-14 0)
(1 6.77691e-16 0)
(1 6.45151e-15 0)
(1 7.68848e-17 0)
(1 1.04161e-14 0)
(1 4.64866e-15 0)
(1 1.535e-15 0)
(1 3.90548e-16 0)
(1 -9.73149e-15 0)
(1 -1.00075e-14 0)
(1 -9.99296e-15 0)
(1 -9.94735e-15 0)
(1 -4.1121e-15 0)
(1 9.69169e-15 0)
(1 4.50401e-15 0)
(1 1.19747e-14 0)
(1 3.4569e-15 0)
(1 1.00285e-14 0)
(1 -1.61874e-16 0)
(1 -5.05703e-15 0)
(1 -1.91638e-15 0)
(1 -1.05206e-15 0)
(1 -3.58299e-15 0)
(1 5.19404e-15 0)
(1 3.37368e-16 0)
(1 1.44542e-15 0)
(1 1.19662e-15 0)
(1 4.70392e-15 0)
(1 -6.01912e-15 0)
(1 -5.77678e-15 0)
(1 -8.82454e-15 0)
(1 1.12284e-15 0)
(1 3.82445e-15 0)
(1 3.94163e-15 0)
(1 7.73673e-15 0)
(1 8.62762e-15 0)
(1 4.76214e-15 0)
(1 7.76389e-15 0)
(1 1.18759e-15 0)
(1 8.94445e-15 0)
(1 1.51084e-15 0)
(1 7.67966e-15 0)
(1 3.81987e-15 0)
(1 4.27891e-15 0)
(1 1.24502e-16 0)
(1 -3.02992e-17 0)
(1 -3.6994e-15 0)
(1 3.53642e-16 0)
(1 1.01553e-14 0)
(1 9.37089e-15 0)
(1 6.72173e-15 0)
(1 4.84273e-15 0)
(1 6.5515e-15 0)
(1 5.35703e-15 0)
(1 1.91983e-15 0)
(1 2.46887e-15 0)
(1 3.79042e-15 0)
(1 2.09398e-15 0)
(1 6.00826e-15 0)
(1 3.25312e-15 0)
(1 7.74757e-16 0)
(1 4.84381e-15 0)
(1 6.57286e-15 0)
(1 3.49521e-15 0)
(1 -2.34286e-15 0)
(1 2.05113e-16 0)
(1 -2.60816e-15 0)
(1 2.04723e-15 0)
(1 -1.87937e-15 0)
(1 -1.40089e-15 0)
(1 7.11797e-16 0)
(1 4.13496e-15 0)
(1 6.72532e-15 0)
(1 3.47261e-15 0)
(1 -2.16231e-15 0)
(1 4.38637e-15 0)
(1 3.92816e-15 0)
(1 1.43406e-15 0)
(1 2.13816e-15 0)
(1 8.83106e-16 0)
(1 7.24587e-15 0)
(1 1.02661e-14 0)
(1 1.10433e-14 0)
(1 1.00579e-14 0)
(1 1.2628e-14 0)
(1 7.20064e-15 0)
(1 1.16029e-14 0)
(1 -1.68863e-15 0)
(1 -4.12819e-15 0)
(1 -5.11277e-15 0)
(1 -9.9463e-15 0)
(1 4.01564e-16 0)
(1 6.48666e-15 0)
(1 8.6173e-15 0)
(1 2.87129e-15 0)
(1 -2.80007e-15 0)
(1 -2.52099e-16 0)
(1 -8.18208e-15 0)
(1 5.39992e-16 0)
(1 8.03795e-15 0)
(1 1.51338e-14 0)
(1 2.55087e-15 0)
(1 5.38218e-15 0)
(1 -1.19994e-15 0)
(1 8.41279e-15 0)
(1 -1.35296e-15 0)
(1 -3.59015e-15 0)
(1 -1.09532e-14 0)
(1 8.85109e-17 0)
(1 6.86474e-15 0)
(1 8.20395e-16 0)
(1 -5.17869e-15 0)
(1 1.89439e-15 0)
(1 1.2865e-15 0)
(1 2.07254e-15 0)
(1 2.14186e-15 0)
(1 3.76168e-15 0)
(1 -4.57911e-15 0)
(1 -3.32846e-15 0)
(1 -1.22681e-14 0)
(1 -4.59281e-15 0)
(1 1.34022e-15 0)
(1 5.93749e-15 0)
(1 4.72013e-15 0)
(1 4.10979e-15 0)
(1 -7.46892e-16 0)
(1 6.75832e-16 0)
(1 2.61016e-16 0)
(1 -7.92192e-15 0)
(1 -6.67029e-16 0)
(1 1.33321e-16 0)
(1 1.39932e-14 0)
(1 1.19034e-14 0)
(1 7.72941e-15 0)
(1 -1.52437e-16 0)
(1 7.48555e-15 0)
(1 3.23915e-15 0)
(1 5.66857e-15 0)
(1 3.05745e-15 0)
(1 8.65463e-15 0)
(1 1.2024e-14 0)
(1 6.54173e-15 0)
(1 7.06411e-15 0)
(1 -2.55764e-15 0)
(1 -2.698e-15 0)
(1 6.61094e-15 0)
(1 -2.3336e-15 0)
(1 -7.95361e-17 0)
(1 -4.04121e-15 0)
(1 8.84794e-16 0)
(1 -3.10107e-15 0)
(1 4.41565e-15 0)
(1 1.93259e-15 0)
(1 1.12102e-14 0)
(1 1.81275e-14 0)
(1 1.25023e-14 0)
(1 2.07315e-14 0)
(1 9.83033e-15 0)
(1 9.01896e-15 0)
(1 9.47653e-15 0)
(1 2.457e-15 0)
(1 2.38084e-15 0)
(1 -7.90468e-16 0)
(1 8.22473e-16 0)
(1 5.68404e-15 0)
(1 4.04313e-15 0)
(1 -1.71635e-15 0)
(1 2.72926e-15 0)
(1 2.16221e-15 0)
(1 3.71142e-15 0)
(1 -1.22482e-15 0)
(1 -6.37901e-16 0)
(1 1.3787e-15 0)
(1 -8.66525e-16 0)
(1 -9.37444e-17 0)
(1 2.48656e-15 0)
(1 3.34689e-16 0)
(1 4.84885e-16 0)
(1 2.02648e-15 0)
(1 4.12655e-15 0)
(1 9.42263e-15 0)
(1 1.35092e-14 0)
(1 1.59368e-14 0)
(1 1.9424e-14 0)
(1 2.10223e-14 0)
(1 2.22508e-14 0)
(1 2.09615e-14 0)
(1 1.82912e-16 0)
(1 5.7731e-16 0)
(1 4.76395e-15 0)
(1 1.98133e-15 0)
(1 -8.19752e-17 0)
(1 -2.35866e-15 0)
(1 1.26133e-15 0)
(1 -1.61281e-15 0)
(1 5.90427e-15 0)
(1 -8.08615e-16 0)
(1 3.15575e-15 0)
(1 -4.34113e-15 0)
(1 4.40611e-15 0)
(1 -1.51778e-15 0)
(1 -5.21749e-16 0)
(1 -3.75741e-15 0)
(1 -3.20284e-15 0)
(1 3.4094e-15 0)
(1 4.01621e-15 0)
(1 5.56704e-15 0)
(1 -1.02997e-14 0)
(1 -3.59059e-15 0)
(1 1.54518e-15 0)
(1 2.36214e-15 0)
(1 1.11792e-15 0)
(1 8.05856e-15 0)
(1 4.94515e-15 0)
(1 4.48566e-15 0)
(1 -3.92745e-15 0)
(1 3.31681e-15 0)
(1 -2.90528e-15 0)
(1 9.36689e-15 0)
(1 -9.03991e-16 0)
(1 -2.88788e-15 0)
(1 -9.0145e-15 0)
(1 2.78976e-16 0)
(1 -5.42728e-15 0)
(1 -2.39054e-15 0)
(1 2.94814e-15 0)
(1 4.76515e-15 0)
(1 -4.596e-15 0)
(1 -1.07051e-15 0)
(1 3.95293e-15 0)
(1 5.23404e-15 0)
(1 -4.8264e-15 0)
(1 4.80666e-16 0)
(1 5.01603e-15 0)
(1 3.17291e-15 0)
(1 8.74227e-15 0)
(1 5.90993e-15 0)
(1 8.23273e-15 0)
(1 3.73124e-15 0)
(1 6.39877e-15 0)
(1 4.39126e-15 0)
(1 2.37107e-15 0)
(1 6.28795e-15 0)
(1 2.4302e-15 0)
(1 6.87173e-15 0)
(1 1.12985e-14 0)
(1 4.46137e-15 0)
(1 2.42835e-15 0)
(1 1.44334e-15 0)
(1 5.41137e-15 0)
(1 7.56101e-17 0)
(1 4.39797e-15 0)
(1 3.74892e-15 0)
(1 9.17853e-15 0)
(1 2.10219e-14 0)
(1 1.99288e-14 0)
(1 1.20211e-14 0)
(1 3.54692e-15 0)
(1 8.28196e-15 0)
(1 -3.94499e-16 0)
(1 1.71668e-15 0)
(1 2.70551e-15 0)
(1 4.6536e-15 0)
(1 1.16101e-14 0)
(1 6.22874e-15 0)
(1 2.48345e-15 0)
(1 1.755e-15 0)
(1 5.02165e-15 0)
(1 3.04622e-17 0)
(1 -3.32094e-15 0)
(1 -1.25543e-15 0)
(1 3.52126e-16 0)
(1 2.00926e-15 0)
(1 5.16339e-15 0)
(1 8.3925e-15 0)
(1 3.36846e-15 0)
(1 1.47311e-15 0)
(1 2.36271e-15 0)
(1 3.95541e-15 0)
(1 9.77366e-15 0)
(1 1.2985e-14 0)
(1 1.69181e-14 0)
(1 1.01852e-14 0)
(1 1.45791e-14 0)
(1 1.24897e-14 0)
(1 2.79729e-14 0)
(1 2.55127e-14 0)
(1 -2.92999e-16 0)
(1 1.93161e-15 0)
(1 -4.20089e-15 0)
(1 1.13302e-15 0)
(1 -4.52925e-15 0)
(1 -2.91003e-15 0)
(1 -5.54685e-15 0)
(1 -1.16476e-15 0)
(1 4.22973e-15 0)
(1 3.04125e-15 0)
(1 7.50573e-15 0)
(1 8.61324e-16 0)
(1 -2.73922e-15 0)
(1 -1.04758e-14 0)
(1 1.40159e-15 0)
(1 -2.58983e-15 0)
(1 6.53022e-15 0)
(1 7.87796e-16 0)
(1 8.39613e-15 0)
(1 5.52293e-15 0)
(1 6.38009e-15 0)
(1 -1.11425e-15 0)
(1 -8.55417e-15 0)
(1 -1.89793e-15 0)
(1 2.98046e-15 0)
(1 -5.11292e-15 0)
(1 -2.99801e-15 0)
(1 -4.2151e-15 0)
(1 -4.35395e-15 0)
(1 -7.06671e-15 0)
(1 4.82614e-16 0)
(1 1.12999e-14 0)
(1 7.66385e-15 0)
(1 7.92259e-16 0)
(1 -8.42901e-15 0)
(1 1.82714e-15 0)
(1 -3.48002e-15 0)
(1 4.30239e-16 0)
(1 2.52688e-15 0)
(1 -8.73314e-16 0)
(1 -6.35446e-15 0)
(1 -3.58718e-15 0)
(1 -1.75991e-15 0)
(1 -8.80074e-16 0)
(1 -2.73152e-15 0)
(1 -4.62877e-15 0)
(1 1.07662e-14 0)
(1 3.81019e-15 0)
(1 8.84488e-15 0)
(1 1.54264e-14 0)
(1 1.71708e-14 0)
(1 1.13632e-14 0)
(1 7.20171e-15 0)
(1 6.56904e-16 0)
(1 1.59868e-15 0)
(1 -1.38022e-15 0)
(1 -7.57686e-16 0)
(1 4.76038e-15 0)
(1 2.28678e-15 0)
(1 8.04654e-15 0)
(1 5.54581e-15 0)
(1 5.89553e-15 0)
(1 3.2227e-15 0)
(1 1.73707e-15 0)
(1 3.97471e-15 0)
(1 1.21874e-14 0)
(1 7.31211e-15 0)
(1 2.57912e-15 0)
(1 1.20759e-14 0)
(1 3.14367e-15 0)
(1 9.59947e-15 0)
(1 1.37612e-14 0)
(1 4.08285e-15 0)
(1 3.31603e-15 0)
(1 8.89551e-15 0)
(1 8.12602e-15 0)
(1 1.04082e-14 0)
(1 1.16452e-14 0)
(1 8.50888e-15 0)
(1 5.82233e-15 0)
(1 -2.40883e-15 0)
(1 -1.1055e-15 0)
(1 -5.92794e-16 0)
(1 7.20932e-16 0)
(1 2.49695e-15 0)
(1 -1.81263e-15 0)
(1 1.63013e-15 0)
(1 2.57277e-15 0)
(1 5.49367e-15 0)
(1 2.13799e-15 0)
(1 4.8076e-15 0)
(1 -7.64736e-16 0)
(1 8.5457e-15 0)
(1 3.89937e-15 0)
(1 1.59992e-14 0)
(1 7.48622e-15 0)
(1 1.0136e-14 0)
(1 8.6013e-15 0)
(1 2.06941e-14 0)
(1 2.34012e-14 0)
(1 2.28571e-15 0)
(1 -2.8504e-15 0)
(1 -6.3488e-16 0)
(1 3.15593e-15 0)
(1 -2.76042e-15 0)
(1 -1.50806e-15 0)
(1 -5.87042e-15 0)
(1 5.5564e-15 0)
(1 -5.87064e-16 0)
(1 8.12636e-15 0)
(1 4.41206e-15 0)
(1 7.03406e-15 0)
(1 -2.45135e-16 0)
(1 -7.33319e-15 0)
(1 -9.96796e-17 0)
(1 -2.11547e-15 0)
(1 -2.2071e-17 0)
(1 -9.02547e-15 0)
(1 1.9571e-15 0)
(1 -1.3144e-14 0)
(1 4.01767e-15 0)
(1 4.79508e-15 0)
(1 1.20188e-14 0)
(1 9.88994e-15 0)
(1 6.42531e-15 0)
(1 -4.72839e-15 0)
(1 -3.79615e-15 0)
(1 5.6577e-15 0)
(1 2.1788e-15 0)
(1 2.52534e-15 0)
(1 -3.21037e-15 0)
(1 -5.50818e-15 0)
(1 2.55816e-15 0)
(1 1.69212e-15 0)
(1 -4.16407e-15 0)
(1 -7.35264e-15 0)
(1 1.68356e-15 0)
(1 5.28566e-16 0)
(1 -6.32842e-17 0)
(1 -5.35756e-15 0)
(1 -1.3195e-15 0)
(1 4.43439e-15 0)
(1 -2.32762e-15 0)
(1 -2.22545e-15 0)
(1 -2.78596e-15 0)
(1 2.16248e-15 0)
(1 2.54878e-15 0)
(1 1.19261e-14 0)
(1 1.20261e-14 0)
(1 1.65039e-14 0)
(1 9.31665e-15 0)
(1 6.17282e-15 0)
(1 -4.33755e-16 0)
(1 1.33546e-15 0)
(1 3.75351e-15 0)
(1 -1.23383e-15 0)
(1 -1.82232e-15 0)
(1 -3.95258e-15 0)
(1 5.35646e-15 0)
(1 1.29343e-14 0)
(1 1.53817e-14 0)
(1 2.13438e-15 0)
(1 6.55956e-15 0)
(1 8.02099e-16 0)
(1 1.06242e-14 0)
(1 4.95532e-15 0)
(1 7.7588e-15 0)
(1 4.0405e-15 0)
(1 -5.94891e-17 0)
(1 8.7757e-15 0)
(1 1.2802e-14 0)
(1 1.11761e-14 0)
(1 7.03026e-15 0)
(1 6.30605e-15 0)
(1 7.46949e-15 0)
(1 3.12353e-15 0)
(1 1.14564e-15 0)
(1 4.17153e-15 0)
(1 1.03236e-15 0)
(1 6.37915e-15 0)
(1 4.28696e-15 0)
(1 4.85912e-15 0)
(1 1.07756e-14 0)
(1 5.45484e-15 0)
(1 -1.17772e-15 0)
(1 -3.42854e-15 0)
(1 2.69631e-15 0)
(1 2.57045e-15 0)
(1 7.38034e-15 0)
(1 3.75678e-15 0)
(1 7.02239e-15 0)
(1 -4.37171e-16 0)
(1 8.15003e-15 0)
(1 7.54452e-15 0)
(1 8.17753e-15 0)
(1 1.15964e-14 0)
(1 1.03014e-14 0)
(1 1.33069e-14 0)
(1 1.22576e-14 0)
(1 1.71071e-14 0)
(1 4.06935e-15 0)
(1 -5.56419e-16 0)
(1 -2.86552e-15 0)
(1 6.83304e-16 0)
(1 -3.20436e-15 0)
(1 -5.35443e-15 0)
(1 -4.99993e-15 0)
(1 2.88209e-15 0)
(1 -1.16948e-15 0)
(1 1.33026e-16 0)
(1 7.21126e-15 0)
(1 8.7331e-15 0)
(1 8.6545e-16 0)
(1 9.51278e-16 0)
(1 -4.45787e-15 0)
(1 2.03305e-15 0)
(1 -6.48539e-15 0)
(1 8.74903e-15 0)
(1 3.42495e-15 0)
(1 1.01349e-14 0)
(1 6.96271e-15 0)
(1 -7.28328e-15 0)
(1 -4.85184e-15 0)
(1 -6.35937e-15 0)
(1 -2.54964e-15 0)
(1 -7.88096e-15 0)
(1 -1.66268e-15 0)
(1 3.19925e-15 0)
(1 -1.3987e-15 0)
(1 -5.0616e-16 0)
(1 -5.18947e-15 0)
(1 -8.84749e-15 0)
(1 -5.51704e-17 0)
(1 1.84672e-15 0)
(1 7.81566e-15 0)
(1 1.83071e-15 0)
(1 7.19872e-15 0)
(1 -4.23885e-15 0)
(1 -2.12305e-15 0)
(1 -3.13853e-15 0)
(1 -1.97991e-16 0)
(1 2.3846e-15 0)
(1 -1.00868e-14 0)
(1 -1.09481e-14 0)
(1 -2.65936e-15 0)
(1 1.03197e-14 0)
(1 4.98956e-15 0)
(1 2.44036e-14 0)
(1 1.66433e-14 0)
(1 1.35725e-14 0)
(1 2.85749e-15 0)
(1 5.01898e-15 0)
(1 -3.95818e-15 0)
(1 -2.2132e-16 0)
(1 2.20398e-16 0)
(1 1.03771e-17 0)
(1 1.81648e-16 0)
(1 2.39994e-15 0)
(1 4.58443e-16 0)
(1 -2.06802e-15 0)
(1 -5.92836e-15 0)
(1 8.98942e-16 0)
(1 5.04889e-15 0)
(1 1.63475e-14 0)
(1 1.12459e-14 0)
(1 7.39828e-15 0)
(1 6.73718e-15 0)
(1 8.38595e-15 0)
(1 3.14852e-16 0)
(1 1.13046e-15 0)
(1 4.11836e-15 0)
(1 -1.65073e-15 0)
(1 8.71091e-15 0)
(1 8.05659e-15 0)
(1 3.45928e-15 0)
(1 2.25997e-15 0)
(1 2.4654e-15 0)
(1 1.89309e-15 0)
(1 -2.01712e-15 0)
(1 7.20299e-15 0)
(1 8.34238e-15 0)
(1 1.29285e-14 0)
(1 5.96258e-15 0)
(1 4.61713e-15 0)
(1 1.50292e-15 0)
(1 4.91613e-15 0)
(1 3.37341e-15 0)
(1 8.14907e-15 0)
(1 4.09074e-15 0)
(1 5.71593e-15 0)
(1 6.97514e-15 0)
(1 3.87271e-15 0)
(1 -2.29377e-15 0)
(1 4.79645e-15 0)
(1 1.71401e-15 0)
(1 7.39394e-15 0)
(1 9.69687e-15 0)
(1 8.88765e-15 0)
(1 5.65492e-15 0)
(1 9.91414e-15 0)
(1 -4.73494e-17 0)
(1 4.83028e-15 0)
(1 -4.24302e-15 0)
(1 -6.74161e-15 0)
(1 -1.40202e-15 0)
(1 -3.67671e-15 0)
(1 -2.8313e-15 0)
(1 8.13099e-16 0)
(1 4.71627e-15 0)
(1 5.54628e-15 0)
(1 8.53629e-15 0)
(1 1.18503e-15 0)
(1 -5.87275e-15 0)
(1 -6.18602e-16 0)
(1 -4.44738e-15 0)
(1 3.74375e-15 0)
(1 -4.26542e-15 0)
(1 2.4343e-15 0)
(1 -6.0875e-15 0)
(1 9.47805e-15 0)
(1 -5.0285e-15 0)
(1 3.24569e-15 0)
(1 -9.28868e-15 0)
(1 -6.45579e-16 0)
(1 8.29659e-15 0)
(1 3.11708e-15 0)
(1 -3.31567e-16 0)
(1 -2.84453e-15 0)
(1 -5.2485e-15 0)
(1 -9.29651e-16 0)
(1 -1.92035e-15 0)
(1 -2.05434e-15 0)
(1 -3.34158e-15 0)
(1 -6.45736e-15 0)
(1 5.57819e-15 0)
(1 1.10682e-14 0)
(1 6.31172e-15 0)
(1 -1.70949e-15 0)
(1 -3.90911e-15 0)
(1 -1.03544e-14 0)
(1 -6.48322e-15 0)
(1 -3.42081e-15 0)
(1 -4.59831e-15 0)
(1 1.95616e-15 0)
(1 1.2234e-14 0)
(1 1.09802e-14 0)
(1 1.29044e-14 0)
(1 6.63784e-15 0)
(1 3.85883e-15 0)
(1 3.97236e-15 0)
(1 -1.47417e-15 0)
(1 3.87743e-15 0)
(1 -1.97275e-15 0)
(1 5.12503e-15 0)
(1 1.08881e-15 0)
(1 8.0584e-15 0)
(1 1.40706e-14 0)
(1 1.40351e-14 0)
(1 -1.52238e-15 0)
(1 3.35854e-15 0)
(1 -8.90099e-15 0)
(1 2.19134e-15 0)
(1 -4.48128e-15 0)
(1 8.45799e-15 0)
(1 -3.43619e-15 0)
(1 1.13762e-14 0)
(1 1.08063e-14 0)
(1 1.19662e-14 0)
(1 -6.97437e-16 0)
(1 1.77132e-15 0)
(1 1.04975e-15 0)
(1 1.48171e-15 0)
(1 9.56581e-15 0)
(1 1.44572e-14 0)
(1 3.71175e-15 0)
(1 5.14724e-15 0)
(1 7.10302e-15 0)
(1 1.47711e-14 0)
(1 1.3369e-14 0)
(1 7.38197e-15 0)
(1 4.14762e-15 0)
(1 7.73783e-15 0)
(1 3.14356e-15 0)
(1 -1.53041e-15 0)
(1 4.38782e-15 0)
(1 1.11827e-14 0)
(1 3.77065e-15 0)
(1 9.12462e-15 0)
(1 5.65531e-15 0)
(1 1.05946e-14 0)
(1 7.26103e-15 0)
(1 6.76778e-15 0)
(1 2.8568e-15 0)
(1 -1.95547e-15 0)
(1 -4.67056e-15 0)
(1 3.59402e-15 0)
(1 1.33927e-14 0)
(1 1.33266e-14 0)
(1 8.93405e-15 0)
(1 9.17482e-15 0)
(1 2.58442e-15 0)
(1 -1.43573e-15 0)
(1 2.17142e-15 0)
(1 -7.0694e-15 0)
(1 1.09529e-15 0)
(1 -4.28171e-15 0)
(1 1.17131e-16 0)
(1 -1.14587e-14 0)
(1 2.9297e-16 0)
(1 5.14665e-15 0)
(1 9.73916e-16 0)
(1 3.18843e-15 0)
(1 4.3852e-15 0)
(1 9.88769e-16 0)
(1 4.16191e-15 0)
(1 -5.21822e-15 0)
(1 -4.56056e-16 0)
(1 -1.3758e-14 0)
(1 -2.86436e-15 0)
(1 6.15456e-16 0)
(1 -4.90045e-15 0)
(1 3.98765e-15 0)
(1 6.03337e-15 0)
(1 8.84207e-15 0)
(1 9.89856e-15 0)
(1 9.07978e-15 0)
(1 3.52884e-15 0)
(1 -6.06632e-15 0)
(1 -7.82657e-15 0)
(1 -4.62342e-15 0)
(1 -1.15221e-15 0)
(1 5.50258e-16 0)
(1 1.06783e-15 0)
(1 -5.5581e-16 0)
(1 1.8994e-15 0)
(1 1.32754e-15 0)
(1 -4.17996e-15 0)
(1 1.61105e-15 0)
(1 -2.73341e-15 0)
(1 -7.28608e-15 0)
(1 -8.19712e-15 0)
(1 -8.32199e-15 0)
(1 5.5334e-15 0)
(1 1.27291e-14 0)
(1 6.91829e-15 0)
(1 8.52136e-15 0)
(1 9.47396e-15 0)
(1 -4.37017e-15 0)
(1 -6.40788e-15 0)
(1 2.85573e-16 0)
(1 6.51291e-15 0)
(1 5.5956e-15 0)
(1 5.80471e-15 0)
(1 9.01832e-15 0)
(1 9.14279e-15 0)
(1 9.07515e-15 0)
(1 1.02549e-14 0)
(1 7.15646e-15 0)
(1 8.295e-15 0)
(1 6.12861e-15 0)
(1 2.52554e-15 0)
(1 6.06447e-16 0)
(1 1.97098e-16 0)
(1 -2.59575e-15 0)
(1 3.47188e-15 0)
(1 3.9966e-15 0)
(1 1.48385e-14 0)
(1 1.43499e-14 0)
(1 9.7098e-15 0)
(1 7.46456e-15 0)
(1 3.96126e-15 0)
(1 5.3515e-15 0)
(1 7.81918e-15 0)
(1 1.19369e-14 0)
(1 6.25856e-15 0)
(1 8.4985e-15 0)
(1 6.388e-15 0)
(1 6.06435e-15 0)
(1 9.27694e-15 0)
(1 7.58077e-15 0)
(1 1.10984e-14 0)
(1 5.62573e-15 0)
(1 -1.36647e-16 0)
(1 3.69565e-15 0)
(1 3.037e-15 0)
(1 -7.84829e-16 0)
(1 2.72837e-15 0)
(1 1.56149e-15 0)
(1 3.55646e-15 0)
(1 6.73738e-15 0)
(1 2.09368e-15 0)
(1 5.32064e-15 0)
(1 6.73594e-15 0)
(1 3.93096e-15 0)
(1 6.62135e-15 0)
(1 7.56125e-16 0)
(1 1.04805e-14 0)
(1 1.14398e-14 0)
(1 1.19207e-14 0)
(1 1.15024e-14 0)
(1 -1.5255e-15 0)
(1 -3.30919e-15 0)
(1 -2.56199e-15 0)
(1 -2.2332e-15 0)
(1 7.47682e-15 0)
(1 4.59248e-15 0)
(1 1.49257e-14 0)
(1 4.30116e-15 0)
(1 -1.6563e-15 0)
(1 -1.25275e-14 0)
(1 -1.11603e-14 0)
(1 -1.74856e-15 0)
(1 -3.32996e-15 0)
(1 -1.14129e-15 0)
(1 2.67381e-15 0)
(1 -8.04085e-15 0)
(1 -2.22165e-15 0)
(1 -2.81313e-15 0)
(1 -2.39747e-15 0)
(1 -3.64206e-15 0)
(1 7.21331e-15 0)
(1 4.07501e-16 0)
(1 6.99272e-15 0)
(1 8.75865e-16 0)
(1 -1.81688e-15 0)
(1 -4.78739e-15 0)
(1 -4.20153e-15 0)
(1 -7.7347e-15 0)
(1 -7.0987e-15 0)
(1 -9.09211e-15 0)
(1 1.78778e-15 0)
(1 5.50262e-15 0)
(1 6.4145e-15 0)
(1 4.49027e-15 0)
(1 7.26482e-16 0)
(1 2.90526e-15 0)
(1 -5.54321e-15 0)
(1 2.50219e-16 0)
(1 -1.80588e-15 0)
(1 1.1116e-15 0)
(1 -9.98661e-15 0)
(1 -4.61966e-15 0)
(1 1.41007e-14 0)
(1 5.74453e-15 0)
(1 6.61844e-15 0)
(1 -8.50526e-16 0)
(1 4.84192e-15 0)
(1 8.53936e-17 0)
(1 -2.18337e-15 0)
(1 -1.63264e-16 0)
(1 9.89472e-15 0)
(1 8.03285e-15 0)
(1 7.98966e-15 0)
(1 1.42458e-15 0)
(1 3.49729e-15 0)
(1 3.71936e-15 0)
(1 2.31691e-15 0)
(1 1.69001e-15 0)
(1 8.64753e-15 0)
(1 -2.70795e-15 0)
(1 -3.39066e-16 0)
(1 3.05418e-16 0)
(1 8.90785e-16 0)
(1 -9.30522e-16 0)
(1 5.10994e-15 0)
(1 -2.33613e-15 0)
(1 -2.63379e-15 0)
(1 -1.49821e-15 0)
(1 7.44174e-15 0)
(1 2.66171e-15 0)
(1 6.0688e-15 0)
(1 7.05118e-15 0)
(1 1.48683e-14 0)
(1 1.09214e-14 0)
(1 1.16036e-14 0)
(1 7.79161e-15 0)
(1 2.40168e-15 0)
(1 1.87394e-15 0)
(1 4.66174e-15 0)
(1 1.15672e-14 0)
(1 4.69889e-15 0)
(1 9.17412e-15 0)
(1 6.03268e-15 0)
(1 1.48956e-14 0)
(1 9.10747e-15 0)
(1 5.29024e-15 0)
(1 8.03068e-17 0)
(1 -4.9252e-15 0)
(1 -2.22622e-15 0)
(1 7.55598e-16 0)
(1 -2.47032e-15 0)
(1 2.50484e-15 0)
(1 3.81405e-15 0)
(1 4.66029e-15 0)
(1 1.1211e-14 0)
(1 9.74481e-15 0)
(1 6.47926e-15 0)