/*--------------------------------*- C++ -*----------------------------------*\
| =========                 |                                                 |
| \\      /  F ield         | OpenFOAM: The Open Source CFD Toolbox           |
|  \\    /   O peration     | Version:  v2012                                 |
|   \\  /    A nd           | Website:  www.openfoam.com                      |
|    \\/     M anipulation  |                                                 |
\*---------------------------------------------------------------------------*/
FoamFile
{
    version     2.0;
    format      ascii;
    class       volScalarField;
    location    "2.25";
    object      Psi_z;
}
// * * * * * * * * * * * * * * * * * * * * * * * * * * * * * * * * * * * * * //

dimensions      [0 2 -1 0 0 0 0];


internalField   nonuniform List<scalar> 
65536
(
8.6944e-06
2.60826e-05
4.34692e-05
6.0853e-05
7.8233e-05
9.5608e-05
0.000112977
0.000130338
0.000147692
0.000165035
0.000182368
0.000199689
0.000216996
0.000234289
0.000251566
0.000268826
0.000286067
0.000303289
0.000320488
0.000337665
0.000354817
0.000371944
0.000389042
0.000406111
0.000423149
0.000440153
0.000457123
0.000474057
0.000490951
0.000507805
0.000524616
0.000541382
0.000558101
0.000574771
0.000591389
0.000607952
0.00062446
0.000640908
0.000657294
0.000673616
0.000689871
0.000706057
0.000722169
0.000738207
0.000754165
0.000770042
0.000785835
0.000801539
0.000817153
0.000832673
0.000848095
0.000863416
0.000878632
0.000893741
0.000908739
0.000923622
0.000938386
0.000953028
0.000967545
0.000981932
0.000996186
0.0010103
0.00102428
0.00103811
0.0010518
0.00106533
0.0010787
0.00109192
0.00110497
0.00111786
0.00113057
0.00114311
0.00115547
0.00116765
0.00117965
0.00119145
0.00120306
0.00121447
0.00122569
0.0012367
0.0012475
0.00125809
0.00126847
0.00127863
0.00128857
0.00129829
0.00130778
0.00131704
0.00132607
0.00133487
0.00134342
0.00135174
0.00135982
0.00136765
0.00137523
0.00138257
0.00138965
0.00139649
0.00140306
0.00140938
0.00141545
0.00142125
0.0014268
0.00143208
0.0014371
0.00144185
0.00144634
0.00145057
0.00145453
0.00145822
0.00146165
0.00146481
0.0014677
0.00147033
0.00147268
0.00147477
0.0014766
0.00147816
0.00147945
0.00148048
0.00148124
0.00148174
0.00148197
0.00148194
0.00148165
0.00148111
0.0014803
0.00147924
0.00147791
0.00147634
0.00147451
0.00147243
0.0014701
0.00146752
0.00146469
0.00146162
0.00145831
0.00145475
0.00145096
0.00144693
0.00144266
0.00143816
0.00143343
0.00142847
0.00142328
0.00141787
0.00141223
0.00140638
0.00140031
0.00139402
0.00138752
0.00138081
0.00137389
0.00136676
0.00135943
0.0013519
0.00134417
0.00133625
0.00132813
0.00131982
0.00131132
0.00130263
0.00129377
0.00128472
0.00127549
0.00126609
0.00125652
0.00124677
0.00123686
0.00122678
0.00121654
0.00120614
0.00119558
0.00118487
0.00117401
0.001163
0.00115184
0.00114053
0.00112909
0.00111751
0.00110579
0.00109394
0.00108196
0.00106985
0.00105761
0.00104526
0.00103278
0.00102018
0.00100748
0.000994654
0.000981722
0.000968684
0.00095554
0.000942295
0.00092895
0.000915508
0.000901972
0.000888343
0.000874624
0.000860818
0.000846927
0.000832953
0.000818899
0.000804766
0.000790558
0.000776276
0.000761922
0.0007475
0.00073301
0.000718455
0.000703837
0.000689158
0.00067442
0.000659625
0.000644775
0.000629871
0.000614917
0.000599913
0.000584861
0.000569764
0.000554622
0.000539438
0.000524213
0.000508949
0.000493647
0.000478309
0.000462937
0.000447531
0.000432094
0.000416627
0.000401131
0.000385608
0.000370058
0.000354484
0.000338886
0.000323266
0.000307625
0.000291964
0.000276285
0.000260588
0.000244874
0.000229146
0.000213403
0.000197647
0.000181879
0.0001661
0.000150311
0.000134513
0.000118706
0.000102893
8.70736e-05
7.12491e-05
5.54203e-05
3.95883e-05
2.37539e-05
7.91811e-06
2.60837e-05
7.82494e-05
0.00013041
0.000182563
0.000234704
0.00028683
0.000338937
0.000391023
0.000443084
0.000495116
0.000547116
0.000599079
0.000651003
0.000702883
0.000754716
0.000806496
0.000858222
0.000909887
0.000961487
0.00101302
0.00106448
0.00111586
0.00116715
0.00121836
0.00126948
0.00132049
0.00137141
0.00142221
0.00147289
0.00152346
0.00157389
0.00162419
0.00167435
0.00172436
0.00177422
0.00182391
0.00187344
0.00192278
0.00197195
0.00202091
0.00206968
0.00211824
0.00216658
0.0022147
0.00226258
0.00231021
0.00235759
0.00240471
0.00245155
0.00249811
0.00254438
0.00259035
0.002636
0.00268133
0.00272633
0.00277098
0.00281528
0.00285921
0.00290276
0.00294593
0.00298869
0.00303105
0.00307298
0.00311448
0.00315554
0.00319614
0.00323627
0.00327592
0.00331508
0.00335375
0.00339189
0.00342952
0.0034666
0.00350315
0.00353913
0.00357454
0.00360938
0.00364362
0.00367726
0.0037103
0.00374271
0.00377448
0.00380562
0.00383611
0.00386593
0.00389509
0.00392356
0.00395135
0.00397844
0.00400483
0.00403051
0.00405547
0.0040797
0.00410319
0.00412595
0.00414796
0.00416921
0.00418971
0.00420944
0.00422841
0.0042466
0.00426402
0.00428065
0.0042965
0.00431155
0.00432582
0.0043393
0.00435197
0.00436385
0.00437493
0.00438521
0.00439469
0.00440337
0.00441124
0.00441832
0.00442459
0.00443006
0.00443473
0.00443861
0.00444169
0.00444397
0.00444547
0.00444617
0.00444609
0.00444522
0.00444358
0.00444116
0.00443796
0.004434
0.00442927
0.00442378
0.00441754
0.00441055
0.00440281
0.00439433
0.00438511
0.00437517
0.0043645
0.00435312
0.00434102
0.00432822
0.00431471
0.00430052
0.00428563
0.00427007
0.00425383
0.00423692
0.00421936
0.00420114
0.00418227
0.00416277
0.00414263
0.00412186
0.00410048
0.00407849
0.0040559
0.00403271
0.00400893
0.00398457
0.00395964
0.00393414
0.00390809
0.00388148
0.00385433
0.00382665
0.00379844
0.00376972
0.00374048
0.00371074
0.0036805
0.00364978
0.00361858
0.0035869
0.00355477
0.00352217
0.00348914
0.00345566
0.00342175
0.00338741
0.00335266
0.00331751
0.00328195
0.003246
0.00320967
0.00317297
0.00313589
0.00309846
0.00306067
0.00302254
0.00298407
0.00294527
0.00290616
0.00286672
0.00282699
0.00278695
0.00274662
0.00270601
0.00266512
0.00262396
0.00258254
0.00254086
0.00249894
0.00245678
0.00241438
0.00237175
0.0023289
0.00228584
0.00224257
0.0021991
0.00215543
0.00211157
0.00206753
0.00202332
0.00197893
0.00193438
0.00188967
0.0018448
0.00179979
0.00175463
0.00170934
0.00166391
0.00161836
0.00157268
0.00152688
0.00148098
0.00143496
0.00138884
0.00134263
0.00129631
0.00124991
0.00120342
0.00115685
0.0011102
0.00106348
0.00101668
0.00096982
0.000922896
0.000875912
0.000828872
0.00078178
0.000734639
0.000687452
0.000640222
0.000592953
0.000545648
0.00049831
0.000450942
0.000403546
0.000356126
0.000308685
0.000261226
0.000213752
0.000166264
0.000118767
7.12631e-05
2.37548e-05
4.34747e-05
0.000130421
0.00021736
0.000304284
0.000391189
0.00047807
0.00056492
0.000651734
0.000738506
0.000825229
0.0009119
0.00099851
0.00108505
0.00117152
0.00125792
0.00134422
0.00143044
0.00151655
0.00160256
0.00168845
0.00177422
0.00185985
0.00194536
0.00203071
0.00211591
0.00220094
0.0022858
0.00237047
0.00245496
0.00253924
0.0026233
0.00270714
0.00279075
0.00287411
0.00295721
0.00304004
0.00312259
0.00320484
0.00328679
0.00336841
0.0034497
0.00353064
0.00361122
0.00369142
0.00377123
0.00385063
0.00392961
0.00400815
0.00408623
0.00416385
0.00424097
0.0043176
0.0043937
0.00446926
0.00454427
0.0046187
0.00469254
0.00476577
0.00483837
0.00491032
0.00498161
0.00505222
0.00512212
0.0051913
0.00525974
0.00532741
0.00539431
0.00546041
0.0055257
0.00559014
0.00565374
0.00571646
0.00577828
0.00583919
0.00589918
0.00595821
0.00601628
0.00607337
0.00612945
0.00618452
0.00623854
0.00629152
0.00634342
0.00639424
0.00644396
0.00649256
0.00654003
0.00658636
0.00663152
0.00667551
0.00671831
0.00675992
0.00680031
0.00683948
0.00687741
0.0069141
0.00694953
0.0069837
0.0070166
0.00704821
0.00707853
0.00710756
0.00713529
0.0071617
0.0071868
0.00721058
0.00723304
0.00725417
0.00727398
0.00729244
0.00730958
0.00732538
0.00733984
0.00735296
0.00736475
0.00737521
0.00738432
0.00739211
0.00739857
0.0074037
0.0074075
0.00740999
0.00741116
0.00741102
0.00740957
0.00740682
0.00740278
0.00739745
0.00739084
0.00738296
0.00737381
0.0073634
0.00735174
0.00733883
0.0073247
0.00730933
0.00729275
0.00727497
0.00725599
0.00723582
0.00721447
0.00719196
0.00716829
0.00714348
0.00711753
0.00709046
0.00706227
0.00703299
0.00700261
0.00697116
0.00693865
0.00690507
0.00687046
0.00683482
0.00679816
0.00676049
0.00672183
0.0066822
0.00664159
0.00660003
0.00655752
0.00651409
0.00646974
0.00642449
0.00637834
0.00633132
0.00628343
0.00623469
0.00618512
0.00613471
0.0060835
0.00603149
0.00597869
0.00592512
0.00587079
0.00581571
0.00575991
0.00570338
0.00564615
0.00558823
0.00552962
0.00547035
0.00541043
0.00534987
0.00528869
0.00522689
0.00516449
0.0051015
0.00503794
0.00497382
0.00490915
0.00484394
0.00477821
0.00471198
0.00464524
0.00457802
0.00451032
0.00444217
0.00437356
0.00430452
0.00423505
0.00416517
0.00409489
0.00402421
0.00395316
0.00388174
0.00380996
0.00373784
0.00366538
0.00359259
0.00351949
0.00344608
0.00337239
0.0032984
0.00322414
0.00314962
0.00307483
0.00299981
0.00292454
0.00284904
0.00277333
0.0026974
0.00262126
0.00254493
0.00246842
0.00239172
0.00231485
0.00223782
0.00216062
0.00208328
0.00200579
0.00192817
0.00185042
0.00177254
0.00169454
0.00161644
0.00153823
0.00145992
0.00138151
0.00130302
0.00122445
0.0011458
0.00106708
0.000988296
0.000909451
0.00083055
0.000751599
0.000672604
0.000593568
0.000514496
0.000435394
0.000356267
0.000277118
0.000197953
0.000118776
3.95929e-05
6.08684e-05
0.000182601
0.000304323
0.000426025
0.0005477
0.000669341
0.000790939
0.000912486
0.00103397
0.0011554
0.00127674
0.00139801
0.00151918
0.00164025
0.0017612
0.00188204
0.00200275
0.00212332
0.00224374
0.002364
0.00248408
0.00260399
0.0027237
0.00284321
0.0029625
0.00308156
0.00320037
0.00331893
0.00343722
0.00355523
0.00367294
0.00379033
0.0039074
0.00402412
0.00414047
0.00425645
0.00437204
0.00448721
0.00460196
0.00471625
0.00483007
0.00494341
0.00505624
0.00516854
0.00528029
0.00539148
0.00550207
0.00561205
0.00572139
0.00583007
0.00593807
0.00604537
0.00615193
0.00625774
0.00636278
0.00646701
0.00657041
0.00667295
0.00677462
0.00687538
0.00697522
0.00707409
0.00717198
0.00726885
0.00736469
0.00745947
0.00755316
0.00764572
0.00773715
0.0078274
0.00791646
0.00800429
0.00809087
0.00817617
0.00826018
0.00834285
0.00842418
0.00850412
0.00858266
0.00865977
0.00873544
0.00880962
0.00888231
0.00895348
0.00902311
0.00909117
0.00915765
0.00922253
0.00928577
0.00934738
0.00940732
0.00946558
0.00952214
0.009577
0.00963012
0.00968149
0.00973111
0.00977896
0.00982503
0.0098693
0.00991176
0.00995241
0.00999123
0.0100282
0.0100634
0.0100967
0.0101281
0.0101577
0.0101854
0.0102113
0.0102353
0.0102574
0.0102776
0.010296
0.0103125
0.0103272
0.0103399
0.0103508
0.0103599
0.010367
0.0103724
0.0103758
0.0103775
0.0103773
0.0103752
0.0103714
0.0103657
0.0103582
0.010349
0.0103379
0.0103251
0.0103105
0.0102942
0.0102761
0.0102563
0.0102348
0.0102115
0.0101866
0.01016
0.0101318
0.0101019
0.0100704
0.0100372
0.0100025
0.00996611
0.0099282
0.00988872
0.00984771
0.00980517
0.00976112
0.00971558
0.00966856
0.00962009
0.00957017
0.00951883
0.00946608
0.00941194
0.00935643
0.00929956
0.00924136
0.00918183
0.00912101
0.0090589
0.00899553
0.00893091
0.00886506
0.008798
0.00872974
0.00866032
0.00858974
0.00851802
0.00844518
0.00837124
0.00829623
0.00822015
0.00814302
0.00806488
0.00798572
0.00790558
0.00782447
0.0077424
0.00765941
0.0075755
0.0074907
0.00740502
0.00731848
0.0072311
0.0071429
0.0070539
0.00696411
0.00687356
0.00678225
0.00669022
0.00659746
0.00650401
0.00640989
0.0063151
0.00621966
0.0061236
0.00602692
0.00592965
0.0058318
0.00573339
0.00563443
0.00553494
0.00543493
0.00533443
0.00523344
0.00513198
0.00503007
0.00492771
0.00482493
0.00472174
0.00461815
0.00451417
0.00440982
0.00430511
0.00420006
0.00409467
0.00398897
0.00388295
0.00377664
0.00367004
0.00356317
0.00345604
0.00334865
0.00324102
0.00313316
0.00302508
0.00291679
0.0028083
0.00269962
0.00259075
0.00248172
0.00237252
0.00226316
0.00215365
0.00204401
0.00193424
0.00182435
0.00171434
0.00160422
0.00149401
0.0013837
0.00127331
0.00116284
0.0010523
0.000941701
0.000831044
0.000720337
0.000609588
0.000498803
0.000387988
0.00027715
0.000166297
5.54333e-05
7.82659e-05
0.000234793
0.000391305
0.000547792
0.000704245
0.000860654
0.00101701
0.0011733
0.00132951
0.00148564
0.00164167
0.0017976
0.0019534
0.00210908
0.00226461
0.00241999
0.0025752
0.00273024
0.00288508
0.00303972
0.00319414
0.00334832
0.00350226
0.00365593
0.00380932
0.00396242
0.00411521
0.00426767
0.00441978
0.00457152
0.00472289
0.00487385
0.00502439
0.00517448
0.00532412
0.00547326
0.0056219
0.00577001
0.00591757
0.00606455
0.00621093
0.00635668
0.00650179
0.00664621
0.00678993
0.00693291
0.00707514
0.00721658
0.0073572
0.00749697
0.00763587
0.00777386
0.00791092
0.008047
0.00818209
0.00831614
0.00844913
0.00858102
0.00871178
0.00884138
0.00896978
0.00909694
0.00922285
0.00934745
0.00947072
0.00959262
0.00971312
0.00983218
0.00994977
0.0100659
0.0101804
0.0102934
0.0104047
0.0105145
0.0106225
0.0107288
0.0108334
0.0109363
0.0110373
0.0111365
0.0112338
0.0113292
0.0114227
0.0115143
0.0116038
0.0116914
0.0117769
0.0118603
0.0119417
0.0120209
0.012098
0.0121729
0.0122457
0.0123162
0.0123846
0.0124506
0.0125145
0.012576
0.0126353
0.0126922
0.0127468
0.0127991
0.012849
0.0128966
0.0129418
0.0129846
0.0130251
0.0130631
0.0130988
0.013132
0.0131629
0.0131913
0.0132173
0.0132409
0.0132622
0.013281
0.0132974
0.0133114
0.013323
0.0133322
0.013339
0.0133435
0.0133456
0.0133453
0.0133427
0.0133377
0.0133304
0.0133208
0.0133089
0.0132946
0.0132781
0.0132594
0.0132383
0.0132151
0.0131896
0.0131619
0.013132
0.0131
0.0130658
0.0130294
0.0129909
0.0129504
0.0129077
0.012863
0.0128163
0.0127675
0.0127167
0.012664
0.0126092
0.0125526
0.012494
0.0124335
0.0123712
0.0123069
0.0122409
0.0121731
0.0121034
0.012032
0.0119589
0.011884
0.0118074
0.0117292
0.0116493
0.0115678
0.0114847
0.0114
0.0113138
0.011226
0.0111367
0.0110459
0.0109537
0.01086
0.0107649
0.0106684
0.0105705
0.0104714
0.0103709
0.010269
0.010166
0.0100617
0.00995612
0.00984938
0.00974147
0.0096324
0.00952221
0.00941092
0.00929854
0.00918511
0.00907065
0.00895518
0.00883872
0.00872129
0.00860293
0.00848365
0.00836347
0.00824242
0.00812052
0.00799778
0.00787424
0.00774992
0.00762483
0.00749899
0.00737244
0.00724518
0.00711723
0.00698863
0.00685938
0.00672951
0.00659904
0.00646798
0.00633636
0.00620419
0.00607149
0.00593828
0.00580457
0.00567038
0.00553574
0.00540065
0.00526513
0.0051292
0.00499288
0.00485617
0.0047191
0.00458167
0.00444391
0.00430582
0.00416742
0.00402873
0.00388975
0.00375051
0.003611
0.00347125
0.00333127
0.00319106
0.00305064
0.00291003
0.00276922
0.00262824
0.00248709
0.00234578
0.00220433
0.00206274
0.00192102
0.00177919
0.00163724
0.0014952
0.00135307
0.00121086
0.00106857
0.000926221
0.000783818
0.000641368
0.000498881
0.000356364
0.000213827
7.1277e-05
9.56683e-05
0.000286999
0.000478312
0.000669595
0.000860835
0.00105202
0.00124314
0.00143418
0.00162513
0.00181598
0.00200671
0.0021973
0.00238776
0.00257805
0.00276817
0.00295811
0.00314784
0.00333735
0.00352663
0.00371566
0.00390442
0.0040929
0.00428107
0.00446893
0.00465644
0.0048436
0.00503037
0.00521674
0.00540269
0.0055882
0.00577324
0.00595779
0.00614182
0.00632531
0.00650824
0.00669058
0.0068723
0.00705337
0.00723376
0.00741346
0.00759242
0.00777061
0.00794801
0.00812458
0.00830029
0.00847511
0.008649
0.00882193
0.00899386
0.00916476
0.00933458
0.0095033
0.00967088
0.00983727
0.0100024
0.0101663
0.010329
0.0104902
0.0106501
0.0108086
0.0109656
0.0111211
0.011275
0.0114274
0.0115781
0.0117272
0.0118745
0.0120201
0.0121639
0.0123058
0.0124459
0.0125841
0.0127202
0.0128544
0.0129865
0.0131166
0.0132445
0.0133702
0.0134938
0.0136151
0.0137341
0.0138508
0.0139651
0.014077
0.0141866
0.0142936
0.0143982
0.0145002
0.0145997
0.0146966
0.0147909
0.0148825
0.0149714
0.0150577
0.0151413
0.0152221
0.0153001
0.0153754
0.0154478
0.0155174
0.0155842
0.0156481
0.0157092
0.0157673
0.0158226
0.0158749
0.0159244
0.0159709
0.0160145
0.0160551
0.0160928
0.0161276
0.0161594
0.0161883
0.0162142
0.0162372
0.0162572
0.0162744
0.0162885
0.0162998
0.0163081
0.0163136
0.0163161
0.0163157
0.0163125
0.0163064
0.0162975
0.0162857
0.0162711
0.0162537
0.0162335
0.0162105
0.0161848
0.0161563
0.0161251
0.0160912
0.0160547
0.0160155
0.0159736
0.0159292
0.0158821
0.0158325
0.0157803
0.0157256
0.0156684
0.0156088
0.0155467
0.0154822
0.0154152
0.0153459
0.0152743
0.0152003
0.0151241
0.0150456
0.0149648
0.0148818
0.0147967
0.0147093
0.0146199
0.0145284
0.0144347
0.0143391
0.0142414
0.0141417
0.0140401
0.0139365
0.013831
0.0137237
0.0136145
0.0135035
0.0133907
0.0132762
0.0131599
0.0130419
0.0129223
0.012801
0.0126781
0.0125536
0.0124276
0.0123001
0.012171
0.0120405
0.0119086
0.0117752
0.0116405
0.0115044
0.011367
0.0112284
0.0110884
0.0109472
0.0108048
0.0106613
0.0105166
0.0103707
0.0102238
0.0100758
0.00992676
0.00977671
0.00962568
0.00947368
0.00932075
0.00916691
0.00901219
0.0088566
0.00870019
0.00854297
0.00838496
0.00822619
0.00806669
0.00790647
0.00774556
0.00758398
0.00742175
0.0072589
0.00709545
0.00693141
0.00676681
0.00660167
0.006436
0.00626983
0.00610318
0.00593606
0.0057685
0.00560051
0.0054321
0.0052633
0.00509412
0.00492458
0.00475469
0.00458448
0.00441395
0.00424312
0.004072
0.00390061
0.00372897
0.00355708
0.00338497
0.00321263
0.0030401
0.00286737
0.00269446
0.00252138
0.00234815
0.00217478
0.00200128
0.00182765
0.00165392
0.00148008
0.00130616
0.00113216
0.000958094
0.000783971
0.000609803
0.000435599
0.000261369
8.71248e-05
0.000113077
0.000339223
0.000565349
0.000791439
0.00101748
0.00124346
0.00146936
0.00169516
0.00192086
0.00214644
0.00237187
0.00259716
0.00282227
0.0030472
0.00327192
0.00349642
0.00372069
0.0039447
0.00416843
0.00439187
0.00461499
0.00483778
0.00506021
0.00528227
0.00550392
0.00572515
0.00594593
0.00616624
0.00638605
0.00660534
0.00682408
0.00704224
0.00725979
0.00747671
0.00769296
0.00790851
0.00812334
0.0083374
0.00855066
0.0087631
0.00897467
0.00918533
0.00939506
0.00960382
0.00981155
0.0100182
0.0102238
0.0104283
0.0106316
0.0108336
0.0110344
0.0112339
0.011432
0.0116288
0.011824
0.0120178
0.0122101
0.0124008
0.0125899
0.0127772
0.0129629
0.0131467
0.0133288
0.0135089
0.0136872
0.0138634
0.0140377
0.0142098
0.0143799
0.0145477
0.0147134
0.0148767
0.0150378
0.0151964
0.0153527
0.0155064
0.0156577
0.0158064
0.0159525
0.0160959
0.0162367
0.0163746
0.0165099
0.0166422
0.0167717
0.0168983
0.017022
0.0171426
0.0172603
0.0173749
0.0174863
0.0175947
0.0176999
0.0178019
0.0179007
0.0179962
0.0180885
0.0181775
0.0182632
0.0183455
0.0184244
0.0185
0.0185722
0.0186409
0.0187063
0.0187682
0.0188266
0.0188816
0.0189331
0.0189812
0.0190258
0.0190668
0.0191044
0.0191386
0.0191692
0.0191964
0.01922
0.0192402
0.019257
0.0192703
0.0192801
0.0192865
0.0192895
0.019289
0.0192852
0.0192779
0.0192673
0.0192534
0.0192361
0.0192155
0.0191916
0.0191644
0.0191339
0.0191002
0.0190633
0.0190232
0.01898
0.0189336
0.0188841
0.0188315
0.0187758
0.0187171
0.0186554
0.0185907
0.0185231
0.0184525
0.0183791
0.0183028
0.0182236
0.0181417
0.0180569
0.0179695
0.0178793
0.0177864
0.0176909
0.0175928
0.0174921
0.0173888
0.017283
0.0171748
0.0170641
0.0169509
0.0168354
0.0167176
0.0165974
0.0164749
0.0163502
0.0162233
0.0160942
0.0159629
0.0158296
0.0156941
0.0155566
0.0154171
0.0152757
0.0151323
0.014987
0.0148398
0.0146908
0.01454
0.0143874
0.0142331
0.0140771
0.0139194
0.0137601
0.0135993
0.0134368
0.0132729
0.0131074
0.0129405
0.0127721
0.0126024
0.0124313
0.0122589
0.0120852
0.0119102
0.011734
0.0115566
0.0113781
0.0111984
0.0110176
0.0108357
0.0106528
0.0104689
0.010284
0.0100981
0.0099113
0.00972361
0.00953505
0.00934564
0.00915542
0.00896441
0.00877264
0.00858013
0.00838691
0.00819299
0.00799842
0.0078032
0.00760737
0.00741095
0.00721395
0.00701641
0.00681833
0.00661975
0.00642069
0.00622116
0.00602118
0.00582078
0.00561997
0.00541877
0.00521719
0.00501527
0.00481301
0.00461042
0.00440754
0.00420437
0.00400093
0.00379723
0.00359329
0.00338913
0.00318476
0.00298019
0.00277543
0.00257051
0.00236543
0.00216021
0.00195486
0.00174939
0.00154383
0.00133816
0.00113243
0.00092662
0.00072076
0.000514859
0.000308927
0.000102978
0.000130492
0.000391469
0.000652421
0.000913332
0.00117419
0.00143497
0.00169566
0.00195625
0.00221671
0.00247703
0.00273719
0.00299718
0.00325697
0.00351655
0.00377589
0.00403498
0.0042938
0.00455232
0.00481052
0.00506839
0.0053259
0.00558302
0.00583973
0.00609601
0.00635182
0.00660715
0.00686197
0.00711624
0.00736994
0.00762304
0.0078755
0.0081273
0.00837841
0.00862877
0.00887838
0.00912718
0.00937514
0.00962222
0.00986839
0.0101136
0.0103578
0.010601
0.0108431
0.0110841
0.0113239
0.0115625
0.0117998
0.0120358
0.0122705
0.0125037
0.0127355
0.0129658
0.0131946
0.0134217
0.0136471
0.0138709
0.0140929
0.014313
0.0145313
0.0147476
0.0149619
0.0151742
0.0153844
0.0155924
0.0157982
0.0160017
0.0162029
0.0164017
0.016598
0.0167918
0.0169831
0.0171717
0.0173576
0.0175408
0.0177213
0.0178988
0.0180735
0.0182452
0.0184139
0.0185795
0.018742
0.0189013
0.0190574
0.0192103
0.0193598
0.019506
0.0196488
0.0197881
0.0199239
0.0200562
0.020185
0.0203101
0.0204315
0.0205493
0.0206634
0.0207737
0.0208802
0.020983
0.0210819
0.0211769
0.021268
0.0213553
0.0214386
0.021518
0.0215934
0.0216649
0.0217323
0.0217958
0.0218553
0.0219107
0.0219622
0.0220096
0.022053
0.0220923
0.0221277
0.022159
0.0221863
0.0222096
0.0222289
0.0222442
0.0222555
0.0222629
0.0222663
0.0222657
0.0222612
0.0222529
0.0222406
0.0222244
0.0222044
0.0221806
0.0221529
0.0221215
0.0220863
0.0220474
0.0220047
0.0219584
0.0219084
0.0218548
0.0217976
0.0217369
0.0216726
0.0216048
0.0215335
0.0214588
0.0213807
0.0212992
0.0212143
0.0211262
0.0210348
0.0209401
0.0208423
0.0207413
0.0206371
0.0205299
0.0204196
0.0203063
0.02019
0.0200708
0.0199486
0.0198236
0.0196958
0.0195652
0.0194318
0.0192957
0.019157
0.0190156
0.0188716
0.018725
0.018576
0.0184244
0.0182705
0.0181141
0.0179554
0.0177943
0.017631
0.0174654
0.0172977
0.0171278
0.0169558
0.0167816
0.0166055
0.0164274
0.0162473
0.0160653
0.0158814
0.0156957
0.0155081
0.0153188
0.0151278
0.0149352
0.0147408
0.0145449
0.0143474
0.0141484
0.0139478
0.0137459
0.0135425
0.0133377
0.0131316
0.0129242
0.0127155
0.0125055
0.0122944
0.0120821
0.0118687
0.0116541
0.0114385
0.0112219
0.0110042
0.0107856
0.0105661
0.0103456
0.0101243
0.00990207
0.00967905
0.00945524
0.00923067
0.00900536
0.00877934
0.00855263
0.00832527
0.00809728
0.00786867
0.00763949
0.00740974
0.00717946
0.00694867
0.00671738
0.00648563
0.00625342
0.00602079
0.00578775
0.00555433
0.00532054
0.0050864
0.00485193
0.00461714
0.00438207
0.00414672
0.0039111
0.00367525
0.00343917
0.00320288
0.00296639
0.00272973
0.0024929
0.00225592
0.00201881
0.00178158
0.00154425
0.00130682
0.00106932
0.00083176
0.000594149
0.000356503
0.000118837
0.000147916
0.000443738
0.000739533
0.00103528
0.00133097
0.00162657
0.00192207
0.00221746
0.0025127
0.00280779
0.00310269
0.0033974
0.00369188
0.00398613
0.00428011
0.00457381
0.0048672
0.00516026
0.00545296
0.00574528
0.00603719
0.00632867
0.00661968
0.00691021
0.00720021
0.00748967
0.00777855
0.00806681
0.00835443
0.00864137
0.00892759
0.00921306
0.00949775
0.00978161
0.0100646
0.0103467
0.0106278
0.010908
0.0111871
0.0114651
0.011742
0.0120177
0.0122922
0.0125655
0.0128374
0.0131079
0.0133771
0.0136447
0.0139108
0.0141753
0.0144382
0.0146993
0.0149587
0.0152163
0.015472
0.0157257
0.0159774
0.0162271
0.0164746
0.01672
0.0169631
0.0172038
0.0174422
0.0176781
0.0179115
0.0181424
0.0183705
0.018596
0.0188187
0.0190385
0.0192554
0.0194694
0.0196803
0.0198881
0.0200927
0.0202941
0.0204922
0.020687
0.0208783
0.0210662
0.0212505
0.0214312
0.0216083
0.0217817
0.0219513
0.0221171
0.022279
0.0224371
0.0225911
0.0227412
0.0228872
0.0230291
0.0231669
0.0233005
0.0234298
0.0235549
0.0236758
0.0237923
0.0239044
0.0240122
0.0241156
0.0242145
0.024309
0.024399
0.0244845
0.0245656
0.024642
0.024714
0.0247814
0.0248443
0.0249026
0.0249563
0.0250055
0.0250501
0.0250902
0.0251257
0.0251566
0.025183
0.0252048
0.0252221
0.0252349
0.0252432
0.025247
0.0252463
0.0252412
0.0252317
0.0252177
0.0251993
0.0251766
0.0251495
0.0251181
0.0250824
0.0250424
0.0249982
0.0249498
0.0248972
0.0248405
0.0247797
0.0247148
0.0246458
0.0245729
0.0244959
0.024415
0.0243303
0.0242416
0.0241492
0.0240529
0.0239529
0.0238492
0.0237418
0.0236308
0.0235162
0.0233981
0.0232765
0.0231513
0.0230228
0.0228909
0.0227557
0.0226171
0.0224753
0.0223303
0.0221822
0.0220309
0.0218766
0.0217192
0.0215588
0.0213955
0.0212293
0.0210603
0.0208884
0.0207138
0.0205364
0.0203564
0.0201738
0.0199886
0.0198008
0.0196106
0.0194179
0.0192228
0.0190254
0.0188256
0.0186236
0.0184194
0.018213
0.0180045
0.0177938
0.0175812
0.0173666
0.01715
0.0169315
0.0167111
0.016489
0.016265
0.0160393
0.015812
0.0155829
0.0153523
0.0151201
0.0148864
0.0146512
0.0144146
0.0141766
0.0139372
0.0136965
0.0134545
0.0132113
0.0129668
0.0127212
0.0124744
0.0122266
0.0119776
0.0117277
0.0114767
0.0112248
0.010972
0.0107183
0.0104637
0.0102082
0.00995199
0.00969498
0.00943722
0.00917875
0.0089196
0.00865978
0.00839933
0.00813828
0.00787664
0.00761445
0.00735173
0.00708851
0.0068248
0.00656063
0.00629602
0.006031
0.00576558
0.0054998
0.00523366
0.00496718
0.0047004
0.00443332
0.00416597
0.00389836
0.00363052
0.00336245
0.00309419
0.00282574
0.00255712
0.00228835
0.00201944
0.00175042
0.0014813
0.00121209
0.000942808
0.000673473
0.000404099
0.000134702
0.000165348
0.000496035
0.000826691
0.0011573
0.00148783
0.00181828
0.00214861
0.00247881
0.00280885
0.00313872
0.00346839
0.00379784
0.00412704
0.00445598
0.00478462
0.00511295
0.00544094
0.00576855
0.00609577
0.00642257
0.00674891
0.00707478
0.00740012
0.00772493
0.00804915
0.00837277
0.00869574
0.00901803
0.0093396
0.00966041
0.00998043
0.0102996
0.0106179
0.0109353
0.0112517
0.0115671
0.0118815
0.0121947
0.0125068
0.0128177
0.0131274
0.0134357
0.0137427
0.0140482
0.0143523
0.0146548
0.0149558
0.0152551
0.0155527
0.0158485
0.0161425
0.0164346
0.0167247
0.0170128
0.0172987
0.0175825
0.0178641
0.0181433
0.0184202
0.0186946
0.0189665
0.0192358
0.0195025
0.0197664
0.0200274
0.0202856
0.0205409
0.0207931
0.0210422
0.0212881
0.0215307
0.0217701
0.022006
0.0222385
0.0224674
0.0226927
0.0229143
0.0231322
0.0233462
0.0235564
0.0237626
0.0239648
0.0241629
0.0243568
0.0245466
0.024732
0.0249132
0.02509
0.0252623
0.0254302
0.0255935
0.0257523
0.0259064
0.0260558
0.0262005
0.0263405
0.0264756
0.0266059
0.0267314
0.0268519
0.0269675
0.0270782
0.0271839
0.0272845
0.0273802
0.0274708
0.0275563
0.0276368
0.0277121
0.0277824
0.0278476
0.0279077
0.0279626
0.0280125
0.0280572
0.0280969
0.0281314
0.0281609
0.0281853
0.0282046
0.0282188
0.028228
0.0282322
0.0282314
0.0282256
0.0282149
0.0281992
0.0281786
0.0281531
0.0281227
0.0280875
0.0280475
0.0280028
0.0279533
0.0278991
0.0278402
0.0277767
0.0277086
0.0276359
0.0275588
0.0274771
0.027391
0.0273005
0.0272056
0.0271064
0.0270029
0.0268952
0.0267833
0.0266673
0.0265471
0.0264229
0.0262947
0.0261626
0.0260265
0.0258865
0.0257427
0.0255951
0.0254438
0.0252889
0.0251302
0.0249681
0.0248023
0.0246331
0.0244604
0.0242844
0.024105
0.0239223
0.0237364
0.0235473
0.0233551
0.0231598
0.0229614
0.0227601
0.0225558
0.0223487
0.0221387
0.0219259
0.0217104
0.0214922
0.0212714
0.021048
0.0208221
0.0205936
0.0203628
0.0201296
0.0198941
0.0196563
0.0194162
0.019174
0.0189297
0.0186832
0.0184348
0.0181843
0.017932
0.0176777
0.0174216
0.0171637
0.0169041
0.0166427
0.0163798
0.0161152
0.015849
0.0155813
0.0153122
0.0150416
0.0147696
0.0144962
0.0142216
0.0139457
0.0136686
0.0133902
0.0131108
0.0128302
0.0125485
0.0122658
0.0119821
0.0116975
0.0114119
0.0111254
0.0108381
0.0105499
0.0102609
0.00997118
0.00968071
0.00938953
0.00909768
0.00880518
0.00851206
0.00821835
0.00792407
0.00762926
0.00733394
0.00703813
0.00674186
0.00644514
0.00614802
0.0058505
0.00555261
0.00525437
0.00495581
0.00465694
0.00435779
0.00405838
0.00375872
0.00345883
0.00315874
0.00285846
0.00255802
0.00225743
0.0019567
0.00165586
0.00135492
0.00105391
0.000752836
0.000451719
0.000150576
0.000182791
0.000548362
0.0009139
0.00127938
0.00164479
0.00201009
0.00237527
0.00274031
0.00310518
0.00346985
0.00383431
0.00419852
0.00456246
0.00492612
0.00528945
0.00565243
0.00601504
0.00637724
0.00673901
0.00710032
0.00746112
0.0078214
0.00818111
0.00854023
0.00889871
0.00925651
0.00961361
0.00996996
0.0103255
0.0106803
0.0110341
0.011387
0.011739
0.01209
0.0124399
0.0127886
0.0131363
0.0134827
0.0138278
0.0141716
0.014514
0.014855
0.0151945
0.0155324
0.0158687
0.0162034
0.0165362
0.0168672
0.0171964
0.0175236
0.0178487
0.0181718
0.0184927
0.0188113
0.0191277
0.0194416
0.019753
0.0200619
0.0203682
0.0206718
0.0209726
0.0212705
0.0215655
0.0218574
0.0221462
0.0224319
0.0227143
0.0229933
0.0232689
0.0235409
0.0238094
0.0240742
0.0243352
0.0245924
0.0248457
0.0250949
0.0253401
0.0255812
0.025818
0.0260505
0.0262787
0.0265024
0.0267216
0.0269362
0.0271461
0.0273513
0.0275518
0.0277473
0.027938
0.0281237
0.0283044
0.0284801
0.0286506
0.0288159
0.028976
0.0291308
0.0292803
0.0294245
0.0295632
0.0296966
0.0298244
0.0299468
0.0300637
0.0301751
0.0302808
0.030381
0.0304756
0.0305646
0.0306479
0.0307256
0.0307977
0.0308641
0.0309248
0.0309799
0.0310294
0.0310732
0.0311113
0.0311439
0.0311708
0.0311921
0.0312078
0.0312179
0.0312225
0.0312215
0.031215
0.031203
0.0311856
0.0311627
0.0311344
0.0311008
0.0310618
0.0310175
0.0309679
0.030913
0.030853
0.0307878
0.0307175
0.0306421
0.0305616
0.0304762
0.0303858
0.0302905
0.0301903
0.0300852
0.0299755
0.0298609
0.0297417
0.0296179
0.0294895
0.0293565
0.0292191
0.0290772
0.0289309
0.0287804
0.0286255
0.0284664
0.0283031
0.0281357
0.0279642
0.0277887
0.0276093
0.0274259
0.0272387
0.0270477
0.0268529
0.0266545
0.0264524
0.0262468
0.0260376
0.0258249
0.0256088
0.0253894
0.0251667
0.0249407
0.0247116
0.0244793
0.0242439
0.0240056
0.0237642
0.02352
0.0232729
0.023023
0.0227703
0.022515
0.0222571
0.0219966
0.0217336
0.0214681
0.0212002
0.0209299
0.0206574
0.0203826
0.0201056
0.0198265
0.0195453
0.0192621
0.0189769
0.0186897