/*--------------------------------*- C++ -*----------------------------------*\
| =========                 |                                                 |
| \\      /  F ield         | OpenFOAM: The Open Source CFD Toolbox           |
|  \\    /   O peration     | Version:  v2012                                 |
|   \\  /    A nd           | Website:  www.openfoam.com                      |
|    \\/     M anipulation  |                                                 |
\*---------------------------------------------------------------------------*/
FoamFile
{
    version     2.0;
    format      ascii;
    class       volScalarField;
    location    "0";
    object      p;
}
// * * * * * * * * * * * * * * * * * * * * * * * * * * * * * * * * * * * * * //

dimensions      [0 2 -2 0 0 0 0];


internalField   nonuniform List<scalar> 
4000
(
0.217042
0.200831
0.104883
0.034317
0.00855126
-0.0228072
-0.0342513
-0.0846014
-0.120065
-0.0211204
-0.0281171
0.0530471
0.106686
0.0507264
0.196659
0.117392
0.0950824
-0.0648786
-0.152807
-0.165973
-0.067431
0.0386949
-0.205038
-0.19954
0.0407904
0.010049
-0.0861988
0.154057
0.3626
0.0678244
0.218918
0.279523
0.13219
0.0936897
-0.128081
-0.201279
-0.180937
-0.224796
-0.330443
-0.315739
-0.343683
-0.259913
-0.0277129
-0.148679
0.00492477
0.0647487
0.227585
0.083689
-0.0358673
-0.00271305
-0.112627
-0.0393412
-0.0164477
-0.0559065
-0.139111
-0.176929
-0.227938
-0.255282
-0.239303
-0.174229
-0.089466
0.00962973
0.131885
0.379313
0.421385
0.335242
0.290386
0.230591
0.0592747
0.0827863
0.0457771
-0.0228707
0.130557
0.0260904
-0.0119343
0.024577
-0.0542564
-0.157429
-0.175085
-0.164515
-0.169408
-0.264066
-0.213826
-0.249508
-0.209128
-0.225825
-0.126688
-0.0399654
0.0470477
0.00701263
-0.13159
-0.0163434
0.0200227
-0.0821185
-0.0346382
0.129965
0.171058
0.191717
0.152756
0.0515252
0.275902
0.235985
0.0601798
0.00795031
-0.00374927
0.0210001
0.0436041
-0.0811711
-0.218574
-0.0501864
0.0229325
0.0816113
0.168802
0.0212441
0.211807
0.124826
0.0163209
-0.0839795
-0.0694583
-0.142615
-0.180881
-0.019481
-0.143489
-0.16469
0.0503366
0.0633454
-0.0134117
0.0342127
0.216862
0.16154
0.262602
0.240496
0.153613
0.0268369
-0.065219
-0.136461
-0.251532
-0.31288
-0.361295
-0.336776
-0.25568
-0.200303
-0.119931
-0.154386
0.0152483
0.10511
0.180284
0.172377
0.0568722
-0.0466977
-0.104617
-0.0141671
-0.0260167
-0.0906172
-0.23321
-0.196124
-0.210808
-0.255598
-0.211299
-0.158303
-0.102098
0.0437467
0.160331
0.359556
0.36043
0.348529
0.337571
0.228887
0.0873872
0.0429114
0.00981017
-0.0211783
0.0771408
0.0415173
0.00304217
0.0358904
-0.0643534
-0.147917
-0.197234
-0.228529
-0.226618
-0.173876
-0.198358
-0.239315
-0.15988
-0.173683
-0.0959813
-0.0598657
0.0263615
0.0023418
-0.113977
-0.0855253
-0.0374713
0.000363171
0.0153536
0.130735
0.0771035
0.177484
0.112391
0.0152781
0.279179
0.232235
0.0838463
0.0580193
0.0476374
0.0957532
0.0221172
-0.129305
-0.170294
0.0814379
0.108731
-0.0149927
0.128707
0.0976145
0.149208
0.132834
-0.0595014
-0.100907
0.0154644
-0.117312
-0.182784
-0.0596453
-0.156737
-0.199182
-0.0138183
0.0187445
0.0235442
0.0105814
0.218354
0.323642
0.243211
0.198477
0.168347
0.0147208
-0.0502162
-0.189385
-0.250176
-0.314193
-0.395114
-0.354041
-0.172428
-0.218168
-0.0951276
-0.10373
0.013916
0.0716854
0.109841
0.258933
0.0818248
0.031955
-0.0950872
-0.0579352
-0.0653014
-0.0635604
-0.17919
-0.212971
-0.249694
-0.248217
-0.201139
-0.23525
-0.0187448
0.094582
0.230642
0.330121
0.334852
0.275989
0.265468
0.193792
0.0979472
0.0595014
-0.0237121
0.0201316
0.069703
0.0506067
0.0448063
0.0119478
-0.124111
-0.17569
-0.24374
-0.223431
-0.197007
-0.182208
-0.160827
-0.164638
-0.189658
-0.0609931
-0.0746693
-0.10399
-0.043027
-0.0278253
-0.0700849
-0.0884228
-0.0387817
0.0536827
0.040402
0.162749
-0.00285816
0.130346
0.0963542
0.0353938
0.197816
0.214344
0.103742
0.131583
0.0955622
0.0714962
-0.0435712
-0.10801
-0.0451168
0.0256378
-0.000704756
0.0835306
0.14661
0.1081
0.110417
0.0289723
0.0812396
0.113717
-0.036833
-0.046763
-0.170554
-0.181294
-0.197339
-0.0575899
0.0203878
-0.00931547
-0.011621
-0.00333508
0.206689
0.20727
0.20158
0.178606
0.202396
0.145611
-0.159159
-0.221374
-0.179065
-0.309402
-0.358531
-0.391912
-0.148447
-0.169706
-0.15524
-0.0776039
-0.0685645
0.115251
0.157121
0.260709
0.142698
0.0706508
-0.00058562
-0.0013379
-0.136628
-0.114755
-0.232066
-0.172674
-0.292787
-0.251424
-0.16542
-0.105765
-0.0337293
0.17886
0.284872
0.275527
0.243426
0.293954
0.2484
0.158336
0.026305
-0.00734808
-0.0141198
-0.0269128
0.00963578
0.00363093
-0.00888192
-0.00471578
-0.102689
-0.198502
-0.248248
-0.174447
-0.158555
-0.193406
-0.125576
-0.0805034
-0.10118
-0.0741539
-0.0453264
-0.0369444
-0.010454
-0.0734288
-0.0694934
-0.108074
-0.0988731
0.0668941
0.112043
0.121475
0.0241166
0.0598011
-0.00460274
0.00376324
0.151975
0.181117
0.126287
0.133299
0.141946
0.105359
-0.0252015
-0.0360476
-0.104342
-0.0320113
0.0731526
0.0231145
0.129536
0.116167
0.123645
0.0144646
0.0957223
0.106338
-0.133337
-0.0115337
-0.0332731
-0.151368
-0.182477
-0.0377266
-0.0831084
0.0290915
-0.0108112
-0.0119063
0.219879
0.207669
0.220068
0.172979
0.239713
0.0739962
-0.201523
-0.26856
-0.283631
-0.31211
-0.234611
-0.257254
-0.208223
-0.168004
-0.120236
-0.0124739
-0.0201973
0.056405
0.113574
0.207838
0.177711
0.143079
0.0649055
-0.0402643
-0.149323
-0.176198
-0.197796
-0.241285
-0.355125
-0.250855
-0.097874
-0.0787739
0.00392906
0.147845
0.22404
0.276723
0.252739
0.171096
0.149008
0.154547
0.0146348
-0.0288278
-0.0424886
-0.0698692
-0.0518952
-0.0100089
0.0629371
0.0610148
-0.193483
-0.195206
-0.146818
-0.152185
-0.156624
-0.164061
-0.0702095
-0.00341867
-0.0444037
-0.0709196
-0.084854
-0.0851583
-0.0854286
0.02762
-0.00994198
-0.1556
-0.0941553
0.0552092
0.0661462
0.0989232
0.00303382
0.0538888
-0.00620168
0.0373217
0.139913
0.12812
0.108427
0.102177
0.187747
0.116554
-0.0231461
-0.152178
-0.111023
-0.0057801
-0.038745
0.0609844
0.153878
0.0666089
0.112301
0.0139212
0.065599
0.0377714
-0.0521337
0.0789968
-0.0952998
-0.066151
-0.0732451
-0.0460311
-0.14527
-0.124935
-0.0180397
0.00520516
0.229095
0.13187
0.193205
0.270516
0.300833
0.05986
-0.0911473
-0.261024
-0.236215
-0.218215
-0.192595
-0.312319
-0.156036
-0.110431
-0.151246
-0.0891378
0.0328668
0.129212
0.179517
0.200899
0.254458
0.156821
0.00707725
0.0283354
-0.0437202
-0.121403
-0.157888
-0.37288
-0.417697
-0.182685
-0.0276646
0.0389749
0.0595971
0.197509
0.188167
0.125476
0.212271
0.177729
0.120707
0.109704
-0.015092
-0.00569499
-0.00542195
-0.0864752
-0.146437
-0.0722639
-0.0120018
0.0369752
-0.0351851
-0.120372
-0.14405
-0.0816628
-0.0556338
-0.120609
-0.0606912
0.0315478
0.01961
-0.121291
-0.0809027
-0.0384495
-0.00752861
0.00408557
-0.069574
-0.165953
-0.0772225
0.0107889
0.0953034
0.121434
0.077786
0.0251687
0.00330082
0.00451216
0.0733362
0.0920363
0.0920035
0.0490351
0.126889
0.0598201
0.0582111
-0.0649522
-0.163438
0.0167516
0.000823428
0.0670788
0.0723998
-0.00836165
0.104472
0.0803309
0.111026
0.0759447
0.0011828
0.0816308
0.0173982
-0.0389516
-0.0882591
-0.144567
-0.176363
-0.106019
0.0127038
0.0453994
0.111179
0.103173
0.131183
0.291065
0.30157
0.190403
-0.0379409
-0.207457
-0.197624
-0.199548
-0.197584
-0.163013
-0.159907
-0.0617191
-0.052679
-0.106317
0.0587469
0.113918
0.136507
0.183538
0.224773
0.241479
0.00185814
-0.0617215
-0.0804249
-0.0640928
-0.148913
-0.32346
-0.315967
-0.170357
0.0340609
0.0146098
0.0696409
0.16423
0.127779
0.0913693
0.146044
0.141895
0.150373
0.0787237
0.0245343
-0.0925056
-0.121346
-0.133519
-0.166488
-0.0955118
-0.00678938
0.119684
-0.00468329
-0.0561639
-0.0560918
0.0932657
0.0619121
-0.073369
0.0393812
0.0418179
0.0362271
-0.0460817
0.019269
0.00430687
-0.0743062
0.00950229
-0.12183
-0.11201
-0.115643
0.0413139
0.0971181
0.168608
0.125369
0.0393935
-0.0163008
0.00675948
0.0581471
0.0799208
0.0493691
0.0159612
0.0744616
-0.0510631
-0.0699597
-0.117779
-0.00312905
0.0509645
-0.0301464
0.0715486
0.0334173
0.0345368
0.0911335
0.00384498
0.107495
0.046796
0.072625
0.0656042
-0.0916929
-0.0841357
-0.0651753
-0.177062
-0.139496
-0.0429547
0.0276039
0.0714383
0.0498566
0.137839
0.130879
0.256471
0.137335
0.0789544
0.0425836
-0.0915181
-0.199868
-0.138213
-0.105887
-0.110682
-0.130084
-0.112245
0.0370704
-0.0275148
-0.0356732
0.154728
0.296893
0.268734
0.193979
0.0818034
0.0354435
0.0986014
-0.056288
-0.118431
-0.133569
-0.19075
-0.262862
-0.115797
0.0440761
0.160425
0.0727049
0.192804
0.16027
0.00140645
0.038596
0.0738705
0.00865728
-0.00229354
-0.0330712
-0.110568
-0.104116
-0.127121
-0.149425
-0.130322
-0.0203741
0.0861592
0.073894
0.046357
0.0281748
0.0701103
0.0633389
0.0313876
0.112481
0.0432882
0.0201897
0.0288662
0.104012
-0.0362373
-0.0173348
0.00962391
-0.0469544
-0.113883
-0.0759273
-0.0445923
0.112802
0.145543
0.097539
-0.00956337
0.0367087
0.0181729
0.0412607
0.0147478
0.011219
0.053867
0.0204475
-0.0500716
-0.113282
-0.148417
-0.0542413
0.00156117
-0.0377413
0.116904
0.0951874
0.0547377
0.0914453
0.0003649
0.0643485
0.0643572
0.0488583
0.0485186
-0.180588
-0.155924
-0.0606086
-0.104572
-0.130624
-0.0328859
-0.0228009
0.0177897
-0.0212333
0.116961
0.168924
0.28258
0.153285
0.0438924
0.0402455
-0.05906
0.0110824
-0.135897
-0.0743817
-0.0477571
-0.144921
0.0235183
0.0552534
0.018632
0.00735489
0.0940182
0.227292
0.12499
0.244527
0.193068
0.1847
0.033084
-0.115514
-0.10342
-0.141618
-0.102649
-0.137817
-0.0336296
0.118917
0.0874451
0.15215
0.162966
0.079971
-0.0219225
0.0272715
-0.000620539
-0.0397977
-0.0511078
-0.0614565
-0.0498593
-0.105333
-0.11156
-0.128176
-0.152089
-0.0556997
0.0878521
0.138517
0.044602
0.0990453
0.138119
0.111702
0.0862818
0.188843
0.0575964
0.113844
0.0524752
0.121424
0.0368019
-0.0977152
-0.00238921
-0.099081
-0.107763
0.0270419
-0.067832
0.0104985
0.127604
0.128929
0.0453284
0.0537779
0.0750645
0.0474611
-0.00795195
-0.120786
-0.0323293
-0.0200332
-0.104572
-0.151221
-0.193069
-0.0634961
0.0390542
0.0127144
0.139833
0.0552778
0.0147072
0.0924233
0.100674
0.087451
0.117823
-0.0372159
-0.143757
-0.222035
-0.138291
-0.20707
-0.0750276
-0.0176715
-0.0578236
-0.0774964
0.132533
0.0592656
0.118386
0.0786014
0.217649
0.164927
-0.0145963
-0.0740637
-0.0513035
-0.0415319
-0.0182756
0.00485384
-0.0294726
0.0321609
0.159306
0.0196766
0.13989
0.0750787
0.0273647
0.0749649
0.0908223
0.185893
0.273891
0.163561
0.0623027
0.0653366
-0.071164
-0.178863
-0.0514324
-0.0724259
0.00202947
0.060901
0.105587
0.236501
0.119617
0.00891761
-0.0637786
-0.00670576
0.0230953
-0.0277482
-0.121985
-0.0788426
-0.0766929
-0.111961
-0.0771354
-0.178745
-0.150185
-0.0347883
0.0489993
0.10402
0.137486
0.27023
0.149192
0.0680021
0.156403
0.196846
0.0753918
0.0585303
0.0918071
0.181963
0.0880311
-0.0839273
-0.0401889
0.00193401
0.016388
0.0380699
-0.0811823
-0.0407958
0.0280909
0.102471
0.0524989
0.0746316
0.0499796
0.0301086
-0.0449653
-0.104413
-0.0750726
-0.0808909
-0.107693
-0.15665
-0.0813762
-0.203224
-0.0689148
0.0583434
0.226537
0.0519162
0.0327747
-0.0517406
0.0876194
0.121157
-0.00918213
-0.11374
-0.148797
-0.150245
-0.177696
-0.270566
-0.109789
0.0548652
-0.0117768
-0.0991574
0.0428247
0.16986
0.0627616
-0.000691298
0.0911467
0.111974
0.0607238
0.0862465
-0.0620733
0.0466828
-0.000845502
-0.0440324
-0.123787
0.0921233
0.22112
0.128813
0.0292511
-0.0354052
0.0544591
0.0970688
0.136221
0.242359
0.259515
0.273464
0.0261447
-0.031056
-0.0265375
-0.0107782
0.0238211
-0.0132622
-0.0157544
-0.0237599
0.106933
0.237927
0.168529
0.0689696
-0.0783636
-0.11458
-0.10674
0.0247179
-0.0545623
-0.118543
-0.083865
-0.11242
-0.106288
-0.183101
-0.170689
-0.0325685
0.0848856
0.1493
0.207354
0.228794
0.150332
0.047194
0.15198
0.254386
0.215819
0.13869
0.133476
0.0897523
0.0467686
0.035894
-0.0393286
0.0304807
-0.00592807
-0.0178873
-0.116352
-0.0179932
-0.044018
0.10567
0.182077
-0.0185965
-0.0136368
-0.0215959
-0.0671816
-0.128233
-0.031659
-0.0830797
-0.19042
-0.179001
-0.189794
-0.178165
-0.0522749
0.00905829
0.0558913
0.157155
0.120538
0.058164
0.0163771
0.0144694
-0.0404365
-0.160644
-0.140858
-0.184887
-0.310444
-0.211683
-0.12154
0.00302262
0.0462379
-0.0440532
0.136174
0.100054
0.0365875
-0.00736125
-0.0405401
0.0197972
0.0734871
0.141045
0.0408128
0.0586145
0.148224
-0.0505915
-0.0489375
0.150252
0.164098
0.0878345
0.0337546
-0.00827768
0.053669
0.116929
0.0249639
0.248559
0.177636
0.222765
0.146458
-0.0303869
-0.0158648
-0.0391487
0.0176322
0.00434758
0.0480911
-0.00922335
0.0601028
0.16649
0.0824891
0.0683802
0.0214533
-0.0933527
-0.0630252
0.029937
-0.0610643
-0.14117
-0.238468
-0.151179
-0.1931
-0.204392
-0.167037
-0.018214
0.108084
0.165219
0.192475
0.232719
0.292703
0.0907949
0.181709
0.305204
0.171226
0.1606
0.221487
0.14382
0.0519512
0.00306852
0.0673473
0.0950697
-0.00920146
-0.075509
-0.0460623
-0.0520325
0.0230059
0.133225
0.0968146
0.0148211
-0.0603694
-0.0639027
-0.0867823
-0.0563337
-0.0681701
-0.0999469
-0.14176
-0.2344
-0.153372
-0.159046
-0.0291686
-0.0253025
0.102965
0.0221878
0.0787917
0.0572426
-0.10053
-0.0946296
-0.1719
-0.136929
-0.114119
-0.185209
-0.148396
-0.151322
-0.0521616
0.0125747
-0.0646744
-0.105201
0.0960994
0.124084
0.00144399
-0.0951661
0.0138709
0.0725685
0.0155501
-0.0567057
0.0386016
0.193543
0.196656
0.00227459
-0.000311404
0.123076
0.0430296
0.0977127
0.0461962
0.0306905
0.0701722
0.082062
0.0780979
0.157559
0.137837
0.0901554
0.0828605
0.0135296
0.042172
-0.0804185
-0.0616455
0.0431122
0.0333884
0.0732903
0.12614
0.0977118
0.116327
0.0122431
-0.00482989
-0.207021
-0.0240484
0.026205
0.0129986
-0.110884
-0.21569
-0.308362
-0.195176
-0.0894355
-0.0263543
-0.0389491
0.0567893
0.210298
0.156236
0.231933
0.307006
0.212493
0.188988
0.198312
0.136292
0.260883
0.22136
0.126399
0.0601953
0.0558021
0.060883
0.102487
0.107255
-0.00317872
-0.0317808
-0.0462927
0.0122697
0.191731
0.0998451
-0.103527
-0.019854
-0.0360172
-0.117635
-0.13566
-0.0232804
-0.117831
-0.154293
-0.225785
-0.143018
-0.17878
-0.100987
-0.079562
0.0482513
0.10561
0.0633006
-0.0322537
-0.187918
-0.248191
-0.139412
-0.149211
-0.032847
-0.139601
-0.165822
-0.201568
-0.115972
0.0139751
0.072304
-0.0126728
-0.084678
0.0324841
0.012632
-0.0737358
-0.0239661
0.0448834
0.0643861
0.107214
0.0503248
0.153483
0.234244
-0.0334685
-0.0559003
0.189733
0.139858
0.152473
0.033457
-0.108263
-0.0078847
0.115385
0.044925
0.13326
0.141213
0.118643
0.00279343
-0.0589235
0.0288038
-0.0104011
-0.0504087
-0.0198982
-0.0914483
-0.02583
0.114824
0.10971
0.0912743
0.116763
0.0227738
-0.0899437
-0.0850854
-0.0994287
-0.0491422
-0.113165
-0.204311
-0.281632
-0.148615
-0.0802988
-0.071496
-0.0959772
0.08526
0.143849
0.188847
0.281124
0.221874
0.242525
0.233424
0.173689
0.20217
0.171032
0.18003
0.0784383
0.135686
0.0698813
0.109294
0.109512
0.0627834
-0.0216942
0.0282244
-0.00917448
0.0838305
0.12657
0.0707439
-0.0566861
-0.0377834
0.00317114
-0.0752063
-0.0742453
-0.0284812
-0.15359
-0.118081
-0.15403
-0.179361
-0.166114
-0.167278
-0.0395986
0.0305035
-0.0250031
-0.113666
-0.0470041
-0.0853064
-0.135227
-0.163985
-0.207414
-0.0274552
-0.0545551
-0.0809507
-0.0582207
-0.0247495
-0.00456009
-0.0983896
-0.0736385
-0.102357
0.0447059
0.0776122
-0.0384557
-0.084832
-0.0251658
0.0277316
0.134464
0.192197
0.237369
0.0676677
-0.0535834
-0.0392761
0.128765
0.0942472
0.16128
0.0571652
0.00522136
0.0457983
0.0105399
0.0447043
0.0947825
0.0812871
0.0186262
-0.0454931
-0.00663783
0.0625721
-0.0473552
-0.0931312
-0.0125
-0.0605954
0.016138
0.0951366
0.055877
0.107907
0.0289663
0.0117202
0.0326491
-0.116743
-0.177655
-0.162878
-0.162753
-0.174138
-0.158935
-0.0784343
-0.111673
-0.114435
-0.0295333
0.0714742
0.124972
0.242238
0.193914
0.105422
0.217784
0.258208
0.191444
0.193596
0.167818
0.0974541
0.0542914
0.168182
0.0546416
0.0356024
0.138623
0.0797467
0.0397046
0.0123625
0.0276161
0.14256
0.149408
0.061508
0.0245636
-0.0278061
0.024619
0.00672769
-0.056814
-0.0746552
-0.120573
-0.0873056
-0.187776
-0.137936
-0.0278799
-0.170852
-0.129399
-0.0363881
-0.0452889
-0.0636615
-0.0874615
-0.124836
-0.0884544
-0.198872
-0.219928
0.0127594
0.0277307
-0.083152
-0.086035
0.0518258
0.0496385
-0.0771959
-0.102065
-0.0580311
0.0415007
0.0673392
-0.117533
-0.141968
-0.0202456
0.0891691
0.133483
0.21501
0.183093
0.136274
-0.00610241
-0.0189791
0.0944026
0.121538
0.106471
0.0697835
0.0893716
0.0661154
-0.0264569
0.00846056
0.111643
0.0872129
-0.0459061
-0.126418
-0.0623955
-0.00515323
-0.0486636
-0.144238
-0.0118312
0.0346637
0.0107671
-0.0344458
0.176939
0.123993
0.0729042
-0.0840988
0.00954513
0.0270524
-0.254844
-0.326717
-0.176336
-0.119596
-0.125292
-0.0802008
-0.141385
-0.0390999
0.0038475
0.0337952
0.147965
0.173681
0.154363
0.0784747
0.139198
0.240496
0.296895
0.200616
0.0428386
0.0180657
-0.0128996
0.118673
0.0699468
-0.00946534
0.083018
0.0633545
0.0803833
0.0680668
0.0216685
0.147693
0.143989
0.0315569
0.13695
0.00207852
0.0297622
0.0286185
0.0447198
-0.0300657
-0.108426
-0.00355462
-0.108742
-0.123981
-0.0528356
-0.193108
-0.172591
-0.0966614
-0.0697514
-0.043133
-0.103816
-0.0383148
-0.130298
-0.137733
-0.111001
-0.0573891
-0.0295378
-0.0228024
0.0550431
0.0170818
-0.0686318
-0.0800789
0.016642
0.00905704
0.06409
-0.0521651
-0.0923365
0.0554011
0.00951413
0.0629003
0.148503
0.148986
0.164057
0.117484
0.000582616
-0.0577614
0.0304455
0.128749
0.0387165
0.101221
0.127744
0.119587
-0.0241397
-0.121839
-0.0156966
0.0422432
-0.0875317
-0.109701
-0.100724
-0.00173149
0.059091
-0.0407466
-0.0284692
0.00180614
-0.0130284
-0.0521469
0.151593
0.146646
0.0881464
0.0977102
-0.0299126
-0.0734078
-0.208191
-0.328179
-0.210297
-0.11318
-0.186388
-0.0746323
-0.111402
-0.0360816
-0.0106546
0.00511655
0.109758
0.188931
0.196018
-0.0270268
0.0446681
0.160489
0.348423
0.175915
-0.00651872
0.000262131
-0.0409185
0.044872
0.087719
-0.0435073
0.0130919
-0.0526721
0.0593211
0.10257
0.161278
0.116004
0.187219
0.05071
0.112735
0.100325
0.0231829
0.025379
0.0550407
0.0419952
-0.10597
-0.0834587
-0.092092
-0.0104114
-0.0303949
-0.124908
-0.195182
-0.156437
-0.0376521
-0.000900378
-0.00652383
-0.0843929
-0.0426903
-0.0571197
0.000549379
-0.00887388
0.023296
0.00943272
0.172034
-0.00106656
-0.109
-0.0788682
0.0657296
0.0189244
-0.0231255
-0.111623
-0.0625
-0.0246624
0.0527634
0.111805
0.0832422
0.158186
0.229671
0.0188448
-0.0828995
-0.00178117
-0.00595801
0.0759346
0.126347
0.169733
0.193749
0.116216
-0.113278
-0.158351
-0.103279
0.0493768
-0.0697456
-0.15463
-0.0938379
0.0231101
-0.0405439
-0.0996071
0.052093
0.00412309
0.0619609
0.0183092
0.150681
0.174879
0.156838
0.137936
-0.118026
-0.15151
-0.224363
-0.32224
-0.209053
-0.0810328
-0.0783565
-0.124877
-0.157147
-0.0209421
0.0054362
0.0221989
0.0644152
0.138626
0.0490115
-0.0767065
0.0367596
0.213642
0.200662
0.0541455
-0.10612
-0.0187944
0.018219
-0.0590243
-0.0134277
-0.020726
-0.0367355
-0.111105
0.113313
0.156777
0.130272
0.107247
0.206342
0.0901381
0.082192
0.0378822
0.064129
0.0602422
0.089446
0.0521238
-0.0215599
0.00416844
-0.0985721
-0.0637084
-0.0907851
-0.131184
-0.111671
-0.0924487
-0.0360796
0.0444025
0.0139109
-0.0491371
0.00312429
0.0785603
0.0601089
-0.0148064
-0.0134431
0.077608
0.0665609
-0.0103445
0.0259553
-0.00584523
0.0329505
-0.0264632
-0.0322197
-0.143938
-0.0642983
-0.00897836
0.100264
0.0985708
0.103087
0.0778813
0.119619
-0.022303
-0.0216604
0.0391175
0.04084
0.137456
0.110184
0.106119
0.177483
0.0349897
-0.0655569
-0.164376
-0.0477516
0.0483626
-0.0307295
-0.19882
-0.0916125
-0.0124237
0.0115004
-0.0622264
-0.110941
0.0138632
0.100139
0.118363
0.1022
0.17053
0.176676
0.0712781
-0.108
-0.115625
-0.147533
-0.237245
-0.253814
-0.14434
-0.124978
-0.103288
-0.0879701
-0.0976382
-0.0140473
-0.0323928
0.0162943
0.040726
0.00853815
-0.0757115
0.0501788
0.173535
0.0979038
0.0183659
-0.0439051
-0.0619566
-0.015239
-0.052145
-0.0882089
-0.133951
-0.0480209
-0.0315921
0.148126
0.186108
0.0935278
0.0482713
0.136119
-0.0301728
0.0821336
-0.00396635
-0.0311973
0.0295909
0.152231
0.218543
-0.00827523
-0.0196676
-0.0405953
0.0657329
-0.0342056
-0.108397
-0.112899
-0.0925365
-0.00549532
-0.0435868
0.048137
0.0236079
0.0349662
0.0408993
0.112149
0.112049
0.0563531
0.123329
0.00886495
-0.028946
0.0205384
-0.0607146
-0.0250622
0.0111326
-0.0706417
-0.0861707
-0.0293605
-0.0288104
0.188877
0.0846731
0.0911272
0.0703872
0.0574695
0.00668949
-0.017531
0.08355
0.0114963
-0.0482914
0.095741
0.18682
0.20421
-0.0986323
-0.105367
-0.1061
-0.028917
-0.00105145
-0.0163869
-0.113169
-0.0997621
-0.0693203
-0.107675
-0.043816
-0.104933
0.0395149
0.11789
0.154283
0.177952
0.114501
0.226927
0.137561
-0.0698117
-0.191156
-0.182081
-0.181584
-0.233458
-0.178419
-0.164851
-0.0750671
-0.0798003
-0.015013
-0.00456141
-0.0382287
0.0467068
-0.0132368
0.0276317
-0.0123169
-0.0197678
0.0765213
0.0652321
-0.1017
-0.155814
-0.0449112
-0.0607902
-0.0100206
-0.082162
-0.0608561
-0.0771049
-0.0616914
0.119155
0.134645
0.139906
0.0919452
0.0560268
-0.0582357
0.0272822
-0.00506484
0.00926664
0.0946612
0.150406
0.179187
0.0996004
0.0208961
0.0726095
0.0482551
-0.0796423
-0.0221681
-0.0779275
-0.0352062
-0.0862407
0.0455311
-0.00769653
0.0132408
0.0219828
0.094801
0.109965
0.114809
0.169013
0.169682
0.0197236
0.0654201
-0.020572
-0.0652103
-0.0440065
0.00384677
-0.129142
-0.173011
-0.0932311
-0.00878934
0.111
0.13635
0.196312
0.0555567
-0.0202972
-0.0612214
-0.0689359
0.155466
0.14084
0.00587464
0.0197918
0.123354
0.0851223
-0.00484189
-0.0664829
-0.0820874
-0.125796
-0.0639443
-0.06188
-0.167356
-0.0388509
-0.0204638
-0.0499179
-0.0995791
-0.116476
0.0419702
0.14935
0.19006
0.169137
0.0879785
0.206229
0.0641058
-0.0224176
0.0189815
-0.0221124
-0.17819
-0.269491
-0.136959
-0.0952009
-0.0683391
-0.0118796
0.00936818
-0.0475373
0.004774
-0.0708801
-0.0489781
-0.036724
0.0853483
0.0449734
0.0367212
0.0250087
-0.0615569
-0.201873
-0.110779
-0.174311
-0.0951251
-0.0715346
-0.0373837
-0.203029
0.0419343
0.199946
0.0533163
0.230485
0.072236
-0.0656236
-0.0883018
0.0494985
0.0282185
0.0252754
0.12005
0.106638
0.128056
0.18129
0.149098
0.0727697
0.0610208
-0.0182363
-0.021158
-0.107281
-0.0833678
-0.0338685
-0.0438988
0.126096
0.0770517
0.0630402
0.077952
0.140697
0.121499
0.272502
0.176906
0.0594215
0.0300696
-0.0720855
-0.0548937
-0.0439434
-0.0515171
-0.0779817
-0.0771915
-0.0496152
-0.0725396
0.0172037
0.0290797
0.119478
0.087652
0.0699655
-0.049629
0.0216023
0.0267408
0.0818242
0.113675
0.0618142
0.0445668
0.0430652
-0.0248858
-0.120549
-0.10355
-0.111679
-0.00143944
-0.0440146
-0.136659
-0.11659
-0.0792514
-0.0541537
-0.0754292
-0.0964886
-0.0066705
0.225969
0.234077
0.159301
0.131167
0.276576
-0.00945343
0.0356415
-0.1123
-0.120175
-0.0524194
-0.157636
-0.187372
-0.00803297
-0.0810549
-0.0435059
0.0885872
-0.0457643
-0.0562603
-0.02076
-0.0434589
0.0128748
0.0939938
0.0225705
-0.0807302
0.00307721
-0.0268856
-0.183586
-0.142204
-0.173925
-0.146501
-0.0795755
-0.054646
-0.154126
0.0331389
0.0830232
0.0824615
0.123146
-0.0138162
0.0478266
-0.0369021
-0.0551652
-0.030887
0.0794501
0.114659
0.0817693
0.155894
0.16979
0.133913
0.130864
0.0757731
0.0438786
-0.040962
-0.142734
-0.0878885
-0.054644
0.0512595
0.0726199
0.115849
0.0539883
0.00765649
0.102034
0.197749
0.359539
0.290177
0.0776426
0.0595841
0.0372226
-0.0980059
-0.0512105
-0.124396
-0.141535
-0.162324
-0.162001
-0.117817
0.0440667
0.116146
0.138551
0.0816615
-0.017079
0.0626048
-0.0940812
-0.0024252
0.123054
0.203846
0.109999
0.119188
-0.0663462
-0.0822141
-0.0315316
-0.0675158
-0.0945648
-0.0936503
-0.131346
-0.0250329
-0.154253
-0.0755177
-0.101942
-0.0729595
-0.041412
0.011759
0.17064
0.316606
0.283921
0.227554
0.177838
-0.0879663
-0.0624719
-0.0155944
-0.0256337
-0.0521236
-0.0467311
-0.0793691
-0.0428582
-0.0791542
-0.009853
0.123843
0.0515826
-0.0306829
-0.0892
-0.088707
0.0110108
0.199839
0.129147
0.00552256
-0.148992
-0.153151
-0.196114
-0.246444
-0.193689
-0.141991
-0.122397
-0.109404
-0.137394
0.047845
0.0236119
0.130491
0.0526026
-0.0428558
-0.00335813
0.055908
0.0209142
-0.0331778
0.039448
0.159958
0.141592
0.193253
0.217959
0.0499002
0.157533
0.0696126
0.0318
-0.0656149
0.0273918
-0.0372663
-0.0378622
0.0983512
-0.0258642
-0.0289268
0.164663
0.167133
-0.0651206
0.0427133
0.316645
0.259465
0.219671
0.0478327
0.0183132
-0.117622
-0.14127
-0.147174
-0.0614333
-0.0943775
-0.137219
-0.0991943
-0.0496757
0.00676088
0.0889968
0.00445193
0.105915
0.0419981
0.00990871
0.0769362
0.057292
0.0591429
0.0850859
0.137545
0.0509574
-0.101044
-0.114076
-0.12989
-0.00185345
-0.0784901
-0.134245
-0.000989662
-0.0859884
-0.114589
-0.112247
-0.09147
-0.0115427
0.0616136
0.242615
0.332296
0.298712
0.261795
0.229639
-0.0954696
-0.167272
-0.112421
-0.153224
0.00297259
0.0425204
0.00810063
-0.00688004
0.0185899
-0.01536
0.114583
0.0722191
-0.062016
-0.125652
-0.0149053
0.0923566
0.158178
0.121284
-0.0565435
-0.168266
-0.238244
-0.269546
-0.19482
-0.260106
-0.2187
-0.115166
-0.0927627
-0.0877235
0.0300878
0.102403
0.017808
0.0489759
0.0355235
-0.0202643
0.0596505
0.0827259
0.0120715
0.0222537
0.0525973
0.155637
0.232418
0.136039
0.0882005
0.127311
0.0902457
0.0444922
-0.0210848
0.0279128
-0.0228857
0.01544
-0.0157238
0.0644062
0.0161396
0.0707713
0.102876
0.126752
0.130757
0.238189
0.144299
0.124897
0.0619277
0.0576364
-0.0682094
-0.070132
-0.163735
-0.167085
-0.155418
-0.142285
-0.157392
-0.0762956
-0.0143653
0.101332
0.00128645
0.0258825
0.0324661
0.0684817
0.0926776
0.0731886
0.222001
0.121287
0.0665968
0.0252784
-0.0691607
-0.113695
-0.0883366
-0.0233946
-0.142069
-0.108479
-0.0249244
-0.0785892
-0.119184
-0.234889
-0.0585368
0.0757799
0.0653556
0.225784
0.332542
0.391818
0.211122
0.140303
0.010627
-0.0932872
-0.125343
-0.0543484
0.0288533
0.0420869
0.0202425
-0.0773972
0.00545659
-0.046568
0.0190532
0.0402196
-0.0487846
-0.121879
-0.0864496
0.122997
0.0882939
0.065587
0.0199063
-0.126858
-0.170648
-0.247379
-0.222715
-0.216967
-0.202213
-0.180464
-0.182579
-0.0574752
0.0291323
0.0198979
0.0182518
-0.000927369
0.00426092
0.0409218
0.157548
0.0526917
0.00176588
0.10485
0.110358
0.0308848
0.15676
0.214492
0.0995703
0.0385358
0.060028
0.0696834
0.0390368
0.108934
0.0952125
0.00750924
0.0120792
0.0988089
-0.0275395
0.0202714
0.109456
0.0272767
0.145982
0.226773
0.0748251
0.118423
0.151091
0.00319382
-0.121392
-0.162236
-0.0715602
-0.18923
-0.165455
-0.210365
-0.0504023
-0.0302703
-0.0309015
-0.0350067
0.0125685
0.0482777
0.0360265
0.0844169
0.114279
0.100887
0.150256
0.027844
0.109397
0.021704
-0.136923
-0.0991622
-0.0684774
-0.0394048
-0.16625
-0.161323
0.00717871
-0.13589
-0.10626
-0.172037
0.00177242
0.0972457
0.0849086
0.218274
0.251149
0.362406
0.279746
0.097836
-0.0246486
-0.0713855
-0.123009
-0.0929648
0.00262134
0.0598353
0.0200306
-0.0838364
-0.0266347
-0.0573339
0.0490271
0.0791211
-0.105334
-0.0899173
0.0370449
0.118132
0.0861096
0.0729536
-0.0598071
-0.127466
-0.196642
-0.195392
-0.23714
-0.163129
-0.201405
-0.19637
-0.141636
-0.0651971
-0.0517318
0.0449981
0.114191
-0.0131244
0.0109887
0.0481599
0.0839655
-0.00777974
-0.0546159
0.0540697
0.061275
0.0958453
0.138703
0.100545
0.142742
0.199124
0.0860241
0.0436565
0.0070154
0.0935755
-0.0157227
-0.00169583
0.0017132
0.154359
0.0219527
-0.0337244
0.0366952
0.0672728
0.0600278
0.101916
0.0898071
0.0470247
0.0752955
0.0071903
-0.0745844
-0.176714
-0.0892756
-0.244699
-0.118995
-0.0969097
-0.0819677
-0.132018
-0.0695697
-0.00308456
-0.0299998
0.0518448
0.00832649
0.0718069
0.126579
0.128965
0.107651
0.0291157
0.0615598
0.0858313
-0.16929
-0.136186
-0.0439362
-0.126727
-0.113423
-0.102508
-0.105039
-0.116992
-0.0995069
-0.129723
-0.0327148
0.0267246
0.119373
0.189459
0.226689
0.312021
0.359332
0.132564
0.0629941
-0.0312649
-0.0942445
-0.106962
0.0016013
-0.00901721
-0.0241906
0.00645996
-0.0421316
-0.0596257
-0.00833268
0.0524022
-0.060938
-0.0597277
0.0678393
0.131392
0.0840724
0.0698842
-0.0307069
-0.164183
-0.117055
-0.12226
-0.193836
-0.273737
-0.164576
-0.19492
-0.170932
-0.0967946
-0.0352667
0.0928099
0.0589201
-0.0307159
0.0872384
0.0717224
0.0170578
-0.0337204
-0.0320983
-0.0448019
0.0187298
0.155393
0.152717
0.0924086
0.0690132
0.134148
0.00424122
0.0978639
0.212315
0.0523203
-0.0618913
-0.0474852
0.0456385
0.00581779
-0.013481
0.0313339
0.0403144
0.0237569
-0.0391371
0.0347157
0.140373
0.0723873
0.0628271
-0.018182
-0.0206392
-0.0730875
-0.0941192
-0.115984
-0.171488
-0.178515
-0.154534
-0.0524774
-0.0636795
-0.0970487
-0.0266009
0.0289966
-0.0412392
0.0842147
0.186009
0.105885
0.0103102
0.0556993
0.0533991
-0.0061893
-0.160509
-0.131238
-0.120065
-0.0950554
-0.0731137
-0.16313
-0.0811145
-0.115988
-0.118209
-0.0402589
0.0188966
0.0279582
0.161143
0.208651
0.187375
0.401332
0.267868
0.188361
-0.0018507
-0.063478
0.0012253
-0.0443461
-0.0157164
-0.0394213
-0.135806
-0.0362207
-0.018282
-0.0429526
-0.0490093
0.0773655
-0.055388
-0.0910304
0.0802929
0.12558
0.110261
0.108107
-0.0725623
-0.156292
-0.0715023
-0.155049
-0.141562
-0.27675
-0.115906
-0.172473
-0.170972
-0.12852
-0.0615846
0.0944018
0.127572
0.00588489
0.0513339
0.0875042
0.075092
0.0999835
0.0174668
-0.0724367
-0.0174407
0.00506609
0.0655706
0.0614431
0.202424
0.119096
0.107247
0.181131
0.128058
-0.0546772
-0.0276347
-0.0829044
-0.0525628
-0.0295119
0.0840055
0.0637605
-0.0427449
-0.0404284
-0.080011
0.0814908
0.121468
0.122897
0.0256887
-0.0689827
-0.0746006
-0.108379
-0.0894546
-0.0538929
-0.17508
-0.187038
-0.0886934
-0.143879
-0.152744
-0.0231961
0.0703023
-0.0168875
0.01202
0.114347
0.0581802
0.0268086
0.0674386
0.0158654
0.0207863
-0.0677444
-0.168756
-0.0497748
-0.107987
-0.13703
-0.205331
-0.131187
-0.0488249
-0.115848
-0.149114
-0.0495746
0.00913103
0.121992
0.144798
0.146091
0.290133
0.263487
0.242631
0.130593
0.131224
-0.043211
-0.0234293
-0.0327145
-0.105868
-0.0540983
-0.0784139
0.0272127
-0.129225
-0.000193206
0.0713814
0.0468678
-0.0604966
-0.0726439
0.0644806
0.11272
0.0223589
0.0421565
0.0036189
-0.0384664
-0.0785021
-0.126631
-0.195618
-0.212059
-0.165567
-0.188037
-0.149353
-0.153642
-0.0510814
0.0636551
0.105589
0.0930895
0.0773454
0.142918
0.114662
0.0405403
0.00280639
-0.0992458
-0.062406
-0.0531391
-0.0146691
0.0284684
0.157827
0.262242
0.120461
0.0684815
0.149374
0.0741321
-0.106569