/*--------------------------------*- C++ -*----------------------------------*\
| =========                 |                                                 |
| \\      /  F ield         | OpenFOAM: The Open Source CFD Toolbox           |
|  \\    /   O peration     | Version:  v2012                                 |
|   \\  /    A nd           | Website:  www.openfoam.com                      |
|    \\/     M anipulation  |                                                 |
\*---------------------------------------------------------------------------*/
FoamFile
{
    version     2.0;
    format      ascii;
    class       volVectorField;
    location    "0";
    object      U;
}
// * * * * * * * * * * * * * * * * * * * * * * * * * * * * * * * * * * * * * //

dimensions      [0 1 -1 0 0 0 0];


internalField   nonuniform List<vector> 
4000
(
(-0.00888413 -0.0371911 0)
(0.0353236 -0.0314507 0)
(0.0189878 0.0226554 0)
(0.00922455 0.065013 0)
(0.014886 -0.0312087 0)
(0.125498 0.0489283 0)
(-0.0434529 -0.0190032 0)
(0.0367974 -0.0197395 0)
(0.0122167 -0.0404265 0)
(-0.134294 0.0280458 0)
(-0.0497576 0.0753115 0)
(-0.0639041 0.129579 0)
(-0.0830568 -0.0551483 0)
(-0.00376773 -0.0831805 0)
(0.144669 -0.118655 0)
(-0.0135469 0.0231423 0)
(0.049159 0.0429314 0)
(-0.025433 -0.0243474 0)
(-0.00826999 0.0705034 0)
(-0.0483018 -0.0311487 0)
(0.0670392 0.0420199 0)
(-0.116385 0.00670078 0)
(-0.186057 -0.110129 0)
(-0.00465281 0.0400853 0)
(0.0953867 0.0285464 0)
(0.163735 -0.062627 0)
(0.0534181 -0.0277431 0)
(0.0874393 -0.0169579 0)
(-0.0103472 0.0778531 0)
(0.018534 0.05119 0)
(-0.0383645 -0.000787979 0)
(0.0431978 -0.0205316 0)
(0.149805 -0.0363836 0)
(-0.14074 -0.0238523 0)
(-0.0235539 -0.000371244 0)
(0.0409663 0.128476 0)
(-0.074762 0.00984777 0)
(-0.0180868 -0.121935 0)
(0.0975199 0.0871992 0)
(-0.256217 0.0570761 0)
(-0.0344368 -0.0132109 0)
(0.0186241 -0.00714652 0)
(0.0713686 0.0266391 0)
(-0.143988 -0.0731474 0)
(0.0713154 0.00212599 0)
(-0.0259501 0.0411386 0)
(0.000676814 -0.0288883 0)
(-0.108868 0.00777079 0)
(0.0892539 -0.0377174 0)
(0.0499544 0.0410351 0)
(-0.082052 0.0175583 0)
(-0.0200066 -0.0019962 0)
(0.0539765 -0.00635595 0)
(-0.0210286 -0.0293892 0)
(-3.81721e-05 0.0174573 0)
(0.0459988 0.0313104 0)
(-0.0125897 -0.0176528 0)
(-0.0266315 -0.0108442 0)
(-0.0213753 0.0224273 0)
(-0.0701835 0.0155384 0)
(0.0557731 0.0196301 0)
(-0.0734181 -0.0132395 0)
(-0.00554993 -0.172708 0)
(0.0553719 0.054744 0)
(0.0290079 0.0797619 0)
(-0.0285447 -0.092263 0)
(0.0853325 -0.0295043 0)
(0.00168019 0.0965242 0)
(-0.0166697 -0.00288607 0)
(0.0216762 -0.0462243 0)
(-0.0404306 0.0606893 0)
(-0.210072 0.0253693 0)
(-0.0557985 -0.0277827 0)
(-0.153642 0.0495583 0)
(-0.124829 -0.00342388 0)
(-0.0775821 -0.0746266 0)
(0.0630402 0.0425529 0)
(-0.12551 0.0650429 0)
(-0.0183309 -0.0829594 0)
(0.099592 -0.0154232 0)
(-0.080924 0.015935 0)
(-0.0454643 0.019138 0)
(0.0771997 -0.0273092 0)
(-0.0245534 0.0389091 0)
(-0.162091 0.04788 0)
(0.0420563 0.0324696 0)
(-0.244674 -0.00571369 0)
(-0.161565 -0.18909 0)
(0.170968 -0.00347737 0)
(-0.0685174 0.0971017 0)
(-0.0107106 -0.00350355 0)
(-0.0965089 -0.032154 0)
(0.0794745 -0.00179542 0)
(0.00807793 0.0556923 0)
(-0.0278516 0.0728251 0)
(-0.0581528 -0.0528966 0)
(0.0450159 -0.0939938 0)
(-0.0638772 -0.0202793 0)
(0.0475568 0.0173546 0)
(0.0337857 0.0126147 0)
(0.0618338 -0.0377462 0)
(-0.152096 -0.0455771 0)
(-0.141769 0.127555 0)
(-0.00338879 0.00827152 0)
(0.0433872 -0.0733808 0)
(-0.0251252 0.0328609 0)
(-0.155244 0.0192111 0)
(-0.00399821 0.0292893 0)
(-0.0672448 0.0712362 0)
(-0.228978 -0.00332457 0)
(-0.0859964 -0.0843314 0)
(0.0867963 -0.00283023 0)
(0.030235 0.0238248 0)
(-0.0243665 -0.100465 0)
(0.00231134 -0.0299521 0)
(0.0181488 0.14979 0)
(0.00652034 -0.0994641 0)
(-0.0269303 -0.12411 0)
(0.134284 0.0757276 0)
(-0.0347754 -0.00971174 0)
(0.00742269 0.121486 0)
(-0.0192298 0.157531 0)
(0.06968 -0.159543 0)
(-0.023471 -0.094063 0)
(0.00747003 -0.0127357 0)
(0.0854532 -0.000874121 0)
(-0.136081 0.0639995 0)
(-0.0882608 -0.0350482 0)
(-0.0183932 0.0995089 0)
(-0.0786928 0.170712 0)
(-0.221773 0.0412252 0)
(-0.201943 -0.244742 0)
(0.236463 -0.0791335 0)
(-0.212613 0.0615281 0)
(-0.192167 -0.0239141 0)
(-0.0294035 -0.0510203 0)
(0.0528408 0.00297056 0)
(0.0174389 0.0170382 0)
(-0.000255458 0.0798449 0)
(-0.0560491 0.119076 0)
(0.0400223 -0.0327433 0)
(0.0588743 -0.0698073 0)
(0.0726698 0.0117382 0)
(-0.0912007 -0.117802 0)
(-0.0151821 0.053839 0)
(0.127543 -0.00882446 0)
(-0.0899792 0.0698134 0)
(0.00399611 -0.0500057 0)
(0.110159 -0.0807724 0)
(-0.051511 0.15111 0)
(-0.0795371 -0.0384358 0)
(0.101965 -0.185571 0)
(0.0316173 0.042108 0)
(0.036571 0.136701 0)
(-0.192445 0.0284977 0)
(0.082974 -0.1196 0)
(0.0133519 0.0305574 0)
(0.0296158 0.00987625 0)
(0.0414579 0.0215789 0)
(-0.00253593 -0.032747 0)
(0.0595904 -0.0241138 0)
(-0.0454949 0.0927605 0)
(-0.145021 -0.0266624 0)
(-0.118322 0.024003 0)
(0.129339 -0.0440833 0)
(0.0495362 -0.0184555 0)
(-0.127442 -0.0417514 0)
(-0.0355947 0.0489688 0)
(-0.0321785 0.000955693 0)
(-0.0203595 0.0123683 0)
(0.0346051 0.0619676 0)
(-0.0532006 0.0459856 0)
(-0.0439835 -0.0228795 0)
(0.056857 -0.00817988 0)
(0.0390025 -0.0901907 0)
(-0.00842162 0.00696597 0)
(-0.000185865 0.0855443 0)
(-0.00880021 0.0664715 0)
(0.00200483 -0.0947995 0)
(0.00143621 -0.0380835 0)
(-0.0316895 -0.0692767 0)
(-0.0509437 0.00557183 0)
(-0.0514441 0.0647936 0)
(0.0476421 0.0201754 0)
(-0.0261612 -0.0269452 0)
(0.00388991 0.016835 0)
(0.0562996 0.0603343 0)
(0.0672682 -0.109502 0)
(-0.165528 0.00287647 0)
(0.0449758 0.053282 0)
(0.0377044 -0.0649335 0)
(-0.0340656 -0.0143396 0)
(0.0814791 -0.0196696 0)
(-0.0831488 0.128625 0)
(0.153968 0.0542901 0)
(0.0136519 -0.116803 0)
(0.0075243 -0.0439625 0)
(0.00116554 -0.040261 0)
(-0.0180791 -0.00734884 0)
(0.0811844 0.027237 0)
(-9.22201e-05 0.0217622 0)
(0.00393693 -0.00896357 0)
(-0.00154043 0.0749708 0)
(0.0046454 -0.0875298 0)
(-0.00169683 -0.00976713 0)
(0.0283996 0.0079586 0)
(-0.00354809 0.0900758 0)
(0.015103 0.0165425 0)
(0.0107335 0.029979 0)
(-0.0720584 -0.0552847 0)
(0.0931822 -0.15972 0)
(-0.0592545 0.0236478 0)
(0.072202 0.109702 0)
(-0.00516905 -0.0647075 0)
(-0.0185726 -0.0898552 0)
(-0.0224586 0.0238678 0)
(-0.0208158 0.142991 0)
(0.0292006 -0.0121776 0)
(-0.0401587 -0.222692 0)
(0.0549237 0.0501615 0)
(-0.0394462 0.239136 0)
(-0.0162087 -0.0650452 0)
(0.0654543 -0.212867 0)
(-0.0606374 0.0266239 0)
(0.0028618 0.098304 0)
(-0.0435004 -0.0452774 0)
(-0.123693 0.0116724 0)
(-0.0175671 0.083986 0)
(-0.0384754 0.109627 0)
(0.0243286 0.116544 0)
(0.00881495 -0.0204508 0)
(-0.0512401 -0.170156 0)
(0.0201674 -0.0145867 0)
(-0.155491 0.0658028 0)
(0.0341863 -0.0537425 0)
(-0.00439771 -0.162425 0)
(-0.0359272 0.00058716 0)
(-0.125337 0.155114 0)
(-0.0850613 0.0278429 0)
(0.0294461 0.0270489 0)
(0.0808971 -0.088928 0)
(-0.0342424 -0.0525352 0)
(-0.0811588 0.0443916 0)
(0.0795042 -0.0360614 0)
(-0.093372 0.108494 0)
(0.014863 0.0784569 0)
(-0.00990166 0.00732829 0)
(-0.132625 -0.0887278 0)
(-0.120658 -0.0428958 0)
(-0.0295332 0.0772955 0)
(0.0744578 -0.0348122 0)
(0.0217375 -0.174152 0)
(-0.0427923 0.0684237 0)
(-0.105899 0.141743 0)
(0.0991121 0.0713287 0)
(-0.301487 -0.110543 0)
(-0.0128934 -0.0243139 0)
(0.0048236 0.00101145 0)
(0.00642397 0.0320483 0)
(-0.0560819 0.0246567 0)
(-0.138222 0.0276752 0)
(-0.20224 0.0277371 0)
(-0.0778811 -0.00117427 0)
(0.145997 -0.116988 0)
(0.119907 -0.0883687 0)
(0.0649758 0.0187315 0)
(-0.0323391 0.0675364 0)
(0.0620259 0.0386772 0)
(-0.0404158 0.015634 0)
(-0.0104051 0.058627 0)
(-0.052743 -0.0997649 0)
(-0.0132588 0.000845029 0)
(0.0856699 0.0499976 0)
(0.0263839 0.00416171 0)
(-0.0609365 -0.0246303 0)
(-0.0322547 0.0279941 0)
(0.0942741 0.0523762 0)
(-0.0997361 -0.0428132 0)
(0.0456398 -0.0963085 0)
(0.016328 -0.0791562 0)
(-0.0407364 0.00553535 0)
(-0.0938957 0.0521872 0)
(-0.00471326 0.0448481 0)
(-0.030729 0.0147961 0)
(0.0236486 -0.0127726 0)
(-0.0659616 -0.0580295 0)
(0.0530149 -0.0879863 0)
(0.131704 0.0445647 0)
(0.18308 0.101225 0)
(-0.0464245 0.0767965 0)
(-0.0202701 -0.0319161 0)
(-0.0832824 -0.11134 0)
(0.0614282 -0.00883316 0)
(0.0796203 0.0486653 0)
(0.0336024 -0.0098165 0)
(0.00406543 0.0498668 0)
(-0.0626009 0.0102436 0)
(0.0177628 -0.143656 0)
(-0.0206372 0.0654128 0)
(-0.0387782 0.042002 0)
(0.00023747 0.0137786 0)
(0.00151852 -0.0294766 0)
(-0.00507122 0.103355 0)
(-0.0262807 0.015593 0)
(-0.0136766 -0.0766795 0)
(-0.0497717 -0.0978806 0)
(-0.00174433 0.0194936 0)
(0.11422 0.101249 0)
(0.0684751 -0.0140373 0)
(-0.0546373 -0.0174068 0)
(0.0974913 -0.0937521 0)
(-0.0193552 0.0441444 0)
(-0.0845165 0.0957205 0)
(0.0103712 -0.0991037 0)
(-0.00961458 -0.210271 0)
(0.02075 -0.073439 0)
(0.0599614 0.186007 0)
(0.0991721 0.104428 0)
(0.0761103 -0.130407 0)
(0.0392633 -0.0112319 0)
(0.0967295 0.256034 0)
(0.210598 -0.0515421 0)
(0.0597615 -0.207166 0)
(-0.150313 0.0358866 0)
(0.0197245 0.100125 0)
(0.258329 0.0125326 0)
(-0.13409 -0.16393 0)
(0.0218081 -0.100623 0)
(0.244249 0.12613 0)
(-0.0457776 0.257977 0)
(-0.0372162 0.0403888 0)
(0.00810882 -0.194572 0)
(-0.0244808 -0.0724483 0)
(0.107378 0.0560507 0)
(0.0485011 0.0413161 0)
(0.00685188 -0.0423271 0)
(-0.0502655 -0.00554886 0)
(0.00516983 -0.0340618 0)
(0.0580018 0.0381054 0)
(-0.0348903 0.040533 0)
(-0.00150339 0.0448378 0)
(-0.31075 -0.0150355 0)
(0.0411418 -0.0841972 0)
(0.122861 -0.0615424 0)
(0.0359472 -0.0177199 0)
(0.110731 0.315119 0)
(-0.079127 0.0803789 0)
(-0.035461 -0.0917331 0)
(-0.0280127 -0.168749 0)
(0.0173884 0.0428759 0)
(0.00665512 0.0318732 0)
(-0.0354057 -0.115526 0)
(0.00548463 0.0192411 0)
(0.0126666 0.117345 0)
(-0.0516053 0.123002 0)
(-0.0320668 0.000259747 0)
(-0.0442765 -0.189671 0)
(0.0269028 0.0140858 0)
(-0.0541123 0.105039 0)
(-0.14598 0.100832 0)
(0.0183872 0.0818494 0)
(-0.0301572 -0.0497863 0)
(0.0717003 -0.134333 0)
(-0.00927006 -0.121842 0)
(0.0296434 -0.0400545 0)
(-0.140149 -0.0373879 0)
(-0.00581521 0.0381789 0)
(0.000638176 0.0581885 0)
(-0.00855185 -0.0167909 0)
(-0.00761372 0.0574746 0)
(0.0432597 -0.0524222 0)
(0.0908375 -0.0489596 0)
(-0.0174189 0.127043 0)
(-0.0669682 0.104247 0)
(0.102064 -0.0746276 0)
(0.0746441 -0.0403938 0)
(-0.0692108 0.0856825 0)
(0.0363267 -0.097256 0)
(0.0160022 -0.121639 0)
(0.084404 -0.0454689 0)
(-0.0263681 0.0822935 0)
(0.0501442 0.0434982 0)
(0.113818 -0.0570751 0)
(0.0263628 0.012568 0)
(0.145038 -0.0427017 0)
(0.00795294 0.0128598 0)
(-0.0528426 -0.0467527 0)
(-0.0472049 -0.0694678 0)
(0.00588287 0.056959 0)
(0.208012 0.113006 0)
(0.0365854 0.00538534 0)
(0.0342649 -0.147326 0)
(0.0896511 0.06468 0)
(-0.0996089 0.0651683 0)
(-0.00570743 0.0218052 0)
(0.007383 -0.00247838 0)
(0.0413924 -0.0214788 0)
(-0.0406245 -0.0419629 0)
(-0.19919 0.0310708 0)
(0.0102434 0.0281797 0)
(-0.00331645 -0.0290011 0)
(-0.00116239 0.0592282 0)
(-0.114982 0.0638027 0)
(0.0770199 0.0290513 0)
(-0.00330179 -0.0900967 0)
(0.0427382 -0.0111344 0)
(0.073461 0.000444344 0)
(0.109741 0.0104767 0)
(0.0095371 0.0592585 0)
(0.0458105 -0.106341 0)
(0.100774 -0.113362 0)
(0.0414179 0.0682524 0)
(0.0303727 0.149861 0)
(0.095677 -0.170231 0)
(0.0242816 -0.0876033 0)
(-0.0164877 -0.0174618 0)
(0.0111773 0.16827 0)
(0.0946428 0.00618433 0)
(-0.0111819 -0.0674732 0)
(0.0989163 0.0145474 0)
(-0.0501617 0.0282649 0)
(0.157237 -0.0790598 0)
(0.152132 -0.0123196 0)
(-0.155308 0.18428 0)
(-0.0354346 -0.0945122 0)
(0.0586219 -0.127443 0)
(0.0452387 0.143759 0)
(-0.36281 0.00013606 0)
(-0.0648925 -0.0116246 0)
(0.0480052 0.158528 0)
(0.107627 0.00443471 0)
(-0.0546279 -0.0690084 0)
(-0.195001 0.0322689 0)
(0.0481271 0.157961 0)
(0.0682749 -0.0823083 0)
(0.144022 -0.129349 0)
(-0.0719526 -0.0192239 0)
(-0.00500437 -0.0173197 0)
(0.0553426 0.164248 0)
(0.0301241 0.0431133 0)
(0.0443281 0.0114877 0)
(-0.00902432 -0.089953 0)
(0.0167304 -0.179022 0)
(0.0517351 0.0205805 0)
(-0.0919129 -0.0248576 0)
(-0.0171634 0.0599529 0)
(0.0657363 0.194927 0)
(0.0977118 -0.137394 0)
(0.160542 -0.115092 0)
(0.100612 0.122949 0)
(0.191134 -0.00369493 0)
(0.0508722 -0.0240582 0)
(-0.150991 -0.0307074 0)
(-0.148116 0.00936952 0)
(0.184342 0.0709325 0)
(0.0216944 0.0375963 0)
(-0.068994 -0.116188 0)
(-0.028491 0.0780417 0)
(0.137114 0.260963 0)
(0.0811613 -0.0469269 0)
(0.0480867 -0.0493119 0)
(0.0194445 0.0246177 0)
(-0.0341167 -0.0268264 0)
(0.0662244 -0.108265 0)
(0.01103 -0.0630386 0)
(-0.241633 -0.0124034 0)
(-0.0677644 0.0750485 0)
(0.022652 -0.0720885 0)
(-0.00464081 -0.0573837 0)
(-0.0463302 0.107796 0)
(-0.0560762 -0.0376703 0)
(-0.0123496 -0.0699273 0)
(0.0142834 0.167679 0)
(-0.000249009 -0.0816348 0)
(0.184022 -0.0271879 0)
(-0.176904 0.137643 0)
(-0.0491857 -0.0129708 0)
(-0.124311 -0.124895 0)
(0.0874743 -0.0190679 0)
(-0.0413738 -0.0227325 0)
(-0.0064822 -0.0111151 0)
(0.0341789 -0.042334 0)
(-0.0598226 0.00431035 0)
(0.0634504 0.030261 0)
(-0.0718116 0.0364755 0)
(-0.291569 -0.0297279 0)
(-0.00510645 -0.0145765 0)
(-0.05631 0.0210296 0)
(-0.0684698 -0.0288967 0)
(-0.0485043 0.0283354 0)
(-0.00587242 0.0127472 0)
(-0.0138726 -0.0793253 0)
(-0.136322 0.0787396 0)
(-0.00937975 0.0854497 0)
(0.00349704 -0.0456949 0)
(-0.0814834 -0.11052 0)
(0.0588459 -0.000839198 0)
(0.114548 0.148493 0)
(0.0206309 -0.0174313 0)
(0.0548719 -0.0466543 0)
(0.0078685 -0.0260973 0)
(-0.000380843 0.0897598 0)
(0.00786493 0.117258 0)
(0.0539797 -0.0282808 0)
(-0.0102823 -0.163027 0)
(0.00105295 -0.0681025 0)
(0.00992271 0.0810098 0)
(-0.082653 0.0385664 0)
(-0.102536 -0.0487212 0)
(0.0996928 -0.142402 0)
(-0.090011 -0.0737855 0)
(-0.06776 0.114029 0)
(0.0859921 0.0689052 0)
(0.134004 -0.0396059 0)
(-0.0033881 -0.0986552 0)
(0.010623 -0.156579 0)
(0.0429629 0.188855 0)
(0.086801 0.100612 0)
(0.0275947 -0.198686 0)
(-0.0837012 0.0371961 0)
(0.0727927 0.0280697 0)
(-0.0229834 -0.197854 0)
(-0.0490736 -0.040932 0)
(-0.0163022 0.271735 0)
(0.106352 0.0823631 0)
(-0.09249 -0.10453 0)
(-0.08851 0.174526 0)
(-0.0878585 0.00323638 0)
(-0.0195864 -0.0148889 0)
(0.0362065 0.127203 0)
(-0.00893377 0.1058 0)
(-0.0644376 0.0681242 0)
(-0.0549169 -0.0960346 0)
(-0.0457937 0.023319 0)
(0.127429 -0.210653 0)
(-0.011375 -0.10276 0)
(0.0541235 0.0470523 0)
(-0.172774 0.0273051 0)
(0.169869 0.0666312 0)
(-0.0753435 0.0828341 0)
(0.0124095 0.0676352 0)
(-0.108538 -0.0649868 0)
(-0.0385061 -0.169853 0)
(-0.00589868 -0.0295284 0)
(-0.0177539 0.0254994 0)
(-0.105665 0.0641283 0)
(0.0681092 0.0854081 0)
(-0.0390017 -0.141794 0)
(0.0257864 -0.0977099 0)
(0.0781253 -0.0511503 0)
(-0.0537724 0.160801 0)
(-0.0469374 0.151204 0)
(0.00333129 -0.0690401 0)
(0.00628822 -0.065007 0)
(-0.0969298 0.0621376 0)
(0.0180488 0.0691973 0)
(0.0185812 -0.160078 0)
(-0.00456836 -0.00974161 0)
(0.0699777 0.198611 0)
(0.119129 0.107177 0)
(-0.0538389 0.00536159 0)
(0.0614116 -0.0630155 0)
(0.0365182 -0.0880348 0)
(-0.0645202 -0.0817626 0)
(0.00328268 -0.0123788 0)
(-0.108213 0.0418536 0)
(0.0277128 0.0199764 0)
(-0.0815433 -0.0813975 0)
(0.115801 0.0298738 0)
(-0.00899912 0.0453126 0)
(0.117628 -0.0807281 0)
(0.00524311 -0.0696728 0)
(-0.008139 0.195156 0)
(-0.00167504 -0.111677 0)
(-0.0730862 -0.0164397 0)
(0.00861997 0.16567 0)
(-0.033055 -0.0496027 0)
(0.0535936 -0.083102 0)
(-0.0961222 -0.128301 0)
(0.087384 0.0247479 0)
(-0.0901416 0.0436649 0)
(-0.0695475 -0.0903981 0)
(-0.0113941 -0.0640203 0)
(0.0947008 0.0821184 0)
(0.0421773 0.296636 0)
(-0.217339 -0.149845 0)
(-0.00164518 -0.214196 0)
(-0.00203741 0.0884427 0)
(0.0229498 0.018638 0)
(0.0462775 0.0188205 0)
(0.00697428 0.0396763 0)
(-0.064478 -0.0330024 0)
(-0.0364374 0.0768503 0)
(-0.0316218 -0.015236 0)
(0.0435058 -0.113221 0)
(0.0149812 0.0873043 0)
(-0.167319 -0.0339881 0)
(0.0229029 -0.0189924 0)
(0.0949047 0.0172879 0)
(0.00179541 0.00832696 0)
(-0.000759791 -0.00650496 0)
(-0.0103526 0.00651315 0)
(0.0054172 0.0362654 0)
(0.0368715 0.00872217 0)
(-0.0713237 0.0119789 0)
(-0.0234807 -0.0610392 0)
(0.0420532 -0.119909 0)
(-0.111968 0.0986029 0)
(0.0219644 -0.0704388 0)
(0.0449157 -0.170086 0)
(0.0994398 0.012084 0)
(-0.0483701 0.030871 0)
(-0.0104542 0.017644 0)
(0.0630217 0.0394336 0)
(0.0131685 -0.0480372 0)
(-0.0128964 -0.016788 0)
(0.00349551 0.0319441 0)
(0.0794371 0.0223481 0)
(0.0392412 -0.0190931 0)
(4.68496e-05 -0.0428722 0)
(0.0478316 -0.082557 0)
(-0.0259057 0.0585178 0)
(-0.0311956 0.0136498 0)
(-0.106078 -0.0928126 0)
(0.0223554 0.00619336 0)
(0.0461774 0.137694 0)
(0.0052682 0.117575 0)
(0.0553471 0.00573043 0)
(-0.041733 -0.06329 0)
(-0.0992143 0.0665739 0)
(0.112594 0.100712 0)
(0.331497 -0.0635107 0)
(0.00440982 0.00657737 0)
(-0.0581524 0.00659132 0)
(-0.0303051 -0.141535 0)
(-0.0678827 -0.182964 0)
(-0.0174723 0.0983149 0)
(0.0211218 0.126973 0)
(0.139745 -0.00653232 0)
(0.0346692 0.000631873 0)
(0.0177204 0.0222728 0)
(0.297436 0.00723728 0)
(0.0109154 -0.082642 0)
(0.0460295 -0.100212 0)
(0.0255413 -0.138677 0)
(-0.124854 0.168447 0)
(-0.0117751 0.0812641 0)
(-0.0347345 -0.0796477 0)
(-0.0105457 -0.140477 0)
(0.0888849 0.0607841 0)
(-0.0306265 0.164814 0)
(0.0311238 -0.0207508 0)
(-0.0983402 -0.0231226 0)
(-0.0929483 0.122868 0)
(-0.030985 0.0554113 0)
(-0.0235309 -0.072942 0)
(-0.0777672 -0.0812146 0)
(0.0518602 -0.0348617 0)
(-0.168541 0.111447 0)
(-0.00718438 0.173733 0)
(0.0426169 -0.0607931 0)
(0.0312391 -0.148295 0)
(0.141301 -0.161422 0)
(-0.0729324 0.0139718 0)
(-0.0191878 0.0901184 0)
(0.0234732 0.0976172 0)
(0.0637912 -0.157009 0)
(0.00701883 -0.124707 0)
(-0.0018199 0.115977 0)
(0.0217931 0.0760662 0)
(-0.0356894 -0.019241 0)
(0.0275729 -0.0928435 0)
(0.0379834 0.0778821 0)
(0.0819476 0.0157948 0)
(0.0487711 0.00428673 0)
(-0.0305266 0.150313 0)
(0.0674425 -0.0112969 0)
(-0.0538883 -0.104988 0)
(-0.127845 -0.160538 0)
(-0.0336061 -0.0156629 0)
(0.0224141 0.114523 0)
(-0.00646045 -0.0150604 0)
(-0.0518768 -0.129582 0)
(0.0375116 0.0110332 0)
(0.111819 0.26875 0)
(0.110273 -0.0173338 0)
(-0.0675658 -0.081403 0)
(-0.00303007 -0.0193594 0)
(-0.0289038 -0.0826253 0)
(-0.016519 0.0601008 0)
(-0.0656929 -0.025105 0)
(0.0959518 -0.103734 0)
(-0.0138507 0.161367 0)
(0.0741346 0.0998215 0)
(-0.0212865 -0.189385 0)
(0.0757049 -0.0102419 0)
(-0.0244023 -0.0140251 0)
(0.0289319 -0.0355008 0)
(-0.0529375 0.0776811 0)
(-0.0409945 0.0550774 0)
(0.000169686 0.00264328 0)
(0.00131656 -0.0728137 0)
(0.02861 -0.0856893 0)
(0.113399 0.148145 0)
(-0.0310862 0.0906881 0)
(-0.0389953 -0.00520457 0)
(-0.0125989 -0.0559126 0)
(-0.14996 -0.00342492 0)
(-0.0122256 -0.0223851 0)
(0.0567777 -0.14427 0)
(-0.106726 0.0675624 0)
(0.030354 -0.0371001 0)
(0.0073007 0.00858596 0)
(-0.0104312 -0.0186607 0)
(0.0325741 -0.0046975 0)
(0.0152741 0.132765 0)
(0.00733982 -0.0707691 0)
(0.0979583 -0.0870026 0)
(0.0977961 0.11084 0)
(0.0390262 0.0210937 0)
(-0.0313058 -0.146288 0)
(-0.0287537 -0.103478 0)
(0.0263116 0.135282 0)
(-0.073835 -0.000158122 0)
(-0.147133 0.00296574 0)
(-0.234355 0.0495565 0)
(-0.0288343 0.108669 0)
(-0.0324531 0.151796 0)
(0.0561367 0.0676712 0)
(-0.0131685 -0.0659597 0)
(0.0216198 -0.12926 0)
(-0.0472581 0.0683747 0)
(0.0186273 0.227388 0)
(0.0618396 -0.00108784 0)
(-0.0217236 -0.219624 0)
(-0.0120637 -0.0296415 0)
(-0.0974487 0.121368 0)
(-0.114989 0.0429897 0)
(0.0675721 -0.0124486 0)
(-0.0662605 0.0262108 0)
(0.0796923 -0.100442 0)
(-0.0381113 0.0114606 0)
(0.0101629 0.00860175 0)
(0.0255987 -0.0886988 0)
(-0.135954 0.0277427 0)
(-0.0147511 0.0713365 0)
(0.0407797 -0.0151621 0)
(-0.0162721 -0.0790702 0)
(-0.0769494 -0.013873 0)
(-0.164114 0.161083 0)
(-0.0479231 -0.0116248 0)
(-0.204705 -0.152009 0)
(0.0169961 0.0760125 0)
(0.0582861 0.0242417 0)
(0.0438413 0.119151 0)
(-0.147215 0.0229342 0)
(0.0133534 -0.0892811 0)
(0.012126 -0.0129307 0)
(-0.0649898 0.0880019 0)
(0.0872224 0.0231753 0)
(-0.0544541 -0.166042 0)
(-0.0274619 -0.0708521 0)
(0.0198176 0.0351305 0)
(0.0194447 0.05432 0)
(0.0375131 -0.0716854 0)
(-0.00253257 0.109479 0)
(-0.0662468 -0.0374618 0)
(-0.105037 -0.0847839 0)
(-0.144031 0.107118 0)
(0.0382255 -0.0623354 0)
(-0.0596149 -0.183052 0)
(-0.035726 0.0471957 0)
(-0.0191479 0.0735371 0)
(-0.0113082 -0.0747947 0)
(-0.0663606 0.0147151 0)
(-0.103253 0.0543059 0)
(0.109683 0.131229 0)
(0.0674062 -0.0121065 0)
(-0.0459307 -0.10976 0)
(-0.0270055 -0.180804 0)
(0.0725951 0.0885833 0)
(-0.00873613 0.105223 0)
(-0.163597 -0.0759081 0)
(-0.0346537 -0.0628033 0)
(0.0363579 0.0652102 0)
(0.108832 0.119222 0)
(-0.00149728 -0.00683074 0)
(0.129186 -0.113675 0)
(-0.0124903 0.0400877 0)
(-0.119099 0.0338646 0)
(-0.0456687 -0.0358611 0)
(-0.0864403 -0.0333513 0)
(-0.0175704 0.0484067 0)
(0.23663 0.00163489 0)
(0.118112 -0.0156712 0)
(-0.0301756 0.0432579 0)
(-0.0708527 -0.0164405 0)
(-0.00151269 -0.0702803 0)
(-0.0463751 0.0960676 0)
(-0.0530223 0.0277556 0)
(-0.000641482 0.0142106 0)
(0.00928321 -0.0236516 0)
(0.00352637 -0.0119437 0)
(0.00280059 0.0233345 0)
(0.0179244 0.0252061 0)
(-0.00392939 -0.0213834 0)
(-0.0474799 0.0624822 0)
(-0.0877394 0.0518493 0)
(0.0476159 -0.102243 0)
(0.00119465 -0.0993097 0)
(0.025302 -0.0213336 0)
(0.0083436 -0.104705 0)
(0.0720221 0.00753594 0)
(-0.0560756 -0.00562351 0)
(-0.0355141 0.0255617 0)
(0.00720134 0.0836998 0)
(-0.0304174 -0.172597 0)
(-0.0312438 0.0713538 0)
(0.0675169 0.0877314 0)
(0.050682 -0.0258548 0)
(-0.0103779 -0.136586 0)
(0.111311 0.0708733 0)
(-0.00877432 0.235146 0)
(0.0780192 -0.00774223 0)
(-0.0502599 0.0357808 0)
(-0.0472437 0.0479925 0)
(0.0626011 -0.0526495 0)
(0.112342 -0.0106308 0)
(-0.137863 0.0231663 0)
(0.0842575 0.0517196 0)
(-0.0642118 -0.0241216 0)
(-0.012698 -0.0480961 0)
(0.0348322 0.0983807 0)
(0.188296 0.0318046 0)
(0.0784562 -0.104942 0)
(-0.0441458 0.0748285 0)
(-0.1531 0.136887 0)
(-0.305456 -0.10834 0)
(-0.13276 -0.064106 0)
(0.00285029 0.044157 0)
(0.00737788 -0.035 0)
(0.0777913 0.0566833 0)
(0.051967 -0.0203941 0)
(-0.21174 -0.095964 0)
(-0.00370107 0.107735 0)
(-0.125001 0.0194606 0)
(0.170828 -0.000137105 0)
(-0.0398987 -0.0668538 0)
(-0.0698578 0.0172938 0)
(0.153483 0.0615883 0)
(0.163198 0.0731675 0)
(-0.0577005 -0.0800213 0)
(0.0739403 -0.140672 0)
(0.0484935 0.0737973 0)
(0.0189268 0.142653 0)
(0.110027 0.0285531 0)
(-0.0676593 -0.0960747 0)
(-0.069668 -0.043636 0)
(0.146865 0.138399 0)
(-0.00965211 0.0648029 0)
(-0.171297 -0.076138 0)
(-0.0512947 -0.126363 0)
(-0.0752886 -0.0245478 0)
(0.101032 0.00890568 0)
(-0.00833035 -0.0498587 0)
(0.11127 0.133418 0)
(0.0796069 -0.0442788 0)
(-0.213532 -0.078943 0)
(0.0886837 0.0490516 0)
(0.00795613 0.0334454 0)
(-0.0969706 -0.11357 0)
(-0.0932582 -0.043502 0)
(0.189021 -0.0110793 0)
(0.0154418 0.0938426 0)
(-0.0992551 0.0308712 0)
(-0.184654 -0.0807851 0)
(-0.0572113 0.0124464 0)
(0.172108 -0.0606432 0)
(0.027304 -0.0128952 0)
(-0.00757644 -0.0474447 0)
(0.000964018 0.00959741 0)
(-0.115964 0.0622444 0)
(0.0196185 -0.0806157 0)
(0.0206791 -0.0632584 0)
(-0.0269376 0.0149882 0)
(0.0524328 0.0386892 0)
(0.000347052 -0.0533881 0)
(0.0917053 -0.0220861 0)
(-0.0385353 0.115438 0)
(-0.000340923 0.0365076 0)
(-0.0379252 0.0604897 0)
(0.0122471 -0.00424997 0)
(-0.00725086 -0.154259 0)
(-0.0334094 0.0138945 0)
(-0.0328255 0.0980794 0)
(0.143913 -0.0157979 0)
(0.116291 -0.00743136 0)
(0.0073152 -0.00688689 0)
(0.00324353 0.0978369 0)
(0.0138661 0.00823086 0)
(-0.0168514 0.00742867 0)
(0.00909662 -0.00725371 0)
(-0.00433852 -0.0673524 0)
(0.027527 0.0584597 0)
(0.0213258 0.0842902 0)
(0.0166615 -0.0196678 0)
(0.00804605 0.00247891 0)
(0.135488 -0.0862642 0)
(0.120667 -0.0720198 0)
(-0.047624 0.00487425 0)
(-0.0428475 -0.0133337 0)
(-0.101907 -0.00801835 0)
(-0.137357 0.0206344 0)
(-0.0568986 -0.104099 0)
(0.051274 -0.00575709 0)
(0.0179532 0.00558549 0)
(-0.128415 -0.00219828 0)
(0.245522 0.0559618 0)
(0.0465349 0.0358528 0)
(0.0315481 0.0379689 0)
(-0.195924 -0.00095794 0)
(-0.178478 0.0678645 0)
(0.052699 0.0809119 0)
(0.219995 0.00274839 0)
(-0.111951 -0.0744748 0)
(0.0825509 -0.020162 0)
(0.263091 0.0196532 0)
(-0.145413 0.107373 0)
(0.180852 -0.00475701 0)
(-0.0394471 -0.131775 0)
(-0.0474069 -0.0848519 0)
(0.0836683 -0.0400344 0)
(0.0566316 0.0833023 0)
(-0.0622889 0.00890106 0)
(0.0433213 0.159272 0)
(-0.0433912 0.0363762 0)
(0.00360447 0.0268772 0)
(-0.00270677 0.00117493 0)
(-0.0702726 -0.18072 0)
(-0.0273945 -0.0551474 0)
(-0.0593524 -0.0337234 0)
(0.0205415 -0.0264704 0)
(-0.0207241 0.0712253 0)
(0.035053 0.0133132 0)
(0.0787784 -0.0183042 0)
(-0.10377 -0.0128594 0)
(0.143684 -0.0384829 0)
(0.0847221 -0.0131692 0)
(-0.143564 0.107365 0)
(0.0121932 0.0417416 0)
(0.0132389 -0.108742 0)
(0.141369 0.0587568 0)
(-0.0607566 -0.0481639 0)
(-0.0280496 -0.00641139 0)
(0.0916429 0.131454 0)
(-0.0452514 0.0471702 0)
(0.0329351 -0.102336 0)
(0.0134891 -0.123008 0)
(0.00119195 0.227831 0)
(0.0718399 0.127223 0)
(0.0309018 -0.128489 0)
(0.0573106 -0.160159 0)
(-0.0376766 0.0685309 0)
(-0.0378005 0.0241565 0)
(-0.12201 -0.0837548 0)
(0.0927395 -0.0233042 0)
(0.085935 0.0847246 0)
(-0.0804332 0.053746 0)
(-0.215505 -0.164416 0)
(0.0352051 -0.116385 0)
(0.205756 0.150827 0)
(0.201011 -0.00810232 0)
(-0.111595 -0.0386793 0)
(-0.0723842 0.154248 0)
(-0.0162022 0.0289555 0)
(-0.18738 -0.0573686 0)
(-0.125747 -0.0884074 0)
(0.0183417 -0.017914 0)
(0.0862329 0.0238218 0)
(0.0761272 -0.0126405 0)
(0.101862 -0.0311769 0)
(0.151697 0.120065 0)
(-0.0265048 -0.0476689 0)
(0.0635522 -0.131085 0)
(-0.191046 0.00447423 0)
(0.138152 0.143299 0)
(-0.166177 0.0183725 0)
(0.00836718 -0.0483791 0)
(-0.0795317 -0.0519339 0)
(0.029094 0.0836577 0)
(-0.0313807 0.123079 0)
(-0.000216077 -0.0646908 0)
(0.0134057 -0.138955 0)
(0.0690047 0.119672 0)
(0.115362 0.00237265 0)
(0.0156885 -0.148285 0)
(-0.097419 0.0263781 0)
(0.067736 0.00497574 0)
(0.0310652 0.0699095 0)
(0.000946747 0.0731228 0)
(0.000236868 -0.0184779 0)
(0.00119057 -0.0156202 0)
(0.00229342 -0.0399407 0)
(-0.00381485 0.112704 0)
(0.000127897 0.0283194 0)
(0.0262884 -0.0401934 0)
(-0.00423349 -0.0168219 0)
(-0.00428117 -0.162271 0)
(0.00625302 0.0784837 0)
(0.0116192 0.0504839 0)
(0.0173308 -0.13993 0)
(-0.0298152 0.197337 0)
(-0.031485 -0.0398588 0)
(-0.0338833 -0.313272 0)
(-0.00302096 0.0868359 0)
(0.00435369 0.0703494 0)
(-5.4657e-05 -0.00314211 0)
(-0.0113297 0.0052448 0)
(-0.00720309 0.121246 0)
(0.0453229 0.170111 0)
(-0.0688326 0.0011203 0)
(0.0434214 -0.121228 0)
(-0.0930816 0.0208811 0)
(-0.106303 0.0668105 0)
(-0.0687736 -0.0566409 0)
(-0.0815897 -0.0937763 0)
(0.122601 0.0355212 0)
(-0.0021673 0.128435 0)
(0.00574249 0.114775 0)
(0.0815566 -0.01003 0)
(-0.135805 -0.190195 0)
(-0.00636126 -0.0538404 0)
(-0.0227441 0.141431 0)
(-0.0479662 -0.110814 0)
(-0.0700874 -0.0264251 0)
(-0.0168898 0.167646 0)
(0.0652007 0.126834 0)
(0.0215011 -0.0133998 0)
(0.0188788 -0.171555 0)
(0.00670133 -0.0513695 0)
(-0.0220143 0.0782383 0)
(-0.076286 -0.0850143 0)
(0.122674 -0.0040952 0)
(-0.00911563 -0.0494367 0)
(0.0365147 0.0829029 0)
(-0.0344358 0.0743066 0)
(-0.0150961 -0.0801083 0)
(-0.028268 -0.0187616 0)
(-0.0409423 0.0964511 0)
(0.1912 0.104469 0)
(0.0493219 -0.0471766 0)
(0.058477 -0.0875014 0)
(0.101615 -0.0669998 0)
(0.0254504 -0.0600392 0)
(-0.00320774 0.132658 0)
(0.0617393 0.0362336 0)
(-0.0418161 -0.0456126 0)
(-0.0139045 -0.0579114 0)
(-0.0959898 0.0692075 0)
(0.0301814 0.141295 0)
(-0.0520246 -0.0952802 0)
(0.00627613 0.00499549 0)
(0.00774479 -0.0113724 0)
(-0.0201903 -0.0476928 0)
(-0.00226104 -0.0610986 0)
(-0.095946 0.00516334 0)
(0.118352 0.203807 0)
(-0.0333364 0.0277781 0)
(-0.0302614 -0.170291 0)
(0.0659395 -0.191627 0)
(0.0892484 0.0465355 0)
(0.111181 0.224323 0)
(-0.0091297 0.0817311 0)
(0.0114998 -0.0232035 0)
(-0.109392 -0.105515 0)
(0.144958 -0.0437557 0)
(0.0772221 -0.0659943 0)
(0.106823 0.168456 0)
(0.000131707 0.09086 0)
(-0.129317 -0.0600936 0)
(-0.00961018 -0.117578 0)
(-0.0220103 0.0822955 0)
(0.0222432 0.00109491 0)
(-0.0232688 -0.0594081 0)
(-0.0851219 -0.0219385 0)
(-0.0209114 0.130857 0)
(-0.0110877 0.00523608 0)
(-0.0604204 -0.0299133 0)
(0.0284116 -0.0697532 0)
(-0.000400263 0.045431 0)
(-0.0133059 0.0989653 0)
(0.0866932 -0.0604814 0)
(-0.0103149 -0.154012 0)
(-0.0444402 0.0611414 0)
(0.0268829 0.159325 0)
(0.00778078 0.0320723 0)
(-0.063389 -0.0626914 0)
(0.0203376 -0.0891143 0)
(-0.00176408 0.0154729 0)
(0.0180471 0.0926491 0)
(0.000994585 0.00834332 0)
(-0.00456234 -0.00681471 0)
(-0.000771307 -0.0434659 0)
(-0.000847356 -0.00915289 0)
(0.00388048 0.106948 0)
(-0.0083046 0.0696336 0)
(0.0383157 -0.113526 0)
(0.198813 -0.142617 0)
(0.027752 0.0293926 0)
(0.0148889 -0.0576672 0)
(0.000900201 0.0345476 0)
(-0.00605014 0.0932877 0)
(0.0315187 -0.185326 0)
(-0.036923 -0.0375468 0)
(-0.0428141 0.212566 0)
(-0.0355512 0.133717 0)
(-0.00714431 -0.137295 0)
(0.0539642 -0.124151 0)
(-0.0153957 0.0241969 0)
(0.224443 0.0246182 0)
(0.0624674 0.0539921 0)
(0.0386704 0.146327 0)
(0.0250846 0.072624 0)
(0.0274309 -0.102477 0)
(0.0457993 -0.14488 0)
(-0.00146357 -0.0363137 0)
(0.111872 0.001552 0)
(0.0182533 0.207952 0)
(-0.0611705 0.119754 0)
(-0.0246199 -0.102823 0)
(0.0293757 -0.158209 0)
(-0.194842 0.0549751 0)
(0.0856237 0.00507466 0)
(0.295762 -0.0403877 0)
(-0.0628613 0.154238 0)
(-0.17555 0.0996341 0)
(-0.0736522 0.0308413 0)
(0.16322 -0.0469485 0)
(-0.0270694 -0.100331 0)
(-0.0195793 -0.056689 0)
(-0.00984549 0.0499384 0)
(-0.046559 -0.126233 0)
(0.0106544 -0.0990415 0)
(-0.0843234 0.0670242 0)
(-0.0519838 0.0561213 0)
(0.0424386 0.0338642 0)
(-0.062011 0.0542628 0)
(0.0473793 -0.0748125 0)
(-0.0319611 0.0452714 0)
(0.0157977 0.0377226 0)
(0.0193908 0.132689 0)
(0.0821535 -0.137545 0)
(-0.031924 -0.107837 0)
(0.00211067 0.0841275 0)
(-0.0672493 -0.0393629 0)
(0.0484852 0.00305564 0)
(0.0646614 0.0756316 0)
(-0.0862029 -2.74007e-06 0)
(0.0269443 0.0896359 0)
(-0.0350411 0.109556 0)
(-0.000458277 -0.123487 0)
(-0.00534787 -0.113586 0)
(-0.0784799 -0.0205773 0)
(-0.0567104 -0.0424514 0)
(-0.0468692 0.033029 0)
(-0.0774817 -0.0705061 0)
(0.0682229 0.0405412 0)
(-0.102553 -0.000874534 0)
(0.105776 -0.0581475 0)
(0.0390391 0.00141771 0)
(-0.111127 -0.010072 0)
(0.00864859 0.22203 0)
(0.00112984 -0.0629191 0)
(0.0493627 -0.0918407 0)
(0.0714801 -0.0700561 0)
(0.0417472 -0.0793885 0)
(-0.0650597 0.0872247 0)
(-0.100658 0.0869974 0)
(-0.063423 0.0727146 0)
(0.0175405 0.0312594 0)
(0.0174061 -0.0435858 0)