/*--------------------------------*- C++ -*----------------------------------*\
| =========                 |                                                 |
| \\      /  F ield         | OpenFOAM: The Open Source CFD Toolbox           |
|  \\    /   O peration     | Version:  v2012                                 |
|   \\  /    A nd           | Website:  www.openfoam.com                      |
|    \\/     M anipulation  |                                                 |
\*---------------------------------------------------------------------------*/
FoamFile
{
    version     2.0;
    format      ascii;
    class       volScalarField;
    location    "0";
    object      p;
}
// * * * * * * * * * * * * * * * * * * * * * * * * * * * * * * * * * * * * * //

dimensions      [0 2 -2 0 0 0 0];


internalField   nonuniform List<scalar> 
4000
(
-0.0937735
-0.144569
-0.0885511
-0.00142479
0.0390076
-0.0648861
0.0581173
0.221124
0.0943704
-0.0313541
-0.0284811
0.0174469
-0.061178
0.0639084
0.123825
0.116041
-0.00893542
0.0673915
0.0236519
0.0764059
-0.108003
-0.114884
-0.179211
-0.0749317
0.0883673
0.0777617
0.0670519
-0.0538001
-0.131366
-0.114704
-0.0557389
-0.262118
-0.343535
-0.283152
-0.241209
-0.257387
0.0274051
0.0256224
-0.169091
0.108135
0.27188
0.141201
0.0232
0.0721919
-0.196793
-0.291222
-0.173803
-0.134133
-0.320931
-0.369089
-0.281534
-0.340348
-0.374007
-0.318012
-0.15051
-0.0498741
0.0357735
0.033206
0.00890588
-0.0710295
-0.147788
0.0153383
-0.0492217
0.0258163
0.0588991
0.0361829
0.0333679
0.0935416
0.174625
0.127634
0.187758
0.209336
0.135075
0.104078
-0.00885778
-0.0533838
-0.114946
-0.108061
-0.114601
-0.149995
-0.0740405
0.000351535
-0.103635
-0.245018
-0.0474222
0.153125
-0.114349
-0.148845
-0.153785
-0.0466909
-0.000205778
0.0156187
0.110409
0.109279
0.0470461
0.0503529
-0.0763024
-0.0727058
-0.0536992
-0.00290212
-0.145819
-0.0278084
-0.0438218
-0.125942
-0.0581894
-0.000344341
0.0824067
0.170297
0.0820427
0.0893563
0.0625874
-0.0542961
-0.103955
0.0267287
0.125958
0.122029
0.0160892
0.0400435
0.0255004
0.0459238
-0.00528062
0.0249373
-0.196243
-0.164436
0.0727554
0.058071
-0.0176866
-0.0959742
-0.0817749
-0.139175
-0.177927
-0.238589
-0.245888
-0.197115
-0.253853
-0.210609
-0.0851967
-0.0104154
-0.0462215
0.105256
0.228995
0.168658
0.0622635
-0.0162739
-0.128809
-0.248095
-0.240792
-0.13406
-0.253542
-0.408203
-0.37224
-0.345381
-0.389221
-0.363412
-0.148271
0.0368616
0.0735069
0.0596617
-0.0325709
-0.108535
-0.169068
-0.0594765
-0.00290763
0.103497
0.0179371
0.031914
0.0874902
0.130953
0.109782
0.140123
0.154173
0.15062
0.116407
0.121236
0.0831348
-0.0429198
-0.108895
-0.0796603
-0.140526
-0.0985061
-0.0467589
-0.0654446
-0.142927
-0.192132
-0.0477137
-0.0132123
-0.130792
-0.0982099
-0.152431
0.0144751
0.0230051
-0.00582798
0.109912
0.0783183
0.0754697
-0.0131877
-0.0129767
-0.0309432
-0.0336896
-0.0319265
-0.0966428
-0.0627157
-0.0488302
-0.153179
-0.0616323
-0.0428614
0.13481
0.20229
0.0977281
0.0518931
-0.034012
-0.0740225
-0.00327958
0.0673411
0.0874269
0.0705387
0.118856
0.0813302
0.0464594
-0.0398113
-0.0799108
0.0658317
-0.0492496
-0.120563
-0.0343182
0.00388775
-0.0289219
-0.0762872
-0.0391803
-0.0884115
-0.241221
-0.259904
-0.20929
-0.257412
-0.228964
-0.102612
-0.11368
0.10216
0.0409176
0.0819203
0.159744
0.17846
-0.00340785
-0.0722067
-0.0852591
-0.178177
-0.17883
-0.168463
-0.342546
-0.418222
-0.359486
-0.393489
-0.306221
-0.225378
-0.0639005
0.0240539
0.0265551
-0.0357667
0.00164698
-0.121889
-0.137349
-0.0089509
0.0520563
0.0887525
0.053912
0.0754297
0.147225
0.119623
0.0864723
0.153692
0.188656
0.126792
0.0509706
0.0884089
0.0559983
0.0362058
-0.137561
-0.141236
-0.109579
-0.122547
-0.0203141
-0.12124
-0.0770413
-0.10529
-0.0515823
0.0205909
-0.141847
-0.177516
-0.142513
-0.0372864
0.0961407
0.0238871
0.0257225
0.0854497
0.0546672
0.0481591
0.0365364
0.0228087
-0.0672119
-0.0322379
-0.100834
-0.0384039
0.00786173
-0.0601763
-0.0888962
-0.0959381
0.0954232
0.0572373
0.0951823
0.0516506
-0.0204001
-0.0632194
-0.0132685
0.098894
0.17359
0.155606
0.136007
0.0173436
0.0732925
-0.0107443
-0.0384255
0.0551627
0.0081129
-0.083019
-0.00182974
0.0329782
-0.0513277
-0.105747
-0.167389
-0.134203
-0.14875
-0.223422
-0.273477
-0.200926
-0.0531935
-0.0949053
-0.139393
0.0314616
0.159767
0.250095
0.136385
0.0549893
0.0432087
-0.0487084
-0.0346427
-0.232665
-0.258312
-0.10154
-0.222264
-0.367991
-0.445412
-0.374754
-0.287574
-0.226641
-0.140187
-4.44789e-05
0.0858008
0.0291296
-0.00604035
0.0509305
-0.0934562
-0.124933
0.0300485
0.0476036
0.0377195
0.129424
0.162558
0.0450119
0.112749
0.155762
0.0757554
0.120617
0.044969
0.0279862
0.0718193
0.02314
-0.0363538
-0.0925484
-0.172643
-0.0669631
-0.0837079
-0.104585
-0.125001
-0.0909455
-0.107966
-0.0301712
-0.18044
-0.172713
-0.076792
0.0120697
0.00226775
-0.0191814
-0.0409526
0.114943
0.103659
0.057957
0.0216547
0.062502
-0.0069597
-0.0579874
-0.0885831
-0.0392133
-0.0122865
-0.16067
-0.0928094
-0.0157602
-0.0190255
0.0757859
0.0212011
0.0178562
-0.00418485
0.0195225
0.0593805
-0.02661
0.10734
0.24117
0.209012
0.049758
0.0650473
0.0358355
-0.0736813
0.00679683
0.0730035
-0.0879
-0.0513599
-0.0602982
-0.0440509
-0.0388522
-0.142496
-0.201357
-0.139091
-0.137165
-0.242097
-0.118356
-0.0991995
0.00918428
0.0344545
0.0770703
0.00959387
0.0512564
0.1255
0.174607
0.11675
-0.00285635
-0.0540689
-0.0980055
-0.173945
-0.178525
-0.212428
-0.353676
-0.472944
-0.339657
-0.238843
-0.14909
-0.111865
-0.00930395
0.0568682
-0.00987092
0.05424
-0.00595768
-0.0766683
-0.0376697
0.00636934
0.0397177
0.0857446
0.115861
0.166468
0.0921641
0.151048
0.190732
0.0837325
-0.00261378
-0.0159127
0.0324591
-0.0317865
-0.0124301
-0.000480853
-0.0630004
-0.112314
-0.0681773
-0.0667456
-0.112522
-0.083721
-0.0477736
-0.0832812
-0.0186308
-0.212895
-0.181192
-0.119731
-0.00178941
-0.0139464
-0.00840521
-0.0206572
0.0710358
0.121869
0.0104054
0.0395848
0.0108258
0.0548483
0.0110751
-0.0871837
-0.0904343
-0.070499
-0.0181358
-0.118336
-0.0802242
-0.0550409
-0.0241395
-0.0536436
0.0561126
-0.0218439
-0.0527853
0.0486362
0.163593
0.164457
0.124969
0.250308
0.201884
0.00519778
-0.137596
-0.0965829
0.0734745
0.107322
0.0747853
0.0595521
0.0454546
-0.0380206
-0.106042
-0.184421
-0.176336
-0.161978
-0.157723
-0.194361
-0.108175
0.0311667
0.0476649
0.0889638
0.0618761
0.137355
0.0946471
0.218379
0.196491
0.158723
0.0177231
-0.0248379
-0.122267
-0.254129
-0.226911
-0.18535
-0.352427
-0.315719
-0.252311
-0.26403
-0.231816
-0.0550715
0.0212434
0.0892859
0.0669825
0.0936687
0.0266476
-0.0962277
-0.0215043
0.0342593
0.0958275
0.0262369
0.117684
0.0975585
0.0629815
0.0885132
0.0820257
0.0607115
-0.00743996
0.0275836
0.0215435
0.062767
0.0244207
0.00983121
-0.0596893
-0.0852512
-0.052019
-0.0445114
-0.100766
-0.0433089
-0.095587
-0.134597
-0.0681745
-0.130409
-0.165266
-0.0470462
-0.053027
-0.117306
-0.02639
-0.0412744
0.0522162
0.125489
0.0740654
0.0515909
-0.0176566
-0.0401681
0.00767564
-0.135239
-0.143568
-0.191901
-0.0588454
-0.00821285
-0.00336855
-0.0634911
-0.0598663
-0.0724793
-0.00854208
-0.0635972
0.0349815
0.134644
0.0847826
0.129008
0.169773
0.0695838
0.100627
0.154967
0.162163
0.140319
0.0552769
-0.071376
-0.0796791
0.0204621
0.126693
-0.0505653
-0.0910186
-0.124103
-0.31938
-0.129419
-0.144592
-0.0824574
0.0497119
-0.00815494
0.0232732
0.0365683
0.302454
0.312537
0.138517
0.0927202
0.134478
0.125324
-0.0555346
-0.0447641
-0.0202808
-0.101234
-0.091055
-0.236656
-0.370816
-0.29689
-0.22339
-0.219852
-0.204259
-0.0488748
0.0708458
0.098632
0.0689023
0.0504159
0.0203513
0.00965613
0.0526437
0.0528816
-0.0206046
0.0553639
0.158562
0.112966
0.0857322
0.0588717
0.0269023
-0.0588189
-0.0666679
0.0512503
-0.0018596
0.0364566
0.0653589
0.0159832
-0.0107915
-0.0509855
-0.108034
-0.0346075
-0.0958943
-0.00860377
-0.0135627
-0.0741446
-0.0133231
-0.0244521
-0.134051
-0.1321
-0.193497
-0.0821271
-0.0186152
-0.071254
0.00474453
0.156194
0.0996807
0.0114636
0.035953
0.00257892
-0.00881199
-0.0641127
-0.0973736
-0.155336
-0.157729
-0.134247
-0.0829232
-0.205286
-0.00480987
0.0339538
0.0465058
-0.0855238
-0.00861352
0.0968919
0.184702
0.202232
0.00769361
0.0449142
0.132864
0.0919943
0.0513426
0.0154707
0.00278239
0.0946652
0.262226
0.0902338
0.0850893
-0.0693104
-0.187287
-0.182307
-0.228408
-0.17453
-0.109281
0.00800912
0.032861
-0.0257228
0.031002
0.12663
0.351812
0.258978
0.0884683
0.221321
0.227424
0.203136
-0.0365479
-0.0823515
-0.0128888
-0.118195
-0.214382
-0.24161
-0.0957812
-0.22677
-0.29566
-0.225152
-0.107429
0.0876955
0.0809859
0.0735231
0.0942164
0.151591
0.0556143
0.0635609
0.0144249
0.064649
0.0683221
0.0407651
0.0925329
0.0347092
0.00733717
0.0847197
0.0660177
-0.0900814
-0.109449
0.0349327
0.112638
0.0208199
0.0433827
0.051308
-0.018526
-0.0473821
-0.163297
-0.0944884
0.00204012
-0.0211597
-0.093679
-0.0249489
-0.0787205
-0.00692344
-0.133012
-0.0968375
-0.139106
-0.042386
-0.00630781
-0.0181539
-0.0294967
0.0487812
0.0964639
0.0458202
-0.0235165
-0.041944
0.0382087
-0.122598
-0.101616
-0.187802
-0.197336
-0.123711
-0.0521697
-0.110361
-0.0479572
-0.0354639
-0.0393741
-0.00214647
0.0906435
0.108998
0.104408
0.0238672
0.0612718
0.0855357
-0.00327976
0.123633
0.126307
0.190617
0.121102
0.147071
0.175198
0.00111146
-0.0076108
-0.0524829
-0.151719
-0.0982737
-0.149161
-0.204362
-0.0956186
0.0406732
0.158343
0.0912736
0.116591
0.00201316
0.0879017
0.32704
0.344665
0.22625
0.05509
0.161066
0.103738
0.0153898
-0.0903905
-0.061252
-0.0256522
-0.122224
-0.222006
-0.199463
-0.143563
-0.164098
-0.113576
0.0342333
0.0606658
0.0558115
0.0458472
0.203155
0.226538
0.129851
0.0427708
0.0825447
0.0997432
0.00102034
0.0178223
0.0447713
0.075193
0.0231463
-0.0223932
-0.0445164
-0.0822778
-0.0404346
-0.000217751
0.0913869
0.0795876
0.0941494
0.00900358
-0.0671319
-0.160068
-0.0799022
-0.0675618
-0.0185184
-0.0217316
-0.000497624
-0.0564406
0.0371549
-0.00140911
-0.180408
-0.12689
-0.0557789
-0.0550267
-0.0136432
0.0264851
0.117423
0.127013
0.0270385
-0.0274844
-0.0835172
-0.0327434
-0.078084
-0.130108
-0.2652
-0.111783
-0.112059
-0.163911
-0.154361
-0.131613
-0.0027098
-0.0707911
-0.0217168
0.175897
0.0782326
0.113088
0.0512168
0.0686224
0.146894
-0.0881424
-0.0774226
0.10223
0.2105
0.196345
-0.00254015
0.0931795
0.16754
0.075141
-0.227367
-0.11776
-0.141603
-0.0759274
-0.0623118
-0.0689691
-0.131658
0.0855055
0.138999
0.157346
0.146523
0.190986
0.239474
0.211833
0.245403
0.134976
0.174633
0.147974
0.0826732
-0.0363478
-0.0164932
-0.0519371
-0.0726823
-0.179014
-0.236177
-0.093487
-0.0585419
-0.101761
0.0868882
0.130525
0.146863
0.0733618
0.194495
0.210499
0.106782
0.0496858
0.0638972
0.0672819
0.0160348
0.0871383
0.105323
0.0111421
0.00430606
-0.0822775
-0.0730531
-0.0263906
-0.0772419
0.0752425
0.0634282
0.0785187
0.0561459
-0.071502
-0.0963737
-0.0316148
0.0236859
-0.0948491
-0.0805611
0.0116894
0.102448
-0.000360489
-0.0462774
-0.0741604
-0.149001
-0.046815
-0.10887
-0.046965
-0.0299706
-0.0303255
0.0699468
0.14076
0.0308682
-0.0115285
-0.103843
0.00138436
-0.0837409
-0.123387
-0.159054
-0.12656
-0.145286
-0.139279
-0.101166
-0.0705513
-0.0605757
-0.119015
-0.124309
0.0959771
0.0732533
-0.0535466
0.0167994
0.109875
0.183193
-0.0025942
-0.0525201
-0.0124478
0.172439
0.273275
0.204566
0.12416
0.00606231
0.00631132
-0.0754144
-0.116496
-0.0972273
-0.00287534
-0.00550735
-0.107498
-0.0700864
0.029106
0.0265118
0.151906
0.137964
0.102568
0.25165
0.316984
0.135013
0.142984
0.153314
0.244675
0.150171
0.0817284
-0.0141638
-0.0281307
-0.0976249
-0.106713
-0.121445
-0.0420768
0.0233158
-0.0276024
-0.0822649
0.106705
0.274182
0.088983
0.155632
0.204653
0.245167
0.199268
0.158927
0.0467782
0.0161215
0.0146946
0.0125671
0.0421156
-0.135285
-0.15264
0.0262604
0.00200018
-0.0381568
-0.0133277
0.151072
0.119894
0.0272947
-0.0231979
-0.0650679
0.0285054
0.000211513
-0.104294
-0.0288463
-0.0334465
-0.0352901
0.00502141
-0.00304094
0.0404895
-0.0674843
-0.0881206
-0.107957
-0.0154034
0.0136693
0.00354088
0.0161773
0.13203
-0.0154263
-0.0385584
-0.0687942
0.0101506
-0.0369665
-0.0838236
-0.145705
-0.111134
-0.0689976
-0.15433
-0.129811
-0.0728909
-0.161053
-0.101474
0.00232686
0.00421707
0.10136
0.195701
0.0909101
-0.0546276
0.0455443
0.0146666
-0.0634048
0.0356283
0.214709
0.150659
0.20505
0.107196
-0.0446431
-0.0958807
-0.0792492
-0.0709917
0.00862845
0.152456
-0.0320759
-0.165177
-0.0485325
0.0479742
0.0394243
0.0625213
0.155302
0.126511
0.228048
0.261794
0.0989438
0.119608
0.264154
0.293667
0.19824
0.129065
0.0324016
-0.0339276
-0.0548148
-0.0827309
-0.0687514
-0.096822
0.0694837
0.012083
0.106184
0.213045
0.128191
0.180287
0.236415
0.195455
0.148081
0.11917
0.0610632
0.0585427
0.108946
-0.131423
-0.091301
0.0575474
-0.0384471
-0.107194
-0.13334
-0.0743142
0.110427
0.144814
0.0835051
-0.0514494
-0.0469668
0.117769
0.00260384
-0.10577
0.0353064
0.0138953
0.0222075
0.0421449
-0.062781
-0.0383162
0.0898299
-0.01914
-0.125833
-0.165319
-0.0375427
-0.016997
0.0554774
0.0233015
-0.00977907
0.00385665
-0.00246823
0.0306598
0.0290383
-0.043906
-0.0403689
-0.0366712
-0.0771343
-0.120129
-0.100856
-0.0595966
-0.0155278
-0.111426
-0.138904
-0.189559
-0.132661
0.0385233
0.0265309
0.0287731
0.00592877
0.043511
0.105669
0.078581
-0.0251329
0.0396006
0.275652
0.178544
0.12173
-0.0109988
-0.0456117
-0.0302877
-0.0326712
-0.0149798
0.0247949
-0.0119784
-0.0540955
-0.00216801
0.0203258
-0.0468204
-0.0661765
0.0320013
0.150227
0.0786632
0.145097
0.224332
0.191783
0.18477
0.297441
0.2588
0.228341
0.1655
0.0894056
-0.0527536
-0.125076
-0.0335085
0.0517139
0.053523
0.0962069
-0.0149926
0.106508
0.142115
0.14462
0.348282
0.367912
0.156062
-0.0109376
0.0328743
0.127692
0.0770881
0.0776225
-0.12269
-0.0761521
0.0171053
-0.0714771
-0.179032
-0.0749446
0.0290803
0.0290273
-0.0302235
0.0250598
0.113911
0.0379881
-0.0236356
-0.0141922
0.0207669
0.0583202
-0.044457
-0.00201722
0.000680477
-0.0315893
-0.0273458
0.0768911
0.0379546
-0.0527208
0.013614
-0.0709564
-0.014389
0.00339222
-0.0553236
-0.0654178
0.00491313
-0.0380332
0.0839284
0.0820812
0.0233551
0.0114914
-0.0369948
0.00555119
-0.0700972
-0.0748746
-0.0593521
-0.148519
-0.164522
-0.237253
-0.163956
0.173326
0.121709
-0.0109791
-0.0191416
-0.0598245
0.0819241
0.162028
0.0718802
0.00676075
0.0896247
0.0749301
0.135699
0.171741
0.0554459
-0.0911986
-0.112166
-0.142518
-0.0634585
0.146528
0.128366
0.00848267
-0.119511
-0.169209
-0.136992
-0.0477344
0.0510286
0.0433189
0.238605
0.238898
0.150994
0.175642
0.19483
0.190167
0.426257
0.322573
0.108179
0.0398945
0.00630923
-0.0360601
-0.0271605
0.0211584
0.154078
0.0637118
0.0510396
0.14439
0.100996
0.148282
0.281936
0.290047
0.154805
0.052438
0.0696783
0.0602533
-0.0465156
-0.0622102
-0.0656952
-0.0290504
-0.0437213
-0.117605
-0.0361422
-0.131058
-0.0870798
0.0212082
0.0599926
-0.0167041
0.0197437
0.0432091
0.00419685
0.000975872
0.0431675
0.00322353
-0.0105143
0.112528
0.0292179
0.0245605
-0.0459084
-0.0380011
-0.0332926
0.0288231
-0.0416276
-0.0390629
-0.0187133
-0.0342607
-0.0591853
-0.048836
0.0573614
-0.00136686
-0.0198343
0.0243179
0.0150462
0.116603
-0.0822937
-0.0754305
0.0314069
-0.0517628
-0.055316
-0.0330609
-0.11998
-0.233044
-0.155847
-0.0183372
0.0430418
-0.00664041
-0.000716884
-0.018789
0.1155
0.108988
0.0877245
0.0854571
0.0857079
0.102794
0.235219
0.0281358
-0.00745602
-0.136896
-0.196457
-0.0442827
0.0676332
0.101206
0.0562042
0.0691752
-0.058788
-0.231635
-0.171817
-0.0744573
-0.0712038
-0.0633877
0.156395
0.119796
0.369862
0.280694
0.241637
0.36526
0.325807
0.217784
0.188903
0.0717689
-0.0266405
0.0169428
0.137398
0.150312
0.0316616
0.0162742
0.172627
0.146515
0.0967249
0.159906
0.203997
0.272902
0.134079
0.0156246
0.0527833
0.0345171
-0.0207779
-0.025701
-0.0191254
-0.0365919
-0.0906086
-0.0697374
0.0193772
-0.197967
-0.0893963
-0.00399862
0.0536189
0.107321
0.090965
0.0872088
-0.0974754
-0.0540504
0.0110796
0.0309319
0.0263167
0.0793064
0.0454518
-0.0211148
-0.0406979
0.0572357
0.0537962
0.0751381
-0.116216
-0.0225375
0.0395148
-0.0876448
-0.0590509
0.0412453
0.0305509
-0.109795
-0.0752996
-0.0336793
-0.0360562
0.05348
0.0312892
0.0223944
0.0137758
0.0455454
-0.13789
-0.111105
-0.164386
-0.149931
-0.177731
-0.0742811
0.0330427
0.103298
0.0159257
0.0187196
0.132927
0.148585
-0.0351158
0.0409812
0.057959
0.0632851
0.182999
0.136843
0.128997
-0.144785
-0.305796
-0.114338
-0.106667
0.0356425
0.124374
-0.0167708
-0.165193
-0.228122
-0.153388
-0.106442
-0.14673
0.0014377
0.110883
0.0931259
0.310956
0.366902
0.374689
0.308672
0.260857
0.153962
0.115394
0.125999
-0.0229617
0.0188405
0.0683186
0.0246795
0.0647184
0.186045
0.202025
0.139916
0.126563
0.218568
0.193431
0.181935
0.0737756
-0.0126322
0.0404059
-0.00481514
-0.108424
-0.0300576
0.0165468
-0.0773526
-0.132522
-0.0316054
-0.0375613
-0.0426012
0.00289594
-0.0314779
0.00587994
0.0785872
0.0750488
-0.00669414
-0.00162618
-0.00919344
-0.0816736
-0.0794294
0.0878444
0.0664397
-0.0670016
-0.103164
0.0891308
0.110316
-0.0808267
0.0280638
0.03366
0.0552214
0.0149266
-0.0526457
-0.0800675
0.0248858
-0.033489
-0.100833
-0.0643252
-0.103014
-0.11853
0.0360647
0.0396948
0.0351664
-0.00878052
0.000226508
0.108661
-0.051537
-0.119432
-0.191833
-0.121443
-0.128172
-0.0515198
-0.00202968
0.0288821
0.0889963
0.0455789
0.0489447
0.117297
0.170168
0.282666
0.0677594
0.0335014
-0.103687
0.0292789
-0.0430189
-0.111256
-0.0535644
-0.0225405
0.118477
0.018785
-0.104338
-0.220711
-0.110278
-0.247512
-0.256417
-0.212703
-0.0660082
0.179551
0.117442
0.269109
0.344006
0.268939
0.235179
0.267826
0.224692
0.165723
0.149347
0.0122753
0.0500388
0.110371
-0.00734766
0.00268195
0.0915152
0.165441
0.131151
0.246716
0.288901
0.19483
0.129734
0.0715343
-0.00742435
0.026641
-0.00736759
-0.0934738
-0.0241402
-0.0668431
-0.0652992
-0.108313
-0.0986115
-0.0839388
0.074229
0.0312223
-0.0732076
0.0789205
-0.0088772
-0.144147
0.0178998
0.0286172
-0.0459912
-0.0239228
0.0635744
0.0348607
0.0929831
0.0603974
-0.0541184
-0.0134937
-0.0428336
0.0219976
0.083125
0.0963349
0.0269696
0.0906111
-0.0250266
-0.0597699
-0.0563608
-0.107315
-0.142476
-0.00332175
-0.152512
-0.093953
0.110723
0.0527507
0.0721864
0.0736813
0.00326081
0.0551348
-0.0115949
-0.0908253
-0.12888
-0.139982
-0.13994
-0.142157
0.00390678
0.0630893
0.165553
0.118189
0.0186127
0.0264784
-0.0244732
0.0903442
0.00415496
0.140817
0.033722
-0.0314828
-0.000325589
-0.119538
-0.140683
-0.0950812
-0.0489558
-0.0964727
-0.0186465
-0.0611077
-0.13638
-0.238934
-0.253139
-0.214709
-0.121937
0.0115069
0.227782
0.376605
0.414586
0.240346
0.081194
0.150303
0.195389
0.213818
0.0753239
0.0986995
0.0157422
0.0361033
-0.0583596
0.0863075
0.125199
0.125733
0.152946
0.241638
0.28829
0.211601
0.112076
-0.00290294
0.0516676
0.106262
-0.0228657
-0.178691
-0.16933
-0.0756603
-0.0170423
-0.0234566
-0.0295108
-0.0801054
0.00191341
0.0272214
-0.0409409
0.0456449
-0.0371751
-0.153184
0.0385593
0.117475
0.00914546
-0.0675313
-0.0464545
0.0812463
0.125222
0.0500535
0.0226627
-0.0786681
-0.00291201
0.0170963
-0.0139325
0.174887
0.142452
0.0967306
-0.0978023
-0.190374
-0.0263786
-0.120935
-0.144678
-0.113011
-0.040275
-0.0968158
0.19502
0.0889412
0.0586392
0.0639011
0.0385625
0.121544
0.0687577
-0.0333177
-0.103834
-0.185569
-0.100859
-0.0223156
-0.0917074
-0.0453857
0.0352959
0.0510133
0.0131428
0.140613
0.142886
0.134016
0.0386121
-0.0027479
0.0896275
0.0333665
0.00911439
-0.107938
-0.108191
-0.0314347
-0.0709842
-0.133727
-0.0955823
-0.0661641
-0.176351
-0.312989
-0.199343
-0.126663
-0.0839359
-0.0252257
0.225212
0.339419
0.280673
0.0930322
0.122094
0.0635639
0.166243
0.248933
0.140232
0.0656909
-0.0828331
-0.0354201
0.0106662
0.0254334
0.111144
0.145146
0.147774
0.31961
0.259226
0.189557
0.0709719
-0.00660516
0.0453016
0.108042
0.00889812
-0.105953
-0.119447
-0.156881
-0.167122
-0.0393422
0.0525906
0.00727522
-0.114513
-0.0368924
0.0876164
-0.0461697
-0.0823106
-0.118913
-0.0758819
0.0996225
0.0613382
-0.00291704
0.0881275
0.130905
0.106559
0.00829611
0.0303015
0.0232001
-0.0305344
0.00504914
0.106996
0.181102
0.0705881
5.83108e-05
-0.0872692
-0.217253
-0.098627
-0.0716781
-0.00513323
-0.0752542
-0.0925294
-0.133245
0.255141
0.116433
0.0013184
0.0807349
0.184515
0.135777
0.0994577
0.0362719
-0.140887
-0.217123
-0.0878377
-0.0260311
-0.0161028
0.0523858
-0.00428869
0.0300071
0.10134
0.0871708
0.0728832
-0.0472869
-0.0504801
0.0425892
0.0731048
-0.0597015
0.0572854
0.0236036
-0.034561
-0.177977
-0.0430986
-0.0060224
-0.0791981
-0.0605418
-0.221923
-0.339782
-0.204925
-0.123643
-0.0482645
0.06995
0.218039
0.2454
0.364215
0.105883
-0.0890488
-0.0281824
0.150624
0.217702
0.0835768
-0.0836684
-0.106006
0.075418
0.085198
-0.007904
0.0428658
0.117919
0.218867
0.264005
0.16118
0.127716
0.018928
0.0549154
0.0733586
0.0586399
0.0127905
-0.103078
-0.0567853
-0.127561
-0.206548
-0.0555756
-5.20449e-05
-0.0192038
-0.0270645
-0.0975199
0.0515792
0.0213469
-0.0391311
-0.0555634
-0.00818402
0.0314774
0.043898
0.110298
0.0866255
0.0133992
0.131269
0.0599542
-0.0339578
-0.0592984
-0.0511563
-0.00223324
0.141016
0.167048
0.0842804
0.00207718
-0.0519853
-0.0264321
-0.137497
-0.120751
-0.0426332
-0.128005
-0.121645
-0.0925755
0.241007
0.0910136
0.000761995
0.152815
0.262715
0.170658
0.0688199
0.0121246
0.0210951
-0.131187
-0.131324
-0.0412833
-0.040974
-0.0627386
-0.017004
0.0265406
0.151583
0.183202
0.0958759
0.0302475
-0.0215769
0.0117866
0.087233
0.0352408
-0.0553898
-0.053399
0.100211
-0.0232617
-0.105073
-0.142552
-0.132903
-0.0792589
-0.18664
-0.187527
-0.205363
-0.140626
0.00541678
0.020416
-0.0221524
0.0242635
0.104214
0.139599
0.172619
0.117533
0.0809241
0.00938703
-0.0986712
-0.0681695
-0.0543343
0.00528438
0.042489
-0.0198781
-0.0186567
0.0938157
0.15534
0.213803
0.184762
0.214724
0.0549717
0.00762215
0.0147885
0.00624608
0.0584653
-0.0127877
0.0301602
-0.283651
-0.201904
-0.00560068
-0.0512809
-0.0114587
-0.106731
-0.0919008
-0.050051
-0.0345822
-0.0650875
-0.0885746
-0.0385808
0.0237862
0.163591
0.159598
0.0689422
0.0387612
0.136824
0.0969081
0.0184794
-0.0203869
-0.0272017
0.0472378
0.0786709
0.211977
0.138865
0.00833242
-0.0404318
-0.125189
-0.128865
-0.101825
-0.0481257
-0.162394
-0.173319
-0.0679111
0.25661
0.0842519
0.136067
0.215928
0.240878
0.204003
0.0115864
-0.0998394
0.0599654
-0.081314
-0.116535
-0.0316737
-0.114304
-0.0725513
-0.0720877
0.153189
0.157651
0.095173
0.0397255
0.00555451
0.00228796
0.00632144
-0.112466
0.123206
0.176952
0.0174849
-0.10504
-0.174259
-0.0332136
-0.0339882
-0.0818149
-0.122507
-0.184994
-0.152968
-0.215394
-0.191062
-0.163478
-0.0027901
0.116154
0.079011
-0.0443273
-0.00129533
0.0797672
0.0400651
-0.0148295
-0.0747137
0.00956487
0.0227932
-0.0592819
-0.0186672
0.0372972
-0.10154
-0.0459437
0.0493583
0.0012381
0.140043
0.209858
0.152162
-0.00817249
-0.0142533
0.00601229
-0.0210969
-0.0498117
0.0271804
0.00270864
-0.152019
-0.113569
-0.122771
-0.127206
-0.00738598
-0.188664
-0.108361
-0.0997976
0.0530613
-0.0112815
-0.0688467
-0.115087
0.118709
0.221458
0.102966
0.0227897
0.147341
0.174424
-0.0200366
-0.0580299
0.0492795
0.0344225
0.0582058
0.124304
0.191484
0.187228
0.0715119
-0.034931
-0.180746
-0.0768555
-0.0462963
-0.11119
-0.19582
-0.114228
-0.05047
0.252714
0.181254
0.107746
0.152601
0.207285
0.214553
0.169086
0.116815
0.034146
-0.121626
-0.173316
-0.166185
-0.158771
-0.100552
-0.0632899
0.0777829
0.116847
0.214589
0.0659869
-0.0138228
-0.0268049
0.06081
0.156634
0.0113124
-0.043213
0.0601364
0.0118004
-0.0475238
-0.0265188
-0.145204
-0.0783638
0.0196972
-0.194911
-0.213847
-0.176441
-0.138167
-0.0904998
-0.150361
-0.122432
-0.152686
0.0443573
0.0674401
0.186544
0.0722065
-0.108191
-0.118621
-0.0247294
-0.11128
-0.174967
-0.0327799
0.072747
-0.057269
-0.0631939
0.0805854
-0.0204191
0.0690834
0.0320727
0.0814382
0.120507
-0.0468782
-0.13135
-0.056149
-0.182141
-0.0260969
0.0519293
-0.052343
-0.105194
-0.0738379
-0.139582
-0.0439735
-0.131296
-0.0385783
-0.0970597
-0.0651324
-0.0571382
-0.046287
-0.0612694
0.0264678
0.0897432
0.188794
0.14597
0.21195
0.148878
0.123882
0.0469848
-0.0263258
0.00445311
0.0705915
0.154011
0.193482
0.211221
0.0675042
-0.0367425
-0.226608
-0.0182119
0.0085626
-0.0753605
-0.140883
-0.123057
-0.0133912
0.204902
0.205351
0.332074
0.253441
0.18822
0.115145
0.067968
0.0543521
0.0315862
-0.0303098
-0.00125765
-0.202149
-0.153935
0.0738519
0.0601769
-0.086934
-0.0640708
0.167579
0.174672
-0.0207465
-0.0233122
0.0882721
0.0962147
0.0624684
0.0555708
-0.0254921
-0.0720139
-0.0793721
-0.153493
-0.0601624
-0.0052081
-0.185909
-0.191402
-0.136116
-0.13318
-0.176428
-0.209429
-0.172131
-0.0256942
-0.00103745
-0.0167445
0.0961392
0.0337066
-0.0838186
-0.0507688
-0.052823
-0.0987097
-0.107359
-0.201527
-0.0234755
-0.0389763
-0.0628125
-0.0290567
-0.0112728
-0.138088
0.0530161
0.0933709
0.0943202
0.0598511
-0.0559464
-0.22101
-0.126637
-0.150251
-0.0377235
-0.0253116
-0.0687269
-0.0813328
-0.0965856
-0.0964164
-0.0911139
-0.153893
-0.134397
0.0287318
-0.0038876
-0.0769958
0.0136239
-0.0563605
0.0404252
0.116485
0.126963
0.144063
0.165255
0.048125
0.128422
0.130933
0.125654
0.131148
0.102455
0.0968231
0.207763
0.204998
0.0448324
0.00240066
-0.130447
-0.12773
0.00421214
-0.0613634
-0.13134
-0.0997628
-0.0128968
0.154674
0.101757
0.275942
0.318637
0.241855
0.212746
0.111293
0.0624875
0.0538992
-0.0216316
0.000501943
-0.109377
-0.264167
0.00282287
0.130525
0.0749987
0.099168
0.0254259
-0.000755832
0.0711155
0.195463
0.206188
0.0661785
-0.0767445
-0.113128
-0.0325585
0.0381269
0.0113837
-0.0636639
-0.080175
-0.145108
-0.129432
-0.0868628
-0.155829
-0.102928
-0.187844
-0.179286
-0.114978
-0.0277064
-0.0753644
-0.124013
-0.0235576
-0.0181788
-0.0760153
0.00054317
-0.0770269
-0.216365
-0.266137
-0.15468
0.0273675
0.0313313
-0.0846186
0.00984199
-0.00726201
-0.207392
0.00365149
0.0353251
0.00923656
0.0225724
-0.0490989
-0.137871
-0.0866509
-0.109289
0.0282302
-0.0594923
-0.0700541
-0.100781
-0.125753
-0.0554325
-0.102135
-0.129497
-0.103942
-0.123938
-0.0742455
-0.0166222
0.0303417
-0.0538496
-0.0795932
0.111629
0.187412
0.114552
0.142184
0.0495737
0.105078
0.23415
0.159221
0.0418388
0.106372
0.134035
0.219442
0.217506
0.0405286
-0.0317181
-0.074969
-0.0377046
-0.0762958
-0.0987325
-0.0602228
-0.104202
0.0595653
0.129669
0.251833
0.261904
0.268901
0.214606
0.175003
0.0613996
0.06067
0.0967168
-0.127744
-0.120973
0.0123639
-0.156722
0.0257141
0.141013
0.14589
0.0445153
-0.0740922
0.0811649
0.244295
0.0552956
0.0305908
0.0604823
-0.0300816
-0.0221941
0.018603
-0.0925252
-0.0867331
-0.170595
-0.120607
0.148351
0.0476248
-0.0591657
-0.222272
-0.275274
-0.141773
-0.169895
-0.229337
-0.0816947
-0.121963
-0.0708985
0.00401412
0.000184728
-0.0447071
-0.0800318
-0.120808
-0.172488
-0.218188
-0.177848
-0.0682129
-0.0974577
-0.085105
-0.107702
-0.106473
-0.0093551
0.0057904
0.00593797
0.0212175
-0.0152191
-0.00778032
-0.117365
-0.240666
-0.146157
0.0250754
-0.0219309
-0.0540605
-0.0402387
-0.153217
-0.0404873
-0.151924
-0.0754459
-0.192172
-0.175443
0.00611137
0.0869551
-0.0628787
-0.0876682
-0.0696855
0.0681939
0.255503
0.216147
0.0904698
0.0107109
0.0933648
0.165542
0.245745
0.122141
0.0951625
0.166302
0.108394
0.0941397
0.101586
0.0647587
0.0029403
-0.0978639
-0.042548
-0.0711605
-0.0238066
0.0127285
0.0486334
0.0763145
0.199451
0.395235
0.238064
0.12549
0.210374
0.0712883
0.0463669
0.0468454
0.0192083
0.000490941
-0.072229
-0.02253
-0.110555
-0.00924428
0.0874493
0.0951462
-0.0579193
0.0466034
0.118222
0.148547
0.203092
-0.0672736
-0.0465238
-0.0517172
0.103306
-0.0132568
0.00296219
-0.0694823
-0.145373
-0.111443
-0.0151166
-0.00796526
-0.0440558
-0.194635
-0.18203
-0.190204
-0.158879
-0.0900236
-0.153782
-0.0105969
-0.132412
-0.0614351
-0.0574858
-0.113172
-0.157315
-0.170837
-0.184361
-0.0716967
-0.199114
-0.117639
-0.129207
-0.132927
-0.0202609
-0.0644864
-0.0316673
0.000830835
-0.0487743
-0.0667635
-0.0390125
-0.0293948
-0.148845
-0.156325
0.0639237
-0.00738376
-0.109444
-0.0944361
-0.0863592
-0.0991571
-0.0824394
-0.128126
-0.129071
-0.11858
-0.0299471
-0.00627157
-0.0641939
-0.0718942
-0.060218
0.0901574
0.160207
0.244449
0.150372
0.0440293
0.137591
0.095509
0.187738
0.160747
0.118108
0.170089
0.121531
0.118959
0.0573351
0.0784969
0.0217268
-0.0264429
-0.0441665
0.0634373
0.0374387
-0.0362552
-0.00705416
0.107132
0.207334
0.26983
0.220276
0.164846
0.147988
0.0784152
0.00525446
0.11016
0.0562651
-0.0978757
-0.0709461
-0.0979197
-0.0631665
-0.0402828
0.0454752
0.0328818
0.074721
-0.00268841
0.0481693
0.060445
0.188228
0.0275837
-0.0145524
0.0717279
0.00330621
-0.00303661
-0.111532
-0.0667843
-0.100431
-0.0760147
-0.0736164
0.000331473
0.116781
-0.12401
-0.29339
-0.19945
-0.193667
-0.015757
-0.118929
-0.0204413
-0.0837116
-0.109764
-0.0901433
-0.132475
-0.237105
-0.173096
-0.0703356
-0.171035
-0.243872
-0.136181
-0.183617
-0.186748
-0.0470985
0.0100436
0.0199495
-0.0319553
-0.0472399
-0.0744858
-0.0517186
-0.0421743
-0.0889763
-0.196955
-0.0859255
0.0322331
0.0251522
-0.020524
-0.17917
-0.0705847
-0.141432
-0.2048
-0.198053
-0.0936682
-0.022258
0.0732424
-0.0069299
-0.0817221
0.0108392
0.130762
0.282447
0.25968
0.143004
-0.0437145
0.0244437
0.134772
0.196149
0.0638328
0.127895
0.14279
0.0667842
0.102824
0.0884215
0.0868677
-0.0196576
-0.0386952
0.0557944
0.0409333
0.0755518
-0.00910763
-0.0144781
0.0735844
0.192681
0.29892
0.246618
0.17928
0.137047
0.000915395
0.0523129
0.0986255
-0.0799931
-0.116229
-0.0585406
-0.1026
-0.0757496
-0.0161122
-0.00312474
0.0160987
0.0522533
0.0383955
0.106414
0.0599159
0.108648
0.123153
0.113618
0.0149144
-0.079749
-0.0783591
-0.0829905
-0.108479
-0.107471
-0.0695056
-0.0817347
0.149783
0.104898
-0.136243
-0.210841
-0.151227
-0.153412
-0.0536115
-0.0923757
-0.0252931
-0.057307
-0.0429068
-0.0482081
-0.051739
-0.236383
-0.231664
-0.179506
-0.194996
-0.28283
-0.240772
-0.244763
-0.0942779
0.0266138
0.0104398
-0.114725
-0.0148151
-0.015869
-0.0372579
-0.00101728
0.0114964
-0.0580696
0.00244953
-0.0171291
-0.170865
-0.0389562
0.0191902
-0.122626
-0.0767321
-0.0871234
-0.021225
-0.185524
-0.200407
-0.1043
0.0176497
0.0739988
0.0793263
0.0644926
0.100988
0.12764
0.117901
0.0841958
0.0527385
0.0891793
0.0621213
0.0786766