/*--------------------------------*- C++ -*----------------------------------*\
| =========                 |                                                 |
| \\      /  F ield         | OpenFOAM: The Open Source CFD Toolbox           |
|  \\    /   O peration     | Version:  v2012                                 |
|   \\  /    A nd           | Website:  www.openfoam.com                      |
|    \\/     M anipulation  |                                                 |
\*---------------------------------------------------------------------------*/
FoamFile
{
    version     2.0;
    format      ascii;
    class       volVectorField;
    location    "0";
    object      U;
}
// * * * * * * * * * * * * * * * * * * * * * * * * * * * * * * * * * * * * * //

dimensions      [0 1 -1 0 0 0 0];


internalField   nonuniform List<vector> 
4000
(
(0.00785445 0.0170685 0)
(0.0163935 0.0365341 0)
(0.0369517 -0.118336 0)
(0.102051 0.0259787 0)
(-0.34317 0.0749265 0)
(-0.0381923 -0.146489 0)
(0.091549 0.0600918 0)
(-0.137994 0.0337292 0)
(-0.01957 -0.0223568 0)
(0.0202675 0.110824 0)
(-0.199063 -0.135347 0)
(-0.059126 -0.182846 0)
(0.0673817 0.0322214 0)
(0.10433 0.084329 0)
(-0.147512 0.0696685 0)
(-0.190419 -0.0152985 0)
(0.0510646 0.0331596 0)
(-0.0109047 -0.0543683 0)
(0.043377 -0.00743928 0)
(-0.0345981 0.0967596 0)
(-0.189691 0.0251304 0)
(0.105047 -0.12506 0)
(0.0146732 0.0183487 0)
(0.033261 0.0364785 0)
(-0.0243731 0.103575 0)
(0.0182404 -0.0757432 0)
(-0.122975 -0.0904788 0)
(0.0686264 0.0872783 0)
(-0.0268754 -0.0160422 0)
(-0.0730918 -0.0442776 0)
(0.105578 0.0210536 0)
(-0.0284351 0.145187 0)
(-0.18035 0.00607037 0)
(0.0180984 -0.115142 0)
(-0.0300805 0.0146034 0)
(-0.023412 0.146528 0)
(-0.0783022 -0.0146449 0)
(0.0339221 -0.0161405 0)
(0.0215163 -0.128496 0)
(0.214585 -0.0258645 0)
(0.0254231 0.0042413 0)
(0.0155222 0.0369212 0)
(0.00466562 0.0236718 0)
(0.183749 -0.0383403 0)
(-0.124134 0.04836 0)
(-0.00108535 0.075532 0)
(-0.0929635 -0.022185 0)
(0.141002 -0.0500282 0)
(0.157493 -0.0265116 0)
(-0.0216792 0.0290282 0)
(0.0256751 0.000710552 0)
(-0.041485 0.0167333 0)
(0.0362827 -0.0276135 0)
(0.0287338 -0.012035 0)
(-0.028929 0.0613272 0)
(-0.00498577 -0.0225922 0)
(0.0408707 0.0622919 0)
(-0.0428095 -0.0338889 0)
(0.0855084 -0.0449479 0)
(-0.0364991 0.0686445 0)
(-0.0718769 -0.0218994 0)
(0.138721 0.00514081 0)
(-0.00551994 0.0257363 0)
(-0.0344128 -0.0678168 0)
(0.0935728 0.0166 0)
(0.0512268 -0.028098 0)
(0.168988 -0.0432778 0)
(0.0641542 -0.0603574 0)
(0.0837128 0.0805837 0)
(-0.0431803 0.0507393 0)
(-0.0181793 0.034752 0)
(-0.0379469 0.00376423 0)
(0.0843901 -0.0582604 0)
(0.0623141 0.065065 0)
(-0.0483982 0.0607595 0)
(-0.0610422 -0.0237016 0)
(-0.106223 -0.0510526 0)
(0.12411 -0.0396217 0)
(0.0470729 -0.0281477 0)
(0.0907088 -0.0469954 0)
(0.111594 0.0896187 0)
(0.0049074 0.0739577 0)
(-0.00563553 -0.0794163 0)
(0.185723 0.00272982 0)
(0.051247 0.013612 0)
(0.013733 -0.0516338 0)
(-0.0726001 0.0128419 0)
(0.021069 0.00756637 0)
(-0.228051 0.0588496 0)
(-0.034595 0.00837176 0)
(0.0116142 -0.109456 0)
(0.0895241 0.0210221 0)
(-0.130963 0.140762 0)
(-0.0399547 -0.0785074 0)
(-0.00442776 -0.0822107 0)
(-0.0909663 0.0478455 0)
(-0.0776831 0.0604767 0)
(0.00902422 0.00124143 0)
(-0.0374528 -0.011158 0)
(-0.0118747 0.0130883 0)
(-0.0617679 -0.00236771 0)
(0.199261 -0.0447618 0)
(0.160757 -0.0824306 0)
(0.000944823 0.187591 0)
(0.0293663 0.132907 0)
(0.00410263 -0.202884 0)
(0.146632 -0.00344164 0)
(-0.0588793 0.0521761 0)
(0.0040718 0.0187507 0)
(-0.0612313 0.0923872 0)
(0.039619 -0.0541721 0)
(-0.0617479 -0.110038 0)
(0.0113277 -0.071096 0)
(-0.00746196 0.0266352 0)
(0.00234108 0.0569669 0)
(0.023765 0.113179 0)
(0.0107729 0.0367915 0)
(0.0291955 -0.214374 0)
(-0.0642675 0.0614841 0)
(0.0613641 0.0743047 0)
(0.0593047 -0.0395003 0)
(0.0849844 -0.0156726 0)
(-0.0212217 0.0905379 0)
(0.0947265 -0.154172 0)
(-0.0419468 0.0918453 0)
(0.0270668 0.00840294 0)
(-0.00865124 -0.124566 0)
(-0.135418 0.0636125 0)
(0.0934616 0.0154768 0)
(-0.0744812 0.032455 0)
(-0.0516922 0.00759793 0)
(0.0861166 0.173024 0)
(0.091497 -0.0536774 0)
(-0.0091924 -0.121949 0)
(-0.132663 0.104002 0)
(-0.048753 0.168563 0)
(0.0753577 -0.083711 0)
(-0.106134 -0.0739719 0)
(0.0355379 -0.0545978 0)
(0.042873 -0.0671555 0)
(0.0329835 -0.0138448 0)
(-0.0878178 -0.0651247 0)
(0.0332896 0.0648924 0)
(-0.0539842 0.0193848 0)
(-0.0788791 0.0760284 0)
(0.139254 0.0216516 0)
(0.0213904 -0.139344 0)
(0.0790309 -0.160063 0)
(-0.00475429 0.0484822 0)
(0.0423967 0.096976 0)
(-0.0998754 0.0408938 0)
(0.0108188 0.135535 0)
(-0.0382422 -0.024887 0)
(-0.0318695 -0.057712 0)
(-0.0424836 0.0564462 0)
(-0.018813 -0.0842436 0)
(0.0501264 -0.088008 0)
(-0.00657458 0.0326966 0)
(0.104809 0.117218 0)
(-0.0194314 0.0460327 0)
(-0.00325727 -0.126613 0)
(0.0258109 0.0624387 0)
(0.0304479 0.0367125 0)
(0.0489076 -0.102625 0)
(0.0914904 0.0126966 0)
(0.00245917 0.00256837 0)
(-0.102425 -0.0503298 0)
(0.0502906 -0.0632842 0)
(0.0455416 0.12716 0)
(0.0217768 0.117289 0)
(-0.0770657 -0.00709022 0)
(0.0628977 -0.0741201 0)
(-0.089399 -0.0456919 0)
(0.0258224 0.00460096 0)
(0.0821458 0.069963 0)
(0.00943131 0.0355387 0)
(0.0118105 -0.155784 0)
(0.0656775 -0.0963073 0)
(0.0172746 0.0306753 0)
(0.00724099 -0.0290624 0)
(-0.0287078 0.127324 0)
(-0.0610733 0.0202798 0)
(0.041096 -0.0871957 0)
(0.0629902 0.0614273 0)
(-0.151059 -0.017918 0)
(-0.0613382 -0.0338909 0)
(-0.159281 0.0329133 0)
(0.102704 0.13062 0)
(0.0811252 -0.0747327 0)
(-0.0649476 -0.0231626 0)
(-0.00572133 0.029566 0)
(-0.0418002 -0.0379019 0)
(0.00335828 -0.0182228 0)
(-0.023693 0.0409431 0)
(0.0856715 0.0672951 0)
(0.00329865 0.00423987 0)
(0.080281 0.0220287 0)
(0.0148831 -0.0311175 0)
(-0.0647511 0.0288915 0)
(-0.003896 0.0366262 0)
(0.00602267 -0.0251971 0)
(0.00663012 -0.09453 0)
(0.0123516 0.0211115 0)
(-0.00788603 0.153456 0)
(0.0033565 -0.0252325 0)
(-0.00628973 -0.0797874 0)
(-0.0061855 -0.0563389 0)
(0.00997218 0.0662762 0)
(-0.032227 0.135098 0)
(-0.057584 0.0636055 0)
(-0.0117952 0.00418637 0)
(0.0111472 -0.152416 0)
(0.0734413 -0.0963803 0)
(-0.00428988 0.0980964 0)
(0.0148512 0.00993712 0)
(-0.0697573 -0.0836592 0)
(0.000350242 -0.000123658 0)
(-0.034805 -0.0142453 0)
(-0.141548 0.112199 0)
(-0.0210763 0.0341819 0)
(0.0228488 -0.0802818 0)
(-0.0723052 0.0780914 0)
(0.0192171 0.00220972 0)
(-0.0112156 -0.149658 0)
(-0.0717436 -0.0429972 0)
(0.127061 0.100415 0)
(-0.078361 -0.0222883 0)
(0.0153086 -0.00840668 0)
(0.0634288 0.0889218 0)
(0.0100886 0.008172 0)
(0.0580746 -0.128554 0)
(0.0471746 0.0189373 0)
(0.220629 0.0530511 0)
(-0.00202447 0.102681 0)
(-0.0955584 0.0140363 0)
(0.143285 -0.014342 0)
(0.00399788 0.0634615 0)
(-0.233123 -0.0605973 0)
(-0.0652178 -0.26108 0)
(0.121143 -0.127983 0)
(0.147344 0.0540566 0)
(0.0239056 0.0661119 0)
(-0.0338473 0.114574 0)
(-0.0401525 -0.032542 0)
(0.0413483 -0.0768594 0)
(-0.0386492 0.0623199 0)
(0.0654382 0.0236358 0)
(-0.0864849 -0.149982 0)
(-0.0238989 0.00954293 0)
(0.00101175 -0.0173784 0)
(-0.0655407 0.0824026 0)
(0.0773908 0.0426809 0)
(-0.0274812 0.0426331 0)
(-0.105447 -0.0002035 0)
(0.0556079 -0.107882 0)
(0.171357 -0.0682361 0)
(0.122048 0.0023128 0)
(-0.0610273 0.0443902 0)
(0.104551 0.0359198 0)
(0.147187 0.0486305 0)
(0.0791481 0.0686635 0)
(0.137667 -0.0500684 0)
(0.0833208 -0.0564585 0)
(-0.00169215 0.0321284 0)
(-0.0769858 0.101186 0)
(-0.0962108 -0.0298935 0)
(-0.0166566 -0.127806 0)
(0.0288681 -0.0553049 0)
(-0.0664576 0.0632389 0)
(-0.00228156 0.0523789 0)
(0.0699733 0.106141 0)
(0.0551607 -0.000343574 0)
(-0.0480398 -0.0251996 0)
(0.0033966 -0.0770979 0)
(0.0971076 -0.00363053 0)
(0.183881 -0.0297241 0)
(0.0323907 0.00577944 0)
(-0.0279411 -0.0313023 0)
(0.0231413 -0.0914582 0)
(0.0825444 -0.054818 0)
(0.0603174 0.148159 0)
(0.0749723 0.0144887 0)
(-0.024109 -0.0462625 0)
(0.00730653 0.106462 0)
(-0.0483786 0.122725 0)
(-0.0142725 -0.0440956 0)
(-0.0517021 -0.0669353 0)
(-0.0486683 0.045808 0)
(0.129387 -0.0762208 0)
(-0.0234848 -0.0294002 0)
(0.189269 0.0632294 0)
(0.0364646 0.144707 0)
(-0.157009 -0.0487064 0)
(0.0479973 -0.195604 0)
(0.116351 0.0848096 0)
(-0.00406788 0.0322521 0)
(0.255989 0.0528796 0)
(0.0570098 0.00415116 0)
(-0.0372731 0.0289644 0)
(0.0163163 0.0287986 0)
(0.000209021 0.0267954 0)
(-0.00303901 -0.122937 0)
(0.00931618 -0.101668 0)
(0.0708406 0.142943 0)
(0.0463733 0.129889 0)
(-0.116822 -0.0598577 0)
(-0.161854 -0.213559 0)
(0.0789277 0.116278 0)
(0.0663237 0.0894245 0)
(0.0386023 0.10943 0)
(-0.0279974 -0.0823896 0)
(-0.0647396 -0.18335 0)
(0.00656439 0.0740851 0)
(0.00251201 0.0326376 0)
(0.0121756 0.0384758 0)
(-0.0325392 -0.0164469 0)
(0.02672 -0.0958782 0)
(0.0742811 0.0829657 0)
(0.037587 0.12034 0)
(-0.182418 -0.112528 0)
(0.041293 -0.0222392 0)
(0.0704962 0.0880919 0)
(-0.0238947 -0.00584735 0)
(0.0449406 -0.195487 0)
(-0.0146628 -0.0427538 0)
(-0.127564 0.242612 0)
(-0.0041338 0.0793526 0)
(-0.0987051 -0.0920291 0)
(-0.1078 -0.0760261 0)
(0.217307 -0.0981445 0)
(0.0724754 0.105885 0)
(-0.083444 0.0770163 0)
(-0.0624444 -0.0515441 0)
(0.201119 -0.0362342 0)
(0.0753243 -0.0483557 0)
(0.0412659 0.0987098 0)
(-0.0719431 0.2025 0)
(0.0411555 -0.0893747 0)
(-0.00104742 -0.204669 0)
(0.0257412 -0.267267 0)
(0.0210906 0.0119116 0)
(-0.0562361 0.230982 0)
(-0.0430161 0.0541216 0)
(0.0470911 0.0371645 0)
(0.0128075 -0.0691575 0)
(-0.0697443 -0.0528151 0)
(0.0826487 0.0509698 0)
(0.0303673 -0.0279511 0)
(0.0365814 -0.0381374 0)
(0.125752 -0.0581351 0)
(0.0157399 0.11536 0)
(0.0413148 -0.07027 0)
(0.0200843 0.0443965 0)
(-0.0113019 0.0313529 0)
(0.0301976 -0.140698 0)
(0.0924548 -0.0542954 0)
(-0.0728793 0.105479 0)
(0.0251274 0.0924865 0)
(-0.0546853 -0.0362585 0)
(-0.0126325 -0.0267418 0)
(-0.000906313 0.00643277 0)
(0.0549807 0.0316982 0)
(-0.000579978 0.0136598 0)
(0.0573847 0.0833761 0)
(0.0370849 0.065406 0)
(0.141671 -0.0193193 0)
(0.0302897 -0.06093 0)
(-0.0550139 -0.0728967 0)
(-0.00517203 0.0337423 0)
(0.0416953 0.0348514 0)
(0.0194822 0.0506011 0)
(0.125496 0.107846 0)
(0.0157728 -0.00394548 0)
(-0.02332 -0.0930914 0)
(-0.0930622 0.0114937 0)
(-0.0784523 -0.0408632 0)
(0.0266299 -0.0506337 0)
(0.139865 -0.0249557 0)
(0.0215216 -0.146449 0)
(-0.127401 0.0853076 0)
(-0.140412 0.0616705 0)
(-0.0240238 -0.0326671 0)
(0.036745 -0.0100927 0)
(0.114888 -0.0138246 0)
(0.16712 0.115981 0)
(0.0609983 0.0513765 0)
(-0.00367862 0.0615061 0)
(0.0221692 -0.0641908 0)
(-0.0420897 -0.0538028 0)
(-0.165177 -0.00882025 0)
(0.0567357 -0.0242554 0)
(-0.0586118 0.105074 0)
(0.077114 0.0265578 0)
(-0.0252315 -0.169872 0)
(-0.0690473 0.0135198 0)
(-0.0421069 0.0314417 0)
(0.141011 -0.0608023 0)
(0.137631 0.0365731 0)
(-0.0561939 0.0492662 0)
(0.074723 0.0314742 0)
(0.00460478 -0.00179878 0)
(-0.000895279 -0.0887862 0)
(-0.0740737 -0.0325279 0)
(0.00475808 0.0891667 0)
(0.061967 0.133311 0)
(-0.105937 -0.0272361 0)
(0.0325568 -0.11815 0)
(-0.116008 -0.0517609 0)
(-0.0306091 0.0980498 0)
(-0.0874127 0.222581 0)
(-0.0164222 -0.107268 0)
(0.0335124 -0.0953121 0)
(0.034354 0.00437752 0)
(0.00838454 -0.00411415 0)
(-0.0468743 -0.0501165 0)
(-0.0190163 -0.00225846 0)
(0.0242567 -0.0805001 0)
(0.0380029 0.0734158 0)
(-0.0850684 0.192356 0)
(-0.0874547 -0.0967175 0)
(0.0159562 -0.0451574 0)
(0.00955201 0.154373 0)
(0.0370194 0.0149784 0)
(0.0691578 -0.17231 0)
(-0.0580705 0.0535541 0)
(-0.271326 0.0646462 0)
(0.459463 -0.0446499 0)
(0.0357565 -0.0163375 0)
(-0.0462927 -0.0406956 0)
(0.00969871 -0.0517964 0)
(-0.0112601 0.089435 0)
(0.0183654 0.0849818 0)
(-0.0953835 -0.146482 0)
(0.0501649 -0.0852061 0)
(-0.0863046 0.147618 0)
(-0.0226988 0.111287 0)
(0.0903363 0.121349 0)
(-0.0655322 -0.131259 0)
(-0.0243357 -0.234869 0)
(0.108881 -0.0703897 0)
(-0.0132023 0.186313 0)
(0.0708773 0.116416 0)
(0.0407392 -0.0202324 0)
(-0.0665105 -0.0521951 0)
(0.0703251 -0.0775611 0)
(0.0495998 -0.0161351 0)
(0.0159671 0.0639494 0)
(0.0469945 0.0155083 0)
(0.0707137 -0.149831 0)
(-0.193461 0.0100966 0)
(-0.00601428 0.0890801 0)
(0.111132 0.0787586 0)
(0.0223229 0.0226347 0)
(0.134632 -0.021583 0)
(-0.0871348 -0.0232792 0)
(-0.0113316 -0.00621548 0)
(-0.0710808 -0.0215425 0)
(0.0178128 -0.0596269 0)
(-0.0434341 0.0504145 0)
(-0.0287994 0.153501 0)
(-0.0371079 -0.102801 0)
(0.0639727 -0.0617328 0)
(0.054978 -0.0692549 0)
(-0.0292774 0.102466 0)
(0.08044 0.0597744 0)
(0.105566 0.0017457 0)
(0.0712248 -0.0439911 0)
(-0.0801179 -0.0783972 0)
(0.0705665 0.0275211 0)
(0.0414348 0.119616 0)
(0.0613967 7.70615e-05 0)
(0.0437726 -0.0182069 0)
(0.0265864 -7.64838e-05 0)
(0.0182381 -0.0281298 0)
(0.140105 -0.00942392 0)
(0.175163 -0.0405052 0)
(0.0812361 -0.0986089 0)
(-0.0507387 -0.0418619 0)
(0.0545598 -0.0876777 0)
(0.207213 0.163996 0)
(0.0169171 0.0717265 0)
(0.0868414 -0.0960757 0)
(-0.156763 -0.128396 0)
(-0.00255685 -0.0027722 0)
(0.222075 0.0765804 0)
(0.00508916 0.181166 0)
(-0.00385574 0.0460442 0)
(0.0868155 -0.0782141 0)
(0.0202318 0.0313126 0)
(-0.0621075 -0.0609403 0)
(-0.0444475 0.0452633 0)
(0.0580156 -0.0269986 0)
(0.103121 0.026094 0)
(-0.0653489 0.0896438 0)
(-0.0314387 -0.00558996 0)
(0.0281767 -0.0171346 0)
(0.0125254 -0.16196 0)
(-0.107482 0.0529187 0)
(-0.119668 0.127716 0)
(-0.0298269 0.0187587 0)
(0.00395164 0.0365663 0)
(-0.000644794 -0.0475994 0)
(0.00813501 -0.174609 0)
(0.0396036 0.168957 0)
(0.0216039 0.0486931 0)
(0.0152976 -0.0121595 0)
(-0.0487615 0.0299719 0)
(-0.00731747 -0.219798 0)
(-0.00911478 0.0991107 0)
(0.114829 0.159863 0)
(0.0539355 -0.0573538 0)
(-0.110838 0.0367089 0)
(-0.0192812 0.0242415 0)
(0.0440297 -0.0709336 0)
(0.00332049 -0.0909198 0)
(0.0119404 0.00605415 0)
(-0.0441205 -0.031345 0)
(-0.0101992 -0.00400951 0)
(-0.0162253 0.169835 0)
(0.0355634 -0.0410243 0)
(-0.00156883 -0.110123 0)
(-0.000978553 0.150388 0)
(0.0011148 0.0132672 0)
(-0.00645163 0.0417977 0)
(0.0223458 -0.0254277 0)
(0.135617 -0.148968 0)
(0.122182 -0.0727418 0)
(-0.0281268 0.154159 0)
(0.0228603 -0.107632 0)
(0.0154047 -0.0598915 0)
(-0.017507 0.12646 0)
(0.112575 0.12353 0)
(0.073074 -0.0447214 0)
(-0.133588 0.02969 0)
(0.0138182 0.0359151 0)
(0.0512 -0.127792 0)
(0.259053 0.165227 0)
(-0.0719418 0.232645 0)
(-0.247901 -0.50737 0)
(0.0615692 -0.254097 0)
(0.0792946 0.139275 0)
(0.129671 0.174781 0)
(0.0411902 0.0634197 0)
(0.0188808 0.0100502 0)
(-0.00168438 -0.158526 0)
(0.00546551 -0.0824451 0)
(0.0968672 0.148507 0)
(0.0613215 0.0234326 0)
(-0.0865244 -0.00840527 0)
(0.0078746 -0.00143375 0)
(0.0142003 0.00248245 0)
(0.0234184 -0.00867923 0)
(0.0423369 -0.0597887 0)
(0.0529095 0.148718 0)
(0.0656872 0.0286367 0)
(-0.0214399 -0.11742 0)
(-0.00255761 0.0888784 0)
(0.0285595 -0.0812612 0)
(0.00686337 -0.0425237 0)
(0.123261 0.125795 0)
(0.175689 0.00186675 0)
(0.0117207 -0.129393 0)
(0.0045169 0.0372209 0)
(-0.00916775 0.06479 0)
(0.0575551 -0.0615457 0)
(0.125716 -0.032757 0)
(0.0711735 -0.0337418 0)
(0.00895522 -0.0334905 0)
(0.0537869 0.0591533 0)
(-0.0277541 -0.0501003 0)
(0.0402984 0.0336988 0)
(0.217442 0.118502 0)
(0.047607 -0.0448513 0)
(0.0788795 0.0615757 0)
(0.125234 -0.0618066 0)
(-0.0549997 -0.0936411 0)
(0.0461926 0.0416189 0)
(-0.0443111 0.021922 0)
(0.0207128 -0.0941036 0)
(0.0144537 -0.0505994 0)
(0.139815 0.12721 0)
(0.142968 0.139201 0)
(-0.133785 -0.148563 0)
(-0.079583 -0.200158 0)
(0.172378 0.0323361 0)
(0.10875 0.304274 0)
(-0.088459 0.0545341 0)
(-0.120615 -0.108353 0)
(0.0884112 0.106027 0)
(-0.0781863 -0.0664688 0)
(0.0808285 -0.10465 0)
(0.0390343 0.0974792 0)
(0.0846982 0.0820251 0)
(0.202648 -0.0317391 0)
(0.00354544 -0.0647475 0)
(0.0616757 -0.0199429 0)
(0.0805498 0.0796941 0)
(-0.0620666 0.064928 0)
(6.79751e-05 -0.0658029 0)
(0.0814174 -0.0660253 0)
(-0.0046579 0.0403076 0)
(-0.00743225 -0.0218313 0)
(0.00956047 -0.0610612 0)
(-0.0172661 0.0490593 0)
(-0.0158579 0.00233667 0)
(0.0193485 0.0869213 0)
(0.0580549 0.0150246 0)
(0.000303433 -0.190344 0)
(-0.0580976 0.214009 0)
(0.0356483 -0.0575491 0)
(0.0905604 -0.0434045 0)
(0.0878817 0.188423 0)
(-0.0182064 -0.0311136 0)
(0.11867 -0.121608 0)
(0.0619863 -0.176147 0)
(0.0824264 0.024581 0)
(0.0417831 0.0348936 0)
(-0.0492128 -0.0597938 0)
(-0.0904209 0.0128474 0)
(-0.000456805 -0.0213522 0)
(-0.0228554 0.0520208 0)
(0.00509698 -0.011246 0)
(0.0601873 0.104179 0)
(0.0410647 0.0337108 0)
(0.00426578 -0.0857039 0)
(0.0665778 -0.0278205 0)
(-0.0111855 -0.0909951 0)
(-0.0439742 0.00585663 0)
(-0.0940629 0.0961015 0)
(-0.22091 -0.0715307 0)
(-0.0711165 0.0563774 0)
(0.220108 0.014927 0)
(0.110668 0.0359389 0)
(0.00350546 -0.0104878 0)
(0.102643 -0.0900636 0)
(0.101014 0.0014642 0)
(0.0547377 0.0644362 0)
(0.0305505 0.0877793 0)
(0.0766424 -0.0816775 0)
(0.0510777 -0.208128 0)
(-0.109918 0.045195 0)
(-0.00240074 0.0768869 0)
(-0.0935101 -0.064047 0)
(0.0105956 0.103176 0)
(0.186335 0.00662127 0)
(-0.0274375 -0.134979 0)
(0.0821698 0.022941 0)
(0.0283756 0.0587121 0)
(-0.14608 0.0300875 0)
(-0.00385992 -0.103731 0)
(-0.0314063 -0.0130428 0)
(0.0142094 0.0494387 0)
(0.0211148 -0.0587068 0)
(0.0882606 0.0397779 0)
(-0.0103817 0.119931 0)
(0.0675421 -0.0869649 0)
(-0.231374 0.0127661 0)
(-0.18743 0.0306206 0)
(0.0595346 -0.102113 0)
(0.0372265 0.0437005 0)
(-0.0491719 0.0280619 0)
(-0.00741443 -0.0118227 0)
(0.0468246 0.172285 0)
(0.17248 -0.0215771 0)
(0.039548 -0.14466 0)
(-0.0272089 0.0426177 0)
(0.0339332 -0.0637567 0)
(0.0147616 0.0123325 0)
(0.0153883 0.0836876 0)
(-0.0388834 -0.0493262 0)
(0.0400313 -0.0892891 0)
(-0.0218291 0.100955 0)
(-0.0422521 0.017421 0)
(-0.00307222 0.120995 0)
(0.0195598 -0.0567663 0)
(-0.0381952 -0.0864392 0)
(0.0181366 0.0201338 0)
(0.038934 0.0190874 0)
(0.0381089 -0.0864972 0)
(-0.0211321 0.0130126 0)
(0.12019 0.0711453 0)
(-0.0120293 0.081387 0)
(0.186475 -0.0858659 0)
(-0.0985199 -0.234548 0)
(-0.154122 -0.00110069 0)
(-0.0254636 0.324628 0)
(-0.0091598 0.126156 0)
(-0.0131328 -0.0395941 0)
(-0.00977283 -0.0862201 0)
(-0.128271 -0.0922638 0)
(-0.118364 -0.00549571 0)
(-0.0377591 0.0334238 0)
(0.157993 -0.114521 0)
(0.048519 0.0829776 0)
(-0.00999992 0.143402 0)
(-0.0505836 -0.123254 0)
(0.045727 -0.0123028 0)
(-0.0190364 0.0739096 0)
(0.0668521 -0.077232 0)
(-0.0732669 -0.0324592 0)
(-0.00231114 0.0226945 0)
(0.0016661 0.00574534 0)
(0.0259843 0.0396113 0)
(0.0587189 -0.134286 0)
(0.0086734 -0.00794386 0)
(0.0863091 0.156407 0)
(0.124596 0.0274565 0)
(-0.0309422 -0.0697574 0)
(0.0761859 0.0123086 0)
(0.0732283 -0.00878393 0)
(0.165588 0.0712606 0)
(-0.0364943 0.0569785 0)
(0.0290069 -0.0788659 0)
(0.0294139 0.0107201 0)
(0.00802212 -0.166106 0)
(0.0209105 -0.0920231 0)
(-0.00147418 0.0487497 0)
(-0.0417449 0.0464697 0)
(-0.0898768 0.051963 0)
(-0.0417962 0.0129201 0)
(-0.0423256 0.0706066 0)
(0.0276187 0.0604524 0)
(-0.0886948 0.0380702 0)
(0.0225837 -0.0669325 0)
(0.0912273 -0.0820152 0)
(0.0311731 -0.0937478 0)
(-0.0815894 -0.0529844 0)
(-0.0762728 -0.098399 0)
(-0.0209196 0.243694 0)
(-0.0724319 0.0333993 0)
(-0.0507377 -0.21011 0)
(-0.0447997 -0.020775 0)
(-0.0222482 0.122533 0)
(0.0203019 0.0601426 0)
(0.0346184 -0.108008 0)
(-0.00610745 -0.113252 0)
(0.0339145 0.13682 0)
(-0.0179661 -0.0245025 0)
(0.175908 0.0758697 0)
(0.069434 -0.0030771 0)
(-0.161048 -0.0635291 0)
(0.00144877 -0.00904175 0)
(-0.00167329 -0.0157447 0)
(-0.0489287 -0.0455334 0)
(-0.0387448 -0.0533537 0)
(0.0258911 0.0674425 0)
(-0.159839 0.0224059 0)
(0.0608413 -0.0102983 0)
(0.06526 -0.143772 0)
(-0.0249345 -0.0146456 0)
(-0.0215427 0.117189 0)
(0.0194819 0.0985937 0)
(-0.218759 -0.0243892 0)
(0.0831782 -0.0173756 0)
(0.0778686 0.0143275 0)
(0.34733 0.0606449 0)
(-0.111028 0.0158361 0)
(-0.0630839 -0.0827027 0)
(-0.0564061 -0.0247168 0)
(-0.0357478 0.0532899 0)
(0.0767935 0.00584509 0)
(0.0243164 -0.0564359 0)
(0.0721805 0.000868463 0)
(-0.0297279 -0.0071581 0)
(-0.0361065 0.0175455 0)
(0.104927 -0.119489 0)
(0.0993738 -0.0338851 0)
(-0.104669 0.14026 0)
(-0.138797 0.0100695 0)
(0.00559422 -0.153384 0)
(0.140461 0.0282874 0)
(0.0199734 0.035058 0)
(0.02616 0.0547492 0)
(0.0504951 0.124615 0)
(0.0450993 -0.0605612 0)
(0.112262 -0.19793 0)
(0.0957352 -0.0464486 0)
(-0.00577414 0.048819 0)
(0.067334 -0.0195195 0)
(0.119991 0.0209089 0)
(-0.0127691 0.0109727 0)
(0.125041 -0.00673384 0)
(-0.00418942 0.0282114 0)
(0.0715378 -0.00517586 0)
(-0.197612 0.117054 0)
(-0.0682916 0.0805194 0)
(0.0821983 0.00714056 0)
(0.0962225 0.00546535 0)
(-0.0472144 -0.00108704 0)
(0.0808962 -0.00544426 0)
(-0.013459 -0.0491559 0)
(-0.0819169 -0.0605688 0)
(-0.174888 0.0109175 0)
(0.0061646 0.141174 0)
(0.0794782 -0.00395169 0)
(0.146959 -0.134505 0)
(0.0540329 0.0312196 0)
(0.0337513 0.0631178 0)
(-0.0259928 0.00581035 0)
(0.0778306 -0.0279505 0)
(0.000286038 0.00181199 0)
(0.0231687 -0.025351 0)
(0.0155624 0.0139087 0)
(0.0303957 0.00568204 0)
(-0.035917 -0.0542178 0)
(0.0534597 0.211845 0)
(-0.0439331 -0.0270962 0)
(-0.0105088 -0.0962075 0)
(0.0295912 -0.0336545 0)
(0.0188373 0.0684694 0)
(-0.0226782 0.0566791 0)
(0.0466361 0.0648398 0)
(0.00794146 0.153783 0)
(-0.034204 -0.157227 0)
(0.0837779 -0.237257 0)
(-0.00863379 0.0463608 0)
(-0.13126 0.0779924 0)
(-0.0551204 -0.105066 0)
(0.15247 -0.0676779 0)
(0.133784 0.0827374 0)
(-0.0925878 0.0798153 0)
(0.135111 0.0282859 0)
(-0.0169065 -0.183547 0)
(0.123464 0.156131 0)
(0.0399154 0.202726 0)
(-0.0210246 -0.243359 0)
(0.0751161 -0.088551 0)
(-0.0534574 -0.0272672 0)
(-0.0371743 0.112183 0)
(0.109453 0.0948861 0)
(-0.0324633 -0.100293 0)
(0.0790723 0.0468418 0)
(-0.100125 0.0308701 0)
(0.101168 -0.0308782 0)
(0.00711871 -0.00946643 0)
(-0.0542639 -0.0518859 0)
(-0.0984185 -0.0293803 0)
(-0.0422729 0.0464717 0)
(0.150655 0.0866767 0)
(-0.0237829 -0.0224731 0)
(-0.0243901 -0.123113 0)
(-0.158152 -0.0397391 0)
(0.232017 0.092196 0)
(-0.0422006 -0.0249527 0)
(0.00804988 -0.0261288 0)
(0.012621 -0.0046544 0)
(-0.100131 0.0121862 0)
(0.0419152 0.0795875 0)
(0.0766856 -0.189736 0)
(0.0205013 0.0526087 0)
(-0.0449101 0.0844847 0)
(0.0181731 0.0830798 0)
(0.0384251 -0.0655168 0)
(-0.0023756 -0.0583617 0)
(0.113312 -0.00566955 0)
(-0.00873826 0.0765714 0)
(0.015518 0.15636 0)
(-0.0945452 -0.0944494 0)
(0.0661287 -0.084235 0)
(0.17817 -0.0546228 0)
(0.135124 -0.113216 0)
(-0.00846139 0.169902 0)
(0.252177 -0.0129626 0)
(-0.0898152 -0.0186417 0)
(0.0192075 -0.0206844 0)
(0.0751576 -0.0474651 0)
(-0.117275 0.113956 0)
(0.0456911 0.100561 0)
(0.14971 -0.0235875 0)
(-0.0174858 -0.19143 0)
(0.129504 -0.0140099 0)
(-0.0996308 0.094337 0)
(0.132737 0.0337464 0)
(-0.00190518 -0.0479643 0)
(0.0274991 -0.041705 0)
(0.0706066 -0.0787638 0)
(-0.0245396 -0.0201902 0)
(0.0410273 -0.0160939 0)
(0.0190054 0.00876007 0)
(0.0531864 0.119164 0)
(-0.0037567 0.0349346 0)
(0.0411664 -0.0638242 0)
(0.0400164 -0.0518346 0)
(0.0181544 0.170972 0)
(-0.0100224 0.0724241 0)
(0.0919942 -0.113862 0)
(0.14218 -0.00502135 0)
(0.100252 0.0791949 0)
(0.0184165 -0.0088475 0)
(0.111467 0.00680961 0)
(-0.00224572 0.0189095 0)
(-0.011254 -0.0133457 0)
(-0.0129751 -0.0137969 0)
(0.0869882 0.0127103 0)
(0.0702049 0.00156991 0)
(0.0225041 -0.0853059 0)
(0.0160189 0.103607 0)
(0.0365462 0.0979444 0)
(-0.00486322 -0.0755549 0)
(-0.058087 -0.0770101 0)
(0.00811951 -0.0366956 0)
(-0.026796 0.033557 0)
(0.00836453 0.0785216 0)
(-0.00337609 -0.0986287 0)
(-0.00110962 -0.0644681 0)
(-0.00680861 0.15568 0)
(-0.0675192 0.0605813 0)
(-0.171186 -0.103199 0)
(0.0648856 -0.100286 0)
(-0.0521207 0.0429878 0)
(-0.0121072 0.129692 0)
(-0.0098759 0.100907 0)
(0.22394 0.0458025 0)
(-0.0365046 -0.142056 0)
(0.00748314 -0.057676 0)
(-0.0771922 -0.0332893 0)
(-0.0329247 -0.0761539 0)
(0.0230066 -0.00134504 0)
(-0.109589 -0.0808132 0)
(0.0274452 0.121018 0)
(0.0228155 -0.0889778 0)
(-0.0154115 -0.0964845 0)
(0.187251 0.0937605 0)
(-0.0293431 0.160118 0)
(0.166486 -0.0436027 0)
(0.0455855 0.0328585 0)
(-0.0178288 -0.0523133 0)
(0.154779 0.00200298 0)
(-0.0860139 0.0704388 0)
(0.127844 0.0488442 0)
(-0.0326348 -0.13071 0)
(-0.0773104 -0.0783968 0)
(0.0738475 0.0513697 0)
(-0.00464151 -0.0691753 0)
(0.0121601 0.0261949 0)
(0.100049 0.152923 0)
(0.00899298 -0.258776 0)
(0.000128211 0.0665769 0)
(0.0352579 0.238367 0)
(-0.027431 0.05853 0)
(-0.00927713 -0.055141 0)
(0.0639403 -0.0953595 0)
(0.0144164 0.0580889 0)
(-0.0435593 -0.1429 0)
(0.0527722 -0.00277161 0)
(-0.121281 0.154499 0)
(-0.0169048 -0.00849359 0)
(-0.0354731 0.0392715 0)
(-0.00305557 -0.101611 0)
(0.0163125 -0.0120235 0)
(-0.0225764 0.104602 0)
(-0.113842 -0.0101177 0)
(-0.0633697 -0.0546009 0)
(0.0134439 -0.14369 0)
(-0.122858 -0.0178154 0)
(-0.00636578 0.0783648 0)
(0.117051 0.2039 0)
(-0.0566835 0.0220316 0)
(-0.0369661 -0.293308 0)
(-0.0326275 -0.100095 0)
(0.0615942 0.0564262 0)
(-0.0301961 0.0895395 0)
(0.0711934 -5.36638e-05 0)
(-0.0976083 0.0704275 0)
(-0.0790081 0.00690278 0)
(-0.0160033 -0.0211198 0)
(0.0272807 0.0682402 0)
(0.119129 -0.00960886 0)
(0.251294 -0.087831 0)
(-0.236858 0.0971867 0)
(-0.000862977 -0.168248 0)
(-0.109619 -0.0579529 0)
(0.182241 0.134367 0)
(-0.242687 0.0307418 0)
(-0.183728 -0.0720626 0)
(-0.0821415 -0.0460581 0)
(0.0611699 -0.0353707 0)
(-0.0119715 -0.0507007 0)
(0.0324659 0.0219104 0)
(-0.086726 0.064548 0)
(0.0145212 -0.0118931 0)
(-0.0223961 0.0381217 0)
(0.00759851 0.00651682 0)
(-0.0487657 0.0784788 0)
(0.0557122 -0.0379778 0)
(-0.143812 -0.0414581 0)
(0.0225897 0.0361483 0)
(-0.0601436 -0.0167764 0)
(-0.056289 0.0151273 0)
(-0.0338141 -0.0837515 0)
(0.00791499 0.122413 0)
(0.0188966 -0.0385 0)
(0.0564738 -0.0886261 0)
(0.045876 0.0938018 0)
(0.0708029 0.0477264 0)
(-0.0593139 -0.118328 0)
(0.00662411 -0.0300694 0)
(0.0317056 0.151706 0)
(-0.0169702 -0.0162985 0)
(0.0469277 -0.0388282 0)
(0.000195239 0.0060408 0)
(0.00539403 0.0109658 0)
(0.0083868 -0.0382349 0)
(-0.00454267 -0.0707778 0)
(-0.0118182 0.0858479 0)
(0.0258101 0.00687551 0)
(-0.00813394 0.107634 0)
(-0.00315656 -0.0710511 0)
(-0.0185627 -0.352699 0)
(-0.0122883 0.148481 0)
(-0.00303509 0.19474 0)
(0.0651329 -0.02661 0)
(-0.106494 0.0590292 0)
(0.120111 -0.0253462 0)
(-0.0244487 0.0110979 0)
(-0.0048369 -0.0966218 0)
(0.00916565 -0.169367 0)
(-0.0110281 0.0761507 0)
(-0.0155747 -0.0189188 0)
(-0.181685 -0.0247548 0)
(-0.105022 0.00752837 0)
(-0.103471 0.0772586 0)
(-0.0939894 0.0898119 0)
(0.434427 -0.180205 0)
(0.0366563 -0.179097 0)
(0.0737342 0.0662571 0)
(0.0459378 0.0873879 0)
(-0.00550069 0.0953193 0)
(-0.0196684 -0.0427055 0)
(-0.0150118 0.0367747 0)
(0.0305028 -0.0398387 0)
(0.027516 -0.0295404 0)
(-0.0159133 0.0468217 0)
(-0.0435827 0.019295 0)
(-0.0957658 0.0170374 0)
(0.0482494 -0.00946575 0)
(0.162085 -0.184481 0)
(-0.0469396 0.063625 0)
(-0.0611042 0.212836 0)
(0.133435 0.017559 0)
(0.0116323 -0.0670139 0)
(0.254298 0.0171372 0)
(-0.0336673 0.11776 0)
(-0.174682 -0.132196 0)
(0.0203943 -0.139156 0)
(0.0276388 0.139505 0)
(0.0338922 0.128114 0)
(-0.0190384 -0.151534 0)
(-0.040652 -0.050014 0)
(-0.167776 0.0395403 0)
(-0.0467732 0.253658 0)
(0.0827529 -0.0330009 0)
(-0.0532825 -0.173846 0)
(0.0308467 -0.126579 0)
(0.0303731 -0.0275758 0)
(0.134759 0.0540758 0)
(-0.0355189 0.0221717 0)
(0.0924262 0.0634049 0)
(-0.0252458 0.00910922 0)
(0.0250432 -0.0571216 0)
(-0.00384398 -0.0703231 0)
(-0.00552749 -0.107789 0)
(5.02857e-05 0.144459 0)
(-0.0238544 0.168795 0)
(0.0596535 -0.0802818 0)
(-0.137901 -0.212486 0)
(0.200524 0.104165 0)
(0.0332774 0.0915769 0)
(-0.00904653 0.00140727 0)
(-0.101672 0.0585072 0)
(0.00732006 -0.112135 0)
(-0.144446 -0.118801 0)
(0.0463669 2.96617e-05 0)
(0.15396 0.136621 0)
(0.00456522 0.011177 0)
(-0.151262 -0.138689 0)
(0.112938 -0.136004 0)
(-0.0112204 -0.0698133 0)
(0.0872866 0.229765 0)
(0.0565582 -0.0240538 0)
(0.0327406 -0.0326674 0)
(-0.00793727 0.0711475 0)
(-0.0246131 0.109075 0)
(0.0841221 -0.0575203 0)
(0.0690797 -0.062623 0)
(-0.0235676 0.0571853 0)
(0.00054152 0.0299765 0)
(0.00510745 -0.0365955 0)
(-0.0103534 0.0598785 0)
(-0.0566722 -0.0326763 0)
(-0.0526002 -0.135877 0)
(-0.0544189 0.032463 0)
(-0.00707267 0.0934143 0)
(-0.011631 -0.0105166 0)
(-0.0926275 -0.0283401 0)
(0.0663686 0.0679338 0)
(0.0184802 0.088156 0)
(-0.00383818 0.0765223 0)
(0.0390082 -0.0255905 0)
(-0.0273599 -0.0590559 0)
(-0.00467716 -0.0235837 0)
(0.0188798 0.00521653 0)
(0.00888148 0.0232767 0)
(0.0162139 -0.0542324 0)
(-0.0060837 -0.0529448 0)
(-0.0110025 0.0620396 0)
(0.104926 0.239581 0)
(-0.170477 -0.10302 0)
(-0.0265035 -0.207107 0)
(-0.0230505 -0.03943 0)
(-0.0233644 0.0574538 0)
(-0.0192358 0.0979829 0)
(-0.0174969 0.0510161 0)
(0.062467 -0.0258726 0)
(0.00949665 0.0346953 0)
(0.0406324 -0.0361963 0)
(-0.0209768 -0.0401986 0)
(-0.0807507 0.03214 0)
(0.0742217 -0.022454 0)
(0.0140983 0.122899 0)
(-0.161328 0.0204797 0)
(-0.20667 -0.239682 0)
(0.0776184 0.0909104 0)
(0.0676638 0.112034 0)
(-0.00159434 0.0876743 0)
(0.0107575 0.0301361 0)
(-0.0476442 -0.110307 0)
(0.0132403 -0.121984 0)
(-0.0954425 0.0560809 0)
(0.124394 0.118796 0)
(-0.0618105 -0.101767 0)
(0.00176028 -0.116053 0)
(-0.0729627 0.0405449 0)
(-0.292812 0.135307 0)
(-0.0676189 -0.0097173 0)
(0.174382 -0.0644589 0)
(0.190564 -0.20806 0)
(-0.0141839 0.0297067 0)
(-0.0290846 0.175545 0)
(0.183783 0.0520371 0)
(0.0127125 -0.0132841 0)
(0.00257256 0.0761289 0)
(0.0190115 0.00116226 0)
(0.0757648 -0.0103731 0)
(-0.0472296 -0.0618251 0)
(0.0162533 -0.165219 0)
(0.00373501 0.120333 0)
(0.038659 0.112059 0)
(-0.00394002 0.0200086 0)
(0.0136293 -0.0451436 0)
(-0.0441958 -0.0642205 0)
(0.163037 0.0952597 0)
(0.000535125 -0.110801 0)
(-0.0823668 -0.216794 0)
(0.0582431 -0.0189968 0)
(-0.0920435 0.157104 0)
(-0.000805165 -0.0342519 0)
(-0.0438985 0.00542239 0)
(-0.044176 0.0769695 0)
(-0.00641151 -0.0847239 0)
(0.0105508 -0.107283 0)
(0.00736219 -0.0283611 0)
(-0.0375555 0.12055 0)
(-0.0326137 0.143463 0)
(0.0728162 -0.0829958 0)
(-0.0982433 -0.0519269 0)
(-0.06028 -0.0817981 0)
(0.138042 -0.0472777 0)
(0.0265482 0.151315 0)
(-0.0265998 0.112161 0)
(0.0463744 -0.0483365 0)
(-0.262871 -0.203484 0)
(-0.0199258 -0.0176786 0)
(0.0299938 0.111792 0)
(0.0680802 -0.002818 0)
(0.0982286 -0.128182 0)
(0.0110816 -0.0766921 0)
(-0.0502373 -0.04703 0)
(0.043436 0.167329 0)
(0.0115951 0.159065 0)
(-0.0666674 0.0226699 0)
(-0.225122 -0.0145716 0)
(0.102704 0.0664726 0)
(0.0728311 -0.0913534 0)
(-0.0430223 -0.172371 0)
(0.00840731 0.0256872 0)
(0.160722 0.107844 0)