/*--------------------------------*- C++ -*----------------------------------*\
| =========                 |                                                 |
| \\      /  F ield         | OpenFOAM: The Open Source CFD Toolbox           |
|  \\    /   O peration     | Version:  v2012                                 |
|   \\  /    A nd           | Website:  www.openfoam.com                      |
|    \\/     M anipulation  |                                                 |
\*---------------------------------------------------------------------------*/
FoamFile
{
    version     2.0;
    format      ascii;
    class       volVectorField;
    location    "70";
    object      Usup;
}
// * * * * * * * * * * * * * * * * * * * * * * * * * * * * * * * * * * * * * //

dimensions      [0 1 -1 0 0 0 0];


internalField   nonuniform List<vector> 
4000
(
(-0.000728476 0.00105222 0)
(-0.00117885 0.00180926 0)
(-0.00109582 0.00178165 0)
(-0.00348962 0.00534206 0)
(-0.000601451 0.0101859 0)
(0.00682166 0.00620195 0)
(0.00261173 0.00240828 0)
(-0.00462079 0.00369447 0)
(-0.00203919 0.00566434 0)
(-0.000691849 0.0164695 0)
(0.00545014 0.020983 0)
(0.0192002 0.0146327 0)
(0.0191336 0.00612518 0)
(0.0146612 0.00480948 0)
(0.015534 0.00369011 0)
(0.0143278 -0.00223061 0)
(0.010347 -0.00207899 0)
(0.0118861 0.00435629 0)
(0.012961 0.00426766 0)
(0.0088905 0.00325709 0)
(0.00710588 0.00256094 0)
(0.00250954 -0.000632495 0)
(-0.00193136 0.00183819 0)
(-0.00819216 -0.00573339 0)
(-0.013634 -0.00644429 0)
(-0.0147273 -0.00641726 0)
(-0.0118 -0.00491234 0)
(-0.00546542 -0.00237185 0)
(-0.00543171 -0.00199587 0)
(-0.0111074 -0.00129014 0)
(-0.0137734 -0.000252554 0)
(-0.0104441 0.00100547 0)
(-0.00393896 3.09831e-05 0)
(0.000277061 -0.00104107 0)
(0.0033489 -0.00150151 0)
(-0.000758038 -0.00373937 0)
(0.00040205 0.000388453 0)
(0.0106127 0.000470986 0)
(0.0115797 -0.00281102 0)
(0.00320966 -0.00746611 0)
(-0.0078023 -0.00422637 0)
(-0.0117198 -0.00763899 0)
(-0.0169296 -0.0114494 0)
(-0.014831 -0.00798141 0)
(-0.00152191 -0.00581747 0)
(0.00701542 -0.00581847 0)
(0.0101898 -0.0051181 0)
(0.0114652 -0.0030326 0)
(0.0127601 -0.0066133 0)
(0.017939 -0.0058996 0)
(0.0193986 -0.00395072 0)
(0.0155887 -0.00468859 0)
(0.0204899 -0.00777015 0)
(0.0201891 -0.0118207 0)
(0.01515 -0.0101929 0)
(0.0141262 -0.00964535 0)
(0.00560617 -0.0100672 0)
(-0.00845207 -0.0121585 0)
(-0.0211669 -0.0114954 0)
(-0.0264313 -0.00664189 0)
(-0.0250798 -0.0088118 0)
(-0.0204944 -0.00791479 0)
(-0.0164109 -0.00929829 0)
(-0.018321 -0.0101081 0)
(-0.0222481 -0.00520815 0)
(-0.0205888 -0.00219784 0)
(-0.0105216 -0.00120918 0)
(0.00236176 0.00263494 0)
(0.00745757 0.00098259 0)
(0.00612991 0.00667344 0)
(0.00766815 0.00805535 0)
(0.0116865 0.0110203 0)
(0.00947167 0.00787488 0)
(0.00195341 0.00617326 0)
(-0.0053492 0.00868501 0)
(-0.00544533 0.00958888 0)
(0.00261021 0.010583 0)
(0.0112351 0.00888664 0)
(0.015969 0.00451874 0)
(0.012227 -0.00644278 0)
(0.00503846 -0.00923983 0)
(0.00465579 -0.00488809 0)
(0.00665565 -0.0062012 0)
(9.13614e-05 -0.00949775 0)
(0.000358389 -0.00552088 0)
(0.0101781 -0.00616436 0)
(0.0201137 -0.0061955 0)
(0.0159876 -0.0104465 0)
(0.000913298 -0.00738943 0)
(0.00126458 -0.00236927 0)
(0.00249444 -0.00263888 0)
(-0.00666921 -0.00415416 0)
(-0.0104838 -0.00268195 0)
(-0.00777734 0.00224854 0)
(-0.0109198 0.00277235 0)
(-0.0180681 0.00181755 0)
(-0.0217832 0.000395409 0)
(-0.0208935 0.00222667 0)
(-0.0130793 0.00149865 0)
(-0.00515674 -4.5375e-05 0)
(-0.00194189 0.00293744 0)
(-0.00392459 0.00615428 0)
(-0.00161783 0.00753311 0)
(-0.00111571 0.0141197 0)
(-0.000240253 0.021694 0)
(0.00668377 0.0189361 0)
(0.00354466 0.0149512 0)
(-0.00476254 0.0175035 0)
(0.00679538 0.0274621 0)
(0.0140776 0.0418703 0)
(0.0167966 0.0524737 0)
(0.0345236 0.0420246 0)
(0.0410975 0.0217361 0)
(0.0395932 0.0149017 0)
(0.0367508 0.00706354 0)
(0.0345651 -0.00351427 0)
(0.0360486 -0.0014223 0)
(0.037272 0.0132868 0)
(0.0321694 0.0121095 0)
(0.0229258 0.0149915 0)
(0.0149357 0.011533 0)
(0.00574288 -0.0038245 0)
(-0.0095277 -0.00593354 0)
(-0.0268057 -0.0150251 0)
(-0.03369 -0.0198996 0)
(-0.0352627 -0.0213455 0)
(-0.027727 -0.0181509 0)
(-0.0168748 -0.00923937 0)
(-0.0179397 -0.00675673 0)
(-0.0276189 -0.0059014 0)
(-0.0317782 2.99956e-05 0)
(-0.0258805 0.00202278 0)
(-0.0135361 0.00185689 0)
(-0.00278159 -0.00237691 0)
(0.00327438 -0.00576537 0)
(0.00136856 -0.010434 0)
(0.0069713 0.00127577 0)
(0.0200517 0.00185198 0)
(0.0178626 -0.00532321 0)
(0.00499422 -0.0161148 0)
(-0.017465 -0.0167084 0)
(-0.0336766 -0.0244838 0)
(-0.0383991 -0.0303233 0)
(-0.0278054 -0.0200002 0)
(-0.00287342 -0.0149812 0)
(0.0165173 -0.0138463 0)
(0.0280561 -0.0157363 0)
(0.0302548 -0.0150298 0)
(0.0342583 -0.0198355 0)
(0.0490905 -0.0209708 0)
(0.0517185 -0.0182429 0)
(0.0425895 -0.0173233 0)
(0.0478252 -0.0187825 0)
(0.0495533 -0.0274638 0)
(0.0416838 -0.026873 0)
(0.0328948 -0.029441 0)
(0.00913019 -0.033716 0)
(-0.0228144 -0.0420381 0)
(-0.0473742 -0.0401431 0)
(-0.0635924 -0.0265417 0)
(-0.0658465 -0.0264359 0)
(-0.0567968 -0.0229225 0)
(-0.0501717 -0.0230028 0)
(-0.0481264 -0.0219559 0)
(-0.0508165 -0.0165847 0)
(-0.0475361 -0.00823565 0)
(-0.0239882 -0.00149112 0)
(0.00236093 0.0079102 0)
(0.0175199 0.00893669 0)
(0.0207592 0.0195968 0)
(0.0230969 0.0275066 0)
(0.0269149 0.0287429 0)
(0.0184835 0.0234494 0)
(0.00717145 0.0216117 0)
(-0.00539853 0.0293918 0)
(-0.00623612 0.0320138 0)
(0.00851166 0.0295826 0)
(0.0231081 0.0230465 0)
(0.0263819 0.00790696 0)
(0.0208497 -0.0156496 0)
(0.0184045 -0.0234005 0)
(0.017145 -0.0166235 0)
(0.0133949 -0.02021 0)
(0.00618112 -0.0227172 0)
(0.00988713 -0.0164782 0)
(0.0264043 -0.0218816 0)
(0.0421913 -0.0228458 0)
(0.0358974 -0.0314232 0)
(0.0140556 -0.0245169 0)
(0.00781256 -0.0117727 0)
(0.00134616 -0.0099626 0)
(-0.0159469 -0.00708217 0)
(-0.0207947 -0.00336675 0)
(-0.019694 0.00589105 0)
(-0.0317885 0.00497577 0)
(-0.047743 0.00168758 0)
(-0.0530955 0.00378611 0)
(-0.0489832 0.00773992 0)
(-0.0333059 0.00700483 0)
(-0.0119466 0.00131599 0)
(-0.00247569 0.00454646 0)
(-0.00535638 0.00937581 0)
(-0.00194687 0.0129169 0)
(0.000203601 0.0196721 0)
(0.00207742 0.0289719 0)
(0.00964409 0.0347077 0)
(0.00602167 0.0340484 0)
(0.00227166 0.042729 0)
(0.0171514 0.0568166 0)
(0.0268287 0.0612556 0)
(0.030398 0.0672547 0)
(0.0426819 0.0605572 0)
(0.0514054 0.0358055 0)
(0.0535635 0.0252675 0)
(0.0509623 0.00824888 0)
(0.053794 0.00189049 0)
(0.0626998 0.00452323 0)
(0.0605268 0.0202315 0)
(0.0505185 0.0218269 0)
(0.0364888 0.0246034 0)
(0.0123854 0.0197673 0)
(-0.00368734 -0.00249051 0)
(-0.0172639 -0.0187106 0)
(-0.0405383 -0.0254976 0)
(-0.052333 -0.0318124 0)
(-0.0516048 -0.0331747 0)
(-0.0374015 -0.0257366 0)
(-0.0240617 -0.0195631 0)
(-0.0294609 -0.0144057 0)
(-0.0386826 -0.00973218 0)
(-0.0426931 -0.00723175 0)
(-0.0370417 -0.00306649 0)
(-0.0228204 0.00435134 0)
(-0.010423 4.19457e-05 0)
(-0.000833626 -0.00430286 0)
(0.0060329 -0.00661933 0)
(0.0160345 0.00349115 0)
(0.0242301 -0.00412518 0)
(0.0167687 -0.0117422 0)
(-0.00144683 -0.0201748 0)
(-0.0297968 -0.0309496 0)
(-0.0496 -0.0404768 0)
(-0.0481163 -0.0434988 0)
(-0.0306796 -0.0317361 0)
(-0.00156535 -0.0266766 0)
(0.0221496 -0.0270318 0)
(0.0378859 -0.0318021 0)
(0.0453793 -0.0365255 0)
(0.0526798 -0.0317025 0)
(0.0726259 -0.0323127 0)
(0.0796566 -0.0339688 0)
(0.0710688 -0.0299301 0)
(0.0720658 -0.0302701 0)
(0.0698819 -0.0404793 0)
(0.0582247 -0.0435777 0)
(0.0406802 -0.050563 0)
(0.00415585 -0.0643923 0)
(-0.0371471 -0.0748558 0)
(-0.0625984 -0.0690063 0)
(-0.0853123 -0.0509952 0)
(-0.0942288 -0.0474203 0)
(-0.084767 -0.0400177 0)
(-0.0769104 -0.0350544 0)
(-0.074908 -0.0321133 0)
(-0.074099 -0.0264292 0)
(-0.0625016 -0.012597 0)
(-0.0300403 0.00358074 0)
(0.00409225 0.0167043 0)
(0.0258578 0.023301 0)
(0.0355578 0.0311269 0)
(0.035579 0.0439248 0)
(0.0346111 0.0448356 0)
(0.0258067 0.0437985 0)
(0.0158668 0.0447223 0)
(0.00122944 0.0503328 0)
(-0.00542275 0.0536805 0)
(0.00934159 0.0428562 0)
(0.0242893 0.0314287 0)
(0.0251181 0.00764294 0)
(0.0229014 -0.0174739 0)
(0.028455 -0.0296628 0)
(0.0274595 -0.0322025 0)
(0.0216358 -0.0342269 0)
(0.0161625 -0.0303111 0)
(0.0170794 -0.0268187 0)
(0.0359236 -0.0358784 0)
(0.0555464 -0.0421314 0)
(0.0500915 -0.050498 0)
(0.0300428 -0.0433904 0)
(0.0179218 -0.0261937 0)
(0.00497126 -0.0182355 0)
(-0.0181858 -0.00817366 0)
(-0.0276639 0.000176914 0)
(-0.0318612 0.0059003 0)
(-0.0523399 0.000532116 0)
(-0.0685836 0.00187801 0)
(-0.072066 0.00904612 0)
(-0.0675699 0.0111153 0)
(-0.0486598 0.0125767 0)
(-0.0185281 0.00339365 0)
(-0.00363797 0.00537563 0)
(-0.00722841 0.011948 0)
(-0.00168591 0.0180929 0)
(0.00486465 0.0245904 0)
(0.00905899 0.0351121 0)
(0.0132208 0.0473601 0)
(0.0122379 0.0557356 0)
(0.0135487 0.0671952 0)
(0.0252937 0.0771551 0)
(0.0336485 0.0804247 0)
(0.0393597 0.0844439 0)
(0.0470917 0.0702266 0)
(0.0568086 0.040787 0)
(0.0616963 0.0280648 0)
(0.0614169 0.019425 0)
(0.0714262 0.0165216 0)
(0.0856058 0.0100064 0)
(0.0834719 0.0168992 0)
(0.0652443 0.0260558 0)
(0.0447259 0.0292688 0)
(0.0102706 0.0251916 0)
(-0.0173487 0.00731589 0)
(-0.0322575 -0.0165024 0)
(-0.053307 -0.0361177 0)
(-0.0648648 -0.043134 0)
(-0.0602037 -0.0410087 0)
(-0.0463106 -0.0329006 0)
(-0.0341987 -0.0318796 0)
(-0.0359544 -0.0289771 0)
(-0.0495723 -0.018553 0)
(-0.0539847 -0.0177096 0)
(-0.0396762 -0.00963356 0)
(-0.0256265 0.00210155 0)
(-0.0159466 0.00462786 0)
(-0.00297755 0.00605602 0)
(0.00834521 0.0028503 0)
(0.0140058 0.00143609 0)
(0.0192328 -0.00918571 0)
(0.0154885 -0.0125653 0)
(-0.00830599 -0.0205518 0)
(-0.0430002 -0.0387767 0)
(-0.0614798 -0.0484462 0)
(-0.0534101 -0.0486297 0)
(-0.0311349 -0.0434653 0)
(-0.00131553 -0.0417252 0)
(0.0251039 -0.0462788 0)
(0.0444563 -0.0500187 0)
(0.0619115 -0.0549749 0)
(0.0758006 -0.0476488 0)
(0.0921829 -0.0459863 0)
(0.101514 -0.0489885 0)
(0.093456 -0.0450044 0)
(0.0881175 -0.0469011 0)
(0.0837079 -0.0558946 0)
(0.0690863 -0.0606767 0)
(0.0396931 -0.0738233 0)
(-0.0053574 -0.0940422 0)
(-0.0455054 -0.100157 0)
(-0.0697576 -0.0904951 0)
(-0.10082 -0.0799876 0)
(-0.115651 -0.0715881 0)
(-0.10467 -0.0570592 0)
(-0.0987324 -0.0497412 0)
(-0.0946463 -0.0471076 0)
(-0.0866285 -0.0363971 0)
(-0.0672836 -0.0151716 0)
(-0.0292283 0.0120191 0)
(0.0071309 0.0308049 0)
(0.031023 0.0407042 0)
(0.0460877 0.0453612 0)
(0.0483583 0.0572928 0)
(0.044803 0.0638033 0)
(0.0342099 0.0630876 0)
(0.0217726 0.0710761 0)
(0.00606042 0.0751633 0)
(-0.00563879 0.0730765 0)
(0.00596525 0.0588128 0)
(0.0202197 0.0387977 0)
(0.0187796 0.00890721 0)
(0.0206781 -0.012275 0)
(0.0303634 -0.0308757 0)
(0.0336962 -0.0441271 0)
(0.0330502 -0.0479923 0)
(0.0276973 -0.047098 0)
(0.0239778 -0.0427256 0)
(0.0401706 -0.048115 0)
(0.0612366 -0.0594534 0)
(0.0601976 -0.0638793 0)
(0.0458142 -0.0547472 0)
(0.0316684 -0.0363713 0)
(0.0120804 -0.0219769 0)
(-0.0152792 -0.015326 0)
(-0.0316007 -0.00119045 0)
(-0.0458908 0.00230061 0)
(-0.0672809 -0.00143695 0)
(-0.0800615 0.00776015 0)
(-0.0864183 0.0121132 0)
(-0.0805404 0.0134455 0)
(-0.058912 0.0152004 0)
(-0.0238585 0.00596622 0)
(-0.0038066 0.00616896 0)
(-0.00701165 0.0134337 0)
(-0.00121749 0.0235129 0)
(0.00656887 0.0340283 0)
(0.0159042 0.0417668 0)
(0.0251082 0.0515091 0)
(0.022392 0.0646205 0)
(0.0210192 0.0798039 0)
(0.0333498 0.0951458 0)
(0.0446024 0.0997295 0)
(0.0434439 0.097389 0)
(0.0394799 0.08032 0)
(0.0543539 0.0558152 0)
(0.0735551 0.0391328 0)
(0.0781608 0.0326423 0)
(0.0810551 0.0242454 0)
(0.0946173 0.0130865 0)
(0.101145 0.0141664 0)
(0.0846165 0.0271802 0)
(0.0552797 0.0275141 0)
(0.0087255 0.0176978 0)
(-0.0300685 0.0111132 0)
(-0.0537047 -0.00752582 0)
(-0.0730694 -0.0356445 0)
(-0.0755214 -0.0441954 0)
(-0.0672699 -0.048305 0)
(-0.0545139 -0.048355 0)
(-0.0441461 -0.0431736 0)
(-0.0423662 -0.0442561 0)
(-0.0534249 -0.0361173 0)
(-0.0581287 -0.024912 0)
(-0.0408552 -0.00928635 0)
(-0.0252412 0.00226619 0)
(-0.0148709 0.00805061 0)
(-0.00504809 0.0164336 0)
(0.00278357 0.0126949 0)
(0.0103263 0.00433075 0)
(0.0195498 -0.00404987 0)
(0.0130036 -0.0114185 0)
(-0.0212586 -0.0216856 0)
(-0.0575498 -0.035847 0)
(-0.0688859 -0.0441687 0)
(-0.0574943 -0.0458975 0)
(-0.0342248 -0.048567 0)
(-0.00311353 -0.0561365 0)
(0.0268222 -0.0658433 0)
(0.0512161 -0.0685239 0)
(0.0740886 -0.0671132 0)
(0.0921887 -0.0624232 0)
(0.109283 -0.0610046 0)
(0.120614 -0.0651348 0)
(0.113132 -0.0633632 0)
(0.103296 -0.0613108 0)
(0.0947035 -0.0672707 0)
(0.0720918 -0.0768966 0)
(0.0320221 -0.0966996 0)
(-0.0141344 -0.111859 0)
(-0.0502686 -0.114418 0)
(-0.0788273 -0.116405 0)
(-0.113186 -0.113118 0)
(-0.124385 -0.0928057 0)
(-0.116743 -0.0755359 0)
(-0.116541 -0.0703072 0)
(-0.110154 -0.0581775 0)
(-0.0920525 -0.0373728 0)
(-0.0611263 -0.00989538 0)
(-0.0195063 0.0229314 0)
(0.0140572 0.0456685 0)
(0.0354529 0.0577772 0)
(0.0535282 0.0647543 0)
(0.0595193 0.0749227 0)
(0.0516166 0.0810967 0)
(0.043276 0.0812779 0)
(0.0342102 0.0927217 0)
(0.0101947 0.0961564 0)
(-0.00864719 0.0917778 0)
(-0.00234802 0.0746898 0)
(0.00668767 0.0485657 0)
(0.0101637 0.0148546 0)
(0.0163009 -0.00820383 0)
(0.0256243 -0.0318374 0)
(0.0335645 -0.0480959 0)
(0.0368225 -0.0598532 0)
(0.036519 -0.0680435 0)
(0.0340422 -0.0672531 0)
(0.0443713 -0.065452 0)
(0.0661492 -0.0701274 0)
(0.0723343 -0.0727979 0)
(0.0618484 -0.0608542 0)
(0.0464313 -0.0423936 0)
(0.0177301 -0.0300327 0)
(-0.0133942 -0.0233638 0)
(-0.0319016 -0.00586824 0)
(-0.05432 -0.0015305 0)
(-0.0750819 0.00469599 0)
(-0.0885723 0.0106877 0)
(-0.0974347 0.0178486 0)
(-0.0890298 0.0200419 0)
(-0.0661509 0.0151631 0)
(-0.0293736 0.00631449 0)
(-0.00514867 0.00668963 0)
(-0.00669255 0.0180917 0)
(0.00397515 0.0268168 0)
(0.0113731 0.036715 0)
(0.0178479 0.0496683 0)
(0.028756 0.0563858 0)
(0.0339674 0.0675776 0)
(0.0391984 0.0878211 0)
(0.0466759 0.108283 0)
(0.0470493 0.111537 0)
(0.0429804 0.104398 0)
(0.0404148 0.0913795 0)
(0.0545506 0.0739645 0)
(0.0746437 0.0543014 0)
(0.0807926 0.0384701 0)
(0.0863871 0.0265325 0)
(0.105554 0.0231844 0)
(0.11853 0.0228479 0)
(0.096158 0.025614 0)
(0.054033 0.0184076 0)
(0.00860172 0.00898507 0)
(-0.0322316 -0.000818904 0)
(-0.070014 -0.0169452 0)
(-0.0902731 -0.0341812 0)
(-0.089473 -0.0404867 0)
(-0.0818328 -0.0465875 0)
(-0.0623999 -0.0546481 0)
(-0.0511468 -0.0556728 0)
(-0.0506114 -0.0530563 0)
(-0.0549064 -0.0501985 0)
(-0.0525298 -0.0312052 0)
(-0.0351445 -0.0108405 0)
(-0.0243576 0.00459417 0)
(-0.0128408 0.0148979 0)
(-0.00326876 0.0235803 0)
(-0.00146975 0.0303022 0)
(0.00305989 0.0202313 0)
(0.0103913 0.0008186 0)
(0.00450155 -0.0143333 0)
(-0.0273162 -0.0192283 0)
(-0.0644379 -0.0243893 0)
(-0.0764284 -0.0321478 0)
(-0.0642144 -0.0362301 0)
(-0.0427616 -0.0487413 0)
(-0.0116735 -0.0685756 0)
(0.0258842 -0.0862262 0)
(0.0605176 -0.0880392 0)
(0.089457 -0.0817084 0)
(0.108292 -0.072935 0)
(0.121879 -0.0720024 0)
(0.133451 -0.0781786 0)
(0.130036 -0.081711 0)
(0.117292 -0.0764586 0)
(0.100165 -0.0756998 0)
(0.068502 -0.0907095 0)
(0.0255961 -0.110546 0)
(-0.0185319 -0.121019 0)
(-0.0618029 -0.127785 0)
(-0.0934845 -0.138332 0)
(-0.116879 -0.134388 0)
(-0.126448 -0.111322 0)
(-0.128385 -0.09864 0)
(-0.125921 -0.0908679 0)
(-0.108617 -0.0650963 0)
(-0.0857751 -0.0336165 0)
(-0.051599 -0.000137841 0)
(-0.00877469 0.0352391 0)
(0.0213807 0.0552911 0)
(0.0416411 0.071448 0)
(0.061308 0.0832881 0)
(0.0671676 0.0900924 0)
(0.0586021 0.0995596 0)
(0.0522938 0.106581 0)
(0.0414751 0.111058 0)
(0.0137154 0.109351 0)
(-0.011765 0.10336 0)
(-0.0130555 0.0850614 0)
(-0.00746987 0.0554528 0)
(-0.00425058 0.0276588 0)
(0.00553563 -0.00295885 0)
(0.0193369 -0.032551 0)
(0.0302597 -0.0517182 0)
(0.0346296 -0.0719977 0)
(0.0380149 -0.0871954 0)
(0.042144 -0.0915206 0)
(0.0553886 -0.0804667 0)
(0.0730577 -0.0787394 0)
(0.0814072 -0.0801358 0)
(0.0774225 -0.0675137 0)
(0.0577816 -0.0512389 0)
(0.0235095 -0.0429078 0)
(-0.00620266 -0.0286163 0)
(-0.0296671 -0.0121996 0)
(-0.0565429 -0.00104401 0)
(-0.0799674 0.0111451 0)
(-0.0936601 0.0155397 0)
(-0.101451 0.0187392 0)
(-0.0990208 0.0205721 0)
(-0.0757483 0.0121571 0)
(-0.0327384 0.00404547 0)
(-0.00256849 0.00420213 0)
(-0.00511448 0.0186737 0)
(0.00216866 0.0286249 0)
(0.0155417 0.0383322 0)
(0.0251837 0.0547676 0)
(0.035765 0.0684522 0)
(0.0455233 0.0770166 0)
(0.0536877 0.089294 0)
(0.0569723 0.104558 0)
(0.0522297 0.110396 0)
(0.0439401 0.110872 0)
(0.0369971 0.103354 0)
(0.0503713 0.0880853 0)
(0.0726095 0.0637773 0)
(0.0834148 0.0435298 0)
(0.0948508 0.0322758 0)
(0.115358 0.0293524 0)
(0.12401 0.0250619 0)
(0.0992107 0.0185788 0)
(0.0567649 0.00988079 0)
(0.00334241 0.0019519 0)
(-0.0459122 -0.0125142 0)
(-0.0807042 -0.0312589 0)
(-0.0981544 -0.0347382 0)
(-0.0967421 -0.0380187 0)
(-0.0927026 -0.0401203 0)
(-0.0777369 -0.0541446 0)
(-0.0600455 -0.0653646 0)
(-0.0554184 -0.0679764 0)
(-0.0539828 -0.0558555 0)
(-0.044572 -0.0336192 0)
(-0.0276771 -0.015297 0)
(-0.0164698 0.00131822 0)
(-0.00787194 0.0215379 0)
(0.00221612 0.0321722 0)
(-0.00138173 0.0464996 0)
(-0.0112681 0.0415366 0)
(-0.00484845 0.0238218 0)
(-0.00113891 0.00184948 0)
(-0.0297603 -0.00822095 0)
(-0.0702691 -0.0137442 0)
(-0.0820944 -0.0251363 0)
(-0.0736771 -0.0323376 0)
(-0.0591867 -0.0498452 0)
(-0.0270993 -0.072654 0)
(0.0217557 -0.0982744 0)
(0.0693688 -0.0963816 0)
(0.104957 -0.0808327 0)
(0.123103 -0.0785073 0)
(0.13209 -0.0861703 0)
(0.141602 -0.0898673 0)
(0.142389 -0.0902919 0)
(0.13388 -0.0851739 0)
(0.106588 -0.0893717 0)
(0.0629259 -0.10989 0)
(0.0183349 -0.122888 0)
(-0.027604 -0.129329 0)
(-0.0737624 -0.141385 0)
(-0.10361 -0.146994 0)
(-0.120376 -0.143097 0)
(-0.129667 -0.132297 0)
(-0.135332 -0.121263 0)
(-0.125618 -0.098593 0)
(-0.100333 -0.068249 0)
(-0.0734732 -0.0359381 0)
(-0.0348073 0.00328658 0)
(0.00330088 0.0396157 0)
(0.0296468 0.0592302 0)
(0.0513603 0.0806665 0)
(0.0676933 0.0964096 0)
(0.0756896 0.109503 0)
(0.0702908 0.121154 0)
(0.0593235 0.127738 0)
(0.0441154 0.128405 0)
(0.0128092 0.125822 0)
(-0.0169522 0.111606 0)
(-0.0258291 0.0890424 0)
(-0.0213763 0.0560278 0)
(-0.0169161 0.0326504 0)
(-0.0115037 -0.000400919 0)
(0.00593611 -0.032071 0)
(0.0200761 -0.058423 0)
(0.0256298 -0.084446 0)
(0.0366649 -0.0980591 0)
(0.0534955 -0.103986 0)
(0.0683253 -0.0948651 0)
(0.0801176 -0.0931633 0)
(0.0918383 -0.0891447 0)
(0.0903823 -0.0758479 0)
(0.0671275 -0.0625798 0)
(0.032017 -0.0491987 0)
(0.00191924 -0.0334428 0)
(-0.0232785 -0.019061 0)
(-0.0522828 -0.000787264 0)
(-0.0803636 0.0103698 0)
(-0.101174 0.0159126 0)
(-0.110193 0.0115608 0)
(-0.105507 0.0155362 0)
(-0.0818996 0.0126807 0)
(-0.0343991 0.00306089 0)
(-0.00124279 0.004192 0)
(-0.00151838 0.0173716 0)
(0.00736041 0.0306438 0)
(0.0217592 0.0444098 0)
(0.0336764 0.0580708 0)
(0.0414391 0.0774586 0)
(0.0482988 0.0831356 0)
(0.0613299 0.0853847 0)
(0.0673691 0.0970472 0)
(0.0606191 0.104735 0)
(0.0506859 0.109391 0)
(0.0402023 0.111076 0)
(0.0448039 0.0954309 0)
(0.0629351 0.072911 0)
(0.0792783 0.0507469 0)
(0.0972065 0.0329676 0)
(0.120218 0.0235657 0)
(0.12853 0.0175446 0)
(0.100117 0.00995902 0)
(0.0533926 -0.00149353 0)
(-0.000436398 -0.0134487 0)
(-0.0537823 -0.0218746 0)
(-0.0881224 -0.0387955 0)
(-0.101321 -0.0311106 0)
(-0.103085 -0.0291406 0)
(-0.105914 -0.0376424 0)
(-0.0947213 -0.0567324 0)
(-0.0757745 -0.0730342 0)
(-0.0581762 -0.0851748 0)
(-0.0437611 -0.0654768 0)
(-0.0357365 -0.0362345 0)
(-0.0206989 -0.0117995 0)
(-0.00620958 0.00350036 0)
(0.00339434 0.0294993 0)
(0.0109595 0.0471069 0)
(0.00323685 0.0570029 0)
(-0.0143484 0.0658282 0)
(-0.0187635 0.0593727 0)
(-0.0191472 0.0256379 0)
(-0.0397281 -0.000875765 0)
(-0.078856 -0.00646833 0)
(-0.0925189 -0.0118258 0)
(-0.084009 -0.0249459 0)
(-0.0717188 -0.0439365 0)
(-0.0429674 -0.0689714 0)
(0.0170843 -0.0884321 0)
(0.0863636 -0.0965282 0)
(0.119562 -0.089451 0)
(0.124535 -0.0893063 0)
(0.135931 -0.0857133 0)
(0.153869 -0.0840804 0)
(0.156621 -0.0838908 0)
(0.139315 -0.0895448 0)
(0.0999403 -0.10562 0)
(0.0567718 -0.125321 0)
(0.0177214 -0.130628 0)
(-0.0332621 -0.137929 0)
(-0.0837974 -0.149323 0)
(-0.111017 -0.153129 0)
(-0.128172 -0.148911 0)
(-0.136424 -0.147091 0)
(-0.131653 -0.138186 0)
(-0.115324 -0.10519 0)
(-0.0897881 -0.0705175 0)
(-0.0578581 -0.032087 0)
(-0.0168107 0.0101325 0)
(0.0165658 0.0406852 0)
(0.0411716 0.0609843 0)
(0.0636993 0.0883478 0)
(0.0815599 0.111222 0)
(0.0877435 0.129729 0)
(0.0766899 0.13649 0)
(0.0636909 0.137796 0)
(0.0469719 0.137528 0)
(0.00909387 0.133162 0)
(-0.029847 0.1195 0)
(-0.0432967 0.0939757 0)
(-0.036588 0.0606909 0)
(-0.0321023 0.0296163 0)
(-0.0278203 -0.00142149 0)
(-0.00911538 -0.0303979 0)
(0.00560704 -0.0676696 0)
(0.0189029 -0.0954909 0)
(0.0366777 -0.106381 0)
(0.0572205 -0.109253 0)
(0.0756054 -0.109758 0)
(0.0883825 -0.108549 0)
(0.103054 -0.104811 0)
(0.102666 -0.0909434 0)
(0.0792801 -0.0745134 0)
(0.0427866 -0.0564623 0)
(0.00982898 -0.0376163 0)
(-0.0153259 -0.0215493 0)
(-0.0473484 -0.00761612 0)
(-0.0818534 -0.000497616 0)
(-0.107202 0.0013209 0)
(-0.114405 0.00592663 0)
(-0.106705 0.0121913 0)
(-0.0866933 0.012761 0)
(-0.0372149 0.00546103 0)
(0.000126942 0.00623924 0)
(0.000813891 0.0202794 0)
(0.00993736 0.0319846 0)
(0.0257117 0.0431067 0)
(0.0419646 0.0594664 0)
(0.0493319 0.0753193 0)
(0.0492443 0.0847655 0)
(0.0647116 0.0875974 0)
(0.0751254 0.0940276 0)
(0.0685657 0.109171 0)
(0.0592136 0.109054 0)
(0.0403815 0.106668 0)
(0.0383385 0.0928132 0)
(0.0573035 0.0773751 0)
(0.0722117 0.0576989 0)
(0.0927899 0.034605 0)
(0.12092 0.0141592 0)
(0.129178 -0.00313855 0)
(0.0979967 -0.0129769 0)
(0.0493483 -0.0149183 0)
(-0.00532059 -0.0251392 0)
(-0.0619914 -0.0327281 0)
(-0.0887361 -0.0350376 0)
(-0.0958291 -0.0272477 0)
(-0.109299 -0.0286806 0)
(-0.122977 -0.0467908 0)
(-0.115188 -0.062255 0)
(-0.0931253 -0.0768996 0)
(-0.0621874 -0.0808391 0)
(-0.0299563 -0.069884 0)
(-0.0161541 -0.0397815 0)
(-0.00808314 -0.00726435 0)
(0.00608361 0.0175203 0)
(0.0183377 0.0451264 0)
(0.0184562 0.0665665 0)
(0.0100012 0.0696274 0)
(-0.0107049 0.0764318 0)
(-0.0348887 0.0721365 0)
(-0.0458096 0.0463959 0)
(-0.0540553 0.0200589 0)
(-0.0793822 0.00393937 0)
(-0.0966806 -0.00198981 0)
(-0.0973795 -0.0146875 0)
(-0.089715 -0.0373335 0)
(-0.0551403 -0.0606569 0)
(0.00952046 -0.0697672 0)
(0.0800672 -0.086857 0)
(0.124827 -0.0920365 0)
(0.142935 -0.0874385 0)
(0.154728 -0.0715609 0)
(0.162448 -0.0711883 0)
(0.157445 -0.0812544 0)
(0.135302 -0.0987109 0)
(0.0947021 -0.111977 0)
(0.0547015 -0.122489 0)
(0.0138736 -0.13248 0)
(-0.0426373 -0.146582 0)
(-0.0925143 -0.15447 0)
(-0.116706 -0.15552 0)
(-0.134104 -0.150869 0)
(-0.143307 -0.146238 0)
(-0.127907 -0.138664 0)
(-0.0996851 -0.115467 0)
(-0.0695489 -0.0760949 0)
(-0.0350859 -0.0263861 0)
(0.000911571 0.0186964 0)
(0.0268219 0.0451838 0)
(0.0550974 0.0635841 0)
(0.0828456 0.0901059 0)
(0.0963028 0.120992 0)
(0.0953863 0.138853 0)
(0.0795273 0.144599 0)
(0.0649229 0.145095 0)
(0.0466589 0.144379 0)
(0.00652419 0.134862 0)
(-0.0376278 0.12456 0)
(-0.0595959 0.104037 0)
(-0.0579162 0.0677943 0)
(-0.0507961 0.0314633 0)
(-0.0432974 -0.0016843 0)
(-0.0303369 -0.0344317 0)
(-0.0155361 -0.0749784 0)
(0.00907995 -0.102152 0)
(0.0380614 -0.119784 0)
(0.0620553 -0.12296 0)
(0.0791704 -0.124998 0)
(0.0928442 -0.120287 0)
(0.111907 -0.115273 0)
(0.117123 -0.103622 0)
(0.0938186 -0.0905453 0)
(0.0571646 -0.0693016 0)
(0.0223641 -0.0437425 0)
(-0.0093221 -0.0257392 0)
(-0.0471365 -0.0203952 0)
(-0.0854391 -0.0174427 0)
(-0.108175 -0.0190568 0)
(-0.112408 -0.00540713 0)
(-0.107247 0.00407089 0)
(-0.0879485 0.0101077 0)
(-0.0405337 0.0069133 0)
(0.00112185 0.00548363 0)
(0.00219535 0.0202804 0)
(0.0106083 0.0368972 0)
(0.0306136 0.0463542 0)
(0.0485444 0.0617083 0)
(0.0539381 0.071527 0)
(0.0540279 0.0782862 0)
(0.0677264 0.0885742 0)
(0.085795 0.0900079 0)
(0.0772522 0.103923 0)
(0.0573532 0.108888 0)
(0.0393727 0.10236 0)
(0.0364367 0.0987593 0)
(0.0516518 0.083474 0)
(0.0629805 0.0576254 0)
(0.0802216 0.0310174 0)
(0.106686 0.000299856 0)
(0.121359 -0.026413 0)
(0.102229 -0.0401363 0)
(0.0527164 -0.0404494 0)
(-0.00815477 -0.0434865 0)
(-0.0587934 -0.0389229 0)
(-0.0849497 -0.032482 0)
(-0.100414 -0.0338658 0)
(-0.123711 -0.0369761 0)
(-0.138776 -0.0492594 0)
(-0.126334 -0.0645376 0)
(-0.0996264 -0.0742438 0)
(-0.0633962 -0.0664215 0)
(-0.0236641 -0.0680909 0)
(0.000955198 -0.0437752 0)
(0.0132277 -0.00769557 0)
(0.0255428 0.0275197 0)
(0.0342503 0.0612863 0)
(0.0252823 0.0853923 0)
(0.00811994 0.0897477 0)
(-0.0138506 0.0859495 0)
(-0.041542 0.077369 0)
(-0.0578561 0.0635681 0)
(-0.0713433 0.0387806 0)
(-0.0954458 0.0178895 0)
(-0.106252 0.00987135 0)
(-0.109108 -0.00609075 0)
(-0.103005 -0.0329025 0)
(-0.0620579 -0.0496395 0)
(0.00519016 -0.0540282 0)
(0.0800305 -0.0633329 0)
(0.131612 -0.0701212 0)
(0.154029 -0.0692468 0)
(0.163606 -0.0649945 0)
(0.162923 -0.0687393 0)
(0.152069 -0.0788391 0)
(0.130887 -0.100208 0)
(0.0940403 -0.10878 0)
(0.0497034 -0.111546 0)
(0.00360692 -0.131379 0)
(-0.0507705 -0.148682 0)
(-0.0967655 -0.152801 0)
(-0.11946 -0.147549 0)
(-0.136345 -0.143676 0)
(-0.145283 -0.138655 0)
(-0.12851 -0.125476 0)
(-0.0892789 -0.109511 0)
(-0.0436304 -0.0824595 0)
(-0.00588167 -0.0308942 0)
(0.0205708 0.0149689 0)
(0.0374356 0.040216 0)
(0.0654785 0.0661952 0)
(0.100558 0.0931991 0)
(0.115099 0.119331 0)
(0.10536 0.138004 0)
(0.0835658 0.145526 0)
(0.0673612 0.148879 0)
(0.0444974 0.149072 0)
(0.000653379 0.139552 0)
(-0.0452884 0.127474 0)
(-0.0766928 0.113027 0)
(-0.0805674 0.0748948 0)
(-0.0729953 0.0325268 0)
(-0.0655979 -0.00673955 0)
(-0.0521815 -0.0512284 0)
(-0.0334639 -0.0854528 0)
(-0.00359485 -0.110745 0)
(0.0314211 -0.123955 0)
(0.0628764 -0.128471 0)
(0.0862508 -0.131613 0)
(0.102988 -0.130111 0)
(0.121016 -0.120582 0)
(0.124315 -0.11453 0)
(0.105394 -0.111285 0)
(0.0753423 -0.0886615 0)
(0.0373381 -0.0602323 0)
(-0.00504165 -0.0401289 0)
(-0.0499623 -0.0398799 0)
(-0.0906645 -0.0377403 0)
(-0.108247 -0.0344153 0)
(-0.10618 -0.0185381 0)
(-0.101522 -0.00259172 0)
(-0.0864903 0.00297897 0)
(-0.044412 0.00125475 0)
(0.00236269 0.00548228 0)
(0.00712874 0.0212912 0)
(0.0138748 0.0422535 0)
(0.0310565 0.0533899 0)
(0.0502614 0.0606205 0)
(0.0541294 0.0616156 0)
(0.0572448 0.0711848 0)
(0.0716588 0.086757 0)
(0.0875887 0.08993 0)
(0.0864111 0.0942328 0)
(0.0646418 0.104107 0)
(0.0418042 0.0975438 0)
(0.0351423 0.0965777 0)
(0.0389864 0.077979 0)
(0.0461744 0.0530397 0)
(0.0631457 0.0250065 0)
(0.0905726 -0.011785 0)
(0.110148 -0.0451167 0)
(0.096708 -0.0625632 0)
(0.0538317 -0.0669868 0)
(0.000353437 -0.0645054 0)
(-0.0519146 -0.0497847 0)
(-0.0856047 -0.0422818 0)
(-0.102123 -0.0434299 0)
(-0.125682 -0.0421052 0)
(-0.149939 -0.0461056 0)
(-0.141395 -0.0624158 0)
(-0.102999 -0.0714998 0)
(-0.0663509 -0.0679313 0)
(-0.0217744 -0.0698059 0)
(0.0203834 -0.0472437 0)
(0.0373921 -0.00245153 0)
(0.0510119 0.0399139 0)
(0.0563577 0.0726963 0)
(0.0360869 0.0938242 0)
(0.00821462 0.106755 0)
(-0.0211202 0.102138 0)
(-0.0520383 0.093582 0)
(-0.0745057 0.0759404 0)
(-0.0877482 0.0462633 0)
(-0.100505 0.031386 0)
(-0.113704 0.0240983 0)
(-0.127339 0.0033199 0)
(-0.118882 -0.0144233 0)
(-0.0660332 -0.0299751 0)
(0.00613584 -0.0336164 0)
(0.0769972 -0.0410044 0)
(0.131133 -0.0552527 0)
(0.158863 -0.0604927 0)
(0.168211 -0.0633096 0)
(0.165642 -0.0676831 0)
(0.14716 -0.0693271 0)
(0.12478 -0.0846171 0)
(0.095654 -0.0969249 0)
(0.0443862 -0.105589 0)
(-0.0107503 -0.123883 0)
(-0.0597167 -0.136247 0)
(-0.0970903 -0.136849 0)
(-0.119205 -0.133375 0)
(-0.139972 -0.13526 0)
(-0.144704 -0.12854 0)
(-0.122691 -0.116501 0)
(-0.0847466 -0.0938254 0)
(-0.0280001 -0.0734865 0)
(0.0215572 -0.033425 0)
(0.0401638 0.00382417 0)
(0.0539235 0.032854 0)
(0.0862272 0.0638218 0)
(0.116838 0.0901785 0)
(0.126721 0.111896 0)
(0.11434 0.125793 0)
(0.0890525 0.138424 0)
(0.0705387 0.143605 0)
(0.0440245 0.141172 0)
(-0.00406608 0.138231 0)
(-0.0508353 0.133212 0)
(-0.0910014 0.117804 0)
(-0.108996 0.0801209 0)
(-0.102044 0.0337589 0)
(-0.0956876 -0.00801975 0)
(-0.0788602 -0.05774 0)
(-0.0500059 -0.0969257 0)
(-0.0101791 -0.122649 0)
(0.0336809 -0.126083 0)
(0.0645029 -0.133132 0)
(0.0852229 -0.133685 0)
(0.107059 -0.130868 0)
(0.127927 -0.12842 0)
(0.126619 -0.1301 0)
(0.113339 -0.124801 0)
(0.0929327 -0.104052 0)
(0.05407 -0.0815817 0)
(-0.000304987 -0.066007 0)
(-0.05288 -0.0602605 0)
(-0.0898938 -0.0539868 0)
(-0.102777 -0.0401498 0)
(-0.0971387 -0.0285124 0)
(-0.0980709 -0.018045 0)
(-0.0893438 -0.0106203 0)
(-0.0441601 -0.00490948 0)
(0.00282982 0.00932265 0)
(0.0100047 0.0254165 0)
(0.0168528 0.0436707 0)
(0.0294847 0.0562191 0)
(0.0429127 0.057564 0)
(0.0530052 0.0527524 0)
(0.0667421 0.0673841 0)
(0.0785875 0.0847795 0)
(0.0911191 0.0901552 0)
(0.0901098 0.0942617 0)
(0.0646081 0.0950185 0)
(0.0407222 0.0782615 0)
(0.0305767 0.0638124 0)
(0.0293019 0.0532647 0)
(0.0342891 0.0370531 0)
(0.0428658 0.0184961 0)
(0.0649632 -0.0149962 0)
(0.0929115 -0.0573252 0)
(0.0936648 -0.0841459 0)
(0.0570835 -0.0857546 0)
(0.00831349 -0.0785994 0)
(-0.0407451 -0.0640067 0)
(-0.0806847 -0.0489613 0)
(-0.102673 -0.0486836 0)
(-0.129788 -0.0498656 0)
(-0.159194 -0.059879 0)
(-0.151467 -0.0709313 0)
(-0.110716 -0.0786674 0)
(-0.0693722 -0.0761969 0)
(-0.0155048 -0.0577069 0)
(0.0439165 -0.0346891 0)
(0.0715024 0.00332015 0)
(0.0759249 0.0463843 0)
(0.0700447 0.0733565 0)
(0.0474987 0.0944259 0)
(0.01233 0.114777 0)
(-0.0246734 0.115058 0)
(-0.0613613 0.109598 0)
(-0.0927931 0.0884303 0)
(-0.10393 0.0597514 0)
(-0.111223 0.0417155 0)
(-0.125853 0.0289104 0)
(-0.135596 0.0151974 0)
(-0.12452 0.00988334 0)
(-0.0717853 0.000331564 0)
(0.00305902 -0.012664 0)
(0.0717084 -0.0239942 0)
(0.126322 -0.0399822 0)
(0.158283 -0.0516033 0)
(0.169184 -0.0567307 0)
(0.169489 -0.0634061 0)
(0.150094 -0.0641505 0)
(0.119877 -0.0661817 0)
(0.0860362 -0.0792184 0)
(0.0348193 -0.0965983 0)
(-0.0169605 -0.10742 0)
(-0.0615823 -0.112462 0)
(-0.0992282 -0.112053 0)
(-0.125942 -0.117498 0)
(-0.143053 -0.118374 0)
(-0.143723 -0.10951 0)
(-0.116445 -0.103124 0)
(-0.071564 -0.0870026 0)
(-0.0128371 -0.0652088 0)
(0.0383196 -0.0458002 0)
(0.0582051 -0.0129699 0)
(0.0724145 0.0280465 0)
(0.10069 0.0567219 0)
(0.13121 0.0768568 0)