/*--------------------------------*- C++ -*----------------------------------*\
| =========                 |                                                 |
| \\      /  F ield         | OpenFOAM: The Open Source CFD Toolbox           |
|  \\    /   O peration     | Version:  v2012                                 |
|   \\  /    A nd           | Website:  www.openfoam.com                      |
|    \\/     M anipulation  |                                                 |
\*---------------------------------------------------------------------------*/
FoamFile
{
    version     2.0;
    format      ascii;
    class       volVectorField;
    location    "70";
    object      Usup;
}
// * * * * * * * * * * * * * * * * * * * * * * * * * * * * * * * * * * * * * //

dimensions      [0 1 -1 0 0 0 0];


internalField   nonuniform List<vector> 
4000
(
(-0.00368808 0.000267852 0)
(-0.0136016 0.0151409 0)
(-0.00861372 0.0175329 0)
(0.00326395 0.0125284 0)
(0.00787025 0.0208985 0)
(0.00445196 0.0139641 0)
(-0.0218443 0.00218839 0)
(-0.0389296 0.00163177 0)
(-0.0100655 0.0176682 0)
(0.00699185 0.0322308 0)
(0.00672926 0.0434568 0)
(0.0227733 0.0253888 0)
(0.0275928 0.013319 0)
(0.040961 0.0303487 0)
(0.0622408 0.0331846 0)
(0.0519045 -0.00896264 0)
(-0.00382959 -0.0321222 0)
(-0.0396891 -0.00403041 0)
(-0.0493101 0.000409952 0)
(-0.0453006 0.00123891 0)
(-0.0270801 -0.0081392 0)
(-0.0199209 -0.00362685 0)
(-7.00883e-05 0.0111939 0)
(0.0052602 0.00171503 0)
(0.00644465 0.0121039 0)
(0.0242414 0.0234601 0)
(0.0286332 0.0250825 0)
(0.00988493 0.028292 0)
(-0.0155997 0.0284165 0)
(-0.0291373 0.0324874 0)
(-0.0374533 0.0347984 0)
(-0.038155 0.0433824 0)
(-0.0150531 0.0407345 0)
(0.0193842 0.0230522 0)
(0.0269108 0.00299939 0)
(0.0271505 -0.00382066 0)
(0.0405152 -0.00809518 0)
(0.046372 -0.00258943 0)
(0.0491616 -0.00627635 0)
(0.0383954 -0.0126753 0)
(0.0184999 -0.023532 0)
(-0.00720791 -0.034252 0)
(-0.0433529 -0.04034 0)
(-0.0705646 -0.0179867 0)
(-0.0566736 0.018778 0)
(-0.00879112 0.0324361 0)
(0.00840837 0.0150101 0)
(-0.00152629 0.000983696 0)
(0.00359316 0.00273585 0)
(0.00371287 0.00228226 0)
(-0.011141 0.000698519 0)
(-0.00914286 0.00693321 0)
(0.00782243 0.000502419 0)
(0.0186869 -0.00794382 0)
(0.0239327 -0.0113396 0)
(0.0271505 0.00218909 0)
(0.022305 0.00682959 0)
(0.00261529 0.000863234 0)
(-0.0196469 0.00210326 0)
(-0.0309973 0.0019465 0)
(-0.0259889 0.00807511 0)
(-0.0155064 -0.00200259 0)
(-0.00120838 -0.000565348 0)
(0.0135241 -0.00429594 0)
(0.00892279 -0.00914155 0)
(-0.0112848 -0.0115277 0)
(-0.0252277 -0.00917343 0)
(-0.00352037 0.00612796 0)
(0.0220584 0.00298155 0)
(0.024467 -0.00276541 0)
(0.0375381 0.00146337 0)
(0.0564709 -0.00639733 0)
(0.0374321 -0.015031 0)
(-0.00172579 -0.0121533 0)
(-0.0258828 -0.00126948 0)
(-0.033462 -0.00140294 0)
(-0.0304822 -0.00841439 0)
(-0.0156476 -0.0162389 0)
(-0.00818593 -0.0219837 0)
(-0.0274326 -0.0294736 0)
(-0.0511474 -0.027806 0)
(-0.0283517 0.00150744 0)
(0.0182527 0.00693194 0)
(0.0320722 -0.00425232 0)
(0.0122416 -0.0141479 0)
(-0.0101776 -0.00643967 0)
(0.0137896 0.00267804 0)
(0.041886 -0.0122624 0)
(0.0328478 -0.030843 0)
(0.0223124 -0.0323551 0)
(0.0244684 -0.0298135 0)
(0.0149601 -0.0257976 0)
(-0.00644864 -0.0173853 0)
(-0.0196858 -0.00848717 0)
(-0.0239153 -0.0023289 0)
(-0.027936 -0.00428567 0)
(-0.0140117 0.0030287 0)
(-0.00722813 -0.00700378 0)
(-0.0152219 0.00251445 0)
(-0.00895664 0.00326697 0)
(-0.000637471 0.00880436 0)
(-0.0203391 0.0291712 0)
(-0.0250746 0.0474046 0)
(0.0027802 0.0423177 0)
(0.0107125 0.0555343 0)
(-0.0143233 0.0528904 0)
(-0.0595946 0.0310271 0)
(-0.0682902 0.0224181 0)
(-0.00379678 0.0481248 0)
(0.0317441 0.0813115 0)
(0.0182298 0.108033 0)
(0.0359751 0.0770495 0)
(0.0794397 0.0559298 0)
(0.120363 0.0728039 0)
(0.112578 0.0702577 0)
(0.0636373 -0.00367181 0)
(0.000723483 -0.0594522 0)
(-0.0616854 -0.0344298 0)
(-0.110594 -0.0141072 0)
(-0.114874 0.00236355 0)
(-0.0761491 -0.00899701 0)
(-0.0357236 -0.0154511 0)
(-0.00380274 0.0153873 0)
(0.0104991 0.0246967 0)
(0.0352683 0.0498527 0)
(0.0624723 0.0589412 0)
(0.0626335 0.056427 0)
(0.0217423 0.0737209 0)
(-0.0324849 0.093679 0)
(-0.0643626 0.108821 0)
(-0.0792872 0.121237 0)
(-0.0792181 0.129452 0)
(-0.0471099 0.108528 0)
(0.0126393 0.0721983 0)
(0.0465549 0.011089 0)
(0.0677867 -0.0159028 0)
(0.105019 -0.0224573 0)
(0.119061 -0.0154279 0)
(0.112453 -0.0372253 0)
(0.0798275 -0.0667543 0)
(0.0269381 -0.0762204 0)
(-0.0339966 -0.0867558 0)
(-0.0902175 -0.0830145 0)
(-0.114285 -0.031158 0)
(-0.0928309 0.0516369 0)
(-0.0397951 0.0741642 0)
(-0.0185987 0.0404009 0)
(-0.0140521 0.0103027 0)
(0.00550824 0.00907036 0)
(0.00250659 0.00746622 0)
(-0.0172155 -0.00227845 0)
(-0.0149244 0.0105863 0)
(0.00872814 0.0125429 0)
(0.0363727 -0.00821292 0)
(0.0657676 -0.0266042 0)
(0.0767062 -0.00905277 0)
(0.048026 0.00625236 0)
(0.0018111 0.00463797 0)
(-0.0426999 0.0139098 0)
(-0.0650615 0.0107247 0)
(-0.0642792 0.014525 0)
(-0.0444545 -0.0109958 0)
(-0.00805243 -0.00236601 0)
(0.0166296 -0.00853522 0)
(0.00931066 -0.01717 0)
(-0.0230351 -0.0258299 0)
(-0.0327945 -0.013697 0)
(0.00626638 0.0141618 0)
(0.0444158 0.00841001 0)
(0.0652875 -0.00227037 0)
(0.0927953 -0.00243021 0)
(0.114359 -0.0211044 0)
(0.0805763 -0.0449373 0)
(0.012102 -0.0349248 0)
(-0.0475131 -0.0172917 0)
(-0.0829605 -0.00821722 0)
(-0.0851447 -0.0349385 0)
(-0.0578263 -0.0543371 0)
(-0.045867 -0.0749036 0)
(-0.0760275 -0.0783993 0)
(-0.0874006 -0.0615544 0)
(-0.0365495 -0.00145469 0)
(0.0264371 0.0115182 0)
(0.048415 -0.00216031 0)
(0.0303716 -0.0151043 0)
(0.00832668 -0.00742872 0)
(0.036768 -0.00915836 0)
(0.0699295 -0.0487205 0)
(0.0677768 -0.0909579 0)
(0.0627247 -0.0907418 0)
(0.063713 -0.0836956 0)
(0.0431134 -0.0744361 0)
(6.48969e-05 -0.0518593 0)
(-0.0338529 -0.0243105 0)
(-0.0551844 -0.00717835 0)
(-0.0613152 -0.00961864 0)
(-0.0420117 -0.00705019 0)
(-0.0260251 -0.019508 0)
(-0.0273073 0.00301291 0)
(-0.0218229 0.00860341 0)
(-0.00706343 0.0172798 0)
(-0.0249883 0.031386 0)
(-0.0289562 0.0736215 0)
(-0.00246523 0.0873727 0)
(0.0115077 0.0937469 0)
(-0.0284098 0.0868879 0)
(-0.0928827 0.06882 0)
(-0.0905001 0.0653009 0)
(0.0060248 0.0974762 0)
(0.0605271 0.124267 0)
(0.0353583 0.134885 0)
(0.0482413 0.110458 0)
(0.111854 0.100854 0)
(0.165122 0.109235 0)
(0.137604 0.0820785 0)
(0.053246 0.0237328 0)
(-0.0224849 -0.0469004 0)
(-0.079642 -0.0656968 0)
(-0.130525 -0.0357365 0)
(-0.149412 0.00542265 0)
(-0.121235 0.00632712 0)
(-0.055925 -0.019551 0)
(0.0120857 -0.00655148 0)
(0.0359366 0.0437864 0)
(0.0531378 0.0818619 0)
(0.074277 0.102436 0)
(0.0859053 0.104019 0)
(0.0502318 0.120607 0)
(-0.0235967 0.156616 0)
(-0.0757692 0.189992 0)
(-0.104666 0.21483 0)
(-0.120395 0.198145 0)
(-0.0836604 0.161209 0)
(-0.0173687 0.119791 0)
(0.031394 0.0345343 0)
(0.0916397 -0.00995507 0)
(0.154443 -0.0331633 0)
(0.161366 -0.0596597 0)
(0.133843 -0.0998713 0)
(0.102446 -0.126304 0)
(0.0445261 -0.119268 0)
(-0.0380141 -0.114231 0)
(-0.100904 -0.0853797 0)
(-0.114877 -0.0304302 0)
(-0.102364 0.042784 0)
(-0.0730066 0.076106 0)
(-0.0540426 0.0620488 0)
(-0.0342174 0.0351038 0)
(-2.29384e-05 0.0291779 0)
(-0.00625097 0.0228995 0)
(-0.0224219 0.00296384 0)
(-0.0042357 0.00947817 0)
(0.0154767 0.0127961 0)
(0.0352551 0.00374152 0)
(0.0819455 -0.0163365 0)
(0.111714 -0.0216631 0)
(0.0757041 -0.0155267 0)
(0.0123795 0.00386553 0)
(-0.0538662 0.0202997 0)
(-0.0934702 0.0184625 0)
(-0.101397 0.00977622 0)
(-0.0672079 -0.00831002 0)
(-0.0109034 -0.00164543 0)
(0.0137074 -0.0129877 0)
(0.00289925 -0.0234216 0)
(-0.0259957 -0.0287187 0)
(-0.0233507 0.000785303 0)
(0.0187296 0.0286714 0)
(0.0606641 0.0132947 0)
(0.0917784 -0.00178112 0)
(0.124507 -0.0167232 0)
(0.141098 -0.0373926 0)
(0.105905 -0.061986 0)
(0.0275453 -0.0538725 0)
(-0.0531051 -0.0516286 0)
(-0.120467 -0.0461059 0)
(-0.140671 -0.0752631 0)
(-0.106396 -0.0958199 0)
(-0.0822104 -0.117181 0)
(-0.0965834 -0.110861 0)
(-0.0910103 -0.0705308 0)
(-0.0304224 -0.00473217 0)
(0.0329408 0.0236767 0)
(0.0609244 0.0239235 0)
(0.0439101 0.0111745 0)
(0.0141656 -0.00533988 0)
(0.0352997 -0.0373215 0)
(0.0714046 -0.0941491 0)
(0.0891774 -0.139299 0)
(0.0993883 -0.140157 0)
(0.0962893 -0.129825 0)
(0.0708013 -0.113695 0)
(0.0213038 -0.0839274 0)
(-0.028531 -0.0430993 0)
(-0.0716903 -0.0123443 0)
(-0.0916471 -0.0176072 0)
(-0.0692472 -0.0200518 0)
(-0.0358724 -0.0257215 0)
(-0.0296417 -0.0160632 0)
(-0.0333853 -0.00139517 0)
(-0.0129688 0.0267833 0)
(-0.021671 0.0488187 0)
(-0.0167769 0.093089 0)
(-0.00360299 0.119108 0)
(-0.0055634 0.115323 0)
(-0.0537399 0.115753 0)
(-0.110244 0.111351 0)
(-0.0852533 0.123488 0)
(0.0216198 0.14595 0)
(0.0662442 0.150057 0)
(0.0363477 0.158642 0)
(0.0621518 0.146445 0)
(0.148496 0.118569 0)
(0.191568 0.116176 0)
(0.137751 0.0891283 0)
(0.0299647 0.0441958 0)
(-0.0587564 -0.019431 0)
(-0.0976274 -0.073232 0)
(-0.130182 -0.0577235 0)
(-0.16007 -0.000454926 0)
(-0.157136 0.0297719 0)
(-0.0883036 0.0151267 0)
(0.0233447 -0.0075454 0)
(0.0746176 0.0242547 0)
(0.0916416 0.0743853 0)
(0.10416 0.14187 0)
(0.0998322 0.164735 0)
(0.0643576 0.167832 0)
(-0.00529327 0.197734 0)
(-0.0666636 0.248098 0)
(-0.126797 0.282312 0)
(-0.162639 0.257932 0)
(-0.118635 0.20994 0)
(-0.0558606 0.151104 0)
(0.00429408 0.0620258 0)
(0.090788 -0.000497422 0)
(0.15758 -0.0684782 0)
(0.166125 -0.128046 0)
(0.153477 -0.15047 0)
(0.132168 -0.152861 0)
(0.0638617 -0.143961 0)
(-0.0285533 -0.117921 0)
(-0.0949108 -0.0686088 0)
(-0.113538 -0.0220137 0)
(-0.0995705 0.024228 0)
(-0.0772582 0.0659176 0)
(-0.0739367 0.0598056 0)
(-0.052193 0.0475948 0)
(-0.0102142 0.0409949 0)
(-0.021289 0.027657 0)
(-0.0330027 0.0052032 0)
(-0.00648386 0.00906553 0)
(0.0219375 0.00603593 0)
(0.0476412 0.0200031 0)
(0.0883396 0.0235207 0)
(0.117825 -0.00904717 0)
(0.0941409 -0.0335602 0)
(0.030505 -0.0133984 0)
(-0.0562456 0.0250243 0)
(-0.113163 0.019624 0)
(-0.124462 -0.00308781 0)
(-0.081906 0.000776762 0)
(-0.0240881 0.00366067 0)
(0.000888356 -0.0124931 0)
(-0.00180974 -0.0338777 0)
(-0.0128485 -0.0101077 0)
(0.00170088 0.0275988 0)
(0.02763 0.0401408 0)
(0.0612771 0.0169333 0)
(0.102423 0.000334306 0)
(0.140925 -0.0195944 0)
(0.158189 -0.0470955 0)
(0.121051 -0.0728688 0)
(0.0298592 -0.0844806 0)
(-0.0696833 -0.0870567 0)
(-0.150684 -0.0920963 0)
(-0.178797 -0.112259 0)
(-0.142515 -0.123382 0)
(-0.110294 -0.133225 0)
(-0.103254 -0.115566 0)
(-0.0723199 -0.0557708 0)
(-0.00484126 0.00639337 0)
(0.0494396 0.0433733 0)
(0.0650301 0.0450042 0)
(0.0371815 0.023967 0)
(0.00117784 -0.0126421 0)
(0.017195 -0.0498001 0)
(0.0595736 -0.108367 0)
(0.10007 -0.154732 0)
(0.12695 -0.17156 0)
(0.127857 -0.162887 0)
(0.100439 -0.146309 0)
(0.0480455 -0.109019 0)
(-0.00849931 -0.0630774 0)
(-0.0777036 -0.0270484 0)
(-0.112791 -0.0192709 0)
(-0.0877597 -0.0221898 0)
(-0.056375 -0.0363894 0)
(-0.0393855 -0.0424585 0)
(-0.0302644 -0.0169478 0)
(-0.0178846 0.0257994 0)
(-0.0244366 0.0657458 0)
(-0.0139737 0.110216 0)
(-0.0132984 0.145849 0)
(-0.0130233 0.146331 0)
(-0.0540589 0.144359 0)
(-0.113757 0.136305 0)
(-0.0896087 0.157603 0)
(0.0142748 0.171562 0)
(0.0763391 0.155897 0)
(0.0565908 0.161206 0)
(0.0596516 0.175983 0)
(0.14413 0.153205 0)
(0.206368 0.124436 0)
(0.145339 0.0880014 0)
(0.0141817 0.0439573 0)
(-0.102645 -0.00349323 0)
(-0.135074 -0.040445 0)
(-0.125204 -0.046212 0)
(-0.13905 -0.00816943 0)
(-0.157218 0.0253683 0)
(-0.117904 0.0429268 0)
(0.000103581 0.0240776 0)
(0.0914417 0.0176714 0)
(0.145686 0.077074 0)
(0.153716 0.145069 0)
(0.116185 0.179114 0)
(0.0736829 0.184669 0)
(0.0180712 0.217845 0)
(-0.043854 0.276232 0)
(-0.131739 0.322618 0)
(-0.199816 0.322079 0)
(-0.168101 0.261366 0)
(-0.10629 0.164628 0)
(-0.0382624 0.0794286 0)
(0.0538797 -0.000752797 0)
(0.130347 -0.0904915 0)
(0.174539 -0.166378 0)
(0.182613 -0.188523 0)
(0.155905 -0.183154 0)
(0.0904319 -0.151978 0)
(0.00389369 -0.108062 0)
(-0.0751924 -0.0487845 0)
(-0.109508 -0.00132058 0)
(-0.0982478 0.0330399 0)
(-0.0903499 0.0477636 0)
(-0.0941592 0.0364156 0)
(-0.0641649 0.0459529 0)
(-0.0239381 0.0433424 0)
(-0.0380176 0.0155636 0)
(-0.0389522 0.00903299 0)
(-0.000110945 0.0136201 0)
(0.037426 0.0286225 0)
(0.0717733 0.040442 0)
(0.0894952 0.0488958 0)
(0.097131 0.0118547 0)
(0.0902612 -0.0168048 0)
(0.0569238 -0.0175038 0)
(-0.0451338 0.00884248 0)
(-0.140554 0.00392281 0)
(-0.143056 -0.00525003 0)
(-0.0837659 0.011993 0)
(-0.0323922 0.00502096 0)
(-0.0175446 -0.0150143 0)
(0.00332107 -0.00858213 0)
(0.0169542 0.0242371 0)
(0.0149429 0.0467836 0)
(0.0253362 0.0388755 0)
(0.0630838 0.0185348 0)
(0.110688 0.0103305 0)
(0.144114 -0.0182026 0)
(0.155051 -0.0563903 0)
(0.114673 -0.0961542 0)
(0.0260721 -0.128281 0)
(-0.0760047 -0.12095 0)
(-0.17414 -0.109908 0)
(-0.206981 -0.12169 0)
(-0.166692 -0.132145 0)
(-0.122173 -0.136856 0)
(-0.087352 -0.0949826 0)
(-0.0452955 -0.031731 0)
(0.0155399 0.0298724 0)
(0.0584416 0.0609737 0)
(0.0613982 0.055482 0)
(0.0239054 0.0261778 0)
(-0.0122293 -0.0138493 0)
(0.00359427 -0.043592 0)
(0.0432543 -0.0925641 0)
(0.0933338 -0.138397 0)
(0.138184 -0.177359 0)
(0.149017 -0.188092 0)
(0.128595 -0.170582 0)
(0.0815102 -0.1314 0)
(0.0138143 -0.0873895 0)
(-0.068529 -0.0581855 0)
(-0.121602 -0.0225036 0)
(-0.113688 -0.0197686 0)
(-0.0795776 -0.0345137 0)
(-0.0430904 -0.0437589 0)
(-0.0208065 -0.0147435 0)
(-0.0114163 0.0152473 0)
(-0.00961991 0.0756074 0)
(0.0026603 0.127341 0)
(-0.00785131 0.163815 0)
(-0.0317397 0.172638 0)
(-0.0837666 0.135996 0)
(-0.122015 0.141366 0)
(-0.0764777 0.171217 0)
(0.0133002 0.197961 0)
(0.0647899 0.176137 0)
(0.0708509 0.15345 0)
(0.0886214 0.171055 0)
(0.152563 0.174663 0)
(0.19013 0.128139 0)
(0.12141 0.0721924 0)
(-0.00902449 0.0362068 0)
(-0.115327 0.00458547 0)
(-0.14622 0.0111462 0)
(-0.139132 0.000749621 0)
(-0.145913 0.00465637 0)
(-0.155262 0.00327832 0)
(-0.116811 0.023539 0)
(-0.0121648 0.0399867 0)
(0.106707 0.0397937 0)
(0.186293 0.0833193 0)
(0.18454 0.137885 0)
(0.133004 0.174175 0)
(0.0897253 0.19633 0)
(0.0492069 0.237858 0)
(-0.00987161 0.291372 0)
(-0.114741 0.331622 0)
(-0.222695 0.33402 0)
(-0.235203 0.27733 0)
(-0.172568 0.16893 0)
(-0.0837898 0.0724549 0)
(0.0121158 0.000446318 0)
(0.0902476 -0.0714581 0)
(0.150382 -0.166556 0)
(0.191584 -0.207579 0)
(0.195257 -0.197571 0)
(0.134308 -0.159619 0)
(0.0385103 -0.104446 0)
(-0.0468745 -0.038265 0)
(-0.0967115 0.000505147 0)
(-0.107415 0.0297927 0)
(-0.110051 0.0189428 0)
(-0.0999359 0.0263778 0)
(-0.0633709 0.0389619 0)
(-0.0426605 0.0451706 0)
(-0.0522282 0.0113268 0)
(-0.0362705 0.0141491 0)
(0.0115683 0.0142476 0)
(0.0524006 0.0475497 0)
(0.0796272 0.0646452 0)
(0.0875578 0.0686912 0)
(0.0881615 0.043066 0)
(0.0843318 0.0214922 0)
(0.0503501 -0.00335032 0)
(-0.0506262 -0.0239132 0)
(-0.1411 -0.0186261 0)
(-0.137769 -0.00166251 0)
(-0.0902273 0.0059292 0)
(-0.0538803 0.00333189 0)
(-0.0135591 0.00751801 0)
(0.0257021 0.0322796 0)
(0.0285334 0.0448697 0)
(0.0177322 0.050223 0)
(0.0213638 0.0246543 0)
(0.0661324 0.00893503 0)
(0.11065 -0.00386911 0)
(0.131968 -0.0173707 0)
(0.138406 -0.0536826 0)
(0.0937607 -0.118227 0)
(0.0188505 -0.159788 0)
(-0.0674354 -0.149798 0)
(-0.176391 -0.126443 0)
(-0.228213 -0.120179 0)
(-0.189957 -0.120155 0)
(-0.120377 -0.103101 0)
(-0.0629797 -0.0610357 0)
(-0.0126471 -0.0161659 0)
(0.0432186 0.0457224 0)
(0.064033 0.0778282 0)
(0.0485317 0.0710234 0)
(0.00382122 0.0318019 0)
(-0.0258419 0.00101072 0)
(-0.00876947 -0.021379 0)
(0.0279589 -0.0729205 0)
(0.0768698 -0.124846 0)
(0.125335 -0.172423 0)
(0.159367 -0.196199 0)
(0.156651 -0.180714 0)
(0.109946 -0.158754 0)
(0.0336194 -0.119291 0)
(-0.0504198 -0.078494 0)
(-0.109115 -0.0422442 0)
(-0.121262 -0.0187383 0)
(-0.0972581 -0.0160662 0)
(-0.0479842 -0.0196356 0)
(-0.0163878 -0.00667555 0)
(0.000314595 0.0167381 0)
(0.00894927 0.0840446 0)
(0.00968816 0.13114 0)
(-0.0128304 0.148815 0)
(-0.0597955 0.15867 0)
(-0.0989438 0.138522 0)
(-0.106051 0.149666 0)
(-0.0608349 0.178274 0)
(0.013348 0.201209 0)
(0.0492617 0.194639 0)
(0.0689501 0.164831 0)
(0.100703 0.15312 0)
(0.144728 0.137922 0)
(0.165581 0.0930586 0)
(0.108632 0.0514323 0)
(-0.0152551 0.0281361 0)
(-0.116342 0.017457 0)
(-0.148857 0.0258239 0)
(-0.152394 0.0242043 0)
(-0.1648 0.00780765 0)
(-0.170183 -0.00722347 0)
(-0.112829 0.0190225 0)
(-0.00282447 0.0522971 0)
(0.115482 0.0624562 0)
(0.215586 0.0814542 0)
(0.221286 0.114401 0)
(0.159255 0.152706 0)
(0.116483 0.199908 0)
(0.0784193 0.240823 0)
(0.0116239 0.294597 0)
(-0.11373 0.31326 0)
(-0.247664 0.291636 0)
(-0.287151 0.236321 0)
(-0.24186 0.143246 0)
(-0.134917 0.0614017 0)
(-0.0151237 -0.00320555 0)
(0.0501717 -0.0530855 0)
(0.117881 -0.134963 0)
(0.198187 -0.184754 0)
(0.218595 -0.194698 0)
(0.170814 -0.171445 0)
(0.0876995 -0.114666 0)
(-0.0188362 -0.0443216 0)
(-0.0898884 -0.00716605 0)
(-0.117019 0.00955947 0)
(-0.120952 -0.00875079 0)
(-0.100928 0.0108899 0)
(-0.0655601 0.0282214 0)
(-0.0542345 0.0330112 0)
(-0.0665137 0.0202349 0)
(-0.0384852 0.0308128 0)
(0.0273728 0.0451327 0)
(0.0824757 0.0663009 0)
(0.0995437 0.0696834 0)
(0.087773 0.0701581 0)
(0.0751915 0.0700854 0)
(0.0640624 0.0414542 0)
(0.0242328 0.00926001 0)
(-0.0630692 -0.0321571 0)
(-0.13604 -0.0314698 0)
(-0.138393 -0.0213131 0)
(-0.0917002 -0.00787634 0)
(-0.039106 0.0174123 0)
(-0.000195092 0.0439553 0)
(0.0300103 0.0441206 0)
(0.0323635 0.0603284 0)
(0.00676921 0.0609118 0)
(0.00841234 0.0233157 0)
(0.0631713 0.0103505 0)
(0.11852 -0.0103578 0)
(0.137236 -0.0242025 0)
(0.107925 -0.0665988 0)
(0.0549997 -0.130091 0)
(0.00843041 -0.162658 0)
(-0.0591778 -0.157991 0)
(-0.170782 -0.140518 0)
(-0.227704 -0.110046 0)
(-0.182966 -0.0933522 0)
(-0.108612 -0.0669041 0)
(-0.0521859 -0.0346114 0)
(0.00904856 0.0105294 0)
(0.06931 0.0583669 0)
(0.0728422 0.0779441 0)
(0.0335825 0.0816808 0)
(-0.0137039 0.0431644 0)
(-0.031135 0.0283844 0)
(-0.0248302 0.000371025 0)
(-0.00286516 -0.0526415 0)
(0.050705 -0.113802 0)
(0.113038 -0.157424 0)
(0.163762 -0.175763 0)
(0.167968 -0.177565 0)
(0.128398 -0.177797 0)
(0.065308 -0.146573 0)
(-0.0261483 -0.098775 0)
(-0.0954653 -0.0628351 0)
(-0.112755 -0.026393 0)
(-0.0972086 -0.000694662 0)
(-0.0514093 0.0135892 0)
(-0.0168796 0.000207869 0)
(0.00969322 0.0319862 0)
(0.0219745 0.0936657 0)
(0.00707342 0.129595 0)
(-0.0214902 0.134334 0)
(-0.0657293 0.119132 0)
(-0.111119 0.134902 0)
(-0.108554 0.139712 0)
(-0.0487034 0.172083 0)
(0.0222817 0.179206 0)
(0.043049 0.176319 0)
(0.0533692 0.152047 0)
(0.0888272 0.114878 0)
(0.133064 0.088706 0)
(0.152429 0.0606927 0)
(0.0963763 0.0300523 0)
(-0.0190785 0.00670213 0)
(-0.112976 0.0185714 0)
(-0.14829 0.0343407 0)
(-0.167918 0.0309563 0)
(-0.188983 0.00817319 0)
(-0.16727 -0.0157255 0)
(-0.0904559 0.0110356 0)
(0.00694174 0.0374826 0)
(0.120173 0.0588542 0)
(0.220471 0.0817075 0)
(0.23509 0.0838321 0)
(0.193884 0.106778 0)
(0.150331 0.163328 0)
(0.111736 0.210326 0)
(0.0345231 0.264783 0)
(-0.124831 0.279831 0)
(-0.282721 0.248092 0)
(-0.340166 0.170144 0)
(-0.287794 0.0891676 0)
(-0.16914 0.0453422 0)
(-0.0426566 -0.00400511 0)
(0.0268617 -0.0487007 0)
(0.0872641 -0.0902313 0)
(0.177175 -0.143247 0)
(0.22615 -0.167772 0)
(0.202727 -0.135407 0)
(0.1289 -0.111623 0)
(0.0178725 -0.0937195 0)
(-0.0787599 -0.053576 0)
(-0.132616 -0.0434206 0)
(-0.131254 -0.0353401 0)
(-0.0908763 -0.0205438 0)
(-0.0606936 -0.00617326 0)
(-0.0578664 0.0101356 0)
(-0.0593449 0.0452843 0)
(-0.0198037 0.0762733 0)
(0.0396199 0.0904696 0)
(0.0761556 0.0897694 0)
(0.091092 0.0684835 0)
(0.0976957 0.0685785 0)
(0.0758167 0.086744 0)
(0.0449963 0.0598944 0)
(-0.00327669 0.0154452 0)
(-0.0850574 -0.0266365 0)
(-0.141183 -0.0349388 0)
(-0.12976 -0.0383848 0)
(-0.070133 -0.010552 0)
(-0.0217112 0.0199206 0)
(0.00308615 0.0422 0)
(0.0376392 0.0555661 0)
(0.0438443 0.0677917 0)
(-0.00258896 0.0728422 0)
(-0.00391782 0.0505789 0)
(0.0584742 0.029601 0)
(0.10627 0.000237286 0)
(0.112881 -0.0509845 0)
(0.0803137 -0.106458 0)
(0.0364631 -0.136896 0)
(0.00252846 -0.147322 0)
(-0.0566411 -0.142809 0)
(-0.154862 -0.130401 0)
(-0.213016 -0.0910488 0)
(-0.180902 -0.0658019 0)
(-0.100796 -0.0336791 0)
(-0.0283937 -0.000148602 0)
(0.0372717 0.0456114 0)
(0.0809527 0.0683254 0)
(0.0775028 0.0778184 0)
(0.0272198 0.0844094 0)
(-0.0244214 0.0677343 0)
(-0.0408722 0.0626827 0)
(-0.0474573 0.0257883 0)
(-0.0323012 -0.0304649 0)
(0.0237961 -0.0989617 0)
(0.101254 -0.141194 0)
(0.161081 -0.157444 0)
(0.164913 -0.165348 0)
(0.13498 -0.169918 0)
(0.0870498 -0.160536 0)
(0.00129461 -0.124965 0)
(-0.0685551 -0.0727335 0)
(-0.0885333 -0.0271299 0)
(-0.0787782 0.0165359 0)
(-0.0535829 0.0361103 0)
(-0.0240915 0.0143648 0)
(0.0107624 0.0480731 0)
(0.0199262 0.0937841 0)
(-0.00564812 0.107472 0)
(-0.0544367 0.108178 0)
(-0.084946 0.0918297 0)
(-0.102994 0.106139 0)
(-0.0924252 0.126109 0)
(-0.0399795 0.139 0)
(0.014372 0.140195 0)
(0.0336681 0.144368 0)
(0.0343619 0.126225 0)
(0.0698886 0.079608 0)
(0.123919 0.0489514 0)
(0.142073 0.0291156 0)
(0.0859284 0.00567849 0)
(-0.0124376 -0.00580871 0)
(-0.0925346 0.00716283 0)
(-0.144243 0.0154219 0)
(-0.182502 0.00327122 0)
(-0.213671 0.000994965 0)
(-0.183431 -0.0113494 0)
(-0.0875436 -0.0189413 0)
(0.0214094 0.0136338 0)
(0.140365 0.0516457 0)
(0.229112 0.069637 0)
(0.236534 0.046891 0)
(0.214734 0.062908 0)
(0.188667 0.111948 0)
(0.147752 0.155324 0)
(0.0569905 0.179087 0)
(-0.130369 0.19717 0)
(-0.328986 0.186325 0)
(-0.398938 0.136019 0)
(-0.32175 0.0715734 0)
(-0.184971 0.0259969 0)
(-0.0606474 -0.00223635 0)
(0.0132435 -0.0464807 0)
(0.0747036 -0.0616995 0)
(0.164108 -0.0978832 0)
(0.240843 -0.123942 0)
(0.21995 -0.116069 0)
(0.116839 -0.114565 0)
(0.0139931 -0.121822 0)
(-0.0685113 -0.101153 0)
(-0.121631 -0.0829416 0)
(-0.121584 -0.0513602 0)
(-0.0944985 -0.0528381 0)
(-0.0548048 -0.0425456 0)
(-0.0248527 0.00504034 0)
(-0.0230961 0.0642491 0)
(-0.0073275 0.0943345 0)
(0.0383227 0.0990826 0)
(0.0701744 0.098375 0)
(0.0899278 0.0951679 0)
(0.107989 0.0900585 0)
(0.0748092 0.0766238 0)
(0.0153135 0.057193 0)
(-0.0390311 0.00858936 0)
(-0.103131 -0.0150924 0)
(-0.150174 -0.0123446 0)
(-0.126949 -0.0213278 0)
(-0.0547735 0.00180043 0)
(-0.00458816 0.00556716 0)
(0.0240041 0.0317368 0)
(0.0493133 0.0676887 0)
(0.0483221 0.0686673 0)
(0.000639143 0.0643673 0)
(-0.0131276 0.0641962 0)
(0.0399997 0.039279 0)
(0.0756054 -0.0103683 0)
(0.0755968 -0.063776 0)
(0.0593909 -0.121715 0)
(0.0347489 -0.137247 0)
(0.00719276 -0.142454 0)
(-0.0507854 -0.117597 0)
(-0.143086 -0.104494 0)
(-0.195211 -0.072713 0)
(-0.15849 -0.0341062 0)
(-0.078836 0.0205885 0)
(-0.0112503 0.0487131 0)
(0.0451974 0.0754463 0)
(0.0838305 0.0818394 0)
(0.0816547 0.0880906 0)
(0.0293442 0.0898485 0)
(-0.0210078 0.0831662 0)
(-0.048741 0.0848865 0)
(-0.0765801 0.0530163 0)
(-0.0758057 0.00727294 0)
(-0.0118 -0.0534674 0)
(0.087007 -0.108796 0)
(0.159187 -0.148276 0)
(0.166877 -0.157197 0)
(0.134387 -0.152713 0)
(0.0955969 -0.148156 0)
(0.0316842 -0.116584 0)
(-0.0324049 -0.07028 0)
(-0.0559942 -0.0207819 0)
(-0.0569877 0.0192905 0)
(-0.0524958 0.0364843 0)
(-0.0373169 0.0176474 0)
(0.00356094 0.0397269 0)
(-0.000389536 0.0730604 0)
(-0.027324 0.0825735 0)
(-0.0653255 0.0800517 0)
(-0.0908847 0.0929769 0)
(-0.103052 0.0894937 0)
(-0.0960824 0.103074 0)
(-0.0448941 0.0849993 0)
(0.0248962 0.075744 0)
(0.0366581 0.0795683 0)
(0.0144474 0.0774934 0)
(0.0445617 0.0604351 0)
(0.110792 0.0524455 0)
(0.135695 0.0058812 0)
(0.0836672 -0.0392437 0)
(-0.00929289 -0.0412838 0)
(-0.0943365 -0.0395024 0)
(-0.153971 -0.0327462 0)
(-0.186176 -0.0227252 0)
(-0.210414 -0.0068092 0)
(-0.193634 0.00479564 0)
(-0.0831062 -0.0135047 0)
(0.049617 0.00221548 0)
(0.154327 0.0261363 0)
(0.211929 0.0376168 0)
(0.226396 0.00742505 0)
(0.238413 0.0222984 0)
(0.214743 0.0607438 0)
(0.157214 0.0842705 0)
(0.0616838 0.0612847 0)
(-0.121576 0.0611877 0)
(-0.326673 0.0908649 0)
(-0.419126 0.120119 0)
(-0.358202 0.0972044 0)
(-0.20807 0.0596015 0)
(-0.0768476 0.0262601 0)
(0.00420605 -0.025196 0)
(0.0702293 -0.060445 0)
(0.149419 -0.0824797 0)
(0.225819 -0.0907884 0)
(0.216148 -0.106543 0)
(0.124178 -0.112116 0)
(0.0209347 -0.104966 0)
(-0.0615209 -0.113847 0)
(-0.109616 -0.0976377 0)
(-0.122849 -0.0885527 0)
(-0.0967183 -0.0813928 0)
(-0.0282212 -0.0407911 0)
(0.0131463 0.00809046 0)
(0.00144355 0.0561214 0)
(0.00355044 0.0933928 0)
(0.0428293 0.114861 0)
(0.0757087 0.113952 0)
(0.0889763 0.122437 0)
(0.0886715 0.0881089 0)
(0.0557353 0.0421116 0)
(-0.00252451 0.0189489 0)
(-0.0561642 -0.000311961 0)
(-0.102475 -0.00675775 0)
(-0.149504 -0.000400847 0)
(-0.123817 0.00446551 0)
(-0.0544727 0.0224537 0)
(-0.00260806 0.0175464 0)
(0.0476133 0.0227847 0)
(0.0657252 0.0540079 0)
(0.0446838 0.055793 0)
(4.05186e-05 0.0581175 0)
(-0.0136696 0.065866 0)
(0.0148308 0.045813 0)
(0.0432469 -0.0264267 0)
(0.0438064 -0.0828333 0)
(0.037241 -0.11499 0)
(0.0284741 -0.120551 0)
(0.0192658 -0.128658 0)
(-0.0317956 -0.10307 0)
(-0.129759 -0.0825747 0)
(-0.172835 -0.0330494 0)
(-0.126076 0.0185799 0)
(-0.0543212 0.0628896 0)
(-0.00153507 0.0844104 0)
(0.0506689 0.0960209 0)
(0.0831674 0.102664 0)
(0.0810164 0.105819 0)
(0.0260692 0.107218 0)
(-0.0211672 0.104145 0)
(-0.0524275 0.0943864 0)
(-0.0911439 0.0638744 0)
(-0.0956738 0.040191 0)
(-0.0465751 0.0043548 0)
(0.0450015 -0.0548623 0)
(0.136055 -0.121372 0)
(0.168339 -0.153214 0)
(0.144059 -0.144254 0)
(0.112084 -0.120093 0)
(0.0539759 -0.074543 0)
(-0.00436538 -0.0379417 0)
(-0.0288749 -0.00367467 0)
(-0.0405768 0.00646094 0)
(-0.0525797 0.00766025 0)
(-0.046341 -0.00173215 0)
(0.000154531 0.0175555 0)
(-0.00723594 0.0505599 0)
(-0.0406846 0.0632782 0)
(-0.0753951 0.048778 0)
(-0.0985794 0.061462 0)
(-0.110086 0.048731 0)
(-0.105235 0.0424734 0)
(-0.0650268 0.0442746 0)
(0.00980537 0.0140432 0)
(0.0385582 -0.00725726 0)
(0.027613 0.00792716 0)
(0.0616591 0.0310577 0)
(0.0956031 0.05077 0)
(0.0864719 -0.00157313 0)
(0.0613638 -0.053148 0)
(-0.0057466 -0.0907597 0)
(-0.0835838 -0.107276 0)
(-0.1336 -0.0795414 0)
(-0.168835 -0.0335783 0)
(-0.201332 -0.0113304 0)
(-0.197332 0.0124686 0)
(-0.0982404 0.0221757 0)
(0.0428118 0.00990427 0)
(0.160104 -0.00287587 0)
(0.210471 -0.000710054 0)
(0.221434 -0.0164423 0)
(0.250664 -0.0283565 0)
(0.231171 -0.011999 0)
(0.145305 -0.0216459 0)
(0.0378649 -0.0469497 0)
(-0.109215 -0.0465299 0)
(-0.283676 0.00481593 0)
(-0.38887 0.0752724 0)
(-0.357018 0.103676 0)
(-0.224314 0.0869453 0)
(-0.107446 0.0488532 0)
(-0.0336156 -0.00104335 0)
(0.0490901 -0.0411249 0)
(0.156086 -0.054514 0)
(0.233593 -0.0593078 0)
(0.209747 -0.095096 0)
(0.11815 -0.103372 0)
(0.00802965 -0.0995004 0)
(-0.0714463 -0.109748 0)
(-0.11339 -0.0977791 0)
(-0.120465 -0.111381 0)
(-0.0694523 -0.0858251 0)
(0.00244964 -0.0396787 0)
(0.0398035 -0.0134696 0)
(0.0351262 0.0302115 0)
(0.0334809 0.0966104 0)
(0.0530621 0.142205 0)
(0.0770877 0.143005 0)
(0.0734825 0.126664 0)
(0.0519824 0.0682567 0)
(0.0266986 0.0207254 0)
(-0.014183 -0.000589847 0)
(-0.0577343 -0.00213668 0)
(-0.104537 -0.00681566 0)
(-0.144424 -0.00144907 0)
(-0.113143 0.0256067 0)
(-0.0479004 0.0228592 0)
(-0.00618293 0.0255795 0)
(0.0503567 0.0257012 0)
(0.0748231 0.0522981 0)
(0.0545053 0.0540949 0)
(0.0132833 0.0655934 0)
(-0.0148747 0.053916 0)
(-0.0188357 0.020292 0)
(-0.00899289 -0.0491592 0)
(0.0202905 -0.099974 0)
(0.0399243 -0.101016 0)
(0.0301239 -0.112999 0)
(0.0217267 -0.115196 0)
(-0.0192588 -0.0833327 0)
(-0.0976583 -0.0319744 0)
(-0.129763 0.0183348 0)
(-0.0986323 0.0617653 0)
(-0.0416291 0.0937658 0)
(0.00267543 0.129694 0)
(0.0501676 0.125065 0)
(0.0855872 0.11676 0)
(0.0831958 0.132629 0)
(0.0301045 0.13682 0)
(-0.0249155 0.121671 0)
(-0.0698484 0.107911 0)
(-0.10574 0.085827 0)
(-0.1077 0.0489321 0)
(-0.0698095 0.027375 0)
(0.00525936 -0.00252184 0)
(0.0953379 -0.0617741 0)
(0.155558 -0.119895 0)
(0.160993 -0.119964 0)
(0.146062 -0.0898493 0)
(0.0889128 -0.0346888 0)
(0.0151432 0.00218631 0)
(-0.0280852 0.00714103 0)
(-0.0522532 -0.0150463 0)
(-0.0595956 -0.0238859 0)
(-0.039011 -0.0154163 0)
(0.003681 0.00896509 0)
(-0.00920728 0.0238713 0)
(-0.0602663 0.017008 0)
(-0.089632 0.0117677 0)
(-0.10735 0.013197 0)
(-0.128341 0.000855755 0)
(-0.10643 -0.0150922 0)
(-0.0690591 0.000789583 0)
(-0.0127006 -0.0171927 0)
(0.0357363 -0.0549405 0)
(0.049022 -0.0510633 0)
(0.0845677 -0.0246841 0)
(0.0963987 -0.0219437 0)
(0.0687658 -0.0400644 0)
(0.0261786 -0.0657538 0)
(-0.0434975 -0.107566 0)
(-0.0836836 -0.124686 0)
(-0.100702 -0.105688 0)
(-0.139838 -0.049406 0)
(-0.182431 -0.00673298 0)
(-0.175927 0.0117944 0)
(-0.0920422 0.0292176 0)
(0.0247188 0.0172183 0)
(0.140991 0.000228709 0)
(0.197434 -0.0329805 0)
(0.202404 -0.071469 0)
(0.238632 -0.0990123 0)
(0.21709 -0.102051 0)
(0.12946 -0.11624 0)
(0.0422247 -0.104927 0)
(-0.0831873 -0.0886162 0)
(-0.234626 -0.0583121 0)
(-0.341247 -0.0022828 0)
(-0.34152 0.0540202 0)
(-0.237607 0.0705907 0)
(-0.128789 0.0507268 0)
(-0.0482932 0.0276689 0)
(0.044158 0.00416938 0)
(0.147503 -0.0116671 0)
(0.204433 -0.0454926 0)
(0.188379 -0.0990636 0)
(0.121475 -0.0997905 0)
(0.0130146 -0.0860335 0)
(-0.0664123 -0.0731195 0)
(-0.118763 -0.0771083 0)
(-0.122636 -0.089511 0)
(-0.0522343 -0.0763892 0)
(0.0177658 -0.0434487 0)
(0.0587585 -0.0100734 0)
(0.0782502 0.0248392 0)
(0.083457 0.0919237 0)
(0.076107 0.141433 0)
(0.0648143 0.147461 0)
(0.0355197 0.10299 0)
(0.0127213 0.0500926 0)
(0.00691307 0.0117063 0)
(-0.0181953 -0.00757507 0)
(-0.0605815 -0.00836949 0)
(-0.102825 -0.0118499 0)
(-0.127288 0.00938981 0)
(-0.107883 0.0483977 0)
(-0.056217 0.0345247 0)
(-0.00153747 0.0186362 0)
(0.0673292 0.0326932 0)
(0.0880315 0.0499516 0)
(0.057422 0.0655334 0)
(0.00447837 0.0528205 0)
(-0.0408885 0.0307202 0)
(-0.0536751 -0.0172202 0)
(-0.037322 -0.0665223 0)
(0.0132471 -0.0918081 0)
(0.0339514 -0.0910925 0)
(0.0221301 -0.0988111 0)
(0.042314 -0.0821558 0)
(0.0275669 -0.0582817 0)
(-0.0596649 0.00308355 0)
(-0.110796 0.0584416 0)
(-0.0788744 0.0920024 0)
(-0.0130338 0.115321 0)
(0.0134282 0.149973 0)
(0.0346659 0.152444 0)
(0.0845746 0.144368 0)
(0.0944435 0.163022 0)
(0.019667 0.167459 0)
(-0.0379666 0.141787 0)
(-0.0719616 0.117783 0)
(-0.125969 0.0904845 0)
(-0.129203 0.055865 0)
(-0.0749702 0.0490336 0)
(-0.0120448 0.0345564 0)