/*--------------------------------*- C++ -*----------------------------------*\
| =========                 |                                                 |
| \\      /  F ield         | OpenFOAM: The Open Source CFD Toolbox           |
|  \\    /   O peration     | Version:  v2012                                 |
|   \\  /    A nd           | Website:  www.openfoam.com                      |
|    \\/     M anipulation  |                                                 |
\*---------------------------------------------------------------------------*/
FoamFile
{
    version     2.0;
    format      ascii;
    class       volScalarField;
    location    "10.25";
    object      Psi_z;
}
// * * * * * * * * * * * * * * * * * * * * * * * * * * * * * * * * * * * * * //

dimensions      [0 2 -1 0 0 0 0];


internalField   nonuniform List<scalar> 
65536
(
9.20864e-06
2.76262e-05
4.60445e-05
6.44641e-05
8.28855e-05
0.000101309
0.000119736
0.000138165
0.000156598
0.000175036
0.000193477
0.000211923
0.000230374
0.000248831
0.000267292
0.00028576
0.000304232
0.000322711
0.000341195
0.000359684
0.000378179
0.000396678
0.000415182
0.00043369
0.000452202
0.000470717
0.000489234
0.000507752
0.000526271
0.000544789
0.000563306
0.000581819
0.000600328
0.000618832
0.000637328
0.000655814
0.000674289
0.000692751
0.000711197
0.000729626
0.000748034
0.000766419
0.000784778
0.000803109
0.000821408
0.000839671
0.000857896
0.000876079
0.000894216
0.000912303
0.000930336
0.000948311
0.000966223
0.000984068
0.00100184
0.00101954
0.00103715
0.00105468
0.00107211
0.00108945
0.00110668
0.0011238
0.00114081
0.00115769
0.00117445
0.00119107
0.00120755
0.00122389
0.00124006
0.00125608
0.00127193
0.0012876
0.00130309
0.00131839
0.0013335
0.0013484
0.00136309
0.00137756
0.0013918
0.00140581
0.00141958
0.0014331
0.00144637
0.00145937
0.00147211
0.00148457
0.00149674
0.00150862
0.00152021
0.00153149
0.00154246
0.00155312
0.00156345
0.00157345
0.00158312
0.00159244
0.00160143
0.00161006
0.00161833
0.00162625
0.0016338
0.00164098
0.00164778
0.00165421
0.00166027
0.00166594
0.00167122
0.00167612
0.00168062
0.00168474
0.00168846
0.00169178
0.00169472
0.00169725
0.00169939
0.00170114
0.00170249
0.00170345
0.00170401
0.00170418
0.00170396
0.00170336
0.00170237
0.00170099
0.00169924
0.0016971
0.0016946
0.00169172
0.00168848
0.00168487
0.00168091
0.00167659
0.00167192
0.00166691
0.00166156
0.00165588
0.00164987
0.00164353
0.00163688
0.00162992
0.00162265
0.00161509
0.00160723
0.00159908
0.00159065
0.00158195
0.00157298
0.00156375
0.00155426
0.00154452
0.00153455
0.00152433
0.00151389
0.00150322
0.00149233
0.00148124
0.00146994
0.00145844
0.00144675
0.00143488
0.00142283
0.0014106
0.00139821
0.00138565
0.00137294
0.00136008
0.00134707
0.00133393
0.00132065
0.00130725
0.00129372
0.00128007
0.00126631
0.00125245
0.00123848
0.00122441
0.00121024
0.00119599
0.00118166
0.00116724
0.00115274
0.00113817
0.00112354
0.00110884
0.00109407
0.00107925
0.00106437
0.00104945
0.00103447
0.00101945
0.00100439
0.000989283
0.000974144
0.000958971
0.000943766
0.000928533
0.000913273
0.000897988
0.000882682
0.000867355
0.00085201
0.000836649
0.000821273
0.000805884
0.000790485
0.000775075
0.000759657
0.000744233
0.000728803
0.000713368
0.00069793
0.00068249
0.000667049
0.000651608
0.000636167
0.000620728
0.000605291
0.000589857
0.000574427
0.000559
0.000543579
0.000528162
0.00051275
0.000497345
0.000481946
0.000466553
0.000451166
0.000435787
0.000420414
0.000405049
0.00038969
0.000374339
0.000358995
0.000343658
0.000328328
0.000313004
0.000297688
0.000282378
0.000267075
0.000251777
0.000236486
0.000221201
0.000205921
0.000190646
0.000175375
0.00016011
0.000144848
0.000129591
0.000114337
9.90854e-05
8.38369e-05
6.85907e-05
5.33464e-05
3.81035e-05
2.28617e-05
7.62049e-06
2.76257e-05
8.28779e-05
0.000138132
0.000193391
0.000248654
0.000303925
0.000359204
0.000414492
0.000469791
0.000525102
0.000580427
0.000635765
0.000691118
0.000746487
0.000801872
0.000857274
0.000912692
0.000968127
0.00102358
0.00107905
0.00113453
0.00119003
0.00124554
0.00130107
0.0013566
0.00141215
0.0014677
0.00152326
0.00157881
0.00163437
0.00168992
0.00174546
0.00180099
0.0018565
0.00191199
0.00196745
0.00202288
0.00207827
0.00213361
0.0021889
0.00224413
0.00229928
0.00235436
0.00240936
0.00246426
0.00251905
0.00257373
0.00262828
0.0026827
0.00273696
0.00279107
0.002845
0.00289874
0.00295228
0.0030056
0.00305869
0.00311154
0.00316413
0.00321644
0.00326845
0.00332015
0.00337153
0.00342255
0.00347321
0.00352349
0.00357336
0.00362281
0.00367181
0.00372035
0.00376841
0.00381596
0.00386299
0.00390947
0.00395538
0.0040007
0.00404541
0.00408948
0.0041329
0.00417564
0.00421768
0.00425899
0.00429957
0.00433937
0.00437839
0.0044166
0.00445398
0.00449051
0.00452616
0.00456093
0.00459478
0.0046277
0.00465967
0.00469067
0.00472068
0.00474969
0.00477768
0.00480463
0.00483052
0.00485535
0.0048791
0.00490175
0.0049233
0.00494373
0.00496302
0.00498118
0.00499819
0.00501404
0.00502873
0.00504225
0.0050546
0.00506576
0.00507575
0.00508454
0.00509215
0.00509858
0.00510381
0.00510787
0.00511073
0.00511242
0.00511294
0.00511228
0.00511046
0.00510748
0.00510335
0.00509808
0.00509168
0.00508416
0.00507552
0.00506579
0.00505497
0.00504307
0.00503011
0.00501611
0.00500107
0.00498502
0.00496797
0.00494993
0.00493092
0.00491096
0.00489007
0.00486826
0.00484555
0.00482197
0.00479752
0.00477223
0.00474612
0.0047192
0.0046915
0.00466303
0.00463381
0.00460387
0.00457322
0.00454188
0.00450987
0.00447721
0.00444392
0.00441001
0.00437552
0.00434045
0.00430482
0.00426865
0.00423197
0.00419478
0.00415711
0.00411897
0.00408038
0.00404136
0.00400192
0.00396208
0.00392186
0.00388127
0.00384033
0.00379904
0.00375744
0.00371552
0.00367331
0.00363082
0.00358806
0.00354505
0.00350179
0.0034583
0.00341459
0.00337068
0.00332657
0.00328227
0.00323781
0.00319317
0.00314839
0.00310346
0.00305839
0.0030132
0.00296789
0.00292247
0.00287694
0.00283133
0.00278562
0.00273984
0.00269399
0.00264806
0.00260208
0.00255605
0.00250996
0.00246383
0.00241766
0.00237146
0.00232523
0.00227898
0.0022327
0.00218641
0.00214011
0.00209379
0.00204747
0.00200115
0.00195482
0.0019085
0.00186218
0.00181587
0.00176957
0.00172328
0.001677
0.00163073
0.00158448
0.00153824
0.00149203
0.00144583
0.00139965
0.00135349
0.00130735
0.00126124
0.00121514
0.00116906
0.00112301
0.00107698
0.00103097
0.000984975
0.000939006
0.000893057
0.000847127
0.000801217
0.000755326
0.000709452
0.000663596
0.000617756
0.000571932
0.000526122
0.000480325
0.000434541
0.000388769
0.000343006
0.000297253
0.000251508
0.00020577
0.000160038
0.000114309
6.85844e-05
2.28613e-05
4.6042e-05
0.000138127
0.000230216
0.000322312
0.000414417
0.000506533
0.000598662
0.000690808
0.000782972
0.000875156
0.000967362
0.00105959
0.00115185
0.00124413
0.00133644
0.00142877
0.00152113
0.00161353
0.00170595
0.00179839
0.00189087
0.00198337
0.00207589
0.00216843
0.00226099
0.00235357
0.00244616
0.00253876
0.00263136
0.00272395
0.00281654
0.00290912
0.00300167
0.0030942
0.00318669
0.00327913
0.00337151
0.00346383
0.00355608
0.00364823
0.00374029
0.00383222
0.00392404
0.0040157
0.00410721
0.00419855
0.00428969
0.00438063
0.00447133
0.00456179
0.00465197
0.00474187
0.00483145
0.0049207
0.00500959
0.0050981
0.00518619
0.00527386
0.00536105
0.00544776
0.00553395
0.00561959
0.00570466
0.00578911
0.00587293
0.00595607
0.0060385
0.0061202
0.00620113
0.00628125
0.00636052
0.00643893
0.00651642
0.00659296
0.00666852
0.00674305
0.00681653
0.00688892
0.00696018
0.00703027
0.00709915
0.00716679
0.00723316
0.00729822
0.00736192
0.00742425
0.00748515
0.0075446
0.00760256
0.007659
0.00771389
0.00776719
0.00781888
0.00786892
0.00791728
0.00796395
0.00800888
0.00805206
0.00809346
0.00813305
0.00817082
0.00820674
0.0082408
0.00827297
0.00830324
0.0083316
0.00835803
0.00838252
0.00840506
0.00842564
0.00844425
0.00846089
0.00847556
0.00848824
0.00849895
0.00850767
0.00851442
0.0085192
0.00852201
0.00852286
0.00852176
0.00851872
0.00851375
0.00850686
0.00849806
0.00848738
0.00847483
0.00846042
0.00844419
0.00842614
0.00840629
0.00838468
0.00836133
0.00833625
0.00830948
0.00828104
0.00825095
0.00821926
0.00818597
0.00815113
0.00811477
0.0080769
0.00803757
0.0079968
0.00795463
0.00791109
0.00786621
0.00782001
0.00777254
0.00772383
0.0076739
0.0076228
0.00757054
0.00751717
0.00746272
0.00740721
0.00735068
0.00729317
0.00723469
0.00717529
0.007115
0.00705384
0.00699184
0.00692903
0.00686545
0.00680111
0.00673606
0.00667031
0.0066039
0.00653684
0.00646918
0.00640092
0.0063321
0.00626274
0.00619287
0.0061225
0.00605167
0.00598038
0.00590868
0.00583657
0.00576407
0.00569122
0.00561801
0.00554449
0.00547065
0.00539652
0.00532213
0.00524747
0.00517258
0.00509746
0.00502212
0.0049466
0.00487089
0.00479501
0.00471897
0.0046428
0.00456648
0.00449005
0.00441351
0.00433686
0.00426013
0.00418331
0.00410643
0.00402948
0.00395247
0.00387541
0.00379832
0.00372119
0.00364403
0.00356685
0.00348966
0.00341246
0.00333525
0.00325804
0.00318083
0.00310363
0.00302644
0.00294927
0.00287211
0.00279498
0.00271787
0.00264078
0.00256372
0.00248669
0.00240969
0.00233273
0.0022558
0.0021789
0.00210203
0.00202521
0.00194841
0.00187166
0.00179494
0.00171825
0.0016416
0.00156499
0.00148841
0.00141186
0.00133534
0.00125886
0.0011824
0.00110598
0.00102958
0.000953203
0.000876854
0.000800528
0.000724223
0.000647936
0.000571667
0.000495413
0.000419173
0.000342944
0.000266725
0.000190512
0.000114305
3.81014e-05
6.44569e-05
0.000193373
0.000322294
0.000451224
0.000580167
0.000709126
0.000838105
0.000967106
0.00109613
0.00122519
0.00135427
0.00148339
0.00161255
0.00174174
0.00187097
0.00200024
0.00212955
0.0022589
0.00238829
0.00251772
0.00264718
0.00277668
0.00290622
0.00303578
0.00316537
0.00329498
0.00342462
0.00355426
0.0036839
0.00381355
0.00394318
0.0040728
0.00420238
0.00433193
0.00446142
0.00459086
0.00472021
0.00484947
0.00497863
0.00510767
0.00523656
0.00536529
0.00549385
0.00562221
0.00575035
0.00587824
0.00600586
0.0061332
0.00626021
0.00638688
0.00651317
0.00663905
0.0067645
0.00688949
0.00701397
0.00713791
0.00726128
0.00738405
0.00750616
0.0076276
0.0077483
0.00786824
0.00798737
0.00810565
0.00822304
0.00833948
0.00845494
0.00856936
0.00868271
0.00879492
0.00890596
0.00901577
0.00912431
0.00923152
0.00933735
0.00944175
0.00954468
0.00964607
0.00974588
0.00984406
0.00994055
0.0100353
0.0101283
0.0102194
0.0103086
0.0103959
0.0104812
0.0105645
0.0106457
0.0107248
0.0108017
0.0108763
0.0109487
0.0110188
0.0110866
0.0111519
0.0112149
0.0112754
0.0113334
0.0113888
0.0114417
0.011492
0.0115398
0.0115848
0.0116272
0.0116669
0.011704
0.0117383
0.0117698
0.0117987
0.0118247
0.011848
0.0118686
0.0118863
0.0119013
0.0119135
0.011923
0.0119296
0.0119336
0.0119347
0.0119332
0.0119289
0.0119219
0.0119123
0.0118999
0.011885
0.0118674
0.0118472
0.0118244
0.0117991
0.0117713
0.011741
0.0117083
0.0116731
0.0116356
0.0115958
0.0115536
0.0115092
0.0114625
0.0114137
0.0113628
0.0113097
0.0112546
0.0111975
0.0111384
0.0110774
0.0110145
0.0109498
0.0108833
0.0108151
0.0107451
0.0106735
0.0106003
0.0105256
0.0104493
0.0103715
0.0102923
0.0102118
0.0101299
0.0100467
0.00996221
0.00987654
0.0097897
0.00970173
0.00961268
0.00952257
0.00943146
0.00933937
0.00924635
0.00915244
0.00905767
0.00896208
0.00886569
0.00876856
0.0086707
0.00857216
0.00847296
0.00837313
0.00827272
0.00817173
0.00807021
0.00796818
0.00786568
0.00776271
0.00765932
0.00755552
0.00745134
0.0073468
0.00724192
0.00713673
0.00703125
0.00692549
0.00681948
0.00671323
0.00660677
0.0065001
0.00639325
0.00628623
0.00617905
0.00607174
0.0059643
0.00585674
0.00574909
0.00564135
0.00553353
0.00542564
0.0053177
0.0052097
0.00510168
0.00499362
0.00488554
0.00477745
0.00466935
0.00456124
0.00445315
0.00434507
0.004237
0.00412895
0.00402093
0.00391294
0.00380498
0.00369705
0.00358917
0.00348133
0.00337353
0.00326577
0.00315807
0.00305041
0.0029428
0.00283524
0.00272773
0.00262027
0.00251286
0.0024055
0.0022982
0.00219093
0.00208372
0.00197656
0.00186943
0.00176236
0.00165532
0.00154833
0.00144137
0.00133445
0.00122756
0.00112071
0.00101388
0.000907087
0.000800313
0.00069356
0.000586826
0.000480109
0.000373404
0.00026671
0.000160023
5.33405e-05
8.28701e-05
0.000248613
0.000414362
0.000580124
0.000745902
0.000911701
0.00107752
0.00124338
0.00140927
0.00157519
0.00174115
0.00190716
0.00207321
0.00223932
0.00240547
0.00257167
0.00273792
0.00290423
0.00307059
0.003237
0.00340346
0.00356996
0.00373651
0.0039031
0.00406973
0.00423638
0.00440306
0.00456975
0.00473645
0.00490315
0.00506984
0.0052365
0.00540313
0.00556971
0.00573623
0.00590266
0.006069
0.00623522
0.00640131
0.00656724
0.00673299
0.00689854
0.00706386
0.00722893
0.00739372
0.0075582
0.00772233
0.00788609
0.00804944
0.00821234
0.00837477
0.00853668
0.00869802
0.00885877
0.00901888
0.00917829
0.00933698
0.00949488
0.00965196
0.00980815
0.00996342
0.0101177
0.0102709
0.0104231
0.0105741
0.0107239
0.0108724
0.0110196
0.0111654
0.0113098
0.0114526
0.0115939
0.0117335
0.0118715
0.0120076
0.0121419
0.0122744
0.0124048
0.0125332
0.0126595
0.0127837
0.0129056
0.0130252
0.0131425
0.0132573
0.0133696
0.0134794
0.0135865
0.013691
0.0137927
0.0138917
0.0139877
0.0140809
0.0141711
0.0142583
0.0143424
0.0144234
0.0145012
0.0145758
0.0146472
0.0147152
0.01478
0.0148413
0.0148993
0.0149539
0.015005
0.0150526
0.0150967
0.0151373
0.0151744
0.0152079
0.0152379
0.0152643
0.0152872
0.0153064
0.0153221
0.0153343
0.0153428
0.0153479
0.0153494
0.0153473
0.0153418
0.0153328
0.0153203
0.0153044
0.0152851
0.0152625
0.0152365
0.0152072
0.0151746
0.0151388
0.0150998
0.0150576
0.0150124
0.0149641
0.0149128
0.0148585
0.0148013
0.0147413
0.0146785
0.0146129
0.0145446
0.0144737
0.0144001
0.0143241
0.0142456
0.0141647
0.0140814
0.0139958
0.013908
0.013818
0.0137259
0.0136317
0.0135355
0.0134373
0.0133373
0.0132354
0.0131317
0.0130263
0.0129193
0.0128106
0.0127004
0.0125887
0.0124755
0.012361
0.012245
0.0121278
0.0120094
0.0118897
0.0117689
0.011647
0.011524
0.0114
0.0112751
0.0111492
0.0110225
0.0108949
0.0107665
0.0106373
0.0105074
0.0103769
0.0102456
0.0101138
0.00998137
0.00984839
0.00971489
0.0095809
0.00944646
0.00931158
0.0091763
0.00904065
0.00890464
0.00876831
0.00863167
0.00849476
0.00835759
0.00822018
0.00808256
0.00794473
0.00780674
0.00766857
0.00753027
0.00739184
0.00725329
0.00711465
0.00697592
0.00683712
0.00669826
0.00655935
0.0064204
0.00628143
0.00614244
0.00600345
0.00586445
0.00572546
0.00558649
0.00544753
0.00530861
0.00516972
0.00503086
0.00489205
0.00475329
0.00461458
0.00447592
0.00433732
0.00419877
0.00406029
0.00392187
0.00378351
0.00364522
0.003507
0.00336883
0.00323074
0.00309271
0.00295474
0.00281683
0.00267899
0.00254121
0.00240348
0.00226582
0.0021282
0.00199064
0.00185313
0.00171566
0.00157824
0.00144086
0.00130352
0.00116621
0.00102894
0.000891688
0.000754464
0.00061726
0.000480073
0.0003429
0.000205736
6.85781e-05
0.000101281
0.000303845
0.000506419
0.000709007
0.000911615
0.00111425
0.00131692
0.00151962
0.00172236
0.00192515
0.00212799
0.00233088
0.00253383
0.00273684
0.00293991
0.00314305
0.00334625
0.00354951
0.00375284
0.00395623
0.00415969
0.0043632
0.00456677
0.00477039
0.00497405
0.00517775
0.00538148
0.00558524
0.005789
0.00599277
0.00619652
0.00640025
0.00660393
0.00680756
0.00701111
0.00721456
0.0074179
0.0076211
0.00782414
0.00802699
0.00822963
0.00843202
0.00863413
0.00883594
0.00903741
0.00923849
0.00943917
0.00963939
0.00983911
0.0100383
0.0102369
0.0104349
0.0106321
0.0108287
0.0110245
0.0112194
0.0114135
0.0116065
0.0117986
0.0119896
0.0121795
0.0123682
0.0125556
0.0127417
0.0129264
0.0131096
0.0132912
0.0134712
0.0136496
0.0138261
0.0140009
0.0141737
0.0143445
0.0145132
0.0146797
0.014844
0.015006
0.0151656
0.0153227
0.0154772
0.015629
0.0157782
0.0159245
0.016068
0.0162084
0.0163458
0.0164801
0.0166112
0.016739
0.0168635
0.0169845
0.017102
0.017216
0.0173264
0.017433
0.0175359
0.017635
0.0177302
0.0178215
0.0179088
0.0179921
0.0180713
0.0181463
0.0182173
0.018284
0.0183465
0.0184048
0.0184587
0.0185084
0.0185537
0.0185947
0.0186314
0.0186637
0.0186916
0.0187151
0.0187343
0.0187491
0.0187596
0.0187657
0.0187675
0.018765
0.0187582
0.0187471
0.0187318
0.0187124
0.0186887
0.0186609
0.0186291
0.0185932
0.0185533
0.0185094
0.0184617
0.0184101
0.0183547
0.0182955
0.0182327
0.0181663
0.0180963
0.0180228
0.0179459
0.0178657
0.0177821
0.0176953
0.0176053
0.0175123
0.0174162
0.0173172
0.0172153
0.0171106
0.0170031
0.016893
0.0167803
0.016665
0.0165473
0.0164272
0.0163048
0.0161802
0.0160534
0.0159245
0.0157935
0.0156606
0.0155258
0.0153891
0.0152507
0.0151106
0.0149688
0.0148254
0.0146806
0.0145342
0.0143865
0.0142374
0.014087
0.0139354
0.0137826
0.0136286
0.0134736
0.0133176
0.0131606
0.0130026
0.0128438
0.0126842
0.0125237
0.0123625
0.0122006
0.012038
0.0118748
0.0117109
0.0115466
0.0113816
0.0112163
0.0110504
0.0108841
0.0107174
0.0105504
0.010383
0.0102153
0.0100473
0.00987908
0.0097106
0.0095419
0.009373
0.00920393
0.0090347
0.00886534
0.00869585
0.00852627
0.0083566
0.00818686
0.00801706
0.00784722
0.00767734
0.00750745
0.00733755
0.00716765
0.00699775
0.00682788
0.00665804
0.00648823
0.00631846
0.00614875
0.00597908
0.00580947
0.00563993
0.00547045
0.00530104
0.00513171
0.00496245
0.00479327
0.00462416
0.00445514
0.0042862
0.00411733
0.00394855
0.00377985
0.00361122
0.00344267
0.0032742
0.0031058
0.00293748
0.00276922
0.00260103
0.00243291
0.00226484
0.00209683
0.00192888
0.00176098
0.00159312
0.00142531
0.00125753
0.00108979
0.00092208
0.000754394
0.000586729
0.000419081
0.000251444
8.38138e-05
0.000119689
0.000359069
0.000598461
0.00083787
0.0010773
0.00131677
0.00155627
0.00179581
0.00203541
0.00227506
0.00251477
0.00275454
0.00299439
0.0032343
0.00347429
0.00371436
0.0039545
0.00419473
0.00443503
0.00467541
0.00491586
0.00515638
0.00539698
0.00563763
0.00587834
0.00611909
0.00635989
0.00660071
0.00684155
0.00708239
0.00732323
0.00756403
0.00780479
0.00804548
0.00828609
0.00852658
0.00876695
0.00900715
0.00924717
0.00948696
0.00972651
0.00996577
0.0102047
0.0104433
0.0106815
0.0109192
0.0111565
0.0113932
0.0116293
0.0118648
0.0120996
0.0123337
0.012567
0.0127994
0.0130309
0.0132614
0.0134909
0.0137192
0.0139464
0.0141723
0.0143968
0.01462
0.0148416
0.0150617
0.0152801
0.0154968
0.0157116
0.0159246
0.0161355
0.0163444
0.016551
0.0167554
0.0169575
0.017157
0.0173541
0.0175484
0.0177401
0.0179288
0.0181147
0.0182975
0.0184771
0.0186536
0.0188267
0.0189964
0.0191626
0.0193252
0.0194841
0.0196392
0.0197904
0.0199376
0.0200809
0.0202199
0.0203548
0.0204853
0.0206115
0.0207333
0.0208505
0.0209632
0.0210711
0.0211744
0.021273
0.0213667
0.0214555
0.0215394
0.0216183
0.0216923
0.0217612
0.021825
0.0218838
0.0219374
0.0219859
0.0220292
0.0220674
0.0221003
0.0221282
0.0221508
0.0221683
0.0221806
0.0221878
0.0221899
0.0221869
0.0221788
0.0221657
0.0221475
0.0221244
0.0220964
0.0220635
0.0220257
0.0219832
0.0219359
0.021884
0.0218274
0.0217663
0.0217007
0.0216307
0.0215563
0.0214777
0.0213948
0.0213078
0.0212168
0.0211218
0.0210228
0.0209201
0.0208136
0.0207035
0.0205898
0.0204726
0.020352
0.020228
0.0201009
0.0199706
0.0198372
0.0197008
0.0195615
0.0194195
0.0192747
0.0191272
0.0189772
0.0188247
0.0186697
0.0185125
0.018353
0.0181914
0.0180276
0.0178618
0.0176941
0.0175246
0.0173532
0.0171801
0.0170054
0.016829
0.0166512
0.0164719
0.0162912
0.0161091
0.0159258
0.0157413
0.0155556
0.0153689
0.0151811
0.0149923
0.0148025
0.0146119
0.0144205
0.0142282
0.0140352
0.0138415
0.0136472
0.0134522
0.0132567
0.0130606
0.012864
0.0126669
0.0124695
0.0122716
0.0120733
0.0118747
0.0116759
0.0114767
0.0112773
0.0110776
0.0108777
0.0106777
0.0104775
0.0102772
0.0100767
0.00987615
0.00967552
0.00947482
0.00927406
0.00907327
0.00887246
0.00867165
0.00847083
0.00827003
0.00806925
0.00786851
0.00766781
0.00746717
0.00726658
0.00706605
0.0068656
0.00666522
0.00646492
0.0062647
0.00606457
0.00586453
0.00566459
0.00546474
0.00526498
0.00506532
0.00486575
0.00466628
0.00446691
0.00426762
0.00406844
0.00386934
0.00367033
0.0034714
0.00327256
0.0030738
0.00287511
0.00267649
0.00247795
0.00227947
0.00208105
0.00188268
0.00168436
0.00148609
0.00128787
0.00108967
0.000891508
0.000693369
0.00049525
0.000297144
9.90472e-05
0.000138093
0.000414283
0.000690485
0.000966708
0.00124296
0.00151925
0.00179558
0.00207196
0.0023484
0.00262491
0.00290149
0.00317814
0.00345487
0.00373169
0.0040086
0.00428559
0.00456268
0.00483986
0.00511714
0.0053945
0.00567196
0.0059495
0.00622712
0.00650481
0.00678258
0.0070604
0.00733827
0.00761617
0.0078941
0.00817203
0.00844996
0.00872786
0.00900571
0.00928349
0.00956117
0.00983874
0.0101161
0.0103934
0.0106704
0.0109472
0.0112237
0.0114998
0.0117756
0.012051
0.012326
0.0126004
0.0128743
0.0131476
0.0134202
0.013692
0.0139631
0.0142334
0.0145027
0.014771
0.0150383
0.0153045
0.0155694
0.0158331
0.0160954
0.0163562
0.0166155
0.0168732
0.0171292
0.0173833
0.0176356
0.0178858
0.0181339
0.0183799
0.0186235
0.0188648
0.0191035
0.0193396
0.0195729
0.0198035
0.0200311
0.0202556
0.0204769
0.020695
0.0209097
0.0211209
0.0213285
0.0215323
0.0217323
0.0219284
0.0221204
0.0223082
0.0224918
0.022671
0.0228457
0.0230159
0.0231813
0.023342
0.0234978
0.0236487
0.0237945
0.0239351
0.0240706
0.0242007
0.0243255
0.0244449
0.0245587
0.0246669
0.0247696
0.0248665
0.0249577
0.0250431
0.0251227
0.0251964
0.0252643
0.0253262
0.0253822
0.0254322
0.0254762
0.0255143
0.0255464
0.0255725
0.0255927
0.0256069
0.0256151
0.0256175
0.0256139
0.0256045
0.0255892
0.0255682
0.0255414
0.025509
0.0254709
0.0254272
0.0253779
0.0253233
0.0252632
0.0251977
0.0251271
0.0250512
0.0249702
0.0248842
0.0247933
0.0246975
0.0245969
0.0244916
0.0243818
0.0242674
0.0241486
0.0240255
0.0238982
0.0237668
0.0236314
0.023492
0.0233488
0.0232018
0.0230512
0.0228971
0.0227395
0.0225786
0.0224144
0.0222471
0.0220768
0.0219034
0.0217272
0.0215483
0.0213666
0.0211824
0.0209957
0.0208065
0.0206151
0.0204214
0.0202255
0.0200276
0.0198277
0.0196259
0.0194222
0.0192168
0.0190097
0.0188011
0.0185909
0.0183792
0.0181661
0.0179518
0.0177361
0.0175193
0.0173013
0.0170822
0.0168622
0.0166411
0.0164192
0.0161964
0.0159728
0.0157484
0.0155233
0.0152976
0.0150713
0.0148443
0.0146169
0.0143889
0.0141605
0.0139317
0.0137025
0.0134729
0.013243
0.0130128
0.0127824
0.0125517
0.0123209
0.0120898
0.0118586
0.0116272
0.0113958
0.0111642
0.0109326
0.0107009
0.0104692
0.0102375
0.0100057
0.009774
0.00954228
0.00931059
0.00907894
0.00884735
0.00861581
0.00838434
0.00815295
0.00792164
0.00769042
0.0074593
0.00722827
0.00699735
0.00676653
0.00653581
0.00630521
0.00607472
0.00584434
0.00561407
0.00538392
0.00515387
0.00492394
0.00469411
0.00446438
0.00423476
0.00400524
0.00377582
0.00354648
0.00331724
0.00308808
0.002859
0.00262999
0.00240106
0.00217219
0.00194338
0.00171462
0.0014859
0.00125723
0.0010286
0.00079999
0.000571405
0.000342837
0.000114278
0.000156493
0.000469484
0.000782489
0.00109552
0.00140858
0.00172168
0.00203484
0.00234805
0.00266133
0.00297469
0.00328813
0.00360165
0.00391527
0.00422899
0.00454281
0.00485674
0.00517077
0.00548491
0.00579916
0.00611351
0.00642797
0.00674253
0.00705719
0.00737193
0.00768676
0.00800165
0.00831661
0.00863161
0.00894664
0.00926168
0.00957672
0.00989174
0.0102067
0.0105216
0.0108364
0.011151
0.0114655
0.0117798
0.0120939
0.0124077
0.0127212
0.0130343
0.013347
0.0136592
0.013971
0.0142822
0.0145927
0.0149026
0.0152117
0.01552
0.0158275
0.016134
0.0164394
0.0167437
0.0170469
0.0173488
0.0176493
0.0179483
0.0182458
0.0185417
0.0188359
0.0191282
0.0194185
0.0197069
0.019993
0.0202769
0.0205585
0.0208375
0.021114
0.0213877
0.0216585
0.0219264
0.0221912
0.0224528
0.0227111
0.0229659
0.0232171
0.0234646
0.0237083
0.0239479
0.0241835
0.0244149
0.0246419
0.0248644
0.0250824
0.0252956
0.0255039
0.0257073
0.0259057
0.0260988
0.0262866
0.026469
0.0266458
0.0268171
0.0269826
0.0271422
0.027296
0.0274437
0.0275853
0.0277208
0.02785
0.0279729
0.0280893
0.0281993
0.0283028
0.0283997
0.0284901
0.0285737
0.0286507
0.0287209
0.0287844
0.0288411
0.0288911
0.0289342
0.0289706
0.0290002
0.029023
0.029039
0.0290483
0.0290509
0.0290468
0.029036
0.0290186
0.0289946
0.0289642
0.0289272
0.0288838
0.0288341
0.0287782
0.028716
0.0286477
0.0285733
0.028493
0.0284068
0.0283147
0.028217
0.0281137
0.0280049
0.0278906
0.027771
0.0276463
0.0275164
0.0273815
0.0272417
0.0270971
0.0269479
0.0267941
0.0266358
0.0264732
0.0263064
0.0261354
0.0259604
0.0257816
0.0255989
0.0254126
0.0252227
0.0250293
0.0248326
0.0246326
0.0244295
0.0242234
0.0240143
0.0238024
0.0235878
0.0233705
0.0231507
0.0229285
0.022704
0.0224771
0.0222482
0.0220172
0.0217841
0.0215492
0.0213125
0.0210741
0.020834
0.0205923
0.0203492
0.0201046
0.0198586
0.0196114
0.019363
0.0191134
0.0188627
0.018611
0.0183583
0.0181048
0.0178504
0.0175951
0.0173392
0.0170825
0.0168252
0.0165673
0.0163088
0.0160499
0.0157904
0.0155305
0.0152703
0.0150096
0.0147487
0.0144874
0.0142259
0.0139642
0.0137023
0.0134402
0.0131779
0.0129155
0.012653
0.0123905
0.0121279
0.0118652
0.0116025
0.0113398
0.0110772
0.0108145
0.0105519
0.0102893
0.0100268
0.00976438
0.00950203
0.00923977
0.0089776
0.00871554
0.00845358
0.00819174
0.00793001
0.00766841
0.00740693
0.00714558
0.00688435
0.00662326
0.00636229
0.00610144
0.00584073
0.00558014
0.00531967
0.00505933
0.0047991
0.00453899
0.00427898
0.00401908
0.00375929
0.00349959
0.00323998
0.00298045
0.00272101
0.00246164
0.00220233
0.00194309
0.0016839
0.00142476
0.00116566
0.000906588
0.000647544
0.000388519
0.000129505
0.000174888
0.00052467
0.000874469
0.00122429
0.00157416
0.00192407
0.00227404
0.00262408
0.00297419
0.00332439
0.00367468
0.00402508
0.00437558
0.00472619
0.00507692
0.00542777
0.00577875
0.00612984
0.00648107
0.00683242
0.00718389
0.00753547
0.00788717
0.00823897
0.00859087
0.00894285
0.0092949
0.00964701
0.00999916
0.0103513
0.0107035
0.0110557
0.0114078
0.0117598
0.0121117
0.0124635
0.0128151
0.0131665
0.0135177
0.0138685
0.014219
0.0145691
0.0149188
0.015268
0.0156166
0.0159645
0.0163118
0.0166584
0.0170041
0.0173489
0.0176928
0.0180356
0.0183772
0.0187176
0.0190567
0.0193944
0.0197306
0.0200651
0.0203979
0.020729
0.021058
0.0213851
0.02171
0.0220326
0.0223528
0.0226705
0.0229855
0.0232978
0.0236071
0.0239134
0.0242166
0.0245164
0.0248128
0.0251056
0.0253946
0.0256798
0.025961
0.026238
0.0265108
0.0267791
0.0270428
0.0273018
0.0275559
0.0278051
0.028049
0.0282877
0.028521
0.0287487
0.0289708
0.029187
0.0293973
0.0296015
0.0297995
0.0299912
0.0301765
0.0303553
0.0305274
0.0306928
0.0308513
0.031003
0.0311476
0.0312852
0.0314155
0.0315387
0.0316545
0.031763
0.0318641
0.0319577
0.0320438
0.0321224
0.0321934
0.0322569
0.0323127
0.032361
0.0324016
0.0324346
0.0324601
0.0324779
0.0324882
0.032491
0.0324863
0.0324741
0.0324545
0.0324276
0.0323933
0.0323518
0.0323032
0.0322474
0.0321846
0.0321148
0.0320382
0.0319548
0.0318648
0.0317681
0.031665
0.0315555
0.0314396
0.0313177
0.0311896
0.0310557
0.0309159
0.0307703
0.0306192
0.0304626
0.0303007
0.0301335
0.0299613
0.029784
0.0296019
0.0294151
0.0292236
0.0290277
0.0288274
0.0286229
0.0284143
0.0282016
0.0279852
0.0277649
0.0275411
0.0273137
0.027083
0.026849
0.0266118
0.0263716
0.0261285
0.0258825
0.0256339
0.0253826
0.0251288
0.0248726
0.0246141
0.0243534
0.0240906
0.0238257
0.023559
0.0232903
0.02302
0.022748
0.0224744
0.0221993
0.0219227
0.0216448
0.0213657
0.0210853
0.0208038
0.0205212
0.0202376
0.0199531
0.0196677
0.0193814
0.0190944
0.0188067
0.0185183
0.0182293
0.0179397
0.0176496
0.017359
0.017068
0.0167766
0.0164848
0.0161927
0.0159004
0.0156077
0.0153149
0.0150219
0.0147287
0.0144354
0.0141419
0.0138484
0.0135548
0.0132612
0.0129676
0.0126739
0.0123803
0.0120867
0.0117931
0.0114996
0.0112062
0.0109129
0.0106196
0.0103265
0.0100335
0.00974054
0.00944775
0.00915509
0.00886256
0.00857017
0.00827792
0.00798582
0.00769386
0.00740204
0.00711037
0.00681884
0.00652746
0.00623622
0.00594512
0.00565416
0.00536332
0.00507262
0.00478204
0.00449158
0.00420124
0.003911
0.00362087
0.00333083
0.00304088
0.00275102
0.00246123
0.00217151
0.00188185
0.00159224
0.00130268
0.00101316
0.000723665
0.000434191
0.000144729
0.000193278
0.00057984
0.000966421
0.00135303
0.00173969
0.0021264
0.00251317
0.00290002
0.00328696
0.00367399
0.00406114
0.00444839
0.00483577
0.00522327
0.00561091
0.00599868
0.0063866
0.00677466
0.00716286
0.0075512
0.00793968
0.0083283
0.00871705
0.00910591
0.00949489
0.00988397
0.0102731
0.0106624
0.0110517
0.011441
0.0118303
0.0122196
0.0126089
0.0129981
0.0133872
0.0137761
0.0141649
0.0145534
0.0149417
0.0153297
0.0157173
0.0161044
0.0164911
0.0168772
0.0172628
0.0176476
0.0180317
0.018415
0.0187974
0.0191788
0.0195591
0.0199383
0.0203162
0.0206928
0.021068
0.0214415
0.0218135
0.0221836
0.0225519
0.0229181
0.0232823
0.0236442
0.0240037
0.0243607
0.024715
0.0250666
0.0254153
0.0257609
0.0261033
0.0264423
0.0267779
0.0271098
0.0274379
0.027762
0.028082
0.0283977
0.0287091
0.0290158
0.0293177
0.0296148
0.0299068
0.0301936
0.030475
0.0307508
0.031021
0.0312853
0.0315437
0.0317958
0.0320417
0.0322812
0.032514
0.0327402
0.0329595
0.0331718
0.033377
0.0335749
0.0337655
0.0339487
0.0341243
0.0342922
0.0344523
0.0346046
0.034749
0.0348853
0.0350136
0.0351337
0.0352456
0.0353492
0.0354445
0.0355314
0.03561
0.0356802
0.035742
0.0357953
0.0358402
0.0358767
0.0359047
0.0359244
0.0359357
0.0359386
0.0359333
0.0359196
0.0358978
0.0358678
0.0358297
0.0357836
0.0357296
0.0356677
0.035598
0.0355206
0.0354356
0.0353431
0.0352432
0.035136
0.0350216
0.0349002
0.0347718
0.0346366
0.0344946
0.0343461
0.0341912
0.0340299
0.0338624
0.0336889
0.0335095
0.0333243
0.0331334
0.0329371
0.0327353
0.0325284
0.0323163
0.0320993
0.0318775
0.031651
0.0314199
0.0311845
0.0309448
0.0307009
0.0304531
0.0302014
0.0299459
0.0296869
0.0294243
0.0291584
0.0288893
0.028617
0.0283418
0.0280637
0.0277828
0.0274993
0.0272132
0.0269247
0.0266339
0.0263408
0.0260457
0.0257485
0.0254493
0.0251484
0.0248457
0.0245413
0.0242354
0.023928
0.0236192
0.0233091
0.0229977
0.0226851
0.0223714
0.0220567
0.021741
0.0214245
0.021107
0.0207888
0.0204699
0.0201503
0.01983
0.0195092
0.0191879
0.0188661
0.0185439
0.0182213
0.0178983
0.017575
0.0172515
0.0169277
0.0166037