/*--------------------------------*- C++ -*----------------------------------*\
| =========                 |                                                 |
| \\      /  F ield         | OpenFOAM: The Open Source CFD Toolbox           |
|  \\    /   O peration     | Version:  v2012                                 |
|   \\  /    A nd           | Website:  www.openfoam.com                      |
|    \\/     M anipulation  |                                                 |
\*---------------------------------------------------------------------------*/
FoamFile
{
    version     2.0;
    format      ascii;
    class       volScalarField;
    location    "10.25";
    object      W;
}
// * * * * * * * * * * * * * * * * * * * * * * * * * * * * * * * * * * * * * //

dimensions      [0 0 -1 0 0 0 0];


internalField   nonuniform List<scalar> 
65536
(
3.22057e-17
3.27936e-17
3.44644e-17
3.72505e-17
4.12151e-17
4.64524e-17
5.30896e-17
6.12892e-17
7.12524e-17
8.32229e-17
9.74918e-17
1.14404e-16
1.34363e-16
1.57843e-16
1.85393e-16
2.17649e-16
2.55349e-16
2.9934e-16
3.50598e-16
4.10244e-16
4.79561e-16
5.60019e-16
6.53296e-16
7.61304e-16
8.86224e-16
1.03053e-15
1.19704e-15
1.38894e-15
1.60985e-15
1.86384e-15
2.15552e-15
2.49008e-15
2.87338e-15
3.31197e-15
3.81322e-15
4.3854e-15
5.03774e-15
5.78054e-15
6.62532e-15
7.58487e-15
8.67343e-15
9.90678e-15
1.13024e-14
1.28798e-14
1.46601e-14
1.6667e-14
1.89264e-14
2.14668e-14
2.43195e-14
2.75185e-14
3.11012e-14
3.51085e-14
3.95846e-14
4.45777e-14
5.01402e-14
5.63285e-14
6.32037e-14
7.08319e-14
7.92837e-14
8.86354e-14
9.89685e-14
1.1037e-13
1.22933e-13
1.36757e-13
1.51946e-13
1.68612e-13
1.86873e-13
2.06852e-13
2.2868e-13
2.52494e-13
2.78436e-13
3.06655e-13
3.37308e-13
3.70553e-13
4.06557e-13
4.45491e-13
4.87531e-13
5.32854e-13
5.81645e-13
6.34086e-13
6.90365e-13
7.50669e-13
8.15184e-13
8.84096e-13
9.57588e-13
1.03584e-12
1.11902e-12
1.20729e-12
1.30082e-12
1.39975e-12
1.50421e-12
1.61433e-12
1.73021e-12
1.85193e-12
1.97956e-12
2.11314e-12
2.25269e-12
2.3982e-12
2.54963e-12
2.70691e-12
2.86993e-12
3.03856e-12
3.21261e-12
3.39187e-12
3.57606e-12
3.76489e-12
3.958e-12
4.15499e-12
4.35542e-12
4.55877e-12
4.76451e-12
4.97204e-12
5.18069e-12
5.38979e-12
5.59857e-12
5.80624e-12
6.01196e-12
6.21484e-12
6.41396e-12
6.60837e-12
6.79707e-12
6.97904e-12
7.15325e-12
7.31864e-12
7.47418e-12
7.6188e-12
7.75146e-12
7.87115e-12
7.97688e-12
8.0677e-12
8.14271e-12
8.20109e-12
8.24207e-12
8.265e-12
8.2693e-12
8.2545e-12
8.22027e-12
8.16638e-12
8.09276e-12
7.99948e-12
7.88675e-12
7.75495e-12
7.6046e-12
7.4364e-12
7.25119e-12
7.04998e-12
6.8339e-12
6.60425e-12
6.36244e-12
6.11e-12
5.84856e-12
5.57984e-12
5.30561e-12
5.0277e-12
4.74796e-12
4.46823e-12
4.19035e-12
3.91611e-12
3.64723e-12
3.38538e-12
3.13208e-12
2.88879e-12
2.6568e-12
2.43728e-12
2.23125e-12
2.03954e-12
1.86287e-12
1.70176e-12
1.55656e-12
1.4275e-12
1.31459e-12
1.21775e-12
1.13669e-12
1.07103e-12
1.02023e-12
9.83606e-13
9.60388e-13
9.49669e-13
9.50443e-13
9.61606e-13
9.81964e-13
1.01024e-12
1.04511e-12
1.08516e-12
1.12897e-12
1.17508e-12
1.22202e-12
1.26835e-12
1.31268e-12
1.35365e-12
1.39002e-12
1.42065e-12
1.44454e-12
1.46085e-12
1.46893e-12
1.46831e-12
1.45871e-12
1.4401e-12
1.41261e-12
1.37662e-12
1.33264e-12
1.28139e-12
1.22373e-12
1.16061e-12
1.09308e-12
1.02224e-12
9.49209e-13
8.7509e-13
8.00939e-13
7.27744e-13
6.56396e-13
5.87679e-13
5.22252e-13
4.60644e-13
4.03251e-13
3.50342e-13
3.02062e-13
2.58447e-13
2.19431e-13
1.84868e-13
1.54542e-13
1.28184e-13
1.0549e-13
8.61321e-14
6.97716e-14
5.60711e-14
4.47026e-14
3.53547e-14
2.77377e-14
2.15868e-14
1.66644e-14
1.27603e-14
9.69155e-15
7.30086e-15
5.45498e-15
4.04239e-15
2.97098e-15
2.16554e-15
1.56542e-15
1.12222e-15
7.9781e-16
5.62453e-16
3.93214e-16
2.72595e-16
1.87389e-16
1.27732e-16
8.63357e-17
5.78667e-17
3.8466e-17
2.53695e-17
1.66194e-17
1.08453e-17
7.10238e-18
4.75279e-18
3.38141e-18
2.73877e-18
4.78004e-17
4.86705e-17
5.11469e-17
5.52774e-17
6.11553e-17
6.892e-17
7.876e-17
9.09159e-17
1.05685e-16
1.23429e-16
1.44578e-16
1.69642e-16
1.99221e-16
2.34012e-16
2.74829e-16
3.22614e-16
3.78455e-16
4.43605e-16
5.19507e-16
6.07814e-16
7.10422e-16
8.295e-16
9.6752e-16
1.1273e-15
1.31206e-15
1.52545e-15
1.77159e-15
2.0552e-15
2.38156e-15
2.75668e-15
3.18732e-15
3.68109e-15
4.24656e-15
4.89334e-15
5.6322e-15
6.47521e-15
7.43583e-15
8.5291e-15
9.77174e-15
1.11824e-14
1.27817e-14
1.45925e-14
1.66402e-14
1.89527e-14
2.15608e-14
2.44984e-14
2.78027e-14
3.15147e-14
3.56788e-14
4.0344e-14
4.55633e-14
5.13946e-14
5.79006e-14
6.51494e-14
7.32146e-14
8.21755e-14
9.21175e-14
1.03132e-13
1.15319e-13
1.28782e-13
1.43633e-13
1.59993e-13
1.77989e-13
1.97754e-13
2.19431e-13
2.43169e-13
2.69126e-13
2.97467e-13
3.28364e-13
3.61996e-13
3.9855e-13
4.38219e-13
4.81201e-13
5.27702e-13
5.77931e-13
6.32101e-13
6.90429e-13
7.53136e-13
8.20441e-13
8.92566e-13
9.6973e-13
1.05215e-12
1.14004e-12
1.23361e-12
1.33305e-12
1.43857e-12
1.55033e-12
1.6685e-12
1.79324e-12
1.92468e-12
2.06292e-12
2.20807e-12
2.36019e-12
2.51931e-12
2.68545e-12
2.85859e-12
3.03866e-12
3.22558e-12
3.41921e-12
3.61937e-12
3.82586e-12
4.0384e-12
4.25668e-12
4.48034e-12
4.70898e-12
4.94212e-12
5.17925e-12
5.41979e-12
5.66313e-12
5.90857e-12
6.15538e-12
6.40278e-12
6.64991e-12
6.89589e-12
7.13978e-12
7.38059e-12
7.61728e-12
7.8488e-12
8.07403e-12
8.29186e-12
8.50111e-12
8.70064e-12
8.88926e-12
9.06581e-12
9.2291e-12
9.378e-12
9.51138e-12
9.62818e-12
9.72735e-12
9.80794e-12
9.86905e-12
9.90988e-12
9.92971e-12
9.92796e-12
9.90413e-12
9.85788e-12
9.78901e-12
9.69746e-12
9.58334e-12
9.44692e-12
9.28862e-12
9.10906e-12
8.90903e-12
8.68948e-12
8.45153e-12
8.19646e-12
7.92571e-12
7.64086e-12
7.34362e-12
7.03581e-12
6.71934e-12
6.39619e-12
6.06843e-12
5.73811e-12
5.40733e-12
5.07815e-12
4.75259e-12
4.43263e-12
4.12014e-12
3.8169e-12
3.52458e-12
3.24467e-12
2.97855e-12
2.72741e-12
2.49227e-12
2.27399e-12
2.07321e-12
1.89043e-12
1.72593e-12
1.57985e-12
1.45212e-12
1.34254e-12
1.25072e-12
1.17614e-12
1.11813e-12
1.07589e-12
1.0485e-12
1.03491e-12
1.03396e-12
1.04442e-12
1.06494e-12
1.09411e-12
1.13044e-12
1.17242e-12
1.21846e-12
1.26698e-12
1.31639e-12
1.36515e-12
1.41172e-12
1.45468e-12
1.4927e-12
1.52454e-12
1.54917e-12
1.56568e-12
1.57338e-12
1.57179e-12
1.56065e-12
1.53989e-12
1.50971e-12
1.47049e-12
1.42281e-12
1.36745e-12
1.30531e-12
1.23743e-12
1.16493e-12
1.08898e-12
1.01077e-12
9.31482e-13
8.52231e-13
7.74065e-13
6.9793e-13
6.24651e-13
5.54925e-13
4.89306e-13
4.2821e-13
3.71915e-13
3.20571e-13
2.74206e-13
2.3275e-13
1.96038e-13
1.63839e-13
1.35863e-13
1.11784e-13
9.12503e-14
7.39018e-14
5.93781e-14
4.73297e-14
3.74253e-14
2.93568e-14
2.28428e-14
1.7631e-14
1.34983e-14
1.02505e-14
7.72076e-15
5.76789e-15
4.27369e-15
3.14056e-15
2.28887e-15
1.65436e-15
1.18585e-15
8.42954e-16
5.94218e-16
4.1538e-16
2.87934e-16
1.97916e-16
1.34896e-16
9.11706e-17
6.11025e-17
4.0614e-17
2.67843e-17
1.7545e-17
1.14486e-17
7.497e-18
5.01655e-18
3.56886e-18
2.89055e-18
8.513e-17
8.66753e-17
9.1079e-17
9.84256e-17
1.08881e-16
1.22692e-16
1.40194e-16
1.61813e-16
1.8808e-16
2.19633e-16
2.57239e-16
3.01802e-16
3.54385e-16
4.16228e-16
4.88773e-16
5.7369e-16
6.72907e-16
7.88648e-16
9.23465e-16
1.08029e-15
1.26247e-15
1.47385e-15
1.7188e-15
2.0023e-15
2.33004e-15
2.70844e-15
3.1448e-15
3.64741e-15
4.2256e-15
4.88993e-15
5.65229e-15
6.52604e-15
7.52621e-15
8.66966e-15
9.97526e-15
1.14641e-14
1.31597e-14
1.50882e-14
1.72789e-14
1.9764e-14
2.25795e-14
2.5765e-14
2.93642e-14
3.34255e-14
3.80019e-14
4.31518e-14
4.89388e-14
5.5433e-14
6.27104e-14
7.08541e-14
7.99542e-14
9.01087e-14
1.01423e-13
1.14012e-13
1.27999e-13
1.43515e-13
1.60704e-13
1.79716e-13
2.00714e-13
2.2387e-13
2.49368e-13
2.77401e-13
3.08174e-13
3.41902e-13
3.78813e-13
4.19142e-13
4.63138e-13
5.11057e-13
5.63166e-13
6.19739e-13
6.81061e-13
7.47422e-13
8.19118e-13
8.9645e-13
9.79723e-13
1.06924e-12
1.16532e-12
1.26825e-12
1.37835e-12
1.4959e-12
1.62119e-12
1.75451e-12
1.89611e-12
2.04625e-12
2.20514e-12
2.37301e-12
2.55003e-12
2.73636e-12
2.93212e-12
3.1374e-12
3.35226e-12
3.57671e-12
3.81071e-12
4.05419e-12
4.30703e-12
4.56903e-12
4.83996e-12
5.11954e-12
5.4074e-12
5.70314e-12
6.00626e-12
6.31623e-12
6.63244e-12
6.9542e-12
7.28076e-12
7.6113e-12
7.94495e-12
8.28075e-12
8.61768e-12
8.95465e-12
9.29053e-12
9.62411e-12
9.95414e-12
1.02793e-11
1.05982e-11
1.09096e-11
1.12119e-11
1.15036e-11
1.17835e-11
1.20498e-11
1.23012e-11
1.25362e-11
1.27533e-11
1.29511e-11
1.31282e-11
1.32833e-11
1.3415e-11
1.35223e-11
1.3604e-11
1.36591e-11
1.36867e-11
1.36862e-11
1.36569e-11
1.35984e-11
1.35105e-11
1.33929e-11
1.3246e-11
1.30699e-11
1.28651e-11
1.26325e-11
1.23728e-11
1.20872e-11
1.17771e-11
1.14439e-11
1.10894e-11
1.07156e-11
1.03243e-11
9.91795e-12
9.49877e-12
9.06923e-12
8.63185e-12
8.18922e-12
7.74395e-12
7.29865e-12
6.8559e-12
6.41825e-12
5.98814e-12
5.56792e-12
5.15979e-12
4.76582e-12
4.38788e-12
4.02766e-12
3.68666e-12
3.36613e-12
3.06712e-12
2.79047e-12
2.53677e-12
2.30638e-12
2.09948e-12
1.916e-12
1.7557e-12
1.61812e-12
1.50264e-12
1.40847e-12
1.33465e-12
1.2801e-12
1.24357e-12
1.22373e-12
1.21909e-12
1.2281e-12
1.24911e-12
1.28038e-12
1.32012e-12
1.3665e-12
1.41765e-12
1.47169e-12
1.52677e-12
1.58106e-12
1.63282e-12
1.68039e-12
1.72222e-12
1.75695e-12
1.78336e-12
1.80046e-12
1.80748e-12
1.80388e-12
1.78938e-12
1.76396e-12
1.72785e-12
1.68151e-12
1.62563e-12
1.56111e-12
1.489e-12
1.41049e-12
1.32687e-12
1.23947e-12
1.14966e-12
1.05876e-12
9.68052e-13
8.78708e-13
7.91796e-13
7.08243e-13
6.28825e-13
5.5416e-13
4.84706e-13
4.20765e-13
3.62495e-13
3.09917e-13
2.62937e-13
2.21364e-13
1.84924e-13
1.53283e-13
1.26065e-13
1.02868e-13
8.32792e-14
6.68881e-14
5.32972e-14
4.21297e-14
3.30362e-14
2.56977e-14
1.98286e-14
1.51764e-14
1.15216e-14
8.67586e-15
6.47975e-15
4.79996e-15
3.52647e-15
2.56954e-15
1.85683e-15
1.3307e-15
9.45738e-16
6.66548e-16
4.65858e-16
3.22869e-16
2.21893e-16
1.51216e-16
1.02185e-16
6.84749e-17
4.55082e-17
3.00082e-17
1.96544e-17
1.28235e-17
8.3964e-18
5.61774e-18
3.99614e-18
3.2364e-18
1.59675e-16
1.62567e-16
1.70817e-16
1.84582e-16
2.04171e-16
2.30048e-16
2.6284e-16
3.03345e-16
3.52553e-16
4.11663e-16
4.82106e-16
5.65574e-16
6.64054e-16
7.79867e-16
9.15706e-16
1.07469e-15
1.26043e-15
1.47707e-15
1.72939e-15
2.02284e-15
2.36369e-15
2.75909e-15
3.21719e-15
3.7473e-15
4.35996e-15
5.06718e-15
5.88252e-15
6.82137e-15
7.9011e-15
9.14128e-15
1.0564e-14
1.2194e-14
1.40591e-14
1.61905e-14
1.86231e-14
2.13959e-14
2.45521e-14
2.814e-14
3.22134e-14
3.68316e-14
4.20604e-14
4.79724e-14
5.46476e-14
6.21742e-14
7.06488e-14
8.01774e-14
9.08758e-14
1.0287e-13
1.16299e-13
1.3131e-13
1.48067e-13
1.66744e-13
1.87531e-13
2.10631e-13
2.36262e-13
2.64659e-13
2.96072e-13
3.30766e-13
3.69025e-13
4.1115e-13
4.57456e-13
5.08277e-13
5.63965e-13
6.24887e-13
6.91424e-13
7.63976e-13
8.42955e-13
9.28787e-13
1.02191e-12
1.12277e-12
1.23183e-12
1.34955e-12
1.47639e-12
1.61283e-12
1.75933e-12
1.91636e-12
2.08438e-12
2.26383e-12
2.45513e-12
2.65871e-12
2.87494e-12
3.1042e-12
3.3468e-12
3.60304e-12
3.87318e-12
4.15741e-12
4.45588e-12
4.7687e-12
5.09589e-12
5.43743e-12
5.79323e-12
6.1631e-12
6.54679e-12
6.94396e-12
7.35421e-12
7.77701e-12
8.21177e-12
8.65779e-12
9.11429e-12
9.58036e-12
1.0055e-11
1.05372e-11
1.10258e-11
1.15194e-11
1.20166e-11
1.25161e-11
1.30163e-11
1.35156e-11
1.40122e-11
1.45043e-11
1.49901e-11
1.54677e-11
1.59351e-11
1.63903e-11
1.68313e-11
1.7256e-11
1.76623e-11
1.80482e-11
1.84115e-11
1.87502e-11
1.90625e-11
1.93462e-11
1.95995e-11
1.98206e-11
2.00079e-11
2.01597e-11
2.02747e-11
2.03515e-11
2.0389e-11
2.03863e-11
2.03427e-11
2.02575e-11
2.01305e-11
1.99616e-11
1.9751e-11
1.94992e-11
1.92068e-11
1.88748e-11
1.85044e-11
1.80972e-11
1.76548e-11
1.71795e-11
1.66734e-11
1.6139e-11
1.55791e-11
1.49967e-11
1.43949e-11
1.37768e-11
1.3146e-11
1.25058e-11
1.18599e-11
1.12117e-11
1.05649e-11
9.92278e-12
9.28889e-12
8.66648e-12
8.05864e-12
7.46833e-12
6.89825e-12
6.35089e-12
5.82847e-12
5.33292e-12
4.86591e-12
4.42878e-12
4.02259e-12
3.64809e-12
3.30574e-12
2.99571e-12
2.7179e-12
2.47194e-12
2.25722e-12
2.07289e-12
1.91789e-12
1.79098e-12
1.69073e-12
1.61552e-12
1.56364e-12
1.5332e-12
1.52221e-12
1.52858e-12
1.55014e-12
1.58463e-12
1.62975e-12
1.68315e-12
1.74248e-12
1.8054e-12
1.86959e-12
1.93282e-12
1.99293e-12
2.0479e-12
2.09589e-12
2.13523e-12
2.16449e-12
2.18249e-12
2.18833e-12
2.18141e-12
2.16142e-12
2.12836e-12
2.08256e-12
2.02461e-12
1.95536e-12
1.87592e-12
1.78757e-12
1.69176e-12
1.59004e-12
1.48402e-12
1.37533e-12
1.26556e-12
1.15621e-12
1.04869e-12
9.44262e-13
8.44009e-13
7.48841e-13
6.59478e-13
5.76444e-13
5.00083e-13
4.30562e-13
3.67891e-13
3.11943e-13
2.62475e-13
2.19149e-13
1.81557e-13
1.49243e-13
1.21722e-13
9.84966e-14
7.90746e-14
6.298e-14
4.97628e-14
3.90058e-14
3.03295e-14
2.33937e-14
1.78986e-14
1.35835e-14
1.02251e-14
7.63439e-15
5.65354e-15
4.15236e-15
3.02474e-15
2.18518e-15
1.56561e-15
1.11241e-15
7.83835e-16
5.47708e-16
3.79515e-16
2.6077e-16
1.77675e-16
1.20043e-16
8.04272e-17
5.34428e-17
3.52347e-17
2.30741e-17
1.50524e-17
9.85438e-18
6.59227e-18
4.68874e-18
3.79698e-18
3.01479e-16
3.06931e-16
3.22492e-16
3.48457e-16
3.8541e-16
4.34226e-16
4.96084e-16
5.7249e-16
6.65309e-16
7.768e-16
9.09658e-16
1.06707e-15
1.25279e-15
1.47117e-15
1.7273e-15
2.02705e-15
2.37719e-15
2.78555e-15
3.26109e-15
3.8141e-15
4.45634e-15
5.20125e-15
6.06416e-15
7.06252e-15
8.21615e-15
9.54754e-15
1.10822e-14
1.28488e-14
1.48801e-14
1.72126e-14
1.98876e-14
2.29513e-14
2.64559e-14
3.04595e-14
3.5027e-14
4.0231e-14
4.61522e-14
5.28803e-14
6.05148e-14
6.91661e-14
7.89557e-14
9.0018e-14
1.02501e-13
1.16566e-13
1.32393e-13
1.50174e-13
1.70123e-13
1.92471e-13
2.17468e-13
2.45388e-13
2.76524e-13
3.11194e-13
3.4974e-13
3.92527e-13
4.39949e-13
4.92424e-13
5.50398e-13
6.14345e-13
6.84764e-13
7.62186e-13
8.47165e-13
9.40284e-13
1.04215e-12
1.1534e-12
1.27469e-12
1.4067e-12
1.55013e-12
1.70569e-12
1.87411e-12
2.05613e-12
2.2525e-12
2.46397e-12
2.69128e-12
2.93518e-12
3.19638e-12
3.4756e-12
3.77353e-12
4.0908e-12
4.42802e-12
4.78578e-12
5.16456e-12
5.56483e-12
5.98696e-12
6.43126e-12
6.89793e-12
7.3871e-12
7.89881e-12
8.43295e-12
8.98934e-12
9.56765e-12
1.01674e-11
1.07881e-11
1.14289e-11
1.20891e-11
1.27675e-11
1.34631e-11
1.41746e-11
1.49004e-11
1.5639e-11
1.63886e-11
1.71473e-11
1.79131e-11
1.86838e-11
1.94571e-11
2.02305e-11
2.10014e-11
2.17673e-11
2.25252e-11
2.32725e-11
2.40061e-11
2.4723e-11
2.54202e-11
2.60947e-11
2.67433e-11
2.7363e-11
2.79506e-11
2.85032e-11
2.90178e-11
2.94915e-11
2.99215e-11
3.03051e-11
3.06398e-11
3.09231e-11
3.1153e-11
3.13273e-11
3.14444e-11
3.15026e-11
3.15008e-11
3.14379e-11
3.13132e-11
3.11265e-11
3.08776e-11
3.05669e-11
3.0195e-11
2.9763e-11
2.92722e-11
2.87245e-11
2.81219e-11
2.7467e-11
2.67627e-11
2.6012e-11
2.52187e-11
2.43864e-11
2.35193e-11
2.26218e-11
2.16984e-11
2.07538e-11
1.97931e-11
1.88212e-11
1.7843e-11
1.68637e-11
1.58883e-11
1.49216e-11
1.39684e-11
1.30333e-11
1.21206e-11
1.12343e-11
1.03783e-11
9.55594e-12
8.77022e-12
8.02381e-12
7.31893e-12
6.65742e-12
6.04067e-12
5.46967e-12
4.94497e-12
4.46676e-12
4.03484e-12
3.64863e-12
3.30724e-12
3.00946e-12
2.7538e-12
2.5385e-12
2.36159e-12
2.22088e-12
2.11398e-12
2.03838e-12
1.9914e-12
1.97024e-12
1.97201e-12
1.99375e-12
2.0324e-12
2.0849e-12
2.14816e-12
2.21908e-12
2.29463e-12
2.37182e-12
2.44779e-12
2.51982e-12
2.58535e-12
2.64205e-12
2.68788e-12
2.72105e-12
2.74012e-12
2.74402e-12
2.73203e-12
2.70381e-12
2.65944e-12
2.59934e-12
2.52429e-12
2.43542e-12
2.3341e-12
2.22198e-12
2.10088e-12
1.97272e-12
1.83952e-12
1.7033e-12
1.566e-12
1.42951e-12
1.29554e-12
1.16561e-12
1.04107e-12
9.22999e-13
8.12271e-13
7.09507e-13
6.15105e-13
5.29249e-13
4.51928e-13
3.82966e-13
3.22044e-13
2.68731e-13
2.22511e-13
1.82811e-13
1.49022e-13
1.20528e-13
9.67147e-14
7.69938e-14
6.08083e-14
4.76431e-14
3.70301e-14
2.85505e-14
2.18356e-14
1.65653e-14
1.24652e-14
9.30372e-15
6.88747e-15
5.05705e-15
3.68264e-15
2.6597e-15
1.90506e-15
1.35324e-15
9.53287e-16
6.65951e-16
4.61341e-16
3.16923e-16
2.1589e-16
1.45833e-16
9.76877e-17
6.49004e-17
4.27812e-17
2.80114e-17
1.82704e-17
1.19592e-17
7.99908e-18
5.68851e-18
4.60613e-18
5.65841e-16
5.76062e-16
6.05243e-16
6.5394e-16
7.23248e-16
8.14803e-16
9.30817e-16
1.07411e-15
1.24819e-15
1.45727e-15
1.70642e-15
2.0016e-15
2.34984e-15
2.7593e-15
3.23951e-15
3.80145e-15
4.45783e-15
5.22326e-15
6.11453e-15
7.15089e-15
8.35434e-15
9.75002e-15
1.13666e-14
1.32366e-14
1.53971e-14
1.789e-14
2.0763e-14
2.40698e-14
2.78709e-14
3.22347e-14
3.7238e-14
4.29669e-14
4.95182e-14
5.69998e-14
6.55325e-14
7.52506e-14
8.63038e-14
9.88581e-14
1.13098e-13
1.29226e-13
1.47467e-13
1.68068e-13
1.91302e-13
2.17467e-13
2.46888e-13
2.79921e-13
3.16955e-13
3.58412e-13
4.04747e-13
4.56456e-13
5.14071e-13
5.78166e-13
6.49357e-13
7.28303e-13
8.15706e-13
9.12314e-13
1.01892e-12
1.13637e-12
1.26554e-12
1.40736e-12
1.5628e-12
1.73289e-12
1.91867e-12
2.12124e-12
2.34172e-12
2.58127e-12
2.84107e-12
3.12232e-12
3.42622e-12
3.754e-12
4.10687e-12
4.48604e-12
4.89268e-12
5.32796e-12
5.79299e-12
6.28884e-12
6.81649e-12
7.37688e-12
7.97084e-12
8.5991e-12
9.26228e-12
9.96088e-12
1.06952e-11
1.14656e-11
1.22719e-11
1.3114e-11
1.39917e-11
1.49044e-11
1.58513e-11
1.68314e-11
1.78436e-11
1.88865e-11
1.99584e-11
2.10573e-11
2.21813e-11
2.33278e-11
2.44943e-11
2.56778e-11
2.68754e-11
2.80837e-11
2.92992e-11
3.05182e-11
3.17368e-11
3.29508e-11
3.41561e-11
3.53483e-11
3.65228e-11
3.76751e-11
3.88005e-11
3.98943e-11
4.09517e-11
4.1968e-11
4.29385e-11
4.38584e-11
4.47233e-11
4.55286e-11
4.62701e-11
4.69434e-11
4.75448e-11
4.80704e-11
4.85168e-11
4.88808e-11
4.91595e-11
4.93504e-11
4.94513e-11
4.94605e-11
4.93766e-11
4.91988e-11
4.89265e-11
4.85599e-11
4.80994e-11
4.75462e-11
4.69016e-11
4.61679e-11
4.53476e-11
4.44438e-11
4.34602e-11
4.24008e-11
4.12704e-11
4.00738e-11
3.88167e-11
3.7505e-11
3.61448e-11
3.47428e-11
3.33057e-11
3.18407e-11
3.0355e-11
2.88558e-11
2.73504e-11
2.58463e-11
2.43505e-11
2.28702e-11
2.14121e-11
1.99827e-11
1.85883e-11
1.72345e-11
1.59267e-11
1.46696e-11
1.34675e-11
1.23241e-11
1.12426e-11
1.02253e-11
9.27426e-12
8.39075e-12
7.57551e-12
6.8287e-12
6.14995e-12
5.53839e-12
4.99266e-12
4.511e-12
4.09124e-12
3.73085e-12
3.42701e-12
3.17661e-12
2.97631e-12
2.82256e-12
2.71166e-12
2.63974e-12
2.60282e-12
2.59685e-12
2.61768e-12
2.66116e-12
2.72308e-12
2.79929e-12
2.88566e-12
2.97815e-12
3.07284e-12
3.16599e-12
3.25404e-12
3.33372e-12
3.40205e-12
3.4564e-12
3.49453e-12
3.51465e-12
3.51541e-12
3.49597e-12
3.45597e-12
3.39552e-12
3.31525e-12
3.2162e-12
3.09984e-12
2.96797e-12
2.82271e-12
2.66639e-12
2.50147e-12
2.33053e-12
2.15609e-12
1.98066e-12
1.80656e-12
1.63596e-12
1.47077e-12
1.31265e-12
1.16294e-12
1.02271e-12
8.92716e-13
7.73428e-13
6.65047e-13
5.67535e-13
4.80643e-13
4.03948e-13
3.36886e-13
2.78792e-13
2.28928e-13
1.86521e-13
1.50782e-13
1.20934e-13
9.62301e-14
7.5967e-14
5.94944e-14
4.62223e-14
3.56236e-14
2.72347e-14
2.06536e-14
1.55361e-14
1.15918e-14
8.57852e-15
6.29671e-15
4.58399e-15
3.30973e-15
2.37e-15
1.68306e-15
1.18533e-15
8.2785e-16
5.73365e-16
3.93792e-16
2.68197e-16
1.8113e-16
1.21309e-16
8.05787e-17
5.31069e-17
3.47665e-17
2.26728e-17
1.48385e-17
9.92337e-18
7.05591e-18
5.71278e-18
1.0523e-15
1.07129e-15
1.12552e-15
1.21603e-15
1.34485e-15
1.51502e-15
1.73064e-15
1.99698e-15
2.32051e-15
2.7091e-15
3.17214e-15
3.72072e-15
4.36786e-15
5.12876e-15
6.02107e-15
7.06521e-15
8.28475e-15
9.70682e-15
1.13626e-14
1.32877e-14
1.5523e-14
1.8115e-14
2.1117e-14
2.45892e-14
2.86002e-14
3.32279e-14
3.856e-14
4.46962e-14
5.17484e-14
5.98428e-14
6.91214e-14
7.97431e-14
9.18863e-14
1.0575e-13
1.21557e-13
1.39553e-13
1.60015e-13
1.83247e-13
2.09587e-13
2.39408e-13
2.7312e-13
3.11177e-13
3.54073e-13
4.02354e-13
4.56612e-13
5.17494e-13
5.85705e-13
6.62008e-13
7.47229e-13
8.42259e-13
9.48057e-13
1.06565e-12
1.19615e-12
1.34072e-12
1.50062e-12
1.67718e-12
1.87179e-12
2.08594e-12
2.32118e-12
2.57914e-12
2.8615e-12
3.17002e-12
3.50653e-12
3.87289e-12
4.27101e-12
4.70285e-12
5.17038e-12
5.6756e-12
6.2205e-12
6.80707e-12
7.43726e-12
8.11299e-12
8.83611e-12
9.60839e-12
1.04315e-11
1.1307e-11
1.22363e-11
1.32207e-11
1.42612e-11
1.53586e-11
1.65136e-11
1.77267e-11
1.89978e-11
2.03267e-11
2.17131e-11
2.31561e-11
2.46544e-11
2.62065e-11
2.78106e-11
2.94643e-11
3.1165e-11
3.29096e-11
3.46946e-11
3.65162e-11
3.83701e-11
4.02517e-11
4.21559e-11
4.40775e-11
4.60107e-11
4.79496e-11
4.98878e-11
5.18187e-11
5.37356e-11
5.56315e-11
5.74992e-11
5.93313e-11
6.11205e-11
6.28593e-11
6.45403e-11
6.6156e-11
6.7699e-11
6.91622e-11
7.05383e-11
7.18206e-11
7.30024e-11
7.40774e-11
7.50395e-11
7.58833e-11
7.66035e-11
7.71953e-11
7.76546e-11
7.79776e-11
7.81614e-11
7.82033e-11
7.81015e-11
7.78547e-11
7.74626e-11
7.69252e-11
7.62435e-11
7.54192e-11
7.44545e-11
7.33528e-11
7.21178e-11
7.07541e-11
6.92672e-11
6.76632e-11
6.59486e-11
6.41311e-11
6.22185e-11
6.02195e-11
5.81432e-11
5.59991e-11
5.37972e-11
5.15479e-11
4.92615e-11
4.69488e-11
4.46207e-11
4.22878e-11
3.99608e-11
3.76503e-11
3.53664e-11
3.3119e-11
3.09175e-11
2.87706e-11
2.66868e-11
2.46734e-11
2.27374e-11
2.08847e-11
1.91206e-11
1.74496e-11
1.58749e-11
1.43994e-11
1.30248e-11
1.17521e-11
1.05813e-11
9.51185e-12
8.54238e-12
7.67088e-12
6.89469e-12
6.21063e-12
5.61501e-12
5.10372e-12
4.67228e-12
4.31588e-12
4.02945e-12
3.80772e-12
3.64523e-12
3.53639e-12
3.47552e-12
3.45687e-12
3.47466e-12
3.5231e-12
3.59644e-12
3.68902e-12
3.79525e-12
3.90972e-12
4.02721e-12
4.14275e-12
4.25169e-12
4.34973e-12
4.43301e-12
4.49814e-12
4.54225e-12
4.56306e-12
4.5589e-12
4.52874e-12
4.47217e-12
4.38943e-12
4.28137e-12
4.14941e-12
3.9955e-12
3.822e-12
3.63168e-12
3.42755e-12
3.21282e-12
2.99077e-12
2.76468e-12
2.53773e-12
2.3129e-12
2.09292e-12
1.88023e-12
1.6769e-12
1.48463e-12
1.30475e-12
1.13817e-12
9.85462e-13
8.46853e-13
7.22257e-13
6.11325e-13
5.13492e-13
4.28013e-13
3.5402e-13
2.90555e-13
2.36616e-13
1.91188e-13
1.53271e-13
1.21908e-13
9.61969e-14
7.53067e-14
5.84839e-14
4.50564e-14
3.44336e-14
2.61036e-14
1.9629e-14
1.46408e-14
1.08315e-14
7.94802e-15
5.78446e-15
4.17532e-15
2.98902e-15
2.12212e-15
1.49418e-15
1.04331e-15
7.22432e-16
4.96067e-16
3.37783e-16
2.28082e-16
1.52726e-16
1.0143e-16
6.68378e-17
4.37484e-17
2.85258e-17
1.86662e-17
1.24813e-17
8.87341e-18
7.1836e-18
1.93751e-15
1.97245e-15
2.07225e-15
2.23881e-15
2.47589e-15
2.78907e-15
3.18591e-15
3.67608e-15
4.27151e-15
4.98666e-15
5.83882e-15
6.84839e-15
8.03932e-15
9.43957e-15
1.10816e-14
1.3003e-14
1.5247e-14
1.78635e-14
2.09099e-14
2.44516e-14
2.85638e-14
3.33319e-14
3.88534e-14
4.52393e-14
5.26154e-14
6.11243e-14
7.09274e-14
8.22069e-14
9.51681e-14
1.10042e-13
1.27089e-13
1.46599e-13
1.68899e-13
1.94352e-13
2.23364e-13
2.56387e-13
2.93921e-13
3.36522e-13
3.84804e-13
4.39445e-13
5.01192e-13
5.70864e-13
6.49359e-13
7.37661e-13
8.36842e-13
9.48069e-13
1.07261e-12
1.21183e-12
1.36722e-12
1.54037e-12
1.73299e-12
1.94692e-12
2.18411e-12
2.44665e-12
2.73675e-12
3.05676e-12
3.40912e-12
3.79643e-12
4.22139e-12
4.68682e-12
5.19564e-12
5.75088e-12
6.35563e-12
7.01307e-12
7.72643e-12
8.49899e-12
9.33401e-12
1.02348e-11
1.12046e-11
1.22466e-11
1.33639e-11
1.45595e-11
1.58362e-11
1.71968e-11
1.86436e-11
2.01788e-11
2.18043e-11
2.35217e-11
2.53322e-11
2.72365e-11
2.9235e-11
3.13276e-11
3.35135e-11
3.57917e-11
3.81603e-11
4.0617e-11
4.31588e-11
4.57821e-11
4.84827e-11
5.12556e-11
5.40954e-11
5.69958e-11
5.99499e-11
6.29504e-11
6.5989e-11
6.90572e-11
7.21457e-11
7.52448e-11
7.83442e-11
8.14335e-11
8.45016e-11
8.75371e-11
9.05286e-11
9.34643e-11
9.63323e-11
9.91206e-11
1.01817e-10
1.04411e-10
1.06889e-10
1.09241e-10
1.11455e-10
1.13521e-10
1.15428e-10
1.17167e-10
1.18727e-10
1.20102e-10
1.21282e-10
1.2226e-10
1.23031e-10
1.23589e-10
1.23929e-10
1.24048e-10
1.23942e-10
1.23611e-10
1.23054e-10
1.22271e-10
1.21264e-10
1.20036e-10
1.1859e-10
1.16931e-10
1.15066e-10
1.13001e-10
1.10744e-10
1.08305e-10
1.05693e-10
1.0292e-10
9.99973e-11
9.69377e-11
9.37548e-11
9.04625e-11
8.70756e-11
8.36092e-11
8.00789e-11
7.65004e-11
7.28897e-11
6.92628e-11
6.56355e-11
6.20236e-11
5.84424e-11
5.49067e-11
5.14309e-11
4.80284e-11
4.47121e-11
4.14938e-11
3.83843e-11
3.53934e-11
3.25297e-11
2.98006e-11
2.72123e-11
2.47697e-11
2.24765e-11
2.03351e-11
1.83466e-11
1.65112e-11
1.48277e-11
1.32942e-11
1.19074e-11
1.06634e-11
9.55754e-12
8.58434e-12
7.73775e-12
7.01121e-12
6.39775e-12
5.89e-12
5.48036e-12
5.16099e-12
4.92392e-12
4.76105e-12
4.66425e-12
4.62539e-12
4.63634e-12
4.68908e-12
4.77566e-12
4.88833e-12
5.01951e-12
5.16189e-12
5.30847e-12
5.45265e-12
5.58825e-12
5.70963e-12
5.81172e-12
5.89011e-12
5.94112e-12
5.96182e-12
5.9501e-12
5.90469e-12
5.82516e-12
5.71188e-12
5.56606e-12
5.38959e-12
5.18506e-12
4.95563e-12
4.70489e-12
4.43679e-12
4.1555e-12
3.86529e-12
3.57039e-12
3.27487e-12
2.98258e-12
2.69702e-12
2.42129e-12
2.15801e-12
1.90935e-12
1.67695e-12
1.46196e-12
1.26506e-12
1.0865e-12
9.26126e-13
7.83457e-13
6.5773e-13
5.47962e-13
4.53008e-13
3.71619e-13
3.02491e-13
2.44306e-13
1.9577e-13
1.55645e-13
1.22769e-13
9.60707e-14
7.45812e-14
5.7437e-14
4.38798e-14
3.32534e-14
2.49973e-14
1.8639e-14
1.37853e-14
1.01125e-14
7.35773e-15
5.30952e-15
3.8e-15
2.69724e-15
1.89867e-15
1.32545e-15
9.176e-16
6.29953e-16
4.28866e-16
2.8953e-16
1.93838e-16
1.28711e-16
8.48018e-17
5.54981e-17
3.61816e-17
2.36724e-17
1.58263e-17
1.125e-17
9.10675e-18
3.53121e-15
3.59485e-15
3.77667e-15
4.08015e-15
4.51211e-15
5.08274e-15
5.80582e-15
6.69893e-15
7.78386e-15
9.08694e-15
1.06396e-14
1.24792e-14
1.46492e-14
1.72005e-14
2.01924e-14
2.36931e-14
2.77817e-14
3.25489e-14
3.8099e-14
4.45513e-14
5.20424e-14
6.07281e-14
7.07856e-14
8.24166e-14
9.585e-14
1.11345e-13
1.29195e-13
1.49731e-13
1.73325e-13
2.00397e-13
2.31419e-13
2.66918e-13
3.07483e-13
3.53775e-13
4.06527e-13
4.66555e-13
5.34766e-13
6.12161e-13
6.99849e-13
7.9905e-13
9.11109e-13
1.0375e-12
1.17983e-12
1.33988e-12
1.51955e-12
1.72093e-12
1.94629e-12
2.19807e-12
2.47891e-12
2.79163e-12
3.13927e-12
3.52508e-12
3.9525e-12
4.4252e-12
4.94706e-12
5.52216e-12
6.15479e-12
6.84944e-12
7.61079e-12
8.44369e-12
9.35314e-12
1.03443e-11
1.14224e-11
1.25928e-11
1.3861e-11
1.52322e-11
1.6712e-11
1.83057e-11
2.00186e-11
2.18556e-11
2.38216e-11
2.59213e-11
2.8159e-11
3.05384e-11
3.3063e-11
3.57357e-11
3.85589e-11
4.15341e-11
4.46624e-11
4.79439e-11
5.1378e-11
5.49631e-11
5.86969e-11
6.25758e-11
6.65953e-11
7.07501e-11
7.50334e-11
7.94377e-11
8.39541e-11
8.85728e-11
9.32829e-11
9.80724e-11
1.02928e-10
1.07837e-10
1.12783e-10
1.1775e-10
1.22723e-10
1.27684e-10
1.32615e-10
1.37499e-10
1.42315e-10
1.47045e-10
1.5167e-10
1.56171e-10
1.60527e-10
1.64721e-10
1.68734e-10
1.72546e-10
1.76141e-10
1.795e-10
1.82609e-10
1.8545e-10
1.8801e-10
1.90275e-10
1.92233e-10
1.93873e-10
1.95185e-10
1.9616e-10
1.96793e-10
1.97077e-10
1.9701e-10
1.96588e-10
1.95811e-10
1.94681e-10
1.932e-10
1.91373e-10
1.89205e-10
1.86705e-10
1.83882e-10
1.80747e-10
1.77311e-10
1.7359e-10
1.69598e-10
1.65352e-10
1.6087e-10
1.56172e-10
1.51276e-10
1.46205e-10
1.4098e-10
1.35623e-10
1.30159e-10
1.2461e-10
1.19e-10
1.13353e-10
1.07693e-10
1.02043e-10
9.6426e-11
9.08651e-11
8.53818e-11
7.99966e-11
7.47293e-11
6.95983e-11
6.46206e-11
5.98118e-11
5.51858e-11
5.07548e-11
4.65293e-11
4.25181e-11
3.8728e-11
3.51641e-11
3.18296e-11
2.8726e-11
2.58531e-11
2.32092e-11
2.07909e-11
1.85936e-11
1.66112e-11
1.48368e-11
1.32622e-11
1.18784e-11
1.06758e-11
9.64419e-12
8.7727e-12
8.05025e-12
7.46549e-12
7.00685e-12
6.6627e-12
6.4214e-12
6.27131e-12
6.20091e-12
6.19883e-12
6.25386e-12
6.35508e-12
6.49181e-12
6.65377e-12
6.83105e-12
7.01426e-12
7.19456e-12
7.36374e-12
7.51436e-12
7.63974e-12
7.73414e-12
7.79278e-12
7.81189e-12
7.7888e-12
7.72194e-12
7.61083e-12
7.45608e-12
7.25933e-12
7.02316e-12
6.75101e-12
6.44703e-12
6.11598e-12
5.76302e-12
5.39359e-12
5.01323e-12
4.62743e-12
4.24146e-12
3.86028e-12
3.48838e-12
3.12972e-12
2.78766e-12
2.46494e-12
2.16363e-12
1.88516e-12
1.63034e-12
1.39946e-12
1.19226e-12
1.00808e-12
8.45879e-13
7.04369e-13
5.82039e-13
4.77251e-13
3.88302e-13
3.13476e-13
2.51095e-13
1.99551e-13
1.5734e-13
1.23078e-13
9.55129e-14
7.35315e-14
5.61566e-14
4.25433e-14
3.19708e-14
2.38316e-14
1.76207e-14
1.29225e-14
9.39971e-15
6.78134e-15
4.85219e-15
3.44327e-15
2.42328e-15
1.69132e-15
1.17065e-15
8.03519e-16
5.46926e-16
3.69167e-16
2.47112e-16
1.6406e-16
1.08075e-16
7.07183e-17
4.60977e-17
3.01558e-17
2.0158e-17
1.43272e-17
1.15967e-17
6.3704e-15
6.48516e-15
6.81313e-15
7.36054e-15
8.13969e-15
9.16901e-15
1.04733e-14
1.20844e-14
1.40415e-14
1.63922e-14
1.91933e-14
2.25118e-14
2.64265e-14
3.10293e-14
3.64267e-14
4.27423e-14
5.01183e-14
5.87186e-14
6.87311e-14
8.03712e-14
9.38848e-14
1.09553e-13
1.27695e-13
1.48674e-13
1.72903e-13
2.00848e-13
2.33038e-13
2.70068e-13
3.12608e-13
3.61414e-13
4.17331e-13
4.81309e-13
5.54407e-13
6.37807e-13
7.32827e-13
8.40929e-13
9.63735e-13
1.10304e-12
1.26083e-12
1.43927e-12
1.64078e-12
1.86797e-12
2.12373e-12
2.41118e-12
2.73374e-12
3.09511e-12
3.49928e-12
3.9506e-12
4.45369e-12
5.01356e-12
5.63553e-12
6.32529e-12
7.08888e-12
7.9327e-12
8.86348e-12
9.88832e-12
1.10146e-11
1.22502e-11
1.36029e-11
1.50812e-11
1.66935e-11
1.84485e-11
2.03551e-11
2.24222e-11
2.46587e-11
2.70737e-11
2.96758e-11
3.24737e-11
3.54758e-11
3.86899e-11
4.21236e-11
4.57837e-11
4.96765e-11
5.38074e-11
5.81809e-11
6.28005e-11
6.76688e-11
7.27867e-11
7.81541e-11
8.37695e-11
8.96297e-11
9.573e-11
1.02064e-10
1.08624e-10
1.15399e-10
1.22378e-10
1.29548e-10
1.36892e-10
1.44395e-10
1.52036e-10
1.59795e-10
1.67651e-10
1.75578e-10
1.83551e-10
1.91544e-10
1.99528e-10
2.07476e-10
2.15356e-10
2.23138e-10
2.30792e-10
2.38285e-10
2.45587e-10
2.52665e-10
2.59489e-10
2.66028e-10
2.72253e-10
2.78133e-10
2.83642e-10
2.88753e-10
2.93441e-10
2.97683e-10
3.01456e-10
3.04742e-10
3.07522e-10
3.09783e-10
3.1151e-10
3.12693e-10
3.13324e-10
3.13398e-10
3.12911e-10
3.11864e-10
3.10258e-10
3.08099e-10
3.05393e-10
3.02151e-10
2.98385e-10
2.94109e-10
2.89342e-10
2.84103e-10
2.78412e-10
2.72295e-10
2.65776e-10
2.58884e-10
2.51647e-10
2.44095e-10
2.36262e-10
2.28179e-10
2.19882e-10
2.11404e-10
2.02782e-10
1.94051e-10
1.85246e-10
1.76404e-10
1.6756e-10
1.58749e-10
1.50004e-10
1.41359e-10
1.32846e-10