/*--------------------------------*- C++ -*----------------------------------*\
| =========                 |                                                 |
| \\      /  F ield         | OpenFOAM: The Open Source CFD Toolbox           |
|  \\    /   O peration     | Version:  v2012                                 |
|   \\  /    A nd           | Website:  www.openfoam.com                      |
|    \\/     M anipulation  |                                                 |
\*---------------------------------------------------------------------------*/
FoamFile
{
    version     2.0;
    format      ascii;
    class       volVectorField;
    location    "0";
    object      U;
}
// * * * * * * * * * * * * * * * * * * * * * * * * * * * * * * * * * * * * * //

dimensions      [0 1 -1 0 0 0 0];


internalField   nonuniform List<vector> 
4000
(
(1 2.58554e-15 0)
(1 4.14008e-16 0)
(1 -3.4037e-15 0)
(1 -3.77923e-15 0)
(1 2.20261e-15 0)
(1 6.95799e-15 0)
(1 5.35889e-15 0)
(1 -3.8373e-16 0)
(1 -3.9914e-15 0)
(1 -2.54774e-15 0)
(1 -5.35896e-15 0)
(1 -1.44938e-15 0)
(1 4.47442e-15 0)
(1 2.91878e-15 0)
(1 3.78941e-15 0)
(1 -3.4208e-15 0)
(1 4.06729e-15 0)
(1 -6.61522e-15 0)
(1 2.72448e-15 0)
(1 -3.85853e-15 0)
(1 -3.17985e-15 0)
(1 -7.82206e-15 0)
(1 -2.43591e-15 0)
(1 -2.10154e-15 0)
(1 8.35909e-16 0)
(1 -1.05409e-15 0)
(1 1.22316e-15 0)
(1 1.1431e-15 0)
(1 -5.53513e-15 0)
(1 4.48943e-15 0)
(1 5.44884e-15 0)
(1 7.72738e-15 0)
(1 -3.32365e-15 0)
(1 4.27016e-15 0)
(1 8.78398e-15 0)
(1 5.33353e-15 0)
(1 3.62726e-15 0)
(1 5.07006e-15 0)
(1 -1.66962e-15 0)
(1 -5.44448e-15 0)
(1 -3.75931e-15 0)
(1 -1.4418e-15 0)
(1 -1.8011e-15 0)
(1 3.17081e-15 0)
(1 -1.30707e-15 0)
(1 -5.51842e-16 0)
(1 -4.56238e-15 0)
(1 1.73793e-15 0)
(1 3.91014e-16 0)
(1 -9.57501e-16 0)
(1 2.47587e-15 0)
(1 4.27496e-15 0)
(1 1.07029e-15 0)
(1 2.4389e-15 0)
(1 3.36241e-15 0)
(1 -1.28816e-15 0)
(1 -4.33474e-15 0)
(1 -5.51314e-16 0)
(1 -1.20387e-15 0)
(1 4.71117e-15 0)
(1 1.84914e-15 0)
(1 3.8334e-15 0)
(1 8.10842e-16 0)
(1 -4.95255e-15 0)
(1 -2.3827e-15 0)
(1 -2.74329e-15 0)
(1 -4.4158e-17 0)
(1 7.16261e-16 0)
(1 -9.19655e-17 0)
(1 1.14955e-15 0)
(1 -4.11969e-15 0)
(1 1.12121e-15 0)
(1 3.56022e-15 0)
(1 -8.41575e-16 0)
(1 -4.90507e-15 0)
(1 -6.37427e-15 0)
(1 -2.82896e-15 0)
(1 1.27258e-16 0)
(1 1.17798e-15 0)
(1 4.53462e-15 0)
(1 -1.55304e-15 0)
(1 -1.4648e-15 0)
(1 -6.59654e-17 0)
(1 -2.0523e-15 0)
(1 -2.32302e-15 0)
(1 7.61965e-16 0)
(1 7.45055e-16 0)
(1 3.36006e-15 0)
(1 -2.36351e-17 0)
(1 6.05286e-15 0)
(1 1.68466e-15 0)
(1 2.54689e-15 0)
(1 -2.8042e-15 0)
(1 -1.32315e-15 0)
(1 -2.15475e-15 0)
(1 3.68954e-16 0)
(1 -1.09851e-15 0)
(1 -2.94705e-16 0)
(1 -4.25706e-16 0)
(1 -2.12958e-15 0)
(1 3.64464e-15 0)
(1 1.1033e-15 0)
(1 2.30281e-15 0)
(1 -1.4297e-15 0)
(1 3.70158e-15 0)
(1 2.22723e-16 0)
(1 6.62207e-15 0)
(1 -6.21051e-15 0)
(1 -4.2857e-15 0)
(1 -1.14505e-15 0)
(1 -3.73515e-15 0)
(1 9.46893e-16 0)
(1 1.15382e-14 0)
(1 7.92796e-15 0)
(1 2.96474e-16 0)
(1 -5.74456e-15 0)
(1 4.23625e-18 0)
(1 -7.16941e-15 0)
(1 2.23493e-15 0)
(1 -9.7486e-15 0)
(1 3.30667e-15 0)
(1 -1.34587e-15 0)
(1 -6.77412e-15 0)
(1 -6.23818e-15 0)
(1 -4.40861e-15 0)
(1 -1.74735e-15 0)
(1 -1.89571e-17 0)
(1 3.67814e-15 0)
(1 -5.17146e-15 0)
(1 1.61091e-15 0)
(1 7.501e-15 0)
(1 8.894e-15 0)
(1 -3.56988e-15 0)
(1 5.38315e-15 0)
(1 4.93742e-15 0)
(1 5.05519e-15 0)
(1 -7.03614e-16 0)
(1 5.4699e-15 0)
(1 -4.89542e-15 0)
(1 -5.72555e-15 0)
(1 -7.06955e-15 0)
(1 -1.75925e-15 0)
(1 -2.35994e-15 0)
(1 2.15219e-15 0)
(1 -4.95397e-15 0)
(1 -5.67762e-15 0)
(1 -4.94754e-15 0)
(1 2.2058e-15 0)
(1 1.92668e-15 0)
(1 5.63758e-16 0)
(1 1.80976e-15 0)
(1 3.51804e-15 0)
(1 -2.03787e-15 0)
(1 2.34846e-15 0)
(1 4.44686e-15 0)
(1 -1.80298e-16 0)
(1 -5.5015e-15 0)
(1 -2.7824e-16 0)
(1 -5.18952e-15 0)
(1 -2.735e-15 0)
(1 2.02414e-15 0)
(1 5.51252e-15 0)
(1 1.50003e-15 0)
(1 2.11264e-15 0)
(1 1.24278e-15 0)
(1 -1.63975e-15 0)
(1 -3.7196e-16 0)
(1 1.20246e-16 0)
(1 -9.47375e-16 0)
(1 -1.65817e-15 0)
(1 -5.65238e-15 0)
(1 4.26302e-15 0)
(1 7.71442e-15 0)
(1 1.10696e-15 0)
(1 -9.64073e-16 0)
(1 -3.3361e-15 0)
(1 -3.07964e-15 0)
(1 4.56359e-15 0)
(1 2.94443e-15 0)
(1 9.02341e-15 0)
(1 1.29613e-15 0)
(1 -6.46224e-15 0)
(1 3.078e-15 0)
(1 -4.61089e-16 0)
(1 -1.71313e-15 0)
(1 2.82408e-15 0)
(1 -2.63711e-15 0)
(1 5.34925e-16 0)
(1 -6.39319e-15 0)
(1 3.75879e-15 0)
(1 -4.69719e-16 0)
(1 -6.43274e-16 0)
(1 -2.37854e-15 0)
(1 2.43397e-15 0)
(1 -4.52124e-15 0)
(1 6.29348e-16 0)
(1 -2.01872e-16 0)
(1 1.97092e-16 0)
(1 3.84733e-17 0)
(1 -1.00802e-15 0)
(1 9.97824e-17 0)
(1 2.89195e-15 0)
(1 -2.42795e-15 0)
(1 9.25137e-16 0)
(1 -3.47421e-15 0)
(1 -2.78646e-15 0)
(1 5.52509e-16 0)
(1 3.18103e-15 0)
(1 -6.75646e-16 0)
(1 1.04611e-15 0)
(1 -2.30477e-15 0)
(1 4.46505e-15 0)
(1 8.51677e-15 0)
(1 9.2103e-15 0)
(1 -9.39605e-16 0)
(1 -3.43366e-15 0)
(1 -9.35063e-15 0)
(1 4.81305e-16 0)
(1 -3.04325e-15 0)
(1 -1.30625e-16 0)
(1 7.36672e-15 0)
(1 8.74158e-15 0)
(1 -2.90925e-15 0)
(1 -5.06549e-15 0)
(1 -3.321e-17 0)
(1 7.80332e-16 0)
(1 4.72657e-15 0)
(1 4.23407e-15 0)
(1 2.63095e-16 0)
(1 -3.10333e-16 0)
(1 2.40919e-15 0)
(1 -1.79622e-16 0)
(1 2.38903e-15 0)
(1 4.83445e-15 0)
(1 2.80497e-15 0)
(1 8.13329e-15 0)
(1 4.30052e-15 0)
(1 8.24174e-15 0)
(1 -1.4101e-15 0)
(1 -2.19575e-15 0)
(1 -6.36333e-15 0)
(1 -1.88704e-15 0)
(1 -7.32323e-15 0)
(1 -5.50716e-15 0)
(1 -6.28263e-15 0)
(1 -1.42507e-15 0)
(1 3.14754e-15 0)
(1 -4.59211e-15 0)
(1 -6.64332e-15 0)
(1 1.06102e-15 0)
(1 3.12311e-15 0)
(1 3.44515e-15 0)
(1 5.79242e-15 0)
(1 3.79532e-15 0)
(1 3.36277e-15 0)
(1 4.23063e-15 0)
(1 6.25196e-16 0)
(1 -1.83115e-15 0)
(1 -5.00282e-15 0)
(1 -6.83013e-15 0)
(1 -3.07759e-15 0)
(1 -3.47176e-16 0)
(1 5.34755e-16 0)
(1 4.18064e-15 0)
(1 3.29788e-17 0)
(1 1.60548e-15 0)
(1 -4.66793e-16 0)
(1 3.70575e-16 0)
(1 3.69153e-16 0)
(1 -2.42423e-15 0)
(1 1.3932e-16 0)
(1 1.82461e-15 0)
(1 -1.19418e-17 0)
(1 6.27474e-16 0)
(1 -1.72364e-15 0)
(1 -1.41468e-15 0)
(1 1.00621e-15 0)
(1 -4.52649e-15 0)
(1 2.40777e-15 0)
(1 -1.41149e-15 0)
(1 3.89536e-15 0)
(1 -6.31686e-15 0)
(1 -4.47852e-15 0)
(1 3.08817e-15 0)
(1 1.24282e-15 0)
(1 2.60161e-15 0)
(1 -8.79335e-16 0)
(1 1.00309e-15 0)
(1 -3.24187e-15 0)
(1 1.53423e-15 0)
(1 -3.91302e-16 0)
(1 -1.71406e-15 0)
(1 -8.27621e-16 0)
(1 2.62374e-15 0)
(1 1.97035e-16 0)
(1 -1.65492e-15 0)
(1 -1.17711e-15 0)
(1 -3.76251e-15 0)
(1 -1.2708e-15 0)
(1 1.1721e-16 0)
(1 3.34844e-15 0)
(1 -4.80608e-15 0)
(1 -2.94783e-15 0)
(1 -4.64583e-15 0)
(1 -5.20828e-16 0)
(1 1.4586e-15 0)
(1 5.83042e-15 0)
(1 1.11367e-14 0)
(1 -8.55512e-17 0)
(1 -5.89989e-16 0)
(1 -2.81367e-15 0)
(1 4.6059e-15 0)
(1 5.34688e-15 0)
(1 -8.21863e-16 0)
(1 1.76055e-15 0)
(1 -3.26161e-16 0)
(1 -4.49342e-15 0)
(1 3.29774e-16 0)
(1 -5.03763e-15 0)
(1 3.47212e-15 0)
(1 3.12202e-15 0)
(1 4.19876e-15 0)
(1 4.49265e-15 0)
(1 3.56835e-15 0)
(1 7.75599e-15 0)
(1 3.54915e-15 0)
(1 3.24189e-15 0)
(1 2.71908e-17 0)
(1 1.04167e-15 0)
(1 2.13065e-15 0)
(1 1.97784e-15 0)
(1 -2.056e-15 0)
(1 4.20371e-17 0)
(1 -1.9061e-15 0)
(1 4.57714e-15 0)
(1 8.28441e-15 0)
(1 3.20593e-15 0)
(1 1.81547e-15 0)
(1 5.12858e-15 0)
(1 1.57498e-15 0)
(1 3.84469e-15 0)
(1 -1.80651e-17 0)
(1 -7.88017e-15 0)
(1 -8.87166e-15 0)
(1 -2.15939e-15 0)
(1 2.83321e-15 0)
(1 2.39173e-15 0)
(1 -2.25423e-15 0)
(1 -9.25899e-17 0)
(1 -1.30267e-15 0)
(1 5.69592e-15 0)
(1 2.33429e-15 0)
(1 2.37614e-15 0)
(1 3.20365e-16 0)
(1 -2.16896e-15 0)
(1 3.76248e-16 0)
(1 -3.15285e-16 0)
(1 -5.29469e-15 0)
(1 -5.60265e-15 0)
(1 -3.98384e-16 0)
(1 -7.38711e-16 0)
(1 8.93134e-16 0)
(1 3.81919e-16 0)
(1 2.08461e-15 0)
(1 -3.34127e-15 0)
(1 -1.38275e-15 0)
(1 -3.90968e-15 0)
(1 -2.93981e-15 0)
(1 8.37245e-16 0)
(1 -7.58031e-16 0)
(1 1.10726e-15 0)
(1 -3.04686e-15 0)
(1 -3.00013e-15 0)
(1 -3.90877e-15 0)
(1 -2.34627e-15 0)
(1 1.73347e-15 0)
(1 -1.73622e-16 0)
(1 -9.36824e-16 0)
(1 2.9129e-15 0)
(1 3.91707e-15 0)
(1 1.28078e-15 0)
(1 2.84792e-15 0)
(1 -5.30881e-15 0)
(1 -1.09161e-15 0)
(1 3.62201e-15 0)
(1 5.99376e-15 0)
(1 5.62783e-15 0)
(1 -4.46894e-17 0)
(1 3.93171e-15 0)
(1 -4.88843e-16 0)
(1 2.41178e-15 0)
(1 1.16925e-15 0)
(1 1.64267e-15 0)
(1 1.74978e-15 0)
(1 -1.72806e-15 0)
(1 -5.72721e-15 0)
(1 -6.45391e-15 0)
(1 -6.10593e-15 0)
(1 -2.4767e-15 0)
(1 -3.15998e-15 0)
(1 3.93823e-15 0)
(1 -3.41673e-15 0)
(1 -1.61514e-15 0)
(1 1.13981e-15 0)
(1 4.72809e-15 0)
(1 -1.22671e-15 0)
(1 -1.16461e-15 0)
(1 -6.77642e-15 0)
(1 -1.8985e-15 0)
(1 -2.45374e-15 0)
(1 4.14661e-15 0)
(1 1.50351e-16 0)
(1 4.35166e-15 0)
(1 -1.99405e-15 0)
(1 1.78874e-15 0)
(1 3.62269e-15 0)
(1 5.53699e-15 0)
(1 -4.21555e-15 0)
(1 -2.02157e-15 0)
(1 -7.6391e-15 0)
(1 1.74447e-15 0)
(1 -4.4434e-15 0)
(1 7.5536e-15 0)
(1 1.29102e-14 0)
(1 1.08113e-14 0)
(1 6.96949e-15 0)
(1 4.8291e-15 0)
(1 -7.62376e-16 0)
(1 6.48627e-15 0)
(1 6.41744e-16 0)
(1 2.2805e-15 0)
(1 4.06545e-16 0)
(1 2.51645e-16 0)
(1 7.4756e-15 0)
(1 2.69813e-15 0)
(1 -2.75108e-15 0)
(1 -4.43037e-15 0)
(1 -8.02411e-15 0)
(1 6.95465e-15 0)
(1 8.4307e-15 0)
(1 4.33243e-15 0)
(1 -3.95641e-15 0)
(1 -1.0683e-14 0)
(1 -8.66815e-15 0)
(1 -7.60202e-15 0)
(1 -3.45286e-15 0)
(1 -4.0422e-15 0)
(1 7.86355e-16 0)
(1 6.4225e-15 0)
(1 5.86956e-15 0)
(1 6.3558e-15 0)
(1 3.44932e-16 0)
(1 2.09066e-15 0)
(1 7.97024e-16 0)
(1 1.38047e-15 0)
(1 7.03238e-17 0)
(1 2.69264e-15 0)
(1 1.36657e-15 0)
(1 1.55305e-15 0)
(1 -2.79443e-15 0)
(1 2.48771e-15 0)
(1 -3.34804e-15 0)
(1 7.12009e-16 0)
(1 -6.57111e-16 0)
(1 1.83686e-16 0)
(1 -7.46084e-16 0)
(1 -7.78198e-16 0)
(1 -3.88009e-15 0)
(1 2.98943e-15 0)
(1 9.0775e-16 0)
(1 2.48793e-15 0)
(1 2.38384e-15 0)
(1 1.62267e-15 0)
(1 -4.51515e-15 0)
(1 -5.55654e-16 0)
(1 4.36628e-15 0)
(1 -3.42147e-15 0)
(1 2.74215e-15 0)
(1 3.10967e-15 0)
(1 1.20414e-14 0)
(1 -1.90121e-15 0)
(1 -6.21972e-16 0)
(1 1.00445e-15 0)
(1 -3.75504e-16 0)
(1 5.29359e-15 0)
(1 3.04699e-15 0)
(1 3.53838e-16 0)
(1 6.6291e-17 0)
(1 2.19662e-15 0)
(1 -3.05382e-15 0)
(1 4.0844e-15 0)
(1 5.61016e-16 0)
(1 4.02162e-15 0)
(1 2.86829e-15 0)
(1 -2.25843e-16 0)
(1 -2.00782e-15 0)
(1 -1.04717e-14 0)
(1 -4.11053e-15 0)
(1 -2.22475e-15 0)
(1 -2.52073e-15 0)
(1 -2.87603e-15 0)
(1 -1.55287e-16 0)
(1 2.08511e-15 0)
(1 6.30745e-15 0)
(1 -4.96454e-15 0)
(1 3.87238e-16 0)
(1 -9.74529e-15 0)
(1 -9.14618e-15 0)
(1 1.93899e-15 0)
(1 1.64607e-15 0)
(1 3.89857e-15 0)
(1 7.1925e-15 0)
(1 -9.92861e-16 0)
(1 2.57263e-16 0)
(1 3.28722e-15 0)
(1 4.01204e-16 0)
(1 4.69487e-15 0)
(1 -3.2167e-15 0)
(1 4.06608e-15 0)
(1 -2.45852e-15 0)
(1 7.70888e-15 0)
(1 5.20271e-15 0)
(1 7.68069e-15 0)
(1 4.75693e-15 0)
(1 5.80617e-15 0)
(1 1.96469e-15 0)
(1 9.54308e-17 0)
(1 2.71908e-16 0)
(1 -1.72116e-15 0)
(1 2.76443e-15 0)
(1 -3.17253e-16 0)
(1 -1.17471e-15 0)
(1 2.02144e-15 0)
(1 1.33423e-14 0)
(1 6.22636e-15 0)
(1 1.30349e-15 0)
(1 1.38442e-14 0)
(1 3.88547e-15 0)
(1 -2.67177e-15 0)
(1 -7.96491e-15 0)
(1 9.59217e-16 0)
(1 -3.94668e-15 0)
(1 -1.69105e-15 0)
(1 -1.46257e-15 0)
(1 -4.74523e-16 0)
(1 -6.0458e-16 0)
(1 3.05635e-17 0)
(1 -4.0711e-15 0)
(1 -6.51217e-15 0)
(1 3.13989e-15 0)
(1 3.41533e-15 0)
(1 1.67393e-15 0)
(1 5.06276e-16 0)
(1 1.65024e-15 0)
(1 5.24141e-16 0)
(1 4.30339e-15 0)
(1 4.82157e-15 0)
(1 3.56286e-15 0)
(1 1.03705e-14 0)
(1 8.02519e-16 0)
(1 6.11618e-16 0)
(1 -1.96625e-15 0)
(1 -2.04733e-15 0)
(1 -7.48978e-15 0)
(1 -2.50714e-15 0)
(1 7.57636e-16 0)
(1 2.51417e-15 0)
(1 6.34402e-15 0)
(1 1.13548e-14 0)
(1 1.44805e-14 0)
(1 9.4695e-15 0)
(1 6.74155e-15 0)
(1 3.11883e-15 0)
(1 -7.23692e-17 0)
(1 -6.45121e-15 0)
(1 -5.50514e-15 0)
(1 -2.69447e-15 0)
(1 -3.72541e-15 0)
(1 -1.58727e-15 0)
(1 9.25482e-15 0)
(1 5.32143e-15 0)
(1 3.6825e-15 0)
(1 2.54031e-15 0)
(1 8.35587e-16 0)
(1 -2.24283e-17 0)
(1 -2.5294e-15 0)
(1 -3.00611e-15 0)
(1 1.0406e-16 0)
(1 -5.67938e-16 0)
(1 -6.57368e-16 0)
(1 2.40745e-15 0)
(1 1.68908e-15 0)
(1 2.46222e-15 0)
(1 2.91442e-15 0)
(1 6.85799e-15 0)
(1 2.33082e-15 0)
(1 -5.69578e-16 0)
(1 -1.86317e-15 0)
(1 1.63136e-15 0)
(1 2.99272e-15 0)
(1 -2.22857e-15 0)
(1 -5.06654e-15 0)
(1 9.96546e-15 0)
(1 2.02972e-15 0)
(1 -4.02301e-15 0)
(1 5.42698e-16 0)
(1 -2.21106e-15 0)
(1 -1.64651e-16 0)
(1 3.56653e-15 0)
(1 -8.75019e-16 0)
(1 -2.68911e-16 0)
(1 -1.07983e-16 0)
(1 -1.85289e-15 0)
(1 2.51941e-15 0)
(1 -6.50302e-16 0)
(1 4.08614e-15 0)
(1 3.66154e-15 0)
(1 6.41407e-15 0)
(1 4.3094e-15 0)
(1 1.25992e-14 0)
(1 6.7437e-15 0)
(1 9.36051e-15 0)
(1 -5.85726e-15 0)
(1 -8.09502e-15 0)
(1 -5.42924e-15 0)
(1 -3.17533e-15 0)
(1 -2.57536e-15 0)
(1 3.78511e-15 0)
(1 -1.84541e-15 0)
(1 5.07395e-15 0)
(1 5.93655e-15 0)
(1 7.19914e-15 0)
(1 4.90226e-15 0)
(1 2.14441e-15 0)
(1 -2.16282e-15 0)
(1 4.58946e-15 0)
(1 4.32833e-15 0)
(1 5.66895e-15 0)
(1 -2.7921e-15 0)
(1 1.75437e-15 0)
(1 1.18062e-14 0)
(1 3.95881e-16 0)
(1 2.70777e-15 0)
(1 -3.97433e-15 0)
(1 2.51028e-15 0)
(1 -7.57026e-15 0)
(1 -5.90801e-15 0)
(1 -5.27465e-15 0)
(1 5.93518e-15 0)
(1 5.72672e-15 0)
(1 1.39661e-15 0)
(1 4.94471e-16 0)
(1 -5.90899e-15 0)
(1 2.09592e-15 0)
(1 1.5646e-15 0)
(1 -9.48659e-16 0)
(1 5.23184e-15 0)
(1 3.64839e-15 0)
(1 4.73274e-15 0)
(1 4.93093e-15 0)
(1 -6.47228e-17 0)
(1 2.30348e-15 0)
(1 -1.34828e-15 0)
(1 -3.08817e-15 0)
(1 -2.45679e-15 0)
(1 -1.68894e-15 0)
(1 -5.34835e-15 0)
(1 4.9588e-15 0)
(1 3.59296e-15 0)
(1 3.65473e-15 0)
(1 2.54517e-15 0)
(1 2.60052e-15 0)
(1 3.94717e-15 0)
(1 2.37788e-15 0)
(1 3.46095e-15 0)
(1 3.67368e-15 0)
(1 7.4054e-15 0)
(1 4.00576e-15 0)
(1 1.76503e-17 0)
(1 2.26946e-15 0)
(1 5.77705e-15 0)
(1 5.11672e-15 0)
(1 1.50782e-16 0)
(1 -1.11875e-15 0)
(1 2.77562e-15 0)
(1 7.55055e-15 0)
(1 5.49443e-15 0)
(1 3.78096e-15 0)
(1 2.02703e-15 0)
(1 1.13709e-15 0)
(1 5.05581e-15 0)
(1 2.664e-15 0)
(1 5.84629e-15 0)
(1 8.12789e-15 0)
(1 2.59392e-15 0)
(1 4.51232e-15 0)
(1 9.16613e-15 0)
(1 2.95169e-15 0)
(1 3.21687e-15 0)
(1 4.797e-15 0)
(1 1.70176e-16 0)
(1 -3.48769e-15 0)
(1 -3.11464e-15 0)
(1 -2.42069e-15 0)
(1 3.93551e-15 0)
(1 9.71972e-16 0)
(1 2.63689e-15 0)
(1 -2.18469e-15 0)
(1 2.08844e-15 0)
(1 2.56658e-15 0)
(1 -2.7067e-15 0)
(1 -5.56228e-15 0)
(1 4.30218e-16 0)
(1 4.13667e-15 0)
(1 -1.97241e-15 0)
(1 1.1079e-14 0)
(1 -9.37892e-16 0)
(1 1.21183e-14 0)
(1 1.47376e-15 0)
(1 1.56013e-14 0)
(1 -2.73977e-15 0)
(1 3.629e-15 0)
(1 -8.25679e-15 0)
(1 -5.86617e-15 0)
(1 -9.4766e-15 0)
(1 -1.11875e-15 0)
(1 7.06235e-15 0)
(1 6.99634e-15 0)
(1 5.83288e-15 0)
(1 1.29989e-15 0)
(1 4.01141e-15 0)
(1 7.25356e-15 0)
(1 -1.11382e-15 0)
(1 -3.25188e-15 0)
(1 -1.18857e-14 0)
(1 -6.46093e-16 0)
(1 -6.80802e-15 0)
(1 1.19542e-14 0)
(1 1.69996e-14 0)
(1 1.69215e-14 0)
(1 -4.22741e-15 0)
(1 -6.62131e-15 0)
(1 -1.95074e-15 0)
(1 -1.40459e-15 0)
(1 1.58269e-15 0)
(1 9.03862e-16 0)
(1 -4.05412e-16 0)
(1 -1.93707e-15 0)
(1 3.05134e-15 0)
(1 -5.24607e-16 0)
(1 1.60452e-15 0)
(1 9.20035e-16 0)
(1 7.90606e-15 0)
(1 6.79064e-15 0)
(1 5.62757e-15 0)
(1 2.37493e-15 0)
(1 5.00393e-15 0)
(1 2.37919e-15 0)
(1 1.79362e-15 0)
(1 1.12964e-15 0)
(1 -1.33456e-15 0)
(1 -2.26505e-15 0)
(1 1.48484e-15 0)
(1 -2.87018e-15 0)
(1 6.76817e-16 0)
(1 6.81484e-16 0)
(1 3.30759e-15 0)
(1 2.35898e-15 0)
(1 -3.22955e-16 0)
(1 -1.3477e-15 0)
(1 9.67089e-15 0)
(1 1.15631e-14 0)
(1 7.55269e-15 0)
(1 5.9432e-15 0)
(1 6.66911e-15 0)
(1 6.25848e-15 0)
(1 5.84824e-15 0)
(1 3.4597e-15 0)
(1 4.23025e-16 0)
(1 -6.9388e-15 0)
(1 4.35159e-17 0)
(1 4.41767e-16 0)
(1 -1.32482e-15 0)
(1 7.35838e-16 0)
(1 2.68874e-15 0)
(1 8.07019e-15 0)
(1 7.56193e-15 0)
(1 1.40272e-15 0)
(1 2.08999e-15 0)
(1 7.27764e-16 0)
(1 1.86259e-15 0)
(1 5.32913e-16 0)
(1 7.24376e-15 0)
(1 8.60423e-15 0)
(1 3.2429e-15 0)
(1 8.32287e-15 0)
(1 7.06256e-15 0)
(1 6.91366e-15 0)
(1 4.16661e-15 0)
(1 1.08232e-14 0)
(1 -5.49855e-17 0)
(1 -1.71956e-15 0)
(1 -5.15774e-15 0)
(1 -4.71452e-15 0)
(1 -5.50975e-15 0)
(1 4.99319e-15 0)
(1 -5.31194e-15 0)
(1 2.35084e-15 0)
(1 1.55364e-15 0)
(1 3.98039e-15 0)
(1 1.17732e-15 0)
(1 5.22043e-15 0)
(1 4.10055e-15 0)
(1 1.14932e-16 0)
(1 -2.7069e-15 0)
(1 4.35885e-15 0)
(1 3.52146e-15 0)
(1 1.33961e-14 0)
(1 6.45104e-15 0)
(1 3.85599e-15 0)
(1 -3.63521e-15 0)
(1 -1.7674e-15 0)
(1 6.27805e-15 0)
(1 4.87196e-15 0)
(1 -1.74251e-15 0)
(1 -3.06166e-15 0)
(1 -4.76673e-16 0)
(1 2.19879e-15 0)
(1 1.57828e-15 0)
(1 -1.35322e-15 0)
(1 -2.99701e-15 0)
(1 -5.53199e-15 0)
(1 -5.3405e-15 0)
(1 2.56963e-16 0)
(1 -2.24827e-15 0)
(1 1.95108e-15 0)
(1 -9.0756e-16 0)
(1 6.61062e-15 0)
(1 5.54411e-15 0)
(1 8.54846e-15 0)
(1 -1.05933e-14 0)
(1 8.61553e-16 0)
(1 3.38772e-15 0)
(1 8.11478e-15 0)
(1 7.18222e-15 0)
(1 1.0844e-14 0)
(1 2.65168e-15 0)
(1 -3.78568e-15 0)
(1 -1.05128e-14 0)
(1 -5.26138e-15 0)
(1 4.24729e-15 0)
(1 7.88318e-15 0)
(1 5.9619e-15 0)
(1 3.91572e-15 0)
(1 4.45485e-15 0)
(1 1.12606e-14 0)
(1 1.08595e-15 0)
(1 -2.60825e-15 0)
(1 5.5909e-15 0)
(1 -8.28018e-16 0)
(1 1.20524e-15 0)
(1 5.16252e-16 0)
(1 -5.83038e-15 0)
(1 -6.68485e-15 0)
(1 -5.07662e-15 0)
(1 1.58345e-15 0)
(1 1.54524e-14 0)
(1 1.26289e-14 0)
(1 1.07985e-14 0)
(1 1.695e-14 0)
(1 1.65051e-14 0)
(1 1.42467e-14 0)
(1 7.91229e-15 0)
(1 7.63476e-15 0)
(1 4.29498e-15 0)
(1 1.33483e-16 0)
(1 -3.68908e-16 0)
(1 -1.64933e-15 0)
(1 3.944e-15 0)
(1 1.90338e-16 0)
(1 3.20496e-15 0)
(1 6.67438e-15 0)
(1 3.14168e-15 0)
(1 2.38086e-15 0)
(1 -2.01171e-15 0)
(1 -1.6093e-15 0)
(1 -2.32095e-15 0)
(1 -4.26534e-15 0)
(1 2.38235e-15 0)
(1 4.33931e-16 0)
(1 1.68246e-15 0)
(1 5.77972e-15 0)
(1 9.59077e-15 0)
(1 1.33887e-14 0)
(1 1.75901e-14 0)
(1 1.28015e-14 0)
(1 1.61965e-14 0)
(1 1.07188e-14 0)
(1 1.3269e-14 0)
(1 2.06694e-14 0)
(1 9.56106e-16 0)
(1 7.66471e-16 0)
(1 2.28777e-15 0)
(1 1.02433e-15 0)
(1 -4.02053e-15 0)
(1 1.49871e-15 0)
(1 -2.72336e-16 0)
(1 1.80059e-15 0)
(1 8.27316e-16 0)
(1 -4.18946e-15 0)
(1 2.2487e-15 0)
(1 -2.02253e-16 0)
(1 4.86528e-15 0)
(1 -2.2188e-16 0)
(1 6.13627e-15 0)
(1 1.60019e-15 0)
(1 7.86345e-15 0)
(1 6.07848e-15 0)
(1 4.64485e-15 0)
(1 -7.63398e-15 0)
(1 -7.81768e-15 0)
(1 -9.20188e-15 0)
(1 7.80263e-15 0)
(1 5.01831e-15 0)
(1 1.47442e-15 0)
(1 1.27284e-15 0)
(1 -6.06009e-16 0)
(1 -3.14523e-15 0)
(1 -2.38239e-16 0)
(1 3.22418e-15 0)
(1 -9.07493e-16 0)
(1 -2.97741e-15 0)
(1 1.00645e-15 0)
(1 -1.36777e-15 0)
(1 5.9519e-15 0)
(1 -3.63958e-15 0)
(1 -1.60994e-15 0)
(1 -1.60039e-15 0)
(1 -3.29201e-16 0)
(1 2.62554e-15 0)
(1 6.5381e-15 0)
(1 8.42882e-15 0)
(1 6.08119e-15 0)
(1 9.09275e-15 0)
(1 -1.58739e-16 0)
(1 -8.75919e-16 0)
(1 -7.98218e-15 0)
(1 -4.83732e-15 0)
(1 5.224e-16 0)
(1 5.84261e-15 0)
(1 6.49539e-15 0)
(1 -8.44822e-17 0)
(1 8.61294e-16 0)
(1 1.93905e-15 0)
(1 8.67471e-15 0)
(1 1.17333e-14 0)
(1 6.90125e-15 0)
(1 -7.64305e-16 0)
(1 -4.69851e-16 0)
(1 5.96511e-15 0)
(1 9.91423e-15 0)
(1 6.1311e-15 0)
(1 6.06761e-15 0)
(1 3.93757e-15 0)
(1 -6.20565e-15 0)
(1 -2.3466e-15 0)
(1 9.74015e-15 0)
(1 1.04893e-14 0)
(1 1.33411e-14 0)
(1 1.52373e-14 0)
(1 6.90134e-15 0)
(1 7.87704e-15 0)
(1 2.67075e-15 0)
(1 4.9202e-15 0)
(1 2.04173e-15 0)
(1 2.64651e-15 0)
(1 7.15734e-15 0)
(1 3.13906e-15 0)
(1 7.58209e-15 0)
(1 2.43737e-15 0)
(1 -7.57846e-18 0)
(1 -3.70065e-15 0)
(1 -3.81309e-15 0)
(1 -1.83266e-15 0)
(1 2.9229e-15 0)
(1 6.46248e-15 0)
(1 5.5279e-15 0)
(1 3.71923e-15 0)
(1 4.51221e-15 0)
(1 3.10016e-15 0)
(1 6.27417e-15 0)
(1 5.85103e-15 0)
(1 7.87358e-15 0)
(1 3.77674e-15 0)
(1 1.71824e-14 0)
(1 9.97931e-15 0)
(1 2.08453e-14 0)
(1 1.42239e-14 0)
(1 2.20815e-14 0)
(1 1.90522e-14 0)
(1 7.23908e-16 0)
(1 -4.34638e-15 0)
(1 2.17745e-15 0)
(1 -3.36995e-16 0)
(1 4.37679e-15 0)
(1 -8.28416e-15 0)
(1 5.37027e-15 0)
(1 -9.87624e-15 0)
(1 -1.36548e-15 0)
(1 2.00901e-15 0)
(1 -4.0346e-15 0)
(1 -3.28636e-15 0)
(1 1.16752e-15 0)
(1 2.99594e-15 0)
(1 1.35963e-14 0)
(1 9.90164e-15 0)
(1 1.05483e-14 0)
(1 5.22555e-15 0)
(1 9.56467e-17 0)
(1 -4.63265e-15 0)
(1 -2.16814e-15 0)
(1 -1.51096e-15 0)
(1 -1.08176e-14 0)
(1 -1.10767e-14 0)
(1 -9.57829e-15 0)
(1 1.87437e-16 0)
(1 5.00235e-15 0)
(1 1.7623e-15 0)
(1 7.65547e-15 0)
(1 3.49971e-15 0)
(1 -1.71726e-15 0)
(1 -2.30279e-15 0)
(1 2.13263e-15 0)
(1 -6.75445e-15 0)
(1 1.57832e-16 0)
(1 -4.75191e-15 0)
(1 3.27365e-15 0)
(1 4.04201e-15 0)
(1 1.13637e-14 0)
(1 -4.57112e-15 0)
(1 4.49607e-15 0)
(1 9.52382e-15 0)
(1 1.13222e-14 0)
(1 3.95894e-15 0)
(1 1.28557e-16 0)
(1 1.83151e-15 0)
(1 -6.43341e-16 0)
(1 -3.52682e-15 0)
(1 -4.87972e-17 0)
(1 2.25595e-15 0)
(1 1.43317e-15 0)
(1 -4.00493e-15 0)
(1 5.1274e-15 0)
(1 4.83238e-15 0)
(1 1.24568e-14 0)
(1 2.01011e-15 0)
(1 9.49323e-15 0)
(1 4.29389e-16 0)
(1 3.94417e-15 0)
(1 1.48655e-15 0)
(1 8.58054e-15 0)
(1 1.55767e-15 0)
(1 4.35683e-15 0)
(1 2.22395e-15 0)
(1 -8.03709e-16 0)
(1 6.03911e-15 0)
(1 1.23118e-14 0)
(1 8.13374e-15 0)
(1 1.29139e-14 0)
(1 8.06401e-15 0)
(1 4.5109e-15 0)
(1 5.22486e-15 0)
(1 3.22781e-15 0)
(1 2.97122e-15 0)
(1 -4.1588e-15 0)
(1 2.05125e-15 0)
(1 1.29569e-14 0)
(1 1.76994e-14 0)
(1 8.58023e-15 0)
(1 3.76939e-15 0)
(1 5.03355e-15 0)
(1 -5.68673e-15 0)
(1 -8.85292e-17 0)
(1 -3.60505e-15 0)
(1 2.20032e-15 0)
(1 2.2569e-16 0)
(1 6.30509e-15 0)
(1 5.66604e-15 0)
(1 2.52433e-15 0)
(1 4.25678e-15 0)
(1 3.52199e-15 0)
(1 7.8982e-15 0)
(1 3.61087e-15 0)
(1 2.80647e-15 0)
(1 8.52245e-15 0)
(1 8.7666e-15 0)
(1 9.55523e-15 0)
(1 1.63774e-14 0)
(1 1.86607e-14 0)
(1 1.36056e-14 0)
(1 2.84057e-15 0)
(1 -5.36704e-15 0)
(1 1.49678e-15 0)
(1 -2.60537e-15 0)
(1 3.18919e-15 0)
(1 4.52354e-16 0)
(1 -8.07806e-15 0)
(1 -5.73719e-15 0)
(1 -8.34822e-15 0)
(1 3.5996e-15 0)
(1 7.55966e-15 0)
(1 1.13222e-14 0)
(1 2.77605e-15 0)
(1 1.24852e-15 0)
(1 3.53319e-15 0)
(1 8.27425e-16 0)
(1 6.32586e-15 0)
(1 3.97144e-15 0)
(1 9.66919e-16 0)
(1 -7.34147e-15 0)
(1 -4.28331e-15 0)
(1 -2.09638e-15 0)
(1 -4.00901e-15 0)
(1 -4.30326e-15 0)
(1 9.45211e-16 0)
(1 4.62093e-15 0)
(1 5.68174e-15 0)
(1 4.5292e-15 0)
(1 5.38794e-15 0)
(1 -7.94563e-16 0)
(1 2.66546e-16 0)
(1 -3.50031e-16 0)
(1 3.76905e-16 0)
(1 -6.88566e-15 0)
(1 -6.5524e-15 0)
(1 -6.30344e-15 0)
(1 2.94542e-15 0)
(1 3.20722e-16 0)
(1 1.50987e-15 0)
(1 1.64801e-16 0)
(1 6.31211e-15 0)
(1 8.68473e-15 0)
(1 4.83554e-15 0)
(1 -4.7057e-16 0)
(1 4.42647e-16 0)
(1 2.74108e-15 0)
(1 7.80305e-15 0)
(1 3.33851e-15 0)
(1 -8.6648e-16 0)
(1 2.5471e-15 0)
(1 -1.51928e-15 0)
(1 3.84954e-15 0)
(1 3.19365e-15 0)
(1 1.30181e-14 0)
(1 1.20176e-14 0)
(1 2.12501e-15 0)
(1 -1.16524e-15 0)
(1 2.65886e-15 0)
(1 3.66897e-15 0)
(1 8.86411e-16 0)
(1 2.57334e-15 0)
(1 5.22834e-15 0)
(1 6.15447e-15 0)
(1 3.85326e-15 0)
(1 5.89029e-15 0)
(1 1.79964e-15 0)
(1 8.50361e-15 0)
(1 1.16444e-14 0)
(1 7.00337e-15 0)
(1 2.25632e-15 0)
(1 9.93996e-16 0)
(1 3.2984e-15 0)
(1 7.48196e-15 0)
(1 3.13987e-15 0)
(1 3.26157e-15 0)
(1 3.68704e-15 0)
(1 4.25533e-15 0)
(1 7.32331e-15 0)
(1 4.54324e-15 0)
(1 5.7096e-15 0)
(1 6.24557e-15 0)
(1 3.36037e-15 0)
(1 7.42196e-15 0)
(1 2.87131e-15 0)
(1 1.8834e-15 0)
(1 -1.89909e-15 0)
(1 -3.88623e-16 0)
(1 3.02318e-15 0)
(1 -1.07977e-15 0)
(1 4.923e-15 0)
(1 1.32393e-15 0)
(1 6.88646e-15 0)
(1 4.93925e-15 0)
(1 1.53057e-14 0)
(1 1.17111e-14 0)
(1 1.30608e-14 0)
(1 1.03376e-14 0)
(1 1.35797e-14 0)
(1 1.26278e-14 0)
(1 9.06394e-15 0)
(1 2.35716e-15 0)
(1 2.97305e-15 0)
(1 -4.50268e-15 0)
(1 -4.65362e-15 0)
(1 7.55684e-16 0)
(1 6.02405e-16 0)
(1 -5.68802e-15 0)
(1 3.92284e-15 0)
(1 -3.19525e-15 0)
(1 7.45171e-15 0)
(1 1.46367e-14 0)
(1 1.95862e-14 0)
(1 2.06535e-15 0)
(1 -4.5936e-15 0)
(1 -4.64258e-15 0)
(1 -2.74854e-15 0)
(1 -8.01787e-15 0)
(1 6.2916e-15 0)
(1 4.92476e-15 0)
(1 6.0351e-16 0)
(1 -7.58407e-15 0)
(1 -5.38044e-15 0)
(1 -4.61165e-15 0)
(1 -1.30921e-14 0)
(1 -8.34558e-15 0)
(1 1.45839e-15 0)
(1 9.62469e-15 0)
(1 1.04238e-14 0)
(1 -5.08683e-16 0)
(1 -1.3818e-15 0)
(1 -4.4328e-15 0)
(1 -2.77041e-15 0)
(1 -3.6245e-15 0)
(1 -2.41665e-15 0)
(1 -4.8457e-16 0)
(1 -1.74391e-15 0)
(1 8.74623e-15 0)
(1 -2.20949e-17 0)
(1 5.23359e-16 0)
(1 9.20668e-15 0)
(1 4.30047e-15 0)
(1 3.25849e-15 0)
(1 -4.32929e-15 0)
(1 3.44109e-15 0)
(1 2.93863e-15 0)
(1 6.63313e-16 0)
(1 6.23889e-15 0)
(1 1.41454e-14 0)
(1 5.0479e-15 0)
(1 -8.79857e-16 0)
(1 -3.64783e-15 0)
(1 -1.62333e-15 0)
(1 -4.08245e-15 0)
(1 8.10018e-15 0)
(1 3.30824e-15 0)
(1 4.51814e-15 0)
(1 -2.21124e-15 0)
(1 3.60882e-15 0)
(1 -1.76075e-15 0)
(1 1.51444e-15 0)
(1 -1.45135e-15 0)
(1 1.04916e-14 0)
(1 1.44617e-14 0)
(1 1.44877e-14 0)
(1 9.76584e-15 0)
(1 2.43414e-15 0)
(1 -2.8532e-15 0)
(1 3.48192e-15 0)
(1 3.6054e-15 0)
(1 2.58231e-15 0)
(1 1.60872e-15 0)
(1 4.33888e-15 0)
(1 6.75453e-15 0)
(1 6.29771e-15 0)
(1 9.65853e-15 0)
(1 -3.76973e-16 0)
(1 -6.21117e-15 0)
(1 -1.75538e-15 0)
(1 2.8066e-15 0)
(1 3.5691e-15 0)
(1 -1.1091e-15 0)
(1 8.95291e-15 0)
(1 5.62502e-15 0)
(1 8.21418e-15 0)
(1 2.63347e-15 0)
(1 9.08161e-15 0)
(1 2.17239e-15 0)
(1 5.61092e-15 0)
(1 5.05398e-16 0)
(1 2.53649e-15 0)
(1 2.14244e-15 0)
(1 -8.95908e-17 0)
(1 1.991e-15 0)
(1 2.31472e-15 0)
(1 5.14421e-15 0)
(1 1.18956e-14 0)
(1 1.19741e-14 0)
(1 9.34788e-15 0)
(1 1.07815e-14 0)
(1 1.02958e-14 0)
(1 -4.73198e-15 0)
(1 6.12081e-15 0)
(1 -1.74039e-15 0)
(1 -2.15927e-15 0)
(1 -2.37138e-15 0)
(1 -5.52683e-15 0)
(1 -1.54693e-15 0)
(1 4.49697e-15 0)
(1 1.21794e-14 0)
(1 1.25178e-14 0)
(1 1.05584e-14 0)
(1 2.89202e-15 0)
(1 1.12799e-15 0)
(1 -1.08945e-15 0)
(1 -5.52547e-15 0)
(1 1.32793e-15 0)
(1 -6.61611e-15 0)
(1 -5.85397e-15 0)
(1 -4.53619e-15 0)
(1 -5.64633e-16 0)
(1 -8.38208e-16 0)
(1 -2.70268e-16 0)
(1 -4.05281e-16 0)
(1 2.67844e-15 0)
(1 -9.568e-16 0)
(1 -2.9046e-15 0)
(1 -6.90264e-15 0)
(1 -3.72601e-15 0)
(1 -4.64849e-15 0)
(1 -1.30193e-15 0)
(1 -5.64733e-16 0)
(1 -1.06221e-14 0)
(1 -5.01852e-15 0)
(1 -1.28258e-15 0)
(1 2.33233e-15 0)
(1 1.16341e-14 0)
(1 7.33514e-15 0)
(1 6.94319e-15 0)
(1 4.72003e-15 0)
(1 4.56175e-15 0)
(1 2.66922e-15 0)
(1 -3.57968e-15 0)
(1 -2.41363e-15 0)
(1 1.50299e-15 0)
(1 5.27931e-15 0)
(1 5.37141e-15 0)
(1 3.58775e-15 0)
(1 8.14738e-15 0)
(1 2.8446e-15 0)
(1 -2.92371e-15 0)
(1 -8.36105e-15 0)
(1 -5.474e-15 0)
(1 8.08565e-17 0)
(1 -2.80704e-15 0)
(1 4.59602e-15 0)
(1 5.32364e-15 0)
(1 9.12114e-15 0)
(1 9.67002e-15 0)
(1 6.47875e-15 0)
(1 3.65944e-15 0)
(1 3.74517e-15 0)
(1 4.61898e-15 0)
(1 5.1675e-15 0)
(1 7.41118e-15 0)
(1 5.26018e-15 0)
(1 1.38686e-14 0)
(1 2.45673e-15 0)
(1 8.73363e-15 0)
(1 3.42201e-15 0)
(1 5.51911e-15 0)
(1 2.70415e-15 0)
(1 4.00783e-15 0)
(1 1.42726e-15 0)
(1 8.01691e-15 0)
(1 7.4458e-15 0)
(1 2.42781e-15 0)
(1 4.98127e-15 0)
(1 1.09271e-14 0)
(1 1.41549e-14 0)
(1 8.06092e-15 0)
(1 -1.92331e-15 0)
(1 2.0648e-15 0)
(1 -6.68636e-17 0)
(1 1.43213e-15 0)
(1 3.68356e-15 0)
(1 8.81025e-15 0)
(1 3.07116e-15 0)
(1 7.23362e-15 0)
(1 1.54458e-15 0)
(1 4.54081e-15 0)
(1 6.1617e-15 0)
(1 3.26e-15 0)
(1 3.63349e-15 0)
(1 -3.86091e-17 0)
(1 3.12379e-15 0)
(1 6.73717e-15 0)
(1 5.62722e-15 0)
(1 1.07113e-14 0)
(1 1.59294e-14 0)
(1 1.78755e-14 0)
(1 -1.58005e-15 0)
(1 4.29376e-15 0)
(1 2.82831e-15 0)
(1 -1.655e-15 0)
(1 -1.62387e-15 0)
(1 -5.18549e-15 0)
(1 -4.76985e-15 0)
(1 -8.58157e-15 0)
(1 5.24688e-15 0)
(1 4.43408e-15 0)
(1 1.37444e-14 0)
(1 4.73749e-15 0)
(1 1.06615e-14 0)
(1 4.988e-15 0)
(1 -6.87288e-15 0)
(1 -9.27197e-15 0)
(1 -1.00873e-14 0)
(1 -1.44997e-14 0)
(1 -5.72513e-15 0)
(1 -3.73933e-15 0)
(1 -9.24581e-16 0)
(1 3.73634e-15 0)
(1 9.11563e-16 0)
(1 2.09033e-14 0)
(1 2.13709e-14 0)
(1 9.80914e-15 0)
(1 -1.09618e-14 0)
(1 -1.04646e-14 0)
(1 -7.30145e-15 0)
(1 -3.10488e-15 0)
(1 -6.85561e-15 0)
(1 -4.37914e-15 0)
(1 -3.81606e-15 0)
(1 -7.67214e-15 0)
(1 -5.31203e-16 0)
(1 4.05885e-15 0)
(1 5.90243e-15 0)
(1 1.34093e-14 0)
(1 5.48498e-15 0)
(1 -2.08919e-15 0)
(1 3.99295e-15 0)
(1 -2.75225e-15 0)
(1 -7.16913e-16 0)
(1 1.90449e-16 0)
(1 3.79896e-15 0)
(1 6.1629e-15 0)
(1 8.44737e-18 0)
(1 1.06592e-16 0)
(1 1.02018e-15 0)
(1 -3.83543e-15 0)
(1 2.5165e-15 0)
(1 3.41977e-15 0)
(1 4.87708e-15 0)
(1 7.1099e-16 0)
(1 6.0074e-15 0)
(1 4.2803e-15 0)
(1 5.51826e-15 0)
(1 7.26248e-15 0)
(1 5.66168e-15 0)
(1 3.98329e-15 0)
(1 4.39942e-15 0)
(1 2.59349e-16 0)
(1 9.56308e-15 0)
(1 4.22412e-15 0)
(1 7.77031e-15 0)
(1 6.71482e-15 0)
(1 9.4942e-15 0)
(1 1.37419e-14 0)
(1 1.09473e-14 0)
(1 1.04333e-14 0)
(1 7.70919e-15 0)
(1 1.09974e-14 0)
(1 2.57684e-15 0)
(1 3.12947e-15 0)
(1 1.8247e-15 0)
(1 6.90818e-15 0)
(1 7.19219e-15 0)
(1 5.95518e-15 0)
(1 6.82697e-15 0)
(1 5.24232e-15 0)
(1 6.28826e-15 0)
(1 1.54038e-15 0)
(1 4.48783e-15 0)
(1 -1.87151e-15 0)
(1 5.24427e-15 0)
(1 3.84859e-15 0)
(1 4.92725e-15 0)
(1 -3.3848e-16 0)
(1 5.26322e-15 0)
(1 1.76152e-15 0)
(1 2.68879e-16 0)
(1 9.10098e-16 0)
(1 5.38594e-15 0)
(1 5.21342e-15 0)
(1 9.23314e-15 0)
(1 8.07884e-15 0)
(1 4.62141e-15 0)
(1 1.03382e-14 0)
(1 1.53854e-14 0)
(1 1.81071e-14 0)
(1 -3.27583e-15 0)
(1 4.32853e-15 0)
(1 -6.12721e-15 0)
(1 2.07197e-15 0)
(1 3.4677e-15 0)
(1 1.4544e-15 0)
(1 1.25132e-14 0)
(1 4.11283e-15 0)
(1 3.96977e-16 0)
(1 -3.28015e-15 0)
(1 -9.96781e-16 0)
(1 1.09671e-16 0)
(1 3.45293e-15 0)
(1 5.38847e-15 0)
(1 2.13972e-15 0)
(1 -6.58925e-15 0)
(1 -1.05236e-15 0)
(1 -9.18773e-15 0)
(1 -5.9621e-15 0)
(1 -8.16594e-15 0)
(1 -2.77868e-15 0)
(1 2.37929e-15 0)
(1 5.7021e-15 0)
(1 -4.72789e-15 0)
(1 -4.18107e-15 0)
(1 -1.0467e-15 0)
(1 -1.00189e-14 0)
(1 1.39901e-15 0)
(1 -5.87172e-15 0)
(1 -2.1972e-15 0)
(1 -1.43652e-14 0)
(1 3.70006e-15 0)
(1 -4.66973e-15 0)
(1 5.3004e-15 0)
(1 9.7207e-15 0)
(1 6.28159e-15 0)
(1 9.2254e-15 0)
(1 -5.69425e-16 0)
(1 9.01158e-16 0)
(1 -3.34113e-17 0)
(1 -1.3498e-15 0)
(1 9.28566e-17 0)
(1 1.16672e-15 0)
(1 3.1052e-15 0)
(1 5.1384e-15 0)
(1 -2.80897e-15 0)
(1 1.05508e-15 0)
(1 1.13091e-15 0)
(1 5.47218e-15 0)
(1 -5.63448e-15 0)
(1 3.88432e-15 0)
(1 2.89299e-15 0)
(1 3.99038e-15 0)
(1 1.66144e-15 0)
(1 4.49042e-15 0)
(1 1.45816e-15 0)
(1 8.61965e-15 0)
(1 7.12647e-15 0)
(1 4.1251e-15 0)
(1 -1.99215e-15 0)
(1 -1.90644e-15 0)
(1 1.95774e-15 0)
(1 4.06758e-15 0)
(1 6.16341e-15 0)
(1 7.92059e-15 0)
(1 -2.45994e-15 0)
(1 6.76494e-16 0)
(1 -9.39017e-16 0)
(1 1.37457e-14 0)
(1 1.26648e-14 0)
(1 9.31333e-15 0)
(1 1.9109e-15 0)
(1 5.15771e-15 0)
(1 2.00793e-15 0)
(1 1.6348e-15 0)
(1 6.40281e-15 0)
(1 5.72935e-15 0)
(1 8.74298e-15 0)
(1 6.39914e-15 0)
(1 8.45606e-15 0)
(1 -5.01538e-16 0)
(1 5.89617e-15 0)
(1 5.72664e-15 0)
(1 2.34846e-15 0)
(1 5.74304e-16 0)
(1 -9.91557e-16 0)
(1 2.11268e-15 0)
(1 8.22578e-16 0)
(1 6.86221e-15 0)
(1 4.85116e-15 0)
(1 -2.64777e-15 0)
(1 2.68403e-15 0)
(1 4.88003e-15 0)
(1 2.93909e-15 0)
(1 3.98376e-15 0)
(1 5.94973e-15 0)
(1 5.27162e-15 0)