/*--------------------------------*- C++ -*----------------------------------*\
| =========                 |                                                 |
| \\      /  F ield         | OpenFOAM: The Open Source CFD Toolbox           |
|  \\    /   O peration     | Version:  v2012                                 |
|   \\  /    A nd           | Website:  www.openfoam.com                      |
|    \\/     M anipulation  |                                                 |
\*---------------------------------------------------------------------------*/
FoamFile
{
    version     2.0;
    format      ascii;
    class       volVectorField;
    location    "0";
    object      U;
}
// * * * * * * * * * * * * * * * * * * * * * * * * * * * * * * * * * * * * * //

dimensions      [0 1 -1 0 0 0 0];


internalField   nonuniform List<vector> 
4000
(
(1 2.69958e-15 0)
(1 2.81999e-15 0)
(1 2.03935e-15 0)
(1 -4.53018e-16 0)
(1 -7.82451e-15 0)
(1 2.25591e-15 0)
(1 9.03402e-16 0)
(1 5.35859e-15 0)
(1 -3.41841e-15 0)
(1 -9.49896e-15 0)
(1 5.90705e-16 0)
(1 2.17266e-15 0)
(1 7.86624e-15 0)
(1 -1.5261e-15 0)
(1 -4.07757e-15 0)
(1 -8.07293e-16 0)
(1 5.32857e-18 0)
(1 -2.90282e-15 0)
(1 1.79869e-15 0)
(1 -1.46675e-15 0)
(1 1.32652e-15 0)
(1 -4.34703e-15 0)
(1 -1.52937e-15 0)
(1 -3.95878e-15 0)
(1 -2.28743e-15 0)
(1 3.25374e-16 0)
(1 -2.59304e-15 0)
(1 3.04201e-16 0)
(1 -3.42066e-15 0)
(1 7.65553e-15 0)
(1 2.1787e-15 0)
(1 -3.76351e-15 0)
(1 -2.46911e-15 0)
(1 3.36918e-15 0)
(1 3.5665e-15 0)
(1 7.18241e-15 0)
(1 6.76018e-15 0)
(1 9.30334e-15 0)
(1 6.00153e-16 0)
(1 -4.35781e-15 0)
(1 -8.70757e-15 0)
(1 -2.20243e-15 0)
(1 -2.82601e-15 0)
(1 1.15509e-15 0)
(1 -9.21949e-16 0)
(1 9.22282e-16 0)
(1 -1.61067e-15 0)
(1 -4.89868e-15 0)
(1 1.06467e-15 0)
(1 4.24863e-15 0)
(1 6.20725e-15 0)
(1 1.74892e-15 0)
(1 3.85925e-15 0)
(1 7.53912e-16 0)
(1 7.93438e-16 0)
(1 7.21067e-16 0)
(1 -1.17776e-15 0)
(1 1.15005e-15 0)
(1 -5.90394e-16 0)
(1 1.50363e-15 0)
(1 2.53701e-15 0)
(1 1.93677e-15 0)
(1 5.90259e-18 0)
(1 -1.11097e-15 0)
(1 -2.60804e-15 0)
(1 -6.45789e-16 0)
(1 -1.20366e-16 0)
(1 2.30727e-15 0)
(1 -8.65295e-16 0)
(1 -3.06217e-15 0)
(1 -1.2321e-15 0)
(1 -2.53255e-15 0)
(1 -2.69808e-15 0)
(1 -2.49699e-15 0)
(1 -3.43718e-15 0)
(1 -1.90398e-15 0)
(1 1.23029e-15 0)
(1 -3.43761e-15 0)
(1 -1.90824e-15 0)
(1 5.3145e-15 0)
(1 2.0361e-15 0)
(1 -2.15342e-15 0)
(1 -2.04265e-15 0)
(1 -1.02126e-15 0)
(1 -1.70424e-15 0)
(1 1.08005e-15 0)
(1 -1.29722e-15 0)
(1 2.86143e-15 0)
(1 2.16285e-15 0)
(1 5.06226e-15 0)
(1 5.33601e-15 0)
(1 4.87469e-15 0)
(1 -3.6173e-15 0)
(1 -1.56847e-15 0)
(1 -1.6078e-15 0)
(1 -1.55803e-15 0)
(1 -1.01853e-15 0)
(1 2.24157e-16 0)
(1 6.60638e-16 0)
(1 -2.53798e-15 0)
(1 3.4868e-15 0)
(1 1.74698e-15 0)
(1 4.38482e-15 0)
(1 -1.39499e-15 0)
(1 -7.83096e-15 0)
(1 1.9954e-15 0)
(1 4.24609e-15 0)
(1 4.96951e-15 0)
(1 -4.32603e-15 0)
(1 -1.07276e-14 0)
(1 -2.96781e-15 0)
(1 6.07844e-15 0)
(1 8.31631e-15 0)
(1 -2.79964e-16 0)
(1 1.09871e-15 0)
(1 1.70131e-15 0)
(1 1.22321e-15 0)
(1 -2.13271e-15 0)
(1 1.75762e-15 0)
(1 -2.06194e-15 0)
(1 -7.07433e-16 0)
(1 -2.3242e-15 0)
(1 -2.26619e-15 0)
(1 -3.16161e-15 0)
(1 -5.60847e-15 0)
(1 -1.46004e-15 0)
(1 -3.47344e-15 0)
(1 -3.00002e-15 0)
(1 -5.10313e-15 0)
(1 6.86015e-15 0)
(1 3.11067e-15 0)
(1 -3.40067e-15 0)
(1 -2.68908e-15 0)
(1 4.96498e-15 0)
(1 4.49065e-15 0)
(1 4.8862e-15 0)
(1 3.67841e-15 0)
(1 9.94758e-15 0)
(1 -5.54225e-16 0)
(1 -7.60881e-15 0)
(1 -1.23093e-14 0)
(1 1.43342e-15 0)
(1 -3.21076e-16 0)
(1 6.60323e-16 0)
(1 -1.20391e-15 0)
(1 7.58559e-16 0)
(1 -3.7417e-15 0)
(1 -4.89539e-15 0)
(1 -7.61487e-16 0)
(1 2.32425e-15 0)
(1 1.70022e-15 0)
(1 -2.2581e-15 0)
(1 7.73783e-16 0)
(1 2.22167e-15 0)
(1 6.38422e-15 0)
(1 3.0939e-15 0)
(1 -1.2465e-15 0)
(1 6.99765e-16 0)
(1 -4.36252e-15 0)
(1 -6.90563e-15 0)
(1 -3.43964e-15 0)
(1 2.035e-15 0)
(1 5.02267e-15 0)
(1 2.099e-15 0)
(1 1.85476e-15 0)
(1 3.6767e-15 0)
(1 -1.02669e-15 0)
(1 1.16411e-15 0)
(1 -5.09394e-15 0)
(1 -1.46009e-15 0)
(1 2.24969e-15 0)
(1 3.65176e-15 0)
(1 2.86904e-15 0)
(1 1.98489e-15 0)
(1 -1.6051e-15 0)
(1 -1.48589e-15 0)
(1 3.54819e-15 0)
(1 -1.90593e-15 0)
(1 6.63165e-16 0)
(1 8.10833e-15 0)
(1 2.29114e-15 0)
(1 -5.96303e-15 0)
(1 -5.37627e-15 0)
(1 2.20793e-15 0)
(1 2.0732e-16 0)
(1 4.90113e-15 0)
(1 1.08587e-15 0)
(1 -2.36897e-16 0)
(1 -5.27019e-15 0)
(1 -1.6638e-15 0)
(1 4.11506e-15 0)
(1 2.88984e-15 0)
(1 -3.83279e-15 0)
(1 -3.41826e-15 0)
(1 -2.82053e-15 0)
(1 8.02078e-16 0)
(1 -7.99541e-16 0)
(1 4.83036e-15 0)
(1 -4.20238e-16 0)
(1 -3.66016e-15 0)
(1 -2.65834e-15 0)
(1 2.4852e-15 0)
(1 -5.56793e-15 0)
(1 3.73957e-15 0)
(1 -3.25935e-15 0)
(1 3.19676e-15 0)
(1 3.54029e-15 0)
(1 -2.88822e-15 0)
(1 8.96908e-16 0)
(1 -1.54304e-16 0)
(1 -6.8259e-15 0)
(1 5.52131e-15 0)
(1 5.04599e-15 0)
(1 7.69466e-15 0)
(1 2.41585e-15 0)
(1 2.17865e-16 0)
(1 -3.70199e-15 0)
(1 -3.5388e-15 0)
(1 1.72068e-15 0)
(1 3.15022e-15 0)
(1 6.68005e-16 0)
(1 4.12502e-16 0)
(1 -1.00043e-15 0)
(1 3.01714e-15 0)
(1 4.41816e-15 0)
(1 1.11307e-15 0)
(1 5.22741e-17 0)
(1 2.01994e-15 0)
(1 3.12482e-16 0)
(1 1.49921e-15 0)
(1 2.8264e-15 0)
(1 -4.47014e-15 0)
(1 -6.8921e-15 0)
(1 -1.68688e-15 0)
(1 4.98878e-15 0)
(1 4.49684e-15 0)
(1 3.32673e-15 0)
(1 7.45331e-15 0)
(1 4.76828e-15 0)
(1 6.89466e-15 0)
(1 -2.3235e-15 0)
(1 -2.18019e-15 0)
(1 -9.99583e-16 0)
(1 -9.21749e-15 0)
(1 1.44924e-15 0)
(1 -6.05858e-17 0)
(1 1.14061e-15 0)
(1 -1.99465e-15 0)
(1 -6.35014e-15 0)
(1 -3.35073e-15 0)
(1 -4.87293e-15 0)
(1 3.12223e-16 0)
(1 3.90319e-15 0)
(1 7.96411e-15 0)
(1 6.71153e-15 0)
(1 5.7583e-15 0)
(1 7.96183e-16 0)
(1 -1.13989e-15 0)
(1 -5.63237e-15 0)
(1 -7.3103e-15 0)
(1 -5.01123e-15 0)
(1 1.01583e-15 0)
(1 4.20209e-15 0)
(1 9.35893e-16 0)
(1 1.50518e-16 0)
(1 2.06043e-15 0)
(1 2.32052e-15 0)
(1 8.39602e-16 0)
(1 -3.08937e-15 0)
(1 3.49906e-16 0)
(1 -1.20186e-15 0)
(1 -7.60061e-16 0)
(1 2.65084e-16 0)
(1 -1.09863e-15 0)
(1 6.83946e-16 0)
(1 -4.11936e-15 0)
(1 2.59371e-15 0)
(1 -2.01123e-15 0)
(1 1.7579e-15 0)
(1 1.32904e-15 0)
(1 -4.15255e-16 0)
(1 -2.40414e-15 0)
(1 -7.00016e-15 0)
(1 1.63765e-15 0)
(1 1.27807e-15 0)
(1 4.66594e-15 0)
(1 3.47886e-15 0)
(1 2.81183e-16 0)
(1 -4.59484e-15 0)
(1 -2.94987e-15 0)
(1 1.8474e-15 0)
(1 -7.20243e-16 0)
(1 -1.88157e-15 0)
(1 -4.72107e-15 0)
(1 2.03324e-15 0)
(1 5.87316e-16 0)
(1 -9.5529e-16 0)
(1 3.67057e-15 0)
(1 -3.38014e-15 0)
(1 -3.8674e-15 0)
(1 -1.83094e-16 0)
(1 -3.80618e-15 0)
(1 -4.77013e-15 0)
(1 -5.44309e-15 0)
(1 -3.75845e-15 0)
(1 3.53204e-15 0)
(1 7.57886e-15 0)
(1 -1.03219e-15 0)
(1 6.41603e-15 0)
(1 9.20703e-16 0)
(1 7.65434e-16 0)
(1 5.5718e-15 0)
(1 6.43976e-15 0)
(1 7.60292e-15 0)
(1 -3.46499e-15 0)
(1 4.66078e-16 0)
(1 -6.27563e-15 0)
(1 1.84374e-15 0)
(1 -2.89876e-15 0)
(1 2.3499e-16 0)
(1 6.03229e-15 0)
(1 5.95585e-15 0)
(1 2.97223e-15 0)
(1 1.00672e-14 0)
(1 1.24029e-14 0)
(1 9.62484e-16 0)
(1 -2.22749e-15 0)
(1 9.73015e-16 0)
(1 8.05132e-16 0)
(1 -4.15487e-16 0)
(1 5.52054e-17 0)
(1 -5.02923e-15 0)
(1 -1.18603e-14 0)
(1 -4.14438e-15 0)
(1 2.76065e-15 0)
(1 4.03674e-15 0)
(1 9.94709e-15 0)
(1 9.24105e-15 0)
(1 5.45994e-15 0)
(1 1.27716e-15 0)
(1 1.997e-15 0)
(1 -6.95679e-15 0)
(1 -2.92154e-15 0)
(1 -2.4966e-15 0)
(1 6.20517e-15 0)
(1 5.1169e-15 0)
(1 6.86978e-15 0)
(1 -2.95977e-15 0)
(1 -5.24896e-15 0)
(1 -5.30498e-15 0)
(1 5.36341e-16 0)
(1 5.81108e-16 0)
(1 3.23198e-15 0)
(1 4.30999e-15 0)
(1 7.58826e-16 0)
(1 4.62754e-15 0)
(1 -4.24847e-16 0)
(1 -6.9228e-15 0)
(1 -5.58666e-15 0)
(1 4.49647e-16 0)
(1 -3.23426e-15 0)
(1 1.57878e-15 0)
(1 -6.76946e-17 0)
(1 2.04628e-15 0)
(1 2.11459e-15 0)
(1 -3.43345e-15 0)
(1 -1.15459e-15 0)
(1 -4.53424e-15 0)
(1 -4.34499e-16 0)
(1 -4.55714e-15 0)
(1 -2.90007e-15 0)
(1 -6.33838e-15 0)
(1 -7.23079e-15 0)
(1 -5.69152e-15 0)
(1 -4.08424e-16 0)
(1 2.72985e-15 0)
(1 6.04087e-15 0)
(1 2.90401e-15 0)
(1 3.2572e-15 0)
(1 9.67406e-16 0)
(1 -6.80675e-16 0)
(1 -2.9187e-15 0)
(1 -2.85419e-15 0)
(1 -1.88039e-15 0)
(1 4.6569e-15 0)
(1 6.37146e-15 0)
(1 9.68242e-15 0)
(1 3.60903e-15 0)
(1 2.23667e-15 0)
(1 3.75195e-16 0)
(1 4.34126e-16 0)
(1 9.25419e-16 0)
(1 -2.67321e-15 0)
(1 1.13167e-15 0)
(1 1.45404e-16 0)
(1 -4.10607e-15 0)
(1 -4.29864e-15 0)
(1 -4.09733e-15 0)
(1 -4.4394e-15 0)
(1 -2.41162e-15 0)
(1 3.91295e-15 0)
(1 -1.86827e-15 0)
(1 -2.57701e-16 0)
(1 -4.89722e-15 0)
(1 9.83794e-15 0)
(1 -1.98799e-15 0)
(1 -8.05413e-16 0)
(1 -8.68546e-15 0)
(1 -1.04693e-14 0)
(1 -3.25518e-16 0)
(1 6.09698e-15 0)
(1 3.5877e-15 0)
(1 6.40316e-15 0)
(1 -9.66884e-16 0)
(1 7.4557e-15 0)
(1 -2.7446e-15 0)
(1 4.19423e-16 0)
(1 -1.46488e-15 0)
(1 -4.63298e-15 0)
(1 -2.29314e-15 0)
(1 2.71345e-16 0)
(1 -4.89443e-15 0)
(1 8.69661e-15 0)
(1 1.50017e-14 0)
(1 1.67432e-14 0)
(1 3.139e-15 0)
(1 7.05956e-16 0)
(1 1.26543e-15 0)
(1 3.85426e-15 0)
(1 1.36126e-15 0)
(1 -1.81254e-15 0)
(1 -4.54008e-15 0)
(1 -1.56893e-15 0)
(1 1.86084e-16 0)
(1 -2.13087e-15 0)
(1 -4.64417e-16 0)
(1 1.90092e-15 0)
(1 1.32019e-15 0)
(1 4.14202e-15 0)
(1 -1.32278e-15 0)
(1 -2.18447e-15 0)
(1 -3.63693e-16 0)
(1 -2.24627e-15 0)
(1 4.30686e-15 0)
(1 -3.05346e-15 0)
(1 -3.72052e-16 0)
(1 6.99949e-16 0)
(1 -2.35043e-15 0)
(1 4.02123e-16 0)
(1 -1.82695e-15 0)
(1 1.73954e-15 0)
(1 -3.44462e-15 0)
(1 7.82732e-16 0)
(1 -5.77654e-16 0)
(1 4.50671e-15 0)
(1 6.63738e-15 0)
(1 1.05586e-15 0)
(1 -4.63853e-15 0)
(1 2.77285e-15 0)
(1 1.38813e-15 0)
(1 -1.08508e-15 0)
(1 3.15419e-15 0)
(1 5.79389e-15 0)
(1 -2.3175e-15 0)
(1 4.08778e-15 0)
(1 -8.61917e-17 0)
(1 -1.56704e-15 0)
(1 -3.74397e-15 0)
(1 4.87517e-16 0)
(1 -3.51599e-15 0)
(1 -1.07089e-15 0)
(1 2.84274e-15 0)
(1 -2.47245e-15 0)
(1 1.01562e-15 0)
(1 -2.90303e-15 0)
(1 1.88538e-15 0)
(1 -1.03675e-15 0)
(1 1.8358e-15 0)
(1 4.78738e-15 0)
(1 5.92529e-15 0)
(1 -4.0337e-16 0)
(1 -2.27569e-15 0)
(1 1.25442e-15 0)
(1 2.52772e-15 0)
(1 5.45542e-15 0)
(1 2.4668e-15 0)
(1 6.24877e-15 0)
(1 4.09562e-15 0)
(1 2.40491e-15 0)
(1 -3.25122e-15 0)
(1 -4.33931e-16 0)
(1 -5.5204e-16 0)
(1 2.39108e-15 0)
(1 4.29933e-15 0)
(1 -1.16089e-15 0)
(1 -4.5153e-15 0)
(1 -1.23135e-15 0)
(1 -2.48354e-15 0)
(1 1.27821e-15 0)
(1 3.428e-15 0)
(1 -1.98751e-15 0)
(1 2.31098e-15 0)
(1 2.13711e-15 0)
(1 1.85954e-15 0)
(1 -4.25043e-15 0)
(1 -4.87391e-16 0)
(1 -7.72407e-15 0)
(1 -5.80968e-15 0)
(1 -1.12796e-14 0)
(1 7.51717e-16 0)
(1 4.48055e-15 0)
(1 3.25325e-15 0)
(1 1.17868e-14 0)
(1 2.85021e-15 0)
(1 8.38782e-15 0)
(1 -3.16161e-15 0)
(1 -2.31119e-16 0)
(1 -1.05269e-14 0)
(1 -5.38012e-15 0)
(1 9.08235e-16 0)
(1 1.08893e-14 0)
(1 8.67354e-15 0)
(1 1.57386e-14 0)
(1 6.41206e-15 0)
(1 2.14087e-15 0)
(1 5.00478e-17 0)
(1 8.75931e-16 0)
(1 2.44752e-15 0)
(1 1.85264e-15 0)
(1 1.90275e-15 0)
(1 -3.52652e-15 0)
(1 -1.01515e-14 0)
(1 -1.78073e-15 0)
(1 3.29662e-15 0)
(1 7.3284e-15 0)
(1 7.40734e-15 0)
(1 7.47883e-15 0)
(1 1.47047e-15 0)
(1 4.12467e-15 0)
(1 -2.07412e-15 0)
(1 -2.42437e-15 0)
(1 -1.52035e-15 0)
(1 5.24873e-15 0)
(1 7.28058e-15 0)
(1 3.08724e-15 0)
(1 4.48021e-16 0)
(1 -3.08634e-15 0)
(1 -2.58504e-15 0)
(1 -4.42858e-15 0)
(1 5.06199e-16 0)
(1 -8.75405e-17 0)
(1 6.76127e-16 0)
(1 -9.01908e-16 0)
(1 -2.40126e-15 0)
(1 4.50399e-15 0)
(1 5.37209e-15 0)
(1 3.44499e-15 0)
(1 3.78127e-15 0)
(1 6.83713e-15 0)
(1 1.33223e-15 0)
(1 1.19731e-15 0)
(1 5.49963e-15 0)
(1 4.90949e-15 0)
(1 -6.50885e-15 0)
(1 -2.47288e-15 0)
(1 1.18537e-15 0)
(1 3.60481e-15 0)
(1 1.0105e-14 0)
(1 6.66124e-15 0)
(1 1.12602e-14 0)
(1 3.42814e-15 0)
(1 -7.73447e-16 0)
(1 -1.13144e-15 0)
(1 -2.50354e-16 0)
(1 -6.97948e-15 0)
(1 -1.35764e-15 0)
(1 -9.89099e-16 0)
(1 -1.14474e-16 0)
(1 2.12359e-15 0)
(1 8.70274e-16 0)
(1 1.20096e-15 0)
(1 3.99056e-15 0)
(1 2.15836e-15 0)
(1 2.77898e-15 0)
(1 9.86422e-16 0)
(1 -2.42009e-15 0)
(1 -8.64867e-16 0)
(1 3.26019e-15 0)
(1 4.2026e-15 0)
(1 4.04476e-16 0)
(1 -7.38851e-16 0)
(1 2.14738e-15 0)
(1 4.86648e-15 0)
(1 2.59754e-15 0)
(1 -9.96546e-16 0)
(1 4.70339e-15 0)
(1 4.42233e-15 0)
(1 6.20334e-15 0)
(1 9.09261e-15 0)
(1 4.94433e-15 0)
(1 -1.3359e-15 0)
(1 -5.11783e-16 0)
(1 7.71092e-15 0)
(1 1.64641e-15 0)
(1 -3.80969e-15 0)
(1 -1.97684e-15 0)
(1 -4.69101e-15 0)
(1 -2.36966e-15 0)
(1 -4.75658e-16 0)
(1 1.41267e-15 0)
(1 -1.02652e-15 0)
(1 5.51233e-15 0)
(1 1.78382e-15 0)
(1 6.89533e-15 0)
(1 1.45847e-16 0)
(1 3.00698e-15 0)
(1 -3.43181e-15 0)
(1 -3.12503e-15 0)
(1 -2.80469e-15 0)
(1 1.03441e-14 0)
(1 1.5899e-14 0)
(1 1.91167e-14 0)
(1 2.1923e-15 0)
(1 -2.03186e-15 0)
(1 -8.83276e-15 0)
(1 -3.26465e-15 0)
(1 1.60616e-16 0)
(1 1.75975e-15 0)
(1 -1.36312e-15 0)
(1 3.03649e-15 0)
(1 -6.54127e-16 0)
(1 3.58405e-15 0)
(1 -4.32634e-15 0)
(1 -2.53738e-15 0)
(1 4.04069e-15 0)
(1 5.23629e-15 0)
(1 3.94498e-15 0)
(1 2.87579e-15 0)
(1 7.22613e-15 0)
(1 2.42619e-15 0)
(1 9.61037e-15 0)
(1 -1.89705e-15 0)
(1 1.11092e-14 0)
(1 4.56977e-15 0)
(1 5.77461e-15 0)
(1 -1.27584e-15 0)
(1 -9.11524e-15 0)
(1 -8.16635e-15 0)
(1 1.58287e-16 0)
(1 4.9142e-15 0)
(1 -3.63342e-15 0)
(1 -6.56905e-15 0)
(1 -2.23828e-15 0)
(1 -2.73449e-15 0)
(1 2.69935e-15 0)
(1 3.54629e-15 0)
(1 -5.84375e-16 0)
(1 3.7014e-15 0)
(1 1.70068e-15 0)
(1 5.80343e-15 0)
(1 9.12468e-15 0)
(1 7.03848e-15 0)
(1 4.72032e-16 0)
(1 3.99617e-15 0)
(1 -4.06335e-15 0)
(1 -4.14608e-15 0)
(1 -1.13366e-15 0)
(1 2.95709e-15 0)
(1 2.32952e-15 0)
(1 4.32381e-15 0)
(1 1.60974e-15 0)
(1 -5.94364e-15 0)
(1 -3.08959e-15 0)
(1 -2.05346e-15 0)
(1 3.72684e-15 0)
(1 1.12024e-14 0)
(1 8.23461e-15 0)
(1 8.93964e-15 0)
(1 2.39139e-15 0)
(1 1.6341e-15 0)
(1 1.41924e-15 0)
(1 1.55785e-15 0)
(1 2.08953e-15 0)
(1 1.61175e-16 0)
(1 5.64068e-15 0)
(1 2.77724e-15 0)
(1 5.64434e-15 0)
(1 4.56406e-15 0)
(1 6.95168e-15 0)
(1 3.51404e-15 0)
(1 1.72297e-15 0)
(1 8.43702e-15 0)
(1 6.1392e-15 0)
(1 2.8669e-15 0)
(1 9.15879e-16 0)
(1 9.81931e-15 0)
(1 1.02307e-14 0)
(1 8.56138e-15 0)
(1 7.91163e-15 0)
(1 6.36643e-15 0)
(1 1.245e-15 0)
(1 2.52464e-16 0)
(1 -2.84531e-15 0)
(1 2.32143e-16 0)
(1 6.47757e-15 0)
(1 -7.49764e-15 0)
(1 -4.77724e-16 0)
(1 -5.18262e-15 0)
(1 7.43222e-16 0)
(1 3.37478e-15 0)
(1 -5.42831e-15 0)
(1 5.02571e-15 0)
(1 -4.01176e-15 0)
(1 1.14179e-14 0)
(1 -2.92607e-15 0)
(1 6.87331e-15 0)
(1 -3.02961e-15 0)
(1 5.43765e-15 0)
(1 3.5232e-15 0)
(1 1.63377e-14 0)
(1 -5.53651e-16 0)
(1 3.22852e-15 0)
(1 -4.94085e-15 0)
(1 -7.08227e-15 0)
(1 -9.6076e-15 0)
(1 1.95178e-15 0)
(1 9.30003e-16 0)
(1 9.52167e-15 0)
(1 6.37133e-15 0)
(1 1.62726e-15 0)
(1 -3.79908e-15 0)
(1 1.382e-15 0)
(1 -2.38769e-15 0)
(1 -3.25382e-15 0)
(1 -8.58103e-15 0)
(1 2.13441e-15 0)
(1 -1.2972e-15 0)
(1 8.04324e-16 0)
(1 1.10987e-14 0)
(1 1.54148e-14 0)
(1 5.8593e-15 0)
(1 -2.61272e-15 0)
(1 -2.4779e-15 0)
(1 -9.707e-16 0)
(1 6.14014e-15 0)
(1 2.70335e-15 0)
(1 2.52478e-15 0)
(1 -9.56898e-16 0)
(1 6.70223e-16 0)
(1 2.48959e-15 0)
(1 -1.44277e-15 0)
(1 -5.74964e-15 0)
(1 1.34883e-15 0)
(1 4.46888e-15 0)
(1 6.04305e-15 0)
(1 1.56781e-15 0)
(1 -1.80732e-15 0)
(1 -6.72744e-16 0)
(1 3.16191e-15 0)
(1 4.61411e-15 0)
(1 1.54507e-14 0)
(1 4.48739e-15 0)
(1 4.2602e-15 0)
(1 3.80166e-15 0)
(1 -2.69826e-15 0)
(1 -3.30966e-15 0)
(1 2.64237e-15 0)
(1 -9.75251e-16 0)
(1 1.64642e-15 0)
(1 1.15406e-15 0)
(1 8.01773e-16 0)
(1 5.28932e-15 0)
(1 4.15115e-15 0)
(1 3.17857e-15 0)
(1 7.38192e-15 0)
(1 6.73198e-15 0)
(1 7.0498e-15 0)
(1 7.71777e-15 0)
(1 1.10487e-15 0)
(1 2.27676e-15 0)
(1 1.27747e-15 0)
(1 -2.5868e-15 0)
(1 -1.75269e-15 0)
(1 -3.36187e-16 0)
(1 4.22715e-15 0)
(1 2.44272e-15 0)
(1 -1.24792e-15 0)
(1 4.20206e-15 0)
(1 5.65906e-15 0)
(1 2.62973e-15 0)
(1 6.3469e-15 0)
(1 3.37307e-15 0)
(1 4.62914e-15 0)
(1 4.44834e-15 0)
(1 6.57548e-15 0)
(1 6.33592e-15 0)
(1 8.29712e-15 0)
(1 8.77376e-15 0)
(1 8.32303e-15 0)
(1 1.4967e-14 0)
(1 -2.293e-15 0)
(1 1.26886e-15 0)
(1 -5.44127e-15 0)
(1 -6.71573e-15 0)
(1 -6.19382e-15 0)
(1 -5.2437e-15 0)
(1 1.10986e-17 0)
(1 5.44821e-15 0)
(1 -2.10333e-15 0)
(1 -6.64057e-17 0)
(1 5.29556e-15 0)
(1 1.06914e-14 0)
(1 2.45407e-15 0)
(1 7.3364e-15 0)
(1 -1.57e-15 0)
(1 -1.92618e-15 0)
(1 -1.3734e-15 0)
(1 9.81422e-15 0)
(1 1.66828e-15 0)
(1 8.41756e-16 0)
(1 2.81229e-15 0)
(1 1.02931e-14 0)
(1 8.93481e-15 0)
(1 3.51191e-15 0)
(1 -1.52015e-15 0)
(1 4.52109e-15 0)
(1 -3.88144e-15 0)
(1 -1.85078e-15 0)
(1 -2.27328e-15 0)
(1 -5.33613e-15 0)
(1 -5.61326e-15 0)
(1 -6.39122e-15 0)
(1 -8.65504e-15 0)
(1 -2.41489e-16 0)
(1 9.44402e-16 0)
(1 5.54597e-15 0)
(1 5.81846e-15 0)
(1 4.80023e-15 0)
(1 2.05471e-15 0)
(1 2.1515e-15 0)
(1 -5.07735e-15 0)
(1 1.7717e-15 0)
(1 -3.26487e-15 0)
(1 5.72965e-15 0)
(1 1.52371e-14 0)
(1 1.49373e-14 0)
(1 8.5192e-15 0)
(1 -1.1563e-15 0)
(1 -8.34715e-15 0)
(1 -4.19241e-15 0)
(1 4.47473e-15 0)
(1 3.87102e-15 0)
(1 1.46837e-15 0)
(1 4.32849e-15 0)
(1 6.06422e-15 0)
(1 -1.21881e-15 0)
(1 2.34616e-15 0)
(1 1.5128e-15 0)
(1 8.43994e-15 0)
(1 3.47034e-15 0)
(1 3.59929e-15 0)
(1 -2.53154e-16 0)
(1 -2.15328e-16 0)
(1 -5.74722e-15 0)
(1 -1.66212e-15 0)
(1 -1.21997e-15 0)
(1 1.02906e-14 0)
(1 1.33477e-14 0)
(1 1.17893e-14 0)
(1 1.611e-14 0)
(1 1.02811e-14 0)
(1 1.10565e-14 0)
(1 8.32091e-15 0)
(1 3.69949e-15 0)
(1 1.63999e-15 0)
(1 1.23679e-15 0)
(1 6.15752e-15 0)
(1 3.72119e-15 0)
(1 2.82766e-15 0)
(1 4.73709e-15 0)
(1 5.72866e-15 0)
(1 3.88831e-15 0)
(1 -2.47312e-16 0)
(1 -2.87282e-16 0)
(1 -1.61934e-15 0)
(1 -3.15292e-15 0)
(1 -3.18689e-15 0)
(1 -3.07269e-16 0)
(1 5.38087e-16 0)
(1 4.474e-15 0)
(1 3.369e-15 0)
(1 8.54061e-17 0)
(1 9.71625e-15 0)
(1 8.94336e-15 0)
(1 1.71718e-14 0)
(1 1.70295e-14 0)
(1 1.5303e-14 0)
(1 1.70819e-14 0)
(1 2.06559e-14 0)
(1 2.1942e-14 0)
(1 5.6121e-16 0)
(1 3.21585e-15 0)
(1 1.72247e-15 0)
(1 1.67841e-15 0)
(1 -5.5217e-15 0)
(1 -1.54493e-15 0)
(1 -4.95273e-15 0)
(1 2.89349e-15 0)
(1 5.60967e-15 0)
(1 -7.89497e-15 0)
(1 -3.92634e-15 0)
(1 2.04349e-16 0)
(1 4.7001e-15 0)
(1 2.38967e-16 0)
(1 8.48611e-15 0)
(1 -4.91447e-16 0)
(1 5.90155e-15 0)
(1 6.78264e-15 0)
(1 8.32693e-15 0)
(1 -5.51058e-15 0)
(1 -8.05459e-15 0)
(1 -5.1714e-15 0)
(1 3.88252e-15 0)
(1 3.52804e-15 0)
(1 4.74763e-15 0)
(1 3.78247e-15 0)
(1 6.04153e-15 0)
(1 -3.33735e-15 0)
(1 -3.43393e-15 0)
(1 -1.16474e-15 0)
(1 -1.14265e-17 0)
(1 9.46307e-16 0)
(1 -1.19532e-17 0)
(1 -3.29239e-15 0)
(1 -4.66263e-15 0)
(1 -2.47092e-15 0)
(1 9.52938e-15 0)
(1 8.75181e-15 0)
(1 -4.87398e-15 0)
(1 -5.21375e-15 0)
(1 -1.00891e-15 0)
(1 6.68153e-15 0)
(1 7.95801e-15 0)
(1 1.05567e-14 0)
(1 4.73311e-15 0)
(1 2.33993e-15 0)
(1 -6.37625e-16 0)
(1 -4.01023e-15 0)
(1 6.63428e-16 0)
(1 3.21513e-15 0)
(1 4.22173e-15 0)
(1 2.08919e-15 0)
(1 2.12136e-15 0)
(1 1.23128e-15 0)
(1 2.43018e-15 0)
(1 7.92066e-15 0)
(1 7.75433e-15 0)
(1 3.87651e-15 0)
(1 -2.13866e-16 0)
(1 8.06947e-15 0)
(1 -3.41162e-16 0)
(1 5.6215e-15 0)
(1 8.92999e-15 0)
(1 1.54274e-15 0)
(1 3.60413e-15 0)
(1 5.10519e-15 0)
(1 7.12677e-15 0)
(1 1.21294e-14 0)
(1 1.40536e-14 0)
(1 8.89546e-15 0)
(1 5.08434e-15 0)
(1 5.46807e-15 0)
(1 5.17159e-15 0)
(1 3.7697e-16 0)
(1 4.00624e-15 0)
(1 4.69532e-15 0)
(1 8.0611e-15 0)
(1 2.29732e-15 0)
(1 6.60533e-15 0)
(1 4.92734e-15 0)
(1 4.38372e-15 0)
(1 -1.5378e-15 0)
(1 1.71632e-16 0)
(1 -2.44804e-15 0)
(1 -1.25931e-15 0)
(1 2.24289e-15 0)
(1 2.01442e-15 0)
(1 1.36197e-15 0)
(1 3.67772e-15 0)
(1 6.58894e-15 0)
(1 9.95411e-15 0)
(1 -4.97625e-16 0)
(1 1.30932e-14 0)
(1 7.67893e-15 0)
(1 1.30736e-14 0)
(1 1.30399e-14 0)
(1 1.17756e-14 0)
(1 1.95849e-14 0)
(1 3.37768e-14 0)
(1 2.40143e-14 0)
(1 2.64746e-15 0)
(1 -2.20266e-15 0)
(1 1.17735e-15 0)
(1 -3.58204e-15 0)
(1 -3.63076e-15 0)
(1 -2.15336e-15 0)
(1 -7.29766e-15 0)
(1 -2.30864e-15 0)
(1 6.47009e-15 0)
(1 -7.72113e-15 0)
(1 -6.97038e-15 0)
(1 -1.14105e-14 0)
(1 -4.49796e-16 0)
(1 3.17792e-15 0)
(1 1.24554e-14 0)
(1 2.08553e-14 0)
(1 1.53163e-14 0)
(1 6.00307e-15 0)
(1 8.57396e-15 0)
(1 -2.25915e-15 0)
(1 -2.90198e-15 0)
(1 -1.07924e-14 0)
(1 -5.94164e-15 0)
(1 -1.16727e-14 0)
(1 -8.01225e-15 0)
(1 -8.29976e-15 0)
(1 4.77181e-15 0)
(1 1.68009e-15 0)
(1 5.95406e-15 0)
(1 2.41563e-15 0)
(1 -2.81123e-15 0)
(1 -1.0723e-14 0)
(1 1.91008e-15 0)
(1 4.97292e-16 0)
(1 -2.11514e-15 0)
(1 1.81867e-16 0)
(1 9.43719e-15 0)
(1 4.30298e-15 0)
(1 -6.56618e-15 0)
(1 -2.45189e-15 0)
(1 -1.40254e-16 0)
(1 5.04981e-15 0)
(1 5.68753e-15 0)
(1 1.16681e-14 0)
(1 7.14135e-15 0)
(1 5.46234e-15 0)
(1 6.94975e-15 0)
(1 4.16271e-15 0)
(1 2.10312e-15 0)
(1 -2.73368e-15 0)
(1 1.18302e-15 0)
(1 -1.10898e-15 0)
(1 2.90597e-15 0)
(1 5.9101e-15 0)
(1 5.10959e-15 0)
(1 3.52914e-15 0)
(1 4.64829e-15 0)
(1 1.58256e-15 0)
(1 5.72004e-15 0)
(1 2.94504e-15 0)
(1 1.87653e-15 0)
(1 4.07312e-15 0)
(1 4.77805e-15 0)
(1 8.99271e-16 0)
(1 6.48411e-15 0)
(1 1.4361e-14 0)
(1 5.44727e-15 0)
(1 5.2367e-15 0)
(1 9.40594e-15 0)
(1 1.01075e-14 0)
(1 1.20487e-14 0)
(1 9.81063e-15 0)
(1 3.9074e-15 0)
(1 -2.81304e-15 0)
(1 1.23571e-15 0)
(1 -1.39087e-15 0)
(1 6.76998e-15 0)
(1 1.43868e-14 0)
(1 1.68242e-14 0)
(1 3.40051e-15 0)
(1 2.76899e-15 0)
(1 1.17497e-15 0)
(1 3.03787e-16 0)
(1 1.65533e-15 0)
(1 -3.31521e-15 0)
(1 -6.56574e-15 0)
(1 -9.06466e-16 0)
(1 5.85042e-15 0)
(1 1.30332e-15 0)
(1 6.23173e-15 0)
(1 7.23393e-15 0)
(1 8.23421e-15 0)
(1 7.68757e-15 0)
(1 1.12406e-14 0)
(1 6.63426e-15 0)
(1 1.90477e-15 0)
(1 1.08781e-14 0)
(1 1.25258e-14 0)
(1 2.35714e-14 0)
(1 1.74052e-14 0)
(1 3.20207e-15 0)
(1 -3.95928e-15 0)
(1 1.89431e-15 0)
(1 -2.84904e-15 0)
(1 1.31711e-16 0)
(1 -1.76382e-15 0)
(1 -5.25569e-15 0)
(1 -4.74117e-15 0)
(1 -5.78337e-15 0)
(1 -1.82104e-15 0)
(1 5.87427e-15 0)
(1 4.90281e-15 0)
(1 -5.12672e-16 0)
(1 -8.48028e-16 0)
(1 -4.04287e-16 0)
(1 9.49705e-15 0)
(1 8.97359e-15 0)
(1 4.66742e-15 0)
(1 -1.61477e-16 0)
(1 -1.12985e-14 0)
(1 3.36765e-15 0)
(1 2.05033e-15 0)
(1 5.60351e-15 0)
(1 4.32539e-15 0)
(1 3.42576e-15 0)
(1 -4.33965e-15 0)
(1 2.51832e-15 0)
(1 3.07806e-15 0)
(1 1.70586e-15 0)
(1 2.01223e-17 0)
(1 -6.21584e-15 0)
(1 -6.61098e-15 0)
(1 -5.23526e-15 0)
(1 -4.97587e-16 0)
(1 -3.67688e-16 0)
(1 -3.41531e-15 0)
(1 -1.39356e-15 0)
(1 2.80125e-15 0)
(1 -3.69607e-15 0)
(1 5.14768e-15 0)
(1 6.45278e-15 0)
(1 5.39235e-15 0)
(1 5.45215e-15 0)
(1 3.50323e-15 0)
(1 1.02605e-15 0)
(1 1.18392e-14 0)
(1 1.01105e-14 0)
(1 8.32693e-15 0)
(1 7.91013e-16 0)
(1 -6.44785e-15 0)
(1 -3.10595e-15 0)
(1 1.35294e-15 0)
(1 4.44242e-15 0)
(1 1.13519e-14 0)
(1 1.43344e-14 0)
(1 -3.03179e-15 0)
(1 -8.6991e-15 0)
(1 2.72696e-15 0)
(1 7.92511e-15 0)
(1 6.06627e-15 0)
(1 1.52885e-15 0)
(1 2.18723e-15 0)
(1 4.37637e-16 0)
(1 2.98869e-15 0)
(1 7.1591e-15 0)
(1 1.04019e-14 0)
(1 6.52975e-15 0)
(1 5.8206e-15 0)
(1 4.77347e-15 0)
(1 9.14957e-15 0)
(1 1.42574e-14 0)
(1 1.3616e-14 0)
(1 2.21641e-15 0)
(1 4.48098e-16 0)
(1 -5.19941e-15 0)
(1 8.20654e-16 0)
(1 4.66059e-15 0)
(1 7.36454e-15 0)
(1 4.46295e-15 0)
(1 5.25976e-15 0)
(1 5.29521e-15 0)
(1 1.4421e-14 0)
(1 4.27965e-15 0)
(1 4.84233e-15 0)
(1 -3.92004e-16 0)
(1 -4.91664e-15 0)
(1 1.96056e-15 0)
(1 -1.63316e-15 0)
(1 -2.87729e-15 0)
(1 8.90197e-15 0)
(1 -1.26627e-15 0)
(1 7.34595e-15 0)
(1 9.99458e-15 0)
(1 1.35626e-14 0)
(1 1.34143e-14 0)
(1 6.09161e-15 0)
(1 1.7791e-14 0)
(1 1.42613e-14 0)
(1 1.2426e-14 0)
(1 1.17919e-14 0)
(1 4.22271e-15 0)
(1 -5.58679e-16 0)
(1 -5.44079e-15 0)
(1 1.73332e-16 0)
(1 -3.06255e-15 0)
(1 2.48432e-16 0)
(1 -3.71802e-15 0)
(1 -2.36735e-15 0)
(1 -4.9057e-15 0)
(1 6.80959e-15 0)
(1 4.26349e-15 0)
(1 7.83672e-15 0)
(1 1.15522e-15 0)
(1 7.09088e-15 0)
(1 -4.88911e-15 0)
(1 4.92541e-16 0)
(1 -2.9801e-16 0)
(1 1.37218e-14 0)
(1 7.7152e-15 0)
(1 4.3071e-15 0)
(1 -3.87743e-15 0)
(1 -1.38593e-14 0)
(1 -1.60283e-14 0)
(1 -6.63645e-15 0)
(1 -6.44784e-15 0)
(1 6.09091e-15 0)
(1 -1.8123e-15 0)
(1 7.1784e-15 0)
(1 1.81233e-15 0)
(1 -9.45945e-16 0)
(1 -1.90787e-15 0)
(1 -6.51402e-16 0)
(1 -3.43361e-15 0)
(1 -8.15347e-15 0)
(1 -5.78708e-15 0)
(1 3.37038e-16 0)
(1 -7.16156e-15 0)
(1 -3.60333e-16 0)
(1 5.58019e-15 0)
(1 8.09123e-15 0)
(1 4.73532e-15 0)
(1 2.22958e-15 0)
(1 3.22797e-15 0)
(1 4.11741e-15 0)
(1 6.55783e-15 0)
(1 8.61164e-15 0)
(1 1.19571e-14 0)
(1 1.53877e-14 0)
(1 7.55035e-15 0)
(1 1.56526e-15 0)
(1 -7.85561e-15 0)
(1 -6.82687e-16 0)
(1 -1.72586e-15 0)
(1 1.51584e-15 0)
(1 2.97789e-15 0)
(1 1.42905e-15 0)
(1 -4.31688e-15 0)
(1 2.52963e-15 0)
(1 -5.09534e-15 0)
(1 7.74488e-16 0)
(1 1.11469e-15 0)
(1 4.74082e-15 0)
(1 9.03512e-15 0)
(1 1.24651e-14 0)
(1 1.0748e-14 0)
(1 9.73015e-15 0)
(1 5.5905e-15 0)
(1 4.8654e-15 0)
(1 7.31382e-16 0)
(1 -2.68409e-15 0)
(1 6.96726e-16 0)
(1 2.58245e-15 0)
(1 1.06801e-14 0)
(1 1.35248e-14 0)
(1 3.50753e-15 0)
(1 2.98454e-15 0)
(1 -2.50473e-15 0)
(1 -2.07617e-15 0)
(1 -1.67687e-15 0)
(1 5.25604e-15 0)
(1 2.84857e-15 0)
(1 8.40423e-15 0)
(1 6.4387e-15 0)
(1 6.52467e-15 0)
(1 5.43692e-15 0)
(1 1.29618e-14 0)
(1 -7.91848e-16 0)
(1 -3.21073e-15 0)
(1 1.79693e-15 0)
(1 1.79309e-15 0)
(1 6.93709e-15 0)
(1 3.44954e-15 0)
(1 1.21149e-15 0)
(1 4.18493e-15 0)
(1 6.05091e-15 0)
(1 6.73198e-15 0)
(1 8.95579e-15 0)
(1 1.16681e-14 0)
(1 7.50541e-15 0)
(1 9.90589e-15 0)
(1 -1.90331e-16 0)
(1 4.91212e-15 0)
(1 -3.95931e-15 0)
(1 -4.35543e-15 0)
(1 -3.26258e-15 0)
(1 -4.89459e-15 0)
(1 -3.60765e-15 0)
(1 3.50373e-15 0)
(1 9.16565e-15 0)
(1 1.11181e-14 0)
(1 1.88744e-15 0)
(1 -2.83209e-16 0)
(1 -3.50231e-15 0)
(1 -1.95463e-16 0)
(1 -1.22908e-16 0)
(1 -7.71093e-16 0)
(1 -2.4929e-15 0)
(1 1.27385e-15 0)
(1 1.36562e-15 0)
(1 6.55774e-15 0)
(1 -7.67646e-15 0)
(1 -1.28413e-15 0)
(1 -5.83599e-15 0)
(1 1.59431e-15 0)
(1 1.34468e-15 0)
(1 5.84645e-15 0)
(1 -4.68413e-15 0)
(1 -4.41558e-15 0)
(1 -4.24831e-15 0)
(1 -6.06701e-15 0)
(1 2.42279e-15 0)
(1 -2.94732e-15 0)
(1 -1.033e-14 0)
(1 -1.68595e-14 0)
(1 2.88097e-15 0)
(1 1.3671e-14 0)
(1 6.06266e-15 0)
(1 8.01963e-16 0)
(1 5.49622e-15 0)
(1 4.97175e-16 0)
(1 3.82135e-15 0)
(1 2.61193e-15 0)
(1 -5.02706e-16 0)
(1 -3.13256e-16 0)
(1 7.68718e-15 0)
(1 1.12154e-14 0)
(1 7.76422e-15 0)
(1 5.41992e-15 0)
(1 4.25605e-15 0)
(1 -5.38362e-16 0)
(1 -1.17612e-15 0)
(1 -3.73819e-15 0)
(1 3.66535e-16 0)
(1 -1.72926e-15 0)
(1 -4.7235e-15 0)
(1 9.28352e-15 0)
(1 1.15896e-14 0)
(1 6.11657e-15 0)
(1 3.3499e-16 0)
(1 4.06638e-15 0)
(1 3.91396e-15 0)
(1 4.0704e-15 0)
(1 3.04876e-15 0)
(1 4.2359e-15 0)
(1 5.06003e-15 0)
(1 1.62214e-14 0)
(1 1.10019e-14 0)
(1 1.0116e-14 0)
(1 2.73785e-15 0)
(1 -1.61362e-16 0)
(1 2.03103e-16 0)
(1 2.60517e-15 0)
(1 8.35101e-15 0)
(1 1.21883e-14 0)
(1 8.17677e-15 0)
(1 4.70792e-15 0)
(1 2.55894e-15 0)
(1 7.73357e-15 0)
(1 1.1523e-14 0)
(1 1.16631e-14 0)
(1 1.13823e-15 0)
(1 2.73062e-15 0)
(1 2.45061e-15 0)
(1 4.20559e-15 0)
(1 3.96909e-15 0)
(1 7.26389e-15 0)
(1 3.60511e-16 0)
(1 2.53204e-15 0)
(1 3.50614e-15 0)
(1 1.0028e-15 0)
(1 1.15687e-14 0)
(1 1.00008e-14 0)
(1 -2.41413e-15 0)
(1 8.10904e-16 0)
(1 5.38466e-15 0)
(1 8.07243e-15 0)
(1 7.84855e-15 0)
(1 9.32558e-15 0)
(1 7.98939e-15 0)
(1 1.01968e-14 0)
(1 5.74892e-16 0)
(1 -1.19661e-15 0)
(1 1.50892e-15 0)
(1 5.85377e-18 0)
(1 9.50087e-16 0)
(1 -1.21286e-14 0)
(1 -1.93891e-15 0)
(1 -1.32788e-14 0)
(1 5.48489e-15 0)
(1 7.81857e-15 0)
(1 5.57248e-15 0)
(1 4.24836e-15 0)
(1 5.3828e-15 0)
(1 -4.4182e-15 0)
(1 7.20226e-15 0)
(1 -3.74539e-15 0)
(1 -1.47825e-15 0)
(1 -1.2626e-14 0)
(1 -1.28244e-14 0)
(1 -7.66514e-15 0)
(1 -1.00215e-14 0)
(1 6.85841e-15 0)
(1 9.41295e-15 0)
(1 1.95231e-14 0)
(1 1.772e-14 0)
(1 4.92495e-15 0)
(1 2.70722e-15 0)
(1 -4.27029e-15 0)
(1 -1.11415e-14 0)
(1 -8.58979e-15 0)
(1 -1.13708e-15 0)
(1 -7.91552e-16 0)
(1 -9.66338e-15 0)
(1 -1.05295e-14 0)
(1 2.24649e-15 0)
(1 -6.42027e-16 0)
(1 1.36864e-14 0)
(1 5.31882e-15 0)
(1 2.07932e-16 0)
(1 4.13134e-16 0)
(1 2.94646e-15 0)
(1 6.88699e-15 0)
(1 2.89169e-16 0)
(1 -1.18202e-15 0)
(1 -2.79628e-16 0)
(1 5.46432e-15 0)
(1 5.27532e-15 0)
(1 2.30718e-16 0)
(1 9.78957e-16 0)
(1 2.42704e-15 0)
(1 6.88447e-15 0)
(1 2.12896e-15 0)
(1 1.29045e-15 0)
(1 4.88519e-15 0)
(1 4.06382e-15 0)
(1 2.87008e-15 0)
(1 9.30936e-15 0)
(1 6.26074e-15 0)
(1 5.03966e-15 0)
(1 -7.07003e-16 0)
(1 5.45294e-16 0)
(1 1.6378e-15 0)
(1 2.66625e-15 0)
(1 3.62333e-15 0)
(1 4.54218e-15 0)
(1 8.51831e-15 0)
(1 1.21324e-14 0)
(1 1.15923e-14 0)
(1 1.12995e-14 0)
(1 7.92234e-15 0)
(1 8.04463e-15 0)
(1 1.50406e-14 0)
(1 3.78117e-15 0)
(1 2.85725e-15 0)
(1 6.24914e-15 0)
(1 7.66151e-15 0)
(1 1.14505e-14 0)
(1 7.04947e-15 0)
(1 6.32225e-15 0)
(1 3.10516e-15 0)
(1 5.83525e-15 0)
(1 1.82759e-15 0)
(1 4.46942e-15 0)
(1 -5.35195e-16 0)
(1 2.82046e-15 0)
(1 1.37072e-15 0)
(1 7.35605e-16 0)
(1 -6.75292e-15 0)
(1 3.53181e-15 0)
(1 3.69582e-15 0)
(1 4.84667e-15 0)
(1 8.84858e-15 0)
(1 7.31093e-15 0)
(1 6.71175e-15 0)
(1 8.69913e-15 0)
(1 7.67509e-15 0)
(1 2.95209e-15 0)
(1 6.32569e-15 0)
(1 9.01112e-15 0)
(1 1.31904e-14 0)
(1 -1.97305e-15 0)
(1 -7.95482e-15 0)
(1 -2.33748e-15 0)
(1 1.97556e-16 0)
(1 5.22209e-15 0)
(1 8.45608e-15 0)
(1 1.36864e-14 0)
(1 1.24377e-15 0)
(1 -6.72203e-15 0)
(1 -2.83699e-15 0)
(1 -1.30339e-15 0)
(1 -7.68867e-15 0)
(1 -3.47432e-16 0)
(1 -4.91433e-15 0)
(1 7.516e-15 0)
(1 -5.93233e-15 0)
(1 3.79101e-15 0)
(1 -2.69221e-15 0)
(1 -4.85158e-15 0)
(1 -4.4348e-15 0)
(1 -1.64164e-15 0)
(1 6.78065e-16 0)
(1 -1.31163e-15 0)
(1 -3.77906e-16 0)
(1 -4.58283e-15 0)
(1 -1.98519e-15 0)
(1 -7.15938e-15 0)
(1 2.19217e-15 0)
(1 -6.64814e-15 0)
(1 -4.03492e-15 0)
(1 -2.71406e-15 0)
(1 -9.807e-15 0)
(1 -8.50205e-16 0)
(1 7.05153e-15 0)
(1 7.15097e-15 0)
(1 -2.797e-16 0)
(1 3.52121e-15 0)
(1 4.88564e-15 0)
(1 5.8179e-15 0)
(1 1.77163e-15 0)
(1 -6.23067e-15 0)
(1 2.56846e-17 0)
(1 3.97719e-15 0)
(1 1.32401e-15 0)
(1 3.35785e-15 0)
(1 -6.06481e-15 0)
(1 3.39431e-15 0)
(1 6.0658e-15 0)
(1 7.95736e-15 0)
(1 4.74655e-15 0)
(1 7.71824e-15 0)
(1 6.43629e-15 0)
(1 2.51422e-15 0)
(1 -1.66119e-15 0)
(1 -7.83166e-16 0)
(1 -3.99366e-15 0)
(1 7.72338e-15 0)
(1 5.7488e-15 0)
(1 8.533e-15 0)
(1 -5.27865e-15 0)
(1 3.31407e-16 0)
(1 3.42465e-15 0)
(1 -1.2312e-15 0)
(1 7.05513e-15 0)
(1 4.07633e-15 0)
(1 -4.87182e-15 0)
(1 2.39258e-15 0)
(1 4.1494e-15 0)
(1 6.96965e-15 0)
(1 8.37141e-15 0)
(1 1.34903e-14 0)
(1 1.09721e-14 0)
(1 4.78219e-15 0)
(1 6.85713e-15 0)
(1 6.71417e-15 0)
(1 -1.28957e-15 0)
(1 2.16607e-15 0)
(1 8.73903e-15 0)
(1 1.08081e-14 0)
(1 6.4974e-15 0)
(1 6.64502e-15 0)
(1 1.00198e-15 0)
(1 3.35764e-15 0)
(1 4.00452e-15 0)
(1 6.22473e-15 0)
(1 8.10388e-16 0)
(1 -5.43026e-15 0)
(1 -5.00691e-15 0)
(1 4.11204e-15 0)
(1 4.27624e-15 0)
(1 3.68674e-15 0)
(1 7.07497e-15 0)
(1 1.26446e-14 0)
(1 4.64372e-15 0)
(1 1.99021e-15 0)
(1 2.38405e-15 0)