/*--------------------------------*- C++ -*----------------------------------*\
| =========                 |                                                 |
| \\      /  F ield         | OpenFOAM: The Open Source CFD Toolbox           |
|  \\    /   O peration     | Version:  v2012                                 |
|   \\  /    A nd           | Website:  www.openfoam.com                      |
|    \\/     M anipulation  |                                                 |
\*---------------------------------------------------------------------------*/
FoamFile
{
    version     2.0;
    format      ascii;
    class       surfaceScalarField;
    location    "17";
    object      phi;
}
// * * * * * * * * * * * * * * * * * * * * * * * * * * * * * * * * * * * * * //

dimensions      [0 3 -1 0 0 0 0];
oriented        oriented;


internalField   nonuniform List<scalar> 
130560
(
3.28269e-06
-3.28269e-06
6.56555e-06
-3.28287e-06
9.84881e-06
-3.28326e-06
1.31326e-05
-3.28383e-06
1.64173e-05
-3.28461e-06
1.97028e-05
-3.28558e-06
2.29896e-05
-3.28673e-06
2.62776e-05
-3.28807e-06
2.95672e-05
-3.2896e-06
3.28585e-05
-3.29131e-06
3.61517e-05
-3.29319e-06
3.9447e-05
-3.29525e-06
4.27445e-05
-3.29748e-06
4.60443e-05
-3.29987e-06
4.93467e-05
-3.30242e-06
5.26519e-05
-3.30512e-06
5.59598e-05
-3.30797e-06
5.92708e-05
-3.31096e-06
6.25849e-05
-3.31409e-06
6.59022e-05
-3.31734e-06
6.92229e-05
-3.32071e-06
7.25471e-05
-3.32419e-06
7.58749e-05
-3.32778e-06
7.92064e-05
-3.33145e-06
8.25416e-05
-3.33521e-06
8.58806e-05
-3.33903e-06
8.92235e-05
-3.34292e-06
9.25704e-05
-3.34685e-06
9.59212e-05
-3.35082e-06
9.9276e-05
-3.35482e-06
0.000102635
-3.35882e-06
0.000105998
-3.36282e-06
0.000109364
-3.3668e-06
0.000112735
-3.37075e-06
0.00011611
-3.37465e-06
0.000119488
-3.37848e-06
0.000122871
-3.38222e-06
0.000126256
-3.38586e-06
0.000129646
-3.38938e-06
0.000133039
-3.39276e-06
0.000136435
-3.39598e-06
0.000139834
-3.39902e-06
0.000143235
-3.40185e-06
0.00014664
-3.40446e-06
0.000150047
-3.40681e-06
0.000153456
-3.4089e-06
0.000156866
-3.41068e-06
0.000160278
-3.41214e-06
0.000163692
-3.41325e-06
0.000167106
-3.41399e-06
0.00017052
-3.41432e-06
0.000173934
-3.41421e-06
0.000177348
-3.41364e-06
0.00018076
-3.41258e-06
0.000184171
-3.411e-06
0.00018758
-3.40886e-06
0.000190986
-3.40613e-06
0.000194389
-3.40279e-06
0.000197788
-3.39879e-06
0.000201182
-3.3941e-06
0.000204571
-3.38869e-06
0.000207953
-3.38253e-06
0.000211329
-3.37557e-06
0.000214697
-3.36779e-06
0.000218056
-3.35914e-06
0.000221405
-3.34959e-06
0.000224744
-3.3391e-06
0.000228072
-3.32764e-06
0.000231387
-3.31517e-06
0.000234689
-3.30165e-06
0.000237976
-3.28704e-06
0.000241247
-3.27131e-06
0.000244502
-3.25443e-06
0.000247738
-3.23634e-06
0.000250955
-3.21703e-06
0.000254152
-3.19645e-06
0.000257326
-3.17456e-06
0.000260477
-3.15134e-06
0.000263604
-3.12675e-06
0.000266705
-3.10076e-06
0.000269778
-3.07334e-06
0.000272823
-3.04445e-06
0.000275837
-3.01407e-06
0.000278819
-2.98216e-06
0.000281768
-2.94871e-06
0.000284681
-2.9137e-06
0.000287559
-2.87708e-06
0.000290397
-2.83885e-06
0.000293196
-2.799e-06
0.000295954
-2.75749e-06
0.000298668
-2.71431e-06
0.000301338
-2.66947e-06
0.000303961
-2.62294e-06
0.000306535
-2.57471e-06
0.00030906
-2.5248e-06
0.000311533
-2.47318e-06
0.000313953
-2.41987e-06
0.000316318
-2.36488e-06
0.000318626
-2.3082e-06
0.000320876
-2.24985e-06
0.000323066
-2.18985e-06
0.000325194
-2.12821e-06
0.000327259
-2.06495e-06
0.000329259
-2.0001e-06
0.000331193
-1.93369e-06
0.000333059
-1.86574e-06
0.000334855
-1.79629e-06
0.00033658
-1.72539e-06
0.000338233
-1.65306e-06
0.000339813
-1.57936e-06
0.000341317
-1.50433e-06
0.000342745
-1.42803e-06
0.000344096
-1.35051e-06
0.000345367
-1.27182e-06
0.000346559
-1.19203e-06
0.000347671
-1.1112e-06
0.0003487
-1.02939e-06
0.000349647
-9.46674e-07
0.00035051
-8.63122e-07
0.000351289
-7.78805e-07
0.000351982
-6.93797e-07
0.000352591
-6.08175e-07
0.000353113
-5.22017e-07
0.000353548
-4.35401e-07
0.000353896
-3.48408e-07
0.000354158
-2.61119e-07
0.000354331
-1.73616e-07
0.000354417
-8.598e-08
0.000354415
1.70469e-09
0.000354326
8.93573e-08
0.000354149
1.76894e-07
0.000353885
2.64235e-07
0.000353534
3.51297e-07
0.000353096
4.38001e-07
0.000352571
5.24268e-07
0.000351961
6.10021e-07
0.000351266
6.95183e-07
0.000350486
7.79679e-07
0.000349623
8.63438e-07
0.000348677
9.46389e-07
0.000347648
1.02846e-06
0.000346539
1.1096e-06
0.000345349
1.18973e-06
0.00034408
1.26879e-06
0.000342733
1.34673e-06
0.00034131
1.4235e-06
0.000339811
1.49903e-06
0.000338238
1.57329e-06
0.000336591
1.64623e-06
0.000334873
1.7178e-06
0.000333086
1.78796e-06
0.000331229
1.85669e-06
0.000329305
1.92394e-06
0.000327315
1.98969e-06
0.000325261
2.05392e-06
0.000323145
2.11659e-06
0.000320967
2.17769e-06
0.00031873
2.23721e-06
0.000316435
2.29512e-06
0.000314083
2.35142e-06
0.000311677
2.40611e-06
0.000309218
2.45917e-06
0.000306707
2.5106e-06
0.000304147
2.56041e-06
0.000301538
2.6086e-06
0.000298883
2.65517e-06
0.000296183
2.70014e-06
0.00029344
2.7435e-06
0.000290654
2.78529e-06
0.000287829
2.8255e-06
0.000284965
2.86416e-06
0.000282063
2.90128e-06
0.000279126
2.93689e-06
0.000276155
2.971e-06
0.000273152
3.00365e-06
0.000270117
3.03485e-06
0.000267052
3.06463e-06
0.000263959
3.09302e-06
0.000260839
3.12004e-06
0.000257694
3.14572e-06
0.000254523
3.1701e-06
0.00025133
3.19321e-06
0.000248115
3.21507e-06
0.000244879
3.23571e-06
0.000241624
3.25518e-06
0.000238351
3.2735e-06
0.00023506
3.2907e-06
0.000231753
3.30682e-06
0.000228431
3.32189e-06
0.000225095
3.33595e-06
0.000221746
3.34903e-06
0.000218385
3.36116e-06
0.000215013
3.37237e-06
0.00021163
3.38271e-06
0.000208238
3.39219e-06
0.000204837
3.40086e-06
0.000201428
3.40875e-06
0.000198012
3.41588e-06
0.00019459
3.4223e-06
0.000191162
3.42803e-06
0.000187729
3.4331e-06
0.000184291
3.43755e-06
0.00018085
3.4414e-06
0.000177405
3.44468e-06
0.000173958
3.44743e-06
0.000170508
3.44967e-06
0.000167057
3.45142e-06
0.000163604
3.45273e-06
0.000160151
3.4536e-06
0.000156696
3.45408e-06
0.000153242
3.45418e-06
0.000149788
3.45393e-06
0.000146335
3.45335e-06
0.000142883
3.45247e-06
0.000139431
3.45131e-06
0.000135981
3.4499e-06
0.000132533
3.44825e-06
0.000129087
3.44638e-06
0.000125642
3.44432e-06
0.0001222
3.44209e-06
0.000118761
3.4397e-06
0.000115323
3.43718e-06
0.000111889
3.43454e-06
0.000108457
3.43179e-06
0.000105028
3.42897e-06
0.000101602
3.42607e-06
9.81789e-05
3.42313e-06
9.47588e-05
3.42014e-06
9.13416e-05
3.41714e-06
8.79275e-05
3.41412e-06
8.45164e-05
3.41111e-06
8.11083e-05
3.40811e-06
7.77031e-05
3.40514e-06
7.43009e-05
3.40222e-06
7.09016e-05
3.39934e-06
6.75051e-05
3.39653e-06
6.41113e-05
3.39379e-06
6.07201e-05
3.39112e-06
5.73316e-05
3.38855e-06
5.39455e-05
3.38608e-06
5.05618e-05
3.38371e-06
4.71803e-05
3.38146e-06
4.3801e-05
3.37932e-06
4.04237e-05
3.37731e-06
3.70483e-05
3.37544e-06
3.36746e-05
3.3737e-06
3.03025e-05
3.3721e-06
2.69318e-05
3.37065e-06
2.35625e-05
3.36936e-06
2.01943e-05
3.36821e-06
1.6827e-05
3.36723e-06
1.34606e-05
3.3664e-06
1.00949e-05
3.36574e-06
6.72965e-06
3.36524e-06
3.36474e-06
3.36491e-06
3.36474e-06
3.2825e-06
-6.56519e-06
6.56519e-06
-6.56555e-06
9.84825e-06
-6.56633e-06
1.31319e-05
-6.56748e-06
1.64163e-05
-6.56903e-06
1.97017e-05
-6.57096e-06
2.29883e-05
-6.57328e-06
2.62761e-05
-6.57596e-06
2.95656e-05
-6.57902e-06
3.28567e-05
-6.58244e-06
3.61497e-05
-6.58621e-06
3.94448e-05
-6.59033e-06
4.27421e-05
-6.59479e-06
4.60418e-05
-6.59958e-06
4.93441e-05
-6.60468e-06
5.26491e-05
-6.6101e-06
5.59569e-05
-6.6158e-06
5.92677e-05
-6.62179e-06
6.25817e-05
-6.62805e-06
6.58989e-05
-6.63457e-06
6.92195e-05
-6.64132e-06
7.25436e-05
-6.64829e-06
7.58713e-05
-6.65546e-06
7.92027e-05
-6.66282e-06
8.25378e-05
-6.67034e-06
8.58768e-05
-6.678e-06
8.92196e-05
-6.68579e-06
9.25665e-05
-6.69367e-06
9.59173e-05
-6.70163e-06
9.92721e-05
-6.70963e-06
0.000102631
-6.71765e-06
0.000105994
-6.72567e-06
0.000109361
-6.73364e-06
0.000112731
-6.74155e-06
0.000116106
-6.74936e-06
0.000119485
-6.75704e-06
0.000122867
-6.76454e-06
0.000126253
-6.77185e-06
0.000129642
-6.77891e-06
0.000133035
-6.78569e-06
0.000136432
-6.79215e-06
0.000139831
-6.79824e-06
0.000143233
-6.80393e-06
0.000146638
-6.80917e-06
0.000150045
-6.8139e-06
0.000153454
-6.81809e-06
0.000156865
-6.82169e-06
0.000160277
-6.82464e-06
0.000163691
-6.82689e-06
0.000167105
-6.82838e-06
0.00017052
-6.82907e-06
0.000173935
-6.82889e-06
0.000177349
-6.82778e-06
0.000180762
-6.82569e-06
0.000184174
-6.82255e-06
0.000187583
-6.81831e-06
0.00019099
-6.81289e-06
0.000194393
-6.80623e-06
0.000197793
-6.79826e-06
0.000201188
-6.78892e-06
0.000204577
-6.77814e-06
0.00020796
-6.76585e-06
0.000211337
-6.75197e-06
0.000214705
-6.73644e-06
0.000218065
-6.71918e-06
0.000221416
-6.70012e-06
0.000224756
-6.67918e-06
0.000228085
-6.65629e-06
0.000231401
-6.63139e-06
0.000234704
-6.60438e-06
0.000237992
-6.57521e-06
0.000241264
-6.54379e-06
0.00024452
-6.51005e-06
0.000247757
-6.47392e-06
0.000250976
-6.43533e-06
0.000254174
-6.3942e-06
0.000257349
-6.35046e-06
0.000260502
-6.30406e-06
0.00026363
-6.25491e-06
0.000266732
-6.20296e-06
0.000269807
-6.14814e-06
0.000272853
-6.09039e-06
0.000275869
-6.02965e-06
0.000278853
-5.96587e-06
0.000281803
-5.899e-06
0.000284718
-5.82898e-06
0.000287597
-5.75578e-06
0.000290437
-5.67934e-06
0.000293238
-5.59964e-06
0.000295997
-5.51664e-06
0.000298713
-5.4303e-06
0.000301384
-5.34062e-06
0.000304009
-5.24756e-06
0.000306585
-5.15112e-06
0.000309112
-5.05129e-06
0.000311587
-4.94806e-06
0.000314008
-4.84144e-06
0.000316375
-4.73144e-06
0.000318685
-4.61807e-06
0.000320936
-4.50136e-06
0.000323128
-4.38134e-06
0.000325257
-4.25803e-06
0.000327324
-4.13149e-06
0.000329326
-4.00177e-06
0.000331261
-3.86891e-06
0.000333128
-3.73298e-06
0.000334926
-3.59405e-06
0.000336653
-3.45219e-06
0.000338307
-3.3075e-06
0.000339888
-3.16005e-06
0.000341393
-3.00994e-06
0.000342823
-2.85728e-06
0.000344174
-2.70218e-06
0.000345447
-2.54475e-06
0.00034664
-2.3851e-06
0.000347752
-2.22337e-06
0.000348783
-2.05969e-06
0.00034973
-1.89419e-06
0.000350594
-1.72701e-06
0.000351374
-1.5583e-06
0.000352068
-1.38821e-06
0.000352677
-1.21689e-06
0.000353199
-1.04449e-06
0.000353635
-8.71182e-07
0.000353984
-6.97115e-07
0.000354245
-5.22455e-07
0.000354419
-3.47366e-07
0.000354505
-1.72013e-07
0.000354503
3.44024e-09
0.000354414
1.78826e-07
0.000354237
3.53982e-07
0.000353972
5.28744e-07
0.00035362
7.02948e-07
0.000353182
8.76436e-07
0.000352657
1.04905e-06
0.000352047
1.22063e-06
0.000351351
1.39103e-06
0.00035057
1.56009e-06
0.000349706
1.72768e-06
0.000348759
1.89365e-06
0.000347729
2.05787e-06
0.000346619
2.2202e-06
0.000345428
2.38052e-06
0.000344158
2.5387e-06
0.00034281
2.69464e-06
0.000341386
2.84822e-06
0.000339885
2.99934e-06
0.000338311
3.1479e-06
0.000336663
3.29382e-06
0.000334944
3.437e-06
0.000333154
3.57736e-06
0.000331296
3.71485e-06
0.000329371
3.84938e-06
0.00032738
3.98091e-06
0.000325324
4.10938e-06
0.000323206
4.23475e-06
0.000321027
4.35697e-06
0.000318788
4.47601e-06
0.000316491
4.59185e-06
0.000314138
4.70446e-06
0.00031173
4.81383e-06
0.00030927
4.91996e-06
0.000306757
5.02283e-06
0.000304195
5.12244e-06
0.000301585
5.21881e-06
0.000298928
5.31195e-06
0.000296227
5.40187e-06
0.000293482
5.48859e-06
0.000290695
5.57214e-06
0.000287868
5.65255e-06
0.000285002
5.72985e-06
0.000282099
5.80408e-06
0.000279161
5.87527e-06
0.000276188
5.94348e-06
0.000273183
6.00875e-06
0.000270147
6.07112e-06
0.000267081
6.13065e-06
0.000263986
6.1874e-06
0.000260865
6.24141e-06
0.000257718
6.29275e-06
0.000254547
6.34148e-06
0.000251352
6.38766e-06
0.000248136
6.43135e-06
0.000244899
6.47261e-06
0.000241643
6.51151e-06
0.000238368
6.54811e-06
0.000235076
6.58248e-06
0.000231768
6.61469e-06
0.000228446
6.6448e-06
0.000225109
6.67289e-06
0.000221759
6.69901e-06
0.000218397
6.72323e-06
0.000215023
6.74563e-06
0.00021164
6.76626e-06
0.000208247
6.7852e-06
0.000204845
6.80251e-06
0.000201436
6.81825e-06
0.000198019
6.83249e-06
0.000194596
6.84529e-06
0.000191167
6.85672e-06
0.000187734
6.86683e-06
0.000184295
6.87569e-06
0.000180854
6.88337e-06
0.000177408
6.88991e-06
0.00017396
6.89537e-06
0.00017051
6.89982e-06
0.000167058
6.90331e-06
0.000163605
6.90589e-06
0.000160151
6.90761e-06
0.000156697
6.90854e-06
0.000153242
6.90871e-06
0.000149788
6.90819e-06
0.000146334
6.90701e-06
0.000142882
6.90523e-06
0.00013943
6.90289e-06
0.00013598
6.90003e-06
0.000132531
6.89671e-06
0.000129085
6.89296e-06
0.00012564
6.88882e-06
0.000122198
6.88434e-06
0.000118758
6.87954e-06
0.000115321
6.87448e-06
0.000111886
6.86917e-06
0.000108454
6.86367e-06
0.000105025
6.858e-06
0.000101599
6.8522e-06
9.8176e-05
6.84629e-06
9.47558e-05
6.84031e-06
9.13387e-05
6.83428e-06
8.79246e-05
6.82824e-06
8.45135e-05
6.8222e-06
8.11054e-05
6.8162e-06
7.77003e-05
6.81025e-06
7.42981e-05
6.80439e-06
7.08988e-05
6.79863e-06
6.75024e-05
6.79299e-06
6.41087e-05
6.7875e-06
6.07176e-05
6.78216e-06
5.73292e-05
6.77701e-06
5.39432e-05
6.77206e-06
5.05596e-05
6.76731e-06
4.71783e-05
6.7628e-06
4.37991e-05
6.75852e-06
4.04219e-05
6.7545e-06
3.70466e-05
6.75074e-06
3.3673e-05
6.74726e-06
3.0301e-05
6.74406e-06
2.69305e-05
6.74116e-06
2.35613e-05
6.73856e-06
2.01933e-05
6.73627e-06
1.68262e-05
6.7343e-06
1.346e-05
6.73264e-06
1.00944e-05
6.73131e-06
6.72932e-06
6.73032e-06
3.36458e-06
6.72965e-06
6.72932e-06
3.28211e-06
-9.8473e-06
6.56441e-06
-9.84786e-06
9.8471e-06
-9.84901e-06
1.31304e-05
-9.85075e-06
1.64144e-05
-9.85308e-06
1.96994e-05
-9.85598e-06
2.29856e-05
-9.85945e-06
2.62731e-05
-9.86349e-06
2.95622e-05
-9.86808e-06
3.2853e-05
-9.87322e-06
3.61456e-05
-9.87888e-06
3.94404e-05
-9.88507e-06
4.27374e-05
-9.89177e-06
4.60368e-05
-9.89897e-06
4.93387e-05
-9.90664e-06
5.26434e-05
-9.91478e-06
5.5951e-05
-9.92336e-06
5.92615e-05
-9.93236e-06
6.25752e-05
-9.94177e-06
6.58922e-05
-9.95156e-06
6.92126e-05
-9.9617e-06
7.25365e-05
-9.97218e-06
7.5864e-05
-9.98297e-06
7.91952e-05
-9.99403e-06
8.25302e-05
-1.00053e-05
8.58691e-05
-1.00169e-05
8.92119e-05
-1.00286e-05
9.25586e-05
-1.00404e-05
9.59094e-05
-1.00524e-05
9.92641e-05
-1.00644e-05
0.000102623
-1.00765e-05
0.000105986
-1.00885e-05
0.000109353
-1.01006e-05
0.000112724
-1.01125e-05
0.000116099
-1.01242e-05
0.000119477
-1.01358e-05
0.00012286
-1.01471e-05
0.000126246
-1.01581e-05
0.000129636
-1.01687e-05
0.000133029
-1.01789e-05
0.000136426
-1.01887e-05
0.000139825
-1.01979e-05
0.000143228
-1.02065e-05
0.000146633
-1.02144e-05
0.000150041
-1.02215e-05
0.00015345
-1.02279e-05
0.000156862
-1.02333e-05
0.000160275
-1.02378e-05
0.00016369
-1.02413e-05
0.000167105
-1.02436e-05
0.00017052
-1.02447e-05
0.000173936
-1.02445e-05
0.000177351
-1.02429e-05
0.000180765
-1.02398e-05
0.000184178
-1.02352e-05
0.000187589
-1.02289e-05
0.000190997
-1.02209e-05
0.000194401
-1.0211e-05
0.000197802
-1.01991e-05
0.000201199
-1.01852e-05
0.000204589
-1.01691e-05
0.000207974
-1.01508e-05
0.000211352
-1.013e-05
0.000214723
-1.01068e-05
0.000218085
-1.0081e-05
0.000221437
-1.00525e-05
0.000224779
-1.00212e-05
0.00022811
-9.98697e-06
0.000231428
-9.9497e-06
0.000234733
-9.90929e-06
0.000238023
-9.86562e-06
0.000241298
-9.81858e-06
0.000244556
-9.76807e-06
0.000247796
-9.71396e-06
0.000251017
-9.65616e-06
0.000254217
-9.59455e-06
0.000257396
-9.52904e-06
0.000260551
-9.45951e-06
0.000263682
-9.38587e-06
0.000266788
-9.30802e-06
0.000269865
-9.22587e-06
0.000272914
-9.13932e-06
0.000275933
-9.04828e-06
0.00027892
-8.95268e-06
0.000281873
-8.85243e-06
0.000284792
-8.74746e-06
0.000287673
-8.6377e-06
0.000290517
-8.5231e-06
0.000293321
-8.40358e-06
0.000296084
-8.27911e-06
0.000298803
-8.14964e-06
0.000301477
-8.01514e-06
0.000304105
-7.87557e-06
0.000306685
-7.73092e-06
0.000309215
-7.58117e-06
0.000311693
-7.42632e-06
0.000314118
-7.26638e-06
0.000316488
-7.10136e-06
0.000318801
-6.93128e-06
0.000321056
-6.75618e-06
0.000323251
-6.5761e-06
0.000325384
-6.39109e-06
0.000327454
-6.20122e-06
0.000329459
-6.00656e-06
0.000331397
-5.80719e-06
0.000333267
-5.60321e-06
0.000335068
-5.39472e-06
0.000336798
-5.18184e-06
0.000338455
-4.96468e-06
0.000340038
-4.74339e-06
0.000341546
-4.51811e-06
0.000342978
-4.28898e-06
0.000344332
-4.05618e-06
0.000345607
-3.81988e-06
0.000346802
-3.58026e-06
0.000347916
-3.3375e-06
0.000348948
-3.0918e-06
0.000349898
-2.84338e-06
0.000350763
-2.59243e-06
0.000351544
-2.33918e-06
0.00035224
-2.08385e-06
0.000352849
-1.82668e-06
0.000353373
-1.56789e-06
0.000353809
-1.30772e-06
0.000354159
-1.04642e-06
0.00035442
-7.84222e-07
0.000354594
-5.21383e-07
0.000354681
-2.58147e-07
0.000354679
5.23972e-09
0.000354589
2.68524e-07
0.000354412
5.31462e-07
0.000354146
7.93807e-07
0.000353794
1.05531e-06
0.000353355
1.31574e-06
0.000352829
1.57486e-06
0.000352217
1.83242e-06
0.00035152
2.0882e-06
0.000350738
2.34198e-06
0.000349872
2.59354e-06
0.000348923
2.84266e-06
0.000347892
3.08915e-06
0.000346779
3.33281e-06
0.000345586
3.57343e-06
0.000344314
3.81086e-06
0.000342964
4.0449e-06
0.000341537
4.2754e-06
0.000340034
4.5022e-06
0.000338457
4.72516e-06
0.000336806
4.94413e-06
0.000335084
5.159e-06
0.000333292
5.36964e-06
0.000331431
5.57595e-06
0.000329503
5.77783e-06
0.000327508
5.97519e-06
0.00032545
6.16795e-06
0.000323328
6.35605e-06
0.000321146
6.53942e-06
0.000318904
6.71802e-06
0.000316604
6.8918e-06
0.000314248
7.06074e-06
0.000311837
7.22481e-06
0.000309373
7.384e-06
0.000306857
7.5383e-06
0.000304292
7.68772e-06
0.000301679
7.83226e-06
0.000299019
7.97194e-06
0.000296314
8.10679e-06
0.000293565
8.23685e-06
0.000290775
8.36214e-06
0.000287945
8.48271e-06
0.000285076
8.59861e-06
0.000282171
8.7099e-06
0.000279229
8.81664e-06
0.000276254
8.9189e-06
0.000273246
9.01674e-06
0.000270207
9.11023e-06
0.000267138
9.19946e-06
0.000264041
9.28451e-06
0.000260917
9.36546e-06
0.000257767
9.4424e-06
0.000254593
9.51541e-06
0.000251396
9.5846e-06
0.000248178
9.65005e-06
0.000244938
9.71186e-06
0.00024168
9.77013e-06
0.000238403
9.82495e-06
0.000235109
9.87643e-06
0.000231799
9.92466e-06
0.000228474
9.96975e-06
0.000225135
1.00118e-05
0.000221783
1.00509e-05
0.000218419
1.00871e-05
0.000215044
1.01206e-05
0.000211659
1.01515e-05
0.000208264
1.01798e-05
0.000204861
1.02057e-05
0.00020145
1.02292e-05
0.000198032
1.02505e-05
0.000194608
1.02697e-05
0.000191178
1.02867e-05
0.000187743
1.03018e-05
0.000184303
1.0315e-05
0.00018086
1.03265e-05
0.000177414
1.03362e-05
0.000173965
1.03443e-05
0.000170514
1.03509e-05
0.000167061
1.03561e-05
0.000163607
1.03599e-05
0.000160152
1.03624e-05
0.000156697
1.03637e-05
0.000153242
1.03639e-05
0.000149787
1.03631e-05
0.000146333
1.03613e-05
0.000142879
1.03585e-05
0.000139427
1.0355e-05
0.000135977
1.03506e-05
0.000132528
1.03456e-05
0.000129081
1.03399e-05
0.000125636
1.03337e-05
0.000122193
1.03269e-05
0.000118753
1.03197e-05
0.000115316
1.0312e-05
0.000111881
1.0304e-05
0.000108449
1.02957e-05
0.00010502
1.02872e-05
0.000101593
1.02784e-05
9.81702e-05
1.02695e-05
9.475e-05
1.02605e-05
9.13328e-05
1.02515e-05
8.79187e-05
1.02424e-05
8.45077e-05
1.02333e-05
8.10996e-05
1.02242e-05
7.76946e-05
1.02153e-05
7.42925e-05
1.02065e-05
7.08933e-05
1.01978e-05
6.7497e-05
1.01893e-05
6.41035e-05
1.0181e-05
6.07126e-05
1.0173e-05
5.73243e-05
1.01653e-05
5.39386e-05
1.01578e-05
5.05552e-05
1.01507e-05
4.71741e-05
1.01439e-05
4.37951e-05
1.01375e-05
4.04182e-05
1.01314e-05
3.70432e-05
1.01258e-05
3.36699e-05
1.01205e-05
3.02982e-05
1.01157e-05
2.6928e-05
1.01114e-05
2.35591e-05
1.01075e-05
2.01913e-05
1.0104e-05
1.68246e-05
1.0101e-05
1.34587e-05
1.00986e-05
1.00934e-05
1.00966e-05
6.72866e-06
1.00951e-05
3.36425e-06
1.00941e-05
1.00936e-05
3.28153e-06
-1.31288e-05
6.56325e-06
-1.31296e-05
9.84536e-06
-1.31311e-05
1.31281e-05
-1.31335e-05
1.64115e-05
-1.31366e-05
1.9696e-05
-1.31404e-05
2.29816e-05
-1.31451e-05
2.62686e-05
-1.31505e-05
2.95571e-05
-1.31566e-05
3.28474e-05
-1.31635e-05
3.61395e-05
-1.3171e-05
3.94338e-05
-1.31793e-05
4.27303e-05
-1.31883e-05
4.60292e-05
-1.31979e-05
4.93307e-05
-1.32081e-05
5.26349e-05
-1.3219e-05
5.59421e-05
-1.32305e-05
5.92522e-05
-1.32425e-05
6.25656e-05
-1.32551e-05
6.58822e-05
-1.32682e-05
6.92022e-05
-1.32818e-05
7.25258e-05
-1.32958e-05
7.58531e-05
-1.33102e-05
7.9184e-05
-1.3325e-05
8.25188e-05
-1.33401e-05
8.58575e-05
-1.33555e-05
8.92001e-05
-1.33712e-05
9.25468e-05
-1.33871e-05
9.58975e-05
-1.34031e-05
9.92522e-05
-1.34192e-05
0.000102611
-1.34353e-05
0.000105974
-1.34515e-05
0.000109341
-1.34676e-05
0.000112712
-1.34835e-05
0.000116087
-1.34993e-05
0.000119466
-1.35148e-05
0.000122849
-1.35299e-05
0.000126236
-1.35447e-05
0.000129626
-1.35589e-05
0.00013302
-1.35727e-05
0.000136417
-1.35858e-05
0.000139817
-1.35981e-05
0.00014322
-1.36097e-05
0.000146626
-1.36203e-05
0.000150034
-1.363e-05
0.000153445
-1.36386e-05
0.000156858
-1.3646e-05
0.000160272
-1.36521e-05
0.000163688
-1.36568e-05
0.000167104
-1.366e-05
0.000170521
-1.36616e-05
0.000173938
-1.36615e-05
0.000177354
-1.36595e-05
0.00018077
-1.36556e-05
0.000184185
-1.36496e-05
0.000187597
-1.36413e-05
0.000191007
-1.36307e-05
0.000194414
-1.36177e-05
0.000197816
-1.3602e-05
0.000201215
-1.35836e-05
0.000204608
-1.35623e-05
0.000207995
-1.3538e-05
0.000211376
-1.35106e-05
0.000214749
-1.34798e-05
0.000218113
-1.34456e-05
0.000221469
-1.34077e-05
0.000224814
-1.33662e-05
0.000228147
-1.33207e-05
0.000231469
-1.32712e-05
0.000234777
-1.32175e-05
0.000238071
-1.31594e-05
0.000241349
-1.30969e-05
0.000244611
-1.30297e-05
0.000247854
-1.29577e-05
0.000251079
-1.28808e-05
0.000254283
-1.27988e-05
0.000257466
-1.27116e-05
0.000260625
-1.26191e-05
0.000263761
-1.2521e-05
0.00026687
-1.24174e-05
0.000269952
-1.2308e-05
0.000273005
-1.21927e-05
0.000276029
-1.20715e-05
0.00027902
-1.19441e-05
0.000281978
-1.18106e-05
0.000284902
-1.16707e-05
0.000287788
-1.15245e-05
0.000290637
-1.13718e-05
0.000293446
-1.12125e-05
0.000296213
-1.10466e-05
0.000298938
-1.0874e-05
0.000301617
-1.06947e-05
0.00030425
-1.05087e-05
0.000306835
-1.03158e-05
0.00030937
-1.01162e-05
0.000311854
-9.90968e-06
0.000314284
-9.6964e-06
0.000316659
-9.47633e-06
0.000318977
-9.24951e-06
0.000321237
-9.01598e-06
0.000323436
-8.77579e-06
0.000325574
-8.52902e-06
0.000327649
-8.27574e-06
0.000329658
-8.01606e-06
0.000331601
-7.75009e-06
0.000333476
-7.47796e-06
0.000335281
-7.19979e-06
0.000337015
-6.91575e-06
0.000338676
-6.626e-06
0.000340264
-6.33072e-06
0.000341776
-6.03011e-06
0.000343211
-5.72436e-06
0.000344568
-5.41369e-06
0.000345847
-5.09834e-06
0.000347045
-4.77855e-06
0.000348162
-4.45456e-06
0.000349197
-4.12665e-06
0.000350149
-3.79509e-06
0.000351017
-3.46015e-06
0.0003518
-3.12214e-06
0.000352497
-2.78135e-06
0.000353108
-2.43808e-06
0.000353633
-2.09266e-06
0.000354071
-1.74539e-06
0.000354421
-1.39661e-06
0.000354683
-1.04664e-06
0.000354858
-6.958e-07
0.000354944
-3.44433e-07
0.000354942
7.13482e-09
0.000354852
3.58565e-07
0.000354674
7.09531e-07
0.000354408
1.0597e-06
0.000354055
1.40875e-06
0.000353614
1.75636e-06
0.000353087
2.10221e-06
0.000352473
2.44598e-06
0.000351774
2.78737e-06
0.00035099
3.12608e-06
0.000350122
3.46182e-06
0.00034917
3.79431e-06
0.000348136
4.12327e-06
0.00034702
4.44843e-06
0.000345824
4.76955e-06
0.000344549
5.08639e-06
0.000343195
5.3987e-06
0.000341764
5.70628e-06
0.000340257
6.0089e-06
0.000338676
6.30639e-06
0.000337022
6.59856e-06
0.000335295
6.88523e-06
0.000333499
7.16625e-06
0.000331633
7.44148e-06
0.0003297
7.71079e-06
0.000327701
7.97405e-06
0.000325638
8.23118e-06
0.000323512
8.48207e-06
0.000321325
8.72664e-06
0.000319078
8.96483e-06
0.000316773
9.19659e-06
0.000314412
9.42188e-06
0.000311996
9.64066e-06
0.000309527
9.85292e-06
0.000307007
1.00587e-05
0.000304437
1.02579e-05
0.000301819
1.04506e-05
0.000299154
1.06368e-05
0.000296444
1.08165e-05
0.000293691
1.09899e-05
0.000290896
1.11568e-05
0.000288062
1.13175e-05
0.000285188
1.1472e-05
0.000282278
1.16203e-05
0.000279332
1.17625e-05
0.000276352
1.18987e-05
0.00027334
1.20291e-05
0.000270296
1.21536e-05
0.000267223
1.22725e-05
0.000264122
1.23857e-05
0.000260994
1.24935e-05
0.000257841
1.2596e-05
0.000254663
1.26932e-05
0.000251462
1.27853e-05
0.00024824
1.28724e-05
0.000244997
1.29547e-05
0.000241735
1.30322e-05
0.000238455
1.31051e-05
0.000235158
1.31736e-05
0.000231844
1.32378e-05
0.000228516
1.32977e-05
0.000225175
1.33536e-05
0.00022182
1.34056e-05
0.000218453
1.34538e-05
0.000215076
1.34983e-05
0.000211688
1.35393e-05
0.000208291
1.35769e-05
0.000204885
1.36113e-05
0.000201472
1.36425e-05
0.000198052
1.36707e-05
0.000194625
1.36961e-05
0.000191193
1.37187e-05
0.000187756
1.37387e-05
0.000184315
1.37562e-05
0.000180871
1.37713e-05
0.000177423
1.37841e-05
0.000173972
1.37948e-05
0.00017052
1.38035e-05
0.000167065
1.38102e-05
0.00016361
1.38152e-05
0.000160154
1.38184e-05
0.000156698
1.38201e-05
0.000153241
1.38202e-05
0.000149786
1.3819e-05
0.00014633
1.38164e-05
0.000142876
1.38127e-05
0.000139423
1.38078e-05
0.000135972
1.3802e-05
0.000132523
1.37951e-05
0.000129075
1.37875e-05
0.00012563
1.3779e-05
0.000122187
1.37699e-05
0.000118746
1.37602e-05
0.000115308
1.37499e-05
0.000111873
1.37392e-05
0.000108441
1.3728e-05
0.000105011
1.37166e-05
0.000101585
1.37048e-05
9.81615e-05
1.36929e-05
9.47412e-05
1.36808e-05
9.1324e-05
1.36687e-05
8.79099e-05
1.36565e-05
8.44989e-05
1.36443e-05
8.10909e-05
1.36322e-05
7.7686e-05
1.36202e-05
7.42841e-05
1.36084e-05
7.08851e-05
1.35968e-05
6.7489e-05
1.35854e-05
6.40956e-05
1.35744e-05
6.0705e-05
1.35636e-05
5.7317e-05
1.35533e-05
5.39316e-05
1.35433e-05
5.05485e-05
1.35337e-05
4.71678e-05
1.35247e-05
4.37892e-05
1.35161e-05
4.04127e-05
1.3508e-05
3.7038e-05
1.35004e-05
3.36652e-05
1.34934e-05
3.02939e-05
1.3487e-05
2.69242e-05
1.34811e-05
2.35557e-05
1.34759e-05
2.01884e-05
1.34713e-05
1.68222e-05
1.34673e-05
1.34567e-05
1.3464e-05
1.00919e-05
1.34613e-05
6.72768e-06
1.34593e-05
3.36376e-06
1.3458e-05
1.34573e-05
3.28075e-06
-1.64096e-05
6.56169e-06
-1.64105e-05
9.84303e-06
-1.64125e-05
1.3125e-05
-1.64154e-05
1.64077e-05
-1.64193e-05
1.96914e-05
-1.64241e-05
2.29763e-05
-1.643e-05
2.62625e-05
-1.64367e-05
2.95503e-05
-1.64444e-05
3.28399e-05
-1.6453e-05
3.61313e-05
-1.64625e-05
3.94249e-05
-1.64729e-05
4.27207e-05
-1.64841e-05
4.6019e-05
-1.64962e-05
4.93199e-05
-1.6509e-05
5.26236e-05
-1.65227e-05
5.59301e-05
-1.65371e-05
5.92398e-05
-1.65522e-05
6.25526e-05
-1.65679e-05
6.58687e-05
-1.65844e-05
6.91884e-05
-1.66014e-05
7.25116e-05
-1.6619e-05
7.58384e-05
-1.66371e-05
7.91691e-05
-1.66556e-05
8.25036e-05
-1.66746e-05
8.5842e-05
-1.6694e-05
8.91844e-05
-1.67136e-05
9.25309e-05
-1.67336e-05
9.58815e-05
-1.67537e-05
9.92362e-05
-1.67739e-05
0.000102595
-1.67942e-05
0.000105958
-1.68145e-05
0.000109325
-1.68347e-05
0.000112697
-1.68548e-05
0.000116072
-1.68746e-05
0.000119451
-1.68941e-05
0.000122834
-1.69132e-05
0.000126221
-1.69317e-05
0.000129612
-1.69497e-05
0.000133007
-1.6967e-05
0.000136404
-1.69836e-05
0.000139806
-1.69992e-05
0.00014321
-1.70138e-05
0.000146617
-1.70273e-05
0.000150026
-1.70395e-05
0.000153438
-1.70505e-05
0.000156852
-1.70599e-05
0.000160268
-1.70677e-05
0.000163685
-1.70738e-05
0.000167103
-1.7078e-05
0.000170521
-1.70803e-05
0.00017394
-1.70803e-05
0.000177359
-1.70781e-05
0.000180777
-1.70734e-05
0.000184193
-1.70661e-05
0.000187608
-1.7056e-05
0.00019102
-1.70431e-05
0.000194429
-1.7027e-05
0.000197835
-1.70077e-05
0.000201236
-1.69849e-05
0.000204633
-1.69586e-05
0.000208023
-1.69285e-05
0.000211407
-1.68944e-05
0.000214783
-1.68562e-05
0.000218152
-1.68137e-05
0.000221511
-1.67667e-05
0.000224859
-1.6715e-05
0.000228197
-1.66584e-05
0.000231523
-1.65968e-05
0.000234835
-1.653e-05
0.000238134
-1.64577e-05
0.000241417
-1.63798e-05
0.000244683
-1.62961e-05
0.000247932
-1.62064e-05
0.000251161
-1.61105e-05
0.000254371
-1.60083e-05
0.000257559
-1.58996e-05
0.000260724
-1.57841e-05
0.000263865
-1.56618e-05
0.00026698
-1.55325e-05
0.000270068
-1.5396e-05
0.000273127
-1.52521e-05
0.000276156
-1.51008e-05
0.000279154
-1.49418e-05
0.000282118
-1.4775e-05
0.000285048
-1.46004e-05
0.000287941
-1.44177e-05
0.000290797
-1.4227e-05
0.000293612
-1.4028e-05
0.000296386
-1.38207e-05
0.000299117
-1.36051e-05
0.000301804
-1.33811e-05
0.000304444
-1.31485e-05
0.000307035
-1.29075e-05
0.000309577
-1.26579e-05
0.000312067
-1.23998e-05
0.000314504
-1.21332e-05
0.000316886
-1.18581e-05
0.000319211
-1.15745e-05
0.000321477
-1.12824e-05
0.000323683
-1.09821e-05
0.000325828
-1.06734e-05
0.000327909
-1.03567e-05
0.000329925
-1.00319e-05
0.000331874
-9.69916e-06
0.000333754
-9.35873e-06
0.000335565
-9.01074e-06
0.000337305
-8.65538e-06
0.000338972
-8.29286e-06
0.000340564
-7.9234e-06
0.000342082
-7.54724e-06
0.000343522
-7.16464e-06
0.000344884
-6.77588e-06
0.000346167
-6.38124e-06
0.000347369
-5.98103e-06
0.00034849
-5.57555e-06
0.000349529
-5.16515e-06
0.000350484
-4.75017e-06
0.000351355
-4.33096e-06
0.000352141
-3.90788e-06
0.000352841
-3.48132e-06
0.000353454
-3.05165e-06
0.000353981
-2.61928e-06
0.00035442
-2.18459e-06
0.000354771
-1.748e-06
0.000355035
-1.30992e-06
0.00035521
-8.70752e-07
0.000355296
-4.30921e-07
0.000355294
9.15882e-09
0.000355204
4.49065e-07
0.000355025
8.88389e-07
0.000354758
1.32671e-06
0.000354403
1.76363e-06
0.00035396
2.19874e-06
0.000353431
2.63163e-06
0.000352815
3.06192e-06
0.000352113
3.48922e-06
0.000351326
3.91315e-06
0.000350455
4.33336e-06
0.000349499
4.74948e-06
0.000348462
5.16117e-06
0.000347342
5.5681e-06
0.000346141
5.96995e-06
0.000344861
6.36643e-06
0.000343503
6.75723e-06
0.000342067
7.14209e-06
0.000340555
7.52074e-06
0.000338969
7.89294e-06
0.000337309
8.25846e-06
0.000335577
8.6171e-06
0.000333775
8.96864e-06
0.000331903
9.31293e-06
0.000329964
9.64978e-06
0.000327959
9.97906e-06
0.00032589
1.03006e-05
0.000323757
1.06144e-05
0.000321564
1.09202e-05
0.00031931
1.12181e-05
0.000316999
1.15079e-05
0.000314632
1.17895e-05
0.000312209
1.2063e-05
0.000309734
1.23284e-05
0.000307207
1.25855e-05
0.00030463
1.28345e-05
0.000302005
1.30753e-05
0.000299334
1.3308e-05
0.000296618
1.35327e-05
0.000293859
1.37492e-05
0.000291058
1.39579e-05
0.000288217
1.41586e-05
0.000285337
1.43515e-05
0.000282421
1.45367e-05
0.000279469
1.47143e-05
0.000276483
1.48845e-05
0.000273465
1.50472e-05
0.000270416