/*--------------------------------*- C++ -*----------------------------------*\
| =========                 |                                                 |
| \\      /  F ield         | OpenFOAM: The Open Source CFD Toolbox           |
|  \\    /   O peration     | Version:  v2012                                 |
|   \\  /    A nd           | Website:  www.openfoam.com                      |
|    \\/     M anipulation  |                                                 |
\*---------------------------------------------------------------------------*/
FoamFile
{
    version     2.0;
    format      ascii;
    class       volScalarField;
    location    "17";
    object      Psi_z;
}
// * * * * * * * * * * * * * * * * * * * * * * * * * * * * * * * * * * * * * //

dimensions      [0 2 -1 0 0 0 0];


internalField   nonuniform List<scalar> 
65536
(
8.20828e-06
2.46253e-05
4.10438e-05
5.74647e-05
7.38889e-05
9.03176e-05
0.000106751
0.000123192
0.000139639
0.000156094
0.000172559
0.000189033
0.000205518
0.000222015
0.000238523
0.000255045
0.000271581
0.000288132
0.000304697
0.000321279
0.000337877
0.000354493
0.000371126
0.000387777
0.000404447
0.000421135
0.000437843
0.000454571
0.000471318
0.000488085
0.000504872
0.000521679
0.000538506
0.000555353
0.00057222
0.000589105
0.00060601
0.000622933
0.000639874
0.000656832
0.000673807
0.000690797
0.000707802
0.000724821
0.000741851
0.000758893
0.000775945
0.000793004
0.00081007
0.000827141
0.000844214
0.000861287
0.000878359
0.000895427
0.000912488
0.000929539
0.000946579
0.000963603
0.000980609
0.000997593
0.00101455
0.00103148
0.00104838
0.00106524
0.00108206
0.00109883
0.00111555
0.00113222
0.00114883
0.00116537
0.00118184
0.00119824
0.00121455
0.00123078
0.00124691
0.00126294
0.00127887
0.00129469
0.00131038
0.00132595
0.00134138
0.00135668
0.00137182
0.00138681
0.00140163
0.00141629
0.00143076
0.00144505
0.00145914
0.00147303
0.00148671
0.00150017
0.00151339
0.00152638
0.00153913
0.00155162
0.00156385
0.00157581
0.00158749
0.00159888
0.00160997
0.00162076
0.00163124
0.0016414
0.00165123
0.00166073
0.00166988
0.00167868
0.00168712
0.00169519
0.0017029
0.00171023
0.00171717
0.00172372
0.00172987
0.00173563
0.00174097
0.00174591
0.00175043
0.00175453
0.00175821
0.00176146
0.00176428
0.00176667
0.00176863
0.00177015
0.00177123
0.00177188
0.00177208
0.00177185
0.00177119
0.00177008
0.00176854
0.00176656
0.00176416
0.00176132
0.00175805
0.00175437
0.00175026
0.00174573
0.00174079
0.00173545
0.0017297
0.00172355
0.00171701
0.00171009
0.00170278
0.0016951
0.00168705
0.00167864
0.00166988
0.00166077
0.00165132
0.00164154
0.00163143
0.001621
0.00161027
0.00159923
0.0015879
0.00157629
0.0015644
0.00155223
0.00153981
0.00152714
0.00151421
0.00150106
0.00148767
0.00147406
0.00146024
0.00144622
0.00143199
0.00141758
0.00140299
0.00138822
0.00137328
0.00135819
0.00134294
0.00132755
0.00131201
0.00129635
0.00128056
0.00126465
0.00124863
0.00123251
0.00121628
0.00119996
0.00118355
0.00116705
0.00115048
0.00113384
0.00111713
0.00110035
0.00108352
0.00106663
0.00104969
0.00103271
0.00101568
0.000998623
0.000981527
0.000964401
0.000947248
0.000930071
0.000912873
0.000895657
0.000878427
0.000861184
0.00084393
0.00082667
0.000809403
0.000792134
0.000774862
0.000757592
0.000740323
0.000723058
0.000705798
0.000688544
0.000671298
0.000654061
0.000636834
0.000619618
0.000602413
0.00058522
0.00056804
0.000550874
0.000533722
0.000516584
0.00049946
0.000482352
0.000465258
0.00044818
0.000431116
0.000414068
0.000397034
0.000380015
0.000363011
0.000346021
0.000329045
0.000312083
0.000295133
0.000278196
0.000261271
0.000244358
0.000227456
0.000210564
0.000193682
0.000176809
0.000159944
0.000143087
0.000126237
0.000109393
9.25542e-05
7.572e-05
5.88894e-05
4.20618e-05
2.52362e-05
8.41194e-06
2.46244e-05
7.38747e-05
0.000123129
0.000172391
0.000221663
0.000270948
0.000320249
0.000369568
0.00041891
0.000468275
0.000517667
0.000567089
0.000616543
0.000666032
0.000715558
0.000765123
0.00081473
0.000864381
0.000914078
0.000963822
0.00101362
0.00106346
0.00111336
0.00116331
0.00121332
0.00126339
0.00131351
0.00136369
0.00141394
0.00146424
0.0015146
0.00156502
0.0016155
0.00166604
0.00171664
0.0017673
0.00181801
0.00186878
0.00191961
0.00197048
0.00202141
0.00207238
0.0021234
0.00217445
0.00222555
0.00227667
0.00232783
0.00237901
0.00243021
0.00248142
0.00253264
0.00258387
0.00263508
0.00268629
0.00273748
0.00278863
0.00283975
0.00289083
0.00294185
0.00299281
0.00304369
0.00309448
0.00314517
0.00319575
0.00324621
0.00329654
0.00334671
0.00339672
0.00344655
0.00349618
0.0035456
0.0035948
0.00364374
0.00369243
0.00374084
0.00378894
0.00383673
0.00388418
0.00393127
0.00397798
0.00402429
0.00407018
0.00411562
0.00416059
0.00420508
0.00424905
0.00429248
0.00433535
0.00437764
0.00441931
0.00446035
0.00450073
0.00454042
0.0045794
0.00461765
0.00465513
0.00469183
0.00472771
0.00476275
0.00479694
0.00483023
0.00486261
0.00489405
0.00492454
0.00495403
0.00498252
0.00500998
0.00503639
0.00506172
0.00508596
0.00510908
0.00513106
0.00515189
0.00517155
0.00519002
0.00520729
0.00522333
0.00523815
0.00525171
0.00526402
0.00527505
0.00528481
0.00529328
0.00530045
0.00530632
0.00531088
0.00531413
0.00531607
0.00531669
0.005316
0.00531399
0.00531068
0.00530605
0.00530012
0.0052929
0.00528438
0.00527459
0.00526352
0.00525119
0.00523761
0.00522279
0.00520675
0.0051895
0.00517105
0.00515143
0.00513065
0.00510872
0.00508568
0.00506152
0.00503629
0.00500999
0.00498265
0.00495429
0.00492493
0.0048946
0.00486332
0.00483111
0.00479799
0.004764
0.00472914
0.00469346
0.00465696
0.00461969
0.00458165
0.00454288
0.0045034
0.00446323
0.0044224
0.00438093
0.00433884
0.00429617
0.00425292
0.00420913
0.00416482
0.00412
0.00407471
0.00402896
0.00398277
0.00393617
0.00388917
0.0038418
0.00379407
0.003746
0.00369762
0.00364893
0.00359996
0.00355073
0.00350124
0.00345152
0.00340158
0.00335144
0.00330111
0.0032506
0.00319994
0.00314912
0.00309817
0.00304709
0.0029959
0.00294461
0.00289323
0.00284177
0.00279023
0.00273864
0.00268699
0.00263529
0.00258356
0.0025318
0.00248001
0.00242821
0.0023764
0.00232459
0.00227277
0.00222096
0.00216917
0.00211739
0.00206562
0.00201389
0.00196217
0.00191049
0.00185884
0.00180722
0.00175565
0.00170411
0.00165261
0.00160115
0.00154974
0.00149837
0.00144704
0.00139576
0.00134452
0.00129333
0.00124219
0.00119109
0.00114003
0.00108902
0.00103805
0.000987121
0.000936234
0.000885386
0.000834576
0.000783803
0.000733064
0.000682358
0.000631683
0.000581037
0.000530419
0.000479826
0.000429255
0.000378705
0.000328174
0.000277658
0.000227156
0.000176665
0.000126183
7.57075e-05
2.52354e-05
4.10392e-05
0.00012312
0.000205208
0.000287307
0.000369424
0.000451563
0.000533728
0.000615924
0.000698156
0.000780429
0.000862747
0.000945114
0.00102753
0.00111001
0.00119255
0.00127516
0.00135784
0.00144058
0.00152341
0.00160632
0.0016893
0.00177238
0.00185554
0.0019388
0.00202214
0.00210558
0.00218912
0.00227276
0.00235649
0.00244033
0.00252427
0.0026083
0.00269244
0.00277667
0.00286101
0.00294544
0.00302996
0.00311458
0.00319929
0.00328408
0.00336896
0.00345392
0.00353895
0.00362405
0.00370921
0.00379442
0.00387969
0.003965
0.00405033
0.0041357
0.00422107
0.00430645
0.00439182
0.00447717
0.00456249
0.00464777
0.00473298
0.00481811
0.00490316
0.0049881
0.00507291
0.00515757
0.00524208
0.0053264
0.00541051
0.0054944
0.00557804
0.0056614
0.00574446
0.0058272
0.00590959
0.0059916
0.0060732
0.00615437
0.00623506
0.00631526
0.00639493
0.00647404
0.00655254
0.00663042
0.00670762
0.00678413
0.00685989
0.00693487
0.00700904
0.00708235
0.00715476
0.00722624
0.00729674
0.00736623
0.00743465
0.00750198
0.00756816
0.00763316
0.00769693
0.00775943
0.00782061
0.00788045
0.00793888
0.00799588
0.0080514
0.00810539
0.00815783
0.00820866
0.00825785
0.00830536
0.00835114
0.00839518
0.00843742
0.00847784
0.00851639
0.00855306
0.00858779
0.00862058
0.00865138
0.00868017
0.00870693
0.00873163
0.00875425
0.00877477
0.00879318
0.00880945
0.00882357
0.00883553
0.00884531
0.00885292
0.00885835
0.00886158
0.00886262
0.00886146
0.00885812
0.00885258
0.00884487
0.00883498
0.00882294
0.00880873
0.0087924
0.00877394
0.00875337
0.00873072
0.00870601
0.00867926
0.00865049
0.00861973
0.00858701
0.00855235
0.00851579
0.00847735
0.00843708
0.008395
0.00835114
0.00830555
0.00825826
0.00820931
0.00815873
0.00810657
0.00805286
0.00799764
0.00794095
0.00788283
0.00782333
0.00776248
0.00770032
0.0076369
0.00757226
0.00750643
0.00743945
0.00737137
0.00730223
0.00723206
0.00716091
0.00708881
0.0070158
0.00694192
0.00686721
0.00679169
0.00671542
0.00663842
0.00656073
0.00648237
0.0064034
0.00632383
0.0062437
0.00616303
0.00608187
0.00600024
0.00591816
0.00583566
0.00575278
0.00566953
0.00558594
0.00550204
0.00541785
0.00533339
0.00524868
0.00516375
0.00507861
0.00499328
0.00490779
0.00482214
0.00473636
0.00465046
0.00456445
0.00447836
0.0043922
0.00430597
0.00421969
0.00413337
0.00404703
0.00396067
0.00387431
0.00378795
0.0037016
0.00361526
0.00352896
0.00344268
0.00335645
0.00327026
0.00318412
0.00309803
0.003012
0.00292604
0.00284013
0.0027543
0.00266854
0.00258284
0.00249723
0.00241168
0.00232621
0.00224082
0.00215551
0.00207026
0.0019851
0.0019
0.00181498
0.00173004
0.00164516
0.00156035
0.0014756
0.00139092
0.0013063
0.00122174
0.00113723
0.00105277
0.000968366
0.000884004
0.000799684
0.000715402
0.000631155
0.000546938
0.000462749
0.000378581
0.000294433
0.000210299
0.000126175
4.20577e-05
5.74514e-05
0.000172358
0.000287274
0.000402207
0.000517164
0.000632151
0.000747175
0.000862244
0.000977363
0.00109254
0.00120778
0.00132308
0.00143847
0.00155393
0.00166948
0.00178513
0.00190087
0.00201671
0.00213266
0.00224873
0.00236491
0.00248121
0.00259763
0.00271418
0.00283087
0.00294768
0.00306464
0.00318172
0.00329895
0.00341632
0.00353383
0.00365148
0.00376927
0.00388721
0.00400528
0.00412348
0.00424182
0.00436029
0.00447889
0.0045976
0.00471644
0.00483538
0.00495443
0.00507358
0.00519281
0.00531213
0.00543151
0.00555095
0.00567044
0.00578996
0.0059095
0.00602905
0.00614858
0.00626809
0.00638756
0.00650696
0.00662628
0.00674549
0.00686458
0.00698351
0.00710227
0.00722084
0.00733917
0.00745725
0.00757504
0.00769251
0.00780964
0.00792638
0.0080427
0.00815858
0.00827396
0.00838881
0.0085031
0.00861677
0.00872979
0.00884211
0.0089537
0.00906449
0.00917445
0.00928352
0.00939166
0.00949882
0.00960494
0.00970997
0.00981386
0.00991654
0.010018
0.0101181
0.0102169
0.0103142
0.0104101
0.0105044
0.0105971
0.0106881
0.0107775
0.010865
0.0109508
0.0110346
0.0111165
0.0111963
0.0112741
0.0113497
0.0114232
0.0114944
0.0115633
0.0116299
0.0116941
0.0117558
0.011815
0.0118716
0.0119256
0.011977
0.0120257
0.0120716
0.0121147
0.0121551
0.0121926
0.0122272
0.0122589
0.0122877
0.0123134
0.0123362
0.012356
0.0123728
0.0123865
0.0123972
0.0124048
0.0124093
0.0124107
0.0124091
0.0124044
0.0123967
0.0123859
0.012372
0.0123551
0.0123352
0.0123123
0.0122865
0.0122576
0.0122259
0.0121913
0.0121538
0.0121135
0.0120704
0.0120245
0.011976
0.0119247
0.0118709
0.0118144
0.0117555
0.011694
0.0116302
0.0115639
0.0114953
0.0114245
0.0113514
0.0112761
0.0111987
0.0111193
0.0110379
0.0109546
0.0108693
0.0107822
0.0106934
0.0106028
0.0105106
0.0104168
0.0103214
0.0102246
0.0101263
0.0100266
0.00992561
0.00982335
0.00971986
0.00961521
0.00950944
0.00940261
0.00929476
0.00918594
0.0090762
0.00896559
0.00885415
0.00874192
0.00862895
0.00851528
0.00840096
0.00828601
0.00817048
0.0080544
0.00793782
0.00782077
0.00770327
0.00758537
0.0074671
0.00734848
0.00722954
0.00711032
0.00699084
0.00687112
0.00675119
0.00663107
0.00651079
0.00639036
0.00626982
0.00614917
0.00602843
0.00590762
0.00578677
0.00566587
0.00554496
0.00542403
0.00530312
0.00518221
0.00506134
0.0049405
0.00481971
0.00469897
0.0045783
0.00445769
0.00433716
0.00421672
0.00409636
0.0039761
0.00385593
0.00373585
0.00361588
0.00349602
0.00337625
0.0032566
0.00313705
0.0030176
0.00289827
0.00277904
0.00265991
0.00254088
0.00242196
0.00230313
0.0021844
0.00206576
0.00194721
0.00182874
0.00171036
0.00159205
0.00147382
0.00135565
0.00123755
0.00111951
0.00100152
0.000883575
0.000765677
0.000647817
0.000529988
0.000412186
0.000294404
0.000176636
5.88778e-05
7.38603e-05
0.000221585
0.000369323
0.000517082
0.000664873
0.000812702
0.00096058
0.00110851
0.00125651
0.00140458
0.00155274
0.00170098
0.00184932
0.00199777
0.00214632
0.002295
0.0024438
0.00259273
0.00274181
0.00289102
0.00304039
0.00318991
0.0033396
0.00348944
0.00363946
0.00378965
0.00394001
0.00409055
0.00424127
0.00439218
0.00454326
0.00469453
0.00484597
0.0049976
0.00514941
0.00530139
0.00545355
0.00560587
0.00575836
0.00591101
0.00606381
0.00621675
0.00636982
0.00652302
0.00667634
0.00682976
0.00698327
0.00713686
0.00729051
0.0074442
0.00759792
0.00775165
0.00790537
0.00805906
0.00821269
0.00836624
0.00851968
0.00867299
0.00882615
0.00897911
0.00913184
0.00928433
0.00943652
0.00958838
0.00973988
0.00989097
0.0100416
0.0101918
0.0103414
0.0104904
0.0106389
0.0107866
0.0109336
0.0110798
0.0112252
0.0113697
0.0115132
0.0116558
0.0117972
0.0119376
0.0120767
0.0122145
0.0123511
0.0124862
0.0126199
0.012752
0.0128825
0.0130113
0.0131384
0.0132637
0.013387
0.0135084
0.0136277
0.0137448
0.0138598
0.0139725
0.0140828
0.0141907
0.014296
0.0143988
0.0144989
0.0145963
0.0146908
0.0147825
0.0148712
0.0149569
0.0150394
0.0151189
0.015195
0.0152679
0.0153375
0.0154036
0.0154662
0.0155254
0.0155809
0.0156329
0.0156811
0.0157257
0.0157665
0.0158035
0.0158367
0.015866
0.0158915
0.0159131
0.0159307
0.0159445
0.0159542
0.0159601
0.0159619
0.0159598
0.0159538
0.0159438
0.0159299
0.0159121
0.0158903
0.0158647
0.0158352
0.0158019
0.0157648
0.015724
0.0156794
0.0156312
0.0155793
0.0155238
0.0154648
0.0154022
0.0153363
0.015267
0.0151943
0.0151185
0.0150394
0.0149572
0.0148719
0.0147836
0.0146924
0.0145983
0.0145015
0.0144019
0.0142997
0.0141949
0.0140877
0.013978
0.0138659
0.0137516
0.0136351
0.0135164
0.0133957
0.013273
0.0131483
0.0130219
0.0128936
0.0127637
0.0126321
0.012499
0.0123643
0.0122283
0.0120908
0.0119521
0.0118121
0.0116709
0.0115286
0.0113853
0.0112409
0.0110956
0.0109494
0.0108023
0.0106544
0.0105058
0.0103565
0.0102066
0.010056
0.00990492
0.00975328
0.00960116
0.0094486
0.00929563
0.0091423
0.00898863
0.00883466
0.00868043
0.00852595
0.00837127
0.0082164
0.00806138
0.00790622
0.00775096
0.00759561
0.0074402
0.00728474
0.00712925
0.00697376
0.00681827
0.00666281
0.00650738
0.006352
0.00619668
0.00604143
0.00588627
0.00573119
0.00557622
0.00542135
0.0052666
0.00511197
0.00495746
0.00480307
0.00464882
0.0044947
0.00434072
0.00418688
0.00403317
0.0038796
0.00372617
0.00357287
0.00341971
0.00326668
0.00311378
0.00296101
0.00280836
0.00265582
0.00250341
0.0023511
0.0021989
0.0020468
0.00189479
0.00174287
0.00159104
0.00143927
0.00128758
0.00113595
0.000984379
0.000832854
0.000681369
0.000529919
0.000378495
0.000227089
7.56951e-05
9.02647e-05
0.000270799
0.00045135
0.000631927
0.000812542
0.000993206
0.00117393
0.00135472
0.00153559
0.00171655
0.00189761
0.00207878
0.00226007
0.00244149
0.00262304
0.00280474
0.0029866
0.00316862
0.0033508
0.00353317
0.00371572
0.00389846
0.0040814
0.00426453
0.00444788
0.00463144
0.00481521
0.0049992
0.00518341
0.00536785
0.00555251
0.00573739
0.00592249
0.00610782
0.00629337
0.00647913
0.00666511
0.00685129
0.00703768
0.00722426
0.00741103
0.00759798
0.00778509
0.00797236
0.00815977
0.00834731
0.00853496
0.00872271
0.00891053
0.00909842
0.00928634
0.00947427
0.00966219
0.00985008
0.0100379
0.0102256
0.0104132
0.0106007
0.0107879
0.0109749
0.0111617
0.0113481
0.0115342
0.0117199
0.0119051
0.0120899
0.0122741
0.0124577
0.0126407
0.0128229
0.0130044
0.0131851
0.0133649
0.0135437
0.0137215
0.0138983
0.0140738
0.0142481
0.0144212
0.0145928
0.014763
0.0149316
0.0150986
0.0152639
0.0154274
0.0155891
0.0157487
0.0159063
0.0160618
0.016215
0.0163659
0.0165144
0.0166604
0.0168038
0.0169444
0.0170823
0.0172173
0.0173493
0.0174782
0.017604
0.0177265
0.0178456
0.0179613
0.0180735
0.0181821
0.0182869
0.018388
0.0184852
0.0185784
0.0186676
0.0187528
0.0188337
0.0189104
0.0189827
0.0190508
0.0191143
0.0191734
0.0192279
0.0192779
0.0193232
0.0193638
0.0193997
0.0194309
0.0194573
0.0194789
0.0194957
0.0195077
0.0195148
0.0195171
0.0195145
0.0195071
0.0194949
0.0194779
0.019456
0.0194294
0.0193981
0.019362
0.0193212
0.0192758
0.0192258
0.0191712
0.0191122
0.0190486
0.0189807
0.0189085
0.018832
0.0187513
0.0186664
0.0185775
0.0184846
0.0183878
0.0182872
0.0181828
0.0180748
0.0179632
0.0178481
0.0177296
0.0176078
0.0174827
0.0173545
0.0172232
0.017089
0.0169519
0.016812
0.0166694
0.0165242
0.0163765
0.0162264
0.016074
0.0159192
0.0157624
0.0156034
0.0154425
0.0152796
0.0151149
0.0149485
0.0147803
0.0146106
0.0144394
0.0142668
0.0140927
0.0139174
0.0137408
0.0135631
0.0133843
0.0132044
0.0130236
0.0128419
0.0126593
0.012476
0.0122919
0.0121071
0.0119217
0.0117357
0.0115491
0.0113621
0.0111746
0.0109867
0.0107985
0.0106099
0.0104211
0.0102319
0.0100426
0.00985308
0.0096634
0.00947359
0.00928367
0.00909368
0.00890364
0.00871357
0.00852348
0.00833341
0.00814337
0.00795337
0.00776344
0.00757358
0.00738382
0.00719415
0.0070046
0.00681518
0.00662588
0.00643673
0.00624772
0.00605886
0.00587017
0.00568163
0.00549326
0.00530506
0.00511702
0.00492916
0.00474146
0.00455394
0.00436658
0.00417938
0.00399235
0.00380548
0.00361876
0.0034322
0.00324578
0.0030595
0.00287336
0.00268735
0.00250145
0.00231568
0.00213001
0.00194445
0.00175898
0.00157359
0.00138828
0.00120303
0.00101785
0.000832717
0.000647626
0.000462567
0.000277531
9.25087e-05
0.000106664
0.000319998
0.00053335
0.000746735
0.000960164
0.00117365
0.00138721
0.00160084
0.00181458
0.00202842
0.00224237
0.00245646
0.00267069
0.00288507
0.00309962
0.00331433
0.00352924
0.00374433
0.00395962
0.00417513
0.00439086
0.00460681
0.00482299
0.00503942
0.00525609
0.00547301
0.00569019
0.00590763
0.00612533
0.0063433
0.00656153
0.00678003
0.00699879
0.00721782
0.00743711
0.00765666
0.00787646
0.00809651
0.0083168
0.00853733
0.00875808
0.00897904
0.0092002
0.00942155
0.00964307
0.00986474
0.0100866
0.0103085
0.0105305
0.0107526
0.0109747
0.0111969
0.0114191
0.0116412
0.0118632
0.0120851
0.0123069
0.0125285
0.0127499
0.012971
0.0131918
0.0134122
0.0136323
0.0138518
0.0140709
0.0142893
0.0145072
0.0147243
0.0149407
0.0151562
0.0153708
0.0155845
0.0157971
0.0160086
0.0162189
0.016428
0.0166356
0.0168418
0.0170465
0.0172495
0.0174508
0.0176503
0.0178479
0.0180434
0.0182369
0.0184281
0.018617
0.0188035
0.0189874
0.0191687
0.0193473
0.019523
0.0196957
0.0198654
0.0200319
0.020195
0.0203548
0.020511
0.0206636
0.0208124
0.0209574
0.0210984
0.0212354
0.0213682
0.0214967
0.0216208
0.0217404
0.0218555
0.0219659
0.0220715
0.0221722
0.022268
0.0223588
0.0224445
0.022525
0.0226003
0.0226702
0.0227348
0.0227939
0.0228475
0.0228956
0.0229382
0.0229751
0.0230063
0.0230319
0.0230518
0.023066
0.0230744
0.0230771
0.0230741
0.0230653
0.0230508
0.0230307
0.0230048
0.0229733
0.0229361
0.0228934
0.0228451
0.0227914
0.0227322
0.0226676
0.0225976
0.0225224
0.022442
0.0223565
0.0222659
0.0221703
0.0220699
0.0219647
0.0218547
0.0217401
0.021621
0.0214975
0.0213696
0.0212375
0.0211013
0.020961
0.0208168
0.0206688
0.0205171
0.0203617
0.0202029
0.0200406
0.0198751
0.0197064
0.0195346
0.0193598
0.0191822
0.0190018
0.0188188
0.0186332
0.0184451
0.0182547
0.0180621
0.0178672
0.0176703
0.0174715
0.0172707
0.0170682
0.016864
0.0166581
0.0164508
0.0162419
0.0160317
0.0158203
0.0156076
0.0153937
0.0151788
0.0149629
0.0147461
0.0145284
0.0143099
0.0140906
0.0138707
0.0136501
0.013429
0.0132073
0.0129852
0.0127626
0.0125397
0.0123164
0.0120928
0.011869
0.0116449
0.0114207
0.0111963
0.0109718
0.0107472
0.0105226
0.0102979
0.0100732
0.00984853
0.00962389
0.00939932
0.00917481
0.00895041
0.00872611
0.00850193
0.00827789
0.008054
0.00783027
0.00760671
0.00738332
0.00716012
0.0069371
0.00671428
0.00649166
0.00626923
0.00604701
0.00582498
0.00560316
0.00538154
0.00516012
0.0049389
0.00471787
0.00449703
0.00427637
0.0040559
0.0038356
0.00361546
0.00339549
0.00317567
0.002956
0.00273646
0.00251706
0.00229777
0.00207859
0.00185952
0.00164053
0.00142163
0.0012028
0.000984025
0.000765301
0.000546616
0.000327959
0.000109318
0.000123056
0.000369176
0.000615319
0.000861498
0.00110773
0.00135403
0.0016004
0.00184688
0.00209346
0.00234017
0.00258701
0.002834
0.00308116
0.0033285
0.00357602
0.00382374
0.00407168
0.00431984
0.00456824
0.00481688
0.00506577
0.00531493
0.00556435
0.00581406
0.00606405
0.00631434
0.00656492
0.0068158
0.00706699
0.00731848
0.00757029
0.0078224
0.00807483
0.00832756
0.0085806
0.00883393
0.00908757
0.00934149
0.0095957
0.00985018
0.0101049
0.0103599
0.0106151
0.0108706
0.0111262
0.011382
0.011638
0.0118942
0.0121504
0.0124067
0.0126631
0.0129195
0.013176
0.0134323
0.0136886
0.0139448
0.0142008
0.0144566
0.0147122
0.0149674
0.0152223
0.0154768
0.0157308
0.0159843
0.0162372
0.0164894
0.0167409
0.0169917
0.0172415
0.0174904
0.0177382
0.017985
0.0182305
0.0184748
0.0187176
0.018959
0.0191989
0.019437
0.0196734
0.0199079
0.0201405
0.0203709
0.0205991
0.0208251
0.0210485
0.0212695
0.0214877
0.0217032
0.0219157
0.0221252
0.0223315
0.0225345
0.0227341
0.0229302
0.0231226
0.0233111
0.0234958
0.0236763
0.0238527
0.0240247
0.0241923
0.0243553
0.0245136
0.0246671
0.0248157
0.0249591
0.0250974
0.0252304
0.025358
0.0254801
0.0255966
0.0257074
0.0258124
0.0259114
0.0260045
0.0260915
0.0261724
0.026247
0.0263154
0.0263774
0.0264331
0.0264822
0.0265249
0.026561
0.0265906
0.0266136
0.02663
0.0266397
0.0266429
0.0266393
0.0266292
0.0266125
0.0265891
0.0265592
0.0265228
0.0264798
0.0264304
0.0263746
0.0263124
0.0262439
0.0261692
0.0260884
0.0260014
0.0259084
0.0258095
0.0257048
0.0255943
0.0254782
0.0253565
0.0252294
0.025097
0.0249593
0.0248165
0.0246687
0.024516
0.0243585
0.0241964
0.0240297
0.0238586
0.0236833
0.0235038
0.0233202
0.0231327
0.0229414
0.0227465
0.022548
0.022346
0.0221408
0.0219324
0.0217209
0.0215065
0.0212892
0.0210692
0.0208467
0.0206216
0.0203942
0.0201645
0.0199326
0.0196987
0.0194628
0.0192251
0.0189856
0.0187444
0.0185017
0.0182575
0.0180118
0.0177649
0.0175168
0.0172675
0.0170171
0.0167657
0.0165135
0.0162603
0.0160064
0.0157518
0.0154965
0.0152406
0.0149841
0.0147272
0.0144698
0.0142121
0.013954
0.0136956
0.013437
0.0131782
0.0129192
0.0126601
0.0124008
0.0121416
0.0118822
0.0116229
0.0113636
0.0111044
0.0108452
0.0105861
0.0103271
0.0100683
0.00980958
0.00955104
0.00929268
0.0090345
0.00877653
0.00851875
0.00826119
0.00800385
0.00774674
0.00748986
0.00723321
0.00697679
0.00672061
0.00646467
0.00620895
0.00595348
0.00569823
0.0054432
0.0051884
0.00493381
0.00467943
0.00442525
0.00417127
0.00391747
0.00366385
0.00341041
0.00315712
0.00290398
0.00265098
0.00239811
0.00214536
0.00189271
0.00164016
0.00138769
0.00113528
0.000882939
0.000630639
0.00037837
0.000126121
0.000139442
0.000418333
0.00069725
0.000976209
0.00125523
0.00153432
0.00181351
0.0020928
0.00237222
0.00265178
0.00293149
0.00321138
0.00349146
0.00377173
0.00405222
0.00433294
0.0046139
0.00489512
0.0051766
0.00545837
0.00574042
0.00602277
0.00630544
0.00658842
0.00687172
0.00715536
0.00743934
0.00772367
0.00800834
0.00829336
0.00857874
0.00886447
0.00915056
0.00943699
0.00972378
0.0100109
0.0102984
0.0105862
0.0108743
0.0111628
0.0114515
0.0117405
0.0120298
0.0123194
0.0126092
0.0128992
0.0131894
0.0134797
0.0137702
0.0140608
0.0143515
0.0146422
0.0149329
0.0152236
0.0155142
0.0158046
0.0160949
0.016385
0.0166747
0.0169642
0.0172532
0.0175418
0.0178299
0.0181174
0.0184042
0.0186903
0.0189755
0.0192599
0.0195433
0.0198256
0.0201067
0.0203866
0.0206652
0.0209423
0.0212178
0.0214917
0.0217638
0.022034
0.0223023
0.0225684
0.0228322
0.0230937
0.0233527
0.0236091
0.0238627
0.0241135
0.0243612
0.0246058
0.024847
0.0250848
0.025319
0.0255495
0.0257761
0.0259987
0.0262171
0.0264312
0.0266408
0.0268459
0.0270461
0.0272415
0.0274318
0.0276169
0.0277967
0.027971
0.0281397
0.0283027
0.0284597
0.0286108
0.0287558
0.0288944
0.0290268
0.0291526
0.0292718
0.0293844
0.0294901
0.0295889
0.0296808
0.0297656
0.0298433
0.0299137
0.0299769
0.0300328
0.0300813
0.0301223
0.0301559
0.030182
0.0302006
0.0302117
0.0302152
0.0302112
0.0301997
0.0301807
0.0301542
0.0301202
0.0300788
0.03003
0.0299738
0.0299104
0.0298397
0.0297619
0.0296771
0.0295852
0.0294864
0.0293808
0.0292684
0.0291495
0.029024
0.0288921
0.0287539
0.0286095
0.0284591
0.0283027
0.0281405
0.0279726
0.0277992
0.0276204
0.0274363
0.027247
0.0270528
0.0268537
0.0266498
0.0264414
0.0262286
0.0260114
0.0257901
0.0255648
0.0253355
0.0251026
0.024866
0.024626
0.0243826
0.024136
0.0238864
0.0236338
0.0233784
0.0231203
0.0228597
0.0225966
0.0223311
0.0220635
0.0217938
0.0215221
0.0212485
0.0209731
0.0206961
0.0204174
0.0201373
0.0198559
0.0195731
0.0192891
0.019004
0.0187179
0.0184308
0.0181428
0.017854
0.0175645
0.0172743
0.0169835
0.0166922
0.0164003
0.0161081
0.0158155
0.0155225
0.0152293
0.0149358
0.0146422
0.0143484
0.0140545
0.0137606
0.0134666
0.0131726
0.0128787
0.0125848
0.012291
0.0119973
0.0117037
0.0114103
0.0111171
0.010824
0.0105312
0.0102385
0.00994614
0.00965397
0.00936205
0.00907039
0.00877898
0.00848783
0.00819696
0.00790635
0.00761601
0.00732594
0.00703614
0.00674661
0.00645733
0.00616832
0.00587955
0.00559104
0.00530276
0.00501471
0.00472689
0.00443928
0.00415187
0.00386466
0.00357763
0.00329077
0.00300407
0.00271751
0.00243109
0.0021448
0.0018586
0.00157251
0.00128649
0.00100053
0.00071463
0.000428763
0.000142919
0.000155818
0.000467465
0.000779139
0.00109086
0.00140265
0.00171452
0.0020265
0.0023386
0.00265084
0.00296323
0.00327581
0.00358857
0.00390155
0.00421475
0.0045282
0.0048419
0.00515587
0.00547013
0.0057847
0.00609957
0.00641477
0.00673031
0.0070462
0.00736245
0.00767906
0.00799605
0.00831342
0.00863118
0.00894934
0.00926789
0.00958684
0.00990619
0.0102259
0.0105461
0.0108666
0.0111876
0.0115089
0.0118306
0.0121526
0.0124751
0.0127978
0.0131209
0.0134443
0.013768
0.0140919
0.0144161
0.0147406
0.0150652
0.0153899
0.0157148
0.0160398
0.0163648
0.0166899
0.0170149
0.0173398
0.0176646
0.0179892
0.0183136
0.0186376
0.0189613
0.0192846
0.0196074
0.0199296
0.0202511
0.0205719
0.0208919
0.021211
0.0215291
0.0218461
0.0221619
0.0224765
0.0227896
0.0231013
0.0234113
0.0237197
0.0240261
0.0243306
0.024633
0.0249332
0.025231
0.0255264
0.025819
0.0261089
0.0263959
0.0266799
0.0269605
0.0272379
0.0275117
0.0277818
0.028048
0.0283103
0.0285684
0.0288221
0.0290714
0.029316
0.0295557
0.0297905
0.0300202
0.0302445
0.0304633
0.0306765
0.0308838
0.0310852
0.0312805
0.0314695
0.0316521
0.0318281
0.0319973
0.0321597
0.0323151
0.0324634
0.0326044
0.032738
0.0328641
0.0329826
0.0330934
0.0331963
0.0332913
0.0333784
0.0334573
0.0335281
0.0335907
0.0336451
0.0336911
0.0337287
0.033758
0.0337788
0.0337912
0.0337952
0.0337907
0.0337778
0.0337564
0.0337267
0.0336886
0.0336422
0.0335874
0.0335245
0.0334534
0.0333742
0.033287
0.0331919
0.033089
0.0329782
0.0328599
0.032734
0.0326007
0.0324601
0.0323123
0.0321574
0.0319956
0.0318271
0.0316519
0.0314702
0.0312821
0.0310879
0.0308876
0.0306813
0.0304694
0.0302518
0.0300288
0.0298005
0.0295671
0.0293287
0.0290856
0.0288377
0.0285854
0.0283288
0.028068
0.0278031
0.0275344
0.0272619
0.0269859
0.0267065
0.0264237
0.0261379
0.025849
0.0255573
0.0252629
0.0249658
0.0246663
0.0243645
0.0240605
0.0237543
0.0234462
0.0231362
0.0228245
0.0225112
0.0221963
0.0218799
0.0215623
0.0212433
0.0209233
0.0206022
0.0202801
0.0199571
0.0196333
0.0193087
0.0189835
0.0186577
0.0183313
0.0180045
0.0176773
0.0173497
0.0170218
0.0166937
0.0163653
0.0160369
0.0157083
0.0153796
0.015051
0.0147223
0.0143937
0.0140651
0.0137367
0.0134083
0.0130802
0.0127522
0.0124244
0.0120968
0.0117695
0.0114424
0.0111155
0.010789
0.0104627
0.0101367
0.00981096
0.00948555
0.00916044
0.00883564
0.00851115
0.00818696
0.00786307
0.00753948
0.00721619
0.00689319
0.00657047
0.00624803
0.00592586
0.00560396
0.0052823
0.00496088
0.0046397
0.00431873
0.00399797
0.0036774
0.00335701
0.00303679
0.00271671
0.00239678
0.00207696
0.00175725
0.00143762
0.00111808
0.000798585
0.000479134
0.000159709
0.000172186
0.000516568
0.000860981
0.00120545
0.00154999
0.00189462
0.00223937
0.00258426
0.0029293
0.00327452
0.00361993
0.00396556
0.00431142
0.00465753
0.00500391
0.00535058
0.00569755
0.00604485
0.00639247
0.00674045
0.00708879
0.00743751
0.00778661
0.00813612
0.00848603
0.00883636
0.00918712
0.00953831
0.00988994
0.010242
0.0105945
0.0109475
0.0113009
0.0116548
0.0120091
0.0123638
0.012719
0.0130746
0.0134306
0.013787
0.0141438
0.014501
0.0148585
0.0152163
0.0155745
0.0159329
0.0162916
0.0166504
0.0170095
0.0173688
0.0177281
0.0180875
0.0184469
0.0188063
0.0191656
0.0195248
0.0198838
0.0202425
0.0206009
0.0209589
0.0213165
0.0216735
0.0220299
0.0223856
0.0227404
0.0230944
0.0234475
0.0237994
0.0241501
0.0244996
0.0248476
0.0251942
0.025539
0.0258821
0.0262233
0.0265625
0.0268995
0.0272343
0.0275665
0.0278962
0.0282231
0.0285471
0.0288681
0.0291858
0.0295002
0.029811
0.0301181
0.0304213
0.0307204
0.0310153
0.0313057
0.0315916
0.0318726
0.0321487
0.0324197
0.0326853
0.0329454
0.0331998
0.0334483
0.0336907
0.0339269
0.0341567
0.0343799
0.0345963
0.0348057
0.0350081
0.0352031
0.0353907
0.0355707
0.0357429
0.0359073
0.0360636
0.0362117
0.0363514
0.0364828
0.0366056
0.0367197
0.0368251
0.0369215
0.0370091
0.0370876
0.037157
0.0372172
0.0372682
0.0373099
0.0373423
0.0373654
0.0373792
0.0373836
0.0373786
0.0373642
0.0373406
0.0373076
0.0372653
0.0372138
0.0371532
0.0370834
0.0370046
0.0369168
0.0368201
0.0367146
0.0366005
0.0364777
0.0363465
0.036207
0.0360592
0.0359033
0.0357395
0.0355679
0.0353886
0.0352018
0.0350076
0.0348063
0.0345979
0.0343826
0.0341606
0.0339321
0.0336973
0.0334563
0.0332092
0.0329563
0.0326978
0.0324337
0.0321644
0.0318899
0.0316105
0.0313262
0.0310374
0.0307441
0.0304465
0.0301449
0.0298392
0.0295299
0.0292168
0.0289004
0.0285806
0.0282577
0.0279318
0.027603
0.0272715
0.0269374
0.0266009
0.0262621
0.0259212
0.0255782
0.0252332
0.0248865
0.0245381
0.0241881
0.0238366
0.0234838
0.0231298
0.0227745
0.0224182
0.0220609
0.0217027
0.0213438
0.0209841
0.0206237
0.0202628
0.0199013
0.0195394
0.0191771
0.0188146