/*--------------------------------*- C++ -*----------------------------------*\
| =========                 |                                                 |
| \\      /  F ield         | OpenFOAM: The Open Source CFD Toolbox           |
|  \\    /   O peration     | Version:  v2012                                 |
|   \\  /    A nd           | Website:  www.openfoam.com                      |
|    \\/     M anipulation  |                                                 |
\*---------------------------------------------------------------------------*/
FoamFile
{
    version     2.0;
    format      ascii;
    class       volVectorField;
    location    "17";
    object      U;
}
// * * * * * * * * * * * * * * * * * * * * * * * * * * * * * * * * * * * * * //

dimensions      [0 1 -1 0 0 0 0];


internalField   nonuniform List<vector> 
65536
(
(0.000668731 -0.000668761 0)
(0.00200626 -0.000668792 0)
(0.00334387 -0.000668878 0)
(0.00468167 -0.000668998 0)
(0.00601977 -0.000669156 0)
(0.00735822 -0.000669354 0)
(0.0086971 -0.000669589 0)
(0.0100365 -0.000669862 0)
(0.0113765 -0.000670173 0)
(0.0127171 -0.000670521 0)
(0.0140585 -0.000670904 0)
(0.0154006 -0.000671323 0)
(0.0167437 -0.000671777 0)
(0.0180877 -0.000672264 0)
(0.0194326 -0.000672783 0)
(0.0207787 -0.000673333 0)
(0.0221259 -0.000673914 0)
(0.0234743 -0.000674523 0)
(0.0248239 -0.000675159 0)
(0.0261749 -0.000675822 0)
(0.0275271 -0.000676508 0)
(0.0288808 -0.000677217 0)
(0.0302359 -0.000677946 0)
(0.0315925 -0.000678694 0)
(0.0329506 -0.000679458 0)
(0.0343103 -0.000680237 0)
(0.0356715 -0.000681028 0)
(0.0370344 -0.000681829 0)
(0.0383988 -0.000682638 0)
(0.0397648 -0.000683451 0)
(0.0411325 -0.000684266 0)
(0.0425019 -0.00068508 0)
(0.0438728 -0.00068589 0)
(0.0452454 -0.000686693 0)
(0.0466195 -0.000687486 0)
(0.0479953 -0.000688265 0)
(0.0493726 -0.000689027 0)
(0.0507514 -0.000689768 0)
(0.0521316 -0.000690484 0)
(0.0535133 -0.000691172 0)
(0.0548963 -0.000691827 0)
(0.0562806 -0.000692444 0)
(0.0576661 -0.00069302 0)
(0.0590527 -0.00069355 0)
(0.0604403 -0.000694029 0)
(0.0618288 -0.000694452 0)
(0.0632181 -0.000694814 0)
(0.064608 -0.000695111 0)
(0.0659985 -0.000695336 0)
(0.0673894 -0.000695484 0)
(0.0687805 -0.000695549 0)
(0.0701716 -0.000695526 0)
(0.0715627 -0.000695409 0)
(0.0729533 -0.000695192 0)
(0.0743435 -0.000694867 0)
(0.0757329 -0.00069443 0)
(0.0771213 -0.000693873 0)
(0.0785084 -0.000693189 0)
(0.0798941 -0.000692373 0)
(0.081278 -0.000691416 0)
(0.0826599 -0.000690313 0)
(0.0840393 -0.000689055 0)
(0.0854162 -0.000687636 0)
(0.08679 -0.000686048 0)
(0.0881605 -0.000684285 0)
(0.0895273 -0.000682338 0)
(0.09089 -0.000680199 0)
(0.0922482 -0.000677863 0)
(0.0936016 -0.00067532 0)
(0.0949496 -0.000672564 0)
(0.096292 -0.000669587 0)
(0.0976282 -0.000666381 0)
(0.0989577 -0.000662938 0)
(0.10028 -0.000659253 0)
(0.101595 -0.000655316 0)
(0.102902 -0.000651122 0)
(0.1042 -0.000646662 0)
(0.105488 -0.00064193 0)
(0.106768 -0.000636919 0)
(0.108036 -0.000631622 0)
(0.109294 -0.000626034 0)
(0.110541 -0.000620147 0)
(0.111775 -0.000613956 0)
(0.112997 -0.000607456 0)
(0.114205 -0.000600641 0)
(0.1154 -0.000593505 0)
(0.116579 -0.000586046 0)
(0.117744 -0.000578257 0)
(0.118893 -0.000570136 0)
(0.120025 -0.000561679 0)
(0.12114 -0.000552884 0)
(0.122237 -0.000543747 0)
(0.123315 -0.000534268 0)
(0.124374 -0.000524444 0)
(0.125413 -0.000514275 0)
(0.126431 -0.00050376 0)
(0.127428 -0.000492901 0)
(0.128403 -0.000481698 0)
(0.129355 -0.000470152 0)
(0.130284 -0.000458266 0)
(0.131189 -0.000446043 0)
(0.132069 -0.000433487 0)
(0.132923 -0.000420602 0)
(0.133751 -0.000407392 0)
(0.134553 -0.000393864 0)
(0.135327 -0.000380024 0)
(0.136073 -0.000365878 0)
(0.136791 -0.000351435 0)
(0.137479 -0.000336704 0)
(0.138138 -0.000321692 0)
(0.138766 -0.00030641 0)
(0.139364 -0.000290869 0)
(0.13993 -0.000275079 0)
(0.140464 -0.000259052 0)
(0.140966 -0.0002428 0)
(0.141436 -0.000226337 0)
(0.141872 -0.000209674 0)
(0.142274 -0.000192827 0)
(0.142643 -0.00017581 0)
(0.142978 -0.000158637 0)
(0.143278 -0.000141323 0)
(0.143543 -0.000123884 0)
(0.143773 -0.000106336 0)
(0.143969 -8.86952e-05 0)
(0.144128 -7.09772e-05 0)
(0.144252 -5.31989e-05 0)
(0.144341 -3.53771e-05 0)
(0.144394 -1.75282e-05 0)
(0.144411 3.30741e-07 0)
(0.144393 1.81829e-05 0)
(0.144338 3.60116e-05 0)
(0.144248 5.38003e-05 0)
(0.144123 7.15324e-05 0)
(0.143962 8.91917e-05 0)
(0.143766 0.000106762 0)
(0.143535 0.000124228 0)
(0.143269 0.000141573 0)
(0.142969 0.000158783 0)
(0.142634 0.000175842 0)
(0.142265 0.000192738 0)
(0.141863 0.000209455 0)
(0.141427 0.00022598 0)
(0.140958 0.000242301 0)
(0.140457 0.000258405 0)
(0.139924 0.00027428 0)
(0.13936 0.000289916 0)
(0.138765 0.000305301 0)
(0.138139 0.000320427 0)
(0.137482 0.000335283 0)
(0.136797 0.000349861 0)
(0.136083 0.000364154 0)
(0.13534 0.000378153 0)
(0.13457 0.000391852 0)
(0.133772 0.000405246 0)
(0.132948 0.000418328 0)
(0.132099 0.000431095 0)
(0.131224 0.000443542 0)
(0.130324 0.000455665 0)
(0.129401 0.000467463 0)
(0.128454 0.000478932 0)
(0.127485 0.000490072 0)
(0.126493 0.000500882 0)
(0.125481 0.00051136 0)
(0.124447 0.000521507 0)
(0.123394 0.000531324 0)
(0.122322 0.000540813 0)
(0.121231 0.000549973 0)
(0.120121 0.000558809 0)
(0.118995 0.000567321 0)
(0.117852 0.000575514 0)
(0.116693 0.000583391 0)
(0.115518 0.000590955 0)
(0.114328 0.00059821 0)
(0.113125 0.000605161 0)
(0.111907 0.000611813 0)
(0.110677 0.00061817 0)
(0.109434 0.000624239 0)
(0.10818 0.000630023 0)
(0.106914 0.000635529 0)
(0.105637 0.000640763 0)
(0.10435 0.000645732 0)
(0.103054 0.00065044 0)
(0.101748 0.000654895 0)
(0.100434 0.000659102 0)
(0.0991117 0.00066307 0)
(0.0977816 0.000666803 0)
(0.0964442 0.000670309 0)
(0.0951001 0.000673595 0)
(0.0937496 0.000676668 0)
(0.0923932 0.000679533 0)
(0.0910312 0.000682199 0)
(0.0896641 0.000684672 0)
(0.0882923 0.000686958 0)
(0.086916 0.000689065 0)
(0.0855358 0.000690999 0)
(0.0841518 0.000692766 0)
(0.0827645 0.000694375 0)
(0.0813741 0.00069583 0)
(0.079981 0.000697139 0)
(0.0785854 0.000698308 0)
(0.0771876 0.000699342 0)
(0.0757878 0.00070025 0)
(0.0743864 0.000701036 0)
(0.0729835 0.000701706 0)
(0.0715794 0.000702267 0)
(0.0701743 0.000702725 0)
(0.0687684 0.000703084 0)
(0.0673618 0.000703351 0)
(0.0659548 0.000703531 0)
(0.0645476 0.000703629 0)
(0.0631402 0.00070365 0)
(0.0617329 0.000703601 0)
(0.0603257 0.000703484 0)
(0.0589188 0.000703306 0)
(0.0575123 0.000703071 0)
(0.0561064 0.000702784 0)
(0.0547011 0.000702449 0)
(0.0532965 0.00070207 0)
(0.0518928 0.000701651 0)
(0.0504898 0.000701197 0)
(0.0490879 0.000700712 0)
(0.0476869 0.000700198 0)
(0.046287 0.000699661 0)
(0.0448882 0.000699103 0)
(0.0434905 0.000698528 0)
(0.042094 0.000697939 0)
(0.0406987 0.00069734 0)
(0.0393046 0.000696733 0)
(0.0379117 0.000696121 0)
(0.0365201 0.000695507 0)
(0.0351297 0.000694894 0)
(0.0337405 0.000694284 0)
(0.0323525 0.000693681 0)
(0.0309657 0.000693085 0)
(0.0295801 0.0006925 0)
(0.0281957 0.000691927 0)
(0.0268124 0.000691369 0)
(0.0254302 0.000690827 0)
(0.024049 0.000690303 0)
(0.0226689 0.0006898 0)
(0.0212898 0.000689318 0)
(0.0199116 0.000688859 0)
(0.0185344 0.000688424 0)
(0.0171579 0.000688015 0)
(0.0157823 0.000687633 0)
(0.0144074 0.000687279 0)
(0.0130331 0.000686954 0)
(0.0116595 0.000686659 0)
(0.0102865 0.000686395 0)
(0.00891393 0.000686162 0)
(0.00754182 0.000685962 0)
(0.00617007 0.000685794 0)
(0.00479863 0.000685659 0)
(0.00342742 0.000685557 0)
(0.00205639 0.000685489 0)
(0.000685458 0.000685455 0)
(0.000668699 -0.00200621 0)
(0.00200614 -0.00200633 0)
(0.00334367 -0.00200657 0)
(0.00468141 -0.00200693 0)
(0.00601943 -0.00200741 0)
(0.0073578 -0.002008 0)
(0.0086966 -0.00200871 0)
(0.0100359 -0.00200953 0)
(0.0113758 -0.00201046 0)
(0.0127164 -0.0020115 0)
(0.0140577 -0.00201265 0)
(0.0153998 -0.00201391 0)
(0.0167427 -0.00201527 0)
(0.0180867 -0.00201673 0)
(0.0194316 -0.00201829 0)
(0.0207776 -0.00201995 0)
(0.0221247 -0.00202169 0)
(0.0234731 -0.00202352 0)
(0.0248226 -0.00202543 0)
(0.0261735 -0.00202742 0)
(0.0275258 -0.00202948 0)
(0.0288794 -0.00203161 0)
(0.0302345 -0.00203379 0)
(0.031591 -0.00203604 0)
(0.0329491 -0.00203834 0)
(0.0343087 -0.00204068 0)
(0.03567 -0.00204305 0)
(0.0370328 -0.00204546 0)
(0.0383972 -0.00204788 0)
(0.0397632 -0.00205033 0)
(0.0411309 -0.00205277 0)
(0.0425003 -0.00205522 0)
(0.0438712 -0.00205765 0)
(0.0452438 -0.00206007 0)
(0.046618 -0.00206245 0)
(0.0479938 -0.00206479 0)
(0.0493711 -0.00206708 0)
(0.0507499 -0.0020693 0)
(0.0521302 -0.00207146 0)
(0.053512 -0.00207352 0)
(0.054895 -0.00207549 0)
(0.0562794 -0.00207735 0)
(0.057665 -0.00207908 0)
(0.0590517 -0.00208068 0)
(0.0604394 -0.00208212 0)
(0.061828 -0.00208339 0)
(0.0632174 -0.00208448 0)
(0.0646076 -0.00208538 0)
(0.0659982 -0.00208606 0)
(0.0673892 -0.00208651 0)
(0.0687805 -0.00208671 0)
(0.0701718 -0.00208665 0)
(0.071563 -0.0020863 0)
(0.0729539 -0.00208566 0)
(0.0743443 -0.00208469 0)
(0.0757339 -0.00208338 0)
(0.0771225 -0.00208172 0)
(0.0785099 -0.00207967 0)
(0.0798959 -0.00207723 0)
(0.0812801 -0.00207437 0)
(0.0826622 -0.00207107 0)
(0.0840421 -0.0020673 0)
(0.0854192 -0.00206305 0)
(0.0867934 -0.00205829 0)
(0.0881642 -0.00205301 0)
(0.0895314 -0.00204718 0)
(0.0908945 -0.00204077 0)
(0.0922531 -0.00203377 0)
(0.0936069 -0.00202615 0)
(0.0949554 -0.00201788 0)
(0.0962982 -0.00200896 0)
(0.0976348 -0.00199935 0)
(0.0989649 -0.00198903 0)
(0.100288 -0.00197798 0)
(0.101603 -0.00196618 0)
(0.10291 -0.0019536 0)
(0.104209 -0.00194023 0)
(0.105498 -0.00192604 0)
(0.106778 -0.00191101 0)
(0.108047 -0.00189513 0)
(0.109306 -0.00187837 0)
(0.110553 -0.00186071 0)
(0.111788 -0.00184215 0)
(0.11301 -0.00182265 0)
(0.114219 -0.00180221 0)
(0.115414 -0.00178081 0)
(0.116595 -0.00175843 0)
(0.11776 -0.00173507 0)
(0.118909 -0.00171071 0)
(0.120042 -0.00168534 0)
(0.121158 -0.00165896 0)
(0.122255 -0.00163155 0)
(0.123334 -0.00160311 0)
(0.124394 -0.00157364 0)
(0.125434 -0.00154314 0)
(0.126453 -0.00151159 0)
(0.127451 -0.00147901 0)
(0.128426 -0.0014454 0)
(0.129379 -0.00141076 0)
(0.130308 -0.0013751 0)
(0.131214 -0.00133843 0)
(0.132094 -0.00130076 0)
(0.132949 -0.00126209 0)
(0.133778 -0.00122246 0)
(0.13458 -0.00118187 0)
(0.135355 -0.00114034 0)
(0.136102 -0.0010979 0)
(0.13682 -0.00105456 0)
(0.137509 -0.00101035 0)
(0.138168 -0.000965309 0)
(0.138797 -0.000919453 0)
(0.139395 -0.000872818 0)
(0.139962 -0.000825436 0)
(0.140497 -0.000777343 0)
(0.140999 -0.000728575 0)
(0.141469 -0.000679171 0)
(0.141905 -0.00062917 0)
(0.142308 -0.000578615 0)
(0.142677 -0.000527547 0)
(0.143012 -0.000476013 0)
(0.143313 -0.000424056 0)
(0.143578 -0.000371724 0)
(0.143809 -0.000319064 0)
(0.144004 -0.000266124 0)
(0.144164 -0.000212954 0)
(0.144288 -0.000159602 0)
(0.144377 -0.00010612 0)
(0.14443 -5.25568e-05 0)
(0.144447 1.03673e-06 0)
(0.144428 5.46099e-05 0)
(0.144374 0.000108113 0)
(0.144284 0.000161495 0)
(0.144158 0.000214708 0)
(0.143997 0.000267702 0)
(0.143801 0.000320428 0)
(0.14357 0.00037284 0)
(0.143304 0.000424891 0)
(0.143003 0.000476535 0)
(0.142668 0.000527728 0)
(0.142299 0.000578428 0)
(0.141896 0.000628592 0)
(0.14146 0.00067818 0)
(0.140991 0.000727155 0)
(0.140489 0.000775478 0)
(0.139956 0.000823115 0)
(0.139391 0.000870033 0)
(0.138795 0.000916199 0)
(0.138169 0.000961585 0)
(0.137512 0.00100616 0)
(0.136826 0.0010499 0)
(0.136111 0.00109279 0)
(0.135368 0.00113479 0)
(0.134597 0.0011759 0)
(0.133799 0.00121608 0)
(0.132974 0.00125533 0)
(0.132124 0.00129364 0)
(0.131248 0.00133098 0)
(0.130348 0.00136735 0)
(0.129424 0.00140275 0)
(0.128477 0.00143716 0)
(0.127507 0.00147058 0)
(0.126515 0.00150301 0)
(0.125501 0.00153444 0)
(0.124467 0.00156488 0)
(0.123414 0.00159433 0)
(0.12234 0.00162279 0)
(0.121249 0.00165027 0)
(0.120139 0.00167678 0)
(0.119012 0.00170231 0)
(0.117868 0.00172689 0)
(0.116708 0.00175051 0)
(0.115533 0.0017732 0)
(0.114343 0.00179496 0)
(0.113138 0.00181581 0)
(0.11192 0.00183576 0)
(0.110689 0.00185483 0)
(0.109446 0.00187303 0)
(0.108191 0.00189037 0)
(0.106925 0.00190689 0)
(0.105648 0.00192258 0)
(0.10436 0.00193748 0)
(0.103063 0.0019516 0)
(0.101757 0.00196496 0)
(0.100442 0.00197757 0)
(0.0991195 0.00198947 0)
(0.0977889 0.00200066 0)
(0.0964511 0.00201117 0)
(0.0951065 0.00202102 0)
(0.0937556 0.00203023 0)
(0.0923987 0.00203882 0)
(0.0910364 0.00204682 0)
(0.0896689 0.00205423 0)
(0.0882967 0.00206108 0)
(0.0869201 0.00206739 0)
(0.0855395 0.00207319 0)
(0.0841553 0.00207848 0)
(0.0827676 0.0020833 0)
(0.0813769 0.00208766 0)
(0.0799835 0.00209158 0)
(0.0785876 0.00209508 0)
(0.0771896 0.00209818 0)
(0.0757896 0.00210089 0)
(0.0743879 0.00210325 0)
(0.0729848 0.00210525 0)
(0.0715805 0.00210693 0)
(0.0701752 0.0021083 0)
(0.0687691 0.00210937 0)
(0.0673623 0.00211016 0)
(0.0659552 0.0021107 0)
(0.0645477 0.00211099 0)
(0.0631402 0.00211105 0)
(0.0617327 0.00211089 0)
(0.0603254 0.00211054 0)
(0.0589184 0.00211 0)
(0.0575119 0.00210929 0)
(0.0561058 0.00210842 0)
(0.0547004 0.00210741 0)
(0.0532958 0.00210627 0)
(0.0518919 0.00210501 0)
(0.050489 0.00210365 0)
(0.0490869 0.00210219 0)
(0.0476859 0.00210064 0)
(0.046286 0.00209903 0)
(0.0448871 0.00209735 0)
(0.0434894 0.00209562 0)
(0.0420929 0.00209385 0)
(0.0406976 0.00209205 0)
(0.0393034 0.00209023 0)
(0.0379106 0.00208839 0)
(0.0365189 0.00208654 0)
(0.0351285 0.0020847 0)
(0.0337393 0.00208287 0)
(0.0323513 0.00208106 0)
(0.0309646 0.00207927 0)
(0.029579 0.00207751 0)
(0.0281946 0.00207579 0)
(0.0268113 0.00207411 0)
(0.0254291 0.00207249 0)
(0.024048 0.00207091 0)
(0.022668 0.0020694 0)
(0.0212889 0.00206795 0)
(0.0199108 0.00206658 0)
(0.0185335 0.00206527 0)
(0.0171571 0.00206404 0)
(0.0157815 0.0020629 0)
(0.0144067 0.00206183 0)
(0.0130325 0.00206086 0)
(0.011659 0.00205997 0)
(0.010286 0.00205918 0)
(0.00891351 0.00205848 0)
(0.00754145 0.00205788 0)
(0.00616977 0.00205737 0)
(0.00479839 0.00205697 0)
(0.00342725 0.00205666 0)
(0.00205629 0.00205646 0)
(0.000685424 0.00205636 0)
(0.000668613 -0.00334357 0)
(0.00200589 -0.00334376 0)
(0.00334328 -0.00334415 0)
(0.00468086 -0.00334474 0)
(0.00601873 -0.00334553 0)
(0.00735695 -0.00334652 0)
(0.0086956 -0.0033477 0)
(0.0100348 -0.00334907 0)
(0.0113745 -0.00335062 0)
(0.0127149 -0.00335236 0)
(0.0140561 -0.00335429 0)
(0.015398 -0.00335639 0)
(0.0167409 -0.00335866 0)
(0.0180847 -0.0033611 0)
(0.0194295 -0.0033637 0)
(0.0207754 -0.00336646 0)
(0.0221224 -0.00336937 0)
(0.0234706 -0.00337242 0)
(0.0248201 -0.00337561 0)
(0.0261708 -0.00337893 0)
(0.027523 -0.00338237 0)
(0.0288765 -0.00338592 0)
(0.0302315 -0.00338958 0)
(0.031588 -0.00339333 0)
(0.0329461 -0.00339716 0)
(0.0343056 -0.00340106 0)
(0.0356668 -0.00340503 0)
(0.0370296 -0.00340905 0)
(0.038394 -0.0034131 0)
(0.03976 -0.00341718 0)
(0.0411277 -0.00342127 0)
(0.042497 -0.00342536 0)
(0.043868 -0.00342942 0)
(0.0452406 -0.00343346 0)
(0.0466149 -0.00343744 0)
(0.0479907 -0.00344135 0)
(0.0493681 -0.00344518 0)
(0.0507471 -0.0034489 0)
(0.0521275 -0.0034525 0)
(0.0535093 -0.00345596 0)
(0.0548925 -0.00345926 0)
(0.0562771 -0.00346237 0)
(0.0576628 -0.00346527 0)
(0.0590497 -0.00346794 0)
(0.0604376 -0.00347036 0)
(0.0618265 -0.0034725 0)
(0.0632162 -0.00347434 0)
(0.0646065 -0.00347585 0)
(0.0659975 -0.003477 0)
(0.0673888 -0.00347777 0)
(0.0687804 -0.00347812 0)
(0.0701721 -0.00347804 0)
(0.0715637 -0.00347748 0)
(0.072955 -0.00347643 0)
(0.0743458 -0.00347484 0)
(0.0757359 -0.00347268 0)
(0.077125 -0.00346993 0)
(0.078513 -0.00346655 0)
(0.0798995 -0.0034625 0)
(0.0812842 -0.00345775 0)
(0.082667 -0.00345227 0)
(0.0840474 -0.00344601 0)
(0.0854253 -0.00343896 0)
(0.0868001 -0.00343105 0)
(0.0881717 -0.00342227 0)
(0.0895396 -0.00341257 0)
(0.0909035 -0.00340192 0)
(0.0922629 -0.00339027 0)
(0.0936175 -0.0033776 0)
(0.0949669 -0.00336385 0)
(0.0963106 -0.003349 0)
(0.0976482 -0.00333301 0)
(0.0989792 -0.00331584 0)
(0.100303 -0.00329745 0)
(0.101619 -0.0032778 0)
(0.102928 -0.00325686 0)
(0.104227 -0.0032346 0)
(0.105518 -0.00321097 0)
(0.106799 -0.00318595 0)
(0.108069 -0.0031595 0)
(0.109329 -0.00313158 0)
(0.110577 -0.00310218 0)
(0.111813 -0.00307125 0)
(0.113037 -0.00303878 0)
(0.114247 -0.00300472 0)
(0.115443 -0.00296907 0)
(0.116625 -0.00293179 0)
(0.117792 -0.00289287 0)
(0.118943 -0.00285228 0)
(0.120077 -0.00281001 0)
(0.121194 -0.00276604 0)
(0.122293 -0.00272037 0)
(0.123373 -0.00267298 0)
(0.124434 -0.00262386 0)
(0.125475 -0.00257302 0)
(0.126496 -0.00252044 0)
(0.127495 -0.00246614 0)
(0.128472 -0.00241011 0)
(0.129426 -0.00235237 0)
(0.130357 -0.00229293 0)
(0.131263 -0.0022318 0)
(0.132145 -0.00216899 0)
(0.133001 -0.00210454 0)
(0.133832 -0.00203846 0)
(0.134635 -0.00197079 0)
(0.135411 -0.00190155 0)
(0.136159 -0.00183079 0)
(0.136878 -0.00175853 0)
(0.137569 -0.00168482 0)
(0.138229 -0.00160972 0)
(0.138859 -0.00153326 0)
(0.139458 -0.00145549 0)
(0.140025 -0.00137649 0)
(0.140561 -0.00129629 0)
(0.141065 -0.00121497 0)
(0.141535 -0.00113258 0)
(0.141972 -0.0010492 0)
(0.142376 -0.000964893 0)
(0.142746 -0.000879732 0)
(0.143081 -0.00079379 0)
(0.143382 -0.000707144 0)
(0.143648 -0.000619871 0)
(0.143879 -0.000532051 0)
(0.144075 -0.000443763 0)
(0.144235 -0.000355091 0)
(0.144359 -0.000266117 0)
(0.144448 -0.000176924 0)
(0.144501 -8.7596e-05 0)
(0.144518 1.78218e-06 0)
(0.1445 9.11267e-05 0)
(0.144445 0.000180354 0)
(0.144355 0.000269379 0)
(0.144229 0.000358121 0)
(0.144068 0.000446498 0)
(0.143871 0.000534428 0)
(0.14364 0.000621833 0)
(0.143373 0.000708635 0)
(0.143072 0.000794757 0)
(0.142736 0.000880127 0)
(0.142366 0.000964672 0)
(0.141962 0.00104832 0)
(0.141526 0.00113101 0)
(0.141056 0.00121268 0)
(0.140554 0.00129326 0)
(0.140019 0.00137269 0)
(0.139453 0.00145092 0)
(0.138856 0.0015279 0)
(0.138229 0.00160357 0)
(0.137571 0.00167789 0)
(0.136884 0.00175082 0)
(0.136168 0.00182232 0)
(0.135423 0.00189235 0)
(0.134651 0.00196087 0)
(0.133852 0.00202787 0)
(0.133026 0.0020933 0)
(0.132174 0.00215715 0)
(0.131298 0.0022194 0)
(0.130396 0.00228004 0)
(0.129471 0.00233903 0)
(0.128522 0.00239639 0)
(0.127551 0.00245209 0)
(0.126557 0.00250614 0)
(0.125543 0.00255853 0)
(0.124507 0.00260926 0)
(0.123452 0.00265834 0)
(0.122378 0.00270577 0)
(0.121285 0.00275157 0)
(0.120174 0.00279573 0)
(0.119045 0.00283828 0)
(0.1179 0.00287923 0)
(0.116739 0.00291859 0)
(0.115562 0.00295639 0)
(0.114371 0.00299264 0)
(0.113166 0.00302737 0)
(0.111947 0.00306061 0)
(0.110714 0.00309237 0)
(0.10947 0.00312268 0)
(0.108214 0.00315157 0)
(0.106946 0.00317907 0)
(0.105668 0.00320521 0)
(0.10438 0.00323002 0)
(0.103082 0.00325353 0)
(0.101775 0.00327577 0)
(0.100459 0.00329678 0)
(0.099135 0.00331658 0)
(0.0978035 0.00333521 0)
(0.0964648 0.00335271 0)
(0.0951193 0.00336911 0)
(0.0937675 0.00338444 0)
(0.0924099 0.00339873 0)
(0.0910468 0.00341202 0)
(0.0896785 0.00342435 0)
(0.0883056 0.00343575 0)
(0.0869283 0.00344625 0)
(0.085547 0.00345589 0)
(0.0841621 0.00346469 0)
(0.0827738 0.0034727 0)
(0.0813826 0.00347994 0)
(0.0799886 0.00348646 0)
(0.0785921 0.00349227 0)
(0.0771936 0.00349741 0)
(0.0757931 0.00350192 0)
(0.0743909 0.00350582 0)
(0.0729874 0.00350914 0)
(0.0715826 0.00351192 0)
(0.0701769 0.00351417 0)
(0.0687704 0.00351594 0)
(0.0673633 0.00351725 0)
(0.0659558 0.00351812 0)
(0.0645481 0.00351859 0)
(0.0631403 0.00351867 0)
(0.0617325 0.0035184 0)
(0.0603249 0.00351779 0)
(0.0589177 0.00351688 0)
(0.0575109 0.00351568 0)
(0.0561047 0.00351422 0)
(0.0546991 0.00351252 0)
(0.0532943 0.00351061 0)
(0.0518903 0.00350849 0)
(0.0504872 0.0035062 0)
(0.049085 0.00350376 0)
(0.0476839 0.00350117 0)
(0.0462838 0.00349847 0)
(0.0448849 0.00349566 0)
(0.0434872 0.00349277 0)
(0.0420906 0.00348981 0)
(0.0406952 0.0034868 0)
(0.0393011 0.00348375 0)
(0.0379082 0.00348068 0)
(0.0365165 0.00347759 0)
(0.0351261 0.00347452 0)
(0.0337369 0.00347146 0)
(0.032349 0.00346842 0)
(0.0309622 0.00346544 0)
(0.0295767 0.0034625 0)
(0.0281924 0.00345962 0)
(0.0268091 0.00345682 0)
(0.025427 0.00345411 0)
(0.024046 0.00345148 0)
(0.022666 0.00344895 0)
(0.021287 0.00344654 0)
(0.019909 0.00344423 0)
(0.0185319 0.00344205 0)
(0.0171556 0.00344 0)
(0.0157801 0.00343809 0)
(0.0144054 0.00343631 0)
(0.0130313 0.00343469 0)
(0.0116579 0.00343321 0)
(0.010285 0.00343188 0)
(0.00891265 0.00343071 0)
(0.00754073 0.00342971 0)
(0.00616918 0.00342887 0)
(0.00479793 0.00342819 0)
(0.00342692 0.00342768 0)
(0.00205609 0.00342734 0)
(0.000685357 0.00342717 0)
(0.000668492 -0.00468073 0)
(0.00200553 -0.004681 0)
(0.00334269 -0.00468155 0)
(0.00468004 -0.00468237 0)
(0.00601767 -0.00468348 0)
(0.00735566 -0.00468486 0)
(0.00869408 -0.00468651 0)
(0.010033 -0.00468843 0)
(0.0113726 -0.00469062 0)
(0.0127128 -0.00469306 0)
(0.0140537 -0.00469576 0)
(0.0153954 -0.0046987 0)
(0.0167381 -0.00470189 0)
(0.0180817 -0.00470531 0)
(0.0194263 -0.00470896 0)
(0.020772 -0.00471283 0)
(0.0221188 -0.00471691 0)
(0.0234669 -0.0047212 0)
(0.0248162 -0.00472567 0)
(0.0261668 -0.00473033 0)
(0.0275188 -0.00473516 0)
(0.0288722 -0.00474015 0)
(0.0302271 -0.00474528 0)
(0.0315835 -0.00475054 0)
(0.0329414 -0.00475592 0)
(0.0343009 -0.00476141 0)
(0.035662 -0.00476698 0)
(0.0370248 -0.00477262 0)
(0.0383891 -0.00477832 0)
(0.0397552 -0.00478404 0)
(0.0411228 -0.00478979 0)
(0.0424922 -0.00479553 0)
(0.0438632 -0.00480125 0)
(0.0452359 -0.00480691 0)
(0.0466102 -0.00481251 0)
(0.0479861 -0.00481801 0)
(0.0493636 -0.0048234 0)
(0.0507427 -0.00482864 0)
(0.0521233 -0.00483371 0)
(0.0535053 -0.00483858 0)
(0.0548887 -0.00484322 0)
(0.0562735 -0.0048476 0)
(0.0576595 -0.0048517 0)
(0.0590467 -0.00485547 0)
(0.0604349 -0.0048589 0)
(0.0618241 -0.00486193 0)
(0.0632142 -0.00486454 0)
(0.064605 -0.00486669 0)
(0.0659964 -0.00486834 0)
(0.0673882 -0.00486945 0)
(0.0687803 -0.00486999 0)
(0.0701726 -0.00486992 0)
(0.0715647 -0.00486918 0)
(0.0729567 -0.00486774 0)
(0.0743481 -0.00486556 0)
(0.0757389 -0.00486259 0)
(0.0771288 -0.00485879 0)
(0.0785175 -0.0048541 0)
(0.0799048 -0.00484848 0)
(0.0812904 -0.00484188 0)
(0.0826741 -0.00483425 0)
(0.0840555 -0.00482555 0)
(0.0854343 -0.00481572 0)
(0.0868102 -0.00480471 0)
(0.0881828 -0.00479247 0)
(0.0895519 -0.00477894 0)
(0.0909169 -0.00476408 0)
(0.0922776 -0.00474783 0)
(0.0936335 -0.00473013 0)
(0.0949841 -0.00471095 0)
(0.0963292 -0.00469021 0)
(0.0976682 -0.00466787 0)
(0.0990006 -0.00464388 0)
(0.100326 -0.00461818 0)
(0.101644 -0.00459073 0)
(0.102954 -0.00456146 0)
(0.104255 -0.00453034 0)
(0.105547 -0.00449731 0)
(0.106829 -0.00446233 0)
(0.108102 -0.00442534 0)
(0.109363 -0.00438631 0)
(0.110613 -0.00434518 0)
(0.111851 -0.00430192 0)
(0.113077 -0.00425649 0)
(0.114289 -0.00420886 0)
(0.115487 -0.00415897 0)
(0.116671 -0.00410681 0)
(0.11784 -0.00405235 0)
(0.118992 -0.00399554 0)
(0.120129 -0.00393639 0)
(0.121248 -0.00387485 0)
(0.122349 -0.00381092 0)
(0.123431 -0.00374458 0)
(0.124494 -0.00367582 0)
(0.125537 -0.00360464 0)
(0.12656 -0.00353103 0)
(0.127561 -0.003455 0)
(0.12854 -0.00337656 0)
(0.129496 -0.0032957 0)
(0.130429 -0.00321246 0)
(0.131338 -0.00312685 0)
(0.132222 -0.0030389 0)
(0.13308 -0.00294863 0)
(0.133912 -0.00285608 0)
(0.134717 -0.00276129 0)
(0.135495 -0.00266431 0)
(0.136245 -0.00256519 0)
(0.136966 -0.00246397 0)
(0.137658 -0.00236072 0)
(0.13832 -0.0022555 0)
(0.138951 -0.00214838 0)
(0.139552 -0.00203944 0)
(0.140121 -0.00192874 0)
(0.140658 -0.00181638 0)
(0.141163 -0.00170244 0)
(0.141635 -0.00158701 0)
(0.142073 -0.00147018 0)
(0.142478 -0.00135205 0)
(0.142849 -0.00123272 0)
(0.143185 -0.00111229 0)
(0.143487 -0.00099088 0)
(0.143754 -0.000868587 0)
(0.143985 -0.000745526 0)
(0.144181 -0.000621809 0)
(0.144342 -0.000497552 0)
(0.144467 -0.000372872 0)
(0.144556 -0.000247884 0)
(0.144609 -0.000122708 0)
(0.144626 2.53959e-06 0)
(0.144607 0.000127739 0)
(0.144553 0.000252774 0)
(0.144462 0.000377525 0)
(0.144336 0.000501879 0)
(0.144174 0.000625718 0)
(0.143977 0.000748932 0)
(0.143744 0.000871407 0)
(0.143477 0.000993035 0)
(0.143175 0.00111371 0)
(0.142838 0.00123333 0)
(0.142467 0.00135179 0)
(0.142062 0.00146899 0)
(0.141624 0.00158485 0)
(0.141153 0.00169927 0)
(0.14065 0.00181216 0)
(0.140114 0.00192344 0)
(0.139547 0.00203304 0)
(0.138948 0.00214087 0)
(0.138319 0.00224688 0)
(0.13766 0.00235099 0)
(0.136971 0.00245315 0)
(0.136253 0.0025533 0)
(0.135507 0.00265139 0)
(0.134733 0.00274736 0)
(0.133932 0.00284119 0)
(0.133104 0.00293283 0)
(0.13225 0.00302226 0)
(0.131371 0.00310943 0)
(0.130468 0.00319433 0)
(0.129541 0.00327695 0)
(0.12859 0.00335725 0)
(0.127617 0.00343525 0)
(0.126621 0.00351091 0)
(0.125605 0.00358426 0)
(0.124567 0.00365528 0)
(0.12351 0.00372398 0)
(0.122434 0.00379038 0)
(0.121339 0.00385447 0)
(0.120226 0.00391628 0)
(0.119095 0.00397583 0)
(0.117948 0.00403313 0)
(0.116785 0.00408821 0)
(0.115607 0.0041411 0)
(0.114414 0.00419183 0)
(0.113207 0.00424042 0)
(0.111986 0.00428691 0)
(0.110752 0.00433134 0)
(0.109506 0.00437374 0)
(0.108248 0.00441415 0)
(0.106979 0.00445261 0)
(0.105699 0.00448916 0)
(0.104409 0.00452385 0)
(0.103109 0.00455672 0)
(0.101801 0.00458781 0)
(0.100483 0.00461717 0)
(0.0991582 0.00464485 0)
(0.0978253 0.00467089 0)
(0.0964852 0.00469534 0)
(0.0951385 0.00471825 0)
(0.0937855 0.00473966 0)
(0.0924266 0.00475962 0)
(0.0910623 0.00477819 0)
(0.0896929 0.0047954 0)
(0.0883189 0.00481131 0)
(0.0869405 0.00482596 0)
(0.0855583 0.0048394 0)
(0.0841723 0.00485169 0)
(0.0827831 0.00486285 0)
(0.081391 0.00487295 0)
(0.0799961 0.00488202 0)
(0.0785989 0.00489011 0)
(0.0771995 0.00489727 0)
(0.0757983 0.00490354 0)
(0.0743954 0.00490895 0)
(0.0729912 0.00491356 0)
(0.0715858 0.00491741 0)
(0.0701795 0.00492053 0)
(0.0687724 0.00492297 0)
(0.0673648 0.00492476 0)
(0.0659568 0.00492594 0)
(0.0645485 0.00492656 0)
(0.0631403 0.00492664 0)
(0.0617321 0.00492622 0)
(0.0603242 0.00492534 0)
(0.0589166 0.00492403 0)
(0.0575095 0.00492232 0)
(0.0561029 0.00492025 0)
(0.0546971 0.00491784 0)
(0.053292 0.00491513 0)
(0.0518877 0.00491214 0)
(0.0504844 0.00490891 0)
(0.0490821 0.00490546 0)
(0.0476808 0.00490181 0)
(0.0462807 0.004898 0)
(0.0448816 0.00489405 0)
(0.0434838 0.00488998 0)
(0.0420871 0.00488581 0)
(0.0406917 0.00488158 0)
(0.0392975 0.00487728 0)
(0.0379046 0.00487296 0)
(0.0365129 0.00486863 0)
(0.0351225 0.0048643 0)
(0.0337334 0.00486 0)
(0.0323455 0.00485574 0)
(0.0309588 0.00485154 0)
(0.0295733 0.00484741 0)
(0.028189 0.00484338 0)
(0.0268059 0.00483944 0)
(0.0254239 0.00483562 0)
(0.024043 0.00483194 0)
(0.0226631 0.00482839 0)
(0.0212843 0.00482499 0)
(0.0199064 0.00482176 0)
(0.0185294 0.0048187 0)
(0.0171533 0.00481582 0)
(0.0157779 0.00481313 0)
(0.0144034 0.00481064 0)
(0.0130295 0.00480835 0)
(0.0116562 0.00480628 0)
(0.0102835 0.00480442 0)
(0.00891137 0.00480278 0)
(0.00753964 0.00480137 0)
(0.00616828 0.00480018 0)
(0.00479723 0.00479923 0)
(0.00342642 0.00479852 0)
(0.00205579 0.00479804 0)
(0.000685257 0.0047978 0)
(0.000668333 -0.00601761 0)
(0.00200505 -0.00601795 0)
(0.00334189 -0.00601866 0)
(0.00467893 -0.00601973 0)
(0.00601625 -0.00602116 0)
(0.00735393 -0.00602293 0)
(0.00869205 -0.00602506 0)
(0.0100307 -0.00602754 0)
(0.0113699 -0.00603035 0)
(0.0127098 -0.0060335 0)
(0.0140505 -0.00603698 0)
(0.015392 -0.00604078 0)
(0.0167343 -0.00604489 0)
(0.0180777 -0.0060493 0)
(0.019422 -0.00605401 0)
(0.0207675 -0.006059 0)
(0.0221141 -0.00606426 0)
(0.0234619 -0.00606979 0)
(0.024811 -0.00607556 0)
(0.0261614 -0.00608157 0)
(0.0275133 -0.0060878 0)
(0.0288665 -0.00609423 0)
(0.0302212 -0.00610085 0)
(0.0315775 -0.00610764 0)
(0.0329353 -0.00611459 0)
(0.0342947 -0.00612166 0)
(0.0356557 -0.00612886 0)
(0.0370183 -0.00613614 0)
(0.0383827 -0.00614349 0)
(0.0397486 -0.00615089 0)
(0.0411163 -0.00615831 0)
(0.0424857 -0.00616573 0)
(0.0438568 -0.00617312 0)
(0.0452295 -0.00618044 0)
(0.0466039 -0.00618768 0)
(0.04798 -0.0061948 0)
(0.0493576 -0.00620177 0)
(0.0507369 -0.00620855 0)
(0.0521177 -0.00621511 0)
(0.0534999 -0.00622143 0)
(0.0548836 -0.00622744 0)
(0.0562687 -0.00623313 0)
(0.0576551 -0.00623846 0)
(0.0590426 -0.00624337 0)
(0.0604313 -0.00624782 0)
(0.061821 -0.00625178 0)
(0.0632116 -0.0062552 0)
(0.0646029 -0.00625803 0)
(0.0659949 -0.00626021 0)
(0.0673873 -0.00626172 0)
(0.0687801 -0.00626248 0)
(0.0701731 -0.00626245 0)
(0.0715661 -0.00626158 0)
(0.0729588 -0.00625981 0)
(0.0743511 -0.00625708 0)
(0.0757429 -0.00625334 0)
(0.0771337 -0.00624853 0)
(0.0785235 -0.00624258 0)
(0.0799119 -0.00623544 0)
(0.0812986 -0.00622704 0)
(0.0826835 -0.00621732 0)
(0.0840662 -0.00620622 0)
(0.0854463 -0.00619367 0)
(0.0868236 -0.0061796 0)
(0.0881976 -0.00616395 0)
(0.0895682 -0.00614665 0)
(0.0909348 -0.00612763 0)
(0.0922971 -0.00610682 0)
(0.0936546 -0.00608417 0)
(0.095007 -0.00605959 0)
(0.0963539 -0.00603302 0)
(0.0976947 -0.00600439 0)
(0.099029 -0.00597363 0)
(0.100356 -0.00594068 0)
(0.101676 -0.00590546 0)
(0.102988 -0.00586793 0)
(0.104292 -0.005828 0)
(0.105586 -0.00578561 0)
(0.106871 -0.00574071 0)
(0.108145 -0.00569323 0)
(0.109409 -0.00564312 0)
(0.110662 -0.00559032 0)
(0.111902 -0.00553477 0)
(0.11313 -0.00547642 0)
(0.114345 -0.00541523 0)
(0.115546 -0.00535115 0)
(0.116732 -0.00528414 0)
(0.117903 -0.00521416 0)
(0.119059 -0.00514117 0)
(0.120198 -0.00506514 0)
(0.121319 -0.00498605 0)
(0.122423 -0.00490388 0)
(0.123508 -0.0048186 0)
(0.124574 -0.00473021 0)
(0.12562 -0.00463869 0)
(0.126646 -0.00454405 0)
(0.127649 -0.00444629 0)
(0.128631 -0.00434541 0)
(0.12959 -0.00424143 0)
(0.130526 -0.00413437 0)
(0.131437 -0.00402425 0)
(0.132324 -0.00391112 0)
(0.133185 -0.003795 0)
(0.134019 -0.00367594 0)
(0.134827 -0.00355399 0)
(0.135608 -0.00342922 0)
(0.13636 -0.00330168 0)
(0.137083 -0.00317144 0)
(0.137777 -0.00303858 0)
(0.138442 -0.00290318 0)
(0.139075 -0.00276533 0)
(0.139678 -0.00262513 0)
(0.140249 -0.00248267 0)
(0.140788 -0.00233806 0)
(0.141294 -0.00219141 0)
(0.141768 -0.00204283 0)
(0.142208 -0.00189246 0)
(0.142614 -0.0017404 0)
(0.142986 -0.0015868 0)
(0.143324 -0.00143179 0)
(0.143626 -0.0012755 0)
(0.143894 -0.00111807 0)
(0.144126 -0.000959658 0)
(0.144323 -0.000800398 0)
(0.144484 -0.00064044 0)
(0.144609 -0.000479936 0)
(0.144699 -0.000319036 0)
(0.144752 -0.000157893 0)
(0.144769 3.34157e-06 0)