/*--------------------------------*- C++ -*----------------------------------*\
| =========                 |                                                 |
| \\      /  F ield         | OpenFOAM: The Open Source CFD Toolbox           |
|  \\    /   O peration     | Version:  v2012                                 |
|   \\  /    A nd           | Website:  www.openfoam.com                      |
|    \\/     M anipulation  |                                                 |
\*---------------------------------------------------------------------------*/
FoamFile
{
    version     2.0;
    format      ascii;
    class       volVectorField;
    location    "10.75";
    object      U;
}
// * * * * * * * * * * * * * * * * * * * * * * * * * * * * * * * * * * * * * //

dimensions      [0 1 -1 0 0 0 0];


internalField   nonuniform List<vector> 
65536
(
(0.000746284 -0.000746296 0)
(0.00223888 -0.000746323 0)
(0.00373155 -0.000746374 0)
(0.00522435 -0.00074645 0)
(0.00671733 -0.000746552 0)
(0.00821053 -0.000746677 0)
(0.00970401 -0.000746826 0)
(0.0111978 -0.000746997 0)
(0.012692 -0.000747189 0)
(0.0141866 -0.000747402 0)
(0.0156816 -0.000747633 0)
(0.0171771 -0.000747882 0)
(0.0186731 -0.000748145 0)
(0.0201696 -0.000748423 0)
(0.0216668 -0.000748711 0)
(0.0231645 -0.000749009 0)
(0.0246628 -0.000749314 0)
(0.0261617 -0.000749623 0)
(0.0276613 -0.000749933 0)
(0.0291615 -0.000750243 0)
(0.0306623 -0.000750547 0)
(0.0321637 -0.000750845 0)
(0.0336656 -0.000751131 0)
(0.0351682 -0.000751404 0)
(0.0366713 -0.000751658 0)
(0.0381749 -0.00075189 0)
(0.0396789 -0.000752096 0)
(0.0411833 -0.000752271 0)
(0.042688 -0.000752413 0)
(0.044193 -0.000752515 0)
(0.0456981 -0.000752573 0)
(0.0472033 -0.000752583 0)
(0.0487085 -0.000752539 0)
(0.0502135 -0.000752436 0)
(0.0517183 -0.00075227 0)
(0.0532227 -0.000752033 0)
(0.0547265 -0.000751722 0)
(0.0562296 -0.00075133 0)
(0.0577319 -0.00075085 0)
(0.0592331 -0.000750278 0)
(0.0607331 -0.000749607 0)
(0.0622317 -0.000748831 0)
(0.0637285 -0.000747943 0)
(0.0652235 -0.000746936 0)
(0.0667164 -0.000745805 0)
(0.0682069 -0.000744543 0)
(0.0696947 -0.000743142 0)
(0.0711796 -0.000741596 0)
(0.0726613 -0.000739898 0)
(0.0741394 -0.000738042 0)
(0.0756136 -0.000736019 0)
(0.0770836 -0.000733824 0)
(0.0785491 -0.000731448 0)
(0.0800096 -0.000728886 0)
(0.0814648 -0.000726129 0)
(0.0829143 -0.000723172 0)
(0.0843577 -0.000720007 0)
(0.0857946 -0.000716627 0)
(0.0872244 -0.000713026 0)
(0.0886469 -0.000709197 0)
(0.0900615 -0.000705134 0)
(0.0914677 -0.000700829 0)
(0.092865 -0.000696277 0)
(0.094253 -0.000691472 0)
(0.0956312 -0.000686408 0)
(0.0969989 -0.00068108 0)
(0.0983558 -0.000675481 0)
(0.0997011 -0.000669608 0)
(0.101034 -0.000663455 0)
(0.102355 -0.000657017 0)
(0.103663 -0.000650291 0)
(0.104957 -0.000643272 0)
(0.106236 -0.000635958 0)
(0.107501 -0.000628345 0)
(0.10875 -0.00062043 0)
(0.109983 -0.000612212 0)
(0.111199 -0.000603688 0)
(0.112398 -0.000594858 0)
(0.113579 -0.00058572 0)
(0.114741 -0.000576274 0)
(0.115884 -0.00056652 0)
(0.117007 -0.000556459 0)
(0.11811 -0.000546093 0)
(0.119192 -0.000535423 0)
(0.120252 -0.000524451 0)
(0.12129 -0.00051318 0)
(0.122305 -0.000501613 0)
(0.123297 -0.000489756 0)
(0.124265 -0.000477611 0)
(0.125208 -0.000465185 0)
(0.126126 -0.000452483 0)
(0.127018 -0.000439511 0)
(0.127884 -0.000426276 0)
(0.128723 -0.000412786 0)
(0.129535 -0.000399048 0)
(0.13032 -0.00038507 0)
(0.131076 -0.000370862 0)
(0.131803 -0.000356432 0)
(0.132502 -0.000341792 0)
(0.133171 -0.00032695 0)
(0.13381 -0.000311918 0)
(0.134419 -0.000296706 0)
(0.134997 -0.000281327 0)
(0.135544 -0.000265792 0)
(0.13606 -0.000250113 0)
(0.136545 -0.000234302 0)
(0.136997 -0.000218372 0)
(0.137418 -0.000202337 0)
(0.137807 -0.000186208 0)
(0.138163 -0.00017 0)
(0.138487 -0.000153726 0)
(0.138778 -0.000137399 0)
(0.139037 -0.000121033 0)
(0.139262 -0.000104641 0)
(0.139455 -8.82367e-05 0)
(0.139615 -7.1834e-05 0)
(0.139742 -5.54461e-05 0)
(0.139837 -3.90864e-05 0)
(0.139899 -2.2768e-05 0)
(0.139928 -6.50391e-06 0)
(0.139925 9.69298e-06 0)
(0.139889 2.58101e-05 0)
(0.139821 4.18351e-05 0)
(0.139722 5.7756e-05 0)
(0.13959 7.3561e-05 0)
(0.139427 8.92386e-05 0)
(0.139233 0.000104778 0)
(0.139008 0.000120168 0)
(0.138752 0.000135399 0)
(0.138466 0.00015046 0)
(0.13815 0.000165343 0)
(0.137805 0.000180037 0)
(0.13743 0.000194535 0)
(0.137026 0.000208829 0)
(0.136594 0.00022291 0)
(0.136134 0.000236772 0)
(0.135647 0.000250408 0)
(0.135133 0.000263811 0)
(0.134592 0.000276976 0)
(0.134024 0.000289897 0)
(0.133432 0.00030257 0)
(0.132814 0.00031499 0)
(0.132172 0.000327153 0)
(0.131505 0.000339056 0)
(0.130815 0.000350697 0)
(0.130102 0.000362071 0)
(0.129366 0.000373178 0)
(0.128609 0.000384016 0)
(0.12783 0.000394584 0)
(0.12703 0.00040488 0)
(0.12621 0.000414904 0)
(0.125371 0.000424657 0)
(0.124511 0.000434138 0)
(0.123634 0.000443349 0)
(0.122738 0.000452289 0)
(0.121824 0.000460962 0)
(0.120894 0.000469368 0)
(0.119947 0.000477509 0)
(0.118983 0.000485388 0)
(0.118005 0.000493006 0)
(0.117011 0.000500368 0)
(0.116003 0.000507475 0)
(0.114981 0.000514332 0)
(0.113945 0.00052094 0)
(0.112897 0.000527305 0)
(0.111836 0.00053343 0)
(0.110763 0.000539319 0)
(0.109678 0.000544975 0)
(0.108583 0.000550404 0)
(0.107477 0.000555609 0)
(0.10636 0.000560595 0)
(0.105234 0.000565366 0)
(0.104099 0.000569928 0)
(0.102954 0.000574285 0)
(0.101801 0.000578441 0)
(0.10064 0.000582402 0)
(0.0994714 0.000586172 0)
(0.0982953 0.000589756 0)
(0.0971122 0.00059316 0)
(0.0959225 0.000596387 0)
(0.0947265 0.000599444 0)
(0.0935245 0.000602335 0)
(0.092317 0.000605064 0)
(0.0911041 0.000607638 0)
(0.0898863 0.00061006 0)
(0.0886637 0.000612336 0)
(0.0874368 0.00061447 0)
(0.0862057 0.000616468 0)
(0.0849708 0.000618333 0)
(0.0837323 0.000620071 0)
(0.0824904 0.000621687 0)
(0.0812454 0.000623184 0)
(0.0799975 0.000624568 0)
(0.078747 0.000625842 0)
(0.0774941 0.000627012 0)
(0.0762389 0.000628081 0)
(0.0749816 0.000629054 0)
(0.0737226 0.000629935 0)
(0.0724618 0.000630728 0)
(0.0711996 0.000631437 0)
(0.069936 0.000632066 0)
(0.0686712 0.000632619 0)
(0.0674054 0.000633099 0)
(0.0661388 0.000633511 0)
(0.0648713 0.000633857 0)
(0.0636033 0.000634142 0)
(0.0623347 0.000634368 0)
(0.0610658 0.00063454 0)
(0.0597965 0.00063466 0)
(0.0585271 0.000634732 0)
(0.0572575 0.000634759 0)
(0.055988 0.000634743 0)
(0.0547185 0.000634688 0)
(0.0534492 0.000634596 0)
(0.0521801 0.000634471 0)
(0.0509113 0.000634314 0)
(0.0496428 0.000634129 0)
(0.0483747 0.000633919 0)
(0.0471071 0.000633685 0)
(0.04584 0.000633429 0)
(0.0445734 0.000633155 0)
(0.0433074 0.000632865 0)
(0.0420419 0.00063256 0)
(0.0407771 0.000632242 0)
(0.0395129 0.000631915 0)
(0.0382494 0.000631578 0)
(0.0369866 0.000631236 0)
(0.0357245 0.000630888 0)
(0.0344631 0.000630537 0)
(0.0332023 0.000630185 0)
(0.0319423 0.000629833 0)
(0.030683 0.000629483 0)
(0.0294244 0.000629135 0)
(0.0281665 0.000628793 0)
(0.0269092 0.000628455 0)
(0.0256527 0.000628125 0)
(0.0243967 0.000627803 0)
(0.0231415 0.000627491 0)
(0.0218868 0.000627188 0)
(0.0206327 0.000626897 0)
(0.0193792 0.000626619 0)
(0.0181263 0.000626353 0)
(0.0168738 0.000626102 0)
(0.0156219 0.000625865 0)
(0.0143704 0.000625644 0)
(0.0131193 0.000625439 0)
(0.0118686 0.000625251 0)
(0.0106183 0.00062508 0)
(0.00936832 0.000624927 0)
(0.00811862 0.000624792 0)
(0.00686918 0.000624676 0)
(0.00561994 0.000624578 0)
(0.00437088 0.0006245 0)
(0.00312196 0.000624441 0)
(0.00187314 0.000624402 0)
(0.000624372 0.000624382 0)
(0.000746259 -0.00223887 0)
(0.0022388 -0.00223894 0)
(0.00373142 -0.0022391 0)
(0.00522417 -0.00223933 0)
(0.0067171 -0.00223963 0)
(0.00821026 -0.00224001 0)
(0.00970369 -0.00224046 0)
(0.0111975 -0.00224097 0)
(0.0126916 -0.00224155 0)
(0.0141861 -0.00224219 0)
(0.0156811 -0.00224288 0)
(0.0171766 -0.00224363 0)
(0.0186725 -0.00224442 0)
(0.0201691 -0.00224526 0)
(0.0216662 -0.00224613 0)
(0.0231639 -0.00224702 0)
(0.0246622 -0.00224794 0)
(0.0261611 -0.00224887 0)
(0.0276607 -0.0022498 0)
(0.0291609 -0.00225073 0)
(0.0306617 -0.00225165 0)
(0.0321631 -0.00225255 0)
(0.0336651 -0.00225341 0)
(0.0351677 -0.00225423 0)
(0.0366708 -0.002255 0)
(0.0381744 -0.0022557 0)
(0.0396785 -0.00225632 0)
(0.041183 -0.00225685 0)
(0.0426877 -0.00225728 0)
(0.0441928 -0.00225759 0)
(0.045698 -0.00225777 0)
(0.0472033 -0.0022578 0)
(0.0487086 -0.00225768 0)
(0.0502138 -0.00225737 0)
(0.0517187 -0.00225688 0)
(0.0532232 -0.00225618 0)
(0.0547272 -0.00225525 0)
(0.0562305 -0.00225408 0)
(0.057733 -0.00225264 0)
(0.0592344 -0.00225093 0)
(0.0607346 -0.00224893 0)
(0.0622333 -0.0022466 0)
(0.0637304 -0.00224395 0)
(0.0652257 -0.00224093 0)
(0.0667188 -0.00223755 0)
(0.0682096 -0.00223377 0)
(0.0696977 -0.00222957 0)
(0.0711829 -0.00222494 0)
(0.0726648 -0.00221985 0)
(0.0741432 -0.00221429 0)
(0.0756178 -0.00220823 0)
(0.0770882 -0.00220165 0)
(0.078554 -0.00219453 0)
(0.0800149 -0.00218685 0)
(0.0814705 -0.00217859 0)
(0.0829204 -0.00216972 0)
(0.0843642 -0.00216024 0)
(0.0858015 -0.0021501 0)
(0.0872319 -0.00213931 0)
(0.0886548 -0.00212783 0)
(0.0900698 -0.00211564 0)
(0.0914765 -0.00210273 0)
(0.0928744 -0.00208908 0)
(0.0942629 -0.00207468 0)
(0.0956416 -0.00205949 0)
(0.0970098 -0.00204351 0)
(0.0983672 -0.00202672 0)
(0.0997131 -0.0020091 0)
(0.101047 -0.00199065 0)
(0.102368 -0.00197134 0)
(0.103677 -0.00195116 0)
(0.104971 -0.00193011 0)
(0.106251 -0.00190817 0)
(0.107516 -0.00188533 0)
(0.108766 -0.00186159 0)
(0.11 -0.00183694 0)
(0.111216 -0.00181137 0)
(0.112416 -0.00178488 0)
(0.113597 -0.00175747 0)
(0.11476 -0.00172913 0)
(0.115904 -0.00169987 0)
(0.117028 -0.00166968 0)
(0.118131 -0.00163858 0)
(0.119214 -0.00160657 0)
(0.120275 -0.00157365 0)
(0.121313 -0.00153983 0)
(0.122329 -0.00150513 0)
(0.123321 -0.00146955 0)
(0.124289 -0.00143311 0)
(0.125233 -0.00139583 0)
(0.126151 -0.00135772 0)
(0.127044 -0.00131879 0)
(0.127911 -0.00127908 0)
(0.12875 -0.0012386 0)
(0.129563 -0.00119738 0)
(0.130348 -0.00115544 0)
(0.131104 -0.00111281 0)
(0.131832 -0.00106951 0)
(0.132531 -0.00102557 0)
(0.133201 -0.000981039 0)
(0.13384 -0.000935932 0)
(0.134449 -0.000890286 0)
(0.135028 -0.000844136 0)
(0.135575 -0.000797518 0)
(0.136092 -0.000750468 0)
(0.136576 -0.000703023 0)
(0.137029 -0.000655221 0)
(0.13745 -0.000607101 0)
(0.137839 -0.000558703 0)
(0.138196 -0.000510066 0)
(0.138519 -0.000461229 0)
(0.138811 -0.000412235 0)
(0.139069 -0.000363123 0)
(0.139295 -0.000313933 0)
(0.139488 -0.000264708 0)
(0.139648 -0.000215486 0)
(0.139775 -0.000166309 0)
(0.13987 -0.000117217 0)
(0.139931 -6.82486e-05 0)
(0.13996 -1.94436e-05 0)
(0.139957 2.91596e-05 0)
(0.139921 7.75233e-05 0)
(0.139853 0.00012561 0)
(0.139753 0.000173385 0)
(0.139622 0.000220811 0)
(0.139458 0.000267855 0)
(0.139264 0.000314483 0)
(0.139039 0.000360664 0)
(0.138783 0.000406366 0)
(0.138496 0.000451559 0)
(0.13818 0.000496216 0)
(0.137834 0.000540309 0)
(0.137459 0.000583812 0)
(0.137055 0.0006267 0)
(0.136622 0.000668951 0)
(0.136162 0.000710543 0)
(0.135674 0.000751456 0)
(0.135159 0.000791672 0)
(0.134618 0.000831171 0)
(0.13405 0.00086994 0)
(0.133457 0.000907962 0)
(0.132838 0.000945226 0)
(0.132196 0.00098172 0)
(0.131529 0.00101743 0)
(0.130838 0.00105236 0)
(0.130124 0.00108648 0)
(0.129388 0.0011198 0)
(0.12863 0.00115232 0)
(0.127851 0.00118402 0)
(0.127051 0.00121491 0)
(0.12623 0.00124498 0)
(0.12539 0.00127424 0)
(0.12453 0.00130268 0)
(0.123652 0.00133032 0)
(0.122755 0.00135714 0)
(0.121841 0.00138315 0)
(0.12091 0.00140837 0)
(0.119963 0.00143279 0)
(0.118999 0.00145642 0)
(0.11802 0.00147928 0)
(0.117026 0.00150136 0)
(0.116017 0.00152268 0)
(0.114994 0.00154324 0)
(0.113958 0.00156306 0)
(0.112909 0.00158216 0)
(0.111848 0.00160053 0)
(0.110774 0.00161819 0)
(0.10969 0.00163515 0)
(0.108593 0.00165143 0)
(0.107487 0.00166704 0)
(0.10637 0.001682 0)
(0.105243 0.00169631 0)
(0.104107 0.00170999 0)
(0.102963 0.00172305 0)
(0.101809 0.00173552 0)
(0.100648 0.00174739 0)
(0.0994787 0.0017587 0)
(0.0983022 0.00176945 0)
(0.0971188 0.00177965 0)
(0.0959287 0.00178933 0)
(0.0947324 0.0017985 0)
(0.0935301 0.00180716 0)
(0.0923223 0.00181535 0)
(0.0911091 0.00182306 0)
(0.0898909 0.00183033 0)
(0.0886681 0.00183715 0)
(0.0874409 0.00184355 0)
(0.0862096 0.00184953 0)
(0.0849744 0.00185513 0)
(0.0837356 0.00186034 0)
(0.0824935 0.00186518 0)
(0.0812483 0.00186966 0)
(0.0800002 0.00187381 0)
(0.0787494 0.00187763 0)
(0.0774963 0.00188114 0)
(0.0762409 0.00188434 0)
(0.0749835 0.00188725 0)
(0.0737242 0.00188989 0)
(0.0724633 0.00189227 0)
(0.0712009 0.00189439 0)
(0.0699371 0.00189627 0)
(0.0686722 0.00189793 0)
(0.0674063 0.00189936 0)
(0.0661395 0.0019006 0)
(0.0648719 0.00190163 0)
(0.0636038 0.00190248 0)
(0.0623351 0.00190316 0)
(0.061066 0.00190367 0)
(0.0597967 0.00190403 0)
(0.0585271 0.00190424 0)
(0.0572575 0.00190432 0)
(0.0559879 0.00190427 0)
(0.0547184 0.0019041 0)
(0.053449 0.00190382 0)
(0.0521798 0.00190344 0)
(0.0509109 0.00190297 0)
(0.0496424 0.00190241 0)
(0.0483743 0.00190178 0)
(0.0471066 0.00190107 0)
(0.0458394 0.00190031 0)
(0.0445728 0.00189948 0)
(0.0433067 0.00189861 0)
(0.0420413 0.00189769 0)
(0.0407764 0.00189674 0)
(0.0395123 0.00189575 0)
(0.0382487 0.00189474 0)
(0.0369859 0.00189371 0)
(0.0357238 0.00189267 0)
(0.0344623 0.00189161 0)
(0.0332016 0.00189055 0)
(0.0319416 0.0018895 0)
(0.0306823 0.00188844 0)
(0.0294237 0.0018874 0)
(0.0281658 0.00188637 0)
(0.0269086 0.00188536 0)
(0.025652 0.00188437 0)
(0.0243961 0.0018834 0)
(0.0231408 0.00188246 0)
(0.0218862 0.00188155 0)
(0.0206321 0.00188068 0)
(0.0193787 0.00187984 0)
(0.0181257 0.00187905 0)
(0.0168733 0.00187829 0)
(0.0156214 0.00187758 0)
(0.0143699 0.00187692 0)
(0.0131189 0.0018763 0)
(0.0118683 0.00187574 0)
(0.010618 0.00187522 0)
(0.00936803 0.00187476 0)
(0.00811837 0.00187436 0)
(0.00686896 0.00187401 0)
(0.00561976 0.00187372 0)
(0.00437074 0.00187348 0)
(0.00312186 0.0018733 0)
(0.00187308 0.00187319 0)
(0.000624353 0.00187313 0)
(0.000746207 -0.00373136 0)
(0.00223865 -0.00373149 0)
(0.00373117 -0.00373174 0)
(0.00522381 -0.00373213 0)
(0.00671664 -0.00373264 0)
(0.00820971 -0.00373327 0)
(0.00970305 -0.00373402 0)
(0.0111967 -0.00373488 0)
(0.0126908 -0.00373585 0)
(0.0141852 -0.00373692 0)
(0.0156801 -0.00373808 0)
(0.0171755 -0.00373933 0)
(0.0186715 -0.00374066 0)
(0.0201679 -0.00374206 0)
(0.021665 -0.00374351 0)
(0.0231627 -0.00374501 0)
(0.0246609 -0.00374655 0)
(0.0261599 -0.00374811 0)
(0.0276594 -0.00374967 0)
(0.0291596 -0.00375124 0)
(0.0306604 -0.00375278 0)
(0.0321619 -0.00375428 0)
(0.033664 -0.00375573 0)
(0.0351666 -0.00375711 0)
(0.0366698 -0.0037584 0)
(0.0381735 -0.00375958 0)
(0.0396777 -0.00376063 0)
(0.0411823 -0.00376153 0)
(0.0426872 -0.00376226 0)
(0.0441925 -0.00376279 0)
(0.0456979 -0.00376311 0)
(0.0472034 -0.00376318 0)
(0.0487089 -0.00376299 0)
(0.0502143 -0.0037625 0)
(0.0517195 -0.0037617 0)
(0.0532243 -0.00376054 0)
(0.0547286 -0.00375901 0)
(0.0562322 -0.00375708 0)
(0.057735 -0.00375472 0)
(0.0592368 -0.00375189 0)
(0.0607374 -0.00374856 0)
(0.0622366 -0.00374471 0)
(0.0637342 -0.0037403 0)
(0.0652299 -0.0037353 0)
(0.0667236 -0.00372968 0)
(0.0682149 -0.0037234 0)
(0.0697035 -0.00371643 0)
(0.0711893 -0.00370874 0)
(0.0726719 -0.00370029 0)
(0.074151 -0.00369104 0)
(0.0756262 -0.00368096 0)
(0.0770973 -0.00367002 0)
(0.0785639 -0.00365817 0)
(0.0800255 -0.0036454 0)
(0.0814819 -0.00363165 0)
(0.0829327 -0.0036169 0)
(0.0843773 -0.00360111 0)
(0.0858155 -0.00358424 0)
(0.0872467 -0.00356627 0)
(0.0886705 -0.00354716 0)
(0.0900865 -0.00352687 0)
(0.0914942 -0.00350538 0)
(0.0928931 -0.00348265 0)
(0.0942826 -0.00345866 0)
(0.0956623 -0.00343336 0)
(0.0970317 -0.00340675 0)
(0.0983901 -0.00337878 0)
(0.0997372 -0.00334944 0)
(0.101072 -0.00331869 0)
(0.102395 -0.00328652 0)
(0.103704 -0.00325291 0)
(0.105 -0.00321784 0)
(0.106281 -0.00318128 0)
(0.107547 -0.00314323 0)
(0.108798 -0.00310367 0)
(0.110033 -0.00306258 0)
(0.111251 -0.00301997 0)
(0.112452 -0.00297582 0)
(0.113635 -0.00293014 0)
(0.114799 -0.0028829 0)
(0.115944 -0.00283413 0)
(0.117069 -0.00278382 0)
(0.118173 -0.00273198 0)
(0.119257 -0.00267862 0)
(0.120319 -0.00262374 0)
(0.121359 -0.00256737 0)
(0.122376 -0.00250952 0)
(0.123369 -0.00245021 0)
(0.124338 -0.00238946 0)
(0.125283 -0.0023273 0)
(0.126203 -0.00226376 0)
(0.127097 -0.00219887 0)
(0.127964 -0.00213266 0)
(0.128805 -0.00206517 0)
(0.129619 -0.00199643 0)
(0.130404 -0.0019265 0)
(0.131162 -0.00185541 0)
(0.131891 -0.00178322 0)
(0.13259 -0.00170996 0)
(0.13326 -0.0016357 0)
(0.133901 -0.00156048 0)
(0.13451 -0.00148437 0)
(0.13509 -0.00140741 0)
(0.135638 -0.00132968 0)
(0.136155 -0.00125122 0)
(0.13664 -0.0011721 0)
(0.137093 -0.00109239 0)
(0.137515 -0.00101215 0)
(0.137904 -0.000931437 0)
(0.138261 -0.00085033 0)
(0.138585 -0.000768891 0)
(0.138876 -0.000687188 0)
(0.139135 -0.000605289 0)
(0.139361 -0.000523262 0)
(0.139554 -0.000441174 0)
(0.139714 -0.000359094 0)
(0.139841 -0.000277088 0)
(0.139935 -0.000195223 0)
(0.139997 -0.000113566 0)
(0.140025 -3.21816e-05 0)
(0.140022 4.88658e-05 0)
(0.139986 0.000129513 0)
(0.139917 0.000209699 0)
(0.139817 0.000289362 0)
(0.139685 0.000368443 0)
(0.139521 0.000446887 0)
(0.139326 0.000524636 0)
(0.1391 0.000601638 0)
(0.138843 0.000677841 0)
(0.138556 0.000753196 0)
(0.138239 0.000827654 0)
(0.137892 0.00090117 0)
(0.137516 0.000973702 0)
(0.137111 0.00104521 0)
(0.136678 0.00111565 0)
(0.136217 0.00118499 0)
(0.135728 0.0012532 0)
(0.135212 0.00132025 0)
(0.13467 0.0013861 0)
(0.134101 0.00145073 0)
(0.133507 0.00151411 0)
(0.132888 0.00157623 0)
(0.132244 0.00163707 0)
(0.131576 0.0016966 0)
(0.130884 0.00175481 0)
(0.130169 0.0018117 0)
(0.129432 0.00186724 0)
(0.128673 0.00192143 0)
(0.127893 0.00197428 0)
(0.127091 0.00202576 0)
(0.12627 0.00207588 0)
(0.125428 0.00212464 0)
(0.124568 0.00217204 0)
(0.123688 0.00221809 0)
(0.122791 0.00226279 0)
(0.121875 0.00230614 0)
(0.120943 0.00234816 0)
(0.119995 0.00238886 0)
(0.11903 0.00242824 0)
(0.11805 0.00246632 0)
(0.117054 0.00250311 0)
(0.116045 0.00253863 0)
(0.115021 0.0025729 0)
(0.113984 0.00260592 0)
(0.112934 0.00263773 0)
(0.111872 0.00266833 0)
(0.110798 0.00269775 0)
(0.109712 0.00272601 0)
(0.108615 0.00275314 0)
(0.107507 0.00277914 0)
(0.106389 0.00280405 0)
(0.105262 0.00282788 0)
(0.104125 0.00285066 0)
(0.10298 0.00287242 0)
(0.101826 0.00289318 0)
(0.100663 0.00291296 0)
(0.0994934 0.00293179 0)
(0.0983162 0.00294968 0)
(0.097132 0.00296668 0)
(0.0959413 0.00298279 0)
(0.0947443 0.00299805 0)
(0.0935414 0.00301248 0)
(0.0923328 0.0030261 0)
(0.0911191 0.00303894 0)
(0.0899003 0.00305103 0)
(0.0886769 0.00306239 0)
(0.0874492 0.00307303 0)
(0.0862173 0.003083 0)
(0.0849816 0.0030923 0)
(0.0837423 0.00310097 0)
(0.0824997 0.00310902 0)
(0.081254 0.00311649 0)
(0.0800055 0.00312338 0)
(0.0787543 0.00312973 0)
(0.0775007 0.00313556 0)
(0.076245 0.00314089 0)
(0.0749872 0.00314573 0)
(0.0737276 0.00315011 0)
(0.0724663 0.00315406 0)
(0.0712036 0.00315758 0)
(0.0699395 0.00316071 0)
(0.0686743 0.00316345 0)
(0.0674081 0.00316584 0)
(0.066141 0.00316788 0)
(0.0648732 0.00316959 0)
(0.0636048 0.003171 0)
(0.0623359 0.00317211 0)
(0.0610666 0.00317296 0)
(0.0597971 0.00317354 0)
(0.0585273 0.00317388 0)
(0.0572575 0.003174 0)
(0.0559878 0.00317391 0)
(0.0547181 0.00317362 0)
(0.0534485 0.00317315 0)
(0.0521792 0.00317251 0)
(0.0509102 0.00317171 0)
(0.0496416 0.00317077 0)
(0.0483734 0.00316971 0)
(0.0471056 0.00316853 0)
(0.0458384 0.00316724 0)
(0.0445717 0.00316586 0)
(0.0433055 0.00316439 0)
(0.04204 0.00316286 0)
(0.0407752 0.00316126 0)
(0.0395109 0.00315961 0)
(0.0382474 0.00315792 0)
(0.0369845 0.0031562 0)
(0.0357224 0.00315445 0)
(0.0344609 0.00315269 0)
(0.0332002 0.00315092 0)
(0.0319402 0.00314916 0)
(0.0306809 0.0031474 0)
(0.0294223 0.00314565 0)
(0.0281644 0.00314393 0)
(0.0269072 0.00314224 0)
(0.0256507 0.00314058 0)
(0.0243948 0.00313897 0)
(0.0231396 0.0031374 0)
(0.021885 0.00313588 0)
(0.020631 0.00313442 0)
(0.0193776 0.00313303 0)
(0.0181247 0.0031317 0)
(0.0168723 0.00313043 0)
(0.0156205 0.00312925 0)
(0.0143691 0.00312814 0)
(0.0131181 0.00312711 0)
(0.0118675 0.00312617 0)
(0.0106173 0.00312531 0)
(0.00936746 0.00312454 0)
(0.00811787 0.00312387 0)
(0.00686853 0.00312328 0)
(0.00561941 0.00312279 0)
(0.00437047 0.0031224 0)
(0.00312166 0.00312211 0)
(0.00187296 0.00312191 0)
(0.000624313 0.00312181 0)
(0.000746129 -0.00522372 0)
(0.00223841 -0.0052239 0)
(0.00373078 -0.00522426 0)
(0.00522327 -0.00522481 0)
(0.00671596 -0.00522552 0)
(0.00820887 -0.00522641 0)
(0.00970208 -0.00522747 0)
(0.0111956 -0.00522868 0)
(0.0126895 -0.00523005 0)
(0.0141839 -0.00523155 0)
(0.0156787 -0.00523319 0)
(0.017174 -0.00523496 0)
(0.0186698 -0.00523683 0)
(0.0201662 -0.0052388 0)
(0.0216632 -0.00524085 0)
(0.0231608 -0.00524297 0)
(0.0246591 -0.00524514 0)
(0.026158 -0.00524734 0)
(0.0276575 -0.00524955 0)
(0.0291577 -0.00525176 0)
(0.0306586 -0.00525394 0)
(0.0321601 -0.00525607 0)
(0.0336622 -0.00525812 0)
(0.035165 -0.00526008 0)
(0.0366683 -0.00526191 0)
(0.0381722 -0.00526359 0)
(0.0396765 -0.00526509 0)
(0.0411813 -0.00526638 0)
(0.0426865 -0.00526744 0)
(0.0441919 -0.00526822 0)
(0.0456976 -0.00526869 0)
(0.0472034 -0.00526883 0)
(0.0487093 -0.0052686 0)
(0.0502151 -0.00526795 0)
(0.0517206 -0.00526686 0)
(0.0532259 -0.00526529 0)
(0.0547306 -0.00526319 0)
(0.0562348 -0.00526052 0)
(0.0577381 -0.00525725 0)
(0.0592405 -0.00525333 0)
(0.0607417 -0.00524872 0)
(0.0622416 -0.00524338 0)
(0.0637398 -0.00523725 0)
(0.0652363 -0.0052303 0)
(0.0667307 -0.00522248 0)
(0.0682228 -0.00521373 0)
(0.0697123 -0.00520402 0)
(0.071199 -0.0051933 0)
(0.0726825 -0.00518151 0)
(0.0741625 -0.00516861 0)
(0.0756388 -0.00515455 0)
(0.0771109 -0.00513928 0)
(0.0785786 -0.00512275 0)
(0.0800414 -0.00510491 0)
(0.081499 -0.00508572 0)
(0.0829509 -0.00506511 0)
(0.0843969 -0.00504305 0)
(0.0858363 -0.00501949 0)
(0.0872689 -0.00499438 0)
(0.0886941 -0.00496766 0)
(0.0901116 -0.00493931 0)
(0.0915207 -0.00490926 0)
(0.0929211 -0.00487748 0)
(0.0943122 -0.00484393 0)
(0.0956934 -0.00480856 0)
(0.0970644 -0.00477134 0)
(0.0984245 -0.00473222 0)
(0.0997732 -0.00469117 0)
(0.10111 -0.00464816 0)
(0.102434 -0.00460316 0)
(0.103745 -0.00455613 0)
(0.105043 -0.00450704 0)
(0.106326 -0.00445589 0)
(0.107594 -0.00440263 0)
(0.108847 -0.00434726 0)
(0.110083 -0.00428976 0)
(0.111303 -0.00423011 0)
(0.112506 -0.00416831 0)
(0.11369 -0.00410435 0)
(0.114856 -0.00403822 0)
(0.116003 -0.00396994 0)
(0.11713 -0.0038995 0)
(0.118237 -0.00382691 0)
(0.119322 -0.00375218 0)
(0.120386 -0.00367534 0)
(0.121427 -0.00359639 0)
(0.122446 -0.00351537 0)
(0.123441 -0.00343231 0)
(0.124412 -0.00334722 0)
(0.125359 -0.00326016 0)
(0.12628 -0.00317116 0)
(0.127175 -0.00308026 0)
(0.128044 -0.00298751 0)
(0.128887 -0.00289297 0)
(0.129702 -0.00279668 0)
(0.130489 -0.00269872 0)
(0.131248 -0.00259913 0)
(0.131978 -0.00249799 0)
(0.132679 -0.00239536 0)
(0.13335 -0.00229131 0)
(0.133991 -0.00218593 0)
(0.134602 -0.00207929 0)
(0.135182 -0.00197147 0)
(0.135732 -0.00186256 0)
(0.136249 -0.00175263 0)
(0.136735 -0.00164177 0)
(0.137189 -0.00153009 0)
(0.137611 -0.00141765 0)
(0.138001 -0.00130457 0)
(0.138358 -0.00119093 0)
(0.138683 -0.00107682 0)
(0.138974 -0.000962339 0)
(0.139233 -0.000847585 0)
(0.139459 -0.000732652 0)
(0.139652 -0.000617634 0)
(0.139812 -0.000502627 0)
(0.139939 -0.000387725 0)
(0.140033 -0.000273022 0)
(0.140094 -0.000158611 0)
(0.140123 -4.45827e-05 0)
(0.140119 6.89719e-05 0)
(0.140082 0.000181965 0)
(0.140013 0.000294309 0)
(0.139912 0.000405919 0)
(0.139779 0.000516714 0)
(0.139615 0.000626613 0)
(0.139419 0.000735537 0)
(0.139192 0.000843412 0)
(0.138934 0.000950166 0)
(0.138646 0.00105573 0)
(0.138328 0.00116003 0)
(0.13798 0.00126302 0)
(0.137603 0.00136462 0)
(0.137197 0.00146478 0)
(0.136762 0.00156345 0)
(0.1363 0.00166058 0)
(0.135809 0.00175611 0)
(0.135292 0.00185002 0)
(0.134748 0.00194224 0)
(0.134178 0.00203276 0)
(0.133582 0.00212153 0)
(0.132961 0.00220853 0)
(0.132316 0.00229372 0)
(0.131646 0.00237708 0)
(0.130953 0.0024586 0)
(0.130237 0.00253825 0)
(0.129498 0.00261602 0)
(0.128737 0.0026919 0)
(0.127955 0.00276589 0)
(0.127152 0.00283796 0)
(0.126329 0.00290814 0)
(0.125486 0.0029764 0)
(0.124624 0.00304276 0)
(0.123743 0.00310722 0)
(0.122843 0.00316978 0)
(0.121927 0.00323047 0)
(0.120993 0.00328928 0)
(0.120043 0.00334624 0)
(0.119076 0.00340135 0)
(0.118095 0.00345465 0)
(0.117098 0.00350613 0)
(0.116087 0.00355584 0)
(0.115062 0.00360379 0)
(0.114023 0.00365 0)
(0.112972 0.0036945 0)
(0.111908 0.00373732 0)
(0.110832 0.00377848 0)
(0.109745 0.00381802 0)
(0.108647 0.00385595 0)
(0.107538 0.00389233 0)
(0.106419 0.00392717 0)
(0.10529 0.0039605 0)
(0.104152 0.00399237 0)
(0.103005 0.0040228 0)
(0.10185 0.00405182 0)
(0.100686 0.00407948 0)
(0.0995155 0.0041058 0)
(0.0983371 0.00413082 0)
(0.0971519 0.00415458 0)
(0.0959601 0.0041771 0)
(0.0947621 0.00419843 0)
(0.0935582 0.00421859 0)
(0.0923487 0.00423763 0)
(0.091134 0.00425558 0)
(0.0899144 0.00427247 0)
(0.0886901 0.00428833 0)
(0.0874615 0.0043032 0)
(0.0862288 0.00431712 0)
(0.0849923 0.00433011 0)
(0.0837523 0.00434221 0)
(0.082509 0.00435346 0)
(0.0812626 0.00436388 0)
(0.0800134 0.0043735 0)
(0.0787616 0.00438236 0)
(0.0775074 0.00439049 0)
(0.0762511 0.00439791 0)
(0.0749927 0.00440467 0)
(0.0737325 0.00441077 0)
(0.0724708 0.00441627 0)
(0.0712075 0.00442118 0)
(0.069943 0.00442553 0)
(0.0686774 0.00442934 0)
(0.0674107 0.00443265 0)
(0.0661433 0.00443548 0)
(0.0648751 0.00443786 0)
(0.0636063 0.0044398 0)
(0.0623371 0.00444134 0)
(0.0610675 0.0044425 0)
(0.0597976 0.0044433 0)
(0.0585276 0.00444376 0)
(0.0572575 0.0044439 0)
(0.0559875 0.00444375 0)
(0.0547176 0.00444332 0)
(0.0534479 0.00444264 0)
(0.0521784 0.00444173 0)
(0.0509092 0.00444059 0)
(0.0496404 0.00443927 0)
(0.048372 0.00443776 0)
(0.0471041 0.00443608 0)
(0.0458368 0.00443427 0)
(0.04457 0.00443232 0)
(0.0433037 0.00443025 0)
(0.0420381 0.00442809 0)
(0.0407732 0.00442584 0)
(0.0395089 0.00442352 0)
(0.0382453 0.00442114 0)
(0.0369824 0.00441871 0)
(0.0357203 0.00441626 0)
(0.0344588 0.00441378 0)
(0.0331981 0.00441129 0)
(0.0319381 0.00440881 0)
(0.0306788 0.00440633 0)
(0.0294202 0.00440388 0)
(0.0281624 0.00440147 0)
(0.0269052 0.00439909 0)
(0.0256487 0.00439676 0)
(0.0243929 0.00439449 0)
(0.0231378 0.00439229 0)
(0.0218832 0.00439016 0)
(0.0206293 0.00438811 0)
(0.0193759 0.00438614 0)
(0.0181231 0.00438428 0)
(0.0168709 0.00438251 0)
(0.0156191 0.00438084 0)
(0.0143678 0.00437928 0)
(0.0131169 0.00437784 0)
(0.0118665 0.00437651 0)
(0.0106164 0.00437531 0)
(0.00936659 0.00437423 0)
(0.00811711 0.00437328 0)
(0.00686789 0.00437246 0)
(0.00561888 0.00437178 0)
(0.00437006 0.00437123 0)
(0.00312137 0.00437081 0)
(0.00187278 0.00437054 0)
(0.000624254 0.0043704 0)
(0.000746024 -0.0067159 0)
(0.0022381 -0.00671614 0)
(0.00373026 -0.00671661 0)
(0.00522255 -0.00671731 0)
(0.00671503 -0.00671824 0)
(0.00820776 -0.00671939 0)
(0.00970077 -0.00672076 0)
(0.0111941 -0.00672233 0)
(0.0126879 -0.0067241 0)
(0.0141821 -0.00672606 0)
(0.0156767 -0.00672819 0)
(0.0171719 -0.00673047 0)
(0.0186676 -0.0067329 0)
(0.0201639 -0.00673546 0)
(0.0216608 -0.00673812 0)
(0.0231584 -0.00674088 0)
(0.0246566 -0.00674369 0)
(0.0261554 -0.00674656 0)
(0.027655 -0.00674944 0)
(0.0291552 -0.00675231 0)
(0.0306561 -0.00675515 0)
(0.0321577 -0.00675793 0)
(0.0336599 -0.00676061 0)
(0.0351628 -0.00676317 0)
(0.0366663 -0.00676557 0)
(0.0381703 -0.00676778 0)
(0.0396749 -0.00676976 0)
(0.0411799 -0.00677148 0)
(0.0426854 -0.00677288 0)
(0.0441912 -0.00677394 0)
(0.0456972 -0.00677461 0)
(0.0472034 -0.00677485 0)
(0.0487097 -0.00677461 0)
(0.050216 -0.00677385 0)
(0.0517221 -0.00677251 0)
(0.0532279 -0.00677055 0)
(0.0547333 -0.00676792 0)
(0.0562381 -0.00676457 0)
(0.0577422 -0.00676044 0)
(0.0592453 -0.00675547 0)
(0.0607473 -0.00674962 0)
(0.0622481 -0.00674282 0)
(0.0637472 -0.00673503 0)
(0.0652447 -0.00672617 0)
(0.0667401 -0.00671619 0)
(0.0682333 -0.00670503 0)
(0.0697239 -0.00669263 0)
(0.0712118 -0.00667892 0)
(0.0726965 -0.00666385 0)
(0.0741779 -0.00664735 0)
(0.0756555 -0.00662936 0)
(0.0771291 -0.00660981 0)
(0.0785982 -0.00658864 0)
(0.0800625 -0.00656579 0)
(0.0815217 -0.00654119 0)
(0.0829753 -0.00651478 0)
(0.0844229 -0.0064865 0)
(0.0858641 -0.00645629 0)
(0.0872985 -0.00642408 0)
(0.0887256 -0.00638981 0)
(0.0901449 -0.00635343 0)
(0.091556 -0.00631488 0)
(0.0929584 -0.00627409 0)
(0.0943515 -0.00623102 0)
(0.0957349 -0.00618562 0)
(0.097108 -0.00613782 0)
(0.0984703 -0.00608759 0)
(0.0998212 -0.00603487 0)
(0.10116 -0.00597963 0)
(0.102487 -0.00592181 0)
(0.1038 -0.00586139 0)
(0.1051 -0.00579833 0)
(0.106385 -0.00573259 0)
(0.107656 -0.00566415 0)
(0.108911 -0.00559299 0)
(0.11015 -0.00551908 0)
(0.111373 -0.0054424 0)
(0.112578 -0.00536295 0)
(0.113765 -0.00528072 0)
(0.114933 -0.0051957 0)
(0.116082 -0.0051079 0)
(0.117212 -0.00501732 0)
(0.118321 -0.00492397 0)
(0.119409 -0.00482786 0)
(0.120475 -0.00472903 0)
(0.121519 -0.00462749 0)
(0.12254 -0.00452327 0)
(0.123537 -0.00441642 0)
(0.124511 -0.00430696 0)
(0.125459 -0.00419496 0)
(0.126383 -0.00408045 0)
(0.12728 -0.0039635 0)
(0.128152 -0.00384417 0)
(0.128996 -0.00372251 0)
(0.129813 -0.00359862 0)
(0.130602 -0.00347255 0)
(0.131363 -0.0033444 0)
(0.132094 -0.00321424 0)
(0.132797 -0.00308217 0)
(0.13347 -0.00294827 0)
(0.134113 -0.00281265 0)
(0.134725 -0.0026754 0)
(0.135306 -0.00253663 0)
(0.135857 -0.00239645 0)
(0.136376 -0.00225496 0)
(0.136863 -0.00211228 0)
(0.137318 -0.00196853 0)
(0.13774 -0.00182382 0)
(0.138131 -0.00167826 0)
(0.138489 -0.00153199 0)
(0.138813 -0.00138511 0)
(0.139106 -0.00123776 0)
(0.139365 -0.00109006 0)
(0.139591 -0.000942126 0)
(0.139784 -0.000794083 0)
(0.139944 -0.000646055 0)
(0.14007 -0.000498164 0)
(0.140164 -0.00035053 0)
(0.140225 -0.000203273 0)
(0.140253 -5.65107e-05 0)
(0.140248 8.96398e-05 0)
(0.140211 0.000235065 0)
(0.140141 0.000379652 0)
(0.140039 0.000523293 0)
(0.139906 0.000665881 0)
(0.13974 0.000807312 0)
(0.139543 0.000947486 0)
(0.139315 0.00108631 0)
(0.139056 0.00122368 0)
(0.138766 0.00135952 0)