/*--------------------------------*- C++ -*----------------------------------*\
| =========                 |                                                 |
| \\      /  F ield         | OpenFOAM: The Open Source CFD Toolbox           |
|  \\    /   O peration     | Version:  v2012                                 |
|   \\  /    A nd           | Website:  www.openfoam.com                      |
|    \\/     M anipulation  |                                                 |
\*---------------------------------------------------------------------------*/
FoamFile
{
    version     2.0;
    format      ascii;
    class       volScalarField;
    location    "10.75";
    object      W;
}
// * * * * * * * * * * * * * * * * * * * * * * * * * * * * * * * * * * * * * //

dimensions      [0 0 -1 0 0 0 0];


internalField   nonuniform List<scalar> 
65536
(
5.49659e-17
5.58531e-17
5.84647e-17
6.28466e-17
6.90902e-17
7.73333e-17
8.77625e-17
1.00616e-16
1.16188e-16
1.34834e-16
1.5698e-16
1.83125e-16
2.13856e-16
2.49853e-16
2.91908e-16
3.40931e-16
3.97973e-16
4.64238e-16
5.41107e-16
6.30158e-16
7.33192e-16
8.52262e-16
9.89702e-16
1.14816e-15
1.33066e-15
1.54058e-15
1.7818e-15
2.05865e-15
2.37605e-15
2.73951e-15
3.15524e-15
3.63023e-15
4.17228e-15
4.79015e-15
5.49363e-15
6.29362e-15
7.20231e-15
8.23323e-15
9.40143e-15
1.07236e-14
1.22182e-14
1.39058e-14
1.58088e-14
1.79521e-14
2.03632e-14
2.3072e-14
2.61117e-14
2.95181e-14
3.33309e-14
3.75931e-14
4.23515e-14
4.76571e-14
5.35651e-14
6.01354e-14
6.74328e-14
7.5527e-14
8.44931e-14
9.4412e-14
1.0537e-13
1.1746e-13
1.30781e-13
1.45439e-13
1.61545e-13
1.79218e-13
1.98584e-13
2.19776e-13
2.42934e-13
2.68205e-13
2.95742e-13
3.25707e-13
3.58267e-13
3.93597e-13
4.31878e-13
4.73294e-13
5.1804e-13
5.66311e-13
6.18308e-13
6.74238e-13
7.34308e-13
7.98728e-13
8.67709e-13
9.41462e-13
1.0202e-12
1.10412e-12
1.19344e-12
1.28835e-12
1.38905e-12
1.49571e-12
1.60851e-12
1.72761e-12
1.85315e-12
1.98528e-12
2.12409e-12
2.26968e-12
2.42213e-12
2.58146e-12
2.74771e-12
2.92086e-12
3.10086e-12
3.28763e-12
3.48107e-12
3.68102e-12
3.88728e-12
4.09961e-12
4.31774e-12
4.54133e-12
4.77001e-12
5.00335e-12
5.24086e-12
5.48201e-12
5.72623e-12
5.97286e-12
6.22121e-12
6.47054e-12
6.72003e-12
6.96884e-12
7.21606e-12
7.46073e-12
7.70185e-12
7.93837e-12
8.16922e-12
8.39327e-12
8.60937e-12
8.81636e-12
9.01305e-12
9.19824e-12
9.37073e-12
9.52935e-12
9.67292e-12
9.8003e-12
9.9104e-12
1.00022e-11
1.00746e-11
1.01269e-11
1.01581e-11
1.01676e-11
1.01548e-11
1.01191e-11
1.00604e-11
9.97831e-12
9.8729e-12
9.74432e-12
9.59288e-12
9.41908e-12
9.22362e-12
9.00735e-12
8.77135e-12
8.51682e-12
8.24518e-12
7.95798e-12
7.65694e-12
7.34389e-12
7.02079e-12
6.6897e-12
6.35273e-12
6.01207e-12
5.66991e-12
5.32845e-12
4.98987e-12
4.65628e-12
4.32972e-12
4.01214e-12
3.70536e-12
3.41105e-12
3.13072e-12
2.86574e-12
2.61725e-12
2.38623e-12
2.17344e-12
1.97948e-12
1.80469e-12
1.64928e-12
1.51322e-12
1.39632e-12
1.29821e-12
1.21835e-12
1.15602e-12
1.11039e-12
1.08046e-12
1.06511e-12
1.06309e-12
1.07306e-12
1.09355e-12
1.12304e-12
1.15992e-12
1.20252e-12
1.24915e-12
1.2981e-12
1.34765e-12
1.39615e-12
1.44199e-12
1.48366e-12
1.51975e-12
1.54903e-12
1.57043e-12
1.58307e-12
1.58631e-12
1.57972e-12
1.56313e-12
1.53662e-12
1.50047e-12
1.45522e-12
1.4016e-12
1.3405e-12
1.273e-12
1.20023e-12
1.12343e-12
1.04386e-12
9.62784e-13
8.81403e-13
8.00857e-13
7.22181e-13
6.46285e-13
5.73941e-13
5.05771e-13
4.42246e-13
3.83686e-13
3.30273e-13
2.82056e-13
2.3897e-13
2.00856e-13
1.6747e-13
1.38512e-13
1.13637e-13
9.24737e-14
7.46395e-14
5.97525e-14
4.74424e-14
3.73582e-14
2.91745e-14
2.25945e-14
1.73529e-14
1.3216e-14
9.98105e-15
7.47456e-15
5.55031e-15
4.08658e-15
2.98333e-15
2.1594e-15
1.54968e-15
1.10259e-15
7.77759e-16
5.43901e-16
3.77077e-16
2.59158e-16
1.7657e-16
1.19258e-16
7.9853e-17
5.30132e-17
3.49091e-17
2.28257e-17
1.48619e-17
9.70688e-18
6.47543e-18
4.59181e-18
3.71007e-18
8.2023e-17
8.33431e-17
8.72356e-17
9.37679e-17
1.03076e-16
1.15366e-16
1.30914e-16
1.50077e-16
1.73291e-16
2.01088e-16
2.34099e-16
2.73069e-16
3.18872e-16
3.7252e-16
4.35191e-16
5.0824e-16
5.9323e-16
6.91951e-16
8.06457e-16
9.39092e-16
1.09253e-15
1.26983e-15
1.47445e-15
1.71032e-15
1.98191e-15
2.29427e-15
2.6531e-15
3.06485e-15
3.53678e-15
4.07704e-15
4.69483e-15
5.40044e-15
6.2054e-15
7.12261e-15
8.16648e-15
9.35308e-15
1.07003e-14
1.2228e-14
1.39582e-14
1.59155e-14
1.81267e-14
2.06218e-14
2.34336e-14
2.65984e-14
3.01558e-14
3.41496e-14
3.86273e-14
4.36411e-14
4.92479e-14
5.55095e-14
6.24931e-14
7.02714e-14
7.89234e-14
8.85342e-14
9.91953e-14
1.11005e-13
1.2407e-13
1.38503e-13
1.54425e-13
1.71965e-13
1.9126e-13
2.12455e-13
2.35705e-13
2.61171e-13
2.89025e-13
3.19446e-13
3.52622e-13
3.88749e-13
4.28031e-13
4.7068e-13
5.16916e-13
5.66963e-13
6.21055e-13
6.7943e-13
7.42328e-13
8.09997e-13
8.82685e-13
9.60642e-13
1.04412e-12
1.13337e-12
1.22863e-12
1.33015e-12
1.43817e-12
1.55291e-12
1.6746e-12
1.80344e-12
1.93962e-12
2.08332e-12
2.23471e-12
2.39392e-12
2.56106e-12
2.73622e-12
2.91947e-12
3.11084e-12
3.31032e-12
3.51788e-12
3.73344e-12
3.95689e-12
4.18806e-12
4.42675e-12
4.67272e-12
4.92566e-12
5.18523e-12
5.45101e-12
5.72255e-12
5.99935e-12
6.28083e-12
6.56636e-12
6.85527e-12
7.1468e-12
7.44017e-12
7.73451e-12
8.02892e-12
8.32242e-12
8.614e-12
8.90258e-12
9.18705e-12
9.46626e-12
9.73898e-12
1.0004e-11
1.026e-11
1.05058e-11
1.074e-11
1.09613e-11
1.11685e-11
1.13601e-11
1.15349e-11
1.16916e-11
1.18291e-11
1.19462e-11
1.20416e-11
1.21145e-11
1.21639e-11
1.21889e-11
1.21888e-11
1.2163e-11
1.21111e-11
1.20327e-11
1.19277e-11
1.17961e-11
1.16382e-11
1.14543e-11
1.1245e-11
1.10111e-11
1.07537e-11
1.04738e-11
1.01729e-11
9.85254e-12
9.5144e-12
9.16042e-12
8.79262e-12
8.41317e-12
8.02435e-12
7.62853e-12
7.22811e-12
6.82554e-12
6.42329e-12
6.02378e-12
5.6294e-12
5.24245e-12
4.86513e-12
4.4995e-12
4.14751e-12
3.81088e-12
3.4912e-12
3.18983e-12
2.90793e-12
2.64644e-12
2.40608e-12
2.18735e-12
1.99054e-12
1.81573e-12
1.66279e-12
1.53138e-12
1.42099e-12
1.33094e-12
1.26036e-12
1.20825e-12
1.17344e-12
1.15466e-12
1.15048e-12
1.1594e-12
1.1798e-12
1.20997e-12
1.24816e-12
1.29254e-12
1.34128e-12
1.39252e-12
1.44441e-12
1.49518e-12
1.54309e-12
1.58653e-12
1.62402e-12
1.65424e-12
1.67605e-12
1.68853e-12
1.69102e-12
1.68308e-12
1.66453e-12
1.63545e-12
1.5962e-12
1.54732e-12
1.48962e-12
1.42406e-12
1.35176e-12
1.27396e-12
1.19197e-12
1.10712e-12
1.02075e-12
9.34127e-13
8.48466e-13
7.64854e-13
6.8425e-13
6.07465e-13
5.3515e-13
4.67798e-13
4.0574e-13
3.49161e-13
2.98107e-13
2.52506e-13
2.1218e-13
1.76871e-13
1.46254e-13
1.19962e-13
9.76004e-14
7.87615e-14
6.304e-14
5.00432e-14
3.93992e-14
3.0763e-14
2.38208e-14
1.82918e-14
1.3929e-14
1.05179e-14
7.87551e-15
5.84726e-15
4.30466e-15
3.14215e-15
2.27409e-15
1.6318e-15
1.1609e-15
8.18804e-16
5.72549e-16
3.96901e-16
2.72758e-16
1.85821e-16
1.25496e-16
8.40233e-17
5.57778e-17
3.67271e-17
2.40128e-17
1.56338e-17
1.02104e-17
6.81089e-18
4.82941e-18
3.90199e-18
1.46973e-16
1.49332e-16
1.56298e-16
1.6799e-16
1.84652e-16
2.06651e-16
2.34483e-16
2.68782e-16
3.10332e-16
3.60083e-16
4.19162e-16
4.88902e-16
5.70863e-16
6.66856e-16
7.78982e-16
9.09664e-16
1.06169e-15
1.23826e-15
1.44303e-15
1.6802e-15
1.95452e-15
2.27144e-15
2.63713e-15
3.0586e-15
3.54379e-15
4.10168e-15
4.74242e-15
5.47745e-15
6.31966e-15
7.28354e-15
8.38535e-15
9.64334e-15
1.10779e-14
1.27118e-14
1.45706e-14
1.66825e-14
1.9079e-14
2.17951e-14
2.48696e-14
2.83453e-14
3.22694e-14
3.66943e-14
4.16772e-14
4.72812e-14
5.35753e-14
6.06352e-14
6.85434e-14
7.73898e-14
8.72722e-14
9.82969e-14
1.10579e-13
1.24242e-13
1.39421e-13
1.56259e-13
1.74912e-13
1.95545e-13
2.18336e-13
2.43472e-13
2.71156e-13
3.016e-13
3.35029e-13
3.71681e-13
4.11806e-13
4.55665e-13
5.03533e-13
5.55696e-13
6.1245e-13
6.74102e-13
7.40971e-13
8.13381e-13
8.91668e-13
9.76171e-13
1.06724e-12
1.16521e-12
1.27046e-12
1.38331e-12
1.50414e-12
1.63327e-12
1.77105e-12
1.91782e-12
2.07388e-12
2.23954e-12
2.41508e-12
2.60078e-12
2.79687e-12
3.00356e-12
3.22104e-12
3.44946e-12
3.68892e-12
3.93951e-12
4.20124e-12
4.4741e-12
4.75802e-12
5.05287e-12
5.35848e-12
5.67461e-12
6.00096e-12
6.33716e-12
6.68279e-12
7.03734e-12
7.40026e-12
7.77091e-12
8.14857e-12
8.53248e-12
8.92177e-12
9.31553e-12
9.71276e-12
1.01124e-11
1.05133e-11
1.09143e-11
1.13141e-11
1.17114e-11
1.21048e-11
1.24929e-11
1.28741e-11
1.32471e-11
1.36101e-11
1.39617e-11
1.43002e-11
1.46239e-11
1.49313e-11
1.52206e-11
1.54904e-11
1.57389e-11
1.59646e-11
1.61659e-11
1.63415e-11
1.64899e-11
1.66098e-11
1.67e-11
1.67594e-11
1.6787e-11
1.6782e-11
1.67436e-11
1.66715e-11
1.65651e-11
1.64245e-11
1.62496e-11
1.60407e-11
1.57983e-11
1.55231e-11
1.52161e-11
1.48784e-11
1.45114e-11
1.41169e-11
1.36965e-11
1.32524e-11
1.27869e-11
1.23025e-11
1.18016e-11
1.12871e-11
1.07618e-11
1.02288e-11
9.69092e-12
9.15133e-12
8.61303e-12
8.07902e-12
7.55226e-12
7.03555e-12
6.53162e-12
6.04299e-12
5.57202e-12
5.12086e-12
4.69142e-12
4.28538e-12
3.90415e-12
3.54888e-12
3.22046e-12
2.9195e-12
2.64636e-12
2.40113e-12
2.18366e-12
1.99357e-12
1.83024e-12
1.69286e-12
1.58041e-12
1.49169e-12
1.42536e-12
1.37989e-12
1.35363e-12
1.34482e-12
1.35157e-12
1.3719e-12
1.40377e-12
1.44505e-12
1.49358e-12
1.5472e-12
1.60373e-12
1.66104e-12
1.71705e-12
1.76979e-12
1.8174e-12
1.85819e-12
1.89068e-12
1.9136e-12
1.92591e-12
1.92687e-12
1.91603e-12
1.8932e-12
1.85851e-12
1.81237e-12
1.75544e-12
1.68865e-12
1.61309e-12
1.53006e-12
1.44097e-12
1.34729e-12
1.25054e-12
1.15223e-12
1.05379e-12
9.56568e-13
8.61794e-13
7.70534e-13
6.83688e-13
6.01978e-13
5.25942e-13
4.55943e-13
3.92174e-13
3.34675e-13
2.83352e-13
2.37997e-13
1.98308e-13
1.63914e-13
1.34395e-13
1.09302e-13
8.81722e-14
7.05477e-14
5.59843e-14
4.40623e-14
3.43933e-14
2.66239e-14
2.04384e-14
1.55593e-14
1.17459e-14
8.79274e-15
6.52667e-15
4.80372e-15
3.50565e-15
2.53662e-15
1.81981e-15
1.2944e-15
9.12796e-16
6.38159e-16
4.42308e-16
3.03914e-16
2.07014e-16
1.39789e-16
9.35797e-17
6.21134e-17
4.08936e-17
2.67337e-17
1.74033e-17
1.13647e-17
7.58001e-18
5.3742e-18
4.34186e-18
2.77114e-16
2.81554e-16
2.94675e-16
3.16701e-16
3.48091e-16
3.89536e-16
4.41969e-16
5.06584e-16
5.84859e-16
6.78577e-16
7.89864e-16
9.21228e-16
1.0756e-15
1.25639e-15
1.46756e-15
1.71365e-15
1.99991e-15
2.33235e-15
2.71786e-15
3.16429e-15
3.68062e-15
4.27703e-15
4.96513e-15
5.75806e-15
6.67071e-15
7.71991e-15
8.92468e-15
1.03064e-14
1.18893e-14
1.37003e-14
1.577e-14
1.81322e-14
2.08251e-14
2.38913e-14
2.7378e-14
3.13379e-14
3.58295e-14
4.09178e-14
4.66745e-14
5.3179e-14
6.05186e-14
6.87898e-14
7.80981e-14
8.85595e-14
1.00301e-13
1.1346e-13
1.28189e-13
1.44652e-13
1.63026e-13
1.83503e-13
2.06293e-13
2.3162e-13
2.59724e-13
2.90865e-13
3.25319e-13
3.63382e-13
4.05367e-13
4.51609e-13
5.02462e-13
5.58296e-13
6.19506e-13
6.86503e-13
7.59717e-13
8.39597e-13
9.2661e-13
1.02124e-12
1.12398e-12
1.23534e-12
1.35585e-12
1.48604e-12
1.62645e-12
1.77762e-12
1.9401e-12
2.11442e-12
2.30114e-12
2.50077e-12
2.71384e-12
2.94084e-12
3.18225e-12
3.43851e-12
3.71004e-12
3.99723e-12
4.30041e-12
4.61987e-12
4.95584e-12
5.30852e-12
5.678e-12
6.06435e-12
6.46753e-12
6.88744e-12
7.3239e-12
7.77662e-12
8.24526e-12
8.72933e-12
9.2283e-12
9.74149e-12
1.02682e-11
1.08074e-11
1.13584e-11
1.19199e-11
1.24908e-11
1.30698e-11
1.36555e-11
1.42465e-11
1.48411e-11
1.54378e-11
1.60346e-11
1.66299e-11
1.72216e-11
1.78077e-11
1.83862e-11
1.8955e-11
1.95118e-11
2.00545e-11
2.05809e-11
2.10885e-11
2.15753e-11
2.20388e-11
2.24769e-11
2.28872e-11
2.32677e-11
2.3616e-11
2.39302e-11
2.42083e-11
2.44483e-11
2.46485e-11
2.48072e-11
2.49229e-11
2.49942e-11
2.502e-11
2.49992e-11
2.49311e-11
2.48152e-11
2.4651e-11
2.44386e-11
2.41781e-11
2.387e-11
2.35151e-11
2.31143e-11
2.2669e-11
2.21809e-11
2.16518e-11
2.1084e-11
2.04799e-11
1.98422e-11
1.91741e-11
1.84787e-11
1.77595e-11
1.70201e-11
1.62643e-11
1.54961e-11
1.47195e-11
1.39385e-11
1.31572e-11
1.23797e-11
1.16099e-11
1.08518e-11
1.0109e-11
9.38504e-12
8.68331e-12
8.00684e-12
7.35839e-12
6.74044e-12
6.15513e-12
5.60426e-12
5.08927e-12
4.61128e-12
4.17102e-12
3.76891e-12
3.40502e-12
3.07909e-12
2.79058e-12
2.53866e-12
2.32221e-12
2.1399e-12
1.99017e-12
1.87124e-12
1.78117e-12
1.71785e-12
1.67903e-12
1.66233e-12
1.66526e-12
1.68526e-12
1.71967e-12
1.7658e-12
1.82094e-12
1.88238e-12
1.94741e-12
2.01342e-12
2.07788e-12
2.13838e-12
2.19269e-12
2.23881e-12
2.27494e-12
2.29959e-12
2.31158e-12
2.31003e-12
2.29443e-12
2.26461e-12
2.22077e-12
2.16342e-12
2.09339e-12
2.0118e-12
1.91999e-12
1.81952e-12
1.71207e-12
1.59941e-12
1.48333e-12
1.36562e-12
1.24798e-12
1.132e-12
1.0191e-12
9.10538e-13
8.07361e-13
7.10399e-13
6.20272e-13
5.37385e-13
4.61948e-13
3.93991e-13
3.33385e-13
2.79869e-13
2.33075e-13
1.92554e-13
1.57801e-13
1.28277e-13
1.03432e-13
8.27211e-14
6.5617e-14
5.16228e-14
4.02789e-14
3.11682e-14
2.39184e-14
1.82022e-14
1.37364e-14
1.02795e-14
7.62794e-15
5.6126e-15
4.09481e-15
2.96212e-15
2.12452e-15
1.51076e-15
1.06512e-15
7.44484e-16
5.1589e-16
3.544e-16
2.41356e-16
1.62948e-16
1.09064e-16
7.2379e-17
4.76445e-17
3.11422e-17
2.02701e-17
1.32348e-17
8.82607e-18
6.25681e-18
5.05446e-18
5.25541e-16
5.33951e-16
5.58816e-16
6.00562e-16
6.60056e-16
7.38606e-16
8.37982e-16
9.60448e-16
1.1088e-15
1.28642e-15
1.49733e-15
1.74628e-15
2.03882e-15
2.38142e-15
2.78155e-15
3.24784e-15
3.79022e-15
4.42005e-15
5.15036e-15
5.99602e-15
6.97399e-15
8.10353e-15
9.40657e-15
1.09079e-14
1.26357e-14
1.46217e-14
1.69018e-14
1.95164e-14
2.25109e-14
2.59364e-14
2.985e-14
3.43158e-14
3.94054e-14
4.51985e-14
5.17841e-14
5.92609e-14
6.77386e-14
7.73385e-14
8.81947e-14
1.00455e-13
1.14284e-13
1.29859e-13
1.47377e-13
1.67054e-13
1.89123e-13
2.13843e-13
2.4149e-13
2.72368e-13
3.06803e-13
3.45149e-13
3.87787e-13
4.35126e-13
4.87605e-13
5.45693e-13
6.0989e-13
6.8073e-13
7.58776e-13
8.44624e-13
9.38905e-13
1.04228e-12
1.15544e-12
1.27911e-12
1.41403e-12
1.561e-12
1.72081e-12
1.89429e-12
2.08228e-12
2.28565e-12
2.50526e-12
2.74201e-12
2.99676e-12
3.2704e-12
3.5638e-12
3.8778e-12
4.21324e-12
4.57092e-12
4.95159e-12
5.35597e-12
5.78471e-12
6.2384e-12
6.71758e-12
7.22267e-12
7.75403e-12
8.31191e-12
8.89644e-12
9.50765e-12
1.01454e-11
1.08096e-11
1.14997e-11
1.22153e-11
1.29557e-11
1.372e-11
1.45073e-11
1.53165e-11
1.61461e-11
1.69949e-11
1.7861e-11
1.87426e-11
1.96379e-11
2.05447e-11
2.14606e-11
2.23832e-11
2.331e-11
2.42382e-11
2.5165e-11
2.60873e-11
2.70023e-11
2.79066e-11
2.8797e-11
2.96703e-11
3.05231e-11
3.1352e-11
3.21535e-11
3.29244e-11
3.36611e-11
3.43603e-11
3.50187e-11
3.56331e-11
3.62003e-11
3.67171e-11
3.71808e-11
3.75886e-11
3.79377e-11
3.82259e-11
3.84508e-11
3.86105e-11
3.87032e-11
3.87275e-11
3.86822e-11
3.85663e-11
3.83792e-11
3.81208e-11
3.77911e-11
3.73906e-11
3.69202e-11
3.63809e-11
3.57745e-11
3.5103e-11
3.43686e-11
3.35743e-11
3.27231e-11
3.18185e-11
3.08646e-11
2.98654e-11
2.88255e-11
2.77498e-11
2.66433e-11
2.55113e-11
2.43593e-11
2.31928e-11
2.20177e-11
2.08396e-11
1.96642e-11
1.84971e-11
1.73439e-11
1.62099e-11
1.51002e-11
1.40196e-11
1.29727e-11
1.19635e-11
1.09958e-11
1.00728e-11
9.19758e-12
8.37233e-12
7.59899e-12
6.87897e-12
6.2132e-12
5.60213e-12
5.04577e-12
4.54368e-12
4.09502e-12
3.69856e-12
3.35275e-12
3.05569e-12
2.80519e-12
2.59884e-12
2.43396e-12
2.30771e-12
2.21705e-12
2.1588e-12
2.12968e-12
2.12627e-12
2.14511e-12
2.18267e-12
2.2354e-12
2.29974e-12
2.37217e-12
2.44924e-12
2.52761e-12
2.60406e-12
2.67559e-12
2.7394e-12
2.793e-12
2.83419e-12
2.86114e-12
2.87242e-12
2.86701e-12
2.8443e-12
2.80415e-12
2.74684e-12
2.67304e-12
2.58384e-12
2.48063e-12
2.36512e-12
2.23923e-12
2.10506e-12
1.96477e-12
1.8206e-12
1.67471e-12
1.5292e-12
1.38598e-12
1.24679e-12
1.11314e-12
9.86289e-13
8.6723e-13
7.5669e-13
6.55141e-13
5.62815e-13
4.79722e-13
4.05686e-13
3.40367e-13
2.833e-13
2.3392e-13
1.91601e-13
1.55674e-13
1.25462e-13
1.00293e-13
7.95194e-14
6.25329e-14
4.8771e-14
3.77242e-14
2.89381e-14
2.2014e-14
1.66071e-14
1.24235e-14
9.21577e-15
6.77877e-15
4.9441e-15
3.57544e-15
2.56369e-15
1.82257e-15
1.28462e-15
8.97688e-16
6.21907e-16
4.27136e-16
2.90829e-16
1.96309e-16
1.31368e-16
8.71646e-17
5.73673e-17
3.7491e-17
2.43986e-17
1.59279e-17
1.06203e-17
7.52762e-18
6.08044e-18
9.90199e-16
1.00603e-15
1.05285e-15
1.13147e-15
1.24352e-15
1.39145e-15
1.57861e-15
1.80926e-15
2.08865e-15
2.42316e-15
2.82036e-15
3.2892e-15
3.84013e-15
4.48531e-15
5.23881e-15
6.11688e-15
7.13816e-15
8.32408e-15
9.69913e-15
1.12913e-14
1.31324e-14
1.52587e-14
1.77113e-14
2.0537e-14
2.37885e-14
2.75255e-14
3.18152e-14
3.67335e-14
4.23655e-14
4.88069e-14
5.61647e-14
6.45589e-14
7.41232e-14
8.50068e-14
9.73757e-14
1.11414e-13
1.27327e-13
1.45339e-13
1.65701e-13
1.88688e-13
2.14602e-13
2.43775e-13
2.76572e-13
3.1339e-13
3.54663e-13
4.00862e-13
4.52501e-13
5.10132e-13
5.74357e-13
6.4582e-13
7.25217e-13
8.13292e-13
9.10841e-13
1.01871e-12
1.13781e-12
1.26909e-12
1.41356e-12
1.57228e-12
1.74639e-12
1.93703e-12
2.14544e-12
2.37288e-12
2.62066e-12
2.89012e-12
3.18265e-12
3.49966e-12
3.84258e-12
4.21286e-12
4.61195e-12
5.0413e-12
5.50234e-12
5.99648e-12
6.52508e-12
7.08947e-12
7.69091e-12
8.33057e-12
9.00955e-12
9.72882e-12
1.04892e-11
1.12915e-11
1.21363e-11
1.30238e-11
1.39544e-11
1.49281e-11
1.59447e-11
1.70038e-11
1.81047e-11
1.92465e-11
2.04281e-11
2.1648e-11
2.29047e-11
2.41961e-11
2.552e-11
2.68739e-11
2.82551e-11
2.96604e-11
3.10866e-11
3.25301e-11
3.39871e-11
3.54536e-11
3.69253e-11
3.83976e-11
3.9866e-11
4.13257e-11
4.27716e-11
4.41987e-11
4.56018e-11
4.69756e-11
4.83149e-11
4.96142e-11
5.08682e-11
5.20718e-11
5.32195e-11
5.43064e-11
5.53273e-11
5.62775e-11
5.71521e-11
5.79467e-11
5.86571e-11
5.92793e-11
5.98094e-11
6.02442e-11
6.05806e-11
6.08159e-11
6.09477e-11
6.09741e-11
6.08937e-11
6.07055e-11
6.04089e-11
6.00038e-11
5.94907e-11
5.88704e-11
5.81446e-11
5.73152e-11
5.63848e-11
5.53563e-11
5.42336e-11
5.30206e-11
5.17221e-11
5.03433e-11
4.88898e-11
4.73677e-11
4.57836e-11
4.41444e-11
4.24574e-11
4.07301e-11
3.89705e-11
3.71865e-11
3.53863e-11
3.35781e-11
3.17701e-11
2.99706e-11
2.81874e-11
2.64284e-11
2.47012e-11
2.30127e-11
2.13699e-11
1.97789e-11
1.82455e-11
1.67747e-11
1.53712e-11
1.40388e-11
1.27807e-11
1.15995e-11
1.04969e-11
9.47417e-12
8.53178e-12
7.6696e-12
6.8869e-12
6.18237e-12
5.55419e-12
5.00005e-12
4.51721e-12
4.10254e-12
3.75259e-12
3.46359e-12
3.23154e-12
3.05222e-12
2.92122e-12
2.83403e-12
2.78599e-12
2.77238e-12
2.78842e-12
2.82932e-12
2.89028e-12
2.96658e-12
3.05355e-12
3.14666e-12
3.24154e-12
3.33405e-12
3.4203e-12
3.49675e-12
3.56022e-12
3.60793e-12
3.63762e-12
3.64751e-12
3.63634e-12
3.60344e-12
3.54866e-12
3.47241e-12
3.37562e-12
3.25968e-12
3.12642e-12
2.97801e-12
2.81689e-12
2.64572e-12
2.46725e-12
2.28426e-12
2.09949e-12
1.91552e-12
1.73477e-12
1.55937e-12
1.39119e-12
1.23178e-12
1.08234e-12
9.43745e-13
8.16561e-13
7.01044e-13
5.97179e-13
5.04716e-13
4.2321e-13
3.52057e-13
2.90537e-13
2.37851e-13
1.93156e-13
1.55594e-13
1.24322e-13
9.85269e-14
7.74464e-14
6.03771e-14
4.66826e-14
3.57962e-14
2.72209e-14
2.05277e-14
1.53511e-14
1.13837e-14
8.37074e-15
6.10333e-15
4.41247e-15
3.16297e-15
2.24801e-15
1.58408e-15
1.10667e-15
7.66511e-16
5.26333e-16
3.58295e-16
2.41799e-16
1.61778e-16
1.07322e-16
7.06215e-17
4.61452e-17
3.00257e-17
1.95982e-17
1.30655e-17
9.25934e-18
7.47847e-18
1.84772e-15
1.87725e-15
1.96459e-15
2.11125e-15
2.32026e-15
2.59624e-15
2.94539e-15
3.37566e-15
3.89689e-15
4.52094e-15
5.26195e-15
6.13661e-15
7.1644e-15
8.36802e-15
9.77371e-15
1.14118e-14
1.33169e-14
1.55292e-14
1.80942e-14
2.1064e-14
2.44981e-14
2.84639e-14
3.30381e-14
3.83076e-14
4.43707e-14
5.13384e-14
5.93359e-14
6.8504e-14
7.90012e-14
9.1005e-14
1.04714e-13
1.20352e-13
1.38165e-13
1.58432e-13
1.81458e-13
2.07585e-13
2.37191e-13
2.70694e-13
3.08554e-13
3.51279e-13
3.99425e-13
4.53604e-13
5.14485e-13
5.82796e-13
6.59332e-13
7.44956e-13
8.40603e-13
9.47284e-13
1.06609e-12
1.19819e-12
1.34485e-12
1.5074e-12
1.68729e-12
1.88603e-12
2.10525e-12
2.34664e-12
2.61202e-12
2.90326e-12
3.22235e-12
3.57132e-12
3.95233e-12
4.36756e-12
4.81928e-12
5.30981e-12
5.84152e-12
6.41679e-12
7.03802e-12
7.70763e-12
8.42801e-12
9.20151e-12
1.00304e-11
1.0917e-11
1.18634e-11
1.28715e-11
1.39432e-11
1.50803e-11
1.62841e-11
1.7556e-11
1.8897e-11
2.03076e-11
2.17885e-11
2.33397e-11
2.49608e-11
2.66513e-11
2.84101e-11
3.02357e-11
3.21264e-11
3.40797e-11
3.60928e-11
3.81626e-11
4.02854e-11
4.24568e-11
4.46725e-11
4.69272e-11
4.92155e-11
5.15314e-11
5.38686e-11
5.62204e-11
5.85797e-11
6.09392e-11
6.32912e-11
6.56277e-11
6.79406e-11
7.02216e-11
7.24624e-11
7.46542e-11
7.67887e-11
7.88572e-11
8.08513e-11
8.27626e-11
8.45828e-11
8.63039e-11
8.79181e-11
8.9418e-11
9.07963e-11
9.20463e-11
9.31616e-11
9.41363e-11
9.49649e-11
9.56426e-11
9.61651e-11
9.65285e-11
9.67299e-11
9.67668e-11
9.66373e-11
9.63404e-11
9.58757e-11
9.52435e-11
9.4445e-11
9.34819e-11
9.2357e-11
9.10736e-11
8.96357e-11
8.80483e-11
8.63171e-11
8.44483e-11
8.24492e-11
8.03273e-11
7.80913e-11
7.57501e-11
7.33134e-11
7.07913e-11
6.81946e-11
6.55341e-11
6.28215e-11
6.00682e-11
5.72863e-11
5.44877e-11
5.16843e-11
4.88881e-11
4.61109e-11
4.33641e-11
4.06588e-11
3.80057e-11
3.5415e-11
3.28961e-11
3.04577e-11
2.8108e-11
2.58541e-11
2.37021e-11
2.16575e-11
1.97246e-11
1.79069e-11
1.62067e-11
1.46255e-11
1.31638e-11
1.18213e-11
1.05967e-11
9.48805e-12
8.49253e-12
7.60672e-12
6.82659e-12
6.14757e-12
5.56465e-12
5.0724e-12
4.66509e-12
4.33671e-12
4.08104e-12
3.89168e-12
3.76215e-12
3.68586e-12
3.65619e-12
3.66652e-12
3.71028e-12
3.78095e-12
3.87213e-12
3.9776e-12
4.09132e-12
4.20753e-12
4.3208e-12
4.42607e-12
4.51875e-12
4.59473e-12
4.65051e-12
4.68317e-12
4.6905e-12
4.67096e-12
4.62373e-12
4.54871e-12
4.4465e-12
4.31832e-12
4.16605e-12
3.99204e-12
3.79911e-12
3.59043e-12
3.36938e-12
3.13949e-12
2.90431e-12
2.66729e-12
2.43172e-12
2.20062e-12
1.9767e-12
1.76228e-12
1.55928e-12
1.3692e-12
1.19311e-12
1.03168e-12
8.85197e-13
7.53607e-13
6.36564e-13
5.33473e-13
4.43546e-13
3.6585e-13
2.99358e-13
2.42987e-13
1.95644e-13
1.56252e-13
1.23778e-13
9.72542e-14
7.57887e-14
5.85758e-14
4.48989e-14
3.41307e-14
2.57295e-14
1.92347e-14
1.4259e-14
1.04818e-14
7.6403e-15
5.52207e-15
3.95729e-15
2.81181e-15
1.98087e-15
1.38356e-15
9.58068e-16
6.57725e-16
4.47645e-16
3.02039e-16
2.02043e-16
1.3401e-16
8.81679e-17
5.76009e-17
3.74736e-17
2.44557e-17
1.63013e-17
1.15508e-17
9.3283e-18
3.41203e-15
3.46654e-15
3.6278e-15
3.89858e-15
4.28451e-15
4.79407e-15
5.43876e-15
6.23327e-15
7.19573e-15
8.34807e-15
9.71643e-15
1.13316e-14
1.32296e-14
1.54523e-14
1.80482e-14
2.10731e-14
2.45915e-14
2.86769e-14
3.34136e-14
3.88978e-14
4.52392e-14
5.25623e-14
6.10085e-14
7.07381e-14
8.19323e-14
9.47957e-14
1.09559e-13
1.26482e-13
1.45856e-13
1.68007e-13
1.93303e-13
2.22152e-13
2.55009e-13
2.92383e-13
3.34839e-13
3.83e-13
4.37561e-13
4.99285e-13
5.69015e-13
6.4768e-13
7.36295e-13
8.35975e-13
9.47938e-13
1.07351e-12
1.21414e-12
1.37138e-12
1.54693e-12
1.74262e-12
1.96041e-12
2.20242e-12
2.4709e-12
2.76827e-12
3.09708e-12
3.46005e-12
3.86006e-12
4.30014e-12
4.78345e-12
5.31331e-12
5.89319e-12
6.52666e-12
7.21742e-12
7.96928e-12
8.78612e-12
9.67189e-12
1.06306e-11
1.16662e-11
1.27828e-11
1.39843e-11
1.52746e-11
1.66575e-11
1.81367e-11
1.97155e-11
2.13971e-11
2.31847e-11
2.50807e-11
2.70874e-11
2.92068e-11
3.14401e-11
3.37883e-11
3.62517e-11
3.88301e-11
4.15226e-11
4.43277e-11
4.72432e-11
5.0266e-11
5.33926e-11
5.66185e-11
5.99383e-11
6.33461e-11
6.6835e-11
7.03975e-11
7.40252e-11
7.7709e-11
8.14391e-11
8.52051e-11
8.89957e-11
9.27994e-11
9.66038e-11
1.00396e-10
1.04164e-10
1.07893e-10
1.1157e-10
1.15181e-10
1.18712e-10
1.22149e-10
1.25479e-10
1.28686e-10
1.31759e-10
1.34683e-10
1.37446e-10
1.40036e-10
1.4244e-10
1.44648e-10
1.46649e-10
1.48433e-10
1.49991e-10
1.51315e-10
1.52398e-10
1.53234e-10
1.53818e-10
1.54144e-10
1.54211e-10
1.54016e-10
1.53557e-10
1.52836e-10
1.51853e-10
1.50611e-10
1.49113e-10
1.47363e-10
1.45368e-10
1.43135e-10
1.40671e-10
1.37985e-10
1.35087e-10
1.31989e-10
1.28701e-10
1.25238e-10
1.21613e-10
1.17839e-10
1.13934e-10
1.09911e-10
1.05788e-10
1.01581e-10
9.73082e-11
9.29864e-11
8.86333e-11
8.42666e-11
7.99038e-11
7.55622e-11
7.1259e-11
6.70105e-11
6.28328e-11
5.8741e-11
5.47495e-11
5.08717e-11
4.71199e-11
4.35054e-11
4.00381e-11
3.67267e-11
3.35786e-11
3.05997e-11
2.77945e-11
2.51663e-11
2.27168e-11
2.04465e-11
1.83545e-11
1.6439e-11
1.46966e-11
1.31232e-11
1.17136e-11
1.04618e-11
9.36117e-12
8.40421e-12
7.58306e-12
6.88937e-12
6.31448e-12
5.84942e-12
5.48507e-12
5.21217e-12
5.0214e-12
4.90343e-12
4.84899e-12
4.84886e-12
4.89397e-12
4.97542e-12
5.08454e-12
5.21294e-12
5.35255e-12
5.49572e-12
5.63527e-12
5.76457e-12
5.87762e-12
5.9691e-12
6.03448e-12
6.07006e-12
6.07302e-12
6.04144e-12
5.97436e-12
5.87172e-12
5.73435e-12
5.56396e-12
5.36297e-12
5.13451e-12
4.88225e-12
4.61028e-12
4.32299e-12
4.02491e-12
3.72057e-12
3.41442e-12
3.11063e-12
2.81305e-12
2.5251e-12
2.2497e-12
1.98928e-12
1.74569e-12
1.52026e-12
1.3138e-12
1.12661e-12
9.58603e-13
8.09287e-13
6.7787e-13
5.63318e-13
4.64415e-13
3.79829e-13
3.08164e-13
2.48012e-13
1.97991e-13
1.56778e-13
1.23133e-13
9.59189e-14
7.41065e-14
5.67831e-14
4.31497e-14
3.25178e-14
2.43016e-14
1.80097e-14
1.3235e-14
9.64442e-15
6.96866e-15
4.99266e-15
3.5466e-15
2.49792e-15
1.7443e-15
1.20761e-15
8.28863e-16
5.64009e-16
3.80481e-16
2.5447e-16
1.68754e-16
1.11009e-16
7.25114e-17
4.71668e-17
3.07769e-17
2.05117e-17
1.45322e-17
1.17349e-17
6.23414e-15
6.33374e-15
6.62839e-15
7.12315e-15
7.82831e-15
8.75941e-15
9.93746e-15
1.13893e-14
1.31481e-14
1.5254e-14
1.77547e-14
2.07065e-14
2.41753e-14
2.82377e-14
3.29824e-14
3.85114e-14
4.49423e-14
5.24098e-14
6.1068e-14
7.10926e-14
8.2684e-14
9.60697e-14
1.11508e-13
1.29292e-13
1.49752e-13
1.73262e-13
2.00243e-13
2.31169e-13
2.6657e-13
3.07044e-13
3.53258e-13
4.05956e-13
4.65968e-13
5.34219e-13
6.11735e-13
6.99652e-13
7.99228e-13
9.11851e-13
1.03905e-12
1.1825e-12
1.34405e-12
1.52571e-12
1.72967e-12
1.95834e-12
2.2143e-12
2.50038e-12
2.81961e-12
3.17527e-12
3.57088e-12
4.0102e-12
4.49726e-12
5.03634e-12
5.632e-12
6.28903e-12
7.0125e-12
7.80772e-12
8.68027e-12
9.63593e-12
1.06807e-11
1.18208e-11
1.30626e-11
1.44125e-11
1.58773e-11
1.74636e-11
1.9178e-11
2.10274e-11
2.30181e-11
2.51568e-11
2.74497e-11
2.99028e-11
3.25216e-11
3.53115e-11
3.82772e-11
4.14228e-11
4.47519e-11
4.82673e-11
5.19709e-11
5.58638e-11
5.99462e-11
6.42172e-11
6.86747e-11
7.33155e-11
7.81354e-11
8.31285e-11
8.82881e-11
9.36057e-11
9.90718e-11
1.04676e-10
1.10404e-10
1.16245e-10
1.22183e-10
1.28201e-10
1.34283e-10
1.4041e-10
1.46562e-10
1.52721e-10
1.58864e-10
1.6497e-10
1.71016e-10
1.76981e-10
1.8284e-10
1.88571e-10
1.94151e-10
1.99557e-10
2.04766e-10
2.09756e-10
2.14505e-10
2.18993e-10
2.23199e-10
2.27105e-10
2.30692e-10
2.33944e-10
2.36845e-10
2.39382e-10
2.41542e-10
2.43314e-10
2.44689e-10
2.4566e-10
2.46219e-10
2.46364e-10
2.46092e-10
2.45402e-10
2.44295e-10
2.42775e-10
2.40846e-10
2.38515e-10
2.3579e-10
2.3268e-10
2.29197e-10
2.25355e-10
2.21167e-10
2.16651e-10
2.11822e-10
2.06701e-10
2.01307e-10
1.9566e-10
1.89785e-10
1.83702e-10
1.77437e-10
1.71015e-10
1.64459e-10
1.57797e-10
1.51054e-10
1.44256e-10
1.3743e-10
1.30601e-10
1.23795e-10
1.17038e-10
1.10355e-10
1.03768e-10
9.73013e-11
9.09759e-11
8.48124e-11
7.88297e-11
7.30452e-11
6.74744e-11
6.21312e-11
5.70276e-11
5.21737e-11
4.75774e-11
4.32449e-11
3.91801e-11
3.53851e-11
3.18602e-11
2.86037e-11
2.56123e-11
2.28809e-11
2.04032e-11
1.81712e-11
1.6176e-11
1.44077e-11
1.28552e-11
1.15069e-11
1.03506e-11
9.37356e-12
8.56282e-12
7.90514e-12
7.38715e-12
6.99551e-12
6.71687e-12
6.53804e-12
6.44599e-12
6.42791e-12
6.47128e-12
6.56392e-12
6.69404e-12
6.8503e-12
7.02189e-12
7.19861e-12
7.37095e-12
7.53016e-12
7.66838e-12
7.77869e-12
7.85522e-12
7.89321e-12
7.88906e-12
7.84039e-12
7.74603e-12
7.606e-12
7.42148e-12
7.19475e-12
6.92905e-12
6.62848e-12
6.29782e-12
5.9424e-12
5.5679e-12
5.18017e-12
4.78507e-12
4.38827e-12
3.99513e-12
3.61055e-12
3.23888e-12
2.88384e-12
2.54847e-12
2.23509e-12
1.94534e-12
1.68021e-12
1.44004e-12
1.22465e-12
1.03336e-12
8.65132e-13
7.18591e-13
5.92151e-13
4.84082e-13
3.92576e-13
3.15814e-13
2.52016e-13
1.99478e-13
1.56611e-13
1.21952e-13
9.41864e-14
7.21444e-14
5.48048e-14
4.1288e-14
3.08464e-14
2.28534e-14
1.67898e-14
1.22315e-14
8.83568e-15
6.3287e-15
4.4946e-15
3.16489e-15
2.20956e-15
1.52939e-15
1.04952e-15
7.14022e-16
4.81592e-16
3.22039e-16
2.13528e-16
1.40439e-16
9.17218e-17
5.9654e-17
3.89193e-17
2.59346e-17
1.83718e-17
1.4834e-17
1.12698e-14
1.14499e-14
1.19827e-14
1.28773e-14
1.41524e-14
1.5836e-14
1.79663e-14
2.05918e-14
2.37725e-14
2.7581e-14
3.21038e-14
3.74428e-14
4.37173e-14
5.10657e-14
5.96486e-14
6.96509e-14
8.12853e-14
9.47955e-14
1.1046e-13
1.28598e-13
1.49571e-13
1.73791e-13
2.01726e-13
2.33904e-13
2.70925e-13
3.13463e-13
3.6228e-13
4.18232e-13
4.82279e-13
5.55499e-13
6.39094e-13
7.3441e-13
8.42945e-13
9.66364e-13
1.10652e-12
1.26545e-12
1.44542e-12
1.64894e-12
1.87874e-12
2.13784e-12
2.42955e-12
2.75746e-12
3.12553e-12
3.53802e-12
3.99958e-12
4.51522e-12
5.09036e-12
5.73081e-12
6.44283e-12
7.23309e-12
8.1087e-12
9.07721e-12
1.01466e-11
1.13254e-11
1.26223e-11
1.40468e-11
1.56083e-11
1.7317e-11
1.91833e-11
2.12177e-11
2.34312e-11
2.58348e-11
2.84396e-11
3.12569e-11
3.42978e-11
3.75734e-11
4.10942e-11
4.48709e-11
4.89131e-11
5.32304e-11
5.78313e-11
6.27234e-11
6.79136e-11
7.34074e-11
7.92092e-11
8.53218e-11
9.17466e-11
9.84831e-11
1.05529e-10
1.12881e-10
1.20533e-10
1.28475e-10
1.36699e-10
1.45191e-10
1.53936e-10
1.62918e-10
1.72117e-10
1.8151e-10
1.91075e-10
2.00785e-10
2.10612e-10
2.20525e-10
2.30494e-10
2.40485e-10
2.50463e-10
2.60392e-10
2.70236e-10
2.79955e-10
2.89513e-10
2.9887e-10
3.07988e-10
3.16829e-10
3.25355e-10
3.3353e-10
3.41316e-10
3.48681e-10
3.5559e-10
3.62012e-10
3.67918e-10
3.73281e-10
3.78076e-10
3.8228e-10
3.85874e-10
3.8884e-10
3.91164e-10
3.92835e-10
3.93843e-10
3.94184e-10
3.93855e-10
3.92856e-10
3.91191e-10
3.88864e-10
3.85887e-10
3.82269e-10
3.78026e-10
3.73175e-10
3.67734e-10
3.61727e-10
3.55176e-10
3.48108e-10
3.40552e-10
3.32536e-10
3.24094e-10
3.15258e-10
3.06063e-10
2.96545e-10
2.86741e-10
2.76689e-10
2.66426e-10
2.55994e-10
2.45429e-10
2.34773e-10
2.24064e-10
2.13342e-10
2.02645e-10
1.92011e-10