/*--------------------------------*- C++ -*----------------------------------*\
| =========                 |                                                 |
| \\      /  F ield         | OpenFOAM: The Open Source CFD Toolbox           |
|  \\    /   O peration     | Version:  v2012                                 |
|   \\  /    A nd           | Website:  www.openfoam.com                      |
|    \\/     M anipulation  |                                                 |
\*---------------------------------------------------------------------------*/
FoamFile
{
    version     2.0;
    format      ascii;
    class       volScalarField;
    location    "9.5";
    object      p;
}
// * * * * * * * * * * * * * * * * * * * * * * * * * * * * * * * * * * * * * //

dimensions      [0 2 -2 0 0 0 0];


internalField   nonuniform List<scalar> 
65536
(
2.72698e-10
-2.0121e-06
-6.05053e-06
-1.21231e-05
-2.02331e-05
-3.03815e-05
-4.25704e-05
-5.68037e-05
-7.30859e-05
-9.14223e-05
-0.000111819
-0.000134281
-0.000158817
-0.000185434
-0.00021414
-0.000244943
-0.000277852
-0.000312876
-0.000350026
-0.00038931
-0.000430739
-0.000474322
-0.000520071
-0.000567995
-0.000618105
-0.00067041
-0.000724921
-0.000781648
-0.000840599
-0.000901784
-0.000965211
-0.00103089
-0.00109882
-0.00116902
-0.00124149
-0.00131623
-0.00139325
-0.00147254
-0.00155412
-0.00163798
-0.00172412
-0.00181253
-0.00190321
-0.00199616
-0.00209136
-0.00218881
-0.00228848
-0.00239037
-0.00249446
-0.00260072
-0.00270914
-0.00281969
-0.00293234
-0.00304706
-0.00316382
-0.00328257
-0.00340328
-0.00352591
-0.0036504
-0.00377672
-0.0039048
-0.00403458
-0.00416601
-0.00429902
-0.00443355
-0.00456952
-0.00470686
-0.00484549
-0.00498533
-0.00512629
-0.00526829
-0.00541123
-0.00555501
-0.00569955
-0.00584473
-0.00599045
-0.0061366
-0.00628308
-0.00642977
-0.00657656
-0.00672332
-0.00686994
-0.0070163
-0.00716228
-0.00730774
-0.00745257
-0.00759664
-0.00773982
-0.00788199
-0.00802301
-0.00816277
-0.00830113
-0.00843797
-0.00857316
-0.00870658
-0.00883811
-0.00896762
-0.00909501
-0.00922015
-0.00934294
-0.00946326
-0.009581
-0.00969607
-0.00980836
-0.00991778
-0.0100242
-0.0101276
-0.0102279
-0.010325
-0.0104188
-0.0105092
-0.0105962
-0.0106798
-0.0107598
-0.0108362
-0.0109091
-0.0109783
-0.0110438
-0.0111056
-0.0111637
-0.0112181
-0.0112687
-0.0113156
-0.0113587
-0.0113981
-0.0114338
-0.0114657
-0.011494
-0.0115186
-0.0115396
-0.011557
-0.0115709
-0.0115812
-0.0115881
-0.0115915
-0.0115916
-0.0115884
-0.011582
-0.0115724
-0.0115597
-0.011544
-0.0115253
-0.0115037
-0.0114794
-0.0114522
-0.0114224
-0.0113901
-0.0113552
-0.011318
-0.0112784
-0.0112365
-0.0111925
-0.0111464
-0.0110983
-0.0110484
-0.0109965
-0.010943
-0.0108878
-0.010831
-0.0107727
-0.010713
-0.010652
-0.0105897
-0.0105263
-0.0104618
-0.0103962
-0.0103297
-0.0102624
-0.0101942
-0.0101254
-0.0100558
-0.00998574
-0.00991512
-0.00984405
-0.0097726
-0.00970082
-0.00962878
-0.00955654
-0.00948416
-0.00941169
-0.00933918
-0.0092667
-0.00919429
-0.009122
-0.00904988
-0.00897799
-0.00890635
-0.00883503
-0.00876406
-0.00869348
-0.00862334
-0.00855366
-0.0084845
-0.00841588
-0.00834784
-0.00828042
-0.00821364
-0.00814754
-0.00808214
-0.00801748
-0.00795359
-0.00789048
-0.00782818
-0.00776673
-0.00770613
-0.00764642
-0.00758762
-0.00752974
-0.00747281
-0.00741684
-0.00736185
-0.00730787
-0.00725489
-0.00720295
-0.00715206
-0.00710223
-0.00705347
-0.0070058
-0.00695922
-0.00691376
-0.00686942
-0.00682621
-0.00678414
-0.00674323
-0.00670347
-0.00666489
-0.00662748
-0.00659126
-0.00655622
-0.00652239
-0.00648977
-0.00645835
-0.00642815
-0.00639917
-0.00637143
-0.00634491
-0.00631963
-0.00629559
-0.00627279
-0.00625125
-0.00623095
-0.00621191
-0.00619412
-0.0061776
-0.00616234
-0.00614834
-0.00613561
-0.00612414
-0.00611395
-0.00610503
-0.00609738
-0.006091
-0.0060859
-0.00608207
-0.00607952
-0.00607824
-2.51609e-06
-4.53066e-06
-8.57309e-06
-1.46472e-05
-2.27564e-05
-3.29027e-05
-4.5089e-05
-5.9319e-05
-7.55972e-05
-9.3929e-05
-0.00011432
-0.000136777
-0.000161307
-0.000187917
-0.000216616
-0.000247411
-0.000280312
-0.000315328
-0.000352469
-0.000391744
-0.000433163
-0.000476737
-0.000522475
-0.000570389
-0.000620488
-0.000672782
-0.000727282
-0.000783997
-0.000842936
-0.000904109
-0.000967524
-0.00103319
-0.00110111
-0.0011713
-0.00124375
-0.00131848
-0.00139549
-0.00147477
-0.00155634
-0.00164019
-0.00172631
-0.00181472
-0.00190539
-0.00199832
-0.00209352
-0.00219095
-0.00229062
-0.0023925
-0.00249658
-0.00260284
-0.00271125
-0.00282179
-0.00293444
-0.00304916
-0.00316591
-0.00328466
-0.00340537
-0.003528
-0.0036525
-0.00377882
-0.0039069
-0.00403669
-0.00416812
-0.00430115
-0.00443568
-0.00457167
-0.00470902
-0.00484766
-0.00498751
-0.00512849
-0.00527051
-0.00541346
-0.00555727
-0.00570182
-0.00584703
-0.00599277
-0.00613895
-0.00628546
-0.00643218
-0.00657899
-0.00672579
-0.00687244
-0.00701883
-0.00716484
-0.00731034
-0.00745521
-0.00759931
-0.00774253
-0.00788473
-0.00802579
-0.00816559
-0.00830399
-0.00844086
-0.00857609
-0.00870955
-0.00884112
-0.00897068
-0.0090981
-0.00922329
-0.00934611
-0.00946646
-0.00958425
-0.00969935
-0.00981168
-0.00992113
-0.0100276
-0.0101311
-0.0102314
-0.0103285
-0.0104223
-0.0105127
-0.0105998
-0.0106834
-0.0107634
-0.0108399
-0.0109128
-0.010982
-0.0110475
-0.0111094
-0.0111675
-0.0112218
-0.0112725
-0.0113194
-0.0113625
-0.0114019
-0.0114376
-0.0114695
-0.0114978
-0.0115224
-0.0115434
-0.0115608
-0.0115746
-0.011585
-0.0115918
-0.0115953
-0.0115954
-0.0115922
-0.0115857
-0.0115761
-0.0115634
-0.0115477
-0.011529
-0.0115074
-0.011483
-0.0114558
-0.011426
-0.0113936
-0.0113588
-0.0113215
-0.0112819
-0.01124
-0.011196
-0.0111498
-0.0111017
-0.0110517
-0.0109999
-0.0109463
-0.0108911
-0.0108343
-0.0107759
-0.0107162
-0.0106552
-0.0105929
-0.0105294
-0.0104649
-0.0103993
-0.0103328
-0.0102654
-0.0101972
-0.0101283
-0.0100588
-0.00998864
-0.00991799
-0.0098469
-0.00977542
-0.00970362
-0.00963155
-0.00955929
-0.00948688
-0.00941438
-0.00934185
-0.00926934
-0.00919691
-0.00912459
-0.00905245
-0.00898053
-0.00890888
-0.00883753
-0.00876654
-0.00869594
-0.00862577
-0.00855608
-0.00848689
-0.00841825
-0.0083502
-0.00828275
-0.00821595
-0.00814983
-0.00808442
-0.00801974
-0.00795582
-0.0078927
-0.00783038
-0.00776891
-0.0077083
-0.00764857
-0.00758975
-0.00753186
-0.00747491
-0.00741893
-0.00736392
-0.00730992
-0.00725694
-0.00720499
-0.00715408
-0.00710423
-0.00705546
-0.00700778
-0.00696119
-0.00691572
-0.00687136
-0.00682814
-0.00678607
-0.00674514
-0.00670538
-0.00666678
-0.00662936
-0.00659313
-0.00655809
-0.00652425
-0.00649162
-0.00646019
-0.00642999
-0.006401
-0.00637325
-0.00634673
-0.00632144
-0.00629739
-0.00627459
-0.00625304
-0.00623274
-0.00621369
-0.0061959
-0.00617938
-0.00616411
-0.00615011
-0.00613737
-0.00612591
-0.00611571
-0.00610679
-0.00609914
-0.00609276
-0.00608765
-0.00608383
-0.00608127
-0.00608
-7.5641e-06
-9.58259e-06
-1.3629e-05
-1.97037e-05
-2.78105e-05
-3.79526e-05
-5.01332e-05
-6.43564e-05
-8.06266e-05
-9.89492e-05
-0.00011933
-0.000141776
-0.000166293
-0.00019289
-0.000221575
-0.000252355
-0.00028524
-0.000320239
-0.000357362
-0.000396619
-0.000438019
-0.000481573
-0.000527291
-0.000575183
-0.00062526
-0.000677532
-0.000732009
-0.000788701
-0.000847617
-0.000908767
-0.000972158
-0.0010378
-0.0011057
-0.00117586
-0.00124829
-0.00132299
-0.00139998
-0.00147924
-0.00156078
-0.00164461
-0.00173071
-0.00181909
-0.00190974
-0.00200266
-0.00209783
-0.00219525
-0.0022949
-0.00239676
-0.00250083
-0.00260707
-0.00271548
-0.00282601
-0.00293865
-0.00305336
-0.0031701
-0.00328885
-0.00340957
-0.0035322
-0.0036567
-0.00378302
-0.00391111
-0.00404091
-0.00417236
-0.0043054
-0.00443995
-0.00457596
-0.00471333
-0.004852
-0.00499189
-0.0051329
-0.00527494
-0.00541794
-0.00556179
-0.00570638
-0.00585163
-0.00599743
-0.00614366
-0.00629022
-0.00643699
-0.00658387
-0.00673072
-0.00687744
-0.0070239
-0.00716997
-0.00731554
-0.00746048
-0.00760466
-0.00774795
-0.00789023
-0.00803137
-0.00817124
-0.00830971
-0.00844667
-0.00858198
-0.00871552
-0.00884716
-0.0089768
-0.0091043
-0.00922956
-0.00935246
-0.0094729
-0.00959075
-0.00970593
-0.00981833
-0.00992785
-0.0100344
-0.0101379
-0.0102383
-0.0103354
-0.0104293
-0.0105198
-0.0106069
-0.0106906
-0.0107707
-0.0108472
-0.0109201
-0.0109894
-0.0110549
-0.0111168
-0.0111749
-0.0112294
-0.01128
-0.0113269
-0.0113701
-0.0114095
-0.0114452
-0.0114771
-0.0115054
-0.01153
-0.011551
-0.0115684
-0.0115822
-0.0115925
-0.0115994
-0.0116028
-0.0116029
-0.0115997
-0.0115932
-0.0115836
-0.0115708
-0.0115551
-0.0115363
-0.0115147
-0.0114902
-0.0114631
-0.0114332
-0.0114008
-0.0113659
-0.0113285
-0.0112889
-0.0112469
-0.0112029
-0.0111567
-0.0111085
-0.0110585
-0.0110066
-0.0109529
-0.0108977
-0.0108408
-0.0107824
-0.0107227
-0.0106615
-0.0105992
-0.0105357
-0.0104711
-0.0104054
-0.0103389
-0.0102714
-0.0102032
-0.0101342
-0.0100646
-0.00999445
-0.00992376
-0.00985261
-0.00978107
-0.00970922
-0.0096371
-0.00956478
-0.00949232
-0.00941977
-0.00934719
-0.00927464
-0.00920215
-0.00912979
-0.0090576
-0.00898564
-0.00891393
-0.00884254
-0.0087715
-0.00870086
-0.00863065
-0.00856091
-0.00849168
-0.008423
-0.0083549
-0.00828742
-0.00822058
-0.00815442
-0.00808897
-0.00802425
-0.0079603
-0.00789714
-0.00783479
-0.00777328
-0.00771264
-0.00765288
-0.00759402
-0.0075361
-0.00747912
-0.00742311
-0.00736808
-0.00731405
-0.00726103
-0.00720905
-0.00715812
-0.00710825
-0.00705945
-0.00701174
-0.00696513
-0.00691963
-0.00687526
-0.00683202
-0.00678992
-0.00674897
-0.00670919
-0.00667057
-0.00663314
-0.00659689
-0.00656183
-0.00652797
-0.00649532
-0.00646389
-0.00643366
-0.00640467
-0.0063769
-0.00635036
-0.00632506
-0.00630101
-0.0062782
-0.00625663
-0.00623632
-0.00621727
-0.00619947
-0.00618293
-0.00616766
-0.00615365
-0.00614091
-0.00612944
-0.00611924
-0.00611031
-0.00610266
-0.00609628
-0.00609117
-0.00608734
-0.00608479
-0.00608351
-1.51502e-05
-1.71702e-05
-2.12171e-05
-2.72899e-05
-3.53923e-05
-4.55276e-05
-5.76995e-05
-7.19122e-05
-8.81702e-05
-0.000106479
-0.000126845
-0.000149273
-0.000173772
-0.000200349
-0.000229012
-0.00025977
-0.000292631
-0.000327605
-0.000364702
-0.000403931
-0.000445302
-0.000488826
-0.000534514
-0.000582374
-0.000632419
-0.000684658
-0.000739101
-0.000795758
-0.000854639
-0.000915753
-0.000979108
-0.00104471
-0.00111257
-0.0011827
-0.00125509
-0.00132976
-0.00140671
-0.00148594
-0.00156745
-0.00165124
-0.00173731
-0.00182565
-0.00191627
-0.00200916
-0.0021043
-0.00220169
-0.00230132
-0.00240316
-0.0025072
-0.00261343
-0.00272181
-0.00283233
-0.00294496
-0.00305966
-0.0031764
-0.00329515
-0.00341586
-0.00353849
-0.00366299
-0.00378933
-0.00391743
-0.00404725
-0.00417872
-0.00431178
-0.00444636
-0.0045824
-0.00471981
-0.00485852
-0.00499845
-0.00513951
-0.00528161
-0.00542466
-0.00556857
-0.00571323
-0.00585855
-0.00600442
-0.00615073
-0.00629737
-0.00644423
-0.00659119
-0.00673814
-0.00688495
-0.00703151
-0.00717768
-0.00732336
-0.0074684
-0.00761269
-0.00775609
-0.00789848
-0.00803973
-0.00817972
-0.00831831
-0.00845539
-0.00859081
-0.00872447
-0.00885624
-0.00898599
-0.00911361
-0.00923899
-0.00936201
-0.00948255
-0.00960052
-0.00971581
-0.00982831
-0.00993794
-0.0100446
-0.0101482
-0.0102487
-0.0103459
-0.0104399
-0.0105305
-0.0106177
-0.0107014
-0.0107816
-0.0108581
-0.0109311
-0.0110004
-0.0110661
-0.011128
-0.0111862
-0.0112406
-0.0112913
-0.0113382
-0.0113814
-0.0114209
-0.0114565
-0.0114885
-0.0115168
-0.0115414
-0.0115624
-0.0115798
-0.0115936
-0.0116039
-0.0116107
-0.0116141
-0.0116142
-0.0116109
-0.0116044
-0.0115947
-0.011582
-0.0115661
-0.0115473
-0.0115256
-0.0115011
-0.0114739
-0.011444
-0.0114115
-0.0113765
-0.0113391
-0.0112994
-0.0112574
-0.0112132
-0.011167
-0.0111187
-0.0110686
-0.0110166
-0.0109629
-0.0109075
-0.0108506
-0.0107921
-0.0107323
-0.0106711
-0.0106087
-0.0105451
-0.0104804
-0.0104147
-0.010348
-0.0102805
-0.0102122
-0.0101431
-0.0100734
-0.0100032
-0.0099324
-0.00986117
-0.00978956
-0.00971762
-0.00964543
-0.00957303
-0.00950049
-0.00942787
-0.00935521
-0.00928258
-0.00921002
-0.00913759
-0.00906533
-0.00899329
-0.00892152
-0.00885006
-0.00877895
-0.00870824
-0.00863796
-0.00856816
-0.00849887
-0.00843013
-0.00836197
-0.00829442
-0.00822752
-0.00816131
-0.0080958
-0.00803102
-0.00796702
-0.0079038
-0.0078414
-0.00777984
-0.00771914
-0.00765933
-0.00760043
-0.00754246
-0.00748543
-0.00742937
-0.0073743
-0.00732023
-0.00726717
-0.00721515
-0.00716418
-0.00711427
-0.00706543
-0.00701769
-0.00697104
-0.00692551
-0.0068811
-0.00683782
-0.00679569
-0.00675472
-0.0067149
-0.00667626
-0.0066388
-0.00660252
-0.00656744
-0.00653356
-0.00650088
-0.00646942
-0.00643918
-0.00641016
-0.00638237
-0.00635582
-0.0063305
-0.00630643
-0.0062836
-0.00626202
-0.0062417
-0.00622263
-0.00620482
-0.00618827
-0.00617299
-0.00615897
-0.00614622
-0.00613474
-0.00612453
-0.0061156
-0.00610793
-0.00610155
-0.00609644
-0.00609261
-0.00609005
-0.00608877
-2.52768e-05
-2.72958e-05
-3.13404e-05
-3.74087e-05
-4.55041e-05
-5.56301e-05
-6.77901e-05
-8.19886e-05
-9.82303e-05
-0.000116521
-0.000136866
-0.000159272
-0.000183746
-0.000210297
-0.000238932
-0.000269659
-0.000302489
-0.000337429
-0.000374491
-0.000413683
-0.000455016
-0.000498501
-0.000544147
-0.000591966
-0.000641967
-0.000694162
-0.00074856
-0.000805171
-0.000864006
-0.000925072
-0.00098838
-0.00105394
-0.00112175
-0.00119183
-0.00126417
-0.00133879
-0.00141569
-0.00149487
-0.00157634
-0.00166008
-0.00174611
-0.00183441
-0.00192499
-0.00201784
-0.00211294
-0.0022103
-0.00230989
-0.0024117
-0.00251571
-0.00262191
-0.00273027
-0.00284077
-0.00295338
-0.00306807
-0.0031848
-0.00330354
-0.00342425
-0.00354689
-0.0036714
-0.00379774
-0.00392586
-0.0040557
-0.0041872
-0.00432029
-0.00445492
-0.00459099
-0.00472846
-0.00486722
-0.00500721
-0.00514833
-0.0052905
-0.00543363
-0.00557762
-0.00572237
-0.00586778
-0.00601375
-0.00616016
-0.00630691
-0.00645388
-0.00660096
-0.00674803
-0.00689497
-0.00704166
-0.00718797
-0.00733379
-0.00747897
-0.00762341
-0.00776696
-0.0079095
-0.00805091
-0.00819105
-0.0083298
-0.00846703
-0.00860261
-0.00873643
-0.00886836
-0.00899827
-0.00912605
-0.00925158
-0.00937475
-0.00949545
-0.00961357
-0.009729
-0.00984165
-0.00995143
-0.0100582
-0.010162
-0.0102626
-0.0103599
-0.010454
-0.0105447
-0.010632
-0.0107158
-0.0107961
-0.0108728
-0.0109458
-0.0110152
-0.0110809
-0.0111429
-0.0112012
-0.0112557
-0.0113064
-0.0113534
-0.0113966
-0.011436
-0.0114718
-0.0115037
-0.011532
-0.0115566
-0.0115776
-0.011595
-0.0116088
-0.011619
-0.0116258
-0.0116292
-0.0116292
-0.0116259
-0.0116194
-0.0116096
-0.0115968
-0.0115809
-0.011562
-0.0115403
-0.0115157
-0.0114884
-0.0114584
-0.0114258
-0.0113907
-0.0113532
-0.0113134
-0.0112713
-0.011227
-0.0111807
-0.0111324
-0.0110821
-0.01103
-0.0109762
-0.0109207
-0.0108637
-0.0108051
-0.0107452
-0.0106839
-0.0106213
-0.0105576
-0.0104928
-0.010427
-0.0103602
-0.0102926
-0.0102241
-0.010155
-0.0100852
-0.0100148
-0.00994393
-0.0098726
-0.00980087
-0.00972883
-0.00965653
-0.00958403
-0.00951139
-0.00943867
-0.00936591
-0.00929318
-0.00922052
-0.00914799
-0.00907563
-0.0090035
-0.00893163
-0.00886008
-0.00878888
-0.00871808
-0.00864772
-0.00857783
-0.00850846
-0.00843963
-0.00837139
-0.00830376
-0.00823678
-0.00817049
-0.0081049
-0.00804005
-0.00797597
-0.00791268
-0.00785021
-0.00778858
-0.00772782
-0.00766794
-0.00760898
-0.00755094
-0.00749385
-0.00743773
-0.0073826
-0.00732847
-0.00727536
-0.00722328
-0.00717226
-0.00712229
-0.00707341
-0.00702561
-0.00697892
-0.00693334
-0.00688889
-0.00684557
-0.0068034
-0.00676238
-0.00672252
-0.00668384
-0.00664634
-0.00661003
-0.00657491
-0.006541
-0.00650829
-0.0064768
-0.00644653
-0.00641748
-0.00638967
-0.00636309
-0.00633775
-0.00631365
-0.0062908
-0.0062692
-0.00624886
-0.00622977
-0.00621194
-0.00619538
-0.00618008
-0.00616605
-0.00615329
-0.0061418
-0.00613158
-0.00612264
-0.00611497
-0.00610858
-0.00610346
-0.00609963
-0.00609707
-0.00609579
-3.79435e-05
-3.99605e-05
-4.40008e-05
-5.00624e-05
-5.81483e-05
-6.8262e-05
-8.04071e-05
-9.45877e-05
-0.000110809
-0.000129076
-0.000149396
-0.000171774
-0.000196218
-0.000222735
-0.000251335
-0.000282025
-0.000314815
-0.000349713
-0.000386731
-0.000425877
-0.000467163
-0.000510598
-0.000556194
-0.00060396
-0.000653908
-0.000706048
-0.000760389
-0.000816943
-0.00087572
-0.000936727
-0.000999975
-0.00106547
-0.00113323
-0.00120324
-0.00127553
-0.00135009
-0.00142693
-0.00150605
-0.00158746
-0.00167114
-0.00175712
-0.00184537
-0.00193589
-0.00202869
-0.00212375
-0.00222106
-0.00232061
-0.00242238
-0.00252636
-0.00263252
-0.00274086
-0.00285133
-0.00296392
-0.00307859
-0.00319531
-0.00331405
-0.00343476
-0.0035574
-0.00368192
-0.00380828
-0.00393642
-0.00406629
-0.00419782
-0.00433096
-0.00446562
-0.00460176
-0.00473928
-0.00487811
-0.00501817
-0.00515938
-0.00530164
-0.00544486
-0.00558896
-0.00573382
-0.00587934
-0.00602543
-0.00617197
-0.00631886
-0.00646598
-0.0066132
-0.00676043
-0.00690753
-0.00705438
-0.00720086
-0.00734685
-0.00749222
-0.00763683
-0.00778057
-0.0079233
-0.0080649
-0.00820524
-0.00834418
-0.00848161
-0.0086174
-0.00875141
-0.00888354
-0.00901365
-0.00914162
-0.00926735
-0.00939072
-0.00951161
-0.00962991
-0.00974553
-0.00985837
-0.00996831
-0.0100753
-0.0101792
-0.0102799
-0.0103775
-0.0104717
-0.0105626
-0.01065
-0.0107339
-0.0108143
-0.0108911
-0.0109643
-0.0110338
-0.0110996
-0.0111616
-0.01122
-0.0112745
-0.0113253
-0.0113723
-0.0114156
-0.0114551
-0.0114908
-0.0115228
-0.0115511
-0.0115757
-0.0115967
-0.011614
-0.0116278
-0.011638
-0.0116448
-0.0116481
-0.0116481
-0.0116447
-0.0116381
-0.0116283
-0.0116154
-0.0115994
-0.0115804
-0.0115586
-0.0115339
-0.0115065
-0.0114764
-0.0114437
-0.0114085
-0.0113709
-0.0113309
-0.0112887
-0.0112443
-0.0111979
-0.0111494
-0.011099
-0.0110468
-0.0109929
-0.0109372
-0.01088
-0.0108214
-0.0107613
-0.0106998
-0.0106371
-0.0105733
-0.0105083
-0.0104424
-0.0103754
-0.0103077
-0.0102391
-0.0101698
-0.0100999
-0.0100294
-0.00995836
-0.00988689
-0.00981504
-0.00974286
-0.00967043
-0.0095978
-0.00952503
-0.00945217
-0.00937929
-0.00930643
-0.00923365
-0.009161
-0.00908852
-0.00901627
-0.00894429
-0.00887262
-0.00880131
-0.0087304
-0.00865992
-0.00858992
-0.00852044
-0.00845151
-0.00838316
-0.00831544
-0.00824836
-0.00818197
-0.00811628
-0.00805134
-0.00798717
-0.00792379
-0.00786123
-0.00779951
-0.00773867
-0.00767871
-0.00761966
-0.00756154
-0.00750438
-0.00744818
-0.00739298
-0.00733877
-0.00728559
-0.00723345
-0.00718235
-0.00713232
-0.00708338
-0.00703552
-0.00698877
-0.00694313
-0.00689862
-0.00685525
-0.00681302
-0.00677195
-0.00673205
-0.00669332
-0.00665577
-0.00661942
-0.00658426
-0.0065503
-0.00651755
-0.00648602
-0.00645571
-0.00642663
-0.00639878
-0.00637217
-0.0063468
-0.00632267
-0.0062998
-0.00627817
-0.00625781
-0.0062387
-0.00622085
-0.00620427
-0.00618895
-0.0061749
-0.00616213
-0.00615062
-0.00614039
-0.00613144
-0.00612376
-0.00611736
-0.00611224
-0.0061084
-0.00610584
-0.00610456
-5.3151e-05
-5.51652e-05
-5.91999e-05
-6.52529e-05
-7.33269e-05
-8.34256e-05
-9.55524e-05
-0.000109712
-0.000125908
-0.000144148
-0.000164436
-0.000186781
-0.000211188
-0.000237666
-0.000266224
-0.000296869
-0.000329611
-0.00036446
-0.000401426
-0.000440517
-0.000481746
-0.000525123
-0.000570657
-0.000618361
-0.000668244
-0.000720318
-0.000774593
-0.000831078
-0.000889785
-0.000950722
-0.0010139
-0.00107932
-0.00114701
-0.00121695
-0.00128917
-0.00136366
-0.00144042
-0.00151948
-0.00160081
-0.00168443
-0.00177034
-0.00185853
-0.00194899
-0.00204173
-0.00213673
-0.00223399
-0.00233348
-0.00243521
-0.00253915
-0.00264527
-0.00275357
-0.00286402
-0.00297658
-0.00309124
-0.00320794
-0.00332667
-0.00344738
-0.00357003
-0.00369456
-0.00382094
-0.00394911
-0.00407901
-0.00421059
-0.00434377
-0.0044785
-0.00461469
-0.00475229
-0.0048912
-0.00503136
-0.00517266
-0.00531503
-0.00545837
-0.00560258
-0.00574758
-0.00589324
-0.00603948
-0.00618618
-0.00633323
-0.00648052
-0.00662793
-0.00677534
-0.00692263
-0.00706968
-0.00721637
-0.00736257
-0.00750815
-0.00765298
-0.00779695
-0.00793991
-0.00808174
-0.00822231
-0.00836149
-0.00849916
-0.00863518
-0.00876944
-0.0089018
-0.00903215
-0.00916037
-0.00928633
-0.00940993
-0.00953105
-0.00964958
-0.00976542
-0.00987847
-0.00998863
-0.0100958
-0.0101999
-0.0103009
-0.0103986
-0.010493
-0.010584
-0.0106716
-0.0107557
-0.0108362
-0.0109132
-0.0109865
-0.0110561
-0.011122
-0.0111842
-0.0112426
-0.0112972
-0.0113481
-0.0113951
-0.0114384
-0.011478
-0.0115137
-0.0115457
-0.011574
-0.0115987
-0.0116196
-0.0116369
-0.0116507
-0.0116609
-0.0116676
-0.0116709
-0.0116707
-0.0116673
-0.0116606
-0.0116507
-0.0116377
-0.0116216
-0.0116026
-0.0115806
-0.0115558
-0.0115283
-0.011498
-0.0114652
-0.0114299
-0.0113921
-0.011352
-0.0113097
-0.0112652
-0.0112185
-0.0111699
-0.0111194
-0.011067
-0.0110129
-0.0109571
-0.0108997
-0.0108409
-0.0107806
-0.010719
-0.0106561
-0.0105921
-0.010527
-0.0104609
-0.0103938
-0.0103258
-0.0102571
-0.0101877
-0.0101176
-0.0100469
-0.0099757
-0.00990406
-0.00983205
-0.00975971
-0.00968712
-0.00961433
-0.0095414
-0.00946839
-0.00939536
-0.00932235
-0.00924942
-0.00917662
-0.009104
-0.00903161
-0.00895948
-0.00888767
-0.00881623
-0.00874518
-0.00867457
-0.00860444
-0.00853483
-0.00846578
-0.00839731
-0.00832946
-0.00826226
-0.00819575
-0.00812995
-0.0080649
-0.00800061
-0.00793712
-0.00787446
-0.00781264
-0.00775168
-0.00769163
-0.00763248
-0.00757427
-0.00751701
-0.00746072
-0.00740543
-0.00735114
-0.00729787
-0.00724564
-0.00719447
-0.00714436
-0.00709534
-0.00704741
-0.00700058
-0.00695488
-0.0069103
-0.00686686
-0.00682457
-0.00678344
-0.00674348
-0.00670469
-0.00666709
-0.00663067
-0.00659546
-0.00656146
-0.00652866
-0.00649709
-0.00646673
-0.00643761
-0.00640972
-0.00638307
-0.00635766
-0.0063335
-0.00631059
-0.00628894
-0.00626854
-0.0062494
-0.00623153
-0.00621492
-0.00619959
-0.00618552
-0.00617272
-0.0061612
-0.00615096
-0.00614199
-0.00613431
-0.0061279
-0.00612277
-0.00611893
-0.00611636
-0.00611508
-7.09012e-05
-7.29121e-05
-7.69399e-05
-8.29824e-05
-9.10424e-05
-0.000101123
-0.000113229
-0.000127363
-0.000143531
-0.000161738
-0.000181991
-0.000204296
-0.000228661
-0.000255094
-0.000283602
-0.000314195
-0.000346882
-0.000381673
-0.000418578
-0.000457606
-0.000498769
-0.000542077
-0.000587541
-0.000635172
-0.000684981
-0.000736978
-0.000791175
-0.000847581
-0.000906207
-0.000967062
-0.00103016
-0.0010955
-0.0011631
-0.00123296
-0.00130509
-0.0013795
-0.00145618
-0.00153515
-0.00161641
-0.00169995
-0.00178578
-0.0018739
-0.00196429
-0.00205696
-0.0021519
-0.00224909
-0.00234853
-0.0024502
-0.00255409
-0.00266017
-0.00276843
-0.00287884
-0.00299138
-0.00310601
-0.00322271
-0.00334143
-0.00346213
-0.00358479
-0.00370934
-0.00383574
-0.00396394
-0.00409388
-0.00422551
-0.00435875
-0.00449354
-0.00462982
-0.0047675
-0.00490651
-0.00504677
-0.00518819
-0.00533068
-0.00547416
-0.00561852
-0.00576367
-0.0059095
-0.00605591
-0.0062028
-0.00635004
-0.00649753
-0.00664515
-0.00679277
-0.00694029
-0.00708758
-0.00723451
-0.00738095
-0.00752679
-0.00767188
-0.00781611
-0.00795934
-0.00810144
-0.00824228
-0.00838174
-0.00851969
-0.00865599
-0.00879053
-0.00892318
-0.00905381
-0.0091823
-0.00930854
-0.00943241
-0.0095538
-0.0096726
-0.0097887
-0.00990201
-0.0100124
-0.0101198
-0.0102242
-0.0103254
-0.0104233
-0.0105179
-0.0106092
-0.0106969
-0.0107812
-0.0108619
-0.010939
-0.0110124
-0.0110822
-0.0111482
-0.0112105
-0.011269
-0.0113237
-0.0113747
-0.0114218
-0.0114652
-0.0115047
-0.0115405
-0.0115726
-0.0116009
-0.0116255
-0.0116464
-0.0116637
-0.0116774
-0.0116876
-0.0116943
-0.0116975
-0.0116973
-0.0116938
-0.011687
-0.011677
-0.0116639
-0.0116477
-0.0116285
-0.0116064
-0.0115815
-0.0115538
-0.0115234
-0.0114904
-0.0114549
-0.011417
-0.0113767
-0.0113342
-0.0112895
-0.0112427
-0.0111939
-0.0111431
-0.0110906
-0.0110363
-0.0109803
-0.0109227
-0.0108637
-0.0108032
-0.0107414
-0.0106784
-0.0106141
-0.0105488
-0.0104825
-0.0104152
-0.0103471
-0.0102781
-0.0102085
-0.0101382
-0.0100673
-0.00999595
-0.00992412
-0.00985191
-0.00977939
-0.00970661
-0.00963364
-0.00956053
-0.00948734
-0.00941413
-0.00934094
-0.00926784
-0.00919487
-0.00912207
-0.00904951
-0.00897722
-0.00890525
-0.00883364
-0.00876244
-0.00869167
-0.00862139
-0.00855163
-0.00848243
-0.00841381
-0.00834582
-0.00827848
-0.00821183
-0.0081459
-0.00808071
-0.0080163
-0.00795268
-0.00788989
-0.00782795
-0.00776688
-0.0077067
-0.00764744
-0.00758912
-0.00753175
-0.00747536
-0.00741996
-0.00736556
-0.0073122
-0.00725987
-0.00720861
-0.00715841
-0.00710929
-0.00706127
-0.00701437
-0.00696858
-0.00692392
-0.0068804
-0.00683804
-0.00679684
-0.0067568
-0.00671795
-0.00668028
-0.00664381
-0.00660853
-0.00657447
-0.00654162
-0.00650999
-0.00647959
-0.00645041
-0.00642248
-0.00639578
-0.00637033
-0.00634613
-0.00632318
-0.00630149
-0.00628106
-0.00626189
-0.00624399
-0.00622735
-0.00621199
-0.0061979
-0.00618508
-0.00617355
-0.00616328
-0.0061543
-0.0061466
-0.00614019
-0.00613505
-0.0061312
-0.00612863
-0.00612734
-9.11963e-05
-9.32033e-05
-9.72231e-05
-0.000103253
-0.000111297
-0.000121358
-0.000133439
-0.000147544
-0.000163679
-0.00018185
-0.000202062
-0.000224323
-0.000248639
-0.00027502
-0.000303473
-0.000334007
-0.000366631
-0.000401356
-0.000438191
-0.000477148
-0.000518236
-0.000561466
-0.00060685
-0.000654398
-0.000704122
-0.000756032
-0.00081014
-0.000866456
-0.00092499
-0.000985753
-0.00104875
-0.001114
-0.00118151
-0.00125127
-0.00132331
-0.00139762
-0.00147421
-0.00155309
-0.00163426
-0.00171771
-0.00180346
-0.00189149
-0.0019818
-0.00207439
-0.00216925
-0.00226637
-0.00236575
-0.00246736
-0.00257119
-0.00267723
-0.00278544
-0.00289582
-0.00300832
-0.00312293
-0.00323961
-0.00335832
-0.00347903
-0.00360169
-0.00372626
-0.00385269
-0.00398093
-0.00411092
-0.0042426
-0.00437591
-0.00451078
-0.00464715
-0.00478493
-0.00492405
-0.00506443
-0.00520599
-0.00534862
-0.00549226
-0.00563679
-0.00578211
-0.00592814
-0.00607475
-0.00622184
-0.00636931
-0.00651703
-0.00666489
-0.00681277
-0.00696054
-0.0071081
-0.0072553
-0.00740203
-0.00754816
-0.00769355
-0.00783808
-0.00798162
-0.00812403
-0.00826519
-0.00840497
-0.00854324
-0.00867987
-0.00881473
-0.00894769
-0.00907864
-0.00920746
-0.00933402
-0.0094582
-0.0095799
-0.00969901
-0.00981541
-0.00992901
-0.0100397
-0.0101474
-0.010252
-0.0103535
-0.0104516
-0.0105465
-0.010638
-0.010726
-0.0108105
-0.0108914
-0.0109686
-0.0110422
-0.0111121
-0.0111783
-0.0112407
-0.0112994
-0.0113542
-0.0114052
-0.0114524
-0.0114959
-0.0115355
-0.0115713
-0.0116034
-0.0116317
-0.0116563
-0.0116772
-0.0116945
-0.0117081
-0.0117182
-0.0117248
-0.011728
-0.0117277
-0.0117241
-0.0117172
-0.0117071
-0.0116938
-0.0116775
-0.0116582
-0.0116359
-0.0116108
-0.011583
-0.0115524
-0.0115193
-0.0114836
-0.0114455
-0.011405
-0.0113623
-0.0113173
-0.0112703
-0.0112213
-0.0111704
-0.0111176
-0.0110631
-0.0110069
-0.0109491
-0.0108898
-0.0108291
-0.0107671
-0.0107038
-0.0106393
-0.0105738
-0.0105072
-0.0104397
-0.0103714
-0.0103022
-0.0102323
-0.0101618
-0.0100907
-0.0100191
-0.00994708
-0.00987465
-0.00980192
-0.00972892
-0.00965574
-0.00958242
-0.00950902
-0.0094356
-0.00936221
-0.00928891
-0.00921574
-0.00914275
-0.00907
-0.00899752
-0.00892536
-0.00885357
-0.00878218
-0.00871124
-0.00864078
-0.00857085
-0.00850147
-0.00843269
-0.00836453
-0.00829703
-0.00823022
-0.00816414
-0.0080988
-0.00803423
-0.00797047
-0.00790753
-0.00784545
-0.00778424
-0.00772393
-0.00766454
-0.00760609
-0.0075486
-0.00749208
-0.00743656
-0.00738205
-0.00732857
-0.00727614
-0.00722476
-0.00717446
-0.00712524
-0.00707712
-0.00703012
-0.00698423
-0.00693948
-0.00689588
-0.00685343
-0.00681214
-0.00677203
-0.0067331
-0.00669536
-0.00665881
-0.00662347
-0.00658934
-0.00655642
-0.00652473
-0.00649427
-0.00646504
-0.00643705
-0.0064103
-0.0063848
-0.00636055
-0.00633756
-0.00631583
-0.00629536
-0.00627615
-0.00625822
-0.00624155
-0.00622616
-0.00621204
-0.0061992
-0.00618764
-0.00617736
-0.00616836
-0.00616065
-0.00615422
-0.00614907
-0.00614521
-0.00614264
-0.00614135
-0.000114039
-0.000116042
-0.000120052
-0.000126069
-0.000134094
-0.000144132
-0.000156185
-0.000170259
-0.000186357
-0.000204487
-0.000224653
-0.000246864
-0.000271127
-0.000297449
-0.000325839
-0.000356307
-0.000388862
-0.000423513
-0.000460271
-0.000499147
-0.000540151
-0.000583294
-0.000628589
-0.000676044
-0.000725673
-0.000777486
-0.000831495
-0.00088771
-0.000946142
-0.0010068
-0.0010697
-0.00113484
-0.00120224
-0.0012719
-0.00134383
-0.00141804
-0.00149453
-0.0015733
-0.00165437
-0.00173772
-0.00182337
-0.0019113
-0.00200153
-0.00209403
-0.00218881
-0.00228585
-0.00238515
-0.0024867
-0.00259047
-0.00269645
-0.00280462
-0.00291495
-0.00302742
-0.003142
-0.00325867
-0.00337737
-0.00349808
-0.00362075
-0.00374534
-0.00387181
-0.00400009
-0.00413013
-0.00426188
-0.00439526
-0.00453023
-0.00466669
-0.00480459
-0.00494384
-0.00508436
-0.00522606
-0.00536887
-0.00551268
-0.0056574
-0.00580293
-0.00594916
-0.006096
-0.00624334
-0.00639105
-0.00653904
-0.00668717
-0.00683533
-0.00698341
-0.00713127
-0.00727878
-0.00742584
-0.00757229
-0.00771802
-0.00786289
-0.00800678
-0.00814955
-0.00829107
-0.00843121
-0.00856984
-0.00870683
-0.00884205
-0.00897539
-0.0091067
-0.00923588
-0.0093628
-0.00948734
-0.00960939
-0.00972884
-0.00984558
-0.00995951
-0.0100705
-0.0101785
-0.0102835
-0.0103852
-0.0104837
-0.0105788
-0.0106705
-0.0107588
-0.0108435
-0.0109246
-0.0110021
-0.0110759
-0.011146
-0.0112123
-0.0112749
-0.0113336
-0.0113886
-0.0114397
-0.011487
-0.0115305
-0.0115702
-0.011606
-0.0116381
-0.0116665
-0.0116911
-0.011712
-0.0117292
-0.0117428
-0.0117528
-0.0117594
-0.0117624
-0.011762
-0.0117583
-0.0117513
-0.011741
-0.0117276
-0.0117112
-0.0116917
-0.0116692
-0.011644
-0.0116159
-0.0115852
-0.0115518
-0.0115159
-0.0114776
-0.0114369
-0.0113939
-0.0113488
-0.0113015
-0.0112523
-0.0112011
-0.0111481
-0.0110933
-0.0110368
-0.0109788
-0.0109193
-0.0108583
-0.010796
-0.0107325
-0.0106678
-0.010602
-0.0105351
-0.0104674
-0.0103988
-0.0103294
-0.0102592
-0.0101885
-0.0101171
-0.0100452
-0.00997295
-0.00990028
-0.00982729
-0.00975406
-0.00968063
-0.00960707