/*--------------------------------*- C++ -*----------------------------------*\
| =========                 |                                                 |
| \\      /  F ield         | OpenFOAM: The Open Source CFD Toolbox           |
|  \\    /   O peration     | Version:  v2012                                 |
|   \\  /    A nd           | Website:  www.openfoam.com                      |
|    \\/     M anipulation  |                                                 |
\*---------------------------------------------------------------------------*/
FoamFile
{
    version     2.0;
    format      ascii;
    class       volVectorField;
    location    "9.5";
    object      Psi;
}
// * * * * * * * * * * * * * * * * * * * * * * * * * * * * * * * * * * * * * //

dimensions      [0 2 -1 0 0 0 0];


internalField   nonuniform List<vector> 
65536
(
(0 0 9.26871e-06)
(0 0 2.78063e-05)
(0 0 4.63443e-05)
(0 0 6.48832e-05)
(0 0 8.34232e-05)
(0 0 0.000101965)
(0 0 0.000120508)
(0 0 0.000139053)
(0 0 0.0001576)
(0 0 0.00017615)
(0 0 0.000194702)
(0 0 0.000213256)
(0 0 0.000231814)
(0 0 0.000250374)
(0 0 0.000268937)
(0 0 0.000287503)
(0 0 0.000306071)
(0 0 0.000324642)
(0 0 0.000343214)
(0 0 0.000361789)
(0 0 0.000380365)
(0 0 0.000398941)
(0 0 0.000417518)
(0 0 0.000436095)
(0 0 0.00045467)
(0 0 0.000473244)
(0 0 0.000491814)
(0 0 0.000510381)
(0 0 0.000528943)
(0 0 0.000547498)
(0 0 0.000566045)
(0 0 0.000584584)
(0 0 0.000603111)
(0 0 0.000621626)
(0 0 0.000640127)
(0 0 0.000658611)
(0 0 0.000677077)
(0 0 0.000695522)
(0 0 0.000713943)
(0 0 0.000732339)
(0 0 0.000750707)
(0 0 0.000769043)
(0 0 0.000787345)
(0 0 0.000805609)
(0 0 0.000823833)
(0 0 0.000842013)
(0 0 0.000860145)
(0 0 0.000878225)
(0 0 0.00089625)
(0 0 0.000914216)
(0 0 0.000932117)
(0 0 0.000949951)
(0 0 0.000967712)
(0 0 0.000985396)
(0 0 0.001003)
(0 0 0.00102051)
(0 0 0.00103793)
(0 0 0.00105526)
(0 0 0.00107248)
(0 0 0.00108959)
(0 0 0.00110659)
(0 0 0.00112347)
(0 0 0.00114022)
(0 0 0.00115684)
(0 0 0.00117332)
(0 0 0.00118966)
(0 0 0.00120584)
(0 0 0.00122187)
(0 0 0.00123773)
(0 0 0.00125343)
(0 0 0.00126894)
(0 0 0.00128427)
(0 0 0.00129941)
(0 0 0.00131435)
(0 0 0.00132908)
(0 0 0.0013436)
(0 0 0.00135791)
(0 0 0.00137198)
(0 0 0.00138583)
(0 0 0.00139943)
(0 0 0.00141279)
(0 0 0.00142589)
(0 0 0.00143873)
(0 0 0.0014513)
(0 0 0.0014636)
(0 0 0.00147562)
(0 0 0.00148735)
(0 0 0.00149879)
(0 0 0.00150993)
(0 0 0.00152076)
(0 0 0.00153128)
(0 0 0.00154148)
(0 0 0.00155136)
(0 0 0.00156091)
(0 0 0.00157013)
(0 0 0.001579)
(0 0 0.00158754)
(0 0 0.00159572)
(0 0 0.00160356)
(0 0 0.00161103)
(0 0 0.00161815)
(0 0 0.0016249)
(0 0 0.00163129)
(0 0 0.0016373)
(0 0 0.00164295)
(0 0 0.00164821)
(0 0 0.0016531)
(0 0 0.00165761)
(0 0 0.00166174)
(0 0 0.00166549)
(0 0 0.00166885)
(0 0 0.00167184)
(0 0 0.00167443)
(0 0 0.00167664)
(0 0 0.00167847)
(0 0 0.00167992)
(0 0 0.00168098)
(0 0 0.00168166)
(0 0 0.00168196)
(0 0 0.00168189)
(0 0 0.00168143)
(0 0 0.00168061)
(0 0 0.00167941)
(0 0 0.00167784)
(0 0 0.0016759)
(0 0 0.0016736)
(0 0 0.00167095)
(0 0 0.00166793)
(0 0 0.00166457)
(0 0 0.00166086)
(0 0 0.0016568)
(0 0 0.00165241)
(0 0 0.00164768)
(0 0 0.00164262)
(0 0 0.00163723)
(0 0 0.00163153)
(0 0 0.00162551)
(0 0 0.00161919)
(0 0 0.00161256)
(0 0 0.00160563)
(0 0 0.00159841)
(0 0 0.0015909)
(0 0 0.00158311)
(0 0 0.00157505)
(0 0 0.00156672)
(0 0 0.00155813)
(0 0 0.00154928)
(0 0 0.00154018)
(0 0 0.00153083)
(0 0 0.00152124)
(0 0 0.00151143)
(0 0 0.00150138)
(0 0 0.00149112)
(0 0 0.00148064)
(0 0 0.00146995)
(0 0 0.00145907)
(0 0 0.00144798)
(0 0 0.0014367)
(0 0 0.00142524)
(0 0 0.00141361)
(0 0 0.00140179)
(0 0 0.00138981)
(0 0 0.00137767)
(0 0 0.00136537)
(0 0 0.00135293)
(0 0 0.00134033)
(0 0 0.0013276)
(0 0 0.00131473)
(0 0 0.00130173)
(0 0 0.0012886)
(0 0 0.00127536)
(0 0 0.001262)
(0 0 0.00124852)
(0 0 0.00123495)
(0 0 0.00122127)
(0 0 0.00120749)
(0 0 0.00119362)
(0 0 0.00117966)
(0 0 0.00116562)
(0 0 0.0011515)
(0 0 0.0011373)
(0 0 0.00112302)
(0 0 0.00110868)
(0 0 0.00109427)
(0 0 0.0010798)
(0 0 0.00106527)
(0 0 0.00105068)
(0 0 0.00103604)
(0 0 0.00102135)
(0 0 0.00100662)
(0 0 0.000991836)
(0 0 0.000977014)
(0 0 0.000962153)
(0 0 0.000947255)
(0 0 0.000932324)
(0 0 0.000917361)
(0 0 0.00090237)
(0 0 0.00088735)
(0 0 0.000872306)
(0 0 0.000857239)
(0 0 0.000842151)
(0 0 0.000827043)
(0 0 0.000811918)
(0 0 0.000796777)
(0 0 0.000781621)
(0 0 0.000766453)
(0 0 0.000751273)
(0 0 0.000736083)
(0 0 0.000720884)
(0 0 0.000705677)
(0 0 0.000690464)
(0 0 0.000675245)
(0 0 0.000660022)
(0 0 0.000644796)
(0 0 0.000629567)
(0 0 0.000614336)
(0 0 0.000599104)
(0 0 0.000583872)
(0 0 0.00056864)
(0 0 0.00055341)
(0 0 0.00053818)
(0 0 0.000522953)
(0 0 0.000507728)
(0 0 0.000492506)
(0 0 0.000477288)
(0 0 0.000462073)
(0 0 0.000446862)
(0 0 0.000431655)
(0 0 0.000416452)
(0 0 0.000401254)
(0 0 0.00038606)
(0 0 0.000370871)
(0 0 0.000355687)
(0 0 0.000340508)
(0 0 0.000325334)
(0 0 0.000310164)
(0 0 0.000294999)
(0 0 0.000279839)
(0 0 0.000264683)
(0 0 0.000249532)
(0 0 0.000234385)
(0 0 0.000219243)
(0 0 0.000204104)
(0 0 0.000188969)
(0 0 0.000173838)
(0 0 0.00015871)
(0 0 0.000143585)
(0 0 0.000128463)
(0 0 0.000113344)
(0 0 9.82265e-05)
(0 0 8.31114e-05)
(0 0 6.79979e-05)
(0 0 5.28858e-05)
(0 0 3.77748e-05)
(0 0 2.26645e-05)
(0 0 7.5548e-06)
(0 0 2.7806e-05)
(0 0 8.34185e-05)
(0 0 0.000139032)
(0 0 0.000194649)
(0 0 0.000250268)
(0 0 0.000305892)
(0 0 0.000361521)
(0 0 0.000417156)
(0 0 0.000472798)
(0 0 0.000528447)
(0 0 0.000584103)
(0 0 0.000639767)
(0 0 0.00069544)
(0 0 0.00075112)
(0 0 0.000806809)
(0 0 0.000862507)
(0 0 0.000918211)
(0 0 0.000973923)
(0 0 0.00102964)
(0 0 0.00108537)
(0 0 0.00114109)
(0 0 0.00119682)
(0 0 0.00125255)
(0 0 0.00130829)
(0 0 0.00136401)
(0 0 0.00141973)
(0 0 0.00147545)
(0 0 0.00153115)
(0 0 0.00158683)
(0 0 0.0016425)
(0 0 0.00169815)
(0 0 0.00175376)
(0 0 0.00180935)
(0 0 0.00186489)
(0 0 0.0019204)
(0 0 0.00197585)
(0 0 0.00203125)
(0 0 0.00208659)
(0 0 0.00214186)
(0 0 0.00219705)
(0 0 0.00225215)
(0 0 0.00230716)
(0 0 0.00236207)
(0 0 0.00241687)
(0 0 0.00247154)
(0 0 0.00252609)
(0 0 0.00258049)
(0 0 0.00263473)
(0 0 0.00268881)
(0 0 0.00274271)
(0 0 0.00279642)
(0 0 0.00284993)
(0 0 0.00290321)
(0 0 0.00295627)
(0 0 0.00300908)
(0 0 0.00306163)
(0 0 0.0031139)
(0 0 0.00316588)
(0 0 0.00321755)
(0 0 0.00326889)
(0 0 0.00331989)
(0 0 0.00337053)
(0 0 0.00342079)
(0 0 0.00347066)
(0 0 0.00352011)
(0 0 0.00356912)
(0 0 0.00361769)
(0 0 0.00366578)
(0 0 0.00371337)
(0 0 0.00376045)
(0 0 0.003807)
(0 0 0.003853)
(0 0 0.00389842)
(0 0 0.00394325)
(0 0 0.00398746)
(0 0 0.00403103)
(0 0 0.00407395)
(0 0 0.00411618)
(0 0 0.00415772)
(0 0 0.00419854)
(0 0 0.00423861)
(0 0 0.00427793)
(0 0 0.00431646)
(0 0 0.00435418)
(0 0 0.00439109)
(0 0 0.00442715)
(0 0 0.00446235)
(0 0 0.00449667)
(0 0 0.00453009)
(0 0 0.00456259)
(0 0 0.00459415)
(0 0 0.00462477)
(0 0 0.00465441)
(0 0 0.00468306)
(0 0 0.00471072)
(0 0 0.00473735)
(0 0 0.00476296)
(0 0 0.00478752)
(0 0 0.00481102)
(0 0 0.00483346)
(0 0 0.00485481)
(0 0 0.00487507)
(0 0 0.00489423)
(0 0 0.00491228)
(0 0 0.00492921)
(0 0 0.00494501)
(0 0 0.00495969)
(0 0 0.00497322)
(0 0 0.00498561)
(0 0 0.00499685)
(0 0 0.00500695)
(0 0 0.00501589)
(0 0 0.00502368)
(0 0 0.00503032)
(0 0 0.0050358)
(0 0 0.00504014)
(0 0 0.00504332)
(0 0 0.00504537)
(0 0 0.00504627)
(0 0 0.00504604)
(0 0 0.00504467)
(0 0 0.00504219)
(0 0 0.00503859)
(0 0 0.00503388)
(0 0 0.00502807)
(0 0 0.00502117)
(0 0 0.0050132)
(0 0 0.00500416)
(0 0 0.00499406)
(0 0 0.00498292)
(0 0 0.00497074)
(0 0 0.00495755)
(0 0 0.00494336)
(0 0 0.00492818)
(0 0 0.00491202)
(0 0 0.00489491)
(0 0 0.00487685)
(0 0 0.00485786)
(0 0 0.00483797)
(0 0 0.00481718)
(0 0 0.00479551)
(0 0 0.00477299)
(0 0 0.00474962)
(0 0 0.00472543)
(0 0 0.00470043)
(0 0 0.00467464)
(0 0 0.00464808)
(0 0 0.00462077)
(0 0 0.00459273)
(0 0 0.00456397)
(0 0 0.00453451)
(0 0 0.00450437)
(0 0 0.00447357)
(0 0 0.00444213)
(0 0 0.00441007)
(0 0 0.00437739)
(0 0 0.00434413)
(0 0 0.0043103)
(0 0 0.00427591)
(0 0 0.00424099)
(0 0 0.00420555)
(0 0 0.0041696)
(0 0 0.00413317)
(0 0 0.00409627)
(0 0 0.00405892)
(0 0 0.00402113)
(0 0 0.00398292)
(0 0 0.00394431)
(0 0 0.0039053)
(0 0 0.00386592)
(0 0 0.00382618)
(0 0 0.0037861)
(0 0 0.00374568)
(0 0 0.00370494)
(0 0 0.0036639)
(0 0 0.00362257)
(0 0 0.00358096)
(0 0 0.00353908)
(0 0 0.00349695)
(0 0 0.00345457)
(0 0 0.00341197)
(0 0 0.00336914)
(0 0 0.00332611)
(0 0 0.00328288)
(0 0 0.00323946)
(0 0 0.00319587)
(0 0 0.0031521)
(0 0 0.00310818)
(0 0 0.00306411)
(0 0 0.00301989)
(0 0 0.00297555)
(0 0 0.00293108)
(0 0 0.00288649)
(0 0 0.0028418)
(0 0 0.002797)
(0 0 0.00275211)
(0 0 0.00270714)
(0 0 0.00266208)
(0 0 0.00261694)
(0 0 0.00257174)
(0 0 0.00252647)
(0 0 0.00248115)
(0 0 0.00243577)
(0 0 0.00239034)
(0 0 0.00234488)
(0 0 0.00229937)
(0 0 0.00225383)
(0 0 0.00220826)
(0 0 0.00216266)
(0 0 0.00211704)
(0 0 0.0020714)
(0 0 0.00202574)
(0 0 0.00198007)
(0 0 0.00193439)
(0 0 0.0018887)
(0 0 0.00184301)
(0 0 0.00179731)
(0 0 0.00175162)
(0 0 0.00170592)
(0 0 0.00166023)
(0 0 0.00161454)
(0 0 0.00156886)
(0 0 0.00152318)
(0 0 0.00147752)
(0 0 0.00143186)
(0 0 0.00138621)
(0 0 0.00134058)
(0 0 0.00129496)
(0 0 0.00124935)
(0 0 0.00120376)
(0 0 0.00115818)
(0 0 0.00111261)
(0 0 0.00106706)
(0 0 0.00102152)
(0 0 0.000975996)
(0 0 0.000930487)
(0 0 0.000884993)
(0 0 0.000839512)
(0 0 0.000794046)
(0 0 0.000748592)
(0 0 0.000703152)
(0 0 0.000657725)
(0 0 0.000612309)
(0 0 0.000566905)
(0 0 0.000521511)
(0 0 0.000476127)
(0 0 0.000430753)
(0 0 0.000385387)
(0 0 0.000340029)
(0 0 0.000294678)
(0 0 0.000249332)
(0 0 0.000203992)
(0 0 0.000158656)
(0 0 0.000113324)
(0 0 6.79932e-05)
(0 0 2.26642e-05)
(0 0 4.63429e-05)
(0 0 0.000139029)
(0 0 0.000231718)
(0 0 0.000324411)
(0 0 0.00041711)
(0 0 0.000509815)
(0 0 0.00060253)
(0 0 0.000695254)
(0 0 0.000787989)
(0 0 0.000880736)
(0 0 0.000973496)
(0 0 0.00106627)
(0 0 0.00115906)
(0 0 0.00125186)
(0 0 0.00134467)
(0 0 0.0014375)
(0 0 0.00153035)
(0 0 0.0016232)
(0 0 0.00171606)
(0 0 0.00180894)
(0 0 0.00190182)
(0 0 0.00199471)
(0 0 0.00208759)
(0 0 0.00218048)
(0 0 0.00227336)
(0 0 0.00236623)
(0 0 0.00245909)
(0 0 0.00255193)
(0 0 0.00264475)
(0 0 0.00273753)
(0 0 0.00283027)
(0 0 0.00292297)
(0 0 0.00301562)
(0 0 0.00310821)
(0 0 0.00320072)
(0 0 0.00329315)
(0 0 0.00338549)
(0 0 0.00347773)
(0 0 0.00356985)
(0 0 0.00366184)
(0 0 0.00375369)
(0 0 0.00384539)
(0 0 0.00393691)
(0 0 0.00402825)
(0 0 0.00411939)
(0 0 0.00421031)
(0 0 0.00430098)
(0 0 0.00439141)
(0 0 0.00448155)
(0 0 0.0045714)
(0 0 0.00466093)
(0 0 0.00475012)
(0 0 0.00483895)
(0 0 0.00492739)
(0 0 0.00501543)
(0 0 0.00510302)
(0 0 0.00519016)
(0 0 0.00527681)
(0 0 0.00536294)
(0 0 0.00544854)
(0 0 0.00553356)
(0 0 0.00561798)
(0 0 0.00570177)
(0 0 0.0057849)
(0 0 0.00586733)
(0 0 0.00594905)
(0 0 0.00603001)
(0 0 0.00611018)
(0 0 0.00618952)
(0 0 0.00626802)
(0 0 0.00634562)
(0 0 0.00642231)
(0 0 0.00649803)
(0 0 0.00657277)
(0 0 0.00664647)
(0 0 0.00671912)
(0 0 0.00679067)
(0 0 0.00686109)
(0 0 0.00693034)
(0 0 0.00699839)
(0 0 0.00706521)
(0 0 0.00713075)
(0 0 0.00719499)
(0 0 0.00725789)
(0 0 0.00731942)
(0 0 0.00737954)
(0 0 0.00743823)
(0 0 0.00749545)
(0 0 0.00755117)
(0 0 0.00760536)
(0 0 0.00765798)
(0 0 0.00770902)
(0 0 0.00775844)
(0 0 0.00780622)
(0 0 0.00785233)
(0 0 0.00789674)
(0 0 0.00793943)
(0 0 0.00798038)
(0 0 0.00801957)
(0 0 0.00805697)
(0 0 0.00809257)
(0 0 0.00812635)
(0 0 0.00815829)
(0 0 0.00818838)
(0 0 0.00821661)
(0 0 0.00824295)
(0 0 0.00826741)
(0 0 0.00828997)
(0 0 0.00831062)
(0 0 0.00832937)
(0 0 0.00834619)
(0 0 0.0083611)
(0 0 0.00837408)
(0 0 0.00838514)
(0 0 0.00839429)
(0 0 0.00840151)
(0 0 0.00840682)
(0 0 0.00841022)
(0 0 0.00841171)
(0 0 0.00841132)
(0 0 0.00840904)
(0 0 0.00840489)
(0 0 0.00839888)
(0 0 0.00839102)
(0 0 0.00838133)
(0 0 0.00836982)
(0 0 0.00835652)
(0 0 0.00834144)
(0 0 0.00832459)
(0 0 0.00830601)
(0 0 0.00828571)
(0 0 0.00826371)
(0 0 0.00824004)
(0 0 0.00821472)
(0 0 0.00818777)
(0 0 0.00815923)
(0 0 0.00812912)
(0 0 0.00809746)
(0 0 0.00806428)
(0 0 0.00802961)
(0 0 0.00799348)
(0 0 0.00795592)
(0 0 0.00791695)
(0 0 0.00787661)
(0 0 0.00783492)
(0 0 0.00779192)
(0 0 0.00774764)
(0 0 0.0077021)
(0 0 0.00765534)
(0 0 0.00760739)
(0 0 0.00755827)
(0 0 0.00750802)
(0 0 0.00745667)
(0 0 0.00740425)
(0 0 0.00735079)
(0 0 0.00729631)
(0 0 0.00724086)
(0 0 0.00718445)
(0 0 0.00712712)
(0 0 0.0070689)
(0 0 0.00700981)
(0 0 0.00694988)
(0 0 0.00688914)
(0 0 0.00682763)
(0 0 0.00676536)
(0 0 0.00670236)
(0 0 0.00663866)
(0 0 0.00657428)
(0 0 0.00650926)
(0 0 0.00644361)
(0 0 0.00637736)
(0 0 0.00631053)
(0 0 0.00624316)
(0 0 0.00617525)
(0 0 0.00610683)
(0 0 0.00603793)
(0 0 0.00596856)
(0 0 0.00589875)
(0 0 0.00582852)
(0 0 0.00575788)
(0 0 0.00568686)
(0 0 0.00561547)
(0 0 0.00554374)
(0 0 0.00547168)
(0 0 0.0053993)
(0 0 0.00532663)
(0 0 0.00525368)
(0 0 0.00518047)
(0 0 0.005107)
(0 0 0.00503331)
(0 0 0.00495939)
(0 0 0.00488527)
(0 0 0.00481095)
(0 0 0.00473645)
(0 0 0.00466178)
(0 0 0.00458696)
(0 0 0.00451199)
(0 0 0.00443688)
(0 0 0.00436165)
(0 0 0.0042863)
(0 0 0.00421085)
(0 0 0.00413531)
(0 0 0.00405967)
(0 0 0.00398396)
(0 0 0.00390817)
(0 0 0.00383232)
(0 0 0.00375642)
(0 0 0.00368046)
(0 0 0.00360446)
(0 0 0.00352842)
(0 0 0.00345235)
(0 0 0.00337625)
(0 0 0.00330013)
(0 0 0.003224)
(0 0 0.00314785)
(0 0 0.00307169)
(0 0 0.00299553)
(0 0 0.00291936)
(0 0 0.0028432)
(0 0 0.00276704)
(0 0 0.00269089)
(0 0 0.00261475)
(0 0 0.00253863)
(0 0 0.00246252)
(0 0 0.00238642)
(0 0 0.00231035)
(0 0 0.00223429)
(0 0 0.00215825)
(0 0 0.00208224)
(0 0 0.00200625)
(0 0 0.00193028)
(0 0 0.00185433)
(0 0 0.00177841)
(0 0 0.00170252)
(0 0 0.00162664)
(0 0 0.0015508)
(0 0 0.00147497)
(0 0 0.00139917)
(0 0 0.0013234)
(0 0 0.00124764)
(0 0 0.00117191)
(0 0 0.0010962)
(0 0 0.0010205)
(0 0 0.00094483)
(0 0 0.000869174)
(0 0 0.000793536)
(0 0 0.000717913)
(0 0 0.000642304)
(0 0 0.000566708)
(0 0 0.000491123)
(0 0 0.000415549)
(0 0 0.000339983)
(0 0 0.000264424)
(0 0 0.00018887)
(0 0 0.00011332)
(0 0 3.77732e-05)
(0 0 6.48789e-05)
(0 0 0.000194638)
(0 0 0.0003244)
(0 0 0.000454168)
(0 0 0.000583944)
(0 0 0.00071373)
(0 0 0.000843529)
(0 0 0.000973341)
(0 0 0.00110317)
(0 0 0.00123301)
(0 0 0.00136288)
(0 0 0.00149276)
(0 0 0.00162266)
(0 0 0.00175258)
(0 0 0.00188253)
(0 0 0.00201249)
(0 0 0.00214247)
(0 0 0.00227247)
(0 0 0.00240248)
(0 0 0.00253251)
(0 0 0.00266254)
(0 0 0.00279259)
(0 0 0.00292264)
(0 0 0.00305268)
(0 0 0.00318272)
(0 0 0.00331275)
(0 0 0.00344276)
(0 0 0.00357274)
(0 0 0.00370269)
(0 0 0.0038326)
(0 0 0.00396245)
(0 0 0.00409224)
(0 0 0.00422196)
(0 0 0.00435159)
(0 0 0.00448112)
(0 0 0.00461054)
(0 0 0.00473983)
(0 0 0.00486898)
(0 0 0.00499797)
(0 0 0.00512678)
(0 0 0.00525539)
(0 0 0.00538379)
(0 0 0.00551194)
(0 0 0.00563984)
(0 0 0.00576746)
(0 0 0.00589476)
(0 0 0.00602174)
(0 0 0.00614836)
(0 0 0.00627459)
(0 0 0.00640041)
(0 0 0.00652578)
(0 0 0.00665068)
(0 0 0.00677508)
(0 0 0.00689893)
(0 0 0.00702221)
(0 0 0.00714488)
(0 0 0.00726691)
(0 0 0.00738826)
(0 0 0.00750889)
(0 0 0.00762875)
(0 0 0.00774782)
(0 0 0.00786605)
(0 0 0.0079834)
(0 0 0.00809983)
(0 0 0.00821528)
(0 0 0.00832973)
(0 0 0.00844312)
(0 0 0.0085554)
(0 0 0.00866654)
(0 0 0.00877648)
(0 0 0.00888517)
(0 0 0.00899258)
(0 0 0.00909864)
(0 0 0.00920332)
(0 0 0.00930656)
(0 0 0.00940831)
(0 0 0.00950853)
(0 0 0.00960716)
(0 0 0.00970416)
(0 0 0.00979948)
(0 0 0.00989307)
(0 0 0.00998488)
(0 0 0.0100749)
(0 0 0.010163)
(0 0 0.0102492)
(0 0 0.0103334)
(0 0 0.0104156)
(0 0 0.0104957)
(0 0 0.0105738)
(0 0 0.0106497)
(0 0 0.0107234)
(0 0 0.0107949)
(0 0 0.0108641)
(0 0 0.0109311)
(0 0 0.0109956)
(0 0 0.0110578)
(0 0 0.0111176)
(0 0 0.011175)
(0 0 0.0112299)
(0 0 0.0112823)
(0 0 0.0113322)
(0 0 0.0113795)
(0 0 0.0114242)
(0 0 0.0114664)
(0 0 0.0115059)
(0 0 0.0115428)
(0 0 0.011577)
(0 0 0.0116086)
(0 0 0.0116376)
(0 0 0.0116638)
(0 0 0.0116874)
(0 0 0.0117082)
(0 0 0.0117264)
(0 0 0.0117419)
(0 0 0.0117547)
(0 0 0.0117648)
(0 0 0.0117722)
(0 0 0.011777)
(0 0 0.0117791)
(0 0 0.0117785)
(0 0 0.0117753)
(0 0 0.0117695)
(0 0 0.011761)
(0 0 0.01175)
(0 0 0.0117364)
(0 0 0.0117203)
(0 0 0.0117016)
(0 0 0.0116805)
(0 0 0.0116569)
(0 0 0.0116308)
(0 0 0.0116024)
(0 0 0.0115715)
(0 0 0.0115384)
(0 0 0.0115029)
(0 0 0.0114651)
(0 0 0.0114251)
(0 0 0.0113829)
(0 0 0.0113386)
(0 0 0.0112921)
(0 0 0.0112435)
(0 0 0.0111929)
(0 0 0.0111403)
(0 0 0.0110857)
(0 0 0.0110291)
(0 0 0.0109707)
(0 0 0.0109105)
(0 0 0.0108485)
(0 0 0.0107847)
(0 0 0.0107192)
(0 0 0.010652)
(0 0 0.0105832)
(0 0 0.0105128)
(0 0 0.0104409)
(0 0 0.0103674)
(0 0 0.0102925)
(0 0 0.0102162)
(0 0 0.0101385)
(0 0 0.0100595)
(0 0 0.00997923)
(0 0 0.00989767)
(0 0 0.00981491)
(0 0 0.00973097)
(0 0 0.0096459)
(0 0 0.00955974)
(0 0 0.00947253)
(0 0 0.00938429)
(0 0 0.00929508)
(0 0 0.00920492)
(0 0 0.00911385)
(0 0 0.0090219)
(0 0 0.00892912)
(0 0 0.00883553)
(0 0 0.00874117)
(0 0 0.00864606)
(0 0 0.00855025)
(0 0 0.00845376)
(0 0 0.00835661)
(0 0 0.00825885)
(0 0 0.0081605)
(0 0 0.00806158)
(0 0 0.00796212)
(0 0 0.00786216)
(0 0 0.00776171)
(0 0 0.00766079)
(0 0 0.00755945)
(0 0 0.00745768)
(0 0 0.00735553)
(0 0 0.00725301)
(0 0 0.00715014)
(0 0 0.00704695)
(0 0 0.00694344)
(0 0 0.00683965)
(0 0 0.00673559)
(0 0 0.00663127)
(0 0 0.00652672)
(0 0 0.00642195)
(0 0 0.00631698)
(0 0 0.00621181)
(0 0 0.00610648)
(0 0 0.00600098)
(0 0 0.00589534)
(0 0 0.00578956)
(0 0 0.00568366)
(0 0 0.00557765)
(0 0 0.00547154)
(0 0 0.00536534)
(0 0 0.00525906)
(0 0 0.00515271)
(0 0 0.0050463)
(0 0 0.00493984)
(0 0 0.00483333)
(0 0 0.00472679)
(0 0 0.00462021)
(0 0 0.00451362)
(0 0 0.004407)
(0 0 0.00430037)
(0 0 0.00419374)
(0 0 0.00408711)
(0 0 0.00398048)
(0 0 0.00387385)
(0 0 0.00376724)
(0 0 0.00366064)
(0 0 0.00355406)
(0 0 0.00344751)
(0 0 0.00334097)
(0 0 0.00323446)
(0 0 0.00312798)
(0 0 0.00302153)
(0 0 0.00291511)
(0 0 0.00280872)
(0 0 0.00270236)
(0 0 0.00259604)
(0 0 0.00248975)
(0 0 0.00238349)
(0 0 0.00227727)
(0 0 0.00217108)
(0 0 0.00206493)
(0 0 0.00195881)
(0 0 0.00185272)
(0 0 0.00174667)
(0 0 0.00164064)
(0 0 0.00153465)
(0 0 0.00142868)
(0 0 0.00132274)
(0 0 0.00121682)
(0 0 0.00111093)
(0 0 0.00100506)
(0 0 0.000899208)
(0 0 0.000793376)
(0 0 0.000687559)
(0 0 0.000581757)
(0 0 0.000475966)
(0 0 0.000370186)
(0 0 0.000264413)
(0 0 0.000158646)
(0 0 5.28815e-05)
(0 0 8.34138e-05)
(0 0 0.000250243)
(0 0 0.000417076)
(0 0 0.000583917)
(0 0 0.000750769)
(0 0 0.000917634)
(0 0 0.00108451)
(0 0 0.00125141)
(0 0 0.00141833)
(0 0 0.00158527)
(0 0 0.00175224)
(0 0 0.00191923)
(0 0 0.00208625)
(0 0 0.00225329)
(0 0 0.00242036)
(0 0 0.00258745)
(0 0 0.00275457)
(0 0 0.00292172)
(0 0 0.00308888)
(0 0 0.00325606)
(0 0 0.00342326)
(0 0 0.00359047)
(0 0 0.00375768)
(0 0 0.00392489)
(0 0 0.0040921)
(0 0 0.00425929)
(0 0 0.00442645)
(0 0 0.00459359)
(0 0 0.00476068)
(0 0 0.00492772)
(0 0 0.00509469)
(0 0 0.00526159)
(0 0 0.00542839)
(0 0 0.00559508)
(0 0 0.00576164)
(0 0 0.00592807)
(0 0 0.00609432)
(0 0 0.0062604)
(0 0 0.00642627)
(0 0 0.00659192)
(0 0 0.00675731)
(0 0 0.00692242)
(0 0 0.00708724)
(0 0 0.00725172)
(0 0 0.00741583)
(0 0 0.00757956)
(0 0 0.00774286)
(0 0 0.0079057)
(0 0 0.00806805)
(0 0 0.00822987)
(0 0 0.00839111)
(0 0 0.00855175)
(0 0 0.00871174)
(0 0 0.00887104)
(0 0 0.00902961)
(0 0 0.00918739)
(0 0 0.00934435)
(0 0 0.00950043)
(0 0 0.00965559)
(0 0 0.00980978)
(0 0 0.00996294)
(0 0 0.010115)
(0 0 0.010266)
(0 0 0.0104157)
(0 0 0.0105643)
(0 0 0.0107115)
(0 0 0.0108573)
(0 0 0.0110018)
(0 0 0.0111448)
(0 0 0.0112862)
(0 0 0.011426)
(0 0 0.0115642)
(0 0 0.0117006)
(0 0 0.0118353)
(0 0 0.0119681)
(0 0 0.012099)
(0 0 0.012228)
(0 0 0.0123549)
(0 0 0.0124797)
(0 0 0.0126023)
(0 0 0.0127227)
(0 0 0.0128408)
(0 0 0.0129566)
(0 0 0.01307)
(0 0 0.0131809)
(0 0 0.0132892)
(0 0 0.013395)
(0 0 0.0134981)
(0 0 0.0135986)
(0 0 0.0136962)
(0 0 0.0137911)
(0 0 0.0138831)
(0 0 0.0139721)
(0 0 0.0140582)
(0 0 0.0141413)
(0 0 0.0142214)
(0 0 0.0142983)
(0 0 0.0143721)
(0 0 0.0144427)
(0 0 0.0145101)
(0 0 0.0145743)
(0 0 0.0146352)
(0 0 0.0146927)
(0 0 0.0147469)
(0 0 0.0147978)
(0 0 0.0148453)
(0 0 0.0148893)
(0 0 0.01493)
(0 0 0.0149672)
(0 0 0.0150009)
(0 0 0.0150312)
(0 0 0.0150581)
(0 0 0.0150814)
(0 0 0.0151014)
(0 0 0.0151178)
(0 0 0.0151308)
(0 0 0.0151403)
(0 0 0.0151464)
(0 0 0.0151491)
(0 0 0.0151483)
(0 0 0.0151442)
(0 0 0.0151366)
(0 0 0.0151258)
(0 0 0.0151116)
(0 0 0.015094)
(0 0 0.0150733)
(0 0 0.0150492)
(0 0 0.015022)
(0 0 0.0149916)
(0 0 0.0149581)
(0 0 0.0149214)
(0 0 0.0148817)
(0 0 0.014839)
(0 0 0.0147933)
(0 0 0.0147447)
(0 0 0.0146932)
(0 0 0.0146389)
(0 0 0.0145818)
(0 0 0.014522)
(0 0 0.0144595)
(0 0 0.0143943)
(0 0 0.0143266)
(0 0 0.0142563)
(0 0 0.0141836)
(0 0 0.0141084)
(0 0 0.0140309)
(0 0 0.013951)
(0 0 0.0138689)
(0 0 0.0137847)
(0 0 0.0136982)
(0 0 0.0136097)
(0 0 0.0135191)
(0 0 0.0134265)
(0 0 0.0133321)
(0 0 0.0132357)
(0 0 0.0131375)
(0 0 0.0130376)
(0 0 0.0129359)
(0 0 0.0128326)
(0 0 0.0127277)
(0 0 0.0126212)
(0 0 0.0125132)
(0 0 0.0124038)
(0 0 0.0122929)
(0 0 0.0121807)
(0 0 0.0120672)
(0 0 0.0119524)
(0 0 0.0118365)
(0 0 0.0117193)
(0 0 0.011601)
(0 0 0.0114817)
(0 0 0.0113613)
(0 0 0.0112399)
(0 0 0.0111176)
(0 0 0.0109944)
(0 0 0.0108702)
(0 0 0.0107453)
(0 0 0.0106196)
(0 0 0.010493)
(0 0 0.0103658)
(0 0 0.0102379)
(0 0 0.0101093)
(0 0 0.00998014)
(0 0 0.00985036)
(0 0 0.00972001)
(0 0 0.00958914)
(0 0 0.00945776)
(0 0 0.00932591)
(0 0 0.00919361)
(0 0 0.0090609)
(0 0 0.00892779)
(0 0 0.00879431)
(0 0 0.00866049)
(0 0 0.00852634)
(0 0 0.00839189)
(0 0 0.00825715)
(0 0 0.00812216)
(0 0 0.00798693)
(0 0 0.00785147)
(0 0 0.00771581)
(0 0 0.00757996)
(0 0 0.00744394)
(0 0 0.00730776)
(0 0 0.00717145)
(0 0 0.007035)
(0 0 0.00689844)
(0 0 0.00676178)
(0 0 0.00662503)
(0 0 0.0064882)
(0 0 0.00635131)
(0 0 0.00621436)
(0 0 0.00607736)
(0 0 0.00594033)
(0 0 0.00580326)
(0 0 0.00566617)
(0 0 0.00552907)
(0 0 0.00539196)
(0 0 0.00525486)
(0 0 0.00511775)
(0 0 0.00498066)
(0 0 0.00484358)
(0 0 0.00470652)
(0 0 0.00456948)
(0 0 0.00443247)
(0 0 0.0042955)
(0 0 0.00415855)
(0 0 0.00402164)
(0 0 0.00388477)
(0 0 0.00374794)
(0 0 0.00361116)
(0 0 0.00347441)
(0 0 0.00333771)
(0 0 0.00320105)
(0 0 0.00306444)
(0 0 0.00292787)
(0 0 0.00279134)
(0 0 0.00265486)
(0 0 0.00251842)
(0 0 0.00238202)
(0 0 0.00224567)
(0 0 0.00210935)
(0 0 0.00197307)
(0 0 0.00183683)
(0 0 0.00170062)
(0 0 0.00156445)
(0 0 0.0014283)
(0 0 0.00129219)
(0 0 0.0011561)
(0 0 0.00102003)
(0 0 0.000883982)
(0 0 0.000747953)
(0 0 0.000611941)
(0 0 0.000475941)
(0 0 0.00033995)
(0 0 0.000203967)
(0 0 6.79887e-05)
(0 0 0.000101947)
(0 0 0.000305843)
(0 0 0.000509745)
(0 0 0.000713657)
(0 0 0.000917581)
(0 0 0.00112152)
(0 0 0.00132548)
(0 0 0.00152947)
(0 0 0.00173348)
(0 0 0.00193751)
(0 0 0.00214158)
(0 0 0.00234568)
(0 0 0.00254981)
(0 0 0.00275397)
(0 0 0.00295817)
(0 0 0.0031624)
(0 0 0.00336666)
(0 0 0.00357095)
(0 0 0.00377527)
(0 0 0.00397961)
(0 0 0.00418397)
(0 0 0.00438834)
(0 0 0.00459273)
(0 0 0.00479711)
(0 0 0.00500149)
(0 0 0.00520585)
(0 0 0.00541018)
(0 0 0.00561448)
(0 0 0.00581873)
(0 0 0.00602291)
(0 0 0.00622702)
(0 0 0.00643103)
(0 0 0.00663493)
(0 0 0.00683869)
(0 0 0.00704231)
(0 0 0.00724575)
(0 0 0.007449)
(0 0 0.00765203)
(0 0 0.00785481)
(0 0 0.00805731)
(0 0 0.00825951)
(0 0 0.00846137)
(0 0 0.00866287)
(0 0 0.00886396)
(0 0 0.00906461)
(0 0 0.00926478)
(0 0 0.00946444)
(0 0 0.00966354)
(0 0 0.00986204)
(0 0 0.0100599)
(0 0 0.0102571)
(0 0 0.0104535)
(0 0 0.0106491)
(0 0 0.0108439)
(0 0 0.0110378)
(0 0 0.0112307)
(0 0 0.0114227)
(0 0 0.0116135)
(0 0 0.0118033)
(0 0 0.0119918)
(0 0 0.0121791)
(0 0 0.0123651)
(0 0 0.0125497)
(0 0 0.0127329)
(0 0 0.0129145)
(0 0 0.0130946)
(0 0 0.013273)
(0 0 0.0134496)
(0 0 0.0136245)
(0 0 0.0137975)
(0 0 0.0139685)
(0 0 0.0141375)
(0 0 0.0143044)
(0 0 0.0144692)
(0 0 0.0146316)
(0 0 0.0147918)
(0 0 0.0149495)
(0 0 0.0151047)
(0 0 0.0152574)
(0 0 0.0154074)
(0 0 0.0155547)
(0 0 0.0156992)
(0 0 0.0158408)
(0 0 0.0159795)
(0 0 0.0161151)
(0 0 0.0162477)
(0 0 0.0163771)
(0 0 0.0165032)
(0 0 0.0166261)
(0 0 0.0167456)
(0 0 0.0168616)
(0 0 0.0169741)
(0 0 0.0170831)
(0 0 0.0171884)
(0 0 0.0172901)
(0 0 0.017388)
(0 0 0.0174821)
(0 0 0.0175724)
(0 0 0.0176588)
(0 0 0.0177413)
(0 0 0.0178197)
(0 0 0.0178942)
(0 0 0.0179646)
(0 0 0.0180309)
(0 0 0.0180931)
(0 0 0.0181512)
(0 0 0.0182051)
(0 0 0.0182548)
(0 0 0.0183003)
(0 0 0.0183415)
(0 0 0.0183786)
(0 0 0.0184114)
(0 0 0.01844)
(0 0 0.0184643)
(0 0 0.0184844)
(0 0 0.0185002)
(0 0 0.0185119)
(0 0 0.0185193)
(0 0 0.0185225)
(0 0 0.0185215)
(0 0 0.0185164)
(0 0 0.0185072)
(0 0 0.0184938)
(0 0 0.0184764)
(0 0 0.018455)
(0 0 0.0184295)
(0 0 0.0184001)
(0 0 0.0183667)
(0 0 0.0183295)
(0 0 0.0182884)
(0 0 0.0182435)
(0 0 0.0181949)
(0 0 0.0181427)
(0 0 0.0180867)
(0 0 0.0180272)
(0 0 0.0179642)
(0 0 0.0178977)
(0 0 0.0178278)
(0 0 0.0177546)
(0 0 0.0176781)
(0 0 0.0175983)
(0 0 0.0175154)
(0 0 0.0174294)
(0 0 0.0173404)
(0 0 0.0172485)
(0 0 0.0171536)
(0 0 0.0170559)
(0 0 0.0169554)
(0 0 0.0168523)
(0 0 0.0167465)
(0 0 0.0166382)
(0 0 0.0165274)
(0 0 0.0164142)
(0 0 0.0162986)
(0 0 0.0161807)
(0 0 0.0160606)
(0 0 0.0159383)
(0 0 0.015814)
(0 0 0.0156876)
(0 0 0.0155592)
(0 0 0.015429)
(0 0 0.0152969)
(0 0 0.015163)
(0 0 0.0150275)
(0 0 0.0148902)
(0 0 0.0147514)
(0 0 0.014611)
(0 0 0.0144692)
(0 0 0.0143259)
(0 0 0.0141813)
(0 0 0.0140353)
(0 0 0.0138881)
(0 0 0.0137397)
(0 0 0.0135901)
(0 0 0.0134393)
(0 0 0.0132876)
(0 0 0.0131348)
(0 0 0.012981)
(0 0 0.0128263)
(0 0 0.0126708)
(0 0 0.0125144)
(0 0 0.0123571)
(0 0 0.0121992)
(0 0 0.0120405)
(0 0 0.0118811)
(0 0 0.0117211)
(0 0 0.0115605)
(0 0 0.0113993)
(0 0 0.0112375)
(0 0 0.0110753)
(0 0 0.0109125)
(0 0 0.0107493)
(0 0 0.0105857)
(0 0 0.0104217)
(0 0 0.0102573)
(0 0 0.0100926)
(0 0 0.0099276)
(0 0 0.00976227)
(0 0 0.00959668)
(0 0 0.00943084)
(0 0 0.00926477)
(0 0 0.00909849)
(0 0 0.00893202)
(0 0 0.00876538)
(0 0 0.00859858)
(0 0 0.00843165)
(0 0 0.0082646)
(0 0 0.00809743)
(0 0 0.00793018)
(0 0 0.00776284)
(0 0 0.00759544)
(0 0 0.00742798)
(0 0 0.00726047)
(0 0 0.00709293)
(0 0 0.00692537)
(0 0 0.00675779)
(0 0 0.0065902)
(0 0 0.0064226)
(0 0 0.00625502)
(0 0 0.00608745)
(0 0 0.0059199)
(0 0 0.00575237)
(0 0 0.00558488)
(0 0 0.00541742)
(0 0 0.00524999)
(0 0 0.00508261)
(0 0 0.00491528)
(0 0 0.00474799)
(0 0 0.00458075)
(0 0 0.00441356)
(0 0 0.00424642)
(0 0 0.00407934)
(0 0 0.00391231)
(0 0 0.00374534)
(0 0 0.00357842)
(0 0 0.00341156)
(0 0 0.00324475)
(0 0 0.00307799)
(0 0 0.00291129)
(0 0 0.00274463)
(0 0 0.00257802)
(0 0 0.00241146)
(0 0 0.00224495)
(0 0 0.00207848)
(0 0 0.00191204)
(0 0 0.00174565)
(0 0 0.00157929)
(0 0 0.00141296)
(0 0 0.00124666)
(0 0 0.00108039)
(0 0 0.000914135)
(0 0 0.000747903)
(0 0 0.000581686)
(0 0 0.000415481)
(0 0 0.000249285)
(0 0 8.30945e-05)
(0 0 0.000120479)
(0 0 0.000361439)
(0 0 0.000602405)
(0 0 0.000843383)
(0 0 0.00108438)
(0 0 0.00132539)
(0 0 0.00156643)
(0 0 0.00180749)
(0 0 0.00204859)
(0 0 0.00228972)
(0 0 0.00253089)
(0 0 0.00277209)
(0 0 0.00301334)
(0 0 0.00325462)
(0 0 0.00349595)
(0 0 0.00373731)
(0 0 0.00397872)
(0 0 0.00422016)
(0 0 0.00446163)
(0 0 0.00470314)
(0 0 0.00494467)
(0 0 0.00518622)
(0 0 0.00542777)
(0 0 0.00566934)
(0 0 0.0059109)
(0 0 0.00615244)
(0 0 0.00639395)
(0 0 0.00663542)
(0 0 0.00687684)
(0 0 0.00711818)
(0 0 0.00735944)
(0 0 0.00760058)
(0 0 0.0078416)
(0 0 0.00808246)
(0 0 0.00832315)
(0 0 0.00856364)
(0 0 0.0088039)
(0 0 0.00904391)
(0 0 0.00928362)
(0 0 0.00952301)
(0 0 0.00976205)
(0 0 0.0100007)
(0 0 0.0102389)
(0 0 0.0104766)
(0 0 0.0107139)
(0 0 0.0109505)
(0 0 0.0111866)
(0 0 0.011422)
(0 0 0.0116567)
(0 0 0.0118906)
(0 0 0.0121237)
(0 0 0.012356)
(0 0 0.0125873)
(0 0 0.0128177)
(0 0 0.0130469)
(0 0 0.0132751)
(0 0 0.0135021)
(0 0 0.0137278)
(0 0 0.0139522)
(0 0 0.0141751)
(0 0 0.0143967)
(0 0 0.0146166)
(0 0 0.0148349)
(0 0 0.0150516)
(0 0 0.0152664)
(0 0 0.0154794)
(0 0 0.0156904)
(0 0 0.0158993)
(0 0 0.0161062)
(0 0 0.0163108)
(0 0 0.0165131)
(0 0 0.016713)
(0 0 0.0169104)
(0 0 0.0171053)
(0 0 0.0172975)
(0 0 0.0174869)
(0 0 0.0176735)
(0 0 0.0178571)
(0 0 0.0180377)
(0 0 0.0182152)
(0 0 0.0183894)
(0 0 0.0185604)
(0 0 0.0187279)
(0 0 0.018892)
(0 0 0.0190525)
(0 0 0.0192093)
(0 0 0.0193624)
(0 0 0.0195117)
(0 0 0.019657)
(0 0 0.0197984)
(0 0 0.0199356)
(0 0 0.0200688)
(0 0 0.0201977)
(0 0 0.0203223)
(0 0 0.0204426)
(0 0 0.0205584)
(0 0 0.0206698)
(0 0 0.0207766)
(0 0 0.0208788)
(0 0 0.0209764)
(0 0 0.0210692)
(0 0 0.0211573)
(0 0 0.0212406)
(0 0 0.021319)
(0 0 0.0213926)
(0 0 0.0214613)
(0 0 0.021525)
(0 0 0.0215838)
(0 0 0.0216376)
(0 0 0.0216864)
(0 0 0.0217302)
(0 0 0.021769)
(0 0 0.0218027)
(0 0 0.0218315)
(0 0 0.0218552)
(0 0 0.0218739)
(0 0 0.0218876)
(0 0 0.0218964)
(0 0 0.0219001)
(0 0 0.0218989)
(0 0 0.0218928)
(0 0 0.0218818)
(0 0 0.021866)
(0 0 0.0218453)
(0 0 0.0218199)
(0 0 0.0217897)
(0 0 0.0217548)
(0 0 0.0217153)
(0 0 0.0216712)
(0 0 0.0216226)
(0 0 0.0215694)
(0 0 0.0215119)
(0 0 0.0214499)
(0 0 0.0213837)
(0 0 0.0213133)
(0 0 0.0212386)
(0 0 0.0211599)
(0 0 0.0210772)
(0 0 0.0209905)
(0 0 0.0208999)
(0 0 0.0208055)
(0 0 0.0207074)
(0 0 0.0206056)
(0 0 0.0205003)
(0 0 0.0203914)
(0 0 0.0202791)
(0 0 0.0201635)
(0 0 0.0200447)
(0 0 0.0199226)
(0 0 0.0197974)
(0 0 0.0196693)
(0 0 0.0195381)
(0 0 0.0194042)
(0 0 0.0192674)
(0 0 0.0191279)
(0 0 0.0189858)
(0 0 0.0188412)
(0 0 0.0186941)
(0 0 0.0185445)
(0 0 0.0183927)
(0 0 0.0182386)
(0 0 0.0180824)
(0 0 0.017924)
(0 0 0.0177637)
(0 0 0.0176014)
(0 0 0.0174372)
(0 0 0.0172711)
(0 0 0.0171034)
(0 0 0.0169339)
(0 0 0.0167628)
(0 0 0.0165902)
(0 0 0.0164161)
(0 0 0.0162406)
(0 0 0.0160636)
(0 0 0.0158854)
(0 0 0.0157059)
(0 0 0.0155253)
(0 0 0.0153434)
(0 0 0.0151605)
(0 0 0.0149766)
(0 0 0.0147916)
(0 0 0.0146057)
(0 0 0.0144189)
(0 0 0.0142313)
(0 0 0.0140429)
(0 0 0.0138537)
(0 0 0.0136638)
(0 0 0.0134732)
(0 0 0.0132819)
(0 0 0.0130901)
(0 0 0.0128977)
(0 0 0.0127048)
(0 0 0.0125114)
(0 0 0.0123175)
(0 0 0.0121231)
(0 0 0.0119284)
(0 0 0.0117333)
(0 0 0.0115379)
(0 0 0.0113421)
(0 0 0.0111461)
(0 0 0.0109498)
(0 0 0.0107532)
(0 0 0.0105565)