/*--------------------------------*- C++ -*----------------------------------*\
| =========                 |                                                 |
| \\      /  F ield         | OpenFOAM: The Open Source CFD Toolbox           |
|  \\    /   O peration     | Version:  v2012                                 |
|   \\  /    A nd           | Website:  www.openfoam.com                      |
|    \\/     M anipulation  |                                                 |
\*---------------------------------------------------------------------------*/
FoamFile
{
    version     2.0;
    format      ascii;
    class       volVectorField;
    location    "9.5";
    object      U;
}
// * * * * * * * * * * * * * * * * * * * * * * * * * * * * * * * * * * * * * //

dimensions      [0 1 -1 0 0 0 0];


internalField   nonuniform List<vector> 
65536
(
(0.000755173 -0.000755197 0)
(0.00226556 -0.000755204 0)
(0.00377598 -0.000755236 0)
(0.00528645 -0.000755277 0)
(0.00679702 -0.000755329 0)
(0.00830771 -0.000755394 0)
(0.00981854 -0.000755468 0)
(0.0113295 -0.000755553 0)
(0.0128407 -0.000755646 0)
(0.0143521 -0.000755746 0)
(0.0158636 -0.000755852 0)
(0.0173754 -0.000755962 0)
(0.0188874 -0.000756075 0)
(0.0203997 -0.000756188 0)
(0.0219121 -0.000756299 0)
(0.0234248 -0.000756406 0)
(0.0249377 -0.000756506 0)
(0.0264508 -0.000756598 0)
(0.0279641 -0.000756677 0)
(0.0294775 -0.000756742 0)
(0.030991 -0.000756788 0)
(0.0325046 -0.000756813 0)
(0.0340182 -0.000756813 0)
(0.0355318 -0.000756785 0)
(0.0370454 -0.000756725 0)
(0.0385587 -0.000756628 0)
(0.0400719 -0.000756491 0)
(0.0415847 -0.00075631 0)
(0.0430971 -0.00075608 0)
(0.044609 -0.000755796 0)
(0.0461203 -0.000755454 0)
(0.0476309 -0.000755048 0)
(0.0491405 -0.000754575 0)
(0.0506492 -0.000754029 0)
(0.0521567 -0.000753404 0)
(0.0536628 -0.000752695 0)
(0.0551675 -0.000751897 0)
(0.0566705 -0.000751004 0)
(0.0581716 -0.00075001 0)
(0.0596706 -0.000748909 0)
(0.0611673 -0.000747696 0)
(0.0626614 -0.000746364 0)
(0.0641528 -0.000744908 0)
(0.0656412 -0.000743321 0)
(0.0671262 -0.000741596 0)
(0.0686076 -0.000739729 0)
(0.0700852 -0.000737711 0)
(0.0715586 -0.000735537 0)
(0.0730275 -0.000733201 0)
(0.0744915 -0.000730696 0)
(0.0759504 -0.000728015 0)
(0.0774037 -0.000725153 0)
(0.0788511 -0.000722103 0)
(0.0802923 -0.000718858 0)
(0.0817267 -0.000715413 0)
(0.0831541 -0.000711761 0)
(0.0845739 -0.000707896 0)
(0.0859859 -0.000703813 0)
(0.0873894 -0.000699506 0)
(0.0887841 -0.000694968 0)
(0.0901694 -0.000690195 0)
(0.091545 -0.000685181 0)
(0.0929104 -0.000679922 0)
(0.0942649 -0.000674411 0)
(0.0956082 -0.000668646 0)
(0.0969397 -0.000662621 0)
(0.0982589 -0.000656332 0)
(0.0995653 -0.000649776 0)
(0.100858 -0.000642949 0)
(0.102137 -0.000635848 0)
(0.103402 -0.00062847 0)
(0.104651 -0.000620814 0)
(0.105885 -0.000612876 0)
(0.107103 -0.000604656 0)
(0.108304 -0.000596152 0)
(0.109488 -0.000587363 0)
(0.110654 -0.000578289 0)
(0.111801 -0.000568931 0)
(0.11293 -0.000559288 0)
(0.114039 -0.000549362 0)
(0.115128 -0.000539155 0)
(0.116196 -0.000528669 0)
(0.117242 -0.000517905 0)
(0.118267 -0.000506868 0)
(0.11927 -0.00049556 0)
(0.12025 -0.000483986 0)
(0.121206 -0.000472151 0)
(0.122139 -0.000460059 0)
(0.123047 -0.000447716 0)
(0.12393 -0.000435127 0)
(0.124787 -0.000422301 0)
(0.125619 -0.000409242 0)
(0.126425 -0.00039596 0)
(0.127203 -0.000382461 0)
(0.127955 -0.000368755 0)
(0.128678 -0.000354849 0)
(0.129374 -0.000340753 0)
(0.130042 -0.000326477 0)
(0.13068 -0.00031203 0)
(0.13129 -0.000297422 0)
(0.13187 -0.000282665 0)
(0.132421 -0.000267768 0)
(0.132941 -0.000252744 0)
(0.133432 -0.000237603 0)
(0.133892 -0.000222356 0)
(0.134321 -0.000207016 0)
(0.13472 -0.000191595 0)
(0.135087 -0.000176104 0)
(0.135424 -0.000160556 0)
(0.13573 -0.000144962 0)
(0.136004 -0.000129335 0)
(0.136247 -0.000113687 0)
(0.136459 -9.80311e-05 0)
(0.136639 -8.23782e-05 0)
(0.136788 -6.67408e-05 0)
(0.136906 -5.11309e-05 0)
(0.136993 -3.55602e-05 0)
(0.137048 -2.00405e-05 0)
(0.137073 -4.58308e-06 0)
(0.137066 1.08005e-05 0)
(0.137029 2.60994e-05 0)
(0.136962 4.13027e-05 0)
(0.136864 5.64001e-05 0)
(0.136736 7.13812e-05 0)
(0.136578 8.62362e-05 0)
(0.136391 0.000100955 0)
(0.136174 0.00011553 0)
(0.135929 0.00012995 0)
(0.135654 0.000144208 0)
(0.135352 0.000158296 0)
(0.135021 0.000172205 0)
(0.134662 0.000185928 0)
(0.134277 0.00019946 0)
(0.133864 0.000212792 0)
(0.133425 0.000225919 0)
(0.13296 0.000238835 0)
(0.13247 0.000251535 0)
(0.131954 0.000264014 0)
(0.131414 0.000276268 0)
(0.130849 0.000288293 0)
(0.13026 0.000300084 0)
(0.129648 0.000311639 0)
(0.129013 0.000322956 0)
(0.128356 0.00033403 0)
(0.127677 0.000344862 0)
(0.126976 0.000355448 0)
(0.126255 0.000365787 0)
(0.125513 0.00037588 0)
(0.124751 0.000385724 0)
(0.12397 0.000395321 0)
(0.123169 0.000404669 0)
(0.122351 0.00041377 0)
(0.121514 0.000422624 0)
(0.12066 0.000431232 0)
(0.119789 0.000439595 0)
(0.118901 0.000447715 0)
(0.117997 0.000455594 0)
(0.117078 0.000463233 0)
(0.116144 0.000470635 0)
(0.115196 0.000477803 0)
(0.114233 0.000484739 0)
(0.113256 0.000491445 0)
(0.112267 0.000497925 0)
(0.111264 0.000504183 0)
(0.11025 0.000510221 0)
(0.109223 0.000516043 0)
(0.108185 0.000521652 0)
(0.107136 0.000527052 0)
(0.106077 0.000532247 0)
(0.105007 0.000537241 0)
(0.103928 0.000542038 0)
(0.102839 0.000546642 0)
(0.101741 0.000551057 0)
(0.100634 0.000555286 0)
(0.0995193 0.000559336 0)
(0.0983966 0.000563209 0)
(0.0972663 0.00056691 0)
(0.0961287 0.000570443 0)
(0.0949843 0.000573813 0)
(0.0938333 0.000577024 0)
(0.092676 0.00058008 0)
(0.0915127 0.000582985 0)
(0.0903438 0.000585745 0)
(0.0891696 0.000588363 0)
(0.0879902 0.000590843 0)
(0.086806 0.000593189 0)
(0.0856173 0.000595407 0)
(0.0844242 0.000597499 0)
(0.0832271 0.00059947 0)
(0.0820262 0.000601325 0)
(0.0808216 0.000603067 0)
(0.0796137 0.0006047 0)
(0.0784027 0.000606229 0)
(0.0771887 0.000607656 0)
(0.0759719 0.000608986 0)
(0.0747526 0.000610223 0)
(0.0735309 0.00061137 0)
(0.072307 0.000612432 0)
(0.071081 0.00061341 0)
(0.0698532 0.00061431 0)
(0.0686236 0.000615135 0)
(0.0673925 0.000615887 0)
(0.06616 0.00061657 0)
(0.0649261 0.000617188 0)
(0.0636911 0.000617743 0)
(0.0624551 0.000618239 0)
(0.0612181 0.000618678 0)
(0.0599803 0.000619064 0)
(0.0587417 0.0006194 0)
(0.0575026 0.000619687 0)
(0.0562629 0.00061993 0)
(0.0550228 0.000620131 0)
(0.0537823 0.000620292 0)
(0.0525415 0.000620415 0)
(0.0513005 0.000620504 0)
(0.0500594 0.00062056 0)
(0.0488182 0.000620586 0)
(0.047577 0.000620585 0)
(0.0463358 0.000620557 0)
(0.0450947 0.000620506 0)
(0.0438537 0.000620433 0)
(0.0426129 0.000620341 0)
(0.0413723 0.000620231 0)
(0.0401319 0.000620105 0)
(0.0388918 0.000619965 0)
(0.037652 0.000619813 0)
(0.0364125 0.00061965 0)
(0.0351734 0.000619478 0)
(0.0339346 0.000619298 0)
(0.0326961 0.000619112 0)
(0.0314581 0.000618922 0)
(0.0302204 0.000618728 0)
(0.0289831 0.000618532 0)
(0.0277462 0.000618335 0)
(0.0265097 0.000618138 0)
(0.0252736 0.000617943 0)
(0.0240379 0.000617751 0)
(0.0228026 0.000617562 0)
(0.0215677 0.000617377 0)
(0.0203331 0.000617198 0)
(0.0190988 0.000617025 0)
(0.0178649 0.000616859 0)
(0.0166314 0.0006167 0)
(0.0153981 0.000616551 0)
(0.0141651 0.00061641 0)
(0.0129324 0.000616279 0)
(0.0117 0.000616159 0)
(0.0104678 0.000616049 0)
(0.00923577 0.00061595 0)
(0.00800395 0.000615863 0)
(0.0067723 0.000615787 0)
(0.00554078 0.000615724 0)
(0.00430938 0.000615673 0)
(0.00307806 0.000615635 0)
(0.00184682 0.000615609 0)
(0.000615606 0.000615596 0)
(0.000755167 -0.00226555 0)
(0.00226552 -0.00226558 0)
(0.00377592 -0.00226567 0)
(0.00528637 -0.00226579 0)
(0.00679692 -0.00226595 0)
(0.00830759 -0.00226615 0)
(0.0098184 -0.00226637 0)
(0.0113294 -0.00226662 0)
(0.0128405 -0.0022669 0)
(0.0143519 -0.00226721 0)
(0.0158634 -0.00226753 0)
(0.0173752 -0.00226786 0)
(0.0188872 -0.0022682 0)
(0.0203995 -0.00226854 0)
(0.0219119 -0.00226888 0)
(0.0234246 -0.0022692 0)
(0.0249375 -0.0022695 0)
(0.0264507 -0.00226978 0)
(0.0279639 -0.00227002 0)
(0.0294774 -0.00227022 0)
(0.030991 -0.00227036 0)
(0.0325046 -0.00227044 0)
(0.0340183 -0.00227045 0)
(0.035532 -0.00227036 0)
(0.0370456 -0.00227019 0)
(0.038559 -0.0022699 0)
(0.0400722 -0.0022695 0)
(0.0415851 -0.00226896 0)
(0.0430977 -0.00226827 0)
(0.0446097 -0.00226742 0)
(0.0461211 -0.0022664 0)
(0.0476318 -0.00226519 0)
(0.0491416 -0.00226378 0)
(0.0506504 -0.00226214 0)
(0.052158 -0.00226027 0)
(0.0536644 -0.00225815 0)
(0.0551692 -0.00225576 0)
(0.0566724 -0.00225309 0)
(0.0581737 -0.00225011 0)
(0.0596729 -0.00224682 0)
(0.0611699 -0.00224319 0)
(0.0626643 -0.0022392 0)
(0.0641559 -0.00223483 0)
(0.0656445 -0.00223008 0)
(0.0671298 -0.00222491 0)
(0.0686116 -0.00221931 0)
(0.0700894 -0.00221327 0)
(0.0715632 -0.00220675 0)
(0.0730324 -0.00219975 0)
(0.0744968 -0.00219224 0)
(0.075956 -0.00218421 0)
(0.0774097 -0.00217563 0)
(0.0788575 -0.00216648 0)
(0.080299 -0.00215675 0)
(0.0817339 -0.00214642 0)
(0.0831617 -0.00213548 0)
(0.0845819 -0.00212389 0)
(0.0859943 -0.00211164 0)
(0.0873983 -0.00209873 0)
(0.0887934 -0.00208512 0)
(0.0901793 -0.00207081 0)
(0.0915554 -0.00205577 0)
(0.0929212 -0.00203999 0)
(0.0942763 -0.00202347 0)
(0.0956201 -0.00200618 0)
(0.0969521 -0.0019881 0)
(0.0982718 -0.00196924 0)
(0.0995787 -0.00194958 0)
(0.100872 -0.0019291 0)
(0.102152 -0.0019078 0)
(0.103417 -0.00188567 0)
(0.104667 -0.0018627 0)
(0.105902 -0.00183889 0)
(0.10712 -0.00181423 0)
(0.108322 -0.00178872 0)
(0.109506 -0.00176235 0)
(0.110672 -0.00173513 0)
(0.11182 -0.00170705 0)
(0.11295 -0.00167812 0)
(0.114059 -0.00164834 0)
(0.115148 -0.00161772 0)
(0.116217 -0.00158626 0)
(0.117264 -0.00155396 0)
(0.11829 -0.00152085 0)
(0.119293 -0.00148692 0)
(0.120273 -0.0014522 0)
(0.12123 -0.00141668 0)
(0.122163 -0.0013804 0)
(0.123072 -0.00134337 0)
(0.123955 -0.00130559 0)
(0.124813 -0.00126711 0)
(0.125646 -0.00122792 0)
(0.126451 -0.00118807 0)
(0.127231 -0.00114756 0)
(0.127982 -0.00110643 0)
(0.128706 -0.00106471 0)
(0.129403 -0.00102241 0)
(0.13007 -0.000979571 0)
(0.130709 -0.000936219 0)
(0.131319 -0.000892386 0)
(0.1319 -0.000848102 0)
(0.132451 -0.000803402 0)
(0.132971 -0.000758316 0)
(0.133462 -0.000712881 0)
(0.133922 -0.00066713 0)
(0.134352 -0.000621098 0)
(0.134751 -0.000574821 0)
(0.135119 -0.000528336 0)
(0.135455 -0.000481678 0)
(0.135761 -0.000434885 0)
(0.136035 -0.000387992 0)
(0.136278 -0.000341037 0)
(0.13649 -0.000294055 0)
(0.13667 -0.000247084 0)
(0.13682 -0.00020016 0)
(0.136937 -0.000153318 0)
(0.137024 -0.000106594 0)
(0.137079 -6.00232e-05 0)
(0.137104 -1.36397e-05 0)
(0.137097 3.25224e-05 0)
(0.13706 7.84299e-05 0)
(0.136992 0.000124051 0)
(0.136894 0.000169353 0)
(0.136766 0.000214307 0)
(0.136608 0.000258881 0)
(0.13642 0.000303048 0)
(0.136203 0.00034678 0)
(0.135957 0.000390049 0)
(0.135683 0.000432832 0)
(0.13538 0.000475102 0)
(0.135049 0.000516837 0)
(0.13469 0.000558015 0)
(0.134304 0.000598615 0)
(0.133891 0.000638617 0)
(0.133452 0.000678004 0)
(0.132986 0.000716758 0)
(0.132495 0.000754863 0)
(0.131979 0.000792305 0)
(0.131438 0.000829071 0)
(0.130873 0.000865147 0)
(0.130283 0.000900525 0)
(0.129671 0.000935193 0)
(0.129036 0.000969144 0)
(0.128378 0.00100237 0)
(0.127698 0.00103487 0)
(0.126997 0.00106662 0)
(0.126275 0.00109764 0)
(0.125533 0.00112792 0)
(0.12477 0.00115746 0)
(0.123989 0.00118624 0)
(0.123188 0.00121429 0)
(0.122369 0.00124159 0)
(0.121531 0.00126815 0)
(0.120677 0.00129397 0)
(0.119805 0.00131906 0)
(0.118917 0.00134342 0)
(0.118013 0.00136705 0)
(0.117094 0.00138997 0)
(0.116159 0.00141217 0)
(0.11521 0.00143367 0)
(0.114246 0.00145448 0)
(0.11327 0.00147459 0)
(0.11228 0.00149403 0)
(0.111277 0.0015128 0)
(0.110262 0.00153091 0)
(0.109235 0.00154837 0)
(0.108196 0.00156519 0)
(0.107147 0.00158139 0)
(0.106087 0.00159697 0)
(0.105017 0.00161195 0)
(0.103937 0.00162634 0)
(0.102848 0.00164014 0)
(0.101749 0.00165338 0)
(0.100643 0.00166607 0)
(0.0995274 0.00167821 0)
(0.0984043 0.00168983 0)
(0.0972736 0.00170093 0)
(0.0961357 0.00171152 0)
(0.094991 0.00172163 0)
(0.0938396 0.00173125 0)
(0.092682 0.00174042 0)
(0.0915185 0.00174913 0)
(0.0903493 0.0017574 0)
(0.0891747 0.00176525 0)
(0.0879951 0.00177269 0)
(0.0868107 0.00177972 0)
(0.0856217 0.00178637 0)
(0.0844284 0.00179264 0)
(0.083231 0.00179855 0)
(0.0820298 0.00180411 0)
(0.0808251 0.00180933 0)
(0.079617 0.00181423 0)
(0.0784057 0.00181881 0)
(0.0771915 0.00182309 0)
(0.0759745 0.00182708 0)
(0.074755 0.00183078 0)
(0.0735332 0.00183422 0)
(0.0723091 0.0018374 0)
(0.071083 0.00184033 0)
(0.069855 0.00184303 0)
(0.0686253 0.0018455 0)
(0.067394 0.00184775 0)
(0.0661614 0.0018498 0)
(0.0649274 0.00185165 0)
(0.0636922 0.00185331 0)
(0.0624561 0.00185479 0)
(0.061219 0.00185611 0)
(0.059981 0.00185726 0)
(0.0587424 0.00185827 0)
(0.0575032 0.00185913 0)
(0.0562634 0.00185985 0)
(0.0550232 0.00186045 0)
(0.0537826 0.00186093 0)
(0.0525418 0.0018613 0)
(0.0513007 0.00186156 0)
(0.0500596 0.00186173 0)
(0.0488183 0.00186181 0)
(0.047577 0.0018618 0)
(0.0463358 0.00186172 0)
(0.0450946 0.00186156 0)
(0.0438536 0.00186134 0)
(0.0426128 0.00186106 0)
(0.0413721 0.00186073 0)
(0.0401317 0.00186035 0)
(0.0388916 0.00185993 0)
(0.0376517 0.00185947 0)
(0.0364122 0.00185898 0)
(0.0351731 0.00185846 0)
(0.0339342 0.00185792 0)
(0.0326958 0.00185736 0)
(0.0314577 0.00185679 0)
(0.03022 0.0018562 0)
(0.0289828 0.00185562 0)
(0.0277459 0.00185502 0)
(0.0265094 0.00185443 0)
(0.0252733 0.00185385 0)
(0.0240376 0.00185327 0)
(0.0228023 0.0018527 0)
(0.0215673 0.00185214 0)
(0.0203327 0.00185161 0)
(0.0190985 0.00185109 0)
(0.0178646 0.00185059 0)
(0.0166311 0.00185011 0)
(0.0153978 0.00184966 0)
(0.0141649 0.00184924 0)
(0.0129322 0.00184885 0)
(0.0116998 0.00184848 0)
(0.0104676 0.00184815 0)
(0.0092356 0.00184786 0)
(0.0080038 0.00184759 0)
(0.00677217 0.00184737 0)
(0.00554067 0.00184718 0)
(0.00430929 0.00184703 0)
(0.003078 0.00184691 0)
(0.00184678 0.00184683 0)
(0.000615594 0.00184679 0)
(0.000755135 -0.00377587 0)
(0.00226544 -0.00377593 0)
(0.00377579 -0.00377607 0)
(0.0052862 -0.00377627 0)
(0.0067967 -0.00377653 0)
(0.00830732 -0.00377685 0)
(0.00981809 -0.00377723 0)
(0.011329 -0.00377766 0)
(0.0128402 -0.00377813 0)
(0.0143515 -0.00377864 0)
(0.015863 -0.00377918 0)
(0.0173748 -0.00377974 0)
(0.0188868 -0.00378031 0)
(0.020399 -0.00378089 0)
(0.0219115 -0.00378145 0)
(0.0234242 -0.003782 0)
(0.0249372 -0.00378252 0)
(0.0264503 -0.00378299 0)
(0.0279637 -0.0037834 0)
(0.0294772 -0.00378374 0)
(0.0309909 -0.00378399 0)
(0.0325046 -0.00378413 0)
(0.0340184 -0.00378415 0)
(0.0355322 -0.00378403 0)
(0.0370459 -0.00378375 0)
(0.0385595 -0.00378329 0)
(0.0400729 -0.00378262 0)
(0.041586 -0.00378174 0)
(0.0430987 -0.00378061 0)
(0.044611 -0.00377921 0)
(0.0461226 -0.00377753 0)
(0.0476336 -0.00377553 0)
(0.0491437 -0.00377319 0)
(0.0506528 -0.00377048 0)
(0.0521608 -0.00376738 0)
(0.0536675 -0.00376387 0)
(0.0551727 -0.00375991 0)
(0.0566762 -0.00375547 0)
(0.058178 -0.00375053 0)
(0.0596776 -0.00374506 0)
(0.061175 -0.00373902 0)
(0.0626699 -0.00373239 0)
(0.0641621 -0.00372514 0)
(0.0656512 -0.00371724 0)
(0.0671371 -0.00370865 0)
(0.0686194 -0.00369934 0)
(0.0700979 -0.00368928 0)
(0.0715722 -0.00367845 0)
(0.0730421 -0.0036668 0)
(0.0745072 -0.0036543 0)
(0.0759671 -0.00364093 0)
(0.0774216 -0.00362665 0)
(0.0788702 -0.00361143 0)
(0.0803125 -0.00359524 0)
(0.0817482 -0.00357805 0)
(0.0831768 -0.00355982 0)
(0.0845979 -0.00354052 0)
(0.0860112 -0.00352014 0)
(0.0874161 -0.00349863 0)
(0.0888121 -0.00347597 0)
(0.090199 -0.00345213 0)
(0.091576 -0.00342708 0)
(0.0929428 -0.00340081 0)
(0.0942989 -0.00337328 0)
(0.0956438 -0.00334447 0)
(0.0969768 -0.00331437 0)
(0.0982976 -0.00328294 0)
(0.0996056 -0.00325018 0)
(0.1009 -0.00321606 0)
(0.102181 -0.00318057 0)
(0.103447 -0.00314369 0)
(0.104698 -0.00310542 0)
(0.105934 -0.00306574 0)
(0.107154 -0.00302464 0)
(0.108356 -0.00298212 0)
(0.109542 -0.00293818 0)
(0.110709 -0.00289281 0)
(0.111859 -0.00284602 0)
(0.112989 -0.0027978 0)
(0.114099 -0.00274816 0)
(0.11519 -0.00269711 0)
(0.11626 -0.00264467 0)
(0.117308 -0.00259083 0)
(0.118335 -0.00253563 0)
(0.119339 -0.00247907 0)
(0.12032 -0.00242118 0)
(0.121278 -0.00236197 0)
(0.122212 -0.00230148 0)
(0.123122 -0.00223974 0)
(0.124006 -0.00217676 0)
(0.124865 -0.00211259 0)
(0.125698 -0.00204726 0)
(0.126505 -0.00198081 0)
(0.127285 -0.00191327 0)
(0.128038 -0.0018447 0)
(0.128763 -0.00177512 0)
(0.12946 -0.00170459 0)
(0.130128 -0.00163316 0)
(0.130768 -0.00156087 0)
(0.131378 -0.00148778 0)
(0.131959 -0.00141394 0)
(0.132511 -0.0013394 0)
(0.133032 -0.00126422 0)
(0.133523 -0.00118846 0)
(0.133984 -0.00111217 0)
(0.134414 -0.00103541 0)
(0.134813 -0.000958239 0)
(0.135181 -0.000880723 0)
(0.135518 -0.00080292 0)
(0.135824 -0.00072489 0)
(0.136098 -0.000646694 0)
(0.136341 -0.000568394 0)
(0.136553 -0.000490051 0)
(0.136733 -0.000411725 0)
(0.136882 -0.000333478 0)
(0.137 -0.000255369 0)
(0.137086 -0.000177457 0)
(0.137141 -9.98001e-05 0)
(0.137166 -2.24567e-05 0)
(0.137159 5.4517e-05 0)
(0.137121 0.000131066 0)
(0.137053 0.000207136 0)
(0.136955 0.000282674 0)
(0.136826 0.00035763 0)
(0.136667 0.000431953 0)
(0.136479 0.000505595 0)
(0.136262 0.000578511 0)
(0.136015 0.000650655 0)
(0.13574 0.000721986 0)
(0.135436 0.000792462 0)
(0.135104 0.000862045 0)
(0.134745 0.000930698 0)
(0.134358 0.000998387 0)
(0.133944 0.00106508 0)
(0.133504 0.00113074 0)
(0.133038 0.00119535 0)
(0.132546 0.00125887 0)
(0.132029 0.00132129 0)
(0.131487 0.00138258 0)
(0.13092 0.00144272 0)
(0.13033 0.00150169 0)
(0.129717 0.00155948 0)
(0.129081 0.00161608 0)
(0.128422 0.00167146 0)
(0.127741 0.00172562 0)
(0.127039 0.00177856 0)
(0.126316 0.00183026 0)
(0.125573 0.00188073 0)
(0.124809 0.00192995 0)
(0.124027 0.00197793 0)
(0.123225 0.00202467 0)
(0.122405 0.00207017 0)
(0.121567 0.00211443 0)
(0.120711 0.00215747 0)
(0.119838 0.00219928 0)
(0.118949 0.00223987 0)
(0.118044 0.00227925 0)
(0.117124 0.00231743 0)
(0.116188 0.00235443 0)
(0.115238 0.00239026 0)
(0.114274 0.00242492 0)
(0.113296 0.00245844 0)
(0.112305 0.00249082 0)
(0.111301 0.00252209 0)
(0.110286 0.00255226 0)
(0.109258 0.00258135 0)
(0.108219 0.00260938 0)
(0.107168 0.00263636 0)
(0.106108 0.00266232 0)
(0.105037 0.00268727 0)
(0.103956 0.00271123 0)
(0.102866 0.00273423 0)
(0.101767 0.00275628 0)
(0.100659 0.00277741 0)
(0.0995434 0.00279763 0)
(0.0984196 0.00281698 0)
(0.0972882 0.00283546 0)
(0.0961497 0.0028531 0)
(0.0950043 0.00286993 0)
(0.0938523 0.00288596 0)
(0.0926941 0.00290122 0)
(0.09153 0.00291573 0)
(0.0903602 0.0029295 0)
(0.0891851 0.00294257 0)
(0.0880049 0.00295495 0)
(0.0868199 0.00296666 0)
(0.0856304 0.00297772 0)
(0.0844366 0.00298816 0)
(0.0832388 0.002998 0)
(0.0820372 0.00300725 0)
(0.080832 0.00301594 0)
(0.0796234 0.00302409 0)
(0.0784118 0.00303171 0)
(0.0771972 0.00303883 0)
(0.0759798 0.00304546 0)
(0.07476 0.00305163 0)
(0.0735377 0.00305734 0)
(0.0723133 0.00306263 0)
(0.0710869 0.00306751 0)
(0.0698586 0.00307199 0)
(0.0686286 0.00307609 0)
(0.0673971 0.00307984 0)
(0.0661641 0.00308324 0)
(0.0649299 0.00308631 0)
(0.0636945 0.00308907 0)
(0.0624581 0.00309153 0)
(0.0612207 0.00309371 0)
(0.0599826 0.00309563 0)
(0.0587438 0.00309729 0)
(0.0575043 0.00309872 0)
(0.0562644 0.00309992 0)
(0.055024 0.00310091 0)
(0.0537833 0.0031017 0)
(0.0525423 0.0031023 0)
(0.0513011 0.00310274 0)
(0.0500598 0.00310301 0)
(0.0488185 0.00310312 0)
(0.0475771 0.0031031 0)
(0.0463357 0.00310296 0)
(0.0450945 0.00310269 0)
(0.0438534 0.00310232 0)
(0.0426125 0.00310185 0)
(0.0413717 0.00310129 0)
(0.0401313 0.00310065 0)
(0.0388911 0.00309994 0)
(0.0376512 0.00309917 0)
(0.0364116 0.00309835 0)
(0.0351724 0.00309748 0)
(0.0339336 0.00309657 0)
(0.0326951 0.00309564 0)
(0.031457 0.00309468 0)
(0.0302193 0.0030937 0)
(0.028982 0.00309271 0)
(0.0277451 0.00309172 0)
(0.0265087 0.00309073 0)
(0.0252726 0.00308975 0)
(0.0240369 0.00308878 0)
(0.0228016 0.00308783 0)
(0.0215666 0.00308691 0)
(0.0203321 0.00308601 0)
(0.0190979 0.00308514 0)
(0.017864 0.0030843 0)
(0.0166305 0.00308351 0)
(0.0153973 0.00308276 0)
(0.0141644 0.00308205 0)
(0.0129317 0.00308139 0)
(0.0116993 0.00308079 0)
(0.0104672 0.00308024 0)
(0.00923524 0.00307974 0)
(0.00800349 0.0030793 0)
(0.0067719 0.00307892 0)
(0.00554045 0.00307861 0)
(0.00430912 0.00307835 0)
(0.00307788 0.00307816 0)
(0.00184671 0.00307803 0)
(0.000615569 0.00307797 0)
(0.000755095 -0.00528614 0)
(0.00226532 -0.00528623 0)
(0.0037756 -0.00528641 0)
(0.00528593 -0.0052867 0)
(0.00679637 -0.00528707 0)
(0.00830692 -0.00528752 0)
(0.00981763 -0.00528806 0)
(0.0113285 -0.00528866 0)
(0.0128396 -0.00528933 0)
(0.0143509 -0.00529006 0)
(0.0158624 -0.00529082 0)
(0.0173741 -0.00529162 0)
(0.0188861 -0.00529243 0)
(0.0203984 -0.00529325 0)
(0.0219109 -0.00529407 0)
(0.0234236 -0.00529485 0)
(0.0249366 -0.00529559 0)
(0.0264499 -0.00529627 0)
(0.0279633 -0.00529687 0)
(0.0294769 -0.00529737 0)
(0.0309907 -0.00529774 0)
(0.0325045 -0.00529796 0)
(0.0340185 -0.00529801 0)
(0.0355325 -0.00529787 0)
(0.0370464 -0.0052975 0)
(0.0385602 -0.00529688 0)
(0.0400739 -0.00529599 0)
(0.0415873 -0.00529478 0)
(0.0431003 -0.00529323 0)
(0.0446129 -0.00529131 0)
(0.0461249 -0.00528898 0)
(0.0476363 -0.00528622 0)
(0.0491468 -0.00528298 0)
(0.0506563 -0.00527923 0)
(0.0521648 -0.00527493 0)
(0.053672 -0.00527004 0)
(0.0551778 -0.00526454 0)
(0.0566819 -0.00525836 0)
(0.0581843 -0.00525149 0)
(0.0596846 -0.00524387 0)
(0.0611827 -0.00523546 0)
(0.0626783 -0.00522623 0)
(0.0641712 -0.00521612 0)
(0.0656612 -0.0052051 0)
(0.0671479 -0.00519311 0)
(0.0686311 -0.00518013 0)
(0.0701105 -0.00516609 0)
(0.0715858 -0.00515097 0)
(0.0730567 -0.0051347 0)
(0.0745228 -0.00511726 0)
(0.0759839 -0.00509858 0)
(0.0774394 -0.00507864 0)
(0.0788891 -0.00505737 0)
(0.0803326 -0.00503475 0)
(0.0817695 -0.00501072 0)
(0.0831994 -0.00498524 0)
(0.0846219 -0.00495827 0)
(0.0860364 -0.00492977 0)
(0.0874427 -0.00489969 0)
(0.0888402 -0.00486801 0)
(0.0902284 -0.00483467 0)
(0.091607 -0.00479964 0)
(0.0929753 -0.00476289 0)
(0.0943329 -0.00472438 0)
(0.0956793 -0.00468409 0)
(0.0970139 -0.00464197 0)
(0.0983363 -0.004598 0)
(0.0996459 -0.00455215 0)
(0.100942 -0.00450441 0)
(0.102225 -0.00445474 0)
(0.103492 -0.00440313 0)
(0.104745 -0.00434956 0)
(0.105983 -0.00429402 0)
(0.107204 -0.00423649 0)
(0.108408 -0.00417697 0)
(0.109596 -0.00411545 0)
(0.110765 -0.00405193 0)
(0.111916 -0.00398642 0)
(0.113048 -0.0039189 0)
(0.11416 -0.0038494 0)
(0.115252 -0.00377792 0)
(0.116324 -0.00370448 0)
(0.117374 -0.00362909 0)
(0.118402 -0.00355178 0)
(0.119408 -0.00347256 0)
(0.120391 -0.00339148 0)
(0.12135 -0.00330856 0)
(0.122286 -0.00322384 0)
(0.123197 -0.00313735 0)
(0.124083 -0.00304914 0)
(0.124943 -0.00295925 0)
(0.125778 -0.00286774 0)
(0.126586 -0.00277465 0)
(0.127367 -0.00268004 0)
(0.128121 -0.00258397 0)
(0.128847 -0.0024865 0)
(0.129545 -0.0023877 0)
(0.130215 -0.00228762 0)
(0.130855 -0.00218635 0)
(0.131467 -0.00208395 0)
(0.132049 -0.00198049 0)
(0.132601 -0.00187606 0)
(0.133123 -0.00177073 0)
(0.133615 -0.00166458 0)
(0.134076 -0.00155769 0)
(0.134506 -0.00145014 0)
(0.134906 -0.00134202 0)
(0.135274 -0.00123342 0)
(0.135612 -0.00112441 0)
(0.135918 -0.00101508 0)
(0.136192 -0.00090552 0)
(0.136436 -0.000795815 0)
(0.136647 -0.000686049 0)
(0.136828 -0.000576309 0)
(0.136976 -0.000466679 0)
(0.137094 -0.000357243 0)
(0.13718 -0.000248084 0)
(0.137235 -0.000139285 0)
(0.137258 -3.0925e-05 0)
(0.137251 7.69157e-05 0)
(0.137213 0.00018416 0)
(0.137144 0.000290731 0)
(0.137045 0.000396557 0)
(0.136916 0.000501564 0)
(0.136756 0.000605683 0)
(0.136567 0.000708847 0)
(0.136349 0.000810992 0)
(0.136101 0.000912054 0)
(0.135825 0.00101197 0)
(0.13552 0.00111069 0)
(0.135187 0.00120816 0)
(0.134827 0.00130433 0)
(0.134439 0.00139914 0)
(0.134024 0.00149255 0)
(0.133582 0.00158451 0)
(0.133115 0.001675 0)
(0.132622 0.00176397 0)
(0.132103 0.00185139 0)
(0.13156 0.00193722 0)
(0.130992 0.00202144 0)
(0.130401 0.00210402 0)
(0.129786 0.00218495 0)
(0.129148 0.0022642 0)
(0.128488 0.00234175 0)
(0.127806 0.00241759 0)
(0.127102 0.00249171 0)
(0.126378 0.0025641 0)
(0.125633 0.00263475 0)
(0.124868 0.00270367 0)
(0.124084 0.00277084 0)
(0.123281 0.00283627 0)
(0.122459 0.00289997 0)
(0.121619 0.00296193 0)
(0.120762 0.00302217 0)
(0.119888 0.00308069 0)
(0.118998 0.0031375 0)
(0.118091 0.00319262 0)
(0.117169 0.00324607 0)
(0.116232 0.00329785 0)
(0.115281 0.00334798 0)
(0.114315 0.00339649 0)
(0.113336 0.0034434 0)
(0.112344 0.00348871 0)
(0.111339 0.00353247 0)
(0.110321 0.00357468 0)
(0.109292 0.00361538 0)
(0.108252 0.0036546 0)
(0.1072 0.00369234 0)
(0.106138 0.00372865 0)
(0.105066 0.00376356 0)
(0.103984 0.00379708 0)
(0.102893 0.00382924 0)
(0.101793 0.00386009 0)
(0.100684 0.00388964 0)
(0.0995674 0.00391792 0)
(0.0984425 0.00394497 0)
(0.0973102 0.00397082 0)
(0.0961706 0.00399549 0)
(0.0950243 0.00401902 0)
(0.0938714 0.00404143 0)
(0.0927122 0.00406276 0)
(0.0915472 0.00408304 0)
(0.0903766 0.0041023 0)
(0.0892006 0.00412056 0)
(0.0880196 0.00413786 0)
(0.0868339 0.00415423 0)
(0.0856436 0.00416969 0)
(0.0844491 0.00418428 0)
(0.0832505 0.00419802 0)
(0.0820482 0.00421095 0)
(0.0808423 0.00422308 0)
(0.0796331 0.00423446 0)
(0.0784209 0.0042451 0)
(0.0772057 0.00425504 0)
(0.0759877 0.0042643 0)
(0.0747673 0.00427291 0)
(0.0735446 0.00428088 0)
(0.0723196 0.00428826 0)
(0.0710927 0.00429506 0)
(0.069864 0.00430131 0)
(0.0686335 0.00430704 0)
(0.0674016 0.00431226 0)
(0.0661682 0.00431699 0)
(0.0649336 0.00432127 0)
(0.0636978 0.00432511 0)
(0.0624611 0.00432854 0)
(0.0612234 0.00433158 0)
(0.059985 0.00433424 0)
(0.0587458 0.00433655 0)
(0.0575061 0.00433852 0)
(0.0562659 0.00434019 0)
(0.0550253 0.00434155 0)
(0.0537843 0.00434264 0)
(0.0525431 0.00434347 0)
(0.0513017 0.00434406 0)
(0.0500602 0.00434442 0)
(0.0488187 0.00434457 0)
(0.0475771 0.00434453 0)
(0.0463356 0.00434431 0)
(0.0450943 0.00434392 0)
(0.043853 0.00434339 0)
(0.042612 0.00434271 0)
(0.0413712 0.00434192 0)
(0.0401306 0.00434101 0)
(0.0388903 0.00434001 0)
(0.0376504 0.00433892 0)
(0.0364108 0.00433775 0)
(0.0351715 0.00433653 0)
(0.0339326 0.00433525 0)
(0.0326941 0.00433393 0)
(0.031456 0.00433258 0)
(0.0302183 0.0043312 0)
(0.028981 0.00432981 0)
(0.0277441 0.00432841 0)
(0.0265076 0.00432702 0)
(0.0252715 0.00432564 0)
(0.0240358 0.00432428 0)
(0.0228005 0.00432294 0)
(0.0215656 0.00432164 0)
(0.0203311 0.00432037 0)
(0.0190969 0.00431915 0)
(0.0178631 0.00431797 0)
(0.0166296 0.00431686 0)
(0.0153965 0.0043158 0)
(0.0141636 0.00431481 0)
(0.012931 0.00431388 0)
(0.0116987 0.00431303 0)
(0.0104666 0.00431226 0)
(0.00923471 0.00431156 0)
(0.00800303 0.00431094 0)
(0.00677151 0.00431041 0)
(0.00554013 0.00430997 0)
(0.00430887 0.00430961 0)
(0.0030777 0.00430934 0)
(0.0018466 0.00430916 0)
(0.000615533 0.00430907 0)
(0.000755041 -0.00679631 0)
(0.00226516 -0.00679642 0)
(0.00377533 -0.00679667 0)
(0.00528557 -0.00679704 0)
(0.00679591 -0.00679753 0)
(0.00830638 -0.00679812 0)
(0.00981701 -0.00679882 0)
(0.0113278 -0.00679961 0)
(0.0128388 -0.00680049 0)
(0.0143501 -0.00680143 0)
(0.0158615 -0.00680244 0)
(0.0173733 -0.00680348 0)
(0.0188852 -0.00680456 0)
(0.0203975 -0.00680564 0)
(0.02191 -0.00680671 0)
(0.0234228 -0.00680775 0)
(0.0249359 -0.00680873 0)
(0.0264492 -0.00680964 0)
(0.0279627 -0.00681044 0)
(0.0294765 -0.00681112 0)
(0.0309904 -0.00681164 0)
(0.0325045 -0.00681197 0)
(0.0340186 -0.00681208 0)
(0.0355328 -0.00681194 0)
(0.037047 -0.00681151 0)
(0.0385612 -0.00681077 0)
(0.0400752 -0.00680966 0)
(0.0415889 -0.00680816 0)
(0.0431024 -0.00680623 0)
(0.0446154 -0.00680381 0)
(0.0461279 -0.00680088 0)
(0.0476398 -0.00679739 0)
(0.0491509 -0.00679328 0)
(0.050661 -0.00678852 0)
(0.0521702 -0.00678306 0)
(0.0536781 -0.00677685 0)
(0.0551846 -0.00676983 0)
(0.0566895 -0.00676197 0)
(0.0581927 -0.0067532 0)
(0.0596939 -0.00674347 0)
(0.0611929 -0.00673274 0)
(0.0626895 -0.00672093 0)
(0.0641834 -0.00670801 0)
(0.0656745 -0.00669392 0)
(0.0671623 -0.00667859 0)
(0.0686467 -0.00666197 0)
(0.0701273 -0.006644 0)
(0.0716039 -0.00662463 0)
(0.0730761 -0.0066038 0)
(0.0745436 -0.00658144 0)
(0.0760061 -0.00655751 0)
(0.0774631 -0.00653194 0)
(0.0789144 -0.00650467 0)
(0.0803595 -0.00647566 0)
(0.081798 -0.00644484 0)
(0.0832296 -0.00641215 0)
(0.0846537 -0.00637755 0)
(0.0860701 -0.00634097 0)
(0.0874782 -0.00630237 0)
(0.0888775 -0.0062617 0)
(0.0902677 -0.0062189 0)
(0.0916482 -0.00617393 0)
(0.0930185 -0.00612673 0)
(0.0943781 -0.00607728 0)
(0.0957266 -0.00602552 0)
(0.0970633 -0.00597142 0)
(0.0983878 -0.00591493 0)
(0.0996996 -0.00585603 0)
(0.100998 -0.00579468 0)
(0.102283 -0.00573085 0)
(0.103553 -0.00566452 0)
(0.104808 -0.00559567 0)
(0.106048 -0.00552428 0)
(0.107271 -0.00545033 0)
(0.108478 -0.00537382 0)
(0.109667 -0.00529473 0)
(0.110839 -0.00521306 0)
(0.111992 -0.00512881 0)
(0.113126 -0.005042 0)
(0.114241 -0.00495262 0)
(0.115335 -0.00486069 0)
(0.116409 -0.00476623 0)
(0.117461 -0.00466927 0)
(0.118492 -0.00456982 0)
(0.1195 -0.00446793 0)
(0.120485 -0.00436363 0)
(0.121447 -0.00425696 0)
(0.122384 -0.00414796 0)
(0.123297 -0.00403669 0)
(0.124185 -0.0039232 0)
(0.125047 -0.00380755 0)
(0.125884 -0.0036898 0)
(0.126693 -0.00357002 0)
(0.127476 -0.00344828 0)
(0.128232 -0.00332465 0)
(0.12896 -0.00319922 0)
(0.129659 -0.00307207 0)
(0.13033 -0.00294329 0)
(0.130972 -0.00281296 0)
(0.131585 -0.00268117 0)
(0.132168 -0.00254803 0)
(0.132721 -0.00241362 0)
(0.133244 -0.00227806 0)
(0.133737 -0.00214144 0)
(0.134199 -0.00200387 0)
(0.13463 -0.00186546 0)
(0.13503 -0.0017263 0)
(0.135399 -0.00158652 0)
(0.135737 -0.00144622 0)
(0.136043 -0.0013055 0)
(0.136318 -0.0011645 0)
(0.136561 -0.0010233 0)
(0.136773 -0.000882026 0)
(0.136953 -0.000740787 0)
(0.137102 -0.00059969 0)
(0.137219 -0.000458844 0)
(0.137305 -0.000318356 0)
(0.137359 -0.000178333 0)
(0.137382 -3.88776e-05 0)
(0.137374 9.99077e-05 0)
(0.137336 0.000237923 0)
(0.137266 0.00037507 0)
(0.137166 0.000511254 0)
(0.137036 0.000646382 0)
(0.136875 0.000780366 0)
(0.136685 0.000913117 0)
(0.136465 0.00104455 0)
(0.136217 0.00117459 0)
(0.135939 0.00130316 0)
(0.135633 0.00143018 0)