/*--------------------------------*- C++ -*----------------------------------*\
| =========                 |                                                 |
| \\      /  F ield         | OpenFOAM: The Open Source CFD Toolbox           |
|  \\    /   O peration     | Version:  v2012                                 |
|   \\  /    A nd           | Website:  www.openfoam.com                      |
|    \\/     M anipulation  |                                                 |
\*---------------------------------------------------------------------------*/
FoamFile
{
    version     2.0;
    format      ascii;
    class       volVectorField;
    location    "70";
    object      Usup;
}
// * * * * * * * * * * * * * * * * * * * * * * * * * * * * * * * * * * * * * //

dimensions      [0 1 -1 0 0 0 0];


internalField   nonuniform List<vector> 
4000
(
(-0.000920583 0.00469129 0)
(-0.00325744 -0.00525321 0)
(-0.00796089 -0.00117085 0)
(-0.0214486 -0.00479003 0)
(-0.0400579 -0.00465392 0)
(-0.0410428 0.00609112 0)
(-0.0157685 0.0264289 0)
(0.00928633 0.0146327 0)
(0.000571985 -0.013952 0)
(-0.024863 -0.0267385 0)
(-0.0354078 -0.0179049 0)
(-0.0309123 -0.000497098 0)
(-0.0184711 0.00780898 0)
(-0.0239456 -0.00372244 0)
(-0.0396036 0.00109775 0)
(-0.0291628 0.0242302 0)
(0.00351678 0.0345247 0)
(0.0229433 0.013768 0)
(0.0277578 0.00602128 0)
(0.0311027 -5.51568e-05 0)
(0.0321775 0.00194651 0)
(0.0324064 -0.00891453 0)
(0.0227131 -0.0196954 0)
(0.0120295 -0.00878483 0)
(-0.00241152 -0.0115743 0)
(-0.0184361 -0.0135491 0)
(-0.024032 -0.0140265 0)
(-0.0150741 -0.0070088 0)
(0.00954276 -0.00539221 0)
(0.0121706 -0.0174496 0)
(0.00553207 -0.00875829 0)
(0.0159843 -0.0122079 0)
(0.0105184 -0.024623 0)
(-0.0106265 -0.0174934 0)
(-0.0180228 -0.00480745 0)
(-0.0134976 -0.00434972 0)
(-0.0123569 -0.00524608 0)
(-0.0137607 -0.00724949 0)
(-0.0183191 -0.0124425 0)
(-0.0133868 -0.0110683 0)
(-0.000653388 0.00111858 0)
(0.0121908 0.0140402 0)
(0.0255675 0.0166323 0)
(0.0294343 0.00480583 0)
(0.0223912 -0.0150682 0)
(0.00473217 -0.0252927 0)
(-0.00663701 -0.0130154 0)
(-0.00900964 -0.00247699 0)
(-0.0143949 0.00428867 0)
(-0.0186068 0.00704123 0)
(-0.0110262 0.00516138 0)
(-0.00118508 0.00148745 0)
(0.00210613 0.00863163 0)
(0.00224501 0.0141773 0)
(-0.00100359 0.0182233 0)
(-0.00596949 0.0106206 0)
(-0.0111343 0.00412632 0)
(-0.00491815 0.0133859 0)
(0.0134563 0.0107307 0)
(0.0203188 0.0053921 0)
(0.00188515 0.0051764 0)
(-0.00607861 0.0141406 0)
(-0.0130175 0.00403674 0)
(-0.0335405 0.00417546 0)
(-0.0287996 0.00555819 0)
(-0.00774292 0.00304266 0)
(0.0040765 -0.00388008 0)
(0.0122044 -0.00933498 0)
(0.0230914 -0.0118467 0)
(0.0250633 -0.00573468 0)
(0.0240666 0.00118723 0)
(0.0225096 -0.00399504 0)
(0.0220343 0.000370849 0)
(0.0337385 0.00378812 0)
(0.0349676 -0.00786046 0)
(0.0163986 -0.0102656 0)
(-0.00201305 -0.00777339 0)
(-0.0262369 -0.00881633 0)
(-0.0399666 -0.000157051 0)
(-0.0320052 0.00309645 0)
(-0.0168698 -0.000491014 0)
(-0.0135305 -0.0142377 0)
(-0.0326579 -0.0172526 0)
(-0.0396108 -0.00628864 0)
(-0.0172663 0.00416549 0)
(0.0219495 0.00889299 0)
(0.0380825 -0.0109296 0)
(0.024392 -0.0163704 0)
(0.0119947 -0.00586525 0)
(0.00666783 -0.00479435 0)
(0.00405052 -0.00186807 0)
(0.0102129 0.00463432 0)
(0.0217356 -0.000933493 0)
(0.0222436 -0.00965643 0)
(0.0125663 -0.00908779 0)
(-0.00123585 -0.0120779 0)
(-0.015979 -0.0198494 0)
(-0.0206771 -0.0139698 0)
(-0.0186083 -0.00497809 0)
(-0.00815666 0.00151299 0)
(-0.0120107 0.00233952 0)
(-0.0177839 -0.00493213 0)
(-0.0266107 -0.00670675 0)
(-0.0600851 -0.00613725 0)
(-0.0862395 -0.000567273 0)
(-0.071841 0.0165582 0)
(-0.0390196 0.0406093 0)
(-0.0273306 0.0229005 0)
(-0.0436079 -0.022892 0)
(-0.0653134 -0.0447931 0)
(-0.066892 -0.0436861 0)
(-0.0607639 -0.0118669 0)
(-0.0606483 0.0125455 0)
(-0.071946 0.00838891 0)
(-0.0698233 0.0229977 0)
(-0.0396728 0.0523102 0)
(-0.00336627 0.0695379 0)
(0.0302774 0.039775 0)
(0.0589467 0.0194998 0)
(0.0764303 -0.00315469 0)
(0.0761128 -0.00522479 0)
(0.0644366 -0.00948332 0)
(0.0583397 -0.0305566 0)
(0.0369759 -0.0341668 0)
(-0.0070116 -0.0406611 0)
(-0.0402454 -0.0351042 0)
(-0.0457496 -0.0281751 0)
(-0.0248845 -0.0178557 0)
(0.00833498 -0.0191194 0)
(0.0233067 -0.0498487 0)
(0.0210982 -0.0377775 0)
(0.0212316 -0.0414898 0)
(0.0153755 -0.0561007 0)
(-0.00799949 -0.0435354 0)
(-0.0310749 -0.0161231 0)
(-0.036043 -0.0189384 0)
(-0.0362082 -0.0244531 0)
(-0.0418467 -0.0351282 0)
(-0.0452486 -0.0285323 0)
(-0.0196273 -0.0123267 0)
(0.0179784 0.0110618 0)
(0.0416907 0.0296181 0)
(0.0526891 0.0283824 0)
(0.0446674 -0.00119948 0)
(0.0298197 -0.0423519 0)
(0.0162815 -0.0535359 0)
(0.00450267 -0.0293149 0)
(-0.00978975 -0.0153454 0)
(-0.0280039 0.00450309 0)
(-0.0418214 0.0177904 0)
(-0.0315968 0.0161876 0)
(-0.0046675 0.0102516 0)
(0.010686 0.0131652 0)
(0.00928149 0.0272839 0)
(-0.00695511 0.0424585 0)
(-0.0246893 0.0348579 0)
(-0.0203803 0.0318727 0)
(-0.00329946 0.0488022 0)
(0.0211304 0.0366455 0)
(0.0349937 0.01979 0)
(0.0111749 0.0213478 0)
(-0.0172067 0.0371017 0)
(-0.0433472 0.0134876 0)
(-0.0726008 0.00514277 0)
(-0.0648337 0.0118425 0)
(-0.0279979 0.00523513 0)
(0.000135174 -0.00893189 0)
(0.0263423 -0.0206273 0)
(0.0596957 -0.0225704 0)
(0.0743554 -0.0206672 0)
(0.0660957 -0.00519017 0)
(0.0622831 -0.00447332 0)
(0.0693364 0.00143103 0)
(0.0768491 0.00208278 0)
(0.0702158 -0.0221763 0)
(0.03956 -0.0318133 0)
(-0.00540096 -0.0181696 0)
(-0.0551458 -0.0152252 0)
(-0.0832095 -0.000419248 0)
(-0.0803247 -0.00624919 0)
(-0.065334 -0.0122741 0)
(-0.0591282 -0.0378244 0)
(-0.0732368 -0.0393369 0)
(-0.0710327 -0.0207496 0)
(-0.0258556 0.00228619 0)
(0.0328436 0.00790836 0)
(0.0626573 -0.0187411 0)
(0.0639385 -0.0295625 0)
(0.0440038 -0.0232318 0)
(0.0257148 -0.0177399 0)
(0.0247495 -0.0138122 0)
(0.0307756 -0.00201871 0)
(0.0406258 -0.00292116 0)
(0.0448545 -0.0227495 0)
(0.0270301 -0.0308803 0)
(-0.0110929 -0.0398793 0)
(-0.0371429 -0.0409168 0)
(-0.0371606 -0.0315767 0)
(-0.0322172 -0.0191863 0)
(-0.018089 -0.000425456 0)
(-0.0126331 -0.00187552 0)
(-0.0290477 0.00511097 0)
(-0.0454013 -0.00795154 0)
(-0.0817094 -0.00749568 0)
(-0.115876 0.00300822 0)
(-0.102393 0.0236018 0)
(-0.0673423 0.0263586 0)
(-0.0608343 0.0191919 0)
(-0.082461 -0.0185449 0)
(-0.10876 -0.0441686 0)
(-0.100966 -0.0372725 0)
(-0.0777639 -0.000932846 0)
(-0.079447 0.0203693 0)
(-0.0951598 0.0181376 0)
(-0.0930661 0.0381976 0)
(-0.0528096 0.0534064 0)
(-0.00575313 0.0665781 0)
(0.0329408 0.061106 0)
(0.0680289 0.0345528 0)
(0.0983095 -0.00844607 0)
(0.117023 -0.0189058 0)
(0.0981547 -0.00181224 0)
(0.067973 -0.0114091 0)
(0.0393675 -0.0406227 0)
(-0.00219576 -0.054085 0)
(-0.0390981 -0.0607574 0)
(-0.0519946 -0.0578461 0)
(-0.0333726 -0.0440162 0)
(-0.005285 -0.0452624 0)
(0.0198332 -0.0715942 0)
(0.0319125 -0.0752357 0)
(0.0285095 -0.0746735 0)
(0.0209772 -0.0736971 0)
(-0.00116689 -0.0720273 0)
(-0.0381316 -0.0428222 0)
(-0.0593006 -0.0457885 0)
(-0.06385 -0.0459639 0)
(-0.0574855 -0.0438718 0)
(-0.0422723 -0.030655 0)
(-0.0107151 -0.00946186 0)
(0.0311713 0.00863279 0)
(0.0559617 0.0217372 0)
(0.0595572 0.0123629 0)
(0.0415429 -0.0160654 0)
(0.033503 -0.0451618 0)
(0.0328961 -0.0554791 0)
(0.0135869 -0.0386813 0)
(-0.00704717 -0.0289429 0)
(-0.0251475 -0.00693742 0)
(-0.0501107 0.0105932 0)
(-0.0456446 0.0243893 0)
(-0.0163441 0.0185549 0)
(0.0106246 0.024644 0)
(0.021438 0.0404138 0)
(-0.00251806 0.0560495 0)
(-0.0280086 0.0584807 0)
(-0.0183797 0.0682428 0)
(-0.00601427 0.0777132 0)
(0.0121289 0.063422 0)
(0.0361228 0.0397179 0)
(0.0179259 0.0344765 0)
(-0.0308065 0.044734 0)
(-0.0770753 0.029093 0)
(-0.100184 0.0144921 0)
(-0.0858773 0.0138958 0)
(-0.0456333 0.0029601 0)
(-0.00564599 -0.0229082 0)
(0.0382271 -0.0352001 0)
(0.0831894 -0.0340755 0)
(0.109388 -0.0300045 0)
(0.110857 -0.00767206 0)
(0.102625 -0.0027812 0)
(0.104075 -0.00561524 0)
(0.102429 -0.0139652 0)
(0.0870742 -0.0319025 0)
(0.0585785 -0.037465 0)
(0.00220379 -0.0240624 0)
(-0.0710311 -0.0243279 0)
(-0.121022 -0.0172924 0)
(-0.12549 -0.0270209 0)
(-0.108145 -0.0250062 0)
(-0.0977553 -0.0423872 0)
(-0.100765 -0.0510278 0)
(-0.0865235 -0.0413598 0)
(-0.0286648 -0.0139641 0)
(0.0397001 -0.0116712 0)
(0.0792184 -0.022314 0)
(0.0824751 -0.0329684 0)
(0.0645211 -0.0385768 0)
(0.0458521 -0.0265431 0)
(0.0442378 -0.0224803 0)
(0.0555753 -0.0193038 0)
(0.056791 -0.0174371 0)
(0.049273 -0.0292979 0)
(0.0267197 -0.049831 0)
(-0.012172 -0.0601242 0)
(-0.0427416 -0.0506481 0)
(-0.0510454 -0.0379447 0)
(-0.0389229 -0.0247641 0)
(-0.0188387 -0.00347469 0)
(-0.0121024 -0.00275754 0)
(-0.0394261 0.0078184 0)
(-0.0682327 -0.00372986 0)
(-0.102867 -0.00703883 0)
(-0.129551 0.011372 0)
(-0.120843 0.0217219 0)
(-0.0922678 0.0118397 0)
(-0.0957944 0.00986832 0)
(-0.130294 -0.0136431 0)
(-0.136691 -0.0348448 0)
(-0.105328 -0.0259066 0)
(-0.0900021 0.00349671 0)
(-0.113306 0.0416751 0)
(-0.123601 0.0442646 0)
(-0.104203 0.0462579 0)
(-0.0572949 0.0539045 0)
(0.000287845 0.0604407 0)
(0.0379255 0.0761286 0)
(0.0608376 0.0564898 0)
(0.10248 0.00931047 0)
(0.15019 -0.0206308 0)
(0.134518 -0.0277362 0)
(0.0798267 -0.0260249 0)
(0.0349329 -0.0255975 0)
(-0.0157578 -0.0337347 0)
(-0.056589 -0.0668332 0)
(-0.054449 -0.0927998 0)
(-0.0289384 -0.0786922 0)
(-0.00875457 -0.0750554 0)
(0.0135717 -0.0860681 0)
(0.0328033 -0.104178 0)
(0.0361965 -0.109453 0)
(0.0211391 -0.101214 0)
(0.000667445 -0.102328 0)
(-0.0384647 -0.0832573 0)
(-0.0693267 -0.0707169 0)
(-0.0668667 -0.058163 0)
(-0.0623284 -0.0433121 0)
(-0.0483267 -0.0431084 0)
(-0.00773039 -0.0171984 0)
(0.0426159 0.000753962 0)
(0.0664434 -0.00312002 0)
(0.0629709 -0.0151913 0)
(0.0451027 -0.0265127 0)
(0.0346168 -0.0297966 0)
(0.0362356 -0.0514591 0)
(0.0210676 -0.0509489 0)
(-0.00225067 -0.0302735 0)
(-0.0236678 -0.0159285 0)
(-0.0465439 0.00405016 0)
(-0.048107 0.0302498 0)
(-0.018039 0.0352417 0)
(0.019232 0.0475907 0)
(0.026679 0.0513365 0)
(-0.00116473 0.0533118 0)
(-0.026052 0.0720774 0)
(-0.0163996 0.0992724 0)
(-0.00930388 0.0996085 0)
(0.00224694 0.0851922 0)
(0.0250763 0.0645108 0)
(0.0140705 0.0521235 0)
(-0.0369535 0.0444534 0)
(-0.0958865 0.0379364 0)
(-0.125302 0.0309503 0)
(-0.10898 0.0209962 0)
(-0.0700602 -0.00859185 0)
(-0.0198517 -0.0462761 0)
(0.0472893 -0.0559996 0)
(0.110486 -0.0493085 0)
(0.151404 -0.0317277 0)
(0.148614 -0.0130452 0)
(0.128037 -0.0165673 0)
(0.126211 -0.0206612 0)
(0.122636 -0.0313303 0)
(0.10705 -0.0363243 0)
(0.0729996 -0.0363418 0)
(-0.00177877 -0.0438285 0)
(-0.0897104 -0.050684 0)
(-0.146233 -0.0482307 0)
(-0.150911 -0.0449754 0)
(-0.136266 -0.0418161 0)
(-0.13572 -0.0475566 0)
(-0.132591 -0.0572826 0)
(-0.0950703 -0.0492222 0)
(-0.0258303 -0.0250858 0)
(0.0435739 -0.0242476 0)
(0.0881935 -0.0345513 0)
(0.0956919 -0.0456103 0)
(0.0856837 -0.0433685 0)
(0.0683336 -0.0354604 0)
(0.0587849 -0.0320187 0)
(0.0666156 -0.0293708 0)
(0.0694736 -0.0367848 0)
(0.0529208 -0.0398903 0)
(0.0216057 -0.0660024 0)
(-0.0149255 -0.0737024 0)
(-0.0433966 -0.0599986 0)
(-0.0510261 -0.0324474 0)
(-0.0392063 -0.0138714 0)
(-0.0204922 -0.00078951 0)
(-0.00963516 0.0047816 0)
(-0.0447163 0.011865 0)
(-0.0826859 -0.00120864 0)
(-0.109212 -0.0135663 0)
(-0.14287 0.000533617 0)
(-0.1515 0.0095207 0)
(-0.118961 0.011504 0)
(-0.116647 0.00239099 0)
(-0.15532 -0.0102714 0)
(-0.167024 -0.00613718 0)
(-0.129523 0.00329865 0)
(-0.0865384 0.000758691 0)
(-0.105321 0.0233116 0)
(-0.143785 0.0467886 0)
(-0.130231 0.0570696 0)
(-0.0694143 0.0773143 0)
(0.00840529 0.0826253 0)
(0.0517899 0.0759465 0)
(0.0582738 0.0646176 0)
(0.0915247 0.0462183 0)
(0.143271 0.00603502 0)
(0.14432 -0.0417754 0)
(0.109513 -0.0551376 0)
(0.0590117 -0.0306534 0)
(-0.0232643 -0.0354121 0)
(-0.0864325 -0.0621441 0)
(-0.0702608 -0.0871842 0)
(-0.0267264 -0.0886823 0)
(-0.00902999 -0.0932669 0)
(0.00568294 -0.104206 0)
(0.0234052 -0.131954 0)
(0.0377091 -0.145944 0)
(0.0261351 -0.141931 0)
(0.00109679 -0.124759 0)
(-0.0345685 -0.12429 0)
(-0.0648368 -0.0991471 0)
(-0.0690065 -0.079026 0)
(-0.0707949 -0.0501402 0)
(-0.043443 -0.0372822 0)
(0.0100588 -0.0200229 0)
(0.0430652 -0.0261676 0)
(0.0595266 -0.0385826 0)
(0.0680424 -0.0403025 0)
(0.0595186 -0.0329774 0)
(0.0383394 -0.0168963 0)
(0.0289075 -0.0315341 0)
(0.0282819 -0.0397371 0)
(0.00789149 -0.0297387 0)
(-0.0174476 -0.0249177 0)
(-0.0361147 -0.000698159 0)
(-0.0401997 0.0259665 0)
(-0.0162659 0.04979 0)
(0.0136907 0.0535329 0)
(0.0185735 0.0459073 0)
(0.00539618 0.0466856 0)
(-0.00223009 0.0819142 0)
(-0.00502356 0.113439 0)
(-0.0187343 0.109696 0)
(-0.0105915 0.115835 0)
(0.0153192 0.10444 0)
(-0.000177471 0.0839147 0)
(-0.0541188 0.0589036 0)
(-0.108821 0.0463787 0)
(-0.139489 0.0375851 0)
(-0.137139 0.00438029 0)
(-0.103778 -0.0357763 0)
(-0.032573 -0.0609435 0)
(0.0600405 -0.0645124 0)
(0.13872 -0.0540912 0)
(0.182918 -0.0451823 0)
(0.173822 -0.032909 0)
(0.150746 -0.0240489 0)
(0.146656 -0.0296612 0)
(0.14106 -0.041438 0)
(0.122937 -0.0512982 0)
(0.0731159 -0.0605343 0)
(-0.0125421 -0.0790387 0)
(-0.10199 -0.0757559 0)
(-0.160783 -0.0640876 0)
(-0.170776 -0.0579805 0)
(-0.159566 -0.0597989 0)
(-0.157102 -0.0583781 0)
(-0.147743 -0.0627881 0)
(-0.0990801 -0.0471566 0)
(-0.0264025 -0.0322908 0)
(0.0410312 -0.0349775 0)
(0.0890114 -0.0424935 0)
(0.107047 -0.0473411 0)
(0.10175 -0.0485905 0)
(0.0812922 -0.0512924 0)
(0.0745481 -0.0444128 0)
(0.0786344 -0.0392124 0)
(0.0756817 -0.0487658 0)
(0.0495618 -0.0571401 0)
(0.0127474 -0.0769995 0)
(-0.0112812 -0.0800521 0)
(-0.0295254 -0.0622968 0)
(-0.042469 -0.0245282 0)
(-0.0417463 -0.00677175 0)
(-0.026932 -0.00564732 0)
(-0.0130804 0.0119617 0)
(-0.0580899 0.00492334 0)
(-0.106845 -0.00372251 0)
(-0.129425 -0.0246367 0)
(-0.147127 -0.0203182 0)
(-0.149751 0.0149795 0)
(-0.13292 0.0222087 0)
(-0.145786 -0.00339236 0)
(-0.17299 -0.0211722 0)
(-0.168552 -0.0116467 0)
(-0.146652 0.0186037 0)
(-0.122939 0.0167674 0)
(-0.125148 0.00783937 0)
(-0.140101 0.0403893 0)
(-0.115072 0.0727919 0)
(-0.058202 0.101714 0)
(-0.0025781 0.10765 0)
(0.0404151 0.0695956 0)
(0.0685284 0.0572474 0)
(0.0976682 0.0642725 0)
(0.127012 0.0421394 0)
(0.128919 0.002787 0)
(0.120347 -0.0250915 0)
(0.0714934 -0.0352603 0)
(-0.0280332 -0.0513649 0)
(-0.0929439 -0.0662777 0)
(-0.0767913 -0.0778704 0)
(-0.0355688 -0.0915105 0)
(-0.0186455 -0.108913 0)
(-0.0103961 -0.125542 0)
(0.00719556 -0.156755 0)
(0.0320107 -0.168381 0)
(0.0347744 -0.16836 0)
(0.00465588 -0.15405 0)
(-0.0346999 -0.14712 0)
(-0.0546563 -0.131224 0)
(-0.0505869 -0.10118 0)
(-0.0503125 -0.0538025 0)
(-0.041182 -0.0339342 0)
(-0.0077466 -0.0424697 0)
(0.0299695 -0.0644625 0)
(0.066437 -0.0708388 0)
(0.0843754 -0.0623636 0)
(0.0816468 -0.0344709 0)
(0.0515518 -0.00899254 0)
(0.0278374 -0.00270678 0)
(0.0222143 -0.00988436 0)
(0.00109931 -0.0263797 0)
(-0.0149782 -0.0318284 0)
(-0.0239265 -0.0117131 0)
(-0.024863 0.0280479 0)
(-0.00905595 0.0628228 0)
(0.00756616 0.0597285 0)
(0.0142634 0.0419478 0)
(0.0183621 0.0483145 0)
(0.0163556 0.0840345 0)
(-0.00141343 0.107736 0)
(-0.0103152 0.11222 0)
(-0.00177455 0.14304 0)
(0.00121031 0.136877 0)
(-0.0238872 0.101375 0)
(-0.0748396 0.0837635 0)
(-0.127 0.0619528 0)
(-0.17359 0.0271172 0)
(-0.176405 -0.0190565 0)
(-0.122124 -0.0482191 0)
(-0.0329149 -0.0613879 0)
(0.0725966 -0.0554496 0)
(0.155512 -0.0532777 0)
(0.205368 -0.0537635 0)
(0.20694 -0.0493101 0)
(0.174812 -0.0468822 0)
(0.156825 -0.0433824 0)
(0.145867 -0.0486005 0)
(0.122804 -0.0655337 0)
(0.0676171 -0.083674 0)
(-0.0157257 -0.099243 0)
(-0.0985548 -0.107705 0)
(-0.165541 -0.10017 0)
(-0.186374 -0.0762449 0)
(-0.176545 -0.0572706 0)
(-0.176769 -0.060148 0)
(-0.159679 -0.0685414 0)
(-0.0995481 -0.054682 0)
(-0.0295746 -0.048568 0)
(0.0396705 -0.0453424 0)
(0.0952133 -0.0506368 0)
(0.11331 -0.0487348 0)
(0.106105 -0.0518814 0)
(0.0940524 -0.0602998 0)
(0.0895447 -0.0531969 0)
(0.0847739 -0.0498985 0)
(0.0760057 -0.0567189 0)
(0.0470814 -0.0727412 0)
(0.0112057 -0.0870007 0)
(-0.00837226 -0.0751599 0)
(-0.0171485 -0.0597765 0)
(-0.0320161 -0.0339047 0)
(-0.0495103 -0.0194627 0)
(-0.0307839 -0.0160695 0)
(-0.0209276 0.00607475 0)
(-0.0673198 -0.012223 0)
(-0.116658 -0.0147032 0)
(-0.139142 -0.0201231 0)
(-0.137022 -0.0199708 0)
(-0.146882 0.0071849 0)
(-0.160311 0.0153439 0)
(-0.177333 -0.0146015 0)
(-0.192649 -0.0346813 0)
(-0.172671 -0.0310356 0)
(-0.146451 -0.000832641 0)
(-0.133031 0.0142924 0)
(-0.124772 0.0232872 0)
(-0.12864 0.0613664 0)
(-0.110545 0.0898927 0)
(-0.0584247 0.119738 0)
(-0.0166108 0.114969 0)
(0.0264798 0.0934423 0)
(0.0768481 0.0814768 0)
(0.109975 0.0817675 0)
(0.130545 0.0646818 0)
(0.126169 0.0224443 0)
(0.108014 -0.00592319 0)
(0.0589797 -0.0339618 0)
(-0.0346452 -0.0483546 0)
(-0.101087 -0.0583601 0)
(-0.0877385 -0.0618149 0)
(-0.0490879 -0.0789191 0)
(-0.032287 -0.103173 0)
(-0.0265228 -0.143966 0)
(-0.00523913 -0.167414 0)
(0.0301712 -0.184418 0)
(0.033931 -0.182372 0)
(0.00917622 -0.175909 0)
(-0.0296072 -0.154352 0)
(-0.0455842 -0.146367 0)
(-0.0274749 -0.121481 0)
(-0.0357263 -0.0857477 0)
(-0.0464265 -0.0549577 0)
(-0.0185667 -0.0618443 0)
(0.0225646 -0.0838752 0)
(0.0679074 -0.0949619 0)
(0.10629 -0.0824728 0)
(0.111701 -0.0510785 0)
(0.0724422 -0.000899479 0)
(0.0340776 0.0282045 0)
(0.0107705 0.00712165 0)
(-0.0137386 -0.0264432 0)
(-0.0160592 -0.0432468 0)
(-0.00336791 -0.0146248 0)
(0.00343757 0.0327321 0)
(-0.00280149 0.0651983 0)
(-0.00994047 0.0655094 0)
(0.00303625 0.0601112 0)
(0.029873 0.0640133 0)
(0.0356141 0.0810494 0)
(0.0109347 0.108776 0)
(0.00407877 0.122108 0)
(0.00568866 0.14546 0)
(-0.0175355 0.143717 0)
(-0.0438847 0.121121 0)
(-0.0911479 0.0980058 0)
(-0.161246 0.0606665 0)
(-0.2102 0.00800032 0)
(-0.200295 -0.014114 0)
(-0.135712 -0.0383623 0)
(-0.0297399 -0.0492707 0)
(0.0834005 -0.0439846 0)
(0.165512 -0.0506866 0)
(0.217471 -0.0587274 0)
(0.214154 -0.077599 0)
(0.191563 -0.0797803 0)
(0.180533 -0.0688527 0)
(0.155658 -0.068549 0)
(0.120135 -0.0798076 0)
(0.0599251 -0.093753 0)
(-0.0318877 -0.11176 0)
(-0.117077 -0.122317 0)
(-0.161849 -0.12179 0)
(-0.169089 -0.0909176 0)
(-0.17953 -0.0702082 0)
(-0.196398 -0.0702932 0)
(-0.171307 -0.0707162 0)
(-0.105081 -0.0624534 0)
(-0.0299618 -0.0590982 0)
(0.0404666 -0.0544856 0)
(0.0967667 -0.0585502 0)
(0.121859 -0.060932 0)
(0.111166 -0.0615708 0)
(0.0985756 -0.0708039 0)
(0.0999852 -0.0658357 0)
(0.0928105 -0.0574181 0)
(0.0733927 -0.0649798 0)
(0.037356 -0.07581 0)
(0.0141812 -0.083335 0)
(0.00353911 -0.0649645 0)
(-0.0128944 -0.0548983 0)
(-0.0337525 -0.0561554 0)
(-0.0547612 -0.0509397 0)
(-0.0293319 -0.0205653 0)
(-0.0270082 -0.00729328 0)
(-0.0737877 -0.0294583 0)
(-0.114876 -0.0362089 0)
(-0.140876 -0.024299 0)
(-0.140241 -0.00924329 0)
(-0.141294 -0.0132348 0)
(-0.16934 -0.0104221 0)
(-0.205341 -0.0291141 0)
(-0.210539 -0.0437215 0)
(-0.171992 -0.0350652 0)
(-0.14374 -0.00965454 0)
(-0.136064 0.0184379 0)
(-0.119807 0.0472788 0)
(-0.116657 0.0739766 0)
(-0.0915681 0.104638 0)
(-0.0506841 0.140183 0)
(-0.0228009 0.129853 0)
(0.0248666 0.124277 0)
(0.0773566 0.101374 0)
(0.10842 0.0903647 0)
(0.10907 0.0739416 0)
(0.102141 0.0317442 0)
(0.100778 0.00643576 0)
(0.057177 -0.0338262 0)
(-0.034683 -0.0567633 0)
(-0.0964113 -0.0536253 0)
(-0.0886251 -0.0356339 0)
(-0.0639231 -0.0465355 0)
(-0.0644081 -0.0792278 0)
(-0.055448 -0.145404 0)
(-0.020975 -0.182495 0)
(0.0208723 -0.208792 0)
(0.0380661 -0.196431 0)
(0.0188945 -0.179392 0)
(-0.0224046 -0.158495 0)
(-0.0419161 -0.142231 0)
(-0.0180661 -0.136007 0)
(-0.0125728 -0.121381 0)
(-0.0323566 -0.0794357 0)
(-0.0339289 -0.0813166 0)
(0.00537253 -0.115348 0)
(0.0717394 -0.1158 0)
(0.124128 -0.077968 0)
(0.150134 -0.0349945 0)
(0.116948 0.0168401 0)
(0.0375414 0.0410327 0)
(-0.0182917 0.0171742 0)
(-0.0401795 -0.0110307 0)
(-0.0135019 -0.0284655 0)
(0.0231037 -0.0166676 0)
(0.0247142 0.0109378 0)
(0.00656193 0.0343998 0)
(-0.00370081 0.0599552 0)
(0.00650952 0.0833699 0)
(0.0278018 0.0830777 0)
(0.0440029 0.0777053 0)
(0.0243993 0.0924645 0)
(0.0133202 0.117666 0)
(0.0114751 0.132406 0)
(-0.0196065 0.137846 0)
(-0.0618094 0.146192 0)
(-0.125441 0.119486 0)
(-0.200561 0.0732355 0)
(-0.235486 0.0157519 0)
(-0.214462 -0.01716 0)
(-0.146639 -0.029683 0)
(-0.0289681 -0.0341512 0)
(0.0866736 -0.0400788 0)
(0.166088 -0.053796 0)
(0.21179 -0.0736865 0)
(0.220549 -0.097054 0)
(0.211131 -0.0871257 0)
(0.193556 -0.0853477 0)
(0.162416 -0.0926986 0)
(0.122341 -0.101655 0)
(0.0533182 -0.112026 0)
(-0.0376138 -0.124354 0)
(-0.116485 -0.120221 0)
(-0.160708 -0.119263 0)
(-0.171547 -0.114603 0)
(-0.186468 -0.101303 0)
(-0.201729 -0.0810778 0)
(-0.175617 -0.0710995 0)
(-0.107295 -0.0634239 0)
(-0.0324739 -0.0657618 0)
(0.0395204 -0.0705825 0)
(0.0969272 -0.0689522 0)
(0.12222 -0.0757434 0)
(0.112368 -0.0752638 0)
(0.105201 -0.0814339 0)
(0.113393 -0.0718272 0)
(0.098245 -0.0581014 0)
(0.0729662 -0.0672327 0)
(0.040084 -0.0672628 0)
(0.020003 -0.0657414 0)
(0.00645239 -0.0607125 0)
(-0.024194 -0.0622285 0)
(-0.0502314 -0.0740432 0)
(-0.0529292 -0.0663235 0)
(-0.019728 -0.025556 0)
(-0.0277669 -0.0233136 0)
(-0.0725165 -0.0431137 0)
(-0.103151 -0.0460023 0)
(-0.116603 -0.036747 0)
(-0.132691 -0.0246106 0)
(-0.156885 -0.0302328 0)
(-0.185228 -0.045448 0)
(-0.218397 -0.0435789 0)
(-0.216602 -0.0428926 0)
(-0.169802 -0.0529317 0)
(-0.131014 -0.026659 0)
(-0.115406 0.0280861 0)
(-0.10682 0.082052 0)
(-0.10619 0.0998155 0)
(-0.0765764 0.115599 0)
(-0.0479112 0.135391 0)
(-0.028642 0.146215 0)
(0.0128301 0.168408 0)
(0.0656842 0.139928 0)
(0.108132 0.0952991 0)
(0.108004 0.0690678 0)
(0.0969806 0.0568026 0)
(0.0781091 0.0249146 0)
(0.0273023 -0.0338356 0)
(-0.0384407 -0.0706773 0)
(-0.0784474 -0.0415254 0)
(-0.0780678 -0.0249988 0)
(-0.0781588 -0.0429696 0)
(-0.102673 -0.0800158 0)
(-0.100659 -0.124459 0)
(-0.050954 -0.171369 0)
(0.0192568 -0.210968 0)
(0.0526775 -0.214261 0)
(0.0317035 -0.18311 0)
(-0.00988064 -0.160609 0)
(-0.0381234 -0.13815 0)
(-0.0216586 -0.126118 0)
(-0.00293164 -0.125932 0)
(-0.0239079 -0.116986 0)
(-0.0490827 -0.103982 0)
(-0.00355092 -0.105604 0)
(0.0978074 -0.0869597 0)
(0.170362 -0.0554342 0)
(0.186807 -0.0122597 0)
(0.132824 0.00860225 0)
(0.0365671 0.0144452 0)
(-0.0281627 0.0117568 0)
(-0.0507959 0.00198914 0)
(-0.0259587 -0.0106865 0)
(0.0184911 -0.0209745 0)
(0.0334352 -0.00317254 0)
(0.0259354 0.0184672 0)
(0.019347 0.0484588 0)
(0.0139748 0.0737489 0)
(0.0202747 0.0747633 0)
(0.0377295 0.0730951 0)
(0.0362539 0.0727033 0)
(0.0301059 0.113978 0)
(0.017634 0.135966 0)
(-0.0104168 0.125482 0)
(-0.0611073 0.134652 0)
(-0.149371 0.120024 0)
(-0.242426 0.0997961 0)
(-0.280673 0.0453663 0)
(-0.235146 -0.0120856 0)
(-0.145503 -0.0318103 0)
(-0.0295246 -0.0170661 0)
(0.0821997 -0.0298237 0)
(0.1589 -0.0602263 0)
(0.207487 -0.0837775 0)
(0.228306 -0.097259 0)
(0.224688 -0.0920077 0)
(0.19957 -0.094757 0)
(0.163437 -0.110028 0)
(0.120346 -0.120986 0)
(0.0506871 -0.130739 0)
(-0.0382275 -0.130144 0)
(-0.121102 -0.124868 0)
(-0.171566 -0.132904 0)
(-0.17377 -0.140953 0)
(-0.174598 -0.121123 0)
(-0.193641 -0.0886671 0)
(-0.175512 -0.0675273 0)
(-0.11419 -0.0570041 0)
(-0.042676 -0.0590077 0)
(0.036709 -0.0715012 0)
(0.0968928 -0.0796017 0)
(0.124991 -0.0958413 0)
(0.116988 -0.0989322 0)
(0.111986 -0.0846944 0)
(0.127845 -0.0684575 0)
(0.105754 -0.0571724 0)
(0.0739986 -0.0582651 0)
(0.0423062 -0.0599487 0)
(0.0180972 -0.0564122 0)
(-0.00056164 -0.059235 0)
(-0.0359481 -0.0650962 0)
(-0.0576247 -0.0709511 0)
(-0.050279 -0.0633738 0)
(-0.0107862 -0.0271214 0)
(-0.0213193 -0.0260216 0)
(-0.0567146 -0.0529815 0)
(-0.0881937 -0.0703957 0)
(-0.11241 -0.0678956 0)
(-0.130505 -0.0751925 0)
(-0.15804 -0.0750648 0)
(-0.185649 -0.0644761 0)
(-0.21403 -0.0381897 0)
(-0.231318 -0.0205866 0)
(-0.176559 -0.0378167 0)
(-0.102308 -0.0290848 0)
(-0.0746546 0.0231869 0)
(-0.0845393 0.0753218 0)
(-0.106911 0.113493 0)
(-0.0763186 0.141228 0)
(-0.0338482 0.157907 0)
(0.00172916 0.182738 0)
(0.026369 0.203034 0)
(0.0347741 0.170597 0)
(0.0711295 0.106738 0)
(0.097485 0.0523257 0)
(0.0865337 0.0480342 0)
(0.0495898 0.0192744 0)
(-0.000128685 -0.0251 0)
(-0.0302991 -0.0587639 0)
(-0.0555922 -0.034873 0)
(-0.0846847 -0.028082 0)
(-0.100896 -0.0559441 0)
(-0.12185 -0.0896835 0)
(-0.120998 -0.0937025 0)
(-0.0840103 -0.1213 0)
(-0.0115113 -0.168646 0)
(0.0559338 -0.206896 0)
(0.0538351 -0.191108 0)
(0.00448125 -0.175845 0)
(-0.0238296 -0.147759 0)
(-0.0166791 -0.118174 0)
(-0.0129042 -0.104527 0)
(-0.0218668 -0.115004 0)
(-0.029138 -0.0987721 0)
(0.0167128 -0.0663391 0)
(0.109697 -0.0484855 0)
(0.181699 -0.0404846 0)
(0.2004 -0.0187593 0)
(0.139161 -0.0155645 0)
(0.0409026 -0.00412373 0)
(-0.0284509 0.00217853 0)
(-0.0597524 -0.0108677 0)
(-0.0351636 -0.01511 0)
(0.022743 -0.0200458 0)
(0.0473614 -0.0104186 0)
(0.0382192 0.0103401 0)
(0.0309991 0.0239857 0)
(0.0203966 0.0395876 0)
(0.0224058 0.0617939 0)
(0.0381437 0.0675484 0)
(0.0507131 0.07343 0)
(0.0566444 0.108549 0)
(0.0171014 0.136885 0)
(-0.0233724 0.124215 0)
(-0.0688713 0.113681 0)
(-0.154361 0.10341 0)
(-0.258542 0.0951764 0)
(-0.319748 0.0787471 0)
(-0.27098 0.0292013 0)
(-0.146775 -0.011589 0)
(-0.0199895 -0.0149532 0)
(0.0665978 -0.0353386 0)
(0.141813 -0.0598943 0)
(0.202818 -0.0741998 0)
(0.234413 -0.0845912 0)
(0.233131 -0.0965697 0)
(0.199179 -0.111764 0)
(0.159138 -0.128275 0)
(0.118766 -0.143526 0)
(0.0527291 -0.149248 0)
(-0.0332044 -0.147903 0)
(-0.124233 -0.140435 0)
(-0.183078 -0.130763 0)
(-0.176751 -0.126757 0)
(-0.163504 -0.112812 0)
(-0.177712 -0.0919246 0)
(-0.166021 -0.0607965 0)
(-0.111578 -0.0523347 0)
(-0.0495213 -0.0534846 0)
(0.0224911 -0.0606266 0)
(0.0812203 -0.0744986 0)
(0.113298 -0.0985034 0)
(0.127789 -0.113673 0)
(0.135665 -0.0832356 0)
(0.141549 -0.0613413 0)
(0.112615 -0.052646 0)
(0.0758106 -0.0417119 0)
(0.0433397 -0.0485749 0)
(0.0184614 -0.0606672 0)
(-0.00679124 -0.0703406 0)
(-0.0452261 -0.0630959 0)
(-0.0681016 -0.0496118 0)
(-0.0493806 -0.0377535 0)
(0.000715063 -0.0140327 0)
(-0.0204985 -0.0252729 0)
(-0.0585752 -0.0719054 0)
(-0.081174 -0.111296 0)
(-0.0981638 -0.104148 0)
(-0.125034 -0.0997307 0)
(-0.143422 -0.0943482 0)
(-0.158404 -0.0726084 0)
(-0.19108 -0.044221 0)
(-0.22495 -0.0124275 0)
(-0.187399 -0.00118813 0)
(-0.099207 -0.0236151 0)
(-0.0522238 0.00939731 0)
(-0.0532926 0.048797 0)
(-0.0686318 0.102447 0)
(-0.0516825 0.157855 0)
(-0.0210874 0.200296 0)
(0.0054146 0.229399 0)
(0.00931052 0.205693 0)
(0.00421998 0.162296 0)
(0.0334047 0.110965 0)
(0.0786787 0.0615902 0)
(0.0867824 0.0405454 0)
(0.0375259 0.00808076 0)
(-0.0186489 -0.0232209 0)
(-0.0363841 -0.0467147 0)
(-0.0488345 -0.0431141 0)
(-0.0883931 -0.0370433 0)
(-0.119752 -0.0546394 0)
(-0.12787 -0.0695808 0)
(-0.122353 -0.0721591 0)
(-0.1056 -0.0861385 0)
(-0.0445088 -0.120125 0)
(0.0338724 -0.168594 0)
(0.0507628 -0.182891 0)
(0.0169452 -0.173462 0)
(-0.00160995 -0.137699 0)
(0.00398478 -0.106724 0)
(-0.00634367 -0.0945479 0)
(-0.0243956 -0.0885815 0)
(-0.0165187 -0.0740948 0)
(0.0319223 -0.0292259 0)
(0.116904 -0.00960873 0)
(0.193418 -0.0168372 0)
(0.206718 -0.0246642 0)
(0.144769 -0.0358313 0)
(0.049732 -0.0176252 0)
(-0.0344506 -0.0104928 0)
(-0.0663424 -0.0175709 0)
(-0.0368238 -0.00101178 0)
(0.0169419 -0.00268358 0)
(0.0503475 -0.0212982 0)
(0.0457604 -0.0276148 0)
(0.0356074 -0.0136588 0)
(0.0369093 0.0052789 0)
(0.0364247 0.0402481 0)
(0.0423734 0.0502551 0)
(0.0629991 0.0761253 0)
(0.0738292 0.0985775 0)
(0.0265624 0.117795 0)
(-0.0299019 0.129495 0)
(-0.0787785 0.115744 0)
(-0.165217 0.111501 0)
(-0.2623 0.088877 0)
(-0.329783 0.0856335 0)
(-0.300242 0.0453951 0)
(-0.173989 0.00349367 0)
(-0.0398885 -0.0326932 0)
(0.0594538 -0.0501449 0)
(0.143495 -0.0426389 0)
(0.204677 -0.0383641 0)
(0.228422 -0.0535289 0)
(0.221344 -0.092259 0)
(0.191726 -0.129789 0)
(0.153139 -0.133173 0)
(0.11444 -0.155484 0)
(0.052601 -0.179554 0)
(-0.0313756 -0.163234 0)
(-0.1127 -0.143804 0)
(-0.169553 -0.123949 0)
(-0.171336 -0.124512 0)
(-0.161149 -0.105391 0)
(-0.167596 -0.0830317 0)
(-0.157359 -0.0536954 0)
(-0.117426 -0.0452929 0)
(-0.0542794 -0.0467936 0)
(0.0191279 -0.0473001 0)
(0.0700313 -0.0666206 0)
(0.0996304 -0.0804917 0)
(0.133256 -0.0945699 0)
(0.156219 -0.0774972 0)
(0.155965 -0.0629216 0)
(0.124887 -0.0409334 0)
(0.0799648 -0.0231888 0)
(0.0288253 -0.0337368 0)
(-0.000688059 -0.0536267 0)
(-0.00896464 -0.0707097 0)
(-0.031661 -0.0582729 0)
(-0.0548761 -0.0337335 0)
(-0.0460475 -0.0045243 0)
(-0.00320215 0.00260731 0)
(-0.0235975 -0.0313709 0)
(-0.0633762 -0.0848716 0)
(-0.0694485 -0.11714 0)
(-0.0737583 -0.121805 0)
(-0.103302 -0.115191 0)
(-0.1263 -0.100085 0)
(-0.143527 -0.0866267 0)
(-0.169659 -0.0658353 0)
(-0.203526 -0.045278 0)
(-0.191534 -0.00879498 0)
(-0.103109 -0.00614801 0)
(-0.0307363 0.0236773 0)
(-0.0250752 0.0688898 0)
(-0.0342332 0.116022 0)
(-0.00948822 0.162969 0)
(0.0167639 0.198667 0)
(0.00721882 0.225969 0)
(-0.0179566 0.203275 0)
(-0.0268057 0.15713 0)
(0.00744299 0.114976 0)
(0.0573876 0.0816656 0)
(0.0591768 0.0412611 0)
(0.0140906 0.00886022 0)
(-0.0303102 -0.0352868 0)
(-0.0364753 -0.0424327 0)
(-0.0417701 -0.0324146 0)
(-0.0880487 -0.0184585 0)
(-0.121073 -0.0330654 0)
(-0.132141 -0.0540813 0)
(-0.131641 -0.083152 0)
(-0.118827 -0.0939555 0)
(-0.0728542 -0.0914648 0)
(0.00783591 -0.113087 0)
(0.0471114 -0.131431 0)
(0.0335562 -0.134583 0)
(0.0204187 -0.111954 0)
(0.010005 -0.0815878 0)
(-0.00433783 -0.0805977 0)
(-0.0108719 -0.0613419 0)
(0.0115327 -0.0243531 0)
(0.0623734 0.0203715 0)
(0.11817 0.0306463 0)
(0.170776 -0.000447956 0)
(0.18686 -0.0421702 0)
(0.144487 -0.0595815 0)
(0.0589394 -0.0363486 0)
(-0.0300348 -0.0156774 0)
(-0.0554966 -0.00449401 0)
(-0.0278868 0.00155253 0)
(0.00347395 -0.00938091 0)
(0.0243155 -0.0323571 0)
(0.0390563 -0.0518818 0)
(0.0505644 -0.039854 0)
(0.0557185 -0.011534 0)
(0.0515535 0.0199664 0)
(0.0610401 0.0325923 0)
(0.083213 0.0600405 0)
(0.0846777 0.0865893 0)
(0.0375829 0.101927 0)
(-0.0268619 0.115745 0)
(-0.0838415 0.103693 0)
(-0.175502 0.0969513 0)
(-0.278299 0.0956568 0)
(-0.351344 0.0896976 0)
(-0.329342 0.061502 0)
(-0.200007 0.0113293 0)
(-0.0527904 -0.0269873 0)
(0.0684037 -0.040408 0)
(0.161795 -0.0240878 0)
(0.207776 -0.0206053 0)
(0.208619 -0.045293 0)
(0.19084 -0.0884297 0)