/*--------------------------------*- C++ -*----------------------------------*\
| =========                 |                                                 |
| \\      /  F ield         | OpenFOAM: The Open Source CFD Toolbox           |
|  \\    /   O peration     | Version:  v2012                                 |
|   \\  /    A nd           | Website:  www.openfoam.com                      |
|    \\/     M anipulation  |                                                 |
\*---------------------------------------------------------------------------*/
FoamFile
{
    version     2.0;
    format      ascii;
    class       volVectorField;
    location    "0";
    object      U;
}
// * * * * * * * * * * * * * * * * * * * * * * * * * * * * * * * * * * * * * //

dimensions      [0 1 -1 0 0 0 0];


internalField   nonuniform List<vector> 
4000
(
(1 -2.66318e-15 0)
(1 5.86693e-15 0)
(1 2.0303e-15 0)
(1 2.28995e-16 0)
(1 -3.63201e-15 0)
(1 -1.48955e-15 0)
(1 9.24018e-16 0)
(1 2.63022e-15 0)
(1 -1.23011e-15 0)
(1 -3.45039e-15 0)
(1 2.08154e-15 0)
(1 1.19988e-15 0)
(1 2.53045e-15 0)
(1 1.27648e-15 0)
(1 6.31746e-15 0)
(1 3.14688e-15 0)
(1 -5.71022e-15 0)
(1 -9.35464e-15 0)
(1 -2.39331e-15 0)
(1 -5.1085e-15 0)
(1 6.00718e-16 0)
(1 -1.2933e-14 0)
(1 3.48372e-15 0)
(1 -4.71226e-15 0)
(1 4.81674e-15 0)
(1 -3.43056e-15 0)
(1 8.12901e-17 0)
(1 4.37318e-15 0)
(1 4.9393e-15 0)
(1 9.00795e-15 0)
(1 4.10023e-15 0)
(1 -2.66451e-15 0)
(1 -3.03507e-15 0)
(1 1.86798e-15 0)
(1 3.63364e-16 0)
(1 5.56688e-15 0)
(1 6.18321e-15 0)
(1 1.42907e-15 0)
(1 -6.92977e-16 0)
(1 -2.27419e-15 0)
(1 -2.06831e-15 0)
(1 -2.78567e-16 0)
(1 -3.07417e-15 0)
(1 -2.61926e-15 0)
(1 -3.047e-15 0)
(1 -5.73862e-16 0)
(1 1.89816e-15 0)
(1 2.05568e-15 0)
(1 -8.65786e-17 0)
(1 1.49838e-15 0)
(1 2.89232e-15 0)
(1 2.27175e-15 0)
(1 1.57734e-15 0)
(1 -4.04784e-15 0)
(1 1.98243e-16 0)
(1 -2.13371e-15 0)
(1 -1.67373e-15 0)
(1 -2.30436e-15 0)
(1 -4.70945e-17 0)
(1 3.15362e-15 0)
(1 3.58957e-15 0)
(1 4.2942e-15 0)
(1 2.48267e-15 0)
(1 -1.99307e-15 0)
(1 -5.40011e-15 0)
(1 7.80626e-16 0)
(1 -3.46942e-15 0)
(1 6.96961e-15 0)
(1 7.46927e-16 0)
(1 3.46539e-16 0)
(1 -4.96755e-15 0)
(1 -8.20288e-16 0)
(1 -3.72381e-15 0)
(1 -2.24653e-15 0)
(1 -4.32125e-15 0)
(1 -1.00078e-15 0)
(1 -2.43308e-15 0)
(1 -8.01746e-16 0)
(1 2.70448e-15 0)
(1 4.74314e-16 0)
(1 1.13721e-15 0)
(1 -1.76551e-16 0)
(1 1.47682e-16 0)
(1 -1.93228e-16 0)
(1 1.27578e-15 0)
(1 -2.01899e-15 0)
(1 1.02248e-15 0)
(1 3.05897e-15 0)
(1 -2.49982e-15 0)
(1 4.88612e-15 0)
(1 2.15684e-15 0)
(1 2.34703e-15 0)
(1 -6.3379e-15 0)
(1 -5.20338e-15 0)
(1 -1.47268e-15 0)
(1 1.36421e-15 0)
(1 1.20631e-15 0)
(1 -1.45196e-15 0)
(1 -3.14687e-15 0)
(1 -1.02915e-15 0)
(1 8.89714e-16 0)
(1 -4.48625e-16 0)
(1 7.53854e-15 0)
(1 -7.93088e-16 0)
(1 -2.35136e-15 0)
(1 -4.09863e-15 0)
(1 1.19829e-15 0)
(1 8.88762e-16 0)
(1 3.27314e-15 0)
(1 -6.98014e-15 0)
(1 2.34064e-15 0)
(1 2.89275e-15 0)
(1 4.58677e-15 0)
(1 5.38367e-15 0)
(1 1.04751e-14 0)
(1 5.44448e-15 0)
(1 -6.84779e-15 0)
(1 -1.48166e-14 0)
(1 -3.82037e-15 0)
(1 -6.22218e-15 0)
(1 4.16151e-15 0)
(1 -1.442e-14 0)
(1 3.28973e-16 0)
(1 -6.70915e-15 0)
(1 7.02197e-15 0)
(1 -5.61125e-15 0)
(1 -3.46828e-15 0)
(1 3.73853e-15 0)
(1 2.03657e-15 0)
(1 6.56714e-15 0)
(1 4.91791e-15 0)
(1 -1.84568e-16 0)
(1 3.88866e-15 0)
(1 4.41223e-15 0)
(1 -3.7951e-16 0)
(1 3.1173e-15 0)
(1 2.22969e-15 0)
(1 4.68976e-15 0)
(1 -9.25186e-16 0)
(1 -4.11948e-15 0)
(1 -2.18736e-15 0)
(1 -3.63424e-15 0)
(1 -4.66068e-15 0)
(1 -5.70244e-15 0)
(1 -3.30699e-15 0)
(1 -5.04328e-16 0)
(1 -1.92026e-15 0)
(1 2.44864e-15 0)
(1 2.51313e-15 0)
(1 1.47523e-15 0)
(1 -2.22433e-15 0)
(1 1.22542e-15 0)
(1 1.64364e-15 0)
(1 1.76097e-15 0)
(1 -2.95e-15 0)
(1 -1.15004e-15 0)
(1 -4.29488e-16 0)
(1 2.75792e-15 0)
(1 -2.87119e-15 0)
(1 3.09388e-16 0)
(1 1.32904e-15 0)
(1 3.54264e-15 0)
(1 5.52333e-15 0)
(1 3.71334e-15 0)
(1 -1.48151e-15 0)
(1 -2.5424e-15 0)
(1 -4.08632e-15 0)
(1 2.5953e-15 0)
(1 1.09294e-15 0)
(1 -3.99244e-15 0)
(1 -1.17961e-15 0)
(1 -9.33581e-17 0)
(1 1.33485e-15 0)
(1 2.11811e-16 0)
(1 7.37495e-16 0)
(1 2.83852e-15 0)
(1 8.69976e-16 0)
(1 1.78479e-16 0)
(1 7.45798e-15 0)
(1 1.45517e-15 0)
(1 -5.43123e-16 0)
(1 -5.7056e-16 0)
(1 -1.49955e-15 0)
(1 2.3231e-15 0)
(1 1.43093e-15 0)
(1 9.84251e-16 0)
(1 -2.10429e-15 0)
(1 -7.62854e-16 0)
(1 -5.59933e-15 0)
(1 2.07656e-17 0)
(1 8.63421e-16 0)
(1 3.79262e-15 0)
(1 -5.83116e-15 0)
(1 -1.63471e-15 0)
(1 -5.16933e-15 0)
(1 2.80187e-15 0)
(1 2.63664e-15 0)
(1 2.34486e-15 0)
(1 -4.58933e-15 0)
(1 -2.00689e-15 0)
(1 4.10115e-15 0)
(1 -1.0331e-14 0)
(1 3.97971e-15 0)
(1 -5.03608e-15 0)
(1 -7.17146e-16 0)
(1 3.01675e-16 0)
(1 1.50292e-15 0)
(1 2.59955e-16 0)
(1 4.12878e-15 0)
(1 3.19545e-15 0)
(1 3.01373e-15 0)
(1 5.86324e-15 0)
(1 3.92433e-17 0)
(1 1.22523e-14 0)
(1 2.26543e-15 0)
(1 -1.88254e-15 0)
(1 -3.43931e-15 0)
(1 -5.68333e-15 0)
(1 -5.84205e-15 0)
(1 2.78067e-15 0)
(1 4.89625e-15 0)
(1 4.17819e-15 0)
(1 -7.7906e-15 0)
(1 -5.63513e-15 0)
(1 -3.22555e-15 0)
(1 -3.10208e-15 0)
(1 6.90273e-16 0)
(1 5.26625e-15 0)
(1 7.64114e-15 0)
(1 8.7016e-15 0)
(1 4.2538e-15 0)
(1 7.27458e-15 0)
(1 6.56806e-15 0)
(1 6.44882e-15 0)
(1 5.8718e-15 0)
(1 1.22916e-15 0)
(1 -2.00922e-15 0)
(1 -1.99751e-15 0)
(1 -1.80491e-15 0)
(1 -5.31305e-16 0)
(1 -4.2448e-15 0)
(1 -9.5305e-15 0)
(1 -1.05501e-14 0)
(1 -6.97733e-15 0)
(1 -6.81986e-15 0)
(1 3.16527e-15 0)
(1 2.0917e-15 0)
(1 1.01172e-15 0)
(1 1.18024e-15 0)
(1 2.56588e-15 0)
(1 4.51189e-16 0)
(1 2.79026e-15 0)
(1 2.78343e-15 0)
(1 3.42655e-15 0)
(1 -2.50935e-15 0)
(1 -3.04564e-16 0)
(1 -4.66847e-16 0)
(1 1.54017e-15 0)
(1 -4.32621e-15 0)
(1 -6.35269e-15 0)
(1 2.93686e-15 0)
(1 1.9279e-15 0)
(1 4.05768e-15 0)
(1 3.88269e-15 0)
(1 2.13277e-15 0)
(1 -2.73942e-15 0)
(1 -8.85243e-17 0)
(1 1.62087e-15 0)
(1 2.55786e-15 0)
(1 1.37345e-15 0)
(1 5.89899e-16 0)
(1 -2.37567e-15 0)
(1 -2.97453e-15 0)
(1 -1.53524e-15 0)
(1 -3.19318e-15 0)
(1 2.79058e-15 0)
(1 -5.38275e-16 0)
(1 -2.20711e-15 0)
(1 2.33305e-15 0)
(1 1.77288e-15 0)
(1 -3.31414e-16 0)
(1 -7.29649e-15 0)
(1 -1.06761e-15 0)
(1 -1.37922e-15 0)
(1 5.16243e-15 0)
(1 3.3532e-15 0)
(1 1.35673e-16 0)
(1 1.33557e-15 0)
(1 -4.32687e-15 0)
(1 -1.266e-15 0)
(1 -3.07561e-15 0)
(1 -7.79631e-16 0)
(1 -4.1294e-15 0)
(1 5.89729e-16 0)
(1 -6.59405e-16 0)
(1 -2.06544e-15 0)
(1 -2.85457e-15 0)
(1 1.51807e-15 0)
(1 -4.26149e-16 0)
(1 -8.19933e-16 0)
(1 4.45997e-15 0)
(1 -1.05514e-14 0)
(1 -2.93238e-16 0)
(1 -4.8696e-15 0)
(1 4.31587e-16 0)
(1 -1.66642e-15 0)
(1 3.95512e-15 0)
(1 5.3187e-15 0)
(1 -1.92071e-15 0)
(1 2.22229e-15 0)
(1 7.36889e-15 0)
(1 5.99673e-15 0)
(1 9.13893e-15 0)
(1 9.6125e-15 0)
(1 2.25367e-15 0)
(1 -3.63959e-15 0)
(1 -1.7695e-15 0)
(1 -6.20191e-15 0)
(1 -1.0576e-14 0)
(1 -3.03946e-15 0)
(1 7.34423e-15 0)
(1 4.70928e-15 0)
(1 -9.04063e-16 0)
(1 6.94768e-15 0)
(1 -5.01695e-16 0)
(1 -7.09327e-16 0)
(1 4.79313e-15 0)
(1 3.46838e-15 0)
(1 1.01503e-14 0)
(1 9.4759e-15 0)
(1 2.44847e-15 0)
(1 -2.75457e-16 0)
(1 1.31273e-15 0)
(1 2.33237e-15 0)
(1 5.67762e-15 0)
(1 3.11493e-15 0)
(1 1.83832e-15 0)
(1 -8.51076e-15 0)
(1 1.94378e-15 0)
(1 7.55612e-15 0)
(1 6.55015e-16 0)
(1 -5.68347e-15 0)
(1 -7.62405e-15 0)
(1 -6.64538e-15 0)
(1 -9.48631e-15 0)
(1 2.62584e-15 0)
(1 8.24871e-15 0)
(1 4.39331e-15 0)
(1 3.38262e-15 0)
(1 4.47278e-15 0)
(1 5.08356e-15 0)
(1 1.75622e-15 0)
(1 -3.0626e-15 0)
(1 -5.25277e-15 0)
(1 -2.12441e-15 0)
(1 1.29107e-15 0)
(1 -5.81286e-15 0)
(1 -7.298e-15 0)
(1 -5.66691e-15 0)
(1 -4.3707e-15 0)
(1 3.82543e-15 0)
(1 7.32655e-15 0)
(1 5.08572e-15 0)
(1 5.12085e-15 0)
(1 2.76347e-15 0)
(1 -1.99131e-15 0)
(1 -1.80012e-15 0)
(1 -2.26662e-16 0)
(1 -4.55714e-16 0)
(1 -6.27286e-16 0)
(1 -4.79387e-15 0)
(1 -1.75444e-15 0)
(1 -4.39813e-15 0)
(1 -3.566e-15 0)
(1 -3.30779e-15 0)
(1 -2.95504e-16 0)
(1 1.02087e-15 0)
(1 1.41128e-15 0)
(1 9.57856e-16 0)
(1 2.54398e-15 0)
(1 8.38761e-16 0)
(1 -2.75146e-15 0)
(1 -3.72786e-16 0)
(1 -4.80408e-15 0)
(1 1.55963e-15 0)
(1 6.25944e-15 0)
(1 7.51976e-15 0)
(1 8.16667e-15 0)
(1 2.81848e-15 0)
(1 2.61635e-15 0)
(1 -5.449e-16 0)
(1 -3.86977e-15 0)
(1 -1.81863e-15 0)
(1 5.97927e-16 0)
(1 -3.31089e-15 0)
(1 -4.52735e-15 0)
(1 -5.70575e-15 0)
(1 -1.03354e-14 0)
(1 -3.33256e-15 0)
(1 -7.41588e-17 0)
(1 3.05823e-15 0)
(1 -1.56068e-15 0)
(1 -2.34514e-15 0)
(1 -1.00119e-15 0)
(1 -2.9018e-16 0)
(1 -3.19028e-15 0)
(1 -1.65521e-16 0)
(1 3.62614e-15 0)
(1 -6.24773e-15 0)
(1 -3.66822e-15 0)
(1 4.66618e-15 0)
(1 1.89457e-16 0)
(1 1.39728e-14 0)
(1 -7.9981e-16 0)
(1 1.0835e-14 0)
(1 5.64315e-15 0)
(1 1.8686e-15 0)
(1 -1.01133e-14 0)
(1 -7.49438e-15 0)
(1 -1.21379e-14 0)
(1 -5.75478e-15 0)
(1 -4.78599e-15 0)
(1 1.15793e-14 0)
(1 1.25273e-14 0)
(1 1.53914e-14 0)
(1 3.98893e-15 0)
(1 9.7359e-15 0)
(1 3.47634e-15 0)
(1 3.41417e-15 0)
(1 6.22705e-15 0)
(1 2.02489e-15 0)
(1 -1.91558e-15 0)
(1 5.95214e-15 0)
(1 4.80413e-15 0)
(1 -7.20146e-16 0)
(1 -1.22521e-15 0)
(1 -2.93693e-15 0)
(1 -6.81097e-15 0)
(1 -4.83386e-15 0)
(1 -2.70699e-15 0)
(1 -4.51203e-15 0)
(1 -6.02457e-15 0)
(1 -2.87572e-15 0)
(1 -5.30545e-15 0)
(1 -3.08882e-15 0)
(1 -3.60657e-15 0)
(1 4.20492e-16 0)
(1 6.67466e-15 0)
(1 1.11196e-14 0)
(1 8.91699e-15 0)
(1 2.47496e-15 0)
(1 -1.78158e-15 0)
(1 -5.73101e-15 0)
(1 -1.98151e-15 0)
(1 8.21666e-16 0)
(1 1.92303e-15 0)
(1 -1.0876e-15 0)
(1 1.13213e-15 0)
(1 1.5175e-15 0)
(1 -1.22985e-15 0)
(1 -8.46696e-16 0)
(1 2.4107e-15 0)
(1 4.8717e-15 0)
(1 4.7278e-15 0)
(1 1.39172e-15 0)
(1 -2.68213e-15 0)
(1 3.61111e-15 0)
(1 -3.73715e-15 0)
(1 -1.70467e-16 0)
(1 -1.63664e-15 0)
(1 2.87265e-15 0)
(1 -2.751e-16 0)
(1 2.29638e-15 0)
(1 -5.71526e-15 0)
(1 6.71186e-16 0)
(1 -1.00747e-15 0)
(1 3.47376e-15 0)
(1 4.59663e-15 0)
(1 4.86317e-15 0)
(1 7.41926e-15 0)
(1 -1.17903e-15 0)
(1 8.36473e-16 0)
(1 -2.30585e-16 0)
(1 5.27897e-15 0)
(1 -2.10945e-15 0)
(1 5.19386e-15 0)
(1 5.34434e-15 0)
(1 7.03891e-16 0)
(1 4.95581e-15 0)
(1 -3.67082e-15 0)
(1 2.28203e-15 0)
(1 -6.58185e-15 0)
(1 -8.12744e-16 0)
(1 6.89209e-16 0)
(1 -9.07429e-15 0)
(1 -1.25361e-15 0)
(1 -1.20136e-15 0)
(1 -9.13803e-15 0)
(1 -3.74857e-15 0)
(1 2.01185e-15 0)
(1 -3.49678e-15 0)
(1 4.7656e-15 0)
(1 -4.92202e-17 0)
(1 1.85046e-15 0)
(1 -1.73067e-15 0)
(1 -5.39621e-16 0)
(1 -6.55206e-15 0)
(1 -8.97297e-15 0)
(1 -4.14655e-15 0)
(1 5.77423e-16 0)
(1 1.56967e-15 0)
(1 3.63198e-15 0)
(1 9.69114e-15 0)
(1 1.29887e-15 0)
(1 1.07852e-15 0)
(1 6.72101e-15 0)
(1 6.43419e-15 0)
(1 -2.16008e-15 0)
(1 1.85921e-15 0)
(1 -2.92001e-15 0)
(1 4.24202e-16 0)
(1 1.10996e-14 0)
(1 8.31661e-15 0)
(1 -2.24165e-15 0)
(1 -4.68861e-15 0)
(1 -5.14911e-15 0)
(1 -3.64907e-15 0)
(1 6.05878e-15 0)
(1 5.76899e-15 0)
(1 1.40089e-14 0)
(1 7.56796e-15 0)
(1 1.01013e-14 0)
(1 6.95838e-15 0)
(1 8.0991e-15 0)
(1 1.41131e-15 0)
(1 5.01192e-15 0)
(1 -2.65984e-15 0)
(1 -5.85541e-15 0)
(1 -1.07553e-14 0)
(1 -6.66828e-15 0)
(1 -5.44183e-15 0)
(1 -5.70162e-15 0)
(1 3.45028e-15 0)
(1 2.44461e-15 0)
(1 5.04589e-15 0)
(1 -4.30288e-16 0)
(1 -1.5211e-15 0)
(1 -5.33455e-15 0)
(1 1.68771e-15 0)
(1 2.57642e-16 0)
(1 6.41849e-15 0)
(1 4.52002e-15 0)
(1 -9.75604e-16 0)
(1 -3.86329e-15 0)
(1 9.4721e-16 0)
(1 -2.45182e-15 0)
(1 -2.87605e-16 0)
(1 1.22471e-15 0)
(1 7.28693e-15 0)
(1 5.1474e-15 0)
(1 4.64586e-15 0)
(1 1.81435e-15 0)
(1 -1.10515e-16 0)
(1 -3.97036e-15 0)
(1 1.09684e-15 0)
(1 5.89954e-15 0)
(1 7.80129e-15 0)
(1 7.76474e-15 0)
(1 9.33486e-15 0)
(1 1.76812e-14 0)
(1 7.96937e-15 0)
(1 5.30478e-16 0)
(1 -2.35443e-15 0)
(1 -4.20949e-15 0)
(1 -8.27219e-15 0)
(1 -8.43035e-15 0)
(1 -9.19709e-15 0)
(1 -2.09133e-15 0)
(1 7.77328e-15 0)
(1 1.4716e-14 0)
(1 2.6594e-15 0)
(1 4.27934e-16 0)
(1 4.03891e-15 0)
(1 5.90639e-15 0)
(1 -2.72237e-15 0)
(1 -1.47843e-15 0)
(1 3.252e-15 0)
(1 4.85213e-15 0)
(1 1.09852e-15 0)
(1 -3.1393e-15 0)
(1 -3.15454e-15 0)
(1 -2.91428e-15 0)
(1 -3.86356e-15 0)
(1 -3.19895e-15 0)
(1 4.8256e-16 0)
(1 -2.36271e-15 0)
(1 3.95361e-15 0)
(1 1.98584e-15 0)
(1 2.86601e-15 0)
(1 4.67461e-15 0)
(1 -4.27188e-15 0)
(1 -5.37485e-16 0)
(1 -9.69959e-16 0)
(1 5.83783e-15 0)
(1 3.6097e-15 0)
(1 -1.09658e-15 0)
(1 -5.34302e-15 0)
(1 -1.4755e-14 0)
(1 2.57617e-15 0)
(1 -4.37887e-15 0)
(1 1.7441e-15 0)
(1 6.23373e-15 0)
(1 3.90716e-15 0)
(1 5.35016e-15 0)
(1 -4.71602e-17 0)
(1 3.73172e-15 0)
(1 7.44454e-15 0)
(1 5.20185e-15 0)
(1 5.06132e-15 0)
(1 8.6128e-15 0)
(1 3.51563e-15 0)
(1 8.91235e-15 0)
(1 -3.25483e-15 0)
(1 -2.21325e-15 0)
(1 -1.0469e-14 0)
(1 -4.77051e-15 0)
(1 1.39989e-15 0)
(1 7.3706e-15 0)
(1 4.87727e-15 0)
(1 3.65509e-15 0)
(1 9.94925e-15 0)
(1 6.7448e-15 0)
(1 7.60654e-15 0)
(1 -2.04565e-15 0)
(1 -1.69709e-15 0)
(1 3.72511e-16 0)
(1 5.13388e-15 0)
(1 -2.63474e-15 0)
(1 -1.07986e-15 0)
(1 -1.10012e-15 0)
(1 2.24366e-15 0)
(1 -1.46126e-15 0)
(1 2.25248e-15 0)
(1 5.62107e-15 0)
(1 7.15443e-15 0)
(1 -1.43006e-15 0)
(1 -8.27891e-15 0)
(1 -3.86463e-15 0)
(1 1.11073e-14 0)
(1 5.7509e-15 0)
(1 4.48223e-15 0)
(1 -5.40765e-17 0)
(1 -9.97281e-16 0)
(1 -2.39566e-15 0)
(1 -6.79042e-15 0)
(1 2.01158e-15 0)
(1 2.12883e-15 0)
(1 -2.89714e-15 0)
(1 -1.31644e-15 0)
(1 1.88094e-15 0)
(1 3.72845e-15 0)
(1 7.10808e-15 0)
(1 3.01177e-15 0)
(1 2.42186e-15 0)
(1 4.35743e-15 0)
(1 2.26417e-15 0)
(1 3.05437e-15 0)
(1 3.20241e-15 0)
(1 3.75017e-15 0)
(1 -4.58681e-17 0)
(1 -3.36343e-15 0)
(1 -4.07452e-16 0)
(1 1.55955e-16 0)
(1 5.4138e-15 0)
(1 2.95303e-15 0)
(1 -7.19274e-16 0)
(1 -8.65532e-17 0)
(1 2.67527e-15 0)
(1 6.82665e-15 0)
(1 7.12327e-15 0)
(1 4.1621e-15 0)
(1 2.59585e-15 0)
(1 6.42655e-16 0)
(1 5.71172e-15 0)
(1 5.68476e-15 0)
(1 3.00893e-15 0)
(1 6.95888e-15 0)
(1 1.00024e-14 0)
(1 2.6021e-15 0)
(1 1.45711e-15 0)
(1 -1.80128e-15 0)
(1 1.5284e-15 0)
(1 1.1384e-15 0)
(1 1.18638e-15 0)
(1 1.83723e-15 0)
(1 1.75384e-16 0)
(1 6.6259e-15 0)
(1 6.65215e-15 0)
(1 5.41523e-15 0)
(1 6.5584e-15 0)
(1 -1.37755e-15 0)
(1 -1.07806e-15 0)
(1 -5.57786e-15 0)
(1 6.64831e-15 0)
(1 3.8609e-15 0)
(1 -2.0845e-15 0)
(1 1.58932e-15 0)
(1 -8.64043e-15 0)
(1 -7.2671e-16 0)
(1 -7.7225e-15 0)
(1 -7.10522e-15 0)
(1 2.53281e-15 0)
(1 1.16295e-15 0)
(1 9.4009e-15 0)
(1 9.88097e-15 0)
(1 6.08431e-15 0)
(1 1.91471e-15 0)
(1 6.24714e-15 0)
(1 6.28489e-15 0)
(1 1.54945e-14 0)
(1 -8.14802e-15 0)
(1 -2.19412e-15 0)
(1 -1.45684e-14 0)
(1 -6.04837e-15 0)
(1 -4.19691e-15 0)
(1 9.37387e-15 0)
(1 1.32668e-14 0)
(1 6.61229e-15 0)
(1 4.75202e-16 0)
(1 -9.15919e-15 0)
(1 2.21368e-15 0)
(1 3.81382e-15 0)
(1 3.81513e-15 0)
(1 4.68637e-15 0)
(1 3.96637e-15 0)
(1 -1.16026e-15 0)
(1 3.20603e-15 0)
(1 1.66434e-15 0)
(1 -1.69269e-15 0)
(1 -7.77798e-15 0)
(1 -6.20371e-15 0)
(1 3.20489e-16 0)
(1 -4.55087e-15 0)
(1 8.6259e-15 0)
(1 7.52646e-15 0)
(1 1.20822e-15 0)
(1 -2.58235e-15 0)
(1 1.76103e-15 0)
(1 7.77752e-15 0)
(1 4.4627e-15 0)
(1 6.90113e-16 0)
(1 -2.15627e-15 0)
(1 9.92634e-15 0)
(1 6.99998e-15 0)
(1 1.34121e-15 0)
(1 -4.02e-15 0)
(1 1.81766e-15 0)
(1 -4.57967e-15 0)
(1 -1.26445e-15 0)
(1 -1.36415e-15 0)
(1 4.74149e-15 0)
(1 6.37006e-15 0)
(1 6.12485e-15 0)
(1 4.72135e-15 0)
(1 2.12582e-15 0)
(1 4.05034e-15 0)
(1 7.75457e-15 0)
(1 5.71057e-15 0)
(1 3.95107e-15 0)
(1 -2.83864e-15 0)
(1 5.47877e-15 0)
(1 7.58872e-15 0)
(1 2.03395e-15 0)
(1 3.98716e-15 0)
(1 2.99735e-15 0)
(1 2.47998e-15 0)
(1 8.01254e-15 0)
(1 6.5362e-15 0)
(1 -9.97783e-16 0)
(1 -3.13749e-16 0)
(1 1.65914e-15 0)
(1 2.10004e-16 0)
(1 -5.00487e-15 0)
(1 1.84748e-15 0)
(1 1.09537e-14 0)
(1 8.03407e-15 0)
(1 2.96495e-15 0)
(1 1.90782e-15 0)
(1 -4.59036e-16 0)
(1 -9.26391e-16 0)
(1 2.54939e-15 0)
(1 4.18353e-17 0)
(1 3.36681e-15 0)
(1 3.11486e-15 0)
(1 1.92427e-15 0)
(1 2.37815e-15 0)
(1 1.23351e-15 0)
(1 5.15242e-15 0)
(1 6.02062e-15 0)
(1 1.26283e-14 0)
(1 1.51868e-15 0)
(1 -2.97386e-15 0)
(1 4.94113e-15 0)
(1 -4.32798e-15 0)
(1 2.67409e-16 0)
(1 -6.58896e-15 0)
(1 -4.10482e-15 0)
(1 4.95016e-15 0)
(1 -1.16307e-14 0)
(1 -6.83926e-15 0)
(1 6.77803e-16 0)
(1 7.48826e-15 0)
(1 3.87135e-15 0)
(1 5.02667e-15 0)
(1 8.29243e-15 0)
(1 7.37282e-15 0)
(1 -6.58808e-16 0)
(1 1.08124e-14 0)
(1 -1.65743e-15 0)
(1 7.30196e-15 0)
(1 -1.25777e-15 0)
(1 -4.98986e-15 0)
(1 -6.23761e-15 0)
(1 4.05135e-16 0)
(1 2.53923e-15 0)
(1 1.39359e-14 0)
(1 3.04928e-15 0)
(1 3.26103e-15 0)
(1 -7.8368e-15 0)
(1 -9.7492e-15 0)
(1 -1.12584e-14 0)
(1 -1.14974e-15 0)
(1 -3.18393e-15 0)
(1 4.1323e-15 0)
(1 8.83062e-15 0)
(1 4.8837e-15 0)
(1 -1.12274e-15 0)
(1 1.66333e-15 0)
(1 3.0752e-15 0)
(1 1.92025e-15 0)
(1 -4.62495e-15 0)
(1 6.18996e-15 0)
(1 2.92921e-15 0)
(1 1.02217e-14 0)
(1 5.92597e-15 0)
(1 1.40041e-14 0)
(1 8.05737e-15 0)
(1 -1.26407e-15 0)
(1 -6.20527e-15 0)
(1 -3.37324e-15 0)
(1 -9.69807e-16 0)
(1 3.26241e-15 0)
(1 8.54512e-15 0)
(1 3.80191e-15 0)
(1 1.38124e-15 0)
(1 -5.26843e-15 0)
(1 -4.15966e-15 0)
(1 2.94227e-15 0)
(1 -1.15909e-15 0)
(1 8.85708e-15 0)
(1 -1.17543e-15 0)
(1 9.57855e-15 0)
(1 -4.68363e-15 0)
(1 -5.57632e-15 0)
(1 3.16522e-15 0)
(1 1.37298e-14 0)
(1 1.44444e-14 0)
(1 1.36855e-14 0)
(1 1.52441e-14 0)
(1 1.54833e-14 0)
(1 1.07841e-14 0)
(1 1.12982e-14 0)
(1 3.28305e-15 0)
(1 2.33468e-17 0)
(1 -7.07963e-15 0)
(1 -4.14665e-15 0)
(1 1.72363e-15 0)
(1 2.88793e-15 0)
(1 -1.28091e-15 0)
(1 5.97052e-15 0)
(1 2.9533e-15 0)
(1 5.79457e-15 0)
(1 5.96463e-15 0)
(1 2.20031e-15 0)
(1 6.31807e-16 0)
(1 -1.3434e-15 0)
(1 -4.47679e-15 0)
(1 1.87838e-15 0)
(1 5.05235e-15 0)
(1 1.79803e-15 0)
(1 2.42114e-15 0)
(1 4.20213e-15 0)
(1 7.78692e-15 0)
(1 7.1316e-15 0)
(1 9.90413e-15 0)
(1 5.93113e-15 0)
(1 1.16277e-14 0)
(1 1.0884e-14 0)
(1 1.75178e-14 0)
(1 2.23592e-14 0)
(1 1.15142e-15 0)
(1 2.63443e-15 0)
(1 5.77137e-15 0)
(1 1.98426e-15 0)
(1 -4.14126e-15 0)
(1 -6.5031e-16 0)
(1 -2.20525e-15 0)
(1 2.31792e-15 0)
(1 -5.18816e-15 0)
(1 -5.88347e-15 0)
(1 4.23062e-15 0)
(1 2.64497e-15 0)
(1 6.41594e-15 0)
(1 2.85058e-15 0)
(1 4.78473e-15 0)
(1 1.90912e-15 0)
(1 1.34238e-15 0)
(1 5.8489e-15 0)
(1 -2.75772e-15 0)
(1 -8.79563e-15 0)
(1 -1.19164e-15 0)
(1 -1.52206e-14 0)
(1 3.97612e-15 0)
(1 5.21752e-15 0)
(1 1.01153e-14 0)
(1 1.06584e-14 0)
(1 5.80179e-15 0)
(1 -7.76433e-16 0)
(1 2.94791e-16 0)
(1 -3.57205e-15 0)
(1 -6.46116e-15 0)
(1 -5.93539e-15 0)
(1 -6.26992e-15 0)
(1 -2.84649e-15 0)
(1 -2.48564e-15 0)
(1 -7.13143e-16 0)
(1 -3.10585e-16 0)
(1 4.8151e-15 0)
(1 3.17243e-15 0)
(1 4.82404e-15 0)
(1 1.70611e-15 0)
(1 4.74012e-15 0)
(1 7.14107e-15 0)
(1 3.85811e-15 0)
(1 1.37631e-15 0)
(1 4.44155e-15 0)
(1 -1.81008e-15 0)
(1 2.34276e-16 0)
(1 -2.88946e-15 0)
(1 4.51913e-15 0)
(1 5.63421e-15 0)
(1 8.83927e-15 0)
(1 4.45449e-15 0)
(1 4.45822e-15 0)
(1 2.20184e-15 0)
(1 6.21589e-15 0)
(1 7.39987e-16 0)
(1 5.65636e-15 0)
(1 -4.0037e-15 0)
(1 5.84833e-15 0)
(1 4.50441e-15 0)
(1 5.00155e-15 0)
(1 8.59836e-15 0)
(1 5.45292e-15 0)
(1 7.74703e-15 0)
(1 8.59205e-15 0)
(1 8.0468e-15 0)
(1 1.24815e-14 0)
(1 1.10876e-14 0)
(1 6.85341e-15 0)
(1 3.08833e-15 0)
(1 5.04782e-15 0)
(1 2.62482e-15 0)
(1 1.98431e-15 0)
(1 -1.14029e-15 0)
(1 4.23865e-15 0)
(1 6.28882e-15 0)
(1 8.25668e-15 0)
(1 7.71801e-15 0)
(1 5.20754e-15 0)
(1 1.23304e-15 0)
(1 2.10207e-17 0)
(1 1.61582e-15 0)
(1 -7.57086e-16 0)
(1 3.72513e-15 0)
(1 2.24344e-16 0)
(1 4.12883e-15 0)
(1 7.09114e-16 0)
(1 8.65627e-15 0)
(1 2.22619e-15 0)
(1 1.91455e-15 0)
(1 3.01569e-15 0)
(1 9.24137e-15 0)
(1 7.66018e-15 0)
(1 7.72078e-15 0)
(1 5.39357e-15 0)
(1 1.31001e-14 0)
(1 1.07129e-14 0)
(1 2.67053e-14 0)
(1 2.26135e-14 0)
(1 2.3313e-16 0)
(1 3.85892e-16 0)
(1 6.33313e-17 0)
(1 4.30516e-15 0)
(1 -2.832e-15 0)
(1 3.23926e-17 0)
(1 -2.18055e-15 0)
(1 -7.69251e-15 0)
(1 2.32857e-15 0)
(1 -4.84291e-15 0)
(1 -6.81117e-15 0)
(1 -1.01035e-14 0)
(1 8.46933e-15 0)
(1 2.33727e-15 0)
(1 7.96097e-15 0)
(1 4.87987e-15 0)
(1 4.43884e-15 0)
(1 2.5043e-15 0)
(1 2.9844e-15 0)
(1 -6.21717e-15 0)
(1 -1.39076e-15 0)
(1 -6.63597e-15 0)
(1 -2.56257e-15 0)
(1 -4.11793e-15 0)
(1 -1.17527e-16 0)
(1 1.39846e-15 0)
(1 6.54843e-15 0)
(1 2.05588e-15 0)
(1 7.90608e-15 0)
(1 -1.58558e-16 0)
(1 -1.58889e-16 0)
(1 -3.16429e-15 0)
(1 -8.07036e-15 0)
(1 -7.55103e-15 0)
(1 1.60757e-15 0)
(1 4.82293e-15 0)
(1 6.24823e-15 0)
(1 3.82295e-15 0)
(1 4.00245e-15 0)
(1 -1.14525e-15 0)
(1 9.04323e-15 0)
(1 8.78098e-16 0)
(1 1.18077e-14 0)
(1 -3.83885e-15 0)
(1 7.28562e-17 0)
(1 -3.16624e-15 0)
(1 5.07702e-15 0)
(1 1.74484e-15 0)
(1 -2.09352e-15 0)
(1 4.59611e-15 0)
(1 6.07626e-15 0)
(1 2.91876e-15 0)
(1 6.50947e-15 0)
(1 4.8511e-15 0)
(1 6.80766e-15 0)
(1 1.27249e-15 0)
(1 3.30432e-15 0)
(1 -4.16542e-15 0)
(1 6.39111e-15 0)
(1 -3.18118e-16 0)
(1 1.27182e-14 0)
(1 -3.6989e-15 0)
(1 8.98007e-15 0)
(1 4.22648e-15 0)
(1 8.04107e-15 0)
(1 1.95242e-15 0)
(1 9.88778e-15 0)
(1 9.29387e-15 0)
(1 1.35067e-14 0)
(1 7.1322e-15 0)
(1 7.66478e-15 0)
(1 5.35736e-15 0)
(1 3.21766e-15 0)
(1 -6.8849e-15 0)
(1 -2.82819e-15 0)
(1 4.05562e-15 0)
(1 1.24724e-14 0)
(1 1.3507e-14 0)
(1 1.10286e-14 0)
(1 6.52799e-17 0)
(1 5.29637e-15 0)
(1 1.77704e-15 0)
(1 -1.21799e-15 0)
(1 -1.14839e-15 0)
(1 3.80723e-15 0)
(1 7.95032e-16 0)
(1 7.44958e-15 0)
(1 2.88383e-15 0)
(1 7.88887e-15 0)
(1 5.50868e-15 0)
(1 1.39962e-15 0)
(1 7.94659e-16 0)
(1 2.69126e-15 0)
(1 3.75685e-15 0)
(1 6.93723e-15 0)
(1 6.55293e-15 0)
(1 8.00015e-15 0)
(1 1.14773e-14 0)
(1 1.58313e-14 0)
(1 1.3024e-14 0)
(1 4.1541e-15 0)
(1 -5.65568e-15 0)
(1 2.40336e-15 0)
(1 -4.96117e-16 0)
(1 3.1407e-15 0)
(1 -3.57661e-15 0)
(1 -9.92793e-15 0)
(1 -7.04426e-15 0)
(1 -7.05415e-16 0)
(1 5.75257e-15 0)
(1 7.7826e-15 0)
(1 5.33509e-15 0)
(1 3.68429e-16 0)
(1 -1.35421e-15 0)
(1 1.20994e-15 0)
(1 4.16921e-15 0)
(1 1.00307e-14 0)
(1 -2.05318e-15 0)
(1 -7.45204e-15 0)
(1 -1.05609e-14 0)
(1 -1.04222e-14 0)
(1 -1.75874e-15 0)
(1 3.0015e-15 0)
(1 7.86374e-15 0)
(1 7.95423e-15 0)
(1 5.55958e-15 0)
(1 6.37117e-15 0)
(1 4.0659e-15 0)
(1 4.38852e-15 0)
(1 1.69259e-15 0)
(1 -4.8834e-16 0)
(1 -3.35204e-15 0)
(1 -2.24316e-15 0)
(1 -8.03346e-15 0)
(1 -1.30924e-15 0)
(1 -4.06172e-15 0)
(1 -1.93255e-16 0)
(1 -3.51854e-15 0)
(1 4.03428e-15 0)
(1 -1.0902e-15 0)
(1 5.22529e-15 0)
(1 -3.17328e-15 0)
(1 1.38053e-15 0)
(1 -1.02747e-14 0)
(1 2.06279e-15 0)
(1 7.56359e-15 0)
(1 2.01589e-14 0)
(1 1.05019e-14 0)
(1 6.83168e-15 0)
(1 4.04431e-15 0)
(1 8.4988e-16 0)
(1 -2.22751e-15 0)
(1 -1.56784e-15 0)
(1 8.01165e-15 0)
(1 8.92073e-15 0)
(1 3.26543e-15 0)
(1 2.81549e-15 0)
(1 1.20531e-15 0)
(1 4.88387e-15 0)
(1 2.17176e-15 0)
(1 1.87974e-15 0)
(1 6.39191e-15 0)
(1 7.98631e-15 0)
(1 3.3312e-15 0)
(1 3.52116e-15 0)
(1 -7.36472e-16 0)
(1 5.71391e-15 0)
(1 6.84103e-15 0)
(1 2.86602e-15 0)
(1 5.08157e-15 0)
(1 3.07805e-15 0)
(1 9.23059e-15 0)
(1 1.02808e-14 0)
(1 -1.79391e-15 0)
(1 2.94823e-15 0)
(1 2.88706e-15 0)
(1 5.43122e-15 0)
(1 3.76933e-15 0)
(1 1.07763e-14 0)
(1 6.78967e-15 0)
(1 6.26042e-15 0)
(1 1.06336e-14 0)
(1 6.04658e-15 0)
(1 5.92843e-15 0)
(1 1.48652e-16 0)
(1 -5.46973e-15 0)
(1 2.08255e-15 0)
(1 4.13344e-15 0)
(1 5.06902e-15 0)
(1 6.6171e-15 0)
(1 1.65132e-15 0)
(1 5.93635e-15 0)
(1 3.08208e-15 0)
(1 7.24749e-15 0)
(1 1.91182e-15 0)
(1 1.2057e-14 0)
(1 1.12524e-14 0)
(1 1.66222e-14 0)
(1 3.08768e-15 0)
(1 4.73987e-15 0)
(1 4.62323e-15 0)
(1 2.58699e-15 0)
(1 -4.79379e-15 0)
(1 -1.00369e-15 0)
(1 1.92432e-15 0)
(1 2.48158e-15 0)
(1 -2.95143e-18 0)
(1 7.69616e-16 0)
(1 -3.01307e-15 0)
(1 9.75483e-15 0)
(1 6.13194e-15 0)
(1 1.42057e-14 0)
(1 -3.17976e-15 0)
(1 -4.12081e-15 0)
(1 -7.63617e-15 0)
(1 -5.73279e-15 0)
(1 5.27797e-15 0)
(1 1.6964e-15 0)
(1 4.19251e-16 0)
(1 -6.68772e-15 0)
(1 -3.04997e-16 0)
(1 -2.51376e-15 0)
(1 -5.35588e-15 0)
(1 -7.77992e-15 0)
(1 -3.04365e-15 0)
(1 3.46226e-15 0)
(1 5.52784e-15 0)
(1 -5.26953e-16 0)
(1 -3.659e-15 0)
(1 -5.21352e-15 0)
(1 -8.3765e-16 0)
(1 -3.3983e-15 0)
(1 -6.67588e-16 0)
(1 5.86116e-15 0)
(1 -3.31371e-15 0)
(1 1.92135e-15 0)
(1 4.8115e-15 0)
(1 9.33898e-15 0)
(1 2.13529e-15 0)
(1 -1.4211e-15 0)
(1 -1.01433e-14 0)
(1 -5.15141e-15 0)
(1 -8.09006e-15 0)
(1 1.62312e-15 0)
(1 4.20487e-15 0)
(1 6.17417e-15 0)
(1 7.88382e-15 0)
(1 1.33345e-14 0)
(1 1.37498e-14 0)
(1 -1.30254e-16 0)
(1 -1.98278e-15 0)
(1 -2.81276e-16 0)
(1 -3.95282e-16 0)
(1 4.58779e-15 0)
(1 5.50931e-15 0)
(1 4.22479e-15 0)
(1 2.65888e-15 0)
(1 3.01877e-15 0)
(1 -3.70473e-15 0)
(1 -1.50402e-15 0)
(1 -2.51918e-15 0)
(1 8.64096e-15 0)
(1 1.60227e-14 0)
(1 1.69186e-14 0)
(1 9.87653e-15 0)
(1 6.56301e-15 0)
(1 -2.94749e-16 0)
(1 -4.21935e-16 0)
(1 -4.93755e-15 0)
(1 5.14106e-16 0)
(1 4.1928e-15 0)
(1 6.91409e-15 0)
(1 4.8939e-15 0)
(1 9.37169e-15 0)
(1 1.13983e-14 0)
(1 4.17467e-15 0)
(1 -5.79726e-15 0)
(1 7.34433e-16 0)
(1 5.07688e-15 0)
(1 7.7996e-15 0)
(1 5.08939e-15 0)
(1 8.01565e-15 0)
(1 3.15901e-15 0)
(1 1.31635e-15 0)
(1 4.10506e-15 0)
(1 8.02433e-15 0)
(1 4.11743e-15 0)
(1 3.12907e-15 0)
(1 1.14468e-16 0)
(1 2.76124e-16 0)
(1 2.87089e-15 0)
(1 3.58008e-15 0)
(1 6.57628e-17 0)
(1 2.87033e-15 0)
(1 3.23337e-16 0)
(1 1.12314e-14 0)
(1 9.68667e-15 0)
(1 9.22274e-15 0)
(1 7.13674e-15 0)
(1 7.16777e-15 0)
(1 -3.09169e-15 0)
(1 7.16632e-15 0)
(1 -1.35911e-15 0)
(1 -3.25933e-15 0)
(1 -8.0197e-16 0)
(1 2.6642e-15 0)
(1 6.24976e-16 0)
(1 7.00407e-15 0)
(1 1.09101e-14 0)
(1 6.58191e-15 0)
(1 -5.28006e-15 0)
(1 1.38939e-15 0)
(1 9.35225e-16 0)
(1 1.8961e-15 0)
(1 -1.46795e-15 0)
(1 -4.31939e-15 0)
(1 -3.27153e-15 0)
(1 -1.04417e-15 0)
(1 3.44019e-15 0)
(1 -8.63279e-15 0)
(1 -5.02351e-15 0)
(1 -7.06324e-15 0)
(1 -7.11708e-15 0)
(1 -2.08495e-15 0)
(1 2.93159e-15 0)
(1 -9.59335e-17 0)
(1 -9.57459e-16 0)
(1 1.60937e-15 0)
(1 -6.2318e-15 0)
(1 -7.88184e-15 0)
(1 -2.04602e-15 0)
(1 -1.89579e-15 0)
(1 -2.94657e-16 0)
(1 4.40139e-16 0)
(1 7.89033e-15 0)
(1 1.29698e-14 0)
(1 1.00052e-14 0)
(1 6.7411e-15 0)
(1 -3.13785e-15 0)
(1 8.2461e-16 0)
(1 -1.06217e-14 0)
(1 -4.33611e-15 0)
(1 -5.52428e-15 0)
(1 8.27987e-15 0)
(1 7.79785e-15 0)
(1 1.93503e-15 0)
(1 2.48348e-16 0)
(1 6.59694e-15 0)
(1 1.30788e-14 0)
(1 3.28139e-15 0)
(1 -4.36625e-15 0)
(1 -8.71079e-15 0)
(1 4.9982e-16 0)
(1 -3.03985e-15 0)
(1 5.33586e-15 0)
(1 4.57205e-15 0)
(1 7.64393e-15 0)
(1 9.28789e-15 0)
(1 9.72247e-15 0)
(1 3.81318e-15 0)
(1 2.14706e-15 0)
(1 3.03231e-15 0)
(1 3.35359e-15 0)
(1 3.57854e-15 0)
(1 9.29064e-15 0)
(1 1.31852e-14 0)
(1 6.84884e-15 0)
(1 2.77983e-15 0)
(1 3.45911e-15 0)
(1 6.27114e-15 0)
(1 8.26032e-15 0)
(1 5.98175e-15 0)
(1 3.94626e-16 0)
(1 1.08078e-14 0)
(1 6.78416e-15 0)
(1 6.12587e-15 0)
(1 3.85021e-15 0)
(1 1.27226e-14 0)
(1 9.35717e-15 0)
(1 7.70718e-15 0)
(1 4.28657e-15 0)
(1 7.7568e-16 0)
(1 -1.49196e-16 0)
(1 -5.98635e-16 0)
(1 5.6858e-15 0)
(1 1.23518e-14 0)
(1 3.56801e-15 0)
(1 3.7179e-15 0)
(1 2.34404e-15 0)
(1 2.0509e-15 0)
(1 2.3303e-16 0)
(1 2.28846e-15 0)
(1 -6.84989e-16 0)
(1 3.35715e-16 0)
(1 4.82555e-15 0)
(1 9.68194e-15 0)
(1 1.28184e-14 0)
(1 6.9885e-15 0)
(1 1.54067e-14 0)
(1 1.24288e-14 0)
(1 8.50586e-16 0)
(1 4.31222e-15 0)
(1 2.19217e-15 0)
(1 -1.62382e-15 0)
(1 5.08183e-15 0)
(1 3.0405e-15 0)
(1 -9.21808e-15 0)
(1 -9.23141e-15 0)
(1 3.75106e-15 0)
(1 6.75788e-15 0)
(1 2.93144e-15 0)
(1 -1.231e-15 0)
(1 -4.93997e-15 0)
(1 1.06005e-14 0)
(1 -8.83789e-16 0)
(1 -6.24441e-15 0)
(1 -4.85158e-15 0)
(1 -1.21696e-14 0)
(1 -4.31688e-15 0)
(1 -7.89287e-15 0)
(1 -1.05067e-14 0)
(1 9.67346e-15 0)
(1 6.49783e-15 0)
(1 1.45948e-14 0)
(1 1.28669e-14 0)
(1 2.17039e-15 0)
(1 -8.32455e-15 0)
(1 -4.38781e-15 0)
(1 -4.87064e-15 0)
(1 -1.96207e-15 0)
(1 -4.80486e-15 0)
(1 1.82172e-15 0)
(1 2.5488e-15 0)
(1 -8.14908e-15 0)
(1 -1.68979e-16 0)
(1 -2.78535e-15 0)
(1 8.3591e-15 0)
(1 -6.16566e-17 0)
(1 -2.31119e-15 0)
(1 3.92101e-15 0)
(1 2.60762e-15 0)
(1 9.91202e-15 0)
(1 -4.25168e-15 0)
(1 2.52801e-16 0)
(1 -6.11597e-16 0)
(1 3.87374e-15 0)
(1 8.57836e-15 0)
(1 3.11247e-15 0)
(1 4.63922e-16 0)
(1 5.73573e-15 0)
(1 6.11038e-16 0)
(1 2.38993e-15 0)
(1 -3.28808e-15 0)
(1 4.05195e-15 0)
(1 4.473e-15 0)
(1 1.92252e-15 0)
(1 4.49534e-15 0)
(1 2.37011e-15 0)
(1 4.58529e-15 0)
(1 5.70956e-15 0)
(1 8.90681e-15 0)
(1 6.76017e-15 0)
(1 5.41989e-15 0)
(1 6.50783e-15 0)
(1 7.12439e-15 0)
(1 7.86736e-15 0)
(1 1.12808e-14 0)
(1 8.55506e-15 0)
(1 1.03547e-14 0)
(1 9.77164e-15 0)
(1 6.28219e-15 0)
(1 7.00773e-15 0)
(1 2.30395e-15 0)
(1 3.74825e-15 0)
(1 6.43209e-15 0)
(1 8.73977e-15 0)
(1 1.14197e-14 0)
(1 9.59412e-15 0)
(1 8.12924e-15 0)
(1 8.90072e-15 0)
(1 3.91765e-15 0)
(1 2.32217e-15 0)
(1 2.63585e-15 0)
(1 1.48594e-15 0)
(1 4.37071e-15 0)
(1 1.42899e-15 0)
(1 2.36055e-15 0)
(1 -3.8869e-15 0)
(1 -1.23992e-15 0)
(1 -4.65073e-16 0)
(1 1.18719e-15 0)
(1 1.77924e-15 0)
(1 7.08333e-15 0)
(1 3.14801e-15 0)
(1 8.99975e-15 0)
(1 4.63653e-15 0)
(1 1.10092e-14 0)
(1 1.31117e-14 0)
(1 1.45958e-14 0)
(1 1.17665e-14 0)
(1 -8.80907e-16 0)
(1 -1.31569e-15 0)
(1 -5.22496e-15 0)
(1 6.99668e-15 0)
(1 2.32389e-16 0)
(1 7.92095e-15 0)
(1 9.49971e-15 0)
(1 9.87595e-15 0)
(1 1.87209e-15 0)
(1 1.15107e-15 0)
(1 -1.98835e-15 0)
(1 -1.34543e-14 0)
(1 -4.14383e-15 0)
(1 -1.10281e-15 0)
(1 4.56853e-15 0)
(1 -3.60721e-15 0)
(1 -1.85532e-15 0)
(1 -4.58291e-15 0)
(1 -1.4227e-14 0)
(1 -5.47576e-15 0)
(1 -2.03357e-15 0)
(1 5.17776e-15 0)
(1 4.82555e-15 0)
(1 -4.56222e-15 0)
(1 -2.05294e-15 0)
(1 -5.12694e-15 0)
(1 -8.5486e-15 0)
(1 -1.26182e-14 0)
(1 -9.87287e-16 0)
(1 -2.78404e-15 0)
(1 -5.63154e-15 0)
(1 3.82826e-15 0)
(1 2.77489e-15 0)
(1 1.03284e-14 0)
(1 2.68803e-15 0)
(1 5.35158e-15 0)
(1 5.70512e-15 0)
(1 9.57317e-16 0)
(1 8.55089e-16 0)
(1 7.61305e-17 0)
(1 4.08123e-15 0)
(1 7.77265e-15 0)
(1 8.56393e-15 0)
(1 -4.85997e-16 0)
(1 -7.57663e-15 0)
(1 -7.18853e-15 0)
(1 -1.88439e-15 0)
(1 4.25338e-15 0)
(1 -2.23986e-16 0)
(1 -1.31495e-15 0)
(1 7.45045e-15 0)
(1 5.87245e-15 0)
(1 2.21417e-15 0)
(1 1.60142e-16 0)
(1 -1.67704e-15 0)
(1 2.31013e-15 0)
(1 9.30922e-15 0)
(1 2.10104e-15 0)
(1 7.54664e-16 0)
(1 -3.97679e-15 0)
(1 5.79092e-15 0)
(1 -7.81941e-16 0)
(1 1.76321e-15 0)
(1 8.8025e-15 0)
(1 -3.64401e-17 0)
(1 -9.35567e-16 0)
(1 1.009e-14 0)
(1 4.17917e-15 0)
(1 1.27434e-14 0)
(1 4.6945e-15 0)
(1 1.00542e-14 0)
(1 4.08458e-15 0)
(1 6.41986e-15 0)
(1 2.40396e-15 0)
(1 7.50884e-15 0)
(1 4.27222e-15 0)
(1 1.2573e-14 0)
(1 7.70294e-15 0)
(1 4.41431e-15 0)
(1 1.08691e-14 0)
(1 3.98667e-16 0)
(1 7.55215e-15 0)
(1 1.96247e-15 0)
(1 7.64577e-16 0)
(1 6.97765e-16 0)
(1 -3.36482e-15 0)
(1 -2.03525e-15 0)
(1 -4.68653e-15 0)
(1 -1.51808e-15 0)
(1 1.48795e-15 0)
(1 7.90903e-15 0)
(1 2.87825e-15 0)
(1 8.30134e-15 0)
(1 3.67734e-15 0)
(1 8.49271e-15 0)