/*--------------------------------*- C++ -*----------------------------------*\
| =========                 |                                                 |
| \\      /  F ield         | OpenFOAM: The Open Source CFD Toolbox           |
|  \\    /   O peration     | Version:  v2012                                 |
|   \\  /    A nd           | Website:  www.openfoam.com                      |
|    \\/     M anipulation  |                                                 |
\*---------------------------------------------------------------------------*/
FoamFile
{
    version     2.0;
    format      ascii;
    class       volVectorField;
    location    "0";
    object      U;
}
// * * * * * * * * * * * * * * * * * * * * * * * * * * * * * * * * * * * * * //

dimensions      [0 1 -1 0 0 0 0];


internalField   nonuniform List<vector> 
4000
(
(1 7.209e-18 0)
(1 1.77412e-15 0)
(1 -2.60924e-15 0)
(1 9.88294e-16 0)
(1 2.08554e-15 0)
(1 2.05249e-15 0)
(1 -1.33125e-15 0)
(1 -3.51937e-16 0)
(1 1.28058e-15 0)
(1 -6.06331e-15 0)
(1 -1.73037e-16 0)
(1 2.39139e-15 0)
(1 3.78369e-15 0)
(1 2.87075e-15 0)
(1 2.42875e-15 0)
(1 8.96064e-16 0)
(1 -1.38114e-16 0)
(1 -6.82543e-15 0)
(1 -1.5725e-15 0)
(1 -6.92114e-15 0)
(1 9.2898e-16 0)
(1 -1.46423e-14 0)
(1 -3.43731e-16 0)
(1 -1.95711e-15 0)
(1 1.9728e-15 0)
(1 1.20168e-15 0)
(1 -1.34382e-15 0)
(1 4.12657e-16 0)
(1 3.70828e-15 0)
(1 1.09166e-14 0)
(1 5.55893e-15 0)
(1 -5.71544e-17 0)
(1 -3.95717e-16 0)
(1 4.67041e-15 0)
(1 -1.94231e-15 0)
(1 3.90351e-15 0)
(1 4.3443e-15 0)
(1 3.899e-15 0)
(1 -1.92974e-15 0)
(1 -2.82977e-15 0)
(1 -1.46106e-15 0)
(1 4.23167e-16 0)
(1 -7.41306e-16 0)
(1 -2.2109e-17 0)
(1 -3.01698e-15 0)
(1 -3.01492e-15 0)
(1 7.72282e-16 0)
(1 2.82942e-15 0)
(1 -1.68832e-15 0)
(1 2.05013e-15 0)
(1 2.89496e-15 0)
(1 2.52247e-15 0)
(1 5.24159e-15 0)
(1 -1.1486e-15 0)
(1 -1.45022e-15 0)
(1 -5.09039e-15 0)
(1 -9.10011e-16 0)
(1 -4.47143e-16 0)
(1 -2.37447e-15 0)
(1 2.20433e-15 0)
(1 1.69242e-15 0)
(1 3.09324e-16 0)
(1 2.25163e-15 0)
(1 1.24171e-15 0)
(1 -4.33864e-15 0)
(1 -7.12673e-16 0)
(1 -6.90093e-16 0)
(1 2.93656e-15 0)
(1 1.26636e-15 0)
(1 1.63689e-15 0)
(1 -3.70521e-15 0)
(1 1.00976e-15 0)
(1 -4.37975e-15 0)
(1 -3.77909e-15 0)
(1 -4.43292e-15 0)
(1 -1.07386e-15 0)
(1 -1.66666e-15 0)
(1 -2.36787e-15 0)
(1 3.65908e-15 0)
(1 5.24801e-16 0)
(1 5.91113e-17 0)
(1 2.5622e-15 0)
(1 4.06225e-16 0)
(1 -4.49783e-15 0)
(1 4.56536e-16 0)
(1 6.77138e-16 0)
(1 -1.90531e-15 0)
(1 4.77937e-15 0)
(1 2.20698e-15 0)
(1 2.65982e-15 0)
(1 1.31596e-15 0)
(1 3.04446e-16 0)
(1 -2.45463e-15 0)
(1 -3.01469e-15 0)
(1 -2.82461e-15 0)
(1 -5.13498e-16 0)
(1 1.24599e-15 0)
(1 2.2372e-15 0)
(1 -2.53967e-15 0)
(1 -3.20944e-15 0)
(1 4.99106e-15 0)
(1 -1.89618e-15 0)
(1 -2.2305e-15 0)
(1 2.97101e-15 0)
(1 4.5076e-15 0)
(1 -2.8805e-16 0)
(1 -1.28954e-15 0)
(1 -4.78912e-15 0)
(1 5.02033e-15 0)
(1 -5.69643e-15 0)
(1 -4.7116e-16 0)
(1 6.59942e-15 0)
(1 6.37363e-15 0)
(1 3.67292e-15 0)
(1 2.72034e-15 0)
(1 2.29156e-15 0)
(1 3.07757e-15 0)
(1 -1.04246e-14 0)
(1 -3.11156e-15 0)
(1 -9.36957e-15 0)
(1 2.91774e-15 0)
(1 -1.52923e-14 0)
(1 5.70996e-16 0)
(1 -5.69217e-15 0)
(1 4.91389e-15 0)
(1 6.59845e-16 0)
(1 -5.77544e-15 0)
(1 -1.49446e-15 0)
(1 -3.47361e-16 0)
(1 8.17215e-15 0)
(1 5.3336e-15 0)
(1 -2.87864e-15 0)
(1 -2.16368e-15 0)
(1 8.2225e-15 0)
(1 1.07141e-15 0)
(1 6.20979e-15 0)
(1 2.66113e-15 0)
(1 5.46204e-15 0)
(1 -3.7632e-15 0)
(1 -5.64632e-15 0)
(1 -4.28494e-15 0)
(1 -2.3725e-15 0)
(1 -1.9576e-15 0)
(1 -8.56491e-16 0)
(1 -5.30628e-15 0)
(1 -1.87278e-15 0)
(1 -1.57898e-15 0)
(1 1.93977e-15 0)
(1 1.47264e-15 0)
(1 4.3515e-15 0)
(1 -5.0703e-16 0)
(1 8.94675e-16 0)
(1 4.4146e-16 0)
(1 2.41767e-15 0)
(1 6.20042e-16 0)
(1 -2.83142e-15 0)
(1 -3.88349e-15 0)
(1 1.01877e-15 0)
(1 -3.67246e-15 0)
(1 2.93729e-15 0)
(1 -9.0158e-16 0)
(1 -1.31329e-15 0)
(1 7.34865e-15 0)
(1 4.00679e-15 0)
(1 5.81295e-17 0)
(1 -1.88149e-15 0)
(1 -2.38048e-15 0)
(1 -1.76165e-15 0)
(1 -5.1898e-16 0)
(1 -5.30928e-16 0)
(1 1.31365e-15 0)
(1 1.66696e-15 0)
(1 2.82064e-15 0)
(1 -9.09244e-17 0)
(1 -2.00205e-15 0)
(1 1.66073e-15 0)
(1 3.89248e-15 0)
(1 -7.68775e-17 0)
(1 5.06167e-15 0)
(1 4.81871e-15 0)
(1 -2.75737e-15 0)
(1 4.61778e-15 0)
(1 -1.26645e-15 0)
(1 -4.69291e-15 0)
(1 2.06183e-15 0)
(1 4.08159e-15 0)
(1 -3.45803e-15 0)
(1 -5.56453e-17 0)
(1 -3.47778e-15 0)
(1 -9.76928e-16 0)
(1 -1.0131e-15 0)
(1 7.31244e-16 0)
(1 -5.80808e-15 0)
(1 -3.23269e-15 0)
(1 -1.27144e-15 0)
(1 3.4559e-15 0)
(1 1.52864e-15 0)
(1 7.09782e-15 0)
(1 -4.45308e-15 0)
(1 -5.62524e-15 0)
(1 5.31047e-15 0)
(1 -4.66585e-15 0)
(1 -6.051e-15 0)
(1 -1.46699e-15 0)
(1 3.26646e-16 0)
(1 -8.12305e-16 0)
(1 4.81112e-16 0)
(1 -2.73132e-16 0)
(1 1.81034e-15 0)
(1 4.06428e-15 0)
(1 2.60786e-15 0)
(1 7.78156e-15 0)
(1 -8.69742e-16 0)
(1 1.0659e-14 0)
(1 5.67881e-15 0)
(1 -4.20372e-15 0)
(1 -3.18732e-15 0)
(1 -3.76366e-16 0)
(1 -4.2561e-15 0)
(1 7.0248e-16 0)
(1 3.04541e-15 0)
(1 5.36128e-15 0)
(1 -6.17894e-15 0)
(1 -8.17723e-15 0)
(1 -1.91601e-15 0)
(1 1.45774e-15 0)
(1 2.70595e-15 0)
(1 3.4516e-15 0)
(1 3.59452e-15 0)
(1 5.932e-15 0)
(1 4.58285e-15 0)
(1 -1.21088e-15 0)
(1 -8.75008e-16 0)
(1 6.20475e-15 0)
(1 1.03026e-14 0)
(1 7.35146e-15 0)
(1 4.33729e-15 0)
(1 4.43287e-15 0)
(1 -4.93193e-15 0)
(1 -6.34553e-15 0)
(1 -3.0472e-15 0)
(1 -5.22002e-15 0)
(1 -1.01162e-14 0)
(1 -7.7582e-15 0)
(1 -7.25834e-15 0)
(1 1.49914e-15 0)
(1 2.81594e-15 0)
(1 9.26001e-16 0)
(1 -1.43062e-16 0)
(1 2.60908e-15 0)
(1 1.35209e-15 0)
(1 4.4935e-15 0)
(1 2.40757e-15 0)
(1 4.29182e-15 0)
(1 2.15601e-15 0)
(1 1.15909e-15 0)
(1 -3.66922e-15 0)
(1 -3.8616e-16 0)
(1 -3.60095e-15 0)
(1 -6.5357e-15 0)
(1 -1.97511e-15 0)
(1 6.44528e-16 0)
(1 2.96832e-15 0)
(1 1.16594e-15 0)
(1 3.20964e-15 0)
(1 1.79492e-15 0)
(1 -1.39158e-15 0)
(1 -3.55072e-16 0)
(1 -4.94766e-16 0)
(1 1.92303e-16 0)
(1 4.64298e-15 0)
(1 -5.99097e-16 0)
(1 -7.57854e-16 0)
(1 -2.58938e-15 0)
(1 -2.96928e-15 0)
(1 7.64358e-17 0)
(1 3.80736e-16 0)
(1 1.37484e-16 0)
(1 1.64265e-15 0)
(1 -2.26764e-15 0)
(1 1.22744e-15 0)
(1 -4.16369e-15 0)
(1 -2.86702e-15 0)
(1 -3.57991e-15 0)
(1 4.81762e-15 0)
(1 6.70999e-15 0)
(1 8.69623e-17 0)
(1 -1.12868e-15 0)
(1 -4.30776e-15 0)
(1 -5.94983e-16 0)
(1 -3.66125e-15 0)
(1 1.03517e-15 0)
(1 -9.56652e-16 0)
(1 -3.42871e-15 0)
(1 -3.16494e-15 0)
(1 1.46089e-15 0)
(1 -7.09775e-16 0)
(1 1.82691e-15 0)
(1 -8.6686e-16 0)
(1 -1.56923e-15 0)
(1 4.35161e-15 0)
(1 -4.5527e-15 0)
(1 -8.31491e-15 0)
(1 -6.84371e-15 0)
(1 6.84657e-15 0)
(1 3.62586e-15 0)
(1 2.57934e-15 0)
(1 2.53899e-15 0)
(1 7.74133e-17 0)
(1 -1.32033e-15 0)
(1 6.33745e-15 0)
(1 8.07892e-15 0)
(1 1.54481e-15 0)
(1 9.23855e-15 0)
(1 6.93517e-15 0)
(1 -5.43336e-15 0)
(1 -3.89347e-15 0)
(1 -1.59881e-15 0)
(1 -4.6008e-15 0)
(1 -2.99157e-15 0)
(1 -3.53751e-16 0)
(1 8.16453e-15 0)
(1 6.587e-16 0)
(1 4.68335e-15 0)
(1 7.17012e-16 0)
(1 -5.85142e-17 0)
(1 4.70874e-15 0)
(1 5.45782e-15 0)
(1 6.13029e-15 0)
(1 3.60561e-15 0)
(1 3.81873e-15 0)
(1 1.48637e-15 0)
(1 -2.83314e-15 0)
(1 -3.35819e-15 0)
(1 5.22396e-15 0)
(1 2.38276e-15 0)
(1 6.65054e-15 0)
(1 2.13383e-15 0)
(1 2.04526e-15 0)
(1 1.2557e-15 0)
(1 9.74151e-16 0)
(1 -2.77951e-15 0)
(1 -9.41919e-15 0)
(1 -6.11174e-15 0)
(1 -4.42349e-15 0)
(1 -2.5066e-15 0)
(1 7.79976e-15 0)
(1 6.70587e-15 0)
(1 2.41794e-15 0)
(1 1.48325e-15 0)
(1 4.10183e-15 0)
(1 4.68565e-15 0)
(1 1.31821e-15 0)
(1 -2.81952e-15 0)
(1 -5.43086e-15 0)
(1 -1.40652e-15 0)
(1 -1.35653e-15 0)
(1 -5.38871e-15 0)
(1 -4.39815e-15 0)
(1 -6.79188e-15 0)
(1 -1.35648e-15 0)
(1 2.0469e-15 0)
(1 2.06456e-15 0)
(1 4.93456e-15 0)
(1 2.35771e-15 0)
(1 -4.44274e-16 0)
(1 -2.88168e-15 0)
(1 9.18863e-16 0)
(1 -1.1027e-15 0)
(1 -6.03915e-16 0)
(1 -2.30034e-15 0)
(1 5.01933e-16 0)
(1 -1.39003e-15 0)
(1 -7.22755e-15 0)
(1 -2.55595e-15 0)
(1 -1.01342e-15 0)
(1 3.29813e-16 0)
(1 1.64122e-15 0)
(1 2.18371e-15 0)
(1 -7.26193e-17 0)
(1 6.51583e-15 0)
(1 -6.88586e-16 0)
(1 -3.29744e-15 0)
(1 -2.29038e-15 0)
(1 -1.87194e-15 0)
(1 3.78164e-15 0)
(1 5.19307e-15 0)
(1 5.18937e-15 0)
(1 4.71064e-15 0)
(1 2.60672e-15 0)
(1 2.27236e-15 0)
(1 -7.1164e-16 0)
(1 -5.00439e-16 0)
(1 -1.33878e-15 0)
(1 -4.66164e-15 0)
(1 -4.94847e-15 0)
(1 -2.07148e-15 0)
(1 -7.53163e-15 0)
(1 -5.41024e-15 0)
(1 -2.24879e-15 0)
(1 3.24756e-15 0)
(1 -8.8328e-16 0)
(1 -4.65138e-15 0)
(1 -2.57689e-15 0)
(1 5.98861e-15 0)
(1 5.12453e-15 0)
(1 -5.50164e-15 0)
(1 -4.68925e-15 0)
(1 -5.19584e-15 0)
(1 -1.24193e-15 0)
(1 5.86244e-15 0)
(1 1.39942e-15 0)
(1 9.27219e-15 0)
(1 7.47706e-16 0)
(1 1.07392e-14 0)
(1 4.02345e-15 0)
(1 1.74019e-15 0)
(1 -8.59423e-15 0)
(1 -7.29776e-15 0)
(1 -1.01994e-14 0)
(1 -6.50765e-15 0)
(1 -7.6246e-15 0)
(1 1.62144e-14 0)
(1 1.17349e-14 0)
(1 1.28306e-14 0)
(1 5.67526e-15 0)
(1 -2.32601e-15 0)
(1 6.51386e-15 0)
(1 7.57626e-15 0)
(1 3.43014e-15 0)
(1 5.63101e-15 0)
(1 -2.45595e-16 0)
(1 -4.1479e-16 0)
(1 -3.34339e-15 0)
(1 -1.71773e-15 0)
(1 2.6072e-16 0)
(1 3.17124e-15 0)
(1 4.04722e-15 0)
(1 1.93662e-15 0)
(1 -5.93668e-15 0)
(1 -8.17296e-15 0)
(1 -7.52898e-15 0)
(1 -4.7332e-15 0)
(1 -4.02999e-15 0)
(1 -5.66289e-15 0)
(1 -6.71239e-15 0)
(1 1.53365e-15 0)
(1 9.71279e-15 0)
(1 8.64254e-15 0)
(1 7.24189e-15 0)
(1 4.79635e-15 0)
(1 1.51075e-15 0)
(1 -3.41377e-15 0)
(1 -2.14474e-15 0)
(1 -8.21915e-18 0)
(1 2.11826e-15 0)
(1 1.64442e-15 0)
(1 -4.17269e-15 0)
(1 1.65683e-16 0)
(1 4.5475e-15 0)
(1 -6.98324e-16 0)
(1 -5.51587e-15 0)
(1 2.71995e-15 0)
(1 5.20746e-16 0)
(1 4.58147e-15 0)
(1 -1.35817e-15 0)
(1 6.50755e-17 0)
(1 -1.02782e-15 0)
(1 1.44655e-15 0)
(1 -4.16782e-16 0)
(1 4.99207e-15 0)
(1 1.58442e-15 0)
(1 1.68375e-15 0)
(1 -3.43931e-15 0)
(1 -2.4532e-15 0)
(1 -2.9232e-15 0)
(1 3.6036e-15 0)
(1 6.78707e-15 0)
(1 -2.39075e-15 0)
(1 4.77801e-15 0)
(1 3.88079e-15 0)
(1 6.61162e-15 0)
(1 -3.28039e-15 0)
(1 3.40408e-15 0)
(1 1.38738e-16 0)
(1 1.44058e-15 0)
(1 5.562e-15 0)
(1 -4.50209e-16 0)
(1 4.34752e-15 0)
(1 -1.73202e-15 0)
(1 4.71307e-15 0)
(1 -1.02883e-15 0)
(1 -5.00599e-15 0)
(1 2.97249e-15 0)
(1 4.61818e-16 0)
(1 -8.33901e-15 0)
(1 -4.97913e-15 0)
(1 -6.02837e-15 0)
(1 -6.96248e-15 0)
(1 -1.96693e-16 0)
(1 -3.90523e-15 0)
(1 4.18768e-15 0)
(1 -5.15722e-16 0)
(1 4.43309e-16 0)
(1 1.62738e-15 0)
(1 2.856e-15 0)
(1 -7.05224e-15 0)
(1 -9.79944e-15 0)
(1 -8.71913e-15 0)
(1 1.12951e-16 0)
(1 5.90101e-15 0)
(1 5.0555e-16 0)
(1 9.05732e-15 0)
(1 4.24885e-15 0)
(1 1.28258e-15 0)
(1 6.9306e-15 0)
(1 5.67413e-15 0)
(1 -1.42751e-15 0)
(1 1.52724e-15 0)
(1 -2.34969e-15 0)
(1 3.19819e-16 0)
(1 9.3582e-15 0)
(1 1.20694e-14 0)
(1 2.63163e-15 0)
(1 5.84982e-16 0)
(1 -7.24819e-15 0)
(1 -7.66286e-15 0)
(1 3.64108e-15 0)
(1 5.63336e-15 0)
(1 5.71548e-15 0)
(1 2.92776e-15 0)
(1 8.67501e-15 0)
(1 4.26184e-15 0)
(1 4.06677e-15 0)
(1 1.07251e-15 0)
(1 8.20564e-15 0)
(1 1.22038e-14 0)
(1 6.34815e-15 0)
(1 -6.24144e-15 0)
(1 -1.82097e-14 0)
(1 -8.11633e-15 0)
(1 -5.83653e-15 0)
(1 4.27804e-15 0)
(1 1.83387e-15 0)
(1 3.61097e-15 0)
(1 -1.96059e-15 0)
(1 1.21297e-16 0)
(1 -3.20236e-15 0)
(1 -1.23778e-15 0)
(1 2.15854e-15 0)
(1 2.52581e-15 0)
(1 2.78967e-15 0)
(1 -2.503e-15 0)
(1 5.56829e-16 0)
(1 5.35428e-15 0)
(1 2.26209e-15 0)
(1 -1.23576e-15 0)
(1 1.66158e-15 0)
(1 4.00703e-15 0)
(1 2.88982e-15 0)
(1 2.88487e-15 0)
(1 -3.16735e-15 0)
(1 -1.61761e-15 0)
(1 -6.17171e-15 0)
(1 -8.0805e-16 0)
(1 3.87586e-15 0)
(1 8.38803e-15 0)
(1 1.01901e-14 0)
(1 1.04682e-14 0)
(1 1.68267e-14 0)
(1 1.06752e-14 0)
(1 2.78397e-15 0)
(1 -5.76353e-15 0)
(1 -3.08022e-15 0)
(1 -7.42537e-15 0)
(1 -7.20246e-15 0)
(1 -6.80856e-15 0)
(1 4.81953e-16 0)
(1 2.24768e-15 0)
(1 1.10463e-14 0)
(1 8.31183e-15 0)
(1 9.15638e-15 0)
(1 2.61956e-15 0)
(1 6.2196e-16 0)
(1 -4.62945e-15 0)
(1 -4.11183e-15 0)
(1 -1.7328e-16 0)
(1 6.8812e-16 0)
(1 3.06002e-15 0)
(1 3.82694e-15 0)
(1 -2.62251e-15 0)
(1 -6.11786e-16 0)
(1 1.79512e-16 0)
(1 -2.74446e-15 0)
(1 3.19772e-15 0)
(1 -3.46902e-15 0)
(1 -1.9505e-16 0)
(1 2.01738e-15 0)
(1 1.81436e-15 0)
(1 3.47198e-15 0)
(1 -4.50524e-15 0)
(1 -7.54311e-16 0)
(1 4.37044e-15 0)
(1 -3.78961e-15 0)
(1 3.79288e-15 0)
(1 2.88445e-15 0)
(1 6.12511e-15 0)
(1 -1.08757e-14 0)
(1 -4.4877e-15 0)
(1 -1.43235e-15 0)
(1 -3.9399e-15 0)
(1 3.64094e-16 0)
(1 6.53849e-15 0)
(1 7.45437e-15 0)
(1 1.27754e-15 0)
(1 4.80221e-15 0)
(1 5.97927e-15 0)
(1 6.0672e-15 0)
(1 4.7425e-15 0)
(1 9.42692e-15 0)
(1 4.01715e-16 0)
(1 1.07483e-14 0)
(1 -4.56271e-15 0)
(1 -2.53151e-15 0)
(1 -7.39639e-15 0)
(1 -1.09483e-14 0)
(1 -2.88292e-16 0)
(1 3.03241e-15 0)
(1 8.06134e-15 0)
(1 5.43088e-15 0)
(1 5.89267e-15 0)
(1 5.81607e-15 0)
(1 3.94323e-15 0)
(1 -2.14684e-15 0)
(1 -5.7167e-17 0)
(1 5.37614e-16 0)
(1 5.59323e-15 0)
(1 4.38027e-15 0)
(1 2.01398e-15 0)
(1 -2.75485e-15 0)
(1 -5.14e-17 0)
(1 1.03127e-15 0)
(1 3.43927e-15 0)
(1 2.71106e-15 0)
(1 5.44223e-15 0)
(1 -1.35813e-15 0)
(1 -4.56843e-15 0)
(1 -9.33411e-15 0)
(1 8.03425e-15 0)
(1 9.20958e-15 0)
(1 7.14013e-15 0)
(1 -4.17865e-16 0)
(1 -6.41681e-15 0)
(1 -9.50527e-16 0)
(1 -4.17267e-16 0)
(1 3.1005e-15 0)
(1 2.17457e-15 0)
(1 9.67541e-16 0)
(1 -2.63088e-16 0)
(1 -2.42013e-15 0)
(1 4.79023e-16 0)
(1 2.098e-15 0)
(1 1.99512e-15 0)
(1 1.71918e-15 0)
(1 -2.16207e-15 0)
(1 -1.7556e-15 0)
(1 6.64889e-15 0)
(1 5.80952e-15 0)
(1 2.99244e-15 0)
(1 7.11988e-15 0)
(1 2.00621e-15 0)
(1 -3.6158e-16 0)
(1 -3.30946e-15 0)
(1 2.65566e-15 0)
(1 6.59802e-15 0)
(1 2.42546e-15 0)
(1 -1.11024e-15 0)
(1 1.91732e-15 0)
(1 4.61964e-15 0)
(1 3.94133e-15 0)
(1 4.32857e-15 0)
(1 7.61538e-15 0)
(1 4.75049e-15 0)
(1 9.16835e-16 0)
(1 1.93494e-15 0)
(1 2.99045e-15 0)
(1 3.68412e-15 0)
(1 7.5701e-15 0)
(1 4.83487e-15 0)
(1 4.59836e-15 0)
(1 1.01645e-15 0)
(1 2.1699e-15 0)
(1 1.46792e-15 0)
(1 -6.07373e-16 0)
(1 6.07547e-15 0)
(1 6.67924e-15 0)
(1 1.80739e-15 0)
(1 3.13515e-15 0)
(1 4.54427e-15 0)
(1 3.92137e-15 0)
(1 -1.7124e-15 0)
(1 -1.70075e-15 0)
(1 -3.66421e-15 0)
(1 3.3225e-15 0)
(1 3.08944e-15 0)
(1 4.57823e-16 0)
(1 6.51492e-15 0)
(1 -3.17357e-15 0)
(1 -3.07086e-15 0)
(1 -2.45566e-15 0)
(1 -1.42356e-14 0)
(1 -3.11224e-15 0)
(1 2.89634e-15 0)
(1 9.91179e-15 0)
(1 1.29911e-14 0)
(1 7.32844e-15 0)
(1 7.1802e-16 0)
(1 8.70213e-15 0)
(1 -1.2843e-15 0)
(1 1.74256e-14 0)
(1 -3.99918e-15 0)
(1 1.23213e-15 0)
(1 -1.24575e-14 0)
(1 -1.0243e-14 0)
(1 -8.85322e-15 0)
(1 5.71691e-15 0)
(1 1.07846e-14 0)
(1 7.2334e-15 0)
(1 5.69762e-15 0)
(1 1.0293e-16 0)
(1 -1.62823e-15 0)
(1 -5.67866e-15 0)
(1 -2.11499e-15 0)
(1 2.61634e-15 0)
(1 5.44705e-15 0)
(1 -1.89276e-15 0)
(1 -5.92338e-15 0)
(1 1.38943e-14 0)
(1 8.49165e-15 0)
(1 5.85578e-17 0)
(1 -1.32794e-14 0)
(1 -8.22397e-16 0)
(1 -2.73625e-15 0)
(1 3.96813e-15 0)
(1 5.6419e-15 0)
(1 2.3726e-15 0)
(1 -7.89156e-17 0)
(1 -2.9522e-15 0)
(1 4.815e-15 0)
(1 3.25795e-15 0)
(1 7.56772e-15 0)
(1 -1.45146e-15 0)
(1 6.91242e-15 0)
(1 6.73175e-15 0)
(1 5.76942e-15 0)
(1 -2.48768e-15 0)
(1 5.00282e-15 0)
(1 -3.924e-15 0)
(1 -3.01765e-15 0)
(1 -1.17383e-15 0)
(1 -7.46211e-16 0)
(1 -1.33345e-16 0)
(1 3.41379e-15 0)
(1 4.38337e-15 0)
(1 3.5072e-15 0)
(1 1.37004e-15 0)
(1 7.54147e-15 0)
(1 5.84411e-15 0)
(1 5.48802e-15 0)
(1 1.19931e-15 0)
(1 2.54216e-15 0)
(1 7.45047e-15 0)
(1 7.18476e-15 0)
(1 4.95432e-15 0)
(1 5.21952e-15 0)
(1 2.6072e-15 0)
(1 1.86837e-15 0)
(1 4.19927e-15 0)
(1 -2.16806e-15 0)
(1 -3.59772e-15 0)
(1 2.43527e-15 0)
(1 2.67839e-16 0)
(1 4.4547e-15 0)
(1 -9.19885e-16 0)
(1 4.45642e-15 0)
(1 9.03818e-15 0)
(1 3.78323e-15 0)
(1 1.32917e-15 0)
(1 3.25599e-16 0)
(1 -1.78646e-15 0)
(1 5.43688e-15 0)
(1 2.47036e-15 0)
(1 2.70829e-15 0)
(1 5.85753e-15 0)
(1 5.82645e-15 0)
(1 5.16353e-15 0)
(1 5.10542e-16 0)
(1 4.13433e-15 0)
(1 4.20964e-15 0)
(1 1.05676e-14 0)
(1 1.05938e-15 0)
(1 -2.43481e-15 0)
(1 1.42479e-15 0)
(1 -8.85409e-16 0)
(1 -3.56189e-16 0)
(1 -3.74317e-15 0)
(1 -2.51732e-15 0)
(1 8.12432e-15 0)
(1 -9.94314e-15 0)
(1 -6.5652e-15 0)
(1 -3.00132e-15 0)
(1 4.57786e-15 0)
(1 5.43991e-15 0)
(1 6.68318e-15 0)
(1 3.36857e-15 0)
(1 9.59348e-15 0)
(1 6.09393e-15 0)
(1 1.3199e-14 0)
(1 -3.38671e-15 0)
(1 -1.56563e-15 0)
(1 2.44334e-15 0)
(1 3.32119e-15 0)
(1 -5.17844e-15 0)
(1 -4.09128e-15 0)
(1 2.25987e-15 0)
(1 9.1454e-15 0)
(1 4.43731e-15 0)
(1 3.08113e-15 0)
(1 -4.07262e-15 0)
(1 -2.83842e-15 0)
(1 -1.47662e-14 0)
(1 -1.20463e-14 0)
(1 -7.98011e-15 0)
(1 3.13641e-15 0)
(1 7.61019e-15 0)
(1 7.46393e-15 0)
(1 3.08587e-16 0)
(1 4.37079e-15 0)
(1 3.61856e-15 0)
(1 4.37635e-15 0)
(1 -4.95887e-15 0)
(1 3.80291e-15 0)
(1 2.03114e-15 0)
(1 1.10164e-14 0)
(1 6.65717e-15 0)
(1 5.49165e-15 0)
(1 5.2407e-15 0)
(1 3.42926e-15 0)
(1 -9.30563e-15 0)
(1 -6.78739e-15 0)
(1 2.92927e-15 0)
(1 4.57727e-15 0)
(1 1.22773e-14 0)
(1 6.25404e-15 0)
(1 2.31207e-15 0)
(1 -1.6262e-15 0)
(1 -4.98316e-15 0)
(1 5.34369e-15 0)
(1 -5.00659e-15 0)
(1 5.29513e-15 0)
(1 -2.5902e-15 0)
(1 7.30619e-16 0)
(1 -1.05199e-15 0)
(1 -5.85511e-15 0)
(1 -2.34804e-15 0)
(1 1.11275e-14 0)
(1 1.49996e-14 0)
(1 1.57396e-14 0)
(1 1.95781e-14 0)
(1 1.50874e-14 0)
(1 8.21348e-15 0)
(1 1.2092e-14 0)
(1 8.19415e-15 0)
(1 5.13495e-15 0)
(1 -4.47775e-15 0)
(1 -6.25077e-15 0)
(1 -2.40814e-15 0)
(1 9.95524e-16 0)
(1 -1.98736e-15 0)
(1 6.70744e-15 0)
(1 1.04425e-14 0)
(1 5.93361e-15 0)
(1 6.57703e-15 0)
(1 3.45501e-15 0)
(1 -4.69017e-15 0)
(1 -3.34316e-15 0)
(1 -5.61926e-15 0)
(1 -7.78525e-16 0)
(1 4.02787e-15 0)
(1 3.1488e-15 0)
(1 5.06038e-15 0)
(1 7.17629e-15 0)
(1 1.00079e-14 0)
(1 8.30259e-15 0)
(1 1.08802e-14 0)
(1 7.01499e-15 0)
(1 1.09924e-14 0)
(1 1.28648e-14 0)
(1 1.56045e-14 0)
(1 2.02936e-14 0)
(1 6.67831e-16 0)
(1 1.71904e-15 0)
(1 7.49255e-15 0)
(1 -6.55395e-16 0)
(1 -4.99416e-15 0)
(1 1.52532e-15 0)
(1 2.8416e-15 0)
(1 4.11043e-15 0)
(1 -5.22535e-15 0)
(1 -1.01213e-14 0)
(1 1.92228e-15 0)
(1 2.20678e-15 0)
(1 6.52634e-15 0)
(1 5.72653e-15 0)
(1 6.30448e-15 0)
(1 3.93033e-15 0)
(1 2.21356e-15 0)
(1 2.20208e-15 0)
(1 2.88283e-15 0)
(1 -1.3755e-14 0)
(1 -1.09964e-15 0)
(1 -8.11219e-15 0)
(1 -8.53267e-16 0)
(1 2.56307e-15 0)
(1 3.35095e-15 0)
(1 8.7995e-15 0)
(1 6.93182e-15 0)
(1 7.19692e-16 0)
(1 3.6964e-15 0)
(1 2.66541e-15 0)
(1 -8.63238e-15 0)
(1 -1.07308e-14 0)
(1 -4.85426e-15 0)
(1 -4.92236e-15 0)
(1 -4.93028e-15 0)
(1 4.27724e-15 0)
(1 5.85842e-15 0)
(1 -1.8497e-15 0)
(1 2.0993e-15 0)
(1 8.97559e-15 0)
(1 9.49402e-15 0)
(1 3.23857e-15 0)
(1 6.38083e-15 0)
(1 4.67164e-15 0)
(1 -7.84768e-15 0)
(1 1.13711e-15 0)
(1 -2.70049e-15 0)
(1 3.09151e-15 0)
(1 -3.6188e-15 0)
(1 4.90008e-15 0)
(1 6.75656e-15 0)
(1 8.74604e-15 0)
(1 7.91869e-15 0)
(1 5.12119e-15 0)
(1 1.42075e-15 0)
(1 7.36818e-15 0)
(1 6.05974e-17 0)
(1 9.19427e-15 0)
(1 4.511e-16 0)
(1 1.96124e-15 0)
(1 3.04012e-15 0)
(1 4.22526e-15 0)
(1 7.15206e-15 0)
(1 2.71967e-15 0)
(1 1.88799e-15 0)
(1 8.23285e-15 0)
(1 1.15857e-14 0)
(1 9.37324e-15 0)
(1 1.50245e-14 0)
(1 8.46474e-15 0)
(1 3.78644e-15 0)
(1 2.7616e-15 0)
(1 1.14557e-16 0)
(1 6.35498e-15 0)
(1 2.38203e-15 0)
(1 4.02754e-15 0)
(1 4.9255e-15 0)
(1 4.40663e-15 0)
(1 5.31421e-15 0)
(1 4.05318e-15 0)
(1 1.69525e-15 0)
(1 1.58077e-16 0)
(1 2.73143e-15 0)
(1 1.11551e-15 0)
(1 1.71944e-15 0)
(1 3.79796e-16 0)
(1 5.27633e-15 0)
(1 1.695e-15 0)
(1 6.79582e-15 0)
(1 4.96661e-15 0)
(1 4.98865e-15 0)
(1 5.25162e-15 0)
(1 6.22228e-15 0)
(1 6.80508e-15 0)
(1 1.33762e-14 0)
(1 6.98171e-15 0)
(1 1.34415e-14 0)
(1 8.56463e-15 0)
(1 2.31346e-14 0)
(1 2.16603e-14 0)
(1 -7.98083e-17 0)
(1 -1.465e-15 0)
(1 7.56925e-16 0)
(1 5.28515e-15 0)
(1 -4.47557e-15 0)
(1 9.07772e-16 0)
(1 2.25654e-15 0)
(1 -8.86513e-15 0)
(1 3.9766e-15 0)
(1 -1.24206e-14 0)
(1 1.91364e-15 0)
(1 -8.63515e-15 0)
(1 2.83688e-15 0)
(1 1.01823e-14 0)
(1 9.68425e-15 0)
(1 1.02997e-14 0)
(1 2.79326e-15 0)
(1 -5.78381e-15 0)
(1 8.7741e-15 0)
(1 -2.89519e-15 0)
(1 -2.37326e-15 0)
(1 -1.05099e-14 0)
(1 -7.87681e-15 0)
(1 -4.19075e-15 0)
(1 -5.62272e-15 0)
(1 -3.53489e-16 0)
(1 3.58701e-15 0)
(1 1.07024e-14 0)
(1 8.91442e-15 0)
(1 9.22304e-16 0)
(1 -6.9725e-15 0)
(1 -7.95765e-15 0)
(1 -5.7311e-15 0)
(1 -4.08391e-15 0)
(1 -6.81021e-16 0)
(1 4.92524e-15 0)
(1 9.51735e-15 0)
(1 2.4164e-15 0)
(1 4.43734e-15 0)
(1 1.23136e-16 0)
(1 1.38253e-14 0)
(1 1.09959e-15 0)
(1 1.00435e-14 0)
(1 1.71851e-15 0)
(1 -2.1443e-15 0)
(1 -4.08752e-15 0)
(1 -1.32507e-15 0)
(1 3.15495e-15 0)
(1 1.93965e-15 0)
(1 -1.56692e-15 0)
(1 2.94809e-15 0)
(1 7.95025e-15 0)
(1 8.19302e-15 0)
(1 3.53256e-15 0)
(1 7.87143e-15 0)
(1 2.54254e-15 0)
(1 5.1175e-15 0)
(1 -4.24303e-15 0)
(1 8.87331e-15 0)
(1 -4.18026e-15 0)
(1 1.01024e-14 0)
(1 -4.13154e-15 0)
(1 4.17563e-15 0)
(1 5.86371e-15 0)
(1 1.291e-14 0)
(1 3.98492e-15 0)
(1 7.12256e-15 0)
(1 6.39865e-15 0)
(1 6.89767e-15 0)
(1 7.18783e-15 0)
(1 7.03817e-15 0)
(1 6.91027e-16 0)
(1 5.34602e-15 0)
(1 -4.40522e-16 0)
(1 -2.30021e-15 0)
(1 7.10147e-15 0)
(1 1.29939e-14 0)
(1 1.24312e-14 0)
(1 8.91841e-15 0)
(1 6.44494e-15 0)
(1 1.06482e-15 0)
(1 1.53572e-15 0)
(1 3.75609e-15 0)
(1 -3.62251e-15 0)
(1 1.0675e-15 0)
(1 -2.85287e-15 0)
(1 4.76773e-15 0)
(1 1.71167e-15 0)
(1 4.78852e-15 0)
(1 7.12885e-15 0)
(1 7.12604e-15 0)
(1 5.81434e-15 0)
(1 3.13405e-15 0)
(1 7.62492e-16 0)
(1 4.78079e-15 0)
(1 7.12807e-15 0)
(1 1.12113e-14 0)
(1 1.3545e-14 0)
(1 1.54501e-14 0)
(1 1.20186e-14 0)
(1 3.04616e-15 0)
(1 -4.73948e-15 0)
(1 3.19254e-15 0)
(1 -5.6975e-16 0)
(1 -3.0688e-16 0)
(1 -1.55224e-15 0)
(1 -1.05882e-15 0)
(1 -6.44172e-15 0)
(1 -5.70673e-15 0)
(1 3.25937e-15 0)
(1 6.7447e-15 0)
(1 7.81278e-15 0)
(1 2.53715e-15 0)
(1 7.26069e-18 0)
(1 -6.52993e-16 0)
(1 3.49001e-15 0)
(1 8.40906e-15 0)
(1 -2.04074e-15 0)
(1 1.23694e-16 0)
(1 -4.78952e-15 0)
(1 -1.07849e-14 0)
(1 -1.1639e-14 0)
(1 -4.05946e-15 0)
(1 5.91922e-15 0)
(1 1.1181e-14 0)
(1 4.91616e-15 0)
(1 6.95099e-15 0)
(1 5.29879e-15 0)
(1 4.90071e-15 0)
(1 4.08822e-15 0)
(1 4.14392e-16 0)
(1 -7.69297e-15 0)
(1 -8.26476e-15 0)
(1 -7.90399e-15 0)
(1 5.95732e-16 0)
(1 1.51158e-15 0)
(1 2.81433e-15 0)
(1 -7.81251e-15 0)
(1 3.19723e-15 0)
(1 1.28674e-15 0)
(1 1.13082e-14 0)
(1 1.36231e-15 0)
(1 -1.25126e-15 0)
(1 -7.95009e-15 0)
(1 5.19804e-15 0)
(1 3.70322e-15 0)
(1 9.44062e-15 0)
(1 7.74987e-15 0)
(1 7.03349e-15 0)
(1 8.55054e-16 0)
(1 5.50687e-16 0)
(1 7.37282e-15 0)
(1 4.08844e-15 0)
(1 5.39396e-15 0)
(1 7.42752e-15 0)
(1 3.15721e-15 0)
(1 2.61897e-15 0)
(1 -1.1829e-15 0)
(1 4.0987e-15 0)
(1 3.65268e-15 0)
(1 3.25281e-15 0)
(1 2.72702e-15 0)
(1 3.02502e-15 0)
(1 4.963e-15 0)
(1 9.92471e-15 0)
(1 3.91395e-15 0)
(1 1.67153e-15 0)
(1 6.81584e-15 0)
(1 -1.81915e-15 0)
(1 4.27405e-15 0)
(1 7.76829e-15 0)
(1 1.86077e-15 0)
(1 6.55787e-15 0)
(1 4.52471e-15 0)
(1 5.35396e-15 0)
(1 3.78261e-15 0)
(1 7.37372e-15 0)
(1 2.63821e-15 0)
(1 3.5962e-15 0)
(1 7.23578e-15 0)
(1 8.09179e-15 0)
(1 1.13121e-14 0)
(1 8.89414e-15 0)
(1 4.50918e-15 0)
(1 2.71889e-15 0)
(1 -8.69513e-15 0)
(1 -2.76302e-15 0)
(1 2.93779e-15 0)
(1 2.57039e-15 0)
(1 9.99932e-15 0)
(1 5.33852e-15 0)
(1 1.11236e-14 0)
(1 5.07074e-15 0)
(1 6.47271e-15 0)
(1 3.82303e-15 0)
(1 1.20695e-14 0)
(1 8.25224e-15 0)
(1 1.6471e-14 0)
(1 6.44609e-15 0)
(1 4.01454e-15 0)
(1 3.67588e-15 0)
(1 3.6783e-15 0)
(1 -4.50921e-15 0)
(1 -2.03019e-15 0)
(1 -9.56412e-16 0)
(1 1.06562e-16 0)
(1 1.83467e-15 0)
(1 5.80676e-15 0)
(1 -3.10198e-15 0)
(1 1.34286e-14 0)
(1 5.31464e-15 0)
(1 9.84682e-15 0)
(1 4.10308e-15 0)
(1 -7.12718e-16 0)
(1 -9.3626e-15 0)
(1 -9.88788e-15 0)
(1 6.95756e-16 0)
(1 5.17621e-15 0)
(1 6.82132e-15 0)
(1 -1.655e-17 0)
(1 -8.545e-15 0)
(1 -6.04566e-15 0)
(1 -9.31789e-15 0)
(1 -7.99888e-15 0)
(1 -5.37414e-15 0)
(1 1.21504e-15 0)
(1 1.31691e-14 0)
(1 6.92865e-16 0)
(1 -1.76526e-15 0)
(1 -4.46625e-15 0)
(1 -8.82232e-16 0)
(1 -5.13068e-15 0)
(1 -7.88263e-15 0)
(1 1.5744e-15 0)
(1 2.25011e-15 0)
(1 7.29041e-15 0)
(1 4.30092e-15 0)
(1 4.56037e-15 0)
(1 6.03642e-15 0)
(1 3.64165e-15 0)
(1 -8.00851e-15 0)
(1 -4.78573e-15 0)
(1 -7.58101e-15 0)
(1 -6.19237e-15 0)
(1 3.36418e-15 0)
(1 1.12042e-14 0)
(1 8.51362e-15 0)
(1 3.19234e-15 0)
(1 9.09559e-15 0)
(1 9.3828e-15 0)
(1 2.93141e-16 0)
(1 2.31107e-15 0)
(1 4.07688e-16 0)
(1 2.67323e-15 0)
(1 2.29304e-15 0)
(1 3.82555e-15 0)
(1 2.2188e-15 0)
(1 3.98376e-15 0)
(1 -2.04682e-15 0)
(1 -9.21383e-16 0)
(1 -4.6247e-15 0)
(1 7.16626e-15 0)
(1 1.30551e-14 0)
(1 1.66262e-14 0)
(1 1.35798e-14 0)
(1 7.31376e-15 0)
(1 -1.3816e-15 0)
(1 4.99333e-16 0)
(1 -3.02012e-15 0)
(1 -5.97896e-17 0)
(1 2.88991e-15 0)
(1 6.46132e-15 0)
(1 4.7958e-15 0)
(1 7.94292e-15 0)
(1 9.98927e-15 0)
(1 6.36829e-15 0)
(1 -5.52084e-15 0)
(1 -3.75518e-15 0)
(1 6.67894e-15 0)
(1 5.26973e-15 0)
(1 2.73307e-15 0)
(1 6.69769e-15 0)
(1 5.97185e-15 0)
(1 7.16538e-15 0)
(1 1.28695e-15 0)
(1 5.28061e-15 0)
(1 1.95849e-15 0)
(1 2.27728e-15 0)
(1 1.14539e-15 0)
(1 6.49237e-15 0)
(1 2.78321e-15 0)
(1 2.97288e-15 0)
(1 1.13605e-15 0)
(1 4.20788e-15 0)
(1 7.90587e-16 0)
(1 7.05907e-15 0)
(1 1.12779e-14 0)
(1 1.12435e-14 0)
(1 6.67454e-15 0)
(1 6.96207e-15 0)
(1 -3.96142e-15 0)
(1 8.48317e-15 0)
(1 -1.60367e-15 0)
(1 -2.90544e-15 0)
(1 -2.11628e-15 0)
(1 -1.9683e-15 0)
(1 -7.94814e-16 0)
(1 9.16458e-15 0)
(1 1.41804e-14 0)
(1 1.38238e-14 0)
(1 2.33208e-15 0)
(1 -3.37793e-15 0)
(1 -9.58206e-16 0)
(1 2.748e-16 0)
(1 -2.13246e-15 0)
(1 -6.36876e-15 0)
(1 -2.61902e-15 0)
(1 1.15586e-15 0)
(1 7.5398e-16 0)
(1 -2.41373e-15 0)
(1 -6.71635e-15 0)
(1 -7.01081e-15 0)
(1 -3.62485e-15 0)
(1 -5.36584e-15 0)
(1 -3.62413e-15 0)
(1 1.29731e-15 0)
(1 -2.77293e-15 0)
(1 -1.5949e-15 0)
(1 -1.71349e-15 0)
(1 -4.62941e-15 0)
(1 -3.73543e-15 0)
(1 -5.19935e-15 0)
(1 -5.21576e-15 0)
(1 -1.67716e-15 0)
(1 9.19387e-15 0)
(1 1.32478e-14 0)
(1 8.38377e-15 0)
(1 1.19774e-14 0)
(1 -1.3521e-15 0)
(1 4.50764e-15 0)
(1 -5.76507e-15 0)
(1 -2.92839e-15 0)
(1 -5.20666e-15 0)
(1 2.359e-15 0)
(1 9.66701e-15 0)
(1 3.2909e-15 0)
(1 1.97831e-15 0)
(1 7.87702e-16 0)
(1 6.45472e-15 0)
(1 5.96324e-15 0)
(1 1.67974e-15 0)
(1 -3.74969e-15 0)
(1 -6.52571e-16 0)
(1 -7.55932e-15 0)
(1 1.6871e-15 0)
(1 8.7517e-15 0)
(1 9.96158e-15 0)
(1 3.52089e-15 0)
(1 6.29645e-15 0)
(1 5.16045e-15 0)
(1 4.93538e-15 0)
(1 -2.61099e-16 0)
(1 2.0932e-15 0)
(1 5.40764e-15 0)
(1 1.32036e-14 0)
(1 1.23105e-14 0)
(1 3.52726e-15 0)
(1 3.9232e-15 0)
(1 9.27559e-16 0)
(1 3.68049e-15 0)
(1 3.79452e-15 0)
(1 8.56685e-15 0)
(1 5.94607e-15 0)
(1 8.88386e-15 0)
(1 4.76182e-15 0)
(1 9.75576e-15 0)
(1 1.72847e-15 0)
(1 8.9608e-15 0)
(1 1.55788e-14 0)
(1 6.09555e-15 0)
(1 3.22211e-15 0)
(1 -1.20483e-15 0)
(1 2.21496e-15 0)
(1 1.98435e-15 0)
(1 1.93538e-15 0)
(1 9.3494e-15 0)
(1 2.73389e-15 0)
(1 1.49003e-15 0)
(1 6.12151e-15 0)
(1 9.53402e-15 0)
(1 2.76402e-15 0)
(1 2.25187e-15 0)
(1 -1.36198e-15 0)
(1 -7.83665e-16 0)
(1 3.6165e-16 0)
(1 3.75158e-15 0)
(1 1.59093e-14 0)
(1 1.36666e-14 0)
(1 1.40696e-14 0)
(1 1.34417e-14 0)
(1 -3.79345e-16 0)
(1 4.43196e-15 0)
(1 2.8993e-15 0)
(1 -6.71976e-16 0)
(1 -1.37852e-15 0)
(1 1.43482e-15 0)
(1 -4.2767e-15 0)
(1 -6.11709e-15 0)
(1 4.22567e-15 0)
(1 8.34684e-15 0)
(1 4.82171e-15 0)
(1 6.2504e-15 0)
(1 -3.04587e-15 0)
(1 -6.10117e-15 0)
(1 1.79759e-15 0)
(1 -7.00138e-15 0)
(1 -6.30887e-15 0)
(1 -7.11291e-15 0)
(1 -5.79072e-15 0)
(1 -1.3927e-15 0)
(1 -8.92311e-15 0)
(1 -2.54298e-15 0)
(1 1.00256e-14 0)
(1 1.90024e-14 0)
(1 1.38765e-14 0)
(1 9.03272e-15 0)
(1 -6.92997e-15 0)
(1 -1.07712e-14 0)
(1 -9.3226e-15 0)
(1 -4.58884e-15 0)
(1 -4.23375e-15 0)
(1 -1.48339e-16 0)
(1 2.74003e-16 0)
(1 -1.04287e-14 0)
(1 2.82006e-15 0)
(1 2.02846e-15 0)
(1 6.4853e-15 0)
(1 6.28235e-15 0)
(1 2.12406e-16 0)
(1 4.69271e-15 0)
(1 1.14376e-15 0)
(1 6.62996e-15 0)
(1 -1.72949e-15 0)
(1 -1.56389e-16 0)
(1 3.91636e-15 0)
(1 1.19101e-15 0)
(1 1.7636e-15 0)
(1 -3.21298e-15 0)
(1 -3.48082e-15 0)
(1 9.02302e-15 0)
(1 9.63161e-15 0)
(1 5.73534e-15 0)
(1 -4.50654e-15 0)
(1 1.12084e-16 0)
(1 7.68672e-15 0)
(1 4.80968e-15 0)
(1 5.26196e-15 0)
(1 2.5542e-15 0)
(1 3.14498e-15 0)
(1 3.83926e-15 0)
(1 5.9916e-15 0)
(1 4.31786e-15 0)
(1 5.24469e-15 0)
(1 5.11172e-15 0)
(1 1.15679e-14 0)
(1 7.60563e-15 0)
(1 1.14989e-14 0)
(1 9.26311e-15 0)
(1 9.8411e-15 0)
(1 9.75281e-15 0)
(1 7.43305e-15 0)
(1 8.26834e-15 0)
(1 3.54011e-15 0)
(1 2.21358e-15 0)
(1 6.17802e-15 0)
(1 7.96191e-15 0)
(1 7.08618e-15 0)
(1 4.89163e-15 0)
(1 6.53874e-15 0)
(1 1.16364e-14 0)
(1 8.26456e-15 0)
(1 -1.49649e-15 0)
(1 2.40134e-15 0)
(1 3.78378e-15 0)
(1 6.78665e-15 0)
(1 1.25987e-16 0)
(1 -1.52542e-15 0)
(1 -1.99133e-15 0)
(1 2.28136e-15 0)
(1 2.10076e-16 0)
(1 2.78881e-15 0)
(1 4.73197e-16 0)
(1 7.4123e-15 0)
(1 3.74897e-15 0)
(1 8.56422e-15 0)
(1 4.54404e-15 0)
(1 9.76289e-15 0)
(1 1.21553e-14 0)
(1 1.5558e-14 0)
(1 1.45056e-14 0)
(1 -1.26938e-15 0)
(1 1.24476e-15 0)
(1 -7.54328e-15 0)
(1 5.82402e-15 0)
(1 1.72784e-16 0)
(1 6.64485e-15 0)
(1 8.33028e-15 0)
(1 1.06768e-14 0)
(1 6.19126e-15 0)
(1 -5.81892e-17 0)
(1 -1.16673e-15 0)
(1 -9.21917e-15 0)
(1 -2.54912e-15 0)
(1 -3.00913e-15 0)
(1 -3.61609e-16 0)
(1 5.71685e-16 0)
(1 -2.20088e-15 0)
(1 -4.77533e-15 0)
(1 -6.2422e-15 0)
(1 -7.34802e-15 0)
(1 -3.59627e-15 0)
(1 -4.69167e-15 0)
(1 -4.00898e-16 0)
(1 -3.12824e-15 0)
(1 2.48734e-15 0)
(1 -1.15714e-16 0)
(1 4.68815e-16 0)
(1 -8.96653e-15 0)
(1 -1.60401e-14 0)
(1 -5.0531e-15 0)
(1 -5.86253e-15 0)
(1 4.57914e-15 0)
(1 5.43225e-17 0)
(1 9.89679e-15 0)
(1 4.92488e-15 0)
(1 3.93745e-15 0)
(1 7.96543e-15 0)
(1 2.90009e-15 0)
(1 2.70647e-15 0)
(1 -3.7562e-15 0)
(1 1.66804e-15 0)
(1 4.41668e-15 0)
(1 6.55725e-15 0)
(1 2.45251e-15 0)
(1 -5.33738e-15 0)
(1 -3.81871e-15 0)
(1 3.40209e-15 0)
(1 -1.06368e-15 0)
(1 -6.01228e-16 0)
(1 -2.28026e-15 0)
(1 9.14601e-15 0)
(1 5.89386e-15 0)
(1 1.60932e-15 0)
(1 9.48988e-16 0)
(1 3.30337e-15 0)
(1 4.05093e-16 0)
(1 5.84053e-15 0)
(1 5.08456e-15 0)
(1 3.65024e-15 0)
(1 -5.26197e-15 0)
(1 -1.82897e-15 0)
(1 2.1543e-15 0)
(1 1.76801e-15 0)
(1 1.20495e-14 0)
(1 3.65072e-15 0)
(1 -6.11119e-15 0)
(1 5.26499e-15 0)
(1 1.67686e-15 0)
(1 1.62326e-14 0)
(1 8.28252e-15 0)
(1 5.55063e-15 0)
(1 4.9428e-15 0)
(1 9.39618e-15 0)
(1 1.51625e-15 0)
(1 9.10411e-15 0)
(1 2.77435e-15 0)
(1 3.92119e-15 0)
(1 9.07818e-15 0)
(1 5.11195e-15 0)
(1 1.46616e-14 0)
(1 9.05923e-17 0)
(1 5.83627e-15 0)
(1 1.20339e-15 0)
(1 4.26698e-15 0)
(1 4.7435e-16 0)
(1 -2.8738e-15 0)
(1 -1.35537e-15 0)
(1 -1.34361e-15 0)
(1 -1.53401e-15 0)
(1 -5.24695e-16 0)
(1 7.66927e-15 0)
(1 3.07116e-15 0)
(1 4.37221e-15 0)
(1 4.94632e-15 0)
(1 3.16487e-15 0)
(1 9.95558e-15 0)
(1 6.87827e-15 0)