/*--------------------------------*- C++ -*----------------------------------*\
| =========                 |                                                 |
| \\      /  F ield         | OpenFOAM: The Open Source CFD Toolbox           |
|  \\    /   O peration     | Version:  v2012                                 |
|   \\  /    A nd           | Website:  www.openfoam.com                      |
|    \\/     M anipulation  |                                                 |
\*---------------------------------------------------------------------------*/
FoamFile
{
    version     2.0;
    format      ascii;
    class       volScalarField;
    location    "0";
    object      p;
}
// * * * * * * * * * * * * * * * * * * * * * * * * * * * * * * * * * * * * * //

dimensions      [0 2 -2 0 0 0 0];


internalField   nonuniform List<scalar> 
4000
(
-1.29941e-13
-1.32143e-13
-1.2492e-13
-1.2045e-13
-1.24838e-13
-1.27804e-13
-1.26954e-13
-1.22067e-13
-1.29783e-13
-1.30513e-13
-1.22438e-13
-1.31924e-13
-1.38507e-13
-1.43794e-13
-1.54924e-13
-1.59139e-13
-1.65738e-13
-1.73491e-13
-1.79754e-13
-1.76204e-13
-1.8665e-13
-1.86659e-13
-1.85538e-13
-1.98044e-13
-1.96973e-13
-2.04104e-13
-1.99621e-13
-2.01048e-13
-2.07033e-13
-2.20908e-13
-2.29006e-13
-2.2449e-13
-2.14528e-13
-2.15387e-13
-2.23343e-13
-2.15835e-13
-2.20074e-13
-2.33781e-13
-2.33503e-13
-2.28341e-13
-2.21807e-13
-2.20999e-13
-2.11975e-13
-2.1498e-13
-2.18052e-13
-2.17152e-13
-2.09768e-13
-2.16867e-13
-2.12134e-13
-2.03196e-13
-2.03693e-13
-2.03526e-13
-1.98773e-13
-1.95479e-13
-1.87468e-13
-1.80428e-13
-1.78984e-13
-1.7284e-13
-1.64869e-13
-1.57823e-13
-1.56316e-13
-1.5529e-13
-1.47914e-13
-1.48176e-13
-1.49993e-13
-1.4823e-13
-1.39163e-13
-1.37557e-13
-1.30829e-13
-1.31789e-13
-1.30246e-13
-1.19602e-13
-1.21568e-13
-1.16169e-13
-1.0852e-13
-1.03115e-13
-9.21136e-14
-9.6848e-14
-9.75737e-14
-8.95694e-14
-8.4999e-14
-7.51954e-14
-7.45992e-14
-7.13313e-14
-6.36842e-14
-6.16236e-14
-5.98171e-14
-6.16003e-14
-4.96499e-14
-4.057e-14
-3.06417e-14
-3.1758e-14
-2.35911e-14
-2.61672e-14
-2.55262e-14
-1.45693e-14
-1.48746e-14
-1.62746e-14
-9.21982e-15
-1.10649e-15
-1.28745e-13
-1.28769e-13
-1.24242e-13
-1.2337e-13
-1.24581e-13
-1.27581e-13
-1.25675e-13
-1.231e-13
-1.25659e-13
-1.29169e-13
-1.3099e-13
-1.3683e-13
-1.36768e-13
-1.4211e-13
-1.55812e-13
-1.55776e-13
-1.59411e-13
-1.73519e-13
-1.76104e-13
-1.78345e-13
-1.80449e-13
-1.83967e-13
-1.94002e-13
-2.01613e-13
-1.99956e-13
-2.0054e-13
-2.00353e-13
-2.04511e-13
-2.11679e-13
-2.23667e-13
-2.22472e-13
-2.21843e-13
-2.19805e-13
-2.15007e-13
-2.21267e-13
-2.20693e-13
-2.21286e-13
-2.24532e-13
-2.30691e-13
-2.31018e-13
-2.25799e-13
-2.18791e-13
-2.13211e-13
-2.15952e-13
-2.1573e-13
-2.17277e-13
-2.13798e-13
-2.15817e-13
-2.09257e-13
-2.06402e-13
-2.04089e-13
-2.08558e-13
-1.98614e-13
-1.89037e-13
-1.87591e-13
-1.79319e-13
-1.80596e-13
-1.71063e-13
-1.67488e-13
-1.5963e-13
-1.54698e-13
-1.51175e-13
-1.49873e-13
-1.46644e-13
-1.49156e-13
-1.51034e-13
-1.43462e-13
-1.35096e-13
-1.32799e-13
-1.28438e-13
-1.25505e-13
-1.20446e-13
-1.18573e-13
-1.14541e-13
-1.09827e-13
-1.02599e-13
-9.484e-14
-9.78174e-14
-9.706e-14
-9.13564e-14
-8.66572e-14
-7.76855e-14
-7.15444e-14
-6.87441e-14
-6.57307e-14
-6.19872e-14
-6.1814e-14
-6.05292e-14
-4.98684e-14
-3.89489e-14
-3.18736e-14
-2.71872e-14
-2.33849e-14
-2.71244e-14
-2.57568e-14
-1.83229e-14
-1.7599e-14
-1.23843e-14
-5.80829e-15
-1.76426e-15
-1.27535e-13
-1.27051e-13
-1.27714e-13
-1.22191e-13
-1.20821e-13
-1.26846e-13
-1.26561e-13
-1.25185e-13
-1.25919e-13
-1.25902e-13
-1.36109e-13
-1.40278e-13
-1.38381e-13
-1.41705e-13
-1.56124e-13
-1.55685e-13
-1.58565e-13
-1.6964e-13
-1.72769e-13
-1.8042e-13
-1.81496e-13
-1.82878e-13
-1.95465e-13
-2.04108e-13
-2.01566e-13
-1.97584e-13
-1.96359e-13
-2.04017e-13
-2.07812e-13
-2.22518e-13
-2.23559e-13
-2.21535e-13
-2.22178e-13
-2.17188e-13
-2.16872e-13
-2.15849e-13
-2.21953e-13
-2.26138e-13
-2.29691e-13
-2.29554e-13
-2.23446e-13
-2.19152e-13
-2.18451e-13
-2.15853e-13
-2.18345e-13
-2.16695e-13
-2.14247e-13
-2.18676e-13
-2.12481e-13
-2.0349e-13
-2.01042e-13
-2.08894e-13
-2.01377e-13
-1.92673e-13
-1.87148e-13
-1.79363e-13
-1.80167e-13
-1.71865e-13
-1.65108e-13
-1.57621e-13
-1.50694e-13
-1.54767e-13
-1.56274e-13
-1.47226e-13
-1.48791e-13
-1.45495e-13
-1.37578e-13
-1.35621e-13
-1.26894e-13
-1.3113e-13
-1.292e-13
-1.20669e-13
-1.23588e-13
-1.13758e-13
-1.09832e-13
-1.03793e-13
-9.36436e-14
-9.32231e-14
-9.43023e-14
-9.25438e-14
-8.58061e-14
-7.95842e-14
-7.01641e-14
-6.7961e-14
-6.68732e-14
-6.15856e-14
-5.75823e-14
-5.61454e-14
-5.12006e-14
-4.01063e-14
-3.29262e-14
-2.82675e-14
-2.34515e-14
-2.64222e-14
-2.51016e-14
-2.05565e-14
-1.88006e-14
-1.06466e-14
9.37549e-16
-2.133e-15
-1.26589e-13
-1.25214e-13
-1.22942e-13
-1.23852e-13
-1.24245e-13
-1.2933e-13
-1.29654e-13
-1.26134e-13
-1.26107e-13
-1.2794e-13
-1.36735e-13
-1.38077e-13
-1.39022e-13
-1.5006e-13
-1.50001e-13
-1.51253e-13
-1.61313e-13
-1.66918e-13
-1.71716e-13
-1.84632e-13
-1.83432e-13
-1.79045e-13
-1.88074e-13
-2.01584e-13
-2.04725e-13
-2.07252e-13
-2.02104e-13
-2.0663e-13
-2.10603e-13
-2.19193e-13
-2.23695e-13
-2.22441e-13
-2.21593e-13
-2.21293e-13
-2.15954e-13
-2.15558e-13
-2.20171e-13
-2.22714e-13
-2.30198e-13
-2.3373e-13
-2.22018e-13
-2.1408e-13
-2.12918e-13
-2.1857e-13
-2.25372e-13
-2.22848e-13
-2.16199e-13
-2.11207e-13
-2.0673e-13
-2.11443e-13
-2.0865e-13
-2.09134e-13
-2.0099e-13
-1.92276e-13
-1.83887e-13
-1.76448e-13
-1.76026e-13
-1.68955e-13
-1.62958e-13
-1.56659e-13
-1.57085e-13
-1.52425e-13
-1.47596e-13
-1.50814e-13
-1.50487e-13
-1.46675e-13
-1.4047e-13
-1.3589e-13
-1.26948e-13
-1.28197e-13
-1.23359e-13
-1.19813e-13
-1.16613e-13
-1.12765e-13
-1.13595e-13
-1.06114e-13
-9.20339e-14
-9.45288e-14
-9.03814e-14
-9.00067e-14
-8.49228e-14
-7.6764e-14
-7.42914e-14
-6.93708e-14
-7.09828e-14
-6.51422e-14
-6.08512e-14
-5.25703e-14
-5.19784e-14
-4.23949e-14
-3.48506e-14
-2.69557e-14
-2.36809e-14
-2.33794e-14
-2.45987e-14
-2.09268e-14
-1.71211e-14
-9.66038e-15
-2.5508e-15
-2.60689e-15
-1.26389e-13
-1.21297e-13
-1.24859e-13
-1.29432e-13
-1.29166e-13
-1.27747e-13
-1.32509e-13
-1.25905e-13
-1.26783e-13
-1.31727e-13
-1.39567e-13
-1.44234e-13
-1.34858e-13
-1.46065e-13
-1.49269e-13
-1.53916e-13
-1.58448e-13
-1.61828e-13
-1.72011e-13
-1.86676e-13
-1.88135e-13
-1.83333e-13
-1.98862e-13
-2.03282e-13
-1.96559e-13
-2.00974e-13
-2.02692e-13
-2.07781e-13
-2.11578e-13
-2.20119e-13
-2.24912e-13
-2.23339e-13
-2.18959e-13
-2.21043e-13
-2.15836e-13
-2.12214e-13
-2.15822e-13
-2.29454e-13
-2.36416e-13
-2.34668e-13
-2.17233e-13
-2.1043e-13
-2.10292e-13
-2.22978e-13
-2.26551e-13
-2.2629e-13
-2.20554e-13
-2.10402e-13
-2.0741e-13
-2.07578e-13
-2.04917e-13
-2.09232e-13
-1.97067e-13
-1.9344e-13
-1.86953e-13
-1.75115e-13
-1.73363e-13
-1.68897e-13
-1.65789e-13
-1.54369e-13
-1.57324e-13
-1.54387e-13
-1.50303e-13
-1.49545e-13
-1.45866e-13
-1.40216e-13
-1.38317e-13
-1.3909e-13
-1.29825e-13
-1.26327e-13
-1.25472e-13
-1.26846e-13
-1.21227e-13
-1.11532e-13
-1.16817e-13
-1.06938e-13
-9.78214e-14
-9.04993e-14
-9.03995e-14
-9.10973e-14
-8.6926e-14
-7.86901e-14
-7.22395e-14
-6.71906e-14
-7.37402e-14
-6.88299e-14
-5.78674e-14
-5.23191e-14
-4.72953e-14
-4.35341e-14
-3.62454e-14
-2.68326e-14
-2.49145e-14
-2.31552e-14
-1.94383e-14
-2.20457e-14
-1.15092e-14
-6.04035e-15
-2.36571e-15
-2.06083e-15
-1.28956e-13
-1.207e-13
-1.22492e-13
-1.32942e-13
-1.33676e-13
-1.27678e-13
-1.26258e-13
-1.28772e-13
-1.34315e-13
-1.38376e-13
-1.40159e-13
-1.40837e-13
-1.39651e-13
-1.51335e-13
-1.54117e-13
-1.49542e-13
-1.52176e-13
-1.58225e-13
-1.73203e-13
-1.85964e-13
-1.91721e-13
-1.93494e-13
-2.07668e-13
-2.0177e-13
-1.99423e-13
-2.00401e-13
-2.064e-13
-2.08816e-13
-2.16388e-13
-2.21184e-13
-2.23886e-13
-2.18935e-13
-2.21352e-13
-2.16848e-13
-2.1449e-13
-2.14438e-13
-2.17039e-13
-2.27296e-13
-2.32055e-13
-2.27688e-13
-2.18949e-13
-2.13351e-13
-2.1223e-13
-2.20631e-13
-2.21477e-13
-2.25278e-13
-2.25674e-13
-2.16498e-13
-2.08915e-13
-2.08592e-13
-2.03816e-13
-2.05047e-13
-1.98336e-13
-1.96651e-13
-1.87683e-13
-1.75546e-13
-1.73529e-13
-1.69706e-13
-1.62444e-13
-1.4927e-13
-1.50676e-13
-1.50797e-13
-1.53371e-13
-1.48686e-13
-1.45094e-13
-1.41747e-13
-1.38578e-13
-1.43185e-13
-1.357e-13
-1.26486e-13
-1.25131e-13
-1.20461e-13
-1.17376e-13
-1.12861e-13
-1.12924e-13
-1.08759e-13
-1.01229e-13
-9.09327e-14
-8.8529e-14
-9.05277e-14
-8.68406e-14
-8.31236e-14
-7.60122e-14
-7.19742e-14
-7.09514e-14
-6.43574e-14
-5.65609e-14
-5.36146e-14
-4.86847e-14
-4.68374e-14
-3.84534e-14
-2.81235e-14
-2.72963e-14
-2.29054e-14
-1.76474e-14
-1.73384e-14
-1.46922e-14
-8.14193e-15
-3.04409e-15
-3.57755e-15
-1.28265e-13
-1.27308e-13
-1.25676e-13
-1.31351e-13
-1.37292e-13
-1.28636e-13
-1.29974e-13
-1.32622e-13
-1.39009e-13
-1.40986e-13
-1.4839e-13
-1.40898e-13
-1.4163e-13
-1.42687e-13
-1.51291e-13
-1.64254e-13
-1.52968e-13
-1.59936e-13
-1.78284e-13
-1.91915e-13
-2.05384e-13
-1.98117e-13
-1.95005e-13
-1.96121e-13
-1.9558e-13
-1.9648e-13
-2.14123e-13
-2.17323e-13
-2.17435e-13
-2.13677e-13
-2.23325e-13
-2.23563e-13
-2.19655e-13
-2.1628e-13
-2.15415e-13
-2.19609e-13
-2.18348e-13
-2.16393e-13
-2.27549e-13
-2.30483e-13
-2.2474e-13
-2.17484e-13
-2.16871e-13
-2.1834e-13
-2.22639e-13
-2.19131e-13
-2.162e-13
-2.11468e-13
-2.10285e-13
-2.10251e-13
-2.04804e-13
-1.99873e-13
-1.90595e-13
-1.9897e-13
-1.90736e-13
-1.75041e-13
-1.7292e-13
-1.7547e-13
-1.62111e-13
-1.49393e-13
-1.49842e-13
-1.48164e-13
-1.48526e-13
-1.4997e-13
-1.44871e-13
-1.45342e-13
-1.41027e-13
-1.46792e-13
-1.39565e-13
-1.28805e-13
-1.17508e-13
-1.16289e-13
-1.13153e-13
-1.09834e-13
-1.10377e-13
-1.06666e-13
-1.01459e-13
-1.01254e-13
-9.95908e-14
-9.38388e-14
-8.27373e-14
-8.25713e-14
-7.22074e-14
-6.52131e-14
-6.79284e-14
-6.59277e-14
-5.91502e-14
-5.23201e-14
-4.86538e-14
-4.57054e-14
-3.595e-14
-3.1621e-14
-2.65291e-14
-2.39125e-14
-2.00702e-14
-1.73671e-14
-1.70831e-14
-8.72139e-15
-1.87887e-15
-1.51394e-15
-1.28096e-13
-1.28453e-13
-1.33498e-13
-1.30872e-13
-1.38488e-13
-1.33161e-13
-1.29364e-13
-1.31497e-13
-1.46268e-13
-1.42204e-13
-1.43632e-13
-1.45058e-13
-1.44992e-13
-1.5234e-13
-1.51771e-13
-1.60784e-13
-1.55166e-13
-1.63278e-13
-1.80534e-13
-1.93449e-13
-1.97796e-13
-2.0504e-13
-1.99616e-13
-2.00709e-13
-1.98486e-13
-2.04006e-13
-2.18365e-13
-2.15722e-13
-2.1638e-13
-2.2083e-13
-2.22938e-13
-2.22541e-13
-2.14491e-13
-2.05032e-13
-2.17314e-13
-2.2193e-13
-2.23146e-13
-2.23403e-13
-2.24826e-13
-2.27493e-13
-2.24202e-13
-2.15106e-13
-2.16562e-13
-2.1652e-13
-2.15241e-13
-2.13928e-13
-2.17803e-13
-2.22978e-13
-2.19591e-13
-2.05929e-13
-1.97449e-13
-1.92114e-13
-1.92945e-13
-1.997e-13
-1.90439e-13
-1.83096e-13
-1.71745e-13
-1.63364e-13
-1.62201e-13
-1.54797e-13
-1.53045e-13
-1.48638e-13
-1.48499e-13
-1.47756e-13
-1.39498e-13
-1.41849e-13
-1.43221e-13
-1.4046e-13
-1.34236e-13
-1.27135e-13
-1.24744e-13
-1.18021e-13
-1.1472e-13
-1.17702e-13
-1.12034e-13
-1.01034e-13
-9.82366e-14
-9.75401e-14
-9.17202e-14
-9.03651e-14
-8.57191e-14
-7.75809e-14
-7.67439e-14
-7.5889e-14
-7.40482e-14
-6.76427e-14
-5.92133e-14
-5.30375e-14
-4.50336e-14
-4.75591e-14
-3.73743e-14
-2.91758e-14
-2.35151e-14
-2.44062e-14
-2.06221e-14
-1.52919e-14
-1.49862e-14
-1.04371e-14
-4.82918e-15
-8.89127e-16
-1.31603e-13
-1.33297e-13
-1.36706e-13
-1.44051e-13
-1.34427e-13
-1.36394e-13
-1.31855e-13
-1.34992e-13
-1.45047e-13
-1.41551e-13
-1.48472e-13
-1.5137e-13
-1.52121e-13
-1.5221e-13
-1.53784e-13
-1.56626e-13
-1.59129e-13
-1.69141e-13
-1.83584e-13
-1.99918e-13
-1.9916e-13
-2.06684e-13
-1.94367e-13
-2.00391e-13
-2.07803e-13
-2.1377e-13
-2.19331e-13
-2.13939e-13
-2.06393e-13
-2.17582e-13
-2.24014e-13
-2.2118e-13
-2.15093e-13
-2.10284e-13
-2.13672e-13
-2.1633e-13
-2.24628e-13
-2.30865e-13
-2.2002e-13
-2.21087e-13
-2.24419e-13
-2.22392e-13
-2.23556e-13
-2.2006e-13
-2.14878e-13
-2.12562e-13
-2.12876e-13
-2.08936e-13
-2.10024e-13
-2.05393e-13
-2.01255e-13
-1.97285e-13
-1.96288e-13
-1.9657e-13
-1.84205e-13
-1.76824e-13
-1.73106e-13
-1.67352e-13
-1.63736e-13
-1.60331e-13
-1.5689e-13
-1.45423e-13
-1.48751e-13
-1.48681e-13
-1.49553e-13
-1.45685e-13
-1.44326e-13
-1.39856e-13
-1.3646e-13
-1.32867e-13
-1.27024e-13
-1.18511e-13
-1.11673e-13
-1.11719e-13
-1.1029e-13
-1.03153e-13
-1.00351e-13
-9.90718e-14
-9.45986e-14
-9.26225e-14
-8.35427e-14
-7.78369e-14
-7.45811e-14
-7.23021e-14
-7.75883e-14
-6.71234e-14
-5.98116e-14
-4.95441e-14
-4.70326e-14
-4.71838e-14
-3.77662e-14
-2.8364e-14
-2.53797e-14
-2.15877e-14
-1.80541e-14
-1.25332e-14
-1.48181e-14
-8.90798e-15
-3.72286e-15
-6.824e-15
-1.3419e-13
-1.37877e-13
-1.38038e-13
-1.37737e-13
-1.41651e-13
-1.35654e-13
-1.39076e-13
-1.38168e-13
-1.36376e-13
-1.52125e-13
-1.55005e-13
-1.52342e-13
-1.48602e-13
-1.55633e-13
-1.60723e-13
-1.60077e-13
-1.68303e-13
-1.68988e-13
-1.75604e-13
-1.99479e-13
-2.01936e-13
-2.06817e-13
-2.08674e-13
-2.08729e-13
-2.11787e-13
-2.10158e-13
-2.16114e-13
-2.10824e-13
-2.09224e-13
-2.17376e-13
-2.20866e-13
-2.18458e-13
-2.16116e-13
-2.15886e-13
-2.16605e-13
-2.18888e-13
-2.19525e-13
-2.28174e-13
-2.26716e-13
-2.24399e-13
-2.24695e-13
-2.23098e-13
-2.20971e-13
-2.14153e-13
-2.15691e-13
-2.06485e-13
-2.07224e-13
-2.09258e-13
-2.07391e-13
-2.09052e-13
-2.03541e-13
-1.97633e-13
-1.97075e-13
-1.91778e-13
-1.85624e-13
-1.82713e-13
-1.72382e-13
-1.67643e-13
-1.61232e-13
-1.64339e-13
-1.58275e-13
-1.42975e-13
-1.43811e-13
-1.45354e-13
-1.58625e-13
-1.57354e-13
-1.48121e-13
-1.40011e-13
-1.38183e-13
-1.27136e-13
-1.26854e-13
-1.19191e-13
-1.12726e-13
-1.13434e-13
-1.09673e-13
-1.00466e-13
-1.01786e-13
-9.99599e-14
-9.72123e-14
-9.40846e-14
-8.63255e-14
-8.52507e-14
-7.72893e-14
-6.99377e-14
-7.09471e-14
-6.87228e-14
-6.45328e-14
-5.65694e-14
-4.98813e-14
-4.23387e-14
-3.87754e-14
-3.21203e-14
-2.54382e-14
-2.53395e-14
-1.44098e-14
-1.09499e-14
-1.32523e-14
-8.80514e-15
-7.71002e-15
-6.3452e-15
-1.38646e-13
-1.40438e-13
-1.4203e-13
-1.40171e-13
-1.41762e-13
-1.40945e-13
-1.37891e-13
-1.35252e-13
-1.40048e-13
-1.485e-13
-1.59025e-13
-1.57232e-13
-1.57542e-13
-1.62373e-13
-1.6179e-13
-1.59003e-13
-1.66316e-13
-1.75659e-13
-1.84984e-13
-1.98761e-13
-2.01833e-13
-2.08139e-13
-2.08991e-13
-2.11302e-13
-2.15079e-13
-2.14967e-13
-2.1779e-13
-2.11264e-13
-2.12108e-13
-2.14017e-13
-2.20742e-13
-2.16786e-13
-2.18566e-13
-2.10868e-13
-2.15996e-13
-2.25451e-13
-2.26345e-13
-2.22623e-13
-2.22654e-13
-2.24007e-13
-2.25942e-13
-2.26821e-13
-2.24042e-13
-2.11412e-13
-2.10185e-13
-2.0508e-13
-2.0445e-13
-2.12265e-13
-2.10603e-13
-2.10588e-13
-1.99629e-13
-1.95537e-13
-1.93361e-13
-1.89787e-13
-1.88364e-13
-1.82322e-13
-1.69882e-13
-1.69195e-13
-1.64326e-13
-1.70067e-13
-1.59531e-13
-1.513e-13
-1.48705e-13
-1.44805e-13
-1.52569e-13
-1.52207e-13
-1.51093e-13
-1.40456e-13
-1.39579e-13
-1.25932e-13
-1.24934e-13
-1.19459e-13
-1.18674e-13
-1.15367e-13
-1.1482e-13
-1.09152e-13
-1.06346e-13
-1.02317e-13
-9.50852e-14
-8.87302e-14
-8.22838e-14
-8.06168e-14
-7.6603e-14
-7.65701e-14
-7.85593e-14
-7.48568e-14
-5.76801e-14
-5.23114e-14
-4.86573e-14
-4.37975e-14
-3.80897e-14
-3.18282e-14
-2.62753e-14
-2.43297e-14
-1.75407e-14
-7.76427e-15
-1.36698e-14
-1.18914e-14
-1.37887e-14
-4.24757e-15
-1.34385e-13
-1.40128e-13
-1.4672e-13
-1.40643e-13
-1.41831e-13
-1.41206e-13
-1.39162e-13
-1.38176e-13
-1.39603e-13
-1.53001e-13
-1.60437e-13
-1.60994e-13
-1.64072e-13
-1.67262e-13
-1.70286e-13
-1.68649e-13
-1.63417e-13
-1.73472e-13
-1.87286e-13
-1.97344e-13
-2.02593e-13
-2.01803e-13
-2.0866e-13
-2.18615e-13
-2.19306e-13
-2.17672e-13
-2.21182e-13
-2.17802e-13
-2.05981e-13
-2.08988e-13
-2.14315e-13
-2.15488e-13
-2.18356e-13
-2.20891e-13
-2.24595e-13
-2.278e-13
-2.20051e-13
-2.21005e-13
-2.21043e-13
-2.30085e-13
-2.27713e-13
-2.24831e-13
-2.16781e-13
-2.13226e-13
-2.09801e-13
-2.05086e-13
-2.05393e-13
-2.08473e-13
-2.05954e-13
-2.01506e-13
-2.03525e-13
-1.97162e-13
-1.91012e-13
-1.88486e-13
-1.86494e-13
-1.8114e-13
-1.72885e-13
-1.71554e-13
-1.66761e-13
-1.71205e-13
-1.56719e-13
-1.42784e-13
-1.50492e-13
-1.50183e-13
-1.60533e-13
-1.56362e-13
-1.52755e-13
-1.44226e-13
-1.39878e-13
-1.2729e-13
-1.21971e-13
-1.16794e-13
-1.17434e-13
-1.10116e-13
-1.16765e-13
-1.252e-13
-1.18613e-13
-1.00986e-13
-8.90052e-14
-9.19562e-14
-8.60751e-14
-7.98488e-14
-7.50725e-14
-7.26979e-14
-7.42579e-14
-6.96396e-14
-6.38093e-14
-5.6391e-14
-5.16097e-14
-4.6031e-14
-4.04218e-14
-3.37613e-14
-2.20899e-14
-2.29822e-14
-1.73177e-14
-9.23212e-15
-1.25683e-14
-1.47054e-14
-1.19239e-14
-5.42921e-15
-1.38618e-13
-1.42255e-13
-1.49735e-13
-1.43188e-13
-1.42277e-13
-1.42397e-13
-1.42058e-13
-1.35677e-13
-1.44718e-13
-1.60226e-13
-1.61866e-13
-1.61103e-13
-1.54983e-13
-1.63574e-13
-1.67752e-13
-1.72712e-13
-1.68365e-13
-1.70033e-13
-1.90037e-13
-1.9941e-13
-2.05776e-13
-2.16597e-13
-2.20596e-13
-2.23308e-13
-2.20394e-13
-2.18051e-13
-2.15722e-13
-2.13891e-13
-2.12203e-13
-2.08725e-13
-2.0814e-13
-2.1418e-13
-2.12893e-13
-2.18037e-13
-2.20368e-13
-2.27684e-13
-2.23483e-13
-2.23988e-13
-2.25422e-13
-2.26777e-13
-2.26299e-13
-2.22957e-13
-2.16416e-13
-2.1537e-13
-2.16642e-13
-2.13132e-13
-2.05672e-13
-1.97664e-13
-2.01338e-13
-2.0026e-13
-2.01921e-13
-1.97338e-13
-1.92465e-13
-1.94266e-13
-1.82822e-13
-1.75682e-13
-1.74634e-13
-1.71979e-13
-1.68929e-13
-1.73011e-13
-1.59236e-13
-1.56901e-13
-1.52519e-13
-1.47993e-13
-1.54131e-13
-1.5524e-13
-1.59586e-13
-1.45074e-13
-1.38575e-13
-1.31648e-13
-1.26648e-13
-1.23381e-13
-1.16778e-13
-1.15241e-13
-1.18369e-13
-1.17667e-13
-1.12369e-13
-1.01337e-13
-9.55606e-14
-8.74402e-14
-8.52658e-14
-8.38855e-14
-7.38251e-14
-7.62501e-14
-7.14973e-14
-6.86092e-14
-6.63374e-14
-5.83649e-14
-5.13027e-14
-4.83433e-14
-4.19255e-14
-3.6404e-14
-2.77203e-14
-2.10685e-14
-1.30227e-14
-1.40861e-14
-1.33692e-14
-1.17943e-14
-1.15421e-14
-1.21484e-15
-1.44747e-13
-1.38263e-13
-1.43065e-13
-1.45285e-13
-1.42154e-13
-1.46442e-13
-1.4735e-13
-1.39703e-13
-1.48356e-13
-1.6112e-13
-1.62188e-13
-1.59723e-13
-1.58832e-13
-1.66219e-13
-1.64897e-13
-1.77155e-13
-1.80014e-13
-1.76718e-13
-1.89554e-13
-1.98248e-13
-2.04838e-13
-2.07643e-13
-2.12538e-13
-2.2295e-13
-2.28694e-13
-2.29614e-13
-2.24136e-13
-2.11425e-13
-2.07058e-13
-2.07177e-13
-2.05881e-13
-2.12809e-13
-2.20738e-13
-2.27098e-13
-2.22984e-13
-2.26194e-13
-2.22691e-13
-2.2222e-13
-2.18508e-13
-2.14491e-13
-2.21921e-13
-2.27994e-13
-2.19642e-13
-2.1947e-13
-2.12465e-13
-2.11155e-13
-2.09671e-13
-2.00205e-13
-2.01598e-13
-1.96066e-13
-1.98262e-13
-1.97233e-13
-1.87198e-13
-1.88038e-13
-1.85153e-13
-1.79012e-13
-1.75174e-13
-1.71802e-13
-1.66796e-13
-1.69598e-13
-1.65449e-13
-1.62941e-13
-1.60158e-13
-1.51544e-13
-1.56381e-13
-1.55529e-13
-1.56276e-13
-1.4798e-13
-1.41738e-13
-1.31951e-13
-1.29304e-13
-1.23024e-13
-1.16511e-13
-1.15088e-13
-1.19035e-13
-1.12507e-13
-1.16031e-13
-1.07459e-13
-9.91983e-14
-8.66607e-14
-8.63726e-14
-8.368e-14
-7.63243e-14
-7.51072e-14
-7.22398e-14
-7.33669e-14
-6.44799e-14
-5.80815e-14
-5.19415e-14
-4.95894e-14
-4.13981e-14
-3.35794e-14
-2.80648e-14
-2.01512e-14
-1.27158e-14
-1.86289e-14
-1.45549e-14
-1.23752e-14
-1.17207e-14
-4.42681e-16
-1.42785e-13
-1.49367e-13
-1.41816e-13
-1.41327e-13
-1.38772e-13
-1.41139e-13
-1.51618e-13
-1.56039e-13
-1.52438e-13
-1.5786e-13
-1.61358e-13
-1.60116e-13
-1.58919e-13
-1.61227e-13
-1.68135e-13
-1.72059e-13
-1.76062e-13
-1.75407e-13
-1.85959e-13
-2.00546e-13
-2.1057e-13
-2.26877e-13
-2.32842e-13
-2.2871e-13
-2.27218e-13
-2.20331e-13
-2.14989e-13
-2.14424e-13
-2.09859e-13
-2.07934e-13
-2.04106e-13
-2.07194e-13
-2.15679e-13
-2.26423e-13
-2.30242e-13
-2.27052e-13
-2.2235e-13
-2.18157e-13
-2.19317e-13
-2.20063e-13
-2.1754e-13
-2.25158e-13
-2.26676e-13
-2.26433e-13
-2.16881e-13
-2.03322e-13
-2.04096e-13
-1.9877e-13
-2.03856e-13
-1.94111e-13
-1.94735e-13
-1.94167e-13
-1.85066e-13
-1.93358e-13
-1.92562e-13
-1.83945e-13
-1.76163e-13
-1.70149e-13
-1.71135e-13
-1.7002e-13
-1.63948e-13
-1.5926e-13
-1.53436e-13
-1.56455e-13
-1.65914e-13
-1.59213e-13
-1.56033e-13
-1.47111e-13
-1.39656e-13
-1.33505e-13
-1.3007e-13
-1.24022e-13
-1.20419e-13
-1.221e-13
-1.17525e-13
-1.18077e-13
-1.15044e-13
-1.1004e-13
-9.89541e-14
-8.15228e-14
-8.4086e-14
-8.12026e-14
-7.58734e-14
-7.82909e-14
-7.84595e-14
-7.67166e-14
-6.37472e-14
-5.9078e-14
-5.41659e-14
-4.80688e-14
-4.12386e-14
-3.89607e-14
-2.93064e-14
-2.37489e-14
-1.26362e-14
-1.82112e-14
-1.99642e-14
-1.12848e-14
-1.33891e-14
-1.76129e-15
-1.48861e-13
-1.43388e-13
-1.39936e-13
-1.42008e-13
-1.40272e-13
-1.33148e-13
-1.40723e-13
-1.49867e-13
-1.60655e-13
-1.69409e-13
-1.675e-13
-1.62148e-13
-1.61288e-13
-1.61393e-13
-1.64408e-13
-1.73022e-13
-1.78921e-13
-1.81411e-13
-1.9529e-13
-2.01017e-13
-2.14898e-13
-2.24547e-13
-2.32666e-13
-2.36494e-13
-2.26738e-13
-2.22457e-13
-2.15701e-13
-2.09399e-13
-2.04695e-13
-2.11644e-13
-2.08715e-13
-2.11176e-13
-2.16199e-13
-2.24719e-13
-2.29926e-13
-2.3801e-13
-2.30134e-13
-2.16241e-13
-2.17225e-13
-2.15426e-13
-2.20536e-13
-2.2214e-13
-2.19456e-13
-2.22429e-13
-2.18342e-13
-2.1157e-13
-1.98813e-13
-1.96612e-13
-2.06369e-13
-2.04077e-13
-1.99108e-13
-1.86269e-13
-1.80945e-13
-1.95574e-13
-1.87431e-13
-1.79543e-13
-1.7732e-13
-1.7083e-13
-1.67098e-13
-1.71777e-13
-1.64702e-13
-1.63842e-13
-1.6498e-13
-1.58782e-13
-1.65085e-13
-1.61885e-13
-1.58864e-13
-1.48364e-13
-1.42432e-13
-1.34078e-13
-1.29187e-13
-1.23428e-13
-1.14864e-13
-1.18823e-13
-1.25559e-13
-1.19677e-13
-1.12779e-13
-1.04059e-13
-1.04252e-13
-9.22543e-14
-8.74399e-14
-8.16799e-14
-7.66897e-14
-7.84575e-14
-7.37305e-14
-7.09952e-14
-6.4781e-14
-5.99672e-14
-5.65427e-14
-4.73335e-14
-4.27321e-14
-4.01457e-14
-3.7916e-14
-2.89791e-14
-1.29069e-14
-1.34629e-14
-1.88738e-14
-1.14842e-14
-1.40144e-14
-2.53718e-15
-1.46296e-13
-1.46146e-13
-1.44838e-13
-1.4519e-13
-1.38293e-13
-1.45705e-13
-1.50021e-13
-1.51612e-13
-1.52718e-13
-1.59293e-13
-1.60019e-13
-1.66412e-13
-1.71053e-13
-1.68969e-13
-1.66989e-13
-1.76878e-13
-1.73919e-13
-1.73763e-13
-1.88439e-13
-2.04542e-13
-2.20059e-13
-2.32735e-13
-2.3546e-13
-2.33569e-13
-2.31906e-13
-2.24248e-13
-2.11024e-13
-2.06795e-13
-2.10443e-13
-2.14458e-13
-2.11713e-13
-2.1426e-13
-2.2235e-13
-2.30854e-13
-2.28895e-13
-2.29355e-13
-2.2545e-13
-2.21218e-13
-2.19984e-13
-2.20967e-13
-2.23704e-13
-2.23048e-13
-2.22586e-13
-2.18616e-13
-2.15728e-13
-2.14607e-13
-2.07501e-13
-1.97347e-13
-2.0042e-13
-2.00263e-13
-2.0031e-13
-1.85556e-13
-1.85662e-13
-1.89345e-13
-1.91769e-13
-1.84084e-13
-1.77919e-13
-1.66232e-13
-1.60316e-13
-1.67405e-13
-1.66672e-13
-1.5968e-13
-1.66898e-13
-1.68105e-13
-1.6062e-13
-1.58974e-13
-1.58986e-13
-1.5199e-13
-1.46409e-13
-1.34361e-13
-1.26651e-13
-1.25914e-13
-1.21422e-13
-1.19381e-13
-1.25551e-13
-1.23778e-13
-1.18593e-13
-1.10472e-13
-1.05886e-13
-8.65833e-14
-8.49363e-14
-8.82462e-14
-7.40336e-14
-7.56164e-14
-7.4324e-14
-7.6745e-14
-6.72974e-14
-6.2867e-14
-5.96316e-14
-4.9215e-14
-4.5422e-14
-4.17877e-14
-3.09232e-14
-2.75314e-14
-1.75636e-14
-1.79141e-14
-1.76285e-14
-1.65936e-14
-8.09054e-15
-3.69113e-15
-1.47683e-13
-1.4671e-13
-1.47585e-13
-1.40715e-13
-1.38659e-13
-1.42477e-13
-1.52401e-13
-1.57269e-13
-1.61365e-13
-1.67346e-13
-1.62513e-13
-1.66355e-13
-1.72938e-13
-1.71301e-13
-1.71697e-13
-1.79468e-13
-1.76935e-13
-1.85016e-13
-1.94625e-13
-2.10401e-13
-2.17928e-13
-2.2963e-13
-2.3856e-13
-2.29689e-13
-2.2553e-13
-2.25142e-13
-2.14784e-13
-2.11933e-13
-2.14549e-13
-2.11217e-13
-2.08859e-13
-2.14648e-13
-2.23325e-13
-2.31177e-13
-2.43161e-13
-2.29843e-13
-2.2621e-13
-2.30309e-13
-2.20336e-13
-2.15139e-13
-2.20434e-13
-2.268e-13
-2.25165e-13
-2.20294e-13
-2.16953e-13
-2.11293e-13
-2.0481e-13
-1.99053e-13
-2.03105e-13
-1.99009e-13
-1.98202e-13
-1.85504e-13
-1.89044e-13
-1.94771e-13
-1.86368e-13
-1.73854e-13
-1.7491e-13
-1.71289e-13
-1.66267e-13
-1.65859e-13
-1.64721e-13
-1.62846e-13
-1.67249e-13
-1.68165e-13
-1.65163e-13
-1.59902e-13
-1.55325e-13
-1.5507e-13
-1.47645e-13
-1.39237e-13
-1.30987e-13
-1.26792e-13
-1.22576e-13
-1.22874e-13
-1.2615e-13
-1.24511e-13
-1.14542e-13
-1.06766e-13
-1.0678e-13
-9.5029e-14
-9.47589e-14
-8.74698e-14
-7.78957e-14
-7.38757e-14
-7.37791e-14
-7.66461e-14
-6.73198e-14
-6.52163e-14
-5.87676e-14
-4.91319e-14
-5.0495e-14
-4.3487e-14
-3.77432e-14
-3.15134e-14
-2.35286e-14
-1.9179e-14
-1.46746e-14
-1.45003e-14
-1.11718e-14
-2.5772e-15
-1.5347e-13
-1.47468e-13
-1.47336e-13
-1.41814e-13
-1.4437e-13
-1.51954e-13
-1.56188e-13
-1.57915e-13
-1.56812e-13
-1.68149e-13
-1.65599e-13
-1.66252e-13
-1.76722e-13
-1.75628e-13
-1.78279e-13
-1.85628e-13
-1.81299e-13
-1.86519e-13
-1.94091e-13
-2.02656e-13
-2.14472e-13
-2.30123e-13
-2.34966e-13
-2.35636e-13
-2.33319e-13
-2.28198e-13
-2.15039e-13
-2.11024e-13
-2.14587e-13
-2.16768e-13
-2.15803e-13
-2.17905e-13
-2.25247e-13
-2.29345e-13
-2.40635e-13
-2.26457e-13
-2.20809e-13
-2.26152e-13
-2.24174e-13
-2.26979e-13
-2.21335e-13
-2.30566e-13
-2.26197e-13
-2.21306e-13
-2.2202e-13
-2.10328e-13
-2.0309e-13
-2.01896e-13
-2.03681e-13
-2.02971e-13
-1.95838e-13
-1.92317e-13
-1.88123e-13
-1.91151e-13
-1.8475e-13
-1.7123e-13
-1.68774e-13
-1.69594e-13
-1.69872e-13
-1.6533e-13
-1.61445e-13
-1.5976e-13
-1.69342e-13
-1.70679e-13
-1.66642e-13
-1.61277e-13
-1.53582e-13
-1.52217e-13
-1.45916e-13
-1.39996e-13
-1.3635e-13
-1.27807e-13
-1.24107e-13
-1.2413e-13
-1.2882e-13
-1.24119e-13
-1.17564e-13
-1.10042e-13
-1.11516e-13
-1.05478e-13
-8.88148e-14
-8.03027e-14
-8.25794e-14
-7.5842e-14
-7.45041e-14
-7.638e-14
-6.9769e-14
-6.55736e-14
-5.66877e-14
-4.99357e-14
-4.95325e-14
-4.58656e-14
-3.79103e-14
-3.60691e-14
-2.36667e-14
-1.88901e-14
-1.73445e-14
-1.45131e-14
-1.34617e-14
-3.45053e-15
-1.50905e-13
-1.51945e-13
-1.46058e-13
-1.42307e-13
-1.4874e-13
-1.54253e-13
-1.61593e-13
-1.61246e-13
-1.60363e-13
-1.69111e-13
-1.732e-13
-1.7098e-13
-1.77397e-13
-1.78042e-13
-1.81127e-13
-1.87741e-13
-1.92524e-13
-1.9435e-13
-1.93571e-13
-2.03346e-13
-2.14842e-13
-2.31026e-13
-2.34021e-13
-2.364e-13
-2.3373e-13
-2.26649e-13
-2.16775e-13
-2.15247e-13
-2.14821e-13
-2.18935e-13
-2.22618e-13
-2.19893e-13
-2.2286e-13
-2.30651e-13
-2.35416e-13
-2.36669e-13
-2.26229e-13
-2.28369e-13
-2.25806e-13
-2.27562e-13
-2.25974e-13
-2.29617e-13
-2.29799e-13
-2.19912e-13
-2.11354e-13
-2.1197e-13
-2.11171e-13
-2.05588e-13
-1.96201e-13
-2.01176e-13
-1.97717e-13
-1.94625e-13
-1.88329e-13
-1.85467e-13
-1.84976e-13
-1.7834e-13
-1.72544e-13
-1.71754e-13
-1.67886e-13
-1.65251e-13
-1.59773e-13
-1.59548e-13
-1.66646e-13
-1.64546e-13
-1.68034e-13
-1.61023e-13
-1.58317e-13
-1.528e-13
-1.47975e-13
-1.41673e-13
-1.36006e-13
-1.32034e-13
-1.26656e-13
-1.23999e-13
-1.24633e-13
-1.20743e-13
-1.22677e-13
-1.15724e-13
-1.06991e-13
-9.66753e-14
-9.19896e-14
-8.8455e-14
-8.27569e-14
-7.45576e-14
-7.70718e-14
-7.70465e-14
-7.08124e-14
-6.67793e-14
-5.7264e-14
-5.49888e-14
-4.89536e-14
-4.73975e-14
-3.73508e-14
-3.42539e-14
-2.7647e-14
-1.89514e-14
-1.98497e-14
-1.94459e-14
-1.35036e-14
-2.61666e-15
-1.51645e-13
-1.52074e-13
-1.51751e-13
-1.46098e-13
-1.52137e-13
-1.58002e-13
-1.65268e-13
-1.63866e-13
-1.60298e-13
-1.68762e-13
-1.71834e-13
-1.74975e-13
-1.77787e-13
-1.78566e-13
-1.87204e-13
-1.9324e-13
-1.93228e-13
-1.98441e-13
-1.97518e-13
-2.03605e-13
-2.16317e-13
-2.28575e-13
-2.34537e-13
-2.39319e-13
-2.36153e-13
-2.25981e-13
-2.1532e-13
-2.19881e-13
-2.19245e-13
-2.21117e-13
-2.21694e-13
-2.24118e-13
-2.24428e-13
-2.29372e-13
-2.36206e-13
-2.40493e-13
-2.31587e-13
-2.29585e-13
-2.30061e-13
-2.31874e-13
-2.23221e-13
-2.30518e-13
-2.25696e-13
-2.20792e-13
-2.14871e-13
-2.15087e-13
-2.10891e-13
-2.06564e-13
-1.97475e-13
-2.03174e-13
-1.99668e-13
-1.96141e-13
-1.87234e-13
-1.83683e-13
-1.84204e-13
-1.81096e-13
-1.76041e-13
-1.73666e-13
-1.64349e-13
-1.64446e-13
-1.55108e-13
-1.60007e-13
-1.72887e-13
-1.66745e-13
-1.62694e-13
-1.60687e-13
-1.54666e-13
-1.54938e-13
-1.45762e-13
-1.3794e-13
-1.39979e-13
-1.33634e-13
-1.25291e-13
-1.2859e-13
-1.27576e-13
-1.22516e-13
-1.20066e-13
-1.12026e-13
-1.04841e-13
-1.01424e-13
-9.53332e-14
-9.12055e-14
-8.62821e-14
-7.5977e-14
-7.79772e-14
-7.55289e-14
-6.87675e-14
-6.2717e-14
-6.02963e-14
-4.65221e-14
-4.39536e-14
-4.1342e-14
-4.01539e-14
-3.82456e-14
-2.95185e-14
-2.85621e-14
-2.00622e-14
-1.35208e-14
-7.93475e-15
-2.56748e-15
-1.56023e-13
-1.5386e-13
-1.52661e-13
-1.48953e-13
-1.4971e-13
-1.61993e-13
-1.64323e-13
-1.64832e-13
-1.67537e-13
-1.65966e-13
-1.69407e-13
-1.76991e-13
-1.83959e-13
-1.87366e-13
-1.92363e-13
-1.98758e-13
-2.04257e-13
-2.00794e-13
-1.97356e-13
-2.05108e-13
-2.13594e-13
-2.31431e-13
-2.35052e-13
-2.34023e-13
-2.26003e-13
-2.2139e-13
-2.27538e-13
-2.3057e-13
-2.32251e-13
-2.21944e-13
-2.16692e-13
-2.24088e-13
-2.24252e-13
-2.24196e-13
-2.35045e-13
-2.39356e-13
-2.3926e-13
-2.36846e-13
-2.32029e-13
-2.33929e-13
-2.24544e-13
-2.28678e-13
-2.2175e-13
-2.23032e-13
-2.1555e-13
-2.15611e-13
-2.07654e-13
-1.99911e-13
-2.02722e-13
-2.02884e-13
-2.01123e-13
-1.95763e-13
-1.87057e-13
-1.88416e-13
-1.88215e-13
-1.87247e-13
-1.8475e-13
-1.73094e-13
-1.69113e-13
-1.57276e-13
-1.47681e-13
-1.63998e-13
-1.68628e-13
-1.62025e-13
-1.58778e-13
-1.55824e-13
-1.55053e-13
-1.54613e-13
-1.52024e-13
-1.41185e-13
-1.45422e-13
-1.22685e-13
-1.20665e-13
-1.22066e-13
-1.2886e-13
-1.28719e-13
-1.19228e-13
-1.1132e-13
-1.07568e-13
-1.01096e-13
-9.59896e-14
-8.8909e-14
-8.31293e-14
-8.16058e-14
-8.04276e-14
-7.61077e-14
-6.97374e-14
-5.90121e-14
-5.4457e-14
-4.72468e-14
-4.27868e-14
-3.8846e-14
-4.08898e-14
-3.87782e-14
-2.78091e-14
-2.45235e-14
-2.09071e-14
-1.78177e-14
-1.45037e-14
-6.24822e-15
-1.57705e-13
-1.52796e-13
-1.51609e-13
-1.52336e-13
-1.57054e-13
-1.62775e-13
-1.64793e-13
-1.68968e-13
-1.71468e-13
-1.72831e-13
-1.68519e-13
-1.74142e-13
-1.8805e-13
-1.9756e-13
-1.98605e-13
-2.01494e-13
-1.99123e-13
-2.01545e-13
-2.03599e-13
-2.08258e-13
-2.27357e-13
-2.31832e-13
-2.34201e-13
-2.3208e-13
-2.2981e-13
-2.28074e-13
-2.28195e-13
-2.26622e-13
-2.25e-13
-2.25807e-13
-2.16303e-13
-2.28147e-13
-2.30418e-13
-2.31953e-13
-2.31434e-13
-2.352e-13
-2.40048e-13
-2.36041e-13
-2.34246e-13
-2.31728e-13
-2.27267e-13
-2.29199e-13
-2.24663e-13
-2.21404e-13
-2.1334e-13
-2.128e-13
-2.09256e-13
-2.11236e-13
-2.03277e-13
-2.001e-13
-2.02649e-13
-1.97069e-13
-1.8866e-13
-1.84563e-13
-1.88123e-13
-1.95458e-13
-1.94697e-13
-1.76023e-13
-1.62779e-13
-1.52872e-13
-1.55204e-13
-1.61022e-13
-1.64236e-13