/*--------------------------------*- C++ -*----------------------------------*\
| =========                 |                                                 |
| \\      /  F ield         | OpenFOAM: The Open Source CFD Toolbox           |
|  \\    /   O peration     | Version:  v2012                                 |
|   \\  /    A nd           | Website:  www.openfoam.com                      |
|    \\/     M anipulation  |                                                 |
\*---------------------------------------------------------------------------*/
FoamFile
{
    version     2.0;
    format      ascii;
    class       volScalarField;
    location    "0";
    object      p;
}
// * * * * * * * * * * * * * * * * * * * * * * * * * * * * * * * * * * * * * //

dimensions      [0 2 -2 0 0 0 0];


internalField   nonuniform List<scalar> 
4000
(
2.36853e-13
2.33325e-13
2.34174e-13
2.36934e-13
2.40201e-13
2.387e-13
2.36162e-13
2.35804e-13
2.29994e-13
2.35789e-13
2.38684e-13
2.28361e-13
2.1531e-13
2.116e-13
2.00564e-13
2.0015e-13
1.92782e-13
1.93166e-13
1.89019e-13
1.85708e-13
1.79257e-13
1.65422e-13
1.60485e-13
1.58354e-13
1.58511e-13
1.48539e-13
1.51769e-13
1.55841e-13
1.52463e-13
1.48452e-13
1.40603e-13
1.42516e-13
1.44478e-13
1.39612e-13
1.33093e-13
1.26027e-13
1.16012e-13
1.05306e-13
8.56955e-14
8.45574e-14
9.11994e-14
9.54121e-14
9.20612e-14
8.25231e-14
7.78044e-14
8.10178e-14
7.0655e-14
6.81054e-14
5.92445e-14
5.71401e-14
5.54114e-14
5.59921e-14
5.42043e-14
4.50964e-14
4.509e-14
4.01266e-14
4.04147e-14
3.537e-14
4.20721e-14
4.22882e-14
4.19263e-14
3.78668e-14
3.19689e-14
2.72831e-14
1.86221e-14
2.11037e-14
2.97634e-14
3.24901e-14
2.26622e-14
2.14418e-14
2.19834e-14
2.00576e-14
1.56588e-14
7.44267e-15
1.83001e-14
2.56918e-14
2.31707e-14
2.47659e-14
1.70564e-14
8.78155e-15
7.04899e-15
8.4862e-15
-4.05191e-15
-2.01482e-15
2.81761e-15
1.90765e-15
-8.00023e-16
-2.3518e-15
-1.12915e-15
7.43209e-15
7.96372e-15
8.8163e-15
8.91188e-15
1.14355e-14
1.23164e-14
8.17885e-15
6.03542e-15
5.59827e-15
5.35756e-15
-1.93343e-15
2.34899e-13
2.35187e-13
2.35576e-13
2.36597e-13
2.40902e-13
2.3917e-13
2.37183e-13
2.36758e-13
2.32629e-13
2.34824e-13
2.31922e-13
2.25611e-13
2.15685e-13
2.13646e-13
2.00806e-13
2.01228e-13
1.98074e-13
1.95127e-13
1.87901e-13
1.84838e-13
1.81984e-13
1.65964e-13
1.56042e-13
1.56031e-13
1.58604e-13
1.50483e-13
1.51481e-13
1.53602e-13
1.50474e-13
1.46036e-13
1.44279e-13
1.42109e-13
1.42498e-13
1.36209e-13
1.35598e-13
1.24514e-13
1.17645e-13
1.06024e-13
8.85899e-14
9.08147e-14
8.84544e-14
9.46693e-14
9.06808e-14
8.41512e-14
7.82962e-14
7.65533e-14
6.78953e-14
6.95748e-14
6.34814e-14
5.44481e-14
5.45377e-14
5.28068e-14
5.23129e-14
4.95668e-14
4.7218e-14
4.22129e-14
3.64425e-14
3.89207e-14
3.95493e-14
3.98612e-14
4.07817e-14
3.67488e-14
3.40713e-14
2.99785e-14
2.18358e-14
2.16357e-14
2.4625e-14
3.15673e-14
2.46988e-14
2.38625e-14
2.00581e-14
1.8216e-14
2.02899e-14
1.2168e-14
1.68065e-14
2.55307e-14
2.25279e-14
2.07224e-14
1.59909e-14
9.56481e-15
7.94703e-15
1.04328e-14
-1.56116e-16
-1.74788e-15
-5.31843e-16
-4.21566e-16
-3.67918e-15
-4.48518e-15
-4.47894e-16
1.86543e-15
7.40584e-15
1.31058e-14
1.26048e-14
1.21963e-14
1.08405e-14
8.22365e-15
3.04444e-15
6.33306e-15
9.70374e-15
-2.47358e-16
2.32789e-13
2.33605e-13
2.33514e-13
2.37952e-13
2.45616e-13
2.39722e-13
2.34341e-13
2.37269e-13
2.31722e-13
2.3646e-13
2.26787e-13
2.22758e-13
2.19776e-13
2.15839e-13
2.03352e-13
2.0236e-13
2.01961e-13
1.93636e-13
1.87286e-13
1.82333e-13
1.77854e-13
1.68084e-13
1.60258e-13
1.55013e-13
1.59028e-13
1.53814e-13
1.55169e-13
1.54154e-13
1.51126e-13
1.43033e-13
1.47449e-13
1.43148e-13
1.36757e-13
1.37825e-13
1.39469e-13
1.30112e-13
1.19294e-13
1.0368e-13
9.4898e-14
9.17736e-14
9.04678e-14
8.95854e-14
8.97896e-14
8.92789e-14
7.89945e-14
7.31599e-14
7.34907e-14
6.56568e-14
6.07045e-14
5.79935e-14
5.73066e-14
5.42501e-14
4.7114e-14
4.63221e-14
4.85309e-14
4.52811e-14
3.60518e-14
4.12326e-14
4.43117e-14
4.00811e-14
3.91715e-14
3.5412e-14
2.94364e-14
2.77106e-14
2.60566e-14
2.47986e-14
2.71153e-14
2.84034e-14
2.53161e-14
2.06299e-14
2.12074e-14
1.51317e-14
1.49331e-14
1.37369e-14
1.79449e-14
2.41951e-14
2.21747e-14
2.45665e-14
1.84496e-14
5.59752e-15
1.25428e-14
8.58701e-15
1.53582e-15
-5.25853e-15
-2.42661e-15
1.28234e-15
1.59996e-15
3.45967e-16
1.89703e-15
-7.90912e-16
3.94822e-15
1.06279e-14
1.34908e-14
1.68461e-14
9.23167e-15
6.88021e-15
8.81518e-15
5.80222e-15
6.12389e-15
-3.65005e-16
2.34106e-13
2.36838e-13
2.3445e-13
2.35685e-13
2.39028e-13
2.4051e-13
2.36523e-13
2.33777e-13
2.35356e-13
2.32704e-13
2.26988e-13
2.2565e-13
2.20467e-13
2.1092e-13
2.10883e-13
2.07607e-13
1.99665e-13
1.91152e-13
1.88353e-13
1.7872e-13
1.74432e-13
1.7182e-13
1.63851e-13
1.57616e-13
1.52997e-13
1.50505e-13
1.51916e-13
1.54795e-13
1.4963e-13
1.44546e-13
1.50129e-13
1.46807e-13
1.38716e-13
1.32517e-13
1.33183e-13
1.30784e-13
1.22338e-13
1.12548e-13
1.00574e-13
8.95948e-14
9.42155e-14
9.56166e-14
9.53194e-14
8.96122e-14
7.44818e-14
6.79664e-14
7.36556e-14
6.95526e-14
6.42544e-14
5.23618e-14
4.97152e-14
4.72085e-14
4.91202e-14
4.88456e-14
4.49214e-14
4.35041e-14
4.00296e-14
4.35607e-14
4.54647e-14
3.87717e-14
3.50626e-14
3.28753e-14
3.38097e-14
2.81259e-14
2.65637e-14
2.33257e-14
2.63089e-14
2.50493e-14
2.40529e-14
2.12151e-14
2.33718e-14
1.8849e-14
1.84917e-14
1.58653e-14
1.5039e-14
2.28e-14
2.68579e-14
2.28895e-14
1.42607e-14
6.60591e-15
1.22114e-14
8.18342e-15
-4.52144e-16
-3.50121e-15
-6.03599e-15
-2.27898e-15
-5.18364e-16
-7.60465e-16
2.12377e-15
1.50306e-15
4.11518e-15
9.78838e-15
1.37129e-14
1.59785e-14
1.15707e-14
1.34601e-14
1.25811e-14
5.1534e-15
1.66256e-15
-5.32976e-16
2.30068e-13
2.39759e-13
2.34261e-13
2.30181e-13
2.37469e-13
2.38964e-13
2.33695e-13
2.35496e-13
2.3538e-13
2.30948e-13
2.22726e-13
2.20624e-13
2.24659e-13
2.11894e-13
2.13239e-13
2.09992e-13
2.01651e-13
1.95333e-13
1.87939e-13
1.79209e-13
1.72699e-13
1.68467e-13
1.5891e-13
1.5628e-13
1.60725e-13
1.58317e-13
1.52402e-13
1.50523e-13
1.47406e-13
1.46857e-13
1.48843e-13
1.45615e-13
1.41411e-13
1.33931e-13
1.34683e-13
1.33943e-13
1.20455e-13
1.08742e-13
9.65261e-14
9.18835e-14
9.67697e-14
1.00143e-13
9.86608e-14
9.05927e-14
7.54989e-14
6.8332e-14
7.18388e-14
6.88055e-14
6.13067e-14
5.59481e-14
5.08195e-14
5.10432e-14
5.19042e-14
4.74737e-14
4.39246e-14
3.63118e-14
4.25601e-14
4.62003e-14
4.0547e-14
3.88563e-14
3.25173e-14
3.29187e-14
2.64887e-14
2.69727e-14
3.04027e-14
2.90786e-14
2.74469e-14
2.35503e-14
2.67571e-14
1.8829e-14
2.01878e-14
1.64189e-14
1.79183e-14
1.48546e-14
1.438e-14
2.18589e-14
2.20054e-14
2.20829e-14
1.57711e-14
6.03689e-15
6.76795e-15
9.15119e-15
7.08873e-16
-5.07651e-15
-9.61934e-15
-6.32754e-15
-3.60741e-15
-6.34653e-16
3.99706e-15
3.39863e-15
4.21471e-15
1.1929e-14
1.13859e-14
1.92123e-14
1.67303e-14
8.77423e-15
1.12074e-14
9.62594e-15
-1.01809e-15
1.39937e-15
2.32379e-13
2.409e-13
2.36208e-13
2.30415e-13
2.35931e-13
2.4049e-13
2.41905e-13
2.36663e-13
2.3194e-13
2.20452e-13
2.23548e-13
2.24217e-13
2.22016e-13
2.08317e-13
2.11371e-13
2.13352e-13
2.07389e-13
1.96786e-13
1.90374e-13
1.81427e-13
1.73114e-13
1.65345e-13
1.47515e-13
1.58003e-13
1.57745e-13
1.60177e-13
1.52994e-13
1.46818e-13
1.45696e-13
1.44943e-13
1.46196e-13
1.46422e-13
1.39474e-13
1.37335e-13
1.37514e-13
1.32042e-13
1.19859e-13
1.11423e-13
1.04035e-13
9.77726e-14
9.69693e-14
9.9972e-14
9.54839e-14
9.10383e-14
8.39408e-14
6.81163e-14
6.67237e-14
6.24594e-14
5.81461e-14
5.60583e-14
5.22102e-14
5.22846e-14
4.88248e-14
4.77784e-14
3.84046e-14
4.0345e-14
4.25162e-14
4.35643e-14
4.17197e-14
4.02866e-14
3.6578e-14
3.0677e-14
2.65932e-14
3.04696e-14
2.54194e-14
2.39215e-14
2.53735e-14
2.50535e-14
2.4032e-14
2.06227e-14
2.09743e-14
2.14039e-14
2.56653e-14
1.867e-14
1.15425e-14
2.05739e-14
2.04089e-14
1.76789e-14
1.36083e-14
7.7537e-15
7.8881e-15
1.03821e-14
4.82829e-16
-8.45562e-15
-8.9349e-15
-7.76193e-15
-2.09389e-15
-6.98414e-16
4.34427e-15
4.55228e-15
4.71533e-15
1.05581e-14
8.36498e-15
1.87732e-14
1.69336e-14
1.29936e-14
6.5777e-15
8.81772e-15
-2.01877e-16
-1.58051e-15
2.3393e-13
2.3573e-13
2.36193e-13
2.35621e-13
2.34898e-13
2.38742e-13
2.3686e-13
2.3587e-13
2.29945e-13
2.19822e-13
2.18442e-13
2.27828e-13
2.23369e-13
2.11449e-13
2.13646e-13
2.02982e-13
2.05945e-13
1.95689e-13
1.92197e-13
1.82532e-13
1.6327e-13
1.66155e-13
1.59285e-13
1.6593e-13
1.66125e-13
1.64489e-13
1.48604e-13
1.41816e-13
1.46541e-13
1.45868e-13
1.47541e-13
1.43125e-13
1.413e-13
1.37862e-13
1.36869e-13
1.28188e-13
1.23052e-13
1.19491e-13
1.06131e-13
9.73161e-14
9.27626e-14
9.47873e-14
8.92747e-14
8.77465e-14
8.56447e-14
7.62923e-14
7.82995e-14
7.19858e-14
5.5467e-14
5.05615e-14
5.17719e-14
5.59344e-14
5.03429e-14
4.04832e-14
3.53323e-14
4.33673e-14
4.5528e-14
3.86026e-14
3.75079e-14
3.69399e-14
4.01271e-14
3.33014e-14
2.93194e-14
2.97047e-14
2.44198e-14
1.99561e-14
1.8323e-14
2.21847e-14
1.95774e-14
2.27296e-14
2.99479e-14
2.42062e-14
2.4639e-14
2.29459e-14
1.39784e-14
1.45247e-14
1.46986e-14
7.32742e-15
2.62348e-15
9.58366e-15
1.17434e-14
7.53395e-15
4.5887e-15
-2.72209e-15
-5.2917e-15
-6.04795e-15
-4.47411e-15
-2.10588e-15
4.22753e-15
7.94249e-15
8.0044e-15
8.34938e-15
7.68862e-15
1.41598e-14
1.06274e-14
7.9625e-15
5.98974e-15
9.25277e-15
1.59489e-16
7.2027e-16
2.38375e-13
2.38328e-13
2.35668e-13
2.37932e-13
2.34009e-13
2.36892e-13
2.42957e-13
2.36699e-13
2.28926e-13
2.23705e-13
2.22757e-13
2.21058e-13
2.16752e-13
2.13135e-13
2.1146e-13
2.05979e-13
2.08709e-13
1.98892e-13
1.91955e-13
1.82961e-13
1.72402e-13
1.73669e-13
1.62305e-13
1.61295e-13
1.66441e-13
1.59113e-13
1.46366e-13
1.4334e-13
1.46561e-13
1.41584e-13
1.44566e-13
1.41832e-13
1.47452e-13
1.44139e-13
1.39327e-13
1.27412e-13
1.1958e-13
1.13878e-13
1.05758e-13
9.25437e-14
9.73989e-14
9.45208e-14
9.08728e-14
8.78444e-14
8.79752e-14
8.49674e-14
7.41164e-14
6.00083e-14
4.51086e-14
5.74298e-14
5.89988e-14
6.21059e-14
4.4437e-14
3.89391e-14
3.59494e-14
3.72791e-14
4.41971e-14
4.48331e-14
3.75593e-14
3.34131e-14
3.77766e-14
3.23989e-14
2.65291e-14
2.93192e-14
3.08522e-14
2.00649e-14
1.47485e-14
2.2001e-14
2.55394e-14
2.48641e-14
2.27991e-14
2.08586e-14
2.05775e-14
1.79542e-14
7.73573e-15
1.56739e-14
1.46721e-14
1.03855e-14
9.95139e-15
1.33526e-14
9.10928e-15
5.6512e-15
2.98104e-15
-5.9116e-15
-8.29374e-15
-9.14449e-15
-5.45477e-16
2.26791e-16
4.81616e-15
6.94404e-15
8.13919e-15
7.023e-15
8.22307e-15
9.98549e-15
6.57065e-15
8.26539e-15
8.97046e-15
7.48295e-15
2.79943e-16
2.35223e-16
2.38975e-13
2.40668e-13
2.36094e-13
2.33961e-13
2.38214e-13
2.3796e-13
2.43918e-13
2.38736e-13
2.29294e-13
2.29219e-13
2.20857e-13
2.18478e-13
2.13692e-13
2.14582e-13
2.14083e-13
2.13584e-13
2.08473e-13
1.97517e-13
1.89093e-13
1.81431e-13
1.78274e-13
1.75781e-13
1.72444e-13
1.65713e-13
1.61827e-13
1.5338e-13
1.4658e-13
1.50486e-13
1.51553e-13
1.4749e-13
1.39337e-13
1.42088e-13
1.41381e-13
1.37146e-13
1.44771e-13
1.34675e-13
1.15654e-13
1.06668e-13
1.09543e-13
1.04708e-13
9.60676e-14
8.73368e-14
8.05091e-14
8.64964e-14
8.96575e-14
8.90917e-14
7.70962e-14
6.38942e-14
5.24764e-14
5.5434e-14
5.51573e-14
5.64531e-14
4.47384e-14
4.10398e-14
4.09965e-14
3.85661e-14
4.19739e-14
4.35912e-14
3.36685e-14
3.52192e-14
3.65161e-14
3.45605e-14
2.48699e-14
2.85062e-14
2.25769e-14
1.77921e-14
1.35574e-14
1.69596e-14
1.98765e-14
1.95832e-14
2.29685e-14
1.72668e-14
2.39442e-14
2.17256e-14
1.12849e-14
1.47192e-14
1.04226e-14
1.03296e-14
9.71831e-15
7.00081e-15
9.68848e-15
9.51276e-15
5.0033e-15
-7.67387e-16
-9.01533e-15
-1.05095e-14
1.74136e-15
1.64426e-15
2.09934e-15
4.22386e-15
5.67769e-15
7.05148e-15
8.44703e-15
9.46471e-15
5.83805e-15
8.11691e-15
1.56765e-15
1.45841e-15
-2.38413e-15
-3.88906e-15
2.38654e-13
2.37868e-13
2.38298e-13
2.41271e-13
2.394e-13
2.39572e-13
2.35591e-13
2.40109e-13
2.38575e-13
2.20353e-13
2.13538e-13
2.20146e-13
2.19722e-13
2.22799e-13
2.10256e-13
2.12767e-13
2.02266e-13
2.03517e-13
2.00129e-13
1.84893e-13
1.75346e-13
1.73751e-13
1.74655e-13
1.63888e-13
1.60872e-13
1.64005e-13
1.52176e-13
1.50961e-13
1.49634e-13
1.48649e-13
1.44392e-13
1.38051e-13
1.30793e-13
1.31107e-13
1.40508e-13
1.33057e-13
1.24092e-13
1.11041e-13
1.06814e-13
9.99885e-14
9.76857e-14
8.865e-14
8.32071e-14
8.90564e-14
9.56831e-14
8.71344e-14
7.73572e-14
6.72976e-14
5.24525e-14
5.31317e-14
5.38341e-14
5.39181e-14
4.78228e-14
4.3406e-14
4.05484e-14
3.37112e-14
3.68146e-14
4.29193e-14
3.71048e-14
3.59095e-14
3.69767e-14
3.0746e-14
3.04091e-14
3.03028e-14
1.95774e-14
8.36984e-15
1.14832e-14
1.46958e-14
1.63524e-14
2.53181e-14
2.35019e-14
1.65125e-14
2.15217e-14
2.09203e-14
1.54012e-14
1.53444e-14
9.42666e-15
1.00322e-14
9.98146e-15
6.30306e-15
4.91084e-15
1.14345e-14
4.21819e-15
2.7728e-15
-4.62704e-17
-8.56049e-15
-6.0651e-15
-2.10122e-15
-1.3639e-15
2.64141e-15
5.51921e-15
1.2524e-15
6.89411e-15
6.07766e-15
7.38905e-15
2.04055e-15
-1.79688e-15
-2.55339e-15
-8.74134e-15
-5.29757e-15
2.38761e-13
2.35499e-13
2.3334e-13
2.41779e-13
2.4062e-13
2.37607e-13
2.39264e-13
2.41558e-13
2.38878e-13
2.25432e-13
2.14408e-13
2.17891e-13
2.16326e-13
2.22345e-13
2.16087e-13
2.20607e-13
2.08166e-13
2.02758e-13
1.94588e-13
1.90922e-13
1.77773e-13
1.76263e-13
1.77599e-13
1.68678e-13
1.60978e-13
1.6035e-13
1.5444e-13
1.51569e-13
1.49215e-13
1.5231e-13
1.46362e-13
1.34237e-13
1.3168e-13
1.30306e-13
1.37877e-13
1.30922e-13
1.23273e-13
1.1258e-13
1.07491e-13
9.76374e-14
9.56164e-14
8.51148e-14
8.04812e-14
9.6397e-14
9.45517e-14
8.96934e-14
7.68474e-14
6.5709e-14
5.24181e-14
5.20558e-14
5.04868e-14
5.77024e-14
4.55243e-14
4.24827e-14
3.69313e-14
3.53604e-14
3.8843e-14
3.77005e-14
3.42531e-14
2.9166e-14
3.64067e-14
2.98033e-14
2.50388e-14
3.35537e-14
2.31551e-14
6.97642e-15
1.20391e-14
1.29025e-14
1.77793e-14
2.62083e-14
2.37707e-14
1.99173e-14
2.42105e-14
1.51375e-14
1.30217e-14
1.01565e-14
8.74786e-15
1.07931e-14
1.20626e-14
1.84028e-14
1.71161e-14
1.32944e-14
2.70362e-15
-1.18349e-15
-7.94469e-15
-1.19945e-14
-1.59298e-15
-8.24089e-16
-1.20409e-15
5.59255e-16
4.78942e-15
4.178e-15
7.64306e-15
2.68574e-15
7.41381e-15
2.67016e-16
-3.90914e-15
-5.93571e-15
-1.30952e-14
-2.8251e-15
2.4064e-13
2.36989e-13
2.32341e-13
2.40316e-13
2.41091e-13
2.38469e-13
2.432e-13
2.40038e-13
2.36941e-13
2.2456e-13
2.17134e-13
2.21947e-13
2.10243e-13
2.15118e-13
2.14999e-13
2.15707e-13
2.12185e-13
2.07813e-13
2.00074e-13
1.936e-13
1.85235e-13
1.84497e-13
1.78243e-13
1.67605e-13
1.59093e-13
1.55688e-13
1.5048e-13
1.47878e-13
1.51961e-13
1.56927e-13
1.48405e-13
1.31661e-13
1.24286e-13
1.29035e-13
1.29889e-13
1.2829e-13
1.25381e-13
1.15651e-13
1.0603e-13
9.52477e-14
8.77164e-14
8.69431e-14
8.9033e-14
9.24023e-14
9.70966e-14
8.97036e-14
7.36998e-14
6.45255e-14
5.86892e-14
5.60716e-14
4.65833e-14
5.12925e-14
4.49157e-14
4.70889e-14
3.77299e-14
3.49538e-14
3.48899e-14
3.37482e-14
3.40718e-14
3.15436e-14
3.54886e-14
3.68784e-14
2.79833e-14
2.47369e-14
1.41711e-14
2.07168e-15
9.59658e-15
1.62818e-14
2.22425e-14
2.58606e-14
2.23415e-14
2.15018e-14
2.55897e-14
2.11966e-14
8.77567e-15
-5.51122e-16
1.28992e-15
1.78941e-14
1.82754e-14
1.51208e-14
1.63946e-14
1.01325e-14
3.21627e-15
4.33384e-15
-3.37494e-15
-5.6466e-15
-8.34294e-15
-4.57921e-15
-1.87532e-15
2.28859e-16
1.38063e-16
3.41183e-15
6.80716e-15
3.73614e-15
1.818e-15
-1.72305e-15
-4.33688e-15
-7.93766e-15
-1.05178e-14
-1.69776e-15
2.36759e-13
2.35485e-13
2.30567e-13
2.39105e-13
2.39693e-13
2.41125e-13
2.43559e-13
2.39736e-13
2.33912e-13
2.20208e-13
2.16251e-13
2.22567e-13
2.18555e-13
2.20326e-13
2.18792e-13
2.17974e-13
2.11907e-13
2.12963e-13
2.02602e-13
1.97058e-13
1.87629e-13
1.77172e-13
1.73413e-13
1.6312e-13
1.59308e-13
1.57353e-13
1.52868e-13
1.50238e-13
1.54123e-13
1.50911e-13
1.49451e-13
1.34603e-13
1.27161e-13
1.32236e-13
1.25221e-13
1.28568e-13
1.22997e-13
1.12023e-13
1.01736e-13
9.74237e-14
8.89097e-14
9.10061e-14
8.68535e-14
9.22041e-14
8.39423e-14
8.01065e-14
7.89191e-14
7.04246e-14
6.04896e-14
5.5063e-14
4.72814e-14
5.0192e-14
3.7479e-14
4.36597e-14
4.06289e-14
4.1017e-14
3.44167e-14
3.29937e-14
3.64536e-14
2.81099e-14
2.60974e-14
2.72452e-14
3.14886e-14
3.1143e-14
1.7107e-14
7.25506e-15
5.19806e-15
1.44733e-14
2.60891e-14
2.46474e-14
2.21966e-14
1.96665e-14
2.40221e-14
9.61405e-15
7.48635e-15
5.42374e-15
1.09497e-14
1.91284e-14
1.26007e-14
1.61683e-14
1.45574e-14
1.01075e-14
4.06193e-15
3.42319e-15
-1.97649e-15
-3.48965e-15
-9.26222e-15
-3.70472e-15
-2.35305e-15
-2.53546e-15
-2.95227e-15
4.02645e-17
-1.06838e-15
2.81699e-15
-1.7319e-15
-3.50314e-15
-2.75922e-15
-5.28122e-15
-1.0568e-14
-5.35359e-15
2.3357e-13
2.4256e-13
2.3707e-13
2.36197e-13
2.37483e-13
2.382e-13
2.38493e-13
2.39552e-13
2.32601e-13
2.20405e-13
2.1913e-13
2.18693e-13
2.16051e-13
2.17592e-13
2.23462e-13
2.18823e-13
2.08553e-13
2.02295e-13
2.0578e-13
1.99389e-13
1.91308e-13
1.89341e-13
1.86827e-13
1.69302e-13
1.53911e-13
1.42197e-13
1.44552e-13
1.50819e-13
1.58637e-13
1.52989e-13
1.46628e-13
1.33565e-13
1.23291e-13
1.21334e-13
1.21523e-13
1.22276e-13
1.225e-13
1.13984e-13
1.08506e-13
1.05163e-13
9.4077e-14
8.99246e-14
8.29721e-14
8.55343e-14
8.79242e-14
8.07607e-14
7.48833e-14
6.73615e-14
6.33477e-14
5.72761e-14
5.29978e-14
4.32464e-14
4.16638e-14
4.60078e-14
3.85561e-14
3.98494e-14
3.58855e-14
3.46043e-14
3.77804e-14
3.35875e-14
2.35812e-14
2.62769e-14
2.19929e-14
2.38366e-14
1.78294e-14
1.0126e-14
9.46316e-15
1.31575e-14
2.21391e-14
1.97309e-14
2.10374e-14
1.88847e-14
1.93165e-14
1.2861e-14
1.18486e-14
1.18341e-14
7.44265e-15
1.49461e-14
1.43488e-14
1.46525e-14
1.34472e-14
6.50215e-15
2.59979e-15
3.56829e-15
-1.10887e-15
-4.54246e-15
-5.14863e-15
-2.95178e-15
-2.18678e-15
-3.84243e-15
-8.7596e-16
4.89446e-15
2.19657e-15
-3.62305e-15
-6.70334e-15
-9.86482e-15
-6.61177e-15
-7.47164e-15
-9.30318e-15
-4.22711e-15
2.3324e-13
2.37687e-13
2.39218e-13
2.39623e-13
2.38471e-13
2.36656e-13
2.34645e-13
2.25831e-13
2.25638e-13
2.26241e-13
2.2479e-13
2.20225e-13
2.20286e-13
2.20672e-13
2.20502e-13
2.21068e-13
2.16721e-13
2.13226e-13
2.0808e-13
1.96834e-13
1.85812e-13
1.77115e-13
1.69987e-13
1.66373e-13
1.6194e-13
1.58499e-13
1.55284e-13
1.50412e-13
1.54575e-13
1.49087e-13
1.44246e-13
1.36853e-13
1.22564e-13
1.17985e-13
1.16135e-13
1.23839e-13
1.18784e-13
1.16492e-13
1.10666e-13
9.89853e-14
9.32976e-14
9.0256e-14
8.43303e-14
7.75075e-14
8.27817e-14
8.78921e-14
7.67851e-14
6.8053e-14
5.86719e-14
6.14724e-14
5.9467e-14
4.26805e-14
4.05223e-14
3.78323e-14
3.1668e-14
4.11482e-14
3.78099e-14
3.76973e-14
3.44484e-14
3.24719e-14
2.75102e-14
2.81754e-14
2.62266e-14
1.765e-14
8.12194e-15
1.10222e-14
1.0272e-14
1.63657e-14
2.27407e-14
1.85954e-14
1.66241e-14
1.83522e-14
1.49014e-14
9.88121e-15
1.06902e-14
7.35061e-15
1.25108e-14
9.58567e-15
1.14996e-14
2.11851e-14
2.03924e-14
6.56042e-15
-3.19699e-16
-1.92334e-16
-1.33897e-16
-4.72797e-15
-6.03044e-15
1.04542e-15
-6.85466e-15
-3.04848e-15
-1.48364e-16
6.10876e-15
2.99494e-16
-6.92122e-15
-7.11095e-15
-1.50536e-14
-1.44363e-14
-8.22394e-15
-9.09426e-15
-1.04473e-15
2.30493e-13
2.40602e-13
2.41741e-13
2.37356e-13
2.33494e-13
2.3846e-13
2.42915e-13
2.30469e-13
2.18546e-13
2.17523e-13
2.17588e-13
2.18275e-13
2.23996e-13
2.26127e-13
2.26556e-13
2.21546e-13
2.14318e-13
2.05697e-13
1.98705e-13
1.98268e-13
1.87923e-13
1.83085e-13
1.69743e-13
1.60602e-13
1.63685e-13
1.57209e-13
1.56999e-13
1.56885e-13
1.51106e-13
1.50314e-13
1.45932e-13
1.31366e-13
1.21921e-13
1.11154e-13
1.11936e-13
1.16101e-13
1.17734e-13
1.1742e-13
1.09069e-13
1.03031e-13
9.10237e-14
9.15826e-14
8.95973e-14
8.12317e-14
8.04479e-14
8.08852e-14
7.64926e-14
6.99346e-14
5.90078e-14
4.9874e-14
5.43351e-14
5.09716e-14
4.39222e-14
3.47506e-14
3.64456e-14
4.748e-14
3.72669e-14
3.84344e-14
3.63645e-14
3.25978e-14
2.78105e-14
2.58218e-14
2.0617e-14
1.7021e-14
7.92316e-15
8.35012e-15
7.97026e-15
1.1182e-14
1.91662e-14
1.84179e-14
1.507e-14
2.16618e-14
2.33679e-14
1.22321e-14
5.79203e-15
6.96726e-15
1.30748e-14
1.292e-14
5.56256e-15
1.36971e-14
2.00155e-14
8.33697e-15
-2.77505e-16
-1.38108e-15
4.50578e-15
3.06824e-15
-1.6567e-15
-2.66865e-15
-3.80355e-15
-5.08331e-15
-1.5478e-16
-8.49744e-16
-8.34491e-15
-7.84833e-15
-6.55569e-15
-1.38632e-14
-1.78946e-14
-1.42953e-14
-7.76411e-15
-2.35791e-15
2.33867e-13
2.35403e-13
2.34711e-13
2.35025e-13
2.35533e-13
2.28288e-13
2.29285e-13
2.26274e-13
2.29402e-13
2.31136e-13
2.26831e-13
2.1781e-13
2.14364e-13
2.18737e-13
2.21056e-13
2.21621e-13
2.19231e-13
2.16706e-13
2.06023e-13
1.95479e-13
1.82788e-13
1.77567e-13
1.70124e-13
1.66225e-13
1.60158e-13
1.65547e-13
1.58306e-13
1.57967e-13
1.50606e-13
1.46369e-13
1.43772e-13
1.26657e-13
1.18992e-13
1.03516e-13
1.12952e-13
1.18093e-13
1.24711e-13
1.19201e-13
1.09884e-13
1.0046e-13
9.02885e-14
8.53878e-14
8.14006e-14
8.0852e-14
8.61442e-14
8.06173e-14
7.25873e-14
6.78149e-14
6.48196e-14
5.7754e-14
5.36471e-14
5.19764e-14
4.67385e-14
4.037e-14
3.04082e-14
3.98677e-14
3.48843e-14
4.29769e-14
3.58245e-14
3.33593e-14
2.74247e-14
2.62593e-14
1.97508e-14
1.59907e-14
1.30443e-14
1.07281e-14
5.98686e-15
4.42303e-15
1.56013e-14
2.05395e-14
2.3225e-14
1.70151e-14
1.73844e-14
1.41394e-14
5.32928e-15
7.69561e-15
5.18421e-15
5.72339e-15
6.36938e-15
1.95494e-14
2.14779e-14
1.12631e-14
6.45218e-15
-1.02713e-16
3.93973e-15
3.02005e-15
-4.22135e-15
-1.77175e-15
-8.36464e-15
-7.22862e-15
-1.149e-15
-2.72969e-15
-2.75963e-15
-7.29388e-15
-1.24342e-14
-2.00153e-14
-2.00218e-14
-1.86303e-14
-9.01989e-15
-3.28394e-15
2.32535e-13
2.32999e-13
2.34079e-13
2.35274e-13
2.39453e-13
2.34131e-13
2.2852e-13
2.2185e-13
2.23303e-13
2.25232e-13
2.2295e-13
2.18544e-13
2.21097e-13
2.19366e-13
2.1792e-13
2.1899e-13
2.18665e-13
2.09143e-13
2.00599e-13
1.90065e-13
1.78922e-13
1.76051e-13
1.70778e-13
1.71571e-13
1.68627e-13
1.64173e-13
1.5873e-13
1.52002e-13
1.49966e-13
1.44058e-13
1.43026e-13
1.28885e-13
1.20578e-13
1.0791e-13
1.03137e-13
1.18781e-13
1.22408e-13
1.12484e-13
1.12359e-13
1.04215e-13
9.70749e-14
8.42649e-14
7.52164e-14
7.73185e-14
8.00413e-14
8.28135e-14
7.61772e-14
7.29907e-14
5.93638e-14
6.13083e-14
6.16414e-14
5.17211e-14
4.17107e-14
3.96904e-14
4.07097e-14
4.44829e-14
3.45574e-14
3.53878e-14
3.2561e-14
2.70991e-14
2.90513e-14
2.95269e-14
2.27604e-14
1.27884e-14
1.11103e-14
1.11976e-14
6.58969e-15
4.94933e-15
1.34975e-14
1.5627e-14
1.90459e-14
1.72964e-14
1.9859e-14
1.21175e-14
9.17307e-15
1.07867e-14
8.00545e-15
7.72924e-15
7.89956e-15
1.37283e-14
1.20301e-14
1.42632e-14
6.90437e-15
3.95319e-15
4.2709e-15
-2.05804e-15
-7.68081e-15
-6.31368e-15
-5.9623e-15
-8.69809e-15
-6.35636e-15
-5.32366e-15
-1.20121e-14
-1.13845e-14
-1.66728e-14
-2.09323e-14
-1.35432e-14
-1.65542e-14
-1.27865e-14
-7.75739e-16
2.30951e-13
2.34267e-13
2.34843e-13
2.35419e-13
2.3579e-13
2.26996e-13
2.29243e-13
2.27791e-13
2.30068e-13
2.26376e-13
2.20058e-13
2.17257e-13
2.20845e-13
2.19735e-13
2.14238e-13
2.12594e-13
2.13726e-13
2.11325e-13
2.02778e-13
1.91707e-13
1.78361e-13
1.71922e-13
1.71461e-13
1.73365e-13
1.62557e-13
1.58243e-13
1.58396e-13
1.5304e-13
1.51181e-13
1.37692e-13
1.29274e-13
1.25308e-13
1.23003e-13
1.12419e-13
1.08581e-13
1.24368e-13
1.26143e-13
1.15929e-13
1.05716e-13
9.68303e-14
9.39322e-14
8.45752e-14
7.79183e-14
7.53238e-14
7.77406e-14
8.47379e-14
7.47548e-14
7.36098e-14
6.34269e-14
6.23901e-14
6.36879e-14
5.39285e-14
4.24979e-14
4.04989e-14
4.21361e-14
4.73889e-14
3.91607e-14
3.51543e-14
2.69278e-14
2.25096e-14
3.014e-14
3.04384e-14
2.14007e-14
1.4853e-14
8.95361e-15
1.07596e-14
5.05732e-15
9.58762e-15
1.53008e-14
1.30319e-14
1.02053e-14
1.67091e-14
2.22398e-14
1.62485e-14
8.1757e-15
4.79314e-15
7.37183e-15
6.5086e-15
4.62093e-15
3.47492e-15
1.91109e-14
2.47001e-14
6.57018e-15
-5.44252e-16
3.20649e-15
-5.1725e-15
-1.46693e-14
-6.13687e-15
-4.16592e-15
-9.70347e-15
-1.07145e-14
-6.94259e-15
-1.13015e-14
-1.40239e-14
-1.4063e-14
-2.00286e-14
-1.79434e-14
-1.6348e-14
-1.12948e-14
-4.1897e-15
2.3918e-13
2.34835e-13
2.35039e-13
2.36641e-13
2.33927e-13
2.31111e-13
2.27204e-13
2.26093e-13
2.2688e-13
2.29314e-13
2.19733e-13
2.16535e-13
2.1937e-13
2.19923e-13
2.14499e-13
2.09217e-13
2.04759e-13
2.04178e-13
2.00885e-13
1.89867e-13
1.74549e-13
1.71387e-13
1.7279e-13
1.69533e-13
1.63901e-13
1.55258e-13
1.58755e-13
1.53804e-13
1.46262e-13
1.39114e-13
1.29086e-13
1.23416e-13
1.22164e-13
1.10303e-13
1.11064e-13
1.16886e-13
1.20688e-13
1.15114e-13
1.08021e-13
9.59015e-14
9.10133e-14
8.49271e-14
7.5784e-14
7.73064e-14
8.14569e-14
8.16781e-14
7.33538e-14
6.99706e-14
7.19777e-14
6.82728e-14
6.07708e-14
5.57824e-14
4.19297e-14
4.26725e-14
3.52343e-14
3.6882e-14
3.52266e-14
3.5702e-14
2.63486e-14
2.4011e-14
3.09549e-14
3.02784e-14
2.61169e-14
1.60887e-14
1.23209e-14
1.01118e-14
6.18302e-15
9.77684e-15
1.06121e-14
1.22406e-14
7.68541e-15
1.48619e-14
1.69749e-14
1.31894e-14
1.46272e-14
6.12438e-15
3.25211e-15
2.91734e-15
9.35738e-15
1.05178e-14
1.38674e-14
1.8406e-14
9.96304e-15
6.43446e-16
1.87793e-15
-9.92922e-15
-1.51307e-14
-1.07702e-14
-7.81245e-15
-1.01718e-14
-1.30758e-14
-8.8594e-15
-9.88794e-15
-1.33615e-14
-2.00954e-14
-1.74195e-14
-1.3367e-14
-2.01079e-14
-9.58256e-15
-5.35778e-16
2.42026e-13
2.36606e-13
2.32047e-13
2.37498e-13
2.34491e-13
2.33492e-13
2.24984e-13
2.29915e-13
2.30765e-13
2.3068e-13
2.20262e-13
2.16364e-13
2.20019e-13
2.19731e-13
2.08233e-13
2.08181e-13
2.06627e-13
2.06936e-13
1.95239e-13
1.82551e-13
1.71976e-13
1.72562e-13
1.69351e-13
1.64841e-13
1.61185e-13
1.56383e-13
1.56059e-13
1.48764e-13
1.44742e-13
1.35247e-13
1.32112e-13
1.25221e-13
1.20575e-13
1.15383e-13
1.0662e-13
1.10456e-13
1.13274e-13
1.12263e-13
1.05611e-13
9.60816e-14
9.14386e-14
8.5633e-14
7.82836e-14
7.4775e-14
8.00797e-14
7.50334e-14
7.71329e-14
7.03218e-14
7.12214e-14
6.60401e-14
5.98574e-14
5.12501e-14
4.2278e-14
3.77451e-14
3.55941e-14
3.91691e-14
3.75723e-14
3.41407e-14
2.73621e-14
2.91367e-14
3.21377e-14
3.02685e-14
1.66461e-14
1.45788e-14
1.52933e-14
8.33686e-15
4.0403e-15
1.20026e-14
1.14214e-14
1.29449e-14
7.48521e-15
9.49773e-15
1.3624e-14
1.01185e-14
7.44806e-15
2.05188e-15
4.61852e-15
1.05802e-14
9.17081e-15
6.43429e-15
1.28731e-14
1.23223e-14
9.30858e-15
-8.57621e-16
-7.92267e-16
-1.06796e-14
-1.64726e-14
-1.06526e-14
-1.11752e-14
-9.21618e-15
-7.55793e-15
-1.51795e-14
-1.443e-14
-1.85291e-14
-2.0179e-14
-1.80659e-14
-1.11936e-14
-1.36739e-14
-6.69021e-15
-2.85347e-16
2.40075e-13
2.35483e-13
2.37638e-13
2.3705e-13
2.36292e-13
2.34659e-13
2.27923e-13
2.30642e-13
2.30998e-13
2.29899e-13
2.23071e-13
2.16228e-13
2.16126e-13
2.09548e-13
2.09853e-13
2.07576e-13
1.98191e-13
2.01653e-13
1.94861e-13
1.83783e-13
1.72034e-13
1.7e-13
1.64412e-13
1.65576e-13
1.6662e-13
1.56341e-13
1.4641e-13
1.37954e-13
1.31094e-13
1.33436e-13
1.34769e-13
1.33858e-13
1.19777e-13
1.21797e-13
1.05753e-13
1.07419e-13
1.06814e-13
1.0703e-13
1.05546e-13
9.35558e-14
9.01411e-14
8.72488e-14
8.30212e-14
7.49795e-14
7.84141e-14
7.40468e-14
8.10909e-14
7.43729e-14
6.83571e-14
6.09647e-14
5.90816e-14
5.55208e-14
4.3813e-14
3.46948e-14
3.39506e-14
3.00512e-14
3.06561e-14
3.44852e-14
2.82577e-14
3.1553e-14
4.14171e-14
3.09304e-14
1.55922e-14
1.70898e-14
1.873e-14
1.27756e-14
5.57293e-15
9.23554e-15
1.04247e-14
6.92327e-15
2.28466e-15
1.76408e-14
1.57225e-14
1.07845e-14
4.30876e-15
-3.54836e-15
6.38888e-15
1.30638e-14
7.56056e-15
9.40209e-15
1.04259e-14
1.21252e-14
8.45942e-15
-3.04893e-15
-4.79442e-15
-1.55629e-14
-1.61084e-14
-1.34748e-14
-6.31815e-15
-1.23233e-14
-1.29422e-14
-1.31865e-14
-1.98541e-14
-2.40076e-14
-1.20553e-14
-5.9211e-15
-1.22063e-14
-1.66014e-14
-1.62355e-14
-4.60277e-15
2.40618e-13
2.41661e-13
2.43989e-13
2.36578e-13
2.3415e-13
2.34994e-13
2.32371e-13
2.31425e-13
2.27981e-13
2.29932e-13
2.24813e-13
2.25196e-13
2.12293e-13
2.06978e-13
2.05488e-13
2.03496e-13
2.00441e-13
2.00948e-13
1.93651e-13
1.76112e-13
1.66231e-13
1.63321e-13
1.63944e-13
1.62285e-13
1.579e-13
1.51235e-13
1.43192e-13
1.39968e-13
1.34493e-13
1.33761e-13
1.34775e-13
1.26641e-13
1.16801e-13
1.19629e-13
1.08978e-13
1.0933e-13
1.04038e-13
1.0495e-13
1.00708e-13
9.59861e-14
9.22106e-14
8.70468e-14
8.41979e-14
7.56606e-14
8.34549e-14
7.67505e-14
7.91289e-14
6.77592e-14
6.98961e-14
6.78194e-14
5.56147e-14
4.95193e-14
4.36513e-14
3.83776e-14
3.71774e-14
2.82194e-14
1.73101e-14
3.27814e-14
3.96668e-14
3.35753e-14
3.758e-14
3.39672e-14
2.03528e-14
1.69467e-14
1.90472e-14
1.68678e-14
4.10866e-15
6.33931e-15
1.78561e-14
9.73045e-15
1.00272e-14
1.08958e-14
8.09586e-15
4.07558e-16
3.96439e-15
2.77802e-15
4.23948e-15
9.37342e-15
9.71001e-15
1.25027e-14
8.84997e-15
9.14834e-15
3.09741e-15
-5.15511e-15
-8.67003e-15
-1.35224e-14
-1.92388e-14
-1.41316e-14
-6.6299e-15
-1.31898e-14
-9.5978e-15
-8.90478e-15
-2.09865e-14
-2.62102e-14
-8.04068e-15
-7.6539e-15
-7.72375e-15
-1.59324e-14
-1.59567e-14
-7.57803e-15
2.44467e-13
2.38749e-13
2.40028e-13
2.28712e-13
2.34801e-13
2.38238e-13
2.43719e-13
2.42433e-13
2.30993e-13
2.23245e-13
2.20174e-13
2.22272e-13
2.09152e-13
2.06298e-13
2.05693e-13
2.02182e-13
2.00066e-13
1.90418e-13
1.84886e-13
1.75339e-13
1.68309e-13
1.5938e-13
1.66471e-13
1.63501e-13
1.48833e-13
1.47703e-13
1.42397e-13
1.41553e-13
1.29114e-13
1.35271e-13
1.32164e-13
1.25865e-13
1.20751e-13
1.19344e-13
1.06199e-13
1.02951e-13
1.01558e-13
9.93805e-14
9.71403e-14
9.4107e-14
9.36072e-14
9.19318e-14
8.64872e-14
7.70261e-14
8.15101e-14
7.44978e-14
7.63547e-14
7.79237e-14
6.96703e-14
6.29662e-14
5.50908e-14
4.82164e-14
4.33984e-14
2.77385e-14
2.87244e-14
3.27734e-14
3.49938e-14
3.49224e-14
3.68853e-14
2.30346e-14
3.66911e-14
3.62074e-14
2.84084e-14
1.83323e-14
1.4912e-14
2.2187e-14
1.17115e-14
4.43148e-15
9.71203e-15
1.42808e-14
1.17286e-14
7.52166e-15
6.71088e-15
-4.35204e-16
5.67679e-15
2.33055e-15
3.58655e-15
4.79317e-15
3.48151e-15
1.36989e-14
8.78927e-15
6.58831e-17
-2.69555e-15
-5.80508e-15
-3.74944e-15
-7.45908e-15
-1.52339e-14
-2.18886e-14
-1.2244e-14
-7.74309e-15
-9.65663e-15
-1.47324e-14
-1.89155e-14
-2.28488e-14
-1.07999e-14
-1.03086e-14
-7.46941e-15
-1.63416e-14
-1.71392e-14
-6.45743e-15
2.43679e-13
2.40422e-13
2.37079e-13
2.30949e-13
2.38667e-13
2.41334e-13
2.38989e-13
2.33498e-13
2.33307e-13
2.35363e-13
2.23625e-13
2.15586e-13
2.05532e-13
2.09733e-13
1.99325e-13
1.95809e-13
1.96204e-13
1.89653e-13
1.8393e-13
1.79506e-13
1.69241e-13
1.6173e-13
1.51389e-13
1.51767e-13
1.43364e-13
1.51193e-13
1.47915e-13