/*--------------------------------*- C++ -*----------------------------------*\
| =========                 |                                                 |
| \\      /  F ield         | OpenFOAM: The Open Source CFD Toolbox           |
|  \\    /   O peration     | Version:  v2012                                 |
|   \\  /    A nd           | Website:  www.openfoam.com                      |
|    \\/     M anipulation  |                                                 |
\*---------------------------------------------------------------------------*/
FoamFile
{
    version     2.0;
    format      ascii;
    class       volVectorField;
    location    "0";
    object      U;
}
// * * * * * * * * * * * * * * * * * * * * * * * * * * * * * * * * * * * * * //

dimensions      [0 1 -1 0 0 0 0];


internalField   nonuniform List<vector> 
4000
(
(1 -2.97409e-15 0)
(1 7.20094e-15 0)
(1 -5.39399e-15 0)
(1 7.04362e-15 0)
(1 -1.29286e-15 0)
(1 -3.03658e-15 0)
(1 5.19962e-15 0)
(1 -2.78691e-15 0)
(1 -1.28387e-15 0)
(1 -1.24498e-15 0)
(1 1.37443e-15 0)
(1 4.03188e-15 0)
(1 2.80136e-15 0)
(1 -1.68064e-16 0)
(1 6.52808e-15 0)
(1 -3.42981e-15 0)
(1 -3.50638e-15 0)
(1 -5.40387e-15 0)
(1 -1.14229e-15 0)
(1 -2.12404e-15 0)
(1 -2.09927e-15 0)
(1 -9.64534e-15 0)
(1 -1.41653e-15 0)
(1 -4.06123e-15 0)
(1 6.77186e-15 0)
(1 -2.82975e-15 0)
(1 6.50869e-15 0)
(1 1.43394e-15 0)
(1 4.34407e-15 0)
(1 6.65567e-15 0)
(1 3.98633e-15 0)
(1 -1.69668e-15 0)
(1 -5.76241e-15 0)
(1 -3.63121e-15 0)
(1 1.92891e-16 0)
(1 2.34513e-15 0)
(1 9.32528e-15 0)
(1 4.65989e-15 0)
(1 2.14626e-15 0)
(1 -2.02648e-15 0)
(1 -4.61109e-15 0)
(1 -6.1655e-15 0)
(1 -1.71422e-15 0)
(1 4.23383e-15 0)
(1 2.38341e-15 0)
(1 -1.67377e-15 0)
(1 3.32895e-15 0)
(1 -2.48172e-15 0)
(1 -4.78297e-15 0)
(1 1.47885e-16 0)
(1 -1.46423e-15 0)
(1 7.80111e-15 0)
(1 -3.34549e-16 0)
(1 2.37571e-15 0)
(1 -7.22248e-16 0)
(1 -6.06771e-15 0)
(1 -1.27352e-15 0)
(1 1.19089e-15 0)
(1 5.33744e-15 0)
(1 3.82333e-15 0)
(1 3.84842e-15 0)
(1 8.19914e-16 0)
(1 3.31143e-15 0)
(1 -2.08426e-15 0)
(1 -9.30467e-16 0)
(1 2.69307e-16 0)
(1 -3.94822e-16 0)
(1 8.28754e-16 0)
(1 -3.07767e-15 0)
(1 3.25167e-16 0)
(1 -5.36234e-15 0)
(1 -1.08173e-15 0)
(1 5.25887e-16 0)
(1 -1.1733e-15 0)
(1 -6.67068e-15 0)
(1 -3.30427e-15 0)
(1 -2.62826e-15 0)
(1 9.72147e-16 0)
(1 1.35933e-15 0)
(1 2.67073e-15 0)
(1 5.19594e-15 0)
(1 5.98786e-16 0)
(1 1.29429e-15 0)
(1 -7.14162e-16 0)
(1 -3.7576e-15 0)
(1 -7.12619e-16 0)
(1 -4.58156e-15 0)
(1 3.43069e-16 0)
(1 6.26241e-15 0)
(1 2.39231e-15 0)
(1 -3.14834e-16 0)
(1 1.95955e-16 0)
(1 -4.35941e-15 0)
(1 3.01784e-16 0)
(1 -2.85052e-15 0)
(1 -5.4641e-15 0)
(1 -1.34229e-15 0)
(1 -4.31755e-16 0)
(1 1.19511e-15 0)
(1 1.80563e-16 0)
(1 1.18953e-15 0)
(1 2.43311e-15 0)
(1 -4.36409e-15 0)
(1 7.56147e-15 0)
(1 -1.02553e-15 0)
(1 -5.89507e-15 0)
(1 7.30919e-15 0)
(1 -4.8421e-15 0)
(1 -3.32673e-16 0)
(1 -2.8754e-15 0)
(1 -1.37237e-15 0)
(1 4.41376e-15 0)
(1 9.96086e-15 0)
(1 7.76593e-15 0)
(1 5.72075e-15 0)
(1 -5.48897e-15 0)
(1 -5.76711e-15 0)
(1 -8.84675e-15 0)
(1 -3.02261e-15 0)
(1 -3.59706e-15 0)
(1 -2.08302e-15 0)
(1 -1.19397e-14 0)
(1 -2.7134e-15 0)
(1 -9.50837e-15 0)
(1 8.49865e-15 0)
(1 -3.53576e-15 0)
(1 8.92992e-15 0)
(1 1.2465e-15 0)
(1 4.76194e-15 0)
(1 5.82234e-15 0)
(1 6.73469e-15 0)
(1 4.18738e-16 0)
(1 -6.96961e-15 0)
(1 -1.61583e-15 0)
(1 -7.95902e-16 0)
(1 3.12526e-15 0)
(1 7.11114e-15 0)
(1 7.78574e-15 0)
(1 9.71854e-16 0)
(1 -6.06874e-15 0)
(1 -9.73985e-15 0)
(1 -8.40964e-15 0)
(1 -2.75904e-15 0)
(1 2.54578e-15 0)
(1 3.4583e-15 0)
(1 -4.44783e-15 0)
(1 3.17269e-15 0)
(1 8.657e-16 0)
(1 2.92582e-15 0)
(1 -5.85434e-15 0)
(1 -6.85537e-15 0)
(1 1.27897e-15 0)
(1 1.3003e-15 0)
(1 2.45261e-15 0)
(1 1.07537e-15 0)
(1 7.57949e-16 0)
(1 2.58517e-15 0)
(1 5.23951e-15 0)
(1 1.79435e-15 0)
(1 2.10185e-15 0)
(1 -6.46768e-15 0)
(1 -1.57622e-15 0)
(1 3.18701e-15 0)
(1 1.76207e-15 0)
(1 3.48513e-15 0)
(1 1.40069e-15 0)
(1 -4.10959e-15 0)
(1 -2.4931e-15 0)
(1 -5.00408e-15 0)
(1 -1.96388e-15 0)
(1 -2.76394e-15 0)
(1 1.93771e-16 0)
(1 6.11992e-15 0)
(1 1.38158e-15 0)
(1 -3.21505e-17 0)
(1 -4.33176e-15 0)
(1 1.71508e-15 0)
(1 3.18599e-15 0)
(1 3.66936e-15 0)
(1 3.42733e-15 0)
(1 4.39217e-15 0)
(1 -2.68227e-15 0)
(1 1.80001e-15 0)
(1 1.846e-15 0)
(1 2.14206e-15 0)
(1 5.23384e-16 0)
(1 -2.88497e-15 0)
(1 -2.6208e-15 0)
(1 -1.75632e-16 0)
(1 1.26653e-16 0)
(1 1.50055e-15 0)
(1 1.65764e-15 0)
(1 -4.00116e-15 0)
(1 2.52019e-16 0)
(1 -6.03309e-15 0)
(1 -3.07199e-15 0)
(1 -1.79219e-15 0)
(1 3.01284e-15 0)
(1 -3.81409e-15 0)
(1 -4.09067e-15 0)
(1 2.57819e-15 0)
(1 -7.29521e-15 0)
(1 -6.07823e-16 0)
(1 -5.89143e-15 0)
(1 4.17763e-15 0)
(1 1.01541e-15 0)
(1 8.49511e-15 0)
(1 4.17465e-15 0)
(1 -1.65908e-15 0)
(1 -2.27911e-15 0)
(1 -3.7369e-16 0)
(1 5.21544e-15 0)
(1 6.75706e-15 0)
(1 1.23084e-14 0)
(1 -1.53721e-15 0)
(1 -1.07415e-15 0)
(1 -2.74439e-15 0)
(1 -9.1969e-16 0)
(1 -1.27876e-15 0)
(1 -1.08238e-15 0)
(1 -4.6536e-16 0)
(1 -1.78253e-15 0)
(1 -9.98824e-15 0)
(1 -1.02672e-14 0)
(1 -9.75786e-16 0)
(1 7.10534e-15 0)
(1 1.02949e-14 0)
(1 8.68918e-15 0)
(1 1.19506e-14 0)
(1 1.05369e-14 0)
(1 1.07752e-14 0)
(1 4.80106e-16 0)
(1 -8.32234e-16 0)
(1 -5.56351e-15 0)
(1 -4.32859e-15 0)
(1 -3.15734e-15 0)
(1 -3.48742e-15 0)
(1 5.64908e-15 0)
(1 -1.13878e-15 0)
(1 -5.5006e-15 0)
(1 -4.17229e-15 0)
(1 -4.57491e-15 0)
(1 -8.14837e-15 0)
(1 -5.36805e-15 0)
(1 -7.96477e-16 0)
(1 -1.05665e-15 0)
(1 1.18739e-15 0)
(1 4.31407e-15 0)
(1 -1.15268e-15 0)
(1 -2.04354e-15 0)
(1 -1.20074e-16 0)
(1 -4.48159e-16 0)
(1 3.45404e-15 0)
(1 -1.78587e-15 0)
(1 3.94246e-15 0)
(1 8.96604e-15 0)
(1 3.78156e-15 0)
(1 2.47559e-15 0)
(1 -2.62578e-15 0)
(1 -5.04519e-15 0)
(1 -6.69325e-15 0)
(1 2.5516e-15 0)
(1 3.9961e-15 0)
(1 -3.095e-16 0)
(1 5.26982e-15 0)
(1 2.09417e-15 0)
(1 -2.73875e-15 0)
(1 -4.33468e-15 0)
(1 -5.49813e-16 0)
(1 -1.97624e-15 0)
(1 -2.43706e-17 0)
(1 9.82366e-17 0)
(1 -9.6738e-16 0)
(1 5.79001e-17 0)
(1 -2.81107e-16 0)
(1 -6.60665e-16 0)
(1 -2.19918e-16 0)
(1 1.07807e-15 0)
(1 -1.0738e-16 0)
(1 4.38221e-15 0)
(1 -2.16629e-15 0)
(1 -4.09244e-15 0)
(1 -7.00117e-16 0)
(1 -2.83935e-15 0)
(1 4.5893e-15 0)
(1 -1.60933e-16 0)
(1 9.78146e-16 0)
(1 -2.79138e-15 0)
(1 -5.42984e-15 0)
(1 -2.2573e-15 0)
(1 8.92896e-16 0)
(1 1.54924e-15 0)
(1 -1.54303e-15 0)
(1 -2.75871e-16 0)
(1 -3.3733e-15 0)
(1 -3.01638e-15 0)
(1 -3.06579e-15 0)
(1 -1.60816e-15 0)
(1 -3.95934e-15 0)
(1 -2.00441e-15 0)
(1 3.15626e-15 0)
(1 -6.76006e-15 0)
(1 -2.89163e-15 0)
(1 -1.07961e-14 0)
(1 6.15161e-15 0)
(1 -5.80486e-16 0)
(1 7.73215e-15 0)
(1 3.91461e-15 0)
(1 -2.6562e-15 0)
(1 4.60485e-16 0)
(1 6.0183e-15 0)
(1 1.27784e-14 0)
(1 5.69426e-15 0)
(1 5.15876e-15 0)
(1 3.83741e-15 0)
(1 -4.39665e-16 0)
(1 -1.71529e-19 0)
(1 -6.85667e-15 0)
(1 -1.38058e-14 0)
(1 5.65895e-16 0)
(1 7.6805e-16 0)
(1 2.90304e-15 0)
(1 -2.97462e-15 0)
(1 1.55012e-15 0)
(1 3.74769e-15 0)
(1 3.83789e-15 0)
(1 8.38294e-15 0)
(1 1.02746e-14 0)
(1 1.00095e-14 0)
(1 9.80407e-15 0)
(1 7.07831e-15 0)
(1 1.79052e-15 0)
(1 1.57249e-15 0)
(1 -4.78136e-16 0)
(1 2.04288e-16 0)
(1 -4.77802e-15 0)
(1 -3.57882e-15 0)
(1 -4.69661e-15 0)
(1 -1.47567e-15 0)
(1 3.687e-15 0)
(1 4.49447e-15 0)
(1 -4.61366e-15 0)
(1 -8.79854e-15 0)
(1 -6.02717e-15 0)
(1 -3.314e-15 0)
(1 5.0421e-15 0)
(1 5.56415e-15 0)
(1 2.95737e-15 0)
(1 -3.1063e-15 0)
(1 4.97384e-15 0)
(1 4.81083e-15 0)
(1 -5.04778e-17 0)
(1 -5.85482e-15 0)
(1 -6.48451e-15 0)
(1 7.01916e-16 0)
(1 1.51588e-15 0)
(1 1.12832e-15 0)
(1 -4.25554e-16 0)
(1 -4.70447e-15 0)
(1 -1.55227e-15 0)
(1 3.51343e-15 0)
(1 4.83793e-15 0)
(1 3.47653e-15 0)
(1 4.9086e-15 0)
(1 1.37012e-15 0)
(1 2.87573e-16 0)
(1 -4.36448e-15 0)
(1 -4.1168e-15 0)
(1 -4.35319e-15 0)
(1 -2.51046e-15 0)
(1 -2.9231e-15 0)
(1 1.77664e-15 0)
(1 -2.6939e-15 0)
(1 -7.50936e-16 0)
(1 -1.94701e-17 0)
(1 -4.00149e-15 0)
(1 1.94219e-15 0)
(1 -4.20364e-15 0)
(1 4.16575e-15 0)
(1 5.75713e-15 0)
(1 2.23247e-16 0)
(1 3.11479e-15 0)
(1 -1.50029e-15 0)
(1 -1.20828e-15 0)
(1 -1.52241e-15 0)
(1 -1.42776e-16 0)
(1 5.18603e-15 0)
(1 1.48156e-15 0)
(1 2.97266e-15 0)
(1 -2.65868e-16 0)
(1 -2.34003e-15 0)
(1 -3.92882e-16 0)
(1 -9.79616e-16 0)
(1 1.47367e-15 0)
(1 -6.50472e-16 0)
(1 -8.7227e-15 0)
(1 -7.51653e-15 0)
(1 -5.39855e-15 0)
(1 -5.27894e-15 0)
(1 -1.42171e-15 0)
(1 2.92615e-15 0)
(1 -1.09563e-15 0)
(1 -7.62971e-15 0)
(1 -8.08022e-16 0)
(1 2.26344e-15 0)
(1 4.51144e-16 0)
(1 1.09887e-15 0)
(1 2.4446e-16 0)
(1 -1.64592e-15 0)
(1 -3.87144e-15 0)
(1 5.66904e-15 0)
(1 7.5875e-16 0)
(1 6.13055e-15 0)
(1 -1.59143e-15 0)
(1 1.16415e-14 0)
(1 2.92544e-15 0)
(1 4.71495e-15 0)
(1 -8.79063e-15 0)
(1 -9.88821e-15 0)
(1 -1.0185e-14 0)
(1 -3.04222e-15 0)
(1 -3.39491e-15 0)
(1 4.9325e-15 0)
(1 1.07244e-14 0)
(1 1.37405e-14 0)
(1 5.08217e-15 0)
(1 8.01904e-15 0)
(1 9.54764e-15 0)
(1 9.09728e-15 0)
(1 3.32504e-15 0)
(1 6.86052e-15 0)
(1 5.2081e-15 0)
(1 2.18663e-15 0)
(1 5.12485e-16 0)
(1 -4.96086e-15 0)
(1 -1.129e-14 0)
(1 -6.03739e-15 0)
(1 -8.40315e-15 0)
(1 -5.48732e-15 0)
(1 -5.33519e-17 0)
(1 -3.00277e-15 0)
(1 -4.86538e-15 0)
(1 -2.9199e-15 0)
(1 -3.00508e-15 0)
(1 -2.00388e-15 0)
(1 2.61634e-16 0)
(1 3.56373e-15 0)
(1 3.09864e-15 0)
(1 4.82629e-15 0)
(1 6.37267e-15 0)
(1 -1.31566e-15 0)
(1 -4.16779e-15 0)
(1 -5.13369e-15 0)
(1 -1.01311e-16 0)
(1 4.54591e-15 0)
(1 7.61943e-15 0)
(1 5.25124e-15 0)
(1 4.02203e-16 0)
(1 -2.35214e-15 0)
(1 -3.96227e-15 0)
(1 -7.02159e-16 0)
(1 -6.03818e-16 0)
(1 3.06141e-15 0)
(1 6.32606e-15 0)
(1 1.33524e-15 0)
(1 -1.5051e-15 0)
(1 -1.73404e-15 0)
(1 -2.60238e-15 0)
(1 -1.62853e-15 0)
(1 -3.43453e-16 0)
(1 6.99117e-16 0)
(1 5.24306e-16 0)
(1 4.20264e-15 0)
(1 -1.45033e-15 0)
(1 2.88497e-15 0)
(1 -9.41921e-16 0)
(1 7.0182e-15 0)
(1 6.40996e-16 0)
(1 8.89509e-15 0)
(1 4.26692e-15 0)
(1 1.89016e-15 0)
(1 -1.60489e-15 0)
(1 -5.3504e-16 0)
(1 3.98365e-15 0)
(1 -6.27131e-16 0)
(1 2.71708e-15 0)
(1 1.98731e-15 0)
(1 -7.3503e-16 0)
(1 -1.54528e-15 0)
(1 -6.83578e-15 0)
(1 -2.35251e-15 0)
(1 -1.89863e-15 0)
(1 -7.76665e-16 0)
(1 3.9507e-16 0)
(1 -2.60901e-15 0)
(1 -4.00405e-15 0)
(1 -3.40948e-15 0)
(1 -1.57144e-15 0)
(1 -6.05597e-15 0)
(1 -1.24162e-15 0)
(1 -2.52825e-15 0)
(1 -2.30218e-15 0)
(1 -5.4333e-15 0)
(1 3.11273e-15 0)
(1 -3.66383e-15 0)
(1 6.67846e-15 0)
(1 -6.18777e-15 0)
(1 -4.23336e-15 0)
(1 1.31943e-15 0)
(1 1.47483e-15 0)
(1 1.02654e-14 0)
(1 -2.02085e-15 0)
(1 3.43211e-16 0)
(1 1.2856e-15 0)
(1 4.89081e-15 0)
(1 4.89722e-15 0)
(1 3.85134e-15 0)
(1 1.26957e-16 0)
(1 2.89865e-15 0)
(1 -3.75041e-15 0)
(1 3.31434e-15 0)
(1 -3.55603e-15 0)
(1 2.18859e-15 0)
(1 4.05848e-15 0)
(1 3.48098e-15 0)
(1 1.41735e-15 0)
(1 4.80662e-15 0)
(1 1.34567e-14 0)
(1 1.00198e-14 0)
(1 1.50192e-14 0)
(1 2.61669e-15 0)
(1 1.25465e-15 0)
(1 -6.26319e-15 0)
(1 -4.9959e-15 0)
(1 -2.40712e-15 0)
(1 2.27802e-15 0)
(1 9.60631e-16 0)
(1 1.61926e-15 0)
(1 -4.69899e-15 0)
(1 -6.35608e-15 0)
(1 -3.96485e-15 0)
(1 -1.25663e-15 0)
(1 5.10665e-15 0)
(1 5.01222e-15 0)
(1 -1.20556e-16 0)
(1 -4.67416e-15 0)
(1 -6.61378e-15 0)
(1 -4.70701e-15 0)
(1 4.02006e-15 0)
(1 7.49064e-15 0)
(1 7.40571e-16 0)
(1 3.09295e-16 0)
(1 -8.5984e-16 0)
(1 -1.43947e-15 0)
(1 4.87522e-15 0)
(1 5.41958e-15 0)
(1 1.78539e-15 0)
(1 -7.17205e-16 0)
(1 8.17627e-15 0)
(1 2.5528e-15 0)
(1 6.2936e-15 0)
(1 -3.82005e-16 0)
(1 -7.25764e-17 0)
(1 -3.46349e-15 0)
(1 1.98672e-15 0)
(1 3.81302e-15 0)
(1 7.3291e-15 0)
(1 8.45465e-15 0)
(1 1.29042e-14 0)
(1 1.19978e-14 0)
(1 4.19765e-15 0)
(1 -5.60281e-15 0)
(1 -8.0722e-16 0)
(1 -2.08169e-15 0)
(1 -5.96578e-15 0)
(1 -5.09713e-15 0)
(1 -7.04811e-15 0)
(1 1.76597e-15 0)
(1 5.12526e-15 0)
(1 1.22816e-14 0)
(1 5.0532e-15 0)
(1 2.37358e-15 0)
(1 4.4561e-15 0)
(1 2.47638e-16 0)
(1 -2.88732e-15 0)
(1 -1.4385e-15 0)
(1 -1.94661e-15 0)
(1 -2.72161e-15 0)
(1 -5.96234e-15 0)
(1 -2.10389e-15 0)
(1 -2.46274e-15 0)
(1 -5.41033e-16 0)
(1 -3.88938e-15 0)
(1 -1.73642e-15 0)
(1 -4.48166e-16 0)
(1 -9.02992e-16 0)
(1 3.39477e-15 0)
(1 1.73727e-15 0)
(1 5.81375e-15 0)
(1 6.90512e-15 0)
(1 -4.59332e-15 0)
(1 -2.08246e-15 0)
(1 -8.43749e-16 0)
(1 8.22795e-15 0)
(1 -2.12997e-15 0)
(1 -3.13457e-15 0)
(1 -1.37858e-14 0)
(1 -9.17208e-15 0)
(1 5.8165e-16 0)
(1 3.66392e-15 0)
(1 1.40164e-14 0)
(1 -1.55269e-15 0)
(1 1.46714e-15 0)
(1 9.74176e-16 0)
(1 3.462e-15 0)
(1 3.34198e-15 0)
(1 1.0188e-14 0)
(1 4.34354e-15 0)
(1 4.04441e-15 0)
(1 1.18839e-14 0)
(1 6.51754e-15 0)
(1 -1.99741e-15 0)
(1 1.76572e-15 0)
(1 -5.60651e-15 0)
(1 -9.22821e-15 0)
(1 -2.0046e-15 0)
(1 -2.27955e-15 0)
(1 1.01471e-14 0)
(1 8.35369e-15 0)
(1 1.24106e-14 0)
(1 1.12447e-14 0)
(1 2.38998e-15 0)
(1 -6.39567e-15 0)
(1 -7.57217e-15 0)
(1 5.72535e-16 0)
(1 7.11573e-15 0)
(1 2.45025e-15 0)
(1 -1.09762e-16 0)
(1 -1.10792e-15 0)
(1 -5.42664e-15 0)
(1 -2.53828e-15 0)
(1 -2.6573e-15 0)
(1 9.2737e-15 0)
(1 4.7584e-15 0)
(1 -1.14806e-15 0)
(1 -3.70082e-15 0)
(1 -1.10706e-14 0)
(1 -6.6524e-15 0)
(1 1.13904e-14 0)
(1 8.81506e-15 0)
(1 4.79761e-15 0)
(1 2.51253e-16 0)
(1 4.85715e-16 0)
(1 -2.63721e-15 0)
(1 -2.25216e-15 0)
(1 3.62268e-15 0)
(1 1.41419e-15 0)
(1 -8.41248e-16 0)
(1 -8.46405e-16 0)
(1 4.4088e-15 0)
(1 4.93112e-15 0)
(1 6.77269e-15 0)
(1 2.07962e-15 0)
(1 2.64758e-16 0)
(1 -1.67583e-15 0)
(1 -8.84902e-18 0)
(1 -5.9009e-16 0)
(1 5.47232e-15 0)
(1 3.69844e-15 0)
(1 8.72541e-16 0)
(1 2.00265e-15 0)
(1 -2.21245e-15 0)
(1 -2.69697e-15 0)
(1 1.71328e-15 0)
(1 5.47413e-15 0)
(1 1.67972e-15 0)
(1 -1.08754e-15 0)
(1 4.06443e-15 0)
(1 5.16912e-15 0)
(1 8.08561e-15 0)
(1 7.10311e-15 0)
(1 4.09798e-15 0)
(1 4.01321e-15 0)
(1 2.40375e-15 0)
(1 9.01427e-16 0)
(1 2.06327e-16 0)
(1 2.45369e-15 0)
(1 1.00982e-15 0)
(1 2.58589e-15 0)
(1 5.22334e-15 0)
(1 3.82942e-16 0)
(1 4.08242e-15 0)
(1 1.26717e-15 0)
(1 -5.22674e-16 0)
(1 2.53024e-15 0)
(1 2.80087e-15 0)
(1 3.10031e-15 0)
(1 4.09041e-15 0)
(1 5.92039e-15 0)
(1 7.16764e-15 0)
(1 -7.44328e-15 0)
(1 5.25698e-15 0)
(1 -2.73402e-15 0)
(1 6.09592e-15 0)
(1 2.58782e-16 0)
(1 -5.31952e-15 0)
(1 -3.53933e-15 0)
(1 -6.83903e-15 0)
(1 -1.64855e-15 0)
(1 -1.39943e-15 0)
(1 -2.15685e-15 0)
(1 -7.75824e-15 0)
(1 4.75935e-15 0)
(1 4.06718e-15 0)
(1 9.40065e-15 0)
(1 7.95668e-15 0)
(1 5.38827e-15 0)
(1 6.87541e-15 0)
(1 9.59149e-15 0)
(1 5.51701e-15 0)
(1 -6.67438e-15 0)
(1 -9.16324e-15 0)
(1 -8.03418e-15 0)
(1 3.63109e-16 0)
(1 -2.44439e-15 0)
(1 1.17163e-14 0)
(1 4.14947e-15 0)
(1 1.01141e-14 0)
(1 -6.15952e-16 0)
(1 -5.50745e-15 0)
(1 5.38215e-15 0)
(1 2.56483e-15 0)
(1 7.3026e-16 0)
(1 1.24919e-15 0)
(1 1.1026e-15 0)
(1 -1.75391e-15 0)
(1 1.42128e-15 0)
(1 1.77422e-16 0)
(1 3.37022e-15 0)
(1 -6.26853e-15 0)
(1 -6.17132e-15 0)
(1 -4.1018e-15 0)
(1 5.54142e-15 0)
(1 3.90733e-15 0)
(1 6.66099e-15 0)
(1 4.89149e-15 0)
(1 -2.45021e-15 0)
(1 4.59911e-15 0)
(1 -1.95955e-15 0)
(1 6.49062e-16 0)
(1 -1.80726e-15 0)
(1 2.34717e-15 0)
(1 5.07512e-15 0)
(1 6.04617e-15 0)
(1 2.42871e-15 0)
(1 2.03025e-15 0)
(1 6.18978e-15 0)
(1 -1.32128e-15 0)
(1 -1.40417e-15 0)
(1 -3.23169e-15 0)
(1 3.79101e-15 0)
(1 7.22262e-15 0)
(1 8.89087e-15 0)
(1 1.20317e-15 0)
(1 3.41406e-15 0)
(1 4.97724e-15 0)
(1 6.66991e-15 0)
(1 1.85061e-15 0)
(1 1.59845e-15 0)
(1 -2.13492e-15 0)
(1 1.88235e-15 0)
(1 8.58714e-15 0)
(1 4.31749e-15 0)
(1 2.64286e-15 0)
(1 6.58758e-15 0)
(1 9.7772e-15 0)
(1 4.32708e-15 0)
(1 6.11788e-15 0)
(1 3.75539e-15 0)
(1 3.06473e-15 0)
(1 8.57577e-16 0)
(1 -4.33457e-15 0)
(1 -1.47341e-15 0)
(1 2.50436e-15 0)
(1 3.79599e-15 0)
(1 4.06767e-15 0)
(1 -3.33366e-15 0)
(1 2.89929e-16 0)
(1 4.37697e-15 0)
(1 -3.19096e-16 0)
(1 1.87238e-15 0)
(1 -1.20069e-15 0)
(1 4.89756e-16 0)
(1 -2.40171e-16 0)
(1 2.09746e-15 0)
(1 3.22694e-15 0)
(1 3.12333e-16 0)
(1 2.93711e-15 0)
(1 4.89333e-15 0)
(1 1.13209e-14 0)
(1 -9.2639e-16 0)
(1 -7.47785e-16 0)
(1 4.33066e-15 0)
(1 -1.04284e-14 0)
(1 -4.96441e-15 0)
(1 -6.92317e-15 0)
(1 1.59068e-15 0)
(1 -3.15161e-15 0)
(1 -6.567e-15 0)
(1 2.65164e-15 0)
(1 -2.13956e-15 0)
(1 8.43079e-15 0)
(1 2.45222e-15 0)
(1 8.59266e-15 0)
(1 1.65045e-15 0)
(1 1.10691e-14 0)
(1 2.72566e-15 0)
(1 1.68552e-14 0)
(1 8.89286e-15 0)
(1 -1.80835e-15 0)
(1 -3.52845e-15 0)
(1 9.76933e-16 0)
(1 -1.0344e-14 0)
(1 1.10434e-15 0)
(1 -3.65628e-15 0)
(1 1.576e-15 0)
(1 6.9207e-15 0)
(1 -2.62988e-15 0)
(1 -1.14593e-14 0)
(1 -1.22242e-15 0)
(1 -1.49061e-14 0)
(1 -2.34296e-15 0)
(1 4.11756e-15 0)
(1 1.2139e-14 0)
(1 4.2772e-15 0)
(1 4.43566e-15 0)
(1 2.89871e-15 0)
(1 1.20086e-15 0)
(1 4.18332e-15 0)
(1 -1.46293e-15 0)
(1 -4.15985e-15 0)
(1 9.67546e-15 0)
(1 8.29455e-15 0)
(1 1.33183e-14 0)
(1 1.69386e-14 0)
(1 9.70478e-15 0)
(1 3.86805e-15 0)
(1 1.17763e-15 0)
(1 -1.05359e-14 0)
(1 -1.31318e-14 0)
(1 -5.65401e-15 0)
(1 2.53938e-15 0)
(1 4.02246e-15 0)
(1 4.75178e-15 0)
(1 1.46477e-15 0)
(1 -2.23045e-15 0)
(1 4.10839e-15 0)
(1 7.55278e-15 0)
(1 4.07816e-15 0)
(1 4.24959e-15 0)
(1 4.38313e-15 0)
(1 6.03279e-15 0)
(1 -5.81864e-15 0)
(1 -7.65733e-16 0)
(1 -1.73411e-15 0)
(1 1.45299e-14 0)
(1 1.64643e-14 0)
(1 1.4203e-14 0)
(1 1.32353e-14 0)
(1 1.61517e-14 0)
(1 3.4926e-15 0)
(1 4.77284e-15 0)
(1 5.46386e-15 0)
(1 1.2399e-15 0)
(1 -7.31444e-15 0)
(1 -2.88415e-15 0)
(1 4.05465e-16 0)
(1 2.15473e-15 0)
(1 -6.66315e-16 0)
(1 1.1547e-14 0)
(1 6.31249e-15 0)
(1 1.14462e-14 0)
(1 2.9034e-15 0)
(1 -1.01207e-15 0)
(1 -2.02082e-15 0)
(1 -6.18586e-15 0)
(1 -1.65013e-15 0)
(1 1.66191e-15 0)
(1 2.28904e-15 0)
(1 2.33771e-15 0)
(1 2.59022e-15 0)
(1 -3.82491e-15 0)
(1 4.28681e-15 0)
(1 3.83952e-15 0)
(1 1.14354e-14 0)
(1 8.97418e-15 0)
(1 9.35641e-15 0)
(1 1.10645e-14 0)
(1 1.75872e-14 0)
(1 1.77148e-14 0)
(1 3.40123e-15 0)
(1 3.63816e-16 0)
(1 4.08692e-15 0)
(1 -4.042e-15 0)
(1 -4.8826e-15 0)
(1 -2.7045e-15 0)
(1 -1.21724e-15 0)
(1 5.794e-15 0)
(1 2.2835e-15 0)
(1 3.01139e-15 0)
(1 -1.18098e-15 0)
(1 9.37122e-15 0)
(1 6.14998e-15 0)
(1 -3.77242e-15 0)
(1 -6.03045e-16 0)
(1 -2.8462e-15 0)
(1 4.04025e-15 0)
(1 5.25841e-15 0)
(1 -5.44045e-15 0)
(1 -8.47483e-15 0)
(1 -1.14518e-15 0)
(1 1.84059e-15 0)
(1 1.06712e-15 0)
(1 -3.82927e-15 0)
(1 5.87443e-15 0)
(1 8.37293e-15 0)
(1 1.1916e-14 0)
(1 -7.79679e-15 0)
(1 -1.50167e-16 0)
(1 -3.29487e-15 0)
(1 -7.99663e-15 0)
(1 -2.57275e-15 0)
(1 9.46867e-16 0)
(1 5.98419e-16 0)
(1 -3.02789e-15 0)
(1 4.70358e-16 0)
(1 -4.11065e-15 0)
(1 -4.12746e-16 0)
(1 -4.45869e-15 0)
(1 3.87641e-15 0)
(1 -4.61993e-16 0)
(1 9.06505e-15 0)
(1 4.6168e-15 0)
(1 1.05168e-14 0)
(1 5.24781e-15 0)
(1 2.53829e-15 0)
(1 7.15742e-17 0)
(1 -3.775e-15 0)
(1 5.89043e-15 0)
(1 -5.50345e-16 0)
(1 6.7066e-15 0)
(1 4.3333e-15 0)
(1 1.30821e-15 0)
(1 2.23103e-15 0)
(1 2.76153e-15 0)
(1 1.77089e-15 0)
(1 6.36649e-15 0)
(1 5.25637e-15 0)
(1 1.6252e-15 0)
(1 6.90255e-15 0)
(1 5.91318e-15 0)
(1 7.71671e-15 0)
(1 6.48471e-15 0)
(1 1.10483e-14 0)
(1 7.05556e-15 0)
(1 1.88094e-15 0)
(1 6.78847e-15 0)
(1 9.83154e-15 0)
(1 1.21831e-14 0)
(1 6.30104e-15 0)
(1 4.47008e-15 0)
(1 8.32437e-15 0)
(1 6.70859e-17 0)
(1 4.58348e-15 0)
(1 -3.19347e-15 0)
(1 -1.40547e-16 0)
(1 6.23381e-15 0)
(1 7.67571e-15 0)
(1 6.90911e-15 0)
(1 7.84219e-15 0)
(1 6.19938e-15 0)
(1 6.37137e-15 0)
(1 -2.56694e-15 0)
(1 -2.57547e-15 0)
(1 -1.09157e-15 0)
(1 -3.63541e-15 0)
(1 4.7128e-15 0)
(1 1.26245e-15 0)
(1 5.79775e-16 0)
(1 2.32796e-15 0)
(1 4.30023e-15 0)
(1 1.39437e-16 0)
(1 7.44269e-15 0)
(1 2.77562e-15 0)
(1 9.37325e-15 0)
(1 6.67645e-15 0)
(1 1.06304e-14 0)
(1 1.28416e-14 0)
(1 2.50317e-14 0)
(1 1.97693e-14 0)
(1 2.8299e-16 0)
(1 3.44867e-16 0)
(1 -3.98733e-15 0)
(1 2.32127e-15 0)
(1 -2.03771e-15 0)
(1 -4.22565e-16 0)
(1 1.4353e-15 0)
(1 1.05158e-15 0)
(1 5.77389e-15 0)
(1 -1.20411e-14 0)
(1 -1.27333e-14 0)
(1 7.24611e-16 0)
(1 3.76769e-17 0)
(1 -5.25653e-16 0)
(1 5.81081e-15 0)
(1 2.22824e-15 0)
(1 1.12314e-14 0)
(1 -5.11579e-15 0)
(1 2.75474e-15 0)
(1 -3.71936e-15 0)
(1 -1.87699e-15 0)
(1 -1.1763e-15 0)
(1 -5.27654e-16 0)
(1 -5.98908e-15 0)
(1 -4.07913e-15 0)
(1 5.24174e-15 0)
(1 1.50284e-14 0)
(1 7.88707e-15 0)
(1 7.70445e-15 0)
(1 -9.90343e-15 0)
(1 -3.92268e-15 0)
(1 -5.0601e-15 0)
(1 -3.48617e-15 0)
(1 3.9457e-16 0)
(1 6.24193e-15 0)
(1 1.73097e-15 0)
(1 -1.147e-15 0)
(1 2.87929e-15 0)
(1 -1.8656e-16 0)
(1 6.50189e-15 0)
(1 1.13951e-14 0)
(1 -5.16327e-15 0)
(1 3.64779e-15 0)
(1 8.19656e-17 0)
(1 -2.78387e-15 0)
(1 -1.77681e-15 0)
(1 4.30959e-15 0)
(1 1.70009e-15 0)
(1 8.03121e-15 0)
(1 2.83971e-15 0)
(1 1.2085e-15 0)
(1 1.99236e-15 0)
(1 5.22598e-15 0)
(1 6.60132e-15 0)
(1 9.9782e-15 0)
(1 3.52852e-15 0)
(1 9.46603e-15 0)
(1 -1.34119e-15 0)
(1 5.38822e-15 0)
(1 5.90929e-16 0)
(1 1.06692e-14 0)
(1 -1.2905e-15 0)
(1 9.99731e-15 0)
(1 1.38028e-15 0)
(1 8.05309e-15 0)
(1 2.14844e-15 0)
(1 1.05839e-14 0)
(1 5.19882e-15 0)
(1 8.83117e-15 0)
(1 3.47271e-15 0)
(1 1.33894e-14 0)
(1 4.48624e-15 0)
(1 1.21593e-16 0)
(1 -1.07994e-15 0)
(1 -7.24259e-16 0)
(1 4.9554e-15 0)
(1 9.89206e-15 0)
(1 5.96566e-15 0)
(1 8.95773e-15 0)
(1 8.31304e-16 0)
(1 6.45053e-15 0)
(1 -1.92756e-16 0)
(1 6.0225e-15 0)
(1 -5.42393e-17 0)
(1 5.46245e-17 0)
(1 7.22391e-15 0)
(1 9.34811e-16 0)
(1 1.5501e-15 0)
(1 3.07103e-15 0)
(1 1.34198e-16 0)
(1 4.29068e-15 0)
(1 1.42962e-15 0)
(1 2.08295e-15 0)
(1 -2.53519e-16 0)
(1 2.7625e-15 0)
(1 6.71855e-15 0)
(1 1.11635e-14 0)
(1 9.73167e-15 0)
(1 1.09857e-14 0)
(1 1.3112e-14 0)
(1 4.24352e-15 0)
(1 -6.21892e-15 0)
(1 1.43075e-15 0)
(1 -8.5696e-16 0)
(1 -8.53429e-16 0)
(1 -4.4037e-15 0)
(1 -3.94131e-15 0)
(1 -3.27895e-15 0)
(1 6.57321e-15 0)
(1 1.13255e-14 0)
(1 3.17673e-15 0)
(1 1.78519e-15 0)
(1 -1.41516e-15 0)
(1 -2.19894e-15 0)
(1 -7.75896e-15 0)
(1 2.76743e-15 0)
(1 5.90771e-15 0)
(1 -3.77106e-15 0)
(1 5.65247e-16 0)
(1 -4.46663e-15 0)
(1 -6.42981e-15 0)
(1 -4.00396e-15 0)
(1 -5.54332e-17 0)
(1 9.46562e-15 0)
(1 1.65284e-15 0)
(1 -2.97865e-16 0)
(1 2.32993e-15 0)
(1 5.14445e-15 0)
(1 8.8206e-15 0)
(1 4.21798e-15 0)
(1 1.23449e-15 0)
(1 -1.32491e-15 0)
(1 -6.64052e-15 0)
(1 -3.28186e-15 0)
(1 1.04395e-16 0)
(1 -8.7053e-15 0)
(1 -4.36171e-15 0)
(1 -5.27032e-15 0)
(1 1.88611e-15 0)
(1 8.28547e-16 0)
(1 9.41285e-15 0)
(1 -4.32141e-15 0)
(1 -3.52642e-15 0)
(1 -8.26207e-15 0)
(1 4.9435e-15 0)
(1 7.07236e-15 0)
(1 1.47086e-14 0)
(1 9.06857e-15 0)
(1 2.50434e-15 0)
(1 -1.0977e-15 0)
(1 -3.92358e-16 0)
(1 3.74975e-15 0)
(1 4.8749e-15 0)
(1 1.33583e-14 0)
(1 1.31959e-14 0)
(1 7.40153e-15 0)
(1 1.55914e-15 0)
(1 9.44483e-16 0)
(1 -2.69077e-15 0)
(1 1.81067e-16 0)
(1 7.96015e-15 0)
(1 1.18847e-14 0)
(1 7.52137e-15 0)
(1 -1.46758e-15 0)
(1 -4.85836e-15 0)
(1 4.45052e-15 0)
(1 7.48649e-15 0)
(1 6.89434e-15 0)
(1 1.38413e-15 0)
(1 6.65441e-15 0)
(1 1.01831e-14 0)
(1 3.57673e-15 0)
(1 6.73118e-15 0)
(1 1.85784e-15 0)
(1 4.06112e-15 0)
(1 2.86571e-15 0)
(1 4.13206e-15 0)
(1 6.28519e-15 0)
(1 8.91319e-15 0)
(1 3.77738e-15 0)
(1 1.24086e-14 0)
(1 7.37904e-15 0)
(1 4.6427e-15 0)
(1 3.9405e-16 0)
(1 -2.15755e-15 0)
(1 2.9373e-15 0)
(1 -3.07375e-15 0)
(1 2.14076e-15 0)
(1 2.90654e-15 0)
(1 1.8626e-16 0)
(1 5.45575e-15 0)
(1 4.22254e-15 0)
(1 2.91483e-15 0)
(1 3.52666e-15 0)
(1 4.05127e-15 0)
(1 1.5743e-14 0)
(1 1.19319e-14 0)
(1 8.97612e-15 0)
(1 8.24467e-16 0)
(1 7.15312e-15 0)
(1 5.87369e-15 0)
(1 -1.80992e-16 0)
(1 -3.49971e-15 0)
(1 -3.13541e-15 0)
(1 2.78206e-15 0)
(1 5.28466e-15 0)
(1 1.63189e-15 0)
(1 -1.82344e-15 0)
(1 -1.90692e-15 0)
(1 8.2287e-15 0)
(1 8.07188e-15 0)
(1 -3.55938e-15 0)
(1 4.92589e-15 0)
(1 6.83056e-15 0)
(1 1.49116e-15 0)
(1 -6.96448e-15 0)
(1 -1.03751e-14 0)
(1 -7.58881e-15 0)
(1 -1.6658e-15 0)
(1 -3.95558e-15 0)
(1 -2.43682e-15 0)
(1 -5.09581e-15 0)
(1 1.59638e-15 0)
(1 -2.02115e-15 0)
(1 1.30242e-14 0)
(1 2.42911e-15 0)
(1 -3.52788e-15 0)
(1 -3.68595e-16 0)
(1 -3.99408e-16 0)
(1 -3.1959e-15 0)
(1 -3.80031e-15 0)
(1 -1.27308e-15 0)
(1 -5.71725e-15 0)
(1 1.79981e-15 0)
(1 1.01412e-15 0)
(1 9.12073e-16 0)
(1 4.79474e-15 0)
(1 6.34256e-17 0)
(1 3.29499e-15 0)
(1 -2.20398e-15 0)
(1 -9.83561e-15 0)
(1 3.46913e-16 0)
(1 -2.95816e-15 0)
(1 -3.75212e-15 0)
(1 -2.43049e-15 0)
(1 7.2235e-15 0)
(1 8.18662e-15 0)
(1 1.44346e-14 0)
(1 3.28335e-15 0)
(1 5.43854e-15 0)
(1 2.26845e-15 0)
(1 -4.05908e-16 0)
(1 2.6817e-15 0)
(1 7.62518e-15 0)
(1 7.79661e-15 0)
(1 3.02998e-15 0)
(1 4.02076e-15 0)
(1 2.1115e-15 0)
(1 -7.3204e-15 0)
(1 -1.05689e-15 0)
(1 2.41104e-15 0)
(1 1.21472e-14 0)
(1 1.30688e-14 0)
(1 1.67049e-14 0)
(1 9.27549e-15 0)
(1 1.41416e-15 0)
(1 -5.41467e-15 0)
(1 8.06812e-16 0)
(1 -1.63159e-15 0)
(1 1.47467e-15 0)
(1 5.51988e-16 0)
(1 6.74637e-15 0)
(1 6.44769e-15 0)
(1 1.00282e-14 0)
(1 9.34949e-15 0)
(1 3.01561e-15 0)
(1 -3.88266e-15 0)
(1 5.86671e-15 0)
(1 7.14072e-15 0)
(1 7.493e-15 0)
(1 4.24054e-15 0)
(1 5.83532e-15 0)
(1 -1.36664e-15 0)
(1 3.14702e-15 0)
(1 4.19351e-15 0)
(1 3.51926e-15 0)
(1 -9.78013e-16 0)
(1 1.70529e-15 0)
(1 -3.3577e-15 0)
(1 3.11082e-15 0)
(1 2.49633e-15 0)
(1 3.05533e-15 0)
(1 1.72504e-15 0)
(1 5.94882e-16 0)
(1 3.04347e-15 0)
(1 1.09065e-14 0)
(1 5.54673e-15 0)
(1 6.36754e-15 0)
(1 2.97328e-15 0)
(1 7.44259e-15 0)
(1 -3.3372e-15 0)
(1 9.43829e-15 0)
(1 -7.13944e-15 0)
(1 -1.68722e-15 0)
(1 5.54055e-15 0)
(1 5.8154e-15 0)
(1 1.60226e-15 0)
(1 4.70324e-15 0)
(1 -1.85896e-15 0)
(1 -6.06678e-15 0)
(1 1.77134e-15 0)
(1 6.85953e-15 0)
(1 2.70846e-15 0)
(1 1.07426e-14 0)
(1 -2.8192e-15 0)
(1 -1.59415e-14 0)
(1 -1.26326e-14 0)
(1 1.46005e-15 0)
(1 3.23473e-15 0)
(1 -1.44329e-15 0)
(1 1.27061e-15 0)
(1 -8.81196e-15 0)
(1 -2.6061e-15 0)
(1 -8.14971e-15 0)
(1 8.77778e-15 0)
(1 -3.20357e-15 0)
(1 1.16371e-15 0)
(1 1.35427e-16 0)
(1 8.43807e-16 0)
(1 -4.54904e-15 0)
(1 -3.9324e-15 0)
(1 3.01048e-15 0)
(1 2.6335e-15 0)
(1 5.71172e-15 0)
(1 8.03474e-15 0)
(1 3.40608e-15 0)
(1 4.19514e-15 0)
(1 -1.46991e-15 0)
(1 -8.70057e-16 0)
(1 -3.48488e-15 0)
(1 -1.19341e-14 0)
(1 -4.73517e-15 0)
(1 -2.84017e-16 0)
(1 1.4404e-14 0)
(1 3.63404e-15 0)
(1 3.5244e-15 0)
(1 -3.11784e-15 0)
(1 6.26529e-15 0)
(1 3.14309e-15 0)
(1 3.69833e-15 0)
(1 -3.69671e-16 0)
(1 -4.33561e-15 0)
(1 8.60431e-15 0)
(1 -8.54018e-16 0)
(1 3.52481e-15 0)
(1 8.26028e-15 0)
(1 9.78868e-15 0)
(1 1.04429e-14 0)
(1 1.07441e-14 0)
(1 2.6038e-15 0)
(1 7.43752e-16 0)
(1 -3.73773e-17 0)
(1 4.22773e-16 0)
(1 8.42921e-15 0)
(1 7.34123e-15 0)
(1 1.07233e-14 0)
(1 3.04996e-15 0)
(1 3.96362e-15 0)
(1 9.10405e-16 0)
(1 1.62517e-15 0)
(1 3.18286e-15 0)
(1 5.57781e-15 0)
(1 1.01534e-14 0)
(1 1.22528e-14 0)
(1 9.86733e-15 0)
(1 1.30486e-14 0)
(1 3.07436e-15 0)
(1 7.20626e-15 0)
(1 9.42589e-15 0)
(1 7.55856e-15 0)
(1 2.84224e-15 0)
(1 4.84637e-15 0)
(1 3.43296e-15 0)
(1 4.67462e-15 0)
(1 3.69552e-15 0)
(1 9.51103e-16 0)
(1 -2.29752e-15 0)
(1 5.46695e-15 0)
(1 3.48769e-15 0)
(1 3.31894e-15 0)
(1 -1.81697e-16 0)
(1 3.97229e-15 0)
(1 3.34507e-15 0)
(1 2.9783e-15 0)
(1 -2.61019e-16 0)
(1 2.90563e-15 0)
(1 8.16837e-15 0)
(1 8.78022e-15 0)
(1 8.4962e-15 0)
(1 9.17829e-15 0)
(1 1.57698e-15 0)
(1 2.76808e-15 0)
(1 5.6962e-15 0)
(1 5.64879e-15 0)
(1 6.47907e-15 0)
(1 -1.88964e-15 0)
(1 -9.84784e-15 0)
(1 -7.64544e-15 0)
(1 1.43503e-15 0)
(1 6.76538e-15 0)
(1 9.16019e-16 0)
(1 9.96078e-15 0)
(1 -4.73532e-15 0)
(1 -8.00536e-15 0)
(1 -1.33313e-14 0)
(1 -1.21963e-14 0)
(1 -1.68145e-14 0)
(1 7.57622e-15 0)
(1 -1.05215e-14 0)
(1 -2.21879e-15 0)
(1 -3.02626e-15 0)
(1 1.53933e-15 0)
(1 8.2075e-15 0)
(1 1.04949e-14 0)
(1 7.06548e-15 0)
(1 6.86055e-15 0)
(1 -1.29992e-15 0)
(1 -2.35089e-15 0)
(1 -2.32765e-15 0)
(1 8.56332e-16 0)
(1 -1.75049e-15 0)
(1 3.51278e-15 0)
(1 2.67585e-15 0)
(1 -7.7848e-15 0)
(1 -4.67296e-15 0)
(1 -4.66813e-15 0)
(1 -1.15965e-15 0)
(1 3.36706e-15 0)
(1 1.04657e-15 0)
(1 1.10881e-16 0)
(1 4.16651e-15 0)
(1 1.47744e-15 0)
(1 -5.68774e-16 0)
(1 8.74204e-15 0)
(1 8.46628e-15 0)
(1 7.23232e-15 0)
(1 -5.03456e-15 0)
(1 1.08392e-16 0)
(1 3.03745e-15 0)
(1 -2.24716e-15 0)
(1 7.43989e-15 0)
(1 3.36879e-15 0)
(1 1.23872e-15 0)
(1 -1.96314e-15 0)
(1 1.67524e-15 0)
(1 7.81848e-15 0)
(1 3.42961e-15 0)
(1 4.79478e-15 0)
(1 6.85816e-15 0)
(1 8.2446e-15 0)
(1 1.02774e-14 0)
(1 4.53983e-15 0)
(1 4.3455e-15 0)
(1 3.50922e-15 0)
(1 6.5492e-15 0)
(1 6.65172e-15 0)
(1 1.05418e-14 0)
(1 1.02229e-14 0)
(1 5.94329e-15 0)
(1 4.29791e-15 0)
(1 1.22061e-15 0)
(1 1.20477e-14 0)
(1 1.14365e-14 0)
(1 1.095e-14 0)
(1 1.13814e-14 0)
(1 9.90323e-15 0)
(1 8.79241e-15 0)
(1 7.94274e-15 0)
(1 7.92387e-15 0)
(1 5.7243e-15 0)
(1 6.76139e-15 0)
(1 3.00489e-15 0)
(1 3.23385e-15 0)
(1 6.36574e-15 0)
(1 1.64949e-15 0)
(1 -5.33537e-15 0)
(1 -4.79393e-15 0)
(1 -2.94377e-15 0)
(1 -6.87508e-16 0)
(1 -2.01073e-15 0)
(1 3.72513e-17 0)
(1 3.86996e-15 0)
(1 6.67521e-15 0)
(1 5.92843e-15 0)
(1 9.1671e-15 0)
(1 1.43243e-15 0)
(1 8.17067e-15 0)
(1 8.96226e-15 0)
(1 1.11148e-14 0)
(1 1.08427e-14 0)
(1 -1.78738e-15 0)
(1 -2.31866e-15 0)
(1 -1.12981e-15 0)
(1 8.25751e-15 0)
(1 6.80782e-16 0)
(1 3.06133e-15 0)
(1 9.45353e-15 0)
(1 5.26391e-15 0)
(1 -7.68188e-16 0)
(1 7.91568e-16 0)
(1 -8.03421e-15 0)
(1 -5.66253e-15 0)
(1 -8.3195e-15 0)
(1 -5.28389e-15 0)
(1 3.73046e-15 0)
(1 1.17022e-15 0)
(1 -2.29475e-15 0)
(1 -1.42148e-14 0)
(1 -1.24973e-14 0)
(1 -3.99729e-15 0)
(1 4.69552e-16 0)
(1 1.08053e-14 0)
(1 7.2955e-16 0)
(1 -2.17145e-15 0)
(1 -1.28648e-14 0)
(1 2.32644e-15 0)
(1 -2.83923e-15 0)
(1 3.99782e-15 0)
(1 -3.91409e-15 0)
(1 3.18879e-15 0)
(1 1.4767e-15 0)
(1 2.06669e-15 0)
(1 7.46953e-15 0)
(1 3.08661e-15 0)
(1 3.33942e-16 0)
(1 5.29622e-15 0)
(1 1.60606e-15 0)
(1 3.83074e-15 0)
(1 1.20264e-15 0)
(1 5.44483e-16 0)
(1 9.50428e-15 0)
(1 8.14341e-15 0)
(1 4.19e-15 0)
(1 -1.04653e-14 0)
(1 -9.65214e-15 0)
(1 -7.53867e-15 0)
(1 -4.78292e-15 0)
(1 -2.74365e-15 0)
(1 2.68211e-15 0)
(1 1.17952e-15 0)
(1 7.36938e-15 0)
(1 7.59396e-15 0)
(1 2.15019e-15 0)
(1 9.23276e-16 0)
(1 2.92686e-15 0)
(1 3.49449e-15 0)
(1 8.65868e-15 0)
(1 3.10992e-15 0)
(1 3.61115e-15 0)
(1 4.28998e-15 0)
(1 -2.07993e-16 0)
(1 -4.52215e-15 0)
(1 6.74855e-15 0)
(1 -1.89772e-15 0)
(1 9.2051e-15 0)
(1 1.45201e-16 0)
(1 7.26091e-15 0)
(1 4.2506e-15 0)
(1 8.56482e-15 0)
(1 5.19495e-15 0)
(1 4.47184e-15 0)
(1 5.12128e-15 0)
(1 8.49175e-15 0)
(1 8.51528e-15 0)
(1 1.0355e-14 0)
(1 1.25079e-15 0)
(1 9.201e-15 0)
(1 5.27591e-15 0)
(1 5.26893e-15 0)
(1 5.9555e-15 0)
(1 1.24797e-15 0)
(1 3.25484e-15 0)
(1 3.09355e-15 0)
(1 2.50249e-15 0)
(1 9.30959e-17 0)
(1 -1.64006e-15 0)
(1 -2.3491e-15 0)
(1 -3.44095e-15 0)
(1 -1.16575e-15 0)
(1 1.96638e-15 0)
(1 8.73015e-15 0)
(1 8.26113e-15 0)
(1 5.75922e-15 0)
(1 -6.48808e-16 0)