/*--------------------------------*- C++ -*----------------------------------*\
| =========                 |                                                 |
| \\      /  F ield         | OpenFOAM: The Open Source CFD Toolbox           |
|  \\    /   O peration     | Version:  v2012                                 |
|   \\  /    A nd           | Website:  www.openfoam.com                      |
|    \\/     M anipulation  |                                                 |
\*---------------------------------------------------------------------------*/
FoamFile
{
    version     2.0;
    format      ascii;
    class       volVectorField;
    location    "0";
    object      U;
}
// * * * * * * * * * * * * * * * * * * * * * * * * * * * * * * * * * * * * * //

dimensions      [0 1 -1 0 0 0 0];


internalField   nonuniform List<vector> 
4000
(
(1 -3.27048e-15 0)
(1 7.45394e-15 0)
(1 1.30773e-15 0)
(1 -1.76411e-15 0)
(1 -2.81739e-15 0)
(1 -1.12767e-15 0)
(1 1.11642e-15 0)
(1 2.63753e-15 0)
(1 -4.7232e-17 0)
(1 -2.95409e-15 0)
(1 2.47719e-15 0)
(1 -7.2995e-16 0)
(1 2.64294e-15 0)
(1 2.46154e-15 0)
(1 6.33124e-15 0)
(1 1.78206e-15 0)
(1 -6.91859e-15 0)
(1 -8.3461e-15 0)
(1 -3.01179e-15 0)
(1 -4.12284e-15 0)
(1 8.64899e-16 0)
(1 -1.24991e-14 0)
(1 3.67755e-15 0)
(1 -5.22155e-15 0)
(1 4.94197e-15 0)
(1 -4.10656e-15 0)
(1 1.72259e-15 0)
(1 4.44925e-15 0)
(1 4.38533e-15 0)
(1 8.91562e-15 0)
(1 4.18701e-15 0)
(1 -3.87006e-15 0)
(1 -3.34074e-15 0)
(1 2.61485e-15 0)
(1 1.0246e-15 0)
(1 5.59773e-15 0)
(1 6.0588e-15 0)
(1 5.13906e-16 0)
(1 -7.83438e-16 0)
(1 -2.37084e-15 0)
(1 -1.23035e-15 0)
(1 -1.03776e-15 0)
(1 -3.06927e-15 0)
(1 -3.13678e-15 0)
(1 -2.75149e-15 0)
(1 3.15675e-16 0)
(1 2.13231e-15 0)
(1 3.17161e-15 0)
(1 -7.65417e-16 0)
(1 6.22526e-16 0)
(1 1.32569e-15 0)
(1 1.91334e-15 0)
(1 2.40327e-16 0)
(1 -3.41391e-15 0)
(1 1.53976e-15 0)
(1 -2.51816e-15 0)
(1 -2.51881e-15 0)
(1 -1.95986e-15 0)
(1 7.90941e-16 0)
(1 4.00658e-15 0)
(1 5.30081e-15 0)
(1 4.48481e-15 0)
(1 1.42366e-15 0)
(1 -3.07594e-15 0)
(1 -4.31113e-15 0)
(1 7.48046e-16 0)
(1 -3.18029e-15 0)
(1 7.1641e-15 0)
(1 5.22126e-16 0)
(1 -1.55857e-16 0)
(1 -5.4913e-15 0)
(1 -1.54318e-15 0)
(1 -3.1487e-15 0)
(1 -2.17626e-15 0)
(1 -3.8868e-15 0)
(1 -1.20695e-15 0)
(1 -2.08794e-15 0)
(1 -5.00246e-16 0)
(1 1.81408e-15 0)
(1 1.4782e-17 0)
(1 3.21529e-16 0)
(1 2.71377e-16 0)
(1 4.33446e-16 0)
(1 9.04597e-17 0)
(1 1.28888e-15 0)
(1 -1.27853e-15 0)
(1 1.31957e-15 0)
(1 8.79803e-16 0)
(1 -2.25517e-15 0)
(1 5.86921e-15 0)
(1 1.61852e-15 0)
(1 2.33658e-15 0)
(1 -6.23753e-15 0)
(1 -4.24119e-15 0)
(1 -9.05429e-16 0)
(1 5.19721e-16 0)
(1 -3.63791e-16 0)
(1 -2.6141e-15 0)
(1 -2.15721e-15 0)
(1 -8.75292e-16 0)
(1 -2.59417e-16 0)
(1 2.30373e-15 0)
(1 6.46596e-15 0)
(1 -4.54916e-15 0)
(1 -1.16066e-15 0)
(1 -2.22831e-15 0)
(1 1.15885e-15 0)
(1 1.53878e-15 0)
(1 3.92256e-15 0)
(1 -7.12732e-15 0)
(1 3.50373e-15 0)
(1 1.79092e-15 0)
(1 4.39634e-15 0)
(1 6.81139e-15 0)
(1 1.00875e-14 0)
(1 3.24543e-15 0)
(1 -9.06188e-15 0)
(1 -1.37709e-14 0)
(1 -3.85079e-15 0)
(1 -4.62558e-15 0)
(1 3.26274e-15 0)
(1 -1.54921e-14 0)
(1 6.19381e-16 0)
(1 -6.20814e-15 0)
(1 6.77955e-15 0)
(1 -6.48982e-15 0)
(1 -8.73292e-16 0)
(1 4.01274e-15 0)
(1 1.44505e-15 0)
(1 7.17669e-15 0)
(1 5.34563e-15 0)
(1 1.17655e-15 0)
(1 4.61293e-15 0)
(1 2.19947e-15 0)
(1 -2.04677e-15 0)
(1 2.51052e-15 0)
(1 2.8554e-15 0)
(1 4.96218e-15 0)
(1 -1.34808e-15 0)
(1 -2.78747e-15 0)
(1 -9.99122e-16 0)
(1 -4.33184e-15 0)
(1 -4.9915e-15 0)
(1 -6.38315e-15 0)
(1 -2.95295e-15 0)
(1 -2.96006e-16 0)
(1 -1.35231e-15 0)
(1 3.40435e-15 0)
(1 1.31167e-15 0)
(1 -2.26406e-16 0)
(1 -1.84801e-15 0)
(1 1.71811e-15 0)
(1 1.06973e-15 0)
(1 6.74994e-16 0)
(1 -2.9179e-15 0)
(1 7.05332e-16 0)
(1 -4.20217e-16 0)
(1 2.46014e-15 0)
(1 -2.89068e-15 0)
(1 1.40107e-15 0)
(1 2.87417e-15 0)
(1 2.4392e-15 0)
(1 4.89446e-15 0)
(1 2.87515e-15 0)
(1 -1.852e-15 0)
(1 -2.06772e-15 0)
(1 -3.75598e-15 0)
(1 2.81171e-15 0)
(1 3.95734e-16 0)
(1 -4.8965e-15 0)
(1 3.00849e-16 0)
(1 -9.56931e-16 0)
(1 9.47939e-16 0)
(1 7.01817e-16 0)
(1 2.61343e-15 0)
(1 2.33385e-15 0)
(1 1.03888e-16 0)
(1 5.15825e-16 0)
(1 6.23799e-15 0)
(1 1.3069e-16 0)
(1 -7.61201e-16 0)
(1 -8.94665e-16 0)
(1 -1.33227e-15 0)
(1 2.52602e-15 0)
(1 2.24671e-15 0)
(1 2.62395e-15 0)
(1 -2.1132e-15 0)
(1 -2.17331e-15 0)
(1 -5.44259e-15 0)
(1 2.81388e-16 0)
(1 2.29498e-15 0)
(1 4.94027e-15 0)
(1 -5.86461e-15 0)
(1 -3.17182e-15 0)
(1 -5.32361e-15 0)
(1 2.95794e-15 0)
(1 1.16708e-15 0)
(1 5.08843e-16 0)
(1 -2.84223e-15 0)
(1 -2.07301e-15 0)
(1 3.41078e-15 0)
(1 -9.40377e-15 0)
(1 4.05031e-15 0)
(1 -7.54607e-15 0)
(1 3.17029e-16 0)
(1 2.60212e-15 0)
(1 8.40039e-16 0)
(1 1.07075e-15 0)
(1 5.78084e-15 0)
(1 2.34902e-15 0)
(1 2.44879e-15 0)
(1 4.73236e-15 0)
(1 1.0865e-15 0)
(1 1.21186e-14 0)
(1 1.83207e-15 0)
(1 -1.68964e-15 0)
(1 -4.87453e-15 0)
(1 -6.19478e-15 0)
(1 -4.39165e-15 0)
(1 3.75503e-15 0)
(1 3.93291e-15 0)
(1 3.70467e-15 0)
(1 -7.78306e-15 0)
(1 -6.09784e-15 0)
(1 -3.01451e-15 0)
(1 -4.7058e-15 0)
(1 6.76607e-16 0)
(1 6.34921e-15 0)
(1 9.39962e-15 0)
(1 1.00573e-14 0)
(1 4.89666e-15 0)
(1 8.69291e-15 0)
(1 6.47857e-15 0)
(1 5.34206e-15 0)
(1 4.03835e-15 0)
(1 -1.14573e-15 0)
(1 -4.5991e-15 0)
(1 -1.77659e-15 0)
(1 1.12857e-15 0)
(1 -4.35751e-16 0)
(1 -5.76685e-15 0)
(1 -8.76673e-15 0)
(1 -9.67038e-15 0)
(1 -6.51503e-15 0)
(1 -7.59214e-15 0)
(1 3.79262e-15 0)
(1 1.56105e-15 0)
(1 4.96967e-16 0)
(1 1.68866e-15 0)
(1 1.08609e-15 0)
(1 1.08177e-15 0)
(1 2.2895e-15 0)
(1 2.65227e-15 0)
(1 1.92319e-15 0)
(1 -3.17371e-15 0)
(1 5.4344e-16 0)
(1 4.82873e-16 0)
(1 1.45398e-15 0)
(1 -3.77572e-15 0)
(1 -4.69714e-15 0)
(1 4.27387e-15 0)
(1 6.87006e-16 0)
(1 4.53072e-15 0)
(1 2.6901e-15 0)
(1 5.47308e-16 0)
(1 -2.12621e-15 0)
(1 2.36222e-15 0)
(1 1.6779e-15 0)
(1 1.72507e-15 0)
(1 5.9526e-19 0)
(1 9.84632e-16 0)
(1 -2.29852e-15 0)
(1 -2.92927e-15 0)
(1 -1.01034e-15 0)
(1 -2.20559e-15 0)
(1 3.68564e-15 0)
(1 -2.1917e-15 0)
(1 -2.35448e-15 0)
(1 2.63681e-15 0)
(1 7.07874e-16 0)
(1 -1.21577e-15 0)
(1 -6.4493e-15 0)
(1 -1.21194e-15 0)
(1 -1.66068e-15 0)
(1 6.11045e-15 0)
(1 4.12546e-15 0)
(1 -1.51718e-16 0)
(1 1.00118e-15 0)
(1 -5.10833e-15 0)
(1 -1.48838e-15 0)
(1 -2.99637e-15 0)
(1 -1.89871e-15 0)
(1 -2.8755e-15 0)
(1 6.96799e-16 0)
(1 -1.22387e-15 0)
(1 -1.99033e-15 0)
(1 -2.87516e-15 0)
(1 5.55772e-16 0)
(1 -1.33087e-15 0)
(1 -6.61011e-16 0)
(1 3.98574e-15 0)
(1 -9.86504e-15 0)
(1 7.67871e-16 0)
(1 -7.90313e-15 0)
(1 -5.96073e-16 0)
(1 -1.08065e-16 0)
(1 5.47311e-15 0)
(1 5.23837e-15 0)
(1 -2.06798e-15 0)
(1 2.70069e-15 0)
(1 5.73671e-15 0)
(1 6.14539e-15 0)
(1 1.0542e-14 0)
(1 8.76897e-15 0)
(1 2.62247e-15 0)
(1 -2.62517e-15 0)
(1 -2.8003e-15 0)
(1 -7.37535e-15 0)
(1 -1.06851e-14 0)
(1 -9.20828e-16 0)
(1 6.44537e-15 0)
(1 3.42412e-15 0)
(1 9.0275e-16 0)
(1 6.33909e-15 0)
(1 -2.12772e-15 0)
(1 -2.12037e-16 0)
(1 4.32144e-15 0)
(1 4.30926e-15 0)
(1 1.17905e-14 0)
(1 9.50385e-15 0)
(1 2.58728e-15 0)
(1 1.26185e-15 0)
(1 2.24342e-15 0)
(1 2.24047e-15 0)
(1 4.72136e-15 0)
(1 2.14407e-15 0)
(1 -2.92462e-16 0)
(1 -8.81606e-15 0)
(1 5.93531e-15 0)
(1 6.99919e-15 0)
(1 -2.43576e-15 0)
(1 -4.70212e-15 0)
(1 -6.46166e-15 0)
(1 -6.94442e-15 0)
(1 -9.18037e-15 0)
(1 3.12072e-15 0)
(1 7.24816e-15 0)
(1 4.20549e-15 0)
(1 3.18283e-15 0)
(1 3.91537e-15 0)
(1 4.82091e-15 0)
(1 7.22369e-16 0)
(1 -4.53831e-15 0)
(1 -5.32595e-15 0)
(1 -1.29876e-15 0)
(1 -4.1848e-16 0)
(1 -6.31907e-15 0)
(1 -6.1426e-15 0)
(1 -3.99258e-15 0)
(1 -2.59321e-15 0)
(1 4.9688e-15 0)
(1 7.73526e-15 0)
(1 4.84693e-15 0)
(1 5.41581e-15 0)
(1 2.54056e-15 0)
(1 -3.12176e-15 0)
(1 1.61689e-16 0)
(1 -1.0515e-15 0)
(1 -1.05926e-15 0)
(1 -2.11946e-15 0)
(1 -5.59798e-15 0)
(1 -1.01226e-15 0)
(1 -3.21165e-15 0)
(1 -3.84864e-15 0)
(1 -3.47326e-15 0)
(1 5.82425e-16 0)
(1 1.05518e-15 0)
(1 6.73404e-16 0)
(1 9.12444e-16 0)
(1 1.20706e-15 0)
(1 -1.14625e-15 0)
(1 -8.56857e-16 0)
(1 -3.4807e-16 0)
(1 -4.20092e-15 0)
(1 3.60759e-15 0)
(1 6.29176e-15 0)
(1 7.10508e-15 0)
(1 7.24384e-15 0)
(1 1.34143e-15 0)
(1 2.65826e-15 0)
(1 -1.776e-15 0)
(1 -4.95186e-15 0)
(1 -7.04996e-16 0)
(1 8.90075e-16 0)
(1 -3.69123e-15 0)
(1 -3.43594e-15 0)
(1 -6.88308e-15 0)
(1 -1.0668e-14 0)
(1 -3.59941e-15 0)
(1 5.83463e-16 0)
(1 2.83674e-15 0)
(1 -1.09595e-15 0)
(1 -2.22463e-15 0)
(1 -3.54174e-15 0)
(1 -1.77106e-15 0)
(1 -1.69885e-15 0)
(1 3.90036e-15 0)
(1 2.83894e-15 0)
(1 -8.45293e-15 0)
(1 -1.95955e-15 0)
(1 4.8463e-15 0)
(1 1.54425e-16 0)
(1 1.40728e-14 0)
(1 -1.73704e-15 0)
(1 1.11496e-14 0)
(1 5.39981e-15 0)
(1 8.78311e-16 0)
(1 -1.04548e-14 0)
(1 -7.14276e-15 0)
(1 -1.17176e-14 0)
(1 -4.44828e-15 0)
(1 -5.44231e-15 0)
(1 1.12983e-14 0)
(1 1.32503e-14 0)
(1 1.46743e-14 0)
(1 6.05051e-15 0)
(1 9.22633e-15 0)
(1 7.04299e-16 0)
(1 4.76385e-15 0)
(1 6.33478e-15 0)
(1 7.9786e-16 0)
(1 7.99213e-16 0)
(1 8.95286e-15 0)
(1 4.63026e-15 0)
(1 -2.63766e-15 0)
(1 -3.19966e-15 0)
(1 -5.06784e-15 0)
(1 -6.88909e-15 0)
(1 -2.95534e-15 0)
(1 -2.01562e-15 0)
(1 -5.30545e-15 0)
(1 -5.64667e-15 0)
(1 -1.48393e-15 0)
(1 -5.87154e-15 0)
(1 -4.6823e-15 0)
(1 -4.35618e-15 0)
(1 1.66085e-15 0)
(1 7.85407e-15 0)
(1 1.04705e-14 0)
(1 8.07807e-15 0)
(1 1.70743e-15 0)
(1 -1.87858e-15 0)
(1 -5.85552e-15 0)
(1 -2.5749e-15 0)
(1 4.37349e-16 0)
(1 2.28659e-15 0)
(1 1.92668e-16 0)
(1 2.7955e-15 0)
(1 8.07348e-18 0)
(1 -1.83875e-15 0)
(1 7.59493e-16 0)
(1 3.17872e-15 0)
(1 4.99671e-15 0)
(1 4.56263e-15 0)
(1 -1.94191e-16 0)
(1 -1.28158e-15 0)
(1 2.93252e-15 0)
(1 -4.74975e-15 0)
(1 -3.2138e-16 0)
(1 -1.91712e-15 0)
(1 3.56372e-15 0)
(1 3.28847e-16 0)
(1 1.5046e-15 0)
(1 -6.04846e-15 0)
(1 1.78919e-15 0)
(1 -1.31228e-15 0)
(1 3.45005e-15 0)
(1 4.50931e-15 0)
(1 6.31453e-15 0)
(1 6.17495e-15 0)
(1 -3.4653e-15 0)
(1 1.79369e-15 0)
(1 5.99195e-16 0)
(1 3.95088e-15 0)
(1 -9.77615e-16 0)
(1 6.08248e-15 0)
(1 4.36599e-15 0)
(1 6.63988e-16 0)
(1 3.92695e-15 0)
(1 -4.2796e-15 0)
(1 1.48624e-15 0)
(1 -6.52127e-15 0)
(1 -5.05005e-16 0)
(1 -1.21575e-15 0)
(1 -8.02133e-15 0)
(1 1.42527e-15 0)
(1 -3.09204e-15 0)
(1 -9.28858e-15 0)
(1 -2.32003e-15 0)
(1 2.45673e-15 0)
(1 -3.53786e-15 0)
(1 4.71772e-15 0)
(1 -8.70814e-16 0)
(1 6.61344e-16 0)
(1 -2.18048e-15 0)
(1 -6.21304e-16 0)
(1 -5.10378e-15 0)
(1 -9.1225e-15 0)
(1 -2.58475e-15 0)
(1 1.80225e-15 0)
(1 1.54888e-15 0)
(1 3.47983e-15 0)
(1 8.81944e-15 0)
(1 5.69261e-16 0)
(1 2.04796e-15 0)
(1 6.38467e-15 0)
(1 5.45482e-15 0)
(1 -2.36874e-15 0)
(1 3.64276e-15 0)
(1 -2.94667e-15 0)
(1 1.72977e-15 0)
(1 1.00864e-14 0)
(1 6.18407e-15 0)
(1 -3.65882e-15 0)
(1 -3.47949e-15 0)
(1 -3.75636e-15 0)
(1 -4.79826e-15 0)
(1 6.67906e-15 0)
(1 7.85297e-15 0)
(1 1.6341e-14 0)
(1 6.57313e-15 0)
(1 1.05393e-14 0)
(1 8.66007e-15 0)
(1 7.03326e-15 0)
(1 6.16594e-16 0)
(1 1.01053e-15 0)
(1 -6.34055e-15 0)
(1 -4.17165e-15 0)
(1 -6.14063e-15 0)
(1 -5.9227e-15 0)
(1 -7.30431e-15 0)
(1 -6.21536e-15 0)
(1 3.38127e-15 0)
(1 2.40758e-15 0)
(1 4.17324e-15 0)
(1 -1.29812e-15 0)
(1 -3.39187e-15 0)
(1 -3.44181e-15 0)
(1 2.57735e-15 0)
(1 1.79012e-15 0)
(1 6.23967e-15 0)
(1 3.84875e-15 0)
(1 -3.16109e-15 0)
(1 -4.95086e-15 0)
(1 6.49353e-16 0)
(1 -1.62998e-15 0)
(1 1.07811e-15 0)
(1 1.15075e-15 0)
(1 7.66441e-15 0)
(1 4.60821e-15 0)
(1 5.99573e-15 0)
(1 2.88604e-15 0)
(1 -3.47142e-17 0)
(1 -4.01181e-15 0)
(1 1.04917e-15 0)
(1 6.51756e-15 0)
(1 7.2427e-15 0)
(1 8.18288e-15 0)
(1 9.67128e-15 0)
(1 1.77153e-14 0)
(1 7.32513e-15 0)
(1 -8.48048e-17 0)
(1 -2.91969e-15 0)
(1 -3.66271e-15 0)
(1 -8.74987e-15 0)
(1 -9.63775e-15 0)
(1 -9.19391e-15 0)
(1 4.1315e-16 0)
(1 8.5047e-15 0)
(1 1.18619e-14 0)
(1 1.49844e-16 0)
(1 9.65537e-16 0)
(1 6.61439e-15 0)
(1 5.8905e-15 0)
(1 -3.73389e-15 0)
(1 -1.96855e-16 0)
(1 4.54895e-15 0)
(1 4.25436e-15 0)
(1 -8.56299e-16 0)
(1 -3.41187e-15 0)
(1 -4.29974e-15 0)
(1 -4.04182e-15 0)
(1 -2.99867e-15 0)
(1 -1.93936e-15 0)
(1 8.72237e-16 0)
(1 -2.40602e-15 0)
(1 3.52949e-15 0)
(1 1.41484e-15 0)
(1 3.54075e-15 0)
(1 4.86996e-15 0)
(1 -4.45758e-15 0)
(1 -5.94207e-16 0)
(1 -5.9385e-16 0)
(1 6.55139e-15 0)
(1 1.24626e-15 0)
(1 -2.79696e-15 0)
(1 -6.2359e-15 0)
(1 -1.31538e-14 0)
(1 2.84011e-15 0)
(1 -3.08002e-15 0)
(1 4.16946e-15 0)
(1 5.5973e-15 0)
(1 2.01758e-15 0)
(1 5.40545e-15 0)
(1 7.45018e-16 0)
(1 3.29898e-15 0)
(1 6.92188e-15 0)
(1 5.5466e-15 0)
(1 5.33389e-15 0)
(1 8.19171e-15 0)
(1 3.36439e-15 0)
(1 8.37481e-15 0)
(1 -2.61667e-15 0)
(1 -1.62548e-15 0)
(1 -9.87344e-15 0)
(1 -3.40338e-15 0)
(1 9.45993e-16 0)
(1 5.4045e-15 0)
(1 3.09066e-15 0)
(1 5.71465e-15 0)
(1 1.13589e-14 0)
(1 8.96585e-15 0)
(1 7.3483e-15 0)
(1 -4.10421e-15 0)
(1 -2.09384e-15 0)
(1 8.83149e-16 0)
(1 4.56789e-15 0)
(1 -1.53072e-15 0)
(1 8.68398e-16 0)
(1 -4.01865e-16 0)
(1 7.26825e-16 0)
(1 -2.71467e-15 0)
(1 7.46064e-16 0)
(1 7.87057e-15 0)
(1 7.65963e-15 0)
(1 -4.94436e-15 0)
(1 -9.12905e-15 0)
(1 -1.26652e-15 0)
(1 9.81063e-15 0)
(1 4.0046e-15 0)
(1 5.32939e-15 0)
(1 1.26188e-15 0)
(1 -1.64319e-15 0)
(1 -4.10098e-15 0)
(1 -6.52335e-15 0)
(1 2.99416e-15 0)
(1 1.6023e-15 0)
(1 -3.95445e-15 0)
(1 -6.50493e-16 0)
(1 2.98055e-15 0)
(1 3.98647e-15 0)
(1 8.13483e-15 0)
(1 1.57462e-15 0)
(1 3.41509e-15 0)
(1 5.82643e-15 0)
(1 2.00341e-15 0)
(1 2.58923e-15 0)
(1 2.38487e-15 0)
(1 2.79628e-15 0)
(1 -3.36237e-17 0)
(1 -1.91443e-15 0)
(1 -1.36953e-16 0)
(1 9.16041e-16 0)
(1 4.48783e-15 0)
(1 6.77133e-16 0)
(1 -7.86408e-16 0)
(1 1.04736e-15 0)
(1 4.70929e-15 0)
(1 6.529e-15 0)
(1 5.3004e-15 0)
(1 3.09873e-15 0)
(1 1.35171e-15 0)
(1 2.44348e-15 0)
(1 7.28139e-15 0)
(1 4.35681e-15 0)
(1 3.46162e-15 0)
(1 8.73406e-15 0)
(1 9.899e-15 0)
(1 1.69774e-15 0)
(1 5.7475e-16 0)
(1 -2.79039e-15 0)
(1 2.2563e-15 0)
(1 1.25818e-15 0)
(1 2.84235e-16 0)
(1 9.98398e-16 0)
(1 8.24433e-16 0)
(1 8.17189e-15 0)
(1 5.34855e-15 0)
(1 5.57225e-15 0)
(1 7.08587e-15 0)
(1 -1.36839e-15 0)
(1 -1.18419e-15 0)
(1 -4.84987e-15 0)
(1 6.74503e-15 0)
(1 1.73977e-15 0)
(1 -2.4749e-15 0)
(1 9.32366e-16 0)
(1 -7.81704e-15 0)
(1 -1.12517e-15 0)
(1 -8.15998e-15 0)
(1 -3.67233e-15 0)
(1 1.99462e-15 0)
(1 7.54147e-16 0)
(1 8.4987e-15 0)
(1 9.31435e-15 0)
(1 5.83401e-15 0)
(1 2.082e-15 0)
(1 6.02e-15 0)
(1 6.58573e-15 0)
(1 1.28591e-14 0)
(1 -8.68725e-15 0)
(1 -1.2991e-15 0)
(1 -1.35836e-14 0)
(1 -4.51895e-15 0)
(1 -3.05653e-15 0)
(1 9.99358e-15 0)
(1 1.29148e-14 0)
(1 4.54162e-15 0)
(1 -2.61152e-15 0)
(1 -8.31194e-15 0)
(1 6.19533e-15 0)
(1 4.82638e-15 0)
(1 2.76473e-15 0)
(1 5.60338e-15 0)
(1 4.95749e-15 0)
(1 -9.04077e-16 0)
(1 1.95515e-15 0)
(1 1.22263e-16 0)
(1 -3.21892e-15 0)
(1 -6.80022e-15 0)
(1 -4.2221e-15 0)
(1 -1.17199e-15 0)
(1 -3.18558e-15 0)
(1 9.21306e-15 0)
(1 5.59503e-15 0)
(1 5.20482e-16 0)
(1 -1.11436e-15 0)
(1 3.188e-15 0)
(1 6.3687e-15 0)
(1 2.55326e-15 0)
(1 2.42829e-16 0)
(1 -8.08447e-16 0)
(1 1.12354e-14 0)
(1 5.53422e-15 0)
(1 -3.54637e-16 0)
(1 -5.01716e-15 0)
(1 2.1925e-15 0)
(1 -3.02142e-15 0)
(1 -2.92515e-16 0)
(1 1.69623e-17 0)
(1 5.53377e-15 0)
(1 5.91203e-15 0)
(1 5.49788e-15 0)
(1 4.19765e-15 0)
(1 2.24871e-15 0)
(1 5.28836e-15 0)
(1 7.59451e-15 0)
(1 5.67816e-15 0)
(1 3.72948e-15 0)
(1 -1.47765e-15 0)
(1 6.80065e-15 0)
(1 6.63564e-15 0)
(1 1.28941e-15 0)
(1 3.42385e-15 0)
(1 1.48584e-15 0)
(1 3.80988e-15 0)
(1 9.34985e-15 0)
(1 6.91276e-15 0)
(1 -1.83093e-16 0)
(1 -1.29978e-15 0)
(1 8.08965e-16 0)
(1 -1.00732e-15 0)
(1 -5.82031e-15 0)
(1 3.90095e-15 0)
(1 1.1434e-14 0)
(1 7.03416e-15 0)
(1 3.19931e-15 0)
(1 1.7483e-15 0)
(1 -5.52503e-16 0)
(1 -7.11023e-16 0)
(1 2.1894e-15 0)
(1 2.10365e-17 0)
(1 2.28257e-15 0)
(1 2.38454e-15 0)
(1 1.36245e-15 0)
(1 2.79545e-15 0)
(1 4.22884e-16 0)
(1 4.37678e-15 0)
(1 6.04007e-15 0)
(1 1.33204e-14 0)
(1 1.37678e-15 0)
(1 -2.69547e-15 0)
(1 4.78223e-15 0)
(1 -5.09869e-15 0)
(1 -6.19596e-16 0)
(1 -7.49612e-15 0)
(1 -3.66087e-15 0)
(1 4.54593e-15 0)
(1 -1.14018e-14 0)
(1 -6.04269e-15 0)
(1 2.33897e-15 0)
(1 6.81554e-15 0)
(1 3.17054e-15 0)
(1 6.17342e-15 0)
(1 8.67323e-15 0)
(1 5.11133e-15 0)
(1 -1.04694e-15 0)
(1 8.45437e-15 0)
(1 -3.40148e-17 0)
(1 8.33593e-15 0)
(1 -3.5708e-15 0)
(1 -4.6506e-15 0)
(1 -4.36651e-15 0)
(1 1.3766e-15 0)
(1 3.57871e-15 0)
(1 1.41461e-14 0)
(1 3.34164e-16 0)
(1 2.38191e-15 0)
(1 -1.05271e-14 0)
(1 -9.1882e-15 0)
(1 -7.05947e-15 0)
(1 -7.65984e-16 0)
(1 -3.99533e-15 0)
(1 5.04598e-15 0)
(1 9.24733e-15 0)
(1 3.7399e-15 0)
(1 -3.73261e-16 0)
(1 2.08206e-15 0)
(1 2.38593e-15 0)
(1 1.97161e-15 0)
(1 -4.43937e-15 0)
(1 6.12696e-15 0)
(1 3.48338e-15 0)
(1 9.00515e-15 0)
(1 7.64981e-15 0)
(1 1.49438e-14 0)
(1 5.82316e-15 0)
(1 -1.6677e-15 0)
(1 -4.42484e-15 0)
(1 -3.51994e-15 0)
(1 -1.93335e-15 0)
(1 3.41281e-15 0)
(1 7.60743e-15 0)
(1 2.0634e-15 0)
(1 7.40539e-16 0)
(1 -5.62369e-15 0)
(1 -4.1715e-15 0)
(1 3.29022e-15 0)
(1 2.24456e-15 0)
(1 9.8406e-15 0)
(1 -9.561e-16 0)
(1 9.12353e-15 0)
(1 -6.7131e-15 0)
(1 -3.46977e-15 0)
(1 3.65094e-15 0)
(1 1.2091e-14 0)
(1 1.38943e-14 0)
(1 1.50146e-14 0)
(1 1.75788e-14 0)
(1 1.69921e-14 0)
(1 1.00698e-14 0)
(1 9.75322e-15 0)
(1 1.59295e-15 0)
(1 -1.01774e-16 0)
(1 -7.93553e-15 0)
(1 -3.88953e-15 0)
(1 2.49803e-15 0)
(1 3.78087e-15 0)
(1 -1.29026e-15 0)
(1 4.04353e-15 0)
(1 1.87856e-15 0)
(1 7.03477e-15 0)
(1 5.3554e-15 0)
(1 2.99684e-15 0)
(1 2.16086e-15 0)
(1 -1.4123e-15 0)
(1 -4.36103e-15 0)
(1 1.38358e-15 0)
(1 4.03763e-15 0)
(1 1.2653e-15 0)
(1 3.77457e-15 0)
(1 3.33202e-15 0)
(1 6.9567e-15 0)
(1 7.02329e-15 0)
(1 9.18574e-15 0)
(1 6.27787e-15 0)
(1 9.70602e-15 0)
(1 1.1092e-14 0)
(1 1.92027e-14 0)
(1 2.24457e-14 0)
(1 1.07263e-15 0)
(1 2.39163e-15 0)
(1 5.44702e-15 0)
(1 2.54364e-15 0)
(1 -5.27917e-15 0)
(1 -1.18236e-15 0)
(1 -2.5755e-15 0)
(1 2.6091e-15 0)
(1 -5.11848e-15 0)
(1 -4.39246e-15 0)
(1 5.43014e-15 0)
(1 2.78493e-15 0)
(1 5.85005e-15 0)
(1 2.74665e-15 0)
(1 4.67557e-15 0)
(1 2.20892e-16 0)
(1 7.75257e-16 0)
(1 4.53808e-15 0)
(1 -3.22326e-15 0)
(1 -7.614e-15 0)
(1 -2.31106e-15 0)
(1 -1.35752e-14 0)
(1 7.33895e-15 0)
(1 5.66627e-15 0)
(1 1.05852e-14 0)
(1 9.09667e-15 0)
(1 3.71368e-15 0)
(1 -2.01566e-15 0)
(1 -2.38984e-16 0)
(1 -2.7195e-15 0)
(1 -4.59927e-15 0)
(1 -6.18762e-15 0)
(1 -6.77994e-15 0)
(1 -2.08258e-15 0)
(1 -3.89298e-15 0)
(1 -1.41936e-15 0)
(1 1.52656e-15 0)
(1 5.56151e-15 0)
(1 1.14754e-15 0)
(1 3.71382e-15 0)
(1 2.13023e-15 0)
(1 5.07208e-15 0)
(1 6.82938e-15 0)
(1 4.71714e-15 0)
(1 3.64838e-15 0)
(1 4.02767e-15 0)
(1 -1.78677e-15 0)
(1 -1.12702e-15 0)
(1 -2.28347e-15 0)
(1 3.47192e-15 0)
(1 6.13802e-15 0)
(1 9.26874e-15 0)
(1 4.87513e-15 0)
(1 3.79081e-15 0)
(1 1.74299e-15 0)
(1 6.69225e-15 0)
(1 4.04855e-16 0)
(1 4.16915e-15 0)
(1 -3.2313e-15 0)
(1 7.65589e-15 0)
(1 4.54217e-15 0)
(1 4.82563e-15 0)
(1 8.16926e-15 0)
(1 5.26276e-15 0)
(1 7.91983e-15 0)
(1 6.83125e-15 0)
(1 8.73214e-15 0)
(1 1.3851e-14 0)
(1 1.17516e-14 0)
(1 8.31333e-15 0)
(1 2.92302e-15 0)
(1 5.22757e-15 0)
(1 1.83204e-15 0)
(1 -1.34601e-18 0)
(1 -1.84325e-15 0)
(1 5.24747e-15 0)
(1 8.02207e-15 0)
(1 8.70092e-15 0)
(1 6.93168e-15 0)
(1 4.63845e-15 0)
(1 2.40015e-16 0)
(1 -4.83449e-16 0)
(1 2.04043e-15 0)
(1 2.92995e-16 0)
(1 3.84277e-15 0)
(1 -5.78129e-17 0)
(1 3.90135e-15 0)
(1 8.21742e-16 0)
(1 7.88394e-15 0)
(1 -5.50251e-16 0)
(1 1.6183e-15 0)
(1 4.66767e-15 0)
(1 9.69941e-15 0)
(1 5.25727e-15 0)
(1 7.63808e-15 0)
(1 6.44748e-15 0)
(1 1.21774e-14 0)
(1 1.12852e-14 0)
(1 2.77399e-14 0)
(1 2.26895e-14 0)
(1 1.45288e-16 0)
(1 4.78214e-16 0)
(1 -3.16386e-16 0)
(1 3.94118e-15 0)
(1 -3.03687e-15 0)
(1 -1.04471e-15 0)
(1 -2.17895e-15 0)
(1 -6.01519e-15 0)
(1 2.12034e-15 0)
(1 -6.24625e-15 0)
(1 -9.1631e-15 0)
(1 -7.00496e-15 0)
(1 8.56654e-15 0)
(1 -2.53663e-16 0)
(1 7.66908e-15 0)
(1 3.95787e-15 0)
(1 6.3393e-15 0)
(1 2.97261e-15 0)
(1 4.58915e-16 0)
(1 -6.53178e-15 0)
(1 -4.39685e-16 0)
(1 -4.02729e-15 0)
(1 -4.47531e-16 0)
(1 -3.74254e-15 0)
(1 6.75803e-16 0)
(1 -1.38281e-15 0)
(1 5.29559e-15 0)
(1 1.67528e-15 0)
(1 8.34264e-15 0)
(1 9.4859e-16 0)
(1 2.53453e-15 0)
(1 -5.06631e-15 0)
(1 -1.01147e-14 0)
(1 -7.27263e-15 0)
(1 2.11002e-15 0)
(1 6.11953e-15 0)
(1 6.52689e-15 0)
(1 3.74824e-15 0)
(1 2.67129e-15 0)
(1 -2.84508e-15 0)
(1 9.53898e-15 0)
(1 1.75903e-15 0)
(1 1.17714e-14 0)
(1 -3.50805e-15 0)
(1 9.29975e-16 0)
(1 -1.74591e-15 0)
(1 5.81159e-15 0)
(1 -3.94283e-16 0)
(1 -1.68917e-15 0)
(1 5.34972e-15 0)
(1 5.35054e-15 0)
(1 3.04789e-15 0)
(1 7.38173e-15 0)
(1 4.86006e-15 0)
(1 5.11888e-15 0)
(1 1.44856e-15 0)
(1 3.98495e-15 0)
(1 -3.10187e-15 0)
(1 6.46916e-15 0)
(1 9.29213e-16 0)
(1 1.27402e-14 0)
(1 -3.91961e-15 0)
(1 9.48199e-15 0)
(1 2.71898e-15 0)
(1 7.21818e-15 0)
(1 1.90327e-15 0)
(1 9.75766e-15 0)
(1 1.20365e-14 0)
(1 1.46413e-14 0)
(1 5.61319e-15 0)
(1 8.21716e-15 0)
(1 4.47294e-15 0)
(1 1.33468e-15 0)
(1 -6.54385e-15 0)
(1 -1.28569e-15 0)
(1 4.28448e-15 0)
(1 1.36106e-14 0)
(1 1.19136e-14 0)
(1 9.01326e-15 0)
(1 -2.50474e-16 0)
(1 4.50582e-15 0)
(1 -1.06904e-15 0)
(1 4.07984e-16 0)
(1 2.35476e-15 0)
(1 4.47425e-15 0)
(1 9.58269e-16 0)
(1 8.02518e-15 0)
(1 3.57444e-15 0)
(1 7.59506e-15 0)
(1 3.26673e-15 0)
(1 -1.06535e-15 0)
(1 1.35241e-15 0)
(1 3.92351e-15 0)
(1 4.91964e-15 0)
(1 5.54064e-15 0)
(1 5.10544e-15 0)
(1 8.15419e-15 0)
(1 1.25134e-14 0)
(1 1.66417e-14 0)
(1 1.28019e-14 0)
(1 4.16732e-15 0)
(1 -6.27109e-15 0)
(1 2.63348e-15 0)
(1 -3.94036e-16 0)
(1 1.93694e-15 0)
(1 -6.71839e-15 0)
(1 -9.83762e-15 0)
(1 -4.41737e-15 0)
(1 1.1347e-15 0)
(1 6.33992e-15 0)
(1 6.82856e-15 0)
(1 4.94998e-15 0)
(1 1.67199e-15 0)
(1 -1.50916e-15 0)
(1 -6.47513e-16 0)
(1 4.22748e-15 0)
(1 1.0501e-14 0)
(1 -3.43361e-15 0)
(1 -9.91388e-15 0)
(1 -1.04224e-14 0)
(1 -7.75498e-15 0)
(1 2.13589e-15 0)
(1 2.21132e-15 0)
(1 6.89449e-15 0)
(1 7.23856e-15 0)
(1 4.82423e-15 0)
(1 6.61914e-15 0)
(1 1.7019e-15 0)
(1 3.34502e-15 0)
(1 1.73336e-15 0)
(1 1.8874e-15 0)
(1 -1.43893e-15 0)
(1 -3.00822e-15 0)
(1 -9.26144e-15 0)
(1 -2.89754e-15 0)
(1 -2.80382e-15 0)
(1 6.56048e-16 0)
(1 -4.44992e-15 0)
(1 3.59104e-15 0)
(1 -2.51619e-15 0)
(1 3.61758e-15 0)
(1 -7.33486e-16 0)
(1 2.58678e-15 0)
(1 -1.08754e-14 0)
(1 1.26635e-15 0)
(1 9.47168e-15 0)
(1 2.02204e-14 0)
(1 1.08514e-14 0)
(1 7.18289e-15 0)
(1 3.9774e-15 0)
(1 -1.7304e-15 0)
(1 -3.31763e-15 0)
(1 -6.10932e-16 0)
(1 9.68603e-15 0)
(1 8.74821e-15 0)
(1 3.39376e-15 0)
(1 2.89582e-15 0)
(1 1.55062e-15 0)
(1 4.96606e-15 0)
(1 1.86549e-15 0)
(1 1.96318e-15 0)
(1 7.54731e-15 0)
(1 6.93981e-15 0)
(1 2.54507e-15 0)
(1 3.54491e-15 0)
(1 3.61566e-16 0)
(1 5.41233e-15 0)
(1 6.73918e-15 0)
(1 3.9891e-15 0)
(1 4.17849e-15 0)
(1 4.61935e-15 0)
(1 1.07859e-14 0)
(1 7.04555e-15 0)
(1 -2.25261e-15 0)
(1 4.64904e-15 0)
(1 3.56837e-15 0)
(1 5.06569e-15 0)
(1 4.24909e-15 0)
(1 9.88701e-15 0)
(1 4.98661e-15 0)
(1 5.06455e-15 0)
(1 1.05437e-14 0)
(1 6.59687e-15 0)
(1 7.53509e-15 0)
(1 -1.0273e-16 0)
(1 -4.74469e-15 0)
(1 2.16358e-15 0)
(1 3.36143e-15 0)
(1 5.08307e-15 0)
(1 5.47811e-15 0)
(1 8.48486e-16 0)
(1 5.15566e-15 0)
(1 3.95822e-15 0)
(1 6.85861e-15 0)
(1 1.34488e-15 0)
(1 1.30496e-14 0)
(1 1.36881e-14 0)
(1 1.60714e-14 0)
(1 2.74271e-15 0)
(1 4.36225e-15 0)
(1 4.77219e-15 0)
(1 1.62239e-15 0)
(1 -4.47257e-15 0)
(1 3.94009e-16 0)
(1 1.53028e-15 0)
(1 1.18082e-15 0)
(1 -2.18083e-16 0)
(1 1.10099e-15 0)
(1 -2.71429e-15 0)
(1 8.4962e-15 0)
(1 6.30397e-15 0)
(1 1.45388e-14 0)
(1 -2.51687e-15 0)
(1 -2.05256e-15 0)
(1 -8.81652e-15 0)
(1 -5.01085e-15 0)
(1 5.6182e-15 0)
(1 -1.44678e-15 0)
(1 -1.88121e-15 0)
(1 -5.82809e-15 0)
(1 2.86122e-15 0)
(1 -3.04067e-15 0)
(1 -5.28993e-15 0)
(1 -8.81869e-15 0)
(1 -3.46667e-15 0)
(1 4.30079e-15 0)
(1 6.58641e-15 0)
(1 -6.85674e-16 0)
(1 -4.62081e-15 0)
(1 -5.08452e-15 0)
(1 -9.87185e-16 0)
(1 -1.92615e-15 0)
(1 1.00176e-15 0)
(1 3.25995e-15 0)
(1 -5.36706e-15 0)
(1 1.64621e-15 0)
(1 6.18434e-15 0)
(1 8.39589e-15 0)
(1 5.76009e-16 0)
(1 -1.73691e-15 0)
(1 -9.51935e-15 0)
(1 -4.41736e-15 0)
(1 -6.85613e-15 0)
(1 2.26104e-15 0)
(1 3.63147e-15 0)
(1 7.63735e-15 0)
(1 9.36839e-15 0)
(1 1.4046e-14 0)
(1 1.09636e-14 0)
(1 -1.02496e-15 0)
(1 -2.39519e-16 0)
(1 -1.74975e-15 0)
(1 3.57243e-16 0)
(1 6.77599e-15 0)
(1 6.10644e-15 0)
(1 3.74818e-15 0)
(1 2.03607e-15 0)
(1 1.73315e-15 0)
(1 -2.77955e-15 0)
(1 -8.85637e-16 0)
(1 -2.49484e-15 0)
(1 8.28646e-15 0)
(1 1.6078e-14 0)
(1 1.65231e-14 0)
(1 1.1201e-14 0)
(1 7.14398e-15 0)
(1 -4.74827e-16 0)
(1 -2.72849e-15 0)
(1 -5.88159e-15 0)
(1 1.90766e-15 0)
(1 4.97536e-15 0)
(1 6.8461e-15 0)
(1 4.13267e-15 0)
(1 9.44819e-15 0)
(1 1.19571e-14 0)
(1 4.47554e-15 0)
(1 -5.55375e-15 0)
(1 1.48241e-15 0)
(1 4.30604e-15 0)
(1 6.81103e-15 0)
(1 5.31399e-15 0)
(1 8.03726e-15 0)
(1 2.16134e-15 0)
(1 2.01565e-15 0)
(1 5.27056e-15 0)
(1 8.647e-15 0)
(1 2.67259e-15 0)
(1 1.61782e-15 0)
(1 -8.9353e-16 0)
(1 -1.19487e-16 0)
(1 3.83447e-15 0)
(1 3.87048e-15 0)
(1 -4.58017e-16 0)
(1 2.69997e-15 0)
(1 1.42499e-15 0)
(1 1.23664e-14 0)
(1 9.2473e-15 0)
(1 9.12426e-15 0)
(1 6.44085e-15 0)
(1 6.66805e-15 0)
(1 -3.24162e-15 0)
(1 6.72511e-15 0)
(1 -1.18623e-15 0)
(1 -2.92665e-15 0)
(1 3.01993e-16 0)
(1 2.93074e-15 0)
(1 4.35599e-16 0)
(1 6.99193e-15 0)
(1 9.47594e-15 0)
(1 4.2525e-15 0)
(1 -5.73855e-15 0)
(1 2.78983e-15 0)
(1 5.81345e-16 0)
(1 4.23592e-15 0)
(1 -1.56803e-15 0)
(1 -4.70235e-15 0)
(1 -4.03921e-15 0)
(1 -2.13777e-15 0)
(1 3.07941e-15 0)
(1 -9.4867e-15 0)
(1 -2.79285e-15 0)
(1 -8.24451e-15 0)
(1 -6.17016e-15 0)
(1 -1.8636e-15 0)
(1 2.00443e-15 0)
(1 -6.60148e-17 0)
(1 -1.02569e-16 0)
(1 1.86224e-15 0)
(1 -8.28959e-15 0)
(1 -6.93276e-15 0)
(1 -7.0653e-16 0)
(1 -1.19311e-15 0)
(1 1.1432e-15 0)
(1 -9.57972e-16 0)
(1 7.92936e-15 0)
(1 1.34353e-14 0)
(1 1.01878e-14 0)
(1 5.28505e-15 0)
(1 -4.3004e-15 0)
(1 -1.61459e-15 0)
(1 -1.13129e-14 0)
(1 -3.0513e-15 0)
(1 -6.10518e-15 0)
(1 9.74718e-15 0)
(1 8.75927e-15 0)
(1 2.18833e-15 0)
(1 1.88667e-15 0)
(1 7.53902e-15 0)
(1 1.14753e-14 0)
(1 1.14491e-15 0)
(1 -4.02679e-15 0)
(1 -8.30085e-15 0)
(1 2.11402e-15 0)
(1 -2.72096e-15 0)
(1 5.64665e-15 0)
(1 3.40162e-15 0)
(1 7.82115e-15 0)
(1 9.8934e-15 0)
(1 9.92951e-15 0)
(1 3.89571e-15 0)
(1 3.28164e-15 0)
(1 2.89691e-15 0)
(1 2.00947e-15 0)
(1 2.56456e-15 0)
(1 1.02257e-14 0)
(1 1.48538e-14 0)
(1 6.46021e-15 0)
(1 1.00299e-15 0)
(1 3.46619e-15 0)
(1 6.96035e-15 0)
(1 8.41468e-15 0)
(1 2.69029e-15 0)
(1 1.52375e-15 0)
(1 1.19319e-14 0)
(1 7.16418e-15 0)
(1 5.921e-15 0)
(1 5.19008e-15 0)
(1 1.18029e-14 0)
(1 8.09356e-15 0)
(1 8.56788e-15 0)
(1 4.47248e-15 0)
(1 -7.85599e-17 0)
(1 -1.03195e-16 0)
(1 7.93796e-16 0)
(1 7.62836e-15 0)
(1 1.25272e-14 0)
(1 2.10268e-15 0)
(1 3.1574e-15 0)
(1 6.78569e-16 0)
(1 2.29613e-15 0)
(1 1.46385e-15 0)
(1 2.40566e-15 0)
(1 -1.39605e-15 0)
(1 1.66524e-15 0)
(1 6.76576e-15 0)
(1 9.39213e-15 0)
(1 9.64987e-15 0)
(1 7.49738e-15 0)
(1 1.55037e-14 0)
(1 1.16656e-14 0)
(1 1.0859e-15 0)
(1 3.32591e-15 0)
(1 1.63683e-15 0)
(1 9.85164e-16 0)
(1 6.82961e-15 0)
(1 1.34039e-15 0)
(1 -1.19018e-14 0)
(1 -9.15205e-15 0)
(1 4.41094e-15 0)
(1 6.87443e-15 0)
(1 2.27604e-15 0)
(1 -1.53553e-15 0)
(1 -3.10452e-15 0)
(1 1.1302e-14 0)
(1 -3.6577e-15 0)
(1 -4.93266e-15 0)
(1 -8.17358e-15 0)
(1 -1.26238e-14 0)
(1 -3.12773e-15 0)
(1 -8.89512e-15 0)
(1 -9.00714e-15 0)
(1 9.16235e-15 0)
(1 4.82217e-15 0)
(1 1.45013e-14 0)
(1 1.15009e-14 0)
(1 9.9307e-16 0)
(1 -6.23445e-15 0)
(1 -2.42101e-15 0)
(1 -4.93766e-15 0)
(1 -1.65297e-15 0)
(1 -3.98127e-15 0)
(1 3.13588e-15 0)
(1 1.96432e-15 0)
(1 -8.6334e-15 0)
(1 -1.61916e-15 0)
(1 -2.1245e-15 0)
(1 6.98551e-15 0)
(1 -1.29177e-15 0)
(1 -2.44829e-15 0)
(1 3.87461e-15 0)
(1 3.00069e-15 0)
(1 8.91602e-15 0)
(1 -5.64306e-15 0)
(1 1.86523e-15 0)
(1 1.28438e-16 0)
(1 7.6414e-15 0)
(1 1.00369e-14 0)
(1 8.04897e-16 0)
(1 1.07137e-16 0)
(1 4.32598e-15 0)
(1 -8.97785e-16 0)
(1 3.49438e-15 0)
(1 -1.37733e-15 0)
(1 3.55505e-15 0)
(1 3.12383e-15 0)
(1 1.92446e-15 0)
(1 3.97026e-15 0)
(1 3.58208e-15 0)
(1 4.0515e-15 0)
(1 6.10114e-15 0)
(1 9.99362e-15 0)
(1 6.81782e-15 0)
(1 4.38987e-15 0)
(1 5.8156e-15 0)
(1 8.44244e-15 0)
(1 8.97586e-15 0)
(1 9.78176e-15 0)
(1 7.11466e-15 0)
(1 9.75452e-15 0)
(1 1.02686e-14 0)
(1 5.18548e-15 0)
(1 7.14014e-15 0)
(1 2.79e-15 0)
(1 4.62527e-15 0)
(1 7.55527e-15 0)
(1 9.63017e-15 0)
(1 1.21858e-14 0)
(1 7.94708e-15 0)
(1 6.67541e-15 0)
(1 9.00626e-15 0)
(1 5.00598e-15 0)
(1 2.26732e-15 0)
(1 2.12456e-15 0)
(1 2.93527e-15 0)
(1 4.80297e-15 0)
(1 2.19952e-15 0)
(1 2.34935e-15 0)
(1 -5.949e-15 0)
(1 -2.04541e-15 0)
(1 -5.82957e-16 0)
(1 1.69926e-15 0)
(1 2.95808e-15 0)
(1 6.72936e-15 0)
(1 2.58797e-15 0)
(1 9.00547e-15 0)
(1 4.61656e-15 0)
(1 1.10655e-14 0)
(1 1.28754e-14 0)
(1 1.33506e-14 0)
(1 1.13482e-14 0)
(1 -1.11327e-15 0)
(1 -2.04798e-15 0)
(1 -4.41833e-15 0)
(1 7.43812e-15 0)
(1 1.26218e-15 0)
(1 7.70533e-15 0)
(1 8.04857e-15 0)
(1 9.19457e-15 0)
(1 8.50935e-16 0)
(1 1.17853e-15 0)
(1 -2.52812e-15 0)
(1 -1.31015e-14 0)
(1 -3.12568e-15 0)
(1 -9.64475e-16 0)
(1 3.26115e-15 0)
(1 -3.50456e-15 0)
(1 -1.09377e-15 0)
(1 -6.52856e-15 0)
(1 -1.59918e-14 0)
(1 -2.70181e-15 0)
(1 -2.39225e-15 0)
(1 5.56934e-15 0)
(1 4.28055e-15 0)
(1 -3.62165e-15 0)
(1 -2.84475e-15 0)
(1 -6.74115e-15 0)
(1 -9.66402e-15 0)
(1 -9.71238e-15 0)
(1 1.67114e-15 0)
(1 -4.71738e-15 0)
(1 -3.67073e-15 0)
(1 4.63556e-15 0)
(1 2.35375e-15 0)
(1 1.03786e-14 0)
(1 1.86008e-15 0)
(1 4.83621e-15 0)
(1 6.37091e-15 0)
(1 9.54831e-16 0)
(1 6.94898e-16 0)
(1 1.71439e-15 0)
(1 5.14751e-15 0)
(1 7.32111e-15 0)
(1 7.48162e-15 0)
(1 -1.49519e-15 0)
(1 -7.91751e-15 0)
(1 -7.12037e-15 0)
(1 -1.33001e-15 0)
(1 4.33674e-15 0)
(1 -1.20419e-15 0)
(1 -1.46705e-15 0)
(1 7.17787e-15 0)
(1 6.27169e-15 0)
(1 3.01227e-15 0)
(1 -2.27668e-16 0)
(1 -1.86259e-15 0)
(1 3.53743e-15 0)
(1 8.68383e-15 0)
(1 1.48823e-15 0)
(1 1.02029e-16 0)
(1 -2.47013e-15 0)
(1 6.53304e-15 0)
(1 -2.0617e-15 0)
(1 2.28354e-15 0)
(1 8.0189e-15 0)
(1 1.21534e-15 0)
(1 1.67511e-15 0)
(1 1.01659e-14 0)
(1 3.20972e-15 0)
(1 1.13467e-14 0)
(1 5.24326e-15 0)
(1 8.49603e-15 0)
(1 3.85966e-15 0)
(1 6.51407e-15 0)
(1 3.95188e-15 0)
(1 7.6136e-15 0)
(1 5.95938e-15 0)
(1 1.22815e-14 0)
(1 3.74131e-15 0)
(1 4.78313e-15 0)
(1 1.1303e-14 0)
(1 1.52093e-15 0)
(1 6.98326e-15 0)
(1 5.84872e-16 0)
(1 1.35335e-15 0)
(1 2.2468e-15 0)
(1 -3.38998e-15 0)
(1 -1.90475e-15 0)
(1 -5.32893e-15 0)
(1 -1.11806e-15 0)
(1 1.02551e-15 0)
(1 8.47242e-15 0)
(1 3.95226e-15 0)
(1 7.8841e-15 0)
(1 3.7412e-15 0)
(1 9.60503e-15 0)
(1 7.17751e-15 0)