/*--------------------------------*- C++ -*----------------------------------*\
| =========                 |                                                 |
| \\      /  F ield         | OpenFOAM: The Open Source CFD Toolbox           |
|  \\    /   O peration     | Version:  v2012                                 |
|   \\  /    A nd           | Website:  www.openfoam.com                      |
|    \\/     M anipulation  |                                                 |
\*---------------------------------------------------------------------------*/
FoamFile
{
    version     2.0;
    format      ascii;
    class       volVectorField;
    location    "15.5";
    object      Psi;
}
// * * * * * * * * * * * * * * * * * * * * * * * * * * * * * * * * * * * * * //

dimensions      [0 2 -1 0 0 0 0];


internalField   nonuniform List<vector> 
65536
(
(0 0 8.42708e-06)
(0 0 2.52818e-05)
(0 0 4.21381e-05)
(0 0 5.89971e-05)
(0 0 7.58597e-05)
(0 0 9.2727e-05)
(0 0 0.0001096)
(0 0 0.00012648)
(0 0 0.000143367)
(0 0 0.000160264)
(0 0 0.00017717)
(0 0 0.000194086)
(0 0 0.000211014)
(0 0 0.000227955)
(0 0 0.000244909)
(0 0 0.000261876)
(0 0 0.000278859)
(0 0 0.000295858)
(0 0 0.000312872)
(0 0 0.000329904)
(0 0 0.000346954)
(0 0 0.000364021)
(0 0 0.000381107)
(0 0 0.000398213)
(0 0 0.000415338)
(0 0 0.000432483)
(0 0 0.000449648)
(0 0 0.000466834)
(0 0 0.00048404)
(0 0 0.000501267)
(0 0 0.000518514)
(0 0 0.000535782)
(0 0 0.00055307)
(0 0 0.000570378)
(0 0 0.000587706)
(0 0 0.000605054)
(0 0 0.00062242)
(0 0 0.000639803)
(0 0 0.000657205)
(0 0 0.000674622)
(0 0 0.000692055)
(0 0 0.000709502)
(0 0 0.000726962)
(0 0 0.000744434)
(0 0 0.000761916)
(0 0 0.000779406)
(0 0 0.000796903)
(0 0 0.000814405)
(0 0 0.000831909)
(0 0 0.000849414)
(0 0 0.000866917)
(0 0 0.000884415)
(0 0 0.000901907)
(0 0 0.000919388)
(0 0 0.000936856)
(0 0 0.000954309)
(0 0 0.000971741)
(0 0 0.00098915)
(0 0 0.00100653)
(0 0 0.00102388)
(0 0 0.0010412)
(0 0 0.00105848)
(0 0 0.00107571)
(0 0 0.00109289)
(0 0 0.00111003)
(0 0 0.0011271)
(0 0 0.00114411)
(0 0 0.00116105)
(0 0 0.00117791)
(0 0 0.0011947)
(0 0 0.0012114)
(0 0 0.001228)
(0 0 0.00124451)
(0 0 0.00126091)
(0 0 0.00127719)
(0 0 0.00129336)
(0 0 0.0013094)
(0 0 0.00132531)
(0 0 0.00134108)
(0 0 0.0013567)
(0 0 0.00137216)
(0 0 0.00138746)
(0 0 0.00140258)
(0 0 0.00141753)
(0 0 0.00143229)
(0 0 0.00144685)
(0 0 0.0014612)
(0 0 0.00147534)
(0 0 0.00148927)
(0 0 0.00150296)
(0 0 0.00151641)
(0 0 0.00152961)
(0 0 0.00154256)
(0 0 0.00155524)
(0 0 0.00156765)
(0 0 0.00157978)
(0 0 0.00159162)
(0 0 0.00160317)
(0 0 0.0016144)
(0 0 0.00162532)
(0 0 0.00163592)
(0 0 0.00164619)
(0 0 0.00165611)
(0 0 0.0016657)
(0 0 0.00167493)
(0 0 0.0016838)
(0 0 0.0016923)
(0 0 0.00170043)
(0 0 0.00170818)
(0 0 0.00171554)
(0 0 0.00172251)
(0 0 0.00172908)
(0 0 0.00173525)
(0 0 0.00174101)
(0 0 0.00174635)
(0 0 0.00175128)
(0 0 0.00175579)
(0 0 0.00175988)
(0 0 0.00176353)
(0 0 0.00176676)
(0 0 0.00176956)
(0 0 0.00177192)
(0 0 0.00177384)
(0 0 0.00177533)
(0 0 0.00177638)
(0 0 0.00177699)
(0 0 0.00177716)
(0 0 0.00177689)
(0 0 0.00177619)
(0 0 0.00177505)
(0 0 0.00177348)
(0 0 0.00177147)
(0 0 0.00176904)
(0 0 0.00176618)
(0 0 0.00176289)
(0 0 0.00175919)
(0 0 0.00175507)
(0 0 0.00175054)
(0 0 0.0017456)
(0 0 0.00174025)
(0 0 0.00173451)
(0 0 0.00172838)
(0 0 0.00172186)
(0 0 0.00171497)
(0 0 0.00170769)
(0 0 0.00170005)
(0 0 0.00169205)
(0 0 0.0016837)
(0 0 0.00167499)
(0 0 0.00166595)
(0 0 0.00165658)
(0 0 0.00164688)
(0 0 0.00163686)
(0 0 0.00162653)
(0 0 0.0016159)
(0 0 0.00160498)
(0 0 0.00159377)
(0 0 0.00158228)
(0 0 0.00157052)
(0 0 0.0015585)
(0 0 0.00154623)
(0 0 0.00153371)
(0 0 0.00152095)
(0 0 0.00150796)
(0 0 0.00149474)
(0 0 0.00148132)
(0 0 0.00146768)
(0 0 0.00145385)
(0 0 0.00143983)
(0 0 0.00142562)
(0 0 0.00141124)
(0 0 0.00139668)
(0 0 0.00138197)
(0 0 0.0013671)
(0 0 0.00135208)
(0 0 0.00133692)
(0 0 0.00132163)
(0 0 0.00130621)
(0 0 0.00129067)
(0 0 0.00127501)
(0 0 0.00125925)
(0 0 0.00124338)
(0 0 0.00122741)
(0 0 0.00121136)
(0 0 0.00119521)
(0 0 0.00117899)
(0 0 0.00116269)
(0 0 0.00114632)
(0 0 0.00112989)
(0 0 0.00111339)
(0 0 0.00109684)
(0 0 0.00108024)
(0 0 0.00106358)
(0 0 0.00104689)
(0 0 0.00103015)
(0 0 0.00101338)
(0 0 0.000996576)
(0 0 0.000979742)
(0 0 0.000962883)
(0 0 0.000946)
(0 0 0.000929098)
(0 0 0.000912178)
(0 0 0.000895244)
(0 0 0.000878299)
(0 0 0.000861344)
(0 0 0.000844382)
(0 0 0.000827415)
(0 0 0.000810446)
(0 0 0.000793475)
(0 0 0.000776505)
(0 0 0.000759538)
(0 0 0.000742574)
(0 0 0.000725617)
(0 0 0.000708666)
(0 0 0.000691723)
(0 0 0.000674789)
(0 0 0.000657865)
(0 0 0.000640953)
(0 0 0.000624052)
(0 0 0.000607164)
(0 0 0.000590289)
(0 0 0.000573429)
(0 0 0.000556583)
(0 0 0.000539751)
(0 0 0.000522935)
(0 0 0.000506134)
(0 0 0.000489349)
(0 0 0.000472579)
(0 0 0.000455825)
(0 0 0.000439087)
(0 0 0.000422364)
(0 0 0.000405657)
(0 0 0.000388966)
(0 0 0.000372289)
(0 0 0.000355627)
(0 0 0.00033898)
(0 0 0.000322347)
(0 0 0.000305728)
(0 0 0.000289122)
(0 0 0.000272528)
(0 0 0.000255947)
(0 0 0.000239378)
(0 0 0.000222819)
(0 0 0.000206271)
(0 0 0.000189732)
(0 0 0.000173203)
(0 0 0.000156682)
(0 0 0.000140168)
(0 0 0.000123661)
(0 0 0.000107161)
(0 0 9.06655e-05)
(0 0 7.41746e-05)
(0 0 5.76875e-05)
(0 0 4.12033e-05)
(0 0 2.47212e-05)
(0 0 8.24025e-06)
(0 0 2.52808e-05)
(0 0 7.5844e-05)
(0 0 0.000126412)
(0 0 0.000176988)
(0 0 0.000227575)
(0 0 0.000278176)
(0 0 0.000328794)
(0 0 0.000379432)
(0 0 0.000430094)
(0 0 0.000480782)
(0 0 0.000531499)
(0 0 0.000582248)
(0 0 0.000633031)
(0 0 0.000683852)
(0 0 0.000734712)
(0 0 0.000785615)
(0 0 0.000836563)
(0 0 0.000887558)
(0 0 0.000938601)
(0 0 0.000989696)
(0 0 0.00104084)
(0 0 0.00109205)
(0 0 0.0011433)
(0 0 0.00119462)
(0 0 0.001246)
(0 0 0.00129743)
(0 0 0.00134893)
(0 0 0.00140048)
(0 0 0.0014521)
(0 0 0.00150378)
(0 0 0.00155552)
(0 0 0.00160733)
(0 0 0.00165919)
(0 0 0.00171112)
(0 0 0.0017631)
(0 0 0.00181514)
(0 0 0.00186724)
(0 0 0.0019194)
(0 0 0.0019716)
(0 0 0.00202385)
(0 0 0.00207615)
(0 0 0.0021285)
(0 0 0.00218088)
(0 0 0.00223329)
(0 0 0.00228574)
(0 0 0.00233821)
(0 0 0.00239071)
(0 0 0.00244321)
(0 0 0.00249573)
(0 0 0.00254825)
(0 0 0.00260076)
(0 0 0.00265326)
(0 0 0.00270573)
(0 0 0.00275818)
(0 0 0.00281059)
(0 0 0.00286295)
(0 0 0.00291525)
(0 0 0.00296748)
(0 0 0.00301963)
(0 0 0.00307169)
(0 0 0.00312364)
(0 0 0.00317548)
(0 0 0.00322718)
(0 0 0.00327874)
(0 0 0.00333014)
(0 0 0.00338136)
(0 0 0.0034324)
(0 0 0.00348322)
(0 0 0.00353382)
(0 0 0.00358418)
(0 0 0.00363428)
(0 0 0.0036841)
(0 0 0.00373363)
(0 0 0.00378284)
(0 0 0.00383171)
(0 0 0.00388022)
(0 0 0.00392835)
(0 0 0.00397608)
(0 0 0.00402339)
(0 0 0.00407025)
(0 0 0.00411665)
(0 0 0.00416255)
(0 0 0.00420793)
(0 0 0.00425278)
(0 0 0.00429706)
(0 0 0.00434075)
(0 0 0.00438382)
(0 0 0.00442626)
(0 0 0.00446803)
(0 0 0.00450911)
(0 0 0.00454947)
(0 0 0.00458909)
(0 0 0.00462795)
(0 0 0.00466601)
(0 0 0.00470325)
(0 0 0.00473965)
(0 0 0.00477517)
(0 0 0.00480981)
(0 0 0.00484352)
(0 0 0.00487629)
(0 0 0.00490809)
(0 0 0.0049389)
(0 0 0.00496869)
(0 0 0.00499745)
(0 0 0.00502514)
(0 0 0.00505176)
(0 0 0.00507727)
(0 0 0.00510166)
(0 0 0.00512491)
(0 0 0.005147)
(0 0 0.00516792)
(0 0 0.00518764)
(0 0 0.00520614)
(0 0 0.00522343)
(0 0 0.00523947)
(0 0 0.00525427)
(0 0 0.0052678)
(0 0 0.00528006)
(0 0 0.00529103)
(0 0 0.00530072)
(0 0 0.0053091)
(0 0 0.00531619)
(0 0 0.00532196)
(0 0 0.00532642)
(0 0 0.00532957)
(0 0 0.0053314)
(0 0 0.00533191)
(0 0 0.00533111)
(0 0 0.005329)
(0 0 0.00532559)
(0 0 0.00532087)
(0 0 0.00531485)
(0 0 0.00530755)
(0 0 0.00529896)
(0 0 0.0052891)
(0 0 0.00527798)
(0 0 0.00526562)
(0 0 0.00525202)
(0 0 0.00523719)
(0 0 0.00522116)
(0 0 0.00520393)
(0 0 0.00518553)
(0 0 0.00516597)
(0 0 0.00514527)
(0 0 0.00512344)
(0 0 0.00510052)
(0 0 0.00507651)
(0 0 0.00505143)
(0 0 0.00502532)
(0 0 0.00499818)
(0 0 0.00497005)
(0 0 0.00494094)
(0 0 0.00491088)
(0 0 0.00487989)
(0 0 0.004848)
(0 0 0.00481522)
(0 0 0.00478158)
(0 0 0.00474711)
(0 0 0.00471183)
(0 0 0.00467576)
(0 0 0.00463892)
(0 0 0.00460135)
(0 0 0.00456307)
(0 0 0.00452409)
(0 0 0.00448445)
(0 0 0.00444416)
(0 0 0.00440325)
(0 0 0.00436175)
(0 0 0.00431967)
(0 0 0.00427704)
(0 0 0.00423388)
(0 0 0.00419021)
(0 0 0.00414606)
(0 0 0.00410144)
(0 0 0.00405638)
(0 0 0.0040109)
(0 0 0.00396502)
(0 0 0.00391875)
(0 0 0.00387212)
(0 0 0.00382514)
(0 0 0.00377784)
(0 0 0.00373023)
(0 0 0.00368233)
(0 0 0.00363415)
(0 0 0.00358572)
(0 0 0.00353705)
(0 0 0.00348814)
(0 0 0.00343903)
(0 0 0.00338972)
(0 0 0.00334023)
(0 0 0.00329057)
(0 0 0.00324075)
(0 0 0.00319079)
(0 0 0.0031407)
(0 0 0.00309049)
(0 0 0.00304017)
(0 0 0.00298976)
(0 0 0.00293925)
(0 0 0.00288867)
(0 0 0.00283802)
(0 0 0.00278731)
(0 0 0.00273655)
(0 0 0.00268574)
(0 0 0.0026349)
(0 0 0.00258404)
(0 0 0.00253315)
(0 0 0.00248225)
(0 0 0.00243134)
(0 0 0.00238042)
(0 0 0.00232951)
(0 0 0.00227861)
(0 0 0.00222772)
(0 0 0.00217684)
(0 0 0.00212599)
(0 0 0.00207516)
(0 0 0.00202435)
(0 0 0.00197358)
(0 0 0.00192284)
(0 0 0.00187214)
(0 0 0.00182148)
(0 0 0.00177085)
(0 0 0.00172027)
(0 0 0.00166973)
(0 0 0.00161924)
(0 0 0.00156879)
(0 0 0.00151838)
(0 0 0.00146803)
(0 0 0.00141772)
(0 0 0.00136746)
(0 0 0.00131724)
(0 0 0.00126708)
(0 0 0.00121696)
(0 0 0.00116688)
(0 0 0.00111685)
(0 0 0.00106687)
(0 0 0.00101693)
(0 0 0.000967027)
(0 0 0.00091717)
(0 0 0.000867352)
(0 0 0.000817572)
(0 0 0.000767829)
(0 0 0.000718121)
(0 0 0.000668446)
(0 0 0.000618802)
(0 0 0.000569187)
(0 0 0.000519599)
(0 0 0.000470037)
(0 0 0.000420497)
(0 0 0.000370978)
(0 0 0.000321477)
(0 0 0.000271992)
(0 0 0.00022252)
(0 0 0.00017306)
(0 0 0.000123608)
(0 0 7.41622e-05)
(0 0 2.47203e-05)
(0 0 4.21329e-05)
(0 0 0.000126401)
(0 0 0.000210678)
(0 0 0.000294967)
(0 0 0.000379275)
(0 0 0.000463607)
(0 0 0.000547967)
(0 0 0.000632361)
(0 0 0.000716794)
(0 0 0.000801271)
(0 0 0.000885796)
(0 0 0.000970374)
(0 0 0.00105501)
(0 0 0.00113971)
(0 0 0.00122447)
(0 0 0.00130931)
(0 0 0.00139422)
(0 0 0.00147921)
(0 0 0.00156428)
(0 0 0.00164943)
(0 0 0.00173468)
(0 0 0.00182001)
(0 0 0.00190544)
(0 0 0.00199097)
(0 0 0.00207659)
(0 0 0.00216232)
(0 0 0.00224814)
(0 0 0.00233407)
(0 0 0.0024201)
(0 0 0.00250623)
(0 0 0.00259247)
(0 0 0.00267881)
(0 0 0.00276525)
(0 0 0.0028518)
(0 0 0.00293844)
(0 0 0.00302518)
(0 0 0.00311201)
(0 0 0.00319893)
(0 0 0.00328594)
(0 0 0.00337304)
(0 0 0.00346021)
(0 0 0.00354745)
(0 0 0.00363476)
(0 0 0.00372212)
(0 0 0.00380954)
(0 0 0.003897)
(0 0 0.00398449)
(0 0 0.00407201)
(0 0 0.00415955)
(0 0 0.00424708)
(0 0 0.00433461)
(0 0 0.00442212)
(0 0 0.00450959)
(0 0 0.00459701)
(0 0 0.00468437)
(0 0 0.00477165)
(0 0 0.00485883)
(0 0 0.00494589)
(0 0 0.00503282)
(0 0 0.0051196)
(0 0 0.0052062)
(0 0 0.00529261)
(0 0 0.0053788)
(0 0 0.00546475)
(0 0 0.00555043)
(0 0 0.00563582)
(0 0 0.00572089)
(0 0 0.00580562)
(0 0 0.00588997)
(0 0 0.00597393)
(0 0 0.00605745)
(0 0 0.00614051)
(0 0 0.00622307)
(0 0 0.0063051)
(0 0 0.00638658)
(0 0 0.00646745)
(0 0 0.0065477)
(0 0 0.00662727)
(0 0 0.00670615)
(0 0 0.00678428)
(0 0 0.00686162)
(0 0 0.00693815)
(0 0 0.00701382)
(0 0 0.00708859)
(0 0 0.00716242)
(0 0 0.00723526)
(0 0 0.00730708)
(0 0 0.00737784)
(0 0 0.00744748)
(0 0 0.00751598)
(0 0 0.00758328)
(0 0 0.00764934)
(0 0 0.00771413)
(0 0 0.00777759)
(0 0 0.00783969)
(0 0 0.00790038)
(0 0 0.00795962)
(0 0 0.00801737)
(0 0 0.00807358)
(0 0 0.00812822)
(0 0 0.00818125)
(0 0 0.00823262)
(0 0 0.00828231)
(0 0 0.00833026)
(0 0 0.00837644)
(0 0 0.00842082)
(0 0 0.00846337)
(0 0 0.00850404)
(0 0 0.00854281)
(0 0 0.00857965)
(0 0 0.00861452)
(0 0 0.0086474)
(0 0 0.00867827)
(0 0 0.00870709)
(0 0 0.00873385)
(0 0 0.00875852)
(0 0 0.00878108)
(0 0 0.00880152)
(0 0 0.00881982)
(0 0 0.00883597)
(0 0 0.00884996)
(0 0 0.00886176)
(0 0 0.00887139)
(0 0 0.00887883)
(0 0 0.00888407)
(0 0 0.00888712)
(0 0 0.00888798)
(0 0 0.00888665)
(0 0 0.00888313)
(0 0 0.00887742)
(0 0 0.00886955)
(0 0 0.00885952)
(0 0 0.00884733)
(0 0 0.00883301)
(0 0 0.00881657)
(0 0 0.00879803)
(0 0 0.0087774)
(0 0 0.00875472)
(0 0 0.00872999)
(0 0 0.00870325)
(0 0 0.00867453)
(0 0 0.00864384)
(0 0 0.00861122)
(0 0 0.00857669)
(0 0 0.0085403)
(0 0 0.00850206)
(0 0 0.00846202)
(0 0 0.00842021)
(0 0 0.00837666)
(0 0 0.00833142)
(0 0 0.0082845)
(0 0 0.00823597)
(0 0 0.00818584)
(0 0 0.00813416)
(0 0 0.00808098)
(0 0 0.00802632)
(0 0 0.00797023)
(0 0 0.00791275)
(0 0 0.00785392)
(0 0 0.00779378)
(0 0 0.00773236)
(0 0 0.00766972)
(0 0 0.00760588)
(0 0 0.00754089)
(0 0 0.00747479)
(0 0 0.00740762)
(0 0 0.00733941)
(0 0 0.00727021)
(0 0 0.00720006)
(0 0 0.00712898)
(0 0 0.00705703)
(0 0 0.00698422)
(0 0 0.00691061)
(0 0 0.00683623)
(0 0 0.00676111)
(0 0 0.00668528)
(0 0 0.00660879)
(0 0 0.00653165)
(0 0 0.00645392)
(0 0 0.0063756)
(0 0 0.00629675)
(0 0 0.00621738)
(0 0 0.00613752)
(0 0 0.00605721)
(0 0 0.00597647)
(0 0 0.00589533)
(0 0 0.00581381)
(0 0 0.00573194)
(0 0 0.00564974)
(0 0 0.00556724)
(0 0 0.00548446)
(0 0 0.00540142)
(0 0 0.00531814)
(0 0 0.00523464)
(0 0 0.00515094)
(0 0 0.00506706)
(0 0 0.00498302)
(0 0 0.00489884)
(0 0 0.00481452)
(0 0 0.00473009)
(0 0 0.00464557)
(0 0 0.00456096)
(0 0 0.00447628)
(0 0 0.00439154)
(0 0 0.00430675)
(0 0 0.00422193)
(0 0 0.00413709)
(0 0 0.00405223)
(0 0 0.00396737)
(0 0 0.00388251)
(0 0 0.00379766)
(0 0 0.00371284)
(0 0 0.00362804)
(0 0 0.00354328)
(0 0 0.00345856)
(0 0 0.00337389)
(0 0 0.00328927)
(0 0 0.0032047)
(0 0 0.00312019)
(0 0 0.00303575)
(0 0 0.00295137)
(0 0 0.00286707)
(0 0 0.00278284)
(0 0 0.00269868)
(0 0 0.00261459)
(0 0 0.00253059)
(0 0 0.00244666)
(0 0 0.00236281)
(0 0 0.00227904)
(0 0 0.00219535)
(0 0 0.00211174)
(0 0 0.00202821)
(0 0 0.00194475)
(0 0 0.00186137)
(0 0 0.00177806)
(0 0 0.00169483)
(0 0 0.00161167)
(0 0 0.00152857)
(0 0 0.00144554)
(0 0 0.00136258)
(0 0 0.00127968)
(0 0 0.00119683)
(0 0 0.00111404)
(0 0 0.0010313)
(0 0 0.000948615)
(0 0 0.000865971)
(0 0 0.000783369)
(0 0 0.000700805)
(0 0 0.000618276)
(0 0 0.000535777)
(0 0 0.000453304)
(0 0 0.000370854)
(0 0 0.000288423)
(0 0 0.000206006)
(0 0 0.0001236)
(0 0 4.11992e-05)
(0 0 5.89824e-05)
(0 0 0.000176951)
(0 0 0.00029493)
(0 0 0.000412929)
(0 0 0.000530952)
(0 0 0.00064901)
(0 0 0.000767107)
(0 0 0.000885252)
(0 0 0.00100345)
(0 0 0.00112171)
(0 0 0.00124004)
(0 0 0.00135844)
(0 0 0.00147693)
(0 0 0.0015955)
(0 0 0.00171416)
(0 0 0.00183293)
(0 0 0.0019518)
(0 0 0.00207078)
(0 0 0.00218987)
(0 0 0.00230908)
(0 0 0.00242842)
(0 0 0.00254789)
(0 0 0.00266749)
(0 0 0.00278722)
(0 0 0.00290709)
(0 0 0.0030271)
(0 0 0.00314725)
(0 0 0.00326755)
(0 0 0.00338799)
(0 0 0.00350858)
(0 0 0.00362932)
(0 0 0.00375019)
(0 0 0.00387121)
(0 0 0.00399238)
(0 0 0.00411368)
(0 0 0.00423512)
(0 0 0.00435669)
(0 0 0.00447839)
(0 0 0.00460021)
(0 0 0.00472214)
(0 0 0.00484419)
(0 0 0.00496634)
(0 0 0.00508858)
(0 0 0.0052109)
(0 0 0.0053333)
(0 0 0.00545575)
(0 0 0.00557826)
(0 0 0.0057008)
(0 0 0.00582336)
(0 0 0.00594593)
(0 0 0.00606849)
(0 0 0.00619101)
(0 0 0.00631349)
(0 0 0.00643591)
(0 0 0.00655823)
(0 0 0.00668044)
(0 0 0.00680252)
(0 0 0.00692443)
(0 0 0.00704617)
(0 0 0.00716768)
(0 0 0.00728896)
(0 0 0.00740996)
(0 0 0.00753066)
(0 0 0.00765102)
(0 0 0.00777101)
(0 0 0.00789059)
(0 0 0.00800973)
(0 0 0.00812839)
(0 0 0.00824653)
(0 0 0.0083641)
(0 0 0.00848108)
(0 0 0.0085974)
(0 0 0.00871304)
(0 0 0.00882793)
(0 0 0.00894204)
(0 0 0.00905532)
(0 0 0.00916771)
(0 0 0.00927917)
(0 0 0.00938965)
(0 0 0.00949908)
(0 0 0.00960742)
(0 0 0.00971462)
(0 0 0.00982061)
(0 0 0.00992534)
(0 0 0.0100288)
(0 0 0.0101308)
(0 0 0.0102314)
(0 0 0.0103305)
(0 0 0.0104281)
(0 0 0.010524)
(0 0 0.0106183)
(0 0 0.0107109)
(0 0 0.0108016)
(0 0 0.0108905)
(0 0 0.0109775)
(0 0 0.0110626)
(0 0 0.0111456)
(0 0 0.0112265)
(0 0 0.0113052)
(0 0 0.0113818)
(0 0 0.0114561)
(0 0 0.011528)
(0 0 0.0115976)
(0 0 0.0116648)
(0 0 0.0117295)
(0 0 0.0117917)
(0 0 0.0118513)
(0 0 0.0119083)
(0 0 0.0119626)
(0 0 0.0120143)
(0 0 0.0120631)
(0 0 0.0121092)
(0 0 0.0121524)
(0 0 0.0121928)
(0 0 0.0122303)
(0 0 0.0122649)
(0 0 0.0122965)
(0 0 0.0123251)
(0 0 0.0123508)
(0 0 0.0123734)
(0 0 0.012393)
(0 0 0.0124095)
(0 0 0.012423)
(0 0 0.0124334)
(0 0 0.0124408)
(0 0 0.012445)
(0 0 0.0124462)
(0 0 0.0124444)
(0 0 0.0124394)
(0 0 0.0124314)
(0 0 0.0124204)
(0 0 0.0124063)
(0 0 0.0123893)
(0 0 0.0123692)
(0 0 0.0123461)
(0 0 0.0123202)
(0 0 0.0122913)
(0 0 0.0122595)
(0 0 0.0122248)
(0 0 0.0121873)
(0 0 0.0121471)
(0 0 0.0121041)
(0 0 0.0120584)
(0 0 0.01201)
(0 0 0.011959)
(0 0 0.0119054)
(0 0 0.0118493)
(0 0 0.0117907)
(0 0 0.0117297)
(0 0 0.0116663)
(0 0 0.0116006)
(0 0 0.0115326)
(0 0 0.0114623)
(0 0 0.0113899)
(0 0 0.0113154)
(0 0 0.0112389)
(0 0 0.0111603)
(0 0 0.0110797)
(0 0 0.0109973)
(0 0 0.0109131)
(0 0 0.010827)
(0 0 0.0107393)
(0 0 0.0106498)
(0 0 0.0105588)
(0 0 0.0104662)
(0 0 0.0103721)
(0 0 0.0102766)
(0 0 0.0101796)
(0 0 0.0100814)
(0 0 0.00998181)
(0 0 0.00988102)
(0 0 0.00977905)
(0 0 0.00967594)
(0 0 0.00957176)
(0 0 0.00946654)
(0 0 0.00936034)
(0 0 0.0092532)
(0 0 0.00914516)
(0 0 0.00903629)
(0 0 0.0089266)
(0 0 0.00881616)
(0 0 0.008705)
(0 0 0.00859317)
(0 0 0.00848069)
(0 0 0.00836762)
(0 0 0.00825399)
(0 0 0.00813982)
(0 0 0.00802517)
(0 0 0.00791006)
(0 0 0.00779453)
(0 0 0.0076786)
(0 0 0.00756232)
(0 0 0.0074457)
(0 0 0.00732877)
(0 0 0.00721157)
(0 0 0.00709411)
(0 0 0.00697643)
(0 0 0.00685855)
(0 0 0.00674049)
(0 0 0.00662227)
(0 0 0.00650391)
(0 0 0.00638544)
(0 0 0.00626687)
(0 0 0.00614822)
(0 0 0.0060295)
(0 0 0.00591074)
(0 0 0.00579194)
(0 0 0.00567313)
(0 0 0.00555431)
(0 0 0.00543549)
(0 0 0.0053167)
(0 0 0.00519794)
(0 0 0.00507921)
(0 0 0.00496054)
(0 0 0.00484192)
(0 0 0.00472337)
(0 0 0.00460489)
(0 0 0.0044865)
(0 0 0.00436818)
(0 0 0.00424996)
(0 0 0.00413183)
(0 0 0.0040138)
(0 0 0.00389587)
(0 0 0.00377804)
(0 0 0.00366032)
(0 0 0.00354271)
(0 0 0.00342522)
(0 0 0.00330783)
(0 0 0.00319055)
(0 0 0.00307338)
(0 0 0.00295633)
(0 0 0.00283938)
(0 0 0.00272254)
(0 0 0.00260581)
(0 0 0.00248919)
(0 0 0.00237266)
(0 0 0.00225624)
(0 0 0.00213991)
(0 0 0.00202367)
(0 0 0.00190753)
(0 0 0.00179147)
(0 0 0.00167549)
(0 0 0.00155959)
(0 0 0.00144376)
(0 0 0.001328)
(0 0 0.0012123)
(0 0 0.00109666)
(0 0 0.00098108)
(0 0 0.000865544)
(0 0 0.00075005)
(0 0 0.000634594)
(0 0 0.00051917)
(0 0 0.000403772)
(0 0 0.000288394)
(0 0 0.000173031)
(0 0 5.76759e-05)
(0 0 7.58281e-05)
(0 0 0.000227489)
(0 0 0.000379165)
(0 0 0.000530864)
(0 0 0.000682596)
(0 0 0.000834372)
(0 0 0.000986199)
(0 0 0.00113809)
(0 0 0.00129005)
(0 0 0.00144208)
(0 0 0.00159421)
(0 0 0.00174643)
(0 0 0.00189876)
(0 0 0.0020512)
(0 0 0.00220376)
(0 0 0.00235644)
(0 0 0.00250927)
(0 0 0.00266223)
(0 0 0.00281534)
(0 0 0.00296861)
(0 0 0.00312204)
(0 0 0.00327563)
(0 0 0.00342939)
(0 0 0.00358333)
(0 0 0.00373745)
(0 0 0.00389174)
(0 0 0.00404622)
(0 0 0.00420089)
(0 0 0.00435574)
(0 0 0.00451078)
(0 0 0.00466601)
(0 0 0.00482143)
(0 0 0.00497703)
(0 0 0.00513282)
(0 0 0.00528878)
(0 0 0.00544493)
(0 0 0.00560124)
(0 0 0.00575772)
(0 0 0.00591435)
(0 0 0.00607114)
(0 0 0.00622807)
(0 0 0.00638513)
(0 0 0.00654231)
(0 0 0.0066996)
(0 0 0.00685699)
(0 0 0.00701446)
(0 0 0.00717199)
(0 0 0.00732956)
(0 0 0.00748717)
(0 0 0.00764479)
(0 0 0.00780239)
(0 0 0.00795996)
(0 0 0.00811747)
(0 0 0.00827489)
(0 0 0.0084322)
(0 0 0.00858937)
(0 0 0.00874637)
(0 0 0.00890316)
(0 0 0.00905972)
(0 0 0.00921601)
(0 0 0.00937198)
(0 0 0.00952761)
(0 0 0.00968285)
(0 0 0.00983766)
(0 0 0.00999199)
(0 0 0.0101458)
(0 0 0.010299)
(0 0 0.0104517)
(0 0 0.0106036)
(0 0 0.0107549)
(0 0 0.0109054)
(0 0 0.011055)
(0 0 0.0112037)
(0 0 0.0113515)
(0 0 0.0114983)
(0 0 0.0116441)
(0 0 0.0117887)
(0 0 0.0119321)
(0 0 0.0120742)
(0 0 0.012215)
(0 0 0.0123544)
(0 0 0.0124923)
(0 0 0.0126287)
(0 0 0.0127634)
(0 0 0.0128965)
(0 0 0.0130278)
(0 0 0.0131572)
(0 0 0.0132848)
(0 0 0.0134103)
(0 0 0.0135338)
(0 0 0.0136551)
(0 0 0.0137742)
(0 0 0.013891)
(0 0 0.0140054)
(0 0 0.0141173)
(0 0 0.0142268)
(0 0 0.0143336)
(0 0 0.0144377)
(0 0 0.0145391)
(0 0 0.0146376)
(0 0 0.0147332)
(0 0 0.0148258)
(0 0 0.0149154)
(0 0 0.0150019)
(0 0 0.0150852)
(0 0 0.0151652)
(0 0 0.0152419)
(0 0 0.0153153)
(0 0 0.0153852)
(0 0 0.0154516)
(0 0 0.0155145)
(0 0 0.0155738)
(0 0 0.0156295)
(0 0 0.0156814)
(0 0 0.0157297)
(0 0 0.0157742)
(0 0 0.0158149)
(0 0 0.0158517)
(0 0 0.0158847)
(0 0 0.0159138)
(0 0 0.0159391)
(0 0 0.0159603)
(0 0 0.0159777)
(0 0 0.0159911)
(0 0 0.0160005)
(0 0 0.016006)
(0 0 0.0160076)
(0 0 0.0160052)
(0 0 0.0159988)
(0 0 0.0159885)
(0 0 0.0159743)
(0 0 0.0159562)
(0 0 0.0159342)
(0 0 0.0159083)
(0 0 0.0158787)
(0 0 0.0158452)
(0 0 0.015808)
(0 0 0.0157671)
(0 0 0.0157225)
(0 0 0.0156742)
(0 0 0.0156224)
(0 0 0.015567)
(0 0 0.0155082)
(0 0 0.0154459)
(0 0 0.0153803)
(0 0 0.0153113)
(0 0 0.0152391)
(0 0 0.0151637)
(0 0 0.0150851)
(0 0 0.0150035)
(0 0 0.0149189)
(0 0 0.0148314)
(0 0 0.014741)
(0 0 0.0146478)
(0 0 0.0145519)
(0 0 0.0144534)
(0 0 0.0143523)
(0 0 0.0142486)
(0 0 0.0141426)
(0 0 0.0140341)
(0 0 0.0139234)
(0 0 0.0138105)
(0 0 0.0136954)
(0 0 0.0135783)
(0 0 0.0134591)
(0 0 0.0133381)
(0 0 0.0132151)
(0 0 0.0130904)
(0 0 0.012964)
(0 0 0.0128359)
(0 0 0.0127062)
(0 0 0.012575)
(0 0 0.0124424)
(0 0 0.0123083)
(0 0 0.012173)
(0 0 0.0120363)
(0 0 0.0118985)
(0 0 0.0117595)
(0 0 0.0116195)
(0 0 0.0114784)
(0 0 0.0113363)
(0 0 0.0111933)
(0 0 0.0110495)
(0 0 0.0109048)
(0 0 0.0107593)
(0 0 0.0106132)
(0 0 0.0104663)
(0 0 0.0103189)
(0 0 0.0101708)
(0 0 0.0100222)
(0 0 0.00987311)
(0 0 0.00972355)
(0 0 0.00957356)
(0 0 0.00942318)
(0 0 0.00927245)
(0 0 0.00912139)
(0 0 0.00897005)
(0 0 0.00881845)
(0 0 0.00866662)
(0 0 0.00851458)
(0 0 0.00836238)
(0 0 0.00821002)
(0 0 0.00805754)
(0 0 0.00790496)
(0 0 0.0077523)
(0 0 0.00759958)
(0 0 0.00744681)
(0 0 0.00729403)
(0 0 0.00714124)
(0 0 0.00698846)
(0 0 0.00683571)
(0 0 0.006683)
(0 0 0.00653034)
(0 0 0.00637774)
(0 0 0.00622522)
(0 0 0.00607278)
(0 0 0.00592044)
(0 0 0.00576821)
(0 0 0.00561608)
(0 0 0.00546407)
(0 0 0.00531218)
(0 0 0.00516042)
(0 0 0.00500879)
(0 0 0.0048573)
(0 0 0.00470595)
(0 0 0.00455473)
(0 0 0.00440366)
(0 0 0.00425273)
(0 0 0.00410195)
(0 0 0.00395131)
(0 0 0.00380081)
(0 0 0.00365045)
(0 0 0.00350023)
(0 0 0.00335015)
(0 0 0.00320021)
(0 0 0.0030504)
(0 0 0.00290071)
(0 0 0.00275115)
(0 0 0.00260171)
(0 0 0.00245239)
(0 0 0.00230317)
(0 0 0.00215406)
(0 0 0.00200506)
(0 0 0.00185614)
(0 0 0.00170732)
(0 0 0.00155857)
(0 0 0.0014099)
(0 0 0.00126131)
(0 0 0.00111277)
(0 0 0.000964287)
(0 0 0.000815853)
(0 0 0.00066746)
(0 0 0.000519101)
(0 0 0.000370768)
(0 0 0.000222453)
(0 0 7.41498e-05)
(0 0 9.26691e-05)
(0 0 0.000278013)
(0 0 0.000463375)
(0 0 0.000648766)
(0 0 0.000834198)
(0 0 0.00101968)
(0 0 0.00120523)
(0 0 0.00139085)
(0 0 0.00157656)
(0 0 0.00176237)
(0 0 0.00194828)
(0 0 0.00213431)
(0 0 0.00232047)
(0 0 0.00250677)
(0 0 0.00269322)
(0 0 0.00287982)
(0 0 0.00306659)
(0 0 0.00325354)
(0 0 0.00344066)
(0 0 0.00362798)
(0 0 0.00381549)
(0 0 0.0040032)
(0 0 0.00419113)
(0 0 0.00437926)
(0 0 0.00456762)
(0 0 0.0047562)
(0 0 0.00494501)
(0 0 0.00513404)
(0 0 0.0053233)
(0 0 0.0055128)
(0 0 0.00570253)
(0 0 0.00589248)
(0 0 0.00608267)
(0 0 0.00627308)
(0 0 0.00646371)
(0 0 0.00665456)
(0 0 0.00684562)
(0 0 0.00703689)
(0 0 0.00722835)
(0 0 0.00742)
(0 0 0.00761182)
(0 0 0.0078038)
(0 0 0.00799594)
(0 0 0.00818821)
(0 0 0.0083806)
(0 0 0.00857309)
(0 0 0.00876567)
(0 0 0.0089583)
(0 0 0.00915097)
(0 0 0.00934365)
(0 0 0.00953633)
(0 0 0.00972896)
(0 0 0.00992152)
(0 0 0.010114)
(0 0 0.0103063)
(0 0 0.0104985)
(0 0 0.0106904)
(0 0 0.0108821)
(0 0 0.0110736)
(0 0 0.0112646)
(0 0 0.0114554)
(0 0 0.0116457)
(0 0 0.0118355)
(0 0 0.0120248)
(0 0 0.0122135)
(0 0 0.0124016)
(0 0 0.012589)
(0 0 0.0127756)
(0 0 0.0129615)
(0 0 0.0131464)
(0 0 0.0133305)
(0 0 0.0135135)
(0 0 0.0136954)
(0 0 0.0138762)
(0 0 0.0140557)
(0 0 0.0142339)
(0 0 0.0144108)
(0 0 0.0145862)
(0 0 0.0147601)
(0 0 0.0149323)
(0 0 0.0151028)
(0 0 0.0152715)
(0 0 0.0154383)
(0 0 0.0156032)
(0 0 0.015766)
(0 0 0.0159266)
(0 0 0.016085)
(0 0 0.016241)
(0 0 0.0163946)
(0 0 0.0165457)
(0 0 0.0166941)
(0 0 0.0168398)
(0 0 0.0169827)
(0 0 0.0171227)
(0 0 0.0172597)
(0 0 0.0173936)
(0 0 0.0175243)
(0 0 0.0176517)
(0 0 0.0177757)
(0 0 0.0178963)
(0 0 0.0180133)
(0 0 0.0181267)
(0 0 0.0182363)
(0 0 0.0183421)
(0 0 0.018444)
(0 0 0.018542)
(0 0 0.0186359)
(0 0 0.0187256)
(0 0 0.0188112)
(0 0 0.0188925)
(0 0 0.0189695)
(0 0 0.0190421)
(0 0 0.0191102)
(0 0 0.0191738)
(0 0 0.0192328)
(0 0 0.0192873)
(0 0 0.0193371)
(0 0 0.0193822)
(0 0 0.0194226)
(0 0 0.0194582)
(0 0 0.0194891)
(0 0 0.0195151)
(0 0 0.0195363)
(0 0 0.0195527)
(0 0 0.0195643)
(0 0 0.019571)
(0 0 0.0195729)
(0 0 0.0195699)
(0 0 0.0195621)
(0 0 0.0195495)
(0 0 0.0195321)
(0 0 0.0195099)
(0 0 0.0194829)
(0 0 0.0194513)
(0 0 0.019415)
(0 0 0.019374)
(0 0 0.0193284)
(0 0 0.0192783)
(0 0 0.0192237)
(0 0 0.0191647)
(0 0 0.0191012)
(0 0 0.0190335)
(0 0 0.0189614)
(0 0 0.0188852)
(0 0 0.0188049)
(0 0 0.0187204)
(0 0 0.0186321)
(0 0 0.0185398)
(0 0 0.0184436)
(0 0 0.0183438)
(0 0 0.0182402)
(0 0 0.0181331)
(0 0 0.0180225)
(0 0 0.0179085)
(0 0 0.0177911)
(0 0 0.0176705)
(0 0 0.0175468)
(0 0 0.0174199)
(0 0 0.0172902)
(0 0 0.0171575)
(0 0 0.017022)
(0 0 0.0168839)
(0 0 0.0167431)
(0 0 0.0165997)
(0 0 0.016454)
(0 0 0.0163059)
(0 0 0.0161555)
(0 0 0.0160029)
(0 0 0.0158482)
(0 0 0.0156915)
(0 0 0.0155329)
(0 0 0.0153724)
(0 0 0.0152102)
(0 0 0.0150462)
(0 0 0.0148806)
(0 0 0.0147135)
(0 0 0.0145449)
(0 0 0.014375)
(0 0 0.0142037)
(0 0 0.0140311)
(0 0 0.0138574)
(0 0 0.0136825)
(0 0 0.0135066)
(0 0 0.0133296)
(0 0 0.0131518)
(0 0 0.012973)
(0 0 0.0127935)
(0 0 0.0126131)
(0 0 0.0124321)
(0 0 0.0122504)
(0 0 0.0120681)
(0 0 0.0118852)
(0 0 0.0117018)
(0 0 0.0115179)
(0 0 0.0113337)
(0 0 0.011149)
(0 0 0.0109639)
(0 0 0.0107786)
(0 0 0.0105929)
(0 0 0.0104071)
(0 0 0.010221)
(0 0 0.0100347)
(0 0 0.00984832)
(0 0 0.00966178)
(0 0 0.00947516)
(0 0 0.00928846)
(0 0 0.00910171)
(0 0 0.00891494)
(0 0 0.00872816)
(0 0 0.0085414)
(0 0 0.00835468)
(0 0 0.008168)
(0 0 0.00798139)
(0 0 0.00779486)
(0 0 0.00760843)
(0 0 0.0074221)
(0 0 0.00723589)
(0 0 0.00704981)
(0 0 0.00686386)
(0 0 0.00667806)
(0 0 0.00649241)
(0 0 0.00630691)
(0 0 0.00612158)
(0 0 0.00593642)
(0 0 0.00575143)
(0 0 0.00556661)
(0 0 0.00538196)
(0 0 0.00519749)
(0 0 0.0050132)
(0 0 0.00482908)
(0 0 0.00464514)
(0 0 0.00446138)
(0 0 0.00427778)
(0 0 0.00409436)
(0 0 0.0039111)
(0 0 0.003728)
(0 0 0.00354506)
(0 0 0.00336227)
(0 0 0.00317963)
(0 0 0.00299714)
(0 0 0.00281477)
(0 0 0.00263254)
(0 0 0.00245043)
(0 0 0.00226844)
(0 0 0.00208655)
(0 0 0.00190477)
(0 0 0.00172308)
(0 0 0.00154147)
(0 0 0.00135994)
(0 0 0.00117848)
(0 0 0.000997071)
(0 0 0.000815716)
(0 0 0.000634403)
(0 0 0.000453122)
(0 0 0.000271864)
(0 0 9.06199e-05)
(0 0 0.000109504)
(0 0 0.00032852)
(0 0 0.000547556)
(0 0 0.000766627)
(0 0 0.000985746)
(0 0 0.00120493)
(0 0 0.00142419)
(0 0 0.00164353)
(0 0 0.00186298)
(0 0 0.00208254)
(0 0 0.00230224)
(0 0 0.00252207)
(0 0 0.00274205)
(0 0 0.0029622)
(0 0 0.00318252)
(0 0 0.00340304)
(0 0 0.00362374)
(0 0 0.00384466)
(0 0 0.00406579)
(0 0 0.00428714)
(0 0 0.00450873)
(0 0 0.00473057)
(0 0 0.00495264)
(0 0 0.00517498)
(0 0 0.00539757)
(0 0 0.00562043)
(0 0 0.00584356)
(0 0 0.00606696)
(0 0 0.00629063)
(0 0 0.00651458)
(0 0 0.00673881)
(0 0 0.0069633)
(0 0 0.00718808)
(0 0 0.00741312)
(0 0 0.00763842)
(0 0 0.00786398)
(0 0 0.0080898)
(0 0 0.00831586)
(0 0 0.00854216)
(0 0 0.00876867)
(0 0 0.0089954)
(0 0 0.00922233)
(0 0 0.00944943)
(0 0 0.0096767)
(0 0 0.00990411)
(0 0 0.0101316)
(0 0 0.0103593)
(0 0 0.010587)
(0 0 0.0108148)
(0 0 0.0110425)
(0 0 0.0112703)
(0 0 0.011498)
(0 0 0.0117257)
(0 0 0.0119532)
(0 0 0.0121806)
(0 0 0.0124078)
(0 0 0.0126347)
(0 0 0.0128614)
(0 0 0.0130877)
(0 0 0.0133136)
(0 0 0.0135392)
(0 0 0.0137642)
(0 0 0.0139886)
(0 0 0.0142125)
(0 0 0.0144356)
(0 0 0.0146581)
(0 0 0.0148797)
(0 0 0.0151004)
(0 0 0.0153202)
(0 0 0.0155389)
(0 0 0.0157566)
(0 0 0.015973)
(0 0 0.0161882)
(0 0 0.016402)
(0 0 0.0166144)
(0 0 0.0168252)
(0 0 0.0170344)
(0 0 0.0172419)
(0 0 0.0174475)
(0 0 0.0176513)
(0 0 0.017853)
(0 0 0.0180526)
(0 0 0.01825)
(0 0 0.018445)
(0 0 0.0186376)
(0 0 0.0188276)
(0 0 0.019015)
(0 0 0.0191997)
(0 0 0.0193814)
(0 0 0.0195602)
(0 0 0.0197358)
(0 0 0.0199083)
(0 0 0.0200774)
(0 0 0.020243)
(0 0 0.0204051)
(0 0 0.0205636)
(0 0 0.0207183)
(0 0 0.0208691)
(0 0 0.0210159)
(0 0 0.0211586)
(0 0 0.0212971)
(0 0 0.0214312)
(0 0 0.021561)
(0 0 0.0216863)
(0 0 0.0218069)
(0 0 0.0219228)
(0 0 0.022034)
(0 0 0.0221402)
(0 0 0.0222415)
(0 0 0.0223377)
(0 0 0.0224289)
(0 0 0.0225148)
(0 0 0.0225954)
(0 0 0.0226707)
(0 0 0.0227406)
(0 0 0.022805)
(0 0 0.022864)
(0 0 0.0229174)
(0 0 0.0229652)
(0 0 0.0230073)
(0 0 0.0230439)
(0 0 0.0230747)
(0 0 0.0230998)
(0 0 0.0231192)
(0 0 0.0231329)
(0 0 0.0231408)
(0 0 0.023143)
(0 0 0.0231394)
(0 0 0.0231302)
(0 0 0.0231152)
(0 0 0.0230946)
(0 0 0.0230683)
(0 0 0.0230364)
(0 0 0.0229989)
(0 0 0.0229559)
(0 0 0.0229074)
(0 0 0.0228534)
(0 0 0.0227941)
(0 0 0.0227294)
(0 0 0.0226595)
(0 0 0.0225844)
(0 0 0.0225042)
(0 0 0.0224189)
(0 0 0.0223286)
(0 0 0.0222335)
(0 0 0.0221336)
(0 0 0.0220289)
(0 0 0.0219197)
(0 0 0.0218059)
(0 0 0.0216877)
(0 0 0.0215651)
(0 0 0.0214383)
(0 0 0.0213074)
(0 0 0.0211724)
(0 0 0.0210335)
(0 0 0.0208908)
(0 0 0.0207443)
(0 0 0.0205942)
(0 0 0.0204406)
(0 0 0.0202837)
(0 0 0.0201233)
(0 0 0.0199598)
(0 0 0.0197932)
(0 0 0.0196237)
(0 0 0.0194512)
(0 0 0.0192759)
(0 0 0.019098)
(0 0 0.0189175)
(0 0 0.0187345)
(0 0 0.0185491)
(0 0 0.0183614)
(0 0 0.0181716)
(0 0 0.0179796)
(0 0 0.0177857)
(0 0 0.0175899)
(0 0 0.0173922)
(0 0 0.0171928)
(0 0 0.0169917)
(0 0 0.0167891)
(0 0 0.016585)
(0 0 0.0163795)
(0 0 0.0161727)
(0 0 0.0159647)
(0 0 0.0157554)
(0 0 0.0155451)
(0 0 0.0153337)
(0 0 0.0151214)
(0 0 0.0149081)
(0 0 0.0146941)
(0 0 0.0144792)
(0 0 0.0142636)
(0 0 0.0140474)
(0 0 0.0138305)
(0 0 0.0136131)
(0 0 0.0133952)
(0 0 0.0131769)
(0 0 0.0129581)
(0 0 0.012739)
(0 0 0.0125195)
(0 0 0.0122998)
(0 0 0.0120798)
(0 0 0.0118596)
(0 0 0.0116392)
(0 0 0.0114187)
(0 0 0.0111981)
(0 0 0.0109774)