/*--------------------------------*- C++ -*----------------------------------*\
| =========                 |                                                 |
| \\      /  F ield         | OpenFOAM: The Open Source CFD Toolbox           |
|  \\    /   O peration     | Version:  v2012                                 |
|   \\  /    A nd           | Website:  www.openfoam.com                      |
|    \\/     M anipulation  |                                                 |
\*---------------------------------------------------------------------------*/
FoamFile
{
    version     2.0;
    format      ascii;
    class       volVectorField;
    location    "15.5";
    object      U;
}
// * * * * * * * * * * * * * * * * * * * * * * * * * * * * * * * * * * * * * //

dimensions      [0 1 -1 0 0 0 0];


internalField   nonuniform List<vector> 
65536
(
(0.000687165 -0.000687186 0)
(0.00206154 -0.00068723 0)
(0.00343604 -0.000687316 0)
(0.00481076 -0.000687444 0)
(0.00618578 -0.000687615 0)
(0.00756118 -0.000687828 0)
(0.00893705 -0.000688082 0)
(0.0103135 -0.000688378 0)
(0.0116905 -0.000688714 0)
(0.0130683 -0.000689089 0)
(0.0144468 -0.000689503 0)
(0.0158263 -0.000689954 0)
(0.0172066 -0.000690443 0)
(0.018588 -0.000690967 0)
(0.0199705 -0.000691525 0)
(0.0213541 -0.000692115 0)
(0.0227389 -0.000692738 0)
(0.024125 -0.00069339 0)
(0.0255124 -0.000694069 0)
(0.0269013 -0.000694776 0)
(0.0282915 -0.000695506 0)
(0.0296833 -0.000696258 0)
(0.0310765 -0.000697031 0)
(0.0324714 -0.000697821 0)
(0.0338678 -0.000698626 0)
(0.0352659 -0.000699444 0)
(0.0366656 -0.000700272 0)
(0.0380669 -0.000701107 0)
(0.03947 -0.000701946 0)
(0.0408747 -0.000702787 0)
(0.0422811 -0.000703624 0)
(0.0436892 -0.000704457 0)
(0.045099 -0.00070528 0)
(0.0465104 -0.00070609 0)
(0.0479234 -0.000706883 0)
(0.0493379 -0.000707655 0)
(0.050754 -0.000708402 0)
(0.0521716 -0.00070912 0)
(0.0535905 -0.000709805 0)
(0.0550108 -0.00071045 0)
(0.0564324 -0.000711053 0)
(0.0578551 -0.000711607 0)
(0.0592789 -0.000712108 0)
(0.0607036 -0.000712549 0)
(0.0621291 -0.000712927 0)
(0.0635554 -0.000713235 0)
(0.0649821 -0.000713467 0)
(0.0664093 -0.000713618 0)
(0.0678367 -0.000713681 0)
(0.0692641 -0.00071365 0)
(0.0706914 -0.000713518 0)
(0.0721183 -0.00071328 0)
(0.0735446 -0.000712928 0)
(0.0749701 -0.000712455 0)
(0.0763946 -0.000711855 0)
(0.0778177 -0.00071112 0)
(0.0792392 -0.000710243 0)
(0.0806588 -0.000709217 0)
(0.0820762 -0.000708035 0)
(0.0834911 -0.000706688 0)
(0.0849032 -0.000705169 0)
(0.086312 -0.000703471 0)
(0.0877172 -0.000701586 0)
(0.0891185 -0.000699506 0)
(0.0905155 -0.000697223 0)
(0.0919076 -0.000694729 0)
(0.0932946 -0.000692017 0)
(0.0946759 -0.000689079 0)
(0.0960511 -0.000685907 0)
(0.0974198 -0.000682493 0)
(0.0987814 -0.00067883 0)
(0.100135 -0.000674911 0)
(0.101481 -0.000670727 0)
(0.102819 -0.000666272 0)
(0.104147 -0.000661539 0)
(0.105465 -0.000656521 0)
(0.106773 -0.00065121 0)
(0.10807 -0.000645602 0)
(0.109356 -0.000639688 0)
(0.110629 -0.000633465 0)
(0.11189 -0.000626925 0)
(0.113137 -0.000620065 0)
(0.11437 -0.000612878 0)
(0.115589 -0.000605361 0)
(0.116792 -0.00059751 0)
(0.117979 -0.00058932 0)
(0.11915 -0.00058079 0)
(0.120303 -0.000571915 0)
(0.121438 -0.000562695 0)
(0.122554 -0.000553127 0)
(0.123651 -0.000543211 0)
(0.124727 -0.000532946 0)
(0.125783 -0.000522332 0)
(0.126817 -0.00051137 0)
(0.127829 -0.000500062 0)
(0.128818 -0.000488409 0)
(0.129783 -0.000476415 0)
(0.130724 -0.000464082 0)
(0.131639 -0.000451415 0)
(0.132529 -0.000438418 0)
(0.133393 -0.000425097 0)
(0.13423 -0.000411458 0)
(0.135039 -0.000397508 0)
(0.135821 -0.000383255 0)
(0.136573 -0.000368706 0)
(0.137296 -0.00035387 0)
(0.137989 -0.000338758 0)
(0.138651 -0.000323378 0)
(0.139282 -0.000307742 0)
(0.139882 -0.000291862 0)
(0.14045 -0.000275748 0)
(0.140985 -0.000259415 0)
(0.141488 -0.000242874 0)
(0.141957 -0.000226139 0)
(0.142393 -0.000209225 0)
(0.142794 -0.000192146 0)
(0.143161 -0.000174916 0)
(0.143494 -0.000157551 0)
(0.143792 -0.000140067 0)
(0.144054 -0.000122479 0)
(0.144282 -0.000104803 0)
(0.144474 -8.70558e-05 0)
(0.14463 -6.92534e-05 0)
(0.144751 -5.14124e-05 0)
(0.144836 -3.35494e-05 0)
(0.144885 -1.5681e-05 0)
(0.144898 2.17629e-06 0)
(0.144876 2.0006e-05 0)
(0.144818 3.77919e-05 0)
(0.144725 5.55176e-05 0)
(0.144596 7.31673e-05 0)
(0.144432 9.07252e-05 0)
(0.144233 0.000108176 0)
(0.143999 0.000125504 0)
(0.143731 0.000142696 0)
(0.143428 0.000159735 0)
(0.143092 0.00017661 0)
(0.142722 0.000193306 0)
(0.142318 0.00020981 0)
(0.141882 0.00022611 0)
(0.141414 0.000242193 0)
(0.140913 0.00025805 0)
(0.140381 0.000273668 0)
(0.139818 0.000289038 0)
(0.139225 0.000304149 0)
(0.138601 0.000318994 0)
(0.137949 0.000333564 0)
(0.137267 0.000347851 0)
(0.136557 0.000361847 0)
(0.135819 0.000375548 0)
(0.135054 0.000388946 0)
(0.134263 0.000402037 0)
(0.133446 0.000414816 0)
(0.132604 0.00042728 0)
(0.131736 0.000439424 0)
(0.130846 0.000451247 0)
(0.129931 0.000462746 0)
(0.128994 0.00047392 0)
(0.128035 0.000484768 0)
(0.127055 0.000495289 0)
(0.126054 0.000505483 0)
(0.125033 0.000515352 0)
(0.123992 0.000524895 0)
(0.122933 0.000534116 0)
(0.121855 0.000543015 0)
(0.12076 0.000551595 0)
(0.119648 0.000559859 0)
(0.11852 0.00056781 0)
(0.117377 0.000575452 0)
(0.116218 0.000582789 0)
(0.115045 0.000589825 0)
(0.113859 0.000596564 0)
(0.112659 0.000603011 0)
(0.111446 0.000609172 0)
(0.110222 0.000615051 0)
(0.108986 0.000620654 0)
(0.107739 0.000625987 0)
(0.106482 0.000631055 0)
(0.105215 0.000635865 0)
(0.103938 0.000640422 0)
(0.102653 0.000644734 0)
(0.101359 0.000648805 0)
(0.100057 0.000652643 0)
(0.0987481 0.000656255 0)
(0.097432 0.000659646 0)
(0.0961093 0.000662823 0)
(0.0947805 0.000665793 0)
(0.0934459 0.000668562 0)
(0.092106 0.000671138 0)
(0.0907612 0.000673526 0)
(0.0894117 0.000675733 0)
(0.0880581 0.000677767 0)
(0.0867005 0.000679632 0)
(0.0853394 0.000681336 0)
(0.083975 0.000682885 0)
(0.0826077 0.000684286 0)
(0.0812377 0.000685544 0)
(0.0798654 0.000686666 0)
(0.0784909 0.000687658 0)
(0.0771146 0.000688526 0)
(0.0757367 0.000689275 0)
(0.0743574 0.000689912 0)
(0.0729769 0.000690442 0)
(0.0715955 0.000690871 0)
(0.0702134 0.000691204 0)
(0.0688306 0.000691446 0)
(0.0674475 0.000691604 0)
(0.0660641 0.000691681 0)
(0.0646807 0.000691683 0)
(0.0632973 0.000691614 0)
(0.0619142 0.00069148 0)
(0.0605314 0.000691285 0)
(0.059149 0.000691034 0)
(0.0577672 0.000690731 0)
(0.056386 0.000690379 0)
(0.0550056 0.000689984 0)
(0.053626 0.00068955 0)
(0.0522474 0.000689079 0)
(0.0508697 0.000688577 0)
(0.049493 0.000688046 0)
(0.0481175 0.00068749 0)
(0.0467431 0.000686913 0)
(0.0453698 0.000686317 0)
(0.0439978 0.000685707 0)
(0.042627 0.000685084 0)
(0.0412574 0.000684453 0)
(0.0398892 0.000683815 0)
(0.0385222 0.000683174 0)
(0.0371565 0.000682533 0)
(0.035792 0.000681893 0)
(0.0344289 0.000681256 0)
(0.033067 0.000680627 0)
(0.0317064 0.000680006 0)
(0.030347 0.000679395 0)
(0.0289888 0.000678798 0)
(0.0276318 0.000678214 0)
(0.026276 0.000677648 0)
(0.0249213 0.000677099 0)
(0.0235676 0.00067657 0)
(0.022215 0.000676062 0)
(0.0208634 0.000675577 0)
(0.0195127 0.000675116 0)
(0.018163 0.00067468 0)
(0.016814 0.00067427 0)
(0.0154659 0.000673888 0)
(0.0141185 0.000673534 0)
(0.0127718 0.000673209 0)
(0.0114257 0.000672915 0)
(0.0100802 0.000672652 0)
(0.00873515 0.00067242 0)
(0.00739054 0.00067222 0)
(0.0060463 0.000672053 0)
(0.00470237 0.000671918 0)
(0.00335867 0.000671818 0)
(0.00201513 0.00067175 0)
(0.0006717 0.000671716 0)
(0.000687124 -0.00206152 0)
(0.00206141 -0.00206165 0)
(0.00343583 -0.00206191 0)
(0.00481047 -0.00206229 0)
(0.0061854 -0.00206281 0)
(0.00756072 -0.00206344 0)
(0.00893651 -0.00206421 0)
(0.0103129 -0.0020651 0)
(0.0116898 -0.0020661 0)
(0.0130675 -0.00206723 0)
(0.014446 -0.00206847 0)
(0.0158253 -0.00206983 0)
(0.0172056 -0.0020713 0)
(0.0185869 -0.00207287 0)
(0.0199693 -0.00207454 0)
(0.0213529 -0.00207632 0)
(0.0227376 -0.00207819 0)
(0.0241237 -0.00208014 0)
(0.0255111 -0.00208218 0)
(0.0268998 -0.0020843 0)
(0.02829 -0.0020865 0)
(0.0296817 -0.00208876 0)
(0.031075 -0.00209108 0)
(0.0324698 -0.00209345 0)
(0.0338662 -0.00209587 0)
(0.0352642 -0.00209833 0)
(0.0366639 -0.00210081 0)
(0.0380653 -0.00210332 0)
(0.0394683 -0.00210584 0)
(0.0408731 -0.00210836 0)
(0.0422795 -0.00211088 0)
(0.0436876 -0.00211338 0)
(0.0450974 -0.00211585 0)
(0.0465088 -0.00211829 0)
(0.0479218 -0.00212067 0)
(0.0493364 -0.00212299 0)
(0.0507526 -0.00212524 0)
(0.0521702 -0.0021274 0)
(0.0535892 -0.00212945 0)
(0.0550096 -0.0021314 0)
(0.0564313 -0.00213321 0)
(0.0578541 -0.00213488 0)
(0.0592779 -0.00213638 0)
(0.0607028 -0.00213771 0)
(0.0621285 -0.00213885 0)
(0.0635549 -0.00213978 0)
(0.0649818 -0.00214049 0)
(0.0664091 -0.00214094 0)
(0.0678367 -0.00214114 0)
(0.0692643 -0.00214105 0)
(0.0706918 -0.00214066 0)
(0.0721189 -0.00213996 0)
(0.0735455 -0.00213891 0)
(0.0749713 -0.00213749 0)
(0.076396 -0.0021357 0)
(0.0778194 -0.0021335 0)
(0.0792412 -0.00213088 0)
(0.0806611 -0.00212781 0)
(0.0820788 -0.00212427 0)
(0.083494 -0.00212024 0)
(0.0849064 -0.00211569 0)
(0.0863156 -0.0021106 0)
(0.0877212 -0.00210495 0)
(0.0891229 -0.00209872 0)
(0.0905203 -0.00209188 0)
(0.0919129 -0.00208441 0)
(0.0933003 -0.00207628 0)
(0.0946821 -0.00206747 0)
(0.0960578 -0.00205796 0)
(0.0974269 -0.00204773 0)
(0.098789 -0.00203675 0)
(0.100144 -0.002025 0)
(0.10149 -0.00201245 0)
(0.102828 -0.0019991 0)
(0.104156 -0.0019849 0)
(0.105475 -0.00196985 0)
(0.106784 -0.00195393 0)
(0.108082 -0.00193711 0)
(0.109368 -0.00191938 0)
(0.110642 -0.00190071 0)
(0.111903 -0.0018811 0)
(0.113151 -0.00186052 0)
(0.114385 -0.00183896 0)
(0.115604 -0.00181642 0)
(0.116808 -0.00179287 0)
(0.117996 -0.0017683 0)
(0.119167 -0.00174271 0)
(0.120321 -0.00171609 0)
(0.121457 -0.00168843 0)
(0.122574 -0.00165973 0)
(0.123671 -0.00162998 0)
(0.124748 -0.00159918 0)
(0.125805 -0.00156734 0)
(0.126839 -0.00153446 0)
(0.127852 -0.00150053 0)
(0.128841 -0.00146557 0)
(0.129807 -0.00142958 0)
(0.130749 -0.00139258 0)
(0.131665 -0.00135457 0)
(0.132556 -0.00131557 0)
(0.13342 -0.00127561 0)
(0.134258 -0.00123468 0)
(0.135068 -0.00119283 0)
(0.135849 -0.00115006 0)
(0.136602 -0.0011064 0)
(0.137326 -0.00106188 0)
(0.138019 -0.00101654 0)
(0.138682 -0.000970387 0)
(0.139314 -0.000923468 0)
(0.139914 -0.000875814 0)
(0.140482 -0.000827462 0)
(0.141018 -0.000778448 0)
(0.141521 -0.000728812 0)
(0.141991 -0.000678594 0)
(0.142427 -0.000627837 0)
(0.142828 -0.000576585 0)
(0.143196 -0.00052488 0)
(0.143529 -0.00047277 0)
(0.143827 -0.000420301 0)
(0.14409 -0.000367521 0)
(0.144317 -0.000314477 0)
(0.144509 -0.000261219 0)
(0.144666 -0.000207795 0)
(0.144786 -0.000154256 0)
(0.144871 -0.00010065 0)
(0.144921 -4.70283e-05 0)
(0.144934 6.56007e-06 0)
(0.144912 6.00656e-05 0)
(0.144854 0.000113439 0)
(0.14476 0.000166633 0)
(0.144631 0.000219597 0)
(0.144467 0.000272286 0)
(0.144268 0.000324654 0)
(0.144034 0.000376653 0)
(0.143765 0.000428242 0)
(0.143462 0.000479375 0)
(0.143125 0.000530012 0)
(0.142755 0.000580112 0)
(0.142351 0.000629637 0)
(0.141915 0.000678548 0)
(0.141446 0.000726811 0)
(0.140945 0.00077439 0)
(0.140412 0.000821255 0)
(0.139849 0.000867373 0)
(0.139255 0.000912718 0)
(0.138631 0.00095726 0)
(0.137977 0.00100098 0)
(0.137295 0.00104384 0)
(0.136585 0.00108584 0)
(0.135846 0.00112695 0)
(0.135081 0.00116715 0)
(0.134289 0.00120643 0)
(0.133471 0.00124477 0)
(0.132628 0.00128216 0)
(0.13176 0.0013186 0)
(0.130869 0.00135407 0)
(0.129954 0.00138857 0)
(0.129016 0.00142209 0)
(0.128057 0.00145463 0)
(0.127075 0.00148619 0)
(0.126074 0.00151678 0)
(0.125052 0.00154638 0)
(0.124011 0.00157501 0)
(0.122951 0.00160267 0)
(0.121873 0.00162936 0)
(0.120777 0.0016551 0)
(0.119665 0.00167989 0)
(0.118536 0.00170374 0)
(0.117392 0.00172666 0)
(0.116233 0.00174867 0)
(0.115059 0.00176977 0)
(0.113872 0.00178998 0)
(0.112671 0.00180932 0)
(0.111458 0.0018278 0)
(0.110233 0.00184543 0)
(0.108997 0.00186223 0)
(0.107749 0.00187823 0)
(0.106492 0.00189342 0)
(0.105224 0.00190785 0)
(0.103947 0.00192151 0)
(0.102661 0.00193444 0)
(0.101367 0.00194665 0)
(0.100065 0.00195816 0)
(0.098755 0.00196898 0)
(0.0974385 0.00197915 0)
(0.0961154 0.00198867 0)
(0.0947861 0.00199758 0)
(0.0934512 0.00200588 0)
(0.0921109 0.0020136 0)
(0.0907657 0.00202076 0)
(0.0894159 0.00202737 0)
(0.0880619 0.00203347 0)
(0.086704 0.00203906 0)
(0.0853426 0.00204416 0)
(0.0839779 0.0020488 0)
(0.0826103 0.002053 0)
(0.08124 0.00205677 0)
(0.0798674 0.00206013 0)
(0.0784927 0.0020631 0)
(0.0771162 0.00206569 0)
(0.075738 0.00206794 0)
(0.0743585 0.00206984 0)
(0.0729779 0.00207143 0)
(0.0715962 0.00207271 0)
(0.0702139 0.0020737 0)
(0.068831 0.00207442 0)
(0.0674477 0.00207489 0)
(0.0660642 0.00207512 0)
(0.0646806 0.00207512 0)
(0.0632971 0.00207491 0)
(0.0619138 0.0020745 0)
(0.0605309 0.00207391 0)
(0.0591484 0.00207315 0)
(0.0577665 0.00207224 0)
(0.0563852 0.00207118 0)
(0.0550047 0.00206999 0)
(0.0536251 0.00206868 0)
(0.0522464 0.00206727 0)
(0.0508686 0.00206576 0)
(0.0494919 0.00206416 0)
(0.0481163 0.00206249 0)
(0.0467419 0.00206075 0)
(0.0453686 0.00205897 0)
(0.0439965 0.00205713 0)
(0.0426257 0.00205526 0)
(0.0412561 0.00205336 0)
(0.0398879 0.00205145 0)
(0.0385209 0.00204952 0)
(0.0371552 0.00204759 0)
(0.0357907 0.00204567 0)
(0.0344276 0.00204376 0)
(0.0330658 0.00204187 0)
(0.0317052 0.00204 0)
(0.0303458 0.00203817 0)
(0.0289876 0.00203638 0)
(0.0276307 0.00203462 0)
(0.0262749 0.00203292 0)
(0.0249202 0.00203127 0)
(0.0235666 0.00202969 0)
(0.022214 0.00202816 0)
(0.0208624 0.0020267 0)
(0.0195118 0.00202532 0)
(0.0181621 0.00202401 0)
(0.0168132 0.00202278 0)
(0.0154652 0.00202163 0)
(0.0141178 0.00202057 0)
(0.0127712 0.0020196 0)
(0.0114252 0.00201871 0)
(0.0100797 0.00201792 0)
(0.00873471 0.00201723 0)
(0.00739017 0.00201663 0)
(0.006046 0.00201612 0)
(0.00470213 0.00201572 0)
(0.0033585 0.00201542 0)
(0.00201503 0.00201522 0)
(0.000671666 0.00201512 0)
(0.000687037 -0.00343572 0)
(0.00206116 -0.00343594 0)
(0.0034354 -0.00343637 0)
(0.00480987 -0.00343701 0)
(0.00618463 -0.00343787 0)
(0.00755978 -0.00343894 0)
(0.00893541 -0.00344021 0)
(0.0103116 -0.00344169 0)
(0.0116884 -0.00344337 0)
(0.0130659 -0.00344526 0)
(0.0144443 -0.00344733 0)
(0.0158235 -0.00344959 0)
(0.0172036 -0.00345204 0)
(0.0185848 -0.00345467 0)
(0.019967 -0.00345746 0)
(0.0213504 -0.00346042 0)
(0.0227351 -0.00346354 0)
(0.024121 -0.00346681 0)
(0.0255083 -0.00347022 0)
(0.0268969 -0.00347376 0)
(0.0282871 -0.00347742 0)
(0.0296787 -0.0034812 0)
(0.0310718 -0.00348507 0)
(0.0324666 -0.00348903 0)
(0.0338629 -0.00349307 0)
(0.0352609 -0.00349718 0)
(0.0366606 -0.00350133 0)
(0.0380619 -0.00350552 0)
(0.039465 -0.00350973 0)
(0.0408697 -0.00351395 0)
(0.0422761 -0.00351815 0)
(0.0436843 -0.00352233 0)
(0.0450941 -0.00352647 0)
(0.0465056 -0.00353054 0)
(0.0479187 -0.00353452 0)
(0.0493334 -0.0035384 0)
(0.0507496 -0.00354216 0)
(0.0521674 -0.00354578 0)
(0.0535865 -0.00354922 0)
(0.0550071 -0.00355247 0)
(0.0564289 -0.00355551 0)
(0.0578519 -0.0035583 0)
(0.059276 -0.00356083 0)
(0.0607011 -0.00356307 0)
(0.0621271 -0.00356499 0)
(0.0635537 -0.00356656 0)
(0.064981 -0.00356775 0)
(0.0664087 -0.00356853 0)
(0.0678366 -0.00356888 0)
(0.0692646 -0.00356875 0)
(0.0706925 -0.00356813 0)
(0.0721201 -0.00356697 0)
(0.0735471 -0.00356524 0)
(0.0749734 -0.00356292 0)
(0.0763986 -0.00355995 0)
(0.0778225 -0.00355631 0)
(0.0792449 -0.00355196 0)
(0.0806654 -0.00354687 0)
(0.0820838 -0.003541 0)
(0.0834997 -0.0035343 0)
(0.0849128 -0.00352675 0)
(0.0863227 -0.00351829 0)
(0.0877291 -0.00350891 0)
(0.0891316 -0.00349854 0)
(0.0905298 -0.00348717 0)
(0.0919232 -0.00347474 0)
(0.0933115 -0.00346122 0)
(0.0946943 -0.00344656 0)
(0.0960709 -0.00343074 0)
(0.097441 -0.00341371 0)
(0.0988041 -0.00339544 0)
(0.10016 -0.00337588 0)
(0.101507 -0.00335499 0)
(0.102846 -0.00333275 0)
(0.104176 -0.00330912 0)
(0.105496 -0.00328406 0)
(0.106806 -0.00325754 0)
(0.108105 -0.00322953 0)
(0.109392 -0.00319999 0)
(0.110668 -0.0031689 0)
(0.11193 -0.00313623 0)
(0.113179 -0.00310195 0)
(0.114415 -0.00306604 0)
(0.115635 -0.00302848 0)
(0.11684 -0.00298924 0)
(0.11803 -0.00294831 0)
(0.119202 -0.00290567 0)
(0.120357 -0.0028613 0)
(0.121494 -0.00281521 0)
(0.122613 -0.00276738 0)
(0.123711 -0.0027178 0)
(0.12479 -0.00266647 0)
(0.125848 -0.0026134 0)
(0.126884 -0.00255858 0)
(0.127898 -0.00250203 0)
(0.128889 -0.00244375 0)
(0.129856 -0.00238376 0)
(0.130799 -0.00232208 0)
(0.131716 -0.00225872 0)
(0.132609 -0.0021937 0)
(0.133474 -0.00212707 0)
(0.134313 -0.00205884 0)
(0.135124 -0.00198905 0)
(0.135907 -0.00191775 0)
(0.136661 -0.00184496 0)
(0.137386 -0.00177073 0)
(0.13808 -0.00169512 0)
(0.138744 -0.00161816 0)
(0.139377 -0.00153993 0)
(0.139978 -0.00146047 0)
(0.140547 -0.00137984 0)
(0.141084 -0.0012981 0)
(0.141588 -0.00121533 0)
(0.142058 -0.00113159 0)
(0.142495 -0.00104695 0)
(0.142897 -0.000961475 0)
(0.143265 -0.00087525 0)
(0.143599 -0.000788348 0)
(0.143897 -0.000700847 0)
(0.14416 -0.000612826 0)
(0.144388 -0.000524366 0)
(0.14458 -0.000435547 0)
(0.144737 -0.000346453 0)
(0.144858 -0.000257165 0)
(0.144943 -0.000167767 0)
(0.144992 -7.83423e-05 0)
(0.145005 1.10266e-05 0)
(0.144983 0.000100257 0)
(0.144925 0.000189267 0)
(0.144831 0.000277976 0)
(0.144702 0.000366303 0)
(0.144537 0.000454169 0)
(0.144337 0.000541498 0)
(0.144103 0.000628214 0)
(0.143834 0.000714242 0)
(0.14353 0.000799511 0)
(0.143193 0.000883951 0)
(0.142821 0.000967495 0)
(0.142417 0.00105008 0)
(0.141979 0.00113164 0)
(0.14151 0.00121211 0)
(0.141008 0.00129145 0)
(0.140474 0.00136959 0)
(0.13991 0.00144648 0)
(0.139315 0.00152209 0)
(0.13869 0.00159635 0)
(0.138035 0.00166924 0)
(0.137352 0.00174071 0)
(0.13664 0.00181072 0)
(0.135901 0.00187925 0)
(0.135134 0.00194627 0)
(0.134341 0.00201175 0)
(0.133522 0.00207566 0)
(0.132677 0.002138 0)
(0.131808 0.00219873 0)
(0.130915 0.00225786 0)
(0.129999 0.00231536 0)
(0.12906 0.00237124 0)
(0.128099 0.00242548 0)
(0.127117 0.00247808 0)
(0.126114 0.00252905 0)
(0.125091 0.00257839 0)
(0.124048 0.0026261 0)
(0.122987 0.00267219 0)
(0.121908 0.00271667 0)
(0.120811 0.00275956 0)
(0.119697 0.00280086 0)
(0.118567 0.0028406 0)
(0.117422 0.00287879 0)
(0.116261 0.00291545 0)
(0.115087 0.00295061 0)
(0.113898 0.00298428 0)
(0.112697 0.00301649 0)
(0.111483 0.00304727 0)
(0.110256 0.00307664 0)
(0.109019 0.00310462 0)
(0.10777 0.00313126 0)
(0.106511 0.00315657 0)
(0.105243 0.00318059 0)
(0.103965 0.00320334 0)
(0.102678 0.00322487 0)
(0.101383 0.00324519 0)
(0.100079 0.00326435 0)
(0.098769 0.00328237 0)
(0.0974516 0.0032993 0)
(0.0961277 0.00331515 0)
(0.0947976 0.00332997 0)
(0.0934619 0.00334378 0)
(0.0921208 0.00335662 0)
(0.0907749 0.00336853 0)
(0.0894244 0.00337954 0)
(0.0880697 0.00338967 0)
(0.0867111 0.00339897 0)
(0.0853491 0.00340745 0)
(0.0839838 0.00341517 0)
(0.0826156 0.00342214 0)
(0.0812448 0.0034284 0)
(0.0798716 0.00343398 0)
(0.0784964 0.00343891 0)
(0.0771194 0.00344322 0)
(0.0757408 0.00344694 0)
(0.0743608 0.00345009 0)
(0.0729798 0.00345271 0)
(0.0715978 0.00345483 0)
(0.070215 0.00345647 0)
(0.0688318 0.00345766 0)
(0.0674481 0.00345842 0)
(0.0660643 0.00345878 0)
(0.0646804 0.00345876 0)
(0.0632967 0.0034584 0)
(0.0619131 0.0034577 0)
(0.06053 0.00345671 0)
(0.0591473 0.00345543 0)
(0.0577652 0.00345389 0)
(0.0563837 0.00345211 0)
(0.0550031 0.00345012 0)
(0.0536233 0.00344792 0)
(0.0522444 0.00344555 0)
(0.0508666 0.00344302 0)
(0.0494897 0.00344035 0)
(0.048114 0.00343755 0)
(0.0467395 0.00343465 0)
(0.0453662 0.00343166 0)
(0.043994 0.00342859 0)
(0.0426232 0.00342546 0)
(0.0412536 0.00342229 0)
(0.0398853 0.00341909 0)
(0.0385183 0.00341587 0)
(0.0371526 0.00341265 0)
(0.0357882 0.00340944 0)
(0.0344251 0.00340625 0)
(0.0330633 0.00340309 0)
(0.0317027 0.00339997 0)
(0.0303434 0.00339691 0)
(0.0289853 0.00339391 0)
(0.0276284 0.00339099 0)
(0.0262726 0.00338814 0)
(0.024918 0.00338539 0)
(0.0235645 0.00338274 0)
(0.022212 0.00338019 0)
(0.0208606 0.00337776 0)
(0.01951 0.00337545 0)
(0.0181604 0.00337326 0)
(0.0168117 0.00337121 0)
(0.0154637 0.00336929 0)
(0.0141165 0.00336752 0)
(0.01277 0.00336589 0)
(0.011424 0.00336442 0)
(0.0100787 0.0033631 0)
(0.00873385 0.00336194 0)
(0.00738944 0.00336093 0)
(0.0060454 0.00336009 0)
(0.00470166 0.00335942 0)
(0.00335816 0.00335892 0)
(0.00201483 0.00335858 0)
(0.000671598 0.00335841 0)
(0.000686907 -0.00480971 0)
(0.00206077 -0.00481001 0)
(0.00343476 -0.00481062 0)
(0.00480896 -0.00481152 0)
(0.00618347 -0.00481272 0)
(0.00755837 -0.00481422 0)
(0.00893375 -0.00481601 0)
(0.0103097 -0.00481809 0)
(0.0116862 -0.00482045 0)
(0.0130635 -0.00482309 0)
(0.0144416 -0.004826 0)
(0.0158206 -0.00482917 0)
(0.0172005 -0.00483261 0)
(0.0185815 -0.00483629 0)
(0.0199635 -0.00484022 0)
(0.0213468 -0.00484437 0)
(0.0227312 -0.00484875 0)
(0.024117 -0.00485334 0)
(0.0255041 -0.00485812 0)
(0.0268926 -0.00486309 0)
(0.0282826 -0.00486824 0)
(0.0296741 -0.00487353 0)
(0.0310671 -0.00487897 0)
(0.0324618 -0.00488454 0)
(0.033858 -0.00489021 0)
(0.0352559 -0.00489598 0)
(0.0366555 -0.00490181 0)
(0.0380569 -0.0049077 0)
(0.0394599 -0.00491362 0)
(0.0408646 -0.00491954 0)
(0.0422711 -0.00492546 0)
(0.0436792 -0.00493133 0)
(0.0450891 -0.00493714 0)
(0.0465007 -0.00494287 0)
(0.0479139 -0.00494848 0)
(0.0493287 -0.00495394 0)
(0.0507451 -0.00495923 0)
(0.0521631 -0.00496432 0)
(0.0535825 -0.00496918 0)
(0.0550033 -0.00497376 0)
(0.0564254 -0.00497805 0)
(0.0578487 -0.004982 0)
(0.0592731 -0.00498558 0)
(0.0606986 -0.00498875 0)
(0.0621249 -0.00499147 0)
(0.063552 -0.00499371 0)
(0.0649798 -0.00499542 0)
(0.0664079 -0.00499656 0)
(0.0678364 -0.00499709 0)
(0.069265 -0.00499696 0)
(0.0706935 -0.00499613 0)
(0.0721218 -0.00499456 0)
(0.0735495 -0.00499219 0)
(0.0749765 -0.00498897 0)
(0.0764025 -0.00498487 0)
(0.0778273 -0.00497983 0)
(0.0792505 -0.00497379 0)
(0.080672 -0.00496672 0)
(0.0820913 -0.00495854 0)
(0.0835082 -0.00494922 0)
(0.0849223 -0.0049387 0)
(0.0863334 -0.00492692 0)
(0.0877409 -0.00491383 0)
(0.0891446 -0.00489938 0)
(0.090544 -0.00488351 0)
(0.0919387 -0.00486616 0)
(0.0933284 -0.00484729 0)
(0.0947125 -0.00482683 0)
(0.0960906 -0.00480473 0)
(0.0974621 -0.00478094 0)
(0.0988268 -0.00475541 0)
(0.100184 -0.00472808 0)
(0.101533 -0.00469889 0)
(0.102874 -0.00466781 0)
(0.104205 -0.00463477 0)
(0.105527 -0.00459973 0)
(0.106838 -0.00456265 0)
(0.108139 -0.00452348 0)
(0.109428 -0.00448217 0)
(0.110706 -0.00443868 0)
(0.11197 -0.00439297 0)
(0.113221 -0.00434502 0)
(0.114459 -0.00429477 0)
(0.115681 -0.00424221 0)
(0.116888 -0.0041873 0)
(0.11808 -0.00413002 0)
(0.119254 -0.00407034 0)
(0.120411 -0.00400825 0)
(0.121551 -0.00394373 0)
(0.122671 -0.00387677 0)
(0.123772 -0.00380736 0)
(0.124853 -0.0037355 0)
(0.125912 -0.0036612 0)
(0.126951 -0.00358444 0)
(0.127967 -0.00350526 0)
(0.128959 -0.00342365 0)
(0.129929 -0.00333964 0)
(0.130874 -0.00325325 0)
(0.131793 -0.00316451 0)
(0.132688 -0.00307346 0)
(0.133555 -0.00298013 0)
(0.134396 -0.00288456 0)
(0.135209 -0.00278681 0)
(0.135994 -0.00268692 0)
(0.136749 -0.00258495 0)
(0.137476 -0.00248097 0)
(0.138172 -0.00237504 0)
(0.138837 -0.00226723 0)
(0.139472 -0.00215762 0)
(0.140074 -0.00204629 0)
(0.140645 -0.00193332 0)
(0.141183 -0.0018188 0)
(0.141688 -0.00170282 0)
(0.142159 -0.00158548 0)
(0.142597 -0.00146688 0)
(0.143 -0.00134712 0)
(0.143369 -0.0012263 0)
(0.143703 -0.00110453 0)
(0.144002 -0.000981914 0)
(0.144266 -0.000858572 0)
(0.144494 -0.000734613 0)
(0.144687 -0.000610152 0)
(0.144844 -0.000485304 0)
(0.144965 -0.000360185 0)
(0.14505 -0.000234912 0)
(0.145099 -0.000109601 0)
(0.145113 1.56308e-05 0)
(0.14509 0.000140668 0)
(0.145032 0.000265396 0)
(0.144937 0.0003897 0)
(0.144808 0.000513468 0)
(0.144642 0.00063659 0)
(0.144442 0.000758956 0)
(0.144207 0.000880461 0)
(0.143937 0.001001 0)
(0.143632 0.00112048 0)
(0.143293 0.00123879 0)
(0.142921 0.00135584 0)
(0.142515 0.00147154 0)
(0.142077 0.00158581 0)
(0.141606 0.00169855 0)
(0.141102 0.0018097 0)
(0.140567 0.00191916 0)
(0.140001 0.00202689 0)
(0.139405 0.00213279 0)
(0.138778 0.00223682 0)
(0.138122 0.00233892 0)
(0.137437 0.00243902 0)
(0.136723 0.00253709 0)
(0.135982 0.00263308 0)
(0.135213 0.00272694 0)
(0.134418 0.00281864 0)
(0.133597 0.00290814 0)
(0.132751 0.00299543 0)
(0.13188 0.00308048 0)
(0.130985 0.00316327 0)
(0.130067 0.00324379 0)
(0.129126 0.00332202 0)
(0.128163 0.00339796 0)
(0.127179 0.0034716 0)
(0.126174 0.00354295 0)
(0.125149 0.00361202 0)
(0.124105 0.0036788 0)
(0.123041 0.00374331 0)
(0.12196 0.00380557 0)
(0.120861 0.00386559 0)
(0.119746 0.0039234 0)
(0.118614 0.00397901 0)
(0.117467 0.00403245 0)
(0.116305 0.00408374 0)
(0.115128 0.00413293 0)
(0.113938 0.00418004 0)
(0.112734 0.0042251 0)
(0.111519 0.00426815 0)
(0.110291 0.00430922 0)
(0.109051 0.00434836 0)
(0.107801 0.00438561 0)
(0.106541 0.00442101 0)
(0.105271 0.00445459 0)
(0.103991 0.0044864 0)
(0.102703 0.00451649 0)
(0.101406 0.0045449 0)
(0.100102 0.00457168 0)
(0.09879 0.00459687 0)
(0.0974712 0.00462051 0)
(0.096146 0.00464266 0)
(0.0948148 0.00466336 0)
(0.0934779 0.00468265 0)
(0.0921357 0.00470059 0)
(0.0907886 0.00471721 0)
(0.0894371 0.00473257 0)
(0.0880813 0.00474671 0)
(0.0867218 0.00475968 0)
(0.0853588 0.00477152 0)
(0.0839926 0.00478228 0)
(0.0826235 0.00479199 0)
(0.0812519 0.00480071 0)
(0.0798779 0.00480848 0)
(0.078502 0.00481534 0)
(0.0771242 0.00482133 0)
(0.0757449 0.0048265 0)
(0.0743643 0.00483088 0)
(0.0729826 0.00483451 0)
(0.0716 0.00483743 0)
(0.0702167 0.00483969 0)
(0.0688329 0.00484131 0)
(0.0674488 0.00484234 0)
(0.0660645 0.00484281 0)
(0.0646802 0.00484276 0)
(0.063296 0.00484221 0)
(0.0619121 0.00484121 0)
(0.0605286 0.00483978 0)
(0.0591456 0.00483796 0)
(0.0577632 0.00483578 0)
(0.0563815 0.00483326 0)
(0.0550006 0.00483044 0)
(0.0536205 0.00482734 0)
(0.0522415 0.004824 0)
(0.0508634 0.00482043 0)
(0.0494865 0.00481666 0)
(0.0481106 0.00481272 0)
(0.046736 0.00480864 0)
(0.0453625 0.00480443 0)
(0.0439903 0.00480011 0)
(0.0426194 0.00479571 0)
(0.0412498 0.00479125 0)
(0.0398814 0.00478675 0)
(0.0385144 0.00478223 0)
(0.0371487 0.0047777 0)
(0.0357843 0.00477318 0)
(0.0344213 0.0047687 0)
(0.0330595 0.00476426 0)
(0.031699 0.00475988 0)
(0.0303397 0.00475558 0)
(0.0289817 0.00475137 0)
(0.0276249 0.00474727 0)
(0.0262693 0.00474327 0)
(0.0249148 0.00473941 0)
(0.0235614 0.00473569 0)
(0.022209 0.00473211 0)
(0.0208577 0.0047287 0)
(0.0195073 0.00472545 0)
(0.0181579 0.00472238 0)
(0.0168093 0.0047195 0)
(0.0154615 0.00471681 0)
(0.0141144 0.00471432 0)
(0.0127681 0.00471204 0)
(0.0114224 0.00470997 0)
(0.0100772 0.00470812 0)
(0.00873255 0.00470648 0)
(0.00738833 0.00470508 0)
(0.00604449 0.0047039 0)
(0.00470095 0.00470296 0)
(0.00335765 0.00470225 0)
(0.00201452 0.00470178 0)
(0.000671496 0.00470154 0)
(0.000686734 -0.0061834 0)
(0.00206025 -0.00618379 0)
(0.00343389 -0.00618457 0)
(0.00480775 -0.00618573 0)
(0.00618192 -0.00618728 0)
(0.00755649 -0.00618921 0)
(0.00893153 -0.00619152 0)
(0.0103071 -0.0061942 0)
(0.0116834 -0.00619724 0)
(0.0130604 -0.00620064 0)
(0.0144381 -0.0062044 0)
(0.0158168 -0.00620849 0)
(0.0171965 -0.00621292 0)
(0.0185771 -0.00621768 0)
(0.0199589 -0.00622274 0)
(0.0213419 -0.0062281 0)
(0.0227261 -0.00623375 0)
(0.0241116 -0.00623967 0)
(0.0254985 -0.00624584 0)
(0.0268868 -0.00625226 0)
(0.0282766 -0.00625889 0)
(0.0296679 -0.00626573 0)
(0.0310608 -0.00627275 0)
(0.0324553 -0.00627994 0)
(0.0338514 -0.00628726 0)
(0.0352493 -0.0062947 0)
(0.0366488 -0.00630224 0)
(0.0380501 -0.00630985 0)
(0.0394531 -0.00631749 0)
(0.0408578 -0.00632515 0)
(0.0422643 -0.00633279 0)
(0.0436725 -0.00634039 0)
(0.0450825 -0.00634791 0)
(0.0464942 -0.00635531 0)
(0.0479075 -0.00636257 0)
(0.0493225 -0.00636965 0)
(0.0507392 -0.0063765 0)
(0.0521573 -0.0063831 0)
(0.053577 -0.0063894 0)
(0.0549981 -0.00639535 0)
(0.0564206 -0.00640092 0)
(0.0578443 -0.00640607 0)
(0.0592692 -0.00641073 0)
(0.0606951 -0.00641487 0)
(0.062122 -0.00641844 0)
(0.0635497 -0.00642139 0)
(0.064978 -0.00642366 0)
(0.0664069 -0.0064252 0)
(0.0678361 -0.00642595 0)
(0.0692655 -0.00642586 0)
(0.0706948 -0.00642488 0)
(0.0721239 -0.00642293 0)
(0.0735526 -0.00641997 0)
(0.0749806 -0.00641592 0)
(0.0764076 -0.00641074 0)
(0.0778335 -0.00640434 0)
(0.0792579 -0.00639667 0)
(0.0806806 -0.00638766 0)
(0.0821012 -0.00637724 0)
(0.0835195 -0.00636535 0)
(0.084935 -0.00635191 0)
(0.0863475 -0.00633686 0)
(0.0877566 -0.00632012 0)
(0.0891618 -0.00630164 0)
(0.0905629 -0.00628132 0)
(0.0919594 -0.00625912 0)
(0.0933508 -0.00623494 0)
(0.0947367 -0.00620873 0)
(0.0961167 -0.00618041 0)
(0.0974902 -0.00614992 0)
(0.0988569 -0.00611718 0)
(0.100216 -0.00608213 0)
(0.101567 -0.00604469 0)
(0.10291 -0.00600481 0)
(0.104244 -0.00596242 0)
(0.105568 -0.00591745 0)
(0.106882 -0.00586985 0)
(0.108185 -0.00581956 0)
(0.109477 -0.00576651 0)
(0.110757 -0.00571067 0)
(0.112024 -0.00565197 0)
(0.113278 -0.00559037 0)
(0.114517 -0.00552583 0)
(0.115743 -0.00545829 0)
(0.116953 -0.00538774 0)
(0.118147 -0.00531413 0)
(0.119324 -0.00523743 0)
(0.120484 -0.00515763 0)
(0.121626 -0.00507469 0)
(0.122749 -0.00498861 0)
(0.123853 -0.00489938 0)
(0.124936 -0.00480699 0)
(0.125999 -0.00471144 0)
(0.12704 -0.00461274 0)
(0.128058 -0.0045109 0)
(0.129054 -0.00440595 0)
(0.130026 -0.00429789 0)
(0.130974 -0.00418677 0)
(0.131896 -0.00407263 0)
(0.132793 -0.00395549 0)
(0.133663 -0.00383542 0)
(0.134506 -0.00371247 0)
(0.135322 -0.00358669 0)
(0.136109 -0.00345816 0)
(0.136867 -0.00332696 0)
(0.137596 -0.00319315 0)
(0.138294 -0.00305683 0)
(0.138962 -0.00291809 0)
(0.139598 -0.00277703 0)
(0.140203 -0.00263374 0)
(0.140775 -0.00248835 0)
(0.141315 -0.00234095 0)
(0.141821 -0.00219168 0)
(0.142294 -0.00204064 0)
(0.142733 -0.00188798 0)
(0.143138 -0.00173382 0)
(0.143508 -0.0015783 0)
(0.143843 -0.00142155 0)
(0.144143 -0.00126371 0)
(0.144408 -0.00110493 0)
(0.144637 -0.000945363 0)
(0.14483 -0.000785144 0)
(0.144987 -0.000624427 0)
(0.145108 -0.00046336 0)
(0.145194 -0.000302095 0)
(0.145243 -0.000140782 0)
(0.145256 2.04291e-05 0)
(0.145233 0.000181388 0)
(0.145174 0.000341947 0)
(0.145079 0.000501959 0)