/*--------------------------------*- C++ -*----------------------------------*\
| =========                 |                                                 |
| \\      /  F ield         | OpenFOAM: The Open Source CFD Toolbox           |
|  \\    /   O peration     | Version:  v2012                                 |
|   \\  /    A nd           | Website:  www.openfoam.com                      |
|    \\/     M anipulation  |                                                 |
\*---------------------------------------------------------------------------*/
FoamFile
{
    version     2.0;
    format      ascii;
    class       surfaceScalarField;
    location    "18.5";
    object      phi;
}
// * * * * * * * * * * * * * * * * * * * * * * * * * * * * * * * * * * * * * //

dimensions      [0 3 -1 0 0 0 0];
oriented        oriented;


internalField   nonuniform List<scalar> 
130560
(
3.21247e-06
-3.21248e-06
6.4251e-06
-3.21263e-06
9.63806e-06
-3.21295e-06
1.28515e-05
-3.21343e-06
1.60656e-05
-3.21407e-06
1.92804e-05
-3.21487e-06
2.24963e-05
-3.21583e-06
2.57132e-05
-3.21695e-06
2.89314e-05
-3.21821e-06
3.21511e-05
-3.21963e-06
3.53722e-05
-3.22119e-06
3.85951e-05
-3.2229e-06
4.18199e-05
-3.22475e-06
4.50466e-05
-3.22673e-06
4.82755e-05
-3.22884e-06
5.15066e-05
-3.23109e-06
5.474e-05
-3.23345e-06
5.79759e-05
-3.23593e-06
6.12145e-05
-3.23852e-06
6.44557e-05
-3.24121e-06
6.76997e-05
-3.24401e-06
7.09466e-05
-3.24689e-06
7.41964e-05
-3.24985e-06
7.74493e-05
-3.25289e-06
8.07053e-05
-3.256e-06
8.39645e-05
-3.25916e-06
8.72268e-05
-3.26238e-06
9.04925e-05
-3.26563e-06
9.37614e-05
-3.26891e-06
9.70336e-05
-3.2722e-06
0.000100309
-3.2755e-06
0.000103588
-3.2788e-06
0.00010687
-3.28208e-06
0.000110155
-3.28533e-06
0.000113444
-3.28854e-06
0.000116736
-3.29168e-06
0.00012003
-3.29476e-06
0.000123328
-3.29774e-06
0.000126629
-3.30062e-06
0.000129932
-3.30339e-06
0.000133238
-3.30601e-06
0.000136547
-3.30848e-06
0.000139857
-3.31078e-06
0.00014317
-3.31289e-06
0.000146485
-3.31478e-06
0.000149801
-3.31644e-06
0.000153119
-3.31785e-06
0.000156438
-3.31899e-06
0.000159758
-3.31983e-06
0.000163078
-3.32035e-06
0.000166399
-3.32052e-06
0.000169719
-3.32033e-06
0.000173039
-3.31975e-06
0.000176358
-3.31874e-06
0.000179675
-3.3173e-06
0.00018299
-3.31538e-06
0.000186303
-3.31296e-06
0.000189613
-3.31002e-06
0.00019292
-3.30651e-06
0.000196222
-3.30242e-06
0.00019952
-3.29772e-06
0.000202812
-3.29237e-06
0.000206099
-3.28634e-06
0.000209378
-3.2796e-06
0.000212651
-3.27212e-06
0.000215914
-3.26386e-06
0.000219169
-3.2548e-06
0.000222414
-3.2449e-06
0.000225648
-3.23412e-06
0.000228871
-3.22243e-06
0.00023208
-3.2098e-06
0.000235277
-3.19619e-06
0.000238458
-3.18158e-06
0.000241624
-3.16592e-06
0.000244773
-3.14917e-06
0.000247905
-3.13132e-06
0.000251017
-3.11232e-06
0.000254109
-3.09214e-06
0.00025718
-3.07074e-06
0.000260228
-3.04811e-06
0.000263252
-3.02419e-06
0.000266251
-2.99896e-06
0.000269223
-2.9724e-06
0.000272168
-2.94446e-06
0.000275083
-2.91513e-06
0.000277967
-2.88438e-06
0.00028082
-2.85217e-06
0.000283638
-2.81849e-06
0.000286421
-2.78331e-06
0.000289168
-2.74661e-06
0.000291876
-2.70837e-06
0.000294545
-2.66857e-06
0.000297172
-2.6272e-06
0.000299756
-2.58423e-06
0.000302296
-2.53967e-06
0.00030479
-2.4935e-06
0.000307235
-2.4457e-06
0.000309632
-2.39629e-06
0.000311977
-2.34525e-06
0.000314269
-2.29258e-06
0.000316508
-2.2383e-06
0.00031869
-2.1824e-06
0.000320815
-2.12489e-06
0.000322881
-2.06579e-06
0.000324886
-2.00511e-06
0.000326829
-1.94288e-06
0.000328708
-1.8791e-06
0.000330522
-1.81381e-06
0.000332269
-1.74704e-06
0.000333947
-1.67881e-06
0.000335557
-1.60916e-06
0.000337095
-1.53813e-06
0.000338561
-1.46576e-06
0.000339953
-1.3921e-06
0.00034127
-1.31718e-06
0.000342511
-1.24107e-06
0.000343675
-1.16382e-06
0.00034476
-1.08548e-06
0.000345766
-1.00611e-06
0.000346692
-9.2578e-07
0.000347537
-8.44546e-07
0.000348299
-7.62478e-07
0.000348979
-6.79645e-07
0.000349575
-5.96118e-07
0.000350087
-5.11972e-07
0.000350514
-4.27281e-07
0.000350856
-3.42121e-07
0.000351113
-2.5657e-07
0.000351284
-1.70708e-07
0.000351368
-8.46129e-08
0.000351367
1.63331e-09
0.000351279
8.79515e-08
0.000351104
1.74259e-07
0.000350844
2.60476e-07
0.000350497
3.46522e-07
0.000350065
4.32316e-07
0.000349547
5.17779e-07
0.000348944
6.02833e-07
0.000348257
6.87401e-07
0.000347486
7.71407e-07
0.000346631
8.54777e-07
0.000345693
9.37438e-07
0.000344674
1.01932e-06
0.000343574
1.10035e-06
0.000342393
1.18048e-06
0.000341134
1.25962e-06
0.000339796
1.33773e-06
0.000338381
1.41474e-06
0.00033689
1.4906e-06
0.000335325
1.56526e-06
0.000333687
1.63867e-06
0.000331976
1.71078e-06
0.000330194
1.78155e-06
0.000328343
1.85094e-06
0.000326424
1.91891e-06
0.000324439
1.98543e-06
0.000322388
2.05047e-06
0.000320274
2.114e-06
0.000318098
2.176e-06
0.000315862
2.23645e-06
0.000313567
2.29533e-06
0.000311214
2.35263e-06
0.000308806
2.40834e-06
0.000306343
2.46244e-06
0.000303828
2.51494e-06
0.000301263
2.56583e-06
0.000298647
2.61511e-06
0.000295985
2.66278e-06
0.000293276
2.70886e-06
0.000290522
2.75334e-06
0.000287726
2.79624e-06
0.000284889
2.83757e-06
0.000282011
2.87734e-06
0.000279096
2.91558e-06
0.000276143
2.9523e-06
0.000273156
2.98751e-06
0.000270135
3.02125e-06
0.000267081
3.05353e-06
0.000263997
3.08438e-06
0.000260883
3.11382e-06
0.000257741
3.14189e-06
0.000254572
3.16861e-06
0.000251378
3.194e-06
0.00024816
3.21811e-06
0.000244919
3.24095e-06
0.000241657
3.26257e-06
0.000238374
3.28298e-06
0.000235072
3.30224e-06
0.000231751
3.32036e-06
0.000228414
3.33738e-06
0.000225061
3.35333e-06
0.000221692
3.36825e-06
0.00021831
3.38218e-06
0.000214915
3.39513e-06
0.000211508
3.40716e-06
0.000208089
3.41829e-06
0.000204661
3.42855e-06
0.000201223
3.43798e-06
0.000197776
3.44662e-06
0.000194322
3.45448e-06
0.00019086
3.46161e-06
0.000187392
3.46804e-06
0.000183918
3.4738e-06
0.000180439
3.47892e-06
0.000176956
3.48343e-06
0.000173469
3.48736e-06
0.000169978
3.49074e-06
0.000166484
3.4936e-06
0.000162988
3.49597e-06
0.000159491
3.49787e-06
0.000155991
3.49933e-06
0.000152491
3.50039e-06
0.00014899
3.50106e-06
0.000145488
3.50137e-06
0.000141987
3.50134e-06
0.000138486
3.50101e-06
0.000134986
3.50039e-06
0.000131486
3.4995e-06
0.000127988
3.49838e-06
0.000124491
3.49703e-06
0.000120995
3.49548e-06
0.000117501
3.49375e-06
0.00011401
3.49187e-06
0.00011052
3.48984e-06
0.000107032
3.48769e-06
0.000103547
3.48543e-06
0.000100064
3.48309e-06
9.65829e-05
3.48068e-06
9.31047e-05
3.47821e-06
8.9629e-05
3.4757e-06
8.61558e-05
3.47316e-06
8.26852e-05
3.47061e-06
7.92172e-05
3.46806e-06
7.57516e-05
3.46553e-06
7.22886e-05
3.46302e-06
6.8828e-05
3.46055e-06
6.53699e-05
3.45813e-06
6.19141e-05
3.45577e-06
5.84607e-05
3.45347e-06
5.50094e-05
3.45126e-06
5.15603e-05
3.44913e-06
4.81132e-05
3.44709e-06
4.4668e-05
3.44516e-06
4.12247e-05
3.44333e-06
3.77831e-05
3.44162e-06
3.43431e-05
3.44003e-06
3.09045e-05
3.43857e-06
2.74672e-05
3.43725e-06
2.40312e-05
3.43605e-06
2.05962e-05
3.435e-06
1.71621e-05
3.4341e-06
1.37287e-05
3.43334e-06
1.0296e-05
3.43272e-06
6.86376e-06
3.43226e-06
3.4318e-06
3.43196e-06
3.4318e-06
3.21232e-06
-6.4248e-06
6.4248e-06
-6.4251e-06
9.63759e-06
-6.42574e-06
1.28509e-05
-6.4267e-06
1.60648e-05
-6.42799e-06
1.92795e-05
-6.42959e-06
2.24952e-05
-6.43151e-06
2.5712e-05
-6.43374e-06
2.893e-05
-6.43628e-06
3.21495e-05
-6.43911e-06
3.53706e-05
-6.44224e-06
3.85933e-05
-6.44566e-06
4.18179e-05
-6.44936e-06
4.50445e-05
-6.45333e-06
4.82733e-05
-6.45756e-06
5.15042e-05
-6.46205e-06
5.47376e-05
-6.46678e-06
5.79734e-05
-6.47175e-06
6.12118e-05
-6.47694e-06
6.44529e-05
-6.48233e-06
6.76968e-05
-6.48792e-06
7.09436e-05
-6.49369e-06
7.41934e-05
-6.49963e-06
7.74462e-05
-6.50572e-06
8.07022e-05
-6.51194e-06
8.39613e-05
-6.51828e-06
8.72236e-05
-6.52471e-06
9.04892e-05
-6.53122e-06
9.37581e-05
-6.53779e-06
9.70303e-05
-6.5444e-06
0.000100306
-6.55102e-06
0.000103585
-6.55762e-06
0.000106867
-6.5642e-06
0.000110152
-6.57071e-06
0.000113441
-6.57713e-06
0.000116733
-6.58344e-06
0.000120027
-6.5896e-06
0.000123325
-6.59559e-06
0.000126626
-6.60137e-06
0.000129929
-6.60691e-06
0.000133236
-6.61218e-06
0.000136544
-6.61714e-06
0.000139855
-6.62175e-06
0.000143168
-6.62598e-06
0.000146483
-6.62979e-06
0.0001498
-6.63314e-06
0.000153118
-6.63598e-06
0.000156437
-6.63827e-06
0.000159758
-6.63997e-06
0.000163078
-6.64104e-06
0.000166399
-6.64141e-06
0.00016972
-6.64105e-06
0.00017304
-6.63991e-06
0.000176359
-6.63793e-06
0.000179677
-6.63507e-06
0.000182993
-6.63126e-06
0.000186306
-6.62645e-06
0.000189617
-6.62059e-06
0.000192924
-6.61361e-06
0.000196227
-6.60547e-06
0.000199526
-6.59609e-06
0.000202819
-6.58542e-06
0.000206106
-6.57339e-06
0.000209386
-6.55994e-06
0.000212659
-6.54501e-06
0.000215924
-6.52853e-06
0.000219179
-6.51044e-06
0.000222425
-6.49067e-06
0.00022566
-6.46914e-06
0.000228883
-6.4458e-06
0.000232094
-6.42058e-06
0.000235291
-6.3934e-06
0.000238474
-6.3642e-06
0.000241641
-6.33291e-06
0.000244791
-6.29946e-06
0.000247924
-6.26379e-06
0.000251037
-6.22582e-06
0.000254131
-6.18549e-06
0.000257203
-6.14274e-06
0.000260252
-6.09749e-06
0.000263277
-6.04968e-06
0.000266278
-5.99926e-06
0.000269251
-5.94616e-06
0.000272197
-5.89032e-06
0.000275114
-5.83169e-06
0.000278
-5.7702e-06
0.000280853
-5.70582e-06
0.000283673
-5.63848e-06
0.000286458
-5.56814e-06
0.000289206
-5.49476e-06
0.000291916
-5.41829e-06
0.000294586
-5.33871e-06
0.000297215
-5.25598e-06
0.000299801
-5.17007e-06
0.000302342
-5.08095e-06
0.000304837
-4.98861e-06
0.000307285
-4.89303e-06
0.000309683
-4.7942e-06
0.000312029
-4.69212e-06
0.000314324
-4.58679e-06
0.000316564
-4.47821e-06
0.000318748
-4.3664e-06
0.000320874
-4.25138e-06
0.000322941
-4.13316e-06
0.000324948
-4.01179e-06
0.000326893
-3.88729e-06
0.000328773
-3.75971e-06
0.000330588
-3.62911e-06
0.000332337
-3.49552e-06
0.000334017
-3.35903e-06
0.000335628
-3.2197e-06
0.000337167
-3.0776e-06
0.000338634
-2.93282e-06
0.000340028
-2.78544e-06
0.000341346
-2.63557e-06
0.000342588
-2.48329e-06
0.000343753
-2.32873e-06
0.00034484
-2.17199e-06
0.000345847
-2.01319e-06
0.000346773
-1.85246e-06
0.000347619
-1.68993e-06
0.000348382
-1.52572e-06
0.000349062
-1.35998e-06
0.000349659
-1.19286e-06
0.000350172
-1.02449e-06
0.000350599
-8.55033e-07
0.000350942
-6.84635e-07
0.000351199
-5.13455e-07
0.00035137
-3.4165e-07
0.000351454
-1.69381e-07
0.000351453
3.19372e-09
0.000351365
1.7591e-07
0.000351191
3.48606e-07
0.00035093
5.2112e-07
0.000350583
6.93292e-07
0.000350151
8.64959e-07
0.000349632
1.03596e-06
0.000349029
1.20615e-06
0.000348341
1.37536e-06
0.000347569
1.54345e-06
0.000346714
1.71026e-06
0.000345775
1.87565e-06
0.000344755
2.03948e-06
0.000343654
2.20162e-06
0.000342472
2.36193e-06
0.000341212
2.52028e-06
0.000339873
2.67655e-06
0.000338457
2.83063e-06
0.000336965
2.98241e-06
0.000335399
3.13178e-06
0.000333759
3.27864e-06
0.000332047
3.4229e-06
0.000330264
3.56448e-06
0.000328411
3.70329e-06
0.000326491
3.83926e-06
0.000324504
3.97233e-06
0.000322452
4.10244e-06
0.000320337
4.22953e-06
0.000318159
4.35355e-06
0.000315921
4.47447e-06
0.000313624
4.59225e-06
0.00031127
4.70686e-06
0.00030886
4.81828e-06
0.000306396
4.92649e-06
0.000303879
5.03149e-06
0.000301312
5.13327e-06
0.000298695
5.23182e-06
0.000296031
5.32717e-06
0.00029332
5.41931e-06
0.000290566
5.50826e-06
0.000287768
5.59405e-06
0.000284929
5.67669e-06
0.00028205
5.75623e-06
0.000279133
5.83268e-06
0.000276179
5.90609e-06
0.00027319
5.9765e-06
0.000270167
6.04395e-06
0.000267112
6.10849e-06
0.000264026
6.17017e-06
0.000260911
6.22903e-06
0.000257768
6.28513e-06
0.000254598
6.33854e-06
0.000251403
6.3893e-06
0.000248183
6.43748e-06
0.000244941
6.48313e-06
0.000241677
6.52633e-06
0.000238393
6.56713e-06
0.00023509
6.6056e-06
0.000231768
6.64181e-06
0.00022843
6.67582e-06
0.000225076
6.70769e-06
0.000221706
6.7375e-06
0.000218323
6.76532e-06
0.000214927
6.7912e-06
0.000211519
6.81522e-06
0.0002081
6.83744e-06
0.000204671
6.85794e-06
0.000201232
6.87677e-06
0.000197784
6.894e-06
0.000194329
6.9097e-06
0.000190867
6.92393e-06
0.000187398
6.93676e-06
0.000183924
6.94824e-06
0.000180444
6.95845e-06
0.00017696
6.96744e-06
0.000173472
6.97527e-06
0.000169981
6.982e-06
0.000166487
6.98769e-06
0.00016299
6.9924e-06
0.000159492
6.99618e-06
0.000155992
6.99908e-06
0.000152492
7.00116e-06
0.00014899
7.00248e-06
0.000145488
7.00307e-06
0.000141987
7.003e-06
0.000138486
7.00231e-06
0.000134985
7.00104e-06
0.000131485
6.99925e-06
0.000127987
6.99697e-06
0.000124489
6.99426e-06
0.000120994
6.99114e-06
0.0001175
6.98767e-06
0.000114008
6.98387e-06
0.000110518
6.9798e-06
0.00010703
6.97548e-06
0.000103544
6.97096e-06
0.000100061
6.96626e-06
9.65805e-05
6.96141e-06
9.31023e-05
6.95646e-06
8.96265e-05
6.95142e-06
8.61534e-05
6.94634e-06
8.26827e-05
6.94123e-06
7.92147e-05
6.93612e-06
7.57492e-05
6.93104e-06
7.22862e-05
6.92601e-06
6.88257e-05
6.92106e-06
6.53676e-05
6.91621e-06
6.19119e-05
6.91147e-06
5.84585e-05
6.90687e-06
5.50073e-05
6.90243e-06
5.15583e-05
6.89816e-06
4.81113e-05
6.89408e-06
4.46663e-05
6.89021e-06
4.1223e-05
6.88655e-06
3.77815e-05
6.88313e-06
3.43416e-05
6.87995e-06
3.09032e-05
6.87702e-06
2.74661e-05
6.87436e-06
2.40301e-05
6.87197e-06
2.05953e-05
6.86987e-06
1.71613e-05
6.86805e-06
1.37281e-05
6.86652e-06
1.02956e-05
6.8653e-06
6.86346e-06
6.86438e-06
3.43165e-06
6.86376e-06
6.86345e-06
3.21199e-06
-9.63679e-06
6.42415e-06
-9.63726e-06
9.63663e-06
-9.63822e-06
1.28496e-05
-9.63967e-06
1.60632e-05
-9.6416e-06
1.92776e-05
-9.644e-06
2.2493e-05
-9.64689e-06
2.57095e-05
-9.65024e-06
2.89272e-05
-9.65405e-06
3.21464e-05
-9.65831e-06
3.53672e-05
-9.66301e-06
3.85897e-05
-9.66814e-06
4.1814e-05
-9.6737e-06
4.50404e-05
-9.67967e-06
4.82688e-05
-9.68603e-06
5.14996e-05
-9.69278e-06
5.47327e-05
-9.69989e-06
5.79683e-05
-9.70735e-06
6.12065e-05
-9.71515e-06
6.44474e-05
-9.72326e-06
6.76911e-05
-9.73166e-06
7.09378e-05
-9.74034e-06
7.41874e-05
-9.74926e-06
7.74401e-05
-9.75842e-06
8.06959e-05
-9.76777e-06
8.3955e-05
-9.7773e-06
8.72172e-05
-9.78697e-06
9.04828e-05
-9.79677e-06
9.37516e-05
-9.80665e-06
9.70238e-05
-9.81658e-06
0.000100299
-9.82654e-06
0.000103578
-9.83648e-06
0.00010686
-9.84637e-06
0.000110146
-9.85617e-06
0.000113435
-9.86584e-06
0.000116726
-9.87534e-06
0.000120021
-9.88462e-06
0.00012332
-9.89364e-06
0.000126621
-9.90236e-06
0.000129924
-9.91071e-06
0.000133231
-9.91866e-06
0.00013654
-9.92614e-06
0.000139851
-9.93311e-06
0.000143165
-9.93951e-06
0.00014648
-9.94527e-06
0.000149797
-9.95034e-06
0.000153116
-9.95466e-06
0.000156436
-9.95815e-06
0.000159757
-9.96076e-06
0.000163078
-9.96241e-06
0.0001664
-9.96304e-06
0.000169721
-9.96256e-06
0.000173042
-9.96091e-06
0.000176362
-9.95801e-06
0.000179681
-9.95378e-06
0.000182998
-9.94814e-06
0.000186312
-9.941e-06
0.000189624
-9.93227e-06
0.000192932
-9.92189e-06
0.000196237
-9.90974e-06
0.000199536
-9.89575e-06
0.000202831
-9.87982e-06
0.000206119
-9.86186e-06
0.000209401
-9.84177e-06
0.000212675
-9.81946e-06
0.000215942
-9.79482e-06
0.000219199
-9.76776e-06
0.000222447
-9.73818e-06
0.000225683
-9.70598e-06
0.000228909
-9.67106e-06
0.000232121
-9.63331e-06
0.000235321
-9.59263e-06
0.000238505
-9.54891e-06
0.000241675
-9.50206e-06
0.000244827
-9.45198e-06
0.000247962
-9.39855e-06
0.000251078
-9.34168e-06
0.000254173
-9.28127e-06
0.000257248
-9.21722e-06
0.0002603
-9.14943e-06
0.000263328
-9.0778e-06
0.000266331
-9.00224e-06
0.000269307
-8.92266e-06
0.000272256
-8.83898e-06
0.000275176
-8.75109e-06
0.000278064
-8.65893e-06
0.000280921
-8.56241e-06
0.000283744
-8.46146e-06
0.000286532
-8.35601e-06
0.000289283
-8.24599e-06
0.000291996
-8.13134e-06
0.000294669
-8.01201e-06
0.000297301
-7.88794e-06
0.00029989
-7.7591e-06
0.000302435
-7.62545e-06
0.000304933
-7.48696e-06
0.000307384
-7.3436e-06
0.000309785
-7.19537e-06
0.000312135
-7.04224e-06
0.000314432
-6.88424e-06
0.000316676
-6.72136e-06
0.000318863
-6.55362e-06
0.000320992
-6.38105e-06
0.000323063
-6.20369e-06
0.000325073
-6.02158e-06
0.00032702
-5.83478e-06
0.000328904
-5.64335e-06
0.000330722
-5.44737e-06
0.000332474
-5.24692e-06
0.000334157
-5.0421e-06
0.00033577
-4.833e-06
0.000337312
-4.61975e-06
0.000338782
-4.40247e-06
0.000340178
-4.18128e-06
0.000341498
-3.95634e-06
0.000342743
-3.7278e-06
0.00034391
-3.49582e-06
0.000344999
-3.26056e-06
0.000346008
-3.02221e-06
0.000346936
-2.78095e-06
0.000347783
-2.53698e-06
0.000348548
-2.2905e-06
0.00034923
-2.04171e-06
0.000349828
-1.79084e-06
0.000350341
-1.5381e-06
0.00035077
-1.28372e-06
0.000351113
-1.02793e-06
0.000351371
-7.70966e-07
0.000351542
-5.1306e-07
0.000351627
-2.54454e-07
0.000351626
4.61024e-09
0.000351538
2.63885e-07
0.000351363
5.23132e-07
0.000351102
7.82105e-07
0.000350755
1.04056e-06
0.000350322
1.29826e-06
0.000349803
1.55497e-06
0.000349198
1.81044e-06
0.000348509
2.06444e-06
0.000347736
2.31676e-06
0.000346879
2.56716e-06
0.000345939
2.81542e-06
0.000344917
3.06134e-06
0.000343814
3.30471e-06
0.000342631
3.54533e-06
0.000341368
3.78301e-06
0.000340027
4.01756e-06
0.000338609
4.24882e-06
0.000337115
4.47662e-06
0.000335546
4.70079e-06
0.000333903
4.9212e-06
0.000332188
5.1377e-06
0.000330403
5.35017e-06
0.000328548
5.55848e-06
0.000326624
5.76252e-06
0.000324634
5.9622e-06
0.000322579
6.15742e-06
0.000320461
6.34812e-06
0.00031828
6.5342e-06
0.000316039
6.71562e-06
0.000313739
6.89232e-06
0.000311382
7.06427e-06
0.000308968
7.23142e-06
0.000306501
7.39375e-06
0.000303981
7.55125e-06
0.000301411
7.70392e-06
0.000298791
7.85175e-06
0.000296123
7.99475e-06
0.00029341
8.13294e-06
0.000290652
8.26635e-06
0.000287851
8.395e-06
0.000285008
8.51893e-06
0.000282126
8.63819e-06
0.000279206
8.75282e-06
0.000276249
8.86289e-06
0.000273258
8.96845e-06
0.000270232
9.06957e-06
0.000267174
9.16632e-06
0.000264085
9.25876e-06
0.000260968
9.34699e-06
0.000257822
9.43108e-06
0.000254649
9.51111e-06
0.000251451
9.58718e-06
0.000248229
9.65937e-06
0.000244985
9.72777e-06
0.000241718
9.79249e-06
0.000238432
9.85361e-06
0.000235126
9.91124e-06
0.000231803
9.96546e-06
0.000228462
1.00164e-05
0.000225106
1.00641e-05
0.000221734
1.01088e-05
0.000218349
1.01504e-05
0.000214951
1.01891e-05
0.000211542
1.02251e-05
0.000208121
1.02583e-05
0.00020469
1.0289e-05
0.000201249
1.03171e-05
0.0001978
1.03429e-05
0.000194344
1.03664e-05
0.00019088
1.03877e-05
0.00018741
1.04068e-05
0.000183934
1.0424e-05
0.000180453
1.04392e-05
0.000176968
1.04526e-05
0.000173479
1.04643e-05
0.000169987
1.04743e-05
0.000166492
1.04828e-05
0.000162994
1.04898e-05
0.000159495
1.04954e-05
0.000155995
1.04997e-05
0.000152493
1.05027e-05
0.000148991
1.05046e-05
0.000145489
1.05055e-05
0.000141986
1.05053e-05
0.000138484
1.05042e-05
0.000134983
1.05022e-05
0.000131483
1.04995e-05
0.000127984
1.0496e-05
0.000124486
1.04919e-05
0.00012099
1.04872e-05
0.000117496
1.04819e-05
0.000114004
1.04762e-05
0.000110514
1.047e-05
0.000107026
1.04635e-05
0.00010354
1.04567e-05
0.000100057
1.04496e-05
9.65757e-05
1.04423e-05
9.30974e-05
1.04348e-05
8.96216e-05
1.04272e-05
8.61484e-05
1.04195e-05
8.26778e-05
1.04118e-05
7.92098e-05
1.04041e-05
7.57443e-05
1.03965e-05
7.22814e-05
1.03889e-05
6.8821e-05
1.03815e-05
6.5363e-05
1.03742e-05
6.19074e-05
1.0367e-05
5.84542e-05
1.03601e-05
5.50032e-05
1.03534e-05
5.15543e-05
1.0347e-05
4.81075e-05
1.03409e-05
4.46627e-05
1.0335e-05
4.12197e-05
1.03295e-05
3.77784e-05
1.03244e-05
3.43388e-05
1.03196e-05
3.09006e-05
1.03152e-05
2.74637e-05
1.03112e-05
2.40281e-05
1.03076e-05
2.05935e-05
1.03044e-05
1.71598e-05
1.03017e-05
1.37269e-05
1.02994e-05
1.02947e-05
1.02976e-05
6.86285e-06
1.02962e-05
3.43135e-06
1.02953e-05
1.02948e-05
3.21151e-06
-1.28483e-05
6.42319e-06
-1.28489e-05
9.63519e-06
-1.28502e-05
1.28477e-05
-1.28522e-05
1.60608e-05
-1.28547e-05
1.92748e-05
-1.28579e-05
2.24897e-05
-1.28618e-05
2.57057e-05
-1.28663e-05
2.8923e-05
-1.28714e-05
3.21418e-05
-1.28771e-05
3.53621e-05
-1.28833e-05
3.85842e-05
-1.28902e-05
4.18081e-05
-1.28976e-05
4.50341e-05
-1.29056e-05
4.82622e-05
-1.29141e-05
5.14925e-05
-1.29231e-05
5.47253e-05
-1.29326e-05
5.79606e-05
-1.29426e-05
6.11985e-05
-1.2953e-05
6.44391e-05
-1.29639e-05
6.76826e-05
-1.29751e-05
7.0929e-05
-1.29867e-05
7.41784e-05
-1.29987e-05
7.74309e-05
-1.30109e-05
8.06865e-05
-1.30234e-05
8.39454e-05
-1.30362e-05
8.72075e-05
-1.30491e-05
9.0473e-05
-1.30622e-05
9.37418e-05
-1.30755e-05
9.7014e-05
-1.30888e-05
0.00010029
-1.31021e-05
0.000103568
-1.31154e-05
0.000106851
-1.31286e-05
0.000110136
-1.31418e-05
0.000113425
-1.31547e-05
0.000116717
-1.31675e-05
0.000120013
-1.31799e-05
0.000123311
-1.3192e-05
0.000126612
-1.32037e-05
0.000129917
-1.32149e-05
0.000133223
-1.32256e-05
0.000136533
-1.32357e-05
0.000139845
-1.3245e-05
0.000143159
-1.32537e-05
0.000146475
-1.32614e-05
0.000149793
-1.32683e-05
0.000153113
-1.32742e-05
0.000156433
-1.32789e-05
0.000159755
-1.32825e-05
0.000163078
-1.32848e-05
0.0001664
-1.32858e-05
0.000169723
-1.32853e-05
0.000173045
-1.32832e-05
0.000176367
-1.32794e-05
0.000179687
-1.32739e-05
0.000183005
-1.32665e-05
0.000186321
-1.32571e-05
0.000189635
-1.32456e-05
0.000192945
-1.32319e-05
0.000196251
-1.32159e-05
0.000199552
-1.31974e-05
0.000202849
-1.31763e-05
0.00020614
-1.31525e-05
0.000209424
-1.31258e-05
0.0002127
-1.30962e-05
0.000215969
-1.30635e-05
0.000219229
-1.30276e-05
0.000222479
-1.29883e-05
0.000225719
-1.29456e-05
0.000228947
-1.28991e-05
0.000232162
-1.2849e-05
0.000235365
-1.27949e-05
0.000238552
-1.27368e-05
0.000241725
-1.26745e-05
0.000244881
-1.26078e-05
0.000248019
-1.25368e-05
0.000251138
-1.24611e-05
0.000254238
-1.23807e-05
0.000257316
-1.22954e-05
0.000260372
-1.22052e-05
0.000263404
-1.21098e-05
0.000266411
-1.20092e-05
0.000269391
-1.19033e-05
0.000272344
-1.17918e-05
0.000275268
-1.16748e-05
0.000278161
-1.1552e-05
0.000281022
-1.14234e-05
0.00028385
-1.12889e-05
0.000286642
-1.11484e-05
0.000289398
-1.10018e-05
0.000292116
-1.08491e-05
0.000294794
-1.069e-05
0.00029743
-1.05247e-05
0.000300024
-1.03529e-05
0.000302574
-1.01748e-05
0.000305077
-9.99017e-06
0.000307532
-9.79905e-06
0.000309938
-9.60141e-06
0.000312293
-9.39725e-06
0.000314596
-9.18656e-06
0.000316844
-8.96936e-06
0.000319036
-8.74566e-06
0.00032117
-8.51552e-06
0.000323245
-8.27897e-06
0.00032526
-8.03607e-06
0.000327212
-7.7869e-06
0.0003291
-7.53155e-06
0.000330923
-7.27011e-06
0.000332679
-7.00269e-06
0.000334366
-6.72943e-06
0.000335983
-6.45046e-06
0.00033753
-6.16593e-06
0.000339003
-5.87601e-06
0.000340403
-5.58088e-06
0.000341727
-5.28073e-06
0.000342975
-4.97575e-06
0.000344145
-4.66617e-06
0.000345237
-4.35222e-06
0.000346249
-4.03413e-06
0.00034718
-3.71215e-06
0.00034803
-3.38654e-06
0.000348797
-3.05757e-06
0.000349481
-2.72553e-06
0.000350081
-2.39069e-06
0.000350596
-2.05336e-06
0.000351026
-1.71383e-06
0.00035137
-1.37241e-06
0.000351629
-1.02942e-06
0.000351801
-6.85171e-07
0.000351886
-3.39987e-07
0.000351885
5.80952e-09
0.000351797
3.51888e-07
0.000351622
6.97928e-07
0.000351361
1.0436e-06
0.000351013
1.38859e-06
0.000350579
1.73256e-06
0.000350058
2.0752e-06
0.000349453
2.41618e-06
0.000348762
2.75521e-06
0.000347987
3.09198e-06
0.000347128
3.42618e-06
0.000346186
3.75753e-06
0.000345161
4.08574e-06
0.000344055
4.41054e-06
0.000342869
4.73166e-06
0.000341603
5.04885e-06
0.000340259
5.36187e-06
0.000338837
5.67047e-06
0.000337339
5.97444e-06
0.000335767
6.27357e-06
0.00033412
6.56767e-06
0.000332401
6.85653e-06
0.000330611
7.14e-06
0.000328752
7.41792e-06
0.000326824
7.69014e-06
0.00032483
7.95652e-06
0.000322771
8.21694e-06
0.000320647
8.47131e-06
0.000318462
8.71951e-06
0.000316216
8.96149e-06
0.000313911
9.19716e-06
0.000311549
9.42646e-06
0.000309131
9.64937e-06
0.000306659
9.86584e-06
0.000304134
1.00759e-05
0.000301559
1.02794e-05
0.000298934
1.04765e-05
0.000296262
1.06671e-05
0.000293543
1.08514e-05
0.000290781
1.10292e-05
0.000287975
1.12007e-05
0.000285128
1.13658e-05
0.000282241
1.15248e-05
0.000279317
1.16775e-05
0.000276355
1.18242e-05
0.000273359
1.19648e-05
0.000270329
1.20996e-05
0.000267267
1.22284e-05
0.000264174
1.23516e-05
0.000261052
1.24691e-05
0.000257902
1.25811e-05
0.000254725
1.26876e-05
0.000251524
1.27889e-05
0.000248298
1.2885e-05
0.00024505
1.29761e-05
0.00024178
1.30622e-05
0.00023849
1.31436e-05
0.000235181
1.32203e-05
0.000231854
1.32924e-05
0.00022851
1.33602e-05
0.000225151
1.34237e-05
0.000221776
1.3483e-05
0.000218388
1.35384e-05
0.000214988
1.35899e-05
0.000211575
1.36376e-05
0.000208152
1.36818e-05
0.000204718
1.37225e-05
0.000201275
1.37599e-05
0.000197824
1.37941e-05
0.000194365
1.38253e-05
0.000190899
1.38535e-05
0.000187427
1.38789e-05
0.00018395
1.39016e-05
0.000180467
1.39218e-05
0.00017698
1.39395e-05
0.00017349
1.39549e-05
0.000169996
1.39682e-05
0.000166499
1.39793e-05
0.000163
1.39885e-05
0.0001595
1.39959e-05
0.000155998
1.40015e-05
0.000152495
1.40054e-05
0.000148992
1.40078e-05
0.000145489
1.40088e-05
0.000141986
1.40085e-05
0.000138483
1.40069e-05
0.000134981
1.40042e-05
0.00013148
1.40004e-05
0.00012798
1.39957e-05
0.000124482
1.39901e-05
0.000120985
1.39837e-05
0.000117491
1.39766e-05
0.000113998
1.39689e-05
0.000110507
1.39606e-05
0.000107019
1.39518e-05
0.000103533
1.39426e-05
0.00010005
1.39331e-05
9.65685e-05
1.39233e-05
9.30901e-05
1.39133e-05
8.96142e-05
1.39031e-05
8.6141e-05
1.38928e-05
8.26703e-05
1.38825e-05
7.92024e-05
1.38721e-05
7.5737e-05
1.38619e-05
7.22741e-05
1.38517e-05
6.88139e-05
1.38418e-05
6.53561e-05
1.3832e-05
6.19007e-05
1.38224e-05
5.84477e-05
1.38131e-05
5.49969e-05
1.38042e-05
5.15483e-05
1.37956e-05
4.81018e-05
1.37874e-05
4.46573e-05
1.37796e-05
4.12147e-05
1.37722e-05
3.77738e-05
1.37653e-05
3.43345e-05
1.37589e-05
3.08967e-05
1.3753e-05
2.74602e-05
1.37476e-05
2.4025e-05
1.37428e-05
2.05908e-05
1.37386e-05
1.71576e-05
1.37349e-05
1.37251e-05
1.37319e-05
1.02933e-05
1.37294e-05
6.86195e-06
1.37276e-05
3.43089e-06
1.37263e-05
1.37257e-05
3.21087e-06
-1.60592e-05
6.4219e-06
-1.606e-05
9.63326e-06
-1.60616e-05
1.28451e-05
-1.6064e-05
1.60576e-05
-1.60672e-05
1.92709e-05
-1.60713e-05
2.24852e-05
-1.60761e-05
2.57007e-05
-1.60817e-05
2.89174e-05
-1.60881e-05
3.21356e-05
-1.60952e-05
3.53553e-05
-1.61031e-05
3.85768e-05
-1.61117e-05
4.18002e-05
-1.6121e-05
4.50257e-05
-1.6131e-05
4.82532e-05
-1.61417e-05
5.14831e-05
-1.6153e-05
5.47154e-05
-1.61649e-05
5.79502e-05
-1.61775e-05
6.11877e-05
-1.61905e-05
6.4428e-05
-1.62041e-05
6.76711e-05
-1.62182e-05
7.09171e-05
-1.62328e-05
7.41663e-05
-1.62478e-05
7.74185e-05
-1.62631e-05
8.06739e-05
-1.62789e-05
8.39326e-05
-1.62949e-05
8.71946e-05
-1.63111e-05
9.04599e-05
-1.63276e-05
9.37287e-05
-1.63442e-05
9.70008e-05
-1.63609e-05
0.000100276
-1.63776e-05
0.000103555
-1.63944e-05
0.000106838
-1.6411e-05
0.000110124
-1.64275e-05
0.000113413
-1.64439e-05
0.000116705
-1.64599e-05
0.000120001
-1.64755e-05
0.000123299
-1.64908e-05
0.000126601
-1.65055e-05
0.000129906
-1.65197e-05
0.000133214
-1.65332e-05
0.000136524
-1.65459e-05
0.000139837
-1.65577e-05
0.000143152
-1.65687e-05
0.000146469
-1.65785e-05
0.000149788
-1.65873e-05
0.000153108
-1.65948e-05
0.00015643
-1.66009e-05
0.000159753
-1.66055e-05
0.000163077
-1.66086e-05
0.000166401
-1.661e-05
0.000169725
-1.66095e-05
0.000173049
-1.66071e-05
0.000176373
-1.66026e-05
0.000179695
-1.65959e-05
0.000183015
-1.65869e-05
0.000186333
-1.65754e-05
0.000189649
-1.65612e-05
0.000192961
-1.65443e-05
0.00019627
-1.65245e-05
0.000199574
-1.65015e-05
0.000202873
-1.64754e-05
0.000206166
-1.64459e-05
0.000209453
-1.64128e-05
0.000212733
-1.63761e-05
0.000216005
-1.63355e-05
0.000219268
-1.62908e-05
0.000222522
-1.6242e-05
0.000225765
-1.61888e-05
0.000228997
-1.6131e-05
0.000232217
-1.60685e-05
0.000235423
-1.60012e-05
0.000238615
-1.59288e-05
0.000241792
-1.58512e-05
0.000244952
-1.57681e-05
0.000248095
-1.56795e-05
0.000251219
-1.55852e-05
0.000254323
-1.5485e-05
0.000257407
-1.53787e-05
0.000260467
-1.52661e-05
0.000263505
-1.51471e-05
0.000266517
-1.50216e-05
0.000269503
-1.48894e-05
0.000272462
-1.47503e-05
0.000275391
-1.46042e-05
0.00027829
-1.44509e-05
0.000281157
-1.42904e-05
0.00028399
-1.41224e-05
0.000286789
-1.3947e-05
0.000289551
-1.37639e-05
0.000292275
-1.3573e-05
0.000294959
-1.33744e-05
0.000297602
-1.31678e-05
0.000300203
-1.29532e-05
0.000302758
-1.27306e-05
0.000305268
-1.24999e-05
0.00030773
-1.2261e-05
0.000310143
-1.2014e-05
0.000312504
-1.17588e-05
0.000314813
-1.14954e-05
0.000317068
-1.12238e-05
0.000319266
-1.09442e-05
0.000321407
-1.06564e-05
0.000323488
-1.03606e-05
0.000325509
-1.00568e-05
0.000327468
-9.7452e-06
0.000329362
-9.42582e-06
0.000331191
-9.09881e-06
0.000332952
-8.76431e-06
0.000334645
-8.42247e-06
0.000336268
-8.07347e-06
0.00033782
-7.7175e-06
0.000339299
-7.35477e-06
0.000340703
-6.9855e-06
0.000342032
-6.60992e-06
0.000343285
-6.2283e-06
0.00034446
-5.8409e-06
0.000345555
-5.44802e-06
0.000346571
-5.04993e-06
0.000347506
-4.64697e-06
0.000348359
-4.23946e-06
0.000349129
-3.82773e-06
0.000349816
-3.41214e-06
0.000350418
-2.99304e-06
0.000350936
-2.57081e-06
0.000351368
-2.14582e-06
0.000351714
-1.71846e-06
0.000351973
-1.28913e-06
0.000352146
-8.5822e-07
0.000352232
-4.26136e-07
0.000352232
6.71857e-09
0.000352144
4.39926e-07
0.000351968
8.73086e-07
0.000351706
1.30579e-06
0.000351357
1.73762e-06
0.000350922
2.16818e-06
0.0003504
2.59707e-06
0.000349792
3.02388e-06
0.000349099
3.44824e-06
0.000348321
3.86976e-06
0.000347459
4.28806e-06
0.000346514
4.70277e-06
0.000345486
5.11355e-06
0.000344377
5.52004e-06
0.000343186
5.92192e-06
0.000341916
6.31887e-06
0.000340568
6.71057e-06
0.000339141
7.09674e-06
0.000337639
7.4771e-06
0.000336061
7.85138e-06
0.000334409
8.21935e-06
0.000332685
8.58075e-06
0.00033089
8.93539e-06
0.000329025
9.28306e-06
0.000327091
9.62358e-06
0.000325091
9.95678e-06
0.000323025
1.02825e-05
0.000320896
1.06006e-05
0.000318704
1.09111e-05
0.000316452
1.12137e-05
0.000314141
1.15083e-05
0.000311773
1.17951e-05
0.000309348
1.20738e-05
0.00030687
1.23444e-05
0.000304339
1.26069e-05
0.000301757
1.28613e-05
0.000299125
1.31077e-05
0.000296447
1.3346e-05
0.000293722
1.35762e-05
0.000290953
1.37984e-05
0.000288141
1.40126e-05
0.000285287
1.4219e-05
0.000282395
1.44175e-05
0.000279464
1.46083e-05
0.000276497
1.47915e-05
0.000273494