/*--------------------------------*- C++ -*----------------------------------*\
| =========                 |                                                 |
| \\      /  F ield         | OpenFOAM: The Open Source CFD Toolbox           |
|  \\    /   O peration     | Version:  v2012                                 |
|   \\  /    A nd           | Website:  www.openfoam.com                      |
|    \\/     M anipulation  |                                                 |
\*---------------------------------------------------------------------------*/
FoamFile
{
    version     2.0;
    format      ascii;
    class       volVectorField;
    location    "18.5";
    object      U;
}
// * * * * * * * * * * * * * * * * * * * * * * * * * * * * * * * * * * * * * //

dimensions      [0 1 -1 0 0 0 0];


internalField   nonuniform List<vector> 
65536
(
(0.000654428 -0.000654457 0)
(0.00196334 -0.000654484 0)
(0.00327233 -0.000654554 0)
(0.00458147 -0.000654653 0)
(0.00589086 -0.000654784 0)
(0.00720054 -0.000654948 0)
(0.00851057 -0.000655143 0)
(0.00982103 -0.00065537 0)
(0.011132 -0.000655628 0)
(0.0124435 -0.000655916 0)
(0.0137556 -0.000656234 0)
(0.0150683 -0.000656582 0)
(0.0163818 -0.000656958 0)
(0.0176961 -0.000657362 0)
(0.0190112 -0.000657792 0)
(0.0203272 -0.000658249 0)
(0.0216441 -0.00065873 0)
(0.022962 -0.000659235 0)
(0.024281 -0.000659762 0)
(0.025601 -0.000660311 0)
(0.0269222 -0.000660879 0)
(0.0282445 -0.000661466 0)
(0.029568 -0.00066207 0)
(0.0308927 -0.000662688 0)
(0.0322187 -0.000663321 0)
(0.0335459 -0.000663965 0)
(0.0348745 -0.000664619 0)
(0.0362044 -0.000665281 0)
(0.0375356 -0.000665948 0)
(0.0388681 -0.000666619 0)
(0.040202 -0.000667291 0)
(0.0415372 -0.000667963 0)
(0.0428738 -0.00066863 0)
(0.0442117 -0.000669291 0)
(0.0455509 -0.000669943 0)
(0.0468914 -0.000670584 0)
(0.0482332 -0.000671209 0)
(0.0495762 -0.000671817 0)
(0.0509205 -0.000672403 0)
(0.0522658 -0.000672965 0)
(0.0536123 -0.000673499 0)
(0.0549598 -0.000674001 0)
(0.0563083 -0.000674468 0)
(0.0576577 -0.000674897 0)
(0.0590079 -0.000675281 0)
(0.0603588 -0.000675619 0)
(0.0617104 -0.000675905 0)
(0.0630624 -0.000676135 0)
(0.0644149 -0.000676305 0)
(0.0657677 -0.00067641 0)
(0.0671206 -0.000676444 0)
(0.0684735 -0.000676404 0)
(0.0698262 -0.000676284 0)
(0.0711786 -0.000676078 0)
(0.0725306 -0.000675782 0)
(0.0738818 -0.00067539 0)
(0.0752322 -0.000674896 0)
(0.0765814 -0.000674295 0)
(0.0779294 -0.00067358 0)
(0.0792758 -0.000672745 0)
(0.0806205 -0.000671785 0)
(0.081963 -0.000670694 0)
(0.0833033 -0.000669464 0)
(0.084641 -0.000668089 0)
(0.0859758 -0.000666564 0)
(0.0873074 -0.00066488 0)
(0.0886354 -0.000663032 0)
(0.0899596 -0.000661013 0)
(0.0912796 -0.000658815 0)
(0.092595 -0.000656433 0)
(0.0939054 -0.000653858 0)
(0.0952106 -0.000651085 0)
(0.0965099 -0.000648105 0)
(0.0978031 -0.000644913 0)
(0.0990897 -0.000641501 0)
(0.100369 -0.000637862 0)
(0.101641 -0.00063399 0)
(0.102905 -0.000629877 0)
(0.104161 -0.000625517 0)
(0.105408 -0.000620903 0)
(0.106645 -0.000616029 0)
(0.107872 -0.000610889 0)
(0.109089 -0.000605476 0)
(0.110294 -0.000599783 0)
(0.111488 -0.000593807 0)
(0.11267 -0.00058754 0)
(0.113838 -0.000580978 0)
(0.114994 -0.000574115 0)
(0.116135 -0.000566948 0)
(0.117262 -0.00055947 0)
(0.118373 -0.000551679 0)
(0.119469 -0.000543571 0)
(0.120548 -0.000535141 0)
(0.12161 -0.000526388 0)
(0.122654 -0.00051731 0)
(0.123679 -0.000507903 0)
(0.124685 -0.000498167 0)
(0.125672 -0.0004881 0)
(0.126638 -0.000477702 0)
(0.127583 -0.000466974 0)
(0.128506 -0.000455915 0)
(0.129407 -0.000444528 0)
(0.130285 -0.000432813 0)
(0.131139 -0.000420774 0)
(0.131968 -0.000408414 0)
(0.132772 -0.000395736 0)
(0.133551 -0.000382745 0)
(0.134304 -0.000369446 0)
(0.135029 -0.000355844 0)
(0.135727 -0.000341947 0)
(0.136397 -0.00032776 0)
(0.137039 -0.000313292 0)
(0.137651 -0.000298552 0)
(0.138233 -0.000283547 0)
(0.138785 -0.000268289 0)
(0.139306 -0.000252787 0)
(0.139796 -0.000237052 0)
(0.140255 -0.000221096 0)
(0.140681 -0.00020493 0)
(0.141075 -0.000188568 0)
(0.141435 -0.000172023 0)
(0.141763 -0.000155307 0)
(0.142057 -0.000138436 0)
(0.142317 -0.000121424 0)
(0.142542 -0.000104286 0)
(0.142734 -8.70366e-05 0)
(0.142891 -6.96919e-05 0)
(0.143013 -5.22677e-05 0)
(0.1431 -3.47799e-05 0)
(0.143152 -1.72448e-05 0)
(0.143169 3.21268e-07 0)
(0.14315 1.79016e-05 0)
(0.143097 3.54799e-05 0)
(0.143009 5.30399e-05 0)
(0.142885 7.05649e-05 0)
(0.142726 8.80388e-05 0)
(0.142533 0.000105445 0)
(0.142304 0.000122769 0)
(0.142041 0.000139993 0)
(0.141744 0.000157103 0)
(0.141413 0.000174083 0)
(0.141048 0.000190919 0)
(0.140649 0.000207596 0)
(0.140217 0.000224102 0)
(0.139752 0.000240421 0)
(0.139255 0.000256541 0)
(0.138726 0.00027245 0)
(0.138165 0.000288136 0)
(0.137573 0.000303588 0)
(0.13695 0.000318795 0)
(0.136298 0.000333748 0)
(0.135615 0.000348436 0)
(0.134903 0.00036285 0)
(0.134163 0.000376984 0)
(0.133395 0.000390829 0)
(0.1326 0.000404379 0)
(0.131777 0.000417628 0)
(0.130929 0.000430569 0)
(0.130055 0.000443199 0)
(0.129156 0.000455513 0)
(0.128232 0.000467508 0)
(0.127285 0.00047918 0)
(0.126315 0.000490528 0)
(0.125323 0.00050155 0)
(0.124309 0.000512245 0)
(0.123273 0.000522612 0)
(0.122218 0.000532652 0)
(0.121142 0.000542364 0)
(0.120048 0.000551751 0)
(0.118935 0.000560813 0)
(0.117804 0.000569553 0)
(0.116656 0.000577974 0)
(0.115492 0.000586078 0)
(0.114312 0.000593868 0)
(0.113116 0.000601349 0)
(0.111906 0.000608524 0)
(0.110682 0.000615398 0)
(0.109444 0.000621976 0)
(0.108193 0.000628262 0)
(0.106931 0.000634262 0)
(0.105656 0.000639981 0)
(0.10437 0.000645425 0)
(0.103074 0.0006506 0)
(0.101768 0.000655512 0)
(0.100452 0.000660168 0)
(0.0991267 0.000664572 0)
(0.0977931 0.000668734 0)
(0.0964515 0.000672657 0)
(0.0951022 0.00067635 0)
(0.0937458 0.000679819 0)
(0.0923827 0.000683071 0)
(0.0910132 0.000686113 0)
(0.089638 0.000688951 0)
(0.0882572 0.000691593 0)
(0.0868713 0.000694044 0)
(0.0854808 0.000696313 0)
(0.0840859 0.000698406 0)
(0.0826869 0.000700329 0)
(0.0812843 0.000702089 0)
(0.0798784 0.000703693 0)
(0.0784694 0.000705147 0)
(0.0770576 0.000706459 0)
(0.0756433 0.000707634 0)
(0.0742269 0.000708678 0)
(0.0728085 0.000709598 0)
(0.0713883 0.0007104 0)
(0.0699667 0.00071109 0)
(0.0685438 0.000711674 0)
(0.0671199 0.000712158 0)
(0.065695 0.000712547 0)
(0.0642695 0.000712847 0)
(0.0628435 0.000713063 0)
(0.0614172 0.0007132 0)
(0.0599906 0.000713265 0)
(0.058564 0.000713261 0)
(0.0571374 0.000713194 0)
(0.0557111 0.000713069 0)
(0.0542851 0.000712889 0)
(0.0528594 0.000712661 0)
(0.0514343 0.000712387 0)
(0.0500098 0.000712073 0)
(0.048586 0.000711722 0)
(0.0471628 0.000711338 0)
(0.0457405 0.000710926 0)
(0.0443191 0.000710489 0)
(0.0428985 0.000710031 0)
(0.0414789 0.000709554 0)
(0.0400602 0.000709063 0)
(0.0386426 0.000708561 0)
(0.0372259 0.00070805 0)
(0.0358103 0.000707534 0)
(0.0343957 0.000707015 0)
(0.0329822 0.000706497 0)
(0.0315697 0.000705982 0)
(0.0301582 0.000705471 0)
(0.0287478 0.000704969 0)
(0.0273383 0.000704476 0)
(0.0259298 0.000703995 0)
(0.0245223 0.000703528 0)
(0.0231157 0.000703077 0)
(0.02171 0.000702643 0)
(0.0203051 0.000702229 0)
(0.018901 0.000701835 0)
(0.0174977 0.000701464 0)
(0.0160952 0.000701116 0)
(0.0146933 0.000700793 0)
(0.013292 0.000700495 0)
(0.0118913 0.000700225 0)
(0.0104911 0.000699982 0)
(0.00909131 0.000699768 0)
(0.00769196 0.000699584 0)
(0.00629295 0.000699429 0)
(0.00489423 0.000699304 0)
(0.00349572 0.000699211 0)
(0.00209738 0.000699148 0)
(0.000699121 0.000699116 0)
(0.0006544 -0.00196331 0)
(0.00196324 -0.00196341 0)
(0.00327216 -0.00196361 0)
(0.00458125 -0.00196391 0)
(0.00589057 -0.0019643 0)
(0.00720019 -0.00196479 0)
(0.00851016 -0.00196538 0)
(0.00982056 -0.00196606 0)
(0.0111314 -0.00196683 0)
(0.0124429 -0.0019677 0)
(0.0137549 -0.00196865 0)
(0.0150676 -0.0019697 0)
(0.0163811 -0.00197083 0)
(0.0176953 -0.00197204 0)
(0.0190103 -0.00197333 0)
(0.0203263 -0.0019747 0)
(0.0216432 -0.00197614 0)
(0.022961 -0.00197766 0)
(0.0242799 -0.00197924 0)
(0.0255999 -0.00198089 0)
(0.026921 -0.0019826 0)
(0.0282433 -0.00198436 0)
(0.0295668 -0.00198617 0)
(0.0308915 -0.00198803 0)
(0.0322174 -0.00198993 0)
(0.0335446 -0.00199186 0)
(0.0348732 -0.00199383 0)
(0.036203 -0.00199581 0)
(0.0375342 -0.00199782 0)
(0.0388668 -0.00199983 0)
(0.0402007 -0.00200185 0)
(0.0415359 -0.00200387 0)
(0.0428725 -0.00200587 0)
(0.0442104 -0.00200786 0)
(0.0455496 -0.00200982 0)
(0.0468902 -0.00201174 0)
(0.048232 -0.00201362 0)
(0.0495751 -0.00201545 0)
(0.0509193 -0.00201721 0)
(0.0522648 -0.0020189 0)
(0.0536113 -0.00202051 0)
(0.0549589 -0.00202202 0)
(0.0563074 -0.00202342 0)
(0.0576569 -0.00202471 0)
(0.0590072 -0.00202587 0)
(0.0603582 -0.00202688 0)
(0.0617099 -0.00202775 0)
(0.063062 -0.00202844 0)
(0.0644147 -0.00202896 0)
(0.0657675 -0.00202927 0)
(0.0671206 -0.00202938 0)
(0.0684736 -0.00202927 0)
(0.0698266 -0.00202891 0)
(0.0711792 -0.0020283 0)
(0.0725313 -0.00202742 0)
(0.0738827 -0.00202625 0)
(0.0752333 -0.00202477 0)
(0.0765828 -0.00202297 0)
(0.077931 -0.00202083 0)
(0.0792776 -0.00201834 0)
(0.0806225 -0.00201546 0)
(0.0819654 -0.00201219 0)
(0.083306 -0.00200851 0)
(0.0846439 -0.00200439 0)
(0.085979 -0.00199982 0)
(0.0873109 -0.00199478 0)
(0.0886393 -0.00198924 0)
(0.0899638 -0.00198319 0)
(0.0912842 -0.0019766 0)
(0.0926 -0.00196946 0)
(0.0939108 -0.00196175 0)
(0.0952163 -0.00195343 0)
(0.0965161 -0.0019445 0)
(0.0978098 -0.00193493 0)
(0.0990968 -0.0019247 0)
(0.100377 -0.00191379 0)
(0.101649 -0.00190218 0)
(0.102914 -0.00188985 0)
(0.10417 -0.00187677 0)
(0.105417 -0.00186294 0)
(0.106655 -0.00184832 0)
(0.107883 -0.00183291 0)
(0.1091 -0.00181667 0)
(0.110306 -0.0017996 0)
(0.1115 -0.00178168 0)
(0.112682 -0.00176288 0)
(0.113852 -0.0017432 0)
(0.115008 -0.00172262 0)
(0.11615 -0.00170112 0)
(0.117277 -0.00167869 0)
(0.118389 -0.00165532 0)
(0.119485 -0.001631 0)
(0.120565 -0.00160571 0)
(0.121627 -0.00157946 0)
(0.122672 -0.00155222 0)
(0.123698 -0.001524 0)
(0.124705 -0.0014948 0)
(0.125693 -0.0014646 0)
(0.126659 -0.0014334 0)
(0.127605 -0.00140122 0)
(0.128529 -0.00136804 0)
(0.12943 -0.00133387 0)
(0.130308 -0.00129873 0)
(0.131163 -0.00126261 0)
(0.131993 -0.00122552 0)
(0.132798 -0.00118749 0)
(0.133578 -0.00114851 0)
(0.134331 -0.0011086 0)
(0.135057 -0.00106779 0)
(0.135755 -0.00102609 0)
(0.136426 -0.000983524 0)
(0.137068 -0.000940112 0)
(0.13768 -0.000895881 0)
(0.138263 -0.000850858 0)
(0.138816 -0.000805073 0)
(0.139338 -0.000758555 0)
(0.139828 -0.000711339 0)
(0.140287 -0.000663458 0)
(0.140714 -0.000614948 0)
(0.141108 -0.000565849 0)
(0.141469 -0.000516199 0)
(0.141796 -0.000466039 0)
(0.142091 -0.000415411 0)
(0.142351 -0.00036436 0)
(0.142577 -0.00031293 0)
(0.142769 -0.000261166 0)
(0.142925 -0.000209117 0)
(0.143048 -0.000156828 0)
(0.143135 -0.000104348 0)
(0.143187 -5.17268e-05 0)
(0.143204 9.87488e-07 0)
(0.143186 5.3745e-05 0)
(0.143132 0.000106496 0)
(0.143044 0.000159193 0)
(0.14292 0.000211784 0)
(0.142761 0.000264221 0)
(0.142567 0.000316457 0)
(0.142339 0.000368442 0)
(0.142076 0.00042013 0)
(0.141778 0.000471474 0)
(0.141447 0.00052243 0)
(0.141081 0.000572952 0)
(0.140682 0.000622998 0)
(0.14025 0.000672526 0)
(0.139785 0.000721496 0)
(0.139287 0.000769869 0)
(0.138757 0.000817609 0)
(0.138196 0.000864678 0)
(0.137604 0.000911044 0)
(0.136981 0.000956675 0)
(0.136327 0.00100154 0)
(0.135644 0.00104561 0)
(0.134932 0.00108887 0)
(0.134191 0.00113127 0)
(0.133423 0.00117282 0)
(0.132627 0.00121347 0)
(0.131804 0.00125322 0)
(0.130954 0.00129205 0)
(0.13008 0.00132994 0)
(0.12918 0.00136689 0)
(0.128256 0.00140288 0)
(0.127308 0.0014379 0)
(0.126338 0.00147194 0)
(0.125344 0.00150501 0)
(0.12433 0.00153709 0)
(0.123294 0.00156819 0)
(0.122238 0.00159831 0)
(0.121162 0.00162745 0)
(0.120066 0.00165561 0)
(0.118953 0.00168279 0)
(0.117821 0.00170901 0)
(0.116673 0.00173427 0)
(0.115508 0.00175857 0)
(0.114327 0.00178194 0)
(0.113131 0.00180438 0)
(0.11192 0.0018259 0)
(0.110695 0.00184652 0)
(0.109457 0.00186624 0)
(0.108206 0.0018851 0)
(0.106942 0.00190309 0)
(0.105667 0.00192024 0)
(0.104381 0.00193657 0)
(0.103084 0.00195209 0)
(0.101777 0.00196682 0)
(0.100461 0.00198078 0)
(0.0991353 0.00199399 0)
(0.0978013 0.00200646 0)
(0.0964591 0.00201823 0)
(0.0951094 0.0020293 0)
(0.0937526 0.0020397 0)
(0.092389 0.00204945 0)
(0.0910192 0.00205857 0)
(0.0896435 0.00206707 0)
(0.0882623 0.00207499 0)
(0.0868761 0.00208234 0)
(0.0854852 0.00208914 0)
(0.0840899 0.00209541 0)
(0.0826907 0.00210117 0)
(0.0812878 0.00210645 0)
(0.0798815 0.00211125 0)
(0.0784722 0.00211561 0)
(0.0770601 0.00211954 0)
(0.0756456 0.00212305 0)
(0.0742289 0.00212618 0)
(0.0728102 0.00212894 0)
(0.0713899 0.00213134 0)
(0.069968 0.0021334 0)
(0.0685449 0.00213515 0)
(0.0671208 0.00213659 0)
(0.0656958 0.00213775 0)
(0.0642701 0.00213865 0)
(0.0628439 0.00213929 0)
(0.0614174 0.0021397 0)
(0.0599907 0.00213989 0)
(0.058564 0.00213987 0)
(0.0571373 0.00213966 0)
(0.0557108 0.00213928 0)
(0.0542847 0.00213874 0)
(0.052859 0.00213805 0)
(0.0514338 0.00213722 0)
(0.0500092 0.00213628 0)
(0.0485853 0.00213522 0)
(0.0471621 0.00213407 0)
(0.0457397 0.00213283 0)
(0.0443182 0.00213151 0)
(0.0428976 0.00213013 0)
(0.041478 0.0021287 0)
(0.0400593 0.00212722 0)
(0.0386416 0.00212571 0)
(0.0372249 0.00212418 0)
(0.0358093 0.00212263 0)
(0.0343947 0.00212107 0)
(0.0329812 0.00211951 0)
(0.0315687 0.00211796 0)
(0.0301573 0.00211643 0)
(0.0287468 0.00211492 0)
(0.0273374 0.00211344 0)
(0.0259289 0.00211199 0)
(0.0245214 0.00211059 0)
(0.0231148 0.00210924 0)
(0.0217092 0.00210793 0)
(0.0203043 0.00210669 0)
(0.0189003 0.00210551 0)
(0.017497 0.00210439 0)
(0.0160945 0.00210335 0)
(0.0146926 0.00210238 0)
(0.0132914 0.00210148 0)
(0.0118908 0.00210067 0)
(0.0104906 0.00209994 0)
(0.00909092 0.0020993 0)
(0.00769163 0.00209875 0)
(0.00629268 0.00209828 0)
(0.00489401 0.00209791 0)
(0.00349557 0.00209762 0)
(0.00209729 0.00209744 0)
(0.00069909 0.00209734 0)
(0.00065433 -0.00327208 0)
(0.00196303 -0.00327224 0)
(0.00327184 -0.00327256 0)
(0.0045808 -0.00327305 0)
(0.00588999 -0.00327371 0)
(0.00719948 -0.00327453 0)
(0.00850933 -0.0032755 0)
(0.0098196 -0.00327664 0)
(0.0111304 -0.00327793 0)
(0.0124417 -0.00327938 0)
(0.0137536 -0.00328097 0)
(0.0150662 -0.00328271 0)
(0.0163795 -0.0032846 0)
(0.0176936 -0.00328662 0)
(0.0190086 -0.00328878 0)
(0.0203244 -0.00329107 0)
(0.0216412 -0.00329348 0)
(0.022959 -0.00329601 0)
(0.0242778 -0.00329865 0)
(0.0255977 -0.0033014 0)
(0.0269188 -0.00330425 0)
(0.028241 -0.00330719 0)
(0.0295644 -0.00331022 0)
(0.030889 -0.00331332 0)
(0.0322149 -0.00331649 0)
(0.0335421 -0.00331972 0)
(0.0348706 -0.003323 0)
(0.0362004 -0.00332632 0)
(0.0375316 -0.00332967 0)
(0.0388641 -0.00333303 0)
(0.040198 -0.00333641 0)
(0.0415332 -0.00333977 0)
(0.0428699 -0.00334313 0)
(0.0442078 -0.00334644 0)
(0.0455471 -0.00334972 0)
(0.0468877 -0.00335294 0)
(0.0482296 -0.00335608 0)
(0.0495727 -0.00335913 0)
(0.0509171 -0.00336208 0)
(0.0522626 -0.00336491 0)
(0.0536092 -0.00336759 0)
(0.054957 -0.00337012 0)
(0.0563057 -0.00337248 0)
(0.0576553 -0.00337464 0)
(0.0590058 -0.00337658 0)
(0.060357 -0.00337829 0)
(0.0617089 -0.00337974 0)
(0.0630613 -0.00338092 0)
(0.0644141 -0.00338179 0)
(0.0657673 -0.00338234 0)
(0.0671206 -0.00338253 0)
(0.068474 -0.00338236 0)
(0.0698272 -0.00338178 0)
(0.0711802 -0.00338078 0)
(0.0725327 -0.00337933 0)
(0.0738845 -0.0033774 0)
(0.0752355 -0.00337495 0)
(0.0765855 -0.00337198 0)
(0.0779341 -0.00336843 0)
(0.0792813 -0.00336429 0)
(0.0806267 -0.00335952 0)
(0.0819701 -0.00335409 0)
(0.0833112 -0.00334798 0)
(0.0846498 -0.00334114 0)
(0.0859855 -0.00333354 0)
(0.087318 -0.00332516 0)
(0.0886471 -0.00331595 0)
(0.0899723 -0.00330589 0)
(0.0912934 -0.00329493 0)
(0.0926099 -0.00328305 0)
(0.0939216 -0.00327021 0)
(0.0952279 -0.00325638 0)
(0.0965285 -0.00324152 0)
(0.097823 -0.00322559 0)
(0.099111 -0.00320857 0)
(0.100392 -0.0031904 0)
(0.101665 -0.00317108 0)
(0.102931 -0.00315054 0)
(0.104188 -0.00312878 0)
(0.105436 -0.00310574 0)
(0.106675 -0.0030814 0)
(0.107904 -0.00305573 0)
(0.109122 -0.00302869 0)
(0.110329 -0.00300026 0)
(0.111525 -0.00297041 0)
(0.112708 -0.0029391 0)
(0.113879 -0.00290631 0)
(0.115036 -0.00287202 0)
(0.116179 -0.0028362 0)
(0.117308 -0.00279884 0)
(0.118421 -0.0027599 0)
(0.119518 -0.00271937 0)
(0.120599 -0.00267724 0)
(0.121663 -0.00263349 0)
(0.122709 -0.0025881 0)
(0.123737 -0.00254107 0)
(0.124745 -0.0024924 0)
(0.125734 -0.00244207 0)
(0.126702 -0.00239008 0)
(0.127649 -0.00233643 0)
(0.128574 -0.00228113 0)
(0.129476 -0.00222418 0)
(0.130356 -0.0021656 0)
(0.131212 -0.00210539 0)
(0.132043 -0.00204357 0)
(0.13285 -0.00198015 0)
(0.13363 -0.00191517 0)
(0.134385 -0.00184865 0)
(0.135112 -0.00178061 0)
(0.135812 -0.00171108 0)
(0.136483 -0.00164011 0)
(0.137126 -0.00156773 0)
(0.13774 -0.00149398 0)
(0.138324 -0.00141891 0)
(0.138877 -0.00134257 0)
(0.1394 -0.001265 0)
(0.139892 -0.00118627 0)
(0.140351 -0.00110643 0)
(0.140779 -0.00102554 0)
(0.141173 -0.00094366 0)
(0.141535 -0.000860864 0)
(0.141864 -0.000777217 0)
(0.142159 -0.000692789 0)
(0.142419 -0.000607654 0)
(0.142646 -0.000521886 0)
(0.142838 -0.000435562 0)
(0.142995 -0.00034876 0)
(0.143118 -0.000261558 0)
(0.143205 -0.000174039 0)
(0.143257 -8.62818e-05 0)
(0.143274 1.62988e-06 0)
(0.143256 8.96141e-05 0)
(0.143203 0.000177588 0)
(0.143114 0.000265469 0)
(0.14299 0.000353176 0)
(0.142831 0.000440626 0)
(0.142637 0.000527738 0)
(0.142408 0.000614432 0)
(0.142145 0.00070063 0)
(0.141847 0.000786254 0)
(0.141514 0.000871228 0)
(0.141148 0.00095548 0)
(0.140749 0.00103894 0)
(0.140316 0.00112153 0)
(0.13985 0.00120319 0)
(0.139351 0.00128385 0)
(0.138821 0.00136345 0)
(0.138259 0.00144194 0)
(0.137665 0.00151925 0)
(0.137041 0.00159534 0)
(0.136387 0.00167014 0)
(0.135703 0.00174363 0)
(0.134989 0.00181574 0)
(0.134247 0.00188645 0)
(0.133478 0.00195571 0)
(0.13268 0.00202349 0)
(0.131856 0.00208975 0)
(0.131006 0.00215448 0)
(0.13013 0.00221765 0)
(0.129229 0.00227924 0)
(0.128303 0.00233923 0)
(0.127354 0.0023976 0)
(0.126382 0.00245435 0)
(0.125388 0.00250946 0)
(0.124372 0.00256294 0)
(0.123335 0.00261477 0)
(0.122277 0.00266497 0)
(0.1212 0.00271352 0)
(0.120103 0.00276045 0)
(0.118989 0.00280575 0)
(0.117856 0.00284944 0)
(0.116706 0.00289152 0)
(0.11554 0.00293202 0)
(0.114358 0.00297096 0)
(0.11316 0.00300834 0)
(0.111948 0.00304419 0)
(0.110722 0.00307854 0)
(0.109483 0.0031114 0)
(0.10823 0.00314281 0)
(0.106966 0.00317278 0)
(0.10569 0.00320134 0)
(0.104402 0.00322854 0)
(0.103104 0.00325438 0)
(0.101797 0.00327891 0)
(0.100479 0.00330215 0)
(0.0991525 0.00332414 0)
(0.0978175 0.00334492 0)
(0.0964745 0.0033645 0)
(0.0951238 0.00338293 0)
(0.0937661 0.00340024 0)
(0.0924017 0.00341647 0)
(0.091031 0.00343164 0)
(0.0896545 0.0034458 0)
(0.0882726 0.00345897 0)
(0.0868856 0.0034712 0)
(0.085494 0.00348251 0)
(0.084098 0.00349294 0)
(0.0826981 0.00350252 0)
(0.0812946 0.00351128 0)
(0.0798877 0.00351927 0)
(0.0784778 0.00352651 0)
(0.0770652 0.00353304 0)
(0.0756501 0.00353888 0)
(0.0742329 0.00354407 0)
(0.0728138 0.00354864 0)
(0.0713929 0.00355262 0)
(0.0699707 0.00355604 0)
(0.0685471 0.00355893 0)
(0.0671226 0.00356132 0)
(0.0656972 0.00356324 0)
(0.0642712 0.00356471 0)
(0.0628447 0.00356576 0)
(0.0614179 0.00356643 0)
(0.0599909 0.00356672 0)
(0.0585639 0.00356668 0)
(0.057137 0.00356632 0)
(0.0557103 0.00356567 0)
(0.054284 0.00356475 0)
(0.0528581 0.00356359 0)
(0.0514327 0.0035622 0)
(0.0500079 0.00356061 0)
(0.0485839 0.00355883 0)
(0.0471606 0.0035569 0)
(0.0457381 0.00355482 0)
(0.0443165 0.00355261 0)
(0.0428958 0.0035503 0)
(0.0414761 0.0035479 0)
(0.0400573 0.00354543 0)
(0.0386396 0.00354291 0)
(0.0372229 0.00354034 0)
(0.0358073 0.00353774 0)
(0.0343927 0.00353514 0)
(0.0329792 0.00353253 0)
(0.0315667 0.00352994 0)
(0.0301553 0.00352738 0)
(0.0287449 0.00352486 0)
(0.0273355 0.00352238 0)
(0.0259271 0.00351997 0)
(0.0245196 0.00351762 0)
(0.0231131 0.00351536 0)
(0.0217075 0.00351318 0)
(0.0203027 0.0035111 0)
(0.0188988 0.00350913 0)
(0.0174956 0.00350726 0)
(0.0160932 0.00350552 0)
(0.0146914 0.0035039 0)
(0.0132903 0.00350241 0)
(0.0118897 0.00350105 0)
(0.0104897 0.00349983 0)
(0.00909013 0.00349876 0)
(0.00769096 0.00349783 0)
(0.00629213 0.00349705 0)
(0.00489359 0.00349643 0)
(0.00349526 0.00349596 0)
(0.0020971 0.00349565 0)
(0.000699028 0.00349549 0)
(0.00065423 -0.00458069 0)
(0.00196274 -0.00458091 0)
(0.00327135 -0.00458137 0)
(0.00458011 -0.00458205 0)
(0.00588911 -0.00458297 0)
(0.00719841 -0.00458412 0)
(0.00850807 -0.00458549 0)
(0.00981816 -0.00458708 0)
(0.0111287 -0.00458889 0)
(0.0124399 -0.00459092 0)
(0.0137516 -0.00459316 0)
(0.015064 -0.0045956 0)
(0.0163772 -0.00459825 0)
(0.0176911 -0.00460108 0)
(0.0190059 -0.00460411 0)
(0.0203216 -0.00460732 0)
(0.0216383 -0.0046107 0)
(0.0229559 -0.00461426 0)
(0.0242746 -0.00461796 0)
(0.0255944 -0.00462182 0)
(0.0269153 -0.00462582 0)
(0.0282374 -0.00462995 0)
(0.0295607 -0.0046342 0)
(0.0308853 -0.00463855 0)
(0.0322111 -0.00464301 0)
(0.0335382 -0.00464754 0)
(0.0348667 -0.00465215 0)
(0.0361964 -0.00465681 0)
(0.0375276 -0.00466151 0)
(0.0388601 -0.00466624 0)
(0.040194 -0.00467098 0)
(0.0415293 -0.00467571 0)
(0.0428659 -0.00468042 0)
(0.0442039 -0.00468509 0)
(0.0455432 -0.00468969 0)
(0.0468839 -0.00469422 0)
(0.0482259 -0.00469864 0)
(0.0495692 -0.00470293 0)
(0.0509137 -0.00470708 0)
(0.0522593 -0.00471107 0)
(0.0536062 -0.00471485 0)
(0.0549541 -0.00471842 0)
(0.056303 -0.00472175 0)
(0.0576529 -0.0047248 0)
(0.0590036 -0.00472755 0)
(0.0603551 -0.00472997 0)
(0.0617073 -0.00473204 0)
(0.0630601 -0.00473371 0)
(0.0644133 -0.00473496 0)
(0.0657669 -0.00473576 0)
(0.0671207 -0.00473607 0)
(0.0684745 -0.00473586 0)
(0.0698282 -0.00473509 0)
(0.0711817 -0.00473373 0)
(0.0725348 -0.00473173 0)
(0.0738872 -0.00472907 0)
(0.0752388 -0.00472569 0)
(0.0765894 -0.00472156 0)
(0.0779388 -0.00471664 0)
(0.0792867 -0.00471089 0)
(0.0806329 -0.00470425 0)
(0.0819771 -0.0046967 0)
(0.083319 -0.00468818 0)
(0.0846585 -0.00467865 0)
(0.0859951 -0.00466806 0)
(0.0873286 -0.00465637 0)
(0.0886587 -0.00464353 0)
(0.089985 -0.00462949 0)
(0.0913071 -0.0046142 0)
(0.0926248 -0.00459762 0)
(0.0939376 -0.00457969 0)
(0.0952452 -0.00456038 0)
(0.0965471 -0.00453962 0)
(0.0978429 -0.00451737 0)
(0.0991321 -0.00449358 0)
(0.100414 -0.0044682 0)
(0.101689 -0.00444119 0)
(0.102956 -0.00441249 0)
(0.104215 -0.00438207 0)
(0.105465 -0.00434986 0)
(0.106705 -0.00431583 0)
(0.107935 -0.00427993 0)
(0.109155 -0.00424212 0)
(0.110364 -0.00420236 0)
(0.111562 -0.0041606 0)
(0.112747 -0.00411681 0)
(0.113919 -0.00407094 0)
(0.115078 -0.00402297 0)
(0.116223 -0.00397286 0)
(0.117354 -0.00392057 0)
(0.118469 -0.00386608 0)
(0.119568 -0.00380937 0)
(0.120651 -0.0037504 0)
(0.121717 -0.00368917 0)
(0.122765 -0.00362564 0)
(0.123794 -0.00355981 0)
(0.124804 -0.00349167 0)
(0.125795 -0.00342121 0)
(0.126765 -0.00334842 0)
(0.127714 -0.00327332 0)
(0.128641 -0.00319589 0)
(0.129546 -0.00311615 0)
(0.130427 -0.00303411 0)
(0.131285 -0.0029498 0)
(0.132119 -0.00286322 0)
(0.132927 -0.00277441 0)
(0.133709 -0.0026834 0)
(0.134465 -0.00259023 0)
(0.135195 -0.00249493 0)
(0.135896 -0.00239754 0)
(0.13657 -0.00229813 0)
(0.137214 -0.00219674 0)
(0.137829 -0.00209342 0)
(0.138415 -0.00198826 0)
(0.13897 -0.0018813 0)
(0.139494 -0.00177264 0)
(0.139987 -0.00166233 0)
(0.140448 -0.00155047 0)
(0.140876 -0.00143713 0)
(0.141272 -0.00132241 0)
(0.141635 -0.0012064 0)
(0.141965 -0.0010892 0)
(0.14226 -0.000970896 0)
(0.142522 -0.000851603 0)
(0.142749 -0.000731421 0)
(0.142942 -0.000610458 0)
(0.1431 -0.000488823 0)
(0.143223 -0.000366629 0)
(0.14331 -0.000243988 0)
(0.143363 -0.000121014 0)
(0.14338 2.17804e-06 0)
(0.143362 0.000125471 0)
(0.143308 0.000248751 0)
(0.143219 0.000371899 0)
(0.143095 0.000494803 0)
(0.142936 0.000617345 0)
(0.142741 0.000739414 0)
(0.142512 0.000860896 0)
(0.142248 0.000981681 0)
(0.141949 0.00110166 0)
(0.141616 0.00122073 0)
(0.141249 0.00133878 0)
(0.140848 0.00145572 0)
(0.140414 0.00157144 0)
(0.139947 0.00168585 0)
(0.139448 0.00179887 0)
(0.138916 0.0019104 0)
(0.138352 0.00202036 0)
(0.137757 0.00212867 0)
(0.137132 0.00223526 0)
(0.136476 0.00234005 0)
(0.13579 0.00244299 0)
(0.135075 0.00254401 0)
(0.134332 0.00264305 0)
(0.13356 0.00274006 0)
(0.132761 0.00283499 0)
(0.131935 0.0029278 0)
(0.131083 0.00301846 0)
(0.130205 0.00310693 0)
(0.129302 0.00319317 0)
(0.128375 0.00327718 0)
(0.127424 0.00335891 0)
(0.12645 0.00343837 0)
(0.125453 0.00351554 0)
(0.124435 0.00359041 0)
(0.123396 0.00366298 0)
(0.122337 0.00373324 0)
(0.121257 0.00380121 0)
(0.120159 0.0038669 0)
(0.119042 0.0039303 0)
(0.117908 0.00399145 0)
(0.116756 0.00405035 0)
(0.115588 0.00410703 0)
(0.114404 0.00416151 0)
(0.113204 0.00421382 0)
(0.111991 0.00426398 0)
(0.110763 0.00431203 0)
(0.109521 0.004358 0)
(0.108267 0.00440193 0)
(0.107001 0.00444385 0)
(0.105723 0.00448381 0)
(0.104434 0.00452183 0)
(0.103135 0.00455797 0)
(0.101825 0.00459227 0)
(0.100506 0.00462477 0)
(0.0991783 0.00465551 0)
(0.0978419 0.00468454 0)
(0.0964974 0.00471192 0)
(0.0951454 0.00473767 0)
(0.0937863 0.00476186 0)
(0.0924207 0.00478453 0)
(0.0910488 0.00480573 0)
(0.0896711 0.0048255 0)
(0.088288 0.00484389 0)
(0.0868999 0.00486096 0)
(0.0855072 0.00487674 0)
(0.0841102 0.0048913 0)
(0.0827093 0.00490466 0)
(0.0813048 0.00491689 0)
(0.079897 0.00492803 0)
(0.0784862 0.00493812 0)
(0.0770727 0.00494721 0)
(0.0756569 0.00495534 0)
(0.0742389 0.00496257 0)
(0.072819 0.00496892 0)
(0.0713975 0.00497445 0)
(0.0699746 0.0049792 0)
(0.0685504 0.00498321 0)
(0.0671253 0.00498651 0)
(0.0656994 0.00498916 0)
(0.0642729 0.00499118 0)
(0.0628459 0.00499262 0)
(0.0614186 0.00499351 0)
(0.0599912 0.00499389 0)
(0.0585638 0.0049938 0)
(0.0571365 0.00499326 0)
(0.0557095 0.00499232 0)
(0.0542828 0.004991 0)
(0.0528566 0.00498934 0)
(0.051431 0.00498736 0)
(0.050006 0.00498511 0)
(0.0485818 0.00498259 0)
(0.0471583 0.00497986 0)
(0.0457356 0.00497692 0)
(0.0443139 0.00497381 0)
(0.0428931 0.00497055 0)
(0.0414733 0.00496717 0)
(0.0400544 0.00496369 0)
(0.0386367 0.00496013 0)
(0.0372199 0.00495651 0)
(0.0358043 0.00495286 0)
(0.0343897 0.0049492 0)
(0.0329762 0.00494553 0)
(0.0315637 0.00494189 0)
(0.0301523 0.00493828 0)
(0.0287419 0.00493473 0)
(0.0273326 0.00493126 0)
(0.0259243 0.00492786 0)
(0.0245169 0.00492457 0)
(0.0231105 0.00492138 0)
(0.021705 0.00491832 0)
(0.0203004 0.0049154 0)
(0.0188965 0.00491263 0)
(0.0174935 0.00491001 0)
(0.0160912 0.00490756 0)
(0.0146896 0.00490528 0)
(0.0132886 0.00490318 0)
(0.0118882 0.00490128 0)
(0.0104884 0.00489957 0)
(0.00908895 0.00489806 0)
(0.00768996 0.00489676 0)
(0.00629131 0.00489567 0)
(0.00489294 0.00489479 0)
(0.0034948 0.00489413 0)
(0.00209682 0.00489369 0)
(0.000698935 0.00489347 0)
(0.000654098 -0.00588906 0)
(0.00196234 -0.00588935 0)
(0.00327069 -0.00588994 0)
(0.0045792 -0.00589083 0)
(0.00588794 -0.00589201 0)
(0.00719698 -0.00589349 0)
(0.00850639 -0.00589525 0)
(0.00981623 -0.00589731 0)
(0.0111266 -0.00589964 0)
(0.0124375 -0.00590226 0)
(0.013749 -0.00590514 0)
(0.0150612 -0.00590829 0)
(0.0163741 -0.0059117 0)
(0.0176878 -0.00591536 0)
(0.0190024 -0.00591927 0)
(0.0203179 -0.0059234 0)
(0.0216343 -0.00592777 0)
(0.0229518 -0.00593235 0)
(0.0242703 -0.00593713 0)
(0.0255899 -0.00594211 0)
(0.0269107 -0.00594727 0)
(0.0282327 -0.00595259 0)
(0.0295558 -0.00595807 0)
(0.0308803 -0.0059637 0)
(0.032206 -0.00596944 0)
(0.033533 -0.00597529 0)
(0.0348614 -0.00598124 0)
(0.0361911 -0.00598726 0)
(0.0375222 -0.00599333 0)
(0.0388547 -0.00599944 0)
(0.0401886 -0.00600556 0)
(0.0415239 -0.00601168 0)
(0.0428606 -0.00601776 0)
(0.0441986 -0.00602379 0)
(0.0455381 -0.00602975 0)
(0.0468789 -0.0060356 0)
(0.048221 -0.00604132 0)
(0.0495644 -0.00604688 0)
(0.0509091 -0.00605226 0)
(0.052255 -0.00605742 0)
(0.053602 -0.00606233 0)
(0.0549502 -0.00606697 0)
(0.0562994 -0.00607129 0)
(0.0576496 -0.00607526 0)
(0.0590007 -0.00607884 0)
(0.0603526 -0.00608201 0)
(0.0617053 -0.00608472 0)
(0.0630585 -0.00608692 0)
(0.0644122 -0.00608859 0)
(0.0657663 -0.00608968 0)
(0.0671207 -0.00609014 0)
(0.0684751 -0.00608993 0)
(0.0698295 -0.006089 0)
(0.0711837 -0.00608731 0)
(0.0725375 -0.00608481 0)
(0.0738907 -0.00608145 0)
(0.0752432 -0.00607718 0)
(0.0765947 -0.00607194 0)
(0.077945 -0.00606569 0)
(0.0792938 -0.00605836 0)
(0.080641 -0.00604991 0)
(0.0819863 -0.00604027 0)
(0.0833294 -0.0060294 0)
(0.08467 -0.00601722 0)
(0.0860079 -0.00600369 0)
(0.0873427 -0.00598874 0)
(0.0886741 -0.00597231 0)
(0.0900018 -0.00595434 0)
(0.0913254 -0.00593477 0)
(0.0926446 -0.00591353 0)
(0.093959 -0.00589057 0)
(0.0952681 -0.00586581 0)
(0.0965717 -0.00583921 0)
(0.0978692 -0.00581069 0)
(0.0991603 -0.00578018 0)
(0.100444 -0.00574764 0)
(0.101721 -0.00571299 0)
(0.10299 -0.00567618 0)
(0.104251 -0.00563713 0)
(0.105503 -0.0055958 0)
(0.106745 -0.00555213 0)
(0.107978 -0.00550605 0)
(0.1092 -0.00545751 0)
(0.110411 -0.00540645 0)
(0.111611 -0.00535283 0)
(0.112798 -0.00529659 0)
(0.113973 -0.00523768 0)
(0.115134 -0.00517606 0)
(0.116282 -0.00511168 0)
(0.117415 -0.0050445 0)
(0.118532 -0.00497449 0)
(0.119634 -0.00490161 0)
(0.12072 -0.00482584 0)
(0.121788 -0.00474713 0)
(0.122839 -0.00466548 0)
(0.123871 -0.00458087 0)
(0.124884 -0.00449327 0)
(0.125877 -0.00440268 0)
(0.12685 -0.0043091 0)
(0.127801 -0.00421252 0)
(0.128731 -0.00411295 0)
(0.129638 -0.00401041 0)
(0.130523 -0.00390491 0)
(0.131383 -0.00379646 0)
(0.132219 -0.00368511 0)
(0.13303 -0.00357087 0)
(0.133815 -0.0034538 0)
(0.134573 -0.00333393 0)
(0.135305 -0.00321133 0)
(0.136009 -0.00308603 0)
(0.136684 -0.00295812 0)
(0.137331 -0.00282766 0)
(0.137949 -0.00269472 0)
(0.138536 -0.00255939 0)
(0.139093 -0.00242176 0)
(0.139619 -0.00228191 0)
(0.140114 -0.00213995 0)
(0.140577 -0.00199598 0)
(0.141007 -0.00185011 0)
(0.141404 -0.00170245 0)
(0.141769 -0.00155313 0)
(0.1421 -0.00140227 0)
(0.142396 -0.00125 0)
(0.142659 -0.00109644 0)
(0.142887 -0.000941738 0)
(0.143081 -0.000786027 0)
(0.143239 -0.000629449 0)
(0.143363 -0.000472149 0)
(0.143451 -0.000314272 0)