/*--------------------------------*- C++ -*----------------------------------*\
| =========                 |                                                 |
| \\      /  F ield         | OpenFOAM: The Open Source CFD Toolbox           |
|  \\    /   O peration     | Version:  v2012                                 |
|   \\  /    A nd           | Website:  www.openfoam.com                      |
|    \\/     M anipulation  |                                                 |
\*---------------------------------------------------------------------------*/
FoamFile
{
    version     2.0;
    format      ascii;
    class       volVectorField;
    location    "70";
    object      Usup;
}
// * * * * * * * * * * * * * * * * * * * * * * * * * * * * * * * * * * * * * //

dimensions      [0 1 -1 0 0 0 0];


internalField   nonuniform List<vector> 
4000
(
(-2.78435e-16 5.13699e-17 0)
(-9.55925e-16 7.91973e-17 0)
(-1.39609e-15 3.91761e-16 0)
(-1.7381e-15 6.3132e-16 0)
(-2.18117e-15 8.50237e-16 0)
(-2.68066e-15 2.96011e-16 0)
(-2.82959e-15 4.90631e-16 0)
(-2.51771e-15 4.8889e-16 0)
(-2.40309e-15 3.58723e-16 0)
(-2.58616e-15 2.21357e-16 0)
(-3.42945e-15 -4.54666e-17 0)
(-4.03806e-15 3.56664e-16 0)
(-4.0571e-15 4.40242e-16 0)
(-4.6161e-15 4.27739e-16 0)
(-4.97225e-15 1.05961e-15 0)
(-4.31997e-15 1.40106e-15 0)
(-4.17277e-15 9.79215e-16 0)
(-4.95598e-15 7.54711e-16 0)
(-5.48173e-15 9.71067e-16 0)
(-5.50291e-15 1.05122e-15 0)
(-5.08156e-15 6.97508e-16 0)
(-4.96357e-15 -5.06949e-17 0)
(-5.25564e-15 -3.26983e-16 0)
(-5.12811e-15 -8.52258e-17 0)
(-4.68395e-15 3.97411e-17 0)
(-4.13942e-15 1.63387e-16 0)
(-3.89785e-15 2.44588e-16 0)
(-4.02074e-15 4.80851e-16 0)
(-4.13652e-15 5.29916e-16 0)
(-4.1681e-15 6.74777e-16 0)
(-4.08698e-15 8.56092e-16 0)
(-3.89716e-15 7.38822e-16 0)
(-3.7103e-15 5.28485e-16 0)
(-3.46516e-15 4.40185e-16 0)
(-3.53599e-15 2.64126e-16 0)
(-3.95955e-15 3.31512e-16 0)
(-4.4403e-15 5.53212e-16 0)
(-4.95792e-15 8.94211e-16 0)
(-4.54651e-15 1.53014e-15 0)
(-2.89631e-15 1.82801e-15 0)
(-1.30811e-15 1.58297e-15 0)
(-8.23946e-16 1.41504e-15 0)
(-9.66604e-16 1.6266e-15 0)
(-1.00817e-15 1.72376e-15 0)
(-7.47782e-16 1.36806e-15 0)
(-4.44294e-16 1.01764e-15 0)
(-4.46645e-16 1.11589e-15 0)
(6.18218e-17 1.71058e-15 0)
(6.25739e-16 1.91497e-15 0)
(8.54086e-16 2.2126e-15 0)
(1.31411e-15 1.98628e-15 0)
(1.8838e-15 1.92939e-15 0)
(2.58745e-15 1.94429e-15 0)
(2.76504e-15 1.93831e-15 0)
(2.84169e-15 2.157e-15 0)
(3.22845e-15 2.09658e-15 0)
(4.01557e-15 1.83355e-15 0)
(5.13172e-15 1.78179e-15 0)
(5.94198e-15 1.70722e-15 0)
(5.92645e-15 1.53253e-15 0)
(5.46535e-15 1.69812e-15 0)
(5.12149e-15 1.56269e-15 0)
(4.97702e-15 1.52913e-15 0)
(4.97421e-15 1.56963e-15 0)
(4.85342e-15 1.64501e-15 0)
(5.14137e-15 1.47947e-15 0)
(5.50267e-15 1.09111e-15 0)
(5.75454e-15 8.50327e-16 0)
(6.09132e-15 8.78608e-16 0)
(6.39079e-15 7.49608e-16 0)
(6.55808e-15 3.98089e-16 0)
(6.36228e-15 2.70242e-16 0)
(6.22158e-15 5.16554e-16 0)
(6.46915e-15 5.20133e-16 0)
(6.67845e-15 -7.48394e-17 0)
(6.50003e-15 -4.06839e-16 0)
(6.27053e-15 -3.54414e-16 0)
(6.25589e-15 -3.35021e-16 0)
(6.40679e-15 -1.44986e-16 0)
(6.34176e-15 -1.04008e-16 0)
(6.12947e-15 -1.83138e-16 0)
(5.87803e-15 -5.66941e-16 0)
(5.65045e-15 -8.57095e-16 0)
(5.58497e-15 -9.28739e-16 0)
(5.47883e-15 -1.05323e-15 0)
(5.36079e-15 -1.05483e-15 0)
(5.10897e-15 -1.17467e-15 0)
(4.70597e-15 -9.7171e-16 0)
(4.73212e-15 -8.80512e-16 0)
(4.82063e-15 -1.08379e-15 0)
(4.3692e-15 -1.1402e-15 0)
(3.91913e-15 -8.94418e-16 0)
(3.5124e-15 -1.04559e-15 0)
(2.90266e-15 -1.29715e-15 0)
(2.06824e-15 -1.23931e-15 0)
(1.55505e-15 -7.87876e-16 0)
(1.56581e-15 -5.38142e-16 0)
(1.60407e-15 -4.88838e-16 0)
(1.40472e-15 -2.29739e-16 0)
(8.1914e-16 8.58295e-17 0)
(-9.04235e-16 2.93743e-16 0)
(-2.53306e-15 6.17561e-16 0)
(-3.64267e-15 1.11288e-15 0)
(-4.74899e-15 1.60087e-15 0)
(-6.49713e-15 1.91216e-15 0)
(-7.68714e-15 1.31035e-15 0)
(-7.73125e-15 1.57917e-15 0)
(-7.56276e-15 1.56272e-15 0)
(-7.60048e-15 1.18617e-15 0)
(-8.32506e-15 8.19446e-16 0)
(-9.76758e-15 4.79206e-16 0)
(-1.0976e-14 9.46991e-16 0)
(-1.1736e-14 1.08963e-15 0)
(-1.25546e-14 1.57874e-15 0)
(-1.30353e-14 3.1306e-15 0)
(-1.28114e-14 3.62133e-15 0)
(-1.31055e-14 2.58377e-15 0)
(-1.4181e-14 2.31302e-15 0)
(-1.50989e-14 2.78527e-15 0)
(-1.56441e-14 2.5029e-15 0)
(-1.55176e-14 1.6527e-15 0)
(-1.51999e-14 4.02483e-16 0)
(-1.48733e-14 -5.9656e-17 0)
(-1.42192e-14 1.2205e-17 0)
(-1.3292e-14 1.29438e-16 0)
(-1.21223e-14 5.72174e-16 0)
(-1.14307e-14 8.14485e-16 0)
(-1.15687e-14 1.31473e-15 0)
(-1.18092e-14 1.56286e-15 0)
(-1.17269e-14 1.88983e-15 0)
(-1.16936e-14 2.1591e-15 0)
(-1.15318e-14 2.05444e-15 0)
(-1.10496e-14 1.90155e-15 0)
(-1.05396e-14 1.79601e-15 0)
(-1.0584e-14 1.415e-15 0)
(-1.11505e-14 1.31931e-15 0)
(-1.19174e-14 1.61254e-15 0)
(-1.23837e-14 2.55429e-15 0)
(-1.12051e-14 4.21812e-15 0)
(-8.21367e-15 5.01618e-15 0)
(-4.9666e-15 4.70959e-15 0)
(-3.13195e-15 4.31544e-15 0)
(-2.78725e-15 4.7079e-15 0)
(-3.01425e-15 4.60068e-15 0)
(-2.63872e-15 4.10435e-15 0)
(-1.50214e-15 3.75935e-15 0)
(-4.31176e-16 3.8455e-15 0)
(9.13391e-16 5.10451e-15 0)
(2.11053e-15 5.83295e-15 0)
(2.69153e-15 6.43647e-15 0)
(3.72404e-15 6.09415e-15 0)
(5.43051e-15 5.94322e-15 0)
(7.16643e-15 5.60647e-15 0)
(8.08546e-15 5.55833e-15 0)
(8.62052e-15 5.85988e-15 0)
(9.46084e-15 6.04616e-15 0)
(1.14855e-14 6.24816e-15 0)
(1.42134e-14 6.07005e-15 0)
(1.60174e-14 5.52437e-15 0)
(1.64047e-14 4.76562e-15 0)
(1.56387e-14 4.72029e-15 0)
(1.47927e-14 4.60416e-15 0)
(1.4594e-14 4.62722e-15 0)
(1.46468e-14 4.52851e-15 0)
(1.43904e-14 4.61365e-15 0)
(1.47078e-14 4.13334e-15 0)
(1.55196e-14 3.34862e-15 0)
(1.65462e-14 2.80718e-15 0)
(1.74692e-14 2.56679e-15 0)
(1.79206e-14 2.12395e-15 0)
(1.83232e-14 1.35868e-15 0)
(1.8484e-14 1.09684e-15 0)
(1.83802e-14 1.14001e-15 0)
(1.82248e-14 8.1225e-16 0)
(1.83581e-14 -9.74662e-17 0)
(1.85056e-14 -7.48952e-16 0)
(1.83042e-14 -7.27221e-16 0)
(1.83205e-14 -6.98252e-16 0)
(1.85295e-14 -4.96896e-16 0)
(1.81288e-14 -5.28534e-16 0)
(1.72938e-14 -9.1288e-16 0)
(1.65078e-14 -1.75951e-15 0)
(1.61547e-14 -2.56199e-15 0)
(1.59748e-14 -2.93231e-15 0)
(1.56668e-14 -3.26457e-15 0)
(1.52522e-14 -3.22366e-15 0)
(1.47192e-14 -3.03765e-15 0)
(1.39599e-14 -2.6238e-15 0)
(1.34687e-14 -2.62453e-15 0)
(1.32324e-14 -3.51223e-15 0)
(1.24536e-14 -3.69829e-15 0)
(1.11478e-14 -3.14627e-15 0)
(9.5307e-15 -3.35276e-15 0)
(8.02662e-15 -3.81362e-15 0)
(6.52069e-15 -3.56621e-15 0)
(5.27817e-15 -2.41151e-15 0)
(4.59909e-15 -1.48116e-15 0)
(4.30909e-15 -1.15115e-15 0)
(3.68229e-15 -7.56328e-16 0)
(1.66204e-15 -4.24106e-17 0)
(-1.44161e-15 7.39843e-16 0)
(-4.07568e-15 1.45455e-15 0)
(-5.90863e-15 1.91236e-15 0)
(-7.70416e-15 1.85599e-15 0)
(-1.02671e-14 2.04989e-15 0)
(-1.19911e-14 2.49848e-15 0)
(-1.23299e-14 2.91806e-15 0)
(-1.25354e-14 3.03113e-15 0)
(-1.29354e-14 2.23971e-15 0)
(-1.39588e-14 1.4733e-15 0)
(-1.58645e-14 1.08519e-15 0)
(-1.76262e-14 1.73985e-15 0)
(-1.85492e-14 2.13075e-15 0)
(-1.92151e-14 3.0078e-15 0)
(-2.02574e-14 4.3887e-15 0)
(-2.1178e-14 4.74523e-15 0)
(-2.17637e-14 4.03381e-15 0)
(-2.26314e-14 3.9469e-15 0)
(-2.41605e-14 4.2191e-15 0)
(-2.53768e-14 3.44987e-15 0)
(-2.52476e-14 2.28263e-15 0)
(-2.46082e-14 1.6107e-15 0)
(-2.39923e-14 1.11092e-15 0)
(-2.2998e-14 2.63085e-16 0)
(-2.13242e-14 3.87224e-16 0)
(-1.96006e-14 7.74044e-16 0)
(-1.8661e-14 1.35948e-15 0)
(-1.86664e-14 2.12715e-15 0)
(-1.89265e-14 2.83154e-15 0)
(-1.88587e-14 3.60969e-15 0)
(-1.88152e-14 3.52166e-15 0)
(-1.84811e-14 3.22558e-15 0)
(-1.78202e-14 3.38785e-15 0)
(-1.73555e-14 3.24978e-15 0)
(-1.75308e-14 2.75967e-15 0)
(-1.80778e-14 2.76993e-15 0)
(-1.84506e-14 2.90443e-15 0)
(-1.81274e-14 4.2778e-15 0)
(-1.63222e-14 6.18542e-15 0)
(-1.28176e-14 7.60319e-15 0)
(-8.73822e-15 7.75479e-15 0)
(-5.807e-15 7.44727e-15 0)
(-4.93371e-15 7.27253e-15 0)
(-4.99845e-15 7.00811e-15 0)
(-4.0158e-15 6.88123e-15 0)
(-2.29791e-15 7.01543e-15 0)
(-2.51648e-16 7.41747e-15 0)
(2.141e-15 8.58766e-15 0)
(3.79919e-15 9.24588e-15 0)
(4.6045e-15 9.78952e-15 0)
(6.10951e-15 1.02052e-14 0)
(8.47121e-15 1.01623e-14 0)
(1.10649e-14 9.54552e-15 0)
(1.29638e-14 9.33655e-15 0)
(1.43372e-14 9.44849e-15 0)
(1.62389e-14 9.88987e-15 0)
(1.89752e-14 1.06627e-14 0)
(2.20703e-14 1.01236e-14 0)
(2.4339e-14 9.015e-15 0)
(2.52399e-14 7.75386e-15 0)
(2.48813e-14 7.36706e-15 0)
(2.41037e-14 7.56324e-15 0)
(2.3717e-14 7.6718e-15 0)
(2.37563e-14 7.36394e-15 0)
(2.34744e-14 7.04458e-15 0)
(2.37764e-14 6.32919e-15 0)
(2.4981e-14 5.46455e-15 0)
(2.64951e-14 4.86672e-15 0)
(2.78015e-14 4.32224e-15 0)
(2.84767e-14 3.858e-15 0)
(2.92113e-14 3.05632e-15 0)
(2.95681e-14 2.41382e-15 0)
(2.93449e-14 1.66273e-15 0)
(2.92165e-14 7.40442e-16 0)
(2.9431e-14 -1.40005e-16 0)
(2.97138e-14 -8.96897e-16 0)
(2.96228e-14 -8.89824e-16 0)
(2.95846e-14 -1.20937e-15 0)
(2.96738e-14 -1.24398e-15 0)
(2.88911e-14 -1.58797e-15 0)
(2.7517e-14 -2.24642e-15 0)
(2.62721e-14 -3.13295e-15 0)
(2.57338e-14 -3.94538e-15 0)
(2.55099e-14 -4.96346e-15 0)
(2.51743e-14 -5.58022e-15 0)
(2.48192e-14 -5.56446e-15 0)
(2.40228e-14 -5.04174e-15 0)
(2.25525e-14 -4.75687e-15 0)
(2.10702e-14 -4.83209e-15 0)
(2.04366e-14 -5.96628e-15 0)
(1.98047e-14 -6.19547e-15 0)
(1.78439e-14 -6.06945e-15 0)
(1.50501e-14 -6.03507e-15 0)
(1.28155e-14 -6.12905e-15 0)
(1.10247e-14 -5.38021e-15 0)
(9.34318e-15 -4.03827e-15 0)
(7.76915e-15 -2.64622e-15 0)
(6.51939e-15 -1.98544e-15 0)
(5.24297e-15 -1.41239e-15 0)
(2.28642e-15 -4.8127e-16 0)
(-2.00507e-15 9.59376e-16 0)
(-5.57871e-15 2.17911e-15 0)
(-8.47946e-15 2.49665e-15 0)
(-1.0931e-14 2.29112e-15 0)
(-1.34052e-14 2.45241e-15 0)
(-1.53865e-14 3.40586e-15 0)
(-1.63208e-14 4.26766e-15 0)
(-1.74197e-14 4.3114e-15 0)
(-1.8581e-14 3.25259e-15 0)
(-1.98281e-14 1.86194e-15 0)
(-2.14235e-14 1.36744e-15 0)
(-2.32282e-14 2.72597e-15 0)
(-2.47506e-14 3.67926e-15 0)
(-2.57141e-14 4.32149e-15 0)
(-2.71593e-14 4.90476e-15 0)
(-2.86393e-14 5.54933e-15 0)
(-2.95951e-14 5.74991e-15 0)
(-3.0669e-14 5.70987e-15 0)
(-3.27199e-14 5.0952e-15 0)
(-3.45514e-14 4.23958e-15 0)
(-3.42251e-14 3.08353e-15 0)
(-3.32601e-14 2.32858e-15 0)
(-3.2933e-14 1.54578e-15 0)
(-3.14313e-14 1.04949e-15 0)
(-2.89319e-14 1.47767e-15 0)
(-2.66915e-14 1.41445e-15 0)
(-2.51988e-14 2.17034e-15 0)
(-2.50083e-14 3.19743e-15 0)
(-2.51108e-14 4.19114e-15 0)
(-2.54485e-14 5.14316e-15 0)
(-2.59415e-14 4.96385e-15 0)
(-2.52419e-14 4.50344e-15 0)
(-2.4284e-14 4.5887e-15 0)
(-2.39864e-14 4.45836e-15 0)
(-2.39109e-14 4.28225e-15 0)
(-2.42291e-14 4.41296e-15 0)
(-2.41375e-14 4.72155e-15 0)
(-2.29827e-14 6.204e-15 0)
(-2.04685e-14 7.67888e-15 0)
(-1.6511e-14 9.70669e-15 0)
(-1.2164e-14 1.02068e-14 0)
(-8.85204e-15 9.90611e-15 0)
(-7.38836e-15 9.42241e-15 0)
(-6.70663e-15 9.55624e-15 0)
(-5.11266e-15 9.89328e-15 0)
(-2.60991e-15 1.00733e-14 0)
(2.30919e-16 1.0878e-14 0)
(3.01724e-15 1.18459e-14 0)
(5.13017e-15 1.23053e-14 0)
(6.89348e-15 1.3223e-14 0)
(8.96654e-15 1.41287e-14 0)
(1.14783e-14 1.41636e-14 0)
(1.46371e-14 1.36448e-14 0)
(1.74142e-14 1.3197e-14 0)
(1.97047e-14 1.31601e-14 0)
(2.25369e-14 1.3416e-14 0)
(2.56408e-14 1.3934e-14 0)
(2.88536e-14 1.3572e-14 0)
(3.15679e-14 1.21955e-14 0)
(3.31615e-14 1.09478e-14 0)
(3.3548e-14 1.03756e-14 0)
(3.29562e-14 1.01416e-14 0)
(3.23373e-14 9.89632e-15 0)
(3.21677e-14 9.66725e-15 0)
(3.18541e-14 9.11455e-15 0)
(3.22936e-14 8.271e-15 0)
(3.3881e-14 7.5121e-15 0)
(3.58615e-14 6.86005e-15 0)
(3.75918e-14 6.21508e-15 0)
(3.8451e-14 5.58887e-15 0)
(3.91022e-14 4.78888e-15 0)
(3.94297e-14 3.65571e-15 0)
(3.92034e-14 2.58561e-15 0)
(3.91296e-14 1.0212e-15 0)
(3.94899e-14 -3.833e-16 0)
(4.01719e-14 -1.29582e-15 0)
(4.00714e-14 -1.37502e-15 0)
(3.98821e-14 -2.12048e-15 0)
(3.99156e-14 -2.20314e-15 0)
(3.87528e-14 -2.91733e-15 0)
(3.70466e-14 -3.84566e-15 0)
(3.55772e-14 -4.69209e-15 0)
(3.45445e-14 -5.43165e-15 0)
(3.39672e-14 -6.73908e-15 0)
(3.38529e-14 -7.65026e-15 0)
(3.36378e-14 -7.99111e-15 0)
(3.25518e-14 -7.69449e-15 0)
(3.05456e-14 -7.52996e-15 0)
(2.82978e-14 -7.56557e-15 0)
(2.71504e-14 -8.57589e-15 0)
(2.61658e-14 -8.99064e-15 0)
(2.36892e-14 -9.02621e-15 0)
(2.03756e-14 -8.76413e-15 0)
(1.76764e-14 -8.10536e-15 0)
(1.54385e-14 -6.9505e-15 0)
(1.31067e-14 -5.73832e-15 0)
(1.06713e-14 -4.29438e-15 0)
(8.54613e-15 -3.2256e-15 0)
(6.59352e-15 -1.99862e-15 0)
(2.86698e-15 -8.21316e-16 0)
(-2.33307e-15 9.71942e-16 0)
(-7.02224e-15 2.63311e-15 0)
(-1.08941e-14 2.89914e-15 0)
(-1.37783e-14 3.03963e-15 0)
(-1.64118e-14 3.68671e-15 0)
(-1.84359e-14 4.60676e-15 0)
(-2.00846e-14 5.27254e-15 0)
(-2.22155e-14 4.90479e-15 0)
(-2.42358e-14 4.17398e-15 0)
(-2.55958e-14 2.88313e-15 0)
(-2.64197e-14 2.76755e-15 0)
(-2.80628e-14 3.61187e-15 0)
(-3.03422e-14 4.57517e-15 0)
(-3.20112e-14 5.106e-15 0)
(-3.35957e-14 5.3909e-15 0)
(-3.51426e-14 6.44558e-15 0)
(-3.66131e-14 7.00418e-15 0)
(-3.85866e-14 6.85326e-15 0)
(-4.11526e-14 5.65254e-15 0)
(-4.29742e-14 4.84416e-15 0)
(-4.27567e-14 3.83401e-15 0)
(-4.17363e-14 2.89813e-15 0)
(-4.07607e-14 2.12399e-15 0)
(-3.8548e-14 2.12531e-15 0)
(-3.60714e-14 2.5639e-15 0)
(-3.35808e-14 2.59347e-15 0)
(-3.14155e-14 3.40993e-15 0)
(-3.0969e-14 4.24953e-15 0)
(-3.10839e-14 5.07732e-15 0)
(-3.16741e-14 5.85214e-15 0)
(-3.24159e-14 5.85233e-15 0)
(-3.15888e-14 5.84589e-15 0)
(-3.03879e-14 5.98795e-15 0)
(-2.98793e-14 5.90593e-15 0)
(-2.97482e-14 6.08816e-15 0)
(-2.98974e-14 6.10906e-15 0)
(-2.91224e-14 6.70344e-15 0)
(-2.74232e-14 8.18773e-15 0)
(-2.40938e-14 9.31789e-15 0)
(-1.96387e-14 1.10682e-14 0)
(-1.549e-14 1.16852e-14 0)
(-1.17922e-14 1.14063e-14 0)
(-9.45481e-15 1.14715e-14 0)
(-7.9429e-15 1.22263e-14 0)
(-5.97277e-15 1.31396e-14 0)
(-2.93118e-15 1.33492e-14 0)
(7.25453e-16 1.38017e-14 0)
(4.02517e-15 1.45227e-14 0)
(6.89833e-15 1.53938e-14 0)
(9.32021e-15 1.67869e-14 0)
(1.15299e-14 1.75613e-14 0)
(1.42459e-14 1.76105e-14 0)
(1.78703e-14 1.75429e-14 0)
(2.14197e-14 1.65952e-14 0)
(2.45929e-14 1.64073e-14 0)
(2.82904e-14 1.6723e-14 0)
(3.20784e-14 1.69424e-14 0)
(3.52558e-14 1.65933e-14 0)
(3.80532e-14 1.55955e-14 0)
(4.0256e-14 1.4652e-14 0)
(4.09565e-14 1.36098e-14 0)
(4.0547e-14 1.2637e-14 0)
(4.02761e-14 1.18746e-14 0)
(4.02728e-14 1.12788e-14 0)
(3.98339e-14 1.06138e-14 0)
(4.04387e-14 9.86925e-15 0)
(4.2348e-14 9.32681e-15 0)
(4.45421e-14 8.7621e-15 0)
(4.64439e-14 8.07557e-15 0)
(4.7494e-14 7.36703e-15 0)
(4.81989e-14 6.37113e-15 0)
(4.85476e-14 4.86452e-15 0)
(4.81323e-14 3.51582e-15 0)
(4.78758e-14 1.49058e-15 0)
(4.86193e-14 -1.85086e-16 0)
(4.97988e-14 -1.34063e-15 0)
(4.96709e-14 -2.25904e-15 0)
(4.94512e-14 -2.90752e-15 0)
(4.93537e-14 -2.89142e-15 0)
(4.7642e-14 -4.00356e-15 0)
(4.57502e-14 -4.9505e-15 0)
(4.41438e-14 -6.02304e-15 0)
(4.27323e-14 -7.29992e-15 0)
(4.18398e-14 -8.36248e-15 0)
(4.1639e-14 -9.59964e-15 0)
(4.15355e-14 -1.00513e-14 0)
(4.03972e-14 -1.0221e-14 0)
(3.79169e-14 -1.04008e-14 0)
(3.47926e-14 -1.08898e-14 0)
(3.30053e-14 -1.16895e-14 0)
(3.20091e-14 -1.19815e-14 0)
(2.92789e-14 -1.16531e-14 0)
(2.55766e-14 -1.12472e-14 0)
(2.24523e-14 -1.00423e-14 0)
(1.94788e-14 -8.88227e-15 0)
(1.65119e-14 -7.59347e-15 0)
(1.34534e-14 -6.23345e-15 0)
(1.06424e-14 -4.4781e-15 0)
(7.85136e-15 -2.62355e-15 0)
(3.33055e-15 -9.69175e-16 0)
(-2.66753e-15 1.18589e-15 0)
(-8.34644e-15 2.65044e-15 0)
(-1.31937e-14 3.42407e-15 0)
(-1.61796e-14 4.10341e-15 0)
(-1.88595e-14 5.18424e-15 0)
(-2.1536e-14 6.19161e-15 0)
(-2.40307e-14 6.24153e-15 0)
(-2.67083e-14 5.28833e-15 0)
(-2.91305e-14 4.66072e-15 0)
(-3.06082e-14 4.242e-15 0)
(-3.14134e-14 4.58793e-15 0)
(-3.32138e-14 4.44332e-15 0)
(-3.56908e-14 4.91943e-15 0)
(-3.77901e-14 5.62524e-15 0)
(-3.93627e-14 6.34273e-15 0)
(-4.10386e-14 7.25763e-15 0)
(-4.32599e-14 7.52758e-15 0)
(-4.60236e-14 6.79036e-15 0)
(-4.88879e-14 5.52664e-15 0)
(-5.07616e-14 4.91489e-15 0)
(-5.05586e-14 4.4944e-15 0)
(-4.93475e-14 3.84737e-15 0)
(-4.81739e-14 3.67951e-15 0)
(-4.55122e-14 3.9334e-15 0)
(-4.26256e-14 3.31409e-15 0)
(-3.97092e-14 3.60185e-15 0)
(-3.72695e-14 4.41325e-15 0)
(-3.67958e-14 4.83583e-15 0)
(-3.67191e-14 5.52532e-15 0)
(-3.74432e-14 6.28145e-15 0)
(-3.82656e-14 6.68763e-15 0)
(-3.71937e-14 7.24719e-15 0)
(-3.60236e-14 7.05812e-15 0)
(-3.54589e-14 6.59172e-15 0)
(-3.51159e-14 7.08877e-15 0)
(-3.49377e-14 7.67031e-15 0)
(-3.34547e-14 8.58526e-15 0)
(-3.13165e-14 9.98049e-15 0)
(-2.76305e-14 1.11307e-14 0)
(-2.27403e-14 1.18195e-14 0)
(-1.84719e-14 1.26881e-14 0)
(-1.42737e-14 1.27565e-14 0)
(-1.09421e-14 1.34279e-14 0)
(-8.64605e-15 1.48355e-14 0)
(-6.49618e-15 1.62838e-14 0)
(-3.36329e-15 1.66964e-14 0)
(8.65182e-16 1.65397e-14 0)
(5.04883e-15 1.69814e-14 0)
(8.81248e-15 1.82717e-14 0)
(1.17054e-14 1.97246e-14 0)
(1.40356e-14 2.06793e-14 0)
(1.72017e-14 2.12034e-14 0)
(2.08936e-14 2.11704e-14 0)
(2.48116e-14 1.99933e-14 0)
(2.92538e-14 1.9562e-14 0)
(3.36483e-14 1.99148e-14 0)
(3.75558e-14 1.97302e-14 0)
(4.10992e-14 1.90116e-14 0)
(4.43891e-14 1.86288e-14 0)
(4.66564e-14 1.76512e-14 0)
(4.74537e-14 1.66123e-14 0)
(4.73411e-14 1.55501e-14 0)
(4.72261e-14 1.43206e-14 0)
(4.73814e-14 1.28715e-14 0)
(4.72795e-14 1.18146e-14 0)
(4.82219e-14 1.13866e-14 0)
(5.04219e-14 1.0782e-14 0)
(5.27986e-14 1.01753e-14 0)
(5.49033e-14 9.639e-15 0)
(5.59477e-14 9.16483e-15 0)
(5.63221e-14 8.25588e-15 0)
(5.65944e-14 6.33227e-15 0)
(5.61223e-14 4.20083e-15 0)
(5.58997e-14 2.27588e-15 0)
(5.69256e-14 6.35217e-16 0)
(5.81023e-14 -1.03547e-15 0)
(5.82419e-14 -2.68629e-15 0)
(5.85628e-14 -3.15612e-15 0)
(5.80296e-14 -4.02555e-15 0)
(5.58565e-14 -5.07006e-15 0)
(5.37925e-14 -5.99527e-15 0)
(5.16252e-14 -7.31467e-15 0)
(5.01006e-14 -8.53736e-15 0)
(4.90224e-14 -9.91973e-15 0)
(4.87866e-14 -1.16281e-14 0)
(4.87306e-14 -1.24186e-14 0)
(4.71552e-14 -1.31639e-14 0)
(4.41683e-14 -1.37981e-14 0)
(4.06671e-14 -1.45449e-14 0)
(3.87716e-14 -1.45717e-14 0)
(3.75763e-14 -1.46571e-14 0)
(3.44248e-14 -1.43332e-14 0)
(3.0439e-14 -1.34348e-14 0)
(2.6877e-14 -1.20458e-14 0)
(2.32362e-14 -1.0945e-14 0)
(1.96034e-14 -9.56089e-15 0)
(1.60849e-14 -7.99701e-15 0)
(1.28447e-14 -5.67654e-15 0)
(9.19839e-15 -3.41992e-15 0)
(3.75549e-15 -1.19328e-15 0)
(-3.25606e-15 1.3101e-15 0)
(-9.69256e-15 2.62984e-15 0)
(-1.47916e-14 3.95218e-15 0)
(-1.81171e-14 5.5358e-15 0)
(-2.11631e-14 6.9694e-15 0)
(-2.45615e-14 7.61781e-15 0)
(-2.82197e-14 7.12461e-15 0)
(-3.13894e-14 6.05069e-15 0)
(-3.35774e-14 5.26708e-15 0)
(-3.48379e-14 5.19192e-15 0)
(-3.61276e-14 5.58683e-15 0)
(-3.83471e-14 5.15175e-15 0)
(-4.06316e-14 5.20051e-15 0)
(-4.26863e-14 5.92598e-15 0)
(-4.45935e-14 7.1013e-15 0)
(-4.68663e-14 7.73551e-15 0)
(-4.99092e-14 7.58482e-15 0)
(-5.33416e-14 6.6328e-15 0)
(-5.60817e-14 5.31816e-15 0)
(-5.74435e-14 5.25228e-15 0)
(-5.72983e-14 5.3689e-15 0)
(-5.6044e-14 4.5664e-15 0)
(-5.42751e-14 4.35064e-15 0)
(-5.21786e-14 5.02115e-15 0)
(-4.93925e-14 4.44551e-15 0)
(-4.55375e-14 5.01819e-15 0)
(-4.2978e-14 5.16418e-15 0)
(-4.23638e-14 5.6817e-15 0)
(-4.20036e-14 6.18933e-15 0)
(-4.25773e-14 6.21332e-15 0)
(-4.32271e-14 7.21738e-15 0)
(-4.25873e-14 8.31542e-15 0)
(-4.18864e-14 7.86419e-15 0)
(-4.0626e-14 7.34007e-15 0)
(-3.94807e-14 7.77804e-15 0)
(-3.90425e-14 8.6464e-15 0)
(-3.72742e-14 9.91766e-15 0)
(-3.48026e-14 1.12364e-14 0)
(-3.11348e-14 1.26801e-14 0)
(-2.58096e-14 1.2898e-14 0)
(-2.09497e-14 1.34305e-14 0)
(-1.62694e-14 1.39463e-14 0)
(-1.19123e-14 1.48979e-14 0)
(-8.86568e-15 1.69958e-14 0)
(-6.692e-15 1.89003e-14 0)
(-3.88913e-15 1.97138e-14 0)
(7.61948e-16 1.94612e-14 0)
(6.14978e-15 1.97696e-14 0)
(1.08401e-14 2.11482e-14 0)
(1.4128e-14 2.25502e-14 0)
(1.68002e-14 2.35173e-14 0)
(1.99545e-14 2.40921e-14 0)
(2.34905e-14 2.3675e-14 0)
(2.78929e-14 2.30849e-14 0)
(3.33293e-14 2.27195e-14 0)
(3.83518e-14 2.25707e-14 0)
(4.24827e-14 2.24357e-14 0)
(4.65695e-14 2.20433e-14 0)
(5.00723e-14 2.15777e-14 0)
(5.24772e-14 2.00192e-14 0)
(5.36042e-14 1.89654e-14 0)
(5.34131e-14 1.7934e-14 0)
(5.31594e-14 1.66754e-14 0)
(5.35838e-14 1.49333e-14 0)
(5.42302e-14 1.35714e-14 0)
(5.55517e-14 1.31082e-14 0)
(5.77515e-14 1.23624e-14 0)
(6.0427e-14 1.16323e-14 0)
(6.28353e-14 1.10142e-14 0)
(6.39666e-14 9.97941e-15 0)
(6.38844e-14 9.07801e-15 0)
(6.35323e-14 7.41812e-15 0)
(6.32484e-14 4.88898e-15 0)
(6.34301e-14 2.81883e-15 0)
(6.43754e-14 1.13697e-15 0)
(6.54914e-14 -7.71065e-16 0)
(6.61267e-14 -2.24018e-15 0)
(6.6309e-14 -2.68344e-15 0)
(6.5562e-14 -4.35656e-15 0)
(6.35165e-14 -5.54887e-15 0)
(6.10603e-14 -7.18107e-15 0)
(5.88118e-14 -8.90768e-15 0)
(5.68826e-14 -1.01077e-14 0)
(5.51203e-14 -1.18387e-14 0)
(5.47972e-14 -1.35241e-14 0)
(5.47915e-14 -1.50404e-14 0)
(5.3099e-14 -1.63648e-14 0)
(4.98889e-14 -1.71586e-14 0)
(4.64178e-14 -1.77156e-14 0)
(4.42338e-14 -1.74625e-14 0)
(4.24963e-14 -1.7242e-14 0)
(3.93698e-14 -1.66179e-14 0)
(3.52218e-14 -1.54155e-14 0)
(3.0929e-14 -1.37782e-14 0)
(2.65777e-14 -1.26404e-14 0)
(2.25498e-14 -1.12571e-14 0)
(1.87473e-14 -9.39877e-15 0)
(1.49376e-14 -6.81035e-15 0)
(1.04426e-14 -4.16448e-15 0)
(4.24504e-15 -1.51555e-15 0)
(-3.78026e-15 1.3206e-15 0)
(-1.08091e-14 3.26513e-15 0)
(-1.5966e-14 5.09981e-15 0)
(-1.94067e-14 6.50338e-15 0)
(-2.33157e-14 7.96808e-15 0)
(-2.79384e-14 8.34161e-15 0)
(-3.22107e-14 8.11182e-15 0)
(-3.56057e-14 7.53587e-15 0)
(-3.78133e-14 6.81413e-15 0)
(-3.89768e-14 6.55056e-15 0)
(-4.06265e-14 6.02506e-15 0)
(-4.32618e-14 5.707e-15 0)
(-4.54362e-14 5.74189e-15 0)
(-4.72069e-14 6.28221e-15 0)
(-4.92828e-14 7.40681e-15 0)
(-5.23086e-14 7.82045e-15 0)
(-5.60255e-14 7.30233e-15 0)
(-5.99319e-14 6.60999e-15 0)
(-6.237e-14 6.00855e-15 0)
(-6.33334e-14 5.94326e-15 0)
(-6.37245e-14 5.62855e-15 0)
(-6.27282e-14 4.73e-15 0)
(-6.03679e-14 4.60277e-15 0)
(-5.77991e-14 5.18994e-15 0)
(-5.47596e-14 5.75908e-15 0)
(-5.10615e-14 6.39209e-15 0)
(-4.84124e-14 6.22707e-15 0)
(-4.74389e-14 6.76988e-15 0)
(-4.75042e-14 7.09544e-15 0)
(-4.76445e-14 6.60173e-15 0)
(-4.74505e-14 7.22687e-15 0)
(-4.72106e-14 8.00971e-15 0)
(-4.69863e-14 8.06614e-15 0)
(-4.55125e-14 8.04237e-15 0)
(-4.38717e-14 8.26347e-15 0)
(-4.27564e-14 9.28398e-15 0)
(-4.05163e-14 1.09502e-14 0)
(-3.76709e-14 1.24324e-14 0)
(-3.40335e-14 1.39121e-14 0)
(-2.88994e-14 1.40156e-14 0)
(-2.34203e-14 1.40259e-14 0)
(-1.79226e-14 1.50524e-14 0)
(-1.24765e-14 1.61935e-14 0)
(-8.56744e-15 1.8329e-14 0)
(-6.46686e-15 2.0457e-14 0)
(-4.01969e-15 2.23556e-14 0)
(7.61113e-16 2.30274e-14 0)
(7.10373e-15 2.3326e-14 0)
(1.26681e-14 2.39108e-14 0)
(1.62866e-14 2.48381e-14 0)
(1.90614e-14 2.55423e-14 0)
(2.22768e-14 2.54463e-14 0)
(2.61794e-14 2.54956e-14 0)
(3.11926e-14 2.57482e-14 0)
(3.70061e-14 2.5859e-14 0)
(4.26044e-14 2.50801e-14 0)
(4.73356e-14 2.48588e-14 0)
(5.15657e-14 2.47825e-14 0)
(5.48053e-14 2.39033e-14 0)
(5.72945e-14 2.25151e-14 0)
(5.89892e-14 2.10591e-14 0)
(5.913e-14 2.00923e-14 0)
(5.88387e-14 1.90191e-14 0)
(5.92473e-14 1.71552e-14 0)
(6.04255e-14 1.53334e-14 0)
(6.21828e-14 1.46116e-14 0)
(6.45651e-14 1.38152e-14 0)
(6.74133e-14 1.30369e-14 0)
(6.96488e-14 1.20092e-14 0)
(7.07948e-14 1.06329e-14 0)
(7.0959e-14 9.40229e-15 0)
(7.02185e-14 8.15774e-15 0)
(6.95681e-14 6.07367e-15 0)
(7.00356e-14 3.83823e-15 0)
(7.11889e-14 1.75653e-15 0)
(7.24681e-14 -3.44131e-16 0)
(7.3572e-14 -1.87274e-15 0)
(7.35757e-14 -2.52021e-15 0)
(7.22697e-14 -4.1656e-15 0)
(6.98453e-14 -5.94178e-15 0)
(6.70462e-14 -7.96958e-15 0)
(6.47985e-14 -9.96389e-15 0)
(6.2823e-14 -1.19175e-14 0)
(6.08949e-14 -1.36117e-14 0)
(6.02769e-14 -1.51281e-14 0)
(5.98944e-14 -1.71126e-14 0)
(5.82018e-14 -1.88693e-14 0)
(5.50707e-14 -1.98127e-14 0)
(5.15632e-14 -2.00807e-14 0)
(4.9381e-14 -2.00081e-14 0)
(4.75025e-14 -1.93264e-14 0)
(4.40157e-14 -1.83407e-14 0)
(3.96224e-14 -1.70736e-14 0)
(3.47783e-14 -1.55828e-14 0)
(2.96512e-14 -1.42404e-14 0)
(2.51953e-14 -1.25187e-14 0)
(2.1148e-14 -1.07239e-14 0)
(1.69771e-14 -8.00116e-15 0)
(1.17304e-14 -4.8104e-15 0)
(4.76071e-15 -1.69986e-15 0)
(-3.94799e-15 1.30525e-15 0)
(-1.13502e-14 4.06031e-15 0)
(-1.7245e-14 6.53588e-15 0)
(-2.12638e-14 7.65612e-15 0)
(-2.55055e-14 8.14126e-15 0)
(-3.05958e-14 8.76529e-15 0)
(-3.54007e-14 9.17601e-15 0)
(-3.93864e-14 9.33022e-15 0)
(-4.18146e-14 8.61538e-15 0)
(-4.34222e-14 7.73366e-15 0)
(-4.52589e-14 6.60635e-15 0)
(-4.75712e-14 6.64391e-15 0)
(-4.9707e-14 6.9215e-15 0)
(-5.14039e-14 7.1657e-15 0)
(-5.37987e-14 7.70776e-15 0)
(-5.7624e-14 7.47867e-15 0)
(-6.17791e-14 6.98334e-15 0)
(-6.55257e-14 6.92767e-15 0)
(-6.8001e-14 7.20716e-15 0)
(-6.92795e-14 6.31716e-15 0)
(-6.98013e-14 5.25064e-15 0)
(-6.83937e-14 4.50544e-15 0)
(-6.54529e-14 5.21533e-15 0)
(-6.27085e-14 6.06679e-15 0)
(-5.97092e-14 6.71356e-15 0)
(-5.61891e-14 7.22939e-15 0)
(-5.34835e-14 7.45098e-15 0)
(-5.22993e-14 7.3446e-15 0)
(-5.24956e-14 7.37232e-15 0)
(-5.26416e-14 7.42825e-15 0)
(-5.21376e-14 7.26403e-15 0)
(-5.16893e-14 7.227e-15 0)
(-5.13414e-14 7.55434e-15 0)
(-4.97023e-14 8.11196e-15 0)
(-4.75019e-14 8.49159e-15 0)
(-4.56603e-14 9.71365e-15 0)
(-4.31242e-14 1.17881e-14 0)
(-4.02426e-14 1.3112e-14 0)
(-3.69098e-14 1.4549e-14 0)
(-3.18738e-14 1.48554e-14 0)
(-2.54768e-14 1.49941e-14 0)
(-1.90881e-14 1.61008e-14 0)
(-1.30494e-14 1.75419e-14 0)
(-8.42726e-15 1.95659e-14 0)
(-5.5848e-15 2.17195e-14 0)
(-3.00329e-15 2.40993e-14 0)
(1.3391e-15 2.59363e-14 0)
(7.5573e-15 2.63579e-14 0)
(1.36324e-14 2.6301e-14 0)
(1.79554e-14 2.65201e-14 0)
(2.08414e-14 2.71983e-14 0)
(2.44909e-14 2.74029e-14 0)
(2.92605e-14 2.77971e-14 0)
(3.46775e-14 2.8247e-14 0)
(4.03116e-14 2.8308e-14 0)
(4.60253e-14 2.76506e-14 0)
(5.15702e-14 2.68489e-14 0)
(5.60047e-14 2.65555e-14 0)
(5.92775e-14 2.572e-14 0)
(6.18783e-14 2.47977e-14 0)
(6.38249e-14 2.32784e-14 0)
(6.43388e-14 2.25016e-14 0)
(6.37943e-14 2.13532e-14 0)
(6.40115e-14 1.92645e-14 0)
(6.58359e-14 1.71536e-14 0)
(6.82539e-14 1.58085e-14 0)
(7.07569e-14 1.49354e-14 0)
(7.35984e-14 1.39656e-14 0)
(7.58793e-14 1.27683e-14 0)
(7.71348e-14 1.15711e-14 0)
(7.73723e-14 1.03225e-14 0)
(7.656e-14 8.83819e-15 0)
(7.56597e-14 7.24274e-15 0)
(7.59013e-14 5.31459e-15 0)
(7.69487e-14 2.59487e-15 0)
(7.8418e-14 4.17926e-17 0)
(8.00135e-14 -1.75239e-15 0)
(7.99485e-14 -2.87115e-15 0)
(7.8157e-14 -4.76098e-15 0)
(7.55608e-14 -6.65774e-15 0)
(7.26197e-14 -8.59708e-15 0)
(7.00488e-14 -1.05514e-14 0)
(6.79145e-14 -1.25732e-14 0)
(6.60012e-14 -1.44538e-14 0)
(6.49445e-14 -1.62679e-14 0)
(6.4191e-14 -1.89316e-14 0)
(6.26384e-14 -2.05935e-14 0)
(5.98383e-14 -2.15985e-14 0)
(5.6364e-14 -2.19644e-14 0)
(5.40524e-14 -2.16576e-14 0)
(5.20758e-14 -2.10204e-14 0)
(4.83814e-14 -2.00203e-14 0)
(4.35216e-14 -1.84464e-14 0)
(3.81229e-14 -1.71253e-14 0)
(3.27102e-14 -1.55487e-14 0)
(2.77156e-14 -1.36521e-14 0)
(2.32691e-14 -1.17493e-14 0)
(1.89964e-14 -8.94095e-15 0)
(1.31481e-14 -5.32943e-15 0)
(5.27534e-15 -1.80169e-15 0)
(-3.90765e-15 1.43412e-15 0)
(-1.14168e-14 4.45251e-15 0)
(-1.80695e-14 6.71013e-15 0)
(-2.32829e-14 8.46746e-15 0)
(-2.78969e-14 8.85059e-15 0)
(-3.29398e-14 9.23055e-15 0)
(-3.79414e-14 9.80523e-15 0)
(-4.25637e-14 1.06067e-14 0)
(-4.59499e-14 1.056e-14 0)
(-4.78502e-14 9.43692e-15 0)
(-4.92673e-14 8.21237e-15 0)
(-5.13102e-14 7.89024e-15 0)
(-5.37555e-14 7.87062e-15 0)
(-5.57243e-14 8.03951e-15 0)
(-5.85018e-14 7.95887e-15 0)
(-6.2602e-14 7.60319e-15 0)
(-6.64606e-14 7.16048e-15 0)
(-7.0022e-14 7.34594e-15 0)
(-7.3247e-14 7.47479e-15 0)
(-7.53156e-14 6.16798e-15 0)
(-7.56547e-14 5.11222e-15 0)
(-7.33475e-14 4.85618e-15 0)
(-6.9754e-14 5.90234e-15 0)
(-6.71248e-14 6.54198e-15 0)
(-6.4188e-14 6.95052e-15 0)
(-6.0634e-14 7.61401e-15 0)
(-5.82618e-14 8.0416e-15 0)
(-5.72459e-14 7.73816e-15 0)
(-5.70043e-14 7.41123e-15 0)
(-5.7093e-14 7.7031e-15 0)
(-5.67657e-14 7.55267e-15 0)
(-5.595e-14 7.39651e-15 0)
(-5.50575e-14 7.48234e-15 0)
(-5.32919e-14 7.94926e-15 0)
(-5.08752e-14 8.60964e-15 0)
(-4.81744e-14 1.0097e-14 0)
(-4.54456e-14 1.20232e-14 0)
(-4.25619e-14 1.33085e-14 0)
(-3.90659e-14 1.48827e-14 0)
(-3.41932e-14 1.58639e-14 0)
(-2.73743e-14 1.6705e-14 0)
(-2.01405e-14 1.74001e-14 0)
(-1.32358e-14 1.87952e-14 0)
(-8.02049e-15 2.07949e-14 0)
(-4.87475e-15 2.27614e-14 0)
(-1.86854e-15 2.4797e-14 0)
(2.28e-15 2.71048e-14 0)
(8.05836e-15 2.77597e-14 0)
(1.43239e-14 2.79621e-14 0)
(1.93524e-14 2.80095e-14 0)
(2.30009e-14 2.90098e-14 0)
(2.68994e-14 3.00567e-14 0)
(3.18743e-14 3.02058e-14 0)
(3.75268e-14 3.05158e-14 0)
(4.33955e-14 3.05141e-14 0)
(4.92052e-14 3.02726e-14 0)
(5.50115e-14 2.91224e-14 0)
(5.99662e-14 2.8187e-14 0)
(6.34152e-14 2.74405e-14 0)
(6.59847e-14 2.63333e-14 0)
(6.82833e-14 2.48595e-14 0)
(6.91227e-14 2.37037e-14 0)
(6.82426e-14 2.2919e-14 0)
(6.82896e-14 2.15824e-14 0)
(7.0346e-14 1.9822e-14 0)
(7.33378e-14 1.78166e-14 0)
(7.63131e-14 1.63106e-14 0)
(7.92256e-14 1.48879e-14 0)
(8.1572e-14 1.35411e-14 0)
(8.29231e-14 1.20831e-14 0)
(8.30752e-14 1.04915e-14 0)
(8.22302e-14 9.11966e-15 0)
(8.13538e-14 7.65461e-15 0)
(8.10444e-14 5.98662e-15 0)
(8.17366e-14 3.00549e-15 0)
(8.36429e-14 2.62303e-16 0)
(8.56964e-14 -1.38256e-15 0)
(8.54742e-14 -2.91824e-15 0)
(8.33899e-14 -5.13062e-15 0)
(8.06717e-14 -7.03573e-15 0)
(7.75219e-14 -8.94355e-15 0)
(7.48559e-14 -1.09156e-14 0)
(7.25296e-14 -1.31075e-14 0)
(7.03028e-14 -1.53452e-14 0)
(6.86105e-14 -1.73514e-14 0)
(6.7792e-14 -1.99846e-14 0)
(6.67184e-14 -2.13297e-14 0)
(6.38829e-14 -2.25289e-14 0)
(6.06206e-14 -2.31682e-14 0)
(5.83877e-14 -2.2657e-14 0)
(5.61557e-14 -2.2034e-14 0)
(5.24166e-14 -2.0956e-14 0)
(4.72415e-14 -1.9521e-14 0)
(4.13075e-14 -1.79203e-14 0)
(3.54399e-14 -1.60696e-14 0)
(2.99844e-14 -1.43574e-14 0)
(2.52781e-14 -1.21933e-14 0)
(2.09157e-14 -9.45633e-15 0)
(1.45884e-14 -5.82069e-15 0)
(5.7874e-15 -1.95233e-15 0)
(-3.95985e-15 1.78314e-15 0)
(-1.19889e-14 4.67086e-15 0)
(-1.89451e-14 6.47208e-15 0)
(-2.45306e-14 8.39701e-15 0)
(-3.00302e-14 9.33013e-15 0)
(-3.52685e-14 9.86224e-15 0)
(-4.00838e-14 1.07649e-14 0)
(-4.4871e-14 1.13087e-14 0)
(-4.90783e-14 1.17995e-14 0)
(-5.19312e-14 1.11651e-14 0)
(-5.35658e-14 9.87054e-15 0)
(-5.53765e-14 8.84021e-15 0)
(-5.75214e-14 8.34619e-15 0)
(-5.96092e-14 8.30863e-15 0)
(-6.27043e-14 8.00231e-15 0)
(-6.70746e-14 7.7599e-15 0)
(-7.10726e-14 7.81793e-15 0)
(-7.45987e-14 7.38299e-15 0)
(-7.83257e-14 6.90202e-15 0)
(-8.05803e-14 5.90296e-15 0)
(-8.0383e-14 5.23246e-15 0)
(-7.74334e-14 5.99102e-15 0)