/*--------------------------------*- C++ -*----------------------------------*\
| =========                 |                                                 |
| \\      /  F ield         | OpenFOAM: The Open Source CFD Toolbox           |
|  \\    /   O peration     | Version:  v2012                                 |
|   \\  /    A nd           | Website:  www.openfoam.com                      |
|    \\/     M anipulation  |                                                 |
\*---------------------------------------------------------------------------*/
FoamFile
{
    version     2.0;
    format      ascii;
    class       surfaceScalarField;
    location    "0.5";
    object      phi;
}
// * * * * * * * * * * * * * * * * * * * * * * * * * * * * * * * * * * * * * //

dimensions      [0 3 -1 0 0 0 0];
oriented        oriented;


internalField   nonuniform List<scalar> 
130560
(
3.34954e-06
-3.34954e-06
6.69886e-06
-3.34932e-06
1.00477e-05
-3.34886e-06
1.33959e-05
-3.34818e-06
1.67432e-05
-3.34728e-06
2.00893e-05
-3.34614e-06
2.34341e-05
-3.34477e-06
2.67773e-05
-3.34316e-06
3.01186e-05
-3.34132e-06
3.34578e-05
-3.33924e-06
3.67947e-05
-3.33691e-06
4.01291e-05
-3.33434e-06
4.34606e-05
-3.33151e-06
4.6789e-05
-3.32843e-06
5.01141e-05
-3.32508e-06
5.34355e-05
-3.32146e-06
5.67531e-05
-3.31757e-06
6.00665e-05
-3.3134e-06
6.33755e-05
-3.30894e-06
6.66797e-05
-3.30419e-06
6.99788e-05
-3.29914e-06
7.32726e-05
-3.29378e-06
7.65607e-05
-3.28811e-06
7.98428e-05
-3.28211e-06
8.31186e-05
-3.27578e-06
8.63877e-05
-3.26911e-06
8.96498e-05
-3.26209e-06
9.29045e-05
-3.25471e-06
9.61514e-05
-3.24696e-06
9.93903e-05
-3.23884e-06
0.000102621
-3.23033e-06
0.000105842
-3.22142e-06
0.000109054
-3.21212e-06
0.000112257
-3.20239e-06
0.000115449
-3.19224e-06
0.00011863
-3.18166e-06
0.000121801
-3.17063e-06
0.00012496
-3.15915e-06
0.000128107
-3.1472e-06
0.000131242
-3.13478e-06
0.000134364
-3.12188e-06
0.000137473
-3.10848e-06
0.000140567
-3.09458e-06
0.000143647
-3.08016e-06
0.000146713
-3.06523e-06
0.000149762
-3.04976e-06
0.000152796
-3.03375e-06
0.000155813
-3.01719e-06
0.000158813
-3.00008e-06
0.000161796
-2.9824e-06
0.00016476
-2.96414e-06
0.000167705
-2.9453e-06
0.000170631
-2.92588e-06
0.000173537
-2.90586e-06
0.000176422
-2.88523e-06
0.000179286
-2.864e-06
0.000182128
-2.84216e-06
0.000184948
-2.81969e-06
0.000187745
-2.7966e-06
0.000190517
-2.77289e-06
0.000193266
-2.74854e-06
0.00019599
-2.72356e-06
0.000198687
-2.69794e-06
0.000201359
-2.67168e-06
0.000204004
-2.64478e-06
0.000206621
-2.61723e-06
0.00020921
-2.58905e-06
0.00021177
-2.56022e-06
0.000214301
-2.53075e-06
0.000216802
-2.50064e-06
0.000219272
-2.4699e-06
0.00022171
-2.43851e-06
0.000224117
-2.4065e-06
0.000226491
-2.37386e-06
0.000228831
-2.34059e-06
0.000231138
-2.30671e-06
0.00023341
-2.27222e-06
0.000235647
-2.23712e-06
0.000237849
-2.20142e-06
0.000240014
-2.16513e-06
0.000242142
-2.12825e-06
0.000244233
-2.0908e-06
0.000246286
-2.05279e-06
0.0002483
-2.01422e-06
0.000250275
-1.97511e-06
0.00025221
-1.93546e-06
0.000254106
-1.89529e-06
0.00025596
-1.8546e-06
0.000257774
-1.81342e-06
0.000259545
-1.77175e-06
0.000261275
-1.7296e-06
0.000262962
-1.687e-06
0.000264606
-1.64394e-06
0.000266206
-1.60045e-06
0.000267763
-1.55654e-06
0.000269275
-1.51223e-06
0.000270743
-1.46752e-06
0.000272165
-1.42244e-06
0.000273542
-1.377e-06
0.000274873
-1.3312e-06
0.000276158
-1.28508e-06
0.000277397
-1.23864e-06
0.000278589
-1.19189e-06
0.000279734
-1.14486e-06
0.000280831
-1.09756e-06
0.000281881
-1.05e-06
0.000282884
-1.0022e-06
0.000283838
-9.54175e-07
0.000284744
-9.05937e-07
0.000285601
-8.57502e-07
0.00028641
-8.08885e-07
0.00028717
-7.60101e-07
0.000287881
-7.11163e-07
0.000288543
-6.62088e-07
0.000289156
-6.12887e-07
0.00028972
-5.63577e-07
0.000290234
-5.1417e-07
0.000290699
-4.6468e-07
0.000291114
-4.15121e-07
0.000291479
-3.65505e-07
0.000291795
-3.15847e-07
0.000292061
-2.66159e-07
0.000292278
-2.16454e-07
0.000292445
-1.66744e-07
0.000292562
-1.17042e-07
0.000292629
-6.73601e-08
0.000292647
-1.77105e-08
0.000292615
3.18948e-08
0.000292533
8.1444e-08
0.000292402
1.30925e-07
0.000292222
1.80327e-07
0.000291993
2.29638e-07
0.000291714
2.78847e-07
0.000291386
3.27942e-07
0.000291009
3.76913e-07
0.000290583
4.25747e-07
0.000290109
4.74435e-07
0.000289586
5.22964e-07
0.000289014
5.71325e-07
0.000288395
6.19505e-07
0.000287727
6.67494e-07
0.000287012
7.15282e-07
0.000286249
7.62856e-07
0.000285439
8.10207e-07
0.000284582
8.57324e-07
0.000283677
9.04195e-07
0.000282727
9.5081e-07
0.00028173
9.97158e-07
0.000280686
1.04323e-06
0.000279597
1.08901e-06
0.000278463
1.13449e-06
0.000277283
1.17966e-06
0.000276059
1.22451e-06
0.00027479
1.26902e-06
0.000273476
1.3132e-06
0.000272119
1.35702e-06
0.000270719
1.40047e-06
0.000269275
1.44355e-06
0.000267789
1.48625e-06
0.000266261
1.52855e-06
0.00026469
1.57044e-06
0.000263078
1.61192e-06
0.000261425
1.65296e-06
0.000259732
1.69358e-06
0.000257998
1.73374e-06
0.000256224
1.77346e-06
0.000254412
1.8127e-06
0.00025256
1.85147e-06
0.000250671
1.88976e-06
0.000248743
1.92756e-06
0.000246778
1.96486e-06
0.000244776
2.00164e-06
0.000242739
2.03792e-06
0.000240665
2.07367e-06
0.000238556
2.10889e-06
0.000236412
2.14357e-06
0.000234235
2.17771e-06
0.000232023
2.2113e-06
0.000229779
2.24434e-06
0.000227502
2.27681e-06
0.000225194
2.30872e-06
0.000222853
2.34007e-06
0.000220483
2.37084e-06
0.000218082
2.40103e-06
0.000215651
2.43065e-06
0.000213191
2.45968e-06
0.000210703
2.48814e-06
0.000208187
2.516e-06
0.000205644
2.54329e-06
0.000203074
2.56998e-06
0.000200478
2.59609e-06
0.000197856
2.62162e-06
0.00019521
2.64655e-06
0.000192539
2.67091e-06
0.000189844
2.69468e-06
0.000187126
2.71788e-06
0.000184386
2.7405e-06
0.000181623
2.76254e-06
0.000178839
2.78401e-06
0.000176034
2.80492e-06
0.000173209
2.82526e-06
0.000170364
2.84505e-06
0.0001675
2.86429e-06
0.000164617
2.88297e-06
0.000161715
2.90112e-06
0.000158797
2.91873e-06
0.000155861
2.93581e-06
0.000152909
2.95237e-06
0.00014994
2.96842e-06
0.000146956
2.98395e-06
0.000143957
2.99899e-06
0.000140944
3.01353e-06
0.000137916
3.02759e-06
0.000134875
3.04117e-06
0.000131821
3.05428e-06
0.000128754
3.06692e-06
0.000125675
3.07912e-06
0.000122584
3.09087e-06
0.000119482
3.10218e-06
0.000116368
3.11307e-06
0.000113245
3.12354e-06
0.000110111
3.13359e-06
0.000106968
3.14325e-06
0.000103816
3.15251e-06
0.000100654
3.16138e-06
9.74843e-05
3.16988e-06
9.43063e-05
3.17802e-06
9.11205e-05
3.18579e-06
8.79273e-05
3.19321e-06
8.4727e-05
3.20028e-06
8.152e-05
3.20702e-06
7.83066e-05
3.21344e-06
7.5087e-05
3.21953e-06
7.18617e-05
3.22531e-06
6.8631e-05
3.23078e-06
6.5395e-05
3.23595e-06
6.21542e-05
3.24083e-06
5.89087e-05
3.24543e-06
5.5659e-05
3.24974e-06
5.24052e-05
3.25379e-06
4.91476e-05
3.25756e-06
4.58866e-05
3.26107e-06
4.26223e-05
3.26432e-06
3.93549e-05
3.26732e-06
3.60849e-05
3.27007e-06
3.28123e-05
3.27258e-06
2.95374e-05
3.27485e-06
2.62606e-05
3.27688e-06
2.29819e-05
3.27867e-06
1.97016e-05
3.28024e-06
1.64201e-05
3.28158e-06
1.31374e-05
3.28269e-06
9.85381e-06
3.28357e-06
6.56957e-06
3.28424e-06
3.2849e-06
3.28468e-06
3.2849e-06
3.34977e-06
-6.69931e-06
6.6993e-06
-6.69886e-06
1.00484e-05
-6.69795e-06
1.33968e-05
-6.69659e-06
1.67443e-05
-6.69478e-06
2.00907e-05
-6.69251e-06
2.34357e-05
-6.68977e-06
2.67791e-05
-6.68657e-06
3.01206e-05
-6.68289e-06
3.34601e-05
-6.67872e-06
3.67973e-05
-6.67407e-06
4.01319e-05
-6.66893e-06
4.34636e-05
-6.66328e-06
4.67923e-05
-6.65711e-06
5.01177e-05
-6.65042e-06
5.34394e-05
-6.6432e-06
5.67573e-05
-6.63542e-06
6.00709e-05
-6.62709e-06
6.33802e-05
-6.61818e-06
6.66847e-05
-6.60869e-06
6.99841e-05
-6.59859e-06
7.32782e-05
-6.58788e-06
7.65667e-05
-6.57654e-06
7.98491e-05
-6.56455e-06
8.31252e-05
-6.55189e-06
8.63947e-05
-6.53856e-06
8.96571e-05
-6.52453e-06
9.29122e-05
-6.50978e-06
9.61595e-05
-6.49429e-06
9.93987e-05
-6.47806e-06
0.000102629
-6.46105e-06
0.000105851
-6.44325e-06
0.000109064
-6.42464e-06
0.000112267
-6.40521e-06
0.000115459
-6.38492e-06
0.000118641
-6.36376e-06
0.000121812
-6.34172e-06
0.000124972
-6.31876e-06
0.00012812
-6.29488e-06
0.000131255
-6.27005e-06
0.000134377
-6.24425e-06
0.000137486
-6.21746e-06
0.000140581
-6.18967e-06
0.000143662
-6.16085e-06
0.000146728
-6.13099e-06
0.000149778
-6.10006e-06
0.000152813
-6.06805e-06
0.00015583
-6.03494e-06
0.000158831
-6.00072e-06
0.000161814
-5.96536e-06
0.000164779
-5.92886e-06
0.000167725
-5.89119e-06
0.000170651
-5.85235e-06
0.000173557
-5.81231e-06
0.000176443
-5.77107e-06
0.000179308
-5.72862e-06
0.000182151
-5.68493e-06
0.000184971
-5.64001e-06
0.000187768
-5.59384e-06
0.000190542
-5.54641e-06
0.000193291
-5.49772e-06
0.000196015
-5.44775e-06
0.000198714
-5.39651e-06
0.000201386
-5.344e-06
0.000204031
-5.2902e-06
0.000206649
-5.23511e-06
0.000209239
-5.17874e-06
0.0002118
-5.12108e-06
0.000214331
-5.06214e-06
0.000216833
-5.00192e-06
0.000219303
-4.94043e-06
0.000221742
-4.87766e-06
0.000224149
-4.81363e-06
0.000226524
-4.74834e-06
0.000228865
-4.68181e-06
0.000231172
-4.61404e-06
0.000233445
-4.54504e-06
0.000235683
-4.47483e-06
0.000237885
-4.40343e-06
0.000240051
-4.33084e-06
0.000242179
-4.25708e-06
0.000244271
-4.18217e-06
0.000246324
-4.10614e-06
0.000248339
-4.02899e-06
0.000250315
-3.95075e-06
0.000252251
-3.87144e-06
0.000254146
-3.79108e-06
0.000256001
-3.7097e-06
0.000257815
-3.62732e-06
0.000259588
-3.54397e-06
0.000261318
-3.45967e-06
0.000263005
-3.37444e-06
0.000264649
-3.28832e-06
0.00026625
-3.20133e-06
0.000267807
-3.11349e-06
0.00026932
-3.02485e-06
0.000270788
-2.93542e-06
0.000272211
-2.84524e-06
0.000273588
-2.75434e-06
0.000274919
-2.66274e-06
0.000276205
-2.57048e-06
0.000277444
-2.47758e-06
0.000278636
-2.38408e-06
0.000279781
-2.29e-06
0.000280879
-2.19538e-06
0.000281929
-2.10025e-06
0.000282932
-2.00463e-06
0.000283886
-1.90856e-06
0.000284792
-1.81207e-06
0.00028565
-1.71519e-06
0.000286459
-1.61794e-06
0.000287219
-1.52036e-06
0.00028793
-1.42247e-06
0.000288593
-1.3243e-06
0.000289206
-1.22589e-06
0.000289769
-1.12725e-06
0.000290284
-1.02842e-06
0.000290748
-9.29431e-07
0.000291164
-8.303e-07
0.000291529
-7.31056e-07
0.000291845
-6.31727e-07
0.000292111
-5.32338e-07
0.000292328
-4.32914e-07
0.000292494
-3.33482e-07
0.000292611
-2.34066e-07
0.000292679
-1.3469e-07
0.000292696
-3.53788e-08
0.000292664
6.38437e-08
0.000292583
1.62954e-07
0.000292452
2.61928e-07
0.000292271
3.60744e-07
0.000292042
4.59377e-07
0.000291763
5.57806e-07
0.000291435
6.56008e-07
0.000291058
7.5396e-07
0.000290632
8.5164e-07
0.000290157
9.49026e-07
0.000289634
1.0461e-06
0.000289063
1.14283e-06
0.000288443
1.2392e-06
0.000287775
1.33519e-06
0.00028706
1.43077e-06
0.000286297
1.52593e-06
0.000285486
1.62065e-06
0.000284629
1.71489e-06
0.000283724
1.80864e-06
0.000282773
1.90189e-06
0.000281776
1.99459e-06
0.000280732
2.08674e-06
0.000279643
2.17831e-06
0.000278508
2.26929e-06
0.000277328
2.35964e-06
0.000276103
2.44935e-06
0.000274834
2.53839e-06
0.00027352
2.62675e-06
0.000272163
2.7144e-06
0.000270762
2.80132e-06
0.000269318
2.88749e-06
0.000267831
2.97289e-06
0.000266303
3.0575e-06
0.000264732
3.14129e-06
0.000263119
3.22426e-06
0.000261466
3.30637e-06
0.000259772
3.3876e-06
0.000258038
3.46794e-06
0.000256264
3.54737e-06
0.000254451
3.62588e-06
0.000252599
3.70343e-06
0.000250708
3.78001e-06
0.00024878
3.85562e-06
0.000246815
3.93022e-06
0.000244813
4.0038e-06
0.000242774
4.07636e-06
0.0002407
4.14786e-06
0.000238591
4.21831e-06
0.000236447
4.28768e-06
0.000234268
4.35597e-06
0.000232057
4.42315e-06
0.000229812
4.48923e-06
0.000227534
4.55419e-06
0.000225225
4.61802e-06
0.000222884
4.68071e-06
0.000220513
4.74225e-06
0.000218111
4.80264e-06
0.00021568
4.86188e-06
0.00021322
4.91995e-06
0.000210731
4.97686e-06
0.000208214
5.03259e-06
0.000205671
5.08716e-06
0.0002031
5.14055e-06
0.000200503
5.19277e-06
0.000197881
5.24382e-06
0.000195234
5.29369e-06
0.000192563
5.3424e-06
0.000189867
5.38995e-06
0.000187149
5.43633e-06
0.000184408
5.48157e-06
0.000181645
5.52565e-06
0.00017886
5.56859e-06
0.000176055
5.6104e-06
0.000173229
5.65109e-06
0.000170383
5.69065e-06
0.000167518
5.72912e-06
0.000164635
5.76649e-06
0.000161733
5.80278e-06
0.000158814
5.83799e-06
0.000155878
5.87215e-06
0.000152925
5.90526e-06
0.000149956
5.93734e-06
0.000146971
5.96841e-06
0.000143972
5.99847e-06
0.000140958
6.02755e-06
0.00013793
6.05565e-06
0.000134888
6.0828e-06
0.000131833
6.10901e-06
0.000128766
6.1343e-06
0.000125686
6.15868e-06
0.000122595
6.18217e-06
0.000119492
6.20479e-06
0.000116379
6.22656e-06
0.000113255
6.24748e-06
0.000110121
6.26759e-06
0.000106977
6.28689e-06
0.000103825
6.3054e-06
0.000100663
6.32315e-06
9.74925e-05
6.34014e-06
9.43141e-05
6.35639e-06
9.1128e-05
6.37193e-06
8.79344e-05
6.38676e-06
8.47338e-05
6.40091e-06
8.15265e-05
6.41438e-06
7.83127e-05
6.4272e-06
7.50929e-05
6.43937e-06
7.18672e-05
6.45092e-06
6.86362e-05
6.46186e-06
6.53999e-05
6.4722e-06
6.21588e-05
6.48196e-06
5.89131e-05
6.49114e-06
5.56631e-05
6.49976e-06
5.2409e-05
6.50784e-06
4.91512e-05
6.51538e-06
4.58899e-05
6.5224e-06
4.26253e-05
6.5289e-06
3.93577e-05
6.53489e-06
3.60874e-05
6.54039e-06
3.28146e-05
6.5454e-06
2.95395e-05
6.54993e-06
2.62624e-05
6.55399e-06
2.29835e-05
6.55758e-06
1.9703e-05
6.56071e-06
1.64212e-05
6.56338e-06
1.31383e-05
6.5656e-06
9.85448e-06
6.56737e-06
6.57002e-06
6.5687e-06
3.28512e-06
6.56958e-06
6.57002e-06
3.35022e-06
-1.00495e-05
6.70021e-06
-1.00488e-05
1.00498e-05
-1.00475e-05
1.33986e-05
-1.00455e-05
1.67466e-05
-1.00427e-05
2.00934e-05
-1.00393e-05
2.34389e-05
-1.00352e-05
2.67828e-05
-1.00304e-05
3.01248e-05
-1.00249e-05
3.34648e-05
-1.00187e-05
3.68024e-05
-1.00117e-05
4.01375e-05
-1.0004e-05
4.34698e-05
-9.99556e-06
4.6799e-05
-9.98633e-06
5.01249e-05
-9.97631e-06
5.34472e-05
-9.96548e-06
5.67656e-05
-9.95383e-06
6.00799e-05
-9.94135e-06
6.33897e-05
-9.92801e-06
6.66948e-05
-9.91378e-06
6.99949e-05
-9.89866e-06
7.32896e-05
-9.88261e-06
7.65787e-05
-9.86562e-06
7.98618e-05
-9.84765e-06
8.31386e-05
-9.82869e-06
8.64087e-05
-9.80871e-06
8.96719e-05
-9.78769e-06
9.29277e-05
-9.76558e-06
9.61758e-05
-9.74238e-06
9.94158e-05
-9.71805e-06
0.000102647
-9.69256e-06
0.00010587
-9.66589e-06
0.000109083
-9.638e-06
0.000112287
-9.60887e-06
0.00011548
-9.57846e-06
0.000118663
-9.54676e-06
0.000121835
-9.51371e-06
0.000124996
-9.47931e-06
0.000128145
-9.44351e-06
0.000131281
-9.40628e-06
0.000134404
-9.36761e-06
0.000137514
-9.32745e-06
0.00014061
-9.28579e-06
0.000143692
-9.24258e-06
0.000146759
-9.19781e-06
0.00014981
-9.15144e-06
0.000152846
-9.10345e-06
0.000155865
-9.05381e-06
0.000158866
-9.00249e-06
0.00016185
-8.94948e-06
0.000164816
-8.89474e-06
0.000167763
-8.83826e-06
0.000170691
-8.78001e-06
0.000173599
-8.71998e-06
0.000176486
-8.65813e-06
0.000179352
-8.59446e-06
0.000182196
-8.52894e-06
0.000185017
-8.46157e-06
0.000187816
-8.39232e-06
0.00019059
-8.32119e-06
0.000193341
-8.24816e-06
0.000196066
-8.17322e-06
0.000198766
-8.09637e-06
0.00020144
-8.0176e-06
0.000204087
-7.9369e-06
0.000206706
-7.85427e-06
0.000209297
-7.76971e-06
0.000211859
-7.68323e-06
0.000214391
-7.59481e-06
0.000216894
-7.50448e-06
0.000219366
-7.41223e-06
0.000221806
-7.31807e-06
0.000224215
-7.22201e-06
0.00022659
-7.12407e-06
0.000228933
-7.02426e-06
0.000231241
-6.92259e-06
0.000233515
-6.81908e-06
0.000235754
-6.71375e-06
0.000237958
-6.60662e-06
0.000240124
-6.49771e-06
0.000242254
-6.38706e-06
0.000244347
-6.27467e-06
0.000246401
-6.16059e-06
0.000248417
-6.04485e-06
0.000250394
-5.92746e-06
0.000252331
-5.80847e-06
0.000254228
-5.68791e-06
0.000256084
-5.56581e-06
0.000257899
-5.44221e-06
0.000259672
-5.31714e-06
0.000261403
-5.19065e-06
0.000263091
-5.06278e-06
0.000264736
-4.93356e-06
0.000266338
-4.80304e-06
0.000267896
-4.67126e-06
0.000269409
-4.53826e-06
0.000270878
-4.40408e-06
0.000272302
-4.26877e-06
0.00027368
-4.13238e-06
0.000275012
-3.99494e-06
0.000276298
-3.85651e-06
0.000277537
-3.71712e-06
0.00027873
-3.57683e-06
0.000279876
-3.43568e-06
0.000280974
-3.29371e-06
0.000282025
-3.15098e-06
0.000283028
-3.00752e-06
0.000283983
-2.86338e-06
0.000284889
-2.7186e-06
0.000285747
-2.57324e-06
0.000286556
-2.42733e-06
0.000287317
-2.28092e-06
0.000288029
-2.13405e-06
0.000288691
-1.98676e-06
0.000289304
-1.83911e-06
0.000289868
-1.69112e-06
0.000290383
-1.54284e-06
0.000290847
-1.39432e-06
0.000291263
-1.24559e-06
0.000291628
-1.09669e-06
0.000291944
-9.47665e-07
0.000292211
-7.98549e-07
0.000292427
-6.49383e-07
0.000292594
-5.00204e-07
0.000292711
-3.51049e-07
0.000292778
-2.01954e-07
0.000292796
-5.29578e-08
0.000292764
9.59055e-08
0.000292682
2.446e-07
0.000292551
3.93091e-07
0.00029237
5.41342e-07
0.00029214
6.89321e-07
0.000291861
8.36993e-07
0.000291533
9.84323e-07
0.000291155
1.13128e-06
0.000290729
1.27783e-06
0.000290254
1.42393e-06
0.000289731
1.56957e-06
0.000289159
1.71469e-06
0.000288539
1.85928e-06
0.000287871
2.00329e-06
0.000287155
2.14669e-06
0.000286391
2.28946e-06
0.00028558
2.43156e-06
0.000284722
2.57295e-06
0.000283817
2.71361e-06
0.000282866
2.8535e-06
0.000281868
2.99258e-06
0.000280824
3.13083e-06
0.000279734
3.26822e-06
0.000278598
3.40471e-06
0.000277418
3.54026e-06
0.000276192
3.67485e-06
0.000274922
3.80844e-06
0.000273608
3.94101e-06
0.00027225
4.07251e-06
0.000270848
4.20292e-06
0.000269403
4.3322e-06
0.000267916
4.46033e-06
0.000266386
4.58726e-06
0.000264815
4.71298e-06
0.000263201
4.83745e-06
0.000261547
4.96064e-06
0.000259852
5.08252e-06
0.000258117
5.20305e-06
0.000256342
5.32223e-06
0.000254528
5.44e-06
0.000252675
5.55635e-06
0.000250784
5.67125e-06
0.000248855
5.78467e-06
0.000246889
5.8966e-06
0.000244885
6.00699e-06
0.000242846
6.11584e-06
0.000240771
6.22312e-06
0.00023866
6.32881e-06
0.000236515
6.43288e-06
0.000234336
6.53532e-06
0.000232123
6.63612e-06
0.000229877
6.73525e-06
0.000227598
6.83269e-06
0.000225288
6.92845e-06
0.000222946
7.02249e-06
0.000220573
7.11482e-06
0.000218171
7.20541e-06
0.000215738
7.29427e-06
0.000213277
7.38138e-06
0.000210787
7.46675e-06
0.000208269
7.55035e-06
0.000205724
7.6322e-06
0.000203152
7.71229e-06
0.000200554
7.79062e-06
0.000197931
7.86719e-06
0.000195283
7.942e-06
0.00019261
8.01506e-06
0.000189914
8.08637e-06
0.000187194
8.15594e-06
0.000184452
8.22378e-06
0.000181688
8.2899e-06
0.000178902
8.3543e-06
0.000176095
8.41701e-06
0.000173268
8.47802e-06
0.000170422
8.53736e-06
0.000167556
8.59505e-06
0.000164671
8.65109e-06
0.000161768
8.7055e-06
0.000158848
8.75831e-06
0.000155911
8.80953e-06
0.000152957
8.85918e-06
0.000149987
8.90729e-06
0.000147001
8.95387e-06
0.000144001
8.99894e-06
0.000140986
9.04254e-06
0.000137957
9.08467e-06
0.000134914
9.12538e-06
0.000131859
9.16467e-06
0.00012879
9.20258e-06
0.00012571
9.23913e-06
0.000122618
9.27435e-06
0.000119514
9.30826e-06
0.0001164
9.34088e-06
0.000113275
9.37225e-06
0.00011014
9.40239e-06
0.000106996
9.43132e-06
0.000103842
9.45907e-06
0.00010068
9.48566e-06
9.75088e-05
9.51113e-06
9.43297e-05
9.53549e-06
9.11428e-05
9.55877e-06
8.79486e-05
9.581e-06
8.47473e-05
9.6022e-06
8.15393e-05
9.62239e-06
7.83249e-05
9.6416e-06
7.51044e-05
9.65984e-06
7.18782e-05
9.67715e-06
6.86465e-05
9.69354e-06
6.54097e-05
9.70903e-06
6.2168e-05
9.72365e-06
5.89217e-05
9.73741e-06
5.56711e-05
9.75033e-06
5.24165e-05
9.76243e-06
4.91582e-05
9.77373e-06
4.58963e-05
9.78424e-06
4.26313e-05
9.79398e-06
3.93632e-05
9.80296e-06
3.60924e-05
9.8112e-06
3.28191e-05
9.8187e-06
2.95435e-05
9.82549e-06
2.6266e-05
9.83157e-06
2.29866e-05
9.83695e-06
1.97057e-05
9.84163e-06
1.64234e-05
9.84563e-06
1.314e-05
9.84896e-06
9.8558e-06
9.85161e-06
6.5709e-06
9.8536e-06
3.28556e-06
9.85492e-06
9.85558e-06
3.35089e-06
-1.34004e-05
6.70157e-06
-1.33995e-05
1.00518e-05
-1.33977e-05
1.34013e-05
-1.3395e-05
1.675e-05
-1.33914e-05
2.00975e-05
-1.33869e-05
2.34437e-05
-1.33814e-05
2.67883e-05
-1.3375e-05
3.01311e-05
-1.33677e-05
3.34718e-05
-1.33594e-05
3.68102e-05
-1.33501e-05
4.0146e-05
-1.33399e-05
4.34791e-05
-1.33286e-05
4.68091e-05
-1.33163e-05
5.01358e-05
-1.3303e-05
5.34589e-05
-1.32886e-05
5.67781e-05
-1.32731e-05
6.00932e-05
-1.32565e-05
6.34039e-05
-1.32387e-05
6.67099e-05
-1.32198e-05
7.00109e-05
-1.31996e-05
7.33066e-05
-1.31783e-05
7.65966e-05
-1.31557e-05
7.98807e-05
-1.31318e-05
8.31586e-05
-1.31065e-05
8.64298e-05
-1.30799e-05
8.9694e-05
-1.30519e-05
9.29509e-05
-1.30225e-05
9.62001e-05
-1.29916e-05
9.94413e-05
-1.29592e-05
0.000102674
-1.29253e-05
0.000105898
-1.28897e-05
0.000109112
-1.28526e-05
0.000112317
-1.28138e-05
0.000115512
-1.27733e-05
0.000118697
-1.27311e-05
0.00012187
-1.26871e-05
0.000125032
-1.26412e-05
0.000128182
-1.25936e-05
0.00013132
-1.2544e-05
0.000134444
-1.24925e-05
0.000137556
-1.2439e-05
0.000140654
-1.23834e-05
0.000143737
-1.23259e-05
0.000146805
-1.22662e-05
0.000149858
-1.22044e-05
0.000152895
-1.21405e-05
0.000155916
-1.20743e-05
0.000158919
-1.2006e-05
0.000161905
-1.19353e-05
0.000164873
-1.18624e-05
0.000167822
-1.17871e-05
0.000170751
-1.17095e-05
0.000173661
-1.16294e-05
0.000176549
-1.1547e-05
0.000179417
-1.14621e-05
0.000182263
-1.13748e-05
0.000185086
-1.1285e-05
0.000187887
-1.11927e-05
0.000190664
-1.10979e-05
0.000193416
-1.10005e-05
0.000196143
-1.09006e-05
0.000198845
-1.07981e-05
0.000201521
-1.06931e-05
0.000204169
-1.05855e-05
0.00020679
-1.04754e-05
0.000209383
-1.03626e-05
0.000211947
-1.02473e-05
0.000214482
-1.01294e-05
0.000216986
-1.0009e-05
0.00021946
-9.88594e-06
0.000221902
-9.76038e-06
0.000224313
-9.63228e-06
0.00022669
-9.50167e-06
0.000229035
-9.36856e-06
0.000231345
-9.23297e-06
0.000233621
-9.09493e-06
0.000235861
-8.95446e-06
0.000238066
-8.81158e-06
0.000240235
-8.66634e-06
0.000242367
-8.51876e-06
0.000244461
-8.36887e-06
0.000246517
-8.21672e-06
0.000248535
-8.06234e-06
0.000250513
-7.90578e-06
0.000252452
-7.74707e-06
0.00025435
-7.58626e-06
0.000256207
-7.42341e-06
0.000258024
-7.25855e-06
0.000259798
-7.09174e-06
0.000261531
-6.92303e-06
0.00026322
-6.75246e-06
0.000264867
-6.58011e-06
0.00026647
-6.40601e-06
0.000268029
-6.23024e-06
0.000269544
-6.05283e-06
0.000271013
-5.87386e-06
0.000272438
-5.69338e-06
0.000273817
-5.51146e-06
0.00027515
-5.32814e-06
0.000276437
-5.14349e-06
0.000277678
-4.95757e-06
0.000278871
-4.77045e-06
0.000280018
-4.58217e-06
0.000281117
-4.39281e-06
0.000282168
-4.20243e-06
0.000283172
-4.01108e-06
0.000284127
-3.81882e-06
0.000285034
-3.62572e-06
0.000285893
-3.43183e-06
0.000286703
-3.23722e-06
0.000287464
-3.04193e-06
0.000288176
-2.84604e-06
0.000288839
-2.6496e-06
0.000289452
-2.45266e-06
0.000290016
-2.25528e-06
0.000290531
-2.05751e-06
0.000290996
-1.85942e-06
0.000291412
-1.66105e-06
0.000291777
-1.46245e-06
0.000292093
-1.26369e-06
0.00029236
-1.06481e-06
0.000292576
-8.65864e-07
0.000292743
-6.669e-07
0.00029286
-4.67969e-07
0.000292927
-2.69121e-07
0.000292944
-7.04024e-08
0.000292912
1.28137e-07
0.00029283
3.26451e-07
0.000292699
5.24493e-07
0.000292518
7.22215e-07
0.000292288
9.19573e-07
0.000292008
1.11652e-06
0.00029168
1.31301e-06
0.000291302
1.50901e-06
0.000290875
1.70446e-06
0.0002904
1.89932e-06
0.000289876
2.09354e-06
0.000289303
2.28709e-06
0.000288683
2.47993e-06
0.000288014
2.67199e-06
0.000287298
2.86325e-06
0.000286533
3.05366e-06
0.000285722
3.24317e-06
0.000284863
3.43175e-06
0.000283957
3.61934e-06
0.000283005
3.80591e-06
0.000282006
3.99141e-06
0.000280961
4.17579e-06
0.00027987
4.35903e-06
0.000278734
4.54106e-06
0.000277552
4.72185e-06
0.000276326
4.90135e-06
0.000275055
5.07953e-06
0.000273739
5.25633e-06
0.00027238
5.43171e-06
0.000270977
5.60564e-06
0.000269532
5.77807e-06
0.000268043
5.94895e-06
0.000266512
6.11825e-06
0.000264939
6.28592e-06
0.000263325
6.45193e-06
0.000261669
6.61622e-06
0.000259973
6.77877e-06
0.000258236
6.93953e-06
0.00025646
7.09847e-06
0.000254644
7.25555e-06
0.00025279
7.41072e-06
0.000250897
7.56396e-06
0.000248967
7.71523e-06
0.000246999
7.8645e-06
0.000244994
8.01174e-06
0.000242953
8.1569e-06
0.000240876
8.29997e-06
0.000238764
8.44092e-06
0.000236617
8.57971e-06
0.000234436
8.71633e-06
0.000232222
8.85075e-06
0.000229974
8.98294e-06
0.000227694
9.11289e-06
0.000225382
9.24058e-06
0.000223038
9.36599e-06
0.000220664
9.48911e-06
0.000218259
9.60992e-06
0.000215825
9.72841e-06
0.000213362
9.84457e-06
0.00021087
9.95839e-06
0.000208351
1.00699e-05
0.000205804
1.0179e-05
0.000203231
1.02858e-05
0.000200631
1.03902e-05
0.000198006
1.04923e-05
0.000195356
1.05921e-05
0.000192681
1.06895e-05
0.000189983
1.07845e-05
0.000187262
1.08773e-05
0.000184518
1.09677e-05
0.000181752
1.10559e-05
0.000178965
1.11417e-05
0.000176156
1.12253e-05
0.000173328
1.13066e-05
0.000170479
1.13857e-05
0.000167612
1.14626e-05
0.000164725
1.15373e-05
0.000161821
1.16098e-05
0.000158899
1.16802e-05
0.00015596
1.17485e-05
0.000153005
1.18146e-05
0.000150033
1.18788e-05
0.000147046
1.19408e-05
0.000144044
1.20009e-05
0.000141028
1.2059e-05
0.000137998
1.21151e-05
0.000134954
1.21694e-05
0.000131896
1.22217e-05
0.000128827
1.22722e-05
0.000125745
1.23209e-05
0.000122652
1.23678e-05
0.000119547
1.2413e-05
0.000116431
1.24565e-05
0.000113305
1.24982e-05
0.000110169
1.25384e-05
0.000107024
1.25769e-05
0.000103869
1.26139e-05
0.000100705
1.26493e-05
9.75331e-05
1.26832e-05
9.43529e-05
1.27157e-05
9.1165e-05
1.27467e-05
8.79697e-05
1.27763e-05
8.47674e-05
1.28045e-05
8.15585e-05
1.28314e-05
7.83431e-05
1.2857e-05
7.51217e-05
1.28813e-05
7.18945e-05
1.29043e-05
6.8662e-05
1.29261e-05
6.54243e-05
1.29467e-05
6.21817e-05
1.29662e-05
5.89346e-05
1.29845e-05
5.56832e-05
1.30017e-05
5.24278e-05
1.30178e-05
4.91687e-05
1.30329e-05
4.59061e-05
1.30469e-05
4.26402e-05
1.30598e-05
3.93714e-05
1.30718e-05
3.60999e-05
1.30827e-05
3.28259e-05
1.30927e-05
2.95496e-05
1.31018e-05
2.62713e-05
1.31098e-05
2.29913e-05
1.3117e-05
1.97097e-05
1.31232e-05
1.64267e-05
1.31286e-05
1.31427e-05
1.3133e-05
9.85779e-06
1.31365e-05
6.57222e-06
1.31392e-05
3.28622e-06
1.31409e-05
1.31418e-05
3.3518e-06
-1.67522e-05
6.70337e-06
-1.67511e-05
1.00545e-05
-1.67488e-05
1.3405e-05
-1.67455e-05
1.67545e-05
-1.6741e-05
2.0103e-05
-1.67353e-05
2.34501e-05
-1.67285e-05
2.67956e-05
-1.67206e-05
3.01394e-05
-1.67114e-05
3.3481e-05
-1.67011e-05
3.68204e-05
-1.66895e-05
4.01573e-05
-1.66767e-05
4.34914e-05
-1.66627e-05
4.68224e-05
-1.66474e-05
5.01502e-05
-1.66307e-05
5.34744e-05
-1.66128e-05
5.67947e-05
-1.65935e-05
6.0111e-05
-1.65727e-05
6.34229e-05
-1.65506e-05
6.67301e-05
-1.6527e-05
7.00323e-05
-1.65019e-05
7.33292e-05
-1.64752e-05
7.66206e-05
-1.6447e-05
7.9906e-05
-1.64172e-05
8.31852e-05
-1.63857e-05
8.64578e-05
-1.63525e-05
8.97235e-05
-1.63176e-05
9.29818e-05
-1.62809e-05
9.62326e-05
-1.62423e-05
9.94752e-05
-1.62019e-05
0.00010271
-1.61595e-05
0.000105935
-1.61152e-05
0.000109151
-1.60689e-05
0.000112358
-1.60204e-05
0.000115554
-1.59699e-05
0.000118741
-1.59172e-05
0.000121916
-1.58622e-05
0.00012508
-1.5805e-05
0.000128232
-1.57455e-05
0.000131371
-1.56836e-05
0.000134498
-1.56193e-05
0.000137611
-1.55525e-05
0.000140711
-1.54832e-05
0.000143797
-1.54113e-05
0.000146867
-1.53368e-05
0.000149922
-1.52596e-05
0.000152962
-1.51797e-05
0.000155984
-1.50971e-05
0.00015899
-1.50117e-05
0.000161978
-1.49235e-05
0.000164948
-1.48323e-05
0.000167899
-1.47383e-05
0.000170831
-1.46413e-05
0.000173743
-1.45413e-05
0.000176634
-1.44383e-05
0.000179505
-1.43323e-05
0.000182353
-1.42232e-05
0.000185179
-1.41109e-05
0.000187982
-1.39956e-05
0.000190761
-1.38771e-05
0.000193516
-1.37554e-05
0.000196246
-1.36306e-05
0.00019895
-1.35025e-05
0.000201628
-1.33712e-05
0.000204279
-1.32367e-05
0.000206903
-1.3099e-05
0.000209499
-1.29581e-05
0.000212065
-1.28139e-05
0.000214602
-1.26666e-05
0.000217109
-1.2516e-05
0.000219586
-1.23622e-05
0.00022203
-1.22052e-05
0.000224443
-1.20451e-05
0.000226823
-1.18818e-05
0.00022917
-1.17153e-05
0.000231483
-1.15458e-05
0.000233761
-1.13732e-05
0.000236004
-1.11976e-05
0.000238212
-1.10189e-05
0.000240383
-1.08373e-05
0.000242517
-1.06528e-05
0.000244613
-1.04653e-05
0.000246672
-1.02751e-05
0.000248691
-1.0082e-05
0.000250672
-9.88624e-06
0.000252612
-9.68777e-06
0.000254513
-9.48667e-06
0.000256372
-9.28301e-06
0.000258191
-9.07685e-06
0.000259967
-8.86823e-06
0.000261701
-8.65724e-06
0.000263393
-8.44394e-06
0.000265041
-8.22839e-06
0.000266646
-8.01067e-06
0.000268206
-7.79084e-06
0.000269723
-7.56898e-06
0.000271194
-7.34516e-06
0.00027262
-7.11945e-06
0.000274
-6.89192e-06
0.000275335
-6.66266e-06
0.000276623
-6.43174e-06
0.000277865
-6.19923e-06
0.00027906
-5.96521e-06
0.000280207
-5.72975e-06
0.000281307
-5.49294e-06
0.00028236
-5.25484e-06
0.000283364
-5.01554e-06
0.00028432
-4.77511e-06
0.000285228
-4.53362e-06
0.000286088
-4.29115e-06
0.000286898
-4.04777e-06
0.00028766
-3.80356e-06
0.000288372
-3.55859e-06
0.000289036
-3.31292e-06
0.00028965
-3.06664e-06
0.000290214
-2.81981e-06
0.000290729
-2.57251e-06
0.000291195
-2.32479e-06
0.00029161
-2.07672e-06
0.000291976
-1.82838e-06
0.000292292
-1.57984e-06
0.000292559
-1.33114e-06
0.000292775
-1.08236e-06
0.000292942
-8.33562e-07
0.000293059
-5.84807e-07
0.000293126
-3.36155e-07
0.000293143
-8.76676e-08
0.000293111
1.60596e-07
0.000293028
4.08576e-07
0.000292897
6.56214e-07
0.000292715
9.03454e-07
0.000292485
1.15024e-06
0.000292205
1.39651e-06
0.000291876
1.64221e-06
0.000291497
1.88728e-06
0.00029107
2.13168e-06
0.000290594
2.37533e-06
0.000290069
2.6182e-06
0.000289496
2.86022e-06
0.000288875
3.10134e-06
0.000288205
3.34151e-06
0.000287488
3.58066e-06
0.000286723
3.81875e-06
0.00028591
4.05573e-06
0.000285051
4.29153e-06
0.000284144
4.5261e-06
0.00028319
4.75939e-06
0.00028219
4.99135e-06
0.000281144
5.22191e-06
0.000280052
5.45103e-06
0.000278915
5.67865e-06
0.000277732
5.90472e-06
0.000276504
6.12918e-06
0.000275231
6.35198e-06
0.000273915
6.57306e-06
0.000272554
6.79238e-06
0.00027115
7.00987e-06
0.000269702
7.22548e-06
0.000268212
7.43916e-06
0.00026668
7.65086e-06
0.000265105
7.86053e-06
0.000263489
8.06811e-06
0.000261832
8.27356e-06
0.000260133
8.47682e-06
0.000258395
8.67784e-06
0.000256617
8.87658e-06
0.0002548
9.07299e-06
0.000252943
9.26703e-06
0.000251049
9.45865e-06
0.000249116
9.6478e-06
0.000247146
9.83444e-06
0.000245139
1.00185e-05
0.000243096
1.02001e-05
0.000241017
1.03789e-05
0.000238903
1.05552e-05