/*--------------------------------*- C++ -*----------------------------------*\
| =========                 |                                                 |
| \\      /  F ield         | OpenFOAM: The Open Source CFD Toolbox           |
|  \\    /   O peration     | Version:  v2012                                 |
|   \\  /    A nd           | Website:  www.openfoam.com                      |
|    \\/     M anipulation  |                                                 |
\*---------------------------------------------------------------------------*/
FoamFile
{
    version     2.0;
    format      ascii;
    class       volScalarField;
    location    "0.5";
    object      W;
}
// * * * * * * * * * * * * * * * * * * * * * * * * * * * * * * * * * * * * * //

dimensions      [0 0 -1 0 0 0 0];


internalField   nonuniform List<scalar> 
65536
(
3.06075e-21
3.76127e-21
5.10415e-21
7.11387e-21
9.94439e-21
1.38678e-20
1.92743e-20
2.66944e-20
3.68408e-20
5.06642e-20
6.94284e-20
9.48064e-20
1.29004e-19
1.74916e-19
2.36331e-19
3.18182e-19
4.26869e-19
5.7066e-19
7.60192e-19
1.0091e-18
1.33476e-18
1.7593e-18
2.31067e-18
3.02413e-18
3.94389e-18
5.12522e-18
6.63685e-18
8.56396e-18
1.10116e-17
1.41087e-17
1.8013e-17
2.29164e-17
2.90516e-17
3.6699e-17
4.61956e-17
5.79439e-17
7.2423e-17
9.01998e-17
1.11943e-16
1.38435e-16
1.70591e-16
2.09473e-16
2.56305e-16
3.12498e-16
3.79661e-16
4.59625e-16
5.5446e-16
6.66491e-16
7.9832e-16
9.52833e-16
1.13322e-15
1.34297e-15
1.5859e-15
1.86613e-15
2.18808e-15
2.55646e-15
2.97625e-15
3.45265e-15
3.99108e-15
4.59706e-15
5.27621e-15
6.03415e-15
6.87639e-15
7.80828e-15
8.83486e-15
9.96076e-15
1.11901e-14
1.25263e-14
1.39719e-14
1.55288e-14
1.71974e-14
1.89772e-14
2.08662e-14
2.28612e-14
2.49571e-14
2.71474e-14
2.94241e-14
3.17773e-14
3.41953e-14
3.6665e-14
3.91717e-14
4.16992e-14
4.42297e-14
4.67447e-14
4.92245e-14
5.16486e-14
5.39963e-14
5.62466e-14
5.83787e-14
6.03721e-14
6.22074e-14
6.3866e-14
6.5331e-14
6.65869e-14
6.76204e-14
6.84205e-14
6.89784e-14
6.92881e-14
6.93464e-14
6.91527e-14
6.87094e-14
6.80216e-14
6.70974e-14
6.59473e-14
6.45843e-14
6.30238e-14
6.12833e-14
5.93819e-14
5.73404e-14
5.51805e-14
5.29253e-14
5.0598e-14
4.82225e-14
4.58224e-14
4.34212e-14
4.1042e-14
3.87068e-14
3.64371e-14
3.4253e-14
3.21733e-14
3.02158e-14
2.83965e-14
2.673e-14
2.52295e-14
2.39066e-14
2.2771e-14
2.18314e-14
2.10945e-14
2.05657e-14
2.02488e-14
2.01461e-14
2.02584e-14
2.05852e-14
2.1124e-14
2.18713e-14
2.28216e-14
2.39683e-14
2.53028e-14
2.6815e-14
2.84933e-14
3.03243e-14
3.22931e-14
3.43831e-14
3.65763e-14
3.88531e-14
4.11927e-14
4.3573e-14
4.59711e-14
4.83629e-14
5.07242e-14
5.30303e-14
5.52564e-14
5.73783e-14
5.93723e-14
6.12156e-14
6.2887e-14
6.43666e-14
6.56369e-14
6.66822e-14
6.74897e-14
6.80491e-14
6.8353e-14
6.83972e-14
6.81803e-14
6.77043e-14
6.6974e-14
6.59972e-14
6.47847e-14
6.33496e-14
6.17074e-14
5.98758e-14
5.78739e-14
5.57226e-14
5.34435e-14
5.10588e-14
4.85913e-14
4.60634e-14
4.34973e-14
4.09144e-14
3.8335e-14
3.57783e-14
3.32618e-14
3.08018e-14
2.84123e-14
2.61057e-14
2.38926e-14
2.17816e-14
1.97794e-14
1.78908e-14
1.61192e-14
1.4466e-14
1.29314e-14
1.15143e-14
1.02121e-14
9.02168e-15
7.93865e-15
6.95816e-15
6.07477e-15
5.28266e-15
4.57573e-15
3.94779e-15
3.3926e-15
2.904e-15
2.47595e-15
2.10267e-15
1.77862e-15
1.49857e-15
1.25763e-15
1.05126e-15
8.75278e-16
7.25877e-16
5.99598e-16
4.93328e-16
4.04289e-16
3.30009e-16
2.6831e-16
2.17284e-16
1.75265e-16
1.40813e-16
1.12684e-16
8.98181e-17
7.13084e-17
5.63889e-17
4.44143e-17
3.48441e-17
2.72277e-17
2.11918e-17
1.64287e-17
1.26856e-17
9.75655e-18
7.47406e-18
5.70285e-18
4.33414e-18
3.28087e-18
2.47372e-18
1.85775e-18
1.38963e-18
1.03534e-18
7.68326e-19
5.67913e-19
4.18112e-19
3.06605e-19
2.23944e-19
1.62921e-19
1.18056e-19
8.52067e-20
6.12541e-20
4.38603e-20
3.12812e-20
2.22214e-20
1.57231e-20
1.10825e-20
7.78781e-21
5.48316e-21
3.96109e-21
3.1721e-21
4.19045e-21
5.15011e-21
6.98942e-21
9.74183e-21
1.36183e-20
1.89915e-20
2.63957e-20
3.65579e-20
5.04538e-20
6.93857e-20
9.50845e-20
1.29841e-19
1.76677e-19
2.39557e-19
3.23669e-19
4.35769e-19
5.84622e-19
7.8155e-19
1.04112e-18
1.382e-18
1.82801e-18
2.40941e-18
3.1645e-18
4.14154e-18
5.40109e-18
7.0188e-18
9.08879e-18
1.17277e-17
1.50792e-17
1.932e-17
2.46659e-17
3.13796e-17
3.97795e-17
5.02495e-17
6.32507e-17
7.93339e-17
9.91547e-17
1.23489e-16
1.5325e-16
1.89511e-16
2.33522e-16
2.86734e-16
3.50825e-16
4.2772e-16
5.19622e-16
6.29032e-16
7.5878e-16
9.12045e-16
1.09238e-15
1.30373e-15
1.55045e-15
1.83731e-15
2.16951e-15
2.55269e-15
2.99287e-15
3.49648e-15
4.07032e-15
4.72148e-15
5.45733e-15
6.28541e-15
7.21337e-15
8.24885e-15
9.39937e-15
1.06722e-14
1.20741e-14
1.36115e-14
1.52898e-14
1.71138e-14
1.90869e-14
2.12113e-14
2.34879e-14
2.59158e-14
2.84923e-14
3.12126e-14
3.40701e-14
3.70557e-14
4.01583e-14
4.33644e-14
4.66581e-14
5.00213e-14
5.3434e-14
5.68738e-14
6.03169e-14
6.37377e-14
6.71093e-14
7.0404e-14
7.35934e-14
7.6649e-14
7.95424e-14
8.22459e-14
8.4733e-14
8.69786e-14
8.89596e-14
9.06552e-14
9.20474e-14
9.31213e-14
9.38651e-14
9.42709e-14
9.43343e-14
9.40548e-14
9.34359e-14
9.24848e-14
9.12123e-14
8.96332e-14
8.77652e-14
8.56296e-14
8.32499e-14
8.06526e-14
7.78657e-14
7.49193e-14
7.18443e-14
6.86727e-14
6.54367e-14
6.21685e-14
5.89001e-14
5.56626e-14
5.24861e-14
4.93995e-14
4.643e-14
4.36033e-14
4.09432e-14
3.84714e-14
3.62075e-14
3.41694e-14
3.23724e-14
3.08299e-14
2.95532e-14
2.85514e-14
2.78317e-14
2.7399e-14
2.72563e-14
2.74045e-14
2.78426e-14
2.85674e-14
2.95737e-14
3.08543e-14
3.23996e-14
3.41983e-14
3.62364e-14
3.84982e-14
4.09654e-14
4.36178e-14
4.64329e-14
4.93863e-14
5.24515e-14
5.56004e-14
5.88032e-14
6.20287e-14
6.52448e-14
6.84186e-14
7.15168e-14
7.45063e-14
7.73542e-14
8.00288e-14
8.24996e-14
8.47378e-14
8.67172e-14
8.84139e-14
8.98073e-14
9.088e-14
9.16185e-14
9.20129e-14
9.20578e-14
9.17515e-14
9.10968e-14
9.01003e-14
8.87728e-14
8.71287e-14
8.51859e-14
8.29655e-14
8.04911e-14
7.7789e-14
7.48868e-14
7.18137e-14
6.86e-14
6.52759e-14
6.18717e-14
5.84173e-14
5.49413e-14
5.1471e-14
4.80322e-14
4.46484e-14
4.13412e-14
3.81296e-14
3.50301e-14
3.20568e-14
2.92211e-14
2.65321e-14
2.39962e-14
2.16177e-14
1.93986e-14
1.73391e-14
1.54373e-14
1.36903e-14
1.20932e-14
1.06405e-14
9.32546e-15
8.14082e-15
7.0787e-15
6.13093e-15
5.28914e-15
4.54496e-15
3.8901e-15
3.31646e-15
2.81626e-15
2.38208e-15
2.00688e-15
1.6841e-15
1.40766e-15
1.17195e-15
9.71852e-16
8.02736e-16
6.60428e-16
5.41201e-16
4.41744e-16
3.59139e-16
2.90825e-16
2.34575e-16
1.88455e-16
1.50804e-16
1.20198e-16
9.54241e-17
7.54564e-17
5.94308e-17
4.66234e-17
3.64311e-17
2.83543e-17
2.19807e-17
1.69723e-17
1.30531e-17
9.9992e-18
7.62943e-18
5.79823e-18
4.38908e-18
3.30924e-18
2.48519e-18
1.85894e-18
1.38499e-18
1.02779e-18
7.5969e-19
5.593e-19
4.10137e-19
2.99563e-19
2.17933e-19
1.57918e-19
1.13977e-19
8.19371e-20
5.86702e-20
4.18438e-20
2.97249e-20
2.10325e-20
1.48249e-20
1.04177e-20
7.33462e-21
5.29825e-21
4.24258e-21
6.5512e-21
8.05188e-21
1.09279e-20
1.52315e-20
2.12924e-20
2.96936e-20
4.12702e-20
5.71589e-20
7.88852e-20
1.08485e-19
1.48665e-19
2.03005e-19
2.7623e-19
3.74538e-19
5.0604e-19
6.81296e-19
9.14006e-19
1.22187e-18
1.62766e-18
2.16054e-18
2.85775e-18
3.76659e-18
4.94692e-18
6.47414e-18
8.44289e-18
1.09714e-17
1.42067e-17
1.8331e-17
2.35689e-17
3.01964e-17
3.85505e-17
4.90417e-17
6.21672e-17
7.85267e-17
9.88401e-17
1.23968e-16
1.54933e-16
1.92947e-16
2.39437e-16
2.96075e-16
3.64815e-16
4.4792e-16
5.48008e-16
6.68083e-16
8.1158e-16
9.82402e-16
1.18496e-15
1.42421e-15
1.70569e-15
2.03556e-15
2.42058e-15
2.86821e-15
3.38655e-15
3.98434e-15
4.671e-15
5.45651e-15
6.35145e-15
7.36686e-15
8.51418e-15
9.80514e-15
1.12516e-14
1.28654e-14
1.46583e-14
1.66414e-14
1.88254e-14
2.122e-14
2.38337e-14
2.66737e-14
2.97453e-14
3.3052e-14
3.65949e-14
4.03723e-14
4.43801e-14
4.86108e-14
5.30537e-14
5.76948e-14
6.25165e-14
6.74977e-14
7.26136e-14
7.78361e-14
8.31337e-14
8.84718e-14
9.38129e-14
9.91175e-14
1.04344e-13
1.09448e-13
1.14387e-13
1.19117e-13
1.23592e-13
1.2777e-13
1.31611e-13
1.35075e-13
1.38126e-13
1.40734e-13
1.42869e-13
1.44509e-13
1.45636e-13
1.46238e-13
1.46308e-13
1.45847e-13
1.44859e-13
1.43356e-13
1.41356e-13
1.38881e-13
1.3596e-13
1.32625e-13
1.28913e-13
1.24866e-13
1.20527e-13
1.15942e-13
1.11161e-13
1.06232e-13
1.01205e-13
9.61303e-14
9.10574e-14
8.60344e-14
8.11077e-14
7.63219e-14
7.17191e-14
6.73388e-14
6.32174e-14
5.93885e-14
5.58822e-14
5.27257e-14
4.99425e-14
4.75532e-14
4.55748e-14
4.40211e-14
4.29029e-14
4.22275e-14
4.19993e-14
4.22195e-14
4.2886e-14
4.39938e-14
4.55346e-14
4.7497e-14
4.9866e-14
5.26238e-14
5.5749e-14
5.92168e-14
6.29992e-14
6.70647e-14
7.13789e-14
7.59037e-14
8.05987e-14
8.54202e-14
9.03227e-14
9.52582e-14
1.00177e-13
1.0503e-13
1.09764e-13
1.1433e-13
1.18677e-13
1.22757e-13
1.26522e-13
1.2993e-13
1.3294e-13
1.35515e-13
1.37625e-13
1.39243e-13
1.40349e-13
1.40928e-13
1.40971e-13
1.40477e-13
1.3945e-13
1.379e-13
1.35845e-13
1.33306e-13
1.30312e-13
1.26894e-13
1.23089e-13
1.18937e-13
1.14481e-13
1.09766e-13
1.04837e-13
9.9742e-14
9.45261e-14
8.92351e-14
8.3913e-14
7.86014e-14
7.33395e-14
6.81633e-14
6.31056e-14
5.81953e-14
5.34576e-14
4.89138e-14
4.45814e-14
4.04738e-14
3.66009e-14
3.2969e-14
2.95812e-14
2.64375e-14
2.35352e-14
2.08694e-14
1.84329e-14
1.62169e-14
1.42113e-14
1.24047e-14
1.07853e-14
9.34032e-15
8.05714e-15
6.92288e-15
5.92488e-15
5.05077e-15
4.28865e-15
3.62717e-15
3.05562e-15
2.56398e-15
2.14295e-15
1.78399e-15
1.4793e-15
1.2218e-15
1.00514e-15
8.2363e-16
6.72232e-16
5.46495e-16
4.4252e-16
3.5691e-16
2.86724e-16
2.29429e-16
1.82857e-16
1.45162e-16
1.14782e-16
9.04007e-17
7.09165e-17
5.54116e-17
4.31252e-17
3.34302e-17
2.58122e-17
1.98512e-17
1.52064e-17
1.16022e-17
8.81725e-18
6.67425e-18
5.03208e-18
3.77893e-18
2.82662e-18
2.10592e-18
1.56276e-18
1.1551e-18
8.50397e-19
6.23592e-19
4.55465e-19
3.3135e-19
2.40101e-19
1.73291e-19
1.24577e-19
8.92014e-20
6.36185e-20
4.51931e-20
3.19774e-20
2.25395e-20
1.58388e-20
1.11513e-20
8.05488e-21
6.44945e-21
1.05406e-20
1.2955e-20
1.75824e-20
2.45064e-20
3.42579e-20
4.77744e-20
6.63998e-20
9.19624e-20
1.26916e-19
1.74537e-19
2.39178e-19
3.26599e-19
4.44399e-19
6.02549e-19
8.14093e-19
1.09602e-18
1.47036e-18
1.96558e-18
2.61831e-18
3.47546e-18
4.5969e-18
6.0587e-18
7.9571e-18
1.04134e-17
1.35797e-17
1.7646e-17
2.28489e-17
2.94812e-17
3.79041e-17
4.85608e-17
6.19935e-17
7.88616e-17
9.99644e-17
1.26265e-16
1.58921e-16
1.99314e-16
2.49089e-16
3.1019e-16
3.84911e-16
4.75938e-16
5.86406e-16
7.19952e-16
8.80777e-16
1.0737e-15
1.30425e-15
1.57867e-15
1.90405e-15
2.28834e-15
2.74043e-15
3.27017e-15
3.88845e-15
4.60719e-15
5.43937e-15
6.39904e-15
7.50123e-15
8.76198e-15
1.01982e-14
1.18275e-14
1.36684e-14
1.57394e-14
1.80596e-14
2.06479e-14
2.3523e-14
2.67027e-14
3.0204e-14
3.40423e-14
3.82313e-14
4.27821e-14
4.77034e-14
5.30003e-14
5.86745e-14
6.47233e-14
7.11397e-14
7.79116e-14
8.50218e-14
9.24475e-14
1.0016e-13
1.08127e-13
1.16306e-13
1.24654e-13
1.33119e-13
1.41647e-13
1.50176e-13
1.58645e-13
1.66985e-13
1.75127e-13
1.83002e-13
1.90539e-13
1.97666e-13
2.04317e-13
2.10425e-13
2.15928e-13
2.2077e-13
2.24899e-13
2.28273e-13
2.30854e-13
2.32615e-13
2.33537e-13
2.33609e-13
2.32831e-13
2.31213e-13
2.28774e-13
2.25542e-13
2.21553e-13
2.16854e-13
2.11496e-13
2.05539e-13
1.99049e-13
1.92097e-13
1.84755e-13
1.77103e-13
1.69217e-13
1.6118e-13
1.53069e-13
1.44963e-13
1.3694e-13
1.29074e-13
1.21434e-13
1.14089e-13
1.07099e-13
1.00525e-13
9.44174e-14
8.88254e-14
8.37912e-14
7.93523e-14
7.55406e-14
7.23831e-14
6.99012e-14
6.81116e-14
6.70256e-14
6.66497e-14
6.69854e-14
6.80291e-14
6.97722e-14
7.22013e-14
7.52978e-14
7.90378e-14
8.33926e-14
8.83277e-14
9.3804e-14
9.97764e-14
1.06195e-13
1.13005e-13
1.20146e-13
1.27554e-13
1.35159e-13
1.4289e-13
1.5067e-13
1.58422e-13
1.66065e-13
1.73519e-13
1.80705e-13
1.87542e-13
1.93955e-13
1.99869e-13
2.05217e-13
2.09934e-13
2.13964e-13
2.17259e-13
2.19776e-13
2.21484e-13
2.2236e-13
2.22392e-13
2.21576e-13
2.1992e-13
2.17442e-13
2.14167e-13
2.10132e-13
2.0538e-13
1.99962e-13
1.93937e-13
1.87368e-13
1.80322e-13
1.7287e-13
1.65084e-13
1.57038e-13
1.48805e-13
1.40457e-13
1.32062e-13
1.23686e-13
1.15391e-13
1.07233e-13
9.92637e-14
9.15285e-14
8.40669e-14
7.69122e-14
7.00916e-14
6.36263e-14
5.75314e-14
5.18169e-14
4.64873e-14
4.15426e-14
3.69783e-14
3.27864e-14
2.89557e-14
2.54722e-14
2.23198e-14
1.94807e-14
1.69359e-14
1.46657e-14
1.26498e-14
1.08681e-14
9.30064e-15
7.92787e-15
6.73111e-15
5.69249e-15
4.79515e-15
4.02334e-15
3.36245e-15
2.79903e-15
2.32083e-15
1.91673e-15
1.57674e-15
1.29194e-15
1.0544e-15
8.57134e-16
6.94022e-16
5.5973e-16
4.49638e-16
3.59772e-16
2.86729e-16
2.27612e-16
1.79969e-16
1.41735e-16
1.11183e-16
8.68711e-17
6.7607e-17
5.24065e-17
4.04629e-17
3.11176e-17
2.3836e-17
1.8186e-17
1.38203e-17
1.04611e-17
7.88701e-18
5.92278e-18
4.43011e-18
3.30051e-18
2.4492e-18
1.81027e-18
1.33272e-18
9.77266e-19
7.13776e-19
5.19264e-19
3.76262e-19
2.71563e-19
1.95221e-19
1.39784e-19
9.96936e-20
7.08196e-20
5.01098e-20
3.53201e-20
2.48198e-20
1.74741e-20
1.26218e-20
1.01057e-20
1.69866e-20
2.08773e-20
2.8334e-20
3.94917e-20
5.52056e-20
7.69865e-20
1.06999e-19
1.48191e-19
2.04514e-19
2.81247e-19
3.85403e-19
5.26264e-19
7.16069e-19
9.70884e-19
1.31172e-18
1.76595e-18
2.36906e-18
3.16691e-18
4.21848e-18
5.59936e-18
7.40596e-18
9.7608e-18
1.28189e-17
1.67755e-17
2.18757e-17
2.84254e-17
3.68056e-17
4.74876e-17
6.10529e-17
7.82153e-17
9.98474e-17
1.27011e-16
1.60992e-16
2.03341e-16
2.55921e-16
3.20956e-16
4.0109e-16
4.99455e-16
6.19738e-16
7.66262e-16
9.44069e-16
1.15901e-15
1.41783e-15
1.7283e-15
2.09928e-15
2.54084e-15
3.06434e-15
3.68258e-15
4.40983e-15
5.26193e-15
6.25635e-15
7.41225e-15
8.75048e-15
1.02935e-14
1.20656e-14
1.40924e-14
1.6401e-14
1.90198e-14
2.19782e-14
2.53061e-14
2.90339e-14
3.31921e-14
3.78103e-14
4.29172e-14
4.85398e-14
5.47028e-14
6.14278e-14
6.87326e-14
7.66308e-14
8.51305e-14
9.4234e-14
1.03937e-13
1.14228e-13
1.25086e-13
1.36485e-13
1.48388e-13
1.60748e-13
1.73511e-13
1.86613e-13
1.99981e-13
2.13533e-13
2.27181e-13
2.40829e-13
2.54374e-13
2.67709e-13
2.80723e-13
2.93304e-13
3.05339e-13
3.16714e-13
3.27321e-13
3.37055e-13
3.45817e-13
3.53517e-13
3.60074e-13
3.65418e-13
3.69492e-13
3.7225e-13
3.73664e-13
3.73718e-13
3.72413e-13
3.69765e-13
3.65803e-13
3.60574e-13
3.54138e-13
3.46567e-13
3.37946e-13
3.28371e-13
3.17948e-13
3.06788e-13
2.95012e-13
2.82743e-13
2.70106e-13
2.5723e-13
2.44242e-13
2.31267e-13
2.18428e-13
2.05843e-13
1.93624e-13
1.81878e-13
1.70704e-13
1.60194e-13
1.50433e-13
1.41497e-13
1.33451e-13
1.26357e-13
1.20263e-13
1.15213e-13
1.1124e-13
1.0837e-13
1.0662e-13
1.06e-13
1.06512e-13
1.0815e-13
1.10898e-13
1.14736e-13
1.19633e-13
1.25551e-13
1.32443e-13
1.40255e-13
1.48922e-13
1.58375e-13
1.68533e-13
1.79308e-13
1.90604e-13
2.0232e-13
2.14346e-13
2.26566e-13
2.38861e-13
2.51107e-13
2.63177e-13
2.74944e-13
2.86281e-13
2.97063e-13
3.07169e-13
3.16484e-13
3.24898e-13
3.32312e-13
3.38638e-13
3.43796e-13
3.47724e-13
3.50372e-13
3.51703e-13
3.51698e-13
3.50355e-13
3.47684e-13
3.43714e-13
3.38487e-13
3.32061e-13
3.24504e-13
3.15899e-13
3.06337e-13
2.95919e-13
2.84752e-13
2.72946e-13
2.60618e-13
2.47883e-13
2.34857e-13
2.21652e-13
2.08378e-13
1.95138e-13
1.82028e-13
1.69139e-13
1.5655e-13
1.44334e-13
1.32552e-13
1.21257e-13
1.10492e-13
1.00289e-13
9.06728e-14
8.16579e-14
7.32516e-14
6.54534e-14
5.82563e-14
5.16475e-14
4.56088e-14
4.01182e-14
3.51501e-14
3.06763e-14
2.66668e-14
2.30903e-14
1.99148e-14
1.71085e-14
1.46398e-14
1.24781e-14
1.05937e-14
8.95842e-15
7.54574e-15
6.33079e-15
5.29053e-15
4.40376e-15
3.65118e-15
3.01526e-15
2.48028e-15
2.03216e-15
1.65843e-15
1.34809e-15
1.0915e-15
8.80252e-16
7.07085e-16
5.6574e-16
4.50861e-16
3.57889e-16
2.82965e-16
2.22842e-16
1.748e-16
1.36573e-16
1.06284e-16
8.23847e-17
6.3607e-17
4.89149e-17
3.74676e-17
2.85857e-17
2.1723e-17
1.64425e-17
1.23963e-17
9.30886e-18
6.96269e-18
5.18723e-18
3.8492e-18
2.845e-18
2.09446e-18
1.53581e-18
1.12171e-18
8.16024e-19
5.9129e-19
4.26751e-19
3.0678e-19
2.19662e-19
1.56661e-19
1.11287e-19
7.87428e-20
5.55018e-20
3.90015e-20
2.74585e-20
1.98332e-20
1.58791e-20
2.72871e-20
3.35363e-20
4.55136e-20
6.3436e-20
8.86764e-20
1.23662e-19
1.71869e-19
2.3803e-19
3.28496e-19
4.5174e-19
6.19027e-19
8.45265e-19
1.1501e-18
1.55935e-18
2.10674e-18
2.83621e-18
3.80477e-18
5.08604e-18
6.77472e-18
8.99216e-18
1.18932e-17
1.56744e-17
2.05847e-17
2.69376e-17
3.51263e-17
4.56422e-17
5.90963e-17
7.62454e-17
9.80225e-17
1.25573e-16
1.60298e-16
2.03899e-16
2.58442e-16
3.26414e-16
4.10801e-16
5.15172e-16
6.4377e-16
8.01615e-16
9.94621e-16
1.22972e-15
1.51499e-15
1.85982e-15
2.27503e-15
2.77306e-15
3.36811e-15
4.0763e-15
4.91588e-15
5.90731e-15
7.07346e-15
8.4397e-15
1.0034e-14
1.1887e-14
1.40321e-14
1.65054e-14
1.93454e-14
2.25933e-14
2.62925e-14
3.04883e-14
3.52275e-14
4.05581e-14
4.65288e-14
5.31877e-14
6.05826e-14
6.87588e-14
7.77596e-14
8.7624e-14
9.83864e-14
1.10075e-13
1.22711e-13
1.36308e-13
1.50868e-13
1.66384e-13
1.82836e-13
2.00195e-13
2.18413e-13
2.37432e-13
2.57178e-13
2.77563e-13
2.98485e-13
3.19827e-13
3.41457e-13
3.63234e-13
3.85005e-13
4.06604e-13
4.27862e-13
4.486e-13
4.6864e-13
4.878e-13
5.05901e-13
5.22769e-13
5.38236e-13
5.52147e-13
5.64357e-13
5.74738e-13
5.8318e-13
5.8959e-13
5.939e-13
5.96063e-13
5.96056e-13
5.9388e-13
5.89562e-13
5.83152e-13
5.74723e-13
5.64372e-13
5.52215e-13
5.3839e-13
5.23049e-13
5.06362e-13
4.88507e-13
4.69676e-13
4.50065e-13
4.29877e-13
4.09314e-13
3.8858e-13
3.67873e-13
3.47389e-13
3.27315e-13
3.07831e-13
2.89104e-13
2.71294e-13
2.54545e-13
2.3899e-13
2.2475e-13
2.11931e-13
2.00625e-13
1.90912e-13
1.82859e-13
1.76517e-13
1.71928e-13
1.69117e-13
1.68099e-13
1.68876e-13
1.71437e-13
1.75758e-13
1.81805e-13
1.89527e-13
1.98864e-13
2.0974e-13
2.22069e-13
2.3575e-13
2.50669e-13
2.66698e-13
2.83699e-13
3.01521e-13
3.19999e-13
3.38962e-13
3.58226e-13
3.77602e-13
3.96895e-13
4.15904e-13
4.34429e-13
4.52268e-13
4.69226e-13
4.85112e-13
4.99743e-13
5.12948e-13
5.24571e-13
5.34473e-13
5.42531e-13
5.48646e-13
5.52739e-13
5.54755e-13
5.54665e-13
5.52465e-13
5.48173e-13
5.41836e-13
5.3352e-13
5.23316e-13
5.11336e-13
4.97707e-13
4.82577e-13
4.66102e-13
4.48452e-13
4.29803e-13
4.10337e-13
3.90236e-13
3.69683e-13
3.48854e-13
3.27921e-13
3.07048e-13
2.86386e-13
2.66076e-13
2.46244e-13
2.27003e-13
2.08451e-13
1.90668e-13
1.73721e-13
1.57663e-13
1.42531e-13
1.28347e-13
1.15123e-13
1.02857e-13
9.15388e-14
8.11467e-14
7.16525e-14
6.3021e-14
5.5212e-14
4.81807e-14
4.18799e-14
3.626e-14
3.1271e-14
2.68624e-14
2.29846e-14
1.95892e-14
1.66297e-14
1.40618e-14
1.18435e-14
9.93595e-15
8.30277e-15
6.9107e-15
5.72935e-15
4.73121e-15
3.89156e-15
3.18829e-15
2.60181e-15
2.11483e-15
1.71221e-15
1.38077e-15
1.10909e-15
8.87347e-16
7.07133e-16
5.61292e-16
4.43769e-16
3.49467e-16
2.74116e-16
2.14162e-16
1.66659e-16
1.2918e-16
9.97335e-17
7.66947e-17
5.87446e-17
4.48177e-17
3.40572e-17
2.57779e-17
1.9434e-17
1.45934e-17
1.09151e-17
8.13165e-18
6.03401e-18
4.45975e-18
3.28317e-18
2.40743e-18
1.75829e-18
1.2791e-18
9.26826e-19
6.68911e-19
4.80856e-19
3.44302e-19
2.45551e-19
1.7443e-19
1.2342e-19
8.69921e-20
6.11296e-20
4.3037e-20
3.1085e-20
2.48872e-20
4.36635e-20
5.36621e-20
7.28261e-20
1.01502e-19
1.41888e-19
1.97864e-19
2.74995e-19
3.8085e-19
5.25589e-19
7.2277e-19
9.9041e-19
1.35236e-18
1.84005e-18
2.49476e-18
3.37045e-18
4.53742e-18
6.08682e-18
8.13641e-18
1.08377e-17
1.43846e-17
1.90249e-17
2.5073e-17
3.29267e-17
4.30875e-17
5.61842e-17
7.30022e-17
9.45186e-17
1.21943e-16
1.56767e-16
2.00823e-16
2.56347e-16
3.26063e-16
4.13269e-16
5.21941e-16
6.56852e-16
8.23704e-16
1.02927e-15
1.28158e-15
1.59008e-15
1.96584e-15
2.42176e-15
2.97283e-15
3.63634e-15
4.43213e-15
5.38288e-15
6.51435e-15
7.85562e-15
9.43937e-15
1.13021e-14
1.34842e-14
1.60304e-14
1.89895e-14
2.24148e-14
2.63636e-14
3.08977e-14
3.60824e-14
4.19869e-14
4.86833e-14
5.62462e-14
6.47521e-14
7.42781e-14
8.4901e-14
9.66963e-14
1.09737e-13
1.2409e-13
1.39818e-13
1.56976e-13
1.75608e-13
1.95748e-13
2.17414e-13
2.40612e-13
2.65329e-13
2.91535e-13
3.19177e-13
3.48183e-13
3.78459e-13
4.09886e-13
4.42323e-13
4.75606e-13
5.09549e-13
5.43943e-13
5.78561e-13
6.13158e-13
6.47473e-13
6.81233e-13
7.14158e-13
7.45959e-13
7.7635e-13
8.05047e-13
8.31772e-13
8.56261e-13
8.78265e-13
8.97557e-13
9.13934e-13
9.2722e-13
9.37272e-13
9.43982e-13
9.47276e-13
9.47121e-13
9.43518e-13
9.36512e-13
9.26184e-13
9.12653e-13
8.96074e-13
8.76633e-13
8.54548e-13
8.30064e-13
8.0345e-13
7.74993e-13
7.44996e-13
7.13771e-13
6.81641e-13
6.48926e-13
6.1595e-13
5.83028e-13
5.50469e-13
5.18571e-13
4.87617e-13
4.57873e-13
4.29588e-13
4.02994e-13
3.78299e-13
3.55692e-13
3.3534e-13
3.1739e-13
3.01965e-13
2.89169e-13
2.79084e-13
2.71772e-13
2.67273e-13
2.6561e-13
2.66782e-13
2.70772e-13
2.77541e-13
2.87031e-13
2.99164e-13
3.13842e-13
3.30945e-13
3.50334e-13
3.71849e-13
3.9531e-13
4.20516e-13
4.47245e-13
4.75259e-13
5.043e-13
5.34095e-13
5.64357e-13
5.94786e-13
6.25073e-13
6.54905e-13
6.83966e-13
7.11941e-13
7.38519e-13
7.63403e-13
7.86305e-13
8.06959e-13
8.25119e-13
8.40566e-13
8.53112e-13
8.62598e-13
8.68905e-13
8.71947e-13
8.71679e-13
8.68097e-13
8.61231e-13
8.51154e-13
8.37974e-13
8.21834e-13
8.0291e-13
7.81405e-13
7.57549e-13
7.31591e-13
7.03796e-13
6.74442e-13
6.43815e-13
6.12201e-13
5.79885e-13
5.47146e-13
5.14254e-13
4.81463e-13
4.49013e-13
4.17122e-13
3.85989e-13
3.5579e-13
3.26676e-13
2.98775e-13
2.72192e-13
2.47007e-13
2.23277e-13
2.01038e-13
1.80307e-13
1.61081e-13
1.43342e-13
1.27057e-13
1.12182e-13
9.86595e-14
8.6427e-14
7.54143e-14
6.55467e-14
5.67466e-14
4.8935e-14
4.2033e-14
3.59625e-14
3.06478e-14
2.60158e-14
2.1997e-14
1.85258e-14
1.5541e-14
1.29857e-14
1.08078e-14
8.95975e-15
7.39842e-15
6.08508e-15
4.98515e-15
4.06793e-15
3.30637e-15
2.67678e-15
2.15853e-15
1.73374e-15
1.38705e-15
1.1053e-15
8.77307e-16
6.93591e-16
5.4618e-16
4.284e-16
3.3469e-16
2.60445e-16
2.01868e-16
1.55848e-16
1.19843e-16
9.17917e-17
7.00283e-17
5.32136e-17
4.02764e-17
3.03638e-17
2.28003e-17
1.70531e-17
1.27041e-17
9.42681e-18
6.96727e-18
5.12906e-18
3.7609e-18
2.74677e-18
1.99817e-18
1.44784e-18
1.04492e-18
7.5115e-19
5.37832e-19
3.83571e-19
2.72472e-19
1.92789e-19
1.35886e-19
9.54866e-20
6.72248e-20
4.85547e-20
3.88728e-20
6.9592e-20
8.55261e-20
1.16068e-19
1.61769e-19
2.2613e-19
3.15338e-19
4.38258e-19
6.06951e-19
8.37607e-19
1.15183e-18
1.57833e-18
2.1551e-18
2.93223e-18
3.97548e-18
5.37084e-18
7.23028e-18
9.69904e-18
1.29647e-17
1.72686e-17
2.29198e-17
3.03126e-17
3.99482e-17
5.24601e-17
6.8647e-17
8.95101e-17
1.16301e-16
1.50574e-16
1.94257e-16
2.49725e-16
3.19894e-16
4.08325e-16
5.19355e-16
6.58233e-16
8.3129e-16
1.04612e-15
1.3118e-15
1.63911e-15
2.04083e-15
2.53197e-15
3.13017e-15
3.85594e-15
4.73313e-15
5.78922e-15
7.05579e-15
8.56889e-15
1.03695e-14
1.25038e-14
1.50237e-14
1.79873e-14
2.14588e-14
2.55092e-14
3.02161e-14
3.56639e-14
4.1944e-14
4.9154e-14
5.7398e-14
6.67855e-14
7.74309e-14
8.94527e-14
1.02972e-13
1.18111e-13
1.34991e-13
1.53732e-13
1.74448e-13
1.97248e-13
2.22228e-13
2.49475e-13
2.79059e-13
3.11032e-13
3.45424e-13
3.82241e-13
4.21463e-13
4.6304e-13
5.06888e-13
5.52892e-13
6.009e-13
6.50724e-13
7.02139e-13
7.54883e-13
8.0866e-13
8.63139e-13
9.17958e-13
9.72729e-13
1.02704e-12
1.08045e-12
1.13252e-12
1.1828e-12
1.23082e-12
1.27614e-12
1.31833e-12
1.35695e-12
1.39163e-12
1.422e-12
1.44774e-12
1.46857e-12
1.48428e-12
1.49468e-12
1.49968e-12
1.49921e-12
1.49328e-12
1.48197e-12
1.4654e-12
1.44377e-12
1.41733e-12
1.38636e-12
1.35122e-12
1.3123e-12
1.27003e-12
1.22485e-12
1.17725e-12
1.12773e-12
1.07679e-12
1.02494e-12
9.72694e-13
9.20552e-13
8.69e-13
8.18506e-13
7.69516e-13
7.22452e-13
6.77705e-13
6.35638e-13
5.96579e-13
5.60825e-13
5.28637e-13
5.00244e-13
4.7584e-13
4.55585e-13
4.39607e-13
4.28e-13
4.20828e-13
4.18121e-13
4.19879e-13
4.2607e-13
4.36633e-13
4.51473e-13
4.70464e-13
4.93452e-13
5.20245e-13
5.50625e-13
5.84336e-13
6.21095e-13
6.60583e-13
7.02453e-13
7.46328e-13
7.91803e-13
8.38449e-13
8.85812e-13
9.33424e-13
9.80801e-13
1.02745e-12
1.07288e-12
1.11659e-12
1.15809e-12
1.19693e-12
1.23265e-12
1.26484e-12
1.29312e-12
1.31713e-12
1.33659e-12
1.35126e-12
1.36094e-12
1.36551e-12
1.3649e-12
1.3591e-12
1.34817e-12
1.33221e-12
1.3114e-12
1.28597e-12
1.25619e-12
1.22239e-12
1.18492e-12
1.14417e-12
1.10056e-12
1.05452e-12
1.00651e-12
9.56972e-13
9.06348e-13
8.55077e-13
8.0358e-13
7.52254e-13
7.01473e-13
6.51579e-13
6.02881e-13
5.55652e-13
5.1013e-13
4.66513e-13
4.24962e-13
3.85603e-13
3.48523e-13
3.1378e-13
2.81396e-13
2.51368e-13
2.23666e-13
1.98238e-13
1.75014e-13
1.53905e-13
1.34812e-13
1.17624e-13
1.02225e-13
8.84941e-14
7.63065e-14
6.55391e-14
5.60699e-14
4.77803e-14
4.05562e-14
3.4289e-14
2.88763e-14
2.42222e-14
2.02383e-14
1.68431e-14
1.39623e-14
1.15286e-14
9.48155e-15
7.76727e-15
6.33785e-15
5.15109e-15
4.17004e-15
3.36252e-15
2.70067e-15
2.16054e-15
1.7216e-15
1.36643e-15
1.08025e-15
8.50627e-16
6.67171e-16
5.21214e-16
4.05578e-16
3.14351e-16
2.4268e-16
1.86609e-16
1.42926e-16
1.09036e-16
8.28533e-17
6.27086e-17
4.72741e-17
3.54976e-17
2.65493e-17
1.97782e-17
1.46757e-17
1.08465e-17
7.98466e-18
5.85468e-18
4.27591e-18
3.11051e-18
2.25379e-18
1.62657e-18
1.16926e-18
8.37196e-19
5.97064e-19
4.24125e-19
3.0009e-19
2.11514e-19
1.4863e-19
1.04638e-19
7.55758e-20
6.05044e-20
1.10478e-19
1.3577e-19
1.84251e-19
2.56796e-19
3.58961e-19
5.00565e-19
6.95678e-19
9.63446e-19
1.32956e-18
1.82831e-18
2.50526e-18
3.42071e-18
4.65415e-18
6.30994e-18
8.52453e-18
1.14756e-17
1.53936e-17
2.05762e-17
2.74063e-17
3.63743e-17
4.8106e-17
6.3396e-17
8.32499e-17
1.08934e-16
1.42038e-16
1.84545e-16
2.38923e-16
3.08228e-16
3.96227e-16
5.07543e-16
6.47827e-16
8.23952e-16
1.04424e-15
1.31874e-15
1.65948e-15
2.08084e-15
2.59994e-15
3.237e-15
4.01584e-15
4.96437e-15
6.11515e-15
7.50591e-15
9.18023e-15
1.11881e-14
1.35867e-14
1.64407e-14
1.98235e-14
2.38173e-14
2.85138e-14
3.40148e-14
4.04326e-14
4.78899e-14
5.65205e-14
6.64686e-14
7.78888e-14
9.09455e-14
1.05812e-13
1.22669e-13
1.41703e-13
1.63106e-13
1.8707e-13
2.13788e-13
2.43448e-13
2.7623e-13
3.12304e-13
3.51824e-13
3.94924e-13
4.41714e-13
4.92275e-13
5.46653e-13
6.04858e-13
6.66855e-13
7.32562e-13
8.01849e-13
8.74528e-13
9.5036e-13
1.02904e-12
1.11022e-12
1.19349e-12
1.27836e-12
1.36432e-12
1.4508e-12
1.53717e-12
1.62279e-12
1.70697e-12
1.78901e-12
1.86819e-12
1.94379e-12
2.0151e-12
2.08143e-12
2.14213e-12
2.19657e-12
2.2442e-12
2.2845e-12
2.31705e-12
2.3415e-12
2.35758e-12
2.36512e-12
2.36404e-12
2.35435e-12
2.33617e-12
2.30971e-12
2.27528e-12
2.23326e-12
2.18414e-12
2.12846e-12
2.06683e-12
1.99994e-12
1.9285e-12
1.85326e-12
1.77502e-12
1.69458e-12
1.61273e-12
1.53028e-12
1.44801e-12
1.3667e-12
1.28707e-12
1.20983e-12
1.13565e-12
1.06513e-12
9.98836e-13
9.37293e-13
8.80959e-13
8.30243e-13
7.85501e-13
7.47035e-13
7.15094e-13
6.89874e-13
6.71521e-13
6.6013e-13
6.55746e-13
6.58364e-13
6.67934e-13
6.84352e-13
7.07469e-13
7.37085e-13
7.72952e-13
8.14771e-13
8.62193e-13
9.14819e-13
9.72199e-13
1.03384e-12
1.09918e-12
1.16765e-12
1.23859e-12
1.31135e-12
1.38521e-12
1.45944e-12
1.53328e-12
1.60596e-12
1.67671e-12
1.74476e-12
1.80935e-12
1.86975e-12
1.92527e-12
1.97526e-12
2.01912e-12
2.05632e-12
2.08641e-12
2.10901e-12
2.12383e-12
2.13066e-12
2.12942e-12
2.12008e-12
2.10274e-12
2.07757e-12
2.04486e-12
2.00494e-12
1.95826e-12
1.90532e-12
1.84667e-12
1.78294e-12
1.71478e-12
1.64285e-12
1.56787e-12
1.49052e-12
1.41151e-12
1.3315e-12
1.25117e-12
1.17113e-12
1.09195e-12
1.01417e-12
9.38274e-13
8.6468e-13
7.93759e-13
7.25817e-13
6.61106e-13
5.99816e-13
5.42086e-13
4.88001e-13
4.37596e-13
3.90864e-13
3.47759e-13
3.08197e-13
2.72067e-13
2.39232e-13
2.09536e-13
1.82808e-13
1.58863e-13
1.37514e-13
1.18566e-13
1.01828e-13
8.71099e-14
7.42262e-14
6.29995e-14
5.32607e-14
4.48503e-14
3.76194e-14
3.14302e-14
2.61559e-14
2.16809e-14
1.79009e-14
1.47216e-14
1.20593e-14
9.83953e-15
7.9967e-15
6.4734e-15
5.2196e-15
4.19204e-15
3.35349e-15
2.67209e-15
2.12074e-15
1.67652e-15
1.32011e-15
1.03536e-15
8.08827e-16
6.29363e-16
4.87784e-16
3.7656e-16
2.89549e-16
2.21763e-16
1.69175e-16
1.28548e-16
9.72907e-17
7.33429e-17
5.50712e-17
4.11879e-17
3.06827e-17
2.27666e-17
1.6826e-17
1.23863e-17
9.08201e-18
6.63286e-18
4.82501e-18
3.49602e-18
2.52307e-18
1.81368e-18
1.29859e-18
9.26112e-19
6.57859e-19
4.65464e-19
3.28074e-19
2.30533e-19
1.62298e-19
1.17219e-19
9.38411e-20
1.74689e-19
2.14678e-19
2.91329e-19
4.06029e-19
5.6756e-19
7.91443e-19
1.09992e-18
1.52327e-18
2.10209e-18
2.89059e-18
3.9608e-18
5.40804e-18
7.35796e-18
9.9755e-18
1.34763e-17
1.81413e-17
2.43347e-17
3.25269e-17
4.3323e-17
5.74982e-17
7.6041e-17
1.00208e-16
1.31587e-16
1.7218e-16
2.24497e-16
2.91673e-16
3.77607e-16
4.87126e-16
6.26181e-16
8.02075e-16
1.02373e-15
1.30201e-15
1.65006e-15
2.08372e-15
2.62202e-15
3.28766e-15
4.10765e-15
5.11392e-15
6.34409e-15
7.84221e-15
9.65964e-15
1.1856e-14
1.44999e-14
1.76704e-14
2.14575e-14
2.59636e-14
3.1304e-14
3.76086e-14
4.50219e-14
5.37045e-14
6.38333e-14
7.56018e-14
8.92207e-14
1.04917e-13
1.22935e-13
1.43533e-13
1.66983e-13
1.93571e-13
2.2359e-13
2.57341e-13
2.95127e-13
3.37251e-13
3.84007e-13
4.35679e-13
4.92533e-13
5.5481e-13
6.2272e-13
6.96434e-13
7.76077e-13
8.61722e-13
9.53381e-13
1.051e-12
1.15444e-12
1.26349e-12
1.37787e-12
1.49719e-12
1.62097e-12
1.74865e-12
1.87958e-12
2.01302e-12
2.14813e-12
2.28401e-12
2.41971e-12
2.55417e-12
2.68634e-12
2.8151e-12
2.93932e-12
3.05788e-12
3.16966e-12
3.27357e-12
3.36859e-12
3.45375e-12
3.52816e-12
3.59104e-12
3.64171e-12
3.67963e-12
3.70439e-12
3.71571e-12
3.71348e-12
3.69774e-12
3.66866e-12
3.62659e-12
3.572e-12
3.50553e-12
3.42792e-12
3.34003e-12
3.24284e-12
3.13742e-12
3.02489e-12
2.90644e-12
2.78331e-12
2.65676e-12
2.52804e-12
2.39842e-12
2.26913e-12
2.14136e-12
2.01628e-12
1.89497e-12
1.77848e-12
1.66776e-12
1.56369e-12
1.46709e-12
1.37866e-12
1.29906e-12
1.22882e-12
1.16842e-12
1.11824e-12
1.07858e-12
1.04967e-12
1.03164e-12
1.02457e-12
1.02845e-12
1.04318e-12
1.0686e-12
1.10448e-12
1.15049e-12
1.20624e-12
1.27127e-12
1.34502e-12
1.42686e-12
1.5161e-12
1.61196e-12
1.71356e-12
1.82001e-12
1.93029e-12
2.04336e-12
2.15812e-12
2.27342e-12
2.38809e-12