/*--------------------------------*- C++ -*----------------------------------*\
| =========                 |                                                 |
| \\      /  F ield         | OpenFOAM: The Open Source CFD Toolbox           |
|  \\    /   O peration     | Version:  v2012                                 |
|   \\  /    A nd           | Website:  www.openfoam.com                      |
|    \\/     M anipulation  |                                                 |
\*---------------------------------------------------------------------------*/
FoamFile
{
    version     2.0;
    format      ascii;
    class       volVectorField;
    location    "70";
    object      Usup;
}
// * * * * * * * * * * * * * * * * * * * * * * * * * * * * * * * * * * * * * //

dimensions      [0 1 -1 0 0 0 0];


internalField   nonuniform List<vector> 
4000
(
(0.000783098 0.000238604 0)
(0.00127285 -0.00074502 0)
(0.0013477 -0.000941991 0)
(0.00231159 -0.00095591 0)
(0.00353168 -0.00105972 0)
(0.00522039 -0.000463533 0)
(0.00687914 -0.00050902 0)
(0.00802197 -0.00103807 0)
(0.00827094 -0.00176613 0)
(0.00774074 -0.00154291 0)
(0.00819826 -0.000674375 0)
(0.0094148 -0.000496664 0)
(0.0104168 -0.00120301 0)
(0.0104809 -0.00255849 0)
(0.00937148 -0.00316385 0)
(0.00848223 -0.0026686 0)
(0.00835307 -0.00209365 0)
(0.00897168 -0.00156263 0)
(0.00919773 -0.00144178 0)
(0.008466 -0.00173693 0)
(0.00743623 -0.0018952 0)
(0.00590948 -0.00137766 0)
(0.00427496 -0.000978124 0)
(0.00293023 -0.000903907 0)
(0.00157292 -0.00130875 0)
(-0.000202468 -0.00175652 0)
(-0.000902688 -0.0014974 0)
(-0.000475609 -0.00165402 0)
(-0.000642623 -0.00148189 0)
(-0.00149914 -0.00179676 0)
(-0.0031516 -0.00277538 0)
(-0.00525144 -0.00252156 0)
(-0.00660159 -0.00151637 0)
(-0.00730436 -0.000817157 0)
(-0.00764601 -0.000295836 0)
(-0.00668689 2.6688e-05 0)
(-0.00513186 -0.000573629 0)
(-0.00523471 -0.00176851 0)
(-0.00765935 -0.00219244 0)
(-0.0105782 -0.00170916 0)
(-0.0127065 -0.000860365 0)
(-0.0137656 -6.21819e-05 0)
(-0.0136586 0.000517348 0)
(-0.0131048 0.000360837 0)
(-0.0125385 7.77798e-05 0)
(-0.0123983 0.00014757 0)
(-0.0127169 0.000447986 0)
(-0.0135036 0.000394038 0)
(-0.014418 0.000399795 0)
(-0.0147871 0.000474013 0)
(-0.0143158 0.000619665 0)
(-0.013624 0.000766716 0)
(-0.0130723 0.00076068 0)
(-0.0124451 0.000800033 0)
(-0.0119768 0.00061327 0)
(-0.0120192 0.000407341 0)
(-0.0126456 0.000779281 0)
(-0.0131366 0.000863173 0)
(-0.0129495 0.000934092 0)
(-0.0116566 0.00116889 0)
(-0.00974587 0.00138641 0)
(-0.00776897 0.00164678 0)
(-0.00595233 0.00130739 0)
(-0.00511966 0.000877389 0)
(-0.00490816 0.000970437 0)
(-0.00396007 0.0012574 0)
(-0.00234834 0.00141652 0)
(-0.00063313 0.00127668 0)
(0.000529763 0.000797214 0)
(0.00128464 0.000862331 0)
(0.00224804 0.00107512 0)
(0.0033803 0.000808052 0)
(0.00435467 0.000372355 0)
(0.00482756 0.000273617 0)
(0.00499917 0.000549376 0)
(0.00540199 0.00113826 0)
(0.00694205 0.00145195 0)
(0.0090944 0.00170834 0)
(0.0110731 0.00173861 0)
(0.0124061 0.00130308 0)
(0.0130506 0.000945255 0)
(0.0133159 0.000921554 0)
(0.0134546 0.0011047 0)
(0.0138087 0.00149449 0)
(0.0142261 0.00192739 0)
(0.0153108 0.00197131 0)
(0.016017 0.00148559 0)
(0.0151937 0.00124922 0)
(0.0140672 0.00135545 0)
(0.0135673 0.0012763 0)
(0.0131222 0.00093974 0)
(0.0124982 0.000755276 0)
(0.0123603 0.000716322 0)
(0.0120631 0.000903736 0)
(0.0110385 0.000946125 0)
(0.0099589 0.000927372 0)
(0.0087089 0.000681899 0)
(0.00716918 0.000357332 0)
(0.00518454 -0.000143714 0)
(0.00229832 -0.000164217 0)
(0.00115678 -0.000109796 0)
(0.00293903 -0.00197431 0)
(0.00474093 -0.00229186 0)
(0.00741484 -0.00246643 0)
(0.0111805 -0.00277232 0)
(0.0154498 -0.00212281 0)
(0.0187329 -0.00230948 0)
(0.0211646 -0.00304386 0)
(0.0227561 -0.00410128 0)
(0.023512 -0.00408073 0)
(0.0247441 -0.00285558 0)
(0.0262382 -0.00260207 0)
(0.0272564 -0.00413572 0)
(0.0274753 -0.00684579 0)
(0.026662 -0.00835072 0)
(0.0256048 -0.00776605 0)
(0.0251498 -0.00629908 0)
(0.0256772 -0.00496934 0)
(0.0251248 -0.00469434 0)
(0.0230212 -0.00488565 0)
(0.0207833 -0.00475594 0)
(0.0172527 -0.00406745 0)
(0.0126665 -0.00350313 0)
(0.00826561 -0.00349439 0)
(0.00408819 -0.00452368 0)
(0.000323599 -0.0051089 0)
(-0.00160018 -0.00467663 0)
(-0.00167889 -0.00494498 0)
(-0.00280502 -0.00509188 0)
(-0.00616814 -0.0059445 0)
(-0.00994101 -0.00734095 0)
(-0.0134945 -0.00681375 0)
(-0.016736 -0.00496668 0)
(-0.019146 -0.00338889 0)
(-0.0203192 -0.00177437 0)
(-0.0195023 -0.00096413 0)
(-0.0180737 -0.00187278 0)
(-0.0187994 -0.00407176 0)
(-0.02309 -0.00489587 0)
(-0.0289425 -0.00375433 0)
(-0.0339855 -0.00232456 0)
(-0.037061 -0.000563209 0)
(-0.0380718 0.000420778 0)
(-0.0378326 0.000557054 0)
(-0.0366627 0.000525672 0)
(-0.0360618 0.000772139 0)
(-0.0369868 0.00115111 0)
(-0.0389885 0.00103683 0)
(-0.0408544 0.000790818 0)
(-0.0415405 0.000786066 0)
(-0.0405406 0.00162994 0)
(-0.0390805 0.00193735 0)
(-0.037715 0.00231019 0)
(-0.0363199 0.00260116 0)
(-0.0353786 0.00238042 0)
(-0.0349075 0.00177602 0)
(-0.0357137 0.00213518 0)
(-0.0365918 0.0020382 0)
(-0.0355585 0.00228626 0)
(-0.03214 0.00333992 0)
(-0.0273401 0.00471703 0)
(-0.0226914 0.00538417 0)
(-0.0185757 0.00473608 0)
(-0.0155402 0.00340621 0)
(-0.0134623 0.00312467 0)
(-0.0105564 0.00339896 0)
(-0.00669726 0.00357297 0)
(-0.00277206 0.00361082 0)
(0.000740661 0.00305486 0)
(0.00379333 0.00329833 0)
(0.00636171 0.00341104 0)
(0.00893702 0.002733 0)
(0.0117307 0.00206513 0)
(0.0139401 0.00154288 0)
(0.0155951 0.00178145 0)
(0.0173951 0.0029745 0)
(0.0211728 0.00424444 0)
(0.0262865 0.00469576 0)
(0.0307792 0.00463071 0)
(0.0341114 0.00353029 0)
(0.0364874 0.00277202 0)
(0.0380023 0.00320149 0)
(0.0390583 0.00426333 0)
(0.0403168 0.00501006 0)
(0.0413258 0.0055342 0)
(0.0429366 0.0052653 0)
(0.0440656 0.00370875 0)
(0.0428744 0.00304825 0)
(0.040537 0.00341038 0)
(0.0387107 0.00388688 0)
(0.037264 0.00351405 0)
(0.0358609 0.00293811 0)
(0.035258 0.00276624 0)
(0.0340235 0.00272521 0)
(0.0311269 0.00279394 0)
(0.0277624 0.00270515 0)
(0.0238112 0.00209754 0)
(0.0190337 0.00133645 0)
(0.0133726 -9.56606e-06 0)
(0.00583813 -9.80648e-05 0)
(0.00173544 -0.00114929 0)
(0.00514401 -0.0032348 0)
(0.00859604 -0.00366672 0)
(0.0126582 -0.00314467 0)
(0.0183429 -0.00376828 0)
(0.0246397 -0.00413654 0)
(0.0296294 -0.00484758 0)
(0.0334029 -0.00540976 0)
(0.0359018 -0.00635019 0)
(0.0377044 -0.00633482 0)
(0.0398792 -0.00515161 0)
(0.041438 -0.00521819 0)
(0.0421044 -0.00712026 0)
(0.0423474 -0.0104128 0)
(0.0420506 -0.0128093 0)
(0.0416634 -0.0126043 0)
(0.0413323 -0.0106495 0)
(0.0411104 -0.00878609 0)
(0.0395679 -0.00815189 0)
(0.0364997 -0.00745569 0)
(0.0327427 -0.00705379 0)
(0.0271328 -0.00682471 0)
(0.020189 -0.00617725 0)
(0.0130393 -0.00612324 0)
(0.00668862 -0.00758701 0)
(0.00152211 -0.00842877 0)
(-0.00183383 -0.0081136 0)
(-0.00325711 -0.008446 0)
(-0.00582259 -0.00977514 0)
(-0.0108336 -0.011128 0)
(-0.0160549 -0.0117444 0)
(-0.0208841 -0.0106543 0)
(-0.0255121 -0.00842025 0)
(-0.0289965 -0.00605337 0)
(-0.0311208 -0.00362946 0)
(-0.031385 -0.00285134 0)
(-0.031077 -0.00309118 0)
(-0.032842 -0.00452627 0)
(-0.0381141 -0.00542967 0)
(-0.0459533 -0.00503448 0)
(-0.0531351 -0.00417332 0)
(-0.0578995 -0.00245134 0)
(-0.0600879 -0.000647355 0)
(-0.0600957 0.000912633 0)
(-0.0589861 0.00201463 0)
(-0.0586533 0.00219227 0)
(-0.0601807 0.00156852 0)
(-0.0630838 0.000733862 0)
(-0.0655907 0.00084869 0)
(-0.0658248 0.00158478 0)
(-0.064377 0.00283635 0)
(-0.062563 0.00287215 0)
(-0.0604455 0.00317585 0)
(-0.058669 0.00354572 0)
(-0.0576712 0.00391418 0)
(-0.0569245 0.00361115 0)
(-0.0574939 0.00363471 0)
(-0.0579464 0.00370718 0)
(-0.0552883 0.00424963 0)
(-0.049465 0.0059959 0)
(-0.0427018 0.0078646 0)
(-0.0366613 0.00836626 0)
(-0.0311767 0.00783317 0)
(-0.0262885 0.0067307 0)
(-0.0219059 0.00605988 0)
(-0.0168356 0.00612812 0)
(-0.0106491 0.0060545 0)
(-0.00453868 0.0059783 0)
(0.00100914 0.00564015 0)
(0.00585772 0.00528368 0)
(0.00975896 0.00455115 0)
(0.0139718 0.00389134 0)
(0.018338 0.00350669 0)
(0.0220385 0.0032742 0)
(0.0257223 0.00396731 0)
(0.0297957 0.00536669 0)
(0.0353865 0.0066586 0)
(0.0422132 0.00713556 0)
(0.0484812 0.00671868 0)
(0.053556 0.00584761 0)
(0.0581717 0.00551311 0)
(0.0616172 0.00590361 0)
(0.0633645 0.00728067 0)
(0.0647674 0.00844346 0)
(0.0660166 0.00885414 0)
(0.0675082 0.00836226 0)
(0.0688661 0.00654549 0)
(0.0681994 0.0052152 0)
(0.0657229 0.00530189 0)
(0.0628147 0.00612915 0)
(0.0597946 0.00600251 0)
(0.0573928 0.00568319 0)
(0.0559887 0.00517757 0)
(0.0537225 0.0047094 0)
(0.0493507 0.00439944 0)
(0.0437403 0.00410556 0)
(0.0371592 0.00356233 0)
(0.0291556 0.0028589 0)
(0.0202093 0.00157405 0)
(0.00870576 0.000654379 0)
(0.00232737 -0.00186878 0)
(0.00742215 -0.00456502 0)
(0.0132674 -0.0049968 0)
(0.0185111 -0.00429347 0)
(0.0248604 -0.00447284 0)
(0.0326417 -0.00647687 0)
(0.0391997 -0.00791806 0)
(0.0441977 -0.00843316 0)
(0.0480263 -0.00849523 0)
(0.0515566 -0.00769113 0)
(0.0541332 -0.00711686 0)
(0.0549627 -0.00815094 0)
(0.0547747 -0.0101244 0)
(0.054781 -0.0133128 0)
(0.055687 -0.0160404 0)
(0.0567327 -0.0167846 0)
(0.056688 -0.0156792 0)
(0.0556322 -0.013841 0)
(0.0531228 -0.0119604 0)
(0.0487844 -0.00972813 0)
(0.0432572 -0.0093988 0)
(0.0362329 -0.00932221 0)
(0.0274786 -0.00844551 0)
(0.0174671 -0.00911729 0)
(0.00866074 -0.0109773 0)
(0.00249722 -0.0124324 0)
(-0.00193035 -0.0120405 0)
(-0.00539351 -0.0121337 0)
(-0.00964028 -0.0141149 0)
(-0.0155336 -0.0157865 0)
(-0.0212752 -0.0157018 0)
(-0.0267116 -0.0142035 0)
(-0.0323989 -0.0115878 0)
(-0.0371079 -0.00846605 0)
(-0.0408957 -0.00603892 0)
(-0.0425542 -0.00459244 0)
(-0.0432865 -0.00402751 0)
(-0.0465096 -0.00484281 0)
(-0.053359 -0.00583785 0)
(-0.0626283 -0.00616593 0)
(-0.0708866 -0.00536326 0)
(-0.0761656 -0.00401168 0)
(-0.0787586 -0.00135633 0)
(-0.0795478 0.00110721 0)
(-0.0795805 0.00269997 0)
(-0.0806368 0.00300502 0)
(-0.0831061 0.00210301 0)
(-0.0856836 0.00109404 0)
(-0.0874189 0.00122103 0)
(-0.0876635 0.00231191 0)
(-0.0867287 0.00313967 0)
(-0.0849602 0.00322389 0)
(-0.0821354 0.00358418 0)
(-0.0794568 0.00429359 0)
(-0.0779931 0.00502198 0)
(-0.0771475 0.00547901 0)
(-0.0772668 0.00548397 0)
(-0.0769529 0.00616523 0)
(-0.0728568 0.00717874 0)
(-0.0653211 0.00885956 0)
(-0.057303 0.0101746 0)
(-0.0498997 0.0107623 0)
(-0.0426258 0.0107176 0)
(-0.0359702 0.0103433 0)
(-0.0296704 0.00953175 0)
(-0.0226457 0.00923561 0)
(-0.0147595 0.00896148 0)
(-0.0067983 0.00876687 0)
(0.000414986 0.00820699 0)
(0.00673452 0.00697171 0)
(0.0125208 0.0057672 0)
(0.0187017 0.00502089 0)
(0.0249031 0.00444877 0)
(0.0306485 0.00510097 0)
(0.0361594 0.00695756 0)
(0.0414962 0.00838396 0)
(0.0485631 0.0091099 0)
(0.0569529 0.00939724 0)
(0.0648498 0.00874243 0)
(0.0719177 0.00809217 0)
(0.0779796 0.00811593 0)
(0.0827632 0.0083244 0)
(0.0859579 0.0095888 0)
(0.0879297 0.0112835 0)
(0.0890773 0.0120174 0)
(0.0902857 0.0116668 0)
(0.0912835 0.0098057 0)
(0.0907509 0.00785739 0)
(0.0885312 0.0074128 0)
(0.084949 0.00790553 0)
(0.0809744 0.00810837 0)
(0.0774767 0.00827767 0)
(0.0748661 0.00809105 0)
(0.0714427 0.00691845 0)
(0.0655793 0.00597857 0)
(0.0582528 0.00562919 0)
(0.0494551 0.00529595 0)
(0.0386634 0.0049475 0)
(0.0262111 0.00386046 0)
(0.0106025 0.00176128 0)
(0.0028852 -0.00169114 0)
(0.00993614 -0.00494704 0)
(0.0177898 -0.00588531 0)
(0.0244003 -0.00631032 0)
(0.0308145 -0.00722813 0)
(0.0390843 -0.00980809 0)
(0.0479385 -0.0109495 0)
(0.0550546 -0.010908 0)
(0.060279 -0.0096814 0)
(0.0638928 -0.00831502 0)
(0.0659757 -0.00921445 0)
(0.0668429 -0.0115442 0)
(0.0667254 -0.0141675 0)
(0.0665512 -0.0162833 0)
(0.0675465 -0.0179754 0)
(0.0691807 -0.0201115 0)
(0.0699283 -0.0204355 0)
(0.0693857 -0.0192168 0)
(0.0668445 -0.0166057 0)
(0.0606923 -0.0133535 0)
(0.0527497 -0.0121156 0)
(0.0444001 -0.0119836 0)
(0.0334492 -0.0118533 0)
(0.0207463 -0.013208 0)
(0.010341 -0.014666 0)
(0.00357646 -0.015693 0)
(-0.00157812 -0.0151685 0)
(-0.0071871 -0.0152828 0)
(-0.0134206 -0.0170994 0)
(-0.0197709 -0.0189306 0)
(-0.0258767 -0.0185231 0)
(-0.032125 -0.016864 0)
(-0.0384684 -0.0141988 0)
(-0.0443831 -0.0112944 0)
(-0.0493801 -0.00930648 0)
(-0.052167 -0.00665351 0)
(-0.054766 -0.00556154 0)
(-0.0597461 -0.00580531 0)
(-0.0677523 -0.00657994 0)
(-0.0778412 -0.00679725 0)
(-0.087077 -0.00567635 0)
(-0.0929709 -0.00382758 0)
(-0.0959062 -0.00150188 0)
(-0.0975669 9.70028e-05 0)
(-0.0985935 0.00124033 0)
(-0.100649 0.00238974 0)
(-0.103849 0.00286951 0)
(-0.1068 0.00272763 0)
(-0.108428 0.00223395 0)
(-0.108385 0.0026116 0)
(-0.107369 0.00292208 0)
(-0.105169 0.00349429 0)
(-0.101641 0.00434437 0)
(-0.0985778 0.00557616 0)
(-0.0968269 0.00636525 0)
(-0.0958115 0.0071051 0)
(-0.0954119 0.00710736 0)
(-0.0939584 0.0083269 0)
(-0.0886819 0.0101242 0)
(-0.0798809 0.0114389 0)
(-0.0704648 0.0122198 0)
(-0.0616273 0.0131461 0)
(-0.0530764 0.0137664 0)
(-0.045234 0.01386 0)
(-0.0374302 0.0137873 0)
(-0.0284657 0.0132142 0)
(-0.0184938 0.0125617 0)
(-0.00883676 0.0120971 0)
(-0.000460527 0.0110461 0)
(0.00729932 0.00881592 0)
(0.0148131 0.00733916 0)
(0.0226255 0.00650661 0)
(0.0309805 0.00601363 0)
(0.0392507 0.00699723 0)
(0.0462794 0.00882337 0)
(0.0525696 0.0102872 0)
(0.060827 0.0115815 0)
(0.0704271 0.0119903 0)
(0.0796819 0.0113698 0)
(0.0884605 0.0102651 0)
(0.0962865 0.00988351 0)
(0.102656 0.0106509 0)
(0.107104 0.0121004 0)
(0.109478 0.0135184 0)
(0.110383 0.0142196 0)
(0.110842 0.0137471 0)
(0.111313 0.0122184 0)
(0.11119 0.0105789 0)
(0.109435 0.00990598 0)
(0.105648 0.0102162 0)
(0.100846 0.0106389 0)
(0.0964253 0.0110754 0)
(0.0920878 0.0116007 0)
(0.0869252 0.00999507 0)
(0.0802447 0.00876625 0)
(0.071565 0.00811339 0)
(0.0608217 0.00773622 0)
(0.0473768 0.00738095 0)
(0.0314759 0.00567662 0)
(0.0118457 0.00235828 0)
(0.00325411 -0.00185547 0)
(0.0118151 -0.00452777 0)
(0.0215439 -0.00673513 0)
(0.0288731 -0.00890107 0)
(0.0359354 -0.0103393 0)
(0.0459464 -0.0116886 0)
(0.0567214 -0.0127029 0)
(0.0654539 -0.0123944 0)
(0.0718687 -0.0115229 0)
(0.0751314 -0.0110451 0)
(0.0761021 -0.0119471 0)
(0.0765872 -0.0143233 0)
(0.0771432 -0.0175551 0)
(0.0779471 -0.0195114 0)
(0.0784909 -0.0209301 0)
(0.0798998 -0.0228 0)
(0.0815162 -0.0239719 0)
(0.0816263 -0.0232582 0)
(0.0792732 -0.0205788 0)
(0.072103 -0.0175931 0)
(0.0619641 -0.0156179 0)
(0.0513925 -0.0161916 0)
(0.0385463 -0.0180236 0)
(0.0242642 -0.0184551 0)
(0.0126237 -0.0178403 0)
(0.00499346 -0.0173477 0)
(-0.00143346 -0.0169087 0)
(-0.00909414 -0.0175288 0)
(-0.0170941 -0.01938 0)
(-0.0240112 -0.0211366 0)
(-0.03001 -0.0210338 0)
(-0.0366034 -0.0191688 0)
(-0.043942 -0.0162501 0)
(-0.0513116 -0.0129266 0)
(-0.0570311 -0.0105933 0)
(-0.0608265 -0.00826953 0)
(-0.065246 -0.00759479 0)
(-0.07186 -0.00760699 0)
(-0.0812651 -0.00786563 0)
(-0.0919813 -0.00715209 0)
(-0.101386 -0.00540407 0)
(-0.107936 -0.00302497 0)
(-0.112252 -0.00132814 0)
(-0.114941 -0.000988062 0)
(-0.11604 -0.000656512 0)
(-0.118223 0.000341849 0)
(-0.122285 0.00222425 0)
(-0.126197 0.00349411 0)
(-0.128011 0.00362952 0)
(-0.127812 0.0035602 0)
(-0.126497 0.00370273 0)
(-0.12377 0.00428888 0)
(-0.119689 0.00505053 0)
(-0.116181 0.00623959 0)
(-0.114187 0.00731479 0)
(-0.113023 0.0081809 0)
(-0.111785 0.00873444 0)
(-0.108827 0.0106168 0)
(-0.102809 0.0130505 0)
(-0.0935574 0.014236 0)
(-0.0828499 0.014469 0)
(-0.0722954 0.0151717 0)
(-0.0622983 0.0160058 0)
(-0.0528925 0.0168795 0)
(-0.0438729 0.0179572 0)
(-0.0339974 0.018051 0)
(-0.0226538 0.0176996 0)
(-0.0115894 0.0165516 0)
(-0.00236932 0.0143923 0)
(0.00680963 0.0110222 0)
(0.0166813 0.00808991 0)
(0.0265348 0.00735609 0)
(0.0369007 0.0079796 0)
(0.0470845 0.00909218 0)
(0.0556917 0.0105529 0)
(0.0635382 0.0123792 0)
(0.0729629 0.0139523 0)
(0.0832042 0.0140986 0)
(0.0931395 0.0136036 0)
(0.103201 0.0129599 0)
(0.113007 0.0126992 0)
(0.121062 0.0129485 0)
(0.126295 0.013633 0)
(0.128992 0.0146411 0)
(0.129758 0.0155546 0)
(0.130005 0.0156847 0)
(0.130343 0.0148181 0)
(0.130072 0.013295 0)
(0.128447 0.0126908 0)
(0.124511 0.0127199 0)
(0.119225 0.0133116 0)
(0.114168 0.0144028 0)
(0.108159 0.0146781 0)
(0.101188 0.0136614 0)
(0.0933086 0.0125103 0)
(0.0833928 0.0117908 0)
(0.0710751 0.0106565 0)
(0.0550328 0.00926371 0)
(0.0356388 0.00668118 0)
(0.0128084 0.00230236 0)
(0.00442873 -0.00214104 0)
(0.014138 -0.00460056 0)
(0.0239926 -0.00730128 0)
(0.0329693 -0.0104007 0)
(0.0419295 -0.0120949 0)
(0.0525071 -0.0129758 0)
(0.0644928 -0.0139668 0)
(0.0747001 -0.0141975 0)
(0.0814819 -0.0141962 0)
(0.0849683 -0.0152359 0)
(0.0859193 -0.0159086 0)
(0.0858179 -0.0170777 0)
(0.0864564 -0.0191591 0)
(0.0876964 -0.0216961 0)
(0.0884768 -0.0243278 0)
(0.089732 -0.025635 0)
(0.0916015 -0.0267426 0)
(0.0928832 -0.0264048 0)
(0.0906967 -0.0242434 0)
(0.0823327 -0.0230137 0)
(0.0696953 -0.0223949 0)
(0.0561418 -0.0226755 0)
(0.0426671 -0.0233728 0)
(0.0290279 -0.0218087 0)
(0.0165641 -0.0196677 0)
(0.00701917 -0.0179556 0)
(-0.0014623 -0.0182192 0)
(-0.0111536 -0.0198454 0)
(-0.0206139 -0.0214308 0)
(-0.0279895 -0.0226035 0)
(-0.0339567 -0.0226769 0)
(-0.04062 -0.0216148 0)
(-0.0481993 -0.0188311 0)
(-0.0565843 -0.0150014 0)
(-0.0640894 -0.0112912 0)
(-0.0697106 -0.00939931 0)
(-0.0756912 -0.00872852 0)
(-0.083275 -0.0083821 0)
(-0.0929625 -0.00832491 0)
(-0.103924 -0.00726267 0)
(-0.114157 -0.00542824 0)
(-0.12197 -0.00348162 0)
(-0.12786 -0.00206622 0)
(-0.131599 -0.00198605 0)
(-0.132955 -0.00185875 0)
(-0.134541 -0.00133676 0)
(-0.138136 0.00113987 0)
(-0.142876 0.00369002 0)
(-0.145831 0.00446265 0)
(-0.145876 0.0040516 0)
(-0.144182 0.00422256 0)
(-0.14107 0.00516821 0)
(-0.136449 0.00633754 0)
(-0.132379 0.0070951 0)
(-0.13001 0.00806019 0)
(-0.128441 0.00896702 0)
(-0.126204 0.00995954 0)
(-0.121996 0.0119698 0)
(-0.115457 0.0148978 0)
(-0.106051 0.0171597 0)
(-0.0943781 0.0179533 0)
(-0.0822337 0.018118 0)
(-0.0705831 0.0185047 0)
(-0.0595739 0.0192549 0)
(-0.0493505 0.0204626 0)
(-0.0383997 0.0216203 0)
(-0.026252 0.0217161 0)
(-0.0148293 0.0201145 0)
(-0.00504804 0.0170872 0)
(0.00509349 0.0141044 0)
(0.0174048 0.0113287 0)
(0.0306018 0.0100088 0)
(0.042999 0.010817 0)
(0.0545102 0.0123343 0)
(0.0646948 0.0138698 0)
(0.0737803 0.0151432 0)
(0.0836231 0.0155301 0)
(0.0945593 0.0150804 0)
(0.105981 0.0147908 0)
(0.117426 0.0150186 0)
(0.128062 0.0152186 0)
(0.136922 0.0149575 0)
(0.143398 0.0156284 0)
(0.147119 0.0167568 0)
(0.148269 0.0178173 0)
(0.147981 0.0178635 0)
(0.147393 0.0166922 0)
(0.147175 0.0153981 0)
(0.145874 0.015096 0)
(0.141961 0.0152744 0)
(0.13667 0.0162327 0)
(0.130494 0.0173953 0)
(0.122813 0.0173502 0)
(0.114483 0.016821 0)
(0.105523 0.0161069 0)
(0.0939532 0.0154557 0)
(0.0794067 0.0133657 0)
(0.0612087 0.0106471 0)
(0.0391215 0.00731925 0)
(0.0138727 0.00257507 0)
(0.0051455 -0.00225996 0)
(0.0160827 -0.00594756 0)
(0.026744 -0.0086548 0)
(0.0363591 -0.010506 0)
(0.0466972 -0.0126161 0)
(0.0588957 -0.0140803 0)
(0.0717517 -0.0154454 0)
(0.0826638 -0.0167682 0)
(0.0897294 -0.0174161 0)
(0.0935291 -0.0187732 0)
(0.0952322 -0.0192693 0)
(0.0952888 -0.0195314 0)
(0.0951835 -0.0208606 0)
(0.0956285 -0.024207 0)
(0.096825 -0.0274902 0)
(0.0988415 -0.0288554 0)
(0.100924 -0.0295002 0)
(0.102457 -0.0298184 0)
(0.0995054 -0.0297162 0)
(0.0896379 -0.0296769 0)
(0.0765198 -0.0289511 0)
(0.0628489 -0.0269999 0)
(0.0490379 -0.0255843 0)
(0.0344176 -0.0238776 0)
(0.020437 -0.0216038 0)
(0.00863121 -0.0197744 0)
(-0.00258023 -0.0206051 0)
(-0.0134779 -0.0225029 0)
(-0.0233933 -0.0239967 0)
(-0.0314682 -0.0248206 0)
(-0.0381037 -0.0245906 0)
(-0.0448253 -0.0233453 0)
(-0.0522276 -0.0197353 0)
(-0.0608323 -0.0159236 0)
(-0.0697175 -0.0123281 0)
(-0.0773867 -0.0104211 0)
(-0.084603 -0.00950069 0)
(-0.0934607 -0.00882529 0)
(-0.104283 -0.0089696 0)
(-0.115689 -0.00861517 0)
(-0.126336 -0.00684902 0)
(-0.134847 -0.00425187 0)
(-0.141881 -0.00221835 0)
(-0.146572 -0.00116414 0)
(-0.148172 -0.00112787 0)
(-0.149297 -0.00170462 0)
(-0.152418 -0.000454363 0)
(-0.158014 0.00185323 0)
(-0.162275 0.00370293 0)
(-0.162579 0.00475402 0)
(-0.160097 0.00568772 0)
(-0.156249 0.00679001 0)
(-0.15174 0.00780305 0)
(-0.147679 0.00785882 0)
(-0.144757 0.00814319 0)
(-0.142636 0.00882631 0)
(-0.139479 0.0103872 0)
(-0.133743 0.0129238 0)
(-0.125867 0.016298 0)
(-0.116169 0.0193306 0)
(-0.104683 0.021079 0)
(-0.0918886 0.0211965 0)
(-0.0787974 0.0214038 0)
(-0.0660675 0.0222305 0)
(-0.0539934 0.023716 0)
(-0.0421423 0.025448 0)
(-0.0300024 0.0251921 0)
(-0.0184075 0.0229975 0)
(-0.00741246 0.0199682 0)
(0.00468059 0.0173517 0)
(0.0184343 0.015514 0)
(0.0335122 0.0138008 0)
(0.0484898 0.0132642 0)
(0.0616912 0.014423 0)
(0.0725969 0.0163536 0)
(0.0821091 0.0175753 0)
(0.0928138 0.0174303 0)
(0.10509 0.0167262 0)
(0.117947 0.0165805 0)
(0.130586 0.0167437 0)
(0.141979 0.0168674 0)
(0.15203 0.0168168 0)
(0.159645 0.0175026 0)
(0.163708 0.0186021 0)
(0.164475 0.0192402 0)
(0.163567 0.0189092 0)
(0.163056 0.0179987 0)
(0.163191 0.0176955 0)
(0.162069 0.0176284 0)
(0.158181 0.0180545 0)
(0.152475 0.0189769 0)
(0.145281 0.0199319 0)
(0.136367 0.0204195 0)
(0.126954 0.0201747 0)
(0.116718 0.0191851 0)
(0.103202 0.0177583 0)
(0.0864728 0.0157819 0)
(0.0663765 0.0126219 0)
(0.0421874 0.00865033 0)
(0.0146423 0.00326215 0)
(0.00554857 -0.0025169 0)
(0.0176674 -0.00656827 0)
(0.030075 -0.0100334 0)
(0.0408053 -0.0120783 0)
(0.0514332 -0.0131215 0)
(0.0639536 -0.0146007 0)
(0.0773832 -0.0166101 0)
(0.0893406 -0.0189772 0)
(0.0971605 -0.0206098 0)
(0.101643 -0.0209978 0)
(0.104096 -0.0215608 0)
(0.103874 -0.0225708 0)
(0.102507 -0.0246162 0)
(0.10232 -0.0280183 0)
(0.104312 -0.0306434 0)
(0.107025 -0.0317031 0)
(0.108959 -0.032125 0)
(0.109857 -0.0334838 0)
(0.106758 -0.0356505 0)
(0.097419 -0.0350132 0)
(0.0845048 -0.0320448 0)
(0.06956 -0.0283984 0)
(0.0538453 -0.0267058 0)
(0.0386789 -0.0264133 0)
(0.02411 -0.0250173 0)
(0.0100987 -0.0239729 0)
(-0.00326732 -0.0246214 0)
(-0.0155516 -0.0254195 0)
(-0.0263091 -0.0264922 0)
(-0.0345 -0.0270578 0)
(-0.041014 -0.0264813 0)
(-0.047208 -0.0237966 0)
(-0.054817 -0.0197875 0)
(-0.0650017 -0.0157055 0)
(-0.0755764 -0.0127648 0)
(-0.0847612 -0.0112004 0)
(-0.0932443 -0.010697 0)
(-0.103269 -0.010741 0)
(-0.114916 -0.0104215 0)
(-0.126204 -0.00925683 0)
(-0.136427 -0.00675317 0)
(-0.145501 -0.00376825 0)
(-0.153755 -0.00236458 0)
(-0.159962 -0.000914855 0)
(-0.163318 -0.00128516 0)
(-0.164656 -0.00245214 0)
(-0.166641 -0.00239771 0)
(-0.171318 -0.000309944 0)
(-0.175419 0.0027254 0)
(-0.17618 0.00533768 0)
(-0.174296 0.00716879 0)
(-0.170787 0.00774243 0)
(-0.166431 0.0080515 0)
(-0.162252 0.00814961 0)
(-0.158647 0.00858669 0)
(-0.155229 0.00935827 0)
(-0.150547 0.0114881 0)
(-0.143706 0.014614 0)
(-0.135243 0.0177624 0)
(-0.125203 0.020185 0)
(-0.113599 0.0220496 0)
(-0.100323 0.0227398 0)
(-0.0857612 0.0237257 0)
(-0.0713468 0.0256617 0)
(-0.0579432 0.0277698 0)
(-0.0457202 0.0297518 0)
(-0.0338821 0.0295961 0)
(-0.0219189 0.0269843 0)
(-0.00989196 0.0234563 0)
(0.00363817 0.0200413 0)
(0.0190732 0.0179003 0)
(0.035632 0.0167493 0)
(0.0524964 0.0156788 0)
(0.0681412 0.0163577 0)
(0.0806764 0.0184523 0)
(0.0905413 0.0206356 0)
(0.101269 0.0206907 0)
(0.114463 0.0194381 0)
(0.128674 0.0190044 0)
(0.142294 0.0186105 0)
(0.154525 0.018451 0)
(0.1653 0.018253 0)
(0.173866 0.0180234 0)
(0.178536 0.0188911 0)
(0.179352 0.0194634 0)
(0.178357 0.0200185 0)
(0.177914 0.0200365 0)
(0.178124 0.0199555 0)
(0.176865 0.0198424 0)
(0.172908 0.0203071 0)
(0.16698 0.0213713 0)
(0.159216 0.0225536 0)
(0.149139 0.0230924 0)
(0.137953 0.0230081 0)
(0.126093 0.0216168 0)
(0.111513 0.0197344 0)
(0.0931904 0.0179792 0)
(0.0708769 0.0146626 0)
(0.0444803 0.00970794 0)
(0.0148578 0.00331692 0)
(0.00609634 -0.0021641 0)
(0.0188888 -0.00629604 0)
(0.0320357 -0.010344 0)
(0.044538 -0.0141104 0)
(0.0564445 -0.0156667 0)
(0.0690882 -0.0162977 0)
(0.0824019 -0.0178966 0)
(0.0946099 -0.0199828 0)
(0.104022 -0.0224956 0)
(0.109349 -0.0235867 0)
(0.111169 -0.0247032 0)
(0.110528 -0.0266141 0)
(0.108855 -0.0292449 0)
(0.108847 -0.0315799 0)
(0.111521 -0.0329252 0)
(0.114698 -0.0341749 0)
(0.115893 -0.0349134 0)
(0.115269 -0.0368331 0)
(0.112695 -0.0391896 0)
(0.105296 -0.0389279 0)
(0.0928751 -0.0357386 0)
(0.0765715 -0.0315784 0)
(0.0584609 -0.0286236 0)
(0.0416984 -0.0281154 0)
(0.0263023 -0.0272675 0)
(0.0110185 -0.0268602 0)
(-0.00350524 -0.0278901 0)
(-0.0166495 -0.028612 0)
(-0.028311 -0.0287648 0)
(-0.0370754 -0.0285961 0)
(-0.0431979 -0.0271129 0)
(-0.0492233 -0.0237777 0)
(-0.0573488 -0.020501 0)
(-0.0683969 -0.0174232 0)
(-0.0807046 -0.0144093 0)
(-0.0916808 -0.0123343 0)
(-0.10158 -0.0114373 0)
(-0.112093 -0.0118827 0)
(-0.123564 -0.0112899 0)
(-0.134881 -0.00907422 0)
(-0.145623 -0.00648891 0)
(-0.156234 -0.0044717 0)
(-0.165509 -0.0035749 0)
(-0.172431 -0.0030809 0)
(-0.17671 -0.00306194 0)
(-0.178129 -0.00231714 0)
(-0.179328 -0.00192752 0)
(-0.183068 -0.00029993 0)
(-0.187134 0.00239169 0)
(-0.188353 0.00481978 0)
(-0.187232 0.00633972 0)
(-0.1842 0.00722415 0)
(-0.179586 0.00795177 0)
(-0.174837 0.00874815 0)
(-0.170694 0.00978237 0)
(-0.16646 0.0104487 0)
(-0.160543 0.0125021 0)
(-0.152835 0.0157135 0)
(-0.144038 0.0190219 0)
(-0.133626 0.0218099 0)
(-0.121554 0.0234622 0)
(-0.107382 0.0250579 0)
(-0.0912314 0.0264475 0)
(-0.0754518 0.0280557 0)
(-0.0610638 0.0299685 0)
(-0.0485581 0.0316376 0)
(-0.0374535 0.0319796 0)
(-0.0259913 0.0298465 0)
(-0.0132553 0.0264256 0)
(0.00215835 0.0229413 0)
(0.0198378 0.0211255 0)
(0.037921 0.0196714 0)
(0.0564218 0.019005 0)
(0.0740954 0.0200912 0)
(0.0882295 0.0221665 0)
(0.0983462 0.0243052 0)
(0.108601 0.0236062 0)
(0.122536 0.0216886 0)
(0.13794 0.0207856 0)
(0.152544 0.019873 0)
(0.165654 0.0192405 0)
(0.177011 0.0191502 0)
(0.186538 0.0194169 0)
(0.192084 0.019883 0)
(0.193269 0.0205795 0)
(0.192343 0.0216163 0)
(0.191482 0.0216668 0)
(0.191363 0.0212398 0)
(0.190218 0.0212169 0)
(0.18652 0.0220592 0)
(0.180429 0.0230624 0)
(0.171711 0.023758 0)
(0.160504 0.0240223 0)
(0.148086 0.0238573 0)
(0.134727 0.0224921 0)
(0.118945 0.0204203 0)
(0.0990103 0.0190884 0)
(0.0743413 0.0161908 0)
(0.0457488 0.0104618 0)
(0.0151598 0.00292775 0)
(0.00640634 -0.00244419 0)
(0.0199203 -0.00700336 0)
(0.0335293 -0.0109166 0)
(0.0470175 -0.0148977 0)
(0.0608954 -0.0174305 0)
(0.0743269 -0.0183259 0)
(0.0875927 -0.019892 0)
(0.0997124 -0.0214999 0)
(0.108995 -0.0235907 0)
(0.115109 -0.025831 0)
(0.117421 -0.0284697 0)
(0.116389 -0.0311399 0)
(0.114837 -0.0333404 0)
(0.115536 -0.0344782 0)
(0.118076 -0.0349038 0)
(0.120796 -0.0360426 0)
(0.121609 -0.0380991 0)
(0.120504 -0.0399872 0)
(0.118006 -0.0409756 0)
(0.111558 -0.0410506 0)
(0.100148 -0.0386573 0)
(0.0835174 -0.0360177 0)
(0.0634847 -0.0326572 0)
(0.0450538 -0.030718 0)
(0.028649 -0.0296692 0)
(0.0114788 -0.0291449 0)
(-0.004492 -0.0299506 0)
(-0.0178926 -0.0306838 0)
(-0.0297408 -0.030746 0)
(-0.0384558 -0.0302376 0)
(-0.0443403 -0.0280515 0)
(-0.0508699 -0.0244816 0)
(-0.0602614 -0.0208223 0)
(-0.0721624 -0.0180841 0)
(-0.0849317 -0.0154468 0)
(-0.0970831 -0.0133419 0)
(-0.108807 -0.0124953 0)
(-0.120436 -0.0128761 0)
(-0.131499 -0.0122508 0)
(-0.142658 -0.00958191 0)
(-0.154287 -0.00724799 0)
(-0.165747 -0.00578222 0)
(-0.176119 -0.00473485 0)
(-0.183818 -0.00423825 0)
(-0.187688 -0.00299623 0)
(-0.189313 -0.00136655 0)
(-0.191079 -0.00125064 0)
(-0.194364 -0.00103063 0)
(-0.198042 0.000917062 0)
(-0.199686 0.00325735 0)
(-0.198811 0.00535422 0)
(-0.195612 0.00680132 0)
(-0.190909 0.0082393 0)
(-0.185959 0.00929481 0)
(-0.181775 0.00994498 0)
(-0.176795 0.0109708 0)
(-0.169279 0.0136498 0)
(-0.160383 0.0171763 0)
(-0.150919 0.0204393 0)
(-0.140599 0.0232887 0)
(-0.128206 0.0252064 0)
(-0.113316 0.0268344 0)
(-0.0968275 0.0288304 0)
(-0.0800306 0.0305507 0)
(-0.0645275 0.0319809 0)
(-0.0513654 0.0324428 0)
(-0.0402054 0.0322089 0)
(-0.0288845 0.0310906 0)
(-0.0157354 0.0295624 0)
(0.00106911 0.0277771 0)
(0.0200609 0.0257685 0)
(0.0394948 0.0230776 0)
(0.0602231 0.0222237 0)
(0.0798489 0.0234813 0)
(0.0950952 0.0257317 0)
(0.104828 0.0274002 0)
(0.114442 0.0268794 0)
(0.129289 0.0246636 0)
(0.145944 0.0228145 0)
(0.161335 0.0215028 0)
(0.175577 0.0208205 0)
(0.188233 0.0208435 0)
(0.198226 0.0208434 0)
(0.204018 0.0202445 0)
(0.205839 0.0206933 0)
(0.204722 0.0218259 0)
(0.203318 0.022747 0)
(0.203348 0.0226698 0)
(0.202658 0.0224711 0)
(0.198867 0.0229308 0)
(0.192026 0.0236521 0)
(0.182709 0.0239387 0)
(0.17079 0.0241065 0)
(0.157004 0.0237254 0)
(0.142158 0.0226263 0)
(0.125866 0.0205223 0)
(0.105091 0.0186146 0)
(0.0776731 0.0150756 0)
(0.0461146 0.00967296 0)
(0.0150389 0.00277924 0)
(0.00673474 -0.00275415 0)
(0.021 -0.00777386 0)
(0.0352918 -0.0113045 0)
(0.0495404 -0.0152811 0)
(0.0644637 -0.0181859 0)
(0.0785662 -0.0202521 0)
(0.0920775 -0.0215814 0)
(0.104566 -0.0234047 0)
(0.114096 -0.0252057 0)
(0.1195 -0.0272325 0)
(0.121362 -0.0313305 0)
(0.121264 -0.0356523 0)
(0.120788 -0.0382516 0)
(0.121995 -0.0387909 0)
(0.124412 -0.0385528 0)
(0.125968 -0.0386718 0)
(0.126025 -0.0403021 0)
(0.125434 -0.0416016 0)
(0.123277 -0.0422644 0)
(0.11729 -0.0421956 0)
(0.105644 -0.0399939 0)
(0.0887026 -0.0381807 0)
(0.0686251 -0.0352893 0)
(0.0486369 -0.0333687 0)
(0.030629 -0.0328025 0)
(0.0123889 -0.0328246 0)
(-0.00465586 -0.0326876 0)
(-0.0188426 -0.0325508 0)
(-0.0311671 -0.032402 0)
(-0.0398351 -0.0316786 0)
(-0.0452358 -0.0292688 0)
(-0.0516684 -0.0253312 0)
(-0.0618461 -0.02139 0)
(-0.0750313 -0.0181033 0)
(-0.0891381 -0.016007 0)
(-0.102723 -0.0144582 0)
(-0.115715 -0.013913 0)
(-0.127635 -0.0138838 0)
(-0.138085 -0.0128559 0)
(-0.149324 -0.0103613 0)
(-0.16206 -0.00806816 0)
(-0.174626 -0.00716888 0)
(-0.185506 -0.00626239 0)
(-0.193047 -0.00445637 0)
(-0.197128 -0.00188527 0)
(-0.199885 -0.000565619 0)
(-0.20251 -0.00135836 0)
(-0.205171 -0.00206363 0)
(-0.207823 -0.0014621 0)
(-0.208948 0.000748448 0)
(-0.208368 0.00398065 0)
(-0.205574 0.00665198 0)
(-0.200875 0.00910277 0)
(-0.196208 0.0106701 0)
(-0.191466 0.0105382 0)
(-0.184992 0.0114751 0)
(-0.176349 0.014922 0)
(-0.167179 0.0186613 0)
(-0.157691 0.0216048 0)
(-0.146925 0.0243229 0)
(-0.134266 0.0267848 0)
(-0.118427 0.0289117 0)