/*--------------------------------*- C++ -*----------------------------------*\
| =========                 |                                                 |
| \\      /  F ield         | OpenFOAM: The Open Source CFD Toolbox           |
|  \\    /   O peration     | Version:  v2012                                 |
|   \\  /    A nd           | Website:  www.openfoam.com                      |
|    \\/     M anipulation  |                                                 |
\*---------------------------------------------------------------------------*/
FoamFile
{
    version     2.0;
    format      ascii;
    class       volScalarField;
    location    "0";
    object      pRec;
}
// * * * * * * * * * * * * * * * * * * * * * * * * * * * * * * * * * * * * * //

dimensions      [0 2 -2 0 0 0 0];


internalField   nonuniform List<scalar> 
4000
(
-6.82812e-13
-6.7847e-13
-6.79013e-13
-6.80777e-13
-6.80065e-13
-6.80085e-13
-6.7847e-13
-6.74564e-13
-6.66986e-13
-6.62031e-13
-6.61997e-13
-6.57462e-13
-6.50745e-13
-6.41129e-13
-6.29111e-13
-6.24402e-13
-6.21196e-13
-6.18456e-13
-6.11435e-13
-6.02064e-13
-5.92828e-13
-5.85837e-13
-5.80174e-13
-5.71035e-13
-5.60885e-13
-5.50658e-13
-5.45644e-13
-5.41085e-13
-5.34495e-13
-5.23677e-13
-5.1129e-13
-5.03012e-13
-4.98223e-13
-4.93029e-13
-4.86097e-13
-4.80017e-13
-4.69728e-13
-4.55568e-13
-4.40104e-13
-4.34333e-13
-4.31074e-13
-4.26547e-13
-4.23567e-13
-4.16879e-13
-4.08352e-13
-3.9935e-13
-3.8994e-13
-3.80857e-13
-3.7241e-13
-3.64624e-13
-3.56185e-13
-3.49073e-13
-3.42029e-13
-3.34156e-13
-3.26788e-13
-3.15748e-13
-3.08047e-13
-3.06031e-13
-3.02864e-13
-2.9908e-13
-2.90926e-13
-2.8385e-13
-2.75308e-13
-2.65506e-13
-2.58607e-13
-2.5145e-13
-2.46172e-13
-2.3819e-13
-2.29133e-13
-2.22676e-13
-2.15513e-13
-2.07214e-13
-1.94802e-13
-1.87816e-13
-1.85565e-13
-1.80927e-13
-1.7397e-13
-1.67137e-13
-1.57854e-13
-1.45138e-13
-1.3377e-13
-1.27386e-13
-1.19314e-13
-1.13587e-13
-1.07081e-13
-1.00403e-13
-9.24252e-14
-8.47648e-14
-8.06258e-14
-7.56162e-14
-6.96204e-14
-6.24625e-14
-5.61593e-14
-5.08799e-14
-4.18182e-14
-3.26569e-14
-2.52876e-14
-1.69848e-14
-9.16948e-15
-2.18724e-15
-6.80342e-13
-6.78963e-13
-6.80781e-13
-6.80951e-13
-6.81897e-13
-6.79439e-13
-6.76862e-13
-6.7493e-13
-6.69787e-13
-6.64463e-13
-6.59466e-13
-6.55838e-13
-6.49491e-13
-6.40481e-13
-6.31712e-13
-6.26681e-13
-6.2269e-13
-6.17316e-13
-6.10603e-13
-6.04672e-13
-5.94371e-13
-5.83901e-13
-5.77683e-13
-5.69362e-13
-5.59269e-13
-5.52901e-13
-5.47554e-13
-5.41617e-13
-5.33867e-13
-5.2145e-13
-5.12554e-13
-5.05212e-13
-4.981e-13
-4.90548e-13
-4.83865e-13
-4.77452e-13
-4.69063e-13
-4.57174e-13
-4.45013e-13
-4.36802e-13
-4.30984e-13
-4.26714e-13
-4.21636e-13
-4.16031e-13
-4.08835e-13
-3.99121e-13
-3.89179e-13
-3.80505e-13
-3.72002e-13
-3.62861e-13
-3.55598e-13
-3.48298e-13
-3.42445e-13
-3.35387e-13
-3.27774e-13
-3.17675e-13
-3.08045e-13
-3.04568e-13
-3.01597e-13
-2.97548e-13
-2.9254e-13
-2.83877e-13
-2.75461e-13
-2.66875e-13
-2.60323e-13
-2.51939e-13
-2.44379e-13
-2.37338e-13
-2.30845e-13
-2.23721e-13
-2.15375e-13
-2.07491e-13
-1.98323e-13
-1.90509e-13
-1.8534e-13
-1.77492e-13
-1.73175e-13
-1.65615e-13
-1.55411e-13
-1.44408e-13
-1.34819e-13
-1.28316e-13
-1.22313e-13
-1.15002e-13
-1.05913e-13
-9.89933e-14
-9.07952e-14
-8.33881e-14
-7.96454e-14
-7.43138e-14
-7.03067e-14
-6.45963e-14
-5.89869e-14
-4.91979e-14
-4.03725e-14
-3.29529e-14
-2.46979e-14
-1.71844e-14
-9.99756e-15
-3.64961e-15
-6.7952e-13
-6.7878e-13
-6.80573e-13
-6.82613e-13
-6.83543e-13
-6.8042e-13
-6.75843e-13
-6.73975e-13
-6.67864e-13
-6.64398e-13
-6.60579e-13
-6.55291e-13
-6.49025e-13
-6.41971e-13
-6.333e-13
-6.27483e-13
-6.21332e-13
-6.16205e-13
-6.11547e-13
-6.03061e-13
-5.93976e-13
-5.85787e-13
-5.78108e-13
-5.70263e-13
-5.60939e-13
-5.55028e-13
-5.48365e-13
-5.39996e-13
-5.3192e-13
-5.20692e-13
-5.12829e-13
-5.04918e-13
-4.97231e-13
-4.92251e-13
-4.85991e-13
-4.78612e-13
-4.67919e-13
-4.57621e-13
-4.4728e-13
-4.36985e-13
-4.30365e-13
-4.24247e-13
-4.22057e-13
-4.16776e-13
-4.08961e-13
-3.98643e-13
-3.8751e-13
-3.78942e-13
-3.73325e-13
-3.67363e-13
-3.56538e-13
-3.49096e-13
-3.40636e-13
-3.32815e-13
-3.25764e-13
-3.18422e-13
-3.08755e-13
-3.06223e-13
-3.04528e-13
-2.99131e-13
-2.90549e-13
-2.80528e-13
-2.7363e-13
-2.6792e-13
-2.62145e-13
-2.54293e-13
-2.46188e-13
-2.36976e-13
-2.2979e-13
-2.21043e-13
-2.13285e-13
-2.05557e-13
-1.96316e-13
-1.9029e-13
-1.84786e-13
-1.7849e-13
-1.72918e-13
-1.65455e-13
-1.55139e-13
-1.45493e-13
-1.38639e-13
-1.29863e-13
-1.18941e-13
-1.12327e-13
-1.06006e-13
-1.00791e-13
-9.40856e-14
-8.62281e-14
-7.96305e-14
-7.31614e-14
-6.84908e-14
-6.41595e-14
-5.75009e-14
-4.95782e-14
-4.0428e-14
-3.14368e-14
-2.56361e-14
-1.77936e-14
-1.23241e-14
-4.11607e-15
-6.8014e-13
-6.8095e-13
-6.80858e-13
-6.78299e-13
-6.82468e-13
-6.78254e-13
-6.75933e-13
-6.7411e-13
-6.71366e-13
-6.6595e-13
-6.59797e-13
-6.52063e-13
-6.45998e-13
-6.41497e-13
-6.39468e-13
-6.31663e-13
-6.20268e-13
-6.14233e-13
-6.10386e-13
-6.0256e-13
-5.93992e-13
-5.86681e-13
-5.78207e-13
-5.66263e-13
-5.58186e-13
-5.53734e-13
-5.48293e-13
-5.42273e-13
-5.32619e-13
-5.23528e-13
-5.15457e-13
-5.06071e-13
-4.9789e-13
-4.90819e-13
-4.82234e-13
-4.78351e-13
-4.69074e-13
-4.57023e-13
-4.48239e-13
-4.38463e-13
-4.32491e-13
-4.27497e-13
-4.21707e-13
-4.14781e-13
-4.05492e-13
-3.96482e-13
-3.87807e-13
-3.81362e-13
-3.72984e-13
-3.62959e-13
-3.54272e-13
-3.48177e-13
-3.41812e-13
-3.36077e-13
-3.25504e-13
-3.1921e-13
-3.10749e-13
-3.05096e-13
-3.03616e-13
-2.97485e-13
-2.89681e-13
-2.82388e-13
-2.76553e-13
-2.69897e-13
-2.6218e-13
-2.53255e-13
-2.4569e-13
-2.37128e-13
-2.30078e-13
-2.22875e-13
-2.15984e-13
-2.07828e-13
-1.98618e-13
-1.91247e-13
-1.84522e-13
-1.77404e-13
-1.7228e-13
-1.65326e-13
-1.55046e-13
-1.459e-13
-1.38224e-13
-1.30198e-13
-1.20604e-13
-1.11825e-13
-1.05584e-13
-9.95223e-14
-9.2804e-14
-8.5303e-14
-7.78942e-14
-7.34929e-14
-7.0186e-14
-6.52602e-14
-5.8547e-14
-4.83223e-14
-3.97438e-14
-3.35082e-14
-2.6978e-14
-1.77847e-14
-1.07194e-14
-3.98639e-15
-6.80266e-13
-6.83565e-13
-6.80762e-13
-6.78087e-13
-6.76117e-13
-6.78389e-13
-6.77976e-13
-6.75786e-13
-6.70432e-13
-6.64369e-13
-6.575e-13
-6.53503e-13
-6.45503e-13
-6.40948e-13
-6.38789e-13
-6.33203e-13
-6.25395e-13
-6.17074e-13
-6.08075e-13
-5.99392e-13
-5.9416e-13
-5.86209e-13
-5.74341e-13
-5.66036e-13
-5.6127e-13
-5.54882e-13
-5.49062e-13
-5.41157e-13
-5.34668e-13
-5.25627e-13
-5.1597e-13
-5.06614e-13
-4.97434e-13
-4.90963e-13
-4.83995e-13
-4.78276e-13
-4.67703e-13
-4.57081e-13
-4.47262e-13
-4.39298e-13
-4.32752e-13
-4.28777e-13
-4.21738e-13
-4.13563e-13
-4.04371e-13
-3.9375e-13
-3.86802e-13
-3.80503e-13
-3.72526e-13
-3.66018e-13
-3.57014e-13
-3.49393e-13
-3.41722e-13
-3.3613e-13
-3.25367e-13
-3.1828e-13
-3.11873e-13
-3.0603e-13
-3.02888e-13
-2.96942e-13
-2.90385e-13
-2.82752e-13
-2.75175e-13
-2.69596e-13
-2.63484e-13
-2.56614e-13
-2.48849e-13
-2.37892e-13
-2.29954e-13
-2.20642e-13
-2.133e-13
-2.06247e-13
-1.99068e-13
-1.91266e-13
-1.82025e-13
-1.75118e-13
-1.71723e-13
-1.64847e-13
-1.57124e-13
-1.47437e-13
-1.39535e-13
-1.31826e-13
-1.19937e-13
-1.10736e-13
-1.03214e-13
-9.72811e-14
-9.33715e-14
-8.73929e-14
-7.96121e-14
-7.45436e-14
-6.9307e-14
-6.49021e-14
-5.71021e-14
-5.06259e-14
-4.25502e-14
-3.35512e-14
-2.64331e-14
-1.94513e-14
-1.02515e-14
-1.79658e-15
-6.77704e-13
-6.84587e-13
-6.8168e-13
-6.75489e-13
-6.79471e-13
-6.81272e-13
-6.78943e-13
-6.7527e-13
-6.68517e-13
-6.58937e-13
-6.55868e-13
-6.53297e-13
-6.49597e-13
-6.41674e-13
-6.36424e-13
-6.34302e-13
-6.25893e-13
-6.18917e-13
-6.12322e-13
-6.02378e-13
-5.9198e-13
-5.81916e-13
-5.67545e-13
-5.63431e-13
-5.618e-13
-5.57801e-13
-5.4957e-13
-5.41469e-13
-5.34229e-13
-5.27321e-13
-5.16505e-13
-5.07122e-13
-4.9885e-13
-4.92765e-13
-4.87282e-13
-4.77096e-13
-4.66562e-13
-4.57483e-13
-4.4683e-13
-4.40883e-13
-4.34496e-13
-4.29138e-13
-4.20501e-13
-4.13574e-13
-4.04489e-13
-3.93206e-13
-3.85096e-13
-3.78136e-13
-3.72819e-13
-3.65821e-13
-3.57815e-13
-3.49068e-13
-3.41186e-13
-3.34233e-13
-3.24706e-13
-3.19363e-13
-3.13583e-13
-3.06624e-13
-3.02055e-13
-2.97182e-13
-2.9251e-13
-2.83982e-13
-2.75589e-13
-2.69131e-13
-2.61128e-13
-2.55218e-13
-2.49182e-13
-2.38994e-13
-2.30993e-13
-2.22835e-13
-2.14111e-13
-2.0621e-13
-2.00271e-13
-1.92163e-13
-1.83437e-13
-1.7708e-13
-1.71194e-13
-1.62381e-13
-1.56615e-13
-1.48782e-13
-1.41441e-13
-1.3126e-13
-1.18325e-13
-1.09555e-13
-1.04358e-13
-9.88904e-14
-9.40214e-14
-8.59419e-14
-7.86756e-14
-7.38501e-14
-6.92164e-14
-6.52161e-14
-5.57757e-14
-4.92595e-14
-4.16638e-14
-3.53292e-14
-2.69968e-14
-1.90901e-14
-9.04792e-15
-1.28082e-15
-6.81207e-13
-6.81401e-13
-6.81368e-13
-6.78768e-13
-6.76859e-13
-6.79522e-13
-6.77823e-13
-6.73469e-13
-6.66901e-13
-6.59673e-13
-6.53138e-13
-6.52628e-13
-6.50997e-13
-6.42577e-13
-6.37376e-13
-6.33153e-13
-6.3036e-13
-6.23262e-13
-6.10102e-13
-5.96617e-13
-5.83372e-13
-5.77819e-13
-5.75362e-13
-5.71829e-13
-5.64471e-13
-5.57064e-13
-5.48594e-13
-5.40725e-13
-5.34799e-13
-5.29103e-13
-5.18588e-13
-5.0597e-13
-4.98951e-13
-4.90207e-13
-4.83515e-13
-4.75369e-13
-4.68009e-13
-4.60967e-13
-4.50404e-13
-4.39978e-13
-4.31886e-13
-4.25471e-13
-4.19632e-13
-4.14217e-13
-4.06388e-13
-3.96466e-13
-3.86058e-13
-3.77273e-13
-3.70355e-13
-3.6616e-13
-3.58903e-13
-3.52206e-13
-3.43407e-13
-3.34354e-13
-3.26318e-13
-3.20045e-13
-3.129e-13
-3.0322e-13
-2.99495e-13
-2.97121e-13
-2.96248e-13
-2.88019e-13
-2.77529e-13
-2.67568e-13
-2.59003e-13
-2.52092e-13
-2.44774e-13
-2.36102e-13
-2.28074e-13
-2.22648e-13
-2.19723e-13
-2.10519e-13
-2.01063e-13
-1.94436e-13
-1.856e-13
-1.75997e-13
-1.67793e-13
-1.59206e-13
-1.53665e-13
-1.48108e-13
-1.4108e-13
-1.30976e-13
-1.2182e-13
-1.13445e-13
-1.06332e-13
-9.7271e-14
-9.21829e-14
-8.64483e-14
-7.96763e-14
-7.51212e-14
-6.87494e-14
-6.13659e-14
-5.5491e-14
-4.82484e-14
-4.07711e-14
-3.37923e-14
-2.69809e-14
-1.7765e-14
-9.53815e-15
-2.86148e-15
-6.79636e-13
-6.78766e-13
-6.77818e-13
-6.80226e-13
-6.81527e-13
-6.80815e-13
-6.76835e-13
-6.71694e-13
-6.64921e-13
-6.60181e-13
-6.56292e-13
-6.51954e-13
-6.48176e-13
-6.40918e-13
-6.3744e-13
-6.33865e-13
-6.30257e-13
-6.23421e-13
-6.07269e-13
-5.98662e-13
-5.93029e-13
-5.85438e-13
-5.74776e-13
-5.65953e-13
-5.6244e-13
-5.54914e-13
-5.46336e-13
-5.40477e-13
-5.33683e-13
-5.26642e-13
-5.19426e-13
-5.09795e-13
-5.03073e-13
-4.95018e-13
-4.84599e-13
-4.75179e-13
-4.66419e-13
-4.57561e-13
-4.49889e-13
-4.40258e-13
-4.32377e-13
-4.26979e-13
-4.20026e-13
-4.16411e-13
-4.10174e-13
-3.97075e-13
-3.83013e-13
-3.71874e-13
-3.69996e-13
-3.66927e-13
-3.61961e-13
-3.55151e-13
-3.43814e-13
-3.34595e-13
-3.24413e-13
-3.18317e-13
-3.1336e-13
-3.07645e-13
-3.00895e-13
-2.9599e-13
-2.93701e-13
-2.86284e-13
-2.78479e-13
-2.70198e-13
-2.62515e-13
-2.54028e-13
-2.46085e-13
-2.37537e-13
-2.31245e-13
-2.24189e-13
-2.16996e-13
-2.10805e-13
-1.99718e-13
-1.88428e-13
-1.81861e-13
-1.75923e-13
-1.70438e-13
-1.6241e-13
-1.56588e-13
-1.50415e-13
-1.41843e-13
-1.31069e-13
-1.19464e-13
-1.09505e-13
-1.01839e-13
-9.71443e-14
-9.31303e-14
-8.76443e-14
-8.06966e-14
-7.40465e-14
-6.69126e-14
-6.06192e-14
-5.54558e-14
-4.94786e-14
-3.98799e-14
-3.25367e-14
-2.60946e-14
-1.89775e-14
-1.0727e-14
-1.85193e-15
-6.81131e-13
-6.81828e-13
-6.7874e-13
-6.75581e-13
-6.77118e-13
-6.78576e-13
-6.77712e-13
-6.714e-13
-6.62871e-13
-6.6128e-13
-6.57022e-13
-6.49682e-13
-6.44145e-13
-6.41705e-13
-6.39715e-13
-6.35786e-13
-6.30099e-13
-6.21831e-13
-6.11177e-13
-5.99846e-13
-5.91106e-13
-5.82899e-13
-5.77312e-13
-5.71347e-13
-5.63785e-13
-5.54141e-13
-5.45083e-13
-5.40127e-13
-5.36147e-13
-5.26983e-13
-5.20409e-13
-5.11343e-13
-5.01046e-13
-4.90547e-13
-4.84223e-13
-4.76081e-13
-4.66159e-13
-4.57646e-13
-4.50042e-13
-4.4305e-13
-4.37594e-13
-4.29532e-13
-4.17352e-13
-4.10477e-13
-4.04564e-13
-3.97307e-13
-3.86381e-13
-3.78449e-13
-3.72351e-13
-3.65637e-13
-3.5949e-13
-3.52423e-13
-3.43467e-13
-3.35479e-13
-3.27457e-13
-3.21843e-13
-3.152e-13
-3.08381e-13
-3.0168e-13
-2.97418e-13
-2.91674e-13
-2.84119e-13
-2.77386e-13
-2.6998e-13
-2.60677e-13
-2.51501e-13
-2.45642e-13
-2.3862e-13
-2.31144e-13
-2.23644e-13
-2.15688e-13
-2.11108e-13
-2.02886e-13
-1.9339e-13
-1.82826e-13
-1.76205e-13
-1.71483e-13
-1.63476e-13
-1.57084e-13
-1.48874e-13
-1.41651e-13
-1.31663e-13
-1.20155e-13
-1.1089e-13
-1.03752e-13
-9.7211e-14
-9.33032e-14
-8.72136e-14
-8.0607e-14
-7.38165e-14
-6.6203e-14
-6.0193e-14
-5.29728e-14
-4.69922e-14
-3.93475e-14
-3.20729e-14
-2.52555e-14
-1.65854e-14
-8.32515e-15
-1.04508e-16
-6.80459e-13
-6.80316e-13
-6.80943e-13
-6.77676e-13
-6.75568e-13
-6.76328e-13
-6.76218e-13
-6.73209e-13
-6.67628e-13
-6.58739e-13
-6.52442e-13
-6.47279e-13
-6.44598e-13
-6.43525e-13
-6.40545e-13
-6.34892e-13
-6.27474e-13
-6.23421e-13
-6.16906e-13
-6.03215e-13
-5.9109e-13
-5.80174e-13
-5.74484e-13
-5.68391e-13
-5.64039e-13
-5.57923e-13
-5.49181e-13
-5.42226e-13
-5.35483e-13
-5.27775e-13
-5.20022e-13
-5.11199e-13
-5.01577e-13
-4.90317e-13
-4.82146e-13
-4.7484e-13
-4.68438e-13
-4.58039e-13
-4.51845e-13
-4.4403e-13
-4.34631e-13
-4.2509e-13
-4.16301e-13
-4.10677e-13
-4.06656e-13
-4.01253e-13
-3.8979e-13
-3.79828e-13
-3.7255e-13
-3.64291e-13
-3.57835e-13
-3.52174e-13
-3.44609e-13
-3.36649e-13
-3.27928e-13
-3.21187e-13
-3.15309e-13
-3.08179e-13
-3.0163e-13
-2.98576e-13
-2.94415e-13
-2.88745e-13
-2.82224e-13
-2.71117e-13
-2.58923e-13
-2.46717e-13
-2.39272e-13
-2.34739e-13
-2.30228e-13
-2.27893e-13
-2.21868e-13
-2.12344e-13
-2.04472e-13
-1.9461e-13
-1.8307e-13
-1.74768e-13
-1.69666e-13
-1.62376e-13
-1.57158e-13
-1.4829e-13
-1.40711e-13
-1.32006e-13
-1.21665e-13
-1.13413e-13
-1.03874e-13
-9.58332e-14
-9.1484e-14
-8.54407e-14
-7.98982e-14
-7.27991e-14
-6.50378e-14
-5.65437e-14
-5.00367e-14
-4.5252e-14
-3.6631e-14
-2.89165e-14
-2.19961e-14
-1.53495e-14
-6.77389e-15
-3.19738e-16
-6.79022e-13
-6.78429e-13
-6.77629e-13
-6.78851e-13
-6.78948e-13
-6.7479e-13
-6.73049e-13
-6.70274e-13
-6.65988e-13
-6.62363e-13
-6.53711e-13
-6.46516e-13
-6.45296e-13
-6.45923e-13
-6.41323e-13
-6.36599e-13
-6.27081e-13
-6.21084e-13
-6.15131e-13
-6.04227e-13
-5.94292e-13
-5.81047e-13
-5.7227e-13
-5.67615e-13
-5.62782e-13
-5.56798e-13
-5.50732e-13
-5.4362e-13
-5.36888e-13
-5.28357e-13
-5.19547e-13
-5.10327e-13
-5.00756e-13
-4.91506e-13
-4.85195e-13
-4.76865e-13
-4.67885e-13
-4.58009e-13
-4.51643e-13
-4.42463e-13
-4.35228e-13
-4.25419e-13
-4.17515e-13
-4.13034e-13
-4.08011e-13
-4.00013e-13
-3.87982e-13
-3.77044e-13
-3.70675e-13
-3.63632e-13
-3.59936e-13
-3.54136e-13
-3.43898e-13
-3.36426e-13
-3.27994e-13
-3.24056e-13
-3.17481e-13
-3.10314e-13
-3.01988e-13
-2.94312e-13
-2.90709e-13
-2.83062e-13
-2.78582e-13
-2.73055e-13
-2.61131e-13
-2.48983e-13
-2.40718e-13
-2.34209e-13
-2.30377e-13
-2.29868e-13
-2.22296e-13
-2.14223e-13
-2.04801e-13
-1.94485e-13
-1.81964e-13
-1.7192e-13
-1.69404e-13
-1.64426e-13
-1.5955e-13
-1.50652e-13
-1.43072e-13
-1.34488e-13
-1.21311e-13
-1.11135e-13
-1.00689e-13
-9.1346e-14
-9.12882e-14
-8.74576e-14
-7.96448e-14
-7.21746e-14
-6.3097e-14
-5.55162e-14
-4.93281e-14
-4.31699e-14
-3.77075e-14
-3.07995e-14
-1.96212e-14
-9.26752e-15
-1.02713e-15
-9.17744e-16
-6.8049e-13
-6.79045e-13
-6.7764e-13
-6.78302e-13
-6.77608e-13
-6.73587e-13
-6.73907e-13
-6.70993e-13
-6.65528e-13
-6.60521e-13
-6.54535e-13
-6.48677e-13
-6.42252e-13
-6.40225e-13
-6.3869e-13
-6.33617e-13
-6.2946e-13
-6.24835e-13
-6.16925e-13
-6.04754e-13
-5.93433e-13
-5.86233e-13
-5.77277e-13
-5.68543e-13
-5.62874e-13
-5.53124e-13
-5.48399e-13
-5.43845e-13
-5.37963e-13
-5.29913e-13
-5.20686e-13
-5.10542e-13
-4.99762e-13
-4.89517e-13
-4.8355e-13
-4.75646e-13
-4.6906e-13
-4.604e-13
-4.53574e-13
-4.4227e-13
-4.33937e-13
-4.2319e-13
-4.17442e-13
-4.14567e-13
-4.07205e-13
-3.99723e-13
-3.8899e-13
-3.79136e-13
-3.71522e-13
-3.63056e-13
-3.57601e-13
-3.52943e-13
-3.44666e-13
-3.38708e-13
-3.31424e-13
-3.23182e-13
-3.1683e-13
-3.09578e-13
-3.015e-13
-2.95691e-13
-2.92452e-13
-2.90645e-13
-2.8174e-13
-2.71169e-13
-2.56276e-13
-2.47718e-13
-2.41249e-13
-2.36192e-13
-2.29962e-13
-2.25978e-13
-2.19826e-13
-2.16536e-13
-2.09656e-13
-1.97869e-13
-1.81888e-13
-1.68256e-13
-1.64228e-13
-1.64378e-13
-1.60335e-13
-1.50784e-13
-1.42102e-13
-1.32817e-13
-1.22313e-13
-1.13269e-13
-1.03106e-13
-9.34772e-14
-8.69631e-14
-8.47626e-14
-7.84178e-14
-7.05887e-14
-6.11758e-14
-5.47977e-14
-4.88358e-14
-4.1798e-14
-3.46431e-14
-2.87335e-14
-1.8301e-14
-9.30352e-15
-2.64384e-15
-6.16847e-16
-6.7879e-13
-6.77913e-13
-6.72354e-13
-6.78931e-13
-6.78669e-13
-6.7659e-13
-6.71111e-13
-6.66451e-13
-6.62878e-13
-6.57268e-13
-6.53916e-13
-6.50225e-13
-6.48377e-13
-6.43361e-13
-6.39801e-13
-6.36255e-13
-6.31136e-13
-6.25086e-13
-6.17289e-13
-6.04811e-13
-5.89822e-13
-5.78589e-13
-5.71935e-13
-5.68286e-13
-5.62076e-13
-5.56503e-13
-5.49383e-13
-5.43736e-13
-5.38565e-13
-5.32042e-13
-5.22724e-13
-5.106e-13
-5.01214e-13
-4.92876e-13
-4.86807e-13
-4.77094e-13
-4.66992e-13
-4.60381e-13
-4.52595e-13
-4.42054e-13
-4.32126e-13
-4.26561e-13
-4.20304e-13
-4.13551e-13
-4.04271e-13
-3.94587e-13
-3.86846e-13
-3.79152e-13
-3.72518e-13
-3.6604e-13
-3.59291e-13
-3.53492e-13
-3.43468e-13
-3.3528e-13
-3.33662e-13
-3.31747e-13
-3.19106e-13
-3.06216e-13
-2.97423e-13
-2.91318e-13
-2.8837e-13
-2.84716e-13
-2.82263e-13
-2.73824e-13
-2.59949e-13
-2.519e-13
-2.39996e-13
-2.36866e-13
-2.30491e-13
-2.24789e-13
-2.19193e-13
-2.1668e-13
-2.09705e-13
-1.96893e-13
-1.83353e-13
-1.71102e-13
-1.65816e-13
-1.65848e-13
-1.57157e-13
-1.47534e-13
-1.40904e-13
-1.33131e-13
-1.24421e-13
-1.14009e-13
-1.03848e-13
-9.33163e-14
-8.61877e-14
-8.39662e-14
-7.63491e-14
-6.83707e-14
-6.08857e-14
-5.39761e-14
-4.65142e-14
-4.0596e-14
-3.52137e-14
-2.77095e-14
-1.79498e-14
-1.00085e-14
-1.6562e-15
2.15027e-16
-6.75784e-13
-6.82739e-13
-6.78209e-13
-6.75e-13
-6.75607e-13
-6.74982e-13
-6.70756e-13
-6.70139e-13
-6.6328e-13
-6.53974e-13
-6.50054e-13
-6.49676e-13
-6.47448e-13
-6.45358e-13
-6.4179e-13
-6.34381e-13
-6.25405e-13
-6.19679e-13
-6.15123e-13
-6.06236e-13
-5.99081e-13
-5.91676e-13
-5.82677e-13
-5.68451e-13
-5.56393e-13
-5.49427e-13
-5.49041e-13
-5.44514e-13
-5.38316e-13
-5.32849e-13
-5.23389e-13
-5.12289e-13
-4.99237e-13
-4.88008e-13
-4.80591e-13
-4.74787e-13
-4.72031e-13
-4.64729e-13
-4.52619e-13
-4.44518e-13
-4.33859e-13
-4.24623e-13
-4.19346e-13
-4.1207e-13
-4.02916e-13
-3.94088e-13
-3.84847e-13
-3.79751e-13
-3.74351e-13
-3.676e-13
-3.60098e-13
-3.51768e-13
-3.45199e-13
-3.38096e-13
-3.32624e-13
-3.26896e-13
-3.21333e-13
-3.12599e-13
-3.04899e-13
-2.95432e-13
-2.87482e-13
-2.81088e-13
-2.7577e-13
-2.70574e-13
-2.61722e-13
-2.53722e-13
-2.44578e-13
-2.37602e-13
-2.31155e-13
-2.25504e-13
-2.21132e-13
-2.13382e-13
-2.05664e-13
-1.96854e-13
-1.85211e-13
-1.74985e-13
-1.65643e-13
-1.61627e-13
-1.56194e-13
-1.48397e-13
-1.4207e-13
-1.3168e-13
-1.2259e-13
-1.12554e-13
-1.02614e-13
-9.3752e-14
-8.82041e-14
-8.23001e-14
-7.64271e-14
-6.80281e-14
-6.0934e-14
-5.55225e-14
-4.83661e-14
-4.01375e-14
-3.20336e-14
-2.37402e-14
-1.6838e-14
-1.1149e-14
-3.75703e-15
-2.30617e-16
-6.74676e-13
-6.78197e-13
-6.7886e-13
-6.75376e-13
-6.75342e-13
-6.76381e-13
-6.68681e-13
-6.61269e-13
-6.57829e-13
-6.56609e-13
-6.55126e-13
-6.52896e-13
-6.5001e-13
-6.45881e-13
-6.41483e-13
-6.35123e-13
-6.29501e-13
-6.26112e-13
-6.18674e-13
-6.05232e-13
-5.90819e-13
-5.78556e-13
-5.72872e-13
-5.65409e-13
-5.62167e-13
-5.5802e-13
-5.51923e-13
-5.43181e-13
-5.36772e-13
-5.32974e-13
-5.25559e-13
-5.15117e-13
-5.02661e-13
-4.88236e-13
-4.78285e-13
-4.74485e-13
-4.72385e-13
-4.6539e-13
-4.56799e-13
-4.45459e-13
-4.32931e-13
-4.22773e-13
-4.13968e-13
-4.09379e-13
-4.03193e-13
-3.95713e-13
-3.8821e-13
-3.80113e-13
-3.74061e-13
-3.72772e-13
-3.6578e-13
-3.51585e-13
-3.4212e-13
-3.34731e-13
-3.29349e-13
-3.25955e-13
-3.21616e-13
-3.12514e-13
-3.01278e-13
-2.93801e-13
-2.89516e-13
-2.84645e-13
-2.78485e-13
-2.70791e-13
-2.58687e-13
-2.49842e-13
-2.4317e-13
-2.39554e-13
-2.33246e-13
-2.25489e-13
-2.19292e-13
-2.13348e-13
-2.05728e-13
-1.95375e-13
-1.85506e-13
-1.72582e-13
-1.63891e-13
-1.6093e-13
-1.58458e-13
-1.52464e-13
-1.44326e-13
-1.33645e-13
-1.21763e-13
-1.10423e-13
-1.01823e-13
-9.36775e-14
-8.77458e-14
-8.08888e-14
-7.40327e-14
-6.69349e-14
-6.0686e-14
-5.46977e-14
-4.84106e-14
-3.99145e-14
-3.10857e-14
-2.21434e-14
-1.44297e-14
-8.50758e-15
-2.95747e-15
-3.97411e-16
-6.7341e-13
-6.78999e-13
-6.79178e-13
-6.76557e-13
-6.74117e-13
-6.77384e-13
-6.75103e-13
-6.65646e-13
-6.52744e-13
-6.50772e-13
-6.50424e-13
-6.51515e-13
-6.50324e-13
-6.49071e-13
-6.43644e-13
-6.35752e-13
-6.27823e-13
-6.22209e-13
-6.12012e-13
-6.04088e-13
-5.97655e-13
-5.85994e-13
-5.752e-13
-5.64003e-13
-5.61988e-13
-5.58497e-13
-5.53735e-13
-5.46501e-13
-5.38292e-13
-5.31823e-13
-5.23133e-13
-5.11991e-13
-5.01853e-13
-4.88278e-13
-4.76914e-13
-4.7355e-13
-4.71724e-13
-4.65912e-13
-4.56666e-13
-4.46355e-13
-4.3118e-13
-4.20785e-13
-4.16585e-13
-4.11521e-13
-4.03918e-13
-3.95169e-13
-3.9004e-13
-3.83807e-13
-3.75109e-13
-3.65237e-13
-3.58963e-13
-3.53138e-13
-3.45354e-13
-3.34193e-13
-3.32853e-13
-3.2882e-13
-3.20229e-13
-3.13988e-13
-3.07195e-13
-2.96181e-13
-2.88505e-13
-2.82949e-13
-2.74961e-13
-2.68206e-13
-2.58784e-13
-2.51334e-13
-2.42345e-13
-2.37705e-13
-2.30482e-13
-2.27369e-13
-2.21012e-13
-2.15332e-13
-2.08263e-13
-1.95671e-13
-1.82996e-13
-1.72062e-13
-1.66018e-13
-1.60186e-13
-1.5577e-13
-1.49972e-13
-1.43454e-13
-1.3437e-13
-1.22271e-13
-1.10498e-13
-1.03426e-13
-9.46311e-14
-8.75341e-14
-8.13984e-14
-7.48873e-14
-6.56106e-14
-5.86281e-14
-5.24235e-14
-4.50963e-14
-3.70678e-14
-3.03657e-14
-2.54835e-14
-1.37512e-14
-5.66439e-15
-4.05806e-16
-4.1154e-17
-6.77669e-13
-6.77249e-13
-6.74034e-13
-6.70808e-13
-6.72831e-13
-6.69131e-13
-6.66532e-13
-6.67084e-13
-6.65048e-13
-6.59531e-13
-6.568e-13
-6.50759e-13
-6.46132e-13
-6.45127e-13
-6.42071e-13
-6.37241e-13
-6.30145e-13
-6.26318e-13
-6.17549e-13
-6.03968e-13
-5.88596e-13
-5.78847e-13
-5.72579e-13
-5.69671e-13
-5.62716e-13
-5.58413e-13
-5.53772e-13
-5.45979e-13
-5.38816e-13
-5.31253e-13
-5.2359e-13
-5.11744e-13
-5.0042e-13
-4.88411e-13
-4.79551e-13
-4.7572e-13
-4.74039e-13
-4.65899e-13
-4.55003e-13
-4.45602e-13
-4.32103e-13
-4.19919e-13
-4.15467e-13
-4.10793e-13
-4.06164e-13
-3.95866e-13
-3.86753e-13
-3.83039e-13
-3.77566e-13
-3.67771e-13
-3.58748e-13
-3.53487e-13
-3.47127e-13
-3.36722e-13
-3.29667e-13
-3.25626e-13
-3.18521e-13
-3.13203e-13
-3.08033e-13
-3.00095e-13
-2.90005e-13
-2.83461e-13
-2.75111e-13
-2.68249e-13
-2.61369e-13
-2.52329e-13
-2.4243e-13
-2.33346e-13
-2.28362e-13
-2.28182e-13
-2.20092e-13
-2.14106e-13
-2.07241e-13
-1.9616e-13
-1.85451e-13
-1.74664e-13
-1.63835e-13
-1.56981e-13
-1.55341e-13
-1.52851e-13
-1.45861e-13
-1.32563e-13
-1.21206e-13
-1.08438e-13
-1.02736e-13
-9.63592e-14
-8.95147e-14
-8.00165e-14
-7.1481e-14
-6.48187e-14
-5.82715e-14
-5.10842e-14
-4.58168e-14
-3.78492e-14
-3.01267e-14
-2.21975e-14
-1.40599e-14
-6.74745e-15
-2.26722e-16
1.3135e-15
-6.76855e-13
-6.76326e-13
-6.73724e-13
-6.71777e-13
-6.76957e-13
-6.74822e-13
-6.667e-13
-6.61669e-13
-6.5879e-13
-6.5716e-13
-6.56327e-13
-6.55946e-13
-6.47391e-13
-6.41064e-13
-6.39028e-13
-6.34862e-13
-6.31896e-13
-6.25467e-13
-6.16245e-13
-6.02582e-13
-5.91107e-13
-5.80209e-13
-5.71688e-13
-5.69923e-13
-5.67632e-13
-5.58509e-13
-5.51595e-13
-5.46044e-13
-5.42081e-13
-5.33251e-13
-5.25035e-13
-5.12369e-13
-4.9976e-13
-4.87864e-13
-4.77153e-13
-4.74306e-13
-4.70057e-13
-4.6588e-13
-4.584e-13
-4.47782e-13
-4.34205e-13
-4.23892e-13
-4.16025e-13
-4.06469e-13
-4.03975e-13
-3.96774e-13
-3.89656e-13
-3.80264e-13
-3.73751e-13
-3.68529e-13
-3.59651e-13
-3.53272e-13
-3.46746e-13
-3.37963e-13
-3.34213e-13
-3.28856e-13
-3.17832e-13
-3.0899e-13
-3.05823e-13
-2.99079e-13
-2.91376e-13
-2.82878e-13
-2.76967e-13
-2.70653e-13
-2.61868e-13
-2.50652e-13
-2.43589e-13
-2.33953e-13
-2.2566e-13
-2.23937e-13
-2.20148e-13
-2.14664e-13
-2.08483e-13
-1.96592e-13
-1.85092e-13
-1.74547e-13
-1.65248e-13
-1.58118e-13
-1.56655e-13
-1.52017e-13
-1.44002e-13
-1.33111e-13
-1.22015e-13
-1.09656e-13
-1.01472e-13
-9.21812e-14
-8.58701e-14
-8.15342e-14
-7.48622e-14
-6.48289e-14
-5.7304e-14
-4.97148e-14
-4.33573e-14
-3.63219e-14
-2.87634e-14
-2.27283e-14
-1.51992e-14
-5.78542e-15
2.14805e-16
-4.18696e-16
-6.72913e-13
-6.75009e-13
-6.7501e-13
-6.73646e-13
-6.72819e-13
-6.68426e-13
-6.65739e-13
-6.6351e-13
-6.62478e-13
-6.60646e-13
-6.5725e-13
-6.54573e-13
-6.49682e-13
-6.42933e-13
-6.38117e-13
-6.32711e-13
-6.30202e-13
-6.23887e-13
-6.14048e-13
-6.04327e-13
-5.91868e-13
-5.80885e-13
-5.75312e-13
-5.70134e-13
-5.62345e-13
-5.57169e-13
-5.54188e-13
-5.49018e-13
-5.41394e-13
-5.30972e-13
-5.21887e-13
-5.11507e-13
-4.99549e-13
-4.8908e-13
-4.79855e-13
-4.778e-13
-4.74921e-13
-4.66296e-13
-4.55024e-13
-4.42107e-13
-4.32475e-13
-4.26429e-13
-4.17502e-13
-4.07552e-13
-4.02063e-13
-3.93957e-13
-3.90907e-13
-3.8822e-13
-3.78521e-13
-3.6592e-13
-3.5751e-13
-3.54279e-13
-3.47935e-13
-3.37474e-13
-3.32456e-13
-3.2739e-13
-3.20692e-13
-3.11711e-13
-3.04776e-13
-2.973e-13
-2.93772e-13
-2.85836e-13
-2.77315e-13
-2.69744e-13
-2.59213e-13
-2.50335e-13
-2.42253e-13
-2.35303e-13
-2.27162e-13
-2.22089e-13
-2.17158e-13
-2.15521e-13
-2.09714e-13
-1.96961e-13
-1.85199e-13
-1.7453e-13
-1.66944e-13
-1.60557e-13
-1.53241e-13
-1.4495e-13
-1.44634e-13
-1.37892e-13
-1.22704e-13
-1.10159e-13
-1.00345e-13
-9.03764e-14
-8.4083e-14
-8.03635e-14
-7.4203e-14
-6.47491e-14
-5.63914e-14
-5.06891e-14
-4.33543e-14
-3.53526e-14
-3.02996e-14
-2.13081e-14
-1.27568e-14
-4.76338e-15
9.1528e-16
-9.82613e-16
-6.7737e-13
-6.75632e-13
-6.73914e-13
-6.7182e-13
-6.68259e-13
-6.66747e-13
-6.64579e-13
-6.64575e-13
-6.63438e-13
-6.61236e-13
-6.56118e-13
-6.53566e-13
-6.49609e-13
-6.44726e-13
-6.39141e-13
-6.31857e-13
-6.24247e-13
-6.18781e-13
-6.14114e-13
-6.07534e-13
-5.94159e-13
-5.83873e-13
-5.76209e-13
-5.68695e-13
-5.63323e-13
-5.58666e-13
-5.5441e-13
-5.50034e-13
-5.39967e-13
-5.32445e-13
-5.22883e-13
-5.10732e-13
-4.98987e-13
-4.87299e-13
-4.81833e-13
-4.7765e-13
-4.72733e-13
-4.65193e-13
-4.54555e-13
-4.43868e-13
-4.33071e-13
-4.23829e-13
-4.17979e-13
-4.11025e-13
-4.04995e-13
-3.97761e-13
-3.88842e-13
-3.8166e-13
-3.77201e-13
-3.69247e-13
-3.6262e-13
-3.54413e-13
-3.46236e-13
-3.38309e-13
-3.32029e-13
-3.24133e-13
-3.2028e-13
-3.13583e-13
-3.05605e-13
-2.98209e-13
-2.94311e-13
-2.87642e-13
-2.77842e-13
-2.68445e-13
-2.60087e-13
-2.51402e-13
-2.42016e-13
-2.34136e-13
-2.27439e-13
-2.22311e-13
-2.1866e-13
-2.16446e-13
-2.08904e-13
-1.95379e-13
-1.84681e-13
-1.74562e-13
-1.66289e-13
-1.59141e-13
-1.54823e-13
-1.49052e-13
-1.41615e-13
-1.33706e-13
-1.22893e-13
-1.12018e-13
-1.03771e-13
-9.16988e-14
-8.34363e-14
-7.78191e-14
-7.32818e-14
-6.24454e-14
-5.43868e-14
-5.00829e-14
-4.58136e-14
-3.58148e-14
-2.6619e-14
-2.04411e-14
-1.3576e-14
-3.46633e-15
-3.85029e-16
-1.40028e-15
-6.79024e-13
-6.74735e-13
-6.70464e-13
-6.70604e-13
-6.65266e-13
-6.65878e-13
-6.64775e-13
-6.65582e-13
-6.65487e-13
-6.59486e-13
-6.55686e-13
-6.54392e-13
-6.5268e-13
-6.46198e-13
-6.38983e-13
-6.33627e-13
-6.27699e-13
-6.1909e-13
-6.12266e-13
-6.02164e-13
-5.94406e-13
-5.84659e-13
-5.73884e-13
-5.67006e-13
-5.62424e-13
-5.61527e-13
-5.54914e-13
-5.48794e-13
-5.39598e-13
-5.32156e-13
-5.23105e-13
-5.12489e-13
-4.99037e-13
-4.89215e-13
-4.8044e-13
-4.75171e-13
-4.71776e-13
-4.6533e-13
-4.55001e-13
-4.43974e-13
-4.35709e-13
-4.25833e-13
-4.16615e-13
-4.09658e-13
-4.03568e-13
-3.96833e-13
-3.89575e-13
-3.84092e-13
-3.78923e-13
-3.70517e-13
-3.60505e-13
-3.51427e-13
-3.45934e-13
-3.40105e-13
-3.34148e-13
-3.28196e-13
-3.20847e-13
-3.12609e-13
-3.07445e-13
-3.0194e-13
-2.95904e-13
-2.86835e-13
-2.75236e-13
-2.67329e-13
-2.58965e-13
-2.50508e-13
-2.41216e-13
-2.35045e-13
-2.27628e-13
-2.24994e-13
-2.19894e-13
-2.13476e-13
-2.04135e-13
-1.93968e-13
-1.8373e-13
-1.73275e-13
-1.68876e-13
-1.64316e-13
-1.55377e-13
-1.46615e-13
-1.39417e-13
-1.31841e-13
-1.22023e-13
-1.11131e-13
-1.00234e-13
-8.89164e-14
-8.38963e-14
-7.92966e-14
-7.20019e-14
-6.61335e-14
-5.97892e-14
-4.95112e-14
-4.14479e-14
-3.43483e-14
-2.64571e-14
-1.83846e-14
-1.14929e-14
-6.86817e-15
-3.2403e-15
-2.00441e-15
-6.77112e-13
-6.73267e-13
-6.71627e-13
-6.69571e-13
-6.68007e-13
-6.65547e-13
-6.62343e-13
-6.64882e-13
-6.65044e-13
-6.62019e-13
-6.57107e-13
-6.53008e-13
-6.52337e-13
-6.45003e-13
-6.36784e-13
-6.2942e-13
-6.23099e-13
-6.18991e-13
-6.1291e-13
-6.04289e-13
-5.95676e-13
-5.86184e-13
-5.76138e-13
-5.69797e-13
-5.65714e-13
-5.59488e-13
-5.52817e-13
-5.44969e-13
-5.36866e-13
-5.31797e-13
-5.23269e-13
-5.16288e-13
-5.05318e-13
-4.94104e-13
-4.79388e-13
-4.72865e-13
-4.69031e-13
-4.63188e-13
-4.53671e-13
-4.43635e-13
-4.36991e-13
-4.26238e-13
-4.18585e-13
-4.08632e-13
-4.0405e-13
-3.97479e-13
-3.92618e-13
-3.85038e-13
-3.75963e-13
-3.65406e-13
-3.59632e-13
-3.56143e-13
-3.48581e-13
-3.37407e-13
-3.3089e-13
-3.24685e-13
-3.17644e-13
-3.15306e-13
-3.08159e-13
-3.04545e-13
-3.02372e-13
-2.85342e-13
-2.73976e-13
-2.68563e-13
-2.61569e-13
-2.51936e-13
-2.43033e-13
-2.36337e-13
-2.26016e-13
-2.21064e-13
-2.17125e-13
-2.15146e-13
-2.07496e-13
-1.9573e-13
-1.81827e-13
-1.70443e-13
-1.68134e-13
-1.63186e-13
-1.54849e-13
-1.48397e-13
-1.40696e-13
-1.3207e-13
-1.20667e-13
-1.10267e-13
-1.01286e-13
-9.03564e-14
-8.3085e-14
-7.87387e-14
-7.24534e-14
-6.24053e-14
-5.55751e-14
-4.92347e-14
-4.16311e-14
-3.43309e-14
-2.87816e-14
-2.2518e-14
-1.17386e-14
-4.82404e-15
2.09041e-16
-7.48102e-16
-6.72845e-13
-6.74531e-13
-6.74408e-13
-6.69237e-13
-6.65827e-13
-6.66244e-13
-6.65221e-13
-6.61896e-13
-6.63362e-13
-6.6105e-13
-6.58689e-13
-6.55956e-13
-6.50831e-13
-6.43806e-13
-6.37449e-13
-6.31932e-13
-6.28658e-13
-6.23622e-13
-6.14705e-13
-6.02913e-13
-5.89625e-13
-5.78558e-13
-5.73682e-13
-5.72012e-13
-5.67265e-13
-5.59176e-13
-5.50391e-13
-5.44866e-13
-5.36561e-13
-5.32582e-13
-5.25955e-13
-5.14265e-13
-5.02165e-13
-4.93092e-13
-4.84276e-13
-4.77325e-13
-4.70432e-13
-4.6211e-13
-4.53875e-13
-4.4512e-13
-4.35049e-13
-4.25609e-13
-4.15794e-13
-4.10281e-13
-4.07714e-13
-3.99148e-13
-3.90794e-13
-3.80845e-13
-3.77183e-13
-3.70348e-13
-3.59701e-13
-3.54917e-13
-3.47757e-13
-3.39535e-13
-3.33509e-13
-3.2274e-13
-3.13439e-13
-3.14036e-13
-3.1424e-13
-3.05775e-13
-2.96615e-13
-2.87018e-13