/*--------------------------------*- C++ -*----------------------------------*\
| =========                 |                                                 |
| \\      /  F ield         | OpenFOAM: The Open Source CFD Toolbox           |
|  \\    /   O peration     | Version:  v2012                                 |
|   \\  /    A nd           | Website:  www.openfoam.com                      |
|    \\/     M anipulation  |                                                 |
\*---------------------------------------------------------------------------*/
FoamFile
{
    version     2.0;
    format      ascii;
    class       surfaceScalarField;
    location    "13.5";
    object      phi;
}
// * * * * * * * * * * * * * * * * * * * * * * * * * * * * * * * * * * * * * //

dimensions      [0 3 -1 0 0 0 0];
oriented        oriented;


internalField   nonuniform List<scalar> 
130560
(
3.50483e-06
-3.50483e-06
7.00987e-06
-3.50504e-06
1.05153e-05
-3.50545e-06
1.40214e-05
-3.50607e-06
1.75283e-05
-3.50689e-06
2.10362e-05
-3.50792e-06
2.45453e-05
-3.50914e-06
2.80559e-05
-3.51055e-06
3.15681e-05
-3.51216e-06
3.5082e-05
-3.51395e-06
3.85979e-05
-3.51592e-06
4.2116e-05
-3.51807e-06
4.56364e-05
-3.52038e-06
4.91593e-05
-3.52286e-06
5.26847e-05
-3.52548e-06
5.6213e-05
-3.52825e-06
5.97441e-05
-3.53115e-06
6.32783e-05
-3.53418e-06
6.68156e-05
-3.53732e-06
7.03562e-05
-3.54056e-06
7.39001e-05
-3.54389e-06
7.74474e-05
-3.5473e-06
8.09982e-05
-3.55077e-06
8.45525e-05
-3.55429e-06
8.81103e-05
-3.55785e-06
9.16717e-05
-3.56142e-06
9.52367e-05
-3.565e-06
9.88053e-05
-3.56856e-06
0.000102377
-3.57209e-06
0.000105953
-3.57556e-06
0.000109532
-3.57897e-06
0.000113114
-3.58228e-06
0.0001167
-3.58547e-06
0.000120288
-3.58853e-06
0.00012388
-3.59143e-06
0.000127474
-3.59415e-06
0.00013107
-3.59666e-06
0.000134669
-3.59894e-06
0.00013827
-3.60096e-06
0.000141873
-3.60269e-06
0.000145477
-3.60411e-06
0.000149082
-3.60519e-06
0.000152688
-3.60589e-06
0.000156294
-3.60619e-06
0.0001599
-3.60605e-06
0.000163506
-3.60545e-06
0.00016711
-3.60435e-06
0.000170713
-3.60272e-06
0.000174314
-3.60053e-06
0.000177911
-3.59773e-06
0.000181506
-3.5943e-06
0.000185096
-3.59019e-06
0.000188681
-3.58538e-06
0.000192261
-3.57982e-06
0.000195834
-3.57349e-06
0.000199401
-3.56633e-06
0.000202959
-3.55831e-06
0.000206508
-3.5494e-06
0.000210048
-3.53956e-06
0.000213577
-3.52874e-06
0.000217094
-3.51691e-06
0.000220598
-3.50403e-06
0.000224088
-3.49007e-06
0.000227563
-3.47498e-06
0.000231021
-3.45872e-06
0.000234463
-3.44127e-06
0.000237885
-3.42258e-06
0.000241288
-3.40261e-06
0.000244669
-3.38133e-06
0.000248028
-3.35871e-06
0.000251363
-3.33472e-06
0.000254672
-3.30931e-06
0.000257954
-3.28246e-06
0.000261209
-3.25414e-06
0.000264433
-3.22432e-06
0.000267626
-3.19298e-06
0.000270786
-3.16008e-06
0.000273912
-3.1256e-06
0.000277001
-3.08953e-06
0.000280053
-3.05184e-06
0.000283065
-3.01252e-06
0.000286037
-2.97155e-06
0.000288966
-2.92891e-06
0.000291851
-2.88461e-06
0.000294689
-2.83862e-06
0.00029748
-2.79095e-06
0.000300222
-2.7416e-06
0.000302912
-2.69056e-06
0.00030555
-2.63783e-06
0.000308134
-2.58344e-06
0.000310661
-2.52738e-06
0.000313131
-2.46967e-06
0.000315541
-2.41032e-06
0.00031789
-2.34936e-06
0.000320177
-2.28681e-06
0.0003224
-2.22269e-06
0.000324557
-2.15704e-06
0.000326647
-2.08988e-06
0.000328668
-2.02125e-06
0.000330619
-1.9512e-06
0.000332499
-1.87976e-06
0.000334306
-1.80698e-06
0.000336039
-1.7329e-06
0.000337696
-1.65759e-06
0.000339277
-1.58109e-06
0.000340781
-1.50346e-06
0.000342206
-1.42476e-06
0.000343551
-1.34504e-06
0.000344815
-1.26439e-06
0.000345998
-1.18286e-06
0.000347098
-1.10051e-06
0.000348116
-1.01743e-06
0.00034905
-9.33681e-07
0.000349899
-8.49337e-07
0.000350663
-7.64474e-07
0.000351343
-6.79167e-07
0.000351936
-5.93493e-07
0.000352444
-5.07528e-07
0.000352865
-4.21352e-07
0.0003532
-3.35042e-07
0.000353449
-2.48675e-07
0.000353611
-1.6233e-07
0.000353687
-7.60847e-08
0.000353677
9.9845e-09
0.000353581
9.58011e-08
0.0003534
1.8129e-07
0.000353134
2.66377e-07
0.000352783
3.50989e-07
0.000352348
4.35056e-07
0.000351829
5.18506e-07
0.000351228
6.01274e-07
0.000350545
6.83292e-07
0.00034978
7.64497e-07
0.000348935
8.44828e-07
0.000348011
9.24226e-07
0.000347008
1.00263e-06
0.000345928
1.08e-06
0.000344772
1.15626e-06
0.000343541
1.23139e-06
0.000342235
1.30532e-06
0.000340857
1.37802e-06
0.000339408
1.44944e-06
0.000337888
1.51956e-06
0.0003363
1.58833e-06
0.000334644
1.65572e-06
0.000332923
1.72171e-06
0.000331136
1.78626e-06
0.000329287
1.84936e-06
0.000327376
1.91099e-06
0.000325405
1.97113e-06
0.000323375
2.02976e-06
0.000321288
2.08687e-06
0.000319146
2.14246e-06
0.000316949
2.19651e-06
0.0003147
2.24903e-06
0.0003124
2.30001e-06
0.000310051
2.34945e-06
0.000307653
2.39736e-06
0.00030521
2.44374e-06
0.000302721
2.4886e-06
0.000300189
2.53195e-06
0.000297615
2.57379e-06
0.000295001
2.61415e-06
0.000292348
2.65304e-06
0.000289658
2.69047e-06
0.000286931
2.72646e-06
0.00028417
2.76104e-06
0.000281376
2.79421e-06
0.00027855
2.82601e-06
0.000275693
2.85646e-06
0.000272808
2.88558e-06
0.000269895
2.91339e-06
0.000266955
2.93992e-06
0.000263989
2.9652e-06
0.000261
2.98926e-06
0.000257988
3.01212e-06
0.000254954
3.03382e-06
0.0002519
3.05437e-06
0.000248826
3.07381e-06
0.000245734
3.09217e-06
0.000242624
3.10948e-06
0.000239499
3.12577e-06
0.000236357
3.14107e-06
0.000233202
3.15541e-06
0.000230033
3.16882e-06
0.000226852
3.18132e-06
0.000223659
3.19296e-06
0.000220455
3.20375e-06
0.000217242
3.21373e-06
0.000214019
3.22293e-06
0.000210787
3.23138e-06
0.000207548
3.2391e-06
0.000204302
3.24613e-06
0.000201049
3.25249e-06
0.000197791
3.25821e-06
0.000194528
3.26332e-06
0.00019126
3.26784e-06
0.000187988
3.2718e-06
0.000184713
3.27523e-06
0.000181435
3.27816e-06
0.000178154
3.2806e-06
0.000174872
3.28259e-06
0.000171588
3.28414e-06
0.000168302
3.28528e-06
0.000165016
3.28604e-06
0.00016173
3.28643e-06
0.000158443
3.28648e-06
0.000155157
3.28621e-06
0.000151872
3.28564e-06
0.000148587
3.28479e-06
0.000145303
3.28368e-06
0.000142021
3.28233e-06
0.00013874
3.28076e-06
0.000135461
3.27899e-06
0.000132184
3.27703e-06
0.000128909
3.27491e-06
0.000125636
3.27263e-06
0.000122366
3.27022e-06
0.000119098
3.26768e-06
0.000115833
3.26504e-06
0.000112571
3.26231e-06
0.000109312
3.25951e-06
0.000106055
3.25664e-06
0.000102801
3.25373e-06
9.95505e-05
3.25077e-06
9.63027e-05
3.24779e-06
9.30579e-05
3.2448e-06
8.98161e-05
3.24181e-06
8.65773e-05
3.23882e-06
8.33414e-05
3.23586e-06
8.01085e-05
3.23292e-06
7.68784e-05
3.23003e-06
7.36513e-05
3.22718e-06
7.04269e-05
3.22438e-06
6.72052e-05
3.22165e-06
6.39862e-05
3.219e-06
6.07698e-05
3.21642e-06
5.75559e-05
3.21393e-06
5.43443e-05
3.21153e-06
5.11351e-05
3.20924e-06
4.79281e-05
3.20705e-06
4.47231e-05
3.20496e-06
4.15201e-05
3.203e-06
3.83189e-05
3.20116e-06
3.51195e-05
3.19944e-06
3.19217e-05
3.19785e-06
2.87253e-05
3.19639e-06
2.55302e-05
3.19507e-06
2.23363e-05
3.19389e-06
1.91435e-05
3.19285e-06
1.59515e-05
3.19195e-06
1.27603e-05
3.1912e-06
9.5697e-06
3.1906e-06
6.37955e-06
3.19015e-06
3.1897e-06
3.18985e-06
3.1897e-06
3.50463e-06
-7.00946e-06
7.00946e-06
-7.00987e-06
1.05147e-05
-7.0107e-06
1.40206e-05
-7.01194e-06
1.75273e-05
-7.01359e-06
2.1035e-05
-7.01564e-06
2.4544e-05
-7.01809e-06
2.80543e-05
-7.02092e-06
3.15663e-05
-7.02414e-06
3.50801e-05
-7.02773e-06
3.85958e-05
-7.03168e-06
4.21137e-05
-7.03598e-06
4.5634e-05
-7.04061e-06
4.91567e-05
-7.04556e-06
5.2682e-05
-7.05082e-06
5.62101e-05
-7.05637e-06
5.97412e-05
-7.06219e-06
6.32752e-05
-7.06825e-06
6.68124e-05
-7.07454e-06
7.03529e-05
-7.08103e-06
7.38967e-05
-7.08771e-06
7.7444e-05
-7.09454e-06
8.09947e-05
-7.1015e-06
8.4549e-05
-7.10856e-06
8.81068e-05
-7.11568e-06
9.16682e-05
-7.12285e-06
9.52332e-05
-7.13002e-06
9.88018e-05
-7.13716e-06
0.000102374
-7.14423e-06
0.00010595
-7.1512e-06
0.000109529
-7.15803e-06
0.000113111
-7.16467e-06
0.000116697
-7.17108e-06
0.000120285
-7.17723e-06
0.000123877
-7.18305e-06
0.000127471
-7.18851e-06
0.000131068
-7.19356e-06
0.000134667
-7.19814e-06
0.000138269
-7.20221e-06
0.000141872
-7.2057e-06
0.000145476
-7.20857e-06
0.000149082
-7.21075e-06
0.000152688
-7.21218e-06
0.000156295
-7.21281e-06
0.000159901
-7.21257e-06
0.000163507
-7.2114e-06
0.000167112
-7.20924e-06
0.000170715
-7.20601e-06
0.000174316
-7.20165e-06
0.000177915
-7.19609e-06
0.00018151
-7.18927e-06
0.000185101
-7.18109e-06
0.000188687
-7.17151e-06
0.000192267
-7.16043e-06
0.000195842
-7.14779e-06
0.000199409
-7.13351e-06
0.000202968
-7.11752e-06
0.000206518
-7.09974e-06
0.000210059
-7.08009e-06
0.000213589
-7.05849e-06
0.000217107
-7.03487e-06
0.000220612
-7.00916e-06
0.000224103
-6.98126e-06
0.000227579
-6.95112e-06
0.000231039
-6.91865e-06
0.000234482
-6.88378e-06
0.000237905
-6.84643e-06
0.000241309
-6.80653e-06
0.000244692
-6.76401e-06
0.000248052
-6.71881e-06
0.000251388
-6.67084e-06
0.000254699
-6.62006e-06
0.000257983
-6.56639e-06
0.000261239
-6.50978e-06
0.000264464
-6.45017e-06
0.000267659
-6.3875e-06
0.000270821
-6.32173e-06
0.000273948
-6.2528e-06
0.000277039
-6.18067e-06
0.000280092
-6.10531e-06
0.000283107
-6.02668e-06
0.00028608
-5.94475e-06
0.00028901
-5.85949e-06
0.000291897
-5.77089e-06
0.000294737
-5.67892e-06
0.00029753
-5.58359e-06
0.000300273
-5.48488e-06
0.000302965
-5.38279e-06
0.000305605
-5.27734e-06
0.00030819
-5.16854e-06
0.000310719
-5.0564e-06
0.00031319
-4.94097e-06
0.000315602
-4.82226e-06
0.000317953
-4.70031e-06
0.000320241
-4.57518e-06
0.000322465
-4.44691e-06
0.000324624
-4.31557e-06
0.000326715
-4.18122e-06
0.000328738
-4.04393e-06
0.000330691
-3.90378e-06
0.000332572
-3.76085e-06
0.00033438
-3.61524e-06
0.000336114
-3.46705e-06
0.000337773
-3.31636e-06
0.000339355
-3.1633e-06
0.00034086
-3.00798e-06
0.000342285
-2.85051e-06
0.000343631
-2.69103e-06
0.000344897
-2.52965e-06
0.00034608
-2.36652e-06
0.000347182
-2.20176e-06
0.0003482
-2.03553e-06
0.000349134
-1.86795e-06
0.000349984
-1.69919e-06
0.000350749
-1.52939e-06
0.000351428
-1.3587e-06
0.000352022
-1.18727e-06
0.00035253
-1.01526e-06
0.000352951
-8.42834e-07
0.000353286
-6.70135e-07
0.000353535
-4.97324e-07
0.000353697
-3.24557e-07
0.000353773
-1.51989e-07
0.000353763
2.02256e-08
0.000353667
1.91934e-07
0.000353485
3.62986e-07
0.000353218
5.33232e-07
0.000352867
7.02528e-07
0.000352431
8.7073e-07
0.000351912
1.0377e-06
0.00035131
1.2033e-06
0.000350626
1.3674e-06
0.00034986
1.52987e-06
0.000349014
1.69059e-06
0.000348089
1.84944e-06
0.000347086
2.00631e-06
0.000346004
2.16109e-06
0.000344847
2.31367e-06
0.000343614
2.46397e-06
0.000342308
2.61188e-06
0.000340929
2.75731e-06
0.000339478
2.9002e-06
0.000337957
3.04047e-06
0.000336367
3.17804e-06
0.00033471
3.31285e-06
0.000332987
3.44485e-06
0.000331199
3.57398e-06
0.000329348
3.7002e-06
0.000327436
3.82347e-06
0.000325463
3.94376e-06
0.000323432
4.06103e-06
0.000321344
4.17527e-06
0.0003192
4.28645e-06
0.000317002
4.39456e-06
0.000314751
4.4996e-06
0.000312449
4.60156e-06
0.000310099
4.70044e-06
0.0003077
4.79625e-06
0.000305254
4.889e-06
0.000302764
4.97871e-06
0.000300231
5.0654e-06
0.000297656
5.14908e-06
0.00029504
5.22978e-06
0.000292385
5.30754e-06
0.000289693
5.38238e-06
0.000286966
5.45435e-06
0.000284203
5.52347e-06
0.000281408
5.5898e-06
0.00027858
5.65338e-06
0.000275722
5.71425e-06
0.000272836
5.77246e-06
0.000269921
5.82805e-06
0.00026698
5.8811e-06
0.000264013
5.93163e-06
0.000261023
5.97972e-06
0.00025801
6.02541e-06
0.000254975
6.06877e-06
0.000251919
6.10985e-06
0.000248844
6.1487e-06
0.000245751
6.1854e-06
0.00024264
6.21999e-06
0.000239514
6.25254e-06
0.000236372
6.2831e-06
0.000233215
6.31175e-06
0.000230046
6.33853e-06
0.000226863
6.36351e-06
0.00022367
6.38675e-06
0.000220465
6.40831e-06
0.000217251
6.42824e-06
0.000214027
6.44661e-06
0.000210795
6.46348e-06
0.000207555
6.47889e-06
0.000204308
6.49292e-06
0.000201055
6.50561e-06
0.000197796
6.51703e-06
0.000194532
6.52721e-06
0.000191264
6.53623e-06
0.000187992
6.54414e-06
0.000184716
6.55097e-06
0.000181437
6.5568e-06
0.000178156
6.56166e-06
0.000174873
6.5656e-06
0.000171589
6.56868e-06
0.000168303
6.57095e-06
0.000165017
6.57244e-06
0.00016173
6.5732e-06
0.000158443
6.57328e-06
0.000155156
6.57272e-06
0.000151871
6.57156e-06
0.000148586
6.56984e-06
0.000145302
6.5676e-06
0.000142019
6.56489e-06
0.000138738
6.56173e-06
0.000135459
6.55817e-06
0.000132182
6.55423e-06
0.000128907
6.54996e-06
0.000125634
6.54539e-06
0.000122364
6.54055e-06
0.000119096
6.53547e-06
0.000115831
6.53017e-06
0.000112568
6.5247e-06
0.000109309
6.51908e-06
0.000106052
6.51333e-06
0.000102798
6.50749e-06
9.95474e-05
6.50157e-06
9.62996e-05
6.4956e-06
9.30548e-05
6.4896e-06
8.9813e-05
6.48361e-06
8.65742e-05
6.47763e-06
8.33384e-05
6.47169e-06
8.01055e-05
6.46581e-06
7.68755e-05
6.46e-06
7.36484e-05
6.45429e-06
7.04241e-05
6.4487e-06
6.72025e-05
6.44323e-06
6.39836e-05
6.43791e-06
6.07673e-05
6.43275e-06
5.75534e-05
6.42777e-06
5.4342e-05
6.42297e-06
5.11329e-05
6.41837e-06
4.7926e-05
6.41398e-06
4.47211e-05
6.40981e-06
4.15182e-05
6.40588e-06
3.83172e-05
6.40218e-06
3.51179e-05
6.39874e-06
3.19202e-05
6.39556e-06
2.87239e-05
6.39264e-06
2.5529e-05
6.39e-06
2.23353e-05
6.38763e-06
1.91426e-05
6.38555e-06
1.59508e-05
6.38376e-06
1.27597e-05
6.38226e-06
9.56925e-06
6.38105e-06
6.37925e-06
6.38015e-06
3.18955e-06
6.37955e-06
6.37925e-06
3.50421e-06
-1.05137e-05
7.00863e-06
-1.05143e-05
1.05135e-05
-1.05155e-05
1.40189e-05
-1.05174e-05
1.75252e-05
-1.05199e-05
2.10326e-05
-1.0523e-05
2.45411e-05
-1.05266e-05
2.80511e-05
-1.05309e-05
3.15627e-05
-1.05357e-05
3.50761e-05
-1.05411e-05
3.85915e-05
-1.05471e-05
4.21091e-05
-1.05535e-05
4.5629e-05
-1.05605e-05
4.91514e-05
-1.0568e-05
5.26764e-05
-1.05759e-05
5.62043e-05
-1.05842e-05
5.97351e-05
-1.0593e-05
6.32689e-05
-1.06021e-05
6.68059e-05
-1.06116e-05
7.03462e-05
-1.06213e-05
7.38899e-05
-1.06314e-05
7.7437e-05
-1.06417e-05
8.09876e-05
-1.06521e-05
8.45418e-05
-1.06628e-05
8.80996e-05
-1.06735e-05
9.1661e-05
-1.06843e-05
9.52261e-05
-1.06951e-05
9.87947e-05
-1.07058e-05
0.000102367
-1.07165e-05
0.000105943
-1.0727e-05
0.000109522
-1.07373e-05
0.000113105
-1.07473e-05
0.000116691
-1.0757e-05
0.00012028
-1.07662e-05
0.000123872
-1.0775e-05
0.000127466
-1.07833e-05
0.000131064
-1.07909e-05
0.000134663
-1.07979e-05
0.000138265
-1.0804e-05
0.000141869
-1.08093e-05
0.000145474
-1.08137e-05
0.00014908
-1.0817e-05
0.000152687
-1.08193e-05
0.000156295
-1.08203e-05
0.000159902
-1.082e-05
0.000163509
-1.08184e-05
0.000167115
-1.08152e-05
0.00017072
-1.08104e-05
0.000174322
-1.0804e-05
0.000177922
-1.07957e-05
0.000181518
-1.07856e-05
0.00018511
-1.07734e-05
0.000188698
-1.07591e-05
0.00019228
-1.07426e-05
0.000195856
-1.07237e-05
0.000199425
-1.07024e-05
0.000202986
-1.06785e-05
0.000206538
-1.06519e-05
0.000210081
-1.06226e-05
0.000213612
-1.05903e-05
0.000217132
-1.05549e-05
0.00022064
-1.05165e-05
0.000224133
-1.04747e-05
0.000227612
-1.04296e-05
0.000231074
-1.0381e-05
0.000234519
-1.03288e-05
0.000237945
-1.02728e-05
0.000241352
-1.02131e-05
0.000244737
-1.01494e-05
0.0002481
-1.00817e-05
0.000251439
-1.00098e-05
0.000254753
-9.9337e-06
0.00025804
-9.85327e-06
0.000261298
-9.76843e-06
0.000264527
-9.67908e-06
0.000267725
-9.58514e-06
0.000270889
-9.48653e-06
0.00027402
-9.38319e-06
0.000277114
-9.27506e-06
0.000280171
-9.16206e-06
0.000283188
-9.04415e-06
0.000286165
-8.92128e-06
0.000289099
-8.79342e-06
0.000291989
-8.66053e-06
0.000294832
-8.5226e-06
0.000297628
-8.3796e-06
0.000300375
-8.23153e-06
0.000303071
-8.07839e-06
0.000305713
-7.9202e-06
0.000308302
-7.75697e-06
0.000310834
-7.58874e-06
0.000313309
-7.41554e-06
0.000315724
-7.23742e-06
0.000318078
-7.05445e-06
0.00032037
-6.86669e-06
0.000322597
-6.67421e-06
0.000324758
-6.47712e-06
0.000326853
-6.2755e-06
0.000328878
-6.06947e-06
0.000330834
-5.85914e-06
0.000332717
-5.64464e-06
0.000334528
-5.4261e-06
0.000336265
-5.20367e-06
0.000337926
-4.97751e-06
0.00033951
-4.74778e-06
0.000341017
-4.51465e-06
0.000342445
-4.2783e-06
0.000343793
-4.03891e-06
0.00034506
-3.79667e-06
0.000346245
-3.5518e-06
0.000347348
-3.30449e-06
0.000348367
-3.05496e-06
0.000349303
-2.80341e-06
0.000350154
-2.55008e-06
0.000350919
-2.29519e-06
0.0003516
-2.03896e-06
0.000352194
-1.78163e-06
0.000352702
-1.52343e-06
0.000353124
-1.26458e-06
0.000353459
-1.00534e-06
0.000353708
-7.45929e-07
0.00035387
-4.86585e-07
0.000353945
-2.2754e-07
0.000353935
3.09719e-08
0.000353838
2.88723e-07
0.000353655
5.45486e-07
0.000353387
8.01038e-07
0.000353035
1.05516e-06
0.000352598
1.30764e-06
0.000352077
1.55826e-06
0.000351474
1.80683e-06
0.000350788
2.05314e-06
0.000350021
2.297e-06
0.000349173
2.53823e-06
0.000348246
2.77665e-06
0.00034724
3.01208e-06
0.000346157
3.24438e-06
0.000344997
3.47338e-06
0.000343762
3.69893e-06
0.000342453
3.9209e-06
0.000341072
4.13916e-06
0.000339618
4.35359e-06
0.000338095
4.56407e-06
0.000336502
4.7705e-06
0.000334842
4.97279e-06
0.000333116
5.17085e-06
0.000331326
5.36461e-06
0.000329472
5.55399e-06
0.000327556
5.73894e-06
0.000325581
5.91941e-06
0.000323546
6.09534e-06
0.000321455
6.26672e-06
0.000319308
6.43351e-06
0.000317107
6.59568e-06
0.000314853
6.75324e-06
0.000312548
6.90618e-06
0.000310194
7.0545e-06
0.000307792
7.1982e-06
0.000305344
7.33731e-06
0.000302851
7.47185e-06
0.000300315
7.60185e-06
0.000297736
7.72733e-06
0.000295118
7.84835e-06
0.00029246
7.96495e-06
0.000289765
8.07717e-06
0.000287035
8.18507e-06
0.00028427
8.28871e-06
0.000281471
8.38815e-06
0.000278641
8.48345e-06
0.000275781
8.57469e-06
0.000272891
8.66195e-06
0.000269974
8.74528e-06
0.00026703
8.82478e-06
0.000264061
8.90051e-06
0.000261069
8.97257e-06
0.000258053
9.04104e-06
0.000255016
9.106e-06
0.000251958
9.16755e-06
0.000248881
9.22576e-06
0.000245786
9.28072e-06
0.000242673
9.33253e-06
0.000239544
9.38128e-06
0.0002364
9.42706e-06
0.000233242
9.46995e-06
0.000230071
9.51005e-06
0.000226887
9.54744e-06
0.000223691
9.58223e-06
0.000220485
9.61449e-06
0.000217269
9.64432e-06
0.000214044
9.6718e-06
0.00021081
9.69703e-06
0.000207569
9.72008e-06
0.000204321
9.74105e-06
0.000201067
9.76002e-06
0.000197806
9.77707e-06
0.000194541
9.79228e-06
0.000191272
9.80575e-06
0.000187999
9.81753e-06
0.000184722
9.82773e-06
0.000181442
9.8364e-06
0.00017816
9.84363e-06
0.000174876
9.84949e-06
0.000171591
9.85405e-06
0.000168304
9.85739e-06
0.000165017
9.85956e-06
0.00016173
9.86065e-06
0.000158442
9.86072e-06
0.000155155
9.85982e-06
0.000151869
9.85803e-06
0.000148583
9.85541e-06
0.000145299
9.852e-06
0.000142016
9.84788e-06
0.000138735
9.8431e-06
0.000135455
9.83771e-06
0.000132177
9.83177e-06
0.000128902
9.82532e-06
0.000125629
9.81842e-06
0.000122359
9.81112e-06
0.000119091
9.80346e-06
0.000115825
9.79549e-06
0.000112563
9.78724e-06
0.000109303
9.77878e-06
0.000106046
9.77012e-06
0.000102792
9.76132e-06
9.95415e-05
9.75241e-06
9.62937e-05
9.74343e-06
9.30489e-05
9.73441e-06
8.98071e-05
9.72539e-06
8.65683e-05
9.71639e-06
8.33325e-05
9.70746e-06
8.00997e-05
9.69861e-06
7.68699e-05
9.68988e-06
7.36428e-05
9.6813e-06
7.04187e-05
9.67289e-06
6.71972e-05
9.66467e-06
6.39785e-05
9.65667e-06
6.07623e-05
9.64891e-06
5.75487e-05
9.64142e-06
5.43374e-05
9.6342e-06
5.11285e-05
9.62729e-06
4.79218e-05
9.62069e-06
4.47172e-05
9.61443e-06
4.15145e-05
9.60851e-06
3.83138e-05
9.60296e-06
3.51147e-05
9.59779e-06
3.19173e-05
9.593e-06
2.87213e-05
9.58862e-06
2.55266e-05
9.58465e-06
2.23332e-05
9.58109e-06
1.91408e-05
9.57797e-06
1.59493e-05
9.57527e-06
1.27585e-05
9.57302e-06
9.56834e-06
9.57121e-06
6.37864e-06
9.56985e-06
3.18925e-06
9.56895e-06
9.5685e-06
3.50359e-06
-1.40173e-05
7.00739e-06
-1.40181e-05
1.05116e-05
-1.40198e-05
1.40165e-05
-1.40223e-05
1.75221e-05
-1.40256e-05
2.10289e-05
-1.40297e-05
2.45368e-05
-1.40346e-05
2.80462e-05
-1.40403e-05
3.15573e-05
-1.40468e-05
3.50702e-05
-1.4054e-05
3.8585e-05
-1.4062e-05
4.21021e-05
-1.40706e-05
4.56215e-05
-1.40799e-05
4.91435e-05
-1.40899e-05
5.26681e-05
-1.41005e-05
5.61955e-05
-1.41117e-05
5.97259e-05
-1.41234e-05
6.32594e-05
-1.41356e-05
6.67961e-05
-1.41483e-05
7.03362e-05
-1.41613e-05
7.38796e-05
-1.41748e-05
7.74265e-05
-1.41886e-05
8.0977e-05
-1.42026e-05
8.45311e-05
-1.42168e-05
8.80888e-05
-1.42312e-05
9.16502e-05
-1.42457e-05
9.52153e-05
-1.42602e-05
9.87841e-05
-1.42746e-05
0.000102356
-1.42889e-05
0.000105932
-1.4303e-05
0.000109512
-1.43168e-05
0.000113095
-1.43302e-05
0.000116681
-1.43433e-05
0.000120271
-1.43557e-05
0.000123863
-1.43676e-05
0.000127459
-1.43787e-05
0.000131057
-1.4389e-05
0.000134657
-1.43984e-05
0.00013826
-1.44067e-05
0.000141864
-1.44139e-05
0.000145471
-1.44199e-05
0.000149078
-1.44245e-05
0.000152686
-1.44276e-05
0.000156295
-1.44291e-05
0.000159904
-1.44289e-05
0.000163512
-1.44268e-05
0.00016712
-1.44227e-05
0.000170726
-1.44165e-05
0.00017433
-1.44081e-05
0.000177932
-1.43973e-05
0.00018153
-1.43839e-05
0.000185124
-1.43678e-05
0.000188714
-1.4349e-05
0.000192299
-1.43271e-05
0.000195877
-1.43021e-05
0.000199449
-1.42739e-05
0.000203012
-1.42422e-05
0.000206567
-1.42069e-05
0.000210113
-1.4168e-05
0.000213648
-1.41251e-05
0.000217171
-1.40781e-05
0.000220681
-1.4027e-05
0.000224178
-1.39715e-05
0.00022766
-1.39116e-05
0.000231126
-1.38469e-05
0.000234575
-1.37775e-05
0.000238005
-1.37031e-05
0.000241415
-1.36235e-05
0.000244805
-1.35388e-05
0.000248172
-1.34486e-05
0.000251515
-1.3353e-05
0.000254833
-1.32517e-05
0.000258124
-1.31446e-05
0.000261387
-1.30316e-05
0.000264621
-1.29126e-05
0.000267823
-1.27874e-05
0.000270993
-1.26561e-05
0.000274128
-1.25184e-05
0.000277227
-1.23743e-05
0.000280289
-1.22237e-05
0.000283311
-1.20666e-05
0.000286293
-1.19028e-05
0.000289232
-1.17324e-05
0.000292127
-1.15552e-05
0.000294975
-1.13713e-05
0.000297776
-1.11807e-05
0.000300528
-1.09833e-05
0.000303229
-1.0779e-05
0.000305877
-1.05681e-05
0.00030847
-1.03504e-05
0.000311007
-1.0126e-05
0.000313487
-9.89503e-06
0.000315907
-9.65745e-06
0.000318266
-9.41338e-06
0.000320562
-9.16291e-06
0.000322794
-8.90614e-06
0.00032496
-8.64319e-06
0.000327059
-8.3742e-06
0.000329089
-8.09931e-06
0.000331048
-7.81867e-06
0.000332936
-7.53245e-06
0.000334751
-7.24084e-06
0.000336491
-6.94404e-06
0.000338156
-6.64224e-06
0.000339744
-6.33566e-06
0.000341254
-6.02454e-06
0.000342684
-5.70911e-06
0.000344035
-5.38963e-06
0.000345305
-5.06634e-06
0.000346492
-4.73952e-06
0.000347597
-4.40945e-06
0.000348619
-4.0764e-06
0.000349556
-3.74066e-06
0.000350409
-3.40254e-06
0.000351176
-3.06233e-06
0.000351857
-2.72033e-06
0.000352452
-2.37686e-06
0.000352961
-2.03223e-06
0.000353383
-1.68674e-06
0.000353719
-1.34072e-06
0.000353967
-9.9447e-07
0.000354129
-6.48314e-07
0.000354204
-3.02562e-07
0.000354192
4.24781e-08
0.000354095
3.86498e-07
0.000353911
7.29196e-07
0.000353642
1.07027e-06
0.000353287
1.40944e-06
0.000352849
1.7464e-06
0.000352326
2.08088e-06
0.00035172
2.41261e-06
0.000351032
2.74132e-06
0.000350262
3.06675e-06
0.000349412
3.38867e-06
0.000348482
3.70683e-06
0.000347473
4.021e-06
0.000346386
4.33096e-06
0.000345223
4.63652e-06
0.000343984
4.93747e-06
0.000342672
5.23364e-06
0.000341286
5.52484e-06
0.000339829
5.81091e-06
0.000338301
6.09171e-06
0.000336705
6.36711e-06
0.00033504
6.63696e-06
0.00033331
6.90116e-06
0.000331515
7.15961e-06
0.000329657
7.41221e-06
0.000327737
7.65889e-06
0.000325757
7.89958e-06
0.000323718
8.13422e-06
0.000321622
8.36276e-06
0.00031947
8.58517e-06
0.000317264
8.80143e-06
0.000315006
9.01151e-06
0.000312697
9.21542e-06
0.000310338
9.41316e-06
0.000307932
9.60474e-06
0.000305479
9.79019e-06
0.000302981
9.96953e-06
0.00030044
1.01428e-05
0.000297857
1.03101e-05
0.000295234
1.04714e-05
0.000292573
1.06267e-05
0.000289873
1.07763e-05
0.000287139
1.09201e-05
0.000284369
1.10581e-05
0.000281567
1.11906e-05
0.000278732
1.13176e-05
0.000275868
1.14391e-05
0.000272975
1.15554e-05
0.000270054
1.16663e-05
0.000267106
1.17722e-05
0.000264134
1.18731e-05
0.000261137
1.1969e-05
0.000258118
1.20602e-05
0.000255077
1.21467e-05
0.000252016
1.22286e-05
0.000248936
1.23061e-05
0.000245838
1.23792e-05
0.000242722
1.24481e-05
0.00023959
1.2513e-05
0.000236443
1.25739e-05
0.000233282
1.26309e-05
0.000230108
1.26843e-05
0.000226922
1.2734e-05
0.000223724
1.27802e-05
0.000220515
1.28231e-05
0.000217297
1.28627e-05
0.000214069
1.28992e-05
0.000210833
1.29327e-05
0.00020759
1.29634e-05
0.00020434
1.29912e-05
0.000201084
1.30163e-05
0.000197822
1.30389e-05
0.000194555
1.30591e-05
0.000191284
1.30769e-05
0.000188009
1.30925e-05
0.00018473
1.3106e-05
0.000181449
1.31174e-05
0.000178166
1.3127e-05
0.000174881
1.31347e-05
0.000171594
1.31406e-05
0.000168307
1.3145e-05
0.000165019
1.31478e-05
0.00016173
1.31491e-05
0.000158442
1.31491e-05
0.000155154
1.31478e-05
0.000151866
1.31453e-05
0.00014858
1.31418e-05
0.000145295
1.31371e-05
0.000142011
1.31315e-05
0.000138729
1.31251e-05
0.000135449
1.31178e-05
0.000132171
1.31098e-05
0.000128895
1.31011e-05
0.000125622
1.30919e-05
0.000122351
1.30821e-05
0.000119083
1.30718e-05
0.000115817
1.30611e-05
0.000112554
1.305e-05
0.000109294
1.30387e-05
0.000106037
1.30271e-05
0.000102783
1.30153e-05
9.95325e-05
1.30033e-05
9.62847e-05
1.29913e-05
9.30399e-05
1.29792e-05
8.97981e-05
1.29671e-05
8.65594e-05
1.29551e-05
8.33237e-05
1.29431e-05
8.0091e-05
1.29313e-05
7.68613e-05
1.29196e-05
7.36345e-05
1.29081e-05
7.04105e-05
1.28969e-05
6.71892e-05
1.28859e-05
6.39707e-05
1.28752e-05
6.07548e-05
1.28648e-05
5.75415e-05
1.28548e-05
5.43305e-05
1.28451e-05
5.11219e-05
1.28359e-05
4.79155e-05
1.28271e-05
4.47113e-05
1.28187e-05
4.1509e-05
1.28108e-05
3.83086e-05
1.28034e-05
3.51099e-05
1.27964e-05
3.19129e-05
1.27901e-05
2.87173e-05
1.27842e-05
2.55231e-05
1.27789e-05
2.23301e-05
1.27741e-05
1.91381e-05
1.27699e-05
1.5947e-05
1.27663e-05
1.27567e-05
1.27633e-05
9.56699e-06
1.27609e-05
6.37774e-06
1.27591e-05
3.18879e-06
1.27579e-05
1.27573e-05
3.50275e-06
-1.752e-05
7.00572e-06
-1.75211e-05
1.05091e-05
-1.75232e-05
1.40131e-05
-1.75263e-05
1.7518e-05
-1.75304e-05
2.10239e-05
-1.75356e-05
2.45311e-05
-1.75418e-05
2.80398e-05
-1.7549e-05
3.15501e-05
-1.75571e-05
3.50622e-05
-1.75662e-05
3.85764e-05
-1.75761e-05
4.20928e-05
-1.7587e-05
4.56115e-05
-1.75987e-05
4.91329e-05
-1.76112e-05
5.26569e-05
-1.76245e-05
5.61838e-05
-1.76386e-05
5.97137e-05
-1.76533e-05
6.32467e-05
-1.76686e-05
6.6783e-05
-1.76845e-05
7.03227e-05
-1.7701e-05
7.38658e-05
-1.77179e-05
7.74124e-05
-1.77352e-05
8.09627e-05
-1.77529e-05
8.45166e-05
-1.77708e-05
8.80743e-05
-1.77889e-05
9.16357e-05
-1.78071e-05
9.52008e-05
-1.78253e-05
9.87697e-05
-1.78435e-05
0.000102342
-1.78615e-05
0.000105919
-1.78792e-05
0.000109498
-1.78967e-05
0.000113082
-1.79136e-05
0.000116669
-1.79301e-05
0.000120259
-1.79458e-05
0.000123852
-1.79608e-05
0.000127448
-1.79749e-05
0.000131047
-1.7988e-05
0.000134649
-1.79999e-05
0.000138253
-1.80105e-05
0.000141858
-1.80197e-05
0.000145466
-1.80274e-05
0.000149075
-1.80334e-05
0.000152685
-1.80375e-05
0.000156295
-1.80396e-05
0.000159906
-1.80396e-05
0.000163516
-1.80372e-05
0.000167126
-1.80324e-05
0.000170734
-1.80249e-05
0.000174341
-1.80146e-05
0.000177945
-1.80013e-05
0.000181546
-1.79849e-05
0.000185143
-1.79651e-05
0.000188736
-1.79418e-05
0.000192324
-1.79148e-05
0.000195905
-1.78838e-05
0.00019948
-1.78488e-05
0.000203048
-1.78095e-05
0.000206606
-1.77657e-05
0.000210156
-1.77172e-05
0.000213694
-1.76639e-05
0.000217222
-1.76056e-05
0.000220737
-1.75419e-05
0.000224238
-1.74729e-05
0.000227725
-1.73982e-05
0.000231196
-1.73177e-05
0.000234649
-1.72311e-05
0.000238084
-1.71384e-05
0.0002415
-1.70393e-05
0.000244895
-1.69336e-05
0.000248268
-1.68211e-05
0.000251616
-1.67018e-05
0.00025494
-1.65754e-05
0.000258237
-1.64418e-05
0.000261506
-1.63007e-05
0.000264746
-1.61522e-05
0.000267955
-1.5996e-05
0.00027113
-1.58319e-05
0.000274272
-1.566e-05
0.000277378
-1.548e-05
0.000280446
-1.52919e-05
0.000283475
-1.50956e-05
0.000286463
-1.4891e-05
0.000289409
-1.46781e-05
0.00029231
-1.44567e-05
0.000295166
-1.42268e-05
0.000297974
-1.39885e-05
0.000300732
-1.37417e-05
0.00030344
-1.34865e-05
0.000306094
-1.32227e-05
0.000308694
-1.29505e-05
0.000311238
-1.267e-05
0.000313724
-1.23811e-05
0.000316151
-1.2084e-05
0.000318516
-1.17787e-05
0.000320819
-1.14654e-05
0.000323057
-1.11442e-05
0.000325229
-1.08153e-05
0.000327334
-1.04788e-05
0.000329369
-1.01349e-05
0.000331334
-9.78378e-06
0.000333228
-9.42567e-06
0.000335047
-9.06079e-06
0.000336793
-8.6894e-06
0.000338462
-8.31174e-06
0.000340055
-7.92809e-06
0.000341569
-7.53874e-06
0.000343004
-7.14399e-06
0.000344358
-6.74415e-06
0.000345632
-6.33954e-06
0.000346823
-5.9305e-06
0.00034793
-5.51738e-06
0.000348955
-5.10053e-06
0.000349894
-4.68031e-06
0.000350749
-4.25709e-06
0.000351518
-3.83125e-06
0.000352201
-3.40318e-06
0.000352797
-2.97326e-06
0.000353307
-2.54188e-06
0.000353729
-2.10943e-06
0.000354065
-1.67632e-06
0.000354313
-1.24292e-06
0.000354475
-8.09642e-07
0.000354549
-3.76871e-07
0.000354536
5.50027e-08
0.000354437
4.85595e-07
0.000354252
9.14525e-07
0.000353981
1.34142e-06
0.000353624
1.76591e-06
0.000353183
2.18764e-06
0.000352658
2.60625e-06
0.000352049
3.02141e-06
0.000351358
3.43277e-06
0.000350584
3.84003e-06
0.00034973
4.24287e-06
0.000348796
4.64099e-06
0.000347783
5.03411e-06
0.000346692
5.42196e-06
0.000345524
5.80427e-06
0.000344281
6.18081e-06
0.000342963
6.55133e-06
0.000341572
6.91564e-06
0.00034011
7.27351e-06
0.000338577
7.62477e-06
0.000336974
7.96925e-06
0.000335305
8.30678e-06
0.000333569
8.63723e-06
0.000331768
8.96046e-06
0.000329904
9.27636e-06
0.000327978
9.58484e-06
0.000325991
9.8858e-06
0.000323946
1.01792e-05
0.000321844
1.04649e-05
0.000319686
1.0743e-05
0.000317475
1.10133e-05
0.00031521
1.1276e-05
0.000312895
1.15308e-05
0.00031053
1.1778e-05
0.000308117
1.20174e-05
0.000305658
1.22492e-05
0.000303154
1.24733e-05
0.000300607
1.26898e-05
0.000298019
1.28988e-05
0.00029539
1.31003e-05
0.000292722
1.32944e-05
0.000290017
1.34812e-05
0.000287277
1.36607e-05
0.000284502
1.38332e-05
0.000281694
1.39986e-05
0.000278854
1.41572e-05
0.000275984
1.43089e-05
0.000273086
1.4454e-05
0.00027016
1.45925e-05
0.000267207
1.47247e-05
0.00026423
1.48505e-05
0.000261228
1.49703e-05
0.000258205
1.5084e-05
0.000255159
1.51919e-05
0.000252094