/*--------------------------------*- C++ -*----------------------------------*\
| =========                 |                                                 |
| \\      /  F ield         | OpenFOAM: The Open Source CFD Toolbox           |
|  \\    /   O peration     | Version:  v2012                                 |
|   \\  /    A nd           | Website:  www.openfoam.com                      |
|    \\/     M anipulation  |                                                 |
\*---------------------------------------------------------------------------*/
FoamFile
{
    version     2.0;
    format      ascii;
    class       volVectorField;
    location    "13.5";
    object      U;
}
// * * * * * * * * * * * * * * * * * * * * * * * * * * * * * * * * * * * * * //

dimensions      [0 1 -1 0 0 0 0];


internalField   nonuniform List<vector> 
65536
(
(0.000713987 -0.000714007 0)
(0.00214201 -0.000714051 0)
(0.00357015 -0.000714135 0)
(0.00499851 -0.000714261 0)
(0.00642715 -0.000714428 0)
(0.00785618 -0.000714637 0)
(0.00928566 -0.000714885 0)
(0.0107157 -0.000715173 0)
(0.0121463 -0.0007155 0)
(0.0135777 -0.000715865 0)
(0.0150097 -0.000716267 0)
(0.0164427 -0.000716703 0)
(0.0178765 -0.000717174 0)
(0.0193114 -0.000717678 0)
(0.0207472 -0.000718212 0)
(0.0221842 -0.000718776 0)
(0.0236223 -0.000719366 0)
(0.0250616 -0.000719982 0)
(0.0265022 -0.000720621 0)
(0.0279441 -0.000721281 0)
(0.0293873 -0.000721959 0)
(0.0308319 -0.000722653 0)
(0.0322779 -0.00072336 0)
(0.0337253 -0.000724076 0)
(0.0351742 -0.0007248 0)
(0.0366245 -0.000725527 0)
(0.0380763 -0.000726255 0)
(0.0395296 -0.000726979 0)
(0.0409842 -0.000727697 0)
(0.0424404 -0.000728404 0)
(0.0438979 -0.000729096 0)
(0.0453568 -0.000729769 0)
(0.046817 -0.000730419 0)
(0.0482785 -0.000731041 0)
(0.0497412 -0.000731631 0)
(0.051205 -0.000732184 0)
(0.05267 -0.000732694 0)
(0.0541359 -0.000733157 0)
(0.0556026 -0.000733567 0)
(0.0570702 -0.000733918 0)
(0.0585384 -0.000734206 0)
(0.0600071 -0.000734423 0)
(0.0614761 -0.000734565 0)
(0.0629454 -0.000734624 0)
(0.0644147 -0.000734595 0)
(0.0658839 -0.000734471 0)
(0.0673527 -0.000734245 0)
(0.068821 -0.000733912 0)
(0.0702885 -0.000733462 0)
(0.071755 -0.000732891 0)
(0.0732202 -0.00073219 0)
(0.0746839 -0.000731352 0)
(0.0761457 -0.00073037 0)
(0.0776055 -0.000729236 0)
(0.0790628 -0.000727943 0)
(0.0805174 -0.000726482 0)
(0.0819689 -0.000724848 0)
(0.083417 -0.000723031 0)
(0.0848612 -0.000721023 0)
(0.0863013 -0.000718817 0)
(0.0877367 -0.000716406 0)
(0.0891671 -0.000713781 0)
(0.0905921 -0.000710934 0)
(0.0920111 -0.000707858 0)
(0.0934237 -0.000704545 0)
(0.0948295 -0.000700987 0)
(0.0962279 -0.000697177 0)
(0.0976185 -0.000693108 0)
(0.0990006 -0.000688772 0)
(0.100374 -0.000684162 0)
(0.101738 -0.000679272 0)
(0.103091 -0.000674094 0)
(0.104434 -0.000668623 0)
(0.105766 -0.000662852 0)
(0.107086 -0.000656776 0)
(0.108393 -0.000650389 0)
(0.109688 -0.000643686 0)
(0.110968 -0.000636662 0)
(0.112235 -0.000629312 0)
(0.113486 -0.000621633 0)
(0.114722 -0.000613622 0)
(0.115941 -0.000605274 0)
(0.117143 -0.000596589 0)
(0.118328 -0.000587562 0)
(0.119494 -0.000578194 0)
(0.120641 -0.000568483 0)
(0.121768 -0.000558428 0)
(0.122875 -0.000548031 0)
(0.12396 -0.000537291 0)
(0.125024 -0.00052621 0)
(0.126066 -0.00051479 0)
(0.127084 -0.000503034 0)
(0.128078 -0.000490945 0)
(0.129048 -0.000478528 0)
(0.129992 -0.000465786 0)
(0.130911 -0.000452726 0)
(0.131804 -0.000439352 0)
(0.132669 -0.000425673 0)
(0.133507 -0.000411695 0)
(0.134316 -0.000397425 0)
(0.135097 -0.000382874 0)
(0.135848 -0.00036805 0)
(0.136569 -0.000352962 0)
(0.13726 -0.000337622 0)
(0.13792 -0.00032204 0)
(0.138548 -0.000306228 0)
(0.139145 -0.000290198 0)
(0.139709 -0.000273963 0)
(0.140241 -0.000257536 0)
(0.14074 -0.000240929 0)
(0.141205 -0.000224158 0)
(0.141636 -0.000207236 0)
(0.142034 -0.000190179 0)
(0.142397 -0.000173 0)
(0.142726 -0.000155716 0)
(0.14302 -0.000138341 0)
(0.143279 -0.000120891 0)
(0.143504 -0.000103383 0)
(0.143693 -8.58312e-05 0)
(0.143847 -6.82521e-05 0)
(0.143966 -5.06616e-05 0)
(0.14405 -3.30756e-05 0)
(0.144098 -1.55097e-05 0)
(0.144112 2.02032e-06 0)
(0.14409 1.94989e-05 0)
(0.144034 3.69108e-05 0)
(0.143942 5.42409e-05 0)
(0.143817 7.14744e-05 0)
(0.143656 8.85967e-05 0)
(0.143462 0.000105594 0)
(0.143234 0.000122452 0)
(0.142972 0.000139157 0)
(0.142677 0.000155697 0)
(0.142349 0.000172059 0)
(0.141989 0.000188231 0)
(0.141596 0.000204201 0)
(0.141172 0.000219959 0)
(0.140716 0.000235493 0)
(0.14023 0.000250795 0)
(0.139713 0.000265854 0)
(0.139166 0.000280662 0)
(0.13859 0.000295211 0)
(0.137985 0.000309493 0)
(0.137351 0.000323501 0)
(0.13669 0.000337229 0)
(0.136002 0.00035067 0)
(0.135287 0.00036382 0)
(0.134547 0.000376674 0)
(0.13378 0.000389227 0)
(0.132989 0.000401478 0)
(0.132174 0.000413421 0)
(0.131335 0.000425056 0)
(0.130474 0.000436379 0)
(0.12959 0.000447391 0)
(0.128684 0.00045809 0)
(0.127757 0.000468476 0)
(0.12681 0.000478548 0)
(0.125842 0.000488308 0)
(0.124856 0.000497757 0)
(0.123851 0.000506896 0)
(0.122828 0.000515728 0)
(0.121788 0.000524253 0)
(0.120731 0.000532476 0)
(0.119658 0.000540399 0)
(0.118569 0.000548025 0)
(0.117465 0.000555358 0)
(0.116347 0.000562403 0)
(0.115215 0.000569162 0)
(0.11407 0.000575642 0)
(0.112913 0.000581845 0)
(0.111743 0.000587778 0)
(0.110561 0.000593446 0)
(0.109369 0.000598853 0)
(0.108166 0.000604004 0)
(0.106952 0.000608907 0)
(0.10573 0.000613565 0)
(0.104498 0.000617986 0)
(0.103257 0.000622175 0)
(0.102009 0.000626137 0)
(0.100753 0.000629879 0)
(0.0994892 0.000633407 0)
(0.0982189 0.000636727 0)
(0.0969421 0.000639845 0)
(0.0956593 0.000642768 0)
(0.0943708 0.0006455 0)
(0.0930771 0.000648049 0)
(0.0917785 0.000650421 0)
(0.0904753 0.000652621 0)
(0.0891678 0.000654656 0)
(0.0878565 0.000656532 0)
(0.0865415 0.000658254 0)
(0.0852233 0.000659829 0)
(0.0839021 0.000661262 0)
(0.0825781 0.000662559 0)
(0.0812517 0.000663726 0)
(0.0799231 0.000664768 0)
(0.0785925 0.000665691 0)
(0.0772602 0.000666499 0)
(0.0759264 0.0006672 0)
(0.0745913 0.000667797 0)
(0.0732551 0.000668296 0)
(0.0719181 0.000668701 0)
(0.0705803 0.000669019 0)
(0.0692419 0.000669253 0)
(0.0679032 0.000669408 0)
(0.0665642 0.000669489 0)
(0.0652251 0.0006695 0)
(0.0638861 0.000669446 0)
(0.0625473 0.000669331 0)
(0.0612088 0.000669159 0)
(0.0598706 0.000668935 0)
(0.058533 0.000668661 0)
(0.0571959 0.000668342 0)
(0.0558596 0.000667982 0)
(0.054524 0.000667584 0)
(0.0531892 0.000667151 0)
(0.0518553 0.000666688 0)
(0.0505224 0.000666197 0)
(0.0491905 0.000665682 0)
(0.0478597 0.000665145 0)
(0.0465299 0.00066459 0)
(0.0452013 0.000664019 0)
(0.0438738 0.000663436 0)
(0.0425475 0.000662842 0)
(0.0412225 0.000662241 0)
(0.0398986 0.000661635 0)
(0.0385759 0.000661026 0)
(0.0372545 0.000660417 0)
(0.0359343 0.000659809 0)
(0.0346152 0.000659206 0)
(0.0332974 0.000658608 0)
(0.0319808 0.000658018 0)
(0.0306654 0.000657438 0)
(0.0293511 0.00065687 0)
(0.0280379 0.000656314 0)
(0.0267258 0.000655773 0)
(0.0254148 0.000655249 0)
(0.0241049 0.000654742 0)
(0.0227959 0.000654254 0)
(0.0214879 0.000653786 0)
(0.0201808 0.00065334 0)
(0.0188745 0.000652916 0)
(0.0175691 0.000652516 0)
(0.0162645 0.000652141 0)
(0.0149606 0.000651791 0)
(0.0136574 0.000651467 0)
(0.0123547 0.000651171 0)
(0.0110527 0.000650902 0)
(0.00975117 0.000650661 0)
(0.00845009 0.00065045 0)
(0.00714941 0.000650267 0)
(0.00584905 0.000650115 0)
(0.00454898 0.000649992 0)
(0.00324912 0.0006499 0)
(0.00194941 0.000649839 0)
(0.000649793 0.000649808 0)
(0.000713947 -0.00214199 0)
(0.00214188 -0.00214211 0)
(0.00356994 -0.00214237 0)
(0.00499822 -0.00214274 0)
(0.00642678 -0.00214325 0)
(0.00785573 -0.00214387 0)
(0.00928513 -0.00214462 0)
(0.0107151 -0.00214548 0)
(0.0121456 -0.00214647 0)
(0.0135769 -0.00214756 0)
(0.0150089 -0.00214877 0)
(0.0164418 -0.00215008 0)
(0.0178756 -0.00215149 0)
(0.0193103 -0.002153 0)
(0.0207461 -0.00215461 0)
(0.022183 -0.0021563 0)
(0.0236211 -0.00215808 0)
(0.0250604 -0.00215993 0)
(0.0265009 -0.00216185 0)
(0.0279428 -0.00216383 0)
(0.029386 -0.00216586 0)
(0.0308305 -0.00216795 0)
(0.0322765 -0.00217007 0)
(0.0337239 -0.00217222 0)
(0.0351728 -0.0021744 0)
(0.0366231 -0.00217658 0)
(0.0380749 -0.00217877 0)
(0.0395281 -0.00218095 0)
(0.0409828 -0.0021831 0)
(0.042439 -0.00218523 0)
(0.0438965 -0.00218731 0)
(0.0453555 -0.00218933 0)
(0.0468157 -0.00219129 0)
(0.0482773 -0.00219316 0)
(0.0497401 -0.00219493 0)
(0.051204 -0.0021966 0)
(0.052669 -0.00219813 0)
(0.054135 -0.00219952 0)
(0.0556019 -0.00220076 0)
(0.0570696 -0.00220182 0)
(0.0585379 -0.00220269 0)
(0.0600068 -0.00220335 0)
(0.061476 -0.00220378 0)
(0.0629454 -0.00220396 0)
(0.0644149 -0.00220388 0)
(0.0658843 -0.00220352 0)
(0.0673533 -0.00220285 0)
(0.0688218 -0.00220185 0)
(0.0702895 -0.00220051 0)
(0.0717563 -0.0021988 0)
(0.0732217 -0.00219671 0)
(0.0746857 -0.0021942 0)
(0.0761479 -0.00219126 0)
(0.077608 -0.00218787 0)
(0.0790656 -0.002184 0)
(0.0805206 -0.00217962 0)
(0.0819724 -0.00217473 0)
(0.0834209 -0.00216928 0)
(0.0848655 -0.00216327 0)
(0.0863059 -0.00215666 0)
(0.0877418 -0.00214943 0)
(0.0891726 -0.00214156 0)
(0.090598 -0.00213303 0)
(0.0920175 -0.00212381 0)
(0.0934306 -0.00211388 0)
(0.0948369 -0.00210321 0)
(0.0962358 -0.00209179 0)
(0.0976269 -0.00207959 0)
(0.0990096 -0.00206659 0)
(0.100383 -0.00205277 0)
(0.101748 -0.0020381 0)
(0.103102 -0.00202257 0)
(0.104446 -0.00200617 0)
(0.105778 -0.00198886 0)
(0.107098 -0.00197064 0)
(0.108407 -0.00195148 0)
(0.109702 -0.00193138 0)
(0.110983 -0.00191031 0)
(0.11225 -0.00188826 0)
(0.113502 -0.00186523 0)
(0.114738 -0.0018412 0)
(0.115958 -0.00181616 0)
(0.117161 -0.0017901 0)
(0.118346 -0.00176303 0)
(0.119513 -0.00173492 0)
(0.12066 -0.00170579 0)
(0.121788 -0.00167563 0)
(0.122896 -0.00164443 0)
(0.123982 -0.00161221 0)
(0.125047 -0.00157897 0)
(0.126089 -0.0015447 0)
(0.127108 -0.00150943 0)
(0.128103 -0.00147316 0)
(0.129073 -0.0014359 0)
(0.130018 -0.00139767 0)
(0.130938 -0.00135849 0)
(0.131831 -0.00131836 0)
(0.132697 -0.00127731 0)
(0.133535 -0.00123537 0)
(0.134345 -0.00119255 0)
(0.135126 -0.00114889 0)
(0.135878 -0.00110441 0)
(0.1366 -0.00105914 0)
(0.137291 -0.0010131 0)
(0.137951 -0.000966347 0)
(0.13858 -0.000918899 0)
(0.139177 -0.000870797 0)
(0.139742 -0.000822078 0)
(0.140274 -0.000772782 0)
(0.140773 -0.000722949 0)
(0.141239 -0.000672621 0)
(0.14167 -0.000621841 0)
(0.142068 -0.000570653 0)
(0.142432 -0.000519102 0)
(0.142761 -0.000467234 0)
(0.143055 -0.000415094 0)
(0.143314 -0.00036273 0)
(0.143539 -0.000310188 0)
(0.143728 -0.000257517 0)
(0.143882 -0.000204764 0)
(0.144001 -0.000151977 0)
(0.144085 -9.92029e-05 0)
(0.144133 -4.64897e-05 0)
(0.144147 6.11578e-06 0)
(0.144125 5.85669e-05 0)
(0.144068 0.000110818 0)
(0.143977 0.000162823 0)
(0.143851 0.000214537 0)
(0.143691 0.000265918 0)
(0.143496 0.000316923 0)
(0.143268 0.00036751 0)
(0.143005 0.000417639 0)
(0.14271 0.000467272 0)
(0.142382 0.000516369 0)
(0.142021 0.000564896 0)
(0.141628 0.000612818 0)
(0.141203 0.000660101 0)
(0.140747 0.000706715 0)
(0.14026 0.000752629 0)
(0.139742 0.000797816 0)
(0.139195 0.000842248 0)
(0.138618 0.000885902 0)
(0.138013 0.000928755 0)
(0.137379 0.000970785 0)
(0.136718 0.00101197 0)
(0.136029 0.0010523 0)
(0.135313 0.00109176 0)
(0.134572 0.00113032 0)
(0.133805 0.00116799 0)
(0.133014 0.00120474 0)
(0.132198 0.00124057 0)
(0.131358 0.00127548 0)
(0.130496 0.00130945 0)
(0.129611 0.00134249 0)
(0.128705 0.00137458 0)
(0.127777 0.00140574 0)
(0.126829 0.00143596 0)
(0.125862 0.00146524 0)
(0.124875 0.00149358 0)
(0.123869 0.001521 0)
(0.122845 0.00154749 0)
(0.121805 0.00157306 0)
(0.120747 0.00159773 0)
(0.119673 0.00162149 0)
(0.118584 0.00164437 0)
(0.11748 0.00166636 0)
(0.116361 0.00168749 0)
(0.115229 0.00170777 0)
(0.114083 0.0017272 0)
(0.112925 0.00174581 0)
(0.111754 0.0017636 0)
(0.110572 0.0017806 0)
(0.109379 0.00179681 0)
(0.108176 0.00181226 0)
(0.106962 0.00182696 0)
(0.105739 0.00184093 0)
(0.104506 0.00185419 0)
(0.103266 0.00186675 0)
(0.102017 0.00187863 0)
(0.10076 0.00188985 0)
(0.099496 0.00190043 0)
(0.0982252 0.00191038 0)
(0.0969481 0.00191973 0)
(0.0956649 0.00192849 0)
(0.0943761 0.00193668 0)
(0.093082 0.00194432 0)
(0.091783 0.00195143 0)
(0.0904794 0.00195803 0)
(0.0891717 0.00196413 0)
(0.08786 0.00196975 0)
(0.0865448 0.00197491 0)
(0.0852263 0.00197963 0)
(0.0839048 0.00198392 0)
(0.0825805 0.00198781 0)
(0.0812539 0.0019913 0)
(0.079925 0.00199442 0)
(0.0785942 0.00199718 0)
(0.0772617 0.00199961 0)
(0.0759277 0.0020017 0)
(0.0745924 0.00200349 0)
(0.073256 0.00200498 0)
(0.0719187 0.00200619 0)
(0.0705808 0.00200714 0)
(0.0692422 0.00200784 0)
(0.0679034 0.0020083 0)
(0.0665642 0.00200853 0)
(0.0652251 0.00200856 0)
(0.0638859 0.0020084 0)
(0.062547 0.00200805 0)
(0.0612083 0.00200753 0)
(0.0598701 0.00200685 0)
(0.0585323 0.00200603 0)
(0.0571952 0.00200507 0)
(0.0558588 0.00200398 0)
(0.0545231 0.00200278 0)
(0.0531883 0.00200148 0)
(0.0518543 0.00200009 0)
(0.0505214 0.00199861 0)
(0.0491894 0.00199706 0)
(0.0478585 0.00199545 0)
(0.0465288 0.00199378 0)
(0.0452001 0.00199207 0)
(0.0438726 0.00199032 0)
(0.0425463 0.00198853 0)
(0.0412212 0.00198673 0)
(0.0398973 0.00198491 0)
(0.0385747 0.00198308 0)
(0.0372532 0.00198125 0)
(0.035933 0.00197942 0)
(0.034614 0.00197761 0)
(0.0332962 0.00197581 0)
(0.0319796 0.00197404 0)
(0.0306642 0.0019723 0)
(0.0293499 0.00197059 0)
(0.0280368 0.00196893 0)
(0.0267248 0.0019673 0)
(0.0254138 0.00196573 0)
(0.0241039 0.0019642 0)
(0.0227949 0.00196274 0)
(0.0214869 0.00196134 0)
(0.0201799 0.00196 0)
(0.0188737 0.00195872 0)
(0.0175683 0.00195752 0)
(0.0162638 0.0019564 0)
(0.0149599 0.00195534 0)
(0.0136567 0.00195437 0)
(0.0123542 0.00195348 0)
(0.0110522 0.00195267 0)
(0.00975071 0.00195195 0)
(0.00844969 0.00195132 0)
(0.00714907 0.00195077 0)
(0.00584878 0.00195031 0)
(0.00454876 0.00194994 0)
(0.00324896 0.00194967 0)
(0.00194932 0.00194949 0)
(0.000649762 0.00194939 0)
(0.000713862 -0.00356984 0)
(0.00214163 -0.00357005 0)
(0.00356952 -0.00357047 0)
(0.00499763 -0.0035711 0)
(0.00642603 -0.00357194 0)
(0.00785481 -0.00357299 0)
(0.00928405 -0.00357423 0)
(0.0107138 -0.00357568 0)
(0.0121442 -0.00357732 0)
(0.0135754 -0.00357915 0)
(0.0150072 -0.00358116 0)
(0.01644 -0.00358335 0)
(0.0178736 -0.00358571 0)
(0.0193082 -0.00358824 0)
(0.0207439 -0.00359092 0)
(0.0221807 -0.00359375 0)
(0.0236187 -0.00359671 0)
(0.0250579 -0.0035998 0)
(0.0264983 -0.00360301 0)
(0.0279401 -0.00360632 0)
(0.0293832 -0.00360972 0)
(0.0308277 -0.0036132 0)
(0.0322736 -0.00361675 0)
(0.033721 -0.00362035 0)
(0.0351699 -0.00362398 0)
(0.0366202 -0.00362764 0)
(0.038072 -0.00363129 0)
(0.0395252 -0.00363493 0)
(0.04098 -0.00363854 0)
(0.0424362 -0.0036421 0)
(0.0438938 -0.00364558 0)
(0.0453528 -0.00364897 0)
(0.0468132 -0.00365224 0)
(0.0482748 -0.00365537 0)
(0.0497377 -0.00365835 0)
(0.0512018 -0.00366113 0)
(0.052667 -0.00366371 0)
(0.0541332 -0.00366605 0)
(0.0556004 -0.00366813 0)
(0.0570683 -0.00366991 0)
(0.0585369 -0.00367138 0)
(0.060006 -0.0036725 0)
(0.0614755 -0.00367324 0)
(0.0629453 -0.00367356 0)
(0.0644152 -0.00367345 0)
(0.0658849 -0.00367287 0)
(0.0673544 -0.00367177 0)
(0.0688233 -0.00367014 0)
(0.0702915 -0.00366793 0)
(0.0717588 -0.0036651 0)
(0.0732248 -0.00366163 0)
(0.0746893 -0.00365748 0)
(0.0761521 -0.00365261 0)
(0.0776128 -0.00364698 0)
(0.0790711 -0.00364055 0)
(0.0805267 -0.00363329 0)
(0.0819793 -0.00362515 0)
(0.0834285 -0.0036161 0)
(0.0848739 -0.00360611 0)
(0.0863151 -0.00359512 0)
(0.0877518 -0.0035831 0)
(0.0891835 -0.00357001 0)
(0.0906098 -0.00355582 0)
(0.0920303 -0.00354047 0)
(0.0934443 -0.00352395 0)
(0.0948516 -0.00350619 0)
(0.0962516 -0.00348718 0)
(0.0976437 -0.00346687 0)
(0.0990275 -0.00344523 0)
(0.100402 -0.00342221 0)
(0.101768 -0.00339779 0)
(0.103123 -0.00337194 0)
(0.104468 -0.00334461 0)
(0.105802 -0.00331579 0)
(0.107123 -0.00328543 0)
(0.108433 -0.00325352 0)
(0.109729 -0.00322003 0)
(0.111012 -0.00318493 0)
(0.11228 -0.0031482 0)
(0.113533 -0.00310983 0)
(0.114771 -0.00306978 0)
(0.115992 -0.00302806 0)
(0.117196 -0.00298464 0)
(0.118383 -0.00293952 0)
(0.119551 -0.00289268 0)
(0.1207 -0.00284413 0)
(0.121829 -0.00279385 0)
(0.122938 -0.00274186 0)
(0.124026 -0.00268815 0)
(0.125092 -0.00263274 0)
(0.126135 -0.00257563 0)
(0.127155 -0.00251683 0)
(0.128152 -0.00245637 0)
(0.129123 -0.00239425 0)
(0.13007 -0.00233052 0)
(0.130991 -0.00226519 0)
(0.131885 -0.00219829 0)
(0.132752 -0.00212985 0)
(0.133591 -0.00205992 0)
(0.134403 -0.00198853 0)
(0.135185 -0.00191573 0)
(0.135938 -0.00184156 0)
(0.13666 -0.00176607 0)
(0.137353 -0.00168931 0)
(0.138014 -0.00161134 0)
(0.138644 -0.00153222 0)
(0.139242 -0.00145201 0)
(0.139807 -0.00137077 0)
(0.14034 -0.00128856 0)
(0.14084 -0.00120546 0)
(0.141306 -0.00112154 0)
(0.141738 -0.00103685 0)
(0.142137 -0.000951491 0)
(0.142501 -0.000865522 0)
(0.14283 -0.000779023 0)
(0.143125 -0.000692072 0)
(0.143384 -0.000604745 0)
(0.143609 -0.000517124 0)
(0.143799 -0.000429285 0)
(0.143953 -0.000341311 0)
(0.144072 -0.000253279 0)
(0.144155 -0.00016527 0)
(0.144204 -7.7362e-05 0)
(0.144217 1.03655e-05 0)
(0.144195 9.78351e-05 0)
(0.144138 0.00018497 0)
(0.144046 0.000271694 0)
(0.14392 0.000357934 0)
(0.143759 0.000443617 0)
(0.143564 0.000528671 0)
(0.143335 0.000613027 0)
(0.143072 0.000696619 0)
(0.142776 0.000779381 0)
(0.142447 0.00086125 0)
(0.142085 0.000942167 0)
(0.141691 0.00102207 0)
(0.141266 0.00110091 0)
(0.140809 0.00117864 0)
(0.140321 0.00125519 0)
(0.139802 0.00133053 0)
(0.139254 0.00140461 0)
(0.138676 0.0014774 0)
(0.13807 0.00154884 0)
(0.137435 0.00161891 0)
(0.136772 0.00168758 0)
(0.136082 0.00175481 0)
(0.135365 0.00182058 0)
(0.134623 0.00188487 0)
(0.133855 0.00194766 0)
(0.133062 0.00200892 0)
(0.132245 0.00206865 0)
(0.131404 0.00212684 0)
(0.130541 0.00218346 0)
(0.129655 0.00223852 0)
(0.128747 0.00229202 0)
(0.127818 0.00234395 0)
(0.126869 0.0023943 0)
(0.1259 0.0024431 0)
(0.124912 0.00249034 0)
(0.123905 0.00253602 0)
(0.12288 0.00258017 0)
(0.121838 0.00262278 0)
(0.120779 0.00266388 0)
(0.119704 0.00270348 0)
(0.118614 0.00274159 0)
(0.117508 0.00277824 0)
(0.116389 0.00281344 0)
(0.115255 0.00284721 0)
(0.114108 0.00287959 0)
(0.112949 0.00291058 0)
(0.111777 0.00294022 0)
(0.110594 0.00296853 0)
(0.1094 0.00299554 0)
(0.108196 0.00302127 0)
(0.106981 0.00304575 0)
(0.105757 0.00306902 0)
(0.104524 0.00309109 0)
(0.103282 0.003112 0)
(0.102032 0.00313178 0)
(0.100774 0.00315046 0)
(0.0995097 0.00316807 0)
(0.0982381 0.00318464 0)
(0.0969602 0.0032002 0)
(0.0956762 0.00321478 0)
(0.0943866 0.00322842 0)
(0.0930918 0.00324113 0)
(0.0917921 0.00325296 0)
(0.0904879 0.00326393 0)
(0.0891795 0.00327408 0)
(0.0878672 0.00328342 0)
(0.0865514 0.00329201 0)
(0.0852323 0.00329985 0)
(0.0839102 0.00330699 0)
(0.0825855 0.00331344 0)
(0.0812583 0.00331925 0)
(0.0799289 0.00332443 0)
(0.0785977 0.00332902 0)
(0.0772647 0.00333304 0)
(0.0759303 0.00333651 0)
(0.0745946 0.00333947 0)
(0.0732578 0.00334194 0)
(0.0719202 0.00334394 0)
(0.0705819 0.00334551 0)
(0.069243 0.00334665 0)
(0.0679038 0.00334741 0)
(0.0665644 0.00334779 0)
(0.065225 0.00334782 0)
(0.0638856 0.00334753 0)
(0.0625464 0.00334694 0)
(0.0612075 0.00334606 0)
(0.0598691 0.00334491 0)
(0.0585311 0.00334353 0)
(0.0571938 0.00334191 0)
(0.0558572 0.00334009 0)
(0.0545214 0.00333809 0)
(0.0531865 0.00333591 0)
(0.0518524 0.00333357 0)
(0.0505194 0.0033311 0)
(0.0491873 0.00332851 0)
(0.0478564 0.00332581 0)
(0.0465265 0.00332302 0)
(0.0451978 0.00332016 0)
(0.0438703 0.00331723 0)
(0.0425439 0.00331424 0)
(0.0412188 0.00331123 0)
(0.0398949 0.00330818 0)
(0.0385722 0.00330513 0)
(0.0372508 0.00330207 0)
(0.0359306 0.00329902 0)
(0.0346116 0.003296 0)
(0.0332938 0.003293 0)
(0.0319773 0.00329004 0)
(0.0306619 0.00328713 0)
(0.0293477 0.00328428 0)
(0.0280346 0.00328149 0)
(0.0267226 0.00327878 0)
(0.0254117 0.00327615 0)
(0.0241019 0.00327361 0)
(0.022793 0.00327116 0)
(0.0214851 0.00326882 0)
(0.0201781 0.00326658 0)
(0.018872 0.00326446 0)
(0.0175668 0.00326246 0)
(0.0162623 0.00326057 0)
(0.0149586 0.00325882 0)
(0.0136555 0.0032572 0)
(0.012353 0.00325571 0)
(0.0110512 0.00325436 0)
(0.00974981 0.00325316 0)
(0.0084489 0.0032521 0)
(0.0071484 0.00325118 0)
(0.00584823 0.00325042 0)
(0.00454833 0.00324981 0)
(0.00324865 0.00324935 0)
(0.00194913 0.00324904 0)
(0.0006497 0.00324889 0)
(0.000713734 -0.00499747 0)
(0.00214125 -0.00499777 0)
(0.00356889 -0.00499836 0)
(0.00499674 -0.00499925 0)
(0.00642489 -0.00500043 0)
(0.00785343 -0.0050019 0)
(0.00928243 -0.00500365 0)
(0.010712 -0.00500568 0)
(0.0121422 -0.00500798 0)
(0.013573 -0.00501055 0)
(0.0150047 -0.00501338 0)
(0.0164372 -0.00501645 0)
(0.0178707 -0.00501977 0)
(0.0193051 -0.00502332 0)
(0.0207406 -0.00502708 0)
(0.0221772 -0.00503105 0)
(0.023615 -0.00503522 0)
(0.0250541 -0.00503956 0)
(0.0264944 -0.00504406 0)
(0.027936 -0.00504872 0)
(0.029379 -0.0050535 0)
(0.0308235 -0.00505839 0)
(0.0322693 -0.00506338 0)
(0.0337167 -0.00506844 0)
(0.0351655 -0.00507355 0)
(0.0366158 -0.00507869 0)
(0.0380676 -0.00508383 0)
(0.0395209 -0.00508895 0)
(0.0409756 -0.00509403 0)
(0.0424319 -0.00509904 0)
(0.0438896 -0.00510394 0)
(0.0453488 -0.00510871 0)
(0.0468093 -0.00511333 0)
(0.0482711 -0.00511775 0)
(0.0497343 -0.00512194 0)
(0.0511986 -0.00512588 0)
(0.052664 -0.00512953 0)
(0.0541305 -0.00513284 0)
(0.055598 -0.00513579 0)
(0.0570663 -0.00513833 0)
(0.0585353 -0.00514042 0)
(0.0600048 -0.00514203 0)
(0.0614749 -0.0051431 0)
(0.0629451 -0.00514361 0)
(0.0644156 -0.0051435 0)
(0.0658859 -0.00514272 0)
(0.067356 -0.00514124 0)
(0.0688256 -0.005139 0)
(0.0702945 -0.00513595 0)
(0.0717625 -0.00513205 0)
(0.0732293 -0.00512724 0)
(0.0746947 -0.00512148 0)
(0.0761583 -0.00511471 0)
(0.0776199 -0.00510688 0)
(0.0790792 -0.00509794 0)
(0.0805359 -0.00508782 0)
(0.0819895 -0.00507649 0)
(0.0834398 -0.00506388 0)
(0.0848864 -0.00504994 0)
(0.0863289 -0.00503461 0)
(0.0877668 -0.00501783 0)
(0.0891999 -0.00499957 0)
(0.0906275 -0.00497975 0)
(0.0920493 -0.00495832 0)
(0.0934649 -0.00493524 0)
(0.0948736 -0.00491044 0)
(0.0962751 -0.00488387 0)
(0.0976688 -0.00485549 0)
(0.0990542 -0.00482523 0)
(0.100431 -0.00479306 0)
(0.101798 -0.00475892 0)
(0.103155 -0.00472277 0)
(0.104502 -0.00468456 0)
(0.105837 -0.00464424 0)
(0.107161 -0.00460179 0)
(0.108472 -0.00455715 0)
(0.10977 -0.00451029 0)
(0.111055 -0.00446118 0)
(0.112325 -0.00440979 0)
(0.11358 -0.00435609 0)
(0.11482 -0.00430005 0)
(0.116043 -0.00424166 0)
(0.117249 -0.00418088 0)
(0.118438 -0.00411772 0)
(0.119608 -0.00405216 0)
(0.120759 -0.00398418 0)
(0.121891 -0.0039138 0)
(0.123002 -0.003841 0)
(0.124091 -0.00376581 0)
(0.125159 -0.00368821 0)
(0.126205 -0.00360823 0)
(0.127227 -0.00352589 0)
(0.128225 -0.00344122 0)
(0.129199 -0.00335423 0)
(0.130147 -0.00326496 0)
(0.13107 -0.00317345 0)
(0.131966 -0.00307975 0)
(0.132835 -0.00298389 0)
(0.133676 -0.00288593 0)
(0.134489 -0.00278592 0)
(0.135273 -0.00268393 0)
(0.136027 -0.00258003 0)
(0.136752 -0.00247427 0)
(0.137446 -0.00236673 0)
(0.138108 -0.0022575 0)
(0.13874 -0.00214664 0)
(0.139339 -0.00203426 0)
(0.139906 -0.00192043 0)
(0.140439 -0.00180524 0)
(0.14094 -0.0016888 0)
(0.141407 -0.00157121 0)
(0.141841 -0.00145255 0)
(0.14224 -0.00133294 0)
(0.142604 -0.00121247 0)
(0.142934 -0.00109127 0)
(0.143229 -0.000969424 0)
(0.14349 -0.000847057 0)
(0.143714 -0.000724276 0)
(0.143904 -0.000601191 0)
(0.144058 -0.000477915 0)
(0.144177 -0.000354559 0)
(0.144261 -0.000231235 0)
(0.144309 -0.000108055 0)
(0.144322 1.48726e-05 0)
(0.1443 0.000137437 0)
(0.144242 0.000259532 0)
(0.14415 0.00038105 0)
(0.144023 0.000501888 0)
(0.143861 0.000621942 0)
(0.143666 0.000741115 0)
(0.143436 0.000859308 0)
(0.143172 0.000976427 0)
(0.142875 0.00109238 0)
(0.142545 0.00120708 0)
(0.142182 0.00132045 0)
(0.141787 0.00143239 0)
(0.14136 0.00154284 0)
(0.140901 0.00165173 0)
(0.140412 0.00175897 0)
(0.139892 0.00186451 0)
(0.139342 0.00196828 0)
(0.138763 0.00207023 0)
(0.138155 0.0021703 0)
(0.137518 0.00226844 0)
(0.136854 0.00236462 0)
(0.136162 0.00245878 0)
(0.135444 0.00255089 0)
(0.134699 0.00264093 0)
(0.133929 0.00272885 0)
(0.133135 0.00281464 0)
(0.132316 0.00289828 0)
(0.131473 0.00297975 0)
(0.130608 0.00305903 0)
(0.12972 0.00313612 0)
(0.12881 0.00321102 0)
(0.12788 0.00328372 0)
(0.126929 0.00335422 0)
(0.125958 0.00342252 0)
(0.124968 0.00348864 0)
(0.123959 0.00355259 0)
(0.122932 0.00361437 0)
(0.121888 0.00367402 0)
(0.120828 0.00373153 0)
(0.119751 0.00378695 0)
(0.118659 0.00384028 0)
(0.117551 0.00389156 0)
(0.11643 0.00394081 0)
(0.115295 0.00398806 0)
(0.114146 0.00403335 0)
(0.112985 0.00407671 0)
(0.111812 0.00411817 0)
(0.110628 0.00415777 0)
(0.109432 0.00419554 0)
(0.108226 0.00423152 0)
(0.10701 0.00426576 0)
(0.105784 0.00429829 0)
(0.104549 0.00432915 0)
(0.103306 0.00435839 0)
(0.102055 0.00438604 0)
(0.100796 0.00441215 0)
(0.0995302 0.00443676 0)
(0.0982574 0.00445991 0)
(0.0969782 0.00448165 0)
(0.0956931 0.00450202 0)
(0.0944024 0.00452107 0)
(0.0931065 0.00453883 0)
(0.0918058 0.00455534 0)
(0.0905006 0.00457066 0)
(0.0891912 0.00458482 0)
(0.087878 0.00459787 0)
(0.0865612 0.00460984 0)
(0.0852413 0.00462078 0)
(0.0839184 0.00463073 0)
(0.0825928 0.00463973 0)
(0.0812649 0.00464782 0)
(0.0799348 0.00465504 0)
(0.0786028 0.00466142 0)
(0.0772692 0.00466701 0)
(0.0759341 0.00467184 0)
(0.0745978 0.00467595 0)
(0.0732605 0.00467937 0)
(0.0719223 0.00468214 0)
(0.0705835 0.00468429 0)
(0.0692442 0.00468587 0)
(0.0679045 0.00468689 0)
(0.0665647 0.00468739 0)
(0.0652248 0.00468741 0)
(0.063885 0.00468697 0)
(0.0625455 0.00468611 0)
(0.0612063 0.00468485 0)
(0.0598675 0.00468322 0)
(0.0585293 0.00468125 0)
(0.0571918 0.00467897 0)
(0.0558549 0.0046764 0)
(0.0545189 0.00467356 0)
(0.0531838 0.00467049 0)
(0.0518495 0.0046672 0)
(0.0505163 0.00466372 0)
(0.0491841 0.00466007 0)
(0.0478531 0.00465627 0)
(0.0465231 0.00465234 0)
(0.0451943 0.00464831 0)
(0.0438667 0.00464419 0)
(0.0425403 0.00463999 0)
(0.0412152 0.00463575 0)
(0.0398912 0.00463148 0)
(0.0385686 0.00462718 0)
(0.0372471 0.00462289 0)
(0.0359269 0.0046186 0)
(0.034608 0.00461435 0)
(0.0332903 0.00461014 0)
(0.0319738 0.00460599 0)
(0.0306585 0.0046019 0)
(0.0293443 0.0045979 0)
(0.0280313 0.00459399 0)
(0.0267194 0.00459018 0)
(0.0254086 0.00458649 0)
(0.0240989 0.00458292 0)
(0.0227901 0.00457949 0)
(0.0214824 0.0045762 0)
(0.0201755 0.00457306 0)
(0.0188696 0.00457008 0)
(0.0175645 0.00456726 0)
(0.0162601 0.00456462 0)
(0.0149565 0.00456216 0)
(0.0136536 0.00455989 0)
(0.0123513 0.0045578 0)
(0.0110496 0.00455591 0)
(0.00974845 0.00455422 0)
(0.00844772 0.00455273 0)
(0.00714739 0.00455145 0)
(0.0058474 0.00455038 0)
(0.00454769 0.00454952 0)
(0.00324819 0.00454887 0)
(0.00194885 0.00454844 0)
(0.000649608 0.00454823 0)
(0.000713564 -0.00642482 0)
(0.00214073 -0.0064252 0)
(0.00356804 -0.00642596 0)
(0.00499555 -0.00642711 0)
(0.00642337 -0.00642863 0)
(0.00785158 -0.00643052 0)
(0.00928026 -0.00643278 0)
(0.0107095 -0.0064354 0)
(0.0121394 -0.00643837 0)
(0.0135699 -0.00644169 0)
(0.0150013 -0.00644534 0)
(0.0164335 -0.00644931 0)
(0.0178667 -0.0064536 0)
(0.0193009 -0.00645818 0)
(0.0207362 -0.00646304 0)
(0.0221725 -0.00646817 0)
(0.0236101 -0.00647354 0)
(0.025049 -0.00647915 0)
(0.0264891 -0.00648497 0)
(0.0279306 -0.00649099 0)
(0.0293735 -0.00649717 0)
(0.0308178 -0.00650349 0)
(0.0322635 -0.00650994 0)
(0.0337108 -0.00651648 0)
(0.0351596 -0.00652309 0)
(0.0366098 -0.00652974 0)
(0.0380616 -0.00653639 0)
(0.039515 -0.00654302 0)
(0.0409698 -0.00654959 0)
(0.0424262 -0.00655608 0)
(0.043884 -0.00656243 0)
(0.0453433 -0.00656862 0)
(0.0468041 -0.00657461 0)
(0.0482661 -0.00658035 0)
(0.0497295 -0.0065858 0)
(0.0511942 -0.00659092 0)
(0.05266 -0.00659567 0)
(0.0541269 -0.0066 0)
(0.0555948 -0.00660385 0)
(0.0570636 -0.00660719 0)
(0.0585331 -0.00660995 0)
(0.0600032 -0.00661209 0)
(0.0614739 -0.00661355 0)
(0.0629449 -0.00661427 0)
(0.064416 -0.0066142 0)
(0.0658871 -0.00661329 0)
(0.067358 -0.00661146 0)
(0.0688285 -0.00660866 0)
(0.0702984 -0.00660483 0)
(0.0717674 -0.0065999 0)
(0.0732353 -0.00659381 0)
(0.0747018 -0.00658649 0)
(0.0761666 -0.00657788 0)
(0.0776294 -0.0065679 0)
(0.0790901 -0.00655649 0)
(0.0805481 -0.00654358 0)
(0.0820031 -0.0065291 0)
(0.0834549 -0.00651298 0)
(0.0849031 -0.00649515 0)
(0.0863471 -0.00647554 0)
(0.0877868 -0.00645407 0)
(0.0892215 -0.00643067 0)
(0.090651 -0.00640529 0)
(0.0920747 -0.00637783 0)
(0.0934921 -0.00634824 0)
(0.0949029 -0.00631645 0)
(0.0963064 -0.00628238 0)
(0.0977023 -0.00624597 0)
(0.0990898 -0.00620716 0)
(0.100469 -0.00616588 0)
(0.101838 -0.00612206 0)
(0.103197 -0.00607566 0)
(0.104546 -0.0060266 0)
(0.105884 -0.00597484 0)
(0.10721 -0.00592032 0)
(0.108524 -0.00586299 0)
(0.109825 -0.00580281 0)
(0.111112 -0.00573972 0)
(0.112385 -0.00567369 0)
(0.113643 -0.00560469 0)
(0.114885 -0.00553268 0)
(0.116111 -0.00545763 0)
(0.11732 -0.00537952 0)
(0.118511 -0.00529833 0)
(0.119684 -0.00521404 0)
(0.120838 -0.00512665 0)
(0.121973 -0.00503616 0)
(0.123086 -0.00494256 0)
(0.124179 -0.00484585 0)
(0.125249 -0.00474606 0)
(0.126297 -0.0046432 0)
(0.127322 -0.0045373 0)
(0.128323 -0.00442838 0)
(0.1293 -0.00431648 0)
(0.130251 -0.00420165 0)
(0.131176 -0.00408392 0)
(0.132075 -0.00396336 0)
(0.132946 -0.00384003 0)
(0.13379 -0.00371398 0)
(0.134605 -0.0035853 0)
(0.135391 -0.00345406 0)
(0.136147 -0.00332035 0)
(0.136874 -0.00318424 0)
(0.13757 -0.00304585 0)
(0.138234 -0.00290527 0)
(0.138867 -0.00276259 0)
(0.139468 -0.00261795 0)
(0.140037 -0.00247144 0)
(0.140572 -0.00232318 0)
(0.141074 -0.00217331 0)
(0.141542 -0.00202194 0)
(0.141977 -0.0018692 0)
(0.142377 -0.00171523 0)
(0.142743 -0.00156017 0)
(0.143073 -0.00140414 0)
(0.143369 -0.0012473 0)
(0.14363 -0.00108978 0)
(0.143855 -0.000931732 0)
(0.144045 -0.000773289 0)
(0.1442 -0.000614599 0)
(0.144319 -0.000455808 0)
(0.144402 -0.000297059 0)
(0.14445 -0.000138495 0)
(0.144463 1.97417e-05 0)
(0.14444 0.00017751 0)
(0.144382 0.00033467 0)
(0.144289 0.000491086 0)
(0.144161 0.000646623 0)
(0.143998 0.00080115 0)
(0.143801 0.000954538 0)