/*--------------------------------*- C++ -*----------------------------------*\
| =========                 |                                                 |
| \\      /  F ield         | OpenFOAM: The Open Source CFD Toolbox           |
|  \\    /   O peration     | Version:  v2012                                 |
|   \\  /    A nd           | Website:  www.openfoam.com                      |
|    \\/     M anipulation  |                                                 |
\*---------------------------------------------------------------------------*/
FoamFile
{
    version     2.0;
    format      ascii;
    class       volScalarField;
    location    "13.5";
    object      W;
}
// * * * * * * * * * * * * * * * * * * * * * * * * * * * * * * * * * * * * * //

dimensions      [0 0 -1 0 0 0 0];


internalField   nonuniform List<scalar> 
65536
(
1.12117e-15
1.12961e-15
1.16269e-15
1.22071e-15
1.30444e-15
1.41511e-15
1.55446e-15
1.72468e-15
1.92852e-15
2.16926e-15
2.45078e-15
2.77762e-15
3.15499e-15
3.58889e-15
4.08615e-15
4.65454e-15
5.30282e-15
6.04091e-15
6.87993e-15
7.83241e-15
8.91235e-15
1.01354e-14
1.15192e-14
1.30831e-14
1.4849e-14
1.68409e-14
1.90858e-14
2.16134e-14
2.44567e-14
2.76521e-14
3.12399e-14
3.52645e-14
3.97748e-14
4.48246e-14
5.04729e-14
5.67847e-14
6.38309e-14
7.1689e-14
8.04441e-14
9.01883e-14
1.01023e-13
1.13056e-13
1.26408e-13
1.41206e-13
1.5759e-13
1.7571e-13
1.95728e-13
2.17818e-13
2.42168e-13
2.68977e-13
2.98461e-13
3.30849e-13
3.66385e-13
4.05328e-13
4.47954e-13
4.94554e-13
5.45438e-13
6.00928e-13
6.61367e-13
7.27113e-13
7.9854e-13
8.76038e-13
9.60013e-13
1.05089e-12
1.1491e-12
1.25509e-12
1.36932e-12
1.49227e-12
1.62442e-12
1.76625e-12
1.91827e-12
2.08096e-12
2.25483e-12
2.44038e-12
2.63809e-12
2.84846e-12
3.07196e-12
3.30906e-12
3.56019e-12
3.82579e-12
4.10624e-12
4.40193e-12
4.71319e-12
5.04033e-12
5.3836e-12
5.74323e-12
6.11938e-12
6.51217e-12
6.92168e-12
7.3479e-12
7.79077e-12
8.25019e-12
8.72596e-12
9.21782e-12
9.72545e-12
1.02485e-11
1.07864e-11
1.13386e-11
1.19046e-11
1.24836e-11
1.30748e-11
1.36775e-11
1.42906e-11
1.49133e-11
1.55444e-11
1.61828e-11
1.68274e-11
1.74768e-11
1.81299e-11
1.87852e-11
1.94413e-11
2.00969e-11
2.07503e-11
2.14e-11
2.20446e-11
2.26824e-11
2.33117e-11
2.39309e-11
2.45384e-11
2.51325e-11
2.57115e-11
2.62736e-11
2.68172e-11
2.73405e-11
2.78419e-11
2.83195e-11
2.87718e-11
2.91969e-11
2.95933e-11
2.99592e-11
3.02929e-11
3.05929e-11
3.08575e-11
3.10852e-11
3.12745e-11
3.14238e-11
3.15317e-11
3.1597e-11
3.16182e-11
3.15942e-11
3.15239e-11
3.14064e-11
3.12407e-11
3.10262e-11
3.07623e-11
3.04487e-11
3.00851e-11
2.96717e-11
2.92087e-11
2.86967e-11
2.81365e-11
2.75292e-11
2.68762e-11
2.61792e-11
2.54404e-11
2.46621e-11
2.38471e-11
2.29984e-11
2.21194e-11
2.12139e-11
2.02859e-11
1.93396e-11
1.83796e-11
1.74106e-11
1.64374e-11
1.5465e-11
1.44984e-11
1.35426e-11
1.26025e-11
1.16831e-11
1.07887e-11
9.92394e-12
9.0927e-12
8.29872e-12
7.54527e-12
6.8352e-12
6.17085e-12
5.55411e-12
4.98631e-12
4.46831e-12
4.00042e-12
3.58247e-12
3.21381e-12
2.89331e-12
2.61941e-12
2.39017e-12
2.20326e-12
2.05602e-12
1.94548e-12
1.86842e-12
1.82138e-12
1.80073e-12
1.80267e-12
1.82332e-12
1.85872e-12
1.90492e-12
1.95803e-12
2.01425e-12
2.06998e-12
2.12183e-12
2.16674e-12
2.20201e-12
2.22533e-12
2.23492e-12
2.22943e-12
2.2081e-12
2.17067e-12
2.11739e-12
2.04903e-12
1.96677e-12
1.87219e-12
1.76718e-12
1.65385e-12
1.53444e-12
1.41124e-12
1.2865e-12
1.16239e-12
1.04085e-12
9.23611e-13
8.12141e-13
7.07599e-13
6.10845e-13
5.22445e-13
4.42682e-13
3.7159e-13
3.08984e-13
2.545e-13
2.07635e-13
1.67785e-13
1.34285e-13
1.06441e-13
8.35554e-14
6.49547e-14
5.00035e-14
3.81176e-14
2.87721e-14
2.15041e-14
1.59132e-14
1.16591e-14
8.45727e-15
6.07344e-15
4.31782e-15
3.0388e-15
2.11706e-15
1.45997e-15
9.96596e-16
6.73367e-16
4.50346e-16
2.98158e-16
1.95477e-16
1.2703e-16
8.20393e-17
5.30256e-17
3.49179e-17
2.44082e-17
1.9506e-17
1.69897e-15
1.71176e-15
1.76194e-15
1.84996e-15
1.97697e-15
2.14487e-15
2.35628e-15
2.61456e-15
2.92388e-15
3.28923e-15
3.71652e-15
4.21265e-15
4.78558e-15
5.44442e-15
6.19958e-15
7.06288e-15
8.04768e-15
9.16907e-15
1.0444e-14
1.18916e-14
1.35331e-14
1.53924e-14
1.74963e-14
1.98745e-14
2.256e-14
2.55897e-14
2.90045e-14
3.28497e-14
3.71755e-14
4.20373e-14
4.74964e-14
5.36204e-14
6.04836e-14
6.81678e-14
7.67627e-14
8.63667e-14
9.70875e-14
1.09043e-13
1.22361e-13
1.37182e-13
1.53658e-13
1.71954e-13
1.92249e-13
2.14737e-13
2.39628e-13
2.67147e-13
2.97536e-13
3.31057e-13
3.67989e-13
4.08631e-13
4.53302e-13
5.02342e-13
5.56112e-13
6.14995e-13
6.79397e-13
7.49744e-13
8.26486e-13
9.10096e-13
1.00107e-12
1.09991e-12
1.20718e-12
1.32341e-12
1.44919e-12
1.58511e-12
1.73177e-12
1.88981e-12
2.05985e-12
2.24254e-12
2.43853e-12
2.64847e-12
2.87301e-12
3.1128e-12
3.36849e-12
3.64069e-12
3.93001e-12
4.23704e-12
4.56234e-12
4.90644e-12
5.26981e-12
5.65291e-12
6.05613e-12
6.47981e-12
6.92421e-12
7.38956e-12
7.876e-12
8.38358e-12
8.91229e-12
9.46203e-12
1.00326e-11
1.06237e-11
1.1235e-11
1.1866e-11
1.2516e-11
1.31845e-11
1.38707e-11
1.45736e-11
1.52922e-11
1.60255e-11
1.67723e-11
1.75314e-11
1.83013e-11
1.90806e-11
1.98678e-11
2.06612e-11
2.14593e-11
2.22602e-11
2.30622e-11
2.38634e-11
2.4662e-11
2.5456e-11
2.62435e-11
2.70225e-11
2.7791e-11
2.85471e-11
2.92888e-11
3.00141e-11
3.0721e-11
3.14076e-11
3.2072e-11
3.27122e-11
3.33264e-11
3.39127e-11
3.44694e-11
3.49947e-11
3.54869e-11
3.59442e-11
3.63652e-11
3.67481e-11
3.70915e-11
3.73939e-11
3.76538e-11
3.787e-11
3.8041e-11
3.81656e-11
3.82428e-11
3.82713e-11
3.82501e-11
3.81784e-11
3.80552e-11
3.78798e-11
3.76517e-11
3.73703e-11
3.70353e-11
3.66465e-11
3.62039e-11
3.57076e-11
3.51581e-11
3.4556e-11
3.39021e-11
3.31976e-11
3.24438e-11
3.16424e-11
3.07954e-11
2.99051e-11
2.89742e-11
2.80056e-11
2.70027e-11
2.59689e-11
2.49083e-11
2.38251e-11
2.27236e-11
2.16088e-11
2.04855e-11
1.93588e-11
1.82339e-11
1.71162e-11
1.60108e-11
1.4923e-11
1.3858e-11
1.28207e-11
1.18158e-11
1.08476e-11
9.92025e-12
9.03733e-12
8.20203e-12
7.41705e-12
6.68455e-12
6.00618e-12
5.38305e-12
4.81569e-12
4.30414e-12
3.84788e-12
3.44592e-12
3.09679e-12
2.79856e-12
2.54892e-12
2.34518e-12
2.18432e-12
2.06303e-12
1.97772e-12
1.92462e-12
1.89976e-12
1.89904e-12
1.91828e-12
1.95326e-12
1.99976e-12
2.05366e-12
2.11093e-12
2.16777e-12
2.22063e-12
2.26629e-12
2.30192e-12
2.32513e-12
2.33404e-12
2.32728e-12
2.30404e-12
2.26407e-12
2.20767e-12
2.13561e-12
2.04916e-12
1.94998e-12
1.84002e-12
1.72148e-12
1.59672e-12
1.4681e-12
1.33798e-12
1.20858e-12
1.08194e-12
9.59846e-13
8.43807e-13
7.35025e-13
6.34386e-13
5.42467e-13
4.59557e-13
3.85682e-13
3.20644e-13
2.64058e-13
2.15396e-13
1.74029e-13
1.39261e-13
1.10368e-13
8.66263e-14
6.73329e-14
5.18275e-14
3.95032e-14
2.98144e-14
2.22805e-14
1.6486e-14
1.20775e-14
8.7599e-15
6.29017e-15
4.47149e-15
3.14668e-15
2.19204e-15
1.51155e-15
1.03173e-15
6.97055e-16
4.66157e-16
3.08606e-16
2.02313e-16
1.31465e-16
8.48985e-17
5.48703e-17
3.61305e-17
2.52545e-17
2.01821e-17
3.09493e-15
3.11828e-15
3.20984e-15
3.3704e-15
3.60212e-15
3.90844e-15
4.29416e-15
4.76543e-15
5.3299e-15
5.99671e-15
6.77669e-15
7.68246e-15
8.7286e-15
9.93182e-15
1.13112e-14
1.28884e-14
1.46878e-14
1.67373e-14
1.90677e-14
2.17142e-14
2.47158e-14
2.81163e-14
3.19647e-14
3.63154e-14
4.12292e-14
4.67737e-14
5.30236e-14
6.00622e-14
6.79812e-14
7.68825e-14
8.68781e-14
9.80918e-14
1.1066e-13
1.24731e-13
1.4047e-13
1.58057e-13
1.77687e-13
1.99577e-13
2.23959e-13
2.5109e-13
2.81244e-13
3.14723e-13
3.51852e-13
3.92982e-13
4.38491e-13
4.88787e-13
5.44308e-13
6.05523e-13
6.72934e-13
7.47076e-13
8.2852e-13
9.1787e-13
1.01577e-12
1.12289e-12
1.23996e-12
1.36772e-12
1.50695e-12
1.65848e-12
1.82317e-12
2.00191e-12
2.19561e-12
2.40522e-12
2.63171e-12
2.87608e-12
3.13934e-12
3.42251e-12
3.72662e-12
4.05272e-12
4.40182e-12
4.77496e-12
5.17313e-12
5.59731e-12
6.04843e-12
6.5274e-12
7.03506e-12
7.57219e-12
8.1395e-12
8.73762e-12
9.36709e-12
1.00283e-11
1.07217e-11
1.14473e-11
1.22053e-11
1.29957e-11
1.38181e-11
1.46722e-11
1.55575e-11
1.64733e-11
1.74187e-11
1.83926e-11
1.9394e-11
2.04212e-11
2.14729e-11
2.25472e-11
2.36423e-11
2.4756e-11
2.58861e-11
2.70303e-11
2.8186e-11
2.93507e-11
3.05214e-11
3.16955e-11
3.28699e-11
3.40416e-11
3.52075e-11
3.63646e-11
3.75096e-11
3.86395e-11
3.9751e-11
4.08411e-11
4.19066e-11
4.29446e-11
4.39519e-11
4.49259e-11
4.58636e-11
4.67623e-11
4.76194e-11
4.84325e-11
4.91991e-11
4.99171e-11
5.05844e-11
5.11989e-11
5.17588e-11
5.22625e-11
5.27083e-11
5.30949e-11
5.34209e-11
5.36852e-11
5.38867e-11
5.40245e-11
5.40979e-11
5.41061e-11
5.40486e-11
5.39249e-11
5.37348e-11
5.34781e-11
5.31545e-11
5.27643e-11
5.23076e-11
5.17846e-11
5.11959e-11
5.0542e-11
4.98237e-11
4.90419e-11
4.81978e-11
4.72927e-11
4.63281e-11
4.53059e-11
4.42281e-11
4.3097e-11
4.19151e-11
4.06854e-11
3.9411e-11
3.80954e-11
3.67424e-11
3.53561e-11
3.3941e-11
3.25017e-11
3.10432e-11
2.95708e-11
2.80899e-11
2.66063e-11
2.51256e-11
2.36539e-11
2.21971e-11
2.07611e-11
1.93518e-11
1.79748e-11
1.66358e-11
1.53399e-11
1.40921e-11
1.28968e-11
1.1758e-11
1.06792e-11
9.66356e-12
8.71332e-12
7.83031e-12
7.01571e-12
6.27009e-12
5.5934e-12
4.98502e-12
4.44373e-12
3.96782e-12
3.55504e-12
3.2027e-12
2.90771e-12
2.66657e-12
2.47549e-12
2.33037e-12
2.22689e-12
2.16052e-12
2.12658e-12
2.12028e-12
2.13679e-12
2.17126e-12
2.2189e-12
2.27502e-12
2.33512e-12
2.39492e-12
2.45048e-12
2.49823e-12
2.53503e-12
2.55829e-12
2.56592e-12
2.55645e-12
2.52901e-12
2.48336e-12
2.41983e-12
2.33932e-12
2.24322e-12
2.13335e-12
2.01189e-12
1.88124e-12
1.74396e-12
1.60265e-12
1.45988e-12
1.31806e-12
1.17941e-12
1.04585e-12
9.1902e-13
8.00212e-13
6.90375e-13
5.90119e-13
4.99743e-13
4.1926e-13
3.48441e-13
2.86856e-13
2.33919e-13
1.88938e-13
1.51148e-13
1.19756e-13
9.39691e-14
7.30216e-14
5.61924e-14
4.282e-14
3.23104e-14
2.41406e-14
1.78586e-14
1.30805e-14
9.48558e-15
6.81002e-15
4.84019e-15
3.40558e-15
2.37202e-15
1.63541e-15
1.11611e-15
7.53962e-16
5.04147e-16
3.33714e-16
2.18748e-16
1.42128e-16
9.17742e-17
5.93076e-17
3.90481e-17
2.72911e-17
2.18081e-17
5.91054e-15
5.95528e-15
6.13047e-15
6.43762e-15
6.88087e-15
7.46685e-15
8.20476e-15
9.10644e-15
1.01865e-14
1.14626e-14
1.29555e-14
1.46894e-14
1.66924e-14
1.89965e-14
2.16384e-14
2.46597e-14
2.81075e-14
3.20349e-14
3.65018e-14
4.15753e-14
4.73306e-14
5.38521e-14
6.12337e-14
6.95804e-14
7.90089e-14
8.96491e-14
1.01645e-13
1.15156e-13
1.3036e-13
1.47451e-13
1.66646e-13
1.88181e-13
2.12319e-13
2.39346e-13
2.69577e-13
3.03358e-13
3.41065e-13
3.83109e-13
4.29939e-13
4.82042e-13
5.39947e-13
6.04227e-13
6.75503e-13
7.54443e-13
8.41769e-13
9.38253e-13
1.04473e-12
1.16208e-12
1.29126e-12
1.43327e-12
1.58919e-12
1.76016e-12
1.94738e-12
2.1521e-12
2.37567e-12
2.61947e-12
2.88495e-12
3.17362e-12
3.48706e-12
3.82688e-12
4.19474e-12
4.59235e-12
5.02144e-12
5.48378e-12
5.98114e-12
6.5153e-12
7.08805e-12
7.70114e-12
8.3563e-12
9.05522e-12
9.7995e-12
1.05907e-11
1.14302e-11
1.23195e-11
1.32596e-11
1.42517e-11
1.52965e-11
1.63949e-11
1.75473e-11
1.87539e-11
2.00148e-11
2.13297e-11
2.2698e-11
2.41191e-11
2.55917e-11
2.71144e-11
2.86856e-11
3.03031e-11
3.19645e-11
3.36671e-11
3.54079e-11
3.71834e-11
3.89901e-11
4.08239e-11
4.26807e-11
4.45557e-11
4.64444e-11
4.83418e-11
5.02425e-11
5.21414e-11
5.4033e-11
5.59116e-11
5.77717e-11
5.96075e-11
6.14135e-11
6.31839e-11
6.49132e-11
6.65959e-11
6.82267e-11
6.98004e-11
7.13121e-11
7.2757e-11
7.41306e-11
7.54285e-11
7.6647e-11
7.77823e-11
7.88309e-11
7.979e-11
8.06567e-11
8.14287e-11
8.21039e-11
8.26805e-11
8.31572e-11
8.35327e-11
8.38063e-11
8.39775e-11
8.40459e-11
8.40117e-11
8.3875e-11
8.36364e-11
8.32965e-11
8.28563e-11
8.2317e-11
8.16798e-11
8.09462e-11
8.01179e-11
7.91967e-11
7.81845e-11
7.70835e-11
7.58959e-11
7.46242e-11
7.3271e-11
7.1839e-11
7.03312e-11
6.87507e-11
6.71009e-11
6.53851e-11
6.36073e-11
6.17714e-11
5.98817e-11
5.79425e-11
5.59589e-11
5.39356e-11
5.18782e-11
4.97922e-11
4.76835e-11
4.55582e-11
4.34226e-11
4.12835e-11
3.91475e-11
3.70216e-11
3.49129e-11
3.28283e-11
3.0775e-11
2.876e-11
2.67902e-11
2.48721e-11
2.30121e-11
2.12162e-11
1.94901e-11
1.78387e-11
1.62665e-11
1.47775e-11
1.3375e-11
1.20613e-11
1.08384e-11
9.70735e-12
8.66846e-12
7.72136e-12
6.86498e-12
6.09756e-12
5.41673e-12
4.8195e-12
4.30237e-12
3.86136e-12
3.49205e-12
3.18964e-12
2.94905e-12
2.76491e-12
2.63163e-12
2.54348e-12
2.49462e-12
2.47913e-12
2.49109e-12
2.52466e-12
2.57408e-12
2.63378e-12
2.69843e-12
2.76303e-12
2.82298e-12
2.87412e-12
2.91287e-12
2.93621e-12
2.9418e-12
2.92797e-12
2.89377e-12
2.83893e-12
2.76388e-12
2.66968e-12
2.55795e-12
2.43079e-12
2.29068e-12
2.14039e-12
1.98283e-12
1.82096e-12
1.65767e-12
1.49571e-12
1.33757e-12
1.18542e-12
1.04109e-12
9.06013e-13
7.8125e-13
6.67465e-13
5.64973e-13
4.73766e-13
3.93566e-13
3.23866e-13
2.63991e-13
2.13142e-13
1.70446e-13
1.34997e-13
1.05891e-13
8.22582e-14
6.32797e-14
4.82057e-14
3.63634e-14
2.7161e-14
2.00875e-14
1.47092e-14
1.0664e-14
7.6542e-15
5.43894e-15
3.82602e-15
2.6643e-15
1.83656e-15
1.25315e-15
8.4638e-16
5.65846e-16
3.74493e-16
2.45439e-16
1.59446e-16
1.02942e-16
6.65148e-17
4.37869e-17
3.05989e-17
2.44491e-17
1.13155e-14
1.14016e-14
1.17377e-14
1.23269e-14
1.31771e-14
1.43011e-14
1.57166e-14
1.74464e-14
1.95187e-14
2.19674e-14
2.48325e-14
2.81608e-14
3.20062e-14
3.64305e-14
4.15045e-14
4.73082e-14
5.39325e-14
6.14798e-14
7.00655e-14
7.98191e-14
9.08858e-14
1.03428e-13
1.17627e-13
1.33686e-13
1.5183e-13
1.72309e-13
1.95401e-13
2.21414e-13
2.5069e-13
2.83606e-13
3.20577e-13
3.62062e-13
4.08564e-13
4.60638e-13
5.18889e-13
5.83983e-13
6.56644e-13
7.37665e-13
8.27908e-13
9.28309e-13
1.03988e-12
1.16373e-12
1.30105e-12
1.4531e-12
1.62128e-12
1.80706e-12
2.01203e-12
2.23787e-12
2.4864e-12
2.75952e-12
3.05928e-12
3.38781e-12
3.74739e-12
4.14038e-12
4.56929e-12
5.03671e-12
5.54535e-12
6.09801e-12
6.69758e-12
7.34703e-12
8.04941e-12
8.80781e-12
9.62536e-12
1.05052e-11
1.14505e-11
1.24645e-11
1.35501e-11
1.47104e-11
1.59483e-11
1.72667e-11
1.86681e-11
2.01549e-11
2.17295e-11
2.33936e-11
2.5149e-11
2.6997e-11
2.89384e-11
3.09738e-11
3.31032e-11
3.53263e-11
3.76421e-11
4.00492e-11
4.25456e-11
4.51287e-11
4.77952e-11
5.05415e-11
5.3363e-11
5.62548e-11
5.92112e-11
6.22259e-11
6.52922e-11
6.84026e-11
7.15491e-11
7.47235e-11
7.79167e-11
8.11195e-11
8.43223e-11
8.75151e-11
9.06878e-11
9.383e-11
9.69312e-11
9.9981e-11
1.02969e-10
1.05885e-10
1.08718e-10
1.11459e-10
1.14099e-10
1.16627e-10
1.19036e-10
1.21317e-10
1.23462e-10
1.25464e-10
1.27316e-10
1.29014e-10
1.30551e-10
1.31922e-10
1.33126e-10
1.34157e-10
1.35014e-10
1.35694e-10
1.36198e-10
1.36525e-10
1.36674e-10
1.36647e-10
1.36444e-10
1.36069e-10
1.35523e-10
1.34809e-10
1.33931e-10
1.32892e-10
1.31696e-10
1.30348e-10
1.28852e-10
1.27212e-10
1.25435e-10
1.23524e-10
1.21487e-10
1.19327e-10
1.1705e-10
1.14663e-10
1.12172e-10
1.09581e-10
1.06898e-10
1.04129e-10
1.01279e-10
9.83558e-11
9.53654e-11
9.23147e-11
8.92107e-11
8.60604e-11
8.28712e-11
7.96505e-11
7.6406e-11
7.31457e-11
6.98776e-11
6.661e-11
6.33512e-11
6.011e-11
5.68949e-11
5.37147e-11
5.05781e-11
4.74939e-11
4.44707e-11
4.1517e-11
3.86408e-11
3.58501e-11
3.31523e-11
3.05543e-11
2.80627e-11
2.5683e-11
2.34204e-11
2.1279e-11
1.92623e-11
1.73728e-11
1.56121e-11
1.3981e-11
1.24792e-11
1.11058e-11
9.85864e-12
8.73509e-12
7.73155e-12
6.84378e-12
6.06685e-12
5.3953e-12
4.82314e-12
4.34397e-12
3.95101e-12
3.63721e-12
3.3953e-12
3.21783e-12
3.09728e-12
3.02606e-12
2.99661e-12
3.00144e-12
3.03321e-12
3.08476e-12
3.14924e-12
3.22013e-12
3.29136e-12
3.35738e-12
3.41321e-12
3.45456e-12
3.47788e-12
3.48041e-12
3.46021e-12
3.4162e-12
3.3481e-12
3.25647e-12
3.14259e-12
3.00841e-12
2.85642e-12
2.68958e-12
2.51113e-12
2.3245e-12
2.13317e-12
1.94051e-12
1.74971e-12
1.56368e-12
1.38492e-12
1.21555e-12
1.05721e-12
9.111e-13
7.77972e-13
6.58158e-13
5.51624e-13
4.58015e-13
3.76721e-13
3.06933e-13
2.47703e-13
1.97999e-13
1.56755e-13
1.22909e-13
9.5442e-14
7.3395e-14
5.58918e-14
4.21472e-14
3.14709e-14
2.32678e-14
1.7033e-14
1.23452e-14
8.85847e-15
6.29304e-15
4.42574e-15
3.08119e-15
2.12346e-15
1.44859e-15
9.78183e-16
6.53835e-16
4.32645e-16
2.83501e-16
1.84141e-16
1.18866e-16
7.67912e-17
5.05437e-17
3.53152e-17
2.82145e-17
2.14634e-14
2.16275e-14
2.22667e-14
2.33868e-14
2.50029e-14
2.71395e-14
2.98304e-14
3.31192e-14
3.70597e-14
4.17166e-14
4.71663e-14
5.3498e-14
6.08148e-14
6.92349e-14
7.88932e-14
8.9943e-14
1.02558e-13
1.16934e-13
1.33291e-13
1.51877e-13
1.7297e-13
1.96881e-13
2.23956e-13
2.54584e-13
2.89195e-13
3.28268e-13
3.72337e-13
4.2199e-13
4.7788e-13
5.40729e-13
6.11333e-13
6.90568e-13
7.79399e-13
8.78884e-13
9.90183e-13
1.11457e-12
1.25342e-12
1.40826e-12
1.58073e-12
1.77261e-12
1.98585e-12
2.22253e-12
2.48493e-12
2.77548e-12
3.0968e-12
3.4517e-12
3.84317e-12
4.27443e-12
4.74888e-12
5.27014e-12
5.84204e-12
6.46862e-12
7.15411e-12
7.90298e-12
8.71986e-12
9.6096e-12
1.05772e-11
1.16278e-11
1.27668e-11
1.39996e-11
1.53318e-11
1.67688e-11
1.83165e-11
1.99803e-11
2.17659e-11
2.36787e-11
2.57242e-11
2.79074e-11
3.02332e-11
3.27062e-11
3.53307e-11
3.81103e-11
4.10483e-11
4.41474e-11
4.74095e-11
5.0836e-11
5.44273e-11
5.81831e-11
6.21021e-11
6.61822e-11
7.04199e-11
7.48111e-11
7.93503e-11
8.40309e-11
8.88452e-11
9.37843e-11
9.88381e-11
1.03996e-10
1.09244e-10
1.14571e-10
1.19961e-10
1.254e-10
1.3087e-10
1.36356e-10
1.41838e-10
1.47299e-10
1.52721e-10
1.58083e-10
1.63367e-10
1.68554e-10
1.73623e-10
1.78557e-10
1.83336e-10
1.87942e-10
1.92357e-10
1.96565e-10
2.0055e-10
2.04298e-10
2.07793e-10
2.11024e-10
2.1398e-10
2.1665e-10
2.19026e-10
2.211e-10
2.22868e-10
2.24324e-10
2.25465e-10
2.26291e-10
2.26801e-10
2.26996e-10
2.26879e-10
2.26453e-10
2.25724e-10
2.24696e-10
2.23377e-10
2.21775e-10
2.19897e-10
2.17753e-10
2.15353e-10
2.12707e-10
2.09825e-10
2.06718e-10
2.03398e-10
1.99876e-10
1.96164e-10
1.92272e-10
1.88214e-10
1.84001e-10
1.79644e-10
1.75155e-10
1.70545e-10
1.65827e-10
1.61011e-10
1.56109e-10
1.51131e-10
1.4609e-10
1.40996e-10
1.35861e-10
1.30695e-10
1.25509e-10
1.20315e-10
1.15124e-10
1.09946e-10
1.04793e-10
9.96764e-11
9.46069e-11
8.95959e-11
8.46544e-11
7.97935e-11
7.50241e-11
7.03569e-11
6.58025e-11
6.13708e-11
5.70717e-11
5.29144e-11
4.89075e-11
4.5059e-11
4.13761e-11
3.7865e-11
3.45311e-11
3.13789e-11
2.84117e-11
2.56316e-11
2.30398e-11
2.06361e-11
1.84192e-11
1.63869e-11
1.45357e-11
1.2861e-11
1.13575e-11
1.00187e-11
8.83763e-12
7.80636e-12
6.91649e-12
6.15908e-12
5.5248e-12
5.00401e-12
4.58682e-12
4.26321e-12
4.02309e-12
3.85638e-12
3.75304e-12
3.70319e-12
3.69712e-12
3.72543e-12
3.77904e-12
3.84928e-12
3.92802e-12
4.0077e-12
4.08146e-12
4.14321e-12
4.18772e-12
4.21067e-12
4.20876e-12
4.17967e-12
4.12213e-12
4.03589e-12
3.92164e-12
3.78098e-12
3.6163e-12
3.43065e-12
3.22758e-12
3.01102e-12
2.78508e-12
2.55392e-12
2.32158e-12
2.09186e-12
1.86818e-12
1.65353e-12
1.45039e-12
1.26069e-12
1.08582e-12
9.26636e-13
7.83496e-13
6.56326e-13
5.44671e-13
4.47776e-13
3.64651e-13
2.94148e-13
2.35021e-13
1.85986e-13
1.45769e-13
1.13149e-13
8.69788e-14
6.62121e-14
4.99121e-14
3.72565e-14
2.75365e-14
2.01516e-14
1.46012e-14
1.04744e-14
7.43899e-15
5.23031e-15
3.64044e-15
2.50828e-15
1.71074e-15
1.15495e-15
7.71833e-16
5.10627e-16
3.34539e-16
2.17252e-16
1.40215e-16
9.05688e-17
5.9602e-17
4.16377e-17
3.32621e-17
4.02206e-14
4.053e-14
4.17314e-14
4.38357e-14
4.68717e-14
5.08854e-14
5.59407e-14
6.21199e-14
6.95245e-14
7.82767e-14
8.85207e-14
1.00425e-13
1.14184e-13
1.30021e-13
1.48192e-13
1.68984e-13
1.92727e-13
2.19791e-13
2.50593e-13
2.856e-13
3.25339e-13
3.70397e-13
4.21431e-13
4.79174e-13
5.44441e-13
6.18141e-13
7.0128e-13
7.94976e-13
9.00463e-13
1.01911e-12
1.15242e-12
1.30205e-12
1.46983e-12
1.65776e-12
1.86805e-12
2.10308e-12
2.36548e-12
2.65812e-12
2.9841e-12
3.34679e-12
3.74987e-12
4.19727e-12
4.69327e-12
5.24246e-12
5.84976e-12
6.52046e-12
7.2602e-12
8.07499e-12
8.97121e-12
9.95564e-12
1.10354e-11
1.2218e-11
1.35114e-11
1.49239e-11
1.64639e-11
1.81405e-11
1.99628e-11
2.19404e-11
2.40829e-11
2.64003e-11
2.89024e-11
3.15994e-11
3.45014e-11
3.76182e-11
4.09598e-11
4.45355e-11
4.83545e-11
5.24256e-11
5.67567e-11
6.13554e-11
6.6228e-11
7.13803e-11
7.68166e-11
8.25403e-11
8.85533e-11
9.4856e-11
1.01447e-10
1.08324e-10
1.15482e-10
1.22914e-10
1.30612e-10
1.38565e-10
1.4676e-10
1.55183e-10
1.63815e-10
1.72638e-10
1.81631e-10
1.90769e-10
2.00027e-10
2.09378e-10
2.18793e-10
2.28242e-10
2.37691e-10
2.47108e-10
2.56459e-10
2.65708e-10
2.7482e-10
2.8376e-10
2.92491e-10
3.00979e-10
3.09189e-10
3.17088e-10
3.24642e-10
3.31821e-10
3.38595e-10
3.44937e-10
3.50822e-10
3.56226e-10
3.6113e-10
3.65514e-10
3.69365e-10
3.72669e-10
3.75418e-10
3.77604e-10
3.79223e-10
3.80275e-10
3.80762e-10
3.80686e-10
3.80056e-10
3.7888e-10
3.7717e-10
3.74939e-10
3.72202e-10
3.68977e-10
3.65281e-10
3.61134e-10
3.56557e-10
3.51572e-10
3.462e-10
3.40466e-10
3.34391e-10
3.27999e-10
3.21315e-10
3.1436e-10
3.07159e-10
2.99734e-10
2.92107e-10
2.84302e-10
2.76339e-10
2.6824e-10
2.60025e-10
2.51714e-10
2.43326e-10
2.34881e-10
2.26398e-10
2.17892e-10
2.09383e-10
2.00887e-10
1.9242e-10
1.83999e-10
1.7564e-10
1.67357e-10
1.59166e-10
1.51082e-10
1.43119e-10
1.35292e-10
1.27614e-10
1.201e-10
1.12762e-10
1.05614e-10
9.86671e-11
9.19337e-11
8.54248e-11
7.91507e-11
7.31211e-11
6.73446e-11
6.18286e-11
5.65798e-11
5.16031e-11
4.69027e-11
4.24811e-11
3.83394e-11
3.44773e-11
3.0893e-11
2.75834e-11
2.45438e-11
2.17683e-11
1.92494e-11
1.69787e-11
1.49467e-11
1.31426e-11
1.15551e-11
1.0172e-11
8.9805e-12
7.96745e-12
7.11926e-12
6.42218e-12
5.86233e-12
5.42584e-12
5.09891e-12
4.86789e-12
4.71938e-12
4.64031e-12
4.61796e-12
4.64009e-12
4.69503e-12
4.77169e-12
4.85973e-12
4.94964e-12
5.0328e-12
5.10164e-12
5.14966e-12
5.17157e-12
5.16332e-12
5.1221e-12
5.04642e-12
4.93601e-12
4.7918e-12
4.61578e-12
4.41093e-12
4.18099e-12
3.93033e-12
3.66376e-12
3.38629e-12
3.10297e-12
2.8187e-12
2.53805e-12
2.26516e-12
2.00362e-12
1.75638e-12
1.52575e-12
1.31336e-12
1.12019e-12
9.4664e-13
7.92576e-13
6.57412e-13
5.40198e-13
4.39711e-13
3.54535e-13
2.83146e-13
2.23976e-13
1.75474e-13
1.36154e-13
1.04624e-13
7.96157e-14
5.99953e-14
4.47683e-14
3.3078e-14
2.41996e-14
1.75292e-14
1.25713e-14
8.92584e-15
6.27411e-15
4.36589e-15
3.00743e-15
2.05072e-15
1.38419e-15
9.24842e-16
6.11737e-16
4.00709e-16
2.60179e-16
1.67892e-16
1.08428e-16
7.1343e-17
4.98322e-17
3.9804e-17
7.44112e-14
7.49875e-14
7.72177e-14
8.1122e-14
8.67544e-14
9.42007e-14
1.0358e-13
1.15046e-13
1.28787e-13
1.45033e-13
1.6405e-13
1.86155e-13
2.11709e-13
2.4113e-13
2.74893e-13
3.13538e-13
3.57678e-13
4.08005e-13
4.65297e-13
5.30429e-13
6.04384e-13
6.8826e-13
7.83285e-13
8.90831e-13
1.01242e-12
1.14976e-12
1.30472e-12
1.4794e-12
1.67611e-12
1.89741e-12
2.14612e-12
2.42534e-12
2.73848e-12
3.08931e-12
3.48192e-12
3.92081e-12
4.41089e-12
4.9575e-12
5.56646e-12
6.24408e-12
6.99719e-12
7.83317e-12
8.75998e-12
9.78618e-12
1.0921e-11
1.21742e-11
1.35562e-11
1.50784e-11
1.67524e-11
1.85909e-11
2.06071e-11
2.28147e-11
2.52285e-11
2.78636e-11
3.07357e-11
3.38611e-11
3.72567e-11
4.09397e-11
4.49276e-11
4.92383e-11
5.38896e-11
5.88996e-11
6.42858e-11
7.0066e-11
7.62569e-11
8.28751e-11
8.9936e-11
9.74541e-11
1.05442e-10
1.13913e-10
1.22875e-10
1.32337e-10
1.42304e-10
1.5278e-10
1.63765e-10
1.75257e-10
1.87249e-10
1.99733e-10
2.12697e-10
2.26123e-10
2.39991e-10
2.54278e-10
2.68956e-10
2.83992e-10
2.99349e-10
3.14989e-10
3.30867e-10
3.46935e-10
3.63143e-10
3.79436e-10
3.95757e-10
4.12047e-10
4.28244e-10
4.44285e-10
4.60106e-10
4.7564e-10
4.90823e-10
5.0559e-10
5.19877e-10
5.3362e-10
5.4676e-10
5.59239e-10
5.71e-10
5.81994e-10
5.92171e-10
6.0149e-10
6.0991e-10
6.174e-10
6.23929e-10
6.29475e-10
6.34021e-10
6.37555e-10
6.40069e-10
6.41564e-10
6.42042e-10
6.41515e-10
6.39996e-10
6.37504e-10
6.34062e-10
6.29699e-10
6.24445e-10
6.18334e-10
6.11405e-10
6.03695e-10
5.95248e-10
5.86106e-10
5.76315e-10
5.65918e-10
5.54963e-10
5.43496e-10
5.31562e-10
5.19208e-10
5.06478e-10
4.93415e-10
4.80064e-10
4.66466e-10
4.52661e-10
4.38687e-10
4.24584e-10
4.10385e-10
3.96127e-10
3.8184e-10
3.67557e-10
3.53306e-10
3.39117e-10
3.25015e-10
3.11026e-10
2.97175e-10
2.83484e-10
2.69975e-10
2.56669e-10
2.43587e-10
2.30747e-10
2.18167e-10
2.05866e-10
1.93859e-10
1.82163e-10
1.70793e-10
1.59763e-10
1.49087e-10
1.38778e-10
1.28846e-10
1.19303e-10
1.10158e-10
1.01419e-10
9.30932e-11
8.51855e-11
7.76997e-11
7.06381e-11
6.4001e-11
5.77871e-11
5.19931e-11
4.6614e-11
4.16431e-11
3.70717e-11
3.28896e-11
2.90849e-11
2.56441e-11
2.25525e-11
1.97941e-11
1.73521e-11
1.52085e-11
1.33447e-11
1.17418e-11
1.03805e-11
9.24104e-12
8.304e-12
7.54987e-12
6.95941e-12
6.5137e-12
6.19424e-12
5.98303e-12
5.86265e-12
5.81634e-12
5.82809e-12
5.88271e-12
5.96593e-12
6.06451e-12
6.16632e-12
6.26047e-12
6.33743e-12
6.38907e-12
6.40882e-12
6.39164e-12
6.33414e-12
6.23449e-12
6.09244e-12
5.90919e-12
5.68727e-12
5.43039e-12
5.14323e-12
4.83118e-12
4.50018e-12
4.15638e-12
3.80598e-12
3.45497e-12
3.10894e-12
2.77292e-12
2.45126e-12
2.14751e-12
1.86445e-12
1.60402e-12
1.36737e-12
1.15493e-12
9.6648e-13
8.0127e-13
6.581e-13
5.35439e-13
4.31532e-13
3.44494e-13
2.72394e-13
2.13324e-13
1.6546e-13
1.27098e-13
9.66843e-14
7.28334e-14
5.43306e-14
4.0131e-14
2.93509e-14
2.12546e-14
1.52389e-14
1.08171e-14
7.60166e-15
5.28843e-15
3.6421e-15
2.48296e-15
1.6756e-15
1.11934e-15
7.4025e-16
4.84805e-16
3.14729e-16
2.0306e-16
1.31119e-16
8.626e-17
6.02427e-17
4.81147e-17
1.35897e-13
1.36958e-13
1.41046e-13
1.482e-13
1.58518e-13
1.72159e-13
1.89343e-13
2.10352e-13
2.35535e-13
2.65311e-13
3.00176e-13
3.40709e-13
3.8758e-13
4.41555e-13
5.03511e-13
5.74447e-13
6.55491e-13
7.4792e-13
8.53171e-13
9.7286e-13
1.1088e-12
1.26302e-12
1.43779e-12
1.63565e-12
1.85941e-12
2.11222e-12
2.39755e-12
2.71928e-12
3.08167e-12
3.48947e-12
3.94789e-12
4.46268e-12
5.04015e-12
5.68724e-12
6.41157e-12
7.22143e-12
8.12592e-12
9.13491e-12
1.02592e-11
1.15103e-11
1.29011e-11
1.4445e-11
1.61568e-11
1.80523e-11
2.01484e-11
2.24632e-11
2.5016e-11
2.78274e-11
3.09192e-11
3.43142e-11
3.80368e-11
4.21124e-11
4.65674e-11
5.14296e-11
5.67276e-11
6.2491e-11
6.87501e-11
7.55361e-11
8.28804e-11
9.08148e-11
9.93712e-11
1.08581e-10
1.18476e-10
1.29086e-10
1.40441e-10
1.52568e-10
1.65494e-10
1.79242e-10
1.93833e-10
2.09286e-10
2.25614e-10
2.42828e-10
2.60934e-10
2.79932e-10
2.9982e-10
3.20585e-10
3.42213e-10
3.64679e-10
3.87955e-10
4.12004e-10
4.36781e-10
4.62237e-10
4.88311e-10
5.14937e-10
5.42044e-10
5.69549e-10
5.97366e-10
6.25401e-10
6.53556e-10
6.81726e-10
7.09801e-10
7.3767e-10
7.65215e-10
7.9232e-10
8.18865e-10
8.44731e-10
8.69801e-10
8.93958e-10
9.17089e-10
9.39085e-10
9.59842e-10
9.79262e-10
9.97256e-10
1.01374e-09
1.02863e-09
1.04188e-09
1.05342e-09
1.06321e-09
1.07121e-09
1.07739e-09
1.08175e-09
1.08428e-09
1.08499e-09
1.08389e-09
1.08101e-09
1.07638e-09
1.07006e-09
1.06208e-09
1.05252e-09
1.04144e-09
1.0289e-09
1.01499e-09
9.99792e-10
9.83381e-10
9.65847e-10
9.47277e-10
9.27761e-10
9.07388e-10
8.86246e-10
8.64423e-10
8.42004e-10
8.19074e-10
7.95714e-10
7.72002e-10
7.48014e-10
7.23823e-10
6.99496e-10
6.75098e-10
6.50692e-10
6.26334e-10
6.0208e-10
5.77978e-10
5.54077e-10
5.3042e-10
5.07047e-10
4.83997e-10
4.61304e-10
4.38999e-10
4.17114e-10
3.95674e-10
3.74706e-10
3.54232e-10
3.34274e-10
3.14853e-10
2.95986e-10
2.77689e-10
2.5998e-10
2.4287e-10
2.26374e-10
2.10503e-10
1.95265e-10
1.8067e-10
1.66724e-10
1.53432e-10
1.40797e-10
1.28822e-10
1.17505e-10
1.06845e-10
9.68358e-11
8.74717e-11
7.87437e-11
7.06405e-11
6.31489e-11
5.62534e-11
4.99364e-11
4.41786e-11
3.89587e-11
3.42537e-11
3.00394e-11
2.62903e-11
2.29799e-11
2.00808e-11
1.75654e-11
1.54056e-11
1.35733e-11
1.20404e-11
1.07792e-11
9.76253e-12
8.96372e-12
8.35682e-12
7.91672e-12
7.6192e-12
7.441e-12
7.35995e-12
7.35502e-12
7.40639e-12
7.49558e-12
7.60553e-12
7.72073e-12
7.82733e-12
7.91323e-12
7.96822e-12
7.98406e-12
7.95449e-12
7.87531e-12
7.74431e-12
7.56125e-12
7.32768e-12
7.04681e-12
6.72331e-12
6.363e-12
5.97262e-12
5.55951e-12
5.13129e-12
4.69561e-12
4.25984e-12
3.83083e-12
3.41474e-12
3.01687e-12
2.64155e-12
2.29213e-12
1.97091e-12
1.67927e-12
1.41767e-12
1.18579e-12
9.82635e-13
8.06698e-13
6.56058e-13
5.28524e-13
4.21754e-13
3.33355e-13
2.60969e-13
2.02342e-13
1.55374e-13
1.18155e-13
8.89795e-14
6.63546e-14
4.89982e-14
3.58261e-14
2.59366e-14
1.8591e-14
1.31933e-14
9.26932e-15
6.44717e-15
4.43917e-15
3.02574e-15
2.0415e-15
1.36351e-15
9.01573e-16
5.9036e-16
3.83194e-16
2.47195e-16
1.59594e-16
1.04977e-16
7.33045e-17
5.85413e-17
2.45e-13
2.46929e-13
2.5433e-13
2.67273e-13
2.85939e-13
3.10616e-13
3.41705e-13
3.79718e-13
4.25291e-13
4.79187e-13
5.42308e-13
6.15708e-13
7.00605e-13
7.98397e-13
9.10682e-13
1.03928e-12
1.18624e-12
1.3539e-12
1.54487e-12
1.76211e-12
2.00893e-12
2.28902e-12
2.60654e-12
2.96611e-12
3.37288e-12
3.83259e-12
4.35161e-12
4.937e-12
5.5966e-12
6.33904e-12
7.17387e-12
8.11161e-12
9.16382e-12
1.03432e-11
1.16636e-11
1.31404e-11
1.479e-11
1.66307e-11
1.86819e-11
2.09652e-11
2.35035e-11
2.63219e-11
2.9447e-11
3.29079e-11
3.67354e-11
4.09625e-11
4.56244e-11
5.07585e-11
5.64044e-11
6.26039e-11
6.94009e-11
7.68414e-11
8.49735e-11
9.38472e-11
1.03514e-10
1.14027e-10
1.25441e-10
1.37812e-10
1.51194e-10
1.65645e-10
1.81222e-10
1.97978e-10
2.1597e-10
2.35249e-10
2.55865e-10
2.77866e-10
3.01295e-10
3.2619e-10
3.52585e-10
3.80506e-10
4.09973e-10
4.40998e-10
4.73585e-10
5.07727e-10
5.43408e-10
5.80599e-10
6.19261e-10
6.59344e-10
7.00781e-10
7.43496e-10
7.87398e-10
8.32381e-10
8.78328e-10
9.25107e-10
9.72574e-10
1.02057e-09
1.06893e-09
1.11748e-09
1.16601e-09
1.21435e-09
1.26228e-09
1.30959e-09
1.35607e-09
1.40151e-09
1.44569e-09
1.48839e-09
1.52941e-09
1.56854e-09
1.60558e-09
1.64036e-09
1.67269e-09
1.70242e-09
1.72939e-09
1.75349e-09
1.77459e-09
1.7926e-09
1.80744e-09
1.81907e-09
1.82744e-09
1.83254e-09
1.83437e-09
1.83297e-09
1.82836e-09
1.82062e-09
1.80981e-09
1.79604e-09
1.77942e-09
1.76005e-09
1.73809e-09
1.71366e-09
1.68692e-09
1.65803e-09
1.62715e-09
1.59445e-09
1.56009e-09
1.52425e-09
1.48709e-09
1.44878e-09
1.40949e-09
1.36936e-09
1.32856e-09
1.28723e-09
1.24551e-09
1.20355e-09
1.16146e-09
1.11936e-09
1.07738e-09
1.0356e-09
9.94129e-10
9.53056e-10
9.12461e-10
8.72417e-10
8.32993e-10
7.94248e-10
7.56238e-10
7.19011e-10
6.8261e-10