/*--------------------------------*- C++ -*----------------------------------*\
| =========                 |                                                 |
| \\      /  F ield         | OpenFOAM: The Open Source CFD Toolbox           |
|  \\    /   O peration     | Version:  v2012                                 |
|   \\  /    A nd           | Website:  www.openfoam.com                      |
|    \\/     M anipulation  |                                                 |
\*---------------------------------------------------------------------------*/
FoamFile
{
    version     2.0;
    format      ascii;
    class       volVectorField;
    location    "0";
    object      uRec;
}
// * * * * * * * * * * * * * * * * * * * * * * * * * * * * * * * * * * * * * //

dimensions      [0 1 -1 0 0 0 0];


internalField   nonuniform List<vector> 
4000
(
(1 2.2832e-16 0)
(1 6.69259e-15 0)
(1 -4.26262e-15 0)
(1 -3.4133e-15 0)
(1 3.99961e-15 0)
(1 -1.50347e-15 0)
(1 7.15722e-15 0)
(1 -5.08808e-15 0)
(1 3.53338e-15 0)
(1 5.31079e-15 0)
(1 -8.82147e-15 0)
(1 -2.14365e-16 0)
(1 2.92514e-15 0)
(1 8.47308e-16 0)
(1 -1.41545e-15 0)
(1 -2.7857e-16 0)
(1 -5.05656e-15 0)
(1 -6.20258e-15 0)
(1 1.64156e-15 0)
(1 2.14297e-17 0)
(1 1.00536e-15 0)
(1 4.53212e-15 0)
(1 3.26766e-16 0)
(1 5.02914e-15 0)
(1 3.90512e-18 0)
(1 -3.11849e-15 0)
(1 3.00837e-15 0)
(1 -4.56541e-15 0)
(1 -1.11728e-15 0)
(1 9.71878e-16 0)
(1 2.42771e-15 0)
(1 6.18358e-15 0)
(1 -2.66818e-15 0)
(1 -1.00131e-15 0)
(1 1.84694e-15 0)
(1 -2.98096e-15 0)
(1 -2.19372e-15 0)
(1 1.56039e-15 0)
(1 6.5034e-15 0)
(1 -1.3948e-15 0)
(1 2.67573e-15 0)
(1 -5.78415e-15 0)
(1 -3.04572e-15 0)
(1 -4.72861e-16 0)
(1 4.53734e-15 0)
(1 -4.19574e-15 0)
(1 3.25351e-15 0)
(1 -7.87711e-17 0)
(1 -2.19798e-15 0)
(1 -3.62313e-16 0)
(1 -3.49233e-15 0)
(1 2.14175e-15 0)
(1 -1.23542e-15 0)
(1 5.20434e-15 0)
(1 2.91981e-15 0)
(1 -4.24491e-16 0)
(1 -7.59592e-16 0)
(1 -2.29728e-15 0)
(1 2.8846e-15 0)
(1 7.58998e-15 0)
(1 -1.02252e-16 0)
(1 -4.6323e-15 0)
(1 -2.71155e-15 0)
(1 6.90923e-16 0)
(1 3.13784e-16 0)
(1 6.13474e-16 0)
(1 1.3329e-15 0)
(1 -8.89854e-16 0)
(1 2.64016e-15 0)
(1 -1.91025e-15 0)
(1 -2.27385e-15 0)
(1 2.10441e-16 0)
(1 -3.64178e-16 0)
(1 -2.42227e-16 0)
(1 -2.34006e-15 0)
(1 -5.65281e-15 0)
(1 -1.58643e-15 0)
(1 -2.56205e-15 0)
(1 1.50061e-15 0)
(1 2.08292e-15 0)
(1 1.03407e-15 0)
(1 4.32011e-15 0)
(1 -2.91083e-15 0)
(1 5.58437e-16 0)
(1 -2.17219e-15 0)
(1 -2.4356e-15 0)
(1 -1.01571e-15 0)
(1 7.19159e-16 0)
(1 2.921e-15 0)
(1 1.56153e-15 0)
(1 2.45211e-16 0)
(1 -2.55179e-15 0)
(1 1.20819e-15 0)
(1 3.61471e-15 0)
(1 -2.83557e-15 0)
(1 -5.50386e-15 0)
(1 3.89652e-17 0)
(1 4.02535e-15 0)
(1 -8.15243e-16 0)
(1 -7.65042e-16 0)
(1 2.47757e-16 0)
(1 1.24079e-14 0)
(1 -4.98163e-15 0)
(1 -6.49929e-15 0)
(1 -1.24234e-16 0)
(1 1.56246e-15 0)
(1 7.04917e-15 0)
(1 -6.76921e-15 0)
(1 3.72485e-15 0)
(1 2.20565e-15 0)
(1 -4.08548e-15 0)
(1 7.08993e-16 0)
(1 1.93417e-15 0)
(1 -1.89382e-15 0)
(1 -3.28818e-15 0)
(1 3.76117e-15 0)
(1 -2.77564e-15 0)
(1 -5.01704e-15 0)
(1 2.39561e-15 0)
(1 -1.16767e-15 0)
(1 -9.28875e-16 0)
(1 -5.05419e-16 0)
(1 -2.62303e-15 0)
(1 7.82594e-16 0)
(1 -1.32143e-15 0)
(1 -6.38626e-16 0)
(1 8.62348e-15 0)
(1 -5.48217e-15 0)
(1 -3.83091e-15 0)
(1 4.13584e-15 0)
(1 -1.71169e-15 0)
(1 8.56326e-15 0)
(1 -5.38442e-15 0)
(1 -2.92622e-15 0)
(1 2.22373e-15 0)
(1 -3.6243e-15 0)
(1 5.58809e-16 0)
(1 8.70442e-15 0)
(1 4.87819e-15 0)
(1 -3.45873e-15 0)
(1 -4.57911e-15 0)
(1 -7.79794e-15 0)
(1 -9.73601e-15 0)
(1 -4.01936e-15 0)
(1 -4.96182e-16 0)
(1 -4.95371e-15 0)
(1 6.53486e-15 0)
(1 6.28243e-15 0)
(1 4.95958e-15 0)
(1 2.74728e-15 0)
(1 -1.72971e-15 0)
(1 -7.84972e-16 0)
(1 4.70705e-15 0)
(1 1.33148e-15 0)
(1 8.28812e-16 0)
(1 -3.21546e-15 0)
(1 -1.40363e-15 0)
(1 4.96406e-15 0)
(1 2.4008e-16 0)
(1 -4.34499e-15 0)
(1 -1.53365e-15 0)
(1 6.12945e-16 0)
(1 -1.0671e-15 0)
(1 1.89606e-15 0)
(1 -8.45819e-16 0)
(1 4.8148e-15 0)
(1 -4.30482e-15 0)
(1 -4.31735e-15 0)
(1 2.38015e-15 0)
(1 -2.74147e-15 0)
(1 -4.45717e-15 0)
(1 -4.11019e-16 0)
(1 3.71466e-15 0)
(1 -2.41652e-15 0)
(1 2.07192e-16 0)
(1 -1.73169e-15 0)
(1 2.74265e-16 0)
(1 3.47045e-15 0)
(1 -2.56817e-16 0)
(1 3.19712e-15 0)
(1 -1.42994e-15 0)
(1 3.63718e-15 0)
(1 4.02514e-15 0)
(1 -2.99995e-15 0)
(1 7.76179e-16 0)
(1 -3.00733e-15 0)
(1 -5.84249e-15 0)
(1 -3.7413e-15 0)
(1 5.35542e-16 0)
(1 4.14884e-15 0)
(1 -2.47791e-16 0)
(1 -4.30189e-15 0)
(1 6.45826e-15 0)
(1 3.89717e-15 0)
(1 -8.00411e-15 0)
(1 -6.53193e-15 0)
(1 2.75322e-15 0)
(1 3.25673e-15 0)
(1 -2.60242e-15 0)
(1 -2.32228e-15 0)
(1 7.8514e-16 0)
(1 4.82086e-15 0)
(1 2.54523e-16 0)
(1 -4.78253e-15 0)
(1 -3.31202e-15 0)
(1 1.77337e-15 0)
(1 4.23824e-15 0)
(1 1.14408e-14 0)
(1 -5.34467e-15 0)
(1 -5.67693e-15 0)
(1 -1.21764e-16 0)
(1 7.07475e-15 0)
(1 4.32235e-15 0)
(1 -3.66965e-15 0)
(1 -3.05084e-15 0)
(1 -1.16553e-15 0)
(1 1.79893e-15 0)
(1 1.18426e-15 0)
(1 -2.15282e-17 0)
(1 3.55223e-15 0)
(1 -8.79263e-16 0)
(1 -4.34235e-15 0)
(1 -3.51117e-15 0)
(1 -3.40135e-15 0)
(1 3.22549e-15 0)
(1 6.15563e-15 0)
(1 4.88137e-15 0)
(1 -5.31421e-15 0)
(1 -2.49425e-15 0)
(1 4.61857e-15 0)
(1 3.13521e-15 0)
(1 -3.77109e-15 0)
(1 1.12044e-15 0)
(1 3.85679e-15 0)
(1 -1.45064e-15 0)
(1 -1.35483e-15 0)
(1 -5.43042e-15 0)
(1 4.56575e-15 0)
(1 5.79476e-15 0)
(1 -6.09246e-15 0)
(1 -6.91844e-15 0)
(1 -3.31428e-15 0)
(1 -8.18775e-15 0)
(1 -8.33297e-15 0)
(1 -5.96119e-15 0)
(1 -1.1489e-15 0)
(1 -3.47754e-15 0)
(1 7.28172e-15 0)
(1 9.93824e-15 0)
(1 5.53063e-15 0)
(1 4.605e-15 0)
(1 1.00292e-15 0)
(1 6.76194e-15 0)
(1 -7.27249e-15 0)
(1 -1.88139e-15 0)
(1 -5.49243e-15 0)
(1 1.06398e-15 0)
(1 5.40639e-15 0)
(1 6.08534e-15 0)
(1 -2.96157e-15 0)
(1 -4.4003e-15 0)
(1 1.05484e-15 0)
(1 3.28633e-15 0)
(1 -5.66771e-15 0)
(1 -2.38332e-15 0)
(1 8.809e-16 0)
(1 -2.37693e-15 0)
(1 5.34851e-16 0)
(1 4.52477e-15 0)
(1 9.72607e-16 0)
(1 1.52893e-15 0)
(1 1.50154e-15 0)
(1 -8.11189e-16 0)
(1 -8.11184e-15 0)
(1 -3.35713e-15 0)
(1 -7.64079e-16 0)
(1 -1.63062e-15 0)
(1 2.70683e-15 0)
(1 2.07926e-15 0)
(1 -2.44879e-15 0)
(1 -5.81351e-15 0)
(1 -2.29757e-15 0)
(1 5.09919e-15 0)
(1 -3.32345e-15 0)
(1 3.03992e-16 0)
(1 -2.29796e-16 0)
(1 -6.74649e-15 0)
(1 -4.55754e-15 0)
(1 -3.16407e-15 0)
(1 3.71628e-15 0)
(1 6.316e-16 0)
(1 -9.18783e-16 0)
(1 -5.00498e-16 0)
(1 3.11698e-15 0)
(1 -4.50304e-15 0)
(1 -3.90468e-15 0)
(1 3.39255e-15 0)
(1 -4.77037e-15 0)
(1 -5.9856e-16 0)
(1 6.78072e-17 0)
(1 2.95567e-16 0)
(1 4.20006e-15 0)
(1 3.90273e-15 0)
(1 -5.85652e-15 0)
(1 -5.43682e-16 0)
(1 -6.31093e-15 0)
(1 2.26112e-15 0)
(1 1.44463e-14 0)
(1 -1.01709e-15 0)
(1 -1.61695e-15 0)
(1 -4.70201e-15 0)
(1 1.18885e-14 0)
(1 -1.5876e-15 0)
(1 -5.31854e-15 0)
(1 7.62778e-15 0)
(1 -7.83249e-15 0)
(1 2.57028e-16 0)
(1 -5.64566e-15 0)
(1 -8.95599e-15 0)
(1 1.04427e-14 0)
(1 -1.88302e-15 0)
(1 3.08545e-15 0)
(1 -2.39148e-16 0)
(1 -2.26251e-16 0)
(1 1.06498e-14 0)
(1 5.68452e-15 0)
(1 2.63406e-15 0)
(1 -4.29849e-15 0)
(1 -2.73203e-15 0)
(1 5.28198e-15 0)
(1 2.36834e-16 0)
(1 -2.01306e-15 0)
(1 7.33174e-16 0)
(1 6.43884e-15 0)
(1 2.69901e-15 0)
(1 -2.31676e-15 0)
(1 -7.6043e-15 0)
(1 -7.12672e-15 0)
(1 4.94795e-15 0)
(1 1.29593e-15 0)
(1 2.58764e-15 0)
(1 -3.94445e-15 0)
(1 -9.33009e-15 0)
(1 -8.95964e-15 0)
(1 -2.89381e-15 0)
(1 1.00742e-15 0)
(1 -2.60787e-15 0)
(1 3.70903e-15 0)
(1 7.33405e-15 0)
(1 5.24755e-15 0)
(1 8.11213e-15 0)
(1 1.81348e-15 0)
(1 -1.4542e-16 0)
(1 -2.22859e-15 0)
(1 -1.49048e-16 0)
(1 -4.04156e-15 0)
(1 7.47303e-16 0)
(1 5.0565e-15 0)
(1 4.33418e-15 0)
(1 6.49541e-15 0)
(1 1.07945e-15 0)
(1 -4.16375e-15 0)
(1 -3.31653e-15 0)
(1 -1.18563e-15 0)
(1 -5.03587e-15 0)
(1 -2.06752e-15 0)
(1 -3.77733e-15 0)
(1 7.27702e-15 0)
(1 1.20248e-15 0)
(1 -5.81925e-16 0)
(1 1.53205e-15 0)
(1 -1.9918e-16 0)
(1 -2.17208e-15 0)
(1 -6.12659e-15 0)
(1 -8.6062e-15 0)
(1 -3.17754e-15 0)
(1 4.57711e-15 0)
(1 -1.13767e-15 0)
(1 2.68871e-15 0)
(1 5.13889e-15 0)
(1 -8.16208e-15 0)
(1 2.38748e-15 0)
(1 -1.15795e-15 0)
(1 -5.38953e-16 0)
(1 5.96528e-16 0)
(1 -4.19315e-15 0)
(1 -1.2314e-15 0)
(1 -3.96736e-15 0)
(1 -9.48297e-16 0)
(1 1.27502e-15 0)
(1 -3.32386e-15 0)
(1 9.4225e-16 0)
(1 -1.89316e-15 0)
(1 2.60201e-15 0)
(1 1.21177e-15 0)
(1 -2.03829e-15 0)
(1 -1.40272e-15 0)
(1 -2.22427e-15 0)
(1 -4.51827e-15 0)
(1 -3.22681e-15 0)
(1 8.53342e-16 0)
(1 -5.86321e-16 0)
(1 3.18871e-15 0)
(1 -4.80439e-15 0)
(1 -2.22745e-15 0)
(1 1.74536e-15 0)
(1 -1.01703e-15 0)
(1 1.08378e-15 0)
(1 1.1177e-14 0)
(1 4.10794e-15 0)
(1 2.65248e-15 0)
(1 4.11487e-15 0)
(1 -5.41792e-15 0)
(1 -1.05072e-14 0)
(1 3.81891e-15 0)
(1 8.83781e-16 0)
(1 7.88201e-15 0)
(1 3.32352e-15 0)
(1 -3.51629e-15 0)
(1 -5.01965e-15 0)
(1 -5.25557e-15 0)
(1 -3.24555e-15 0)
(1 5.14577e-15 0)
(1 8.81258e-15 0)
(1 1.79184e-15 0)
(1 -3.05428e-15 0)
(1 -3.62539e-15 0)
(1 3.61297e-16 0)
(1 7.17029e-16 0)
(1 -2.61908e-15 0)
(1 4.05222e-15 0)
(1 5.52297e-15 0)
(1 -3.03966e-15 0)
(1 6.18364e-15 0)
(1 -4.42977e-15 0)
(1 -8.2186e-15 0)
(1 -4.57899e-15 0)
(1 -4.68267e-15 0)
(1 -7.88784e-16 0)
(1 3.85552e-15 0)
(1 1.98717e-15 0)
(1 -3.80975e-15 0)
(1 -1.09976e-14 0)
(1 -6.16152e-15 0)
(1 -9.82887e-15 0)
(1 -3.00692e-16 0)
(1 5.63926e-15 0)
(1 1.10937e-14 0)
(1 5.97551e-15 0)
(1 2.81045e-15 0)
(1 5.39357e-15 0)
(1 -2.61413e-15 0)
(1 -4.11602e-15 0)
(1 8.62572e-16 0)
(1 2.41875e-15 0)
(1 2.36578e-15 0)
(1 -6.7307e-16 0)
(1 1.46869e-15 0)
(1 -6.35839e-15 0)
(1 -7.30564e-15 0)
(1 6.2869e-15 0)
(1 -6.75057e-16 0)
(1 6.57396e-16 0)
(1 1.0371e-15 0)
(1 -1.46802e-15 0)
(1 -1.82466e-15 0)
(1 -2.16257e-15 0)
(1 5.48484e-15 0)
(1 -2.71636e-15 0)
(1 3.95006e-15 0)
(1 -4.80475e-16 0)
(1 -1.63517e-15 0)
(1 5.24207e-15 0)
(1 -2.50015e-15 0)
(1 -4.56155e-15 0)
(1 -3.38595e-15 0)
(1 5.31492e-15 0)
(1 5.06863e-15 0)
(1 1.96576e-15 0)
(1 -1.00576e-15 0)
(1 -5.07838e-15 0)
(1 2.94091e-16 0)
(1 -3.25751e-15 0)
(1 -2.04649e-15 0)
(1 6.29294e-16 0)
(1 -5.34288e-15 0)
(1 3.67892e-16 0)
(1 -2.50785e-15 0)
(1 -4.65008e-15 0)
(1 -2.20166e-15 0)
(1 -3.69148e-15 0)
(1 -2.60711e-15 0)
(1 2.54005e-15 0)
(1 -1.12875e-15 0)
(1 3.19122e-15 0)
(1 7.31328e-16 0)
(1 -2.96088e-15 0)
(1 -9.5434e-16 0)
(1 -8.05997e-15 0)
(1 -2.92831e-15 0)
(1 -8.20011e-16 0)
(1 -7.07942e-15 0)
(1 2.83833e-15 0)
(1 4.21176e-15 0)
(1 -3.18707e-15 0)
(1 3.2649e-15 0)
(1 -7.5713e-16 0)
(1 9.7182e-16 0)
(1 5.30534e-15 0)
(1 4.27454e-15 0)
(1 1.22826e-14 0)
(1 6.38964e-17 0)
(1 -7.28412e-15 0)
(1 -6.17626e-16 0)
(1 -3.32268e-15 0)
(1 6.42478e-16 0)
(1 -8.58294e-16 0)
(1 5.76162e-16 0)
(1 1.78627e-15 0)
(1 -7.29765e-15 0)
(1 -4.61192e-16 0)
(1 -8.2975e-15 0)
(1 8.50372e-15 0)
(1 5.44262e-15 0)
(1 -3.7114e-15 0)
(1 3.83012e-15 0)
(1 -2.76146e-15 0)
(1 -4.66755e-16 0)
(1 -1.29033e-15 0)
(1 8.65332e-16 0)
(1 1.75755e-15 0)
(1 2.15935e-15 0)
(1 2.5994e-15 0)
(1 9.78989e-16 0)
(1 -9.65686e-15 0)
(1 -5.7082e-16 0)
(1 3.9191e-15 0)
(1 3.96995e-15 0)
(1 -3.39379e-15 0)
(1 -5.3011e-15 0)
(1 6.99626e-16 0)
(1 -2.76291e-15 0)
(1 -6.6278e-15 0)
(1 -7.27187e-15 0)
(1 -3.52191e-15 0)
(1 4.31743e-16 0)
(1 -1.51311e-15 0)
(1 5.91273e-15 0)
(1 6.52182e-15 0)
(1 5.5241e-15 0)
(1 -1.93916e-15 0)
(1 -1.30961e-16 0)
(1 2.40322e-15 0)
(1 2.982e-15 0)
(1 -8.52323e-17 0)
(1 5.9529e-16 0)
(1 3.33005e-15 0)
(1 1.94683e-15 0)
(1 3.2235e-15 0)
(1 6.19074e-15 0)
(1 4.00019e-15 0)
(1 -5.66724e-15 0)
(1 -3.07483e-15 0)
(1 -5.04606e-15 0)
(1 1.03375e-15 0)
(1 -2.04677e-16 0)
(1 9.29133e-15 0)
(1 3.33326e-15 0)
(1 3.06883e-15 0)
(1 4.00822e-15 0)
(1 4.40418e-15 0)
(1 1.33994e-15 0)
(1 3.15563e-15 0)
(1 -3.39002e-15 0)
(1 -7.25609e-15 0)
(1 -4.44799e-15 0)
(1 -1.4837e-15 0)
(1 8.09508e-15 0)
(1 -3.89489e-18 0)
(1 -7.68438e-15 0)
(1 -2.82369e-15 0)
(1 6.56977e-16 0)
(1 -3.5347e-15 0)
(1 8.44755e-16 0)
(1 -2.55758e-15 0)
(1 -3.64232e-15 0)
(1 -2.58762e-15 0)
(1 -8.30506e-15 0)
(1 -7.83482e-15 0)
(1 -3.24871e-15 0)
(1 -2.34457e-15 0)
(1 -2.476e-15 0)
(1 2.63568e-15 0)
(1 4.31298e-15 0)
(1 7.14176e-15 0)
(1 3.74828e-15 0)
(1 2.99361e-16 0)
(1 -7.16593e-15 0)
(1 -8.64188e-16 0)
(1 3.88308e-15 0)
(1 -3.87481e-15 0)
(1 -1.1897e-15 0)
(1 3.34971e-15 0)
(1 -7.77343e-16 0)
(1 5.5512e-15 0)
(1 -5.15644e-15 0)
(1 -2.99089e-15 0)
(1 5.27032e-15 0)
(1 9.0036e-16 0)
(1 1.68028e-15 0)
(1 1.02411e-14 0)
(1 -3.39783e-15 0)
(1 -2.93885e-15 0)
(1 4.88239e-15 0)
(1 -2.99957e-15 0)
(1 8.70879e-15 0)
(1 4.64762e-15 0)
(1 -2.76047e-15 0)
(1 -1.2524e-15 0)
(1 9.64494e-16 0)
(1 2.53256e-15 0)
(1 -1.50452e-14 0)
(1 6.92385e-15 0)
(1 -4.77558e-15 0)
(1 -1.95227e-16 0)
(1 -7.20773e-16 0)
(1 -3.21063e-15 0)
(1 -2.12864e-15 0)
(1 2.15467e-15 0)
(1 7.73605e-15 0)
(1 -1.45172e-16 0)
(1 2.86821e-15 0)
(1 5.12664e-15 0)
(1 -6.03293e-15 0)
(1 -5.39022e-15 0)
(1 6.60328e-15 0)
(1 7.4078e-15 0)
(1 5.54814e-16 0)
(1 -1.17731e-14 0)
(1 -3.55162e-15 0)
(1 -2.84389e-15 0)
(1 -7.40134e-15 0)
(1 4.43393e-16 0)
(1 -4.03053e-15 0)
(1 1.05746e-15 0)
(1 1.09273e-15 0)
(1 2.21897e-15 0)
(1 -2.73145e-15 0)
(1 1.99393e-15 0)
(1 7.32727e-15 0)
(1 -4.73626e-16 0)
(1 -1.43605e-15 0)
(1 2.71745e-15 0)
(1 6.91982e-15 0)
(1 -2.28381e-16 0)
(1 -2.45164e-15 0)
(1 -1.00813e-15 0)
(1 2.32114e-15 0)
(1 4.22027e-15 0)
(1 6.03571e-15 0)
(1 -4.81269e-15 0)
(1 -1.01273e-15 0)
(1 -3.17707e-15 0)
(1 1.97811e-17 0)
(1 -2.50357e-15 0)
(1 -4.41368e-15 0)
(1 -2.92189e-15 0)
(1 4.5713e-15 0)
(1 4.98675e-15 0)
(1 -2.29268e-15 0)
(1 6.75737e-15 0)
(1 6.52711e-15 0)
(1 -2.00728e-15 0)
(1 -2.18199e-15 0)
(1 -2.97416e-15 0)
(1 3.71656e-15 0)
(1 -1.55427e-15 0)
(1 2.25228e-15 0)
(1 4.63055e-16 0)
(1 -1.85564e-15 0)
(1 4.2741e-16 0)
(1 -5.87018e-16 0)
(1 1.40011e-16 0)
(1 -4.28813e-16 0)
(1 -2.23743e-15 0)
(1 2.55252e-17 0)
(1 -3.2925e-15 0)
(1 -1.87585e-15 0)
(1 -1.66382e-16 0)
(1 -3.84279e-15 0)
(1 -3.43058e-15 0)
(1 3.33561e-16 0)
(1 3.7143e-15 0)
(1 4.48183e-15 0)
(1 1.93276e-15 0)
(1 6.22753e-15 0)
(1 -1.35264e-15 0)
(1 -3.13047e-15 0)
(1 3.2769e-15 0)
(1 2.1432e-15 0)
(1 -3.40251e-15 0)
(1 -7.42924e-16 0)
(1 -1.15017e-15 0)
(1 -1.65211e-15 0)
(1 7.37423e-15 0)
(1 -1.30071e-15 0)
(1 -3.55553e-15 0)
(1 2.82595e-16 0)
(1 8.05404e-15 0)
(1 1.12588e-14 0)
(1 3.48907e-15 0)
(1 -1.14464e-14 0)
(1 3.37896e-15 0)
(1 -4.66084e-15 0)
(1 2.27316e-16 0)
(1 9.71815e-15 0)
(1 2.09218e-15 0)
(1 1.16479e-14 0)
(1 4.70416e-15 0)
(1 -8.30704e-15 0)
(1 -7.2153e-15 0)
(1 -1.36545e-14 0)
(1 -7.34172e-15 0)
(1 -1.64911e-16 0)
(1 1.69027e-16 0)
(1 -8.56817e-15 0)
(1 -5.80855e-15 0)
(1 2.63787e-17 0)
(1 2.31233e-15 0)
(1 3.40197e-15 0)
(1 1.43582e-14 0)
(1 1.77995e-15 0)
(1 1.53204e-15 0)
(1 -4.15428e-15 0)
(1 -2.79445e-15 0)
(1 -3.47815e-15 0)
(1 -3.63204e-15 0)
(1 -1.87747e-15 0)
(1 -1.30222e-15 0)
(1 6.8855e-15 0)
(1 -5.76734e-15 0)
(1 -4.51609e-15 0)
(1 5.13106e-15 0)
(1 -3.30049e-15 0)
(1 -5.56627e-15 0)
(1 2.87252e-15 0)
(1 6.33663e-15 0)
(1 6.31973e-15 0)
(1 -4.64147e-15 0)
(1 1.72111e-15 0)
(1 5.93934e-15 0)
(1 -4.05585e-16 0)
(1 -6.74743e-15 0)
(1 3.94311e-15 0)
(1 8.29873e-15 0)
(1 8.50889e-15 0)
(1 -9.58932e-16 0)
(1 -6.54602e-15 0)
(1 7.18341e-15 0)
(1 -5.30101e-15 0)
(1 -1.0473e-14 0)
(1 1.74752e-15 0)
(1 5.46241e-15 0)
(1 4.6155e-15 0)
(1 -2.06156e-15 0)
(1 3.4075e-15 0)
(1 3.37161e-15 0)
(1 -2.57794e-15 0)
(1 5.2354e-15 0)
(1 4.23193e-15 0)
(1 6.85706e-15 0)
(1 4.79205e-15 0)
(1 3.81869e-16 0)
(1 -3.5212e-15 0)
(1 -1.85145e-15 0)
(1 7.00859e-15 0)
(1 1.77644e-15 0)
(1 -3.92849e-15 0)
(1 -4.01534e-15 0)
(1 -6.22074e-15 0)
(1 2.32499e-15 0)
(1 -5.628e-15 0)
(1 4.15872e-16 0)
(1 2.36875e-15 0)
(1 -8.72078e-15 0)
(1 -1.27759e-15 0)
(1 -1.16765e-15 0)
(1 1.89101e-15 0)
(1 2.01642e-15 0)
(1 -1.16297e-14 0)
(1 -5.66915e-15 0)
(1 1.55216e-15 0)
(1 1.13957e-15 0)
(1 4.90906e-15 0)
(1 5.17919e-15 0)
(1 5.92188e-15 0)
(1 -5.23556e-15 0)
(1 -2.90958e-15 0)
(1 3.02267e-15 0)
(1 4.67695e-15 0)
(1 -4.98233e-16 0)
(1 -2.11583e-15 0)
(1 -1.47753e-15 0)
(1 -9.21121e-16 0)
(1 -2.09288e-15 0)
(1 3.85143e-15 0)
(1 -2.27137e-15 0)
(1 -4.95367e-15 0)
(1 4.55791e-15 0)
(1 6.28534e-15 0)
(1 2.2298e-15 0)
(1 7.6062e-16 0)
(1 -1.52713e-15 0)
(1 2.00177e-15 0)
(1 3.26012e-15 0)
(1 3.00986e-15 0)
(1 -2.74789e-16 0)
(1 5.92994e-15 0)
(1 8.6582e-15 0)
(1 -6.16778e-15 0)
(1 -1.51253e-14 0)
(1 -1.44695e-15 0)
(1 -9.22131e-15 0)
(1 6.10005e-16 0)
(1 3.90021e-16 0)
(1 -5.62526e-15 0)
(1 1.47706e-15 0)
(1 -7.40936e-15 0)
(1 -5.54971e-15 0)
(1 5.58472e-15 0)
(1 6.27017e-15 0)
(1 -3.5801e-15 0)
(1 2.22962e-15 0)
(1 1.81762e-15 0)
(1 -2.23607e-15 0)
(1 -3.40309e-15 0)
(1 -3.40841e-15 0)
(1 3.81885e-15 0)
(1 2.87924e-15 0)
(1 3.44206e-15 0)
(1 -8.03781e-15 0)
(1 8.23681e-16 0)
(1 2.73691e-15 0)
(1 -1.50061e-16 0)
(1 5.85643e-15 0)
(1 -3.1827e-15 0)
(1 2.2614e-15 0)
(1 2.5411e-15 0)
(1 -7.22766e-15 0)
(1 -3.98761e-15 0)
(1 1.52692e-15 0)
(1 5.50246e-15 0)
(1 -1.60271e-15 0)
(1 5.65519e-15 0)
(1 1.02867e-14 0)
(1 5.93304e-15 0)
(1 4.4498e-15 0)
(1 -3.57605e-15 0)
(1 7.2478e-15 0)
(1 -2.84627e-15 0)
(1 4.844e-16 0)
(1 9.94747e-16 0)
(1 -5.31678e-15 0)
(1 5.56762e-15 0)
(1 -1.01751e-14 0)
(1 5.86245e-15 0)
(1 7.11145e-15 0)
(1 -5.50332e-15 0)
(1 1.31704e-14 0)
(1 1.20837e-14 0)
(1 1.01112e-14 0)
(1 -1.12883e-15 0)
(1 2.9109e-15 0)
(1 -6.99222e-16 0)
(1 -4.12024e-15 0)
(1 2.87471e-15 0)
(1 -6.50808e-16 0)
(1 -3.73599e-15 0)
(1 -8.18903e-15 0)
(1 3.90027e-15 0)
(1 3.33169e-15 0)
(1 4.47671e-15 0)
(1 -1.42524e-15 0)
(1 1.53044e-15 0)
(1 -8.2645e-15 0)
(1 -8.96115e-15 0)
(1 -7.46062e-15 0)
(1 -2.41715e-15 0)
(1 -1.26327e-15 0)
(1 -2.68176e-15 0)
(1 -2.48464e-15 0)
(1 6.05432e-16 0)
(1 3.92667e-15 0)
(1 8.46509e-15 0)
(1 9.79716e-15 0)
(1 6.52601e-15 0)
(1 -4.62016e-17 0)
(1 -2.2781e-15 0)
(1 8.27599e-15 0)
(1 9.94886e-15 0)
(1 6.68432e-16 0)
(1 1.21414e-16 0)
(1 1.48602e-15 0)
(1 -3.73831e-15 0)
(1 4.00278e-16 0)
(1 -2.84225e-15 0)
(1 1.38552e-15 0)
(1 1.69054e-15 0)
(1 2.53136e-15 0)
(1 2.41034e-15 0)
(1 -1.05617e-15 0)
(1 1.46655e-14 0)
(1 3.78868e-15 0)
(1 1.13763e-15 0)
(1 4.79769e-15 0)
(1 -3.17586e-15 0)
(1 -3.01693e-15 0)
(1 -1.3019e-15 0)
(1 -1.07593e-15 0)
(1 1.5377e-15 0)
(1 -7.67868e-15 0)
(1 -1.44831e-15 0)
(1 -9.02347e-15 0)
(1 -6.2002e-15 0)
(1 2.24286e-15 0)
(1 4.54184e-15 0)
(1 -1.69651e-15 0)
(1 -6.85296e-15 0)
(1 1.49213e-15 0)
(1 -3.78742e-15 0)
(1 -4.62644e-15 0)
(1 5.17396e-15 0)
(1 3.32064e-15 0)
(1 3.33157e-15 0)
(1 3.39436e-15 0)
(1 -2.00371e-15 0)
(1 -8.02268e-15 0)
(1 -4.898e-15 0)
(1 -4.89685e-15 0)
(1 -5.79651e-15 0)
(1 -5.3699e-15 0)
(1 4.61046e-15 0)
(1 2.40693e-15 0)
(1 5.32536e-15 0)
(1 1.00705e-14 0)
(1 5.03157e-16 0)
(1 -9.00232e-16 0)
(1 -3.59334e-15 0)
(1 2.8226e-16 0)
(1 2.30528e-15 0)
(1 -3.67828e-15 0)
(1 -4.2475e-15 0)
(1 2.27298e-15 0)
(1 7.58063e-15 0)
(1 9.85262e-15 0)
(1 5.01096e-15 0)
(1 -1.4855e-15 0)
(1 -5.28795e-15 0)
(1 4.80332e-16 0)
(1 3.28535e-15 0)
(1 4.53541e-15 0)
(1 9.31296e-15 0)
(1 4.33631e-16 0)
(1 8.65378e-16 0)
(1 5.30663e-15 0)
(1 -3.56833e-15 0)
(1 2.66323e-15 0)
(1 4.03492e-15 0)
(1 6.18023e-15 0)
(1 6.43179e-15 0)
(1 8.08784e-15 0)
(1 5.95585e-15 0)
(1 1.58846e-16 0)
(1 -1.60687e-16 0)
(1 5.12284e-16 0)
(1 6.50159e-16 0)
(1 1.83876e-15 0)
(1 -5.11268e-15 0)
(1 -1.67391e-15 0)
(1 -5.82716e-16 0)
(1 1.86463e-15 0)
(1 1.07038e-15 0)
(1 -2.27026e-15 0)
(1 -5.41884e-16 0)
(1 -4.12147e-15 0)
(1 -9.2694e-15 0)
(1 -2.05205e-15 0)
(1 -2.24153e-16 0)
(1 -5.14678e-15 0)
(1 -2.3326e-15 0)
(1 5.26593e-15 0)
(1 -3.37658e-15 0)
(1 6.41776e-15 0)
(1 -4.52682e-15 0)
(1 1.1448e-14 0)
(1 3.68766e-15 0)
(1 5.57599e-16 0)
(1 7.16301e-15 0)
(1 9.86664e-15 0)
(1 9.34577e-15 0)
(1 4.34288e-17 0)
(1 -1.94988e-15 0)
(1 9.65594e-16 0)
(1 3.26022e-15 0)
(1 -2.57179e-15 0)
(1 -8.01121e-15 0)
(1 4.36609e-15 0)
(1 1.69975e-15 0)
(1 6.12701e-15 0)
(1 5.02152e-15 0)
(1 -7.01794e-15 0)
(1 8.33549e-15 0)
(1 -6.14036e-16 0)
(1 -2.63231e-16 0)
(1 -1.93105e-15 0)
(1 -1.03072e-14 0)
(1 -2.46346e-15 0)
(1 7.23889e-16 0)
(1 5.49248e-15 0)
(1 3.88043e-15 0)
(1 -7.32483e-15 0)
(1 -4.51902e-15 0)
(1 -1.29094e-14 0)
(1 -3.77424e-15 0)
(1 -1.1418e-14 0)
(1 1.40778e-14 0)
(1 1.11699e-14 0)
(1 7.84268e-15 0)
(1 5.54878e-15 0)
(1 -1.29788e-14 0)
(1 -8.6422e-15 0)
(1 2.0862e-15 0)
(1 -2.77681e-15 0)
(1 -1.59133e-15 0)
(1 5.79108e-15 0)
(1 -2.36584e-15 0)
(1 -3.14806e-15 0)
(1 -1.17114e-14 0)
(1 -6.92255e-15 0)
(1 -4.64946e-15 0)
(1 1.11647e-14 0)
(1 4.10815e-15 0)
(1 -1.34788e-15 0)
(1 1.95247e-16 0)
(1 3.76287e-15 0)
(1 3.19868e-15 0)
(1 1.74698e-17 0)
(1 -8.26811e-16 0)
(1 9.61803e-15 0)
(1 2.95822e-15 0)
(1 -4.85274e-15 0)
(1 -4.06447e-15 0)
(1 4.03993e-15 0)
(1 7.75123e-15 0)
(1 8.48302e-15 0)
(1 4.6169e-15 0)
(1 4.96551e-15 0)
(1 -3.0117e-15 0)
(1 5.88021e-15 0)
(1 1.16662e-15 0)
(1 3.36991e-15 0)
(1 1.51721e-15 0)
(1 2.40064e-15 0)
(1 -3.02959e-15 0)
(1 8.62397e-15 0)
(1 4.7781e-15 0)
(1 2.36976e-15 0)
(1 6.86816e-15 0)
(1 -6.20946e-15 0)
(1 -2.51564e-15 0)
(1 5.41929e-15 0)
(1 7.57905e-15 0)
(1 2.49305e-15 0)
(1 1.80108e-15 0)
(1 -2.50943e-15 0)
(1 -8.734e-15 0)
(1 7.33045e-15 0)
(1 5.51414e-16 0)
(1 -5.66297e-15 0)
(1 -5.12364e-15 0)
(1 3.6443e-15 0)
(1 1.88491e-15 0)
(1 1.17745e-14 0)
(1 -1.36687e-15 0)
(1 -6.08324e-15 0)
(1 -1.59175e-15 0)
(1 -6.76733e-16 0)
(1 -7.37644e-15 0)
(1 -6.13801e-15 0)
(1 -9.44089e-15 0)
(1 7.94248e-15 0)
(1 -1.80414e-15 0)
(1 9.56383e-16 0)
(1 -3.05543e-16 0)
(1 4.45125e-15 0)
(1 6.21298e-15 0)
(1 4.71792e-15 0)
(1 1.21363e-14 0)
(1 2.27778e-15 0)
(1 3.45587e-15 0)
(1 -6.48993e-16 0)
(1 2.0793e-16 0)
(1 3.19524e-16 0)
(1 4.4406e-15 0)
(1 -7.76882e-15 0)
(1 -2.37474e-16 0)
(1 -5.50262e-15 0)
(1 1.34486e-15 0)
(1 3.93015e-15 0)
(1 7.37577e-15 0)
(1 5.73437e-15 0)
(1 -4.58013e-15 0)
(1 -6.97876e-15 0)
(1 -6.94783e-16 0)
(1 -1.31652e-16 0)
(1 -1.66915e-16 0)
(1 3.24527e-15 0)
(1 -4.97902e-15 0)
(1 4.18918e-15 0)
(1 1.47486e-15 0)
(1 -6.40463e-15 0)
(1 -5.95971e-16 0)
(1 -4.07765e-15 0)
(1 -4.11404e-15 0)
(1 -2.5192e-15 0)
(1 -4.38038e-15 0)
(1 6.94149e-15 0)
(1 4.55947e-15 0)
(1 4.07928e-15 0)
(1 -3.13153e-15 0)
(1 9.87404e-16 0)
(1 3.40778e-15 0)
(1 -7.24774e-15 0)
(1 -8.619e-15 0)
(1 -7.9014e-15 0)
(1 -1.59524e-15 0)
(1 2.59573e-15 0)
(1 -1.297e-14 0)
(1 -3.44323e-15 0)
(1 -2.21369e-15 0)
(1 8.89337e-15 0)
(1 -7.60498e-16 0)
(1 -8.35178e-15 0)
(1 -4.58309e-16 0)
(1 1.03062e-14 0)
(1 4.25429e-15 0)
(1 9.27948e-15 0)
(1 -2.11407e-15 0)
(1 1.72298e-15 0)
(1 2.80036e-15 0)
(1 -3.98959e-15 0)
(1 6.00274e-16 0)
(1 2.41499e-15 0)
(1 7.33142e-15 0)
(1 7.18696e-15 0)
(1 -6.61441e-15 0)
(1 1.54365e-15 0)
(1 3.84412e-15 0)
(1 4.01016e-15 0)
(1 -4.42249e-16 0)
(1 5.71441e-15 0)
(1 2.68159e-15 0)
(1 9.66998e-15 0)
(1 4.07689e-15 0)
(1 -3.94971e-15 0)
(1 2.09597e-15 0)
(1 -7.50112e-16 0)
(1 2.13821e-15 0)
(1 1.25812e-15 0)
(1 -1.67708e-15 0)
(1 8.84627e-15 0)
(1 4.96059e-15 0)
(1 -5.58277e-15 0)
(1 1.35565e-15 0)
(1 3.96517e-15 0)
(1 -4.57251e-15 0)
(1 -6.43973e-16 0)
(1 -3.76791e-15 0)
(1 -4.54457e-15 0)
(1 1.41266e-15 0)
(1 8.2333e-15 0)
(1 3.27871e-15 0)
(1 6.12025e-15 0)
(1 -6.25736e-15 0)
(1 -5.18159e-15 0)
(1 3.65663e-15 0)
(1 -7.20517e-15 0)
(1 -8.21373e-15 0)
(1 -3.04839e-15 0)
(1 5.98003e-15 0)
(1 5.29289e-15 0)
(1 1.5991e-15 0)
(1 -4.77545e-15 0)
(1 3.82745e-15 0)
(1 -2.18901e-15 0)
(1 9.99734e-15 0)
(1 8.06341e-15 0)
(1 9.16322e-15 0)
(1 1.16872e-15 0)
(1 -8.23712e-16 0)
(1 1.52565e-15 0)
(1 8.8281e-16 0)
(1 -1.81117e-15 0)
(1 -7.34979e-16 0)
(1 1.05189e-15 0)
(1 2.33335e-15 0)
(1 1.16869e-15 0)
(1 1.27808e-15 0)
(1 -3.5649e-15 0)
(1 9.20666e-15 0)
(1 1.4175e-14 0)
(1 -2.46624e-15 0)
(1 -7.44839e-15 0)
(1 -6.07666e-15 0)
(1 3.72309e-16 0)
(1 -3.51605e-15 0)
(1 -6.00672e-15 0)
(1 -6.15169e-15 0)
(1 8.4931e-16 0)
(1 1.09099e-15 0)
(1 6.57161e-15 0)
(1 7.56514e-15 0)
(1 -3.05248e-15 0)
(1 -1.85076e-14 0)
(1 1.31545e-14 0)
(1 -5.07594e-15 0)
(1 -8.81724e-15 0)
(1 -3.21515e-15 0)
(1 -1.19912e-15 0)
(1 5.22795e-15 0)
(1 -2.44738e-15 0)
(1 4.16097e-15 0)
(1 -6.203e-15 0)
(1 -6.31892e-15 0)
(1 2.83181e-15 0)
(1 -6.99037e-16 0)
(1 2.82022e-15 0)
(1 -8.13644e-15 0)
(1 -2.36637e-15 0)
(1 2.40831e-15 0)
(1 -1.11503e-15 0)
(1 8.48144e-16 0)
(1 -8.7289e-15 0)
(1 2.70803e-15 0)
(1 -3.71024e-16 0)
(1 9.75342e-15 0)
(1 1.06822e-14 0)
(1 3.05721e-15 0)
(1 -5.1531e-15 0)
(1 -1.80131e-15 0)
(1 1.09859e-15 0)
(1 -2.21137e-15 0)
(1 9.37459e-15 0)
(1 8.16648e-15 0)
(1 3.92683e-15 0)
(1 2.60787e-15 0)
(1 -7.31461e-16 0)
(1 8.17134e-15 0)
(1 -7.72376e-15 0)
(1 -9.00837e-16 0)
(1 -2.06714e-15 0)
(1 3.27796e-15 0)
(1 6.98095e-15 0)
(1 8.36165e-15 0)
(1 5.0214e-15 0)
(1 9.81458e-16 0)
(1 4.64922e-15 0)
(1 2.16858e-15 0)
(1 -1.6294e-15 0)
(1 5.75947e-16 0)
(1 -6.5857e-15 0)
(1 2.23031e-15 0)
(1 1.21915e-15 0)
(1 1.66696e-15 0)
(1 3.38897e-15 0)
(1 2.76072e-15 0)
(1 -5.95293e-15 0)
(1 -3.30505e-15 0)
(1 8.39352e-15 0)
(1 1.48801e-15 0)
(1 -2.97198e-15 0)
(1 -5.11719e-15 0)
(1 -4.4887e-15 0)
(1 -2.84384e-15 0)
(1 8.20151e-16 0)
(1 1.86495e-15 0)
(1 -5.28828e-15 0)
(1 7.42306e-16 0)
(1 -3.57656e-15 0)
(1 6.83645e-15 0)
(1 -1.77336e-15 0)
(1 -1.04849e-15 0)
(1 2.5018e-15 0)
(1 -4.08083e-15 0)
(1 3.58512e-15 0)
(1 7.57479e-15 0)
(1 -7.93877e-16 0)
(1 2.12743e-15 0)
(1 8.42125e-16 0)
(1 -4.12871e-16 0)
(1 1.56038e-16 0)
(1 -2.15659e-16 0)
(1 -2.8335e-15 0)
(1 1.0251e-15 0)
(1 5.80159e-15 0)
(1 7.22225e-15 0)
(1 3.94074e-15 0)
(1 -7.76936e-16 0)
(1 -7.43572e-15 0)
(1 -2.39064e-15 0)
(1 4.39565e-15 0)
(1 5.06783e-15 0)
(1 3.02852e-15 0)
(1 -3.9283e-16 0)
(1 -6.82463e-15 0)
(1 -6.1152e-15 0)
(1 -1.09972e-14 0)
(1 -2.27548e-15 0)
(1 -4.3034e-15 0)
(1 -5.36539e-15 0)
(1 1.00817e-14 0)
(1 4.83262e-15 0)
(1 4.27084e-15 0)
(1 -9.57202e-15 0)
(1 -3.09893e-15 0)
(1 9.93237e-16 0)
(1 -7.26105e-16 0)
(1 -5.98242e-15 0)
(1 3.29153e-15 0)
(1 3.1651e-15 0)
(1 -8.43957e-18 0)
(1 -8.82338e-15 0)
(1 -9.27578e-16 0)
(1 3.17914e-15 0)
(1 -3.86254e-15 0)
(1 -8.78524e-15 0)
(1 2.30843e-16 0)
(1 -6.17203e-15 0)
(1 3.70183e-15 0)
(1 1.84429e-16 0)
(1 -3.45835e-15 0)
(1 -3.47906e-15 0)
(1 1.01637e-14 0)
(1 1.11422e-14 0)
(1 -1.48622e-17 0)
(1 7.39692e-15 0)
(1 -5.60756e-15 0)
(1 9.65438e-15 0)
(1 -3.46887e-15 0)
(1 -7.51944e-15 0)
(1 -5.92221e-15 0)
(1 -7.86073e-15 0)
(1 1.03216e-14 0)
(1 8.4623e-15 0)
(1 -3.78668e-15 0)
(1 1.0674e-14 0)
(1 4.81156e-15 0)
(1 4.10253e-15 0)
(1 -4.24023e-16 0)
(1 -8.88484e-16 0)
(1 1.5227e-15 0)
(1 1.90862e-17 0)
(1 -2.80406e-15 0)
(1 7.51971e-15 0)
(1 8.45548e-15 0)
(1 3.97243e-15 0)
(1 5.59946e-15 0)
(1 5.23318e-15 0)
(1 -2.17746e-16 0)
(1 1.76648e-15 0)
(1 -5.57256e-15 0)
(1 6.65159e-15 0)
(1 8.55104e-15 0)
(1 2.59983e-15 0)
(1 -2.19281e-15 0)
(1 5.49593e-15 0)
(1 -1.14306e-16 0)
(1 7.39501e-15 0)
(1 4.47416e-15 0)
(1 -6.49985e-15 0)
(1 -2.88525e-15 0)
(1 3.78859e-16 0)
(1 -7.97744e-15 0)
(1 2.53895e-16 0)
(1 4.32388e-16 0)
(1 -2.88412e-15 0)
(1 -6.70019e-15 0)
(1 2.46125e-15 0)
(1 1.59224e-15 0)
(1 2.42796e-15 0)
(1 1.16884e-15 0)
(1 -2.79805e-15 0)
(1 2.29769e-15 0)
(1 4.52878e-15 0)
(1 1.98902e-15 0)
(1 1.5353e-15 0)
(1 -6.60422e-16 0)
(1 8.32412e-15 0)
(1 7.84171e-16 0)
(1 -4.41077e-15 0)
(1 -3.37773e-16 0)
(1 4.75171e-15 0)
(1 -7.11687e-16 0)
(1 8.57266e-15 0)
(1 -6.22492e-17 0)
(1 5.89399e-15 0)
(1 -7.49272e-15 0)
(1 -3.8446e-15 0)
(1 2.98466e-15 0)
(1 -5.60422e-15 0)
(1 5.8789e-15 0)
(1 7.97756e-15 0)
(1 6.17013e-15 0)
(1 -1.09667e-14 0)
(1 -1.46289e-14 0)
(1 -2.73094e-15 0)
(1 -2.10693e-14 0)
(1 1.04633e-14 0)
(1 -3.41974e-15 0)
(1 -3.53395e-16 0)
(1 1.01285e-14 0)
(1 -4.97624e-15 0)
(1 5.14602e-15 0)
(1 8.0408e-15 0)
(1 -6.25147e-15 0)
(1 -4.34105e-15 0)
(1 -5.23212e-15 0)
(1 -1.34052e-15 0)
(1 1.45107e-15 0)
(1 -2.44881e-15 0)
(1 -2.34032e-15 0)
(1 -5.41374e-16 0)
(1 -1.23935e-16 0)
(1 -3.3262e-15 0)
(1 -3.38681e-15 0)
(1 -3.22383e-15 0)
(1 -7.97353e-15 0)
(1 -9.68821e-17 0)
(1 4.11731e-15 0)
(1 -1.81897e-15 0)
(1 -1.8777e-15 0)
(1 1.81387e-16 0)
(1 1.5486e-14 0)
(1 4.6365e-15 0)
(1 8.51002e-15 0)
(1 3.93656e-15 0)
(1 -1.30712e-14 0)
(1 3.71307e-15 0)
(1 -3.68992e-15 0)
(1 -9.95675e-15 0)
(1 -4.56563e-15 0)
(1 3.55467e-15 0)
(1 6.0164e-15 0)
(1 4.87863e-15 0)
(1 1.81684e-15 0)
(1 1.13254e-14 0)
(1 1.8915e-15 0)
(1 5.56513e-15 0)
(1 5.62876e-15 0)
(1 8.03067e-16 0)
(1 5.31789e-15 0)
(1 -3.43328e-15 0)
(1 4.20949e-15 0)
(1 3.10044e-15 0)
(1 9.10265e-15 0)
(1 8.61862e-15 0)
(1 7.30591e-15 0)
(1 5.76081e-15 0)
(1 5.69843e-15 0)
(1 2.20733e-15 0)
(1 4.58869e-15 0)
(1 4.27261e-15 0)
(1 1.67766e-15 0)
(1 1.48946e-15 0)
(1 -1.92753e-15 0)
(1 3.39732e-15 0)
(1 1.24582e-15 0)
(1 8.9521e-15 0)
(1 -1.70434e-15 0)
(1 -1.10297e-14 0)
(1 1.88593e-15 0)
(1 1.57517e-15 0)
(1 -5.81802e-15 0)
(1 9.98504e-16 0)
(1 -1.62341e-15 0)
(1 -6.10863e-15 0)
(1 -6.09424e-15 0)
(1 9.3679e-16 0)
(1 1.17127e-15 0)
(1 -2.96614e-15 0)
(1 -4.37629e-16 0)
(1 -1.77353e-15 0)
(1 2.22647e-15 0)
(1 4.95795e-15 0)
(1 6.20244e-15 0)
(1 -1.9134e-15 0)
(1 -2.43742e-15 0)
(1 4.49837e-15 0)
(1 3.47878e-15 0)
(1 3.92012e-15 0)
(1 -8.70259e-16 0)
(1 4.92635e-15 0)
(1 8.62156e-16 0)
(1 1.69007e-15 0)
(1 3.21176e-15 0)
(1 3.94703e-15 0)
(1 9.6161e-16 0)
(1 1.40205e-16 0)
(1 3.95226e-15 0)
(1 1.00699e-15 0)
(1 -6.21095e-15 0)
(1 -2.58613e-15 0)
(1 7.9502e-16 0)
(1 -3.72144e-15 0)
(1 -3.46456e-15 0)
(1 -5.23181e-15 0)
(1 -7.98346e-15 0)
(1 -1.76205e-15 0)
(1 3.2191e-15 0)
(1 -1.83179e-17 0)
(1 -3.74322e-15 0)
(1 -6.146e-16 0)
(1 8.86302e-16 0)
(1 3.0599e-15 0)
(1 -9.48406e-15 0)
(1 -4.14844e-15 0)
(1 -2.03917e-15 0)
(1 1.23856e-14 0)
(1 -7.64797e-15 0)
(1 -9.94773e-16 0)
(1 -4.7576e-15 0)
(1 1.20068e-16 0)
(1 7.47941e-16 0)
(1 -5.36918e-15 0)
(1 3.85744e-15 0)
(1 -1.35037e-15 0)
(1 -2.3279e-15 0)
(1 2.55023e-16 0)
(1 -4.79391e-15 0)
(1 -2.97365e-15 0)
(1 2.05186e-15 0)
(1 1.32973e-14 0)
(1 4.48836e-15 0)
(1 5.55624e-15 0)
(1 -1.36263e-15 0)
(1 -4.17575e-15 0)
(1 2.02701e-15 0)
(1 -3.37042e-15 0)
(1 -5.95146e-15 0)
(1 -1.80178e-14 0)
(1 3.5766e-16 0)
(1 1.11389e-14 0)
(1 9.13926e-15 0)
(1 1.07895e-15 0)
(1 1.05803e-14 0)
(1 1.02813e-14 0)
(1 2.02417e-15 0)
(1 2.19308e-15 0)
(1 -1.4564e-15 0)
(1 -7.52755e-16 0)
(1 6.2313e-16 0)
(1 6.08036e-16 0)
(1 2.14099e-15 0)
(1 -9.18907e-15 0)
(1 8.65576e-15 0)
(1 8.5833e-15 0)
(1 8.55551e-15 0)
(1 6.77588e-15 0)
(1 3.97363e-15 0)
(1 3.32318e-15 0)
(1 3.1145e-15 0)
(1 -7.58411e-15 0)
(1 3.59928e-16 0)
(1 6.62018e-15 0)
(1 3.37707e-16 0)
(1 -7.07472e-16 0)
(1 1.57955e-15 0)
(1 3.24092e-15 0)
(1 -4.99549e-16 0)
(1 4.86817e-15 0)
(1 -6.05222e-15 0)
(1 -7.58797e-15 0)
(1 2.07974e-15 0)
(1 -3.23223e-15 0)
(1 -5.17859e-15 0)