/*--------------------------------*- C++ -*----------------------------------*\
| =========                 |                                                 |
| \\      /  F ield         | OpenFOAM: The Open Source CFD Toolbox           |
|  \\    /   O peration     | Version:  v2012                                 |
|   \\  /    A nd           | Website:  www.openfoam.com                      |
|    \\/     M anipulation  |                                                 |
\*---------------------------------------------------------------------------*/
FoamFile
{
    version     2.0;
    format      ascii;
    class       volVectorField;
    location    "70";
    object      Usup;
}
// * * * * * * * * * * * * * * * * * * * * * * * * * * * * * * * * * * * * * //

dimensions      [0 1 -1 0 0 0 0];


internalField   nonuniform List<vector> 
4000
(
(-1.31009e-16 -6.42364e-17 0)
(-1.51139e-16 -2.99876e-16 0)
(-2.87706e-16 -8.69889e-16 0)
(-9.7212e-16 -1.37627e-15 0)
(-1.58318e-15 -1.54664e-15 0)
(-1.7463e-15 -1.81858e-15 0)
(-1.81115e-15 -2.05973e-15 0)
(-2.40654e-15 -2.345e-15 0)
(-3.00258e-15 -2.32246e-15 0)
(-3.10511e-15 -2.65732e-15 0)
(-3.68761e-15 -3.33536e-15 0)
(-4.33604e-15 -3.22189e-15 0)
(-4.64407e-15 -2.81358e-15 0)
(-5.18401e-15 -2.65801e-15 0)
(-5.35032e-15 -2.57688e-15 0)
(-5.35823e-15 -2.28404e-15 0)
(-5.70186e-15 -2.11989e-15 0)
(-5.72947e-15 -2.34527e-15 0)
(-5.27593e-15 -2.41408e-15 0)
(-5.10948e-15 -2.83336e-15 0)
(-4.93986e-15 -2.59475e-15 0)
(-4.58198e-15 -2.73056e-15 0)
(-4.60837e-15 -3.19733e-15 0)
(-4.08146e-15 -2.98203e-15 0)
(-3.40003e-15 -2.73811e-15 0)
(-2.98041e-15 -2.27438e-15 0)
(-2.77773e-15 -2.27541e-15 0)
(-3.05298e-15 -2.29186e-15 0)
(-3.2676e-15 -2.10524e-15 0)
(-2.80544e-15 -1.75284e-15 0)
(-1.59132e-15 -1.21027e-15 0)
(-5.33749e-16 -1.24817e-15 0)
(-2.57974e-16 -1.51839e-15 0)
(-5.3214e-16 -1.18837e-15 0)
(-3.14241e-16 -8.72775e-16 0)
(-1.79673e-16 -1.00256e-15 0)
(-5.70251e-16 -8.00255e-16 0)
(-1.81606e-16 -3.22097e-16 0)
(8.89974e-16 -5.2166e-16 0)
(1.83933e-15 -7.69469e-16 0)
(2.33215e-15 -7.50779e-16 0)
(2.59356e-15 -5.08508e-16 0)
(2.46981e-15 -6.91905e-16 0)
(2.24155e-15 -6.90048e-16 0)
(2.60892e-15 -5.89711e-16 0)
(3.26306e-15 -6.13931e-16 0)
(3.48606e-15 -6.59818e-16 0)
(3.84988e-15 -3.36877e-16 0)
(4.57971e-15 -1.97219e-16 0)
(4.67508e-15 -3.82742e-16 0)
(4.64606e-15 -3.15485e-16 0)
(5.20085e-15 -4.80406e-16 0)
(5.84491e-15 -2.55338e-16 0)
(6.20055e-15 2.51508e-17 0)
(6.41044e-15 -1.37063e-16 0)
(6.29389e-15 -1.24135e-16 0)
(6.33764e-15 -2.31997e-16 0)
(6.58443e-15 -1.84138e-16 0)
(6.56059e-15 -3.70952e-16 0)
(6.23256e-15 -3.9708e-16 0)
(5.81973e-15 -3.21105e-16 0)
(5.73056e-15 -3.89462e-16 0)
(5.61511e-15 -7.17299e-16 0)
(5.36726e-15 -6.07616e-16 0)
(5.50258e-15 -6.06731e-16 0)
(6.07768e-15 -7.17878e-16 0)
(6.38491e-15 -8.0936e-16 0)
(6.41153e-15 -6.39653e-16 0)
(6.32838e-15 -6.95474e-16 0)
(6.26184e-15 -5.38781e-16 0)
(6.61639e-15 -4.94497e-16 0)
(6.62195e-15 -7.03854e-16 0)
(6.60976e-15 -6.30936e-16 0)
(6.97959e-15 -6.90861e-16 0)
(7.15377e-15 -9.02021e-16 0)
(7.25588e-15 -8.97819e-16 0)
(6.79399e-15 -9.3646e-16 0)
(6.32926e-15 -7.57182e-16 0)
(6.68849e-15 -6.7848e-16 0)
(7.02891e-15 -8.46176e-16 0)
(7.21665e-15 -8.87112e-16 0)
(7.10582e-15 -9.19717e-16 0)
(6.7818e-15 -6.60345e-16 0)
(6.74212e-15 -6.76763e-16 0)
(6.62631e-15 -8.98251e-16 0)
(6.41659e-15 -7.75997e-16 0)
(6.32019e-15 -6.4605e-16 0)
(6.69514e-15 -4.3556e-16 0)
(7.0492e-15 -5.42361e-16 0)
(6.79583e-15 -5.21503e-16 0)
(6.07965e-15 -5.58856e-16 0)
(5.41473e-15 -2.47697e-16 0)
(4.69898e-15 -2.97361e-16 0)
(4.03814e-15 -2.62848e-16 0)
(4.03043e-15 -2.15451e-16 0)
(3.63509e-15 -3.46829e-16 0)
(2.90976e-15 -1.70171e-16 0)
(2.56031e-15 2.65072e-16 0)
(2.00234e-15 3.3132e-16 0)
(8.42548e-16 4.31157e-17 0)
(-3.21469e-16 -2.84269e-16 0)
(-8.52002e-16 -1.14055e-15 0)
(-1.64171e-15 -2.72882e-15 0)
(-2.96354e-15 -3.94536e-15 0)
(-4.31573e-15 -4.61714e-15 0)
(-5.09758e-15 -5.50036e-15 0)
(-5.67395e-15 -6.3152e-15 0)
(-6.95927e-15 -7.07224e-15 0)
(-8.49827e-15 -7.28965e-15 0)
(-9.73092e-15 -7.95438e-15 0)
(-1.08975e-14 -9.36511e-15 0)
(-1.17153e-14 -9.21189e-15 0)
(-1.27159e-14 -8.52137e-15 0)
(-1.42451e-14 -8.14438e-15 0)
(-1.47262e-14 -7.73412e-15 0)
(-1.48992e-14 -7.203e-15 0)
(-1.59573e-14 -6.93995e-15 0)
(-1.61603e-14 -7.11698e-15 0)
(-1.54232e-14 -7.50908e-15 0)
(-1.46963e-14 -8.5882e-15 0)
(-1.39604e-14 -8.35699e-15 0)
(-1.36404e-14 -8.34929e-15 0)
(-1.30779e-14 -8.90284e-15 0)
(-1.1277e-14 -8.51539e-15 0)
(-9.50147e-15 -7.96028e-15 0)
(-8.58048e-15 -7.01744e-15 0)
(-8.35568e-15 -6.72643e-15 0)
(-8.51046e-15 -6.55254e-15 0)
(-8.34323e-15 -5.8247e-15 0)
(-6.80333e-15 -5.01656e-15 0)
(-4.36009e-15 -4.13371e-15 0)
(-2.50917e-15 -3.94985e-15 0)
(-1.31325e-15 -4.22024e-15 0)
(-1.0522e-15 -3.60487e-15 0)
(-8.56398e-16 -2.63716e-15 0)
(-5.55527e-16 -2.58013e-15 0)
(-4.82572e-16 -2.39853e-15 0)
(3.20276e-16 -1.75607e-15 0)
(2.23606e-15 -1.89047e-15 0)
(4.6899e-15 -2.11796e-15 0)
(6.4468e-15 -1.87439e-15 0)
(7.08527e-15 -1.57151e-15 0)
(6.91275e-15 -2.02141e-15 0)
(6.96126e-15 -2.00188e-15 0)
(7.87141e-15 -1.99217e-15 0)
(9.26086e-15 -1.81455e-15 0)
(1.03559e-14 -1.67517e-15 0)
(1.15693e-14 -1.0428e-15 0)
(1.28258e-14 -7.75515e-16 0)
(1.33167e-14 -8.84263e-16 0)
(1.36529e-14 -7.71423e-16 0)
(1.51022e-14 -1.02304e-15 0)
(1.69511e-14 -8.1586e-16 0)
(1.76415e-14 -4.90476e-16 0)
(1.80246e-14 -4.90478e-16 0)
(1.80153e-14 -4.4582e-16 0)
(1.82058e-14 -5.78682e-16 0)
(1.86023e-14 -6.4778e-16 0)
(1.84661e-14 -8.72367e-16 0)
(1.79575e-14 -1.02062e-15 0)
(1.70515e-14 -1.08761e-15 0)
(1.64338e-14 -1.5425e-15 0)
(1.62631e-14 -2.14362e-15 0)
(1.60858e-14 -1.95558e-15 0)
(1.62751e-14 -1.86425e-15 0)
(1.73826e-14 -1.81382e-15 0)
(1.83255e-14 -2.03194e-15 0)
(1.85281e-14 -2.10466e-15 0)
(1.84462e-14 -1.95515e-15 0)
(1.85044e-14 -1.97452e-15 0)
(1.89178e-14 -1.93905e-15 0)
(1.90779e-14 -2.15864e-15 0)
(1.93073e-14 -2.19534e-15 0)
(1.98454e-14 -2.19434e-15 0)
(2.03006e-14 -2.65913e-15 0)
(2.05647e-14 -2.73489e-15 0)
(1.98076e-14 -2.58643e-15 0)
(1.90443e-14 -2.09602e-15 0)
(1.94067e-14 -1.96646e-15 0)
(2.00136e-14 -2.38371e-15 0)
(2.04904e-14 -2.45859e-15 0)
(2.0477e-14 -2.60578e-15 0)
(1.98366e-14 -2.21381e-15 0)
(1.92644e-14 -2.24284e-15 0)
(1.90375e-14 -2.6248e-15 0)
(1.88332e-14 -2.28672e-15 0)
(1.87037e-14 -1.7321e-15 0)
(1.91623e-14 -1.26904e-15 0)
(1.95432e-14 -1.6688e-15 0)
(1.88907e-14 -1.73569e-15 0)
(1.74014e-14 -1.71102e-15 0)
(1.56237e-14 -1.11937e-15 0)
(1.35535e-14 -9.63382e-16 0)
(1.19392e-14 -6.75872e-16 0)
(1.1235e-14 -5.20877e-16 0)
(1.01047e-14 -7.3784e-16 0)
(8.68289e-15 -3.09785e-16 0)
(7.27399e-15 5.08414e-16 0)
(4.93836e-15 7.59148e-16 0)
(1.86256e-15 1.02368e-16 0)
(-5.7047e-16 -6.49534e-16 0)
(-1.82662e-15 -2.22198e-15 0)
(-3.2042e-15 -4.43955e-15 0)
(-4.90736e-15 -6.59141e-15 0)
(-6.96964e-15 -8.07557e-15 0)
(-8.45939e-15 -9.33897e-15 0)
(-9.56521e-15 -1.06512e-14 0)
(-1.13762e-14 -1.17016e-14 0)
(-1.36018e-14 -1.24982e-14 0)
(-1.59025e-14 -1.34246e-14 0)
(-1.75917e-14 -1.45318e-14 0)
(-1.84646e-14 -1.44483e-14 0)
(-2.00166e-14 -1.40755e-14 0)
(-2.21224e-14 -1.39101e-14 0)
(-2.30126e-14 -1.28068e-14 0)
(-2.36309e-14 -1.24089e-14 0)
(-2.50443e-14 -1.24188e-14 0)
(-2.55651e-14 -1.22539e-14 0)
(-2.51213e-14 -1.31058e-14 0)
(-2.38884e-14 -1.45246e-14 0)
(-2.22394e-14 -1.46428e-14 0)
(-2.15843e-14 -1.41372e-14 0)
(-2.05949e-14 -1.38763e-14 0)
(-1.79113e-14 -1.33814e-14 0)
(-1.52395e-14 -1.2818e-14 0)
(-1.37676e-14 -1.22232e-14 0)
(-1.33634e-14 -1.1522e-14 0)
(-1.3101e-14 -1.07417e-14 0)
(-1.24002e-14 -9.49026e-15 0)
(-1.02975e-14 -8.11958e-15 0)
(-6.9762e-15 -7.36016e-15 0)
(-4.37557e-15 -6.77539e-15 0)
(-2.49133e-15 -6.44483e-15 0)
(-1.40247e-15 -5.98683e-15 0)
(-9.32667e-16 -4.7182e-15 0)
(-8.06321e-16 -4.22344e-15 0)
(-4.36517e-16 -4.01118e-15 0)
(1.085e-15 -3.7255e-15 0)
(3.88745e-15 -3.68557e-15 0)
(7.4677e-15 -3.56962e-15 0)
(1.00424e-14 -2.82524e-15 0)
(1.08586e-14 -2.45845e-15 0)
(1.09754e-14 -2.79523e-15 0)
(1.14467e-14 -3.19931e-15 0)
(1.29966e-14 -3.44891e-15 0)
(1.52404e-14 -3.05157e-15 0)
(1.70278e-14 -2.39721e-15 0)
(1.88483e-14 -1.32518e-15 0)
(2.06204e-14 -1.10713e-15 0)
(2.15673e-14 -1.46894e-15 0)
(2.22562e-14 -1.36172e-15 0)
(2.42843e-14 -1.14265e-15 0)
(2.68896e-14 -1.11479e-15 0)
(2.82357e-14 -1.1809e-15 0)
(2.89577e-14 -9.08011e-16 0)
(2.89859e-14 -8.0473e-16 0)
(2.92039e-14 -8.11969e-16 0)
(2.97037e-14 -1.14934e-15 0)
(2.95222e-14 -1.38511e-15 0)
(2.8722e-14 -1.7134e-15 0)
(2.73503e-14 -2.34717e-15 0)
(2.64521e-14 -2.68194e-15 0)
(2.64983e-14 -2.95171e-15 0)
(2.65402e-14 -3.36997e-15 0)
(2.69549e-14 -3.24985e-15 0)
(2.82532e-14 -3.10646e-15 0)
(2.92016e-14 -3.53133e-15 0)
(2.98186e-14 -3.93182e-15 0)
(2.98764e-14 -3.61552e-15 0)
(2.98847e-14 -3.52239e-15 0)
(3.06218e-14 -3.37652e-15 0)
(3.08593e-14 -3.57898e-15 0)
(3.12954e-14 -3.52766e-15 0)
(3.19523e-14 -3.74743e-15 0)
(3.24531e-14 -4.46266e-15 0)
(3.30483e-14 -4.60848e-15 0)
(3.23852e-14 -4.23006e-15 0)
(3.13548e-14 -3.69291e-15 0)
(3.13991e-14 -3.36777e-15 0)
(3.21127e-14 -3.73455e-15 0)
(3.27726e-14 -3.8901e-15 0)
(3.27981e-14 -4.03478e-15 0)
(3.20329e-14 -4.09408e-15 0)
(3.10657e-14 -4.0394e-15 0)
(3.08156e-14 -4.34204e-15 0)
(3.08493e-14 -3.91928e-15 0)
(3.06353e-14 -3.04801e-15 0)
(3.05737e-14 -2.31791e-15 0)
(3.06123e-14 -2.78139e-15 0)
(2.97843e-14 -3.05736e-15 0)
(2.7798e-14 -2.88419e-15 0)
(2.52107e-14 -2.19183e-15 0)
(2.21557e-14 -1.71797e-15 0)
(1.95663e-14 -9.85384e-16 0)
(1.78608e-14 -6.78271e-16 0)
(1.59822e-14 -7.2919e-16 0)
(1.39032e-14 -1.69591e-16 0)
(1.1405e-14 3.55052e-16 0)
(7.29838e-15 4.07963e-16 0)
(2.53759e-15 4.55339e-17 0)
(-8.01672e-16 -1.13654e-15 0)
(-2.71914e-15 -3.39904e-15 0)
(-5.03738e-15 -6.34836e-15 0)
(-7.2905e-15 -9.53835e-15 0)
(-9.50514e-15 -1.16955e-14 0)
(-1.15012e-14 -1.29327e-14 0)
(-1.32278e-14 -1.46315e-14 0)
(-1.56281e-14 -1.60894e-14 0)
(-1.85985e-14 -1.7581e-14 0)
(-2.1468e-14 -1.89513e-14 0)
(-2.34059e-14 -1.96244e-14 0)
(-2.46376e-14 -1.96856e-14 0)
(-2.68867e-14 -1.92363e-14 0)
(-2.90259e-14 -1.91895e-14 0)
(-3.01608e-14 -1.8225e-14 0)
(-3.17082e-14 -1.79601e-14 0)
(-3.33309e-14 -1.7755e-14 0)
(-3.41857e-14 -1.76666e-14 0)
(-3.42551e-14 -1.89451e-14 0)
(-3.25031e-14 -2.03788e-14 0)
(-2.97547e-14 -2.08938e-14 0)
(-2.84246e-14 -2.04088e-14 0)
(-2.70764e-14 -1.97179e-14 0)
(-2.39783e-14 -1.82889e-14 0)
(-2.0928e-14 -1.70973e-14 0)
(-1.88557e-14 -1.66483e-14 0)
(-1.77027e-14 -1.61422e-14 0)
(-1.68754e-14 -1.49211e-14 0)
(-1.55143e-14 -1.33554e-14 0)
(-1.30028e-14 -1.1452e-14 0)
(-9.2925e-15 -1.03399e-14 0)
(-5.98105e-15 -9.38929e-15 0)
(-3.6384e-15 -8.51525e-15 0)
(-1.90521e-15 -8.02187e-15 0)
(-9.45727e-16 -7.04546e-15 0)
(-7.21126e-16 -6.35631e-15 0)
(-6.68512e-17 -5.80338e-15 0)
(1.86899e-15 -5.78974e-15 0)
(5.43293e-15 -5.58382e-15 0)
(1.02159e-14 -5.02248e-15 0)
(1.36334e-14 -4.04501e-15 0)
(1.45518e-14 -3.55431e-15 0)
(1.45439e-14 -3.56965e-15 0)
(1.53399e-14 -4.15345e-15 0)
(1.78249e-14 -4.05054e-15 0)
(2.10907e-14 -3.7315e-15 0)
(2.38645e-14 -3.04519e-15 0)
(2.59919e-14 -1.72242e-15 0)
(2.74662e-14 -1.44139e-15 0)
(2.89066e-14 -1.6774e-15 0)
(3.06332e-14 -1.44265e-15 0)
(3.31859e-14 -1.08716e-15 0)
(3.60188e-14 -1.0662e-15 0)
(3.78602e-14 -1.65e-15 0)
(3.90435e-14 -1.69722e-15 0)
(3.92131e-14 -1.46307e-15 0)
(3.93613e-14 -1.4383e-15 0)
(3.97901e-14 -1.96955e-15 0)
(3.96045e-14 -2.41437e-15 0)
(3.84715e-14 -2.61271e-15 0)
(3.71316e-14 -3.47014e-15 0)
(3.64735e-14 -3.70048e-15 0)
(3.60437e-14 -3.96436e-15 0)
(3.61062e-14 -4.55436e-15 0)
(3.69989e-14 -4.48188e-15 0)
(3.82831e-14 -4.63696e-15 0)
(3.93502e-14 -5.4181e-15 0)
(4.04303e-14 -6.04751e-15 0)
(4.09215e-14 -5.88683e-15 0)
(4.10837e-14 -5.12908e-15 0)
(4.16351e-14 -4.89418e-15 0)
(4.20185e-14 -5.21593e-15 0)
(4.25296e-14 -4.95865e-15 0)
(4.288e-14 -5.25489e-15 0)
(4.36396e-14 -6.10325e-15 0)
(4.47251e-14 -6.32626e-15 0)
(4.41908e-14 -6.31042e-15 0)
(4.31454e-14 -5.58639e-15 0)
(4.2968e-14 -5.22997e-15 0)
(4.34605e-14 -5.36847e-15 0)
(4.42074e-14 -5.54444e-15 0)
(4.41098e-14 -5.62525e-15 0)
(4.32707e-14 -5.6927e-15 0)
(4.21774e-14 -5.56457e-15 0)
(4.18549e-14 -5.79506e-15 0)
(4.21461e-14 -5.40005e-15 0)
(4.19849e-14 -4.40805e-15 0)
(4.13447e-14 -3.7164e-15 0)
(4.06764e-14 -3.73169e-15 0)
(3.96247e-14 -4.19116e-15 0)
(3.74317e-14 -3.96601e-15 0)
(3.418e-14 -3.17514e-15 0)
(3.03368e-14 -2.57547e-15 0)
(2.68675e-14 -1.53303e-15 0)
(2.40414e-14 -7.86887e-16 0)
(2.13892e-14 -7.25161e-16 0)
(1.84394e-14 -7.02521e-17 0)
(1.45916e-14 1.16234e-16 0)
(9.22966e-15 -1.25861e-16 0)
(3.27276e-15 -5.26876e-17 0)
(-9.89352e-16 -1.77262e-15 0)
(-3.73012e-15 -4.92413e-15 0)
(-7.03088e-15 -8.48405e-15 0)
(-9.57463e-15 -1.21387e-14 0)
(-1.16553e-14 -1.47699e-14 0)
(-1.41913e-14 -1.61646e-14 0)
(-1.68199e-14 -1.79988e-14 0)
(-1.98976e-14 -2.03692e-14 0)
(-2.34838e-14 -2.26215e-14 0)
(-2.65602e-14 -2.41272e-14 0)
(-2.86699e-14 -2.46159e-14 0)
(-3.00503e-14 -2.47049e-14 0)
(-3.27146e-14 -2.46202e-14 0)
(-3.54632e-14 -2.44205e-14 0)
(-3.69762e-14 -2.41224e-14 0)
(-3.87048e-14 -2.37005e-14 0)
(-4.05927e-14 -2.30433e-14 0)
(-4.22745e-14 -2.33173e-14 0)
(-4.27452e-14 -2.47959e-14 0)
(-4.05793e-14 -2.59481e-14 0)
(-3.70166e-14 -2.68559e-14 0)
(-3.48477e-14 -2.67354e-14 0)
(-3.2432e-14 -2.55345e-14 0)
(-2.84886e-14 -2.31717e-14 0)
(-2.55666e-14 -2.16014e-14 0)
(-2.36872e-14 -2.06808e-14 0)
(-2.19228e-14 -2.03579e-14 0)
(-2.01568e-14 -1.88169e-14 0)
(-1.80954e-14 -1.6933e-14 0)
(-1.51524e-14 -1.4657e-14 0)
(-1.10942e-14 -1.30635e-14 0)
(-7.25552e-15 -1.17368e-14 0)
(-4.56113e-15 -1.07826e-14 0)
(-2.50752e-15 -9.83645e-15 0)
(-1.08811e-15 -9.34721e-15 0)
(-4.80228e-16 -8.87027e-15 0)
(2.68129e-16 -8.07078e-15 0)
(2.69486e-15 -7.54373e-15 0)
(7.33228e-15 -6.83389e-15 0)
(1.29509e-14 -6.06134e-15 0)
(1.67699e-14 -5.77852e-15 0)
(1.791e-14 -5.46703e-15 0)
(1.80909e-14 -5.05695e-15 0)
(1.9465e-14 -4.58848e-15 0)
(2.26247e-14 -3.7435e-15 0)
(2.63645e-14 -3.41091e-15 0)
(2.99815e-14 -3.2491e-15 0)
(3.26189e-14 -2.59086e-15 0)
(3.43526e-14 -2.13016e-15 0)
(3.62683e-14 -1.62957e-15 0)
(3.83518e-14 -1.10459e-15 0)
(4.12326e-14 -8.0881e-16 0)
(4.41351e-14 -1.22956e-15 0)
(4.62693e-14 -2.31353e-15 0)
(4.82232e-14 -2.66312e-15 0)
(4.87299e-14 -2.53928e-15 0)
(4.8679e-14 -2.61471e-15 0)
(4.90082e-14 -3.20766e-15 0)
(4.90695e-14 -3.49199e-15 0)
(4.77937e-14 -3.5624e-15 0)
(4.6156e-14 -4.10354e-15 0)
(4.55001e-14 -4.74851e-15 0)
(4.51754e-14 -5.54724e-15 0)
(4.54897e-14 -5.80728e-15 0)
(4.64514e-14 -5.95677e-15 0)
(4.75103e-14 -6.48903e-15 0)
(4.85011e-14 -7.29465e-15 0)
(5.01181e-14 -8.15695e-15 0)
(5.14381e-14 -8.11476e-15 0)
(5.1743e-14 -7.05354e-15 0)
(5.19694e-14 -6.57706e-15 0)
(5.24891e-14 -6.39392e-15 0)
(5.32034e-14 -6.38566e-15 0)
(5.33097e-14 -6.74218e-15 0)
(5.40391e-14 -7.20885e-15 0)
(5.52965e-14 -7.78023e-15 0)
(5.52084e-14 -8.25157e-15 0)
(5.43154e-14 -7.62173e-15 0)
(5.37595e-14 -7.31257e-15 0)
(5.41694e-14 -7.16306e-15 0)
(5.48821e-14 -7.11034e-15 0)
(5.48456e-14 -7.33481e-15 0)
(5.39668e-14 -7.13773e-15 0)
(5.25687e-14 -6.99223e-15 0)
(5.21741e-14 -6.72799e-15 0)
(5.27565e-14 -6.29812e-15 0)
(5.24383e-14 -5.57013e-15 0)
(5.13157e-14 -5.21103e-15 0)
(5.00128e-14 -4.93006e-15 0)
(4.85083e-14 -5.26669e-15 0)
(4.62191e-14 -4.93881e-15 0)
(4.24427e-14 -4.23448e-15 0)
(3.79873e-14 -3.48951e-15 0)
(3.39055e-14 -2.32888e-15 0)
(2.99025e-14 -1.23341e-15 0)
(2.62698e-14 -8.55699e-16 0)
(2.24256e-14 -6.29092e-16 0)
(1.72576e-14 -4.66654e-16 0)
(1.08343e-14 -4.17227e-16 0)
(3.8521e-15 -1.7734e-16 0)
(-1.23299e-15 -2.32572e-15 0)
(-4.57892e-15 -6.79278e-15 0)
(-8.68593e-15 -1.06249e-14 0)
(-1.17131e-14 -1.41564e-14 0)
(-1.37141e-14 -1.73342e-14 0)
(-1.6524e-14 -1.93656e-14 0)
(-2.03384e-14 -2.15011e-14 0)
(-2.44183e-14 -2.43836e-14 0)
(-2.81096e-14 -2.704e-14 0)
(-3.09997e-14 -2.85489e-14 0)
(-3.31784e-14 -2.93958e-14 0)
(-3.52014e-14 -2.94739e-14 0)
(-3.83284e-14 -2.99883e-14 0)
(-4.12437e-14 -2.9546e-14 0)
(-4.29531e-14 -2.95728e-14 0)
(-4.47712e-14 -2.97828e-14 0)
(-4.72383e-14 -2.89709e-14 0)
(-4.97712e-14 -2.94042e-14 0)
(-5.03766e-14 -3.0638e-14 0)
(-4.79284e-14 -3.14839e-14 0)
(-4.38318e-14 -3.23387e-14 0)
(-4.04178e-14 -3.18409e-14 0)
(-3.67797e-14 -2.95307e-14 0)
(-3.26578e-14 -2.76037e-14 0)
(-2.98532e-14 -2.64178e-14 0)
(-2.78923e-14 -2.52473e-14 0)
(-2.55175e-14 -2.46959e-14 0)
(-2.27807e-14 -2.26256e-14 0)
(-2.00184e-14 -2.00001e-14 0)
(-1.66788e-14 -1.7245e-14 0)
(-1.24806e-14 -1.56198e-14 0)
(-8.45778e-15 -1.43218e-14 0)
(-5.34759e-15 -1.30765e-14 0)
(-3.05322e-15 -1.19603e-14 0)
(-1.60247e-15 -1.18261e-14 0)
(-3.15795e-16 -1.16993e-14 0)
(1.28111e-15 -1.05831e-14 0)
(4.21924e-15 -8.82449e-15 0)
(9.18126e-15 -7.88638e-15 0)
(1.48966e-14 -7.59134e-15 0)
(1.91281e-14 -7.91172e-15 0)
(2.11496e-14 -7.52465e-15 0)
(2.21472e-14 -6.66238e-15 0)
(2.41202e-14 -4.97004e-15 0)
(2.74164e-14 -3.64677e-15 0)
(3.11545e-14 -2.69471e-15 0)
(3.51689e-14 -2.53751e-15 0)
(3.85274e-14 -2.69165e-15 0)
(4.08821e-14 -2.56783e-15 0)
(4.33113e-14 -1.95172e-15 0)
(4.57926e-14 -1.24729e-15 0)
(4.85473e-14 -6.54462e-16 0)
(5.12165e-14 -1.3665e-15 0)
(5.38474e-14 -2.82764e-15 0)
(5.65022e-14 -3.41087e-15 0)
(5.73004e-14 -3.62081e-15 0)
(5.72207e-14 -3.82379e-15 0)
(5.76763e-14 -4.51905e-15 0)
(5.79234e-14 -4.74984e-15 0)
(5.65349e-14 -5.18155e-15 0)
(5.46523e-14 -5.48238e-15 0)
(5.37034e-14 -5.91724e-15 0)
(5.35177e-14 -6.69993e-15 0)
(5.41167e-14 -7.38627e-15 0)
(5.4995e-14 -7.89918e-15 0)
(5.60817e-14 -8.80962e-15 0)
(5.72111e-14 -9.37731e-15 0)
(5.9187e-14 -9.84375e-15 0)
(6.13318e-14 -9.79996e-15 0)
(6.20458e-14 -8.87612e-15 0)
(6.21938e-14 -7.88011e-15 0)
(6.24656e-14 -7.39661e-15 0)
(6.27995e-14 -7.52038e-15 0)
(6.29983e-14 -8.15809e-15 0)
(6.3732e-14 -8.342e-15 0)
(6.48505e-14 -8.95785e-15 0)
(6.51512e-14 -9.63886e-15 0)
(6.4622e-14 -9.93342e-15 0)
(6.40848e-14 -9.54061e-15 0)
(6.43965e-14 -8.84038e-15 0)
(6.48223e-14 -8.28683e-15 0)
(6.46877e-14 -8.4775e-15 0)
(6.38877e-14 -8.33996e-15 0)
(6.25561e-14 -8.15881e-15 0)
(6.21164e-14 -7.75454e-15 0)
(6.23958e-14 -7.4556e-15 0)
(6.18096e-14 -7.06919e-15 0)
(6.04131e-14 -6.53299e-15 0)
(5.86513e-14 -6.20632e-15 0)
(5.68011e-14 -6.14628e-15 0)
(5.4276e-14 -5.6649e-15 0)
(5.00314e-14 -5.16988e-15 0)
(4.50981e-14 -4.17642e-15 0)
(4.03979e-14 -3.14879e-15 0)
(3.54618e-14 -2.16083e-15 0)
(3.05363e-14 -1.35312e-15 0)
(2.56566e-14 -1.45688e-15 0)
(1.97621e-14 -1.17826e-15 0)
(1.23754e-14 -7.49916e-16 0)
(4.41496e-15 -2.42725e-16 0)
(-1.75966e-15 -2.744e-15 0)
(-5.61023e-15 -8.25353e-15 0)
(-9.79951e-15 -1.28262e-14 0)
(-1.33785e-14 -1.61256e-14 0)
(-1.58194e-14 -1.9503e-14 0)
(-1.89953e-14 -2.23996e-14 0)
(-2.36128e-14 -2.49167e-14 0)
(-2.84083e-14 -2.7681e-14 0)
(-3.22857e-14 -3.05513e-14 0)
(-3.52866e-14 -3.21717e-14 0)
(-3.75449e-14 -3.3489e-14 0)
(-3.98021e-14 -3.44244e-14 0)
(-4.30915e-14 -3.50278e-14 0)
(-4.63464e-14 -3.48407e-14 0)
(-4.90357e-14 -3.46722e-14 0)
(-5.06649e-14 -3.51258e-14 0)
(-5.305e-14 -3.49111e-14 0)
(-5.63771e-14 -3.52956e-14 0)
(-5.7109e-14 -3.59063e-14 0)
(-5.44664e-14 -3.63608e-14 0)
(-4.95853e-14 -3.63973e-14 0)
(-4.46429e-14 -3.6079e-14 0)
(-4.06279e-14 -3.38026e-14 0)
(-3.68721e-14 -3.25308e-14 0)
(-3.38089e-14 -3.13491e-14 0)
(-3.16793e-14 -3.00415e-14 0)
(-2.8534e-14 -2.8427e-14 0)
(-2.44997e-14 -2.55423e-14 0)
(-2.11163e-14 -2.24059e-14 0)
(-1.79796e-14 -2.00278e-14 0)
(-1.39783e-14 -1.81983e-14 0)
(-9.39884e-15 -1.6851e-14 0)
(-5.88418e-15 -1.52143e-14 0)
(-3.77293e-15 -1.41492e-14 0)
(-2.24899e-15 -1.43541e-14 0)
(-8.41253e-17 -1.41395e-14 0)
(2.75148e-15 -1.31274e-14 0)
(6.03034e-15 -1.12947e-14 0)
(1.06597e-14 -9.70002e-15 0)
(1.64406e-14 -9.31213e-15 0)
(2.13643e-14 -9.48954e-15 0)
(2.43262e-14 -8.9579e-15 0)
(2.63459e-14 -7.89456e-15 0)
(2.89107e-14 -5.73212e-15 0)
(3.23971e-14 -3.83867e-15 0)
(3.61818e-14 -2.44401e-15 0)
(3.99047e-14 -2.20216e-15 0)
(4.34394e-14 -2.80984e-15 0)
(4.66455e-14 -2.91264e-15 0)
(4.98583e-14 -1.98779e-15 0)
(5.27607e-14 -1.3442e-15 0)
(5.54053e-14 -9.64764e-16 0)
(5.7548e-14 -1.9077e-15 0)
(6.04343e-14 -3.1254e-15 0)
(6.38461e-14 -3.88785e-15 0)
(6.50457e-14 -4.71573e-15 0)
(6.49373e-14 -4.82234e-15 0)
(6.54392e-14 -5.26019e-15 0)
(6.57842e-14 -6.35903e-15 0)
(6.44625e-14 -7.49367e-15 0)
(6.27852e-14 -7.72427e-15 0)
(6.17429e-14 -7.6761e-15 0)
(6.12426e-14 -8.12713e-15 0)
(6.1833e-14 -9.00617e-15 0)
(6.27893e-14 -9.75129e-15 0)
(6.40321e-14 -1.06751e-14 0)
(6.55965e-14 -1.11762e-14 0)
(6.7901e-14 -1.08439e-14 0)
(7.04651e-14 -1.07437e-14 0)
(7.16841e-14 -1.04282e-14 0)
(7.17986e-14 -9.90182e-15 0)
(7.16966e-14 -9.39087e-15 0)
(7.17709e-14 -9.38671e-15 0)
(7.19895e-14 -1.00318e-14 0)
(7.28406e-14 -1.00469e-14 0)
(7.37727e-14 -1.01345e-14 0)
(7.3905e-14 -1.07806e-14 0)
(7.37665e-14 -1.12726e-14 0)
(7.39147e-14 -1.07861e-14 0)
(7.44073e-14 -1.00959e-14 0)
(7.43857e-14 -9.58472e-15 0)
(7.38951e-14 -9.31264e-15 0)
(7.30718e-14 -9.56993e-15 0)
(7.15968e-14 -9.69337e-15 0)
(7.09706e-14 -9.45073e-15 0)
(7.1181e-14 -9.02327e-15 0)
(7.06323e-14 -8.48898e-15 0)
(6.89846e-14 -7.74165e-15 0)
(6.67152e-14 -7.1687e-15 0)
(6.45187e-14 -6.98234e-15 0)
(6.15429e-14 -6.43534e-15 0)
(5.69673e-14 -5.77628e-15 0)
(5.16037e-14 -4.68005e-15 0)
(4.61313e-14 -3.85265e-15 0)
(4.05038e-14 -2.91185e-15 0)
(3.45067e-14 -1.94258e-15 0)
(2.85911e-14 -1.79469e-15 0)
(2.20029e-14 -1.63571e-15 0)
(1.3807e-14 -1.18609e-15 0)
(4.83932e-15 -3.64717e-16 0)
(-2.19526e-15 -3.25813e-15 0)
(-6.69634e-15 -9.25174e-15 0)
(-1.08714e-14 -1.43406e-14 0)
(-1.45916e-14 -1.83117e-14 0)
(-1.77765e-14 -2.13304e-14 0)
(-2.13598e-14 -2.49537e-14 0)
(-2.64244e-14 -2.78109e-14 0)
(-3.2064e-14 -3.05811e-14 0)
(-3.61667e-14 -3.32446e-14 0)
(-3.91124e-14 -3.54804e-14 0)
(-4.19196e-14 -3.73555e-14 0)
(-4.4466e-14 -3.90274e-14 0)
(-4.77083e-14 -3.98279e-14 0)
(-5.08666e-14 -4.00006e-14 0)
(-5.3709e-14 -3.97292e-14 0)
(-5.59953e-14 -3.9426e-14 0)
(-5.87488e-14 -4.01545e-14 0)
(-6.20588e-14 -4.04338e-14 0)
(-6.2726e-14 -4.03437e-14 0)
(-5.97234e-14 -4.05291e-14 0)
(-5.48014e-14 -3.98893e-14 0)
(-4.93202e-14 -3.99336e-14 0)
(-4.45187e-14 -3.85388e-14 0)
(-4.06585e-14 -3.75428e-14 0)
(-3.72261e-14 -3.64665e-14 0)
(-3.43105e-14 -3.45521e-14 0)
(-3.01147e-14 -3.13502e-14 0)
(-2.55618e-14 -2.7733e-14 0)
(-2.24151e-14 -2.44037e-14 0)
(-1.92058e-14 -2.25593e-14 0)
(-1.48791e-14 -2.06354e-14 0)
(-1.01006e-14 -1.90869e-14 0)
(-6.33048e-15 -1.79016e-14 0)
(-4.5638e-15 -1.71295e-14 0)
(-2.93505e-15 -1.67569e-14 0)
(5.54402e-17 -1.6075e-14 0)
(3.68766e-15 -1.53528e-14 0)
(7.95805e-15 -1.41238e-14 0)
(1.28116e-14 -1.17656e-14 0)
(1.81911e-14 -1.07523e-14 0)
(2.34674e-14 -1.07948e-14 0)
(2.72902e-14 -1.046e-14 0)
(3.03298e-14 -9.1802e-15 0)
(3.37342e-14 -6.86319e-15 0)
(3.72906e-14 -4.54107e-15 0)
(4.0652e-14 -2.98935e-15 0)
(4.40392e-14 -2.39201e-15 0)
(4.79867e-14 -2.39154e-15 0)
(5.22947e-14 -2.47915e-15 0)
(5.60707e-14 -2.20525e-15 0)
(5.89158e-14 -2.09474e-15 0)
(6.12301e-14 -2.17717e-15 0)
(6.33959e-14 -2.97481e-15 0)
(6.67514e-14 -3.28869e-15 0)
(7.01882e-14 -3.98532e-15 0)
(7.18621e-14 -5.25728e-15 0)
(7.23647e-14 -5.86519e-15 0)
(7.22949e-14 -6.43722e-15 0)
(7.21507e-14 -7.97965e-15 0)
(7.14563e-14 -9.604e-15 0)
(7.04631e-14 -9.82113e-15 0)
(6.93697e-14 -9.43534e-15 0)
(6.85454e-14 -9.9322e-15 0)
(6.9017e-14 -1.08152e-14 0)
(7.00048e-14 -1.22066e-14 0)
(7.14569e-14 -1.27568e-14 0)
(7.37166e-14 -1.28457e-14 0)
(7.63418e-14 -1.20595e-14 0)
(7.86738e-14 -1.19871e-14 0)
(7.98938e-14 -1.20135e-14 0)
(8.03715e-14 -1.19639e-14 0)
(8.04332e-14 -1.14164e-14 0)
(8.00726e-14 -1.12343e-14 0)
(8.03849e-14 -1.16413e-14 0)
(8.16154e-14 -1.1824e-14 0)
(8.2309e-14 -1.1975e-14 0)
(8.23092e-14 -1.23802e-14 0)
(8.25854e-14 -1.23151e-14 0)
(8.28779e-14 -1.17432e-14 0)
(8.31484e-14 -1.12751e-14 0)
(8.31682e-14 -1.08937e-14 0)
(8.23156e-14 -1.05546e-14 0)
(8.10139e-14 -1.0781e-14 0)
(7.97862e-14 -1.09367e-14 0)
(7.94389e-14 -1.08599e-14 0)
(7.95707e-14 -1.02382e-14 0)
(7.87991e-14 -9.69255e-15 0)
(7.69283e-14 -8.92829e-15 0)
(7.41324e-14 -8.37857e-15 0)
(7.14906e-14 -7.92326e-15 0)
(6.83809e-14 -7.40135e-15 0)
(6.34638e-14 -6.48757e-15 0)
(5.746e-14 -5.51105e-15 0)
(5.13552e-14 -4.43027e-15 0)
(4.51445e-14 -3.30647e-15 0)
(3.81586e-14 -2.34383e-15 0)
(3.10947e-14 -2.10179e-15 0)
(2.37156e-14 -1.96341e-15 0)
(1.49937e-14 -1.60012e-15 0)
(5.33622e-15 -7.73057e-16 0)
(-2.53824e-15 -3.63764e-15 0)
(-7.46219e-15 -9.99052e-15 0)
(-1.19667e-14 -1.50808e-14 0)
(-1.56353e-14 -1.94254e-14 0)
(-1.93077e-14 -2.31896e-14 0)
(-2.37618e-14 -2.69526e-14 0)
(-2.90779e-14 -3.05175e-14 0)
(-3.49968e-14 -3.32431e-14 0)
(-3.9689e-14 -3.54149e-14 0)
(-4.32553e-14 -3.89142e-14 0)
(-4.61727e-14 -4.13222e-14 0)
(-4.86283e-14 -4.27933e-14 0)
(-5.17011e-14 -4.36566e-14 0)
(-5.49343e-14 -4.42111e-14 0)
(-5.79063e-14 -4.44927e-14 0)
(-6.07607e-14 -4.41225e-14 0)
(-6.3917e-14 -4.48715e-14 0)
(-6.68374e-14 -4.46221e-14 0)
(-6.75537e-14 -4.39707e-14 0)
(-6.44309e-14 -4.41441e-14 0)
(-5.92541e-14 -4.37905e-14 0)
(-5.3462e-14 -4.34962e-14 0)
(-4.8298e-14 -4.31401e-14 0)
(-4.4317e-14 -4.20653e-14 0)
(-4.00603e-14 -4.05102e-14 0)
(-3.58061e-14 -3.75984e-14 0)
(-3.0811e-14 -3.38479e-14 0)
(-2.60453e-14 -3.01919e-14 0)
(-2.32775e-14 -2.69797e-14 0)
(-2.04325e-14 -2.46466e-14 0)
(-1.58661e-14 -2.27842e-14 0)
(-1.10328e-14 -2.14251e-14 0)
(-7.30207e-15 -2.09364e-14 0)
(-5.01979e-15 -2.06439e-14 0)
(-2.80333e-15 -1.95454e-14 0)
(3.85027e-16 -1.84431e-14 0)
(4.4151e-15 -1.70677e-14 0)
(9.72581e-15 -1.57552e-14 0)
(1.50562e-14 -1.40456e-14 0)
(1.99408e-14 -1.27968e-14 0)
(2.5219e-14 -1.23447e-14 0)
(2.99765e-14 -1.18602e-14 0)
(3.42475e-14 -1.01915e-14 0)
(3.83553e-14 -7.78258e-15 0)
(4.20523e-14 -5.79763e-15 0)
(4.53449e-14 -3.84027e-15 0)
(4.87036e-14 -2.67513e-15 0)
(5.25046e-14 -2.24259e-15 0)
(5.66656e-14 -2.27418e-15 0)
(6.07526e-14 -2.94205e-15 0)
(6.40893e-14 -3.18491e-15 0)
(6.67226e-14 -3.32688e-15 0)
(6.9299e-14 -3.59225e-15 0)
(7.27954e-14 -3.54545e-15 0)
(7.59588e-14 -4.58847e-15 0)
(7.75947e-14 -5.93527e-15 0)
(7.82892e-14 -6.90463e-15 0)
(7.8315e-14 -8.10473e-15 0)
(7.80288e-14 -9.35328e-15 0)
(7.77713e-14 -1.11084e-14 0)
(7.76306e-14 -1.13633e-14 0)
(7.64345e-14 -1.10604e-14 0)
(7.50678e-14 -1.15006e-14 0)
(7.5096e-14 -1.25107e-14 0)
(7.64276e-14 -1.45318e-14 0)
(7.87885e-14 -1.50454e-14 0)
(8.15125e-14 -1.45764e-14 0)
(8.41165e-14 -1.37567e-14 0)
(8.62603e-14 -1.35656e-14 0)
(8.76336e-14 -1.31325e-14 0)
(8.83328e-14 -1.31059e-14 0)
(8.84781e-14 -1.2967e-14 0)
(8.79822e-14 -1.29488e-14 0)
(8.80383e-14 -1.31367e-14 0)
(8.91498e-14 -1.36295e-14 0)
(8.9953e-14 -1.41175e-14 0)
(9.02441e-14 -1.43727e-14 0)
(9.07976e-14 -1.39045e-14 0)
(9.11947e-14 -1.32684e-14 0)
(9.14743e-14 -1.25597e-14 0)
(9.12483e-14 -1.20794e-14 0)
(9.01549e-14 -1.20829e-14 0)
(8.87614e-14 -1.17338e-14 0)
(8.72526e-14 -1.14196e-14 0)
(8.68912e-14 -1.13565e-14 0)
(8.7086e-14 -1.12626e-14 0)
(8.62186e-14 -1.09318e-14 0)
(8.40694e-14 -1.03461e-14 0)
(8.09634e-14 -9.74015e-15 0)
(7.8012e-14 -8.71547e-15 0)
(7.45069e-14 -8.35228e-15 0)
(6.92746e-14 -7.63998e-15 0)
(6.29328e-14 -6.54213e-15 0)
(5.63709e-14 -5.32183e-15 0)
(4.93668e-14 -3.86599e-15 0)
(4.1335e-14 -2.95976e-15 0)
(3.33227e-14 -2.63599e-15 0)
(2.52208e-14 -2.3894e-15 0)
(1.58085e-14 -2.0344e-15 0)
(5.85629e-15 -9.06402e-16 0)
(-2.80799e-15 -3.75402e-15 0)
(-7.98578e-15 -1.02341e-14 0)
(-1.25256e-14 -1.56569e-14 0)
(-1.68862e-14 -1.9995e-14 0)
(-2.112e-14 -2.46542e-14 0)
(-2.59339e-14 -2.87475e-14 0)
(-3.15342e-14 -3.24642e-14 0)
(-3.73801e-14 -3.5371e-14 0)
(-4.3217e-14 -3.81047e-14 0)
(-4.74339e-14 -4.16985e-14 0)
(-4.97727e-14 -4.43746e-14 0)
(-5.21211e-14 -4.59783e-14 0)
(-5.55296e-14 -4.72019e-14 0)
(-5.89898e-14 -4.81584e-14 0)
(-6.17609e-14 -4.84904e-14 0)
(-6.48713e-14 -4.83034e-14 0)
(-6.8062e-14 -4.84873e-14 0)
(-7.05593e-14 -4.83151e-14 0)
(-7.16278e-14 -4.77691e-14 0)
(-6.88168e-14 -4.72914e-14 0)
(-6.34167e-14 -4.71432e-14 0)
(-5.77041e-14 -4.68711e-14 0)
(-5.20155e-14 -4.69991e-14 0)
(-4.6889e-14 -4.58462e-14 0)
(-4.16625e-14 -4.36259e-14 0)
(-3.66419e-14 -4.03303e-14 0)
(-3.1367e-14 -3.65771e-14 0)
(-2.66369e-14 -3.30242e-14 0)
(-2.38459e-14 -2.99761e-14 0)
(-2.09692e-14 -2.69121e-14 0)
(-1.66658e-14 -2.4921e-14 0)
(-1.21878e-14 -2.38042e-14 0)
(-8.49097e-15 -2.3663e-14 0)
(-5.56972e-15 -2.32384e-14 0)
(-2.64024e-15 -2.24257e-14 0)
(1.26767e-15 -2.13399e-14 0)
(5.78726e-15 -1.92022e-14 0)
(1.10606e-14 -1.70057e-14 0)
(1.66445e-14 -1.58412e-14 0)
(2.18833e-14 -1.47983e-14 0)
(2.73733e-14 -1.38512e-14 0)
(3.28478e-14 -1.29022e-14 0)
(3.80405e-14 -1.10527e-14 0)
(4.24022e-14 -8.76934e-15 0)
(4.6345e-14 -6.98373e-15 0)
(4.98194e-14 -5.19403e-15 0)
(5.27971e-14 -3.8852e-15 0)
(5.65673e-14 -3.55836e-15 0)
(6.07524e-14 -3.25085e-15 0)
(6.50357e-14 -3.51882e-15 0)
(6.88994e-14 -3.56866e-15 0)
(7.17907e-14 -3.72061e-15 0)
(7.46407e-14 -3.86278e-15 0)
(7.79107e-14 -4.2037e-15 0)
(8.07419e-14 -5.62992e-15 0)
(8.28179e-14 -6.86578e-15 0)
(8.37063e-14 -7.74022e-15 0)
(8.36441e-14 -9.21166e-15 0)
(8.32477e-14 -1.05747e-14 0)
(8.33955e-14 -1.22316e-14 0)
(8.4e-14 -1.25539e-14 0)
(8.28453e-14 -1.29919e-14 0)
(8.1137e-14 -1.33475e-14 0)
(8.05455e-14 -1.39602e-14 0)
(8.20202e-14 -1.52817e-14 0)
(8.54451e-14 -1.59275e-14 0)
(8.88393e-14 -1.58845e-14 0)
(9.14185e-14 -1.51704e-14 0)
(9.36226e-14 -1.4782e-14 0)
(9.48724e-14 -1.4032e-14 0)
(9.52756e-14 -1.40454e-14 0)
(9.54602e-14 -1.43063e-14 0)
(9.49706e-14 -1.48016e-14 0)
(9.49954e-14 -1.50012e-14 0)
(9.6065e-14 -1.57332e-14 0)
(9.69618e-14 -1.64572e-14 0)
(9.76634e-14 -1.63129e-14 0)
(9.8567e-14 -1.52827e-14 0)
(9.89835e-14 -1.41465e-14 0)
(9.90587e-14 -1.32562e-14 0)
(9.84396e-14 -1.29281e-14 0)
(9.73339e-14 -1.28432e-14 0)
(9.60637e-14 -1.25997e-14 0)
(9.43762e-14 -1.25111e-14 0)
(9.35677e-14 -1.22574e-14 0)
(9.35428e-14 -1.22804e-14 0)
(9.27161e-14 -1.1644e-14 0)
(9.05542e-14 -1.13334e-14 0)
(8.74948e-14 -1.07223e-14 0)
(8.39817e-14 -9.80269e-15 0)
(7.98377e-14 -9.31692e-15 0)
(7.45473e-14 -8.63284e-15 0)
(6.79024e-14 -7.39911e-15 0)
(6.09528e-14 -6.22411e-15 0)
(5.33128e-14 -4.90496e-15 0)
(4.42038e-14 -3.80355e-15 0)
(3.52661e-14 -3.34524e-15 0)
(2.64149e-14 -3.07801e-15 0)
(1.67238e-14 -2.5265e-15 0)