/*--------------------------------*- C++ -*----------------------------------*\
| =========                 |                                                 |
| \\      /  F ield         | OpenFOAM: The Open Source CFD Toolbox           |
|  \\    /   O peration     | Version:  v2012                                 |
|   \\  /    A nd           | Website:  www.openfoam.com                      |
|    \\/     M anipulation  |                                                 |
\*---------------------------------------------------------------------------*/
FoamFile
{
    version     2.0;
    format      ascii;
    class       surfaceScalarField;
    location    "14";
    object      phi;
}
// * * * * * * * * * * * * * * * * * * * * * * * * * * * * * * * * * * * * * //

dimensions      [0 3 -1 0 0 0 0];
oriented        oriented;


internalField   nonuniform List<scalar> 
130560
(
3.46792e-06
-3.46792e-06
6.93605e-06
-3.46813e-06
1.04046e-05
-3.46856e-06
1.38738e-05
-3.46919e-06
1.73438e-05
-3.47003e-06
2.08149e-05
-3.47107e-06
2.42872e-05
-3.47232e-06
2.7761e-05
-3.47377e-06
3.12364e-05
-3.47541e-06
3.47136e-05
-3.47724e-06
3.81929e-05
-3.47926e-06
4.16744e-05
-3.48146e-06
4.51582e-05
-3.48384e-06
4.86446e-05
-3.48638e-06
5.21336e-05
-3.48908e-06
5.56256e-05
-3.49193e-06
5.91205e-05
-3.49492e-06
6.26185e-05
-3.49805e-06
6.61198e-05
-3.5013e-06
6.96245e-05
-3.50466e-06
7.31326e-05
-3.50812e-06
7.66443e-05
-3.51168e-06
8.01596e-05
-3.5153e-06
8.36786e-05
-3.51899e-06
8.72013e-05
-3.52273e-06
9.07278e-05
-3.5265e-06
9.42581e-05
-3.53029e-06
9.77922e-05
-3.53408e-06
0.00010133
-3.53785e-06
0.000104872
-3.54159e-06
0.000108417
-3.54528e-06
0.000111966
-3.54889e-06
0.000115518
-3.55241e-06
0.000119074
-3.55582e-06
0.000122633
-3.55909e-06
0.000126195
-3.5622e-06
0.00012976
-3.56513e-06
0.000133328
-3.56785e-06
0.000136899
-3.57034e-06
0.000140471
-3.57257e-06
0.000144046
-3.57452e-06
0.000147622
-3.57615e-06
0.000151199
-3.57745e-06
0.000154778
-3.57837e-06
0.000158357
-3.57889e-06
0.000161936
-3.57898e-06
0.000165514
-3.5786e-06
0.000169092
-3.57773e-06
0.000172668
-3.57633e-06
0.000176243
-3.57437e-06
0.000179814
-3.57181e-06
0.000183383
-3.56861e-06
0.000186948
-3.56475e-06
0.000190508
-3.56019e-06
0.000194063
-3.55488e-06
0.000197612
-3.54879e-06
0.000201154
-3.54189e-06
0.000204688
-3.53414e-06
0.000208213
-3.52549e-06
0.000211729
-3.51591e-06
0.000215234
-3.50536e-06
0.000218728
-3.49381e-06
0.000222209
-3.48121e-06
0.000225677
-3.46752e-06
0.00022913
-3.45271e-06
0.000232566
-3.43675e-06
0.000235986
-3.41958e-06
0.000239387
-3.40117e-06
0.000242769
-3.3815e-06
0.000246129
-3.36051e-06
0.000249467
-3.33819e-06
0.000252782
-3.31448e-06
0.000256071
-3.28937e-06
0.000259334
-3.26282e-06
0.000262569
-3.23479e-06
0.000265774
-3.20526e-06
0.000268948
-3.1742e-06
0.00027209
-3.14159e-06
0.000275197
-3.10739e-06
0.000278269
-3.0716e-06
0.000281303
-3.03418e-06
0.000284298
-2.99513e-06
0.000287253
-2.95441e-06
0.000290165
-2.91203e-06
0.000293033
-2.86797e-06
0.000295855
-2.82222e-06
0.00029863
-2.77478e-06
0.000301355
-2.72564e-06
0.00030403
-2.6748e-06
0.000306652
-2.62227e-06
0.00030922
-2.56805e-06
0.000311733
-2.51216e-06
0.000314187
-2.45459e-06
0.000316583
-2.39538e-06
0.000318917
-2.33454e-06
0.000321189
-2.27208e-06
0.000323397
-2.20805e-06
0.00032554
-2.14246e-06
0.000327615
-2.07534e-06
0.000329622
-2.00674e-06
0.000331558
-1.93669e-06
0.000333424
-1.86523e-06
0.000335216
-1.79241e-06
0.000336934
-1.71828e-06
0.000338577
-1.64288e-06
0.000340143
-1.56628e-06
0.000341632
-1.48852e-06
0.000343042
-1.40967e-06
0.000344371
-1.32979e-06
0.00034562
-1.24894e-06
0.000346788
-1.16719e-06
0.000347872
-1.08461e-06
0.000348873
-1.00127e-06
0.000349791
-9.1724e-07
0.000350623
-8.32597e-07
0.000351371
-7.47414e-07
0.000352032
-6.61768e-07
0.000352608
-5.75737e-07
0.000353098
-4.89398e-07
0.0003535
-4.0283e-07
0.000353817
-3.16112e-07
0.000354046
-2.29324e-07
0.000354188
-1.42544e-07
0.000354244
-5.58499e-08
0.000354214
3.06788e-08
0.000354097
1.16965e-07
0.000353894
2.02933e-07
0.000353605
2.88506e-07
0.000353232
3.73611e-07
0.000352773
4.58175e-07
0.000352231
5.42127e-07
0.000351606
6.25398e-07
0.000350898
7.0792e-07
0.000350108
7.8963e-07
0.000349238
8.70463e-07
0.000348288
9.5036e-07
0.000347258
1.02926e-06
0.000346151
1.10712e-06
0.000344967
1.18387e-06
0.000343708
1.25946e-06
0.000342374
1.33386e-06
0.000340967
1.40702e-06
0.000339488
1.47889e-06
0.000337939
1.54943e-06
0.00033632
1.61862e-06
0.000334634
1.68642e-06
0.000332881
1.75279e-06
0.000331063
1.81772e-06
0.000329182
1.88118e-06
0.000327239
1.94315e-06
0.000325235
2.00361e-06
0.000323173
2.06254e-06
0.000321053
2.11994e-06
0.000318877
2.1758e-06
0.000316647
2.2301e-06
0.000314364
2.28285e-06
0.00031203
2.33403e-06
0.000309646
2.38367e-06
0.000307214
2.43174e-06
0.000304736
2.47827e-06
0.000302213
2.52326e-06
0.000299646
2.56672e-06
0.000297038
2.60866e-06
0.000294388
2.64909e-06
0.0002917
2.68803e-06
0.000288975
2.72549e-06
0.000286213
2.7615e-06
0.000283417
2.79607e-06
0.000280588
2.82923e-06
0.000277727
2.86099e-06
0.000274836
2.89138e-06
0.000271915
2.92043e-06
0.000268967
2.94816e-06
0.000265993
2.97459e-06
0.000262993
2.99976e-06
0.000259969
3.02369e-06
0.000256923
3.04641e-06
0.000253855
3.06795e-06
0.000250766
3.08834e-06
0.000247659
3.10761e-06
0.000244533
3.12578e-06
0.00024139
3.1429e-06
0.000238231
3.15898e-06
0.000235057
3.17407e-06
0.000231869
3.18818e-06
0.000228668
3.20136e-06
0.000225454
3.21363e-06
0.000222229
3.22503e-06
0.000218993
3.23558e-06
0.000215748
3.24531e-06
0.000212494
3.25426e-06
0.000209231
3.26245e-06
0.000205961
3.26991e-06
0.000202685
3.27668e-06
0.000199402
3.28278e-06
0.000196114
3.28823e-06
0.000192821
3.29308e-06
0.000189523
3.29734e-06
0.000186222
3.30104e-06
0.000182918
3.30421e-06
0.000179611
3.30688e-06
0.000176302
3.30906e-06
0.000172991
3.3108e-06
0.000169679
3.3121e-06
0.000166366
3.313e-06
0.000163053
3.31351e-06
0.000159739
3.31366e-06
0.000156425
3.31348e-06
0.000153113
3.31299e-06
0.0001498
3.31219e-06
0.000146489
3.31113e-06
0.000143179
3.30981e-06
0.000139871
3.30826e-06
0.000136565
3.30649e-06
0.00013326
3.30453e-06
0.000129958
3.30239e-06
0.000126658
3.30009e-06
0.00012336
3.29765e-06
0.000120065
3.29508e-06
0.000116772
3.29239e-06
0.000113483
3.28961e-06
0.000110196
3.28675e-06
0.000106912
3.28382e-06
0.000103631
3.28084e-06
0.000100354
3.27781e-06
9.70789e-05
3.27476e-06
9.38072e-05
3.27169e-06
9.05386e-05
3.26862e-06
8.7273e-05
3.26556e-06
8.40105e-05
3.26251e-06
8.0751e-05
3.25949e-06
7.74945e-05
3.25651e-06
7.42409e-05
3.25358e-06
7.09902e-05
3.25071e-06
6.77423e-05
3.2479e-06
6.44972e-05
3.24516e-06
6.12547e-05
3.24251e-06
5.80147e-05
3.23994e-06
5.47772e-05
3.23747e-06
5.15421e-05
3.2351e-06
4.83093e-05
3.23284e-06
4.50786e-05
3.23069e-06
4.18499e-05
3.22867e-06
3.86232e-05
3.22676e-06
3.53982e-05
3.22499e-06
3.21748e-05
3.22335e-06
2.8953e-05
3.22185e-06
2.57325e-05
3.22048e-06
2.25133e-05
3.21926e-06
1.92951e-05
3.21819e-06
1.60778e-05
3.21727e-06
1.28613e-05
3.21649e-06
9.64544e-06
3.21587e-06
6.43003e-06
3.2154e-06
3.21494e-06
3.21509e-06
3.21494e-06
3.46771e-06
-6.93563e-06
6.93564e-06
-6.93606e-06
1.0404e-05
-6.9369e-06
1.3873e-05
-6.93817e-06
1.73428e-05
-6.93985e-06
2.08137e-05
-6.94194e-06
2.42858e-05
-6.94444e-06
2.77594e-05
-6.94734e-06
3.12346e-05
-6.95063e-06
3.47116e-05
-6.9543e-06
3.81907e-05
-6.95835e-06
4.1672e-05
-6.96275e-06
4.51557e-05
-6.96751e-06
4.86419e-05
-6.9726e-06
5.21308e-05
-6.97801e-06
5.56226e-05
-6.98372e-06
5.91174e-05
-6.98972e-06
6.26153e-05
-6.99598e-06
6.61165e-05
-7.00249e-06
6.96211e-05
-7.00923e-06
7.31291e-05
-7.01616e-06
7.66407e-05
-7.02328e-06
8.0156e-05
-7.03055e-06
8.36749e-05
-7.03794e-06
8.71976e-05
-7.04543e-06
9.07241e-05
-7.05299e-06
9.42544e-05
-7.06058e-06
9.77885e-05
-7.06818e-06
0.000101326
-7.07574e-06
0.000104868
-7.08324e-06
0.000108413
-7.09063e-06
0.000111962
-7.09788e-06
0.000115515
-7.10494e-06
0.000119071
-7.11178e-06
0.00012263
-7.11834e-06
0.000126193
-7.12459e-06
0.000129758
-7.13047e-06
0.000133326
-7.13594e-06
0.000136897
-7.14095e-06
0.000140469
-7.14544e-06
0.000144044
-7.14936e-06
0.000147621
-7.15265e-06
0.000151199
-7.15527e-06
0.000154777
-7.15714e-06
0.000158357
-7.15821e-06
0.000161936
-7.15842e-06
0.000165515
-7.1577e-06
0.000169093
-7.15599e-06
0.00017267
-7.15323e-06
0.000176245
-7.14933e-06
0.000179818
-7.14425e-06
0.000183387
-7.1379e-06
0.000186952
-7.13021e-06
0.000190513
-7.12112e-06
0.000194069
-7.11054e-06
0.000197619
-7.0984e-06
0.000201161
-7.08464e-06
0.000204696
-7.06917e-06
0.000208223
-7.05191e-06
0.00021174
-7.03279e-06
0.000215246
-7.01174e-06
0.000218741
-6.98867e-06
0.000222223
-6.9635e-06
0.000225692
-6.93617e-06
0.000229146
-6.90659e-06
0.000232584
-6.87469e-06
0.000236005
-6.84039e-06
0.000239407
-6.80362e-06
0.00024279
-6.7643e-06
0.000246152
-6.72237e-06
0.000249491
-6.67775e-06
0.000252807
-6.63038e-06
0.000256098
-6.58018e-06
0.000259362
-6.5271e-06
0.000262599
-6.47108e-06
0.000265805
-6.41204e-06
0.000268981
-6.34995e-06
0.000272124
-6.28475e-06
0.000275233
-6.21639e-06
0.000278306
-6.14482e-06
0.000281342
-6.07e-06
0.000284339
-5.9919e-06
0.000287295
-5.91049e-06
0.000290209
-5.82574e-06
0.000293078
-5.73763e-06
0.000295902
-5.64613e-06
0.000298679
-5.55125e-06
0.000301406
-5.45297e-06
0.000304083
-5.35129e-06
0.000306707
-5.24622e-06
0.000309276
-5.13778e-06
0.00031179
-5.02597e-06
0.000314246
-4.91083e-06
0.000316643
-4.79239e-06
0.00031898
-4.67068e-06
0.000321253
-4.54575e-06
0.000323463
-4.41765e-06
0.000325607
-4.28643e-06
0.000327684
-4.15217e-06
0.000329692
-4.01492e-06
0.00033163
-3.87478e-06
0.000333497
-3.73182e-06
0.00033529
-3.58613e-06
0.00033701
-3.43782e-06
0.000338654
-3.28697e-06
0.000340221
-3.1337e-06
0.000341711
-2.97813e-06
0.000343122
-2.82036e-06
0.000344452
-2.66053e-06
0.000345702
-2.49877e-06
0.00034687
-2.33521e-06
0.000347956
-2.16998e-06
0.000348957
-2.00322e-06
0.000349875
-1.83509e-06
0.000350708
-1.66573e-06
0.000351456
-1.49529e-06
0.000352118
-1.32392e-06
0.000352695
-1.15178e-06
0.000353184
-9.7902e-07
0.000353587
-8.05805e-07
0.000353903
-6.32291e-07
0.000354133
-4.58635e-07
0.000354275
-2.84996e-07
0.000354331
-1.11531e-07
0.0003543
6.16042e-08
0.000354183
2.34253e-07
0.000353979
4.06263e-07
0.00035369
5.77484e-07
0.000353316
7.47766e-07
0.000352857
9.16965e-07
0.000352314
1.08494e-06
0.000351688
1.25155e-06
0.00035098
1.41666e-06
0.000350189
1.58014e-06
0.000349318
1.74187e-06
0.000348366
1.90172e-06
0.000347336
2.05958e-06
0.000346228
2.21534e-06
0.000345043
2.36889e-06
0.000343782
2.52013e-06
0.000342447
2.66897e-06
0.000341039
2.81532e-06
0.000339558
2.9591e-06
0.000338008
3.10023e-06
0.000336388
3.23864e-06
0.0003347
3.37426e-06
0.000332946
3.50704e-06
0.000331126
3.63692e-06
0.000329244
3.76386e-06
0.000327299
3.88781e-06
0.000325294
4.00874e-06
0.00032323
4.12662e-06
0.000321108
4.24143e-06
0.000318931
4.35315e-06
0.000316699
4.46176e-06
0.000314415
4.56725e-06
0.000312079
4.66963e-06
0.000309694
4.76889e-06
0.000307261
4.86504e-06
0.000304781
4.95809e-06
0.000302256
5.04806e-06
0.000299688
5.13496e-06
0.000297078
5.21882e-06
0.000294427
5.29967e-06
0.000291738
5.37753e-06
0.000289011
5.45244e-06
0.000286248
5.52444e-06
0.00028345
5.59356e-06
0.00028062
5.65985e-06
0.000277757
5.72335e-06
0.000274865
5.78411e-06
0.000271943
5.84218e-06
0.000268993
5.89761e-06
0.000266018
5.95045e-06
0.000263017
6.00076e-06
0.000259992
6.04859e-06
0.000256944
6.09401e-06
0.000253875
6.13706e-06
0.000250786
6.1778e-06
0.000247677
6.21631e-06
0.00024455
6.25263e-06
0.000241406
6.28683e-06
0.000238246
6.31896e-06
0.000235071
6.3491e-06
0.000231882
6.37731e-06
0.00022868
6.40363e-06
0.000225465
6.42814e-06
0.000222239
6.4509e-06
0.000219003
6.47197e-06
0.000215757
6.4914e-06
0.000212502
6.50927e-06
0.000209239
6.52562e-06
0.000205968
6.54052e-06
0.000202691
6.55402e-06
0.000199407
6.56619e-06
0.000196118
6.57708e-06
0.000192825
6.58674e-06
0.000189527
6.59523e-06
0.000186225
6.60261e-06
0.000182921
6.60893e-06
0.000179613
6.61423e-06
0.000176304
6.61858e-06
0.000172992
6.62202e-06
0.00016968
6.6246e-06
0.000166367
6.62637e-06
0.000163053
6.62738e-06
0.000159739
6.62766e-06
0.000156425
6.62728e-06
0.000153112
6.62626e-06
0.000149799
6.62466e-06
0.000146488
6.62251e-06
0.000143178
6.61985e-06
0.000139869
6.61673e-06
0.000136563
6.61318e-06
0.000133258
6.60924e-06
0.000129955
6.60494e-06
0.000126655
6.60033e-06
0.000123357
6.59542e-06
0.000120062
6.59026e-06
0.00011677
6.58488e-06
0.00011348
6.5793e-06
0.000110193
6.57357e-06
0.000106909
6.56769e-06
0.000103628
6.56171e-06
0.000100351
6.55565e-06
9.70758e-05
6.54954e-06
9.38041e-05
6.54339e-06
9.05354e-05
6.53723e-06
8.72699e-05
6.53109e-06
8.40074e-05
6.52499e-06
8.0748e-05
6.51894e-06
7.74915e-05
6.51298e-06
7.4238e-05
6.5071e-06
7.09874e-05
6.50134e-06
6.77395e-05
6.49572e-06
6.44945e-05
6.49024e-06
6.1252e-05
6.48492e-06
5.80122e-05
6.47978e-06
5.47748e-05
6.47483e-06
5.15399e-05
6.47009e-06
4.83071e-05
6.46556e-06
4.50766e-05
6.46127e-06
4.1848e-05
6.45721e-06
3.86214e-05
6.4534e-06
3.53965e-05
6.44984e-06
3.21733e-05
6.44656e-06
2.89516e-05
6.44355e-06
2.57313e-05
6.44082e-06
2.25122e-05
6.43838e-06
1.92941e-05
6.43623e-06
1.6077e-05
6.43438e-06
1.28607e-05
6.43283e-06
9.64497e-06
6.43158e-06
6.42972e-06
6.43065e-06
3.21478e-06
6.43003e-06
6.42972e-06
3.46729e-06
-1.04029e-05
6.93479e-06
-1.04036e-05
1.04027e-05
-1.04048e-05
1.38713e-05
-1.04067e-05
1.73407e-05
-1.04093e-05
2.08112e-05
-1.04124e-05
2.42829e-05
-1.04162e-05
2.77561e-05
-1.04205e-05
3.12309e-05
-1.04255e-05
3.47076e-05
-1.0431e-05
3.81863e-05
-1.04371e-05
4.16672e-05
-1.04437e-05
4.51506e-05
-1.04508e-05
4.86365e-05
-1.04585e-05
5.21251e-05
-1.04666e-05
5.56166e-05
-1.04752e-05
5.91111e-05
-1.04842e-05
6.26088e-05
-1.04937e-05
6.61098e-05
-1.05035e-05
6.96141e-05
-1.05136e-05
7.3122e-05
-1.0524e-05
7.66335e-05
-1.05347e-05
8.01486e-05
-1.05457e-05
8.36674e-05
-1.05568e-05
8.71901e-05
-1.05681e-05
9.07165e-05
-1.05794e-05
9.42468e-05
-1.05909e-05
9.77809e-05
-1.06023e-05
0.000101319
-1.06137e-05
0.000104861
-1.0625e-05
0.000108406
-1.06361e-05
0.000111955
-1.0647e-05
0.000115508
-1.06577e-05
0.000119064
-1.0668e-05
0.000122624
-1.06779e-05
0.000126187
-1.06873e-05
0.000129752
-1.06962e-05
0.000133321
-1.07045e-05
0.000136892
-1.07121e-05
0.000140465
-1.07189e-05
0.000144041
-1.07248e-05
0.000147618
-1.07298e-05
0.000151197
-1.07338e-05
0.000154776
-1.07367e-05
0.000158356
-1.07384e-05
0.000161937
-1.07388e-05
0.000165517
-1.07378e-05
0.000169096
-1.07353e-05
0.000172674
-1.07312e-05
0.00017625
-1.07255e-05
0.000179824
-1.0718e-05
0.000183395
-1.07085e-05
0.000186962
-1.06971e-05
0.000190524
-1.06835e-05
0.000194081
-1.06678e-05
0.000197632
-1.06496e-05
0.000201177
-1.06291e-05
0.000204714
-1.0606e-05
0.000208242
-1.05802e-05
0.000211761
-1.05516e-05
0.000215269
-1.05201e-05
0.000218766
-1.04856e-05
0.000222251
-1.0448e-05
0.000225721
-1.04071e-05
0.000229178
-1.03628e-05
0.000232618
-1.0315e-05
0.000236041
-1.02637e-05
0.000239446
-1.02086e-05
0.000242832
-1.01497e-05
0.000246196
-1.00869e-05
0.000249539
-1.00201e-05
0.000252857
-9.94909e-06
0.000256151
-9.87388e-06
0.000259418
-9.79434e-06
0.000262658
-9.71037e-06
0.000265867
-9.62189e-06
0.000269046
-9.52882e-06
0.000272193
-9.43107e-06
0.000275305
-9.32858e-06
0.000278381
-9.22128e-06
0.00028142
-9.1091e-06
0.00028442
-8.992e-06
0.00028738
-8.86991e-06
0.000290297
-8.74281e-06
0.00029317
-8.61066e-06
0.000295997
-8.47344e-06
0.000298777
-8.33112e-06
0.000301508
-8.1837e-06
0.000304188
-8.03117e-06
0.000306815
-7.87356e-06
0.000309388
-7.71087e-06
0.000311905
-7.54313e-06
0.000314365
-7.37038e-06
0.000316765
-7.19267e-06
0.000319105
-7.01004e-06
0.000321381
-6.82258e-06
0.000323594
-6.63036e-06
0.000325741
-6.43346e-06
0.000327821
-6.23197e-06
0.000329832
-6.02601e-06
0.000331773
-5.81569e-06
0.000333642
-5.60114e-06
0.000335439
-5.38249e-06
0.000337161
-5.15988e-06
0.000338807
-4.93348e-06
0.000340377
-4.70343e-06
0.000341869
-4.46992e-06
0.000343281
-4.23312e-06
0.000344614
-3.99322e-06
0.000345866
-3.75041e-06
0.000347035
-3.50489e-06
0.000348122
-3.25687e-06
0.000349126
-3.00655e-06
0.000350045
-2.75417e-06
0.000350879
-2.49994e-06
0.000351628
-2.24409e-06
0.000352291
-1.98684e-06
0.000352867
-1.72843e-06
0.000353357
-1.4691e-06
0.000353761
-1.20908e-06
0.000354077
-9.48612e-07
0.000354306
-6.87931e-07
0.000354449
-4.27275e-07
0.000354504
-1.66882e-07
0.000354473
9.30143e-08
0.000354355
3.52179e-07
0.00035415
6.10383e-07
0.000353861
8.67399e-07
0.000353485
1.123e-06
0.000353025
1.37698e-06
0.000352481
1.62911e-06
0.000351853
1.87919e-06
0.000351143
2.12702e-06
0.000350351
2.3724e-06
0.000349478
2.61514e-06
0.000348524
2.85507e-06
0.000347492
3.092e-06
0.000346381
3.32576e-06
0.000345194
3.55622e-06
0.000343931
3.7832e-06
0.000342593
4.00657e-06
0.000341183
4.2262e-06
0.0003397
4.44196e-06
0.000338146
4.65374e-06
0.000336523
4.86144e-06
0.000334833
5.06494e-06
0.000333075
5.26418e-06
0.000331253
5.45906e-06
0.000329368
5.64952e-06
0.00032742
5.83549e-06
0.000325412
6.01693e-06
0.000323345
6.19378e-06
0.00032122
6.36601e-06
0.00031904
6.5336e-06
0.000316805
6.69653e-06
0.000314517
6.85477e-06
0.000312179
7.00834e-06
0.00030979
7.15722e-06
0.000307354
7.30143e-06
0.000304871
7.44099e-06
0.000302343
7.57592e-06
0.000299772
7.70624e-06
0.000297159
7.832e-06
0.000294505
7.95324e-06
0.000291813
8.06999e-06
0.000289083
8.18231e-06
0.000286317
8.29025e-06
0.000283517
8.39388e-06
0.000280683
8.49326e-06
0.000277818
8.58845e-06
0.000274923
8.67953e-06
0.000271998
8.76657e-06
0.000269046
8.84965e-06
0.000266068
8.92885e-06
0.000263064
9.00424e-06
0.000260037
9.07592e-06
0.000256987
9.14396e-06
0.000253916
9.20846e-06
0.000250824
9.26951e-06
0.000247713
9.32719e-06
0.000244584
9.38159e-06
0.000241438
9.43281e-06
0.000238276
9.48094e-06
0.000235099
9.52608e-06
0.000231908
9.5683e-06
0.000228704
9.60772e-06
0.000225488
9.64441e-06
0.00022226
9.67847e-06
0.000219022
9.70999e-06
0.000215775
9.73907e-06
0.000212518
9.76579e-06
0.000209254
9.79024e-06
0.000205982
9.81252e-06
0.000202703
9.8327e-06
0.000199418
9.85088e-06
0.000196128
9.86714e-06
0.000192833
9.88157e-06
0.000189534
9.89424e-06
0.000186232
9.90524e-06
0.000182926
9.91465e-06
0.000179618
9.92255e-06
0.000176307
9.92901e-06
0.000172995
9.93411e-06
0.000169682
9.93792e-06
0.000166368
9.94051e-06
0.000163053
9.94196e-06
0.000159738
9.94234e-06
0.000156424
9.9417e-06
0.00015311
9.94013e-06
0.000149797
9.93767e-06
0.000146485
9.9344e-06
0.000143175
9.93036e-06
0.000139866
9.92563e-06
0.000136559
9.92026e-06
0.000133254
9.91431e-06
0.000129951
9.90782e-06
0.00012665
9.90085e-06
0.000123352
9.89345e-06
0.000120057
9.88567e-06
0.000116764
9.87756e-06
0.000113474
9.86916e-06
0.000110187
9.86052e-06
0.000106903
9.85167e-06
0.000103622
9.84267e-06
0.000100344
9.83355e-06
9.70696e-05
9.82434e-06
9.37979e-05
9.81509e-06
9.05293e-05
9.80583e-06
8.72638e-05
9.79659e-06
8.40014e-05
9.78741e-06
8.0742e-05
9.77832e-06
7.74857e-05
9.76934e-06
7.42323e-05
9.76051e-06
7.09817e-05
9.75185e-06
6.77341e-05
9.74339e-06
6.44892e-05
9.73515e-06
6.12469e-05
9.72716e-06
5.80073e-05
9.71943e-06
5.47701e-05
9.71199e-06
5.15353e-05
9.70486e-06
4.83028e-05
9.69806e-06
4.50725e-05
9.6916e-06
4.18442e-05
9.6855e-06
3.86178e-05
9.67977e-06
3.53933e-05
9.67443e-06
3.21703e-05
9.66949e-06
2.89489e-05
9.66497e-06
2.57288e-05
9.66087e-06
2.251e-05
9.6572e-06
1.92923e-05
9.65397e-06
1.60755e-05
9.65119e-06
1.28594e-05
9.64886e-06
9.64403e-06
9.64699e-06
6.4291e-06
9.64559e-06
3.21447e-06
9.64466e-06
9.64419e-06
3.46665e-06
-1.38696e-05
6.93352e-06
-1.38704e-05
1.04008e-05
-1.38721e-05
1.38687e-05
-1.38747e-05
1.73375e-05
-1.3878e-05
2.08074e-05
-1.38823e-05
2.42785e-05
-1.38873e-05
2.77511e-05
-1.38931e-05
3.12254e-05
-1.38997e-05
3.47015e-05
-1.39071e-05
3.81797e-05
-1.39153e-05
4.16601e-05
-1.39241e-05
4.51429e-05
-1.39337e-05
4.86283e-05
-1.39439e-05
5.21165e-05
-1.39548e-05
5.56076e-05
-1.39663e-05
5.91017e-05
-1.39784e-05
6.2599e-05
-1.3991e-05
6.60996e-05
-1.40041e-05
6.96037e-05
-1.40176e-05
7.31113e-05
-1.40316e-05
7.66225e-05
-1.40459e-05
8.01374e-05
-1.40606e-05
8.36561e-05
-1.40755e-05
8.71786e-05
-1.40906e-05
9.0705e-05
-1.41058e-05
9.42353e-05
-1.41212e-05
9.77695e-05
-1.41365e-05
0.000101308
-1.41518e-05
0.000104849
-1.41669e-05
0.000108395
-1.41818e-05
0.000111945
-1.41965e-05
0.000115498
-1.42108e-05
0.000119054
-1.42246e-05
0.000122614
-1.42379e-05
0.000126178
-1.42506e-05
0.000129744
-1.42626e-05
0.000133313
-1.42737e-05
0.000136885
-1.4284e-05
0.000140459
-1.42931e-05
0.000144036
-1.43012e-05
0.000147614
-1.4308e-05
0.000151194
-1.43135e-05
0.000154774
-1.43175e-05
0.000158356
-1.43199e-05
0.000161938
-1.43205e-05
0.000165519
-1.43194e-05
0.0001691
-1.43162e-05
0.00017268
-1.4311e-05
0.000176258
-1.43034e-05
0.000179833
-1.42936e-05
0.000183406
-1.42811e-05
0.000186975
-1.42661e-05
0.00019054
-1.42482e-05
0.000194099
-1.42273e-05
0.000197653
-1.42033e-05
0.0002012
-1.41761e-05
0.000204739
-1.41455e-05
0.000208271
-1.41113e-05
0.000211792
-1.40733e-05
0.000215304
-1.40315e-05
0.000218804
-1.39857e-05
0.000222291
-1.39357e-05
0.000225766
-1.38813e-05
0.000229225
-1.38225e-05
0.000232669
-1.3759e-05
0.000236096
-1.36907e-05
0.000239505
-1.36174e-05
0.000242894
-1.35391e-05
0.000246263
-1.34555e-05
0.00024961
-1.33665e-05
0.000252932
-1.3272e-05
0.000256231
-1.31719e-05
0.000259502
-1.3066e-05
0.000262746
-1.29542e-05
0.00026596
-1.28363e-05
0.000269144
-1.27124e-05
0.000272295
-1.25821e-05
0.000275412
-1.24456e-05
0.000278493
-1.23026e-05
0.000281537
-1.21531e-05
0.000284542
-1.19971e-05
0.000287507
-1.18344e-05
0.000290429
-1.16649e-05
0.000293307
-1.14888e-05
0.00029614
-1.13058e-05
0.000298925
-1.11161e-05
0.00030166
-1.09195e-05
0.000304345
-1.07162e-05
0.000306978
-1.0506e-05
0.000309556
-1.0289e-05
0.000312078
-1.00653e-05
0.000314543
-9.83489e-06
0.000316948
-9.59785e-06
0.000319292
-9.35425e-06
0.000321574
-9.10419e-06
0.000323791
-8.84775e-06
0.000325943
-8.58506e-06
0.000328027
-8.31625e-06
0.000330042
-8.04146e-06
0.000331987
-7.76084e-06
0.000333861
-7.47456e-06
0.000335661
-7.1828e-06
0.000337387
-6.88575e-06
0.000339037
-6.58363e-06
0.00034061
-6.27663e-06
0.000342105
-5.96501e-06
0.000343521
-5.64899e-06
0.000344857
-5.32881e-06
0.000346111
-5.00475e-06
0.000347283
-4.67707e-06
0.000348373
-4.34605e-06
0.000349378
-4.01196e-06
0.000350299
-3.6751e-06
0.000351135
-3.33578e-06
0.000351885
-2.99428e-06
0.000352549
-2.65092e-06
0.000353127
-2.30601e-06
0.000353617
-1.95987e-06
0.000354021
-1.61281e-06
0.000354338
-1.26515e-06
0.000354567
-9.17203e-07
0.000354709
-5.69293e-07
0.000354764
-2.21736e-07
0.000354732
1.25154e-07
0.000354613
4.71065e-07
0.000354408
8.1569e-07
0.000354116
1.15872e-06
0.000353739
1.49987e-06
0.000353277
1.83884e-06
0.000352731
2.17534e-06
0.000352101
2.50909e-06
0.000351389
2.83984e-06
0.000350594
3.1673e-06
0.000349718
3.49124e-06
0.000348761
3.81141e-06
0.000347726
4.12757e-06
0.000346612
4.43951e-06
0.000345421
4.74701e-06
0.000344154
5.04987e-06
0.000342813
5.34791e-06
0.000341398
5.64094e-06
0.000339911
5.9288e-06
0.000338354
6.21134e-06
0.000336727
6.48842e-06
0.000335032
6.7599e-06
0.00033327
7.02567e-06
0.000331444
7.28562e-06
0.000329554
7.53966e-06
0.000327602
7.78771e-06
0.000325589
8.02969e-06
0.000323517
8.26555e-06
0.000321388
8.49524e-06
0.000319203
8.71873e-06
0.000316963
8.93598e-06
0.000314671
9.14698e-06
0.000312328
9.35172e-06
0.000309935
9.55022e-06
0.000307494
9.74248e-06
0.000305006
9.92852e-06
0.000302474
1.01084e-05
0.000299898
1.02821e-05
0.00029728
1.04497e-05
0.000294622
1.06113e-05
0.000291925
1.07669e-05
0.000289191
1.09165e-05
0.000286421
1.10604e-05
0.000283616
1.11985e-05
0.000280779
1.13309e-05
0.000277909
1.14577e-05
0.00027501
1.1579e-05
0.000272082
1.16949e-05
0.000269126
1.18056e-05
0.000266143
1.1911e-05
0.000263136
1.20114e-05
0.000260105
1.21069e-05
0.000257052
1.21975e-05
0.000253977
1.22833e-05
0.000250882
1.23646e-05
0.000247768
1.24413e-05
0.000244636
1.25137e-05
0.000241486
1.25819e-05
0.000238321
1.26459e-05
0.000235142
1.2706e-05
0.000231948
1.27621e-05
0.000228741
1.28145e-05
0.000225522
1.28633e-05
0.000222292
1.29086e-05
0.000219051
1.29505e-05
0.000215801
1.29891e-05
0.000212543
1.30246e-05
0.000209276
1.3057e-05
0.000206002
1.30866e-05
0.000202721
1.31134e-05
0.000199434
1.31375e-05
0.000196143
1.3159e-05
0.000192846
1.31782e-05
0.000189545
1.31949e-05
0.000186241
1.32095e-05
0.000182934
1.32219e-05
0.000179624
1.32323e-05
0.000176312
1.32408e-05
0.000172999
1.32475e-05
0.000169684
1.32524e-05
0.000166369
1.32558e-05
0.000163053
1.32576e-05
0.000159738
1.3258e-05
0.000156422
1.32571e-05
0.000153108
1.32549e-05
0.000149794
1.32515e-05
0.000146481
1.3247e-05
0.00014317
1.32416e-05
0.00013986
1.32352e-05
0.000136553
1.32279e-05
0.000133247
1.32199e-05
0.000129944
1.32112e-05
0.000126643
1.32018e-05
0.000123344
1.31919e-05
0.000120049
1.31814e-05
0.000116756
1.31705e-05
0.000113466
1.31593e-05
0.000110178
1.31477e-05
0.000106894
1.31358e-05
0.000103613
1.31237e-05
0.000100335
1.31115e-05
9.70604e-05
1.30992e-05
9.37887e-05
1.30868e-05
9.05201e-05
1.30744e-05
8.72547e-05
1.3062e-05
8.39923e-05
1.30498e-05
8.07331e-05
1.30376e-05
7.74769e-05
1.30256e-05
7.42236e-05
1.30137e-05
7.09733e-05
1.30022e-05
6.77259e-05
1.29908e-05
6.44812e-05
1.29798e-05
6.12392e-05
1.29691e-05
5.79998e-05
1.29588e-05
5.4763e-05
1.29488e-05
5.15285e-05
1.29393e-05
4.82964e-05
1.29302e-05
4.50664e-05
1.29216e-05
4.18385e-05
1.29134e-05
3.86125e-05
1.29058e-05
3.53883e-05
1.28986e-05
3.21658e-05
1.2892e-05
2.89448e-05
1.2886e-05
2.57252e-05
1.28805e-05
2.25068e-05
1.28756e-05
1.92895e-05
1.28713e-05
1.60731e-05
1.28675e-05
1.28576e-05
1.28644e-05
9.64263e-06
1.28619e-05
6.42816e-06
1.28601e-05
3.214e-06
1.28588e-05
1.28582e-05
3.4658e-06
-1.73354e-05
6.93181e-06
-1.73364e-05
1.03983e-05
-1.73386e-05
1.38654e-05
-1.73418e-05
1.73333e-05
-1.7346e-05
2.08024e-05
-1.73513e-05
2.42727e-05
-1.73576e-05
2.77445e-05
-1.73649e-05
3.1218e-05
-1.73732e-05
3.46933e-05
-1.73825e-05
3.81708e-05
-1.73927e-05
4.16505e-05
-1.74038e-05
4.51327e-05
-1.74158e-05
4.86174e-05
-1.74287e-05
5.2105e-05
-1.74424e-05
5.55955e-05
-1.74568e-05
5.90891e-05
-1.74719e-05
6.25859e-05
-1.74878e-05
6.6086e-05
-1.75042e-05
6.95897e-05
-1.75213e-05
7.30969e-05
-1.75388e-05
7.66078e-05
-1.75569e-05
8.01225e-05
-1.75753e-05
8.3641e-05
-1.7594e-05
8.71634e-05
-1.7613e-05
9.06897e-05
-1.76321e-05
9.42199e-05
-1.76514e-05
9.77542e-05
-1.76707e-05
0.000101292
-1.76899e-05
0.000104834
-1.7709e-05
0.00010838
-1.77278e-05
0.00011193
-1.77463e-05
0.000115484
-1.77643e-05
0.000119041
-1.77818e-05
0.000122602
-1.77986e-05
0.000126166
-1.78146e-05
0.000129733
-1.78298e-05
0.000133303
-1.78439e-05
0.000136876
-1.78569e-05
0.000140451
-1.78686e-05
0.000144029
-1.78789e-05
0.000147609
-1.78876e-05
0.00015119
-1.78946e-05
0.000154772
-1.78999e-05
0.000158355
-1.79031e-05
0.000161939
-1.79041e-05
0.000165522
-1.79029e-05
0.000169105
-1.78992e-05
0.000172687
-1.78929e-05
0.000176268
-1.78838e-05
0.000179846
-1.78717e-05
0.000183421
-1.78564e-05
0.000186993
-1.78378e-05
0.00019056
-1.78158e-05
0.000194123
-1.779e-05
0.00019768
-1.77603e-05
0.000201231
-1.77265e-05
0.000204774
-1.76885e-05
0.000208308
-1.76461e-05
0.000211834
-1.75989e-05
0.000215349
-1.7547e-05
0.000218854
-1.749e-05
0.000222346
-1.74277e-05
0.000225825
-1.73601e-05
0.000229289
-1.72868e-05
0.000232738
-1.72077e-05
0.00023617
-1.71226e-05
0.000239583
-1.70313e-05
0.000242978
-1.69337e-05
0.000246352
-1.68295e-05
0.000249704
-1.67185e-05
0.000253033
-1.66006e-05
0.000256336
-1.64757e-05
0.000259614
-1.63436e-05
0.000262864
-1.6204e-05
0.000266084
-1.60569e-05
0.000269274
-1.59021e-05
0.000272432
-1.57396e-05
0.000275555
-1.5569e-05
0.000278643
-1.53905e-05
0.000281693
-1.52038e-05
0.000284705
-1.50088e-05
0.000287676
-1.48055e-05
0.000290605
-1.45938e-05
0.00029349
-1.43737e-05
0.000296329
-1.4145e-05
0.000299121
-1.39079e-05
0.000301864
-1.36622e-05
0.000304556
-1.34079e-05
0.000307195
-1.31452e-05
0.00030978
-1.28739e-05
0.000312308
-1.25942e-05
0.00031478
-1.2306e-05
0.000317191
-1.20096e-05
0.000319542
-1.17049e-05
0.00032183
-1.13922e-05
0.000324054
-1.10714e-05
0.000326211
-1.07428e-05
0.000328302
-1.04065e-05
0.000330323
-1.00627e-05
0.000332274
-9.71165e-06
0.000334153
-9.35346e-06
0.000335958
-8.9884e-06
0.000337689
-8.6167e-06
0.000339344
-8.23864e-06
0.000340922
-7.85447e-06
0.000342422
-7.46449e-06
0.000343842
-7.069e-06
0.000345181
-6.6683e-06
0.000346439
-6.26272e-06
0.000347615
-5.8526e-06
0.000348707
-5.43829e-06
0.000349715
-5.02014e-06
0.000350638
-4.59851e-06
0.000351476
-4.17378e-06
0.000352228
-3.74634e-06
0.000352894
-3.31656e-06
0.000353473
-2.88483e-06
0.000353965
-2.45156e-06
0.000354369
-2.01714e-06
0.000354686
-1.58197e-06
0.000354915
-1.14644e-06
0.000355057
-7.10961e-07
0.000355111
-2.75926e-07
0.000355078
1.5827e-07
0.000354958
5.91236e-07
0.000354751
1.02258e-06
0.000354457
1.45194e-06
0.000354078
1.87892e-06
0.000353614
2.30316e-06
0.000353065
2.7243e-06
0.000352432
3.14201e-06
0.000351716
3.55592e-06
0.000350918
3.96573e-06
0.000350038
4.37111e-06
0.000349077
4.77175e-06
0.000348038
5.16737e-06
0.000346919
5.55769e-06
0.000345724
5.94244e-06
0.000344453
6.32138e-06
0.000343106
6.69425e-06
0.000341686
7.06085e-06
0.000340194
7.42097e-06
0.000338631
7.77441e-06
0.000336998
8.121e-06
0.000335298
8.46057e-06
0.00033353
8.79298e-06
0.000331698
9.11809e-06
0.000329802
9.4358e-06
0.000327844
9.74599e-06
0.000325825
1.00486e-05
0.000323747
1.03435e-05
0.000321611
1.06307e-05
0.00031942
1.09101e-05
0.000317174
1.11817e-05
0.000314876
1.14454e-05
0.000312526
1.17014e-05
0.000310127
1.19495e-05
0.00030768
1.21897e-05
0.000305186
1.24222e-05
0.000302647
1.2647e-05
0.000300065
1.2864e-05
0.000297442
1.30735e-05
0.000294778
1.32753e-05
0.000292075
1.34697e-05
0.000289335
1.36566e-05
0.000286559
1.38363e-05
0.000283749
1.40087e-05
0.000280905
1.4174e-05
0.000278031
1.43324e-05
0.000275126
1.44838e-05
0.000272192
1.46286e-05
0.000269231
1.47667e-05
0.000266244
1.48983e-05
0.000263232
1.50236e-05
0.000260196