/*--------------------------------*- C++ -*----------------------------------*\
| =========                 |                                                 |
| \\      /  F ield         | OpenFOAM: The Open Source CFD Toolbox           |
|  \\    /   O peration     | Version:  v2012                                 |
|   \\  /    A nd           | Website:  www.openfoam.com                      |
|    \\/     M anipulation  |                                                 |
\*---------------------------------------------------------------------------*/
FoamFile
{
    version     2.0;
    format      ascii;
    class       volVectorField;
    location    "14";
    object      U;
}
// * * * * * * * * * * * * * * * * * * * * * * * * * * * * * * * * * * * * * //

dimensions      [0 1 -1 0 0 0 0];


internalField   nonuniform List<vector> 
65536
(
(0.000706826 -0.000706846 0)
(0.00212052 -0.000706891 0)
(0.00353435 -0.000706977 0)
(0.00494839 -0.000707105 0)
(0.00636273 -0.000707276 0)
(0.00777745 -0.000707489 0)
(0.00919265 -0.000707743 0)
(0.0106084 -0.000708038 0)
(0.0120248 -0.000708373 0)
(0.0134418 -0.000708746 0)
(0.0148597 -0.000709158 0)
(0.0162784 -0.000709606 0)
(0.0176981 -0.000710089 0)
(0.0191188 -0.000710607 0)
(0.0205405 -0.000711157 0)
(0.0219634 -0.000711737 0)
(0.0233874 -0.000712347 0)
(0.0248127 -0.000712984 0)
(0.0262393 -0.000713646 0)
(0.0276673 -0.000714331 0)
(0.0290966 -0.000715036 0)
(0.0305274 -0.000715759 0)
(0.0319597 -0.000716498 0)
(0.0333934 -0.000717249 0)
(0.0348286 -0.00071801 0)
(0.0362654 -0.000718778 0)
(0.0377038 -0.000719549 0)
(0.0391436 -0.000720321 0)
(0.040585 -0.000721089 0)
(0.042028 -0.00072185 0)
(0.0434725 -0.0007226 0)
(0.0449184 -0.000723336 0)
(0.0463658 -0.000724052 0)
(0.0478146 -0.000724745 0)
(0.0492648 -0.000725411 0)
(0.0507163 -0.000726044 0)
(0.052169 -0.00072664 0)
(0.0536229 -0.000727193 0)
(0.0550779 -0.0007277 0)
(0.0565338 -0.000728153 0)
(0.0579905 -0.000728548 0)
(0.059448 -0.00072888 0)
(0.0609061 -0.000729142 0)
(0.0623647 -0.000729328 0)
(0.0638235 -0.000729433 0)
(0.0652825 -0.000729449 0)
(0.0667414 -0.000729371 0)
(0.0682001 -0.000729192 0)
(0.0696583 -0.000728905 0)
(0.0711158 -0.000728503 0)
(0.0725724 -0.000727979 0)
(0.0740279 -0.000727327 0)
(0.0754819 -0.000726538 0)
(0.0769342 -0.000725605 0)
(0.0783844 -0.000724522 0)
(0.0798324 -0.000723279 0)
(0.0812777 -0.000721871 0)
(0.0827201 -0.000720288 0)
(0.0841591 -0.000718524 0)
(0.0855944 -0.000716569 0)
(0.0870255 -0.000714418 0)
(0.0884522 -0.000712061 0)
(0.089874 -0.00070949 0)
(0.0912904 -0.000706699 0)
(0.092701 -0.000703679 0)
(0.0941054 -0.000700422 0)
(0.095503 -0.000696921 0)
(0.0968933 -0.000693168 0)
(0.0982759 -0.000689156 0)
(0.0996502 -0.000684877 0)
(0.101016 -0.000680325 0)
(0.102372 -0.000675492 0)
(0.103718 -0.000670372 0)
(0.105054 -0.000664958 0)
(0.106378 -0.000659244 0)
(0.107691 -0.000653223 0)
(0.108991 -0.000646892 0)
(0.110279 -0.000640243 0)
(0.111553 -0.000633273 0)
(0.112812 -0.000625976 0)
(0.114057 -0.000618349 0)
(0.115286 -0.000610387 0)
(0.116499 -0.000602089 0)
(0.117695 -0.00059345 0)
(0.118873 -0.000584469 0)
(0.120033 -0.000575144 0)
(0.121174 -0.000565474 0)
(0.122295 -0.000555458 0)
(0.123396 -0.000545097 0)
(0.124476 -0.00053439 0)
(0.125534 -0.00052334 0)
(0.126569 -0.000511948 0)
(0.127582 -0.000500216 0)
(0.128571 -0.000488148 0)
(0.129535 -0.000475748 0)
(0.130474 -0.00046302 0)
(0.131387 -0.00044997 0)
(0.132274 -0.000436602 0)
(0.133134 -0.000422925 0)
(0.133966 -0.000408944 0)
(0.13477 -0.000394668 0)
(0.135545 -0.000380106 0)
(0.136291 -0.000365266 0)
(0.137006 -0.000350159 0)
(0.137692 -0.000334794 0)
(0.138346 -0.000319183 0)
(0.138969 -0.000303338 0)
(0.139559 -0.000287269 0)
(0.140118 -0.000270991 0)
(0.140644 -0.000254516 0)
(0.141136 -0.000237857 0)
(0.141595 -0.000221029 0)
(0.14202 -0.000204046 0)
(0.142411 -0.000186923 0)
(0.142768 -0.000169675 0)
(0.14309 -0.000152317 0)
(0.143378 -0.000134864 0)
(0.14363 -0.000117333 0)
(0.143847 -9.97392e-05 0)
(0.144029 -8.20988e-05 0)
(0.144175 -6.44279e-05 0)
(0.144287 -4.67425e-05 0)
(0.144362 -2.90588e-05 0)
(0.144403 -1.13927e-05 0)
(0.144408 6.23976e-06 0)
(0.144378 2.38229e-05 0)
(0.144313 4.13411e-05 0)
(0.144212 5.8779e-05 0)
(0.144077 7.61216e-05 0)
(0.143908 9.33539e-05 0)
(0.143704 0.000110462 0)
(0.143466 0.000127431 0)
(0.143194 0.000144247 0)
(0.142889 0.000160898 0)
(0.14255 0.000177371 0)
(0.142179 0.000193653 0)
(0.141775 0.000209732 0)
(0.14134 0.000225597 0)
(0.140873 0.000241238 0)
(0.140375 0.000256644 0)
(0.139846 0.000271806 0)
(0.139287 0.000286714 0)
(0.138699 0.000301361 0)
(0.138081 0.000315738 0)
(0.137435 0.000329839 0)
(0.136762 0.000343656 0)
(0.136061 0.000357183 0)
(0.135333 0.000370416 0)
(0.134579 0.000383349 0)
(0.133799 0.000395979 0)
(0.132994 0.000408301 0)
(0.132165 0.000420312 0)
(0.131313 0.000432011 0)
(0.130437 0.000443395 0)
(0.129539 0.000454463 0)
(0.128619 0.000465214 0)
(0.127678 0.000475647 0)
(0.126716 0.000485763 0)
(0.125734 0.000495563 0)
(0.124733 0.000505047 0)
(0.123714 0.000514217 0)
(0.122676 0.000523076 0)
(0.121621 0.000531624 0)
(0.120549 0.000539866 0)
(0.119461 0.000547803 0)
(0.118358 0.00055544 0)
(0.117239 0.000562781 0)
(0.116107 0.000569828 0)
(0.11496 0.000576587 0)
(0.1138 0.000583062 0)
(0.112627 0.000589258 0)
(0.111443 0.00059518 0)
(0.110246 0.000600833 0)
(0.109039 0.000606222 0)
(0.107821 0.000611354 0)
(0.106593 0.000616232 0)
(0.105356 0.000620865 0)
(0.10411 0.000625257 0)
(0.102855 0.000629414 0)
(0.101592 0.000633342 0)
(0.100321 0.000637048 0)
(0.0990433 0.000640538 0)
(0.0977588 0.000643818 0)
(0.0964679 0.000646895 0)
(0.095171 0.000649774 0)
(0.0938686 0.000652461 0)
(0.092561 0.000654964 0)
(0.0912485 0.000657288 0)
(0.0899317 0.000659439 0)
(0.0886106 0.000661425 0)
(0.0872858 0.00066325 0)
(0.0859575 0.000664921 0)
(0.084626 0.000666443 0)
(0.0832916 0.000667824 0)
(0.0819545 0.000669068 0)
(0.0806152 0.000670182 0)
(0.0792737 0.000671171 0)
(0.0779304 0.000672041 0)
(0.0765854 0.000672797 0)
(0.0752391 0.000673445 0)
(0.0738915 0.000673989 0)
(0.072543 0.000674436 0)
(0.0711937 0.000674791 0)
(0.0698438 0.000675057 0)
(0.0684934 0.000675241 0)
(0.0671427 0.000675347 0)
(0.0657919 0.00067538 0)
(0.0644411 0.000675344 0)
(0.0630905 0.000675244 0)
(0.0617401 0.000675083 0)
(0.0603901 0.000674867 0)
(0.0590406 0.0006746 0)
(0.0576917 0.000674285 0)
(0.0563434 0.000673926 0)
(0.0549959 0.000673527 0)
(0.0536493 0.000673092 0)
(0.0523035 0.000672623 0)
(0.0509587 0.000672126 0)
(0.049615 0.000671603 0)
(0.0482723 0.000671057 0)
(0.0469307 0.000670491 0)
(0.0455903 0.000669908 0)
(0.0442511 0.000669312 0)
(0.0429131 0.000668704 0)
(0.0415763 0.000668088 0)
(0.0402407 0.000667467 0)
(0.0389064 0.000666842 0)
(0.0375733 0.000666217 0)
(0.0362415 0.000665593 0)
(0.034911 0.000664972 0)
(0.0335817 0.000664358 0)
(0.0322536 0.000663751 0)
(0.0309267 0.000663154 0)
(0.029601 0.000662568 0)
(0.0282764 0.000661996 0)
(0.026953 0.000661439 0)
(0.0256307 0.000660898 0)
(0.0243094 0.000660375 0)
(0.0229892 0.000659872 0)
(0.02167 0.000659389 0)
(0.0203517 0.000658929 0)
(0.0190343 0.000658492 0)
(0.0177177 0.000658079 0)
(0.016402 0.000657691 0)
(0.015087 0.00065733 0)
(0.0137727 0.000656996 0)
(0.012459 0.000656689 0)
(0.011146 0.000656412 0)
(0.00983342 0.000656163 0)
(0.00852134 0.000655945 0)
(0.00720967 0.000655757 0)
(0.00589835 0.000655599 0)
(0.00458731 0.000655472 0)
(0.00327649 0.000655378 0)
(0.00196583 0.000655314 0)
(0.000655266 0.000655282 0)
(0.000706784 -0.0021205 0)
(0.0021204 -0.00212063 0)
(0.00353414 -0.00212089 0)
(0.00494809 -0.00212128 0)
(0.00636235 -0.00212179 0)
(0.00777699 -0.00212243 0)
(0.00919211 -0.00212319 0)
(0.0106078 -0.00212408 0)
(0.0120241 -0.00212508 0)
(0.0134411 -0.0021262 0)
(0.0148589 -0.00212744 0)
(0.0162775 -0.00212878 0)
(0.0176971 -0.00213024 0)
(0.0191177 -0.00213179 0)
(0.0205394 -0.00213344 0)
(0.0219622 -0.00213519 0)
(0.0233862 -0.00213702 0)
(0.0248114 -0.00213893 0)
(0.026238 -0.00214092 0)
(0.0276659 -0.00214297 0)
(0.0290952 -0.00214509 0)
(0.030526 -0.00214726 0)
(0.0319582 -0.00214948 0)
(0.0333919 -0.00215174 0)
(0.0348271 -0.00215403 0)
(0.0362639 -0.00215633 0)
(0.0377022 -0.00215865 0)
(0.0391421 -0.00216097 0)
(0.0405835 -0.00216328 0)
(0.0420265 -0.00216556 0)
(0.043471 -0.00216782 0)
(0.044917 -0.00217003 0)
(0.0463644 -0.00217218 0)
(0.0478133 -0.00217427 0)
(0.0492636 -0.00217627 0)
(0.0507151 -0.00217817 0)
(0.0521679 -0.00217996 0)
(0.0536219 -0.00218163 0)
(0.0550769 -0.00218315 0)
(0.056533 -0.00218452 0)
(0.0579899 -0.00218571 0)
(0.0594475 -0.00218671 0)
(0.0609057 -0.0021875 0)
(0.0623644 -0.00218807 0)
(0.0638234 -0.00218839 0)
(0.0652826 -0.00218844 0)
(0.0667417 -0.00218822 0)
(0.0682006 -0.00218768 0)
(0.069659 -0.00218683 0)
(0.0711168 -0.00218563 0)
(0.0725737 -0.00218407 0)
(0.0740294 -0.00218212 0)
(0.0754836 -0.00217976 0)
(0.0769362 -0.00217697 0)
(0.0783868 -0.00217372 0)
(0.0798351 -0.00217 0)
(0.0812808 -0.00216579 0)
(0.0827235 -0.00216105 0)
(0.0841628 -0.00215576 0)
(0.0855985 -0.00214991 0)
(0.0870301 -0.00214346 0)
(0.0884572 -0.0021364 0)
(0.0898794 -0.00212869 0)
(0.0912963 -0.00212033 0)
(0.0927073 -0.00211127 0)
(0.0941122 -0.00210151 0)
(0.0955103 -0.00209101 0)
(0.0969011 -0.00207976 0)
(0.0982842 -0.00206773 0)
(0.0996591 -0.00205491 0)
(0.101025 -0.00204125 0)
(0.102382 -0.00202676 0)
(0.103729 -0.00201141 0)
(0.105065 -0.00199517 0)
(0.10639 -0.00197804 0)
(0.107703 -0.00195998 0)
(0.109004 -0.00194099 0)
(0.110292 -0.00192105 0)
(0.111567 -0.00190014 0)
(0.112827 -0.00187826 0)
(0.114072 -0.00185538 0)
(0.115302 -0.0018315 0)
(0.116516 -0.0018066 0)
(0.117712 -0.00178069 0)
(0.118891 -0.00175375 0)
(0.120052 -0.00172578 0)
(0.121193 -0.00169677 0)
(0.122315 -0.00166672 0)
(0.123417 -0.00163563 0)
(0.124498 -0.00160351 0)
(0.125556 -0.00157036 0)
(0.126593 -0.00153618 0)
(0.127606 -0.00150098 0)
(0.128595 -0.00146477 0)
(0.12956 -0.00142757 0)
(0.1305 -0.00138938 0)
(0.131414 -0.00135022 0)
(0.132301 -0.00131011 0)
(0.133162 -0.00126907 0)
(0.133994 -0.00122712 0)
(0.134799 -0.00118429 0)
(0.135575 -0.00114059 0)
(0.136321 -0.00109606 0)
(0.137037 -0.00105073 0)
(0.137723 -0.00100463 0)
(0.138377 -0.000957781 0)
(0.139001 -0.000910232 0)
(0.139592 -0.000862014 0)
(0.140151 -0.000813166 0)
(0.140677 -0.000763726 0)
(0.14117 -0.000713737 0)
(0.141629 -0.000663238 0)
(0.142055 -0.000612275 0)
(0.142446 -0.00056089 0)
(0.142803 -0.00050913 0)
(0.143125 -0.00045704 0)
(0.143413 -0.000404667 0)
(0.143665 -0.000352057 0)
(0.143882 -0.00029926 0)
(0.144064 -0.000246323 0)
(0.144211 -0.000193294 0)
(0.144322 -0.000140222 0)
(0.144398 -8.7155e-05 0)
(0.144438 -3.4141e-05 0)
(0.144443 1.87722e-05 0)
(0.144413 7.15372e-05 0)
(0.144347 0.000124107 0)
(0.144247 0.000176436 0)
(0.144112 0.000228478 0)
(0.143942 0.00028019 0)
(0.143738 0.000331527 0)
(0.143499 0.000382448 0)
(0.143227 0.000432911 0)
(0.142922 0.000482876 0)
(0.142583 0.000532306 0)
(0.142211 0.000581163 0)
(0.141807 0.000629412 0)
(0.141371 0.000677019 0)
(0.140904 0.000723952 0)
(0.140405 0.00077018 0)
(0.139876 0.000815674 0)
(0.139317 0.000860408 0)
(0.138728 0.000904355 0)
(0.13811 0.000947494 0)
(0.137463 0.000989801 0)
(0.136789 0.00103126 0)
(0.136087 0.00107185 0)
(0.135359 0.00111155 0)
(0.134604 0.00115035 0)
(0.133824 0.00118824 0)
(0.133019 0.00122521 0)
(0.132189 0.00126125 0)
(0.131336 0.00129635 0)
(0.130459 0.0013305 0)
(0.129561 0.00136371 0)
(0.12864 0.00139596 0)
(0.127698 0.00142726 0)
(0.126736 0.00145761 0)
(0.125754 0.00148701 0)
(0.124752 0.00151546 0)
(0.123732 0.00154297 0)
(0.122694 0.00156954 0)
(0.121638 0.00159518 0)
(0.120566 0.0016199 0)
(0.119477 0.00164371 0)
(0.118373 0.00166662 0)
(0.117254 0.00168863 0)
(0.11612 0.00170977 0)
(0.114973 0.00173005 0)
(0.113813 0.00174947 0)
(0.112639 0.00176805 0)
(0.111454 0.00178581 0)
(0.110257 0.00180276 0)
(0.109049 0.00181892 0)
(0.107831 0.00183431 0)
(0.106603 0.00184894 0)
(0.105365 0.00186283 0)
(0.104118 0.001876 0)
(0.102863 0.00188847 0)
(0.101599 0.00190025 0)
(0.100328 0.00191136 0)
(0.09905 0.00192182 0)
(0.0977651 0.00193166 0)
(0.0964738 0.00194088 0)
(0.0951765 0.00194951 0)
(0.0938737 0.00195757 0)
(0.0925657 0.00196507 0)
(0.091253 0.00197203 0)
(0.0899357 0.00197848 0)
(0.0886144 0.00198443 0)
(0.0872892 0.0019899 0)
(0.0859606 0.00199491 0)
(0.0846288 0.00199947 0)
(0.0832941 0.00200361 0)
(0.0819568 0.00200733 0)
(0.0806172 0.00201067 0)
(0.0792755 0.00201363 0)
(0.0779319 0.00201623 0)
(0.0765868 0.0020185 0)
(0.0752402 0.00202043 0)
(0.0738925 0.00202206 0)
(0.0725438 0.0020234 0)
(0.0711943 0.00202446 0)
(0.0698442 0.00202525 0)
(0.0684936 0.0020258 0)
(0.0671428 0.00202611 0)
(0.0657919 0.00202621 0)
(0.0644409 0.00202609 0)
(0.0630902 0.00202579 0)
(0.0617397 0.0020253 0)
(0.0603896 0.00202465 0)
(0.05904 0.00202385 0)
(0.0576909 0.0020229 0)
(0.0563426 0.00202182 0)
(0.054995 0.00202061 0)
(0.0536483 0.00201931 0)
(0.0523025 0.0020179 0)
(0.0509577 0.0020164 0)
(0.0496139 0.00201483 0)
(0.0482712 0.00201319 0)
(0.0469296 0.00201149 0)
(0.0455891 0.00200974 0)
(0.0442499 0.00200794 0)
(0.0429118 0.00200612 0)
(0.041575 0.00200427 0)
(0.0402394 0.0020024 0)
(0.0389051 0.00200053 0)
(0.0375721 0.00199865 0)
(0.0362403 0.00199677 0)
(0.0349097 0.00199491 0)
(0.0335804 0.00199306 0)
(0.0322523 0.00199124 0)
(0.0309255 0.00198945 0)
(0.0295998 0.00198769 0)
(0.0282753 0.00198597 0)
(0.0269519 0.0019843 0)
(0.0256296 0.00198267 0)
(0.0243084 0.0019811 0)
(0.0229882 0.00197959 0)
(0.021669 0.00197814 0)
(0.0203508 0.00197676 0)
(0.0190334 0.00197545 0)
(0.0177169 0.00197421 0)
(0.0164012 0.00197305 0)
(0.0150863 0.00197196 0)
(0.013772 0.00197096 0)
(0.0124584 0.00197004 0)
(0.0111454 0.0019692 0)
(0.00983294 0.00196846 0)
(0.00852093 0.0019678 0)
(0.00720932 0.00196724 0)
(0.00589806 0.00196676 0)
(0.00458708 0.00196638 0)
(0.00327633 0.0019661 0)
(0.00196573 0.00196591 0)
(0.000655234 0.00196581 0)
(0.000706698 -0.00353403 0)
(0.00212014 -0.00353424 0)
(0.00353371 -0.00353467 0)
(0.00494749 -0.00353532 0)
(0.00636158 -0.00353618 0)
(0.00777606 -0.00353724 0)
(0.009191 -0.00353852 0)
(0.0106065 -0.00354 0)
(0.0120226 -0.00354167 0)
(0.0134395 -0.00354355 0)
(0.0148571 -0.00354561 0)
(0.0162756 -0.00354786 0)
(0.0176951 -0.00355028 0)
(0.0191156 -0.00355288 0)
(0.0205371 -0.00355563 0)
(0.0219598 -0.00355855 0)
(0.0233837 -0.0035616 0)
(0.0248088 -0.0035648 0)
(0.0262353 -0.00356812 0)
(0.0276631 -0.00357155 0)
(0.0290924 -0.00357509 0)
(0.030523 -0.00357872 0)
(0.0319552 -0.00358243 0)
(0.0333889 -0.0035862 0)
(0.0348241 -0.00359002 0)
(0.0362608 -0.00359388 0)
(0.0376991 -0.00359775 0)
(0.039139 -0.00360162 0)
(0.0405805 -0.00360548 0)
(0.0420235 -0.00360931 0)
(0.043468 -0.00361308 0)
(0.0449141 -0.00361678 0)
(0.0463616 -0.00362038 0)
(0.0478106 -0.00362387 0)
(0.0492609 -0.00362722 0)
(0.0507126 -0.00363041 0)
(0.0521656 -0.00363341 0)
(0.0536197 -0.00363621 0)
(0.055075 -0.00363876 0)
(0.0565312 -0.00364106 0)
(0.0579884 -0.00364306 0)
(0.0594463 -0.00364475 0)
(0.0609048 -0.00364609 0)
(0.0623638 -0.00364705 0)
(0.0638232 -0.00364761 0)
(0.0652827 -0.00364772 0)
(0.0667422 -0.00364736 0)
(0.0682015 -0.0036465 0)
(0.0696604 -0.0036451 0)
(0.0711186 -0.00364313 0)
(0.072576 -0.00364054 0)
(0.0740322 -0.00363732 0)
(0.075487 -0.00363341 0)
(0.0769402 -0.00362878 0)
(0.0783914 -0.0036234 0)
(0.0798404 -0.00361723 0)
(0.0812867 -0.00361023 0)
(0.0827301 -0.00360235 0)
(0.0841702 -0.00359357 0)
(0.0856067 -0.00358384 0)
(0.0870391 -0.00357312 0)
(0.088467 -0.00356137 0)
(0.0898901 -0.00354856 0)
(0.0913079 -0.00353464 0)
(0.0927199 -0.00351958 0)
(0.0941256 -0.00350333 0)
(0.0955247 -0.00348586 0)
(0.0969166 -0.00346714 0)
(0.0983008 -0.00344711 0)
(0.0996767 -0.00342575 0)
(0.101044 -0.00340303 0)
(0.102402 -0.0033789 0)
(0.10375 -0.00335333 0)
(0.105087 -0.00332629 0)
(0.106413 -0.00329775 0)
(0.107728 -0.00326767 0)
(0.10903 -0.00323604 0)
(0.11032 -0.00320282 0)
(0.111595 -0.00316799 0)
(0.112857 -0.00313153 0)
(0.114104 -0.00309341 0)
(0.115335 -0.00305362 0)
(0.11655 -0.00301214 0)
(0.117747 -0.00296896 0)
(0.118928 -0.00292406 0)
(0.12009 -0.00287744 0)
(0.121233 -0.00282909 0)
(0.122356 -0.00277901 0)
(0.123459 -0.0027272 0)
(0.124541 -0.00267366 0)
(0.125601 -0.0026184 0)
(0.126639 -0.00256143 0)
(0.127653 -0.00250276 0)
(0.128644 -0.0024424 0)
(0.12961 -0.00238037 0)
(0.130551 -0.00231671 0)
(0.131467 -0.00225143 0)
(0.132355 -0.00218456 0)
(0.133217 -0.00211613 0)
(0.134051 -0.00204619 0)
(0.134857 -0.00197477 0)
(0.135633 -0.00190191 0)
(0.136381 -0.00182766 0)
(0.137098 -0.00175207 0)
(0.137785 -0.0016752 0)
(0.13844 -0.00159708 0)
(0.139064 -0.00151779 0)
(0.139657 -0.00143739 0)
(0.140216 -0.00135593 0)
(0.140743 -0.00127349 0)
(0.141237 -0.00119012 0)
(0.141697 -0.00110591 0)
(0.142123 -0.00102092 0)
(0.142515 -0.000935234 0)
(0.142872 -0.000848916 0)
(0.143195 -0.000762047 0)
(0.143483 -0.000674705 0)
(0.143735 -0.00058697 0)
(0.143953 -0.000498922 0)
(0.144135 -0.000410639 0)
(0.144282 -0.000322204 0)
(0.144393 -0.000233697 0)
(0.144468 -0.000145198 0)
(0.144509 -5.67884e-05 0)
(0.144514 3.14528e-05 0)
(0.144483 0.000119446 0)
(0.144417 0.000207114 0)
(0.144317 0.000294379 0)
(0.144181 0.000381166 0)
(0.144011 0.0004674 0)
(0.143806 0.000553009 0)
(0.143567 0.000637922 0)
(0.143294 0.000722071 0)
(0.142988 0.00080539 0)
(0.142648 0.000887814 0)
(0.142276 0.000969282 0)
(0.141871 0.00104973 0)
(0.141434 0.00112912 0)
(0.140966 0.00120737 0)
(0.140466 0.00128445 0)
(0.139936 0.0013603 0)
(0.139376 0.00143489 0)
(0.138786 0.00150816 0)
(0.138167 0.00158008 0)
(0.137519 0.00165061 0)
(0.136844 0.00171973 0)
(0.136141 0.00178739 0)
(0.135411 0.00185358 0)
(0.134655 0.00191827 0)
(0.133874 0.00198143 0)
(0.133067 0.00204306 0)
(0.132237 0.00210313 0)
(0.131382 0.00216163 0)
(0.130504 0.00221856 0)
(0.129604 0.0022739 0)
(0.128682 0.00232766 0)
(0.127739 0.00237982 0)
(0.126776 0.0024304 0)
(0.125792 0.0024794 0)
(0.124789 0.00252681 0)
(0.123768 0.00257265 0)
(0.122728 0.00261693 0)
(0.121672 0.00265966 0)
(0.120598 0.00270085 0)
(0.119508 0.00274052 0)
(0.118403 0.00277869 0)
(0.117283 0.00281537 0)
(0.116148 0.00285058 0)
(0.114999 0.00288436 0)
(0.113838 0.00291671 0)
(0.112664 0.00294766 0)
(0.111477 0.00297724 0)
(0.110279 0.00300548 0)
(0.10907 0.0030324 0)
(0.107851 0.00305803 0)
(0.106622 0.00308239 0)
(0.105383 0.00310553 0)
(0.104135 0.00312746 0)
(0.102879 0.00314821 0)
(0.101615 0.00316782 0)
(0.100343 0.00318632 0)
(0.0990636 0.00320374 0)
(0.0977778 0.00322011 0)
(0.0964857 0.00323546 0)
(0.0951876 0.00324982 0)
(0.0938841 0.00326323 0)
(0.0925754 0.00327571 0)
(0.0912619 0.0032873 0)
(0.089944 0.00329803 0)
(0.088622 0.00330792 0)
(0.0872962 0.00331702 0)
(0.085967 0.00332534 0)
(0.0846346 0.00333293 0)
(0.0832994 0.0033398 0)
(0.0819615 0.00334599 0)
(0.0806214 0.00335153 0)
(0.0792792 0.00335645 0)
(0.0779352 0.00336077 0)
(0.0765896 0.00336452 0)
(0.0752426 0.00336773 0)
(0.0738944 0.00337043 0)
(0.0725454 0.00337264 0)
(0.0711955 0.00337439 0)
(0.0698451 0.0033757 0)
(0.0684942 0.00337659 0)
(0.0671431 0.0033771 0)
(0.0657919 0.00337724 0)
(0.0644407 0.00337704 0)
(0.0630896 0.00337651 0)
(0.0617389 0.00337569 0)
(0.0603886 0.00337459 0)
(0.0590388 0.00337323 0)
(0.0576896 0.00337164 0)
(0.0563411 0.00336982 0)
(0.0549934 0.00336781 0)
(0.0536465 0.00336562 0)
(0.0523006 0.00336326 0)
(0.0509556 0.00336076 0)
(0.0496117 0.00335812 0)
(0.0482689 0.00335538 0)
(0.0469273 0.00335253 0)
(0.0455868 0.0033496 0)
(0.0442475 0.00334661 0)
(0.0429094 0.00334356 0)
(0.0415725 0.00334047 0)
(0.0402369 0.00333735 0)
(0.0389026 0.00333421 0)
(0.0375696 0.00333107 0)
(0.0362378 0.00332794 0)
(0.0349073 0.00332483 0)
(0.033578 0.00332175 0)
(0.0322499 0.0033187 0)
(0.0309231 0.00331571 0)
(0.0295975 0.00331277 0)
(0.028273 0.0033099 0)
(0.0269497 0.00330711 0)
(0.0256275 0.00330439 0)
(0.0243063 0.00330177 0)
(0.0229862 0.00329925 0)
(0.0216671 0.00329683 0)
(0.020349 0.00329453 0)
(0.0190317 0.00329233 0)
(0.0177153 0.00329026 0)
(0.0163997 0.00328832 0)
(0.0150849 0.00328651 0)
(0.0137708 0.00328484 0)
(0.0124573 0.0032833 0)
(0.0111444 0.00328191 0)
(0.00983201 0.00328066 0)
(0.00852011 0.00327957 0)
(0.00720863 0.00327862 0)
(0.00589749 0.00327783 0)
(0.00458664 0.0032772 0)
(0.00327601 0.00327673 0)
(0.00196554 0.00327641 0)
(0.000655171 0.00327625 0)
(0.000706568 -0.00494734 0)
(0.00211975 -0.00494764 0)
(0.00353306 -0.00494824 0)
(0.00494659 -0.00494915 0)
(0.00636042 -0.00495035 0)
(0.00777464 -0.00495185 0)
(0.00918934 -0.00495364 0)
(0.0106046 -0.00495571 0)
(0.0120205 -0.00495807 0)
(0.0134371 -0.0049607 0)
(0.0148545 -0.0049636 0)
(0.0162728 -0.00496675 0)
(0.0176921 -0.00497015 0)
(0.0191123 -0.0049738 0)
(0.0205337 -0.00497767 0)
(0.0219562 -0.00498176 0)
(0.0233799 -0.00498606 0)
(0.0248049 -0.00499054 0)
(0.0262312 -0.00499521 0)
(0.0276589 -0.00500003 0)
(0.029088 -0.005005 0)
(0.0305186 -0.0050101 0)
(0.0319507 -0.00501531 0)
(0.0333843 -0.00502061 0)
(0.0348194 -0.00502598 0)
(0.0362562 -0.0050314 0)
(0.0376945 -0.00503685 0)
(0.0391343 -0.0050423 0)
(0.0405758 -0.00504772 0)
(0.0420189 -0.00505311 0)
(0.0434635 -0.00505841 0)
(0.0449096 -0.00506362 0)
(0.0463573 -0.0050687 0)
(0.0478064 -0.00507361 0)
(0.049257 -0.00507833 0)
(0.0507089 -0.00508283 0)
(0.0521621 -0.00508707 0)
(0.0536165 -0.00509102 0)
(0.055072 -0.00509464 0)
(0.0565286 -0.00509789 0)
(0.0579861 -0.00510074 0)
(0.0594444 -0.00510314 0)
(0.0609034 -0.00510506 0)
(0.0623629 -0.00510645 0)
(0.0638227 -0.00510726 0)
(0.0652828 -0.00510747 0)
(0.0667429 -0.00510702 0)
(0.0682028 -0.00510586 0)
(0.0696623 -0.00510394 0)
(0.0711213 -0.00510123 0)
(0.0725794 -0.00509766 0)
(0.0740364 -0.0050932 0)
(0.0754921 -0.00508778 0)
(0.0769462 -0.00508135 0)
(0.0783983 -0.00507387 0)
(0.0798482 -0.00506529 0)
(0.0812956 -0.00505553 0)
(0.08274 -0.00504456 0)
(0.0841813 -0.00503232 0)
(0.0856189 -0.00501875 0)
(0.0870525 -0.0050038 0)
(0.0884817 -0.00498741 0)
(0.0899061 -0.00496953 0)
(0.0913252 -0.0049501 0)
(0.0927386 -0.00492907 0)
(0.0941458 -0.00490638 0)
(0.0955464 -0.00488197 0)
(0.0969398 -0.00485581 0)
(0.0983255 -0.00482782 0)
(0.0997031 -0.00479797 0)
(0.101072 -0.0047662 0)
(0.102431 -0.00473247 0)
(0.103781 -0.00469672 0)
(0.10512 -0.0046589 0)
(0.106448 -0.00461899 0)
(0.107765 -0.00457693 0)
(0.109069 -0.00453268 0)
(0.11036 -0.00448621 0)
(0.111638 -0.00443748 0)
(0.112902 -0.00438646 0)
(0.11415 -0.00433312 0)
(0.115383 -0.00427743 0)
(0.1166 -0.00421938 0)
(0.1178 -0.00415894 0)
(0.118983 -0.0040961 0)
(0.120147 -0.00403084 0)
(0.121292 -0.00396316 0)
(0.122417 -0.00389304 0)
(0.123522 -0.0038205 0)
(0.124606 -0.00374554 0)
(0.125669 -0.00366816 0)
(0.126708 -0.00358838 0)
(0.127725 -0.00350622 0)
(0.128718 -0.00342169 0)
(0.129686 -0.00333482 0)
(0.130629 -0.00324565 0)
(0.131546 -0.00315422 0)
(0.132437 -0.00306055 0)
(0.1333 -0.00296471 0)
(0.134136 -0.00286674 0)
(0.134943 -0.00276669 0)
(0.135722 -0.00266462 0)
(0.136471 -0.00256061 0)
(0.137189 -0.00245471 0)
(0.137878 -0.002347 0)
(0.138535 -0.00223756 0)
(0.13916 -0.00212647 0)
(0.139754 -0.00201382 0)
(0.140315 -0.00189969 0)
(0.140843 -0.00178417 0)
(0.141337 -0.00166736 0)
(0.141798 -0.00154937 0)
(0.142225 -0.00143028 0)
(0.142618 -0.00131021 0)
(0.142976 -0.00118925 0)
(0.143299 -0.00106753 0)
(0.143588 -0.000945138 0)
(0.143841 -0.000822197 0)
(0.144059 -0.000698817 0)
(0.144241 -0.000575109 0)
(0.144388 -0.000451187 0)
(0.144499 -0.000327164 0)
(0.144575 -0.000203153 0)
(0.144615 -7.92679e-05 0)
(0.144619 4.43805e-05 0)
(0.144589 0.000167681 0)
(0.144522 0.000290523 0)
(0.144421 0.0004128 0)
(0.144285 0.000534405 0)
(0.144114 0.000655234 0)
(0.143908 0.000775185 0)
(0.143669 0.00089416 0)
(0.143395 0.00101206 0)
(0.143087 0.0011288 0)
(0.142747 0.00124428 0)
(0.142373 0.00135842 0)
(0.141967 0.00147113 0)
(0.141529 0.00158234 0)
(0.141059 0.00169196 0)
(0.140558 0.00179994 0)
(0.140026 0.0019062 0)
(0.139465 0.00201068 0)
(0.138873 0.00211331 0)
(0.138252 0.00221405 0)
(0.137603 0.00231285 0)
(0.136926 0.00240965 0)
(0.136221 0.00250442 0)
(0.13549 0.00259712 0)
(0.134732 0.00268771 0)
(0.133949 0.00277616 0)
(0.13314 0.00286246 0)
(0.132308 0.00294658 0)
(0.131451 0.00302849 0)
(0.130572 0.0031082 0)
(0.12967 0.00318569 0)
(0.128746 0.00326095 0)
(0.127801 0.00333398 0)
(0.126835 0.00340478 0)
(0.12585 0.00347336 0)
(0.124845 0.00353973 0)
(0.123822 0.0036039 0)
(0.122781 0.00366587 0)
(0.121722 0.00372567 0)
(0.120646 0.00378332 0)
(0.119555 0.00383883 0)
(0.118448 0.00389224 0)
(0.117326 0.00394356 0)
(0.116189 0.00399284 0)
(0.115039 0.00404009 0)
(0.113876 0.00408534 0)
(0.1127 0.00412865 0)
(0.111512 0.00417003 0)
(0.110312 0.00420952 0)
(0.109102 0.00424717 0)
(0.107881 0.00428301 0)
(0.10665 0.00431708 0)
(0.10541 0.00434942 0)
(0.104161 0.00438008 0)
(0.102903 0.00440909 0)
(0.101637 0.00443651 0)
(0.100364 0.00446236 0)
(0.0990838 0.00448671 0)
(0.0977968 0.00450958 0)
(0.0965035 0.00453102 0)
(0.0952043 0.00455109 0)
(0.0938996 0.00456981 0)
(0.0925898 0.00458725 0)
(0.0912753 0.00460343 0)
(0.0899564 0.0046184 0)
(0.0886334 0.00463221 0)
(0.0873067 0.0046449 0)
(0.0859765 0.00465651 0)
(0.0846433 0.00466709 0)
(0.0833072 0.00467667 0)
(0.0819686 0.0046853 0)
(0.0806277 0.00469302 0)
(0.0792847 0.00469986 0)
(0.07794 0.00470587 0)
(0.0765937 0.00471109 0)
(0.0752461 0.00471555 0)
(0.0738974 0.00471929 0)
(0.0725477 0.00472235 0)
(0.0711973 0.00472476 0)
(0.0698464 0.00472655 0)
(0.068495 0.00472777 0)
(0.0671435 0.00472845 0)
(0.0657918 0.00472862 0)
(0.0644402 0.0047283 0)
(0.0630888 0.00472754 0)
(0.0617378 0.00472636 0)
(0.0603871 0.00472479 0)
(0.059037 0.00472286 0)
(0.0576875 0.0047206 0)
(0.0563388 0.00471803 0)
(0.0549908 0.00471519 0)
(0.0536438 0.00471209 0)
(0.0522977 0.00470877 0)
(0.0509526 0.00470524 0)
(0.0496085 0.00470153 0)
(0.0482656 0.00469767 0)
(0.0469238 0.00469366 0)
(0.0455832 0.00468954 0)
(0.0442438 0.00468533 0)
(0.0429057 0.00468104 0)
(0.0415688 0.00467669 0)
(0.0402332 0.00467231 0)
(0.0388989 0.0046679 0)
(0.0375658 0.00466349 0)
(0.036234 0.00465909 0)
(0.0349035 0.00465472 0)
(0.0335743 0.00465039 0)
(0.0322463 0.00464611 0)
(0.0309195 0.00464191 0)
(0.029594 0.00463778 0)
(0.0282696 0.00463376 0)
(0.0269464 0.00462983 0)
(0.0256243 0.00462603 0)
(0.0243032 0.00462235 0)
(0.0229833 0.00461881 0)
(0.0216643 0.00461541 0)
(0.0203463 0.00461217 0)
(0.0190291 0.0046091 0)
(0.0177129 0.00460619 0)
(0.0163975 0.00460347 0)
(0.0150828 0.00460092 0)
(0.0137688 0.00459857 0)
(0.0124555 0.00459642 0)
(0.0111428 0.00459447 0)
(0.0098306 0.00459272 0)
(0.00851889 0.00459118 0)
(0.00720759 0.00458986 0)
(0.00589664 0.00458875 0)
(0.00458597 0.00458786 0)
(0.00327553 0.00458719 0)
(0.00196526 0.00458675 0)
(0.000655075 0.00458653 0)
(0.000706394 -0.00636034 0)
(0.00211923 -0.00636073 0)
(0.00353219 -0.00636151 0)
(0.00494538 -0.00636268 0)
(0.00635887 -0.00636423 0)
(0.00777276 -0.00636617 0)
(0.00918712 -0.00636847 0)
(0.0106021 -0.00637115 0)
(0.0120176 -0.00637419 0)
(0.0134339 -0.00637758 0)
(0.0148511 -0.00638132 0)
(0.0162691 -0.00638539 0)
(0.017688 -0.00638979 0)
(0.019108 -0.00639449 0)
(0.0205291 -0.00639949 0)
(0.0219514 -0.00640477 0)
(0.0233749 -0.00641032 0)
(0.0247996 -0.00641611 0)
(0.0262258 -0.00642213 0)
(0.0276533 -0.00642836 0)
(0.0290822 -0.00643478 0)
(0.0305127 -0.00644137 0)
(0.0319446 -0.0064481 0)
(0.0333781 -0.00645495 0)
(0.0348132 -0.00646189 0)
(0.0362499 -0.0064689 0)
(0.0376882 -0.00647594 0)
(0.0391281 -0.00648299 0)
(0.0405696 -0.00649001 0)
(0.0420127 -0.00649698 0)
(0.0434574 -0.00650385 0)
(0.0449037 -0.00651059 0)
(0.0463515 -0.00651717 0)
(0.0478009 -0.00652354 0)
(0.0492516 -0.00652967 0)
(0.0507038 -0.00653551 0)
(0.0521573 -0.00654103 0)
(0.0536121 -0.00654616 0)
(0.055068 -0.00655088 0)
(0.0565251 -0.00655512 0)
(0.057983 -0.00655885 0)
(0.0594419 -0.00656201 0)
(0.0609014 -0.00656455 0)
(0.0623615 -0.00656641 0)
(0.0638221 -0.00656754 0)
(0.0652828 -0.00656788 0)
(0.0667437 -0.00656737 0)
(0.0682045 -0.00656596 0)
(0.0696649 -0.00656359 0)
(0.0711248 -0.00656018 0)
(0.0725839 -0.00655568 0)
(0.074042 -0.00655003 0)
(0.0754988 -0.00654315 0)
(0.076954 -0.00653498 0)
(0.0784074 -0.00652546 0)
(0.0798586 -0.00651451 0)
(0.0813073 -0.00650206 0)
(0.0827532 -0.00648805 0)
(0.0841959 -0.0064724 0)
(0.0856351 -0.00645505 0)
(0.0870703 -0.00643592 0)
(0.0885012 -0.00641495 0)
(0.0899273 -0.00639205 0)
(0.0913482 -0.00636716 0)
(0.0927635 -0.00634021 0)
(0.0941726 -0.00631113 0)
(0.0955752 -0.00627985 0)
(0.0969707 -0.00624629 0)
(0.0983585 -0.0062104 0)
(0.0997382 -0.00617211 0)
(0.101109 -0.00613135 0)
(0.102471 -0.00608805 0)
(0.103823 -0.00604217 0)
(0.105165 -0.00599363 0)
(0.106495 -0.00594238 0)
(0.107814 -0.00588837 0)
(0.109121 -0.00583154 0)
(0.110415 -0.00577185 0)
(0.111695 -0.00570925 0)
(0.112961 -0.0056437 0)
(0.114213 -0.00557517 0)
(0.115448 -0.00550362 0)
(0.116668 -0.00542901 0)
(0.117871 -0.00535133 0)
(0.119056 -0.00527055 0)
(0.120223 -0.00518666 0)
(0.121371 -0.00509965 0)
(0.122499 -0.0050095 0)
(0.123607 -0.00491623 0)
(0.124693 -0.00481983 0)
(0.125758 -0.00472032 0)
(0.126801 -0.00461772 0)
(0.12782 -0.00451204 0)
(0.128816 -0.00440331 0)
(0.129786 -0.00429158 0)
(0.130732 -0.00417687 0)
(0.131652 -0.00405924 0)
(0.132545 -0.00393873 0)
(0.133411 -0.00381542 0)
(0.134249 -0.00368936 0)
(0.135059 -0.00356062 0)
(0.13584 -0.00342928 0)
(0.136591 -0.00329543 0)
(0.137312 -0.00315915 0)
(0.138002 -0.00302054 0)
(0.138661 -0.00287969 0)
(0.139288 -0.00273672 0)
(0.139883 -0.00259172 0)
(0.140446 -0.00244482 0)
(0.140975 -0.00229614 0)
(0.141472 -0.00214579 0)
(0.141934 -0.00199391 0)
(0.142362 -0.00184062 0)
(0.142756 -0.00168606 0)
(0.143115 -0.00153036 0)
(0.143439 -0.00137367 0)
(0.143728 -0.00121612 0)
(0.143982 -0.00105787 0)
(0.1442 -0.00089904 0)
(0.144383 -0.000739793 0)
(0.14453 -0.000580271 0)
(0.144641 -0.000420619 0)
(0.144717 -0.000260984 0)
(0.144756 -0.000101511 0)
(0.144761 5.76556e-05 0)
(0.144729 0.000216372 0)
(0.144663 0.000374498 0)
(0.144561 0.000531893 0)
(0.144424 0.00068842 0)
(0.144252 0.000843945 0)