/*--------------------------------*- C++ -*----------------------------------*\
| =========                 |                                                 |
| \\      /  F ield         | OpenFOAM: The Open Source CFD Toolbox           |
|  \\    /   O peration     | Version:  v2012                                 |
|   \\  /    A nd           | Website:  www.openfoam.com                      |
|    \\/     M anipulation  |                                                 |
\*---------------------------------------------------------------------------*/
FoamFile
{
    version     2.0;
    format      ascii;
    class       volScalarField;
    location    "14";
    object      W;
}
// * * * * * * * * * * * * * * * * * * * * * * * * * * * * * * * * * * * * * //

dimensions      [0 0 -1 0 0 0 0];


internalField   nonuniform List<scalar> 
65536
(
1.84255e-15
1.8777e-15
1.94961e-15
2.05941e-15
2.20884e-15
2.40027e-15
2.63672e-15
2.92193e-15
3.26035e-15
3.65727e-15
4.11884e-15
4.65214e-15
5.26532e-15
5.96764e-15
6.76963e-15
7.68317e-15
8.72167e-15
9.9002e-15
1.12356e-14
1.27469e-14
1.44551e-14
1.63838e-14
1.85593e-14
2.10107e-14
2.37704e-14
2.68744e-14
3.03624e-14
3.42785e-14
3.86712e-14
4.35942e-14
4.91065e-14
5.52731e-14
6.21653e-14
6.98615e-14
7.84476e-14
8.80172e-14
9.86731e-14
1.10527e-13
1.23701e-13
1.38328e-13
1.54551e-13
1.72526e-13
1.92424e-13
2.14425e-13
2.38728e-13
2.65545e-13
2.95103e-13
3.27647e-13
3.63441e-13
4.02763e-13
4.45914e-13
4.93212e-13
5.44995e-13
6.01622e-13
6.63473e-13
7.30948e-13
8.04469e-13
8.8448e-13
9.71445e-13
1.06585e-12
1.16819e-12
1.27901e-12
1.39884e-12
1.52824e-12
1.66779e-12
1.81809e-12
1.97974e-12
2.15336e-12
2.33956e-12
2.53899e-12
2.75226e-12
2.98002e-12
3.2229e-12
3.4815e-12
3.75644e-12
4.04831e-12
4.35768e-12
4.68508e-12
5.03104e-12
5.39602e-12
5.78045e-12
6.18474e-12
6.60921e-12
7.05413e-12
7.51974e-12
8.00616e-12
8.51348e-12
9.0417e-12
9.59073e-12
1.01604e-11
1.07505e-11
1.13606e-11
1.19903e-11
1.26391e-11
1.33063e-11
1.39912e-11
1.4693e-11
1.54107e-11
1.61433e-11
1.68897e-11
1.76487e-11
1.8419e-11
1.91991e-11
1.99877e-11
2.07832e-11
2.1584e-11
2.23884e-11
2.31947e-11
2.40011e-11
2.48058e-11
2.56069e-11
2.64026e-11
2.71909e-11
2.79698e-11
2.87376e-11
2.94921e-11
3.02315e-11
3.09538e-11
3.16572e-11
3.23396e-11
3.29994e-11
3.36345e-11
3.42432e-11
3.48236e-11
3.53742e-11
3.58931e-11
3.63786e-11
3.68292e-11
3.72432e-11
3.76192e-11
3.79556e-11
3.8251e-11
3.8504e-11
3.87133e-11
3.88775e-11
3.89954e-11
3.90659e-11
3.90879e-11
3.90603e-11
3.89821e-11
3.88525e-11
3.86708e-11
3.84362e-11
3.81482e-11
3.78064e-11
3.74106e-11
3.69606e-11
3.64565e-11
3.58987e-11
3.52876e-11
3.4624e-11
3.39089e-11
3.31435e-11
3.23296e-11
3.14689e-11
3.05637e-11
2.96166e-11
2.86304e-11
2.76085e-11
2.65544e-11
2.5472e-11
2.43656e-11
2.32398e-11
2.20993e-11
2.09493e-11
1.97949e-11
1.86415e-11
1.74947e-11
1.63599e-11
1.52425e-11
1.4148e-11
1.30815e-11
1.2048e-11
1.10521e-11
1.00981e-11
9.1898e-12
8.33062e-12
7.52341e-12
6.77048e-12
6.07359e-12
5.4339e-12
4.85199e-12
4.32788e-12
3.86101e-12
3.45031e-12
3.09418e-12
2.79056e-12
2.53695e-12
2.33046e-12
2.16785e-12
2.04556e-12
1.95978e-12
1.90646e-12
1.88138e-12
1.88022e-12
1.89855e-12
1.93194e-12
1.976e-12
2.02645e-12
2.07918e-12
2.13034e-12
2.17637e-12
2.21411e-12
2.24086e-12
2.25439e-12
2.25305e-12
2.23572e-12
2.2019e-12
2.15165e-12
2.08557e-12
2.00476e-12
1.91078e-12
1.80551e-12
1.69112e-12
1.56994e-12
1.44439e-12
1.31685e-12
1.18961e-12
1.06477e-12
9.44183e-13
8.29429e-13
7.21768e-13
6.22135e-13
5.31149e-13
4.49127e-13
3.76115e-13
3.11924e-13
2.56173e-13
2.08331e-13
1.67761e-13
1.33759e-13
1.05593e-13
8.25294e-14
6.38591e-14
4.89172e-14
3.70944e-14
2.78448e-14
2.06897e-14
1.52167e-14
1.10771e-14
7.98094e-15
5.691e-15
4.01618e-15
2.80485e-15
1.9385e-15
1.32575e-15
8.97211e-16
6.0085e-16
3.98217e-16
2.6128e-16
1.69886e-16
1.09765e-16
7.0993e-17
4.68304e-17
3.2884e-17
2.65248e-17
2.76571e-15
2.81848e-15
2.92654e-15
3.09156e-15
3.31618e-15
3.60395e-15
3.95944e-15
4.38828e-15
4.8972e-15
5.49417e-15
6.18847e-15
6.9908e-15
7.91347e-15
8.97045e-15
1.01776e-14
1.1553e-14
1.31168e-14
1.48918e-14
1.69035e-14
1.91805e-14
2.17547e-14
2.46617e-14
2.79413e-14
3.16375e-14
3.57993e-14
4.04811e-14
4.57429e-14
5.16514e-14
5.82799e-14
6.57095e-14
7.40295e-14
8.33379e-14
9.37427e-14
1.05362e-13
1.18325e-13
1.32774e-13
1.48863e-13
1.66761e-13
1.86652e-13
2.08734e-13
2.33225e-13
2.60358e-13
2.90388e-13
3.23588e-13
3.60253e-13
4.007e-13
4.45271e-13
4.94329e-13
5.48265e-13
6.07495e-13
6.72462e-13
7.43638e-13
8.21522e-13
9.06641e-13
9.99551e-13
1.10084e-12
1.21112e-12
1.33103e-12
1.46125e-12
1.60248e-12
1.75543e-12
1.92086e-12
2.09953e-12
2.29223e-12
2.49978e-12
2.723e-12
2.96271e-12
3.21976e-12
3.49499e-12
3.78924e-12
4.10334e-12
4.43811e-12
4.79436e-12
5.17285e-12
5.57433e-12
5.9995e-12
6.44902e-12
6.9235e-12
7.42347e-12
7.9494e-12
8.5017e-12
9.08067e-12
9.68653e-12
1.03194e-11
1.09793e-11
1.16661e-11
1.23796e-11
1.31195e-11
1.38853e-11
1.46763e-11
1.54919e-11
1.63312e-11
1.71932e-11
1.80767e-11
1.89804e-11
1.99029e-11
2.08427e-11
2.17981e-11
2.27673e-11
2.37483e-11
2.47392e-11
2.57378e-11
2.67419e-11
2.77493e-11
2.87575e-11
2.97642e-11
3.0767e-11
3.17632e-11
3.27504e-11
3.37261e-11
3.46878e-11
3.56329e-11
3.65589e-11
3.74635e-11
3.83441e-11
3.91985e-11
4.00242e-11
4.08192e-11
4.15813e-11
4.23083e-11
4.29984e-11
4.36495e-11
4.42599e-11
4.48278e-11
4.53517e-11
4.583e-11
4.62612e-11
4.66441e-11
4.69772e-11
4.72595e-11
4.74899e-11
4.76673e-11
4.77907e-11
4.78594e-11
4.78726e-11
4.78296e-11
4.77297e-11
4.75724e-11
4.73572e-11
4.70838e-11
4.67519e-11
4.63614e-11
4.59122e-11
4.54043e-11
4.48379e-11
4.42135e-11
4.35314e-11
4.27925e-11
4.19977e-11
4.11479e-11
4.02447e-11
3.92896e-11
3.82844e-11
3.72315e-11
3.61332e-11
3.49924e-11
3.38122e-11
3.25961e-11
3.13478e-11
3.00716e-11
2.87718e-11
2.74532e-11
2.61208e-11
2.478e-11
2.34361e-11
2.20948e-11
2.07619e-11
1.94432e-11
1.81443e-11
1.68711e-11
1.5629e-11
1.44234e-11
1.32593e-11
1.21413e-11
1.10738e-11
1.00605e-11
9.10467e-12
8.20899e-12
7.37556e-12
6.60587e-12
5.90081e-12
5.26062e-12
4.68496e-12
4.1729e-12
3.72295e-12
3.33311e-12
3.0009e-12
2.72338e-12
2.49725e-12
2.31881e-12
2.18411e-12
2.0889e-12
2.02874e-12
1.99903e-12
1.99505e-12
2.01203e-12
2.0452e-12
2.08987e-12
2.14144e-12
2.19555e-12
2.2481e-12
2.29532e-12
2.33388e-12
2.36091e-12
2.37408e-12
2.37165e-12
2.35247e-12
2.316e-12
2.26233e-12
2.19209e-12
2.10647e-12
2.00708e-12
1.89593e-12
1.77529e-12
1.64762e-12
1.51545e-12
1.38128e-12
1.2475e-12
1.11631e-12
9.89661e-13
8.69185e-13
7.562e-13
6.5168e-13
5.56262e-13
4.70272e-13
3.9375e-13
3.26491e-13
2.68091e-13
2.17987e-13
1.75509e-13
1.39916e-13
1.10437e-13
8.63031e-14
6.67702e-14
5.11406e-14
3.87756e-14
2.91034e-14
2.16224e-14
1.59009e-14
1.1574e-14
8.33811e-15
5.94513e-15
4.19514e-15
2.92958e-15
2.02453e-15
1.38449e-15
9.36888e-16
6.27376e-16
4.1577e-16
2.72779e-16
1.77351e-16
1.14582e-16
7.41037e-17
4.88795e-17
3.43209e-17
2.76834e-17
5.01876e-15
5.11464e-15
5.31104e-15
5.61102e-15
6.01937e-15
6.54259e-15
7.18902e-15
7.96893e-15
8.89462e-15
9.98066e-15
1.1244e-14
1.27042e-14
1.43837e-14
1.63082e-14
1.85066e-14
2.10119e-14
2.38611e-14
2.70958e-14
3.07627e-14
3.49142e-14
3.96087e-14
4.49115e-14
5.08951e-14
5.76404e-14
6.5237e-14
7.37845e-14
8.3393e-14
9.41844e-14
1.06293e-13
1.19868e-13
1.35071e-13
1.52083e-13
1.71101e-13
1.92342e-13
2.16041e-13
2.42458e-13
2.71875e-13
3.046e-13
3.40968e-13
3.81342e-13
4.26116e-13
4.75716e-13
5.30605e-13
5.91277e-13
6.58268e-13
7.32152e-13
8.13544e-13
9.03101e-13
1.00153e-12
1.10957e-12
1.22802e-12
1.35772e-12
1.49956e-12
1.65448e-12
1.82346e-12
2.00753e-12
2.20778e-12
2.42532e-12
2.66133e-12
2.91701e-12
3.1936e-12
3.49239e-12
3.81468e-12
4.16181e-12
4.53511e-12
4.93594e-12
5.36567e-12
5.82566e-12
6.31723e-12
6.84171e-12
7.40038e-12
7.99446e-12
8.62513e-12
9.2935e-12
1.00006e-11
1.07473e-11
1.15344e-11
1.23626e-11
1.32325e-11
1.41444e-11
1.50985e-11
1.6095e-11
1.71336e-11
1.82139e-11
1.93354e-11
2.04974e-11
2.16987e-11
2.29381e-11
2.42142e-11
2.55251e-11
2.68689e-11
2.82434e-11
2.9646e-11
3.10741e-11
3.25248e-11
3.3995e-11
3.54812e-11
3.698e-11
3.84877e-11
4.00005e-11
4.15144e-11
4.30254e-11
4.45293e-11
4.60218e-11
4.74988e-11
4.8956e-11
5.03892e-11
5.17941e-11
5.31667e-11
5.45028e-11
5.57986e-11
5.70502e-11
5.8254e-11
5.94065e-11
6.05044e-11
6.15446e-11
6.25241e-11
6.34403e-11
6.42908e-11
6.50732e-11
6.57856e-11
6.64262e-11
6.69935e-11
6.7486e-11
6.79028e-11
6.82428e-11
6.85054e-11
6.869e-11
6.87964e-11
6.88243e-11
6.87737e-11
6.86448e-11
6.84378e-11
6.81532e-11
6.77915e-11
6.73532e-11
6.68391e-11
6.62501e-11
6.5587e-11
6.48509e-11
6.40429e-11
6.31643e-11
6.22162e-11
6.12003e-11
6.0118e-11
5.89711e-11
5.77614e-11
5.64909e-11
5.51618e-11
5.37765e-11
5.23378e-11
5.08483e-11
4.93113e-11
4.77302e-11
4.61086e-11
4.44505e-11
4.27602e-11
4.10422e-11
3.93015e-11
3.75432e-11
3.57729e-11
3.39961e-11
3.2219e-11
3.04475e-11
2.8688e-11
2.69469e-11
2.52305e-11
2.35453e-11
2.18974e-11
2.0293e-11
1.8738e-11
1.72378e-11
1.57975e-11
1.44219e-11
1.31151e-11
1.18807e-11
1.07216e-11
9.63997e-12
8.63757e-12
7.71524e-12
6.87321e-12
6.11101e-12
5.42752e-12
4.82097e-12
4.28903e-12
3.8288e-12
3.43689e-12
3.10947e-12
2.8423e-12
2.63082e-12
2.47015e-12
2.35521e-12
2.2807e-12
2.2412e-12
2.23124e-12
2.24528e-12
2.27787e-12
2.32364e-12
2.37741e-12
2.43426e-12
2.48958e-12
2.53918e-12
2.57936e-12
2.60692e-12
2.61932e-12
2.61464e-12
2.59162e-12
2.5497e-12
2.489e-12
2.41023e-12
2.31471e-12
2.20425e-12
2.08105e-12
1.94761e-12
1.80664e-12
1.6609e-12
1.51315e-12
1.36598e-12
1.2218e-12
1.08273e-12
9.50542e-13
8.26661e-13
7.12135e-13
6.07647e-13
5.13536e-13
4.2983e-13
3.56294e-13
2.92473e-13
2.37742e-13
1.91359e-13
1.5251e-13
1.20346e-13
9.40228e-14
7.2725e-14
5.56885e-14
4.22144e-14
3.16776e-14
2.35301e-14
1.73004e-14
1.25903e-14
9.06864e-15
6.46488e-15
4.56114e-15
3.18468e-15
2.20049e-15
1.5046e-15
1.01803e-15
6.81623e-16
4.51664e-16
2.96293e-16
1.92617e-16
1.24431e-16
8.04648e-17
5.30694e-17
3.72591e-17
3.00513e-17
9.56677e-15
9.74985e-15
1.01249e-14
1.06978e-14
1.14778e-14
1.24773e-14
1.37122e-14
1.52024e-14
1.69714e-14
1.90472e-14
2.14622e-14
2.42543e-14
2.74663e-14
3.11475e-14
3.53538e-14
4.01483e-14
4.56021e-14
5.17954e-14
5.8818e-14
6.67705e-14
7.57653e-14
8.5928e-14
9.73983e-14
1.10332e-13
1.24901e-13
1.41297e-13
1.59733e-13
1.80442e-13
2.03684e-13
2.29744e-13
2.58937e-13
2.91608e-13
3.28137e-13
3.68939e-13
4.1447e-13
4.65228e-13
5.21754e-13
5.84639e-13
6.54527e-13
7.32115e-13
8.18156e-13
9.1347e-13
1.01894e-12
1.1355e-12
1.26419e-12
1.4061e-12
1.56239e-12
1.73433e-12
1.92323e-12
2.13052e-12
2.35769e-12
2.60633e-12
2.87812e-12
3.17481e-12
3.49824e-12
3.85034e-12
4.23311e-12
4.64862e-12
5.09903e-12
5.58654e-12
6.11343e-12
6.682e-12
7.29459e-12
7.9536e-12
8.66138e-12
9.42033e-12
1.02328e-11
1.11011e-11
1.20275e-11
1.30141e-11
1.40631e-11
1.51763e-11
1.63556e-11
1.76026e-11
1.89187e-11
2.0305e-11
2.17625e-11
2.32918e-11
2.48933e-11
2.6567e-11
2.83125e-11
3.0129e-11
3.20154e-11
3.39701e-11
3.59913e-11
3.80763e-11
4.02223e-11
4.24261e-11
4.46836e-11
4.69908e-11
4.93428e-11
5.17346e-11
5.41605e-11
5.66146e-11
5.90906e-11
6.15818e-11
6.40812e-11
6.65816e-11
6.90756e-11
7.15555e-11
7.40136e-11
7.6442e-11
7.88329e-11
8.11785e-11
8.3471e-11
8.57028e-11
8.78665e-11
8.99549e-11
9.19611e-11
9.38784e-11
9.57007e-11
9.74221e-11
9.90373e-11
1.00541e-10
1.01929e-10
1.03198e-10
1.04344e-10
1.05363e-10
1.06254e-10
1.07015e-10
1.07644e-10
1.0814e-10
1.08503e-10
1.08733e-10
1.08831e-10
1.08797e-10
1.08632e-10
1.08338e-10
1.07917e-10
1.07372e-10
1.06704e-10
1.05916e-10
1.05012e-10
1.03994e-10
1.02865e-10
1.01629e-10
1.00289e-10
9.88491e-11
9.73123e-11
9.56825e-11
9.39633e-11
9.21586e-11
9.02721e-11
8.83078e-11
8.62695e-11
8.41613e-11
8.19873e-11
7.97518e-11
7.74591e-11
7.51138e-11
7.27203e-11
7.02837e-11
6.7809e-11
6.53014e-11
6.27663e-11
6.02097e-11
5.76373e-11
5.50555e-11
5.24707e-11
4.98896e-11
4.73191e-11
4.47662e-11
4.22383e-11
3.97426e-11
3.72863e-11
3.4877e-11
3.25218e-11
3.02277e-11
2.80017e-11
2.58503e-11
2.37795e-11
2.1795e-11
1.99019e-11
1.81047e-11
1.64071e-11
1.48122e-11
1.33223e-11
1.19389e-11
1.06625e-11
9.49315e-12
8.42975e-12
7.47061e-12
6.61327e-12
5.85456e-12
5.1907e-12
4.6173e-12
4.12947e-12
3.72189e-12
3.38883e-12
3.12424e-12
2.92182e-12
2.77507e-12
2.67734e-12
2.62192e-12
2.60207e-12
2.61109e-12
2.64241e-12
2.68961e-12
2.74657e-12
2.80747e-12
2.86694e-12
2.9201e-12
2.96263e-12
2.99091e-12
3.00198e-12
2.99367e-12
2.96457e-12
2.91407e-12
2.84232e-12
2.75018e-12
2.63918e-12
2.51139e-12
2.36936e-12
2.21593e-12
2.0542e-12
1.88731e-12
1.71838e-12
1.55035e-12
1.38593e-12
1.22751e-12
1.07709e-12
9.36242e-13
8.06144e-13
6.87541e-13
5.80794e-13
4.85915e-13
4.02616e-13
3.30364e-13
2.68438e-13
2.15987e-13
1.72076e-13
1.35739e-13
1.06014e-13
8.19738e-14
6.27515e-14
4.75546e-14
3.56749e-14
2.64921e-14
1.94732e-14
1.4168e-14
1.02027e-14
7.27167e-15
5.12925e-15
3.5806e-15
2.47357e-15
1.691e-15
1.14395e-15
7.65802e-16
5.0736e-16
3.32779e-16
2.16304e-16
1.39712e-16
9.03337e-17
5.95698e-17
4.18172e-17
3.37245e-17
1.82866e-14
1.86372e-14
1.93557e-14
2.04531e-14
2.19472e-14
2.38621e-14
2.62284e-14
2.90841e-14
3.24747e-14
3.64539e-14
4.10846e-14
4.6439e-14
5.26002e-14
5.96631e-14
6.77352e-14
7.69382e-14
8.74095e-14
9.93034e-14
1.12793e-13
1.28073e-13
1.45361e-13
1.64897e-13
1.86953e-13
2.11828e-13
2.39857e-13
2.71408e-13
3.06891e-13
3.46759e-13
3.91513e-13
4.41704e-13
4.9794e-13
5.60887e-13
6.3128e-13
7.0992e-13
7.97688e-13
8.95542e-13
1.00453e-12
1.12579e-12
1.26056e-12
1.41019e-12
1.57613e-12
1.75995e-12
1.96335e-12
2.18814e-12
2.4363e-12
2.70991e-12
3.01122e-12
3.34261e-12
3.70664e-12
4.106e-12
4.54355e-12
5.02228e-12
5.54539e-12
6.11617e-12
6.73811e-12
7.41481e-12
8.15003e-12
8.94764e-12
9.81163e-12
1.07461e-11
1.17552e-11
1.28431e-11
1.40142e-11
1.52726e-11
1.66228e-11
1.80687e-11
1.96147e-11
2.12646e-11
2.30223e-11
2.48914e-11
2.68753e-11
2.8977e-11
3.11992e-11
3.35443e-11
3.6014e-11
3.86097e-11
4.13323e-11
4.41818e-11
4.71578e-11
5.02591e-11
5.34839e-11
5.68293e-11
6.02919e-11
6.38673e-11
6.75503e-11
7.13349e-11
7.52142e-11
7.91801e-11
8.32242e-11
8.73368e-11
9.15077e-11
9.57258e-11
9.99791e-11
1.04255e-10
1.08542e-10
1.12824e-10
1.17089e-10
1.21321e-10
1.25507e-10
1.29632e-10
1.33681e-10
1.37639e-10
1.41492e-10
1.45225e-10
1.48825e-10
1.5228e-10
1.55574e-10
1.58698e-10
1.6164e-10
1.64389e-10
1.66935e-10
1.69271e-10
1.71389e-10
1.73283e-10
1.74946e-10
1.76375e-10
1.77567e-10
1.78519e-10
1.79231e-10
1.79702e-10
1.79934e-10
1.79928e-10
1.79687e-10
1.79215e-10
1.78517e-10
1.77597e-10
1.76462e-10
1.75117e-10
1.73569e-10
1.71826e-10
1.69895e-10
1.67785e-10
1.65502e-10
1.63056e-10
1.60455e-10
1.57707e-10
1.54821e-10
1.51804e-10
1.48666e-10
1.45415e-10
1.42058e-10
1.38604e-10
1.35061e-10
1.31436e-10
1.27738e-10
1.23974e-10
1.20151e-10
1.16278e-10
1.12362e-10
1.0841e-10
1.04429e-10
1.00428e-10
9.64141e-11
9.23949e-11
8.83784e-11
8.43726e-11
8.03856e-11
7.64256e-11
7.25011e-11
6.86205e-11
6.47923e-11
6.10253e-11
5.7328e-11
5.37089e-11
5.01767e-11
4.67394e-11
4.34051e-11
4.01816e-11
3.70759e-11
3.40948e-11
3.12445e-11
2.85303e-11
2.59568e-11
2.35279e-11
2.12465e-11
1.91145e-11
1.71328e-11
1.53016e-11
1.36198e-11
1.20855e-11
1.06957e-11
9.44674e-12
8.33396e-12
7.352e-12
6.49481e-12
5.75574e-12
5.12763e-12
4.60285e-12
4.17344e-12
3.83117e-12
3.5676e-12
3.37416e-12
3.2422e-12
3.16311e-12
3.12834e-12
3.12946e-12
3.15831e-12
3.20697e-12
3.26793e-12
3.33414e-12
3.39909e-12
3.45693e-12
3.50252e-12
3.53153e-12
3.5405e-12
3.52687e-12
3.48902e-12
3.42627e-12
3.33883e-12
3.22776e-12
3.09487e-12
2.94264e-12
2.77405e-12
2.59248e-12
2.40153e-12
2.20489e-12
2.00617e-12
1.80883e-12
1.61599e-12
1.43041e-12
1.25438e-12
1.08974e-12
9.37805e-13
7.99413e-13
6.74957e-13
5.64421e-13
4.67444e-13
3.83385e-13
3.11386e-13
2.50437e-13
1.99442e-13
1.57266e-13
1.22781e-13
9.49046e-14
7.26252e-14
5.5019e-14
4.12615e-14
3.06314e-14
2.25093e-14
1.63724e-14
1.1787e-14
8.39869e-15
5.92278e-15
4.13358e-15
2.85495e-15
1.95131e-15
1.31978e-15
8.83338e-16
5.85124e-16
3.83716e-16
2.49371e-16
1.61044e-16
1.0411e-16
6.86431e-17
4.81791e-17
3.88511e-17
3.46248e-14
3.52904e-14
3.66539e-14
3.87367e-14
4.15727e-14
4.52075e-14
4.97e-14
5.51224e-14
6.15616e-14
6.91201e-14
7.79176e-14
8.80924e-14
9.98031e-14
1.13231e-13
1.28581e-13
1.46086e-13
1.66008e-13
1.88644e-13
2.14323e-13
2.43419e-13
2.76344e-13
3.13565e-13
3.55596e-13
4.03012e-13
4.56453e-13
5.16626e-13
5.84316e-13
6.6039e-13
7.45807e-13
8.41624e-13
9.49004e-13
1.06923e-12
1.20369e-12
1.35395e-12
1.52167e-12
1.70869e-12
1.91703e-12
2.14886e-12
2.40655e-12
2.69267e-12
3.01001e-12
3.36155e-12
3.75054e-12
4.18047e-12
4.65505e-12
5.17828e-12
5.75444e-12
6.38805e-12
7.08396e-12
7.84726e-12
8.68336e-12
9.59794e-12
1.0597e-11
1.16867e-11
1.28736e-11
1.41644e-11
1.55662e-11
1.70861e-11
1.87315e-11
2.051e-11
2.2429e-11
2.44965e-11
2.672e-11
2.91073e-11
3.16658e-11
3.44031e-11
3.73263e-11
4.04422e-11
4.37572e-11
4.72774e-11
5.10081e-11
5.4954e-11
5.91189e-11
6.3506e-11
6.81174e-11
7.2954e-11
7.80157e-11
8.3301e-11
8.88073e-11
9.45304e-11
1.00464e-10
1.06603e-10
1.12936e-10
1.19453e-10
1.26144e-10
1.32993e-10
1.39985e-10
1.47104e-10
1.54331e-10
1.61645e-10
1.69025e-10
1.76449e-10
1.83892e-10
1.9133e-10
1.98736e-10
2.06083e-10
2.13346e-10
2.20495e-10
2.27505e-10
2.34346e-10
2.40993e-10
2.47417e-10
2.53595e-10
2.595e-10
2.65109e-10
2.70399e-10
2.75349e-10
2.79941e-10
2.84157e-10
2.87981e-10
2.914e-10
2.94403e-10
2.96981e-10
2.99126e-10
3.00834e-10
3.02102e-10
3.02931e-10
3.03322e-10
3.03278e-10
3.02805e-10
3.01912e-10
3.00606e-10
2.98899e-10
2.96803e-10
2.94332e-10
2.91499e-10
2.8832e-10
2.84811e-10
2.8099e-10
2.76873e-10
2.72478e-10
2.67824e-10
2.62926e-10
2.57805e-10
2.52477e-10
2.4696e-10
2.41271e-10
2.35426e-10
2.29443e-10
2.23337e-10
2.17124e-10
2.10819e-10
2.04435e-10
1.97987e-10
1.91489e-10
1.84953e-10
1.78393e-10
1.71819e-10
1.65244e-10
1.5868e-10
1.52138e-10
1.45628e-10
1.39162e-10
1.32751e-10
1.26404e-10
1.20132e-10
1.13946e-10
1.07856e-10
1.01873e-10
9.60059e-11
9.02655e-11
8.46617e-11
7.9204e-11
7.39021e-11
6.87651e-11
6.38016e-11
5.90201e-11
5.44281e-11
5.00325e-11
4.58397e-11
4.18548e-11
3.80824e-11
3.45256e-11
3.11867e-11
2.80667e-11
2.51655e-11
2.24818e-11
2.00129e-11
1.77551e-11
1.57036e-11
1.38524e-11
1.21945e-11
1.0722e-11
9.42612e-12
8.29755e-12
7.3262e-12
6.50155e-12
5.8127e-12
5.24844e-12
4.79739e-12
4.44806e-12
4.18895e-12
4.00862e-12
3.89579e-12
3.83937e-12
3.82857e-12
3.85299e-12
3.90268e-12
3.96821e-12
4.04085e-12
4.11255e-12
4.17613e-12
4.22534e-12
4.25491e-12
4.26069e-12
4.23961e-12
4.18976e-12
4.11036e-12
4.0017e-12
3.8651e-12
3.70279e-12
3.51774e-12
3.31356e-12
3.0943e-12
2.86426e-12
2.62785e-12
2.38937e-12
2.15289e-12
1.92213e-12
1.70033e-12
1.4902e-12
1.29386e-12
1.11284e-12
9.48102e-13
8.00079e-13
6.68715e-13
5.53551e-13
4.53795e-13
3.68407e-13
2.96169e-13
2.35763e-13
1.85831e-13
1.45026e-13
1.12058e-13
8.57209e-14
6.49177e-14
4.8669e-14
3.61192e-14
2.65339e-14
1.92942e-14
1.38866e-14
9.89212e-15
6.97418e-15
4.86618e-15
3.36016e-15
2.29611e-15
1.55266e-15
1.039e-15
6.88103e-16
4.51167e-16
2.93155e-16
1.89288e-16
1.22348e-16
8.06546e-17
5.66007e-17
4.56371e-17
6.47488e-14
6.59967e-14
6.8553e-14
7.24583e-14
7.77759e-14
8.45923e-14
9.30181e-14
1.0319e-13
1.15271e-13
1.29455e-13
1.45967e-13
1.65069e-13
1.8706e-13
2.12281e-13
2.41121e-13
2.74019e-13
3.1147e-13
3.54034e-13
4.02335e-13
4.57076e-13
5.19043e-13
5.89113e-13
6.68262e-13
7.57579e-13
8.58272e-13
9.71682e-13
1.09929e-12
1.24275e-12
1.40388e-12
1.58466e-12
1.78731e-12
2.01426e-12
2.26816e-12
2.55192e-12
2.86874e-12
3.2221e-12
3.6158e-12
4.05396e-12
4.54107e-12
5.082e-12
5.682e-12
6.34676e-12
7.08237e-12
7.89543e-12
8.79296e-12
9.78251e-12
1.08721e-11
1.20703e-11
1.33861e-11
1.48293e-11
1.64097e-11
1.81382e-11
2.00259e-11
2.20843e-11
2.43256e-11
2.67623e-11
2.94073e-11
3.22739e-11
3.53755e-11
3.8726e-11
4.23392e-11
4.62291e-11
5.04094e-11
5.48938e-11
5.96958e-11
6.48283e-11
7.03036e-11
7.61333e-11
8.23281e-11
8.88978e-11
9.58505e-11
1.03193e-10
1.10932e-10
1.19069e-10
1.27606e-10
1.36543e-10
1.45877e-10
1.55602e-10
1.65709e-10
1.76189e-10
1.87026e-10
1.98203e-10
2.09702e-10
2.21498e-10
2.33565e-10
2.45874e-10
2.58392e-10
2.71084e-10
2.83912e-10
2.96834e-10
3.09809e-10
3.2279e-10
3.3573e-10
3.48581e-10
3.61292e-10
3.73813e-10
3.86093e-10
3.98079e-10
4.09722e-10
4.20971e-10
4.31777e-10
4.42094e-10
4.51877e-10
4.61082e-10
4.6967e-10
4.77604e-10
4.84852e-10
4.91384e-10
4.97175e-10
5.02203e-10
5.06452e-10
5.09909e-10
5.12566e-10
5.14418e-10
5.15467e-10
5.15717e-10
5.15176e-10
5.13858e-10
5.11777e-10
5.08955e-10
5.05413e-10
5.01178e-10
4.96276e-10
4.90738e-10
4.84597e-10
4.77884e-10
4.70636e-10
4.62888e-10
4.54675e-10
4.46034e-10
4.37001e-10
4.27612e-10
4.17904e-10
4.0791e-10
3.97666e-10
3.87203e-10
3.76555e-10
3.65751e-10
3.54822e-10
3.43795e-10
3.32697e-10
3.21554e-10
3.1039e-10
2.99227e-10
2.88088e-10
2.76991e-10
2.65957e-10
2.55004e-10
2.44148e-10
2.33406e-10
2.22794e-10
2.12325e-10
2.02014e-10
1.91874e-10
1.81919e-10
1.7216e-10
1.62611e-10
1.53282e-10
1.44184e-10
1.3533e-10
1.2673e-10
1.18393e-10
1.1033e-10
1.02549e-10
9.50598e-11
8.78699e-11
8.09864e-11
7.44157e-11
6.81631e-11
6.22327e-11
5.66275e-11
5.13493e-11
4.63985e-11
4.17741e-11
3.74735e-11
3.3493e-11
2.98269e-11
2.64685e-11
2.34096e-11
2.06406e-11
1.81507e-11
1.5928e-11
1.39598e-11
1.22322e-11
1.0731e-11
9.44113e-12
8.3473e-12
7.43387e-12
6.68506e-12
6.08506e-12
5.61814e-12
5.26875e-12
5.02157e-12
4.86168e-12
4.77454e-12
4.74616e-12
4.76313e-12
4.81274e-12
4.88305e-12
4.96302e-12
5.04262e-12
5.1129e-12
5.16612e-12
5.19581e-12
5.19686e-12
5.16558e-12
5.09967e-12
4.99821e-12
4.86162e-12
4.69156e-12
4.49075e-12
4.26287e-12
4.01231e-12
3.74399e-12
3.46314e-12
3.17506e-12
2.88496e-12
2.59773e-12
2.31782e-12
2.04911e-12
1.79481e-12
1.55744e-12
1.3388e-12
1.14e-12
9.61524e-13
8.03252e-13
6.64599e-13
5.44578e-13
4.4191e-13
3.55106e-13
2.82563e-13
2.2263e-13
1.73678e-13
1.34147e-13
1.02582e-13
7.76601e-14
5.8203e-14
4.31812e-14
3.17123e-14
2.3053e-14
1.65873e-14
1.18129e-14
8.32625e-15
5.80819e-15
4.0097e-15
2.73936e-15
1.85201e-15
1.23907e-15
8.20449e-16
5.37845e-16
3.49416e-16
2.25578e-16
1.4578e-16
9.60858e-17
6.74193e-17
5.43542e-17
1.19499e-13
1.21809e-13
1.2654e-13
1.33769e-13
1.43612e-13
1.56232e-13
1.71833e-13
1.90669e-13
2.13047e-13
2.39325e-13
2.69924e-13
3.0533e-13
3.46102e-13
3.92875e-13
4.46375e-13
5.07419e-13
5.76935e-13
6.55962e-13
7.45671e-13
8.47373e-13
9.62535e-13
1.0928e-12
1.23998e-12
1.40613e-12
1.5935e-12
1.80459e-12
2.0422e-12
2.30939e-12
2.60956e-12
2.94647e-12
3.32424e-12
3.7474e-12
4.22095e-12
4.75034e-12
5.34154e-12
6.00108e-12
6.73606e-12
7.55423e-12
8.46397e-12
9.4744e-12
1.05953e-11
1.18374e-11
1.32121e-11
1.47316e-11
1.64091e-11
1.82586e-11
2.02952e-11
2.25348e-11
2.49942e-11
2.76913e-11
3.06448e-11
3.38744e-11
3.74008e-11
4.12455e-11
4.54306e-11
4.99793e-11
5.49151e-11
6.02624e-11
6.60456e-11
7.22897e-11
7.90198e-11
8.62608e-11
9.40373e-11
1.02374e-10
1.11293e-10
1.20818e-10
1.3097e-10
1.41767e-10
1.53229e-10
1.65369e-10
1.78201e-10
1.91734e-10
2.05975e-10
2.20927e-10
2.36587e-10
2.52951e-10
2.70008e-10
2.87742e-10
3.06134e-10
3.25157e-10
3.4478e-10
3.64966e-10
3.85671e-10
4.06846e-10
4.28437e-10
4.50383e-10
4.72619e-10
4.95072e-10
5.17669e-10
5.40327e-10
5.62962e-10
5.85488e-10
6.07812e-10
6.29843e-10
6.51485e-10
6.72646e-10
6.93229e-10
7.13141e-10
7.3229e-10
7.50588e-10
7.67948e-10
7.8429e-10
7.99536e-10
8.13616e-10
8.26466e-10
8.38028e-10
8.48253e-10
8.57098e-10
8.6453e-10
8.70522e-10
8.75059e-10
8.78131e-10
8.79738e-10
8.79889e-10
8.78599e-10
8.75893e-10
8.71802e-10
8.66364e-10
8.59623e-10
8.51629e-10
8.42437e-10
8.32106e-10
8.20699e-10
8.08282e-10
7.94924e-10
7.80695e-10
7.65665e-10
7.49907e-10
7.33492e-10
7.16492e-10
6.98975e-10
6.8101e-10
6.62664e-10
6.44001e-10
6.25083e-10
6.05967e-10
5.86711e-10
5.67368e-10
5.47986e-10
5.28614e-10
5.09294e-10
4.90068e-10
4.70972e-10
4.52042e-10
4.3331e-10
4.14805e-10
3.96553e-10
3.7858e-10
3.60908e-10
3.43558e-10
3.26549e-10
3.09897e-10
2.93619e-10
2.77731e-10
2.62244e-10
2.47172e-10
2.32527e-10
2.18319e-10
2.04559e-10
1.91255e-10
1.78418e-10
1.66054e-10
1.54171e-10
1.42775e-10
1.31871e-10
1.21465e-10
1.11559e-10
1.02156e-10
9.32568e-11
8.48603e-11
7.69648e-11
6.95667e-11
6.26607e-11
5.62398e-11
5.02952e-11
4.48166e-11
3.97916e-11
3.52064e-11
3.10458e-11
2.72927e-11
2.39292e-11
2.0936e-11
1.82929e-11
1.59788e-11
1.39721e-11
1.22509e-11
1.0793e-11
9.57603e-12
8.57784e-12
7.77649e-12
7.1504e-12
6.67843e-12
6.34006e-12
6.11539e-12
5.98528e-12
5.93141e-12
5.93641e-12
5.98389e-12
6.05861e-12
6.14653e-12
6.23498e-12
6.31272e-12
6.37008e-12
6.39903e-12
6.39326e-12
6.34822e-12
6.26113e-12
6.13092e-12
5.95815e-12
5.7449e-12
5.49458e-12
5.21172e-12
4.90172e-12
4.57062e-12
4.22481e-12
3.87076e-12
3.5148e-12
3.16286e-12
2.82034e-12
2.49189e-12
2.18139e-12
1.89184e-12
1.62539e-12
1.38333e-12
1.16617e-12
9.73741e-13
8.05283e-13
6.59559e-13
5.34981e-13
4.29716e-13
3.41793e-13
2.69193e-13
2.09924e-13
1.62084e-13
1.23903e-13
9.37704e-14
7.02546e-14
5.21064e-14
3.82558e-14
2.78019e-14
1.99989e-14
1.42389e-14
1.00337e-14
6.99766e-15
4.82978e-15
3.29893e-15
2.22986e-15
1.49159e-15
9.87473e-16
6.47225e-16
4.20406e-16
2.71364e-16
1.75341e-16
1.15552e-16
8.10659e-17
6.53495e-17
2.17634e-13
2.21855e-13
2.30499e-13
2.43706e-13
2.61692e-13
2.84753e-13
3.13268e-13
3.47703e-13
3.88618e-13
4.36677e-13
4.92652e-13
5.57438e-13
6.32062e-13
7.17696e-13
8.15674e-13
9.27504e-13
1.05489e-12
1.19976e-12
1.36426e-12
1.55082e-12
1.76214e-12
2.00124e-12
2.27151e-12
2.57669e-12
2.92097e-12
3.30898e-12
3.74586e-12
4.2373e-12
4.78959e-12
5.40965e-12
6.10514e-12
6.88444e-12
7.75679e-12
8.73229e-12
9.82199e-12
1.1038e-11
1.23934e-11
1.39026e-11
1.55811e-11
1.74458e-11
1.95148e-11
2.18078e-11
2.4346e-11
2.7152e-11
3.02502e-11
3.36664e-11
3.74284e-11
4.15655e-11
4.61087e-11
5.1091e-11
5.65467e-11
6.25121e-11
6.90249e-11
7.61244e-11
8.38512e-11
9.22473e-11
1.01356e-10
1.1122e-10
1.21885e-10
1.33395e-10
1.45795e-10
1.5913e-10
1.73442e-10
1.88775e-10
2.0517e-10
2.22663e-10
2.41292e-10
2.61089e-10
2.82081e-10
3.04293e-10
3.27743e-10
3.52444e-10
3.784e-10
4.05612e-10
4.3407e-10
4.63755e-10
4.94642e-10
5.26693e-10
5.59863e-10
5.94095e-10
6.29321e-10
6.65464e-10
7.02435e-10
7.40134e-10
7.78451e-10
8.17266e-10
8.56449e-10
8.95861e-10
9.35354e-10
9.74774e-10
1.01396e-09
1.05274e-09
1.09095e-09
1.12842e-09
1.16497e-09
1.20043e-09
1.23462e-09
1.26738e-09
1.29855e-09
1.32797e-09
1.35549e-09
1.38098e-09
1.40431e-09
1.42536e-09
1.44404e-09
1.46025e-09
1.47393e-09
1.48503e-09
1.49349e-09
1.49931e-09
1.50247e-09
1.50298e-09
1.50087e-09
1.49618e-09
1.48896e-09
1.47928e-09
1.46723e-09
1.45289e-09
1.43638e-09
1.41779e-09
1.39725e-09
1.3749e-09
1.35085e-09
1.32524e-09
1.29821e-09
1.2699e-09
1.24045e-09
1.20999e-09
1.17866e-09
1.14659e-09
1.11391e-09
1.08074e-09
1.0472e-09
1.01341e-09
9.7946e-10
9.45463e-10
9.11509e-10
8.77686e-10
8.44073e-10
8.10745e-10
7.77768e-10
7.45205e-10
7.1311e-10
6.81533e-10
6.50517e-10
6.20103e-10
5.90324e-10
5.6121e-10
5.32788e-10
5.05079e-10
4.78105e-10
4.51879e-10
4.26418e-10
4.01732e-10
3.77831e-10
3.54723e-10
3.32414e-10
3.1091e-10
2.90215e-10
2.7033e-10
2.51258e-10
2.32999e-10
2.15552e-10
1.98917e-10
1.8309e-10
1.68067e-10
1.53843e-10
1.40411e-10
1.27763e-10
1.15889e-10
1.04777e-10
9.44138e-11
8.47833e-11
7.58683e-11
6.76495e-11
6.01056e-11
5.32133e-11
4.69477e-11
4.12825e-11
3.61895e-11
3.16395e-11
2.76024e-11
2.4047e-11
2.09418e-11
1.82547e-11
1.59538e-11
1.40071e-11
1.2383e-11
1.10504e-11
9.97898e-12
9.1391e-12
8.50208e-12
8.0403e-12
7.72724e-12
7.53757e-12
7.44729e-12
7.43374e-12
7.47574e-12
7.5537e-12
7.6497e-12
7.74764e-12
7.83332e-12
7.89459e-12
7.92141e-12
7.90593e-12
7.84254e-12
7.72781e-12
7.56048e-12
7.34131e-12
7.07292e-12
6.75956e-12
6.40684e-12
6.02148e-12
5.61088e-12
5.18292e-12
4.74553e-12
4.30644e-12
3.8729e-12
3.45146e-12
3.04779e-12
2.66656e-12
2.31139e-12
1.98483e-12
1.6884e-12
1.42267e-12
1.18737e-12
9.81512e-13
8.03552e-13
6.51505e-13
5.23102e-13
4.1591e-13
3.27444e-13
2.55258e-13
1.97019e-13
1.50558e-13
1.13907e-13
8.53151e-14
6.32579e-14
4.64299e-14
3.37333e-14
2.42593e-14
1.72679e-14
1.21654e-14
8.48239e-15
5.8533e-15
3.99721e-15
2.70134e-15
1.80663e-15
1.19583e-15
7.83662e-16
5.08948e-16
3.28466e-16
2.12206e-16
1.39826e-16
9.80813e-17
7.90583e-17
3.91132e-13
3.98744e-13
4.14334e-13
4.38153e-13
4.70594e-13
5.12194e-13
5.63641e-13
6.25781e-13
6.99631e-13
7.86395e-13
8.87479e-13
1.00451e-12
1.13934e-12
1.29412e-12
1.47127e-12
1.67353e-12
1.90401e-12
2.1662e-12
2.46404e-12
2.80192e-12
3.18479e-12
3.61817e-12
4.1082e-12
4.66174e-12
5.28642e-12
5.9907e-12
6.78397e-12
7.67664e-12
8.68018e-12
9.80727e-12
1.10719e-11
1.24894e-11
1.40766e-11
1.58522e-11
1.78362e-11
2.00508e-11
2.252e-11
2.52702e-11
2.83297e-11
3.17294e-11
3.55026e-11
3.96852e-11
4.43159e-11
4.94362e-11
5.50905e-11
6.13263e-11
6.8194e-11
7.57471e-11
8.40425e-11
9.31398e-11
1.03102e-10
1.13994e-10
1.25886e-10
1.38847e-10
1.52953e-10
1.68277e-10
1.84899e-10
2.02896e-10
2.22348e-10
2.43334e-10
2.65935e-10
2.90229e-10
3.16291e-10
3.44197e-10
3.74015e-10
4.05813e-10
4.39649e-10
4.75576e-10
5.1364e-10
5.53876e-10
5.9631e-10
6.40956e-10
6.87815e-10
7.36873e-10
7.88102e-10
8.41459e-10
8.96881e-10
9.5429e-10
1.01358e-09
1.07465e-09
1.13735e-09
1.20152e-09
1.26699e-09
1.33356e-09
1.40101e-09
1.46912e-09
1.53763e-09
1.60627e-09
1.67476e-09
1.74282e-09
1.81014e-09
1.87641e-09
1.94131e-09
2.00454e-09
2.06576e-09
2.12468e-09
2.18098e-09
2.23437e-09
2.28457e-09
2.3313e-09
2.37433e-09
2.41342e-09
2.44836e-09
2.47898e-09
2.50513e-09
2.52669e-09
2.54355e-09
2.55566e-09
2.56299e-09
2.56554e-09
2.56333e-09
2.55643e-09
2.54492e-09
2.52892e-09
2.50857e-09
2.48403e-09
2.45549e-09
2.42315e-09
2.38723e-09
2.34797e-09
2.3056e-09
2.26039e-09
2.21259e-09
2.16247e-09
2.11028e-09
2.05629e-09
2.00075e-09
1.94392e-09
1.88605e-09
1.82736e-09
1.76809e-09
1.70845e-09
1.64864e-09
1.58886e-09
1.52928e-09
1.47006e-09
1.41136e-09
1.35332e-09
1.29605e-09
1.23966e-09
1.18427e-09
1.12994e-09
1.07677e-09
1.02481e-09
9.74115e-10
9.24737e-10
8.76711e-10