/*--------------------------------*- C++ -*----------------------------------*\
| =========                 |                                                 |
| \\      /  F ield         | OpenFOAM: The Open Source CFD Toolbox           |
|  \\    /   O peration     | Version:  v2012                                 |
|   \\  /    A nd           | Website:  www.openfoam.com                      |
|    \\/     M anipulation  |                                                 |
\*---------------------------------------------------------------------------*/
FoamFile
{
    version     2.0;
    format      ascii;
    class       volScalarField;
    location    "9";
    object      p;
}
// * * * * * * * * * * * * * * * * * * * * * * * * * * * * * * * * * * * * * //

dimensions      [0 2 -2 0 0 0 0];


internalField   nonuniform List<scalar> 
65536
(
3.00424e-10
-2.11837e-06
-6.36814e-06
-1.27542e-05
-2.12797e-05
-3.19454e-05
-4.47536e-05
-5.97081e-05
-7.68131e-05
-9.60737e-05
-0.000117495
-0.000141083
-0.000166843
-0.000194784
-0.000224911
-0.000257234
-0.000291759
-0.000328496
-0.000367452
-0.000408637
-0.000452059
-0.000497727
-0.000545651
-0.000595838
-0.000648299
-0.000703041
-0.000760073
-0.000819403
-0.000881039
-0.000944987
-0.00101125
-0.00107985
-0.00115077
-0.00122402
-0.00129962
-0.00137755
-0.00145782
-0.00154043
-0.00162538
-0.00171267
-0.00180229
-0.00189423
-0.00198848
-0.00208504
-0.0021839
-0.00228504
-0.00238843
-0.00249408
-0.00260194
-0.00271201
-0.00282424
-0.00293862
-0.00305512
-0.00317369
-0.00329429
-0.0034169
-0.00354146
-0.00366792
-0.00379624
-0.00392636
-0.00405823
-0.00419178
-0.00432695
-0.00446367
-0.00460186
-0.00474147
-0.0048824
-0.00502458
-0.00516791
-0.00531232
-0.00545771
-0.00560399
-0.00575105
-0.0058988
-0.00604713
-0.00619594
-0.00634512
-0.00649455
-0.00664412
-0.00679372
-0.00694322
-0.00709251
-0.00724146
-0.00738996
-0.00753787
-0.00768507
-0.00783145
-0.00797686
-0.00812118
-0.0082643
-0.00840607
-0.00854639
-0.00868512
-0.00882214
-0.00895733
-0.00909056
-0.00922174
-0.00935072
-0.00947742
-0.00960171
-0.00972348
-0.00984264
-0.00995909
-0.0100727
-0.0101834
-0.0102912
-0.0103958
-0.0104973
-0.0105956
-0.0106906
-0.0107822
-0.0108704
-0.0109551
-0.0110363
-0.0111138
-0.0111878
-0.0112582
-0.0113248
-0.0113878
-0.011447
-0.0115025
-0.0115543
-0.0116024
-0.0116467
-0.0116872
-0.0117241
-0.0117573
-0.0117867
-0.0118126
-0.0118348
-0.0118534
-0.0118685
-0.0118801
-0.0118882
-0.011893
-0.0118943
-0.0118924
-0.0118873
-0.0118789
-0.0118675
-0.011853
-0.0118356
-0.0118153
-0.0117921
-0.0117662
-0.0117376
-0.0117065
-0.0116728
-0.0116367
-0.0115982
-0.0115574
-0.0115145
-0.0114695
-0.0114224
-0.0113734
-0.0113225
-0.0112699
-0.0112155
-0.0111596
-0.0111021
-0.0110431
-0.0109828
-0.0109212
-0.0108584
-0.0107944
-0.0107294
-0.0106633
-0.0105964
-0.0105286
-0.01046
-0.0103908
-0.0103208
-0.0102504
-0.0101794
-0.010108
-0.0100362
-0.00996411
-0.00989175
-0.0098192
-0.00974652
-0.00967375
-0.00960095
-0.00952817
-0.00945548
-0.0093829
-0.0093105
-0.00923832
-0.00916641
-0.0090948
-0.00902355
-0.00895269
-0.00888227
-0.00881232
-0.00874288
-0.00867399
-0.00860568
-0.00853798
-0.00847093
-0.00840457
-0.00833891
-0.00827399
-0.00820984
-0.00814648
-0.00808395
-0.00802226
-0.00796144
-0.00790151
-0.0078425
-0.00778442
-0.0077273
-0.00767116
-0.00761601
-0.00756188
-0.00750878
-0.00745673
-0.00740574
-0.00735583
-0.00730701
-0.0072593
-0.00721271
-0.00716725
-0.00712294
-0.00707978
-0.00703779
-0.00699698
-0.00695736
-0.00691893
-0.00688171
-0.00684571
-0.00681092
-0.00677737
-0.00674505
-0.00671398
-0.00668416
-0.00665559
-0.00662829
-0.00660225
-0.00657749
-0.00655401
-0.0065318
-0.00651088
-0.00649125
-0.00647292
-0.00645588
-0.00644014
-0.0064257
-0.00641257
-0.00640074
-0.00639023
-0.00638102
-0.00637313
-0.00636655
-0.00636128
-0.00635733
-0.0063547
-0.00635338
-2.44186e-06
-4.56226e-06
-8.8148e-06
-1.52016e-05
-2.37257e-05
-3.43892e-05
-4.71946e-05
-6.21457e-05
-7.92466e-05
-9.85022e-05
-0.000119918
-0.0001435
-0.000169254
-0.000197188
-0.000227308
-0.000259623
-0.00029414
-0.000330868
-0.000369816
-0.000410991
-0.000454403
-0.000500061
-0.000547975
-0.000598152
-0.000650601
-0.000705332
-0.000762353
-0.000821671
-0.000883295
-0.000947231
-0.00101349
-0.00108207
-0.00115298
-0.00122622
-0.0013018
-0.00137972
-0.00145998
-0.00154258
-0.00162752
-0.0017148
-0.0018044
-0.00189633
-0.00199058
-0.00208713
-0.00218598
-0.00228711
-0.0023905
-0.00249613
-0.00260399
-0.00271405
-0.00282628
-0.00294066
-0.00305715
-0.00317572
-0.00329632
-0.00341893
-0.00354349
-0.00366995
-0.00379828
-0.0039284
-0.00406028
-0.00419383
-0.00432901
-0.00446574
-0.00460395
-0.00474356
-0.00488451
-0.0050267
-0.00517005
-0.00531448
-0.00545989
-0.00560619
-0.00575327
-0.00590105
-0.0060494
-0.00619824
-0.00634744
-0.0064969
-0.0066465
-0.00679613
-0.00694567
-0.00709499
-0.00724397
-0.0073925
-0.00754045
-0.00768769
-0.0078341
-0.00797955
-0.00812392
-0.00826707
-0.00840889
-0.00854924
-0.00868801
-0.00882507
-0.0089603
-0.00909358
-0.00922479
-0.00935382
-0.00948055
-0.00960487
-0.00972669
-0.00984589
-0.00996237
-0.010076
-0.0101868
-0.0102946
-0.0103993
-0.0105008
-0.0105991
-0.0106941
-0.0107857
-0.0108739
-0.0109587
-0.0110399
-0.0111175
-0.0111915
-0.0112618
-0.0113285
-0.0113915
-0.0114508
-0.0115063
-0.0115581
-0.0116061
-0.0116504
-0.011691
-0.0117279
-0.011761
-0.0117905
-0.0118164
-0.0118386
-0.0118572
-0.0118723
-0.0118839
-0.011892
-0.0118967
-0.0118981
-0.0118961
-0.011891
-0.0118826
-0.0118712
-0.0118567
-0.0118393
-0.0118189
-0.0117957
-0.0117698
-0.0117412
-0.01171
-0.0116763
-0.0116402
-0.0116017
-0.0115609
-0.0115179
-0.0114729
-0.0114258
-0.0113768
-0.0113259
-0.0112732
-0.0112188
-0.0111628
-0.0111053
-0.0110463
-0.010986
-0.0109243
-0.0108615
-0.0107975
-0.0107324
-0.0106663
-0.0105994
-0.0105316
-0.010463
-0.0103937
-0.0103237
-0.0102532
-0.0101822
-0.0101108
-0.010039
-0.00996686
-0.00989448
-0.0098219
-0.00974919
-0.00967639
-0.00960357
-0.00953077
-0.00945804
-0.00938545
-0.00931302
-0.00924082
-0.00916888
-0.00909725
-0.00902598
-0.0089551
-0.00888465
-0.00881468
-0.00874522
-0.00867631
-0.00860797
-0.00854026
-0.00847319
-0.0084068
-0.00834113
-0.00827619
-0.00821202
-0.00814864
-0.00808609
-0.00802438
-0.00796354
-0.0079036
-0.00784457
-0.00778648
-0.00772934
-0.00767319
-0.00761802
-0.00756388
-0.00751076
-0.0074587
-0.00740769
-0.00735777
-0.00730894
-0.00726121
-0.00721461
-0.00716914
-0.00712482
-0.00708165
-0.00703965
-0.00699883
-0.0069592
-0.00692076
-0.00688353
-0.00684752
-0.00681273
-0.00677916
-0.00674684
-0.00671576
-0.00668593
-0.00665736
-0.00663005
-0.00660401
-0.00657924
-0.00655575
-0.00653354
-0.00651261
-0.00649298
-0.00647464
-0.00645759
-0.00644185
-0.00642741
-0.00641427
-0.00640245
-0.00639193
-0.00638272
-0.00637482
-0.00636824
-0.00636297
-0.00635902
-0.00635639
-0.00635507
-7.33957e-06
-9.46278e-06
-1.37178e-05
-2.01041e-05
-2.86251e-05
-3.92839e-05
-5.20835e-05
-6.70274e-05
-8.41199e-05
-0.000103366
-0.000124771
-0.000148341
-0.000174083
-0.000202003
-0.000232109
-0.000264408
-0.000298909
-0.00033562
-0.000374549
-0.000415706
-0.000459099
-0.000504737
-0.000552629
-0.000602785
-0.000655213
-0.000709921
-0.000766919
-0.000826214
-0.000887815
-0.000951727
-0.00101796
-0.00108651
-0.0011574
-0.00123062
-0.00130618
-0.00138407
-0.00146431
-0.00154689
-0.00163181
-0.00171906
-0.00180864
-0.00190055
-0.00199478
-0.00209131
-0.00219014
-0.00229125
-0.00239463
-0.00250025
-0.0026081
-0.00271814
-0.00283037
-0.00294474
-0.00306122
-0.00317978
-0.00330039
-0.00342299
-0.00354755
-0.00367403
-0.00380236
-0.00393249
-0.00406438
-0.00419795
-0.00433314
-0.00446989
-0.00460812
-0.00474776
-0.00488873
-0.00503095
-0.00517434
-0.0053188
-0.00546425
-0.00561059
-0.00575772
-0.00590554
-0.00605395
-0.00620284
-0.00635209
-0.00650161
-0.00665127
-0.00680096
-0.00695056
-0.00709995
-0.00724901
-0.00739761
-0.00754563
-0.00769294
-0.00783942
-0.00798495
-0.00812939
-0.00827262
-0.00841452
-0.00855495
-0.0086938
-0.00883094
-0.00896625
-0.00909961
-0.0092309
-0.00936001
-0.00948682
-0.00961123
-0.00973312
-0.00985239
-0.00996894
-0.0100827
-0.0101935
-0.0103014
-0.0104061
-0.0105077
-0.0106061
-0.0107011
-0.0107928
-0.0108811
-0.0109659
-0.0110471
-0.0111248
-0.0111988
-0.0112692
-0.0113359
-0.0113989
-0.0114582
-0.0115138
-0.0115656
-0.0116137
-0.011658
-0.0116986
-0.0117355
-0.0117686
-0.0117981
-0.0118239
-0.0118461
-0.0118648
-0.0118798
-0.0118914
-0.0118995
-0.0119042
-0.0119056
-0.0119036
-0.0118984
-0.0118901
-0.0118786
-0.0118641
-0.0118466
-0.0118262
-0.011803
-0.011777
-0.0117484
-0.0117171
-0.0116834
-0.0116472
-0.0116087
-0.0115678
-0.0115248
-0.0114797
-0.0114326
-0.0113835
-0.0113325
-0.0112798
-0.0112254
-0.0111693
-0.0111118
-0.0110527
-0.0109923
-0.0109306
-0.0108677
-0.0108036
-0.0107385
-0.0106724
-0.0106054
-0.0105375
-0.0104688
-0.0103995
-0.0103295
-0.010259
-0.0101879
-0.0101164
-0.0100445
-0.00997236
-0.00989993
-0.0098273
-0.00975454
-0.00968169
-0.00960881
-0.00953596
-0.00946319
-0.00939054
-0.00931807
-0.00924582
-0.00917383
-0.00910216
-0.00903084
-0.00895991
-0.00888942
-0.00881941
-0.0087499
-0.00868095
-0.00861257
-0.00854481
-0.00847771
-0.00841128
-0.00834556
-0.00828059
-0.00821638
-0.00815297
-0.00809038
-0.00802863
-0.00796776
-0.00790778
-0.00784872
-0.0077906
-0.00773343
-0.00767724
-0.00762205
-0.00756788
-0.00751473
-0.00746264
-0.00741161
-0.00736166
-0.0073128
-0.00726505
-0.00721843
-0.00717293
-0.00712859
-0.0070854
-0.00704338
-0.00700253
-0.00696288
-0.00692443
-0.00688718
-0.00685114
-0.00681633
-0.00678276
-0.00675042
-0.00671932
-0.00668948
-0.00666089
-0.00663357
-0.00660751
-0.00658273
-0.00655923
-0.00653701
-0.00651607
-0.00649643
-0.00647808
-0.00646103
-0.00644528
-0.00643083
-0.00641769
-0.00640585
-0.00639533
-0.00638612
-0.00637822
-0.00637163
-0.00636636
-0.00636241
-0.00635978
-0.00635846
-1.46969e-05
-1.68209e-05
-2.10756e-05
-2.74592e-05
-3.5975e-05
-4.66265e-05
-5.94168e-05
-7.43498e-05
-9.14298e-05
-0.000110662
-0.000132051
-0.000155604
-0.000181326
-0.000209226
-0.00023931
-0.000271586
-0.000306063
-0.000342748
-0.00038165
-0.000422779
-0.000466142
-0.00051175
-0.000559611
-0.000609735
-0.00066213
-0.000716805
-0.000773769
-0.000833029
-0.000894594
-0.000958471
-0.00102467
-0.00109319
-0.00116404
-0.00123722
-0.00131274
-0.0013906
-0.00147081
-0.00155335
-0.00163823
-0.00172545
-0.00181501
-0.00190688
-0.00200108
-0.00209759
-0.00219639
-0.00229748
-0.00240083
-0.00250643
-0.00261426
-0.00272429
-0.0028365
-0.00295085
-0.00306733
-0.00318588
-0.00330649
-0.00342909
-0.00355366
-0.00368014
-0.00380848
-0.00393863
-0.00407053
-0.00420412
-0.00433934
-0.00447611
-0.00461438
-0.00475406
-0.00489507
-0.00503734
-0.00518078
-0.0053253
-0.0054708
-0.0056172
-0.0057644
-0.00591229
-0.00606077
-0.00620974
-0.00635908
-0.00650868
-0.00665843
-0.00680822
-0.00695791
-0.0071074
-0.00725656
-0.00740527
-0.00755339
-0.00770082
-0.00784742
-0.00799306
-0.00813761
-0.00828096
-0.00842298
-0.00856353
-0.0087025
-0.00883976
-0.00897519
-0.00910867
-0.00924008
-0.00936931
-0.00949624
-0.00962076
-0.00974277
-0.00986215
-0.00997882
-0.0100927
-0.0102036
-0.0103115
-0.0104164
-0.0105181
-0.0106166
-0.0107117
-0.0108035
-0.0108918
-0.0109767
-0.011058
-0.0111357
-0.0112098
-0.0112803
-0.0113471
-0.0114101
-0.0114694
-0.011525
-0.0115769
-0.011625
-0.0116693
-0.0117099
-0.0117468
-0.01178
-0.0118095
-0.0118353
-0.0118575
-0.0118761
-0.0118912
-0.0119027
-0.0119108
-0.0119155
-0.0119168
-0.0119148
-0.0119096
-0.0119012
-0.0118897
-0.0118751
-0.0118576
-0.0118371
-0.0118138
-0.0117878
-0.0117591
-0.0117278
-0.011694
-0.0116577
-0.0116191
-0.0115782
-0.0115352
-0.01149
-0.0114427
-0.0113936
-0.0113425
-0.0112897
-0.0112352
-0.0111791
-0.0111214
-0.0110623
-0.0110018
-0.01094
-0.010877
-0.0108129
-0.0107477
-0.0106815
-0.0106144
-0.0105464
-0.0104777
-0.0104083
-0.0103382
-0.0102675
-0.0101964
-0.0101248
-0.0100529
-0.00998063
-0.00990811
-0.00983541
-0.00976256
-0.00968964
-0.00961668
-0.00954376
-0.00947091
-0.00939819
-0.00932564
-0.00925332
-0.00918126
-0.00910952
-0.00903813
-0.00896713
-0.00889658
-0.00882649
-0.00875692
-0.0086879
-0.00861947
-0.00855165
-0.00848448
-0.00841799
-0.00835222
-0.00828719
-0.00822292
-0.00815946
-0.00809681
-0.00803502
-0.00797409
-0.00791406
-0.00785495
-0.00779678
-0.00773956
-0.00768333
-0.00762809
-0.00757387
-0.00752069
-0.00746855
-0.00741748
-0.00736749
-0.00731859
-0.00727081
-0.00722414
-0.00717862
-0.00713424
-0.00709101
-0.00704896
-0.00700809
-0.0069684
-0.00692992
-0.00689264
-0.00685658
-0.00682175
-0.00678814
-0.00675578
-0.00672466
-0.00669479
-0.00666619
-0.00663884
-0.00661277
-0.00658797
-0.00656445
-0.00654221
-0.00652127
-0.00650161
-0.00648325
-0.00646618
-0.00645042
-0.00643596
-0.00642281
-0.00641097
-0.00640043
-0.00639122
-0.00638331
-0.00637672
-0.00637145
-0.00636749
-0.00636485
-0.00636354
-2.45167e-05
-2.66393e-05
-3.0891e-05
-3.72696e-05
-4.57779e-05
-5.64193e-05
-6.91971e-05
-8.41154e-05
-0.000101178
-0.000120391
-0.000141759
-0.000165289
-0.000190986
-0.000218859
-0.000248914
-0.000281159
-0.000315603
-0.000352254
-0.00039112
-0.000432211
-0.000475536
-0.000521104
-0.000568924
-0.000619005
-0.000671356
-0.000725987
-0.000782905
-0.000842119
-0.000903638
-0.000967468
-0.00103362
-0.00110209
-0.00117289
-0.00124603
-0.0013215
-0.00139931
-0.00147947
-0.00156197
-0.00164681
-0.00173398
-0.00182349
-0.00191533
-0.00200949
-0.00210596
-0.00220473
-0.00230578
-0.0024091
-0.00251467
-0.00262247
-0.00273248
-0.00284467
-0.00295902
-0.00307548
-0.00319403
-0.00331463
-0.00343723
-0.0035618
-0.00368829
-0.00381665
-0.00394681
-0.00407874
-0.00421236
-0.00434761
-0.00448443
-0.00462274
-0.00476247
-0.00490354
-0.00504587
-0.00518937
-0.00533396
-0.00547954
-0.00562603
-0.00577331
-0.0059213
-0.00606988
-0.00621895
-0.0063684
-0.00651812
-0.00666799
-0.0068179
-0.00696773
-0.00711735
-0.00726665
-0.00741549
-0.00756377
-0.00771134
-0.00785809
-0.00800388
-0.00814859
-0.0082921
-0.00843428
-0.00857499
-0.00871412
-0.00885154
-0.00898713
-0.00912077
-0.00925235
-0.00938173
-0.00950882
-0.00963349
-0.00975565
-0.00987519
-0.009992
-0.010106
-0.0102171
-0.0103252
-0.0104301
-0.010532
-0.0106306
-0.0107258
-0.0108177
-0.0109062
-0.0109911
-0.0110725
-0.0111503
-0.0112245
-0.0112951
-0.0113619
-0.011425
-0.0114844
-0.0115401
-0.0115919
-0.0116401
-0.0116845
-0.0117251
-0.011762
-0.0117952
-0.0118247
-0.0118505
-0.0118727
-0.0118913
-0.0119063
-0.0119179
-0.0119259
-0.0119306
-0.0119318
-0.0119298
-0.0119245
-0.011916
-0.0119045
-0.0118898
-0.0118722
-0.0118517
-0.0118284
-0.0118023
-0.0117735
-0.0117421
-0.0117082
-0.0116718
-0.0116331
-0.0115921
-0.0115489
-0.0115036
-0.0114563
-0.011407
-0.0113559
-0.011303
-0.0112484
-0.0111921
-0.0111344
-0.0110751
-0.0110145
-0.0109526
-0.0108895
-0.0108253
-0.0107599
-0.0106936
-0.0106264
-0.0105583
-0.0104895
-0.0104199
-0.0103498
-0.010279
-0.0102078
-0.0101361
-0.010064
-0.00999165
-0.00991903
-0.00984622
-0.00977327
-0.00970024
-0.00962718
-0.00955416
-0.00948121
-0.00940839
-0.00933574
-0.00926332
-0.00919117
-0.00911933
-0.00904785
-0.00897677
-0.00890612
-0.00883595
-0.00876629
-0.00869719
-0.00862867
-0.00856076
-0.00849351
-0.00842695
-0.0083611
-0.00829599
-0.00823165
-0.00816811
-0.00810539
-0.00804352
-0.00798253
-0.00792243
-0.00786326
-0.00780502
-0.00774774
-0.00769145
-0.00763615
-0.00758187
-0.00752863
-0.00747643
-0.00742531
-0.00737526
-0.00732632
-0.00727848
-0.00723177
-0.00718619
-0.00714177
-0.0070985
-0.0070564
-0.00701549
-0.00697576
-0.00693724
-0.00689993
-0.00686383
-0.00682896
-0.00679532
-0.00676293
-0.00673178
-0.00670188
-0.00667325
-0.00664588
-0.00661978
-0.00659495
-0.00657141
-0.00654915
-0.00652818
-0.00650851
-0.00649013
-0.00647305
-0.00645727
-0.0064428
-0.00642964
-0.00641778
-0.00640724
-0.00639801
-0.0063901
-0.0063835
-0.00637822
-0.00637427
-0.00637163
-0.00637031
-3.67993e-05
-3.89195e-05
-4.31664e-05
-4.95377e-05
-5.8036e-05
-6.86646e-05
-8.14268e-05
-9.63265e-05
-0.000113368
-0.000132557
-0.000153899
-0.0001774
-0.000203066
-0.000230904
-0.000260923
-0.00029313
-0.000327533
-0.000364141
-0.000402963
-0.000444008
-0.000487284
-0.000532802
-0.00058057
-0.000630598
-0.000682895
-0.00073747
-0.000794331
-0.000853488
-0.000914948
-0.000978719
-0.00104481
-0.00111322
-0.00118396
-0.00125704
-0.00133245
-0.00141021
-0.00149031
-0.00157275
-0.00165753
-0.00174465
-0.00183411
-0.0019259
-0.00202001
-0.00211643
-0.00221515
-0.00231617
-0.00241945
-0.00252499
-0.00263276
-0.00274274
-0.00285491
-0.00296923
-0.00308568
-0.00320422
-0.00332481
-0.00344742
-0.003572
-0.0036985
-0.00382687
-0.00395706
-0.00408901
-0.00422267
-0.00435797
-0.00449483
-0.0046332
-0.00477299
-0.00491413
-0.00505654
-0.00520012
-0.0053448
-0.00549049
-0.00563708
-0.00578447
-0.00593258
-0.00608129
-0.00623049
-0.00638008
-0.00652994
-0.00667997
-0.00683003
-0.00698002
-0.00712981
-0.00727928
-0.0074283
-0.00757676
-0.00772451
-0.00787145
-0.00801744
-0.00816235
-0.00830605
-0.00844842
-0.00858934
-0.00872867
-0.0088663
-0.00900209
-0.00913593
-0.0092677
-0.00939729
-0.00952457
-0.00964945
-0.0097718
-0.00989152
-0.0100085
-0.0101227
-0.010234
-0.0103422
-0.0104474
-0.0105493
-0.0106481
-0.0107435
-0.0108355
-0.0109241
-0.0110092
-0.0110907
-0.0111687
-0.011243
-0.0113136
-0.0113805
-0.0114437
-0.0115032
-0.0115589
-0.0116108
-0.011659
-0.0117034
-0.0117441
-0.011781
-0.0118142
-0.0118437
-0.0118695
-0.0118917
-0.0119103
-0.0119253
-0.0119368
-0.0119448
-0.0119494
-0.0119506
-0.0119485
-0.0119432
-0.0119347
-0.011923
-0.0119083
-0.0118906
-0.01187
-0.0118465
-0.0118203
-0.0117914
-0.0117599
-0.0117259
-0.0116894
-0.0116506
-0.0116095
-0.0115662
-0.0115208
-0.0114733
-0.0114239
-0.0113726
-0.0113196
-0.0112648
-0.0112084
-0.0111505
-0.0110912
-0.0110304
-0.0109684
-0.0109051
-0.0108407
-0.0107753
-0.0107088
-0.0106414
-0.0105732
-0.0105042
-0.0104345
-0.0103642
-0.0102933
-0.010222
-0.0101501
-0.0100779
-0.0100054
-0.00993268
-0.00985974
-0.00978666
-0.0097135
-0.00964032
-0.00956716
-0.00949409
-0.00942114
-0.00934838
-0.00927583
-0.00920356
-0.00913161
-0.00906001
-0.00898881
-0.00891805
-0.00884777
-0.008778
-0.00870879
-0.00864017
-0.00857216
-0.00850481
-0.00843814
-0.00837219
-0.00830699
-0.00824255
-0.00817892
-0.00811612
-0.00805416
-0.00799308
-0.0079329
-0.00787364
-0.00781532
-0.00775796
-0.00770159
-0.00764622
-0.00759187
-0.00753855
-0.00748629
-0.00743509
-0.00738498
-0.00733597
-0.00728807
-0.0072413
-0.00719566
-0.00715118
-0.00710786
-0.00706571
-0.00702474
-0.00698497
-0.00694639
-0.00690903
-0.00687289
-0.00683798
-0.0068043
-0.00677186
-0.00674067
-0.00671074
-0.00668207
-0.00665467
-0.00662854
-0.00660368
-0.00658011
-0.00655783
-0.00653683
-0.00651713
-0.00649873
-0.00648163
-0.00646583
-0.00645134
-0.00643816
-0.0064263
-0.00641574
-0.0064065
-0.00639858
-0.00639198
-0.00638669
-0.00638273
-0.00638009
-0.00637876
-5.1546e-05
-5.36633e-05
-5.79041e-05
-6.42661e-05
-7.2752e-05
-8.33649e-05
-9.61081e-05
-0.000110986
-0.000128002
-0.000147162
-0.000168472
-0.000191938
-0.000217567
-0.000245365
-0.00027534
-0.000307501
-0.000341856
-0.000378413
-0.000417181
-0.00045817
-0.000501389
-0.000546847
-0.000594553
-0.000644518
-0.000696749
-0.000751258
-0.000808052
-0.00086714
-0.00092853
-0.000992231
-0.00105825
-0.00112659
-0.00119726
-0.00127027
-0.00134561
-0.0014233
-0.00150333
-0.0015857
-0.00167041
-0.00175747
-0.00184687
-0.00193859
-0.00203264
-0.00212901
-0.00222768
-0.00232865
-0.00243188
-0.00253738
-0.00264512
-0.00275506
-0.0028672
-0.00298151
-0.00309794
-0.00321647
-0.00333705
-0.00345966
-0.00358425
-0.00371076
-0.00383915
-0.00396937
-0.00410137
-0.00423507
-0.00437041
-0.00450734
-0.00464577
-0.00478564
-0.00492687
-0.00506937
-0.00521305
-0.00535784
-0.00550365
-0.00565036
-0.00579789
-0.00594614
-0.006095
-0.00624436
-0.00639412
-0.00654416
-0.00669436
-0.00684462
-0.0069948
-0.00714479
-0.00729447
-0.00744371
-0.00759238
-0.00774036
-0.00788753
-0.00803375
-0.00817889
-0.00832283
-0.00846545
-0.0086066
-0.00874618
-0.00888405
-0.00902008
-0.00915417
-0.00928618
-0.00941601
-0.00954353
-0.00966864
-0.00979122
-0.00991118
-0.0100284
-0.0101428
-0.0102543
-0.0103627
-0.0104681
-0.0105703
-0.0106692
-0.0107648
-0.010857
-0.0109457
-0.011031
-0.0111126
-0.0111907
-0.0112651
-0.0113359
-0.0114029
-0.0114662
-0.0115257
-0.0115815
-0.0116335
-0.0116818
-0.0117262
-0.0117669
-0.0118039
-0.0118371
-0.0118666
-0.0118924
-0.0119146
-0.0119332
-0.0119481
-0.0119596
-0.0119676
-0.0119721
-0.0119732
-0.0119711
-0.0119657
-0.011957
-0.0119453
-0.0119305
-0.0119127
-0.0118919
-0.0118684
-0.011842
-0.011813
-0.0117814
-0.0117472
-0.0117106
-0.0116716
-0.0116304
-0.0115869
-0.0115413
-0.0114937
-0.0114442
-0.0113927
-0.0113395
-0.0112846
-0.011228
-0.01117
-0.0111104
-0.0110495
-0.0109873
-0.0109239
-0.0108593
-0.0107937
-0.010727
-0.0106595
-0.0105911
-0.010522
-0.0104521
-0.0103816
-0.0103106
-0.010239
-0.010167
-0.0100947
-0.010022
-0.00994908
-0.00987598
-0.00980274
-0.00972943
-0.00965609
-0.00958278
-0.00950955
-0.00943646
-0.00936355
-0.00929086
-0.00921844
-0.00914635
-0.00907461
-0.00900327
-0.00893238
-0.00886196
-0.00879207
-0.00872273
-0.00865397
-0.00858584
-0.00851837
-0.00845158
-0.00838552
-0.00832019
-0.00825565
-0.0081919
-0.00812899
-0.00806693
-0.00800574
-0.00794546
-0.0078861
-0.00782768
-0.00777023
-0.00771376
-0.0076583
-0.00760386
-0.00755046
-0.00749811
-0.00744683
-0.00739664
-0.00734756
-0.00729958
-0.00725273
-0.00720703
-0.00716247
-0.00711908
-0.00707687
-0.00703584
-0.006996
-0.00695737
-0.00691996
-0.00688376
-0.00684879
-0.00681506
-0.00678258
-0.00675135
-0.00672137
-0.00669266
-0.00666521
-0.00663904
-0.00661415
-0.00659055
-0.00656823
-0.0065472
-0.00652748
-0.00650905
-0.00649192
-0.0064761
-0.00646159
-0.00644839
-0.00643651
-0.00642594
-0.00641669
-0.00640875
-0.00640214
-0.00639685
-0.00639288
-0.00639023
-0.00638891
-6.87591e-05
-7.08728e-05
-7.51065e-05
-8.14575e-05
-8.99287e-05
-0.000100523
-0.000113244
-0.000128096
-0.000145082
-0.000164209
-0.000185483
-0.000208908
-0.000234493
-0.000262244
-0.000292169
-0.000324277
-0.000358575
-0.000395073
-0.000433779
-0.000474703
-0.000517854
-0.000563243
-0.000610877
-0.000660768
-0.000712924
-0.000767356
-0.000824071
-0.000883079
-0.000944388
-0.00100801
-0.00107394
-0.0011422
-0.00121279
-0.00128571
-0.00136098
-0.00143858
-0.00151853
-0.00160082
-0.00168546
-0.00177244
-0.00186176
-0.00195342
-0.0020474
-0.00214371
-0.00224232
-0.00234322
-0.00244641
-0.00255186
-0.00265955
-0.00276946
-0.00288157
-0.00299585
-0.00311226
-0.00323078
-0.00335136
-0.00347397
-0.00359856
-0.00372509
-0.00385351
-0.00398377
-0.0041158
-0.00424956
-0.00438496
-0.00452196
-0.00466047
-0.00480043
-0.00494176
-0.00508436
-0.00522817
-0.00537309
-0.00551903
-0.00566589
-0.00581359
-0.005962
-0.00611104
-0.00626059
-0.00641054
-0.00656078
-0.0067112
-0.00686168
-0.00701209
-0.00716232
-0.00731224
-0.00746173
-0.00761066
-0.0077589
-0.00790633
-0.00805283
-0.00819825
-0.00834247
-0.00848536
-0.0086268
-0.00876666
-0.00890482
-0.00904114
-0.00917551
-0.00930781
-0.00943792
-0.00956572
-0.0096911
-0.00981396
-0.00993418
-0.0100517
-0.0101663
-0.010278
-0.0103867
-0.0104923
-0.0105947
-0.0106939
-0.0107897
-0.0108821
-0.010971
-0.0110564
-0.0111383
-0.0112165
-0.0112911
-0.0113619
-0.0114291
-0.0114925
-0.0115522
-0.011608
-0.0116601
-0.0117084
-0.0117529
-0.0117937
-0.0118307
-0.0118639
-0.0118934
-0.0119192
-0.0119414
-0.0119599
-0.0119749
-0.0119863
-0.0119942
-0.0119986
-0.0119997
-0.0119975
-0.0119919
-0.0119832
-0.0119713
-0.0119564
-0.0119385
-0.0119176
-0.0118939
-0.0118674
-0.0118383
-0.0118065
-0.0117722
-0.0117354
-0.0116962
-0.0116548
-0.0116112
-0.0115654
-0.0115176
-0.0114678
-0.0114162
-0.0113628
-0.0113077
-0.011251
-0.0111927
-0.0111329
-0.0110718
-0.0110094
-0.0109458
-0.010881
-0.0108152
-0.0107484
-0.0106806
-0.010612
-0.0105427
-0.0104726
-0.0104019
-0.0103307
-0.0102589
-0.0101868
-0.0101142
-0.0100413
-0.00996824
-0.00989495
-0.00982152
-0.00974803
-0.00967451
-0.00960102
-0.00952762
-0.00945435
-0.00938126
-0.0093084
-0.00923582
-0.00916355
-0.00909165
-0.00902016
-0.0089491
-0.00887853
-0.00880848
-0.00873899
-0.00867009
-0.00860181
-0.0085342
-0.00846727
-0.00840106
-0.00833561
-0.00827093
-0.00820705
-0.00814401
-0.00808182
-0.00802052
-0.00796011
-0.00790064
-0.00784211
-0.00778454
-0.00772797
-0.0076724
-0.00761785
-0.00756435
-0.0075119
-0.00746053
-0.00741025
-0.00736107
-0.00731301
-0.00726607
-0.00722028
-0.00717565
-0.00713218
-0.00708989
-0.00704879
-0.00700888
-0.00697018
-0.0069327
-0.00689644
-0.00686141
-0.00682762
-0.00679508
-0.00676379
-0.00673376
-0.006705
-0.00667751
-0.00665129
-0.00662636
-0.00660272
-0.00658036
-0.0065593
-0.00653954
-0.00652108
-0.00650393
-0.00648808
-0.00647355
-0.00646032
-0.00644842
-0.00643783
-0.00642856
-0.00642062
-0.00641399
-0.00640869
-0.00640472
-0.00640207
-0.00640074
-8.84416e-05
-9.05513e-05
-9.47766e-05
-0.000101115
-0.000109569
-0.000120142
-0.000132838
-0.00014766
-0.000164613
-0.000183702
-0.000204933
-0.000228313
-0.000253848
-0.000281545
-0.000311413
-0.00034346
-0.000377694
-0.000414124
-0.00045276
-0.00049361
-0.000536685
-0.000581994
-0.000629548
-0.000679354
-0.000731425
-0.000785768
-0.000842394
-0.000901311
-0.000962529
-0.00102605
-0.0010919
-0.00116006
-0.00123056
-0.00130338
-0.00137855
-0.00145607
-0.00153592
-0.00161813
-0.00170268
-0.00178957
-0.00187881
-0.00197039
-0.0020643
-0.00216053
-0.00225907
-0.00235991
-0.00246304
-0.00256843
-0.00267608
-0.00278595
-0.00289802
-0.00301227
-0.00312866
-0.00324716
-0.00336774
-0.00349035
-0.00361496
-0.00374151
-0.00386996
-0.00400025
-0.00413234
-0.00426615
-0.00440163
-0.00453871
-0.00467731
-0.00481737
-0.00495881
-0.00510155
-0.00524549
-0.00539056
-0.00553666
-0.0056837
-0.00583157
-0.00598018
-0.00612942
-0.00627918
-0.00642936
-0.00657984
-0.0067305
-0.00688123
-0.00703191
-0.00718241
-0.00733261
-0.00748239
-0.00763161
-0.00778016
-0.0079279
-0.0080747
-0.00822044
-0.00836498
-0.0085082
-0.00864997
-0.00879016
-0.00892864
-0.00906529
-0.00919999
-0.00933261
-0.00946304
-0.00959117
-0.00971687
-0.00984003
-0.00996056
-0.0100783
-0.0101933
-0.0103053
-0.0104143
-0.0105201
-0.0106228
-0.0107222
-0.0108182
-0.0109109
-0.011
-0.0110856
-0.0111677
-0.0112461
-0.0113208
-0.0113919
-0.0114591
-0.0115227
-0.0115824
-0.0116384
-0.0116906
-0.011739
-0.0117835
-0.0118243
-0.0118613
-0.0118946
-0.0119241
-0.0119499
-0.0119721
-0.0119906
-0.0120055
-0.0120168
-0.0120247
-0.012029
-0.01203
-0.0120277
-0.0120221
-0.0120132
-0.0120012
-0.0119861
-0.0119681
-0.0119471
-0.0119232
-0.0118965
-0.0118672
-0.0118352
-0.0118007
-0.0117638
-0.0117244
-0.0116828
-0.0116389
-0.011593
-0.0115449
-0.011495
-0.0114431
-0.0113895
-0.0113342
-0.0112772
-0.0112187
-0.0111587
-0.0110974
-0.0110347
-0.0109709
-0.0109059
-0.0108398
-0.0107727
-0.0107048
-0.010636
-0.0105664
-0.0104961
-0.0104252
-0.0103537
-0.0102817
-0.0102093
-0.0101366
-0.0100635
-0.00999016
-0.00991665
-0.00984302
-0.00976931
-0.00969558
-0.00962188
-0.00954828
-0.00947481
-0.00940152
-0.00932847
-0.00925569
-0.00918324
-0.00911115
-0.00903947
-0.00896823
-0.00889748
-0.00882725
-0.00875759
-0.00868852
-0.00862007
-0.00855229
-0.00848521
-0.00841884
-0.00835323
-0.0082884
-0.00822437
-0.00816118
-0.00809885
-0.00803741
-0.00797687
-0.00791726
-0.00785859
-0.0078009
-0.0077442
-0.00768851
-0.00763385
-0.00758023
-0.00752767
-0.00747619
-0.00742579
-0.00737651
-0.00732835
-0.00728132
-0.00723543
-0.0071907
-0.00714714
-0.00710477
-0.00706358
-0.00702359
-0.00698481
-0.00694725
-0.00691092
-0.00687582
-0.00684196
-0.00680936
-0.00677801
-0.00674792
-0.0067191
-0.00669156
-0.00666529
-0.00664031
-0.00661662
-0.00659422
-0.00657312
-0.00655332
-0.00653482
-0.00651764
-0.00650176
-0.0064872
-0.00647395
-0.00646202
-0.00645142
-0.00644213
-0.00643417
-0.00642753
-0.00642222
-0.00641824
-0.00641558
-0.00641425
-0.000110597
-0.000112702
-0.000116918
-0.000123242
-0.000131677
-0.000142227
-0.000154894
-0.000169682
-0.000186597
-0.000205644
-0.000226828
-0.000250156
-0.000275635
-0.000303273
-0.000333077
-0.000365056
-0.000399218
-0.000435573
-0.000474129
-0.000514897
-0.000557887
-0.000603108
-0.000650569
-0.000700282
-0.000752257
-0.000806502
-0.000863027
-0.000921843
-0.000982957
-0.00104638
-0.00111212
-0.00118018
-0.00125057
-0.00132329
-0.00139835
-0.00147576
-0.00155552
-0.00163762
-0.00172208
-0.00180888
-0.00189802
-0.00198951
-0.00208333
-0.00217948
-0.00227794
-0.00237871
-0.00248178
-0.00258711
-0.0026947
-0.00280453
-0.00291656
-0.00303077
-0.00314714
-0.00326563
-0.0033862
-0.00350882
-0.00363344
-0.00376002
-0.0038885
-0.00401884
-0.00415098
-0.00428487
-0.00442043
-0.0045576
-0.00469631
-0.00483649
-0.00497806
-0.00512093
-0.00526503
-0.00541027
-0.00555655
-0.00570378
-0.00585186
-0.00600069
-0.00615016
-0.00630017
-0.0064506
-0.00660135
-0.00675229
-0.00690331
-0.00705428
-0.00720509
-0.00735561
-0.00750572
-0.00765528
-0.00780416
-0.00795225
-0.00809941
-0.0082455
-0.00839041
-0.00853399
-0.00867613
-0.00881669
-0.00895554
-0.00909256
-0.00922763
-0.00936063
-0.00949143
-0.00961991
-0.00974597
-0.00986949
-0.00999036
-0.0101085
-0.0102238
-0.0103361
-0.0104454
-0.0105516
-0.0106545
-0.0107542
-0.0108505
-0.0109434
-0.0110328
-0.0111186
-0.0112009
-0.0112795
-0.0113544
-0.0114256
-0.0114931
-0.0115568
-0.0116167
-0.0116727
-0.011725
-0.0117735
-0.0118181
-0.011859
-0.011896
-0.0119293
-0.0119588
-0.0119846
-0.0120067
-0.0120252
-0.01204
-0.0120513
-0.0120591
-0.0120634
-0.0120643
-0.0120618
-0.012056
-0.0120471
-0.0120349
-0.0120197
-0.0120015
-0.0119803
-0.0119562
-0.0119294
-0.0118999
-0.0118677
-0.011833
-0.0117958
-0.0117562
-0.0117143
-0.0116702
-0.011624
-0.0115758
-0.0115256
-0.0114735
-0.0114196
-0.011364
-0.0113068
-0.011248
-0.0111878
-0.0111262
-0.0110633
-0.0109992
-0.0109339
-0.0108676
-0.0108002
-0.010732
-0.0106629
-0.0105931
-0.0105226
-0.0104514
-0.0103796
-0.0103074
-0.0102348
-0.0101617
-0.0100884
-0.0100149
-0.0099411
-0.00986722
-0.00979328
-0.00971931
-0.00964539