/*--------------------------------*- C++ -*----------------------------------*\
| =========                 |                                                 |
| \\      /  F ield         | OpenFOAM: The Open Source CFD Toolbox           |
|  \\    /   O peration     | Version:  v2012                                 |
|   \\  /    A nd           | Website:  www.openfoam.com                      |
|    \\/     M anipulation  |                                                 |
\*---------------------------------------------------------------------------*/
FoamFile
{
    version     2.0;
    format      ascii;
    class       surfaceScalarField;
    location    "9";
    object      phi;
}
// * * * * * * * * * * * * * * * * * * * * * * * * * * * * * * * * * * * * * //

dimensions      [0 3 -1 0 0 0 0];
oriented        oriented;


internalField   nonuniform List<scalar> 
130560
(
3.71742e-06
-3.71742e-06
7.43488e-06
-3.71746e-06
1.11524e-05
-3.71754e-06
1.48701e-05
-3.71765e-06
1.85879e-05
-3.71779e-06
2.23058e-05
-3.71797e-06
2.6024e-05
-3.71818e-06
2.97424e-05
-3.7184e-06
3.3461e-05
-3.71864e-06
3.71799e-05
-3.71888e-06
4.08991e-05
-3.71913e-06
4.46184e-05
-3.71937e-06
4.8338e-05
-3.7196e-06
5.20578e-05
-3.7198e-06
5.57778e-05
-3.71996e-06
5.94979e-05
-3.72008e-06
6.3218e-05
-3.72013e-06
6.69381e-05
-3.72012e-06
7.06581e-05
-3.72002e-06
7.4378e-05
-3.71981e-06
7.80974e-05
-3.71949e-06
8.18165e-05
-3.71904e-06
8.55349e-05
-3.71844e-06
8.92526e-05
-3.71767e-06
9.29693e-05
-3.71672e-06
9.66849e-05
-3.71556e-06
0.000100399
-3.71418e-06
0.000104112
-3.71255e-06
0.000107822
-3.71065e-06
0.000111531
-3.70847e-06
0.000115237
-3.70597e-06
0.00011894
-3.70314e-06
0.00012264
-3.69995e-06
0.000126336
-3.69637e-06
0.000130029
-3.69238e-06
0.000133716
-3.68796e-06
0.0001374
-3.68308e-06
0.000141077
-3.67771e-06
0.000144749
-3.67182e-06
0.000148414
-3.66538e-06
0.000152073
-3.65837e-06
0.000155724
-3.65076e-06
0.000159366
-3.64252e-06
0.000163
-3.63362e-06
0.000166624
-3.62403e-06
0.000170237
-3.61372e-06
0.00017384
-3.60266e-06
0.000177431
-3.59082e-06
0.000181009
-3.57817e-06
0.000184574
-3.56468e-06
0.000188124
-3.55032e-06
0.000191659
-3.53506e-06
0.000195178
-3.51887e-06
0.00019868
-3.50173e-06
0.000202163
-3.48359e-06
0.000205628
-3.46445e-06
0.000209072
-3.44426e-06
0.000212495
-3.423e-06
0.000215896
-3.40065e-06
0.000219273
-3.37717e-06
0.000222625
-3.35255e-06
0.000225952
-3.32676e-06
0.000229252
-3.29978e-06
0.000232524
-3.27159e-06
0.000235766
-3.24216e-06
0.000238977
-3.21149e-06
0.000242157
-3.17954e-06
0.000245303
-3.14631e-06
0.000248415
-3.11177e-06
0.000251491
-3.07593e-06
0.00025453
-3.03876e-06
0.00025753
-3.00026e-06
0.00026049
-2.96042e-06
0.000263409
-2.91924e-06
0.000266286
-2.87671e-06
0.000269119
-2.83282e-06
0.000271907
-2.78759e-06
0.000274648
-2.74102e-06
0.000277341
-2.6931e-06
0.000279985
-2.64385e-06
0.000282578
-2.59328e-06
0.000285119
-2.5414e-06
0.000287607
-2.48822e-06
0.000290041
-2.43376e-06
0.000292419
-2.37803e-06
0.00029474
-2.32107e-06
0.000297003
-2.2629e-06
0.000299207
-2.20353e-06
0.00030135
-2.143e-06
0.000303431
-2.08134e-06
0.00030545
-2.01858e-06
0.000307404
-1.95476e-06
0.000309294
-1.88991e-06
0.000311118
-1.82408e-06
0.000312876
-1.75729e-06
0.000314565
-1.6896e-06
0.000316186
-1.62105e-06
0.000317738
-1.55169e-06
0.00031922
-1.48156e-06
0.00032063
-1.41071e-06
0.00032197
-1.3392e-06
0.000323237
-1.26707e-06
0.000324431
-1.19438e-06
0.000325552
-1.12118e-06
0.0003266
-1.04752e-06
0.000327573
-9.7347e-07
0.000328472
-8.99076e-07
0.000329297
-8.24397e-07
0.000330046
-7.49489e-07
0.000330721
-6.74409e-07
0.00033132
-5.99215e-07
0.000331844
-5.23964e-07
0.000332292
-4.48712e-07
0.000332666
-3.73516e-07
0.000332964
-2.98432e-07
0.000333188
-2.23515e-07
0.000333337
-1.4882e-07
0.000333411
-7.43993e-08
0.000333411
-3.18559e-10
0.000333338
7.33992e-08
0.000333191
1.46674e-07
0.000332972
2.1947e-07
0.00033268
2.91736e-07
0.000332317
3.63425e-07
0.000331882
4.34493e-07
0.000331377
5.04895e-07
0.000330803
5.7459e-07
0.000330159
6.43536e-07
0.000329448
7.11696e-07
0.000328668
7.79032e-07
0.000327823
8.45509e-07
0.000326912
9.11094e-07
0.000325936
9.75756e-07
0.000324897
1.03947e-06
0.000323794
1.1022e-06
0.000322631
1.16392e-06
0.000321406
1.22461e-06
0.000320122
1.28426e-06
0.000318779
1.34283e-06
0.000317379
1.40032e-06
0.000315922
1.4567e-06
0.00031441
1.51196e-06
0.000312844
1.56609e-06
0.000311225
1.61908e-06
0.000309554
1.67092e-06
0.000307832
1.7216e-06
0.000306061
1.77112e-06
0.000304242
1.81947e-06
0.000302375
1.86666e-06
0.000300462
1.91267e-06
0.000298505
1.95752e-06
0.000296504
2.0012e-06
0.00029446
2.04372e-06
0.000292375
2.08509e-06
0.000290249
2.1253e-06
0.000288085
2.16437e-06
0.000285883
2.20231e-06
0.000283644
2.23912e-06
0.000281369
2.27481e-06
0.000279059
2.3094e-06
0.000276717
2.34291e-06
0.000274341
2.37533e-06
0.000271935
2.40669e-06
0.000269497
2.43701e-06
0.000267031
2.46629e-06
0.000264537
2.49455e-06
0.000262015
2.52182e-06
0.000259467
2.5481e-06
0.000256893
2.57342e-06
0.000254296
2.59779e-06
0.000251674
2.62123e-06
0.000249031
2.64377e-06
0.000246365
2.66541e-06
0.000243679
2.68618e-06
0.000240973
2.7061e-06
0.000238248
2.72519e-06
0.000235504
2.74347e-06
0.000232743
2.76095e-06
0.000229966
2.77766e-06
0.000227172
2.79362e-06
0.000224363
2.80885e-06
0.00022154
2.82337e-06
0.000218703
2.83719e-06
0.000215852
2.85034e-06
0.000212989
2.86284e-06
0.000210115
2.87471e-06
0.000207229
2.88596e-06
0.000204332
2.89661e-06
0.000201425
2.90669e-06
0.000198509
2.91622e-06
0.000195584
2.9252e-06
0.00019265
2.93367e-06
0.000189709
2.94163e-06
0.00018676
2.94911e-06
0.000183803
2.95613e-06
0.000180841
2.9627e-06
0.000177872
2.96883e-06
0.000174897
2.97455e-06
0.000171917
2.97988e-06
0.000168933
2.98482e-06
0.000165943
2.9894e-06
0.00016295
2.99362e-06
0.000159952
2.99752e-06
0.000156951
3.00109e-06
0.000153947
3.00435e-06
0.000150939
3.00733e-06
0.000147929
3.01003e-06
0.000144917
3.01247e-06
0.000141902
3.01466e-06
0.000138886
3.01661e-06
0.000135867
3.01834e-06
0.000132847
3.01985e-06
0.000129826
3.02117e-06
0.000126804
3.0223e-06
0.000123781
3.02325e-06
0.000120757
3.02404e-06
0.000117732
3.02467e-06
0.000114707
3.02516e-06
0.000111681
3.02552e-06
0.000108655
3.02575e-06
0.00010563
3.02587e-06
0.000102604
3.02588e-06
9.9578e-05
3.0258e-06
9.65523e-05
3.02562e-06
9.3527e-05
3.02537e-06
9.05019e-05
3.02505e-06
8.74772e-05
3.02467e-06
8.4453e-05
3.02423e-06
8.14293e-05
3.02374e-06
7.84061e-05
3.0232e-06
7.53834e-05
3.02264e-06
7.23614e-05
3.02204e-06
6.934e-05
3.02142e-06
6.63192e-05
3.02079e-06
6.3299e-05
3.02014e-06
6.02795e-05
3.01949e-06
5.72607e-05
3.01884e-06
5.42425e-05
3.01819e-06
5.1225e-05
3.01754e-06
4.82081e-05
3.01691e-06
4.51918e-05
3.0163e-06
4.2176e-05
3.01571e-06
3.91609e-05
3.01514e-06
3.61463e-05
3.0146e-06
3.31322e-05
3.01409e-06
3.01186e-05
3.01361e-06
2.71054e-05
3.01317e-06
2.40927e-05
3.01276e-06
2.10803e-05
3.0124e-06
1.80682e-05
3.01208e-06
1.50564e-05
3.0118e-06
1.20448e-05
3.01156e-06
9.03346e-06
3.01137e-06
6.02223e-06
3.01123e-06
3.01109e-06
3.01114e-06
3.01109e-06
3.71739e-06
-7.43482e-06
7.43482e-06
-7.43488e-06
1.11523e-05
-7.43504e-06
1.48699e-05
-7.43527e-06
1.85877e-05
-7.43556e-06
2.23057e-05
-7.43592e-06
2.60238e-05
-7.43633e-06
2.97422e-05
-7.43678e-06
3.34608e-05
-7.43727e-06
3.71797e-05
-7.43777e-06
4.08989e-05
-7.43827e-06
4.46183e-05
-7.43876e-06
4.83379e-05
-7.43923e-06
5.20577e-05
-7.43964e-06
5.57777e-05
-7.43997e-06
5.94979e-05
-7.44022e-06
6.32181e-05
-7.44034e-06
6.69383e-05
-7.44033e-06
7.06584e-05
-7.44014e-06
7.43783e-05
-7.43974e-06
7.8098e-05
-7.43912e-06
8.18172e-05
-7.43823e-06
8.55358e-05
-7.43705e-06
8.92536e-05
-7.43553e-06
9.29706e-05
-7.43364e-06
9.66863e-05
-7.43135e-06
0.000100401
-7.4286e-06
0.000104114
-7.42536e-06
0.000107825
-7.42159e-06
0.000111533
-7.41725e-06
0.00011524
-7.41228e-06
0.000118943
-7.40664e-06
0.000122643
-7.40028e-06
0.00012634
-7.39315e-06
0.000130033
-7.38521e-06
0.000133721
-7.37639e-06
0.000137405
-7.36665e-06
0.000141083
-7.35593e-06
0.000144756
-7.34418e-06
0.000148422
-7.33134e-06
0.000152081
-7.31735e-06
0.000155732
-7.30216e-06
0.000159375
-7.28571e-06
0.000163009
-7.26793e-06
0.000166634
-7.24878e-06
0.000170249
-7.22819e-06
0.000173852
-7.2061e-06
0.000177444
-7.18245e-06
0.000181023
-7.15717e-06
0.000184588
-7.13022e-06
0.00018814
-7.10154e-06
0.000191676
-7.07105e-06
0.000195195
-7.0387e-06
0.000198698
-7.00444e-06
0.000202183
-6.9682e-06
0.000205648
-6.92994e-06
0.000209093
-6.88959e-06
0.000212518
-6.8471e-06
0.000215919
-6.80242e-06
0.000219298
-6.75549e-06
0.000222651
-6.70628e-06
0.000225979
-6.65472e-06
0.00022928
-6.60078e-06
0.000232553
-6.54441e-06
0.000235797
-6.48558e-06
0.000239009
-6.42424e-06
0.00024219
-6.36036e-06
0.000245338
-6.29391e-06
0.000248451
-6.22486e-06
0.000251528
-6.15318e-06
0.000254568
-6.07886e-06
0.00025757
-6.00187e-06
0.000260532
-5.92219e-06
0.000263452
-5.83983e-06
0.00026633
-5.75476e-06
0.000269164
-5.667e-06
0.000271953
-5.57653e-06
0.000274696
-5.48338e-06
0.00027739
-5.38754e-06
0.000280035
-5.28903e-06
0.00028263
-5.18787e-06
0.000285173
-5.08409e-06
0.000287662
-4.97771e-06
0.000290097
-4.86877e-06
0.000292476
-4.75731e-06
0.000294799
-4.64336e-06
0.000297063
-4.52698e-06
0.000299267
-4.40822e-06
0.000301412
-4.28714e-06
0.000303494
-4.16379e-06
0.000305514
-4.03823e-06
0.000307469
-3.91055e-06
0.00030936
-3.78082e-06
0.000311185
-3.6491e-06
0.000312944
-3.51549e-06
0.000314634
-3.38007e-06
0.000316256
-3.24292e-06
0.000317808
-3.10415e-06
0.000319291
-2.96384e-06
0.000320702
-2.82209e-06
0.000322042
-2.67901e-06
0.000323309
-2.5347e-06
0.000324504
-2.38926e-06
0.000325626
-2.24281e-06
0.000326674
-2.09545e-06
0.000327648
-1.94729e-06
0.000328547
-1.79844e-06
0.000329372
-1.64903e-06
0.000330121
-1.49915e-06
0.000330796
-1.34894e-06
0.000331395
-1.19849e-06
0.000331919
-1.04793e-06
0.000332368
-8.97371e-07
0.000332741
-7.46923e-07
0.00033304
-5.96699e-07
0.000333263
-4.46811e-07
0.000333411
-2.97367e-07
0.000333485
-1.48477e-07
0.000333485
-2.46443e-10
0.000333412
1.47223e-07
0.000333264
2.93827e-07
0.000333044
4.39466e-07
0.000332752
5.84045e-07
0.000332388
7.27469e-07
0.000331953
8.69649e-07
0.000331447
1.0105e-06
0.000330872
1.14992e-06
0.000330228
1.28786e-06
0.000329515
1.42421e-06
0.000328735
1.55892e-06
0.000327889
1.69191e-06
0.000326977
1.82311e-06
0.000326
1.95246e-06
0.00032496
2.07991e-06
0.000323856
2.2054e-06
0.000322692
2.32887e-06
0.000321466
2.45028e-06
0.000320181
2.56959e-06
0.000318837
2.68675e-06
0.000317435
2.80174e-06
0.000315977
2.91451e-06
0.000314464
3.02505e-06
0.000312897
3.13332e-06
0.000311277
3.2393e-06
0.000309605
3.34299e-06
0.000307882
3.44436e-06
0.00030611
3.5434e-06
0.000304289
3.64011e-06
0.000302421
3.73448e-06
0.000300507
3.82651e-06
0.000298549
3.91621e-06
0.000296546
4.00357e-06
0.000294501
4.08861e-06
0.000292415
4.17133e-06
0.000290289
4.25175e-06
0.000288123
4.32988e-06
0.00028592
4.40574e-06
0.00028368
4.47935e-06
0.000281404
4.55072e-06
0.000279093
4.6199e-06
0.000276749
4.68689e-06
0.000274373
4.75172e-06
0.000271965
4.81443e-06
0.000269527
4.87505e-06
0.00026706
4.93359e-06
0.000264564
4.99011e-06
0.000262041
5.04462e-06
0.000259492
5.09717e-06
0.000256918
5.14779e-06
0.000254319
5.19651e-06
0.000251697
5.24338e-06
0.000249052
5.28842e-06
0.000246386
5.33169e-06
0.000243699
5.37321e-06
0.000240992
5.41304e-06
0.000238266
5.45119e-06
0.000235522
5.48773e-06
0.00023276
5.52268e-06
0.000229982
5.55608e-06
0.000227187
5.58798e-06
0.000224378
5.61842e-06
0.000221554
5.64743e-06
0.000218716
5.67506e-06
0.000215865
5.70134e-06
0.000213001
5.72632e-06
0.000210126
5.75003e-06
0.00020724
5.77251e-06
0.000204342
5.7938e-06
0.000201435
5.81395e-06
0.000198518
5.83297e-06
0.000195593
5.85093e-06
0.000192658
5.86784e-06
0.000189716
5.88375e-06
0.000186767
5.8987e-06
0.00018381
5.91271e-06
0.000180847
5.92583e-06
0.000177878
5.93808e-06
0.000174903
5.94951e-06
0.000171923
5.96014e-06
0.000168937
5.97001e-06
0.000165948
5.97915e-06
0.000162954
5.98758e-06
0.000159956
5.99535e-06
0.000156954
6.00248e-06
0.00015395
6.009e-06
0.000150942
6.01494e-06
0.000147932
6.02033e-06
0.000144919
6.02519e-06
0.000141904
6.02955e-06
0.000138887
6.03344e-06
0.000135869
6.03689e-06
0.000132849
6.03991e-06
0.000129827
6.04253e-06
0.000126805
6.04478e-06
0.000123782
6.04667e-06
0.000120757
6.04824e-06
0.000117733
6.04949e-06
0.000114707
6.05046e-06
0.000111682
6.05116e-06
0.000108656
6.05162e-06
0.00010563
6.05184e-06
0.000102604
6.05186e-06
9.95779e-05
6.05168e-06
9.65522e-05
6.05133e-06
9.35267e-05
6.05082e-06
9.05016e-05
6.05017e-06
8.74769e-05
6.04939e-06
8.44526e-05
6.0485e-06
8.14288e-05
6.04752e-06
7.84056e-05
6.04645e-06
7.53829e-05
6.04531e-06
7.23609e-05
6.04411e-06
6.93394e-05
6.04287e-06
6.63186e-05
6.04159e-06
6.32985e-05
6.04029e-06
6.0279e-05
6.03898e-06
5.72601e-05
6.03767e-06
5.42419e-05
6.03637e-06
5.12244e-05
6.03508e-06
4.82075e-05
6.03382e-06
4.51912e-05
6.03259e-06
4.21755e-05
6.0314e-06
3.91604e-05
6.03026e-06
3.61458e-05
6.02917e-06
3.31318e-05
6.02815e-06
3.01182e-05
6.02719e-06
2.71051e-05
6.0263e-06
2.40923e-05
6.02549e-06
2.108e-05
6.02476e-06
1.80679e-05
6.02412e-06
1.50562e-05
6.02356e-06
1.20447e-05
6.02309e-06
9.03333e-06
6.02271e-06
6.02214e-06
6.02242e-06
3.01105e-06
6.02223e-06
6.02214e-06
3.71732e-06
-1.11521e-05
7.43468e-06
-1.11522e-05
1.11521e-05
-1.11525e-05
1.48697e-05
-1.11528e-05
1.85874e-05
-1.11533e-05
2.23053e-05
-1.11538e-05
2.60234e-05
-1.11545e-05
2.97418e-05
-1.11551e-05
3.34604e-05
-1.11559e-05
3.71793e-05
-1.11567e-05
4.08984e-05
-1.11574e-05
4.46179e-05
-1.11582e-05
4.83376e-05
-1.11589e-05
5.20575e-05
-1.11595e-05
5.57776e-05
-1.11601e-05
5.94978e-05
-1.11605e-05
6.32182e-05
-1.11607e-05
6.69386e-05
-1.11607e-05
7.06589e-05
-1.11605e-05
7.43791e-05
-1.11599e-05
7.8099e-05
-1.1159e-05
8.18185e-05
-1.11577e-05
8.55374e-05
-1.1156e-05
8.92556e-05
-1.11538e-05
9.2973e-05
-1.1151e-05
9.66892e-05
-1.11476e-05
0.000100404
-1.11435e-05
0.000104118
-1.11387e-05
0.000107829
-1.11331e-05
0.000111538
-1.11267e-05
0.000115245
-1.11193e-05
0.00011895
-1.11109e-05
0.000122651
-1.11014e-05
0.000126348
-1.10908e-05
0.000130042
-1.10789e-05
0.000133731
-1.10657e-05
0.000137416
-1.10512e-05
0.000141095
-1.10352e-05
0.000144769
-1.10176e-05
0.000148436
-1.09984e-05
0.000152096
-1.09775e-05
0.000155749
-1.09548e-05
0.000159393
-1.09302e-05
0.000163029
-1.09036e-05
0.000166655
-1.0875e-05
0.000170271
-1.08442e-05
0.000173876
-1.08111e-05
0.000177469
-1.07757e-05
0.00018105
-1.07379e-05
0.000184617
-1.06975e-05
0.00018817
-1.06546e-05
0.000191708
-1.06089e-05
0.00019523
-1.05605e-05
0.000198735
-1.05091e-05
0.000202221
-1.04548e-05
0.000205689
-1.03975e-05
0.000209136
-1.03371e-05
0.000212563
-1.02734e-05
0.000215967
-1.02064e-05
0.000219347
-1.01361e-05
0.000222703
-1.00623e-05
0.000226034
-9.98506e-06
0.000229337
-9.90421e-06
0.000232612
-9.81971e-06
0.000235858
-9.7315e-06
0.000239074
-9.63954e-06
0.000242257
-9.54376e-06
0.000245407
-9.44412e-06
0.000248523
-9.34058e-06
0.000251603
-9.23309e-06
0.000254646
-9.12162e-06
0.00025765
-9.00615e-06
0.000260614
-8.88666e-06
0.000263538
-8.76312e-06
0.000266418
-8.63552e-06
0.000269255
-8.50387e-06
0.000272047
-8.36817e-06
0.000274792
-8.22842e-06
0.000277489
-8.08464e-06
0.000280137
-7.93685e-06
0.000282734
-7.78509e-06
0.000285279
-7.62938e-06
0.000287771
-7.46977e-06
0.000290209
-7.30631e-06
0.000292591
-7.13907e-06
0.000294915
-6.96809e-06
0.000297182
-6.79346e-06
0.000299389
-6.61524e-06
0.000301535
-6.43354e-06
0.00030362
-6.24843e-06
0.000305642
-6.06002e-06
0.0003076
-5.8684e-06
0.000309492
-5.6737e-06
0.000311319
-5.47603e-06
0.000313079
-5.2755e-06
0.000314772
-5.07226e-06
0.000316395
-4.86643e-06
0.000317949
-4.65814e-06
0.000319433
-4.44756e-06
0.000320846
-4.23481e-06
0.000322187
-4.02006e-06
0.000323455
-3.80346e-06
0.000324651
-3.58517e-06
0.000325774
-3.36535e-06
0.000326823
-3.14417e-06
0.000327797
-2.92179e-06
0.000328697
-2.69838e-06
0.000329522
-2.47411e-06
0.000330272
-2.24916e-06
0.000330947
-2.02369e-06
0.000331546
-1.79788e-06
0.00033207
-1.5719e-06
0.000332519
-1.34592e-06
0.000332892
-1.12011e-06
0.00033319
-8.94634e-07
0.000333413
-6.69664e-07
0.000333561
-4.45365e-07
0.000333634
-2.21897e-07
0.000333633
5.8349e-10
0.000333559
2.2191e-07
0.00033341
4.4194e-07
0.000333189
6.6052e-07
0.000332896
8.77506e-07
0.000332531
1.09276e-06
0.000332094
1.30614e-06
0.000331587
1.51751e-06
0.00033101
1.72676e-06
0.000330364
1.93375e-06
0.00032965
2.13838e-06
0.000328869
2.34053e-06
0.00032802
2.54009e-06
0.000327107
2.73697e-06
0.000326128
2.93108e-06
0.000325086
3.12231e-06
0.00032398
3.31061e-06
0.000322813
3.49587e-06
0.000321586
3.67804e-06
0.000320298
3.85706e-06
0.000318952
4.03285e-06
0.000317548
4.20537e-06
0.000316088
4.37456e-06
0.000314573
4.5404e-06
0.000313004
4.70283e-06
0.000311381
4.86183e-06
0.000309707
5.01738e-06
0.000307982
5.16944e-06
0.000306207
5.31802e-06
0.000304384
5.46309e-06
0.000302514
5.60464e-06
0.000300598
5.74269e-06
0.000298637
5.87722e-06
0.000296632
6.00826e-06
0.000294585
6.1358e-06
0.000292496
6.25987e-06
0.000290367
6.38048e-06
0.0002882
6.49765e-06
0.000285994
6.61142e-06
0.000283752
6.72181e-06
0.000281473
6.82884e-06
0.000279161
6.93257e-06
0.000276815
7.03303e-06
0.000274436
7.13025e-06
0.000272026
7.22427e-06
0.000269586
7.31515e-06
0.000267117
7.40294e-06
0.000264619
7.48766e-06
0.000262094
7.56939e-06
0.000259543
7.64817e-06
0.000256967
7.72405e-06
0.000254367
7.79709e-06
0.000251743
7.86734e-06
0.000249096
7.93487e-06
0.000246428
7.99972e-06
0.000243739
8.06195e-06
0.000241031
8.12164e-06
0.000238303
8.17882e-06
0.000235557
8.23357e-06
0.000232794
8.28595e-06
0.000230014
8.33601e-06
0.000227218
8.38381e-06
0.000224407
8.42942e-06
0.000221582
8.47289e-06
0.000218743
8.51428e-06
0.00021589
8.55365e-06
0.000213026
8.59107e-06
0.000210149
8.62658e-06
0.000207261
8.66026e-06
0.000204363
8.69215e-06
0.000201455
8.72232e-06
0.000198537
8.75081e-06
0.00019561
8.77769e-06
0.000192675
8.80302e-06
0.000189732
8.82684e-06
0.000186781
8.84921e-06
0.000183824
8.87019e-06
0.00018086
8.88982e-06
0.00017789
8.90816e-06
0.000174914
8.92526e-06
0.000171933
8.94117e-06
0.000168947
8.95593e-06
0.000165956
8.9696e-06
0.000162962
8.98222e-06
0.000159963
8.99384e-06
0.000156961
9.00449e-06
0.000153956
9.01424e-06
0.000150948
9.02311e-06
0.000147937
9.03116e-06
0.000144924
9.03842e-06
0.000141909
9.04493e-06
0.000138891
9.05073e-06
0.000135872
9.05587e-06
0.000132852
9.06037e-06
0.00012983
9.06427e-06
0.000126807
9.06761e-06
0.000123783
9.07043e-06
0.000120759
9.07275e-06
0.000117734
9.07461e-06
0.000114708
9.07604e-06
0.000111682
9.07706e-06
0.000108656
9.07772e-06
0.00010563
9.07804e-06
0.000102604
9.07804e-06
9.95778e-05
9.07775e-06
9.65519e-05
9.0772e-06
9.35263e-05
9.07642e-06
9.05011e-05
9.07542e-06
8.74762e-05
9.07424e-06
8.44518e-05
9.07289e-06
8.1428e-05
9.07139e-06
7.84046e-05
9.06977e-06
7.53819e-05
9.06805e-06
7.23598e-05
9.06623e-06
6.93383e-05
9.06436e-06
6.63175e-05
9.06243e-06
6.32973e-05
9.06047e-06
6.02778e-05
9.05849e-06
5.7259e-05
9.05651e-06
5.42408e-05
9.05454e-06
5.12233e-05
9.0526e-06
4.82064e-05
9.05069e-06
4.51901e-05
9.04884e-06
4.21745e-05
9.04705e-06
3.91594e-05
9.04533e-06
3.61449e-05
9.04369e-06
3.31309e-05
9.04215e-06
3.01174e-05
9.04071e-06
2.71043e-05
9.03937e-06
2.40917e-05
9.03815e-06
2.10794e-05
9.03705e-06
1.80674e-05
9.03607e-06
1.50557e-05
9.03523e-06
1.20443e-05
9.03452e-06
9.03306e-06
9.03395e-06
6.02196e-06
9.03352e-06
3.01096e-06
9.03323e-06
9.03309e-06
3.71721e-06
-1.48693e-05
7.43447e-06
-1.48695e-05
1.11518e-05
-1.48698e-05
1.48693e-05
-1.48703e-05
1.85869e-05
-1.48709e-05
2.23047e-05
-1.48717e-05
2.60228e-05
-1.48725e-05
2.97411e-05
-1.48735e-05
3.34597e-05
-1.48745e-05
3.71786e-05
-1.48755e-05
4.08978e-05
-1.48766e-05
4.46173e-05
-1.48777e-05
4.8337e-05
-1.48787e-05
5.20571e-05
-1.48796e-05
5.57773e-05
-1.48803e-05
5.94978e-05
-1.48809e-05
6.32183e-05
-1.48813e-05
6.6939e-05
-1.48814e-05
7.06596e-05
-1.48811e-05
7.43801e-05
-1.48804e-05
7.81004e-05
-1.48793e-05
8.18204e-05
-1.48777e-05
8.55398e-05
-1.48755e-05
8.92586e-05
-1.48726e-05
9.29766e-05
-1.48689e-05
9.66935e-05
-1.48645e-05
0.000100409
-1.48592e-05
0.000104123
-1.48529e-05
0.000107836
-1.48455e-05
0.000111546
-1.4837e-05
0.000115254
-1.48273e-05
0.000118959
-1.48162e-05
0.000122662
-1.48036e-05
0.00012636
-1.47896e-05
0.000130055
-1.47739e-05
0.000133746
-1.47565e-05
0.000137432
-1.47372e-05
0.000141113
-1.4716e-05
0.000144788
-1.46927e-05
0.000148457
-1.46673e-05
0.000152119
-1.46395e-05
0.000155774
-1.46094e-05
0.00015942
-1.45767e-05
0.000163058
-1.45414e-05
0.000166686
-1.45033e-05
0.000170304
-1.44624e-05
0.000173912
-1.44184e-05
0.000177507
-1.43714e-05
0.000181091
-1.43211e-05
0.000184661
-1.42674e-05
0.000188216
-1.42103e-05
0.000191757
-1.41495e-05
0.000195282
-1.40851e-05
0.000198789
-1.40168e-05
0.000202279
-1.39445e-05
0.00020575
-1.38682e-05
0.0002092
-1.37877e-05
0.00021263
-1.3703e-05
0.000216037
-1.36138e-05
0.000219421
-1.35202e-05
0.000222781
-1.34219e-05
0.000226115
-1.3319e-05
0.000229422
-1.32113e-05
0.000232701
-1.30987e-05
0.000235951
-1.29812e-05
0.00023917
-1.28587e-05
0.000242357
-1.2731e-05
0.000245511
-1.25982e-05
0.000248631
-1.24602e-05
0.000251715
-1.2317e-05
0.000254761
-1.21684e-05
0.00025777
-1.20145e-05
0.000260738
-1.18552e-05
0.000263666
-1.16905e-05
0.00026655
-1.15203e-05
0.000269391
-1.13448e-05
0.000272187
-1.11639e-05
0.000274936
-1.09775e-05
0.000277637
-1.07858e-05
0.000280289
-1.05887e-05
0.00028289
-1.03863e-05
0.000285439
-1.01786e-05
0.000287935
-9.96568e-06
0.000290377
-9.74765e-06
0.000292762
-9.52456e-06
0.000295091
-9.29648e-06
0.000297361
-9.06351e-06
0.000299571
-8.82576e-06
0.000301721
-8.58335e-06
0.000303809
-8.33638e-06
0.000305834
-8.085e-06
0.000307795
-7.82934e-06
0.000309691
-7.56956e-06
0.00031152
-7.3058e-06
0.000313283
-7.03824e-06
0.000314978
-6.76704e-06
0.000316604
-6.49238e-06
0.00031816
-6.21445e-06
0.000319646
-5.93344e-06
0.000321061
-5.64954e-06
0.000322404
-5.36296e-06
0.000323674
-5.07392e-06
0.000324872
-4.78261e-06
0.000325996
-4.48926e-06
0.000327045
-4.19409e-06
0.000328021
-3.89732e-06
0.000328922
-3.59918e-06
0.000329748
-3.29989e-06
0.000330498
-2.99969e-06
0.000331173
-2.6988e-06
0.000331773
-2.39745e-06
0.000332297
-2.09588e-06
0.000332745
-1.79431e-06
0.000333118
-1.49296e-06
0.000333415
-1.19207e-06
0.000333638
-8.91853e-07
0.000333785
-5.92534e-07
0.000333857
-2.94328e-07
0.000333855
2.55438e-09
0.000333779
2.97895e-07
0.00033363
5.91499e-07
0.000333407
8.83165e-07
0.000333112
1.1727e-06
0.000332745
1.45991e-06
0.000332306
1.74462e-06
0.000331797
2.02665e-06
0.000331218
2.30583e-06
0.00033057
2.58201e-06
0.000329853
2.85502e-06
0.000329069
3.12471e-06
0.000328218
3.39095e-06
0.000327301
3.65361e-06
0.00032632
3.91255e-06
0.000325275
4.16766e-06
0.000324166
4.41884e-06
0.000322996
4.66597e-06
0.000321765
4.90897e-06
0.000320475
5.14774e-06
0.000319125
5.38221e-06
0.000317718
5.61231e-06
0.000316255
5.83797e-06
0.000314736
6.05914e-06
0.000313163
6.27577e-06
0.000311537
6.48781e-06
0.000309859
6.69524e-06
0.000308131
6.89802e-06
0.000306353
7.09613e-06
0.000304526
7.28957e-06
0.000302653
7.47832e-06
0.000300733
7.66237e-06
0.000298768
7.84174e-06
0.00029676
8.01644e-06
0.00029471
8.18647e-06
0.000292618
8.35186e-06
0.000290485
8.51264e-06
0.000288314
8.66884e-06
0.000286105
8.82048e-06
0.000283859
8.96761e-06
0.000281578
9.11028e-06
0.000279262
9.24852e-06
0.000276913
9.3824e-06
0.000274531
9.51196e-06
0.000272118
9.63726e-06
0.000269675
9.75836e-06
0.000267202
9.87533e-06
0.000264702
9.98822e-06
0.000262174
1.00971e-05
0.00025962
1.02021e-05
0.000257041
1.03032e-05
0.000254438
1.04005e-05
0.000251811
1.0494e-05
0.000249162
1.0584e-05
0.000246491
1.06704e-05
0.0002438
1.07533e-05
0.000241089
1.08327e-05
0.000238359
1.09089e-05
0.00023561
1.09818e-05
0.000232845
1.10515e-05
0.000230063
1.11182e-05
0.000227265
1.11818e-05
0.000224451
1.12426e-05
0.000221624
1.13004e-05
0.000218783
1.13555e-05
0.000215928
1.14079e-05
0.000213062
1.14577e-05
0.000210183
1.1505e-05
0.000207294
1.15498e-05
0.000204394
1.15922e-05
0.000201484
1.16324e-05
0.000198564
1.16703e-05
0.000195636
1.1706e-05
0.000192699
1.17397e-05
0.000189755
1.17714e-05
0.000186803
1.18011e-05
0.000183844
1.1829e-05
0.000180879
1.18551e-05
0.000177907
1.18795e-05
0.00017493
1.19022e-05
0.000171948
1.19234e-05
0.000168961
1.1943e-05
0.00016597
1.19611e-05
0.000162974
1.19779e-05
0.000159975
1.19933e-05
0.000156972
1.20074e-05
0.000153966
1.20204e-05
0.000150957
1.20321e-05
0.000147945
1.20428e-05
0.000144931
1.20524e-05
0.000141915
1.2061e-05
0.000138897
1.20687e-05
0.000135877
1.20755e-05
0.000132856
1.20814e-05
0.000129834
1.20866e-05
0.00012681
1.2091e-05
0.000123786
1.20947e-05
0.000120761
1.20977e-05
0.000117736
1.21002e-05
0.00011471
1.2102e-05
0.000111683
1.21033e-05
0.000108657
1.21042e-05
0.00010563
1.21046e-05
0.000102604
1.21045e-05
9.95776e-05
1.21041e-05
9.65515e-05
1.21033e-05
9.35257e-05
1.21022e-05
9.05002e-05
1.21009e-05
8.74752e-05
1.20993e-05
8.44507e-05
1.20974e-05
8.14266e-05
1.20954e-05
7.84032e-05
1.20932e-05
7.53804e-05
1.20909e-05
7.23582e-05
1.20884e-05
6.93366e-05
1.20859e-05
6.63157e-05
1.20833e-05
6.32955e-05
1.20807e-05
6.0276e-05
1.2078e-05
5.72572e-05
1.20753e-05
5.4239e-05
1.20727e-05
5.12215e-05
1.20701e-05
4.82047e-05
1.20675e-05
4.51885e-05
1.2065e-05
4.21729e-05
1.20626e-05
3.91579e-05
1.20603e-05
3.61435e-05
1.20581e-05
3.31296e-05
1.20561e-05
3.01162e-05
1.20541e-05
2.71032e-05
1.20523e-05
2.40906e-05
1.20507e-05
2.10785e-05
1.20492e-05
1.80666e-05
1.20479e-05
1.50551e-05
1.20468e-05
1.20438e-05
1.20458e-05
9.03266e-06
1.20451e-05
6.02169e-06
1.20445e-05
3.01082e-06
1.20441e-05
1.20439e-05
3.71706e-06
-1.85864e-05
7.43417e-06
-1.85866e-05
1.11514e-05
-1.8587e-05
1.48687e-05
-1.85876e-05
1.85862e-05
-1.85884e-05
2.2304e-05
-1.85894e-05
2.60219e-05
-1.85905e-05
2.97402e-05
-1.85917e-05
3.34588e-05
-1.8593e-05
3.71777e-05
-1.85944e-05
4.08969e-05
-1.85958e-05
4.46164e-05
-1.85972e-05
4.83363e-05
-1.85985e-05
5.20564e-05
-1.85997e-05
5.57769e-05
-1.86008e-05
5.94976e-05
-1.86016e-05
6.32184e-05
-1.86022e-05
6.69394e-05
-1.86023e-05
7.06605e-05
-1.86021e-05
7.43815e-05
-1.86014e-05
7.81023e-05
-1.86001e-05
8.18228e-05
-1.85982e-05
8.5543e-05
-1.85956e-05
8.92625e-05
-1.85921e-05
9.29813e-05
-1.85877e-05
9.66991e-05
-1.85823e-05
0.000100416
-1.85758e-05
0.000104131
-1.85681e-05
0.000107845
-1.85591e-05
0.000111556
-1.85486e-05
0.000115265
-1.85366e-05
0.000118972
-1.85229e-05
0.000122676
-1.85075e-05
0.000126377
-1.84901e-05
0.000130073
-1.84707e-05
0.000133766
-1.84491e-05
0.000137454
-1.84252e-05
0.000141137
-1.83989e-05
0.000144814
-1.837e-05
0.000148485
-1.83384e-05
0.00015215
-1.83039e-05
0.000155807
-1.82665e-05
0.000159456
-1.82259e-05
0.000163096
-1.81819e-05
0.000166728
-1.81346e-05
0.000170349
-1.80836e-05
0.000173959
-1.80289e-05
0.000177558
-1.79703e-05
0.000181145
-1.79077e-05
0.000184718
-1.78408e-05
0.000188278
-1.77696e-05
0.000191822
-1.76939e-05
0.00019535
-1.76136e-05
0.000198862
-1.75284e-05
0.000202356
-1.74383e-05
0.000205831
-1.73431e-05
0.000209286
-1.72427e-05
0.00021272
-1.7137e-05
0.000216132
-1.70257e-05
0.00021952
-1.69088e-05
0.000222884
-1.67862e-05
0.000226223
-1.66577e-05
0.000229535
-1.65232e-05
0.000232819
-1.63827e-05
0.000236074
-1.62359e-05
0.000239298
-1.60829e-05
0.00024249
-1.59235e-05
0.00024565
-1.57576e-05
0.000248775
-1.55852e-05
0.000251864
-1.54062e-05
0.000254916
-1.52205e-05
0.00025793
-1.50282e-05
0.000260904
-1.48291e-05
0.000263836
-1.46232e-05
0.000266727
-1.44106e-05
0.000269573
-1.41912e-05
0.000272374
-1.39649e-05
0.000275129
-1.3732e-05
0.000277835
-1.34922e-05
0.000280492
-1.32458e-05
0.000283099
-1.29927e-05
0.000285653
-1.2733e-05
0.000288154
-1.24667e-05
0.0002906
-1.21941e-05
0.000292991
-1.1915e-05
0.000295324
-1.16298e-05
0.000297599
-1.13384e-05
0.000299814
-1.1041e-05
0.000301969
-1.07377e-05
0.000304061
-1.04288e-05
0.00030609
-1.01143e-05
0.000308055
-9.79442e-06
0.000309955
-9.46939e-06
0.000311789
-9.13939e-06
0.000313555
-8.80461e-06
0.000315253
-8.46528e-06
0.000316883
-8.12161e-06
0.000318442
-7.77383e-06
0.000319931
-7.4222e-06
0.000321348
-7.06695e-06
0.000322694
-6.70834e-06
0.000323966
-6.34663e-06
0.000325166
-5.9821e-06
0.000326291
-5.615e-06
0.000327343
-5.24562e-06
0.00032832
-4.87423e-06
0.000329222
-4.50113e-06
0.000330049
-4.1266e-06
0.0003308
-3.75091e-06
0.000331475
-3.37437e-06
0.000332075
-2.99726e-06
0.000332599
-2.61986e-06
0.000333047
-2.24247e-06
0.00033342
-1.86536e-06
0.000333716
-1.48883e-06
0.000333938
-1.11315e-06
0.000334084
-7.38595e-07
0.000334155
-3.65439e-07
0.000334151
6.05452e-09
0.000334074
3.75614e-07
0.000333922
7.42992e-07
0.000333697
1.10794e-06
0.0003334
1.47021e-06
0.00033303
1.82956e-06
0.000332589
2.18578e-06
0.000332077
2.53864e-06
0.000331495
2.88792e-06
0.000330844
3.23343e-06
0.000330124
3.57496e-06
0.000329336
3.91235e-06
0.000328482
4.2454e-06
0.000327561
4.57395e-06
0.000326576
4.89785e-06
0.000325527
5.21695e-06
0.000324414
5.53111e-06
0.00032324
5.8402e-06
0.000322005
6.14411e-06
0.00032071
6.44272e-06
0.000319356
6.73595e-06
0.000317945
7.02369e-06
0.000316477
7.30587e-06
0.000314954
7.58243e-06
0.000313376
7.85329e-06
0.000311746
8.11841e-06
0.000310063
8.37774e-06
0.00030833
8.63126e-06
0.000306547
8.87893e-06
0.000304716
9.12074e-06
0.000302838
9.35668e-06
0.000300913
9.58674e-06
0.000298944
9.81094e-06
0.000296931
1.00293e-05
0.000294876
1.02418e-05
0.000292779
1.04485e-05
0.000290643
1.06494e-05
0.000288467
1.08446e-05
0.000286253
1.10341e-05
0.000284003
1.12179e-05
0.000281717
1.13961e-05
0.000279397
1.15688e-05
0.000277043
1.17361e-05
0.000274657
1.18979e-05
0.00027224
1.20544e-05
0.000269793
1.22057e-05
0.000267316
1.23518e-05
0.000264812
1.24928e-05
0.00026228
1.26288e-05
0.000259722
1.27598e-05
0.000257139
1.28861e-05
0.000254532
1.30075e-05
0.000251902
1.31244e-05
0.000249249
1.32367e-05
0.000246575
1.33445e-05
0.00024388
1.3448e-05
0.000241166
1.35472e-05
0.000238432
1.36422e-05
0.000235681
1.37332e-05