/*--------------------------------*- C++ -*----------------------------------*\
| =========                 |                                                 |
| \\      /  F ield         | OpenFOAM: The Open Source CFD Toolbox           |
|  \\    /   O peration     | Version:  v2012                                 |
|   \\  /    A nd           | Website:  www.openfoam.com                      |
|    \\/     M anipulation  |                                                 |
\*---------------------------------------------------------------------------*/
FoamFile
{
    version     2.0;
    format      ascii;
    class       volScalarField;
    location    "9";
    object      Psi_z;
}
// * * * * * * * * * * * * * * * * * * * * * * * * * * * * * * * * * * * * * //

dimensions      [0 2 -1 0 0 0 0];


internalField   nonuniform List<scalar> 
65536
(
9.29471e-06
2.78842e-05
4.6474e-05
6.50642e-05
8.36551e-05
0.000102247
0.00012084
0.000139433
0.000158028
0.000176624
0.000195221
0.00021382
0.000232419
0.00025102
0.000269622
0.000288224
0.000306827
0.000325429
0.000344032
0.000362633
0.000381233
0.000399832
0.000418427
0.000437019
0.000455607
0.00047419
0.000492766
0.000511334
0.000529894
0.000548443
0.000566981
0.000585505
0.000604014
0.000622506
0.000640979
0.000659431
0.00067786
0.000696263
0.000714637
0.000732981
0.000751291
0.000769565
0.000787798
0.000805989
0.000824134
0.000842228
0.000860269
0.000878253
0.000896175
0.000914032
0.000931819
0.000949532
0.000967166
0.000984717
0.00100218
0.00101955
0.00103682
0.00105399
0.00107104
0.00108799
0.00110481
0.00112151
0.00113807
0.0011545
0.00117078
0.00118691
0.00120289
0.0012187
0.00123434
0.00124981
0.00126509
0.00128019
0.00129509
0.00130978
0.00132427
0.00133854
0.00135259
0.00136641
0.00137999
0.00139333
0.00140642
0.00141925
0.00143182
0.00144412
0.00145615
0.00146789
0.00147935
0.00149051
0.00150137
0.00151193
0.00152218
0.00153211
0.00154171
0.001551
0.00155995
0.00156856
0.00157683
0.00158476
0.00159234
0.00159957
0.00160644
0.00161296
0.00161911
0.00162489
0.00163031
0.00163536
0.00164004
0.00164435
0.00164828
0.00165184
0.00165502
0.00165783
0.00166026
0.00166232
0.001664
0.0016653
0.00166623
0.00166679
0.00166698
0.00166679
0.00166624
0.00166533
0.00166405
0.00166241
0.00166042
0.00165807
0.00165538
0.00165233
0.00164894
0.00164522
0.00164116
0.00163677
0.00163205
0.00162702
0.00162166
0.001616
0.00161003
0.00160376
0.0015972
0.00159034
0.0015832
0.00157578
0.00156809
0.00156013
0.0015519
0.00154342
0.00153469
0.00152572
0.00151651
0.00150706
0.00149739
0.00148749
0.00147738
0.00146706
0.00145654
0.00144582
0.0014349
0.0014238
0.00141252
0.00140106
0.00138943
0.00137763
0.00136568
0.00135357
0.00134132
0.00132892
0.00131638
0.0013037
0.0012909
0.00127797
0.00126493
0.00125176
0.00123849
0.00122512
0.00121164
0.00119806
0.00118439
0.00117063
0.00115678
0.00114285
0.00112885
0.00111477
0.00110062
0.0010864
0.00107212
0.00105777
0.00104337
0.00102892
0.00101441
0.000999851
0.000985248
0.000970601
0.000955913
0.000941187
0.000926424
0.000911627
0.000896798
0.00088194
0.000867054
0.000852142
0.000837207
0.000822249
0.000807271
0.000792275
0.000777261
0.000762232
0.000747188
0.000732132
0.000717064
0.000701986
0.000686898
0.000671803
0.0006567
0.000641591
0.000626477
0.000611358
0.000596236
0.000581112
0.000565985
0.000550856
0.000535727
0.000520597
0.000505468
0.000490339
0.000475211
0.000460085
0.00044496
0.000429837
0.000414717
0.0003996
0.000384485
0.000369372
0.000354263
0.000339158
0.000324055
0.000308955
0.000293859
0.000278766
0.000263676
0.00024859
0.000233506
0.000218426
0.000203348
0.000188274
0.000173201
0.000158132
0.000143064
0.000127999
0.000112936
9.78741e-05
8.2814e-05
6.77551e-05
5.26973e-05
3.76404e-05
2.2584e-05
7.52795e-06
2.78841e-05
8.36524e-05
0.000139422
0.000195192
0.000250965
0.00030674
0.000362518
0.000418299
0.000474083
0.000529871
0.000585663
0.000641459
0.000697258
0.00075306
0.000808865
0.000864672
0.00092048
0.000976288
0.0010321
0.0010879
0.0011437
0.0011995
0.00125529
0.00131106
0.00136683
0.00142258
0.00147831
0.00153401
0.00158969
0.00164534
0.00170096
0.00175653
0.00181206
0.00186754
0.00192296
0.00197832
0.00203361
0.00208882
0.00214394
0.00219898
0.00225391
0.00230873
0.00236344
0.00241801
0.00247245
0.00252674
0.00258087
0.00263482
0.00268859
0.00274217
0.00279553
0.00284868
0.00290158
0.00295424
0.00300663
0.00305875
0.00311056
0.00316207
0.00321325
0.00326408
0.00331456
0.00336465
0.00341435
0.00346364
0.00351249
0.00356089
0.00360882
0.00365627
0.0037032
0.00374961
0.00379547
0.00384076
0.00388546
0.00392956
0.00397302
0.00401584
0.00405799
0.00409945
0.0041402
0.00418023
0.0042195
0.00425801
0.00429573
0.00433264
0.00436872
0.00440396
0.00443833
0.00447183
0.00450442
0.0045361
0.00456684
0.00459664
0.00462547
0.00465332
0.00468017
0.00470602
0.00473084
0.00475463
0.00477738
0.00479907
0.00481969
0.00483923
0.00485768
0.00487505
0.00489131
0.00490646
0.0049205
0.00493342
0.00494522
0.0049559
0.00496545
0.00497387
0.00498116
0.00498733
0.00499236
0.00499628
0.00499907
0.00500074
0.0050013
0.00500075
0.0049991
0.00499635
0.00499251
0.0049876
0.00498161
0.00497457
0.00496647
0.00495734
0.00494717
0.00493599
0.00492381
0.00491063
0.00489648
0.00488137
0.00486531
0.00484831
0.0048304
0.00481158
0.00479188
0.0047713
0.00474988
0.00472761
0.00470453
0.00468064
0.00465597
0.00463052
0.00460433
0.0045774
0.00454975
0.00452141
0.00449238
0.00446269
0.00443235
0.00440139
0.00436981
0.00433764
0.00430489
0.00427158
0.00423772
0.00420334
0.00416845
0.00413306
0.00409719
0.00406087
0.00402409
0.00398688
0.00394926
0.00391123
0.00387282
0.00383404
0.00379489
0.0037554
0.00371558
0.00367545
0.003635
0.00359427
0.00355325
0.00351197
0.00347043
0.00342864
0.00338662
0.00334438
0.00330192
0.00325926
0.00321641
0.00317338
0.00313017
0.0030868
0.00304327
0.0029996
0.00295579
0.00291185
0.00286778
0.0028236
0.00277931
0.00273491
0.00269042
0.00264585
0.00260119
0.00255645
0.00251164
0.00246677
0.00242183
0.00237684
0.0023318
0.00228671
0.00224158
0.00219641
0.0021512
0.00210597
0.0020607
0.00201541
0.00197011
0.00192478
0.00187944
0.00183408
0.00178871
0.00174334
0.00169796
0.00165257
0.00160718
0.00156179
0.0015164
0.00147102
0.00142563
0.00138025
0.00133488
0.00128951
0.00124415
0.0011988
0.00115345
0.00110811
0.00106279
0.00101747
0.000972161
0.000926863
0.000881574
0.000836295
0.000791026
0.000745767
0.000700516
0.000655275
0.000610043
0.000564818
0.000519602
0.000474393
0.000429191
0.000383995
0.000338806
0.000293621
0.000248441
0.000203264
0.000158091
0.00011292
6.77516e-05
2.25837e-05
4.64732e-05
0.00013942
0.000232368
0.000325319
0.000418272
0.00051123
0.000604193
0.000697161
0.000790135
0.000883115
0.000976102
0.00106909
0.00116209
0.0012551
0.00134811
0.00144112
0.00153413
0.00162715
0.00172016
0.00181317
0.00190618
0.00199917
0.00209216
0.00218512
0.00227806
0.00237098
0.00246387
0.00255672
0.00264952
0.00274228
0.00283497
0.0029276
0.00302016
0.00311263
0.003205
0.00329727
0.00338943
0.00348146
0.00357334
0.00366508
0.00375664
0.00384802
0.00393921
0.00403018
0.00412092
0.00421141
0.00430164
0.00439157
0.00448121
0.00457051
0.00465947
0.00474806
0.00483625
0.00492403
0.00501137
0.00509824
0.00518462
0.00527048
0.0053558
0.00544054
0.00552468
0.0056082
0.00569105
0.00577321
0.00585465
0.00593535
0.00601525
0.00609435
0.00617259
0.00624996
0.00632641
0.00640192
0.00647645
0.00654996
0.00662243
0.00669381
0.00676409
0.00683321
0.00690115
0.00696788
0.00703336
0.00709756
0.00716044
0.00722198
0.00728214
0.00734089
0.0073982
0.00745405
0.00750839
0.0075612
0.00761246
0.00766214
0.0077102
0.00775664
0.00780141
0.0078445
0.00788589
0.00792556
0.00796348
0.00799963
0.00803401
0.00806659
0.00809736
0.0081263
0.00815341
0.00817868
0.00820208
0.00822362
0.00824329
0.00826109
0.00827701
0.00829104
0.00830319
0.00831347
0.00832186
0.00832838
0.00833302
0.00833581
0.00833673
0.00833581
0.00833305
0.00832846
0.00832206
0.00831386
0.00830387
0.00829212
0.00827861
0.00826337
0.00824642
0.00822777
0.00820745
0.00818548
0.00816188
0.00813667
0.00810988
0.00808154
0.00805167
0.00802029
0.00798743
0.00795313
0.0079174
0.00788027
0.00784178
0.00780194
0.0077608
0.00771838
0.0076747
0.0076298
0.0075837
0.00753644
0.00748804
0.00743854
0.00738796
0.00733633
0.00728368
0.00723004
0.00717544
0.0071199
0.00706346
0.00700614
0.00694797
0.00688897
0.00682918
0.00676861
0.0067073
0.00664527
0.00658255
0.00651916
0.00645512
0.00639046
0.00632521
0.00625938
0.006193
0.00612609
0.00605867
0.00599076
0.00592239
0.00585357
0.00578432
0.00571466
0.00564462
0.0055742
0.00550343
0.00543232
0.00536089
0.00528916
0.00521714
0.00514484
0.00507229
0.00499949
0.00492646
0.00485322
0.00477976
0.00470612
0.00463229
0.0045583
0.00448414
0.00440984
0.0043354
0.00426083
0.00418615
0.00411135
0.00403645
0.00396146
0.00388639
0.00381123
0.00373601
0.00366072
0.00358537
0.00350998
0.00343453
0.00335905
0.00328353
0.00320798
0.00313241
0.00305681
0.0029812
0.00290557
0.00282993
0.00275429
0.00267864
0.00260299
0.00252734
0.00245169
0.00237605
0.00230042
0.00222479
0.00214918
0.00207358
0.00199799
0.00192241
0.00184685
0.0017713
0.00169577
0.00162026
0.00154476
0.00146928
0.00139382
0.00131837
0.00124293
0.00116752
0.00109212
0.00101673
0.000941356
0.000865996
0.000790648
0.000715312
0.000639987
0.000564671
0.000489363
0.000414064
0.000338771
0.000263483
0.000188199
0.000112918
3.76392e-05
6.50618e-05
0.000195186
0.000325312
0.000455442
0.000585576
0.000715716
0.000845863
0.000976018
0.00110618
0.00123635
0.00136653
0.00149673
0.00162692
0.00175713
0.00188734
0.00201756
0.00214779
0.00227801
0.00240824
0.00253845
0.00266866
0.00279886
0.00292904
0.0030592
0.00318933
0.00331942
0.00344947
0.00357947
0.0037094
0.00383927
0.00396906
0.00409875
0.00422834
0.00435781
0.00448715
0.00461635
0.00474538
0.00487424
0.0050029
0.00513135
0.00525956
0.00538751
0.0055152
0.00564258
0.00576964
0.00589635
0.00602269
0.00614864
0.00627415
0.00639921
0.00652378
0.00664784
0.00677134
0.00689426
0.00701657
0.00713823
0.0072592
0.00737944
0.00749892
0.0076176
0.00773544
0.0078524
0.00796844
0.00808351
0.00819757
0.00831058
0.0084225
0.00853328
0.00864287
0.00875123
0.00885831
0.00896406
0.00906845
0.00917141
0.00927292
0.0093729
0.00947133
0.00956815
0.00966332
0.00975679
0.0098485
0.00993843
0.0100265
0.0101127
0.010197
0.0102793
0.0103596
0.0104378
0.0105139
0.0105879
0.0106597
0.0107293
0.0107966
0.0108616
0.0109243
0.0109847
0.0110427
0.0110982
0.0111513
0.011202
0.0112501
0.0112958
0.0113389
0.0113794
0.0114174
0.0114528
0.0114855
0.0115157
0.0115432
0.0115682
0.0115904
0.0116101
0.0116271
0.0116415
0.0116532
0.0116624
0.0116689
0.0116727
0.011674
0.0116727
0.0116688
0.0116624
0.0116534
0.0116419
0.0116279
0.0116114
0.0115925
0.0115711
0.0115474
0.0115212
0.0114927
0.011462
0.0114289
0.0113936
0.011356
0.0113163
0.0112744
0.0112305
0.0111844
0.0111364
0.0110863
0.0110343
0.0109804
0.0109246
0.0108669
0.0108075
0.0107463
0.0106834
0.0106188
0.0105526
0.0104848
0.0104155
0.0103446
0.0102723
0.0101986
0.0101234
0.0100469
0.00996914
0.00989008
0.00980979
0.00972831
0.00964568
0.00956193
0.00947711
0.00939124
0.00930436
0.00921652
0.00912773
0.00903805
0.0089475
0.00885611
0.00876391
0.00867095
0.00857724
0.00848283
0.00838773
0.00829198
0.0081956
0.00809862
0.00800108
0.00790299
0.00780438
0.00770528
0.0076057
0.00750568
0.00740524
0.00730438
0.00720315
0.00710156
0.00699962
0.00689736
0.0067948
0.00669195
0.00658883
0.00648545
0.00638184
0.00627801
0.00617398
0.00606975
0.00596534
0.00586077
0.00575604
0.00565117
0.00554617
0.00544106
0.00533583
0.00523051
0.0051251
0.0050196
0.00491404
0.00480841
0.00470273
0.00459699
0.00449122
0.00438541
0.00427957
0.0041737
0.00406782
0.00396192
0.00385601
0.0037501
0.00364419
0.00353827
0.00343236
0.00332646
0.00322057
0.0031147
0.00300884
0.00290299
0.00279716
0.00269136
0.00258557
0.00247981
0.00237406
0.00226834
0.00216265
0.00205697
0.00195132
0.00184569
0.00174009
0.00163451
0.00152894
0.0014234
0.00131788
0.00121238
0.00110689
0.00100142
0.000895969
0.000790528
0.000685099
0.000579681
0.000474272
0.00036887
0.000263475
0.000158083
5.26941e-05
8.36498e-05
0.00025095
0.000418253
0.000585561
0.000752875
0.000920196
0.00108753
0.00125487
0.00142222
0.00158958
0.00175696
0.00192435
0.00209175
0.00225916
0.00242658
0.00259401
0.00276144
0.00292888
0.00309631
0.00326374
0.00343117
0.00359857
0.00376596
0.00393331
0.00410063
0.00426791
0.00443513
0.00460228
0.00476936
0.00493635
0.00510324
0.00527001
0.00543664
0.00560313
0.00576945
0.00593559
0.00610152
0.00626722
0.00643267
0.00659785
0.00676273
0.00692728
0.00709149
0.0072553
0.00741871
0.00758167
0.00774416
0.00790613
0.00806755
0.00822839
0.00838861
0.00854817
0.00870702
0.00886512
0.00902243
0.00917891
0.0093345
0.00948917
0.00964286
0.00979551
0.00994709
0.0100975
0.0102468
0.0103948
0.0105415
0.0106869
0.0108309
0.0109734
0.0111144
0.0112538
0.0113915
0.0115276
0.0116619
0.0117943
0.0119249
0.0120536
0.0121802
0.0123048
0.0124272
0.0125474
0.0126654
0.0127811
0.0128945
0.0130054
0.0131138
0.0132197
0.013323
0.0134236
0.0135215
0.0136167
0.0137091
0.0137986
0.0138853
0.0139689
0.0140496
0.0141273
0.0142019
0.0142734
0.0143417
0.0144068
0.0144688
0.0145275
0.0145829
0.0146351
0.0146839
0.0147294
0.0147716
0.0148104
0.0148458
0.0148779
0.0149065
0.0149318
0.0149537
0.0149722
0.0149873
0.014999
0.0150073
0.0150123
0.0150139
0.0150122
0.0150072
0.0149989
0.0149873
0.0149725
0.0149544
0.0149332
0.0149088
0.0148813
0.0148507
0.014817
0.0147804
0.0147407
0.0146981
0.0146527
0.0146044
0.0145532
0.0144993
0.0144428
0.0143835
0.0143216
0.0142572
0.0141903
0.0141209
0.014049
0.0139749
0.0138984
0.0138196
0.0137387
0.0136556
0.0135704
0.0134832
0.0133939
0.0133028
0.0132097
0.0131148
0.0130181
0.0129197
0.0128197
0.0127179
0.0126147
0.0125098
0.0124035
0.0122958
0.0121867
0.0120762
0.0119644
0.0118514
0.0117372
0.0116219
0.0115054
0.0113878
0.0112692
0.0111496
0.0110291
0.0109077
0.0107854
0.0106622
0.0105382
0.0104135
0.0102881
0.0101619
0.0100351
0.00990761
0.00977955
0.00965091
0.00952172
0.00939202
0.00926183
0.00913117
0.00900008
0.00886857
0.00873667
0.0086044
0.00847179
0.00833886
0.00820562
0.0080721
0.00793831
0.00780428
0.00767002
0.00753554
0.00740087
0.00726602
0.00713101
0.00699584
0.00686053
0.0067251
0.00658956
0.00645391
0.00631817
0.00618235
0.00604646
0.0059105
0.00577449
0.00563844
0.00550235
0.00536623
0.00523009
0.00509392
0.00495775
0.00482157
0.00468539
0.00454921
0.00441303
0.00427687
0.00414072
0.00400459
0.00386848
0.00373239
0.00359633
0.00346029
0.00332427
0.00318829
0.00305233
0.00291641
0.00278051
0.00264464
0.00250881
0.002373
0.00223722
0.00210147
0.00196575
0.00183006
0.00169439
0.00155874
0.00142312
0.00128752
0.00115194
0.00101637
0.000880825
0.00074529
0.000609766
0.000474253
0.000338746
0.000203246
6.77482e-05
0.000102237
0.000306712
0.00051119
0.000715674
0.000920166
0.00112467
0.00132918
0.00153371
0.00173825
0.0019428
0.00214737
0.00235196
0.00255656
0.00276118
0.00296581
0.00317045
0.00337509
0.00357975
0.0037844
0.00398905
0.00419368
0.0043983
0.0046029
0.00480746
0.00501198
0.00521645
0.00542085
0.00562517
0.00582941
0.00603353
0.00623753
0.0064414
0.0066451
0.00684862
0.00705194
0.00725504
0.00745788
0.00766046
0.00786272
0.00806466
0.00826623
0.00846741
0.00866816
0.00886845
0.00906823
0.00926747
0.00946613
0.00966417
0.00986155
0.0100582
0.0102541
0.0104492
0.0106434
0.0108368
0.0110291
0.0112205
0.0114107
0.0115999
0.0117878
0.0119745
0.0121599
0.0123439
0.0125264
0.0127074
0.0128869
0.0130647
0.0132408
0.0134151
0.0135875
0.013758
0.0139265
0.0140929
0.0142571
0.0144192
0.0145789
0.0147362
0.0148911
0.0150435
0.0151933
0.0153404
0.0154847
0.0156262
0.0157649
0.0159005
0.0160332
0.0161627
0.016289
0.0164121
0.016532
0.0166484
0.0167614
0.0168709
0.0169769
0.0170792
0.017178
0.017273
0.0173642
0.0174516
0.0175352
0.0176149
0.0176907
0.0177625
0.0178303
0.0178941
0.0179538
0.0180095
0.018061
0.0181085
0.0181518
0.018191
0.018226
0.0182569
0.0182836
0.0183062
0.0183247
0.018339
0.0183491
0.0183552
0.0183571
0.018355
0.0183488
0.0183386
0.0183244
0.0183063
0.0182841
0.0182581
0.0182283
0.0181946
0.0181571
0.0181159
0.018071
0.0180224
0.0179703
0.0179146
0.0178555
0.0177929
0.017727
0.0176577
0.0175852
0.0175095
0.0174306
0.0173487
0.0172638
0.0171759
0.0170851
0.0169915
0.0168952
0.0167961
0.0166945
0.0165902
0.0164835
0.0163743
0.0162628
0.016149
0.0160329
0.0159146
0.0157942
0.0156718
0.0155474
0.015421
0.0152928
0.0151628
0.015031
0.0148976
0.0147624
0.0146258
0.0144876
0.0143479
0.0142068
0.0140643
0.0139206
0.0137755
0.0136293
0.0134819
0.0133334
0.0131838
0.0130332
0.0128817
0.0127291
0.0125757
0.0124215
0.0122664
0.0121106
0.011954
0.0117967
0.0116387
0.0114802
0.011321
0.0111612
0.011001
0.0108402
0.0106789
0.0105172
0.0103551
0.0101926
0.0100297
0.00986646
0.0097029
0.00953905
0.00937492
0.00921053
0.0090459
0.00888105
0.008716
0.00855077
0.00838537
0.00821982
0.00805413
0.00788831
0.00772239
0.00755636
0.00739025
0.00722407
0.00705782
0.00689152
0.00672517
0.00655879
0.00639238
0.00622594
0.0060595
0.00589304
0.00572659
0.00556014
0.0053937
0.00522727
0.00506086
0.00489447
0.00472811
0.00456177
0.00439547
0.00422919
0.00406295
0.00389675
0.00373058
0.00356444
0.00339835
0.00323229
0.00306627
0.00290028
0.00273433
0.00256842
0.00240254
0.00223669
0.00207088
0.00190509
0.00173933
0.0015736
0.00140789
0.0012422
0.00107654
0.000910887
0.000745252
0.000579628
0.000414013
0.000248405
8.28013e-05
0.000120823
0.00036247
0.000604122
0.00084578
0.00108745
0.00132913
0.00157082
0.00181253
0.00205426
0.00229601
0.00253777
0.00277956
0.00302136
0.00326319
0.00350503
0.00374688
0.00398875
0.00423062
0.00447249
0.00471436
0.00495622
0.00519806
0.00543988
0.00568166
0.00592339
0.00616506
0.00640665
0.00664816
0.00688956
0.00713084
0.00737198
0.00761295
0.00785374
0.00809432
0.00833466
0.00857474
0.00881453
0.009054
0.00929311
0.00953184
0.00977014
0.010008
0.0102453
0.0104821
0.0107183
0.0109539
0.0111887
0.0114229
0.0116563
0.0118888
0.0121204
0.0123511
0.0125808
0.0128094
0.0130369
0.0132631
0.0134881
0.0137118
0.013934
0.0141548
0.0143741
0.0145916
0.0148075
0.0150216
0.0152339
0.0154442
0.0156524
0.0158586
0.0160625
0.0162642
0.0164635
0.0166603
0.0168546
0.0170463
0.0172352
0.0174214
0.0176046
0.0177849
0.017962
0.018136
0.0183068
0.0184742
0.0186382
0.0187987
0.0189556
0.0191089
0.0192584
0.019404
0.0195457
0.0196835
0.0198172
0.0199468
0.0200721
0.0201932
0.02031
0.0204224
0.0205303
0.0206338
0.0207327
0.0208269
0.0209166
0.0210015
0.0210817
0.0211572
0.0212278
0.0212936
0.0213546
0.0214107
0.0214619
0.0215083
0.0215497
0.0215862
0.0216178
0.0216445
0.0216662
0.0216831
0.0216951
0.0217022
0.0217045
0.0217019
0.0216945
0.0216824
0.0216656
0.021644
0.0216178
0.021587
0.0215516
0.0215116
0.0214672
0.0214184
0.0213652
0.0213078
0.021246
0.0211801
0.0211101
0.021036
0.0209579
0.0208759
0.0207901
0.0207004
0.0206071
0.0205101
0.0204096
0.0203056
0.0201982
0.0200874
0.0199734
0.0198562
0.0197359
0.0196126
0.0194863
0.0193571
0.0192252
0.0190905
0.0189531
0.0188132
0.0186708
0.018526
0.0183788
0.0182293
0.0180777
0.0179238
0.017768
0.0176101
0.0174503
0.0172886
0.0171252
0.01696
0.0167931
0.0166246
0.0164546
0.0162831
0.0161101
0.0159358
0.0157602
0.0155833
0.0154053
0.015226
0.0150457
0.0148643
0.0146819
0.0144985
0.0143142
0.0141291
0.0139431
0.0137564
0.0135689
0.0133807
0.0131918
0.0130024
0.0128123
0.0126216
0.0124305
0.0122388
0.0120467
0.0118541
0.0116611
0.0114678
0.0112741
0.0110801
0.0108858
0.0106912
0.0104963
0.0103012
0.0101059
0.00991037
0.00971468
0.00951883
0.00932284
0.00912671
0.00893047
0.00873414
0.00853771
0.00834121
0.00814465
0.00794804
0.00775138
0.0075547
0.00735798
0.00716126
0.00696453
0.00676779
0.00657107
0.00637435
0.00617766
0.00598098
0.00578433
0.00558771
0.00539113
0.00519458
0.00499807
0.0048016
0.00460517
0.00440879
0.00421245
0.00401615
0.0038199
0.00362369
0.00342753
0.00323141
0.00303533
0.00283929
0.00264329
0.00244733
0.00225141
0.00205552
0.00185966
0.00166382
0.00146802
0.00127223
0.00107647
0.000880726
0.000684994
0.000489274
0.000293561
9.78531e-05
0.000139408
0.000418225
0.000697047
0.000975878
0.00125472
0.00153358
0.00181245
0.00209134
0.00237026
0.0026492
0.00292816
0.00320714
0.00348615
0.00376518
0.00404423
0.00432331
0.00460239
0.00488149
0.00516059
0.00543969
0.00571878
0.00599785
0.0062769
0.0065559
0.00683486
0.00711374
0.00739255
0.00767126
0.00794985
0.0082283
0.00850659
0.00878469
0.00906259
0.00934025
0.00961764
0.00989474
0.0101715
0.0104479
0.0107239
0.0109994
0.0112745
0.011549
0.011823
0.0120963
0.012369
0.0126409
0.0129121
0.0131824
0.0134518
0.0137203
0.0139877
0.014254
0.0145192
0.0147832
0.0150458
0.0153071
0.0155669
0.0158251
0.0160818
0.0163367
0.0165899
0.0168411
0.0170905
0.0173377
0.0175828
0.0178257
0.0180662
0.0183043
0.0185399
0.0187728
0.019003
0.0192303
0.0194548
0.0196761
0.0198944
0.0201094
0.0203211
0.0205293
0.020734
0.020935
0.0211322
0.0213257
0.0215151
0.0217005
0.0218818
0.0220588
0.0222315
0.0223998
0.0225635
0.0227227
0.0228771
0.0230268
0.0231716
0.0233116
0.0234465
0.0235763
0.023701
0.0238205
0.0239347
0.0240436
0.0241471
0.0242453
0.0243379
0.024425
0.0245066
0.0245826
0.0246531
0.0247178
0.024777
0.0248305
0.0248783
0.0249204
0.0249568
0.0249876
0.0250127
0.0250321
0.0250459
0.0250541
0.0250566
0.0250536
0.025045
0.0250309
0.0250114
0.0249864
0.0249561
0.0249204
0.0248794
0.0248332
0.0247818
0.0247253
0.0246638
0.0245973
0.0245259
0.0244497
0.0243687
0.0242831
0.0241928
0.024098
0.0239988
0.0238951
0.0237873
0.0236752
0.023559
0.0234388
0.0233146
0.0231866
0.0230548
0.0229194
0.0227804
0.0226379
0.022492
0.0223427
0.0221902
0.0220346
0.021876
0.0217143
0.0215498
0.0213825
0.0212125
0.0210398
0.0208646
0.020687
0.0205069
0.0203246
0.02014
0.0199533
0.0197645
0.0195737
0.019381
0.0191865
0.0189901
0.0187921
0.0185924
0.0183911
0.0181883
0.0179841
0.0177784
0.0175715
0.0173633
0.0171538
0.0169433
0.0167316
0.0165188
0.0163051
0.0160904
0.0158748
0.0156584
0.0154411
0.0152231
0.0150044
0.0147849
0.0145649
0.0143442
0.014123
0.0139012
0.013679
0.0134562
0.0132331
0.0130095
0.0127856
0.0125613
0.0123367
0.0121118
0.0118866
0.0116612
0.0114356
0.0112097
0.0109837
0.0107575
0.0105312
0.0103047
0.0100781
0.00985144
0.00962468
0.00939784
0.00917095
0.00894402
0.00871705
0.00849005
0.00826304
0.00803602
0.007809
0.00758199
0.007355
0.00712803
0.00690108
0.00667417
0.00644729
0.00622046
0.00599366
0.00576691
0.00554021
0.00531356
0.00508696
0.00486041
0.00463391
0.00440747
0.00418108
0.00395474
0.00372845
0.0035022
0.00327601
0.00304986
0.00282376
0.0025977
0.00237167
0.00214569
0.00191973
0.00169381
0.00146791
0.00124204
0.00101619
0.00079035
0.000564526
0.000338712
0.000112903
0.000157991
0.000473974
0.000789964
0.00110596
0.00142198
0.00173801
0.00205406
0.00237013
0.00268623
0.00300236
0.00331852
0.0036347
0.00395092
0.00426716
0.00458343
0.00489972
0.00521603
0.00553236
0.00584869
0.00616503
0.00648136
0.00679767
0.00711396
0.0074302
0.0077464
0.00806252
0.00837855
0.00869447
0.00901027
0.00932592
0.00964139
0.00995665
0.0102717
0.0105865
0.0109009
0.0112151
0.0115288
0.0118422
0.0121551
0.0124675
0.0127794
0.0130907
0.0134013
0.0137113
0.0140204
0.0143288
0.0146363
0.0149428
0.0152483
0.0155528
0.0158561
0.0161581
0.0164589
0.0167582
0.0170561
0.0173524
0.0176471
0.0179401
0.0182312
0.0185204
0.0188076
0.0190926
0.0193754
0.0196559
0.019934
0.0202095
0.0204824
0.0207526
0.0210198
0.0212841
0.0215453
0.0218033
0.0220579
0.0223092
0.0225568
0.0228008
0.023041
0.0232773
0.0235095
0.0237377
0.0239615
0.024181
0.0243961
0.0246065
0.0248122
0.0250131
0.0252091
0.0254001
0.0255859
0.0257666
0.0259419
0.0261117
0.0262761
0.0264349
0.026588
0.0267353
0.0268769
0.0270125
0.0271421
0.0272657
0.0273832
0.0274945
0.0275996
0.0276985
0.027791
0.0278773
0.0279572
0.0280306
0.0280977
0.0281583
0.0282125
0.0282603
0.0283016
0.0283364
0.0283648
0.0283868
0.0284024
0.0284116
0.0284144
0.0284108
0.028401
0.028385
0.0283627
0.0283342
0.0282997
0.0282591
0.0282124
0.0281599
0.0281015
0.0280373
0.0279674
0.0278918
0.0278107
0.0277241
0.0276321
0.0275348
0.0274322
0.0273245
0.0272118
0.0270941
0.0269716
0.0268443
0.0267124
0.0265759
0.0264349
0.0262896
0.02614
0.0259862
0.0258284
0.0256666
0.025501
0.0253316
0.0251585
0.0249819
0.0248018
0.0246184
0.0244316
0.0242418
0.0240488
0.0238529
0.0236541
0.0234525
0.0232482
0.0230413
0.0228319
0.0226201
0.0224059
0.0221894
0.0219708
0.0217501
0.0215274
0.0213027
0.0210762
0.0208479
0.0206179
0.0203862
0.020153
0.0199183
0.0196821
0.0194446
0.0192057
0.0189657
0.0187244
0.018482
0.0182386
0.0179941
0.0177487
0.0175023
0.0172551
0.0170071
0.0167583
0.0165087
0.0162585
0.0160077
0.0157563
0.0155043
0.0152518
0.0149987
0.0147453
0.0144914
0.0142371
0.0139825
0.0137275
0.0134723
0.0132168
0.012961
0.0127049
0.0124487
0.0121923
0.0119358
0.011679
0.0114222
0.0111653
0.0109082
0.0106511
0.0103939
0.0101367
0.00987943
0.00962214
0.00936483
0.00910752
0.00885021
0.00859291
0.00833563
0.00807838
0.00782116
0.00756398
0.00730684
0.00704975
0.0067927
0.00653571
0.00627878
0.0060219
0.00576508
0.00550833
0.00525163
0.00499499
0.00473841
0.0044819
0.00422544
0.00396904
0.00371269
0.00345639
0.00320015
0.00294395
0.0026878
0.00243169
0.00217561
0.00191958
0.00166357
0.00140759
0.00115163
0.000895694
0.00063977
0.000383858
0.000127952
0.000176572
0.000529718
0.000882872
0.00123604
0.00158922
0.00194242
0.00229565
0.0026489
0.00300218
0.0033555
0.00370885
0.00406223
0.00441565
0.00476911
0.0051226
0.00547611
0.00582965
0.00618322
0.00653679
0.00689038
0.00724396
0.00759752
0.00795106
0.00830456
0.00865801
0.00901138
0.00936466
0.00971782
0.0100709
0.0104237
0.0107764
0.0111288
0.011481
0.011833
0.0121846
0.0125358
0.0128866
0.013237
0.0135869
0.0139362
0.0142849
0.014633
0.0149804
0.0153269
0.0156727
0.0160175
0.0163614
0.0167042
0.0170459
0.0173865
0.0177257
0.0180635
0.0183999
0.0187348
0.019068
0.0193995
0.0197291
0.0200569
0.0203825
0.0207061
0.0210274
0.0213463
0.0216628
0.0219766
0.0222878
0.0225961
0.0229014
0.0232037
0.0235028
0.0237986
0.0240909
0.0243796
0.0246646
0.0249457
0.0252229
0.025496
0.0257648
0.0260293
0.0262893
0.0265446
0.0267952
0.0270409
0.0272816
0.0275172
0.0277475
0.0279724
0.0281918
0.0284055
0.0286136
0.0288158
0.029012
0.0292022
0.0293862
0.0295639
0.0297353
0.0299002
0.0300586
0.0302104
0.0303555
0.0304938
0.0306253
0.0307499
0.0308676
0.0309782
0.0310818
0.0311783
0.0312677
0.0313499
0.0314249
0.0314927
0.0315533
0.0316067
0.0316528
0.0316917
0.0317234
0.0317479
0.0317653
0.0317754
0.0317785
0.0317744
0.0317633
0.0317452
0.0317201
0.0316882
0.0316494
0.0316038
0.0315515
0.0314925
0.031427
0.031355
0.0312766
0.0311919
0.031101
0.0310039
0.0309008
0.0307917
0.0306768
0.0305562
0.0304299
0.030298
0.0301608
0.0300182
0.0298704
0.0297175
0.0295596
0.0293968
0.0292293
0.0290571
0.0288804
0.0286992
0.0285138
0.0283241
0.0281303
0.0279326
0.027731
0.0275256
0.0273167
0.0271041
0.0268882
0.0266689
0.0264464
0.0262207
0.0259921
0.0257606
0.0255262
0.0252892
0.0250495
0.0248073
0.0245627
0.0243158
0.0240666
0.0238152
0.0235618
0.0233064
0.0230491
0.0227899
0.022529
0.0222665
0.0220023
0.0217366
0.0214695
0.021201
0.0209311
0.0206601
0.0203878
0.0201144
0.0198399
0.0195644
0.0192879
0.0190105
0.0187323
0.0184533
0.0181735
0.0178931
0.0176119
0.0173301
0.0170478
0.0167649
0.0164815
0.0161977
0.0159134
0.0156287
0.0153436
0.0150583
0.0147726
0.0144866
0.0142004
0.013914
0.0136273
0.0133405
0.0130535
0.0127664
0.0124792
0.0121919
0.0119044
0.011617
0.0113294
0.0110419
0.0107543
0.0104666
0.010179
0.00989141
0.00960382
0.00931625
0.00902871
0.00874121
0.00845375
0.00816635
0.00787899
0.0075917
0.00730446
0.0070173
0.00673019
0.00644316
0.00615619
0.00586929
0.00558246
0.0052957
0.00500901
0.00472238
0.00443581
0.00414931
0.00386287
0.00357649
0.00329016
0.00300388
0.00271765
0.00243146
0.00214531
0.0018592
0.00157312
0.00128706
0.00100102
0.000715004
0.000428998
0.000142998
0.000195151
0.000585455
0.000975768
0.00136609
0.00175644
0.00214681
0.00253721
0.00292764
0.0033181
0.0037086
0.00409915
0.00448973
0.00488036
0.00527103
0.00566174
0.00605248
0.00644326
0.00683407
0.00722489
0.00761573
0.00800657
0.0083974
0.00878821
0.00917898
0.0095697
0.00996034
0.0103509
0.0107413
0.0111316
0.0115217
0.0119116
0.0123013
0.0126907
0.0130798
0.0134685
0.0138569
0.0142448
0.0146323
0.0150191
0.0154054
0.0157911
0.016176
0.0165602
0.0169435
0.0173259
0.0177073
0.0180876
0.0184668
0.0188448
0.0192214
0.0195967
0.0199704
0.0203425
0.020713
0.0210816
0.0214484
0.0218131
0.0221757
0.0225361
0.0228941
0.0232496
0.0236025
0.0239527
0.0243
0.0246443
0.0249856
0.0253235
0.0256581
0.0259891
0.0263165
0.02664
0.0269596
0.0272751
0.0275863
0.0278931
0.0281954
0.0284931
0.0287859
0.0290737
0.0293564
0.0296338
0.0299058
0.0301723
0.0304331
0.0306881
0.0309371
0.03118
0.0314167
0.0316471
0.031871
0.0320882
0.0322988
0.0325025
0.0326993
0.0328891
0.0330717
0.0332471
0.0334151
0.0335757
0.0337289
0.0338744
0.0340124
0.0341426
0.034265
0.0343797
0.0344865
0.0345853
0.0346763
0.0347593
0.0348343
0.0349013
0.0349603
0.0350113
0.0350543
0.0350893
0.0351163
0.0351353
0.0351464
0.0351497
0.0351451
0.0351326
0.0351124
0.0350845
0.035049
0.0350058
0.0349552
0.0348971
0.0348317
0.034759
0.0346792
0.0345922
0.0344983
0.0343974
0.0342898
0.0341754
0.0340545
0.0339272
0.0337934
0.0336534
0.0335073
0.0333552
0.0331972
0.0330335
0.0328641
0.0326892
0.0325089
0.0323233
0.0321326
0.0319368
0.0317362
0.0315308
0.0313207
0.0311062
0.0308872
0.030664
0.0304366
0.0302052
0.0299699
0.0297308
0.0294881
0.0292418
0.028992
0.028739
0.0284827
0.0282233
0.0279609
0.0276957
0.0274277
0.027157
0.0268837
0.026608
0.0263298
0.0260494
0.0257668
0.0254821
0.0251954
0.0249068
0.0246163
0.0243241
0.0240302
0.0237347
0.0234376
0.0231391
0.0228393
0.0225381
0.0222357
0.0219321
0.0216274
0.0213217
0.0210149
0.0207072
0.0203986
0.0200893
0.0197791
0.0194682
0.0191566
0.0188444
0.0185316
0.0182182
0.0179043
0.01759
0.0172752
0.0169601
0.0166445