/*--------------------------------*- C++ -*----------------------------------*\
| =========                 |                                                 |
| \\      /  F ield         | OpenFOAM: The Open Source CFD Toolbox           |
|  \\    /   O peration     | Version:  v2012                                 |
|   \\  /    A nd           | Website:  www.openfoam.com                      |
|    \\/     M anipulation  |                                                 |
\*---------------------------------------------------------------------------*/
FoamFile
{
    version     2.0;
    format      ascii;
    class       volVectorField;
    location    "9";
    object      U;
}
// * * * * * * * * * * * * * * * * * * * * * * * * * * * * * * * * * * * * * //

dimensions      [0 1 -1 0 0 0 0];


internalField   nonuniform List<vector> 
65536
(
(0.000757296 -0.000757319 0)
(0.00227193 -0.000757322 0)
(0.00378657 -0.000757342 0)
(0.00530124 -0.000757366 0)
(0.00681598 -0.000757396 0)
(0.00833078 -0.000757432 0)
(0.00984566 -0.000757473 0)
(0.0113606 -0.000757519 0)
(0.0128757 -0.000757567 0)
(0.0143908 -0.000757617 0)
(0.0159061 -0.000757667 0)
(0.0174215 -0.000757715 0)
(0.0189369 -0.000757761 0)
(0.0204525 -0.000757801 0)
(0.0219681 -0.000757833 0)
(0.0234838 -0.000757856 0)
(0.0249995 -0.000757867 0)
(0.0265152 -0.000757863 0)
(0.0280309 -0.000757842 0)
(0.0295465 -0.000757799 0)
(0.0310621 -0.000757733 0)
(0.0325775 -0.00075764 0)
(0.0340926 -0.000757517 0)
(0.0356075 -0.000757359 0)
(0.0371221 -0.000757164 0)
(0.0386362 -0.000756927 0)
(0.0401498 -0.000756644 0)
(0.0416628 -0.000756311 0)
(0.043175 -0.000755923 0)
(0.0446865 -0.000755477 0)
(0.046197 -0.000754967 0)
(0.0477064 -0.000754389 0)
(0.0492145 -0.000753737 0)
(0.0507213 -0.000753008 0)
(0.0522266 -0.000752194 0)
(0.0537302 -0.000751292 0)
(0.0552318 -0.000750296 0)
(0.0567314 -0.000749199 0)
(0.0582287 -0.000747998 0)
(0.0597235 -0.000746686 0)
(0.0612155 -0.000745256 0)
(0.0627046 -0.000743705 0)
(0.0641904 -0.000742024 0)
(0.0656728 -0.000740209 0)
(0.0671513 -0.000738254 0)
(0.0686259 -0.000736152 0)
(0.0700961 -0.000733897 0)
(0.0715616 -0.000731483 0)
(0.0730221 -0.000728905 0)
(0.0744773 -0.000726155 0)
(0.0759269 -0.000723228 0)
(0.0773704 -0.000720118 0)
(0.0788075 -0.000716819 0)
(0.0802378 -0.000713325 0)
(0.0816609 -0.000709629 0)
(0.0830765 -0.000705727 0)
(0.084484 -0.000701613 0)
(0.0858831 -0.000697281 0)
(0.0872733 -0.000692726 0)
(0.0886542 -0.000687943 0)
(0.0900253 -0.000682926 0)
(0.0913861 -0.000677671 0)
(0.0927362 -0.000672174 0)
(0.094075 -0.000666429 0)
(0.0954021 -0.000660433 0)
(0.0967169 -0.000654183 0)
(0.098019 -0.000647674 0)
(0.0993078 -0.000640903 0)
(0.100583 -0.000633868 0)
(0.101844 -0.000626565 0)
(0.103089 -0.000618993 0)
(0.10432 -0.00061115 0)
(0.105534 -0.000603034 0)
(0.106732 -0.000594644 0)
(0.107913 -0.000585979 0)
(0.109076 -0.000577039 0)
(0.110221 -0.000567825 0)
(0.111348 -0.000558337 0)
(0.112455 -0.000548576 0)
(0.113542 -0.000538544 0)
(0.114609 -0.000528242 0)
(0.115655 -0.000517673 0)
(0.11668 -0.00050684 0)
(0.117683 -0.000495747 0)
(0.118663 -0.000484397 0)
(0.119621 -0.000472794 0)
(0.120555 -0.000460944 0)
(0.121465 -0.000448851 0)
(0.12235 -0.000436522 0)
(0.123211 -0.000423963 0)
(0.124046 -0.00041118 0)
(0.124856 -0.00039818 0)
(0.125639 -0.000384972 0)
(0.126396 -0.000371562 0)
(0.127126 -0.000357959 0)
(0.127828 -0.000344172 0)
(0.128503 -0.000330209 0)
(0.129149 -0.000316081 0)
(0.129767 -0.000301797 0)
(0.130356 -0.000287367 0)
(0.130917 -0.000272801 0)
(0.131448 -0.00025811 0)
(0.131949 -0.000243304 0)
(0.132421 -0.000228394 0)
(0.132863 -0.000213393 0)
(0.133274 -0.00019831 0)
(0.133656 -0.000183158 0)
(0.134007 -0.000167947 0)
(0.134328 -0.00015269 0)
(0.134618 -0.000137398 0)
(0.134877 -0.000122082 0)
(0.135106 -0.000106755 0)
(0.135304 -9.14282e-05 0)
(0.135472 -7.61123e-05 0)
(0.135609 -6.08192e-05 0)
(0.135715 -4.55602e-05 0)
(0.135791 -3.03462e-05 0)
(0.135836 -1.51882e-05 0)
(0.135851 -9.61903e-08 0)
(0.135837 1.49158e-05 0)
(0.135792 2.98406e-05 0)
(0.135717 4.46678e-05 0)
(0.135613 5.93872e-05 0)
(0.135479 7.39893e-05 0)
(0.135317 8.84648e-05 0)
(0.135125 0.000102805 0)
(0.134905 0.000117001 0)
(0.134657 0.000131044 0)
(0.134381 0.000144928 0)
(0.134077 0.000158644 0)
(0.133746 0.000172185 0)
(0.133388 0.000185544 0)
(0.133004 0.000198715 0)
(0.132593 0.000211693 0)
(0.132157 0.000224471 0)
(0.131695 0.000237044 0)
(0.131208 0.000249407 0)
(0.130697 0.000261557 0)
(0.130162 0.000273488 0)
(0.129603 0.000285198 0)
(0.129021 0.000296683 0)
(0.128416 0.00030794 0)
(0.127789 0.000318967 0)
(0.12714 0.000329762 0)
(0.126469 0.000340322 0)
(0.125778 0.000350647 0)
(0.125066 0.000360734 0)
(0.124335 0.000370585 0)
(0.123584 0.000380197 0)
(0.122814 0.000389572 0)
(0.122025 0.000398708 0)
(0.121219 0.000407608 0)
(0.120394 0.00041627 0)
(0.119553 0.000424697 0)
(0.118695 0.00043289 0)
(0.117821 0.000440849 0)
(0.116932 0.000448578 0)
(0.116027 0.000456077 0)
(0.115107 0.00046335 0)
(0.114173 0.000470398 0)
(0.113225 0.000477224 0)
(0.112264 0.00048383 0)
(0.11129 0.00049022 0)
(0.110303 0.000496396 0)
(0.109304 0.000502362 0)
(0.108293 0.000508122 0)
(0.107271 0.000513677 0)
(0.106238 0.000519032 0)
(0.105195 0.000524191 0)
(0.104141 0.000529157 0)
(0.103078 0.000533934 0)
(0.102005 0.000538525 0)
(0.100923 0.000542935 0)
(0.0998331 0.000547168 0)
(0.0987345 0.000551227 0)
(0.097628 0.000555117 0)
(0.0965138 0.000558841 0)
(0.0953924 0.000562404 0)
(0.094264 0.00056581 0)
(0.0931289 0.000569063 0)
(0.0919875 0.000572166 0)
(0.0908401 0.000575124 0)
(0.0896869 0.000577942 0)
(0.0885281 0.000580622 0)
(0.0873642 0.000583169 0)
(0.0861953 0.000585587 0)
(0.0850217 0.00058788 0)
(0.0838436 0.000590052 0)
(0.0826613 0.000592107 0)
(0.081475 0.000594048 0)
(0.0802849 0.000595879 0)
(0.0790913 0.000597605 0)
(0.0778944 0.000599228 0)
(0.0766942 0.000600753 0)
(0.0754912 0.000602184 0)
(0.0742854 0.000603522 0)
(0.073077 0.000604773 0)
(0.0718661 0.00060594 0)
(0.0706531 0.000607025 0)
(0.0694379 0.000608033 0)
(0.0682208 0.000608966 0)
(0.0670019 0.000609828 0)
(0.0657814 0.000610622 0)
(0.0645593 0.00061135 0)
(0.0633359 0.000612017 0)
(0.0621112 0.000612624 0)
(0.0608853 0.000613175 0)
(0.0596584 0.000613672 0)
(0.0584305 0.000614118 0)
(0.0572018 0.000614517 0)
(0.0559724 0.000614869 0)
(0.0547422 0.000615179 0)
(0.0535116 0.000615448 0)
(0.0522804 0.000615679 0)
(0.0510488 0.000615873 0)
(0.0498168 0.000616034 0)
(0.0485846 0.000616164 0)
(0.0473521 0.000616264 0)
(0.0461194 0.000616337 0)
(0.0448867 0.000616385 0)
(0.0436538 0.00061641 0)
(0.042421 0.000616413 0)
(0.0411881 0.000616396 0)
(0.0399553 0.000616362 0)
(0.0387226 0.000616311 0)
(0.03749 0.000616246 0)
(0.0362576 0.000616168 0)
(0.0350253 0.000616078 0)
(0.0337932 0.000615979 0)
(0.0325613 0.000615871 0)
(0.0313297 0.000615756 0)
(0.0300983 0.000615635 0)
(0.0288671 0.000615509 0)
(0.0276362 0.00061538 0)
(0.0264055 0.000615249 0)
(0.0251752 0.000615116 0)
(0.023945 0.000614983 0)
(0.0227152 0.000614851 0)
(0.0214856 0.000614721 0)
(0.0202563 0.000614593 0)
(0.0190272 0.000614468 0)
(0.0177984 0.000614348 0)
(0.0165698 0.000614232 0)
(0.0153414 0.000614122 0)
(0.0141133 0.000614018 0)
(0.0128853 0.000613921 0)
(0.0116575 0.000613831 0)
(0.01043 0.000613749 0)
(0.00920252 0.000613674 0)
(0.00797523 0.000613609 0)
(0.00674806 0.000613552 0)
(0.005521 0.000613504 0)
(0.00429402 0.000613466 0)
(0.00306711 0.000613437 0)
(0.00184025 0.000613417 0)
(0.000613419 0.000613407 0)
(0.000757294 -0.00227192 0)
(0.0022719 -0.00227194 0)
(0.00378654 -0.002272 0)
(0.0053012 -0.00227207 0)
(0.00681592 -0.00227216 0)
(0.00833071 -0.00227227 0)
(0.00984558 -0.00227239 0)
(0.0113605 -0.00227253 0)
(0.0128756 -0.00227267 0)
(0.0143908 -0.00227283 0)
(0.015906 -0.00227298 0)
(0.0174214 -0.00227313 0)
(0.0189369 -0.00227326 0)
(0.0204524 -0.00227339 0)
(0.0219681 -0.00227349 0)
(0.0234838 -0.00227356 0)
(0.0249995 -0.00227359 0)
(0.0265153 -0.00227358 0)
(0.028031 -0.00227352 0)
(0.0295467 -0.0022734 0)
(0.0310623 -0.0022732 0)
(0.0325777 -0.00227293 0)
(0.0340929 -0.00227256 0)
(0.0356079 -0.00227209 0)
(0.0371225 -0.00227151 0)
(0.0386367 -0.0022708 0)
(0.0401504 -0.00226996 0)
(0.0416635 -0.00226897 0)
(0.0431759 -0.00226781 0)
(0.0446875 -0.00226647 0)
(0.0461981 -0.00226495 0)
(0.0477076 -0.00226322 0)
(0.049216 -0.00226127 0)
(0.0507229 -0.00225908 0)
(0.0522284 -0.00225665 0)
(0.0537321 -0.00225395 0)
(0.055234 -0.00225097 0)
(0.0567337 -0.00224768 0)
(0.0582312 -0.00224408 0)
(0.0597262 -0.00224015 0)
(0.0612185 -0.00223587 0)
(0.0627078 -0.00223122 0)
(0.0641939 -0.00222619 0)
(0.0656766 -0.00222075 0)
(0.0671554 -0.00221489 0)
(0.0686303 -0.00220859 0)
(0.0701008 -0.00220183 0)
(0.0715666 -0.00219459 0)
(0.0730275 -0.00218686 0)
(0.074483 -0.00217862 0)
(0.075933 -0.00216985 0)
(0.0773768 -0.00216052 0)
(0.0788143 -0.00215063 0)
(0.080245 -0.00214015 0)
(0.0816686 -0.00212907 0)
(0.0830846 -0.00211737 0)
(0.0844925 -0.00210504 0)
(0.085892 -0.00209205 0)
(0.0872827 -0.00207839 0)
(0.0886641 -0.00206404 0)
(0.0900356 -0.002049 0)
(0.0913969 -0.00203324 0)
(0.0927475 -0.00201675 0)
(0.0940868 -0.00199952 0)
(0.0954144 -0.00198153 0)
(0.0967298 -0.00196279 0)
(0.0980324 -0.00194326 0)
(0.0993217 -0.00192295 0)
(0.100597 -0.00190185 0)
(0.101858 -0.00187994 0)
(0.103105 -0.00185723 0)
(0.104336 -0.0018337 0)
(0.105551 -0.00180935 0)
(0.106749 -0.00178418 0)
(0.107931 -0.00175819 0)
(0.109094 -0.00173137 0)
(0.11024 -0.00170373 0)
(0.111367 -0.00167526 0)
(0.112475 -0.00164598 0)
(0.113563 -0.00161588 0)
(0.11463 -0.00158497 0)
(0.115677 -0.00155326 0)
(0.116702 -0.00152076 0)
(0.117706 -0.00148747 0)
(0.118686 -0.00145342 0)
(0.119644 -0.0014186 0)
(0.120579 -0.00138305 0)
(0.121489 -0.00134676 0)
(0.122375 -0.00130977 0)
(0.123237 -0.00127209 0)
(0.124072 -0.00123373 0)
(0.124882 -0.00119472 0)
(0.125666 -0.00115509 0)
(0.126423 -0.00111485 0)
(0.127153 -0.00107403 0)
(0.127856 -0.00103266 0)
(0.128531 -0.000990764 0)
(0.129177 -0.00094837 0)
(0.129796 -0.000905507 0)
(0.130385 -0.000862206 0)
(0.130946 -0.000818497 0)
(0.131477 -0.000774412 0)
(0.131979 -0.000729983 0)
(0.132451 -0.000685243 0)
(0.132893 -0.000640227 0)
(0.133305 -0.000594967 0)
(0.133686 -0.000549498 0)
(0.134038 -0.000503854 0)
(0.134358 -0.000458071 0)
(0.134649 -0.000412183 0)
(0.134908 -0.000366225 0)
(0.135137 -0.000320232 0)
(0.135335 -0.000274238 0)
(0.135503 -0.000228279 0)
(0.135639 -0.000182388 0)
(0.135746 -0.0001366 0)
(0.135821 -9.0947e-05 0)
(0.135867 -4.54626e-05 0)
(0.135882 -1.78741e-07 0)
(0.135867 4.48703e-05 0)
(0.135822 8.96559e-05 0)
(0.135747 0.000134148 0)
(0.135642 0.000178316 0)
(0.135509 0.000222131 0)
(0.135346 0.000265567 0)
(0.135154 0.000308596 0)
(0.134934 0.000351192 0)
(0.134685 0.00039333 0)
(0.134409 0.000434988 0)
(0.134105 0.000476143 0)
(0.133773 0.000516772 0)
(0.133415 0.000556857 0)
(0.13303 0.000596377 0)
(0.132619 0.000635314 0)
(0.132182 0.000673653 0)
(0.13172 0.000711377 0)
(0.131233 0.000748472 0)
(0.130721 0.000784925 0)
(0.130185 0.000820723 0)
(0.129626 0.000855856 0)
(0.129044 0.000890314 0)
(0.128438 0.000924088 0)
(0.127811 0.00095717 0)
(0.127161 0.000989555 0)
(0.12649 0.00102124 0)
(0.125799 0.00105221 0)
(0.125086 0.00108248 0)
(0.124354 0.00111203 0)
(0.123603 0.00114086 0)
(0.122832 0.00116899 0)
(0.122043 0.0011964 0)
(0.121236 0.00122309 0)
(0.120412 0.00124908 0)
(0.11957 0.00127436 0)
(0.118712 0.00129894 0)
(0.117837 0.00132281 0)
(0.116947 0.001346 0)
(0.116042 0.00136849 0)
(0.115122 0.00139031 0)
(0.114187 0.00141145 0)
(0.113239 0.00143192 0)
(0.112277 0.00145174 0)
(0.111302 0.0014709 0)
(0.110315 0.00148943 0)
(0.109316 0.00150733 0)
(0.108304 0.0015246 0)
(0.107282 0.00154126 0)
(0.106249 0.00155732 0)
(0.105205 0.0015728 0)
(0.104151 0.00158769 0)
(0.103087 0.00160202 0)
(0.102014 0.00161579 0)
(0.100932 0.00162901 0)
(0.0998415 0.00164171 0)
(0.0987426 0.00165388 0)
(0.0976357 0.00166554 0)
(0.0965212 0.00167671 0)
(0.0953995 0.0016874 0)
(0.0942707 0.00169761 0)
(0.0931354 0.00170736 0)
(0.0919937 0.00171667 0)
(0.0908459 0.00172554 0)
(0.0896924 0.00173399 0)
(0.0885334 0.00174202 0)
(0.0873692 0.00174966 0)
(0.0862001 0.00175691 0)
(0.0850262 0.00176379 0)
(0.0838479 0.0017703 0)
(0.0826654 0.00177646 0)
(0.0814788 0.00178228 0)
(0.0802886 0.00178777 0)
(0.0790947 0.00179294 0)
(0.0778976 0.00179781 0)
(0.0766973 0.00180238 0)
(0.075494 0.00180667 0)
(0.074288 0.00181068 0)
(0.0730795 0.00181443 0)
(0.0718685 0.00181792 0)
(0.0706553 0.00182118 0)
(0.0694399 0.0018242 0)
(0.0682227 0.00182699 0)
(0.0670037 0.00182957 0)
(0.065783 0.00183195 0)
(0.0645608 0.00183413 0)
(0.0633372 0.00183613 0)
(0.0621124 0.00183795 0)
(0.0608864 0.0018396 0)
(0.0596594 0.00184109 0)
(0.0584314 0.00184242 0)
(0.0572026 0.00184362 0)
(0.0559731 0.00184467 0)
(0.0547429 0.0018456 0)
(0.0535121 0.0018464 0)
(0.0522809 0.00184709 0)
(0.0510492 0.00184767 0)
(0.0498172 0.00184815 0)
(0.0485848 0.00184854 0)
(0.0473523 0.00184884 0)
(0.0461196 0.00184906 0)
(0.0448868 0.0018492 0)
(0.0436539 0.00184927 0)
(0.042421 0.00184928 0)
(0.0411881 0.00184923 0)
(0.0399553 0.00184912 0)
(0.0387225 0.00184897 0)
(0.0374899 0.00184877 0)
(0.0362575 0.00184853 0)
(0.0350252 0.00184826 0)
(0.0337931 0.00184796 0)
(0.0325612 0.00184764 0)
(0.0313295 0.00184729 0)
(0.0300981 0.00184693 0)
(0.0288669 0.00184655 0)
(0.027636 0.00184616 0)
(0.0264053 0.00184577 0)
(0.0251749 0.00184537 0)
(0.0239448 0.00184497 0)
(0.022715 0.00184457 0)
(0.0214854 0.00184418 0)
(0.020256 0.00184379 0)
(0.019027 0.00184342 0)
(0.0177982 0.00184306 0)
(0.0165696 0.00184271 0)
(0.0153412 0.00184238 0)
(0.0141131 0.00184206 0)
(0.0128851 0.00184177 0)
(0.0116574 0.0018415 0)
(0.0104298 0.00184125 0)
(0.0092024 0.00184103 0)
(0.00797512 0.00184084 0)
(0.00674797 0.00184066 0)
(0.00552092 0.00184052 0)
(0.00429396 0.00184041 0)
(0.00306706 0.00184032 0)
(0.00184022 0.00184026 0)
(0.00061341 0.00184023 0)
(0.000757275 -0.00378651 0)
(0.00227185 -0.00378654 0)
(0.00378647 -0.00378662 0)
(0.00530111 -0.00378674 0)
(0.00681581 -0.00378689 0)
(0.00833057 -0.00378708 0)
(0.00984543 -0.00378729 0)
(0.0113604 -0.00378752 0)
(0.0128754 -0.00378777 0)
(0.0143906 -0.00378802 0)
(0.0159058 -0.00378828 0)
(0.0174212 -0.00378853 0)
(0.0189367 -0.00378877 0)
(0.0204523 -0.00378898 0)
(0.021968 -0.00378916 0)
(0.0234837 -0.00378929 0)
(0.0249995 -0.00378935 0)
(0.0265153 -0.00378935 0)
(0.0280312 -0.00378925 0)
(0.0295469 -0.00378906 0)
(0.0310626 -0.00378874 0)
(0.0325782 -0.0037883 0)
(0.0340935 -0.0037877 0)
(0.0356086 -0.00378693 0)
(0.0371234 -0.00378597 0)
(0.0386378 -0.00378481 0)
(0.0401517 -0.00378341 0)
(0.041665 -0.00378177 0)
(0.0431776 -0.00377986 0)
(0.0446894 -0.00377765 0)
(0.0462003 -0.00377512 0)
(0.0477101 -0.00377226 0)
(0.0492188 -0.00376903 0)
(0.0507261 -0.0037654 0)
(0.0522318 -0.00376136 0)
(0.053736 -0.00375688 0)
(0.0552382 -0.00375192 0)
(0.0567384 -0.00374647 0)
(0.0582363 -0.00374049 0)
(0.0597318 -0.00373396 0)
(0.0612246 -0.00372684 0)
(0.0627144 -0.00371912 0)
(0.064201 -0.00371074 0)
(0.0656842 -0.0037017 0)
(0.0671636 -0.00369195 0)
(0.0686391 -0.00368147 0)
(0.0701102 -0.00367023 0)
(0.0715767 -0.00365819 0)
(0.0730382 -0.00364533 0)
(0.0744945 -0.00363161 0)
(0.0759451 -0.00361701 0)
(0.0773897 -0.00360149 0)
(0.078828 -0.00358502 0)
(0.0802595 -0.00356758 0)
(0.0816839 -0.00354913 0)
(0.0831007 -0.00352965 0)
(0.0845095 -0.00350911 0)
(0.0859099 -0.00348747 0)
(0.0873015 -0.00346472 0)
(0.0886838 -0.00344083 0)
(0.0900563 -0.00341577 0)
(0.0914185 -0.00338952 0)
(0.0927701 -0.00336205 0)
(0.0941104 -0.00333335 0)
(0.095439 -0.00330339 0)
(0.0967554 -0.00327216 0)
(0.098059 -0.00323963 0)
(0.0993495 -0.00320579 0)
(0.100626 -0.00317062 0)
(0.101888 -0.00313412 0)
(0.103136 -0.00309627 0)
(0.104368 -0.00305706 0)
(0.105584 -0.00301648 0)
(0.106783 -0.00297454 0)
(0.107966 -0.00293121 0)
(0.109131 -0.00288651 0)
(0.110278 -0.00284044 0)
(0.111406 -0.00279299 0)
(0.112515 -0.00274418 0)
(0.113604 -0.00269401 0)
(0.114672 -0.00264248 0)
(0.11572 -0.00258963 0)
(0.116746 -0.00253544 0)
(0.117751 -0.00247996 0)
(0.118733 -0.00242318 0)
(0.119691 -0.00236514 0)
(0.120627 -0.00230587 0)
(0.121538 -0.00224537 0)
(0.122425 -0.0021837 0)
(0.123287 -0.00212087 0)
(0.124124 -0.00205691 0)
(0.124935 -0.00199188 0)
(0.125719 -0.00192579 0)
(0.126477 -0.0018587 0)
(0.127208 -0.00179064 0)
(0.127912 -0.00172166 0)
(0.128587 -0.0016518 0)
(0.129235 -0.00158111 0)
(0.129853 -0.00150964 0)
(0.130444 -0.00143744 0)
(0.131005 -0.00136455 0)
(0.131536 -0.00129104 0)
(0.132039 -0.00121696 0)
(0.132511 -0.00114235 0)
(0.132953 -0.00106729 0)
(0.133365 -0.000991816 0)
(0.133747 -0.000915995 0)
(0.134099 -0.000839884 0)
(0.13442 -0.000763539 0)
(0.13471 -0.00068702 0)
(0.13497 -0.000610385 0)
(0.135198 -0.000533691 0)
(0.135397 -0.000456996 0)
(0.135564 -0.000380359 0)
(0.135701 -0.000303837 0)
(0.135807 -0.000227485 0)
(0.135882 -0.000151361 0)
(0.135927 -7.55182e-05 0)
(0.135942 -1.1823e-08 0)
(0.135927 7.51066e-05 0)
(0.135881 0.000149784 0)
(0.135806 0.00022397 0)
(0.135701 0.000297615 0)
(0.135567 0.000370672 0)
(0.135404 0.000443095 0)
(0.135211 0.000514838 0)
(0.13499 0.000585859 0)
(0.134741 0.000656117 0)
(0.134464 0.000725571 0)
(0.134159 0.000794186 0)
(0.133827 0.000861924 0)
(0.133468 0.000928753 0)
(0.133082 0.00099464 0)
(0.132671 0.00105955 0)
(0.132233 0.00112347 0)
(0.13177 0.00118636 0)
(0.131282 0.0012482 0)
(0.13077 0.00130897 0)
(0.130233 0.00136864 0)
(0.129673 0.00142721 0)
(0.129089 0.00148465 0)
(0.128483 0.00154094 0)
(0.127854 0.00159609 0)
(0.127204 0.00165007 0)
(0.126532 0.00170288 0)
(0.12584 0.00175451 0)
(0.125127 0.00180495 0)
(0.124394 0.0018542 0)
(0.123641 0.00190226 0)
(0.12287 0.00194914 0)
(0.12208 0.00199482 0)
(0.121272 0.00203931 0)
(0.120446 0.00208261 0)
(0.119603 0.00212474 0)
(0.118744 0.0021657 0)
(0.117869 0.00220549 0)
(0.116978 0.00224412 0)
(0.116071 0.00228161 0)
(0.11515 0.00231796 0)
(0.114215 0.00235318 0)
(0.113266 0.0023873 0)
(0.112303 0.00242031 0)
(0.111328 0.00245225 0)
(0.110339 0.00248311 0)
(0.109339 0.00251293 0)
(0.108327 0.0025417 0)
(0.107304 0.00256946 0)
(0.10627 0.00259622 0)
(0.105225 0.00262199 0)
(0.104171 0.0026468 0)
(0.103106 0.00267067 0)
(0.102032 0.00269361 0)
(0.10095 0.00271564 0)
(0.0998583 0.00273678 0)
(0.0987586 0.00275705 0)
(0.0976511 0.00277648 0)
(0.096536 0.00279508 0)
(0.0954136 0.00281288 0)
(0.0942842 0.00282989 0)
(0.0931483 0.00284613 0)
(0.092006 0.00286162 0)
(0.0908577 0.0028764 0)
(0.0897036 0.00289046 0)
(0.0885441 0.00290384 0)
(0.0873793 0.00291656 0)
(0.0862097 0.00292863 0)
(0.0850353 0.00294007 0)
(0.0838565 0.00295091 0)
(0.0826735 0.00296116 0)
(0.0814866 0.00297085 0)
(0.0802958 0.00297999 0)
(0.0791016 0.0029886 0)
(0.077904 0.0029967 0)
(0.0767034 0.0030043 0)
(0.0754997 0.00301144 0)
(0.0742934 0.00301811 0)
(0.0730845 0.00302435 0)
(0.0718731 0.00303016 0)
(0.0706596 0.00303557 0)
(0.069444 0.0030406 0)
(0.0682264 0.00304525 0)
(0.0670071 0.00304954 0)
(0.0657862 0.00305349 0)
(0.0645637 0.00305712 0)
(0.0633399 0.00306044 0)
(0.0621149 0.00306346 0)
(0.0608886 0.0030662 0)
(0.0596614 0.00306867 0)
(0.0584332 0.00307089 0)
(0.0572043 0.00307287 0)
(0.0559745 0.00307462 0)
(0.0547442 0.00307615 0)
(0.0535132 0.00307748 0)
(0.0522818 0.00307863 0)
(0.05105 0.00307959 0)
(0.0498179 0.00308038 0)
(0.0485854 0.00308102 0)
(0.0473528 0.00308151 0)
(0.04612 0.00308186 0)
(0.044887 0.00308209 0)
(0.0436541 0.00308221 0)
(0.0424211 0.00308221 0)
(0.0411881 0.00308212 0)
(0.0399552 0.00308194 0)
(0.0387224 0.00308168 0)
(0.0374897 0.00308134 0)
(0.0362572 0.00308095 0)
(0.0350249 0.00308049 0)
(0.0337927 0.00307999 0)
(0.0325608 0.00307944 0)
(0.0313291 0.00307886 0)
(0.0300976 0.00307825 0)
(0.0288664 0.00307761 0)
(0.0276355 0.00307696 0)
(0.0264048 0.0030763 0)
(0.0251744 0.00307563 0)
(0.0239443 0.00307496 0)
(0.0227145 0.0030743 0)
(0.0214849 0.00307364 0)
(0.0202556 0.00307299 0)
(0.0190265 0.00307237 0)
(0.0177977 0.00307176 0)
(0.0165692 0.00307118 0)
(0.0153408 0.00307063 0)
(0.0141127 0.0030701 0)
(0.0128848 0.00306961 0)
(0.0116571 0.00306916 0)
(0.0104295 0.00306875 0)
(0.00920214 0.00306838 0)
(0.00797489 0.00306805 0)
(0.00674777 0.00306776 0)
(0.00552076 0.00306752 0)
(0.00429383 0.00306733 0)
(0.00306697 0.00306718 0)
(0.00184017 0.00306708 0)
(0.000613391 0.00306704 0)
(0.000757252 -0.00530107 0)
(0.00227179 -0.00530112 0)
(0.00378636 -0.00530123 0)
(0.00530096 -0.00530139 0)
(0.00681562 -0.00530161 0)
(0.00833036 -0.00530187 0)
(0.00984519 -0.00530217 0)
(0.0113601 -0.00530251 0)
(0.0128751 -0.00530286 0)
(0.0143903 -0.00530323 0)
(0.0159056 -0.00530361 0)
(0.017421 -0.00530397 0)
(0.0189365 -0.00530432 0)
(0.0204521 -0.00530463 0)
(0.0219678 -0.00530489 0)
(0.0234836 -0.00530509 0)
(0.0249995 -0.0053052 0)
(0.0265154 -0.00530521 0)
(0.0280314 -0.0053051 0)
(0.0295473 -0.00530485 0)
(0.0310631 -0.00530443 0)
(0.0325789 -0.00530383 0)
(0.0340944 -0.00530302 0)
(0.0356097 -0.00530197 0)
(0.0371248 -0.00530066 0)
(0.0386394 -0.00529905 0)
(0.0401536 -0.00529713 0)
(0.0416672 -0.00529486 0)
(0.0431801 -0.00529222 0)
(0.0446923 -0.00528916 0)
(0.0462036 -0.00528566 0)
(0.0477139 -0.00528168 0)
(0.049223 -0.00527719 0)
(0.0507307 -0.00527215 0)
(0.052237 -0.00526653 0)
(0.0537417 -0.00526029 0)
(0.0552445 -0.0052534 0)
(0.0567453 -0.0052458 0)
(0.0582439 -0.00523747 0)
(0.0597401 -0.00522837 0)
(0.0612336 -0.00521844 0)
(0.0627241 -0.00520766 0)
(0.0642116 -0.00519599 0)
(0.0656956 -0.00518337 0)
(0.0671759 -0.00516976 0)
(0.0686522 -0.00515513 0)
(0.0701243 -0.00513944 0)
(0.0715917 -0.00512263 0)
(0.0730543 -0.00510466 0)
(0.0745116 -0.0050855 0)
(0.0759633 -0.0050651 0)
(0.0774091 -0.00504341 0)
(0.0788485 -0.0050204 0)
(0.0802812 -0.00499602 0)
(0.0817068 -0.00497023 0)
(0.0831248 -0.004943 0)
(0.084535 -0.00491428 0)
(0.0859367 -0.00488403 0)
(0.0873296 -0.00485221 0)
(0.0887133 -0.0048188 0)
(0.0900872 -0.00478375 0)
(0.0914509 -0.00474703 0)
(0.0928039 -0.00470861 0)
(0.0941457 -0.00466845 0)
(0.0954759 -0.00462654 0)
(0.0967938 -0.00458283 0)
(0.098099 -0.00453731 0)
(0.099391 -0.00448996 0)
(0.100669 -0.00444075 0)
(0.101933 -0.00438966 0)
(0.103182 -0.00433668 0)
(0.104416 -0.0042818 0)
(0.105634 -0.004225 0)
(0.106835 -0.00416628 0)
(0.108019 -0.00410563 0)
(0.109186 -0.00404305 0)
(0.110334 -0.00397854 0)
(0.111464 -0.00391211 0)
(0.112574 -0.00384376 0)
(0.113665 -0.0037735 0)
(0.114735 -0.00370135 0)
(0.115784 -0.00362733 0)
(0.116812 -0.00355145 0)
(0.117818 -0.00347374 0)
(0.118802 -0.00339423 0)
(0.119762 -0.00331294 0)
(0.120699 -0.00322991 0)
(0.121612 -0.00314518 0)
(0.1225 -0.00305879 0)
(0.123364 -0.00297078 0)
(0.124202 -0.0028812 0)
(0.125014 -0.0027901 0)
(0.1258 -0.00269752 0)
(0.126559 -0.00260354 0)
(0.127291 -0.00250819 0)
(0.127995 -0.00241155 0)
(0.128672 -0.00231369 0)
(0.12932 -0.00221465 0)
(0.12994 -0.00211452 0)
(0.130531 -0.00201336 0)
(0.131093 -0.00191125 0)
(0.131625 -0.00180826 0)
(0.132128 -0.00170447 0)
(0.132601 -0.00159994 0)
(0.133044 -0.00149477 0)
(0.133457 -0.00138903 0)
(0.133839 -0.0012828 0)
(0.134191 -0.00117617 0)
(0.134512 -0.0010692 0)
(0.134802 -0.000961994 0)
(0.135062 -0.000854623 0)
(0.135291 -0.00074717 0)
(0.135489 -0.000639718 0)
(0.135656 -0.000532346 0)
(0.135793 -0.000425135 0)
(0.135899 -0.000318165 0)
(0.135974 -0.000211514 0)
(0.136018 -0.000105258 0)
(0.136033 5.25348e-07 0)
(0.136017 0.000105763 0)
(0.135971 0.000210382 0)
(0.135895 0.000314312 0)
(0.135789 0.000417482 0)
(0.135655 0.000519826 0)
(0.13549 0.00062128 0)
(0.135297 0.000721781 0)
(0.135075 0.000821268 0)
(0.134825 0.000919684 0)
(0.134547 0.00101697 0)
(0.134241 0.00111308 0)
(0.133908 0.00120797 0)
(0.133548 0.00130157 0)
(0.133161 0.00139385 0)
(0.132748 0.00148477 0)
(0.132309 0.00157429 0)
(0.131845 0.00166237 0)
(0.131356 0.00174898 0)
(0.130842 0.00183408 0)
(0.130304 0.00191765 0)
(0.129743 0.00199967 0)
(0.129158 0.0020801 0)
(0.12855 0.00215894 0)
(0.12792 0.00223615 0)
(0.127268 0.00231174 0)
(0.126595 0.00238568 0)
(0.125901 0.00245797 0)
(0.125187 0.00252859 0)
(0.124452 0.00259755 0)
(0.123698 0.00266484 0)
(0.122925 0.00273046 0)
(0.122134 0.0027944 0)
(0.121325 0.00285669 0)
(0.120498 0.00291731 0)
(0.119654 0.00297628 0)
(0.118793 0.00303361 0)
(0.117916 0.0030893 0)
(0.117024 0.00314337 0)
(0.116116 0.00319584 0)
(0.115194 0.00324671 0)
(0.114257 0.00329601 0)
(0.113306 0.00334375 0)
(0.112342 0.00338995 0)
(0.111366 0.00343464 0)
(0.110376 0.00347783 0)
(0.109375 0.00351955 0)
(0.108361 0.00355981 0)
(0.107337 0.00359865 0)
(0.106302 0.00363609 0)
(0.105256 0.00367214 0)
(0.1042 0.00370685 0)
(0.103135 0.00374023 0)
(0.10206 0.00377232 0)
(0.100976 0.00380313 0)
(0.0998834 0.00383271 0)
(0.0987827 0.00386106 0)
(0.0976742 0.00388824 0)
(0.0965581 0.00391425 0)
(0.0954347 0.00393913 0)
(0.0943045 0.00396292 0)
(0.0931676 0.00398563 0)
(0.0920244 0.00400729 0)
(0.0908752 0.00402794 0)
(0.0897203 0.00404761 0)
(0.08856 0.00406631 0)
(0.0873945 0.00408408 0)
(0.086224 0.00410096 0)
(0.0850489 0.00411695 0)
(0.0838694 0.0041321 0)
(0.0826857 0.00414643 0)
(0.0814981 0.00415996 0)
(0.0803067 0.00417273 0)
(0.0791119 0.00418475 0)
(0.0779137 0.00419607 0)
(0.0767124 0.00420669 0)
(0.0755083 0.00421665 0)
(0.0743014 0.00422597 0)
(0.0730919 0.00423468 0)
(0.0718801 0.0042428 0)
(0.0706661 0.00425035 0)
(0.06945 0.00425736 0)
(0.068232 0.00426385 0)
(0.0670123 0.00426984 0)
(0.065791 0.00427535 0)
(0.0645681 0.00428041 0)
(0.0633439 0.00428503 0)
(0.0621185 0.00428924 0)
(0.060892 0.00429305 0)
(0.0596644 0.0042965 0)
(0.058436 0.00429958 0)
(0.0572067 0.00430234 0)
(0.0559767 0.00430477 0)
(0.0547461 0.0043069 0)
(0.0535149 0.00430875 0)
(0.0522833 0.00431033 0)
(0.0510512 0.00431166 0)
(0.0498189 0.00431276 0)
(0.0485863 0.00431364 0)
(0.0473534 0.00431431 0)
(0.0461205 0.00431479 0)
(0.0448874 0.0043151 0)
(0.0436543 0.00431524 0)
(0.0424212 0.00431524 0)
(0.0411881 0.0043151 0)
(0.0399551 0.00431483 0)
(0.0387222 0.00431446 0)
(0.0374894 0.00431398 0)
(0.0362568 0.00431341 0)
(0.0350244 0.00431276 0)
(0.0337922 0.00431205 0)
(0.0325602 0.00431127 0)
(0.0313285 0.00431045 0)
(0.030097 0.00430958 0)
(0.0288658 0.00430869 0)
(0.0276348 0.00430777 0)
(0.0264041 0.00430683 0)
(0.0251737 0.00430589 0)
(0.0239436 0.00430494 0)
(0.0227138 0.00430401 0)
(0.0214842 0.00430308 0)
(0.0202549 0.00430217 0)
(0.0190259 0.00430129 0)
(0.0177971 0.00430044 0)
(0.0165685 0.00429962 0)
(0.0153402 0.00429884 0)
(0.0141121 0.0042981 0)
(0.0128843 0.00429741 0)
(0.0116566 0.00429678 0)
(0.0104291 0.0042962 0)
(0.00920174 0.00429567 0)
(0.00797455 0.00429521 0)
(0.00674748 0.00429481 0)
(0.00552051 0.00429447 0)
(0.00429364 0.0042942 0)
(0.00306683 0.00429399 0)
(0.00184009 0.00429386 0)
(0.000613364 0.00429379 0)
(0.000757222 -0.00681557 0)
(0.0022717 -0.00681564 0)
(0.00378621 -0.00681579 0)
(0.00530076 -0.006816 0)
(0.00681537 -0.00681629 0)
(0.00833006 -0.00681664 0)
(0.00984485 -0.00681704 0)
(0.0113597 -0.00681748 0)
(0.0128748 -0.00681795 0)
(0.0143899 -0.00681844 0)
(0.0159052 -0.00681894 0)
(0.0174206 -0.00681944 0)
(0.0189361 -0.0068199 0)
(0.0204518 -0.00682033 0)
(0.0219676 -0.00682069 0)
(0.0234835 -0.00682098 0)
(0.0249995 -0.00682115 0)
(0.0265155 -0.0068212 0)
(0.0280316 -0.0068211 0)
(0.0295477 -0.00682081 0)
(0.0310638 -0.00682032 0)
(0.0325797 -0.00681958 0)
(0.0340955 -0.00681858 0)
(0.0356112 -0.00681728 0)
(0.0371265 -0.00681564 0)
(0.0386415 -0.00681363 0)
(0.040156 -0.00681121 0)
(0.0416701 -0.00680834 0)
(0.0431835 -0.00680499 0)
(0.0446962 -0.00680111 0)
(0.046208 -0.00679667 0)
(0.0477188 -0.00679161 0)
(0.0492285 -0.0067859 0)
(0.0507369 -0.00677949 0)
(0.0522439 -0.00677233 0)
(0.0537493 -0.00676437 0)
(0.0552529 -0.00675557 0)
(0.0567546 -0.00674587 0)
(0.058254 -0.00673523 0)
(0.0597511 -0.00672359 0)
(0.0612455 -0.00671091 0)
(0.0627371 -0.00669712 0)
(0.0642256 -0.00668217 0)
(0.0657107 -0.00666602 0)
(0.0671921 -0.0066486 0)
(0.0686697 -0.00662987 0)
(0.070143 -0.00660976 0)
(0.0716118 -0.00658822 0)
(0.0730757 -0.00656519 0)
(0.0745344 -0.00654063 0)
(0.0759875 -0.00651447 0)
(0.0774348 -0.00648666 0)
(0.0788757 -0.00645715 0)
(0.08031 -0.00642587 0)
(0.0817372 -0.00639279 0)
(0.083157 -0.00635784 0)
(0.0845688 -0.00632098 0)
(0.0859723 -0.00628215 0)
(0.0873671 -0.00624131 0)
(0.0887526 -0.00619841 0)
(0.0901284 -0.0061534 0)
(0.091494 -0.00610624 0)
(0.092849 -0.0060569 0)
(0.0941929 -0.00600532 0)
(0.095525 -0.00595147 0)
(0.096845 -0.00589532 0)
(0.0981523 -0.00583684 0)
(0.0994464 -0.00577599 0)
(0.100727 -0.00571275 0)
(0.101993 -0.00564709 0)
(0.103244 -0.005579 0)
(0.10448 -0.00550845 0)
(0.1057 -0.00543544 0)
(0.106903 -0.00535995 0)
(0.10809 -0.00528197 0)
(0.109258 -0.00520151 0)
(0.110409 -0.00511856 0)
(0.111541 -0.00503314 0)
(0.112654 -0.00494524 0)
(0.113746 -0.00485489 0)
(0.114819 -0.0047621 0)
(0.11587 -0.00466689 0)
(0.1169 -0.00456929 0)
(0.117908 -0.00446933 0)
(0.118894 -0.00436705 0)
(0.119856 -0.00426248 0)
(0.120795 -0.00415567 0)
(0.12171 -0.00404666 0)
(0.1226 -0.00393551 0)
(0.123466 -0.00382227 0)
(0.124305 -0.00370701 0)
(0.125119 -0.00358979 0)
(0.125907 -0.00347067 0)
(0.126667 -0.00334973 0)
(0.127401 -0.00322704 0)
(0.128107 -0.00310268 0)
(0.128785 -0.00297674 0)
(0.129434 -0.00284929 0)
(0.130055 -0.00272043 0)
(0.130647 -0.00259025 0)
(0.13121 -0.00245884 0)
(0.131744 -0.00232629 0)
(0.132247 -0.00219271 0)
(0.132721 -0.00205819 0)
(0.133165 -0.00192283 0)
(0.133578 -0.00178674 0)
(0.133961 -0.00165002 0)
(0.134313 -0.00151278 0)
(0.134635 -0.00137511 0)
(0.134925 -0.00123713 0)
(0.135185 -0.00109895 0)
(0.135414 -0.000960653 0)
(0.135612 -0.000822361 0)
(0.135779 -0.000684175 0)
(0.135916 -0.000546196 0)
(0.136021 -0.000408529 0)
(0.136096 -0.000271274 0)
(0.13614 -0.000134529 0)
(0.136154 1.60565e-06 0)
(0.136137 0.000137036 0)
(0.136091 0.000271667 0)
(0.136014 0.000405409 0)
(0.135907 0.000538171 0)
(0.135771 0.000669868 0)
(0.135606 0.000800416 0)
(0.135412 0.000929735 0)
(0.135189 0.00105775 0)
(0.134938 0.00118438 0)
(0.134658 0.00130955 0)