/*--------------------------------*- C++ -*----------------------------------*\
| =========                 |                                                 |
| \\      /  F ield         | OpenFOAM: The Open Source CFD Toolbox           |
|  \\    /   O peration     | Version:  v2012                                 |
|   \\  /    A nd           | Website:  www.openfoam.com                      |
|    \\/     M anipulation  |                                                 |
\*---------------------------------------------------------------------------*/
FoamFile
{
    version     2.0;
    format      ascii;
    class       volScalarField;
    location    "9";
    object      W_z;
}
// * * * * * * * * * * * * * * * * * * * * * * * * * * * * * * * * * * * * * //

dimensions      [0 0 -1 0 0 0 0];


internalField   nonuniform List<scalar> 
65536
(
-8.26785e-09
-2.6874e-08
-1.86362e-07
-2.2786e-07
-2.3985e-07
-2.48866e-07
-2.59841e-07
-2.70068e-07
-2.78399e-07
-2.86477e-07
-2.95988e-07
-3.07145e-07
-3.19123e-07
-3.31375e-07
-3.43853e-07
-3.56845e-07
-3.70549e-07
-3.84973e-07
-4.00085e-07
-4.15654e-07
-4.31642e-07
-4.48098e-07
-4.64926e-07
-4.8213e-07
-4.99614e-07
-5.17239e-07
-5.35084e-07
-5.53136e-07
-5.71312e-07
-5.89658e-07
-6.08157e-07
-6.26786e-07
-6.45599e-07
-6.6453e-07
-6.83535e-07
-7.02736e-07
-7.2216e-07
-7.4172e-07
-7.61426e-07
-7.81273e-07
-8.01185e-07
-8.21195e-07
-8.41332e-07
-8.61455e-07
-8.81458e-07
-9.01372e-07
-9.21179e-07
-9.40811e-07
-9.60307e-07
-9.79712e-07
-9.98977e-07
-1.01812e-06
-1.03726e-06
-1.05645e-06
-1.07574e-06
-1.09532e-06
-1.11531e-06
-1.13567e-06
-1.15628e-06
-1.17715e-06
-1.1983e-06
-1.21965e-06
-1.24113e-06
-1.26267e-06
-1.28412e-06
-1.30525e-06
-1.3259e-06
-1.34604e-06
-1.36564e-06
-1.38467e-06
-1.40322e-06
-1.42149e-06
-1.43962e-06
-1.45763e-06
-1.4756e-06
-1.49368e-06
-1.51202e-06
-1.53068e-06
-1.54959e-06
-1.56865e-06
-1.5878e-06
-1.60701e-06
-1.6263e-06
-1.64559e-06
-1.66469e-06
-1.68344e-06
-1.70181e-06
-1.71986e-06
-1.73759e-06
-1.75485e-06
-1.77157e-06
-1.78778e-06
-1.80353e-06
-1.81873e-06
-1.83323e-06
-1.84705e-06
-1.86034e-06
-1.87323e-06
-1.88571e-06
-1.89783e-06
-1.9098e-06
-1.92194e-06
-1.93441e-06
-1.94715e-06
-1.96008e-06
-1.97316e-06
-1.98632e-06
-1.99934e-06
-2.01199e-06
-2.02415e-06
-2.03584e-06
-2.04697e-06
-2.05734e-06
-2.06675e-06
-2.07516e-06
-2.08271e-06
-2.08954e-06
-2.0958e-06
-2.10162e-06
-2.10706e-06
-2.11215e-06
-2.1168e-06
-2.12093e-06
-2.12452e-06
-2.12767e-06
-2.13043e-06
-2.1327e-06
-2.1344e-06
-2.13547e-06
-2.13585e-06
-2.13557e-06
-2.13478e-06
-2.13373e-06
-2.13263e-06
-2.13162e-06
-2.13073e-06
-2.13e-06
-2.12953e-06
-2.12929e-06
-2.12915e-06
-2.12899e-06
-2.1287e-06
-2.12813e-06
-2.1271e-06
-2.12554e-06
-2.12343e-06
-2.12083e-06
-2.11779e-06
-2.11438e-06
-2.11062e-06
-2.10658e-06
-2.10242e-06
-2.09816e-06
-2.09372e-06
-2.08904e-06
-2.08408e-06
-2.07877e-06
-2.07307e-06
-2.06701e-06
-2.06068e-06
-2.05423e-06
-2.04768e-06
-2.04101e-06
-2.03427e-06
-2.02754e-06
-2.02087e-06
-2.01414e-06
-2.00718e-06
-1.9998e-06
-1.99187e-06
-1.9832e-06
-1.97359e-06
-1.96295e-06
-1.95128e-06
-1.93873e-06
-1.9254e-06
-1.91144e-06
-1.89714e-06
-1.88288e-06
-1.8689e-06
-1.85544e-06
-1.84256e-06
-1.83023e-06
-1.81821e-06
-1.80632e-06
-1.79438e-06
-1.78222e-06
-1.76973e-06
-1.75683e-06
-1.74347e-06
-1.72967e-06
-1.71542e-06
-1.70074e-06
-1.68558e-06
-1.66989e-06
-1.65366e-06
-1.63691e-06
-1.6196e-06
-1.60166e-06
-1.58299e-06
-1.56358e-06
-1.54342e-06
-1.5224e-06
-1.50048e-06
-1.47757e-06
-1.45374e-06
-1.4291e-06
-1.40379e-06
-1.37787e-06
-1.35144e-06
-1.3247e-06
-1.2978e-06
-1.27079e-06
-1.24366e-06
-1.21638e-06
-1.18885e-06
-1.16095e-06
-1.1326e-06
-1.10372e-06
-1.07433e-06
-1.04454e-06
-1.01448e-06
-9.84294e-07
-9.54095e-07
-9.23987e-07
-8.94073e-07
-8.64296e-07
-8.34649e-07
-8.05159e-07
-7.75832e-07
-7.46656e-07
-7.17569e-07
-6.88594e-07
-6.59733e-07
-6.30958e-07
-6.02246e-07
-5.73527e-07
-5.44741e-07
-5.15825e-07
-4.86671e-07
-4.57224e-07
-4.27445e-07
-3.9731e-07
-3.66827e-07
-3.36033e-07
-3.04991e-07
-2.73806e-07
-2.42636e-07
-2.11652e-07
-1.8105e-07
-1.51028e-07
-1.2174e-07
-9.32945e-08
-6.56804e-08
-3.88015e-08
-1.28234e-08
-3.12789e-08
-9.69349e-08
-3.71121e-07
-4.79559e-07
-5.46403e-07
-6.00407e-07
-6.46749e-07
-6.87573e-07
-7.26838e-07
-7.673e-07
-8.09103e-07
-8.51166e-07
-8.92941e-07
-9.34905e-07
-9.77896e-07
-1.02239e-06
-1.0683e-06
-1.11547e-06
-1.16378e-06
-1.21314e-06
-1.26365e-06
-1.31518e-06
-1.36759e-06
-1.42074e-06
-1.47434e-06
-1.52827e-06
-1.58261e-06
-1.63727e-06
-1.69219e-06
-1.74734e-06
-1.8026e-06
-1.85806e-06
-1.91383e-06
-1.96986e-06
-2.02622e-06
-2.08301e-06
-2.14014e-06
-2.19755e-06
-2.25535e-06
-2.31347e-06
-2.37184e-06
-2.43047e-06
-2.48923e-06
-2.54788e-06
-2.60633e-06
-2.66455e-06
-2.72236e-06
-2.77966e-06
-2.83648e-06
-2.89285e-06
-2.94883e-06
-3.00461e-06
-3.06042e-06
-3.11634e-06
-3.17258e-06
-3.22957e-06
-3.28757e-06
-3.34663e-06
-3.40674e-06
-3.46792e-06
-3.52998e-06
-3.59261e-06
-3.65555e-06
-3.71855e-06
-3.78119e-06
-3.843e-06
-3.90364e-06
-3.96292e-06
-4.02069e-06
-4.07692e-06
-4.13183e-06
-4.18577e-06
-4.23909e-06
-4.29212e-06
-4.34526e-06
-4.39888e-06
-4.45325e-06
-4.50852e-06
-4.56468e-06
-4.62159e-06
-4.67892e-06
-4.73642e-06
-4.79394e-06
-4.8513e-06
-4.90816e-06
-4.96419e-06
-5.01925e-06
-5.07338e-06
-5.12651e-06
-5.17837e-06
-5.2287e-06
-5.27747e-06
-5.32472e-06
-5.37033e-06
-5.41405e-06
-5.45582e-06
-5.49593e-06
-5.53477e-06
-5.57262e-06
-5.60973e-06
-5.64652e-06
-5.68354e-06
-5.72123e-06
-5.75974e-06
-5.79902e-06
-5.8389e-06
-5.87906e-06
-5.91895e-06
-5.95792e-06
-5.99551e-06
-6.03141e-06
-6.06533e-06
-6.09691e-06
-6.12586e-06
-6.15216e-06
-6.17605e-06
-6.19784e-06
-6.21779e-06
-6.23617e-06
-6.25318e-06
-6.269e-06
-6.28367e-06
-6.29711e-06
-6.30919e-06
-6.31995e-06
-6.32935e-06
-6.33712e-06
-6.34303e-06
-6.34706e-06
-6.34923e-06
-6.34971e-06
-6.34879e-06
-6.34693e-06
-6.34467e-06
-6.34251e-06
-6.34078e-06
-6.33966e-06
-6.33928e-06
-6.33958e-06
-6.34025e-06
-6.34088e-06
-6.34102e-06
-6.34025e-06
-6.33821e-06
-6.33467e-06
-6.32957e-06
-6.32296e-06
-6.31498e-06
-6.30586e-06
-6.29579e-06
-6.28496e-06
-6.27369e-06
-6.26208e-06
-6.24992e-06
-6.23699e-06
-6.22315e-06
-6.20831e-06
-6.19237e-06
-6.17529e-06
-6.15718e-06
-6.1384e-06
-6.1193e-06
-6.10009e-06
-6.08093e-06
-6.06182e-06
-6.04266e-06
-6.02312e-06
-6.00284e-06
-5.98132e-06
-5.95813e-06
-5.93284e-06
-5.90494e-06
-5.8741e-06
-5.84026e-06
-5.80367e-06
-5.7648e-06
-5.72421e-06
-5.68274e-06
-5.64142e-06
-5.60104e-06
-5.56216e-06
-5.52494e-06
-5.48928e-06
-5.4546e-06
-5.42025e-06
-5.3856e-06
-5.3501e-06
-5.31334e-06
-5.27516e-06
-5.23544e-06
-5.19421e-06
-5.15146e-06
-5.10723e-06
-5.06146e-06
-5.01401e-06
-4.96482e-06
-4.91387e-06
-4.86114e-06
-4.80654e-06
-4.74994e-06
-4.69115e-06
-4.63015e-06
-4.56664e-06
-4.50049e-06
-4.43159e-06
-4.36e-06
-4.286e-06
-4.20989e-06
-4.13209e-06
-4.05306e-06
-3.97333e-06
-3.89332e-06
-3.81318e-06
-3.73281e-06
-3.65206e-06
-3.5707e-06
-3.48837e-06
-3.40471e-06
-3.31948e-06
-3.23267e-06
-3.14449e-06
-3.05532e-06
-2.96548e-06
-2.87533e-06
-2.78505e-06
-2.69489e-06
-2.60489e-06
-2.51499e-06
-2.42519e-06
-2.33547e-06
-2.24585e-06
-2.15635e-06
-2.06703e-06
-1.97802e-06
-1.88923e-06
-1.80062e-06
-1.71206e-06
-1.62343e-06
-1.53459e-06
-1.44537e-06
-1.3556e-06
-1.26518e-06
-1.17406e-06
-1.08227e-06
-9.89906e-07
-8.97147e-07
-8.04311e-07
-7.11829e-07
-6.20207e-07
-5.3e-07
-4.41765e-07
-3.55931e-07
-2.7272e-07
-1.9203e-07
-1.13574e-07
-3.75156e-08
6.8923e-08
-1.44749e-09
-3.31173e-07
-5.32988e-07
-6.7966e-07
-7.97224e-07
-8.98719e-07
-9.9077e-07
-1.07683e-06
-1.15887e-06
-1.23826e-06
-1.31603e-06
-1.39306e-06
-1.4701e-06
-1.54776e-06
-1.62642e-06
-1.70637e-06
-1.78778e-06
-1.8706e-06
-1.9549e-06
-2.0405e-06
-2.12721e-06
-2.21496e-06
-2.30346e-06
-2.39247e-06
-2.48193e-06
-2.57165e-06
-2.66152e-06
-2.75151e-06
-2.84152e-06
-2.93157e-06
-3.02181e-06
-3.11222e-06
-3.20291e-06
-3.29407e-06
-3.38571e-06
-3.47781e-06
-3.57051e-06
-3.66377e-06
-3.75747e-06
-3.85162e-06
-3.94617e-06
-4.04085e-06
-4.13545e-06
-4.22987e-06
-4.32385e-06
-4.41714e-06
-4.50971e-06
-4.60147e-06
-4.69235e-06
-4.78255e-06
-4.87246e-06
-4.96232e-06
-5.0524e-06
-5.14316e-06
-5.23502e-06
-5.32824e-06
-5.42308e-06
-5.51982e-06
-5.61843e-06
-5.71859e-06
-5.81985e-06
-5.92178e-06
-6.02374e-06
-6.12503e-06
-6.2251e-06
-6.32352e-06
-6.4199e-06
-6.51397e-06
-6.60578e-06
-6.69561e-06
-6.78386e-06
-6.87106e-06
-6.95792e-06
-7.04518e-06
-7.13338e-06
-7.22281e-06
-7.31372e-06
-7.40625e-06
-7.50025e-06
-7.59522e-06
-7.69061e-06
-7.78594e-06
-7.88088e-06
-7.97504e-06
-8.06804e-06
-8.15957e-06
-8.24946e-06
-8.33761e-06
-8.42383e-06
-8.50781e-06
-8.58927e-06
-8.668e-06
-8.74391e-06
-8.81693e-06
-8.88704e-06
-8.95441e-06
-9.0195e-06
-9.08299e-06
-9.14564e-06
-9.20809e-06
-9.2709e-06
-9.3346e-06
-9.39955e-06
-9.46582e-06
-9.53314e-06
-9.60098e-06
-9.66864e-06
-9.73519e-06
-9.79964e-06
-9.86112e-06
-9.91899e-06
-9.97292e-06
-1.00228e-05
-1.00686e-05
-1.01105e-05
-1.01489e-05
-1.0184e-05
-1.02163e-05
-1.02462e-05
-1.02741e-05
-1.03e-05
-1.03242e-05
-1.03464e-05
-1.03663e-05
-1.03839e-05
-1.03988e-05
-1.04107e-05
-1.04195e-05
-1.04254e-05
-1.04286e-05
-1.04295e-05
-1.04287e-05
-1.04271e-05
-1.04254e-05
-1.04245e-05
-1.04245e-05
-1.04257e-05
-1.04279e-05
-1.04308e-05
-1.04337e-05
-1.04357e-05
-1.04363e-05
-1.04348e-05
-1.04309e-05
-1.04245e-05
-1.04155e-05
-1.04044e-05
-1.03915e-05
-1.03772e-05
-1.03617e-05
-1.03453e-05
-1.03281e-05
-1.03099e-05
-1.02906e-05
-1.02697e-05
-1.02469e-05
-1.02222e-05
-1.01956e-05
-1.01673e-05
-1.01378e-05
-1.01075e-05
-1.00772e-05
-1.0047e-05
-1.00169e-05
-9.98666e-06
-9.95584e-06
-9.92377e-06
-9.88969e-06
-9.85276e-06
-9.81229e-06
-9.76773e-06
-9.71853e-06
-9.66455e-06
-9.60599e-06
-9.54366e-06
-9.47864e-06
-9.41232e-06
-9.34623e-06
-9.28167e-06
-9.21949e-06
-9.15992e-06
-9.10269e-06
-9.04698e-06
-8.99162e-06
-8.9355e-06
-8.87767e-06
-8.81747e-06
-8.75463e-06
-8.68904e-06
-8.6207e-06
-8.54967e-06
-8.47588e-06
-8.39943e-06
-8.32015e-06
-8.23798e-06
-8.1528e-06
-8.06457e-06
-7.97327e-06
-7.87886e-06
-7.78099e-06
-7.67943e-06
-7.57388e-06
-7.46404e-06
-7.34978e-06
-7.2311e-06
-7.10835e-06
-6.98212e-06
-6.85322e-06
-6.72251e-06
-6.5908e-06
-6.45871e-06
-6.3266e-06
-6.19442e-06
-6.06179e-06
-5.92816e-06
-5.79289e-06
-5.65538e-06
-5.51524e-06
-5.37241e-06
-5.22705e-06
-5.07968e-06
-4.93082e-06
-4.78108e-06
-4.63082e-06
-4.48027e-06
-4.32962e-06
-4.17879e-06
-4.02779e-06
-3.87661e-06
-3.72533e-06
-3.57413e-06
-3.42312e-06
-3.27248e-06
-3.12227e-06
-2.97243e-06
-2.82284e-06
-2.67333e-06
-2.52371e-06
-2.37383e-06
-2.22348e-06
-2.07253e-06
-1.92088e-06
-1.76861e-06
-1.61582e-06
-1.46282e-06
-1.3101e-06
-1.15832e-06
-1.00834e-06
-8.61034e-07
-7.17264e-07
-5.7766e-07
-4.42461e-07
-3.11418e-07
-1.84083e-07
-6.06854e-08
4.46404e-08
-8.36267e-08
-4.16092e-07
-6.59247e-07
-8.54795e-07
-1.02005e-06
-1.16557e-06
-1.29788e-06
-1.42111e-06
-1.538e-06
-1.65049e-06
-1.76011e-06
-1.86814e-06
-1.97568e-06
-2.08349e-06
-2.19222e-06
-2.30231e-06
-2.41396e-06
-2.52734e-06
-2.64239e-06
-2.7589e-06
-2.87679e-06
-2.99576e-06
-3.11551e-06
-3.2359e-06
-3.35668e-06
-3.4776e-06
-3.59859e-06
-3.71952e-06
-3.84037e-06
-3.96126e-06
-4.0822e-06
-4.20331e-06
-4.32483e-06
-4.44692e-06
-4.56962e-06
-4.69314e-06
-4.81759e-06
-4.94288e-06
-5.06905e-06
-5.19607e-06
-5.32369e-06
-5.45163e-06
-5.57973e-06
-5.70765e-06
-5.83501e-06
-5.96161e-06
-6.08729e-06
-6.21185e-06
-6.33528e-06
-6.45779e-06
-6.57965e-06
-6.7012e-06
-6.82303e-06
-6.94578e-06
-7.06991e-06
-7.19578e-06
-7.32382e-06
-7.45429e-06
-7.58712e-06
-7.72206e-06
-7.85872e-06
-7.99649e-06
-8.13448e-06
-8.2718e-06
-8.40769e-06
-8.5415e-06
-8.67265e-06
-8.80088e-06
-8.92631e-06
-9.04928e-06
-9.17029e-06
-9.29008e-06
-9.4096e-06
-9.52981e-06
-9.65143e-06
-9.77496e-06
-9.90065e-06
-1.00285e-05
-1.01584e-05
-1.02897e-05
-1.0422e-05
-1.05544e-05
-1.06863e-05
-1.0817e-05
-1.09462e-05
-1.10735e-05
-1.11985e-05
-1.1321e-05
-1.14407e-05
-1.15574e-05
-1.16709e-05
-1.17806e-05
-1.18864e-05
-1.19883e-05
-1.20864e-05
-1.21809e-05
-1.22724e-05
-1.23615e-05
-1.24496e-05
-1.25375e-05
-1.26262e-05
-1.27162e-05
-1.28079e-05
-1.29015e-05
-1.29966e-05
-1.30923e-05
-1.31878e-05
-1.3282e-05
-1.33737e-05
-1.34616e-05
-1.35448e-05
-1.36224e-05
-1.36944e-05
-1.37607e-05
-1.38216e-05
-1.38774e-05
-1.39288e-05
-1.39762e-05
-1.40202e-05
-1.40611e-05
-1.40993e-05
-1.41349e-05
-1.4168e-05
-1.41981e-05
-1.42251e-05
-1.42486e-05
-1.42682e-05
-1.42836e-05
-1.4295e-05
-1.43026e-05
-1.4307e-05
-1.4309e-05
-1.43097e-05
-1.43101e-05
-1.43111e-05
-1.43134e-05
-1.43172e-05
-1.43224e-05
-1.43283e-05
-1.43343e-05
-1.43392e-05
-1.43421e-05
-1.43422e-05
-1.43391e-05
-1.43325e-05
-1.43227e-05
-1.431e-05
-1.42948e-05
-1.42779e-05
-1.42595e-05
-1.42398e-05
-1.42188e-05
-1.41964e-05
-1.41721e-05
-1.41456e-05
-1.41163e-05
-1.40842e-05
-1.40494e-05
-1.40124e-05
-1.39737e-05
-1.39339e-05
-1.38939e-05
-1.3854e-05
-1.38144e-05
-1.37747e-05
-1.37342e-05
-1.36921e-05
-1.36473e-05
-1.35986e-05
-1.35449e-05
-1.34855e-05
-1.34198e-05
-1.33478e-05
-1.32694e-05
-1.31859e-05
-1.30986e-05
-1.30095e-05
-1.29207e-05
-1.28338e-05
-1.27501e-05
-1.26698e-05
-1.25924e-05
-1.25168e-05
-1.24414e-05
-1.23646e-05
-1.22852e-05
-1.22023e-05
-1.21155e-05
-1.20248e-05
-1.19302e-05
-1.18318e-05
-1.17295e-05
-1.16234e-05
-1.15135e-05
-1.13997e-05
-1.12818e-05
-1.11598e-05
-1.10337e-05
-1.09032e-05
-1.07682e-05
-1.06281e-05
-1.04825e-05
-1.03309e-05
-1.01731e-05
-1.00091e-05
-9.83929e-06
-9.66461e-06
-9.48615e-06
-9.30513e-06
-9.12275e-06
-8.9399e-06
-8.75703e-06
-8.57422e-06
-8.39089e-06
-8.20616e-06
-8.01907e-06
-7.82879e-06
-7.63472e-06
-7.43673e-06
-7.23507e-06
-7.03039e-06
-6.82352e-06
-6.61521e-06
-6.40611e-06
-6.19655e-06
-5.98671e-06
-5.77663e-06
-5.5663e-06
-5.35576e-06
-5.1451e-06
-4.93458e-06
-4.72442e-06
-4.51475e-06
-4.30567e-06
-4.09722e-06
-3.88921e-06
-3.68143e-06
-3.47366e-06
-3.26568e-06
-3.05727e-06
-2.84828e-06
-2.63865e-06
-2.4284e-06
-2.21771e-06
-2.00696e-06
-1.79679e-06
-1.58809e-06
-1.38198e-06
-1.17972e-06
-9.82467e-07
-7.91074e-07
-6.05807e-07
-4.26259e-07
-2.51798e-07
-8.29148e-08
-2.67136e-09
-1.86187e-07
-5.26665e-07
-7.98774e-07
-1.02961e-06
-1.23164e-06
-1.41302e-06
-1.57929e-06
-1.7345e-06
-1.88173e-06
-2.02332e-06
-2.16112e-06
-2.29665e-06
-2.43113e-06
-2.56557e-06
-2.7008e-06
-2.83728e-06
-2.97541e-06
-3.11534e-06
-3.25698e-06
-3.4003e-06
-3.54506e-06
-3.69092e-06
-3.83766e-06
-3.98499e-06
-4.1326e-06
-4.28028e-06
-4.42783e-06
-4.57514e-06
-4.72229e-06
-4.86933e-06
-5.01634e-06
-5.1636e-06
-5.31138e-06
-5.45984e-06
-5.60927e-06
-5.7599e-06
-5.91181e-06
-6.06508e-06
-6.21982e-06
-6.37586e-06
-6.53293e-06
-6.6908e-06
-6.84911e-06
-7.00737e-06
-7.16518e-06
-7.32221e-06
-7.47807e-06
-7.63254e-06
-7.78569e-06
-7.93762e-06
-8.0885e-06
-8.23877e-06
-8.38916e-06
-8.54034e-06
-8.69294e-06
-8.84762e-06
-9.00492e-06
-9.16506e-06
-9.32797e-06
-9.49351e-06
-9.66126e-06
-9.83048e-06
-1.00002e-05
-1.01695e-05
-1.03375e-05
-1.05032e-05
-1.06659e-05
-1.08255e-05
-1.09819e-05
-1.11356e-05
-1.12871e-05
-1.14375e-05
-1.15877e-05
-1.1739e-05
-1.18922e-05
-1.20479e-05
-1.22067e-05
-1.23684e-05
-1.25326e-05
-1.26987e-05
-1.28661e-05
-1.30339e-05
-1.32011e-05
-1.33668e-05
-1.35307e-05
-1.36923e-05
-1.3851e-05
-1.40065e-05
-1.41585e-05
-1.43067e-05
-1.44508e-05
-1.45903e-05
-1.4725e-05
-1.48549e-05
-1.49801e-05
-1.51012e-05
-1.52187e-05
-1.53335e-05
-1.54469e-05
-1.55602e-05
-1.56744e-05
-1.57904e-05
-1.59086e-05
-1.60294e-05
-1.61521e-05
-1.62758e-05
-1.63993e-05
-1.65213e-05
-1.66404e-05
-1.6755e-05
-1.68639e-05
-1.69662e-05
-1.70615e-05
-1.71495e-05
-1.72306e-05
-1.7305e-05
-1.73735e-05
-1.74369e-05
-1.74958e-05
-1.75508e-05
-1.76022e-05
-1.76503e-05
-1.76952e-05
-1.77367e-05
-1.77744e-05
-1.78079e-05
-1.78369e-05
-1.7861e-05
-1.788e-05
-1.78941e-05
-1.7904e-05
-1.79108e-05
-1.79156e-05
-1.79197e-05
-1.79242e-05
-1.79301e-05
-1.79378e-05
-1.79469e-05
-1.7957e-05
-1.79669e-05
-1.79756e-05
-1.79818e-05
-1.79846e-05
-1.79835e-05
-1.79782e-05
-1.79691e-05
-1.79565e-05
-1.79411e-05
-1.79234e-05
-1.7904e-05
-1.7883e-05
-1.78603e-05
-1.78357e-05
-1.78085e-05
-1.77783e-05
-1.77445e-05
-1.77069e-05
-1.76657e-05
-1.76215e-05
-1.75753e-05
-1.75278e-05
-1.748e-05
-1.74324e-05
-1.73852e-05
-1.73379e-05
-1.72897e-05
-1.72394e-05
-1.71857e-05
-1.71272e-05
-1.70627e-05
-1.69909e-05
-1.69114e-05
-1.68238e-05
-1.67284e-05
-1.66266e-05
-1.652e-05
-1.64112e-05
-1.63026e-05
-1.61964e-05
-1.60939e-05
-1.59954e-05
-1.59003e-05
-1.5807e-05
-1.57135e-05
-1.56178e-05
-1.55186e-05
-1.54147e-05
-1.53056e-05
-1.51913e-05
-1.5072e-05
-1.49477e-05
-1.48187e-05
-1.46848e-05
-1.4546e-05
-1.44024e-05
-1.42537e-05
-1.41001e-05
-1.39413e-05
-1.37772e-05
-1.36073e-05
-1.34311e-05
-1.32478e-05
-1.30568e-05
-1.28577e-05
-1.26505e-05
-1.24357e-05
-1.22145e-05
-1.19883e-05
-1.17589e-05
-1.15276e-05
-1.12959e-05
-1.10642e-05
-1.08328e-05
-1.06008e-05
-1.03672e-05
-1.01306e-05
-9.88984e-06
-9.64425e-06
-9.39356e-06
-9.13815e-06
-8.87875e-06
-8.61653e-06
-8.35244e-06
-8.0873e-06
-7.82166e-06
-7.55568e-06
-7.28948e-06
-7.02303e-06
-6.75641e-06
-6.48979e-06
-6.22336e-06
-5.95741e-06
-5.69212e-06
-5.42749e-06
-5.16355e-06
-4.90014e-06
-4.63704e-06
-4.374e-06
-4.11079e-06
-3.84722e-06
-3.5831e-06
-3.31838e-06
-3.05311e-06
-2.78748e-06
-2.52199e-06
-2.25737e-06
-1.99474e-06
-1.73547e-06
-1.48112e-06
-1.23318e-06
-9.92716e-07
-7.60054e-07
-5.34654e-07
-3.15683e-07
-1.03881e-07
-4.24837e-08
-2.69431e-07
-6.26853e-07
-9.23606e-07
-1.18253e-06
-1.41387e-06
-1.62462e-06
-1.81962e-06
-2.00254e-06
-2.1764e-06
-2.34365e-06
-2.50636e-06
-2.66617e-06
-2.82443e-06
-2.98232e-06
-3.14064e-06
-3.30007e-06
-3.46103e-06
-3.62363e-06
-3.78797e-06
-3.95396e-06
-4.12131e-06
-4.2898e-06
-4.45911e-06
-4.62886e-06
-4.79877e-06
-4.96856e-06
-5.13798e-06
-5.30702e-06
-5.47566e-06
-5.64396e-06
-5.81221e-06
-5.98074e-06
-6.14981e-06
-6.31984e-06
-6.49125e-06
-6.66428e-06
-6.83913e-06
-7.01606e-06
-7.1951e-06
-7.37607e-06
-7.55876e-06
-7.74284e-06
-7.92776e-06
-8.11301e-06
-8.2981e-06
-8.48243e-06
-8.66544e-06
-8.84688e-06
-9.02668e-06
-9.20479e-06
-9.38144e-06
-9.55718e-06
-9.73267e-06
-9.90859e-06
-1.00857e-05
-1.0265e-05
-1.0447e-05
-1.06321e-05
-1.08203e-05
-1.10117e-05
-1.12058e-05
-1.14017e-05
-1.15985e-05
-1.17953e-05
-1.1991e-05
-1.21845e-05
-1.23753e-05
-1.2563e-05
-1.27475e-05
-1.29291e-05
-1.31088e-05
-1.32875e-05
-1.34665e-05
-1.36469e-05
-1.38296e-05
-1.40157e-05
-1.42054e-05
-1.43988e-05
-1.45953e-05
-1.47942e-05
-1.49947e-05
-1.51957e-05
-1.53961e-05
-1.55949e-05
-1.57916e-05
-1.59854e-05
-1.61758e-05
-1.63625e-05
-1.6545e-05
-1.67229e-05
-1.6896e-05
-1.70639e-05
-1.72262e-05
-1.7383e-05
-1.75344e-05
-1.76811e-05
-1.78238e-05
-1.79638e-05
-1.81023e-05
-1.82406e-05
-1.838e-05
-1.85216e-05
-1.8666e-05
-1.88131e-05
-1.89627e-05
-1.91137e-05
-1.92648e-05
-1.94144e-05
-1.95606e-05
-1.97019e-05
-1.98368e-05
-1.99641e-05
-2.00832e-05
-2.01937e-05
-2.02958e-05
-2.03898e-05
-2.04764e-05
-2.05565e-05
-2.06309e-05
-2.07004e-05
-2.07656e-05
-2.08269e-05
-2.08845e-05
-2.09382e-05
-2.09878e-05
-2.10328e-05
-2.10728e-05
-2.11071e-05
-2.11356e-05
-2.11584e-05
-2.1176e-05
-2.11895e-05
-2.12003e-05
-2.12099e-05
-2.12195e-05
-2.12303e-05
-2.12427e-05
-2.12568e-05
-2.12717e-05
-2.12864e-05
-2.12995e-05
-2.13098e-05
-2.13163e-05
-2.13182e-05
-2.13155e-05
-2.13083e-05
-2.12973e-05
-2.12832e-05
-2.12666e-05
-2.12481e-05
-2.12278e-05
-2.12056e-05
-2.11808e-05
-2.11528e-05
-2.1121e-05
-2.10846e-05
-2.10434e-05
-2.09978e-05
-2.09484e-05
-2.08964e-05
-2.08431e-05
-2.07894e-05
-2.07361e-05
-2.06832e-05
-2.06303e-05
-2.05764e-05
-2.05199e-05
-2.04595e-05
-2.03936e-05
-2.03205e-05
-2.02391e-05
-2.01485e-05
-2.00483e-05
-1.99392e-05
-1.98225e-05
-1.97003e-05
-1.95754e-05
-1.94507e-05
-1.93286e-05
-1.92106e-05
-1.90971e-05
-1.89871e-05
-1.88788e-05
-1.87697e-05
-1.86577e-05
-1.85408e-05
-1.84179e-05
-1.82886e-05
-1.81527e-05
-1.80106e-05
-1.78625e-05
-1.77087e-05
-1.75491e-05
-1.73836e-05
-1.72123e-05
-1.70351e-05
-1.68521e-05
-1.66631e-05
-1.64679e-05
-1.62658e-05
-1.60561e-05
-1.58379e-05
-1.56101e-05
-1.53723e-05
-1.51244e-05
-1.48671e-05
-1.46017e-05
-1.43301e-05
-1.40544e-05
-1.37767e-05
-1.34984e-05
-1.32206e-05
-1.29431e-05
-1.26653e-05
-1.23857e-05
-1.21027e-05
-1.18147e-05
-1.15209e-05
-1.12208e-05
-1.0915e-05
-1.06045e-05
-1.02905e-05
-9.97433e-06
-9.6569e-06
-9.33892e-06
-9.02069e-06
-8.70228e-06
-8.3837e-06
-8.06504e-06
-7.74648e-06
-7.42821e-06
-7.11046e-06
-6.79341e-06
-6.47705e-06
-6.16126e-06
-5.84592e-06
-5.53083e-06
-5.21578e-06
-4.90055e-06
-4.58503e-06
-4.26909e-06
-3.95264e-06
-3.63576e-06
-3.31869e-06
-3.00194e-06
-2.68641e-06
-2.37337e-06
-2.06445e-06
-1.7615e-06
-1.46627e-06
-1.18005e-06
-9.03247e-07
-6.35208e-07
-3.74935e-07
-1.23336e-07
-6.99582e-08
-3.32861e-07
-7.05833e-07
-1.02226e-06
-1.30365e-06
-1.5587e-06
-1.79359e-06
-2.01273e-06
-2.21948e-06
-2.41661e-06
-2.60656e-06
-2.79134e-06
-2.97264e-06
-3.15197e-06
-3.33041e-06
-3.50893e-06
-3.68824e-06
-3.86869e-06
-4.05061e-06
-4.23408e-06
-4.41897e-06
-4.60511e-06
-4.79226e-06
-4.98002e-06
-5.16807e-06
-5.35602e-06
-5.54353e-06
-5.73045e-06
-5.91669e-06
-6.1022e-06
-6.28717e-06
-6.47198e-06
-6.65696e-06
-6.84262e-06
-7.02954e-06
-7.21819e-06
-7.40898e-06
-7.60238e-06
-7.79865e-06
-7.99781e-06
-8.19978e-06
-8.40435e-06
-8.61101e-06
-8.81917e-06
-9.02824e-06
-9.23748e-06
-9.44609e-06
-9.65344e-06
-9.85909e-06
-1.00627e-05
-1.0264e-05
-1.04634e-05
-1.06614e-05
-1.08585e-05
-1.10556e-05
-1.12536e-05
-1.14534e-05
-1.16557e-05
-1.18611e-05
-1.20699e-05
-1.22822e-05
-1.24975e-05
-1.27152e-05
-1.29344e-05
-1.31542e-05
-1.33733e-05
-1.35907e-05
-1.38059e-05
-1.40183e-05
-1.4228e-05
-1.44351e-05
-1.46407e-05
-1.48456e-05
-1.50513e-05
-1.52589e-05
-1.54694e-05
-1.56838e-05
-1.59024e-05
-1.61252e-05
-1.63517e-05
-1.65811e-05
-1.68122e-05
-1.70439e-05
-1.7275e-05
-1.75046e-05
-1.77316e-05
-1.79552e-05
-1.8175e-05
-1.83906e-05
-1.86015e-05
-1.88072e-05
-1.90074e-05
-1.92017e-05
-1.93901e-05
-1.95724e-05
-1.97489e-05
-1.99203e-05
-2.00875e-05
-2.02518e-05
-2.04146e-05
-2.05774e-05
-2.07414e-05
-2.09079e-05
-2.10775e-05
-2.12501e-05
-2.14254e-05
-2.16025e-05
-2.17799e-05
-2.19559e-05
-2.21285e-05
-2.22958e-05
-2.24562e-05
-2.26083e-05
-2.27511e-05
-2.28841e-05
-2.30074e-05
-2.31212e-05
-2.32262e-05
-2.33233e-05
-2.34134e-05
-2.34976e-05
-2.35767e-05
-2.36513e-05
-2.37219e-05
-2.37884e-05
-2.38507e-05
-2.39081e-05
-2.39602e-05
-2.40062e-05
-2.40457e-05
-2.40788e-05
-2.41059e-05
-2.41279e-05
-2.41464e-05
-2.41628e-05
-2.41788e-05
-2.41954e-05
-2.42134e-05
-2.42329e-05
-2.42532e-05
-2.4273e-05
-2.4291e-05
-2.43058e-05
-2.43163e-05
-2.43218e-05
-2.43221e-05
-2.43176e-05
-2.43091e-05
-2.42974e-05
-2.42832e-05
-2.4267e-05
-2.42491e-05
-2.4229e-05
-2.42061e-05
-2.41792e-05
-2.41474e-05
-2.41102e-05
-2.40673e-05
-2.40191e-05
-2.39664e-05
-2.39107e-05
-2.38533e-05
-2.37956e-05
-2.37383e-05
-2.36816e-05
-2.36248e-05
-2.3567e-05
-2.35065e-05
-2.34414e-05
-2.33701e-05
-2.32909e-05
-2.32024e-05
-2.31036e-05
-2.29941e-05
-2.28747e-05
-2.27467e-05
-2.26127e-05
-2.24756e-05
-2.23387e-05
-2.22045e-05
-2.20747e-05
-2.19495e-05
-2.18278e-05
-2.17073e-05
-2.15854e-05
-2.14593e-05
-2.13271e-05
-2.11875e-05
-2.10402e-05
-2.0885e-05
-2.07223e-05
-2.05526e-05
-2.03761e-05
-2.01928e-05
-2.00029e-05
-1.98062e-05
-1.96028e-05
-1.93929e-05
-1.91763e-05
-1.89527e-05
-1.87212e-05
-1.84809e-05
-1.82305e-05
-1.7969e-05
-1.76954e-05
-1.74096e-05
-1.71125e-05
-1.68056e-05
-1.64913e-05
-1.6172e-05
-1.58505e-05
-1.55286e-05
-1.52074e-05
-1.48871e-05
-1.45667e-05
-1.42445e-05
-1.39185e-05
-1.3587e-05
-1.32486e-05
-1.29031e-05
-1.25509e-05
-1.21933e-05
-1.18316e-05
-1.14675e-05
-1.1102e-05
-1.07359e-05
-1.03697e-05
-1.00035e-05
-9.6372e-06
-9.27097e-06
-8.90494e-06
-8.5393e-06
-8.17418e-06
-7.80963e-06
-7.44565e-06
-7.08201e-06
-6.71858e-06
-6.35517e-06
-5.99166e-06
-5.62797e-06
-5.26404e-06
-4.89986e-06
-4.5354e-06
-4.17073e-06
-3.80611e-06
-3.44208e-06
-3.0796e-06
-2.72013e-06
-2.36552e-06
-2.01789e-06
-1.67925e-06
-1.35108e-06
-1.03385e-06
-7.26828e-07
-4.28893e-07
-1.41059e-07
-9.01702e-08
-3.82616e-07
-7.63381e-07
-1.0936e-06
-1.39212e-06
-1.66609e-06
-1.92074e-06
-2.16007e-06
-2.38716e-06
-2.60461e-06
-2.81457e-06
-3.01896e-06
-3.21948e-06
-3.4175e-06
-3.61418e-06
-3.81048e-06
-4.00702e-06
-4.20432e-06
-4.40272e-06
-4.60228e-06
-4.80297e-06
-5.00467e-06
-5.20707e-06
-5.40985e-06
-5.6126e-06
-5.81488e-06
-6.0164e-06
-6.21697e-06
-6.41639e-06
-6.61473e-06
-6.81228e-06
-7.00938e-06
-7.20658e-06
-7.4046e-06
-7.60411e-06
-7.80573e-06
-8.01019e-06
-8.21808e-06
-8.42971e-06
-8.64525e-06
-8.86468e-06
-9.08769e-06
-9.31374e-06
-9.54222e-06
-9.77229e-06
-1.0003e-05
-1.02333e-05
-1.04625e-05
-1.06899e-05
-1.09147e-05
-1.11369e-05
-1.13565e-05
-1.1574e-05
-1.17898e-05
-1.20049e-05
-1.22202e-05
-1.24368e-05
-1.26555e-05
-1.28771e-05
-1.31021e-05
-1.33307e-05
-1.35627e-05
-1.37977e-05
-1.40348e-05
-1.42731e-05
-1.45115e-05
-1.47492e-05
-1.49855e-05
-1.52197e-05
-1.54519e-05
-1.56823e-05
-1.59117e-05
-1.61412e-05
-1.63718e-05
-1.66048e-05
-1.68414e-05
-1.70824e-05
-1.73278e-05
-1.75779e-05
-1.7832e-05
-1.80892e-05
-1.83484e-05
-1.86081e-05
-1.88673e-05
-1.91247e-05
-1.93793e-05
-1.96302e-05
-1.98769e-05
-2.01189e-05
-2.03558e-05
-2.0587e-05
-2.08122e-05
-2.10311e-05
-2.12437e-05
-2.14501e-05
-2.16504e-05
-2.18455e-05
-2.20362e-05
-2.22241e-05
-2.24104e-05
-2.25968e-05
-2.27845e-05
-2.29748e-05
-2.31682e-05
-2.33649e-05
-2.35644e-05
-2.37658e-05
-2.39676e-05
-2.41682e-05
-2.43655e-05
-2.45573e-05
-2.47419e-05
-2.49177e-05
-2.50834e-05
-2.52383e-05
-2.53822e-05
-2.55153e-05
-2.56382e-05
-2.57519e-05
-2.58573e-05
-2.59558e-05
-2.60484e-05
-2.6136e-05
-2.62193e-05
-2.62984e-05
-2.63733e-05
-2.64435e-05
-2.65082e-05
-2.65666e-05
-2.66182e-05
-2.66627e-05
-2.67004e-05
-2.67323e-05
-2.67595e-05
-2.67837e-05
-2.68067e-05
-2.68297e-05
-2.68537e-05
-2.68787e-05
-2.69043e-05
-2.69291e-05
-2.69517e-05
-2.69707e-05
-2.6985e-05
-2.69938e-05
-2.6997e-05
-2.69952e-05
-2.69892e-05
-2.69802e-05
-2.6969e-05
-2.6956e-05
-2.69414e-05
-2.69245e-05
-2.69045e-05
-2.68801e-05
-2.685e-05
-2.68134e-05
-2.67703e-05
-2.6721e-05
-2.66667e-05
-2.66088e-05
-2.65491e-05
-2.64889e-05
-2.64292e-05
-2.63701e-05
-2.6311e-05
-2.62507e-05
-2.61876e-05
-2.61197e-05
-2.6045e-05
-2.59617e-05
-2.58685e-05
-2.57641e-05
-2.56485e-05
-2.5522e-05
-2.53865e-05
-2.52444e-05
-2.5099e-05
-2.49536e-05
-2.4811e-05
-2.4673e-05
-2.45394e-05
-2.4409e-05
-2.42792e-05
-2.41469e-05
-2.40093e-05
-2.38642e-05
-2.37102e-05
-2.3547e-05
-2.33747e-05
-2.31938e-05
-2.30046e-05
-2.28077e-05
-2.2603e-05
-2.23908e-05
-2.21711e-05
-2.1944e-05
-2.17096e-05
-2.14679e-05
-2.12184e-05
-2.09603e-05
-2.06923e-05
-2.04129e-05
-2.01204e-05
-1.9814e-05
-1.94934e-05
-1.91595e-05
-1.88141e-05
-1.846e-05
-1.81002e-05
-1.77378e-05
-1.73753e-05
-1.70141e-05
-1.66542e-05
-1.62946e-05
-1.59334e-05
-1.55682e-05
-1.51969e-05
-1.48179e-05
-1.44309e-05
-1.40365e-05
-1.3636e-05
-1.3231e-05
-1.28232e-05
-1.24142e-05
-1.20046e-05
-1.15949e-05
-1.11854e-05
-1.0776e-05
-1.03669e-05
-9.95815e-06
-9.54983e-06
-9.14203e-06
-8.73457e-06
-8.32733e-06
-7.92005e-06
-7.51256e-06
-7.10474e-06
-6.69659e-06
-6.2882e-06
-5.87968e-06
-5.47111e-06
-5.0626e-06
-4.65421e-06
-4.2462e-06
-3.83915e-06
-3.43404e-06
-3.03244e-06
-2.63641e-06
-2.24832e-06
-1.87044e-06
-1.50442e-06
-1.1508e-06
-8.08777e-07
-4.77111e-07
-1.56893e-07
-1.06924e-07
-4.20084e-07
-8.026e-07
-1.14168e-06
-1.45262e-06
-1.74125e-06
-2.01194e-06
-2.26814e-06
-2.51268e-06
-2.74781e-06
-2.9755e-06
-3.1975e-06
-3.41528e-06
-3.63015e-06
-3.84323e-06
-4.05533e-06
-4.26715e-06
-4.47924e-06
-4.69188e-06
-4.90522e-06
-5.11931e-06
-5.334e-06
-5.54904e-06
-5.76408e-06
-5.97865e-06
-6.19237e-06
-6.40492e-06
-6.61596e-06
-6.82535e-06
-7.03325e-06
-7.23992e-06
-7.44584e-06
-7.65176e-06
-7.85852e-06
-8.06695e-06
-8.27802e-06
-8.49267e-06
-8.71157e-06
-8.93524e-06
-9.164e-06
-9.39785e-06
-9.63643e-06
-9.87926e-06
-1.01256e-05
-1.03743e-05
-1.06242e-05
-1.08742e-05
-1.11233e-05
-1.13703e-05
-1.16145e-05
-1.18556e-05
-1.20935e-05
-1.23282e-05
-1.25603e-05
-1.27909e-05
-1.30208e-05
-1.32512e-05
-1.3483e-05
-1.37173e-05
-1.39548e-05
-1.41959e-05
-1.44406e-05
-1.46888e-05
-1.49398e-05
-1.51929e-05
-1.54473e-05
-1.5702e-05
-1.59564e-05
-1.62099e-05
-1.64624e-05
-1.67142e-05
-1.6966e-05
-1.72184e-05
-1.74727e-05
-1.77299e-05
-1.79911e-05
-1.82569e-05
-1.85275e-05
-1.88028e-05
-1.90822e-05
-1.93648e-05
-1.96494e-05
-1.99345e-05
-2.02189e-05
-2.05013e-05
-2.07807e-05
-2.10562e-05
-2.13271e-05
-2.1593e-05
-2.18534e-05
-2.21078e-05
-2.23561e-05
-2.25978e-05
-2.28331e-05
-2.3062e-05
-2.32848e-05
-2.35025e-05
-2.37159e-05
-2.39264e-05
-2.41355e-05
-2.43445e-05
-2.45548e-05
-2.47676e-05
-2.49833e-05
-2.52022e-05
-2.54238e-05
-2.56474e-05
-2.58714e-05
-2.60942e-05
-2.63137e-05
-2.65278e-05
-2.67345e-05
-2.6932e-05
-2.7119e-05
-2.72943e-05
-2.74575e-05
-2.76087e-05
-2.77484e-05
-2.78775e-05
-2.79972e-05
-2.8109e-05
-2.82141e-05
-2.83138e-05
-2.84089e-05
-2.84999e-05
-2.85868e-05
-2.86692e-05
-2.87463e-05
-2.88172e-05
-2.8881e-05
-2.89372e-05
-2.89861e-05
-2.90281e-05
-2.90645e-05
-2.90969e-05
-2.91271e-05
-2.91566e-05
-2.91863e-05
-2.92165e-05
-2.92466e-05
-2.92756e-05
-2.9302e-05
-2.93243e-05
-2.93413e-05
-2.93524e-05
-2.93576e-05
-2.93576e-05
-2.93535e-05
-2.93466e-05
-2.93379e-05
-2.9328e-05
-2.93167e-05
-2.93034e-05
-2.92867e-05
-2.92653e-05
-2.92377e-05
-2.92029e-05
-2.91606e-05
-2.91115e-05
-2.90567e-05
-2.89979e-05
-2.89369e-05
-2.88754e-05
-2.88144e-05
-2.8754e-05
-2.86936e-05
-2.86319e-05
-2.85673e-05
-2.84976e-05
-2.84209e-05
-2.83353e-05
-2.82393e-05
-2.81319e-05
-2.80127e-05
-2.78822e-05
-2.77423e-05
-2.75957e-05
-2.74455e-05
-2.72953e-05
-2.71477e-05
-2.70046e-05
-2.68656e-05
-2.67292e-05
-2.65925e-05
-2.64522e-05
-2.63053e-05
-2.61493e-05
-2.59832e-05
-2.58062e-05
-2.5619e-05
-2.5422e-05
-2.52157e-05
-2.50005e-05
-2.47767e-05
-2.45444e-05
-2.43038e-05
-2.40551e-05
-2.37986e-05
-2.35341e-05
-2.32614e-05
-2.29793e-05
-2.26863e-05
-2.23806e-05
-2.20603e-05
-2.17241e-05
-2.13717e-05
-2.10041e-05
-2.06232e-05
-2.02325e-05
-1.98352e-05
-1.94353e-05
-1.90354e-05
-1.86374e-05