/*--------------------------------*- C++ -*----------------------------------*\
| =========                 |                                                 |
| \\      /  F ield         | OpenFOAM: The Open Source CFD Toolbox           |
|  \\    /   O peration     | Version:  v2012                                 |
|   \\  /    A nd           | Website:  www.openfoam.com                      |
|    \\/     M anipulation  |                                                 |
\*---------------------------------------------------------------------------*/
FoamFile
{
    version     2.0;
    format      ascii;
    class       volVectorField;
    location    "0";
    object      U;
}
// * * * * * * * * * * * * * * * * * * * * * * * * * * * * * * * * * * * * * //

dimensions      [0 1 -1 0 0 0 0];


internalField   nonuniform List<vector> 
4000
(
(1 3.90049e-15 0)
(1 1.45027e-15 0)
(1 1.73046e-15 0)
(1 -1.66788e-17 0)
(1 -7.71884e-16 0)
(1 -5.60189e-15 0)
(1 -1.32959e-16 0)
(1 7.1374e-15 0)
(1 3.81495e-15 0)
(1 -5.2762e-15 0)
(1 -2.68026e-15 0)
(1 1.9013e-15 0)
(1 3.88921e-15 0)
(1 2.54843e-15 0)
(1 -2.4042e-15 0)
(1 -8.34689e-15 0)
(1 1.03827e-15 0)
(1 3.67332e-15 0)
(1 -9.32956e-17 0)
(1 -4.09595e-16 0)
(1 -4.48253e-15 0)
(1 -2.7635e-15 0)
(1 -1.77318e-15 0)
(1 -1.54621e-15 0)
(1 3.90204e-15 0)
(1 4.58426e-15 0)
(1 -2.06306e-16 0)
(1 1.07675e-15 0)
(1 -4.42599e-16 0)
(1 -6.37905e-16 0)
(1 -5.53601e-15 0)
(1 -6.92487e-15 0)
(1 -5.49849e-16 0)
(1 -2.21883e-15 0)
(1 -1.16372e-16 0)
(1 8.97293e-16 0)
(1 8.22654e-15 0)
(1 2.10325e-15 0)
(1 5.44532e-15 0)
(1 -2.6672e-15 0)
(1 -5.67655e-15 0)
(1 -5.42702e-15 0)
(1 3.31747e-15 0)
(1 3.04518e-15 0)
(1 2.15719e-15 0)
(1 -1.73065e-17 0)
(1 -4.12341e-15 0)
(1 9.21463e-16 0)
(1 2.09991e-15 0)
(1 4.30303e-15 0)
(1 2.0967e-15 0)
(1 3.71854e-15 0)
(1 3.14552e-15 0)
(1 2.17407e-15 0)
(1 2.25375e-15 0)
(1 3.02741e-16 0)
(1 -3.41855e-15 0)
(1 2.96522e-15 0)
(1 -1.70832e-15 0)
(1 2.22415e-15 0)
(1 -1.84276e-16 0)
(1 1.98344e-15 0)
(1 3.12382e-16 0)
(1 -1.62092e-15 0)
(1 -4.12567e-16 0)
(1 -2.27287e-15 0)
(1 -5.17183e-16 0)
(1 3.84491e-15 0)
(1 -2.95301e-15 0)
(1 -6.76957e-16 0)
(1 -2.40914e-15 0)
(1 9.27737e-16 0)
(1 -3.35274e-15 0)
(1 -4.05114e-15 0)
(1 -6.32664e-15 0)
(1 -3.11544e-15 0)
(1 -1.90257e-15 0)
(1 -2.93586e-16 0)
(1 -6.21162e-17 0)
(1 1.03536e-15 0)
(1 2.85381e-16 0)
(1 3.08937e-15 0)
(1 2.0292e-16 0)
(1 -7.41884e-15 0)
(1 -3.94437e-15 0)
(1 5.29882e-15 0)
(1 2.62463e-15 0)
(1 3.73734e-15 0)
(1 2.03717e-15 0)
(1 2.33043e-15 0)
(1 3.15791e-16 0)
(1 1.72876e-15 0)
(1 -4.86981e-16 0)
(1 -2.96004e-16 0)
(1 -1.46704e-15 0)
(1 4.33016e-15 0)
(1 -1.81847e-15 0)
(1 -1.65944e-15 0)
(1 -2.33042e-16 0)
(1 -2.21154e-15 0)
(1 2.62256e-15 0)
(1 2.99596e-15 0)
(1 2.12264e-15 0)
(1 1.57186e-15 0)
(1 -2.1402e-15 0)
(1 -7.10064e-15 0)
(1 -1.89806e-15 0)
(1 7.89636e-15 0)
(1 5.79447e-15 0)
(1 1.06587e-15 0)
(1 -5.49552e-15 0)
(1 4.79345e-16 0)
(1 4.25964e-15 0)
(1 7.79703e-16 0)
(1 -3.98572e-15 0)
(1 -1.09457e-14 0)
(1 3.28979e-15 0)
(1 6.61731e-15 0)
(1 -5.28192e-16 0)
(1 1.10712e-15 0)
(1 -3.64034e-15 0)
(1 8.61283e-18 0)
(1 3.7713e-15 0)
(1 3.31374e-16 0)
(1 3.83894e-16 0)
(1 -4.20872e-15 0)
(1 -7.32378e-15 0)
(1 -1.01497e-15 0)
(1 7.59693e-16 0)
(1 -2.07421e-16 0)
(1 1.23988e-15 0)
(1 -4.65686e-15 0)
(1 9.47136e-16 0)
(1 -3.4742e-16 0)
(1 -4.36036e-15 0)
(1 1.81286e-15 0)
(1 5.75463e-15 0)
(1 -1.23156e-15 0)
(1 -1.5411e-15 0)
(1 -4.0837e-15 0)
(1 -6.15909e-15 0)
(1 -1.2207e-15 0)
(1 4.60729e-15 0)
(1 8.02453e-15 0)
(1 4.97373e-15 0)
(1 -2.37515e-15 0)
(1 -3.79147e-15 0)
(1 -4.18644e-15 0)
(1 1.69095e-15 0)
(1 -2.12998e-15 0)
(1 -9.36663e-16 0)
(1 1.95648e-15 0)
(1 4.14876e-15 0)
(1 1.67648e-15 0)
(1 6.68991e-15 0)
(1 4.37776e-15 0)
(1 -1.4171e-15 0)
(1 6.87119e-16 0)
(1 -3.1278e-15 0)
(1 -2.00715e-15 0)
(1 -5.18678e-15 0)
(1 -3.55585e-15 0)
(1 5.77575e-15 0)
(1 4.16434e-15 0)
(1 -2.47083e-16 0)
(1 -7.58445e-15 0)
(1 -1.32805e-15 0)
(1 2.51162e-15 0)
(1 -3.17201e-15 0)
(1 -1.20413e-15 0)
(1 2.26096e-15 0)
(1 3.74573e-15 0)
(1 2.12997e-15 0)
(1 1.09059e-15 0)
(1 1.04598e-15 0)
(1 -4.18802e-15 0)
(1 1.34179e-15 0)
(1 2.13195e-15 0)
(1 5.22298e-15 0)
(1 4.92576e-15 0)
(1 -5.44013e-17 0)
(1 -7.17389e-16 0)
(1 1.01164e-15 0)
(1 -7.6655e-15 0)
(1 -4.16725e-15 0)
(1 6.44655e-15 0)
(1 5.27159e-15 0)
(1 1.39329e-15 0)
(1 -1.15543e-15 0)
(1 -9.82669e-16 0)
(1 -3.95286e-15 0)
(1 3.51758e-17 0)
(1 -5.88857e-16 0)
(1 1.6525e-15 0)
(1 -2.17591e-15 0)
(1 5.975e-15 0)
(1 -3.74667e-15 0)
(1 2.07709e-15 0)
(1 -4.20212e-15 0)
(1 -6.86053e-15 0)
(1 -4.31369e-15 0)
(1 4.41965e-15 0)
(1 -4.87823e-15 0)
(1 4.7092e-15 0)
(1 -4.64728e-15 0)
(1 8.35606e-16 0)
(1 2.81993e-15 0)
(1 2.66196e-15 0)
(1 4.12383e-15 0)
(1 4.09075e-15 0)
(1 -1.51698e-15 0)
(1 -3.86905e-16 0)
(1 1.04828e-14 0)
(1 1.2413e-15 0)
(1 -2.53862e-15 0)
(1 -7.25522e-15 0)
(1 -5.47689e-15 0)
(1 8.75402e-16 0)
(1 2.10415e-15 0)
(1 -2.90503e-15 0)
(1 -1.79253e-15 0)
(1 4.15333e-15 0)
(1 5.16395e-15 0)
(1 6.21151e-15 0)
(1 1.82088e-15 0)
(1 -2.05497e-15 0)
(1 -2.80955e-15 0)
(1 -2.62742e-16 0)
(1 5.25494e-15 0)
(1 1.10357e-15 0)
(1 6.27638e-15 0)
(1 -6.96863e-15 0)
(1 -1.25787e-15 0)
(1 -3.90297e-15 0)
(1 -1.26305e-15 0)
(1 4.34376e-16 0)
(1 -4.26937e-15 0)
(1 -5.7004e-15 0)
(1 -3.17577e-15 0)
(1 -6.26642e-16 0)
(1 -3.42979e-15 0)
(1 -1.46533e-16 0)
(1 1.90654e-15 0)
(1 6.46259e-15 0)
(1 7.48728e-15 0)
(1 1.21913e-15 0)
(1 7.64982e-15 0)
(1 -1.99812e-15 0)
(1 6.74712e-16 0)
(1 -1.67224e-15 0)
(1 2.23708e-15 0)
(1 9.50658e-16 0)
(1 3.18019e-15 0)
(1 2.27592e-15 0)
(1 7.64041e-15 0)
(1 5.85381e-15 0)
(1 1.68354e-15 0)
(1 -6.18261e-16 0)
(1 -3.49307e-15 0)
(1 -6.03661e-15 0)
(1 -2.5104e-15 0)
(1 -1.13117e-15 0)
(1 4.98961e-15 0)
(1 6.71084e-15 0)
(1 -3.35975e-15 0)
(1 -5.44493e-15 0)
(1 2.68602e-17 0)
(1 -1.59882e-15 0)
(1 -3.01135e-15 0)
(1 -1.8742e-15 0)
(1 -1.65666e-15 0)
(1 -1.69648e-15 0)
(1 5.67454e-15 0)
(1 2.30908e-15 0)
(1 -2.84558e-15 0)
(1 -5.20666e-15 0)
(1 -1.99506e-15 0)
(1 -8.92828e-16 0)
(1 4.06266e-15 0)
(1 1.72841e-15 0)
(1 -1.02909e-15 0)
(1 -1.6901e-15 0)
(1 4.78888e-16 0)
(1 -3.04303e-15 0)
(1 -1.35665e-15 0)
(1 1.37015e-15 0)
(1 3.34111e-15 0)
(1 7.87959e-16 0)
(1 -2.63508e-15 0)
(1 -1.60909e-15 0)
(1 -8.17061e-16 0)
(1 4.2771e-16 0)
(1 1.7927e-15 0)
(1 8.23484e-15 0)
(1 -7.85311e-16 0)
(1 1.28095e-15 0)
(1 -3.07343e-15 0)
(1 -1.56704e-16 0)
(1 -5.79615e-15 0)
(1 -5.66641e-15 0)
(1 7.25885e-16 0)
(1 -6.18471e-15 0)
(1 -4.59611e-15 0)
(1 -3.9756e-15 0)
(1 1.2501e-15 0)
(1 9.3306e-15 0)
(1 8.53278e-15 0)
(1 2.06027e-17 0)
(1 2.35981e-15 0)
(1 -3.40767e-15 0)
(1 5.07088e-15 0)
(1 -4.65188e-15 0)
(1 5.18879e-15 0)
(1 1.16705e-14 0)
(1 5.59313e-15 0)
(1 4.77144e-15 0)
(1 -6.6539e-15 0)
(1 -6.88275e-15 0)
(1 4.07737e-15 0)
(1 -5.19081e-15 0)
(1 4.65495e-16 0)
(1 2.56369e-15 0)
(1 2.50461e-15 0)
(1 8.13257e-15 0)
(1 7.67769e-15 0)
(1 1.25257e-14 0)
(1 4.32234e-15 0)
(1 6.63649e-15 0)
(1 3.26219e-15 0)
(1 -2.23409e-15 0)
(1 5.38525e-16 0)
(1 -1.48019e-14 0)
(1 -3.6103e-15 0)
(1 -9.00283e-15 0)
(1 1.86841e-15 0)
(1 -6.28601e-15 0)
(1 -4.17532e-15 0)
(1 -5.48137e-16 0)
(1 2.04558e-15 0)
(1 -4.85172e-15 0)
(1 2.82541e-15 0)
(1 -1.3014e-15 0)
(1 3.56797e-15 0)
(1 -4.16083e-15 0)
(1 3.03049e-15 0)
(1 6.52207e-15 0)
(1 6.80413e-15 0)
(1 7.6027e-15 0)
(1 3.48546e-15 0)
(1 2.62094e-15 0)
(1 3.27172e-15 0)
(1 4.70943e-15 0)
(1 2.99807e-15 0)
(1 7.27689e-15 0)
(1 5.01061e-15 0)
(1 7.1647e-16 0)
(1 -2.12958e-15 0)
(1 -8.76598e-16 0)
(1 1.83895e-15 0)
(1 -3.36873e-15 0)
(1 1.61856e-15 0)
(1 1.01458e-15 0)
(1 1.86412e-15 0)
(1 -1.76441e-15 0)
(1 1.10256e-15 0)
(1 3.23102e-15 0)
(1 -2.36151e-15 0)
(1 -7.7765e-15 0)
(1 -6.56324e-15 0)
(1 -3.63387e-15 0)
(1 -2.84343e-15 0)
(1 -3.05123e-15 0)
(1 2.13208e-15 0)
(1 -1.12959e-15 0)
(1 -1.03384e-14 0)
(1 -3.47578e-15 0)
(1 1.88823e-15 0)
(1 7.32339e-16 0)
(1 9.33495e-16 0)
(1 -2.1569e-15 0)
(1 3.21142e-15 0)
(1 9.50871e-17 0)
(1 -1.46685e-16 0)
(1 -2.28819e-15 0)
(1 -1.24225e-15 0)
(1 4.11817e-15 0)
(1 4.58819e-15 0)
(1 7.37915e-15 0)
(1 5.81241e-15 0)
(1 2.47904e-15 0)
(1 4.29763e-15 0)
(1 7.84291e-16 0)
(1 3.5797e-15 0)
(1 3.76007e-15 0)
(1 -8.73735e-16 0)
(1 -3.10484e-15 0)
(1 -4.7831e-15 0)
(1 -9.9017e-15 0)
(1 -6.93333e-15 0)
(1 -1.86807e-16 0)
(1 5.00102e-15 0)
(1 -2.72607e-15 0)
(1 1.56034e-15 0)
(1 -2.58416e-15 0)
(1 4.72478e-15 0)
(1 8.04713e-16 0)
(1 -1.48117e-15 0)
(1 -3.55652e-15 0)
(1 -5.51401e-15 0)
(1 -5.01607e-15 0)
(1 1.46955e-14 0)
(1 3.00996e-15 0)
(1 1.97823e-15 0)
(1 1.81093e-15 0)
(1 5.10224e-15 0)
(1 4.16792e-15 0)
(1 -2.4054e-16 0)
(1 -5.87284e-15 0)
(1 -6.4561e-15 0)
(1 -4.18946e-15 0)
(1 5.26337e-15 0)
(1 -2.04445e-15 0)
(1 -4.08884e-15 0)
(1 4.12899e-15 0)
(1 7.94559e-15 0)
(1 6.69324e-15 0)
(1 2.39875e-15 0)
(1 8.86903e-15 0)
(1 4.12898e-15 0)
(1 2.99481e-15 0)
(1 2.30174e-15 0)
(1 -3.90077e-16 0)
(1 -2.42683e-15 0)
(1 -1.14604e-15 0)
(1 -8.47538e-15 0)
(1 -1.22129e-14 0)
(1 -1.03385e-14 0)
(1 -4.71325e-15 0)
(1 -3.01105e-15 0)
(1 -2.48513e-15 0)
(1 1.66072e-15 0)
(1 -3.38102e-15 0)
(1 2.9844e-15 0)
(1 9.30614e-16 0)
(1 -2.81849e-16 0)
(1 1.75259e-15 0)
(1 -5.10189e-16 0)
(1 9.55425e-15 0)
(1 3.97224e-15 0)
(1 2.73981e-15 0)
(1 2.13622e-15 0)
(1 3.31064e-15 0)
(1 3.06477e-16 0)
(1 5.05912e-15 0)
(1 9.79492e-16 0)
(1 2.05698e-17 0)
(1 2.19246e-15 0)
(1 -8.99846e-16 0)
(1 2.18497e-15 0)
(1 -7.58838e-17 0)
(1 -1.25285e-15 0)
(1 2.15696e-15 0)
(1 1.09002e-15 0)
(1 4.14981e-15 0)
(1 1.24134e-14 0)
(1 5.3787e-15 0)
(1 6.8707e-16 0)
(1 -6.8534e-15 0)
(1 -1.9021e-15 0)
(1 -5.10715e-15 0)
(1 -2.13938e-15 0)
(1 5.50205e-16 0)
(1 2.08282e-15 0)
(1 -1.82871e-15 0)
(1 -2.20676e-15 0)
(1 -9.86314e-16 0)
(1 -2.96697e-18 0)
(1 -1.39937e-15 0)
(1 1.47196e-15 0)
(1 3.38599e-15 0)
(1 1.09625e-15 0)
(1 -2.23713e-15 0)
(1 -2.46858e-15 0)
(1 4.83847e-17 0)
(1 6.05351e-15 0)
(1 2.91631e-15 0)
(1 4.32242e-15 0)
(1 3.25081e-15 0)
(1 4.30207e-15 0)
(1 1.81419e-15 0)
(1 6.16033e-15 0)
(1 -8.9617e-16 0)
(1 2.3843e-15 0)
(1 1.62879e-15 0)
(1 4.94705e-15 0)
(1 -2.59292e-15 0)
(1 -1.24058e-15 0)
(1 -5.77799e-15 0)
(1 -1.91256e-15 0)
(1 5.17058e-15 0)
(1 -1.04111e-15 0)
(1 3.73831e-15 0)
(1 3.82904e-15 0)
(1 3.90211e-15 0)
(1 -4.20676e-15 0)
(1 -9.84476e-15 0)
(1 -2.44622e-15 0)
(1 5.60694e-16 0)
(1 -1.31185e-15 0)
(1 3.62096e-16 0)
(1 5.84406e-15 0)
(1 1.37349e-14 0)
(1 7.28389e-15 0)
(1 -4.07654e-15 0)
(1 3.54054e-15 0)
(1 -3.24665e-15 0)
(1 2.01227e-15 0)
(1 -3.44657e-15 0)
(1 -1.05128e-14 0)
(1 -3.90872e-15 0)
(1 2.23794e-15 0)
(1 9.35721e-15 0)
(1 5.54155e-15 0)
(1 5.79227e-15 0)
(1 5.23399e-15 0)
(1 2.85991e-15 0)
(1 4.10349e-15 0)
(1 4.18063e-15 0)
(1 4.74824e-15 0)
(1 8.01977e-15 0)
(1 -4.51481e-15 0)
(1 -4.75374e-16 0)
(1 -4.3078e-15 0)
(1 9.30518e-16 0)
(1 -3.77001e-15 0)
(1 8.64165e-17 0)
(1 -8.66635e-15 0)
(1 -3.23548e-15 0)
(1 -4.56829e-15 0)
(1 2.43102e-15 0)
(1 -5.52534e-15 0)
(1 3.4026e-15 0)
(1 1.63794e-15 0)
(1 1.02446e-14 0)
(1 2.36578e-15 0)
(1 -2.79039e-15 0)
(1 1.08157e-15 0)
(1 5.08902e-15 0)
(1 4.97116e-15 0)
(1 8.17684e-15 0)
(1 3.40035e-15 0)
(1 4.75391e-15 0)
(1 3.51562e-15 0)
(1 5.75891e-15 0)
(1 4.43322e-15 0)
(1 1.9614e-15 0)
(1 -4.0516e-15 0)
(1 -3.39266e-15 0)
(1 -1.01672e-15 0)
(1 6.80689e-15 0)
(1 5.90149e-15 0)
(1 3.16852e-15 0)
(1 -4.67231e-15 0)
(1 6.42792e-15 0)
(1 6.50429e-15 0)
(1 5.05588e-15 0)
(1 7.22737e-15 0)
(1 6.46808e-15 0)
(1 1.13218e-14 0)
(1 1.15883e-14 0)
(1 9.18894e-15 0)
(1 -2.3949e-17 0)
(1 4.89114e-17 0)
(1 -4.17791e-15 0)
(1 -4.88496e-15 0)
(1 -6.91089e-15 0)
(1 -5.5824e-15 0)
(1 -1.4122e-15 0)
(1 1.48718e-15 0)
(1 4.67187e-15 0)
(1 -1.97022e-16 0)
(1 4.0536e-15 0)
(1 -5.96187e-16 0)
(1 -9.62665e-16 0)
(1 -1.20333e-15 0)
(1 -4.26745e-15 0)
(1 -2.63391e-15 0)
(1 -3.20638e-16 0)
(1 -7.38728e-16 0)
(1 4.14366e-15 0)
(1 2.91563e-15 0)
(1 2.09711e-15 0)
(1 3.00786e-15 0)
(1 7.89986e-15 0)
(1 7.345e-15 0)
(1 4.62943e-16 0)
(1 6.07797e-15 0)
(1 3.81825e-15 0)
(1 9.08445e-15 0)
(1 8.01127e-15 0)
(1 -1.78627e-15 0)
(1 5.30137e-16 0)
(1 4.99185e-15 0)
(1 5.65087e-15 0)
(1 -6.23393e-17 0)
(1 -4.5162e-15 0)
(1 9.50929e-16 0)
(1 4.49444e-15 0)
(1 1.02482e-15 0)
(1 4.05859e-15 0)
(1 -3.88071e-15 0)
(1 5.654e-16 0)
(1 -2.36375e-15 0)
(1 3.74557e-15 0)
(1 4.12963e-16 0)
(1 -6.95476e-16 0)
(1 -2.28876e-16 0)
(1 -9.71511e-16 0)
(1 3.18057e-15 0)
(1 5.6659e-15 0)
(1 2.23531e-15 0)
(1 5.88819e-15 0)
(1 3.99835e-16 0)
(1 -9.14066e-16 0)
(1 -1.04351e-14 0)
(1 -6.22577e-15 0)
(1 6.03431e-15 0)
(1 1.79888e-15 0)
(1 7.10924e-15 0)
(1 8.03766e-15 0)
(1 5.61853e-15 0)
(1 1.21733e-15 0)
(1 -8.96531e-16 0)
(1 -2.58535e-15 0)
(1 -3.46229e-15 0)
(1 -4.37888e-15 0)
(1 -3.25669e-15 0)
(1 1.30828e-15 0)
(1 -1.94419e-15 0)
(1 -3.11351e-16 0)
(1 1.53874e-15 0)
(1 1.77614e-14 0)
(1 9.27618e-15 0)
(1 6.383e-15 0)
(1 -8.17533e-15 0)
(1 -5.66473e-15 0)
(1 -4.70697e-15 0)
(1 2.61847e-15 0)
(1 6.43147e-15 0)
(1 5.80185e-15 0)
(1 4.98911e-15 0)
(1 -1.42652e-15 0)
(1 3.42533e-15 0)
(1 -2.25681e-16 0)
(1 4.35428e-15 0)
(1 7.48492e-17 0)
(1 2.23075e-15 0)
(1 -2.90161e-16 0)
(1 2.9147e-15 0)
(1 5.21443e-15 0)
(1 9.23097e-15 0)
(1 3.0635e-15 0)
(1 2.49264e-15 0)
(1 7.05715e-16 0)
(1 -1.07053e-15 0)
(1 1.82758e-15 0)
(1 8.72443e-16 0)
(1 4.33413e-15 0)
(1 3.0834e-15 0)
(1 9.86521e-15 0)
(1 8.34918e-15 0)
(1 -1.25478e-15 0)
(1 -5.2553e-15 0)
(1 -1.02683e-17 0)
(1 1.51171e-15 0)
(1 3.71133e-15 0)
(1 9.11606e-15 0)
(1 1.32294e-15 0)
(1 2.23851e-16 0)
(1 -2.25031e-15 0)
(1 5.59072e-15 0)
(1 3.89901e-15 0)
(1 1.31797e-15 0)
(1 1.31834e-15 0)
(1 -2.65353e-15 0)
(1 2.6066e-15 0)
(1 3.61879e-15 0)
(1 6.37417e-15 0)
(1 4.38654e-15 0)
(1 7.47118e-15 0)
(1 1.11633e-15 0)
(1 4.4588e-15 0)
(1 4.63238e-15 0)
(1 1.11488e-14 0)
(1 4.71353e-15 0)
(1 6.64901e-15 0)
(1 9.28768e-15 0)
(1 1.05157e-14 0)
(1 6.0283e-15 0)
(1 6.16455e-15 0)
(1 2.50657e-16 0)
(1 -1.63238e-15 0)
(1 -4.75806e-15 0)
(1 -2.15305e-15 0)
(1 3.40167e-15 0)
(1 3.89656e-15 0)
(1 1.75806e-15 0)
(1 4.44402e-15 0)
(1 -4.93909e-15 0)
(1 -1.48323e-16 0)
(1 -4.23591e-15 0)
(1 -2.88477e-15 0)
(1 3.42074e-15 0)
(1 1.35472e-14 0)
(1 1.7707e-15 0)
(1 8.23102e-15 0)
(1 1.30537e-15 0)
(1 6.52733e-15 0)
(1 7.5899e-15 0)
(1 7.75288e-16 0)
(1 6.65125e-16 0)
(1 -1.02956e-14 0)
(1 -1.22181e-14 0)
(1 -1.03999e-14 0)
(1 -1.00478e-14 0)
(1 -5.78029e-15 0)
(1 9.25777e-15 0)
(1 6.1919e-15 0)
(1 1.20552e-14 0)
(1 3.59048e-15 0)
(1 9.18536e-15 0)
(1 -9.72639e-16 0)
(1 -5.22939e-15 0)
(1 -2.24875e-15 0)
(1 1.37535e-15 0)
(1 -6.8889e-15 0)
(1 1.4729e-15 0)
(1 2.75295e-15 0)
(1 3.10891e-15 0)
(1 -1.37013e-15 0)
(1 5.91006e-15 0)
(1 -5.52314e-15 0)
(1 -2.79675e-15 0)
(1 -6.52041e-15 0)
(1 -1.61915e-16 0)
(1 4.1241e-15 0)
(1 3.54271e-15 0)
(1 6.62041e-15 0)
(1 8.90417e-15 0)
(1 3.66217e-15 0)
(1 8.34088e-15 0)
(1 2.3146e-15 0)
(1 7.67318e-15 0)
(1 2.24875e-15 0)
(1 6.25495e-15 0)
(1 4.38446e-15 0)
(1 5.34289e-15 0)
(1 -9.74022e-16 0)
(1 -1.47509e-15 0)
(1 -8.97777e-16 0)
(1 1.5873e-15 0)
(1 9.91656e-15 0)
(1 1.0149e-14 0)
(1 7.48741e-15 0)
(1 2.36927e-15 0)
(1 4.7105e-15 0)
(1 6.82709e-15 0)
(1 2.62354e-15 0)
(1 1.13088e-15 0)
(1 3.89414e-15 0)
(1 3.05848e-15 0)
(1 6.35071e-15 0)
(1 6.12986e-15 0)
(1 9.78132e-16 0)
(1 3.45571e-15 0)
(1 5.86157e-15 0)
(1 4.65998e-15 0)
(1 -2.43329e-15 0)
(1 1.20675e-16 0)
(1 -4.49405e-15 0)
(1 -2.75357e-16 0)
(1 -6.31957e-16 0)
(1 -5.92117e-16 0)
(1 1.25967e-15 0)
(1 3.44596e-15 0)
(1 4.18883e-15 0)
(1 5.09909e-15 0)
(1 -1.52812e-15 0)
(1 2.03798e-15 0)
(1 5.37345e-15 0)
(1 2.54761e-15 0)
(1 3.73127e-15 0)
(1 5.82853e-16 0)
(1 5.03113e-15 0)
(1 9.31879e-15 0)
(1 1.15382e-14 0)
(1 1.09698e-14 0)
(1 1.39784e-14 0)
(1 6.59571e-15 0)
(1 1.09055e-14 0)
(1 -2.06355e-15 0)
(1 -4.53535e-15 0)
(1 -5.41431e-15 0)
(1 -1.00236e-14 0)
(1 5.17793e-16 0)
(1 7.65349e-15 0)
(1 8.16108e-15 0)
(1 4.10846e-15 0)
(1 -3.73077e-15 0)
(1 -1.14652e-15 0)
(1 -6.44832e-15 0)
(1 -5.49131e-16 0)
(1 6.69845e-15 0)
(1 1.57549e-14 0)
(1 4.51222e-15 0)
(1 6.70012e-15 0)
(1 -2.16834e-15 0)
(1 7.11858e-15 0)
(1 1.17374e-15 0)
(1 -3.67138e-15 0)
(1 -1.00654e-14 0)
(1 -1.33076e-15 0)
(1 6.45252e-15 0)
(1 3.66201e-16 0)
(1 -7.64566e-15 0)
(1 1.11076e-15 0)
(1 2.91686e-15 0)
(1 3.46565e-15 0)
(1 1.62715e-16 0)
(1 3.89023e-15 0)
(1 -4.4109e-15 0)
(1 -4.31604e-15 0)
(1 -1.2297e-14 0)
(1 -3.83286e-15 0)
(1 2.81728e-15 0)
(1 5.26076e-15 0)
(1 4.1883e-15 0)
(1 3.51376e-15 0)
(1 -2.12738e-15 0)
(1 -6.46945e-16 0)
(1 2.12263e-15 0)
(1 -5.8239e-15 0)
(1 -1.73161e-16 0)
(1 4.02478e-16 0)
(1 1.33528e-14 0)
(1 1.08287e-14 0)
(1 8.63877e-15 0)
(1 -1.49616e-15 0)
(1 7.11701e-15 0)
(1 7.50772e-16 0)
(1 6.57179e-15 0)
(1 7.30116e-15 0)
(1 6.93335e-15 0)
(1 1.09672e-14 0)
(1 6.04994e-15 0)
(1 9.33704e-15 0)
(1 -8.1463e-16 0)
(1 -4.88795e-15 0)
(1 6.28454e-15 0)
(1 -3.95073e-16 0)
(1 2.95903e-15 0)
(1 -4.40238e-15 0)
(1 4.81291e-16 0)
(1 -3.15301e-15 0)
(1 2.74381e-15 0)
(1 2.2018e-15 0)
(1 1.04335e-14 0)
(1 2.04165e-14 0)
(1 1.11517e-14 0)
(1 1.80925e-14 0)
(1 1.22328e-14 0)
(1 1.1012e-14 0)
(1 1.01358e-14 0)
(1 1.72479e-15 0)
(1 1.25443e-15 0)
(1 6.47349e-16 0)
(1 -1.3937e-17 0)
(1 5.77492e-15 0)
(1 7.31073e-15 0)
(1 -2.25501e-15 0)
(1 -1.16127e-16 0)
(1 8.30561e-16 0)
(1 4.12117e-15 0)
(1 -1.42113e-16 0)
(1 -1.96946e-15 0)
(1 -1.83699e-16 0)
(1 4.00134e-16 0)
(1 -2.58701e-15 0)
(1 2.29133e-15 0)
(1 1.48579e-15 0)
(1 1.4579e-15 0)
(1 3.90588e-15 0)
(1 3.92673e-15 0)
(1 8.22263e-15 0)
(1 1.31902e-14 0)
(1 1.73646e-14 0)
(1 1.90266e-14 0)
(1 2.09425e-14 0)
(1 2.19735e-14 0)
(1 2.08261e-14 0)
(1 -2.44589e-16 0)
(1 3.80694e-16 0)
(1 3.9901e-15 0)
(1 1.47778e-15 0)
(1 -3.74327e-16 0)
(1 -2.13108e-15 0)
(1 2.62887e-15 0)
(1 -2.2489e-15 0)
(1 5.35685e-15 0)
(1 8.60656e-16 0)
(1 4.45331e-15 0)
(1 -2.96079e-15 0)
(1 1.68387e-15 0)
(1 -1.90775e-15 0)
(1 1.15362e-15 0)
(1 -2.86397e-15 0)
(1 -3.5526e-15 0)
(1 3.18859e-15 0)
(1 4.58472e-16 0)
(1 6.73604e-15 0)
(1 -7.6735e-15 0)
(1 -4.14072e-15 0)
(1 2.0865e-15 0)
(1 3.92732e-15 0)
(1 -5.66559e-16 0)
(1 7.07455e-15 0)
(1 4.47883e-15 0)
(1 4.69966e-15 0)
(1 -4.88703e-15 0)
(1 3.49464e-15 0)
(1 -2.6208e-15 0)
(1 7.9557e-15 0)
(1 -1.82957e-15 0)
(1 2.28975e-17 0)
(1 -9.71258e-15 0)
(1 -1.19373e-15 0)
(1 -3.55986e-15 0)
(1 -3.64711e-15 0)
(1 -2.82422e-15 0)
(1 6.681e-15 0)
(1 -1.24587e-15 0)
(1 1.85518e-15 0)
(1 1.15193e-15 0)
(1 5.57544e-15 0)
(1 -3.48425e-15 0)
(1 -2.41808e-15 0)
(1 4.08956e-15 0)
(1 4.10728e-16 0)
(1 5.99471e-15 0)
(1 7.42392e-15 0)
(1 9.12215e-15 0)
(1 4.99787e-15 0)
(1 6.85944e-15 0)
(1 5.00942e-15 0)
(1 2.69758e-15 0)
(1 5.65977e-15 0)
(1 2.0621e-15 0)
(1 2.43171e-15 0)
(1 1.14577e-14 0)
(1 8.61808e-15 0)
(1 5.13524e-15 0)
(1 2.19204e-16 0)
(1 6.20048e-15 0)
(1 5.04451e-16 0)
(1 2.93599e-15 0)
(1 4.42391e-15 0)
(1 7.15062e-15 0)
(1 1.83989e-14 0)
(1 2.18523e-14 0)
(1 1.46134e-14 0)
(1 4.33945e-15 0)
(1 7.85964e-15 0)
(1 1.2947e-15 0)
(1 1.89215e-16 0)
(1 1.54795e-15 0)
(1 5.23397e-15 0)
(1 1.08518e-14 0)
(1 8.18033e-15 0)
(1 3.67396e-15 0)
(1 8.10838e-16 0)
(1 3.57921e-15 0)
(1 4.85991e-16 0)
(1 -3.06785e-15 0)
(1 -1.79469e-15 0)
(1 -8.51181e-16 0)
(1 2.22318e-15 0)
(1 4.06818e-15 0)
(1 7.54536e-15 0)
(1 3.94964e-15 0)
(1 1.77915e-15 0)
(1 3.70102e-15 0)
(1 4.82451e-15 0)
(1 8.39216e-15 0)
(1 1.22895e-14 0)
(1 1.79732e-14 0)
(1 1.1134e-14 0)
(1 1.5965e-14 0)
(1 1.20196e-14 0)
(1 2.64899e-14 0)
(1 2.55369e-14 0)
(1 -9.65026e-16 0)
(1 1.58945e-15 0)
(1 -4.0711e-15 0)
(1 2.17974e-16 0)
(1 -5.00993e-15 0)
(1 -2.45879e-15 0)
(1 -3.87989e-15 0)
(1 -3.81513e-15 0)
(1 5.26913e-15 0)
(1 4.91721e-15 0)
(1 6.87004e-15 0)
(1 1.7687e-15 0)
(1 8.41726e-17 0)
(1 -1.07764e-14 0)
(1 -1.15447e-15 0)
(1 -1.52268e-15 0)
(1 7.92528e-15 0)
(1 2.51616e-16 0)
(1 4.6823e-15 0)
(1 4.76557e-15 0)
(1 5.41072e-15 0)
(1 8.36003e-16 0)
(1 -7.25165e-15 0)
(1 -3.36018e-15 0)
(1 5.0809e-15 0)
(1 -1.6074e-15 0)
(1 -3.39272e-15 0)
(1 -5.88954e-15 0)
(1 -1.96737e-15 0)
(1 -5.1861e-15 0)
(1 -3.68747e-15 0)
(1 7.65966e-15 0)
(1 7.77248e-15 0)
(1 5.1007e-15 0)
(1 -8.871e-15 0)
(1 -8.43674e-16 0)
(1 -5.76779e-16 0)
(1 -6.75505e-16 0)
(1 9.09472e-17 0)
(1 -1.08158e-15 0)
(1 -4.0268e-15 0)
(1 -1.37279e-15 0)
(1 -3.57348e-16 0)
(1 -1.14422e-15 0)
(1 -1.99637e-15 0)
(1 -6.11161e-15 0)
(1 7.35029e-15 0)
(1 5.01987e-15 0)
(1 5.76099e-15 0)
(1 1.39468e-14 0)
(1 1.77609e-14 0)
(1 1.26068e-14 0)
(1 1.02215e-14 0)
(1 9.91008e-16 0)
(1 1.19322e-15 0)
(1 -1.06384e-15 0)
(1 -9.63972e-16 0)
(1 1.99549e-15 0)
(1 2.94977e-16 0)
(1 9.2301e-15 0)
(1 7.51558e-15 0)
(1 7.54062e-15 0)
(1 6.22597e-15 0)
(1 1.66896e-15 0)
(1 2.30509e-15 0)
(1 9.99023e-15 0)
(1 7.29371e-15 0)
(1 4.23848e-16 0)
(1 1.23884e-14 0)
(1 7.89614e-15 0)
(1 8.58905e-15 0)
(1 1.10292e-14 0)
(1 6.35159e-15 0)
(1 7.21963e-16 0)
(1 7.27312e-15 0)
(1 9.04875e-15 0)
(1 1.0241e-14 0)
(1 1.08601e-14 0)
(1 9.3067e-15 0)
(1 6.76008e-15 0)
(1 -4.88434e-16 0)
(1 2.78814e-17 0)
(1 -6.08332e-16 0)
(1 -1.87945e-16 0)
(1 2.04913e-15 0)
(1 -1.8713e-15 0)
(1 7.06325e-16 0)
(1 2.30402e-15 0)
(1 5.04629e-15 0)
(1 1.59836e-15 0)
(1 6.13616e-15 0)
(1 5.30689e-16 0)
(1 9.72931e-15 0)
(1 2.51895e-15 0)
(1 1.52068e-14 0)
(1 6.59477e-15 0)
(1 1.07868e-14 0)
(1 9.53675e-15 0)
(1 1.99873e-14 0)
(1 2.28817e-14 0)
(1 1.699e-15 0)
(1 -2.99244e-15 0)
(1 -1.71338e-15 0)
(1 2.544e-15 0)
(1 -2.2966e-15 0)
(1 -3.05603e-16 0)
(1 -7.28977e-15 0)
(1 6.03571e-15 0)
(1 -3.45962e-16 0)
(1 9.42259e-15 0)
(1 4.70703e-15 0)
(1 8.13538e-15 0)
(1 3.02414e-15 0)
(1 -6.1109e-15 0)
(1 -5.21876e-15 0)
(1 -2.49581e-15 0)
(1 2.021e-15 0)
(1 -9.92067e-15 0)
(1 1.63551e-15 0)
(1 -1.27595e-14 0)
(1 2.65423e-15 0)
(1 5.44347e-15 0)
(1 1.25517e-14 0)
(1 9.35785e-15 0)
(1 7.37116e-15 0)
(1 -1.4663e-15 0)
(1 -5.47411e-15 0)
(1 3.66591e-15 0)
(1 2.77895e-15 0)
(1 6.43562e-16 0)
(1 -2.20154e-15 0)
(1 -4.92192e-15 0)
(1 1.59321e-15 0)
(1 1.1626e-15 0)
(1 -2.96554e-15 0)
(1 -9.01737e-15 0)
(1 3.32628e-15 0)
(1 -1.51303e-20 0)
(1 -2.2107e-15 0)
(1 -5.91717e-15 0)
(1 -1.77482e-15 0)
(1 6.03781e-15 0)
(1 1.38588e-15 0)
(1 -3.48718e-15 0)
(1 -4.4752e-15 0)
(1 2.17667e-15 0)
(1 4.72883e-16 0)
(1 8.6727e-15 0)
(1 1.05804e-14 0)
(1 1.47485e-14 0)
(1 1.40771e-14 0)
(1 8.16855e-15 0)
(1 7.53643e-16 0)
(1 1.36591e-15 0)
(1 4.70181e-15 0)
(1 -2.72668e-15 0)
(1 -3.73755e-15 0)
(1 -3.53985e-15 0)
(1 3.04843e-15 0)
(1 1.20567e-14 0)
(1 1.89888e-14 0)
(1 6.24506e-15 0)
(1 5.7583e-15 0)
(1 1.56502e-15 0)
(1 1.19061e-14 0)
(1 3.32978e-15 0)
(1 6.58474e-15 0)
(1 5.66666e-15 0)
(1 1.10996e-16 0)
(1 8.34462e-15 0)
(1 1.30967e-14 0)
(1 1.17565e-14 0)
(1 5.55828e-15 0)
(1 1.53978e-15 0)
(1 6.4158e-15 0)
(1 5.70184e-15 0)
(1 2.65993e-15 0)
(1 7.24579e-15 0)
(1 1.18593e-15 0)
(1 4.1039e-15 0)
(1 5.13566e-15 0)
(1 5.26928e-15 0)
(1 8.58944e-15 0)
(1 7.77547e-15 0)
(1 9.82342e-16 0)
(1 -5.21009e-15 0)
(1 1.17158e-15 0)
(1 2.25574e-15 0)
(1 8.38873e-15 0)
(1 1.40188e-15 0)
(1 8.15847e-15 0)
(1 2.57775e-15 0)
(1 7.53125e-15 0)
(1 4.68791e-15 0)
(1 9.48491e-15 0)
(1 1.47463e-14 0)
(1 1.0339e-14 0)
(1 1.13355e-14 0)
(1 1.16296e-14 0)
(1 1.67633e-14 0)
(1 3.37757e-15 0)
(1 -3.13543e-16 0)
(1 -5.45448e-15 0)
(1 1.57795e-16 0)
(1 -1.89148e-15 0)
(1 -4.39802e-15 0)
(1 -5.47079e-15 0)
(1 1.70202e-15 0)
(1 -1.1898e-15 0)
(1 6.96946e-16 0)
(1 7.56044e-15 0)
(1 9.79406e-15 0)
(1 2.05218e-15 0)
(1 1.4154e-15 0)
(1 -6.86523e-15 0)
(1 1.16765e-15 0)
(1 -4.08306e-15 0)
(1 8.62164e-15 0)
(1 5.42211e-15 0)
(1 7.40363e-15 0)
(1 7.49497e-15 0)
(1 -5.76048e-15 0)
(1 -5.93523e-15 0)
(1 -5.96895e-15 0)
(1 5.94738e-16 0)
(1 -5.78269e-15 0)
(1 -5.46147e-15 0)
(1 4.81772e-15 0)
(1 -1.07164e-15 0)
(1 -2.79078e-15 0)
(1 -5.10532e-15 0)
(1 -9.98924e-15 0)
(1 -1.09292e-15 0)
(1 -1.51726e-15 0)
(1 7.4619e-15 0)
(1 4.99504e-15 0)
(1 4.94901e-15 0)
(1 -4.84946e-15 0)
(1 -1.23496e-15 0)
(1 -5.89856e-16 0)
(1 -2.6355e-15 0)
(1 2.70562e-15 0)
(1 -6.53115e-15 0)
(1 -1.07638e-14 0)
(1 -2.95225e-15 0)
(1 9.54624e-15 0)
(1 2.69697e-15 0)
(1 1.93575e-14 0)
(1 1.6559e-14 0)
(1 1.44964e-14 0)
(1 3.85189e-15 0)
(1 6.69847e-15 0)
(1 -1.45993e-15 0)
(1 1.46187e-15 0)
(1 2.20123e-15 0)
(1 -1.10885e-17 0)
(1 -4.04756e-15 0)
(1 -3.10982e-16 0)
(1 -1.02875e-15 0)
(1 1.95618e-16 0)
(1 -4.38397e-15 0)
(1 2.98685e-15 0)
(1 2.86299e-15 0)
(1 1.61881e-14 0)
(1 1.24695e-14 0)
(1 7.66709e-15 0)
(1 4.42397e-15 0)
(1 8.44262e-15 0)
(1 3.74417e-15 0)
(1 2.6707e-16 0)
(1 4.4223e-15 0)
(1 -1.62737e-15 0)
(1 5.38091e-15 0)
(1 8.03924e-15 0)
(1 5.1117e-15 0)
(1 1.31301e-15 0)
(1 1.16297e-15 0)
(1 3.96498e-15 0)
(1 -2.43344e-15 0)
(1 6.83217e-15 0)
(1 6.57447e-15 0)
(1 1.17797e-14 0)
(1 7.50074e-15 0)
(1 6.83859e-15 0)
(1 1.5542e-15 0)
(1 4.10826e-15 0)
(1 3.61605e-15 0)
(1 8.85611e-15 0)
(1 5.53214e-15 0)
(1 5.12894e-15 0)
(1 7.47424e-15 0)
(1 5.81305e-15 0)
(1 -2.69601e-15 0)
(1 2.93652e-15 0)
(1 3.32549e-15 0)
(1 1.03606e-14 0)
(1 8.40822e-15 0)
(1 7.75033e-15 0)
(1 4.47976e-15 0)
(1 8.62019e-15 0)
(1 -6.12302e-16 0)
(1 4.40384e-15 0)
(1 -4.37141e-15 0)
(1 -6.96896e-15 0)
(1 -1.78588e-15 0)
(1 -3.38041e-15 0)
(1 -2.04144e-15 0)
(1 -3.17153e-16 0)
(1 5.91537e-15 0)
(1 5.9007e-15 0)
(1 7.69096e-15 0)
(1 6.39924e-16 0)
(1 -5.32065e-15 0)
(1 -7.88996e-17 0)
(1 -5.32763e-15 0)
(1 4.14518e-15 0)
(1 -1.3077e-15 0)
(1 3.26965e-15 0)
(1 -8.14435e-15 0)
(1 9.08268e-15 0)
(1 -4.41871e-15 0)
(1 2.91596e-15 0)
(1 -8.8812e-15 0)
(1 -6.74296e-16 0)
(1 8.28403e-15 0)
(1 5.32164e-15 0)
(1 -1.17565e-15 0)
(1 -5.81789e-16 0)
(1 -3.35931e-15 0)
(1 -2.69679e-16 0)
(1 -6.51612e-15 0)
(1 -5.22001e-15 0)
(1 -2.89971e-15 0)
(1 -6.09572e-15 0)
(1 7.47648e-15 0)
(1 1.24107e-14 0)
(1 6.32863e-15 0)
(1 -1.82825e-15 0)
(1 -4.77187e-15 0)
(1 -9.86817e-15 0)
(1 -7.10914e-15 0)
(1 -4.11205e-15 0)
(1 -2.58485e-15 0)
(1 3.53468e-16 0)
(1 1.24147e-14 0)
(1 9.81808e-15 0)
(1 1.22741e-14 0)
(1 7.3224e-15 0)
(1 3.05808e-15 0)
(1 3.41928e-15 0)
(1 -5.0386e-15 0)
(1 6.16332e-15 0)
(1 5.15942e-16 0)
(1 6.60382e-15 0)
(1 1.00446e-15 0)
(1 5.66237e-15 0)
(1 9.6965e-15 0)
(1 1.51521e-14 0)
(1 -4.23385e-16 0)
(1 3.9984e-15 0)
(1 -7.99669e-15 0)
(1 2.73423e-15 0)
(1 -3.90102e-15 0)
(1 8.76173e-15 0)
(1 -4.27852e-15 0)
(1 1.05823e-14 0)
(1 9.1992e-15 0)
(1 1.40951e-14 0)
(1 2.59161e-15 0)
(1 -2.7223e-16 0)
(1 6.54762e-16 0)
(1 -4.57294e-16 0)
(1 7.87149e-15 0)
(1 1.81193e-14 0)
(1 4.64362e-15 0)
(1 4.53098e-15 0)
(1 5.90934e-15 0)
(1 1.09013e-14 0)
(1 1.31143e-14 0)
(1 9.29664e-15 0)
(1 3.20668e-15 0)
(1 7.00249e-15 0)
(1 7.19874e-15 0)
(1 1.77371e-16 0)
(1 1.61957e-15 0)
(1 1.10034e-14 0)
(1 4.49793e-15 0)
(1 9.65742e-15 0)
(1 4.78859e-15 0)
(1 1.08488e-14 0)
(1 1.01604e-14 0)
(1 6.13352e-15 0)
(1 2.62662e-15 0)
(1 1.28414e-15 0)
(1 -3.38915e-15 0)
(1 2.64833e-15 0)
(1 9.01771e-15 0)
(1 1.32988e-14 0)
(1 8.3709e-15 0)
(1 8.42956e-15 0)
(1 1.91662e-15 0)
(1 -1.28154e-15 0)
(1 2.57648e-15 0)
(1 -6.51219e-15 0)
(1 1.86676e-16 0)
(1 -4.54495e-15 0)
(1 -3.31291e-16 0)
(1 -9.8941e-15 0)
(1 -2.38185e-17 0)
(1 4.90723e-15 0)
(1 1.64323e-15 0)
(1 1.69548e-15 0)
(1 5.2565e-15 0)
(1 -3.38932e-16 0)
(1 5.1402e-15 0)
(1 -3.74806e-15 0)
(1 1.18267e-15 0)
(1 -1.25593e-14 0)
(1 -6.79358e-15 0)
(1 3.15149e-15 0)
(1 -5.01324e-15 0)
(1 3.51676e-15 0)
(1 7.09932e-15 0)
(1 7.73772e-15 0)
(1 8.16891e-15 0)
(1 7.85906e-15 0)
(1 5.50588e-15 0)
(1 -5.65169e-15 0)
(1 -7.79635e-15 0)
(1 -4.95026e-15 0)
(1 -2.67457e-15 0)
(1 4.15432e-16 0)
(1 2.4082e-15 0)
(1 -3.9653e-16 0)
(1 2.41058e-15 0)
(1 3.21968e-15 0)
(1 -1.97954e-15 0)
(1 1.47975e-15 0)
(1 -4.62945e-15 0)
(1 -9.40466e-15 0)
(1 -4.88118e-15 0)
(1 -8.40404e-15 0)
(1 5.86803e-16 0)
(1 1.19732e-14 0)
(1 5.70844e-15 0)
(1 7.35977e-15 0)
(1 1.01387e-14 0)
(1 -2.93986e-15 0)
(1 -6.08303e-15 0)
(1 -3.22533e-15 0)
(1 6.549e-15 0)
(1 7.11e-15 0)
(1 7.6609e-15 0)
(1 1.04369e-14 0)
(1 7.36223e-15 0)
(1 6.354e-15 0)
(1 1.02942e-14 0)
(1 7.20638e-15 0)
(1 6.02951e-15 0)
(1 7.73325e-15 0)
(1 4.84016e-15 0)
(1 2.12584e-15 0)
(1 2.48166e-15 0)
(1 -1.60201e-15 0)
(1 3.80999e-15 0)
(1 1.70879e-15 0)
(1 1.10785e-14 0)
(1 1.60185e-14 0)
(1 1.32936e-14 0)
(1 7.83061e-15 0)
(1 5.29969e-15 0)
(1 3.96458e-15 0)
(1 4.72527e-15 0)
(1 1.28715e-14 0)
(1 7.46201e-15 0)
(1 9.60084e-15 0)
(1 6.78446e-15 0)
(1 4.67717e-15 0)
(1 7.7633e-15 0)
(1 7.27071e-15 0)
(1 9.932e-15 0)
(1 6.37728e-15 0)
(1 2.58456e-15 0)
(1 3.69669e-15 0)
(1 2.62365e-15 0)
(1 -2.51536e-16 0)
(1 2.00395e-15 0)
(1 2.40712e-15 0)
(1 1.40792e-15 0)
(1 8.6191e-15 0)
(1 4.19884e-15 0)
(1 5.40854e-15 0)
(1 7.16448e-15 0)
(1 2.66867e-15 0)
(1 7.46893e-15 0)
(1 2.65152e-16 0)
(1 8.69525e-15 0)
(1 1.01364e-14 0)
(1 1.20985e-14 0)
(1 1.17191e-14 0)
(1 -2.16533e-15 0)
(1 -3.52646e-15 0)
(1 -1.40121e-15 0)
(1 -2.51675e-15 0)
(1 6.53703e-15 0)
(1 4.73011e-15 0)
(1 1.46539e-14 0)
(1 4.0205e-15 0)
(1 -1.41558e-15 0)
(1 -1.13845e-14 0)
(1 -1.14846e-14 0)
(1 -2.32169e-15 0)
(1 2.47687e-16 0)
(1 -5.17515e-15 0)
(1 3.86743e-15 0)
(1 -6.22077e-15 0)
(1 -2.60553e-15 0)
(1 -1.83473e-15 0)
(1 -4.24336e-15 0)
(1 -5.31294e-15 0)
(1 7.53583e-15 0)
(1 1.08393e-15 0)
(1 7.27898e-15 0)
(1 9.20501e-16 0)
(1 -1.52957e-16 0)
(1 -3.82437e-15 0)
(1 -3.77032e-15 0)
(1 -9.42208e-15 0)
(1 -7.68606e-15 0)
(1 -9.11718e-15 0)
(1 3.22242e-16 0)
(1 4.73036e-15 0)
(1 7.44909e-15 0)
(1 4.50616e-15 0)
(1 -8.28078e-16 0)
(1 4.50092e-15 0)
(1 -5.92586e-15 0)
(1 1.27213e-15 0)
(1 -1.64073e-15 0)
(1 2.0285e-15 0)
(1 -7.65291e-15 0)
(1 -6.34381e-15 0)
(1 1.04253e-14 0)
(1 6.96053e-15 0)
(1 6.61278e-15 0)
(1 -1.32397e-15 0)
(1 2.57047e-15 0)
(1 4.90163e-16 0)
(1 -7.54098e-17 0)
(1 -9.77612e-16 0)
(1 9.70351e-15 0)
(1 8.2014e-15 0)
(1 9.91222e-15 0)
(1 2.67179e-15 0)
(1 1.95441e-15 0)
(1 1.53955e-15 0)
(1 4.52754e-15 0)
(1 -7.41541e-17 0)
(1 6.27854e-15 0)
(1 -1.52291e-15 0)
(1 6.97493e-16 0)
(1 2.81248e-17 0)
(1 3.865e-15 0)
(1 -5.63829e-16 0)
(1 4.45262e-15 0)
(1 -3.14947e-15 0)
(1 -2.97748e-15 0)
(1 -2.9277e-15 0)
(1 9.03813e-15 0)
(1 4.31737e-15 0)
(1 6.69022e-15 0)
(1 6.08536e-15 0)
(1 1.15656e-14 0)
(1 1.21378e-14 0)
(1 1.31899e-14 0)
(1 8.23476e-15 0)
(1 1.94637e-15 0)
(1 1.77271e-15 0)
(1 3.34499e-15 0)
(1 1.20903e-14 0)
(1 5.58852e-15 0)
(1 7.94832e-15 0)
(1 5.36756e-15 0)
(1 1.43735e-14 0)
(1 9.89215e-15 0)
(1 6.6251e-15 0)
(1 1.74271e-16 0)
(1 -4.52378e-15 0)
(1 -2.32251e-15 0)
(1 3.93836e-15 0)
(1 -3.03187e-15 0)
(1 1.1725e-15 0)
(1 3.67216e-15 0)
(1 3.43202e-15 0)
(1 9.13848e-15 0)
(1 8.79295e-15 0)