/*--------------------------------*- C++ -*----------------------------------*\
| =========                 |                                                 |
| \\      /  F ield         | OpenFOAM: The Open Source CFD Toolbox           |
|  \\    /   O peration     | Version:  v2012                                 |
|   \\  /    A nd           | Website:  www.openfoam.com                      |
|    \\/     M anipulation  |                                                 |
\*---------------------------------------------------------------------------*/
FoamFile
{
    version     2.0;
    format      ascii;
    class       volVectorField;
    location    "0";
    object      U;
}
// * * * * * * * * * * * * * * * * * * * * * * * * * * * * * * * * * * * * * //

dimensions      [0 1 -1 0 0 0 0];


internalField   nonuniform List<vector> 
4000
(
(1 -1.11504e-15 0)
(1 3.34e-15 0)
(1 -1.20301e-15 0)
(1 2.49701e-15 0)
(1 8.14835e-17 0)
(1 -5.46381e-16 0)
(1 -1.5989e-15 0)
(1 1.46081e-15 0)
(1 -4.68521e-17 0)
(1 -5.42003e-15 0)
(1 4.90876e-16 0)
(1 2.50976e-15 0)
(1 3.6721e-15 0)
(1 1.46244e-15 0)
(1 2.31665e-15 0)
(1 3.82241e-15 0)
(1 -9.64539e-16 0)
(1 -9.03137e-15 0)
(1 -2.35542e-15 0)
(1 -5.98575e-15 0)
(1 3.00895e-16 0)
(1 -1.52356e-14 0)
(1 3.41061e-15 0)
(1 -3.34782e-15 0)
(1 3.67056e-15 0)
(1 -4.20707e-16 0)
(1 -2.81569e-15 0)
(1 3.38561e-15 0)
(1 5.75896e-15 0)
(1 9.35011e-15 0)
(1 4.73201e-15 0)
(1 -8.43563e-16 0)
(1 -1.31458e-15 0)
(1 2.81558e-15 0)
(1 -1.37945e-15 0)
(1 4.77197e-15 0)
(1 5.9201e-15 0)
(1 3.04887e-15 0)
(1 -2.69976e-15 0)
(1 -2.58967e-15 0)
(1 -1.29177e-15 0)
(1 2.04725e-16 0)
(1 -1.64311e-15 0)
(1 -1.02013e-15 0)
(1 -3.29611e-15 0)
(1 -2.17884e-15 0)
(1 1.82465e-15 0)
(1 2.33885e-15 0)
(1 -5.57425e-16 0)
(1 1.816e-15 0)
(1 1.66549e-15 0)
(1 2.89324e-15 0)
(1 4.64328e-15 0)
(1 -1.89874e-15 0)
(1 -1.65145e-15 0)
(1 -3.93692e-15 0)
(1 -3.249e-16 0)
(1 -2.02324e-15 0)
(1 -8.10553e-16 0)
(1 3.14821e-15 0)
(1 1.30773e-15 0)
(1 1.9967e-15 0)
(1 2.37733e-15 0)
(1 -7.29885e-18 0)
(1 -4.74118e-15 0)
(1 1.50883e-17 0)
(1 -2.00126e-15 0)
(1 3.75109e-15 0)
(1 1.15857e-15 0)
(1 1.65642e-15 0)
(1 -3.63389e-15 0)
(1 4.1457e-16 0)
(1 -4.48543e-15 0)
(1 -2.65048e-15 0)
(1 -4.61204e-15 0)
(1 -9.54185e-16 0)
(1 -1.91051e-15 0)
(1 -1.59508e-15 0)
(1 3.85731e-15 0)
(1 -4.0296e-16 0)
(1 1.08703e-15 0)
(1 1.76064e-15 0)
(1 -1.26683e-15 0)
(1 -3.08492e-15 0)
(1 1.65097e-15 0)
(1 -1.42031e-15 0)
(1 3.78567e-17 0)
(1 5.83217e-15 0)
(1 -2.57573e-16 0)
(1 2.72936e-15 0)
(1 1.65156e-15 0)
(1 1.62111e-15 0)
(1 -3.7776e-15 0)
(1 -4.77961e-15 0)
(1 -2.61975e-15 0)
(1 -2.76635e-16 0)
(1 2.08937e-15 0)
(1 2.01528e-15 0)
(1 -2.79663e-15 0)
(1 -2.56097e-15 0)
(1 3.52124e-15 0)
(1 -3.5835e-15 0)
(1 2.71436e-15 0)
(1 5.52157e-15 0)
(1 2.25109e-15 0)
(1 -4.23849e-15 0)
(1 -2.14659e-15 0)
(1 -1.69056e-15 0)
(1 5.1065e-15 0)
(1 -7.28215e-15 0)
(1 6.61959e-16 0)
(1 5.52381e-15 0)
(1 4.21717e-15 0)
(1 3.19553e-15 0)
(1 5.60275e-15 0)
(1 5.94062e-15 0)
(1 9.95848e-16 0)
(1 -1.31644e-14 0)
(1 -3.89628e-15 0)
(1 -8.46285e-15 0)
(1 3.09854e-15 0)
(1 -1.53264e-14 0)
(1 2.77136e-15 0)
(1 -6.81707e-15 0)
(1 6.38359e-15 0)
(1 -2.11167e-15 0)
(1 -6.10289e-15 0)
(1 1.52283e-15 0)
(1 2.22202e-15 0)
(1 7.11213e-15 0)
(1 4.46153e-15 0)
(1 -2.83456e-15 0)
(1 6.47434e-16 0)
(1 7.45943e-15 0)
(1 2.10861e-15 0)
(1 5.92464e-15 0)
(1 2.40417e-15 0)
(1 3.92924e-15 0)
(1 -4.34376e-15 0)
(1 -5.56007e-15 0)
(1 -3.43458e-15 0)
(1 -2.91429e-15 0)
(1 -3.06125e-15 0)
(1 -2.86864e-15 0)
(1 -4.00953e-15 0)
(1 -1.73523e-15 0)
(1 -1.08975e-15 0)
(1 1.8444e-15 0)
(1 1.83513e-15 0)
(1 2.84956e-15 0)
(1 -2.25889e-15 0)
(1 1.62419e-15 0)
(1 1.03569e-15 0)
(1 3.6875e-15 0)
(1 -5.81831e-16 0)
(1 -3.26658e-15 0)
(1 -3.14278e-15 0)
(1 2.0632e-15 0)
(1 -2.1407e-15 0)
(1 2.03236e-15 0)
(1 -1.41518e-15 0)
(1 2.28145e-15 0)
(1 6.74287e-15 0)
(1 2.64618e-15 0)
(1 -8.62556e-16 0)
(1 -2.05381e-15 0)
(1 -3.37188e-15 0)
(1 -4.39162e-16 0)
(1 1.50335e-15 0)
(1 -7.27533e-16 0)
(1 2.78686e-17 0)
(1 1.8457e-16 0)
(1 1.27914e-15 0)
(1 -1.91803e-16 0)
(1 -1.69066e-15 0)
(1 3.42362e-15 0)
(1 2.73529e-15 0)
(1 -9.78651e-17 0)
(1 7.77791e-15 0)
(1 1.99428e-15 0)
(1 -1.56693e-15 0)
(1 3.00741e-15 0)
(1 -4.33519e-15 0)
(1 -7.86524e-16 0)
(1 2.87853e-15 0)
(1 9.0556e-16 0)
(1 -2.90267e-15 0)
(1 8.4542e-16 0)
(1 -5.06143e-15 0)
(1 -7.52986e-17 0)
(1 -3.68836e-17 0)
(1 1.7407e-15 0)
(1 -6.41331e-15 0)
(1 -1.60971e-15 0)
(1 -2.0437e-15 0)
(1 1.01326e-15 0)
(1 2.70174e-15 0)
(1 7.26821e-15 0)
(1 -4.58597e-15 0)
(1 -4.70357e-15 0)
(1 5.36067e-15 0)
(1 -1.00051e-14 0)
(1 -1.02947e-15 0)
(1 1.52674e-16 0)
(1 3.22594e-16 0)
(1 -1.08295e-15 0)
(1 3.68611e-16 0)
(1 -3.57563e-16 0)
(1 3.33498e-15 0)
(1 3.48547e-15 0)
(1 2.5677e-15 0)
(1 7.5765e-15 0)
(1 -1.80831e-15 0)
(1 1.16331e-14 0)
(1 3.55432e-15 0)
(1 -4.52808e-15 0)
(1 -1.25348e-15 0)
(1 -9.35743e-16 0)
(1 -5.48929e-15 0)
(1 7.47364e-16 0)
(1 3.63729e-15 0)
(1 5.24535e-15 0)
(1 -7.89474e-15 0)
(1 -5.84969e-15 0)
(1 -2.29696e-15 0)
(1 -6.40157e-16 0)
(1 1.65569e-15 0)
(1 4.57199e-15 0)
(1 6.24923e-15 0)
(1 7.74088e-15 0)
(1 2.34898e-15 0)
(1 7.61598e-16 0)
(1 4.26639e-15 0)
(1 8.19259e-15 0)
(1 8.68075e-15 0)
(1 5.36311e-15 0)
(1 2.88791e-15 0)
(1 -2.13508e-16 0)
(1 -6.64145e-15 0)
(1 -4.19793e-15 0)
(1 -3.03004e-15 0)
(1 -7.52825e-15 0)
(1 -1.11154e-14 0)
(1 -8.48184e-15 0)
(1 -5.61876e-15 0)
(1 2.8187e-15 0)
(1 2.88113e-15 0)
(1 1.6837e-15 0)
(1 -6.80011e-17 0)
(1 1.10391e-15 0)
(1 6.49377e-16 0)
(1 4.66738e-15 0)
(1 1.82848e-15 0)
(1 4.62213e-15 0)
(1 7.54059e-16 0)
(1 -7.07064e-17 0)
(1 -3.07512e-15 0)
(1 7.80192e-16 0)
(1 -3.79938e-15 0)
(1 -6.71232e-15 0)
(1 6.61734e-16 0)
(1 2.00251e-15 0)
(1 3.65482e-15 0)
(1 1.59961e-15 0)
(1 2.84164e-15 0)
(1 -4.91815e-16 0)
(1 -1.41303e-15 0)
(1 3.0159e-16 0)
(1 1.04234e-15 0)
(1 2.61585e-15 0)
(1 3.37566e-15 0)
(1 -2.39562e-15 0)
(1 -2.24993e-15 0)
(1 -2.62462e-15 0)
(1 -3.23423e-15 0)
(1 1.54775e-15 0)
(1 1.01719e-15 0)
(1 -6.30752e-16 0)
(1 1.66063e-15 0)
(1 -3.68095e-16 0)
(1 1.46911e-15 0)
(1 -7.10756e-15 0)
(1 -3.98754e-15 0)
(1 -1.51791e-15 0)
(1 6.4481e-15 0)
(1 3.45546e-15 0)
(1 -1.31031e-15 0)
(1 4.83269e-16 0)
(1 -3.36951e-15 0)
(1 1.32917e-18 0)
(1 -2.96496e-15 0)
(1 1.92451e-15 0)
(1 -4.20512e-15 0)
(1 -3.50162e-15 0)
(1 -1.13367e-15 0)
(1 8.75955e-18 0)
(1 -1.55701e-15 0)
(1 2.96738e-15 0)
(1 -2.64342e-17 0)
(1 -1.45264e-15 0)
(1 4.94925e-15 0)
(1 -9.13155e-15 0)
(1 -5.12215e-15 0)
(1 -1.32869e-15 0)
(1 5.53172e-15 0)
(1 -8.81459e-16 0)
(1 9.42027e-16 0)
(1 3.80868e-15 0)
(1 2.31e-17 0)
(1 -5.66893e-16 0)
(1 8.64399e-15 0)
(1 5.33507e-15 0)
(1 5.41427e-15 0)
(1 1.03441e-14 0)
(1 3.45944e-15 0)
(1 -5.80238e-15 0)
(1 -1.70747e-15 0)
(1 -9.88265e-16 0)
(1 -7.36305e-15 0)
(1 -5.17065e-15 0)
(1 4.75044e-15 0)
(1 7.52016e-15 0)
(1 -2.24857e-15 0)
(1 6.36806e-15 0)
(1 1.74755e-15 0)
(1 -1.48203e-16 0)
(1 4.35153e-15 0)
(1 3.9981e-15 0)
(1 7.50918e-15 0)
(1 7.74167e-15 0)
(1 3.32084e-15 0)
(1 -1.14911e-15 0)
(1 -1.8758e-15 0)
(1 -1.45604e-17 0)
(1 5.08797e-15 0)
(1 2.69663e-15 0)
(1 6.09032e-15 0)
(1 -2.38039e-15 0)
(1 -4.88622e-16 0)
(1 2.5918e-15 0)
(1 1.82915e-15 0)
(1 -3.55706e-15 0)
(1 -8.60672e-15 0)
(1 -6.04846e-15 0)
(1 -7.90483e-15 0)
(1 3.23974e-16 0)
(1 9.73653e-15 0)
(1 6.24955e-15 0)
(1 1.98889e-15 0)
(1 2.76024e-15 0)
(1 4.21697e-15 0)
(1 3.65995e-15 0)
(1 -2.42917e-16 0)
(1 -4.55937e-15 0)
(1 -5.27726e-15 0)
(1 9.13046e-16 0)
(1 -1.91069e-15 0)
(1 -7.52211e-15 0)
(1 -5.529e-15 0)
(1 -5.20028e-15 0)
(1 1.50018e-15 0)
(1 4.50898e-15 0)
(1 4.47948e-15 0)
(1 4.77929e-15 0)
(1 1.59286e-15 0)
(1 -1.75076e-15 0)
(1 -2.47519e-15 0)
(1 -1.9969e-16 0)
(1 -1.55192e-15 0)
(1 1.27462e-15 0)
(1 -1.12136e-15 0)
(1 -8.00709e-16 0)
(1 -4.15615e-15 0)
(1 -6.02697e-15 0)
(1 -1.89611e-15 0)
(1 -9.16841e-16 0)
(1 5.39743e-16 0)
(1 1.23729e-15 0)
(1 1.09095e-15 0)
(1 3.05225e-15 0)
(1 4.55089e-15 0)
(1 -4.37344e-15 0)
(1 -2.37242e-15 0)
(1 -4.47278e-15 0)
(1 -9.56788e-16 0)
(1 5.60236e-15 0)
(1 5.6767e-15 0)
(1 7.59075e-15 0)
(1 5.72706e-15 0)
(1 2.97081e-15 0)
(1 7.06364e-16 0)
(1 -1.55913e-15 0)
(1 -1.49367e-15 0)
(1 -1.09357e-15 0)
(1 -4.16872e-15 0)
(1 -4.92159e-15 0)
(1 -3.3667e-15 0)
(1 -8.65782e-15 0)
(1 -4.56815e-15 0)
(1 -1.03436e-15 0)
(1 3.42293e-15 0)
(1 -1.43521e-15 0)
(1 -3.11791e-15 0)
(1 1.99889e-15 0)
(1 5.25407e-15 0)
(1 -1.14676e-15 0)
(1 -6.11137e-15 0)
(1 -1.70899e-15 0)
(1 -3.88161e-15 0)
(1 -2.42052e-15 0)
(1 4.06757e-15 0)
(1 -1.10738e-16 0)
(1 1.151e-14 0)
(1 3.70528e-16 0)
(1 1.07409e-14 0)
(1 4.43874e-15 0)
(1 2.39807e-15 0)
(1 -8.23666e-15 0)
(1 -6.70589e-15 0)
(1 -1.06496e-14 0)
(1 -7.10557e-15 0)
(1 -6.04703e-15 0)
(1 1.43346e-14 0)
(1 1.1011e-14 0)
(1 1.55237e-14 0)
(1 3.00264e-15 0)
(1 3.29497e-15 0)
(1 7.50027e-15 0)
(1 4.65697e-15 0)
(1 5.72016e-15 0)
(1 4.51171e-15 0)
(1 -2.53902e-15 0)
(1 -1.93683e-16 0)
(1 -3.57767e-16 0)
(1 1.27726e-15 0)
(1 -9.92072e-17 0)
(1 1.47757e-15 0)
(1 -2.30004e-16 0)
(1 -3.43313e-15 0)
(1 -6.02717e-15 0)
(1 -5.2647e-15 0)
(1 -5.82193e-15 0)
(1 -4.43661e-15 0)
(1 -4.67853e-15 0)
(1 -5.40893e-15 0)
(1 -4.29027e-15 0)
(1 3.03619e-15 0)
(1 6.71529e-15 0)
(1 8.12902e-15 0)
(1 1.01789e-14 0)
(1 4.87e-15 0)
(1 -8.45915e-16 0)
(1 -4.85654e-15 0)
(1 -2.39797e-15 0)
(1 -6.0211e-16 0)
(1 2.5662e-15 0)
(1 -1.25573e-16 0)
(1 -3.10956e-15 0)
(1 3.72744e-15 0)
(1 4.16523e-15 0)
(1 -3.84792e-15 0)
(1 -1.9724e-15 0)
(1 3.21545e-15 0)
(1 3.14752e-15 0)
(1 3.98952e-15 0)
(1 -3.83542e-15 0)
(1 1.5887e-15 0)
(1 -1.76826e-15 0)
(1 1.79875e-15 0)
(1 2.55087e-16 0)
(1 4.24797e-15 0)
(1 -2.32255e-17 0)
(1 9.75867e-16 0)
(1 -5.2749e-15 0)
(1 -1.20007e-15 0)
(1 -1.30905e-15 0)
(1 3.48974e-15 0)
(1 4.05816e-15 0)
(1 -3.28029e-16 0)
(1 8.82065e-15 0)
(1 3.1434e-15 0)
(1 2.68876e-15 0)
(1 -3.69948e-15 0)
(1 4.9049e-15 0)
(1 -8.58451e-16 0)
(1 3.90496e-15 0)
(1 5.05743e-15 0)
(1 -3.78842e-17 0)
(1 5.61058e-15 0)
(1 -2.45863e-15 0)
(1 4.12796e-15 0)
(1 -5.13359e-15 0)
(1 -2.55174e-15 0)
(1 5.28715e-15 0)
(1 -5.55371e-15 0)
(1 -8.22309e-15 0)
(1 -2.62264e-15 0)
(1 -6.90393e-15 0)
(1 -5.28083e-15 0)
(1 7.61181e-16 0)
(1 -3.30261e-15 0)
(1 5.04654e-15 0)
(1 -6.3324e-16 0)
(1 3.89763e-15 0)
(1 1.17194e-15 0)
(1 9.1889e-16 0)
(1 -8.89623e-15 0)
(1 -1.10408e-14 0)
(1 -7.20065e-15 0)
(1 1.25499e-15 0)
(1 1.94757e-15 0)
(1 2.63071e-15 0)
(1 9.152e-15 0)
(1 4.23274e-15 0)
(1 6.64989e-16 0)
(1 5.73109e-15 0)
(1 7.09633e-15 0)
(1 -1.40886e-15 0)
(1 1.70699e-15 0)
(1 -1.00666e-15 0)
(1 -8.80308e-16 0)
(1 1.06665e-14 0)
(1 1.05938e-14 0)
(1 6.43784e-17 0)
(1 -3.2847e-15 0)
(1 -7.95821e-15 0)
(1 -3.93413e-15 0)
(1 5.94089e-15 0)
(1 4.08054e-15 0)
(1 1.02043e-14 0)
(1 6.72675e-15 0)
(1 8.74675e-15 0)
(1 3.07472e-15 0)
(1 5.92041e-15 0)
(1 3.269e-15 0)
(1 8.22644e-15 0)
(1 7.83341e-15 0)
(1 1.21219e-15 0)
(1 -1.41612e-14 0)
(1 -1.45716e-14 0)
(1 -3.78434e-15 0)
(1 -4.59323e-15 0)
(1 3.6917e-15 0)
(1 9.84802e-16 0)
(1 3.73164e-15 0)
(1 -1.70142e-15 0)
(1 5.49159e-16 0)
(1 -4.5499e-15 0)
(1 8.10444e-16 0)
(1 7.06711e-16 0)
(1 4.75101e-15 0)
(1 2.85732e-15 0)
(1 -7.7086e-16 0)
(1 -5.43744e-16 0)
(1 2.02269e-15 0)
(1 -5.14415e-16 0)
(1 -3.08001e-16 0)
(1 1.01239e-15 0)
(1 6.14661e-15 0)
(1 4.69847e-15 0)
(1 2.91718e-15 0)
(1 -1.24658e-15 0)
(1 -9.14017e-16 0)
(1 -5.28359e-15 0)
(1 5.04471e-16 0)
(1 5.07516e-15 0)
(1 8.60198e-15 0)
(1 9.25311e-15 0)
(1 1.05304e-14 0)
(1 1.72987e-14 0)
(1 9.29452e-15 0)
(1 1.67915e-15 0)
(1 -4.25519e-15 0)
(1 -2.98019e-15 0)
(1 -8.05653e-15 0)
(1 -8.33632e-15 0)
(1 -7.25095e-15 0)
(1 -2.18912e-15 0)
(1 2.5756e-15 0)
(1 1.5533e-14 0)
(1 9.22185e-15 0)
(1 4.62629e-15 0)
(1 -5.1683e-16 0)
(1 2.13192e-15 0)
(1 -2.70148e-15 0)
(1 -2.28878e-15 0)
(1 1.10169e-15 0)
(1 3.28746e-15 0)
(1 3.62286e-15 0)
(1 -4.54822e-16 0)
(1 -2.35507e-15 0)
(1 -6.07065e-17 0)
(1 -2.52545e-15 0)
(1 -3.76838e-15 0)
(1 1.62814e-15 0)
(1 -3.49499e-15 0)
(1 1.96783e-15 0)
(1 2.67446e-15 0)
(1 2.22941e-15 0)
(1 3.71217e-15 0)
(1 -4.1752e-15 0)
(1 1.2877e-16 0)
(1 5.02801e-17 0)
(1 2.85572e-15 0)
(1 5.84987e-15 0)
(1 2.10603e-15 0)
(1 -7.72715e-16 0)
(1 -1.58813e-14 0)
(1 -9.85897e-16 0)
(1 -3.16507e-15 0)
(1 -1.70968e-15 0)
(1 3.53174e-15 0)
(1 6.21922e-15 0)
(1 7.21938e-15 0)
(1 3.36421e-16 0)
(1 2.64638e-15 0)
(1 7.63681e-15 0)
(1 6.01112e-15 0)
(1 4.24447e-15 0)
(1 8.6403e-15 0)
(1 2.53509e-15 0)
(1 1.12039e-14 0)
(1 -4.94639e-15 0)
(1 -2.72758e-15 0)
(1 -1.04223e-14 0)
(1 -8.46532e-15 0)
(1 1.25662e-15 0)
(1 6.86889e-15 0)
(1 8.20078e-15 0)
(1 3.47845e-15 0)
(1 7.38714e-15 0)
(1 4.68139e-15 0)
(1 4.94276e-15 0)
(1 -1.27118e-16 0)
(1 -8.30802e-16 0)
(1 -5.58246e-16 0)
(1 6.54589e-15 0)
(1 1.55311e-15 0)
(1 -9.38155e-16 0)
(1 -3.73138e-15 0)
(1 1.8787e-15 0)
(1 9.17409e-16 0)
(1 2.8488e-15 0)
(1 3.67722e-15 0)
(1 5.52217e-15 0)
(1 -7.67532e-16 0)
(1 -6.83729e-15 0)
(1 -7.49139e-15 0)
(1 1.13049e-14 0)
(1 9.05474e-15 0)
(1 6.59919e-15 0)
(1 -1.78151e-15 0)
(1 -4.85759e-15 0)
(1 -6.32455e-16 0)
(1 -3.11597e-15 0)
(1 2.65998e-16 0)
(1 2.67254e-15 0)
(1 -2.61085e-16 0)
(1 -2.66604e-15 0)
(1 -6.17511e-16 0)
(1 3.20533e-15 0)
(1 4.65775e-15 0)
(1 4.24176e-15 0)
(1 1.29799e-15 0)
(1 -1.8162e-16 0)
(1 1.63274e-15 0)
(1 5.14619e-15 0)
(1 4.46818e-15 0)
(1 5.20256e-15 0)
(1 5.68943e-15 0)
(1 -1.68092e-15 0)
(1 -2.25937e-15 0)
(1 -1.95203e-15 0)
(1 5.28935e-15 0)
(1 6.02063e-15 0)
(1 -3.90795e-16 0)
(1 -1.13496e-15 0)
(1 1.50075e-15 0)
(1 4.44778e-15 0)
(1 6.80886e-15 0)
(1 6.58645e-15 0)
(1 6.55518e-15 0)
(1 1.446e-15 0)
(1 6.74329e-16 0)
(1 2.85988e-15 0)
(1 3.12896e-15 0)
(1 5.51891e-15 0)
(1 8.99609e-15 0)
(1 3.93036e-15 0)
(1 2.90066e-15 0)
(1 1.2325e-16 0)
(1 2.08936e-15 0)
(1 4.47577e-16 0)
(1 1.09715e-15 0)
(1 6.15316e-15 0)
(1 2.64313e-15 0)
(1 2.29683e-15 0)
(1 5.04444e-15 0)
(1 4.27439e-15 0)
(1 5.13816e-15 0)
(1 -1.31393e-15 0)
(1 -8.37474e-16 0)
(1 -4.4889e-15 0)
(1 3.7561e-15 0)
(1 5.14027e-15 0)
(1 3.20774e-16 0)
(1 3.99532e-15 0)
(1 -7.69352e-15 0)
(1 -2.67086e-15 0)
(1 -5.39305e-15 0)
(1 -1.2413e-14 0)
(1 4.71009e-16 0)
(1 2.59642e-15 0)
(1 1.005e-14 0)
(1 1.2128e-14 0)
(1 6.55812e-15 0)
(1 3.30361e-16 0)
(1 6.88756e-15 0)
(1 2.13054e-15 0)
(1 1.68365e-14 0)
(1 -4.54464e-15 0)
(1 1.58093e-16 0)
(1 -1.49293e-14 0)
(1 -8.92333e-15 0)
(1 -7.7126e-15 0)
(1 7.11326e-15 0)
(1 1.1526e-14 0)
(1 9.3486e-15 0)
(1 6.10385e-15 0)
(1 -6.93348e-15 0)
(1 -4.62745e-15 0)
(1 -9.39082e-16 0)
(1 4.53994e-15 0)
(1 4.90393e-15 0)
(1 2.84639e-15 0)
(1 -4.21144e-15 0)
(1 4.71332e-18 0)
(1 8.98581e-15 0)
(1 3.20186e-15 0)
(1 -5.26249e-15 0)
(1 -1.03789e-14 0)
(1 7.15542e-16 0)
(1 -5.65999e-15 0)
(1 5.63097e-15 0)
(1 8.08396e-15 0)
(1 2.97845e-15 0)
(1 -3.25913e-15 0)
(1 -1.57651e-15 0)
(1 7.22217e-15 0)
(1 5.99302e-15 0)
(1 5.39784e-15 0)
(1 -2.75035e-15 0)
(1 7.20694e-15 0)
(1 7.25662e-15 0)
(1 4.96292e-15 0)
(1 -2.84332e-15 0)
(1 2.4655e-15 0)
(1 -5.31951e-15 0)
(1 -1.99595e-15 0)
(1 -2.36575e-15 0)
(1 7.15246e-16 0)
(1 4.18901e-15 0)
(1 6.09338e-15 0)
(1 4.81152e-15 0)
(1 2.43507e-15 0)
(1 2.67266e-15 0)
(1 8.20928e-15 0)
(1 5.84083e-15 0)
(1 6.09481e-15 0)
(1 -1.71041e-15 0)
(1 3.29314e-15 0)
(1 8.67744e-15 0)
(1 5.02998e-15 0)
(1 3.35729e-15 0)
(1 4.47918e-15 0)
(1 1.8026e-15 0)
(1 4.06099e-15 0)
(1 5.37584e-15 0)
(1 -2.06848e-15 0)
(1 -1.47256e-15 0)
(1 2.87125e-15 0)
(1 1.75186e-15 0)
(1 1.00988e-15 0)
(1 -1.82934e-15 0)
(1 7.26206e-15 0)
(1 8.34132e-15 0)
(1 3.37713e-15 0)
(1 9.42708e-16 0)
(1 -4.9056e-16 0)
(1 -8.8157e-16 0)
(1 4.1373e-15 0)
(1 4.54389e-16 0)
(1 3.97867e-15 0)
(1 6.41235e-15 0)
(1 4.3988e-15 0)
(1 2.58652e-15 0)
(1 -4.17232e-16 0)
(1 4.4478e-15 0)
(1 4.90523e-15 0)
(1 1.17676e-14 0)
(1 1.72399e-15 0)
(1 -2.63515e-15 0)
(1 4.81679e-15 0)
(1 -3.84686e-15 0)
(1 4.487e-16 0)
(1 -3.95319e-15 0)
(1 -3.91173e-15 0)
(1 5.97985e-15 0)
(1 -1.21257e-14 0)
(1 -6.84968e-15 0)
(1 -2.64471e-15 0)
(1 7.29727e-15 0)
(1 7.70021e-15 0)
(1 5.34022e-15 0)
(1 4.57348e-15 0)
(1 1.09943e-14 0)
(1 5.3139e-16 0)
(1 1.10766e-14 0)
(1 -2.44931e-15 0)
(1 2.92477e-15 0)
(1 4.75029e-15 0)
(1 -1.44972e-15 0)
(1 -8.13426e-15 0)
(1 -2.8152e-15 0)
(1 1.50399e-15 0)
(1 1.07105e-14 0)
(1 4.54629e-15 0)
(1 3.88838e-15 0)
(1 -3.96216e-15 0)
(1 -7.00636e-15 0)
(1 -1.6538e-14 0)
(1 -7.02693e-15 0)
(1 -3.78153e-15 0)
(1 3.4189e-15 0)
(1 8.00823e-15 0)
(1 6.16216e-15 0)
(1 -8.68796e-16 0)
(1 3.29293e-15 0)
(1 4.0082e-15 0)
(1 3.11643e-15 0)
(1 -4.60436e-15 0)
(1 4.41387e-15 0)
(1 2.49694e-15 0)
(1 9.96222e-15 0)
(1 4.61134e-15 0)
(1 8.47466e-15 0)
(1 8.37546e-15 0)
(1 2.96362e-15 0)
(1 -9.49546e-15 0)
(1 -4.28352e-15 0)
(1 1.78999e-15 0)
(1 3.99882e-15 0)
(1 1.074e-14 0)
(1 5.98059e-15 0)
(1 2.80466e-15 0)
(1 -2.54587e-15 0)
(1 -4.75459e-15 0)
(1 3.91799e-15 0)
(1 -4.69497e-15 0)
(1 5.37097e-15 0)
(1 -2.37818e-15 0)
(1 6.93493e-15 0)
(1 -1.85254e-15 0)
(1 -7.66791e-15 0)
(1 -1.14534e-15 0)
(1 1.3003e-14 0)
(1 1.63183e-14 0)
(1 1.5468e-14 0)
(1 1.62922e-14 0)
(1 1.35162e-14 0)
(1 9.34919e-15 0)
(1 1.29112e-14 0)
(1 6.73964e-15 0)
(1 1.38072e-15 0)
(1 -7.10344e-15 0)
(1 -4.11579e-15 0)
(1 -3.8643e-16 0)
(1 2.05635e-15 0)
(1 -1.55007e-15 0)
(1 8.29936e-15 0)
(1 7.1875e-15 0)
(1 4.78903e-15 0)
(1 6.06441e-15 0)
(1 2.6984e-15 0)
(1 -2.8049e-15 0)
(1 -2.75215e-15 0)
(1 -5.03199e-15 0)
(1 2.82523e-16 0)
(1 4.65077e-15 0)
(1 3.4677e-15 0)
(1 4.33002e-15 0)
(1 5.49003e-15 0)
(1 8.69903e-15 0)
(1 8.1138e-15 0)
(1 1.06965e-14 0)
(1 5.98386e-15 0)
(1 1.12507e-14 0)
(1 1.17658e-14 0)
(1 1.55752e-14 0)
(1 2.10849e-14 0)
(1 1.03576e-15 0)
(1 3.01682e-15 0)
(1 7.11212e-15 0)
(1 -2.91693e-16 0)
(1 -3.5624e-15 0)
(1 2.4554e-15 0)
(1 -3.45406e-16 0)
(1 1.7841e-15 0)
(1 -6.0285e-15 0)
(1 -8.13804e-15 0)
(1 3.69066e-15 0)
(1 1.68745e-15 0)
(1 7.07836e-15 0)
(1 4.47032e-15 0)
(1 5.5953e-15 0)
(1 3.24951e-15 0)
(1 1.36931e-15 0)
(1 4.9855e-15 0)
(1 -1.02187e-16 0)
(1 -1.19464e-14 0)
(1 5.037e-16 0)
(1 -1.15446e-14 0)
(1 5.53018e-16 0)
(1 2.552e-15 0)
(1 4.60026e-15 0)
(1 1.1755e-14 0)
(1 6.29541e-15 0)
(1 6.99187e-16 0)
(1 3.1455e-15 0)
(1 -1.13704e-15 0)
(1 -9.6793e-15 0)
(1 -8.91431e-15 0)
(1 -5.50785e-15 0)
(1 -4.06827e-15 0)
(1 -3.41564e-15 0)
(1 3.10594e-15 0)
(1 1.49355e-15 0)
(1 1.14081e-15 0)
(1 5.71954e-15 0)
(1 8.88605e-15 0)
(1 4.58468e-15 0)
(1 2.4068e-15 0)
(1 7.37516e-15 0)
(1 1.99923e-15 0)
(1 -5.25211e-15 0)
(1 4.44593e-15 0)
(1 -1.24095e-15 0)
(1 1.93942e-15 0)
(1 -4.74357e-15 0)
(1 6.94132e-15 0)
(1 5.41678e-15 0)
(1 9.43143e-15 0)
(1 6.05411e-15 0)
(1 4.65702e-15 0)
(1 2.22303e-15 0)
(1 6.93063e-15 0)
(1 9.28107e-16 0)
(1 8.94725e-15 0)
(1 -3.24829e-15 0)
(1 2.40353e-15 0)
(1 3.80463e-15 0)
(1 4.5846e-15 0)
(1 8.0996e-15 0)
(1 4.85668e-15 0)
(1 5.28413e-15 0)
(1 9.1783e-15 0)
(1 9.43217e-15 0)
(1 1.0197e-14 0)
(1 1.2925e-14 0)
(1 8.06164e-15 0)
(1 2.85006e-15 0)
(1 2.96395e-15 0)
(1 1.72016e-15 0)
(1 5.23128e-15 0)
(1 4.16743e-16 0)
(1 4.24915e-15 0)
(1 4.33241e-15 0)
(1 6.53344e-15 0)
(1 7.36815e-15 0)
(1 5.40361e-15 0)
(1 1.26405e-15 0)
(1 5.20032e-16 0)
(1 2.47131e-15 0)
(1 -1.02736e-15 0)
(1 1.80077e-15 0)
(1 5.84205e-16 0)
(1 4.9389e-15 0)
(1 8.45366e-16 0)
(1 8.27493e-15 0)
(1 4.10987e-15 0)
(1 4.01281e-15 0)
(1 3.17365e-15 0)
(1 7.24776e-15 0)
(1 9.01955e-15 0)
(1 1.08371e-14 0)
(1 5.13769e-15 0)
(1 1.26349e-14 0)
(1 9.09327e-15 0)
(1 2.48844e-14 0)
(1 2.22886e-14 0)
(1 3.29106e-16 0)
(1 -2.63514e-16 0)
(1 1.28307e-15 0)
(1 4.34926e-15 0)
(1 -3.62267e-15 0)
(1 1.75693e-15 0)
(1 -5.41987e-16 0)
(1 -8.87251e-15 0)
(1 2.71181e-15 0)
(1 -8.74324e-15 0)
(1 2.81144e-17 0)
(1 -1.23447e-14 0)
(1 4.75868e-15 0)
(1 7.68983e-15 0)
(1 8.51537e-15 0)
(1 7.1738e-15 0)
(1 3.52247e-15 0)
(1 -4.0803e-16 0)
(1 5.84251e-15 0)
(1 -5.52958e-15 0)
(1 -2.53659e-15 0)
(1 -7.54475e-15 0)
(1 -4.88492e-15 0)
(1 -5.77179e-15 0)
(1 -5.61526e-15 0)
(1 2.05392e-15 0)
(1 8.38053e-15 0)
(1 7.83595e-15 0)
(1 7.62551e-15 0)
(1 -1.12059e-15 0)
(1 -6.69467e-15 0)
(1 -5.38989e-15 0)
(1 -5.20841e-15 0)
(1 -4.7809e-15 0)
(1 -4.07558e-16 0)
(1 5.39221e-15 0)
(1 6.40585e-15 0)
(1 3.42978e-15 0)
(1 5.57838e-15 0)
(1 7.22865e-16 0)
(1 1.09925e-14 0)
(1 -3.84408e-16 0)
(1 1.20028e-14 0)
(1 -2.60978e-15 0)
(1 -1.80205e-15 0)
(1 -3.35341e-15 0)
(1 1.38492e-15 0)
(1 2.94821e-15 0)
(1 4.95806e-16 0)
(1 1.49166e-15 0)
(1 6.23643e-15 0)
(1 6.48291e-15 0)
(1 6.02375e-15 0)
(1 4.1575e-15 0)
(1 7.28165e-15 0)
(1 1.7985e-15 0)
(1 3.53036e-15 0)
(1 -3.31405e-15 0)
(1 7.83177e-15 0)
(1 -3.72989e-15 0)
(1 1.04272e-14 0)
(1 -5.05697e-15 0)
(1 8.51758e-15 0)
(1 6.46819e-15 0)
(1 1.15846e-14 0)
(1 2.94524e-15 0)
(1 8.28633e-15 0)
(1 6.73833e-15 0)
(1 9.04623e-15 0)
(1 7.67786e-15 0)
(1 6.33719e-15 0)
(1 3.74368e-15 0)
(1 5.50256e-15 0)
(1 -2.86303e-15 0)
(1 -3.36812e-15 0)
(1 4.53372e-15 0)
(1 1.18538e-14 0)
(1 1.32411e-14 0)
(1 1.26231e-14 0)
(1 3.11414e-15 0)
(1 1.35187e-15 0)
(1 3.68161e-15 0)
(1 1.80919e-15 0)
(1 -4.24627e-15 0)
(1 5.61155e-16 0)
(1 -1.00333e-15 0)
(1 6.27151e-15 0)
(1 2.72876e-15 0)
(1 6.81486e-15 0)
(1 7.30765e-15 0)
(1 4.64077e-15 0)
(1 2.40234e-15 0)
(1 3.36486e-15 0)
(1 1.11543e-15 0)
(1 6.43466e-15 0)
(1 8.72369e-15 0)
(1 1.1694e-14 0)
(1 1.06692e-14 0)
(1 1.36464e-14 0)
(1 1.19828e-14 0)
(1 3.70619e-15 0)
(1 -4.26291e-15 0)
(1 2.85469e-15 0)
(1 -1.21974e-15 0)
(1 1.75859e-15 0)
(1 -4.27379e-16 0)
(1 -4.72342e-15 0)
(1 -8.87532e-15 0)
(1 -3.74959e-15 0)
(1 4.74112e-15 0)
(1 6.37383e-15 0)
(1 6.93688e-15 0)
(1 1.4181e-15 0)
(1 -1.41793e-15 0)
(1 3.80312e-16 0)
(1 5.00481e-15 0)
(1 8.98223e-15 0)
(1 -1.81382e-15 0)
(1 -3.39952e-15 0)
(1 -8.31924e-15 0)
(1 -1.14055e-14 0)
(1 -7.18235e-15 0)
(1 2.74035e-17 0)
(1 7.7488e-15 0)
(1 1.06683e-14 0)
(1 4.97638e-15 0)
(1 6.04182e-15 0)
(1 4.67851e-15 0)
(1 5.2507e-15 0)
(1 2.77335e-15 0)
(1 -1.67e-15 0)
(1 -7.46298e-15 0)
(1 -5.58338e-15 0)
(1 -6.85647e-15 0)
(1 1.12547e-15 0)
(1 -8.53347e-16 0)
(1 -1.18034e-15 0)
(1 -5.55207e-15 0)
(1 5.44638e-15 0)
(1 1.4389e-15 0)
(1 8.98348e-15 0)
(1 -2.1848e-15 0)
(1 -6.20015e-16 0)
(1 -7.83687e-15 0)
(1 4.26742e-15 0)
(1 2.96137e-15 0)
(1 1.4103e-14 0)
(1 1.02861e-14 0)
(1 8.11284e-15 0)
(1 1.76283e-15 0)
(1 2.72653e-15 0)
(1 3.46143e-15 0)
(1 1.80667e-16 0)
(1 6.27281e-15 0)
(1 8.29185e-15 0)
(1 3.65166e-15 0)
(1 9.62698e-16 0)
(1 9.4816e-16 0)
(1 5.42549e-15 0)
(1 2.64057e-15 0)
(1 1.3565e-15 0)
(1 3.43961e-15 0)
(1 6.51817e-15 0)
(1 5.31514e-15 0)
(1 6.36822e-15 0)
(1 1.25686e-15 0)
(1 3.30552e-15 0)
(1 7.78312e-15 0)
(1 1.02786e-16 0)
(1 6.08232e-15 0)
(1 3.16715e-15 0)
(1 2.37989e-15 0)
(1 1.12107e-14 0)
(1 2.80759e-15 0)
(1 2.97764e-15 0)
(1 2.80064e-15 0)
(1 7.17526e-15 0)
(1 1.98363e-15 0)
(1 7.85267e-15 0)
(1 8.60964e-15 0)
(1 7.59488e-15 0)
(1 1.1658e-14 0)
(1 7.04062e-15 0)
(1 4.40847e-15 0)
(1 6.7495e-16 0)
(1 -7.84809e-15 0)
(1 -3.32757e-16 0)
(1 3.8148e-15 0)
(1 3.95075e-15 0)
(1 8.996e-15 0)
(1 4.1634e-15 0)
(1 7.79022e-15 0)
(1 2.87675e-15 0)
(1 7.46039e-15 0)
(1 4.52273e-15 0)
(1 1.11176e-14 0)
(1 9.77403e-15 0)
(1 1.61783e-14 0)
(1 3.4139e-15 0)
(1 3.90565e-15 0)
(1 4.18528e-15 0)
(1 4.02682e-15 0)
(1 -4.61029e-15 0)
(1 -2.2287e-15 0)
(1 -2.66983e-16 0)
(1 2.04871e-15 0)
(1 1.92867e-15 0)
(1 2.57935e-15 0)
(1 -3.5241e-15 0)
(1 1.28094e-14 0)
(1 4.58326e-15 0)
(1 1.19368e-14 0)
(1 5.33392e-16 0)
(1 -5.4116e-15 0)
(1 -7.53043e-15 0)
(1 -5.38096e-15 0)
(1 1.6122e-15 0)
(1 3.97447e-15 0)
(1 4.46214e-15 0)
(1 -3.1387e-15 0)
(1 -5.31889e-15 0)
(1 -4.54279e-15 0)
(1 -6.77941e-15 0)
(1 -8.63951e-15 0)
(1 -4.30123e-15 0)
(1 1.77791e-15 0)
(1 8.47078e-15 0)
(1 -1.44649e-15 0)
(1 -3.05563e-15 0)
(1 -5.21872e-15 0)
(1 4.36426e-16 0)
(1 -5.56028e-15 0)
(1 -5.59564e-15 0)
(1 5.36597e-15 0)
(1 1.48673e-15 0)
(1 4.30389e-15 0)
(1 3.62374e-15 0)
(1 7.09579e-15 0)
(1 5.54637e-15 0)
(1 1.65739e-15 0)
(1 -9.75758e-15 0)
(1 -4.90664e-15 0)
(1 -9.86943e-15 0)
(1 -2.10693e-15 0)
(1 6.39807e-15 0)
(1 6.74264e-15 0)
(1 4.91123e-15 0)
(1 7.53458e-15 0)
(1 1.48466e-14 0)
(1 6.00626e-15 0)
(1 -2.20434e-15 0)
(1 6.40534e-16 0)
(1 8.65046e-16 0)
(1 4.26557e-15 0)
(1 3.46925e-15 0)
(1 4.70079e-15 0)
(1 1.78858e-15 0)
(1 3.55046e-15 0)
(1 -2.60341e-15 0)
(1 -1.74215e-15 0)
(1 -4.11132e-15 0)
(1 8.34318e-15 0)
(1 1.40665e-14 0)
(1 1.82928e-14 0)
(1 1.12545e-14 0)
(1 6.06624e-15 0)
(1 -1.0155e-15 0)
(1 9.91803e-16 0)
(1 -2.99527e-15 0)
(1 -5.53209e-16 0)
(1 2.80502e-15 0)
(1 6.44838e-15 0)
(1 5.29314e-15 0)
(1 8.96949e-15 0)
(1 1.10896e-14 0)
(1 4.5313e-15 0)
(1 -6.9784e-15 0)
(1 -1.11619e-15 0)
(1 5.65584e-15 0)
(1 6.56509e-15 0)
(1 5.20667e-15 0)
(1 7.47904e-15 0)
(1 5.14781e-15 0)
(1 2.83625e-15 0)
(1 2.31033e-15 0)
(1 6.60784e-15 0)
(1 2.70206e-15 0)
(1 2.65159e-15 0)
(1 1.79095e-15 0)
(1 3.68128e-15 0)
(1 2.50811e-15 0)
(1 3.48086e-15 0)
(1 -8.38315e-16 0)
(1 4.46711e-15 0)
(1 1.87853e-16 0)
(1 7.28941e-15 0)
(1 1.08246e-14 0)
(1 1.06688e-14 0)
(1 6.86018e-15 0)
(1 7.28286e-15 0)
(1 -3.17943e-15 0)
(1 8.39359e-15 0)
(1 -1.75752e-15 0)
(1 -3.11208e-15 0)
(1 -2.05405e-15 0)
(1 -4.44996e-16 0)
(1 4.88062e-16 0)
(1 8.10448e-15 0)
(1 1.26469e-14 0)
(1 1.13883e-14 0)
(1 -2.34978e-15 0)
(1 -1.45093e-15 0)
(1 3.48377e-16 0)
(1 7.08741e-17 0)
(1 -2.3156e-15 0)
(1 -4.79619e-15 0)
(1 -2.35564e-15 0)
(1 4.4534e-16 0)
(1 2.8786e-15 0)
(1 -5.08035e-15 0)
(1 -6.66663e-15 0)
(1 -6.81963e-15 0)
(1 -4.99707e-15 0)
(1 -6.10784e-15 0)
(1 2.38989e-16 0)
(1 1.6886e-16 0)
(1 -2.28245e-15 0)
(1 7.89368e-16 0)
(1 -2.85647e-15 0)
(1 -6.09601e-15 0)
(1 -4.1605e-15 0)
(1 -4.79324e-15 0)
(1 -3.82315e-15 0)
(1 3.52787e-16 0)
(1 9.7189e-15 0)
(1 1.29549e-14 0)
(1 9.63498e-15 0)
(1 8.43961e-15 0)
(1 -1.71334e-15 0)
(1 4.30559e-15 0)
(1 -7.23398e-15 0)
(1 -4.64716e-15 0)
(1 -6.3379e-15 0)
(1 5.91995e-15 0)
(1 8.47273e-15 0)
(1 2.03997e-15 0)
(1 1.69821e-15 0)
(1 1.89126e-15 0)
(1 8.94993e-15 0)
(1 7.02125e-15 0)
(1 1.38841e-16 0)
(1 -6.56543e-15 0)
(1 -1.22082e-15 0)
(1 -5.83238e-15 0)
(1 5.34426e-15 0)
(1 6.50595e-15 0)
(1 7.92197e-15 0)
(1 4.93378e-15 0)
(1 8.60723e-15 0)
(1 4.75323e-15 0)
(1 1.65005e-15 0)
(1 3.22995e-16 0)
(1 4.57598e-15 0)
(1 6.05609e-15 0)
(1 1.16106e-14 0)
(1 1.18322e-14 0)
(1 4.84525e-15 0)
(1 3.77527e-15 0)
(1 2.38502e-15 0)
(1 4.02156e-15 0)
(1 6.13581e-15 0)
(1 9.78892e-15 0)
(1 3.42978e-15 0)
(1 7.69091e-15 0)
(1 6.1826e-15 0)
(1 7.23553e-15 0)
(1 1.33725e-15 0)
(1 1.26815e-14 0)
(1 1.28836e-14 0)
(1 6.01653e-15 0)
(1 4.55893e-15 0)
(1 9.0429e-17 0)
(1 1.51366e-15 0)
(1 -4.42672e-16 0)
(1 3.11865e-15 0)
(1 9.95715e-15 0)
(1 3.15981e-15 0)
(1 3.27691e-15 0)
(1 5.67936e-15 0)
(1 6.70283e-15 0)
(1 -1.93177e-16 0)
(1 2.18004e-15 0)
(1 -1.34218e-15 0)
(1 -1.53792e-16 0)
(1 5.51255e-16 0)
(1 6.38903e-15 0)
(1 1.74143e-14 0)
(1 1.0466e-14 0)
(1 1.44089e-14 0)
(1 1.28524e-14 0)
(1 1.87849e-16 0)
(1 5.01572e-15 0)
(1 3.25628e-15 0)
(1 -2.56706e-15 0)
(1 6.69831e-16 0)
(1 3.91431e-15 0)
(1 -5.46788e-15 0)
(1 -7.69608e-15 0)
(1 3.69021e-15 0)
(1 6.53735e-15 0)
(1 3.69249e-15 0)
(1 4.36274e-15 0)
(1 -6.94539e-15 0)
(1 2.35492e-15 0)
(1 2.37147e-15 0)
(1 -8.53329e-15 0)
(1 -4.17448e-15 0)
(1 -8.29537e-15 0)
(1 -4.56218e-15 0)
(1 -4.06367e-15 0)
(1 -1.23616e-14 0)
(1 4.60135e-15 0)
(1 9.97324e-15 0)
(1 1.68675e-14 0)
(1 1.41019e-14 0)
(1 7.62712e-15 0)
(1 -9.52517e-15 0)
(1 -1.00218e-14 0)
(1 -7.66226e-15 0)
(1 -1.67412e-15 0)
(1 -4.63965e-15 0)
(1 -1.30594e-15 0)
(1 5.75112e-16 0)
(1 -8.60154e-15 0)
(1 3.21288e-15 0)
(1 -1.65922e-15 0)
(1 7.7106e-15 0)
(1 5.23287e-15 0)
(1 -1.53105e-15 0)
(1 3.93424e-15 0)
(1 5.13374e-16 0)
(1 7.91581e-15 0)
(1 -7.81871e-16 0)
(1 2.04075e-15 0)
(1 2.12942e-16 0)
(1 -4.13503e-16 0)
(1 2.98715e-15 0)
(1 1.57028e-15 0)
(1 7.05136e-17 0)
(1 8.67441e-15 0)
(1 6.41001e-15 0)
(1 3.2847e-15 0)
(1 -4.92281e-15 0)
(1 8.5404e-16 0)
(1 7.97982e-15 0)
(1 3.61146e-15 0)
(1 4.6182e-15 0)
(1 1.7259e-15 0)
(1 3.75644e-15 0)
(1 3.49782e-15 0)
(1 6.48919e-15 0)
(1 5.14586e-15 0)
(1 6.59902e-15 0)
(1 7.65519e-15 0)
(1 9.12601e-15 0)
(1 6.49701e-15 0)
(1 1.20029e-14 0)
(1 9.51079e-15 0)
(1 1.03316e-14 0)
(1 9.04443e-15 0)
(1 8.11948e-15 0)
(1 7.97516e-15 0)
(1 3.13038e-15 0)
(1 1.9358e-15 0)
(1 5.12427e-15 0)
(1 7.47698e-15 0)
(1 8.95574e-15 0)
(1 7.61037e-15 0)
(1 8.46398e-15 0)
(1 1.07778e-14 0)
(1 4.14571e-15 0)
(1 5.01621e-17 0)
(1 3.83849e-15 0)
(1 2.49198e-15 0)
(1 4.63248e-15 0)
(1 -2.40193e-16 0)
(1 -4.0422e-16 0)
(1 -1.41621e-15 0)
(1 7.54986e-16 0)
(1 7.56459e-16 0)
(1 1.32008e-15 0)
(1 -3.51848e-18 0)
(1 6.71873e-15 0)
(1 3.98526e-15 0)
(1 8.5063e-15 0)
(1 5.29435e-15 0)
(1 9.76721e-15 0)
(1 1.27618e-14 0)
(1 1.61946e-14 0)
(1 1.3858e-14 0)
(1 -7.35752e-16 0)
(1 3.09083e-16 0)
(1 -6.62693e-15 0)
(1 6.12173e-15 0)
(1 4.68091e-16 0)
(1 6.1409e-15 0)
(1 9.3102e-15 0)
(1 1.07705e-14 0)
(1 4.05985e-15 0)
(1 -7.28934e-16 0)
(1 -1.17127e-15 0)
(1 -1.09764e-14 0)
(1 -4.55625e-15 0)
(1 -2.0968e-15 0)
(1 2.79315e-15 0)
(1 -1.07765e-15 0)
(1 -3.2102e-15 0)
(1 -3.51451e-15 0)
(1 -8.86962e-15 0)
(1 -7.44124e-15 0)
(1 -5.06731e-15 0)
(1 -2.24364e-15 0)
(1 2.50267e-15 0)
(1 -2.60635e-15 0)
(1 1.8147e-15 0)
(1 -1.30453e-15 0)
(1 -3.42207e-15 0)
(1 -1.43781e-14 0)
(1 -1.1114e-14 0)
(1 -3.02151e-15 0)
(1 -4.17383e-15 0)
(1 4.01823e-15 0)
(1 9.67655e-16 0)
(1 1.01168e-14 0)
(1 4.3967e-15 0)
(1 6.26521e-15 0)
(1 7.90898e-15 0)
(1 1.35156e-15 0)
(1 7.03362e-16 0)
(1 -2.63635e-15 0)
(1 2.40208e-15 0)
(1 5.41902e-15 0)
(1 8.19873e-15 0)
(1 1.96689e-15 0)
(1 -6.36651e-15 0)
(1 -4.91785e-15 0)
(1 -7.91465e-16 0)
(1 4.66478e-16 0)
(1 2.23769e-15 0)
(1 -1.89729e-15 0)
(1 8.68181e-15 0)
(1 5.75873e-15 0)
(1 1.76175e-15 0)
(1 4.12023e-16 0)
(1 6.89559e-16 0)
(1 6.31245e-16 0)
(1 8.58113e-15 0)
(1 3.53951e-15 0)
(1 1.4553e-15 0)
(1 -5.36336e-15 0)
(1 2.25008e-15 0)
(1 1.84487e-15 0)
(1 6.98231e-16 0)
(1 1.11056e-14 0)
(1 1.33547e-15 0)
(1 -5.63354e-15 0)
(1 7.8909e-15 0)
(1 3.99174e-15 0)
(1 1.51791e-14 0)
(1 5.3925e-15 0)
(1 9.06218e-15 0)
(1 6.6197e-15 0)
(1 7.53205e-15 0)
(1 1.97913e-15 0)
(1 7.97037e-15 0)
(1 1.19699e-15 0)
(1 7.74171e-15 0)
(1 9.21938e-15 0)
(1 5.25124e-15 0)
(1 1.21239e-14 0)
(1 -1.7249e-15 0)
(1 6.28682e-15 0)
(1 2.64431e-15 0)
(1 3.19028e-15 0)
(1 -1.08517e-15 0)
(1 -3.36604e-15 0)
(1 -1.24104e-15 0)
(1 -2.66792e-15 0)
(1 -1.60099e-15 0)
(1 7.11619e-16 0)
(1 7.33842e-15 0)
(1 1.56828e-15 0)
(1 7.11198e-15 0)
(1 3.84061e-15 0)
(1 5.28025e-15 0)
(1 1.09789e-14 0)
(1 5.48446e-15 0)