/*--------------------------------*- C++ -*----------------------------------*\
| =========                 |                                                 |
| \\      /  F ield         | OpenFOAM: The Open Source CFD Toolbox           |
|  \\    /   O peration     | Version:  v2012                                 |
|   \\  /    A nd           | Website:  www.openfoam.com                      |
|    \\/     M anipulation  |                                                 |
\*---------------------------------------------------------------------------*/
FoamFile
{
    version     2.0;
    format      ascii;
    class       volScalarField;
    location    "0";
    object      p;
}
// * * * * * * * * * * * * * * * * * * * * * * * * * * * * * * * * * * * * * //

dimensions      [0 2 -2 0 0 0 0];


internalField   nonuniform List<scalar> 
4000
(
3.03715e-13
3.03108e-13
2.99021e-13
3.03249e-13
3.01543e-13
2.93589e-13
2.96157e-13
2.91413e-13
2.85714e-13
2.86695e-13
2.73424e-13
2.66529e-13
2.59387e-13
2.66448e-13
2.56725e-13
2.47336e-13
2.50765e-13
2.5363e-13
2.51295e-13
2.42424e-13
2.38795e-13
2.32054e-13
2.28004e-13
2.20968e-13
2.11915e-13
2.02465e-13
1.98777e-13
1.9345e-13
1.93009e-13
1.93585e-13
1.82581e-13
1.79292e-13
1.8539e-13
1.866e-13
1.78975e-13
1.83258e-13
1.7572e-13
1.58405e-13
1.50685e-13
1.40863e-13
1.30473e-13
1.34895e-13
1.32878e-13
1.38823e-13
1.47677e-13
1.37578e-13
1.2414e-13
1.18051e-13
1.14039e-13
1.08085e-13
1.02729e-13
1.10499e-13
1.13552e-13
1.11653e-13
1.11584e-13
1.06985e-13
1.07351e-13
1.13099e-13
1.14651e-13
1.20677e-13
1.22015e-13
1.24792e-13
1.1648e-13
1.04077e-13
9.85398e-14
1.03569e-13
1.05201e-13
1.07005e-13
1.00857e-13
9.54108e-14
9.53245e-14
8.98748e-14
8.03828e-14
8.26795e-14
8.86796e-14
8.53996e-14
8.7146e-14
8.97936e-14
8.34082e-14
7.05252e-14
5.63573e-14
5.74701e-14
5.44138e-14
4.06893e-14
4.03468e-14
4.08144e-14
4.711e-14
4.81938e-14
4.77018e-14
4.64568e-14
4.29994e-14
3.83371e-14
4.15822e-14
4.13746e-14
2.62502e-14
2.55767e-14
2.85734e-14
1.60928e-14
6.84596e-15
-1.11822e-15
3.04045e-13
2.98175e-13
3.04199e-13
3.04554e-13
3.02859e-13
2.9634e-13
2.98549e-13
2.92826e-13
2.8396e-13
2.78503e-13
2.72791e-13
2.72408e-13
2.62331e-13
2.60447e-13
2.56619e-13
2.53823e-13
2.52057e-13
2.51316e-13
2.48347e-13
2.46022e-13
2.39231e-13
2.28718e-13
2.26203e-13
2.20451e-13
2.10021e-13
2.04019e-13
2.01324e-13
1.96916e-13
1.92554e-13
1.9121e-13
1.86037e-13
1.83445e-13
1.83965e-13
1.76605e-13
1.77418e-13
1.7913e-13
1.74613e-13
1.62114e-13
1.48556e-13
1.39286e-13
1.37981e-13
1.34966e-13
1.37605e-13
1.3959e-13
1.40777e-13
1.34765e-13
1.25197e-13
1.17031e-13
1.15193e-13
1.07468e-13
1.04986e-13
1.08618e-13
1.13383e-13
1.16471e-13
1.10855e-13
1.08709e-13
1.0836e-13
1.08164e-13
1.10946e-13
1.21425e-13
1.24488e-13
1.22959e-13
1.19128e-13
1.07863e-13
1.0008e-13
1.03412e-13
1.02423e-13
1.05301e-13
9.9905e-14
9.85336e-14
9.53311e-14
8.93712e-14
8.85736e-14
8.32891e-14
8.36648e-14
8.37028e-14
8.65588e-14
8.78437e-14
7.93794e-14
7.1948e-14
6.22778e-14
5.63762e-14
5.68664e-14
4.51946e-14
4.04423e-14
4.01228e-14
4.27729e-14
4.40684e-14
4.77083e-14
4.61255e-14
4.60802e-14
4.16266e-14
4.19797e-14
3.93018e-14
2.91617e-14
2.99751e-14
1.86634e-14
1.12385e-14
7.35367e-15
1.08371e-15
2.99821e-13
2.96288e-13
3.05462e-13
3.0527e-13
3.05019e-13
2.99102e-13
2.91886e-13
2.88363e-13
2.85423e-13
2.7771e-13
2.70758e-13
2.69015e-13
2.62068e-13
2.63509e-13
2.60103e-13
2.54538e-13
2.46934e-13
2.47095e-13
2.5148e-13
2.48192e-13
2.37295e-13
2.33563e-13
2.28171e-13
2.17114e-13
2.11534e-13
2.06196e-13
2.03113e-13
1.94505e-13
1.89761e-13
1.86999e-13
1.87258e-13
1.84306e-13
1.85537e-13
1.8304e-13
1.76407e-13
1.8312e-13
1.72879e-13
1.59757e-13
1.47098e-13
1.41661e-13
1.38844e-13
1.31984e-13
1.42237e-13
1.39322e-13
1.3275e-13
1.35443e-13
1.21857e-13
1.20001e-13
1.18015e-13
1.1708e-13
1.08849e-13
1.05229e-13
1.02202e-13
1.11312e-13
1.11994e-13
1.11874e-13
1.11708e-13
1.12783e-13
1.1724e-13
1.23801e-13
1.24482e-13
1.18143e-13
1.18482e-13
1.07893e-13
1.00405e-13
1.02997e-13
1.03301e-13
1.03447e-13
1.02271e-13
9.49033e-14
9.34186e-14
8.68029e-14
8.43709e-14
8.23376e-14
8.43657e-14
8.32259e-14
8.73028e-14
8.74298e-14
7.98401e-14
7.71807e-14
6.85823e-14
5.68028e-14
5.27918e-14
4.58009e-14
3.97117e-14
3.79012e-14
4.7548e-14
4.23287e-14
4.69901e-14
4.56613e-14
4.2196e-14
4.45554e-14
4.33069e-14
4.16663e-14
3.04383e-14
2.4856e-14
1.90905e-14
9.83208e-15
7.63538e-15
1.05167e-15
2.97516e-13
2.97967e-13
3.00506e-13
2.98793e-13
2.98518e-13
2.98786e-13
2.89745e-13
2.90039e-13
2.88826e-13
2.74048e-13
2.73408e-13
2.71918e-13
2.60315e-13
2.59701e-13
2.61926e-13
2.59216e-13
2.46226e-13
2.44889e-13
2.47084e-13
2.41512e-13
2.37692e-13
2.33666e-13
2.28314e-13
2.13581e-13
2.08251e-13
2.0388e-13
2.01537e-13
2.00113e-13
1.92522e-13
1.87292e-13
1.83759e-13
1.85877e-13
1.83683e-13
1.80904e-13
1.75539e-13
1.77679e-13
1.72446e-13
1.64166e-13
1.50328e-13
1.41869e-13
1.38384e-13
1.36708e-13
1.4324e-13
1.3619e-13
1.32151e-13
1.33471e-13
1.2596e-13
1.17848e-13
1.13345e-13
1.12872e-13
1.09659e-13
1.07854e-13
1.07355e-13
1.13246e-13
1.16056e-13
1.15634e-13
1.10136e-13
1.08828e-13
1.15303e-13
1.15082e-13
1.21423e-13
1.23623e-13
1.22094e-13
1.09833e-13
1.03029e-13
1.01086e-13
1.04251e-13
1.02748e-13
1.03363e-13
9.79409e-14
9.63258e-14
8.6913e-14
8.81385e-14
8.5709e-14
8.46277e-14
8.38194e-14
8.70248e-14
8.95759e-14
8.21383e-14
7.73078e-14
7.12171e-14
5.79136e-14
5.02205e-14
4.33192e-14
4.42784e-14
3.83668e-14
4.30212e-14
4.1599e-14
4.13586e-14
4.58852e-14
4.40277e-14
4.46841e-14
4.38577e-14
3.8357e-14
3.14798e-14
2.6041e-14
2.09789e-14
8.37793e-15
5.23059e-15
2.44966e-15
2.94967e-13
2.9782e-13
3.00294e-13
3.0067e-13
2.95224e-13
2.94398e-13
2.92766e-13
2.87557e-13
2.84053e-13
2.72748e-13
2.66634e-13
2.71307e-13
2.67337e-13
2.65296e-13
2.60927e-13
2.55263e-13
2.51212e-13
2.48793e-13
2.42578e-13
2.35794e-13
2.3431e-13
2.33505e-13
2.24429e-13
2.17197e-13
2.08102e-13
2.04533e-13
1.98734e-13
1.94521e-13
1.94291e-13
1.89194e-13
1.8232e-13
1.82299e-13
1.85518e-13
1.79394e-13
1.75439e-13
1.76081e-13
1.73486e-13
1.64582e-13
1.52725e-13
1.4063e-13
1.38181e-13
1.36753e-13
1.40625e-13
1.35901e-13
1.34637e-13
1.2576e-13
1.20416e-13
1.18093e-13
1.18937e-13
1.18514e-13
1.1497e-13
1.10304e-13
1.06413e-13
1.09383e-13
1.12261e-13
1.13529e-13
1.14033e-13
1.10239e-13
1.10209e-13
1.19504e-13
1.23369e-13
1.21053e-13
1.18316e-13
1.11254e-13
1.07826e-13
1.04753e-13
1.05152e-13
1.03498e-13
1.03394e-13
9.69355e-14
9.22741e-14
8.57302e-14
9.23095e-14
8.35144e-14
8.70747e-14
8.25488e-14
8.51649e-14
8.98158e-14
8.57929e-14
7.70233e-14
7.1029e-14
6.27837e-14
4.71338e-14
4.48771e-14
4.71207e-14
3.41125e-14
4.38469e-14
4.41406e-14
4.11238e-14
4.18538e-14
4.1627e-14
4.09605e-14
4.21315e-14
3.90612e-14
3.38505e-14
2.31506e-14
2.12605e-14
9.32453e-15
6.70754e-15
-2.75275e-15
2.90868e-13
3.00251e-13
2.9945e-13
2.90762e-13
2.91512e-13
2.90832e-13
2.87209e-13
2.87749e-13
2.78105e-13
2.7168e-13
2.71349e-13
2.74808e-13
2.70104e-13
2.60641e-13
2.56163e-13
2.58126e-13
2.50712e-13
2.49041e-13
2.501e-13
2.38947e-13
2.31294e-13
2.22965e-13
2.10645e-13
2.10261e-13
2.06115e-13
2.05113e-13
2.01348e-13
1.95155e-13
1.98451e-13
1.92414e-13
1.83088e-13
1.8299e-13
1.85e-13
1.79495e-13
1.76177e-13
1.74833e-13
1.72979e-13
1.66241e-13
1.51144e-13
1.42902e-13
1.37855e-13
1.34622e-13
1.35817e-13
1.35631e-13
1.34908e-13
1.26972e-13
1.24977e-13
1.21444e-13
1.20795e-13
1.19709e-13
1.1099e-13
1.0996e-13
1.09188e-13
1.12059e-13
1.10235e-13
1.12945e-13
1.15097e-13
1.08963e-13
1.16271e-13
1.23887e-13
1.22956e-13
1.19643e-13
1.17539e-13
1.12417e-13
1.05657e-13
1.08452e-13
1.10204e-13
1.06398e-13
1.03104e-13
9.44456e-14
9.30206e-14
9.48712e-14
9.33913e-14
8.55481e-14
8.49935e-14
8.31405e-14
8.53646e-14
8.6198e-14
8.91575e-14
8.01411e-14
7.16259e-14
6.12036e-14
4.75428e-14
4.89896e-14
4.60158e-14
4.19735e-14
4.84878e-14
4.21233e-14
3.4021e-14
3.57357e-14
4.22209e-14
3.80949e-14
3.75905e-14
3.54939e-14
3.18109e-14
2.39688e-14
1.60044e-14
9.18443e-15
5.32279e-15
-4.46293e-15
2.93284e-13
2.95223e-13
2.97453e-13
2.90931e-13
2.81878e-13
2.89427e-13
2.82197e-13
2.87338e-13
2.73237e-13
2.69531e-13
2.67975e-13
2.69591e-13
2.7125e-13
2.59009e-13
2.5666e-13
2.59517e-13
2.58966e-13
2.5379e-13
2.36487e-13
2.26306e-13
2.23832e-13
2.20705e-13
2.24986e-13
2.18999e-13
2.02659e-13
1.9849e-13
2.00386e-13
1.9537e-13
1.92545e-13
1.95831e-13
1.88117e-13
1.84348e-13
1.78329e-13
1.72633e-13
1.74671e-13
1.71046e-13
1.71403e-13
1.67014e-13
1.55084e-13
1.43112e-13
1.3668e-13
1.37251e-13
1.38853e-13
1.36705e-13
1.37748e-13
1.29235e-13
1.26278e-13
1.19494e-13
1.17568e-13
1.20061e-13
1.22495e-13
1.22953e-13
1.10214e-13
1.10303e-13
1.13161e-13
1.12182e-13
1.11255e-13
1.05258e-13
1.13569e-13
1.22616e-13
1.25627e-13
1.28141e-13
1.2232e-13
1.09713e-13
1.04471e-13
1.0355e-13
1.03334e-13
1.02987e-13
1.03944e-13
1.02267e-13
9.78383e-14
9.43491e-14
9.35047e-14
9.19208e-14
8.7788e-14
8.67312e-14
7.97349e-14
7.51065e-14
8.36776e-14
8.42257e-14
7.10276e-14
6.24977e-14
5.12841e-14
5.07765e-14
4.33562e-14
4.59887e-14
4.60426e-14
4.78493e-14
3.72201e-14
3.62163e-14
3.96603e-14
3.192e-14
3.43695e-14
3.22198e-14
2.82762e-14
2.16108e-14
1.61694e-14
7.78725e-15
4.0282e-15
-8.37607e-16
2.90776e-13
2.88338e-13
2.92166e-13
2.95238e-13
2.87965e-13
2.90463e-13
2.82233e-13
2.80536e-13
2.6834e-13
2.6704e-13
2.65312e-13
2.64167e-13
2.64922e-13
2.58306e-13
2.55462e-13
2.5347e-13
2.55446e-13
2.5121e-13
2.40441e-13
2.32723e-13
2.32116e-13
2.23095e-13
2.1e-13
2.00519e-13
2.04006e-13
1.97952e-13
1.98859e-13
1.96394e-13
1.93734e-13
1.93768e-13
1.90452e-13
1.858e-13
1.79733e-13
1.76634e-13
1.74141e-13
1.7221e-13
1.6189e-13
1.6341e-13
1.60008e-13
1.4807e-13
1.36135e-13
1.33321e-13
1.31435e-13
1.37289e-13
1.44736e-13
1.32581e-13
1.21908e-13
1.1828e-13
1.20683e-13
1.20883e-13
1.2224e-13
1.19841e-13
1.16045e-13
1.13265e-13
1.10866e-13
1.11974e-13
1.14514e-13
1.08662e-13
1.14809e-13
1.23487e-13
1.27079e-13
1.23976e-13
1.19874e-13
1.11238e-13
1.09916e-13
1.06659e-13
1.05488e-13
1.05118e-13
1.053e-13
1.02973e-13
9.70793e-14
9.50972e-14
8.65039e-14
8.16433e-14
7.92075e-14
8.83465e-14
8.66123e-14
8.14112e-14
8.90828e-14
8.70102e-14
7.70214e-14
6.25276e-14
5.28218e-14
4.65556e-14
4.41571e-14
5.01892e-14
4.74748e-14
4.64055e-14
3.91401e-14
3.35254e-14
3.50569e-14
2.95457e-14
3.12936e-14
3.07473e-14
2.39268e-14
2.01783e-14
1.42426e-14
7.12977e-15
3.90303e-15
-7.61235e-16
2.89592e-13
2.87615e-13
2.88308e-13
2.87899e-13
2.84955e-13
2.82464e-13
2.84745e-13
2.75798e-13
2.65434e-13
2.67786e-13
2.63789e-13
2.61207e-13
2.58428e-13
2.59976e-13
2.585e-13
2.58271e-13
2.50062e-13
2.42243e-13
2.41838e-13
2.3548e-13
2.2311e-13
2.11818e-13
2.10928e-13
2.07212e-13
2.03631e-13
1.97439e-13
1.92857e-13
1.97637e-13
1.97948e-13
1.86657e-13
1.8839e-13
1.85233e-13
1.76569e-13
1.70401e-13
1.75305e-13
1.73734e-13
1.67209e-13
1.62771e-13
1.56145e-13
1.41979e-13
1.3798e-13
1.38265e-13
1.34528e-13
1.3498e-13
1.39604e-13
1.32328e-13
1.26228e-13
1.23018e-13
1.2724e-13
1.23719e-13
1.20677e-13
1.17237e-13
1.19434e-13
1.15613e-13
1.10594e-13
1.08023e-13
1.13471e-13
1.10888e-13
1.13747e-13
1.22597e-13
1.27133e-13
1.23798e-13
1.18351e-13
1.09132e-13
1.1013e-13
1.04629e-13
1.0563e-13
1.08576e-13
1.06422e-13
9.82077e-14
9.179e-14
9.63202e-14
9.06786e-14
8.78224e-14
8.4425e-14
8.59843e-14
8.56189e-14
8.36847e-14
9.38563e-14
8.88963e-14
7.98767e-14
6.43337e-14
5.36594e-14
4.99394e-14
5.08394e-14
4.84952e-14
4.56214e-14
4.31147e-14
4.47748e-14
3.7422e-14
3.36647e-14
2.77536e-14
2.80219e-14
2.67409e-14
1.95444e-14
1.41295e-14
1.39014e-14
6.95535e-15
1.67853e-15
-4.04174e-15
2.85612e-13
2.86182e-13
2.92783e-13
2.83568e-13
2.84139e-13
2.83211e-13
2.81725e-13
2.78359e-13
2.63503e-13
2.56968e-13
2.55629e-13
2.55536e-13
2.59315e-13
2.62536e-13
2.55667e-13
2.52326e-13
2.47916e-13
2.5168e-13
2.53949e-13
2.3735e-13
2.21349e-13
2.1007e-13
2.06509e-13
2.0004e-13
1.99915e-13
1.97283e-13
1.98485e-13
1.98748e-13
1.96018e-13
1.84492e-13
1.8421e-13
1.79366e-13
1.80511e-13
1.7371e-13
1.75879e-13
1.69316e-13
1.64188e-13
1.60066e-13
1.53701e-13
1.46346e-13
1.37689e-13
1.33725e-13
1.33299e-13
1.31572e-13
1.42187e-13
1.36866e-13
1.25262e-13
1.26289e-13
1.2957e-13
1.22879e-13
1.19822e-13
1.21253e-13
1.17245e-13
1.16147e-13
1.09164e-13
1.08931e-13
1.09746e-13
1.1129e-13
1.16935e-13
1.2117e-13
1.23011e-13
1.29342e-13
1.29573e-13
1.10483e-13
1.0589e-13
9.66015e-14
1.02745e-13
1.04268e-13
1.05646e-13
1.03864e-13
1.00494e-13
1.00848e-13
9.35497e-14
8.6671e-14
8.47209e-14
8.12021e-14
8.48357e-14
9.30035e-14
9.72529e-14
8.37302e-14
7.18153e-14
6.6608e-14
6.40609e-14
5.45466e-14
5.29648e-14
4.50824e-14
4.56944e-14
4.20629e-14
4.35649e-14
3.63019e-14
3.39034e-14
2.8709e-14
2.2464e-14
2.64557e-14
1.85078e-14
1.19145e-14
1.10392e-14
3.69811e-15
-2.59058e-15
-3.19216e-15
2.85193e-13
2.86163e-13
2.85027e-13
2.85825e-13
2.82041e-13
2.77699e-13
2.76437e-13
2.70946e-13
2.62064e-13
2.64882e-13
2.58653e-13
2.5359e-13
2.60863e-13
2.77138e-13
2.62775e-13
2.53771e-13
2.40802e-13
2.39182e-13
2.47533e-13
2.36472e-13
2.23504e-13
2.07009e-13
2.03297e-13
2.01033e-13
2.00725e-13
1.958e-13
1.97219e-13
1.99769e-13
1.93844e-13
1.90237e-13
1.84534e-13
1.74414e-13
1.76341e-13
1.73734e-13
1.79413e-13
1.69681e-13
1.65131e-13
1.57347e-13
1.53923e-13
1.40374e-13
1.35688e-13
1.35628e-13
1.31792e-13
1.39125e-13
1.44093e-13
1.36183e-13
1.291e-13
1.24899e-13
1.22822e-13
1.22618e-13
1.23546e-13
1.24472e-13
1.21168e-13
1.11827e-13
1.09853e-13
1.09267e-13
1.11478e-13
1.14766e-13
1.15532e-13
1.13871e-13
1.16699e-13
1.16453e-13
1.22882e-13
1.20099e-13
1.07561e-13
1.06741e-13
1.05176e-13
1.06794e-13
1.05674e-13
1.06947e-13
1.00612e-13
1.00187e-13
9.54743e-14
9.16777e-14
8.4755e-14
7.88715e-14
8.72668e-14
9.55888e-14
9.59082e-14
8.76873e-14
7.87355e-14
6.99337e-14
6.59702e-14
5.59435e-14
5.28411e-14
4.34822e-14
4.38997e-14
4.55815e-14
4.30504e-14
3.7657e-14
3.27518e-14
2.90298e-14
2.50477e-14
2.38206e-14
1.81893e-14
1.26917e-14
8.78853e-15
-3.94104e-15
-8.4254e-15
-2.2518e-15
2.88118e-13
2.87003e-13
2.85958e-13
2.8472e-13
2.80812e-13
2.75044e-13
2.78716e-13
2.71067e-13
2.69699e-13
2.63755e-13
2.53837e-13
2.51238e-13
2.49405e-13
2.54607e-13
2.53926e-13
2.55406e-13
2.51044e-13
2.49115e-13
2.46833e-13
2.338e-13
2.22086e-13
2.05772e-13
1.99421e-13
2.00085e-13
1.98014e-13
1.93051e-13
1.90811e-13
1.99193e-13
2.0078e-13
1.89411e-13
1.85613e-13
1.76692e-13
1.748e-13
1.72236e-13
1.74494e-13
1.68264e-13
1.62657e-13
1.56611e-13
1.48331e-13
1.40129e-13
1.38049e-13
1.36268e-13
1.33749e-13
1.40395e-13
1.383e-13
1.39526e-13
1.285e-13
1.29268e-13
1.28667e-13
1.25154e-13
1.19974e-13
1.22357e-13
1.18269e-13
1.14525e-13
1.12331e-13
1.03057e-13
1.0999e-13
1.17053e-13
1.17962e-13
1.15484e-13
1.21342e-13
1.29695e-13
1.2556e-13
1.18123e-13
9.92358e-14
1.02228e-13
1.06488e-13
1.06171e-13
1.05632e-13
1.07362e-13
1.03634e-13
1.0475e-13
1.00516e-13
9.8557e-14
8.77192e-14
7.38516e-14
8.71101e-14
9.77693e-14
9.3621e-14
8.48427e-14
7.03208e-14
6.76227e-14
6.31841e-14
5.93427e-14
5.31285e-14
4.50461e-14
3.97266e-14
4.48142e-14
4.41007e-14
3.7639e-14
3.18536e-14
2.95408e-14
2.35829e-14
2.37717e-14
1.57359e-14
1.26177e-14
5.32918e-15
-2.18961e-15
-7.14364e-15
-4.26199e-15
2.87778e-13
2.85355e-13
2.79637e-13
2.88103e-13
2.82386e-13
2.80169e-13
2.65614e-13
2.65609e-13
2.63854e-13
2.60812e-13
2.60397e-13
2.57184e-13
2.60234e-13
2.5787e-13
2.54057e-13
2.54789e-13
2.49525e-13
2.47252e-13
2.42959e-13
2.24644e-13
2.18522e-13
2.0705e-13
2.00503e-13
1.93526e-13
1.91373e-13
1.95936e-13
1.91953e-13
1.9363e-13
1.93762e-13
1.90414e-13
1.83666e-13
1.75586e-13
1.78397e-13
1.78755e-13
1.80035e-13
1.65176e-13
1.60623e-13
1.57327e-13
1.49969e-13
1.40163e-13
1.36354e-13
1.38985e-13
1.35306e-13
1.37641e-13
1.33239e-13
1.34886e-13
1.29788e-13
1.30705e-13
1.33097e-13
1.27013e-13
1.20687e-13
1.22326e-13
1.19999e-13
1.09541e-13
1.16556e-13
1.16278e-13
1.0939e-13
1.06534e-13
1.09825e-13
1.15138e-13
1.186e-13
1.21321e-13
1.24196e-13
1.25296e-13
1.10373e-13
1.06887e-13
1.01948e-13
1.05554e-13
1.08403e-13
1.08845e-13
1.00475e-13
9.91985e-14
1.01442e-13
9.94521e-14
9.01983e-14
8.06159e-14
9.0852e-14
9.83222e-14
9.17187e-14
8.1571e-14
7.12943e-14
6.98442e-14
6.46246e-14
5.60795e-14
5.38154e-14
4.78536e-14
4.22526e-14
4.38204e-14
4.13543e-14
2.96565e-14
3.01238e-14
3.0838e-14
2.57241e-14
2.25053e-14
1.34478e-14
1.08666e-14
6.78527e-15
2.3541e-15
-8.87372e-15
-5.44606e-15
2.81011e-13
2.90231e-13
2.82675e-13
2.81281e-13
2.80516e-13
2.77733e-13
2.74006e-13
2.7656e-13
2.70775e-13
2.52774e-13
2.41368e-13
2.49403e-13
2.5822e-13
2.56049e-13
2.61516e-13
2.56542e-13
2.49279e-13
2.43418e-13
2.41867e-13
2.24426e-13
2.12634e-13
2.03575e-13
2.06839e-13
1.99972e-13
1.82369e-13
1.94336e-13
1.92654e-13
1.98033e-13
1.91434e-13
1.83295e-13
1.82216e-13
1.8149e-13
1.74958e-13
1.70978e-13
1.67924e-13
1.62953e-13
1.63513e-13
1.60959e-13
1.5347e-13
1.45791e-13
1.34144e-13
1.34244e-13
1.39464e-13
1.36252e-13
1.3464e-13
1.34202e-13
1.30823e-13
1.31577e-13
1.37499e-13
1.2797e-13
1.18843e-13
1.1604e-13
1.16254e-13
1.16354e-13
1.14372e-13
1.12512e-13
1.15727e-13
1.13527e-13
1.18148e-13
1.18519e-13
1.17062e-13
1.1954e-13
1.21239e-13
1.24385e-13
1.12838e-13
1.07859e-13
1.02959e-13
1.06352e-13
1.08664e-13
1.06004e-13
1.02916e-13
1.03982e-13
1.03063e-13
1.0303e-13
9.88304e-14
8.7661e-14
9.05311e-14
8.98195e-14
8.72579e-14
8.07845e-14
7.58838e-14
6.87044e-14
6.05339e-14
5.74926e-14
4.87932e-14
4.80455e-14
4.8373e-14
4.76395e-14
3.90373e-14
3.47189e-14
3.41758e-14
3.41453e-14
2.90747e-14
2.39761e-14
1.19368e-14
8.37389e-16
2.53661e-15
4.57959e-15
-2.96839e-15
-6.78774e-15
2.8085e-13
2.87135e-13
2.87548e-13
2.78394e-13
2.82656e-13
2.81888e-13
2.73611e-13
2.67887e-13
2.6825e-13
2.561e-13
2.4943e-13
2.52162e-13
2.52481e-13
2.60522e-13
2.6298e-13
2.51165e-13
2.47609e-13
2.45394e-13
2.40515e-13
2.2241e-13
2.11272e-13
1.93729e-13
1.99865e-13
2.01876e-13
1.93499e-13
1.93942e-13
1.90323e-13
1.884e-13
1.84911e-13
1.84891e-13
1.85174e-13
1.84303e-13
1.77523e-13
1.70196e-13
1.70993e-13
1.63815e-13
1.63935e-13
1.62233e-13
1.58009e-13
1.43577e-13
1.33903e-13
1.34331e-13
1.30136e-13
1.32951e-13
1.37086e-13
1.38627e-13
1.31406e-13
1.28226e-13
1.35079e-13
1.30862e-13
1.27634e-13
1.25806e-13
1.17005e-13
1.08912e-13
1.1227e-13
1.139e-13
1.11686e-13
1.14688e-13
1.16475e-13
1.14624e-13
1.19776e-13
1.2298e-13
1.23811e-13
1.21134e-13
1.05344e-13
1.09657e-13
1.04464e-13
1.05499e-13
1.11231e-13
1.01317e-13
1.05713e-13
1.02413e-13
1.03474e-13
1.03534e-13
9.79112e-14
8.82868e-14
9.36127e-14
9.02291e-14
8.48191e-14
8.58658e-14
7.69371e-14
7.25175e-14
6.42369e-14
5.31989e-14
5.12502e-14
5.11375e-14
4.42393e-14
4.63714e-14
3.7288e-14
3.98855e-14
3.1746e-14
3.14459e-14
2.94319e-14
2.22288e-14
9.02028e-15
8.63165e-17
2.98185e-15
1.42376e-15
-1.42353e-15
-2.06669e-15
2.77272e-13
2.84932e-13
2.84693e-13
2.87473e-13
2.81531e-13
2.86486e-13
2.80206e-13
2.71068e-13
2.5864e-13
2.52412e-13
2.48689e-13
2.52511e-13
2.53953e-13
2.63251e-13
2.54262e-13
2.551e-13
2.43559e-13
2.40874e-13
2.31745e-13
2.25681e-13
2.14599e-13
2.03089e-13
1.99419e-13
1.83319e-13
1.98796e-13
1.98533e-13
1.96651e-13
1.94762e-13
1.88742e-13
1.82087e-13
1.81316e-13
1.81651e-13
1.79765e-13
1.70871e-13
1.65745e-13
1.64312e-13
1.63296e-13
1.58823e-13
1.56099e-13
1.43523e-13
1.34207e-13
1.29174e-13
1.33836e-13
1.34023e-13
1.43267e-13
1.41034e-13
1.36048e-13
1.35486e-13
1.35094e-13
1.22905e-13
1.17252e-13
1.16726e-13
1.1843e-13
1.11847e-13
1.15934e-13
1.1461e-13
1.12108e-13
1.18964e-13
1.20637e-13
1.11479e-13
1.2358e-13
1.22384e-13
1.22689e-13
1.20683e-13
1.11526e-13
1.06044e-13
1.05492e-13
1.12361e-13
1.04613e-13
1.04418e-13
1.09046e-13
1.00276e-13
1.03658e-13
1.06684e-13
9.92921e-14
8.77587e-14
9.47101e-14
9.07543e-14
8.46525e-14
8.63154e-14
7.71573e-14
6.84282e-14
5.95939e-14
5.95835e-14
5.72658e-14
5.06166e-14
4.37409e-14
4.54762e-14
4.42633e-14
3.60344e-14
2.54046e-14
3.10692e-14
2.48037e-14
1.74016e-14
1.24813e-14
5.3108e-15
-7.09239e-16
9.98476e-16
-3.60307e-15
7.02441e-17
2.85019e-13
2.86943e-13
2.82756e-13
2.80782e-13
2.81223e-13
2.73093e-13
2.74141e-13
2.71999e-13
2.68084e-13
2.63251e-13
2.60391e-13
2.53614e-13
2.47566e-13
2.55045e-13
2.529e-13
2.60056e-13
2.49713e-13
2.38953e-13
2.30424e-13
2.16694e-13
2.09039e-13
2.03879e-13
2.04324e-13
1.96318e-13
1.95021e-13
1.90878e-13
1.91827e-13
1.91965e-13
1.90698e-13
1.80065e-13
1.83566e-13
1.78425e-13
1.76653e-13
1.70316e-13
1.69509e-13
1.67544e-13
1.67809e-13
1.54712e-13
1.51051e-13
1.40025e-13
1.36979e-13
1.32626e-13
1.36588e-13
1.42871e-13
1.46377e-13
1.34004e-13
1.29417e-13
1.31811e-13
1.3388e-13
1.26442e-13
1.16871e-13
1.28287e-13
1.21547e-13
1.14697e-13
1.10332e-13
1.08698e-13
1.13417e-13
1.18747e-13
1.21274e-13
1.23155e-13
1.19954e-13
1.18933e-13
1.21057e-13
1.19146e-13
1.11027e-13
1.07008e-13
1.05388e-13
1.03293e-13
1.07773e-13
1.1113e-13
1.06449e-13
9.98898e-14
1.02589e-13
1.05152e-13
1.02146e-13
9.65963e-14
9.14701e-14
9.23274e-14
9.01958e-14
8.66716e-14
7.95712e-14
7.12823e-14
6.27158e-14
5.65427e-14
5.77397e-14
5.62349e-14
4.64928e-14
4.25789e-14
3.77588e-14
3.65274e-14
3.18026e-14
2.9223e-14
2.41643e-14
1.97307e-14
1.78523e-14
7.58222e-15
4.26417e-15
-1.94821e-16
-3.23569e-15
4.09274e-16
2.80106e-13
2.83912e-13
2.8369e-13
2.79785e-13
2.79822e-13
2.79898e-13
2.73808e-13
2.67455e-13
2.63768e-13
2.5881e-13
2.54527e-13
2.59638e-13
2.53591e-13
2.51471e-13
2.57578e-13
2.56336e-13
2.43078e-13
2.37829e-13
2.31279e-13
2.16575e-13
2.10467e-13
2.01124e-13
2.04963e-13
1.99924e-13
2.00041e-13
1.89548e-13
1.89775e-13
1.93578e-13
1.95544e-13
1.85527e-13
1.84538e-13
1.75313e-13
1.65778e-13
1.67419e-13
1.60176e-13
1.63514e-13
1.66851e-13
1.579e-13
1.49665e-13
1.41599e-13
1.37137e-13
1.3606e-13
1.41198e-13
1.34049e-13
1.45919e-13
1.42783e-13
1.37475e-13
1.28842e-13
1.27057e-13
1.28804e-13
1.25454e-13
1.22741e-13
1.18624e-13
1.14665e-13
1.16343e-13
1.16318e-13
1.14615e-13
1.08841e-13
1.16252e-13
1.23055e-13
1.19871e-13
1.09952e-13
1.20268e-13
1.22311e-13
1.19841e-13
1.09129e-13
1.05403e-13
9.88402e-14
1.03578e-13
1.10827e-13
1.11442e-13
1.00283e-13
1.04118e-13
9.97433e-14
1.02842e-13
9.89769e-14
9.47943e-14
8.95058e-14
9.02714e-14
8.60331e-14
8.36882e-14
7.71573e-14
6.39821e-14
5.8044e-14
5.61597e-14
5.59543e-14
4.81373e-14
4.62177e-14
4.09566e-14
4.19074e-14
3.22176e-14
2.48622e-14
2.37928e-14
2.37228e-14
1.46957e-14
1.33816e-14
8.96372e-15
1.51235e-15
-4.47942e-15
-6.98399e-16
2.76997e-13
2.78782e-13
2.82361e-13
2.85512e-13
2.77939e-13
2.70492e-13
2.66789e-13
2.65126e-13
2.69768e-13
2.65058e-13
2.58795e-13
2.58604e-13
2.60094e-13
2.5733e-13
2.51981e-13
2.51918e-13
2.39375e-13
2.31617e-13
2.31703e-13
2.2012e-13
2.13977e-13
2.04417e-13
1.9999e-13
1.92864e-13
1.93383e-13
1.8738e-13
1.94177e-13
2.00087e-13
1.94729e-13
1.79847e-13
1.75919e-13
1.72584e-13
1.71644e-13
1.74348e-13
1.66217e-13
1.60723e-13
1.6082e-13
1.58282e-13
1.44761e-13
1.4185e-13
1.34631e-13
1.38656e-13
1.40761e-13
1.4231e-13
1.46218e-13
1.41049e-13
1.3795e-13
1.32589e-13
1.32724e-13
1.2618e-13
1.24136e-13
1.22882e-13
1.21115e-13
1.16341e-13
1.11976e-13
1.16245e-13
1.18507e-13
1.23308e-13
1.18861e-13
1.14662e-13
1.17867e-13
1.17008e-13
1.22045e-13
1.19485e-13
1.14116e-13
1.0601e-13
1.06887e-13
1.04251e-13
1.03846e-13
1.04829e-13
1.05476e-13
1.00748e-13
1.0518e-13
1.02284e-13
1.00958e-13
1.00466e-13
9.57311e-14
9.52374e-14
9.13663e-14
8.76927e-14
8.20056e-14
7.97126e-14
6.96444e-14
6.14384e-14
5.46548e-14
4.90758e-14
4.66835e-14
4.37961e-14
4.25783e-14
3.79537e-14
3.39704e-14
2.95797e-14
2.97803e-14
2.72664e-14
1.97205e-14
1.28435e-14
5.37414e-15
-1.39982e-15
-2.70685e-15
3.36198e-15
2.84532e-13
2.80747e-13
2.82737e-13
2.80891e-13
2.71961e-13
2.66581e-13
2.5949e-13
2.65327e-13
2.69969e-13
2.67738e-13
2.57417e-13
2.57804e-13
2.61722e-13
2.52612e-13
2.54489e-13
2.4902e-13
2.34489e-13
2.30508e-13
2.31778e-13
2.24131e-13
2.15655e-13
2.07358e-13
2.03854e-13
1.98337e-13
1.922e-13
1.85651e-13
1.9293e-13
2.00995e-13
1.94617e-13
1.81732e-13
1.78916e-13
1.72297e-13
1.70809e-13
1.70465e-13
1.6639e-13
1.63076e-13
1.56657e-13
1.48868e-13
1.46329e-13
1.4947e-13
1.38979e-13
1.37971e-13
1.41119e-13
1.4424e-13
1.46023e-13
1.45109e-13
1.37397e-13
1.31822e-13
1.3186e-13
1.27285e-13
1.28857e-13
1.23457e-13
1.1967e-13
1.19336e-13
1.14558e-13
1.16745e-13
1.202e-13
1.19876e-13
1.16433e-13
1.1925e-13
1.18234e-13
1.18116e-13
1.16809e-13
1.16327e-13
1.10323e-13
1.09155e-13
1.07587e-13
1.06705e-13
1.04374e-13
1.02195e-13
1.0891e-13
1.03231e-13
1.10932e-13
1.03875e-13
9.83643e-14
9.49015e-14
9.56179e-14
9.1222e-14
9.467e-14
8.84905e-14
8.3982e-14
8.26513e-14
7.22734e-14
6.54715e-14
5.72886e-14
5.45611e-14
4.79776e-14
4.22504e-14
4.08634e-14
3.44231e-14
3.12153e-14
3.29738e-14
3.31741e-14
2.69179e-14
2.09247e-14
1.4704e-14
8.09517e-15
3.87259e-15
3.41149e-16
2.74658e-15
2.90251e-13
2.84275e-13
2.81476e-13
2.79841e-13
2.66559e-13
2.62171e-13
2.62352e-13
2.64097e-13
2.72494e-13
2.6136e-13
2.58821e-13
2.60982e-13
2.63137e-13
2.56548e-13
2.56491e-13
2.55537e-13
2.40107e-13
2.27036e-13
2.27498e-13
2.13594e-13
2.19131e-13
2.08755e-13
1.95812e-13
1.92223e-13
1.96371e-13
1.91853e-13
1.92322e-13
1.99063e-13
1.90972e-13
1.86029e-13
1.81701e-13
1.76645e-13
1.67865e-13
1.62857e-13
1.65123e-13
1.62919e-13
1.61333e-13
1.52497e-13
1.45728e-13
1.4603e-13
1.44594e-13
1.41441e-13
1.38006e-13
1.45211e-13
1.48742e-13
1.44404e-13
1.34807e-13
1.31425e-13
1.32412e-13
1.28419e-13
1.27907e-13
1.25656e-13
1.23319e-13
1.23728e-13
1.24973e-13
1.21845e-13
1.15348e-13
1.12065e-13
1.17993e-13
1.23415e-13
1.24344e-13
1.19085e-13
1.11054e-13
1.0965e-13
1.08958e-13
1.10624e-13
1.04455e-13
1.06081e-13
1.04124e-13
1.0436e-13
1.07752e-13
1.02669e-13
1.04699e-13
1.06173e-13
9.7834e-14
9.44149e-14
9.6247e-14
9.98061e-14
9.51362e-14
8.53962e-14
8.2421e-14
8.59532e-14
7.62099e-14
6.97384e-14
5.07257e-14
4.70002e-14
5.0302e-14
4.74406e-14
4.26175e-14
3.75974e-14
3.44e-14
3.168e-14
2.87051e-14
2.76302e-14
2.33387e-14
1.43531e-14
9.37786e-15
7.96535e-15
7.68719e-15
6.4078e-15
2.87604e-13
2.86361e-13
2.81105e-13
2.72311e-13
2.65082e-13
2.64568e-13
2.66002e-13
2.6757e-13
2.67597e-13
2.65463e-13
2.57876e-13
2.62398e-13
2.62384e-13
2.58002e-13
2.51208e-13
2.44998e-13
2.37491e-13
2.31678e-13
2.34498e-13
2.24604e-13
2.16846e-13
2.05451e-13
2.00423e-13
1.96788e-13
2.00161e-13
2.00321e-13
1.95891e-13
1.88791e-13
1.83124e-13
1.78767e-13
1.78017e-13
1.79527e-13
1.77974e-13
1.67862e-13
1.67602e-13
1.56291e-13
1.52243e-13
1.54143e-13
1.47419e-13
1.47352e-13
1.51383e-13
1.4828e-13
1.43436e-13
1.44942e-13
1.5127e-13
1.42907e-13
1.36286e-13
1.35661e-13
1.30399e-13
1.19777e-13
1.20603e-13
1.28703e-13
1.32501e-13
1.17857e-13
1.22918e-13
1.17708e-13
1.12374e-13
1.2053e-13
1.23197e-13
1.25844e-13
1.26056e-13
1.10992e-13
1.07212e-13
1.12632e-13
1.18055e-13
1.08185e-13
1.05466e-13
1.02268e-13
1.02742e-13
1.03188e-13
1.10179e-13
1.08767e-13
1.09494e-13
1.0442e-13
9.82236e-14
8.98991e-14
9.50429e-14
9.66681e-14
9.66095e-14
9.32477e-14
8.56076e-14
8.38742e-14
7.42211e-14
6.56492e-14
5.7811e-14
4.961e-14
5.1109e-14
4.82135e-14
4.27587e-14
3.03957e-14
3.54655e-14
3.37424e-14
2.84459e-14
3.28309e-14
2.78501e-14
1.95704e-14
9.9554e-15
4.45749e-15
6.75354e-16
8.25685e-16
2.85632e-13
2.86632e-13
2.87873e-13
2.74536e-13
2.63462e-13
2.6807e-13
2.67475e-13
2.59343e-13
2.61047e-13
2.67824e-13
2.62317e-13
2.64701e-13
2.64472e-13
2.56418e-13
2.53597e-13
2.46303e-13
2.46217e-13
2.39217e-13
2.34643e-13
2.26854e-13
2.13196e-13
2.0372e-13
1.98556e-13
1.99073e-13
1.97084e-13
1.96945e-13
2.00003e-13
1.94695e-13
1.84105e-13
1.78899e-13
1.80293e-13
1.75421e-13
1.71556e-13
1.68476e-13
1.6634e-13
1.62421e-13
1.59095e-13
1.54553e-13
1.51512e-13
1.53406e-13
1.4751e-13
1.46893e-13
1.40856e-13
1.46267e-13
1.52573e-13
1.46617e-13
1.35025e-13
1.28121e-13
1.35681e-13
1.29856e-13
1.24366e-13
1.26623e-13
1.26565e-13
1.19875e-13
1.21062e-13
1.18592e-13
1.11509e-13
1.21616e-13
1.26909e-13
1.27418e-13
1.21612e-13
1.1773e-13
1.10567e-13
1.08237e-13
1.15228e-13
1.04531e-13
1.00894e-13
1.041e-13
9.90725e-14
1.07387e-13
1.0575e-13
1.05547e-13
1.02887e-13
1.00129e-13
9.53141e-14
9.24333e-14
9.42441e-14
1.00951e-13
1.04209e-13
9.47844e-14
8.04602e-14
7.91263e-14
7.76416e-14
6.47753e-14
5.82209e-14
5.22276e-14
4.70338e-14
4.65891e-14
4.04281e-14
3.29396e-14
3.50977e-14
3.36325e-14
2.85266e-14
3.92587e-14
3.09315e-14
2.18905e-14
1.08692e-14
2.91719e-15
8.34894e-16
8.73554e-17
2.94732e-13
2.86882e-13
2.7772e-13
2.64714e-13
2.61476e-13
2.69416e-13
2.76897e-13
2.75547e-13
2.64143e-13
2.64151e-13
2.61072e-13
2.6361e-13
2.59067e-13
2.56685e-13
2.58382e-13
2.49553e-13
2.42684e-13
2.34594e-13
2.3116e-13
2.31386e-13
2.19546e-13
2.08181e-13
2.03903e-13
1.98351e-13
1.97886e-13
2.06149e-13
2.12095e-13
1.94698e-13
1.83717e-13
1.79394e-13
1.79821e-13
1.74251e-13
1.71983e-13
1.69764e-13
1.65034e-13
1.61323e-13
1.62701e-13
1.56132e-13
1.50837e-13
1.47602e-13
1.53786e-13
1.53145e-13
1.46199e-13
1.45073e-13
1.47287e-13
1.45963e-13
1.40542e-13
1.32796e-13
1.32278e-13
1.30724e-13
1.25433e-13
1.24177e-13
1.22105e-13
1.23319e-13
1.21345e-13
1.18751e-13
1.15678e-13
1.22293e-13
1.21746e-13
1.22064e-13
1.25509e-13
1.17782e-13
1.15429e-13
1.08164e-13
1.146e-13
1.07917e-13
1.00618e-13
1.05356e-13
9.98704e-14
1.07768e-13
1.08931e-13
1.07604e-13
9.99064e-14
9.63398e-14
9.24664e-14
9.37149e-14
9.76793e-14
9.5182e-14
9.76198e-14
9.71064e-14
7.95149e-14
7.96374e-14
7.58134e-14
6.27178e-14
6.1342e-14
5.36918e-14
4.85584e-14
4.27924e-14
4.31723e-14
3.54675e-14
3.26284e-14
3.25203e-14
2.90901e-14
3.59148e-14
3.27745e-14
2.51631e-14
1.12524e-14
3.03801e-15
-1.45107e-15
-9.62598e-16
2.96482e-13
2.91152e-13
2.75732e-13
2.71506e-13
2.71031e-13
2.67582e-13
2.70657e-13
2.68534e-13
2.65575e-13
2.68767e-13
2.63265e-13
2.62938e-13
2.61791e-13
2.60968e-13
2.50862e-13
2.43877e-13
2.45466e-13
2.41197e-13
2.37628e-13
2.36794e-13
2.20832e-13
2.06688e-13
1.99875e-13
1.99295e-13
2.02433e-13
2.00005e-13
1.98744e-13
2.00985e-13
1.93544e-13
1.81881e-13
1.76609e-13
1.7798e-13
1.76057e-13
1.70246e-13
1.66427e-13
1.61589e-13
1.63347e-13
1.54963e-13
1.55065e-13
1.4964e-13
1.53413e-13
1.54797e-13
1.50692e-13
1.46297e-13
1.45114e-13
1.51262e-13
1.45856e-13
1.33575e-13