/*--------------------------------*- C++ -*----------------------------------*\
| =========                 |                                                 |
| \\      /  F ield         | OpenFOAM: The Open Source CFD Toolbox           |
|  \\    /   O peration     | Version:  v2012                                 |
|   \\  /    A nd           | Website:  www.openfoam.com                      |
|    \\/     M anipulation  |                                                 |
\*---------------------------------------------------------------------------*/
FoamFile
{
    version     2.0;
    format      ascii;
    class       volScalarField;
    location    "0";
    object      p;
}
// * * * * * * * * * * * * * * * * * * * * * * * * * * * * * * * * * * * * * //

dimensions      [0 2 -2 0 0 0 0];


internalField   nonuniform List<scalar> 
4000
(
2.06945e-13
2.03675e-13
2.08452e-13
2.11121e-13
2.08486e-13
2.12623e-13
2.09058e-13
2.03594e-13
1.84841e-13
1.87076e-13
1.92295e-13
1.89033e-13
1.79354e-13
1.7134e-13
1.58472e-13
1.73931e-13
1.73888e-13
1.63682e-13
1.49494e-13
1.38587e-13
1.39555e-13
1.38252e-13
1.35908e-13
1.31133e-13
1.26077e-13
1.18191e-13
1.13948e-13
1.14318e-13
1.05355e-13
1.01166e-13
1.00375e-13
1.04407e-13
9.96761e-14
9.49628e-14
9.40132e-14
9.64083e-14
8.88907e-14
8.00313e-14
7.79338e-14
7.55584e-14
7.71657e-14
8.66375e-14
9.33596e-14
8.49152e-14
7.14002e-14
6.85779e-14
6.45591e-14
6.60194e-14
6.3125e-14
5.30399e-14
5.55723e-14
5.74214e-14
6.4381e-14
5.90839e-14
5.9139e-14
6.03922e-14
6.6893e-14
6.79014e-14
6.39483e-14
6.48048e-14
7.13565e-14
7.40567e-14
6.85548e-14
6.03719e-14
6.37942e-14
6.31992e-14
6.61628e-14
6.07284e-14
5.88017e-14
5.69563e-14
5.67216e-14
6.59942e-14
5.61965e-14
4.93615e-14
5.60466e-14
5.69128e-14
5.49776e-14
5.66992e-14
5.79162e-14
5.64129e-14
5.14112e-14
5.23938e-14
5.51976e-14
4.70293e-14
5.15883e-14
5.37626e-14
3.8333e-14
3.66675e-14
2.53031e-14
2.34871e-14
2.26621e-14
2.14409e-14
1.56802e-14
1.47939e-14
1.58526e-14
8.29256e-15
7.85102e-15
9.12897e-15
2.89851e-15
-2.61705e-15
2.04851e-13
2.05809e-13
2.09126e-13
2.13167e-13
2.15389e-13
2.12035e-13
2.02158e-13
1.97747e-13
1.90458e-13
1.90964e-13
1.86685e-13
1.87922e-13
1.80899e-13
1.72805e-13
1.67074e-13
1.70818e-13
1.67606e-13
1.61858e-13
1.49648e-13
1.44538e-13
1.42837e-13
1.3721e-13
1.31853e-13
1.29323e-13
1.21309e-13
1.20139e-13
1.216e-13
1.17257e-13
1.0329e-13
9.83915e-14
1.01882e-13
1.06253e-13
9.78385e-14
9.5147e-14
9.39143e-14
9.15016e-14
8.84749e-14
8.49911e-14
7.84882e-14
8.14766e-14
7.76624e-14
8.44082e-14
8.41842e-14
8.63635e-14
7.38571e-14
7.47474e-14
6.30414e-14
6.10706e-14
6.18029e-14
4.94498e-14
5.69684e-14
6.05257e-14
6.29625e-14
5.8962e-14
6.17684e-14
6.19505e-14
6.50265e-14
6.33712e-14
6.59938e-14
6.67088e-14
7.36341e-14
7.20424e-14
6.76934e-14
6.21625e-14
6.24379e-14
6.6048e-14
6.26471e-14
6.19246e-14
6.22933e-14
6.02775e-14
5.73464e-14
6.22222e-14
5.99097e-14
5.12095e-14
5.45765e-14
5.42556e-14
5.68311e-14
5.63416e-14
5.47137e-14
5.30207e-14
5.04718e-14
5.1728e-14
6.32408e-14
4.89616e-14
4.90346e-14
4.84314e-14
4.07941e-14
3.44014e-14
2.48408e-14
2.49118e-14
2.13738e-14
2.1774e-14
2.40248e-14
1.47875e-14
1.13625e-14
6.3565e-15
9.7845e-15
7.22673e-15
2.66564e-15
-7.05702e-16
2.06108e-13
2.05231e-13
2.09523e-13
2.1274e-13
2.18214e-13
2.12757e-13
2.01419e-13
1.94508e-13
1.87132e-13
1.9235e-13
1.92851e-13
1.86805e-13
1.79557e-13
1.75725e-13
1.68521e-13
1.68325e-13
1.65124e-13
1.60147e-13
1.49721e-13
1.42679e-13
1.43338e-13
1.35616e-13
1.31426e-13
1.30315e-13
1.28838e-13
1.27444e-13
1.20194e-13
1.12641e-13
1.03905e-13
1.00623e-13
1.03224e-13
1.03494e-13
9.94658e-14
9.96167e-14
9.38427e-14
8.95251e-14
8.91439e-14
8.96382e-14
8.40398e-14
8.10207e-14
7.34101e-14
7.97904e-14
8.11613e-14
8.26925e-14
8.24303e-14
7.60527e-14
6.54364e-14
5.92282e-14
6.25208e-14
5.47059e-14
5.45566e-14
5.84652e-14
6.13403e-14
5.64288e-14
5.68011e-14
6.05978e-14
6.48895e-14
6.8047e-14
7.1549e-14
7.02048e-14
7.19017e-14
6.6008e-14
6.54567e-14
6.46219e-14
6.64646e-14
6.89454e-14
6.44625e-14
6.34766e-14
6.38091e-14
5.93096e-14
5.53204e-14
5.949e-14
5.55129e-14
5.09096e-14
5.30832e-14
6.04999e-14
5.49223e-14
5.73188e-14
5.18045e-14
5.32116e-14
5.51834e-14
5.20769e-14
5.12348e-14
4.73789e-14
4.79286e-14
4.91156e-14
4.39763e-14
3.87922e-14
2.63166e-14
2.19011e-14
2.11993e-14
2.15993e-14
2.28894e-14
1.3591e-14
1.23012e-14
1.01412e-14
4.75977e-15
6.36926e-15
1.03842e-14
2.48063e-15
2.07841e-13
2.05434e-13
2.1131e-13
2.1206e-13
2.18515e-13
2.11588e-13
2.0446e-13
1.9601e-13
1.9163e-13
1.97737e-13
1.88073e-13
1.80468e-13
1.76818e-13
1.79492e-13
1.7693e-13
1.71516e-13
1.59508e-13
1.54855e-13
1.52042e-13
1.45174e-13
1.40711e-13
1.33634e-13
1.31647e-13
1.28413e-13
1.25476e-13
1.28898e-13
1.21866e-13
1.13688e-13
1.06388e-13
1.06989e-13
1.07769e-13
1.04762e-13
1.01434e-13
9.97261e-14
9.04872e-14
9.32489e-14
9.22605e-14
8.76032e-14
7.9733e-14
8.35169e-14
8.65826e-14
8.15573e-14
8.07376e-14
7.77742e-14
7.77715e-14
7.35884e-14
7.13882e-14
6.27203e-14
6.13076e-14
5.03391e-14
5.42787e-14
6.16581e-14
6.33153e-14
5.8225e-14
5.30201e-14
6.0115e-14
6.53327e-14
6.58226e-14
7.24889e-14
7.07176e-14
7.0046e-14
6.46759e-14
6.79935e-14
6.92426e-14
6.76202e-14
6.40282e-14
6.75941e-14
6.71508e-14
6.61017e-14
6.41949e-14
6.21173e-14
5.97358e-14
5.73509e-14
5.86221e-14
5.0509e-14
5.57236e-14
5.72341e-14
5.89814e-14
5.09845e-14
5.09468e-14
5.00408e-14
4.92604e-14
5.28117e-14
4.54931e-14
4.6756e-14
4.80268e-14
3.79907e-14
3.57319e-14
2.79416e-14
2.17025e-14
1.84774e-14
2.30289e-14
2.25318e-14
1.10877e-14
1.4616e-14
1.2513e-14
6.65465e-15
6.14848e-15
7.85487e-15
4.05586e-15
2.10882e-13
2.08656e-13
2.10924e-13
2.12875e-13
2.07556e-13
2.14456e-13
2.10983e-13
2.04322e-13
1.95612e-13
1.95496e-13
1.91053e-13
1.828e-13
1.69867e-13
1.71715e-13
1.74619e-13
1.75228e-13
1.65902e-13
1.55846e-13
1.4843e-13
1.48932e-13
1.45487e-13
1.36249e-13
1.28057e-13
1.2816e-13
1.22432e-13
1.30884e-13
1.2544e-13
1.12324e-13
1.16039e-13
1.1265e-13
1.12822e-13
1.05413e-13
9.89393e-14
1.02341e-13
9.41665e-14
9.25176e-14
8.71322e-14
8.6545e-14
8.42822e-14
8.44642e-14
8.00985e-14
8.28526e-14
8.25896e-14
7.5806e-14
7.97984e-14
7.13746e-14
6.81225e-14
6.0207e-14
6.39448e-14
5.74791e-14
5.6673e-14
5.7402e-14
6.05015e-14
6.38201e-14
5.68179e-14
6.14117e-14
6.05108e-14
6.01264e-14
7.04494e-14
7.71988e-14
6.76923e-14
6.62917e-14
6.75069e-14
7.09443e-14
6.3533e-14
7.14871e-14
7.48245e-14
6.86252e-14
6.48046e-14
6.0654e-14
5.75099e-14
5.52988e-14
5.99613e-14
5.82383e-14
5.15119e-14
5.25775e-14
5.55062e-14
5.55507e-14
5.58627e-14
5.19348e-14
4.84136e-14
5.16471e-14
4.93533e-14
4.41842e-14
4.16899e-14
3.90672e-14
3.89866e-14
3.83391e-14
2.88936e-14
2.07274e-14
1.96923e-14
2.37124e-14
1.79199e-14
1.63945e-14
2.19041e-14
1.30909e-14
1.09473e-14
5.09559e-15
5.11553e-15
2.14433e-16
2.03518e-13
2.09146e-13
2.12726e-13
2.12822e-13
2.14789e-13
2.21858e-13
2.09985e-13
2.05689e-13
1.97887e-13
1.86612e-13
1.83013e-13
1.81211e-13
1.81474e-13
1.81031e-13
1.73984e-13
1.72946e-13
1.67437e-13
1.61837e-13
1.53406e-13
1.44746e-13
1.3879e-13
1.41764e-13
1.2861e-13
1.20531e-13
1.25218e-13
1.33463e-13
1.25277e-13
1.1433e-13
1.16384e-13
1.1546e-13
1.17225e-13
1.06132e-13
1.08488e-13
1.04102e-13
1.00708e-13
9.24454e-14
8.73822e-14
8.4964e-14
7.84941e-14
8.60592e-14
8.9102e-14
8.482e-14
7.91697e-14
7.70166e-14
7.61534e-14
7.12856e-14
6.66764e-14
6.48864e-14
6.43051e-14
5.3375e-14
6.09142e-14
6.39375e-14
6.33078e-14
6.21981e-14
5.90617e-14
5.88754e-14
6.02924e-14
5.9795e-14
7.14718e-14
7.20734e-14
7.05782e-14
6.83709e-14
6.80455e-14
6.49321e-14
6.67212e-14
7.1302e-14
7.48571e-14
6.8511e-14
6.74291e-14
6.61383e-14
5.69058e-14
5.31297e-14
6.00148e-14
5.99569e-14
4.98839e-14
5.54038e-14
5.4801e-14
5.19117e-14
5.03328e-14
4.71111e-14
5.38666e-14
4.9791e-14
5.00809e-14
4.58029e-14
3.79416e-14
4.01674e-14
3.79817e-14
3.59033e-14
2.88667e-14
2.19871e-14
1.91353e-14
2.30097e-14
1.9972e-14
1.43571e-14
1.6737e-14
1.57958e-14
1.31761e-14
3.25424e-15
1.75149e-15
-2.18822e-15
2.08581e-13
2.0796e-13
2.09533e-13
2.16587e-13
2.17655e-13
2.18096e-13
2.08985e-13
2.05923e-13
1.98877e-13
1.89163e-13
1.8422e-13
1.8123e-13
1.84434e-13
1.75256e-13
1.70717e-13
1.75659e-13
1.69104e-13
1.64891e-13
1.56146e-13
1.42772e-13
1.31176e-13
1.31698e-13
1.32876e-13
1.31373e-13
1.25602e-13
1.35474e-13
1.28879e-13
1.19713e-13
1.17167e-13
1.23218e-13
1.18804e-13
1.10669e-13
1.05425e-13
9.99219e-14
9.45902e-14
9.08807e-14
9.15483e-14
8.82565e-14
8.18981e-14
8.24499e-14
8.0635e-14
8.31921e-14
8.38023e-14
7.45205e-14
7.77206e-14
7.25152e-14
6.67727e-14
6.51973e-14
6.40182e-14
5.60604e-14
5.94705e-14
6.30418e-14
6.28782e-14
6.28892e-14
6.17278e-14
6.29473e-14
6.42154e-14
5.90677e-14
6.0578e-14
6.96128e-14
7.57075e-14
7.49523e-14
7.21089e-14
6.84257e-14
6.68402e-14
6.45823e-14
7.08248e-14
6.53714e-14
6.10369e-14
6.25461e-14
6.26285e-14
6.22334e-14
5.98181e-14
5.69778e-14
5.49922e-14
5.04996e-14
4.75474e-14
5.02538e-14
5.01481e-14
4.5194e-14
5.08738e-14
5.19718e-14
5.1118e-14
4.92505e-14
3.8169e-14
3.65681e-14
3.47881e-14
3.56412e-14
2.98013e-14
2.55447e-14
2.12535e-14
2.22598e-14
1.9034e-14
1.32594e-14
1.7872e-14
1.40544e-14
1.15628e-14
7.12643e-16
4.35081e-16
2.51069e-15
2.0624e-13
2.05079e-13
2.06419e-13
2.16775e-13
2.27187e-13
2.21589e-13
2.05098e-13
2.04055e-13
1.97559e-13
1.88069e-13
1.88487e-13
1.86287e-13
1.82664e-13
1.72665e-13
1.71258e-13
1.75966e-13
1.68529e-13
1.63918e-13
1.52629e-13
1.44654e-13
1.43461e-13
1.44014e-13
1.32027e-13
1.22874e-13
1.27683e-13
1.25967e-13
1.25416e-13
1.24229e-13
1.17494e-13
1.184e-13
1.17469e-13
1.16323e-13
1.12614e-13
1.07265e-13
1.00111e-13
9.07613e-14
8.88298e-14
8.47148e-14
8.2516e-14
7.76112e-14
7.56537e-14
8.53033e-14
8.69114e-14
8.33965e-14
8.17693e-14
7.25367e-14
6.19965e-14
6.14572e-14
6.56105e-14
5.78865e-14
6.19142e-14
6.92101e-14
6.51162e-14
6.49082e-14
5.90858e-14
6.0314e-14
6.23383e-14
6.42998e-14
6.54922e-14
6.67623e-14
7.18546e-14
7.3741e-14
7.40587e-14
7.40182e-14
7.58438e-14
6.9515e-14
6.96528e-14
6.46559e-14
6.44993e-14
6.31326e-14
6.0446e-14
6.069e-14
5.83662e-14
5.10889e-14
5.0681e-14
4.80639e-14
5.16105e-14
5.13581e-14
5.29898e-14
4.84925e-14
5.32802e-14
5.31724e-14
4.6788e-14
4.27073e-14
3.24953e-14
3.57741e-14
3.82441e-14
3.41246e-14
3.08689e-14
2.56565e-14
2.17025e-14
2.32227e-14
1.87318e-14
1.69906e-14
1.83646e-14
1.32928e-14
4.36638e-15
6.73869e-17
3.18498e-15
-5.55901e-16
2.084e-13
2.10271e-13
2.09857e-13
2.13606e-13
2.13808e-13
2.12516e-13
2.11571e-13
2.07879e-13
1.98849e-13
1.92873e-13
1.86753e-13
1.80146e-13
1.74256e-13
1.75318e-13
1.7231e-13
1.72015e-13
1.70017e-13
1.68866e-13
1.61049e-13
1.47407e-13
1.38489e-13
1.41861e-13
1.33826e-13
1.26592e-13
1.26093e-13
1.23097e-13
1.22063e-13
1.26252e-13
1.24417e-13
1.23508e-13
1.21853e-13
1.2187e-13
1.04872e-13
9.44603e-14
9.5906e-14
9.26488e-14
8.89454e-14
8.80699e-14
8.21206e-14
8.15559e-14
8.14734e-14
9.38575e-14
8.0855e-14
7.23337e-14
6.72783e-14
7.19177e-14
6.67886e-14
6.28425e-14
6.63835e-14
6.71106e-14
6.41529e-14
6.32274e-14
6.50613e-14
6.33212e-14
6.37543e-14
6.70737e-14
6.69426e-14
6.56363e-14
6.994e-14
6.7121e-14
6.66685e-14
7.01908e-14
7.29762e-14
7.5252e-14
7.71085e-14
6.97676e-14
6.92143e-14
6.57079e-14
6.16779e-14
6.01942e-14
5.76127e-14
5.91362e-14
6.09346e-14
5.55169e-14
5.36193e-14
4.99212e-14
5.15819e-14
4.98659e-14
5.2189e-14
5.37636e-14
5.47676e-14
5.31186e-14
4.78723e-14
4.14079e-14
3.32395e-14
4.2312e-14
3.95934e-14
3.06283e-14
2.86871e-14
2.51697e-14
2.18426e-14
2.18145e-14
1.84568e-14
1.53967e-14
1.77411e-14
1.14207e-14
6.01175e-16
9.56495e-16
4.43457e-15
-2.38645e-15
2.13416e-13
2.11362e-13
2.10851e-13
2.13952e-13
2.08616e-13
2.10781e-13
2.11824e-13
2.08774e-13
2.02364e-13
1.9427e-13
1.85464e-13
1.82497e-13
1.70878e-13
1.77083e-13
1.77085e-13
1.74456e-13
1.6945e-13
1.66841e-13
1.64789e-13
1.55945e-13
1.38953e-13
1.32863e-13
1.34132e-13
1.33261e-13
1.30341e-13
1.2182e-13
1.26216e-13
1.28489e-13
1.26063e-13
1.25752e-13
1.23327e-13
1.22836e-13
1.12297e-13
9.55367e-14
9.38808e-14
8.97691e-14
8.93408e-14
8.85981e-14
8.63757e-14
8.07264e-14
7.97902e-14
8.55994e-14
7.872e-14
7.46752e-14
7.22004e-14
7.88719e-14
6.96417e-14
6.54528e-14
6.32421e-14
6.96872e-14
6.38212e-14
6.54338e-14
6.53239e-14
6.6254e-14
6.4376e-14
6.40891e-14
7.0081e-14
6.70488e-14
6.6593e-14
7.34127e-14
6.83914e-14
8.15577e-14
7.44915e-14
7.5313e-14
7.47271e-14
7.01809e-14
5.88003e-14
5.9991e-14
6.62944e-14
6.47151e-14
6.39369e-14
5.47036e-14
6.05452e-14
5.45934e-14
5.2001e-14
4.66951e-14
4.9498e-14
4.65365e-14
5.54169e-14
5.59173e-14
5.59066e-14
5.11189e-14
4.59502e-14
4.21925e-14
3.25175e-14
3.99242e-14
3.37354e-14
2.99272e-14
2.77897e-14
2.64754e-14
1.7638e-14
1.65034e-14
1.42268e-14
1.40993e-14
1.79121e-14
5.86166e-15
-2.64216e-15
-3.46264e-15
7.57017e-15
1.10505e-15
2.11805e-13
2.10551e-13
2.09846e-13
2.1515e-13
2.13145e-13
2.12298e-13
2.11782e-13
2.043e-13
1.97119e-13
1.93928e-13
1.88832e-13
1.8492e-13
1.79415e-13
1.7879e-13
1.74554e-13
1.74341e-13
1.66219e-13
1.68943e-13
1.67896e-13
1.60206e-13
1.46448e-13
1.35664e-13
1.27175e-13
1.28005e-13
1.24574e-13
1.21148e-13
1.30811e-13
1.31752e-13
1.29177e-13
1.26728e-13
1.22104e-13
1.20715e-13
1.13646e-13
9.83719e-14
1.0056e-13
9.68439e-14
9.11041e-14
8.30002e-14
8.53267e-14
8.41089e-14
8.48552e-14
8.11058e-14
8.05899e-14
7.46236e-14
7.34469e-14
7.03543e-14
6.37112e-14
6.39212e-14
6.44062e-14
6.53234e-14
6.81427e-14
6.48154e-14
6.79239e-14
6.98884e-14
6.44104e-14
6.69495e-14
6.7211e-14
7.05988e-14
6.9549e-14
7.09192e-14
6.95001e-14
7.55418e-14
7.04146e-14
7.25816e-14
7.66703e-14
6.93624e-14
6.4789e-14
5.71778e-14
6.49468e-14
7.01044e-14
5.62381e-14
5.93576e-14
6.13127e-14
5.51441e-14
4.87536e-14
4.4305e-14
4.79452e-14
5.50899e-14
5.87085e-14
5.1549e-14
5.7804e-14
5.21437e-14
4.3586e-14
3.66497e-14
3.34826e-14
3.31163e-14
3.39171e-14
3.14072e-14
2.77288e-14
2.47066e-14
1.50433e-14
1.21671e-14
9.92192e-15
8.9023e-15
1.87815e-14
1.50606e-14
-1.57047e-15
-9.18107e-15
-3.7028e-15
2.27942e-15
2.10875e-13
2.12354e-13
2.10682e-13
2.11423e-13
2.09295e-13
2.09077e-13
2.10757e-13
2.06998e-13
1.95342e-13
1.89647e-13
1.9371e-13
1.88299e-13
1.82327e-13
1.80333e-13
1.79294e-13
1.74887e-13
1.66529e-13
1.69034e-13
1.70641e-13
1.63412e-13
1.47297e-13
1.38939e-13
1.31748e-13
1.3006e-13
1.28173e-13
1.22747e-13
1.32106e-13
1.29175e-13
1.21224e-13
1.25334e-13
1.22449e-13
1.21152e-13
1.16352e-13
1.00033e-13
9.74074e-14
9.33361e-14
8.84769e-14
9.00457e-14
9.26742e-14
8.65933e-14
7.80764e-14
7.96714e-14
7.67073e-14
7.24803e-14
7.53747e-14
7.1947e-14
6.61384e-14
6.60427e-14
6.2129e-14
6.12298e-14
6.65405e-14
7.00613e-14
7.1717e-14
7.44023e-14
7.12324e-14
6.51243e-14
6.65625e-14
7.3298e-14
7.02915e-14
6.98519e-14
7.28326e-14
8.02482e-14
7.47331e-14
7.31796e-14
7.12929e-14
6.91374e-14
6.81073e-14
6.41261e-14
6.19682e-14
6.02603e-14
5.53045e-14
6.0252e-14
6.23721e-14
5.58291e-14
4.89943e-14
4.63442e-14
4.50967e-14
5.15479e-14
5.59754e-14
6.05832e-14
5.41048e-14
4.6088e-14
4.25622e-14
3.85998e-14
3.39631e-14
3.25115e-14
2.94927e-14
2.98374e-14
2.45301e-14
2.44103e-14
1.74371e-14
8.1249e-15
6.58632e-15
6.17568e-15
1.28334e-14
1.58476e-14
-1.99852e-15
-7.84657e-15
-1.6256e-15
1.42967e-15
2.09142e-13
2.10354e-13
2.03981e-13
2.12955e-13
2.12667e-13
2.11028e-13
2.09189e-13
2.01725e-13
1.96201e-13
1.85548e-13
1.94957e-13
1.86225e-13
1.89543e-13
1.87252e-13
1.85638e-13
1.78824e-13
1.75573e-13
1.74598e-13
1.73294e-13
1.6151e-13
1.37106e-13
1.28035e-13
1.2592e-13
1.3647e-13
1.31483e-13
1.25421e-13
1.25685e-13
1.24656e-13
1.30497e-13
1.35889e-13
1.24945e-13
1.17393e-13
1.12779e-13
1.02655e-13
1.04473e-13
9.5724e-14
8.47864e-14
9.27304e-14
9.23167e-14
8.42338e-14
7.39627e-14
7.73032e-14
8.0618e-14
7.60645e-14
7.61233e-14
6.7064e-14
6.3279e-14
6.4972e-14
6.67798e-14
6.59751e-14
7.01299e-14
7.21477e-14
7.27532e-14
6.92498e-14
7.20871e-14
7.77951e-14
7.23341e-14
7.31147e-14
6.30206e-14
6.4034e-14
7.19204e-14
7.51448e-14
7.5831e-14
7.431e-14
7.29021e-14
7.01233e-14
6.42572e-14
6.86908e-14
6.46965e-14
5.52051e-14
5.3663e-14
6.0188e-14
6.44311e-14
6.14105e-14
5.36305e-14
4.70115e-14
4.87431e-14
5.31829e-14
5.62136e-14
5.60776e-14
4.93252e-14
4.27696e-14
4.44029e-14
4.16491e-14
3.66895e-14
2.76692e-14
2.24854e-14
2.77876e-14
2.53571e-14
2.32355e-14
1.60559e-14
9.33377e-15
2.65647e-15
4.73431e-15
9.3557e-15
1.66966e-14
3.10114e-15
-5.07307e-15
-6.55026e-15
-8.37396e-17
2.06749e-13
2.14072e-13
2.12629e-13
2.07195e-13
2.10042e-13
2.12109e-13
2.0695e-13
2.05634e-13
1.98317e-13
1.82808e-13
1.89602e-13
1.93556e-13
1.92386e-13
1.89741e-13
1.85087e-13
1.77776e-13
1.6866e-13
1.70899e-13
1.69541e-13
1.61715e-13
1.59854e-13
1.52833e-13
1.47095e-13
1.34673e-13
1.26664e-13
1.24088e-13
1.22701e-13
1.22682e-13
1.28332e-13
1.34527e-13
1.25244e-13
1.21811e-13
1.13105e-13
1.00441e-13
9.16574e-14
8.96302e-14
1.00839e-13
9.86318e-14
9.0203e-14
8.0739e-14
7.5129e-14
7.64045e-14
8.03032e-14
7.32459e-14
6.49764e-14
7.26827e-14
6.4863e-14
6.74545e-14
6.99506e-14
7.26968e-14
7.20896e-14
7.62046e-14
7.66054e-14
7.4798e-14
7.43825e-14
7.38699e-14
7.63875e-14
8.08076e-14
7.89175e-14
7.14688e-14
7.03837e-14
6.72351e-14
6.96106e-14
6.8578e-14
7.63357e-14
6.96829e-14
7.08843e-14
6.97089e-14
6.79256e-14
6.03376e-14
6.05369e-14
6.00461e-14
5.66367e-14
5.77304e-14
5.57645e-14
5.17813e-14
5.03133e-14
5.22689e-14
5.59423e-14
5.65553e-14
4.91471e-14
4.17444e-14
4.61096e-14
3.76569e-14
3.53371e-14
3.10675e-14
2.13638e-14
2.32181e-14
2.37187e-14
2.33546e-14
1.82932e-14
1.62436e-14
5.49736e-15
3.16841e-15
1.40105e-15
6.61044e-15
4.6276e-15
-2.39877e-15
3.23645e-16
1.82508e-15
2.08121e-13
2.11047e-13
2.12675e-13
2.08492e-13
2.09733e-13
2.13199e-13
2.04346e-13
1.95156e-13
1.90841e-13
1.8861e-13
2.01775e-13
1.97267e-13
1.97987e-13
1.88984e-13
1.8494e-13
1.77822e-13
1.78589e-13
1.80966e-13
1.7632e-13
1.64094e-13
1.49929e-13
1.35642e-13
1.37609e-13
1.29508e-13
1.31586e-13
1.30711e-13
1.26714e-13
1.22976e-13
1.27265e-13
1.30657e-13
1.34107e-13
1.22632e-13
1.1307e-13
9.87798e-14
9.09135e-14
9.32599e-14
9.70499e-14
1.00133e-13
9.96172e-14
8.78633e-14
6.87087e-14
7.32189e-14
7.16332e-14
7.2884e-14
7.12766e-14
7.43486e-14
7.14399e-14
7.7153e-14
7.34332e-14
7.90502e-14
7.83051e-14
7.51555e-14
7.29758e-14
7.03573e-14
7.33147e-14
7.72821e-14
7.94265e-14
8.3206e-14
7.44843e-14
7.09517e-14
7.29394e-14
6.85004e-14
7.2839e-14
7.12683e-14
7.4275e-14
6.01951e-14
6.80318e-14
7.70702e-14
7.05056e-14
6.62165e-14
6.28602e-14
6.26056e-14
5.66235e-14
6.06584e-14
6.35528e-14
4.98931e-14
4.83767e-14
5.07091e-14
6.10521e-14
5.96164e-14
4.95867e-14
4.46798e-14
4.11754e-14
4.04262e-14
3.34838e-14
2.47586e-14
2.42593e-14
2.59876e-14
2.36054e-14
2.42993e-14
1.71102e-14
1.35336e-14
1.12561e-14
1.12282e-14
1.12643e-15
-4.76116e-15
2.18856e-15
-1.06131e-15
-4.76432e-16
-1.2156e-15
2.07902e-13
2.15935e-13
2.15663e-13
2.06964e-13
2.11345e-13
2.10854e-13
2.10785e-13
2.04798e-13
1.89625e-13
1.9203e-13
1.93013e-13
1.93247e-13
1.96205e-13
1.96469e-13
1.92493e-13
1.83091e-13
1.76058e-13
1.74591e-13
1.65706e-13
1.66854e-13
1.66891e-13
1.49043e-13
1.44079e-13
1.36655e-13
1.33248e-13
1.31834e-13
1.25378e-13
1.33732e-13
1.26476e-13
1.25972e-13
1.23831e-13
1.17742e-13
1.12811e-13
1.00687e-13
9.44714e-14
9.64886e-14
9.97596e-14
1.00641e-13
9.74488e-14
8.99826e-14
7.26654e-14
7.15316e-14
7.27547e-14
7.64406e-14
7.88557e-14
7.73723e-14
7.76029e-14
8.18482e-14
7.556e-14
7.28791e-14
7.41932e-14
8.36132e-14
7.45227e-14
6.99458e-14
7.63627e-14
7.86479e-14
8.38747e-14
8.68516e-14
8.12636e-14
7.24387e-14
7.17815e-14
6.95956e-14
7.01374e-14
6.85009e-14
7.14376e-14
7.09852e-14
7.13906e-14
7.00975e-14
7.26615e-14
6.93777e-14
6.763e-14
6.72807e-14
6.10101e-14
5.94835e-14
5.49781e-14
5.18912e-14
5.2089e-14
5.26608e-14
5.74347e-14
5.45344e-14
4.93518e-14
4.95913e-14
4.24318e-14
3.7122e-14
3.79338e-14
2.76552e-14
2.01534e-14
2.71194e-14
2.5253e-14
2.38477e-14
1.50288e-14
1.27739e-14
1.11958e-14
6.25127e-15
-6.12216e-16
-1.03974e-16
2.35964e-15
-5.39009e-15
-7.65541e-15
-2.10297e-15
2.11061e-13
2.11629e-13
2.13672e-13
2.04378e-13
2.09309e-13
2.05685e-13
2.03371e-13
2.10638e-13
2.08175e-13
2.02907e-13
1.9712e-13
1.96164e-13
1.96005e-13
1.96738e-13
1.88654e-13
1.86388e-13
1.77574e-13
1.81402e-13
1.81315e-13
1.66114e-13
1.4962e-13
1.42904e-13
1.40238e-13
1.40242e-13
1.38063e-13
1.34652e-13
1.29818e-13
1.31554e-13
1.29792e-13
1.26161e-13
1.24194e-13
1.17497e-13
1.1278e-13
1.03346e-13
9.62438e-14
1.03796e-13
1.01074e-13
9.86413e-14
9.88161e-14
9.18722e-14
7.63046e-14
6.26812e-14
7.02756e-14
7.85622e-14
8.04599e-14
8.10619e-14
8.11639e-14
8.53286e-14
7.74235e-14
7.73563e-14
8.05535e-14
8.04248e-14
7.67859e-14
7.55758e-14
7.5796e-14
8.14744e-14
8.00296e-14
8.67286e-14
8.06233e-14
7.40948e-14
7.25633e-14
7.41135e-14
7.28534e-14
7.16989e-14
7.81748e-14
7.5138e-14
7.44503e-14
7.32103e-14
7.31812e-14
6.73997e-14
6.27052e-14
6.40219e-14
6.5301e-14
5.92609e-14
5.85926e-14
5.34018e-14
4.98718e-14
5.21865e-14
5.35627e-14
5.6031e-14
5.69475e-14
4.41112e-14
4.1382e-14
3.49262e-14
3.04785e-14
3.22661e-14
3.08946e-14
2.43843e-14
2.3992e-14
1.6434e-14
1.86761e-14
1.14727e-14
1.07914e-14
6.83931e-15
-1.1446e-15
-1.57415e-16
2.37337e-15
-8.66556e-15
-8.35541e-15
-2.24807e-15
2.1004e-13
2.1109e-13
2.11017e-13
2.07699e-13
2.18762e-13
2.1777e-13
2.03115e-13
2.03668e-13
2.04037e-13
2.05343e-13
2.03687e-13
2.03855e-13
1.99103e-13
1.92469e-13
1.8423e-13
1.82612e-13
1.82717e-13
1.866e-13
1.77767e-13
1.73082e-13
1.60234e-13
1.44626e-13
1.36389e-13
1.41547e-13
1.43835e-13
1.34249e-13
1.28214e-13
1.3266e-13
1.30479e-13
1.31947e-13
1.23393e-13
1.19863e-13
1.1373e-13
1.04533e-13
9.63442e-14
1.00654e-13
9.77422e-14
1.01757e-13
9.75496e-14
9.19174e-14
8.09615e-14
7.16852e-14
7.90678e-14
7.88627e-14
7.67042e-14
8.10997e-14
8.27696e-14
8.10357e-14
8.05709e-14
8.00945e-14
8.34483e-14
8.1236e-14
8.18228e-14
8.16952e-14
8.06355e-14
8.27369e-14
7.89025e-14
8.34416e-14
7.99942e-14
7.30467e-14
7.29714e-14
7.61706e-14
7.91995e-14
7.9031e-14
7.90981e-14
7.68353e-14
7.83604e-14
7.17737e-14
6.79108e-14
6.37768e-14
6.46838e-14
6.37677e-14
6.59413e-14
6.11794e-14
5.38283e-14
5.12837e-14
5.4255e-14
4.91107e-14
5.43687e-14
5.95189e-14
5.42856e-14
4.8658e-14
3.95278e-14
3.17021e-14
2.63108e-14
3.08614e-14
3.11377e-14
2.48203e-14
2.63265e-14
1.73965e-14
1.95526e-14
9.37655e-15
6.26147e-15
9.05331e-15
-1.79788e-15
-1.38979e-15
-1.78192e-15
-8.2013e-15
-9.49279e-15
-1.50637e-15
2.08447e-13
2.09134e-13
2.11564e-13
2.11479e-13
2.17865e-13
2.11129e-13
2.04813e-13
2.06034e-13
2.10046e-13
2.14169e-13
2.13803e-13
2.06149e-13
2.00091e-13
1.9489e-13
1.85181e-13
1.83995e-13
1.85479e-13
1.86927e-13
1.73531e-13
1.71268e-13
1.61333e-13
1.47205e-13
1.4507e-13
1.47505e-13
1.38968e-13
1.29726e-13
1.3008e-13
1.39207e-13
1.35185e-13
1.31236e-13
1.26576e-13
1.19344e-13
1.13409e-13
1.04283e-13
9.85335e-14
1.02549e-13
1.0592e-13
1.03105e-13
9.19531e-14
8.32344e-14
8.00225e-14
7.81661e-14
7.81173e-14
7.95084e-14
7.98186e-14
8.26322e-14
8.55721e-14
9.77957e-14
9.22266e-14
7.71775e-14
8.11498e-14
8.49912e-14
8.59805e-14
8.09197e-14
8.30722e-14
8.13089e-14
7.92781e-14
8.24926e-14
8.21769e-14
7.91128e-14
7.20712e-14
8.3276e-14
7.99831e-14
8.69257e-14
8.08295e-14
7.84248e-14
7.32956e-14
7.05739e-14
6.5088e-14
6.58952e-14
6.30088e-14
5.87489e-14
6.6701e-14
6.24494e-14
5.47184e-14
4.88417e-14
5.65891e-14
5.54976e-14
5.47454e-14
4.84006e-14
5.25604e-14
5.44563e-14
4.21038e-14
3.16374e-14
2.81918e-14
2.78327e-14
2.90145e-14
2.47439e-14
2.41938e-14
1.91536e-14
1.3116e-14
1.03516e-14
7.34912e-15
6.68528e-15
3.19951e-15
1.84027e-16
-5.21499e-15
-1.22913e-14
-1.19426e-14
-1.9244e-15
2.14225e-13
2.10753e-13
2.17177e-13
2.1313e-13
2.12555e-13
2.08027e-13
2.06573e-13
2.09755e-13
2.16255e-13
2.17114e-13
2.14657e-13
2.0614e-13
2.0447e-13
2.02417e-13
1.86217e-13
1.79801e-13
1.80505e-13
1.80481e-13
1.81326e-13
1.76208e-13
1.54898e-13
1.522e-13
1.48332e-13
1.44399e-13
1.44347e-13
1.37941e-13
1.34175e-13
1.42563e-13
1.38616e-13
1.34507e-13
1.30254e-13
1.19776e-13
1.15441e-13
1.04662e-13
1.02129e-13
1.04644e-13
1.00698e-13
1.0346e-13
9.18267e-14
8.68574e-14
7.99036e-14
7.38021e-14
8.27729e-14
9.25884e-14
8.41209e-14
8.09794e-14
8.49256e-14
9.0323e-14
8.96421e-14
8.97632e-14
9.3368e-14
8.86794e-14
7.92624e-14
8.1914e-14
8.0267e-14
8.31901e-14
8.13962e-14
8.46668e-14
7.99341e-14
7.8681e-14
7.79514e-14
8.90457e-14
8.59949e-14
8.85911e-14
8.2649e-14
7.71933e-14
6.88196e-14
6.71545e-14
5.87512e-14
6.44895e-14
6.49285e-14
6.2616e-14
6.38353e-14
5.95643e-14
5.99924e-14
5.23632e-14
5.08505e-14
5.86687e-14
5.95408e-14
5.17384e-14
4.83353e-14
4.97891e-14
4.11766e-14
3.32484e-14
3.58124e-14
2.74443e-14
2.9161e-14
2.4486e-14
1.98903e-14
1.57822e-14
6.76473e-15
7.99471e-15
8.30541e-15
1.35796e-14
4.78839e-15
-4.61862e-15
-7.46119e-15
-1.65985e-14
-9.24864e-15
1.01886e-15
2.18018e-13
2.12523e-13
2.14335e-13
2.13898e-13
2.10484e-13
2.10161e-13
2.08862e-13
2.152e-13
2.17496e-13
2.17677e-13
2.13384e-13
2.12834e-13
2.07457e-13
2.07369e-13
1.91656e-13
1.79104e-13
1.80621e-13
1.78442e-13
1.79383e-13
1.68722e-13
1.60302e-13
1.52109e-13
1.47469e-13
1.45352e-13
1.43405e-13
1.4277e-13
1.38344e-13
1.42998e-13
1.43258e-13
1.33855e-13
1.31152e-13
1.22777e-13
1.18501e-13
1.10932e-13
1.03928e-13
9.82786e-14
9.91124e-14
9.51921e-14
9.43515e-14
9.17306e-14
8.26472e-14
7.99723e-14
8.2978e-14
8.94289e-14
8.43654e-14
8.58538e-14
8.71396e-14
9.39897e-14
9.70385e-14
9.34916e-14
9.39623e-14
8.10179e-14
8.41515e-14
8.50985e-14
8.54292e-14
8.80443e-14
8.4173e-14
8.76691e-14
8.43332e-14
7.91634e-14
8.01542e-14
8.99392e-14
8.82673e-14
8.91538e-14
7.53106e-14
7.52371e-14
6.95255e-14
6.11101e-14
6.02537e-14
6.61242e-14
6.98724e-14
6.05776e-14
6.38233e-14
5.44563e-14
6.10918e-14
5.30195e-14
5.36383e-14
6.26528e-14
6.35249e-14
5.26845e-14
5.08221e-14
4.60061e-14
4.30443e-14
3.3439e-14
3.37407e-14
2.50299e-14
2.66177e-14
2.15477e-14
1.9269e-14
1.85634e-14
1.72711e-14
1.14935e-14
-4.56054e-16
5.89937e-15
4.78681e-15
-3.24533e-15
-1.23985e-14
-1.02837e-14
-8.67267e-15
-9.66509e-16
2.17054e-13
2.12946e-13
2.17607e-13
2.18913e-13
2.18104e-13
2.11879e-13
2.06968e-13
2.14691e-13
2.17926e-13
2.21769e-13
2.20022e-13
2.13734e-13
2.06563e-13
2.02372e-13
1.93053e-13
1.81377e-13
1.80939e-13
1.8123e-13
1.73123e-13
1.70247e-13
1.59683e-13
1.54057e-13
1.52841e-13
1.47594e-13
1.45023e-13
1.37641e-13
1.39429e-13
1.45019e-13
1.44392e-13
1.39892e-13
1.37911e-13
1.27644e-13
1.25396e-13
1.14105e-13
9.89145e-14
9.59294e-14
9.78014e-14
9.57361e-14
9.30193e-14
9.1397e-14
8.31225e-14
8.34933e-14
8.23189e-14
8.79823e-14
8.61285e-14
8.95064e-14
9.10179e-14
9.2593e-14
9.46984e-14
9.59957e-14
9.67947e-14
9.46279e-14
8.76338e-14
8.70963e-14
8.29555e-14
8.8707e-14
8.66744e-14
8.8812e-14
8.31883e-14
8.94284e-14
9.40663e-14
8.95162e-14
8.33137e-14
8.54293e-14
7.90607e-14
7.33425e-14
6.83801e-14
6.42985e-14
5.57754e-14
6.01877e-14
6.42821e-14
6.3519e-14
7.00102e-14
6.38611e-14
6.28752e-14
5.23518e-14
6.03034e-14
6.08956e-14
5.97505e-14
5.41756e-14
5.28422e-14
4.30876e-14
4.56144e-14
3.72477e-14
3.06993e-14
2.86826e-14
2.14105e-14
2.21715e-14
2.13e-14
1.71483e-14
8.86824e-15
7.54018e-15
2.80964e-15
5.6499e-15
3.56803e-15
-1.44804e-15
-1.17765e-14
-1.46135e-14
-5.58359e-15
1.89211e-16
2.14451e-13
2.13899e-13
2.24881e-13
2.20902e-13
2.15715e-13
2.11438e-13
2.14114e-13
2.15588e-13
2.20427e-13
2.20524e-13
2.21053e-13
2.12277e-13
2.06821e-13
2.01946e-13
1.95978e-13
1.92116e-13
1.87671e-13
1.83493e-13
1.75305e-13
1.62245e-13
1.51633e-13
1.40033e-13
1.49625e-13
1.56237e-13
1.53588e-13
1.46521e-13
1.35638e-13
1.41753e-13
1.41583e-13
1.41513e-13
1.40474e-13
1.21872e-13
1.22472e-13
1.1748e-13
1.09435e-13
9.74888e-14
9.88499e-14
9.1601e-14
9.30075e-14
9.11568e-14
8.28862e-14
9.14326e-14
8.25094e-14
8.40094e-14
9.21754e-14
8.68507e-14
9.2189e-14
9.28296e-14
9.31888e-14
1.01953e-13
1.03263e-13
9.58903e-14
9.24321e-14
9.32239e-14
8.99141e-14
8.85938e-14
8.1005e-14
8.30141e-14
9.17863e-14
9.55292e-14
8.87651e-14
8.84343e-14
8.73333e-14
8.57287e-14
7.80342e-14
6.88823e-14
6.39172e-14
6.09968e-14
6.13566e-14
6.49469e-14
6.25762e-14
6.216e-14
6.17649e-14
6.41687e-14
6.81549e-14
5.80308e-14
5.47131e-14
6.18862e-14
6.44296e-14
5.95362e-14
5.16992e-14
3.95034e-14
3.56469e-14
3.4482e-14
3.1154e-14
3.83326e-14
2.41621e-14
2.27179e-14
1.74296e-14
1.34884e-14
1.13577e-14
1.31352e-14
9.80677e-15
5.64252e-15
-7.4749e-16
-5.25236e-15
-1.39847e-14
-1.18847e-14
-5.88762e-15
8.16163e-16
2.19891e-13
2.13372e-13
2.1749e-13
2.16748e-13
2.18528e-13
2.16915e-13
2.17009e-13
2.18102e-13
2.19818e-13
2.22965e-13
2.18357e-13
2.13144e-13
2.0267e-13
2.05919e-13
1.90767e-13
1.84893e-13
1.87613e-13
1.84068e-13
1.67618e-13
1.60871e-13
1.59565e-13
1.54179e-13
1.52276e-13
1.52438e-13
1.56063e-13
1.51723e-13
1.41977e-13
1.41185e-13
1.45716e-13
1.37699e-13
1.30441e-13
1.2625e-13
1.24616e-13
1.16838e-13
1.06905e-13
9.89466e-14
1.01595e-13
9.14463e-14
9.0787e-14
8.84914e-14
8.81286e-14
9.04148e-14
8.78394e-14
9.15783e-14
9.09497e-14
8.79239e-14
9.13579e-14
9.94598e-14
9.63294e-14
1.00339e-13
1.01648e-13
9.79808e-14
9.43056e-14
9.3039e-14
8.92268e-14
9.63473e-14
8.91584e-14
9.32311e-14
9.35482e-14
9.78356e-14
9.29111e-14
9.11902e-14
8.7182e-14
8.21929e-14
7.35779e-14
5.97194e-14
6.01195e-14
6.67994e-14
6.86676e-14
6.71255e-14
5.74773e-14
5.9796e-14
6.39132e-14
6.53779e-14
6.74134e-14
6.06945e-14
5.91812e-14
6.08175e-14
5.95121e-14
5.45364e-14
5.00465e-14
3.57089e-14
4.02014e-14
4.29595e-14
3.39129e-14
3.19749e-14
2.4276e-14
2.251e-14
1.65421e-14
1.0349e-14
8.78698e-15
1.13826e-14
1.14085e-14
1.01997e-14
5.57272e-16
-6.45042e-15
-9.19369e-15
-1.11688e-14
-5.90472e-15
-1.77128e-15
2.17259e-13
2.13594e-13
2.2087e-13
2.18334e-13
2.11394e-13
2.13203e-13
2.17714e-13
2.14956e-13
2.13276e-13
2.22694e-13
2.21451e-13
2.18096e-13
2.04497e-13
2.06093e-13
1.93727e-13
1.90314e-13
1.83868e-13
1.87874e-13
1.76785e-13
1.62926e-13
1.58764e-13
1.57071e-13
1.52706e-13
1.50263e-13
1.53358e-13
1.54493e-13
1.44242e-13
1.364e-13
1.35924e-13
1.34195e-13
1.34691e-13
1.3151e-13
1.27037e-13
1.19409e-13
1.05156e-13
1.00614e-13
9.75607e-14
9.28071e-14
9.12244e-14
8.94477e-14
9.36138e-14
8.92043e-14
9.3551e-14
9.69493e-14
9.70815e-14
9.11179e-14