/*--------------------------------*- C++ -*----------------------------------*\
| =========                 |                                                 |
| \\      /  F ield         | OpenFOAM: The Open Source CFD Toolbox           |
|  \\    /   O peration     | Version:  v2012                                 |
|   \\  /    A nd           | Website:  www.openfoam.com                      |
|    \\/     M anipulation  |                                                 |
\*---------------------------------------------------------------------------*/
FoamFile
{
    version     2.0;
    format      ascii;
    class       volVectorField;
    location    "0";
    object      U;
}
// * * * * * * * * * * * * * * * * * * * * * * * * * * * * * * * * * * * * * //

dimensions      [0 1 -1 0 0 0 0];


internalField   nonuniform List<vector> 
4000
(
(1 3.68885e-15 0)
(1 1.52692e-15 0)
(1 1.62152e-15 0)
(1 1.81319e-16 0)
(1 -6.06003e-16 0)
(1 -6.14551e-15 0)
(1 4.9111e-17 0)
(1 7.92372e-15 0)
(1 3.09287e-15 0)
(1 -5.04845e-15 0)
(1 -2.30398e-15 0)
(1 2.00274e-15 0)
(1 3.28124e-15 0)
(1 2.06009e-15 0)
(1 -2.8054e-15 0)
(1 -8.4711e-15 0)
(1 1.88702e-15 0)
(1 3.21272e-15 0)
(1 -1.02215e-16 0)
(1 -5.28235e-16 0)
(1 -4.3807e-15 0)
(1 -2.61496e-15 0)
(1 -1.82842e-15 0)
(1 -1.49157e-15 0)
(1 4.01455e-15 0)
(1 4.94045e-15 0)
(1 1.84088e-16 0)
(1 1.01499e-15 0)
(1 -2.2283e-15 0)
(1 -1.68907e-15 0)
(1 -6.58385e-15 0)
(1 -5.07569e-15 0)
(1 8.55051e-16 0)
(1 -2.37807e-15 0)
(1 1.97953e-16 0)
(1 1.88003e-15 0)
(1 7.92273e-15 0)
(1 2.50232e-15 0)
(1 5.19441e-15 0)
(1 -3.00283e-15 0)
(1 -5.53852e-15 0)
(1 -4.89096e-15 0)
(1 2.69376e-15 0)
(1 2.50893e-15 0)
(1 2.35135e-15 0)
(1 4.41947e-16 0)
(1 -4.10634e-15 0)
(1 1.96149e-15 0)
(1 2.48115e-15 0)
(1 3.70802e-15 0)
(1 1.95731e-15 0)
(1 3.34975e-15 0)
(1 2.66773e-15 0)
(1 2.11146e-15 0)
(1 2.38441e-15 0)
(1 8.32031e-17 0)
(1 -2.82629e-15 0)
(1 2.282e-15 0)
(1 -1.53791e-15 0)
(1 3.07515e-15 0)
(1 2.86117e-17 0)
(1 1.46141e-15 0)
(1 -4.48852e-16 0)
(1 -1.31341e-15 0)
(1 -4.94762e-16 0)
(1 -2.39196e-15 0)
(1 -2.54608e-16 0)
(1 3.88102e-15 0)
(1 -2.67138e-15 0)
(1 1.8505e-17 0)
(1 -2.72285e-15 0)
(1 7.8711e-16 0)
(1 -3.15e-15 0)
(1 -4.22684e-15 0)
(1 -6.77007e-15 0)
(1 -3.31291e-15 0)
(1 -1.4814e-15 0)
(1 -5.43224e-16 0)
(1 -7.35556e-16 0)
(1 6.51132e-16 0)
(1 3.84807e-16 0)
(1 3.78726e-15 0)
(1 -1.03141e-16 0)
(1 -6.98345e-15 0)
(1 -2.5448e-15 0)
(1 5.77043e-15 0)
(1 1.9202e-15 0)
(1 2.65335e-15 0)
(1 1.40084e-15 0)
(1 3.06172e-15 0)
(1 8.62742e-17 0)
(1 1.47102e-15 0)
(1 -9.50722e-17 0)
(1 -4.49447e-16 0)
(1 -1.60395e-15 0)
(1 4.50021e-15 0)
(1 -1.77672e-15 0)
(1 -1.46621e-15 0)
(1 -4.43179e-17 0)
(1 -2.26225e-15 0)
(1 2.4427e-15 0)
(1 2.89185e-15 0)
(1 2.1251e-15 0)
(1 1.40963e-15 0)
(1 -2.27274e-15 0)
(1 -7.08415e-15 0)
(1 -1.4907e-15 0)
(1 8.002e-15 0)
(1 5.91383e-15 0)
(1 9.1386e-16 0)
(1 -5.28795e-15 0)
(1 1.35734e-15 0)
(1 3.15632e-15 0)
(1 4.40802e-16 0)
(1 -5.02398e-15 0)
(1 -9.99091e-15 0)
(1 4.57449e-15 0)
(1 4.55253e-15 0)
(1 -4.03868e-16 0)
(1 1.58157e-15 0)
(1 -3.22651e-15 0)
(1 8.18257e-16 0)
(1 3.20343e-15 0)
(1 -1.98964e-15 0)
(1 1.01168e-15 0)
(1 -3.28114e-15 0)
(1 -6.36555e-15 0)
(1 -8.55568e-16 0)
(1 -1.2832e-15 0)
(1 4.02752e-16 0)
(1 9.68859e-16 0)
(1 -3.34918e-15 0)
(1 2.3374e-15 0)
(1 -1.78396e-15 0)
(1 -4.59272e-15 0)
(1 2.73605e-15 0)
(1 4.16508e-15 0)
(1 -4.42008e-17 0)
(1 -1.56849e-16 0)
(1 -3.95099e-15 0)
(1 -6.95253e-15 0)
(1 -2.03601e-15 0)
(1 4.00903e-15 0)
(1 8.25694e-15 0)
(1 5.19604e-15 0)
(1 -2.16175e-15 0)
(1 -4.73312e-15 0)
(1 -3.824e-15 0)
(1 2.05312e-15 0)
(1 -2.61817e-15 0)
(1 -9.42005e-16 0)
(1 2.42523e-15 0)
(1 4.10891e-15 0)
(1 2.50324e-15 0)
(1 6.76379e-15 0)
(1 2.46854e-15 0)
(1 -1.83149e-15 0)
(1 8.42224e-16 0)
(1 -2.24489e-15 0)
(1 -2.15632e-15 0)
(1 -6.11208e-15 0)
(1 -3.35466e-15 0)
(1 6.1404e-15 0)
(1 3.62941e-15 0)
(1 -8.18025e-16 0)
(1 -6.73758e-15 0)
(1 -4.41007e-16 0)
(1 2.32048e-15 0)
(1 -2.67492e-15 0)
(1 -2.22133e-16 0)
(1 2.84441e-15 0)
(1 3.01015e-15 0)
(1 2.06186e-15 0)
(1 6.42181e-16 0)
(1 2.12662e-16 0)
(1 -3.31321e-15 0)
(1 2.33677e-15 0)
(1 1.5593e-15 0)
(1 4.45025e-15 0)
(1 3.9491e-15 0)
(1 -9.43867e-17 0)
(1 8.18399e-16 0)
(1 -3.26916e-16 0)
(1 -7.73431e-15 0)
(1 -2.53139e-15 0)
(1 7.33319e-15 0)
(1 5.45004e-15 0)
(1 -4.29084e-16 0)
(1 -2.52726e-15 0)
(1 -8.59759e-16 0)
(1 -3.69213e-15 0)
(1 4.36887e-16 0)
(1 -3.83435e-16 0)
(1 1.3285e-15 0)
(1 -2.27772e-15 0)
(1 6.49727e-15 0)
(1 -3.95769e-15 0)
(1 2.04803e-15 0)
(1 -3.78094e-15 0)
(1 -6.56795e-15 0)
(1 -4.45608e-15 0)
(1 4.17656e-15 0)
(1 -4.61121e-15 0)
(1 4.24133e-15 0)
(1 -5.27948e-15 0)
(1 1.84757e-15 0)
(1 3.18598e-15 0)
(1 5.37299e-16 0)
(1 5.62187e-15 0)
(1 5.31929e-15 0)
(1 -2.00827e-15 0)
(1 1.65041e-16 0)
(1 9.64316e-15 0)
(1 -2.88158e-16 0)
(1 -2.13575e-15 0)
(1 -7.63156e-15 0)
(1 -4.75802e-15 0)
(1 9.40051e-16 0)
(1 2.17751e-15 0)
(1 -2.45519e-15 0)
(1 -8.031e-16 0)
(1 4.18935e-15 0)
(1 4.79963e-15 0)
(1 4.62186e-15 0)
(1 1.95818e-15 0)
(1 -9.58455e-16 0)
(1 -3.43562e-15 0)
(1 4.32166e-16 0)
(1 5.1804e-15 0)
(1 2.02388e-15 0)
(1 5.2535e-15 0)
(1 -8.12474e-15 0)
(1 3.6117e-17 0)
(1 -3.59936e-15 0)
(1 -1.67224e-15 0)
(1 -1.93266e-16 0)
(1 -5.48575e-15 0)
(1 -4.31971e-15 0)
(1 -2.3612e-15 0)
(1 -1.46564e-15 0)
(1 -3.09105e-15 0)
(1 5.28471e-16 0)
(1 3.14833e-15 0)
(1 7.39279e-15 0)
(1 5.82707e-15 0)
(1 1.32104e-15 0)
(1 8.41798e-15 0)
(1 -2.56576e-15 0)
(1 2.46145e-16 0)
(1 -2.72631e-15 0)
(1 1.41385e-15 0)
(1 1.10782e-15 0)
(1 4.00747e-15 0)
(1 3.60295e-15 0)
(1 6.79675e-15 0)
(1 3.5685e-15 0)
(1 9.87589e-16 0)
(1 1.08145e-16 0)
(1 -3.91818e-15 0)
(1 -5.6341e-15 0)
(1 -2.67582e-15 0)
(1 -9.08257e-16 0)
(1 5.92701e-15 0)
(1 5.81781e-15 0)
(1 -4.08556e-15 0)
(1 -4.77089e-15 0)
(1 1.23111e-15 0)
(1 -1.82288e-15 0)
(1 -3.02691e-15 0)
(1 -1.43501e-15 0)
(1 -5.74295e-16 0)
(1 -1.1894e-15 0)
(1 5.72498e-15 0)
(1 1.2539e-15 0)
(1 -3.9021e-15 0)
(1 -4.53701e-15 0)
(1 -1.18077e-15 0)
(1 -6.85691e-16 0)
(1 3.87771e-15 0)
(1 8.02994e-16 0)
(1 -1.08047e-15 0)
(1 -3.48716e-16 0)
(1 -6.12779e-16 0)
(1 -3.10052e-15 0)
(1 -9.57636e-16 0)
(1 1.30289e-15 0)
(1 3.5795e-15 0)
(1 -3.42481e-16 0)
(1 -3.85366e-15 0)
(1 -1.15512e-15 0)
(1 -1.93178e-16 0)
(1 8.03548e-16 0)
(1 3.00043e-15 0)
(1 6.66479e-15 0)
(1 -1.0631e-15 0)
(1 1.73178e-15 0)
(1 -3.25598e-15 0)
(1 -1.9944e-16 0)
(1 -5.49342e-15 0)
(1 -5.2351e-15 0)
(1 4.99609e-16 0)
(1 -6.39117e-15 0)
(1 -4.28335e-15 0)
(1 -4.22457e-15 0)
(1 6.14867e-16 0)
(1 1.01798e-14 0)
(1 8.90896e-15 0)
(1 2.88183e-16 0)
(1 2.94585e-15 0)
(1 -2.21273e-15 0)
(1 3.90254e-15 0)
(1 -5.21973e-15 0)
(1 5.59923e-15 0)
(1 1.01879e-14 0)
(1 5.73921e-15 0)
(1 4.14724e-15 0)
(1 -6.96383e-15 0)
(1 -5.43111e-15 0)
(1 3.05604e-15 0)
(1 -5.01981e-15 0)
(1 4.01054e-15 0)
(1 2.62604e-15 0)
(1 1.57664e-15 0)
(1 8.22665e-15 0)
(1 7.05671e-15 0)
(1 1.30979e-14 0)
(1 3.73251e-15 0)
(1 6.3308e-15 0)
(1 3.31845e-15 0)
(1 -1.40977e-15 0)
(1 -1.35881e-15 0)
(1 -1.62889e-14 0)
(1 -2.86511e-15 0)
(1 -7.27628e-15 0)
(1 1.97231e-15 0)
(1 -8.03691e-15 0)
(1 -3.54366e-15 0)
(1 -9.27935e-17 0)
(1 1.60472e-15 0)
(1 -4.02069e-15 0)
(1 3.60944e-15 0)
(1 2.40481e-16 0)
(1 2.68671e-15 0)
(1 -4.78103e-15 0)
(1 2.77536e-15 0)
(1 6.65369e-15 0)
(1 8.17922e-15 0)
(1 7.4763e-15 0)
(1 2.18411e-15 0)
(1 2.30134e-15 0)
(1 3.22707e-15 0)
(1 3.88087e-15 0)
(1 3.48623e-15 0)
(1 8.8914e-15 0)
(1 4.10992e-15 0)
(1 -1.07955e-15 0)
(1 -3.47069e-15 0)
(1 -5.6411e-16 0)
(1 1.38694e-15 0)
(1 -2.39131e-15 0)
(1 1.99056e-15 0)
(1 1.04267e-15 0)
(1 1.46637e-15 0)
(1 -1.87586e-15 0)
(1 1.09713e-15 0)
(1 2.93575e-15 0)
(1 -2.64461e-15 0)
(1 -7.22852e-15 0)
(1 -5.01641e-15 0)
(1 -2.84407e-15 0)
(1 -3.37114e-15 0)
(1 -2.91861e-15 0)
(1 3.30567e-15 0)
(1 -2.71023e-15 0)
(1 -1.14283e-14 0)
(1 -2.56398e-15 0)
(1 1.29525e-15 0)
(1 8.11406e-17 0)
(1 1.06361e-15 0)
(1 -1.62918e-15 0)
(1 2.68629e-15 0)
(1 5.23004e-17 0)
(1 -9.33671e-17 0)
(1 -2.09731e-15 0)
(1 -1.23744e-15 0)
(1 3.91986e-15 0)
(1 4.70091e-15 0)
(1 8.32509e-15 0)
(1 4.56029e-15 0)
(1 2.70137e-15 0)
(1 3.85471e-15 0)
(1 9.77596e-16 0)
(1 4.71884e-15 0)
(1 3.39577e-15 0)
(1 -1.16923e-15 0)
(1 -3.19164e-15 0)
(1 -5.44688e-15 0)
(1 -1.01258e-14 0)
(1 -6.04698e-15 0)
(1 4.68488e-16 0)
(1 5.01031e-15 0)
(1 -2.69209e-15 0)
(1 1.35717e-15 0)
(1 -2.63186e-15 0)
(1 4.76496e-15 0)
(1 1.14676e-15 0)
(1 -1.21025e-15 0)
(1 -2.82473e-15 0)
(1 -6.55752e-15 0)
(1 -4.59341e-15 0)
(1 1.47392e-14 0)
(1 9.90162e-16 0)
(1 3.3299e-15 0)
(1 1.96284e-15 0)
(1 4.5224e-15 0)
(1 4.11417e-15 0)
(1 -1.5478e-16 0)
(1 -5.08704e-15 0)
(1 -6.17948e-15 0)
(1 -2.72091e-15 0)
(1 5.23706e-15 0)
(1 -3.10717e-15 0)
(1 -4.34799e-15 0)
(1 4.99119e-15 0)
(1 8.41362e-15 0)
(1 6.21156e-15 0)
(1 3.49392e-15 0)
(1 8.79116e-15 0)
(1 3.33741e-15 0)
(1 4.1953e-15 0)
(1 2.40633e-15 0)
(1 -1.02394e-15 0)
(1 -1.72432e-15 0)
(1 -1.7796e-15 0)
(1 -8.64511e-15 0)
(1 -1.36895e-14 0)
(1 -9.98155e-15 0)
(1 -3.69407e-15 0)
(1 -3.0403e-15 0)
(1 -6.81393e-16 0)
(1 1.91759e-15 0)
(1 -3.05904e-15 0)
(1 2.84035e-15 0)
(1 -8.16742e-16 0)
(1 -1.08198e-15 0)
(1 1.45638e-15 0)
(1 2.05033e-16 0)
(1 9.66808e-15 0)
(1 3.30969e-15 0)
(1 3.28692e-15 0)
(1 2.422e-15 0)
(1 3.31184e-15 0)
(1 6.22592e-16 0)
(1 5.48368e-15 0)
(1 1.62136e-15 0)
(1 -1.54097e-16 0)
(1 1.22563e-15 0)
(1 -2.04167e-15 0)
(1 1.84121e-15 0)
(1 -1.02802e-15 0)
(1 -3.78877e-16 0)
(1 2.75767e-15 0)
(1 6.61634e-16 0)
(1 5.00493e-15 0)
(1 1.16543e-14 0)
(1 4.80386e-15 0)
(1 8.58304e-16 0)
(1 -7.07361e-15 0)
(1 -5.48661e-16 0)
(1 -4.10535e-15 0)
(1 -2.28405e-15 0)
(1 1.25761e-17 0)
(1 2.37715e-15 0)
(1 -2.78962e-15 0)
(1 -2.09064e-15 0)
(1 -2.34481e-16 0)
(1 -1.09597e-15 0)
(1 -2.3821e-15 0)
(1 2.23036e-15 0)
(1 3.7695e-15 0)
(1 8.86435e-16 0)
(1 -3.16391e-15 0)
(1 -2.23169e-15 0)
(1 1.55957e-15 0)
(1 6.14034e-15 0)
(1 2.35999e-15 0)
(1 4.75026e-15 0)
(1 3.00624e-15 0)
(1 4.37139e-15 0)
(1 1.74946e-15 0)
(1 5.08996e-15 0)
(1 -6.039e-16 0)
(1 3.51357e-15 0)
(1 2.42527e-15 0)
(1 4.13395e-15 0)
(1 -2.57164e-15 0)
(1 -2.5482e-15 0)
(1 -6.46049e-15 0)
(1 -9.71666e-16 0)
(1 5.55136e-15 0)
(1 -1.1181e-15 0)
(1 4.31833e-15 0)
(1 3.23082e-15 0)
(1 3.59568e-15 0)
(1 -5.54179e-15 0)
(1 -8.9617e-15 0)
(1 -3.94391e-16 0)
(1 -7.1085e-16 0)
(1 -2.35548e-15 0)
(1 9.08131e-16 0)
(1 6.81472e-15 0)
(1 1.27622e-14 0)
(1 8.06173e-15 0)
(1 -3.86414e-15 0)
(1 2.75134e-15 0)
(1 -4.34198e-15 0)
(1 2.6127e-15 0)
(1 -3.48962e-15 0)
(1 -7.9513e-15 0)
(1 -3.09235e-15 0)
(1 -6.76721e-16 0)
(1 7.80892e-15 0)
(1 6.69882e-15 0)
(1 7.85321e-15 0)
(1 5.19269e-15 0)
(1 3.03062e-15 0)
(1 3.86066e-15 0)
(1 4.94349e-15 0)
(1 4.7055e-15 0)
(1 7.57388e-15 0)
(1 -4.91244e-15 0)
(1 6.80271e-17 0)
(1 -3.57124e-15 0)
(1 1.88576e-16 0)
(1 -3.69661e-15 0)
(1 -1.06912e-15 0)
(1 -8.53445e-15 0)
(1 -2.21822e-15 0)
(1 -5.10603e-15 0)
(1 2.1586e-15 0)
(1 -3.806e-15 0)
(1 3.53465e-15 0)
(1 2.29048e-15 0)
(1 9.24023e-15 0)
(1 3.10557e-16 0)
(1 -2.27233e-15 0)
(1 2.32901e-15 0)
(1 5.76812e-15 0)
(1 4.72723e-15 0)
(1 7.01382e-15 0)
(1 2.79846e-15 0)
(1 5.42325e-15 0)
(1 3.78994e-15 0)
(1 6.39606e-15 0)
(1 4.57995e-15 0)
(1 9.53308e-16 0)
(1 -4.625e-15 0)
(1 -3.96495e-15 0)
(1 -2.4519e-15 0)
(1 7.00563e-15 0)
(1 6.30619e-15 0)
(1 2.19721e-15 0)
(1 -3.86484e-15 0)
(1 8.01792e-15 0)
(1 4.78605e-15 0)
(1 3.86878e-15 0)
(1 7.738e-15 0)
(1 7.16747e-15 0)
(1 1.23118e-14 0)
(1 1.25306e-14 0)
(1 8.95192e-15 0)
(1 -5.26465e-16 0)
(1 -6.86227e-16 0)
(1 -4.92918e-15 0)
(1 -4.46193e-15 0)
(1 -6.91212e-15 0)
(1 -5.42439e-15 0)
(1 -9.98034e-16 0)
(1 1.79173e-15 0)
(1 4.15197e-15 0)
(1 -3.05288e-16 0)
(1 3.59188e-15 0)
(1 -6.30866e-16 0)
(1 -1.77472e-16 0)
(1 -1.07626e-15 0)
(1 -5.12943e-15 0)
(1 -2.52823e-15 0)
(1 -1.22785e-15 0)
(1 8.42702e-16 0)
(1 4.81051e-15 0)
(1 1.93395e-15 0)
(1 2.31857e-15 0)
(1 3.7168e-15 0)
(1 8.04826e-15 0)
(1 6.07602e-15 0)
(1 6.11619e-16 0)
(1 5.76988e-15 0)
(1 3.43412e-15 0)
(1 8.98173e-15 0)
(1 8.00332e-15 0)
(1 -1.6515e-15 0)
(1 8.38779e-16 0)
(1 4.94689e-15 0)
(1 6.15923e-15 0)
(1 -8.45718e-16 0)
(1 -3.92169e-15 0)
(1 2.05431e-15 0)
(1 2.38189e-15 0)
(1 3.44646e-16 0)
(1 4.11579e-15 0)
(1 -3.37986e-15 0)
(1 1.49386e-15 0)
(1 -2.28562e-15 0)
(1 3.07957e-15 0)
(1 -8.17379e-16 0)
(1 -1.44668e-15 0)
(1 -2.09983e-16 0)
(1 -1.51243e-17 0)
(1 4.43913e-15 0)
(1 5.48144e-15 0)
(1 2.34202e-15 0)
(1 6.05593e-15 0)
(1 1.6955e-15 0)
(1 -2.23764e-15 0)
(1 -1.18951e-14 0)
(1 -4.51219e-15 0)
(1 6.27617e-15 0)
(1 1.9346e-15 0)
(1 8.14911e-15 0)
(1 7.82616e-15 0)
(1 5.09837e-15 0)
(1 1.73628e-15 0)
(1 -6.60345e-16 0)
(1 -2.72546e-15 0)
(1 -4.32332e-15 0)
(1 -3.94147e-15 0)
(1 -1.83179e-15 0)
(1 -1.39907e-16 0)
(1 -2.37528e-15 0)
(1 4.20214e-16 0)
(1 3.02506e-15 0)
(1 1.8403e-14 0)
(1 7.47996e-15 0)
(1 5.41632e-15 0)
(1 -7.57342e-15 0)
(1 -5.23625e-15 0)
(1 -4.76554e-15 0)
(1 3.48758e-15 0)
(1 6.83568e-15 0)
(1 4.69905e-15 0)
(1 3.77346e-15 0)
(1 -8.09816e-16 0)
(1 3.87017e-15 0)
(1 5.85608e-16 0)
(1 3.69976e-15 0)
(1 -3.62515e-16 0)
(1 1.87294e-15 0)
(1 3.28114e-16 0)
(1 2.82956e-15 0)
(1 4.99675e-15 0)
(1 8.05145e-15 0)
(1 2.08804e-15 0)
(1 3.33218e-15 0)
(1 1.16771e-15 0)
(1 -1.0435e-15 0)
(1 1.53391e-15 0)
(1 -1.91015e-16 0)
(1 5.49479e-15 0)
(1 4.56831e-15 0)
(1 1.04068e-14 0)
(1 7.67096e-15 0)
(1 -2.11124e-15 0)
(1 -6.53571e-15 0)
(1 -1.5254e-16 0)
(1 2.34524e-15 0)
(1 4.51726e-15 0)
(1 8.46043e-15 0)
(1 8.19228e-16 0)
(1 3.78279e-16 0)
(1 -9.0572e-16 0)
(1 6.0055e-15 0)
(1 2.63132e-15 0)
(1 9.74404e-16 0)
(1 8.72368e-17 0)
(1 -3.15657e-15 0)
(1 3.32117e-15 0)
(1 4.26297e-15 0)
(1 6.52503e-15 0)
(1 5.25676e-15 0)
(1 7.70045e-15 0)
(1 1.96722e-17 0)
(1 4.50353e-15 0)
(1 5.11723e-15 0)
(1 1.14739e-14 0)
(1 3.9597e-15 0)
(1 6.85729e-15 0)
(1 9.08834e-15 0)
(1 9.69648e-15 0)
(1 5.78274e-15 0)
(1 6.41203e-15 0)
(1 6.06848e-16 0)
(1 -1.63522e-15 0)
(1 -3.89442e-15 0)
(1 -1.5665e-15 0)
(1 3.88729e-15 0)
(1 3.01573e-15 0)
(1 1.50875e-15 0)
(1 2.86282e-15 0)
(1 -5.35093e-15 0)
(1 4.76953e-16 0)
(1 -4.42125e-15 0)
(1 -2.07115e-15 0)
(1 3.72316e-15 0)
(1 1.28144e-14 0)
(1 1.5485e-15 0)
(1 6.91552e-15 0)
(1 -1.29516e-16 0)
(1 8.795e-15 0)
(1 6.19256e-15 0)
(1 1.45558e-15 0)
(1 4.51361e-16 0)
(1 -1.00747e-14 0)
(1 -1.13028e-14 0)
(1 -1.02646e-14 0)
(1 -1.04443e-14 0)
(1 -4.62622e-15 0)
(1 9.9982e-15 0)
(1 5.07521e-15 0)
(1 1.1927e-14 0)
(1 3.46053e-15 0)
(1 9.36083e-15 0)
(1 -4.86139e-16 0)
(1 -4.72853e-15 0)
(1 -1.90271e-15 0)
(1 4.02012e-17 0)
(1 -5.85074e-15 0)
(1 3.60459e-15 0)
(1 1.67297e-15 0)
(1 1.86645e-15 0)
(1 5.02087e-16 0)
(1 5.05164e-15 0)
(1 -5.70282e-15 0)
(1 -3.99354e-15 0)
(1 -8.13073e-15 0)
(1 4.75247e-16 0)
(1 4.05903e-15 0)
(1 3.45136e-15 0)
(1 6.90422e-15 0)
(1 9.15704e-15 0)
(1 4.75715e-15 0)
(1 8.39738e-15 0)
(1 1.52202e-15 0)
(1 8.13603e-15 0)
(1 1.64556e-15 0)
(1 6.96135e-15 0)
(1 4.64477e-15 0)
(1 4.6744e-15 0)
(1 -5.96031e-16 0)
(1 5.16028e-17 0)
(1 -1.75432e-15 0)
(1 1.24051e-15 0)
(1 9.65794e-15 0)
(1 9.5665e-15 0)
(1 6.64057e-15 0)
(1 3.22523e-15 0)
(1 5.67456e-15 0)
(1 6.05837e-15 0)
(1 2.05391e-15 0)
(1 1.91925e-15 0)
(1 3.8496e-15 0)
(1 2.81087e-15 0)
(1 6.4832e-15 0)
(1 4.15328e-15 0)
(1 5.59116e-16 0)
(1 4.27082e-15 0)
(1 6.56726e-15 0)
(1 4.49088e-15 0)
(1 -2.06606e-15 0)
(1 -3.23194e-17 0)
(1 -3.36161e-15 0)
(1 1.04947e-15 0)
(1 -1.18046e-15 0)
(1 -1.18738e-15 0)
(1 6.27707e-16 0)
(1 3.31747e-15 0)
(1 6.06255e-15 0)
(1 4.49081e-15 0)
(1 -2.70372e-15 0)
(1 3.26063e-15 0)
(1 4.96709e-15 0)
(1 1.98668e-15 0)
(1 2.5769e-15 0)
(1 5.58352e-16 0)
(1 5.81189e-15 0)
(1 9.70369e-15 0)
(1 1.17445e-14 0)
(1 1.06427e-14 0)
(1 1.30451e-14 0)
(1 6.3385e-15 0)
(1 1.12405e-14 0)
(1 -1.89484e-15 0)
(1 -4.23234e-15 0)
(1 -5.1465e-15 0)
(1 -9.78632e-15 0)
(1 7.48879e-16 0)
(1 7.08626e-15 0)
(1 8.25594e-15 0)
(1 3.3576e-15 0)
(1 -3.30625e-15 0)
(1 -5.81076e-16 0)
(1 -7.51811e-15 0)
(1 -1.21198e-16 0)
(1 7.59853e-15 0)
(1 1.54569e-14 0)
(1 3.92426e-15 0)
(1 5.64313e-15 0)
(1 -2.19874e-15 0)
(1 7.89485e-15 0)
(1 2.80847e-16 0)
(1 -3.38395e-15 0)
(1 -1.10587e-14 0)
(1 -3.38539e-17 0)
(1 6.35694e-15 0)
(1 3.65812e-16 0)
(1 -6.47971e-15 0)
(1 1.65729e-15 0)
(1 2.20451e-15 0)
(1 2.53963e-15 0)
(1 1.25652e-15 0)
(1 4.34141e-15 0)
(1 -4.92966e-15 0)
(1 -3.95468e-15 0)
(1 -1.17136e-14 0)
(1 -3.95801e-15 0)
(1 1.79076e-15 0)
(1 5.54056e-15 0)
(1 4.70212e-15 0)
(1 4.10675e-15 0)
(1 -1.3885e-15 0)
(1 -7.51905e-17 0)
(1 1.26394e-15 0)
(1 -7.08807e-15 0)
(1 -5.51861e-16 0)
(1 -3.13091e-17 0)
(1 1.34322e-14 0)
(1 1.16307e-14 0)
(1 8.4236e-15 0)
(1 -7.12823e-16 0)
(1 7.29579e-15 0)
(1 2.16999e-15 0)
(1 6.76333e-15 0)
(1 4.78143e-15 0)
(1 7.65716e-15 0)
(1 1.12369e-14 0)
(1 6.60755e-15 0)
(1 8.76311e-15 0)
(1 -1.90343e-15 0)
(1 -3.97238e-15 0)
(1 6.40772e-15 0)
(1 -1.02634e-15 0)
(1 1.48154e-15 0)
(1 -4.46131e-15 0)
(1 6.48372e-16 0)
(1 -3.54638e-15 0)
(1 3.19921e-15 0)
(1 1.93855e-15 0)
(1 1.09956e-14 0)
(1 1.93974e-14 0)
(1 1.1622e-14 0)
(1 1.95239e-14 0)
(1 1.12846e-14 0)
(1 9.93452e-15 0)
(1 9.68008e-15 0)
(1 1.76416e-15 0)
(1 1.90754e-15 0)
(1 -3.5125e-17 0)
(1 6.15143e-16 0)
(1 6.32349e-15 0)
(1 5.76686e-15 0)
(1 -2.21784e-15 0)
(1 1.33427e-15 0)
(1 2.04507e-15 0)
(1 3.84097e-15 0)
(1 -7.46902e-16 0)
(1 -1.44195e-15 0)
(1 7.70371e-16 0)
(1 -1.61848e-16 0)
(1 -1.87485e-15 0)
(1 2.20445e-15 0)
(1 1.11649e-15 0)
(1 1.34084e-15 0)
(1 2.78211e-15 0)
(1 3.68604e-15 0)
(1 8.82124e-15 0)
(1 1.3493e-14 0)
(1 1.66632e-14 0)
(1 1.90652e-14 0)
(1 2.0874e-14 0)
(1 2.19884e-14 0)
(1 2.08826e-14 0)
(1 -1.71477e-17 0)
(1 5.14789e-16 0)
(1 4.28604e-15 0)
(1 2.10695e-15 0)
(1 2.1297e-17 0)
(1 -2.08077e-15 0)
(1 1.74346e-15 0)
(1 -2.07178e-15 0)
(1 5.65654e-15 0)
(1 5.73405e-17 0)
(1 3.73098e-15 0)
(1 -3.60668e-15 0)
(1 2.69703e-15 0)
(1 -1.28679e-15 0)
(1 2.27686e-17 0)
(1 -3.29867e-15 0)
(1 -3.53816e-15 0)
(1 3.25568e-15 0)
(1 2.52217e-15 0)
(1 6.63104e-15 0)
(1 -8.73781e-15 0)
(1 -4.13454e-15 0)
(1 1.9357e-15 0)
(1 2.60827e-15 0)
(1 2.87764e-16 0)
(1 7.2655e-15 0)
(1 4.82187e-15 0)
(1 4.74703e-15 0)
(1 -4.27036e-15 0)
(1 3.40378e-15 0)
(1 -2.80451e-15 0)
(1 8.79152e-15 0)
(1 -9.4581e-16 0)
(1 -1.56584e-15 0)
(1 -9.51644e-15 0)
(1 1.06763e-16 0)
(1 -3.92532e-15 0)
(1 -3.34172e-15 0)
(1 -1.93018e-16 0)
(1 5.6876e-15 0)
(1 -2.93316e-15 0)
(1 -2.26319e-16 0)
(1 2.25606e-15 0)
(1 5.61159e-15 0)
(1 -4.20317e-15 0)
(1 -8.78033e-16 0)
(1 5.20727e-15 0)
(1 1.87721e-15 0)
(1 7.57852e-15 0)
(1 6.76483e-15 0)
(1 8.82007e-15 0)
(1 4.18671e-15 0)
(1 6.64124e-15 0)
(1 4.80175e-15 0)
(1 2.63697e-15 0)
(1 5.6265e-15 0)
(1 1.67679e-15 0)
(1 4.80909e-15 0)
(1 1.21048e-14 0)
(1 6.64249e-15 0)
(1 3.7216e-15 0)
(1 5.39136e-16 0)
(1 5.82287e-15 0)
(1 -1.26025e-16 0)
(1 3.86606e-15 0)
(1 3.89206e-15 0)
(1 8.45605e-15 0)
(1 2.00722e-14 0)
(1 2.10712e-14 0)
(1 1.29376e-14 0)
(1 3.50944e-15 0)
(1 8.212e-15 0)
(1 6.64587e-16 0)
(1 8.41714e-16 0)
(1 2.24093e-15 0)
(1 5.02992e-15 0)
(1 1.14471e-14 0)
(1 7.54955e-15 0)
(1 3.06248e-15 0)
(1 1.41358e-15 0)
(1 4.59357e-15 0)
(1 4.44394e-16 0)
(1 -3.59667e-15 0)
(1 -1.77547e-15 0)
(1 -2.30903e-16 0)
(1 1.68878e-15 0)
(1 4.53826e-15 0)
(1 8.3043e-15 0)
(1 3.50493e-15 0)
(1 1.49365e-15 0)
(1 3.43181e-15 0)
(1 4.1672e-15 0)
(1 8.76113e-15 0)
(1 1.28272e-14 0)
(1 1.79776e-14 0)
(1 1.07195e-14 0)
(1 1.49808e-14 0)
(1 1.1848e-14 0)
(1 2.73428e-14 0)
(1 2.5766e-14 0)
(1 -6.08648e-16 0)
(1 1.8206e-15 0)
(1 -4.00139e-15 0)
(1 9.05503e-16 0)
(1 -4.54871e-15 0)
(1 -2.46138e-15 0)
(1 -4.96743e-15 0)
(1 -2.69882e-15 0)
(1 5.08537e-15 0)
(1 4.16259e-15 0)
(1 6.98322e-15 0)
(1 1.23179e-15 0)
(1 -1.55796e-15 0)
(1 -1.07639e-14 0)
(1 -5.9444e-16 0)
(1 -1.59831e-15 0)
(1 7.243e-15 0)
(1 3.54667e-16 0)
(1 6.4099e-15 0)
(1 4.59235e-15 0)
(1 7.11338e-15 0)
(1 -5.13719e-16 0)
(1 -8.34589e-15 0)
(1 -2.72822e-15 0)
(1 4.31364e-15 0)
(1 -3.96829e-15 0)
(1 -3.25563e-15 0)
(1 -4.65297e-15 0)
(1 -2.9098e-15 0)
(1 -7.06442e-15 0)
(1 -1.54166e-15 0)
(1 1.01746e-14 0)
(1 8.12576e-15 0)
(1 2.9538e-15 0)
(1 -8.86747e-15 0)
(1 8.48493e-16 0)
(1 -1.94927e-15 0)
(1 -1.06157e-16 0)
(1 9.71206e-16 0)
(1 -8.32499e-16 0)
(1 -4.94531e-15 0)
(1 -2.45246e-15 0)
(1 -1.74548e-15 0)
(1 -9.91719e-16 0)
(1 -2.42922e-15 0)
(1 -5.45785e-15 0)
(1 9.50147e-15 0)
(1 4.61056e-15 0)
(1 7.08932e-15 0)
(1 1.48934e-14 0)
(1 1.76802e-14 0)
(1 1.24621e-14 0)
(1 8.23275e-15 0)
(1 8.30063e-16 0)
(1 1.52389e-15 0)
(1 -7.61882e-16 0)
(1 -1.33692e-15 0)
(1 3.00031e-15 0)
(1 1.91654e-15 0)
(1 8.91745e-15 0)
(1 6.61068e-15 0)
(1 6.63115e-15 0)
(1 4.46815e-15 0)
(1 1.46298e-15 0)
(1 3.43228e-15 0)
(1 1.09052e-14 0)
(1 7.13871e-15 0)
(1 1.59446e-15 0)
(1 1.24366e-14 0)
(1 5.00495e-15 0)
(1 8.63457e-15 0)
(1 1.28449e-14 0)
(1 5.32167e-15 0)
(1 2.1596e-15 0)
(1 8.0299e-15 0)
(1 9.04248e-15 0)
(1 1.01849e-14 0)
(1 1.14056e-14 0)
(1 9.46151e-15 0)
(1 6.30236e-15 0)
(1 -9.80936e-16 0)
(1 -7.25644e-16 0)
(1 -7.89751e-16 0)
(1 -2.7721e-16 0)
(1 1.90581e-15 0)
(1 -1.74105e-15 0)
(1 1.06841e-15 0)
(1 2.68288e-15 0)
(1 5.39148e-15 0)
(1 1.80014e-15 0)
(1 5.78927e-15 0)
(1 -3.17504e-16 0)
(1 8.66655e-15 0)
(1 2.97702e-15 0)
(1 1.56866e-14 0)
(1 7.50812e-15 0)
(1 1.08064e-14 0)
(1 8.97265e-15 0)
(1 2.01432e-14 0)
(1 2.31398e-14 0)
(1 2.03314e-15 0)
(1 -2.88428e-15 0)
(1 -1.19834e-15 0)
(1 3.14091e-15 0)
(1 -2.20736e-15 0)
(1 -4.5736e-16 0)
(1 -6.87385e-15 0)
(1 5.66946e-15 0)
(1 -5.24215e-16 0)
(1 9.67652e-15 0)
(1 4.31633e-15 0)
(1 7.50356e-15 0)
(1 1.07859e-15 0)
(1 -6.94304e-15 0)
(1 -2.95861e-15 0)
(1 -1.42083e-15 0)
(1 1.06857e-15 0)
(1 -1.05966e-14 0)
(1 1.61615e-15 0)
(1 -1.33181e-14 0)
(1 3.58897e-15 0)
(1 5.18132e-15 0)
(1 1.2038e-14 0)
(1 9.8228e-15 0)
(1 6.99526e-15 0)
(1 -3.30163e-15 0)
(1 -5.04405e-15 0)
(1 4.835e-15 0)
(1 2.44249e-15 0)
(1 1.29383e-15 0)
(1 -2.11311e-15 0)
(1 -4.99608e-15 0)
(1 2.53493e-15 0)
(1 1.91631e-15 0)
(1 -3.60862e-15 0)
(1 -8.35846e-15 0)
(1 2.2378e-15 0)
(1 2.34079e-16 0)
(1 -1.07249e-15 0)
(1 -5.62752e-15 0)
(1 -1.42868e-15 0)
(1 5.44272e-15 0)
(1 -6.91173e-16 0)
(1 -2.94033e-15 0)
(1 -3.52653e-15 0)
(1 2.10981e-15 0)
(1 1.44934e-15 0)
(1 1.02714e-14 0)
(1 1.12019e-14 0)
(1 1.60345e-14 0)
(1 1.1833e-14 0)
(1 7.03517e-15 0)
(1 2.60926e-16 0)
(1 1.51926e-15 0)
(1 4.15886e-15 0)
(1 -1.87051e-15 0)
(1 -2.18982e-15 0)
(1 -3.68131e-15 0)
(1 3.75416e-15 0)
(1 1.24941e-14 0)
(1 1.70833e-14 0)
(1 4.14955e-15 0)
(1 5.96865e-15 0)
(1 1.67993e-15 0)
(1 1.09242e-14 0)
(1 4.13142e-15 0)
(1 6.17815e-15 0)
(1 5.09823e-15 0)
(1 -3.59287e-16 0)
(1 8.53777e-15 0)
(1 1.32554e-14 0)
(1 1.17125e-14 0)
(1 6.21287e-15 0)
(1 4.27472e-15 0)
(1 7.14416e-15 0)
(1 4.62254e-15 0)
(1 1.90974e-15 0)
(1 5.74612e-15 0)
(1 1.19838e-15 0)
(1 5.12379e-15 0)
(1 5.04131e-15 0)
(1 4.8994e-15 0)
(1 9.75908e-15 0)
(1 6.41642e-15 0)
(1 -4.08816e-16 0)
(1 -4.34355e-15 0)
(1 1.86893e-15 0)
(1 2.77591e-15 0)
(1 7.69629e-15 0)
(1 2.79922e-15 0)
(1 7.5915e-15 0)
(1 7.21104e-16 0)
(1 7.41279e-15 0)
(1 6.3597e-15 0)
(1 8.65216e-15 0)
(1 1.3353e-14 0)
(1 1.02471e-14 0)
(1 1.29364e-14 0)
(1 1.19732e-14 0)
(1 1.66732e-14 0)
(1 3.77085e-15 0)
(1 -4.0946e-16 0)
(1 -4.51416e-15 0)
(1 9.29082e-16 0)
(1 -2.06338e-15 0)
(1 -4.60312e-15 0)
(1 -5.5759e-15 0)
(1 2.16589e-15 0)
(1 -1.22939e-15 0)
(1 7.48039e-16 0)
(1 7.6433e-15 0)
(1 8.9728e-15 0)
(1 1.12366e-15 0)
(1 1.17691e-15 0)
(1 -5.45601e-15 0)
(1 2.66057e-15 0)
(1 -5.06968e-15 0)
(1 8.10061e-15 0)
(1 3.78883e-15 0)
(1 8.53193e-15 0)
(1 7.39484e-15 0)
(1 -6.25656e-15 0)
(1 -5.46381e-15 0)
(1 -6.17196e-15 0)
(1 -1.19809e-15 0)
(1 -6.95016e-15 0)
(1 -3.65856e-15 0)
(1 4.18093e-15 0)
(1 -1.48806e-15 0)
(1 -1.41917e-15 0)
(1 -4.93915e-15 0)
(1 -9.4639e-15 0)
(1 -5.02877e-16 0)
(1 3.29887e-16 0)
(1 8.22763e-15 0)
(1 2.99285e-15 0)
(1 6.00671e-15 0)
(1 -4.25801e-15 0)
(1 -1.27164e-15 0)
(1 -2.59911e-15 0)
(1 -1.76054e-15 0)
(1 2.89526e-15 0)
(1 -8.17164e-15 0)
(1 -1.08392e-14 0)
(1 -2.33156e-15 0)
(1 9.67581e-15 0)
(1 3.55429e-15 0)
(1 2.16117e-14 0)
(1 1.68006e-14 0)
(1 1.43359e-14 0)
(1 3.59144e-15 0)
(1 5.92861e-15 0)
(1 -2.19571e-15 0)
(1 7.08877e-16 0)
(1 8.93411e-16 0)
(1 -1.13426e-15 0)
(1 -1.77294e-15 0)
(1 1.44472e-15 0)
(1 -2.23801e-16 0)
(1 -5.20386e-16 0)
(1 -5.49578e-15 0)
(1 1.72637e-15 0)
(1 3.83477e-15 0)
(1 1.65557e-14 0)
(1 1.16208e-14 0)
(1 7.63314e-15 0)
(1 5.55616e-15 0)
(1 8.52885e-15 0)
(1 1.89566e-15 0)
(1 8.4583e-16 0)
(1 4.34272e-15 0)
(1 -1.4907e-15 0)
(1 6.82722e-15 0)
(1 8.05379e-15 0)
(1 4.43834e-15 0)
(1 1.33079e-15 0)
(1 1.96901e-15 0)
(1 3.29033e-15 0)
(1 -2.38346e-15 0)
(1 7.26472e-15 0)
(1 7.5372e-15 0)
(1 1.24722e-14 0)
(1 6.78372e-15 0)
(1 5.58339e-15 0)
(1 1.43825e-15 0)
(1 4.5225e-15 0)
(1 3.22169e-15 0)
(1 8.59585e-15 0)
(1 5.06654e-15 0)
(1 5.33478e-15 0)
(1 6.73402e-15 0)
(1 5.17046e-15 0)
(1 -2.7067e-15 0)
(1 3.90781e-15 0)
(1 2.71809e-15 0)
(1 8.426e-15 0)
(1 8.92184e-15 0)
(1 8.62786e-15 0)
(1 5.17634e-15 0)
(1 9.27486e-15 0)
(1 -3.12165e-16 0)
(1 4.68905e-15 0)
(1 -4.29636e-15 0)
(1 -6.73181e-15 0)
(1 -1.06004e-15 0)
(1 -3.46313e-15 0)
(1 -2.64957e-15 0)
(1 2.6401e-16 0)
(1 5.47042e-15 0)
(1 5.24229e-15 0)
(1 8.21068e-15 0)
(1 4.88334e-16 0)
(1 -5.6474e-15 0)
(1 -6.75888e-16 0)
(1 -4.1695e-15 0)
(1 4.44678e-15 0)
(1 -3.33646e-15 0)
(1 2.66583e-15 0)
(1 -7.12017e-15 0)
(1 9.53413e-15 0)
(1 -4.85536e-15 0)
(1 3.02057e-15 0)
(1 -9.24778e-15 0)
(1 -9.6905e-16 0)
(1 8.53818e-15 0)
(1 4.15294e-15 0)
(1 -9.58327e-16 0)
(1 -1.38738e-15 0)
(1 -4.31599e-15 0)
(1 -3.66944e-16 0)
(1 -4.63085e-15 0)
(1 -3.59297e-15 0)
(1 -3.15402e-15 0)
(1 -6.28638e-15 0)
(1 6.75173e-15 0)
(1 1.16168e-14 0)
(1 6.40093e-15 0)
(1 -1.77265e-15 0)
(1 -4.1143e-15 0)
(1 -1.02509e-14 0)
(1 -7.2902e-15 0)
(1 -3.58312e-15 0)
(1 -3.59572e-15 0)
(1 1.26798e-15 0)
(1 1.25075e-14 0)
(1 1.07808e-14 0)
(1 1.23789e-14 0)
(1 6.79136e-15 0)
(1 3.51008e-15 0)
(1 3.66479e-15 0)
(1 -2.90881e-15 0)
(1 5.49989e-15 0)
(1 -7.80501e-16 0)
(1 5.44871e-15 0)
(1 6.8459e-16 0)
(1 5.86974e-15 0)
(1 1.2428e-14 0)
(1 1.48085e-14 0)
(1 -9.8939e-16 0)
(1 4.06841e-15 0)
(1 -8.39031e-15 0)
(1 2.43489e-15 0)
(1 -4.15643e-15 0)
(1 8.54734e-15 0)
(1 -3.98342e-15 0)
(1 1.06634e-14 0)
(1 1.06201e-14 0)
(1 1.32758e-14 0)
(1 1.09287e-15 0)
(1 4.83645e-16 0)
(1 6.79524e-16 0)
(1 6.86729e-16 0)
(1 8.84281e-15 0)
(1 1.62402e-14 0)
(1 4.1722e-15 0)
(1 4.55094e-15 0)
(1 6.03611e-15 0)
(1 1.32135e-14 0)
(1 1.38164e-14 0)
(1 8.45049e-15 0)
(1 3.85788e-15 0)
(1 7.60233e-15 0)
(1 5.22386e-15 0)
(1 -8.34171e-16 0)
(1 2.97626e-15 0)
(1 1.10967e-14 0)
(1 3.8083e-15 0)
(1 9.1042e-15 0)
(1 5.40046e-15 0)
(1 1.09245e-14 0)
(1 8.46078e-15 0)
(1 6.54998e-15 0)
(1 2.86346e-15 0)
(1 -2.50361e-16 0)
(1 -4.10245e-15 0)
(1 1.76997e-15 0)
(1 1.18523e-14 0)
(1 1.34568e-14 0)
(1 8.744e-15 0)
(1 9.03411e-15 0)
(1 2.25549e-15 0)
(1 -1.33173e-15 0)
(1 2.77156e-15 0)
(1 -6.83854e-15 0)
(1 9.33392e-16 0)
(1 -4.45006e-15 0)
(1 -3.31668e-16 0)
(1 -1.04912e-14 0)
(1 1.52368e-16 0)
(1 4.72014e-15 0)
(1 9.29356e-16 0)
(1 2.21183e-15 0)
(1 4.70401e-15 0)
(1 2.20574e-17 0)
(1 4.96084e-15 0)
(1 -4.42023e-15 0)
(1 5.16097e-16 0)
(1 -1.40937e-14 0)
(1 -4.3439e-15 0)
(1 2.6044e-15 0)
(1 -5.25783e-15 0)
(1 3.60443e-15 0)
(1 6.57136e-15 0)
(1 7.9005e-15 0)
(1 9.26139e-15 0)
(1 8.64886e-15 0)
(1 4.30317e-15 0)
(1 -5.69481e-15 0)
(1 -7.86856e-15 0)
(1 -4.66638e-15 0)
(1 -2.00086e-15 0)
(1 6.28783e-16 0)
(1 1.8635e-15 0)
(1 -3.72195e-16 0)
(1 2.25289e-15 0)
(1 2.4079e-15 0)
(1 -3.5119e-15 0)
(1 1.56302e-15 0)
(1 -3.58742e-15 0)
(1 -7.99047e-15 0)
(1 -6.66867e-15 0)
(1 -9.10292e-15 0)
(1 3.35479e-15 0)
(1 1.26132e-14 0)
(1 5.99038e-15 0)
(1 8.35182e-15 0)
(1 9.81266e-15 0)
(1 -3.36462e-15 0)
(1 -6.37769e-15 0)
(1 -1.6061e-15 0)
(1 6.51782e-15 0)
(1 6.87067e-15 0)
(1 6.70927e-15 0)
(1 9.20977e-15 0)
(1 8.06559e-15 0)
(1 7.4248e-15 0)
(1 1.03899e-14 0)
(1 7.49802e-15 0)
(1 7.44672e-15 0)
(1 7.07908e-15 0)
(1 3.76957e-15 0)
(1 1.32206e-15 0)
(1 1.21557e-15 0)
(1 -2.01276e-15 0)
(1 3.50406e-15 0)
(1 1.93292e-15 0)
(1 1.35861e-14 0)
(1 1.5871e-14 0)
(1 1.13987e-14 0)
(1 7.66847e-15 0)
(1 4.64423e-15 0)
(1 4.26014e-15 0)
(1 6.36218e-15 0)
(1 1.25103e-14 0)
(1 6.90399e-15 0)
(1 8.963e-15 0)
(1 6.82954e-15 0)
(1 5.50083e-15 0)
(1 8.70593e-15 0)
(1 7.33095e-15 0)
(1 1.02417e-14 0)
(1 5.89409e-15 0)
(1 1.36378e-15 0)
(1 3.68631e-15 0)
(1 2.88436e-15 0)
(1 -7.14534e-16 0)
(1 2.79229e-15 0)
(1 1.55659e-15 0)
(1 2.19417e-15 0)
(1 7.6387e-15 0)
(1 3.53071e-15 0)
(1 5.19491e-15 0)
(1 6.88305e-15 0)
(1 3.31832e-15 0)
(1 6.93471e-15 0)
(1 3.35368e-16 0)
(1 9.71923e-15 0)
(1 1.09511e-14 0)
(1 1.21291e-14 0)
(1 1.17284e-14 0)
(1 -1.75589e-15 0)
(1 -2.94589e-15 0)
(1 -1.95942e-15 0)
(1 -2.51742e-15 0)
(1 7.13469e-15 0)
(1 4.36273e-15 0)
(1 1.47918e-14 0)
(1 4.2846e-15 0)
(1 -1.52967e-15 0)
(1 -1.23465e-14 0)
(1 -1.18644e-14 0)
(1 -1.78305e-15 0)
(1 -1.79994e-15 0)
(1 -3.73951e-15 0)
(1 3.44995e-15 0)
(1 -7.52365e-15 0)
(1 -1.5505e-15 0)
(1 -1.92274e-15 0)
(1 -3.36775e-15 0)
(1 -3.95806e-15 0)
(1 6.8518e-15 0)
(1 3.83076e-16 0)
(1 7.10937e-15 0)
(1 9.57344e-16 0)
(1 -7.98362e-16 0)
(1 -4.46714e-15 0)
(1 -4.01058e-15 0)
(1 -8.86552e-15 0)
(1 -7.28415e-15 0)
(1 -9.22311e-15 0)
(1 8.54326e-16 0)
(1 5.41263e-15 0)
(1 7.04414e-15 0)
(1 4.63971e-15 0)
(1 -1.99557e-16 0)
(1 3.69449e-15 0)
(1 -5.60727e-15 0)
(1 6.58736e-16 0)
(1 -1.58921e-15 0)
(1 2.07734e-15 0)
(1 -8.79826e-15 0)
(1 -6.16067e-15 0)
(1 1.2197e-14 0)
(1 6.40748e-15 0)
(1 6.71695e-15 0)
(1 -1.06995e-15 0)
(1 4.15008e-15 0)
(1 7.63289e-16 0)
(1 -1.32e-15 0)
(1 -8.81291e-16 0)
(1 9.68151e-15 0)
(1 8.62099e-15 0)
(1 8.98246e-15 0)
(1 1.86561e-15 0)
(1 2.2885e-15 0)
(1 2.86098e-15 0)
(1 3.14784e-15 0)
(1 8.68693e-16 0)
(1 7.74198e-15 0)
(1 -1.9558e-15 0)
(1 2.25936e-16 0)
(1 1.46948e-16 0)
(1 2.31493e-15 0)
(1 -1.04414e-15 0)
(1 4.67138e-15 0)
(1 -3.23957e-15 0)
(1 -2.3257e-15 0)
(1 -2.01463e-15 0)
(1 8.36052e-15 0)
(1 3.93179e-15 0)
(1 6.69216e-15 0)
(1 5.91862e-15 0)
(1 1.31278e-14 0)
(1 1.15613e-14 0)
(1 1.21263e-14 0)
(1 7.80715e-15 0)
(1 2.72833e-15 0)
(1 1.85839e-15 0)
(1 4.1002e-15 0)
(1 1.18739e-14 0)
(1 4.26054e-15 0)
(1 8.19489e-15 0)
(1 6.04816e-15 0)
(1 1.47019e-14 0)
(1 9.78018e-15 0)
(1 5.92423e-15 0)
(1 7.15954e-16 0)
(1 -4.90315e-15 0)
(1 -2.59015e-15 0)
(1 2.12822e-15 0)
(1 -2.61991e-15 0)
(1 2.0366e-15 0)
(1 3.77836e-15 0)
(1 3.7196e-15 0)
(1 1.0214e-14 0)
(1 9.76282e-15 0)
(1 6.2022e-15 0)