/*--------------------------------*- C++ -*----------------------------------*\
| =========                 |                                                 |
| \\      /  F ield         | OpenFOAM: The Open Source CFD Toolbox           |
|  \\    /   O peration     | Version:  v2012                                 |
|   \\  /    A nd           | Website:  www.openfoam.com                      |
|    \\/     M anipulation  |                                                 |
\*---------------------------------------------------------------------------*/
FoamFile
{
    version     2.0;
    format      ascii;
    class       volScalarField;
    location    "11.75";
    object      W;
}
// * * * * * * * * * * * * * * * * * * * * * * * * * * * * * * * * * * * * * //

dimensions      [0 0 -1 0 0 0 0];


internalField   nonuniform List<scalar> 
65536
(
1.62773e-16
1.64802e-16
1.71295e-16
1.82343e-16
1.98142e-16
2.18992e-16
2.45304e-16
2.77601e-16
3.16532e-16
3.62875e-16
4.17557e-16
4.81664e-16
5.5646e-16
6.43406e-16
7.44184e-16
8.60723e-16
9.95225e-16
1.1502e-15
1.32851e-15
1.53339e-15
1.76852e-15
2.03804e-15
2.34664e-15
2.69961e-15
3.10289e-15
3.56317e-15
4.08796e-15
4.68566e-15
5.3657e-15
6.13861e-15
7.01613e-15
8.01137e-15
9.1389e-15
1.04149e-14
1.18575e-14
1.34865e-14
1.5324e-14
1.73944e-14
1.97246e-14
2.23443e-14
2.52861e-14
2.85858e-14
3.22827e-14
3.64198e-14
4.1044e-14
4.62067e-14
5.19638e-14
5.83759e-14
6.55091e-14
7.34347e-14
8.223e-14
9.19785e-14
1.0277e-13
1.14701e-13
1.27876e-13
1.42406e-13
1.58409e-13
1.76012e-13
1.95351e-13
2.16569e-13
2.39818e-13
2.65259e-13
2.93061e-13
3.23403e-13
3.56473e-13
3.92467e-13
4.31591e-13
4.74058e-13
5.20091e-13
5.6992e-13
6.23783e-13
6.81924e-13
7.44597e-13
8.12056e-13
8.84566e-13
9.62392e-13
1.0458e-12
1.13507e-12
1.23047e-12
1.33227e-12
1.44074e-12
1.55615e-12
1.67875e-12
1.80881e-12
1.94656e-12
2.09223e-12
2.24606e-12
2.40825e-12
2.57899e-12
2.75844e-12
2.94676e-12
3.14407e-12
3.35047e-12
3.56603e-12
3.79079e-12
4.02477e-12
4.26793e-12
4.52021e-12
4.7815e-12
5.05165e-12
5.33049e-12
5.61777e-12
5.9132e-12
6.21646e-12
6.52716e-12
6.84486e-12
7.16908e-12
7.49926e-12
7.83481e-12
8.17506e-12
8.51931e-12
8.86676e-12
9.2166e-12
9.56792e-12
9.91978e-12
1.02712e-11
1.0621e-11
1.09682e-11
1.13116e-11
1.165e-11
1.1982e-11
1.23065e-11
1.26219e-11
1.2927e-11
1.32203e-11
1.35004e-11
1.37659e-11
1.40151e-11
1.42468e-11
1.44594e-11
1.46515e-11
1.48216e-11
1.49684e-11
1.50905e-11
1.51868e-11
1.5256e-11
1.5297e-11
1.53088e-11
1.52907e-11
1.52418e-11
1.51617e-11
1.505e-11
1.49063e-11
1.47308e-11
1.45237e-11
1.42853e-11
1.40163e-11
1.37176e-11
1.33904e-11
1.30359e-11
1.26558e-11
1.22519e-11
1.18263e-11
1.13812e-11
1.0919e-11
1.04425e-11
9.95434e-12
9.45744e-12
8.95476e-12
8.44935e-12
7.94425e-12
7.4425e-12
6.9471e-12
6.46094e-12
5.98681e-12
5.52733e-12
5.08494e-12
4.66188e-12
4.26013e-12
3.88143e-12
3.52726e-12
3.19881e-12
2.89698e-12
2.62238e-12
2.37535e-12
2.15595e-12
1.96396e-12
1.79889e-12
1.66005e-12
1.54646e-12
1.45697e-12
1.3902e-12
1.34461e-12
1.31847e-12
1.30992e-12
1.31695e-12
1.33744e-12
1.36917e-12
1.40989e-12
1.45725e-12
1.50893e-12
1.56261e-12
1.61604e-12
1.66703e-12
1.71356e-12
1.75376e-12
1.78596e-12
1.80876e-12
1.82102e-12
1.82189e-12
1.81087e-12
1.78773e-12
1.75263e-12
1.70599e-12
1.64855e-12
1.5813e-12
1.50544e-12
1.42236e-12
1.33356e-12
1.24062e-12
1.14513e-12
1.04866e-12
9.52666e-13
8.58524e-13
7.67438e-13
6.80437e-13
5.98362e-13
5.21853e-13
4.51357e-13
3.87131e-13
3.29263e-13
2.77687e-13
2.32207e-13
1.92525e-13
1.58261e-13
1.28978e-13
1.04207e-13
8.34647e-14
6.62702e-14
5.21587e-14
4.06925e-14
3.14679e-14
2.41196e-14
1.83235e-14
1.37966e-14
1.02954e-14
7.61398e-15
5.58037e-15
4.05307e-15
2.91718e-15
2.08059e-15
1.47043e-15
1.02972e-15
7.145e-16
4.91226e-16
3.34617e-16
2.25838e-16
1.51022e-16
1.00076e-16
6.57399e-17
4.28529e-17
2.77961e-17
1.80705e-17
1.1988e-17
8.45e-18
6.79677e-18
2.44972e-16
2.48018e-16
2.57783e-16
2.74402e-16
2.98169e-16
3.29537e-16
3.69122e-16
4.17713e-16
4.76284e-16
5.46009e-16
6.2828e-16
7.24732e-16
8.37265e-16
9.6808e-16
1.11971e-15
1.29504e-15
1.4974e-15
1.73057e-15
1.99882e-15
2.30705e-15
2.66076e-15
3.06618e-15
3.53037e-15
4.06125e-15
4.66775e-15
5.35991e-15
6.14898e-15
7.04757e-15
8.0698e-15
9.23143e-15
1.055e-14
1.20452e-14
1.37388e-14
1.5655e-14
1.78205e-14
2.02653e-14
2.3022e-14
2.61271e-14
2.96205e-14
3.35461e-14
3.79525e-14
4.28925e-14
4.84242e-14
5.46111e-14
6.15224e-14
6.92334e-14
7.78263e-14
8.73898e-14
9.80203e-14
1.09822e-13
1.22907e-13
1.37397e-13
1.53421e-13
1.71119e-13
1.9064e-13
2.12143e-13
2.35797e-13
2.61784e-13
2.90294e-13
3.21528e-13
3.55702e-13
3.93038e-13
4.33772e-13
4.78152e-13
5.26435e-13
5.78888e-13
6.35789e-13
6.97427e-13
7.64098e-13
8.36107e-13
9.13766e-13
9.97393e-13
1.08731e-12
1.18385e-12
1.28734e-12
1.3981e-12
1.51648e-12
1.64279e-12
1.77735e-12
1.92049e-12
2.07251e-12
2.23371e-12
2.40435e-12
2.58472e-12
2.77505e-12
2.97556e-12
3.18647e-12
3.40793e-12
3.6401e-12
3.88308e-12
4.13695e-12
4.40175e-12
4.67748e-12
4.96409e-12
5.26149e-12
5.56954e-12
5.88806e-12
6.21681e-12
6.5555e-12
6.90378e-12
7.26125e-12
7.62745e-12
8.00186e-12
8.3839e-12
8.77293e-12
9.16826e-12
9.56912e-12
9.9747e-12
1.03841e-11
1.07964e-11
1.12106e-11
1.16256e-11
1.20404e-11
1.24536e-11
1.28643e-11
1.32709e-11
1.36723e-11
1.40671e-11
1.44538e-11
1.4831e-11
1.51972e-11
1.5551e-11
1.58907e-11
1.62149e-11
1.65219e-11
1.68103e-11
1.70784e-11
1.73247e-11
1.75477e-11
1.77458e-11
1.79177e-11
1.80619e-11
1.81771e-11
1.82621e-11
1.83157e-11
1.83367e-11
1.83244e-11
1.82779e-11
1.81966e-11
1.80799e-11
1.79277e-11
1.77397e-11
1.75161e-11
1.72573e-11
1.69637e-11
1.66361e-11
1.62756e-11
1.58835e-11
1.54613e-11
1.50108e-11
1.4534e-11
1.40331e-11
1.35107e-11
1.29693e-11
1.24119e-11
1.18415e-11
1.12612e-11
1.06743e-11
1.0084e-11
9.49379e-12
8.90693e-12
8.32673e-12
7.75639e-12
7.199e-12
6.6575e-12
6.13463e-12
5.6329e-12
5.15461e-12
4.70174e-12
4.27603e-12
3.87889e-12
3.51142e-12
3.17443e-12
2.86841e-12
2.59352e-12
2.34967e-12
2.13645e-12
1.95318e-12
1.79895e-12
1.67259e-12
1.57272e-12
1.49774e-12
1.44588e-12
1.41521e-12
1.40364e-12
1.40895e-12
1.42881e-12
1.46081e-12
1.50248e-12
1.5513e-12
1.60478e-12
1.66042e-12
1.71581e-12
1.76865e-12
1.81677e-12
1.85819e-12
1.89116e-12
1.91421e-12
1.92613e-12
1.92605e-12
1.91343e-12
1.88809e-12
1.85016e-12
1.80013e-12
1.73878e-12
1.66716e-12
1.58656e-12
1.49843e-12
1.40436e-12
1.30603e-12
1.20509e-12
1.1032e-12
1.0019e-12
9.02612e-13
8.06609e-13
7.14964e-13
6.28551e-13
5.48037e-13
4.73883e-13
4.06352e-13
3.45528e-13
2.91338e-13
2.43569e-13
2.01903e-13
1.65935e-13
1.35206e-13
1.09219e-13
8.74631e-14
6.94328e-14
5.46388e-14
4.26206e-14
3.29538e-14
2.52548e-14
1.91833e-14
1.4442e-14
1.07756e-14
7.96813e-15
5.83924e-15
4.24061e-15
3.05183e-15
2.17641e-15
1.53799e-15
1.07693e-15
7.47191e-16
5.13658e-16
3.49869e-16
2.36113e-16
1.57882e-16
1.04615e-16
6.87165e-17
4.47903e-17
2.9051e-17
1.88851e-17
1.25276e-17
8.82986e-18
7.10219e-18
4.43114e-16
4.48615e-16
4.66267e-16
4.96315e-16
5.3929e-16
5.9601e-16
6.6759e-16
7.55458e-16
8.61373e-16
9.87461e-16
1.13624e-15
1.31066e-15
1.51417e-15
1.75074e-15
2.02495e-15
2.34203e-15
2.70799e-15
3.12964e-15
3.61474e-15
4.1721e-15
4.81168e-15
5.54474e-15
6.384e-15
7.34377e-15
8.44015e-15
9.69125e-15
1.11173e-14
1.27411e-14
1.45881e-14
1.66865e-14
1.90681e-14
2.17679e-14
2.48252e-14
2.82834e-14
3.21906e-14
3.66e-14
4.15704e-14
4.71666e-14
5.346e-14
6.05289e-14
6.84594e-14
7.73456e-14
8.72904e-14
9.84062e-14
1.10815e-13
1.2465e-13
1.40056e-13
1.57187e-13
1.76214e-13
1.97317e-13
2.20692e-13
2.46549e-13
2.75113e-13
3.06624e-13
3.41338e-13
3.79526e-13
4.21478e-13
4.67499e-13
5.17911e-13
5.73052e-13
6.3328e-13
6.98965e-13
7.70496e-13
8.48277e-13
9.32724e-13
1.02427e-12
1.12336e-12
1.23044e-12
1.34599e-12
1.47047e-12
1.60436e-12
1.74814e-12
1.9023e-12
2.06731e-12
2.24364e-12
2.43177e-12
2.63214e-12
2.8452e-12
3.07136e-12
3.31103e-12
3.56457e-12
3.83233e-12
4.11461e-12
4.41167e-12
4.72374e-12
5.051e-12
5.39356e-12
5.7515e-12
6.12483e-12
6.51348e-12
6.91735e-12
7.33624e-12
7.76989e-12
8.21796e-12
8.68005e-12
9.15565e-12
9.6442e-12
1.0145e-11
1.06574e-11
1.11806e-11
1.17136e-11
1.22554e-11
1.2805e-11
1.33613e-11
1.39231e-11
1.4489e-11
1.50577e-11
1.56277e-11
1.61977e-11
1.67659e-11
1.73308e-11
1.78908e-11
1.84441e-11
1.89889e-11
1.95235e-11
2.0046e-11
2.05546e-11
2.10474e-11
2.15225e-11
2.19779e-11
2.24119e-11
2.28225e-11
2.32078e-11
2.35659e-11
2.38951e-11
2.41936e-11
2.44595e-11
2.46914e-11
2.48875e-11
2.50463e-11
2.51664e-11
2.52465e-11
2.52854e-11
2.52821e-11
2.52356e-11
2.51452e-11
2.50103e-11
2.48305e-11
2.46057e-11
2.43358e-11
2.40213e-11
2.36626e-11
2.32604e-11
2.28158e-11
2.23301e-11
2.18049e-11
2.1242e-11
2.06435e-11
2.00119e-11
1.93499e-11
1.86603e-11
1.79462e-11
1.72112e-11
1.64586e-11
1.56922e-11
1.4916e-11
1.41337e-11
1.33496e-11
1.25675e-11
1.17915e-11
1.10255e-11
1.02734e-11
9.53881e-12
8.82528e-12
8.13606e-12
7.47413e-12
6.8422e-12
6.24265e-12
5.67751e-12
5.14846e-12
4.65682e-12
4.20352e-12
3.78914e-12
3.41389e-12
3.07763e-12
2.77988e-12
2.51984e-12
2.29643e-12
2.10828e-12
1.95376e-12
1.83101e-12
1.73797e-12
1.67239e-12
1.63185e-12
1.61377e-12
1.61548e-12
1.63419e-12
1.66703e-12
1.71109e-12
1.76347e-12
1.82123e-12
1.88154e-12
1.94163e-12
1.99887e-12
2.05081e-12
2.09524e-12
2.13019e-12
2.154e-12
2.16536e-12
2.16331e-12
2.14728e-12
2.11707e-12
2.07288e-12
2.01527e-12
1.94513e-12
1.86367e-12
1.77233e-12
1.67276e-12
1.56673e-12
1.45611e-12
1.34276e-12
1.22851e-12
1.11507e-12
1.00402e-12
8.96757e-13
7.94464e-13
6.98098e-13
6.08386e-13
5.25824e-13
4.50692e-13
3.83068e-13
3.22856e-13
2.69813e-13
2.23571e-13
1.83676e-13
1.49608e-13
1.20811e-13
9.67147e-14
7.6753e-14
6.03809e-14
4.70859e-14
3.63961e-14
2.78854e-14
2.11759e-14
1.59382e-14
1.18891e-14
8.78953e-15
6.43977e-15
4.67576e-15
3.36432e-15
2.39879e-15
1.69483e-15
1.18655e-15
8.23108e-16
5.65757e-16
3.85297e-16
2.59985e-16
1.7382e-16
1.1516e-16
7.56341e-17
4.92933e-17
3.19679e-17
2.07789e-17
1.37823e-17
9.7132e-18
7.81217e-18
8.42053e-16
8.52499e-16
8.86035e-16
9.43125e-16
1.02478e-15
1.13255e-15
1.26856e-15
1.43553e-15
1.63679e-15
1.87639e-15
2.15911e-15
2.49059e-15
2.87734e-15
3.32693e-15
3.84806e-15
4.45068e-15
5.1462e-15
5.94756e-15
6.86953e-15
7.9288e-15
9.14432e-15
1.05375e-14
1.21324e-14
1.39562e-14
1.60395e-14
1.84167e-14
2.11261e-14
2.42108e-14
2.7719e-14
3.17043e-14
3.62267e-14
4.13526e-14
4.7156e-14
5.3719e-14
6.11322e-14
6.94961e-14
7.89213e-14
8.95298e-14
1.01456e-13
1.14846e-13
1.29862e-13
1.4668e-13
1.65492e-13
1.86508e-13
2.09956e-13
2.36083e-13
2.65155e-13
2.97463e-13
3.33318e-13
3.73054e-13
4.17031e-13
4.65634e-13
5.19272e-13
5.78384e-13
6.43434e-13
7.14913e-13
7.93342e-13
8.79268e-13
9.73266e-13
1.07594e-12
1.18791e-12
1.30984e-12
1.4424e-12
1.5863e-12
1.74224e-12
1.91097e-12
2.09324e-12
2.2898e-12
2.50144e-12
2.72891e-12
2.973e-12
3.23447e-12
3.51408e-12
3.81255e-12
4.13062e-12
4.46895e-12
4.8282e-12
5.20898e-12
5.61185e-12
6.03729e-12
6.48575e-12
6.95759e-12
7.45309e-12
7.97245e-12
8.51577e-12
9.08307e-12
9.67424e-12
1.02891e-11
1.09272e-11
1.15883e-11
1.22717e-11
1.29766e-11
1.37024e-11
1.4448e-11
1.52123e-11
1.5994e-11
1.67919e-11
1.76045e-11
1.843e-11
1.92668e-11
2.01131e-11
2.09667e-11
2.18256e-11
2.26877e-11
2.35507e-11
2.44121e-11
2.52695e-11
2.61205e-11
2.69624e-11
2.77925e-11
2.86083e-11
2.9407e-11
3.01859e-11
3.09423e-11
3.16734e-11
3.23766e-11
3.30491e-11
3.36883e-11
3.42915e-11
3.48562e-11
3.538e-11
3.58604e-11
3.6295e-11
3.66818e-11
3.70184e-11
3.7303e-11
3.75337e-11
3.77088e-11
3.78267e-11
3.7886e-11
3.78855e-11
3.78243e-11
3.77015e-11
3.75166e-11
3.72692e-11
3.69593e-11
3.65869e-11
3.61526e-11
3.5657e-11
3.51012e-11
3.44866e-11
3.38148e-11
3.30877e-11
3.23076e-11
3.14772e-11
3.05994e-11
2.96774e-11
2.87148e-11
2.77155e-11
2.66835e-11
2.56234e-11
2.45396e-11
2.3437e-11
2.23207e-11
2.11956e-11
2.00671e-11
1.89402e-11
1.78204e-11
1.67126e-11
1.56219e-11
1.45533e-11
1.35113e-11
1.25004e-11
1.15247e-11
1.05878e-11
9.69312e-12
8.8436e-12
8.04172e-12
7.28949e-12
6.58846e-12
5.93974e-12
5.34391e-12
4.80115e-12
4.31116e-12
3.87324e-12
3.48628e-12
3.14881e-12
2.85901e-12
2.61477e-12
2.41368e-12
2.2531e-12
2.13016e-12
2.04182e-12
1.98484e-12
1.95589e-12
1.95149e-12
1.9681e-12
2.00212e-12
2.04994e-12
2.10794e-12
2.17257e-12
2.24037e-12
2.308e-12
2.37233e-12
2.43044e-12
2.47971e-12
2.51783e-12
2.54286e-12
2.55329e-12
2.54803e-12
2.52644e-12
2.48833e-12
2.43397e-12
2.36406e-12
2.27968e-12
2.18225e-12
2.0735e-12
1.95537e-12
1.82995e-12
1.69941e-12
1.56593e-12
1.43163e-12
1.29851e-12
1.16839e-12
1.04288e-12
9.23322e-13
8.10822e-13
7.062e-13
6.1001e-13
5.22555e-13
4.43908e-13
3.73938e-13
3.12344e-13
2.58687e-13
2.12426e-13
1.72947e-13
1.39597e-13
1.11707e-13
8.86148e-14
6.96853e-14
5.43213e-14
4.19737e-14
3.21476e-14
2.44045e-14
1.83623e-14
1.36933e-14
1.01203e-14
7.41271e-15
5.38073e-15
3.87057e-15
2.75907e-15
1.94892e-15
1.36413e-15
9.46092e-16
6.50156e-16
4.42688e-16
2.98655e-16
1.99639e-16
1.32243e-16
8.68396e-17
5.65876e-17
3.66929e-17
2.38466e-17
1.58147e-17
1.1144e-17
8.9621e-18
1.60723e-15
1.62717e-15
1.69118e-15
1.80015e-15
1.95602e-15
2.16174e-15
2.42138e-15
2.74012e-15
3.12434e-15
3.58178e-15
4.12157e-15
4.75445e-15
5.4929e-15
6.35138e-15
7.34648e-15
8.49725e-15
9.82544e-15
1.13558e-14
1.31165e-14
1.51395e-14
1.74608e-14
2.01215e-14
2.31673e-14
2.66504e-14
3.06288e-14
3.51682e-14
4.03418e-14
4.62317e-14
5.29296e-14
6.05377e-14
6.917e-14
7.89532e-14
9.00277e-14
1.02549e-13
1.16691e-13
1.32642e-13
1.50613e-13
1.70835e-13
1.93561e-13
2.1907e-13
2.47666e-13
2.79681e-13
3.15478e-13
3.5545e-13
4.00025e-13
4.49667e-13
5.04875e-13
5.6619e-13
6.34191e-13
7.09502e-13
7.92788e-13
8.8476e-13
9.86178e-13
1.09784e-12
1.22061e-12
1.35537e-12
1.50308e-12
1.66472e-12
1.84134e-12
2.03402e-12
2.24387e-12
2.47205e-12
2.71977e-12
2.98825e-12
3.27873e-12
3.5925e-12
3.93083e-12
4.29501e-12
4.68634e-12
5.1061e-12
5.55554e-12
6.03589e-12
6.54835e-12
7.09404e-12
7.67405e-12
8.28937e-12
8.9409e-12
9.62946e-12
1.03557e-11
1.11203e-11
1.19235e-11
1.27658e-11
1.36471e-11
1.45674e-11
1.55264e-11
1.65238e-11
1.75587e-11
1.86305e-11
1.97378e-11
2.08795e-11
2.2054e-11
2.32595e-11
2.44939e-11
2.57551e-11
2.70406e-11
2.83477e-11
2.96735e-11
3.10149e-11
3.23687e-11
3.37312e-11
3.5099e-11
3.64682e-11
3.78349e-11
3.91951e-11
4.05445e-11
4.18791e-11
4.31944e-11
4.44862e-11
4.57501e-11
4.69817e-11
4.81767e-11
4.93309e-11
5.04399e-11
5.14997e-11
5.25061e-11
5.34551e-11
5.43431e-11
5.51662e-11
5.59211e-11
5.66043e-11
5.72127e-11
5.77434e-11
5.81938e-11
5.85612e-11
5.88435e-11
5.90387e-11
5.91452e-11
5.91615e-11
5.90865e-11
5.89193e-11
5.86596e-11
5.8307e-11
5.78618e-11
5.73245e-11
5.6696e-11
5.59774e-11
5.51704e-11
5.4277e-11
5.32995e-11
5.22407e-11
5.11039e-11
4.98925e-11
4.86106e-11
4.72624e-11
4.58527e-11
4.43867e-11
4.28697e-11
4.13076e-11
3.97064e-11
3.80726e-11
3.64127e-11
3.47336e-11
3.30422e-11
3.13456e-11
2.96509e-11
2.79652e-11
2.62955e-11
2.46488e-11
2.30317e-11
2.14508e-11
1.9912e-11
1.84212e-11
1.69836e-11
1.56041e-11
1.42869e-11
1.30358e-11
1.18538e-11
1.07435e-11
9.70661e-12
8.7445e-12
7.85773e-12
7.0463e-12
6.30964e-12
5.64662e-12
5.05558e-12
4.5344e-12
4.08051e-12
3.69097e-12
3.36247e-12
3.09142e-12
2.87396e-12
2.70598e-12
2.58322e-12
2.50127e-12
2.45557e-12
2.44151e-12
2.4544e-12
2.48956e-12
2.54231e-12
2.60804e-12
2.68224e-12
2.76055e-12
2.8388e-12
2.91312e-12
2.9799e-12
3.03593e-12
3.0784e-12
3.105e-12
3.11391e-12
3.10383e-12
3.07403e-12
3.02436e-12
2.95518e-12
2.86737e-12
2.7623e-12
2.64172e-12
2.50776e-12
2.36277e-12
2.2093e-12
2.04998e-12
1.88743e-12
1.7242e-12
1.56269e-12
1.40505e-12
1.25322e-12
1.10878e-12
9.73028e-13
8.46925e-13
7.31107e-13
6.2591e-13
5.31395e-13
4.47381e-13
3.73485e-13
3.09162e-13
2.53744e-13
2.06485e-13
1.66588e-13
1.33244e-13
1.05653e-13
8.30486e-14
6.47117e-14
4.99826e-14
3.82671e-14
2.90395e-14
2.18421e-14
1.62827e-14
1.20302e-14
8.80892e-15
6.39232e-15
4.59693e-15
3.27596e-15
2.31343e-15
1.61886e-15
1.1225e-15
7.71208e-16
5.24998e-16
3.54112e-16
2.36663e-16
1.5674e-16
1.02907e-16
6.70462e-17
4.34673e-17
2.82447e-17
1.87284e-17
1.31952e-17
1.06105e-17
3.04447e-15
3.08225e-15
3.20354e-15
3.41002e-15
3.70534e-15
4.09515e-15
4.58714e-15
5.19112e-15
5.91925e-15
6.78615e-15
7.80919e-15
9.00871e-15
1.04084e-14
1.20357e-14
1.39221e-14
1.61037e-14
1.86217e-14
2.15232e-14
2.48616e-14
2.86973e-14
3.3099e-14
3.81441e-14
4.39198e-14
5.05245e-14
5.80687e-14
6.66764e-14
7.64864e-14
8.76543e-14
1.00354e-13
1.14778e-13
1.31143e-13
1.49687e-13
1.70678e-13
1.94408e-13
2.21203e-13
2.51422e-13
2.85462e-13
3.23756e-13
3.66782e-13
4.15063e-13
4.6917e-13
5.29727e-13
5.97413e-13
6.72964e-13
7.57179e-13
8.50923e-13
9.55127e-13
1.07079e-12
1.199e-12
1.3409e-12
1.49772e-12
1.67077e-12
1.86145e-12
2.07122e-12
2.30165e-12
2.55437e-12
2.83109e-12
3.1336e-12
3.46378e-12
3.82355e-12
4.21492e-12
4.63993e-12
5.1007e-12
5.59937e-12
6.13809e-12
6.71907e-12
7.34449e-12
8.01653e-12
8.73733e-12
9.509e-12
1.03336e-11
1.1213e-11
1.21491e-11
1.31437e-11
1.41982e-11
1.5314e-11
1.64925e-11
1.77345e-11
1.90407e-11
2.04116e-11
2.18475e-11
2.3348e-11
2.49129e-11
2.65412e-11
2.82318e-11
2.99831e-11
3.17931e-11
3.36596e-11
3.55798e-11
3.75505e-11
3.95681e-11
4.16287e-11
4.3728e-11
4.58613e-11
4.80233e-11
5.02088e-11
5.2412e-11
5.46267e-11
5.68467e-11
5.90653e-11
6.12759e-11
6.34714e-11
6.56448e-11
6.77888e-11
6.98962e-11
7.19597e-11
7.39721e-11
7.59261e-11
7.78147e-11
7.96308e-11
8.13676e-11
8.30186e-11
8.45773e-11
8.60376e-11
8.73937e-11
8.86401e-11
8.97717e-11
9.07836e-11
9.16716e-11
9.24315e-11
9.30599e-11
9.35536e-11
9.39099e-11
9.41266e-11
9.42021e-11
9.41349e-11
9.39244e-11
9.35701e-11
9.30725e-11
9.2432e-11
9.16499e-11
9.07279e-11
8.96683e-11
8.84737e-11
8.71474e-11
8.5693e-11
8.41149e-11
8.24178e-11
8.06069e-11
7.86879e-11
7.66672e-11
7.45514e-11
7.23477e-11
7.00638e-11
6.77075e-11
6.52875e-11
6.28124e-11
6.02913e-11
5.77338e-11
5.51493e-11
5.25477e-11
4.99389e-11
4.73329e-11
4.47396e-11
4.21688e-11
3.96303e-11
3.71334e-11
3.46873e-11
3.23007e-11
2.99816e-11
2.77379e-11
2.55764e-11
2.35036e-11
2.15248e-11
1.9645e-11
1.78681e-11
1.61971e-11
1.46343e-11
1.3181e-11
1.18379e-11
1.06045e-11
9.47978e-12
8.46193e-12
7.54842e-12
6.73607e-12
6.02115e-12
5.39941e-12
4.86615e-12
4.4163e-12
4.04446e-12
3.74493e-12
3.51185e-12
3.33916e-12
3.22068e-12
3.15016e-12
3.1213e-12
3.12782e-12
3.16347e-12
3.22208e-12
3.29762e-12
3.38424e-12
3.47635e-12
3.56861e-12
3.65609e-12
3.73427e-12
3.79911e-12
3.84714e-12
3.87547e-12
3.88189e-12
3.86484e-12
3.82349e-12
3.75767e-12
3.66791e-12
3.55536e-12
3.42175e-12
3.26931e-12
3.1007e-12
2.91884e-12
2.72692e-12
2.52816e-12
2.32582e-12
2.12301e-12
1.92268e-12
1.72746e-12
1.53968e-12
1.36128e-12
1.19382e-12
1.03842e-12
8.95856e-13
7.66487e-13
6.50361e-13
5.47227e-13
4.56587e-13
3.7775e-13
3.09879e-13
2.52039e-13
2.03243e-13
1.62487e-13
1.28783e-13
1.01187e-13
7.88122e-14
6.08494e-14
4.6569e-14
3.53264e-14
2.65614e-14
1.97941e-14
1.46198e-14
1.07017e-14
7.76352e-15
5.5814e-15
3.97644e-15
2.80736e-15
1.964e-15
1.36148e-15
9.35187e-16
6.36487e-16
4.29221e-16
2.86804e-16
1.89911e-16
1.24663e-16
8.12069e-17
5.26391e-17
3.41987e-17
2.26726e-17
1.59716e-17
1.28418e-17
5.70603e-15
5.7769e-15
6.00435e-15
6.39151e-15
6.94529e-15
7.67627e-15
8.59887e-15
9.73158e-15
1.10972e-14
1.27231e-14
1.46421e-14
1.68922e-14
1.95181e-14
2.25711e-14
2.61104e-14
3.0204e-14
3.49292e-14
4.03743e-14
4.66397e-14
5.3839e-14
6.2101e-14
7.15711e-14
8.24131e-14
9.48117e-14
1.08974e-13
1.25134e-13
1.4355e-13
1.64516e-13
1.88356e-13
2.15433e-13
2.46152e-13
2.80961e-13
3.20356e-13
3.6489e-13
4.1517e-13
4.71868e-13
5.35722e-13
6.07545e-13
6.88227e-13
7.78742e-13
8.80154e-13
9.93623e-13
1.12041e-12
1.26188e-12
1.41951e-12
1.59491e-12
1.78979e-12
2.00601e-12
2.24554e-12
2.5105e-12
2.80315e-12
3.12588e-12
3.48123e-12
3.87188e-12
4.30065e-12
4.7705e-12
5.28451e-12
5.84589e-12
6.45799e-12
7.12424e-12
7.84816e-12
8.63338e-12
9.48357e-12
1.04024e-11
1.13937e-11
1.24612e-11
1.36085e-11
1.48392e-11
1.6157e-11
1.75652e-11
1.9067e-11
2.06656e-11
2.23636e-11
2.41636e-11
2.60677e-11
2.80777e-11
3.01951e-11
3.24207e-11
3.47549e-11
3.71977e-11
3.97483e-11
4.24055e-11
4.51674e-11
4.80313e-11
5.0994e-11
5.40515e-11
5.71992e-11
6.04316e-11
6.37426e-11
6.71254e-11
7.05724e-11
7.40756e-11
7.76261e-11
8.12144e-11
8.48306e-11
8.84641e-11
9.2104e-11
9.57388e-11
9.93569e-11
1.02946e-10
1.06494e-10
1.09989e-10
1.13419e-10
1.16769e-10
1.2003e-10
1.23188e-10
1.26231e-10
1.29148e-10
1.31928e-10
1.34559e-10
1.37032e-10
1.39336e-10
1.41463e-10
1.43404e-10
1.45151e-10
1.46697e-10
1.48036e-10
1.49162e-10
1.5007e-10
1.50757e-10
1.51219e-10
1.51453e-10
1.51459e-10
1.51236e-10
1.50783e-10
1.50102e-10
1.49194e-10
1.48062e-10
1.46709e-10
1.4514e-10
1.43358e-10
1.41369e-10
1.3918e-10
1.36797e-10
1.34229e-10
1.31483e-10
1.28567e-10
1.25493e-10
1.22269e-10
1.18906e-10
1.15415e-10
1.11809e-10
1.08099e-10
1.04299e-10
1.0042e-10
9.64763e-11
9.24818e-11
8.84502e-11
8.43957e-11
8.03324e-11
7.62744e-11
7.2236e-11
6.82312e-11
6.42736e-11
6.03766e-11
5.65533e-11
5.28161e-11
4.91767e-11
4.56462e-11
4.22347e-11
3.89517e-11
3.58053e-11
3.28028e-11
2.99505e-11
2.72531e-11
2.47146e-11
2.23376e-11
2.01235e-11
1.80725e-11
1.61838e-11
1.44554e-11
1.28844e-11
1.14668e-11
1.01979e-11
9.07206e-12
8.08316e-12
7.22433e-12
6.48826e-12
5.86721e-12
5.35312e-12
4.93769e-12
4.61242e-12
4.36871e-12
4.19788e-12
4.09126e-12
4.0402e-12
4.03617e-12
4.07075e-12
4.13571e-12
4.22308e-12
4.32518e-12
4.43468e-12
4.54472e-12
4.64893e-12
4.74152e-12
4.81737e-12
4.87209e-12
4.90208e-12
4.90457e-12
4.87767e-12
4.82038e-12
4.73257e-12
4.61497e-12
4.4691e-12
4.29718e-12
4.10207e-12
3.88712e-12
3.65606e-12
3.41285e-12
3.16159e-12
2.9063e-12
2.65089e-12
2.39899e-12
2.15389e-12
1.91844e-12
1.69503e-12
1.48555e-12
1.29138e-12
1.1134e-12
9.52061e-13
8.07361e-13
6.78956e-13
5.66195e-13
4.68191e-13
3.83879e-13
3.12077e-13
2.5154e-13
2.01009e-13
1.59246e-13
1.25069e-13
9.73749e-14
7.51522e-14
5.74937e-14
4.3598e-14
3.27694e-14
2.44123e-14
1.80251e-14
1.31903e-14
9.56608e-15
6.87538e-15
4.89701e-15
3.45639e-15
2.41746e-15
1.67544e-15
1.15058e-15
7.82917e-16
5.27861e-16
3.52646e-16
2.33466e-16
1.53227e-16
9.97966e-17
6.46785e-17
4.20137e-17
2.78492e-17
1.96153e-17
1.57698e-17
1.05738e-14
1.07053e-14
1.11272e-14
1.18451e-14
1.28721e-14
1.42276e-14
1.59387e-14
1.80395e-14
2.05724e-14
2.35884e-14
2.71482e-14
3.13228e-14
3.61949e-14
4.18601e-14
4.84283e-14
5.60257e-14
6.47962e-14
7.49039e-14
8.65351e-14
9.99014e-14
1.15242e-13
1.32826e-13
1.5296e-13
1.75986e-13
2.02288e-13
2.32301e-13
2.66507e-13
3.05448e-13
3.49729e-13
4.00023e-13
4.57079e-13
5.21729e-13
5.94896e-13
6.776e-13
7.70968e-13
8.76244e-13
9.94794e-13
1.12812e-12
1.27786e-12
1.44583e-12
1.63397e-12
1.84444e-12
2.07954e-12
2.34179e-12
2.63391e-12
2.95883e-12
3.3197e-12
3.71991e-12
4.16306e-12
4.65301e-12
5.19387e-12
5.78997e-12
6.4459e-12
7.1665e-12
7.95684e-12
8.82222e-12
9.76815e-12
1.08004e-11
1.19247e-11
1.31474e-11
1.44744e-11
1.59122e-11
1.74671e-11
1.91455e-11
2.09537e-11
2.28981e-11
2.49848e-11
2.72199e-11
2.9609e-11
3.21576e-11
3.48707e-11
3.77529e-11
4.08083e-11
4.40404e-11
4.74518e-11
5.10445e-11
5.48198e-11
5.87779e-11
6.29181e-11
6.72386e-11
7.17365e-11
7.64078e-11
8.12474e-11
8.62488e-11
9.14042e-11
9.67048e-11
1.0214e-10
1.07699e-10
1.13369e-10
1.19136e-10
1.24984e-10
1.30898e-10
1.3686e-10
1.42853e-10
1.48857e-10
1.54852e-10
1.60819e-10
1.66737e-10
1.72584e-10
1.7834e-10
1.83982e-10
1.89489e-10
1.94841e-10
2.00016e-10
2.04995e-10
2.09756e-10
2.14282e-10
2.18555e-10
2.22556e-10
2.26271e-10
2.29684e-10
2.32781e-10
2.3555e-10
2.37981e-10
2.40063e-10
2.41788e-10
2.4315e-10
2.44144e-10
2.44766e-10
2.45014e-10
2.44886e-10
2.44384e-10
2.4351e-10
2.42267e-10
2.4066e-10
2.38696e-10
2.3638e-10
2.33722e-10
2.30731e-10
2.27419e-10
2.23796e-10
2.19875e-10
2.1567e-10
2.11195e-10
2.06465e-10
2.01496e-10
1.96305e-10
1.9091e-10
1.85328e-10
1.79577e-10
1.73676e-10
1.67646e-10
1.61505e-10
1.55274e-10
1.48974e-10
1.42623e-10
1.36245e-10
1.29858e-10
1.23483e-10
1.17141e-10
1.10853e-10
1.04637e-10
9.85122e-11
9.24982e-11
8.66122e-11
8.08713e-11
7.52913e-11
6.98871e-11
6.46722e-11
5.96589e-11
5.48581e-11
5.0279e-11
4.59294e-11
4.18156e-11
3.7942e-11
3.43114e-11
3.09252e-11
2.77829e-11
2.48827e-11
2.2221e-11
1.97931e-11
1.75929e-11
1.56131e-11
1.38454e-11
1.22805e-11
1.09084e-11
9.71842e-12
8.69931e-12
7.83945e-12
7.12692e-12
6.5496e-12
6.09529e-12
5.75173e-12
5.50674e-12
5.34826e-12
5.26438e-12
5.24343e-12
5.27405e-12
5.34518e-12
5.44621e-12
5.56697e-12
5.69785e-12
5.82989e-12
5.95481e-12
6.06517e-12
6.15439e-12
6.21688e-12
6.24807e-12
6.24451e-12
6.20385e-12
6.1249e-12
6.00758e-12
5.85287e-12
5.66279e-12
5.44023e-12
5.18884e-12
4.91292e-12
4.61721e-12
4.30674e-12
3.98667e-12
3.66209e-12
3.33789e-12
3.01863e-12
2.70841e-12
2.41078e-12
2.12869e-12
1.86447e-12
1.61981e-12
1.39577e-12
1.19284e-12
1.011e-12
8.49764e-13
7.08277e-13
5.85392e-13
4.79747e-13
3.89834e-13
3.14075e-13
2.50873e-13
1.98668e-13
1.55969e-13
1.21385e-13
9.36484e-14
7.16182e-14
5.42902e-14
4.07924e-14
3.03796e-14
2.24242e-14
1.64047e-14
1.18939e-14
8.54616e-15
6.08546e-15
4.29416e-15
3.00271e-15
2.08058e-15
1.4285e-15
9.71826e-16
6.55099e-16
4.37568e-16
2.89637e-16
1.90061e-16
1.23766e-16
8.02007e-17
5.20885e-17
3.4522e-17
2.43117e-17
1.95436e-17
1.93705e-14
1.96119e-14
2.03854e-14
2.1702e-14
2.3585e-14
2.60708e-14
2.92085e-14
3.30612e-14
3.77068e-14
4.3239e-14
4.97693e-14
5.74281e-14
6.63675e-14
7.67632e-14
8.88174e-14
1.02762e-13
1.18862e-13
1.37418e-13
1.58773e-13
1.83317e-13
2.11489e-13
2.43785e-13
2.80767e-13
3.23063e-13
3.71384e-13
4.26524e-13
4.89372e-13
5.60924e-13
6.4229e-13
7.34708e-13
8.39554e-13
9.58355e-13
1.0928e-12
1.24478e-12
1.41634e-12
1.60976e-12
1.82756e-12
2.07248e-12
2.34752e-12
2.65599e-12
3.00146e-12
3.38783e-12
3.81934e-12
4.30056e-12
4.83644e-12
5.43231e-12
6.09388e-12
6.82727e-12
7.63904e-12
8.53612e-12
9.52593e-12
1.06162e-11
1.18153e-11
1.31318e-11
1.45747e-11
1.61535e-11
1.7878e-11
1.97581e-11
2.18044e-11
2.40274e-11
2.64379e-11
2.90467e-11
3.18649e-11
3.49033e-11
3.81727e-11
4.16836e-11
4.54461e-11
4.94701e-11
5.37648e-11
5.83385e-11
6.31991e-11
6.83531e-11
7.38062e-11
7.95628e-11
8.56258e-11
9.19969e-11
9.86757e-11
1.05661e-10
1.12948e-10
1.20531e-10
1.28403e-10
1.36554e-10
1.44972e-10
1.53642e-10
1.62547e-10
1.7167e-10
1.80988e-10
1.9048e-10
2.00118e-10
2.09877e-10
2.19726e-10
2.29636e-10
2.39573e-10
2.49504e-10
2.59395e-10
2.69208e-10
2.78909e-10
2.88458e-10
2.97821e-10
3.06959e-10
3.15836e-10
3.24416e-10
3.32664e-10
3.40546e-10
3.48028e-10
3.5508e-10
3.61673e-10
3.67779e-10
3.73374e-10
3.78434e-10
3.82939e-10
3.86872e-10
3.90217e-10
3.92961e-10
3.95096e-10
3.96613e-10
3.9751e-10
3.97783e-10
3.97434e-10
3.96467e-10
3.94887e-10
3.92703e-10
3.89926e-10
3.86567e-10
3.82643e-10
3.78169e-10
3.73165e-10
3.67649e-10
3.61644e-10
3.55173e-10
3.4826e-10
3.4093e-10
3.3321e-10
3.25127e-10
3.16709e-10
3.07985e-10
2.98984e-10
2.89735e-10
2.8027e-10
2.70619e-10
2.60813e-10
2.50883e-10
2.40859e-10
2.30773e-10
2.20655e-10
2.10536e-10
2.00447e-10
1.90416e-10
1.80474e-10
1.70649e-10
1.60967e-10
1.51457e-10
1.42143e-10
1.3305e-10
1.242e-10
1.15615e-10
1.07315e-10
9.93171e-11
9.16373e-11
8.42896e-11
7.72858e-11
7.06354e-11
6.43456e-11
5.84214e-11
5.28656e-11
4.76787e-11
4.28588e-11
3.84021e-11
3.43027e-11
3.05528e-11
2.71426e-11
2.40612e-11
2.12958e-11
1.88326e-11
1.66566e-11
1.47521e-11
1.31026e-11
1.16912e-11
1.05005e-11
9.51298e-12
8.71115e-12
8.07746e-12
7.59455e-12
7.24532e-12
7.01299e-12
6.88114e-12
6.83383e-12
6.85564e-12
6.93171e-12
7.04784e-12
7.19054e-12
7.34716e-12
7.50591e-12
7.65605e-12
7.7879e-12
7.89299e-12
7.96416e-12
7.99561e-12
7.98295e-12
7.92328e-12
7.81515e-12
7.65855e-12
7.45485e-12
7.20667e-12
6.91777e-12
6.59287e-12
6.23748e-12
5.85766e-12
5.45981e-12
5.05046e-12
4.63608e-12
4.22283e-12
3.81645e-12
3.42207e-12
3.04414e-12
2.68634e-12
2.35155e-12
2.04182e-12
1.75845e-12
1.502e-12
1.27237e-12
1.06892e-12
8.90514e-13
7.35669e-13
6.0263e-13
4.89473e-13
3.94184e-13
3.14734e-13
2.49141e-13
1.95519e-13
1.52111e-13
1.17311e-13
8.9684e-14
6.79626e-14
5.10494e-14
3.80069e-14
2.8046e-14
2.05117e-14
1.48676e-14
1.06801e-14
7.6031e-15
5.36381e-15
3.74982e-15
2.59769e-15
1.78318e-15
1.21288e-15
8.17441e-16
5.45906e-16
3.61288e-16
2.3704e-16
1.54335e-16
9.99942e-17
6.49344e-17
4.30294e-17
3.02988e-17
2.43541e-17
3.50795e-14
3.55176e-14
3.69204e-14
3.93075e-14
4.27217e-14
4.72289e-14
5.29185e-14
5.99052e-14
6.83304e-14
7.83648e-14
9.02106e-14
1.04105e-13
1.20325e-13
1.3919e-13
1.61068e-13
1.8638e-13
2.15607e-13
2.49299e-13
2.88079e-13
3.32654e-13
3.83824e-13
4.42494e-13
5.09682e-13
5.86536e-13
6.74346e-13
7.74556e-13
8.88786e-13
1.01885e-12
1.16676e-12
1.33477e-12
1.52538e-12
1.74138e-12
1.98583e-12
2.26213e-12
2.57405e-12
2.92572e-12
3.32168e-12
3.76692e-12
4.26689e-12
4.82755e-12
5.45538e-12
6.15745e-12
6.94139e-12
7.81547e-12
8.78861e-12
9.87039e-12
1.10711e-11
1.24018e-11
1.38741e-11
1.55005e-11
1.72942e-11
1.92692e-11
2.144e-11
2.38221e-11
2.64314e-11
2.92845e-11
3.23986e-11
3.57915e-11
3.94811e-11
4.34859e-11
4.78245e-11
5.25155e-11
5.75777e-11
6.30294e-11
6.88886e-11
7.51727e-11
8.18985e-11
8.90815e-11
9.67362e-11
1.04876e-10
1.13511e-10
1.22652e-10
1.32305e-10
1.42476e-10
1.53166e-10
1.64375e-10
1.76098e-10
1.88329e-10
2.01057e-10
2.14268e-10
2.27942e-10
2.42059e-10
2.56593e-10
2.71512e-10
2.86785e-10
3.02371e-10
3.18231e-10
3.34319e-10
3.50586e-10
3.66981e-10
3.83448e-10
3.9993e-10
4.16368e-10
4.327e-10
4.48863e-10
4.64794e-10
4.80427e-10
4.95699e-10
5.10546e-10
5.24905e-10
5.38714e-10
5.51914e-10
5.64448e-10
5.76261e-10
5.87302e-10
5.97525e-10
6.06884e-10
6.15341e-10
6.22861e-10
6.29414e-10
6.34974e-10
6.3952e-10
6.43038e-10
6.45517e-10
6.46951e-10
6.47339e-10
6.46686e-10
6.44999e-10
6.42293e-10
6.38583e-10
6.33893e-10
6.28245e-10
6.2167e-10
6.14198e-10
6.05864e-10
5.96705e-10
5.86761e-10
5.76073e-10
5.64685e-10
5.52641e-10
5.39987e-10
5.26772e-10
5.13042e-10
4.98847e-10
4.84237e-10
4.69259e-10
4.53964e-10
4.38402e-10
4.22622e-10
4.06672e-10
3.90601e-10
3.74457e-10
3.58286e-10
3.42137e-10
3.26053e-10
3.10078e-10