/*--------------------------------*- C++ -*----------------------------------*\
| =========                 |                                                 |
| \\      /  F ield         | OpenFOAM: The Open Source CFD Toolbox           |
|  \\    /   O peration     | Version:  v2012                                 |
|   \\  /    A nd           | Website:  www.openfoam.com                      |
|    \\/     M anipulation  |                                                 |
\*---------------------------------------------------------------------------*/
FoamFile
{
    version     2.0;
    format      ascii;
    class       volScalarField;
    location    "15";
    object      p;
}
// * * * * * * * * * * * * * * * * * * * * * * * * * * * * * * * * * * * * * //

dimensions      [0 2 -2 0 0 0 0];


internalField   nonuniform List<scalar> 
65536
(
6.36907e-10
-1.24735e-06
-3.75971e-06
-7.55246e-06
-1.26285e-05
-1.8986e-05
-2.66258e-05
-3.55501e-05
-4.57615e-05
-5.72634e-05
-7.00596e-05
-8.41544e-05
-9.95526e-05
-0.000116259
-0.00013428
-0.000153621
-0.000174289
-0.00019629
-0.000219631
-0.000244319
-0.000270363
-0.00029777
-0.000326548
-0.000356705
-0.000388251
-0.000421193
-0.000455541
-0.000491302
-0.000528487
-0.000567105
-0.000607163
-0.000648672
-0.000691638
-0.000736073
-0.000781982
-0.000829375
-0.00087826
-0.000928643
-0.000980531
-0.00103393
-0.00108885
-0.00114529
-0.00120326
-0.00126276
-0.0013238
-0.00138637
-0.00145047
-0.00151611
-0.00158329
-0.001652
-0.00172224
-0.001794
-0.00186728
-0.00194206
-0.00201833
-0.00209609
-0.00217532
-0.002256
-0.00233811
-0.00242163
-0.00250654
-0.00259282
-0.00268042
-0.00276933
-0.00285951
-0.00295092
-0.00304352
-0.00313726
-0.00323211
-0.00332802
-0.00342492
-0.00352277
-0.0036215
-0.00372106
-0.00382138
-0.00392238
-0.004024
-0.00412616
-0.00422878
-0.00433178
-0.00443507
-0.00453855
-0.00464215
-0.00474576
-0.00484928
-0.00495261
-0.00505565
-0.00515829
-0.00526042
-0.00536192
-0.00546269
-0.00556261
-0.00566155
-0.0057594
-0.00585604
-0.00595135
-0.0060452
-0.00613747
-0.00622805
-0.0063168
-0.00640361
-0.00648836
-0.00657093
-0.00665119
-0.00672904
-0.00680435
-0.00687703
-0.00694696
-0.00701403
-0.00707816
-0.00713923
-0.00719715
-0.00725185
-0.00730323
-0.00735122
-0.00739574
-0.00743673
-0.00747412
-0.00750786
-0.00753791
-0.00756422
-0.00758674
-0.00760546
-0.00762036
-0.0076314
-0.00763859
-0.00764192
-0.0076414
-0.00763704
-0.00762884
-0.00761685
-0.00760109
-0.0075816
-0.00755841
-0.00753158
-0.00750116
-0.00746722
-0.00742981
-0.00738902
-0.0073449
-0.00729756
-0.00724706
-0.00719349
-0.00713696
-0.00707754
-0.00701535
-0.00695048
-0.00688304
-0.00681313
-0.00674085
-0.00666632
-0.00658965
-0.00651094
-0.00643032
-0.00634788
-0.00626375
-0.00617803
-0.00609083
-0.00600227
-0.00591246
-0.0058215
-0.0057295
-0.00563657
-0.00554281
-0.00544832
-0.00535321
-0.00525757
-0.0051615
-0.00506509
-0.00496844
-0.00487163
-0.00477475
-0.00467788
-0.0045811
-0.0044845
-0.00438814
-0.0042921
-0.00419646
-0.00410126
-0.00400659
-0.00391251
-0.00381906
-0.00372631
-0.00363431
-0.00354311
-0.00345275
-0.00336329
-0.00327477
-0.00318723
-0.0031007
-0.00301522
-0.00293082
-0.00284754
-0.0027654
-0.00268443
-0.00260466
-0.0025261
-0.00244879
-0.00237273
-0.00229795
-0.00222446
-0.00215227
-0.00208141
-0.00201187
-0.00194367
-0.00187683
-0.00181134
-0.00174721
-0.00168445
-0.00162306
-0.00156304
-0.00150441
-0.00144715
-0.00139127
-0.00133678
-0.00128366
-0.00123192
-0.00118156
-0.00113257
-0.00108495
-0.0010387
-0.000993809
-0.000950282
-0.00090811
-0.00086729
-0.000827816
-0.000789683
-0.000752887
-0.000717422
-0.000683283
-0.000650464
-0.000618961
-0.000588768
-0.00055988
-0.000532292
-0.000505997
-0.000480992
-0.000457271
-0.000434829
-0.000413662
-0.000393764
-0.000375132
-0.000357762
-0.00034165
-0.000326792
-0.000313184
-0.000300824
-0.000289709
-0.000279836
-0.000271202
-0.000263805
-0.000257644
-0.000252717
-0.000249023
-0.00024656
-0.00024533
-2.54328e-06
-3.79541e-06
-6.31614e-06
-1.01145e-05
-1.51929e-05
-2.15517e-05
-2.91925e-05
-3.81174e-05
-4.83294e-05
-5.98317e-05
-7.26283e-05
-8.67236e-05
-0.000102122
-0.000118829
-0.000136851
-0.000156192
-0.00017686
-0.000198862
-0.000222203
-0.000246892
-0.000272936
-0.000300344
-0.000329122
-0.00035928
-0.000390826
-0.000423769
-0.000458117
-0.00049388
-0.000531065
-0.000569684
-0.000609743
-0.000651252
-0.00069422
-0.000738654
-0.000784565
-0.000831959
-0.000880845
-0.000931229
-0.000983119
-0.00103652
-0.00109144
-0.00114788
-0.00120585
-0.00126536
-0.00132639
-0.00138896
-0.00145307
-0.00151872
-0.0015859
-0.00165461
-0.00172485
-0.00179662
-0.0018699
-0.00194468
-0.00202096
-0.00209873
-0.00217796
-0.00225864
-0.00234076
-0.00242429
-0.00250921
-0.00259549
-0.0026831
-0.00277202
-0.0028622
-0.00295362
-0.00304623
-0.00313999
-0.00323485
-0.00333077
-0.00342768
-0.00352554
-0.00362429
-0.00372387
-0.0038242
-0.00392522
-0.00402686
-0.00412903
-0.00423167
-0.00433469
-0.004438
-0.00454151
-0.00464512
-0.00474875
-0.0048523
-0.00495566
-0.00505872
-0.00516138
-0.00526354
-0.00536507
-0.00546586
-0.0055658
-0.00566477
-0.00576265
-0.00585931
-0.00595465
-0.00604853
-0.00614083
-0.00623144
-0.00632022
-0.00640706
-0.00649183
-0.00657442
-0.00665471
-0.00673259
-0.00680793
-0.00688063
-0.00695059
-0.00701768
-0.00708183
-0.00714292
-0.00720087
-0.00725558
-0.00730698
-0.00735498
-0.00739952
-0.00744052
-0.00747793
-0.00751169
-0.00754174
-0.00756805
-0.00759059
-0.00760931
-0.00762421
-0.00763525
-0.00764244
-0.00764577
-0.00764525
-0.00764088
-0.00763268
-0.00762068
-0.00760491
-0.0075854
-0.0075622
-0.00753536
-0.00750493
-0.00747097
-0.00743354
-0.00739273
-0.00734859
-0.00730122
-0.0072507
-0.00719711
-0.00714055
-0.00708112
-0.0070189
-0.006954
-0.00688653
-0.00681659
-0.00674429
-0.00666973
-0.00659303
-0.0065143
-0.00643364
-0.00635117
-0.00626701
-0.00618126
-0.00609404
-0.00600545
-0.00591561
-0.00582462
-0.00573259
-0.00563964
-0.00554585
-0.00545134
-0.0053562
-0.00526054
-0.00516444
-0.00506801
-0.00497133
-0.0048745
-0.00477759
-0.0046807
-0.0045839
-0.00448728
-0.0043909
-0.00429484
-0.00419918
-0.00410397
-0.00400928
-0.00391517
-0.00382171
-0.00372894
-0.00363693
-0.00354571
-0.00345534
-0.00336587
-0.00327734
-0.00318978
-0.00310324
-0.00301774
-0.00293334
-0.00285004
-0.00276789
-0.00268692
-0.00260713
-0.00252857
-0.00245124
-0.00237518
-0.00230039
-0.00222689
-0.0021547
-0.00208383
-0.00201428
-0.00194608
-0.00187923
-0.00181373
-0.0017496
-0.00168683
-0.00162544
-0.00156542
-0.00150678
-0.00144952
-0.00139364
-0.00133914
-0.00128601
-0.00123427
-0.0011839
-0.00113491
-0.00108729
-0.00104104
-0.000996146
-0.000952616
-0.000910442
-0.000869619
-0.000830143
-0.000792008
-0.00075521
-0.000719743
-0.000685602
-0.000652782
-0.000621277
-0.000591083
-0.000562193
-0.000534603
-0.000508307
-0.000483301
-0.000459579
-0.000437136
-0.000415967
-0.000396069
-0.000377436
-0.000360065
-0.000343952
-0.000329093
-0.000315485
-0.000303125
-0.000292009
-0.000282135
-0.000273501
-0.000266104
-0.000259943
-0.000255015
-0.000251321
-0.000248858
-0.000247628
-7.65076e-06
-8.9111e-06
-1.14419e-05
-1.52467e-05
-2.03286e-05
-2.66897e-05
-3.43321e-05
-4.32582e-05
-5.34712e-05
-6.49744e-05
-7.77719e-05
-9.18679e-05
-0.000107267
-0.000123975
-0.000141998
-0.00016134
-0.000182009
-0.000204011
-0.000227354
-0.000252044
-0.000278089
-0.000305497
-0.000334277
-0.000364436
-0.000395983
-0.000428927
-0.000463277
-0.00049904
-0.000536228
-0.000574847
-0.000614908
-0.000656419
-0.000699388
-0.000743825
-0.000789738
-0.000837134
-0.000886021
-0.000936408
-0.000988301
-0.00104171
-0.00109663
-0.00115307
-0.00121105
-0.00127055
-0.00133159
-0.00139417
-0.00145828
-0.00152393
-0.00159112
-0.00165984
-0.00173009
-0.00180186
-0.00187514
-0.00194994
-0.00202623
-0.002104
-0.00218324
-0.00226394
-0.00234607
-0.00242961
-0.00251454
-0.00260084
-0.00268847
-0.0027774
-0.00286761
-0.00295904
-0.00305167
-0.00314545
-0.00324034
-0.00333627
-0.00343322
-0.00353111
-0.00362988
-0.00372949
-0.00382985
-0.0039309
-0.00403258
-0.00413479
-0.00423746
-0.00434052
-0.00444387
-0.00454742
-0.00465108
-0.00475476
-0.00485835
-0.00496175
-0.00506486
-0.00516757
-0.00526978
-0.00537136
-0.00547221
-0.0055722
-0.00567122
-0.00576916
-0.00586588
-0.00596127
-0.00605521
-0.00614757
-0.00623823
-0.00632706
-0.00641396
-0.00649879
-0.00658143
-0.00666178
-0.0067397
-0.0068151
-0.00688785
-0.00695785
-0.007025
-0.00708919
-0.00715032
-0.00720831
-0.00726306
-0.0073145
-0.00736253
-0.0074071
-0.00744813
-0.00748556
-0.00751934
-0.00754942
-0.00757575
-0.00759829
-0.00761703
-0.00763193
-0.00764298
-0.00765017
-0.00765349
-0.00765296
-0.00764858
-0.00764037
-0.00762835
-0.00761256
-0.00759303
-0.0075698
-0.00754293
-0.00751247
-0.00747847
-0.00744101
-0.00740016
-0.00735599
-0.00730857
-0.007258
-0.00720437
-0.00714776
-0.00708827
-0.007026
-0.00696105
-0.00689353
-0.00682353
-0.00675117
-0.00667656
-0.0065998
-0.00652101
-0.0064403
-0.00635778
-0.00627355
-0.00618775
-0.00610047
-0.00601182
-0.00592192
-0.00583088
-0.0057388
-0.00564579
-0.00555194
-0.00545738
-0.00536219
-0.00526647
-0.00517033
-0.00507385
-0.00497712
-0.00488024
-0.00478329
-0.00468636
-0.00458951
-0.00449285
-0.00439643
-0.00430033
-0.00420463
-0.00410938
-0.00401466
-0.00392052
-0.00382702
-0.00373422
-0.00364217
-0.00355093
-0.00346053
-0.00337103
-0.00328247
-0.00319489
-0.00310832
-0.0030228
-0.00293837
-0.00285506
-0.00277289
-0.00269189
-0.00261209
-0.00253351
-0.00245617
-0.00238008
-0.00230528
-0.00223177
-0.00215956
-0.00208867
-0.00201912
-0.0019509
-0.00188404
-0.00181853
-0.00175438
-0.00169161
-0.0016302
-0.00157018
-0.00151153
-0.00145426
-0.00139837
-0.00134386
-0.00129073
-0.00123898
-0.00118861
-0.00113961
-0.00109198
-0.00104572
-0.00100083
-0.00095729
-0.000915111
-0.000874283
-0.000834802
-0.000796663
-0.000759861
-0.00072439
-0.000690245
-0.000657422
-0.000625914
-0.000595717
-0.000566824
-0.000539231
-0.000512933
-0.000487924
-0.000464199
-0.000441754
-0.000420584
-0.000400683
-0.000382049
-0.000364677
-0.000348562
-0.000333702
-0.000320093
-0.000307731
-0.000296614
-0.00028674
-0.000278105
-0.000270707
-0.000264545
-0.000259617
-0.000255922
-0.000253459
-0.000252229
-1.53333e-05
-1.65991e-05
-1.91363e-05
-2.29459e-05
-2.80313e-05
-3.43949e-05
-4.20392e-05
-5.0967e-05
-6.11814e-05
-7.26859e-05
-8.54846e-05
-9.95819e-05
-0.000114983
-0.000131692
-0.000149715
-0.000169059
-0.000189729
-0.000211733
-0.000235077
-0.000259769
-0.000285815
-0.000313225
-0.000342007
-0.000372168
-0.000403717
-0.000436663
-0.000471014
-0.00050678
-0.00054397
-0.000582592
-0.000622655
-0.000664168
-0.00070714
-0.00075158
-0.000797495
-0.000844895
-0.000893786
-0.000944176
-0.000996073
-0.00104948
-0.00110441
-0.00116086
-0.00121884
-0.00127835
-0.0013394
-0.00140198
-0.0014661
-0.00153176
-0.00159895
-0.00166768
-0.00173794
-0.00180972
-0.00188302
-0.00195782
-0.00203413
-0.00211192
-0.00219117
-0.00227189
-0.00235403
-0.0024376
-0.00252255
-0.00260887
-0.00269652
-0.00278548
-0.00287571
-0.00296718
-0.00305984
-0.00315365
-0.00324857
-0.00334454
-0.00344152
-0.00353945
-0.00363827
-0.00373792
-0.00383833
-0.00393944
-0.00404116
-0.00414343
-0.00424616
-0.00434927
-0.00445268
-0.00455629
-0.00466002
-0.00476376
-0.00486742
-0.0049709
-0.00507408
-0.00517687
-0.00527915
-0.00538081
-0.00548174
-0.00558181
-0.00568092
-0.00577893
-0.00587574
-0.00597121
-0.00606523
-0.00615768
-0.00624842
-0.00633734
-0.00642432
-0.00650924
-0.00659196
-0.00667239
-0.00675039
-0.00682586
-0.00689869
-0.00696876
-0.00703598
-0.00710024
-0.00716144
-0.00721949
-0.0072743
-0.00732578
-0.00737387
-0.00741849
-0.00745956
-0.00749703
-0.00753084
-0.00756094
-0.0075873
-0.00760986
-0.00762861
-0.00764352
-0.00765458
-0.00766176
-0.00766509
-0.00766454
-0.00766015
-0.00765192
-0.00763987
-0.00762405
-0.00760449
-0.00758122
-0.00755431
-0.0075238
-0.00748975
-0.00745224
-0.00741132
-0.00736709
-0.00731961
-0.00726897
-0.00721527
-0.00715858
-0.00709902
-0.00703667
-0.00697164
-0.00690404
-0.00683396
-0.00676152
-0.00668682
-0.00660997
-0.0065311
-0.0064503
-0.00636769
-0.00628338
-0.00619749
-0.00611012
-0.00602139
-0.0059314
-0.00584028
-0.00574811
-0.00565502
-0.00556109
-0.00546645
-0.00537118
-0.00527539
-0.00517917
-0.00508261
-0.00498582
-0.00488886
-0.00479185
-0.00469484
-0.00459794
-0.00450121
-0.00440473
-0.00430857
-0.00421281
-0.00411751
-0.00402273
-0.00392854
-0.00383499
-0.00374214
-0.00365005
-0.00355876
-0.00346832
-0.00337878
-0.00329017
-0.00320255
-0.00311595
-0.0030304
-0.00294593
-0.00286259
-0.00278039
-0.00269936
-0.00261953
-0.00254092
-0.00246355
-0.00238744
-0.00231261
-0.00223908
-0.00216685
-0.00209594
-0.00202637
-0.00195813
-0.00189125
-0.00182572
-0.00176156
-0.00169877
-0.00163735
-0.00157731
-0.00151865
-0.00146137
-0.00140546
-0.00135094
-0.0012978
-0.00124604
-0.00119566
-0.00114665
-0.00109901
-0.00105275
-0.00100784
-0.000964299
-0.000922113
-0.000881278
-0.00084179
-0.000803645
-0.000766836
-0.000731359
-0.000697209
-0.000664381
-0.000632868
-0.000602666
-0.000573769
-0.000546172
-0.00051987
-0.000494857
-0.000471129
-0.00044868
-0.000427506
-0.000407603
-0.000388966
-0.000371591
-0.000355475
-0.000340612
-0.000327001
-0.000314638
-0.00030352
-0.000293644
-0.000285007
-0.000277609
-0.000271446
-0.000266517
-0.000262822
-0.000260358
-0.000259128
-2.55909e-05
-2.6859e-05
-2.93997e-05
-3.32128e-05
-3.8301e-05
-4.46671e-05
-5.23136e-05
-6.12433e-05
-7.14595e-05
-8.29657e-05
-9.5766e-05
-0.000109865
-0.000125267
-0.000141978
-0.000160004
-0.000179349
-0.000200022
-0.000222027
-0.000245373
-0.000270067
-0.000296116
-0.000323528
-0.000352312
-0.000382476
-0.000414027
-0.000446976
-0.00048133
-0.000517099
-0.000554292
-0.000592917
-0.000632983
-0.0006745
-0.000717476
-0.00076192
-0.00080784
-0.000855244
-0.00090414
-0.000954535
-0.00100644
-0.00105985
-0.00111479
-0.00117124
-0.00122923
-0.00128875
-0.0013498
-0.0014124
-0.00147653
-0.0015422
-0.0016094
-0.00167814
-0.00174841
-0.00182021
-0.00189352
-0.00196835
-0.00204467
-0.00212247
-0.00220175
-0.00228249
-0.00236466
-0.00244825
-0.00253323
-0.00261958
-0.00270726
-0.00279626
-0.00288653
-0.00297803
-0.00307073
-0.00316459
-0.00325955
-0.00335558
-0.00345261
-0.0035506
-0.00364947
-0.00374918
-0.00384966
-0.00395083
-0.00405262
-0.00415496
-0.00425777
-0.00436096
-0.00446445
-0.00456814
-0.00467196
-0.00477579
-0.00487954
-0.00498311
-0.0050864
-0.00518928
-0.00529167
-0.00539343
-0.00549446
-0.00559465
-0.00569386
-0.00579199
-0.00588891
-0.00598449
-0.00607863
-0.00617118
-0.00626204
-0.00635108
-0.00643817
-0.00652319
-0.00660603
-0.00668656
-0.00676467
-0.00684024
-0.00691317
-0.00698334
-0.00705065
-0.007115
-0.00717629
-0.00723442
-0.00728931
-0.00734087
-0.00738902
-0.0074337
-0.00747483
-0.00751235
-0.0075462
-0.00757635
-0.00760273
-0.00762532
-0.00764409
-0.00765901
-0.00767007
-0.00767726
-0.00768057
-0.00768002
-0.0076756
-0.00766734
-0.00765527
-0.0076394
-0.00761979
-0.00759648
-0.0075695
-0.00753893
-0.00750482
-0.00746723
-0.00742623
-0.00738191
-0.00733435
-0.00728362
-0.00722982
-0.00717304
-0.00711337
-0.00705092
-0.00698579
-0.00691807
-0.00684788
-0.00677533
-0.00670051
-0.00662356
-0.00654456
-0.00646365
-0.00638092
-0.0062965
-0.00621049
-0.006123
-0.00603416
-0.00594406
-0.00585282
-0.00576054
-0.00566734
-0.00557331
-0.00547856
-0.00538318
-0.00528729
-0.00519097
-0.00509431
-0.00499742
-0.00490037
-0.00480326
-0.00470617
-0.00460918
-0.00451236
-0.0044158
-0.00431957
-0.00422373
-0.00412835
-0.0040335
-0.00393924
-0.00384562
-0.00375271
-0.00366055
-0.0035692
-0.00347871
-0.00338911
-0.00330045
-0.00321278
-0.00312613
-0.00304053
-0.00295602
-0.00287263
-0.00279039
-0.00270932
-0.00262945
-0.0025508
-0.0024734
-0.00239726
-0.0023224
-0.00224883
-0.00217657
-0.00210564
-0.00203604
-0.00196778
-0.00190087
-0.00183532
-0.00177114
-0.00170832
-0.00164689
-0.00158683
-0.00152814
-0.00147084
-0.00141493
-0.00136039
-0.00130724
-0.00125546
-0.00120506
-0.00115604
-0.00110839
-0.00106211
-0.0010172
-0.000973645
-0.000931448
-0.000890604
-0.000851107
-0.000812952
-0.000776135
-0.000740651
-0.000706493
-0.000673658
-0.000642138
-0.00061193
-0.000583027
-0.000555424
-0.000529117
-0.000504099
-0.000480366
-0.000457913
-0.000436735
-0.000416828
-0.000398187
-0.000380809
-0.000364689
-0.000349825
-0.000336211
-0.000323845
-0.000312725
-0.000302847
-0.000294209
-0.000286809
-0.000280645
-0.000275715
-0.000272019
-0.000269556
-0.000268325
-3.84182e-05
-3.96875e-05
-4.22304e-05
-4.60461e-05
-5.11369e-05
-5.75053e-05
-6.5154e-05
-7.40859e-05
-8.43041e-05
-9.58123e-05
-0.000108615
-0.000122716
-0.00013812
-0.000154834
-0.000172861
-0.000192209
-0.000212884
-0.000234892
-0.000258241
-0.000282938
-0.00030899
-0.000336405
-0.000365192
-0.000395359
-0.000426914
-0.000459866
-0.000494225
-0.000529998
-0.000567194
-0.000605824
-0.000645895
-0.000687416
-0.000730398
-0.000774846
-0.000820772
-0.000868182
-0.000917084
-0.000967486
-0.0010194
-0.00107282
-0.00112776
-0.00118423
-0.00124222
-0.00130175
-0.00136282
-0.00142542
-0.00148956
-0.00155525
-0.00162247
-0.00169123
-0.00176151
-0.00183333
-0.00190666
-0.00198151
-0.00205785
-0.00213568
-0.00221499
-0.00229575
-0.00237796
-0.00246158
-0.0025466
-0.00263298
-0.00272071
-0.00280975
-0.00290006
-0.00299161
-0.00308437
-0.00317828
-0.0032733
-0.00336939
-0.00346649
-0.00356454
-0.00366349
-0.00376328
-0.00386383
-0.00396508
-0.00406696
-0.0041694
-0.0042723
-0.00437559
-0.00447918
-0.00458298
-0.00468691
-0.00479085
-0.00489472
-0.00499841
-0.00510182
-0.00520483
-0.00530734
-0.00540924
-0.0055104
-0.00561072
-0.00571008
-0.00580834
-0.0059054
-0.00600113
-0.0060954
-0.0061881
-0.0062791
-0.00636828
-0.00645551
-0.00654067
-0.00662365
-0.00670431
-0.00678256
-0.00685826
-0.00693132
-0.00700161
-0.00706904
-0.0071335
-0.00719489
-0.00725313
-0.00730812
-0.00735977
-0.00740801
-0.00745276
-0.00749396
-0.00753155
-0.00756546
-0.00759565
-0.00762208
-0.0076447
-0.00766349
-0.00767843
-0.0076895
-0.00769668
-0.00769999
-0.00769941
-0.00769497
-0.00768668
-0.00767456
-0.00765864
-0.00763898
-0.00761559
-0.00758855
-0.00755789
-0.00752369
-0.00748601
-0.00744492
-0.0074005
-0.00735282
-0.00730198
-0.00724806
-0.00719115
-0.00713136
-0.00706878
-0.00700351
-0.00693566
-0.00686533
-0.00679263
-0.00671767
-0.00664057
-0.00656143
-0.00648037
-0.0063975
-0.00631293
-0.00622677
-0.00613914
-0.00605015
-0.00595991
-0.00586853
-0.00577611
-0.00568277
-0.0055886
-0.00549372
-0.00539821
-0.00530219
-0.00520574
-0.00510896
-0.00501195
-0.00491478
-0.00481756
-0.00472035
-0.00462325
-0.00452633
-0.00442966
-0.00433333
-0.00423739
-0.00414192
-0.00404698
-0.00395263
-0.00385893
-0.00376594
-0.0036737
-0.00358227
-0.0034917
-0.00340204
-0.00331331
-0.00322558
-0.00313886
-0.0030532
-0.00296863
-0.00288519
-0.00280289
-0.00272178
-0.00264186
-0.00256317
-0.00248572
-0.00240954
-0.00233463
-0.00226103
-0.00218873
-0.00211776
-0.00204813
-0.00197984
-0.0019129
-0.00184732
-0.00178311
-0.00172027
-0.00165881
-0.00159872
-0.00154002
-0.0014827
-0.00142676
-0.0013722
-0.00131903
-0.00126724
-0.00121682
-0.00116778
-0.00112012
-0.00107382
-0.00102889
-0.000985327
-0.000943117
-0.00090226
-0.000862752
-0.000824586
-0.000787759
-0.000752265
-0.000718098
-0.000685253
-0.000653725
-0.000623509
-0.000594598
-0.000566988
-0.000540674
-0.000515649
-0.00049191
-0.000469452
-0.000448268
-0.000428356
-0.000409711
-0.000392329
-0.000376206
-0.000361337
-0.00034772
-0.000335351
-0.000324228
-0.000314348
-0.000305708
-0.000298306
-0.00029214
-0.00028721
-0.000283513
-0.000281049
-0.000279818
-5.38109e-05
-5.50812e-05
-5.76257e-05
-6.14434e-05
-6.65364e-05
-7.29072e-05
-8.05582e-05
-8.94924e-05
-9.97129e-05
-0.000111224
-0.000124029
-0.000138132
-0.00015354
-0.000170256
-0.000188286
-0.000207637
-0.000228315
-0.000250327
-0.000273679
-0.00029838
-0.000324435
-0.000351855
-0.000380646
-0.000410817
-0.000442377
-0.000475334
-0.000509697
-0.000545475
-0.000582677
-0.000621312
-0.000661389
-0.000702917
-0.000745905
-0.00079036
-0.000836293
-0.00088371
-0.000932621
-0.000983031
-0.00103495
-0.00108838
-0.00114333
-0.00119981
-0.00125782
-0.00131736
-0.00137844
-0.00144106
-0.00150522
-0.00157092
-0.00163816
-0.00170694
-0.00177725
-0.00184908
-0.00192244
-0.00199731
-0.00207369
-0.00215155
-0.00223089
-0.00231169
-0.00239393
-0.00247759
-0.00256265
-0.00264909
-0.00273686
-0.00282595
-0.00291632
-0.00300794
-0.00310075
-0.00319473
-0.00328983
-0.00338599
-0.00348317
-0.00358131
-0.00368034
-0.00378022
-0.00388087
-0.00398223
-0.00408421
-0.00418675
-0.00428977
-0.00439318
-0.0044969
-0.00460083
-0.00470489
-0.00480897
-0.00491298
-0.00501681
-0.00512037
-0.00522353
-0.0053262
-0.00542826
-0.00552958
-0.00563007
-0.00572958
-0.00582802
-0.00592525
-0.00602115
-0.00611559
-0.00620846
-0.00629964
-0.00638898
-0.00647638
-0.00656171
-0.00664485
-0.00672569
-0.00680409
-0.00687995
-0.00695316
-0.0070236
-0.00709117
-0.00715577
-0.0072173
-0.00727566
-0.00733076
-0.00738252
-0.00743086
-0.00747571
-0.007517
-0.00755466
-0.00758864
-0.00761889
-0.00764536
-0.00766803
-0.00768685
-0.0077018
-0.00771288
-0.00772006
-0.00772336
-0.00772276
-0.00771828
-0.00770995
-0.00769778
-0.00768181
-0.00766207
-0.00763861
-0.00761147
-0.00758072
-0.00754642
-0.00750862
-0.00746741
-0.00742286
-0.00737505
-0.00732407
-0.00727001
-0.00721295
-0.007153
-0.00709026
-0.00702483
-0.00695681
-0.00688631
-0.00681345
-0.00673832
-0.00666104
-0.00658173
-0.00650049
-0.00641744
-0.00633269
-0.00624636
-0.00615856
-0.00606939
-0.00597898
-0.00588743
-0.00579484
-0.00570133
-0.005607
-0.00551195
-0.00541629
-0.0053201
-0.0052235
-0.00512657
-0.00502941
-0.00493211
-0.00483474
-0.0047374
-0.00464017
-0.00454312
-0.00444633
-0.00434987
-0.00425381
-0.00415823
-0.00406318
-0.00396872
-0.00387492
-0.00378183
-0.0036895
-0.00359798
-0.00350732
-0.00341757
-0.00332876
-0.00324095
-0.00315415
-0.00306842
-0.00298379
-0.00290028
-0.00281792
-0.00273674
-0.00265676
-0.00257801
-0.00250051
-0.00242428
-0.00234933
-0.00227568
-0.00220334
-0.00213232
-0.00206265
-0.00199432
-0.00192734
-0.00186173
-0.00179748
-0.00173461
-0.00167312
-0.001613
-0.00155427
-0.00149692
-0.00144096
-0.00138638
-0.00133318
-0.00128137
-0.00123093
-0.00118187
-0.00113419
-0.00108788
-0.00104293
-0.000999345
-0.00095712
-0.000916248
-0.000876726
-0.000838547
-0.000801706
-0.0007662
-0.000732021
-0.000699166
-0.000667627
-0.000637401
-0.000608481
-0.000580862
-0.000554539
-0.000529507
-0.000505761
-0.000483295
-0.000462105
-0.000442187
-0.000423537
-0.000406149
-0.000390021
-0.000375148
-0.000361527
-0.000349155
-0.000338028
-0.000328145
-0.000319502
-0.000312098
-0.000305931
-0.000300999
-0.000297301
-0.000294836
-0.000293605
-7.17653e-05
-7.30363e-05
-7.55821e-05
-7.94016e-05
-8.44968e-05
-9.08698e-05
-9.85233e-05
-0.00010746
-0.000117683
-0.000129197
-0.000142005
-0.000156112
-0.000171522
-0.000188242
-0.000206276
-0.000225631
-0.000246313
-0.000268329
-0.000291686
-0.000316391
-0.000342452
-0.000369876
-0.000398673
-0.000428849
-0.000460415
-0.000493378
-0.000527747
-0.000563532
-0.00060074
-0.000639382
-0.000679467
-0.000721002
-0.000763998
-0.000808462
-0.000854404
-0.000901831
-0.000950751
-0.00100117
-0.0010531
-0.00110655
-0.00116151
-0.001218
-0.00127603
-0.00133558
-0.00139668
-0.00145932
-0.0015235
-0.00158922
-0.00165648
-0.00172528
-0.00179561
-0.00186748
-0.00194087
-0.00201577
-0.00209218
-0.00217008
-0.00224946
-0.0023303
-0.00241259
-0.0024963
-0.00258141
-0.0026679
-0.00275574
-0.00284489
-0.00293533
-0.00302701
-0.00311991
-0.00321396
-0.00330914
-0.0034054
-0.00350267
-0.0036009
-0.00370005
-0.00380003
-0.0039008
-0.00400227
-0.00410438
-0.00420705
-0.00431021
-0.00441376
-0.00451762
-0.0046217
-0.00472591
-0.00483016
-0.00493433
-0.00503834
-0.00514207
-0.00524542
-0.00534827
-0.00545051
-0.00555202
-0.0056527
-0.00575241
-0.00585105
-0.00594847
-0.00604457
-0.00613922
-0.0062323
-0.00632367
-0.00641322
-0.00650082
-0.00658635
-0.00666968
-0.00675071
-0.0068293
-0.00690535
-0.00697873
-0.00704935
-0.00711709
-0.00718185
-0.00724353
-0.00730203
-0.00735728
-0.00740917
-0.00745763
-0.00750259
-0.00754398
-0.00758173
-0.00761579
-0.0076461
-0.00767263
-0.00769534
-0.0077142
-0.00772918
-0.00774026
-0.00774745
-0.00775072
-0.0077501
-0.00774559
-0.0077372
-0.00772497
-0.00770893
-0.00768911
-0.00766555
-0.00763831
-0.00760745
-0.00757302
-0.0075351
-0.00749374
-0.00744905
-0.00740108
-0.00734994
-0.0072957
-0.00723847
-0.00717834
-0.00711541
-0.00704979
-0.00698158
-0.00691088
-0.00683781
-0.00676248
-0.006685
-0.00660547
-0.00652403
-0.00644077
-0.00635582
-0.00626928
-0.00618127
-0.0060919
-0.00600128
-0.00590953
-0.00581674
-0.00572303
-0.00562851
-0.00553327
-0.00543742
-0.00534105
-0.00524427
-0.00514717
-0.00504983
-0.00495236
-0.00485483
-0.00475733
-0.00465994
-0.00456274
-0.0044658
-0.0043692
-0.00427301
-0.00417729
-0.00408211
-0.00398753
-0.00389361
-0.0038004
-0.00370795
-0.00361633
-0.00352556
-0.00343571
-0.00334681
-0.0032589
-0.00317202
-0.0030862
-0.00300149
-0.0029179
-0.00283546
-0.00275421
-0.00267417
-0.00259535
-0.00251779
-0.00244149
-0.00236648
-0.00229278
-0.00222038
-0.00214932
-0.0020796
-0.00201122
-0.0019442
-0.00187855
-0.00181426
-0.00175135
-0.00168982
-0.00162967
-0.0015709
-0.00151352
-0.00145753
-0.00140292
-0.0013497
-0.00129786
-0.0012474
-0.00119831
-0.00115061
-0.00110427
-0.0010593
-0.0010157
-0.000973456
-0.000932567
-0.000893027
-0.000854832
-0.000817977
-0.000782456
-0.000748263
-0.000715394
-0.000683844
-0.000653605
-0.000624674
-0.000597045
-0.000570712
-0.00054567
-0.000521915
-0.000499441
-0.000478244
-0.000458318
-0.000439661
-0.000422267
-0.000406133
-0.000391255
-0.000377629
-0.000365252
-0.000354122
-0.000344235
-0.000335589
-0.000328183
-0.000322014
-0.00031708
-0.000313381
-0.000310915
-0.000309684
-9.22772e-05
-9.35488e-05
-9.60959e-05
-9.99171e-05
-0.000105014
-0.00011139
-0.000119046
-0.000127985
-0.000138212
-0.000149729
-0.00016254
-0.000176651
-0.000192066
-0.00020879
-0.000226828
-0.000246188
-0.000266875
-0.000288896
-0.000312259
-0.000336969
-0.000363036
-0.000390467
-0.00041927
-0.000449453
-0.000481026
-0.000513996
-0.000548373
-0.000584166
-0.000621383
-0.000660034
-0.000700128
-0.000741673
-0.000784679
-0.000829154
-0.000875106
-0.000922545
-0.000971478
-0.00102191
-0.00107386
-0.00112731
-0.0011823
-0.0012388
-0.00129684
-0.00135642
-0.00141754
-0.0014802
-0.0015444
-0.00161015
-0.00167743
-0.00174626
-0.00181663
-0.00188853
-0.00196195
-0.00203689
-0.00211334
-0.00219129
-0.00227071
-0.00235161
-0.00243395
-0.00251771
-0.00260289
-0.00268944
-0.00277734
-0.00286657
-0.00295709
-0.00304885
-0.00314183
-0.00323599
-0.00333126
-0.00342762
-0.003525
-0.00362335
-0.00372261
-0.00382273
-0.00392362
-0.00402524
-0.00412749
-0.00423031
-0.00433362
-0.00443734
-0.00454137
-0.00464563
-0.00475002
-0.00485445
-0.00495882
-0.00506302
-0.00516695
-0.0052705
-0.00537357
-0.00547602
-0.00557776
-0.00567866
-0.0057786
-0.00587746
-0.00597512
-0.00607145
-0.00616633
-0.00625964
-0.00635124
-0.00644102
-0.00652885
-0.00661461
-0.00669817
-0.00677942
-0.00685823
-0.00693449
-0.00700808
-0.0070789
-0.00714683
-0.00721178
-0.00727363
-0.00733231
-0.00738771
-0.00743975
-0.00748835
-0.00753344
-0.00757494
-0.0076128
-0.00764695
-0.00767734
-0.00770394
-0.0077267
-0.0077456
-0.0077606
-0.0077717
-0.00777888
-0.00778214
-0.00778149
-0.00777693
-0.00776849
-0.00775619
-0.00774006
-0.00772014
-0.00769648
-0.00766912
-0.00763813
-0.00760356
-0.00756548
-0.00752396
-0.00747909
-0.00743095
-0.00737961
-0.00732518
-0.00726775
-0.00720741
-0.00714427
-0.00707842
-0.00700998
-0.00693906
-0.00686576
-0.00679019
-0.00671247
-0.00663271
-0.00655103
-0.00646753
-0.00638234
-0.00629556
-0.00620731
-0.0061177
-0.00602685
-0.00593486
-0.00584185
-0.00574791
-0.00565317
-0.00555771
-0.00546164
-0.00536506
-0.00526807
-0.00517077
-0.00507323
-0.00497556
-0.00487784
-0.00478016
-0.00468259
-0.00458521
-0.00448811
-0.00439134
-0.00429499
-0.00419912
-0.00410379
-0.00400906
-0.003915
-0.00382166
-0.00372908
-0.00363733
-0.00354645
-0.00345648
-0.00336747
-0.00327945
-0.00319247
-0.00310655
-0.00302174
-0.00293806
-0.00285554
-0.0027742
-0.00269408
-0.00261519
-0.00253755
-0.00246118
-0.00238611
-0.00231234
-0.00223988
-0.00216876
-0.00209898
-0.00203055
-0.00196348
-0.00189778
-0.00183344
-0.00177049
-0.00170892
-0.00164873
-0.00158992
-0.0015325
-0.00147648
-0.00142183
-0.00136858
-0.0013167
-0.00126621
-0.0012171
-0.00116937
-0.00112301
-0.00107802
-0.00103439
-0.000992126
-0.000951216
-0.000911656
-0.000873443
-0.000836569
-0.000801031
-0.000766822
-0.000733938
-0.000702373
-0.00067212
-0.000643176
-0.000615534
-0.00058919
-0.000564137
-0.000540371
-0.000517888
-0.000496681
-0.000476748
-0.000458082
-0.000440681
-0.00042454
-0.000409656
-0.000396024
-0.000383642
-0.000372507
-0.000362616
-0.000353967
-0.000346557
-0.000340386
-0.00033545
-0.00033175
-0.000329283
-0.000328051
-0.000115342
-0.000116614
-0.000119163
-0.000122985
-0.000128085
-0.000134463
-0.000142122
-0.000151065
-0.000161295
-0.000172816
-0.000185631
-0.000199747
-0.000215166
-0.000231895
-0.000249939
-0.000269305
-0.000289998
-0.000312026
-0.000335395
-0.000360113
-0.000386187
-0.000413625
-0.000442436
-0.000472628
-0.00050421
-0.000537189
-0.000571576
-0.000607378
-0.000644606
-0.000683268
-0.000723372
-0.000764929
-0.000807947
-0.000852435
-0.000898402
-0.000945855
-0.000994803
-0.00104525
-0.00109721
-0.00115069
-0.00120569
-0.00126222
-0.00132028
-0.00137988
-0.00144102
-0.00150371
-0.00156794
-0.00163371
-0.00170103
-0.00176989
-0.0018403
-0.00191223
-0.0019857
-0.00206069
-0.00213718
-0.00221518
-0.00229466
-0.00237561
-0.00245801
-0.00254184
-0.00262709
-0.00271372
-0.0028017
-0.00289101
-0.00298162
-0.00307348
-0.00316656
-0.00326082
-0.00335621
-0.00345268
-0.00355019
-0.00364867
-0.00374807
-0.00384833
-0.00394938
-0.00405115
-0.00415357
-0.00425656
-0.00436005
-0.00446395
-0.00456817
-0.00467263
-0.00477723
-0.00488187
-0.00498646
-0.00509089
-0.00519505
-0.00529884
-0.00540214
-0.00550484