/*--------------------------------*- C++ -*----------------------------------*\
| =========                 |                                                 |
| \\      /  F ield         | OpenFOAM: The Open Source CFD Toolbox           |
|  \\    /   O peration     | Version:  v2012                                 |
|   \\  /    A nd           | Website:  www.openfoam.com                      |
|    \\/     M anipulation  |                                                 |
\*---------------------------------------------------------------------------*/
FoamFile
{
    version     2.0;
    format      ascii;
    class       volVectorField;
    location    "15";
    object      Psi;
}
// * * * * * * * * * * * * * * * * * * * * * * * * * * * * * * * * * * * * * //

dimensions      [0 2 -1 0 0 0 0];


internalField   nonuniform List<vector> 
65536
(
(0 0 8.50719e-06)
(0 0 2.55221e-05)
(0 0 4.25386e-05)
(0 0 5.95578e-05)
(0 0 7.65808e-05)
(0 0 9.36086e-05)
(0 0 0.000110642)
(0 0 0.000127683)
(0 0 0.000144732)
(0 0 0.000161789)
(0 0 0.000178857)
(0 0 0.000195935)
(0 0 0.000213026)
(0 0 0.000230129)
(0 0 0.000247245)
(0 0 0.000264377)
(0 0 0.000281523)
(0 0 0.000298685)
(0 0 0.000315865)
(0 0 0.000333061)
(0 0 0.000350276)
(0 0 0.000367509)
(0 0 0.000384761)
(0 0 0.000402033)
(0 0 0.000419324)
(0 0 0.000436636)
(0 0 0.000453969)
(0 0 0.000471322)
(0 0 0.000488695)
(0 0 0.00050609)
(0 0 0.000523506)
(0 0 0.000540942)
(0 0 0.000558398)
(0 0 0.000575874)
(0 0 0.00059337)
(0 0 0.000610885)
(0 0 0.000628419)
(0 0 0.00064597)
(0 0 0.000663538)
(0 0 0.000681122)
(0 0 0.000698721)
(0 0 0.000716333)
(0 0 0.000733957)
(0 0 0.000751592)
(0 0 0.000769235)
(0 0 0.000786886)
(0 0 0.000804543)
(0 0 0.000822202)
(0 0 0.000839863)
(0 0 0.000857522)
(0 0 0.000875177)
(0 0 0.000892825)
(0 0 0.000910464)
(0 0 0.00092809)
(0 0 0.0009457)
(0 0 0.000963291)
(0 0 0.000980859)
(0 0 0.0009984)
(0 0 0.00101591)
(0 0 0.00103339)
(0 0 0.00105082)
(0 0 0.00106821)
(0 0 0.00108556)
(0 0 0.00110285)
(0 0 0.00112008)
(0 0 0.00113725)
(0 0 0.00115435)
(0 0 0.00117137)
(0 0 0.00118831)
(0 0 0.00120517)
(0 0 0.00122193)
(0 0 0.00123859)
(0 0 0.00125515)
(0 0 0.00127159)
(0 0 0.00128791)
(0 0 0.00130411)
(0 0 0.00132017)
(0 0 0.00133608)
(0 0 0.00135185)
(0 0 0.00136746)
(0 0 0.0013829)
(0 0 0.00139818)
(0 0 0.00141326)
(0 0 0.00142816)
(0 0 0.00144286)
(0 0 0.00145736)
(0 0 0.00147164)
(0 0 0.00148569)
(0 0 0.00149951)
(0 0 0.0015131)
(0 0 0.00152643)
(0 0 0.0015395)
(0 0 0.00155231)
(0 0 0.00156484)
(0 0 0.00157709)
(0 0 0.00158905)
(0 0 0.0016007)
(0 0 0.00161205)
(0 0 0.00162308)
(0 0 0.00163379)
(0 0 0.00164416)
(0 0 0.00165419)
(0 0 0.00166388)
(0 0 0.0016732)
(0 0 0.00168217)
(0 0 0.00169077)
(0 0 0.00169899)
(0 0 0.00170682)
(0 0 0.00171427)
(0 0 0.00172133)
(0 0 0.00172798)
(0 0 0.00173423)
(0 0 0.00174007)
(0 0 0.0017455)
(0 0 0.00175051)
(0 0 0.00175509)
(0 0 0.00175925)
(0 0 0.00176298)
(0 0 0.00176628)
(0 0 0.00176915)
(0 0 0.00177158)
(0 0 0.00177357)
(0 0 0.00177513)
(0 0 0.00177624)
(0 0 0.00177692)
(0 0 0.00177716)
(0 0 0.00177696)
(0 0 0.00177633)
(0 0 0.00177525)
(0 0 0.00177375)
(0 0 0.00177181)
(0 0 0.00176944)
(0 0 0.00176665)
(0 0 0.00176344)
(0 0 0.0017598)
(0 0 0.00175575)
(0 0 0.00175129)
(0 0 0.00174642)
(0 0 0.00174115)
(0 0 0.00173548)
(0 0 0.00172943)
(0 0 0.00172299)
(0 0 0.00171616)
(0 0 0.00170897)
(0 0 0.00170141)
(0 0 0.00169349)
(0 0 0.00168522)
(0 0 0.0016766)
(0 0 0.00166764)
(0 0 0.00165836)
(0 0 0.00164875)
(0 0 0.00163882)
(0 0 0.00162858)
(0 0 0.00161805)
(0 0 0.00160722)
(0 0 0.00159611)
(0 0 0.00158472)
(0 0 0.00157306)
(0 0 0.00156114)
(0 0 0.00154897)
(0 0 0.00153655)
(0 0 0.0015239)
(0 0 0.00151102)
(0 0 0.00149792)
(0 0 0.0014846)
(0 0 0.00147108)
(0 0 0.00145736)
(0 0 0.00144345)
(0 0 0.00142936)
(0 0 0.00141509)
(0 0 0.00140066)
(0 0 0.00138607)
(0 0 0.00137132)
(0 0 0.00135642)
(0 0 0.00134139)
(0 0 0.00132622)
(0 0 0.00131092)
(0 0 0.00129551)
(0 0 0.00127998)
(0 0 0.00126434)
(0 0 0.0012486)
(0 0 0.00123277)
(0 0 0.00121684)
(0 0 0.00120083)
(0 0 0.00118474)
(0 0 0.00116857)
(0 0 0.00115233)
(0 0 0.00113603)
(0 0 0.00111967)
(0 0 0.00110325)
(0 0 0.00108678)
(0 0 0.00107027)
(0 0 0.00105371)
(0 0 0.00103711)
(0 0 0.00102048)
(0 0 0.00100381)
(0 0 0.000987114)
(0 0 0.000970393)
(0 0 0.000953649)
(0 0 0.000936886)
(0 0 0.000920107)
(0 0 0.000903313)
(0 0 0.000886508)
(0 0 0.000869695)
(0 0 0.000852874)
(0 0 0.000836049)
(0 0 0.000819221)
(0 0 0.000802393)
(0 0 0.000785566)
(0 0 0.000768742)
(0 0 0.000751923)
(0 0 0.000735109)
(0 0 0.000718302)
(0 0 0.000701504)
(0 0 0.000684716)
(0 0 0.000667938)
(0 0 0.000651171)
(0 0 0.000634417)
(0 0 0.000617677)
(0 0 0.00060095)
(0 0 0.000584237)
(0 0 0.000567539)
(0 0 0.000550857)
(0 0 0.00053419)
(0 0 0.000517539)
(0 0 0.000500905)
(0 0 0.000484286)
(0 0 0.000467684)
(0 0 0.000451098)
(0 0 0.000434528)
(0 0 0.000417975)
(0 0 0.000401438)
(0 0 0.000384916)
(0 0 0.00036841)
(0 0 0.000351919)
(0 0 0.000335443)
(0 0 0.000318981)
(0 0 0.000302533)
(0 0 0.000286098)
(0 0 0.000269677)
(0 0 0.000253268)
(0 0 0.00023687)
(0 0 0.000220484)
(0 0 0.000204109)
(0 0 0.000187743)
(0 0 0.000171386)
(0 0 0.000155038)
(0 0 0.000138697)
(0 0 0.000122363)
(0 0 0.000106036)
(0 0 8.97134e-05)
(0 0 7.33956e-05)
(0 0 5.70816e-05)
(0 0 4.07705e-05)
(0 0 2.44615e-05)
(0 0 8.15369e-06)
(0 0 2.55211e-05)
(0 0 7.6565e-05)
(0 0 0.000127613)
(0 0 0.00017867)
(0 0 0.000229738)
(0 0 0.00028082)
(0 0 0.000331921)
(0 0 0.000383042)
(0 0 0.000434187)
(0 0 0.000485359)
(0 0 0.00053656)
(0 0 0.000587795)
(0 0 0.000639065)
(0 0 0.000690374)
(0 0 0.000741723)
(0 0 0.000793116)
(0 0 0.000844554)
(0 0 0.000896041)
(0 0 0.000947577)
(0 0 0.000999166)
(0 0 0.00105081)
(0 0 0.00110251)
(0 0 0.00115426)
(0 0 0.00120608)
(0 0 0.00125795)
(0 0 0.00130989)
(0 0 0.00136189)
(0 0 0.00141395)
(0 0 0.00146607)
(0 0 0.00151825)
(0 0 0.0015705)
(0 0 0.00162281)
(0 0 0.00167518)
(0 0 0.00172761)
(0 0 0.00178009)
(0 0 0.00183264)
(0 0 0.00188524)
(0 0 0.0019379)
(0 0 0.0019906)
(0 0 0.00204335)
(0 0 0.00209615)
(0 0 0.00214899)
(0 0 0.00220186)
(0 0 0.00225477)
(0 0 0.0023077)
(0 0 0.00236066)
(0 0 0.00241363)
(0 0 0.00246661)
(0 0 0.00251959)
(0 0 0.00257257)
(0 0 0.00262554)
(0 0 0.00267849)
(0 0 0.00273141)
(0 0 0.00278429)
(0 0 0.00283712)
(0 0 0.0028899)
(0 0 0.00294261)
(0 0 0.00299523)
(0 0 0.00304777)
(0 0 0.0031002)
(0 0 0.00315251)
(0 0 0.0032047)
(0 0 0.00325673)
(0 0 0.00330861)
(0 0 0.00336031)
(0 0 0.00341182)
(0 0 0.00346312)
(0 0 0.0035142)
(0 0 0.00356503)
(0 0 0.0036156)
(0 0 0.0036659)
(0 0 0.00371589)
(0 0 0.00376556)
(0 0 0.0038149)
(0 0 0.00386387)
(0 0 0.00391246)
(0 0 0.00396064)
(0 0 0.0040084)
(0 0 0.00405571)
(0 0 0.00410255)
(0 0 0.00414889)
(0 0 0.00419471)
(0 0 0.00423998)
(0 0 0.00428469)
(0 0 0.0043288)
(0 0 0.00437229)
(0 0 0.00441513)
(0 0 0.00445731)
(0 0 0.00449878)
(0 0 0.00453954)
(0 0 0.00457954)
(0 0 0.00461878)
(0 0 0.00465721)
(0 0 0.00469481)
(0 0 0.00473157)
(0 0 0.00476745)
(0 0 0.00480242)
(0 0 0.00483647)
(0 0 0.00486957)
(0 0 0.0049017)
(0 0 0.00493282)
(0 0 0.00496292)
(0 0 0.00499198)
(0 0 0.00501998)
(0 0 0.00504688)
(0 0 0.00507268)
(0 0 0.00509734)
(0 0 0.00512086)
(0 0 0.00514322)
(0 0 0.00516439)
(0 0 0.00518436)
(0 0 0.00520311)
(0 0 0.00522064)
(0 0 0.00523692)
(0 0 0.00525194)
(0 0 0.0052657)
(0 0 0.00527818)
(0 0 0.00528938)
(0 0 0.00529928)
(0 0 0.00530788)
(0 0 0.00531517)
(0 0 0.00532115)
(0 0 0.00532582)
(0 0 0.00532917)
(0 0 0.0053312)
(0 0 0.00533192)
(0 0 0.00533132)
(0 0 0.00532941)
(0 0 0.0053262)
(0 0 0.00532168)
(0 0 0.00531586)
(0 0 0.00530876)
(0 0 0.00530038)
(0 0 0.00529073)
(0 0 0.00527982)
(0 0 0.00526766)
(0 0 0.00525427)
(0 0 0.00523966)
(0 0 0.00522385)
(0 0 0.00520684)
(0 0 0.00518867)
(0 0 0.00516934)
(0 0 0.00514887)
(0 0 0.00512728)
(0 0 0.00510459)
(0 0 0.00508082)
(0 0 0.005056)
(0 0 0.00503014)
(0 0 0.00500326)
(0 0 0.00497539)
(0 0 0.00494655)
(0 0 0.00491677)
(0 0 0.00488605)
(0 0 0.00485444)
(0 0 0.00482195)
(0 0 0.0047886)
(0 0 0.00475442)
(0 0 0.00471944)
(0 0 0.00468368)
(0 0 0.00464715)
(0 0 0.0046099)
(0 0 0.00457193)
(0 0 0.00453328)
(0 0 0.00449396)
(0 0 0.00445401)
(0 0 0.00441344)
(0 0 0.00437227)
(0 0 0.00433054)
(0 0 0.00428826)
(0 0 0.00424545)
(0 0 0.00420214)
(0 0 0.00415835)
(0 0 0.00411409)
(0 0 0.0040694)
(0 0 0.00402429)
(0 0 0.00397878)
(0 0 0.00393289)
(0 0 0.00388663)
(0 0 0.00384004)
(0 0 0.00379312)
(0 0 0.0037459)
(0 0 0.00369838)
(0 0 0.0036506)
(0 0 0.00360256)
(0 0 0.00355428)
(0 0 0.00350578)
(0 0 0.00345706)
(0 0 0.00340816)
(0 0 0.00335907)
(0 0 0.00330981)
(0 0 0.0032604)
(0 0 0.00321085)
(0 0 0.00316117)
(0 0 0.00311137)
(0 0 0.00306146)
(0 0 0.00301145)
(0 0 0.00296136)
(0 0 0.0029112)
(0 0 0.00286097)
(0 0 0.00281067)
(0 0 0.00276033)
(0 0 0.00270995)
(0 0 0.00265953)
(0 0 0.00260909)
(0 0 0.00255862)
(0 0 0.00250815)
(0 0 0.00245766)
(0 0 0.00240718)
(0 0 0.00235669)
(0 0 0.00230622)
(0 0 0.00225576)
(0 0 0.00220532)
(0 0 0.0021549)
(0 0 0.0021045)
(0 0 0.00205414)
(0 0 0.0020038)
(0 0 0.0019535)
(0 0 0.00190324)
(0 0 0.00185302)
(0 0 0.00180283)
(0 0 0.0017527)
(0 0 0.0017026)
(0 0 0.00165255)
(0 0 0.00160255)
(0 0 0.0015526)
(0 0 0.0015027)
(0 0 0.00145284)
(0 0 0.00140303)
(0 0 0.00135328)
(0 0 0.00130357)
(0 0 0.00125391)
(0 0 0.0012043)
(0 0 0.00115473)
(0 0 0.00110521)
(0 0 0.00105574)
(0 0 0.00100631)
(0 0 0.000956928)
(0 0 0.000907585)
(0 0 0.000858282)
(0 0 0.000809018)
(0 0 0.000759791)
(0 0 0.0007106)
(0 0 0.000661442)
(0 0 0.000612316)
(0 0 0.000563219)
(0 0 0.000514149)
(0 0 0.000465105)
(0 0 0.000416084)
(0 0 0.000367084)
(0 0 0.000318101)
(0 0 0.000269135)
(0 0 0.000220183)
(0 0 0.000171242)
(0 0 0.000122309)
(0 0 7.33832e-05)
(0 0 2.44606e-05)
(0 0 4.25335e-05)
(0 0 0.000127603)
(0 0 0.00021268)
(0 0 0.000297771)
(0 0 0.000382881)
(0 0 0.000468015)
(0 0 0.000553179)
(0 0 0.000638377)
(0 0 0.000723615)
(0 0 0.000808899)
(0 0 0.000894232)
(0 0 0.00097962)
(0 0 0.00106507)
(0 0 0.00115058)
(0 0 0.00123616)
(0 0 0.00132181)
(0 0 0.00140754)
(0 0 0.00149335)
(0 0 0.00157924)
(0 0 0.00166522)
(0 0 0.00175129)
(0 0 0.00183745)
(0 0 0.00192371)
(0 0 0.00201007)
(0 0 0.00209652)
(0 0 0.00218308)
(0 0 0.00226974)
(0 0 0.00235651)
(0 0 0.00244338)
(0 0 0.00253035)
(0 0 0.00261743)
(0 0 0.00270461)
(0 0 0.00279189)
(0 0 0.00287928)
(0 0 0.00296676)
(0 0 0.00305434)
(0 0 0.00314201)
(0 0 0.00322977)
(0 0 0.00331762)
(0 0 0.00340554)
(0 0 0.00349354)
(0 0 0.00358161)
(0 0 0.00366974)
(0 0 0.00375792)
(0 0 0.00384615)
(0 0 0.00393441)
(0 0 0.0040227)
(0 0 0.00411101)
(0 0 0.00419933)
(0 0 0.00428764)
(0 0 0.00437592)
(0 0 0.00446418)
(0 0 0.00455239)
(0 0 0.00464054)
(0 0 0.0047286)
(0 0 0.00481658)
(0 0 0.00490443)
(0 0 0.00499216)
(0 0 0.00507973)
(0 0 0.00516713)
(0 0 0.00525434)
(0 0 0.00534132)
(0 0 0.00542807)
(0 0 0.00551455)
(0 0 0.00560073)
(0 0 0.0056866)
(0 0 0.00577212)
(0 0 0.00585727)
(0 0 0.00594201)
(0 0 0.00602632)
(0 0 0.00611016)
(0 0 0.00619351)
(0 0 0.00627632)
(0 0 0.00635856)
(0 0 0.00644021)
(0 0 0.00652122)
(0 0 0.00660155)
(0 0 0.00668118)
(0 0 0.00676005)
(0 0 0.00683814)
(0 0 0.0069154)
(0 0 0.00699179)
(0 0 0.00706728)
(0 0 0.00714181)
(0 0 0.00721536)
(0 0 0.00728787)
(0 0 0.00735931)
(0 0 0.00742962)
(0 0 0.00749878)
(0 0 0.00756673)
(0 0 0.00763344)
(0 0 0.00769885)
(0 0 0.00776293)
(0 0 0.00782564)
(0 0 0.00788693)
(0 0 0.00794675)
(0 0 0.00800507)
(0 0 0.00806185)
(0 0 0.00811704)
(0 0 0.00817061)
(0 0 0.00822251)
(0 0 0.0082727)
(0 0 0.00832116)
(0 0 0.00836784)
(0 0 0.0084127)
(0 0 0.00845572)
(0 0 0.00849685)
(0 0 0.00853607)
(0 0 0.00857334)
(0 0 0.00860865)
(0 0 0.00864195)
(0 0 0.00867322)
(0 0 0.00870245)
(0 0 0.0087296)
(0 0 0.00875465)
(0 0 0.00877759)
(0 0 0.00879841)
(0 0 0.00881707)
(0 0 0.00883358)
(0 0 0.00884792)
(0 0 0.00886008)
(0 0 0.00887005)
(0 0 0.00887783)
(0 0 0.00888341)
(0 0 0.0088868)
(0 0 0.008888)
(0 0 0.008887)
(0 0 0.00888381)
(0 0 0.00887844)
(0 0 0.0088709)
(0 0 0.00886121)
(0 0 0.00884936)
(0 0 0.00883538)
(0 0 0.00881928)
(0 0 0.00880109)
(0 0 0.00878081)
(0 0 0.00875848)
(0 0 0.00873411)
(0 0 0.00870774)
(0 0 0.00867938)
(0 0 0.00864906)
(0 0 0.00861682)
(0 0 0.00858269)
(0 0 0.00854669)
(0 0 0.00850885)
(0 0 0.00846922)
(0 0 0.00842782)
(0 0 0.0083847)
(0 0 0.00833988)
(0 0 0.0082934)
(0 0 0.00824531)
(0 0 0.00819564)
(0 0 0.00814442)
(0 0 0.00809171)
(0 0 0.00803753)
(0 0 0.00798192)
(0 0 0.00792494)
(0 0 0.00786661)
(0 0 0.00780697)
(0 0 0.00774608)
(0 0 0.00768396)
(0 0 0.00762065)
(0 0 0.0075562)
(0 0 0.00749065)
(0 0 0.00742403)
(0 0 0.00735639)
(0 0 0.00728776)
(0 0 0.00721818)
(0 0 0.00714768)
(0 0 0.00707631)
(0 0 0.0070041)
(0 0 0.00693109)
(0 0 0.00685732)
(0 0 0.0067828)
(0 0 0.0067076)
(0 0 0.00663172)
(0 0 0.00655521)
(0 0 0.00647811)
(0 0 0.00640043)
(0 0 0.00632221)
(0 0 0.00624348)
(0 0 0.00616428)
(0 0 0.00608462)
(0 0 0.00600453)
(0 0 0.00592405)
(0 0 0.00584319)
(0 0 0.00576199)
(0 0 0.00568046)
(0 0 0.00559863)
(0 0 0.00551652)
(0 0 0.00543416)
(0 0 0.00535156)
(0 0 0.00526874)
(0 0 0.00518573)
(0 0 0.00510254)
(0 0 0.00501919)
(0 0 0.00493569)
(0 0 0.00485207)
(0 0 0.00476834)
(0 0 0.00468451)
(0 0 0.0046006)
(0 0 0.00451662)
(0 0 0.00443259)
(0 0 0.0043485)
(0 0 0.00426439)
(0 0 0.00418026)
(0 0 0.00409611)
(0 0 0.00401196)
(0 0 0.00392782)
(0 0 0.00384369)
(0 0 0.00375958)
(0 0 0.00367551)
(0 0 0.00359147)
(0 0 0.00350747)
(0 0 0.00342352)
(0 0 0.00333963)
(0 0 0.00325579)
(0 0 0.00317202)
(0 0 0.00308831)
(0 0 0.00300468)
(0 0 0.00292111)
(0 0 0.00283762)
(0 0 0.00275421)
(0 0 0.00267087)
(0 0 0.00258762)
(0 0 0.00250444)
(0 0 0.00242135)
(0 0 0.00233834)
(0 0 0.00225541)
(0 0 0.00217256)
(0 0 0.0020898)
(0 0 0.00200711)
(0 0 0.0019245)
(0 0 0.00184197)
(0 0 0.00175952)
(0 0 0.00167714)
(0 0 0.00159483)
(0 0 0.0015126)
(0 0 0.00143043)
(0 0 0.00134832)
(0 0 0.00126628)
(0 0 0.0011843)
(0 0 0.00110237)
(0 0 0.00102049)
(0 0 0.000938668)
(0 0 0.000856888)
(0 0 0.00077515)
(0 0 0.000693451)
(0 0 0.000611786)
(0 0 0.000530152)
(0 0 0.000448544)
(0 0 0.000366959)
(0 0 0.000285394)
(0 0 0.000203842)
(0 0 0.000122301)
(0 0 4.07664e-05)
(0 0 5.95431e-05)
(0 0 0.000178633)
(0 0 0.000297734)
(0 0 0.000416854)
(0 0 0.000536)
(0 0 0.00065518)
(0 0 0.000774402)
(0 0 0.000893673)
(0 0 0.001013)
(0 0 0.00113239)
(0 0 0.00125185)
(0 0 0.00137139)
(0 0 0.00149101)
(0 0 0.00161071)
(0 0 0.00173052)
(0 0 0.00185043)
(0 0 0.00197044)
(0 0 0.00209057)
(0 0 0.00221081)
(0 0 0.00233118)
(0 0 0.00245167)
(0 0 0.0025723)
(0 0 0.00269306)
(0 0 0.00281396)
(0 0 0.00293499)
(0 0 0.00305617)
(0 0 0.0031775)
(0 0 0.00329897)
(0 0 0.00342058)
(0 0 0.00354235)
(0 0 0.00366426)
(0 0 0.00378631)
(0 0 0.00390851)
(0 0 0.00403085)
(0 0 0.00415333)
(0 0 0.00427595)
(0 0 0.00439869)
(0 0 0.00452156)
(0 0 0.00464455)
(0 0 0.00476766)
(0 0 0.00489086)
(0 0 0.00501417)
(0 0 0.00513756)
(0 0 0.00526103)
(0 0 0.00538456)
(0 0 0.00550814)
(0 0 0.00563176)
(0 0 0.00575541)
(0 0 0.00587907)
(0 0 0.00600272)
(0 0 0.00612634)
(0 0 0.00624992)
(0 0 0.00637344)
(0 0 0.00649686)
(0 0 0.00662018)
(0 0 0.00674337)
(0 0 0.0068664)
(0 0 0.00698924)
(0 0 0.00711187)
(0 0 0.00723426)
(0 0 0.00735638)
(0 0 0.00747819)
(0 0 0.00759967)
(0 0 0.00772078)
(0 0 0.00784147)
(0 0 0.00796173)
(0 0 0.0080815)
(0 0 0.00820075)
(0 0 0.00831943)
(0 0 0.0084375)
(0 0 0.00855493)
(0 0 0.00867166)
(0 0 0.00878764)
(0 0 0.00890283)
(0 0 0.00901719)
(0 0 0.00913065)
(0 0 0.00924317)
(0 0 0.0093547)
(0 0 0.00946518)
(0 0 0.00957456)
(0 0 0.00968278)
(0 0 0.00978978)
(0 0 0.00989552)
(0 0 0.00999993)
(0 0 0.010103)
(0 0 0.0102045)
(0 0 0.0103046)
(0 0 0.0104031)
(0 0 0.0105)
(0 0 0.0105952)
(0 0 0.0106886)
(0 0 0.0107803)
(0 0 0.01087)
(0 0 0.0109579)
(0 0 0.0110437)
(0 0 0.0111276)
(0 0 0.0112093)
(0 0 0.0112888)
(0 0 0.0113661)
(0 0 0.0114412)
(0 0 0.0115139)
(0 0 0.0115842)
(0 0 0.0116521)
(0 0 0.0117175)
(0 0 0.0117804)
(0 0 0.0118406)
(0 0 0.0118983)
(0 0 0.0119532)
(0 0 0.0120054)
(0 0 0.0120549)
(0 0 0.0121016)
(0 0 0.0121454)
(0 0 0.0121863)
(0 0 0.0122244)
(0 0 0.0122595)
(0 0 0.0122916)
(0 0 0.0123208)
(0 0 0.0123469)
(0 0 0.0123701)
(0 0 0.0123901)
(0 0 0.0124072)
(0 0 0.0124211)
(0 0 0.012432)
(0 0 0.0124399)
(0 0 0.0124446)
(0 0 0.0124463)
(0 0 0.0124449)
(0 0 0.0124404)
(0 0 0.0124329)
(0 0 0.0124223)
(0 0 0.0124087)
(0 0 0.0123921)
(0 0 0.0123725)
(0 0 0.0123499)
(0 0 0.0123244)
(0 0 0.012296)
(0 0 0.0122647)
(0 0 0.0122306)
(0 0 0.0121936)
(0 0 0.0121539)
(0 0 0.0121114)
(0 0 0.0120662)
(0 0 0.0120184)
(0 0 0.0119679)
(0 0 0.0119149)
(0 0 0.0118594)
(0 0 0.0118014)
(0 0 0.011741)
(0 0 0.0116782)
(0 0 0.011613)
(0 0 0.0115457)
(0 0 0.0114761)
(0 0 0.0114043)
(0 0 0.0113304)
(0 0 0.0112545)
(0 0 0.0111766)
(0 0 0.0110968)
(0 0 0.0110151)
(0 0 0.0109315)
(0 0 0.0108462)
(0 0 0.0107592)
(0 0 0.0106705)
(0 0 0.0105802)
(0 0 0.0104884)
(0 0 0.0103951)
(0 0 0.0103003)
(0 0 0.0102042)
(0 0 0.0101067)
(0 0 0.010008)
(0 0 0.00990802)
(0 0 0.00980688)
(0 0 0.00970461)
(0 0 0.00960127)
(0 0 0.00949691)
(0 0 0.00939157)
(0 0 0.0092853)
(0 0 0.00917815)
(0 0 0.00907015)
(0 0 0.00896136)
(0 0 0.00885181)
(0 0 0.00874156)
(0 0 0.00863063)
(0 0 0.00851907)
(0 0 0.00840691)
(0 0 0.0082942)
(0 0 0.00818097)
(0 0 0.00806725)
(0 0 0.00795307)
(0 0 0.00783848)
(0 0 0.0077235)
(0 0 0.00760816)
(0 0 0.00749249)
(0 0 0.00737652)
(0 0 0.00726028)
(0 0 0.00714379)
(0 0 0.00702707)
(0 0 0.00691016)
(0 0 0.00679306)
(0 0 0.00667582)
(0 0 0.00655844)
(0 0 0.00644094)
(0 0 0.00632335)
(0 0 0.00620569)
(0 0 0.00608796)
(0 0 0.00597018)
(0 0 0.00585238)
(0 0 0.00573456)
(0 0 0.00561674)
(0 0 0.00549893)
(0 0 0.00538114)
(0 0 0.00526338)
(0 0 0.00514566)
(0 0 0.005028)
(0 0 0.0049104)
(0 0 0.00479286)
(0 0 0.00467541)
(0 0 0.00455803)
(0 0 0.00444074)
(0 0 0.00432355)
(0 0 0.00420645)
(0 0 0.00408945)
(0 0 0.00397256)
(0 0 0.00385578)
(0 0 0.00373911)
(0 0 0.00362255)
(0 0 0.00350611)
(0 0 0.00338978)
(0 0 0.00327356)
(0 0 0.00315746)
(0 0 0.00304148)
(0 0 0.0029256)
(0 0 0.00280985)
(0 0 0.0026942)
(0 0 0.00257866)
(0 0 0.00246323)
(0 0 0.0023479)
(0 0 0.00223267)
(0 0 0.00211754)
(0 0 0.00200251)
(0 0 0.00188757)
(0 0 0.00177271)
(0 0 0.00165794)
(0 0 0.00154324)
(0 0 0.00142862)
(0 0 0.00131407)
(0 0 0.00119959)
(0 0 0.00108516)
(0 0 0.000970783)
(0 0 0.000856458)
(0 0 0.000742175)
(0 0 0.000627931)
(0 0 0.000513718)
(0 0 0.000399531)
(0 0 0.000285365)
(0 0 0.000171213)
(0 0 5.707e-05)
(0 0 7.65489e-05)
(0 0 0.000229651)
(0 0 0.000382768)
(0 0 0.00053591)
(0 0 0.000689085)
(0 0 0.000842304)
(0 0 0.000995577)
(0 0 0.00114891)
(0 0 0.00130232)
(0 0 0.00145581)
(0 0 0.00160939)
(0 0 0.00176307)
(0 0 0.00191685)
(0 0 0.00207076)
(0 0 0.00222478)
(0 0 0.00237894)
(0 0 0.00253323)
(0 0 0.00268767)
(0 0 0.00284227)
(0 0 0.00299702)
(0 0 0.00315193)
(0 0 0.00330701)
(0 0 0.00346227)
(0 0 0.0036177)
(0 0 0.00377332)
(0 0 0.00392912)
(0 0 0.00408511)
(0 0 0.00424128)
(0 0 0.00439764)
(0 0 0.0045542)
(0 0 0.00471094)
(0 0 0.00486787)
(0 0 0.00502499)
(0 0 0.00518229)
(0 0 0.00533977)
(0 0 0.00549743)
(0 0 0.00565525)
(0 0 0.00581324)
(0 0 0.00597138)
(0 0 0.00612967)
(0 0 0.00628809)
(0 0 0.00644664)
(0 0 0.00660531)
(0 0 0.00676407)
(0 0 0.00692292)
(0 0 0.00708183)
(0 0 0.0072408)
(0 0 0.00739981)
(0 0 0.00755882)
(0 0 0.00771783)
(0 0 0.00787681)
(0 0 0.00803573)
(0 0 0.00819457)
(0 0 0.0083533)
(0 0 0.0085119)
(0 0 0.00867032)
(0 0 0.00882854)
(0 0 0.00898653)
(0 0 0.00914425)
(0 0 0.00930166)
(0 0 0.00945873)
(0 0 0.0096154)
(0 0 0.00977165)
(0 0 0.00992742)
(0 0 0.0100827)
(0 0 0.0102373)
(0 0 0.0103914)
(0 0 0.0105448)
(0 0 0.0106975)
(0 0 0.0108493)
(0 0 0.0110004)
(0 0 0.0111506)
(0 0 0.0112998)
(0 0 0.0114479)
(0 0 0.0115951)
(0 0 0.011741)
(0 0 0.0118858)
(0 0 0.0120293)
(0 0 0.0121714)
(0 0 0.0123121)
(0 0 0.0124514)
(0 0 0.0125891)
(0 0 0.0127251)
(0 0 0.0128594)
(0 0 0.012992)
(0 0 0.0131227)
(0 0 0.0132515)
(0 0 0.0133782)
(0 0 0.0135029)
(0 0 0.0136254)
(0 0 0.0137456)
(0 0 0.0138635)
(0 0 0.0139791)
(0 0 0.0140921)
(0 0 0.0142026)
(0 0 0.0143105)
(0 0 0.0144156)
(0 0 0.014518)
(0 0 0.0146175)
(0 0 0.0147141)
(0 0 0.0148077)
(0 0 0.0148982)
(0 0 0.0149856)
(0 0 0.0150697)
(0 0 0.0151506)
(0 0 0.0152282)
(0 0 0.0153024)
(0 0 0.0153731)
(0 0 0.0154403)
(0 0 0.015504)
(0 0 0.015564)
(0 0 0.0156204)
(0 0 0.0156731)
(0 0 0.0157221)
(0 0 0.0157673)
(0 0 0.0158086)
(0 0 0.0158462)
(0 0 0.0158798)
(0 0 0.0159096)
(0 0 0.0159354)
(0 0 0.0159573)
(0 0 0.0159753)
(0 0 0.0159893)
(0 0 0.0159994)
(0 0 0.0160055)
(0 0 0.0160076)
(0 0 0.0160058)
(0 0 0.016)
(0 0 0.0159903)
(0 0 0.0159767)
(0 0 0.0159592)
(0 0 0.0159378)
(0 0 0.0159126)
(0 0 0.0158835)
(0 0 0.0158507)
(0 0 0.0158141)
(0 0 0.0157738)
(0 0 0.0157299)
(0 0 0.0156823)
(0 0 0.0156311)
(0 0 0.0155764)
(0 0 0.0155183)
(0 0 0.0154567)
(0 0 0.0153918)
(0 0 0.0153235)
(0 0 0.015252)
(0 0 0.0151774)
(0 0 0.0150996)
(0 0 0.0150188)
(0 0 0.0149349)
(0 0 0.0148482)
(0 0 0.0147586)
(0 0 0.0146663)
(0 0 0.0145712)
(0 0 0.0144735)
(0 0 0.0143733)
(0 0 0.0142705)
(0 0 0.0141654)
(0 0 0.0140579)
(0 0 0.0139481)
(0 0 0.0138361)
(0 0 0.013722)
(0 0 0.0136058)
(0 0 0.0134877)
(0 0 0.0133676)
(0 0 0.0132457)
(0 0 0.013122)
(0 0 0.0129966)
(0 0 0.0128695)
(0 0 0.0127409)
(0 0 0.0126108)
(0 0 0.0124792)
(0 0 0.0123463)
(0 0 0.012212)
(0 0 0.0120765)
(0 0 0.0119398)
(0 0 0.0118019)
(0 0 0.011663)
(0 0 0.0115231)
(0 0 0.0113821)
(0 0 0.0112403)
(0 0 0.0110976)
(0 0 0.0109541)
(0 0 0.0108099)
(0 0 0.0106649)
(0 0 0.0105192)
(0 0 0.010373)
(0 0 0.0102261)
(0 0 0.0100787)
(0 0 0.00993084)
(0 0 0.00978249)
(0 0 0.00963373)
(0 0 0.00948458)
(0 0 0.00933508)
(0 0 0.00918526)
(0 0 0.00903516)
(0 0 0.0088848)
(0 0 0.00873422)
(0 0 0.00858344)
(0 0 0.00843249)
(0 0 0.00828139)
(0 0 0.00813017)
(0 0 0.00797885)
(0 0 0.00782746)
(0 0 0.00767601)
(0 0 0.00752453)
(0 0 0.00737302)
(0 0 0.00722151)
(0 0 0.00707002)
(0 0 0.00691856)
(0 0 0.00676714)
(0 0 0.00661577)
(0 0 0.00646448)
(0 0 0.00631326)
(0 0 0.00616213)
(0 0 0.0060111)
(0 0 0.00586018)
(0 0 0.00570937)
(0 0 0.00555869)
(0 0 0.00540812)
(0 0 0.0052577)
(0 0 0.0051074)
(0 0 0.00495725)
(0 0 0.00480724)
(0 0 0.00465738)
(0 0 0.00450766)
(0 0 0.00435809)
(0 0 0.00420867)
(0 0 0.0040594)
(0 0 0.00391028)
(0 0 0.0037613)
(0 0 0.00361247)
(0 0 0.00346379)
(0 0 0.00331524)
(0 0 0.00316683)
(0 0 0.00301856)
(0 0 0.00287041)
(0 0 0.0027224)
(0 0 0.0025745)
(0 0 0.00242673)
(0 0 0.00227906)
(0 0 0.0021315)
(0 0 0.00198405)
(0 0 0.00183669)
(0 0 0.00168941)
(0 0 0.00154222)
(0 0 0.00139511)
(0 0 0.00124807)
(0 0 0.00110109)
(0 0 0.000954162)
(0 0 0.000807286)
(0 0 0.00066045)
(0 0 0.000513648)
(0 0 0.000366873)
(0 0 0.000220116)
(0 0 7.33708e-05)
(0 0 9.35498e-05)
(0 0 0.000280655)
(0 0 0.000467778)
(0 0 0.000654931)
(0 0 0.000842126)
(0 0 0.00102937)
(0 0 0.00121669)
(0 0 0.00140408)
(0 0 0.00159156)
(0 0 0.00177914)
(0 0 0.00196683)
(0 0 0.00215464)
(0 0 0.00234259)
(0 0 0.00253067)
(0 0 0.00271891)
(0 0 0.00290731)
(0 0 0.00309588)
(0 0 0.00328463)
(0 0 0.00347356)
(0 0 0.00366269)
(0 0 0.00385202)
(0 0 0.00404156)
(0 0 0.00423131)
(0 0 0.00442127)
(0 0 0.00461146)
(0 0 0.00480188)
(0 0 0.00499253)
(0 0 0.00518341)
(0 0 0.00537452)
(0 0 0.00556586)
(0 0 0.00575744)
(0 0 0.00594925)
(0 0 0.00614129)
(0 0 0.00633355)
(0 0 0.00652604)
(0 0 0.00671874)
(0 0 0.00691165)
(0 0 0.00710476)
(0 0 0.00729806)
(0 0 0.00749154)
(0 0 0.0076852)
(0 0 0.007879)
(0 0 0.00807295)
(0 0 0.00826703)
(0 0 0.00846121)
(0 0 0.00865547)
(0 0 0.00884981)
(0 0 0.00904419)
(0 0 0.00923858)
(0 0 0.00943297)
(0 0 0.00962733)
(0 0 0.00982162)
(0 0 0.0100158)
(0 0 0.0102099)
(0 0 0.0104038)
(0 0 0.0105975)
(0 0 0.0107909)
(0 0 0.0109841)
(0 0 0.0111769)
(0 0 0.0113694)
(0 0 0.0115615)
(0 0 0.011753)
(0 0 0.0119441)
(0 0 0.0121346)
(0 0 0.0123244)
(0 0 0.0125136)
(0 0 0.012702)
(0 0 0.0128896)
(0 0 0.0130763)
(0 0 0.013262)
(0 0 0.0134468)
(0 0 0.0136304)
(0 0 0.0138129)
(0 0 0.0139941)
(0 0 0.0141741)
(0 0 0.0143526)
(0 0 0.0145297)
(0 0 0.0147052)
(0 0 0.0148791)
(0 0 0.0150512)
(0 0 0.0152215)
(0 0 0.01539)
(0 0 0.0155564)
(0 0 0.0157207)
(0 0 0.0158829)
(0 0 0.0160428)
(0 0 0.0162003)
(0 0 0.0163554)
(0 0 0.0165079)
(0 0 0.0166578)
(0 0 0.0168049)
(0 0 0.0169492)
(0 0 0.0170906)
(0 0 0.0172289)
(0 0 0.0173641)
(0 0 0.0174961)
(0 0 0.0176248)
(0 0 0.0177501)
(0 0 0.0178718)
(0 0 0.01799)
(0 0 0.0181045)
(0 0 0.0182153)
(0 0 0.0183222)
(0 0 0.0184252)
(0 0 0.0185242)
(0 0 0.0186192)
(0 0 0.0187099)
(0 0 0.0187965)
(0 0 0.0188788)
(0 0 0.0189567)
(0 0 0.0190302)
(0 0 0.0190992)
(0 0 0.0191637)
(0 0 0.0192236)
(0 0 0.0192789)
(0 0 0.0193295)
(0 0 0.0193754)
(0 0 0.0194166)
(0 0 0.019453)
(0 0 0.0194846)
(0 0 0.0195115)
(0 0 0.0195334)
(0 0 0.0195506)
(0 0 0.0195629)
(0 0 0.0195703)
(0 0 0.0195729)
(0 0 0.0195707)
(0 0 0.0195636)
(0 0 0.0195517)
(0 0 0.0195351)
(0 0 0.0195136)
(0 0 0.0194874)
(0 0 0.0194565)
(0 0 0.0194209)
(0 0 0.0193807)
(0 0 0.0193359)
(0 0 0.0192866)
(0 0 0.0192328)
(0 0 0.0191745)
(0 0 0.0191119)
(0 0 0.0190449)
(0 0 0.0189737)
(0 0 0.0188984)
(0 0 0.0188189)
(0 0 0.0187353)
(0 0 0.0186479)
(0 0 0.0185565)
(0 0 0.0184613)
(0 0 0.0183623)
(0 0 0.0182598)
(0 0 0.0181536)
(0 0 0.018044)
(0 0 0.017931)
(0 0 0.0178147)
(0 0 0.0176951)
(0 0 0.0175724)
(0 0 0.0174467)
(0 0 0.017318)
(0 0 0.0171865)
(0 0 0.0170522)
(0 0 0.0169152)
(0 0 0.0167755)
(0 0 0.0166334)
(0 0 0.0164888)
(0 0 0.0163419)
(0 0 0.0161928)
(0 0 0.0160415)
(0 0 0.015888)
(0 0 0.0157326)
(0 0 0.0155753)
(0 0 0.0154161)
(0 0 0.0152552)
(0 0 0.0150926)
(0 0 0.0149284)
(0 0 0.0147626)
(0 0 0.0145954)
(0 0 0.0144268)
(0 0 0.0142569)
(0 0 0.0140857)
(0 0 0.0139134)
(0 0 0.0137399)
(0 0 0.0135654)
(0 0 0.0133899)
(0 0 0.0132135)
(0 0 0.0130362)
(0 0 0.0128581)
(0 0 0.0126793)
(0 0 0.0124997)
(0 0 0.0123195)
(0 0 0.0121386)
(0 0 0.0119573)
(0 0 0.0117754)
(0 0 0.011593)
(0 0 0.0114102)
(0 0 0.011227)
(0 0 0.0110435)
(0 0 0.0108597)
(0 0 0.0106756)
(0 0 0.0104912)
(0 0 0.0103067)
(0 0 0.010122)
(0 0 0.00993709)
(0 0 0.00975211)
(0 0 0.00956703)
(0 0 0.00938188)
(0 0 0.0091967)
(0 0 0.00901149)
(0 0 0.00882628)
(0 0 0.00864109)
(0 0 0.00845594)
(0 0 0.00827085)
(0 0 0.00808582)
(0 0 0.00790088)
(0 0 0.00771604)
(0 0 0.00753131)
(0 0 0.0073467)
(0 0 0.00716222)
(0 0 0.00697789)
(0 0 0.0067937)
(0 0 0.00660967)
(0 0 0.00642581)
(0 0 0.00624211)
(0 0 0.00605858)
(0 0 0.00587523)
(0 0 0.00569206)
(0 0 0.00550907)
(0 0 0.00532627)
(0 0 0.00514364)
(0 0 0.0049612)
(0 0 0.00477894)
(0 0 0.00459686)
(0 0 0.00441496)
(0 0 0.00423324)
(0 0 0.00405169)
(0 0 0.0038703)
(0 0 0.00368909)
(0 0 0.00350803)
(0 0 0.00332713)
(0 0 0.00314638)
(0 0 0.00296578)
(0 0 0.00278531)
(0 0 0.00260497)
(0 0 0.00242476)
(0 0 0.00224466)
(0 0 0.00206467)
(0 0 0.00188479)
(0 0 0.001705)
(0 0 0.00152529)
(0 0 0.00134566)
(0 0 0.0011661)
(0 0 0.0009866)
(0 0 0.000807149)
(0 0 0.00062774)
(0 0 0.000448363)
(0 0 0.000269008)
(0 0 8.96679e-05)
(0 0 0.000110545)
(0 0 0.000331641)
(0 0 0.000552758)
(0 0 0.000773911)
(0 0 0.000995114)
(0 0 0.00121638)
(0 0 0.00143772)
(0 0 0.00165916)
(0 0 0.0018807)
(0 0 0.00210236)
(0 0 0.00232415)
(0 0 0.00254609)
(0 0 0.00276818)
(0 0 0.00299044)
(0 0 0.00321288)
(0 0 0.00343552)
(0 0 0.00365835)
(0 0 0.0038814)
(0 0 0.00410466)
(0 0 0.00432816)
(0 0 0.0045519)
(0 0 0.00477589)
(0 0 0.00500012)
(0 0 0.00522462)
(0 0 0.00544938)
(0 0 0.00567441)
(0 0 0.00589972)
(0 0 0.0061253)
(0 0 0.00635116)
(0 0 0.00657729)
(0 0 0.00680371)
(0 0 0.0070304)
(0 0 0.00725736)
(0 0 0.00748459)
(0 0 0.00771209)
(0 0 0.00793984)
(0 0 0.00816785)
(0 0 0.00839609)
(0 0 0.00862456)
(0 0 0.00885325)
(0 0 0.00908215)
(0 0 0.00931123)
(0 0 0.00954048)
(0 0 0.00976988)
(0 0 0.00999941)
(0 0 0.0102291)
(0 0 0.0104588)
(0 0 0.0106885)
(0 0 0.0109184)
(0 0 0.0111482)
(0 0 0.0113779)
(0 0 0.0116076)
(0 0 0.0118372)
(0 0 0.0120666)
(0 0 0.0122959)
(0 0 0.0125249)
(0 0 0.0127536)
(0 0 0.012982)
(0 0 0.01321)
(0 0 0.0134376)
(0 0 0.0136647)
(0 0 0.0138912)
(0 0 0.0141171)
(0 0 0.0143424)
(0 0 0.0145669)
(0 0 0.0147906)
(0 0 0.0150134)
(0 0 0.0152352)
(0 0 0.015456)
(0 0 0.0156757)
(0 0 0.0158942)
(0 0 0.0161114)
(0 0 0.0163273)
(0 0 0.0165417)
(0 0 0.0167545)
(0 0 0.0169657)
(0 0 0.0171751)
(0 0 0.0173828)
(0 0 0.0175884)
(0 0 0.0177921)
(0 0 0.0179936)
(0 0 0.0181929)
(0 0 0.0183898)
(0 0 0.0185842)
(0 0 0.0187761)
(0 0 0.0189653)
(0 0 0.0191517)
(0 0 0.0193352)
(0 0 0.0195156)
(0 0 0.019693)
(0 0 0.0198671)
(0 0 0.0200379)
(0 0 0.0202051)
(0 0 0.0203688)
(0 0 0.0205289)
(0 0 0.0206851)
(0 0 0.0208373)
(0 0 0.0209856)
(0 0 0.0211297)
(0 0 0.0212696)
(0 0 0.0214052)
(0 0 0.0215363)
(0 0 0.0216628)
(0 0 0.0217847)
(0 0 0.0219019)
(0 0 0.0220143)
(0 0 0.0221217)
(0 0 0.0222242)
(0 0 0.0223216)
(0 0 0.0224138)
(0 0 0.0225008)
(0 0 0.0225825)
(0 0 0.0226588)
(0 0 0.0227297)
(0 0 0.0227952)
(0 0 0.0228551)
(0 0 0.0229094)
(0 0 0.0229582)
(0 0 0.0230013)
(0 0 0.0230387)
(0 0 0.0230704)
(0 0 0.0230964)
(0 0 0.0231167)
(0 0 0.0231312)
(0 0 0.02314)
(0 0 0.0231431)
(0 0 0.0231404)
(0 0 0.023132)
(0 0 0.0231179)
(0 0 0.0230982)
(0 0 0.0230727)
(0 0 0.0230417)
(0 0 0.0230051)
(0 0 0.022963)
(0 0 0.0229154)
(0 0 0.0228623)
(0 0 0.0228039)
(0 0 0.0227401)
(0 0 0.0226711)
(0 0 0.022597)
(0 0 0.0225177)
(0 0 0.0224334)
(0 0 0.0223442)
(0 0 0.0222501)
(0 0 0.0221512)
(0 0 0.0220476)
(0 0 0.0219394)
(0 0 0.0218267)
(0 0 0.0217096)
(0 0 0.0215882)
(0 0 0.0214625)
(0 0 0.0213328)
(0 0 0.021199)
(0 0 0.0210613)
(0 0 0.0209198)
(0 0 0.0207747)
(0 0 0.0206259)
(0 0 0.0204736)
(0 0 0.0203179)
(0 0 0.0201589)
(0 0 0.0199968)
(0 0 0.0198316)
(0 0 0.0196634)
(0 0 0.0194924)
(0 0 0.0193186)
(0 0 0.0191421)
(0 0 0.018963)
(0 0 0.0187815)
(0 0 0.0185977)
(0 0 0.0184116)
(0 0 0.0182232)
(0 0 0.0180329)
(0 0 0.0178405)
(0 0 0.0176462)
(0 0 0.0174502)
(0 0 0.0172524)
(0 0 0.017053)
(0 0 0.016852)
(0 0 0.0166496)
(0 0 0.0164457)
(0 0 0.0162406)
(0 0 0.0160342)
(0 0 0.0158267)
(0 0 0.0156181)
(0 0 0.0154084)
(0 0 0.0151978)
(0 0 0.0149863)
(0 0 0.0147739)
(0 0 0.0145608)
(0 0 0.014347)
(0 0 0.0141325)
(0 0 0.0139175)
(0 0 0.0137018)
(0 0 0.0134857)
(0 0 0.0132691)
(0 0 0.0130522)
(0 0 0.0128348)
(0 0 0.0126172)
(0 0 0.0123992)
(0 0 0.0121811)
(0 0 0.0119627)
(0 0 0.0117441)
(0 0 0.0115255)
(0 0 0.0113067)
(0 0 0.0110878)
(0 0 0.0108689)
(0 0 0.01065)