/*--------------------------------*- C++ -*----------------------------------*\
| =========                 |                                                 |
| \\      /  F ield         | OpenFOAM: The Open Source CFD Toolbox           |
|  \\    /   O peration     | Version:  v2012                                 |
|   \\  /    A nd           | Website:  www.openfoam.com                      |
|    \\/     M anipulation  |                                                 |
\*---------------------------------------------------------------------------*/
FoamFile
{
    version     2.0;
    format      ascii;
    class       volVectorField;
    location    "15";
    object      W;
}
// * * * * * * * * * * * * * * * * * * * * * * * * * * * * * * * * * * * * * //

dimensions      [0 0 -1 0 0 0 0];


internalField   nonuniform List<vector> 
65536
(
(0 -0 2.11453e-08)
(0 -0 3.99125e-08)
(0 -0 -2.97989e-07)
(0 -0 -3.81458e-07)
(0 -0 -3.96281e-07)
(0 -0 -3.90596e-07)
(0 -0 -3.80789e-07)
(0 -0 -3.71694e-07)
(0 -0 -3.64285e-07)
(0 -0 -3.59057e-07)
(0 -0 -3.5619e-07)
(0 -0 -3.55319e-07)
(0 -0 -3.5569e-07)
(0 -0 -3.57099e-07)
(0 -0 -3.5964e-07)
(0 -0 -3.62788e-07)
(0 -0 -3.66567e-07)
(0 -0 -3.7098e-07)
(0 -0 -3.75784e-07)
(0 -0 -3.80958e-07)
(0 -0 -3.86392e-07)
(0 -0 -3.92285e-07)
(0 -0 -3.98527e-07)
(0 -0 -4.04653e-07)
(0 -0 -4.10876e-07)
(0 -0 -4.17434e-07)
(0 -0 -4.2415e-07)
(0 -0 -4.31009e-07)
(0 -0 -4.37911e-07)
(0 -0 -4.44731e-07)
(0 -0 -4.51678e-07)
(0 -0 -4.58703e-07)
(0 -0 -4.65571e-07)
(0 -0 -4.72492e-07)
(0 -0 -4.79632e-07)
(0 -0 -4.86756e-07)
(0 -0 -4.93798e-07)
(0 -0 -5.0081e-07)
(0 -0 -5.07681e-07)
(0 -0 -5.14531e-07)
(0 -0 -5.21601e-07)
(0 -0 -5.28703e-07)
(0 -0 -5.35581e-07)
(0 -0 -5.42386e-07)
(0 -0 -5.49289e-07)
(0 -0 -5.56256e-07)
(0 -0 -5.63337e-07)
(0 -0 -5.7054e-07)
(0 -0 -5.77648e-07)
(0 -0 -5.84634e-07)
(0 -0 -5.91827e-07)
(0 -0 -5.99378e-07)
(0 -0 -6.0707e-07)
(0 -0 -6.14747e-07)
(0 -0 -6.22476e-07)
(0 -0 -6.30338e-07)
(0 -0 -6.38411e-07)
(0 -0 -6.46814e-07)
(0 -0 -6.55491e-07)
(0 -0 -6.64166e-07)
(0 -0 -6.72718e-07)
(0 -0 -6.81367e-07)
(0 -0 -6.90315e-07)
(0 -0 -6.99472e-07)
(0 -0 -7.08682e-07)
(0 -0 -7.17953e-07)
(0 -0 -7.27317e-07)
(0 -0 -7.36683e-07)
(0 -0 -7.45956e-07)
(0 -0 -7.55192e-07)
(0 -0 -7.64489e-07)
(0 -0 -7.73856e-07)
(0 -0 -7.83265e-07)
(0 -0 -7.92733e-07)
(0 -0 -8.02254e-07)
(0 -0 -8.11732e-07)
(0 -0 -8.21076e-07)
(0 -0 -8.30361e-07)
(0 -0 -8.39755e-07)
(0 -0 -8.49327e-07)
(0 -0 -8.59017e-07)
(0 -0 -8.68783e-07)
(0 -0 -8.78632e-07)
(0 -0 -8.88544e-07)
(0 -0 -8.98522e-07)
(0 -0 -9.08649e-07)
(0 -0 -9.18999e-07)
(0 -0 -9.29525e-07)
(0 -0 -9.40106e-07)
(0 -0 -9.50706e-07)
(0 -0 -9.61408e-07)
(0 -0 -9.72285e-07)
(0 -0 -9.83301e-07)
(0 -0 -9.94394e-07)
(0 -0 -1.00556e-06)
(0 -0 -1.0168e-06)
(0 -0 -1.02809e-06)
(0 -0 -1.03946e-06)
(0 -0 -1.0509e-06)
(0 -0 -1.06233e-06)
(0 -0 -1.07376e-06)
(0 -0 -1.08521e-06)
(0 -0 -1.09673e-06)
(0 -0 -1.10838e-06)
(0 -0 -1.12013e-06)
(0 -0 -1.13188e-06)
(0 -0 -1.14356e-06)
(0 -0 -1.15518e-06)
(0 -0 -1.16682e-06)
(0 -0 -1.17856e-06)
(0 -0 -1.19033e-06)
(0 -0 -1.20195e-06)
(0 -0 -1.21328e-06)
(0 -0 -1.22443e-06)
(0 -0 -1.23563e-06)
(0 -0 -1.24679e-06)
(0 -0 -1.25776e-06)
(0 -0 -1.26835e-06)
(0 -0 -1.27828e-06)
(0 -0 -1.28771e-06)
(0 -0 -1.29705e-06)
(0 -0 -1.30644e-06)
(0 -0 -1.31548e-06)
(0 -0 -1.3238e-06)
(0 -0 -1.33141e-06)
(0 -0 -1.33852e-06)
(0 -0 -1.3453e-06)
(0 -0 -1.35174e-06)
(0 -0 -1.35782e-06)
(0 -0 -1.36359e-06)
(0 -0 -1.36895e-06)
(0 -0 -1.37379e-06)
(0 -0 -1.37824e-06)
(0 -0 -1.38255e-06)
(0 -0 -1.38681e-06)
(0 -0 -1.39096e-06)
(0 -0 -1.39471e-06)
(0 -0 -1.39802e-06)
(0 -0 -1.4011e-06)
(0 -0 -1.40427e-06)
(0 -0 -1.40763e-06)
(0 -0 -1.41077e-06)
(0 -0 -1.4133e-06)
(0 -0 -1.4153e-06)
(0 -0 -1.41701e-06)
(0 -0 -1.41862e-06)
(0 -0 -1.42006e-06)
(0 -0 -1.42102e-06)
(0 -0 -1.42138e-06)
(0 -0 -1.42124e-06)
(0 -0 -1.42077e-06)
(0 -0 -1.42006e-06)
(0 -0 -1.41903e-06)
(0 -0 -1.41766e-06)
(0 -0 -1.41583e-06)
(0 -0 -1.41368e-06)
(0 -0 -1.41134e-06)
(0 -0 -1.40882e-06)
(0 -0 -1.40609e-06)
(0 -0 -1.4031e-06)
(0 -0 -1.39988e-06)
(0 -0 -1.39655e-06)
(0 -0 -1.39316e-06)
(0 -0 -1.38975e-06)
(0 -0 -1.38632e-06)
(0 -0 -1.38282e-06)
(0 -0 -1.37928e-06)
(0 -0 -1.37571e-06)
(0 -0 -1.37218e-06)
(0 -0 -1.36874e-06)
(0 -0 -1.36537e-06)
(0 -0 -1.36202e-06)
(0 -0 -1.35857e-06)
(0 -0 -1.35504e-06)
(0 -0 -1.3514e-06)
(0 -0 -1.34767e-06)
(0 -0 -1.34391e-06)
(0 -0 -1.34008e-06)
(0 -0 -1.33612e-06)
(0 -0 -1.33202e-06)
(0 -0 -1.32774e-06)
(0 -0 -1.32328e-06)
(0 -0 -1.31861e-06)
(0 -0 -1.31375e-06)
(0 -0 -1.3088e-06)
(0 -0 -1.30383e-06)
(0 -0 -1.29874e-06)
(0 -0 -1.2935e-06)
(0 -0 -1.28801e-06)
(0 -0 -1.2822e-06)
(0 -0 -1.27621e-06)
(0 -0 -1.27004e-06)
(0 -0 -1.26367e-06)
(0 -0 -1.25704e-06)
(0 -0 -1.2501e-06)
(0 -0 -1.24296e-06)
(0 -0 -1.23562e-06)
(0 -0 -1.22808e-06)
(0 -0 -1.22032e-06)
(0 -0 -1.21252e-06)
(0 -0 -1.20471e-06)
(0 -0 -1.19685e-06)
(0 -0 -1.18894e-06)
(0 -0 -1.18079e-06)
(0 -0 -1.1723e-06)
(0 -0 -1.16347e-06)
(0 -0 -1.15419e-06)
(0 -0 -1.14433e-06)
(0 -0 -1.13374e-06)
(0 -0 -1.12234e-06)
(0 -0 -1.10997e-06)
(0 -0 -1.09648e-06)
(0 -0 -1.08188e-06)
(0 -0 -1.06619e-06)
(0 -0 -1.04936e-06)
(0 -0 -1.03136e-06)
(0 -0 -1.01219e-06)
(0 -0 -9.91999e-07)
(0 -0 -9.70966e-07)
(0 -0 -9.49194e-07)
(0 -0 -9.26795e-07)
(0 -0 -9.03891e-07)
(0 -0 -8.80637e-07)
(0 -0 -8.57185e-07)
(0 -0 -8.33589e-07)
(0 -0 -8.09818e-07)
(0 -0 -7.85831e-07)
(0 -0 -7.61512e-07)
(0 -0 -7.36761e-07)
(0 -0 -7.11473e-07)
(0 -0 -6.85566e-07)
(0 -0 -6.59015e-07)
(0 -0 -6.31843e-07)
(0 -0 -6.04163e-07)
(0 -0 -5.76076e-07)
(0 -0 -5.47764e-07)
(0 -0 -5.1944e-07)
(0 -0 -4.91277e-07)
(0 -0 -4.63418e-07)
(0 -0 -4.35882e-07)
(0 -0 -4.08606e-07)
(0 -0 -3.81435e-07)
(0 -0 -3.54256e-07)
(0 -0 -3.26983e-07)
(0 -0 -2.99621e-07)
(0 -0 -2.72212e-07)
(0 -0 -2.44796e-07)
(0 -0 -2.17524e-07)
(0 -0 -1.90587e-07)
(0 -0 -1.64147e-07)
(0 -0 -1.38242e-07)
(0 -0 -1.12772e-07)
(0 -0 -8.76048e-08)
(0 -0 -6.26454e-08)
(0 -0 -3.78985e-08)
(0 -0 -1.28072e-08)
(0 -0 5.92079e-08)
(0 -0 1.10224e-07)
(0 -0 -4.21049e-07)
(0 -0 -6.05183e-07)
(0 -0 -6.84302e-07)
(0 -0 -7.21208e-07)
(0 -0 -7.42125e-07)
(0 -0 -7.57285e-07)
(0 -0 -7.71474e-07)
(0 -0 -7.86561e-07)
(0 -0 -8.02677e-07)
(0 -0 -8.19778e-07)
(0 -0 -8.3749e-07)
(0 -0 -8.5593e-07)
(0 -0 -8.7537e-07)
(0 -0 -8.95712e-07)
(0 -0 -9.16662e-07)
(0 -0 -9.37971e-07)
(0 -0 -9.59895e-07)
(0 -0 -9.82333e-07)
(0 -0 -1.00496e-06)
(0 -0 -1.02793e-06)
(0 -0 -1.05112e-06)
(0 -0 -1.07437e-06)
(0 -0 -1.09782e-06)
(0 -0 -1.12146e-06)
(0 -0 -1.14536e-06)
(0 -0 -1.16953e-06)
(0 -0 -1.19352e-06)
(0 -0 -1.21725e-06)
(0 -0 -1.2411e-06)
(0 -0 -1.26503e-06)
(0 -0 -1.28892e-06)
(0 -0 -1.31285e-06)
(0 -0 -1.33661e-06)
(0 -0 -1.36009e-06)
(0 -0 -1.38351e-06)
(0 -0 -1.40683e-06)
(0 -0 -1.42985e-06)
(0 -0 -1.45277e-06)
(0 -0 -1.47574e-06)
(0 -0 -1.4985e-06)
(0 -0 -1.52101e-06)
(0 -0 -1.54348e-06)
(0 -0 -1.5659e-06)
(0 -0 -1.58826e-06)
(0 -0 -1.61073e-06)
(0 -0 -1.63331e-06)
(0 -0 -1.65582e-06)
(0 -0 -1.67841e-06)
(0 -0 -1.70138e-06)
(0 -0 -1.72473e-06)
(0 -0 -1.74839e-06)
(0 -0 -1.77239e-06)
(0 -0 -1.79671e-06)
(0 -0 -1.82118e-06)
(0 -0 -1.84592e-06)
(0 -0 -1.8713e-06)
(0 -0 -1.89739e-06)
(0 -0 -1.92383e-06)
(0 -0 -1.95036e-06)
(0 -0 -1.97707e-06)
(0 -0 -2.00415e-06)
(0 -0 -2.03158e-06)
(0 -0 -2.05925e-06)
(0 -0 -2.0871e-06)
(0 -0 -2.11505e-06)
(0 -0 -2.14306e-06)
(0 -0 -2.17112e-06)
(0 -0 -2.19924e-06)
(0 -0 -2.22733e-06)
(0 -0 -2.25534e-06)
(0 -0 -2.28335e-06)
(0 -0 -2.31145e-06)
(0 -0 -2.33961e-06)
(0 -0 -2.36767e-06)
(0 -0 -2.39565e-06)
(0 -0 -2.42376e-06)
(0 -0 -2.45214e-06)
(0 -0 -2.48073e-06)
(0 -0 -2.50949e-06)
(0 -0 -2.53848e-06)
(0 -0 -2.56779e-06)
(0 -0 -2.59737e-06)
(0 -0 -2.62726e-06)
(0 -0 -2.65761e-06)
(0 -0 -2.6885e-06)
(0 -0 -2.7198e-06)
(0 -0 -2.7514e-06)
(0 -0 -2.7833e-06)
(0 -0 -2.81566e-06)
(0 -0 -2.84847e-06)
(0 -0 -2.88155e-06)
(0 -0 -2.91481e-06)
(0 -0 -2.94836e-06)
(0 -0 -2.98226e-06)
(0 -0 -3.01645e-06)
(0 -0 -3.05091e-06)
(0 -0 -3.08556e-06)
(0 -0 -3.12028e-06)
(0 -0 -3.15502e-06)
(0 -0 -3.18993e-06)
(0 -0 -3.22515e-06)
(0 -0 -3.26072e-06)
(0 -0 -3.29643e-06)
(0 -0 -3.33206e-06)
(0 -0 -3.36758e-06)
(0 -0 -3.4032e-06)
(0 -0 -3.43906e-06)
(0 -0 -3.47502e-06)
(0 -0 -3.5108e-06)
(0 -0 -3.54612e-06)
(0 -0 -3.58092e-06)
(0 -0 -3.61547e-06)
(0 -0 -3.64986e-06)
(0 -0 -3.68376e-06)
(0 -0 -3.71675e-06)
(0 -0 -3.74862e-06)
(0 -0 -3.7795e-06)
(0 -0 -3.80963e-06)
(0 -0 -3.83896e-06)
(0 -0 -3.86715e-06)
(0 -0 -3.89387e-06)
(0 -0 -3.91894e-06)
(0 -0 -3.94262e-06)
(0 -0 -3.96526e-06)
(0 -0 -3.9868e-06)
(0 -0 -4.00702e-06)
(0 -0 -4.02579e-06)
(0 -0 -4.04317e-06)
(0 -0 -4.05946e-06)
(0 -0 -4.07471e-06)
(0 -0 -4.08906e-06)
(0 -0 -4.10286e-06)
(0 -0 -4.11602e-06)
(0 -0 -4.12817e-06)
(0 -0 -4.13956e-06)
(0 -0 -4.15039e-06)
(0 -0 -4.16108e-06)
(0 -0 -4.17155e-06)
(0 -0 -4.18127e-06)
(0 -0 -4.18998e-06)
(0 -0 -4.19759e-06)
(0 -0 -4.20454e-06)
(0 -0 -4.21101e-06)
(0 -0 -4.21666e-06)
(0 -0 -4.22104e-06)
(0 -0 -4.22395e-06)
(0 -0 -4.22541e-06)
(0 -0 -4.22575e-06)
(0 -0 -4.22506e-06)
(0 -0 -4.22342e-06)
(0 -0 -4.22077e-06)
(0 -0 -4.21711e-06)
(0 -0 -4.2123e-06)
(0 -0 -4.2065e-06)
(0 -0 -4.20006e-06)
(0 -0 -4.19308e-06)
(0 -0 -4.18553e-06)
(0 -0 -4.17731e-06)
(0 -0 -4.16855e-06)
(0 -0 -4.15949e-06)
(0 -0 -4.15023e-06)
(0 -0 -4.14078e-06)
(0 -0 -4.13127e-06)
(0 -0 -4.12171e-06)
(0 -0 -4.11223e-06)
(0 -0 -4.10281e-06)
(0 -0 -4.09341e-06)
(0 -0 -4.08423e-06)
(0 -0 -4.07522e-06)
(0 -0 -4.06631e-06)
(0 -0 -4.05725e-06)
(0 -0 -4.04808e-06)
(0 -0 -4.03873e-06)
(0 -0 -4.02911e-06)
(0 -0 -4.01929e-06)
(0 -0 -4.00931e-06)
(0 -0 -3.99911e-06)
(0 -0 -3.98854e-06)
(0 -0 -3.97744e-06)
(0 -0 -3.96577e-06)
(0 -0 -3.95363e-06)
(0 -0 -3.94113e-06)
(0 -0 -3.92818e-06)
(0 -0 -3.91485e-06)
(0 -0 -3.90101e-06)
(0 -0 -3.88675e-06)
(0 -0 -3.872e-06)
(0 -0 -3.85644e-06)
(0 -0 -3.83995e-06)
(0 -0 -3.8226e-06)
(0 -0 -3.80436e-06)
(0 -0 -3.78526e-06)
(0 -0 -3.76507e-06)
(0 -0 -3.74383e-06)
(0 -0 -3.72168e-06)
(0 -0 -3.6989e-06)
(0 -0 -3.67545e-06)
(0 -0 -3.65138e-06)
(0 -0 -3.62675e-06)
(0 -0 -3.60158e-06)
(0 -0 -3.57601e-06)
(0 -0 -3.54985e-06)
(0 -0 -3.52263e-06)
(0 -0 -3.49416e-06)
(0 -0 -3.46432e-06)
(0 -0 -3.43291e-06)
(0 -0 -3.39963e-06)
(0 -0 -3.36414e-06)
(0 -0 -3.32614e-06)
(0 -0 -3.2854e-06)
(0 -0 -3.24186e-06)
(0 -0 -3.19538e-06)
(0 -0 -3.14586e-06)
(0 -0 -3.0932e-06)
(0 -0 -3.03746e-06)
(0 -0 -2.97881e-06)
(0 -0 -2.91755e-06)
(0 -0 -2.85378e-06)
(0 -0 -2.78779e-06)
(0 -0 -2.71992e-06)
(0 -0 -2.65058e-06)
(0 -0 -2.58006e-06)
(0 -0 -2.50857e-06)
(0 -0 -2.43615e-06)
(0 -0 -2.36279e-06)
(0 -0 -2.2884e-06)
(0 -0 -2.21291e-06)
(0 -0 -2.13619e-06)
(0 -0 -2.05812e-06)
(0 -0 -1.97868e-06)
(0 -0 -1.89785e-06)
(0 -0 -1.81576e-06)
(0 -0 -1.73265e-06)
(0 -0 -1.64885e-06)
(0 -0 -1.56481e-06)
(0 -0 -1.48083e-06)
(0 -0 -1.3972e-06)
(0 -0 -1.314e-06)
(0 -0 -1.23121e-06)
(0 -0 -1.14875e-06)
(0 -0 -1.0665e-06)
(0 -0 -9.84345e-07)
(0 -0 -9.02177e-07)
(0 -0 -8.20002e-07)
(0 -0 -7.37935e-07)
(0 -0 -6.56294e-07)
(0 -0 -5.75467e-07)
(0 -0 -4.95723e-07)
(0 -0 -4.1715e-07)
(0 -0 -3.39708e-07)
(0 -0 -2.63333e-07)
(0 -0 -1.8793e-07)
(0 -0 -1.1348e-07)
(0 -0 -3.82829e-08)
(0 -0 3.86802e-07)
(0 -0 6.05062e-07)
(0 -0 6.28227e-08)
(0 -0 -2.52491e-07)
(0 -0 -4.57076e-07)
(0 -0 -5.97591e-07)
(0 -0 -7.01669e-07)
(0 -0 -7.84655e-07)
(0 -0 -8.54934e-07)
(0 -0 -9.17184e-07)
(0 -0 -9.74279e-07)
(0 -0 -1.02772e-06)
(0 -0 -1.0787e-06)
(0 -0 -1.12799e-06)
(0 -0 -1.17603e-06)
(0 -0 -1.22329e-06)
(0 -0 -1.26977e-06)
(0 -0 -1.31571e-06)
(0 -0 -1.36127e-06)
(0 -0 -1.40643e-06)
(0 -0 -1.45145e-06)
(0 -0 -1.4962e-06)
(0 -0 -1.54062e-06)
(0 -0 -1.585e-06)
(0 -0 -1.62922e-06)
(0 -0 -1.6732e-06)
(0 -0 -1.71721e-06)
(0 -0 -1.76105e-06)
(0 -0 -1.80462e-06)
(0 -0 -1.84807e-06)
(0 -0 -1.89123e-06)
(0 -0 -1.93406e-06)
(0 -0 -1.9768e-06)
(0 -0 -2.01932e-06)
(0 -0 -2.06132e-06)
(0 -0 -2.10298e-06)
(0 -0 -2.14434e-06)
(0 -0 -2.18519e-06)
(0 -0 -2.22566e-06)
(0 -0 -2.26589e-06)
(0 -0 -2.30566e-06)
(0 -0 -2.34498e-06)
(0 -0 -2.3841e-06)
(0 -0 -2.42298e-06)
(0 -0 -2.46154e-06)
(0 -0 -2.49999e-06)
(0 -0 -2.53846e-06)
(0 -0 -2.57682e-06)
(0 -0 -2.61517e-06)
(0 -0 -2.65384e-06)
(0 -0 -2.69285e-06)
(0 -0 -2.73208e-06)
(0 -0 -2.77172e-06)
(0 -0 -2.81196e-06)
(0 -0 -2.85275e-06)
(0 -0 -2.89397e-06)
(0 -0 -2.93569e-06)
(0 -0 -2.97803e-06)
(0 -0 -3.02097e-06)
(0 -0 -3.06457e-06)
(0 -0 -3.10882e-06)
(0 -0 -3.15353e-06)
(0 -0 -3.19849e-06)
(0 -0 -3.24378e-06)
(0 -0 -3.28954e-06)
(0 -0 -3.33567e-06)
(0 -0 -3.38184e-06)
(0 -0 -3.42795e-06)
(0 -0 -3.47419e-06)
(0 -0 -3.52063e-06)
(0 -0 -3.56711e-06)
(0 -0 -3.61345e-06)
(0 -0 -3.6597e-06)
(0 -0 -3.70591e-06)
(0 -0 -3.75209e-06)
(0 -0 -3.79823e-06)
(0 -0 -3.84448e-06)
(0 -0 -3.89102e-06)
(0 -0 -3.93784e-06)
(0 -0 -3.98486e-06)
(0 -0 -4.03221e-06)
(0 -0 -4.08004e-06)
(0 -0 -4.12841e-06)
(0 -0 -4.17732e-06)
(0 -0 -4.22684e-06)
(0 -0 -4.27707e-06)
(0 -0 -4.32803e-06)
(0 -0 -4.37973e-06)
(0 -0 -4.43216e-06)
(0 -0 -4.48535e-06)
(0 -0 -4.5393e-06)
(0 -0 -4.59393e-06)
(0 -0 -4.6491e-06)
(0 -0 -4.70481e-06)
(0 -0 -4.7611e-06)
(0 -0 -4.81795e-06)
(0 -0 -4.87532e-06)
(0 -0 -4.93316e-06)
(0 -0 -4.99146e-06)
(0 -0 -5.05021e-06)
(0 -0 -5.10927e-06)
(0 -0 -5.16862e-06)
(0 -0 -5.22832e-06)
(0 -0 -5.28836e-06)
(0 -0 -5.34875e-06)
(0 -0 -5.40944e-06)
(0 -0 -5.47025e-06)
(0 -0 -5.53117e-06)
(0 -0 -5.59214e-06)
(0 -0 -5.65304e-06)
(0 -0 -5.71381e-06)
(0 -0 -5.77424e-06)
(0 -0 -5.83414e-06)
(0 -0 -5.89338e-06)
(0 -0 -5.95178e-06)
(0 -0 -6.00924e-06)
(0 -0 -6.06556e-06)
(0 -0 -6.12057e-06)
(0 -0 -6.17406e-06)
(0 -0 -6.22581e-06)
(0 -0 -6.27569e-06)
(0 -0 -6.32366e-06)
(0 -0 -6.36967e-06)
(0 -0 -6.41355e-06)
(0 -0 -6.45514e-06)
(0 -0 -6.49442e-06)
(0 -0 -6.53159e-06)
(0 -0 -6.56662e-06)
(0 -0 -6.59951e-06)
(0 -0 -6.63022e-06)
(0 -0 -6.65897e-06)
(0 -0 -6.68607e-06)
(0 -0 -6.71165e-06)
(0 -0 -6.7359e-06)
(0 -0 -6.75888e-06)
(0 -0 -6.78062e-06)
(0 -0 -6.80124e-06)
(0 -0 -6.82095e-06)
(0 -0 -6.83987e-06)
(0 -0 -6.85797e-06)
(0 -0 -6.87507e-06)
(0 -0 -6.89105e-06)
(0 -0 -6.90572e-06)
(0 -0 -6.91898e-06)
(0 -0 -6.93069e-06)
(0 -0 -6.94072e-06)
(0 -0 -6.94891e-06)
(0 -0 -6.95518e-06)
(0 -0 -6.95937e-06)
(0 -0 -6.96163e-06)
(0 -0 -6.96187e-06)
(0 -0 -6.96023e-06)
(0 -0 -6.95689e-06)
(0 -0 -6.95194e-06)
(0 -0 -6.94548e-06)
(0 -0 -6.9375e-06)
(0 -0 -6.92825e-06)
(0 -0 -6.91793e-06)
(0 -0 -6.90667e-06)
(0 -0 -6.89459e-06)
(0 -0 -6.88178e-06)
(0 -0 -6.86842e-06)
(0 -0 -6.85465e-06)
(0 -0 -6.8406e-06)
(0 -0 -6.82643e-06)
(0 -0 -6.81233e-06)
(0 -0 -6.79835e-06)
(0 -0 -6.78465e-06)
(0 -0 -6.77106e-06)
(0 -0 -6.75777e-06)
(0 -0 -6.74464e-06)
(0 -0 -6.73164e-06)
(0 -0 -6.71862e-06)
(0 -0 -6.70552e-06)
(0 -0 -6.69232e-06)
(0 -0 -6.67886e-06)
(0 -0 -6.665e-06)
(0 -0 -6.65074e-06)
(0 -0 -6.63602e-06)
(0 -0 -6.62074e-06)
(0 -0 -6.6048e-06)
(0 -0 -6.58818e-06)
(0 -0 -6.57084e-06)
(0 -0 -6.55283e-06)
(0 -0 -6.53399e-06)
(0 -0 -6.51433e-06)
(0 -0 -6.49376e-06)
(0 -0 -6.47226e-06)
(0 -0 -6.44989e-06)
(0 -0 -6.42638e-06)
(0 -0 -6.40131e-06)
(0 -0 -6.37444e-06)
(0 -0 -6.34573e-06)
(0 -0 -6.31525e-06)
(0 -0 -6.2829e-06)
(0 -0 -6.24854e-06)
(0 -0 -6.21227e-06)
(0 -0 -6.17436e-06)
(0 -0 -6.13513e-06)
(0 -0 -6.09459e-06)
(0 -0 -6.05281e-06)
(0 -0 -6.00975e-06)
(0 -0 -5.96537e-06)
(0 -0 -5.9197e-06)
(0 -0 -5.87234e-06)
(0 -0 -5.82281e-06)
(0 -0 -5.77091e-06)
(0 -0 -5.71634e-06)
(0 -0 -5.65881e-06)
(0 -0 -5.59793e-06)
(0 -0 -5.53344e-06)
(0 -0 -5.465e-06)
(0 -0 -5.39242e-06)
(0 -0 -5.31545e-06)
(0 -0 -5.23394e-06)
(0 -0 -5.14772e-06)
(0 -0 -5.05685e-06)
(0 -0 -4.96132e-06)
(0 -0 -4.86136e-06)
(0 -0 -4.75717e-06)
(0 -0 -4.64912e-06)
(0 -0 -4.53755e-06)
(0 -0 -4.42296e-06)
(0 -0 -4.30575e-06)
(0 -0 -4.18629e-06)
(0 -0 -4.06474e-06)
(0 -0 -3.9413e-06)
(0 -0 -3.81598e-06)
(0 -0 -3.68885e-06)
(0 -0 -3.55993e-06)
(0 -0 -3.42919e-06)
(0 -0 -3.29672e-06)
(0 -0 -3.16257e-06)
(0 -0 -3.02684e-06)
(0 -0 -2.88985e-06)
(0 -0 -2.75184e-06)
(0 -0 -2.61321e-06)
(0 -0 -2.47424e-06)
(0 -0 -2.3352e-06)
(0 -0 -2.19628e-06)
(0 -0 -2.0576e-06)
(0 -0 -1.91924e-06)
(0 -0 -1.78119e-06)
(0 -0 -1.64347e-06)
(0 -0 -1.50604e-06)
(0 -0 -1.36896e-06)
(0 -0 -1.23239e-06)
(0 -0 -1.09658e-06)
(0 -0 -9.61867e-07)
(0 -0 -8.28547e-07)
(0 -0 -6.96885e-07)
(0 -0 -5.67046e-07)
(0 -0 -4.39085e-07)
(0 -0 -3.12934e-07)
(0 -0 -1.8864e-07)
(0 -0 -6.35296e-08)
(0 -0 4.14505e-07)
(0 -0 6.53875e-07)
(0 -0 2.18555e-07)
(0 -0 -1.00962e-07)
(0 -0 -3.48457e-07)
(0 -0 -5.42535e-07)
(0 -0 -6.99357e-07)
(0 -0 -8.30534e-07)
(0 -0 -9.43876e-07)
(0 -0 -1.0448e-06)
(0 -0 -1.1367e-06)
(0 -0 -1.22201e-06)
(0 -0 -1.30244e-06)
(0 -0 -1.37911e-06)
(0 -0 -1.45302e-06)
(0 -0 -1.52464e-06)
(0 -0 -1.59448e-06)
(0 -0 -1.66293e-06)
(0 -0 -1.73014e-06)
(0 -0 -1.79645e-06)
(0 -0 -1.86196e-06)
(0 -0 -1.92664e-06)
(0 -0 -1.99083e-06)
(0 -0 -2.05452e-06)
(0 -0 -2.11764e-06)
(0 -0 -2.18042e-06)
(0 -0 -2.2428e-06)
(0 -0 -2.30469e-06)
(0 -0 -2.36626e-06)
(0 -0 -2.42738e-06)
(0 -0 -2.48789e-06)
(0 -0 -2.54803e-06)
(0 -0 -2.60778e-06)
(0 -0 -2.66689e-06)
(0 -0 -2.72543e-06)
(0 -0 -2.78346e-06)
(0 -0 -2.84075e-06)
(0 -0 -2.89734e-06)
(0 -0 -2.95344e-06)
(0 -0 -3.0089e-06)
(0 -0 -3.06363e-06)
(0 -0 -3.11787e-06)
(0 -0 -3.17165e-06)
(0 -0 -3.22488e-06)
(0 -0 -3.27775e-06)
(0 -0 -3.33051e-06)
(0 -0 -3.38307e-06)
(0 -0 -3.43544e-06)
(0 -0 -3.48793e-06)
(0 -0 -3.54074e-06)
(0 -0 -3.59384e-06)
(0 -0 -3.64733e-06)
(0 -0 -3.70139e-06)
(0 -0 -3.75603e-06)
(0 -0 -3.81134e-06)
(0 -0 -3.86755e-06)
(0 -0 -3.92469e-06)
(0 -0 -3.98255e-06)
(0 -0 -4.04102e-06)
(0 -0 -4.10031e-06)
(0 -0 -4.16056e-06)
(0 -0 -4.22155e-06)
(0 -0 -4.28302e-06)
(0 -0 -4.34496e-06)
(0 -0 -4.40748e-06)
(0 -0 -4.47046e-06)
(0 -0 -4.53366e-06)
(0 -0 -4.59694e-06)
(0 -0 -4.66028e-06)
(0 -0 -4.72369e-06)
(0 -0 -4.78713e-06)
(0 -0 -4.85059e-06)
(0 -0 -4.91408e-06)
(0 -0 -4.97754e-06)
(0 -0 -5.04092e-06)
(0 -0 -5.10431e-06)
(0 -0 -5.16786e-06)
(0 -0 -5.23167e-06)
(0 -0 -5.29579e-06)
(0 -0 -5.36034e-06)
(0 -0 -5.42544e-06)
(0 -0 -5.4912e-06)
(0 -0 -5.55769e-06)
(0 -0 -5.62506e-06)
(0 -0 -5.69342e-06)
(0 -0 -5.76281e-06)
(0 -0 -5.83323e-06)
(0 -0 -5.90473e-06)
(0 -0 -5.97739e-06)
(0 -0 -6.0512e-06)
(0 -0 -6.12607e-06)
(0 -0 -6.20195e-06)
(0 -0 -6.2789e-06)
(0 -0 -6.35688e-06)
(0 -0 -6.43578e-06)
(0 -0 -6.51554e-06)
(0 -0 -6.59613e-06)
(0 -0 -6.67748e-06)
(0 -0 -6.7596e-06)
(0 -0 -6.84245e-06)
(0 -0 -6.92599e-06)
(0 -0 -7.01017e-06)
(0 -0 -7.09495e-06)
(0 -0 -7.18024e-06)
(0 -0 -7.26601e-06)
(0 -0 -7.35225e-06)
(0 -0 -7.43888e-06)
(0 -0 -7.52575e-06)
(0 -0 -7.6127e-06)
(0 -0 -7.69957e-06)
(0 -0 -7.78618e-06)
(0 -0 -7.8724e-06)
(0 -0 -7.95806e-06)
(0 -0 -8.04288e-06)
(0 -0 -8.12657e-06)
(0 -0 -8.20889e-06)
(0 -0 -8.2896e-06)
(0 -0 -8.36854e-06)
(0 -0 -8.44545e-06)
(0 -0 -8.52007e-06)
(0 -0 -8.59214e-06)
(0 -0 -8.66154e-06)
(0 -0 -8.72818e-06)
(0 -0 -8.79191e-06)
(0 -0 -8.8525e-06)
(0 -0 -8.90996e-06)
(0 -0 -8.96435e-06)
(0 -0 -9.01582e-06)
(0 -0 -9.06436e-06)
(0 -0 -9.11002e-06)
(0 -0 -9.15291e-06)
(0 -0 -9.19339e-06)
(0 -0 -9.23167e-06)
(0 -0 -9.26794e-06)
(0 -0 -9.30241e-06)
(0 -0 -9.33527e-06)
(0 -0 -9.36663e-06)
(0 -0 -9.39665e-06)
(0 -0 -9.42539e-06)
(0 -0 -9.45289e-06)
(0 -0 -9.479e-06)
(0 -0 -9.50355e-06)
(0 -0 -9.52631e-06)
(0 -0 -9.5471e-06)
(0 -0 -9.56563e-06)
(0 -0 -9.58179e-06)
(0 -0 -9.59536e-06)
(0 -0 -9.60625e-06)
(0 -0 -9.61435e-06)
(0 -0 -9.61973e-06)
(0 -0 -9.62238e-06)
(0 -0 -9.62233e-06)
(0 -0 -9.61976e-06)
(0 -0 -9.61488e-06)
(0 -0 -9.60797e-06)
(0 -0 -9.59908e-06)
(0 -0 -9.58843e-06)
(0 -0 -9.5762e-06)
(0 -0 -9.56262e-06)
(0 -0 -9.54792e-06)
(0 -0 -9.53221e-06)
(0 -0 -9.51576e-06)
(0 -0 -9.49868e-06)
(0 -0 -9.48127e-06)
(0 -0 -9.46356e-06)
(0 -0 -9.446e-06)
(0 -0 -9.42854e-06)
(0 -0 -9.41149e-06)
(0 -0 -9.39468e-06)
(0 -0 -9.37811e-06)
(0 -0 -9.36177e-06)
(0 -0 -9.34556e-06)
(0 -0 -9.32939e-06)
(0 -0 -9.3131e-06)
(0 -0 -9.29661e-06)
(0 -0 -9.27994e-06)
(0 -0 -9.26281e-06)
(0 -0 -9.24506e-06)
(0 -0 -9.22662e-06)
(0 -0 -9.20738e-06)
(0 -0 -9.18723e-06)
(0 -0 -9.16617e-06)
(0 -0 -9.14406e-06)
(0 -0 -9.12098e-06)
(0 -0 -9.09692e-06)
(0 -0 -9.07174e-06)
(0 -0 -9.04529e-06)
(0 -0 -9.01733e-06)
(0 -0 -8.98785e-06)
(0 -0 -8.95669e-06)
(0 -0 -8.9236e-06)
(0 -0 -8.88806e-06)
(0 -0 -8.84983e-06)
(0 -0 -8.8088e-06)
(0 -0 -8.76504e-06)
(0 -0 -8.71846e-06)
(0 -0 -8.66917e-06)
(0 -0 -8.61732e-06)
(0 -0 -8.56327e-06)
(0 -0 -8.50727e-06)
(0 -0 -8.44939e-06)
(0 -0 -8.3896e-06)
(0 -0 -8.32767e-06)
(0 -0 -8.26346e-06)
(0 -0 -8.19678e-06)
(0 -0 -8.12709e-06)
(0 -0 -8.05395e-06)
(0 -0 -7.97693e-06)
(0 -0 -7.89568e-06)
(0 -0 -7.80977e-06)
(0 -0 -7.71891e-06)
(0 -0 -7.62272e-06)
(0 -0 -7.52098e-06)
(0 -0 -7.41338e-06)
(0 -0 -7.29967e-06)
(0 -0 -7.17967e-06)
(0 -0 -7.05339e-06)
(0 -0 -6.92084e-06)
(0 -0 -6.78223e-06)
(0 -0 -6.63784e-06)
(0 -0 -6.48809e-06)
(0 -0 -6.33344e-06)
(0 -0 -6.17438e-06)
(0 -0 -6.01143e-06)
(0 -0 -5.84503e-06)
(0 -0 -5.67543e-06)
(0 -0 -5.50291e-06)
(0 -0 -5.32765e-06)
(0 -0 -5.14971e-06)
(0 -0 -4.96925e-06)
(0 -0 -4.78636e-06)
(0 -0 -4.60116e-06)
(0 -0 -4.41391e-06)
(0 -0 -4.22478e-06)
(0 -0 -4.03413e-06)
(0 -0 -3.84225e-06)
(0 -0 -3.64947e-06)
(0 -0 -3.45612e-06)
(0 -0 -3.26244e-06)
(0 -0 -3.06867e-06)
(0 -0 -2.87497e-06)
(0 -0 -2.68146e-06)
(0 -0 -2.4882e-06)
(0 -0 -2.2953e-06)
(0 -0 -2.10288e-06)
(0 -0 -1.91109e-06)
(0 -0 -1.72017e-06)
(0 -0 -1.53045e-06)
(0 -0 -1.34232e-06)
(0 -0 -1.15615e-06)
(0 -0 -9.72296e-07)
(0 -0 -7.90988e-07)
(0 -0 -6.12311e-07)
(0 -0 -4.36196e-07)
(0 -0 -2.62766e-07)
(0 -0 -8.8418e-08)
(0 -0 3.69179e-07)
(0 -0 5.80122e-07)
(0 -0 2.26725e-07)
(0 -0 -6.86459e-08)
(0 -0 -3.236e-07)
(0 -0 -5.41434e-07)
(0 -0 -7.28685e-07)
(0 -0 -8.91878e-07)
(0 -0 -1.03678e-06)
(0 -0 -1.16771e-06)
(0 -0 -1.28799e-06)
(0 -0 -1.40009e-06)
(0 -0 -1.50574e-06)
(0 -0 -1.60645e-06)
(0 -0 -1.70316e-06)
(0 -0 -1.79664e-06)
(0 -0 -1.88757e-06)
(0 -0 -1.97627e-06)
(0 -0 -2.06324e-06)
(0 -0 -2.14874e-06)
(0 -0 -2.23281e-06)
(0 -0 -2.31583e-06)
(0 -0 -2.39792e-06)
(0 -0 -2.47904e-06)
(0 -0 -2.55942e-06)
(0 -0 -2.63911e-06)
(0 -0 -2.71801e-06)
(0 -0 -2.79631e-06)
(0 -0 -2.87398e-06)
(0 -0 -2.95081e-06)
(0 -0 -3.02695e-06)
(0 -0 -3.10248e-06)
(0 -0 -3.17717e-06)
(0 -0 -3.25105e-06)
(0 -0 -3.32421e-06)
(0 -0 -3.39644e-06)
(0 -0 -3.46766e-06)
(0 -0 -3.53807e-06)
(0 -0 -3.60764e-06)
(0 -0 -3.67622e-06)
(0 -0 -3.744e-06)
(0 -0 -3.81105e-06)
(0 -0 -3.87729e-06)
(0 -0 -3.94284e-06)
(0 -0 -4.008e-06)
(0 -0 -4.0728e-06)
(0 -0 -4.13724e-06)
(0 -0 -4.20159e-06)
(0 -0 -4.26609e-06)
(0 -0 -4.33078e-06)
(0 -0 -4.39583e-06)
(0 -0 -4.46153e-06)
(0 -0 -4.52794e-06)
(0 -0 -4.59501e-06)
(0 -0 -4.6629e-06)
(0 -0 -4.73192e-06)
(0 -0 -4.80213e-06)
(0 -0 -4.87336e-06)
(0 -0 -4.94556e-06)
(0 -0 -5.01882e-06)
(0 -0 -5.09314e-06)
(0 -0 -5.1684e-06)
(0 -0 -5.2445e-06)
(0 -0 -5.32136e-06)
(0 -0 -5.39882e-06)
(0 -0 -5.47676e-06)
(0 -0 -5.55514e-06)
(0 -0 -5.63388e-06)
(0 -0 -5.7128e-06)
(0 -0 -5.79172e-06)
(0 -0 -5.87063e-06)
(0 -0 -5.94962e-06)
(0 -0 -6.02868e-06)
(0 -0 -6.1077e-06)
(0 -0 -6.18673e-06)
(0 -0 -6.26589e-06)
(0 -0 -6.3453e-06)
(0 -0 -6.42497e-06)
(0 -0 -6.50502e-06)
(0 -0 -6.58568e-06)
(0 -0 -6.66711e-06)
(0 -0 -6.74938e-06)
(0 -0 -6.83264e-06)
(0 -0 -6.9171e-06)
(0 -0 -7.00292e-06)
(0 -0 -7.09014e-06)
(0 -0 -7.17878e-06)
(0 -0 -7.26891e-06)
(0 -0 -7.36067e-06)
(0 -0 -7.45403e-06)
(0 -0 -7.54888e-06)
(0 -0 -7.64521e-06)
(0 -0 -7.74311e-06)
(0 -0 -7.84254e-06)
(0 -0 -7.94337e-06)
(0 -0 -8.04553e-06)
(0 -0 -8.14899e-06)
(0 -0 -8.25369e-06)
(0 -0 -8.35953e-06)
(0 -0 -8.46646e-06)
(0 -0 -8.57446e-06)
(0 -0 -8.68351e-06)
(0 -0 -8.79354e-06)
(0 -0 -8.90444e-06)
(0 -0 -9.01604e-06)
(0 -0 -9.12829e-06)
(0 -0 -9.24113e-06)
(0 -0 -9.35437e-06)
(0 -0 -9.46789e-06)
(0 -0 -9.58143e-06)
(0 -0 -9.6947e-06)
(0 -0 -9.8075e-06)
(0 -0 -9.91958e-06)
(0 -0 -1.00307e-05)
(0 -0 -1.01405e-05)
(0 -0 -1.02487e-05)
(0 -0 -1.03549e-05)
(0 -0 -1.04588e-05)
(0 -0 -1.05602e-05)
(0 -0 -1.06588e-05)
(0 -0 -1.07543e-05)
(0 -0 -1.08465e-05)
(0 -0 -1.09352e-05)
(0 -0 -1.10201e-05)
(0 -0 -1.11013e-05)
(0 -0 -1.11785e-05)
(0 -0 -1.1252e-05)
(0 -0 -1.13215e-05)
(0 -0 -1.13874e-05)
(0 -0 -1.14497e-05)
(0 -0 -1.15085e-05)
(0 -0 -1.15642e-05)
(0 -0 -1.1617e-05)
(0 -0 -1.16671e-05)
(0 -0 -1.17149e-05)
(0 -0 -1.17606e-05)
(0 -0 -1.18044e-05)
(0 -0 -1.18465e-05)
(0 -0 -1.18868e-05)
(0 -0 -1.19254e-05)
(0 -0 -1.19621e-05)
(0 -0 -1.19967e-05)
(0 -0 -1.20291e-05)
(0 -0 -1.2059e-05)
(0 -0 -1.2086e-05)
(0 -0 -1.21101e-05)
(0 -0 -1.21307e-05)
(0 -0 -1.21479e-05)
(0 -0 -1.21615e-05)
(0 -0 -1.21715e-05)
(0 -0 -1.2178e-05)
(0 -0 -1.21812e-05)
(0 -0 -1.21812e-05)
(0 -0 -1.2178e-05)
(0 -0 -1.21722e-05)
(0 -0 -1.21639e-05)
(0 -0 -1.21535e-05)
(0 -0 -1.2141e-05)
(0 -0 -1.21267e-05)
(0 -0 -1.21109e-05)
(0 -0 -1.20937e-05)
(0 -0 -1.20755e-05)
(0 -0 -1.20566e-05)
(0 -0 -1.20372e-05)
(0 -0 -1.20174e-05)
(0 -0 -1.19977e-05)
(0 -0 -1.1978e-05)
(0 -0 -1.19586e-05)
(0 -0 -1.19396e-05)
(0 -0 -1.19208e-05)
(0 -0 -1.19023e-05)
(0 -0 -1.18839e-05)
(0 -0 -1.18655e-05)
(0 -0 -1.1847e-05)
(0 -0 -1.18282e-05)
(0 -0 -1.18089e-05)
(0 -0 -1.17892e-05)
(0 -0 -1.17688e-05)
(0 -0 -1.17474e-05)
(0 -0 -1.17251e-05)
(0 -0 -1.17016e-05)
(0 -0 -1.1677e-05)
(0 -0 -1.1651e-05)
(0 -0 -1.16236e-05)
(0 -0 -1.15949e-05)
(0 -0 -1.15647e-05)
(0 -0 -1.1533e-05)
(0 -0 -1.14996e-05)
(0 -0 -1.1464e-05)
(0 -0 -1.14261e-05)
(0 -0 -1.13855e-05)
(0 -0 -1.13421e-05)
(0 -0 -1.12952e-05)
(0 -0 -1.12446e-05)
(0 -0 -1.11904e-05)
(0 -0 -1.11326e-05)
(0 -0 -1.10712e-05)
(0 -0 -1.10066e-05)
(0 -0 -1.0939e-05)
(0 -0 -1.08686e-05)
(0 -0 -1.07956e-05)
(0 -0 -1.07201e-05)
(0 -0 -1.06418e-05)
(0 -0 -1.05603e-05)
(0 -0 -1.04753e-05)
(0 -0 -1.03863e-05)
(0 -0 -1.02928e-05)
(0 -0 -1.01942e-05)
(0 -0 -1.009e-05)
(0 -0 -9.97986e-06)
(0 -0 -9.86333e-06)
(0 -0 -9.74004e-06)
(0 -0 -9.60961e-06)
(0 -0 -9.4718e-06)
(0 -0 -9.3263e-06)
(0 -0 -9.17292e-06)
(0 -0 -9.01161e-06)
(0 -0 -8.84241e-06)
(0 -0 -8.66555e-06)
(0 -0 -8.48143e-06)
(0 -0 -8.29051e-06)
(0 -0 -8.09338e-06)
(0 -0 -7.89063e-06)
(0 -0 -7.68279e-06)
(0 -0 -7.47038e-06)
(0 -0 -7.2538e-06)
(0 -0 -7.03331e-06)
(0 -0 -6.8092e-06)
(0 -0 -6.58162e-06)
(0 -0 -6.35072e-06)
(0 -0 -6.11678e-06)
(0 -0 -5.87993e-06)
(0 -0 -5.64052e-06)
(0 -0 -5.39892e-06)
(0 -0 -5.15546e-06)
(0 -0 -4.91054e-06)
(0 -0 -4.6645e-06)
(0 -0 -4.4177e-06)
(0 -0 -4.17039e-06)
(0 -0 -3.92283e-06)
(0 -0 -3.67518e-06)
(0 -0 -3.42764e-06)
(0 -0 -3.18032e-06)
(0 -0 -2.93338e-06)
(0 -0 -2.68703e-06)
(0 -0 -2.44155e-06)
(0 -0 -2.19728e-06)
(0 -0 -1.95464e-06)
(0 -0 -1.71412e-06)
(0 -0 -1.47619e-06)
(0 -0 -1.24126e-06)
(0 -0 -1.00962e-06)
(0 -0 -7.81377e-07)
(0 -0 -5.56478e-07)
(0 -0 -3.3517e-07)
(0 -0 -1.12757e-07)
(0 -0 3.10731e-07)
(0 -0 4.76605e-07)
(0 -0 1.70144e-07)
(0 -0 -1.03348e-07)
(0 -0 -3.54476e-07)
(0 -0 -5.80938e-07)
(0 -0 -7.84162e-07)
(0 -0 -9.67354e-07)
(0 -0 -1.13386e-06)
(0 -0 -1.28687e-06)
(0 -0 -1.42908e-06)
(0 -0 -1.56255e-06)
(0 -0 -1.68907e-06)
(0 -0 -1.8099e-06)
(0 -0 -1.92609e-06)
(0 -0 -2.03854e-06)
(0 -0 -2.14777e-06)
(0 -0 -2.25437e-06)
(0 -0 -2.35878e-06)
(0 -0 -2.46112e-06)
(0 -0 -2.56181e-06)
(0 -0 -2.6611e-06)
(0 -0 -2.75897e-06)
(0 -0 -2.85566e-06)
(0 -0 -2.95129e-06)
(0 -0 -3.04579e-06)
(0 -0 -3.13935e-06)
(0 -0 -3.23203e-06)
(0 -0 -3.32362e-06)
(0 -0 -3.41422e-06)
(0 -0 -3.50396e-06)
(0 -0 -3.59263e-06)
(0 -0 -3.6802e-06)
(0 -0 -3.76679e-06)
(0 -0 -3.85225e-06)
(0 -0 -3.93642e-06)
(0 -0 -4.01948e-06)
(0 -0 -4.10141e-06)
(0 -0 -4.18207e-06)
(0 -0 -4.26157e-06)
(0 -0 -4.34006e-06)
(0 -0 -4.41746e-06)
(0 -0 -4.49382e-06)
(0 -0 -4.56945e-06)
(0 -0 -4.64446e-06)
(0 -0 -4.71884e-06)
(0 -0 -4.79283e-06)
(0 -0 -4.86679e-06)
(0 -0 -4.94079e-06)
(0 -0 -5.01495e-06)
(0 -0 -5.08957e-06)
(0 -0 -5.16494e-06)
(0 -0 -5.24113e-06)
(0 -0 -5.31826e-06)
(0 -0 -5.39653e-06)
(0 -0 -5.47604e-06)
(0 -0 -5.5568e-06)
(0 -0 -5.63889e-06)
(0 -0 -5.72244e-06)
(0 -0 -5.80735e-06)
(0 -0 -5.89344e-06)
(0 -0 -5.98069e-06)
(0 -0 -6.06914e-06)
(0 -0 -6.15865e-06)
(0 -0 -6.2489e-06)
(0 -0 -6.33972e-06)
(0 -0 -6.43114e-06)
(0 -0 -6.52311e-06)
(0 -0 -6.6154e-06)
(0 -0 -6.70781e-06)
(0 -0 -6.80031e-06)
(0 -0 -6.89296e-06)
(0 -0 -6.98567e-06)
(0 -0 -7.07836e-06)
(0 -0 -7.17114e-06)
(0 -0 -7.26417e-06)
(0 -0 -7.3575e-06)
(0 -0 -7.4512e-06)
(0 -0 -7.54545e-06)
(0 -0 -7.64049e-06)
(0 -0 -7.7365e-06)
(0 -0 -7.8336e-06)
(0 -0 -7.932e-06)
(0 -0 -8.03193e-06)
(0 -0 -8.13354e-06)
(0 -0 -8.23696e-06)
(0 -0 -8.34225e-06)
(0 -0 -8.44954e-06)
(0 -0 -8.55894e-06)
(0 -0 -8.67046e-06)
(0 -0 -8.78409e-06)
(0 -0 -8.89982e-06)
(0 -0 -9.01766e-06)
(0 -0 -9.13759e-06)
(0 -0 -9.2595e-06)
(0 -0 -9.38331e-06)
(0 -0 -9.509e-06)
(0 -0 -9.63653e-06)
(0 -0 -9.76578e-06)
(0 -0 -9.89664e-06)
(0 -0 -1.0029e-05)
(0 -0 -1.01629e-05)
(0 -0 -1.02981e-05)
(0 -0 -1.04347e-05)
(0 -0 -1.05724e-05)
(0 -0 -1.07111e-05)
(0 -0 -1.08505e-05)
(0 -0 -1.09906e-05)
(0 -0 -1.11311e-05)
(0 -0 -1.12718e-05)
(0 -0 -1.14123e-05)
(0 -0 -1.15524e-05)
(0 -0 -1.16917e-05)
(0 -0 -1.18299e-05)
(0 -0 -1.19666e-05)
(0 -0 -1.21014e-05)
(0 -0 -1.22341e-05)
(0 -0 -1.23641e-05)
(0 -0 -1.24912e-05)
(0 -0 -1.26149e-05)
(0 -0 -1.27351e-05)
(0 -0 -1.28514e-05)
(0 -0 -1.29635e-05)
(0 -0 -1.30712e-05)
(0 -0 -1.31746e-05)
(0 -0 -1.32734e-05)
(0 -0 -1.33676e-05)
(0 -0 -1.34571e-05)
(0 -0 -1.35422e-05)
(0 -0 -1.3623e-05)
(0 -0 -1.36997e-05)
(0 -0 -1.37725e-05)
(0 -0 -1.38418e-05)
(0 -0 -1.39079e-05)
(0 -0 -1.3971e-05)
(0 -0 -1.40314e-05)
(0 -0 -1.40895e-05)
(0 -0 -1.41455e-05)
(0 -0 -1.41991e-05)
(0 -0 -1.42506e-05)
(0 -0 -1.42997e-05)
(0 -0 -1.43463e-05)
(0 -0 -1.439e-05)
(0 -0 -1.44307e-05)
(0 -0 -1.44681e-05)
(0 -0 -1.45016e-05)
(0 -0 -1.45312e-05)
(0 -0 -1.45565e-05)
(0 -0 -1.45774e-05)
(0 -0 -1.45939e-05)
(0 -0 -1.46061e-05)
(0 -0 -1.46143e-05)
(0 -0 -1.46185e-05)
(0 -0 -1.4619e-05)
(0 -0 -1.46162e-05)
(0 -0 -1.46103e-05)
(0 -0 -1.46017e-05)
(0 -0 -1.45907e-05)
(0 -0 -1.45774e-05)
(0 -0 -1.45622e-05)
(0 -0 -1.45454e-05)
(0 -0 -1.45273e-05)
(0 -0 -1.45081e-05)
(0 -0 -1.44882e-05)
(0 -0 -1.4468e-05)
(0 -0 -1.44475e-05)
(0 -0 -1.44271e-05)
(0 -0 -1.44067e-05)
(0 -0 -1.43868e-05)
(0 -0 -1.4367e-05)
(0 -0 -1.43474e-05)
(0 -0 -1.43279e-05)
(0 -0 -1.43083e-05)
(0 -0 -1.42886e-05)
(0 -0 -1.42685e-05)
(0 -0 -1.42478e-05)
(0 -0 -1.42264e-05)
(0 -0 -1.42042e-05)
(0 -0 -1.41809e-05)
(0 -0 -1.41564e-05)
(0 -0 -1.41305e-05)
(0 -0 -1.41032e-05)
(0 -0 -1.40744e-05)
(0 -0 -1.40437e-05)
(0 -0 -1.40113e-05)
(0 -0 -1.3977e-05)