/*--------------------------------*- C++ -*----------------------------------*\
| =========                 |                                                 |
| \\      /  F ield         | OpenFOAM: The Open Source CFD Toolbox           |
|  \\    /   O peration     | Version:  v2012                                 |
|   \\  /    A nd           | Website:  www.openfoam.com                      |
|    \\/     M anipulation  |                                                 |
\*---------------------------------------------------------------------------*/
FoamFile
{
    version     2.0;
    format      ascii;
    class       volVectorField;
    location    "70";
    object      Usup;
}
// * * * * * * * * * * * * * * * * * * * * * * * * * * * * * * * * * * * * * //

dimensions      [0 1 -1 0 0 0 0];


internalField   nonuniform List<vector> 
4000
(
(-2.40409e-16 1.13482e-16 0)
(-7.04418e-16 2.94887e-16 0)
(-9.8833e-16 1.61516e-16 0)
(-1.32909e-15 9.64641e-17 0)
(-2.23888e-15 2.796e-16 0)
(-3.14218e-15 6.55071e-16 0)
(-3.19031e-15 1.15875e-15 0)
(-2.95799e-15 1.11117e-15 0)
(-2.75369e-15 1.14564e-15 0)
(-2.71985e-15 8.58226e-16 0)
(-3.44037e-15 4.45982e-16 0)
(-4.236e-15 5.14811e-16 0)
(-4.60821e-15 1.19186e-15 0)
(-4.634e-15 1.5414e-15 0)
(-4.74267e-15 1.72015e-15 0)
(-5.35116e-15 1.77215e-15 0)
(-5.82311e-15 1.91379e-15 0)
(-6.04009e-15 1.91242e-15 0)
(-5.64091e-15 1.94154e-15 0)
(-5.44131e-15 1.648e-15 0)
(-5.93441e-15 1.64511e-15 0)
(-5.90288e-15 1.60856e-15 0)
(-5.49269e-15 1.32527e-15 0)
(-5.30227e-15 1.58275e-15 0)
(-5.35161e-15 1.75022e-15 0)
(-5.71767e-15 2.02528e-15 0)
(-6.61517e-15 2.04575e-15 0)
(-7.31203e-15 2.29886e-15 0)
(-7.62053e-15 2.24356e-15 0)
(-8.17229e-15 2.08254e-15 0)
(-8.5071e-15 2.38944e-15 0)
(-8.41308e-15 2.51633e-15 0)
(-8.52461e-15 2.26541e-15 0)
(-8.96419e-15 2.10572e-15 0)
(-9.12776e-15 2.18904e-15 0)
(-9.58024e-15 2.07066e-15 0)
(-1.08015e-14 2.21217e-15 0)
(-1.15821e-14 2.59043e-15 0)
(-1.03777e-14 3.03777e-15 0)
(-8.58862e-15 2.56611e-15 0)
(-8.01477e-15 1.89403e-15 0)
(-7.71822e-15 1.74982e-15 0)
(-7.35417e-15 1.86341e-15 0)
(-7.16374e-15 1.78104e-15 0)
(-7.21367e-15 1.46286e-15 0)
(-7.65937e-15 1.2606e-15 0)
(-8.35137e-15 1.31725e-15 0)
(-8.64989e-15 1.60638e-15 0)
(-8.81969e-15 1.63586e-15 0)
(-9.23702e-15 1.43692e-15 0)
(-9.18025e-15 1.58349e-15 0)
(-8.63472e-15 1.50325e-15 0)
(-8.3929e-15 1.60036e-15 0)
(-8.40645e-15 1.61196e-15 0)
(-8.40132e-15 1.75934e-15 0)
(-8.48947e-15 1.53628e-15 0)
(-8.10967e-15 1.43829e-15 0)
(-7.23257e-15 1.282e-15 0)
(-6.82506e-15 1.07471e-15 0)
(-7.19746e-15 7.21212e-16 0)
(-7.91558e-15 7.40288e-16 0)
(-8.28987e-15 6.11372e-16 0)
(-8.45605e-15 6.19531e-16 0)
(-8.5949e-15 6.30931e-16 0)
(-8.50326e-15 6.25199e-16 0)
(-8.19926e-15 2.11755e-16 0)
(-7.95918e-15 -1.05524e-16 0)
(-8.13824e-15 -3.14337e-16 0)
(-8.17789e-15 -2.47498e-16 0)
(-8.20996e-15 -5.2538e-16 0)
(-8.36202e-15 -4.59857e-16 0)
(-8.44048e-15 -4.30201e-16 0)
(-8.19371e-15 -3.61866e-16 0)
(-7.65075e-15 -4.70166e-16 0)
(-7.87899e-15 -1.04324e-15 0)
(-8.97069e-15 -1.50108e-15 0)
(-1.01868e-14 -1.39535e-15 0)
(-1.08676e-14 -1.23711e-15 0)
(-1.1212e-14 -1.23994e-15 0)
(-1.141e-14 -9.34928e-16 0)
(-1.16164e-14 -8.35933e-16 0)
(-1.14759e-14 -7.58301e-16 0)
(-1.11268e-14 -7.29154e-16 0)
(-1.08365e-14 -7.3998e-16 0)
(-1.09626e-14 -1.20991e-15 0)
(-1.14208e-14 -1.11933e-15 0)
(-1.17079e-14 -9.99243e-16 0)
(-1.17621e-14 -9.1429e-16 0)
(-1.13597e-14 -8.55814e-16 0)
(-1.07377e-14 -7.40321e-16 0)
(-1.00005e-14 -5.49057e-16 0)
(-9.40662e-15 -3.7882e-16 0)
(-8.91079e-15 -2.30626e-16 0)
(-8.50037e-15 -4.45108e-16 0)
(-7.80456e-15 -2.66918e-16 0)
(-6.87845e-15 -2.58557e-16 0)
(-6.15793e-15 -3.86943e-16 0)
(-4.8622e-15 -3.54489e-17 0)
(-3.26273e-15 -5.84917e-17 0)
(-1.31204e-15 4.10337e-17 0)
(-6.51115e-16 3.06525e-16 0)
(-2.12986e-15 8.46203e-16 0)
(-3.26684e-15 5.42823e-16 0)
(-4.17153e-15 6.11371e-16 0)
(-5.97877e-15 1.23729e-15 0)
(-7.77553e-15 2.08838e-15 0)
(-8.50413e-15 2.93882e-15 0)
(-8.59032e-15 2.97227e-15 0)
(-8.52666e-15 2.89597e-15 0)
(-9.06687e-15 2.55221e-15 0)
(-1.04338e-14 1.73006e-15 0)
(-1.14683e-14 1.955e-15 0)
(-1.2317e-14 3.53089e-15 0)
(-1.30642e-14 4.56828e-15 0)
(-1.38062e-14 5.09968e-15 0)
(-1.52064e-14 5.18505e-15 0)
(-1.63705e-14 5.56242e-15 0)
(-1.69791e-14 5.63245e-15 0)
(-1.65847e-14 5.68762e-15 0)
(-1.63206e-14 4.80863e-15 0)
(-1.69892e-14 4.74191e-15 0)
(-1.717e-14 4.9206e-15 0)
(-1.62344e-14 4.63205e-15 0)
(-1.55834e-14 4.85865e-15 0)
(-1.58312e-14 5.37119e-15 0)
(-1.69638e-14 5.88372e-15 0)
(-1.90282e-14 6.13261e-15 0)
(-2.08366e-14 6.80985e-15 0)
(-2.22058e-14 6.89015e-15 0)
(-2.32946e-14 6.65527e-15 0)
(-2.39799e-14 7.26442e-15 0)
(-2.45064e-14 7.41299e-15 0)
(-2.51639e-14 6.8335e-15 0)
(-2.59467e-14 6.65132e-15 0)
(-2.65898e-14 6.88419e-15 0)
(-2.77986e-14 6.40045e-15 0)
(-2.99033e-14 6.58718e-15 0)
(-3.10251e-14 7.31613e-15 0)
(-2.91853e-14 8.35901e-15 0)
(-2.62651e-14 7.33329e-15 0)
(-2.43248e-14 6.1376e-15 0)
(-2.27625e-14 5.59383e-15 0)
(-2.18065e-14 5.50782e-15 0)
(-2.16652e-14 4.98714e-15 0)
(-2.19097e-14 4.33841e-15 0)
(-2.26425e-14 3.9408e-15 0)
(-2.37751e-14 4.08887e-15 0)
(-2.46253e-14 4.6295e-15 0)
(-2.55252e-14 4.83601e-15 0)
(-2.62515e-14 4.91143e-15 0)
(-2.60384e-14 5.01568e-15 0)
(-2.50168e-14 4.6985e-15 0)
(-2.43613e-14 4.6321e-15 0)
(-2.42198e-14 4.58188e-15 0)
(-2.42962e-14 4.71198e-15 0)
(-2.44447e-14 4.49606e-15 0)
(-2.34602e-14 4.23535e-15 0)
(-2.17543e-14 4.12953e-15 0)
(-2.10485e-14 3.65199e-15 0)
(-2.16093e-14 2.61863e-15 0)
(-2.29274e-14 2.07471e-15 0)
(-2.38686e-14 1.85211e-15 0)
(-2.42526e-14 1.68391e-15 0)
(-2.45766e-14 1.69545e-15 0)
(-2.47099e-14 1.52756e-15 0)
(-2.43414e-14 7.02529e-16 0)
(-2.37304e-14 -6.7391e-17 0)
(-2.37326e-14 -8.08641e-16 0)
(-2.39077e-14 -8.49211e-16 0)
(-2.4036e-14 -1.59568e-15 0)
(-2.41276e-14 -1.49813e-15 0)
(-2.42724e-14 -1.27649e-15 0)
(-2.39255e-14 -1.43819e-15 0)
(-2.35715e-14 -2.09826e-15 0)
(-2.45568e-14 -3.38678e-15 0)
(-2.65385e-14 -4.29615e-15 0)
(-2.8897e-14 -4.03938e-15 0)
(-3.08018e-14 -3.71911e-15 0)
(-3.17495e-14 -3.43154e-15 0)
(-3.23105e-14 -2.81857e-15 0)
(-3.29535e-14 -2.43107e-15 0)
(-3.27624e-14 -2.44451e-15 0)
(-3.2141e-14 -2.44678e-15 0)
(-3.19527e-14 -2.59371e-15 0)
(-3.21285e-14 -3.41119e-15 0)
(-3.25707e-14 -3.0304e-15 0)
(-3.31243e-14 -2.73494e-15 0)
(-3.31315e-14 -2.4716e-15 0)
(-3.20821e-14 -2.4304e-15 0)
(-3.03822e-14 -2.13934e-15 0)
(-2.84457e-14 -1.71991e-15 0)
(-2.67845e-14 -1.28726e-15 0)
(-2.55373e-14 -9.40612e-16 0)
(-2.40581e-14 -1.15436e-15 0)
(-2.18442e-14 -9.76675e-16 0)
(-1.94922e-14 -8.63204e-16 0)
(-1.6771e-14 -8.63193e-16 0)
(-1.30318e-14 -4.08572e-16 0)
(-8.71271e-15 -2.84785e-16 0)
(-3.34418e-15 4.87433e-17 0)
(-9.97589e-16 4.45265e-16 0)
(-3.5463e-15 1.44341e-15 0)
(-5.51472e-15 1.39955e-15 0)
(-6.7185e-15 1.2829e-15 0)
(-9.17687e-15 2.21407e-15 0)
(-1.18568e-14 3.16984e-15 0)
(-1.33214e-14 4.14592e-15 0)
(-1.39466e-14 4.44051e-15 0)
(-1.41641e-14 4.39371e-15 0)
(-1.52768e-14 4.04957e-15 0)
(-1.71504e-14 3.55013e-15 0)
(-1.7975e-14 3.98154e-15 0)
(-1.90383e-14 5.60401e-15 0)
(-2.06365e-14 6.93038e-15 0)
(-2.23142e-14 8.04679e-15 0)
(-2.43618e-14 8.51334e-15 0)
(-2.59857e-14 8.93811e-15 0)
(-2.70265e-14 9.23694e-15 0)
(-2.71471e-14 9.23739e-15 0)
(-2.69936e-14 8.17257e-15 0)
(-2.72543e-14 7.84453e-15 0)
(-2.74442e-14 8.11542e-15 0)
(-2.66236e-14 8.1895e-15 0)
(-2.57509e-14 8.18109e-15 0)
(-2.60679e-14 8.9933e-15 0)
(-2.78468e-14 9.61332e-15 0)
(-3.05978e-14 9.9435e-15 0)
(-3.3303e-14 1.09467e-14 0)
(-3.57462e-14 1.1503e-14 0)
(-3.73719e-14 1.17882e-14 0)
(-3.85013e-14 1.24579e-14 0)
(-3.98425e-14 1.24223e-14 0)
(-4.09106e-14 1.18574e-14 0)
(-4.18203e-14 1.15847e-14 0)
(-4.32094e-14 1.13687e-14 0)
(-4.51014e-14 1.08134e-14 0)
(-4.73463e-14 1.09636e-14 0)
(-4.82526e-14 1.18934e-14 0)
(-4.63539e-14 1.28591e-14 0)
(-4.31035e-14 1.18995e-14 0)
(-4.01571e-14 1.08671e-14 0)
(-3.77337e-14 1.01075e-14 0)
(-3.63676e-14 9.20724e-15 0)
(-3.61143e-14 7.82747e-15 0)
(-3.62491e-14 6.99917e-15 0)
(-3.7023e-14 6.74043e-15 0)
(-3.83222e-14 7.1435e-15 0)
(-3.95166e-14 7.75705e-15 0)
(-4.07029e-14 7.9596e-15 0)
(-4.18098e-14 8.35814e-15 0)
(-4.19369e-14 8.2136e-15 0)
(-4.07407e-14 7.83496e-15 0)
(-3.97145e-14 7.77305e-15 0)
(-3.93108e-14 7.70995e-15 0)
(-3.91954e-14 7.21279e-15 0)
(-3.92538e-14 7.22899e-15 0)
(-3.78417e-14 7.13758e-15 0)
(-3.57076e-14 7.03318e-15 0)
(-3.52875e-14 6.30372e-15 0)
(-3.62383e-14 4.97506e-15 0)
(-3.75527e-14 3.68525e-15 0)
(-3.8596e-14 3.3592e-15 0)
(-3.91708e-14 2.9354e-15 0)
(-3.96194e-14 2.54018e-15 0)
(-4.00338e-14 1.8319e-15 0)
(-3.97485e-14 1.13516e-15 0)
(-3.9129e-14 -1.77835e-16 0)
(-3.89179e-14 -1.19678e-15 0)
(-3.91191e-14 -1.52005e-15 0)
(-3.92388e-14 -2.18333e-15 0)
(-3.89627e-14 -2.24375e-15 0)
(-3.93735e-14 -2.32994e-15 0)
(-3.95618e-14 -2.78334e-15 0)
(-3.96181e-14 -4.32028e-15 0)
(-4.10157e-14 -6.03481e-15 0)
(-4.33246e-14 -6.9536e-15 0)
(-4.63455e-14 -6.44523e-15 0)
(-4.90648e-14 -5.9199e-15 0)
(-5.05529e-14 -5.20402e-15 0)
(-5.15381e-14 -4.81936e-15 0)
(-5.271e-14 -4.05775e-15 0)
(-5.27583e-14 -3.89871e-15 0)
(-5.20264e-14 -4.11566e-15 0)
(-5.19502e-14 -4.56101e-15 0)
(-5.18607e-14 -5.17985e-15 0)
(-5.20807e-14 -5.03631e-15 0)
(-5.27742e-14 -4.69215e-15 0)
(-5.27263e-14 -3.82717e-15 0)
(-5.11391e-14 -3.61124e-15 0)
(-4.84466e-14 -3.13945e-15 0)
(-4.54735e-14 -2.63861e-15 0)
(-4.28214e-14 -2.31268e-15 0)
(-4.07316e-14 -2.01677e-15 0)
(-3.82855e-14 -1.7071e-15 0)
(-3.46722e-14 -1.53824e-15 0)
(-3.0667e-14 -1.54061e-15 0)
(-2.6173e-14 -1.41828e-15 0)
(-2.0237e-14 -9.34255e-16 0)
(-1.32204e-14 -6.28095e-16 0)
(-4.97534e-15 -1.54483e-18 0)
(-1.19792e-15 5.68041e-16 0)
(-4.62924e-15 1.91625e-15 0)
(-7.8705e-15 2.30797e-15 0)
(-9.47303e-15 2.14235e-15 0)
(-1.21096e-14 2.89981e-15 0)
(-1.53316e-14 4.33918e-15 0)
(-1.74478e-14 5.44596e-15 0)
(-1.88009e-14 6.06413e-15 0)
(-1.96776e-14 5.92289e-15 0)
(-2.12883e-14 5.40328e-15 0)
(-2.32847e-14 5.23966e-15 0)
(-2.41042e-14 6.19788e-15 0)
(-2.5434e-14 7.67534e-15 0)
(-2.74586e-14 8.96933e-15 0)
(-2.97269e-14 1.01465e-14 0)
(-3.26531e-14 1.13108e-14 0)
(-3.48243e-14 1.2161e-14 0)
(-3.62901e-14 1.28596e-14 0)
(-3.70646e-14 1.28822e-14 0)
(-3.71965e-14 1.18205e-14 0)
(-3.72046e-14 1.09081e-14 0)
(-3.72344e-14 1.06058e-14 0)
(-3.64965e-14 1.08876e-14 0)
(-3.547e-14 1.16454e-14 0)
(-3.58096e-14 1.29531e-14 0)
(-3.83362e-14 1.36206e-14 0)
(-4.15796e-14 1.36593e-14 0)
(-4.47194e-14 1.45908e-14 0)
(-4.79448e-14 1.59338e-14 0)
(-5.01771e-14 1.68805e-14 0)
(-5.20893e-14 1.75027e-14 0)
(-5.4263e-14 1.74856e-14 0)
(-5.5854e-14 1.71208e-14 0)
(-5.7273e-14 1.6488e-14 0)
(-5.90426e-14 1.57973e-14 0)
(-6.1031e-14 1.55185e-14 0)
(-6.3086e-14 1.54427e-14 0)
(-6.38452e-14 1.64023e-14 0)
(-6.22207e-14 1.69962e-14 0)
(-5.88915e-14 1.66294e-14 0)
(-5.52477e-14 1.56427e-14 0)
(-5.24539e-14 1.45821e-14 0)
(-5.11596e-14 1.29527e-14 0)
(-5.05837e-14 1.10848e-14 0)
(-5.01017e-14 1.00571e-14 0)
(-5.04953e-14 9.66245e-15 0)
(-5.17954e-14 9.94162e-15 0)
(-5.34914e-14 1.04738e-14 0)
(-5.50769e-14 1.0852e-14 0)
(-5.64139e-14 1.13741e-14 0)
(-5.67193e-14 1.14692e-14 0)
(-5.52236e-14 1.13255e-14 0)
(-5.39209e-14 1.09898e-14 0)
(-5.37934e-14 1.06474e-14 0)
(-5.35163e-14 9.91215e-15 0)
(-5.29731e-14 9.84646e-15 0)
(-5.13984e-14 1.01243e-14 0)
(-4.93502e-14 9.62946e-15 0)
(-4.91423e-14 8.58966e-15 0)
(-5.03781e-14 7.20502e-15 0)
(-5.16344e-14 5.74977e-15 0)
(-5.25856e-14 5.0047e-15 0)
(-5.34777e-14 4.06985e-15 0)
(-5.42586e-14 3.10805e-15 0)
(-5.46096e-14 2.03512e-15 0)
(-5.45119e-14 1.18449e-15 0)
(-5.40094e-14 -4.24516e-16 0)
(-5.3357e-14 -1.5928e-15 0)
(-5.34112e-14 -2.24544e-15 0)
(-5.3531e-14 -2.70342e-15 0)
(-5.34238e-14 -3.03423e-15 0)
(-5.40307e-14 -3.77369e-15 0)
(-5.48359e-14 -4.48043e-15 0)
(-5.56535e-14 -6.42747e-15 0)
(-5.71176e-14 -8.28659e-15 0)
(-5.91463e-14 -9.25589e-15 0)
(-6.23756e-14 -8.91543e-15 0)
(-6.57738e-14 -7.93084e-15 0)
(-6.80326e-14 -6.98948e-15 0)
(-6.937e-14 -6.72504e-15 0)
(-7.06404e-14 -5.92624e-15 0)
(-7.12374e-14 -5.14791e-15 0)
(-7.08749e-14 -5.37235e-15 0)
(-7.08073e-14 -6.07116e-15 0)
(-7.05996e-14 -6.60072e-15 0)
(-7.0521e-14 -6.88191e-15 0)
(-7.05362e-14 -6.45901e-15 0)
(-7.01872e-14 -5.33247e-15 0)
(-6.83939e-14 -4.4502e-15 0)
(-6.49681e-14 -3.86734e-15 0)
(-6.13139e-14 -3.58096e-15 0)
(-5.78548e-14 -3.3927e-15 0)
(-5.45789e-14 -3.17273e-15 0)
(-5.09714e-14 -2.4272e-15 0)
(-4.63876e-14 -2.19035e-15 0)
(-4.10349e-14 -2.46174e-15 0)
(-3.44859e-14 -2.28522e-15 0)
(-2.64329e-14 -1.35006e-15 0)
(-1.70972e-14 -8.09474e-16 0)
(-6.356e-15 -1.11595e-16 0)
(-1.40638e-15 6.67316e-16 0)
(-5.64318e-15 2.08967e-15 0)
(-9.8957e-15 2.96803e-15 0)
(-1.20744e-14 3.3375e-15 0)
(-1.46604e-14 4.23322e-15 0)
(-1.82732e-14 6.14571e-15 0)
(-2.12372e-14 7.07765e-15 0)
(-2.34482e-14 7.50658e-15 0)
(-2.51312e-14 7.11365e-15 0)
(-2.70322e-14 6.65633e-15 0)
(-2.88185e-14 7.02258e-15 0)
(-2.95249e-14 8.21674e-15 0)
(-3.1346e-14 9.46875e-15 0)
(-3.40506e-14 1.10704e-14 0)
(-3.66703e-14 1.19112e-14 0)
(-3.98062e-14 1.35733e-14 0)
(-4.25104e-14 1.53669e-14 0)
(-4.46851e-14 1.63486e-14 0)
(-4.64118e-14 1.63301e-14 0)
(-4.72013e-14 1.5184e-14 0)
(-4.71878e-14 1.41015e-14 0)
(-4.67176e-14 1.33975e-14 0)
(-4.53005e-14 1.3746e-14 0)
(-4.39864e-14 1.52796e-14 0)
(-4.49462e-14 1.65076e-14 0)
(-4.85531e-14 1.70304e-14 0)
(-5.22649e-14 1.72258e-14 0)
(-5.52333e-14 1.80779e-14 0)
(-5.88211e-14 1.99324e-14 0)
(-6.20405e-14 2.13262e-14 0)
(-6.47926e-14 2.19832e-14 0)
(-6.76304e-14 2.21988e-14 0)
(-6.98946e-14 2.19371e-14 0)
(-7.18204e-14 2.13369e-14 0)
(-7.37262e-14 2.06437e-14 0)
(-7.5932e-14 2.02269e-14 0)
(-7.7868e-14 2.02284e-14 0)
(-7.83279e-14 2.10052e-14 0)
(-7.66588e-14 2.17763e-14 0)
(-7.3367e-14 2.14386e-14 0)
(-6.97822e-14 2.0078e-14 0)
(-6.69175e-14 1.82538e-14 0)
(-6.55021e-14 1.61648e-14 0)
(-6.44836e-14 1.47184e-14 0)
(-6.35613e-14 1.38091e-14 0)
(-6.37148e-14 1.29877e-14 0)
(-6.48443e-14 1.27454e-14 0)
(-6.6456e-14 1.26567e-14 0)
(-6.80312e-14 1.3269e-14 0)
(-6.95705e-14 1.41952e-14 0)
(-7.01603e-14 1.48222e-14 0)
(-6.90363e-14 1.49081e-14 0)
(-6.78539e-14 1.38552e-14 0)
(-6.74579e-14 1.29915e-14 0)
(-6.68396e-14 1.26511e-14 0)
(-6.57849e-14 1.27296e-14 0)
(-6.41992e-14 1.29354e-14 0)
(-6.25345e-14 1.19771e-14 0)
(-6.25205e-14 1.06766e-14 0)
(-6.39096e-14 9.2522e-15 0)
(-6.51505e-14 7.94399e-15 0)
(-6.62465e-14 6.47916e-15 0)
(-6.73252e-14 4.76857e-15 0)
(-6.80837e-14 3.34977e-15 0)
(-6.8473e-14 1.73767e-15 0)
(-6.85418e-14 2.14169e-16 0)
(-6.81323e-14 -1.09915e-15 0)
(-6.72908e-14 -2.19605e-15 0)
(-6.71058e-14 -3.11576e-15 0)
(-6.7171e-14 -3.57082e-15 0)
(-6.73196e-14 -4.07857e-15 0)
(-6.82306e-14 -5.04281e-15 0)
(-6.95572e-14 -6.20479e-15 0)
(-7.08925e-14 -8.15752e-15 0)
(-7.24197e-14 -1.00083e-14 0)
(-7.43893e-14 -1.10278e-14 0)
(-7.74208e-14 -1.10483e-14 0)
(-8.1011e-14 -1.00397e-14 0)
(-8.40632e-14 -8.82617e-15 0)
(-8.58858e-14 -8.0687e-15 0)
(-8.71221e-14 -7.70005e-15 0)
(-8.80824e-14 -6.62485e-15 0)
(-8.84039e-14 -6.74194e-15 0)
(-8.84719e-14 -7.18501e-15 0)
(-8.80487e-14 -7.50223e-15 0)
(-8.75428e-14 -7.93436e-15 0)
(-8.69992e-14 -7.62189e-15 0)
(-8.6077e-14 -6.84875e-15 0)
(-8.39346e-14 -5.59059e-15 0)
(-8.03452e-14 -4.90361e-15 0)
(-7.60443e-14 -4.57692e-15 0)
(-7.16384e-14 -4.32089e-15 0)
(-6.71747e-14 -4.31374e-15 0)
(-6.25391e-14 -3.67622e-15 0)
(-5.71831e-14 -3.4453e-15 0)
(-5.03621e-14 -3.33212e-15 0)
(-4.17107e-14 -2.93434e-15 0)
(-3.17126e-14 -2.11942e-15 0)
(-2.0526e-14 -1.14928e-15 0)
(-7.6423e-15 -3.27056e-16 0)
(-1.66553e-15 8.686e-16 0)
(-6.47266e-15 1.96708e-15 0)
(-1.15224e-14 3.55456e-15 0)
(-1.419e-14 4.83257e-15 0)
(-1.67879e-14 5.73573e-15 0)
(-2.09997e-14 7.40253e-15 0)
(-2.50603e-14 8.62806e-15 0)
(-2.81075e-14 8.62618e-15 0)
(-3.03245e-14 8.54333e-15 0)
(-3.21372e-14 8.2363e-15 0)
(-3.3793e-14 8.90897e-15 0)
(-3.48863e-14 1.01141e-14 0)
(-3.68057e-14 1.13494e-14 0)
(-3.99556e-14 1.29357e-14 0)
(-4.29572e-14 1.42895e-14 0)
(-4.59212e-14 1.56987e-14 0)
(-4.92396e-14 1.8053e-14 0)
(-5.25443e-14 1.91663e-14 0)
(-5.52556e-14 1.92313e-14 0)
(-5.64804e-14 1.84516e-14 0)
(-5.64617e-14 1.76993e-14 0)
(-5.57133e-14 1.76828e-14 0)
(-5.36145e-14 1.82646e-14 0)
(-5.2328e-14 1.91106e-14 0)
(-5.398e-14 1.94049e-14 0)
(-5.80477e-14 1.95708e-14 0)
(-6.20023e-14 2.02048e-14 0)
(-6.49416e-14 2.13603e-14 0)
(-6.87654e-14 2.31206e-14 0)
(-7.28101e-14 2.48202e-14 0)
(-7.64223e-14 2.56164e-14 0)
(-8.00111e-14 2.6244e-14 0)
(-8.28967e-14 2.63875e-14 0)
(-8.53106e-14 2.60598e-14 0)
(-8.75875e-14 2.51337e-14 0)
(-8.96307e-14 2.44327e-14 0)
(-9.11804e-14 2.51136e-14 0)
(-9.13567e-14 2.62542e-14 0)
(-9.00538e-14 2.67472e-14 0)
(-8.74859e-14 2.58505e-14 0)
(-8.40967e-14 2.40125e-14 0)
(-8.11257e-14 2.15274e-14 0)
(-7.90359e-14 1.92188e-14 0)
(-7.73129e-14 1.81918e-14 0)
(-7.63444e-14 1.74826e-14 0)
(-7.64398e-14 1.66402e-14 0)
(-7.75203e-14 1.60746e-14 0)
(-7.89169e-14 1.53239e-14 0)
(-8.00179e-14 1.54681e-14 0)
(-8.14876e-14 1.65835e-14 0)
(-8.23919e-14 1.76312e-14 0)
(-8.19694e-14 1.77531e-14 0)
(-8.11355e-14 1.67583e-14 0)
(-8.02338e-14 1.56089e-14 0)
(-7.89906e-14 1.55587e-14 0)
(-7.77306e-14 1.56829e-14 0)
(-7.65589e-14 1.54036e-14 0)
(-7.52899e-14 1.41569e-14 0)
(-7.52601e-14 1.26044e-14 0)
(-7.65677e-14 1.10849e-14 0)
(-7.80939e-14 9.49165e-15 0)
(-7.96344e-14 7.56339e-15 0)
(-8.07495e-14 5.3115e-15 0)
(-8.1635e-14 3.22368e-15 0)
(-8.2151e-14 1.08127e-15 0)
(-8.18657e-14 -1.02687e-15 0)
(-8.10877e-14 -2.44738e-15 0)
(-8.02361e-14 -3.26166e-15 0)
(-7.99593e-14 -4.3639e-15 0)
(-7.99617e-14 -4.69944e-15 0)
(-8.04546e-14 -5.05223e-15 0)
(-8.18059e-14 -6.14229e-15 0)
(-8.36697e-14 -7.76161e-15 0)
(-8.54852e-14 -9.70371e-15 0)
(-8.70203e-14 -1.15057e-14 0)
(-8.87181e-14 -1.23943e-14 0)
(-9.15827e-14 -1.25124e-14 0)
(-9.51304e-14 -1.18769e-14 0)
(-9.84482e-14 -1.07907e-14 0)
(-1.01056e-13 -9.47227e-15 0)
(-1.02511e-13 -8.94932e-15 0)
(-1.03667e-13 -8.21163e-15 0)
(-1.04463e-13 -7.98466e-15 0)
(-1.04502e-13 -7.9777e-15 0)
(-1.04212e-13 -8.23869e-15 0)
(-1.03528e-13 -8.86772e-15 0)
(-1.02347e-13 -8.80715e-15 0)
(-1.00725e-13 -8.16857e-15 0)
(-9.80974e-14 -7.01849e-15 0)
(-9.41501e-14 -6.11421e-15 0)
(-8.93489e-14 -5.36248e-15 0)
(-8.44556e-14 -5.23866e-15 0)
(-7.90394e-14 -5.33634e-15 0)
(-7.31888e-14 -5.18199e-15 0)
(-6.66397e-14 -4.90451e-15 0)
(-5.85006e-14 -4.20948e-15 0)
(-4.84272e-14 -3.51759e-15 0)
(-3.6557e-14 -3.15045e-15 0)
(-2.34268e-14 -2.05353e-15 0)
(-8.73379e-15 -8.4355e-16 0)
(-2.23841e-15 1.05695e-15 0)
(-7.36549e-15 2.0551e-15 0)
(-1.2357e-14 3.87915e-15 0)
(-1.59644e-14 5.86219e-15 0)
(-1.92014e-14 6.73611e-15 0)
(-2.34652e-14 7.94907e-15 0)
(-2.84518e-14 9.68956e-15 0)
(-3.23416e-14 1.02084e-14 0)
(-3.49415e-14 1.0371e-14 0)
(-3.70128e-14 1.04975e-14 0)
(-3.84689e-14 1.11086e-14 0)
(-3.95706e-14 1.2063e-14 0)
(-4.1902e-14 1.31989e-14 0)
(-4.52678e-14 1.48036e-14 0)
(-4.87235e-14 1.68006e-14 0)
(-5.1781e-14 1.83081e-14 0)
(-5.52849e-14 2.02593e-14 0)
(-5.96275e-14 2.14337e-14 0)
(-6.31392e-14 2.18884e-14 0)
(-6.4869e-14 2.18843e-14 0)
(-6.46128e-14 2.20109e-14 0)
(-6.3473e-14 2.24274e-14 0)
(-6.17581e-14 2.27699e-14 0)
(-6.10723e-14 2.23288e-14 0)
(-6.30779e-14 2.20235e-14 0)
(-6.7126e-14 2.19949e-14 0)
(-7.09189e-14 2.30185e-14 0)
(-7.39237e-14 2.44193e-14 0)
(-7.79719e-14 2.60242e-14 0)
(-8.27182e-14 2.76372e-14 0)
(-8.70097e-14 2.87468e-14 0)
(-9.10094e-14 2.96658e-14 0)
(-9.46069e-14 3.02603e-14 0)
(-9.79079e-14 3.02483e-14 0)
(-1.00617e-13 2.95055e-14 0)
(-1.0207e-13 2.88667e-14 0)
(-1.02901e-13 2.93459e-14 0)
(-1.03469e-13 3.03109e-14 0)
(-1.02954e-13 3.07054e-14 0)
(-1.00818e-13 2.99992e-14 0)
(-9.77879e-14 2.79376e-14 0)
(-9.472e-14 2.52957e-14 0)
(-9.18165e-14 2.32314e-14 0)
(-8.93781e-14 2.19658e-14 0)
(-8.82577e-14 2.09282e-14 0)
(-8.83996e-14 2.00037e-14 0)
(-8.96514e-14 1.86888e-14 0)
(-9.09507e-14 1.74228e-14 0)
(-9.13231e-14 1.75062e-14 0)
(-9.22851e-14 1.87856e-14 0)
(-9.35838e-14 2.00542e-14 0)
(-9.38413e-14 2.01578e-14 0)
(-9.34121e-14 1.96053e-14 0)
(-9.2108e-14 1.88008e-14 0)
(-9.0316e-14 1.88097e-14 0)
(-8.91691e-14 1.83012e-14 0)
(-8.83214e-14 1.77236e-14 0)
(-8.73636e-14 1.66838e-14 0)
(-8.74328e-14 1.47045e-14 0)
(-8.88821e-14 1.26429e-14 0)
(-9.05724e-14 1.01764e-14 0)
(-9.23528e-14 7.89185e-15 0)
(-9.37412e-14 5.41137e-15 0)
(-9.45698e-14 3.00994e-15 0)
(-9.50755e-14 8.62185e-16 0)
(-9.46843e-14 -1.46069e-15 0)
(-9.33988e-14 -3.42464e-15 0)
(-9.24314e-14 -4.4393e-15 0)
(-9.20434e-14 -5.2697e-15 0)
(-9.17488e-14 -5.9369e-15 0)
(-9.26873e-14 -6.73001e-15 0)
(-9.48157e-14 -7.84159e-15 0)
(-9.71329e-14 -9.47173e-15 0)
(-9.90961e-14 -1.13872e-14 0)
(-1.00519e-13 -1.27921e-14 0)
(-1.02081e-13 -1.31965e-14 0)
(-1.04896e-13 -1.32463e-14 0)
(-1.08463e-13 -1.28179e-14 0)
(-1.1175e-13 -1.21367e-14 0)
(-1.14555e-13 -1.08705e-14 0)
(-1.16606e-13 -1.01871e-14 0)
(-1.17998e-13 -9.6833e-15 0)
(-1.1893e-13 -9.43674e-15 0)
(-1.19331e-13 -9.50543e-15 0)
(-1.19272e-13 -9.88744e-15 0)
(-1.18324e-13 -1.01642e-14 0)
(-1.16482e-13 -9.83564e-15 0)
(-1.14171e-13 -9.16926e-15 0)
(-1.10986e-13 -8.09472e-15 0)
(-1.06584e-13 -7.20304e-15 0)
(-1.01519e-13 -6.4957e-15 0)
(-9.61937e-14 -6.17489e-15 0)
(-8.99674e-14 -5.93809e-15 0)
(-8.3105e-14 -6.37926e-15 0)
(-7.5162e-14 -6.16157e-15 0)
(-6.55861e-14 -5.23426e-15 0)
(-5.44527e-14 -4.29863e-15 0)
(-4.11611e-14 -4.07598e-15 0)
(-2.61223e-14 -3.11829e-15 0)
(-9.40346e-15 -1.3591e-15 0)
(-2.66769e-15 1.0137e-15 0)
(-8.20792e-15 2.57133e-15 0)
(-1.32608e-14 4.32207e-15 0)
(-1.74234e-14 6.28432e-15 0)
(-2.13981e-14 7.71227e-15 0)
(-2.5756e-14 8.82288e-15 0)
(-3.10576e-14 1.06763e-14 0)
(-3.59485e-14 1.19441e-14 0)
(-3.91196e-14 1.23253e-14 0)
(-4.12817e-14 1.27458e-14 0)
(-4.3034e-14 1.34093e-14 0)
(-4.44589e-14 1.41674e-14 0)
(-4.66048e-14 1.5167e-14 0)
(-4.97957e-14 1.69868e-14 0)
(-5.35054e-14 1.90968e-14 0)
(-5.70937e-14 2.13349e-14 0)
(-6.11869e-14 2.25442e-14 0)
(-6.6051e-14 2.37992e-14 0)
(-7.00224e-14 2.45357e-14 0)
(-7.18392e-14 2.50423e-14 0)
(-7.18423e-14 2.56432e-14 0)
(-7.12664e-14 2.58232e-14 0)
(-7.01567e-14 2.59656e-14 0)
(-6.97675e-14 2.50667e-14 0)
(-7.16297e-14 2.45759e-14 0)
(-7.53348e-14 2.47656e-14 0)
(-7.89362e-14 2.61172e-14 0)
(-8.21901e-14 2.76852e-14 0)
(-8.66031e-14 2.92738e-14 0)
(-9.17295e-14 3.07057e-14 0)
(-9.65214e-14 3.19982e-14 0)
(-1.01104e-13 3.27451e-14 0)
(-1.05236e-13 3.2927e-14 0)
(-1.09143e-13 3.31574e-14 0)
(-1.12319e-13 3.34311e-14 0)
(-1.13798e-13 3.34266e-14 0)
(-1.14348e-13 3.34265e-14 0)
(-1.1456e-13 3.35332e-14 0)
(-1.14244e-13 3.44218e-14 0)
(-1.13086e-13 3.40502e-14 0)
(-1.10667e-13 3.18031e-14 0)
(-1.07275e-13 2.91212e-14 0)
(-1.03838e-13 2.71489e-14 0)
(-1.01147e-13 2.55817e-14 0)
(-9.98437e-14 2.41727e-14 0)
(-1.00172e-13 2.30304e-14 0)
(-1.01604e-13 2.11296e-14 0)
(-1.02096e-13 2.00594e-14 0)
(-1.01425e-13 2.01684e-14 0)
(-1.02067e-13 2.03752e-14 0)
(-1.03807e-13 2.13842e-14 0)
(-1.04624e-13 2.1972e-14 0)
(-1.04308e-13 2.21366e-14 0)
(-1.02813e-13 2.22676e-14 0)
(-1.01151e-13 2.18912e-14 0)
(-1.00108e-13 2.1118e-14 0)
(-9.91194e-14 2.00398e-14 0)
(-9.87121e-14 1.85181e-14 0)
(-9.93444e-14 1.62042e-14 0)
(-1.0102e-13 1.37622e-14 0)
(-1.02804e-13 1.10141e-14 0)
(-1.04494e-13 8.33018e-15 0)
(-1.05841e-13 5.70481e-15 0)
(-1.0661e-13 2.97511e-15 0)
(-1.07173e-13 3.60236e-16 0)
(-1.06843e-13 -2.05169e-15 0)
(-1.05201e-13 -4.10207e-15 0)
(-1.03637e-13 -5.48286e-15 0)
(-1.03262e-13 -6.13295e-15 0)
(-1.03432e-13 -6.95151e-15 0)
(-1.04493e-13 -8.18854e-15 0)
(-1.06754e-13 -9.47478e-15 0)
(-1.09577e-13 -1.06266e-14 0)
(-1.11698e-13 -1.20137e-14 0)
(-1.12713e-13 -1.30928e-14 0)
(-1.1411e-13 -1.37305e-14 0)
(-1.17104e-13 -1.40345e-14 0)
(-1.20827e-13 -1.37449e-14 0)
(-1.24152e-13 -1.31198e-14 0)
(-1.27253e-13 -1.23185e-14 0)
(-1.2962e-13 -1.12458e-14 0)
(-1.31306e-13 -1.06965e-14 0)
(-1.32606e-13 -1.09445e-14 0)
(-1.33085e-13 -1.12866e-14 0)
(-1.32827e-13 -1.16584e-14 0)
(-1.31384e-13 -1.16449e-14 0)
(-1.29121e-13 -1.08609e-14 0)
(-1.26371e-13 -1.01455e-14 0)
(-1.22781e-13 -9.06691e-15 0)
(-1.18086e-13 -8.13704e-15 0)
(-1.12477e-13 -7.70248e-15 0)
(-1.06507e-13 -6.99639e-15 0)
(-1.00038e-13 -6.68817e-15 0)
(-9.2393e-14 -7.18965e-15 0)
(-8.28217e-14 -6.82791e-15 0)
(-7.19245e-14 -6.06214e-15 0)
(-5.99315e-14 -5.29543e-15 0)
(-4.54304e-14 -4.98764e-15 0)
(-2.84576e-14 -3.76265e-15 0)
(-9.82654e-15 -1.4925e-15 0)
(-2.841e-15 9.19912e-16 0)
(-8.74438e-15 2.82281e-15 0)
(-1.40968e-14 4.88969e-15 0)
(-1.86384e-14 7.12115e-15 0)
(-2.32083e-14 8.63931e-15 0)
(-2.78514e-14 1.0027e-14 0)
(-3.3385e-14 1.15973e-14 0)
(-3.8992e-14 1.34498e-14 0)
(-4.28367e-14 1.469e-14 0)
(-4.5326e-14 1.4535e-14 0)
(-4.71702e-14 1.51417e-14 0)
(-4.86643e-14 1.67478e-14 0)
(-5.08433e-14 1.79445e-14 0)
(-5.39967e-14 1.96564e-14 0)
(-5.77167e-14 2.13478e-14 0)
(-6.19684e-14 2.36387e-14 0)
(-6.66784e-14 2.46722e-14 0)
(-7.17989e-14 2.64008e-14 0)
(-7.62431e-14 2.75815e-14 0)
(-7.84216e-14 2.77895e-14 0)
(-7.87392e-14 2.77421e-14 0)
(-7.82729e-14 2.79098e-14 0)
(-7.77122e-14 2.83025e-14 0)
(-7.79015e-14 2.78537e-14 0)
(-7.9583e-14 2.76044e-14 0)
(-8.28245e-14 2.82182e-14 0)
(-8.62116e-14 2.94412e-14 0)
(-8.96838e-14 3.09166e-14 0)
(-9.44791e-14 3.23548e-14 0)
(-1.00071e-13 3.39708e-14 0)
(-1.05457e-13 3.51821e-14 0)
(-1.10819e-13 3.53819e-14 0)
(-1.15292e-13 3.51953e-14 0)
(-1.18964e-13 3.53208e-14 0)
(-1.22212e-13 3.64836e-14 0)
(-1.24134e-13 3.73674e-14 0)
(-1.25022e-13 3.79862e-14 0)
(-1.24918e-13 3.7849e-14 0)
(-1.24582e-13 3.76364e-14 0)
(-1.24464e-13 3.69596e-14 0)
(-1.22794e-13 3.54015e-14 0)
(-1.19195e-13 3.31908e-14 0)
(-1.152e-13 3.11915e-14 0)
(-1.12159e-13 2.92544e-14 0)
(-1.1063e-13 2.78472e-14 0)
(-1.11119e-13 2.61785e-14 0)
(-1.12358e-13 2.42219e-14 0)
(-1.12239e-13 2.31496e-14 0)
(-1.11721e-13 2.26548e-14 0)
(-1.12032e-13 2.1904e-14 0)
(-1.13012e-13 2.25639e-14 0)
(-1.13802e-13 2.38044e-14 0)
(-1.13581e-13 2.45982e-14 0)
(-1.1252e-13 2.50665e-14 0)
(-1.11222e-13 2.43297e-14 0)
(-1.10416e-13 2.34232e-14 0)
(-1.09954e-13 2.1764e-14 0)
(-1.09775e-13 1.9416e-14 0)
(-1.10449e-13 1.68128e-14 0)
(-1.12216e-13 1.44443e-14 0)
(-1.14144e-13 1.20843e-14 0)
(-1.15932e-13 9.30708e-15 0)
(-1.17467e-13 6.48297e-15 0)
(-1.18398e-13 3.26906e-15 0)
(-1.18772e-13 -8.56495e-17 0)
(-1.18065e-13 -2.94916e-15 0)
(-1.16131e-13 -4.70071e-15 0)
(-1.14264e-13 -6.16938e-15 0)
(-1.13624e-13 -7.40135e-15 0)
(-1.13959e-13 -7.72881e-15 0)
(-1.15482e-13 -8.58726e-15 0)
(-1.1784e-13 -1.0357e-14 0)
(-1.20589e-13 -1.1383e-14 0)
(-1.22935e-13 -1.20793e-14 0)
(-1.24329e-13 -1.30281e-14 0)
(-1.25913e-13 -1.4367e-14 0)
(-1.28665e-13 -1.52029e-14 0)
(-1.32147e-13 -1.50047e-14 0)
(-1.35587e-13 -1.45492e-14 0)
(-1.38493e-13 -1.3857e-14 0)
(-1.41043e-13 -1.22321e-14 0)
(-1.43601e-13 -1.1623e-14 0)
(-1.4527e-13 -1.20846e-14 0)
(-1.45739e-13 -1.21014e-14 0)
(-1.45289e-13 -1.25797e-14 0)
(-1.43245e-13 -1.27591e-14 0)
(-1.40498e-13 -1.21618e-14 0)
(-1.37412e-13 -1.15656e-14 0)
(-1.33325e-13 -1.00531e-14 0)
(-1.28461e-13 -8.7661e-15 0)
(-1.22435e-13 -8.26085e-15 0)
(-1.15898e-13 -7.80006e-15 0)
(-1.09078e-13 -7.64224e-15 0)
(-1.00516e-13 -7.68202e-15 0)
(-8.98026e-14 -7.33351e-15 0)
(-7.79151e-14 -6.99184e-15 0)
(-6.49495e-14 -6.20615e-15 0)
(-4.90447e-14 -5.43937e-15 0)
(-3.02795e-14 -3.95174e-15 0)
(-1.01703e-14 -1.40529e-15 0)
(-2.99662e-15 9.39458e-16 0)
(-9.05542e-15 2.90968e-15 0)
(-1.44817e-14 5.15733e-15 0)
(-1.96606e-14 7.7886e-15 0)
(-2.48718e-14 9.5801e-15 0)
(-2.98005e-14 1.10472e-14 0)
(-3.53538e-14 1.26598e-14 0)
(-4.10651e-14 1.48519e-14 0)
(-4.62813e-14 1.64034e-14 0)
(-4.94777e-14 1.67172e-14 0)
(-5.05062e-14 1.72641e-14 0)
(-5.20669e-14 1.89011e-14 0)
(-5.46937e-14 2.02003e-14 0)
(-5.80594e-14 2.20759e-14 0)
(-6.18546e-14 2.3572e-14 0)
(-6.64045e-14 2.54969e-14 0)
(-7.13502e-14 2.69456e-14 0)
(-7.65047e-14 2.85068e-14 0)
(-8.19571e-14 2.99519e-14 0)
(-8.50145e-14 3.02105e-14 0)
(-8.53735e-14 2.99608e-14 0)
(-8.4804e-14 3.01704e-14 0)
(-8.4498e-14 3.03134e-14 0)
(-8.49685e-14 3.03449e-14 0)
(-8.64862e-14 3.026e-14 0)
(-8.95971e-14 3.09178e-14 0)
(-9.30963e-14 3.2233e-14 0)
(-9.67488e-14 3.35752e-14 0)
(-1.0162e-13 3.50114e-14 0)
(-1.07461e-13 3.69916e-14 0)
(-1.13812e-13 3.77644e-14 0)
(-1.19901e-13 3.78875e-14 0)
(-1.24521e-13 3.82141e-14 0)
(-1.27811e-13 3.82892e-14 0)
(-1.30736e-13 3.94365e-14 0)
(-1.32835e-13 4.06473e-14 0)
(-1.34247e-13 4.17215e-14 0)
(-1.3506e-13 4.20081e-14 0)
(-1.35016e-13 4.09644e-14 0)
(-1.34633e-13 4.01207e-14 0)
(-1.33084e-13 3.90839e-14 0)
(-1.29758e-13 3.74369e-14 0)
(-1.25896e-13 3.5443e-14 0)
(-1.22602e-13 3.35032e-14 0)
(-1.20999e-13 3.16422e-14 0)
(-1.21687e-13 2.9306e-14 0)
(-1.22678e-13 2.7116e-14 0)
(-1.22109e-13 2.5851e-14 0)
(-1.21211e-13 2.48543e-14 0)
(-1.2099e-13 2.42117e-14 0)
(-1.21217e-13 2.48756e-14 0)
(-1.21853e-13 2.5921e-14 0)
(-1.21992e-13 2.66174e-14 0)
(-1.21488e-13 2.67237e-14 0)
(-1.20691e-13 2.59257e-14 0)
(-1.20181e-13 2.47421e-14 0)
(-1.20118e-13 2.28268e-14 0)
(-1.20301e-13 2.01437e-14 0)
(-1.20888e-13 1.72878e-14 0)
(-1.22376e-13 1.44926e-14 0)
(-1.24498e-13 1.25086e-14 0)
(-1.266e-13 9.94937e-15 0)
(-1.28356e-13 7.24607e-15 0)
(-1.29611e-13 4.14703e-15 0)
(-1.30013e-13 4.28585e-16 0)
(-1.28606e-13 -2.65095e-15 0)
(-1.26052e-13 -4.59227e-15 0)
(-1.24241e-13 -6.42999e-15 0)
(-1.23188e-13 -8.03437e-15 0)
(-1.23281e-13 -8.32864e-15 0)
(-1.25638e-13 -9.32697e-15 0)
(-1.28306e-13 -1.08272e-14 0)
(-1.30678e-13 -1.20286e-14 0)
(-1.33142e-13 -1.27541e-14 0)
(-1.35092e-13 -1.39617e-14 0)
(-1.36914e-13 -1.53228e-14 0)
(-1.39303e-13 -1.61178e-14 0)
(-1.42584e-13 -1.59655e-14 0)
(-1.45999e-13 -1.5536e-14 0)
(-1.48614e-13 -1.46293e-14 0)
(-1.51321e-13 -1.33737e-14 0)
(-1.54719e-13 -1.27129e-14 0)
(-1.56554e-13 -1.28647e-14 0)
(-1.5702e-13 -1.29971e-14 0)
(-1.56752e-13 -1.3668e-14 0)
(-1.54275e-13 -1.35741e-14 0)
(-1.51065e-13 -1.31391e-14 0)
(-1.47117e-13 -1.21453e-14 0)
(-1.4233e-13 -1.0631e-14 0)
(-1.37518e-13 -9.24134e-15 0)
(-1.31491e-13 -8.50279e-15 0)
(-1.24586e-13 -8.15798e-15 0)
(-1.17135e-13 -8.05749e-15 0)
(-1.0784e-13 -7.89242e-15 0)
(-9.63242e-14 -7.60969e-15 0)
(-8.32974e-14 -7.56434e-15 0)
(-6.90657e-14 -6.73006e-15 0)
(-5.20567e-14 -5.42668e-15 0)
(-3.1816e-14 -3.83999e-15 0)
(-1.04602e-14 -1.19897e-15 0)