/*--------------------------------*- C++ -*----------------------------------*\
| =========                 |                                                 |
| \\      /  F ield         | OpenFOAM: The Open Source CFD Toolbox           |
|  \\    /   O peration     | Version:  v2012                                 |
|   \\  /    A nd           | Website:  www.openfoam.com                      |
|    \\/     M anipulation  |                                                 |
\*---------------------------------------------------------------------------*/
FoamFile
{
    version     2.0;
    format      ascii;
    class       volScalarField;
    location    "14.5";
    object      Psi_z;
}
// * * * * * * * * * * * * * * * * * * * * * * * * * * * * * * * * * * * * * //

dimensions      [0 2 -1 0 0 0 0];


internalField   nonuniform List<scalar> 
65536
(
8.58923e-06
2.57683e-05
4.29488e-05
6.01321e-05
7.73192e-05
9.45111e-05
0.000111709
0.000128914
0.000146126
0.000163348
0.00018058
0.000197822
0.000215077
0.000232344
0.000249624
0.000266919
0.000284229
0.000301555
0.000318898
0.000336258
0.000353635
0.000371031
0.000388446
0.00040588
0.000423334
0.000440807
0.0004583
0.000475814
0.000493348
0.000510902
0.000528476
0.00054607
0.000563683
0.000581316
0.000598967
0.000616636
0.000634322
0.000652025
0.000669743
0.000687475
0.000705221
0.000722978
0.000740745
0.000758521
0.000776303
0.000794091
0.000811881
0.000829672
0.000847461
0.000865245
0.000883022
0.000900789
0.000918543
0.000936281
0.000953999
0.000971693
0.00098936
0.001007
0.0010246
0.00104216
0.00105967
0.00107714
0.00109455
0.00111191
0.00112919
0.00114641
0.00116356
0.00118062
0.00119759
0.00121447
0.00123125
0.00124792
0.00126447
0.00128091
0.00129722
0.00131339
0.00132942
0.00134529
0.00136101
0.00137656
0.00139194
0.00140713
0.00142214
0.00143694
0.00145154
0.00146592
0.00148008
0.001494
0.00150768
0.00152111
0.00153428
0.00154719
0.00155981
0.00157216
0.00158421
0.00159596
0.0016074
0.00161852
0.00162932
0.00163979
0.00164991
0.00165969
0.0016691
0.00167816
0.00168685
0.00169516
0.00170309
0.00171063
0.00171778
0.00172453
0.00173087
0.0017368
0.00174232
0.00174743
0.00175211
0.00175636
0.00176019
0.00176359
0.00176655
0.00176909
0.00177118
0.00177284
0.00177406
0.00177485
0.0017752
0.00177511
0.00177458
0.00177363
0.00177224
0.00177042
0.00176817
0.0017655
0.0017624
0.00175889
0.00175497
0.00175063
0.0017459
0.00174076
0.00173523
0.0017293
0.001723
0.00171632
0.00170927
0.00170185
0.00169407
0.00168595
0.00167748
0.00166867
0.00165953
0.00165007
0.0016403
0.00163022
0.00161984
0.00160916
0.00159821
0.00158698
0.00157548
0.00156372
0.00155171
0.00153945
0.00152696
0.00151424
0.0015013
0.00148815
0.00147479
0.00146124
0.00144749
0.00143356
0.00141946
0.00140519
0.00139075
0.00137617
0.00136144
0.00134656
0.00133155
0.00131642
0.00130117
0.0012858
0.00127032
0.00125474
0.00123906
0.00122329
0.00120743
0.0011915
0.00117549
0.0011594
0.00114325
0.00112705
0.00111078
0.00109446
0.00107809
0.00106168
0.00104523
0.00102874
0.00101222
0.000995666
0.000979088
0.000962486
0.000945864
0.000929224
0.000912569
0.000895902
0.000879225
0.000862541
0.00084585
0.000829157
0.000812462
0.000795768
0.000779075
0.000762386
0.000745702
0.000729025
0.000712356
0.000695695
0.000679044
0.000662404
0.000645777
0.000629161
0.000612559
0.000595971
0.000579398
0.000562839
0.000546295
0.000529768
0.000513256
0.00049676
0.00048028
0.000463817
0.000447369
0.000430938
0.000414522
0.000398123
0.000381739
0.00036537
0.000349016
0.000332677
0.000316352
0.00030004
0.000283742
0.000267457
0.000251183
0.000234922
0.000218671
0.00020243
0.000186199
0.000169978
0.000153764
0.000137558
0.000121358
0.000105165
8.89768e-05
7.27931e-05
5.66131e-05
4.04359e-05
2.42607e-05
8.08677e-06
2.57673e-05
7.73034e-05
0.000128844
0.000180393
0.000231953
0.000283528
0.000335121
0.000386734
0.000438371
0.000490035
0.000541729
0.000593456
0.000645218
0.000697018
0.000748859
0.000800743
0.000852673
0.00090465
0.000956677
0.00100876
0.00106089
0.00111308
0.00116532
0.00121762
0.00126998
0.0013224
0.00137488
0.00142742
0.00148003
0.00153269
0.00158541
0.00163819
0.00169103
0.00174393
0.00179689
0.00184989
0.00190295
0.00195606
0.00200922
0.00206242
0.00211565
0.00216893
0.00222223
0.00227556
0.00232891
0.00238227
0.00243565
0.00248902
0.00254239
0.00259575
0.00264908
0.00270238
0.00275565
0.00280887
0.00286202
0.00291511
0.00296811
0.00302103
0.00307383
0.00312652
0.00317907
0.00323148
0.00328372
0.00333578
0.00338766
0.00343932
0.00349075
0.00354194
0.00359287
0.00364351
0.00369385
0.00374387
0.00379355
0.00384286
0.00389179
0.00394031
0.0039884
0.00403604
0.0040832
0.00412986
0.004176
0.0042216
0.00426662
0.00431104
0.00435484
0.00439799
0.00444046
0.00448224
0.00452329
0.00456359
0.00460312
0.00464184
0.00467973
0.00471677
0.00475293
0.00478819
0.00482252
0.0048559
0.0048883
0.0049197
0.00495008
0.00497941
0.00500768
0.00503486
0.00506093
0.00508587
0.00510966
0.00513229
0.00515374
0.00517398
0.00519302
0.00521082
0.00522739
0.0052427
0.00525674
0.00526952
0.005281
0.0052912
0.0053001
0.00530769
0.00531398
0.00531896
0.00532263
0.00532498
0.00532603
0.00532576
0.00532419
0.00532131
0.00531714
0.00531167
0.00530493
0.00529691
0.00528763
0.00527709
0.00526531
0.00525231
0.00523809
0.00522267
0.00520607
0.0051883
0.00516938
0.00514932
0.00512816
0.0051059
0.00508257
0.00505818
0.00503276
0.00500633
0.00497891
0.00495053
0.0049212
0.00489095
0.0048598
0.00482777
0.0047949
0.0047612
0.00472669
0.00469141
0.00465537
0.00461859
0.00458111
0.00454295
0.00450412
0.00446465
0.00442457
0.00438389
0.00434265
0.00430086
0.00425854
0.00421572
0.00417242
0.00412865
0.00408444
0.00403982
0.00399479
0.00394938
0.00390361
0.00385749
0.00381105
0.00376431
0.00371727
0.00366995
0.00362238
0.00357457
0.00352653
0.00347827
0.00342982
0.00338119
0.00333239
0.00328343
0.00323432
0.00318508
0.00313572
0.00308625
0.00303668
0.00298702
0.00293728
0.00288748
0.00283761
0.00278768
0.00273772
0.00268771
0.00263768
0.00258763
0.00253755
0.00248747
0.00243738
0.0023873
0.00233722
0.00228715
0.0022371
0.00218707
0.00213706
0.00208707
0.00203712
0.0019872
0.00193732
0.00188747
0.00183766
0.0017879
0.00173818
0.0016885
0.00163887
0.00158929
0.00153975
0.00149026
0.00144082
0.00139143
0.00134209
0.0012928
0.00124355
0.00119435
0.0011452
0.00109609
0.00104703
0.000998016
0.000949041
0.000900107
0.000851213
0.000802357
0.000753538
0.000704753
0.000656002
0.000607281
0.000558589
0.000509924
0.000461284
0.000412666
0.000364069
0.000315489
0.000266926
0.000218376
0.000169836
0.000121306
7.27809e-05
2.42599e-05
4.29437e-05
0.000128834
0.000214732
0.000300643
0.000386573
0.000472528
0.000558512
0.000644531
0.000730589
0.000816693
0.000902846
0.000989055
0.00107532
0.00116165
0.00124805
0.00133452
0.00142107
0.0015077
0.00159441
0.0016812
0.00176809
0.00185507
0.00194214
0.00202931
0.00211657
0.00220394
0.00229141
0.00237897
0.00246664
0.00255441
0.00264229
0.00273026
0.00281833
0.00290649
0.00299475
0.0030831
0.00317154
0.00326005
0.00334865
0.00343732
0.00352605
0.00361484
0.00370369
0.00379258
0.0038815
0.00397045
0.00405941
0.00414837
0.00423733
0.00432627
0.00441517
0.00450402
0.00459281
0.00468151
0.00477012
0.00485861
0.00494696
0.00503516
0.00512319
0.00521101
0.00529862
0.00538598
0.00547306
0.00555986
0.00564633
0.00573245
0.0058182
0.00590353
0.00598843
0.00607286
0.00615678
0.00624017
0.00632298
0.0064052
0.00648677
0.00656766
0.00664784
0.00672726
0.00680589
0.00688369
0.00696062
0.00703663
0.00711169
0.00718576
0.00725878
0.00733073
0.00740155
0.00747121
0.00753966
0.00760685
0.00767275
0.00773732
0.0078005
0.00786227
0.00792256
0.00798135
0.0080386
0.00809425
0.00814828
0.00820064
0.0082513
0.00830021
0.00834734
0.00839266
0.00843613
0.00847772
0.0085174
0.00855513
0.00859089
0.00862466
0.0086564
0.00868609
0.00871371
0.00873924
0.00876266
0.00878395
0.00880311
0.00882011
0.00883495
0.00884761
0.0088581
0.0088664
0.00887251
0.00887643
0.00887817
0.00887772
0.00887509
0.00887029
0.00886333
0.00885422
0.00884296
0.00882959
0.0088141
0.00879653
0.00877689
0.0087552
0.00873148
0.00870577
0.00867808
0.00864844
0.00861689
0.00858345
0.00854815
0.00851103
0.00847212
0.00843145
0.00838906
0.00834499
0.00829926
0.00825193
0.00820302
0.00815258
0.00810063
0.00804724
0.00799242
0.00793622
0.00787869
0.00781986
0.00775976
0.00769845
0.00763595
0.00757231
0.00750757
0.00744177
0.00737494
0.00730712
0.00723836
0.00716868
0.00709813
0.00702674
0.00695454
0.00688157
0.00680788
0.00673348
0.00665841
0.00658271
0.0065064
0.00642952
0.0063521
0.00627417
0.00619575
0.00611687
0.00603757
0.00595786
0.00587778
0.00579734
0.00571658
0.00563551
0.00555415
0.00547254
0.00539068
0.0053086
0.00522633
0.00514386
0.00506124
0.00497846
0.00489555
0.00481253
0.00472941
0.00464619
0.00456291
0.00447956
0.00439616
0.00431273
0.00422927
0.00414579
0.00406231
0.00397883
0.00389536
0.0038119
0.00372848
0.00364509
0.00356173
0.00347842
0.00339517
0.00331196
0.00322882
0.00314574
0.00306273
0.00297978
0.00289691
0.00281412
0.0027314
0.00264876
0.0025662
0.00248372
0.00240132
0.002319
0.00223676
0.00215461
0.00207253
0.00199054
0.00190862
0.00182677
0.00174501
0.00166331
0.00158169
0.00150014
0.00141865
0.00133722
0.00125586
0.00117455
0.0010933
0.0010121
0.000930952
0.000849846
0.000768782
0.000687755
0.000606762
0.000525799
0.000444862
0.000363947
0.000283051
0.000202169
0.000121297
4.04318e-05
6.01175e-05
0.000180356
0.000300606
0.000420874
0.000541169
0.000661498
0.000781868
0.000902288
0.00102276
0.0011433
0.00126391
0.00138459
0.00150536
0.00162622
0.00174717
0.00186823
0.00198939
0.00211066
0.00223205
0.00235356
0.0024752
0.00259696
0.00271886
0.00284089
0.00296306
0.00308537
0.00320783
0.00333042
0.00345316
0.00357604
0.00369906
0.00382222
0.00394552
0.00406896
0.00419253
0.00431622
0.00444004
0.00456397
0.00468801
0.00481215
0.00493639
0.00506071
0.0051851
0.00530956
0.00543407
0.00555861
0.00568317
0.00580774
0.0059323
0.00605683
0.00618131
0.00630572
0.00643005
0.00655426
0.00667833
0.00680225
0.00692597
0.00704948
0.00717274
0.00729573
0.00741841
0.00754075
0.00766271
0.00778426
0.00790536
0.00802597
0.00814605
0.00826556
0.00838446
0.00850271
0.00862025
0.00873704
0.00885303
0.00896818
0.00908243
0.00919573
0.00930803
0.00941928
0.00952942
0.00963839
0.00974615
0.00985263
0.00995777
0.0100615
0.0101638
0.0102646
0.0103638
0.0104614
0.0105573
0.0106514
0.0107437
0.0108342
0.0109227
0.0110092
0.0110937
0.0111761
0.0112563
0.0113342
0.0114099
0.0114833
0.0115543
0.0116228
0.0116888
0.0117523
0.0118132
0.0118715
0.0119271
0.01198
0.0120301
0.0120774
0.0121218
0.0121634
0.0122021
0.0122379
0.0122707
0.0123005
0.0123274
0.0123512
0.012372
0.0123897
0.0124044
0.012416
0.0124246
0.0124301
0.0124325
0.0124319
0.0124282
0.0124214
0.0124117
0.0123989
0.0123831
0.0123644
0.0123427
0.012318
0.0122905
0.0122601
0.0122269
0.0121908
0.012152
0.0121105
0.0120663
0.0120194
0.01197
0.011918
0.0118634
0.0118064
0.011747
0.0116853
0.0116212
0.0115549
0.0114864
0.0114157
0.0113429
0.0112681
0.0111913
0.0111126
0.011032
0.0109496
0.0108654
0.0107795
0.0106919
0.0106028
0.0105121
0.0104199
0.0103263
0.0102313
0.010135
0.0100374
0.00993856
0.00983856
0.00973744
0.00963524
0.00953201
0.00942781
0.00932267
0.00921664
0.00910977
0.0090021
0.00889367
0.00878452
0.00867469
0.00856423
0.00845317
0.00834155
0.00822939
0.00811675
0.00800364
0.00789011
0.00777619
0.0076619
0.00754727
0.00743233
0.00731712
0.00720165
0.00708594
0.00697004
0.00685394
0.00673769
0.0066213
0.00650478
0.00638816
0.00627146
0.00615469
0.00603786
0.005921
0.00580412
0.00568723
0.00557035
0.00545348
0.00533663
0.00521983
0.00510307
0.00498637
0.00486973
0.00475316
0.00463667
0.00452026
0.00440395
0.00428772
0.0041716
0.00405558
0.00393966
0.00382385
0.00370815
0.00359257
0.0034771
0.00336174
0.00324649
0.00313136
0.00301634
0.00290144
0.00278664
0.00267196
0.00255738
0.00244291
0.00232854
0.00221427
0.0021001
0.00198602
0.00187203
0.00175812
0.0016443
0.00153055
0.00141688
0.00130327
0.00118973
0.00107624
0.00096281
0.000849425
0.000736082
0.000622776
0.000509501
0.000396252
0.000283023
0.000169808
5.66017e-05
7.72873e-05
0.000231867
0.00038646
0.000541079
0.000695731
0.000850427
0.00100518
0.00115999
0.00131487
0.00146984
0.0016249
0.00178005
0.00193531
0.00209069
0.00224619
0.00240182
0.00255759
0.00271351
0.00286957
0.00302579
0.00318217
0.00333872
0.00349545
0.00365234
0.00380942
0.00396667
0.00412411
0.00428173
0.00443954
0.00459753
0.0047557
0.00491405
0.00507259
0.0052313
0.00539018
0.00554922
0.00570842
0.00586778
0.00602727
0.0061869
0.00634665
0.00650651
0.00666646
0.0068265
0.0069866
0.00714675
0.00730693
0.00746712
0.00762729
0.00778743
0.00794752
0.00810751
0.0082674
0.00842714
0.00858671
0.00874607
0.00890519
0.00906404
0.00922258
0.00938076
0.00953854
0.0096959
0.00985276
0.0100091
0.0101649
0.01032
0.0104745
0.0106282
0.0107812
0.0109333
0.0110845
0.0112347
0.0113839
0.0115321
0.011679
0.0118248
0.0119693
0.0121124
0.0122541
0.0123943
0.012533
0.01267
0.0128052
0.0129387
0.0130704
0.0132
0.0133277
0.0134533
0.0135766
0.0136978
0.0138166
0.013933
0.0140469
0.0141582
0.014267
0.014373
0.0144762
0.0145765
0.0146739
0.0147683
0.0148597
0.0149479
0.0150329
0.0151146
0.015193
0.015268
0.0153395
0.0154075
0.015472
0.0155329
0.0155901
0.0156437
0.0156935
0.0157395
0.0157817
0.0158201
0.0158547
0.0158853
0.0159121
0.0159349
0.0159538
0.0159687
0.0159797
0.0159868
0.0159899
0.0159891
0.0159843
0.0159756
0.0159631
0.0159466
0.0159263
0.0159021
0.0158742
0.0158425
0.015807
0.0157679
0.0157251
0.0156787
0.0156287
0.0155753
0.0155183
0.015458
0.0153944
0.0153274
0.0152572
0.0151839
0.0151074
0.0150279
0.0149455
0.0148601
0.0147719
0.0146809
0.0145873
0.014491
0.0143922
0.0142908
0.0141871
0.0140811
0.0139727
0.0138622
0.0137495
0.0136348
0.0135181
0.0133995
0.0132791
0.0131568
0.0130329
0.0129073
0.0127802
0.0126515
0.0125214
0.0123899
0.0122571
0.0121231
0.0119878
0.0118514
0.0117139
0.0115754
0.011436
0.0112956
0.0111543
0.0110122
0.0108693
0.0107258
0.0105815
0.0104366
0.0102911
0.0101451
0.00999859
0.0098516
0.00970417
0.00955635
0.00940817
0.00925967
0.00911087
0.0089618
0.0088125
0.008663
0.00851331
0.00836347
0.0082135
0.00806343
0.00791327
0.00776304
0.00761277
0.00746247
0.00731216
0.00716186
0.00701158
0.00686133
0.00671114
0.006561
0.00641094
0.00626097
0.00611108
0.0059613
0.00581162
0.00566206
0.00551263
0.00536332
0.00521414
0.0050651
0.0049162
0.00476744
0.00461883
0.00447036
0.00432204
0.00417387
0.00402585
0.00387797
0.00373024
0.00358265
0.0034352
0.00328789
0.00314071
0.00299367
0.00284676
0.00269997
0.0025533
0.00240675
0.00226031
0.00211397
0.00196773
0.00182159
0.00167553
0.00152955
0.00138365
0.00123782
0.00109205
0.000946329
0.000800659
0.00065503
0.000509433
0.000363862
0.00021831
7.27688e-05
9.44523e-05
0.000283363
0.000472291
0.000661249
0.000850249
0.0010393
0.00122842
0.00141762
0.0016069
0.00179629
0.00198579
0.0021754
0.00236515
0.00255504
0.00274508
0.00293528
0.00312566
0.0033162
0.00350694
0.00369786
0.00388899
0.00408032
0.00427186
0.00446361
0.00465559
0.00484778
0.00504021
0.00523285
0.00542573
0.00561883
0.00581216
0.00600571
0.00619948
0.00639347
0.00658766
0.00678206
0.00697666
0.00717144
0.0073664
0.00756152
0.0077568
0.00795221
0.00814774
0.00834337
0.00853908
0.00873486
0.00893068
0.00912651
0.00932233
0.0095181
0.00971381
0.00990942
0.0101049
0.0103002
0.0104953
0.0106901
0.0108847
0.0110789
0.0112728
0.0114662
0.0116591
0.0118515
0.0120434
0.0122345
0.012425
0.0126147
0.0128036
0.0129916
0.0131787
0.0133647
0.0135496
0.0137334
0.0139159
0.0140971
0.0142769
0.0144552
0.0146319
0.014807
0.0149803
0.0151518
0.0153214
0.015489
0.0156545
0.0158178
0.0159788
0.0161375
0.0162937
0.0164473
0.0165983
0.0167465
0.0168919
0.0170343
0.0171737
0.0173099
0.0174429
0.0175726
0.0176989
0.0178217
0.0179409
0.0180565
0.0181682
0.0182762
0.0183802
0.0184802
0.0185761
0.0186679
0.0187554
0.0188387
0.0189176
0.0189921
0.0190621
0.0191277
0.0191886
0.0192449
0.0192966
0.0193436
0.0193858
0.0194233
0.0194561
0.019484
0.0195071
0.0195254
0.0195388
0.0195474
0.0195512
0.0195502
0.0195444
0.0195337
0.0195183
0.0194981
0.0194733
0.0194437
0.0194095
0.0193706
0.0193272
0.0192793
0.0192269
0.0191701
0.0191089
0.0190435
0.0189738
0.0189
0.018822
0.0187401
0.0186542
0.0185644
0.0184708
0.0183735
0.0182726
0.0181681
0.0180602
0.0179489
0.0178343
0.0177164
0.0175955
0.0174715
0.0173446
0.0172148
0.0170823
0.016947
0.0168092
0.0166688
0.0165261
0.016381
0.0162336
0.0160841
0.0159325
0.0157788
0.0156233
0.0154659
0.0153068
0.015146
0.0149835
0.0148196
0.0146541
0.0144873
0.0143192
0.0141498
0.0139792
0.0138075
0.0136347
0.0134609
0.0132862
0.0131107
0.0129343
0.0127571
0.0125792
0.0124006
0.0122215
0.0120417
0.0118615
0.0116807
0.0114996
0.011318
0.0111361
0.0109538
0.0107713
0.0105885
0.0104055
0.0102223
0.010039
0.00985549
0.00967192
0.00948827
0.00930456
0.00912083
0.00893709
0.00875335
0.00856965
0.00838599
0.00820239
0.00801887
0.00783544
0.00765212
0.00746891
0.00728582
0.00710287
0.00692006
0.00673741
0.00655491
0.00637257
0.0061904
0.00600841
0.00582659
0.00564495
0.00546349
0.00528221
0.00510111
0.00492019
0.00473945
0.00455889
0.00437851
0.0041983
0.00401826
0.00383839
0.00365868
0.00347913
0.00329973
0.00312048
0.00294136
0.00276239
0.00258354
0.00240482
0.00222621
0.00204771
0.00186931
0.00169099
0.00151277
0.00133462
0.00115653
0.000978503
0.000800526
0.000622589
0.000444684
0.000266801
8.89323e-05
0.000111611
0.000334841
0.000558091
0.000781377
0.00100471
0.00122811
0.00145159
0.00167516
0.00189884
0.00212263
0.00234655
0.00257062
0.00279485
0.00301924
0.00324381
0.00346858
0.00369354
0.00391872
0.00414411
0.00436974
0.0045956
0.0048217
0.00504806
0.00527467
0.00550154
0.00572868
0.00595608
0.00618375
0.0064117
0.00663991
0.00686839
0.00709714
0.00732616
0.00755543
0.00778495
0.00801471
0.00824471
0.00847493
0.00870537
0.008936
0.00916681
0.00939779
0.00962891
0.00986016
0.0100915
0.0103229
0.0105544
0.0107859
0.0110174
0.0112488
0.0114802
0.0117115
0.0119426
0.0121735
0.0124041
0.0126345
0.0128645
0.0130942
0.0133234
0.0135521
0.0137802
0.0140077
0.0142346
0.0144607
0.0146859
0.0149103
0.0151337
0.015356
0.0155773
0.0157973
0.016016
0.0162333
0.0164492
0.0166635
0.0168762
0.0170871
0.0172962
0.0175033
0.0177083
0.0179112
0.0181119
0.0183102
0.018506
0.0186992
0.0188897
0.0190774
0.0192623
0.019444
0.0196227
0.0197981
0.0199701
0.0201386
0.0203036
0.0204648
0.0206222
0.0207757
0.0209252
0.0210705
0.0212116
0.0213483
0.0214806
0.0216084
0.0217315
0.0218498
0.0219634
0.022072
0.0221756
0.0222742
0.0223676
0.0224558
0.0225387
0.0226162
0.0226883
0.022755
0.0228162
0.0228718
0.0229218
0.0229662
0.0230049
0.0230379
0.0230652
0.0230869
0.0231028
0.023113
0.0231174
0.0231162
0.0231092
0.0230966
0.0230783
0.0230544
0.0230249
0.0229899
0.0229494
0.0229034
0.022852
0.0227952
0.0227332
0.0226659
0.0225935
0.022516
0.0224334
0.022346
0.0222537
0.0221567
0.022055
0.0219487
0.0218379
0.0217228
0.0216033
0.0214796
0.0213519
0.0212201
0.0210845
0.020945
0.0208019
0.0206552
0.0205049
0.0203513
0.0201945
0.0200344
0.0198713
0.0197053
0.0195363
0.0193647
0.0191903
0.0190134
0.018834
0.0186523
0.0184683
0.0182821
0.0180939
0.0179036
0.0177115
0.0175175
0.0173218
0.0171245
0.0169256
0.0167253
0.0165235
0.0163204
0.0161161
0.0159106
0.015704
0.0154964
0.0152878
0.0150783
0.0148679
0.0146568
0.0144449
0.0142324
0.0140193
0.0138056
0.0135914
0.0133767
0.0131616
0.0129461
0.0127303
0.0125142
0.0122979
0.0120813
0.0118646
0.0116477
0.0114307
0.0112136
0.0109964
0.0107792
0.010562
0.0103448
0.0101277
0.00991059
0.00969358
0.00947666
0.00925985
0.00904316
0.00882661
0.00861022
0.00839398
0.00817792
0.00796204
0.00774634
0.00753084
0.00731554
0.00710045
0.00688557
0.0066709
0.00645644
0.0062422
0.00602817
0.00581436
0.00560076
0.00538738
0.00517421
0.00496124
0.00474847
0.0045359
0.00432353
0.00411134
0.00389934
0.00368751
0.00347585
0.00326435
0.003053
0.0028418
0.00263073
0.00241979
0.00220897
0.00199826
0.00178764
0.00157712
0.00136667
0.0011563
0.000945982
0.000735714
0.000525483
0.000315279
0.000105091
0.000128763
0.000386297
0.000643856
0.000901456
0.00115911
0.00141685
0.00167467
0.0019326
0.00219065
0.00244884
0.00270718
0.00296569
0.00322438
0.00348326
0.00374236
0.00400167
0.00426122
0.00452101
0.00478106
0.00504137
0.00530196
0.00556284
0.005824
0.00608546
0.00634723
0.0066093
0.00687168
0.00713438
0.00739739
0.00766072
0.00792436
0.00818832
0.00845258
0.00871714
0.00898199
0.00924713
0.00951254
0.00977822
0.0100441
0.0103103
0.0105767
0.0108432
0.01111
0.0113769
0.0116439
0.011911
0.0121781
0.0124453
0.0127125
0.0129797
0.0132467
0.0135137
0.0137804
0.014047
0.0143133
0.0145792
0.0148448
0.0151099
0.0153745
0.0156386
0.015902
0.0161647
0.0164266
0.0166876
0.0169477
0.0172068
0.0174648
0.0177216
0.017977
0.0182311
0.0184837
0.0187348
0.0189841
0.0192316
0.0194773
0.0197209
0.0199624
0.0202016
0.0204385
0.0206729
0.0209047
0.0211338
0.02136
0.0215833
0.0218034
0.0220203
0.0222338
0.0224439
0.0226503
0.022853
0.0230518
0.0232465
0.0234372
0.0236235
0.0238054
0.0239829
0.0241556
0.0243236
0.0244866
0.0246447
0.0247976
0.0249452
0.0250875
0.0252243
0.0253556
0.0254811
0.0256009
0.0257149
0.0258228
0.0259248
0.0260206
0.0261102
0.0261936
0.0262706
0.0263413
0.0264056
0.0264634
0.0265146
0.0265594
0.0265975
0.0266291
0.0266541
0.0266724
0.0266842
0.0266893
0.0266878
0.0266798
0.0266651
0.026644
0.0266163
0.0265822
0.0265417
0.0264947
0.0264415
0.026382
0.0263164
0.0262446
0.0261668
0.0260831
0.0259934
0.025898
0.0257969
0.0256902
0.025578
0.0254604
0.0253375
0.0252095
0.0250763
0.0249382
0.0247953
0.0246476
0.0244953
0.0243385
0.0241773
0.0240119
0.0238423
0.0236687
0.0234912
0.0233099
0.023125
0.0229365
0.0227446
0.0225494
0.022351
0.0221496
0.0219452
0.021738
0.021528
0.0213155
0.0211004
0.0208829
0.0206632
0.0204412
0.0202172
0.0199912
0.0197633
0.0195336
0.0193022
0.0190692
0.0188347
0.0185987
0.0183614
0.0181229
0.0178831
0.0176422
0.0174003
0.0171574
0.0169137
0.0166691
0.0164237
0.0161776
0.0159309
0.0156836
0.0154358
0.0151875
0.0149388
0.0146896
0.0144402
0.0141905
0.0139405
0.0136903
0.01344
0.0131895
0.0129389
0.0126883
0.0124376
0.0121869
0.0119363
0.0116857
0.0114351
0.0111847
0.0109343
0.0106841
0.0104341
0.0101842
0.00993446
0.00968493
0.0094356
0.00918649
0.00893759
0.00868892
0.00844048
0.00819229
0.00794434
0.00769663
0.00744918
0.00720198
0.00695502
0.00670832
0.00646187
0.00621566
0.0059697
0.00572398
0.00547849
0.00523323
0.0049882
0.00474338
0.00449878
0.00425438
0.00401017
0.00376615
0.00352231
0.00327864
0.00303512
0.00279175
0.00254852
0.00230542
0.00206243
0.00181954
0.00157675
0.00133404
0.00109139
0.000848802
0.000606256
0.000363741
0.000121245
0.000145906
0.000437729
0.000729579
0.00102148
0.00131344
0.00160549
0.00189764
0.00218991
0.00248233
0.00277489
0.00306764
0.00336057
0.00365371
0.00394708
0.00424068
0.00453453
0.00482865
0.00512305
0.00541774
0.00571274
0.00600805
0.00630368
0.00659965
0.00689596
0.00719261
0.00748961
0.00778698
0.0080847
0.00838278
0.00868122
0.00898003
0.00927919
0.0095787
0.00987855
0.0101787
0.0104793
0.0107801
0.0110813
0.0113827
0.0116844
0.0119863
0.0122885
0.0125909
0.0128934
0.0131961
0.0134989
0.0138018
0.0141048
0.0144077
0.0147106
0.0150134
0.015316
0.0156185
0.0159208
0.0162227
0.0165243
0.0168254
0.0171261
0.0174262
0.0177257
0.0180244
0.0183224
0.0186194
0.0189155
0.0192106
0.0195045
0.0197971
0.0200884
0.0203782
0.0206665
0.0209531
0.0212379
0.0215208
0.0218016
0.0220804
0.0223568
0.0226308
0.0229023
0.0231712
0.0234372
0.0237003
0.0239603
0.024217
0.0244704
0.0247203
0.0249665
0.0252089
0.0254474
0.0256817
0.0259118
0.0261375
0.0263586
0.0265751
0.0267866
0.0269932
0.0271947
0.0273908
0.0275815
0.0277667
0.0279462
0.0281198
0.0282875
0.0284491
0.0286044
0.0287535
0.0288961
0.0290321
0.0291615
0.0292841
0.0293998
0.0295087
0.0296104
0.0297051
0.0297926
0.0298729
0.0299458
0.0300115
0.0300697
0.0301205
0.0301638
0.0301996
0.0302279
0.0302487
0.030262
0.0302678
0.0302661
0.0302569
0.0302402
0.0302162
0.0301847
0.0301459
0.0300998
0.0300464
0.0299859
0.0299183
0.0298437
0.0297622
0.0296737
0.0295786
0.0294767
0.0293683
0.0292534
0.0291322
0.0290047
0.0288711
0.0287316
0.0285861
0.0284349
0.028278
0.0281156
0.0279479
0.0277749
0.0275969
0.0274138
0.027226
0.0270334
0.0268363
0.0266348
0.026429
0.026219
0.0260051
0.0257872
0.0255657
0.0253405
0.0251118
0.0248799
0.0246447
0.0244064
0.0241651
0.0239211
0.0236743
0.0234249
0.0231731
0.0229189
0.0226624
0.0224039
0.0221433
0.0218807
0.0216164
0.0213504
0.0210827
0.0208135
0.0205429
0.0202709
0.0199977
0.0197233
0.0194479
0.0191714
0.018894
0.0186157
0.0183367
0.0180569
0.0177764
0.0174954
0.0172138
0.0169318
0.0166493
0.0163665
0.0160833
0.0157999
0.0155162
0.0152324
0.0149484
0.0146644
0.0143802
0.014096
0.0138118
0.0135277
0.0132436
0.0129596
0.0126757
0.0123919
0.0121083
0.0118248
0.0115416
0.0112585
0.0109757
0.0106931
0.0104107
0.0101286
0.00984677
0.00956519
0.00928389
0.00900287
0.00872213
0.00844168
0.00816151
0.00788163
0.00760204
0.00732273
0.00704371
0.00676496
0.00648649
0.00620828
0.00593034
0.00565265
0.00537522
0.00509802
0.00482106
0.00454432
0.00426779
0.00399146
0.00371533
0.00343937
0.00316358
0.00288795
0.00261247
0.00233712
0.00206188
0.00178675
0.00151171
0.00123675
0.000961847
0.000686998
0.000412185
0.000137393
0.00016304
0.000489132
0.000815255
0.00114143
0.00146768
0.00179403
0.00212049
0.00244709
0.00277385
0.00310078
0.00342791
0.00375525
0.00408282
0.00441065
0.00473875
0.00506713
0.00539581
0.0057248
0.00605413
0.00638379
0.00671381
0.0070442
0.00737496
0.0077061
0.00803764
0.00836958
0.00870191
0.00903466
0.00936781
0.00970137
0.0100353
0.0103697
0.0107045
0.0110396
0.0113752
0.0117111
0.0120474
0.012384
0.012721
0.0130582
0.0133958
0.0137336
0.0140716
0.0144099
0.0147483
0.0150868
0.0154255
0.0157642
0.0161029
0.0164416
0.0167802
0.0171186
0.0174569
0.0177949
0.0181325
0.0184698
0.0188066
0.0191429
0.0194785
0.0198135
0.0201477
0.0204809
0.0208133
0.0211445
0.0214746
0.0218034
0.0221308
0.0224567
0.022781
0.0231035
0.0234242
0.0237429
0.0240595
0.0243738
0.0246857
0.0249951
0.0253019
0.0256057
0.0259067
0.0262044
0.0264989
0.02679
0.0270775
0.0273611
0.0276409
0.0279166
0.028188
0.028455
0.0287174
0.0289751
0.0292278
0.0294754
0.0297178
0.0299548
0.0301861
0.0304117
0.0306314
0.0308451
0.0310525
0.0312535
0.031448
0.0316358
0.0318168
0.0319909
0.0321578
0.0323176
0.0324699
0.0326149
0.0327522
0.0328819
0.0330038
0.0331178
0.0332239
0.0333219
0.0334118
0.0334935
0.033567
0.0336322
0.033689
0.0337375
0.0337776
0.0338093
0.0338326
0.0338474
0.0338538
0.0338519
0.0338415
0.0338228
0.0337957
0.0337604
0.0337169
0.0336651
0.0336053
0.0335375
0.0334617
0.033378
0.0332865
0.0331874
0.0330807
0.0329666
0.0328451
0.0327163
0.0325804
0.0324376
0.0322879
0.0321315
0.0319685
0.031799
0.0316233
0.0314414
0.0312535
0.0310597
0.0308603
0.0306552
0.0304448
0.0302292
0.0300084
0.0297827
0.0295522
0.0293171
0.0290775
0.0288336
0.0285855
0.0283334
0.0280774
0.0278177
0.0275544
0.0272877
0.0270177
0.0267445
0.0264683
0.0261892
0.0259073
0.0256228
0.0253358
0.0250465
0.0247549
0.0244611
0.0241654
0.0238677
0.0235682
0.023267
0.0229643
0.02266
0.0223544
0.0220475
0.0217393
0.0214301
0.0211198
0.0208085
0.0204964
0.0201835
0.0198698
0.0195555
0.0192407
0.0189252
0.0186094
0.0182931
0.0179765
0.0176595
0.0173424
0.017025
0.0167075
0.0163899
0.0160722
0.0157545
0.0154367
0.0151191
0.0148014
0.0144839
0.0141666
0.0138493
0.0135323
0.0132154
0.0128988
0.0125824
0.0122662
0.0119503
0.0116347
0.0113194
0.0110044
0.0106896
0.0103752
0.0100611
0.00974735
0.0094339
0.00912077
0.00880796
0.00849548
0.00818332
0.00787148
0.00755995
0.00724873
0.00693782
0.0066272
0.00631687
0.00600682
0.00569704
0.00538752
0.00507825
0.00476922
0.00446042
0.00415184
0.00384345
0.00353526
0.00322725
0.00291939
0.00261168
0.00230411
0.00199666
0.0016893
0.00138204
0.00107484
0.000767706
0.000460607
0.000153533
0.000180164
0.000540503
0.000900878
0.00126131
0.00162183
0.00198245
0.00234321
0.00270411
0.00306519
0.00342647
0.00378796
0.00414969
0.00451169
0.00487396
0.00523653
0.00559942
0.00596265
0.00632622
0.00669017
0.00705449
0.00741921
0.00778434
0.00814989
0.00851586
0.00888228
0.00924913
0.00961644
0.00998421
0.0103524
0.0107211
0.0110902
0.0114598
0.0118299
0.0122003
0.0125712
0.0129426
0.0133143
0.0136864
0.0140589
0.0144318
0.0148049
0.0151784
0.0155521
0.0159261
0.0163003
0.0166746
0.0170491
0.0174236
0.0177981
0.0181727
0.0185471
0.0189214
0.0192955
0.0196693
0.0200427
0.0204158
0.0207883
0.0211603
0.0215316
0.0219021
0.0222718
0.0226405
0.0230082
0.0233746
0.0237398
0.0241036
0.0244659
0.0248266
0.0251854
0.0255424
0.0258973
0.0262501
0.0266005
0.0269484
0.0272937
0.0276361
0.0279757
0.0283121
0.0286453
0.028975
0.029301
0.0296233
0.0299416
0.0302558
0.0305656
0.0308709
0.0311715
0.0314672
0.0317579
0.0320432
0.0323232
0.0325975
0.032866
0.0331285
0.0333848
0.0336347
0.0338782
0.0341148
0.0343446
0.0345674
0.0347829
0.034991
0.0351916
0.0353844
0.0355694
0.0357464
0.0359153
0.0360759
0.0362281
0.0363717
0.0365068
0.0366331
0.0367506
0.0368592
0.0369588
0.0370494
0.0371308
0.037203
0.0372659
0.0373196
0.037364
0.0373991
0.0374248
0.0374412
0.0374483
0.037446
0.0374345
0.0374136
0.0373836
0.0373444
0.037296
0.0372386
0.0371722
0.037097
0.0370129
0.0369201
0.0368186
0.0367087
0.0365904
0.0364638
0.0363291
0.0361863
0.0360357
0.0358773
0.0357114
0.035538
0.0353573
0.0351695
0.0349747
0.0347732
0.0345649
0.0343502
0.0341292
0.033902
0.0336689
0.03343
0.0331854
0.0329354
0.0326801
0.0324197
0.0321543
0.0318842
0.0316095
0.0313303
0.0310468
0.0307592
0.0304677
0.0301723
0.0298734
0.0295709
0.0292651
0.0289562
0.0286442
0.0283293
0.0280116
0.0276914
0.0273686
0.0270435
0.0267162
0.0263868
0.0260554
0.0257222
0.0253872
0.0250506
0.0247124
0.0243728
0.0240319
0.0236898
0.0233465
0.0230022
0.022657
0.0223109
0.0219639
0.0216163
0.021268
0.0209192
0.0205699
0.0202201
0.0198699
0.0195195
0.0191687
0.0188178
0.0184667
0.0181155
0.0177642