/*--------------------------------*- C++ -*----------------------------------*\
| =========                 |                                                 |
| \\      /  F ield         | OpenFOAM: The Open Source CFD Toolbox           |
|  \\    /   O peration     | Version:  v2012                                 |
|   \\  /    A nd           | Website:  www.openfoam.com                      |
|    \\/     M anipulation  |                                                 |
\*---------------------------------------------------------------------------*/
FoamFile
{
    version     2.0;
    format      ascii;
    class       volVectorField;
    location    "14.5";
    object      U;
}
// * * * * * * * * * * * * * * * * * * * * * * * * * * * * * * * * * * * * * //

dimensions      [0 1 -1 0 0 0 0];


internalField   nonuniform List<vector> 
65536
(
(0.000699755 -0.000699785 0)
(0.00209934 -0.000699817 0)
(0.003499 -0.000699915 0)
(0.00489889 -0.000700049 0)
(0.0062991 -0.000700226 0)
(0.0076997 -0.000700446 0)
(0.00910079 -0.000700709 0)
(0.0105024 -0.000701013 0)
(0.0119047 -0.000701357 0)
(0.0133078 -0.000701743 0)
(0.0147116 -0.000702167 0)
(0.0161164 -0.00070263 0)
(0.0175221 -0.00070313 0)
(0.0189288 -0.000703665 0)
(0.0203366 -0.000704234 0)
(0.0217456 -0.000704837 0)
(0.0231559 -0.00070547 0)
(0.0245674 -0.000706132 0)
(0.0259803 -0.000706821 0)
(0.0273946 -0.000707536 0)
(0.0288104 -0.000708273 0)
(0.0302277 -0.000709031 0)
(0.0316465 -0.000709807 0)
(0.0330668 -0.000710598 0)
(0.0344888 -0.000711402 0)
(0.0359124 -0.000712216 0)
(0.0373376 -0.000713037 0)
(0.0387645 -0.000713861 0)
(0.040193 -0.000714685 0)
(0.0416232 -0.000715506 0)
(0.043055 -0.00071632 0)
(0.0444884 -0.000717123 0)
(0.0459234 -0.000717911 0)
(0.04736 -0.00071868 0)
(0.0487981 -0.000719427 0)
(0.0502377 -0.000720145 0)
(0.0516787 -0.000720831 0)
(0.053121 -0.00072148 0)
(0.0545646 -0.000722087 0)
(0.0560093 -0.000722646 0)
(0.0574552 -0.000723153 0)
(0.058902 -0.000723602 0)
(0.0603496 -0.000723987 0)
(0.0617979 -0.000724303 0)
(0.0632468 -0.000724543 0)
(0.0646961 -0.000724702 0)
(0.0661457 -0.000724773 0)
(0.0675953 -0.000724749 0)
(0.0690447 -0.000724624 0)
(0.0704938 -0.000724392 0)
(0.0719423 -0.000724044 0)
(0.0733901 -0.000723576 0)
(0.0748367 -0.000722978 0)
(0.076282 -0.000722244 0)
(0.0777258 -0.000721366 0)
(0.0791676 -0.000720337 0)
(0.0806072 -0.00071915 0)
(0.0820443 -0.000717796 0)
(0.0834785 -0.000716268 0)
(0.0849095 -0.000714558 0)
(0.0863369 -0.000712658 0)
(0.0877603 -0.00071056 0)
(0.0891793 -0.000708256 0)
(0.0905935 -0.000705739 0)
(0.0920024 -0.000703 0)
(0.0934057 -0.000700031 0)
(0.0948027 -0.000696825 0)
(0.0961931 -0.000693374 0)
(0.0975764 -0.00068967 0)
(0.098952 -0.000685706 0)
(0.100319 -0.000681474 0)
(0.101678 -0.000676967 0)
(0.103028 -0.000672178 0)
(0.104367 -0.000667099 0)
(0.105696 -0.000661725 0)
(0.107014 -0.00065605 0)
(0.108321 -0.000650066 0)
(0.109615 -0.000643768 0)
(0.110896 -0.000637151 0)
(0.112164 -0.000630209 0)
(0.113417 -0.000622938 0)
(0.114656 -0.000615334 0)
(0.115879 -0.000607393 0)
(0.117086 -0.000599111 0)
(0.118275 -0.000590486 0)
(0.119448 -0.000581514 0)
(0.120602 -0.000572195 0)
(0.121737 -0.000562527 0)
(0.122852 -0.000552509 0)
(0.123947 -0.000542142 0)
(0.125021 -0.000531425 0)
(0.126073 -0.000520359 0)
(0.127103 -0.000508947 0)
(0.128109 -0.000497192 0)
(0.129092 -0.000485095 0)
(0.13005 -0.000472661 0)
(0.130983 -0.000459894 0)
(0.13189 -0.000446799 0)
(0.13277 -0.000433383 0)
(0.133624 -0.000419652 0)
(0.134449 -0.000405612 0)
(0.135246 -0.000391272 0)
(0.136014 -0.00037664 0)
(0.136753 -0.000361726 0)
(0.137462 -0.00034654 0)
(0.138139 -0.000331091 0)
(0.138786 -0.000315391 0)
(0.139401 -0.000299452 0)
(0.139984 -0.000283286 0)
(0.140534 -0.000266905 0)
(0.141052 -0.000250323 0)
(0.141536 -0.000233554 0)
(0.141986 -0.000216612 0)
(0.142402 -0.000199511 0)
(0.142784 -0.000182267 0)
(0.143132 -0.000164895 0)
(0.143444 -0.00014741 0)
(0.143721 -0.000129828 0)
(0.143963 -0.000112166 0)
(0.14417 -9.44386e-05 0)
(0.144341 -7.66636e-05 0)
(0.144477 -5.88569e-05 0)
(0.144577 -4.10349e-05 0)
(0.144641 -2.32141e-05 0)
(0.144669 -5.41066e-06 0)
(0.144662 1.23587e-05 0)
(0.14462 3.0078e-05 0)
(0.144542 4.77315e-05 0)
(0.144429 6.53034e-05 0)
(0.144281 8.27783e-05 0)
(0.144097 0.000100141 0)
(0.14388 0.000117377 0)
(0.143628 0.000134471 0)
(0.143342 0.00015141 0)
(0.143022 0.00016818 0)
(0.142669 0.000184768 0)
(0.142283 0.000201161 0)
(0.141864 0.000217348 0)
(0.141413 0.000233316 0)
(0.14093 0.000249056 0)
(0.140416 0.000264555 0)
(0.139872 0.000279805 0)
(0.139297 0.000294797 0)
(0.138692 0.000309522 0)
(0.138059 0.000323971 0)
(0.137396 0.000338138 0)
(0.136706 0.000352016 0)
(0.135988 0.000365599 0)
(0.135243 0.000378881 0)
(0.134472 0.000391857 0)
(0.133675 0.000404524 0)
(0.132853 0.000416877 0)
(0.132007 0.000428914 0)
(0.131137 0.000440632 0)
(0.130244 0.00045203 0)
(0.129329 0.000463105 0)
(0.128391 0.000473858 0)
(0.127433 0.000484288 0)
(0.126454 0.000494394 0)
(0.125455 0.000504179 0)
(0.124437 0.000513643 0)
(0.1234 0.000522788 0)
(0.122345 0.000531616 0)
(0.121273 0.000540129 0)
(0.120184 0.00054833 0)
(0.11908 0.000556223 0)
(0.117959 0.00056381 0)
(0.116824 0.000571097 0)
(0.115674 0.000578087 0)
(0.114511 0.000584785 0)
(0.113335 0.000591194 0)
(0.112146 0.000597322 0)
(0.110945 0.000603171 0)
(0.109733 0.000608749 0)
(0.10851 0.00061406 0)
(0.107277 0.000619111 0)
(0.106033 0.000623906 0)
(0.104781 0.000628453 0)
(0.103519 0.000632757 0)
(0.102249 0.000636824 0)
(0.100972 0.000640661 0)
(0.0996864 0.000644274 0)
(0.0983942 0.000647669 0)
(0.0970955 0.000650853 0)
(0.0957905 0.000653833 0)
(0.0944799 0.000656614 0)
(0.0931638 0.000659203 0)
(0.0918428 0.000661607 0)
(0.0905172 0.000663831 0)
(0.0891873 0.000665883 0)
(0.0878534 0.000667769 0)
(0.086516 0.000669495 0)
(0.0851752 0.000671066 0)
(0.0838315 0.00067249 0)
(0.0824851 0.000673773 0)
(0.0811362 0.000674919 0)
(0.0797852 0.000675936 0)
(0.0784323 0.000676829 0)
(0.0770777 0.000677604 0)
(0.0757217 0.000678266 0)
(0.0743645 0.000678821 0)
(0.0730063 0.000679274 0)
(0.0716473 0.000679631 0)
(0.0702876 0.000679897 0)
(0.0689276 0.000680077 0)
(0.0675672 0.000680176 0)
(0.0662067 0.000680198 0)
(0.0648463 0.00068015 0)
(0.063486 0.000680034 0)
(0.062126 0.000679856 0)
(0.0607665 0.00067962 0)
(0.0594075 0.000679331 0)
(0.0580491 0.000678992 0)
(0.0566914 0.000678608 0)
(0.0553345 0.000678182 0)
(0.0539786 0.000677719 0)
(0.0526236 0.000677221 0)
(0.0512696 0.000676694 0)
(0.0499167 0.000676139 0)
(0.048565 0.000675562 0)
(0.0472144 0.000674963 0)
(0.0458651 0.000674348 0)
(0.044517 0.000673719 0)
(0.0431701 0.000673078 0)
(0.0418246 0.000672429 0)
(0.0404804 0.000671774 0)
(0.0391374 0.000671117 0)
(0.0377959 0.000670458 0)
(0.0364556 0.000669802 0)
(0.0351166 0.00066915 0)
(0.0337789 0.000668504 0)
(0.0324425 0.000667866 0)
(0.0311074 0.000667239 0)
(0.0297736 0.000666624 0)
(0.0284409 0.000666023 0)
(0.0271094 0.000665438 0)
(0.0257791 0.00066487 0)
(0.0244499 0.000664322 0)
(0.0231218 0.000663794 0)
(0.0217947 0.000663288 0)
(0.0204686 0.000662806 0)
(0.0191435 0.000662347 0)
(0.0178192 0.000661915 0)
(0.0164958 0.000661508 0)
(0.0151732 0.00066113 0)
(0.0138513 0.00066078 0)
(0.01253 0.000660459 0)
(0.0112094 0.000660168 0)
(0.00988934 0.000659908 0)
(0.00856977 0.000659679 0)
(0.00725061 0.000659482 0)
(0.00593182 0.000659317 0)
(0.00461333 0.000659185 0)
(0.00329507 0.000659085 0)
(0.00197698 0.000659019 0)
(0.000658987 0.000658985 0)
(0.000699721 -0.00209927 0)
(0.0020992 -0.0020994 0)
(0.00349879 -0.00209968 0)
(0.00489859 -0.00210008 0)
(0.00629872 -0.00210061 0)
(0.00769924 -0.00210127 0)
(0.00910024 -0.00210206 0)
(0.0105018 -0.00210297 0)
(0.011904 -0.002104 0)
(0.013307 -0.00210516 0)
(0.0147108 -0.00210644 0)
(0.0161154 -0.00210783 0)
(0.017521 -0.00210933 0)
(0.0189277 -0.00211093 0)
(0.0203355 -0.00211264 0)
(0.0217444 -0.00211445 0)
(0.0231546 -0.00211635 0)
(0.0245661 -0.00211834 0)
(0.025979 -0.00212041 0)
(0.0273932 -0.00212256 0)
(0.0288089 -0.00212477 0)
(0.0302262 -0.00212705 0)
(0.0316449 -0.00212938 0)
(0.0330653 -0.00213176 0)
(0.0344872 -0.00213417 0)
(0.0359108 -0.00213662 0)
(0.037336 -0.00213908 0)
(0.0387628 -0.00214156 0)
(0.0401914 -0.00214403 0)
(0.0416215 -0.0021465 0)
(0.0430534 -0.00214894 0)
(0.0444868 -0.00215136 0)
(0.0459219 -0.00215373 0)
(0.0473585 -0.00215604 0)
(0.0487967 -0.00215828 0)
(0.0502363 -0.00216044 0)
(0.0516774 -0.0021625 0)
(0.0531198 -0.00216446 0)
(0.0545634 -0.00216628 0)
(0.0560083 -0.00216797 0)
(0.0574542 -0.00216949 0)
(0.0589011 -0.00217084 0)
(0.0603489 -0.00217201 0)
(0.0617974 -0.00217296 0)
(0.0632465 -0.00217369 0)
(0.0646959 -0.00217417 0)
(0.0661456 -0.00217439 0)
(0.0675954 -0.00217432 0)
(0.0690451 -0.00217395 0)
(0.0704944 -0.00217326 0)
(0.0719432 -0.00217223 0)
(0.0733912 -0.00217083 0)
(0.0748381 -0.00216904 0)
(0.0762837 -0.00216685 0)
(0.0777277 -0.00216422 0)
(0.0791699 -0.00216115 0)
(0.0806098 -0.00215759 0)
(0.0820472 -0.00215354 0)
(0.0834818 -0.00214896 0)
(0.0849132 -0.00214384 0)
(0.0863409 -0.00213815 0)
(0.0877647 -0.00213186 0)
(0.0891841 -0.00212496 0)
(0.0905988 -0.00211741 0)
(0.0920082 -0.0021092 0)
(0.0934119 -0.0021003 0)
(0.0948094 -0.00209069 0)
(0.0962003 -0.00208035 0)
(0.0975841 -0.00206924 0)
(0.0989603 -0.00205736 0)
(0.100328 -0.00204467 0)
(0.101687 -0.00203116 0)
(0.103037 -0.00201679 0)
(0.104378 -0.00200157 0)
(0.105707 -0.00198545 0)
(0.107026 -0.00196843 0)
(0.108333 -0.00195048 0)
(0.109628 -0.00193159 0)
(0.11091 -0.00191175 0)
(0.112178 -0.00189093 0)
(0.113432 -0.00186912 0)
(0.114671 -0.00184631 0)
(0.115895 -0.00182249 0)
(0.117102 -0.00179765 0)
(0.118293 -0.00177177 0)
(0.119466 -0.00174486 0)
(0.120621 -0.0017169 0)
(0.121757 -0.0016879 0)
(0.122873 -0.00165785 0)
(0.123968 -0.00162674 0)
(0.125043 -0.00159459 0)
(0.126096 -0.00156139 0)
(0.127126 -0.00152715 0)
(0.128133 -0.00149188 0)
(0.129116 -0.00145559 0)
(0.130075 -0.00141828 0)
(0.131009 -0.00137998 0)
(0.131916 -0.00134069 0)
(0.132797 -0.00130043 0)
(0.133651 -0.00125923 0)
(0.134477 -0.0012171 0)
(0.135275 -0.00117407 0)
(0.136044 -0.00113017 0)
(0.136783 -0.00108542 0)
(0.137492 -0.00103985 0)
(0.138171 -0.000993489 0)
(0.138818 -0.000946378 0)
(0.139433 -0.000898548 0)
(0.140017 -0.000850036 0)
(0.140567 -0.00080088 0)
(0.141085 -0.000751121 0)
(0.14157 -0.0007008 0)
(0.14202 -0.000649958 0)
(0.142437 -0.000598641 0)
(0.142819 -0.000546893 0)
(0.143167 -0.00049476 0)
(0.143479 -0.000442289 0)
(0.143757 -0.000389528 0)
(0.143999 -0.000336524 0)
(0.144206 -0.000283327 0)
(0.144377 -0.000229985 0)
(0.144512 -0.000176549 0)
(0.144612 -0.000123066 0)
(0.144676 -6.95876e-05 0)
(0.144705 -1.61614e-05 0)
(0.144698 3.71628e-05 0)
(0.144655 9.03369e-05 0)
(0.144577 0.000143313 0)
(0.144464 0.000196044 0)
(0.144315 0.000248484 0)
(0.144132 0.000300587 0)
(0.143914 0.000352308 0)
(0.143662 0.000403605 0)
(0.143375 0.000454436 0)
(0.143055 0.000504759 0)
(0.142702 0.000554535 0)
(0.142315 0.000603727 0)
(0.141896 0.000652298 0)
(0.141445 0.000700214 0)
(0.140962 0.000747442 0)
(0.140447 0.000793951 0)
(0.139902 0.000839711 0)
(0.139327 0.000884694 0)
(0.138722 0.000928875 0)
(0.138087 0.000972231 0)
(0.137424 0.00101474 0)
(0.136733 0.00105638 0)
(0.136015 0.00109713 0)
(0.135269 0.00113698 0)
(0.134498 0.00117591 0)
(0.1337 0.00121392 0)
(0.132878 0.00125098 0)
(0.132031 0.00128709 0)
(0.13116 0.00132225 0)
(0.130267 0.00135644 0)
(0.129351 0.00138967 0)
(0.128413 0.00142193 0)
(0.127454 0.00145322 0)
(0.126474 0.00148354 0)
(0.125474 0.00151289 0)
(0.124456 0.00154128 0)
(0.123418 0.00156871 0)
(0.122363 0.00159519 0)
(0.12129 0.00162073 0)
(0.120201 0.00164533 0)
(0.119095 0.001669 0)
(0.117974 0.00169176 0)
(0.116838 0.00171362 0)
(0.115688 0.00173458 0)
(0.114524 0.00175467 0)
(0.113348 0.00177389 0)
(0.112158 0.00179227 0)
(0.110957 0.00180981 0)
(0.109744 0.00182654 0)
(0.10852 0.00184247 0)
(0.107286 0.00185761 0)
(0.106043 0.00187199 0)
(0.10479 0.00188563 0)
(0.103528 0.00189853 0)
(0.102257 0.00191073 0)
(0.100979 0.00192223 0)
(0.0996935 0.00193307 0)
(0.0984009 0.00194324 0)
(0.0971017 0.00195279 0)
(0.0957964 0.00196172 0)
(0.0944853 0.00197006 0)
(0.0931689 0.00197782 0)
(0.0918475 0.00198503 0)
(0.0905215 0.00199169 0)
(0.0891913 0.00199784 0)
(0.0878571 0.00200349 0)
(0.0865193 0.00200866 0)
(0.0851783 0.00201337 0)
(0.0838343 0.00201764 0)
(0.0824876 0.00202148 0)
(0.0811385 0.00202491 0)
(0.0797872 0.00202796 0)
(0.0784341 0.00203063 0)
(0.0770792 0.00203295 0)
(0.075723 0.00203493 0)
(0.0743656 0.00203659 0)
(0.0730072 0.00203794 0)
(0.071648 0.00203901 0)
(0.0702881 0.0020398 0)
(0.0689279 0.00204034 0)
(0.0675674 0.00204063 0)
(0.0662068 0.00204069 0)
(0.0648462 0.00204054 0)
(0.0634858 0.00204019 0)
(0.0621257 0.00203965 0)
(0.060766 0.00203894 0)
(0.0594069 0.00203807 0)
(0.0580484 0.00203704 0)
(0.0566906 0.00203589 0)
(0.0553337 0.00203461 0)
(0.0539777 0.00203321 0)
(0.0526226 0.00203172 0)
(0.0512686 0.00203013 0)
(0.0499157 0.00202847 0)
(0.0485639 0.00202673 0)
(0.0472133 0.00202493 0)
(0.0458639 0.00202308 0)
(0.0445157 0.00202119 0)
(0.0431689 0.00201927 0)
(0.0418233 0.00201732 0)
(0.0404791 0.00201535 0)
(0.0391362 0.00201337 0)
(0.0377946 0.0020114 0)
(0.0364543 0.00200943 0)
(0.0351153 0.00200747 0)
(0.0337777 0.00200553 0)
(0.0324413 0.00200361 0)
(0.0311062 0.00200173 0)
(0.0297724 0.00199988 0)
(0.0284397 0.00199808 0)
(0.0271083 0.00199632 0)
(0.025778 0.00199462 0)
(0.0244489 0.00199297 0)
(0.0231208 0.00199138 0)
(0.0217938 0.00198987 0)
(0.0204677 0.00198842 0)
(0.0191426 0.00198704 0)
(0.0178184 0.00198574 0)
(0.016495 0.00198452 0)
(0.0151725 0.00198338 0)
(0.0138506 0.00198233 0)
(0.0125294 0.00198137 0)
(0.0112089 0.0019805 0)
(0.00988887 0.00197972 0)
(0.00856935 0.00197903 0)
(0.00725026 0.00197844 0)
(0.00593153 0.00197794 0)
(0.0046131 0.00197755 0)
(0.00329491 0.00197725 0)
(0.00197688 0.00197705 0)
(0.000658954 0.00197695 0)
(0.000699622 -0.00349866 0)
(0.00209892 -0.00349888 0)
(0.00349835 -0.00349932 0)
(0.00489799 -0.00349997 0)
(0.00629794 -0.00350085 0)
(0.00769829 -0.00350195 0)
(0.00909913 -0.00350327 0)
(0.0105005 -0.00350479 0)
(0.0119026 -0.00350652 0)
(0.0133054 -0.00350845 0)
(0.014709 -0.00351058 0)
(0.0161135 -0.0035129 0)
(0.017519 -0.0035154 0)
(0.0189255 -0.00351809 0)
(0.0203332 -0.00352094 0)
(0.021742 -0.00352396 0)
(0.023152 -0.00352714 0)
(0.0245634 -0.00353046 0)
(0.0259762 -0.00353392 0)
(0.0273903 -0.0035375 0)
(0.028806 -0.0035412 0)
(0.0302231 -0.003545 0)
(0.0316418 -0.00354889 0)
(0.0330621 -0.00355286 0)
(0.034484 -0.0035569 0)
(0.0359075 -0.00356098 0)
(0.0373327 -0.0035651 0)
(0.0387596 -0.00356924 0)
(0.0401881 -0.00357338 0)
(0.0416183 -0.0035775 0)
(0.0430502 -0.00358159 0)
(0.0444837 -0.00358562 0)
(0.0459188 -0.00358958 0)
(0.0473555 -0.00359345 0)
(0.0487938 -0.00359721 0)
(0.0502335 -0.00360082 0)
(0.0516747 -0.00360428 0)
(0.0531173 -0.00360755 0)
(0.0545611 -0.00361061 0)
(0.0560062 -0.00361343 0)
(0.0574524 -0.00361599 0)
(0.0588995 -0.00361826 0)
(0.0603475 -0.00362022 0)
(0.0617963 -0.00362183 0)
(0.0632457 -0.00362306 0)
(0.0646955 -0.00362388 0)
(0.0661456 -0.00362427 0)
(0.0675958 -0.00362418 0)
(0.0690458 -0.00362359 0)
(0.0704956 -0.00362247 0)
(0.0719449 -0.00362077 0)
(0.0733933 -0.00361846 0)
(0.0748408 -0.0036155 0)
(0.076287 -0.00361187 0)
(0.0777316 -0.00360752 0)
(0.0791743 -0.00360242 0)
(0.0806149 -0.00359652 0)
(0.082053 -0.00358979 0)
(0.0834883 -0.00358218 0)
(0.0849204 -0.00357367 0)
(0.086349 -0.00356421 0)
(0.0877736 -0.00355376 0)
(0.0891938 -0.00354228 0)
(0.0906093 -0.00352974 0)
(0.0920196 -0.00351608 0)
(0.0934243 -0.00350128 0)
(0.0948228 -0.00348529 0)
(0.0962147 -0.00346807 0)
(0.0975995 -0.00344959 0)
(0.0989767 -0.0034298 0)
(0.100346 -0.00340868 0)
(0.101706 -0.00338618 0)
(0.103057 -0.00336226 0)
(0.104399 -0.00333691 0)
(0.105729 -0.00331007 0)
(0.107049 -0.00328172 0)
(0.108358 -0.00325183 0)
(0.109654 -0.00322036 0)
(0.110937 -0.0031873 0)
(0.112206 -0.00315262 0)
(0.113462 -0.00311629 0)
(0.114702 -0.00307828 0)
(0.115927 -0.00303859 0)
(0.117136 -0.0029972 0)
(0.118328 -0.00295408 0)
(0.119503 -0.00290924 0)
(0.120659 -0.00286265 0)
(0.121796 -0.00281431 0)
(0.122913 -0.00276422 0)
(0.124011 -0.00271238 0)
(0.125087 -0.00265879 0)
(0.126141 -0.00260345 0)
(0.127172 -0.00254638 0)
(0.128181 -0.00248758 0)
(0.129166 -0.00242708 0)
(0.130126 -0.00236489 0)
(0.13106 -0.00230103 0)
(0.131969 -0.00223552 0)
(0.132852 -0.00216841 0)
(0.133707 -0.00209971 0)
(0.134534 -0.00202948 0)
(0.135333 -0.00195773 0)
(0.136103 -0.00188453 0)
(0.136844 -0.00180991 0)
(0.137554 -0.00173392 0)
(0.138233 -0.00165662 0)
(0.138881 -0.00157806 0)
(0.139498 -0.00149831 0)
(0.140082 -0.00141741 0)
(0.140634 -0.00133544 0)
(0.141152 -0.00125246 0)
(0.141637 -0.00116855 0)
(0.142089 -0.00108376 0)
(0.142506 -0.000998183 0)
(0.142888 -0.000911885 0)
(0.143236 -0.000824944 0)
(0.143549 -0.00073744 0)
(0.143827 -0.00064945 0)
(0.14407 -0.000561057 0)
(0.144277 -0.000472341 0)
(0.144448 -0.000383383 0)
(0.144584 -0.000294267 0)
(0.144684 -0.000205075 0)
(0.144748 -0.000115889 0)
(0.144776 -2.6792e-05 0)
(0.144769 6.21357e-05 0)
(0.144726 0.000150813 0)
(0.144648 0.000239159 0)
(0.144534 0.000327096 0)
(0.144385 0.000414546 0)
(0.144202 0.000501433 0)
(0.143983 0.000587684 0)
(0.14373 0.000673225 0)
(0.143443 0.000757988 0)
(0.143122 0.000841903 0)
(0.142768 0.000924905 0)
(0.142381 0.00100693 0)
(0.141961 0.00108792 0)
(0.141508 0.00116782 0)
(0.141024 0.00124657 0)
(0.140509 0.00132411 0)
(0.139963 0.00140041 0)
(0.139386 0.00147541 0)
(0.13878 0.00154907 0)
(0.138145 0.00162136 0)
(0.13748 0.00169222 0)
(0.136788 0.00176164 0)
(0.136068 0.00182958 0)
(0.135322 0.00189602 0)
(0.134549 0.00196092 0)
(0.13375 0.00202427 0)
(0.132927 0.00208605 0)
(0.132079 0.00214625 0)
(0.131207 0.00220485 0)
(0.130312 0.00226184 0)
(0.129395 0.00231722 0)
(0.128455 0.00237099 0)
(0.127495 0.00242313 0)
(0.126514 0.00247366 0)
(0.125513 0.00252258 0)
(0.124493 0.00256989 0)
(0.123454 0.0026156 0)
(0.122398 0.00265973 0)
(0.121324 0.00270228 0)
(0.120233 0.00274327 0)
(0.119126 0.00278271 0)
(0.118004 0.00282063 0)
(0.116867 0.00285705 0)
(0.115716 0.00289197 0)
(0.114551 0.00292543 0)
(0.113373 0.00295746 0)
(0.112182 0.00298807 0)
(0.11098 0.00301729 0)
(0.109766 0.00304515 0)
(0.108541 0.00307168 0)
(0.107306 0.0030969 0)
(0.106061 0.00312085 0)
(0.104807 0.00314355 0)
(0.103544 0.00316504 0)
(0.102273 0.00318534 0)
(0.100994 0.00320449 0)
(0.0997076 0.00322252 0)
(0.0984141 0.00323947 0)
(0.0971141 0.00325536 0)
(0.095808 0.00327022 0)
(0.0944962 0.00328409 0)
(0.093179 0.00329701 0)
(0.0918569 0.003309 0)
(0.0905302 0.00332009 0)
(0.0891993 0.00333031 0)
(0.0878644 0.00333971 0)
(0.0865261 0.00334831 0)
(0.0851844 0.00335614 0)
(0.0838398 0.00336322 0)
(0.0824926 0.00336961 0)
(0.0811429 0.00337531 0)
(0.0797911 0.00338036 0)
(0.0784375 0.0033848 0)
(0.0770822 0.00338865 0)
(0.0757256 0.00339193 0)
(0.0743677 0.00339468 0)
(0.0730089 0.00339692 0)
(0.0716493 0.00339867 0)
(0.0702891 0.00339998 0)
(0.0689286 0.00340085 0)
(0.0675677 0.00340132 0)
(0.0662068 0.00340141 0)
(0.064846 0.00340114 0)
(0.0634853 0.00340054 0)
(0.062125 0.00339963 0)
(0.0607651 0.00339843 0)
(0.0594057 0.00339696 0)
(0.058047 0.00339525 0)
(0.0566891 0.00339331 0)
(0.055332 0.00339116 0)
(0.0539758 0.00338882 0)
(0.0526207 0.00338632 0)
(0.0512665 0.00338367 0)
(0.0499135 0.00338088 0)
(0.0485616 0.00337797 0)
(0.0472109 0.00337496 0)
(0.0458615 0.00337187 0)
(0.0445133 0.00336871 0)
(0.0431664 0.00336549 0)
(0.0418208 0.00336224 0)
(0.0404765 0.00335895 0)
(0.0391336 0.00335565 0)
(0.037792 0.00335234 0)
(0.0364517 0.00334905 0)
(0.0351128 0.00334578 0)
(0.0337752 0.00334254 0)
(0.0324388 0.00333934 0)
(0.0311038 0.00333619 0)
(0.02977 0.00333311 0)
(0.0284374 0.0033301 0)
(0.0271061 0.00332716 0)
(0.0257759 0.00332432 0)
(0.0244468 0.00332157 0)
(0.0231188 0.00331892 0)
(0.0217918 0.00331639 0)
(0.0204659 0.00331397 0)
(0.0191409 0.00331167 0)
(0.0178168 0.0033095 0)
(0.0164935 0.00330747 0)
(0.015171 0.00330557 0)
(0.0138493 0.00330381 0)
(0.0125282 0.00330221 0)
(0.0112078 0.00330075 0)
(0.0098879 0.00329944 0)
(0.00856851 0.0032983 0)
(0.00724955 0.00329731 0)
(0.00593095 0.00329648 0)
(0.00461265 0.00329582 0)
(0.00329458 0.00329532 0)
(0.00197669 0.00329499 0)
(0.000658889 0.00329482 0)
(0.000699487 -0.00489784 0)
(0.00209852 -0.00489813 0)
(0.00349769 -0.00489874 0)
(0.00489707 -0.00489967 0)
(0.00629676 -0.0049009 0)
(0.00769686 -0.00490244 0)
(0.00909744 -0.00490428 0)
(0.0104986 -0.00490642 0)
(0.0119004 -0.00490885 0)
(0.013303 -0.00491156 0)
(0.0147064 -0.00491454 0)
(0.0161106 -0.0049178 0)
(0.0175159 -0.00492132 0)
(0.0189222 -0.00492508 0)
(0.0203297 -0.00492909 0)
(0.0217383 -0.00493333 0)
(0.0231482 -0.00493779 0)
(0.0245594 -0.00494245 0)
(0.025972 -0.00494731 0)
(0.027386 -0.00495234 0)
(0.0288015 -0.00495753 0)
(0.0302185 -0.00496287 0)
(0.0316371 -0.00496834 0)
(0.0330573 -0.00497392 0)
(0.0344792 -0.00497959 0)
(0.0359026 -0.00498533 0)
(0.0373278 -0.00499112 0)
(0.0387547 -0.00499693 0)
(0.0401832 -0.00500275 0)
(0.0416134 -0.00500855 0)
(0.0430453 -0.0050143 0)
(0.0444789 -0.00501998 0)
(0.0459142 -0.00502555 0)
(0.047351 -0.005031 0)
(0.0487894 -0.00503628 0)
(0.0502293 -0.00504138 0)
(0.0516707 -0.00504625 0)
(0.0531135 -0.00505086 0)
(0.0545577 -0.00505518 0)
(0.056003 -0.00505917 0)
(0.0574495 -0.0050628 0)
(0.058897 -0.00506602 0)
(0.0603455 -0.0050688 0)
(0.0617947 -0.00507109 0)
(0.0632445 -0.00507286 0)
(0.0646948 -0.00507406 0)
(0.0661455 -0.00507464 0)
(0.0675962 -0.00507457 0)
(0.0690469 -0.00507379 0)
(0.0704974 -0.00507226 0)
(0.0719473 -0.00506993 0)
(0.0733966 -0.00506674 0)
(0.0748448 -0.00506266 0)
(0.0762918 -0.00505763 0)
(0.0777373 -0.00505159 0)
(0.079181 -0.00504449 0)
(0.0806226 -0.00503629 0)
(0.0820617 -0.00502692 0)
(0.0834981 -0.00501634 0)
(0.0849313 -0.00500447 0)
(0.086361 -0.00499129 0)
(0.0877868 -0.00497671 0)
(0.0892083 -0.0049607 0)
(0.0906251 -0.00494318 0)
(0.0920368 -0.00492412 0)
(0.0934428 -0.00490345 0)
(0.0948428 -0.00488112 0)
(0.0962362 -0.00485707 0)
(0.0976226 -0.00483124 0)
(0.0990014 -0.0048036 0)
(0.100372 -0.00477408 0)
(0.101734 -0.00474262 0)
(0.103087 -0.00470919 0)
(0.10443 -0.00467374 0)
(0.105763 -0.00463621 0)
(0.107084 -0.00459656 0)
(0.108395 -0.00455476 0)
(0.109692 -0.00451075 0)
(0.110978 -0.0044645 0)
(0.112249 -0.00441597 0)
(0.113507 -0.00436514 0)
(0.114749 -0.00431196 0)
(0.115976 -0.00425642 0)
(0.117187 -0.00419849 0)
(0.118381 -0.00413814 0)
(0.119558 -0.00407537 0)
(0.120716 -0.00401015 0)
(0.121855 -0.00394248 0)
(0.122975 -0.00387236 0)
(0.124074 -0.00379978 0)
(0.125152 -0.00372474 0)
(0.126208 -0.00364726 0)
(0.127242 -0.00356734 0)
(0.128253 -0.00348501 0)
(0.129239 -0.00340028 0)
(0.130201 -0.00331317 0)
(0.131138 -0.00322373 0)
(0.132049 -0.00313199 0)
(0.132933 -0.00303798 0)
(0.133791 -0.00294176 0)
(0.13462 -0.00284337 0)
(0.13542 -0.00274287 0)
(0.136192 -0.00264032 0)
(0.136934 -0.00253578 0)
(0.137646 -0.00242933 0)
(0.138327 -0.00232103 0)
(0.138976 -0.00221097 0)
(0.139594 -0.00209922 0)
(0.14018 -0.00198588 0)
(0.140733 -0.00187103 0)
(0.141252 -0.00175476 0)
(0.141739 -0.00163718 0)
(0.142191 -0.00151838 0)
(0.142609 -0.00139846 0)
(0.142993 -0.00127754 0)
(0.143341 -0.00115571 0)
(0.143655 -0.0010331 0)
(0.143933 -0.000909798 0)
(0.144176 -0.000785934 0)
(0.144384 -0.000661616 0)
(0.144555 -0.000536961 0)
(0.144691 -0.000412083 0)
(0.144791 -0.000287099 0)
(0.144855 -0.000162124 0)
(0.144883 -3.72737e-05 0)
(0.144876 8.7338e-05 0)
(0.144833 0.000211597 0)
(0.144754 0.000335392 0)
(0.14464 0.000458612 0)
(0.14449 0.000581148 0)
(0.144306 0.000702894 0)
(0.144086 0.000823746 0)
(0.143833 0.000943602 0)
(0.143545 0.00106236 0)
(0.143223 0.00117994 0)
(0.142867 0.00129623 0)
(0.142479 0.00141115 0)
(0.142057 0.00152462 0)
(0.141604 0.00163655 0)
(0.141118 0.00174687 0)
(0.140601 0.0018555 0)
(0.140054 0.00196238 0)
(0.139476 0.00206745 0)
(0.138868 0.00217063 0)
(0.138231 0.00227188 0)
(0.137565 0.00237114 0)
(0.136871 0.00246837 0)
(0.136149 0.00256352 0)
(0.135401 0.00265656 0)
(0.134626 0.00274746 0)
(0.133826 0.00283617 0)
(0.133 0.00292269 0)
(0.13215 0.00300698 0)
(0.131276 0.00308903 0)
(0.13038 0.00316883 0)
(0.12946 0.00324637 0)
(0.128519 0.00332164 0)
(0.127557 0.00339465 0)
(0.126574 0.00346538 0)
(0.125571 0.00353386 0)
(0.124549 0.00360008 0)
(0.123508 0.00366407 0)
(0.12245 0.00372582 0)
(0.121374 0.00378537 0)
(0.120281 0.00384274 0)
(0.119173 0.00389794 0)
(0.118049 0.00395099 0)
(0.11691 0.00400194 0)
(0.115757 0.00405081 0)
(0.11459 0.00409762 0)
(0.113411 0.00414242 0)
(0.112218 0.00418524 0)
(0.111014 0.00422611 0)
(0.109799 0.00426508 0)
(0.108573 0.00430217 0)
(0.107336 0.00433744 0)
(0.10609 0.00437093 0)
(0.104834 0.00440267 0)
(0.10357 0.00443271 0)
(0.102297 0.00446109 0)
(0.101017 0.00448786 0)
(0.0997288 0.00451306 0)
(0.098434 0.00453674 0)
(0.0971328 0.00455893 0)
(0.0958254 0.0045797 0)
(0.0945124 0.00459908 0)
(0.0931941 0.00461711 0)
(0.0918709 0.00463385 0)
(0.0905432 0.00464933 0)
(0.0892112 0.00466361 0)
(0.0878754 0.00467672 0)
(0.0865361 0.00468871 0)
(0.0851935 0.00469962 0)
(0.0838481 0.00470951 0)
(0.0825 0.0047184 0)
(0.0811495 0.00472634 0)
(0.079797 0.00473338 0)
(0.0784426 0.00473955 0)
(0.0770867 0.00474489 0)
(0.0757294 0.00474945 0)
(0.0743709 0.00475326 0)
(0.0730115 0.00475636 0)
(0.0716513 0.00475878 0)
(0.0702906 0.00476057 0)
(0.0689295 0.00476176 0)
(0.0675682 0.00476239 0)
(0.0662069 0.00476248 0)
(0.0648456 0.00476207 0)
(0.0634845 0.0047612 0)
(0.0621238 0.00475989 0)
(0.0607636 0.00475818 0)
(0.059404 0.0047561 0)
(0.058045 0.00475367 0)
(0.0566868 0.00475092 0)
(0.0553295 0.00474789 0)
(0.0539731 0.00474459 0)
(0.0526177 0.00474106 0)
(0.0512634 0.00473732 0)
(0.0499102 0.00473339 0)
(0.0485582 0.0047293 0)
(0.0472074 0.00472507 0)
(0.0458578 0.00472072 0)
(0.0445096 0.00471628 0)
(0.0431626 0.00471175 0)
(0.041817 0.00470717 0)
(0.0404727 0.00470255 0)
(0.0391298 0.00469792 0)
(0.0377882 0.00469327 0)
(0.0364479 0.00468865 0)
(0.035109 0.00468405 0)
(0.0337714 0.0046795 0)
(0.0324351 0.00467501 0)
(0.0311001 0.00467059 0)
(0.0297664 0.00466626 0)
(0.0284339 0.00466203 0)
(0.0271027 0.00465791 0)
(0.0257726 0.00465392 0)
(0.0244436 0.00465006 0)
(0.0231157 0.00464634 0)
(0.0217889 0.00464278 0)
(0.0204631 0.00463939 0)
(0.0191382 0.00463616 0)
(0.0178143 0.00463312 0)
(0.0164912 0.00463026 0)
(0.0151689 0.0046276 0)
(0.0138473 0.00462514 0)
(0.0125264 0.00462288 0)
(0.0112062 0.00462084 0)
(0.00988646 0.00461901 0)
(0.00856725 0.0046174 0)
(0.00724848 0.00461601 0)
(0.00593007 0.00461485 0)
(0.00461196 0.00461392 0)
(0.00329409 0.00461322 0)
(0.00197639 0.00461276 0)
(0.00065879 0.00461252 0)
(0.000699309 -0.00629669 0)
(0.00209799 -0.00629707 0)
(0.0034968 -0.00629786 0)
(0.00489584 -0.00629906 0)
(0.00629518 -0.00630065 0)
(0.00769494 -0.00630264 0)
(0.00909519 -0.00630501 0)
(0.010496 -0.00630776 0)
(0.0118975 -0.00631089 0)
(0.0132997 -0.00631439 0)
(0.0147028 -0.00631824 0)
(0.0161068 -0.00632244 0)
(0.0175118 -0.00632698 0)
(0.0189178 -0.00633184 0)
(0.020325 -0.00633702 0)
(0.0217334 -0.00634249 0)
(0.023143 -0.00634824 0)
(0.024554 -0.00635426 0)
(0.0259664 -0.00636053 0)
(0.0273802 -0.00636702 0)
(0.0287955 -0.00637373 0)
(0.0302124 -0.00638062 0)
(0.0316309 -0.00638769 0)
(0.0330509 -0.00639489 0)
(0.0344727 -0.00640221 0)
(0.0358961 -0.00640963 0)
(0.0373212 -0.00641711 0)
(0.0387481 -0.00642463 0)
(0.0401766 -0.00643215 0)
(0.0416069 -0.00643965 0)
(0.0430389 -0.00644709 0)
(0.0444725 -0.00645444 0)
(0.0459079 -0.00646165 0)
(0.0473449 -0.00646871 0)
(0.0487835 -0.00647556 0)
(0.0502237 -0.00648216 0)
(0.0516654 -0.00648848 0)
(0.0531085 -0.00649447 0)
(0.054553 -0.00650009 0)
(0.0559987 -0.00650528 0)
(0.0574457 -0.00651001 0)
(0.0588937 -0.00651422 0)
(0.0603426 -0.00651786 0)
(0.0617924 -0.00652088 0)
(0.0632429 -0.00652323 0)
(0.0646939 -0.00652484 0)
(0.0661453 -0.00652567 0)
(0.0675968 -0.00652566 0)
(0.0690483 -0.00652474 0)
(0.0704997 -0.00652285 0)
(0.0719506 -0.00651994 0)
(0.0734008 -0.00651593 0)
(0.0748501 -0.00651077 0)
(0.0762982 -0.00650439 0)
(0.0777449 -0.00649672 0)
(0.0791898 -0.00648769 0)
(0.0806327 -0.00647723 0)
(0.0820732 -0.00646528 0)
(0.083511 -0.00645176 0)
(0.0849457 -0.00643661 0)
(0.086377 -0.00641974 0)
(0.0878044 -0.0064011 0)
(0.0892276 -0.00638061 0)
(0.0906461 -0.00635819 0)
(0.0920596 -0.00633377 0)
(0.0934675 -0.00630729 0)
(0.0948694 -0.00627867 0)
(0.0962648 -0.00624784 0)
(0.0976532 -0.00621473 0)
(0.0990341 -0.00617927 0)
(0.100407 -0.0061414 0)
(0.101771 -0.00610105 0)
(0.103126 -0.00605815 0)
(0.104472 -0.00601265 0)
(0.105807 -0.00596447 0)
(0.107131 -0.00591357 0)
(0.108444 -0.00585989 0)
(0.109744 -0.00580337 0)
(0.111032 -0.00574397 0)
(0.112306 -0.00568164 0)
(0.113566 -0.00561633 0)
(0.114811 -0.00554801 0)
(0.116041 -0.00547664 0)
(0.117255 -0.00540219 0)
(0.118452 -0.00532463 0)
(0.119631 -0.00524394 0)
(0.120792 -0.00516011 0)
(0.121934 -0.00507312 0)
(0.123056 -0.00498296 0)
(0.124158 -0.00488963 0)
(0.125239 -0.00479315 0)
(0.126298 -0.0046935 0)
(0.127335 -0.00459072 0)
(0.128348 -0.00448483 0)
(0.129338 -0.00437584 0)
(0.130303 -0.0042638 0)
(0.131242 -0.00414874 0)
(0.132156 -0.00403072 0)
(0.133042 -0.00390978 0)
(0.133902 -0.00378597 0)
(0.134734 -0.00365938 0)
(0.135537 -0.00353006 0)
(0.136311 -0.0033981 0)
(0.137055 -0.00326358 0)
(0.137769 -0.00312658 0)
(0.138452 -0.00298721 0)
(0.139103 -0.00284556 0)
(0.139723 -0.00270174 0)
(0.140311 -0.00255586 0)
(0.140865 -0.00240803 0)
(0.141386 -0.00225838 0)
(0.141874 -0.00210703 0)
(0.142328 -0.00195411 0)
(0.142747 -0.00179976 0)
(0.143132 -0.0016441 0)
(0.143481 -0.00148728 0)
(0.143796 -0.00132943 0)
(0.144075 -0.00117072 0)
(0.144318 -0.00101127 0)
(0.144526 -0.000851232 0)
(0.144698 -0.000690763 0)
(0.144834 -0.000530008 0)
(0.144934 -0.000369117 0)
(0.144998 -0.000208237 0)
(0.145026 -4.7519e-05 0)
(0.145018 0.00011289 0)
(0.144975 0.000272844 0)
(0.144895 0.000432198 0)