/*--------------------------------*- C++ -*----------------------------------*\
| =========                 |                                                 |
| \\      /  F ield         | OpenFOAM: The Open Source CFD Toolbox           |
|  \\    /   O peration     | Version:  v2012                                 |
|   \\  /    A nd           | Website:  www.openfoam.com                      |
|    \\/     M anipulation  |                                                 |
\*---------------------------------------------------------------------------*/
FoamFile
{
    version     2.0;
    format      ascii;
    class       surfaceScalarField;
    location    "7";
    object      phi;
}
// * * * * * * * * * * * * * * * * * * * * * * * * * * * * * * * * * * * * * //

dimensions      [0 3 -1 0 0 0 0];
oriented        oriented;


internalField   nonuniform List<scalar> 
130560
(
3.71275e-06
-3.71275e-06
7.42542e-06
-3.71268e-06
1.1138e-05
-3.71253e-06
1.48503e-05
-3.71231e-06
1.85623e-05
-3.71202e-06
2.22739e-05
-3.71164e-06
2.59851e-05
-3.71119e-06
2.96958e-05
-3.71064e-06
3.34058e-05
-3.71e-06
3.7115e-05
-3.70927e-06
4.08235e-05
-3.70842e-06
4.45309e-05
-3.70746e-06
4.82373e-05
-3.70638e-06
5.19425e-05
-3.70517e-06
5.56463e-05
-3.70382e-06
5.93486e-05
-3.70231e-06
6.30492e-05
-3.70064e-06
6.6748e-05
-3.69879e-06
7.04448e-05
-3.69676e-06
7.41393e-05
-3.69452e-06
7.78314e-05
-3.69207e-06
8.15207e-05
-3.68938e-06
8.52072e-05
-3.68645e-06
8.88904e-05
-3.68325e-06
9.25702e-05
-3.67978e-06
9.62462e-05
-3.67601e-06
9.99182e-05
-3.67192e-06
0.000103586
-3.6675e-06
0.000107248
-3.66272e-06
0.000110906
-3.65758e-06
0.000114558
-3.65203e-06
0.000118204
-3.64608e-06
0.000121844
-3.63969e-06
0.000125477
-3.63284e-06
0.000129102
-3.62551e-06
0.00013272
-3.61768e-06
0.000136329
-3.60933e-06
0.00013993
-3.60043e-06
0.00014352
-3.59096e-06
0.000147101
-3.58089e-06
0.000150672
-3.5702e-06
0.00015423
-3.55888e-06
0.000157777
-3.54688e-06
0.000161312
-3.5342e-06
0.000164832
-3.5208e-06
0.000168339
-3.50666e-06
0.000171831
-3.49176e-06
0.000175307
-3.47607e-06
0.000178766
-3.45958e-06
0.000182209
-3.44225e-06
0.000185633
-3.42406e-06
0.000189038
-3.405e-06
0.000192423
-3.38503e-06
0.000195787
-3.36415e-06
0.000199129
-3.34232e-06
0.000202449
-3.31952e-06
0.000205744
-3.29574e-06
0.000209015
-3.27097e-06
0.000212261
-3.24517e-06
0.000215479
-3.21833e-06
0.000218669
-3.19044e-06
0.000221831
-3.16148e-06
0.000224962
-3.13144e-06
0.000228063
-3.1003e-06
0.000231131
-3.06806e-06
0.000234165
-3.0347e-06
0.000237166
-3.00021e-06
0.00024013
-2.96459e-06
0.000243058
-2.92783e-06
0.000245948
-2.88992e-06
0.000248799
-2.85087e-06
0.000251609
-2.81067e-06
0.000254379
-2.76932e-06
0.000257106
-2.72683e-06
0.000259789
-2.68319e-06
0.000262427
-2.63841e-06
0.00026502
-2.59251e-06
0.000267565
-2.54548e-06
0.000270063
-2.49734e-06
0.000272511
-2.4481e-06
0.000274908
-2.39778e-06
0.000277255
-2.34639e-06
0.000279549
-2.29395e-06
0.000281789
-2.24048e-06
0.000283975
-2.186e-06
0.000286106
-2.13054e-06
0.00028818
-2.07412e-06
0.000290197
-2.01676e-06
0.000292155
-1.9585e-06
0.000294054
-1.89936e-06
0.000295894
-1.83937e-06
0.000297672
-1.77858e-06
0.000299389
-1.71701e-06
0.000301044
-1.6547e-06
0.000302636
-1.59168e-06
0.000304164
-1.528e-06
0.000305628
-1.4637e-06
0.000307026
-1.3988e-06
0.00030836
-1.33337e-06
0.000309627
-1.26743e-06
0.000310828
-1.20103e-06
0.000311962
-1.13422e-06
0.000313029
-1.06703e-06
0.000314029
-9.99522e-07
0.000314961
-9.31731e-07
0.000315824
-8.63706e-07
0.00031662
-7.95492e-07
0.000317347
-7.27134e-07
0.000318006
-6.58679e-07
0.000318596
-5.90172e-07
0.000319118
-5.21659e-07
0.000319571
-4.53186e-07
0.000319955
-3.84797e-07
0.000320272
-3.16537e-07
0.00032052
-2.48449e-07
0.000320701
-1.80578e-07
0.000320814
-1.12965e-07
0.00032086
-4.56518e-08
0.000320838
2.13202e-08
0.00032075
8.79112e-08
0.000320596
1.54082e-07
0.000320377
2.19796e-07
0.000320092
2.85016e-07
0.000319742
3.49706e-07
0.000319328
4.13832e-07
0.000318851
4.77361e-07
0.00031831
5.40262e-07
0.000317708
6.02505e-07
0.000317044
6.6406e-07
0.000316319
7.249e-07
0.000315534
7.84999e-07
0.00031469
8.44334e-07
0.000313787
9.02879e-07
0.000312826
9.60615e-07
0.000311809
1.01752e-06
0.000310735
1.07358e-06
0.000309606
1.12877e-06
0.000308423
1.18308e-06
0.000307187
1.23649e-06
0.000305898
1.28899e-06
0.000304557
1.34058e-06
0.000303166
1.39123e-06
0.000301725
1.44094e-06
0.000300235
1.48971e-06
0.000298698
1.53752e-06
0.000297113
1.58438e-06
0.000295483
1.63027e-06
0.000293808
1.6752e-06
0.000292089
1.71917e-06
0.000290327
1.76217e-06
0.000288522
1.8042e-06
0.000286677
1.84528e-06
0.000284792
1.88539e-06
0.000282867
1.92455e-06
0.000280904
1.96275e-06
0.000278904
2.00001e-06
0.000276868
2.03634e-06
0.000274796
2.07173e-06
0.00027269
2.1062e-06
0.00027055
2.13975e-06
0.000268378
2.1724e-06
0.000266174
2.20415e-06
0.000263939
2.23502e-06
0.000261674
2.26501e-06
0.00025938
2.29414e-06
0.000257057
2.32242e-06
0.000254707
2.34986e-06
0.000252331
2.37648e-06
0.000249929
2.40228e-06
0.000247501
2.42729e-06
0.00024505
2.45151e-06
0.000242575
2.47496e-06
0.000240077
2.49765e-06
0.000237558
2.5196e-06
0.000235017
2.54082e-06
0.000232455
2.56132e-06
0.000229874
2.58113e-06
0.000227274
2.60025e-06
0.000224655
2.61871e-06
0.000222019
2.63651e-06
0.000219365
2.65367e-06
0.000216695
2.6702e-06
0.000214009
2.68612e-06
0.000211307
2.70145e-06
0.000208591
2.7162e-06
0.000205861
2.73039e-06
0.000203117
2.74402e-06
0.00020036
2.75711e-06
0.00019759
2.76968e-06
0.000194808
2.78175e-06
0.000192015
2.79332e-06
0.000189211
2.80441e-06
0.000186395
2.81503e-06
0.00018357
2.8252e-06
0.000180735
2.83493e-06
0.000177891
2.84424e-06
0.000175038
2.85313e-06
0.000172176
2.86162e-06
0.000169307
2.86973e-06
0.000166429
2.87746e-06
0.000163544
2.88483e-06
0.000160652
2.89185e-06
0.000157754
2.89853e-06
0.000154849
2.90488e-06
0.000151938
2.91092e-06
0.000149022
2.91665e-06
0.000146099
2.92209e-06
0.000143172
2.92725e-06
0.00014024
2.93213e-06
0.000137303
2.93676e-06
0.000134362
2.94113e-06
0.000131417
2.94527e-06
0.000128468
2.94917e-06
0.000125515
2.95285e-06
0.000122559
2.95632e-06
0.000119599
2.95958e-06
0.000116636
2.96265e-06
0.000113671
2.96553e-06
0.000110703
2.96824e-06
0.000107732
2.97077e-06
0.000104759
2.97315e-06
0.000101783
2.97537e-06
9.88058e-05
2.97744e-06
9.58265e-05
2.97937e-06
9.28453e-05
2.98117e-06
8.98624e-05
2.98285e-06
8.6878e-05
2.98441e-06
8.38922e-05
2.98585e-06
8.0905e-05
2.98719e-06
7.79165e-05
2.98843e-06
7.4927e-05
2.98958e-06
7.19363e-05
2.99063e-06
6.89447e-05
2.9916e-06
6.59522e-05
2.9925e-06
6.29589e-05
2.99332e-06
5.99648e-05
2.99407e-06
5.69701e-05
2.99475e-06
5.39747e-05
2.99538e-06
5.09788e-05
2.99595e-06
4.79823e-05
2.99647e-06
4.49854e-05
2.99693e-06
4.1988e-05
2.99736e-06
3.89903e-05
2.99774e-06
3.59922e-05
2.99808e-06
3.29938e-05
2.99838e-06
2.99952e-05
2.99865e-06
2.69963e-05
2.99889e-06
2.39972e-05
2.99909e-06
2.09979e-05
2.99927e-06
1.79985e-05
2.99943e-06
1.49989e-05
2.99956e-06
1.19993e-05
2.99966e-06
8.99952e-06
2.99975e-06
5.99972e-06
2.99981e-06
2.99987e-06
2.99985e-06
2.99987e-06
3.71282e-06
-7.42557e-06
7.42557e-06
-7.42542e-06
1.11382e-05
-7.42514e-06
1.48506e-05
-7.4247e-06
1.85627e-05
-7.42412e-06
2.22744e-05
-7.42337e-06
2.59857e-05
-7.42246e-06
2.96964e-05
-7.42138e-06
3.34065e-05
-7.42011e-06
3.71159e-05
-7.41864e-06
4.08244e-05
-7.41696e-06
4.4532e-05
-7.41505e-06
4.82385e-05
-7.4129e-06
5.19438e-05
-7.41048e-06
5.56478e-05
-7.40778e-06
5.93503e-05
-7.40478e-06
6.30511e-05
-7.40145e-06
6.675e-05
-7.39777e-06
7.0447e-05
-7.39371e-06
7.41417e-05
-7.38925e-06
7.7834e-05
-7.38436e-06
8.15237e-05
-7.37901e-06
8.52104e-05
-7.37316e-06
8.88939e-05
-7.36679e-06
9.2574e-05
-7.35986e-06
9.62503e-05
-7.35233e-06
9.99226e-05
-7.34417e-06
0.00010359
-7.33535e-06
0.000107254
-7.32582e-06
0.000110911
-7.31554e-06
0.000114564
-7.30448e-06
0.00011821
-7.29259e-06
0.000121851
-7.27983e-06
0.000125484
-7.26616e-06
0.00012911
-7.25152e-06
0.000132728
-7.23589e-06
0.000136338
-7.2192e-06
0.000139939
-7.20143e-06
0.000143531
-7.1825e-06
0.000147112
-7.16239e-06
0.000150683
-7.14105e-06
0.000154242
-7.11842e-06
0.00015779
-7.09445e-06
0.000161325
-7.06911e-06
0.000164846
-7.04233e-06
0.000168354
-7.01408e-06
0.000171846
-6.98431e-06
0.000175323
-6.95296e-06
0.000178784
-6.91999e-06
0.000182227
-6.88535e-06
0.000185652
-6.849e-06
0.000189058
-6.8109e-06
0.000192444
-6.77099e-06
0.000195809
-6.72924e-06
0.000199152
-6.6856e-06
0.000202472
-6.64003e-06
0.000205769
-6.59249e-06
0.000209041
-6.54295e-06
0.000212287
-6.49137e-06
0.000215507
-6.43771e-06
0.000218698
-6.38194e-06
0.000221861
-6.32404e-06
0.000224993
-6.26397e-06
0.000228095
-6.20171e-06
0.000231164
-6.13723e-06
0.0002342
-6.07052e-06
0.000237201
-6.00155e-06
0.000240167
-5.93032e-06
0.000243096
-5.8568e-06
0.000245987
-5.78099e-06
0.000248839
-5.70289e-06
0.000251651
-5.62249e-06
0.000254421
-5.53979e-06
0.000257149
-5.4548e-06
0.000259833
-5.36751e-06
0.000262473
-5.27795e-06
0.000265067
-5.18613e-06
0.000267613
-5.09206e-06
0.000270112
-4.99577e-06
0.000272561
-4.89728e-06
0.00027496
-4.79663e-06
0.000277307
-4.69383e-06
0.000279602
-4.58893e-06
0.000281844
-4.48197e-06
0.000284031
-4.37299e-06
0.000286162
-4.26204e-06
0.000288237
-4.14917e-06
0.000290255
-4.03442e-06
0.000292214
-3.91787e-06
0.000294114
-3.79956e-06
0.000295955
-3.67956e-06
0.000297734
-3.55794e-06
0.000299452
-3.43476e-06
0.000301107
-3.3101e-06
0.000302699
-3.18403e-06
0.000304228
-3.05663e-06
0.000305692
-2.92798e-06
0.000307092
-2.79815e-06
0.000308426
-2.66723e-06
0.000309693
-2.53531e-06
0.000310895
-2.40247e-06
0.000312029
-2.2688e-06
0.000313097
-2.13439e-06
0.000314097
-1.99932e-06
0.000315029
-1.8637e-06
0.000315892
-1.7276e-06
0.000316688
-1.59113e-06
0.000317415
-1.45436e-06
0.000318074
-1.31741e-06
0.000318664
-1.18035e-06
0.000319186
-1.04328e-06
0.000319639
-9.06288e-07
0.000320024
-7.69466e-07
0.00032034
-6.32901e-07
0.000320588
-4.96683e-07
0.000320769
-3.60897e-07
0.000320881
-2.25629e-07
0.000320927
-9.09627e-08
0.000320905
4.3021e-08
0.000320817
1.76242e-07
0.000320662
3.08622e-07
0.000320442
4.40086e-07
0.000320156
5.70561e-07
0.000319806
6.99975e-07
0.000319391
8.2826e-07
0.000318913
9.5535e-07
0.000318373
1.08118e-06
0.000317769
1.2057e-06
0.000317105
1.32883e-06
0.000316379
1.45054e-06
0.000315593
1.57076e-06
0.000314748
1.68945e-06
0.000313844
1.80657e-06
0.000312883
1.92206e-06
0.000311865
2.03589e-06
0.00031079
2.14802e-06
0.00030966
2.25842e-06
0.000308476
2.36705e-06
0.000307239
2.47389e-06
0.000305949
2.57891e-06
0.000304608
2.68208e-06
0.000303215
2.7834e-06
0.000301774
2.88283e-06
0.000300283
2.98037e-06
0.000298744
3.076e-06
0.000297159
3.16971e-06
0.000295528
3.26151e-06
0.000293852
3.35137e-06
0.000292132
3.4393e-06
0.000290368
3.5253e-06
0.000288563
3.60937e-06
0.000286717
3.69151e-06
0.000284831
3.77173e-06
0.000282905
3.85004e-06
0.000280942
3.92645e-06
0.000278941
4.00097e-06
0.000276903
4.07361e-06
0.000274831
4.14438e-06
0.000272724
4.21331e-06
0.000270583
4.2804e-06
0.00026841
4.34569e-06
0.000266205
4.40918e-06
0.000263969
4.47091e-06
0.000261703
4.53088e-06
0.000259408
4.58913e-06
0.000257085
4.64568e-06
0.000254734
4.70055e-06
0.000252357
4.75377e-06
0.000249954
4.80536e-06
0.000247525
4.85536e-06
0.000245073
4.90379e-06
0.000242597
4.95067e-06
0.000240099
4.99604e-06
0.000237579
5.03992e-06
0.000235037
5.08235e-06
0.000232475
5.12334e-06
0.000229893
5.16294e-06
0.000227292
5.20118e-06
0.000224673
5.23807e-06
0.000222036
5.27365e-06
0.000219382
5.30796e-06
0.000216711
5.34101e-06
0.000214024
5.37284e-06
0.000211322
5.40349e-06
0.000208605
5.43297e-06
0.000205874
5.46132e-06
0.00020313
5.48857e-06
0.000200372
5.51475e-06
0.000197602
5.53988e-06
0.00019482
5.56399e-06
0.000192026
5.58712e-06
0.000189221
5.60928e-06
0.000186406
5.63052e-06
0.00018358
5.65084e-06
0.000180745
5.67029e-06
0.0001779
5.68889e-06
0.000175046
5.70666e-06
0.000172184
5.72364e-06
0.000169314
5.73983e-06
0.000166437
5.75528e-06
0.000163551
5.77001e-06
0.000160659
5.78403e-06
0.00015776
5.79738e-06
0.000154855
5.81007e-06
0.000151944
5.82213e-06
0.000149027
5.83359e-06
0.000146105
5.84446e-06
0.000143177
5.85476e-06
0.000140245
5.86453e-06
0.000137308
5.87377e-06
0.000134366
5.88251e-06
0.000131421
5.89076e-06
0.000128471
5.89856e-06
0.000125518
5.90591e-06
0.000122562
5.91283e-06
0.000119602
5.91935e-06
0.000116639
5.92548e-06
0.000113673
5.93124e-06
0.000110705
5.93664e-06
0.000107734
5.9417e-06
0.000104761
5.94644e-06
0.000101785
5.95088e-06
9.88078e-05
5.95502e-06
9.58283e-05
5.95888e-06
9.2847e-05
5.96247e-06
8.9864e-05
5.96582e-06
8.68795e-05
5.96893e-06
8.38935e-05
5.97181e-06
8.09062e-05
5.97449e-06
7.79177e-05
5.97696e-06
7.4928e-05
5.97924e-06
7.19373e-05
5.98135e-06
6.89456e-05
5.98329e-06
6.59531e-05
5.98507e-06
6.29597e-05
5.9867e-06
5.99655e-05
5.9882e-06
5.69707e-05
5.98957e-06
5.39753e-05
5.99082e-06
5.09793e-05
5.99195e-06
4.79828e-05
5.99298e-06
4.49858e-05
5.99391e-06
4.19884e-05
5.99475e-06
3.89906e-05
5.99551e-06
3.59925e-05
5.99619e-06
3.29941e-05
5.99679e-06
2.99954e-05
5.99733e-06
2.69965e-05
5.9978e-06
2.39974e-05
5.99822e-06
2.09981e-05
5.99857e-06
1.79986e-05
5.99888e-06
1.4999e-05
5.99914e-06
1.19994e-05
5.99935e-06
8.99959e-06
5.99951e-06
5.99976e-06
5.99964e-06
2.99989e-06
5.99972e-06
5.99976e-06
3.71296e-06
-1.11385e-05
7.42585e-06
-1.11383e-05
1.11386e-05
-1.11379e-05
1.48511e-05
-1.11372e-05
1.85634e-05
-1.11364e-05
2.22753e-05
-1.11353e-05
2.59867e-05
-1.11339e-05
2.96977e-05
-1.11323e-05
3.3408e-05
-1.11304e-05
3.71176e-05
-1.11282e-05
4.08263e-05
-1.11257e-05
4.45341e-05
-1.11229e-05
4.82409e-05
-1.11197e-05
5.19465e-05
-1.11161e-05
5.56508e-05
-1.11121e-05
5.93536e-05
-1.11076e-05
6.30548e-05
-1.11026e-05
6.67541e-05
-1.10971e-05
7.04515e-05
-1.10911e-05
7.41466e-05
-1.10844e-05
7.78394e-05
-1.10771e-05
8.15295e-05
-1.10691e-05
8.52168e-05
-1.10604e-05
8.89008e-05
-1.10509e-05
9.25815e-05
-1.10405e-05
9.62585e-05
-1.10293e-05
9.99314e-05
-1.10171e-05
0.0001036
-1.10039e-05
0.000107264
-1.09897e-05
0.000110923
-1.09743e-05
0.000114576
-1.09578e-05
0.000118223
-1.094e-05
0.000121864
-1.09209e-05
0.000125499
-1.09004e-05
0.000129126
-1.08785e-05
0.000132745
-1.08551e-05
0.000136356
-1.08302e-05
0.000139958
-1.08036e-05
0.000143551
-1.07752e-05
0.000147133
-1.07451e-05
0.000150706
-1.07132e-05
0.000154266
-1.06793e-05
0.000157815
-1.06434e-05
0.000161352
-1.06054e-05
0.000164875
-1.05653e-05
0.000168384
-1.0523e-05
0.000171878
-1.04784e-05
0.000175356
-1.04315e-05
0.000178818
-1.03821e-05
0.000182263
-1.03302e-05
0.00018569
-1.02757e-05
0.000189098
-1.02186e-05
0.000192485
-1.01588e-05
0.000195852
-1.00962e-05
0.000199198
-1.00308e-05
0.00020252
-9.9625e-06
0.000205819
-9.89124e-06
0.000209093
-9.81697e-06
0.000212341
-9.73964e-06
0.000215563
-9.6592e-06
0.000218756
-9.57559e-06
0.000221921
-9.48876e-06
0.000225056
-9.39869e-06
0.000228159
-9.30533e-06
0.000231231
-9.20864e-06
0.000234269
-9.10859e-06
0.000237272
-9.00516e-06
0.00024024
-8.89832e-06
0.000243172
-8.78806e-06
0.000246065
-8.67436e-06
0.000248919
-8.55721e-06
0.000251733
-8.43661e-06
0.000254506
-8.31255e-06
0.000257236
-8.18505e-06
0.000259923
-8.05411e-06
0.000262565
-7.91976e-06
0.000265161
-7.782e-06
0.00026771
-7.64087e-06
0.00027021
-7.49641e-06
0.000272662
-7.34864e-06
0.000275063
-7.19761e-06
0.000277412
-7.04337e-06
0.000279709
-6.88597e-06
0.000281953
-6.72548e-06
0.000284142
-6.56195e-06
0.000286275
-6.39546e-06
0.000288352
-6.22608e-06
0.000290371
-6.0539e-06
0.000292333
-5.87899e-06
0.000294234
-5.70145e-06
0.000296076
-5.52137e-06
0.000297857
-5.33885e-06
0.000299576
-5.15399e-06
0.000301233
-4.96691e-06
0.000302827
-4.77771e-06
0.000304357
-4.58651e-06
0.000305822
-4.39343e-06
0.000307223
-4.19859e-06
0.000308558
-4.00211e-06
0.000309826
-3.80412e-06
0.000311029
-3.60475e-06
0.000312164
-3.40413e-06
0.000313232
-3.2024e-06
0.000314232
-2.99969e-06
0.000315165
-2.79613e-06
0.000316029
-2.59187e-06
0.000316825
-2.38705e-06
0.000317552
-2.18179e-06
0.000318211
-1.97624e-06
0.000318801
-1.77054e-06
0.000319323
-1.56482e-06
0.000319776
-1.35922e-06
0.00032016
-1.15388e-06
0.000320476
-9.4892e-07
0.000320724
-7.44484e-07
0.000320904
-5.40699e-07
0.000321016
-3.37693e-07
0.000321061
-1.35591e-07
0.000321038
6.54847e-08
0.000320949
2.65413e-07
0.000320793
4.64078e-07
0.000320572
6.61366e-07
0.000320286
8.57166e-07
0.000319934
1.05137e-06
0.000319519
1.24388e-06
0.000319039
1.4346e-06
0.000318497
1.62342e-06
0.000317893
1.81026e-06
0.000317226
1.99504e-06
0.000316499
2.17766e-06
0.000315712
2.35806e-06
0.000314865
2.53615e-06
0.00031396
2.71188e-06
0.000312997
2.88517e-06
0.000311977
3.05596e-06
0.000310901
3.2242e-06
0.000309769
3.38983e-06
0.000308583
3.55281e-06
0.000307344
3.7131e-06
0.000306052
3.87066e-06
0.000304709
4.02545e-06
0.000303315
4.17744e-06
0.000301871
4.32661e-06
0.000300379
4.47293e-06
0.000298838
4.61639e-06
0.000297251
4.75698e-06
0.000295618
4.89467e-06
0.00029394
5.02946e-06
0.000292218
5.16136e-06
0.000290453
5.29036e-06
0.000288645
5.41646e-06
0.000286797
5.53966e-06
0.000284909
5.65999e-06
0.000282982
5.77744e-06
0.000281016
5.89204e-06
0.000279013
6.0038e-06
0.000276974
6.11274e-06
0.0002749
6.21888e-06
0.000272791
6.32225e-06
0.000270648
6.42287e-06
0.000268473
6.52077e-06
0.000266266
6.61599e-06
0.000264029
6.70854e-06
0.000261761
6.79848e-06
0.000259464
6.88582e-06
0.000257139
6.97061e-06
0.000254787
7.05289e-06
0.000252408
7.13268e-06
0.000250004
7.21004e-06
0.000247574
7.285e-06
0.00024512
7.35761e-06
0.000242643
7.4279e-06
0.000240143
7.49591e-06
0.000237621
7.5617e-06
0.000235078
7.6253e-06
0.000232515
7.68676e-06
0.000229932
7.74613e-06
0.000227329
7.80344e-06
0.000224709
7.85874e-06
0.00022207
7.91208e-06
0.000219415
7.9635e-06
0.000216743
8.01304e-06
0.000214055
8.06075e-06
0.000211352
8.10668e-06
0.000208634
8.15087e-06
0.000205902
8.19336e-06
0.000203156
8.2342e-06
0.000200397
8.27342e-06
0.000197626
8.31108e-06
0.000194843
8.34722e-06
0.000192048
8.38187e-06
0.000189242
8.41509e-06
0.000186426
8.4469e-06
0.000183599
8.47736e-06
0.000180763
8.5065e-06
0.000177918
8.53437e-06
0.000175063
8.56099e-06
0.000172201
8.58642e-06
0.00016933
8.61069e-06
0.000166451
8.63383e-06
0.000163565
8.65589e-06
0.000160672
8.67689e-06
0.000157773
8.69688e-06
0.000154867
8.71589e-06
0.000151955
8.73396e-06
0.000149038
8.75112e-06
0.000146115
8.76739e-06
0.000143187
8.78283e-06
0.000140254
8.79744e-06
0.000137316
8.81128e-06
0.000134375
8.82436e-06
0.000131429
8.83672e-06
0.000128479
8.84839e-06
0.000125525
8.85939e-06
0.000122568
8.86976e-06
0.000119608
8.87952e-06
0.000116645
8.88869e-06
0.000113679
8.8973e-06
0.00011071
8.90539e-06
0.000107739
8.91296e-06
0.000104765
8.92005e-06
0.000101789
8.92668e-06
9.88116e-05
8.93287e-06
9.58319e-05
8.93865e-06
9.28503e-05
8.94402e-06
8.98671e-05
8.94903e-06
8.68824e-05
8.95368e-06
8.38962e-05
8.95799e-06
8.09087e-05
8.96198e-06
7.792e-05
8.96568e-06
7.49301e-05
8.96909e-06
7.19392e-05
8.97223e-06
6.89474e-05
8.97513e-06
6.59547e-05
8.97779e-06
6.29612e-05
8.98023e-06
5.99669e-05
8.98246e-06
5.6972e-05
8.9845e-06
5.39764e-05
8.98636e-06
5.09803e-05
8.98806e-06
4.79837e-05
8.98959e-06
4.49866e-05
8.99098e-06
4.19891e-05
8.99224e-06
3.89913e-05
8.99336e-06
3.59931e-05
8.99437e-06
3.29946e-05
8.99527e-06
2.99959e-05
8.99607e-06
2.69969e-05
8.99678e-06
2.39977e-05
8.99739e-06
2.09984e-05
8.99793e-06
1.79989e-05
8.99838e-06
1.49992e-05
8.99876e-06
1.19995e-05
8.99908e-06
8.99971e-06
8.99932e-06
5.99984e-06
8.99951e-06
2.99993e-06
8.99963e-06
8.99969e-06
3.71317e-06
-1.48517e-05
7.42628e-06
-1.48514e-05
1.11393e-05
-1.48509e-05
1.4852e-05
-1.485e-05
1.85645e-05
-1.48489e-05
2.22767e-05
-1.48474e-05
2.59884e-05
-1.48456e-05
2.96996e-05
-1.48435e-05
3.34102e-05
-1.4841e-05
3.71201e-05
-1.48381e-05
4.08292e-05
-1.48348e-05
4.45374e-05
-1.48311e-05
4.82445e-05
-1.48268e-05
5.19505e-05
-1.48221e-05
5.56553e-05
-1.48168e-05
5.93586e-05
-1.48109e-05
6.30603e-05
-1.48043e-05
6.67602e-05
-1.4797e-05
7.04581e-05
-1.4789e-05
7.4154e-05
-1.47802e-05
7.78474e-05
-1.47706e-05
8.15383e-05
-1.476e-05
8.52263e-05
-1.47484e-05
8.89112e-05
-1.47358e-05
9.25928e-05
-1.47221e-05
9.62707e-05
-1.47072e-05
9.99446e-05
-1.4691e-05
0.000103614
-1.46735e-05
0.000107279
-1.46546e-05
0.000110939
-1.46342e-05
0.000114594
-1.46123e-05
0.000118242
-1.45887e-05
0.000121885
-1.45633e-05
0.00012552
-1.45361e-05
0.000129149
-1.45071e-05
0.00013277
-1.4476e-05
0.000136382
-1.44428e-05
0.000139986
-1.44074e-05
0.000143581
-1.43698e-05
0.000147165
-1.43297e-05
0.000150739
-1.42872e-05
0.000154302
-1.42422e-05
0.000157853
-1.41944e-05
0.000161392
-1.41439e-05
0.000164917
-1.40906e-05
0.000168428
-1.40343e-05
0.000171925
-1.39749e-05
0.000175406
-1.39124e-05
0.00017887
-1.38466e-05
0.000182318
-1.37776e-05
0.000185747
-1.3705e-05
0.000189157
-1.3629e-05
0.000192548
-1.35494e-05
0.000195918
-1.3466e-05
0.000199266
-1.33789e-05
0.000202591
-1.32879e-05
0.000205893
-1.3193e-05
0.00020917
-1.30941e-05
0.000212422
-1.2991e-05
0.000215646
-1.28839e-05
0.000218843
-1.27724e-05
0.000222011
-1.26567e-05
0.000225149
-1.25367e-05
0.000228256
-1.24123e-05
0.000231331
-1.22834e-05
0.000234372
-1.21501e-05
0.000237379
-1.20122e-05
0.000240351
-1.18698e-05
0.000243285
-1.17228e-05
0.000246182
-1.15712e-05
0.00024904
-1.1415e-05
0.000251858
-1.12542e-05
0.000254634
-1.10888e-05
0.000257367
-1.09187e-05
0.000260057
-1.07441e-05
0.000262703
-1.0565e-05
0.000265302
-1.03812e-05
0.000267854
-1.0193e-05
0.000270358
-1.00003e-05
0.000272813
-9.80325e-06
0.000275217
-9.60181e-06
0.00027757
-9.39607e-06
0.00027987
-9.18611e-06
0.000282116
-8.97202e-06
0.000284308
-8.75388e-06
0.000286444
-8.53177e-06
0.000288524
-8.30581e-06
0.000290546
-8.0761e-06
0.00029251
-7.84274e-06
0.000294415
-7.60588e-06
0.000296259
-7.36562e-06
0.000298042
-7.1221e-06
0.000299764
-6.87546e-06
0.000301422
-6.62584e-06
0.000303018
-6.3734e-06
0.00030455
-6.11828e-06
0.000306017
-5.86065e-06
0.000307419
-5.60066e-06
0.000308756
-5.33849e-06
0.000310026
-5.0743e-06
0.000311229
-4.80827e-06
0.000312366
-4.54057e-06
0.000313435
-4.27139e-06
0.000314436
-4.00089e-06
0.000315369
-3.72928e-06
0.000316234
-3.45672e-06
0.00031703
-3.1834e-06
0.000317758
-2.90951e-06
0.000318417
-2.63523e-06
0.000319007
-2.36075e-06
0.000319529
-2.08624e-06
0.000319981
-1.8119e-06
0.000320365
-1.5379e-06
0.000320681
-1.26442e-06
0.000320928
-9.91634e-07
0.000321107
-7.19722e-07
0.000321218
-4.48852e-07
0.000321262
-1.79191e-07
0.000321238
8.90954e-08
0.000321148
3.55848e-07
0.000320991
6.20912e-07
0.000320768
8.84133e-07
0.00032048
1.14537e-06
0.000320127
1.40447e-06
0.000319709
1.6613e-06
0.000319228
1.91573e-06
0.000318684
2.16764e-06
0.000318077
2.4169e-06
0.000317409
2.66339e-06
0.00031668
2.90702e-06
0.00031589
3.14766e-06
0.000315041
3.38523e-06
0.000314133
3.61962e-06
0.000313168
3.85077e-06
0.000312145
4.07858e-06
0.000311066
4.30298e-06
0.000309932
4.5239e-06
0.000308744
4.74127e-06
0.000307502
4.95505e-06
0.000306207
5.16518e-06
0.000304861
5.37162e-06
0.000303464
5.57431e-06
0.000302018
5.77324e-06
0.000300522
5.96837e-06
0.000298979
6.15967e-06
0.000297389
6.34713e-06
0.000295753
6.53073e-06
0.000294072
6.71046e-06
0.000292347
6.88632e-06
0.000290579
7.05832e-06
0.000288769
7.22644e-06
0.000286918
7.3907e-06
0.000285027
7.55111e-06
0.000283096
7.7077e-06
0.000281128
7.86047e-06
0.000279122
8.00945e-06
0.00027708
8.15467e-06
0.000275003
8.29615e-06
0.000272891
8.43394e-06
0.000270746
8.56806e-06
0.000268568
8.69855e-06
0.000266359
8.82545e-06
0.000264119
8.94881e-06
0.000261848
9.06866e-06
0.000259549
9.18507e-06
0.000257222
9.29806e-06
0.000254867
9.4077e-06
0.000252486
9.51404e-06
0.000250079
9.61712e-06
0.000247647
9.717e-06
0.00024519
9.81374e-06
0.000242711
9.90739e-06
0.000240209
9.99802e-06
0.000237685
1.00857e-05
0.00023514
1.01704e-05
0.000232574
1.02523e-05
0.000229989
1.03314e-05
0.000227385
1.04077e-05
0.000224762
1.04814e-05
0.000222122
1.05524e-05
0.000219464
1.06209e-05
0.00021679
1.06869e-05
0.000214101
1.07504e-05
0.000211396
1.08116e-05
0.000208676
1.08705e-05
0.000205943
1.09271e-05
0.000203195
1.09814e-05
0.000200435
1.10337e-05
0.000197662
1.10838e-05
0.000194878
1.11319e-05
0.000192081
1.11781e-05
0.000189274
1.12223e-05
0.000186456
1.12647e-05
0.000183629
1.13052e-05
0.000180791
1.1344e-05
0.000177944
1.13811e-05
0.000175089
1.14165e-05
0.000172225
1.14504e-05
0.000169353
1.14827e-05
0.000166473
1.15135e-05
0.000163586
1.15428e-05
0.000160693
1.15708e-05
0.000157792
1.15974e-05
0.000154885
1.16227e-05
0.000151973
1.16467e-05
0.000149054
1.16695e-05
0.00014613
1.16912e-05
0.000143201
1.17117e-05
0.000140268
1.17311e-05
0.000137329
1.17495e-05
0.000134387
1.17669e-05
0.00013144
1.17834e-05
0.00012849
1.17989e-05
0.000125536
1.18135e-05
0.000122578
1.18273e-05
0.000119617
1.18403e-05
0.000116654
1.18525e-05
0.000113687
1.18639e-05
0.000110718
1.18746e-05
0.000107746
1.18847e-05
0.000104772
1.18941e-05
0.000101796
1.19029e-05
9.88174e-05
1.19111e-05
9.58372e-05
1.19188e-05
9.28553e-05
1.1926e-05
8.98718e-05
1.19326e-05
8.68867e-05
1.19388e-05
8.39002e-05
1.19445e-05
8.09124e-05
1.19498e-05
7.79234e-05
1.19547e-05
7.49333e-05
1.19592e-05
7.19421e-05
1.19634e-05
6.89501e-05
1.19672e-05
6.59571e-05
1.19707e-05
6.29634e-05
1.1974e-05
5.99689e-05
1.19769e-05
5.69738e-05
1.19796e-05
5.39781e-05
1.19821e-05
5.09819e-05
1.19843e-05
4.79851e-05
1.19864e-05
4.49879e-05
1.19882e-05
4.19903e-05
1.19898e-05
3.89923e-05
1.19913e-05
3.5994e-05
1.19927e-05
3.29954e-05
1.19939e-05
2.99966e-05
1.19949e-05
2.69975e-05
1.19958e-05
2.39983e-05
1.19967e-05
2.09988e-05
1.19974e-05
1.79993e-05
1.1998e-05
1.49996e-05
1.19985e-05
1.19998e-05
1.19989e-05
8.99989e-06
1.19992e-05
5.99996e-06
1.19994e-05
2.99999e-06
1.19996e-05
1.19997e-05
3.71345e-06
-1.85652e-05
7.42684e-06
-1.85648e-05
1.11401e-05
-1.85641e-05
1.48532e-05
-1.85631e-05
1.8566e-05
-1.85617e-05
2.22784e-05
-1.85599e-05
2.59905e-05
-1.85577e-05
2.97021e-05
-1.85551e-05
3.3413e-05
-1.8552e-05
3.71234e-05
-1.85484e-05
4.08329e-05
-1.85444e-05
4.45416e-05
-1.85398e-05
4.82493e-05
-1.85345e-05
5.19559e-05
-1.85287e-05
5.56612e-05
-1.85221e-05
5.93651e-05
-1.85148e-05
6.30675e-05
-1.85067e-05
6.67682e-05
-1.84977e-05
7.0467e-05
-1.84878e-05
7.41636e-05
-1.84769e-05
7.7858e-05
-1.84649e-05
8.15498e-05
-1.84518e-05
8.52389e-05
-1.84375e-05
8.8925e-05
-1.84219e-05
9.26077e-05
-1.84048e-05
9.62869e-05
-1.83863e-05
9.99621e-05
-1.83663e-05
0.000103633
-1.83445e-05
0.0001073
-1.83211e-05
0.000110961
-1.82957e-05
0.000114617
-1.82684e-05
0.000118268
-1.82391e-05
0.000121912
-1.82076e-05
0.00012555
-1.81738e-05
0.00012918
-1.81376e-05
0.000132803
-1.80989e-05
0.000136418
-1.80576e-05
0.000140024
-1.80136e-05
0.000143621
-1.79667e-05
0.000147208
-1.79168e-05
0.000150785
-1.78639e-05
0.00015435
-1.78077e-05
0.000157904
-1.77482e-05
0.000161445
-1.76853e-05
0.000164973
-1.76188e-05
0.000168488
-1.75486e-05
0.000171987
-1.74745e-05
0.000175472
-1.73966e-05
0.000178939
-1.73146e-05
0.00018239
-1.72284e-05
0.000185823
-1.71379e-05
0.000189237
-1.7043e-05
0.000192631
-1.69436e-05
0.000196005
-1.68396e-05
0.000199357
-1.67309e-05
0.000202686
-1.66173e-05
0.000205992
-1.64988e-05
0.000209273
-1.63752e-05
0.000212529
-1.62466e-05
0.000215758
-1.61127e-05
0.000218959
-1.59736e-05
0.000222131
-1.58291e-05
0.000225274
-1.56791e-05
0.000228385
-1.55237e-05
0.000231464
-1.53627e-05
0.00023451
-1.5196e-05
0.000237522
-1.50237e-05
0.000240498
-1.48458e-05
0.000243437
-1.46621e-05
0.000246338
-1.44726e-05
0.000249201
-1.42774e-05
0.000252023
-1.40764e-05
0.000254804
-1.38696e-05
0.000257542
-1.3657e-05
0.000260237
-1.34387e-05
0.000262886
-1.32147e-05
0.00026549
-1.2985e-05
0.000268047
-1.27496e-05
0.000270555
-1.25087e-05
0.000273014
-1.22622e-05
0.000275423
-1.20103e-05
0.00027778
-1.1753e-05
0.000280084
-1.14904e-05
0.000282334
-1.12226e-05
0.00028453
-1.09498e-05
0.00028667
-1.06719e-05
0.000288754
-1.03893e-05
0.00029078
-1.01019e-05
0.000292747
-9.81002e-06
0.000294655
-9.5137e-06
0.000296502
-9.21312e-06
0.000298289
-8.90846e-06
0.000300013
-8.5999e-06
0.000301675
-8.2876e-06
0.000303273
-7.97175e-06
0.000304808
-7.65256e-06
0.000306277
-7.33021e-06
0.000307681
-7.00492e-06
0.00030902
-6.67689e-06
0.000310292
-6.34633e-06
0.000311497
-6.01346e-06
0.000312635
-5.6785e-06
0.000313705
-5.34168e-06
0.000314708
-5.00323e-06
0.000315642
-4.66336e-06
0.000316507
-4.32232e-06
0.000317304
-3.98032e-06
0.000318032
-3.63761e-06
0.000318692
-3.29442e-06
0.000319282
-2.95097e-06
0.000319803
-2.6075e-06
0.000320255
-2.26423e-06
0.000320639
-1.9214e-06
0.000320954
-1.57922e-06
0.0003212
-1.23791e-06
0.000321378
-8.97703e-07
0.000321488
-5.58801e-07
0.00032153
-2.21419e-07
0.000321505
1.1424e-07
0.000321413
4.47974e-07
0.000321254
7.79587e-07
0.000321029
1.10889e-06
0.000320739
1.4357e-06
0.000320384
1.75983e-06
0.000319964
2.08112e-06
0.00031948
2.3994e-06
0.000318933
2.71451e-06
0.000318324
3.0263e-06
0.000317653
3.33462e-06
0.00031692
3.63935e-06
0.000316128
3.94033e-06
0.000315275
4.23747e-06
0.000314364
4.53063e-06
0.000313396
4.81971e-06
0.000312369
5.10461e-06
0.000311287
5.38524e-06
0.00031015
5.6615e-06
0.000308958
5.93333e-06
0.000307712
6.20065e-06
0.000306414
6.4634e-06
0.000305064
6.72152e-06
0.000303663
6.97496e-06
0.000302213
7.22367e-06
0.000300713
7.46762e-06
0.000299166
7.70679e-06
0.000297572
7.94114e-06
0.000295932
8.17066e-06
0.000294248
8.39533e-06
0.000292519
8.61516e-06
0.000290747
8.83014e-06
0.000288933
9.04028e-06
0.000287078
9.24558e-06
0.000285183
9.44607e-06
0.000283249
9.64177e-06
0.000281277
9.83269e-06
0.000279268
1.00189e-05
0.000277222
1.02003e-05
0.000275141
1.03771e-05
0.000273026
1.05493e-05
0.000270877
1.07169e-05
0.000268695
1.08799e-05
0.000266482
1.10385e-05
0.000264239
1.11926e-05
0.000261965
1.13423e-05
0.000259662
1.14877e-05
0.000257331
1.16289e-05
0.000254973
1.17658e-05
0.000252589
1.18986e-05
0.000250178
1.20274e-05
0.000247743
1.21521e-05
0.000245284
1.2273e-05
0.000242802
1.23899e-05
0.000240296
1.25031e-05
0.00023777
1.26126e-05
0.000235222
1.27184e-05
0.000232653
1.28206e-05
0.000230065
1.29193e-05