/*--------------------------------*- C++ -*----------------------------------*\
| =========                 |                                                 |
| \\      /  F ield         | OpenFOAM: The Open Source CFD Toolbox           |
|  \\    /   O peration     | Version:  v2012                                 |
|   \\  /    A nd           | Website:  www.openfoam.com                      |
|    \\/     M anipulation  |                                                 |
\*---------------------------------------------------------------------------*/
FoamFile
{
    version     2.0;
    format      ascii;
    class       volVectorField;
    location    "7";
    object      Psi;
}
// * * * * * * * * * * * * * * * * * * * * * * * * * * * * * * * * * * * * * //

dimensions      [0 2 -1 0 0 0 0];


internalField   nonuniform List<vector> 
65536
(
(0 0 9.28238e-06)
(0 0 2.7847e-05)
(0 0 4.6411e-05)
(0 0 6.49741e-05)
(0 0 8.3536e-05)
(0 0 0.000102096)
(0 0 0.000120654)
(0 0 0.00013921)
(0 0 0.000157763)
(0 0 0.000176312)
(0 0 0.000194857)
(0 0 0.000213398)
(0 0 0.000231934)
(0 0 0.000250464)
(0 0 0.000268988)
(0 0 0.000287504)
(0 0 0.000306013)
(0 0 0.000324513)
(0 0 0.000343003)
(0 0 0.000361483)
(0 0 0.000379951)
(0 0 0.000398406)
(0 0 0.000416847)
(0 0 0.000435273)
(0 0 0.000453683)
(0 0 0.000472074)
(0 0 0.000490445)
(0 0 0.000508796)
(0 0 0.000527123)
(0 0 0.000545426)
(0 0 0.000563702)
(0 0 0.00058195)
(0 0 0.000600166)
(0 0 0.00061835)
(0 0 0.000636498)
(0 0 0.000654609)
(0 0 0.000672679)
(0 0 0.000690706)
(0 0 0.000708687)
(0 0 0.000726619)
(0 0 0.0007445)
(0 0 0.000762325)
(0 0 0.000780093)
(0 0 0.000797798)
(0 0 0.000815439)
(0 0 0.000833011)
(0 0 0.00085051)
(0 0 0.000867933)
(0 0 0.000885275)
(0 0 0.000902534)
(0 0 0.000919703)
(0 0 0.000936779)
(0 0 0.000953758)
(0 0 0.000970635)
(0 0 0.000987405)
(0 0 0.00100406)
(0 0 0.00102061)
(0 0 0.00103703)
(0 0 0.00105332)
(0 0 0.00106948)
(0 0 0.00108551)
(0 0 0.00110139)
(0 0 0.00111713)
(0 0 0.00113271)
(0 0 0.00114814)
(0 0 0.0011634)
(0 0 0.00117849)
(0 0 0.00119341)
(0 0 0.00120814)
(0 0 0.00122269)
(0 0 0.00123705)
(0 0 0.00125121)
(0 0 0.00126516)
(0 0 0.00127891)
(0 0 0.00129244)
(0 0 0.00130575)
(0 0 0.00131883)
(0 0 0.00133168)
(0 0 0.00134429)
(0 0 0.00135666)
(0 0 0.00136878)
(0 0 0.00138064)
(0 0 0.00139224)
(0 0 0.00140359)
(0 0 0.00141466)
(0 0 0.00142545)
(0 0 0.00143597)
(0 0 0.0014462)
(0 0 0.00145614)
(0 0 0.00146579)
(0 0 0.00147514)
(0 0 0.00148419)
(0 0 0.00149293)
(0 0 0.00150136)
(0 0 0.00150948)
(0 0 0.00151728)
(0 0 0.00152477)
(0 0 0.00153193)
(0 0 0.00153876)
(0 0 0.00154526)
(0 0 0.00155144)
(0 0 0.00155728)
(0 0 0.00156278)
(0 0 0.00156795)
(0 0 0.00157278)
(0 0 0.00157727)
(0 0 0.00158142)
(0 0 0.00158523)
(0 0 0.0015887)
(0 0 0.00159182)
(0 0 0.0015946)
(0 0 0.00159704)
(0 0 0.00159913)
(0 0 0.00160089)
(0 0 0.0016023)
(0 0 0.00160337)
(0 0 0.00160411)
(0 0 0.0016045)
(0 0 0.00160456)
(0 0 0.00160429)
(0 0 0.00160368)
(0 0 0.00160275)
(0 0 0.00160148)
(0 0 0.0015999)
(0 0 0.00159799)
(0 0 0.00159576)
(0 0 0.00159321)
(0 0 0.00159035)
(0 0 0.00158718)
(0 0 0.00158371)
(0 0 0.00157993)
(0 0 0.00157586)
(0 0 0.00157149)
(0 0 0.00156682)
(0 0 0.00156188)
(0 0 0.00155665)
(0 0 0.00155114)
(0 0 0.00154535)
(0 0 0.0015393)
(0 0 0.00153298)
(0 0 0.00152641)
(0 0 0.00151957)
(0 0 0.00151249)
(0 0 0.00150516)
(0 0 0.00149759)
(0 0 0.00148978)
(0 0 0.00148174)
(0 0 0.00147347)
(0 0 0.00146498)
(0 0 0.00145627)
(0 0 0.00144735)
(0 0 0.00143822)
(0 0 0.00142889)
(0 0 0.00141936)
(0 0 0.00140964)
(0 0 0.00139973)
(0 0 0.00138963)
(0 0 0.00137936)
(0 0 0.00136891)
(0 0 0.00135829)
(0 0 0.00134751)
(0 0 0.00133656)
(0 0 0.00132546)
(0 0 0.0013142)
(0 0 0.0013028)
(0 0 0.00129125)
(0 0 0.00127957)
(0 0 0.00126775)
(0 0 0.0012558)
(0 0 0.00124372)
(0 0 0.00123152)
(0 0 0.0012192)
(0 0 0.00120676)
(0 0 0.00119421)
(0 0 0.00118156)
(0 0 0.0011688)
(0 0 0.00115594)
(0 0 0.00114298)
(0 0 0.00112993)
(0 0 0.00111679)
(0 0 0.00110356)
(0 0 0.00109025)
(0 0 0.00107685)
(0 0 0.00106338)
(0 0 0.00104983)
(0 0 0.00103621)
(0 0 0.00102252)
(0 0 0.00100877)
(0 0 0.000994945)
(0 0 0.000981063)
(0 0 0.000967122)
(0 0 0.000953125)
(0 0 0.000939073)
(0 0 0.00092497)
(0 0 0.000910816)
(0 0 0.000896616)
(0 0 0.00088237)
(0 0 0.00086808)
(0 0 0.000853749)
(0 0 0.000839379)
(0 0 0.000824971)
(0 0 0.000810527)
(0 0 0.000796049)
(0 0 0.000781538)
(0 0 0.000766996)
(0 0 0.000752426)
(0 0 0.000737827)
(0 0 0.000723202)
(0 0 0.000708552)
(0 0 0.000693878)
(0 0 0.000679181)
(0 0 0.000664464)
(0 0 0.000649726)
(0 0 0.00063497)
(0 0 0.000620196)
(0 0 0.000605405)
(0 0 0.000590598)
(0 0 0.000575776)
(0 0 0.000560941)
(0 0 0.000546092)
(0 0 0.000531232)
(0 0 0.000516359)
(0 0 0.000501477)
(0 0 0.000486584)
(0 0 0.000471682)
(0 0 0.000456771)
(0 0 0.000441852)
(0 0 0.000426926)
(0 0 0.000411993)
(0 0 0.000397054)
(0 0 0.000382108)
(0 0 0.000367157)
(0 0 0.000352201)
(0 0 0.000337241)
(0 0 0.000322276)
(0 0 0.000307307)
(0 0 0.000292335)
(0 0 0.00027736)
(0 0 0.000262381)
(0 0 0.0002474)
(0 0 0.000232417)
(0 0 0.000217431)
(0 0 0.000202443)
(0 0 0.000187454)
(0 0 0.000172463)
(0 0 0.000157471)
(0 0 0.000142477)
(0 0 0.000127482)
(0 0 0.000112486)
(0 0 9.74897e-05)
(0 0 8.24924e-05)
(0 0 6.74945e-05)
(0 0 5.24962e-05)
(0 0 3.74976e-05)
(0 0 2.24986e-05)
(0 0 7.49956e-06)
(0 0 2.78473e-05)
(0 0 8.35414e-05)
(0 0 0.000139234)
(0 0 0.000194924)
(0 0 0.00025061)
(0 0 0.000306291)
(0 0 0.000361965)
(0 0 0.000417633)
(0 0 0.000473291)
(0 0 0.00052894)
(0 0 0.000584576)
(0 0 0.0006402)
(0 0 0.000695808)
(0 0 0.000751399)
(0 0 0.00080697)
(0 0 0.000862521)
(0 0 0.000918048)
(0 0 0.000973549)
(0 0 0.00102902)
(0 0 0.00108446)
(0 0 0.00113987)
(0 0 0.00119523)
(0 0 0.00125056)
(0 0 0.00130584)
(0 0 0.00136107)
(0 0 0.00141624)
(0 0 0.00147136)
(0 0 0.00152641)
(0 0 0.00158139)
(0 0 0.0016363)
(0 0 0.00169114)
(0 0 0.00174588)
(0 0 0.00180053)
(0 0 0.00185508)
(0 0 0.00190953)
(0 0 0.00196387)
(0 0 0.00201808)
(0 0 0.00207216)
(0 0 0.00212611)
(0 0 0.00217991)
(0 0 0.00223355)
(0 0 0.00228703)
(0 0 0.00234034)
(0 0 0.00239346)
(0 0 0.00244638)
(0 0 0.0024991)
(0 0 0.00255161)
(0 0 0.00260388)
(0 0 0.00265591)
(0 0 0.00270769)
(0 0 0.0027592)
(0 0 0.00281043)
(0 0 0.00286137)
(0 0 0.00291201)
(0 0 0.00296232)
(0 0 0.0030123)
(0 0 0.00306194)
(0 0 0.0031112)
(0 0 0.00316009)
(0 0 0.00320859)
(0 0 0.00325667)
(0 0 0.00330433)
(0 0 0.00335154)
(0 0 0.0033983)
(0 0 0.00344458)
(0 0 0.00349037)
(0 0 0.00353565)
(0 0 0.0035804)
(0 0 0.00362462)
(0 0 0.00366827)
(0 0 0.00371134)
(0 0 0.00375383)
(0 0 0.00379569)
(0 0 0.00383693)
(0 0 0.00387753)
(0 0 0.00391746)
(0 0 0.00395671)
(0 0 0.00399527)
(0 0 0.00403311)
(0 0 0.00407022)
(0 0 0.00410658)
(0 0 0.00414218)
(0 0 0.004177)
(0 0 0.00421102)
(0 0 0.00424424)
(0 0 0.00427663)
(0 0 0.00430818)
(0 0 0.00433888)
(0 0 0.00436871)
(0 0 0.00439766)
(0 0 0.00442572)
(0 0 0.00445287)
(0 0 0.0044791)
(0 0 0.0045044)
(0 0 0.00452876)
(0 0 0.00455217)
(0 0 0.00457462)
(0 0 0.0045961)
(0 0 0.0046166)
(0 0 0.00463612)
(0 0 0.00465464)
(0 0 0.00467217)
(0 0 0.00468868)
(0 0 0.00470419)
(0 0 0.00471868)
(0 0 0.00473216)
(0 0 0.0047446)
(0 0 0.00475603)
(0 0 0.00476643)
(0 0 0.0047758)
(0 0 0.00478414)
(0 0 0.00479145)
(0 0 0.00479774)
(0 0 0.004803)
(0 0 0.00480724)
(0 0 0.00481045)
(0 0 0.00481265)
(0 0 0.00481384)
(0 0 0.00481402)
(0 0 0.0048132)
(0 0 0.00481138)
(0 0 0.00480857)
(0 0 0.00480478)
(0 0 0.00480001)
(0 0 0.00479428)
(0 0 0.00478758)
(0 0 0.00477994)
(0 0 0.00477136)
(0 0 0.00476185)
(0 0 0.00475143)
(0 0 0.00474009)
(0 0 0.00472786)
(0 0 0.00471475)
(0 0 0.00470076)
(0 0 0.00468591)
(0 0 0.00467021)
(0 0 0.00465368)
(0 0 0.00463633)
(0 0 0.00461817)
(0 0 0.00459921)
(0 0 0.00457947)
(0 0 0.00455897)
(0 0 0.00453771)
(0 0 0.00451572)
(0 0 0.004493)
(0 0 0.00446956)
(0 0 0.00444544)
(0 0 0.00442063)
(0 0 0.00439515)
(0 0 0.00436903)
(0 0 0.00434226)
(0 0 0.00431487)
(0 0 0.00428687)
(0 0 0.00425828)
(0 0 0.00422911)
(0 0 0.00419937)
(0 0 0.00416908)
(0 0 0.00413825)
(0 0 0.0041069)
(0 0 0.00407504)
(0 0 0.00404268)
(0 0 0.00400983)
(0 0 0.00397652)
(0 0 0.00394275)
(0 0 0.00390854)
(0 0 0.0038739)
(0 0 0.00383884)
(0 0 0.00380338)
(0 0 0.00376752)
(0 0 0.00373128)
(0 0 0.00369467)
(0 0 0.00365771)
(0 0 0.00362039)
(0 0 0.00358275)
(0 0 0.00354478)
(0 0 0.0035065)
(0 0 0.00346791)
(0 0 0.00342904)
(0 0 0.00338988)
(0 0 0.00335045)
(0 0 0.00331076)
(0 0 0.00327082)
(0 0 0.00323063)
(0 0 0.00319021)
(0 0 0.00314956)
(0 0 0.0031087)
(0 0 0.00306763)
(0 0 0.00302636)
(0 0 0.0029849)
(0 0 0.00294325)
(0 0 0.00290142)
(0 0 0.00285943)
(0 0 0.00281727)
(0 0 0.00277496)
(0 0 0.0027325)
(0 0 0.00268989)
(0 0 0.00264715)
(0 0 0.00260428)
(0 0 0.00256129)
(0 0 0.00251817)
(0 0 0.00247495)
(0 0 0.00243161)
(0 0 0.00238818)
(0 0 0.00234464)
(0 0 0.00230102)
(0 0 0.0022573)
(0 0 0.00221351)
(0 0 0.00216963)
(0 0 0.00212568)
(0 0 0.00208166)
(0 0 0.00203756)
(0 0 0.00199341)
(0 0 0.0019492)
(0 0 0.00190493)
(0 0 0.0018606)
(0 0 0.00181623)
(0 0 0.00177181)
(0 0 0.00172734)
(0 0 0.00168284)
(0 0 0.00163829)
(0 0 0.00159371)
(0 0 0.00154909)
(0 0 0.00150444)
(0 0 0.00145976)
(0 0 0.00141505)
(0 0 0.00137032)
(0 0 0.00132556)
(0 0 0.00128079)
(0 0 0.00123599)
(0 0 0.00119117)
(0 0 0.00114633)
(0 0 0.00110148)
(0 0 0.00105661)
(0 0 0.00101173)
(0 0 0.000966832)
(0 0 0.000921926)
(0 0 0.000877009)
(0 0 0.000832082)
(0 0 0.000787147)
(0 0 0.000742204)
(0 0 0.000697253)
(0 0 0.000652295)
(0 0 0.000607332)
(0 0 0.000562364)
(0 0 0.00051739)
(0 0 0.000472413)
(0 0 0.000427431)
(0 0 0.000382447)
(0 0 0.00033746)
(0 0 0.00029247)
(0 0 0.000247478)
(0 0 0.000202484)
(0 0 0.000157489)
(0 0 0.000112493)
(0 0 6.7496e-05)
(0 0 2.24987e-05)
(0 0 4.64128e-05)
(0 0 0.000139237)
(0 0 0.000232059)
(0 0 0.000324877)
(0 0 0.000417688)
(0 0 0.000510491)
(0 0 0.000603284)
(0 0 0.000696064)
(0 0 0.00078883)
(0 0 0.000881579)
(0 0 0.000974309)
(0 0 0.00106702)
(0 0 0.0011597)
(0 0 0.00125235)
(0 0 0.00134497)
(0 0 0.00143756)
(0 0 0.00153011)
(0 0 0.00162261)
(0 0 0.00171507)
(0 0 0.00180747)
(0 0 0.00189982)
(0 0 0.0019921)
(0 0 0.00208431)
(0 0 0.00217645)
(0 0 0.0022685)
(0 0 0.00236047)
(0 0 0.00245233)
(0 0 0.00254409)
(0 0 0.00263574)
(0 0 0.00272726)
(0 0 0.00281865)
(0 0 0.0029099)
(0 0 0.003001)
(0 0 0.00309193)
(0 0 0.00318268)
(0 0 0.00327324)
(0 0 0.00336361)
(0 0 0.00345376)
(0 0 0.00354368)
(0 0 0.00363335)
(0 0 0.00372277)
(0 0 0.00381192)
(0 0 0.00390077)
(0 0 0.00398932)
(0 0 0.00407754)
(0 0 0.00416541)
(0 0 0.00425293)
(0 0 0.00434006)
(0 0 0.0044268)
(0 0 0.00451311)
(0 0 0.00459898)
(0 0 0.00468438)
(0 0 0.0047693)
(0 0 0.0048537)
(0 0 0.00493758)
(0 0 0.0050209)
(0 0 0.00510363)
(0 0 0.00518576)
(0 0 0.00526726)
(0 0 0.0053481)
(0 0 0.00542825)
(0 0 0.0055077)
(0 0 0.00558641)
(0 0 0.00566436)
(0 0 0.00574151)
(0 0 0.00581785)
(0 0 0.00589333)
(0 0 0.00596794)
(0 0 0.00604165)
(0 0 0.00611442)
(0 0 0.00618623)
(0 0 0.00625705)
(0 0 0.00632686)
(0 0 0.00639561)
(0 0 0.00646329)
(0 0 0.00652986)
(0 0 0.00659529)
(0 0 0.00665957)
(0 0 0.00672265)
(0 0 0.00678452)
(0 0 0.00684514)
(0 0 0.00690449)
(0 0 0.00696255)
(0 0 0.00701927)
(0 0 0.00707465)
(0 0 0.00712865)
(0 0 0.00718125)
(0 0 0.00723243)
(0 0 0.00728216)
(0 0 0.00733043)
(0 0 0.0073772)
(0 0 0.00742246)
(0 0 0.0074662)
(0 0 0.00750838)
(0 0 0.00754899)
(0 0 0.00758802)
(0 0 0.00762545)
(0 0 0.00766126)
(0 0 0.00769543)
(0 0 0.00772797)
(0 0 0.00775885)
(0 0 0.00778806)
(0 0 0.0078156)
(0 0 0.00784145)
(0 0 0.0078656)
(0 0 0.00788806)
(0 0 0.00790881)
(0 0 0.00792786)
(0 0 0.00794519)
(0 0 0.0079608)
(0 0 0.00797471)
(0 0 0.00798689)
(0 0 0.00799737)
(0 0 0.00800613)
(0 0 0.00801319)
(0 0 0.00801855)
(0 0 0.00802221)
(0 0 0.00802419)
(0 0 0.00802448)
(0 0 0.0080231)
(0 0 0.00802006)
(0 0 0.00801537)
(0 0 0.00800904)
(0 0 0.00800109)
(0 0 0.00799152)
(0 0 0.00798036)
(0 0 0.00796761)
(0 0 0.0079533)
(0 0 0.00793744)
(0 0 0.00792005)
(0 0 0.00790115)
(0 0 0.00788075)
(0 0 0.00785888)
(0 0 0.00783555)
(0 0 0.00781079)
(0 0 0.00778461)
(0 0 0.00775705)
(0 0 0.00772811)
(0 0 0.00769783)
(0 0 0.00766622)
(0 0 0.00763331)
(0 0 0.00759912)
(0 0 0.00756367)
(0 0 0.007527)
(0 0 0.00748911)
(0 0 0.00745005)
(0 0 0.00740982)
(0 0 0.00736846)
(0 0 0.00732598)
(0 0 0.00728242)
(0 0 0.00723779)
(0 0 0.00719213)
(0 0 0.00714545)
(0 0 0.00709778)
(0 0 0.00704914)
(0 0 0.00699956)
(0 0 0.00694906)
(0 0 0.00689767)
(0 0 0.0068454)
(0 0 0.00679228)
(0 0 0.00673833)
(0 0 0.00668358)
(0 0 0.00662804)
(0 0 0.00657175)
(0 0 0.00651472)
(0 0 0.00645697)
(0 0 0.00639852)
(0 0 0.0063394)
(0 0 0.00627962)
(0 0 0.00621921)
(0 0 0.00615818)
(0 0 0.00609656)
(0 0 0.00603436)
(0 0 0.00597161)
(0 0 0.00590831)
(0 0 0.0058445)
(0 0 0.00578018)
(0 0 0.00571538)
(0 0 0.0056501)
(0 0 0.00558438)
(0 0 0.00551821)
(0 0 0.00545163)
(0 0 0.00538464)
(0 0 0.00531727)
(0 0 0.00524951)
(0 0 0.0051814)
(0 0 0.00511294)
(0 0 0.00504414)
(0 0 0.00497503)
(0 0 0.00490561)
(0 0 0.00483589)
(0 0 0.00476589)
(0 0 0.00469562)
(0 0 0.0046251)
(0 0 0.00455432)
(0 0 0.00448331)
(0 0 0.00441206)
(0 0 0.00434061)
(0 0 0.00426894)
(0 0 0.00419708)
(0 0 0.00412503)
(0 0 0.0040528)
(0 0 0.00398041)
(0 0 0.00390784)
(0 0 0.00383513)
(0 0 0.00376227)
(0 0 0.00368927)
(0 0 0.00361613)
(0 0 0.00354288)
(0 0 0.0034695)
(0 0 0.00339601)
(0 0 0.00332242)
(0 0 0.00324873)
(0 0 0.00317494)
(0 0 0.00310106)
(0 0 0.0030271)
(0 0 0.00295306)
(0 0 0.00287895)
(0 0 0.00280477)
(0 0 0.00273052)
(0 0 0.00265621)
(0 0 0.00258185)
(0 0 0.00250743)
(0 0 0.00243297)
(0 0 0.00235845)
(0 0 0.0022839)
(0 0 0.0022093)
(0 0 0.00213467)
(0 0 0.00206)
(0 0 0.0019853)
(0 0 0.00191057)
(0 0 0.00183581)
(0 0 0.00176103)
(0 0 0.00168623)
(0 0 0.0016114)
(0 0 0.00153656)
(0 0 0.00146169)
(0 0 0.00138681)
(0 0 0.00131192)
(0 0 0.00123701)
(0 0 0.0011621)
(0 0 0.00108717)
(0 0 0.00101223)
(0 0 0.000937278)
(0 0 0.000862322)
(0 0 0.000787359)
(0 0 0.000712389)
(0 0 0.000637415)
(0 0 0.000562435)
(0 0 0.000487452)
(0 0 0.000412465)
(0 0 0.000337475)
(0 0 0.000262483)
(0 0 0.000187489)
(0 0 0.000112494)
(0 0 3.74981e-05)
(0 0 6.49791e-05)
(0 0 0.000194936)
(0 0 0.000324889)
(0 0 0.000454836)
(0 0 0.000584775)
(0 0 0.000714702)
(0 0 0.000844615)
(0 0 0.000974511)
(0 0 0.00110439)
(0 0 0.00123424)
(0 0 0.00136406)
(0 0 0.00149386)
(0 0 0.00162362)
(0 0 0.00175334)
(0 0 0.00188301)
(0 0 0.00201264)
(0 0 0.00214221)
(0 0 0.00227173)
(0 0 0.00240117)
(0 0 0.00253054)
(0 0 0.00265984)
(0 0 0.00278904)
(0 0 0.00291814)
(0 0 0.00304714)
(0 0 0.00317603)
(0 0 0.00330479)
(0 0 0.00343341)
(0 0 0.00356189)
(0 0 0.00369021)
(0 0 0.00381835)
(0 0 0.00394632)
(0 0 0.00407408)
(0 0 0.00420163)
(0 0 0.00432894)
(0 0 0.00445601)
(0 0 0.00458282)
(0 0 0.00470935)
(0 0 0.00483558)
(0 0 0.00496149)
(0 0 0.00508706)
(0 0 0.00521226)
(0 0 0.00533709)
(0 0 0.00546151)
(0 0 0.0055855)
(0 0 0.00570903)
(0 0 0.00583209)
(0 0 0.00595464)
(0 0 0.00607665)
(0 0 0.00619811)
(0 0 0.00631897)
(0 0 0.00643922)
(0 0 0.00655882)
(0 0 0.00667773)
(0 0 0.00679593)
(0 0 0.00691339)
(0 0 0.00703007)
(0 0 0.00714593)
(0 0 0.00726095)
(0 0 0.00737508)
(0 0 0.00748829)
(0 0 0.00760055)
(0 0 0.00771181)
(0 0 0.00782205)
(0 0 0.00793121)
(0 0 0.00803926)
(0 0 0.00814617)
(0 0 0.00825189)
(0 0 0.00835639)
(0 0 0.00845962)
(0 0 0.00856154)
(0 0 0.00866211)
(0 0 0.0087613)
(0 0 0.00885907)
(0 0 0.00895536)
(0 0 0.00905015)
(0 0 0.00914339)
(0 0 0.00923504)
(0 0 0.00932506)
(0 0 0.00941342)
(0 0 0.00950007)
(0 0 0.00958498)
(0 0 0.00966811)
(0 0 0.00974942)
(0 0 0.00982887)
(0 0 0.00990644)
(0 0 0.00998207)
(0 0 0.0100557)
(0 0 0.0101274)
(0 0 0.0101971)
(0 0 0.0102647)
(0 0 0.0103302)
(0 0 0.0103936)
(0 0 0.0104548)
(0 0 0.0105139)
(0 0 0.0105708)
(0 0 0.0106255)
(0 0 0.0106779)
(0 0 0.010728)
(0 0 0.0107759)
(0 0 0.0108215)
(0 0 0.0108647)
(0 0 0.0109056)
(0 0 0.0109442)
(0 0 0.0109804)
(0 0 0.0110142)
(0 0 0.0110457)
(0 0 0.0110747)
(0 0 0.0111014)
(0 0 0.0111257)
(0 0 0.0111475)
(0 0 0.011167)
(0 0 0.011184)
(0 0 0.0111987)
(0 0 0.011211)
(0 0 0.0112209)
(0 0 0.0112283)
(0 0 0.0112335)
(0 0 0.0112362)
(0 0 0.0112366)
(0 0 0.0112347)
(0 0 0.0112304)
(0 0 0.0112238)
(0 0 0.0112149)
(0 0 0.0112038)
(0 0 0.0111904)
(0 0 0.0111747)
(0 0 0.0111569)
(0 0 0.0111368)
(0 0 0.0111146)
(0 0 0.0110902)
(0 0 0.0110637)
(0 0 0.0110351)
(0 0 0.0110045)
(0 0 0.0109718)
(0 0 0.0109371)
(0 0 0.0109004)
(0 0 0.0108618)
(0 0 0.0108212)
(0 0 0.0107788)
(0 0 0.0107345)
(0 0 0.0106884)
(0 0 0.0106405)
(0 0 0.0105909)
(0 0 0.0105395)
(0 0 0.0104864)
(0 0 0.0104317)
(0 0 0.0103753)
(0 0 0.0103174)
(0 0 0.0102579)
(0 0 0.0101969)
(0 0 0.0101344)
(0 0 0.0100704)
(0 0 0.010005)
(0 0 0.00993825)
(0 0 0.00987012)
(0 0 0.00980068)
(0 0 0.00972994)
(0 0 0.00965796)
(0 0 0.00958475)
(0 0 0.00951035)
(0 0 0.00943479)
(0 0 0.0093581)
(0 0 0.00928033)
(0 0 0.00920148)
(0 0 0.00912161)
(0 0 0.00904073)
(0 0 0.00895887)
(0 0 0.00887607)
(0 0 0.00879236)
(0 0 0.00870775)
(0 0 0.00862229)
(0 0 0.00853599)
(0 0 0.00844889)
(0 0 0.00836101)
(0 0 0.00827237)
(0 0 0.008183)
(0 0 0.00809293)
(0 0 0.00800218)
(0 0 0.00791078)
(0 0 0.00781874)
(0 0 0.00772609)
(0 0 0.00763285)
(0 0 0.00753905)
(0 0 0.0074447)
(0 0 0.00734982)
(0 0 0.00725445)
(0 0 0.00715858)
(0 0 0.00706225)
(0 0 0.00696547)
(0 0 0.00686827)
(0 0 0.00677065)
(0 0 0.00667263)
(0 0 0.00657424)
(0 0 0.00647548)
(0 0 0.00637638)
(0 0 0.00627694)
(0 0 0.00617719)
(0 0 0.00607714)
(0 0 0.0059768)
(0 0 0.00587618)
(0 0 0.0057753)
(0 0 0.00567416)
(0 0 0.00557279)
(0 0 0.0054712)
(0 0 0.00536939)
(0 0 0.00526737)
(0 0 0.00516516)
(0 0 0.00506276)
(0 0 0.00496019)
(0 0 0.00485746)
(0 0 0.00475456)
(0 0 0.00465153)
(0 0 0.00454835)
(0 0 0.00444504)
(0 0 0.0043416)
(0 0 0.00423805)
(0 0 0.00413439)
(0 0 0.00403063)
(0 0 0.00392677)
(0 0 0.00382282)
(0 0 0.00371878)
(0 0 0.00361467)
(0 0 0.00351048)
(0 0 0.00340622)
(0 0 0.00330189)
(0 0 0.00319751)
(0 0 0.00309307)
(0 0 0.00298858)
(0 0 0.00288404)
(0 0 0.00277946)
(0 0 0.00267483)
(0 0 0.00257017)
(0 0 0.00246547)
(0 0 0.00236075)
(0 0 0.00225599)
(0 0 0.0021512)
(0 0 0.00204639)
(0 0 0.00194156)
(0 0 0.00183671)
(0 0 0.00173184)
(0 0 0.00162695)
(0 0 0.00152205)
(0 0 0.00141713)
(0 0 0.0013122)
(0 0 0.00120726)
(0 0 0.00110231)
(0 0 0.000997353)
(0 0 0.000892387)
(0 0 0.000787415)
(0 0 0.000682437)
(0 0 0.000577455)
(0 0 0.000472468)
(0 0 0.000367479)
(0 0 0.000262486)
(0 0 0.000157493)
(0 0 5.24976e-05)
(0 0 8.35466e-05)
(0 0 0.000250638)
(0 0 0.000417725)
(0 0 0.000584805)
(0 0 0.000751873)
(0 0 0.000918927)
(0 0 0.00108596)
(0 0 0.00125298)
(0 0 0.00141997)
(0 0 0.00158692)
(0 0 0.00175385)
(0 0 0.00192073)
(0 0 0.00208758)
(0 0 0.00225437)
(0 0 0.0024211)
(0 0 0.00258778)
(0 0 0.00275438)
(0 0 0.00292091)
(0 0 0.00308735)
(0 0 0.0032537)
(0 0 0.00341994)
(0 0 0.00358607)
(0 0 0.00375208)
(0 0 0.00391796)
(0 0 0.00408368)
(0 0 0.00424925)
(0 0 0.00441464)
(0 0 0.00457985)
(0 0 0.00474485)
(0 0 0.00490963)
(0 0 0.00507418)
(0 0 0.00523847)
(0 0 0.00540248)
(0 0 0.00556621)
(0 0 0.00572961)
(0 0 0.00589268)
(0 0 0.0060554)
(0 0 0.00621772)
(0 0 0.00637964)
(0 0 0.00654112)
(0 0 0.00670214)
(0 0 0.00686267)
(0 0 0.00702268)
(0 0 0.00718213)
(0 0 0.00734101)
(0 0 0.00749927)
(0 0 0.00765688)
(0 0 0.0078138)
(0 0 0.00797001)
(0 0 0.00812546)
(0 0 0.00828011)
(0 0 0.00843393)
(0 0 0.00858688)
(0 0 0.00873891)
(0 0 0.00888998)
(0 0 0.00904005)
(0 0 0.00918908)
(0 0 0.00933702)
(0 0 0.00948382)
(0 0 0.00962945)
(0 0 0.00977384)
(0 0 0.00991696)
(0 0 0.0100588)
(0 0 0.0101992)
(0 0 0.0103382)
(0 0 0.0104757)
(0 0 0.0106117)
(0 0 0.0107461)
(0 0 0.0108789)
(0 0 0.01101)
(0 0 0.0111394)
(0 0 0.011267)
(0 0 0.0113927)
(0 0 0.0115166)
(0 0 0.0116386)
(0 0 0.0117585)
(0 0 0.0118764)
(0 0 0.0119922)
(0 0 0.0121059)
(0 0 0.0122174)
(0 0 0.0123266)
(0 0 0.0124335)
(0 0 0.0125381)
(0 0 0.0126404)
(0 0 0.0127401)
(0 0 0.0128375)
(0 0 0.0129322)
(0 0 0.0130245)
(0 0 0.0131141)
(0 0 0.013201)
(0 0 0.0132853)
(0 0 0.0133669)
(0 0 0.0134457)
(0 0 0.0135217)
(0 0 0.0135948)
(0 0 0.0136652)
(0 0 0.0137326)
(0 0 0.0137971)
(0 0 0.0138587)
(0 0 0.0139173)
(0 0 0.0139729)
(0 0 0.0140256)
(0 0 0.0140752)
(0 0 0.0141217)
(0 0 0.0141652)
(0 0 0.0142057)
(0 0 0.014243)
(0 0 0.0142773)
(0 0 0.0143085)
(0 0 0.0143367)
(0 0 0.0143617)
(0 0 0.0143836)
(0 0 0.0144024)
(0 0 0.0144182)
(0 0 0.0144309)
(0 0 0.0144405)
(0 0 0.0144471)
(0 0 0.0144506)
(0 0 0.0144511)
(0 0 0.0144486)
(0 0 0.014443)
(0 0 0.0144346)
(0 0 0.0144231)
(0 0 0.0144087)
(0 0 0.0143915)
(0 0 0.0143713)
(0 0 0.0143483)
(0 0 0.0143225)
(0 0 0.0142938)
(0 0 0.0142625)
(0 0 0.0142283)
(0 0 0.0141915)
(0 0 0.0141521)
(0 0 0.01411)
(0 0 0.0140654)
(0 0 0.0140181)
(0 0 0.0139684)
(0 0 0.0139163)
(0 0 0.0138617)
(0 0 0.0138047)
(0 0 0.0137453)
(0 0 0.0136837)
(0 0 0.0136198)
(0 0 0.0135537)
(0 0 0.0134854)
(0 0 0.013415)
(0 0 0.0133424)
(0 0 0.0132679)
(0 0 0.0131913)
(0 0 0.0131128)
(0 0 0.0130324)
(0 0 0.0129501)
(0 0 0.012866)
(0 0 0.0127801)
(0 0 0.0126924)
(0 0 0.0126031)
(0 0 0.0125121)
(0 0 0.0124195)
(0 0 0.0123253)
(0 0 0.0122296)
(0 0 0.0121324)
(0 0 0.0120337)
(0 0 0.0119337)
(0 0 0.0118323)
(0 0 0.0117295)
(0 0 0.0116255)
(0 0 0.0115202)
(0 0 0.0114137)
(0 0 0.011306)
(0 0 0.0111972)
(0 0 0.0110872)
(0 0 0.0109762)
(0 0 0.0108642)
(0 0 0.0107512)
(0 0 0.0106372)
(0 0 0.0105222)
(0 0 0.0104064)
(0 0 0.0102896)
(0 0 0.0101721)
(0 0 0.0100537)
(0 0 0.00993455)
(0 0 0.00981464)
(0 0 0.009694)
(0 0 0.00957266)
(0 0 0.00945064)
(0 0 0.00932798)
(0 0 0.00920469)
(0 0 0.0090808)
(0 0 0.00895635)
(0 0 0.00883133)
(0 0 0.00870579)
(0 0 0.00857975)
(0 0 0.00845321)
(0 0 0.00832621)
(0 0 0.00819877)
(0 0 0.0080709)
(0 0 0.00794263)
(0 0 0.00781396)
(0 0 0.00768493)
(0 0 0.00755554)
(0 0 0.00742581)
(0 0 0.00729576)
(0 0 0.00716541)
(0 0 0.00703477)
(0 0 0.00690385)
(0 0 0.00677266)
(0 0 0.00664123)
(0 0 0.00650956)
(0 0 0.00637767)
(0 0 0.00624557)
(0 0 0.00611327)
(0 0 0.00598077)
(0 0 0.0058481)
(0 0 0.00571526)
(0 0 0.00558226)
(0 0 0.00544911)
(0 0 0.00531582)
(0 0 0.0051824)
(0 0 0.00504886)
(0 0 0.0049152)
(0 0 0.00478143)
(0 0 0.00464755)
(0 0 0.00451359)
(0 0 0.00437953)
(0 0 0.00424539)
(0 0 0.00411118)
(0 0 0.00397689)
(0 0 0.00384254)
(0 0 0.00370813)
(0 0 0.00357366)
(0 0 0.00343914)
(0 0 0.00330457)
(0 0 0.00316995)
(0 0 0.00303529)
(0 0 0.0029006)
(0 0 0.00276587)
(0 0 0.00263111)
(0 0 0.00249633)
(0 0 0.00236151)
(0 0 0.00222668)
(0 0 0.00209182)
(0 0 0.00195694)
(0 0 0.00182204)
(0 0 0.00168713)
(0 0 0.00155221)
(0 0 0.00141727)
(0 0 0.00128232)
(0 0 0.00114737)
(0 0 0.0010124)
(0 0 0.000877428)
(0 0 0.000742449)
(0 0 0.000607465)
(0 0 0.000472477)
(0 0 0.000337485)
(0 0 0.000202492)
(0 0 6.74975e-05)
(0 0 0.000102116)
(0 0 0.000306345)
(0 0 0.000510569)
(0 0 0.000714784)
(0 0 0.000918986)
(0 0 0.00112317)
(0 0 0.00132733)
(0 0 0.00153147)
(0 0 0.00173557)
(0 0 0.00193965)
(0 0 0.00214367)
(0 0 0.00234766)
(0 0 0.00255158)
(0 0 0.00275545)
(0 0 0.00295925)
(0 0 0.00316298)
(0 0 0.00336662)
(0 0 0.00357017)
(0 0 0.00377362)
(0 0 0.00397695)
(0 0 0.00418016)
(0 0 0.00438323)
(0 0 0.00458615)
(0 0 0.00478891)
(0 0 0.00499149)
(0 0 0.00519388)
(0 0 0.00539606)
(0 0 0.00559801)
(0 0 0.00579971)
(0 0 0.00600115)
(0 0 0.00620229)
(0 0 0.00640313)
(0 0 0.00660364)
(0 0 0.00680379)
(0 0 0.00700355)
(0 0 0.00720291)
(0 0 0.00740182)
(0 0 0.00760027)
(0 0 0.00779823)
(0 0 0.00799565)
(0 0 0.00819251)
(0 0 0.00838877)
(0 0 0.0085844)
(0 0 0.00877935)
(0 0 0.0089736)
(0 0 0.0091671)
(0 0 0.0093598)
(0 0 0.00955167)
(0 0 0.00974267)
(0 0 0.00993274)
(0 0 0.0101218)
(0 0 0.0103099)
(0 0 0.0104969)
(0 0 0.0106828)
(0 0 0.0108676)
(0 0 0.0110511)
(0 0 0.0112333)
(0 0 0.0114142)
(0 0 0.0115938)
(0 0 0.0117718)
(0 0 0.0119484)
(0 0 0.0121234)
(0 0 0.0122968)
(0 0 0.0124686)
(0 0 0.0126385)
(0 0 0.0128067)
(0 0 0.012973)
(0 0 0.0131374)
(0 0 0.0132998)
(0 0 0.0134602)
(0 0 0.0136184)
(0 0 0.0137745)
(0 0 0.0139283)
(0 0 0.0140798)
(0 0 0.014229)
(0 0 0.0143757)
(0 0 0.0145199)
(0 0 0.0146615)
(0 0 0.0148006)
(0 0 0.0149369)
(0 0 0.0150705)
(0 0 0.0152013)
(0 0 0.0153293)
(0 0 0.0154543)
(0 0 0.0155763)
(0 0 0.0156954)
(0 0 0.0158113)
(0 0 0.0159241)
(0 0 0.0160337)
(0 0 0.0161401)
(0 0 0.0162431)
(0 0 0.0163429)
(0 0 0.0164393)
(0 0 0.0165322)
(0 0 0.0166217)
(0 0 0.0167077)
(0 0 0.0167902)
(0 0 0.0168691)
(0 0 0.0169444)
(0 0 0.0170161)
(0 0 0.0170841)
(0 0 0.0171485)
(0 0 0.0172092)
(0 0 0.0172661)
(0 0 0.0173193)
(0 0 0.0173687)
(0 0 0.0174144)
(0 0 0.0174564)
(0 0 0.0174945)
(0 0 0.0175289)
(0 0 0.0175594)
(0 0 0.0175862)
(0 0 0.0176093)
(0 0 0.0176285)
(0 0 0.017644)
(0 0 0.0176557)
(0 0 0.0176637)
(0 0 0.017668)
(0 0 0.0176686)
(0 0 0.0176655)
(0 0 0.0176587)
(0 0 0.0176482)
(0 0 0.0176342)
(0 0 0.0176166)
(0 0 0.0175954)
(0 0 0.0175707)
(0 0 0.0175425)
(0 0 0.0175109)
(0 0 0.0174759)
(0 0 0.0174374)
(0 0 0.0173957)
(0 0 0.0173506)
(0 0 0.0173023)
(0 0 0.0172508)
(0 0 0.0171962)
(0 0 0.0171384)
(0 0 0.0170776)
(0 0 0.0170137)
(0 0 0.0169469)
(0 0 0.0168771)
(0 0 0.0168045)
(0 0 0.0167291)
(0 0 0.0166509)
(0 0 0.01657)
(0 0 0.0164865)
(0 0 0.0164003)
(0 0 0.0163116)
(0 0 0.0162204)
(0 0 0.0161267)
(0 0 0.0160307)
(0 0 0.0159323)
(0 0 0.0158316)
(0 0 0.0157287)
(0 0 0.0156236)
(0 0 0.0155164)
(0 0 0.0154071)
(0 0 0.0152958)
(0 0 0.0151825)
(0 0 0.0150674)
(0 0 0.0149503)
(0 0 0.0148314)
(0 0 0.0147108)
(0 0 0.0145884)
(0 0 0.0144643)
(0 0 0.0143387)
(0 0 0.0142114)
(0 0 0.0140827)
(0 0 0.0139524)
(0 0 0.0138207)
(0 0 0.0136877)
(0 0 0.0135532)
(0 0 0.0134175)
(0 0 0.0132805)
(0 0 0.0131423)
(0 0 0.0130029)
(0 0 0.0128623)
(0 0 0.0127207)
(0 0 0.012578)
(0 0 0.0124342)
(0 0 0.0122895)
(0 0 0.0121438)
(0 0 0.0119972)
(0 0 0.0118496)
(0 0 0.0117013)
(0 0 0.0115521)
(0 0 0.0114021)
(0 0 0.0112514)
(0 0 0.0110999)
(0 0 0.0109478)
(0 0 0.0107949)
(0 0 0.0106414)
(0 0 0.0104873)
(0 0 0.0103327)
(0 0 0.0101774)
(0 0 0.0100216)
(0 0 0.00986527)
(0 0 0.00970845)
(0 0 0.00955115)
(0 0 0.00939341)
(0 0 0.00923523)
(0 0 0.00907665)
(0 0 0.00891767)
(0 0 0.00875832)
(0 0 0.00859861)
(0 0 0.00843857)
(0 0 0.00827821)
(0 0 0.00811754)
(0 0 0.00795659)
(0 0 0.00779537)
(0 0 0.00763388)
(0 0 0.00747216)
(0 0 0.0073102)
(0 0 0.00714802)
(0 0 0.00698564)
(0 0 0.00682307)
(0 0 0.00666031)
(0 0 0.00649739)
(0 0 0.0063343)
(0 0 0.00617106)
(0 0 0.00600768)
(0 0 0.00584417)
(0 0 0.00568054)
(0 0 0.00551679)
(0 0 0.00535293)
(0 0 0.00518897)
(0 0 0.00502492)
(0 0 0.00486078)
(0 0 0.00469657)
(0 0 0.00453227)
(0 0 0.00436791)
(0 0 0.00420349)
(0 0 0.004039)
(0 0 0.00387447)
(0 0 0.00370988)
(0 0 0.00354525)
(0 0 0.00338058)
(0 0 0.00321587)
(0 0 0.00305112)
(0 0 0.00288634)
(0 0 0.00272154)
(0 0 0.00255671)
(0 0 0.00239185)
(0 0 0.00222697)
(0 0 0.00206208)
(0 0 0.00189717)
(0 0 0.00173224)
(0 0 0.0015673)
(0 0 0.00140235)
(0 0 0.00123739)
(0 0 0.00107242)
(0 0 0.000907448)
(0 0 0.000742465)
(0 0 0.000577478)
(0 0 0.000412487)
(0 0 0.000247493)
(0 0 8.24979e-05)
(0 0 0.000120687)
(0 0 0.000362058)
(0 0 0.000603423)
(0 0 0.000844777)
(0 0 0.00108612)
(0 0 0.00132743)
(0 0 0.00156873)
(0 0 0.00180999)
(0 0 0.00205122)
(0 0 0.00229241)
(0 0 0.00253355)
(0 0 0.00277463)
(0 0 0.00301565)
(0 0 0.00325661)
(0 0 0.00349748)
(0 0 0.00373827)
(0 0 0.00397896)
(0 0 0.00421954)
(0 0 0.00446)
(0 0 0.00470033)
(0 0 0.00494051)
(0 0 0.00518054)
(0 0 0.00542039)
(0 0 0.00566005)
(0 0 0.0058995)
(0 0 0.00613873)
(0 0 0.0063777)
(0 0 0.00661642)
(0 0 0.00685484)
(0 0 0.00709295)
(0 0 0.00733072)
(0 0 0.00756813)
(0 0 0.00780515)
(0 0 0.00804175)
(0 0 0.0082779)
(0 0 0.00851357)
(0 0 0.00874872)
(0 0 0.00898332)
(0 0 0.00921734)
(0 0 0.00945074)
(0 0 0.00968347)
(0 0 0.0099155)
(0 0 0.0101468)
(0 0 0.0103773)
(0 0 0.0106069)
(0 0 0.0108357)
(0 0 0.0110636)
(0 0 0.0112904)
(0 0 0.0115162)
(0 0 0.011741)
(0 0 0.0119646)
(0 0 0.012187)
(0 0 0.0124081)
(0 0 0.0126279)
(0 0 0.0128464)
(0 0 0.0130634)
(0 0 0.0132789)
(0 0 0.0134928)
(0 0 0.0137051)
(0 0 0.0139157)
(0 0 0.0141245)
(0 0 0.0143315)
(0 0 0.0145366)
(0 0 0.0147397)
(0 0 0.0149407)
(0 0 0.0151396)
(0 0 0.0153363)
(0 0 0.0155308)
(0 0 0.0157228)
(0 0 0.0159125)
(0 0 0.0160997)
(0 0 0.0162842)
(0 0 0.0164662)
(0 0 0.0166454)
(0 0 0.0168218)
(0 0 0.0169953)
(0 0 0.0171659)
(0 0 0.0173335)
(0 0 0.0174979)
(0 0 0.0176592)
(0 0 0.0178172)
(0 0 0.017972)
(0 0 0.0181233)
(0 0 0.0182712)
(0 0 0.0184156)
(0 0 0.0185563)
(0 0 0.0186935)
(0 0 0.0188269)
(0 0 0.0189566)
(0 0 0.0190824)
(0 0 0.0192043)
(0 0 0.0193223)
(0 0 0.0194363)
(0 0 0.0195463)
(0 0 0.0196521)
(0 0 0.0197539)
(0 0 0.0198514)
(0 0 0.0199447)
(0 0 0.0200338)
(0 0 0.0201186)
(0 0 0.020199)
(0 0 0.0202751)
(0 0 0.0203469)
(0 0 0.0204142)
(0 0 0.0204771)
(0 0 0.0205356)
(0 0 0.0205896)
(0 0 0.0206392)
(0 0 0.0206843)
(0 0 0.0207249)
(0 0 0.020761)
(0 0 0.0207927)
(0 0 0.0208199)
(0 0 0.0208426)
(0 0 0.0208609)
(0 0 0.0208747)
(0 0 0.0208841)
(0 0 0.0208891)
(0 0 0.0208897)
(0 0 0.020886)
(0 0 0.0208779)
(0 0 0.0208655)
(0 0 0.0208489)
(0 0 0.020828)
(0 0 0.0208029)
(0 0 0.0207736)
(0 0 0.0207402)
(0 0 0.0207028)
(0 0 0.0206613)
(0 0 0.0206158)
(0 0 0.0205663)
(0 0 0.020513)
(0 0 0.0204558)
(0 0 0.0203948)
(0 0 0.0203301)
(0 0 0.0202617)
(0 0 0.0201897)
(0 0 0.0201141)
(0 0 0.020035)
(0 0 0.0199525)
(0 0 0.0198666)
(0 0 0.0197773)
(0 0 0.0196848)
(0 0 0.019589)
(0 0 0.0194902)
(0 0 0.0193882)
(0 0 0.0192833)
(0 0 0.0191753)
(0 0 0.0190645)
(0 0 0.0189509)
(0 0 0.0188345)
(0 0 0.0187154)
(0 0 0.0185936)
(0 0 0.0184693)
(0 0 0.0183425)
(0 0 0.0182132)
(0 0 0.0180815)
(0 0 0.0179476)
(0 0 0.0178113)
(0 0 0.0176728)
(0 0 0.0175322)
(0 0 0.0173895)
(0 0 0.0172448)
(0 0 0.0170981)
(0 0 0.0169494)
(0 0 0.016799)
(0 0 0.0166467)
(0 0 0.0164926)
(0 0 0.0163369)
(0 0 0.0161795)
(0 0 0.0160206)
(0 0 0.01586)
(0 0 0.015698)
(0 0 0.0155346)
(0 0 0.0153697)
(0 0 0.0152035)
(0 0 0.015036)
(0 0 0.0148673)
(0 0 0.0146973)
(0 0 0.0145262)
(0 0 0.0143539)
(0 0 0.0141806)
(0 0 0.0140062)
(0 0 0.0138307)
(0 0 0.0136544)
(0 0 0.013477)
(0 0 0.0132988)
(0 0 0.0131198)
(0 0 0.0129399)
(0 0 0.0127592)
(0 0 0.0125777)
(0 0 0.0123955)
(0 0 0.0122127)
(0 0 0.0120291)
(0 0 0.0118449)
(0 0 0.0116601)
(0 0 0.0114747)
(0 0 0.0112888)
(0 0 0.0111023)
(0 0 0.0109153)
(0 0 0.0107279)
(0 0 0.0105399)
(0 0 0.0103516)
(0 0 0.0101628)