/*--------------------------------*- C++ -*----------------------------------*\
| =========                 |                                                 |
| \\      /  F ield         | OpenFOAM: The Open Source CFD Toolbox           |
|  \\    /   O peration     | Version:  v2012                                 |
|   \\  /    A nd           | Website:  www.openfoam.com                      |
|    \\/     M anipulation  |                                                 |
\*---------------------------------------------------------------------------*/
FoamFile
{
    version     2.0;
    format      ascii;
    class       volVectorField;
    location    "7";
    object      U;
}
// * * * * * * * * * * * * * * * * * * * * * * * * * * * * * * * * * * * * * //

dimensions      [0 1 -1 0 0 0 0];


internalField   nonuniform List<vector> 
65536
(
(0.000756358 -0.000756351 0)
(0.00226906 -0.000756336 0)
(0.00378172 -0.000756307 0)
(0.0052943 -0.000756262 0)
(0.00680678 -0.000756202 0)
(0.00831913 -0.000756126 0)
(0.0098313 -0.000756033 0)
(0.0113433 -0.000755921 0)
(0.012855 -0.000755791 0)
(0.0143665 -0.00075564 0)
(0.0158776 -0.000755468 0)
(0.0173884 -0.000755272 0)
(0.0188987 -0.000755051 0)
(0.0204086 -0.000754804 0)
(0.0219179 -0.000754527 0)
(0.0234267 -0.00075422 0)
(0.0249349 -0.000753879 0)
(0.0264423 -0.000753502 0)
(0.0279489 -0.000753087 0)
(0.0294547 -0.00075263 0)
(0.0309595 -0.00075213 0)
(0.0324632 -0.000751582 0)
(0.0339658 -0.000750984 0)
(0.0354672 -0.000750332 0)
(0.0369672 -0.000749624 0)
(0.0384658 -0.000748854 0)
(0.0399627 -0.000748021 0)
(0.0414579 -0.000747119 0)
(0.0429513 -0.000746145 0)
(0.0444426 -0.000745095 0)
(0.0459317 -0.000743965 0)
(0.0474185 -0.000742751 0)
(0.0489028 -0.000741448 0)
(0.0503844 -0.000740052 0)
(0.0518631 -0.000738558 0)
(0.0533387 -0.000736962 0)
(0.0548111 -0.000735259 0)
(0.0562799 -0.000733444 0)
(0.057745 -0.000731513 0)
(0.0592061 -0.000729461 0)
(0.0606629 -0.000727283 0)
(0.0621153 -0.000724975 0)
(0.063563 -0.00072253 0)
(0.0650056 -0.000719945 0)
(0.0664429 -0.000717214 0)
(0.0678746 -0.000714333 0)
(0.0693004 -0.000711296 0)
(0.0707199 -0.000708099 0)
(0.0721329 -0.000704737 0)
(0.073539 -0.000701206 0)
(0.0749379 -0.0006975 0)
(0.0763292 -0.000693615 0)
(0.0777126 -0.000689547 0)
(0.0790876 -0.000685291 0)
(0.0804539 -0.000680842 0)
(0.0818112 -0.000676198 0)
(0.0831589 -0.000671353 0)
(0.0844968 -0.000666304 0)
(0.0858243 -0.000661047 0)
(0.0871412 -0.000655579 0)
(0.0884469 -0.000649897 0)
(0.089741 -0.000643996 0)
(0.0910231 -0.000637876 0)
(0.0922927 -0.000631532 0)
(0.0935494 -0.000624963 0)
(0.0947928 -0.000618166 0)
(0.0960223 -0.00061114 0)
(0.0972376 -0.000603883 0)
(0.0984381 -0.000596394 0)
(0.0996234 -0.000588672 0)
(0.100793 -0.000580717 0)
(0.101946 -0.000572527 0)
(0.103083 -0.000564104 0)
(0.104203 -0.000555447 0)
(0.105305 -0.000546557 0)
(0.10639 -0.000537436 0)
(0.107455 -0.000528084 0)
(0.108502 -0.000518504 0)
(0.10953 -0.000508698 0)
(0.110537 -0.000498668 0)
(0.111524 -0.000488418 0)
(0.112491 -0.000477949 0)
(0.113436 -0.000467268 0)
(0.11436 -0.000456376 0)
(0.115262 -0.000445279 0)
(0.116142 -0.000433981 0)
(0.116998 -0.000422488 0)
(0.117832 -0.000410805 0)
(0.118642 -0.000398937 0)
(0.119428 -0.000386891 0)
(0.120189 -0.000374673 0)
(0.120927 -0.00036229 0)
(0.121639 -0.000349749 0)
(0.122326 -0.000337057 0)
(0.122987 -0.000324221 0)
(0.123623 -0.000311251 0)
(0.124232 -0.000298152 0)
(0.124815 -0.000284934 0)
(0.125372 -0.000271606 0)
(0.125902 -0.000258175 0)
(0.126405 -0.000244651 0)
(0.126881 -0.000231042 0)
(0.127329 -0.000217357 0)
(0.12775 -0.000203607 0)
(0.128144 -0.000189799 0)
(0.128509 -0.000175943 0)
(0.128847 -0.000162049 0)
(0.129158 -0.000148126 0)
(0.12944 -0.000134182 0)
(0.129694 -0.000120229 0)
(0.129921 -0.000106274 0)
(0.130119 -9.23266e-05 0)
(0.13029 -7.83968e-05 0)
(0.130433 -6.44932e-05 0)
(0.130548 -5.06247e-05 0)
(0.130635 -3.68001e-05 0)
(0.130695 -2.30282e-05 0)
(0.130728 -9.31741e-06 0)
(0.130732 4.32398e-06 0)
(0.13071 1.78878e-05 0)
(0.130661 3.13662e-05 0)
(0.130585 4.47514e-05 0)
(0.130482 5.80361e-05 0)
(0.130352 7.12129e-05 0)
(0.130197 8.42748e-05 0)
(0.130015 9.72153e-05 0)
(0.129808 0.000110028 0)
(0.129575 0.000122706 0)
(0.129317 0.000135245 0)
(0.129034 0.000147638 0)
(0.128726 0.00015988 0)
(0.128394 0.000171966 0)
(0.128038 0.000183892 0)
(0.127658 0.000195653 0)
(0.127255 0.000207245 0)
(0.126829 0.000218663 0)
(0.12638 0.000229906 0)
(0.125909 0.000240969 0)
(0.125416 0.000251849 0)
(0.124902 0.000262545 0)
(0.124366 0.000273053 0)
(0.123809 0.000283371 0)
(0.123232 0.000293498 0)
(0.122635 0.000303433 0)
(0.122018 0.000313173 0)
(0.121382 0.000322718 0)
(0.120727 0.000332067 0)
(0.120054 0.00034122 0)
(0.119362 0.000350177 0)
(0.118653 0.000358937 0)
(0.117926 0.0003675 0)
(0.117183 0.000375868 0)
(0.116423 0.00038404 0)
(0.115646 0.000392017 0)
(0.114854 0.000399801 0)
(0.114047 0.000407392 0)
(0.113225 0.000414792 0)
(0.112388 0.000422002 0)
(0.111536 0.000429025 0)
(0.110671 0.000435861 0)
(0.109793 0.000442512 0)
(0.108901 0.000448981 0)
(0.107997 0.00045527 0)
(0.10708 0.00046138 0)
(0.106151 0.000467315 0)
(0.10521 0.000473077 0)
(0.104259 0.000478668 0)
(0.103296 0.000484091 0)
(0.102322 0.000489349 0)
(0.101338 0.000494443 0)
(0.100344 0.000499378 0)
(0.0993404 0.000504156 0)
(0.0983273 0.000508779 0)
(0.0973051 0.000513251 0)
(0.0962742 0.000517575 0)
(0.0952347 0.000521753 0)
(0.094187 0.000525789 0)
(0.0931314 0.000529686 0)
(0.0920681 0.000533446 0)
(0.0909975 0.000537072 0)
(0.0899197 0.000540569 0)
(0.0888351 0.000543938 0)
(0.0877438 0.000547183 0)
(0.0866462 0.000550306 0)
(0.0855425 0.000553312 0)
(0.0844329 0.000556202 0)
(0.0833176 0.000558979 0)
(0.0821969 0.000561648 0)
(0.0810709 0.00056421 0)
(0.0799399 0.000566668 0)
(0.0788041 0.000569026 0)
(0.0776637 0.000571286 0)
(0.0765189 0.000573451 0)
(0.0753698 0.000575523 0)
(0.0742167 0.000577507 0)
(0.0730597 0.000579403 0)
(0.071899 0.000581215 0)
(0.0707348 0.000582946 0)
(0.0695671 0.000584598 0)
(0.0683963 0.000586173 0)
(0.0672224 0.000587675 0)
(0.0660455 0.000589105 0)
(0.0648659 0.000590466 0)
(0.0636836 0.000591761 0)
(0.0624988 0.000592991 0)
(0.0613116 0.00059416 0)
(0.0601221 0.000595269 0)
(0.0589304 0.00059632 0)
(0.0577367 0.000597316 0)
(0.0565411 0.000598259 0)
(0.0553437 0.000599151 0)
(0.0541445 0.000599993 0)
(0.0529436 0.000600788 0)
(0.0517413 0.000601539 0)
(0.0505374 0.000602245 0)
(0.0493322 0.000602911 0)
(0.0481258 0.000603536 0)
(0.0469181 0.000604124 0)
(0.0457092 0.000604676 0)
(0.0444993 0.000605192 0)
(0.0432884 0.000605676 0)
(0.0420766 0.000606129 0)
(0.0408639 0.000606552 0)
(0.0396504 0.000606946 0)
(0.0384361 0.000607314 0)
(0.0372211 0.000607655 0)
(0.0360054 0.000607973 0)
(0.0347892 0.000608268 0)
(0.0335723 0.000608541 0)
(0.032355 0.000608794 0)
(0.0311371 0.000609027 0)
(0.0299189 0.000609243 0)
(0.0287002 0.000609441 0)
(0.0274811 0.000609623 0)
(0.0262616 0.00060979 0)
(0.0250419 0.000609943 0)
(0.0238219 0.000610083 0)
(0.0226016 0.000610211 0)
(0.021381 0.000610327 0)
(0.0201602 0.000610433 0)
(0.0189393 0.000610528 0)
(0.0177181 0.000610614 0)
(0.0164968 0.000610692 0)
(0.0152753 0.000610761 0)
(0.0140537 0.000610823 0)
(0.012832 0.000610878 0)
(0.0116102 0.000610927 0)
(0.0103883 0.000610969 0)
(0.00916634 0.000611006 0)
(0.0079443 0.000611037 0)
(0.00672219 0.000611064 0)
(0.00550004 0.000611085 0)
(0.00427785 0.000611102 0)
(0.00305563 0.000611115 0)
(0.00183338 0.000611123 0)
(0.000611129 0.000611127 0)
(0.000756373 -0.00226907 0)
(0.0022691 -0.00226902 0)
(0.00378179 -0.00226894 0)
(0.00529441 -0.0022688 0)
(0.00680692 -0.00226862 0)
(0.0083193 -0.00226839 0)
(0.00983151 -0.00226812 0)
(0.0113435 -0.00226778 0)
(0.0128553 -0.00226739 0)
(0.0143668 -0.00226694 0)
(0.015878 -0.00226643 0)
(0.0173888 -0.00226584 0)
(0.0188992 -0.00226518 0)
(0.0204091 -0.00226444 0)
(0.0219185 -0.00226361 0)
(0.0234274 -0.00226269 0)
(0.0249356 -0.00226167 0)
(0.0264431 -0.00226054 0)
(0.0279498 -0.0022593 0)
(0.0294556 -0.00225793 0)
(0.0309605 -0.00225644 0)
(0.0324644 -0.0022548 0)
(0.0339671 -0.00225301 0)
(0.0354686 -0.00225105 0)
(0.0369687 -0.00224893 0)
(0.0384674 -0.00224663 0)
(0.0399644 -0.00224413 0)
(0.0414598 -0.00224143 0)
(0.0429533 -0.00223851 0)
(0.0444447 -0.00223537 0)
(0.0459341 -0.00223198 0)
(0.047421 -0.00222834 0)
(0.0489055 -0.00222444 0)
(0.0503873 -0.00222025 0)
(0.0518662 -0.00221577 0)
(0.053342 -0.00221099 0)
(0.0548146 -0.00220589 0)
(0.0562836 -0.00220045 0)
(0.0577489 -0.00219466 0)
(0.0592103 -0.00218851 0)
(0.0606674 -0.00218198 0)
(0.0621201 -0.00217506 0)
(0.063568 -0.00216773 0)
(0.0650109 -0.00215998 0)
(0.0664485 -0.00215179 0)
(0.0678805 -0.00214315 0)
(0.0693066 -0.00213405 0)
(0.0707265 -0.00212446 0)
(0.0721398 -0.00211438 0)
(0.0735463 -0.00210379 0)
(0.0749455 -0.00209268 0)
(0.0763372 -0.00208103 0)
(0.0777209 -0.00206883 0)
(0.0790963 -0.00205606 0)
(0.080463 -0.00204272 0)
(0.0818206 -0.00202879 0)
(0.0831688 -0.00201426 0)
(0.0845071 -0.00199912 0)
(0.085835 -0.00198335 0)
(0.0871523 -0.00196695 0)
(0.0884584 -0.00194991 0)
(0.089753 -0.00193221 0)
(0.0910355 -0.00191385 0)
(0.0923056 -0.00189482 0)
(0.0935628 -0.00187511 0)
(0.0948066 -0.00185473 0)
(0.0960366 -0.00183365 0)
(0.0972523 -0.00181188 0)
(0.0984533 -0.00178941 0)
(0.099639 -0.00176625 0)
(0.100809 -0.00174238 0)
(0.101963 -0.00171781 0)
(0.1031 -0.00169254 0)
(0.104221 -0.00166657 0)
(0.105323 -0.0016399 0)
(0.106408 -0.00161254 0)
(0.107474 -0.00158448 0)
(0.108522 -0.00155574 0)
(0.109549 -0.00152632 0)
(0.110557 -0.00149622 0)
(0.111545 -0.00146547 0)
(0.112512 -0.00143406 0)
(0.113458 -0.00140201 0)
(0.114382 -0.00136933 0)
(0.115285 -0.00133604 0)
(0.116164 -0.00130214 0)
(0.117021 -0.00126765 0)
(0.117855 -0.0012326 0)
(0.118666 -0.00119699 0)
(0.119452 -0.00116084 0)
(0.120214 -0.00112418 0)
(0.120951 -0.00108703 0)
(0.121664 -0.0010494 0)
(0.122351 -0.00101131 0)
(0.123013 -0.000972799 0)
(0.123649 -0.000933878 0)
(0.124259 -0.000894575 0)
(0.124842 -0.000854913 0)
(0.125399 -0.000814919 0)
(0.125929 -0.000774618 0)
(0.126432 -0.000734036 0)
(0.126908 -0.0006932 0)
(0.127357 -0.000652138 0)
(0.127778 -0.000610877 0)
(0.128171 -0.000569444 0)
(0.128537 -0.000527868 0)
(0.128875 -0.000486176 0)
(0.129185 -0.000444396 0)
(0.129468 -0.000402557 0)
(0.129722 -0.000360687 0)
(0.129949 -0.000318813 0)
(0.130147 -0.000276963 0)
(0.130318 -0.000235164 0)
(0.130461 -0.000193444 0)
(0.130576 -0.00015183 0)
(0.130663 -0.000110348 0)
(0.130723 -6.90237e-05 0)
(0.130755 -2.7883e-05 0)
(0.13076 1.30493e-05 0)
(0.130737 5.37487e-05 0)
(0.130688 9.41915e-05 0)
(0.130611 0.000134355 0)
(0.130508 0.000174216 0)
(0.130379 0.000213753 0)
(0.130223 0.000252946 0)
(0.130041 0.000291773 0)
(0.129833 0.000330217 0)
(0.1296 0.000368259 0)
(0.129342 0.00040588 0)
(0.129058 0.000443064 0)
(0.12875 0.000479795 0)
(0.128418 0.000516059 0)
(0.128062 0.00055184 0)
(0.127682 0.000587127 0)
(0.127278 0.000621906 0)
(0.126852 0.000656166 0)
(0.126403 0.000689897 0)
(0.125931 0.000723089 0)
(0.125438 0.000755733 0)
(0.124923 0.000787821 0)
(0.124387 0.000819347 0)
(0.12383 0.000850304 0)
(0.123252 0.000880687 0)
(0.122655 0.000910491 0)
(0.122038 0.000939712 0)
(0.121401 0.000968349 0)
(0.120746 0.000996397 0)
(0.120072 0.00102386 0)
(0.11938 0.00105073 0)
(0.11867 0.00107701 0)
(0.117943 0.0011027 0)
(0.117199 0.0011278 0)
(0.116439 0.00115231 0)
(0.115662 0.00117624 0)
(0.11487 0.00119959 0)
(0.114062 0.00122237 0)
(0.113239 0.00124457 0)
(0.112402 0.00126619 0)
(0.11155 0.00128726 0)
(0.110685 0.00130776 0)
(0.109806 0.00132772 0)
(0.108914 0.00134712 0)
(0.108009 0.00136599 0)
(0.107092 0.00138432 0)
(0.106163 0.00140212 0)
(0.105222 0.0014194 0)
(0.10427 0.00143617 0)
(0.103306 0.00145244 0)
(0.102332 0.00146821 0)
(0.101348 0.00148349 0)
(0.100354 0.00149829 0)
(0.0993498 0.00151262 0)
(0.0983364 0.00152649 0)
(0.0973139 0.0015399 0)
(0.0962827 0.00155287 0)
(0.0952429 0.0015654 0)
(0.0941949 0.00157751 0)
(0.093139 0.00158919 0)
(0.0920755 0.00160047 0)
(0.0910046 0.00161135 0)
(0.0899266 0.00162183 0)
(0.0888417 0.00163194 0)
(0.0877502 0.00164167 0)
(0.0866524 0.00165104 0)
(0.0855484 0.00166005 0)
(0.0844385 0.00166872 0)
(0.083323 0.00167705 0)
(0.0822021 0.00168505 0)
(0.0810759 0.00169273 0)
(0.0799447 0.0017001 0)
(0.0788087 0.00170717 0)
(0.0776681 0.00171395 0)
(0.0765231 0.00172044 0)
(0.0753739 0.00172666 0)
(0.0742206 0.00173261 0)
(0.0730634 0.00173829 0)
(0.0719025 0.00174373 0)
(0.0707381 0.00174892 0)
(0.0695704 0.00175387 0)
(0.0683994 0.00175859 0)
(0.0672253 0.00176309 0)
(0.0660483 0.00176738 0)
(0.0648685 0.00177146 0)
(0.0636861 0.00177535 0)
(0.0625012 0.00177904 0)
(0.0613138 0.00178254 0)
(0.0601242 0.00178586 0)
(0.0589325 0.00178902 0)
(0.0577387 0.001792 0)
(0.0565429 0.00179483 0)
(0.0553454 0.0017975 0)
(0.0541461 0.00180003 0)
(0.0529452 0.00180241 0)
(0.0517427 0.00180466 0)
(0.0505388 0.00180678 0)
(0.0493335 0.00180877 0)
(0.048127 0.00181065 0)
(0.0469192 0.00181241 0)
(0.0457103 0.00181406 0)
(0.0445003 0.00181561 0)
(0.0432894 0.00181706 0)
(0.0420775 0.00181842 0)
(0.0408647 0.00181968 0)
(0.0396511 0.00182087 0)
(0.0384368 0.00182197 0)
(0.0372217 0.00182299 0)
(0.036006 0.00182394 0)
(0.0347897 0.00182483 0)
(0.0335729 0.00182564 0)
(0.0323555 0.0018264 0)
(0.0311376 0.0018271 0)
(0.0299193 0.00182774 0)
(0.0287005 0.00182834 0)
(0.0274814 0.00182888 0)
(0.026262 0.00182938 0)
(0.0250422 0.00182984 0)
(0.0238221 0.00183026 0)
(0.0226018 0.00183064 0)
(0.0213812 0.00183099 0)
(0.0201604 0.00183131 0)
(0.0189394 0.00183159 0)
(0.0177183 0.00183185 0)
(0.0164969 0.00183208 0)
(0.0152755 0.00183229 0)
(0.0140539 0.00183248 0)
(0.0128321 0.00183264 0)
(0.0116103 0.00183279 0)
(0.0103884 0.00183291 0)
(0.00916641 0.00183302 0)
(0.00794435 0.00183312 0)
(0.00672224 0.0018332 0)
(0.00550008 0.00183326 0)
(0.00427788 0.00183331 0)
(0.00305565 0.00183335 0)
(0.0018334 0.00183337 0)
(0.000611133 0.00183339 0)
(0.000756402 -0.00378183 0)
(0.00226919 -0.00378176 0)
(0.00378194 -0.00378161 0)
(0.00529461 -0.00378139 0)
(0.00680719 -0.00378109 0)
(0.00831963 -0.00378071 0)
(0.00983191 -0.00378025 0)
(0.011344 -0.0037797 0)
(0.0128558 -0.00377905 0)
(0.0143674 -0.00377831 0)
(0.0158787 -0.00377745 0)
(0.0173896 -0.00377648 0)
(0.0189001 -0.00377539 0)
(0.0204101 -0.00377416 0)
(0.0219197 -0.00377279 0)
(0.0234287 -0.00377127 0)
(0.024937 -0.00376957 0)
(0.0264446 -0.0037677 0)
(0.0279515 -0.00376564 0)
(0.0294575 -0.00376337 0)
(0.0309626 -0.00376088 0)
(0.0324667 -0.00375816 0)
(0.0339696 -0.00375519 0)
(0.0354713 -0.00375195 0)
(0.0369716 -0.00374842 0)
(0.0384706 -0.00374459 0)
(0.0399679 -0.00374044 0)
(0.0414635 -0.00373595 0)
(0.0429573 -0.0037311 0)
(0.0444491 -0.00372588 0)
(0.0459387 -0.00372025 0)
(0.0474261 -0.0037142 0)
(0.0489109 -0.0037077 0)
(0.0503931 -0.00370074 0)
(0.0518724 -0.0036933 0)
(0.0533486 -0.00368534 0)
(0.0548216 -0.00367685 0)
(0.0562911 -0.0036678 0)
(0.0577569 -0.00365817 0)
(0.0592187 -0.00364793 0)
(0.0606764 -0.00363707 0)
(0.0621296 -0.00362555 0)
(0.063578 -0.00361335 0)
(0.0650215 -0.00360045 0)
(0.0664597 -0.00358682 0)
(0.0678923 -0.00357244 0)
(0.069319 -0.00355728 0)
(0.0707396 -0.00354132 0)
(0.0721536 -0.00352453 0)
(0.0735607 -0.0035069 0)
(0.0749607 -0.00348839 0)
(0.0763531 -0.00346899 0)
(0.0777375 -0.00344867 0)
(0.0791137 -0.00342741 0)
(0.0804812 -0.00340519 0)
(0.0818396 -0.00338199 0)
(0.0831886 -0.00335778 0)
(0.0845277 -0.00333256 0)
(0.0858565 -0.00330629 0)
(0.0871746 -0.00327897 0)
(0.0884816 -0.00325057 0)
(0.089777 -0.00322108 0)
(0.0910604 -0.00319049 0)
(0.0923314 -0.00315878 0)
(0.0935895 -0.00312595 0)
(0.0948342 -0.00309198 0)
(0.0960651 -0.00305685 0)
(0.0972818 -0.00302057 0)
(0.0984837 -0.00298313 0)
(0.0996704 -0.00294453 0)
(0.100841 -0.00290475 0)
(0.101996 -0.0028638 0)
(0.103135 -0.00282168 0)
(0.104256 -0.0027784 0)
(0.105359 -0.00273394 0)
(0.106445 -0.00268833 0)
(0.107512 -0.00264156 0)
(0.10856 -0.00259365 0)
(0.109589 -0.00254461 0)
(0.110598 -0.00249444 0)
(0.111587 -0.00244317 0)
(0.112554 -0.00239081 0)
(0.113501 -0.00233739 0)
(0.114426 -0.00228291 0)
(0.115329 -0.0022274 0)
(0.11621 -0.00217088 0)
(0.117068 -0.00211339 0)
(0.117902 -0.00205494 0)
(0.118713 -0.00199558 0)
(0.119501 -0.00193531 0)
(0.120263 -0.00187419 0)
(0.121001 -0.00181224 0)
(0.121714 -0.0017495 0)
(0.122402 -0.001686 0)
(0.123065 -0.00162178 0)
(0.123701 -0.00155689 0)
(0.124311 -0.00149136 0)
(0.124895 -0.00142522 0)
(0.125452 -0.00135854 0)
(0.125983 -0.00129134 0)
(0.126486 -0.00122367 0)
(0.126963 -0.00115559 0)
(0.127411 -0.00108712 0)
(0.127833 -0.00101832 0)
(0.128227 -0.000949233 0)
(0.128593 -0.000879908 0)
(0.128931 -0.00081039 0)
(0.129241 -0.000740727 0)
(0.129524 -0.000670964 0)
(0.129778 -0.000601149 0)
(0.130005 -0.000531328 0)
(0.130203 -0.000461547 0)
(0.130374 -0.000391853 0)
(0.130516 -0.00032229 0)
(0.130631 -0.000252904 0)
(0.130718 -0.000183738 0)
(0.130778 -0.000114836 0)
(0.13081 -4.62401e-05 0)
(0.130814 2.20074e-05 0)
(0.130791 8.98661e-05 0)
(0.130741 0.000157296 0)
(0.130665 0.00022426 0)
(0.130561 0.000290719 0)
(0.130431 0.000356638 0)
(0.130275 0.000421981 0)
(0.130092 0.000486716 0)
(0.129884 0.000550809 0)
(0.129651 0.000614231 0)
(0.129392 0.000676951 0)
(0.129108 0.000738943 0)
(0.128799 0.000800178 0)
(0.128466 0.000860633 0)
(0.128109 0.000920284 0)
(0.127728 0.000979108 0)
(0.127324 0.00103709 0)
(0.126897 0.0010942 0)
(0.126447 0.00115043 0)
(0.125975 0.00120576 0)
(0.125481 0.00126017 0)
(0.124965 0.00131366 0)
(0.124428 0.00136621 0)
(0.123871 0.00141781 0)
(0.123293 0.00146845 0)
(0.122694 0.00151813 0)
(0.122076 0.00156684 0)
(0.121439 0.00161457 0)
(0.120783 0.00166132 0)
(0.120108 0.00170708 0)
(0.119415 0.00175187 0)
(0.118705 0.00179566 0)
(0.117977 0.00183848 0)
(0.117232 0.00188031 0)
(0.116471 0.00192117 0)
(0.115694 0.00196105 0)
(0.114901 0.00199997 0)
(0.114092 0.00203791 0)
(0.113268 0.00207491 0)
(0.11243 0.00211095 0)
(0.111578 0.00214605 0)
(0.110712 0.00218022 0)
(0.109832 0.00221347 0)
(0.108939 0.0022458 0)
(0.108034 0.00227724 0)
(0.107116 0.00230778 0)
(0.106186 0.00233744 0)
(0.105245 0.00236624 0)
(0.104292 0.00239418 0)
(0.103328 0.00242128 0)
(0.102353 0.00244755 0)
(0.101368 0.00247301 0)
(0.100373 0.00249767 0)
(0.0993686 0.00252155 0)
(0.0983546 0.00254465 0)
(0.0973315 0.002567 0)
(0.0962997 0.0025886 0)
(0.0952593 0.00260948 0)
(0.0942108 0.00262964 0)
(0.0931544 0.00264911 0)
(0.0920903 0.00266789 0)
(0.0910188 0.00268601 0)
(0.0899403 0.00270348 0)
(0.0888549 0.00272031 0)
(0.0877629 0.00273652 0)
(0.0866646 0.00275212 0)
(0.0855602 0.00276713 0)
(0.0844499 0.00278157 0)
(0.0833339 0.00279544 0)
(0.0822125 0.00280877 0)
(0.0810859 0.00282156 0)
(0.0799543 0.00283384 0)
(0.078818 0.00284562 0)
(0.077677 0.0028569 0)
(0.0765316 0.00286771 0)
(0.075382 0.00287806 0)
(0.0742283 0.00288797 0)
(0.0730708 0.00289743 0)
(0.0719096 0.00290648 0)
(0.0707449 0.00291512 0)
(0.0695768 0.00292337 0)
(0.0684055 0.00293123 0)
(0.0672312 0.00293873 0)
(0.0660539 0.00294587 0)
(0.0648738 0.00295266 0)
(0.0636912 0.00295912 0)
(0.062506 0.00296527 0)
(0.0613184 0.0029711 0)
(0.0601285 0.00297663 0)
(0.0589366 0.00298188 0)
(0.0577426 0.00298685 0)
(0.0565466 0.00299155 0)
(0.0553489 0.002996 0)
(0.0541494 0.0030002 0)
(0.0529483 0.00300417 0)
(0.0517456 0.00300791 0)
(0.0505416 0.00301143 0)
(0.0493361 0.00301475 0)
(0.0481294 0.00301787 0)
(0.0469215 0.0030208 0)
(0.0457124 0.00302355 0)
(0.0445023 0.00302613 0)
(0.0432912 0.00302854 0)
(0.0420792 0.00303079 0)
(0.0408663 0.0030329 0)
(0.0396526 0.00303486 0)
(0.0384382 0.0030367 0)
(0.037223 0.0030384 0)
(0.0360073 0.00303998 0)
(0.0347909 0.00304145 0)
(0.0335739 0.00304281 0)
(0.0323564 0.00304406 0)
(0.0311385 0.00304523 0)
(0.0299201 0.0030463 0)
(0.0287013 0.00304728 0)
(0.0274821 0.00304819 0)
(0.0262626 0.00304902 0)
(0.0250428 0.00304978 0)
(0.0238227 0.00305048 0)
(0.0226023 0.00305111 0)
(0.0213817 0.00305169 0)
(0.0201608 0.00305221 0)
(0.0189398 0.00305269 0)
(0.0177186 0.00305311 0)
(0.0164972 0.0030535 0)
(0.0152757 0.00305384 0)
(0.0140541 0.00305415 0)
(0.0128323 0.00305442 0)
(0.0116105 0.00305466 0)
(0.0103886 0.00305487 0)
(0.00916655 0.00305506 0)
(0.00794447 0.00305521 0)
(0.00672233 0.00305534 0)
(0.00550015 0.00305545 0)
(0.00427793 0.00305553 0)
(0.00305569 0.00305559 0)
(0.00183342 0.00305564 0)
(0.000611142 0.00305566 0)
(0.000756445 -0.00529466 0)
(0.00226932 -0.00529456 0)
(0.00378216 -0.00529436 0)
(0.00529492 -0.00529405 0)
(0.00680759 -0.00529364 0)
(0.00832013 -0.00529312 0)
(0.00983252 -0.00529248 0)
(0.0113447 -0.00529171 0)
(0.0128567 -0.00529082 0)
(0.0143684 -0.00528978 0)
(0.0158798 -0.0052886 0)
(0.0173908 -0.00528725 0)
(0.0189015 -0.00528573 0)
(0.0204117 -0.00528403 0)
(0.0219214 -0.00528212 0)
(0.0234306 -0.00528 0)
(0.0249391 -0.00527765 0)
(0.026447 -0.00527505 0)
(0.0279541 -0.00527218 0)
(0.0294604 -0.00526903 0)
(0.0309657 -0.00526557 0)
(0.0324701 -0.00526178 0)
(0.0339733 -0.00525764 0)
(0.0354753 -0.00525312 0)
(0.036976 -0.00524821 0)
(0.0384753 -0.00524288 0)
(0.0399731 -0.00523709 0)
(0.0414691 -0.00523084 0)
(0.0429633 -0.00522408 0)
(0.0444556 -0.00521679 0)
(0.0459457 -0.00520894 0)
(0.0474336 -0.0052005 0)
(0.0489189 -0.00519144 0)
(0.0504017 -0.00518173 0)
(0.0518816 -0.00517133 0)
(0.0533585 -0.00516023 0)
(0.0548321 -0.00514837 0)
(0.0563023 -0.00513574 0)
(0.0577688 -0.00512229 0)
(0.0592314 -0.00510799 0)
(0.0606898 -0.00509281 0)
(0.0621438 -0.00507672 0)
(0.0635931 -0.00505968 0)
(0.0650374 -0.00504165 0)
(0.0664765 -0.0050226 0)
(0.06791 -0.0050025 0)
(0.0693377 -0.00498131 0)
(0.0707592 -0.004959 0)
(0.0721742 -0.00493553 0)
(0.0735824 -0.00491088 0)
(0.0749834 -0.004885 0)
(0.0763769 -0.00485787 0)
(0.0777625 -0.00482946 0)
(0.0791398 -0.00479972 0)
(0.0805084 -0.00476864 0)
(0.081868 -0.00473619 0)
(0.0832182 -0.00470233 0)
(0.0845586 -0.00466703 0)
(0.0858886 -0.00463029 0)
(0.087208 -0.00459206 0)
(0.0885163 -0.00455232 0)
(0.0898131 -0.00451106 0)
(0.0910978 -0.00446825 0)
(0.0923702 -0.00442388 0)
(0.0936296 -0.00437792 0)
(0.0948757 -0.00433037 0)
(0.096108 -0.00428121 0)
(0.097326 -0.00423043 0)
(0.0985293 -0.00417802 0)
(0.0997174 -0.00412398 0)
(0.10089 -0.00406829 0)
(0.102046 -0.00401096 0)
(0.103186 -0.00395199 0)
(0.104308 -0.00389138 0)
(0.105413 -0.00382914 0)
(0.1065 -0.00376527 0)
(0.107569 -0.00369979 0)
(0.108619 -0.0036327 0)
(0.109649 -0.00356402 0)
(0.110659 -0.00349377 0)
(0.111649 -0.00342197 0)
(0.112618 -0.00334864 0)
(0.113566 -0.00327381 0)
(0.114492 -0.00319751 0)
(0.115397 -0.00311976 0)
(0.116278 -0.00304061 0)
(0.117137 -0.00296008 0)
(0.117973 -0.00287821 0)
(0.118785 -0.00279506 0)
(0.119573 -0.00271064 0)
(0.120337 -0.00262502 0)
(0.121076 -0.00253825 0)
(0.12179 -0.00245035 0)
(0.122479 -0.0023614 0)
(0.123142 -0.00227145 0)
(0.123779 -0.00218054 0)
(0.12439 -0.00208873 0)
(0.124975 -0.00199609 0)
(0.125533 -0.00190267 0)
(0.126064 -0.00180853 0)
(0.126568 -0.00171374 0)
(0.127045 -0.00161835 0)
(0.127494 -0.00152243 0)
(0.127916 -0.00142605 0)
(0.12831 -0.00132926 0)
(0.128676 -0.00123214 0)
(0.129014 -0.00113475 0)
(0.129325 -0.00103716 0)
(0.129607 -0.000939423 0)
(0.129862 -0.000841617 0)
(0.130088 -0.000743802 0)
(0.130287 -0.000646045 0)
(0.130457 -0.00054841 0)
(0.1306 -0.000450959 0)
(0.130714 -0.000353756 0)
(0.130801 -0.000256864 0)
(0.13086 -0.000160341 0)
(0.130892 -6.42491e-05 0)
(0.130896 3.13544e-05 0)
(0.130873 0.000126412 0)
(0.130822 0.000220868 0)
(0.130745 0.00031467 0)
(0.130641 0.000407763 0)
(0.13051 0.000500098 0)
(0.130353 0.000591626 0)
(0.13017 0.000682299 0)
(0.129961 0.000772073 0)
(0.129726 0.000860905 0)
(0.129466 0.000948752 0)
(0.129182 0.00103558 0)
(0.128872 0.00112134 0)
(0.128538 0.00120601 0)
(0.12818 0.00128955 0)
(0.127799 0.00137194 0)
(0.127393 0.00145313 0)
(0.126965 0.00153311 0)
(0.126514 0.00161186 0)
(0.126041 0.00168934 0)
(0.125546 0.00176554 0)
(0.125029 0.00184044 0)
(0.124491 0.00191402 0)
(0.123932 0.00198628 0)
(0.123353 0.00205719 0)
(0.122753 0.00212674 0)
(0.122134 0.00219494 0)
(0.121496 0.00226177 0)
(0.120838 0.00232722 0)
(0.120163 0.00239129 0)
(0.119469 0.00245399 0)
(0.118757 0.00251531 0)
(0.118028 0.00257525 0)
(0.117282 0.00263381 0)
(0.11652 0.002691 0)
(0.115741 0.00274683 0)
(0.114947 0.0028013 0)
(0.114137 0.00285442 0)
(0.113312 0.0029062 0)
(0.112473 0.00295665 0)
(0.11162 0.00300578 0)
(0.110752 0.0030536 0)
(0.109872 0.00310014 0)
(0.108978 0.00314539 0)
(0.108071 0.00318938 0)
(0.107152 0.00323212 0)
(0.106221 0.00327363 0)
(0.105279 0.00331393 0)
(0.104325 0.00335303 0)
(0.10336 0.00339095 0)
(0.102384 0.00342772 0)
(0.101398 0.00346334 0)
(0.100402 0.00349784 0)
(0.0993968 0.00353125 0)
(0.0983819 0.00356357 0)
(0.0973579 0.00359483 0)
(0.0963251 0.00362506 0)
(0.0952839 0.00365426 0)
(0.0942346 0.00368247 0)
(0.0931773 0.00370971 0)
(0.0921124 0.00373598 0)
(0.0910402 0.00376133 0)
(0.0899609 0.00378576 0)
(0.0888747 0.0038093 0)
(0.087782 0.00383197 0)
(0.086683 0.0038538 0)
(0.0855778 0.00387479 0)
(0.0844668 0.00389498 0)
(0.0833502 0.00391438 0)
(0.0822282 0.00393302 0)
(0.081101 0.00395092 0)
(0.0799688 0.00396808 0)
(0.0788318 0.00398455 0)
(0.0776902 0.00400033 0)
(0.0765443 0.00401544 0)
(0.0753941 0.00402991 0)
(0.0742399 0.00404376 0)
(0.0730819 0.004057 0)
(0.0719202 0.00406964 0)
(0.070755 0.00408172 0)
(0.0695865 0.00409325 0)
(0.0684147 0.00410424 0)
(0.0672399 0.00411472 0)
(0.0660622 0.0041247 0)
(0.0648818 0.00413419 0)
(0.0636987 0.00414322 0)
(0.0625131 0.00415181 0)
(0.0613252 0.00415995 0)
(0.060135 0.00416768 0)
(0.0589427 0.00417501 0)
(0.0577483 0.00418196 0)
(0.0565521 0.00418853 0)
(0.055354 0.00419474 0)
(0.0541543 0.00420061 0)
(0.0529529 0.00420615 0)
(0.05175 0.00421137 0)
(0.0505457 0.0042163 0)
(0.04934 0.00422093 0)
(0.048133 0.00422528 0)
(0.0469249 0.00422937 0)
(0.0457156 0.00423321 0)
(0.0445053 0.00423681 0)
(0.043294 0.00424017 0)
(0.0420818 0.00424332 0)
(0.0408688 0.00424626 0)
(0.0396549 0.004249 0)
(0.0384403 0.00425155 0)
(0.037225 0.00425393 0)
(0.0360091 0.00425613 0)
(0.0347926 0.00425818 0)
(0.0335755 0.00426007 0)
(0.0323579 0.00426183 0)
(0.0311398 0.00426344 0)
(0.0299213 0.00426494 0)
(0.0287024 0.00426631 0)
(0.0274832 0.00426757 0)
(0.0262636 0.00426873 0)
(0.0250436 0.00426979 0)
(0.0238235 0.00427075 0)
(0.022603 0.00427164 0)
(0.0213823 0.00427244 0)
(0.0201614 0.00427317 0)
(0.0189403 0.00427383 0)
(0.0177191 0.00427442 0)
(0.0164977 0.00427495 0)
(0.0152761 0.00427543 0)
(0.0140544 0.00427586 0)
(0.0128327 0.00427624 0)
(0.0116108 0.00427657 0)
(0.0103888 0.00427686 0)
(0.00916675 0.00427711 0)
(0.00794464 0.00427733 0)
(0.00672248 0.00427751 0)
(0.00550027 0.00427766 0)
(0.00427802 0.00427778 0)
(0.00305575 0.00427786 0)
(0.00183346 0.00427792 0)
(0.000611154 0.00427795 0)
(0.000756502 -0.00680759 0)
(0.00226949 -0.00680747 0)
(0.00378244 -0.00680721 0)
(0.00529533 -0.00680682 0)
(0.00680812 -0.0068063 0)
(0.00832079 -0.00680564 0)
(0.00983331 -0.00680483 0)
(0.0113456 -0.00680386 0)
(0.0128578 -0.00680272 0)
(0.0143696 -0.00680141 0)
(0.0158812 -0.0067999 0)
(0.0173925 -0.00679819 0)
(0.0189033 -0.00679626 0)
(0.0204137 -0.0067941 0)
(0.0219237 -0.00679167 0)
(0.0234331 -0.00678898 0)
(0.0249419 -0.00678598 0)
(0.0264501 -0.00678267 0)
(0.0279575 -0.00677901 0)
(0.0294641 -0.00677499 0)
(0.0309698 -0.00677058 0)
(0.0324746 -0.00676574 0)
(0.0339782 -0.00676046 0)
(0.0354807 -0.0067547 0)
(0.0369819 -0.00674843 0)
(0.0384817 -0.00674161 0)
(0.0399799 -0.00673422 0)
(0.0414765 -0.00672623 0)
(0.0429713 -0.00671758 0)
(0.0444642 -0.00670826 0)
(0.045955 -0.00669822 0)
(0.0474435 -0.00668742 0)
(0.0489296 -0.00667582 0)
(0.0504131 -0.00666339 0)
(0.0518938 -0.00665008 0)
(0.0533716 -0.00663586 0)
(0.0548461 -0.00662067 0)
(0.0563172 -0.00660448 0)
(0.0577846 -0.00658725 0)
(0.0592482 -0.00656893 0)
(0.0607076 -0.00654947 0)
(0.0621627 -0.00652884 0)
(0.0636131 -0.00650699 0)
(0.0650586 -0.00648387 0)
(0.0664988 -0.00645944 0)
(0.0679336 -0.00643365 0)
(0.0693625 -0.00640647 0)
(0.0707853 -0.00637784 0)
(0.0722017 -0.00634773 0)
(0.0736113 -0.00631608 0)
(0.0750137 -0.00628287 0)
(0.0764086 -0.00624804 0)
(0.0777957 -0.00621156 0)
(0.0791745 -0.00617338 0)
(0.0805447 -0.00613347 0)
(0.0819059 -0.00609179 0)
(0.0832577 -0.0060483 0)
(0.0845997 -0.00600297 0)
(0.0859315 -0.00595576 0)
(0.0872526 -0.00590665 0)
(0.0885626 -0.0058556 0)
(0.0898611 -0.00580258 0)
(0.0911476 -0.00574758 0)
(0.0924218 -0.00569055 0)
(0.093683 -0.00563149 0)
(0.094931 -0.00557038 0)
(0.0961651 -0.00550719 0)
(0.097385 -0.00544192 0)
(0.0985902 -0.00537454 0)
(0.0997802 -0.00530507 0)
(0.100954 -0.00523347 0)
(0.102113 -0.00515977 0)
(0.103254 -0.00508394 0)
(0.104379 -0.00500601 0)
(0.105486 -0.00492597 0)
(0.106574 -0.00484383 0)
(0.107645 -0.00475961 0)
(0.108696 -0.00467333 0)
(0.109728 -0.004585 0)
(0.11074 -0.00449464 0)
(0.111732 -0.00440229 0)
(0.112703 -0.00430797 0)
(0.113652 -0.00421171 0)
(0.11458 -0.00411355 0)
(0.115486 -0.00401354 0)
(0.11637 -0.00391171 0)
(0.11723 -0.0038081 0)
(0.118068 -0.00370278 0)
(0.118881 -0.00359579 0)
(0.119671 -0.00348718 0)
(0.120436 -0.00337702 0)
(0.121176 -0.00326536 0)
(0.121891 -0.00315227 0)
(0.122581 -0.00303782 0)
(0.123246 -0.00292206 0)
(0.123884 -0.00280508 0)
(0.124496 -0.00268695 0)
(0.125081 -0.00256774 0)
(0.12564 -0.00244752 0)
(0.126172 -0.00232638 0)
(0.126677 -0.00220439 0)
(0.127154 -0.00208164 0)
(0.127604 -0.00195821 0)
(0.128026 -0.00183418 0)
(0.128421 -0.00170963 0)
(0.128787 -0.00158464 0)
(0.129126 -0.00145932 0)
(0.129437 -0.00133372 0)
(0.129719 -0.00120795 0)
(0.129974 -0.00108209 0)
(0.1302 -0.00095622 0)
(0.130399 -0.000830422 0)
(0.130569 -0.000704782 0)
(0.130711 -0.000579381 0)
(0.130825 -0.0004543 0)
(0.130912 -0.000329619 0)
(0.13097 -0.000205416 0)
(0.131001 -8.17693e-05 0)
(0.131005 4.12471e-05 0)
(0.130981 0.000163559 0)
(0.13093 0.000285096 0)
(0.130852 0.000405787 0)
(0.130747 0.000525565 0)
(0.130615 0.000644365 0)
(0.130457 0.000762125 0)
(0.130273 0.000878782 0)
(0.130063 0.00099428 0)