/*--------------------------------*- C++ -*----------------------------------*\
| =========                 |                                                 |
| \\      /  F ield         | OpenFOAM: The Open Source CFD Toolbox           |
|  \\    /   O peration     | Version:  v2012                                 |
|   \\  /    A nd           | Website:  www.openfoam.com                      |
|    \\/     M anipulation  |                                                 |
\*---------------------------------------------------------------------------*/
FoamFile
{
    version     2.0;
    format      ascii;
    class       volScalarField;
    location    "7";
    object      W;
}
// * * * * * * * * * * * * * * * * * * * * * * * * * * * * * * * * * * * * * //

dimensions      [0 0 -1 0 0 0 0];


internalField   nonuniform List<scalar> 
65536
(
1.2075e-18
1.2533e-18
1.3646e-18
1.54532e-18
1.80228e-18
2.14534e-18
2.58778e-18
3.14673e-18
3.84376e-18
4.70558e-18
5.76491e-18
7.06154e-18
8.64355e-18
1.05688e-17
1.29067e-17
1.574e-17
1.91678e-17
2.33075e-17
2.82986e-17
3.43065e-17
4.15266e-17
5.01893e-17
6.05662e-17
7.29764e-17
8.77945e-17
1.05459e-16
1.26482e-16
1.51463e-16
1.81097e-16
2.16194e-16
2.57694e-16
3.06685e-16
3.64423e-16
4.32359e-16
5.12162e-16
6.0575e-16
7.15324e-16
8.434e-16
9.92854e-16
1.16696e-15
1.36946e-15
1.60456e-15
1.87708e-15
2.19243e-15
2.55673e-15
2.97685e-15
3.46053e-15
4.01644e-15
4.65426e-15
5.38481e-15
6.22012e-15
7.17357e-15
8.25996e-15
9.49569e-15
1.08988e-14
1.24892e-14
1.42887e-14
1.63211e-14
1.86125e-14
2.11913e-14
2.40883e-14
2.73368e-14
3.09729e-14
3.50354e-14
3.95658e-14
4.46087e-14
5.02116e-14
5.64249e-14
6.3302e-14
7.08994e-14
7.92763e-14
8.84947e-14
9.86192e-14
1.09717e-13
1.21857e-13
1.35111e-13
1.4955e-13
1.6525e-13
1.82283e-13
2.00724e-13
2.20647e-13
2.42124e-13
2.65225e-13
2.90017e-13
3.16563e-13
3.44922e-13
3.75146e-13
4.0728e-13
4.41361e-13
4.77416e-13
5.15463e-13
5.55506e-13
5.97536e-13
6.41531e-13
6.87452e-13
7.35243e-13
7.84832e-13
8.36124e-13
8.89009e-13
9.43353e-13
9.99002e-13
1.05578e-12
1.11349e-12
1.17191e-12
1.23081e-12
1.28992e-12
1.34896e-12
1.40764e-12
1.46563e-12
1.52261e-12
1.57824e-12
1.63216e-12
1.68401e-12
1.73344e-12
1.78008e-12
1.82356e-12
1.86355e-12
1.8997e-12
1.93168e-12
1.9592e-12
1.98198e-12
1.99976e-12
2.01234e-12
2.01954e-12
2.02122e-12
2.01728e-12
2.00768e-12
1.99242e-12
1.97154e-12
1.94516e-12
1.91341e-12
1.8765e-12
1.83468e-12
1.78824e-12
1.73754e-12
1.68294e-12
1.62486e-12
1.56377e-12
1.50012e-12
1.43442e-12
1.36719e-12
1.29893e-12
1.2302e-12
1.16149e-12
1.09334e-12
1.02624e-12
9.60673e-13
8.97104e-13
8.35962e-13
7.77645e-13
7.2252e-13
6.70913e-13
6.23111e-13
5.79362e-13
5.39871e-13
5.04801e-13
4.74272e-13
4.48361e-13
4.27106e-13
4.105e-13
3.98499e-13
3.91015e-13
3.87925e-13
3.89066e-13
3.94236e-13
4.03197e-13
4.15677e-13
4.31367e-13
4.49926e-13
4.70981e-13
4.94131e-13
5.18947e-13
5.4498e-13
5.7176e-13
5.98804e-13
6.25622e-13
6.51723e-13
6.76622e-13
6.99847e-13
7.20949e-13
7.39508e-13
7.55143e-13
7.67517e-13
7.76348e-13
7.81414e-13
7.82553e-13
7.79677e-13
7.72763e-13
7.61863e-13
7.47095e-13
7.28644e-13
7.06757e-13
6.81737e-13
6.53931e-13
6.23726e-13
5.91538e-13
5.578e-13
5.22952e-13
4.87432e-13
4.51667e-13
4.16062e-13
3.80991e-13
3.46796e-13
3.13776e-13
2.82186e-13
2.52237e-13
2.24091e-13
1.97865e-13
1.73631e-13
1.51421e-13
1.31231e-13
1.13022e-13
9.67286e-14
8.22622e-14
6.95165e-14
5.83724e-14
4.87022e-14
4.03739e-14
3.32547e-14
2.72144e-14
2.21272e-14
1.78743e-14
1.43448e-14
1.14372e-14
9.05926e-15
7.12865e-15
5.57256e-15
4.32742e-15
3.33829e-15
2.55817e-15
1.94734e-15
1.4725e-15
1.10601e-15
8.25188e-16
6.11544e-16
4.50172e-16
3.29154e-16
2.39048e-16
1.72438e-16
1.23547e-16
8.79194e-17
6.21414e-17
4.36233e-17
3.04154e-17
2.10621e-17
1.44859e-17
9.89527e-18
6.71398e-18
4.52564e-18
3.03207e-18
2.02166e-18
1.34576e-18
9.01352e-19
6.18477e-19
4.51314e-19
3.72167e-19
1.70686e-18
1.77147e-18
1.9286e-18
2.18378e-18
2.54658e-18
3.03091e-18
3.65549e-18
4.44444e-18
5.42816e-18
6.64426e-18
8.13882e-18
9.96785e-18
1.2199e-17
1.49137e-17
1.82095e-17
2.2203e-17
2.7033e-17
3.28648e-17
3.98942e-17
4.83533e-17
5.85162e-17
7.07061e-17
8.53035e-17
1.02756e-16
1.23586e-16
1.48409e-16
1.77941e-16
2.13018e-16
2.54612e-16
3.03852e-16
3.62049e-16
4.30718e-16
5.11607e-16
6.06733e-16
7.18416e-16
8.49317e-16
1.00249e-15
1.18141e-15
1.39006e-15
1.63298e-15
1.91529e-15
2.24285e-15
2.62223e-15
3.06091e-15
3.56725e-15
4.1507e-15
4.82183e-15
5.59248e-15
6.47585e-15
7.48665e-15
8.64124e-15
9.95775e-15
1.14562e-14
1.31587e-14
1.50896e-14
1.72756e-14
1.97459e-14
2.25324e-14
2.56699e-14
2.9196e-14
3.31517e-14
3.75811e-14
4.25315e-14
4.80539e-14
5.42027e-14
6.1036e-14
6.86155e-14
7.70065e-14
8.62776e-14
9.65012e-14
1.07753e-13
1.20112e-13
1.33659e-13
1.48478e-13
1.64657e-13
1.82283e-13
2.01444e-13
2.22233e-13
2.44736e-13
2.69045e-13
2.95245e-13
3.23422e-13
3.53655e-13
3.8602e-13
4.20587e-13
4.57419e-13
4.96568e-13
5.38079e-13
5.81983e-13
6.28299e-13
6.77032e-13
7.28169e-13
7.81684e-13
8.37526e-13
8.95629e-13
9.55903e-13
1.01824e-12
1.08249e-12
1.14851e-12
1.2161e-12
1.28506e-12
1.35515e-12
1.42611e-12
1.49764e-12
1.56945e-12
1.64118e-12
1.7125e-12
1.78301e-12
1.85234e-12
1.92006e-12
1.98577e-12
2.04902e-12
2.1094e-12
2.16646e-12
2.21979e-12
2.26895e-12
2.31355e-12
2.3532e-12
2.38753e-12
2.41621e-12
2.43894e-12
2.45546e-12
2.46554e-12
2.46901e-12
2.46576e-12
2.4557e-12
2.43884e-12
2.4152e-12
2.38491e-12
2.34811e-12
2.30504e-12
2.25597e-12
2.20124e-12
2.14125e-12
2.07641e-12
2.00722e-12
1.9342e-12
1.8579e-12
1.7789e-12
1.6978e-12
1.61521e-12
1.53176e-12
1.44806e-12
1.36473e-12
1.28236e-12
1.20153e-12
1.1228e-12
1.04668e-12
9.73652e-13
9.04169e-13
8.38628e-13
7.77386e-13
7.2075e-13
6.68981e-13
6.22289e-13
5.80834e-13
5.44731e-13
5.14041e-13
4.88782e-13
4.68923e-13
4.54388e-13
4.45057e-13
4.40767e-13
4.41312e-13
4.46446e-13
4.55883e-13
4.69298e-13
4.86331e-13
5.06584e-13
5.29628e-13
5.55002e-13
5.8222e-13
6.1077e-13
6.40124e-13
6.6974e-13
6.99071e-13
7.27568e-13
7.54694e-13
7.79926e-13
8.02771e-13
8.22766e-13
8.39496e-13
8.52594e-13
8.61757e-13
8.66744e-13
8.67388e-13
8.63598e-13
8.55359e-13
8.42735e-13
8.25865e-13
8.04961e-13
7.80303e-13
7.52228e-13
7.21126e-13
6.87426e-13
6.5159e-13
6.14095e-13
5.75427e-13
5.36069e-13
4.96488e-13
4.57128e-13
4.18399e-13
3.80672e-13
3.44273e-13
3.09479e-13
2.76517e-13
2.45561e-13
2.16736e-13
1.90118e-13
1.65738e-13
1.43586e-13
1.2362e-13
1.05763e-13
8.99155e-14
7.59599e-14
6.37632e-14
5.31841e-14
4.40766e-14
3.62945e-14
2.9694e-14
2.41371e-14
1.9493e-14
1.56401e-14
1.2467e-14
9.87277e-15
7.76712e-15
6.07041e-15
4.71309e-15
3.6351e-15
2.78512e-15
2.11972e-15
1.60257e-15
1.20352e-15
8.97799e-16
6.65257e-16
4.89642e-16
3.57966e-16
2.59939e-16
1.87484e-16
1.34312e-16
9.55694e-17
6.75414e-17
4.74094e-17
3.30521e-17
2.28859e-17
1.57389e-17
1.07504e-17
7.29364e-18
4.91603e-18
3.29341e-18
2.19577e-18
1.46157e-18
9.78869e-19
6.7163e-19
4.90078e-19
4.0413e-19
2.87012e-18
2.97853e-18
3.24235e-18
3.67081e-18
4.27997e-18
5.09312e-18
6.14159e-18
7.46582e-18
9.11666e-18
1.11571e-17
1.36642e-17
1.67318e-17
2.04729e-17
2.50237e-17
3.05472e-17
3.7238e-17
4.53282e-17
5.50933e-17
6.68601e-17
8.10155e-17
9.80159e-17
1.184e-16
1.428e-16
1.71961e-16
2.06752e-16
2.48193e-16
2.97474e-16
3.55978e-16
4.25319e-16
5.07364e-16
6.04279e-16
7.18568e-16
8.53116e-16
1.01125e-15
1.19678e-15
1.4141e-15
1.6682e-15
1.96481e-15
2.31044e-15
2.7125e-15
3.17939e-15
3.72063e-15
4.34696e-15
5.07048e-15
5.90481e-15
6.86522e-15
7.9688e-15
9.23465e-15
1.0684e-14
1.23405e-14
1.42304e-14
1.63826e-14
1.88291e-14
2.1605e-14
2.47489e-14
2.8303e-14
3.23134e-14
3.68303e-14
4.1908e-14
4.76054e-14
5.3986e-14
6.11182e-14
6.90751e-14
7.7935e-14
8.77812e-14
9.8702e-14
1.10791e-13
1.24146e-13
1.38871e-13
1.55072e-13
1.72863e-13
1.92359e-13
2.13678e-13
2.36944e-13
2.62279e-13
2.89809e-13
3.19659e-13
3.51956e-13
3.86821e-13
4.24374e-13
4.64733e-13
5.08005e-13
5.54294e-13
6.03693e-13
6.56283e-13
7.12134e-13
7.71299e-13
8.33817e-13
8.99705e-13
9.68961e-13
1.04156e-12
1.11745e-12
1.19656e-12
1.27878e-12
1.36397e-12
1.45197e-12
1.54258e-12
1.63556e-12
1.73065e-12
1.82754e-12
1.92589e-12
2.02533e-12
2.12545e-12
2.22582e-12
2.32597e-12
2.42539e-12
2.52357e-12
2.61996e-12
2.71399e-12
2.80509e-12
2.89267e-12
2.97613e-12
3.05489e-12
3.12837e-12
3.19599e-12
3.2572e-12
3.31149e-12
3.35837e-12
3.39738e-12
3.42813e-12
3.45026e-12
3.46348e-12
3.46758e-12
3.46238e-12
3.4478e-12
3.42384e-12
3.39055e-12
3.34809e-12
3.29668e-12
3.23663e-12
3.16831e-12
3.09219e-12
3.00879e-12
2.91869e-12
2.82256e-12
2.72108e-12
2.615e-12
2.50511e-12
2.39221e-12
2.27712e-12
2.16068e-12
2.04372e-12
1.92707e-12
1.81152e-12
1.69786e-12
1.58682e-12
1.47911e-12
1.37538e-12
1.27622e-12
1.18218e-12
1.09374e-12
1.01131e-12
9.35251e-13
8.65847e-13
8.0332e-13
7.47828e-13
6.99465e-13
6.58263e-13
6.24196e-13
5.97177e-13
5.77065e-13
5.63665e-13
5.56729e-13
5.5596e-13
5.61012e-13
5.71493e-13
5.86968e-13
6.06958e-13
6.30946e-13
6.58375e-13
6.88658e-13
7.21177e-13
7.55291e-13
7.90338e-13
8.25648e-13
8.60545e-13
8.94358e-13
9.2643e-13
9.56131e-13
9.82864e-13
1.00608e-12
1.02527e-12
1.04002e-12
1.04997e-12
1.05484e-12
1.05445e-12
1.0487e-12
1.03759e-12
1.02122e-12
9.99761e-13
9.73491e-13
9.42758e-13
9.0798e-13
8.69636e-13
8.28251e-13
7.84384e-13
7.38615e-13
6.91529e-13
6.43706e-13
5.95705e-13
5.48055e-13
5.01245e-13
4.55714e-13
4.11845e-13
3.69966e-13
3.30338e-13
2.93165e-13
2.58586e-13
2.26688e-13
1.97499e-13
1.71003e-13
1.4714e-13
1.25816e-13
1.06907e-13
9.02679e-14
7.57359e-14
6.31397e-14
5.23029e-14
4.30488e-14
3.52046e-14
2.86042e-14
2.30911e-14
1.85198e-14
1.47569e-14
1.16818e-14
9.18706e-15
7.17772e-15
5.57099e-15
4.29542e-15
3.29004e-15
2.50328e-15
1.89203e-15
1.42052e-15
1.0594e-15
7.8481e-16
5.775e-16
4.22101e-16
3.06446e-16
2.20983e-16
1.5828e-16
1.12602e-16
7.95651e-17
5.58399e-17
3.89233e-17
2.69473e-17
1.85293e-17
1.26547e-17
8.58455e-18
5.78544e-18
3.87543e-18
2.58354e-18
1.71952e-18
1.15151e-18
7.9001e-19
5.7641e-19
4.75297e-19
5.11486e-18
5.30769e-18
5.77716e-18
6.53969e-18
7.62377e-18
9.07075e-18
1.09363e-17
1.32921e-17
1.62286e-17
1.98574e-17
2.43154e-17
2.97688e-17
3.64183e-17
4.45049e-17
5.43177e-17
6.62014e-17
8.05667e-17
9.79012e-17
1.18783e-16
1.43896e-16
1.74047e-16
2.10187e-16
2.53433e-16
3.05096e-16
3.66712e-16
4.40075e-16
5.2728e-16
6.30763e-16
7.53355e-16
8.98341e-16
1.06952e-15
1.27128e-15
1.50867e-15
1.78752e-15
2.11449e-15
2.49724e-15
2.94449e-15
3.4662e-15
4.07372e-15
4.77991e-15
5.59935e-15
6.54852e-15
7.64601e-15
8.91273e-15
1.03721e-14
1.20506e-14
1.39773e-14
1.61852e-14
1.87106e-14
2.15938e-14
2.48795e-14
2.8617e-14
3.28605e-14
3.76694e-14
4.31088e-14
4.92499e-14
5.61699e-14
6.39528e-14
7.26892e-14
8.24772e-14
9.34218e-14
1.05636e-13
1.1924e-13
1.34361e-13
1.51137e-13
1.69709e-13
1.9023e-13
2.12856e-13
2.37753e-13
2.65091e-13
2.95048e-13
3.27804e-13
3.63546e-13
4.0246e-13
4.44737e-13
4.90565e-13
5.40134e-13
5.93627e-13
6.51224e-13
7.13097e-13
7.79407e-13
8.50306e-13
9.25926e-13
1.00639e-12
1.09178e-12
1.18219e-12
1.27766e-12
1.3782e-12
1.4838e-12
1.59441e-12
1.70995e-12
1.83028e-12
1.95523e-12
2.08458e-12
2.21808e-12
2.3554e-12
2.49618e-12
2.64e-12
2.7864e-12
2.93485e-12
3.08479e-12
3.23559e-12
3.38659e-12
3.53709e-12
3.68632e-12
3.83351e-12
3.97783e-12
4.11845e-12
4.25451e-12
4.38513e-12
4.50945e-12
4.62658e-12
4.73567e-12
4.83589e-12
4.92644e-12
5.00655e-12
5.07552e-12
5.13269e-12
5.1775e-12
5.20943e-12
5.22807e-12
5.23311e-12
5.22433e-12
5.2016e-12
5.16493e-12
5.11443e-12
5.05032e-12
4.97294e-12
4.88274e-12
4.78029e-12
4.66626e-12
4.54142e-12
4.40663e-12
4.26284e-12
4.11107e-12
3.95239e-12
3.78796e-12
3.61893e-12
3.44651e-12
3.2719e-12
3.09632e-12
2.92095e-12
2.74696e-12
2.57548e-12
2.40757e-12
2.24426e-12
2.08649e-12
1.93512e-12
1.79094e-12
1.65465e-12
1.52684e-12
1.40804e-12
1.29866e-12
1.19902e-12
1.10936e-12
1.02982e-12
9.60457e-13
9.01239e-13
8.52057e-13
8.12727e-13
7.82989e-13
7.62516e-13
7.50913e-13
7.47722e-13
7.52429e-13
7.6446e-13
7.83187e-13
8.07936e-13
8.37981e-13
8.72557e-13
9.10861e-13
9.52056e-13
9.9528e-13
1.03966e-12
1.08429e-12
1.1283e-12
1.17081e-12
1.21097e-12
1.24797e-12
1.28103e-12
1.30946e-12
1.33264e-12
1.35002e-12
1.36117e-12
1.36576e-12
1.36356e-12
1.35449e-12
1.33856e-12
1.31591e-12
1.2868e-12
1.2516e-12
1.21078e-12
1.16488e-12
1.11453e-12
1.06042e-12
1.00326e-12
9.43813e-13
8.82815e-13
8.21008e-13
7.59105e-13
6.97774e-13
6.37632e-13
5.7923e-13
5.23047e-13
4.69489e-13
4.18879e-13
3.71464e-13
3.27412e-13
2.8682e-13
2.49717e-13
2.16071e-13
1.85798e-13
1.58772e-13
1.34827e-13
1.13775e-13
9.54034e-14
7.94918e-14
6.58128e-14
5.414e-14
4.42524e-14
3.59381e-14
2.89978e-14
2.32465e-14
1.85149e-14
1.46505e-14
1.15171e-14
8.99456e-15
6.97846e-15
5.37865e-15
4.11827e-15
3.1324e-15
2.36675e-15
1.77638e-15
1.3244e-15
9.80842e-16
7.21551e-16
5.27251e-16
3.82689e-16
2.75896e-16
1.97566e-16
1.40521e-16
9.92718e-17
6.96567e-17
4.85452e-17
3.36028e-17
2.31019e-17
1.5775e-17
1.06997e-17
7.2099e-18
4.82898e-18
3.21882e-18
2.14208e-18
1.43432e-18
9.83924e-19
7.17821e-19
5.9186e-19
9.22965e-18
9.577e-18
1.0423e-17
1.17972e-17
1.37509e-17
1.63583e-17
1.97196e-17
2.39639e-17
2.92534e-17
3.57891e-17
4.38169e-17
5.36352e-17
6.56046e-17
8.01581e-17
9.78141e-17
1.19192e-16
1.45027e-16
1.76195e-16
2.13731e-16
2.5886e-16
3.13027e-16
3.77933e-16
4.55577e-16
5.48303e-16
6.58854e-16
7.90435e-16
9.46782e-16
1.13224e-15
1.35186e-15
1.61147e-15
1.91786e-15
2.2788e-15
2.70329e-15
3.20165e-15
3.7857e-15
4.46899e-15
5.26697e-15
6.19724e-15
7.27982e-15
8.5374e-15
9.99566e-15
1.16836e-14
1.36338e-14
1.58829e-14
1.84722e-14
2.14474e-14
2.486e-14
2.87669e-14
3.32314e-14
3.83236e-14
4.41208e-14
5.07082e-14
5.81793e-14
6.66363e-14
7.61912e-14
8.69656e-14
9.90914e-14
1.12712e-13
1.2798e-13
1.45063e-13
1.64138e-13
1.85394e-13
2.09032e-13
2.35268e-13
2.64325e-13
2.96442e-13
3.31867e-13
3.70858e-13
4.13685e-13
4.60624e-13
5.11959e-13
5.67981e-13
6.28985e-13
6.95264e-13
7.67117e-13
8.44834e-13
9.28703e-13
1.019e-12
1.11599e-12
1.21993e-12
1.33104e-12
1.44953e-12
1.57557e-12
1.70932e-12
1.85087e-12
2.00029e-12
2.1576e-12
2.32277e-12
2.49571e-12
2.67627e-12
2.86424e-12
3.05934e-12
3.26121e-12
3.46943e-12
3.68351e-12
3.90286e-12
4.12682e-12
4.35466e-12
4.58556e-12
4.81862e-12
5.05289e-12
5.28733e-12
5.52082e-12
5.75222e-12
5.9803e-12
6.20381e-12
6.42145e-12
6.63189e-12
6.83381e-12
7.02586e-12
7.20671e-12
7.37505e-12
7.52962e-12
7.6692e-12
7.79264e-12
7.89886e-12
7.98688e-12
8.05583e-12
8.10496e-12
8.13366e-12
8.14143e-12
8.12797e-12
8.09309e-12
8.03681e-12
7.95929e-12
7.86089e-12
7.74211e-12
7.60364e-12
7.44634e-12
7.27122e-12
7.07944e-12
6.87229e-12
6.65121e-12
6.41772e-12
6.17347e-12
5.92015e-12
5.65953e-12
5.39341e-12
5.1236e-12
4.85193e-12
4.58018e-12
4.31012e-12
4.04343e-12
3.78173e-12
3.52656e-12
3.27934e-12
3.04138e-12
2.81386e-12
2.59784e-12
2.39424e-12
2.20384e-12
2.02727e-12
1.86504e-12
1.71749e-12
1.58487e-12
1.46727e-12
1.36466e-12
1.2769e-12
1.20375e-12
1.14483e-12
1.0997e-12
1.06781e-12
1.04853e-12
1.04114e-12
1.04485e-12
1.0588e-12
1.08207e-12
1.11367e-12
1.15255e-12
1.19763e-12
1.24776e-12
1.30178e-12
1.35848e-12
1.41666e-12
1.47509e-12
1.53258e-12
1.58792e-12
1.63999e-12
1.6877e-12
1.73002e-12
1.76604e-12
1.79493e-12
1.81601e-12
1.82871e-12
1.83262e-12
1.82747e-12
1.81317e-12
1.78977e-12
1.7575e-12
1.71672e-12
1.66796e-12
1.61184e-12
1.54913e-12
1.48068e-12
1.40739e-12
1.33024e-12
1.25023e-12
1.16834e-12
1.08556e-12
1.00282e-12
9.21004e-13
8.40912e-13
7.63262e-13
6.88677e-13
6.17675e-13
5.50671e-13
4.87975e-13
4.29795e-13
3.76245e-13
3.27349e-13
2.83054e-13
2.43239e-13
2.07726e-13
1.76291e-13
1.48676e-13
1.24597e-13
1.03758e-13
8.58572e-14
7.05922e-14
5.76705e-14
4.68121e-14
3.77538e-14
3.02519e-14
2.40838e-14
1.90489e-14
1.49685e-14
1.16854e-14
9.06264e-15
6.98245e-15
5.34434e-15
4.06356e-15
3.0693e-15
2.30295e-15
1.71647e-15
1.27083e-15
9.34618e-16
6.82761e-16
4.95434e-16
3.57092e-16
2.5565e-16
1.81793e-16
1.28401e-16
9.00779e-17
6.27652e-17
4.34379e-17
2.98584e-17
2.03854e-17
1.38246e-17
9.31424e-18
6.23754e-18
4.15718e-18
2.76619e-18
1.852e-18
1.27029e-18
9.26639e-19
7.63979e-19
1.6624e-17
1.72485e-17
1.87704e-17
2.12425e-17
2.47569e-17
2.9447e-17
3.54927e-17
4.31255e-17
5.26368e-17
6.43873e-17
7.88179e-17
9.64643e-17
1.17973e-16
1.4412e-16
1.75835e-16
2.14226e-16
2.60612e-16
3.1656e-16
3.83922e-16
4.64891e-16
5.62049e-16
6.78436e-16
8.17624e-16
9.83797e-16
1.18185e-15
1.4175e-15
1.69741e-15
2.02931e-15
2.42218e-15
2.88644e-15
3.43408e-15
4.07897e-15
4.83704e-15
5.7266e-15
6.76861e-15
7.98703e-15
9.40918e-15
1.10662e-14
1.29933e-14
1.52306e-14
1.78232e-14
2.0822e-14
2.42845e-14
2.82749e-14
3.28652e-14
3.81357e-14
4.41759e-14
5.10852e-14
5.89737e-14
6.79631e-14
7.81874e-14
8.97939e-14
1.02944e-13
1.17814e-13
1.34596e-13
1.53498e-13
1.74747e-13
1.98586e-13
2.25276e-13
2.551e-13
2.88356e-13
3.25364e-13
3.66462e-13
4.12008e-13
4.62377e-13
5.17964e-13
5.79177e-13
6.46441e-13
7.20196e-13
8.00892e-13
8.88987e-13
9.84946e-13
1.08924e-12
1.20233e-12
1.32468e-12
1.45674e-12
1.59895e-12
1.75173e-12
1.91546e-12
2.09051e-12
2.2772e-12
2.47579e-12
2.68652e-12
2.90954e-12
3.14496e-12
3.39278e-12
3.65296e-12
3.92534e-12
4.20969e-12
4.50565e-12
4.81279e-12
5.13053e-12
5.4582e-12
5.79501e-12
6.14003e-12
6.49222e-12
6.85041e-12
7.21333e-12
7.57957e-12
7.94761e-12
8.31582e-12
8.68248e-12
9.04577e-12
9.40379e-12
9.75458e-12
1.00961e-11
1.04263e-11
1.07432e-11
1.10446e-11
1.13284e-11
1.15928e-11
1.18356e-11
1.2055e-11
1.22493e-11
1.24168e-11
1.25559e-11
1.26654e-11
1.2744e-11
1.27908e-11
1.28052e-11
1.27865e-11
1.27345e-11
1.26492e-11
1.25309e-11
1.23802e-11
1.21976e-11
1.19844e-11
1.17418e-11
1.14714e-11
1.11748e-11
1.08542e-11
1.05115e-11
1.01493e-11
9.76994e-12
9.37604e-12
8.97029e-12
8.55543e-12
8.13425e-12
7.70951e-12
7.28396e-12
6.86028e-12
6.44107e-12
6.02882e-12
5.62588e-12
5.23444e-12
4.85652e-12
4.49396e-12
4.14839e-12
3.82124e-12
3.51372e-12
3.22683e-12
2.96137e-12
2.71792e-12
2.49685e-12
2.29834e-12
2.12239e-12
1.96882e-12
1.8373e-12
1.7273e-12
1.6382e-12
1.56922e-12
1.51946e-12
1.48791e-12
1.47345e-12
1.47487e-12
1.49087e-12
1.52006e-12
1.56099e-12
1.61213e-12
1.6719e-12
1.73868e-12
1.81079e-12
1.88654e-12
1.96423e-12
2.04217e-12
2.11867e-12
2.1921e-12
2.26091e-12
2.3236e-12
2.37881e-12
2.42529e-12
2.46196e-12
2.48789e-12
2.50236e-12
2.50483e-12
2.49499e-12
2.47275e-12
2.43822e-12
2.39173e-12
2.33383e-12
2.26524e-12
2.18686e-12
2.09974e-12
2.00504e-12
1.90403e-12
1.79802e-12
1.68837e-12
1.57641e-12
1.46347e-12
1.3508e-12
1.23959e-12
1.13089e-12
1.02567e-12
9.24742e-13
8.2879e-13
7.38353e-13
6.53829e-13
5.75482e-13
5.03444e-13
4.37733e-13
3.78263e-13
3.24856e-13
2.77262e-13
2.35167e-13
1.98217e-13
1.66024e-13
1.38184e-13
1.14284e-13
9.39178e-14
7.66893e-14
6.22208e-14
5.01581e-14
4.01737e-14
3.19691e-14
2.52753e-14
1.98533e-14
1.54928e-14
1.20111e-14
9.25083e-15
7.07812e-15
5.38006e-15
4.06239e-15
3.04716e-15
2.27049e-15
1.68054e-15
1.2356e-15
9.02402e-16
6.54651e-16
4.71738e-16
3.37651e-16
2.40052e-16
1.69515e-16
1.18898e-16
8.2831e-17
5.73146e-17
3.93904e-17
2.68889e-17
1.82323e-17
1.22822e-17
8.22398e-18
5.48038e-18
3.6462e-18
2.44088e-18
1.67401e-18
1.221e-18
1.00659e-18
2.97628e-17
3.08792e-17
3.36005e-17
3.80212e-17
4.43054e-17
5.26916e-17
6.35005e-17
7.71456e-17
9.41468e-17
1.15147e-16
1.40934e-16
1.72462e-16
2.10884e-16
2.57583e-16
3.14216e-16
3.82757e-16
4.65554e-16
5.65396e-16
6.85581e-16
8.30005e-16
1.00326e-15
1.21076e-15
1.45883e-15
1.75491e-15
2.10769e-15
2.5273e-15
3.02555e-15
3.61615e-15
4.315e-15
5.14049e-15
6.11388e-15
7.25963e-15
8.60589e-15
1.01849e-14
1.20337e-14
1.41944e-14
1.6715e-14
1.96504e-14
2.30623e-14
2.7021e-14
3.16056e-14
3.69053e-14
4.30202e-14
5.00626e-14
5.81578e-14
6.74457e-14
7.80817e-14
9.02383e-14
1.04106e-13
1.19896e-13
1.37838e-13
1.58187e-13
1.81219e-13
2.07238e-13
2.36572e-13
2.69577e-13
3.06637e-13
3.48166e-13
3.94607e-13
4.46436e-13
5.04157e-13
5.68306e-13
6.39448e-13
7.18178e-13
8.0512e-13
9.00923e-13
1.00626e-12
1.12183e-12
1.24835e-12
1.38653e-12
1.53713e-12
1.70088e-12
1.87851e-12
2.07078e-12
2.27838e-12
2.50201e-12
2.74233e-12
2.99997e-12
3.27548e-12
3.56937e-12
3.88209e-12
4.21396e-12
4.56526e-12
4.93612e-12
5.32658e-12
5.73655e-12
6.16578e-12
6.61388e-12
7.08032e-12
7.56436e-12
8.06513e-12
8.58156e-12
9.11237e-12
9.65611e-12
1.02112e-11
1.07757e-11
1.13476e-11
1.19247e-11
1.25047e-11
1.3085e-11
1.36629e-11
1.42355e-11
1.47998e-11
1.53528e-11
1.58914e-11
1.64123e-11
1.69123e-11
1.73881e-11
1.78366e-11
1.82546e-11
1.8639e-11
1.89869e-11
1.92956e-11
1.95625e-11
1.97852e-11
1.99616e-11
2.00899e-11
2.01687e-11
2.01968e-11
2.01734e-11
2.00981e-11
1.99708e-11
1.97919e-11
1.95622e-11
1.92829e-11
1.89555e-11
1.85819e-11
1.81646e-11
1.77062e-11
1.72097e-11
1.66784e-11
1.61159e-11
1.55259e-11
1.49125e-11
1.42797e-11
1.36317e-11
1.29728e-11
1.23073e-11
1.16394e-11
1.09733e-11
1.03128e-11
9.66195e-12
9.0243e-12
8.40327e-12
7.80202e-12
7.22341e-12
6.67e-12
6.14402e-12
5.64742e-12
5.18177e-12
4.74836e-12
4.34812e-12
3.98171e-12
3.64946e-12
3.35142e-12
3.08738e-12
2.85688e-12
2.65921e-12
2.49347e-12
2.35856e-12
2.25316e-12
2.17585e-12
2.12501e-12
2.09891e-12
2.0957e-12
2.1134e-12
2.14994e-12
2.20316e-12
2.27084e-12
2.35067e-12
2.44029e-12
2.53733e-12
2.63937e-12
2.744e-12
2.84885e-12
2.95156e-12
3.04988e-12
3.14163e-12
3.22478e-12
3.29746e-12
3.35799e-12
3.40488e-12
3.43693e-12
3.45316e-12
3.4529e-12
3.43576e-12
3.40166e-12
3.3508e-12
3.2837e-12
3.20113e-12
3.10413e-12
2.99396e-12
2.87209e-12
2.74014e-12
2.59985e-12
2.45302e-12
2.30151e-12
2.14715e-12
1.99174e-12
1.83698e-12
1.68445e-12
1.53561e-12
1.39172e-12
1.25389e-12
1.12301e-12
9.99793e-13
8.84759e-13
7.78241e-13
6.80397e-13
5.9123e-13
5.10604e-13
4.3826e-13
3.73841e-13
3.16911e-13
2.66975e-13
2.235e-13
1.85928e-13
1.53696e-13
1.26247e-13
1.03041e-13
8.35639e-14
6.73346e-14
5.39088e-14
4.28818e-14
3.38899e-14
2.66099e-14
2.0758e-14
1.60874e-14
1.23862e-14
9.47399e-15
7.1989e-15
5.43413e-15
4.0749e-15
3.03543e-15
2.24612e-15
1.65102e-15
1.2055e-15
8.74326e-16
6.29893e-16
4.50754e-16
3.20397e-16
2.26207e-16
1.58631e-16
1.10492e-16
7.64415e-17
5.25271e-17
3.58509e-17
2.43055e-17
1.63711e-17
1.09604e-17
7.30302e-18
4.85824e-18
3.25186e-18
2.22994e-18
1.62631e-18
1.34063e-18
5.29049e-17
5.48862e-17
5.97174e-17
6.75661e-17
7.87231e-17
9.36112e-17
1.12799e-16
1.37018e-16
1.67191e-16
2.04457e-16
2.5021e-16
3.06141e-16
3.7429e-16
4.57107e-16
5.57521e-16
6.79026e-16
8.25776e-16
1.0027e-15
1.21562e-15
1.47143e-15
1.77823e-15
2.14556e-15
2.58462e-15
3.10851e-15
3.73253e-15
4.47455e-15
5.35534e-15
6.39904e-15
7.6336e-15
9.09137e-15
1.08096e-14
1.28314e-14
1.52059e-14
1.79899e-14
2.12479e-14
2.50537e-14
2.94915e-14
3.46565e-14
4.0657e-14
4.76152e-14
5.56688e-14
6.49728e-14
7.57012e-14
8.80485e-14
1.02232e-13
1.18494e-13
1.37102e-13
1.58353e-13
1.82577e-13
2.10134e-13
2.41421e-13
2.76873e-13
3.16963e-13
3.62207e-13
4.13164e-13
4.70439e-13
5.34681e-13
6.0659e-13
6.86913e-13
7.76447e-13
8.76036e-13
9.86574e-13
1.109e-12
1.2443e-12
1.39351e-12
1.55769e-12
1.73793e-12
1.93538e-12
2.15119e-12
2.38652e-12
2.64256e-12
2.92047e-12
3.22142e-12
3.54655e-12
3.89695e-12
4.27369e-12
4.67773e-12
5.10998e-12
5.57125e-12
6.06222e-12
6.58346e-12
7.13537e-12
7.71819e-12
8.33197e-12
8.97656e-12
9.6516e-12
1.03565e-11
1.10903e-11
1.1852e-11
1.26401e-11
1.3453e-11
1.42887e-11
1.51449e-11
1.6019e-11
1.69081e-11
1.7809e-11
1.87183e-11
1.96323e-11
2.05469e-11
2.14579e-11
2.23608e-11
2.3251e-11
2.41237e-11
2.49739e-11
2.57966e-11
2.65869e-11
2.73395e-11
2.80496e-11
2.87122e-11
2.93225e-11
2.9876e-11
3.03684e-11
3.07956e-11
3.11541e-11
3.14404e-11
3.16518e-11
3.1786e-11
3.18411e-11
3.18159e-11
3.17096e-11
3.15222e-11
3.12541e-11
3.09066e-11
3.04812e-11
2.99805e-11
2.94074e-11
2.87654e-11
2.80585e-11
2.72914e-11
2.64691e-11
2.55969e-11
2.46808e-11
2.37267e-11
2.2741e-11
2.17301e-11
2.07005e-11
1.96589e-11
1.86117e-11
1.75653e-11
1.65259e-11
1.54994e-11
1.44916e-11
1.35077e-11
1.25527e-11
1.1631e-11
1.07466e-11
9.90324e-12
9.1038e-12
8.3509e-12
7.64659e-12
6.99243e-12
6.38952e-12
5.83847e-12
5.33948e-12
4.89232e-12
4.49637e-12
4.15068e-12
3.85393e-12
3.60455e-12
3.40067e-12
3.24019e-12
3.1208e-12
3.03998e-12
2.99506e-12
2.9832e-12
3.00143e-12
3.04665e-12
3.11569e-12
3.20526e-12
3.31201e-12
3.43255e-12
3.56344e-12
3.70127e-12
3.8426e-12
3.98409e-12
4.12245e-12
4.25452e-12
4.37731e-12
4.48799e-12
4.584e-12
4.66304e-12
4.72313e-12
4.76263e-12
4.78025e-12
4.77513e-12
4.7468e-12
4.69519e-12
4.62066e-12
4.52398e-12
4.40625e-12
4.26897e-12
4.11391e-12
3.94312e-12
3.75884e-12
3.56349e-12
3.35956e-12
3.14961e-12
2.93613e-12
2.72158e-12
2.50828e-12
2.29838e-12
2.09383e-12
1.89634e-12
1.7074e-12
1.52818e-12
1.35965e-12
1.20247e-12
1.05706e-12
9.2362e-13
8.02119e-13
6.92346e-13
5.93929e-13
5.0636e-13
4.29028e-13
3.61245e-13
3.02272e-13
2.51339e-13
2.07672e-13
1.70507e-13
1.39105e-13
1.12764e-13
9.08267e-14
7.26881e-14
5.77979e-14
4.56614e-14
3.584e-14
2.79485e-14
2.16528e-14
1.66658e-14
1.27435e-14
9.6804e-15
7.3052e-15
5.47644e-15
4.07837e-15
3.0171e-15
2.21717e-15
1.6185e-15
1.1736e-15
8.45319e-16
6.04789e-16
4.298e-16
3.0339e-16
2.12719e-16
1.4814e-16
1.02471e-16
7.04021e-17
4.80438e-17
3.25673e-17
2.19329e-17
1.46822e-17
9.78162e-18
6.50632e-18
4.35449e-18
2.98571e-18
2.17727e-18
1.79467e-18
9.33389e-17
9.68289e-17
1.05342e-16
1.19173e-16
1.38834e-16
1.65069e-16
1.98876e-16
2.41546e-16
2.94699e-16
3.60338e-16
4.40915e-16
5.39402e-16
6.59386e-16
8.05169e-16
9.81899e-16
1.19571e-15
1.4539e-15
1.7651e-15
2.13955e-15
2.58933e-15
3.12864e-15
3.77421e-15
4.54564e-15
5.46586e-15
6.56167e-15
7.86432e-15
9.41012e-15
1.12412e-14
1.34065e-14
1.59624e-14
1.89739e-14
2.25159e-14
2.66744e-14
3.15477e-14
3.72485e-14
4.39049e-14
5.16627e-14
6.06875e-14
7.11667e-14
8.33117e-14
9.73608e-14
1.13582e-13
1.32275e-13
1.53774e-13
1.78455e-13
2.06732e-13
2.39066e-13
2.75966e-13
3.17994e-13
3.65767e-13
4.19961e-13
4.81315e-13
5.50634e-13
6.28791e-13
7.16731e-13
8.15474e-13
9.26115e-13
1.04983e-12
1.18786e-12
1.34154e-12
1.51228e-12
1.70156e-12
1.91093e-12
2.14201e-12
2.39649e-12
2.6761e-12
2.98265e-12
3.31795e-12
3.68386e-12
4.08224e-12
4.51496e-12
4.98386e-12
5.49075e-12
6.03738e-12
6.62542e-12
7.25644e-12
7.93188e-12
8.65303e-12
9.42099e-12
1.02367e-11
1.11007e-11
1.20135e-11
1.29752e-11
1.39856e-11
1.50441e-11
1.61497e-11
1.73011e-11
1.84966e-11
1.9734e-11
2.10107e-11
2.23235e-11
2.36688e-11
2.50427e-11
2.64406e-11
2.78576e-11
2.92881e-11
3.07264e-11
3.21662e-11
3.36009e-11
3.50234e-11
3.64266e-11
3.78028e-11
3.91445e-11
4.04437e-11
4.16925e-11
4.28832e-11
4.40078e-11
4.50588e-11
4.60285e-11
4.69101e-11
4.76966e-11
4.83819e-11
4.89602e-11
4.94264e-11
4.97759e-11
5.00053e-11
5.01114e-11
5.00923e-11
4.99469e-11
4.96748e-11
4.92768e-11
4.87545e-11
4.81104e-11
4.73483e-11
4.64724e-11
4.54882e-11
4.44018e-11
4.32201e-11
4.19508e-11
4.06022e-11
3.9183e-11
3.77027e-11
3.61708e-11
3.45972e-11
3.2992e-11
3.13652e-11
2.97269e-11
2.80869e-11
2.64549e-11
2.48401e-11
2.32512e-11
2.16965e-11
2.01838e-11
1.87201e-11
1.73117e-11
1.59643e-11
1.46826e-11
1.34709e-11
1.23325e-11
1.12699e-11
1.0285e-11
9.37894e-12
8.55215e-12
7.80445e-12
7.13507e-12
6.54268e-12
6.02545e-12
5.58109e-12
5.20691e-12
4.89985e-12
4.65656e-12
4.47336e-12
4.34636e-12
4.27145e-12
4.24431e-12
4.2605e-12
4.31541e-12
4.40433e-12
4.52247e-12
4.66496e-12
4.8269e-12
5.00337e-12
5.18948e-12
5.38039e-12
5.57136e-12
5.75779e-12
5.93528e-12
6.09965e-12
6.24703e-12
6.37388e-12
6.47708e-12
6.55392e-12
6.60221e-12
6.62025e-12
6.60692e-12
6.56165e-12
6.48444e-12
6.37585e-12
6.23701e-12
6.06953e-12
5.87552e-12
5.65746e-12
5.41824e-12
5.16096e-12
4.88897e-12
4.60572e-12
4.31469e-12
4.01934e-12
3.723e-12
3.42883e-12
3.13977e-12
2.85844e-12
2.58716e-12
2.32791e-12
2.08228e-12
1.85152e-12
1.63651e-12
1.43779e-12
1.25558e-12
1.08982e-12
9.4017e-13
8.06106e-13
6.86907e-13
5.81716e-13
4.89575e-13
4.09461e-13
3.40313e-13
2.81065e-13
2.30667e-13
1.88108e-13
1.52426e-13
1.22725e-13
9.81792e-14
7.80385e-14
6.16302e-14
4.83574e-14
3.76973e-14
2.91963e-14
2.2465e-14
1.71727e-14
1.30412e-14
9.83868e-15
7.37374e-15
5.4899e-15
4.06032e-15
2.9831e-15
2.17712e-15
1.57832e-15
1.13659e-15
8.13017e-16
5.77668e-16
4.07694e-16
2.85799e-16
1.99001e-16
1.3763e-16
9.45438e-17
6.45092e-17
4.37225e-17
2.94416e-17
1.97061e-17
1.31271e-17
8.73057e-18
5.84243e-18
4.00546e-18
2.92059e-18
2.4072e-18
1.63434e-16
1.69535e-16
1.84424e-16
2.08615e-16
2.43001e-16
2.88881e-16
3.48002e-16
4.22614e-16
5.15546e-16
6.30295e-16
7.71141e-16
9.43269e-16
1.15294e-15
1.40765e-15
1.71638e-15
2.08983e-15
2.5407e-15
3.08406e-15
3.73772e-15
4.5227e-15
5.46375e-15
6.58995e-15
7.93538e-15
9.53993e-15
1.14502e-14
1.37203e-14
1.64134e-14
1.96027e-14
2.33728e-14
2.78215e-14
3.30614e-14
3.92222e-14
4.64525e-14
5.49225e-14
6.48263e-14
7.63852e-14
8.98508e-14
1.05508e-13
1.2368e-13
1.44729e-13
1.69065e-13
1.97147e-13
2.2949e-13
2.66667e-13
3.09317e-13
3.58149e-13
4.13949e-13
4.77582e-13
5.50005e-13
6.32263e-13
7.25501e-13
8.3097e-13
9.50025e-13
1.08414e-12
1.2349e-12
1.40402e-12
1.59332e-12
1.80476e-12
2.04043e-12
2.30252e-12
2.59337e-12
2.9154e-12
3.27118e-12
3.66335e-12
4.09466e-12
4.56793e-12
5.08605e-12
5.65194e-12
6.26857e-12
6.93887e-12
7.66579e-12
8.45219e-12
9.30086e-12
1.02145e-11
1.11955e-11
1.22463e-11
1.33689e-11
1.45651e-11
1.58364e-11
1.71838e-11
1.86081e-11
2.01094e-11
2.16875e-11
2.33415e-11
2.507e-11
2.68709e-11
2.87416e-11
3.06787e-11
3.26781e-11
3.47349e-11
3.68436e-11
3.89979e-11
4.11908e-11
4.34145e-11
4.56605e-11
4.79197e-11
5.01823e-11
5.24379e-11
5.46757e-11
5.68843e-11
5.9052e-11
6.11668e-11
6.32164e-11
6.51886e-11
6.70709e-11
6.88513e-11
7.05177e-11
7.20586e-11
7.34627e-11
7.47196e-11
7.58195e-11
7.67534e-11
7.75132e-11
7.80919e-11
7.84837e-11
7.8684e-11
7.86894e-11
7.8498e-11
7.81093e-11
7.75241e-11
7.67449e-11
7.57754e-11
7.4621e-11
7.32883e-11
7.17854e-11
7.01215e-11
6.83072e-11
6.63542e-11
6.4275e-11
6.20831e-11
5.97926e-11
5.74184e-11
5.49755e-11
5.24794e-11
4.99456e-11
4.73895e-11
4.48263e-11
4.22709e-11
3.97376e-11
3.724e-11
3.47911e-11
3.24028e-11
3.00862e-11
2.78514e-11
2.57072e-11
2.36613e-11
2.17205e-11