/*--------------------------------*- C++ -*----------------------------------*\
| =========                 |                                                 |
| \\      /  F ield         | OpenFOAM: The Open Source CFD Toolbox           |
|  \\    /   O peration     | Version:  v2012                                 |
|   \\  /    A nd           | Website:  www.openfoam.com                      |
|    \\/     M anipulation  |                                                 |
\*---------------------------------------------------------------------------*/
FoamFile
{
    version     2.0;
    format      ascii;
    class       volVectorField;
    location    "0";
    object      U;
}
// * * * * * * * * * * * * * * * * * * * * * * * * * * * * * * * * * * * * * //

dimensions      [0 1 -1 0 0 0 0];


internalField   nonuniform List<vector> 
4000
(
(1 3.98669e-15 0)
(1 1.36438e-15 0)
(1 1.30184e-15 0)
(1 -1.3572e-17 0)
(1 -9.91912e-16 0)
(1 -5.04714e-15 0)
(1 -8.10625e-17 0)
(1 6.5899e-15 0)
(1 5.33808e-15 0)
(1 -4.26932e-15 0)
(1 -5.57616e-15 0)
(1 -8.15897e-16 0)
(1 2.19271e-15 0)
(1 5.53966e-15 0)
(1 1.6381e-15 0)
(1 -8.02237e-15 0)
(1 -1.11296e-15 0)
(1 4.82214e-15 0)
(1 -2.01488e-16 0)
(1 -1.61782e-15 0)
(1 -4.64598e-15 0)
(1 -3.55487e-15 0)
(1 -5.15464e-16 0)
(1 -2.23656e-15 0)
(1 1.66492e-15 0)
(1 3.44274e-15 0)
(1 8.41504e-16 0)
(1 1.06727e-15 0)
(1 2.99909e-15 0)
(1 1.88259e-15 0)
(1 -7.22184e-16 0)
(1 -8.01457e-15 0)
(1 -4.07493e-15 0)
(1 -2.79301e-15 0)
(1 -6.67942e-17 0)
(1 -1.46447e-15 0)
(1 7.1735e-15 0)
(1 3.33923e-15 0)
(1 2.49374e-15 0)
(1 -2.73861e-15 0)
(1 -5.45972e-15 0)
(1 -7.49896e-15 0)
(1 1.48627e-15 0)
(1 5.20682e-15 0)
(1 2.75155e-15 0)
(1 6.36257e-16 0)
(1 -4.2245e-15 0)
(1 -1.40164e-15 0)
(1 4.64272e-16 0)
(1 4.38836e-15 0)
(1 3.34482e-15 0)
(1 4.05432e-15 0)
(1 4.59596e-15 0)
(1 3.37618e-15 0)
(1 2.40871e-15 0)
(1 1.44436e-15 0)
(1 -4.14005e-15 0)
(1 5.28898e-16 0)
(1 -6.89179e-16 0)
(1 1.25701e-15 0)
(1 -9.63969e-16 0)
(1 1.42771e-15 0)
(1 3.09381e-15 0)
(1 -1.05866e-15 0)
(1 -2.24707e-15 0)
(1 -3.54178e-16 0)
(1 -1.35316e-15 0)
(1 3.80394e-15 0)
(1 -3.04193e-15 0)
(1 -2.86441e-15 0)
(1 -2.24893e-15 0)
(1 -7.63925e-17 0)
(1 -3.39979e-15 0)
(1 -3.58023e-15 0)
(1 -4.92548e-15 0)
(1 -1.57286e-15 0)
(1 -1.70122e-15 0)
(1 -7.78487e-16 0)
(1 -9.10974e-17 0)
(1 2.86364e-15 0)
(1 2.02944e-15 0)
(1 7.97279e-16 0)
(1 7.29131e-16 0)
(1 -5.82988e-15 0)
(1 -8.99894e-15 0)
(1 2.1305e-15 0)
(1 3.94347e-15 0)
(1 3.68136e-15 0)
(1 4.26151e-15 0)
(1 4.22503e-15 0)
(1 2.88515e-16 0)
(1 3.17238e-15 0)
(1 -2.11797e-15 0)
(1 -1.05299e-15 0)
(1 -1.48988e-15 0)
(1 4.42355e-15 0)
(1 -7.6324e-16 0)
(1 -2.82396e-15 0)
(1 -3.85941e-16 0)
(1 -2.18355e-15 0)
(1 2.49115e-15 0)
(1 2.9711e-15 0)
(1 1.13908e-15 0)
(1 1.51447e-15 0)
(1 -1.18261e-15 0)
(1 -7.04037e-15 0)
(1 -2.31136e-15 0)
(1 7.69352e-15 0)
(1 6.52063e-15 0)
(1 3.11031e-15 0)
(1 -5.30752e-15 0)
(1 -4.36139e-15 0)
(1 1.88476e-15 0)
(1 3.12843e-15 0)
(1 3.08526e-15 0)
(1 -1.195e-14 0)
(1 -1.87918e-15 0)
(1 1.04833e-14 0)
(1 3.78863e-16 0)
(1 7.03981e-16 0)
(1 -4.61377e-15 0)
(1 -3.76723e-15 0)
(1 2.44106e-15 0)
(1 1.1388e-15 0)
(1 1.65564e-15 0)
(1 -2.78653e-15 0)
(1 -6.63091e-15 0)
(1 -2.81938e-15 0)
(1 6.33031e-15 0)
(1 -5.17045e-16 0)
(1 3.14824e-15 0)
(1 -4.34249e-15 0)
(1 -3.42891e-15 0)
(1 4.61813e-16 0)
(1 -7.95291e-16 0)
(1 -1.06358e-15 0)
(1 6.12772e-15 0)
(1 3.37729e-16 0)
(1 -5.76894e-15 0)
(1 -6.67353e-15 0)
(1 -7.76134e-15 0)
(1 -1.70038e-15 0)
(1 6.04032e-15 0)
(1 1.02216e-14 0)
(1 6.08606e-15 0)
(1 -2.53468e-15 0)
(1 -2.2446e-15 0)
(1 -4.08774e-15 0)
(1 8.47222e-16 0)
(1 -2.66166e-15 0)
(1 -1.26157e-15 0)
(1 2.13385e-15 0)
(1 4.19676e-15 0)
(1 1.27091e-15 0)
(1 5.23583e-15 0)
(1 5.68365e-15 0)
(1 6.45963e-16 0)
(1 1.12636e-15 0)
(1 -3.45604e-15 0)
(1 -3.09096e-15 0)
(1 -2.75445e-15 0)
(1 -3.96992e-15 0)
(1 3.3023e-15 0)
(1 2.68437e-15 0)
(1 4.99389e-16 0)
(1 -5.39098e-15 0)
(1 -4.20412e-15 0)
(1 2.61325e-15 0)
(1 -1.74654e-15 0)
(1 -2.80103e-15 0)
(1 3.82268e-16 0)
(1 1.63162e-15 0)
(1 3.59894e-15 0)
(1 1.84426e-15 0)
(1 4.65599e-15 0)
(1 -4.19519e-15 0)
(1 -5.7331e-16 0)
(1 1.95377e-15 0)
(1 5.70286e-15 0)
(1 7.26674e-15 0)
(1 3.22204e-15 0)
(1 -5.23537e-15 0)
(1 4.3528e-16 0)
(1 -3.47314e-15 0)
(1 -7.67632e-15 0)
(1 3.13839e-15 0)
(1 3.54874e-15 0)
(1 1.82248e-15 0)
(1 6.0089e-16 0)
(1 2.88396e-15 0)
(1 -2.20219e-15 0)
(1 5.86902e-16 0)
(1 -2.78765e-15 0)
(1 8.16135e-16 0)
(1 -2.0841e-15 0)
(1 6.83241e-15 0)
(1 -3.60033e-15 0)
(1 -4.60486e-16 0)
(1 -2.82907e-15 0)
(1 -6.9691e-15 0)
(1 -4.38613e-15 0)
(1 4.38971e-15 0)
(1 -5.92687e-15 0)
(1 4.5351e-15 0)
(1 -2.64548e-15 0)
(1 -1.79771e-16 0)
(1 1.63269e-15 0)
(1 4.89461e-15 0)
(1 5.82848e-15 0)
(1 3.29146e-15 0)
(1 -1.94748e-16 0)
(1 -5.37468e-15 0)
(1 8.18757e-15 0)
(1 7.28313e-15 0)
(1 8.591e-16 0)
(1 -5.92745e-15 0)
(1 -6.62923e-15 0)
(1 -1.32775e-15 0)
(1 2.16108e-15 0)
(1 -1.21757e-15 0)
(1 -5.98976e-15 0)
(1 1.06988e-15 0)
(1 4.08641e-15 0)
(1 5.94099e-15 0)
(1 4.14834e-15 0)
(1 3.37471e-16 0)
(1 -1.23988e-15 0)
(1 -2.51062e-15 0)
(1 8.5164e-15 0)
(1 -1.47791e-15 0)
(1 5.30652e-15 0)
(1 -1.95762e-15 0)
(1 -1.54438e-15 0)
(1 -5.50531e-15 0)
(1 -1.55482e-15 0)
(1 1.57333e-15 0)
(1 -4.52788e-16 0)
(1 -6.69972e-15 0)
(1 -8.19094e-15 0)
(1 -1.72601e-15 0)
(1 -3.32209e-15 0)
(1 -1.29734e-15 0)
(1 1.85771e-15 0)
(1 2.84013e-15 0)
(1 7.74077e-15 0)
(1 2.48239e-15 0)
(1 8.56429e-15 0)
(1 -7.36871e-16 0)
(1 -4.2022e-16 0)
(1 -1.98417e-15 0)
(1 3.66392e-15 0)
(1 1.81345e-15 0)
(1 3.10566e-15 0)
(1 -3.40528e-16 0)
(1 6.82679e-15 0)
(1 8.31687e-15 0)
(1 4.1413e-15 0)
(1 5.03197e-16 0)
(1 -2.06408e-15 0)
(1 -6.37353e-15 0)
(1 -2.81241e-15 0)
(1 -2.21297e-15 0)
(1 -3.98111e-16 0)
(1 4.81035e-15 0)
(1 1.61005e-15 0)
(1 -4.75683e-15 0)
(1 -2.83973e-15 0)
(1 -1.66639e-15 0)
(1 -1.23076e-15 0)
(1 -2.78503e-15 0)
(1 -2.45836e-15 0)
(1 -4.61674e-15 0)
(1 3.35332e-15 0)
(1 4.87548e-15 0)
(1 1.5906e-15 0)
(1 -5.26559e-15 0)
(1 -4.01234e-15 0)
(1 -2.90479e-15 0)
(1 5.24599e-15 0)
(1 3.03862e-15 0)
(1 2.21601e-16 0)
(1 -6.03203e-15 0)
(1 -4.85446e-16 0)
(1 8.49776e-16 0)
(1 -1.19615e-15 0)
(1 3.4953e-16 0)
(1 1.78394e-15 0)
(1 1.50797e-15 0)
(1 -8.5687e-16 0)
(1 2.86403e-17 0)
(1 -1.762e-15 0)
(1 1.829e-15 0)
(1 -2.60517e-15 0)
(1 7.24963e-15 0)
(1 1.65721e-15 0)
(1 2.30962e-15 0)
(1 -3.69926e-15 0)
(1 -3.43511e-16 0)
(1 -5.35654e-15 0)
(1 -6.36468e-15 0)
(1 7.85963e-16 0)
(1 -5.96525e-15 0)
(1 -5.74409e-15 0)
(1 -4.96601e-15 0)
(1 3.65972e-15 0)
(1 9.31675e-15 0)
(1 8.68828e-15 0)
(1 -2.12261e-15 0)
(1 3.23009e-15 0)
(1 -4.50905e-15 0)
(1 3.5215e-15 0)
(1 -4.53604e-15 0)
(1 1.65835e-15 0)
(1 1.54789e-14 0)
(1 8.80006e-15 0)
(1 6.62818e-15 0)
(1 -4.24379e-15 0)
(1 -1.21775e-14 0)
(1 3.85992e-15 0)
(1 -8.84219e-16 0)
(1 -5.42906e-15 0)
(1 -2.37982e-15 0)
(1 1.37567e-15 0)
(1 6.68961e-15 0)
(1 7.9008e-15 0)
(1 1.483e-14 0)
(1 7.03547e-15 0)
(1 7.12456e-15 0)
(1 7.68582e-15 0)
(1 -4.76468e-15 0)
(1 1.32727e-15 0)
(1 -1.02076e-14 0)
(1 -3.3263e-15 0)
(1 -1.09273e-14 0)
(1 -2.44926e-15 0)
(1 -2.26673e-15 0)
(1 -1.3939e-15 0)
(1 -2.91507e-15 0)
(1 7.7949e-16 0)
(1 -7.41882e-15 0)
(1 2.23729e-15 0)
(1 -4.10097e-15 0)
(1 3.51984e-15 0)
(1 -3.26619e-15 0)
(1 1.12986e-15 0)
(1 7.37572e-15 0)
(1 5.52717e-15 0)
(1 5.52861e-15 0)
(1 3.43292e-15 0)
(1 4.39815e-15 0)
(1 2.81011e-15 0)
(1 4.87089e-15 0)
(1 5.02659e-15 0)
(1 4.60891e-15 0)
(1 5.26081e-15 0)
(1 4.88975e-15 0)
(1 2.03793e-15 0)
(1 -1.45501e-15 0)
(1 2.73286e-15 0)
(1 -3.67527e-15 0)
(1 -6.87539e-16 0)
(1 1.22918e-17 0)
(1 1.33478e-15 0)
(1 -8.39118e-16 0)
(1 1.02038e-15 0)
(1 3.24574e-15 0)
(1 -4.92687e-16 0)
(1 -6.75104e-15 0)
(1 -9.81037e-15 0)
(1 -7.77492e-15 0)
(1 -2.54381e-15 0)
(1 -2.76416e-15 0)
(1 -1.73333e-15 0)
(1 7.5249e-16 0)
(1 -4.73743e-15 0)
(1 -3.15297e-15 0)
(1 1.46687e-15 0)
(1 2.40469e-15 0)
(1 1.99981e-15 0)
(1 -3.93509e-15 0)
(1 2.34631e-15 0)
(1 -1.58342e-15 0)
(1 -9.02238e-16 0)
(1 -3.04942e-17 0)
(1 -1.1043e-15 0)
(1 3.14903e-15 0)
(1 5.56312e-15 0)
(1 4.00906e-15 0)
(1 6.88883e-15 0)
(1 2.79829e-15 0)
(1 4.47245e-15 0)
(1 2.57859e-15 0)
(1 3.83805e-16 0)
(1 4.4723e-15 0)
(1 -3.42379e-16 0)
(1 -3.45406e-15 0)
(1 -3.28225e-15 0)
(1 -5.89004e-15 0)
(1 -9.45738e-15 0)
(1 -2.40922e-15 0)
(1 4.76622e-15 0)
(1 -2.83271e-15 0)
(1 9.41809e-16 0)
(1 -3.55536e-15 0)
(1 6.52316e-15 0)
(1 2.2021e-16 0)
(1 -1.45212e-15 0)
(1 -4.77883e-15 0)
(1 -1.97534e-15 0)
(1 -4.13853e-15 0)
(1 1.09582e-14 0)
(1 7.16021e-15 0)
(1 1.08732e-15 0)
(1 1.0069e-16 0)
(1 5.80013e-15 0)
(1 5.94457e-15 0)
(1 1.39735e-15 0)
(1 -7.05324e-15 0)
(1 -6.18278e-15 0)
(1 -7.80877e-15 0)
(1 4.37047e-15 0)
(1 9.53571e-16 0)
(1 -3.25948e-15 0)
(1 2.44553e-16 0)
(1 6.1425e-15 0)
(1 9.99788e-15 0)
(1 3.19591e-15 0)
(1 8.21276e-15 0)
(1 5.23032e-15 0)
(1 2.90313e-16 0)
(1 9.96571e-16 0)
(1 2.03099e-15 0)
(1 -3.56508e-15 0)
(1 7.24993e-16 0)
(1 -7.27182e-15 0)
(1 -7.183e-15 0)
(1 -8.37833e-15 0)
(1 -7.77203e-15 0)
(1 -4.04046e-15 0)
(1 -5.13992e-15 0)
(1 -9.55103e-16 0)
(1 -4.611e-15 0)
(1 7.3935e-16 0)
(1 4.26988e-15 0)
(1 1.91391e-15 0)
(1 3.47465e-15 0)
(1 -2.27062e-15 0)
(1 7.88738e-15 0)
(1 5.34374e-15 0)
(1 1.74327e-15 0)
(1 -1.31485e-15 0)
(1 4.24661e-15 0)
(1 1.14678e-15 0)
(1 4.59209e-15 0)
(1 1.16831e-15 0)
(1 1.81256e-15 0)
(1 4.51575e-15 0)
(1 -1.5483e-15 0)
(1 1.44404e-15 0)
(1 2.91835e-15 0)
(1 -1.96874e-15 0)
(1 -1.14483e-16 0)
(1 2.08709e-15 0)
(1 3.24252e-15 0)
(1 1.08594e-14 0)
(1 7.45532e-15 0)
(1 1.12768e-15 0)
(1 -6.32474e-15 0)
(1 -3.80895e-15 0)
(1 -6.98292e-15 0)
(1 -4.60647e-15 0)
(1 1.47432e-15 0)
(1 8.20426e-17 0)
(1 1.83749e-15 0)
(1 5.52326e-16 0)
(1 -1.77338e-15 0)
(1 -2.25896e-18 0)
(1 3.30164e-15 0)
(1 1.16998e-15 0)
(1 1.26851e-15 0)
(1 -1.41359e-15 0)
(1 -2.26134e-15 0)
(1 -9.89892e-16 0)
(1 -1.47282e-15 0)
(1 4.9084e-15 0)
(1 4.80182e-15 0)
(1 3.41678e-15 0)
(1 1.37104e-15 0)
(1 4.50677e-15 0)
(1 -2.6233e-17 0)
(1 8.08222e-15 0)
(1 1.06783e-15 0)
(1 3.43246e-15 0)
(1 5.69883e-16 0)
(1 4.72639e-15 0)
(1 -2.59844e-15 0)
(1 -6.33204e-16 0)
(1 -1.09771e-15 0)
(1 -2.67697e-15 0)
(1 3.10747e-15 0)
(1 -7.55525e-16 0)
(1 2.97945e-15 0)
(1 2.63925e-15 0)
(1 4.4792e-15 0)
(1 -1.60172e-15 0)
(1 -9.26771e-15 0)
(1 -5.51563e-15 0)
(1 8.06392e-16 0)
(1 2.82044e-15 0)
(1 6.1078e-16 0)
(1 2.05938e-15 0)
(1 1.53109e-14 0)
(1 7.51886e-15 0)
(1 -4.539e-15 0)
(1 2.89494e-15 0)
(1 -4.92358e-16 0)
(1 3.7648e-15 0)
(1 -1.33301e-15 0)
(1 -1.26439e-14 0)
(1 -1.06924e-14 0)
(1 2.53232e-15 0)
(1 1.36968e-14 0)
(1 8.93485e-15 0)
(1 3.06539e-15 0)
(1 4.52246e-15 0)
(1 1.78078e-15 0)
(1 5.3685e-15 0)
(1 3.75765e-15 0)
(1 1.88747e-15 0)
(1 7.52885e-15 0)
(1 -3.45812e-15 0)
(1 1.76173e-15 0)
(1 -5.53732e-15 0)
(1 1.6488e-15 0)
(1 -4.98951e-15 0)
(1 4.79233e-15 0)
(1 -4.513e-15 0)
(1 -5.46024e-15 0)
(1 -8.76516e-15 0)
(1 2.47672e-15 0)
(1 -7.69375e-15 0)
(1 2.1952e-15 0)
(1 4.80539e-16 0)
(1 1.1056e-14 0)
(1 6.08209e-15 0)
(1 -2.03185e-15 0)
(1 -6.05121e-16 0)
(1 3.92221e-15 0)
(1 5.7737e-15 0)
(1 7.21215e-15 0)
(1 5.18429e-15 0)
(1 3.14627e-15 0)
(1 3.46688e-15 0)
(1 5.12774e-15 0)
(1 3.40863e-15 0)
(1 3.61754e-15 0)
(1 -1.36937e-16 0)
(1 -3.03064e-15 0)
(1 -1.68597e-15 0)
(1 8.37778e-15 0)
(1 2.89507e-15 0)
(1 3.87172e-15 0)
(1 -3.9464e-15 0)
(1 2.95873e-15 0)
(1 7.25105e-15 0)
(1 7.82801e-15 0)
(1 6.32795e-15 0)
(1 5.58276e-15 0)
(1 8.99746e-15 0)
(1 7.6695e-15 0)
(1 8.68276e-15 0)
(1 6.42401e-16 0)
(1 -2.10065e-16 0)
(1 -2.98752e-16 0)
(1 -2.5635e-15 0)
(1 -6.9491e-15 0)
(1 -5.68953e-15 0)
(1 -3.4091e-15 0)
(1 1.80957e-15 0)
(1 6.22001e-15 0)
(1 -9.88496e-16 0)
(1 5.29903e-15 0)
(1 4.47697e-16 0)
(1 -3.98714e-15 0)
(1 -3.14303e-15 0)
(1 -1.06084e-15 0)
(1 -4.3176e-15 0)
(1 -5.40432e-16 0)
(1 -1.03775e-15 0)
(1 1.07563e-15 0)
(1 4.12923e-15 0)
(1 5.53963e-15 0)
(1 3.40161e-15 0)
(1 4.05586e-15 0)
(1 9.40505e-15 0)
(1 4.9444e-16 0)
(1 5.27287e-15 0)
(1 5.19986e-15 0)
(1 1.00049e-14 0)
(1 7.88417e-15 0)
(1 -1.36171e-15 0)
(1 -1.99027e-16 0)
(1 5.88784e-15 0)
(1 4.9021e-15 0)
(1 -2.10217e-15 0)
(1 -4.09564e-15 0)
(1 1.67311e-15 0)
(1 7.3945e-15 0)
(1 3.65004e-15 0)
(1 4.50237e-15 0)
(1 -5.98394e-15 0)
(1 1.38049e-15 0)
(1 -4.1438e-15 0)
(1 4.02304e-15 0)
(1 2.89229e-15 0)
(1 1.01142e-15 0)
(1 4.09498e-16 0)
(1 -8.66576e-16 0)
(1 1.16092e-15 0)
(1 5.77325e-15 0)
(1 1.52325e-15 0)
(1 5.36475e-15 0)
(1 -2.19205e-15 0)
(1 1.57383e-15 0)
(1 -3.01092e-15 0)
(1 -1.00742e-14 0)
(1 3.20943e-15 0)
(1 4.46571e-16 0)
(1 4.9584e-15 0)
(1 7.38458e-15 0)
(1 7.19745e-15 0)
(1 2.09025e-15 0)
(1 -5.21705e-16 0)
(1 -4.50601e-15 0)
(1 -4.18384e-16 0)
(1 -7.75454e-16 0)
(1 -5.20866e-15 0)
(1 2.10034e-15 0)
(1 -2.06675e-15 0)
(1 -3.03443e-16 0)
(1 -2.22196e-15 0)
(1 1.31942e-14 0)
(1 1.15414e-14 0)
(1 9.87817e-15 0)
(1 -6.29025e-15 0)
(1 -7.10824e-15 0)
(1 -5.68632e-15 0)
(1 1.0622e-15 0)
(1 5.22651e-15 0)
(1 2.55597e-15 0)
(1 7.98099e-15 0)
(1 6.77444e-16 0)
(1 2.4793e-15 0)
(1 -2.19996e-15 0)
(1 4.89218e-15 0)
(1 1.39301e-15 0)
(1 4.08751e-15 0)
(1 7.5367e-16 0)
(1 1.21088e-15 0)
(1 4.34944e-15 0)
(1 9.20803e-15 0)
(1 6.52342e-15 0)
(1 3.51517e-15 0)
(1 -1.86445e-15 0)
(1 -2.5328e-15 0)
(1 2.06438e-15 0)
(1 2.93412e-15 0)
(1 4.64929e-15 0)
(1 6.57961e-16 0)
(1 5.88586e-15 0)
(1 8.5332e-15 0)
(1 -2.00401e-16 0)
(1 -3.42581e-15 0)
(1 -7.72327e-16 0)
(1 2.73027e-15 0)
(1 2.26342e-15 0)
(1 8.91892e-15 0)
(1 3.72599e-15 0)
(1 1.41972e-15 0)
(1 -2.28696e-15 0)
(1 1.8197e-15 0)
(1 4.84561e-15 0)
(1 2.14018e-15 0)
(1 9.67581e-16 0)
(1 3.96517e-16 0)
(1 3.7988e-15 0)
(1 1.63662e-15 0)
(1 4.66827e-15 0)
(1 1.34576e-15 0)
(1 6.67572e-15 0)
(1 4.22061e-15 0)
(1 8.879e-15 0)
(1 2.83359e-15 0)
(1 6.92015e-15 0)
(1 5.45537e-15 0)
(1 6.46272e-15 0)
(1 8.89307e-15 0)
(1 1.16554e-14 0)
(1 7.14014e-15 0)
(1 6.20935e-15 0)
(1 2.85357e-16 0)
(1 -1.38038e-15 0)
(1 -3.43802e-15 0)
(1 -3.68632e-15 0)
(1 -3.20698e-16 0)
(1 6.60433e-15 0)
(1 2.51772e-16 0)
(1 8.60627e-15 0)
(1 -1.43541e-15 0)
(1 -1.13582e-15 0)
(1 -3.22098e-15 0)
(1 -4.34334e-15 0)
(1 1.03753e-15 0)
(1 1.37783e-14 0)
(1 3.65744e-15 0)
(1 9.97566e-15 0)
(1 4.34349e-15 0)
(1 4.08426e-15 0)
(1 6.30183e-15 0)
(1 7.09154e-16 0)
(1 1.4235e-15 0)
(1 -5.24222e-15 0)
(1 -1.23004e-14 0)
(1 -1.29965e-14 0)
(1 -1.0254e-14 0)
(1 -1.04739e-14 0)
(1 3.49943e-15 0)
(1 6.97112e-15 0)
(1 1.29454e-14 0)
(1 5.91258e-15 0)
(1 1.04861e-14 0)
(1 -9.45939e-16 0)
(1 -4.73236e-15 0)
(1 -3.96883e-15 0)
(1 5.0829e-15 0)
(1 -4.80301e-15 0)
(1 -3.41348e-15 0)
(1 1.18401e-15 0)
(1 7.45108e-15 0)
(1 -1.78279e-15 0)
(1 4.53254e-15 0)
(1 -6.08818e-15 0)
(1 -4.20216e-15 0)
(1 -1.35824e-15 0)
(1 1.49654e-15 0)
(1 3.72717e-15 0)
(1 2.85886e-15 0)
(1 3.59143e-15 0)
(1 5.57746e-15 0)
(1 1.77754e-15 0)
(1 7.4736e-15 0)
(1 4.88207e-15 0)
(1 7.23608e-15 0)
(1 4.63325e-15 0)
(1 5.78815e-15 0)
(1 4.81102e-15 0)
(1 6.41128e-15 0)
(1 9.61703e-16 0)
(1 -4.97143e-15 0)
(1 -2.28345e-15 0)
(1 2.24984e-15 0)
(1 1.12831e-14 0)
(1 1.29572e-14 0)
(1 9.11562e-15 0)
(1 1.80825e-15 0)
(1 2.21191e-15 0)
(1 7.29891e-15 0)
(1 3.81972e-15 0)
(1 -5.97998e-16 0)
(1 3.45416e-15 0)
(1 3.33511e-15 0)
(1 4.63162e-15 0)
(1 5.77255e-15 0)
(1 2.86719e-15 0)
(1 3.70284e-15 0)
(1 5.5548e-15 0)
(1 5.74022e-15 0)
(1 -8.70431e-16 0)
(1 -1.25131e-16 0)
(1 -3.21349e-15 0)
(1 -4.57398e-15 0)
(1 -2.22139e-15 0)
(1 7.46703e-16 0)
(1 2.87891e-15 0)
(1 4.40981e-15 0)
(1 1.25752e-15 0)
(1 4.28552e-15 0)
(1 1.45696e-15 0)
(1 -8.01391e-16 0)
(1 4.54613e-15 0)
(1 5.04124e-15 0)
(1 6.39754e-15 0)
(1 3.57996e-15 0)
(1 2.46005e-15 0)
(1 6.13465e-15 0)
(1 1.02186e-14 0)
(1 9.97346e-15 0)
(1 1.61104e-14 0)
(1 8.21419e-15 0)
(1 1.0455e-14 0)
(1 -1.67566e-15 0)
(1 -4.60554e-15 0)
(1 -4.85555e-15 0)
(1 -9.65948e-15 0)
(1 4.17369e-16 0)
(1 1.03759e-14 0)
(1 3.90315e-15 0)
(1 4.22924e-15 0)
(1 -4.05207e-15 0)
(1 -2.01212e-15 0)
(1 -1.37523e-15 0)
(1 -1.44202e-15 0)
(1 4.89075e-15 0)
(1 1.34747e-14 0)
(1 7.74496e-15 0)
(1 9.53049e-15 0)
(1 -1.54068e-15 0)
(1 4.11928e-15 0)
(1 -3.44165e-16 0)
(1 -3.50091e-15 0)
(1 -6.92197e-15 0)
(1 -5.65177e-15 0)
(1 4.19684e-15 0)
(1 4.08333e-15 0)
(1 -6.98782e-15 0)
(1 -4.69225e-15 0)
(1 1.26466e-15 0)
(1 7.6872e-15 0)
(1 6.66765e-16 0)
(1 1.73542e-15 0)
(1 -3.78483e-15 0)
(1 -3.33857e-15 0)
(1 -1.33626e-14 0)
(1 -3.97675e-15 0)
(1 4.43681e-15 0)
(1 4.8452e-15 0)
(1 4.82283e-15 0)
(1 4.48589e-15 0)
(1 -1.80143e-15 0)
(1 -4.25975e-15 0)
(1 1.69852e-15 0)
(1 -3.65019e-15 0)
(1 -4.29698e-16 0)
(1 2.79442e-15 0)
(1 1.54e-14 0)
(1 8.81212e-15 0)
(1 8.62502e-15 0)
(1 -3.9824e-15 0)
(1 2.91574e-15 0)
(1 1.85028e-15 0)
(1 3.71324e-15 0)
(1 8.39612e-15 0)
(1 8.66071e-15 0)
(1 1.34496e-14 0)
(1 2.91618e-15 0)
(1 8.39755e-15 0)
(1 3.74446e-15 0)
(1 -3.73847e-15 0)
(1 4.79422e-15 0)
(1 -4.8845e-16 0)
(1 5.66408e-15 0)
(1 -1.90298e-15 0)
(1 1.45236e-15 0)
(1 -6.62125e-16 0)
(1 -1.12573e-15 0)
(1 1.00376e-15 0)
(1 8.36436e-15 0)
(1 2.31302e-14 0)
(1 1.14188e-14 0)
(1 1.2889e-14 0)
(1 1.08323e-14 0)
(1 1.25689e-14 0)
(1 1.07549e-14 0)
(1 2.08185e-15 0)
(1 3.93969e-17 0)
(1 4.30435e-16 0)
(1 5.46455e-15 0)
(1 5.6761e-15 0)
(1 9.19088e-15 0)
(1 6.95305e-16 0)
(1 -1.42582e-15 0)
(1 -1.58376e-15 0)
(1 1.94381e-15 0)
(1 1.99613e-15 0)
(1 -3.10242e-15 0)
(1 -3.20838e-15 0)
(1 1.96368e-15 0)
(1 -4.4434e-15 0)
(1 5.04645e-16 0)
(1 2.50169e-15 0)
(1 2.36378e-15 0)
(1 4.30651e-15 0)
(1 6.84291e-15 0)
(1 7.96635e-15 0)
(1 1.02803e-14 0)
(1 1.67059e-14 0)
(1 2.07017e-14 0)
(1 2.12625e-14 0)
(1 2.09355e-14 0)
(1 2.07769e-14 0)
(1 -8.4224e-17 0)
(1 7.93046e-16 0)
(1 5.19365e-15 0)
(1 1.15567e-15 0)
(1 -4.75022e-16 0)
(1 -4.66931e-15 0)
(1 4.70257e-15 0)
(1 -2.8202e-15 0)
(1 3.87715e-15 0)
(1 2.83157e-15 0)
(1 6.70656e-15 0)
(1 2.89646e-16 0)
(1 7.24849e-16 0)
(1 -4.38101e-15 0)
(1 1.49045e-15 0)
(1 -4.70369e-16 0)
(1 -3.1948e-15 0)
(1 3.1144e-15 0)
(1 -1.52314e-15 0)
(1 3.99249e-15 0)
(1 -8.01211e-15 0)
(1 -7.56458e-15 0)
(1 -2.6391e-16 0)
(1 1.02791e-14 0)
(1 1.79158e-15 0)
(1 4.84316e-15 0)
(1 2.76641e-15 0)
(1 5.93747e-15 0)
(1 -5.10002e-15 0)
(1 2.93775e-15 0)
(1 -4.17206e-15 0)
(1 7.4798e-15 0)
(1 -2.6298e-15 0)
(1 2.68655e-15 0)
(1 -7.80293e-15 0)
(1 -3.6484e-15 0)
(1 -3.48033e-15 0)
(1 4.76476e-16 0)
(1 -7.50472e-15 0)
(1 2.77307e-15 0)
(1 2.41352e-15 0)
(1 5.59855e-15 0)
(1 1.40119e-15 0)
(1 2.58832e-15 0)
(1 -3.72403e-16 0)
(1 -4.71402e-15 0)
(1 3.00498e-15 0)
(1 -7.64808e-16 0)
(1 1.34313e-15 0)
(1 5.91003e-15 0)
(1 8.20143e-15 0)
(1 8.88492e-15 0)
(1 8.23553e-15 0)
(1 5.00443e-15 0)
(1 4.99048e-15 0)
(1 4.63406e-15 0)
(1 3.24561e-15 0)
(1 -1.15468e-15 0)
(1 8.81405e-15 0)
(1 1.1225e-14 0)
(1 1.03778e-14 0)
(1 7.27478e-16 0)
(1 6.01657e-15 0)
(1 2.96525e-15 0)
(1 1.55668e-15 0)
(1 4.62443e-15 0)
(1 7.60563e-15 0)
(1 1.38703e-14 0)
(1 2.23978e-14 0)
(1 1.72829e-14 0)
(1 3.62194e-15 0)
(1 6.31551e-15 0)
(1 4.28813e-15 0)
(1 4.28251e-16 0)
(1 -1.6185e-15 0)
(1 4.59247e-15 0)
(1 9.92955e-15 0)
(1 9.3336e-15 0)
(1 6.52408e-15 0)
(1 5.1967e-16 0)
(1 2.85884e-15 0)
(1 -3.99856e-16 0)
(1 -3.47998e-15 0)
(1 -2.38275e-15 0)
(1 -7.84523e-16 0)
(1 3.37427e-15 0)
(1 5.7365e-15 0)
(1 5.56107e-15 0)
(1 2.22488e-15 0)
(1 2.54352e-15 0)
(1 3.96914e-15 0)
(1 4.93878e-15 0)
(1 9.03051e-15 0)
(1 1.26152e-14 0)
(1 1.51771e-14 0)
(1 1.0021e-14 0)
(1 1.88021e-14 0)
(1 1.4399e-14 0)
(1 2.59586e-14 0)
(1 2.43133e-14 0)
(1 -8.0894e-16 0)
(1 1.92635e-15 0)
(1 -2.28569e-15 0)
(1 -5.5316e-16 0)
(1 -5.70099e-15 0)
(1 -2.20658e-15 0)
(1 -1.76827e-15 0)
(1 -5.80851e-15 0)
(1 4.07117e-15 0)
(1 6.46643e-15 0)
(1 6.57871e-15 0)
(1 1.80313e-15 0)
(1 3.7139e-15 0)
(1 -6.50295e-15 0)
(1 -4.53312e-15 0)
(1 -1.16523e-15 0)
(1 1.14608e-14 0)
(1 4.17688e-16 0)
(1 -6.64185e-16 0)
(1 1.1499e-15 0)
(1 -4.84582e-16 0)
(1 2.28916e-15 0)
(1 -4.5357e-15 0)
(1 -4.45323e-15 0)
(1 3.48092e-15 0)
(1 4.43632e-15 0)
(1 9.37675e-16 0)
(1 -5.30371e-15 0)
(1 -4.59035e-15 0)
(1 -1.06351e-15 0)
(1 -7.27103e-15 0)
(1 4.3433e-15 0)
(1 5.34415e-15 0)
(1 8.58962e-15 0)
(1 -5.73493e-15 0)
(1 -5.54814e-15 0)
(1 -1.24965e-16 0)
(1 5.54809e-16 0)
(1 -5.54543e-16 0)
(1 -1.43019e-15 0)
(1 -2.86568e-15 0)
(1 -1.03988e-15 0)
(1 1.71246e-15 0)
(1 -3.29057e-15 0)
(1 -1.18767e-15 0)
(1 -3.43213e-15 0)
(1 3.2569e-15 0)
(1 4.31558e-15 0)
(1 4.90972e-15 0)
(1 1.11544e-14 0)
(1 1.75627e-14 0)
(1 1.245e-14 0)
(1 1.40086e-14 0)
(1 3.43806e-15 0)
(1 3.46764e-15 0)
(1 -1.46471e-15 0)
(1 -9.8516e-16 0)
(1 1.25497e-15 0)
(1 -1.3243e-15 0)
(1 4.78423e-15 0)
(1 1.018e-14 0)
(1 8.77934e-15 0)
(1 9.53367e-15 0)
(1 5.21712e-15 0)
(1 2.90159e-15 0)
(1 5.61472e-15 0)
(1 8.45088e-15 0)
(1 -2.09385e-15 0)
(1 7.61271e-15 0)
(1 1.1185e-14 0)
(1 1.05604e-14 0)
(1 9.00365e-15 0)
(1 4.96369e-15 0)
(1 1.41102e-15 0)
(1 3.03313e-15 0)
(1 9.12223e-15 0)
(1 7.90115e-15 0)
(1 7.05531e-15 0)
(1 1.0974e-14 0)
(1 1.00879e-14 0)
(1 3.63616e-15 0)
(1 6.73058e-16 0)
(1 1.03358e-15 0)
(1 -2.90938e-15 0)
(1 3.11058e-15 0)
(1 -1.79627e-15 0)
(1 1.17652e-15 0)
(1 2.83001e-15 0)
(1 3.69309e-15 0)
(1 4.63497e-16 0)
(1 5.38442e-15 0)
(1 1.0122e-15 0)
(1 1.25967e-14 0)
(1 4.28127e-15 0)
(1 1.2765e-14 0)
(1 6.48375e-15 0)
(1 1.08155e-14 0)
(1 9.98727e-15 0)
(1 2.01608e-14 0)
(1 2.17354e-14 0)
(1 1.86998e-15 0)
(1 -2.61113e-15 0)
(1 -9.53837e-16 0)
(1 2.11569e-15 0)
(1 -2.1367e-15 0)
(1 2.56531e-15 0)
(1 -9.27455e-15 0)
(1 5.45518e-15 0)
(1 -1.48736e-15 0)
(1 9.60213e-15 0)
(1 4.8584e-15 0)
(1 5.56174e-15 0)
(1 7.121e-15 0)
(1 1.68623e-15 0)
(1 -5.78925e-15 0)
(1 -7.27397e-15 0)
(1 2.62909e-15 0)
(1 -9.548e-15 0)
(1 5.15526e-16 0)
(1 -1.24555e-14 0)
(1 -2.09671e-16 0)
(1 2.17127e-15 0)
(1 1.29515e-14 0)
(1 7.80896e-15 0)
(1 9.19133e-15 0)
(1 3.17159e-15 0)
(1 -2.78937e-15 0)
(1 1.2991e-15 0)
(1 3.54125e-15 0)
(1 2.6901e-16 0)
(1 -3.07387e-15 0)
(1 -6.09393e-15 0)
(1 -2.1522e-16 0)
(1 -2.29868e-15 0)
(1 -3.82064e-16 0)
(1 -1.03974e-14 0)
(1 3.85339e-15 0)
(1 4.06801e-15 0)
(1 -1.06845e-15 0)
(1 -4.73963e-15 0)
(1 -4.75122e-15 0)
(1 4.69226e-15 0)
(1 5.54753e-15 0)
(1 -2.4853e-15 0)
(1 -8.44382e-15 0)
(1 3.11192e-15 0)
(1 -5.56885e-16 0)
(1 6.04629e-15 0)
(1 1.03182e-14 0)
(1 1.03474e-14 0)
(1 1.47722e-14 0)
(1 1.12906e-14 0)
(1 3.79741e-15 0)
(1 7.81695e-16 0)
(1 4.38339e-15 0)
(1 -2.61426e-15 0)
(1 -5.01323e-15 0)
(1 -2.94634e-15 0)
(1 1.15667e-15 0)
(1 5.80074e-15 0)
(1 2.22127e-14 0)
(1 1.42789e-14 0)
(1 8.51704e-15 0)
(1 7.27078e-16 0)
(1 1.3809e-14 0)
(1 4.23217e-15 0)
(1 2.29348e-15 0)
(1 5.80881e-15 0)
(1 -1.53486e-15 0)
(1 4.1666e-15 0)
(1 1.33075e-14 0)
(1 1.14421e-14 0)
(1 7.58096e-15 0)
(1 -1.99978e-15 0)
(1 1.83785e-15 0)
(1 5.65559e-15 0)
(1 2.05931e-15 0)
(1 5.61357e-15 0)
(1 7.46816e-15 0)
(1 5.26744e-15 0)
(1 3.9295e-15 0)
(1 7.83493e-15 0)
(1 7.22931e-15 0)
(1 7.78259e-15 0)
(1 4.87243e-15 0)
(1 -5.66742e-15 0)
(1 -3.35131e-16 0)
(1 -9.64693e-17 0)
(1 1.02759e-14 0)
(1 4.26241e-16 0)
(1 3.70646e-15 0)
(1 5.01201e-15 0)
(1 1.1465e-14 0)
(1 2.55441e-15 0)
(1 8.57923e-15 0)
(1 1.71444e-14 0)
(1 1.51337e-14 0)
(1 1.08639e-14 0)
(1 7.70407e-15 0)
(1 1.54874e-14 0)
(1 3.21395e-15 0)
(1 8.16275e-16 0)
(1 -5.34274e-15 0)
(1 -1.78341e-15 0)
(1 3.20734e-16 0)
(1 -4.77076e-15 0)
(1 -4.89702e-15 0)
(1 3.16938e-16 0)
(1 -2.54497e-15 0)
(1 9.30471e-16 0)
(1 6.62823e-15 0)
(1 8.71172e-15 0)
(1 3.09917e-15 0)
(1 4.48203e-15 0)
(1 -5.13295e-15 0)
(1 -1.32664e-15 0)
(1 -3.40819e-15 0)
(1 7.78415e-15 0)
(1 9.5981e-15 0)
(1 5.29228e-15 0)
(1 2.56075e-15 0)
(1 -6.92254e-15 0)
(1 -2.3076e-15 0)
(1 -7.06283e-15 0)
(1 3.09505e-15 0)
(1 1.31621e-15 0)
(1 -6.25714e-15 0)
(1 7.00532e-16 0)
(1 1.96224e-15 0)
(1 -3.99778e-15 0)
(1 -3.2004e-15 0)
(1 -1.46143e-14 0)
(1 -3.86392e-15 0)
(1 -5.83607e-15 0)
(1 2.0316e-15 0)
(1 6.43279e-15 0)
(1 1.04326e-14 0)
(1 -2.79333e-15 0)
(1 -1.24213e-15 0)
(1 7.93244e-16 0)
(1 -7.54348e-16 0)
(1 3.24149e-15 0)
(1 -1.9288e-15 0)
(1 -8.54995e-15 0)
(1 -8.07622e-15 0)
(1 6.94588e-15 0)
(1 4.33981e-15 0)
(1 1.47354e-14 0)
(1 1.56138e-14 0)
(1 1.48041e-14 0)
(1 3.69695e-15 0)
(1 7.23051e-15 0)
(1 4.00851e-17 0)
(1 5.27141e-16 0)
(1 3.37857e-15 0)
(1 5.11642e-15 0)
(1 -3.46953e-15 0)
(1 -2.53846e-15 0)
(1 -6.54715e-15 0)
(1 -2.32005e-16 0)
(1 -2.59056e-15 0)
(1 8.26579e-15 0)
(1 3.93884e-15 0)
(1 1.46516e-14 0)
(1 1.62903e-14 0)
(1 1.12185e-14 0)
(1 -2.33311e-16 0)
(1 2.64233e-15 0)
(1 6.33782e-15 0)
(1 -4.47243e-16 0)
(1 2.61795e-15 0)
(1 -1.42917e-15 0)
(1 7.03895e-15 0)
(1 5.38852e-15 0)
(1 5.98309e-15 0)
(1 1.69271e-15 0)
(1 -2.53353e-15 0)
(1 4.4053e-15 0)
(1 -2.94654e-15 0)
(1 6.10141e-15 0)
(1 5.86114e-15 0)
(1 1.02179e-14 0)
(1 6.30573e-15 0)
(1 1.16237e-14 0)
(1 3.54185e-15 0)
(1 4.13449e-15 0)
(1 3.66201e-15 0)
(1 9.31534e-15 0)
(1 7.51635e-15 0)
(1 3.80449e-15 0)
(1 5.28163e-15 0)
(1 6.83183e-15 0)
(1 -6.86471e-17 0)
(1 2.2413e-15 0)
(1 2.22012e-15 0)
(1 1.14055e-14 0)
(1 1.04923e-14 0)
(1 8.62349e-15 0)
(1 3.09423e-15 0)
(1 7.66419e-15 0)
(1 -2.21551e-16 0)
(1 4.46722e-15 0)
(1 -3.52888e-15 0)
(1 -6.56167e-15 0)
(1 -1.67427e-15 0)
(1 -3.25982e-15 0)
(1 -1.22244e-15 0)
(1 -1.27594e-15 0)
(1 5.66295e-15 0)
(1 4.37537e-15 0)
(1 9.26201e-15 0)
(1 1.58797e-15 0)
(1 -6.23814e-15 0)
(1 1.06959e-15 0)
(1 -4.59854e-15 0)
(1 3.98663e-15 0)
(1 5.43876e-16 0)
(1 7.68842e-15 0)
(1 -8.66518e-15 0)
(1 4.10204e-15 0)
(1 -6.27127e-15 0)
(1 2.96576e-15 0)
(1 -8.82627e-15 0)
(1 7.30032e-16 0)
(1 5.04756e-15 0)
(1 9.23711e-15 0)
(1 8.46852e-16 0)
(1 8.83385e-16 0)
(1 -6.14874e-16 0)
(1 -1.61932e-16 0)
(1 -8.00909e-15 0)
(1 -1.14635e-14 0)
(1 -6.32208e-15 0)
(1 -7.72625e-15 0)
(1 6.49867e-15 0)
(1 1.57121e-14 0)
(1 8.76023e-15 0)
(1 -1.8781e-15 0)
(1 -3.4029e-15 0)
(1 -1.0816e-14 0)
(1 -6.83876e-15 0)
(1 -3.43898e-15 0)
(1 -7.21286e-17 0)
(1 -2.61149e-16 0)
(1 9.75445e-15 0)
(1 9.30551e-15 0)
(1 1.11257e-14 0)
(1 7.19332e-15 0)
(1 2.90541e-15 0)
(1 4.92298e-15 0)
(1 -8.32417e-15 0)
(1 3.20195e-15 0)
(1 3.22405e-15 0)
(1 8.72887e-15 0)
(1 2.9766e-15 0)
(1 8.40764e-15 0)
(1 4.83507e-15 0)
(1 1.30863e-14 0)
(1 1.48719e-15 0)
(1 5.08248e-15 0)
(1 -6.10613e-15 0)
(1 1.44405e-15 0)
(1 -1.6608e-15 0)
(1 1.00786e-14 0)
(1 -3.58221e-15 0)
(1 1.09136e-14 0)
(1 6.59134e-15 0)
(1 1.1246e-14 0)
(1 6.53167e-15 0)
(1 -5.52129e-16 0)
(1 1.71841e-16 0)
(1 1.85723e-15 0)
(1 1.67781e-15 0)
(1 1.92559e-14 0)
(1 9.25328e-15 0)
(1 3.20509e-15 0)
(1 4.87661e-15 0)
(1 9.45271e-15 0)
(1 6.64913e-15 0)
(1 1.14084e-14 0)
(1 4.22202e-15 0)
(1 1.1731e-15 0)
(1 8.40607e-15 0)
(1 6.8897e-15 0)
(1 1.14605e-15 0)
(1 1.00495e-14 0)
(1 5.93071e-15 0)
(1 1.19235e-14 0)
(1 4.92463e-15 0)
(1 8.02899e-15 0)
(1 1.03666e-14 0)
(1 7.77959e-15 0)
(1 1.55097e-15 0)
(1 3.08079e-15 0)
(1 -2.34615e-16 0)
(1 6.18092e-15 0)
(1 4.91953e-15 0)
(1 1.17253e-14 0)
(1 8.56766e-15 0)
(1 8.54073e-15 0)
(1 1.73886e-15 0)
(1 1.10398e-16 0)
(1 1.82281e-15 0)
(1 -4.07197e-15 0)
(1 -1.22213e-15 0)
(1 -4.1249e-15 0)
(1 -7.63413e-16 0)
(1 -8.12836e-15 0)
(1 -1.49879e-15 0)
(1 6.0092e-15 0)
(1 4.16357e-15 0)
(1 -2.79757e-16 0)
(1 4.18616e-15 0)
(1 -2.32765e-15 0)
(1 6.04459e-15 0)
(1 -2.63469e-15 0)
(1 2.55305e-15 0)
(1 -6.04273e-15 0)
(1 -9.49792e-15 0)
(1 2.33609e-15 0)
(1 -4.20131e-15 0)
(1 1.79618e-15 0)
(1 2.5785e-15 0)
(1 6.15256e-15 0)
(1 4.65644e-15 0)
(1 3.95515e-15 0)
(1 5.89612e-15 0)
(1 -2.04806e-15 0)
(1 -4.55553e-15 0)
(1 -4.05471e-15 0)
(1 -3.32568e-15 0)
(1 -1.94386e-15 0)
(1 2.24218e-15 0)
(1 -2.2558e-16 0)
(1 2.08699e-15 0)
(1 7.9477e-15 0)
(1 -1.48935e-15 0)
(1 3.54727e-16 0)
(1 -3.72765e-15 0)
(1 -1.10125e-14 0)
(1 -5.67823e-15 0)
(1 -4.5554e-15 0)
(1 -3.37311e-15 0)
(1 8.73648e-15 0)
(1 6.58023e-15 0)
(1 5.58581e-15 0)
(1 1.00273e-14 0)
(1 -1.0572e-15 0)
(1 -5.17053e-15 0)
(1 -4.601e-15 0)
(1 4.40567e-15 0)
(1 8.225e-15 0)
(1 9.25567e-15 0)
(1 1.33928e-14 0)
(1 9.35788e-15 0)
(1 4.06919e-15 0)
(1 8.39107e-15 0)
(1 6.66779e-15 0)
(1 2.67723e-15 0)
(1 6.83206e-15 0)
(1 7.11535e-15 0)
(1 4.24998e-15 0)
(1 5.45013e-15 0)
(1 2.19787e-15 0)
(1 6.06142e-15 0)
(1 7.22779e-16 0)
(1 6.14083e-15 0)
(1 1.13166e-14 0)
(1 1.63228e-14 0)
(1 1.02708e-14 0)
(1 9.10432e-15 0)
(1 4.14955e-15 0)
(1 -5.51605e-16 0)
(1 1.03834e-14 0)
(1 8.5041e-15 0)
(1 9.68508e-15 0)
(1 7.67817e-15 0)
(1 3.28855e-15 0)
(1 5.55212e-15 0)
(1 6.26023e-15 0)
(1 8.27608e-15 0)
(1 5.00344e-15 0)
(1 4.25453e-15 0)
(1 6.10813e-15 0)
(1 2.99339e-15 0)
(1 2.4034e-15 0)
(1 2.21879e-15 0)
(1 3.77299e-15 0)
(1 1.01028e-16 0)
(1 6.94861e-15 0)
(1 5.08095e-15 0)
(1 5.17655e-15 0)
(1 9.38299e-15 0)
(1 2.66905e-15 0)
(1 9.31692e-15 0)
(1 1.90761e-15 0)
(1 5.96146e-15 0)
(1 1.0794e-14 0)
(1 1.18553e-14 0)
(1 1.18589e-14 0)
(1 -2.18262e-15 0)
(1 -4.90137e-15 0)
(1 2.11808e-16 0)
(1 -8.20406e-16 0)
(1 6.25635e-15 0)
(1 4.41116e-15 0)
(1 1.54527e-14 0)
(1 4.13515e-15 0)
(1 -2.71029e-15 0)
(1 -8.95508e-15 0)
(1 -1.13768e-14 0)
(1 -4.90615e-15 0)
(1 3.73585e-15 0)
(1 -5.61579e-15 0)
(1 -1.19134e-16 0)
(1 -5.15571e-15 0)
(1 2.56252e-17 0)
(1 -2.09965e-17 0)
(1 7.68838e-17 0)
(1 -1.0063e-14 0)
(1 3.66246e-15 0)
(1 9.01428e-16 0)
(1 8.08882e-15 0)
(1 5.2723e-16 0)
(1 -1.05179e-15 0)
(1 -2.33592e-15 0)
(1 -3.2012e-15 0)
(1 -1.06647e-14 0)
(1 -1.01363e-14 0)
(1 -7.80567e-15 0)
(1 1.88012e-15 0)
(1 3.67503e-15 0)
(1 8.41751e-15 0)
(1 6.16172e-15 0)
(1 -3.89712e-15 0)
(1 6.35254e-15 0)
(1 -5.65915e-15 0)
(1 7.73738e-16 0)
(1 -2.65802e-15 0)
(1 1.94855e-15 0)
(1 -2.94726e-15 0)
(1 -6.57375e-15 0)
(1 5.88174e-15 0)
(1 5.91641e-15 0)
(1 7.73491e-15 0)
(1 -2.71136e-15 0)
(1 4.2639e-16 0)
(1 -1.11586e-15 0)
(1 5.78799e-17 0)
(1 1.17064e-16 0)
(1 1.15633e-14 0)
(1 8.94716e-15 0)
(1 1.06077e-14 0)
(1 6.72419e-15 0)
(1 5.00262e-15 0)
(1 -2.14618e-15 0)
(1 6.51583e-15 0)
(1 -7.25698e-16 0)
(1 7.22013e-16 0)
(1 -3.01531e-15 0)
(1 -1.25319e-16 0)
(1 1.14183e-15 0)
(1 5.3831e-15 0)
(1 3.47988e-15 0)
(1 5.75011e-15 0)
(1 -5.69801e-15 0)
(1 -3.15159e-15 0)
(1 -4.52679e-15 0)
(1 8.64908e-15 0)
(1 6.88864e-15 0)
(1 8.77283e-15 0)
(1 5.92999e-15 0)
(1 6.38905e-15 0)
(1 8.32728e-15 0)
(1 1.21638e-14 0)
(1 1.09113e-14 0)
(1 4.31406e-15 0)
(1 1.89133e-15 0)
(1 1.07624e-15 0)
(1 8.29665e-15 0)
(1 7.37027e-15 0)
(1 1.23188e-14 0)
(1 3.21156e-15 0)
(1 1.19899e-14 0)
(1 1.08217e-14 0)
(1 8.47486e-15 0)
(1 3.07571e-15 0)
(1 -1.99969e-15 0)
(1 -4.6217e-15 0)
(1 3.64999e-15 0)
(1 1.70584e-16 0)
(1 2.139e-16 0)
(1 2.25635e-15 0)
(1 4.21835e-15 0)
(1 7.60476e-15 0)
(1 9.62588e-15 0)