/*--------------------------------*- C++ -*----------------------------------*\
| =========                 |                                                 |
| \\      /  F ield         | OpenFOAM: The Open Source CFD Toolbox           |
|  \\    /   O peration     | Version:  v2012                                 |
|   \\  /    A nd           | Website:  www.openfoam.com                      |
|    \\/     M anipulation  |                                                 |
\*---------------------------------------------------------------------------*/
FoamFile
{
    version     2.0;
    format      ascii;
    class       volVectorField;
    location    "70";
    object      Usup;
}
// * * * * * * * * * * * * * * * * * * * * * * * * * * * * * * * * * * * * * //

dimensions      [0 1 -1 0 0 0 0];


internalField   nonuniform List<vector> 
4000
(
(-0.00164728 -0.00102283 0)
(0.00344259 -0.000391973 0)
(0.00641949 -0.010874 0)
(-0.00389935 -0.0121639 0)
(-0.00854865 -0.00522337 0)
(0.00343719 0.00171582 0)
(0.00876146 -0.00774797 0)
(0.0043842 -0.00958487 0)
(0.00356626 -0.00739458 0)
(-0.00269802 -0.00301424 0)
(-0.00494597 -0.00283867 0)
(-0.00364674 -0.0132874 0)
(-0.0111203 -0.00885405 0)
(-0.0162581 -0.00268999 0)
(-0.0109128 -0.0013124 0)
(-0.00196411 -0.00408715 0)
(0.00171778 -0.00602444 0)
(0.00515184 -0.00296389 0)
(0.0222271 -0.00372935 0)
(0.0293915 -0.0112329 0)
(0.0249686 -0.000460538 0)
(0.0241808 0.00111404 0)
(0.0190812 -0.00773586 0)
(0.0113364 -0.00709303 0)
(-0.00160029 -0.00712397 0)
(-0.0166189 -0.0050919 0)
(-0.0262371 -0.00425479 0)
(-0.032841 -0.0079257 0)
(-0.042891 -0.0097687 0)
(-0.0452263 -0.00473096 0)
(-0.0281857 0.00218537 0)
(-0.0158138 0.000582554 0)
(-0.0217622 -0.00466975 0)
(-0.0166923 0.00293247 0)
(0.00265938 0.00276738 0)
(0.0173423 0.00553404 0)
(0.0228715 0.0102883 0)
(0.0315085 0.0167124 0)
(0.0501239 0.01803 0)
(0.0570817 0.0098393 0)
(0.0435792 -0.000735071 0)
(0.0302858 -0.00235743 0)
(0.0134154 -0.00929394 0)
(0.00103184 -0.0118118 0)
(0.00170352 -0.0119427 0)
(-0.00476833 -0.018503 0)
(-0.0240918 -0.0223244 0)
(-0.0367281 -0.0168821 0)
(-0.0306461 -0.0148235 0)
(-0.0282892 -0.0207123 0)
(-0.0232726 -0.0172125 0)
(-0.0143941 -0.0141656 0)
(-0.00659935 -0.00481044 0)
(0.00553856 -0.00425596 0)
(0.0109547 -0.00134311 0)
(0.00630493 0.000838944 0)
(-0.000133083 0.00742696 0)
(-0.00232144 0.012256 0)
(-0.00340987 0.0134405 0)
(-0.00994257 0.0114959 0)
(-0.0129247 0.020802 0)
(-0.0140144 0.0216577 0)
(-0.0145903 0.023688 0)
(0.00305463 0.0195466 0)
(0.012631 0.0142453 0)
(0.00860629 0.0121403 0)
(0.00926565 0.0106502 0)
(0.015323 0.00982705 0)
(0.0239452 -0.000329999 0)
(0.0213136 -0.00288272 0)
(0.0216978 -0.000511689 0)
(0.0254156 -0.00109984 0)
(0.0148311 -0.0031605 0)
(0.00445264 -0.00199724 0)
(-0.00103235 0.000803806 0)
(-0.00289902 -0.00286955 0)
(-0.0133749 -0.00627473 0)
(-0.0341908 -0.00550171 0)
(-0.039204 -0.00121255 0)
(-0.0307867 0.0047658 0)
(-0.0228284 0.00685908 0)
(-0.00963326 0.0119299 0)
(-0.00122075 0.0125731 0)
(-0.00400036 0.0122358 0)
(-0.00739658 0.0101954 0)
(-0.00314443 0.0180103 0)
(0.00792611 0.0188124 0)
(0.0149006 0.0133097 0)
(0.0156152 0.0144945 0)
(0.01982 0.0143036 0)
(0.0335655 0.0181977 0)
(0.0323858 0.0118491 0)
(0.0189959 0.0116476 0)
(0.0223307 0.00902579 0)
(0.0233234 0.00412537 0)
(0.00748222 0.00295455 0)
(-0.0030111 0.00655277 0)
(-0.00621805 0.00697107 0)
(-0.0146827 0.0023527 0)
(-0.0146659 -0.000869142 0)
(-0.000533664 -0.000468288 0)
(0.00175102 -0.00343769 0)
(0.00450815 -0.0258025 0)
(-0.00124776 -0.0281869 0)
(-0.00318477 -0.00930053 0)
(0.00597044 0.000245572 0)
(0.0101516 -0.0219488 0)
(0.0114653 -0.0304432 0)
(0.0121649 -0.0293438 0)
(-0.00222751 -0.0174576 0)
(-0.0194163 -0.0151331 0)
(-0.0169052 -0.0250079 0)
(-0.019209 -0.0219447 0)
(-0.0305673 -0.0140249 0)
(-0.0259497 -0.009846 0)
(-0.00890351 -0.0162221 0)
(0.00731613 -0.0150404 0)
(0.0211036 -0.0109369 0)
(0.048241 -0.0168462 0)
(0.0733879 -0.0264205 0)
(0.0738393 -0.0077386 0)
(0.0552003 -0.00418084 0)
(0.0407754 -0.0186176 0)
(0.0260292 -0.0166349 0)
(-0.00500178 -0.0186434 0)
(-0.0403289 -0.0177982 0)
(-0.0704397 -0.0194843 0)
(-0.091302 -0.0215319 0)
(-0.105864 -0.0189443 0)
(-0.102167 -0.00981978 0)
(-0.0735294 0.0075045 0)
(-0.0553852 0.00294134 0)
(-0.0514592 -0.00925772 0)
(-0.0309922 0.00602851 0)
(0.00863493 0.0142127 0)
(0.0485776 0.0169655 0)
(0.0713885 0.0267968 0)
(0.0933502 0.0429906 0)
(0.121144 0.0487458 0)
(0.126194 0.0295261 0)
(0.10406 0.00640319 0)
(0.0740514 -0.00167201 0)
(0.0337445 -0.0238081 0)
(0.00815544 -0.0339959 0)
(-0.00278248 -0.0426694 0)
(-0.0255577 -0.0578238 0)
(-0.0583587 -0.0635259 0)
(-0.0818337 -0.0584236 0)
(-0.0826487 -0.0547553 0)
(-0.0752712 -0.0561041 0)
(-0.0556954 -0.0464987 0)
(-0.0302941 -0.0360025 0)
(-0.0115086 -0.018836 0)
(0.010296 -0.0113042 0)
(0.0240742 0.0010194 0)
(0.0190707 0.00634801 0)
(0.0080791 0.0187789 0)
(-0.00230169 0.0317072 0)
(-0.0120214 0.038984 0)
(-0.0193919 0.039234 0)
(-0.0242278 0.0567119 0)
(-0.031159 0.0603057 0)
(-0.0313569 0.0677816 0)
(-0.00151555 0.0660683 0)
(0.0218579 0.0486082 0)
(0.0220807 0.0402699 0)
(0.0270192 0.0342056 0)
(0.0344771 0.0255789 0)
(0.0504379 0.00575426 0)
(0.0572053 -0.00616035 0)
(0.0590501 -0.00621368 0)
(0.0589462 -0.00719669 0)
(0.0375829 -0.0116996 0)
(0.0167583 -0.00612759 0)
(-0.00295518 -0.00314115 0)
(-0.0183369 -0.0105204 0)
(-0.0416617 -0.021524 0)
(-0.0786604 -0.0142969 0)
(-0.0874195 0.003158 0)
(-0.0733745 0.0167317 0)
(-0.0543406 0.0264764 0)
(-0.0263534 0.0340463 0)
(-0.0108022 0.0345753 0)
(-0.0140783 0.0389346 0)
(-0.0111113 0.0386188 0)
(0.00240966 0.0525789 0)
(0.0169056 0.0548527 0)
(0.0346682 0.0435749 0)
(0.0450043 0.0417482 0)
(0.0591708 0.0451437 0)
(0.0807129 0.0486771 0)
(0.0761183 0.0320709 0)
(0.0548012 0.0303166 0)
(0.0530156 0.0269084 0)
(0.0505674 0.0160781 0)
(0.0238418 0.010696 0)
(-1.83019e-05 0.0167075 0)
(-0.0173318 0.0156123 0)
(-0.0357 0.00696775 0)
(-0.026587 0.00183204 0)
(-0.00134774 -0.000348007 0)
(-0.00422204 -0.0071257 0)
(0.000720163 -0.0277322 0)
(0.00886919 -0.0338272 0)
(0.00813385 -0.0143997 0)
(0.00255181 -0.0119083 0)
(0.00219879 -0.032962 0)
(0.0107373 -0.0451696 0)
(0.0192267 -0.0457474 0)
(0.00309811 -0.0412151 0)
(-0.0225006 -0.0334866 0)
(-0.0250958 -0.0285934 0)
(-0.0301075 -0.0313978 0)
(-0.0397177 -0.0332835 0)
(-0.0352669 -0.0181159 0)
(-0.0110422 -0.0244464 0)
(0.0158129 -0.0247421 0)
(0.0318048 -0.0216014 0)
(0.0671746 -0.0246143 0)
(0.108193 -0.0270862 0)
(0.111637 -0.0213137 0)
(0.079748 -0.0173731 0)
(0.0575676 -0.0247211 0)
(0.0344171 -0.0261085 0)
(-0.0128839 -0.0246964 0)
(-0.0639712 -0.0312034 0)
(-0.105034 -0.0359434 0)
(-0.130724 -0.0359911 0)
(-0.150144 -0.0243071 0)
(-0.141649 -0.00495112 0)
(-0.109231 0.0151516 0)
(-0.093825 0.00900504 0)
(-0.0748651 -0.000838426 0)
(-0.0319369 0.0144144 0)
(0.0187537 0.0294796 0)
(0.0728381 0.0343292 0)
(0.116477 0.0439084 0)
(0.150876 0.0590203 0)
(0.175274 0.0630702 0)
(0.17149 0.0395382 0)
(0.145036 0.0218079 0)
(0.0995088 0.00132552 0)
(0.0421901 -0.0327891 0)
(0.00713849 -0.0520369 0)
(-0.0152436 -0.0748558 0)
(-0.0453234 -0.0997871 0)
(-0.0865856 -0.105248 0)
(-0.117658 -0.101467 0)
(-0.116573 -0.0976743 0)
(-0.103493 -0.0865248 0)
(-0.0759415 -0.0731018 0)
(-0.0406501 -0.0522271 0)
(-0.0126806 -0.0314891 0)
(0.0195994 -0.0127292 0)
(0.0356722 0.00280632 0)
(0.027568 0.0146778 0)
(0.0169998 0.0272995 0)
(0.00366606 0.0472158 0)
(-0.0135045 0.0706775 0)
(-0.0231738 0.0768388 0)
(-0.0297549 0.0831901 0)
(-0.0381014 0.0929826 0)
(-0.0341319 0.110005 0)
(-0.00717358 0.108248 0)
(0.018288 0.0867526 0)
(0.0281353 0.0707264 0)
(0.035898 0.0539275 0)
(0.0449891 0.033357 0)
(0.0647867 0.0134956 0)
(0.078056 -0.00391137 0)
(0.0859784 -0.0106299 0)
(0.0832058 -0.0162401 0)
(0.0572476 -0.0200128 0)
(0.0282025 -0.0124011 0)
(-0.00697167 -0.0174583 0)
(-0.0374421 -0.0199225 0)
(-0.0653622 -0.0278642 0)
(-0.0999496 -0.0183828 0)
(-0.113286 0.00932007 0)
(-0.10007 0.0319328 0)
(-0.0770054 0.0496055 0)
(-0.0446125 0.0569315 0)
(-0.0193931 0.0571645 0)
(-0.0174172 0.0676575 0)
(-0.0101357 0.0726222 0)
(0.00946952 0.0787179 0)
(0.0242259 0.0760647 0)
(0.0468804 0.0714035 0)
(0.0702939 0.0670227 0)
(0.0928025 0.0739642 0)
(0.110559 0.0741088 0)
(0.105308 0.0537182 0)
(0.0859834 0.0423212 0)
(0.0773834 0.0434549 0)
(0.0667049 0.0288068 0)
(0.0352987 0.0189243 0)
(0.00324519 0.0190365 0)
(-0.0254742 0.015896 0)
(-0.0475064 0.00543058 0)
(-0.0347945 0.00289438 0)
(-0.000179086 -0.00500847 0)
(-0.00551184 -0.0143904 0)
(-0.00246714 -0.031216 0)
(0.0153398 -0.0364874 0)
(0.0169641 -0.0228951 0)
(0.000618447 -0.0201553 0)
(-0.00314237 -0.0366494 0)
(0.0108488 -0.0414648 0)
(0.0191478 -0.0458862 0)
(0.00391144 -0.0551647 0)
(-0.0189071 -0.0486318 0)
(-0.0287772 -0.0433844 0)
(-0.0415434 -0.0472926 0)
(-0.0412027 -0.0474154 0)
(-0.0333444 -0.0284102 0)
(-0.0158018 -0.0209479 0)
(0.0203726 -0.0254327 0)
(0.0468715 -0.0218749 0)
(0.0871266 -0.0134654 0)
(0.129143 -0.0189681 0)
(0.134567 -0.030732 0)
(0.100057 -0.038662 0)
(0.0684103 -0.0392664 0)
(0.0401886 -0.041876 0)
(-0.0200289 -0.0277921 0)
(-0.0867869 -0.0279146 0)
(-0.135303 -0.0372808 0)
(-0.161727 -0.04285 0)
(-0.173169 -0.0297663 0)
(-0.162469 0.000700486 0)
(-0.138124 0.0210669 0)
(-0.124554 0.0210069 0)
(-0.0900661 0.0183386 0)
(-0.0301107 0.0268283 0)
(0.0312816 0.0424941 0)
(0.0966717 0.0570526 0)
(0.152156 0.0588061 0)
(0.193078 0.0644063 0)
(0.212134 0.0642947 0)
(0.206975 0.0490859 0)
(0.174537 0.0311757 0)
(0.109363 0.000446279 0)
(0.042063 -0.0383673 0)
(-0.00107401 -0.0637623 0)
(-0.0371273 -0.0956233 0)
(-0.0696775 -0.132513 0)
(-0.106273 -0.151791 0)
(-0.140496 -0.146441 0)
(-0.140015 -0.133413 0)
(-0.12198 -0.114122 0)
(-0.0853862 -0.0902205 0)
(-0.0398856 -0.0576581 0)
(-0.00627583 -0.0310725 0)
(0.0273372 -0.00846441 0)
(0.0449769 0.00589742 0)
(0.0379162 0.0258085 0)
(0.0281586 0.0442028 0)
(0.0205888 0.0683248 0)
(-0.00451777 0.10064 0)
(-0.0304414 0.114002 0)
(-0.035697 0.113716 0)
(-0.0331017 0.12486 0)
(-0.0336633 0.141673 0)
(-0.0156159 0.138368 0)
(0.0118528 0.120184 0)
(0.0238808 0.0937068 0)
(0.0332836 0.0656784 0)
(0.047822 0.0348337 0)
(0.0742905 0.0175369 0)
(0.0929191 -0.00132334 0)
(0.102117 -0.011392 0)
(0.0985764 -0.0279751 0)
(0.0727581 -0.0307082 0)
(0.0331009 -0.0240316 0)
(-0.011545 -0.0269536 0)
(-0.0466625 -0.0213535 0)
(-0.0823161 -0.0236295 0)
(-0.114285 -0.0173156 0)
(-0.122717 0.00643332 0)
(-0.111397 0.0327939 0)
(-0.0908182 0.0618762 0)
(-0.0587865 0.0748025 0)
(-0.0267361 0.0853648 0)
(-0.018203 0.0922979 0)
(-0.0110753 0.0970058 0)
(0.00861863 0.0977284 0)
(0.0310045 0.0890757 0)
(0.0621813 0.0882122 0)
(0.092728 0.0880796 0)
(0.121539 0.0962624 0)
(0.133177 0.0870088 0)
(0.120631 0.0714157 0)
(0.107341 0.0521377 0)
(0.0959291 0.0543193 0)
(0.0743669 0.0377442 0)
(0.0400779 0.0239291 0)
(0.00362794 0.0152745 0)
(-0.0333007 0.0100216 0)
(-0.0566372 0.00539419 0)
(-0.0367455 0.00392562 0)
(0.0013694 -0.0147933 0)
(-0.00479742 -0.0295419 0)
(0.00035048 -0.0355159 0)
(0.0262338 -0.033279 0)
(0.0286372 -0.0274859 0)
(0.00137369 -0.0209073 0)
(-0.00431094 -0.0257944 0)
(0.0109849 -0.0266111 0)
(0.012404 -0.0397199 0)
(-0.000591388 -0.0587576 0)
(-0.0200585 -0.058805 0)
(-0.0340312 -0.0557995 0)
(-0.045922 -0.0583932 0)
(-0.0386189 -0.0490364 0)
(-0.0237485 -0.0443156 0)
(-0.00825398 -0.0236643 0)
(0.0259222 -0.0110606 0)
(0.062601 -0.00427773 0)
(0.102512 0.00321832 0)
(0.135538 -0.0131909 0)
(0.137517 -0.0364502 0)
(0.108459 -0.0537076 0)
(0.0792515 -0.0488868 0)
(0.0510131 -0.0494178 0)
(-0.0139486 -0.0332413 0)
(-0.10262 -0.0247706 0)
(-0.165632 -0.0349064 0)
(-0.188391 -0.038756 0)
(-0.188981 -0.0291045 0)
(-0.174411 0.00238565 0)
(-0.1552 0.0214779 0)
(-0.143552 0.0317704 0)
(-0.103812 0.0369473 0)
(-0.0289514 0.0414144 0)
(0.048896 0.0578938 0)
(0.115913 0.0719821 0)
(0.173775 0.0723505 0)
(0.224772 0.0755466 0)
(0.247087 0.0730685 0)
(0.233759 0.0592423 0)
(0.18774 0.025218 0)
(0.110438 -0.0136556 0)
(0.0364414 -0.0466817 0)
(-0.0141898 -0.0758801 0)
(-0.0639696 -0.115748 0)
(-0.103665 -0.15863 0)
(-0.132107 -0.191974 0)
(-0.152485 -0.185501 0)
(-0.146042 -0.165087 0)
(-0.12341 -0.140856 0)
(-0.0794145 -0.0986456 0)
(-0.0318336 -0.0598133 0)
(0.000520587 -0.0298049 0)
(0.0346008 -0.00656863 0)
(0.0554211 0.02025 0)
(0.0517833 0.0457841 0)
(0.0423488 0.069495 0)
(0.0360905 0.0961175 0)
(0.00753962 0.119327 0)
(-0.0293439 0.141544 0)
(-0.0386984 0.15316 0)
(-0.0321157 0.156455 0)
(-0.0320152 0.158338 0)
(-0.0197938 0.157807 0)
(-0.000630144 0.137101 0)
(0.0101158 0.101932 0)
(0.0218415 0.0640007 0)
(0.0457842 0.0329553 0)
(0.0797779 0.0187564 0)
(0.10006 -0.0011812 0)
(0.107928 -0.0101424 0)
(0.104883 -0.0288871 0)
(0.0852372 -0.035499 0)
(0.0422472 -0.0324338 0)
(-0.0083538 -0.0289026 0)
(-0.0534199 -0.0186469 0)
(-0.0967109 -0.0212413 0)
(-0.126267 -0.0215359 0)
(-0.131682 -0.00307462 0)
(-0.112553 0.0210339 0)
(-0.0911263 0.0587176 0)
(-0.060924 0.084446 0)
(-0.0292388 0.103398 0)
(-0.0229363 0.108441 0)
(-0.0119265 0.117965 0)
(0.00814631 0.113826 0)
(0.0338706 0.103799 0)
(0.0744858 0.100135 0)
(0.11457 0.099558 0)
(0.139054 0.104907 0)
(0.145612 0.0857085 0)
(0.133526 0.0743451 0)
(0.122498 0.061229 0)
(0.109025 0.0523318 0)
(0.0767349 0.0418057 0)
(0.0377955 0.0266701 0)
(-0.000961303 0.0113995 0)
(-0.0360458 -0.001348 0)
(-0.0589455 0.00109389 0)
(-0.0430783 0.00163187 0)
(0.00437615 -0.0225236 0)
(0.00621761 -0.0424015 0)
(0.0148643 -0.0403039 0)
(0.0359363 -0.0318692 0)
(0.0372915 -0.032996 0)
(0.0115537 -0.0239578 0)
(0.00108586 -0.0114082 0)
(0.0068062 -0.0153062 0)
(-0.0014505 -0.0323376 0)
(-0.0107879 -0.0535454 0)
(-0.0208595 -0.0621291 0)
(-0.0353229 -0.0566688 0)
(-0.0450052 -0.0536773 0)
(-0.0386036 -0.0430586 0)
(-0.018682 -0.0468732 0)
(0.010982 -0.0344459 0)
(0.0446965 -0.00577035 0)
(0.0756915 0.0105926 0)
(0.106412 0.0100271 0)
(0.130255 -0.00324144 0)
(0.134987 -0.0318183 0)
(0.116532 -0.0434498 0)
(0.0882761 -0.0381647 0)
(0.0558165 -0.0459638 0)
(-0.0128256 -0.0375595 0)
(-0.114462 -0.0332883 0)
(-0.185836 -0.0377251 0)
(-0.208061 -0.0325645 0)
(-0.199043 -0.0169658 0)
(-0.180844 0.00817716 0)
(-0.16559 0.0183981 0)
(-0.151919 0.034766 0)
(-0.108984 0.0528735 0)
(-0.0251433 0.0585218 0)
(0.0613388 0.0694773 0)
(0.133251 0.0770752 0)
(0.197483 0.0906984 0)
(0.250257 0.0930151 0)
(0.266218 0.0778378 0)
(0.240237 0.0497739 0)
(0.183761 0.00919064 0)
(0.107436 -0.0322556 0)
(0.0317318 -0.0653324 0)
(-0.0329592 -0.0956125 0)
(-0.0951276 -0.139694 0)
(-0.138376 -0.178729 0)
(-0.152709 -0.207846 0)
(-0.157591 -0.199368 0)
(-0.148787 -0.186158 0)
(-0.114471 -0.162 0)
(-0.0628274 -0.117289 0)
(-0.0191754 -0.0794756 0)
(0.0112412 -0.0322406 0)
(0.0501505 -0.00285362 0)
(0.0746481 0.0347187 0)
(0.0672656 0.0680457 0)
(0.0578398 0.0943658 0)
(0.048259 0.119529 0)
(0.0179587 0.137174 0)
(-0.0180144 0.159115 0)
(-0.0371336 0.173541 0)
(-0.0391514 0.177513 0)
(-0.0370575 0.170203 0)
(-0.0277218 0.164156 0)
(-0.0175608 0.137456 0)
(-0.0111638 0.0989024 0)
(0.00740996 0.0581427 0)
(0.0447248 0.0312032 0)
(0.0830877 0.00834638 0)
(0.106627 -0.00404168 0)
(0.11484 -0.00513932 0)
(0.107939 -0.0136025 0)
(0.0896143 -0.0278019 0)
(0.0465094 -0.0347812 0)
(-0.00480926 -0.0301909 0)
(-0.0567472 -0.0237616 0)
(-0.112252 -0.0260695 0)
(-0.138741 -0.031177 0)
(-0.134359 -0.0178548 0)
(-0.108192 0.0154502 0)
(-0.0810694 0.0584238 0)
(-0.0548027 0.0942891 0)
(-0.0294757 0.108878 0)
(-0.0199729 0.123074 0)
(-0.0116625 0.13746 0)
(0.00254815 0.126883 0)
(0.0349857 0.118706 0)
(0.0824867 0.109106 0)
(0.127836 0.106339 0)
(0.149573 0.102502 0)
(0.15311 0.086555 0)
(0.145334 0.0690699 0)
(0.130372 0.0600217 0)
(0.114863 0.0377247 0)
(0.0803113 0.0330371 0)
(0.0321454 0.0235094 0)
(-0.0127918 0.00206618 0)
(-0.0445945 -0.0136463 0)
(-0.0619432 -0.011982 0)
(-0.0435454 -0.0080985 0)
(0.00657373 -0.0206654 0)
(0.0155831 -0.0436992 0)
(0.0315647 -0.0458975 0)
(0.0487044 -0.0462191 0)
(0.0473821 -0.0445415 0)
(0.027549 -0.0281322 0)
(0.0102532 -0.00614127 0)
(0.00145402 -0.00473616 0)
(-0.0125901 -0.016789 0)
(-0.0222898 -0.0311043 0)
(-0.0247901 -0.0463017 0)
(-0.0322069 -0.0525694 0)
(-0.0411598 -0.0503513 0)
(-0.0379978 -0.0390488 0)
(-0.0188473 -0.0401784 0)
(0.0252695 -0.0247346 0)
(0.068108 -0.00353707 0)
(0.0892578 0.0113072 0)
(0.112484 0.00782162 0)
(0.127725 0.00326974 0)
(0.130459 -0.00981095 0)
(0.122379 -0.022492 0)
(0.0887684 -0.0241253 0)
(0.0528744 -0.0325242 0)
(-0.0148739 -0.0408334 0)
(-0.124909 -0.0423534 0)
(-0.197848 -0.0319247 0)
(-0.213742 -0.0177847 0)
(-0.203704 0.00355364 0)
(-0.192616 0.018995 0)
(-0.174967 0.0289598 0)
(-0.14926 0.0392604 0)
(-0.106673 0.0578312 0)
(-0.0241554 0.0715993 0)
(0.0695906 0.0765889 0)
(0.153206 0.0851549 0)
(0.220537 0.0954701 0)
(0.261204 0.0934127 0)
(0.26817 0.06983 0)
(0.237877 0.0377606 0)
(0.177994 -0.00067397 0)
(0.0974226 -0.0436161 0)
(0.0197803 -0.0818886 0)
(-0.0520943 -0.115096 0)
(-0.121522 -0.151333 0)
(-0.162828 -0.182713 0)
(-0.167431 -0.207068 0)
(-0.164874 -0.217878 0)
(-0.151228 -0.208201 0)
(-0.105979 -0.16899 0)
(-0.0493227 -0.127298 0)
(0.00494077 -0.088108 0)
(0.036909 -0.0362685 0)
(0.069375 -0.000812879 0)
(0.0970938 0.0398403 0)
(0.0871898 0.0768722 0)
(0.0720981 0.11321 0)
(0.0588713 0.140063 0)
(0.027112 0.15311 0)
(-0.012566 0.16904 0)
(-0.0343902 0.173965 0)
(-0.0412883 0.183731 0)
(-0.0441037 0.175549 0)
(-0.0401716 0.16276 0)
(-0.0385764 0.131398 0)
(-0.03236 0.091265 0)
(-0.00703418 0.0522873 0)
(0.0341884 0.0324752 0)
(0.0815289 0.00646451 0)
(0.118368 -0.00233193 0)
(0.127292 -0.00437865 0)
(0.110227 -0.0064013 0)
(0.0847872 -0.0184605 0)
(0.0468993 -0.033768 0)
(-0.00350405 -0.0322656 0)
(-0.0635178 -0.0332813 0)
(-0.124593 -0.0354747 0)
(-0.150061 -0.034126 0)
(-0.131195 -0.0210154 0)
(-0.0901786 0.0193404 0)
(-0.0633326 0.0606415 0)
(-0.0482346 0.0984786 0)
(-0.0258079 0.117344 0)
(-0.0128148 0.133587 0)
(-0.012948 0.14121 0)
(-0.00189264 0.138637 0)
(0.0324325 0.133153 0)
(0.0845551 0.122196 0)
(0.135402 0.113039 0)
(0.155223 0.0976573 0)
(0.154624 0.0840077 0)
(0.147612 0.0623019 0)
(0.130164 0.0422304 0)
(0.114691 0.0204638 0)
(0.0846095 0.00930202 0)
(0.024778 0.00384217 0)
(-0.0272031 -0.0114276 0)
(-0.052725 -0.026288 0)
(-0.066407 -0.026065 0)
(-0.0423642 -0.0131955 0)
(0.00783319 -0.0162833 0)
(0.0224676 -0.0406489 0)
(0.0379195 -0.0506094 0)
(0.0552442 -0.0548863 0)
(0.0643809 -0.0477119 0)
(0.0504167 -0.0281152 0)
(0.0264043 -0.00957871 0)
(0.00470853 0.00466529 0)
(-0.0175343 0.00813963 0)
(-0.0315563 -0.00511162 0)
(-0.0377567 -0.0233263 0)
(-0.0408275 -0.0439222 0)
(-0.0380485 -0.0433258 0)
(-0.0332636 -0.0353801 0)
(-0.00799061 -0.0286699 0)
(0.0416339 -0.0107298 0)
(0.0791572 0.00439194 0)
(0.0962741 0.0106474 0)
(0.116189 0.00117078 0)
(0.134683 -0.00133396 0)
(0.132727 0.00365239 0)
(0.119343 -0.00154527 0)
(0.0883936 -0.0098416 0)
(0.0431654 -0.021331 0)
(-0.0294837 -0.0460077 0)
(-0.126522 -0.0478606 0)
(-0.194487 -0.0182182 0)
(-0.214659 0.00936366 0)
(-0.207688 0.0244513 0)
(-0.1974 0.0383222 0)
(-0.182075 0.0488484 0)
(-0.1554 0.0485617 0)
(-0.101037 0.0551278 0)
(-0.0165791 0.0751049 0)
(0.077737 0.0825879 0)
(0.165259 0.0925052 0)
(0.232287 0.089224 0)
(0.268614 0.0858008 0)
(0.267833 0.0687672 0)
(0.232239 0.033442 0)
(0.164818 -0.00856138 0)
(0.0819996 -0.0583556 0)
(0.00430176 -0.093703 0)
(-0.06934 -0.126757 0)
(-0.140887 -0.155188 0)
(-0.185627 -0.181733 0)
(-0.193758 -0.205989 0)
(-0.180319 -0.224121 0)
(-0.138605 -0.211128 0)
(-0.0817616 -0.174638 0)
(-0.0286925 -0.140566 0)
(0.0256138 -0.0925981 0)
(0.0573346 -0.0510682 0)
(0.0919909 -0.00167374 0)
(0.120755 0.046081 0)
(0.112072 0.0833385 0)
(0.0959286 0.119059 0)
(0.0693143 0.144434 0)
(0.0309008 0.158157 0)
(-0.0107838 0.1718 0)
(-0.0333156 0.175584 0)
(-0.0426179 0.181679 0)
(-0.0534409 0.172297 0)
(-0.0564865 0.153075 0)
(-0.061445 0.11286 0)
(-0.0559439 0.0767973 0)
(-0.0183414 0.0458462 0)
(0.0316974 0.0289015 0)
(0.080064 0.0140866 0)
(0.121441 0.00470349 0)
(0.132928 -0.00263444 0)
(0.11495 -0.00515254 0)
(0.081266 -0.00900039 0)
(0.0411349 -0.0240452 0)
(-0.00743527 -0.0377915 0)
(-0.0699514 -0.0431954 0)
(-0.130941 -0.0455726 0)
(-0.151819 -0.0350596 0)
(-0.121883 -0.0152433 0)
(-0.075208 0.0226109 0)
(-0.0475555 0.0629014 0)
(-0.0335459 0.0991557 0)
(-0.0188322 0.124961 0)
(-0.0118547 0.140171 0)
(-0.0113152 0.137518 0)
(-0.000385229 0.147072 0)
(0.0323115 0.145112 0)
(0.0831445 0.134368 0)
(0.130382 0.115668 0)
(0.152608 0.0874001 0)
(0.153455 0.0652155 0)
(0.140666 0.0479889 0)
(0.123075 0.021791 0)
(0.109521 0.00400041 0)
(0.0806839 -0.0196611 0)
(0.0220467 -0.0231254 0)
(-0.0376442 -0.031653 0)
(-0.0655481 -0.0426341 0)
(-0.0693495 -0.0391899 0)
(-0.0385696 -0.0139439 0)
(0.0074557 -0.0140759 0)
(0.023205 -0.0409176 0)
(0.0456595 -0.0523392 0)
(0.069237 -0.0456026 0)
(0.0809856 -0.0411224 0)
(0.0661898 -0.0298702 0)
(0.0423158 -0.0165983 0)
(0.0201104 0.00787338 0)
(-0.0163223 0.0251781 0)
(-0.0439455 0.00859628 0)
(-0.0534628 -0.0123517 0)
(-0.048092 -0.0216978 0)
(-0.0363078 -0.0203914 0)
(-0.0279097 -0.0219992 0)
(0.000373131 -0.00919064 0)
(0.0533165 0.000323412 0)
(0.0906642 0.00315348 0)
(0.0967501 0.00901375 0)
(0.115849 0.00533653 0)
(0.142687 0.00167684 0)
(0.142586 -0.00226367 0)
(0.121892 0.00600193 0)
(0.0789332 -0.00645045 0)
(0.0247852 -0.0184773 0)
(-0.0429356 -0.0405572 0)
(-0.120109 -0.0321425 0)
(-0.177611 -0.00618348 0)
(-0.208727 0.0313085 0)
(-0.210976 0.0470493 0)
(-0.202779 0.060913 0)
(-0.192423 0.0701364 0)
(-0.164195 0.0646816 0)
(-0.099424 0.0672422 0)
(-0.00757901 0.0757735 0)
(0.0881753 0.0852958 0)
(0.173232 0.0890552 0)
(0.239183 0.0893019 0)
(0.276398 0.0791523 0)
(0.264036 0.0579566 0)
(0.216414 0.0233554 0)
(0.143692 -0.0160729 0)
(0.0629714 -0.0555056 0)
(-0.0094808 -0.0947427 0)
(-0.0845669 -0.123875 0)
(-0.157855 -0.153839 0)
(-0.204376 -0.181123 0)
(-0.210033 -0.20375 0)
(-0.185634 -0.213598 0)
(-0.135256 -0.20109 0)
(-0.0757694 -0.180959 0)
(-0.0100309 -0.155321 0)
(0.0517595 -0.104269 0)
(0.0875721 -0.0569013 0)
(0.127495 0.00589616 0)
(0.148703 0.04627 0)
(0.131619 0.0823676 0)
(0.108746 0.110129 0)
(0.0798461 0.132091 0)
(0.0398572 0.153115 0)
(-0.00645867 0.166163 0)
(-0.0325362 0.173854 0)
(-0.0469555 0.171378 0)
(-0.065332 0.155562 0)
(-0.0803461 0.132812 0)
(-0.0871673 0.0925542 0)
(-0.0703613 0.0656971 0)
(-0.0277115 0.0497662 0)
(0.0278485 0.0280684 0)
(0.0821266 0.011582 0)
(0.124468 0.00185679 0)
(0.136902 -0.00501432 0)
(0.119288 -0.00947914 0)
(0.0800879 -0.0124802 0)
(0.0292908 -0.0246876 0)
(-0.02024 -0.0435095 0)
(-0.078139 -0.052948 0)
(-0.133166 -0.0575775 0)
(-0.146699 -0.037752 0)
(-0.110235 -0.0129061 0)
(-0.0545234 0.0276019 0)
(-0.0272244 0.0701893 0)
(-0.0196158 0.0999005 0)
(-0.00851064 0.121038 0)
(-0.0117163 0.145977 0)
(-0.0109359 0.14769 0)
(0.00589007 0.154596 0)
(0.0305028 0.14602 0)
(0.0751234 0.125059 0)
(0.11709 0.109253 0)
(0.137166 0.0759118 0)
(0.145953 0.0453264 0)
(0.135432 0.025994 0)
(0.11513 0.00174964 0)
(0.0973546 -0.0195108 0)
(0.0721637 -0.0453714 0)
(0.0167062 -0.050438 0)
(-0.048208 -0.0590002 0)
(-0.0726481 -0.0588844 0)
(-0.0678258 -0.0469207 0)
(-0.0353555 -0.0129781 0)
(0.00507473 -0.0147023 0)
(0.0243969 -0.0363179 0)
(0.0575384 -0.0428252 0)
(0.0810778 -0.037207 0)
(0.0893658 -0.0334378 0)
(0.07866 -0.0305055 0)
(0.0617916 -0.011502 0)
(0.040865 0.00753085 0)
(-0.0134996 0.0169373 0)
(-0.0573162 0.0151774 0)
(-0.0594982 0.00373772 0)
(-0.0470013 0.00800379 0)
(-0.0386786 0.00328005 0)
(-0.0248282 -0.00159124 0)
(0.00998322 0.00986218 0)
(0.0542258 0.0183994 0)
(0.0913046 0.0125732 0)
(0.105753 0.0113365 0)
(0.120189 0.0100929 0)
(0.138959 0.00535303 0)
(0.144864 -0.00724408 0)
(0.122813 0.00158515 0)
(0.0731301 -0.0133908 0)
(0.015918 -0.0167792 0)
(-0.0471994 -0.0254351 0)
(-0.114376 -0.0114902 0)
(-0.165706 0.0102118 0)
(-0.196803 0.0380721 0)
(-0.208805 0.0673132 0)
(-0.202828 0.0821834 0)
(-0.199139 0.0893359 0)
(-0.172925 0.088155 0)
(-0.102325 0.0960605 0)
(-0.00571261 0.0945382 0)
(0.0926798 0.0905009 0)
(0.180872 0.0827808 0)
(0.244379 0.0826163 0)
(0.270198 0.0694885 0)
(0.254675 0.0477293 0)
(0.206504 0.0233475 0)
(0.133867 -0.0116466 0)
(0.0473025 -0.0421427 0)
(-0.028393 -0.0820678 0)
(-0.101811 -0.110778 0)
(-0.178955 -0.143734 0)
(-0.225011 -0.171824 0)
(-0.226228 -0.196986 0)
(-0.191574 -0.206756 0)
(-0.130839 -0.196893 0)
(-0.0657065 -0.185132 0)
(0.0102157 -0.152758 0)
(0.0817425 -0.102772 0)
(0.124003 -0.0511128 0)
(0.155601 0.0072686 0)
(0.166605 0.0346902 0)
(0.150093 0.0689006 0)
(0.124563 0.0917696 0)
(0.093716 0.111637 0)
(0.0494202 0.138187 0)
(-0.00117992 0.149285 0)
(-0.0337822 0.156531 0)
(-0.058418 0.153449 0)
(-0.0815844 0.125326 0)
(-0.0995858 0.106389 0)
(-0.104384 0.082226 0)
(-0.0779674 0.0690505 0)
(-0.0339731 0.0508216 0)
(0.017576 0.0279764 0)
(0.0757476 0.0106007 0)
(0.124078 -0.00152071 0)
(0.138082 -0.0124963 0)
(0.120359 -0.0196677 0)
(0.0772819 -0.0256349 0)
(0.0209863 -0.0382716 0)
(-0.0305216 -0.053811 0)
(-0.0875654 -0.0687074 0)
(-0.131496 -0.0704322 0)
(-0.134152 -0.0394076 0)
(-0.0910376 -0.00367977 0)
(-0.0317304 0.0370173 0)
(-0.010893 0.0685031 0)
(-0.0102792 0.0994344 0)
(0.00419067 0.121976 0)
(0.000718943 0.138462 0)
(-0.00783628 0.15397 0)
(-0.000175225 0.154901 0)
(0.0162245 0.137285 0)
(0.0655366 0.116493 0)
(0.106745 0.0944905 0)
(0.120143 0.0631035 0)
(0.132013 0.0325867 0)
(0.123092 0.00320801 0)
(0.101709 -0.0230007 0)
(0.0830895 -0.0503565 0)
(0.0609504 -0.0714689 0)
(0.00872787 -0.0811434 0)
(-0.0543053 -0.0878364 0)
(-0.0750125 -0.074797 0)
(-0.0628262 -0.053941 0)
(-0.0323379 -0.0146863 0)
(0.00681243 -0.0098416 0)
(0.0294616 -0.023727 0)
(0.0657472 -0.0316463 0)
(0.0922023 -0.0315723 0)
(0.0983079 -0.0223817 0)
(0.0917988 -0.0205419 0)
(0.0773886 -0.00339342 0)
(0.0461297 0.00116966 0)
(-0.00729487 0.00248086 0)
(-0.0516586 0.0225323 0)
(-0.0578083 0.0306475 0)
(-0.0481246 0.0350069 0)
(-0.0431587 0.0322648 0)
(-0.0223897 0.0281912 0)
(0.0167757 0.0271864 0)
(0.0584484 0.0275159 0)
(0.0902161 0.0260739 0)
(0.101135 0.0146299 0)
(0.118631 0.00650276 0)
(0.137275 0.00201417 0)
(0.146259 -0.0045038 0)
(0.121792 -0.00429984 0)
(0.0667791 -0.0177065 0)
(0.0134083 -0.0244155 0)
(-0.0458487 -0.0161542 0)
(-0.104909 -0.00203434 0)
(-0.1558 0.0216446 0)
(-0.183933 0.0410687 0)
(-0.19687 0.0794461 0)
(-0.204423 0.100027 0)
(-0.203727 0.107713 0)
(-0.17131 0.115253 0)
(-0.101937 0.122578 0)
(-0.0131661 0.110344 0)
(0.0841437 0.0905928 0)
(0.178048 0.0820589 0)
(0.245364 0.0780071 0)
(0.270865 0.0668551 0)
(0.252784 0.056406 0)
(0.196101 0.0269189 0)
(0.117612 -0.00772756 0)
(0.0302462 -0.036506 0)
(-0.0452754 -0.0670894 0)
(-0.120486 -0.102206 0)
(-0.198911 -0.135712 0)
(-0.24514 -0.158757 0)
(-0.242163 -0.181797 0)
(-0.19587 -0.190592 0)
(-0.132305 -0.184009 0)
(-0.0576402 -0.171133 0)
(0.03599 -0.135203 0)
(0.112655 -0.0895689 0)
(0.15591 -0.051997 0)
(0.179512 -0.0141983 0)
(0.184396 0.016142 0)
(0.165191 0.0458608 0)
(0.132749 0.0698665 0)
(0.107368 0.0896988 0)
(0.0617361 0.109917 0)
(0.00220368 0.121646 0)
(-0.0329905 0.127623 0)
(-0.0716784 0.119379 0)
(-0.0995532 0.0966028 0)
(-0.109191 0.0808131 0)
(-0.109211 0.0689214 0)
(-0.0856133 0.0685309 0)
(-0.0480085 0.05026 0)
(0.00967208 0.0280631 0)
(0.0725696 0.00942268 0)
(0.119444 -0.00360054 0)
(0.134357 -0.0183726 0)
(0.118288 -0.0253212 0)
(0.0720674 -0.0368058 0)
(0.0105896 -0.0516787 0)
(-0.0445787 -0.0695585 0)
(-0.0962681 -0.0856825 0)
(-0.121064 -0.0777295 0)
(-0.109801 -0.0370525 0)
(-0.0678818 0.00460363 0)
(-0.0157137 0.0369295 0)
(0.00517623 0.0613454 0)
(0.0079955 0.0976696 0)
(0.0110319 0.125458 0)
(0.00572121 0.134995 0)
(-0.00157187 0.148295 0)
(-0.00564105 0.147422 0)
(0.00633313 0.132474 0)
(0.0506848 0.115667 0)
(0.0871744 0.0801676 0)
(0.102404 0.0509245 0)
(0.112955 0.0170702 0)
(0.104602 -0.0165017 0)
(0.0834346 -0.04294 0)
(0.0657286 -0.0728758 0)
(0.0486359 -0.0960793 0)
(-0.00220842 -0.1109 0)
(-0.0573775 -0.110168 0)
(-0.0694995 -0.0863185 0)
(-0.0546564 -0.0533102 0)
(-0.0274376 -0.0191742 0)
(0.00687177 -0.00514061 0)
(0.0301471 -0.0113405 0)
(0.0693699 -0.0184627 0)
(0.101883 -0.0247516 0)
(0.108442 -0.0168615 0)
(0.101079 -0.0124703 0)
(0.0841268 0.00329737 0)
(0.049803 0.00644178 0)
(0.00535782 0.0107218 0)
(-0.0346448 0.031559 0)
(-0.049238 0.0530545 0)
(-0.0452261 0.0604879 0)
(-0.0431847 0.0600106 0)
(-0.0276974 0.0508916 0)
(0.0111108 0.0388107 0)
(0.0560761 0.0278645 0)
(0.0856396 0.0245256 0)
(0.0961724 0.0148945 0)
(0.116322 0.0048678 0)
(0.136239 -0.0032556 0)
(0.144762 -0.00992708 0)
(0.115962 -0.0260231 0)
(0.0587331 -0.0327308 0)
(0.0144086 -0.0386977 0)
(-0.0367189 -0.0236514 0)
(-0.0957934 -0.0113864 0)
(-0.145975 0.0210305 0)
(-0.168171 0.0556443 0)
(-0.180108 0.0867627 0)
(-0.196204 0.110477 0)
(-0.200308 0.127806 0)
(-0.171377 0.136456 0)
(-0.111365 0.131324 0)
(-0.0300411 0.116522 0)
(0.0759924 0.0909976 0)
(0.180533 0.0834131 0)
(0.246371 0.0830342 0)
(0.270791 0.074123 0)
(0.243811 0.0588235 0)
(0.178389 0.0263091 0)
(0.105293 -0.00825924 0)
(0.0193525 -0.0330705 0)
(-0.0644661 -0.060527 0)
(-0.144218 -0.100358 0)
(-0.216983 -0.135784 0)
(-0.259756 -0.150338 0)
(-0.254461 -0.156785 0)
(-0.201252 -0.162574 0)
(-0.126884 -0.155389 0)
(-0.041493 -0.132821 0)
(0.0581052 -0.104605 0)
(0.131163 -0.0785494 0)
(0.168485 -0.0605756 0)
(0.195838 -0.043542 0)
(0.202016 -0.00505467 0)
(0.181871 0.0216416 0)
(0.149971 0.0501505 0)
(0.117159 0.0702893 0)
(0.0677451 0.0823842 0)
(0.00765389 0.0915322 0)
(-0.0384099 0.0920265 0)
(-0.0826596 0.0742104 0)
(-0.109554 0.068643 0)
(-0.117529 0.0588779 0)
(-0.108927 0.0546204 0)
(-0.0852498 0.0533709 0)
(-0.0556447 0.0464157 0)
(-0.00319783 0.0320453 0)
(0.0622659 0.00870296 0)
(0.113254 -0.00429033 0)
(0.13075 -0.0213152 0)
(0.113696 -0.0303517 0)
(0.06237 -0.0505319 0)
(-0.00154732 -0.071429 0)
(-0.0571485 -0.0845003 0)
(-0.0983401 -0.0825528 0)
(-0.103316 -0.0678458 0)
(-0.0833871 -0.0418026 0)
(-0.047776 -0.00023565 0)
(-0.00156215 0.0335837 0)
(0.0227325 0.0597373 0)
(0.0271604 0.0934057 0)
(0.0239078 0.117789 0)