/*--------------------------------*- C++ -*----------------------------------*\
| =========                 |                                                 |
| \\      /  F ield         | OpenFOAM: The Open Source CFD Toolbox           |
|  \\    /   O peration     | Version:  v2012                                 |
|   \\  /    A nd           | Website:  www.openfoam.com                      |
|    \\/     M anipulation  |                                                 |
\*---------------------------------------------------------------------------*/
FoamFile
{
    version     2.0;
    format      ascii;
    class       volVectorField;
    location    "9";
    object      Psi;
}
// * * * * * * * * * * * * * * * * * * * * * * * * * * * * * * * * * * * * * //

dimensions      [0 2 -1 0 0 0 0];


internalField   nonuniform List<vector> 
65536
(
(0 0 9.2934e-06)
(0 0 2.78803e-05)
(0 0 4.64675e-05)
(0 0 6.50551e-05)
(0 0 8.36434e-05)
(0 0 0.000102232)
(0 0 0.000120822)
(0 0 0.000139413)
(0 0 0.000158006)
(0 0 0.000176599)
(0 0 0.000195193)
(0 0 0.000213789)
(0 0 0.000232386)
(0 0 0.000250984)
(0 0 0.000269583)
(0 0 0.000288182)
(0 0 0.000306782)
(0 0 0.000325382)
(0 0 0.000343981)
(0 0 0.00036258)
(0 0 0.000381178)
(0 0 0.000399773)
(0 0 0.000418366)
(0 0 0.000436955)
(0 0 0.00045554)
(0 0 0.00047412)
(0 0 0.000492693)
(0 0 0.000511259)
(0 0 0.000529816)
(0 0 0.000548363)
(0 0 0.000566898)
(0 0 0.000585419)
(0 0 0.000603926)
(0 0 0.000622416)
(0 0 0.000640886)
(0 0 0.000659336)
(0 0 0.000677763)
(0 0 0.000696164)
(0 0 0.000714536)
(0 0 0.000732878)
(0 0 0.000751187)
(0 0 0.000769459)
(0 0 0.000787691)
(0 0 0.00080588)
(0 0 0.000824024)
(0 0 0.000842117)
(0 0 0.000860157)
(0 0 0.000878141)
(0 0 0.000896062)
(0 0 0.000913919)
(0 0 0.000931706)
(0 0 0.00094942)
(0 0 0.000967054)
(0 0 0.000984606)
(0 0 0.00100207)
(0 0 0.00101944)
(0 0 0.00103671)
(0 0 0.00105388)
(0 0 0.00107094)
(0 0 0.00108789)
(0 0 0.00110471)
(0 0 0.00112141)
(0 0 0.00113798)
(0 0 0.00115441)
(0 0 0.0011707)
(0 0 0.00118683)
(0 0 0.00120281)
(0 0 0.00121863)
(0 0 0.00123428)
(0 0 0.00124975)
(0 0 0.00126505)
(0 0 0.00128015)
(0 0 0.00129505)
(0 0 0.00130976)
(0 0 0.00132425)
(0 0 0.00133853)
(0 0 0.00135259)
(0 0 0.00136642)
(0 0 0.00138001)
(0 0 0.00139336)
(0 0 0.00140646)
(0 0 0.00141931)
(0 0 0.00143189)
(0 0 0.00144421)
(0 0 0.00145625)
(0 0 0.00146801)
(0 0 0.00147948)
(0 0 0.00149066)
(0 0 0.00150153)
(0 0 0.00151211)
(0 0 0.00152237)
(0 0 0.00153232)
(0 0 0.00154194)
(0 0 0.00155124)
(0 0 0.00156021)
(0 0 0.00156885)
(0 0 0.00157714)
(0 0 0.00158509)
(0 0 0.00159269)
(0 0 0.00159994)
(0 0 0.00160683)
(0 0 0.00161336)
(0 0 0.00161954)
(0 0 0.00162535)
(0 0 0.00163079)
(0 0 0.00163586)
(0 0 0.00164056)
(0 0 0.00164489)
(0 0 0.00164885)
(0 0 0.00165243)
(0 0 0.00165564)
(0 0 0.00165847)
(0 0 0.00166092)
(0 0 0.001663)
(0 0 0.0016647)
(0 0 0.00166603)
(0 0 0.00166698)
(0 0 0.00166756)
(0 0 0.00166777)
(0 0 0.00166762)
(0 0 0.00166709)
(0 0 0.0016662)
(0 0 0.00166494)
(0 0 0.00166333)
(0 0 0.00166136)
(0 0 0.00165903)
(0 0 0.00165635)
(0 0 0.00165333)
(0 0 0.00164997)
(0 0 0.00164626)
(0 0 0.00164222)
(0 0 0.00163785)
(0 0 0.00163316)
(0 0 0.00162814)
(0 0 0.00162281)
(0 0 0.00161716)
(0 0 0.00161121)
(0 0 0.00160496)
(0 0 0.00159841)
(0 0 0.00159157)
(0 0 0.00158444)
(0 0 0.00157704)
(0 0 0.00156936)
(0 0 0.00156142)
(0 0 0.00155321)
(0 0 0.00154474)
(0 0 0.00153602)
(0 0 0.00152706)
(0 0 0.00151786)
(0 0 0.00150842)
(0 0 0.00149876)
(0 0 0.00148888)
(0 0 0.00147878)
(0 0 0.00146846)
(0 0 0.00145795)
(0 0 0.00144723)
(0 0 0.00143632)
(0 0 0.00142523)
(0 0 0.00141395)
(0 0 0.0014025)
(0 0 0.00139087)
(0 0 0.00137908)
(0 0 0.00136713)
(0 0 0.00135503)
(0 0 0.00134277)
(0 0 0.00133037)
(0 0 0.00131783)
(0 0 0.00130516)
(0 0 0.00129236)
(0 0 0.00127943)
(0 0 0.00126638)
(0 0 0.00125322)
(0 0 0.00123994)
(0 0 0.00122656)
(0 0 0.00121308)
(0 0 0.0011995)
(0 0 0.00118582)
(0 0 0.00117205)
(0 0 0.0011582)
(0 0 0.00114427)
(0 0 0.00113026)
(0 0 0.00111617)
(0 0 0.00110201)
(0 0 0.00108778)
(0 0 0.00107349)
(0 0 0.00105914)
(0 0 0.00104473)
(0 0 0.00103026)
(0 0 0.00101574)
(0 0 0.00100117)
(0 0 0.00098656)
(0 0 0.000971901)
(0 0 0.0009572)
(0 0 0.000942461)
(0 0 0.000927684)
(0 0 0.000912874)
(0 0 0.000898031)
(0 0 0.000883158)
(0 0 0.000868257)
(0 0 0.00085333)
(0 0 0.000838379)
(0 0 0.000823405)
(0 0 0.000808411)
(0 0 0.000793398)
(0 0 0.000778367)
(0 0 0.000763321)
(0 0 0.00074826)
(0 0 0.000733185)
(0 0 0.000718099)
(0 0 0.000703002)
(0 0 0.000687896)
(0 0 0.000672782)
(0 0 0.00065766)
(0 0 0.000642531)
(0 0 0.000627398)
(0 0 0.000612259)
(0 0 0.000597117)
(0 0 0.000581972)
(0 0 0.000566825)
(0 0 0.000551676)
(0 0 0.000536525)
(0 0 0.000521375)
(0 0 0.000506224)
(0 0 0.000491074)
(0 0 0.000475925)
(0 0 0.000460777)
(0 0 0.00044563)
(0 0 0.000430486)
(0 0 0.000415344)
(0 0 0.000400204)
(0 0 0.000385067)
(0 0 0.000369933)
(0 0 0.000354801)
(0 0 0.000339673)
(0 0 0.000324548)
(0 0 0.000309426)
(0 0 0.000294307)
(0 0 0.000279191)
(0 0 0.000264079)
(0 0 0.00024897)
(0 0 0.000233863)
(0 0 0.00021876)
(0 0 0.000203659)
(0 0 0.000188562)
(0 0 0.000173467)
(0 0 0.000158374)
(0 0 0.000143283)
(0 0 0.000128195)
(0 0 0.000113109)
(0 0 9.80241e-05)
(0 0 8.29409e-05)
(0 0 6.7859e-05)
(0 0 5.27781e-05)
(0 0 3.7698e-05)
(0 0 2.26186e-05)
(0 0 7.53949e-06)
(0 0 2.78801e-05)
(0 0 8.36406e-05)
(0 0 0.000139402)
(0 0 0.000195165)
(0 0 0.000250929)
(0 0 0.000306696)
(0 0 0.000362466)
(0 0 0.000418239)
(0 0 0.000474016)
(0 0 0.000529796)
(0 0 0.000585579)
(0 0 0.000641366)
(0 0 0.000697157)
(0 0 0.000752951)
(0 0 0.000808747)
(0 0 0.000864546)
(0 0 0.000920346)
(0 0 0.000976146)
(0 0 0.00103194)
(0 0 0.00108774)
(0 0 0.00114353)
(0 0 0.00119932)
(0 0 0.0012551)
(0 0 0.00131087)
(0 0 0.00136663)
(0 0 0.00142237)
(0 0 0.00147809)
(0 0 0.00153379)
(0 0 0.00158946)
(0 0 0.0016451)
(0 0 0.00170071)
(0 0 0.00175627)
(0 0 0.00181179)
(0 0 0.00186727)
(0 0 0.00192268)
(0 0 0.00197803)
(0 0 0.00203331)
(0 0 0.00208852)
(0 0 0.00214364)
(0 0 0.00219867)
(0 0 0.0022536)
(0 0 0.00230842)
(0 0 0.00236312)
(0 0 0.00241769)
(0 0 0.00247212)
(0 0 0.0025264)
(0 0 0.00258053)
(0 0 0.00263448)
(0 0 0.00268825)
(0 0 0.00274183)
(0 0 0.00279519)
(0 0 0.00284834)
(0 0 0.00290125)
(0 0 0.00295391)
(0 0 0.0030063)
(0 0 0.00305842)
(0 0 0.00311024)
(0 0 0.00316175)
(0 0 0.00321294)
(0 0 0.00326378)
(0 0 0.00331426)
(0 0 0.00336437)
(0 0 0.00341408)
(0 0 0.00346338)
(0 0 0.00351224)
(0 0 0.00356066)
(0 0 0.00360861)
(0 0 0.00365607)
(0 0 0.00370302)
(0 0 0.00374945)
(0 0 0.00379532)
(0 0 0.00384064)
(0 0 0.00388536)
(0 0 0.00392948)
(0 0 0.00397298)
(0 0 0.00401582)
(0 0 0.004058)
(0 0 0.0040995)
(0 0 0.00414028)
(0 0 0.00418034)
(0 0 0.00421965)
(0 0 0.00425819)
(0 0 0.00429595)
(0 0 0.0043329)
(0 0 0.00436902)
(0 0 0.00440431)
(0 0 0.00443873)
(0 0 0.00447227)
(0 0 0.00450491)
(0 0 0.00453663)
(0 0 0.00456743)
(0 0 0.00459728)
(0 0 0.00462616)
(0 0 0.00465406)
(0 0 0.00468097)
(0 0 0.00470688)
(0 0 0.00473176)
(0 0 0.00475561)
(0 0 0.00477842)
(0 0 0.00480017)
(0 0 0.00482085)
(0 0 0.00484045)
(0 0 0.00485897)
(0 0 0.0048764)
(0 0 0.00489273)
(0 0 0.00490795)
(0 0 0.00492206)
(0 0 0.00493505)
(0 0 0.00494692)
(0 0 0.00495766)
(0 0 0.00496728)
(0 0 0.00497577)
(0 0 0.00498314)
(0 0 0.00498937)
(0 0 0.00499448)
(0 0 0.00499846)
(0 0 0.00500132)
(0 0 0.00500306)
(0 0 0.00500369)
(0 0 0.00500321)
(0 0 0.00500163)
(0 0 0.00499895)
(0 0 0.00499518)
(0 0 0.00499034)
(0 0 0.00498442)
(0 0 0.00497744)
(0 0 0.00496941)
(0 0 0.00496034)
(0 0 0.00495024)
(0 0 0.00493912)
(0 0 0.004927)
(0 0 0.00491388)
(0 0 0.00489979)
(0 0 0.00488473)
(0 0 0.00486873)
(0 0 0.00485179)
(0 0 0.00483393)
(0 0 0.00481517)
(0 0 0.00479551)
(0 0 0.00477499)
(0 0 0.00475361)
(0 0 0.00473139)
(0 0 0.00470835)
(0 0 0.00468451)
(0 0 0.00465988)
(0 0 0.00463447)
(0 0 0.00460832)
(0 0 0.00458142)
(0 0 0.00455381)
(0 0 0.0045255)
(0 0 0.0044965)
(0 0 0.00446684)
(0 0 0.00443653)
(0 0 0.00440559)
(0 0 0.00437404)
(0 0 0.00434189)
(0 0 0.00430916)
(0 0 0.00427587)
(0 0 0.00424203)
(0 0 0.00420766)
(0 0 0.00417278)
(0 0 0.00413741)
(0 0 0.00410155)
(0 0 0.00406523)
(0 0 0.00402846)
(0 0 0.00399125)
(0 0 0.00395363)
(0 0 0.00391561)
(0 0 0.00387719)
(0 0 0.00383841)
(0 0 0.00379926)
(0 0 0.00375976)
(0 0 0.00371993)
(0 0 0.00367979)
(0 0 0.00363933)
(0 0 0.00359858)
(0 0 0.00355755)
(0 0 0.00351625)
(0 0 0.00347469)
(0 0 0.00343288)
(0 0 0.00339084)
(0 0 0.00334858)
(0 0 0.0033061)
(0 0 0.00326341)
(0 0 0.00322054)
(0 0 0.00317747)
(0 0 0.00313424)
(0 0 0.00309084)
(0 0 0.00304728)
(0 0 0.00300357)
(0 0 0.00295972)
(0 0 0.00291574)
(0 0 0.00287164)
(0 0 0.00282742)
(0 0 0.00278309)
(0 0 0.00273865)
(0 0 0.00269412)
(0 0 0.0026495)
(0 0 0.0026048)
(0 0 0.00256001)
(0 0 0.00251516)
(0 0 0.00247024)
(0 0 0.00242525)
(0 0 0.00238021)
(0 0 0.00233512)
(0 0 0.00228998)
(0 0 0.00224479)
(0 0 0.00219957)
(0 0 0.00215431)
(0 0 0.00210902)
(0 0 0.0020637)
(0 0 0.00201835)
(0 0 0.00197298)
(0 0 0.0019276)
(0 0 0.0018822)
(0 0 0.00183678)
(0 0 0.00179135)
(0 0 0.00174592)
(0 0 0.00170048)
(0 0 0.00165503)
(0 0 0.00160958)
(0 0 0.00156412)
(0 0 0.00151867)
(0 0 0.00147322)
(0 0 0.00142777)
(0 0 0.00138233)
(0 0 0.00133689)
(0 0 0.00129146)
(0 0 0.00124603)
(0 0 0.00120061)
(0 0 0.0011552)
(0 0 0.00110979)
(0 0 0.0010644)
(0 0 0.00101902)
(0 0 0.00097364)
(0 0 0.000928274)
(0 0 0.000882917)
(0 0 0.000837571)
(0 0 0.000792233)
(0 0 0.000746905)
(0 0 0.000701587)
(0 0 0.000656277)
(0 0 0.000610975)
(0 0 0.000565682)
(0 0 0.000520397)
(0 0 0.000475119)
(0 0 0.000429848)
(0 0 0.000384584)
(0 0 0.000339325)
(0 0 0.000294071)
(0 0 0.000248821)
(0 0 0.000203576)
(0 0 0.000158333)
(0 0 0.000113094)
(0 0 6.78554e-05)
(0 0 2.26183e-05)
(0 0 4.64665e-05)
(0 0 0.0001394)
(0 0 0.000232335)
(0 0 0.000325273)
(0 0 0.000418213)
(0 0 0.000511158)
(0 0 0.000604107)
(0 0 0.000697062)
(0 0 0.000790022)
(0 0 0.000882988)
(0 0 0.000975961)
(0 0 0.00106894)
(0 0 0.00116192)
(0 0 0.00125492)
(0 0 0.00134791)
(0 0 0.00144091)
(0 0 0.00153391)
(0 0 0.00162691)
(0 0 0.00171991)
(0 0 0.00181291)
(0 0 0.0019059)
(0 0 0.00199888)
(0 0 0.00209185)
(0 0 0.0021848)
(0 0 0.00227773)
(0 0 0.00237063)
(0 0 0.0024635)
(0 0 0.00255634)
(0 0 0.00264913)
(0 0 0.00274187)
(0 0 0.00283456)
(0 0 0.00292717)
(0 0 0.00301971)
(0 0 0.00311217)
(0 0 0.00320454)
(0 0 0.0032968)
(0 0 0.00338894)
(0 0 0.00348096)
(0 0 0.00357284)
(0 0 0.00366456)
(0 0 0.00375612)
(0 0 0.00384749)
(0 0 0.00393867)
(0 0 0.00402963)
(0 0 0.00412037)
(0 0 0.00421085)
(0 0 0.00430107)
(0 0 0.00439101)
(0 0 0.00448064)
(0 0 0.00456994)
(0 0 0.0046589)
(0 0 0.00474749)
(0 0 0.00483569)
(0 0 0.00492347)
(0 0 0.00501081)
(0 0 0.00509769)
(0 0 0.00518408)
(0 0 0.00526995)
(0 0 0.00535528)
(0 0 0.00544003)
(0 0 0.00552419)
(0 0 0.00560772)
(0 0 0.00569059)
(0 0 0.00577277)
(0 0 0.00585424)
(0 0 0.00593495)
(0 0 0.00601489)
(0 0 0.00609401)
(0 0 0.00617228)
(0 0 0.00624968)
(0 0 0.00632617)
(0 0 0.00640171)
(0 0 0.00647628)
(0 0 0.00654984)
(0 0 0.00662235)
(0 0 0.00669378)
(0 0 0.0067641)
(0 0 0.00683328)
(0 0 0.00690128)
(0 0 0.00696806)
(0 0 0.0070336)
(0 0 0.00709786)
(0 0 0.00716081)
(0 0 0.00722241)
(0 0 0.00728264)
(0 0 0.00734147)
(0 0 0.00739885)
(0 0 0.00745477)
(0 0 0.0075092)
(0 0 0.00756209)
(0 0 0.00761343)
(0 0 0.0076632)
(0 0 0.00771135)
(0 0 0.00775788)
(0 0 0.00780274)
(0 0 0.00784593)
(0 0 0.00788742)
(0 0 0.00792718)
(0 0 0.0079652)
(0 0 0.00800146)
(0 0 0.00803594)
(0 0 0.00806863)
(0 0 0.00809951)
(0 0 0.00812856)
(0 0 0.00815578)
(0 0 0.00818115)
(0 0 0.00820467)
(0 0 0.00822633)
(0 0 0.00824611)
(0 0 0.00826402)
(0 0 0.00828006)
(0 0 0.00829421)
(0 0 0.00830648)
(0 0 0.00831687)
(0 0 0.00832538)
(0 0 0.00833201)
(0 0 0.00833678)
(0 0 0.00833968)
(0 0 0.00834072)
(0 0 0.00833991)
(0 0 0.00833727)
(0 0 0.00833279)
(0 0 0.00832651)
(0 0 0.00831842)
(0 0 0.00830854)
(0 0 0.0082969)
(0 0 0.0082835)
(0 0 0.00826837)
(0 0 0.00825152)
(0 0 0.00823298)
(0 0 0.00821276)
(0 0 0.00819089)
(0 0 0.00816739)
(0 0 0.00814228)
(0 0 0.00811559)
(0 0 0.00808733)
(0 0 0.00805755)
(0 0 0.00802626)
(0 0 0.00799349)
(0 0 0.00795927)
(0 0 0.00792362)
(0 0 0.00788657)
(0 0 0.00784815)
(0 0 0.00780839)
(0 0 0.00776732)
(0 0 0.00772496)
(0 0 0.00768134)
(0 0 0.0076365)
(0 0 0.00759046)
(0 0 0.00754326)
(0 0 0.00749491)
(0 0 0.00744546)
(0 0 0.00739492)
(0 0 0.00734334)
(0 0 0.00729073)
(0 0 0.00723713)
(0 0 0.00718256)
(0 0 0.00712705)
(0 0 0.00707063)
(0 0 0.00701334)
(0 0 0.00695519)
(0 0 0.00689621)
(0 0 0.00683643)
(0 0 0.00677588)
(0 0 0.00671458)
(0 0 0.00665255)
(0 0 0.00658984)
(0 0 0.00652644)
(0 0 0.00646241)
(0 0 0.00639774)
(0 0 0.00633248)
(0 0 0.00626664)
(0 0 0.00620024)
(0 0 0.00613332)
(0 0 0.00606588)
(0 0 0.00599795)
(0 0 0.00592955)
(0 0 0.0058607)
(0 0 0.00579142)
(0 0 0.00572173)
(0 0 0.00565165)
(0 0 0.0055812)
(0 0 0.00551039)
(0 0 0.00543924)
(0 0 0.00536776)
(0 0 0.00529598)
(0 0 0.00522391)
(0 0 0.00515157)
(0 0 0.00507896)
(0 0 0.00500611)
(0 0 0.00493302)
(0 0 0.00485971)
(0 0 0.00478619)
(0 0 0.00471248)
(0 0 0.00463859)
(0 0 0.00456453)
(0 0 0.0044903)
(0 0 0.00441593)
(0 0 0.00434141)
(0 0 0.00426677)
(0 0 0.004192)
(0 0 0.00411713)
(0 0 0.00404215)
(0 0 0.00396707)
(0 0 0.00389191)
(0 0 0.00381667)
(0 0 0.00374136)
(0 0 0.00366598)
(0 0 0.00359055)
(0 0 0.00351506)
(0 0 0.00343952)
(0 0 0.00336394)
(0 0 0.00328833)
(0 0 0.00321268)
(0 0 0.00313701)
(0 0 0.00306131)
(0 0 0.0029856)
(0 0 0.00290987)
(0 0 0.00283413)
(0 0 0.00275838)
(0 0 0.00268263)
(0 0 0.00260687)
(0 0 0.00253112)
(0 0 0.00245536)
(0 0 0.00237962)
(0 0 0.00230388)
(0 0 0.00222814)
(0 0 0.00215242)
(0 0 0.00207671)
(0 0 0.00200101)
(0 0 0.00192532)
(0 0 0.00184965)
(0 0 0.00177399)
(0 0 0.00169835)
(0 0 0.00162272)
(0 0 0.00154711)
(0 0 0.00147152)
(0 0 0.00139594)
(0 0 0.00132038)
(0 0 0.00124483)
(0 0 0.0011693)
(0 0 0.00109378)
(0 0 0.00101828)
(0 0 0.000942795)
(0 0 0.00086732)
(0 0 0.000791858)
(0 0 0.000716407)
(0 0 0.000640966)
(0 0 0.000565535)
(0 0 0.000490113)
(0 0 0.000414698)
(0 0 0.000339289)
(0 0 0.000263886)
(0 0 0.000188487)
(0 0 0.000113091)
(0 0 3.76968e-05)
(0 0 6.50525e-05)
(0 0 0.000195158)
(0 0 0.000325266)
(0 0 0.000455377)
(0 0 0.000585493)
(0 0 0.000715614)
(0 0 0.000845742)
(0 0 0.000975878)
(0 0 0.00110602)
(0 0 0.00123618)
(0 0 0.00136634)
(0 0 0.00149651)
(0 0 0.00162669)
(0 0 0.00175687)
(0 0 0.00188707)
(0 0 0.00201727)
(0 0 0.00214747)
(0 0 0.00227768)
(0 0 0.00240788)
(0 0 0.00253808)
(0 0 0.00266827)
(0 0 0.00279845)
(0 0 0.00292861)
(0 0 0.00305875)
(0 0 0.00318886)
(0 0 0.00331893)
(0 0 0.00344896)
(0 0 0.00357894)
(0 0 0.00370885)
(0 0 0.0038387)
(0 0 0.00396847)
(0 0 0.00409815)
(0 0 0.00422772)
(0 0 0.00435717)
(0 0 0.0044865)
(0 0 0.00461568)
(0 0 0.0047447)
(0 0 0.00487354)
(0 0 0.00500218)
(0 0 0.00513062)
(0 0 0.00525882)
(0 0 0.00538676)
(0 0 0.00551443)
(0 0 0.00564181)
(0 0 0.00576886)
(0 0 0.00589557)
(0 0 0.0060219)
(0 0 0.00614784)
(0 0 0.00627335)
(0 0 0.00639841)
(0 0 0.00652298)
(0 0 0.00664703)
(0 0 0.00677054)
(0 0 0.00689347)
(0 0 0.00701579)
(0 0 0.00713745)
(0 0 0.00725843)
(0 0 0.00737869)
(0 0 0.00749819)
(0 0 0.00761689)
(0 0 0.00773475)
(0 0 0.00785173)
(0 0 0.00796779)
(0 0 0.00808289)
(0 0 0.00819698)
(0 0 0.00831003)
(0 0 0.00842198)
(0 0 0.00853279)
(0 0 0.00864243)
(0 0 0.00875083)
(0 0 0.00885796)
(0 0 0.00896377)
(0 0 0.00906821)
(0 0 0.00917123)
(0 0 0.0092728)
(0 0 0.00937285)
(0 0 0.00947135)
(0 0 0.00956824)
(0 0 0.00966349)
(0 0 0.00975703)
(0 0 0.00984883)
(0 0 0.00993884)
(0 0 0.010027)
(0 0 0.0101133)
(0 0 0.0101977)
(0 0 0.0102801)
(0 0 0.0103605)
(0 0 0.0104388)
(0 0 0.010515)
(0 0 0.0105891)
(0 0 0.010661)
(0 0 0.0107307)
(0 0 0.0107982)
(0 0 0.0108633)
(0 0 0.0109262)
(0 0 0.0109867)
(0 0 0.0110448)
(0 0 0.0111005)
(0 0 0.0111537)
(0 0 0.0112045)
(0 0 0.0112528)
(0 0 0.0112986)
(0 0 0.0113419)
(0 0 0.0113826)
(0 0 0.0114207)
(0 0 0.0114562)
(0 0 0.0114891)
(0 0 0.0115195)
(0 0 0.0115472)
(0 0 0.0115723)
(0 0 0.0115947)
(0 0 0.0116145)
(0 0 0.0116317)
(0 0 0.0116462)
(0 0 0.0116582)
(0 0 0.0116674)
(0 0 0.0116741)
(0 0 0.0116781)
(0 0 0.0116796)
(0 0 0.0116784)
(0 0 0.0116747)
(0 0 0.0116685)
(0 0 0.0116596)
(0 0 0.0116483)
(0 0 0.0116344)
(0 0 0.0116181)
(0 0 0.0115993)
(0 0 0.0115781)
(0 0 0.0115545)
(0 0 0.0115285)
(0 0 0.0115002)
(0 0 0.0114695)
(0 0 0.0114366)
(0 0 0.0114014)
(0 0 0.011364)
(0 0 0.0113244)
(0 0 0.0112827)
(0 0 0.0112388)
(0 0 0.0111929)
(0 0 0.011145)
(0 0 0.011095)
(0 0 0.0110431)
(0 0 0.0109893)
(0 0 0.0109336)
(0 0 0.010876)
(0 0 0.0108167)
(0 0 0.0107556)
(0 0 0.0106928)
(0 0 0.0106283)
(0 0 0.0105622)
(0 0 0.0104944)
(0 0 0.0104252)
(0 0 0.0103544)
(0 0 0.0102821)
(0 0 0.0102084)
(0 0 0.0101333)
(0 0 0.0100569)
(0 0 0.00997914)
(0 0 0.00990012)
(0 0 0.00981987)
(0 0 0.00973842)
(0 0 0.00965581)
(0 0 0.00957209)
(0 0 0.00948728)
(0 0 0.00940142)
(0 0 0.00931455)
(0 0 0.00922671)
(0 0 0.00913793)
(0 0 0.00904824)
(0 0 0.00895768)
(0 0 0.00886628)
(0 0 0.00877407)
(0 0 0.00868109)
(0 0 0.00858736)
(0 0 0.00849291)
(0 0 0.00839778)
(0 0 0.008302)
(0 0 0.00820558)
(0 0 0.00810857)
(0 0 0.00801098)
(0 0 0.00791284)
(0 0 0.00781418)
(0 0 0.00771502)
(0 0 0.00761539)
(0 0 0.0075153)
(0 0 0.00741479)
(0 0 0.00731387)
(0 0 0.00721256)
(0 0 0.00711089)
(0 0 0.00700887)
(0 0 0.00690653)
(0 0 0.00680388)
(0 0 0.00670094)
(0 0 0.00659773)
(0 0 0.00649427)
(0 0 0.00639056)
(0 0 0.00628663)
(0 0 0.00618249)
(0 0 0.00607816)
(0 0 0.00597365)
(0 0 0.00586896)
(0 0 0.00576412)
(0 0 0.00565914)
(0 0 0.00555403)
(0 0 0.00544879)
(0 0 0.00534345)
(0 0 0.005238)
(0 0 0.00513246)
(0 0 0.00502684)
(0 0 0.00492115)
(0 0 0.00481539)
(0 0 0.00470957)
(0 0 0.00460371)
(0 0 0.00449779)
(0 0 0.00439185)
(0 0 0.00428587)
(0 0 0.00417986)
(0 0 0.00407384)
(0 0 0.00396779)
(0 0 0.00386174)
(0 0 0.00375568)
(0 0 0.00364962)
(0 0 0.00354356)
(0 0 0.0034375)
(0 0 0.00333145)
(0 0 0.00322541)
(0 0 0.00311938)
(0 0 0.00301337)
(0 0 0.00290737)
(0 0 0.00280139)
(0 0 0.00269543)
(0 0 0.00258949)
(0 0 0.00248357)
(0 0 0.00237767)
(0 0 0.00227179)
(0 0 0.00216593)
(0 0 0.0020601)
(0 0 0.00195429)
(0 0 0.00184851)
(0 0 0.00174274)
(0 0 0.001637)
(0 0 0.00153128)
(0 0 0.00142558)
(0 0 0.0013199)
(0 0 0.00121423)
(0 0 0.00110859)
(0 0 0.00100295)
(0 0 0.000897339)
(0 0 0.000791737)
(0 0 0.000686147)
(0 0 0.000580568)
(0 0 0.000474998)
(0 0 0.000369435)
(0 0 0.000263878)
(0 0 0.000158325)
(0 0 5.27748e-05)
(0 0 8.36378e-05)
(0 0 0.000250914)
(0 0 0.000418193)
(0 0 0.000585477)
(0 0 0.000752767)
(0 0 0.000920064)
(0 0 0.00108737)
(0 0 0.00125469)
(0 0 0.00142201)
(0 0 0.00158935)
(0 0 0.0017567)
(0 0 0.00192407)
(0 0 0.00209144)
(0 0 0.00225883)
(0 0 0.00242622)
(0 0 0.00259363)
(0 0 0.00276103)
(0 0 0.00292844)
(0 0 0.00309585)
(0 0 0.00326326)
(0 0 0.00343066)
(0 0 0.00359804)
(0 0 0.00376539)
(0 0 0.00393272)
(0 0 0.00410002)
(0 0 0.00426727)
(0 0 0.00443446)
(0 0 0.00460159)
(0 0 0.00476865)
(0 0 0.00493561)
(0 0 0.00510248)
(0 0 0.00526922)
(0 0 0.00543584)
(0 0 0.00560231)
(0 0 0.00576861)
(0 0 0.00593472)
(0 0 0.00610063)
(0 0 0.00626631)
(0 0 0.00643175)
(0 0 0.00659691)
(0 0 0.00676177)
(0 0 0.00692631)
(0 0 0.0070905)
(0 0 0.0072543)
(0 0 0.0074177)
(0 0 0.00758065)
(0 0 0.00774313)
(0 0 0.0079051)
(0 0 0.00806652)
(0 0 0.00822735)
(0 0 0.00838757)
(0 0 0.00854713)
(0 0 0.00870598)
(0 0 0.00886409)
(0 0 0.00902141)
(0 0 0.0091779)
(0 0 0.00933351)
(0 0 0.00948819)
(0 0 0.0096419)
(0 0 0.00979458)
(0 0 0.00994618)
(0 0 0.0100967)
(0 0 0.010246)
(0 0 0.010394)
(0 0 0.0105408)
(0 0 0.0106862)
(0 0 0.0108302)
(0 0 0.0109728)
(0 0 0.0111138)
(0 0 0.0112533)
(0 0 0.0113911)
(0 0 0.0115272)
(0 0 0.0116616)
(0 0 0.0117941)
(0 0 0.0119248)
(0 0 0.0120535)
(0 0 0.0121802)
(0 0 0.0123049)
(0 0 0.0124274)
(0 0 0.0125477)
(0 0 0.0126659)
(0 0 0.0127817)
(0 0 0.0128951)
(0 0 0.0130061)
(0 0 0.0131147)
(0 0 0.0132207)
(0 0 0.0133241)
(0 0 0.0134249)
(0 0 0.013523)
(0 0 0.0136183)
(0 0 0.0137108)
(0 0 0.0138005)
(0 0 0.0138873)
(0 0 0.0139711)
(0 0 0.014052)
(0 0 0.0141298)
(0 0 0.0142046)
(0 0 0.0142762)
(0 0 0.0143448)
(0 0 0.0144101)
(0 0 0.0144722)
(0 0 0.0145311)
(0 0 0.0145868)
(0 0 0.0146391)
(0 0 0.0146882)
(0 0 0.0147339)
(0 0 0.0147762)
(0 0 0.0148152)
(0 0 0.0148509)
(0 0 0.0148831)
(0 0 0.014912)
(0 0 0.0149375)
(0 0 0.0149596)
(0 0 0.0149783)
(0 0 0.0149936)
(0 0 0.0150055)
(0 0 0.015014)
(0 0 0.0150192)
(0 0 0.0150211)
(0 0 0.0150196)
(0 0 0.0150148)
(0 0 0.0150067)
(0 0 0.0149953)
(0 0 0.0149807)
(0 0 0.0149628)
(0 0 0.0149418)
(0 0 0.0149176)
(0 0 0.0148903)
(0 0 0.0148599)
(0 0 0.0148264)
(0 0 0.0147899)
(0 0 0.0147504)
(0 0 0.014708)
(0 0 0.0146627)
(0 0 0.0146146)
(0 0 0.0145636)
(0 0 0.0145099)
(0 0 0.0144535)
(0 0 0.0143944)
(0 0 0.0143327)
(0 0 0.0142684)
(0 0 0.0142016)
(0 0 0.0141323)
(0 0 0.0140606)
(0 0 0.0139866)
(0 0 0.0139102)
(0 0 0.0138316)
(0 0 0.0137507)
(0 0 0.0136677)
(0 0 0.0135827)
(0 0 0.0134955)
(0 0 0.0134064)
(0 0 0.0133153)
(0 0 0.0132223)
(0 0 0.0131275)
(0 0 0.0130309)
(0 0 0.0129325)
(0 0 0.0128325)
(0 0 0.0127308)
(0 0 0.0126276)
(0 0 0.0125228)
(0 0 0.0124165)
(0 0 0.0123088)
(0 0 0.0121997)
(0 0 0.0120893)
(0 0 0.0119775)
(0 0 0.0118645)
(0 0 0.0117503)
(0 0 0.011635)
(0 0 0.0115185)
(0 0 0.0114009)
(0 0 0.0112823)
(0 0 0.0111627)
(0 0 0.0110421)
(0 0 0.0109206)
(0 0 0.0107983)
(0 0 0.0106751)
(0 0 0.0105511)
(0 0 0.0104263)
(0 0 0.0103008)
(0 0 0.0101745)
(0 0 0.0100477)
(0 0 0.00992012)
(0 0 0.00979198)
(0 0 0.00966326)
(0 0 0.009534)
(0 0 0.0094042)
(0 0 0.00927392)
(0 0 0.00914317)
(0 0 0.00901197)
(0 0 0.00888036)
(0 0 0.00874835)
(0 0 0.00861597)
(0 0 0.00848324)
(0 0 0.00835018)
(0 0 0.00821682)
(0 0 0.00808317)
(0 0 0.00794926)
(0 0 0.00781509)
(0 0 0.00768069)
(0 0 0.00754608)
(0 0 0.00741126)
(0 0 0.00727627)
(0 0 0.0071411)
(0 0 0.00700578)
(0 0 0.00687032)
(0 0 0.00673473)
(0 0 0.00659902)
(0 0 0.00646321)
(0 0 0.0063273)
(0 0 0.00619131)
(0 0 0.00605525)
(0 0 0.00591912)
(0 0 0.00578294)
(0 0 0.00564671)
(0 0 0.00551044)
(0 0 0.00537414)
(0 0 0.00523782)
(0 0 0.00510147)
(0 0 0.00496511)
(0 0 0.00482874)
(0 0 0.00469237)
(0 0 0.004556)
(0 0 0.00441964)
(0 0 0.00428328)
(0 0 0.00414694)
(0 0 0.00401061)
(0 0 0.00387431)
(0 0 0.00373802)
(0 0 0.00360176)
(0 0 0.00346552)
(0 0 0.0033293)
(0 0 0.00319312)
(0 0 0.00305696)
(0 0 0.00292083)
(0 0 0.00278473)
(0 0 0.00264867)
(0 0 0.00251263)
(0 0 0.00237661)
(0 0 0.00224063)
(0 0 0.00210468)
(0 0 0.00196875)
(0 0 0.00183285)
(0 0 0.00169698)
(0 0 0.00156113)
(0 0 0.0014253)
(0 0 0.00128949)
(0 0 0.0011537)
(0 0 0.00101793)
(0 0 0.000882172)
(0 0 0.000746429)
(0 0 0.000610699)
(0 0 0.000474978)
(0 0 0.000339264)
(0 0 0.000203557)
(0 0 6.78518e-05)
(0 0 0.000102222)
(0 0 0.000306668)
(0 0 0.000511116)
(0 0 0.000715571)
(0 0 0.000920033)
(0 0 0.0011245)
(0 0 0.00132899)
(0 0 0.00153348)
(0 0 0.00173799)
(0 0 0.00194252)
(0 0 0.00214706)
(0 0 0.00235161)
(0 0 0.00255619)
(0 0 0.00276077)
(0 0 0.00296537)
(0 0 0.00316998)
(0 0 0.00337459)
(0 0 0.00357921)
(0 0 0.00378383)
(0 0 0.00398845)
(0 0 0.00419306)
(0 0 0.00439764)
(0 0 0.00460221)
(0 0 0.00480674)
(0 0 0.00501123)
(0 0 0.00521566)
(0 0 0.00542003)
(0 0 0.00562433)
(0 0 0.00582853)
(0 0 0.00603263)
(0 0 0.0062366)
(0 0 0.00644043)
(0 0 0.00664411)
(0 0 0.0068476)
(0 0 0.0070509)
(0 0 0.00725397)
(0 0 0.00745679)
(0 0 0.00765934)
(0 0 0.00786158)
(0 0 0.0080635)
(0 0 0.00826505)
(0 0 0.00846621)
(0 0 0.00866694)
(0 0 0.00886721)
(0 0 0.00906698)
(0 0 0.00926621)
(0 0 0.00946487)
(0 0 0.0096629)
(0 0 0.00986027)
(0 0 0.0100569)
(0 0 0.0102528)
(0 0 0.0104479)
(0 0 0.0106422)
(0 0 0.0108355)
(0 0 0.0110279)
(0 0 0.0112192)
(0 0 0.0114095)
(0 0 0.0115987)
(0 0 0.0117866)
(0 0 0.0119733)
(0 0 0.0121587)
(0 0 0.0123428)
(0 0 0.0125253)
(0 0 0.0127064)
(0 0 0.0128859)
(0 0 0.0130638)
(0 0 0.0132399)
(0 0 0.0134143)
(0 0 0.0135867)
(0 0 0.0137573)
(0 0 0.0139259)
(0 0 0.0140924)
(0 0 0.0142567)
(0 0 0.0144188)
(0 0 0.0145787)
(0 0 0.0147361)
(0 0 0.0148911)
(0 0 0.0150436)
(0 0 0.0151935)
(0 0 0.0153407)
(0 0 0.0154852)
(0 0 0.0156268)
(0 0 0.0157656)
(0 0 0.0159014)
(0 0 0.0160342)
(0 0 0.0161639)
(0 0 0.0162904)
(0 0 0.0164137)
(0 0 0.0165337)
(0 0 0.0166503)
(0 0 0.0167635)
(0 0 0.0168732)
(0 0 0.0169793)
(0 0 0.0170819)
(0 0 0.0171808)
(0 0 0.017276)
(0 0 0.0173675)
(0 0 0.0174551)
(0 0 0.0175389)
(0 0 0.0176189)
(0 0 0.0176949)
(0 0 0.0177669)
(0 0 0.017835)
(0 0 0.017899)
(0 0 0.017959)
(0 0 0.0180149)
(0 0 0.0180667)
(0 0 0.0181144)
(0 0 0.018158)
(0 0 0.0181974)
(0 0 0.0182327)
(0 0 0.0182638)
(0 0 0.0182908)
(0 0 0.0183137)
(0 0 0.0183323)
(0 0 0.0183469)
(0 0 0.0183573)
(0 0 0.0183636)
(0 0 0.0183659)
(0 0 0.018364)
(0 0 0.0183581)
(0 0 0.0183481)
(0 0 0.0183342)
(0 0 0.0183162)
(0 0 0.0182944)
(0 0 0.0182686)
(0 0 0.018239)
(0 0 0.0182055)
(0 0 0.0181683)
(0 0 0.0181273)
(0 0 0.0180826)
(0 0 0.0180343)
(0 0 0.0179824)
(0 0 0.0179269)
(0 0 0.017868)
(0 0 0.0178056)
(0 0 0.0177399)
(0 0 0.0176708)
(0 0 0.0175985)
(0 0 0.0175229)
(0 0 0.0174443)
(0 0 0.0173625)
(0 0 0.0172777)
(0 0 0.01719)
(0 0 0.0170994)
(0 0 0.017006)
(0 0 0.0169098)
(0 0 0.0168108)
(0 0 0.0167093)
(0 0 0.0166052)
(0 0 0.0164986)
(0 0 0.0163895)
(0 0 0.0162781)
(0 0 0.0161643)
(0 0 0.0160484)
(0 0 0.0159302)
(0 0 0.0158099)
(0 0 0.0156875)
(0 0 0.0155632)
(0 0 0.0154369)
(0 0 0.0153087)
(0 0 0.0151787)
(0 0 0.015047)
(0 0 0.0149135)
(0 0 0.0147784)
(0 0 0.0146418)
(0 0 0.0145036)
(0 0 0.0143639)
(0 0 0.0142228)
(0 0 0.0140803)
(0 0 0.0139365)
(0 0 0.0137915)
(0 0 0.0136452)
(0 0 0.0134978)
(0 0 0.0133492)
(0 0 0.0131996)
(0 0 0.013049)
(0 0 0.0128973)
(0 0 0.0127447)
(0 0 0.0125913)
(0 0 0.0124369)
(0 0 0.0122818)
(0 0 0.0121258)
(0 0 0.0119692)
(0 0 0.0118118)
(0 0 0.0116537)
(0 0 0.011495)
(0 0 0.0113357)
(0 0 0.0111759)
(0 0 0.0110155)
(0 0 0.0108546)
(0 0 0.0106932)
(0 0 0.0105313)
(0 0 0.0103691)
(0 0 0.0102064)
(0 0 0.0100434)
(0 0 0.00987998)
(0 0 0.00971627)
(0 0 0.00955225)
(0 0 0.00938795)
(0 0 0.00922339)
(0 0 0.00905859)
(0 0 0.00889356)
(0 0 0.00872833)
(0 0 0.00856291)
(0 0 0.00839732)
(0 0 0.00823157)
(0 0 0.00806568)
(0 0 0.00789967)
(0 0 0.00773354)
(0 0 0.00756731)
(0 0 0.007401)
(0 0 0.0072346)
(0 0 0.00706814)
(0 0 0.00690162)
(0 0 0.00673505)
(0 0 0.00656845)
(0 0 0.00640182)
(0 0 0.00623516)
(0 0 0.00606848)
(0 0 0.0059018)
(0 0 0.00573512)
(0 0 0.00556844)
(0 0 0.00540176)
(0 0 0.0052351)
(0 0 0.00506845)
(0 0 0.00490182)
(0 0 0.00473522)
(0 0 0.00456864)
(0 0 0.0044021)
(0 0 0.00423558)
(0 0 0.00406909)
(0 0 0.00390264)
(0 0 0.00373623)
(0 0 0.00356985)
(0 0 0.00340351)
(0 0 0.0032372)
(0 0 0.00307093)
(0 0 0.00290469)
(0 0 0.00273849)
(0 0 0.00257233)
(0 0 0.0024062)
(0 0 0.0022401)
(0 0 0.00207403)
(0 0 0.001908)
(0 0 0.00174199)
(0 0 0.001576)
(0 0 0.00141004)
(0 0 0.0012441)
(0 0 0.00107818)
(0 0 0.000912279)
(0 0 0.00074639)
(0 0 0.000580513)
(0 0 0.000414646)
(0 0 0.000248785)
(0 0 8.29278e-05)
(0 0 0.000120805)
(0 0 0.000362417)
(0 0 0.000604034)
(0 0 0.000845657)
(0 0 0.00108729)
(0 0 0.00132893)
(0 0 0.00157059)
(0 0 0.00181227)
(0 0 0.00205396)
(0 0 0.00229567)
(0 0 0.0025374)
(0 0 0.00277915)
(0 0 0.00302092)
(0 0 0.0032627)
(0 0 0.0035045)
(0 0 0.00374632)
(0 0 0.00398815)
(0 0 0.00422998)
(0 0 0.00447182)
(0 0 0.00471365)
(0 0 0.00495547)
(0 0 0.00519728)
(0 0 0.00543905)
(0 0 0.0056808)
(0 0 0.00592249)
(0 0 0.00616412)
(0 0 0.00640568)
(0 0 0.00664715)
(0 0 0.00688852)
(0 0 0.00712976)
(0 0 0.00737086)
(0 0 0.0076118)
(0 0 0.00785256)
(0 0 0.0080931)
(0 0 0.00833341)
(0 0 0.00857346)
(0 0 0.00881322)
(0 0 0.00905266)
(0 0 0.00929175)
(0 0 0.00953045)
(0 0 0.00976872)
(0 0 0.0100065)
(0 0 0.0102439)
(0 0 0.0104806)
(0 0 0.0107168)
(0 0 0.0109524)
(0 0 0.0111872)
(0 0 0.0114214)
(0 0 0.0116547)
(0 0 0.0118872)
(0 0 0.0121189)
(0 0 0.0123496)
(0 0 0.0125793)
(0 0 0.0128079)
(0 0 0.0130353)
(0 0 0.0132616)
(0 0 0.0134866)
(0 0 0.0137103)
(0 0 0.0139326)
(0 0 0.0141534)
(0 0 0.0143727)
(0 0 0.0145903)
(0 0 0.0148063)
(0 0 0.0150204)
(0 0 0.0152327)
(0 0 0.0154431)
(0 0 0.0156514)
(0 0 0.0158576)
(0 0 0.0160616)
(0 0 0.0162634)
(0 0 0.0164628)
(0 0 0.0166597)
(0 0 0.0168541)
(0 0 0.0170459)
(0 0 0.0172349)
(0 0 0.0174212)
(0 0 0.0176045)
(0 0 0.0177849)
(0 0 0.0179622)
(0 0 0.0181364)
(0 0 0.0183073)
(0 0 0.0184749)
(0 0 0.0186391)
(0 0 0.0187997)
(0 0 0.0189568)
(0 0 0.0191103)
(0 0 0.0192599)
(0 0 0.0194058)
(0 0 0.0195477)
(0 0 0.0196857)
(0 0 0.0198196)
(0 0 0.0199494)
(0 0 0.020075)
(0 0 0.0201963)
(0 0 0.0203134)
(0 0 0.020426)
(0 0 0.0205342)
(0 0 0.0206379)
(0 0 0.020737)
(0 0 0.0208316)
(0 0 0.0209215)
(0 0 0.0210067)
(0 0 0.0210872)
(0 0 0.0211629)
(0 0 0.0212339)
(0 0 0.0213)
(0 0 0.0213612)
(0 0 0.0214176)
(0 0 0.0214692)
(0 0 0.0215158)
(0 0 0.0215575)
(0 0 0.0215943)
(0 0 0.0216262)
(0 0 0.0216532)
(0 0 0.0216753)
(0 0 0.0216925)
(0 0 0.0217047)
(0 0 0.0217122)
(0 0 0.0217147)
(0 0 0.0217125)
(0 0 0.0217054)
(0 0 0.0216936)
(0 0 0.021677)
(0 0 0.0216558)
(0 0 0.0216299)
(0 0 0.0215993)
(0 0 0.0215642)
(0 0 0.0215246)
(0 0 0.0214804)
(0 0 0.0214319)
(0 0 0.021379)
(0 0 0.0213218)
(0 0 0.0212603)
(0 0 0.0211946)
(0 0 0.0211248)
(0 0 0.021051)
(0 0 0.0209732)
(0 0 0.0208914)
(0 0 0.0208058)
(0 0 0.0207164)
(0 0 0.0206232)
(0 0 0.0205265)
(0 0 0.0204261)
(0 0 0.0203223)
(0 0 0.0202151)
(0 0 0.0201045)
(0 0 0.0199906)
(0 0 0.0198736)
(0 0 0.0197534)
(0 0 0.0196302)
(0 0 0.0195041)
(0 0 0.0193751)
(0 0 0.0192432)
(0 0 0.0191086)
(0 0 0.0189714)
(0 0 0.0188316)
(0 0 0.0186893)
(0 0 0.0185445)
(0 0 0.0183974)
(0 0 0.018248)
(0 0 0.0180964)
(0 0 0.0179426)
(0 0 0.0177868)
(0 0 0.0176289)
(0 0 0.0174692)
(0 0 0.0173075)
(0 0 0.0171441)
(0 0 0.0169789)
(0 0 0.016812)
(0 0 0.0166435)
(0 0 0.0164734)
(0 0 0.0163019)
(0 0 0.0161289)
(0 0 0.0159546)
(0 0 0.0157789)
(0 0 0.015602)
(0 0 0.0154238)
(0 0 0.0152445)
(0 0 0.0150641)
(0 0 0.0148826)
(0 0 0.0147001)
(0 0 0.0145167)
(0 0 0.0143323)
(0 0 0.014147)
(0 0 0.013961)
(0 0 0.0137741)
(0 0 0.0135865)
(0 0 0.0133981)
(0 0 0.0132091)
(0 0 0.0130195)
(0 0 0.0128293)
(0 0 0.0126385)
(0 0 0.0124471)
(0 0 0.0122553)
(0 0 0.012063)
(0 0 0.0118703)
(0 0 0.0116771)
(0 0 0.0114836)
(0 0 0.0112897)
(0 0 0.0110955)
(0 0 0.0109009)
(0 0 0.0107061)
(0 0 0.0105111)
(0 0 0.0103157)