/*--------------------------------*- C++ -*----------------------------------*\
| =========                 |                                                 |
| \\      /  F ield         | OpenFOAM: The Open Source CFD Toolbox           |
|  \\    /   O peration     | Version:  v2012                                 |
|   \\  /    A nd           | Website:  www.openfoam.com                      |
|    \\/     M anipulation  |                                                 |
\*---------------------------------------------------------------------------*/
FoamFile
{
    version     2.0;
    format      ascii;
    class       volVectorField;
    location    "9";
    object      U;
}
// * * * * * * * * * * * * * * * * * * * * * * * * * * * * * * * * * * * * * //

dimensions      [0 1 -1 0 0 0 0];


internalField   nonuniform List<vector> 
65536
(
(0.000757325 -0.000757329 0)
(0.00227198 -0.000757337 0)
(0.00378667 -0.000757352 0)
(0.00530138 -0.000757373 0)
(0.00681615 -0.000757402 0)
(0.00833099 -0.000757436 0)
(0.00984589 -0.000757475 0)
(0.0113609 -0.000757518 0)
(0.012876 -0.000757565 0)
(0.0143911 -0.000757612 0)
(0.0159064 -0.00075766 0)
(0.0174218 -0.000757706 0)
(0.0189372 -0.000757749 0)
(0.0204528 -0.000757786 0)
(0.0219684 -0.000757816 0)
(0.0234841 -0.000757836 0)
(0.0249998 -0.000757844 0)
(0.0265154 -0.000757837 0)
(0.0280311 -0.000757812 0)
(0.0295467 -0.000757766 0)
(0.0310622 -0.000757697 0)
(0.0325775 -0.0007576 0)
(0.0340926 -0.000757473 0)
(0.0356075 -0.000757312 0)
(0.0371219 -0.000757113 0)
(0.038636 -0.000756872 0)
(0.0401495 -0.000756585 0)
(0.0416623 -0.000756248 0)
(0.0431745 -0.000755857 0)
(0.0446858 -0.000755407 0)
(0.0461962 -0.000754893 0)
(0.0477055 -0.000754311 0)
(0.0492135 -0.000753656 0)
(0.0507202 -0.000752922 0)
(0.0522253 -0.000752105 0)
(0.0537287 -0.000751199 0)
(0.0552302 -0.0007502 0)
(0.0567296 -0.0007491 0)
(0.0582267 -0.000747896 0)
(0.0597213 -0.000746581 0)
(0.0612131 -0.000745149 0)
(0.062702 -0.000743594 0)
(0.0641876 -0.000741911 0)
(0.0656698 -0.000740094 0)
(0.0671481 -0.000738137 0)
(0.0686225 -0.000736033 0)
(0.0700924 -0.000733776 0)
(0.0715577 -0.000731362 0)
(0.073018 -0.000728782 0)
(0.074473 -0.000726032 0)
(0.0759223 -0.000723105 0)
(0.0773656 -0.000719995 0)
(0.0788025 -0.000716696 0)
(0.0802326 -0.000713203 0)
(0.0816555 -0.000709509 0)
(0.0830708 -0.000705609 0)
(0.0844782 -0.000701497 0)
(0.085877 -0.000697168 0)
(0.0872671 -0.000692616 0)
(0.0886477 -0.000687837 0)
(0.0900186 -0.000682825 0)
(0.0913793 -0.000677575 0)
(0.0927292 -0.000672083 0)
(0.0940678 -0.000666345 0)
(0.0953948 -0.000660357 0)
(0.0967095 -0.000654114 0)
(0.0980115 -0.000647613 0)
(0.0993002 -0.000640851 0)
(0.100575 -0.000633825 0)
(0.101836 -0.000626532 0)
(0.103082 -0.000618971 0)
(0.104312 -0.000611139 0)
(0.105526 -0.000603035 0)
(0.106724 -0.000594658 0)
(0.107905 -0.000586007 0)
(0.109069 -0.000577082 0)
(0.110214 -0.000567883 0)
(0.11134 -0.000558411 0)
(0.112448 -0.000548666 0)
(0.113535 -0.00053865 0)
(0.114603 -0.000528366 0)
(0.115649 -0.000517815 0)
(0.116674 -0.000507001 0)
(0.117677 -0.000495927 0)
(0.118658 -0.000484596 0)
(0.119616 -0.000473014 0)
(0.12055 -0.000461184 0)
(0.121461 -0.000449113 0)
(0.122347 -0.000436805 0)
(0.123208 -0.000424267 0)
(0.124044 -0.000411506 0)
(0.124855 -0.000398529 0)
(0.125639 -0.000385342 0)
(0.126396 -0.000371955 0)
(0.127127 -0.000358375 0)
(0.12783 -0.000344611 0)
(0.128505 -0.000330671 0)
(0.129153 -0.000316566 0)
(0.129772 -0.000302305 0)
(0.130362 -0.000287897 0)
(0.130924 -0.000273354 0)
(0.131456 -0.000258685 0)
(0.131958 -0.000243901 0)
(0.132431 -0.000229014 0)
(0.132875 -0.000214033 0)
(0.133288 -0.000198971 0)
(0.133671 -0.000183839 0)
(0.134023 -0.000168648 0)
(0.134345 -0.000153409 0)
(0.134637 -0.000138135 0)
(0.134898 -0.000122837 0)
(0.135128 -0.000107526 0)
(0.135328 -9.22148e-05 0)
(0.135497 -7.69135e-05 0)
(0.135635 -6.16341e-05 0)
(0.135743 -4.63878e-05 0)
(0.135821 -3.11856e-05 0)
(0.135868 -1.60386e-05 0)
(0.135885 -9.57463e-07 0)
(0.135872 1.40472e-05 0)
(0.135829 2.8965e-05 0)
(0.135756 4.3786e-05 0)
(0.135654 5.85003e-05 0)
(0.135522 7.30985e-05 0)
(0.135361 8.75711e-05 0)
(0.135171 0.000101909 0)
(0.134953 0.000116105 0)
(0.134707 0.000130149 0)
(0.134432 0.000144034 0)
(0.13413 0.000157753 0)
(0.133801 0.000171298 0)
(0.133445 0.000184663 0)
(0.133062 0.00019784 0)
(0.132654 0.000210825 0)
(0.132219 0.000223612 0)
(0.131759 0.000236194 0)
(0.131274 0.000248568 0)
(0.130764 0.000260729 0)
(0.130231 0.000272673 0)
(0.129674 0.000284396 0)
(0.129093 0.000295896 0)
(0.12849 0.000307168 0)
(0.127864 0.000318211 0)
(0.127217 0.000329022 0)
(0.126548 0.0003396 0)
(0.125858 0.000349943 0)
(0.125148 0.00036005 0)
(0.124418 0.00036992 0)
(0.123668 0.000379552 0)
(0.122899 0.000388948 0)
(0.122112 0.000398105 0)
(0.121306 0.000407026 0)
(0.120483 0.000415711 0)
(0.119643 0.000424161 0)
(0.118787 0.000432376 0)
(0.117914 0.000440359 0)
(0.117025 0.000448112 0)
(0.116121 0.000455635 0)
(0.115202 0.000462932 0)
(0.114269 0.000470004 0)
(0.113322 0.000476854 0)
(0.112361 0.000483485 0)
(0.111388 0.0004899 0)
(0.110402 0.000496101 0)
(0.109403 0.000502092 0)
(0.108393 0.000507877 0)
(0.107371 0.000513457 0)
(0.106339 0.000518837 0)
(0.105296 0.000524021 0)
(0.104243 0.000529012 0)
(0.10318 0.000533814 0)
(0.102107 0.00053843 0)
(0.101026 0.000542865 0)
(0.0999356 0.000547122 0)
(0.0988371 0.000551206 0)
(0.0977306 0.00055512 0)
(0.0966165 0.000558869 0)
(0.095495 0.000562456 0)
(0.0943665 0.000565885 0)
(0.0932313 0.000569162 0)
(0.0920897 0.000572288 0)
(0.090942 0.00057527 0)
(0.0897885 0.00057811 0)
(0.0886294 0.000580812 0)
(0.0874651 0.000583382 0)
(0.0862958 0.000585822 0)
(0.0851217 0.000588137 0)
(0.0839431 0.000590331 0)
(0.0827602 0.000592407 0)
(0.0815734 0.000594369 0)
(0.0803827 0.000596221 0)
(0.0791884 0.000597968 0)
(0.0779907 0.000599611 0)
(0.0767898 0.000601156 0)
(0.075586 0.000602606 0)
(0.0743793 0.000603964 0)
(0.07317 0.000605234 0)
(0.0719583 0.000606419 0)
(0.0707443 0.000607523 0)
(0.0695281 0.000608548 0)
(0.06831 0.000609499 0)
(0.06709 0.000610378 0)
(0.0658684 0.000611188 0)
(0.0646452 0.000611933 0)
(0.0634206 0.000612616 0)
(0.0621947 0.000613238 0)
(0.0609676 0.000613804 0)
(0.0597394 0.000614316 0)
(0.0585103 0.000614777 0)
(0.0572803 0.000615189 0)
(0.0560495 0.000615555 0)
(0.054818 0.000615877 0)
(0.053586 0.000616158 0)
(0.0523534 0.000616401 0)
(0.0511203 0.000616608 0)
(0.0498869 0.00061678 0)
(0.0486532 0.00061692 0)
(0.0474192 0.000617031 0)
(0.046185 0.000617114 0)
(0.0449507 0.000617172 0)
(0.0437163 0.000617205 0)
(0.0424819 0.000617217 0)
(0.0412474 0.000617209 0)
(0.040013 0.000617183 0)
(0.0387787 0.00061714 0)
(0.0375444 0.000617083 0)
(0.0363103 0.000617012 0)
(0.0350764 0.000616929 0)
(0.0338426 0.000616836 0)
(0.032609 0.000616734 0)
(0.0313757 0.000616625 0)
(0.0301425 0.000616509 0)
(0.0289096 0.000616388 0)
(0.027677 0.000616264 0)
(0.0264446 0.000616137 0)
(0.0252124 0.000616009 0)
(0.0239805 0.00061588 0)
(0.0227489 0.000615751 0)
(0.0215175 0.000615624 0)
(0.0202864 0.0006155 0)
(0.0190555 0.000615378 0)
(0.0178249 0.00061526 0)
(0.0165945 0.000615147 0)
(0.0153643 0.000615039 0)
(0.0141343 0.000614937 0)
(0.0129046 0.000614842 0)
(0.011675 0.000614753 0)
(0.0104456 0.000614672 0)
(0.00921629 0.000614599 0)
(0.00798717 0.000614534 0)
(0.00675816 0.000614478 0)
(0.00552926 0.000614431 0)
(0.00430045 0.000614393 0)
(0.0030717 0.000614364 0)
(0.001843 0.000614345 0)
(0.000614331 0.000614336 0)
(0.000757318 -0.00227198 0)
(0.00227196 -0.002272 0)
(0.00378663 -0.00227205 0)
(0.00530133 -0.00227211 0)
(0.00681609 -0.0022722 0)
(0.00833091 -0.0022723 0)
(0.00984581 -0.00227242 0)
(0.0113608 -0.00227255 0)
(0.0128759 -0.00227269 0)
(0.014391 -0.00227284 0)
(0.0159063 -0.00227298 0)
(0.0174217 -0.00227312 0)
(0.0189372 -0.00227325 0)
(0.0204527 -0.00227337 0)
(0.0219683 -0.00227346 0)
(0.023484 -0.00227352 0)
(0.0249998 -0.00227355 0)
(0.0265155 -0.00227353 0)
(0.0280312 -0.00227346 0)
(0.0295468 -0.00227332 0)
(0.0310624 -0.00227312 0)
(0.0325778 -0.00227283 0)
(0.0340929 -0.00227245 0)
(0.0356078 -0.00227197 0)
(0.0371224 -0.00227138 0)
(0.0386365 -0.00227066 0)
(0.0401501 -0.00226981 0)
(0.0416631 -0.0022688 0)
(0.0431753 -0.00226763 0)
(0.0446868 -0.00226628 0)
(0.0461973 -0.00226475 0)
(0.0477067 -0.00226301 0)
(0.0492149 -0.00226105 0)
(0.0507217 -0.00225885 0)
(0.052227 -0.0022564 0)
(0.0537306 -0.00225369 0)
(0.0552323 -0.0022507 0)
(0.0567319 -0.00224741 0)
(0.0582292 -0.0022438 0)
(0.059724 -0.00223986 0)
(0.0612161 -0.00223557 0)
(0.0627052 -0.00223091 0)
(0.0641911 -0.00222587 0)
(0.0656735 -0.00222042 0)
(0.0671522 -0.00221456 0)
(0.0686268 -0.00220825 0)
(0.0700971 -0.00220149 0)
(0.0715627 -0.00219425 0)
(0.0730234 -0.00218652 0)
(0.0744787 -0.00217827 0)
(0.0759284 -0.0021695 0)
(0.077372 -0.00216017 0)
(0.0788093 -0.00215028 0)
(0.0802398 -0.00213981 0)
(0.0816631 -0.00212873 0)
(0.0830788 -0.00211704 0)
(0.0844866 -0.00210471 0)
(0.0858859 -0.00209173 0)
(0.0872764 -0.00207808 0)
(0.0886575 -0.00206374 0)
(0.0900289 -0.00204871 0)
(0.09139 -0.00203297 0)
(0.0927404 -0.0020165 0)
(0.0940796 -0.00199928 0)
(0.095407 -0.00198132 0)
(0.0967223 -0.0019626 0)
(0.0980248 -0.0019431 0)
(0.099314 -0.00192282 0)
(0.100589 -0.00190174 0)
(0.101851 -0.00187986 0)
(0.103097 -0.00185718 0)
(0.104328 -0.00183369 0)
(0.105543 -0.00180938 0)
(0.106741 -0.00178425 0)
(0.107923 -0.00175829 0)
(0.109087 -0.00173152 0)
(0.110233 -0.00170392 0)
(0.11136 -0.0016755 0)
(0.112468 -0.00164627 0)
(0.113556 -0.00161622 0)
(0.114624 -0.00158536 0)
(0.11567 -0.00155371 0)
(0.116696 -0.00152126 0)
(0.1177 -0.00148803 0)
(0.118681 -0.00145404 0)
(0.119639 -0.00141929 0)
(0.120574 -0.00138379 0)
(0.121485 -0.00134757 0)
(0.122372 -0.00131064 0)
(0.123234 -0.00127302 0)
(0.12407 -0.00123473 0)
(0.124881 -0.00119579 0)
(0.125665 -0.00115623 0)
(0.126423 -0.00111606 0)
(0.127154 -0.00107531 0)
(0.127858 -0.00103401 0)
(0.128533 -0.000992179 0)
(0.129181 -0.000949854 0)
(0.1298 -0.00090706 0)
(0.130391 -0.000863827 0)
(0.130953 -0.000820186 0)
(0.131485 -0.000776169 0)
(0.131988 -0.000731806 0)
(0.132461 -0.000687132 0)
(0.132905 -0.00064218 0)
(0.133318 -0.000596982 0)
(0.133701 -0.000551574 0)
(0.134053 -0.000505989 0)
(0.134376 -0.000460263 0)
(0.134667 -0.000414429 0)
(0.134928 -0.000368523 0)
(0.135159 -0.00032258 0)
(0.135358 -0.000276633 0)
(0.135527 -0.000230718 0)
(0.135666 -0.000184869 0)
(0.135774 -0.000139118 0)
(0.135851 -9.35011e-05 0)
(0.135898 -4.80493e-05 0)
(0.135915 -2.79543e-06 0)
(0.135902 4.22288e-05 0)
(0.135858 8.69924e-05 0)
(0.135785 0.000131465 0)
(0.135683 0.000175618 0)
(0.135551 0.000219421 0)
(0.13539 0.000262848 0)
(0.1352 0.000305872 0)
(0.134981 0.000348466 0)
(0.134735 0.000390607 0)
(0.13446 0.00043227 0)
(0.134158 0.000473433 0)
(0.133828 0.000514075 0)
(0.133472 0.000554175 0)
(0.133089 0.000593714 0)
(0.132679 0.000632674 0)
(0.132244 0.000671038 0)
(0.131784 0.000708791 0)
(0.131298 0.000745917 0)
(0.130788 0.000782404 0)
(0.130254 0.00081824 0)
(0.129697 0.000853413 0)
(0.129116 0.000887914 0)
(0.128512 0.000921733 0)
(0.127886 0.000954864 0)
(0.127238 0.000987299 0)
(0.126569 0.00101903 0)
(0.125878 0.00105006 0)
(0.125168 0.00108039 0)
(0.124437 0.00111 0)
(0.123687 0.00113889 0)
(0.122918 0.00116708 0)
(0.12213 0.00119455 0)
(0.121324 0.00122131 0)
(0.120501 0.00124737 0)
(0.11966 0.00127272 0)
(0.118803 0.00129736 0)
(0.117929 0.00132131 0)
(0.11704 0.00134456 0)
(0.116136 0.00136713 0)
(0.115217 0.00138902 0)
(0.114283 0.00141023 0)
(0.113335 0.00143078 0)
(0.112374 0.00145067 0)
(0.1114 0.00146991 0)
(0.110414 0.00148851 0)
(0.109415 0.00150648 0)
(0.108404 0.00152383 0)
(0.107382 0.00154057 0)
(0.106349 0.00155671 0)
(0.105306 0.00157226 0)
(0.104252 0.00158722 0)
(0.103189 0.00160163 0)
(0.102116 0.00161547 0)
(0.101034 0.00162877 0)
(0.0999439 0.00164154 0)
(0.0988451 0.00165379 0)
(0.0977383 0.00166553 0)
(0.0966238 0.00167677 0)
(0.095502 0.00168752 0)
(0.0943732 0.00169781 0)
(0.0932377 0.00170763 0)
(0.0920958 0.00171701 0)
(0.0909478 0.00172595 0)
(0.089794 0.00173447 0)
(0.0886347 0.00174257 0)
(0.0874701 0.00175027 0)
(0.0863005 0.00175759 0)
(0.0851262 0.00176453 0)
(0.0839473 0.00177111 0)
(0.0827643 0.00177733 0)
(0.0815771 0.00178322 0)
(0.0803862 0.00178877 0)
(0.0791917 0.001794 0)
(0.0779938 0.00179893 0)
(0.0767928 0.00180356 0)
(0.0755887 0.00180791 0)
(0.0743819 0.00181198 0)
(0.0731725 0.00181579 0)
(0.0719606 0.00181934 0)
(0.0707464 0.00182265 0)
(0.0695301 0.00182572 0)
(0.0683118 0.00182857 0)
(0.0670917 0.0018312 0)
(0.06587 0.00183363 0)
(0.0646466 0.00183586 0)
(0.0634219 0.00183791 0)
(0.0621959 0.00183977 0)
(0.0609687 0.00184147 0)
(0.0597404 0.001843 0)
(0.0585112 0.00184438 0)
(0.057281 0.00184561 0)
(0.0560502 0.00184671 0)
(0.0548186 0.00184767 0)
(0.0535865 0.00184851 0)
(0.0523538 0.00184924 0)
(0.0511207 0.00184986 0)
(0.0498872 0.00185037 0)
(0.0486534 0.00185079 0)
(0.0474194 0.00185112 0)
(0.0461851 0.00185137 0)
(0.0449508 0.00185154 0)
(0.0437163 0.00185164 0)
(0.0424818 0.00185167 0)
(0.0412474 0.00185165 0)
(0.0400129 0.00185156 0)
(0.0387786 0.00185143 0)
(0.0375443 0.00185126 0)
(0.0363102 0.00185105 0)
(0.0350762 0.0018508 0)
(0.0338424 0.00185052 0)
(0.0326088 0.00185021 0)
(0.0313754 0.00184988 0)
(0.0301423 0.00184953 0)
(0.0289094 0.00184917 0)
(0.0276767 0.00184879 0)
(0.0264443 0.00184841 0)
(0.0252121 0.00184803 0)
(0.0239803 0.00184764 0)
(0.0227486 0.00184725 0)
(0.0215173 0.00184687 0)
(0.0202861 0.0018465 0)
(0.0190553 0.00184613 0)
(0.0178246 0.00184578 0)
(0.0165943 0.00184544 0)
(0.0153641 0.00184511 0)
(0.0141341 0.0018448 0)
(0.0129044 0.00184452 0)
(0.0116748 0.00184425 0)
(0.0104454 0.00184401 0)
(0.00921615 0.00184379 0)
(0.00798705 0.00184359 0)
(0.00675806 0.00184343 0)
(0.00552918 0.00184328 0)
(0.00430038 0.00184317 0)
(0.00307165 0.00184308 0)
(0.00184297 0.00184303 0)
(0.000614321 0.001843 0)
(0.000757303 -0.00378661 0)
(0.00227192 -0.00378665 0)
(0.00378655 -0.00378672 0)
(0.00530123 -0.00378684 0)
(0.00681596 -0.00378698 0)
(0.00833076 -0.00378716 0)
(0.00984564 -0.00378736 0)
(0.0113606 -0.00378758 0)
(0.0128757 -0.00378782 0)
(0.0143908 -0.00378806 0)
(0.0159061 -0.00378831 0)
(0.0174215 -0.00378855 0)
(0.018937 -0.00378877 0)
(0.0204526 -0.00378897 0)
(0.0219682 -0.00378913 0)
(0.023484 -0.00378924 0)
(0.0249997 -0.00378929 0)
(0.0265155 -0.00378927 0)
(0.0280313 -0.00378916 0)
(0.029547 -0.00378895 0)
(0.0310627 -0.00378862 0)
(0.0325782 -0.00378815 0)
(0.0340935 -0.00378754 0)
(0.0356085 -0.00378675 0)
(0.0371232 -0.00378577 0)
(0.0386375 -0.00378459 0)
(0.0401513 -0.00378318 0)
(0.0416645 -0.00378151 0)
(0.043177 -0.00377958 0)
(0.0446887 -0.00377735 0)
(0.0461995 -0.00377481 0)
(0.0477092 -0.00377192 0)
(0.0492177 -0.00376867 0)
(0.0507248 -0.00376503 0)
(0.0522304 -0.00376097 0)
(0.0537344 -0.00375647 0)
(0.0552364 -0.0037515 0)
(0.0567365 -0.00374603 0)
(0.0582342 -0.00374003 0)
(0.0597295 -0.00373348 0)
(0.0612221 -0.00372635 0)
(0.0627117 -0.00371861 0)
(0.0641981 -0.00371023 0)
(0.0656811 -0.00370117 0)
(0.0671603 -0.00369141 0)
(0.0686355 -0.00368092 0)
(0.0701064 -0.00366967 0)
(0.0715727 -0.00365763 0)
(0.073034 -0.00364476 0)
(0.07449 -0.00363104 0)
(0.0759404 -0.00361644 0)
(0.0773848 -0.00360092 0)
(0.0788228 -0.00358445 0)
(0.0802541 -0.00356701 0)
(0.0816783 -0.00354857 0)
(0.0830948 -0.0035291 0)
(0.0845035 -0.00350857 0)
(0.0859037 -0.00348695 0)
(0.087295 -0.00346422 0)
(0.0886771 -0.00344035 0)
(0.0900494 -0.00341531 0)
(0.0914115 -0.00338908 0)
(0.0927628 -0.00336165 0)
(0.094103 -0.00333298 0)
(0.0954315 -0.00330305 0)
(0.0967477 -0.00327185 0)
(0.0980513 -0.00323937 0)
(0.0993416 -0.00320557 0)
(0.100618 -0.00317045 0)
(0.10188 -0.003134 0)
(0.103128 -0.00309621 0)
(0.10436 -0.00305706 0)
(0.105576 -0.00301654 0)
(0.106775 -0.00297466 0)
(0.107958 -0.0029314 0)
(0.109123 -0.00288678 0)
(0.11027 -0.00284078 0)
(0.111398 -0.00279341 0)
(0.112507 -0.00274468 0)
(0.113596 -0.00269459 0)
(0.114665 -0.00264316 0)
(0.115713 -0.00259039 0)
(0.11674 -0.0025363 0)
(0.117745 -0.00248091 0)
(0.118727 -0.00242424 0)
(0.119686 -0.0023663 0)
(0.120622 -0.00230713 0)
(0.121534 -0.00224674 0)
(0.122422 -0.00218517 0)
(0.123284 -0.00212245 0)
(0.124122 -0.00205861 0)
(0.124933 -0.00199369 0)
(0.125719 -0.00192772 0)
(0.126477 -0.00186074 0)
(0.127209 -0.00179279 0)
(0.127913 -0.00172393 0)
(0.12859 -0.00165418 0)
(0.129238 -0.00158361 0)
(0.129858 -0.00151225 0)
(0.130449 -0.00144017 0)
(0.131011 -0.0013674 0)
(0.131544 -0.001294 0)
(0.132047 -0.00122002 0)
(0.132521 -0.00114553 0)
(0.132965 -0.00107057 0)
(0.133378 -0.000995204 0)
(0.133762 -0.000919485 0)
(0.134114 -0.000843473 0)
(0.134437 -0.000767223 0)
(0.134728 -0.000690795 0)
(0.13499 -0.000614247 0)
(0.13522 -0.000537636 0)
(0.13542 -0.00046102 0)
(0.135589 -0.000384457 0)
(0.135727 -0.000308004 0)
(0.135835 -0.000231716 0)
(0.135912 -0.000155651 0)
(0.135959 -7.98621e-05 0)
(0.135975 -4.40379e-06 0)
(0.135962 7.0671e-05 0)
(0.135918 0.000145311 0)
(0.135845 0.000219465 0)
(0.135741 0.000293084 0)
(0.135609 0.00036612 0)
(0.135447 0.000438528 0)
(0.135257 0.000510263 0)
(0.135038 0.000581281 0)
(0.134791 0.000651542 0)
(0.134515 0.000721006 0)
(0.134212 0.000789635 0)
(0.133882 0.000857394 0)
(0.133525 0.000924249 0)
(0.133141 0.000990167 0)
(0.132731 0.00105512 0)
(0.132295 0.00111908 0)
(0.131834 0.00118201 0)
(0.131348 0.00124391 0)
(0.130837 0.00130473 0)
(0.130302 0.00136447 0)
(0.129743 0.0014231 0)
(0.129161 0.00148061 0)
(0.128557 0.00153699 0)
(0.12793 0.00159221 0)
(0.127281 0.00164628 0)
(0.126611 0.00169917 0)
(0.125919 0.00175089 0)
(0.125208 0.00180143 0)
(0.124476 0.00185078 0)
(0.123725 0.00189895 0)
(0.122955 0.00194592 0)
(0.122166 0.00199171 0)
(0.121359 0.00203631 0)
(0.120535 0.00207973 0)
(0.119693 0.00212197 0)
(0.118835 0.00216304 0)
(0.117961 0.00220295 0)
(0.117071 0.0022417 0)
(0.116165 0.00227931 0)
(0.115245 0.00231578 0)
(0.114311 0.00235113 0)
(0.113362 0.00238537 0)
(0.1124 0.00241851 0)
(0.111426 0.00245057 0)
(0.110438 0.00248156 0)
(0.109438 0.0025115 0)
(0.108427 0.0025404 0)
(0.107404 0.00256828 0)
(0.106371 0.00259517 0)
(0.105326 0.00262107 0)
(0.104272 0.002646 0)
(0.103208 0.00266999 0)
(0.102134 0.00269306 0)
(0.101052 0.00271521 0)
(0.0999606 0.00273648 0)
(0.0988611 0.00275688 0)
(0.0977536 0.00277643 0)
(0.0966384 0.00279515 0)
(0.095516 0.00281306 0)
(0.0943866 0.00283019 0)
(0.0932505 0.00284655 0)
(0.092108 0.00286217 0)
(0.0909594 0.00287705 0)
(0.0898051 0.00289123 0)
(0.0886452 0.00290473 0)
(0.0874801 0.00291755 0)
(0.08631 0.00292974 0)
(0.0851352 0.00294129 0)
(0.0839559 0.00295224 0)
(0.0827723 0.0029626 0)
(0.0815848 0.00297239 0)
(0.0803934 0.00298164 0)
(0.0791985 0.00299035 0)
(0.0780002 0.00299855 0)
(0.0767988 0.00300626 0)
(0.0755944 0.00301349 0)
(0.0743872 0.00302026 0)
(0.0731774 0.00302659 0)
(0.0719651 0.0030325 0)
(0.0707506 0.003038 0)
(0.069534 0.00304311 0)
(0.0683155 0.00304785 0)
(0.0670951 0.00305223 0)
(0.0658731 0.00305627 0)
(0.0646495 0.00305998 0)
(0.0634245 0.00306337 0)
(0.0621983 0.00306647 0)
(0.0609708 0.00306929 0)
(0.0597423 0.00307183 0)
(0.0585129 0.00307412 0)
(0.0572826 0.00307617 0)
(0.0560515 0.00307799 0)
(0.0548198 0.00307959 0)
(0.0535875 0.00308098 0)
(0.0523547 0.00308219 0)
(0.0511214 0.00308321 0)
(0.0498878 0.00308406 0)
(0.0486539 0.00308475 0)
(0.0474197 0.00308529 0)
(0.0461854 0.0030857 0)
(0.044951 0.00308598 0)
(0.0437164 0.00308614 0)
(0.0424819 0.00308619 0)
(0.0412473 0.00308614 0)
(0.0400128 0.003086 0)
(0.0387783 0.00308577 0)
(0.037544 0.00308548 0)
(0.0363098 0.00308512 0)
(0.0350758 0.00308469 0)
(0.033842 0.00308422 0)
(0.0326084 0.00308371 0)
(0.031375 0.00308315 0)
(0.0301418 0.00308257 0)
(0.0289089 0.00308196 0)
(0.0276762 0.00308133 0)
(0.0264438 0.00308069 0)
(0.0252116 0.00308005 0)
(0.0239797 0.0030794 0)
(0.0227481 0.00307875 0)
(0.0215168 0.00307811 0)
(0.0202856 0.00307748 0)
(0.0190548 0.00307687 0)
(0.0178242 0.00307628 0)
(0.0165938 0.00307571 0)
(0.0153637 0.00307516 0)
(0.0141337 0.00307465 0)
(0.012904 0.00307417 0)
(0.0116745 0.00307373 0)
(0.0104451 0.00307332 0)
(0.00921588 0.00307295 0)
(0.0079868 0.00307263 0)
(0.00675785 0.00307235 0)
(0.00552901 0.00307211 0)
(0.00430025 0.00307192 0)
(0.00307156 0.00307177 0)
(0.00184291 0.00307168 0)
(0.000614302 0.00307163 0)
(0.000757279 -0.0053012 0)
(0.00227185 -0.00530125 0)
(0.00378644 -0.00530136 0)
(0.00530107 -0.00530152 0)
(0.00681577 -0.00530173 0)
(0.00833053 -0.00530198 0)
(0.00984538 -0.00530227 0)
(0.0113603 -0.00530259 0)
(0.0128754 -0.00530293 0)
(0.0143905 -0.00530328 0)
(0.0159058 -0.00530364 0)
(0.0174212 -0.00530399 0)
(0.0189367 -0.00530432 0)
(0.0204523 -0.00530461 0)
(0.0219681 -0.00530485 0)
(0.0234839 -0.00530503 0)
(0.0249997 -0.00530512 0)
(0.0265156 -0.00530511 0)
(0.0280315 -0.00530497 0)
(0.0295474 -0.0053047 0)
(0.0310632 -0.00530426 0)
(0.0325788 -0.00530363 0)
(0.0340943 -0.00530279 0)
(0.0356096 -0.00530171 0)
(0.0371245 -0.00530037 0)
(0.0386391 -0.00529874 0)
(0.0401531 -0.00529679 0)
(0.0416666 -0.0052945 0)
(0.0431795 -0.00529182 0)
(0.0446915 -0.00528874 0)
(0.0462027 -0.00528521 0)
(0.0477128 -0.0052812 0)
(0.0492218 -0.00527668 0)
(0.0507294 -0.00527162 0)
(0.0522355 -0.00526598 0)
(0.05374 -0.00525971 0)
(0.0552427 -0.00525279 0)
(0.0567433 -0.00524517 0)
(0.0582417 -0.00523682 0)
(0.0597377 -0.00522769 0)
(0.0612309 -0.00521775 0)
(0.0627213 -0.00520695 0)
(0.0642085 -0.00519526 0)
(0.0656923 -0.00518262 0)
(0.0671724 -0.005169 0)
(0.0686485 -0.00515436 0)
(0.0701204 -0.00513865 0)
(0.0715876 -0.00512183 0)
(0.0730499 -0.00510386 0)
(0.074507 -0.00508469 0)
(0.0759585 -0.00506429 0)
(0.077404 -0.0050426 0)
(0.0788432 -0.0050196 0)
(0.0802756 -0.00499522 0)
(0.081701 -0.00496945 0)
(0.0831188 -0.00494223 0)
(0.0845287 -0.00491352 0)
(0.0859303 -0.00488329 0)
(0.087323 -0.0048515 0)
(0.0887064 -0.00481812 0)
(0.0900801 -0.0047831 0)
(0.0914437 -0.00474641 0)
(0.0927965 -0.00470803 0)
(0.0941382 -0.00466792 0)
(0.0954681 -0.00462606 0)
(0.0967859 -0.0045824 0)
(0.0980911 -0.00453694 0)
(0.0993829 -0.00448965 0)
(0.100661 -0.0044405 0)
(0.101925 -0.00438949 0)
(0.103174 -0.00433659 0)
(0.104408 -0.00428178 0)
(0.105625 -0.00422507 0)
(0.106827 -0.00416644 0)
(0.108011 -0.00410589 0)
(0.109177 -0.00404341 0)
(0.110326 -0.00397901 0)
(0.111456 -0.00391269 0)
(0.112566 -0.00384445 0)
(0.113657 -0.00377432 0)
(0.114728 -0.00370229 0)
(0.115777 -0.00362839 0)
(0.116806 -0.00355265 0)
(0.117812 -0.00347507 0)
(0.118796 -0.0033957 0)
(0.119757 -0.00331456 0)
(0.120694 -0.00323167 0)
(0.121607 -0.00314709 0)
(0.122496 -0.00306085 0)
(0.12336 -0.002973 0)
(0.124199 -0.00288357 0)
(0.125012 -0.00279262 0)
(0.125798 -0.00270021 0)
(0.126558 -0.00260638 0)
(0.127291 -0.0025112 0)
(0.127996 -0.00241473 0)
(0.128674 -0.00231702 0)
(0.129323 -0.00221815 0)
(0.129944 -0.00211818 0)
(0.130536 -0.00201718 0)
(0.131099 -0.00191523 0)
(0.131633 -0.0018124 0)
(0.132137 -0.00170876 0)
(0.132611 -0.00160439 0)
(0.133055 -0.00149937 0)
(0.133469 -0.00139378 0)
(0.133853 -0.00128769 0)
(0.134206 -0.00118119 0)
(0.134528 -0.00107436 0)
(0.13482 -0.000967282 0)
(0.135082 -0.000860033 0)
(0.135312 -0.000752697 0)
(0.135512 -0.000645355 0)
(0.135681 -0.000538087 0)
(0.135819 -0.000430973 0)
(0.135926 -0.000324093 0)
(0.136003 -0.000217524 0)
(0.13605 -0.000111344 0)
(0.136066 -5.62878e-06 0)
(0.136052 9.95484e-05 0)
(0.136007 0.000204114 0)
(0.135933 0.000307999 0)
(0.13583 0.000411132 0)
(0.135696 0.000513448 0)
(0.135534 0.000614882 0)
(0.135343 0.00071537 0)
(0.135123 0.000814854 0)
(0.134875 0.000913274 0)
(0.134598 0.00101058 0)
(0.134294 0.00110671 0)
(0.133963 0.00120162 0)
(0.133604 0.00129526 0)
(0.133219 0.00138759 0)
(0.132808 0.00147856 0)
(0.132371 0.00156814 0)
(0.131909 0.00165628 0)
(0.131421 0.00174296 0)
(0.130909 0.00182815 0)
(0.130373 0.0019118 0)
(0.129813 0.00199391 0)
(0.12923 0.00207445 0)
(0.128624 0.00215339 0)
(0.127995 0.00223072 0)
(0.127345 0.00230642 0)
(0.126673 0.00238049 0)
(0.125981 0.00245291 0)
(0.125268 0.00252366 0)
(0.124535 0.00259276 0)
(0.123782 0.00266019 0)
(0.12301 0.00272596 0)
(0.12222 0.00279005 0)
(0.121412 0.00285249 0)
(0.120586 0.00291327 0)
(0.119743 0.0029724 0)
(0.118884 0.00302989 0)
(0.118008 0.00308575 0)
(0.117117 0.00313999 0)
(0.11621 0.00319262 0)
(0.115288 0.00324366 0)
(0.114353 0.00329313 0)
(0.113403 0.00334105 0)
(0.11244 0.00338743 0)
(0.111463 0.00343229 0)
(0.110475 0.00347565 0)
(0.109474 0.00351754 0)
(0.108461 0.00355798 0)
(0.107437 0.003597 0)
(0.106402 0.00363461 0)
(0.105357 0.00367085 0)
(0.104301 0.00370573 0)
(0.103236 0.00373929 0)
(0.102161 0.00377155 0)
(0.101078 0.00380254 0)
(0.0999856 0.00383228 0)
(0.098885 0.00386082 0)
(0.0977765 0.00388816 0)
(0.0966604 0.00391434 0)
(0.095537 0.00393939 0)
(0.0944067 0.00396334 0)
(0.0932696 0.00398622 0)
(0.0921263 0.00400805 0)
(0.0909769 0.00402886 0)
(0.0898217 0.00404869 0)
(0.088661 0.00406755 0)
(0.0874951 0.00408548 0)
(0.0863242 0.00410251 0)
(0.0851487 0.00411866 0)
(0.0839687 0.00413396 0)
(0.0827844 0.00414844 0)
(0.0815962 0.00416212 0)
(0.0804042 0.00417503 0)
(0.0792086 0.00418721 0)
(0.0780098 0.00419866 0)
(0.0768077 0.00420942 0)
(0.0756028 0.00421952 0)
(0.074395 0.00422898 0)
(0.0731847 0.00423782 0)
(0.071972 0.00424607 0)
(0.070757 0.00425375 0)
(0.0695399 0.00426088 0)
(0.0683209 0.00426749 0)
(0.0671001 0.0042736 0)
(0.0658777 0.00427923 0)
(0.0646538 0.00428441 0)
(0.0634284 0.00428914 0)
(0.0622018 0.00429346 0)
(0.060974 0.00429738 0)
(0.0597452 0.00430093 0)
(0.0585155 0.00430411 0)
(0.0572849 0.00430696 0)
(0.0560536 0.00430949 0)
(0.0548216 0.00431171 0)
(0.0535891 0.00431365 0)
(0.052356 0.00431531 0)
(0.0511225 0.00431673 0)
(0.0498887 0.0043179 0)
(0.0486546 0.00431886 0)
(0.0474203 0.0043196 0)
(0.0461858 0.00432016 0)
(0.0449512 0.00432053 0)
(0.0437165 0.00432074 0)
(0.0424819 0.0043208 0)
(0.0412472 0.00432072 0)
(0.0400126 0.00432051 0)
(0.038778 0.00432019 0)
(0.0375436 0.00431976 0)
(0.0363094 0.00431924 0)
(0.0350753 0.00431864 0)
(0.0338414 0.00431797 0)
(0.0326077 0.00431724 0)
(0.0313743 0.00431646 0)
(0.0301411 0.00431563 0)
(0.0289081 0.00431477 0)
(0.0276754 0.00431388 0)
(0.026443 0.00431298 0)
(0.0252108 0.00431207 0)
(0.023979 0.00431115 0)
(0.0227473 0.00431024 0)
(0.021516 0.00430934 0)
(0.0202849 0.00430845 0)
(0.0190541 0.00430759 0)
(0.0178235 0.00430675 0)
(0.0165931 0.00430595 0)
(0.015363 0.00430519 0)
(0.0141331 0.00430447 0)
(0.0129034 0.00430379 0)
(0.0116739 0.00430317 0)
(0.0104446 0.00430259 0)
(0.00921546 0.00430208 0)
(0.00798644 0.00430162 0)
(0.00675754 0.00430122 0)
(0.00552875 0.00430089 0)
(0.00430005 0.00430062 0)
(0.00307141 0.00430042 0)
(0.00184283 0.00430028 0)
(0.000614273 0.00430021 0)
(0.000757247 -0.00681574 0)
(0.00227175 -0.00681581 0)
(0.00378628 -0.00681595 0)
(0.00530086 -0.00681616 0)
(0.0068155 -0.00681644 0)
(0.00833022 -0.00681677 0)
(0.00984503 -0.00681715 0)
(0.0113599 -0.00681758 0)
(0.012875 -0.00681803 0)
(0.0143901 -0.0068185 0)
(0.0159054 -0.00681898 0)
(0.0174208 -0.00681945 0)
(0.0189364 -0.0068199 0)
(0.020452 -0.0068203 0)
(0.0219678 -0.00682064 0)
(0.0234837 -0.00682089 0)
(0.0249996 -0.00682104 0)
(0.0265157 -0.00682106 0)
(0.0280317 -0.00682092 0)
(0.0295477 -0.00682061 0)
(0.0310637 -0.00682008 0)
(0.0325796 -0.00681931 0)
(0.0340954 -0.00681828 0)
(0.0356109 -0.00681694 0)
(0.0371262 -0.00681526 0)
(0.0386411 -0.00681322 0)
(0.0401555 -0.00681076 0)
(0.0416695 -0.00680786 0)
(0.0431827 -0.00680448 0)
(0.0446953 -0.00680056 0)
(0.046207 -0.00679608 0)
(0.0477177 -0.00679099 0)
(0.0492272 -0.00678525 0)
(0.0507355 -0.0067788 0)
(0.0522423 -0.0067716 0)
(0.0537475 -0.00676361 0)
(0.055251 -0.00675478 0)
(0.0567524 -0.00674506 0)
(0.0582517 -0.00673439 0)
(0.0597485 -0.00672272 0)
(0.0612428 -0.00671001 0)
(0.0627341 -0.0066962 0)
(0.0642224 -0.00668123 0)
(0.0657073 -0.00666506 0)
(0.0671885 -0.00664762 0)
(0.0686658 -0.00662887 0)
(0.0701389 -0.00660874 0)
(0.0716074 -0.00658719 0)
(0.0730711 -0.00656416 0)
(0.0745296 -0.00653959 0)
(0.0759825 -0.00651342 0)
(0.0774295 -0.00648561 0)
(0.0788702 -0.0064561 0)
(0.0803043 -0.00642484 0)
(0.0817312 -0.00639177 0)
(0.0831508 -0.00635684 0)
(0.0845624 -0.00631999 0)
(0.0859657 -0.00628119 0)
(0.0873602 -0.00624038 0)
(0.0887455 -0.00619752 0)
(0.0901211 -0.00615255 0)
(0.0914865 -0.00610544 0)
(0.0928413 -0.00605615 0)
(0.094185 -0.00600463 0)
(0.095517 -0.00595084 0)
(0.0968369 -0.00589476 0)
(0.098144 -0.00583635 0)
(0.099438 -0.00577558 0)
(0.100718 -0.00571243 0)
(0.101984 -0.00564686 0)
(0.103235 -0.00557887 0)
(0.104471 -0.00550842 0)
(0.105691 -0.00543552 0)
(0.106895 -0.00536015 0)
(0.108081 -0.0052823 0)
(0.10925 -0.00520197 0)
(0.110401 -0.00511916 0)
(0.111533 -0.00503387 0)
(0.112646 -0.00494612 0)
(0.113739 -0.00485593 0)
(0.114811 -0.00476329 0)
(0.115863 -0.00466825 0)
(0.116893 -0.00457082 0)
(0.117902 -0.00447104 0)
(0.118888 -0.00436893 0)
(0.11985 -0.00426455 0)
(0.12079 -0.00415792 0)
(0.121705 -0.00404911 0)
(0.122596 -0.00393815 0)
(0.123462 -0.00382511 0)
(0.124302 -0.00371005 0)
(0.125117 -0.00359303 0)
(0.125905 -0.00347412 0)
(0.126666 -0.00335338 0)
(0.127401 -0.0032309 0)
(0.128107 -0.00310676 0)
(0.128786 -0.00298102 0)
(0.129437 -0.00285379 0)
(0.130059 -0.00272513 0)
(0.130652 -0.00259516 0)
(0.131216 -0.00246395 0)
(0.131751 -0.00233161 0)
(0.132256 -0.00219823 0)
(0.132731 -0.00206391 0)
(0.133175 -0.00192874 0)
(0.13359 -0.00179284 0)
(0.133974 -0.00165631 0)
(0.134328 -0.00151924 0)
(0.134651 -0.00138175 0)
(0.134943 -0.00124394 0)
(0.135204 -0.00110591 0)
(0.135435 -0.000967764 0)
(0.135634 -0.000829615 0)
(0.135803 -0.000691562 0)
(0.135941 -0.000553709 0)
(0.136048 -0.000416158 0)
(0.136125 -0.000279009 0)
(0.136171 -0.000142363 0)
(0.136186 -6.31539e-06 0)
(0.136172 0.000129037 0)
(0.136127 0.0002636 0)
(0.136052 0.000397284 0)
(0.135947 0.000529998 0)
(0.135813 0.000661658 0)
(0.135649 0.00079218 0)
(0.135457 0.000921483 0)
(0.135236 0.00104949 0)
(0.134986 0.00117612 0)
(0.134709 0.00130132 0)