/*--------------------------------*- C++ -*----------------------------------*\
| =========                 |                                                 |
| \\      /  F ield         | OpenFOAM: The Open Source CFD Toolbox           |
|  \\    /   O peration     | Version:  v2012                                 |
|   \\  /    A nd           | Website:  www.openfoam.com                      |
|    \\/     M anipulation  |                                                 |
\*---------------------------------------------------------------------------*/
FoamFile
{
    version     2.0;
    format      ascii;
    class       volScalarField;
    location    "9";
    object      W;
}
// * * * * * * * * * * * * * * * * * * * * * * * * * * * * * * * * * * * * * //

dimensions      [0 0 -1 0 0 0 0];


internalField   nonuniform List<scalar> 
65536
(
8.73064e-18
8.94443e-18
9.50907e-18
1.04386e-17
1.17587e-17
1.35073e-17
1.57351e-17
1.85072e-17
2.19045e-17
2.60256e-17
3.09893e-17
3.69375e-17
4.40384e-17
5.24905e-17
6.25271e-17
7.44215e-17
8.84929e-17
1.05113e-16
1.24716e-16
1.47803e-16
1.74957e-16
2.06851e-16
2.44263e-16
2.8809e-16
3.39364e-16
3.99273e-16
4.69178e-16
5.5064e-16
6.45445e-16
7.5563e-16
8.83521e-16
1.03177e-15
1.20337e-15
1.40176e-15
1.6308e-15
1.89486e-15
2.19888e-15
2.54845e-15
2.94984e-15
3.41008e-15
3.93709e-15
4.53972e-15
5.22787e-15
6.01256e-15
6.90611e-15
7.92218e-15
9.07595e-15
1.03842e-14
1.18656e-14
1.35406e-14
1.54317e-14
1.75639e-14
1.99644e-14
2.26631e-14
2.56925e-14
2.90883e-14
3.28891e-14
3.71371e-14
4.18777e-14
4.71604e-14
5.30383e-14
5.95686e-14
6.68129e-14
7.4837e-14
8.37114e-14
9.35112e-14
1.04316e-13
1.16211e-13
1.29286e-13
1.43634e-13
1.59356e-13
1.76556e-13
1.95342e-13
2.15828e-13
2.38131e-13
2.62374e-13
2.88682e-13
3.17183e-13
3.48008e-13
3.81292e-13
4.17168e-13
4.55774e-13
4.97243e-13
5.4171e-13
5.89308e-13
6.40165e-13
6.94406e-13
7.52148e-13
8.13502e-13
8.7857e-13
9.47444e-13
1.0202e-12
1.09691e-12
1.17762e-12
1.26235e-12
1.35113e-12
1.44394e-12
1.54074e-12
1.64148e-12
1.74607e-12
1.85439e-12
1.96629e-12
2.0816e-12
2.20009e-12
2.32152e-12
2.44559e-12
2.57198e-12
2.70032e-12
2.83022e-12
2.96121e-12
3.09284e-12
3.22457e-12
3.35585e-12
3.48609e-12
3.61468e-12
3.74096e-12
3.86426e-12
3.98388e-12
4.09911e-12
4.20923e-12
4.3135e-12
4.41119e-12
4.50159e-12
4.58399e-12
4.6577e-12
4.72206e-12
4.77646e-12
4.82033e-12
4.85314e-12
4.87446e-12
4.88389e-12
4.88113e-12
4.86595e-12
4.83823e-12
4.79794e-12
4.74513e-12
4.67999e-12
4.60278e-12
4.51388e-12
4.41379e-12
4.30309e-12
4.18246e-12
4.05269e-12
3.91465e-12
3.76927e-12
3.61756e-12
3.46061e-12
3.29951e-12
3.13542e-12
2.9695e-12
2.80292e-12
2.63684e-12
2.47241e-12
2.31073e-12
2.15287e-12
1.99982e-12
1.85253e-12
1.71186e-12
1.57857e-12
1.45336e-12
1.33682e-12
1.22944e-12
1.13162e-12
1.04365e-12
9.6572e-13
8.97938e-13
8.40301e-13
7.92715e-13
7.54998e-13
7.26881e-13
7.08007e-13
6.97944e-13
6.96179e-13
7.02127e-13
7.15135e-13
7.34482e-13
7.5939e-13
7.89025e-13
8.22507e-13
8.58914e-13
8.97298e-13
9.36688e-13
9.7611e-13
1.01459e-12
1.0512e-12
1.08501e-12
1.11517e-12
1.14091e-12
1.16154e-12
1.17645e-12
1.18517e-12
1.18737e-12
1.18282e-12
1.17144e-12
1.15331e-12
1.12864e-12
1.09775e-12
1.06109e-12
1.01925e-12
9.72853e-13
9.22633e-13
8.69357e-13
8.13822e-13
7.56832e-13
6.99172e-13
6.41597e-13
5.84806e-13
5.29436e-13
4.76043e-13
4.25101e-13
3.76992e-13
3.32009e-13
2.90353e-13
2.52142e-13
2.17416e-13
1.86144e-13
1.58235e-13
1.33548e-13
1.11903e-13
9.30888e-14
7.68766e-14
6.30258e-14
5.1293e-14
4.14382e-14
3.32304e-14
2.64514e-14
2.08993e-14
1.63898e-14
1.27574e-14
9.8557e-15
7.55686e-15
5.7506e-15
4.34304e-15
3.25517e-15
2.42127e-15
1.78729e-15
1.30924e-15
9.51723e-16
6.86525e-16
4.91418e-16
3.49048e-16
2.4601e-16
1.72046e-16
1.19387e-16
8.2201e-17
5.61574e-17
3.80671e-17
2.5605e-17
1.70924e-17
1.13286e-17
7.46363e-18
4.90271e-18
3.23534e-18
2.18404e-18
1.56798e-18
1.27834e-18
1.27478e-17
1.30591e-17
1.38823e-17
1.52377e-17
1.71627e-17
1.97124e-17
2.29607e-17
2.70022e-17
3.19547e-17
3.79617e-17
4.51959e-17
5.38637e-17
6.42097e-17
7.65222e-17
9.11404e-17
1.08461e-16
1.28948e-16
1.53141e-16
1.81669e-16
2.15259e-16
2.54756e-16
3.01136e-16
3.55526e-16
4.19223e-16
4.9372e-16
5.80734e-16
6.82232e-16
8.00467e-16
9.38013e-16
1.09781e-15
1.28321e-15
1.49801e-15
1.74655e-15
2.03373e-15
2.3651e-15
2.74693e-15
3.1863e-15
3.69118e-15
4.27052e-15
4.93438e-15
5.694e-15
6.56197e-15
7.55235e-15
8.68077e-15
9.96463e-15
1.14232e-14
1.3078e-14
1.49525e-14
1.7073e-14
1.9468e-14
2.21692e-14
2.52112e-14
2.8632e-14
3.24728e-14
3.6779e-14
4.15994e-14
4.69874e-14
5.30007e-14
5.97014e-14
6.71568e-14
7.54389e-14
8.46252e-14
9.47984e-14
1.06047e-13
1.18465e-13
1.32152e-13
1.47214e-13
1.63762e-13
1.81913e-13
2.01791e-13
2.23524e-13
2.47246e-13
2.73096e-13
3.01219e-13
3.31762e-13
3.64878e-13
4.00722e-13
4.39453e-13
4.81229e-13
5.26212e-13
5.74562e-13
6.26439e-13
6.81999e-13
7.41396e-13
8.04778e-13
8.72285e-13
9.4405e-13
1.0202e-12
1.10083e-12
1.18606e-12
1.27595e-12
1.37057e-12
1.46997e-12
1.57416e-12
1.68313e-12
1.79687e-12
1.91529e-12
2.03832e-12
2.16582e-12
2.29765e-12
2.43359e-12
2.57341e-12
2.71684e-12
2.86355e-12
3.01319e-12
3.16535e-12
3.31959e-12
3.47541e-12
3.63227e-12
3.7896e-12
3.94678e-12
4.10315e-12
4.25801e-12
4.41063e-12
4.56026e-12
4.70611e-12
4.84736e-12
4.9832e-12
5.11278e-12
5.23528e-12
5.34984e-12
5.45565e-12
5.55189e-12
5.6378e-12
5.71262e-12
5.77565e-12
5.82626e-12
5.86385e-12
5.88792e-12
5.89804e-12
5.89385e-12
5.87512e-12
5.8417e-12
5.79355e-12
5.73075e-12
5.65349e-12
5.56208e-12
5.45695e-12
5.33865e-12
5.20784e-12
5.0653e-12
4.9119e-12
4.74864e-12
4.57657e-12
4.39684e-12
4.21067e-12
4.01933e-12
3.82412e-12
3.62637e-12
3.42743e-12
3.22863e-12
3.03129e-12
2.8367e-12
2.64608e-12
2.46061e-12
2.28139e-12
2.10943e-12
1.94565e-12
1.79087e-12
1.64581e-12
1.51108e-12
1.38715e-12
1.27443e-12
1.17317e-12
1.08353e-12
1.00555e-12
9.39187e-13
8.84273e-13
8.4055e-13
8.07669e-13
7.8519e-13
7.72586e-13
7.69253e-13
7.74508e-13
7.87597e-13
8.077e-13
8.33936e-13
8.65368e-13
9.01014e-13
9.39851e-13
9.80831e-13
1.02289e-12
1.06495e-12
1.10597e-12
1.14491e-12
1.18079e-12
1.21269e-12
1.23976e-12
1.26127e-12
1.27658e-12
1.28519e-12
1.28674e-12
1.281e-12
1.26792e-12
1.24756e-12
1.22017e-12
1.18611e-12
1.1459e-12
1.10013e-12
1.04952e-12
9.94853e-13
9.36959e-13
8.767e-13
8.1494e-13
7.52525e-13
6.90264e-13
6.28908e-13
5.69136e-13
5.11543e-13
4.56632e-13
4.04809e-13
3.56382e-13
3.11563e-13
2.70472e-13
2.33148e-13
1.99552e-13
1.69583e-13
1.43085e-13
1.19861e-13
9.96822e-14
8.23006e-14
6.74559e-14
5.48853e-14
4.43301e-14
3.55416e-14
2.82852e-14
2.23436e-14
1.75189e-14
1.36337e-14
1.05308e-14
8.07308e-15
6.14241e-15
4.6382e-15
3.47586e-15
2.58505e-15
1.90792e-15
1.39742e-15
1.01569e-15
7.32575e-16
5.24319e-16
3.72376e-16
2.62423e-16
1.83506e-16
1.27327e-16
8.766e-17
5.98817e-17
4.05883e-17
2.72987e-17
1.82217e-17
1.20762e-17
7.95567e-18
5.22559e-18
3.44819e-18
2.32758e-18
1.67095e-18
1.36227e-18
2.22786e-17
2.28211e-17
2.42573e-17
2.66224e-17
2.99814e-17
3.44301e-17
4.00974e-17
4.71481e-17
5.57867e-17
6.62632e-17
7.88783e-17
9.39906e-17
1.12025e-16
1.33484e-16
1.58956e-16
1.89131e-16
2.24812e-16
2.66939e-16
3.16599e-16
3.75057e-16
4.43775e-16
5.24443e-16
6.1901e-16
7.29723e-16
8.59161e-16
1.01029e-15
1.1865e-15
1.39169e-15
1.63028e-15
1.90733e-15
2.22861e-15
2.60066e-15
3.0309e-15
3.52774e-15
4.10068e-15
4.76046e-15
5.51914e-15
6.39032e-15
7.38925e-15
8.533e-15
9.84069e-15
1.13336e-14
1.30356e-14
1.49729e-14
1.7175e-14
1.96742e-14
2.25065e-14
2.57113e-14
2.93323e-14
3.34172e-14
3.80185e-14
4.31935e-14
4.90047e-14
5.55203e-14
6.28142e-14
7.09665e-14
8.00641e-14
9.02003e-14
1.01476e-13
1.13998e-13
1.27884e-13
1.43255e-13
1.60244e-13
1.78989e-13
1.99639e-13
2.22348e-13
2.4728e-13
2.74608e-13
3.04511e-13
3.37175e-13
3.72794e-13
4.11568e-13
4.53704e-13
4.99413e-13
5.4891e-13
6.02415e-13
6.60146e-13
7.22327e-13
7.89178e-13
8.60916e-13
9.37758e-13
1.01991e-12
1.10757e-12
1.20094e-12
1.30019e-12
1.40547e-12
1.51695e-12
1.63474e-12
1.75896e-12
1.88966e-12
2.02691e-12
2.17073e-12
2.32109e-12
2.47794e-12
2.6412e-12
2.81072e-12
2.98633e-12
3.1678e-12
3.35486e-12
3.54716e-12
3.74434e-12
3.94596e-12
4.15152e-12
4.36047e-12
4.57221e-12
4.78608e-12
5.00137e-12
5.21728e-12
5.43302e-12
5.64769e-12
5.86038e-12
6.07013e-12
6.27594e-12
6.47676e-12
6.67154e-12
6.85919e-12
7.03863e-12
7.20875e-12
7.36845e-12
7.51666e-12
7.65232e-12
7.7744e-12
7.88192e-12
7.97395e-12
8.04963e-12
8.10818e-12
8.14891e-12
8.17121e-12
8.17459e-12
8.15868e-12
8.12324e-12
8.06816e-12
7.99345e-12
7.89929e-12
7.78601e-12
7.65407e-12
7.50409e-12
7.33685e-12
7.15326e-12
6.95437e-12
6.74136e-12
6.51554e-12
6.27832e-12
6.03121e-12
5.77579e-12
5.51372e-12
5.2467e-12
4.97646e-12
4.70472e-12
4.43322e-12
4.16365e-12
3.89767e-12
3.63685e-12
3.38271e-12
3.13666e-12
2.89998e-12
2.67388e-12
2.4594e-12
2.25745e-12
2.06882e-12
1.89415e-12
1.73391e-12
1.58847e-12
1.45803e-12
1.34266e-12
1.2423e-12
1.15677e-12
1.08576e-12
1.02885e-12
9.8552e-13
9.55136e-13
9.36977e-13
9.30232e-13
9.34007e-13
9.47329e-13
9.69158e-13
9.98388e-13
1.03386e-12
1.07436e-12
1.11865e-12
1.16545e-12
1.2135e-12
1.26151e-12
1.30823e-12
1.35245e-12
1.39302e-12
1.42886e-12
1.459e-12
1.48259e-12
1.4989e-12
1.50736e-12
1.50758e-12
1.49931e-12
1.48251e-12
1.4573e-12
1.42396e-12
1.38294e-12
1.33486e-12
1.28044e-12
1.2205e-12
1.15598e-12
1.08785e-12
1.0171e-12
9.44734e-13
8.71742e-13
7.99051e-13
7.27524e-13
6.5794e-13
5.90977e-13
5.27208e-13
4.6709e-13
4.10969e-13
3.59079e-13
3.11549e-13
2.68412e-13
2.29616e-13
1.95033e-13
1.64478e-13
1.37717e-13
1.1448e-13
9.44767e-14
7.74029e-14
6.29529e-14
5.08261e-14
4.07342e-14
3.24057e-14
2.55894e-14
2.00571e-14
1.56039e-14
1.20488e-14
9.23398e-15
7.02362e-15
5.30213e-15
3.97235e-15
2.95353e-15
2.17934e-15
1.59584e-15
1.15965e-15
8.36227e-16
5.98381e-16
4.24892e-16
2.99377e-16
2.0931e-16
1.45206e-16
9.99531e-17
6.82688e-17
4.62664e-17
3.11134e-17
2.07652e-17
1.37602e-17
9.06401e-18
5.95291e-18
3.92769e-18
2.65096e-18
1.90291e-18
1.55128e-18
4.11034e-17
4.2102e-17
4.47477e-17
4.9105e-17
5.52936e-17
6.34896e-17
7.39298e-17
8.69171e-17
1.02828e-16
1.22121e-16
1.4535e-16
1.73173e-16
2.06371e-16
2.45865e-16
2.92736e-16
3.48249e-16
4.13881e-16
4.91351e-16
5.82654e-16
6.90106e-16
8.16384e-16
9.64582e-16
1.13826e-15
1.34154e-15
1.57912e-15
1.85641e-15
2.17962e-15
2.55582e-15
2.9931e-15
3.50067e-15
4.08899e-15
4.76997e-15
5.55706e-15
6.46554e-15
7.51259e-15
8.71764e-15
1.01025e-14
1.16917e-14
1.35128e-14
1.55964e-14
1.79769e-14
2.06925e-14
2.37859e-14
2.73041e-14
3.12995e-14
3.583e-14
4.09592e-14
4.67572e-14
5.33013e-14
6.06757e-14
6.89727e-14
7.82931e-14
8.87464e-14
1.00451e-13
1.13537e-13
1.28142e-13
1.44417e-13
1.62522e-13
1.8263e-13
2.04926e-13
2.29606e-13
2.56879e-13
2.86966e-13
3.20102e-13
3.56532e-13
3.96514e-13
4.40318e-13
4.88226e-13
5.4053e-13
5.97531e-13
6.5954e-13
7.26875e-13
7.99861e-13
8.78826e-13
9.64104e-13
1.05603e-12
1.15493e-12
1.26113e-12
1.37496e-12
1.49673e-12
1.62673e-12
1.76526e-12
1.91257e-12
2.06891e-12
2.2345e-12
2.40951e-12
2.59409e-12
2.78837e-12
2.9924e-12
3.20621e-12
3.42976e-12
3.66297e-12
3.9057e-12
4.15773e-12
4.4188e-12
4.68856e-12
4.96658e-12
5.25239e-12
5.5454e-12
5.84497e-12
6.15038e-12
6.4608e-12
6.77534e-12
7.09305e-12
7.41286e-12
7.73365e-12
8.05422e-12
8.3733e-12
8.68956e-12
9.0016e-12
9.30799e-12
9.60724e-12
9.89782e-12
1.01782e-11
1.04468e-11
1.0702e-11
1.09423e-11
1.11661e-11
1.1372e-11
1.15585e-11
1.17241e-11
1.18675e-11
1.19876e-11
1.20831e-11
1.2153e-11
1.21966e-11
1.22129e-11
1.22016e-11
1.21621e-11
1.20943e-11
1.1998e-11
1.18735e-11
1.17212e-11
1.15416e-11
1.13355e-11
1.11038e-11
1.08478e-11
1.05689e-11
1.02685e-11
9.94843e-12
9.6106e-12
9.25702e-12
8.88985e-12
8.51134e-12
8.12383e-12
7.72971e-12
7.3314e-12
6.93133e-12
6.53189e-12
6.13546e-12
5.74431e-12
5.36063e-12
4.98651e-12
4.62387e-12
4.27451e-12
3.94005e-12
3.62193e-12
3.32139e-12
3.0395e-12
2.77712e-12
2.5349e-12
2.31332e-12
2.11266e-12
1.93299e-12
1.77423e-12
1.63614e-12
1.5183e-12
1.42014e-12
1.34096e-12
1.27994e-12
1.23612e-12
1.20845e-12
1.19577e-12
1.19683e-12
1.21028e-12
1.23472e-12
1.26866e-12
1.31057e-12
1.35887e-12
1.41194e-12
1.46816e-12
1.5259e-12
1.58353e-12
1.63948e-12
1.69225e-12
1.74039e-12
1.7826e-12
1.81766e-12
1.84456e-12
1.86241e-12
1.87056e-12
1.86852e-12
1.85606e-12
1.83312e-12
1.7999e-12
1.75678e-12
1.70435e-12
1.64338e-12
1.57477e-12
1.49957e-12
1.41893e-12
1.33404e-12
1.24614e-12
1.15645e-12
1.06618e-12
9.76456e-13
8.88322e-13
8.02721e-13
7.20467e-13
6.42244e-13
5.68595e-13
4.99925e-13
4.36504e-13
3.78474e-13
3.25861e-13
2.78586e-13
2.36485e-13
1.9932e-13
1.66795e-13
1.38576e-13
1.14301e-13
9.3597e-14
7.6086e-14
6.14e-14
4.91859e-14
3.91119e-14
3.08718e-14
2.41874e-14
1.88097e-14
1.45186e-14
1.11227e-14
8.45725e-15
6.3822e-15
4.77996e-15
3.5529e-15
2.62081e-15
1.91856e-15
1.39377e-15
1.00479e-15
7.18818e-16
5.10287e-16
3.59463e-16
2.51264e-16
1.74275e-16
1.19939e-16
8.19038e-17
5.5497e-17
3.73145e-17
2.48999e-17
1.64975e-17
1.08655e-17
7.13507e-18
4.70702e-18
3.17653e-18
2.27988e-18
1.85844e-18
7.64991e-17
7.8354e-17
8.32712e-17
9.13705e-17
1.02874e-16
1.18108e-16
1.37512e-16
1.61649e-16
1.91216e-16
2.27065e-16
2.70221e-16
3.21906e-16
3.83568e-16
4.56912e-16
5.43943e-16
6.47004e-16
7.68828e-16
9.12597e-16
1.08201e-15
1.28133e-15
1.51553e-15
1.79032e-15
2.11228e-15
2.48899e-15
2.92915e-15
3.44274e-15
4.04118e-15
4.73751e-15
5.54661e-15
6.48541e-15
7.57315e-15
8.83168e-15
1.02857e-14
1.19632e-14
1.38956e-14
1.61185e-14
1.86717e-14
2.16e-14
2.49534e-14
2.8788e-14
3.31661e-14
3.81572e-14
4.38383e-14
5.02949e-14
5.76215e-14
6.59221e-14
7.53117e-14
8.59162e-14
9.78736e-14
1.11335e-13
1.26465e-13
1.43442e-13
1.62462e-13
1.83735e-13
2.07487e-13
2.33964e-13
2.63428e-13
2.96161e-13
3.32464e-13
3.72657e-13
4.17078e-13
4.66088e-13
5.20066e-13
5.7941e-13
6.44537e-13
7.15882e-13
7.93899e-13
8.79056e-13
9.71835e-13
1.07273e-12
1.18225e-12
1.30091e-12
1.42923e-12
1.56772e-12
1.71692e-12
1.87732e-12
2.04944e-12
2.23377e-12
2.43078e-12
2.64092e-12
2.86461e-12
3.10222e-12
3.35411e-12
3.62056e-12
3.90181e-12
4.19806e-12
4.5094e-12
4.83589e-12
5.17748e-12
5.53405e-12
5.90539e-12
6.29118e-12
6.69101e-12
7.10437e-12
7.53062e-12
7.96901e-12
8.41868e-12
8.87865e-12
9.3478e-12
9.82492e-12
1.03086e-11
1.07975e-11
1.12899e-11
1.17842e-11
1.22785e-11
1.2771e-11
1.32596e-11
1.37422e-11
1.42167e-11
1.46808e-11
1.51324e-11
1.55689e-11
1.59882e-11
1.63878e-11
1.67654e-11
1.71187e-11
1.74455e-11
1.77435e-11
1.80107e-11
1.8245e-11
1.84446e-11
1.86078e-11
1.8733e-11
1.88189e-11
1.88642e-11
1.88682e-11
1.883e-11
1.87493e-11
1.86259e-11
1.84599e-11
1.82518e-11
1.80022e-11
1.77121e-11
1.73829e-11
1.70161e-11
1.66135e-11
1.61774e-11
1.571e-11
1.52141e-11
1.46925e-11
1.41481e-11
1.35843e-11
1.30043e-11
1.24116e-11
1.18097e-11
1.1202e-11
1.05923e-11
9.98385e-12
9.38017e-12
8.78453e-12
8.20011e-12
7.62988e-12
7.07664e-12
6.54294e-12
6.0311e-12
5.54319e-12
5.08097e-12
4.64597e-12
4.23938e-12
3.86216e-12
3.51496e-12
3.19815e-12
2.91185e-12
2.65594e-12
2.43003e-12
2.23356e-12
2.0657e-12
1.92549e-12
1.81177e-12
1.72322e-12
1.65838e-12
1.61567e-12
1.59337e-12
1.5897e-12
1.60273e-12
1.63049e-12
1.67094e-12
1.72196e-12
1.78141e-12
1.84712e-12
1.91691e-12
1.98864e-12
2.06018e-12
2.12947e-12
2.19456e-12
2.2536e-12
2.30491e-12
2.34696e-12
2.37847e-12
2.39834e-12
2.40576e-12
2.40017e-12
2.38128e-12
2.3491e-12
2.30389e-12
2.24619e-12
2.17679e-12
2.09668e-12
2.00707e-12
1.90931e-12
1.80486e-12
1.69526e-12
1.58208e-12
1.46689e-12
1.35119e-12
1.23642e-12
1.12388e-12
1.01475e-12
9.1005e-13
8.10619e-13
7.17125e-13
6.30059e-13
5.49741e-13
4.7633e-13
4.09841e-13
3.50157e-13
2.97054e-13
2.50217e-13
2.09264e-13
1.73761e-13
1.43245e-13
1.17235e-13
9.52525e-14
7.68287e-14
6.15158e-14
4.88937e-14
3.85756e-14
3.02101e-14
2.34835e-14
1.81189e-14
1.38755e-14
1.05465e-14
7.95596e-15
5.95659e-15
4.42601e-15
3.26383e-15
2.38855e-15
1.7347e-15
1.25022e-15
8.94163e-16
6.34604e-16
4.46927e-16
3.12329e-16
2.16581e-16
1.49023e-16
1.01745e-16
6.89278e-17
4.63366e-17
3.0915e-17
2.04795e-17
1.3486e-17
8.85454e-18
5.84049e-18
3.94088e-18
2.8281e-18
2.3051e-18
1.41747e-16
1.45178e-16
1.54277e-16
1.69267e-16
1.90557e-16
2.18752e-16
2.54662e-16
2.99327e-16
3.54037e-16
4.20364e-16
5.00202e-16
5.95808e-16
7.09854e-16
8.45491e-16
1.00642e-15
1.19695e-15
1.42214e-15
1.68785e-15
2.00088e-15
2.36914e-15
2.80172e-15
3.30917e-15
3.9036e-15
4.59895e-15
5.41121e-15
6.35873e-15
7.46246e-15
8.74635e-15
1.02377e-14
1.19675e-14
1.3971e-14
1.62883e-14
1.89644e-14
2.20504e-14
2.5604e-14
2.96897e-14
3.43803e-14
3.97572e-14
4.59114e-14
5.29445e-14
6.09697e-14
7.01126e-14
8.05127e-14
9.23241e-14
1.05717e-13
1.20879e-13
1.38017e-13
1.57355e-13
1.79141e-13
2.03645e-13
2.3116e-13
2.62004e-13
2.96522e-13
3.35086e-13
3.78096e-13
4.25984e-13
4.79208e-13
5.38262e-13
6.03667e-13
6.7598e-13
7.55786e-13
8.43704e-13
9.40383e-13
1.0465e-12
1.16277e-12
1.28991e-12
1.42869e-12
1.5799e-12
1.74432e-12
1.92277e-12
2.11607e-12
2.32505e-12
2.55055e-12
2.79338e-12
3.05435e-12
3.33426e-12
3.63386e-12
3.95388e-12
4.29501e-12
4.65787e-12
5.04303e-12
5.45099e-12
5.88214e-12
6.33682e-12
6.81523e-12
7.31748e-12
7.84354e-12
8.39327e-12
8.96636e-12
9.56237e-12
1.01807e-11
1.08206e-11
1.1481e-11
1.2161e-11
1.28591e-11
1.35738e-11
1.43036e-11
1.50465e-11
1.58005e-11
1.65632e-11
1.73324e-11
1.81054e-11
1.88794e-11
1.96516e-11
2.04188e-11
2.11778e-11
2.19255e-11
2.26582e-11
2.33727e-11
2.40652e-11
2.47323e-11
2.53704e-11
2.59759e-11
2.65452e-11
2.70749e-11
2.75616e-11
2.80021e-11
2.83933e-11
2.87323e-11
2.90165e-11
2.92434e-11
2.94108e-11
2.95169e-11
2.95602e-11
2.95394e-11
2.94538e-11
2.9303e-11
2.90868e-11
2.88059e-11
2.84609e-11
2.80531e-11
2.75843e-11
2.70565e-11
2.64723e-11
2.58347e-11
2.51469e-11
2.44128e-11
2.36362e-11
2.28217e-11
2.19736e-11
2.1097e-11
2.01968e-11
1.92781e-11
1.83462e-11
1.74062e-11
1.64636e-11
1.55233e-11
1.45905e-11
1.36701e-11
1.27666e-11
1.18845e-11
1.10279e-11
1.02005e-11
9.40582e-12
8.64674e-12
7.92593e-12
7.24559e-12
6.60749e-12
6.013e-12
5.46308e-12
4.95827e-12
4.49875e-12
4.08432e-12
3.71444e-12
3.38826e-12
3.10462e-12
2.86211e-12
2.65907e-12
2.49363e-12
2.36372e-12
2.26709e-12
2.20135e-12
2.16398e-12
2.15234e-12
2.16368e-12
2.19519e-12
2.24398e-12
2.30712e-12
2.38163e-12
2.46454e-12
2.55291e-12
2.64381e-12
2.73441e-12
2.82197e-12
2.9039e-12
2.97778e-12
3.04139e-12
3.09279e-12
3.13029e-12
3.15253e-12
3.15846e-12
3.14742e-12
3.11908e-12
3.07349e-12
3.01106e-12
2.93254e-12
2.83899e-12
2.73175e-12
2.61243e-12
2.48279e-12
2.34477e-12
2.20037e-12
2.05164e-12
1.90061e-12
1.74922e-12
1.59931e-12
1.45257e-12
1.3105e-12
1.17439e-12
1.0453e-12
9.24074e-13
8.11313e-13
7.07407e-13
6.12537e-13
5.26696e-13
4.49714e-13
3.81281e-13
3.20976e-13
2.68288e-13
2.22649e-13
1.83448e-13
1.50061e-13
1.21862e-13
9.82438e-14
7.86257e-14
6.24647e-14
4.9261e-14
3.85621e-14
2.99635e-14
2.31096e-14
1.76907e-14
1.34414e-14
1.01363e-14
7.58644e-15
5.63524e-15
4.15425e-15
3.03928e-15
2.20666e-15
1.58994e-15
1.13683e-15
8.06626e-16
5.6794e-16
3.96806e-16
2.751e-16
1.8925e-16
1.29183e-16
8.75e-17
5.88112e-17
3.92312e-17
2.59843e-17
1.71083e-17
1.12312e-17
7.40703e-18
4.99717e-18
3.58564e-18
2.92228e-18
2.60562e-16
2.66859e-16
2.83566e-16
3.11091e-16
3.50186e-16
4.01956e-16
4.67893e-16
5.49899e-16
6.5034e-16
7.72101e-16
9.18649e-16
1.09412e-15
1.30342e-15
1.55231e-15
1.84756e-15
2.1971e-15
2.61015e-15
3.09744e-15
3.67144e-15
4.34657e-15
5.13951e-15
6.06948e-15
7.15864e-15
8.43243e-15
9.92005e-15
1.16549e-14
1.36754e-14
1.60249e-14
1.87532e-14
2.19169e-14
2.558e-14
2.98151e-14
3.47044e-14
4.03404e-14
4.68275e-14
5.42829e-14
6.28381e-14
7.26402e-14
8.38537e-14
9.66618e-14
1.11268e-13
1.27899e-13
1.46805e-13
1.68262e-13
1.92576e-13
2.20082e-13
2.51147e-13
2.86174e-13
3.25603e-13
3.69911e-13
4.19618e-13
4.75286e-13
5.37523e-13
6.06984e-13
6.84369e-13
7.70432e-13
8.65975e-13
9.71852e-13
1.08897e-12
1.21828e-12
1.3608e-12
1.51757e-12
1.68972e-12
1.87838e-12
2.08474e-12
2.31005e-12
2.55555e-12
2.82255e-12
3.11235e-12
3.42628e-12
3.76566e-12
4.13183e-12
4.52609e-12
4.94973e-12
5.40399e-12
5.89006e-12
6.40909e-12
6.96211e-12
7.55009e-12
8.17387e-12
8.83418e-12
9.53158e-12
1.02665e-11
1.10392e-11
1.18497e-11
1.26979e-11
1.35833e-11
1.45054e-11
1.54634e-11
1.64561e-11
1.7482e-11
1.85397e-11
1.96269e-11
2.07417e-11
2.18813e-11
2.30429e-11
2.42235e-11
2.54195e-11
2.66274e-11
2.7843e-11
2.90621e-11
3.02803e-11
3.14928e-11
3.26948e-11
3.38811e-11
3.50465e-11
3.61856e-11
3.72929e-11
3.83629e-11
3.93901e-11
4.0369e-11
4.1294e-11
4.21598e-11
4.29611e-11
4.3693e-11
4.43506e-11
4.49294e-11
4.54251e-11
4.58339e-11
4.61523e-11
4.63773e-11
4.65063e-11
4.65374e-11
4.6469e-11
4.63002e-11
4.60307e-11
4.56608e-11
4.51914e-11
4.46241e-11
4.39611e-11
4.32053e-11
4.236e-11
4.14295e-11
4.04183e-11
3.93317e-11
3.81754e-11
3.69556e-11
3.56791e-11
3.43528e-11
3.2984e-11
3.15803e-11
3.01495e-11
2.86993e-11
2.72378e-11
2.57727e-11
2.43118e-11
2.28625e-11
2.14322e-11
2.00277e-11
1.86555e-11
1.73219e-11
1.60323e-11
1.47918e-11
1.36049e-11
1.24755e-11
1.14068e-11
1.04015e-11
9.46164e-12
8.58858e-12
7.78318e-12
7.0457e-12
6.37587e-12
5.7729e-12
5.23555e-12
4.76214e-12
4.35061e-12
3.99854e-12
3.70323e-12
3.46168e-12
3.27068e-12
3.12679e-12
3.02641e-12
2.96582e-12
2.94113e-12
2.94839e-12
2.98355e-12
3.04251e-12
3.12116e-12
3.21536e-12
3.321e-12
3.43402e-12
3.55045e-12
3.66645e-12
3.77832e-12
3.8826e-12
3.97607e-12
4.05582e-12
4.11927e-12
4.16424e-12
4.18896e-12
4.19213e-12
4.17289e-12
4.13091e-12
4.06629e-12
3.97965e-12
3.87203e-12
3.74489e-12
3.60004e-12
3.43961e-12
3.26599e-12
3.08172e-12
2.88946e-12
2.6919e-12
2.4917e-12
2.2914e-12
2.09341e-12
1.8999e-12
1.71282e-12
1.53382e-12
1.36427e-12
1.20523e-12
1.05746e-12
9.21435e-13
7.97362e-13
6.85203e-13
5.84708e-13
4.95449e-13
4.16854e-13
3.48241e-13
2.88849e-13
2.37872e-13
1.94483e-13
1.57862e-13
1.27208e-13
1.01761e-13
8.08096e-14
6.37017e-14
4.98463e-14
3.87166e-14
2.98493e-14
2.28418e-14
1.73492e-14
1.30788e-14
9.78558e-15
7.26652e-15
5.35523e-15
3.9168e-15
2.84301e-15
2.0479e-15
1.46391e-15
1.03845e-15
7.30999e-16
5.10619e-16
3.53931e-16
2.43431e-16
1.66137e-16
1.12509e-16
7.56074e-17
5.04271e-17
3.33946e-17
2.1984e-17
1.44298e-17
9.5152e-18
6.41853e-18
4.6049e-18
3.75263e-18
4.74734e-16
4.86188e-16
5.16597e-16
5.66697e-16
6.37855e-16
7.32085e-16
8.52094e-16
1.00134e-15
1.18413e-15
1.40571e-15
1.67236e-15
1.99162e-15
2.37239e-15
2.82514e-15
3.36216e-15
3.99785e-15
4.74894e-15
5.63492e-15
6.6784e-15
7.90554e-15
9.34657e-15
1.10363e-14
1.3015e-14
1.53286e-14
1.803e-14
2.11798e-14
2.4847e-14
2.91105e-14
3.40601e-14
3.97978e-14
4.64393e-14
5.41154e-14
6.29741e-14
7.31821e-14
8.49272e-14
9.84198e-14
1.13896e-13
1.3162e-13
1.51887e-13
1.75024e-13
2.01395e-13
2.31404e-13
2.65499e-13
3.04171e-13
3.47962e-13
3.97468e-13
4.53341e-13
5.16292e-13
5.87098e-13
6.666e-13
7.55713e-13
8.55422e-13
9.66792e-13
1.09096e-12
1.22916e-12
1.38269e-12
1.55294e-12
1.74138e-12
1.94957e-12
2.17914e-12
2.43183e-12
2.70942e-12
3.01378e-12
3.34684e-12
3.71061e-12
4.10712e-12
4.53846e-12
5.00676e-12
5.51415e-12
6.06276e-12
6.65472e-12
7.29213e-12
7.97703e-12
8.71141e-12
9.49713e-12
1.0336e-11
1.12296e-11
1.21794e-11
1.31868e-11
1.42527e-11
1.5378e-11
1.65632e-11
1.78086e-11
1.91142e-11
2.04795e-11
2.19037e-11
2.33857e-11
2.49239e-11
2.65164e-11
2.81606e-11
2.98536e-11
3.15922e-11
3.33724e-11
3.519e-11
3.70402e-11
3.89178e-11
4.08171e-11
4.2732e-11
4.46559e-11
4.6582e-11
4.85029e-11
5.04111e-11
5.22986e-11
5.41574e-11
5.59791e-11
5.77551e-11
5.94769e-11
6.11359e-11
6.27234e-11
6.42309e-11
6.56499e-11
6.69724e-11
6.81903e-11
6.92961e-11
7.02826e-11
7.11431e-11
7.18714e-11
7.24619e-11
7.29097e-11
7.32106e-11
7.3361e-11
7.33584e-11
7.32009e-11
7.28876e-11
7.24185e-11
7.17945e-11
7.10175e-11
7.00903e-11
6.90167e-11
6.78014e-11
6.64501e-11
6.49692e-11
6.33663e-11
6.16494e-11
5.98276e-11
5.79103e-11
5.5908e-11
5.38312e-11
5.16911e-11
4.94992e-11
4.72674e-11
4.50073e-11
4.27309e-11
4.04499e-11
3.81759e-11
3.59202e-11
3.36936e-11
3.15065e-11
2.93686e-11
2.72891e-11
2.52763e-11
2.33377e-11
2.148e-11
1.9709e-11
1.80296e-11
1.64458e-11
1.49606e-11
1.35762e-11
1.22938e-11
1.11138e-11
1.00359e-11
9.05896e-12
8.18111e-12
7.39991e-12
6.71235e-12
6.11489e-12
5.60356e-12
5.174e-12
4.82151e-12
4.54114e-12
4.32769e-12
4.17577e-12
4.07984e-12
4.03425e-12
4.03327e-12
4.07109e-12
4.14191e-12
4.2399e-12
4.35929e-12
4.49437e-12
4.63954e-12
4.78937e-12
4.93862e-12
5.0823e-12
5.21574e-12
5.33464e-12
5.43511e-12
5.51377e-12
5.56774e-12
5.59473e-12
5.59307e-12
5.56171e-12
5.50026e-12
5.40897e-12
5.2887e-12
5.14091e-12
4.96761e-12
4.77125e-12
4.5547e-12
4.32115e-12
4.074e-12
3.81676e-12
3.55302e-12
3.28625e-12
3.01983e-12
2.75689e-12
2.50027e-12
2.25251e-12
2.01575e-12
1.79175e-12
1.58186e-12
1.38705e-12
1.2079e-12
1.04464e-12
8.97181e-13
7.6517e-13
6.48012e-13
5.44929e-13
4.55002e-13
3.77215e-13
3.10493e-13
2.53741e-13
2.05868e-13
1.6582e-13
1.32592e-13
1.0525e-13
8.29355e-14
6.48719e-14
5.03687e-14
3.88189e-14
2.96955e-14
2.25474e-14
1.6992e-14
1.27096e-14
9.43503e-15
6.95139e-15
5.08285e-15
3.68842e-15
2.65621e-15
1.89829e-15
1.34628e-15
9.4748e-16
6.61696e-16
4.58557e-16
3.15332e-16
2.15167e-16
1.45688e-16
9.78877e-17
6.52768e-17
4.32221e-17
2.84494e-17
1.86709e-17
1.23101e-17
8.3027e-18
5.9559e-18
4.85317e-18
8.57101e-16
8.77753e-16
9.326e-16
1.02297e-15
1.15133e-15
1.3213e-15
1.53777e-15
1.80697e-15
2.13664e-15
2.53624e-15
3.01712e-15
3.59282e-15
4.27936e-15
5.09562e-15
6.06374e-15
7.20958e-15
8.56331e-15
1.016e-14
1.20402e-14
1.42511e-14
1.6847e-14
1.98905e-14
2.34536e-14
2.76193e-14
3.24823e-14
3.81512e-14
4.475e-14
5.242e-14
6.13222e-14
7.1639e-14
8.35775e-14
9.73719e-14
1.13286e-13
1.31619e-13
1.52704e-13
1.76917e-13
2.0468e-13
2.36461e-13
2.72784e-13
3.14232e-13
3.61452e-13
4.15157e-13
4.76139e-13
5.45268e-13
6.23501e-13
7.11885e-13
8.11568e-13
9.238e-13
1.04994e-12
1.19146e-12
1.34996e-12
1.52716e-12
1.72489e-12
1.94515e-12
2.19005e-12
2.46183e-12
2.76289e-12
3.09574e-12
3.46305e-12
3.8676e-12
4.3123e-12
4.80018e-12
5.33437e-12
5.91812e-12
6.55472e-12
7.24755e-12
8.00004e-12
8.81563e-12
9.69777e-12
1.06499e-11
1.16753e-11
1.27773e-11
1.39591e-11
1.52236e-11
1.65736e-11
1.80117e-11
1.95402e-11
2.1161e-11
2.28757e-11
2.46854e-11
2.6591e-11
2.85926e-11
3.06899e-11
3.28821e-11
3.51677e-11
3.75446e-11
4.00099e-11
4.25602e-11
4.51913e-11
4.78981e-11
5.06751e-11
5.35156e-11
5.64126e-11
5.93581e-11
6.23435e-11
6.53593e-11
6.83955e-11
7.14415e-11
7.4486e-11
7.75172e-11
8.05229e-11
8.34904e-11
8.64066e-11
8.92584e-11
9.20322e-11
9.47145e-11
9.72919e-11
9.97508e-11
1.02078e-10
1.04261e-10
1.06286e-10
1.08143e-10
1.09818e-10
1.11303e-10
1.12586e-10
1.13659e-10
1.14513e-10
1.15142e-10
1.1554e-10
1.15702e-10
1.15624e-10
1.15305e-10
1.14744e-10
1.13941e-10
1.129e-10
1.11622e-10
1.10113e-10
1.08381e-10
1.06431e-10
1.04275e-10
1.01921e-10
9.93821e-11
9.66709e-11
9.38012e-11
9.0788e-11
8.7647e-11
8.43946e-11
8.10479e-11
7.76243e-11
7.41418e-11
7.0618e-11
6.7071e-11
6.35185e-11
5.99779e-11
5.6466e-11
5.29992e-11
4.9593e-11
4.62619e-11
4.30197e-11
3.98787e-11
3.68502e-11
3.39444e-11
3.11698e-11
2.85338e-11
2.60424e-11
2.37001e-11
2.15103e-11
1.94748e-11
1.75943e-11
1.58683e-11
1.42951e-11
1.28722e-11
1.15958e-11
1.04616e-11
9.46435e-12
8.59816e-12
7.85665e-12
7.23294e-12
6.71975e-12
6.3095e-12
5.99435e-12
5.7663e-12
5.61717e-12
5.53873e-12
5.52269e-12
5.56075e-12
5.64465e-12
5.76618e-12
5.91727e-12
6.08998e-12
6.27658e-12
6.46961e-12
6.66192e-12
6.84676e-12
7.01781e-12
7.1693e-12
7.29605e-12
7.39357e-12
7.45807e-12
7.48658e-12
7.47695e-12
7.42786e-12
7.3389e-12
7.21049e-12
7.04387e-12
6.84106e-12
6.60481e-12
6.33846e-12
6.04587e-12
5.7313e-12
5.3993e-12
5.05456e-12
4.70179e-12
4.34564e-12
3.99051e-12
3.64054e-12
3.29946e-12
2.97056e-12
2.65663e-12
2.35994e-12
2.08223e-12
1.82472e-12
1.58813e-12
1.3727e-12
1.1783e-12
1.00439e-12
8.50167e-13
7.14569e-13
5.96358e-13
4.94172e-13
4.06577e-13
3.32115e-13
2.6934e-13
2.16854e-13
1.7333e-13
1.37534e-13
1.08334e-13
8.47074e-14
6.57465e-14
5.06532e-14
3.87358e-14
2.94022e-14
2.21512e-14
1.65636e-14
1.22926e-14
9.05431e-15
6.61877e-15
4.80177e-15
3.45715e-15
2.47013e-15
1.75144e-15
1.23236e-15
8.60478e-16
5.96198e-16
4.09906e-16
2.79651e-16
1.89317e-16
1.27182e-16
8.47988e-17
5.614e-17
3.6947e-17
2.42444e-17
1.59827e-17
1.07782e-17
7.73075e-18
6.29887e-18
1.53334e-15
1.57024e-15
1.66828e-15
1.82982e-15
2.05927e-15
2.3631e-15
2.75004e-15
3.23122e-15
3.82048e-15
4.53468e-15
5.39411e-15
6.42292e-15
7.64975e-15
9.10826e-15
1.0838e-14
1.28851e-14
1.53033e-14
1.81553e-14
2.15134e-14
2.54615e-14
3.00966e-14
3.55301e-14
4.18906e-14
4.93253e-14
5.80032e-14
6.81174e-14
7.98884e-14
9.35676e-14
1.0944e-13
1.27832e-13
1.49108e-13
1.73685e-13
2.02032e-13
2.34675e-13
2.72208e-13
3.15294e-13
3.64677e-13
4.21187e-13
4.85746e-13
5.59381e-13
6.4323e-13
7.3855e-13
8.46729e-13
9.69293e-13
1.10792e-12
1.26443e-12
1.44085e-12
1.63933e-12
1.86226e-12
2.11219e-12
2.39187e-12
2.70429e-12
3.05263e-12
3.4403e-12
3.87093e-12
4.34836e-12
4.87667e-12
5.46015e-12
6.10331e-12
6.81085e-12
7.58766e-12
8.43882e-12
9.36955e-12
1.03852e-11
1.14912e-11
1.26931e-11
1.39965e-11
1.54069e-11
1.69299e-11
1.85707e-11
2.03347e-11
2.2227e-11
2.42522e-11
2.64148e-11
2.87189e-11
3.1168e-11
3.37651e-11
3.65127e-11
3.94124e-11
4.24653e-11
4.56715e-11
4.90303e-11
5.25399e-11
5.61978e-11
6.00001e-11
6.3942e-11
6.80176e-11
7.22196e-11
7.65397e-11
8.09683e-11
8.54946e-11
9.01068e-11
9.47915e-11
9.95347e-11
1.04321e-10
1.09133e-10
1.13955e-10
1.18768e-10
1.23552e-10
1.28289e-10
1.32957e-10
1.37536e-10
1.42005e-10
1.46342e-10
1.50527e-10
1.54538e-10
1.58353e-10
1.61953e-10
1.65317e-10
1.68427e-10
1.71263e-10
1.73809e-10
1.76049e-10
1.77968e-10
1.79552e-10
1.8079e-10
1.81672e-10
1.82189e-10
1.82337e-10
1.82109e-10
1.81506e-10
1.80525e-10
1.7917e-10
1.77444e-10
1.75355e-10
1.72911e-10
1.70123e-10
1.67003e-10
1.63567e-10
1.59831e-10
1.55814e-10
1.51536e-10
1.47018e-10
1.42285e-10
1.37359e-10
1.32267e-10
1.27034e-10
1.21688e-10
1.16254e-10
1.10761e-10
1.05235e-10
9.97037e-11
9.41922e-11
8.87262e-11
8.33304e-11
7.80279e-11
7.28407e-11
6.7789e-11