/*--------------------------------*- C++ -*----------------------------------*\
| =========                 |                                                 |
| \\      /  F ield         | OpenFOAM: The Open Source CFD Toolbox           |
|  \\    /   O peration     | Version:  v2012                                 |
|   \\  /    A nd           | Website:  www.openfoam.com                      |
|    \\/     M anipulation  |                                                 |
\*---------------------------------------------------------------------------*/
FoamFile
{
    version     2.0;
    format      ascii;
    class       volVectorField;
    location    "13.5";
    object      U;
}
// * * * * * * * * * * * * * * * * * * * * * * * * * * * * * * * * * * * * * //

dimensions      [0 1 -1 0 0 0 0];


internalField   nonuniform List<vector> 
65536
(
(0.000713506 -0.000713526 0)
(0.00214056 -0.000713569 0)
(0.00356774 -0.000713653 0)
(0.00499514 -0.000713779 0)
(0.00642282 -0.000713945 0)
(0.00785088 -0.000714153 0)
(0.00927939 -0.0007144 0)
(0.0107084 -0.000714687 0)
(0.0121381 -0.000715013 0)
(0.0135685 -0.000715376 0)
(0.0149996 -0.000715776 0)
(0.0164315 -0.000716211 0)
(0.0178644 -0.00071668 0)
(0.0192982 -0.000717181 0)
(0.0207331 -0.000717713 0)
(0.022169 -0.000718274 0)
(0.0236062 -0.000718862 0)
(0.0250445 -0.000719475 0)
(0.026484 -0.000720111 0)
(0.0279249 -0.000720768 0)
(0.0293671 -0.000721443 0)
(0.0308106 -0.000722133 0)
(0.0322556 -0.000722836 0)
(0.033702 -0.000723549 0)
(0.0351498 -0.000724269 0)
(0.0365991 -0.000724992 0)
(0.0380498 -0.000725716 0)
(0.0395019 -0.000726437 0)
(0.0409555 -0.00072715 0)
(0.0424105 -0.000727853 0)
(0.043867 -0.000728541 0)
(0.0453247 -0.00072921 0)
(0.0467838 -0.000729855 0)
(0.0482442 -0.000730473 0)
(0.0497057 -0.000731059 0)
(0.0511684 -0.000731607 0)
(0.0526322 -0.000732113 0)
(0.0540969 -0.000732571 0)
(0.0555626 -0.000732977 0)
(0.0570289 -0.000733324 0)
(0.0584959 -0.000733607 0)
(0.0599634 -0.00073382 0)
(0.0614313 -0.000733958 0)
(0.0628993 -0.000734013 0)
(0.0643674 -0.00073398 0)
(0.0658353 -0.000733852 0)
(0.0673029 -0.000733623 0)
(0.0687699 -0.000733286 0)
(0.0702362 -0.000732833 0)
(0.0717014 -0.000732258 0)
(0.0731653 -0.000731555 0)
(0.0746278 -0.000730714 0)
(0.0760884 -0.000729729 0)
(0.0775468 -0.000728594 0)
(0.0790029 -0.000727299 0)
(0.0804562 -0.000725837 0)
(0.0819064 -0.000724201 0)
(0.0833532 -0.000722383 0)
(0.0847961 -0.000720375 0)
(0.0862349 -0.00071817 0)
(0.087669 -0.000715759 0)
(0.0890981 -0.000713134 0)
(0.0905218 -0.000710289 0)
(0.0919395 -0.000707215 0)
(0.0933509 -0.000703904 0)
(0.0947554 -0.000700349 0)
(0.0961525 -0.000696543 0)
(0.0975418 -0.000692478 0)
(0.0989227 -0.000688147 0)
(0.100295 -0.000683542 0)
(0.101657 -0.000678658 0)
(0.10301 -0.000673487 0)
(0.104351 -0.000668023 0)
(0.105682 -0.000662261 0)
(0.107001 -0.000656193 0)
(0.108307 -0.000649815 0)
(0.1096 -0.000643122 0)
(0.11088 -0.000636109 0)
(0.112145 -0.000628771 0)
(0.113395 -0.000621105 0)
(0.11463 -0.000613106 0)
(0.115848 -0.000604773 0)
(0.117049 -0.000596102 0)
(0.118233 -0.000587091 0)
(0.119398 -0.000577739 0)
(0.120544 -0.000568045 0)
(0.12167 -0.000558008 0)
(0.122776 -0.000547629 0)
(0.123861 -0.000536908 0)
(0.124924 -0.000525847 0)
(0.125965 -0.000514448 0)
(0.126983 -0.000502713 0)
(0.127976 -0.000490647 0)
(0.128945 -0.000478252 0)
(0.12989 -0.000465533 0)
(0.130808 -0.000452496 0)
(0.1317 -0.000439147 0)
(0.132565 -0.000425493 0)
(0.133402 -0.00041154 0)
(0.134211 -0.000397297 0)
(0.134992 -0.000382771 0)
(0.135743 -0.000367974 0)
(0.136464 -0.000352913 0)
(0.137154 -0.0003376 0)
(0.137814 -0.000322046 0)
(0.138443 -0.000306262 0)
(0.13904 -0.00029026 0)
(0.139604 -0.000274052 0)
(0.140136 -0.000257653 0)
(0.140635 -0.000241074 0)
(0.1411 -0.000224331 0)
(0.141532 -0.000207437 0)
(0.14193 -0.000190407 0)
(0.142294 -0.000173256 0)
(0.142623 -0.000155999 0)
(0.142918 -0.000138651 0)
(0.143178 -0.000121228 0)
(0.143403 -0.000103746 0)
(0.143593 -8.62198e-05 0)
(0.143748 -6.8666e-05 0)
(0.143868 -5.11002e-05 0)
(0.143952 -3.35382e-05 0)
(0.144002 -1.59958e-05 0)
(0.144016 1.51133e-06 0)
(0.143996 1.89678e-05 0)
(0.14394 3.63583e-05 0)
(0.14385 5.36677e-05 0)
(0.143726 7.08813e-05 0)
(0.143567 8.79846e-05 0)
(0.143374 0.000104963 0)
(0.143147 0.000121804 0)
(0.142886 0.000138493 0)
(0.142593 0.000155017 0)
(0.142266 0.000171365 0)
(0.141907 0.000187523 0)
(0.141516 0.000203481 0)
(0.141093 0.000219227 0)
(0.140639 0.000234751 0)
(0.140154 0.000250042 0)
(0.139638 0.000265093 0)
(0.139093 0.000279893 0)
(0.138518 0.000294435 0)
(0.137915 0.000308711 0)
(0.137283 0.000322714 0)
(0.136624 0.000336438 0)
(0.135937 0.000349876 0)
(0.135224 0.000363024 0)
(0.134485 0.000375877 0)
(0.13372 0.00038843 0)
(0.132931 0.00040068 0)
(0.132117 0.000412625 0)
(0.13128 0.000424262 0)
(0.13042 0.000435589 0)
(0.129537 0.000446604 0)
(0.128633 0.000457307 0)
(0.127708 0.000467698 0)
(0.126762 0.000477776 0)
(0.125796 0.000487543 0)
(0.124811 0.000496999 0)
(0.123808 0.000506146 0)
(0.122787 0.000514985 0)
(0.121748 0.000523519 0)
(0.120692 0.000531751 0)
(0.11962 0.000539684 0)
(0.118533 0.000547321 0)
(0.117431 0.000554665 0)
(0.116314 0.00056172 0)
(0.115184 0.000568491 0)
(0.11404 0.000574982 0)
(0.112884 0.000581198 0)
(0.111715 0.000587143 0)
(0.110535 0.000592823 0)
(0.109343 0.000598243 0)
(0.108141 0.000603408 0)
(0.10693 0.000608323 0)
(0.105708 0.000612995 0)
(0.104477 0.00061743 0)
(0.103238 0.000621632 0)
(0.101991 0.000625608 0)
(0.100735 0.000629364 0)
(0.0994729 0.000632906 0)
(0.0982035 0.00063624 0)
(0.0969277 0.000639372 0)
(0.0956458 0.000642308 0)
(0.0943583 0.000645055 0)
(0.0930654 0.000647618 0)
(0.0917676 0.000650004 0)
(0.0904652 0.000652218 0)
(0.0891586 0.000654266 0)
(0.087848 0.000656156 0)
(0.0865338 0.000657892 0)
(0.0852163 0.00065948 0)
(0.0838958 0.000660926 0)
(0.0825725 0.000662236 0)
(0.0812467 0.000663416 0)
(0.0799187 0.000664471 0)
(0.0785887 0.000665406 0)
(0.0772569 0.000666228 0)
(0.0759237 0.00066694 0)
(0.0745891 0.00066755 0)
(0.0732534 0.000668061 0)
(0.0719167 0.000668478 0)
(0.0705794 0.000668807 0)
(0.0692414 0.000669053 0)
(0.0679031 0.000669219 0)
(0.0665645 0.000669311 0)
(0.0652258 0.000669333 0)
(0.0638871 0.00066929 0)
(0.0625486 0.000669185 0)
(0.0612103 0.000669023 0)
(0.0598724 0.000668808 0)
(0.058535 0.000668544 0)
(0.0571982 0.000668235 0)
(0.055862 0.000667884 0)
(0.0545266 0.000667495 0)
(0.053192 0.000667071 0)
(0.0518583 0.000666617 0)
(0.0505255 0.000666134 0)
(0.0491938 0.000665627 0)
(0.047863 0.000665098 0)
(0.0465333 0.000664551 0)
(0.0452048 0.000663987 0)
(0.0438774 0.000663411 0)
(0.0425511 0.000662824 0)
(0.0412261 0.00066223 0)
(0.0399022 0.00066163 0)
(0.0385796 0.000661028 0)
(0.0372581 0.000660425 0)
(0.0359379 0.000659823 0)
(0.0346188 0.000659225 0)
(0.033301 0.000658633 0)
(0.0319843 0.000658048 0)
(0.0306688 0.000657473 0)
(0.0293544 0.000656909 0)
(0.0280412 0.000656358 0)
(0.026729 0.000655822 0)
(0.0254179 0.000655301 0)
(0.0241078 0.000654798 0)
(0.0227987 0.000654314 0)
(0.0214906 0.00065385 0)
(0.0201833 0.000653407 0)
(0.018877 0.000652986 0)
(0.0175714 0.000652589 0)
(0.0162666 0.000652216 0)
(0.0149626 0.000651869 0)
(0.0136592 0.000651547 0)
(0.0123564 0.000651253 0)
(0.0110542 0.000650986 0)
(0.00975251 0.000650747 0)
(0.00845126 0.000650537 0)
(0.0071504 0.000650355 0)
(0.00584987 0.000650204 0)
(0.00454961 0.000650082 0)
(0.00324957 0.000649991 0)
(0.00194968 0.00064993 0)
(0.000649884 0.000649899 0)
(0.000713466 -0.00214054 0)
(0.00214044 -0.00214067 0)
(0.00356754 -0.00214092 0)
(0.00499485 -0.0021413 0)
(0.00642245 -0.0021418 0)
(0.00785043 -0.00214242 0)
(0.00927886 -0.00214316 0)
(0.0107078 -0.00214403 0)
(0.0121374 -0.002145 0)
(0.0135677 -0.00214609 0)
(0.0149988 -0.00214729 0)
(0.0164306 -0.0021486 0)
(0.0178634 -0.00215001 0)
(0.0192972 -0.00215151 0)
(0.020732 -0.00215311 0)
(0.0221679 -0.0021548 0)
(0.023605 -0.00215656 0)
(0.0250432 -0.0021584 0)
(0.0264828 -0.00216031 0)
(0.0279236 -0.00216229 0)
(0.0293657 -0.00216431 0)
(0.0308093 -0.00216639 0)
(0.0322542 -0.0021685 0)
(0.0337006 -0.00217064 0)
(0.0351484 -0.00217281 0)
(0.0365976 -0.00217498 0)
(0.0380483 -0.00217715 0)
(0.0395005 -0.00217932 0)
(0.0409541 -0.00218146 0)
(0.0424092 -0.00218358 0)
(0.0438656 -0.00218564 0)
(0.0453234 -0.00218765 0)
(0.0467826 -0.0021896 0)
(0.048243 -0.00219145 0)
(0.0497046 -0.00219322 0)
(0.0511674 -0.00219486 0)
(0.0526313 -0.00219639 0)
(0.0540961 -0.00219777 0)
(0.0555618 -0.00219899 0)
(0.0570283 -0.00220004 0)
(0.0584955 -0.00220089 0)
(0.0599631 -0.00220154 0)
(0.0614311 -0.00220196 0)
(0.0628993 -0.00220213 0)
(0.0643676 -0.00220204 0)
(0.0658357 -0.00220166 0)
(0.0673035 -0.00220098 0)
(0.0687708 -0.00219997 0)
(0.0702373 -0.00219862 0)
(0.0717027 -0.00219691 0)
(0.0731669 -0.0021948 0)
(0.0746296 -0.00219229 0)
(0.0760905 -0.00218934 0)
(0.0775493 -0.00218594 0)
(0.0790057 -0.00218206 0)
(0.0804593 -0.00217769 0)
(0.0819099 -0.00217279 0)
(0.083357 -0.00216734 0)
(0.0848004 -0.00216132 0)
(0.0862395 -0.00215472 0)
(0.0876741 -0.00214749 0)
(0.0891036 -0.00213962 0)
(0.0905277 -0.0021311 0)
(0.0919459 -0.00212188 0)
(0.0933578 -0.00211196 0)
(0.0947628 -0.0021013 0)
(0.0961604 -0.00208989 0)
(0.0975502 -0.0020777 0)
(0.0989317 -0.00206471 0)
(0.100304 -0.00205091 0)
(0.101667 -0.00203626 0)
(0.10302 -0.00202075 0)
(0.104363 -0.00200437 0)
(0.105694 -0.00198709 0)
(0.107013 -0.00196889 0)
(0.10832 -0.00194976 0)
(0.109614 -0.00192969 0)
(0.110894 -0.00190865 0)
(0.11216 -0.00188664 0)
(0.113411 -0.00186364 0)
(0.114646 -0.00183965 0)
(0.115865 -0.00181465 0)
(0.117067 -0.00178864 0)
(0.118251 -0.00176161 0)
(0.119417 -0.00173356 0)
(0.120564 -0.00170447 0)
(0.121691 -0.00167436 0)
(0.122798 -0.00164323 0)
(0.123883 -0.00161106 0)
(0.124947 -0.00157788 0)
(0.125988 -0.00154368 0)
(0.127006 -0.00150847 0)
(0.128001 -0.00147226 0)
(0.128971 -0.00143507 0)
(0.129915 -0.00139691 0)
(0.130834 -0.0013578 0)
(0.131727 -0.00131774 0)
(0.132592 -0.00127677 0)
(0.13343 -0.00123491 0)
(0.13424 -0.00119217 0)
(0.135021 -0.00114858 0)
(0.135772 -0.00110418 0)
(0.136494 -0.00105899 0)
(0.137185 -0.00101304 0)
(0.137846 -0.000966364 0)
(0.138475 -0.000918999 0)
(0.139072 -0.00087098 0)
(0.139637 -0.000822345 0)
(0.140169 -0.000773133 0)
(0.140668 -0.000723384 0)
(0.141134 -0.00067314 0)
(0.141566 -0.000622444 0)
(0.141965 -0.000571339 0)
(0.142329 -0.00051987 0)
(0.142658 -0.000468084 0)
(0.142953 -0.000416025 0)
(0.143213 -0.00036374 0)
(0.143438 -0.000311277 0)
(0.143628 -0.000258684 0)
(0.143783 -0.000206006 0)
(0.143903 -0.000153293 0)
(0.143988 -0.000100591 0)
(0.144037 -4.79488e-05 0)
(0.144051 4.5881e-06 0)
(0.144031 5.69727e-05 0)
(0.143975 0.000109159 0)
(0.143885 0.000161102 0)
(0.14376 0.000212757 0)
(0.143601 0.000264081 0)
(0.143407 0.000315032 0)
(0.14318 0.000365567 0)
(0.142919 0.000415647 0)
(0.142625 0.000465232 0)
(0.142299 0.000514286 0)
(0.141939 0.000562773 0)
(0.141547 0.000610656 0)
(0.141124 0.000657905 0)
(0.140669 0.000704486 0)
(0.140184 0.000750371 0)
(0.139668 0.000795531 0)
(0.139122 0.000839941 0)
(0.138547 0.000883574 0)
(0.137943 0.000926409 0)
(0.137311 0.000968424 0)
(0.136651 0.0010096 0)
(0.135964 0.00104992 0)
(0.13525 0.00108937 0)
(0.13451 0.00112793 0)
(0.133745 0.00116559 0)
(0.132955 0.00120235 0)
(0.132141 0.00123819 0)
(0.131303 0.0012731 0)
(0.130442 0.00130708 0)
(0.129559 0.00134012 0)
(0.128654 0.00137223 0)
(0.127728 0.00140341 0)
(0.126782 0.00143364 0)
(0.125815 0.00146294 0)
(0.12483 0.00149131 0)
(0.123826 0.00151874 0)
(0.122804 0.00154526 0)
(0.121764 0.00157086 0)
(0.120708 0.00159555 0)
(0.119636 0.00161935 0)
(0.118548 0.00164225 0)
(0.117445 0.00166428 0)
(0.116328 0.00168544 0)
(0.115197 0.00170575 0)
(0.114053 0.00172522 0)
(0.112896 0.00174386 0)
(0.111726 0.00176169 0)
(0.110546 0.00177873 0)
(0.109354 0.00179498 0)
(0.108151 0.00181047 0)
(0.106939 0.00182521 0)
(0.105717 0.00183922 0)
(0.104486 0.00185252 0)
(0.103246 0.00186512 0)
(0.101998 0.00187704 0)
(0.100743 0.0018883 0)
(0.0994797 0.00189892 0)
(0.0982099 0.00190892 0)
(0.0969337 0.00191831 0)
(0.0956514 0.00192711 0)
(0.0943635 0.00193535 0)
(0.0930703 0.00194303 0)
(0.0917722 0.00195018 0)
(0.0904694 0.00195682 0)
(0.0891625 0.00196296 0)
(0.0878516 0.00196862 0)
(0.0865371 0.00197382 0)
(0.0852193 0.00197858 0)
(0.0838985 0.00198291 0)
(0.0825749 0.00198684 0)
(0.0812489 0.00199037 0)
(0.0799206 0.00199353 0)
(0.0785904 0.00199633 0)
(0.0772584 0.00199879 0)
(0.0759249 0.00200092 0)
(0.0745901 0.00200275 0)
(0.0732543 0.00200427 0)
(0.0719174 0.00200552 0)
(0.0705799 0.0020065 0)
(0.0692418 0.00200723 0)
(0.0679033 0.00200773 0)
(0.0665646 0.002008 0)
(0.0652257 0.00200806 0)
(0.0638869 0.00200793 0)
(0.0625482 0.00200761 0)
(0.0612099 0.00200712 0)
(0.0598719 0.00200647 0)
(0.0585344 0.00200568 0)
(0.0571975 0.00200474 0)
(0.0558613 0.00200369 0)
(0.0545258 0.00200252 0)
(0.0531911 0.00200124 0)
(0.0518573 0.00199988 0)
(0.0505245 0.00199843 0)
(0.0491927 0.0019969 0)
(0.0478619 0.00199531 0)
(0.0465322 0.00199367 0)
(0.0452036 0.00199197 0)
(0.0438762 0.00199024 0)
(0.0425499 0.00198848 0)
(0.0412249 0.00198669 0)
(0.039901 0.00198489 0)
(0.0385783 0.00198308 0)
(0.0372569 0.00198127 0)
(0.0359366 0.00197946 0)
(0.0346176 0.00197767 0)
(0.0332998 0.00197589 0)
(0.0319831 0.00197413 0)
(0.0306676 0.00197241 0)
(0.0293533 0.00197071 0)
(0.0280401 0.00196906 0)
(0.0267279 0.00196745 0)
(0.0254169 0.00196589 0)
(0.0241068 0.00196437 0)
(0.0227978 0.00196292 0)
(0.0214897 0.00196153 0)
(0.0201825 0.0019602 0)
(0.0188761 0.00195893 0)
(0.0175706 0.00195774 0)
(0.0162659 0.00195662 0)
(0.0149619 0.00195558 0)
(0.0136586 0.00195461 0)
(0.0123559 0.00195373 0)
(0.0110537 0.00195293 0)
(0.00975206 0.00195221 0)
(0.00845086 0.00195158 0)
(0.00715006 0.00195103 0)
(0.00584959 0.00195058 0)
(0.0045494 0.00195021 0)
(0.00324942 0.00194994 0)
(0.00194959 0.00194976 0)
(0.000649853 0.00194967 0)
(0.000713381 -0.00356743 0)
(0.00214019 -0.00356764 0)
(0.00356712 -0.00356806 0)
(0.00499426 -0.00356869 0)
(0.0064217 -0.00356953 0)
(0.00784951 -0.00357057 0)
(0.00927779 -0.00357181 0)
(0.0107066 -0.00357325 0)
(0.012136 -0.00357488 0)
(0.0135662 -0.0035767 0)
(0.0149971 -0.00357871 0)
(0.0164288 -0.00358089 0)
(0.0178615 -0.00358324 0)
(0.0192951 -0.00358575 0)
(0.0207298 -0.00358842 0)
(0.0221656 -0.00359124 0)
(0.0236025 -0.00359419 0)
(0.0250407 -0.00359726 0)
(0.0264802 -0.00360046 0)
(0.0279209 -0.00360375 0)
(0.029363 -0.00360714 0)
(0.0308065 -0.0036106 0)
(0.0322514 -0.00361413 0)
(0.0336977 -0.00361771 0)
(0.0351455 -0.00362133 0)
(0.0365947 -0.00362496 0)
(0.0380454 -0.0036286 0)
(0.0394976 -0.00363222 0)
(0.0409513 -0.00363581 0)
(0.0424064 -0.00363934 0)
(0.0438629 -0.0036428 0)
(0.0453208 -0.00364617 0)
(0.04678 -0.00364942 0)
(0.0482406 -0.00365253 0)
(0.0497023 -0.00365548 0)
(0.0511653 -0.00365825 0)
(0.0526293 -0.0036608 0)
(0.0540944 -0.00366312 0)
(0.0555603 -0.00366518 0)
(0.057027 -0.00366694 0)
(0.0584944 -0.00366839 0)
(0.0599624 -0.00366948 0)
(0.0614307 -0.0036702 0)
(0.0628993 -0.00367051 0)
(0.0643679 -0.00367038 0)
(0.0658364 -0.00366977 0)
(0.0673046 -0.00366866 0)
(0.0687723 -0.00366701 0)
(0.0702393 -0.00366478 0)
(0.0717052 -0.00366194 0)
(0.07317 -0.00365846 0)
(0.0746332 -0.00365429 0)
(0.0760947 -0.00364941 0)
(0.0775541 -0.00364376 0)
(0.0790112 -0.00363733 0)
(0.0804655 -0.00363006 0)
(0.0819168 -0.00362192 0)
(0.0833647 -0.00361287 0)
(0.0848088 -0.00360287 0)
(0.0862487 -0.00359188 0)
(0.0876841 -0.00357986 0)
(0.0891145 -0.00356678 0)
(0.0905395 -0.00355259 0)
(0.0919587 -0.00353726 0)
(0.0933715 -0.00352074 0)
(0.0947775 -0.003503 0)
(0.0961761 -0.00348401 0)
(0.097567 -0.00346372 0)
(0.0989495 -0.0034421 0)
(0.100323 -0.00341911 0)
(0.101687 -0.00339472 0)
(0.103041 -0.0033689 0)
(0.104385 -0.00334161 0)
(0.105717 -0.00331283 0)
(0.107038 -0.00328251 0)
(0.108346 -0.00325065 0)
(0.109641 -0.00321721 0)
(0.110923 -0.00318216 0)
(0.11219 -0.0031455 0)
(0.113442 -0.00310718 0)
(0.114679 -0.0030672 0)
(0.115899 -0.00302555 0)
(0.117102 -0.0029822 0)
(0.118288 -0.00293716 0)
(0.119455 -0.0028904 0)
(0.120603 -0.00284193 0)
(0.121732 -0.00279175 0)
(0.12284 -0.00273985 0)
(0.123927 -0.00268624 0)
(0.124992 -0.00263092 0)
(0.126034 -0.00257391 0)
(0.127054 -0.00251522 0)
(0.12805 -0.00245487 0)
(0.129021 -0.00239287 0)
(0.129967 -0.00232925 0)
(0.130887 -0.00226404 0)
(0.131781 -0.00219726 0)
(0.132648 -0.00212895 0)
(0.133487 -0.00205914 0)
(0.134298 -0.00198789 0)
(0.13508 -0.00191521 0)
(0.135832 -0.00184118 0)
(0.136555 -0.00176582 0)
(0.137247 -0.0016892 0)
(0.137908 -0.00161137 0)
(0.138538 -0.00153239 0)
(0.139136 -0.00145232 0)
(0.139702 -0.00137122 0)
(0.140235 -0.00128915 0)
(0.140735 -0.00120619 0)
(0.141201 -0.0011224 0)
(0.141634 -0.00103786 0)
(0.142033 -0.000952634 0)
(0.142397 -0.000866803 0)
(0.142727 -0.00078044 0)
(0.143023 -0.000693624 0)
(0.143283 -0.000606431 0)
(0.143508 -0.00051894 0)
(0.143698 -0.000431231 0)
(0.143854 -0.000343382 0)
(0.143973 -0.000255474 0)
(0.144058 -0.000167586 0)
(0.144107 -7.9796e-05 0)
(0.144121 7.81707e-06 0)
(0.1441 9.51757e-05 0)
(0.144045 0.000182203 0)
(0.143954 0.000268824 0)
(0.143829 0.000354965 0)
(0.143669 0.000440552 0)
(0.143475 0.000525515 0)
(0.143247 0.000609785 0)
(0.142986 0.000693294 0)
(0.142691 0.000775979 0)
(0.142364 0.000857776 0)
(0.142003 0.000938624 0)
(0.141611 0.00101847 0)
(0.141187 0.00109725 0)
(0.140731 0.00117492 0)
(0.140245 0.00125142 0)
(0.139728 0.00132672 0)
(0.139181 0.00140076 0)
(0.138605 0.00147351 0)
(0.138 0.00154493 0)
(0.137366 0.00161497 0)
(0.136705 0.00168362 0)
(0.136017 0.00175084 0)
(0.135302 0.0018166 0)
(0.134561 0.00188088 0)
(0.133795 0.00194367 0)
(0.133003 0.00200493 0)
(0.132188 0.00206467 0)
(0.131349 0.00212286 0)
(0.130487 0.0021795 0)
(0.129602 0.00223458 0)
(0.128696 0.0022881 0)
(0.127769 0.00234005 0)
(0.126821 0.00239044 0)
(0.125854 0.00243927 0)
(0.124867 0.00248654 0)
(0.123862 0.00253227 0)
(0.122839 0.00257645 0)
(0.121798 0.00261911 0)
(0.120741 0.00266026 0)
(0.119667 0.0026999 0)
(0.118578 0.00273807 0)
(0.117474 0.00277477 0)
(0.116356 0.00281002 0)
(0.115223 0.00284386 0)
(0.114078 0.00287629 0)
(0.11292 0.00290734 0)
(0.11175 0.00293704 0)
(0.110568 0.00296542 0)
(0.109375 0.00299249 0)
(0.108172 0.00301828 0)
(0.106958 0.00304283 0)
(0.105735 0.00306617 0)
(0.104503 0.00308831 0)
(0.103262 0.00310929 0)
(0.102014 0.00312914 0)
(0.100757 0.00314789 0)
(0.0994934 0.00316557 0)
(0.0982228 0.00318221 0)
(0.0969458 0.00319784 0)
(0.0956628 0.00321249 0)
(0.0943741 0.00322619 0)
(0.0930802 0.00323897 0)
(0.0917814 0.00325087 0)
(0.090478 0.00326191 0)
(0.0891703 0.00327213 0)
(0.0878588 0.00328154 0)
(0.0865437 0.00329019 0)
(0.0852253 0.0032981 0)
(0.083904 0.00330531 0)
(0.0825799 0.00331183 0)
(0.0812533 0.0033177 0)
(0.0799246 0.00332295 0)
(0.0785939 0.0033276 0)
(0.0772615 0.00333168 0)
(0.0759276 0.00333522 0)
(0.0745924 0.00333824 0)
(0.0732561 0.00334077 0)
(0.0719189 0.00334283 0)
(0.070581 0.00334445 0)
(0.0692426 0.00334565 0)
(0.0679038 0.00334646 0)
(0.0665648 0.0033469 0)
(0.0652257 0.00334699 0)
(0.0638866 0.00334675 0)
(0.0625477 0.00334621 0)
(0.0612091 0.00334538 0)
(0.0598709 0.00334428 0)
(0.0585333 0.00334294 0)
(0.0571962 0.00334138 0)
(0.0558598 0.00333961 0)
(0.0545241 0.00333764 0)
(0.0531893 0.00333551 0)
(0.0518555 0.00333322 0)
(0.0505225 0.00333079 0)
(0.0491906 0.00332824 0)
(0.0478597 0.00332558 0)
(0.04653 0.00332283 0)
(0.0452013 0.00332 0)
(0.0438739 0.0033171 0)
(0.0425476 0.00331416 0)
(0.0412225 0.00331117 0)
(0.0398986 0.00330816 0)
(0.0385759 0.00330514 0)
(0.0372545 0.00330211 0)
(0.0359342 0.00329909 0)
(0.0346152 0.00329609 0)
(0.0332974 0.00329312 0)
(0.0319808 0.00329019 0)
(0.0306653 0.00328731 0)
(0.0293511 0.00328448 0)
(0.0280379 0.00328172 0)
(0.0267258 0.00327903 0)
(0.0254148 0.00327642 0)
(0.0241048 0.00327389 0)
(0.0227959 0.00327147 0)
(0.0214878 0.00326914 0)
(0.0201807 0.00326692 0)
(0.0188745 0.00326481 0)
(0.0175691 0.00326282 0)
(0.0162645 0.00326095 0)
(0.0149606 0.00325921 0)
(0.0136573 0.0032576 0)
(0.0123547 0.00325612 0)
(0.0110527 0.00325478 0)
(0.00975116 0.00325359 0)
(0.00845008 0.00325253 0)
(0.0071494 0.00325163 0)
(0.00584905 0.00325087 0)
(0.00454897 0.00325026 0)
(0.00324911 0.0032498 0)
(0.00194941 0.0032495 0)
(0.000649792 0.00324934 0)
(0.000713254 -0.00499411 0)
(0.00213981 -0.0049944 0)
(0.00356648 -0.00499499 0)
(0.00499338 -0.00499588 0)
(0.00642057 -0.00499705 0)
(0.00784814 -0.00499851 0)
(0.00927617 -0.00500026 0)
(0.0107048 -0.00500228 0)
(0.012134 -0.00500457 0)
(0.0135639 -0.00500713 0)
(0.0149945 -0.00500994 0)
(0.0164261 -0.00501301 0)
(0.0178585 -0.00501631 0)
(0.019292 -0.00501984 0)
(0.0207265 -0.00502359 0)
(0.0221621 -0.00502754 0)
(0.0235989 -0.00503169 0)
(0.0250369 -0.00503601 0)
(0.0264762 -0.00504049 0)
(0.0279169 -0.00504513 0)
(0.0293589 -0.00504989 0)
(0.0308022 -0.00505476 0)
(0.0322471 -0.00505972 0)
(0.0336933 -0.00506475 0)
(0.0351411 -0.00506984 0)
(0.0365903 -0.00507495 0)
(0.0380411 -0.00508006 0)
(0.0394933 -0.00508516 0)
(0.040947 -0.00509021 0)
(0.0424021 -0.00509518 0)
(0.0438588 -0.00510005 0)
(0.0453168 -0.0051048 0)
(0.0467762 -0.00510938 0)
(0.0482369 -0.00511377 0)
(0.0496989 -0.00511794 0)
(0.0511621 -0.00512184 0)
(0.0526264 -0.00512546 0)
(0.0540917 -0.00512874 0)
(0.055558 -0.00513166 0)
(0.0570251 -0.00513417 0)
(0.0584929 -0.00513623 0)
(0.0599612 -0.00513781 0)
(0.06143 -0.00513885 0)
(0.0628991 -0.00513933 0)
(0.0643683 -0.00513919 0)
(0.0658374 -0.00513839 0)
(0.0673062 -0.00513688 0)
(0.0687746 -0.00513461 0)
(0.0702423 -0.00513154 0)
(0.071709 -0.00512762 0)
(0.0731745 -0.0051228 0)
(0.0746386 -0.00511701 0)
(0.076101 -0.00511023 0)
(0.0775613 -0.00510238 0)
(0.0790193 -0.00509342 0)
(0.0804747 -0.0050833 0)
(0.081927 -0.00507196 0)
(0.083376 -0.00505934 0)
(0.0848213 -0.0050454 0)
(0.0862625 -0.00503007 0)
(0.0876991 -0.0050133 0)
(0.0891308 -0.00499504 0)
(0.0905572 -0.00497523 0)
(0.0919777 -0.00495381 0)
(0.093392 -0.00493075 0)
(0.0947994 -0.00490597 0)
(0.0961997 -0.00487943 0)
(0.0975921 -0.00485107 0)
(0.0989762 -0.00482085 0)
(0.100352 -0.00478871 0)
(0.101717 -0.00475462 0)
(0.103073 -0.00471851 0)
(0.104419 -0.00468035 0)
(0.105753 -0.00464009 0)
(0.107075 -0.0045977 0)
(0.108385 -0.00455312 0)
(0.109682 -0.00450634 0)
(0.110966 -0.00445731 0)
(0.112235 -0.004406 0)
(0.113489 -0.00435238 0)
(0.114728 -0.00429643 0)
(0.11595 -0.00423814 0)
(0.117155 -0.00417747 0)
(0.118343 -0.00411441 0)
(0.119512 -0.00404896 0)
(0.120662 -0.00398111 0)
(0.121793 -0.00391085 0)
(0.122903 -0.00383818 0)
(0.123992 -0.00376312 0)
(0.125059 -0.00368566 0)
(0.126104 -0.00360583 0)
(0.127125 -0.00352364 0)
(0.128123 -0.00343912 0)
(0.129096 -0.00335229 0)
(0.130044 -0.00326318 0)
(0.130966 -0.00317184 0)
(0.131862 -0.00307831 0)
(0.132731 -0.00298262 0)
(0.133571 -0.00288484 0)
(0.134384 -0.00278502 0)
(0.135168 -0.00268321 0)
(0.135922 -0.00257949 0)
(0.136646 -0.00247392 0)
(0.13734 -0.00236657 0)
(0.138003 -0.00225753 0)
(0.138634 -0.00214687 0)
(0.139233 -0.00203468 0)
(0.1398 -0.00192105 0)
(0.140334 -0.00180606 0)
(0.140835 -0.00168982 0)
(0.141303 -0.00157242 0)
(0.141736 -0.00145396 0)
(0.142136 -0.00133454 0)
(0.142501 -0.00121427 0)
(0.142831 -0.00109325 0)
(0.143127 -0.0009716 0)
(0.143388 -0.000849419 0)
(0.143614 -0.000726822 0)
(0.143804 -0.000603918 0)
(0.143959 -0.000480819 0)
(0.144079 -0.000357637 0)
(0.144163 -0.000234483 0)
(0.144213 -0.000111467 0)
(0.144226 1.12999e-05 0)
(0.144205 0.000133709 0)
(0.144149 0.000255653 0)
(0.144058 0.000377027 0)
(0.143932 0.000497725 0)
(0.143771 0.000617646 0)
(0.143577 0.000736691 0)
(0.143348 0.000854763 0)
(0.143086 0.000971767 0)
(0.14279 0.00108761 0)
(0.142461 0.00120221 0)
(0.1421 0.00131548 0)
(0.141706 0.00142734 0)
(0.141281 0.00153771 0)
(0.140824 0.00164651 0)
(0.140336 0.00175369 0)
(0.139817 0.00185916 0)
(0.139269 0.00196288 0)
(0.138691 0.00206478 0)
(0.138085 0.00216481 0)
(0.13745 0.00226292 0)
(0.136787 0.00235907 0)
(0.136097 0.00245321 0)
(0.13538 0.00254531 0)
(0.134637 0.00263533 0)
(0.133869 0.00272326 0)
(0.133076 0.00280905 0)
(0.132259 0.0028927 0)
(0.131418 0.00297418 0)
(0.130554 0.00305349 0)
(0.129668 0.0031306 0)
(0.12876 0.00320553 0)
(0.127831 0.00327826 0)
(0.126881 0.0033488 0)
(0.125912 0.00341715 0)
(0.124923 0.00348332 0)
(0.123916 0.00354733 0)
(0.122891 0.00360917 0)
(0.121848 0.00366887 0)
(0.120789 0.00372646 0)
(0.119714 0.00378194 0)
(0.118623 0.00383534 0)
(0.117517 0.00388669 0)
(0.116397 0.00393602 0)
(0.115263 0.00398336 0)
(0.114116 0.00402873 0)
(0.112956 0.00407217 0)
(0.111785 0.00411372 0)
(0.110601 0.0041534 0)
(0.109407 0.00419127 0)
(0.108202 0.00422734 0)
(0.106987 0.00426167 0)
(0.105762 0.0042943 0)
(0.104529 0.00432525 0)
(0.103287 0.00435459 0)
(0.102037 0.00438233 0)
(0.100779 0.00440854 0)
(0.099514 0.00443325 0)
(0.0982422 0.0044565 0)
(0.096964 0.00447834 0)
(0.0956798 0.00449881 0)
(0.09439 0.00451795 0)
(0.093095 0.00453581 0)
(0.0917951 0.00455242 0)
(0.0904907 0.00456784 0)
(0.0891821 0.00458209 0)
(0.0878697 0.00459523 0)
(0.0865537 0.0046073 0)
(0.0852344 0.00461834 0)
(0.0839122 0.00462838 0)
(0.0825873 0.00463747 0)
(0.08126 0.00464565 0)
(0.0799305 0.00465296 0)
(0.0785991 0.00465943 0)
(0.0772661 0.00466511 0)
(0.0759315 0.00467003 0)
(0.0745957 0.00467422 0)
(0.0732589 0.00467773 0)
(0.0719211 0.00468058 0)
(0.0705827 0.00468282 0)
(0.0692438 0.00468447 0)
(0.0679046 0.00468557 0)
(0.0665651 0.00468615 0)
(0.0652256 0.00468624 0)
(0.0638861 0.00468588 0)
(0.0625469 0.00468509 0)
(0.061208 0.0046839 0)
(0.0598695 0.00468234 0)
(0.0585315 0.00468044 0)
(0.0571942 0.00467822 0)
(0.0558575 0.00467571 0)
(0.0545217 0.00467294 0)
(0.0531867 0.00466993 0)
(0.0518526 0.0046667 0)
(0.0505195 0.00466328 0)
(0.0491875 0.00465968 0)
(0.0478565 0.00465594 0)
(0.0465266 0.00465207 0)
(0.0451979 0.00464809 0)
(0.0438704 0.00464402 0)
(0.042544 0.00463987 0)
(0.0412189 0.00463568 0)
(0.039895 0.00463145 0)
(0.0385723 0.0046272 0)
(0.0372508 0.00462294 0)
(0.0359306 0.0046187 0)
(0.0346116 0.00461449 0)
(0.0332939 0.00461032 0)
(0.0319773 0.0046062 0)
(0.0306619 0.00460215 0)
(0.0293477 0.00459818 0)
(0.0280346 0.0045943 0)
(0.0267226 0.00459052 0)
(0.0254117 0.00458686 0)
(0.0241019 0.00458332 0)
(0.022793 0.00457991 0)
(0.0214851 0.00457665 0)
(0.0201781 0.00457353 0)
(0.018872 0.00457057 0)
(0.0175668 0.00456778 0)
(0.0162623 0.00456515 0)
(0.0149586 0.00456271 0)
(0.0136555 0.00456045 0)
(0.012353 0.00455838 0)
(0.0110512 0.0045565 0)
(0.00974981 0.00455482 0)
(0.0084489 0.00455334 0)
(0.0071484 0.00455207 0)
(0.00584823 0.004551 0)
(0.00454833 0.00455015 0)
(0.00324865 0.00454951 0)
(0.00194913 0.00454908 0)
(0.0006497 0.00454887 0)
(0.000713084 -0.00642049 0)
(0.0021393 -0.00642087 0)
(0.00356564 -0.00642163 0)
(0.0049922 -0.00642277 0)
(0.00641905 -0.00642429 0)
(0.0078463 -0.00642617 0)
(0.00927401 -0.00642842 0)
(0.0107023 -0.00643103 0)
(0.0121312 -0.00643399 0)
(0.0135608 -0.00643729 0)
(0.0149912 -0.00644093 0)
(0.0164224 -0.00644488 0)
(0.0178546 -0.00644915 0)
(0.0192878 -0.00645371 0)
(0.0207221 -0.00645855 0)
(0.0221575 -0.00646365 0)
(0.023594 -0.00646901 0)
(0.0250319 -0.00647459 0)
(0.026471 -0.00648038 0)
(0.0279115 -0.00648637 0)
(0.0293533 -0.00649252 0)
(0.0307966 -0.00649882 0)
(0.0322413 -0.00650523 0)
(0.0336875 -0.00651174 0)
(0.0351352 -0.00651831 0)
(0.0365844 -0.00652493 0)
(0.0380352 -0.00653154 0)
(0.0394874 -0.00653814 0)
(0.0409412 -0.00654468 0)
(0.0423965 -0.00655112 0)
(0.0438532 -0.00655744 0)
(0.0453114 -0.00656359 0)
(0.046771 -0.00656953 0)
(0.0482319 -0.00657524 0)
(0.0496942 -0.00658065 0)
(0.0511577 -0.00658573 0)
(0.0526224 -0.00659044 0)
(0.0540881 -0.00659473 0)
(0.0555548 -0.00659854 0)
(0.0570224 -0.00660184 0)
(0.0584907 -0.00660456 0)
(0.0599597 -0.00660666 0)
(0.0614291 -0.00660808 0)
(0.0628988 -0.00660877 0)
(0.0643688 -0.00660867 0)
(0.0658386 -0.00660772 0)
(0.0673083 -0.00660586 0)
(0.0687776 -0.00660303 0)
(0.0702462 -0.00659916 0)
(0.0717139 -0.00659421 0)
(0.0731805 -0.00658809 0)
(0.0746457 -0.00658074 0)
(0.0761093 -0.00657211 0)
(0.0775708 -0.00656211 0)
(0.0790301 -0.00655069 0)
(0.0804869 -0.00653776 0)
(0.0819406 -0.00652327 0)
(0.0833911 -0.00650715 0)
(0.084838 -0.00648931 0)
(0.0862807 -0.0064697 0)
(0.0877191 -0.00644823 0)
(0.0891525 -0.00642484 0)
(0.0905807 -0.00639947 0)
(0.0920031 -0.00637203 0)
(0.0934192 -0.00634246 0)
(0.0948287 -0.00631069 0)
(0.096231 -0.00627666 0)
(0.0976255 -0.00624029 0)
(0.0990118 -0.00620152 0)
(0.100389 -0.00616028 0)
(0.101757 -0.00611652 0)
(0.103116 -0.00607018 0)
(0.104463 -0.00602118 0)
(0.1058 -0.0059695 0)
(0.107125 -0.00591505 0)
(0.108438 -0.00585781 0)
(0.109737 -0.00579771 0)
(0.111023 -0.00573472 0)
(0.112295 -0.0056688 0)
(0.113552 -0.00559991 0)
(0.114793 -0.00552802 0)
(0.116018 -0.00545309 0)
(0.117226 -0.00537511 0)
(0.118416 -0.00529406 0)
(0.119588 -0.00520992 0)
(0.120741 -0.00512269 0)
(0.121875 -0.00503235 0)
(0.122988 -0.00493892 0)
(0.124079 -0.00484239 0)
(0.125149 -0.00474278 0)
(0.126197 -0.0046401 0)
(0.127221 -0.00453439 0)
(0.128221 -0.00442567 0)
(0.129197 -0.00431398 0)
(0.130147 -0.00419935 0)
(0.131072 -0.00408184 0)
(0.13197 -0.0039615 0)
(0.132841 -0.00383839 0)
(0.133684 -0.00371258 0)
(0.134499 -0.00358413 0)
(0.135285 -0.00345313 0)
(0.136042 -0.00331965 0)
(0.136768 -0.00318379 0)
(0.137464 -0.00304565 0)
(0.138128 -0.00290531 0)
(0.138761 -0.00276289 0)
(0.139362 -0.00261849 0)
(0.139931 -0.00247224 0)
(0.140466 -0.00232423 0)
(0.140969 -0.00217461 0)
(0.141437 -0.00202349 0)
(0.141872 -0.00187101 0)
(0.142273 -0.00171729 0)
(0.142639 -0.00156248 0)
(0.14297 -0.0014067 0)
(0.143267 -0.0012501 0)
(0.143528 -0.00109283 0)
(0.143754 -0.000935011 0)
(0.143945 -0.000776801 0)
(0.1441 -0.00061834 0)
(0.14422 -0.000459772 0)
(0.144304 -0.000301241 0)
(0.144353 -0.00014289 0)
(0.144367 1.51397e-05 0)
(0.144345 0.000172707 0)
(0.144288 0.000329674 0)
(0.144196 0.000485903 0)
(0.144069 0.000641261 0)
(0.143908 0.000795616 0)
(0.143712 0.00094884 0)