/*--------------------------------*- C++ -*----------------------------------*\
| =========                 |                                                 |
| \\      /  F ield         | OpenFOAM: The Open Source CFD Toolbox           |
|  \\    /   O peration     | Version:  v2012                                 |
|   \\  /    A nd           | Website:  www.openfoam.com                      |
|    \\/     M anipulation  |                                                 |
\*---------------------------------------------------------------------------*/
FoamFile
{
    version     2.0;
    format      ascii;
    class       volScalarField;
    location    "13.5";
    object      W;
}
// * * * * * * * * * * * * * * * * * * * * * * * * * * * * * * * * * * * * * //

dimensions      [0 0 -1 0 0 0 0];


internalField   nonuniform List<scalar> 
65536
(
1.06226e-15
1.08383e-15
1.12794e-15
1.19532e-15
1.2871e-15
1.40483e-15
1.55047e-15
1.72645e-15
1.93569e-15
2.18163e-15
2.4683e-15
2.80036e-15
3.18316e-15
3.6228e-15
4.12624e-15
4.70135e-15
5.35703e-15
6.10331e-15
6.95146e-15
7.91413e-15
9.00549e-15
1.02414e-14
1.16395e-14
1.32196e-14
1.50036e-14
1.70159e-14
1.92837e-14
2.1837e-14
2.4709e-14
2.79367e-14
3.15606e-14
3.56256e-14
4.0181e-14
4.52812e-14
5.09858e-14
5.73603e-14
6.44762e-14
7.24121e-14
8.12533e-14
9.10934e-14
1.02034e-13
1.14185e-13
1.27667e-13
1.42609e-13
1.59151e-13
1.77446e-13
1.97657e-13
2.1996e-13
2.44542e-13
2.71607e-13
3.01371e-13
3.34065e-13
3.69936e-13
4.09244e-13
4.52268e-13
4.99302e-13
5.50656e-13
6.06657e-13
6.67649e-13
7.33993e-13
8.06065e-13
8.84259e-13
9.68984e-13
1.06066e-12
1.15973e-12
1.26665e-12
1.38187e-12
1.50587e-12
1.63914e-12
1.78216e-12
1.93544e-12
2.09946e-12
2.27474e-12
2.46177e-12
2.66104e-12
2.87304e-12
3.09825e-12
3.33712e-12
3.59009e-12
3.8576e-12
4.14004e-12
4.43776e-12
4.75111e-12
5.08038e-12
5.42583e-12
5.78766e-12
6.16604e-12
6.56108e-12
6.97282e-12
7.40127e-12
7.84635e-12
8.30793e-12
8.7858e-12
9.27969e-12
9.78926e-12
1.03141e-11
1.08537e-11
1.14074e-11
1.19748e-11
1.25549e-11
1.31471e-11
1.37504e-11
1.4364e-11
1.49868e-11
1.56177e-11
1.62555e-11
1.68992e-11
1.75473e-11
1.81986e-11
1.88517e-11
1.95052e-11
2.01575e-11
2.08073e-11
2.14528e-11
2.20927e-11
2.27251e-11
2.33486e-11
2.39614e-11
2.45619e-11
2.51484e-11
2.57191e-11
2.62725e-11
2.68067e-11
2.73201e-11
2.7811e-11
2.82776e-11
2.87183e-11
2.91315e-11
2.95153e-11
2.98683e-11
3.01888e-11
3.04752e-11
3.07259e-11
3.09395e-11
3.11145e-11
3.12494e-11
3.13429e-11
3.13938e-11
3.14007e-11
3.13627e-11
3.12786e-11
3.11476e-11
3.0969e-11
3.0742e-11
3.04663e-11
3.01416e-11
2.97677e-11
2.93449e-11
2.88735e-11
2.83541e-11
2.77876e-11
2.71752e-11
2.65184e-11
2.58189e-11
2.50789e-11
2.43008e-11
2.34873e-11
2.26416e-11
2.1767e-11
2.08671e-11
1.9946e-11
1.9008e-11
1.80573e-11
1.70987e-11
1.61369e-11
1.51767e-11
1.42232e-11
1.3281e-11
1.2355e-11
1.145e-11
1.05702e-11
9.72005e-12
8.90329e-12
8.12352e-12
7.38388e-12
6.68707e-12
6.03534e-12
5.43044e-12
4.87364e-12
4.36569e-12
3.90685e-12
3.49691e-12
3.13517e-12
2.82051e-12
2.55136e-12
2.32579e-12
2.14152e-12
1.99592e-12
1.88611e-12
1.80893e-12
1.76103e-12
1.73887e-12
1.73877e-12
1.75695e-12
1.7896e-12
1.8329e-12
1.88308e-12
1.93647e-12
1.98959e-12
2.03917e-12
2.08225e-12
2.1162e-12
2.13882e-12
2.14833e-12
2.14346e-12
2.12342e-12
2.08794e-12
2.03727e-12
1.97209e-12
1.89355e-12
1.80312e-12
1.70261e-12
1.59404e-12
1.47954e-12
1.36132e-12
1.24154e-12
1.12226e-12
1.00538e-12
8.92568e-13
7.85229e-13
6.84495e-13
5.91205e-13
5.05913e-13
4.28904e-13
3.60222e-13
2.99699e-13
2.46992e-13
2.01626e-13
1.63025e-13
1.30553e-13
1.03545e-13
8.13321e-14
6.32657e-14
4.87338e-14
3.71733e-14
2.80773e-14
2.09984e-14
1.55492e-14
1.14e-14
8.27484e-15
5.94645e-15
4.23041e-15
2.97933e-15
2.07706e-15
1.43338e-15
9.79134e-16
6.62038e-16
4.43088e-16
2.93569e-16
1.92618e-16
1.25282e-16
8.10023e-17
5.24479e-17
3.46508e-17
2.43762e-17
1.96904e-17
1.59422e-15
1.62658e-15
1.69282e-15
1.79403e-15
1.9319e-15
2.10877e-15
2.32758e-15
2.592e-15
2.90643e-15
3.27605e-15
3.70693e-15
4.20609e-15
4.7816e-15
5.44266e-15
6.19976e-15
7.06476e-15
8.05108e-15
9.17384e-15
1.045e-14
1.18988e-14
1.35414e-14
1.54018e-14
1.75067e-14
1.98858e-14
2.25722e-14
2.56028e-14
2.90184e-14
3.28643e-14
3.71908e-14
4.20532e-14
4.75127e-14
5.3637e-14
6.05003e-14
6.81842e-14
7.67786e-14
8.63818e-14
9.71013e-14
1.09055e-13
1.22371e-13
1.37189e-13
1.53661e-13
1.71952e-13
1.92242e-13
2.14724e-13
2.39606e-13
2.67115e-13
2.97494e-13
3.31002e-13
3.67919e-13
4.08543e-13
4.53195e-13
5.02212e-13
5.55957e-13
6.14812e-13
6.79181e-13
7.49493e-13
8.26195e-13
9.0976e-13
1.00068e-12
1.09948e-12
1.20668e-12
1.32284e-12
1.44855e-12
1.58439e-12
1.73097e-12
1.88892e-12
2.05886e-12
2.24145e-12
2.43732e-12
2.64714e-12
2.87156e-12
3.11121e-12
3.36675e-12
3.6388e-12
3.92796e-12
4.23483e-12
4.55995e-12
4.90386e-12
5.26705e-12
5.64995e-12
6.05296e-12
6.47642e-12
6.92061e-12
7.38573e-12
7.87193e-12
8.37927e-12
8.90773e-12
9.45721e-12
1.00275e-11
1.06184e-11
1.12293e-11
1.186e-11
1.25098e-11
1.31779e-11
1.38637e-11
1.45662e-11
1.52845e-11
1.60173e-11
1.67637e-11
1.75222e-11
1.82916e-11
1.90703e-11
1.98568e-11
2.06495e-11
2.14468e-11
2.22468e-11
2.30478e-11
2.38479e-11
2.46453e-11
2.5438e-11
2.6224e-11
2.70014e-11
2.77681e-11
2.85223e-11
2.92618e-11
2.99848e-11
3.06891e-11
3.1373e-11
3.20343e-11
3.26713e-11
3.3282e-11
3.38647e-11
3.44174e-11
3.49384e-11
3.54261e-11
3.58787e-11
3.62946e-11
3.66722e-11
3.70101e-11
3.73067e-11
3.75606e-11
3.77705e-11
3.79351e-11
3.80532e-11
3.81236e-11
3.81452e-11
3.81172e-11
3.80384e-11
3.79082e-11
3.77259e-11
3.74909e-11
3.72028e-11
3.68612e-11
3.6466e-11
3.60174e-11
3.55154e-11
3.49605e-11
3.43535e-11
3.36952e-11
3.29868e-11
3.22298e-11
3.14258e-11
3.05769e-11
2.96854e-11
2.87541e-11
2.77858e-11
2.6784e-11
2.57522e-11
2.46943e-11
2.36146e-11
2.25175e-11
2.14077e-11
2.02901e-11
1.91698e-11
1.80519e-11
1.69417e-11
1.58442e-11
1.47648e-11
1.37084e-11
1.26799e-11
1.16838e-11
1.07245e-11
9.80596e-12
8.93165e-12
8.10467e-12
7.32765e-12
6.60269e-12
5.93134e-12
5.31465e-12
4.75313e-12
4.24675e-12
3.79498e-12
3.39678e-12
3.0507e-12
2.7548e-12
2.50678e-12
2.30399e-12
2.14344e-12
2.02185e-12
1.93571e-12
1.88131e-12
1.85474e-12
1.852e-12
1.86899e-12
1.90158e-12
1.94565e-12
1.99715e-12
2.05217e-12
2.10699e-12
2.15814e-12
2.20246e-12
2.23719e-12
2.25999e-12
2.269e-12
2.26287e-12
2.24079e-12
2.2025e-12
2.14824e-12
2.07877e-12
1.99529e-12
1.89938e-12
1.79294e-12
1.67809e-12
1.5571e-12
1.43227e-12
1.3059e-12
1.18013e-12
1.05695e-12
9.38124e-13
8.25112e-13
7.19099e-13
6.20957e-13
5.31261e-13
4.50303e-13
3.78121e-13
3.14531e-13
2.59169e-13
2.11529e-13
1.71004e-13
1.36921e-13
1.08579e-13
8.52732e-14
6.63218e-14
5.10809e-14
3.89586e-14
2.94221e-14
2.20015e-14
1.62901e-14
1.19419e-14
8.66723e-15
6.22779e-15
4.43013e-15
3.1197e-15
2.17473e-15
1.50066e-15
1.02501e-15
6.93002e-16
4.63778e-16
3.07256e-16
2.01585e-16
1.31106e-16
8.47627e-17
5.48793e-17
3.62549e-17
2.55032e-17
2.06004e-17
2.89336e-15
2.95213e-15
3.07247e-15
3.25637e-15
3.50692e-15
3.82834e-15
4.22605e-15
4.7067e-15
5.27832e-15
5.95037e-15
6.73393e-15
7.6418e-15
8.68869e-15
9.89142e-15
1.12691e-14
1.28434e-14
1.46389e-14
1.66831e-14
1.9007e-14
2.16456e-14
2.46379e-14
2.80274e-14
3.1863e-14
3.6199e-14
4.10958e-14
4.66208e-14
5.28484e-14
5.98615e-14
6.77516e-14
7.66199e-14
8.65781e-14
9.77494e-14
1.10269e-13
1.24286e-13
1.39964e-13
1.57482e-13
1.77035e-13
1.98837e-13
2.23122e-13
2.50142e-13
2.80174e-13
3.13516e-13
3.50492e-13
3.9145e-13
4.36769e-13
4.86854e-13
5.42141e-13
6.03096e-13
6.7022e-13
7.44045e-13
8.25138e-13
9.14104e-13
1.01158e-12
1.11824e-12
1.2348e-12
1.362e-12
1.50062e-12
1.6515e-12
1.81547e-12
1.99342e-12
2.18628e-12
2.39497e-12
2.62047e-12
2.86378e-12
3.12589e-12
3.40784e-12
3.71064e-12
4.03533e-12
4.38294e-12
4.75449e-12
5.15097e-12
5.57335e-12
6.02259e-12
6.49956e-12
7.00513e-12
7.54006e-12
8.10507e-12
8.70079e-12
9.32776e-12
9.98641e-12
1.06771e-11
1.14e-11
1.21551e-11
1.29425e-11
1.37619e-11
1.4613e-11
1.54952e-11
1.64078e-11
1.735e-11
1.83208e-11
1.93189e-11
2.03429e-11
2.13914e-11
2.24625e-11
2.35544e-11
2.46651e-11
2.57922e-11
2.69334e-11
2.80863e-11
2.92482e-11
3.04163e-11
3.15878e-11
3.27598e-11
3.39292e-11
3.5093e-11
3.62481e-11
3.73913e-11
3.85195e-11
3.96295e-11
4.07182e-11
4.17826e-11
4.28195e-11
4.3826e-11
4.47991e-11
4.57362e-11
4.66344e-11
4.74911e-11
4.83039e-11
4.90704e-11
4.97883e-11
5.04554e-11
5.10699e-11
5.16299e-11
5.21336e-11
5.25795e-11
5.29661e-11
5.32921e-11
5.35564e-11
5.37578e-11
5.38955e-11
5.39687e-11
5.39767e-11
5.39188e-11
5.37948e-11
5.36042e-11
5.33469e-11
5.30228e-11
5.26319e-11
5.21745e-11
5.16507e-11
5.10612e-11
5.04066e-11
4.96875e-11
4.8905e-11
4.80603e-11
4.71546e-11
4.61897e-11
4.51672e-11
4.40893e-11
4.29582e-11
4.17767e-11
4.05476e-11
3.92741e-11
3.79596e-11
3.66082e-11
3.52237e-11
3.38107e-11
3.23739e-11
3.09183e-11
2.94492e-11
2.79719e-11
2.64921e-11
2.50157e-11
2.35484e-11
2.20963e-11
2.06652e-11
1.9261e-11
1.78893e-11
1.65555e-11
1.52649e-11
1.40223e-11
1.28322e-11
1.16984e-11
1.06245e-11
9.6134e-12
8.66745e-12
7.7884e-12
6.97739e-12
6.23496e-12
5.56104e-12
4.95497e-12
4.41554e-12
3.94101e-12
3.52915e-12
3.17728e-12
2.8823e-12
2.64076e-12
2.44889e-12
2.30262e-12
2.19768e-12
2.12958e-12
2.09371e-12
2.08534e-12
2.09969e-12
2.13199e-12
2.17751e-12
2.23163e-12
2.2899e-12
2.34814e-12
2.40243e-12
2.44925e-12
2.48553e-12
2.50865e-12
2.51658e-12
2.50784e-12
2.48155e-12
2.43744e-12
2.37581e-12
2.29752e-12
2.2039e-12
2.09673e-12
1.97811e-12
1.85039e-12
1.71607e-12
1.57771e-12
1.43779e-12
1.29871e-12
1.16263e-12
1.03147e-12
9.06832e-13
7.89997e-13
6.81912e-13
5.83191e-13
4.94139e-13
4.14785e-13
3.44913e-13
2.84111e-13
2.31814e-13
1.87345e-13
1.49962e-13
1.18887e-13
9.33443e-14
7.25806e-14
5.58877e-14
4.26145e-14
3.21758e-14
2.40554e-14
1.78071e-14
1.30513e-14
9.47068e-15
6.80386e-15
4.83907e-15
3.4071e-15
2.3747e-15
1.63839e-15
1.11892e-15
7.56394e-16
5.06135e-16
3.35276e-16
2.19942e-16
1.43029e-16
9.24601e-17
5.98563e-17
3.95384e-17
2.78101e-17
2.24623e-17
5.51859e-15
5.63082e-15
5.86065e-15
6.21188e-15
6.69046e-15
7.30446e-15
8.06426e-15
8.98263e-15
1.00749e-14
1.13593e-14
1.28571e-14
1.45927e-14
1.65945e-14
1.88946e-14
2.15298e-14
2.45417e-14
2.79772e-14
3.18895e-14
3.6338e-14
4.13897e-14
4.71196e-14
5.36114e-14
6.09588e-14
6.92662e-14
7.86496e-14
8.92383e-14
1.01175e-13
1.1462e-13
1.29748e-13
1.46753e-13
1.6585e-13
1.87276e-13
2.11289e-13
2.38176e-13
2.68249e-13
3.01852e-13
3.39359e-13
3.81179e-13
4.27757e-13
4.79579e-13
5.3717e-13
6.011e-13
6.71985e-13
7.5049e-13
8.37332e-13
9.3328e-13
1.03916e-12
1.15585e-12
1.2843e-12
1.42552e-12
1.58056e-12
1.75055e-12
1.9367e-12
2.14026e-12
2.36255e-12
2.60495e-12
2.86891e-12
3.15593e-12
3.46756e-12
3.80543e-12
4.17118e-12
4.5665e-12
4.99313e-12
5.45281e-12
5.94732e-12
6.47844e-12
7.04792e-12
7.65753e-12
8.30898e-12
9.00395e-12
9.74406e-12
1.05308e-11
1.13657e-11
1.225e-11
1.3185e-11
1.41717e-11
1.52109e-11
1.63034e-11
1.74496e-11
1.86499e-11
1.99042e-11
2.12124e-11
2.25738e-11
2.39878e-11
2.54531e-11
2.69685e-11
2.85321e-11
3.01421e-11
3.17959e-11
3.34908e-11
3.5224e-11
3.6992e-11
3.87911e-11
4.06175e-11
4.2467e-11
4.4335e-11
4.62168e-11
4.81074e-11
5.00019e-11
5.18947e-11
5.37805e-11
5.56538e-11
5.7509e-11
5.93403e-11
6.11422e-11
6.2909e-11
6.46352e-11
6.63153e-11
6.7944e-11
6.95162e-11
7.10268e-11
7.24712e-11
7.38448e-11
7.51434e-11
7.63629e-11
7.74997e-11
7.85505e-11
7.95121e-11
8.03818e-11
8.11572e-11
8.18361e-11
8.24169e-11
8.28981e-11
8.32785e-11
8.35572e-11
8.37337e-11
8.38077e-11
8.37792e-11
8.36484e-11
8.34158e-11
8.3082e-11
8.26481e-11
8.21149e-11
8.1484e-11
8.07566e-11
7.99345e-11
7.90193e-11
7.80132e-11
7.69182e-11
7.57365e-11
7.44706e-11
7.3123e-11
7.16966e-11
7.01942e-11
6.8619e-11
6.69743e-11
6.52637e-11
6.34909e-11
6.16598e-11
5.97748e-11
5.78404e-11
5.58614e-11
5.38427e-11
5.17898e-11
4.97082e-11
4.76038e-11
4.54829e-11
4.33516e-11
4.12167e-11
3.9085e-11
3.69632e-11
3.48586e-11
3.2778e-11
3.07287e-11
2.87176e-11
2.67514e-11
2.48369e-11
2.29804e-11
2.11879e-11
1.94648e-11
1.78163e-11
1.62469e-11
1.47604e-11
1.336e-11
1.20482e-11
1.08269e-11
9.69715e-12
8.65926e-12
7.71284e-12
6.85683e-12
6.08947e-12
5.40837e-12
4.81059e-12
4.29262e-12
3.85048e-12
3.4798e-12
3.1758e-12
2.93341e-12
2.74729e-12
2.61192e-12
2.52159e-12
2.47049e-12
2.45276e-12
2.46254e-12
2.49403e-12
2.5415e-12
2.59946e-12
2.6626e-12
2.72598e-12
2.78501e-12
2.83559e-12
2.87413e-12
2.89764e-12
2.90376e-12
2.89083e-12
2.85785e-12
2.80456e-12
2.73133e-12
2.63916e-12
2.52965e-12
2.40482e-12
2.26713e-12
2.11927e-12
1.96411e-12
1.80457e-12
1.64351e-12
1.48364e-12
1.32741e-12
1.17699e-12
1.03421e-12
9.00489e-13
7.76894e-13
6.64098e-13
5.62428e-13
4.71893e-13
3.9223e-13
3.22951e-13
2.63398e-13
2.12788e-13
1.70264e-13
1.34934e-13
1.05906e-13
8.23208e-14
6.33674e-14
4.8303e-14
3.64601e-14
2.72508e-14
2.0167e-14
1.47771e-14
1.07203e-14
7.69978e-15
5.47502e-15
3.85403e-15
2.68564e-15
1.85256e-15
1.26495e-15
8.5495e-16
5.71984e-16
3.78834e-16
2.48477e-16
1.61561e-16
1.04425e-16
6.75921e-17
4.46419e-17
3.13955e-17
2.53558e-17
1.05594e-14
1.07745e-14
1.12149e-14
1.1888e-14
1.28052e-14
1.39821e-14
1.54386e-14
1.71993e-14
1.92937e-14
2.17568e-14
2.46295e-14
2.7959e-14
3.17997e-14
3.62138e-14
4.12717e-14
4.70538e-14
5.36506e-14
6.11642e-14
6.97094e-14
7.94153e-14
9.04263e-14
1.02904e-13
1.17029e-13
1.33002e-13
1.51048e-13
1.71415e-13
1.9438e-13
2.20249e-13
2.49361e-13
2.82091e-13
3.18852e-13
3.60099e-13
4.06333e-13
4.58103e-13
5.16014e-13
5.80724e-13
6.52955e-13
7.33494e-13
8.23196e-13
9.22992e-13
1.03389e-12
1.15699e-12
1.29346e-12
1.44458e-12
1.61172e-12
1.79635e-12
2.00004e-12
2.22447e-12
2.47144e-12
2.74285e-12
3.04071e-12
3.36717e-12
3.72446e-12
4.11496e-12
4.54114e-12
5.00558e-12
5.51097e-12
6.06009e-12
6.65582e-12
7.30112e-12
7.99899e-12
8.75254e-12
9.56485e-12
1.04391e-11
1.13784e-11
1.23858e-11
1.34645e-11
1.46175e-11
1.58476e-11
1.71577e-11
1.85503e-11
2.00278e-11
2.15926e-11
2.32465e-11
2.49911e-11
2.68278e-11
2.87574e-11
3.07806e-11
3.28974e-11
3.51074e-11
3.74097e-11
3.98029e-11
4.22851e-11
4.48536e-11
4.75054e-11
5.02366e-11
5.3043e-11
5.59196e-11
5.88607e-11
6.18602e-11
6.49113e-11
6.80067e-11
7.11385e-11
7.42984e-11
7.74775e-11
8.06667e-11
8.38564e-11
8.70367e-11
9.01974e-11
9.33285e-11
9.64194e-11
9.94597e-11
1.02439e-10
1.05347e-10
1.08174e-10
1.1091e-10
1.13545e-10
1.1607e-10
1.18476e-10
1.20756e-10
1.22901e-10
1.24904e-10
1.26759e-10
1.28459e-10
1.30001e-10
1.31378e-10
1.32588e-10
1.33627e-10
1.34492e-10
1.35182e-10
1.35696e-10
1.36034e-10
1.36194e-10
1.3618e-10
1.3599e-10
1.35628e-10
1.35096e-10
1.34397e-10
1.33533e-10
1.32509e-10
1.31329e-10
1.29996e-10
1.28515e-10
1.26891e-10
1.25129e-10
1.23233e-10
1.21211e-10
1.19066e-10
1.16804e-10
1.14432e-10
1.11955e-10
1.09378e-10
1.06709e-10
1.03952e-10
1.01116e-10
9.82049e-11
9.52266e-11
9.21876e-11
8.90949e-11
8.59555e-11
8.27766e-11
7.95659e-11
7.63309e-11
7.30796e-11
6.98201e-11
6.65606e-11
6.33095e-11
6.00755e-11
5.68671e-11
5.36932e-11
5.05624e-11
4.74836e-11
4.44652e-11
4.15159e-11
3.86437e-11
3.58565e-11
3.31617e-11
3.05664e-11
2.8077e-11
2.56991e-11
2.34378e-11
2.12973e-11
1.92811e-11
1.73918e-11
1.56309e-11
1.39992e-11
1.24966e-11
1.1122e-11
9.87343e-12
8.74817e-12
7.74269e-12
6.85277e-12
6.07351e-12
5.39947e-12
4.82469e-12
4.34279e-12
3.94703e-12
3.6304e-12
3.38564e-12
3.20537e-12
3.08206e-12
3.00818e-12
2.97621e-12
2.9787e-12
3.00833e-12
3.05799e-12
3.12086e-12
3.19046e-12
3.26072e-12
3.32612e-12
3.38169e-12
3.42316e-12
3.44695e-12
3.45029e-12
3.43122e-12
3.38861e-12
3.32218e-12
3.23242e-12
3.12056e-12
2.9885e-12
2.83868e-12
2.67401e-12
2.4977e-12
2.31312e-12
2.12371e-12
1.93282e-12
1.74364e-12
1.55902e-12
1.3815e-12
1.21317e-12
1.0557e-12
9.10292e-13
7.77707e-13
6.583e-13
5.52054e-13
4.58635e-13
3.77451e-13
3.07708e-13
2.48476e-13
1.98737e-13
1.57435e-13
1.23519e-13
9.59755e-14
7.38518e-14
5.62756e-14
4.24638e-14
3.1728e-14
2.34733e-14
1.71947e-14
1.24707e-14
8.95461e-15
6.36566e-15
4.47987e-15
3.12103e-15
2.15241e-15
1.46937e-15
9.92918e-16
6.6416e-16
4.39802e-16
2.88415e-16
1.87497e-16
1.21169e-16
7.84176e-17
5.17833e-17
3.64122e-17
2.94043e-17
2.00223e-14
2.04308e-14
2.12674e-14
2.25461e-14
2.42886e-14
2.65245e-14
2.9292e-14
3.26379e-14
3.66186e-14
4.13008e-14
4.67625e-14
5.30939e-14
6.03988e-14
6.87958e-14
7.84198e-14
8.94239e-14
1.01981e-13
1.16287e-13
1.3256e-13
1.51048e-13
1.72026e-13
1.95804e-13
2.22726e-13
2.53178e-13
2.87588e-13
3.26433e-13
3.7024e-13
4.19596e-13
4.7515e-13
5.37618e-13
6.0779e-13
6.86537e-13
7.74818e-13
8.73682e-13
9.84283e-13
1.10788e-12
1.24585e-12
1.3997e-12
1.57106e-12
1.76171e-12
1.97356e-12
2.2087e-12
2.46938e-12
2.75802e-12
3.07721e-12
3.42975e-12
3.81861e-12
4.24699e-12
4.71825e-12
5.23601e-12
5.80404e-12
6.42637e-12
7.10721e-12
7.85098e-12
8.6623e-12
9.54595e-12
1.05069e-11
1.15504e-11
1.26816e-11
1.39059e-11
1.52289e-11
1.66561e-11
1.81931e-11
1.98456e-11
2.1619e-11
2.35187e-11
2.55503e-11
2.77186e-11
3.00287e-11
3.2485e-11
3.50918e-11
3.78528e-11
4.07712e-11
4.38498e-11
4.70904e-11
5.04945e-11
5.40625e-11
5.77941e-11
6.16881e-11
6.57423e-11
6.99536e-11
7.43176e-11
7.8829e-11
8.34814e-11
8.8267e-11
9.31772e-11
9.8202e-11
1.0333e-10
1.0855e-10
1.13848e-10
1.1921e-10
1.2462e-10
1.30063e-10
1.35522e-10
1.40978e-10
1.46415e-10
1.51813e-10
1.57153e-10
1.62417e-10
1.67584e-10
1.72636e-10
1.77554e-10
1.82319e-10
1.86914e-10
1.91319e-10
1.9552e-10
1.995e-10
2.03244e-10
2.06739e-10
2.09971e-10
2.12931e-10
2.15606e-10
2.1799e-10
2.20075e-10
2.21854e-10
2.23324e-10
2.24481e-10
2.25325e-10
2.25854e-10
2.2607e-10
2.25976e-10
2.25574e-10
2.24869e-10
2.23868e-10
2.22576e-10
2.21001e-10
2.19152e-10
2.17037e-10
2.14667e-10
2.1205e-10
2.09198e-10
2.06122e-10
2.02832e-10
1.9934e-10
1.95657e-10
1.91796e-10
1.87767e-10
1.83582e-10
1.79253e-10
1.74791e-10
1.70209e-10
1.65517e-10
1.60726e-10
1.55849e-10
1.50895e-10
1.45877e-10
1.40805e-10
1.35691e-10
1.30545e-10
1.25379e-10
1.20203e-10
1.15029e-10
1.09868e-10
1.0473e-10
9.96282e-11
9.45721e-11
8.95736e-11
8.46435e-11
7.97931e-11
7.50332e-11
7.03746e-11
6.58277e-11
6.14027e-11
5.71094e-11
5.2957e-11
4.89541e-11
4.51087e-11
4.14281e-11
3.79186e-11
3.45857e-11
3.14337e-11
2.8466e-11
2.56849e-11
2.30915e-11
2.06857e-11
1.84663e-11
1.64312e-11
1.45767e-11
1.28985e-11
1.13912e-11
1.00485e-11
8.86338e-12
7.82795e-12
6.93387e-12
6.17224e-12
5.53378e-12
5.00887e-12
4.58766e-12
4.26019e-12
4.01638e-12
3.84618e-12
3.7396e-12
3.68678e-12
3.67806e-12
3.70405e-12
3.75569e-12
3.82435e-12
3.9019e-12
3.9808e-12
4.05419e-12
4.11597e-12
4.1609e-12
4.18465e-12
4.18387e-12
4.15622e-12
4.10037e-12
4.01603e-12
3.90383e-12
3.76532e-12
3.60283e-12
3.41935e-12
3.21839e-12
3.00383e-12
2.77974e-12
2.55026e-12
2.3194e-12
2.09094e-12
1.86832e-12
1.65452e-12
1.45204e-12
1.26281e-12
1.08824e-12
9.29224e-13
7.86131e-13
6.58912e-13
5.47137e-13
4.50069e-13
3.66738e-13
2.9601e-13
2.36654e-13
1.87394e-13
1.46965e-13
1.14149e-13
8.78036e-14
6.68831e-14
5.04508e-14
3.76833e-14
2.78704e-14
2.04096e-14
1.47981e-14
1.06228e-14
7.54955e-15
5.3117e-15
3.69965e-15
2.55087e-15
1.741e-15
1.17622e-15
7.86616e-16
5.20792e-16
3.41465e-16
2.21946e-16
1.43407e-16
9.2794e-17
6.12665e-17
4.30736e-17
3.47798e-17
3.75101e-14
3.8277e-14
3.98475e-14
4.22479e-14
4.55193e-14
4.97175e-14
5.49143e-14
6.11982e-14
6.86754e-14
7.74719e-14
8.77347e-14
9.96341e-14
1.13366e-13
1.29154e-13
1.47253e-13
1.67953e-13
1.91579e-13
2.18502e-13
2.49135e-13
2.83944e-13
3.23453e-13
3.68245e-13
4.18972e-13
4.76364e-13
5.4123e-13
6.14471e-13
6.97089e-13
7.90191e-13
8.95005e-13
1.01289e-12
1.14533e-12
1.29399e-12
1.46067e-12
1.64737e-12
1.85625e-12
2.08971e-12
2.35035e-12
2.64101e-12
2.96478e-12
3.325e-12
3.7253e-12
4.16962e-12
4.66218e-12
5.20755e-12
5.81061e-12
6.4766e-12
7.21113e-12
8.02016e-12
8.91002e-12
9.88744e-12
1.09595e-11
1.21337e-11
1.34178e-11
1.48201e-11
1.6349e-11
1.80135e-11
1.98226e-11
2.17859e-11
2.39129e-11
2.62134e-11
2.86975e-11
3.13749e-11
3.42559e-11
3.73502e-11
4.06675e-11
4.42174e-11
4.8009e-11
5.20508e-11
5.63509e-11
6.09167e-11
6.57547e-11
7.08705e-11
7.62685e-11
8.19521e-11
8.79232e-11
9.41823e-11
1.00728e-10
1.07558e-10
1.14668e-10
1.2205e-10
1.29697e-10
1.37598e-10
1.45741e-10
1.54109e-10
1.62687e-10
1.71456e-10
1.80394e-10
1.89477e-10
1.98682e-10
2.0798e-10
2.17342e-10
2.26739e-10
2.36139e-10
2.45508e-10
2.54813e-10
2.64019e-10
2.7309e-10
2.81992e-10
2.90689e-10
2.99145e-10
3.07327e-10
3.15201e-10
3.22735e-10
3.29898e-10
3.3666e-10
3.42994e-10
3.48874e-10
3.54279e-10
3.59187e-10
3.63581e-10
3.67445e-10
3.70766e-10
3.73536e-10
3.75746e-10
3.77395e-10
3.78479e-10
3.79e-10
3.78963e-10
3.78374e-10
3.77242e-10
3.75578e-10
3.73395e-10
3.70708e-10
3.67535e-10
3.63892e-10
3.59799e-10
3.55277e-10
3.50347e-10
3.45032e-10
3.39353e-10
3.33335e-10
3.26999e-10
3.2037e-10
3.1347e-10
3.06323e-10
2.98951e-10
2.91376e-10
2.83622e-10
2.75709e-10
2.67658e-10
2.5949e-10
2.51224e-10
2.42881e-10
2.34478e-10
2.26035e-10
2.17569e-10
2.09097e-10
2.00636e-10
1.92203e-10
1.83813e-10
1.75484e-10
1.67229e-10
1.59065e-10
1.51005e-10
1.43065e-10
1.35259e-10
1.27601e-10
1.20105e-10
1.12783e-10
1.05648e-10
9.87143e-11
9.19918e-11
8.54924e-11
7.92263e-11
7.32033e-11
6.74318e-11
6.19197e-11
5.66733e-11
5.1698e-11
4.69979e-11
4.25755e-11
3.8432e-11
3.45674e-11
3.09798e-11
2.76662e-11
2.46221e-11
2.18415e-11
1.93171e-11
1.70407e-11
1.50027e-11
1.31925e-11
1.15987e-11
1.02094e-11
9.01173e-12
7.9926e-12
7.1385e-12
6.43572e-12
5.87043e-12
5.4288e-12
5.09705e-12
4.86159e-12
4.70905e-12
4.62637e-12
4.60087e-12
4.62034e-12
4.67309e-12
4.74807e-12
4.83495e-12
4.9242e-12
5.0072e-12
5.07635e-12
5.12513e-12
5.14821e-12
5.14147e-12
5.10209e-12
5.02849e-12
4.92034e-12
4.77849e-12
4.60489e-12
4.40244e-12
4.17482e-12
3.92636e-12
3.6618e-12
3.38613e-12
3.10437e-12
2.8214e-12
2.5418e-12
2.26971e-12
2.00872e-12
1.76182e-12
1.53132e-12
1.31889e-12
1.12555e-12
9.51723e-13
7.97299e-13
6.61722e-13
5.44066e-13
4.43128e-13
3.5751e-13
2.85699e-13
2.26137e-13
1.7728e-13
1.37642e-13
1.05836e-13
8.05905e-14
6.07698e-14
4.53762e-14
3.35496e-14
2.45611e-14
1.78031e-14
1.27764e-14
9.07774e-15
6.3853e-15
4.44636e-15
3.06501e-15
2.09146e-15
1.4127e-15
9.44577e-16
6.25255e-16
4.09884e-16
2.66371e-16
1.72083e-16
1.11331e-16
7.34934e-17
5.16617e-17
4.17097e-17
6.93807e-14
7.08025e-14
7.3714e-14
7.81643e-14
8.42297e-14
9.20145e-14
1.01652e-13
1.13308e-13
1.27179e-13
1.435e-13
1.62546e-13
1.84635e-13
2.1013e-13
2.3945e-13
2.7307e-13
3.11529e-13
3.55439e-13
4.05486e-13
4.62446e-13
5.2719e-13
6.00693e-13
6.84046e-13
7.7847e-13
8.85327e-13
1.00613e-12
1.14257e-12
1.29651e-12
1.47003e-12
1.66542e-12
1.88522e-12
2.13224e-12
2.40954e-12
2.72053e-12
3.06892e-12
3.4588e-12
3.89461e-12
4.38123e-12
4.92396e-12
5.52858e-12
6.20133e-12
6.94901e-12
7.77894e-12
8.69901e-12
9.71772e-12
1.08442e-11
1.20881e-11
1.346e-11
1.49708e-11
1.66324e-11
1.84572e-11
2.04582e-11
2.26493e-11
2.50449e-11
2.766e-11
3.05104e-11
3.36121e-11
3.6982e-11
4.0637e-11
4.45946e-11
4.88724e-11
5.34884e-11
5.84602e-11
6.38055e-11
6.95417e-11
7.56856e-11
8.22536e-11
8.92611e-11
9.67224e-11
1.04651e-10
1.13058e-10
1.21953e-10
1.31344e-10
1.41238e-10
1.51637e-10
1.62541e-10
1.73949e-10
1.85855e-10
1.9825e-10
2.11121e-10
2.24453e-10
2.38225e-10
2.52414e-10
2.66992e-10
2.81927e-10
2.97184e-10
3.12722e-10
3.28499e-10
3.44467e-10
3.60575e-10
3.76771e-10
3.92998e-10
4.09196e-10
4.25305e-10
4.41261e-10
4.57002e-10
4.72461e-10
4.87575e-10
5.02278e-10
5.16508e-10
5.30201e-10
5.43298e-10
5.5574e-10
5.67474e-10
5.78447e-10
5.88612e-10
5.97926e-10
6.0635e-10
6.13851e-10
6.204e-10
6.25974e-10
6.30555e-10
6.3413e-10
6.36694e-10
6.38245e-10
6.38786e-10
6.38328e-10
6.36882e-10
6.34469e-10
6.31112e-10
6.26836e-10
6.21674e-10
6.15658e-10
6.08826e-10
6.01216e-10
5.92869e-10
5.8383e-10
5.74141e-10
5.63848e-10
5.52996e-10
5.41631e-10
5.29799e-10
5.17545e-10
5.04914e-10
4.91949e-10
4.78693e-10
4.65187e-10
4.51473e-10
4.37588e-10
4.23569e-10
4.09453e-10
3.95274e-10
3.81064e-10
3.66853e-10
3.52673e-10
3.3855e-10
3.24512e-10
3.10583e-10
2.96789e-10
2.83152e-10
2.69694e-10
2.56436e-10
2.43398e-10
2.30599e-10
2.18057e-10
2.05791e-10
1.93817e-10
1.8215e-10
1.70806e-10
1.598e-10
1.49146e-10
1.38854e-10
1.28939e-10
1.19409e-10
1.10276e-10
1.01546e-10
9.32266e-11
8.53238e-11
7.78411e-11
7.07808e-11
6.41434e-11
5.79277e-11
5.21306e-11
4.67473e-11
4.1771e-11
3.71935e-11
3.30044e-11
2.9192e-11
2.57431e-11
2.26431e-11
1.98761e-11
1.74252e-11
1.52728e-11
1.34003e-11
1.17888e-11
1.04191e-11
9.2716e-12
8.32688e-12
7.5655e-12
6.96827e-12
6.51631e-12
6.19116e-12
5.97484e-12
5.84996e-12
5.7998e-12
5.80834e-12
5.86041e-12
5.94175e-12
6.03909e-12
6.14031e-12
6.23448e-12
6.31203e-12
6.36479e-12
6.38613e-12
6.37095e-12
6.31577e-12
6.2187e-12
6.0794e-12
5.89898e-12
5.67991e-12
5.4258e-12
5.14125e-12
4.83163e-12
4.50279e-12
4.16086e-12
3.81203e-12
3.46226e-12
3.11715e-12
2.78174e-12
2.4604e-12
2.15672e-12
1.8735e-12
1.61273e-12
1.37559e-12
1.16255e-12
9.73436e-13
8.07523e-13
6.63638e-13
5.40276e-13
4.35701e-13
3.4804e-13
2.75372e-13
2.15794e-13
1.67484e-13
1.28736e-13
9.79946e-14
7.38692e-14
5.514e-14
4.07563e-14
2.98284e-14
2.1615e-14
1.5508e-14
1.10157e-14
7.74662e-15
5.39305e-15
3.71678e-15
2.53567e-15
1.7124e-15
1.14475e-15
7.5762e-16
4.9657e-16
3.22652e-16
2.08409e-16
1.34811e-16
8.89794e-17
6.25381e-17
5.04857e-17
1.26685e-13
1.29288e-13
1.34618e-13
1.42765e-13
1.5387e-13
1.68124e-13
1.85774e-13
2.07122e-13
2.32533e-13
2.62439e-13
2.97344e-13
3.37834e-13
3.84581e-13
4.38355e-13
5.00031e-13
5.70605e-13
6.51201e-13
7.43089e-13
8.47699e-13
9.66638e-13
1.10171e-12
1.25492e-12
1.42854e-12
1.62506e-12
1.84731e-12
2.09838e-12
2.38174e-12
2.70123e-12
3.06109e-12
3.46601e-12
3.92116e-12
4.43226e-12
5.00557e-12
5.64798e-12
6.36702e-12
7.17094e-12
8.06876e-12
9.07027e-12
1.01861e-11
1.14279e-11
1.28082e-11
1.43404e-11
1.60392e-11
1.79202e-11
2.00002e-11
2.22972e-11
2.48304e-11
2.762e-11
3.06876e-11
3.40562e-11
3.77496e-11
4.17932e-11
4.62131e-11
5.10369e-11
5.6293e-11
6.20108e-11
6.82203e-11
7.49524e-11
8.22383e-11
9.01096e-11
9.85979e-11
1.07735e-10
1.17551e-10
1.28077e-10
1.39341e-10
1.51372e-10
1.64196e-10
1.77835e-10
1.92312e-10
2.07643e-10
2.23843e-10
2.40923e-10
2.58889e-10
2.77742e-10
2.97476e-10
3.18084e-10
3.39548e-10
3.61846e-10
3.8495e-10
4.08822e-10
4.33419e-10
4.58692e-10
4.84581e-10
5.11021e-10
5.37941e-10
5.6526e-10
5.92892e-10
6.20746e-10
6.48721e-10
6.76716e-10
7.04622e-10
7.32328e-10
7.59718e-10
7.86675e-10
8.13083e-10
8.38822e-10
8.63775e-10
8.87828e-10
9.10867e-10
9.32785e-10
9.53478e-10
9.72849e-10
9.90807e-10
1.00727e-09
1.02216e-09
1.03542e-09
1.04698e-09
1.05681e-09
1.06486e-09
1.07112e-09
1.07556e-09
1.07819e-09
1.079e-09
1.07802e-09
1.07527e-09
1.07078e-09
1.06461e-09
1.05679e-09
1.0474e-09
1.03648e-09
1.02413e-09
1.0104e-09
9.9538e-10
9.79156e-10
9.6181e-10
9.43429e-10
9.24102e-10
9.03917e-10
8.82961e-10
8.61322e-10
8.39085e-10
8.16332e-10
7.93146e-10
7.69604e-10
7.45782e-10
7.2175e-10
6.97578e-10
6.7333e-10
6.49067e-10
6.24847e-10
6.00725e-10
5.76749e-10
5.52968e-10
5.29425e-10
5.06161e-10
4.83213e-10
4.60616e-10
4.38402e-10
4.16602e-10
3.95241e-10
3.74347e-10
3.53942e-10
3.34048e-10
3.14684e-10
2.9587e-10
2.77623e-10
2.59957e-10
2.42887e-10
2.26426e-10
2.10585e-10
1.95375e-10
1.80802e-10
1.66876e-10
1.536e-10
1.40978e-10
1.29012e-10
1.17702e-10
1.07045e-10
9.70378e-11
8.76729e-11
7.89419e-11
7.08339e-11
6.33359e-11
5.64325e-11
5.01065e-11
4.43387e-11
3.91079e-11
3.43915e-11
3.01654e-11
2.64042e-11
2.30816e-11
2.01704e-11
1.7643e-11
1.54716e-11
1.36279e-11
1.20843e-11
1.08129e-11
9.78665e-12
8.97897e-12
8.36394e-12
7.91649e-12
7.61243e-12
7.42855e-12
7.34267e-12
7.33377e-12
7.38205e-12
7.469e-12
7.57755e-12
7.69217e-12
7.79894e-12
7.88573e-12
7.94225e-12
7.96019e-12
7.93319e-12
7.85695e-12
7.72918e-12
7.54951e-12
7.3194e-12
7.04196e-12
6.72176e-12
6.36453e-12
5.97695e-12
5.5663e-12
5.14017e-12
4.70617e-12
4.27167e-12
3.84353e-12
3.42793e-12
3.0302e-12
2.65472e-12
2.30486e-12
1.98301e-12
1.69057e-12
1.42805e-12
1.19519e-12
9.91024e-13
8.14084e-13
6.62474e-13
5.34026e-13
4.26414e-13
3.37253e-13
2.6419e-13
2.04972e-13
1.57497e-13
1.19849e-13
9.03145e-14
6.73952e-14
4.98001e-14
3.64372e-14
2.6397e-14
1.89341e-14
1.34461e-14
9.45352e-15
6.57991e-15
4.53377e-15
3.09242e-15
2.08799e-15
1.39558e-15
9.23464e-16
6.0517e-16
3.93155e-16
2.5391e-16
1.64219e-16
1.08373e-16
7.61582e-17
6.14749e-17
2.28354e-13
2.33059e-13
2.42694e-13
2.57422e-13
2.77498e-13
3.03272e-13
3.35189e-13
3.73801e-13
4.19771e-13
4.73884e-13
5.37058e-13
6.10358e-13
6.95007e-13
7.92405e-13
9.0415e-13
1.03205e-12
1.17816e-12
1.34479e-12
1.53455e-12
1.75037e-12
1.99553e-12
2.27372e-12
2.58904e-12
2.94609e-12
3.34999e-12
3.80642e-12
4.3217e-12
4.90285e-12
5.55763e-12
6.29461e-12
7.12326e-12
8.05401e-12
9.09833e-12
1.02688e-11
1.15792e-11
1.30447e-11
1.46817e-11
1.65081e-11
1.85435e-11
2.08089e-11
2.33274e-11
2.61235e-11
2.9224e-11
3.26573e-11
3.64542e-11
4.06475e-11
4.52719e-11
5.03646e-11
5.59647e-11
6.21138e-11
6.88554e-11
7.62351e-11
8.43006e-11
9.31014e-11
1.02689e-10
1.13115e-10
1.24435e-10
1.36703e-10
1.49975e-10
1.64306e-10
1.79754e-10
1.96371e-10
2.14214e-10
2.33333e-10
2.53779e-10
2.75599e-10
2.98834e-10
3.23525e-10
3.49703e-10
3.77395e-10
4.06622e-10
4.37396e-10
4.6972e-10
5.03588e-10
5.38983e-10
5.7588e-10
6.14238e-10
6.54008e-10
6.95125e-10
7.37513e-10
7.81081e-10
8.25728e-10
8.71335e-10
9.17774e-10
9.649e-10
1.01256e-09
1.06059e-09
1.1088e-09
1.15702e-09
1.20504e-09
1.25267e-09
1.2997e-09
1.34591e-09
1.3911e-09
1.43504e-09
1.47753e-09
1.51835e-09
1.55731e-09
1.59422e-09
1.62888e-09
1.66112e-09
1.69079e-09
1.71773e-09
1.74181e-09
1.76293e-09
1.78099e-09
1.79592e-09
1.80765e-09
1.81615e-09
1.8214e-09
1.82342e-09
1.82221e-09
1.81783e-09
1.81033e-09
1.79979e-09
1.7863e-09
1.76997e-09
1.75091e-09
1.72926e-09
1.70516e-09
1.67875e-09
1.6502e-09
1.61966e-09
1.5873e-09
1.55329e-09
1.5178e-09
1.48098e-09
1.44301e-09
1.40404e-09
1.36424e-09
1.32376e-09
1.28274e-09
1.24133e-09
1.19965e-09
1.15785e-09
1.11602e-09
1.0743e-09
1.03277e-09
9.91542e-10
9.50698e-10
9.1032e-10
8.70483e-10
8.31254e-10
7.92693e-10
7.54857e-10
7.17792e-10
6.81544e-10
6.46151e-10
6.11647e-10