/*--------------------------------*- C++ -*----------------------------------*\
| =========                 |                                                 |
| \\      /  F ield         | OpenFOAM: The Open Source CFD Toolbox           |
|  \\    /   O peration     | Version:  v2012                                 |
|   \\  /    A nd           | Website:  www.openfoam.com                      |
|    \\/     M anipulation  |                                                 |
\*---------------------------------------------------------------------------*/
FoamFile
{
    version     2.0;
    format      ascii;
    class       volScalarField;
    location    "0";
    object      p;
}
// * * * * * * * * * * * * * * * * * * * * * * * * * * * * * * * * * * * * * //

dimensions      [0 2 -2 0 0 0 0];


internalField   nonuniform List<scalar> 
4000
(
-0.121787
-0.0845699
-0.115955
-0.164377
-0.234514
0.00521314
0.214188
0.0920471
-0.0239245
-0.119671
-0.163376
-0.112532
0.125165
0.17121
0.0868763
0.0584972
0.356502
0.291967
0.127471
0.0516127
0.162205
0.278316
0.231054
0.107544
-0.118638
-0.180178
-0.118526
-0.0898816
-0.0331949
-0.193039
-0.119566
-0.131154
-0.0793112
-0.0500425
0.109333
0.26386
0.281713
0.175773
0.206735
0.162847
0.237181
0.428034
0.421682
0.273839
0.191962
0.13358
0.148198
0.131565
-0.0290456
-0.14489
-0.0295827
-0.0502817
-0.12721
-0.148141
-0.149123
-0.10234
-0.104026
-0.0581064
0.0157396
0.0483695
0.0223792
0.0653262
0.0367964
-0.0517868
-0.120296
-0.0765122
-0.0651054
-0.0192783
-0.0225379
-0.0377912
0.00662612
0.00386246
-0.0623112
-0.0372294
0.0421809
0.0315285
0.0294257
0.0736058
0.0495463
-0.0747894
-0.0981946
-0.112065
-0.0508258
-0.0442604
-0.0488525
0.0345333
0.0301576
0.0536674
0.0331462
-0.0250771
0.0737222
0.12291
0.114034
0.125472
0.0744934
0.0209875
-0.0124691
0.0607544
0.0652315
0.00852577
-0.157808
-0.171823
-0.146464
-0.0917078
-0.00721454
0.0111691
0.0264168
0.0122776
-0.0472314
-0.065397
-0.119261
-0.0444955
0.0832646
0.077371
0.177892
0.144141
0.212104
0.203312
0.162486
0.176771
0.1813
0.166578
0.227509
0.0561027
-0.129553
-0.166927
-0.0733573
-0.0209276
0.000935462
-0.0702955
-0.16039
-0.0880814
-0.0803938
-0.0812751
0.0631457
0.192078
0.224606
0.143772
0.179838
0.271875
0.341765
0.41295
0.382614
0.247367
0.155654
0.152698
0.183199
0.0912645
-0.0387452
-0.122672
-0.00399268
-0.0789455
-0.145067
-0.128333
-0.10557
-0.126046
-0.11196
-0.11745
0.061301
0.101513
0.0731786
0.019696
-0.0294369
-0.0929878
-0.0714244
-0.0233427
-0.0354843
-0.0552954
-0.00476168
-0.0604245
-0.0176113
0.0560571
0.055982
-0.0383875
-0.00406779
-0.0613026
0.00165383
0.0485862
0.0631029
-0.0735638
-0.154142
-0.0628966
0.0484438
-0.00105682
-0.0697586
-0.000461382
0.003266
-0.0222176
0.0432878
0.0620935
0.0909852
0.0826613
0.100748
0.120071
0.103112
0.0407325
0.0139279
0.0165624
0.0154363
0.00833294
-0.151798
-0.160213
-0.103523
-0.0464031
-0.0267783
-0.00370411
-0.0293044
-0.100103
-0.0250864
-0.0747174
0.0111271
0.000205835
0.0463845
0.0554559
0.173233
0.127006
0.131294
0.153061
0.169243
0.239922
0.246475
0.125776
0.163143
0.0590568
-0.0771115
-0.0964221
-0.1382
-0.111984
-0.12983
-0.124924
-0.136244
-0.0888637
-0.0523126
-0.00166842
0.000661858
0.130579
0.198531
0.20623
0.186946
0.287424
0.289219
0.346866
0.385255
0.232509
0.173037
0.189428
0.156014
0.117716
0.0631545
0.0337663
-0.0933324
-0.142798
-0.182526
-0.130912
-0.160383
-0.150466
-0.0628495
-0.0524134
0.038211
0.116525
0.086792
-0.0246403
-0.0403851
-0.0479558
-0.0109127
-0.021655
-0.0853022
-0.0942973
-0.0779619
-0.0899495
-0.0111542
0.0646856
0.0211967
-0.119059
-0.00600914
-0.00516352
0.0167066
0.0566884
0.0355805
-0.0359153
-0.0506191
-0.00230623
-0.0267576
-0.0716967
-0.0608402
-0.0739612
0.0442838
0.0461039
0.0454021
0.0336145
0.0321161
0.11944
0.118119
0.153936
0.127877
0.0473089
0.0404835
0.0323642
0.0650651
0.0201119
-0.141066
-0.181517
-0.149899
-0.159174
-0.0763097
0.00274803
-0.0496312
0.0201543
-0.00681249
-0.0466999
-0.0483749
-0.0674456
-0.0220059
0.123096
0.179981
0.077785
0.0434744
0.181321
0.284459
0.268307
0.260361
0.0607962
0.0304681
-0.111011
-0.123061
-0.0934859
-0.0409205
-0.0643193
-0.0776457
-0.0712329
-0.106999
-0.0976251
-0.0191267
0.0162926
-0.0121733
0.155348
0.189942
0.104395
0.108196
0.287929
0.347363
0.351046
0.310361
0.191901
0.216455
0.240198
0.171749
0.0470406
-0.0252008
-0.0147494
-0.0382093
-0.0187754
-0.112988
-0.149329
-0.173661
-0.146278
-0.073513
-0.12204
-0.00508967
0.0376706
0.00584363
0.00860926
0.00139269
0.0394163
0.00885904
-0.0920062
-0.0966652
-0.0715372
-0.0886509
-0.0827768
0.0158621
0.0416471
0.0235186
-0.0119779
-0.00345473
-0.0302596
-0.0282589
0.0421937
0.0403909
-0.0221219
-0.0554314
-0.108418
0.0508778
0.01238
-0.0129139
-0.0231645
-0.034117
-0.042212
-0.00456826
0.0349257
0.0502993
0.151729
0.172911
0.143839
0.116279
0.0668599
0.11015
0.0516739
-0.00280283
0.00931162
-0.110116
-0.142857
-0.158355
-0.124593
-0.27557
-0.00388355
0.166056
0.0436717
-0.104713
-0.15351
-0.0352726
0.0258916
-0.225235
-0.0353874
0.179428
0.222676
0.244519
0.169811
0.121872
0.21813
0.358289
0.162572
-0.0428499
-0.0998937
-0.264519
-0.172158
-0.0864168
-0.0976082
-0.0440987
-0.00862436
-0.069752
-0.144048
-0.144338
0.0174667
0.0442121
0.12028
0.116333
0.099747
0.228329
0.28905
0.263761
0.274
0.27107
0.268896
0.216697
0.184175
0.143493
0.0543594
0.0113894
0.0136739
0.0325006
-0.0828411
-0.193016
-0.200181
-0.177281
-0.177278
-0.17699
-0.167251
0.057798
0.105187
0.0387594
0.0145722
0.0126418
0.0109058
-0.0936761
-0.0611763
-0.0512684
-0.00428994
-0.100574
-0.155236
-0.0689096
0.0335215
0.0380153
-0.00608016
0.0555163
-0.0497403
-0.0542865
0.0198904
0.102444
0.0504179
-0.110163
-0.00681027
-0.0215529
-0.00425909
-0.0362639
-0.0971128
-0.0634021
-0.00967547
0.0162439
0.0260083
0.0849299
0.127333
0.151466
0.191666
0.135172
0.130796
0.0881223
0.0653657
0.0251323
-0.0424909
-0.1736
-0.164627
-0.149577
-0.119808
-0.168946
-0.0657764
-0.0612304
-0.0638056
-0.0366638
-0.135053
-0.104478
0.0162848
0.0353289
0.0945513
0.121056
0.104521
0.0942458
0.192095
0.332078
0.251007
0.122769
0.191312
0.0195528
-0.233079
-0.185564
-0.145598
-0.0754406
-0.0152701
0.00712581
-0.000880101
-0.138206
-0.148566
0.00211682
0.071411
0.114497
0.0678519
0.0549109
0.0980834
0.119764
0.210295
0.354103
0.246035
0.155958
0.181877
0.160908
0.210571
0.20241
0.103145
0.0673178
0.0484046
0.00296561
-0.0787547
-0.14923
-0.246509
-0.212373
-0.208578
-0.13683
-0.0793234
-0.012047
0.0313447
-0.00259123
-0.0154654
-0.0507449
-0.10415
-0.0313252
0.0241726
-0.00107138
0.0379548
-0.0678867
-0.0226165
-0.019756
-0.0659677
0.00369303
-0.0233478
0.036387
0.0201815
-0.0436148
-0.0533478
0.0743561
0.084675
0.0038807
-0.0362175
-0.0615984
-0.00276684
-0.0432848
-0.0259363
-0.00225218
-0.0440653
-0.0752294
-0.0152549
0.132416
0.17968
0.154643
0.12776
0.103796
0.0805109
0.0676901
0.110332
0.0270699
-0.0375398
-0.0902813
-0.102048
-0.153538
-0.170578
-0.240631
-0.0994214
-0.116925
-0.0518897
-0.0567771
-0.0278712
-0.0184358
-0.0509215
0.0460328
0.00214667
0.0218432
0.243235
0.265372
0.314951
0.220616
0.142372
0.144141
-0.00822264
-0.0196308
-0.0956691
-0.229053
-0.244341
-0.056946
-0.0150556
0.0292276
0.0787821
-0.0175382
-0.150322
-0.0818696
-0.0172552
0.0405026
0.0925379
0.119266
-0.0521986
0.0149254
0.160725
0.359901
0.268632
0.30823
0.241625
0.269476
0.17642
-0.000581204
-0.164865
-0.0389617
0.128298
0.113574
-0.0399644
-0.228617
-0.165882
-0.109066
-0.176094
-0.214754
-0.160899
-0.142051
-0.0733094
0.143588
0.146052
-0.0455746
-0.125519
-0.107204
-0.0746279
-0.0304514
0.00522464
0.020615
0.0275953
-0.0128824
-0.00305369
-0.0115005
0.024961
0.103106
0.0621035
-0.151191
-0.0853694
0.0786789
0.078045
-0.037458
-0.0125538
0.00733545
-0.0456455
-0.106447
-0.0602203
-0.0163183
-0.016137
-0.0662357
0.024193
0.0566975
0.120592
0.155318
0.137275
0.130018
0.0959656
0.057264
0.0406353
0.0181712
0.0149086
-0.152221
-0.194892
-0.158614
-0.076366
-0.0106227
-0.000524974
-0.229496
-0.220833
-0.0707447
-0.0897203
0.00794833
0.0295739
0.0600428
-0.013692
0.0510271
0.179865
0.198195
0.272397
0.194855
0.28575
0.261292
0.164031
-0.0920586
-0.228048
-0.254998
-0.141654
-0.0934449
-0.0608057
-0.00195375
0.0561243
-0.0226216
0.0469443
0.0284275
0.0119388
-0.00942712
0.090252
0.0210396
0.0123017
0.101111
0.314596
0.234234
0.0816375
0.106111
0.285464
0.381925
0.0402114
-0.0771055
0.0616943
0.22318
0.0140547
-0.0794691
-0.0646196
-0.0753287
-0.114321
-0.27529
-0.233103
-0.139469
-0.0942982
-0.113856
-0.0809764
0.00728067
-0.0215942
0.00615057
-0.00814599
-0.0725597
-0.0105805
0.0492056
0.0465161
-0.0146292
-0.0403241
0.0595226
0.0536754
-0.0360961
-0.0986211
0.0301408
-0.00565916
-0.0828574
-0.0446912
0.077943
0.085948
0.0244271
-0.0155755
-0.0836032
-0.0117737
-0.108151
-0.0476088
-0.0140498
-0.00918215
-0.0849376
-0.0355621
0.0626163
0.113602
0.117576
0.108968
0.166824
0.0471459
0.00974914
0.0555209
0.0677302
-0.0126802
-0.0956081
-0.114449
-0.10433
-0.1288
-0.169425
-0.110235
-0.0882384
-0.170188
-0.0575847
-0.106272
-0.0275455
0.0479535
-0.113911
-0.00843134
0.082465
0.158931
0.208661
0.337622
0.408222
0.329324
0.11272
-0.0128936
-0.272885
-0.120754
-0.0586968
-0.07104
-0.147782
-0.109456
-0.0428922
-0.073966
0.0508366
0.0926854
-0.0805621
-0.195566
-0.106582
0.10705
0.20798
0.294773
0.0281078
-0.0377851
0.196487
0.385415
0.258209
0.142695
0.116156
0.0774629
0.00309329
-0.00685786
0.115877
0.069157
0.00245195
-0.0951001
-0.0934007
-0.142609
-0.285169
-0.166836
-0.0930284
-0.0524993
-0.0809416
-0.107271
-0.0579689
-0.13366
-0.0292199
-0.0259333
-0.0456528
-0.0341296
0.101153
0.073194
0.0389496
0.015739
0.0438155
0.01022
-0.00198877
-0.00704756
-0.0274542
-0.0201903
-0.0396106
-0.0215347
0.0437663
0.187606
0.0670993
-0.0546587
-0.133508
-0.0663366
-0.017968
0.00818055
-0.0622465
-0.0812373
-0.0530951
-0.0154222
0.0620642
0.0965507
0.119246
0.0352163
0.0517329
0.0292017
0.0513532
0.0393779
0.0241032
0.0207332
-0.1179
-0.114864
-0.0405585
-0.16248
-0.21097
-0.116853
-0.0303768
-0.0600001
-0.161439
-0.0188375
-0.0184395
-0.106748
-0.208867
-0.0297393
0.138072
0.186548
0.321813
0.282304
0.390849
0.471813
0.165592
-0.0977982
-0.13052
-0.0711323
-0.093011
-0.213033
-0.123554
-0.0519637
-0.101832
-0.0582873
-0.0197757
0.0316428
0.119207
-0.0109608
-0.070559
-0.0307132
0.0700958
0.147941
0.208309
0.154972
0.0290621
0.0932361
0.109022
0.0719181
0.178252
0.142542
0.0646495
0.0793115
0.207894
0.157743
-0.0161864
-0.097335
-0.146453
-0.172155
-0.214152
-0.218521
-0.0987158
-0.102129
-0.129261
-0.0799152
-0.0295277
0.0388986
0.0379033
-0.0719438
-0.00561454
-0.00294766
-0.0284962
-0.0422465
0.0835364
0.0954456
0.18487
0.0658875
0.0854766
0.00910425
-0.0803393
-0.150635
-0.167142
-0.112951
0.125843
0.218368
0.0415294
-0.0396058
-0.0308151
-0.00695402
-0.0728067
-0.128572
-0.0576042
0.0702328
-0.00903849
-0.0465135
0.0667321
0.057855
0.0258177
0.0403969
-0.00529188
-0.111205
-0.0665305
0.0105162
0.117545
0.0626236
-0.0960361
-0.100577
-0.0802432
-0.079091
-0.0726907
-0.063586
-0.207807
-0.194959
-0.225157
-0.102112
0.0441118
-0.00391323
0.0492577
0.190177
0.222115
0.155596
0.143414
0.244151
0.330822
0.326029
0.198385
-0.0308639
-0.193434
-0.216666
-0.138843
-0.123625
-0.0889642
-0.0854157
-0.0524319
-0.0962337
-0.0964639
0.0243559
0.0163656
-0.0688499
0.0245088
0.114211
0.174234
0.112049
0.142064
0.0397107
0.102906
0.159772
0.235632
0.0647328
0.0471282
0.0507883
0.0239954
0.0462677
0.159745
0.128339
-0.00587199
-0.11845
-0.141607
-0.15449
-0.170576
-0.0665091
-0.148487
-0.160602
-0.109228
-0.067953
-0.0969892
-0.0998453
-0.0913404
-0.00680105
0.0642964
0.0399367
-0.0125954
-0.0448393
0.0913286
0.180607
0.154835
0.111569
0.128976
0.00545578
-0.113539
-0.20635
-0.121741
0.0169291
0.132365
0.0887517
0.0164306
0.0416784
0.00477792
-0.0270638
0.0237048
-0.0958715
-0.117329
0.0246288
-0.00824947
-0.0575845
-0.0641496
0.00667754
0.0183377
-0.059443
0.0989168
0.00669172
-0.0288531
-0.0541553
-0.0667395
-0.0190705
-0.0972931
-0.0774899
-0.0141661
-0.0993302
-0.0896042
-0.156855
-0.111866
-0.106182
-0.135856
-0.0764092
-0.0339657
0.0212307
0.0948008
0.0748959
0.22625
0.162135
0.167742
0.245429
0.358379
0.381189
0.107196
-0.0806678
-0.108718
-0.117012
-0.0683468
-0.227085
-0.103941
-0.0486256
-0.0781581
-0.197017
-0.230942
0.00730724
0.0999134
-0.00242115
0.0128598
0.0415465
0.0378845
0.105224
0.109716
0.104332
0.162142
0.0559408
0.0143165
0.131085
0.0270524
0.0262585
0.0739679
0.0874367
0.0168564
0.0355965
-0.0200616
0.00383272
-0.071624
-0.105119
-0.140765
-0.156841
-0.150584
-0.0959902
-0.0893342
-0.123938
-0.0616849
0.00425158
0.0472079
0.119449
0.0891392
0.0958052
-0.00478768
0.0161757
0.0642105
0.0212323
0.0690164
0.148614
0.186048
-0.0296264
-0.102172
-0.134519
-0.0118702
-0.01336
0.0272798
0.126644
0.0149419
-0.07654
-0.0561139
0.0337957
-0.0549294
-0.0875401
-0.0075326
0.0282694
0.0344379
-0.0195558
-0.0255414
0.0248753
-0.0749489
-0.0530549
-0.0414758
-0.0651578
-0.0785116
-0.0328611
-0.0806615
-0.0320812
-0.0792059
-0.0792713
-0.144981
-0.0334215
0.00915168
-0.0623968
-0.246166
-0.344907
-0.26742
0.00801111
0.270299
0.118117
0.0367841
0.142936
0.194704
0.296604
0.308087
0.174414
0.257298
0.268473
-0.00862559
-0.160089
-0.143212
-0.0478056
-0.0812183
-0.097218
-0.203482
-0.274759
-0.137538
-0.0850072
-0.120148
-0.00757487
-0.0545554
-0.0446414
0.156203
0.112059
-0.00381501
0.0404511
0.166477
0.103771
0.0507667
0.120759
0.123116
0.0452311
0.00849282
-0.0648967
-0.0511299
-0.0753379
0.0207199
0.0908159
0.059367
0.00634231
-0.027681
-0.117622
-0.100083
0.0309002
-0.0889062
-0.218492
-0.320417
-0.256594
-0.148532
0.0310066
0.126385
0.154894
0.0821158
0.117992
0.0375066
0.00805362
0.019522
0.0648081
0.109156
0.207209
0.207705
0.060554
-0.0334731
-0.177047
-0.199192
-0.0200207
0.117955
0.0424924
0.00669246
0.0457703
0.0651119
0.0399325
-0.0482587
-0.0807021
-0.0934013
-0.0174815
0.0218152
-0.0833566
-0.0501132
0.0905176
0.0258133
-0.0489278
-0.135643
-0.0616576
-0.0332476
-0.0780874
-0.133747
-0.0837463
-0.10099
-0.00481647
-0.0652588
-0.12457
-0.0571715
-0.0525571
-0.110693
-0.0710724
-0.0574012
-0.048764
-0.110002
0.0165492
0.0544884
0.205857
0.286399
0.294446
0.234568
0.211615
0.142465
0.177825
0.0604686
0.0111605
-0.0461924
-0.111361
-0.113909
0.0339485
-0.0649962
-0.15243
-0.25487
-0.187205
-0.183705
-0.0396124
-0.0190195
-0.0699396
-0.0756281
-0.0496229
0.0290357
0.15734
0.142533
0.0342388
-0.0804047
0.0200395
0.172413
0.0902852
-0.12838
-0.10018
-0.0570255
0.00630618
0.0158806
-0.0166453
-0.0246191
-0.0143859
-0.0316396
-0.085395
-0.081745
-0.0911016
0.00663898
0.026279
-0.0501799
-0.112459
-0.140785
-0.0513385
0.00475929
0.0867212
0.183941
0.136583
0.0792256
0.0430281
0.0681265
0.0733279
0.180894
0.143905
0.0574365
0.0233701
-0.0533386
-0.132132
-0.127417
0.0265967
0.068379
0.0222072
0.0329666
0.039182
0.0746317
0.0365885
-0.105495
-0.0760247
-0.063088
0.00648676
0.0243433
0.00821424
0.0264639
0.0421703
0.00190276
-0.0649085
-0.18896
-0.129804
-0.0466581
-0.0283768
-0.0691869
-0.0759539
-0.120837
0.080674
0.012904
-0.211161
-0.119056
-0.0199377
-0.0763259
-0.153403
-0.141565
-0.146539
0.0424598
0.15513
0.112314
0.20913
0.331718
0.217567
0.172164
0.238163
0.231402
0.168965
0.0162666
-0.0754424
-0.0762282
-0.207976
-0.132147
-0.101405
-0.271154
-0.251951
-0.19417
-0.0751092
-0.084939
-0.0613607
-0.0296108
-0.099138
0.0378537
0.027526
0.0184719
0.126007
0.200582
0.131627
-0.117764
-0.156028
-0.10412
-0.0133537
0.0150083
-0.136634
-0.112868
0.025155
0.0659072
0.0973165
0.0293361
-0.0689849
-0.0944852
-0.202333
-0.0579836
0.0129416
-0.0397682
-0.0770434
-0.130884
-0.0944124
-0.0892275
0.0293633
0.029989
0.129201
0.174044
-0.0300669
0.0671546
0.059478
0.0863194
0.0304922
0.133436
0.0896751
0.0672707
0.11533
0.0336004
-0.132076
-0.14597
0.0556835
0.168245
0.0138098
-0.0320356
0.0518033
0.0639394
0.0550581
0.0196847
-0.0151575
-0.110638
-0.108569
-0.0109867
0.0492329
-0.00957541
0.00322131
-0.0102862
-0.0300437
-0.124039
-0.111015
-0.0545765
-0.0265199
-0.0391475
-0.0591028
-0.106818
-0.021674
-0.0422921
-0.0662761
-0.13457
-0.0242616
0.0144541
-0.0755319
-0.135828
-0.0575168
0.0744187
0.0824208
0.142907
0.248551
0.217293
0.143858
0.111852
0.230189
0.0989636
0.0525628
0.154948
0.0113035
0.0842245
0.0254682
-0.109255
-0.185606
-0.233566
-0.142775
-0.162766
-0.189969
-0.263918
-0.118227
-0.10217
-0.0604723
-0.0825607
0.0556531
0.113026
0.00661324
0.130284
-0.000431211
-0.1788
-0.220945
-0.157582
0.0151261
-0.00330627
-0.0667634
-0.037483
0.0212055
0.103329
0.00199499
-0.151044
-0.174009
-0.13743
-0.135938
-0.0343506
-0.00143654
-0.00874035
0.0841225
0.0450166
-0.0914415
-0.0494339
0.0321034
0.0406881
0.0294046
0.15293
0.122384
0.0999926
0.0740885
0.0305072
0.108608
0.200928
0.123773
-0.0231454
0.0240823
0.0332912
-0.067419
-0.0939836
-0.0568149
0.125533
0.100277
0.0453889
0.0813387
0.0250438
0.0751472
0.111348
-0.0676493
-0.181934
-0.0279275
-0.00117112
-0.0567846
-0.00956888
0.0193711
-0.0194234
-0.0991094
-0.11624
-0.0606827
-0.0570423
-0.0409289
-0.101013
-0.0302677
-0.0121297
0.0186066
-0.0827386
-0.130299
-0.188051
-0.148858
-0.0687893
0.00440288
-0.0212205
0.040207
0.0628882
0.134368
0.17867
0.212886
0.190136
0.321184
0.192833
0.067034
0.154827
0.0760267
0.00467276
-0.0275709
-0.127174
-0.0872109
-0.0453509
-0.187793
-0.228483
-0.241327
-0.144907
-0.129311
-0.223562
-0.156264
-0.0486491
0.112665
-0.0444519
0.0325912
-0.00522245
-0.156786
-0.030025
-0.0157954
-0.0615582
-0.195975
-0.0596011
-0.0252758
-0.0721137
-0.0569806
-0.0684607
0.019002
0.0196483
-0.0692375
-0.153294
-0.120195
-0.076864
-0.105066
-0.0420217
0.0252877
-0.00530075
-0.027205
0.00455636
0.0576508
0.0469226
-0.0072505
0.06249
0.112783
0.0222085
0.081805
0.138757
0.0932958
0.0922545
0.11749
-0.0394389
0.0333833
0.0593708
0.0652663
0.177694
0.0827338
-0.0305095
-0.0307845
0.13284
0.0200796
-0.0251515
0.0372848
-0.0360967
0.0298345
0.112965
0.0739826
0.0383986
-0.0550922
-0.131958
-0.074642
-0.0244988
-0.0143725
-0.0939099
-0.149705
-0.115268
-0.0265327
0.012882
-0.0181522
-0.143425
-0.0432624
-0.00529648
0.00293803
-0.0465002
-0.238601
-0.143433
-0.0464771
-0.0809928
-0.0200453
0.0523376
0.025531
0.0711432
0.235711
0.14284
0.0975562
0.215313
0.247098
0.200018
0.228394
0.186987
0.145446
0.0924608
-0.110002
-0.193087
-0.114505
-0.0514393
-0.154091
-0.190893
-0.171121
-0.0701789
-0.0524384
-0.180043
-0.251085
-0.293177
0.0108538
0.101734
-0.062038
-0.121235
-0.0148856
0.0208741
-0.21358
-0.187015
-0.00500583
0.182413
-0.0337278
-0.127108
-0.198398
-0.0860574
-0.1515
-0.109069
-0.11854
-0.115958
-0.176888
-0.0706293
0.0287239
0.0294278
0.0335541
-0.0425033
-0.0877248
0.016695
-0.00335161
0.0622608
-0.0266789
0.0716269
0.172272
0.154114
0.0721341
0.113642
0.073965
0.0789763
0.12796
0.128027
0.000606223
0.0244945
0.0682779
0.0866961
0.0237358
-0.0234778
-0.140385
0.109029
0.210225
0.174621
0.0771785
-0.0963623
-0.169784
-0.0105734
0.188826
0.0512595
-0.00530918
-0.0531343
-0.10943
0.0334106
-0.109992
-0.1183
-0.128193
-0.0781422
-0.032319
-0.0909229
-0.117229
-0.127019
-0.0371366
-0.020838
-0.0660551
-0.0240999
-0.00805467
-0.109695
-0.149884
-0.168641
-0.161715
-0.107712
0.10151
0.22567
0.226924
0.25167
0.193983
0.253414
0.269601
0.168268
0.0778466
0.0445222
0.0525645
0.148614
-0.00669896
-0.15073
-0.161695
-0.128189
-0.135817
-0.187537
-0.125963
-0.0754777
-0.0746889
-0.134585
-0.188343
-0.23939
-0.104112
0.0509145
-0.161266
-0.154457
-0.0331036
-0.0521934
-0.119201
-0.133552
0.055532
0.0249351
-0.0771988
-0.0762568
-0.17074
-0.0885315
0.0710263
0.0300745
-0.173522
-0.234055
-0.0766853
-0.0283589
-0.0794044
-0.0613885
-0.126898
-0.069656
0.0698484
0.112666
-0.0232348
-0.0384656
0.0258998
0.146028
0.218429
0.121243
0.0494035
0.0861666
0.0977971
-0.00577439
0.0461649
0.113639
-0.0189382
0.00253718
0.0386416
0.1081
0.0485671
0.0378711
0.0318228
0.11144
0.151011
0.0450194
-0.00538823
0.0607961
0.0625714
-0.00440693
-0.0558971
-0.0366159
-0.0643483
-0.0946472
-0.100613
-0.0874514
-0.0954763
-0.0482228
-0.0389623
-0.097407
-0.110154
-0.105669
-0.201977
-0.230925
-0.0560297
0.0438981
0.000770537
-0.0913493
-0.119749
-0.198431
-0.215787
-0.208414
-0.105982
-0.0168448
0.164003
0.242893
0.236808
0.257869
0.217117
0.235042
0.203729
0.097841
0.0549043
0.1074
0.20054
0.121218
-0.00181301
-0.114592
-0.148554
-0.141936
-0.130494
-0.223445
-0.0591444
-0.0396128
-0.0167012
-0.0308025
-0.196115
-0.357195
-0.204499
-0.140237
-0.0123618
-0.0661634
-0.0400438
-0.0429117
-0.0264773
-0.100313
-0.180077
0.0166715
0.121231
-0.0031541
-0.101345
-0.125447
-0.101511
-0.245626
-0.226516
-0.0990418
-0.178898
-0.0918706
-0.0217215
-0.00697538
-0.0145639
-0.0334891
0.0148184
0.0759834
0.0975997
0.0743919
0.125559
0.0677991
0.0536481
0.0909884
0.101491
0.0666685
-0.0494972
-0.0219979
0.0414868
0.112148
0.136343
0.179106
0.0209662
-0.038554
-0.0542897
0.0544116
0.0715618
0.10801
0.120451
0.0201855
0.00785118
0.0247056
-0.0522413
0.0113651
0.162872
0.0525281
-0.0440926
-0.147176
-0.13901
-0.132874
-0.0922163
0.0277158
-0.0743469
-0.144008
-0.170642
-0.164558
-0.177869
-0.254727
-0.063958
0.0390985
-0.0181665
-0.023768
-0.13637
-0.263293
-0.236093
-0.153584
-0.0840569
-0.039717
0.086453
0.105318
0.24303
0.288022
0.26387
0.317863
0.261187
0.0504362
-0.0544103
0.147056
0.068089
0.140722
-0.00466683
-0.126429
-0.110584
-0.0460673
-0.118332
-0.222379
-0.0230141
-0.065102
-0.0672114
-0.123696
-0.155918
-0.338212
-0.24486
-0.0315438
-0.0685949
-0.047205
-0.0384537
0.00079922
-0.0726371
-0.0469441
-0.0461514
-0.0566701
0.0207213
-0.0284901
-0.023768
-0.0926516
-0.147986
-0.188643
-0.143339
-0.140461
-0.222666
-0.0644396
0.0223848
0.0728817
-0.0115192
-0.0126877
-0.0220589
0.0468078
0.103949
0.0390329
0.0684874
0.251845
0.164029
-0.0817582
0.0111613
-0.0104474
-0.0395341
-0.0423921
0.0176243
0.122319
0.165302
0.0875124
0.00723644
-0.0277433
-0.0282055
0.0196435
0.118322
0.0777648
0.0428655
0.0591929
0.170384
0.0586761
-0.0540503
-0.0973942
-0.0455197
0.0553238
-0.0759286
-0.124049
-0.125117
-0.037453
-0.0451608
-0.0266758
-0.0855909
-0.10036
-0.145069
-0.21708
-0.2559
-0.166619
-0.0166322
0.0306614
0.0337159
-0.0885604
-0.175898
-0.193255
-0.226288
-0.294607
-0.112678
-0.0486062
0.091002
0.149277
0.235749
0.258327
0.349648
0.218981
0.060407
0.0795804
0.15494
0.169599
0.041038
-0.013216
-0.0515923
0.0351436
-0.0667301
-0.175509
-0.167937
-0.0838234
-0.0394983
0.0401291
0.000429924
-0.151763
-0.167322
-0.152138
-0.195786
-0.163575
-0.188858
-0.0830316
-0.0523388
-0.0180734
-0.0755557
-0.00744132
0.0140426
-0.00994248
-0.0307949
-0.0544359
0.0514395
-0.0503393
-0.210277
-0.235028
-0.287205
-0.251088
-0.0695739
0.0261725
-0.0317595
-0.0423974
0.036262
0.0601347
0.114844
0.148873
0.134438
0.0682103
0.061781
0.0921164
0.105941
0.0368051
0.00563813
-0.0235869
-0.0574783
-0.110425
-0.00544421
0.197085
0.183578
0.155707
-0.00377726
-0.0301876
-0.0308081
-0.0209572
0.0480887
0.0461806
0.102995
0.135555
0.112087
0.050585
0.0542545
0.0287677
-0.062476
-0.0751844
-0.0902346
-0.118996
-0.109758
-0.12781
-0.111939
-0.0764222
0.0142574
-0.0589934
-0.170764
-0.192867
-0.18301
-0.0900365
-0.00686827
-0.00923562
-0.0192956
-0.0208682
-0.152143
-0.263995
-0.201453
-0.159812
-0.182886
-0.0954497
0.0882978
0.0796886
0.0706009
0.24425
0.316583
0.269175
0.220708
0.199361
0.189053
0.14741
0.0482747
0.0155682
-0.167957
-0.207809
-0.0559666
-0.0242632
-0.0553269
-0.129597
-0.0622937
-0.122762
-0.071123
-0.090537
-0.205409
-0.11705
-0.187316
-0.164616
-0.169024
-0.0461293
-0.0314169
-0.0307728
0.0356567
-0.0484111
0.0491017
-0.0603155
-0.030443
-0.0189007
0.0669174
-0.131937
-0.260393
-0.201905
-0.148215
-0.195291
-0.0861473
-0.0528718
-0.0793873
0.0125985
0.139487
0.131654
0.054112
0.0687761
0.118776
0.0882661
0.0403427
0.13985
0.135618
0.0923636
-0.0677424
-0.0631315
-0.0744634
-0.132097
0.0343192
0.117978
0.0348111
0.106471
0.0657334
0.018581
-0.0272584
-0.00425543
0.101654
0.135036
0.069317
0.0779651
0.0912216
-0.00205049
-0.00488611
0.0309423
0.00153059
-0.0459714
-0.0716449
-0.150225
-0.118262
-0.10076
-0.131646
-0.0749333
0.12135
-0.07704
-0.206886
-0.235632
-0.171416
-0.0504462
0.0534093
0.0879351
-0.0297604
-0.17202
-0.131036
-0.145285
-0.279169
-0.286371
-0.263383
-0.035355
0.212364
0.0792483
0.0333427
0.193464
0.38364
0.245565
0.15878
0.0297455
-0.0202564
-0.00499366
0.0923229
0.145911
-0.0140314
-0.195792
-0.105333
-0.0168933
0.065278
0.161814
-0.0268602
-0.0602117
-0.203694
-0.137611
-0.210164
-0.167177
-0.163884
-0.226245
-0.161299
-0.0949153
0.0393432
0.0750756
-0.0684078
-0.0305225
-0.0527032
-0.0351187
0.0080278
-0.00623267
-0.00133843
-0.0857261
-0.18672
-0.243707
-0.20296
-0.211117
-0.145613
-0.108648
-0.0144227
0.0430673
0.138035
0.143018
0.21594
0.0523581
0.213544
0.123048
0.0748827
0.0632846
0.105517
0.0314289
-0.131338
-0.0551526
0.0278157
-0.00664436
-0.0520581
0.0543828
0.0388301
0.108596
0.15418
0.093199
-0.0415903
-0.0335875
-0.00333614
0.0632697
0.100682
0.135867
0.116925
0.116441
0.0008445
-0.0321413
-0.0616897
-0.152742
-0.0537315
-0.052621
-0.124153
-0.149782
-0.128762
-0.0681538
0.0786028
-0.0350444
-0.161892
-0.125617
-0.0962897
-0.0230172
-0.00327504
0.11336
-0.0126848
-0.0990916
-0.225615
-0.282378
-0.261463
-0.221049
-0.209128
-0.180959
-0.0180048
0.162175
0.227413
0.291898
0.32479
0.254417
0.15446
0.0137205
0.0310365
0.108194
0.125921
-0.0234584
-0.103461
-0.130045
-0.0666807
0.0502922
-0.10599
-0.0818821
-0.00492552
-0.0534244
-0.232789
-0.215935
-0.128913
-0.0735844
-0.169857
-0.275368
-0.0862612
-0.0346387
-0.0193204
0.00425853
-0.0651944
0.102324
0.0419817
0.0321762
-0.013025
0.000667735
0.0579247
-0.0817759
-0.225518
-0.26238
-0.275806
-0.192841
-0.127078
-0.0750701
-0.0184169
0.165507
0.171487
-0.0708424
0.0426263
0.216499
0.183646
0.152624
0.0568613
0.0214833
-0.0123086
0.042499
0.0246448
-0.0778567
-0.0642437
-0.0643686
0.0131466
0.0587091
0.0234819
0.099185
0.0874262
0.0378725
-0.00726817
0.021973
0.100943
0.11365
0.103829
0.0795332
0.0819639
0.0512225
0.0406479
-0.0592032
-0.0109836
7.54758e-05
-0.0289373
-0.124421
-0.255351
-0.267627
-0.0661205
-0.00110703
0.0389715
0.0444539
-0.0673557
-0.171495
-0.153857
-0.0324567
-0.0200864
0.0207006
-0.0908594
-0.144069
-0.176045
-0.146885
-0.179181
-0.205554
-0.198598
-0.149159
0.00692087
0.150402
0.11982
0.0508487
0.179586
0.275247
0.172936
0.037074
0.0761883
0.00269594
-0.0943605
0.0660644
0.119512
-0.0133154
-0.0924883
-0.0751067
-0.0721038
-0.00204435
0.0407176
-0.0235678
-0.119694
-0.346426
-0.295183
-0.13656
-0.0225417
-0.0149109
-0.0966125
-0.140392
0.0418748
0.14675
0.0198291
-0.00457525
-0.0728575
-0.0100887
0.0380714
-0.0179062
-0.042926
-0.0872833
-0.116133
-0.150528
-0.186845
-0.235972
-0.195484
-0.100056
0.0492554
0.111623
0.1341
0.0559259
0.0631782
0.180657
0.18082
0.167462
0.130242
0.0812643
0.0163061
-0.0489997
-0.0313691
-0.0988487
-0.0818624
-0.0617353
0.0481783
-0.00392708
0.0232951
0.120148
0.0401437
-0.0451807
-0.0418267
-0.0196855
0.180425
0.195485
0.0756743
0.111802
0.180716
0.0290658
0.0381058
-0.00891864
-0.0833023
-0.0622763
0.00451593
-0.0743552
-0.122478
-0.144566
-0.130918
-0.109266
-0.0435003
0.0787468
-0.00224358
-0.0545261
-0.152923
-0.0416021
-0.0219687
0.0518445
-0.0305188
-0.101923
-0.123009
-0.138474
-0.41023
-0.375595
-0.172061
-0.0233949
0.0803516
0.032352
0.0121078
0.0873456
0.239329
0.211222
0.16949
0.0764443
0.0797332
0.115951
-0.0478272
0.0520139
0.0896496
-0.181506
-0.136121
-0.0191258
-0.0232865
-0.112967
-0.0558435
-0.0397815
-0.135489
-0.172675
-0.205342
-0.110718
-0.114972
-0.120246
-0.177761
-0.046151
0.122761
0.114926
-0.0366855
0.000591275
0.0383249
0.0319685
0.0440583
0.0317834
-0.0251539
-0.0888569
-0.127307
-0.249043
-0.210362
-0.0958724
-0.153645
-0.146019
-0.0697596
0.0845537
0.0807925
0.063545
0.122049
0.172288
0.191664
0.143411
0.162307
0.0311819
-0.117113
-0.0599914
0.0553209
0.0522027
-0.0288065
-0.0653447
-0.128149
-0.0537747
0.0274372
0.145145
0.0523436
-0.0572006
0.0373933
0.0309353
0.116481
0.0210391
0.0526311
0.0832322
0.150222
0.14085
0.060689
0.0143791
-0.0340751
-9.28017e-05
-0.0272469
-0.136271
-0.231282
-0.158972
-0.027046
-0.108272
-0.0241944
0.0862515
0.0639416
-0.0613031
-0.130685
-0.056787
-0.0463342
0.000278463
-0.0628196
-0.193925
-0.165412
-0.240712
-0.240326
-0.065396
-0.0562953
-0.121872
-0.0650464
-0.00233918
-0.083377
-0.0376517
0.131198
0.24029
0.337483
0.24648
0.00358621
-0.0049816
-0.0414669
-0.0332604
-0.079411
-0.0893147
-0.0293263
-0.0879749
-0.10176
0.0216964
0.00490156
-0.0765936
-0.177062
-0.165415
-0.00440671
-0.0468725
-0.174747
-0.160741
-0.00396068
0.0153532
0.0398516
0.0241769
0.00410991
0.0540238
0.0683457
0.122389
0.0162904
-0.0456549
0.0101389
-0.0691422
-0.207165
-0.228897
-0.068381
-0.0567221
-0.147241
-0.283303
-0.142625
0.124946
0.126155
0.0803275
0.101736
0.125111
0.182252
0.17627
0.0905677
0.0364993
-0.0438659
-0.113773
-0.0260856
0.0145979
0.0380136
0.0237749
-0.151245
-0.179472
0.0284943
0.214666
0.0590963
-0.0998455
-0.0358312
0.0388297
0.0479371
0.0860654
0.0465135
0.0693513
0.131939
0.189655
0.0744983
-0.0179608
-0.0153514
0.03292
0.024286
-0.0600971
-0.171296
-0.199721
-0.0809991
-0.00958916
0.0340824
0.0668865
-0.00134572
-0.0525566
-0.151387
-0.14434
-0.0688887
-0.0291253
-0.0551671
-0.113417
-0.168078
-0.203514
-0.213791
-0.138738
-0.147154
-0.136526
-0.0823462
-0.029007
0.0271828
0.0631276
0.0158325
0.0467327
0.15472
0.269704
0.204569
0.0704133
-0.00471477
-0.0284211
-0.0691644
-0.064346
-0.0887719
-0.0761148
-0.0623276
-0.0670939
-0.00838692
0.0184965
-0.0955141
-0.0280962
-0.101224
-0.123125
-0.0511119
-0.0818402
-0.0817378
0.0156034
0.0116157
0.0868491
0.046147
0.0270717
0.074409
0.0805048
0.0863027
0.0513073
0.0383121
-0.0510391
-0.198892
-0.264186
-0.177742
-0.0451224
-0.136676
-0.263158
-0.225656
-0.0266058
0.17839
0.198
0.14103
0.204875
0.181131
-0.000513567
-0.0361449
-0.00142394
0.0566518
0.0351469
-0.0136884
-0.0219162
-8.3745e-05
0.00823389
-0.0974718
-0.129627
-0.0167462
0.0694964
0.122503
-0.0752727
-0.185828
-0.101764
0.0307447
0.188455
0.184146
0.0758606
0.0592916
0.156477
0.0437701
0.0709811
0.0364984
-0.0585174