/*--------------------------------*- C++ -*----------------------------------*\
| =========                 |                                                 |
| \\      /  F ield         | OpenFOAM: The Open Source CFD Toolbox           |
|  \\    /   O peration     | Version:  v2012                                 |
|   \\  /    A nd           | Website:  www.openfoam.com                      |
|    \\/     M anipulation  |                                                 |
\*---------------------------------------------------------------------------*/
FoamFile
{
    version     2.0;
    format      ascii;
    class       surfaceScalarField;
    location    "12";
    object      phi;
}
// * * * * * * * * * * * * * * * * * * * * * * * * * * * * * * * * * * * * * //

dimensions      [0 3 -1 0 0 0 0];
oriented        oriented;


internalField   nonuniform List<scalar> 
130560
(
3.59863e-06
-3.59863e-06
7.19744e-06
-3.59881e-06
1.07966e-05
-3.59916e-06
1.43963e-05
-3.59967e-06
1.79966e-05
-3.60036e-06
2.15979e-05
-3.60122e-06
2.52001e-05
-3.60224e-06
2.88035e-05
-3.60342e-06
3.24083e-05
-3.60475e-06
3.60145e-05
-3.60623e-06
3.96223e-05
-3.60785e-06
4.32319e-05
-3.60961e-06
4.68434e-05
-3.6115e-06
5.04569e-05
-3.6135e-06
5.40726e-05
-3.61562e-06
5.76904e-05
-3.61783e-06
6.13105e-05
-3.62014e-06
6.49331e-05
-3.62252e-06
6.8558e-05
-3.62497e-06
7.21855e-05
-3.62747e-06
7.58155e-05
-3.63e-06
7.94481e-05
-3.63257e-06
8.30832e-05
-3.63513e-06
8.67209e-05
-3.6377e-06
9.03611e-05
-3.64023e-06
9.40039e-05
-3.64273e-06
9.7649e-05
-3.64516e-06
0.000101297
-3.64751e-06
0.000104946
-3.64976e-06
0.000108598
-3.65189e-06
0.000112252
-3.65387e-06
0.000115908
-3.65569e-06
0.000119565
-3.65731e-06
0.000123224
-3.65872e-06
0.000126884
-3.6599e-06
0.000130544
-3.6608e-06
0.000134206
-3.66141e-06
0.000137868
-3.6617e-06
0.000141529
-3.66164e-06
0.00014519
-3.66121e-06
0.000148851
-3.66036e-06
0.00015251
-3.65908e-06
0.000156167
-3.65732e-06
0.000159822
-3.65507e-06
0.000163475
-3.65228e-06
0.000167123
-3.64892e-06
0.000170768
-3.64496e-06
0.000174409
-3.64036e-06
0.000178044
-3.63509e-06
0.000181673
-3.62912e-06
0.000185295
-3.6224e-06
0.00018891
-3.6149e-06
0.000192517
-3.60659e-06
0.000196114
-3.59743e-06
0.000199702
-3.58738e-06
0.000203278
-3.5764e-06
0.000206843
-3.56447e-06
0.000210394
-3.55153e-06
0.000213932
-3.53756e-06
0.000217454
-3.52252e-06
0.000220961
-3.50637e-06
0.00022445
-3.48907e-06
0.00022792
-3.4706e-06
0.000231371
-3.45091e-06
0.000234801
-3.42998e-06
0.000238209
-3.40776e-06
0.000241593
-3.38424e-06
0.000244952
-3.35937e-06
0.000248286
-3.33313e-06
0.000251591
-3.30548e-06
0.000254867
-3.27641e-06
0.000258113
-3.24588e-06
0.000261327
-3.21388e-06
0.000264508
-3.18037e-06
0.000267653
-3.14534e-06
0.000270762
-3.10877e-06
0.000273832
-3.07064e-06
0.000276863
-3.03094e-06
0.000279853
-2.98965e-06
0.0002828
-2.94678e-06
0.000285702
-2.9023e-06
0.000288558
-2.85621e-06
0.000291367
-2.80852e-06
0.000294126
-2.75922e-06
0.000296834
-2.70831e-06
0.00029949
-2.65581e-06
0.000302092
-2.60171e-06
0.000304638
-2.54604e-06
0.000307127
-2.48881e-06
0.000309557
-2.43003e-06
0.000311926
-2.36973e-06
0.000314234
-2.30793e-06
0.000316479
-2.24466e-06
0.000318659
-2.17994e-06
0.000320773
-2.11382e-06
0.000322819
-2.04632e-06
0.000324797
-1.9775e-06
0.000326704
-1.90737e-06
0.00032854
-1.836e-06
0.000330303
-1.76344e-06
0.000331993
-1.68972e-06
0.000333608
-1.6149e-06
0.000335147
-1.53904e-06
0.000336609
-1.4622e-06
0.000337994
-1.38443e-06
0.000339299
-1.3058e-06
0.000340526
-1.22637e-06
0.000341672
-1.1462e-06
0.000342737
-1.06536e-06
0.000343721
-9.8392e-07
0.000344623
-9.01948e-07
0.000345443
-8.19515e-07
0.000346179
-7.36691e-07
0.000346833
-6.53548e-07
0.000347403
-5.70159e-07
0.00034789
-4.86595e-07
0.000348293
-4.0293e-07
0.000348612
-3.19237e-07
0.000348848
-2.35586e-07
0.000349
-1.52051e-07
0.000349068
-6.87029e-08
0.000349054
1.43886e-08
0.000348957
9.71537e-08
0.000348777
1.79524e-07
0.000348516
2.61432e-07
0.000348173
3.42814e-07
0.000347749
4.23604e-07
0.000347246
5.0374e-07
0.000346662
5.83162e-07
0.000346001
6.61812e-07
0.000345261
7.39634e-07
0.000344444
8.16572e-07
0.000343552
8.92576e-07
0.000342584
9.67596e-07
0.000341543
1.04158e-06
0.000340428
1.1145e-06
0.000339242
1.18629e-06
0.000337985
1.25693e-06
0.000336659
1.32637e-06
0.000335264
1.39459e-06
0.000333802
1.46154e-06
0.000332275
1.52721e-06
0.000330684
1.59156e-06
0.000329029
1.65457e-06
0.000327313
1.71622e-06
0.000325536
1.7765e-06
0.000323701
1.83537e-06
0.000321808
1.89284e-06
0.000319859
1.9489e-06
0.000317856
2.00352e-06
0.000315799
2.05671e-06
0.000313691
2.10846e-06
0.000311532
2.15877e-06
0.000309324
2.20764e-06
0.000307069
2.25507e-06
0.000304768
2.30107e-06
0.000302422
2.34565e-06
0.000300034
2.3888e-06
0.000297603
2.43054e-06
0.000295132
2.47089e-06
0.000292622
2.50985e-06
0.000290075
2.54744e-06
0.000287491
2.58367e-06
0.000284873
2.61857e-06
0.00028222
2.65214e-06
0.000279536
2.68442e-06
0.000276821
2.71541e-06
0.000274076
2.74514e-06
0.000271302
2.77364e-06
0.000268501
2.80092e-06
0.000265674
2.82701e-06
0.000262822
2.85194e-06
0.000259946
2.87572e-06
0.000257048
2.89839e-06
0.000254128
2.91996e-06
0.000251187
2.94047e-06
0.000248228
2.95995e-06
0.000245249
2.97841e-06
0.000242253
2.99589e-06
0.000239241
3.01241e-06
0.000236213
3.028e-06
0.00023317
3.04269e-06
0.000230114
3.0565e-06
0.000227044
3.06947e-06
0.000223963
3.08161e-06
0.00022087
3.09296e-06
0.000217766
3.10354e-06
0.000214653
3.11338e-06
0.00021153
3.1225e-06
0.000208399
3.13093e-06
0.000205261
3.13871e-06
0.000202115
3.14584e-06
0.000198962
3.15236e-06
0.000195804
3.1583e-06
0.00019264
3.16367e-06
0.000189472
3.1685e-06
0.000186299
3.17281e-06
0.000183122
3.17664e-06
0.000179942
3.17999e-06
0.00017676
3.1829e-06
0.000173574
3.18538e-06
0.000170387
3.18745e-06
0.000167198
3.18915e-06
0.000164007
3.19048e-06
0.000160816
3.19147e-06
0.000157623
3.19213e-06
0.000154431
3.1925e-06
0.000151238
3.19257e-06
0.000148046
3.19238e-06
0.000144854
3.19195e-06
0.000141663
3.19128e-06
0.000138472
3.19039e-06
0.000135283
3.1893e-06
0.000132095
3.18804e-06
0.000128908
3.1866e-06
0.000125723
3.18501e-06
0.00012254
3.18328e-06
0.000119359
3.18143e-06
0.000116179
3.17947e-06
0.000113002
3.17741e-06
0.000109827
3.17526e-06
0.000106654
3.17305e-06
0.000103483
3.17077e-06
0.000100314
3.16844e-06
9.71483e-05
3.16607e-06
9.39846e-05
3.16367e-06
9.08233e-05
3.16126e-06
8.76645e-05
3.15884e-06
8.45081e-05
3.15641e-06
8.13541e-05
3.154e-06
7.82025e-05
3.15161e-06
7.50532e-05
3.14925e-06
7.19063e-05
3.14692e-06
6.87617e-05
3.14463e-06
6.56193e-05
3.14239e-06
6.24791e-05
3.14021e-06
5.9341e-05
3.13809e-06
5.6205e-05
3.13604e-06
5.30709e-05
3.13406e-06
4.99387e-05
3.13217e-06
4.68084e-05
3.13036e-06
4.36797e-05
3.12864e-06
4.05527e-05
3.12702e-06
3.74272e-05
3.12549e-06
3.43031e-05
3.12407e-06
3.11804e-05
3.12275e-06
2.80589e-05
3.12154e-06
2.49384e-05
3.12045e-06
2.18189e-05
3.11947e-06
1.87003e-05
3.11861e-06
1.55825e-05
3.11786e-06
1.24652e-05
3.11724e-06
9.34848e-06
3.11674e-06
6.23211e-06
3.11637e-06
3.11599e-06
3.11612e-06
3.11599e-06
3.59846e-06
-7.19709e-06
7.1971e-06
-7.19744e-06
1.07961e-05
-7.19814e-06
1.43956e-05
-7.19918e-06
1.79958e-05
-7.20056e-06
2.15968e-05
-7.20227e-06
2.51989e-05
-7.20432e-06
2.88022e-05
-7.20668e-06
3.24068e-05
-7.20935e-06
3.60129e-05
-7.21232e-06
3.96206e-05
-7.21557e-06
4.32301e-05
-7.2191e-06
4.68415e-05
-7.22288e-06
5.04549e-05
-7.2269e-06
5.40704e-05
-7.23114e-06
5.76881e-05
-7.23558e-06
6.13082e-05
-7.2402e-06
6.49306e-05
-7.24498e-06
6.85556e-05
-7.24988e-06
7.2183e-05
-7.2549e-06
7.5813e-05
-7.25999e-06
7.94455e-05
-7.26512e-06
8.30807e-05
-7.27028e-06
8.67184e-05
-7.27542e-06
9.03587e-05
-7.28051e-06
9.40015e-05
-7.28551e-06
9.76467e-05
-7.2904e-06
0.000101294
-7.29512e-06
0.000104944
-7.29964e-06
0.000108596
-7.30392e-06
0.00011225
-7.30791e-06
0.000115906
-7.31157e-06
0.000119564
-7.31484e-06
0.000123223
-7.31769e-06
0.000126883
-7.32006e-06
0.000130544
-7.32189e-06
0.000134206
-7.32314e-06
0.000137868
-7.32375e-06
0.00014153
-7.32367e-06
0.000145191
-7.32282e-06
0.000148852
-7.32116e-06
0.000152512
-7.31863e-06
0.00015617
-7.31515e-06
0.000159825
-7.31067e-06
0.000163478
-7.30512e-06
0.000167127
-7.29844e-06
0.000170773
-7.29055e-06
0.000174414
-7.28139e-06
0.00017805
-7.27089e-06
0.00018168
-7.25897e-06
0.000185303
-7.24558e-06
0.000188919
-7.23062e-06
0.000192526
-7.21403e-06
0.000196124
-7.19575e-06
0.000199713
-7.17568e-06
0.00020329
-7.15377e-06
0.000206856
-7.12993e-06
0.000210408
-7.1041e-06
0.000213947
-7.07619e-06
0.00021747
-7.04614e-06
0.000220978
-7.01387e-06
0.000224468
-6.97932e-06
0.00022794
-6.94241e-06
0.000231392
-6.90307e-06
0.000234823
-6.86123e-06
0.000238232
-6.81684e-06
0.000241618
-6.76982e-06
0.000244979
-6.72011e-06
0.000248313
-6.66766e-06
0.00025162
-6.61239e-06
0.000254898
-6.55427e-06
0.000258145
-6.49324e-06
0.000261361
-6.42925e-06
0.000264543
-6.36226e-06
0.00026769
-6.29221e-06
0.0002708
-6.21909e-06
0.000273872
-6.14285e-06
0.000276905
-6.06346e-06
0.000279896
-5.9809e-06
0.000282844
-5.89515e-06
0.000285748
-5.8062e-06
0.000288606
-5.71403e-06
0.000291416
-5.61864e-06
0.000294177
-5.52003e-06
0.000296887
-5.41821e-06
0.000299544
-5.3132e-06
0.000302147
-5.205e-06
0.000304695
-5.09364e-06
0.000307185
-4.97916e-06
0.000309617
-4.86158e-06
0.000311988
-4.74096e-06
0.000314298
-4.61733e-06
0.000316544
-4.49075e-06
0.000318725
-4.36129e-06
0.00032084
-4.22901e-06
0.000322888
-4.09398e-06
0.000324867
-3.95628e-06
0.000326775
-3.81599e-06
0.000328612
-3.67321e-06
0.000330377
-3.52802e-06
0.000332068
-3.38053e-06
0.000333684
-3.23084e-06
0.000335224
-3.07907e-06
0.000336687
-2.92532e-06
0.000338072
-2.76973e-06
0.000339379
-2.6124e-06
0.000340606
-2.45347e-06
0.000341753
-2.29306e-06
0.000342819
-2.13132e-06
0.000343803
-1.96837e-06
0.000344706
-1.80435e-06
0.000345526
-1.63942e-06
0.000346263
-1.4737e-06
0.000346916
-1.30734e-06
0.000347487
-1.14049e-06
0.000347973
-9.73289e-07
0.000348376
-8.05887e-07
0.000348695
-6.38427e-07
0.000348931
-4.71054e-07
0.000349083
-3.03913e-07
0.000349151
-1.37146e-07
0.000349137
2.91065e-08
0.000349039
1.94705e-07
0.000348859
3.59512e-07
0.000348597
5.23395e-07
0.000348254
6.86221e-07
0.000347829
8.47863e-07
0.000347325
1.0082e-06
0.000346741
1.1671e-06
0.000346078
1.32446e-06
0.000345338
1.48015e-06
0.00034452
1.63408e-06
0.000343627
1.78614e-06
0.000342658
1.93623e-06
0.000341615
2.08425e-06
0.0003405
2.23011e-06
0.000339312
2.37374e-06
0.000338054
2.51506e-06
0.000336727
2.65398e-06
0.000335331
2.79044e-06
0.000333868
2.92438e-06
0.000332339
3.05574e-06
0.000330747
3.18446e-06
0.000329091
3.3105e-06
0.000327373
3.43383e-06
0.000325595
3.55439e-06
0.000323758
3.67216e-06
0.000321864
3.78711e-06
0.000319914
3.89922e-06
0.000317909
4.00847e-06
0.000315851
4.11485e-06
0.000313741
4.21836e-06
0.000311581
4.31898e-06
0.000309371
4.41672e-06
0.000307115
4.51158e-06
0.000304812
4.60357e-06
0.000302465
4.69271e-06
0.000300075
4.77901e-06
0.000297643
4.86249e-06
0.000295171
4.94317e-06
0.00029266
5.02107e-06
0.000290111
5.09623e-06
0.000287526
5.16869e-06
0.000284906
5.23846e-06
0.000282253
5.30559e-06
0.000279567
5.37011e-06
0.00027685
5.43208e-06
0.000274104
5.49152e-06
0.000271329
5.54849e-06
0.000268527
5.60303e-06
0.000265699
5.65519e-06
0.000262846
5.70501e-06
0.000259969
5.75255e-06
0.000257069
5.79786e-06
0.000254148
5.84099e-06
0.000251207
5.88198e-06
0.000248246
5.9209e-06
0.000245266
5.9578e-06
0.00024227
5.99273e-06
0.000239256
6.02575e-06
0.000236227
6.0569e-06
0.000233184
6.08625e-06
0.000230126
6.11385e-06
0.000227056
6.13975e-06
0.000223974
6.16401e-06
0.00022088
6.18668e-06
0.000217776
6.20781e-06
0.000214662
6.22746e-06
0.000211539
6.24569e-06
0.000208407
6.26253e-06
0.000205268
6.27805e-06
0.000202121
6.29229e-06
0.000198968
6.30531e-06
0.000195809
6.31715e-06
0.000192645
6.32787e-06
0.000189476
6.33751e-06
0.000186303
6.34612e-06
0.000183126
6.35374e-06
0.000179945
6.36043e-06
0.000176762
6.36622e-06
0.000173576
6.37116e-06
0.000170388
6.37529e-06
0.000167199
6.37866e-06
0.000164008
6.3813e-06
0.000160816
6.38326e-06
0.000157624
6.38457e-06
0.000154431
6.38528e-06
0.000151238
6.38541e-06
0.000148046
6.38502e-06
0.000144853
6.38412e-06
0.000141662
6.38276e-06
0.000138471
6.38098e-06
0.000135282
6.37879e-06
0.000132094
6.37624e-06
0.000128907
6.37335e-06
0.000125722
6.37016e-06
0.000122538
6.36669e-06
0.000119357
6.36297e-06
0.000116177
6.35904e-06
0.000113
6.3549e-06
0.000109824
6.3506e-06
0.000106651
6.34615e-06
0.00010348
6.34158e-06
0.000100312
6.33691e-06
9.71458e-05
6.33216e-06
9.39821e-05
6.32736e-06
9.08209e-05
6.32252e-06
8.7662e-05
6.31767e-06
8.45056e-05
6.31282e-06
8.13517e-05
6.30799e-06
7.82001e-05
6.30319e-06
7.50509e-05
6.29846e-06
7.1904e-05
6.29379e-06
6.87594e-05
6.28921e-06
6.56171e-05
6.28472e-06
6.24769e-05
6.28035e-06
5.93389e-05
6.27611e-06
5.6203e-05
6.272e-06
5.3069e-05
6.26805e-06
4.99369e-05
6.26425e-06
4.68066e-05
6.26063e-06
4.36781e-05
6.25719e-06
4.05512e-05
6.25393e-06
3.74258e-05
6.25088e-06
3.43018e-05
6.24803e-06
3.11792e-05
6.24539e-06
2.80577e-05
6.24297e-06
2.49374e-05
6.24078e-06
2.18181e-05
6.23882e-06
1.86996e-05
6.23709e-06
1.55818e-05
6.23561e-06
1.24647e-05
6.23436e-06
9.3481e-06
6.23336e-06
6.23186e-06
6.23261e-06
3.11587e-06
6.23211e-06
6.23186e-06
3.59811e-06
-1.07952e-05
7.1964e-06
-1.07957e-05
1.0795e-05
-1.07968e-05
1.43942e-05
-1.07983e-05
1.79941e-05
-1.08004e-05
2.15948e-05
-1.0803e-05
2.51966e-05
-1.08061e-05
2.87995e-05
-1.08096e-05
3.24038e-05
-1.08137e-05
3.60096e-05
-1.08181e-05
3.96171e-05
-1.0823e-05
4.32263e-05
-1.08283e-05
4.68374e-05
-1.0834e-05
5.04506e-05
-1.08401e-05
5.40659e-05
-1.08465e-05
5.76835e-05
-1.08532e-05
6.13034e-05
-1.08601e-05
6.49257e-05
-1.08673e-05
6.85505e-05
-1.08747e-05
7.21779e-05
-1.08822e-05
7.58078e-05
-1.08899e-05
7.94404e-05
-1.08977e-05
8.30755e-05
-1.09054e-05
8.67133e-05
-1.09132e-05
9.03537e-05
-1.09209e-05
9.39966e-05
-1.09284e-05
9.7642e-05
-1.09358e-05
0.00010129
-1.09429e-05
0.00010494
-1.09498e-05
0.000108592
-1.09562e-05
0.000112247
-1.09623e-05
0.000115903
-1.09678e-05
0.000119561
-1.09728e-05
0.00012322
-1.09771e-05
0.000126881
-1.09808e-05
0.000130543
-1.09836e-05
0.000134205
-1.09855e-05
0.000137868
-1.09865e-05
0.000141531
-1.09864e-05
0.000145193
-1.09853e-05
0.000148855
-1.09828e-05
0.000152515
-1.09791e-05
0.000156174
-1.0974e-05
0.000159831
-1.09673e-05
0.000163485
-1.09591e-05
0.000167135
-1.09492e-05
0.000170782
-1.09374e-05
0.000174425
-1.09238e-05
0.000178062
-1.09081e-05
0.000181693
-1.08903e-05
0.000185318
-1.08703e-05
0.000188935
-1.0848e-05
0.000192544
-1.08232e-05
0.000196144
-1.07958e-05
0.000199735
-1.07658e-05
0.000203314
-1.07331e-05
0.000206881
-1.06974e-05
0.000210436
-1.06587e-05
0.000213977
-1.0617e-05
0.000217503
-1.0572e-05
0.000221012
-1.05237e-05
0.000224505
-1.04719e-05
0.000227979
-1.04166e-05
0.000231434
-1.03577e-05
0.000234868
-1.02951e-05
0.000238279
-1.02285e-05
0.000241668
-1.01581e-05
0.000245031
-1.00836e-05
0.000248369
-1.0005e-05
0.000251678
-9.92217e-06
0.000254959
-9.83505e-06
0.000258209
-9.74356e-06
0.000261428
-9.64763e-06
0.000264613
-9.54719e-06
0.000267763
-9.44217e-06
0.000270876
-9.33253e-06
0.000273951
-9.2182e-06
0.000276987
-9.09915e-06
0.000279982
-8.97534e-06
0.000282933
-8.84673e-06
0.00028584
-8.71331e-06
0.000288701
-8.57506e-06
0.000291515
-8.43198e-06
0.000294279
-8.28406e-06
0.000296992
-8.13132e-06
0.000299652
-7.97377e-06
0.000302259
-7.81144e-06
0.00030481
-7.64437e-06
0.000307303
-7.4726e-06
0.000309738
-7.29618e-06
0.000312112
-7.11518e-06
0.000314424
-6.92968e-06
0.000316673
-6.73974e-06
0.000318857
-6.54546e-06
0.000320975
-6.34695e-06
0.000323026
-6.14431e-06
0.000325007
-5.93765e-06
0.000326918
-5.72711e-06
0.000328758
-5.51281e-06
0.000330525
-5.2949e-06
0.000332218
-5.07354e-06
0.000333836
-4.84887e-06
0.000335378
-4.62107e-06
0.000336843
-4.3903e-06
0.00033823
-4.15675e-06
0.000339538
-3.9206e-06
0.000340766
-3.68204e-06
0.000341915
-3.44126e-06
0.000342982
-3.19848e-06
0.000343967
-2.95388e-06
0.000344871
-2.70769e-06
0.000345691
-2.4601e-06
0.000346429
-2.21134e-06
0.000347083
-1.96163e-06
0.000347654
-1.71117e-06
0.000348141
-1.46019e-06
0.000348544
-1.2089e-06
0.000348863
-9.5753e-07
0.000349098
-7.06292e-07
0.00034925
-4.55401e-07
0.000349318
-2.05074e-07
0.000349302
4.4478e-08
0.000349204
2.93046e-07
0.000349023
5.40425e-07
0.00034876
7.86413e-07
0.000348415
1.03081e-06
0.00034799
1.27343e-06
0.000347484
1.51408e-06
0.000346898
1.75258e-06
0.000346234
1.98876e-06
0.000345492
2.22244e-06
0.000344672
2.45346e-06
0.000343777
2.68167e-06
0.000342806
2.90692e-06
0.000341761
3.12906e-06
0.000340644
3.34797e-06
0.000339454
3.56351e-06
0.000338193
3.77557e-06
0.000336863
3.98404e-06
0.000335465
4.18881e-06
0.000333999
4.38979e-06
0.000332468
4.58689e-06
0.000330873
4.78004e-06
0.000329214
4.96916e-06
0.000327494
5.15419e-06
0.000325713
5.33507e-06
0.000323873
5.51176e-06
0.000321976
5.68421e-06
0.000320023
5.8524e-06
0.000318015
6.0163e-06
0.000315954
6.17588e-06
0.000313841
6.33114e-06
0.000311678
6.48207e-06
0.000309466
6.62867e-06
0.000307207
6.77096e-06
0.000304902
6.90893e-06
0.000302552
7.04262e-06
0.000300159
7.17204e-06
0.000297724
7.29723e-06
0.000295249
7.41821e-06
0.000292735
7.53504e-06
0.000290183
7.64774e-06
0.000287596
7.75637e-06
0.000284973
7.86099e-06
0.000282317
7.96164e-06
0.000279629
8.05837e-06
0.00027691
8.15127e-06
0.000274161
8.24038e-06
0.000271384
8.32578e-06
0.000268579
8.40753e-06
0.000265749
8.4857e-06
0.000262893
8.56037e-06
0.000260014
8.63162e-06
0.000257113
8.69952e-06
0.000254189
8.76414e-06
0.000251246
8.82557e-06
0.000248283
8.88388e-06
0.000245301
8.93916e-06
0.000242303
8.99149e-06
0.000239287
9.04094e-06
0.000236257
9.08761e-06
0.000233211
9.13156e-06
0.000230152
9.17289e-06
0.00022708
9.21168e-06
0.000223996
9.248e-06
0.000220901
9.28194e-06
0.000217795
9.31357e-06
0.00021468
9.34298e-06
0.000211555
9.37025e-06
0.000208422
9.39545e-06
0.000205282
9.41867e-06
0.000202134
9.43997e-06
0.00019898
9.45943e-06
0.00019582
9.47714e-06
0.000192655
9.49315e-06
0.000189485
9.50755e-06
0.00018631
9.52041e-06
0.000183132
9.53179e-06
0.000179951
9.54176e-06
0.000176767
9.55039e-06
0.00017358
9.55775e-06
0.000170392
9.56389e-06
0.000167201
9.56889e-06
0.00016401
9.5728e-06
0.000160818
9.57569e-06
0.000157624
9.57761e-06
0.000154431
9.57863e-06
0.000151238
9.57879e-06
0.000148045
9.57815e-06
0.000144852
9.57676e-06
0.00014166
9.57468e-06
0.000138469
9.57196e-06
0.000135279
9.56864e-06
0.000132091
9.56478e-06
0.000128904
9.56041e-06
0.000125718
9.55559e-06
0.000122535
9.55035e-06
0.000119353
9.54474e-06
0.000116173
9.5388e-06
0.000112995
9.53257e-06
0.00010982
9.52608e-06
0.000106647
9.51938e-06
0.000103476
9.51249e-06
0.000100307
9.50546e-06
9.7141e-05
9.49832e-06
9.39773e-05
9.49109e-06
9.0816e-05
9.48381e-06
8.76572e-05
9.4765e-06
8.45008e-05
9.4692e-06
8.13469e-05
9.46193e-06
7.81953e-05
9.45472e-06
7.50462e-05
9.4476e-06
7.18994e-05
9.44058e-06
6.87549e-05
9.43368e-06
6.56127e-05
9.42694e-06
6.24727e-05
9.42037e-06
5.93348e-05
9.41399e-06
5.6199e-05
9.40782e-06
5.30652e-05
9.40187e-06
4.99333e-05
9.39616e-06
4.68032e-05
9.39072e-06
4.36748e-05
9.38554e-06
4.05481e-05
9.38065e-06
3.74229e-05
9.37606e-06
3.42992e-05
9.37178e-06
3.11768e-05
9.36781e-06
2.80556e-05
9.36418e-06
2.49355e-05
9.36088e-06
2.18163e-05
9.35794e-06
1.86981e-05
9.35534e-06
1.55806e-05
9.3531e-06
1.24637e-05
9.35123e-06
9.34735e-06
9.34973e-06
6.23136e-06
9.3486e-06
3.11562e-06
9.34785e-06
9.34748e-06
3.59759e-06
-1.43928e-05
7.19535e-06
-1.43935e-05
1.07935e-05
-1.43949e-05
1.43921e-05
-1.4397e-05
1.79915e-05
-1.43998e-05
2.15917e-05
-1.44032e-05
2.5193e-05
-1.44074e-05
2.87955e-05
-1.44121e-05
3.23993e-05
-1.44175e-05
3.60047e-05
-1.44235e-05
3.96117e-05
-1.44301e-05
4.32206e-05
-1.44372e-05
4.68314e-05
-1.44448e-05
5.04442e-05
-1.44529e-05
5.40592e-05
-1.44615e-05
5.76765e-05
-1.44704e-05
6.12962e-05
-1.44798e-05
6.49183e-05
-1.44894e-05
6.8543e-05
-1.44993e-05
7.21702e-05
-1.45095e-05
7.58001e-05
-1.45198e-05
7.94326e-05
-1.45302e-05
8.30678e-05
-1.45406e-05
8.67056e-05
-1.4551e-05
9.03461e-05
-1.45614e-05
9.39892e-05
-1.45715e-05
9.76348e-05
-1.45814e-05
0.000101283
-1.4591e-05
0.000104933
-1.46003e-05
0.000108586
-1.4609e-05
0.000112241
-1.46172e-05
0.000115898
-1.46247e-05
0.000119556
-1.46314e-05
0.000123217
-1.46373e-05
0.000126878
-1.46422e-05
0.000130541
-1.46461e-05
0.000134204
-1.46488e-05
0.000137868
-1.46503e-05
0.000141532
-1.46504e-05
0.000145195
-1.46489e-05
0.000148858
-1.46458e-05
0.00015252
-1.4641e-05
0.000156181
-1.46343e-05
0.000159839
-1.46256e-05
0.000163495
-1.46148e-05
0.000167147
-1.46017e-05
0.000170796
-1.45862e-05
0.00017444
-1.45682e-05
0.00017808
-1.45474e-05
0.000181713
-1.45239e-05
0.00018534
-1.44974e-05
0.00018896
-1.44678e-05
0.000192572
-1.44349e-05
0.000196174
-1.43986e-05
0.000199767
-1.43588e-05
0.00020335
-1.43152e-05
0.00020692
-1.42679e-05
0.000210478
-1.42165e-05
0.000214022
-1.4161e-05
0.000217551
-1.41011e-05
0.000221064
-1.40369e-05
0.00022456
-1.39681e-05
0.000228038
-1.38945e-05
0.000231497
-1.38161e-05
0.000234934
-1.37327e-05
0.00023835
-1.36442e-05
0.000241742
-1.35504e-05
0.00024511
-1.34512e-05
0.000248451
-1.33465e-05
0.000251765
-1.32362e-05
0.000255051
-1.31202e-05
0.000258305
-1.29983e-05
0.000261528
-1.28705e-05
0.000264718
-1.27367e-05
0.000267872
-1.25968e-05
0.00027099
-1.24507e-05
0.000274071
-1.22983e-05
0.000277111
-1.21396e-05
0.00028011
-1.19746e-05
0.000283067
-1.18031e-05
0.000285979
-1.16253e-05
0.000288844
-1.14409e-05
0.000291663
-1.12502e-05
0.000294431
-1.10529e-05
0.000297149
-1.08492e-05
0.000299815
-1.06391e-05
0.000302426
-1.04226e-05
0.000304981
-1.01998e-05
0.000307479
-9.97069e-06
0.000309919
-9.73537e-06
0.000312297
-9.49392e-06
0.000314614
-9.24645e-06
0.000316867
-8.99306e-06
0.000319056
-8.73387e-06
0.000321178
-8.46902e-06
0.000323232
-8.19865e-06
0.000325218
-7.92291e-06
0.000327132
-7.64197e-06
0.000328976
-7.35602e-06
0.000330746
-7.06525e-06
0.000332442
-6.76985e-06
0.000334063
-6.47004e-06
0.000335608
-6.16603e-06
0.000337076
-5.85807e-06
0.000338466
-5.54638e-06
0.000339776
-5.23121e-06
0.000341007
-4.91283e-06
0.000342157
-4.59148e-06
0.000343226
-4.26745e-06
0.000344214
-3.941e-06
0.000345118
-3.61241e-06
0.00034594
-3.28196e-06
0.000346679
-2.94995e-06
0.000347334
-2.61665e-06
0.000347905
-2.28237e-06
0.000348392
-1.94739e-06
0.000348795
-1.612e-06
0.000349114
-1.2765e-06
0.000349349
-9.41181e-07
0.0003495
-6.06328e-07
0.000349567
-2.72229e-07
0.000349551
6.08326e-08
0.000349451
3.92577e-07
0.000349269
7.22729e-07
0.000349004
1.05102e-06
0.000348658
1.37718e-06
0.00034823
1.70097e-06
0.000347722
2.02212e-06
0.000347135
2.34039e-06
0.000346468
2.65555e-06
0.000345723
2.96738e-06
0.000344901
3.27566e-06
0.000344002
3.58017e-06
0.000343028
3.88072e-06
0.00034198
4.17712e-06
0.000340859
4.46919e-06
0.000339666
4.75676e-06
0.000338402
5.03968e-06
0.000337068
5.3178e-06
0.000335666
5.59097e-06
0.000334197
5.85908e-06
0.000332661
6.12201e-06
0.000331062
6.37965e-06
0.000329399
6.63191e-06
0.000327675
6.8787e-06
0.00032589
7.11995e-06
0.000324046
7.35559e-06
0.000322145
7.58559e-06
0.000320187
7.80988e-06
0.000318175
8.02843e-06
0.00031611
8.24123e-06
0.000313992
8.44825e-06
0.000311825
8.64949e-06
0.000309609
8.84495e-06
0.000307345
9.03464e-06
0.000305035
9.21858e-06
0.000302681
9.39679e-06
0.000300284
9.56931e-06
0.000297845
9.73617e-06
0.000295366
9.89742e-06
0.000292848
1.00531e-05
0.000290292
1.02033e-05
0.0002877
1.03481e-05
0.000285074
1.04875e-05
0.000282414
1.06216e-05
0.000279722
1.07505e-05
0.000276999
1.08742e-05
0.000274246
1.0993e-05
0.000271465
1.11067e-05
0.000268657
1.12156e-05
0.000265823
1.13197e-05
0.000262965
1.14192e-05
0.000260082
1.1514e-05
0.000257177
1.16044e-05
0.000254251
1.16905e-05
0.000251304
1.17723e-05
0.000248338
1.18499e-05
0.000245354
1.19235e-05
0.000242352
1.19931e-05
0.000239334
1.20589e-05
0.000236301
1.2121e-05
0.000233253
1.21795e-05
0.000230191
1.22345e-05
0.000227117
1.22861e-05
0.00022403
1.23344e-05
0.000220933
1.23795e-05
0.000217825
1.24216e-05
0.000214707
1.24606e-05
0.000211581
1.24969e-05
0.000208446
1.25304e-05
0.000205303
1.25612e-05
0.000202154
1.25895e-05
0.000198998
1.26153e-05
0.000195836
1.26388e-05
0.000192669
1.26601e-05
0.000189498
1.26791e-05
0.000186322
1.26962e-05
0.000183142
1.27112e-05
0.00017996
1.27244e-05
0.000176774
1.27358e-05
0.000173587
1.27455e-05
0.000170397
1.27536e-05
0.000167205
1.27602e-05
0.000164013
1.27653e-05
0.000160819
1.27691e-05
0.000157626
1.27716e-05
0.000154431
1.27728e-05
0.000151237
1.2773e-05
0.000148043
1.2772e-05
0.00014485
1.27701e-05
0.000141657
1.27672e-05
0.000138466
1.27635e-05
0.000135275
1.2759e-05
0.000132086
1.27538e-05
0.000128899
1.27479e-05
0.000125713
1.27414e-05
0.000122529
1.27344e-05
0.000119347
1.27268e-05
0.000116167
1.27189e-05
0.000112989
1.27105e-05
0.000109813
1.27018e-05
0.00010664
1.26928e-05
0.000103469
1.26836e-05
0.0001003
1.26741e-05
9.71338e-05
1.26646e-05
9.39701e-05
1.26549e-05
9.08088e-05
1.26451e-05
8.76499e-05
1.26353e-05
8.44936e-05
1.26256e-05
8.13397e-05
1.26158e-05
7.81882e-05
1.26062e-05
7.50392e-05
1.25966e-05
7.18925e-05
1.25872e-05
6.87482e-05
1.2578e-05
6.56062e-05
1.2569e-05
6.24663e-05
1.25602e-05
5.93287e-05
1.25517e-05
5.61931e-05
1.25434e-05
5.30595e-05
1.25355e-05
4.99278e-05
1.25278e-05
4.6798e-05
1.25205e-05
4.367e-05
1.25136e-05
4.05435e-05
1.25071e-05
3.74187e-05
1.25009e-05
3.42952e-05
1.24952e-05
3.11731e-05
1.24899e-05
2.80523e-05
1.2485e-05
2.49325e-05
1.24806e-05
2.18137e-05
1.24767e-05
1.86959e-05
1.24732e-05
1.55787e-05
1.24702e-05
1.24622e-05
1.24677e-05
9.34622e-06
1.24657e-05
6.2306e-06
1.24642e-05
3.11524e-06
1.24632e-05
1.24627e-05
3.59688e-06
-1.79897e-05
7.19395e-06
-1.79906e-05
1.07914e-05
-1.79923e-05
1.43893e-05
-1.7995e-05
1.7988e-05
-1.79985e-05
2.15876e-05
-1.80028e-05
2.51882e-05
-1.8008e-05
2.87901e-05
-1.8014e-05
3.23933e-05
-1.80208e-05
3.59981e-05
-1.80283e-05
3.96046e-05
-1.80365e-05
4.3213e-05
-1.80455e-05
4.68232e-05
-1.80551e-05
5.04356e-05
-1.80653e-05
5.40503e-05
-1.80761e-05
5.76672e-05
-1.80874e-05
6.12865e-05
-1.80991e-05
6.49084e-05
-1.81113e-05
6.85328e-05
-1.81238e-05
7.21599e-05
-1.81366e-05
7.57897e-05
-1.81495e-05
7.94221e-05
-1.81626e-05
8.30573e-05
-1.81758e-05
8.66953e-05
-1.8189e-05
9.03359e-05
-1.8202e-05
9.39792e-05
-1.82148e-05
9.76252e-05
-1.82274e-05
0.000101274
-1.82396e-05
0.000104925
-1.82512e-05
0.000108578
-1.82623e-05
0.000112234
-1.82727e-05
0.000115891
-1.82822e-05
0.000119551
-1.82909e-05
0.000123212
-1.82984e-05
0.000126874
-1.83048e-05
0.000130538
-1.83098e-05
0.000134203
-1.83135e-05
0.000137868
-1.83155e-05
0.000141533
-1.83158e-05
0.000145198
-1.83142e-05
0.000148863
-1.83106e-05
0.000152527
-1.83048e-05
0.000156189
-1.82967e-05
0.00015985
-1.8286e-05
0.000163508
-1.82727e-05
0.000167163
-1.82566e-05
0.000170814
-1.82375e-05
0.000174461
-1.82152e-05
0.000178103
-1.81896e-05
0.00018174
-1.81604e-05
0.00018537
-1.81276e-05
0.000188993
-1.80908e-05
0.000192608
-1.805e-05
0.000196214
-1.80049e-05
0.000199811
-1.79554e-05
0.000203397
-1.79013e-05
0.000206971
-1.78423e-05
0.000210533
-1.77784e-05
0.000214082
-1.77092e-05
0.000217615
-1.76347e-05
0.000221133
-1.75547e-05
0.000224634
-1.74689e-05
0.000228117
-1.73773e-05
0.00023158
-1.72795e-05
0.000235023
-1.71755e-05
0.000238444
-1.70651e-05
0.000241841
-1.69481e-05
0.000245215
-1.68243e-05
0.000248562
-1.66937e-05
0.000251881
-1.6556e-05
0.000255172
-1.64112e-05
0.000258433
-1.6259e-05
0.000261662
-1.60994e-05
0.000264858
-1.59323e-05
0.000268018
-1.57575e-05
0.000271143
-1.5575e-05
0.000274229
-1.53847e-05
0.000277276
-1.51864e-05
0.000280282
-1.49802e-05
0.000283245
-1.4766e-05
0.000286163
-1.45437e-05
0.000289035
-1.43133e-05
0.00029186
-1.40748e-05
0.000294635
-1.38282e-05
0.00029736
-1.35736e-05
0.000300031
-1.33109e-05
0.000302649
-1.30402e-05
0.000305211
-1.27615e-05
0.000307715
-1.2475e-05
0.00031016
-1.21807e-05
0.000312545
-1.18787e-05
0.000314868
-1.15692e-05
0.000317127
-1.12522e-05
0.000319321
-1.0928e-05
0.000321448
-1.05966e-05
0.000323508
-1.02584e-05
0.000325499
-9.91336e-06
0.000327418
-9.56186e-06
0.000329266
-9.20407e-06
0.000331041
-8.84022e-06
0.000332742
-8.47058e-06
0.000334368
-8.0954e-06
0.000335916
-7.71496e-06
0.000337388
-7.32955e-06
0.000338781
-6.93948e-06
0.000340095
-6.54505e-06
0.000341329
-6.14657e-06
0.000342482
-5.74439e-06
0.000343553
-5.33884e-06
0.000344542
-4.93025e-06
0.000345449
-4.51899e-06
0.000346272
-4.10539e-06
0.000347012
-3.68983e-06
0.000347668
-3.27267e-06
0.00034824
-2.85427e-06
0.000348728
-2.435e-06
0.000349131
-2.01522e-06
0.00034945
-1.5953e-06
0.000349684
-1.1756e-06
0.000349834
-7.565e-07
0.0003499
-3.38346e-07
0.000349883
7.85039e-08
0.000349782
4.93699e-07
0.000349597
9.06893e-07
0.000349331
1.31775e-06
0.000348982
1.72594e-06
0.000348552
2.13114e-06
0.000348041
2.53303e-06
0.00034745
2.93131e-06
0.00034678
3.32569e-06
0.000346031
3.71588e-06
0.000345205
4.10161e-06
0.000344303
4.48262e-06
0.000343325
4.85866e-06
0.000342273
5.2295e-06
0.000341147
5.59491e-06
0.000339949
5.95467e-06
0.00033868
6.3086e-06
0.000337341
6.6565e-06
0.000335934
6.9982e-06
0.00033446
7.33356e-06
0.000332919
7.66241e-06
0.000331314
7.98464e-06
0.000329646
8.30012e-06
0.000327916
8.60874e-06
0.000326125
8.91043e-06
0.000324276
9.20509e-06
0.000322369
9.49266e-06
0.000320406
9.77308e-06
0.000318388
1.00463e-05
0.000316317
1.03124e-05
0.000314194
1.05711e-05
0.000312021
1.08227e-05
0.000309799
1.1067e-05
0.000307529
1.13041e-05
0.000305214
1.1534e-05
0.000302854
1.17567e-05
0.000300451
1.19722e-05
0.000298006
1.21807e-05
0.000295522
1.23822e-05
0.000292998
1.25767e-05
0.000290437
1.27643e-05
0.00028784
1.29452e-05
0.000285208
1.31193e-05
0.000282543
1.32868e-05
0.000279846
1.34477e-05
0.000277118
1.36023e-05
0.00027436
1.37505e-05
0.000271574
1.38925e-05
0.000268762
1.40284e-05
0.000265923
1.41584e-05
0.00026306
1.42825e-05
0.000260173
1.44009e-05
0.000257263
1.45137e-05
0.000254333
1.46211e-05
0.000251382
1.47231e-05
0.000248412
1.482e-05