/*--------------------------------*- C++ -*----------------------------------*\
| =========                 |                                                 |
| \\      /  F ield         | OpenFOAM: The Open Source CFD Toolbox           |
|  \\    /   O peration     | Version:  v2012                                 |
|   \\  /    A nd           | Website:  www.openfoam.com                      |
|    \\/     M anipulation  |                                                 |
\*---------------------------------------------------------------------------*/
FoamFile
{
    version     2.0;
    format      ascii;
    class       volScalarField;
    location    "12";
    object      W;
}
// * * * * * * * * * * * * * * * * * * * * * * * * * * * * * * * * * * * * * //

dimensions      [0 0 -1 0 0 0 0];


internalField   nonuniform List<scalar> 
65536
(
2.14099e-16
2.16594e-16
2.24771e-16
2.38738e-16
2.58733e-16
2.85124e-16
3.1841e-16
3.59234e-16
4.08387e-16
4.66823e-16
5.35673e-16
6.16262e-16
7.1013e-16
8.19055e-16
9.45081e-16
1.09055e-15
1.25812e-15
1.45084e-15
1.67216e-15
1.92597e-15
2.21669e-15
2.54931e-15
2.92945e-15
3.36342e-15
3.85835e-15
4.42218e-15
5.06388e-15
5.79342e-15
6.62198e-15
7.56203e-15
8.62747e-15
9.83376e-15
1.11981e-14
1.27395e-14
1.44792e-14
1.64404e-14
1.86491e-14
2.11338e-14
2.39258e-14
2.70598e-14
3.05735e-14
3.45087e-14
3.89108e-14
4.38297e-14
4.93196e-14
5.54397e-14
6.22543e-14
6.98332e-14
7.82522e-14
8.75932e-14
9.79445e-14
1.09401e-13
1.22067e-13
1.3605e-13
1.51469e-13
1.68451e-13
1.8713e-13
2.07648e-13
2.3016e-13
2.54825e-13
2.81816e-13
3.11312e-13
3.43503e-13
3.78589e-13
4.1678e-13
4.58293e-13
5.03356e-13
5.52207e-13
6.05091e-13
6.62262e-13
7.23981e-13
7.90517e-13
8.62145e-13
9.39145e-13
1.0218e-12
1.1104e-12
1.20524e-12
1.30661e-12
1.4148e-12
1.53009e-12
1.65279e-12
1.78315e-12
1.92147e-12
2.068e-12
2.223e-12
2.38671e-12
2.55936e-12
2.74115e-12
2.93226e-12
3.13288e-12
3.34313e-12
3.56314e-12
3.79299e-12
4.03274e-12
4.2824e-12
4.54196e-12
4.81137e-12
5.09054e-12
5.37933e-12
5.67755e-12
5.98498e-12
6.30135e-12
6.62633e-12
6.95955e-12
7.30056e-12
7.6489e-12
8.00402e-12
8.36533e-12
8.73216e-12
9.10382e-12
9.47953e-12
9.85847e-12
1.02397e-11
1.06224e-11
1.10055e-11
1.13879e-11
1.17685e-11
1.21462e-11
1.25197e-11
1.28878e-11
1.32492e-11
1.36024e-11
1.39462e-11
1.42789e-11
1.45993e-11
1.49058e-11
1.51968e-11
1.54709e-11
1.57265e-11
1.59621e-11
1.61762e-11
1.63673e-11
1.65339e-11
1.66746e-11
1.67881e-11
1.68732e-11
1.69285e-11
1.6953e-11
1.69458e-11
1.6906e-11
1.68329e-11
1.67261e-11
1.65851e-11
1.64098e-11
1.62004e-11
1.5957e-11
1.56801e-11
1.53707e-11
1.50296e-11
1.46581e-11
1.42578e-11
1.38304e-11
1.3378e-11
1.29027e-11
1.24071e-11
1.18938e-11
1.13656e-11
1.08257e-11
1.0277e-11
9.72289e-12
9.16659e-12
8.6114e-12
8.0606e-12
7.51741e-12
6.98496e-12
6.46623e-12
5.96403e-12
5.48099e-12
5.01948e-12
4.58161e-12
4.16923e-12
3.78389e-12
3.42682e-12
3.09894e-12
2.80087e-12
2.53292e-12
2.29507e-12
2.08704e-12
1.90825e-12
1.75787e-12
1.63479e-12
1.53771e-12
1.46509e-12
1.4152e-12
1.38613e-12
1.37581e-12
1.38205e-12
1.40251e-12
1.43479e-12
1.47641e-12
1.52485e-12
1.57761e-12
1.63218e-12
1.68617e-12
1.73726e-12
1.78332e-12
1.82239e-12
1.85275e-12
1.87298e-12
1.88193e-12
1.8788e-12
1.86314e-12
1.83483e-12
1.79411e-12
1.74154e-12
1.67799e-12
1.60459e-12
1.52268e-12
1.43378e-12
1.33951e-12
1.24156e-12
1.14159e-12
1.04123e-12
9.41994e-13
8.45252e-13
7.52205e-13
6.63856e-13
5.80999e-13
5.04219e-13
4.33893e-13
3.70209e-13
3.13178e-13
2.62661e-13
2.18395e-13
1.80017e-13
1.47093e-13
1.19141e-13
9.56537e-14
7.61204e-14
6.00402e-14
4.69365e-14
3.63656e-14
2.79234e-14
2.12486e-14
1.60236e-14
1.19741e-14
8.86688e-15
6.50617e-15
4.73037e-15
3.40773e-15
2.43234e-15
1.72012e-15
1.20519e-15
8.36571e-16
5.75291e-16
3.91922e-16
2.64506e-16
1.7685e-16
1.17155e-16
7.69234e-17
5.01118e-17
3.24785e-17
2.10932e-17
1.39758e-17
9.83774e-18
7.90478e-18
3.22739e-16
3.26492e-16
3.38811e-16
3.59859e-16
3.89993e-16
4.29767e-16
4.79935e-16
5.41465e-16
6.15551e-16
7.03631e-16
8.0741e-16
9.28886e-16
1.07038e-15
1.23458e-15
1.42456e-15
1.64384e-15
1.89646e-15
2.18699e-15
2.52061e-15
2.90323e-15
3.34148e-15
3.84287e-15
4.41588e-15
5.07001e-15
5.81596e-15
6.66572e-15
7.63273e-15
8.73201e-15
9.98036e-15
1.13965e-14
1.30013e-14
1.48179e-14
1.68721e-14
1.91924e-14
2.18106e-14
2.47614e-14
2.80836e-14
3.18197e-14
3.60164e-14
4.07252e-14
4.60026e-14
5.19102e-14
5.85155e-14
6.58923e-14
7.41209e-14
8.32883e-14
9.34895e-14
1.04827e-13
1.17412e-13
1.31363e-13
1.46811e-13
1.63894e-13
1.82759e-13
2.03567e-13
2.26488e-13
2.51703e-13
2.79404e-13
3.09795e-13
3.43094e-13
3.79528e-13
4.19338e-13
4.62777e-13
5.10109e-13
5.61609e-13
6.17567e-13
6.78281e-13
7.44059e-13
8.15222e-13
8.92098e-13
9.75022e-13
1.06434e-12
1.1604e-12
1.26355e-12
1.37415e-12
1.49256e-12
1.61914e-12
1.75424e-12
1.8982e-12
2.05138e-12
2.2141e-12
2.38669e-12
2.56945e-12
2.76268e-12
2.96664e-12
3.18157e-12
3.40771e-12
3.64524e-12
3.89433e-12
4.1551e-12
4.42764e-12
4.71201e-12
5.00821e-12
5.31622e-12
5.63593e-12
5.96723e-12
6.30992e-12
6.66378e-12
7.02849e-12
7.40372e-12
7.78906e-12
8.18403e-12
8.5881e-12
9.0007e-12
9.42115e-12
9.84876e-12
1.02827e-11
1.07223e-11
1.11664e-11
1.16143e-11
1.20648e-11
1.25169e-11
1.29694e-11
1.34213e-11
1.38711e-11
1.43177e-11
1.47597e-11
1.51957e-11
1.56243e-11
1.60441e-11
1.64534e-11
1.68508e-11
1.72348e-11
1.76037e-11
1.79559e-11
1.82899e-11
1.8604e-11
1.88966e-11
1.91662e-11
1.9411e-11
1.96297e-11
1.98206e-11
1.99824e-11
2.01136e-11
2.02128e-11
2.0279e-11
2.03108e-11
2.03074e-11
2.02677e-11
2.01911e-11
2.0077e-11
1.99249e-11
1.97346e-11
1.95062e-11
1.92397e-11
1.89357e-11
1.85948e-11
1.82179e-11
1.78062e-11
1.73612e-11
1.68844e-11
1.6378e-11
1.58441e-11
1.52851e-11
1.47038e-11
1.41031e-11
1.3486e-11
1.28558e-11
1.2216e-11
1.15699e-11
1.09212e-11
1.02735e-11
9.63039e-12
8.99533e-12
8.3718e-12
7.76311e-12
7.17238e-12
6.60255e-12
6.05629e-12
5.53602e-12
5.04385e-12
4.5816e-12
4.15072e-12
3.75237e-12
3.38735e-12
3.05611e-12
2.75879e-12
2.4952e-12
2.26484e-12
2.06692e-12
1.90038e-12
1.7639e-12
1.65591e-12
1.57466e-12
1.51818e-12
1.48431e-12
1.47077e-12
1.47513e-12
1.49483e-12
1.52727e-12
1.56975e-12
1.61957e-12
1.67403e-12
1.73047e-12
1.78631e-12
1.83912e-12
1.88661e-12
1.92674e-12
1.9577e-12
1.97797e-12
1.98637e-12
1.98208e-12
1.9646e-12
1.93386e-12
1.8901e-12
1.83394e-12
1.76629e-12
1.68836e-12
1.60157e-12
1.50751e-12
1.4079e-12
1.3045e-12
1.19907e-12
1.09331e-12
9.88809e-13
8.86998e-13
7.89132e-13
6.96256e-13
6.09195e-13
5.28555e-13
4.54724e-13
3.87891e-13
3.28062e-13
2.75084e-13
2.28677e-13
1.88454e-13
1.53957e-13
1.24677e-13
1.00081e-13
7.96299e-14
6.27981e-14
4.90847e-14
3.80242e-14
2.91927e-14
2.22114e-14
1.67474e-14
1.25134e-14
9.2651e-15
6.79757e-15
4.94168e-15
3.55958e-15
2.54047e-15
1.79641e-15
1.25853e-15
8.73515e-16
6.00645e-16
4.09162e-16
2.7612e-16
1.84602e-16
1.22282e-16
8.0284e-17
5.22977e-17
3.38931e-17
2.20105e-17
1.45827e-17
1.02644e-17
8.24746e-18
5.84808e-16
5.91598e-16
6.13913e-16
6.52044e-16
7.06638e-16
7.78699e-16
8.69596e-16
9.81083e-16
1.11532e-15
1.27493e-15
1.46298e-15
1.68311e-15
1.93953e-15
2.23709e-15
2.58139e-15
2.97881e-15
3.43665e-15
3.96319e-15
4.56785e-15
5.2613e-15
6.05557e-15
6.96428e-15
8.00272e-15
9.18813e-15
1.05399e-14
1.20796e-14
1.38316e-14
1.58231e-14
1.80844e-14
2.06493e-14
2.35553e-14
2.68443e-14
3.05628e-14
3.4762e-14
3.94989e-14
4.48362e-14
5.08433e-14
5.75964e-14
6.51793e-14
7.36839e-14
8.3211e-14
9.38706e-14
1.05783e-13
1.19079e-13
1.339e-13
1.50403e-13
1.68752e-13
1.8913e-13
2.11731e-13
2.36765e-13
2.64458e-13
2.9505e-13
3.28801e-13
3.65985e-13
4.06896e-13
4.51843e-13
5.01158e-13
5.55187e-13
6.14296e-13
6.78871e-13
7.49312e-13
8.26041e-13
9.09495e-13
1.00013e-12
1.0984e-12
1.20481e-12
1.31984e-12
1.444e-12
1.57781e-12
1.72178e-12
1.87644e-12
2.04232e-12
2.21994e-12
2.40983e-12
2.6125e-12
2.82844e-12
3.05814e-12
3.30207e-12
3.56067e-12
3.83435e-12
4.1235e-12
4.42844e-12
4.7495e-12
5.08691e-12
5.44088e-12
5.81157e-12
6.19905e-12
6.60336e-12
7.02444e-12
7.46219e-12
7.91642e-12
8.38686e-12
8.87315e-12
9.37488e-12
9.89152e-12
1.04225e-11
1.09671e-11
1.15245e-11
1.20939e-11
1.26744e-11
1.32649e-11
1.38642e-11
1.44713e-11
1.50847e-11
1.57033e-11
1.63254e-11
1.69496e-11
1.75744e-11
1.81982e-11
1.88191e-11
1.94356e-11
2.00457e-11
2.06478e-11
2.12398e-11
2.182e-11
2.23864e-11
2.2937e-11
2.34699e-11
2.39832e-11
2.44748e-11
2.49428e-11
2.53853e-11
2.58004e-11
2.61861e-11
2.65406e-11
2.6862e-11
2.71487e-11
2.73989e-11
2.7611e-11
2.77835e-11
2.79148e-11
2.80037e-11
2.80489e-11
2.80493e-11
2.80039e-11
2.7912e-11
2.7773e-11
2.75862e-11
2.73517e-11
2.70692e-11
2.67389e-11
2.63614e-11
2.59372e-11
2.54674e-11
2.4953e-11
2.43957e-11
2.37972e-11
2.31595e-11
2.2485e-11
2.17763e-11
2.10363e-11
2.02682e-11
1.94753e-11
1.86613e-11
1.783e-11
1.69854e-11
1.61316e-11
1.52729e-11
1.44134e-11
1.35576e-11
1.27097e-11
1.18739e-11
1.10542e-11
1.02546e-11
9.47879e-12
8.73018e-12
8.01195e-12
7.32693e-12
6.67762e-12
6.06613e-12
5.49419e-12
4.96315e-12
4.47393e-12
4.02708e-12
3.62273e-12
3.26066e-12
2.94027e-12
2.66062e-12
2.42048e-12
2.21827e-12
2.0522e-12
1.92019e-12
1.81995e-12
1.749e-12
1.70469e-12
1.68421e-12
1.68463e-12
1.70292e-12
1.73599e-12
1.78069e-12
1.83389e-12
1.89246e-12
1.95337e-12
2.01368e-12
2.07062e-12
2.12164e-12
2.16442e-12
2.19695e-12
2.21756e-12
2.22493e-12
2.21817e-12
2.19677e-12
2.16064e-12
2.11011e-12
2.04588e-12
1.96899e-12
1.88081e-12
1.78292e-12
1.67712e-12
1.56532e-12
1.44949e-12
1.33156e-12
1.21343e-12
1.09685e-12
9.83395e-13
8.74448e-13
7.71152e-13
6.74406e-13
5.84867e-13
5.02948e-13
4.28845e-13
3.6255e-13
3.03883e-13
2.52521e-13
2.08028e-13
1.69888e-13
1.37532e-13
1.10363e-13
8.77835e-14
6.92073e-14
5.40786e-14
4.18811e-14
3.21452e-14
2.44515e-14
1.84319e-14
1.37688e-14
1.01923e-14
7.47619e-15
5.43389e-15
3.91335e-15
2.79242e-15
1.97421e-15
1.38285e-15
9.59647e-16
6.59767e-16
4.49368e-16
3.03209e-16
2.02685e-16
1.34242e-16
8.81259e-17
5.73991e-17
3.71949e-17
2.4152e-17
1.59997e-17
1.12606e-17
9.04727e-18
1.11287e-15
1.12579e-15
1.16825e-15
1.24081e-15
1.34471e-15
1.48185e-15
1.65485e-15
1.86704e-15
2.12254e-15
2.42633e-15
2.7843e-15
3.20334e-15
3.69147e-15
4.25796e-15
4.91345e-15
5.6701e-15
6.54181e-15
7.54436e-15
8.69569e-15
1.00161e-14
1.15285e-14
1.32588e-14
1.52361e-14
1.74933e-14
2.0067e-14
2.29987e-14
2.63343e-14
3.01256e-14
3.44301e-14
3.9312e-14
4.48427e-14
5.11013e-14
5.8176e-14
6.61639e-14
7.51728e-14
8.53214e-14
9.67405e-14
1.09574e-13
1.2398e-13
1.40131e-13
1.58218e-13
1.78446e-13
2.01041e-13
2.26248e-13
2.54333e-13
2.85585e-13
3.20314e-13
3.58856e-13
4.01573e-13
4.48854e-13
5.01113e-13
5.58795e-13
6.22373e-13
6.92351e-13
7.69262e-13
8.5367e-13
9.46172e-13
1.04739e-12
1.15799e-12
1.27864e-12
1.41006e-12
1.553e-12
1.70822e-12
1.8765e-12
2.05865e-12
2.25551e-12
2.4679e-12
2.69668e-12
2.9427e-12
3.20681e-12
3.48988e-12
3.79272e-12
4.11617e-12
4.46103e-12
4.82806e-12
5.21799e-12
5.63151e-12
6.06925e-12
6.53177e-12
7.01959e-12
7.53311e-12
8.07269e-12
8.63855e-12
9.23086e-12
9.84963e-12
1.04948e-11
1.11662e-11
1.18634e-11
1.2586e-11
1.33334e-11
1.41049e-11
1.48995e-11
1.57163e-11
1.65541e-11
1.74115e-11
1.82871e-11
1.91793e-11
2.00863e-11
2.10063e-11
2.19372e-11
2.28769e-11
2.38232e-11
2.47736e-11
2.57258e-11
2.66772e-11
2.76251e-11
2.85669e-11
2.94997e-11
3.04208e-11
3.13273e-11
3.22164e-11
3.3085e-11
3.39305e-11
3.47498e-11
3.55401e-11
3.62985e-11
3.70224e-11
3.77088e-11
3.83551e-11
3.89588e-11
3.95173e-11
4.00281e-11
4.04889e-11
4.08975e-11
4.12518e-11
4.15499e-11
4.17898e-11
4.197e-11
4.20888e-11
4.2145e-11
4.21374e-11
4.2065e-11
4.19271e-11
4.17231e-11
4.14528e-11
4.11159e-11
4.07127e-11
4.02437e-11
3.97096e-11
3.91113e-11
3.84502e-11
3.7728e-11
3.69464e-11
3.61078e-11
3.52148e-11
3.42703e-11
3.32774e-11
3.22398e-11
3.11613e-11
3.00461e-11
2.88985e-11
2.77234e-11
2.65256e-11
2.53102e-11
2.40826e-11
2.28481e-11
2.16123e-11
2.03807e-11
1.91588e-11
1.7952e-11
1.67656e-11
1.56047e-11
1.44743e-11
1.33789e-11
1.23228e-11
1.131e-11
1.03437e-11
9.4272e-12
8.56289e-12
7.75287e-12
6.99869e-12
6.30138e-12
5.6615e-12
5.07909e-12
4.55374e-12
4.08458e-12
3.67032e-12
3.30926e-12
2.99938e-12
2.73831e-12
2.52338e-12
2.35167e-12
2.22005e-12
2.12517e-12
2.06352e-12
2.03146e-12
2.02524e-12
2.04102e-12
2.07494e-12
2.12311e-12
2.18166e-12
2.24682e-12
2.31491e-12
2.38241e-12
2.44602e-12
2.50272e-12
2.54977e-12
2.58483e-12
2.60596e-12
2.61165e-12
2.60088e-12
2.5731e-12
2.52825e-12
2.46673e-12
2.38942e-12
2.29755e-12
2.19274e-12
2.07687e-12
1.95205e-12
1.82049e-12
1.68448e-12
1.5463e-12
1.40812e-12
1.27196e-12
1.13963e-12
1.01273e-12
8.9254e-13
7.80097e-13
6.76132e-13
5.81105e-13
4.95219e-13
4.18444e-13
3.50556e-13
2.91163e-13
2.3975e-13
1.95705e-13
1.58363e-13
1.27026e-13
1.00996e-13
7.95932e-14
6.21709e-14
4.81309e-14
3.69294e-14
2.80813e-14
2.11613e-14
1.58029e-14
1.16946e-14
8.57575e-15
6.2314e-15
4.48655e-15
3.20064e-15
2.26229e-15
1.58428e-15
1.09919e-15
7.55552e-16
5.14507e-16
3.47097e-16
2.31981e-16
1.5362e-16
1.0083e-16
6.56637e-17
4.2544e-17
2.76212e-17
1.82952e-17
1.28744e-17
1.03429e-17
2.12643e-15
2.15112e-15
2.23228e-15
2.37097e-15
2.56955e-15
2.83167e-15
3.16234e-15
3.56794e-15
4.05637e-15
4.63713e-15
5.32149e-15
6.12266e-15
7.056e-15
8.13921e-15
9.39267e-15
1.08397e-14
1.25068e-14
1.44242e-14
1.66263e-14
1.91519e-14
2.20449e-14
2.53547e-14
2.91371e-14
3.34548e-14
3.83782e-14
4.39861e-14
5.03667e-14
5.76187e-14
6.58519e-14
7.51889e-14
8.57658e-14
9.77338e-14
1.11261e-13
1.26532e-13
1.43752e-13
1.63147e-13
1.84965e-13
2.09481e-13
2.36993e-13
2.67831e-13
3.02351e-13
3.40947e-13
3.84042e-13
4.32099e-13
4.8562e-13
5.45146e-13
6.1126e-13
6.84593e-13
7.65821e-13
8.55665e-13
9.54902e-13
1.06435e-12
1.1849e-12
1.31746e-12
1.46303e-12
1.62263e-12
1.79735e-12
1.98834e-12
2.19677e-12
2.42389e-12
2.67096e-12
2.93931e-12
3.23029e-12
3.54529e-12
3.88572e-12
4.25301e-12
4.64859e-12
5.07391e-12
5.53039e-12
6.01946e-12
6.54249e-12
7.10083e-12
7.69578e-12
8.32855e-12
9.00029e-12
9.71204e-12
1.04647e-11
1.12592e-11
1.20961e-11
1.2976e-11
1.38992e-11
1.48659e-11
1.58761e-11
1.69296e-11
1.80258e-11
1.91642e-11
2.03438e-11
2.15635e-11
2.28218e-11
2.41171e-11
2.54475e-11
2.68108e-11
2.82046e-11
2.96261e-11
3.10726e-11
3.25407e-11
3.40272e-11
3.55284e-11
3.70405e-11
3.85595e-11
4.00813e-11
4.16016e-11
4.31159e-11
4.46198e-11
4.61084e-11
4.75773e-11
4.90217e-11
5.04367e-11
5.18177e-11
5.316e-11
5.4459e-11
5.57099e-11
5.69084e-11
5.805e-11
5.91305e-11
6.01459e-11
6.10921e-11
6.19656e-11
6.27626e-11
6.348e-11
6.41145e-11
6.46634e-11
6.51241e-11
6.54941e-11
6.57714e-11
6.59542e-11
6.6041e-11
6.60305e-11
6.59218e-11
6.57143e-11
6.54077e-11
6.50019e-11
6.44975e-11
6.38949e-11
6.31953e-11
6.24001e-11
6.15111e-11
6.05302e-11
5.94601e-11
5.83036e-11
5.70639e-11
5.57448e-11
5.43502e-11
5.28845e-11
5.13527e-11
4.97597e-11
4.81112e-11
4.6413e-11
4.46714e-11
4.28928e-11
4.10839e-11
3.92519e-11
3.74037e-11
3.55469e-11
3.36887e-11
3.18367e-11
2.99982e-11
2.81807e-11
2.63912e-11
2.46369e-11
2.29243e-11
2.12598e-11
1.96493e-11
1.80984e-11
1.66118e-11
1.51941e-11
1.38489e-11
1.25795e-11
1.13882e-11
1.02768e-11
9.24661e-12
8.29795e-12
7.43069e-12
6.64404e-12
5.93663e-12
5.30655e-12
4.75138e-12
4.26823e-12
3.85384e-12
3.50454e-12
3.2164e-12
2.98516e-12
2.8064e-12
2.67545e-12
2.58753e-12
2.53773e-12
2.52109e-12
2.53256e-12
2.56714e-12
2.61983e-12
2.68572e-12
2.76003e-12
2.83817e-12
2.91577e-12
2.98875e-12
3.05339e-12
3.1064e-12
3.14491e-12
3.1666e-12
3.16968e-12
3.15296e-12
3.11582e-12
3.05823e-12
2.98075e-12
2.88445e-12
2.77088e-12
2.64202e-12
2.50015e-12
2.34784e-12
2.18775e-12
2.02266e-12
1.85526e-12
1.68817e-12
1.5238e-12
1.36429e-12
1.21152e-12
1.06703e-12
9.31992e-13
8.07275e-13
6.93394e-13
5.90563e-13
4.98723e-13
4.17581e-13
3.46648e-13
2.85291e-13
2.32765e-13
1.88261e-13
1.50939e-13
1.19956e-13
9.44945e-14
7.37801e-14
5.70959e-14
4.37913e-14
3.32869e-14
2.50754e-14
1.87196e-14
1.38485e-14
1.01521e-14
7.37464e-15
5.30816e-15
3.78574e-15
2.67515e-15
1.87294e-15
1.29916e-15
8.92802e-16
6.07838e-16
4.09976e-16
2.73952e-16
1.81379e-16
1.1903e-16
7.75023e-17
5.02059e-17
3.25903e-17
2.1583e-17
1.51857e-17
1.21985e-17
4.03125e-15
4.0781e-15
4.23204e-15
4.4951e-15
4.87175e-15
5.36895e-15
5.99619e-15
6.7656e-15
7.69218e-15
8.794e-15
1.00925e-14
1.16127e-14
1.33838e-14
1.54395e-14
1.78184e-14
2.05649e-14
2.37294e-14
2.73693e-14
3.15499e-14
3.63449e-14
4.18377e-14
4.81223e-14
5.53046e-14
6.35037e-14
7.28531e-14
8.35026e-14
9.56196e-14
1.09391e-13
1.25026e-13
1.42756e-13
1.6284e-13
1.85564e-13
2.11246e-13
2.40236e-13
2.72923e-13
3.09733e-13
3.51136e-13
3.97648e-13
4.49835e-13
5.08316e-13
5.73764e-13
6.46916e-13
7.28572e-13
8.19597e-13
9.20931e-13
1.03359e-12
1.15865e-12
1.29731e-12
1.45081e-12
1.62049e-12
1.8078e-12
2.01424e-12
2.24145e-12
2.49112e-12
2.76505e-12
3.06513e-12
3.39335e-12
3.75175e-12
4.14248e-12
4.56776e-12
5.02986e-12
5.53114e-12
6.07398e-12
6.6608e-12
7.29407e-12
7.97624e-12
8.70977e-12
9.49708e-12
1.03406e-11
1.12426e-11
1.22053e-11
1.32309e-11
1.43213e-11
1.54784e-11
1.67038e-11
1.7999e-11
1.93651e-11
2.0803e-11
2.23134e-11
2.38967e-11
2.55527e-11
2.7281e-11
2.90809e-11
3.09512e-11
3.28903e-11
3.4896e-11
3.6966e-11
3.90972e-11
4.12863e-11
4.35293e-11
4.5822e-11
4.81596e-11
5.05368e-11
5.29482e-11
5.53876e-11
5.78486e-11
6.03247e-11
6.28087e-11
6.52933e-11
6.77711e-11
7.02342e-11
7.26747e-11
7.50848e-11
7.74562e-11
7.97809e-11
8.20509e-11
8.42581e-11
8.63947e-11
8.8453e-11
9.04253e-11
9.23046e-11
9.40836e-11
9.57559e-11
9.73149e-11
9.87547e-11
1.0007e-10
1.01255e-10
1.02305e-10
1.03217e-10
1.03986e-10
1.04608e-10
1.05082e-10
1.05405e-10
1.05575e-10
1.05591e-10
1.05451e-10
1.05156e-10
1.04706e-10
1.04101e-10
1.03343e-10
1.02434e-10
1.01375e-10
1.00169e-10
9.88205e-11
9.73317e-11
9.57073e-11
9.39519e-11
9.20706e-11
9.0069e-11
8.79533e-11
8.57298e-11
8.34057e-11
8.09882e-11
7.84854e-11
7.59053e-11
7.32567e-11
7.05486e-11
6.77903e-11
6.49914e-11
6.21618e-11
5.93116e-11
5.6451e-11
5.35903e-11
5.07399e-11
4.79101e-11
4.51111e-11
4.23527e-11
3.96448e-11
3.69967e-11
3.44172e-11
3.19148e-11
2.94972e-11
2.71715e-11
2.49441e-11
2.28205e-11
2.08055e-11
1.8903e-11
1.71159e-11
1.54464e-11
1.38954e-11
1.24635e-11
1.11498e-11
9.95314e-12
8.87115e-12
7.90095e-12
7.03895e-12
6.28098e-12
5.62231e-12
5.05777e-12
4.58179e-12
4.18848e-12
3.87167e-12
3.62498e-12
3.44188e-12
3.31571e-12
3.23976e-12
3.2073e-12
3.21159e-12
3.24599e-12
3.30396e-12
3.3791e-12
3.46526e-12
3.55655e-12
3.64741e-12
3.7327e-12
3.80775e-12
3.86845e-12
3.91126e-12
3.93333e-12
3.93248e-12
3.90727e-12
3.85702e-12
3.78174e-12
3.68218e-12
3.55971e-12
3.4163e-12
3.25442e-12
3.07692e-12
2.88696e-12
2.68786e-12
2.483e-12
2.27572e-12
2.06917e-12
1.86631e-12
1.66975e-12
1.48175e-12
1.30414e-12
1.13836e-12
9.854e-13
8.45872e-13
7.20002e-13
6.07685e-13
5.08532e-13
4.21925e-13
3.47063e-13
2.83023e-13
2.288e-13
1.83356e-13
1.45653e-13
1.14688e-13
8.95096e-14
6.92407e-14
5.30856e-14
4.03368e-14
3.03754e-14
2.26684e-14
1.67643e-14
1.22858e-14
8.92186e-15
6.41996e-15
4.5774e-15
3.23372e-15
2.26343e-15
1.56965e-15
1.07843e-15
7.34059e-16
4.95005e-16
3.30704e-16
2.18912e-16
1.43634e-16
9.35065e-17
6.05632e-17
3.9307e-17
2.60268e-17
1.83095e-17
1.47062e-17
7.55994e-15
7.64792e-15
7.93685e-15
8.43052e-15
9.13739e-15
1.00705e-14
1.12477e-14
1.26919e-14
1.44312e-14
1.64995e-14
1.89372e-14
2.17915e-14
2.51172e-14
2.89775e-14
3.34454e-14
3.8604e-14
4.45483e-14
5.13863e-14
5.92407e-14
6.82502e-14
7.85716e-14
9.03818e-14
1.0388e-13
1.1929e-13
1.36863e-13
1.56881e-13
1.79657e-13
2.05545e-13
2.34935e-13
2.68265e-13
3.06018e-13
3.48733e-13
3.97005e-13
4.51493e-13
5.12923e-13
5.82095e-13
6.5989e-13
7.47272e-13
8.45299e-13
9.55126e-13
1.07801e-12
1.21533e-12
1.36857e-12
1.53934e-12
1.72938e-12
1.94058e-12
2.17496e-12
2.43468e-12
2.72207e-12
3.0396e-12
3.3899e-12
3.77577e-12
4.20017e-12
4.6662e-12
5.17713e-12
5.7364e-12
6.34756e-12
7.01433e-12
7.74054e-12
8.53014e-12
9.38718e-12
1.03158e-11
1.13202e-11
1.24045e-11
1.35731e-11
1.483e-11
1.61795e-11
1.76257e-11
1.91724e-11
2.08234e-11
2.25823e-11
2.44523e-11
2.64364e-11
2.85372e-11
3.0757e-11
3.30976e-11
3.55601e-11
3.81453e-11
4.08533e-11
4.36836e-11
4.66351e-11
4.97058e-11
5.2893e-11
5.61934e-11
5.96027e-11
6.31158e-11
6.67271e-11
7.04297e-11
7.42162e-11
7.80783e-11
8.2007e-11
8.59925e-11
9.00243e-11
9.40913e-11
9.81816e-11
1.02283e-10
1.06383e-10
1.10467e-10
1.14524e-10
1.18538e-10
1.22496e-10
1.26383e-10
1.30187e-10
1.33892e-10
1.37486e-10
1.40955e-10
1.44285e-10
1.47464e-10
1.5048e-10
1.53322e-10
1.55978e-10
1.58438e-10
1.60693e-10
1.62734e-10
1.64554e-10
1.66144e-10
1.675e-10
1.68616e-10
1.69488e-10
1.70112e-10
1.70487e-10
1.7061e-10
1.7048e-10
1.701e-10
1.69468e-10
1.68588e-10
1.67462e-10
1.66094e-10
1.64488e-10
1.6265e-10
1.60585e-10
1.583e-10
1.55802e-10
1.53099e-10
1.502e-10
1.47114e-10
1.4385e-10
1.40418e-10
1.36831e-10
1.33098e-10
1.29232e-10
1.25244e-10
1.21149e-10
1.16958e-10
1.12685e-10
1.08345e-10
1.03951e-10
9.95167e-11
9.50577e-11
9.05884e-11
8.61232e-11
8.16769e-11
7.72639e-11
7.28986e-11
6.85949e-11
6.43665e-11
6.02266e-11
5.61876e-11
5.22615e-11
4.84594e-11
4.47915e-11
4.12669e-11
3.7894e-11
3.46798e-11
3.16303e-11
2.87501e-11
2.60429e-11
2.35108e-11
2.11549e-11
1.8975e-11
1.69697e-11
1.51365e-11
1.34719e-11
1.19714e-11
1.06295e-11
9.44013e-12
8.39629e-12
7.49051e-12
6.71478e-12
6.06069e-12
5.51949e-12
5.08222e-12
4.73971e-12
4.48274e-12
4.302e-12
4.18823e-12
4.13222e-12
4.1249e-12
4.15734e-12
4.22087e-12
4.30707e-12
4.40789e-12
4.51568e-12
4.62329e-12
4.72414e-12
4.81227e-12
4.88248e-12
4.93034e-12
4.95226e-12
4.94559e-12
4.90857e-12
4.84039e-12
4.74116e-12
4.61186e-12
4.45429e-12
4.27096e-12
4.065e-12
3.84001e-12
3.59996e-12
3.34899e-12
3.09133e-12
2.83111e-12
2.57227e-12
2.31843e-12
2.07282e-12
1.8382e-12
1.61681e-12
1.41039e-12
1.22014e-12
1.04675e-12
8.90481e-13
7.51153e-13
6.28255e-13
5.20987e-13
4.28334e-13
3.49129e-13
2.82109e-13
2.25974e-13
1.7943e-13
1.41225e-13
1.10176e-13
8.51939e-14
6.52922e-14
4.9594e-14
3.73334e-14
2.78517e-14
2.0591e-14
1.50855e-14
1.09518e-14
7.87845e-15
5.61578e-15
3.96625e-15
2.77548e-15
1.92429e-15
1.32179e-15
8.99514e-16
6.06454e-16
4.05082e-16
2.68097e-16
1.75875e-16
1.14476e-16
7.41325e-17
4.8106e-17
3.18478e-17
2.2401e-17
1.79907e-17
1.40145e-14
1.41779e-14
1.47141e-14
1.56302e-14
1.69418e-14
1.86734e-14
2.0858e-14
2.35381e-14
2.67662e-14
3.06054e-14
3.51307e-14
4.04298e-14
4.66047e-14
5.37733e-14
6.20709e-14
7.16524e-14
8.26945e-14
9.53983e-14
1.09992e-13
1.26734e-13
1.45915e-13
1.67866e-13
1.92956e-13
2.21602e-13
2.54272e-13
2.91489e-13
3.33839e-13
3.81976e-13
4.36628e-13
4.98607e-13
5.68814e-13
6.48248e-13
7.38015e-13
8.39338e-13
9.53565e-13
1.08218e-12
1.22682e-12
1.38926e-12
1.57147e-12
1.77558e-12
2.00393e-12
2.25904e-12
2.54366e-12
2.86076e-12
3.21355e-12
3.6055e-12
4.0403e-12
4.52193e-12
5.05464e-12
5.64295e-12
6.29165e-12
7.00583e-12
7.79085e-12
8.65234e-12
9.59619e-12
1.06286e-11
1.17558e-11
1.29847e-11
1.43218e-11
1.57743e-11
1.73493e-11
1.90539e-11
2.08955e-11
2.28813e-11
2.50185e-11
2.73143e-11
2.97756e-11
3.24091e-11
3.52212e-11
3.82178e-11
4.14045e-11
4.47862e-11
4.83671e-11
5.21508e-11
5.61399e-11
6.03363e-11
6.47407e-11
6.93528e-11
7.41711e-11
7.9193e-11
8.44143e-11
8.98297e-11
9.54324e-11
1.01214e-10
1.07166e-10
1.13275e-10
1.19531e-10
1.25918e-10
1.32422e-10
1.39025e-10
1.4571e-10
1.52456e-10
1.59245e-10
1.66054e-10
1.72861e-10
1.79644e-10
1.86378e-10
1.9304e-10
1.99604e-10
2.06048e-10
2.12346e-10
2.18474e-10
2.24408e-10
2.30125e-10
2.35603e-10
2.40819e-10
2.45754e-10
2.50386e-10
2.54699e-10
2.58675e-10
2.62298e-10
2.65554e-10
2.68432e-10
2.7092e-10
2.73009e-10
2.74692e-10
2.75964e-10
2.76819e-10
2.77257e-10
2.77277e-10
2.76879e-10
2.76066e-10
2.74844e-10
2.73216e-10
2.7119e-10
2.68775e-10
2.6598e-10
2.62816e-10
2.59295e-10
2.5543e-10
2.51234e-10
2.46723e-10
2.41912e-10
2.36817e-10
2.31455e-10
2.25845e-10
2.20004e-10
2.13952e-10
2.07707e-10
2.01289e-10
1.94718e-10
1.88015e-10
1.81201e-10
1.74296e-10
1.67322e-10
1.603e-10
1.53251e-10
1.46196e-10
1.39157e-10
1.32154e-10
1.25209e-10
1.18341e-10
1.11571e-10
1.04917e-10
9.83984e-11
9.20328e-11
8.58369e-11
7.98266e-11
7.40163e-11
6.84193e-11
6.30476e-11
5.79116e-11
5.30202e-11
4.83806e-11
4.39983e-11
3.98774e-11
3.60199e-11
3.24264e-11
2.90956e-11
2.60249e-11
2.321e-11
2.0645e-11
1.83231e-11
1.6236e-11
1.43743e-11
1.27278e-11
1.12855e-11
1.00358e-11
8.96638e-12
8.06472e-12
7.31796e-12
6.71308e-12
6.23697e-12
5.87658e-12
5.61889e-12
5.45109e-12
5.36055e-12
5.33495e-12
5.36226e-12
5.4309e-12
5.52971e-12
5.64808e-12
5.77603e-12
5.90425e-12
6.02424e-12
6.12837e-12
6.20997e-12
6.26344e-12
6.28427e-12
6.26912e-12
6.21586e-12
6.12352e-12
5.99232e-12
5.82359e-12
5.61965e-12
5.38375e-12
5.11988e-12
4.83261e-12
4.52696e-12
4.20817e-12
3.88155e-12
3.55226e-12
3.22525e-12
2.90501e-12
2.59556e-12
2.3003e-12
2.02201e-12
1.7628e-12
1.52412e-12
1.30681e-12
1.1111e-12
9.36761e-13
7.83094e-13
6.49068e-13
5.33382e-13
4.3455e-13
3.50976e-13
2.81016e-13
2.23042e-13
1.7548e-13
1.36847e-13
1.05778e-13
8.10385e-14
6.15332e-14
4.63056e-14
3.45341e-14
2.55235e-14
1.86937e-14
1.35675e-14
9.75742e-15
6.95331e-15
4.90969e-15
3.43486e-15
2.38091e-15
1.63509e-15
1.11249e-15
7.49896e-16
5.00801e-16
3.31388e-16
2.17357e-16
1.41453e-16
9.15883e-17
5.94242e-17
3.93348e-17
2.76632e-17
2.22146e-17
2.56777e-14
2.59778e-14
2.69616e-14
2.86421e-14
3.10482e-14
3.42247e-14
3.82325e-14
4.31499e-14
4.90732e-14
5.61186e-14
6.44239e-14
7.41505e-14
8.54862e-14
9.86478e-14
1.13884e-13
1.31481e-13
1.51762e-13
1.75099e-13
2.01912e-13
2.32674e-13
2.67925e-13
3.08269e-13
3.5439e-13
4.07053e-13
4.6712e-13
5.35555e-13
6.13435e-13
7.01963e-13
8.02482e-13
9.16483e-13
1.04563e-12
1.19174e-12
1.35688e-12
1.54327e-12
1.75339e-12
1.98998e-12
2.25603e-12
2.55482e-12
2.88993e-12
3.26528e-12
3.68514e-12
4.15414e-12
4.6773e-12
5.26004e-12
5.90823e-12
6.62814e-12
7.42654e-12
8.31063e-12
9.28812e-12
1.03672e-11
1.15565e-11
1.28653e-11
1.4303e-11
1.588e-11
1.76066e-11
1.94939e-11
2.15533e-11
2.37964e-11
2.62352e-11
2.88821e-11
3.17494e-11
3.48497e-11
3.81955e-11
4.17991e-11
4.5673e-11
4.98289e-11
5.42783e-11
5.90322e-11
6.41007e-11
6.94932e-11
7.52179e-11
8.12819e-11
8.76911e-11
9.44497e-11
1.0156e-10
1.09024e-10
1.16839e-10
1.25002e-10
1.33509e-10
1.4235e-10
1.51517e-10
1.60995e-10
1.7077e-10
1.80824e-10
1.91136e-10
2.01684e-10
2.1244e-10
2.23378e-10
2.34467e-10
2.45673e-10
2.56963e-10
2.68299e-10
2.79643e-10
2.90955e-10
3.02194e-10
3.13318e-10
3.24285e-10
3.35052e-10
3.45576e-10
3.55815e-10
3.65726e-10
3.7527e-10
3.84406e-10
3.93097e-10
4.01306e-10
4.08999e-10
4.16145e-10
4.22714e-10
4.2868e-10
4.34018e-10
4.3871e-10
4.42736e-10
4.46083e-10
4.4874e-10
4.50698e-10
4.51952e-10
4.52502e-10
4.52349e-10
4.51496e-10
4.49951e-10
4.47725e-10
4.44829e-10
4.41279e-10
4.37091e-10
4.32286e-10
4.26885e-10
4.2091e-10
4.14386e-10
4.0734e-10
3.99798e-10
3.91789e-10
3.83342e-10
3.74488e-10
3.65257e-10
3.55681e-10
3.45792e-10
3.35621e-10
3.25202e-10
3.14567e-10
3.03749e-10
2.92781e-10
2.81694e-10
2.70523e-10
2.59298e-10
2.48053e-10
2.36818e-10
2.25625e-10
2.14505e-10
2.03487e-10
1.926e-10
1.81873e-10
1.71334e-10
1.61008e-10
1.50921e-10
1.41096e-10
1.31556e-10
1.2232e-10
1.13408e-10
1.04837e-10
9.66222e-11
8.87754e-11
8.1308e-11
7.42281e-11
6.7542e-11
6.12534e-11
5.53638e-11
4.98724e-11
4.4776e-11
4.00693e-11
3.57451e-11
3.17941e-11
2.82052e-11
2.49657e-11
2.20617e-11
1.94777e-11
1.71973e-11
1.52034e-11
1.34782e-11
1.20032e-11
1.07598e-11
9.72931e-12
8.89286e-12
8.23181e-12
7.72769e-12
7.36235e-12
7.11803e-12
6.97741e-12
6.92371e-12
6.94072e-12
7.0129e-12
7.12541e-12
7.26425e-12
7.41628e-12
7.56937e-12
7.71248e-12
7.83577e-12
7.93069e-12
7.99006e-12
8.00819e-12
7.98089e-12
7.9055e-12
7.78089e-12
7.60743e-12
7.38688e-12
7.12229e-12
6.81782e-12
6.47859e-12
6.11046e-12
5.71978e-12
5.31319e-12
4.89738e-12
4.47889e-12
4.0639e-12
3.65805e-12
3.26636e-12
2.89305e-12
2.54157e-12
2.2145e-12
1.91361e-12
1.63988e-12
1.39357e-12
1.17432e-12
9.81207e-13
8.12891e-13
6.67702e-13
5.43742e-13
4.3898e-13
3.51335e-13
2.78743e-13
2.19219e-13
1.70893e-13
1.32047e-13
1.01129e-13
7.67629e-14
5.7748e-14
4.30546e-14
3.18115e-14
2.32925e-14
1.69006e-14
1.21514e-14
8.65716e-15
6.11132e-15
4.27456e-15
2.96231e-15
2.03395e-15
1.3836e-15
9.32466e-16
6.22615e-16
4.11925e-16
2.70137e-16
1.75775e-16
1.13794e-16
7.38205e-17
4.8857e-17
3.43552e-17
2.7586e-17
4.64991e-14
4.70442e-14
4.88288e-14
5.18765e-14
5.62401e-14
6.20009e-14
6.927e-14
7.81894e-14
8.89346e-14
1.01717e-13
1.16787e-13
1.34438e-13
1.55013e-13
1.78905e-13
2.06568e-13
2.38521e-13
2.75356e-13
3.17746e-13
3.66456e-13
4.22353e-13
4.86414e-13
5.59743e-13
6.43582e-13
7.3933e-13
8.48553e-13
9.73006e-13
1.11465e-12
1.27569e-12
1.45855e-12
1.66596e-12
1.90094e-12
2.16682e-12
2.46732e-12
2.80652e-12
3.18893e-12
3.6195e-12
4.10368e-12
4.64742e-12
5.25724e-12
5.94025e-12
6.70419e-12
7.55743e-12
8.50908e-12
9.56895e-12
1.07476e-11
1.20564e-11
1.35076e-11
1.5114e-11
1.68896e-11
1.8849e-11
2.10079e-11
2.33824e-11
2.59899e-11
2.88482e-11
3.19762e-11
3.53932e-11
3.91193e-11
4.3175e-11
4.75813e-11
5.23597e-11
5.75314e-11
6.31182e-11
6.91414e-11
7.5622e-11
8.25805e-11
9.00369e-11
9.80097e-11
1.06517e-10
1.15573e-10
1.25194e-10
1.35392e-10
1.46175e-10
1.57552e-10
1.69525e-10
1.82097e-10
1.95265e-10
2.09023e-10
2.23359e-10
2.3826e-10
2.53708e-10
2.69678e-10
2.86143e-10
3.03071e-10
3.20424e-10
3.38162e-10
3.56236e-10
3.74598e-10
3.93193e-10
4.11961e-10
4.30841e-10
4.49767e-10
4.68672e-10
4.87483e-10
5.06129e-10
5.24536e-10
5.42629e-10
5.60334e-10
5.77575e-10
5.94279e-10
6.10374e-10
6.25789e-10
6.40459e-10
6.54317e-10
6.67304e-10
6.79364e-10
6.90445e-10
7.005e-10
7.09487e-10
7.1737e-10
7.2412e-10
7.29711e-10
7.34125e-10
7.3735e-10
7.39378e-10
7.40209e-10
7.39847e-10
7.38302e-10
7.3559e-10
7.31732e-10
7.26752e-10
7.20679e-10
7.13547e-10
7.05394e-10
6.96259e-10
6.86185e-10
6.7522e-10
6.6341e-10
6.50805e-10
6.37458e-10
6.23421e-10
6.08748e-10
5.93492e-10
5.7771e-10
5.61455e-10
5.44783e-10
5.27749e-10
5.10406e-10
4.92809e-10
4.75011e-10
4.57063e-10
4.39019e-10
4.20927e-10
4.02837e-10
3.84798e-10
3.66857e-10
3.49058e-10
3.31446e-10