/*--------------------------------*- C++ -*----------------------------------*\
| =========                 |                                                 |
| \\      /  F ield         | OpenFOAM: The Open Source CFD Toolbox           |
|  \\    /   O peration     | Version:  v2012                                 |
|   \\  /    A nd           | Website:  www.openfoam.com                      |
|    \\/     M anipulation  |                                                 |
\*---------------------------------------------------------------------------*/
FoamFile
{
    version     2.0;
    format      ascii;
    class       volVectorField;
    location    "14.5";
    object      Psi;
}
// * * * * * * * * * * * * * * * * * * * * * * * * * * * * * * * * * * * * * //

dimensions      [0 2 -1 0 0 0 0];


internalField   nonuniform List<vector> 
65536
(
(0 0 8.59628e-06)
(0 0 2.57894e-05)
(0 0 4.29842e-05)
(0 0 6.01816e-05)
(0 0 7.73828e-05)
(0 0 9.45888e-05)
(0 0 0.000111801)
(0 0 0.000129019)
(0 0 0.000146246)
(0 0 0.000163481)
(0 0 0.000180726)
(0 0 0.000197982)
(0 0 0.00021525)
(0 0 0.00023253)
(0 0 0.000249824)
(0 0 0.000267131)
(0 0 0.000284454)
(0 0 0.000301793)
(0 0 0.000319148)
(0 0 0.000336519)
(0 0 0.000353909)
(0 0 0.000371316)
(0 0 0.000388743)
(0 0 0.000406188)
(0 0 0.000423652)
(0 0 0.000441136)
(0 0 0.00045864)
(0 0 0.000476164)
(0 0 0.000493708)
(0 0 0.000511272)
(0 0 0.000528855)
(0 0 0.000546458)
(0 0 0.00056408)
(0 0 0.000581721)
(0 0 0.00059938)
(0 0 0.000617057)
(0 0 0.000634751)
(0 0 0.000652461)
(0 0 0.000670186)
(0 0 0.000687925)
(0 0 0.000705677)
(0 0 0.00072344)
(0 0 0.000741213)
(0 0 0.000758994)
(0 0 0.000776782)
(0 0 0.000794574)
(0 0 0.000812369)
(0 0 0.000830164)
(0 0 0.000847957)
(0 0 0.000865745)
(0 0 0.000883526)
(0 0 0.000901297)
(0 0 0.000919054)
(0 0 0.000936795)
(0 0 0.000954515)
(0 0 0.000972212)
(0 0 0.000989881)
(0 0 0.00100752)
(0 0 0.00102512)
(0 0 0.00104268)
(0 0 0.0010602)
(0 0 0.00107767)
(0 0 0.00109509)
(0 0 0.00111244)
(0 0 0.00112973)
(0 0 0.00114695)
(0 0 0.0011641)
(0 0 0.00118116)
(0 0 0.00119813)
(0 0 0.00121502)
(0 0 0.0012318)
(0 0 0.00124847)
(0 0 0.00126503)
(0 0 0.00128147)
(0 0 0.00129778)
(0 0 0.00131395)
(0 0 0.00132998)
(0 0 0.00134586)
(0 0 0.00136158)
(0 0 0.00137714)
(0 0 0.00139252)
(0 0 0.00140772)
(0 0 0.00142273)
(0 0 0.00143754)
(0 0 0.00145215)
(0 0 0.00146654)
(0 0 0.0014807)
(0 0 0.00149463)
(0 0 0.00150832)
(0 0 0.00152176)
(0 0 0.00153495)
(0 0 0.00154786)
(0 0 0.0015605)
(0 0 0.00157286)
(0 0 0.00158493)
(0 0 0.00159669)
(0 0 0.00160815)
(0 0 0.00161929)
(0 0 0.0016301)
(0 0 0.00164059)
(0 0 0.00165073)
(0 0 0.00166052)
(0 0 0.00166996)
(0 0 0.00167904)
(0 0 0.00168775)
(0 0 0.00169609)
(0 0 0.00170404)
(0 0 0.0017116)
(0 0 0.00171878)
(0 0 0.00172555)
(0 0 0.00173192)
(0 0 0.00173788)
(0 0 0.00174343)
(0 0 0.00174856)
(0 0 0.00175327)
(0 0 0.00175756)
(0 0 0.00176142)
(0 0 0.00176485)
(0 0 0.00176785)
(0 0 0.00177041)
(0 0 0.00177254)
(0 0 0.00177423)
(0 0 0.00177549)
(0 0 0.00177631)
(0 0 0.00177669)
(0 0 0.00177663)
(0 0 0.00177615)
(0 0 0.00177522)
(0 0 0.00177387)
(0 0 0.00177208)
(0 0 0.00176987)
(0 0 0.00176723)
(0 0 0.00176417)
(0 0 0.0017607)
(0 0 0.00175681)
(0 0 0.00175251)
(0 0 0.0017478)
(0 0 0.0017427)
(0 0 0.0017372)
(0 0 0.00173131)
(0 0 0.00172503)
(0 0 0.00171838)
(0 0 0.00171136)
(0 0 0.00170397)
(0 0 0.00169623)
(0 0 0.00168813)
(0 0 0.00167968)
(0 0 0.0016709)
(0 0 0.00166179)
(0 0 0.00165236)
(0 0 0.00164261)
(0 0 0.00163255)
(0 0 0.00162219)
(0 0 0.00161154)
(0 0 0.0016006)
(0 0 0.00158939)
(0 0 0.00157791)
(0 0 0.00156617)
(0 0 0.00155417)
(0 0 0.00154193)
(0 0 0.00152945)
(0 0 0.00151675)
(0 0 0.00150382)
(0 0 0.00149067)
(0 0 0.00147732)
(0 0 0.00146378)
(0 0 0.00145004)
(0 0 0.00143612)
(0 0 0.00142202)
(0 0 0.00140775)
(0 0 0.00139332)
(0 0 0.00137873)
(0 0 0.001364)
(0 0 0.00134913)
(0 0 0.00133412)
(0 0 0.00131898)
(0 0 0.00130372)
(0 0 0.00128834)
(0 0 0.00127286)
(0 0 0.00125727)
(0 0 0.00124158)
(0 0 0.0012258)
(0 0 0.00120994)
(0 0 0.00119399)
(0 0 0.00117797)
(0 0 0.00116187)
(0 0 0.00114571)
(0 0 0.00112948)
(0 0 0.0011132)
(0 0 0.00109686)
(0 0 0.00108048)
(0 0 0.00106405)
(0 0 0.00104757)
(0 0 0.00103106)
(0 0 0.00101452)
(0 0 0.000997947)
(0 0 0.000981345)
(0 0 0.00096472)
(0 0 0.000948073)
(0 0 0.000931407)
(0 0 0.000914726)
(0 0 0.000898032)
(0 0 0.000881328)
(0 0 0.000864615)
(0 0 0.000847895)
(0 0 0.000831172)
(0 0 0.000814447)
(0 0 0.000797722)
(0 0 0.000780998)
(0 0 0.000764277)
(0 0 0.00074756)
(0 0 0.000730849)
(0 0 0.000714146)
(0 0 0.000697451)
(0 0 0.000680765)
(0 0 0.00066409)
(0 0 0.000647427)
(0 0 0.000630775)
(0 0 0.000614136)
(0 0 0.000597511)
(0 0 0.000580899)
(0 0 0.000564303)
(0 0 0.000547721)
(0 0 0.000531154)
(0 0 0.000514603)
(0 0 0.000498068)
(0 0 0.000481548)
(0 0 0.000465044)
(0 0 0.000448556)
(0 0 0.000432084)
(0 0 0.000415628)
(0 0 0.000399187)
(0 0 0.000382761)
(0 0 0.00036635)
(0 0 0.000349954)
(0 0 0.000333573)
(0 0 0.000317205)
(0 0 0.000300851)
(0 0 0.00028451)
(0 0 0.000268181)
(0 0 0.000251865)
(0 0 0.00023556)
(0 0 0.000219265)
(0 0 0.000202981)
(0 0 0.000186707)
(0 0 0.000170441)
(0 0 0.000154184)
(0 0 0.000137933)
(0 0 0.00012169)
(0 0 0.000105453)
(0 0 8.92202e-05)
(0 0 7.29923e-05)
(0 0 5.67681e-05)
(0 0 4.05466e-05)
(0 0 2.43271e-05)
(0 0 8.10892e-06)
(0 0 2.57884e-05)
(0 0 7.73668e-05)
(0 0 0.00012895)
(0 0 0.000180541)
(0 0 0.000232144)
(0 0 0.000283761)
(0 0 0.000335395)
(0 0 0.00038705)
(0 0 0.000438729)
(0 0 0.000490434)
(0 0 0.000542169)
(0 0 0.000593936)
(0 0 0.000645738)
(0 0 0.000697578)
(0 0 0.000749458)
(0 0 0.00080138)
(0 0 0.000853348)
(0 0 0.000905363)
(0 0 0.000957427)
(0 0 0.00100954)
(0 0 0.00106171)
(0 0 0.00111393)
(0 0 0.00116621)
(0 0 0.00121855)
(0 0 0.00127094)
(0 0 0.00132339)
(0 0 0.0013759)
(0 0 0.00142847)
(0 0 0.00148111)
(0 0 0.0015338)
(0 0 0.00158655)
(0 0 0.00163936)
(0 0 0.00169222)
(0 0 0.00174515)
(0 0 0.00179813)
(0 0 0.00185116)
(0 0 0.00190424)
(0 0 0.00195737)
(0 0 0.00201055)
(0 0 0.00206376)
(0 0 0.00211702)
(0 0 0.00217031)
(0 0 0.00222363)
(0 0 0.00227698)
(0 0 0.00233034)
(0 0 0.00238372)
(0 0 0.00243711)
(0 0 0.0024905)
(0 0 0.00254388)
(0 0 0.00259725)
(0 0 0.00265059)
(0 0 0.00270391)
(0 0 0.00275718)
(0 0 0.00281041)
(0 0 0.00286357)
(0 0 0.00291667)
(0 0 0.00296968)
(0 0 0.0030226)
(0 0 0.00307541)
(0 0 0.0031281)
(0 0 0.00318066)
(0 0 0.00323307)
(0 0 0.00328532)
(0 0 0.00333739)
(0 0 0.00338927)
(0 0 0.00344093)
(0 0 0.00349237)
(0 0 0.00354357)
(0 0 0.0035945)
(0 0 0.00364515)
(0 0 0.0036955)
(0 0 0.00374552)
(0 0 0.00379521)
(0 0 0.00384453)
(0 0 0.00389346)
(0 0 0.003942)
(0 0 0.0039901)
(0 0 0.00403775)
(0 0 0.00408492)
(0 0 0.0041316)
(0 0 0.00417776)
(0 0 0.00422336)
(0 0 0.0042684)
(0 0 0.00431284)
(0 0 0.00435666)
(0 0 0.00439984)
(0 0 0.00444234)
(0 0 0.00448414)
(0 0 0.00452522)
(0 0 0.00456555)
(0 0 0.00460511)
(0 0 0.00464387)
(0 0 0.0046818)
(0 0 0.00471888)
(0 0 0.00475508)
(0 0 0.00479039)
(0 0 0.00482476)
(0 0 0.00485819)
(0 0 0.00489064)
(0 0 0.0049221)
(0 0 0.00495253)
(0 0 0.00498192)
(0 0 0.00501025)
(0 0 0.00503749)
(0 0 0.00506363)
(0 0 0.00508864)
(0 0 0.00511251)
(0 0 0.00513521)
(0 0 0.00515673)
(0 0 0.00517706)
(0 0 0.00519617)
(0 0 0.00521406)
(0 0 0.00523071)
(0 0 0.00524611)
(0 0 0.00526024)
(0 0 0.00527311)
(0 0 0.00528469)
(0 0 0.00529498)
(0 0 0.00530397)
(0 0 0.00531167)
(0 0 0.00531805)
(0 0 0.00532313)
(0 0 0.0053269)
(0 0 0.00532936)
(0 0 0.0053305)
(0 0 0.00533034)
(0 0 0.00532887)
(0 0 0.0053261)
(0 0 0.00532203)
(0 0 0.00531667)
(0 0 0.00531003)
(0 0 0.00530211)
(0 0 0.00529293)
(0 0 0.0052825)
(0 0 0.00527082)
(0 0 0.00525792)
(0 0 0.0052438)
(0 0 0.00522848)
(0 0 0.00521198)
(0 0 0.0051943)
(0 0 0.00517548)
(0 0 0.00515552)
(0 0 0.00513444)
(0 0 0.00511227)
(0 0 0.00508902)
(0 0 0.00506472)
(0 0 0.00503938)
(0 0 0.00501303)
(0 0 0.00498569)
(0 0 0.00495738)
(0 0 0.00492812)
(0 0 0.00489794)
(0 0 0.00486686)
(0 0 0.0048349)
(0 0 0.00480208)
(0 0 0.00476844)
(0 0 0.00473399)
(0 0 0.00469875)
(0 0 0.00466276)
(0 0 0.00462603)
(0 0 0.00458859)
(0 0 0.00455046)
(0 0 0.00451166)
(0 0 0.00447223)
(0 0 0.00443217)
(0 0 0.00439152)
(0 0 0.00435029)
(0 0 0.00430852)
(0 0 0.00426622)
(0 0 0.0042234)
(0 0 0.00418011)
(0 0 0.00413634)
(0 0 0.00409214)
(0 0 0.00404751)
(0 0 0.00400247)
(0 0 0.00395706)
(0 0 0.00391127)
(0 0 0.00386514)
(0 0 0.00381868)
(0 0 0.00377191)
(0 0 0.00372484)
(0 0 0.0036775)
(0 0 0.0036299)
(0 0 0.00358205)
(0 0 0.00353397)
(0 0 0.00348567)
(0 0 0.00343718)
(0 0 0.0033885)
(0 0 0.00333965)
(0 0 0.00329063)
(0 0 0.00324147)
(0 0 0.00319218)
(0 0 0.00314276)
(0 0 0.00309323)
(0 0 0.00304359)
(0 0 0.00299387)
(0 0 0.00294406)
(0 0 0.00289418)
(0 0 0.00284423)
(0 0 0.00279423)
(0 0 0.00274419)
(0 0 0.0026941)
(0 0 0.00264399)
(0 0 0.00259385)
(0 0 0.00254369)
(0 0 0.00249352)
(0 0 0.00244334)
(0 0 0.00239316)
(0 0 0.00234299)
(0 0 0.00229282)
(0 0 0.00224267)
(0 0 0.00219254)
(0 0 0.00214243)
(0 0 0.00209234)
(0 0 0.00204228)
(0 0 0.00199226)
(0 0 0.00194227)
(0 0 0.00189231)
(0 0 0.00184239)
(0 0 0.00179252)
(0 0 0.00174268)
(0 0 0.00169289)
(0 0 0.00164315)
(0 0 0.00159345)
(0 0 0.00154379)
(0 0 0.00149419)
(0 0 0.00144463)
(0 0 0.00139512)
(0 0 0.00134565)
(0 0 0.00129624)
(0 0 0.00124687)
(0 0 0.00119754)
(0 0 0.00114827)
(0 0 0.00109903)
(0 0 0.00104985)
(0 0 0.0010007)
(0 0 0.000951601)
(0 0 0.000902539)
(0 0 0.000853516)
(0 0 0.000804531)
(0 0 0.000755583)
(0 0 0.000706668)
(0 0 0.000657786)
(0 0 0.000608934)
(0 0 0.000560111)
(0 0 0.000511315)
(0 0 0.000462543)
(0 0 0.000413793)
(0 0 0.000365064)
(0 0 0.000316352)
(0 0 0.000267656)
(0 0 0.000218973)
(0 0 0.000170301)
(0 0 0.000121638)
(0 0 7.29802e-05)
(0 0 2.43263e-05)
(0 0 4.29789e-05)
(0 0 0.000128939)
(0 0 0.000214908)
(0 0 0.00030089)
(0 0 0.000386891)
(0 0 0.000472915)
(0 0 0.000558969)
(0 0 0.000645058)
(0 0 0.000731185)
(0 0 0.000817358)
(0 0 0.000903579)
(0 0 0.000989854)
(0 0 0.00107619)
(0 0 0.00116258)
(0 0 0.00124905)
(0 0 0.00133558)
(0 0 0.00142219)
(0 0 0.00150888)
(0 0 0.00159565)
(0 0 0.00168251)
(0 0 0.00176946)
(0 0 0.00185649)
(0 0 0.00194362)
(0 0 0.00203085)
(0 0 0.00211817)
(0 0 0.00220559)
(0 0 0.0022931)
(0 0 0.00238072)
(0 0 0.00246844)
(0 0 0.00255626)
(0 0 0.00264418)
(0 0 0.0027322)
(0 0 0.00282031)
(0 0 0.00290852)
(0 0 0.00299682)
(0 0 0.00308521)
(0 0 0.00317368)
(0 0 0.00326223)
(0 0 0.00335086)
(0 0 0.00343956)
(0 0 0.00352833)
(0 0 0.00361715)
(0 0 0.00370603)
(0 0 0.00379494)
(0 0 0.00388389)
(0 0 0.00397286)
(0 0 0.00406185)
(0 0 0.00415084)
(0 0 0.00423981)
(0 0 0.00432877)
(0 0 0.00441769)
(0 0 0.00450656)
(0 0 0.00459536)
(0 0 0.00468408)
(0 0 0.0047727)
(0 0 0.0048612)
(0 0 0.00494957)
(0 0 0.00503778)
(0 0 0.00512581)
(0 0 0.00521365)
(0 0 0.00530126)
(0 0 0.00538863)
(0 0 0.00547573)
(0 0 0.00556253)
(0 0 0.00564901)
(0 0 0.00573514)
(0 0 0.0058209)
(0 0 0.00590624)
(0 0 0.00599115)
(0 0 0.00607558)
(0 0 0.00615952)
(0 0 0.00624292)
(0 0 0.00632575)
(0 0 0.00640797)
(0 0 0.00648956)
(0 0 0.00657047)
(0 0 0.00665066)
(0 0 0.00673011)
(0 0 0.00680876)
(0 0 0.00688658)
(0 0 0.00696353)
(0 0 0.00703958)
(0 0 0.00711467)
(0 0 0.00718876)
(0 0 0.00726182)
(0 0 0.00733381)
(0 0 0.00740467)
(0 0 0.00747437)
(0 0 0.00754287)
(0 0 0.00761012)
(0 0 0.00767608)
(0 0 0.0077407)
(0 0 0.00780395)
(0 0 0.00786577)
(0 0 0.00792614)
(0 0 0.00798501)
(0 0 0.00804233)
(0 0 0.00809807)
(0 0 0.00815218)
(0 0 0.00820463)
(0 0 0.00825538)
(0 0 0.00830439)
(0 0 0.00835163)
(0 0 0.00839705)
(0 0 0.00844063)
(0 0 0.00848234)
(0 0 0.00852214)
(0 0 0.00855999)
(0 0 0.00859588)
(0 0 0.00862978)
(0 0 0.00866165)
(0 0 0.00869148)
(0 0 0.00871924)
(0 0 0.00874492)
(0 0 0.00876849)
(0 0 0.00878994)
(0 0 0.00880925)
(0 0 0.00882641)
(0 0 0.0088414)
(0 0 0.00885423)
(0 0 0.00886488)
(0 0 0.00887335)
(0 0 0.00887963)
(0 0 0.00888372)
(0 0 0.00888563)
(0 0 0.00888535)
(0 0 0.0088829)
(0 0 0.00887827)
(0 0 0.00887148)
(0 0 0.00886254)
(0 0 0.00885146)
(0 0 0.00883826)
(0 0 0.00882295)
(0 0 0.00880555)
(0 0 0.00878607)
(0 0 0.00876455)
(0 0 0.008741)
(0 0 0.00871545)
(0 0 0.00868792)
(0 0 0.00865845)
(0 0 0.00862705)
(0 0 0.00859377)
(0 0 0.00855862)
(0 0 0.00852165)
(0 0 0.00848288)
(0 0 0.00844235)
(0 0 0.0084001)
(0 0 0.00835616)
(0 0 0.00831056)
(0 0 0.00826335)
(0 0 0.00821456)
(0 0 0.00816423)
(0 0 0.0081124)
(0 0 0.00805911)
(0 0 0.00800439)
(0 0 0.00794829)
(0 0 0.00789084)
(0 0 0.00783209)
(0 0 0.00777208)
(0 0 0.00771084)
(0 0 0.00764841)
(0 0 0.00758483)
(0 0 0.00752015)
(0 0 0.0074544)
(0 0 0.00738761)
(0 0 0.00731983)
(0 0 0.0072511)
(0 0 0.00718145)
(0 0 0.00711092)
(0 0 0.00703955)
(0 0 0.00696736)
(0 0 0.0068944)
(0 0 0.0068207)
(0 0 0.0067463)
(0 0 0.00667122)
(0 0 0.0065955)
(0 0 0.00651917)
(0 0 0.00644226)
(0 0 0.00636481)
(0 0 0.00628684)
(0 0 0.00620838)
(0 0 0.00612945)
(0 0 0.0060501)
(0 0 0.00597033)
(0 0 0.00589018)
(0 0 0.00580968)
(0 0 0.00572884)
(0 0 0.00564769)
(0 0 0.00556626)
(0 0 0.00548455)
(0 0 0.00540261)
(0 0 0.00532043)
(0 0 0.00523805)
(0 0 0.00515549)
(0 0 0.00507275)
(0 0 0.00498987)
(0 0 0.00490684)
(0 0 0.0048237)
(0 0 0.00474045)
(0 0 0.00465711)
(0 0 0.00457369)
(0 0 0.00449021)
(0 0 0.00440667)
(0 0 0.0043231)
(0 0 0.00423949)
(0 0 0.00415587)
(0 0 0.00407223)
(0 0 0.0039886)
(0 0 0.00390497)
(0 0 0.00382136)
(0 0 0.00373777)
(0 0 0.00365421)
(0 0 0.00357068)
(0 0 0.0034872)
(0 0 0.00340377)
(0 0 0.00332039)
(0 0 0.00323707)
(0 0 0.00315381)
(0 0 0.00307061)
(0 0 0.00298748)
(0 0 0.00290442)
(0 0 0.00282144)
(0 0 0.00273852)
(0 0 0.00265569)
(0 0 0.00257293)
(0 0 0.00249026)
(0 0 0.00240766)
(0 0 0.00232514)
(0 0 0.0022427)
(0 0 0.00216034)
(0 0 0.00207806)
(0 0 0.00199585)
(0 0 0.00191373)
(0 0 0.00183168)
(0 0 0.0017497)
(0 0 0.00166779)
(0 0 0.00158596)
(0 0 0.00150419)
(0 0 0.00142249)
(0 0 0.00134085)
(0 0 0.00125927)
(0 0 0.00117774)
(0 0 0.00109628)
(0 0 0.00101486)
(0 0 0.000933489)
(0 0 0.000852164)
(0 0 0.00077088)
(0 0 0.000689633)
(0 0 0.00060842)
(0 0 0.000527236)
(0 0 0.000446079)
(0 0 0.000364943)
(0 0 0.000283826)
(0 0 0.000202723)
(0 0 0.00012163)
(0 0 4.05425e-05)
(0 0 6.01667e-05)
(0 0 0.000180504)
(0 0 0.000300852)
(0 0 0.00042122)
(0 0 0.000541613)
(0 0 0.000662041)
(0 0 0.000782509)
(0 0 0.000903026)
(0 0 0.0010236)
(0 0 0.00114423)
(0 0 0.00126494)
(0 0 0.00138571)
(0 0 0.00150658)
(0 0 0.00162752)
(0 0 0.00174857)
(0 0 0.00186971)
(0 0 0.00199096)
(0 0 0.00211232)
(0 0 0.0022338)
(0 0 0.00235539)
(0 0 0.00247711)
(0 0 0.00259896)
(0 0 0.00272094)
(0 0 0.00284305)
(0 0 0.0029653)
(0 0 0.00308768)
(0 0 0.00321021)
(0 0 0.00333287)
(0 0 0.00345568)
(0 0 0.00357863)
(0 0 0.00370171)
(0 0 0.00382494)
(0 0 0.0039483)
(0 0 0.0040718)
(0 0 0.00419542)
(0 0 0.00431917)
(0 0 0.00444304)
(0 0 0.00456702)
(0 0 0.00469111)
(0 0 0.0048153)
(0 0 0.00493958)
(0 0 0.00506394)
(0 0 0.00518838)
(0 0 0.00531287)
(0 0 0.00543741)
(0 0 0.00556199)
(0 0 0.00568658)
(0 0 0.00581118)
(0 0 0.00593577)
(0 0 0.00606033)
(0 0 0.00618483)
(0 0 0.00630927)
(0 0 0.00643362)
(0 0 0.00655785)
(0 0 0.00668194)
(0 0 0.00680587)
(0 0 0.00692962)
(0 0 0.00705314)
(0 0 0.00717642)
(0 0 0.00729942)
(0 0 0.00742211)
(0 0 0.00754446)
(0 0 0.00766644)
(0 0 0.007788)
(0 0 0.00790911)
(0 0 0.00802973)
(0 0 0.00814983)
(0 0 0.00826935)
(0 0 0.00838826)
(0 0 0.00850652)
(0 0 0.00862408)
(0 0 0.00874088)
(0 0 0.00885689)
(0 0 0.00897206)
(0 0 0.00908633)
(0 0 0.00919966)
(0 0 0.00931198)
(0 0 0.00942326)
(0 0 0.00953343)
(0 0 0.00964243)
(0 0 0.00975022)
(0 0 0.00985674)
(0 0 0.00996192)
(0 0 0.0100657)
(0 0 0.0101681)
(0 0 0.0102689)
(0 0 0.0103682)
(0 0 0.0104658)
(0 0 0.0105618)
(0 0 0.010656)
(0 0 0.0107484)
(0 0 0.0108389)
(0 0 0.0109275)
(0 0 0.0110141)
(0 0 0.0110987)
(0 0 0.0111812)
(0 0 0.0112615)
(0 0 0.0113396)
(0 0 0.0114154)
(0 0 0.0114889)
(0 0 0.01156)
(0 0 0.0116286)
(0 0 0.0116948)
(0 0 0.0117585)
(0 0 0.0118195)
(0 0 0.0118779)
(0 0 0.0119337)
(0 0 0.0119867)
(0 0 0.012037)
(0 0 0.0120845)
(0 0 0.0121292)
(0 0 0.012171)
(0 0 0.0122099)
(0 0 0.0122458)
(0 0 0.0122789)
(0 0 0.0123089)
(0 0 0.012336)
(0 0 0.01236)
(0 0 0.012381)
(0 0 0.012399)
(0 0 0.0124139)
(0 0 0.0124257)
(0 0 0.0124345)
(0 0 0.0124403)
(0 0 0.0124429)
(0 0 0.0124425)
(0 0 0.0124391)
(0 0 0.0124326)
(0 0 0.0124231)
(0 0 0.0124106)
(0 0 0.012395)
(0 0 0.0123765)
(0 0 0.0123551)
(0 0 0.0123307)
(0 0 0.0123034)
(0 0 0.0122732)
(0 0 0.0122402)
(0 0 0.0122044)
(0 0 0.0121658)
(0 0 0.0121245)
(0 0 0.0120805)
(0 0 0.0120339)
(0 0 0.0119846)
(0 0 0.0119328)
(0 0 0.0118785)
(0 0 0.0118217)
(0 0 0.0117625)
(0 0 0.0117009)
(0 0 0.0116371)
(0 0 0.0115709)
(0 0 0.0115025)
(0 0 0.011432)
(0 0 0.0113594)
(0 0 0.0112847)
(0 0 0.0112081)
(0 0 0.0111295)
(0 0 0.011049)
(0 0 0.0109667)
(0 0 0.0108826)
(0 0 0.0107968)
(0 0 0.0107094)
(0 0 0.0106203)
(0 0 0.0105297)
(0 0 0.0104376)
(0 0 0.010344)
(0 0 0.0102491)
(0 0 0.0101528)
(0 0 0.0100553)
(0 0 0.00995647)
(0 0 0.0098565)
(0 0 0.00975539)
(0 0 0.0096532)
(0 0 0.00954997)
(0 0 0.00944576)
(0 0 0.0093406)
(0 0 0.00923455)
(0 0 0.00912765)
(0 0 0.00901994)
(0 0 0.00891146)
(0 0 0.00880226)
(0 0 0.00869237)
(0 0 0.00858184)
(0 0 0.00847071)
(0 0 0.008359)
(0 0 0.00824676)
(0 0 0.00813402)
(0 0 0.00802081)
(0 0 0.00790717)
(0 0 0.00779313)
(0 0 0.00767872)
(0 0 0.00756396)
(0 0 0.00744889)
(0 0 0.00733354)
(0 0 0.00721792)
(0 0 0.00710207)
(0 0 0.006986)
(0 0 0.00686975)
(0 0 0.00675333)
(0 0 0.00663676)
(0 0 0.00652006)
(0 0 0.00640326)
(0 0 0.00628637)
(0 0 0.0061694)
(0 0 0.00605238)
(0 0 0.00593532)
(0 0 0.00581823)
(0 0 0.00570113)
(0 0 0.00558402)
(0 0 0.00546693)
(0 0 0.00534987)
(0 0 0.00523283)
(0 0 0.00511584)
(0 0 0.0049989)
(0 0 0.00488202)
(0 0 0.00476521)
(0 0 0.00464847)
(0 0 0.00453181)
(0 0 0.00441524)
(0 0 0.00429876)
(0 0 0.00418237)
(0 0 0.00406609)
(0 0 0.00394991)
(0 0 0.00383383)
(0 0 0.00371786)
(0 0 0.003602)
(0 0 0.00348625)
(0 0 0.00337061)
(0 0 0.00325508)
(0 0 0.00313967)
(0 0 0.00302436)
(0 0 0.00290917)
(0 0 0.00279409)
(0 0 0.00267911)
(0 0 0.00256424)
(0 0 0.00244948)
(0 0 0.00233481)
(0 0 0.00222024)
(0 0 0.00210577)
(0 0 0.00199139)
(0 0 0.0018771)
(0 0 0.00176289)
(0 0 0.00164877)
(0 0 0.00153471)
(0 0 0.00142073)
(0 0 0.00130682)
(0 0 0.00119297)
(0 0 0.00107918)
(0 0 0.000965439)
(0 0 0.000851746)
(0 0 0.000738094)
(0 0 0.000624479)
(0 0 0.000510895)
(0 0 0.000397337)
(0 0 0.000283798)
(0 0 0.000170273)
(0 0 5.67567e-05)
(0 0 7.73507e-05)
(0 0 0.000232057)
(0 0 0.000386778)
(0 0 0.000541523)
(0 0 0.000696302)
(0 0 0.000851125)
(0 0 0.001006)
(0 0 0.00116094)
(0 0 0.00131595)
(0 0 0.00147104)
(0 0 0.00162622)
(0 0 0.00178149)
(0 0 0.00193687)
(0 0 0.00209237)
(0 0 0.00224799)
(0 0 0.00240373)
(0 0 0.00255962)
(0 0 0.00271564)
(0 0 0.00287182)
(0 0 0.00302815)
(0 0 0.00318464)
(0 0 0.00334129)
(0 0 0.00349812)
(0 0 0.00365511)
(0 0 0.00381229)
(0 0 0.00396964)
(0 0 0.00412717)
(0 0 0.00428488)
(0 0 0.00444278)
(0 0 0.00460085)
(0 0 0.00475911)
(0 0 0.00491755)
(0 0 0.00507616)
(0 0 0.00523494)
(0 0 0.0053939)
(0 0 0.00555301)
(0 0 0.00571228)
(0 0 0.0058717)
(0 0 0.00603126)
(0 0 0.00619094)
(0 0 0.00635075)
(0 0 0.00651066)
(0 0 0.00667067)
(0 0 0.00683075)
(0 0 0.0069909)
(0 0 0.0071511)
(0 0 0.00731132)
(0 0 0.00747154)
(0 0 0.00763176)
(0 0 0.00779193)
(0 0 0.00795205)
(0 0 0.00811208)
(0 0 0.00827199)
(0 0 0.00843176)
(0 0 0.00859135)
(0 0 0.00875073)
(0 0 0.00890988)
(0 0 0.00906875)
(0 0 0.0092273)
(0 0 0.0093855)
(0 0 0.0095433)
(0 0 0.00970067)
(0 0 0.00985755)
(0 0 0.0100139)
(0 0 0.0101697)
(0 0 0.0103248)
(0 0 0.0104793)
(0 0 0.0106331)
(0 0 0.010786)
(0 0 0.0109382)
(0 0 0.0110894)
(0 0 0.0112396)
(0 0 0.0113889)
(0 0 0.011537)
(0 0 0.011684)
(0 0 0.0118298)
(0 0 0.0119744)
(0 0 0.0121175)
(0 0 0.0122593)
(0 0 0.0123995)
(0 0 0.0125382)
(0 0 0.0126752)
(0 0 0.0128106)
(0 0 0.0129441)
(0 0 0.0130758)
(0 0 0.0132056)
(0 0 0.0133333)
(0 0 0.0134589)
(0 0 0.0135824)
(0 0 0.0137036)
(0 0 0.0138225)
(0 0 0.013939)
(0 0 0.0140531)
(0 0 0.0141645)
(0 0 0.0142734)
(0 0 0.0143795)
(0 0 0.0144828)
(0 0 0.0145833)
(0 0 0.0146809)
(0 0 0.0147755)
(0 0 0.014867)
(0 0 0.0149554)
(0 0 0.0150405)
(0 0 0.0151224)
(0 0 0.015201)
(0 0 0.0152762)
(0 0 0.015348)
(0 0 0.0154163)
(0 0 0.015481)
(0 0 0.0155421)
(0 0 0.0155996)
(0 0 0.0156533)
(0 0 0.0157034)
(0 0 0.0157497)
(0 0 0.0157922)
(0 0 0.0158309)
(0 0 0.0158657)
(0 0 0.0158966)
(0 0 0.0159236)
(0 0 0.0159468)
(0 0 0.015966)
(0 0 0.0159812)
(0 0 0.0159925)
(0 0 0.0159999)
(0 0 0.0160033)
(0 0 0.0160028)
(0 0 0.0159983)
(0 0 0.01599)
(0 0 0.0159777)
(0 0 0.0159616)
(0 0 0.0159416)
(0 0 0.0159177)
(0 0 0.0158901)
(0 0 0.0158587)
(0 0 0.0158235)
(0 0 0.0157847)
(0 0 0.0157422)
(0 0 0.0156961)
(0 0 0.0156465)
(0 0 0.0155933)
(0 0 0.0155366)
(0 0 0.0154766)
(0 0 0.0154132)
(0 0 0.0153465)
(0 0 0.0152766)
(0 0 0.0152035)
(0 0 0.0151273)
(0 0 0.015048)
(0 0 0.0149658)
(0 0 0.0148807)
(0 0 0.0147927)
(0 0 0.0147019)
(0 0 0.0146085)
(0 0 0.0145124)
(0 0 0.0144137)
(0 0 0.0143126)
(0 0 0.014209)
(0 0 0.0141031)
(0 0 0.0139949)
(0 0 0.0138845)
(0 0 0.013772)
(0 0 0.0136574)
(0 0 0.0135408)
(0 0 0.0134222)
(0 0 0.0133019)
(0 0 0.0131797)
(0 0 0.0130558)
(0 0 0.0129303)
(0 0 0.0128032)
(0 0 0.0126746)
(0 0 0.0125445)
(0 0 0.012413)
(0 0 0.0122802)
(0 0 0.0121462)
(0 0 0.0120109)
(0 0 0.0118745)
(0 0 0.0117369)
(0 0 0.0115984)
(0 0 0.0114588)
(0 0 0.0113184)
(0 0 0.011177)
(0 0 0.0110348)
(0 0 0.0108919)
(0 0 0.0107482)
(0 0 0.0106038)
(0 0 0.0104588)
(0 0 0.0103132)
(0 0 0.0101671)
(0 0 0.0100204)
(0 0 0.00987323)
(0 0 0.00972564)
(0 0 0.00957764)
(0 0 0.00942928)
(0 0 0.00928059)
(0 0 0.0091316)
(0 0 0.00898233)
(0 0 0.00883282)
(0 0 0.0086831)
(0 0 0.00853319)
(0 0 0.00838312)
(0 0 0.00823292)
(0 0 0.0080826)
(0 0 0.00793219)
(0 0 0.0077817)
(0 0 0.00763117)
(0 0 0.0074806)
(0 0 0.00733002)
(0 0 0.00717944)
(0 0 0.00702888)
(0 0 0.00687834)
(0 0 0.00672785)
(0 0 0.00657742)
(0 0 0.00642705)
(0 0 0.00627677)
(0 0 0.00612657)
(0 0 0.00597646)
(0 0 0.00582647)
(0 0 0.00567658)
(0 0 0.00552681)
(0 0 0.00537717)
(0 0 0.00522765)
(0 0 0.00507827)
(0 0 0.00492902)
(0 0 0.00477992)
(0 0 0.00463095)
(0 0 0.00448213)
(0 0 0.00433345)
(0 0 0.00418492)
(0 0 0.00403653)
(0 0 0.00388828)
(0 0 0.00374018)
(0 0 0.00359222)
(0 0 0.00344439)
(0 0 0.00329671)
(0 0 0.00314915)
(0 0 0.00300173)
(0 0 0.00285444)
(0 0 0.00270726)
(0 0 0.00256021)
(0 0 0.00241327)
(0 0 0.00226644)
(0 0 0.00211971)
(0 0 0.00197308)
(0 0 0.00182654)
(0 0 0.00168009)
(0 0 0.00153372)
(0 0 0.00138743)
(0 0 0.0012412)
(0 0 0.00109503)
(0 0 0.000948916)
(0 0 0.000802849)
(0 0 0.000656822)
(0 0 0.000510827)
(0 0 0.000364858)
(0 0 0.000218908)
(0 0 7.2968e-05)
(0 0 9.45298e-05)
(0 0 0.000283596)
(0 0 0.000472679)
(0 0 0.000661793)
(0 0 0.000850948)
(0 0 0.00104016)
(0 0 0.00122943)
(0 0 0.00141878)
(0 0 0.00160822)
(0 0 0.00179775)
(0 0 0.0019874)
(0 0 0.00217716)
(0 0 0.00236706)
(0 0 0.00255709)
(0 0 0.00274728)
(0 0 0.00293762)
(0 0 0.00312813)
(0 0 0.00331882)
(0 0 0.00350969)
(0 0 0.00370074)
(0 0 0.003892)
(0 0 0.00408346)
(0 0 0.00427512)
(0 0 0.004467)
(0 0 0.0046591)
(0 0 0.00485141)
(0 0 0.00504395)
(0 0 0.00523671)
(0 0 0.00542969)
(0 0 0.0056229)
(0 0 0.00581633)
(0 0 0.00600998)
(0 0 0.00620384)
(0 0 0.00639792)
(0 0 0.00659221)
(0 0 0.0067867)
(0 0 0.00698138)
(0 0 0.00717624)
(0 0 0.00737127)
(0 0 0.00756647)
(0 0 0.00776181)
(0 0 0.00795729)
(0 0 0.00815288)
(0 0 0.00834857)
(0 0 0.00854434)
(0 0 0.00874018)
(0 0 0.00893604)
(0 0 0.00913192)
(0 0 0.00932778)
(0 0 0.0095236)
(0 0 0.00971935)
(0 0 0.009915)
(0 0 0.0101105)
(0 0 0.0103058)
(0 0 0.010501)
(0 0 0.0106958)
(0 0 0.0108904)
(0 0 0.0110847)
(0 0 0.0112785)
(0 0 0.011472)
(0 0 0.0116649)
(0 0 0.0118574)
(0 0 0.0120492)
(0 0 0.0122404)
(0 0 0.0124309)
(0 0 0.0126206)
(0 0 0.0128096)
(0 0 0.0129976)
(0 0 0.0131847)
(0 0 0.0133707)
(0 0 0.0135556)
(0 0 0.0137394)
(0 0 0.013922)
(0 0 0.0141032)
(0 0 0.014283)
(0 0 0.0144613)
(0 0 0.0146381)
(0 0 0.0148132)
(0 0 0.0149866)
(0 0 0.0151581)
(0 0 0.0153278)
(0 0 0.0154954)
(0 0 0.015661)
(0 0 0.0158244)
(0 0 0.0159855)
(0 0 0.0161442)
(0 0 0.0163005)
(0 0 0.0164542)
(0 0 0.0166053)
(0 0 0.0167536)
(0 0 0.0168991)
(0 0 0.0170417)
(0 0 0.0171812)
(0 0 0.0173176)
(0 0 0.0174507)
(0 0 0.0175806)
(0 0 0.0177071)
(0 0 0.01783)
(0 0 0.0179494)
(0 0 0.0180652)
(0 0 0.0181771)
(0 0 0.0182853)
(0 0 0.0183895)
(0 0 0.0184898)
(0 0 0.0185859)
(0 0 0.018678)
(0 0 0.0187658)
(0 0 0.0188493)
(0 0 0.0189285)
(0 0 0.0190033)
(0 0 0.0190736)
(0 0 0.0191395)
(0 0 0.0192007)
(0 0 0.0192574)
(0 0 0.0193094)
(0 0 0.0193567)
(0 0 0.0193993)
(0 0 0.0194371)
(0 0 0.0194702)
(0 0 0.0194985)
(0 0 0.019522)
(0 0 0.0195406)
(0 0 0.0195544)
(0 0 0.0195634)
(0 0 0.0195676)
(0 0 0.019567)
(0 0 0.0195615)
(0 0 0.0195512)
(0 0 0.0195362)
(0 0 0.0195164)
(0 0 0.0194919)
(0 0 0.0194627)
(0 0 0.0194289)
(0 0 0.0193904)
(0 0 0.0193474)
(0 0 0.0192999)
(0 0 0.0192478)
(0 0 0.0191914)
(0 0 0.0191306)
(0 0 0.0190655)
(0 0 0.0189962)
(0 0 0.0189227)
(0 0 0.0188451)
(0 0 0.0187634)
(0 0 0.0186778)
(0 0 0.0185884)
(0 0 0.0184951)
(0 0 0.0183981)
(0 0 0.0182975)
(0 0 0.0181933)
(0 0 0.0180856)
(0 0 0.0179745)
(0 0 0.0178602)
(0 0 0.0177426)
(0 0 0.0176218)
(0 0 0.0174981)
(0 0 0.0173713)
(0 0 0.0172417)
(0 0 0.0171094)
(0 0 0.0169743)
(0 0 0.0168366)
(0 0 0.0166964)
(0 0 0.0165537)
(0 0 0.0164087)
(0 0 0.0162615)
(0 0 0.016112)
(0 0 0.0159605)
(0 0 0.015807)
(0 0 0.0156515)
(0 0 0.0154941)
(0 0 0.015335)
(0 0 0.0151742)
(0 0 0.0150118)
(0 0 0.0148478)
(0 0 0.0146823)
(0 0 0.0145155)
(0 0 0.0143473)
(0 0 0.0141778)
(0 0 0.0140071)
(0 0 0.0138353)
(0 0 0.0136625)
(0 0 0.0134886)
(0 0 0.0133138)
(0 0 0.0131381)
(0 0 0.0129615)
(0 0 0.0127842)
(0 0 0.0126062)
(0 0 0.0124275)
(0 0 0.0122481)
(0 0 0.0120682)
(0 0 0.0118877)
(0 0 0.0117068)
(0 0 0.0115254)
(0 0 0.0113436)
(0 0 0.0111614)
(0 0 0.0109789)
(0 0 0.0107961)
(0 0 0.0106131)
(0 0 0.0104298)
(0 0 0.0102463)
(0 0 0.0100627)
(0 0 0.00987892)
(0 0 0.00969504)
(0 0 0.00951108)
(0 0 0.00932706)
(0 0 0.00914299)
(0 0 0.00895892)
(0 0 0.00877484)
(0 0 0.00859079)
(0 0 0.00840678)
(0 0 0.00822282)
(0 0 0.00803893)
(0 0 0.00785513)
(0 0 0.00767143)
(0 0 0.00748783)
(0 0 0.00730436)
(0 0 0.00712101)
(0 0 0.0069378)
(0 0 0.00675474)
(0 0 0.00657183)
(0 0 0.00638908)
(0 0 0.0062065)
(0 0 0.00602408)
(0 0 0.00584183)
(0 0 0.00565976)
(0 0 0.00547787)
(0 0 0.00529615)
(0 0 0.0051146)
(0 0 0.00493324)
(0 0 0.00475205)
(0 0 0.00457104)
(0 0 0.0043902)
(0 0 0.00420954)
(0 0 0.00402904)
(0 0 0.0038487)
(0 0 0.00366853)
(0 0 0.00348851)
(0 0 0.00330864)
(0 0 0.00312891)
(0 0 0.00294933)
(0 0 0.00276988)
(0 0 0.00259056)
(0 0 0.00241136)
(0 0 0.00223227)
(0 0 0.00205328)
(0 0 0.0018744)
(0 0 0.00169561)
(0 0 0.0015169)
(0 0 0.00133826)
(0 0 0.00115969)
(0 0 0.000981179)
(0 0 0.000802716)
(0 0 0.000624293)
(0 0 0.000445901)
(0 0 0.000267532)
(0 0 8.91757e-05)
(0 0 0.000111703)
(0 0 0.000335116)
(0 0 0.00055855)
(0 0 0.00078202)
(0 0 0.00100554)
(0 0 0.00122912)
(0 0 0.00145278)
(0 0 0.00167653)
(0 0 0.00190039)
(0 0 0.00212436)
(0 0 0.00234846)
(0 0 0.0025727)
(0 0 0.0027971)
(0 0 0.00302167)
(0 0 0.00324641)
(0 0 0.00347134)
(0 0 0.00369647)
(0 0 0.00392181)
(0 0 0.00414736)
(0 0 0.00437314)
(0 0 0.00459916)
(0 0 0.00482542)
(0 0 0.00505192)
(0 0 0.00527867)
(0 0 0.00550569)
(0 0 0.00573296)
(0 0 0.0059605)
(0 0 0.00618831)
(0 0 0.00641638)
(0 0 0.00664472)
(0 0 0.00687332)
(0 0 0.00710219)
(0 0 0.00733132)
(0 0 0.0075607)
(0 0 0.00779032)
(0 0 0.00802019)
(0 0 0.00825029)
(0 0 0.0084806)
(0 0 0.00871113)
(0 0 0.00894185)
(0 0 0.00917274)
(0 0 0.0094038)
(0 0 0.00963499)
(0 0 0.00986631)
(0 0 0.0100977)
(0 0 0.0103292)
(0 0 0.0105608)
(0 0 0.0107923)
(0 0 0.0110238)
(0 0 0.0112553)
(0 0 0.0114868)
(0 0 0.0117181)
(0 0 0.0119492)
(0 0 0.0121801)
(0 0 0.0124108)
(0 0 0.0126412)
(0 0 0.0128713)
(0 0 0.013101)
(0 0 0.0133302)
(0 0 0.0135589)
(0 0 0.0137871)
(0 0 0.0140146)
(0 0 0.0142415)
(0 0 0.0144676)
(0 0 0.0146929)
(0 0 0.0149173)
(0 0 0.0151407)
(0 0 0.015363)
(0 0 0.0155843)
(0 0 0.0158043)
(0 0 0.0160231)
(0 0 0.0162404)
(0 0 0.0164564)
(0 0 0.0166707)
(0 0 0.0168834)
(0 0 0.0170943)
(0 0 0.0173034)
(0 0 0.0175106)
(0 0 0.0177157)
(0 0 0.0179187)
(0 0 0.0181194)
(0 0 0.0183177)
(0 0 0.0185136)
(0 0 0.0187069)
(0 0 0.0188975)
(0 0 0.0190854)
(0 0 0.0192703)
(0 0 0.0194522)
(0 0 0.0196309)
(0 0 0.0198065)
(0 0 0.0199786)
(0 0 0.0201473)
(0 0 0.0203124)
(0 0 0.0204738)
(0 0 0.0206314)
(0 0 0.0207851)
(0 0 0.0209348)
(0 0 0.0210803)
(0 0 0.0212216)
(0 0 0.0213586)
(0 0 0.0214911)
(0 0 0.0216191)
(0 0 0.0217425)
(0 0 0.0218611)
(0 0 0.021975)
(0 0 0.0220839)
(0 0 0.0221878)
(0 0 0.0222867)
(0 0 0.0223804)
(0 0 0.022469)
(0 0 0.0225522)
(0 0 0.0226301)
(0 0 0.0227026)
(0 0 0.0227697)
(0 0 0.0228312)
(0 0 0.0228872)
(0 0 0.0229376)
(0 0 0.0229824)
(0 0 0.0230216)
(0 0 0.023055)
(0 0 0.0230828)
(0 0 0.0231048)
(0 0 0.0231212)
(0 0 0.0231318)
(0 0 0.0231367)
(0 0 0.0231359)
(0 0 0.0231294)
(0 0 0.0231173)
(0 0 0.0230995)
(0 0 0.023076)
(0 0 0.023047)
(0 0 0.0230124)
(0 0 0.0229723)
(0 0 0.0229268)
(0 0 0.0228758)
(0 0 0.0228195)
(0 0 0.0227579)
(0 0 0.022691)
(0 0 0.022619)
(0 0 0.022542)
(0 0 0.0224599)
(0 0 0.0223728)
(0 0 0.0222809)
(0 0 0.0221843)
(0 0 0.022083)
(0 0 0.0219771)
(0 0 0.0218666)
(0 0 0.0217518)
(0 0 0.0216327)
(0 0 0.0215094)
(0 0 0.0213819)
(0 0 0.0212504)
(0 0 0.0211151)
(0 0 0.0209759)
(0 0 0.020833)
(0 0 0.0206865)
(0 0 0.0205366)
(0 0 0.0203832)
(0 0 0.0202265)
(0 0 0.0200667)
(0 0 0.0199038)
(0 0 0.0197378)
(0 0 0.0195691)
(0 0 0.0193975)
(0 0 0.0192233)
(0 0 0.0190465)
(0 0 0.0188672)
(0 0 0.0186855)
(0 0 0.0185016)
(0 0 0.0183154)
(0 0 0.0181272)
(0 0 0.017937)
(0 0 0.0177448)
(0 0 0.0175509)
(0 0 0.0173551)
(0 0 0.0171578)
(0 0 0.0169588)
(0 0 0.0167584)
(0 0 0.0165566)
(0 0 0.0163534)
(0 0 0.016149)
(0 0 0.0159433)
(0 0 0.0157366)
(0 0 0.0155288)
(0 0 0.01532)
(0 0 0.0151104)
(0 0 0.0148998)
(0 0 0.0146885)
(0 0 0.0144764)
(0 0 0.0142637)
(0 0 0.0140503)
(0 0 0.0138363)
(0 0 0.0136219)
(0 0 0.0134069)
(0 0 0.0131915)
(0 0 0.0129758)
(0 0 0.0127597)
(0 0 0.0125432)
(0 0 0.0123266)
(0 0 0.0121097)
(0 0 0.0118926)
(0 0 0.0116754)
(0 0 0.011458)
(0 0 0.0112405)
(0 0 0.011023)
(0 0 0.0108054)
(0 0 0.0105878)
(0 0 0.0103702)