/*--------------------------------*- C++ -*----------------------------------*\
| =========                 |                                                 |
| \\      /  F ield         | OpenFOAM: The Open Source CFD Toolbox           |
|  \\    /   O peration     | Version:  v2012                                 |
|   \\  /    A nd           | Website:  www.openfoam.com                      |
|    \\/     M anipulation  |                                                 |
\*---------------------------------------------------------------------------*/
FoamFile
{
    version     2.0;
    format      ascii;
    class       volVectorField;
    location    "14.5";
    object      U;
}
// * * * * * * * * * * * * * * * * * * * * * * * * * * * * * * * * * * * * * //

dimensions      [0 1 -1 0 0 0 0];


internalField   nonuniform List<vector> 
65536
(
(0.000700612 -0.000700633 0)
(0.00210188 -0.000700678 0)
(0.00350328 -0.000700765 0)
(0.0049049 -0.000700896 0)
(0.00630682 -0.00070107 0)
(0.00770914 -0.000701286 0)
(0.00911193 -0.000701544 0)
(0.0105153 -0.000701844 0)
(0.0119193 -0.000702185 0)
(0.013324 -0.000702565 0)
(0.0147295 -0.000702984 0)
(0.0161359 -0.000703441 0)
(0.0175432 -0.000703934 0)
(0.0189516 -0.000704463 0)
(0.020361 -0.000705025 0)
(0.0217717 -0.00070562 0)
(0.0231835 -0.000706245 0)
(0.0245966 -0.000706899 0)
(0.0260111 -0.000707579 0)
(0.0274269 -0.000708284 0)
(0.0288442 -0.000709011 0)
(0.0302629 -0.000709759 0)
(0.0316832 -0.000710524 0)
(0.033105 -0.000711304 0)
(0.0345284 -0.000712097 0)
(0.0359534 -0.000712899 0)
(0.03738 -0.000713707 0)
(0.0388082 -0.000714518 0)
(0.0402381 -0.000715329 0)
(0.0416695 -0.000716137 0)
(0.0431026 -0.000716937 0)
(0.0445373 -0.000717726 0)
(0.0459735 -0.0007185 0)
(0.0474113 -0.000719254 0)
(0.0488506 -0.000719985 0)
(0.0502913 -0.000720688 0)
(0.0517334 -0.000721359 0)
(0.0531768 -0.000721992 0)
(0.0546214 -0.000722583 0)
(0.0560671 -0.000723126 0)
(0.0575139 -0.000723617 0)
(0.0589617 -0.000724049 0)
(0.0604102 -0.000724418 0)
(0.0618594 -0.000724716 0)
(0.0633092 -0.00072494 0)
(0.0647593 -0.000725081 0)
(0.0662096 -0.000725135 0)
(0.0676599 -0.000725095 0)
(0.06911 -0.000724953 0)
(0.0705598 -0.000724703 0)
(0.072009 -0.00072434 0)
(0.0734573 -0.000723854 0)
(0.0749045 -0.00072324 0)
(0.0763504 -0.000722489 0)
(0.0777946 -0.000721596 0)
(0.0792369 -0.000720551 0)
(0.080677 -0.000719348 0)
(0.0821145 -0.000717979 0)
(0.0835491 -0.000716436 0)
(0.0849804 -0.000714712 0)
(0.0864081 -0.000712798 0)
(0.0878318 -0.000710686 0)
(0.0892511 -0.000708369 0)
(0.0906655 -0.000705839 0)
(0.0920746 -0.000703088 0)
(0.0934781 -0.000700109 0)
(0.0948753 -0.000696892 0)
(0.0962659 -0.000693431 0)
(0.0976493 -0.000689718 0)
(0.099025 -0.000685746 0)
(0.100393 -0.000681506 0)
(0.101751 -0.000676992 0)
(0.103101 -0.000672198 0)
(0.10444 -0.000667115 0)
(0.10577 -0.000661737 0)
(0.107088 -0.000656059 0)
(0.108394 -0.000650074 0)
(0.109688 -0.000643776 0)
(0.11097 -0.000637159 0)
(0.112237 -0.00063022 0)
(0.113491 -0.000622952 0)
(0.114729 -0.000615353 0)
(0.115952 -0.000607417 0)
(0.117159 -0.000599142 0)
(0.118349 -0.000590525 0)
(0.119522 -0.000581563 0)
(0.120676 -0.000572255 0)
(0.121811 -0.000562599 0)
(0.122927 -0.000552595 0)
(0.124022 -0.000542242 0)
(0.125096 -0.000531541 0)
(0.126148 -0.000520493 0)
(0.127178 -0.000509099 0)
(0.128185 -0.000497363 0)
(0.129168 -0.000485287 0)
(0.130127 -0.000472874 0)
(0.13106 -0.000460131 0)
(0.131967 -0.00044706 0)
(0.132849 -0.000433669 0)
(0.133702 -0.000419963 0)
(0.134529 -0.00040595 0)
(0.135327 -0.000391637 0)
(0.136096 -0.000377034 0)
(0.136835 -0.000362149 0)
(0.137544 -0.000346991 0)
(0.138223 -0.000331572 0)
(0.138871 -0.000315903 0)
(0.139487 -0.000299994 0)
(0.140071 -0.000283858 0)
(0.140623 -0.000267508 0)
(0.141141 -0.000250957 0)
(0.141627 -0.000234218 0)
(0.142078 -0.000217307 0)
(0.142496 -0.000200236 0)
(0.142879 -0.000183021 0)
(0.143228 -0.000165678 0)
(0.143542 -0.000148221 0)
(0.143821 -0.000130667 0)
(0.144065 -0.000113031 0)
(0.144273 -9.53298e-05 0)
(0.144446 -7.75795e-05 0)
(0.144584 -5.97963e-05 0)
(0.144686 -4.19966e-05 0)
(0.144752 -2.41967e-05 0)
(0.144782 -6.41303e-06 0)
(0.144777 1.13384e-05 0)
(0.144737 2.90413e-05 0)
(0.144661 4.66801e-05 0)
(0.14455 6.42389e-05 0)
(0.144404 8.17025e-05 0)
(0.144223 9.90557e-05 0)
(0.144008 0.000116284 0)
(0.143758 0.000133372 0)
(0.143474 0.000150307 0)
(0.143157 0.000167076 0)
(0.142806 0.000183664 0)
(0.142422 0.000200059 0)
(0.142005 0.00021625 0)
(0.141556 0.000232225 0)
(0.141076 0.000247972 0)
(0.140564 0.000263482 0)
(0.140022 0.000278744 0)
(0.139449 0.00029375 0)
(0.138847 0.00030849 0)
(0.138215 0.000322957 0)
(0.137554 0.000337144 0)
(0.136866 0.000351043 0)
(0.13615 0.000364649 0)
(0.135407 0.000377955 0)
(0.134638 0.000390958 0)
(0.133843 0.000403652 0)
(0.133023 0.000416035 0)
(0.132179 0.000428103 0)
(0.13131 0.000439853 0)
(0.130419 0.000451283 0)
(0.129505 0.000462393 0)
(0.128569 0.000473181 0)
(0.127612 0.000483647 0)
(0.126634 0.00049379 0)
(0.125636 0.000503613 0)
(0.124619 0.000513116 0)
(0.123583 0.0005223 0)
(0.12253 0.000531167 0)
(0.121458 0.000539721 0)
(0.12037 0.000547963 0)
(0.119266 0.000555897 0)
(0.118147 0.000563526 0)
(0.117012 0.000570855 0)
(0.115863 0.000577886 0)
(0.1147 0.000584626 0)
(0.113524 0.000591078 0)
(0.112335 0.000597247 0)
(0.111135 0.000603139 0)
(0.109923 0.000608758 0)
(0.1087 0.000614111 0)
(0.107466 0.000619203 0)
(0.106222 0.00062404 0)
(0.10497 0.000628628 0)
(0.103708 0.000632972 0)
(0.102437 0.00063708 0)
(0.101159 0.000640957 0)
(0.0998734 0.000644609 0)
(0.0985805 0.000648043 0)
(0.097281 0.000651266 0)
(0.0959752 0.000654284 0)
(0.0946637 0.000657102 0)
(0.0933466 0.000659729 0)
(0.0920246 0.000662169 0)
(0.0906978 0.00066443 0)
(0.0893667 0.000666517 0)
(0.0880315 0.000668437 0)
(0.0866928 0.000670197 0)
(0.0853506 0.000671802 0)
(0.0840054 0.000673259 0)
(0.0826574 0.000674574 0)
(0.081307 0.000675752 0)
(0.0799543 0.0006768 0)
(0.0785996 0.000677724 0)
(0.0772433 0.000678528 0)
(0.0758854 0.00067922 0)
(0.0745263 0.000679803 0)
(0.0731661 0.000680285 0)
(0.0718051 0.000680669 0)
(0.0704433 0.000680962 0)
(0.0690811 0.000681168 0)
(0.0677186 0.000681293 0)
(0.0663559 0.00068134 0)
(0.0649931 0.000681316 0)
(0.0636305 0.000681224 0)
(0.0622682 0.000681069 0)
(0.0609062 0.000680856 0)
(0.0595447 0.000680589 0)
(0.0581838 0.000680272 0)
(0.0568236 0.000679908 0)
(0.0554641 0.000679503 0)
(0.0541055 0.000679059 0)
(0.0527479 0.000678581 0)
(0.0513912 0.000678072 0)
(0.0500355 0.000677536 0)
(0.048681 0.000676975 0)
(0.0473276 0.000676393 0)
(0.0459754 0.000675794 0)
(0.0446244 0.00067518 0)
(0.0432747 0.000674554 0)
(0.0419262 0.00067392 0)
(0.040579 0.000673279 0)
(0.0392331 0.000672634 0)
(0.0378885 0.000671988 0)
(0.0365452 0.000671344 0)
(0.0352031 0.000670703 0)
(0.0338623 0.000670068 0)
(0.0325228 0.00066944 0)
(0.0311846 0.000668823 0)
(0.0298476 0.000668217 0)
(0.0285117 0.000667625 0)
(0.0271771 0.000667048 0)
(0.0258436 0.000666489 0)
(0.0245112 0.000665948 0)
(0.0231798 0.000665427 0)
(0.0218495 0.000664927 0)
(0.0205201 0.00066445 0)
(0.0191917 0.000663998 0)
(0.0178642 0.00066357 0)
(0.0165374 0.000663168 0)
(0.0152115 0.000662794 0)
(0.0138863 0.000662448 0)
(0.0125618 0.00066213 0)
(0.0112378 0.000661843 0)
(0.00991441 0.000661585 0)
(0.0085915 0.000661359 0)
(0.00726901 0.000661164 0)
(0.00594688 0.000661 0)
(0.00462505 0.000660869 0)
(0.00330344 0.000660771 0)
(0.001982 0.000660705 0)
(0.000660655 0.000660672 0)
(0.00070057 -0.00210186 0)
(0.00210175 -0.00210199 0)
(0.00350307 -0.00210225 0)
(0.0049046 -0.00210265 0)
(0.00630644 -0.00210317 0)
(0.00770867 -0.00210382 0)
(0.00911138 -0.00210459 0)
(0.0105146 -0.00210549 0)
(0.0119186 -0.00210652 0)
(0.0133232 -0.00210766 0)
(0.0147286 -0.00210892 0)
(0.0161349 -0.00211029 0)
(0.0175422 -0.00211177 0)
(0.0189505 -0.00211336 0)
(0.0203599 -0.00211505 0)
(0.0217705 -0.00211683 0)
(0.0231822 -0.00211871 0)
(0.0245953 -0.00212067 0)
(0.0260097 -0.00212271 0)
(0.0274255 -0.00212483 0)
(0.0288427 -0.00212702 0)
(0.0302614 -0.00212926 0)
(0.0316817 -0.00213156 0)
(0.0331035 -0.0021339 0)
(0.0345268 -0.00213628 0)
(0.0359518 -0.00213869 0)
(0.0373784 -0.00214112 0)
(0.0388066 -0.00214356 0)
(0.0402365 -0.00214599 0)
(0.041668 -0.00214842 0)
(0.0431011 -0.00215082 0)
(0.0445358 -0.00215319 0)
(0.045972 -0.00215552 0)
(0.0474099 -0.00215779 0)
(0.0488492 -0.00215999 0)
(0.05029 -0.0021621 0)
(0.0517321 -0.00216412 0)
(0.0531756 -0.00216602 0)
(0.0546203 -0.0021678 0)
(0.0560661 -0.00216943 0)
(0.0575131 -0.00217091 0)
(0.0589609 -0.00217221 0)
(0.0604096 -0.00217332 0)
(0.0618589 -0.00217423 0)
(0.0633088 -0.0021749 0)
(0.0647591 -0.00217533 0)
(0.0662096 -0.0021755 0)
(0.0676601 -0.00217539 0)
(0.0691105 -0.00217497 0)
(0.0705605 -0.00217423 0)
(0.0720099 -0.00217314 0)
(0.0734584 -0.00217169 0)
(0.0749059 -0.00216986 0)
(0.0763521 -0.00216761 0)
(0.0777966 -0.00216494 0)
(0.0792392 -0.00216181 0)
(0.0806796 -0.00215821 0)
(0.0821174 -0.00215411 0)
(0.0835524 -0.00214949 0)
(0.0849841 -0.00214432 0)
(0.0864122 -0.00213859 0)
(0.0878363 -0.00213226 0)
(0.089256 -0.00212532 0)
(0.0906708 -0.00211774 0)
(0.0920804 -0.00210949 0)
(0.0934843 -0.00210056 0)
(0.094882 -0.00209092 0)
(0.0962731 -0.00208055 0)
(0.097657 -0.00206941 0)
(0.0990333 -0.0020575 0)
(0.100401 -0.00204479 0)
(0.101761 -0.00203126 0)
(0.103111 -0.00201688 0)
(0.104451 -0.00200164 0)
(0.105781 -0.00198551 0)
(0.107099 -0.00196848 0)
(0.108406 -0.00195053 0)
(0.109701 -0.00193164 0)
(0.110983 -0.0019118 0)
(0.112251 -0.00189099 0)
(0.113506 -0.00186919 0)
(0.114745 -0.00184639 0)
(0.115969 -0.00182259 0)
(0.117176 -0.00179777 0)
(0.118367 -0.00177192 0)
(0.11954 -0.00174503 0)
(0.120695 -0.00171711 0)
(0.121831 -0.00168814 0)
(0.122947 -0.00165813 0)
(0.124043 -0.00162707 0)
(0.125118 -0.00159497 0)
(0.126171 -0.00156182 0)
(0.127202 -0.00152764 0)
(0.128209 -0.00149243 0)
(0.129193 -0.00145619 0)
(0.130152 -0.00141895 0)
(0.131086 -0.00138072 0)
(0.131994 -0.0013415 0)
(0.132876 -0.00130132 0)
(0.13373 -0.00126019 0)
(0.134557 -0.00121815 0)
(0.135355 -0.0011752 0)
(0.136125 -0.00113138 0)
(0.136865 -0.00108671 0)
(0.137575 -0.00104123 0)
(0.138254 -0.000994964 0)
(0.138903 -0.000947944 0)
(0.139519 -0.000900205 0)
(0.140104 -0.000851785 0)
(0.140656 -0.000802722 0)
(0.141175 -0.000753055 0)
(0.14166 -0.000702825 0)
(0.142112 -0.000652075 0)
(0.14253 -0.000600847 0)
(0.142914 -0.000549188 0)
(0.143263 -0.000497142 0)
(0.143577 -0.000444756 0)
(0.143856 -0.000392078 0)
(0.1441 -0.000339155 0)
(0.144309 -0.000286035 0)
(0.144482 -0.000232767 0)
(0.144619 -0.000179402 0)
(0.144721 -0.000125986 0)
(0.144787 -7.25703e-05 0)
(0.144818 -1.9203e-05 0)
(0.144813 3.40671e-05 0)
(0.144772 8.71919e-05 0)
(0.144696 0.000140124 0)
(0.144585 0.000192816 0)
(0.144439 0.000245221 0)
(0.144258 0.000297296 0)
(0.144042 0.000348994 0)
(0.143792 0.000400274 0)
(0.143508 0.000451093 0)
(0.14319 0.00050141 0)
(0.142839 0.000551187 0)
(0.142454 0.000600385 0)
(0.142037 0.000648969 0)
(0.141588 0.000696904 0)
(0.141107 0.000744156 0)
(0.140595 0.000790695 0)
(0.140052 0.000836491 0)
(0.139479 0.000881517 0)
(0.138876 0.000925746 0)
(0.138243 0.000969155 0)
(0.137583 0.00101172 0)
(0.136893 0.00105342 0)
(0.136177 0.00109425 0)
(0.135433 0.00113417 0)
(0.134664 0.00117318 0)
(0.133868 0.00121127 0)
(0.133047 0.00124842 0)
(0.132202 0.00128463 0)
(0.131333 0.00131988 0)
(0.130441 0.00135417 0)
(0.129527 0.0013875 0)
(0.12859 0.00141987 0)
(0.127632 0.00145126 0)
(0.126654 0.00148169 0)
(0.125656 0.00151116 0)
(0.124638 0.00153967 0)
(0.123601 0.00156722 0)
(0.122547 0.00159382 0)
(0.121475 0.00161947 0)
(0.120387 0.0016442 0)
(0.119282 0.001668 0)
(0.118161 0.00169088 0)
(0.117026 0.00171286 0)
(0.115877 0.00173395 0)
(0.114713 0.00175417 0)
(0.113537 0.00177352 0)
(0.112347 0.00179202 0)
(0.111146 0.00180969 0)
(0.109934 0.00182654 0)
(0.10871 0.00184259 0)
(0.107476 0.00185786 0)
(0.106232 0.00187237 0)
(0.104978 0.00188613 0)
(0.103716 0.00189915 0)
(0.102445 0.00191147 0)
(0.101167 0.00192309 0)
(0.0998804 0.00193404 0)
(0.0985871 0.00194434 0)
(0.0972872 0.001954 0)
(0.095981 0.00196305 0)
(0.094669 0.0019715 0)
(0.0933516 0.00197937 0)
(0.0920292 0.00198669 0)
(0.0907021 0.00199346 0)
(0.0893706 0.00199972 0)
(0.0880352 0.00200547 0)
(0.0866961 0.00201074 0)
(0.0853536 0.00201555 0)
(0.0840081 0.00201992 0)
(0.0826599 0.00202386 0)
(0.0813091 0.00202739 0)
(0.0799562 0.00203052 0)
(0.0786013 0.00203329 0)
(0.0772447 0.0020357 0)
(0.0758866 0.00203777 0)
(0.0745273 0.00203951 0)
(0.0731669 0.00204095 0)
(0.0718057 0.0020421 0)
(0.0704438 0.00204297 0)
(0.0690814 0.00204358 0)
(0.0677187 0.00204395 0)
(0.0663558 0.00204409 0)
(0.064993 0.00204401 0)
(0.0636303 0.00204373 0)
(0.0622678 0.00204327 0)
(0.0609057 0.00204262 0)
(0.0595441 0.00204182 0)
(0.0581831 0.00204086 0)
(0.0568228 0.00203977 0)
(0.0554632 0.00203855 0)
(0.0541046 0.00203721 0)
(0.0527468 0.00203577 0)
(0.0513901 0.00203424 0)
(0.0500344 0.00203263 0)
(0.0486798 0.00203094 0)
(0.0473264 0.0020292 0)
(0.0459742 0.0020274 0)
(0.0446232 0.00202555 0)
(0.0432734 0.00202367 0)
(0.0419249 0.00202176 0)
(0.0405777 0.00201984 0)
(0.0392318 0.0020179 0)
(0.0378872 0.00201596 0)
(0.0365438 0.00201403 0)
(0.0352018 0.0020121 0)
(0.0338611 0.00201019 0)
(0.0325216 0.00200831 0)
(0.0311834 0.00200645 0)
(0.0298464 0.00200464 0)
(0.0285106 0.00200286 0)
(0.0271759 0.00200113 0)
(0.0258425 0.00199945 0)
(0.0245101 0.00199782 0)
(0.0231788 0.00199626 0)
(0.0218485 0.00199476 0)
(0.0205192 0.00199333 0)
(0.0191908 0.00199197 0)
(0.0178633 0.00199068 0)
(0.0165367 0.00198948 0)
(0.0152108 0.00198835 0)
(0.0138856 0.00198731 0)
(0.0125611 0.00198636 0)
(0.0112373 0.0019855 0)
(0.00991392 0.00198472 0)
(0.00859108 0.00198404 0)
(0.00726865 0.00198346 0)
(0.00594658 0.00198297 0)
(0.00462481 0.00198257 0)
(0.00330328 0.00198228 0)
(0.0019819 0.00198208 0)
(0.000660622 0.00198198 0)
(0.000700482 -0.00350296 0)
(0.00210149 -0.00350318 0)
(0.00350263 -0.00350361 0)
(0.00490399 -0.00350427 0)
(0.00630566 -0.00350514 0)
(0.00770772 -0.00350622 0)
(0.00911026 -0.00350752 0)
(0.0105134 -0.00350902 0)
(0.0119171 -0.00351073 0)
(0.0133216 -0.00351263 0)
(0.0147269 -0.00351474 0)
(0.016133 -0.00351703 0)
(0.0175402 -0.0035195 0)
(0.0189483 -0.00352215 0)
(0.0203576 -0.00352497 0)
(0.021768 -0.00352795 0)
(0.0231797 -0.00353109 0)
(0.0245926 -0.00353436 0)
(0.0260069 -0.00353778 0)
(0.0274226 -0.00354131 0)
(0.0288398 -0.00354496 0)
(0.0302584 -0.00354871 0)
(0.0316786 -0.00355255 0)
(0.0331003 -0.00355646 0)
(0.0345236 -0.00356044 0)
(0.0359486 -0.00356447 0)
(0.0373751 -0.00356852 0)
(0.0388034 -0.0035726 0)
(0.0402332 -0.00357667 0)
(0.0416647 -0.00358072 0)
(0.0430979 -0.00358474 0)
(0.0445326 -0.00358871 0)
(0.045969 -0.0035926 0)
(0.0474069 -0.00359639 0)
(0.0488463 -0.00360007 0)
(0.0502872 -0.00360361 0)
(0.0517295 -0.00360698 0)
(0.0531731 -0.00361017 0)
(0.054618 -0.00361315 0)
(0.056064 -0.0036159 0)
(0.0575112 -0.00361838 0)
(0.0589593 -0.00362057 0)
(0.0604082 -0.00362244 0)
(0.0618579 -0.00362396 0)
(0.0633081 -0.00362511 0)
(0.0647587 -0.00362585 0)
(0.0662095 -0.00362615 0)
(0.0676604 -0.00362598 0)
(0.0691112 -0.00362531 0)
(0.0705617 -0.00362409 0)
(0.0720115 -0.00362231 0)
(0.0734606 -0.00361992 0)
(0.0749086 -0.00361688 0)
(0.0763553 -0.00361317 0)
(0.0778004 -0.00360874 0)
(0.0792437 -0.00360355 0)
(0.0806847 -0.00359757 0)
(0.0821232 -0.00359077 0)
(0.0835589 -0.00358309 0)
(0.0849913 -0.00357451 0)
(0.0864202 -0.00356498 0)
(0.0878451 -0.00355446 0)
(0.0892656 -0.00354291 0)
(0.0906813 -0.0035303 0)
(0.0920918 -0.00351659 0)
(0.0934967 -0.00350173 0)
(0.0948954 -0.00348568 0)
(0.0962874 -0.00346842 0)
(0.0976724 -0.00344989 0)
(0.0990497 -0.00343006 0)
(0.100419 -0.0034089 0)
(0.101779 -0.00338637 0)
(0.10313 -0.00336243 0)
(0.104472 -0.00333705 0)
(0.105803 -0.00331019 0)
(0.107123 -0.00328183 0)
(0.108431 -0.00325193 0)
(0.109727 -0.00322047 0)
(0.11101 -0.00318741 0)
(0.11228 -0.00315274 0)
(0.113535 -0.00311642 0)
(0.114776 -0.00307844 0)
(0.116001 -0.00303878 0)
(0.11721 -0.00299742 0)
(0.118402 -0.00295435 0)
(0.119577 -0.00290955 0)
(0.120733 -0.00286301 0)
(0.12187 -0.00281474 0)
(0.122988 -0.00276471 0)
(0.124085 -0.00271295 0)
(0.125161 -0.00265943 0)
(0.126216 -0.00260418 0)
(0.127248 -0.00254721 0)
(0.128257 -0.00248851 0)
(0.129242 -0.00242811 0)
(0.130202 -0.00236603 0)
(0.131137 -0.00230228 0)
(0.132047 -0.0022369 0)
(0.13293 -0.00216991 0)
(0.133786 -0.00210134 0)
(0.134614 -0.00203124 0)
(0.135413 -0.00195964 0)
(0.136184 -0.00188657 0)
(0.136925 -0.0018121 0)
(0.137636 -0.00173626 0)
(0.138317 -0.00165911 0)
(0.138966 -0.0015807 0)
(0.139583 -0.0015011 0)
(0.140169 -0.00142036 0)
(0.140721 -0.00133854 0)
(0.141241 -0.00125572 0)
(0.141728 -0.00117195 0)
(0.14218 -0.00108732 0)
(0.142599 -0.00100189 0)
(0.142983 -0.000915742 0)
(0.143333 -0.000828947 0)
(0.143647 -0.000741585 0)
(0.143927 -0.000653734 0)
(0.144171 -0.000565475 0)
(0.14438 -0.000476887 0)
(0.144553 -0.000388054 0)
(0.144691 -0.000299056 0)
(0.144792 -0.000209976 0)
(0.144859 -0.000120895 0)
(0.144889 -3.1896e-05 0)
(0.144884 5.69411e-05 0)
(0.144843 0.000145535 0)
(0.144767 0.000233807 0)
(0.144655 0.000321678 0)
(0.144509 0.000409071 0)
(0.144327 0.000495911 0)
(0.144111 0.000582123 0)
(0.14386 0.000667636 0)
(0.143575 0.000752379 0)
(0.143257 0.000836285 0)
(0.142905 0.000919289 0)
(0.142519 0.00100133 0)
(0.142102 0.00108234 0)
(0.141652 0.00116226 0)
(0.14117 0.00124105 0)
(0.140657 0.00131865 0)
(0.140113 0.00139501 0)
(0.139538 0.00147008 0)
(0.138934 0.00154382 0)
(0.138301 0.00161619 0)
(0.137639 0.00168716 0)
(0.136949 0.00175669 0)
(0.136231 0.00182474 0)
(0.135486 0.0018913 0)
(0.134715 0.00195634 0)
(0.133918 0.00201983 0)
(0.133096 0.00208175 0)
(0.13225 0.0021421 0)
(0.13138 0.00220086 0)
(0.130486 0.00225802 0)
(0.12957 0.00231358 0)
(0.128633 0.00236752 0)
(0.127674 0.00241985 0)
(0.126694 0.00247056 0)
(0.125694 0.00251967 0)
(0.124675 0.00256717 0)
(0.123638 0.00261308 0)
(0.122582 0.00265741 0)
(0.121509 0.00270016 0)
(0.120419 0.00274136 0)
(0.119313 0.00278101 0)
(0.118191 0.00281914 0)
(0.117055 0.00285576 0)
(0.115904 0.00289089 0)
(0.11474 0.00292457 0)
(0.113562 0.0029568 0)
(0.112372 0.00298762 0)
(0.111169 0.00301706 0)
(0.109956 0.00304513 0)
(0.108731 0.00307186 0)
(0.107496 0.00309729 0)
(0.106251 0.00312145 0)
(0.104996 0.00314435 0)
(0.103733 0.00316605 0)
(0.102461 0.00318655 0)
(0.101182 0.0032059 0)
(0.0998946 0.00322413 0)
(0.0986004 0.00324127 0)
(0.0972996 0.00325736 0)
(0.0959927 0.00327241 0)
(0.0946799 0.00328647 0)
(0.0933618 0.00329957 0)
(0.0920386 0.00331174 0)
(0.0907107 0.00332301 0)
(0.0893786 0.00333342 0)
(0.0880425 0.00334299 0)
(0.0867028 0.00335176 0)
(0.0853597 0.00335975 0)
(0.0840136 0.00336701 0)
(0.0826648 0.00337355 0)
(0.0813136 0.00337941 0)
(0.0799601 0.00338462 0)
(0.0786048 0.00338921 0)
(0.0772477 0.0033932 0)
(0.0758892 0.00339663 0)
(0.0745294 0.00339953 0)
(0.0731686 0.00340191 0)
(0.071807 0.0034038 0)
(0.0704448 0.00340524 0)
(0.0690821 0.00340625 0)
(0.067719 0.00340684 0)
(0.0663559 0.00340706 0)
(0.0649927 0.00340691 0)
(0.0636298 0.00340643 0)
(0.062267 0.00340564 0)
(0.0609047 0.00340455 0)
(0.0595429 0.00340319 0)
(0.0581817 0.00340158 0)
(0.0568212 0.00339975 0)
(0.0554615 0.0033977 0)
(0.0541027 0.00339547 0)
(0.0527449 0.00339306 0)
(0.051388 0.00339049 0)
(0.0500322 0.00338779 0)
(0.0486776 0.00338497 0)
(0.047324 0.00338205 0)
(0.0459718 0.00337904 0)
(0.0446207 0.00337596 0)
(0.0432709 0.00337281 0)
(0.0419224 0.00336963 0)
(0.0405751 0.00336641 0)
(0.0392292 0.00336317 0)
(0.0378846 0.00335993 0)
(0.0365413 0.0033567 0)
(0.0351993 0.00335348 0)
(0.0338585 0.00335029 0)
(0.0325191 0.00334715 0)
(0.0311809 0.00334405 0)
(0.029844 0.00334101 0)
(0.0285082 0.00333804 0)
(0.0271737 0.00333515 0)
(0.0258402 0.00333235 0)
(0.024508 0.00332963 0)
(0.0231767 0.00332702 0)
(0.0218465 0.00332452 0)
(0.0205173 0.00332213 0)
(0.019189 0.00331986 0)
(0.0178617 0.00331771 0)
(0.0165351 0.0033157 0)
(0.0152093 0.00331383 0)
(0.0138843 0.00331209 0)
(0.0125599 0.0033105 0)
(0.0112362 0.00330906 0)
(0.00991296 0.00330777 0)
(0.00859023 0.00330663 0)
(0.00726793 0.00330565 0)
(0.005946 0.00330484 0)
(0.00462436 0.00330418 0)
(0.00330295 0.00330369 0)
(0.0019817 0.00330336 0)
(0.000660556 0.00330319 0)
(0.00070035 -0.00490383 0)
(0.00210109 -0.00490414 0)
(0.00350197 -0.00490475 0)
(0.00490307 -0.00490567 0)
(0.00630448 -0.0049069 0)
(0.00770628 -0.00490842 0)
(0.00910857 -0.00491023 0)
(0.0105114 -0.00491234 0)
(0.0119149 -0.00491474 0)
(0.0133192 -0.00491742 0)
(0.0147242 -0.00492037 0)
(0.0161302 -0.00492358 0)
(0.0175371 -0.00492705 0)
(0.018945 -0.00493077 0)
(0.0203541 -0.00493473 0)
(0.0217643 -0.00493892 0)
(0.0231758 -0.00494332 0)
(0.0245886 -0.00494792 0)
(0.0260027 -0.00495271 0)
(0.0274183 -0.00495768 0)
(0.0288353 -0.0049628 0)
(0.0302538 -0.00496807 0)
(0.0316739 -0.00497346 0)
(0.0330955 -0.00497896 0)
(0.0345188 -0.00498455 0)
(0.0359437 -0.00499021 0)
(0.0373702 -0.00499591 0)
(0.0387984 -0.00500163 0)
(0.0402283 -0.00500736 0)
(0.0416598 -0.00501306 0)
(0.043093 -0.00501872 0)
(0.0445279 -0.0050243 0)
(0.0459643 -0.00502977 0)
(0.0474023 -0.00503511 0)
(0.0488419 -0.00504029 0)
(0.050283 -0.00504528 0)
(0.0517255 -0.00505004 0)
(0.0531694 -0.00505454 0)
(0.0546145 -0.00505875 0)
(0.0560609 -0.00506262 0)
(0.0575083 -0.00506613 0)
(0.0589568 -0.00506924 0)
(0.0604061 -0.0050719 0)
(0.0618562 -0.00507408 0)
(0.0633069 -0.00507573 0)
(0.064758 -0.00507681 0)
(0.0662094 -0.00507727 0)
(0.0676609 -0.00507708 0)
(0.0691123 -0.00507618 0)
(0.0705634 -0.00507453 0)
(0.072014 -0.00507208 0)
(0.0734638 -0.00506878 0)
(0.0749126 -0.00506458 0)
(0.0763602 -0.00505944 0)
(0.0778061 -0.00505328 0)
(0.0792503 -0.00504608 0)
(0.0806923 -0.00503777 0)
(0.0821319 -0.00502829 0)
(0.0835686 -0.0050176 0)
(0.0850021 -0.00500564 0)
(0.0864322 -0.00499235 0)
(0.0878583 -0.00497768 0)
(0.08928 -0.00496157 0)
(0.0906971 -0.00494397 0)
(0.0921089 -0.00492483 0)
(0.0935152 -0.00490408 0)
(0.0949153 -0.00488167 0)
(0.0963088 -0.00485755 0)
(0.0976953 -0.00483166 0)
(0.0990742 -0.00480396 0)
(0.100445 -0.00477438 0)
(0.101807 -0.00474288 0)
(0.10316 -0.00470942 0)
(0.104503 -0.00467393 0)
(0.105836 -0.00463638 0)
(0.107158 -0.00459671 0)
(0.108468 -0.00455489 0)
(0.109766 -0.00451088 0)
(0.111051 -0.00446464 0)
(0.112322 -0.00441613 0)
(0.11358 -0.00436532 0)
(0.114823 -0.00431217 0)
(0.11605 -0.00425667 0)
(0.117261 -0.00419879 0)
(0.118455 -0.0041385 0)
(0.119631 -0.00407579 0)
(0.12079 -0.00401065 0)
(0.121929 -0.00394307 0)
(0.123049 -0.00387304 0)
(0.124148 -0.00380056 0)
(0.125227 -0.00372564 0)
(0.126283 -0.00364828 0)
(0.127317 -0.00356849 0)
(0.128328 -0.00348629 0)
(0.129315 -0.00340171 0)
(0.130278 -0.00331476 0)
(0.131215 -0.00322548 0)
(0.132126 -0.00313391 0)
(0.133011 -0.00304008 0)
(0.133869 -0.00294404 0)
(0.134699 -0.00284584 0)
(0.1355 -0.00274553 0)
(0.136273 -0.00264318 0)
(0.137015 -0.00253885 0)
(0.137728 -0.0024326 0)
(0.13841 -0.00232451 0)
(0.139061 -0.00221466 0)
(0.13968 -0.00210313 0)
(0.140266 -0.00199 0)
(0.14082 -0.00187537 0)
(0.141341 -0.00175932 0)
(0.141829 -0.00164195 0)
(0.142283 -0.00152336 0)
(0.142702 -0.00140366 0)
(0.143087 -0.00128294 0)
(0.143437 -0.00116132 0)
(0.143753 -0.0010389 0)
(0.144033 -0.000915799 0)
(0.144277 -0.000792123 0)
(0.144486 -0.000667987 0)
(0.14466 -0.000543506 0)
(0.144798 -0.000418794 0)
(0.144899 -0.000293967 0)
(0.144966 -0.00016914 0)
(0.144996 -4.44272e-05 0)
(0.14499 8.00574e-05 0)
(0.144949 0.000204201 0)
(0.144873 0.000327891 0)
(0.144761 0.000451018 0)
(0.144613 0.000573475 0)
(0.144431 0.000695153 0)
(0.144214 0.000815951 0)
(0.143962 0.000935767 0)
(0.143677 0.0010545 0)
(0.143357 0.00117206 0)
(0.143004 0.00128836 0)
(0.142617 0.00140329 0)
(0.142198 0.00151679 0)
(0.141747 0.00162876 0)
(0.141264 0.00173914 0)
(0.140749 0.00184785 0)
(0.140204 0.00195481 0)
(0.139628 0.00205997 0)
(0.139022 0.00216327 0)
(0.138387 0.00226464 0)
(0.137723 0.00236404 0)
(0.137031 0.00246142 0)
(0.136312 0.00255674 0)
(0.135565 0.00264995 0)
(0.134792 0.00274103 0)
(0.133993 0.00282994 0)
(0.13317 0.00291666 0)
(0.132321 0.00300117 0)
(0.131449 0.00308345 0)
(0.130554 0.00316348 0)
(0.129636 0.00324126 0)
(0.128696 0.00331678 0)
(0.127735 0.00339004 0)
(0.126754 0.00346104 0)
(0.125752 0.00352978 0)
(0.124731 0.00359628 0)
(0.123692 0.00366054 0)
(0.122634 0.00372257 0)
(0.121559 0.00378241 0)
(0.120467 0.00384006 0)
(0.11936 0.00389555 0)
(0.118236 0.0039489 0)
(0.117098 0.00400014 0)
(0.115945 0.0040493 0)
(0.114779 0.00409641 0)
(0.1136 0.0041415 0)
(0.112408 0.00418462 0)
(0.111204 0.00422578 0)
(0.109988 0.00426504 0)
(0.108762 0.00430243 0)
(0.107525 0.004338 0)
(0.106279 0.00437177 0)
(0.105023 0.0044038 0)
(0.103758 0.00443412 0)
(0.102485 0.00446279 0)
(0.101204 0.00448984 0)
(0.0999158 0.00451531 0)
(0.0986203 0.00453927 0)
(0.0973183 0.00456173 0)
(0.0960101 0.00458277 0)
(0.0946962 0.00460241 0)
(0.0933769 0.0046207 0)
(0.0920526 0.00463769 0)
(0.0907238 0.00465343 0)
(0.0893906 0.00466795 0)
(0.0880535 0.00468131 0)
(0.0867128 0.00469354 0)
(0.0853689 0.00470469 0)
(0.0840219 0.0047148 0)
(0.0826723 0.00472392 0)
(0.0813202 0.00473209 0)
(0.079966 0.00473934 0)
(0.0786099 0.00474573 0)
(0.0772521 0.00475128 0)
(0.075893 0.00475604 0)
(0.0745326 0.00476005 0)
(0.0731712 0.00476335 0)
(0.071809 0.00476596 0)
(0.0704462 0.00476794 0)
(0.069083 0.00476932 0)
(0.0677195 0.00477012 0)
(0.0663559 0.00477038 0)
(0.0649924 0.00477015 0)
(0.063629 0.00476944 0)
(0.0622659 0.0047683 0)
(0.0609033 0.00476675 0)
(0.0595411 0.00476482 0)
(0.0581796 0.00476254 0)
(0.0568189 0.00475994 0)
(0.055459 0.00475705 0)
(0.0540999 0.00475389 0)
(0.0527419 0.0047505 0)
(0.0513848 0.00474688 0)
(0.0500289 0.00474308 0)
(0.0486741 0.00473911 0)
(0.0473205 0.004735 0)
(0.0459681 0.00473076 0)
(0.044617 0.00472642 0)
(0.0432671 0.004722 0)
(0.0419185 0.00471752 0)
(0.0405713 0.004713 0)
(0.0392253 0.00470845 0)
(0.0378807 0.00470389 0)
(0.0365374 0.00469935 0)
(0.0351954 0.00469483 0)
(0.0338547 0.00469036 0)
(0.0325153 0.00468594 0)
(0.0311772 0.00468159 0)
(0.0298404 0.00467732 0)
(0.0285047 0.00467315 0)
(0.0271702 0.00466909 0)
(0.0258369 0.00466515 0)
(0.0245048 0.00466135 0)
(0.0231737 0.00465768 0)
(0.0218436 0.00465417 0)
(0.0205145 0.00465081 0)
(0.0191864 0.00464763 0)
(0.0178592 0.00464462 0)
(0.0165328 0.00464179 0)
(0.0152072 0.00463916 0)
(0.0138823 0.00463672 0)
(0.0125581 0.00463449 0)
(0.0112345 0.00463247 0)
(0.0099115 0.00463066 0)
(0.00858896 0.00462906 0)
(0.00726686 0.00462769 0)
(0.00594511 0.00462654 0)
(0.00462366 0.00462562 0)
(0.00330245 0.00462493 0)
(0.0019814 0.00462447 0)
(0.000660457 0.00462424 0)
(0.000700173 -0.0063044 0)
(0.00210056 -0.0063048 0)
(0.00350109 -0.00630559 0)
(0.00490184 -0.00630677 0)
(0.0063029 -0.00630835 0)
(0.00770436 -0.00631031 0)
(0.00910631 -0.00631266 0)
(0.0105088 -0.00631538 0)
(0.011912 -0.00631847 0)
(0.0133159 -0.00632192 0)
(0.0147207 -0.00632573 0)
(0.0161263 -0.00632988 0)
(0.0175329 -0.00633436 0)
(0.0189406 -0.00633916 0)
(0.0203494 -0.00634427 0)
(0.0217594 -0.00634967 0)
(0.0231706 -0.00635535 0)
(0.0245832 -0.00636129 0)
(0.0259971 -0.00636747 0)
(0.0274125 -0.00637389 0)
(0.0288293 -0.0063805 0)
(0.0302477 -0.0063873 0)
(0.0316676 -0.00639427 0)
(0.0330892 -0.00640137 0)
(0.0345123 -0.00640859 0)
(0.0359372 -0.0064159 0)
(0.0373637 -0.00642327 0)
(0.0387918 -0.00643067 0)
(0.0402217 -0.00643808 0)
(0.0416533 -0.00644545 0)
(0.0430866 -0.00645277 0)
(0.0445215 -0.00645999 0)
(0.0459581 -0.00646708 0)
(0.0473963 -0.006474 0)
(0.0488361 -0.00648071 0)
(0.0502774 -0.00648717 0)
(0.0517201 -0.00649335 0)
(0.0531643 -0.0064992 0)
(0.0546098 -0.00650467 0)
(0.0560566 -0.00650972 0)
(0.0575045 -0.0065143 0)
(0.0589534 -0.00651836 0)
(0.0604033 -0.00652185 0)
(0.0618539 -0.00652472 0)
(0.0633052 -0.00652691 0)
(0.064757 -0.00652837 0)
(0.0662092 -0.00652905 0)
(0.0676614 -0.00652888 0)
(0.0691137 -0.00652781 0)
(0.0705657 -0.00652577 0)
(0.0720172 -0.00652271 0)
(0.073468 -0.00651855 0)
(0.0749179 -0.00651324 0)
(0.0763665 -0.00650671 0)
(0.0778137 -0.00649889 0)
(0.0792591 -0.00648972 0)
(0.0807024 -0.00647912 0)
(0.0821433 -0.00646703 0)
(0.0835814 -0.00645338 0)
(0.0850165 -0.00643809 0)
(0.0864481 -0.0064211 0)
(0.0878758 -0.00640234 0)
(0.0892992 -0.00638172 0)
(0.090718 -0.00635919 0)
(0.0921316 -0.00633467 0)
(0.0935397 -0.00630808 0)
(0.0949418 -0.00627936 0)
(0.0963373 -0.00624845 0)
(0.0977259 -0.00621525 0)
(0.0991069 -0.00617972 0)
(0.10048 -0.00614178 0)
(0.101844 -0.00610137 0)
(0.103199 -0.00605843 0)
(0.104545 -0.00601288 0)
(0.10588 -0.00596467 0)
(0.107204 -0.00591375 0)
(0.108517 -0.00586005 0)
(0.109817 -0.00580353 0)
(0.111105 -0.00574414 0)
(0.112379 -0.00568182 0)
(0.113639 -0.00561654 0)
(0.114885 -0.00554826 0)
(0.116114 -0.00547694 0)
(0.117328 -0.00540256 0)
(0.118525 -0.00532507 0)
(0.119704 -0.00524447 0)
(0.120866 -0.00516074 0)
(0.122008 -0.00507386 0)
(0.12313 -0.00498382 0)
(0.124232 -0.00489063 0)
(0.125314 -0.00479429 0)
(0.126373 -0.0046948 0)
(0.12741 -0.00459219 0)
(0.128423 -0.00448647 0)
(0.129413 -0.00437767 0)
(0.130378 -0.00426583 0)
(0.131318 -0.00415098 0)
(0.132232 -0.00403317 0)
(0.13312 -0.00391246 0)
(0.13398 -0.00378889 0)
(0.134812 -0.00366254 0)
(0.135616 -0.00353347 0)
(0.136391 -0.00340177 0)
(0.137136 -0.00326751 0)
(0.137851 -0.00313078 0)
(0.138535 -0.00299168 0)
(0.139187 -0.0028503 0)
(0.139808 -0.00270676 0)
(0.140397 -0.00256115 0)
(0.140952 -0.00241361 0)
(0.141475 -0.00226424 0)
(0.141964 -0.00211316 0)
(0.142419 -0.00196052 0)
(0.14284 -0.00180644 0)
(0.143226 -0.00165105 0)
(0.143577 -0.00149449 0)
(0.143893 -0.00133691 0)
(0.144174 -0.00117844 0)
(0.144419 -0.00101923 0)
(0.144629 -0.000859433 0)
(0.144802 -0.000699189 0)
(0.14494 -0.000538648 0)
(0.145042 -0.000377959 0)
(0.145108 -0.000217271 0)
(0.145138 -5.67308e-05 0)
(0.145133 0.000103514 0)
(0.145091 0.000263318 0)
(0.145014 0.000422537 0)
(0.144901 0.000581029 0)