/*--------------------------------*- C++ -*----------------------------------*\
| =========                 |                                                 |
| \\      /  F ield         | OpenFOAM: The Open Source CFD Toolbox           |
|  \\    /   O peration     | Version:  v2012                                 |
|   \\  /    A nd           | Website:  www.openfoam.com                      |
|    \\/     M anipulation  |                                                 |
\*---------------------------------------------------------------------------*/
FoamFile
{
    version     2.0;
    format      ascii;
    class       volScalarField;
    location    "14.5";
    object      W;
}
// * * * * * * * * * * * * * * * * * * * * * * * * * * * * * * * * * * * * * //

dimensions      [0 0 -1 0 0 0 0];


internalField   nonuniform List<scalar> 
65536
(
3.37866e-15
3.39687e-15
3.4811e-15
3.63189e-15
3.85094e-15
4.14109e-15
4.5063e-15
4.95172e-15
5.4837e-15
6.10991e-15
6.83937e-15
7.68258e-15
8.65163e-15
9.76032e-15
1.10244e-14
1.24615e-14
1.40917e-14
1.59373e-14
1.80237e-14
2.03787e-14
2.30337e-14
2.60237e-14
2.93872e-14
3.31674e-14
3.74118e-14
4.21732e-14
4.75097e-14
5.34857e-14
6.01718e-14
6.76462e-14
7.59943e-14
8.53103e-14
9.56973e-14
1.07268e-13
1.20146e-13
1.34465e-13
1.50373e-13
1.6803e-13
1.87609e-13
2.09298e-13
2.33302e-13
2.59843e-13
2.89158e-13
3.21506e-13
3.57163e-13
3.96428e-13
4.39621e-13
4.87083e-13
5.39181e-13
5.96305e-13
6.5887e-13
7.27318e-13
8.02116e-13
8.8376e-13
9.72772e-13
1.0697e-12
1.17513e-12
1.28965e-12
1.41391e-12
1.54855e-12
1.69427e-12
1.85178e-12
2.02179e-12
2.20507e-12
2.40239e-12
2.61453e-12
2.8423e-12
3.0865e-12
3.34795e-12
3.62748e-12
3.9259e-12
4.24402e-12
4.58264e-12
4.94255e-12
5.3245e-12
5.72921e-12
6.15739e-12
6.60968e-12
7.08668e-12
7.58892e-12
8.11688e-12
8.67098e-12
9.25152e-12
9.85876e-12
1.04928e-11
1.11538e-11
1.18416e-11
1.2556e-11
1.32968e-11
1.40635e-11
1.48557e-11
1.56726e-11
1.65134e-11
1.73773e-11
1.82632e-11
1.91698e-11
2.00959e-11
2.104e-11
2.20006e-11
2.29758e-11
2.3964e-11
2.49632e-11
2.59714e-11
2.69865e-11
2.80062e-11
2.90284e-11
3.00507e-11
3.10707e-11
3.20861e-11
3.30943e-11
3.40929e-11
3.50794e-11
3.60514e-11
3.70064e-11
3.79419e-11
3.88557e-11
3.97453e-11
4.06085e-11
4.1443e-11
4.22466e-11
4.30173e-11
4.3753e-11
4.44519e-11
4.5112e-11
4.57316e-11
4.6309e-11
4.68426e-11
4.7331e-11
4.77726e-11
4.81661e-11
4.85103e-11
4.8804e-11
4.90461e-11
4.92354e-11
4.93712e-11
4.94523e-11
4.9478e-11
4.94475e-11
4.93602e-11
4.92152e-11
4.90121e-11
4.87503e-11
4.84294e-11
4.80491e-11
4.76091e-11
4.71093e-11
4.65496e-11
4.59302e-11
4.52514e-11
4.45135e-11
4.37174e-11
4.28637e-11
4.19538e-11
4.09888e-11
3.99705e-11
3.89009e-11
3.77822e-11
3.66171e-11
3.54087e-11
3.41603e-11
3.28756e-11
3.15589e-11
3.02146e-11
2.88476e-11
2.74632e-11
2.60668e-11
2.46643e-11
2.32616e-11
2.1865e-11
2.04806e-11
1.91148e-11
1.77739e-11
1.64639e-11
1.51907e-11
1.396e-11
1.27771e-11
1.16467e-11
1.05732e-11
9.56029e-12
8.61113e-12
7.72816e-12
6.91319e-12
6.16732e-12
5.49094e-12
4.88377e-12
4.34487e-12
3.87267e-12
3.46498e-12
3.11908e-12
2.83173e-12
2.59925e-12
2.41753e-12
2.28214e-12
2.18834e-12
2.13115e-12
2.10543e-12
2.10591e-12
2.12729e-12
2.16429e-12
2.21174e-12
2.26464e-12
2.31828e-12
2.36829e-12
2.41074e-12
2.44224e-12
2.45995e-12
2.4617e-12
2.44596e-12
2.41192e-12
2.35946e-12
2.2891e-12
2.20197e-12
2.09973e-12
1.98449e-12
1.85867e-12
1.72493e-12
1.58602e-12
1.44467e-12
1.30352e-12
1.16498e-12
1.03119e-12
9.03957e-13
7.84729e-13
6.74571e-13
5.74177e-13
4.83895e-13
4.03757e-13
3.33526e-13
2.72747e-13
2.20796e-13
1.7693e-13
1.40337e-13
1.10176e-13
8.56092e-14
6.58355e-14
5.01056e-14
3.77381e-14
2.81272e-14
2.07446e-14
1.51391e-14
1.09318e-14
7.81026e-15
5.5208e-15
3.86088e-15
2.67115e-15
1.82821e-15
1.23782e-15
8.29072e-16
5.49379e-16
3.60272e-16
2.34028e-16
1.50973e-16
9.73929e-17
6.39547e-17
4.45528e-17
3.55052e-17
5.11607e-15
5.14372e-15
5.27158e-15
5.50045e-15
5.8329e-15
6.27327e-15
6.82759e-15
7.50371e-15
8.31136e-15
9.2622e-15
1.037e-14
1.16508e-14
1.31231e-14
1.48079e-14
1.67292e-14
1.8914e-14
2.1393e-14
2.42004e-14
2.73745e-14
3.09584e-14
3.49999e-14
3.95523e-14
4.46749e-14
5.04333e-14
5.69005e-14
6.41571e-14
7.22921e-14
8.14039e-14
9.16008e-14
1.03002e-13
1.15739e-13
1.29954e-13
1.45807e-13
1.63469e-13
1.83129e-13
2.04992e-13
2.29284e-13
2.56247e-13
2.86147e-13
3.19272e-13
3.55932e-13
3.96465e-13
4.41233e-13
4.90628e-13
5.45071e-13
6.05014e-13
6.70939e-13
7.43366e-13
8.22845e-13
9.09965e-13
1.00535e-12
1.10966e-12
1.2236e-12
1.3479e-12
1.48335e-12
1.63075e-12
1.79096e-12
1.96488e-12
2.15342e-12
2.35755e-12
2.57826e-12
2.81658e-12
3.07355e-12
3.35024e-12
3.64775e-12
3.96718e-12
4.30965e-12
4.67627e-12
5.06816e-12
5.48642e-12
5.93213e-12
6.40636e-12
6.91011e-12
7.44437e-12
8.01006e-12
8.60803e-12
9.23907e-12
9.90387e-12
1.0603e-11
1.1337e-11
1.21062e-11
1.29109e-11
1.37511e-11
1.46268e-11
1.55378e-11
1.64838e-11
1.74641e-11
1.84781e-11
1.95248e-11
2.06032e-11
2.17119e-11
2.28494e-11
2.40141e-11
2.52041e-11
2.64174e-11
2.76516e-11
2.89045e-11
3.01733e-11
3.14555e-11
3.2748e-11
3.40479e-11
3.53522e-11
3.66575e-11
3.79606e-11
3.92581e-11
4.05466e-11
4.18227e-11
4.30831e-11
4.43241e-11
4.55426e-11
4.67351e-11
4.78984e-11
4.90292e-11
5.01247e-11
5.11816e-11
5.21973e-11
5.31691e-11
5.40943e-11
5.49707e-11
5.57959e-11
5.65679e-11
5.72849e-11
5.7945e-11
5.85468e-11
5.90889e-11
5.957e-11
5.99891e-11
6.03452e-11
6.06376e-11
6.08656e-11
6.10287e-11
6.11265e-11
6.11587e-11
6.11251e-11
6.10256e-11
6.08601e-11
6.06288e-11
6.03317e-11
5.99689e-11
5.95409e-11
5.90477e-11
5.84899e-11
5.78678e-11
5.7182e-11
5.6433e-11
5.56215e-11
5.47482e-11
5.38142e-11
5.28204e-11
5.17679e-11
5.06583e-11
4.94929e-11
4.82736e-11
4.70025e-11
4.56818e-11
4.4314e-11
4.29021e-11
4.14493e-11
3.99591e-11
3.84355e-11
3.68827e-11
3.53052e-11
3.37082e-11
3.20968e-11
3.04766e-11
2.88536e-11
2.72337e-11
2.56233e-11
2.40287e-11
2.24565e-11
2.09129e-11
1.94044e-11
1.7937e-11
1.65167e-11
1.5149e-11
1.38391e-11
1.25916e-11
1.14105e-11
1.02994e-11
9.26102e-12
8.29751e-12
7.41027e-12
6.59999e-12
5.86661e-12
5.20941e-12
4.62695e-12
4.11719e-12
3.67745e-12
3.30452e-12
2.9947e-12
2.74381e-12
2.54731e-12
2.40031e-12
2.29765e-12
2.23395e-12
2.20368e-12
2.20121e-12
2.2209e-12
2.25717e-12
2.30454e-12
2.35778e-12
2.41193e-12
2.46242e-12
2.50516e-12
2.53661e-12
2.55382e-12
2.55453e-12
2.53718e-12
2.50093e-12
2.44567e-12
2.37194e-12
2.28092e-12
2.17436e-12
2.05442e-12
1.92364e-12
1.78475e-12
1.6406e-12
1.49403e-12
1.34774e-12
1.20423e-12
1.0657e-12
9.34017e-13
8.10664e-13
6.96733e-13
5.92933e-13
4.99614e-13
4.16803e-13
3.44248e-13
2.81472e-13
2.27825e-13
1.82537e-13
1.44765e-13
1.13637e-13
8.82879e-14
6.78874e-14
5.16613e-14
3.89057e-14
2.89943e-14
2.1382e-14
1.56028e-14
1.12656e-14
8.04806e-15
5.68843e-15
3.97779e-15
2.75183e-15
1.88329e-15
1.27502e-15
8.53937e-16
5.6582e-16
3.71031e-16
2.41003e-16
1.55464e-16
1.00284e-16
6.58497e-17
4.58705e-17
3.65548e-17
9.30692e-15
9.35754e-15
9.59091e-15
1.00085e-14
1.0615e-14
1.14184e-14
1.24298e-14
1.36636e-14
1.51375e-14
1.68732e-14
1.88957e-14
2.12347e-14
2.39239e-14
2.70021e-14
3.05133e-14
3.45074e-14
3.90404e-14
4.41753e-14
4.99829e-14
5.65421e-14
6.39409e-14
7.22776e-14
8.16611e-14
9.22125e-14
1.04066e-13
1.1737e-13
1.32289e-13
1.49004e-13
1.67714e-13
1.88639e-13
2.1202e-13
2.38123e-13
2.67237e-13
2.9968e-13
3.358e-13
3.75974e-13
4.20616e-13
4.70174e-13
5.25135e-13
5.86026e-13
6.5342e-13
7.27932e-13
8.10229e-13
9.01027e-13
1.00109e-12
1.11125e-12
1.23239e-12
1.36544e-12
1.51141e-12
1.67137e-12
1.84644e-12
2.03781e-12
2.24675e-12
2.47459e-12
2.7227e-12
2.99254e-12
3.28563e-12
3.60354e-12
3.9479e-12
4.32039e-12
4.72273e-12
5.1567e-12
5.62409e-12
6.12672e-12
6.66645e-12
7.2451e-12
7.86454e-12
8.52656e-12
9.23297e-12
9.98549e-12
1.07858e-11
1.16355e-11
1.25361e-11
1.3489e-11
1.44954e-11
1.55563e-11
1.66728e-11
1.78455e-11
1.90749e-11
2.03613e-11
2.17047e-11
2.31048e-11
2.45611e-11
2.60728e-11
2.76386e-11
2.92571e-11
3.09264e-11
3.26444e-11
3.44085e-11
3.62158e-11
3.80632e-11
3.9947e-11
4.18634e-11
4.38081e-11
4.57767e-11
4.77644e-11
4.9766e-11
5.17763e-11
5.37898e-11
5.58008e-11
5.78035e-11
5.97919e-11
6.17601e-11
6.37021e-11
6.56119e-11
6.74834e-11
6.93109e-11
7.10886e-11
7.28109e-11
7.44724e-11
7.6068e-11
7.75928e-11
7.90423e-11
8.04121e-11
8.16984e-11
8.28975e-11
8.40063e-11
8.50219e-11
8.5942e-11
8.67643e-11
8.74873e-11
8.81097e-11
8.86305e-11
8.90491e-11
8.93654e-11
8.95794e-11
8.96915e-11
8.97024e-11
8.9613e-11
8.94244e-11
8.9138e-11
8.87554e-11
8.82782e-11
8.77083e-11
8.70477e-11
8.62983e-11
8.54623e-11
8.45419e-11
8.35393e-11
8.24567e-11
8.12964e-11
8.00607e-11
7.87519e-11
7.73723e-11
7.59243e-11
7.44102e-11
7.28326e-11
7.11938e-11
6.94965e-11
6.77434e-11
6.59371e-11
6.40807e-11
6.21773e-11
6.02302e-11
5.82428e-11
5.6219e-11
5.41627e-11
5.20783e-11
4.99704e-11
4.78438e-11
4.57038e-11
4.35559e-11
4.1406e-11
3.926e-11
3.71243e-11
3.50054e-11
3.29101e-11
3.08451e-11
2.88172e-11
2.68333e-11
2.49e-11
2.30237e-11
2.12108e-11
1.94671e-11
1.77979e-11
1.62081e-11
1.47021e-11
1.32834e-11
1.19549e-11
1.07189e-11
9.5767e-12
8.52888e-12
7.57528e-12
6.71491e-12
5.94606e-12
5.2663e-12
4.67255e-12
4.16108e-12
3.72765e-12
3.36749e-12
3.07543e-12
2.8459e-12
2.67305e-12
2.55076e-12
2.47277e-12
2.43267e-12
2.42403e-12
2.44044e-12
2.47559e-12
2.52337e-12
2.57792e-12
2.63377e-12
2.68587e-12
2.72972e-12
2.76145e-12
2.77784e-12
2.77644e-12
2.75558e-12
2.71435e-12
2.65265e-12
2.5711e-12
2.471e-12
2.35424e-12
2.2232e-12
2.0806e-12
1.92943e-12
1.77276e-12
1.61365e-12
1.45501e-12
1.29953e-12
1.14958e-12
1.00714e-12
8.7381e-13
7.50736e-13
6.38671e-13
5.37977e-13
4.48665e-13
3.70451e-13
3.02808e-13
2.45026e-13
1.96266e-13
1.55613e-13
1.22122e-13
9.48576e-14
7.29224e-14
5.54809e-14
4.17734e-14
3.11253e-14
2.29491e-14
1.67432e-14
1.2087e-14
8.63337e-15
6.10116e-15
4.26575e-15
2.95061e-15
2.01905e-15
1.36675e-15
9.15258e-16
6.06379e-16
3.97582e-16
2.58221e-16
1.66553e-16
1.07426e-16
7.05315e-17
4.9127e-17
3.91475e-17
1.7736e-14
1.78333e-14
1.82797e-14
1.9078e-14
2.02373e-14
2.17729e-14
2.37062e-14
2.60649e-14
2.88833e-14
3.22025e-14
3.60713e-14
4.05462e-14
4.56925e-14
5.15847e-14
5.83075e-14
6.59568e-14
7.46408e-14
8.44807e-14
9.56129e-14
1.08189e-13
1.2238e-13
1.38374e-13
1.56382e-13
1.76637e-13
1.99399e-13
2.24953e-13
2.53616e-13
2.85739e-13
3.21706e-13
3.61941e-13
4.06911e-13
4.57127e-13
5.13148e-13
5.75589e-13
6.45119e-13
7.22468e-13
8.08433e-13
9.03877e-13
1.00974e-12
1.12704e-12
1.25687e-12
1.40043e-12
1.55898e-12
1.73391e-12
1.9267e-12
2.13891e-12
2.37225e-12
2.6285e-12
2.90959e-12
3.21753e-12
3.55449e-12
3.92271e-12
4.3246e-12
4.76265e-12
5.23947e-12
5.75779e-12
6.32044e-12
6.93036e-12
7.59056e-12
8.30415e-12
9.0743e-12
9.90423e-12
1.07972e-11
1.17565e-11
1.27855e-11
1.38873e-11
1.50651e-11
1.63222e-11
1.76616e-11
1.90861e-11
2.05985e-11
2.22012e-11
2.38966e-11
2.56867e-11
2.75731e-11
2.95572e-11
3.16399e-11
3.38217e-11
3.61026e-11
3.84822e-11
4.09595e-11
4.35329e-11
4.62002e-11
4.89585e-11
5.18046e-11
5.47342e-11
5.77426e-11
6.08244e-11
6.39735e-11
6.71832e-11
7.0446e-11
7.3754e-11
7.70986e-11
8.04707e-11
8.38607e-11
8.72585e-11
9.06536e-11
9.40354e-11
9.73926e-11
1.00714e-10
1.03989e-10
1.07205e-10
1.10352e-10
1.13418e-10
1.16392e-10
1.19264e-10
1.22024e-10
1.24661e-10
1.27167e-10
1.29533e-10
1.31751e-10
1.33813e-10
1.35713e-10
1.37445e-10
1.39004e-10
1.40387e-10
1.41589e-10
1.42609e-10
1.43444e-10
1.44094e-10
1.44558e-10
1.44838e-10
1.44935e-10
1.44851e-10
1.44589e-10
1.44152e-10
1.43544e-10
1.4277e-10
1.41833e-10
1.4074e-10
1.39495e-10
1.38104e-10
1.36574e-10
1.3491e-10
1.33118e-10
1.31204e-10
1.29175e-10
1.27037e-10
1.24795e-10
1.22455e-10
1.20024e-10
1.17507e-10
1.1491e-10
1.12238e-10
1.09497e-10
1.06692e-10
1.03827e-10
1.00909e-10
9.79418e-11
9.49308e-11
9.1881e-11
8.87973e-11
8.56848e-11
8.25488e-11
7.93944e-11
7.62271e-11
7.30526e-11
6.98765e-11
6.6705e-11
6.35443e-11
6.04008e-11
5.72812e-11
5.41924e-11
5.11416e-11
4.81358e-11
4.51825e-11
4.22891e-11
3.94628e-11
3.6711e-11
3.40408e-11
3.1459e-11
2.89723e-11
2.65866e-11
2.43076e-11
2.21402e-11
2.00888e-11
1.81568e-11
1.63471e-11
1.46615e-11
1.31009e-11
1.16655e-11
1.03545e-11
9.1662e-12
8.098e-12
7.14655e-12
6.30774e-12
5.57675e-12
4.94814e-12
4.41593e-12
3.97363e-12
3.61437e-12
3.33096e-12
3.11593e-12
2.96164e-12
2.86033e-12
2.8042e-12
2.7855e-12
2.79655e-12
2.8299e-12
2.87835e-12
2.93508e-12
2.99373e-12
3.04849e-12
3.0942e-12
3.12643e-12
3.14156e-12
3.13681e-12
3.11029e-12
3.06104e-12
2.98894e-12
2.89474e-12
2.77992e-12
2.64663e-12
2.49757e-12
2.33581e-12
2.1647e-12
1.9877e-12
1.80822e-12
1.62952e-12
1.45459e-12
1.28606e-12
1.12614e-12
9.76573e-13
8.38629e-13
7.1312e-13
6.00424e-13
5.00535e-13
4.13111e-13
3.37548e-13
2.73035e-13
2.18622e-13
1.73278e-13
1.35941e-13
1.05558e-13
8.11235e-14
6.17023e-14
4.64448e-14
3.45966e-14
2.5502e-14
1.86012e-14
1.34251e-14
9.58701e-15
6.77364e-15
4.73495e-15
3.27452e-15
2.24028e-15
1.51624e-15
1.01519e-15
6.72478e-16
4.40853e-16
2.86282e-16
1.84626e-16
1.19066e-16
7.81629e-17
5.44352e-17
4.33735e-17
3.38565e-14
3.40439e-14
3.48995e-14
3.64285e-14
3.86487e-14
4.15896e-14
4.52922e-14
4.98101e-14
5.52092e-14
6.1569e-14
6.89832e-14
7.75611e-14
8.74282e-14
9.87283e-14
1.11625e-13
1.26303e-13
1.42971e-13
1.61863e-13
1.83243e-13
2.07404e-13
2.34674e-13
2.6542e-13
3.00047e-13
3.39006e-13
3.828e-13
4.31982e-13
4.87164e-13
5.49024e-13
6.18306e-13
6.95832e-13
7.82503e-13
8.79309e-13
9.87335e-13
1.10777e-12
1.2419e-12
1.39115e-12
1.55705e-12
1.74129e-12
1.94566e-12
2.17214e-12
2.42286e-12
2.7001e-12
3.00633e-12
3.3442e-12
3.71656e-12
4.12645e-12
4.57711e-12
5.07199e-12
5.61478e-12
6.20935e-12
6.85981e-12
7.57048e-12
8.34591e-12
9.19085e-12
1.01102e-11
1.11093e-11
1.21932e-11
1.33677e-11
1.46382e-11
1.60106e-11
1.74908e-11
1.90847e-11
2.07982e-11
2.26374e-11
2.46081e-11
2.67162e-11
2.89672e-11
3.13668e-11
3.392e-11
3.66317e-11
3.95063e-11
4.25478e-11
4.57596e-11
4.91446e-11
5.27047e-11
5.64413e-11
6.0355e-11
6.44453e-11
6.87107e-11
7.31488e-11
7.7756e-11
8.25276e-11
8.74576e-11
9.25388e-11
9.77627e-11
1.0312e-10
1.08598e-10
1.14187e-10
1.19872e-10
1.25638e-10
1.31469e-10
1.37349e-10
1.4326e-10
1.49182e-10
1.55096e-10
1.60982e-10
1.66819e-10
1.72585e-10
1.7826e-10
1.8382e-10
1.89246e-10
1.94516e-10
1.99609e-10
2.04505e-10
2.09185e-10
2.1363e-10
2.17823e-10
2.21747e-10
2.25388e-10
2.28733e-10
2.31769e-10
2.34486e-10
2.36876e-10
2.38932e-10
2.40648e-10
2.42021e-10
2.4305e-10
2.43734e-10
2.44075e-10
2.44077e-10
2.43743e-10
2.43081e-10
2.42097e-10
2.408e-10
2.392e-10
2.37308e-10
2.35134e-10
2.32692e-10
2.29994e-10
2.27054e-10
2.23884e-10
2.20499e-10
2.16912e-10
2.13138e-10
2.0919e-10
2.05082e-10
2.00827e-10
1.96438e-10
1.91929e-10
1.87311e-10
1.82596e-10
1.77796e-10
1.72921e-10
1.67983e-10
1.62991e-10
1.57955e-10
1.52884e-10
1.47787e-10
1.42672e-10
1.37548e-10
1.32422e-10
1.27303e-10
1.22198e-10
1.17114e-10
1.12058e-10
1.07039e-10
1.02063e-10
9.71371e-11
9.227e-11
8.74686e-11
8.27408e-11
7.80942e-11
7.35368e-11
6.90764e-11
6.47209e-11
6.04783e-11
5.63562e-11
5.23624e-11
4.85043e-11
4.47887e-11
4.12225e-11
3.78115e-11
3.45614e-11
3.14767e-11
2.85614e-11
2.58186e-11
2.32503e-11
2.08577e-11
1.86407e-11
1.65983e-11
1.47285e-11
1.30281e-11
1.14931e-11
1.01184e-11
8.89795e-12
7.82515e-12
6.89249e-12
6.09188e-12
5.41471e-12
4.85193e-12
4.39415e-12
4.0317e-12
3.75477e-12
3.55343e-12
3.41776e-12
3.33791e-12
3.30415e-12
3.30703e-12
3.33737e-12
3.38644e-12
3.446e-12
3.50843e-12
3.5668e-12
3.61501e-12
3.64785e-12
3.66105e-12
3.6514e-12
3.61674e-12
3.55594e-12
3.46894e-12
3.35662e-12
3.22073e-12
3.06381e-12
2.88899e-12
2.69985e-12
2.50027e-12
2.29423e-12
2.08568e-12
1.87835e-12
1.67567e-12
1.48064e-12
1.29578e-12
1.12305e-12
9.63901e-13
8.19221e-13
6.89416e-13
5.74446e-13
4.73895e-13
3.87042e-13
3.12936e-13
2.50469e-13
1.98442e-13
1.55623e-13
1.20797e-13
9.28031e-14
7.05623e-14
5.30968e-14
3.95396e-14
2.9137e-14
2.12466e-14
1.53302e-14
1.09447e-14
7.73098e-15
5.4029e-15
3.73561e-15
2.55519e-15
1.72902e-15
1.15743e-15
7.6656e-16
5.02441e-16
3.26221e-16
2.10349e-16
1.35633e-16
8.90242e-17
6.199e-17
4.93878e-17
6.39832e-14
6.43413e-14
6.59652e-14
6.88656e-14
7.30764e-14
7.86536e-14
8.5676e-14
9.42455e-14
1.04488e-13
1.16556e-13
1.30627e-13
1.4691e-13
1.65646e-13
1.87108e-13
2.11609e-13
2.39503e-13
2.71188e-13
3.07113e-13
3.4778e-13
3.93752e-13
4.45657e-13
5.04194e-13
5.70143e-13
6.44369e-13
7.2783e-13
8.2159e-13
9.26823e-13
1.04482e-12
1.17703e-12
1.325e-12
1.49048e-12
1.67536e-12
1.88173e-12
2.11185e-12
2.36823e-12
2.65356e-12
2.9708e-12
3.32316e-12
3.71412e-12
4.14745e-12
4.62721e-12
5.15781e-12
5.74395e-12
6.39073e-12
7.10356e-12
7.88827e-12
8.75104e-12
9.69848e-12
1.07376e-11
1.18757e-11
1.31206e-11
1.44806e-11
1.59643e-11
1.75805e-11
1.93387e-11
2.12485e-11
2.332e-11
2.55634e-11
2.79892e-11
3.06082e-11
3.34311e-11
3.64689e-11
3.97325e-11
4.32326e-11
4.69799e-11
5.09846e-11
5.52567e-11
5.98057e-11
6.46403e-11
6.97685e-11
7.51974e-11
8.09332e-11
8.69807e-11
9.33435e-11
1.00024e-10
1.07022e-10
1.14337e-10
1.21965e-10
1.29901e-10
1.38139e-10
1.46667e-10
1.55476e-10
1.6455e-10
1.73872e-10
1.83424e-10
1.93184e-10
2.03128e-10
2.1323e-10
2.23461e-10
2.3379e-10
2.44184e-10
2.5461e-10
2.65029e-10
2.75406e-10
2.857e-10
2.95872e-10
3.05882e-10
3.15688e-10
3.25251e-10
3.3453e-10
3.43485e-10
3.52078e-10
3.60272e-10
3.68032e-10
3.75323e-10
3.82116e-10
3.88381e-10
3.94093e-10
3.99229e-10
4.03769e-10
4.07698e-10
4.11003e-10
4.13674e-10
4.15706e-10
4.17097e-10
4.17847e-10
4.17961e-10
4.17447e-10
4.16316e-10
4.14581e-10
4.12259e-10
4.09368e-10
4.0593e-10
4.01967e-10
3.97504e-10
3.92568e-10
3.87184e-10
3.81382e-10
3.7519e-10
3.68637e-10
3.61752e-10
3.54564e-10
3.47102e-10
3.39394e-10
3.31468e-10
3.2335e-10
3.15068e-10
3.06644e-10
2.98105e-10
2.89471e-10
2.80765e-10
2.72008e-10
2.63217e-10
2.54412e-10
2.45609e-10
2.36824e-10
2.28072e-10
2.19366e-10
2.10719e-10
2.02143e-10
1.9365e-10
1.85251e-10
1.76954e-10
1.68771e-10
1.60709e-10
1.52779e-10
1.44989e-10
1.37347e-10
1.29861e-10
1.22541e-10
1.15393e-10
1.08426e-10
1.01649e-10
9.50679e-11
8.86917e-11
8.25277e-11
7.65829e-11
7.08645e-11
6.53787e-11
6.01315e-11
5.51281e-11
5.03731e-11
4.58701e-11
4.16218e-11
3.76298e-11
3.38948e-11
3.04159e-11
2.71914e-11
2.42181e-11
2.14917e-11
1.90065e-11
1.67559e-11
1.4732e-11
1.29257e-11
1.13274e-11
9.92632e-12
8.71111e-12
7.6698e-12
6.78997e-12
6.05884e-12
5.4634e-12
4.9905e-12
4.62696e-12
4.35966e-12
4.17563e-12
4.06214e-12
4.00677e-12
3.99754e-12
4.02295e-12
4.07212e-12
4.13488e-12
4.20187e-12
4.26467e-12
4.31586e-12
4.34916e-12
4.35949e-12
4.34301e-12
4.29716e-12
4.22065e-12
4.11344e-12
3.97661e-12
3.8123e-12
3.62352e-12
3.41402e-12
3.18805e-12
2.95018e-12
2.70513e-12
2.45752e-12
2.21175e-12
1.97182e-12
1.74125e-12
1.52293e-12
1.31917e-12
1.13159e-12
9.61227e-13
8.08502e-13
6.73337e-13
5.5521e-13
4.53244e-13
3.663e-13
2.93055e-13
2.32086e-13
1.81936e-13
1.41168e-13
1.08413e-13
8.24025e-14
6.19856e-14
4.61439e-14
3.39933e-14
2.47805e-14
1.7875e-14
1.2758e-14
9.00953e-15
6.29488e-15
4.35131e-15
2.97567e-15
2.01312e-15
1.34734e-15
8.9216e-16
5.84658e-16
3.79535e-16
2.44684e-16
1.57746e-16
1.03521e-16
7.2073e-17
5.74148e-17
1.19368e-13
1.20043e-13
1.23088e-13
1.28521e-13
1.36407e-13
1.46852e-13
1.60004e-13
1.76055e-13
1.95244e-13
2.17856e-13
2.44229e-13
2.74755e-13
3.09887e-13
3.50143e-13
3.96114e-13
4.48466e-13
5.07952e-13
5.7542e-13
6.51819e-13
7.38214e-13
8.3579e-13
9.45874e-13
1.06994e-12
1.20962e-12
1.36674e-12
1.5433e-12
1.74153e-12
1.9639e-12
2.2131e-12
2.49213e-12
2.80426e-12
3.1531e-12
3.54259e-12
3.97705e-12
4.4612e-12
5.00019e-12
5.5996e-12
6.26554e-12
7.0046e-12
7.82391e-12
8.73121e-12
9.7348e-12
1.08436e-11
1.20674e-11
1.34162e-11
1.49012e-11
1.6534e-11
1.83271e-11
2.02936e-11
2.24476e-11
2.48036e-11
2.7377e-11
3.01841e-11
3.32415e-11
3.65668e-11
4.0178e-11
4.40937e-11
4.83329e-11
5.29151e-11
5.78599e-11
6.31872e-11
6.89167e-11
7.50683e-11
8.16612e-11
8.87144e-11
9.6246e-11
1.04273e-10
1.12813e-10
1.21878e-10
1.31484e-10
1.4164e-10
1.52356e-10
1.63639e-10
1.75491e-10
1.87914e-10
2.00906e-10
2.14459e-10
2.28565e-10
2.43209e-10
2.58373e-10
2.74034e-10
2.90167e-10
3.06738e-10
3.23712e-10
3.41049e-10
3.58701e-10
3.7662e-10
3.94751e-10
4.13036e-10
4.31413e-10
4.49815e-10
4.68175e-10
4.86421e-10
5.04479e-10
5.22274e-10
5.39731e-10
5.56773e-10
5.73324e-10
5.89309e-10
6.04655e-10
6.19289e-10
6.33144e-10
6.46156e-10
6.58263e-10
6.69411e-10
6.79547e-10
6.88629e-10
6.96616e-10
7.03476e-10
7.09185e-10
7.13723e-10
7.17078e-10
7.19246e-10
7.20227e-10
7.20031e-10
7.18674e-10
7.16175e-10
7.12563e-10
7.07869e-10
7.02132e-10
6.95393e-10
6.87699e-10
6.79098e-10
6.69645e-10
6.59392e-10
6.48397e-10
6.36717e-10
6.24411e-10
6.11538e-10
5.98156e-10
5.84322e-10
5.70094e-10
5.55526e-10
5.40672e-10
5.25584e-10
5.1031e-10
4.94899e-10
4.79393e-10
4.63834e-10
4.48263e-10
4.32714e-10
4.17221e-10
4.01817e-10
3.86528e-10
3.7138e-10
3.56399e-10
3.41604e-10
3.27015e-10
3.12651e-10
2.98525e-10
2.84654e-10
2.71049e-10
2.57722e-10
2.44683e-10
2.31943e-10
2.1951e-10
2.07393e-10
1.95598e-10
1.84133e-10
1.73006e-10
1.62222e-10
1.51789e-10
1.41711e-10
1.31995e-10
1.22646e-10
1.13669e-10
1.05068e-10
9.68483e-11
8.90124e-11
8.15632e-11
7.45024e-11
6.78309e-11
6.15485e-11
5.56535e-11
5.01433e-11
4.50139e-11
4.02596e-11
3.58737e-11
3.18476e-11
2.81717e-11
2.48347e-11
2.18243e-11
1.91267e-11
1.67274e-11
1.46106e-11
1.276e-11
1.11585e-11
9.78855e-12
8.63231e-12
7.67173e-12
6.88872e-12
6.26525e-12
5.7835e-12
5.42595e-12
5.17545e-12
5.01535e-12
4.92959e-12
4.90278e-12
4.92029e-12
4.96838e-12
5.0343e-12
5.10638e-12
5.1742e-12
5.22863e-12
5.26199e-12
5.26808e-12
5.24226e-12
5.18146e-12
5.08418e-12
4.95038e-12
4.78144e-12
4.57996e-12
4.3496e-12
4.09489e-12
3.82095e-12
3.53328e-12
3.2375e-12
2.93916e-12
2.64349e-12
2.35523e-12
2.07855e-12
1.81687e-12
1.57287e-12
1.34848e-12
1.14485e-12
9.62456e-13
8.01156e-13
6.60289e-13
5.38777e-13
4.35232e-13
3.48055e-13
2.75531e-13
2.15908e-13
1.67464e-13
1.28561e-13
9.76821e-14
7.34546e-14
5.46642e-14
4.02576e-14
2.93384e-14
2.11568e-14
1.50963e-14
1.0658e-14
7.44484e-15
5.14501e-15
3.51766e-15
2.37929e-15
1.59208e-15
1.05402e-15
6.90602e-16
4.48231e-16
2.88923e-16
1.86235e-16
1.22197e-16
8.50625e-17
6.77553e-17
2.19693e-13
2.20953e-13
2.26585e-13
2.3663e-13
2.51205e-13
2.70509e-13
2.94818e-13
3.2449e-13
3.59967e-13
4.01782e-13
4.50562e-13
5.0704e-13
5.72058e-13
6.46582e-13
7.31711e-13
8.28688e-13
9.38918e-13
1.06398e-12
1.20565e-12
1.36591e-12
1.54698e-12
1.75133e-12
1.98171e-12
2.2412e-12
2.53318e-12
2.86141e-12
3.23007e-12
3.64376e-12
4.10753e-12
4.627e-12
5.2083e-12
5.85817e-12
6.58402e-12
7.39394e-12
8.29677e-12
9.30216e-12
1.04206e-11
1.16635e-11
1.30432e-11
1.45732e-11
1.62679e-11
1.81428e-11
2.02148e-11
2.25018e-11
2.5023e-11
2.77991e-11
3.0852e-11
3.42048e-11
3.78821e-11
4.191e-11
4.63158e-11
5.1128e-11
5.63768e-11
6.20931e-11
6.83094e-11
7.50589e-11
8.23759e-11
9.02954e-11
9.88529e-11
1.08084e-10
1.18025e-10
1.28712e-10
1.40181e-10
1.52464e-10
1.65597e-10
1.7961e-10
1.94535e-10
2.10396e-10
2.27221e-10
2.45028e-10
2.63836e-10
2.83656e-10
3.04496e-10
3.26359e-10
3.4924e-10
3.73128e-10
3.98006e-10
4.23848e-10
4.50623e-10
4.78288e-10
5.06794e-10
5.36084e-10
5.6609e-10
5.96736e-10
6.27939e-10
6.59606e-10
6.91636e-10
7.2392e-10
7.56344e-10
7.88783e-10
8.21111e-10
8.53195e-10
8.84897e-10
9.16078e-10
9.46596e-10
9.76309e-10
1.00508e-09
1.03276e-09
1.05922e-09
1.08432e-09
1.10795e-09
1.12998e-09
1.1503e-09
1.16882e-09
1.18544e-09
1.20008e-09
1.21267e-09
1.22317e-09
1.23152e-09
1.23771e-09
1.24172e-09
1.24354e-09
1.24318e-09
1.24068e-09
1.23607e-09
1.22941e-09
1.22074e-09
1.21014e-09
1.19769e-09
1.18348e-09
1.1676e-09
1.15016e-09
1.13126e-09
1.11101e-09
1.08953e-09
1.06693e-09
1.04332e-09
1.01881e-09
9.93537e-10
9.67593e-10
9.41091e-10
9.14137e-10
8.86831e-10
8.5927e-10
8.31544e-10
8.03739e-10
7.75937e-10
7.48211e-10
7.2063e-10
6.93258e-10
6.66153e-10
6.39365e-10
6.12943e-10
5.86928e-10
5.61356e-10
5.3626e-10
5.11667e-10
4.87603e-10
4.64087e-10
4.41138e-10
4.18768e-10
3.96991e-10
3.75816e-10
3.5525e-10
3.353e-10
3.1597e-10
2.97263e-10
2.79183e-10
2.6173e-10
2.44907e-10
2.28713e-10
2.13148e-10
1.98213e-10
1.83905e-10
1.70225e-10
1.57171e-10
1.44739e-10
1.32928e-10
1.21734e-10
1.11152e-10
1.01177e-10
9.18024e-11
8.30199e-11
7.48207e-11
6.7194e-11
6.01276e-11
5.3608e-11
4.76196e-11
4.21457e-11
3.71678e-11
3.26663e-11
2.86198e-11
2.50062e-11
2.18022e-11
1.89836e-11
1.65256e-11
1.44031e-11
1.25906e-11
1.10625e-11
9.79351e-12
8.75843e-12
7.93257e-12
7.29172e-12
6.81236e-12
6.47175e-12
6.24795e-12
6.12003e-12
6.06806e-12
6.07329e-12
6.11819e-12
6.18664e-12
6.26395e-12
6.33709e-12
6.39472e-12
6.42731e-12
6.42725e-12
6.38886e-12
6.30842e-12
6.18412e-12
6.01598e-12
5.8057e-12
5.55652e-12
5.27291e-12
4.96038e-12
4.62517e-12
4.27395e-12
3.91352e-12
3.55055e-12
3.19135e-12
2.84162e-12
2.50631e-12
2.18953e-12
1.89444e-12
1.62331e-12
1.37747e-12
1.15744e-12
9.62997e-13
7.93306e-13
6.47026e-13
5.22453e-13
4.17632e-13
3.30479e-13
2.58865e-13
2.00709e-13
1.54029e-13
1.16993e-13
8.79471e-14
6.54289e-14
4.81709e-14
3.50952e-14
2.53012e-14
1.80488e-14
1.27393e-14
8.89654e-15
6.14686e-15
4.20172e-15
2.84139e-15
1.90092e-15
1.25825e-15
8.24269e-16
5.34897e-16
3.4473e-16
2.22173e-16
1.45754e-16
1.01446e-16
8.0797e-17
3.98846e-13
4.01164e-13
4.11449e-13
4.29773e-13
4.56355e-13
4.91561e-13
5.35897e-13
5.90021e-13
6.54746e-13
7.3105e-13
8.20087e-13
9.23202e-13
1.04195e-12
1.17809e-12
1.33366e-12
1.51095e-12
1.71254e-12
1.94133e-12
2.2006e-12
2.49401e-12
2.82563e-12
3.20005e-12
3.62233e-12
4.09814e-12
4.63373e-12
5.23607e-12
5.91285e-12
6.67258e-12
7.52464e-12
8.47936e-12
9.54813e-12
1.07434e-11
1.20789e-11
1.35697e-11
1.5232e-11
1.70837e-11
1.91444e-11
2.14351e-11
2.39787e-11
2.68001e-11
2.99261e-11
3.33855e-11
3.72094e-11
4.1431e-11
4.60861e-11
5.12126e-11
5.68511e-11
6.30444e-11
6.9838e-11
7.72799e-11
8.54204e-11
9.43122e-11
1.04011e-10
1.14572e-10
1.26057e-10
1.38526e-10
1.52041e-10
1.66666e-10
1.82465e-10
1.99504e-10
2.17847e-10
2.37559e-10
2.58701e-10
2.81337e-10
3.05523e-10
3.31316e-10
3.58766e-10
3.87918e-10
4.18814e-10
4.51485e-10
4.85956e-10
5.22245e-10
5.60356e-10
6.00285e-10
6.42015e-10
6.85517e-10
7.30748e-10
7.77651e-10
8.26153e-10
8.76167e-10
9.27589e-10
9.80299e-10
1.03416e-09
1.08902e-09
1.14471e-09
1.20105e-09
1.25784e-09
1.31486e-09
1.3719e-09
1.42871e-09
1.48506e-09
1.54069e-09
1.59534e-09
1.64875e-09
1.70067e-09
1.75082e-09
1.79896e-09
1.84482e-09
1.88817e-09
1.92878e-09
1.96643e-09
2.00093e-09
2.03207e-09
2.05971e-09
2.0837e-09
2.10392e-09
2.12028e-09
2.13271e-09
2.14117e-09
2.14563e-09
2.14611e-09
2.14264e-09
2.13528e-09
2.12411e-09
2.10923e-09
2.09076e-09
2.06887e-09
2.04369e-09
2.01542e-09
1.98424e-09
1.95034e-09
1.91395e-09
1.87528e-09
1.83454e-09
1.79195e-09
1.74775e-09
1.70214e-09
1.65535e-09
1.60758e-09
1.55904e-09
1.50993e-09
1.46042e-09
1.41071e-09
1.36095e-09
1.31131e-09
1.26191e-09
1.21291e-09
1.16441e-09
1.11652e-09
1.06935e-09
1.02298e-09
9.77487e-10
9.32932e-10
8.89374e-10
8.4686e-10
8.05429e-10
7.65112e-10
7.25933e-10
6.87911e-10
6.51057e-10
6.1538e-10
5.80882e-10
5.47563e-10
5.15419e-10
4.84444e-10
4.54629e-10
4.25964e-10
3.98438e-10
3.72037e-10
3.46749e-10
3.22558e-10
2.99451e-10
2.77412e-10
2.56427e-10
2.36479e-10
2.17552e-10
1.9963e-10
1.82697e-10
1.66735e-10
1.51725e-10
1.37649e-10
1.24486e-10
1.12215e-10
1.00813e-10
9.0256e-11
8.05178e-11
7.15714e-11
6.33879e-11
5.59372e-11
4.91873e-11
4.31053e-11
3.7657e-11
3.28071e-11
2.85197e-11
2.47583e-11
2.14863e-11
1.86667e-11
1.62629e-11
1.42388e-11
1.25587e-11
1.11877e-11
1.00921e-11
9.23888e-12
8.59656e-12
8.13481e-12
7.82472e-12
7.63885e-12
7.55132e-12
7.53795e-12
7.57631e-12
7.64583e-12
7.72797e-12
7.8063e-12
7.86663e-12
7.8971e-12
7.88826e-12
7.83313e-12
7.72712e-12
7.56807e-12
7.35605e-12
7.09319e-12
6.78348e-12
6.43245e-12
6.04687e-12
5.63434e-12
5.20301e-12
4.76116e-12
4.3169e-12
3.87783e-12
3.45085e-12
3.04194e-12
2.656e-12
2.29684e-12
1.96711e-12
1.66838e-12
1.40121e-12
1.16528e-12
9.59522e-13
7.82258e-13
6.31387e-13
5.04511e-13
3.99074e-13
3.12481e-13
2.42193e-13
1.85801e-13
1.4108e-13
1.06021e-13
7.88512e-14
5.80361e-14
4.22709e-14
3.04664e-14
2.17279e-14
1.53325e-14
1.0705e-14
7.39478e-15
5.05369e-15
3.41686e-15
2.28549e-15
1.51253e-15
9.90684e-16
6.42786e-16
4.14199e-16
2.66904e-16
1.75074e-16
1.21836e-16
9.70275e-17
7.1426e-13
7.18473e-13
7.37007e-13
7.69994e-13
8.17836e-13
8.81193e-13
9.60987e-13
1.05841e-12
1.17494e-12
1.31234e-12
1.47272e-12
1.65851e-12
1.87252e-12
2.11798e-12
2.39856e-12
2.71842e-12
3.08226e-12
3.49537e-12
3.96368e-12
4.49387e-12
5.09337e-12
5.77049e-12
6.5345e-12
7.3957e-12
8.36552e-12
9.45665e-12
1.06831e-11
1.20605e-11
1.36059e-11
1.53382e-11
1.72782e-11
1.94488e-11
2.18749e-11
2.4584e-11
2.76061e-11
3.09739e-11
3.47229e-11
3.88919e-11
4.35228e-11
4.86612e-11
5.43559e-11
6.066e-11
6.76302e-11
7.53276e-11
8.38174e-11
9.31692e-11
1.03457e-10
1.14759e-10
1.27159e-10
1.40744e-10
1.55606e-10
1.71841e-10
1.8955e-10
2.08836e-10
2.29807e-10
2.52574e-10
2.77249e-10
3.03948e-10
3.32786e-10
3.6388e-10
3.97346e-10
4.33298e-10
4.71848e-10
5.13102e-10
5.57162e-10
6.04125e-10
6.54075e-10
7.07089e-10
7.63232e-10
8.22554e-10
8.8509e-10
9.50858e-10
1.01986e-09
1.09206e-09
1.16743e-09
1.24589e-09
1.32735e-09
1.41169e-09
1.49874e-09
1.58834e-09
1.68028e-09
1.77431e-09
1.87016e-09
1.96753e-09
2.06611e-09
2.16552e-09
2.26539e-09
2.36532e-09
2.46487e-09
2.56361e-09
2.66107e-09
2.75679e-09
2.85029e-09
2.94109e-09
3.0287e-09
3.11267e-09
3.19252e-09
3.26781e-09
3.33812e-09
3.40306e-09
3.46224e-09
3.51533e-09
3.56204e-09
3.60211e-09
3.63532e-09
3.66151e-09
3.68056e-09
3.69239e-09
3.69698e-09
3.69435e-09
3.68459e-09
3.6678e-09
3.64416e-09
3.61388e-09
3.57719e-09
3.53439e-09
3.48578e-09
3.43171e-09
3.37255e-09
3.30867e-09
3.2405e-09
3.16842e-09
3.09288e-09
3.01427e-09
2.93303e-09
2.84957e-09
2.76429e-09
2.67759e-09
2.58985e-09
2.50142e-09
2.41265e-09
2.32387e-09
2.23537e-09
2.14743e-09
2.06032e-09
1.97425e-09
1.88945e-09
1.80609e-09
1.72434e-09
1.64434e-09
1.56622e-09
1.49008e-09
1.41599e-09
1.34403e-09
1.27425e-09
1.20669e-09
1.14136e-09