/*--------------------------------*- C++ -*----------------------------------*\
| =========                 |                                                 |
| \\      /  F ield         | OpenFOAM: The Open Source CFD Toolbox           |
|  \\    /   O peration     | Version:  v2012                                 |
|   \\  /    A nd           | Website:  www.openfoam.com                      |
|    \\/     M anipulation  |                                                 |
\*---------------------------------------------------------------------------*/
FoamFile
{
    version     2.0;
    format      ascii;
    class       volScalarField;
    location    "0";
    object      p;
}
// * * * * * * * * * * * * * * * * * * * * * * * * * * * * * * * * * * * * * //

dimensions      [0 2 -2 0 0 0 0];


internalField   nonuniform List<scalar> 
4000
(
-1.30075e-13
-1.37391e-13
-1.35598e-13
-1.37815e-13
-1.43805e-13
-1.35648e-13
-1.37905e-13
-1.44215e-13
-1.5288e-13
-1.46672e-13
-1.33381e-13
-1.23566e-13
-1.34561e-13
-1.49195e-13
-1.57167e-13
-1.52746e-13
-1.46712e-13
-1.45826e-13
-1.5436e-13
-1.51638e-13
-1.5117e-13
-1.54576e-13
-1.5208e-13
-1.62109e-13
-1.66793e-13
-1.67984e-13
-1.62185e-13
-1.70656e-13
-1.80138e-13
-1.76257e-13
-1.78063e-13
-1.82016e-13
-1.77729e-13
-1.6965e-13
-1.67496e-13
-1.63035e-13
-1.74978e-13
-1.84566e-13
-1.92021e-13
-1.91978e-13
-1.84766e-13
-1.81298e-13
-1.68734e-13
-1.7146e-13
-1.72506e-13
-1.67908e-13
-1.73817e-13
-1.74975e-13
-1.66697e-13
-1.68586e-13
-1.64134e-13
-1.56256e-13
-1.53544e-13
-1.49175e-13
-1.54587e-13
-1.53613e-13
-1.52766e-13
-1.44083e-13
-1.31531e-13
-1.2021e-13
-1.10345e-13
-1.07039e-13
-1.03747e-13
-1.02593e-13
-9.98983e-14
-9.46638e-14
-9.10228e-14
-8.67064e-14
-8.2167e-14
-8.09472e-14
-7.70415e-14
-6.89685e-14
-6.33099e-14
-6.04389e-14
-5.74314e-14
-4.89448e-14
-3.88106e-14
-3.1409e-14
-2.82041e-14
-3.05586e-14
-3.2408e-14
-4.05916e-14
-3.28852e-14
-2.89175e-14
-3.00481e-14
-3.61059e-14
-3.61376e-14
-3.76797e-14
-2.93631e-14
-2.18196e-14
-1.75699e-14
-1.38354e-14
-1.90783e-14
-2.05056e-14
-1.17394e-14
-9.69222e-15
-8.82728e-15
-1.28849e-14
-1.25649e-14
-3.31104e-15
-1.33841e-13
-1.36451e-13
-1.36694e-13
-1.32912e-13
-1.40715e-13
-1.39959e-13
-1.40189e-13
-1.42489e-13
-1.45489e-13
-1.43538e-13
-1.37599e-13
-1.35758e-13
-1.388e-13
-1.40712e-13
-1.54888e-13
-1.55389e-13
-1.47717e-13
-1.45711e-13
-1.50299e-13
-1.52502e-13
-1.50678e-13
-1.55001e-13
-1.54882e-13
-1.59378e-13
-1.67574e-13
-1.65388e-13
-1.67264e-13
-1.68529e-13
-1.82891e-13
-1.80529e-13
-1.72654e-13
-1.80219e-13
-1.79569e-13
-1.76513e-13
-1.70304e-13
-1.66322e-13
-1.70455e-13
-1.79208e-13
-1.85387e-13
-1.85955e-13
-1.84887e-13
-1.83355e-13
-1.75135e-13
-1.74746e-13
-1.67044e-13
-1.69396e-13
-1.75084e-13
-1.7658e-13
-1.72378e-13
-1.69808e-13
-1.64406e-13
-1.55801e-13
-1.49583e-13
-1.49678e-13
-1.51142e-13
-1.52571e-13
-1.5599e-13
-1.4425e-13
-1.29967e-13
-1.1926e-13
-1.13561e-13
-1.06607e-13
-1.01778e-13
-1.05329e-13
-9.92842e-14
-9.53396e-14
-9.22803e-14
-8.87903e-14
-7.7868e-14
-8.0337e-14
-7.44321e-14
-6.78258e-14
-6.20919e-14
-6.07982e-14
-5.61393e-14
-4.73706e-14
-3.95322e-14
-3.58817e-14
-2.98836e-14
-3.18941e-14
-3.12544e-14
-3.46707e-14
-3.3831e-14
-2.94351e-14
-3.30488e-14
-3.50601e-14
-3.64747e-14
-3.7477e-14
-3.06685e-14
-2.36484e-14
-1.73595e-14
-1.50208e-14
-1.41461e-14
-1.55378e-14
-1.23813e-14
-1.14767e-14
-1.0474e-14
-1.15276e-14
-8.56616e-15
-1.86425e-15
-1.36189e-13
-1.38982e-13
-1.40351e-13
-1.332e-13
-1.36432e-13
-1.34915e-13
-1.39303e-13
-1.47954e-13
-1.49992e-13
-1.42055e-13
-1.35816e-13
-1.37619e-13
-1.39514e-13
-1.44278e-13
-1.53883e-13
-1.5472e-13
-1.52007e-13
-1.4579e-13
-1.45452e-13
-1.46705e-13
-1.49106e-13
-1.58328e-13
-1.57927e-13
-1.55192e-13
-1.62908e-13
-1.67517e-13
-1.67114e-13
-1.675e-13
-1.77654e-13
-1.79645e-13
-1.76334e-13
-1.80619e-13
-1.81946e-13
-1.76703e-13
-1.70465e-13
-1.69194e-13
-1.68152e-13
-1.78019e-13
-1.84845e-13
-1.82623e-13
-1.84387e-13
-1.88442e-13
-1.7366e-13
-1.69959e-13
-1.63961e-13
-1.70601e-13
-1.74414e-13
-1.78678e-13
-1.70038e-13
-1.68998e-13
-1.6106e-13
-1.55394e-13
-1.53176e-13
-1.53182e-13
-1.52931e-13
-1.48015e-13
-1.47724e-13
-1.39807e-13
-1.2714e-13
-1.1632e-13
-1.18579e-13
-1.13951e-13
-1.10835e-13
-1.05797e-13
-9.96711e-14
-9.48353e-14
-8.77234e-14
-8.91415e-14
-7.81322e-14
-8.47849e-14
-8.36104e-14
-7.2968e-14
-6.36338e-14
-5.71431e-14
-5.3847e-14
-4.80212e-14
-4.10032e-14
-3.34642e-14
-3.1781e-14
-3.07512e-14
-3.03855e-14
-2.81042e-14
-3.37877e-14
-3.4188e-14
-3.70192e-14
-3.70223e-14
-3.16542e-14
-2.8994e-14
-2.54429e-14
-2.6256e-14
-2.12807e-14
-1.6711e-14
-1.5369e-14
-1.12687e-14
-1.3733e-14
-1.51693e-14
-9.6437e-15
-4.8938e-15
-2.61767e-15
-2.66184e-15
-1.33148e-13
-1.38908e-13
-1.41383e-13
-1.40777e-13
-1.33611e-13
-1.40239e-13
-1.40879e-13
-1.48667e-13
-1.39608e-13
-1.39238e-13
-1.44499e-13
-1.40902e-13
-1.37905e-13
-1.36941e-13
-1.4666e-13
-1.56371e-13
-1.53127e-13
-1.4881e-13
-1.50584e-13
-1.46993e-13
-1.45555e-13
-1.55449e-13
-1.60201e-13
-1.58563e-13
-1.63571e-13
-1.69343e-13
-1.68321e-13
-1.65172e-13
-1.69498e-13
-1.7701e-13
-1.74898e-13
-1.78649e-13
-1.78799e-13
-1.80466e-13
-1.8106e-13
-1.71562e-13
-1.67069e-13
-1.79162e-13
-1.81979e-13
-1.82946e-13
-1.79505e-13
-1.79942e-13
-1.74459e-13
-1.73078e-13
-1.7088e-13
-1.72728e-13
-1.73598e-13
-1.71196e-13
-1.68892e-13
-1.70492e-13
-1.64322e-13
-1.59896e-13
-1.54882e-13
-1.5044e-13
-1.52768e-13
-1.45579e-13
-1.46164e-13
-1.36868e-13
-1.2708e-13
-1.20176e-13
-1.17418e-13
-1.1256e-13
-1.10082e-13
-1.06304e-13
-9.99788e-14
-9.87705e-14
-9.2261e-14
-8.26796e-14
-8.11856e-14
-8.46551e-14
-7.60398e-14
-6.68775e-14
-6.82251e-14
-6.20541e-14
-5.55612e-14
-4.64856e-14
-4.20193e-14
-3.57394e-14
-3.17562e-14
-3.25561e-14
-3.17815e-14
-2.50279e-14
-3.40483e-14
-3.5183e-14
-3.90035e-14
-3.68856e-14
-3.07732e-14
-3.12262e-14
-2.81807e-14
-2.7085e-14
-1.97512e-14
-1.62528e-14
-1.33874e-14
-1.43677e-14
-1.19857e-14
-1.05412e-14
-6.95488e-15
-4.19898e-15
-5.79096e-16
-2.4924e-15
-1.3085e-13
-1.32889e-13
-1.40319e-13
-1.40906e-13
-1.39762e-13
-1.38068e-13
-1.40575e-13
-1.45566e-13
-1.40049e-13
-1.37291e-13
-1.42392e-13
-1.44277e-13
-1.37965e-13
-1.37331e-13
-1.4312e-13
-1.56126e-13
-1.51429e-13
-1.47429e-13
-1.4776e-13
-1.46453e-13
-1.5046e-13
-1.55251e-13
-1.66113e-13
-1.58621e-13
-1.57738e-13
-1.58958e-13
-1.60309e-13
-1.70058e-13
-1.71162e-13
-1.75047e-13
-1.77275e-13
-1.757e-13
-1.72142e-13
-1.82188e-13
-1.77911e-13
-1.77518e-13
-1.75821e-13
-1.79716e-13
-1.81619e-13
-1.79544e-13
-1.80503e-13
-1.7755e-13
-1.73553e-13
-1.75876e-13
-1.74129e-13
-1.72457e-13
-1.72376e-13
-1.70129e-13
-1.68742e-13
-1.69915e-13
-1.64699e-13
-1.5869e-13
-1.52238e-13
-1.52301e-13
-1.50454e-13
-1.50227e-13
-1.42424e-13
-1.31201e-13
-1.27868e-13
-1.2211e-13
-1.20542e-13
-1.17459e-13
-1.13039e-13
-1.07212e-13
-9.77937e-14
-9.64562e-14
-9.19105e-14
-8.58697e-14
-8.51789e-14
-8.3827e-14
-7.68368e-14
-6.7687e-14
-7.02227e-14
-6.73516e-14
-5.45782e-14
-5.27169e-14
-4.2576e-14
-3.88181e-14
-3.56098e-14
-2.9934e-14
-2.95653e-14
-2.66531e-14
-3.53127e-14
-3.45341e-14
-3.8451e-14
-4.34426e-14
-3.12235e-14
-2.56075e-14
-2.58357e-14
-2.61085e-14
-1.96145e-14
-1.53428e-14
-1.07467e-14
-9.91775e-15
-1.02345e-14
-7.57113e-15
-2.76929e-15
-3.66327e-15
2.68061e-16
-6.05737e-15
-1.35185e-13
-1.30258e-13
-1.39411e-13
-1.46636e-13
-1.36745e-13
-1.27419e-13
-1.34086e-13
-1.41671e-13
-1.40545e-13
-1.46629e-13
-1.45835e-13
-1.40092e-13
-1.32092e-13
-1.41063e-13
-1.42783e-13
-1.45212e-13
-1.5029e-13
-1.48266e-13
-1.39977e-13
-1.37164e-13
-1.53445e-13
-1.57495e-13
-1.64631e-13
-1.69334e-13
-1.63476e-13
-1.62979e-13
-1.65912e-13
-1.6572e-13
-1.70229e-13
-1.718e-13
-1.72986e-13
-1.7554e-13
-1.76266e-13
-1.79731e-13
-1.74282e-13
-1.79271e-13
-1.78396e-13
-1.81508e-13
-1.89161e-13
-1.81229e-13
-1.7907e-13
-1.76866e-13
-1.74218e-13
-1.7111e-13
-1.71971e-13
-1.78813e-13
-1.76776e-13
-1.6882e-13
-1.70666e-13
-1.68514e-13
-1.68704e-13
-1.58746e-13
-1.50437e-13
-1.5247e-13
-1.50807e-13
-1.53017e-13
-1.4461e-13
-1.3613e-13
-1.26883e-13
-1.23269e-13
-1.15207e-13
-1.17477e-13
-1.12895e-13
-1.08474e-13
-1.03062e-13
-1.00374e-13
-9.16978e-14
-8.55374e-14
-8.30335e-14
-7.90889e-14
-7.56956e-14
-6.84918e-14
-6.85061e-14
-6.6788e-14
-5.62578e-14
-4.99085e-14
-4.28425e-14
-3.9603e-14
-4.36865e-14
-3.22152e-14
-2.84861e-14
-3.04697e-14
-3.67965e-14
-4.09542e-14
-3.81563e-14
-3.59072e-14
-3.43939e-14
-2.8096e-14
-2.49302e-14
-2.4645e-14
-1.77931e-14
-1.42072e-14
-1.1408e-14
-9.86591e-15
-8.84524e-15
-4.04145e-16
1.42103e-15
-3.3474e-15
-3.04688e-15
-4.13123e-15
-1.30584e-13
-1.33961e-13
-1.36694e-13
-1.37687e-13
-1.36047e-13
-1.35821e-13
-1.35798e-13
-1.42218e-13
-1.39397e-13
-1.46525e-13
-1.44477e-13
-1.40867e-13
-1.35645e-13
-1.36533e-13
-1.3998e-13
-1.46312e-13
-1.39374e-13
-1.37714e-13
-1.46596e-13
-1.49784e-13
-1.61045e-13
-1.62318e-13
-1.55598e-13
-1.53154e-13
-1.55274e-13
-1.57152e-13
-1.70841e-13
-1.72021e-13
-1.6658e-13
-1.69255e-13
-1.68212e-13
-1.73785e-13
-1.79964e-13
-1.89289e-13
-1.78553e-13
-1.83467e-13
-1.79791e-13
-1.81402e-13
-1.82258e-13
-1.81795e-13
-1.86601e-13
-1.79962e-13
-1.77329e-13
-1.75287e-13
-1.71072e-13
-1.74492e-13
-1.7156e-13
-1.70271e-13
-1.69909e-13
-1.68083e-13
-1.69682e-13
-1.67759e-13
-1.49973e-13
-1.4704e-13
-1.50943e-13
-1.59879e-13
-1.4963e-13
-1.31673e-13
-1.26928e-13
-1.221e-13
-1.15392e-13
-1.18877e-13
-1.14265e-13
-1.11262e-13
-1.04271e-13
-1.00636e-13
-9.7208e-14
-9.66058e-14
-8.63134e-14
-7.83472e-14
-6.83517e-14
-6.61014e-14
-6.90282e-14
-6.55523e-14
-5.8368e-14
-5.87142e-14
-5.16301e-14
-3.76207e-14
-4.10699e-14
-3.49082e-14
-3.2646e-14
-3.09584e-14
-3.54683e-14
-3.67095e-14
-3.55322e-14
-3.69368e-14
-3.72119e-14
-2.86376e-14
-2.41628e-14
-2.21733e-14
-2.16604e-14
-1.44797e-14
-1.08691e-14
-1.19931e-14
-4.393e-15
-3.00838e-15
4.81451e-15
1.04078e-16
1.92797e-16
-3.39201e-15
-1.35763e-13
-1.38672e-13
-1.39453e-13
-1.35123e-13
-1.31946e-13
-1.31421e-13
-1.34899e-13
-1.37859e-13
-1.39209e-13
-1.42692e-13
-1.372e-13
-1.42554e-13
-1.4081e-13
-1.37705e-13
-1.39482e-13
-1.39926e-13
-1.36969e-13
-1.38247e-13
-1.46364e-13
-1.52973e-13
-1.55925e-13
-1.51319e-13
-1.49628e-13
-1.63143e-13
-1.6975e-13
-1.65399e-13
-1.71387e-13
-1.66592e-13
-1.70598e-13
-1.69494e-13
-1.73452e-13
-1.73161e-13
-1.77648e-13
-1.81228e-13
-1.84861e-13
-1.81703e-13
-1.79555e-13
-1.81995e-13
-1.89526e-13
-1.90835e-13
-1.85724e-13
-1.76099e-13
-1.70595e-13
-1.72652e-13
-1.71251e-13
-1.67916e-13
-1.71148e-13
-1.73595e-13
-1.76684e-13
-1.68919e-13
-1.58641e-13
-1.58068e-13
-1.55662e-13
-1.54869e-13
-1.54933e-13
-1.60939e-13
-1.4931e-13
-1.32146e-13
-1.27113e-13
-1.25012e-13
-1.17623e-13
-1.15352e-13
-1.16024e-13
-1.08536e-13
-1.02142e-13
-9.88141e-14
-9.77159e-14
-9.61056e-14
-8.75577e-14
-7.64939e-14
-7.07009e-14
-7.14843e-14
-6.99803e-14
-6.78965e-14
-6.39996e-14
-5.68569e-14
-4.97677e-14
-3.81219e-14
-3.78422e-14
-3.47544e-14
-3.04927e-14
-3.22615e-14
-3.64822e-14
-4.14077e-14
-4.53367e-14
-3.8802e-14
-3.35791e-14
-3.17504e-14
-2.20161e-14
-2.26689e-14
-1.9517e-14
-1.67162e-14
-1.12746e-14
-5.15455e-15
-2.88686e-15
-8.04686e-15
2.03698e-15
5.29205e-15
1.36237e-15
-4.39868e-15
-1.31618e-13
-1.30426e-13
-1.35265e-13
-1.40189e-13
-1.35387e-13
-1.32526e-13
-1.37455e-13
-1.3527e-13
-1.42319e-13
-1.40551e-13
-1.38637e-13
-1.43487e-13
-1.44684e-13
-1.36832e-13
-1.3421e-13
-1.37211e-13
-1.37536e-13
-1.37645e-13
-1.44576e-13
-1.54227e-13
-1.56575e-13
-1.59623e-13
-1.49132e-13
-1.53159e-13
-1.61836e-13
-1.75572e-13
-1.70852e-13
-1.70755e-13
-1.72526e-13
-1.67501e-13
-1.66896e-13
-1.73973e-13
-1.79142e-13
-1.93623e-13
-1.90309e-13
-1.86451e-13
-1.80901e-13
-1.84137e-13
-1.85515e-13
-1.84238e-13
-1.78875e-13
-1.71814e-13
-1.79263e-13
-1.77272e-13
-1.7257e-13
-1.69588e-13
-1.68151e-13
-1.74237e-13
-1.72723e-13
-1.70261e-13
-1.64026e-13
-1.64073e-13
-1.54471e-13
-1.51347e-13
-1.59331e-13
-1.54052e-13
-1.4288e-13
-1.33002e-13
-1.29101e-13
-1.31326e-13
-1.2205e-13
-1.16884e-13
-1.15073e-13
-1.08785e-13
-1.0335e-13
-1.01788e-13
-9.68911e-14
-9.75494e-14
-8.84477e-14
-8.19091e-14
-7.4795e-14
-7.17341e-14
-6.80933e-14
-6.23557e-14
-6.34051e-14
-5.58383e-14
-4.77105e-14
-3.82597e-14
-3.59877e-14
-3.72584e-14
-3.57088e-14
-3.23153e-14
-3.40956e-14
-4.25791e-14
-4.28426e-14
-3.82087e-14
-3.23087e-14
-3.18174e-14
-2.21941e-14
-2.1484e-14
-2.08365e-14
-1.70538e-14
-1.40398e-14
-8.96181e-15
-5.16258e-16
-4.20149e-15
-3.92496e-15
2.58747e-15
-5.66533e-16
-5.55268e-15
-1.31992e-13
-1.33125e-13
-1.33456e-13
-1.37539e-13
-1.36359e-13
-1.34852e-13
-1.39082e-13
-1.36546e-13
-1.37499e-13
-1.39691e-13
-1.43193e-13
-1.46356e-13
-1.4299e-13
-1.32578e-13
-1.29048e-13
-1.37773e-13
-1.48543e-13
-1.36017e-13
-1.37557e-13
-1.51668e-13
-1.59035e-13
-1.63795e-13
-1.57046e-13
-1.56672e-13
-1.62009e-13
-1.62301e-13
-1.62026e-13
-1.70147e-13
-1.79092e-13
-1.67984e-13
-1.69994e-13
-1.72937e-13
-1.81095e-13
-1.95705e-13
-1.97177e-13
-1.91533e-13
-1.81553e-13
-1.79846e-13
-1.88364e-13
-1.81872e-13
-1.80466e-13
-1.74013e-13
-1.74948e-13
-1.78753e-13
-1.7441e-13
-1.69812e-13
-1.6575e-13
-1.74417e-13
-1.74645e-13
-1.69466e-13
-1.64007e-13
-1.62589e-13
-1.54482e-13
-1.50748e-13
-1.60801e-13
-1.54236e-13
-1.45385e-13
-1.38305e-13
-1.27485e-13
-1.24632e-13
-1.18694e-13
-1.13639e-13
-1.15108e-13
-1.10829e-13
-1.03129e-13
-1.07166e-13
-1.038e-13
-9.83102e-14
-8.5947e-14
-7.94579e-14
-7.47935e-14
-6.89671e-14
-6.75402e-14
-6.10684e-14
-6.06916e-14
-5.85043e-14
-5.1188e-14
-3.96987e-14
-3.57531e-14
-3.8788e-14
-4.06023e-14
-3.0336e-14
-3.24869e-14
-4.11408e-14
-4.54551e-14
-4.1082e-14
-3.15482e-14
-3.01216e-14
-2.20089e-14
-1.97263e-14
-2.16678e-14
-1.92929e-14
-1.33265e-14
-1.09959e-14
-4.55119e-15
-9.04585e-15
-5.3789e-15
5.0336e-15
-6.76572e-16
-7.68087e-15
-1.3175e-13
-1.32175e-13
-1.31488e-13
-1.31276e-13
-1.33628e-13
-1.38088e-13
-1.36393e-13
-1.41813e-13
-1.40876e-13
-1.38028e-13
-1.44205e-13
-1.48294e-13
-1.42597e-13
-1.3544e-13
-1.37606e-13
-1.34549e-13
-1.4034e-13
-1.39081e-13
-1.42773e-13
-1.43682e-13
-1.5125e-13
-1.64659e-13
-1.68575e-13
-1.57217e-13
-1.57932e-13
-1.67956e-13
-1.67987e-13
-1.66721e-13
-1.72351e-13
-1.72833e-13
-1.73443e-13
-1.78361e-13
-1.84049e-13
-1.88641e-13
-1.94484e-13
-1.92877e-13
-1.86789e-13
-1.84882e-13
-1.82964e-13
-1.8107e-13
-1.76947e-13
-1.76202e-13
-1.74587e-13
-1.82988e-13
-1.72857e-13
-1.69381e-13
-1.65747e-13
-1.79726e-13
-1.78312e-13
-1.70086e-13
-1.60623e-13
-1.57849e-13
-1.59902e-13
-1.55258e-13
-1.61919e-13
-1.53943e-13
-1.39727e-13
-1.31427e-13
-1.28993e-13
-1.31721e-13
-1.26714e-13
-1.23835e-13
-1.16598e-13
-1.09408e-13
-1.03873e-13
-1.05227e-13
-1.00301e-13
-9.87972e-14
-9.20266e-14
-7.68206e-14
-7.3492e-14
-7.36416e-14
-6.03557e-14
-6.36589e-14
-6.78016e-14
-6.13958e-14
-4.82586e-14
-3.85132e-14
-3.48558e-14
-3.47831e-14
-3.77092e-14
-2.83887e-14
-3.72356e-14
-3.96851e-14
-4.84445e-14
-4.14228e-14
-2.99216e-14
-2.88371e-14
-2.37273e-14
-1.95264e-14
-1.99903e-14
-1.38514e-14
-1.36836e-14
-1.34283e-14
-3.95706e-15
-3.24731e-15
-7.13263e-15
-6.60938e-15
-4.49693e-15
-2.57295e-15
-1.27406e-13
-1.30376e-13
-1.29458e-13
-1.28642e-13
-1.3262e-13
-1.38989e-13
-1.35801e-13
-1.3813e-13
-1.44759e-13
-1.45828e-13
-1.47091e-13
-1.43806e-13
-1.44163e-13
-1.44469e-13
-1.40632e-13
-1.39639e-13
-1.37133e-13
-1.32366e-13
-1.40694e-13
-1.43014e-13
-1.55931e-13
-1.57033e-13
-1.56713e-13
-1.56961e-13
-1.59358e-13
-1.68161e-13
-1.70189e-13
-1.6634e-13
-1.73168e-13
-1.72219e-13
-1.69385e-13
-1.7823e-13
-1.91791e-13
-1.94729e-13
-1.95093e-13
-1.9294e-13
-1.85509e-13
-1.79359e-13
-1.80955e-13
-1.83255e-13
-1.79969e-13
-1.83391e-13
-1.79581e-13
-1.77785e-13
-1.73072e-13
-1.76084e-13
-1.71406e-13
-1.70335e-13
-1.71577e-13
-1.73977e-13
-1.68133e-13
-1.56949e-13
-1.56938e-13
-1.58092e-13
-1.57137e-13
-1.51737e-13
-1.41236e-13
-1.3706e-13
-1.34744e-13
-1.28287e-13
-1.24152e-13
-1.13668e-13
-1.13354e-13
-1.12564e-13
-1.08667e-13
-1.09686e-13
-1.01036e-13
-9.76949e-14
-9.44473e-14
-8.3684e-14
-7.77148e-14
-6.44209e-14
-5.54162e-14
-6.27323e-14
-6.65381e-14
-6.77753e-14
-5.84438e-14
-4.52516e-14
-3.7974e-14
-3.2381e-14
-3.49974e-14
-3.17309e-14
-3.61561e-14
-3.78922e-14
-3.95178e-14
-4.01338e-14
-3.48383e-14
-3.05225e-14
-2.02229e-14
-1.72044e-14
-2.67258e-14
-1.85263e-14
-1.12638e-14
-1.28648e-14
-8.547e-15
-6.28748e-15
-8.47166e-15
-5.41806e-15
-4.4684e-15
-3.07133e-15
-1.29191e-13
-1.28611e-13
-1.33353e-13
-1.27312e-13
-1.30288e-13
-1.36986e-13
-1.32473e-13
-1.37837e-13
-1.46569e-13
-1.53494e-13
-1.50613e-13
-1.47949e-13
-1.40849e-13
-1.33091e-13
-1.34712e-13
-1.36978e-13
-1.36496e-13
-1.34561e-13
-1.39693e-13
-1.44298e-13
-1.64373e-13
-1.66861e-13
-1.67519e-13
-1.55869e-13
-1.54749e-13
-1.61562e-13
-1.70257e-13
-1.68846e-13
-1.74213e-13
-1.6441e-13
-1.66649e-13
-1.79692e-13
-1.92125e-13
-1.93394e-13
-1.92397e-13
-1.91739e-13
-1.88011e-13
-1.85375e-13
-1.81162e-13
-1.85679e-13
-1.89134e-13
-1.84751e-13
-1.80974e-13
-1.72676e-13
-1.74483e-13
-1.82281e-13
-1.74788e-13
-1.6961e-13
-1.71056e-13
-1.71698e-13
-1.60816e-13
-1.55423e-13
-1.63399e-13
-1.64065e-13
-1.54035e-13
-1.42657e-13
-1.36866e-13
-1.44375e-13
-1.37961e-13
-1.31216e-13
-1.22261e-13
-1.16985e-13
-1.1986e-13
-1.16232e-13
-1.07349e-13
-1.05927e-13
-1.0688e-13
-9.78955e-14
-9.13085e-14
-8.39701e-14
-8.21584e-14
-6.4452e-14
-5.25817e-14
-5.67361e-14
-6.57043e-14
-6.84087e-14
-5.03278e-14
-4.54888e-14
-4.43487e-14
-3.75724e-14
-4.17111e-14
-2.92064e-14
-2.99792e-14
-3.54449e-14
-3.7221e-14
-3.4705e-14
-3.69885e-14
-2.70326e-14
-2.19851e-14
-2.12687e-14
-2.36643e-14
-1.80219e-14
-1.49761e-14
-1.13413e-14
-7.79659e-15
-5.71719e-15
-5.15764e-15
-1.04181e-14
-7.90374e-15
-2.26257e-15
-1.31291e-13
-1.23396e-13
-1.24057e-13
-1.298e-13
-1.31941e-13
-1.35815e-13
-1.32932e-13
-1.36174e-13
-1.45794e-13
-1.54917e-13
-1.54362e-13
-1.44991e-13
-1.32937e-13
-1.39509e-13
-1.36894e-13
-1.39434e-13
-1.45655e-13
-1.50427e-13
-1.43427e-13
-1.47526e-13
-1.39628e-13
-1.43337e-13
-1.57595e-13
-1.62951e-13
-1.65968e-13
-1.70189e-13
-1.69621e-13
-1.78299e-13
-1.71573e-13
-1.60195e-13
-1.63026e-13
-1.75463e-13
-1.93566e-13
-1.94404e-13
-1.96105e-13
-1.92105e-13
-1.84491e-13
-1.90424e-13
-1.9038e-13
-1.84106e-13
-1.85301e-13
-1.84376e-13
-1.80706e-13
-1.79228e-13
-1.82097e-13
-1.84149e-13
-1.75953e-13
-1.70776e-13
-1.69075e-13
-1.65483e-13
-1.55824e-13
-1.58426e-13
-1.62546e-13
-1.58507e-13
-1.54754e-13
-1.41993e-13
-1.38168e-13
-1.42194e-13
-1.3641e-13
-1.30718e-13
-1.24389e-13
-1.2491e-13
-1.23943e-13
-1.16586e-13
-1.10482e-13
-1.07947e-13
-1.08611e-13
-9.92182e-14
-9.07833e-14
-8.05079e-14
-7.70343e-14
-7.09731e-14
-6.23086e-14
-6.13595e-14
-5.87504e-14
-5.955e-14
-5.39567e-14
-4.87387e-14
-4.4777e-14
-3.64529e-14
-3.88374e-14
-3.3731e-14
-3.25177e-14
-3.1811e-14
-3.51274e-14
-3.09531e-14
-2.89401e-14
-2.64347e-14
-2.32017e-14
-2.14052e-14
-2.84543e-14
-1.71109e-14
-1.24282e-14
-1.33908e-14
-1.42958e-14
-8.10533e-15
-7.13535e-15
-3.68236e-15
-3.05173e-15
-4.70522e-15
-1.3381e-13
-1.25958e-13
-1.22487e-13
-1.25436e-13
-1.27501e-13
-1.31083e-13
-1.40137e-13
-1.48677e-13
-1.49774e-13
-1.4345e-13
-1.39939e-13
-1.39568e-13
-1.41047e-13
-1.39898e-13
-1.36453e-13
-1.35375e-13
-1.38709e-13
-1.44209e-13
-1.46154e-13
-1.51938e-13
-1.62497e-13
-1.64541e-13
-1.67766e-13
-1.68176e-13
-1.60851e-13
-1.60132e-13
-1.68097e-13
-1.72863e-13
-1.71209e-13
-1.64837e-13
-1.62459e-13
-1.75965e-13
-1.8209e-13
-1.9281e-13
-2.01507e-13
-1.97824e-13
-1.80963e-13
-1.88483e-13
-1.8505e-13
-1.81899e-13
-1.87923e-13
-1.87292e-13
-1.86163e-13
-1.83552e-13
-1.80799e-13
-1.79513e-13
-1.74258e-13
-1.72407e-13
-1.66299e-13
-1.62392e-13
-1.58881e-13
-1.59178e-13
-1.63915e-13
-1.5827e-13
-1.602e-13
-1.4465e-13
-1.39189e-13
-1.38625e-13
-1.36542e-13
-1.31008e-13
-1.23803e-13
-1.246e-13
-1.24995e-13
-1.14869e-13
-1.17508e-13
-1.16834e-13
-1.10864e-13
-1.00798e-13
-9.0349e-14
-7.85021e-14
-7.32775e-14
-6.88565e-14
-6.12363e-14
-6.56638e-14
-6.11417e-14
-6.29354e-14
-5.06066e-14
-4.28011e-14
-4.30427e-14
-3.90391e-14
-3.55867e-14
-2.85385e-14
-3.02245e-14
-3.50841e-14
-3.68696e-14
-3.121e-14
-3.1586e-14
-2.7256e-14
-2.35276e-14
-1.99195e-14
-2.98936e-14
-1.89707e-14
-1.61487e-14
-1.57167e-14
-1.62094e-14
-1.24185e-14
-4.58093e-15
-5.21739e-15
-4.22994e-15
-5.39531e-15
-1.32852e-13
-1.21332e-13
-1.20204e-13
-1.28562e-13
-1.26766e-13
-1.22463e-13
-1.2764e-13
-1.44756e-13
-1.5402e-13
-1.51402e-13
-1.46103e-13
-1.42611e-13
-1.44075e-13
-1.34952e-13
-1.35101e-13
-1.35643e-13
-1.40912e-13
-1.41279e-13
-1.51894e-13
-1.56901e-13
-1.54405e-13
-1.54043e-13
-1.69409e-13
-1.73275e-13
-1.64394e-13
-1.62764e-13
-1.70466e-13
-1.68277e-13
-1.69532e-13
-1.65066e-13
-1.62231e-13
-1.76198e-13
-1.84832e-13
-1.91217e-13
-1.97431e-13
-1.96139e-13
-1.89922e-13
-1.88424e-13
-1.82965e-13
-1.85276e-13
-1.86768e-13
-1.90881e-13
-1.82083e-13
-1.84406e-13
-1.83677e-13
-1.82515e-13
-1.70462e-13
-1.68285e-13
-1.63625e-13
-1.65961e-13
-1.59206e-13
-1.61984e-13
-1.57956e-13
-1.58326e-13
-1.51022e-13
-1.46812e-13
-1.42683e-13
-1.41185e-13
-1.33747e-13
-1.27145e-13
-1.25347e-13
-1.25827e-13
-1.26156e-13
-1.16854e-13
-1.21967e-13
-1.16504e-13
-1.14482e-13
-1.09642e-13
-9.25284e-14
-7.50132e-14
-7.03829e-14
-7.03886e-14
-5.88467e-14
-6.5598e-14
-6.58371e-14
-6.16084e-14
-5.01164e-14
-4.52013e-14
-4.51454e-14
-3.92364e-14
-3.32768e-14
-2.68707e-14
-2.70644e-14
-3.50959e-14
-3.33845e-14
-3.40935e-14
-2.86214e-14
-2.54357e-14
-2.60622e-14
-2.62994e-14
-2.98215e-14
-2.45216e-14
-1.92675e-14
-1.57303e-14
-1.49371e-14
-1.32677e-14
-9.5616e-15
-8.13716e-15
-6.63895e-15
-4.81389e-15
-1.2654e-13
-1.24957e-13
-1.21938e-13
-1.29873e-13
-1.31118e-13
-1.34324e-13
-1.41978e-13
-1.35859e-13
-1.36969e-13
-1.41835e-13
-1.37594e-13
-1.45258e-13
-1.4742e-13
-1.40636e-13
-1.37931e-13
-1.36408e-13
-1.44852e-13
-1.36127e-13
-1.44707e-13
-1.57812e-13
-1.69043e-13
-1.69622e-13
-1.63197e-13
-1.61901e-13
-1.70139e-13
-1.66509e-13
-1.69007e-13
-1.72175e-13
-1.73509e-13
-1.71215e-13
-1.64932e-13
-1.7394e-13
-1.87776e-13
-1.92968e-13
-1.91627e-13
-1.93369e-13
-1.8547e-13
-1.85402e-13
-1.82362e-13
-1.87994e-13
-1.88206e-13
-1.91869e-13
-1.84839e-13
-1.8021e-13
-1.8104e-13
-1.82208e-13
-1.78578e-13
-1.70618e-13
-1.63394e-13
-1.64781e-13
-1.59271e-13
-1.59992e-13
-1.5307e-13
-1.56113e-13
-1.49635e-13
-1.51795e-13
-1.47831e-13
-1.4166e-13
-1.3506e-13
-1.29469e-13
-1.24695e-13
-1.25286e-13
-1.2264e-13
-1.22578e-13
-1.14373e-13
-1.1379e-13
-1.15113e-13
-1.12043e-13
-9.71997e-14
-7.59852e-14
-7.43454e-14
-6.80884e-14
-6.3434e-14
-6.86445e-14
-5.55091e-14
-6.03023e-14
-5.77368e-14
-5.26402e-14
-5.00938e-14
-3.71766e-14
-2.65864e-14
-3.0695e-14
-2.72957e-14
-4.20642e-14
-3.14371e-14
-2.8805e-14
-2.31479e-14
-2.70678e-14
-3.04525e-14
-3.04718e-14
-3.12294e-14
-2.91106e-14
-1.80933e-14
-1.37548e-14
-1.77097e-14
-1.91958e-14
-1.1291e-14
-1.24026e-14
-6.64607e-15
-7.07809e-16
-1.24959e-13
-1.24551e-13
-1.22251e-13
-1.25762e-13
-1.2155e-13
-1.23962e-13
-1.4062e-13
-1.43735e-13
-1.44893e-13
-1.45745e-13
-1.33004e-13
-1.34267e-13
-1.46912e-13
-1.46556e-13
-1.45013e-13
-1.4131e-13
-1.39068e-13
-1.38191e-13
-1.40733e-13
-1.5444e-13
-1.62452e-13
-1.717e-13
-1.69326e-13
-1.65697e-13
-1.64838e-13
-1.69013e-13
-1.71158e-13
-1.70178e-13
-1.70824e-13
-1.70915e-13
-1.67676e-13
-1.73032e-13
-1.78883e-13
-1.907e-13
-1.95779e-13
-1.90044e-13
-1.87149e-13
-1.83639e-13
-1.86471e-13
-1.85712e-13
-1.85519e-13
-1.89654e-13
-1.86993e-13
-1.85361e-13
-1.80986e-13
-1.7719e-13
-1.75682e-13
-1.74663e-13
-1.64626e-13
-1.6092e-13
-1.59795e-13
-1.61999e-13
-1.54254e-13
-1.52215e-13
-1.49534e-13
-1.49693e-13
-1.46621e-13
-1.41815e-13
-1.40396e-13
-1.37417e-13
-1.2814e-13
-1.24063e-13
-1.20296e-13
-1.19982e-13
-1.20244e-13
-1.1637e-13
-1.15252e-13
-1.05285e-13
-9.76977e-14
-8.46084e-14
-7.75451e-14
-6.87596e-14
-6.62164e-14
-6.36737e-14
-5.95567e-14
-6.10306e-14
-5.43373e-14
-5.0845e-14
-4.97058e-14
-4.36462e-14
-2.93624e-14
-2.78397e-14
-2.95602e-14
-3.38681e-14
-3.01159e-14
-3.77009e-14
-3.01633e-14
-2.84011e-14
-2.52326e-14
-3.34453e-14
-3.1128e-14
-3.27913e-14
-2.1026e-14
-1.24393e-14
-1.5537e-14
-1.99533e-14
-1.47037e-14
-1.64052e-14
-9.11483e-15
-1.87986e-15
-1.31344e-13
-1.22349e-13
-1.20284e-13
-1.26242e-13
-1.2648e-13
-1.32042e-13
-1.3849e-13
-1.3834e-13
-1.34807e-13
-1.37711e-13
-1.36672e-13
-1.42554e-13
-1.44632e-13
-1.45039e-13
-1.42183e-13
-1.4282e-13
-1.40198e-13
-1.4063e-13
-1.48376e-13
-1.59399e-13
-1.70665e-13
-1.68642e-13
-1.64535e-13
-1.61756e-13
-1.68876e-13
-1.68778e-13
-1.69302e-13
-1.68038e-13
-1.68961e-13
-1.73099e-13
-1.72824e-13
-1.78774e-13
-1.83081e-13
-1.85393e-13
-1.96069e-13
-1.85575e-13
-1.78532e-13
-1.81404e-13
-1.91222e-13
-1.91774e-13
-1.87745e-13
-1.80709e-13
-1.83518e-13
-1.83344e-13
-1.88538e-13
-1.83311e-13
-1.74288e-13
-1.62058e-13
-1.62798e-13
-1.66173e-13
-1.60983e-13
-1.63579e-13
-1.5797e-13
-1.50777e-13
-1.45744e-13
-1.48567e-13
-1.44279e-13
-1.43066e-13
-1.47844e-13
-1.36603e-13
-1.24592e-13
-1.22934e-13
-1.22435e-13
-1.27896e-13
-1.23268e-13
-1.15431e-13
-1.14554e-13
-1.0219e-13
-9.80436e-14
-8.384e-14
-7.56362e-14
-6.80475e-14
-7.22852e-14
-6.58955e-14
-6.11755e-14
-6.10348e-14
-6.01095e-14
-5.70908e-14
-5.60638e-14
-4.86017e-14
-3.16474e-14
-2.33323e-14
-3.2113e-14
-3.51835e-14
-3.5739e-14
-3.28748e-14
-2.46566e-14
-3.01914e-14
-3.49232e-14
-3.72933e-14
-2.82182e-14
-2.56987e-14
-2.44789e-14
-1.64796e-14
-1.36216e-14
-1.58349e-14
-2.01549e-14
-1.96764e-14
-8.62522e-15
-1.15443e-15
-1.31001e-13
-1.23885e-13
-1.18527e-13
-1.28567e-13
-1.31006e-13
-1.33708e-13
-1.36732e-13
-1.3442e-13
-1.32725e-13
-1.3851e-13
-1.42542e-13
-1.39269e-13
-1.47089e-13
-1.45747e-13
-1.40793e-13
-1.45943e-13
-1.46379e-13
-1.52745e-13
-1.48186e-13
-1.49626e-13
-1.58127e-13
-1.6828e-13
-1.70417e-13
-1.6553e-13
-1.63858e-13
-1.70333e-13
-1.64998e-13
-1.67374e-13
-1.70701e-13
-1.71754e-13
-1.77067e-13
-1.78898e-13
-1.8137e-13
-1.84759e-13
-1.9052e-13
-1.8961e-13
-1.84525e-13
-1.84754e-13
-1.90145e-13
-1.918e-13
-1.91014e-13
-1.83546e-13
-1.69372e-13
-1.8235e-13
-1.8539e-13
-1.80052e-13
-1.73973e-13
-1.64227e-13
-1.6209e-13
-1.61437e-13
-1.59038e-13
-1.63472e-13
-1.6045e-13
-1.55415e-13
-1.51011e-13
-1.51941e-13
-1.42733e-13
-1.44419e-13
-1.43712e-13
-1.42484e-13
-1.27774e-13
-1.25733e-13
-1.16792e-13
-1.28047e-13
-1.2472e-13
-1.16397e-13
-1.13254e-13
-1.04201e-13
-9.60568e-14
-9.05281e-14
-7.8929e-14
-7.24441e-14
-7.52074e-14
-7.03722e-14
-6.36456e-14
-6.20335e-14
-6.30328e-14
-6.07465e-14
-5.1749e-14
-4.70574e-14
-3.77172e-14
-2.90314e-14
-3.34792e-14
-2.90398e-14
-3.15355e-14
-3.57854e-14
-3.56259e-14
-3.15244e-14
-3.53959e-14
-3.79427e-14
-3.03351e-14
-3.27386e-14
-2.15124e-14
-1.86623e-14
-1.34463e-14
-1.20886e-14
-1.66385e-14
-2.21379e-14
-9.17732e-15
-1.48827e-15
-1.26783e-13
-1.25823e-13
-1.25351e-13
-1.27236e-13
-1.31451e-13
-1.32864e-13
-1.32282e-13
-1.34447e-13
-1.32093e-13
-1.38354e-13
-1.39185e-13
-1.40118e-13
-1.38802e-13
-1.47851e-13
-1.44919e-13
-1.46246e-13
-1.3807e-13
-1.46485e-13
-1.50403e-13
-1.6186e-13
-1.62832e-13
-1.68008e-13
-1.73148e-13
-1.6939e-13
-1.63014e-13
-1.59093e-13
-1.70001e-13
-1.70797e-13
-1.74481e-13
-1.72496e-13
-1.70277e-13
-1.76966e-13
-1.82852e-13
-1.8901e-13
-1.91201e-13
-1.92706e-13
-1.90208e-13
-1.84436e-13
-1.82943e-13
-1.82068e-13
-1.86238e-13
-1.85425e-13
-1.82265e-13
-1.85618e-13
-1.82365e-13
-1.7803e-13
-1.71436e-13
-1.65622e-13
-1.59493e-13
-1.60613e-13
-1.65917e-13
-1.71264e-13
-1.63153e-13
-1.55146e-13
-1.49169e-13
-1.46193e-13
-1.43743e-13
-1.46934e-13
-1.40262e-13
-1.36963e-13
-1.28157e-13
-1.26959e-13
-1.28544e-13
-1.30541e-13
-1.28373e-13
-1.14026e-13
-1.1036e-13
-1.08418e-13
-1.02814e-13
-8.92001e-14
-7.67022e-14
-8.18455e-14
-7.85495e-14
-7.17367e-14
-6.91672e-14
-6.51614e-14
-6.39165e-14
-5.86275e-14
-5.30598e-14
-4.91331e-14
-4.38906e-14
-3.65153e-14
-3.78875e-14
-3.54682e-14
-3.55497e-14
-4.09771e-14
-3.63369e-14
-3.43359e-14
-3.45739e-14
-3.42931e-14
-3.07574e-14
-3.14832e-14
-2.61856e-14
-2.03797e-14
-1.60378e-14
-1.94512e-14
-1.47018e-14
-1.3864e-14
-8.52817e-15
-3.1238e-15
-1.26957e-13
-1.2522e-13
-1.2541e-13
-1.23928e-13
-1.26449e-13
-1.34473e-13
-1.33061e-13
-1.30781e-13
-1.3274e-13
-1.29418e-13
-1.355e-13
-1.43096e-13
-1.36525e-13
-1.4844e-13
-1.47164e-13
-1.46814e-13
-1.41577e-13
-1.45937e-13
-1.45806e-13
-1.54318e-13
-1.62004e-13
-1.61453e-13
-1.66433e-13
-1.70275e-13
-1.65426e-13
-1.64589e-13
-1.6705e-13
-1.70598e-13
-1.80348e-13
-1.75834e-13
-1.6849e-13
-1.71971e-13
-1.78923e-13
-1.84648e-13
-1.95067e-13
-1.95657e-13
-1.8492e-13
-1.83625e-13
-1.84991e-13
-1.86615e-13
-1.87328e-13
-1.82337e-13
-1.81343e-13
-1.84839e-13
-1.80067e-13
-1.73754e-13
-1.70383e-13
-1.64879e-13
-1.6399e-13
-1.66512e-13
-1.60245e-13
-1.65347e-13
-1.64514e-13
-1.57839e-13
-1.52864e-13
-1.54087e-13
-1.55625e-13
-1.47934e-13
-1.45767e-13
-1.3368e-13
-1.17931e-13
-1.27275e-13
-1.28698e-13
-1.31036e-13
-1.23349e-13
-1.13337e-13
-1.08981e-13
-1.04572e-13
-1.03979e-13
-9.5591e-14
-9.01584e-14
-8.37736e-14
-7.43307e-14
-7.18207e-14
-7.49545e-14
-7.44844e-14
-6.45395e-14
-6.10437e-14
-5.6352e-14
-4.96311e-14
-4.60752e-14
-4.08872e-14
-4.18726e-14
-4.04203e-14
-3.94888e-14
-3.91087e-14
-3.70164e-14
-3.65968e-14
-3.6557e-14
-3.80353e-14
-3.48878e-14
-3.10248e-14
-2.54462e-14
-1.93587e-14
-1.9369e-14
-1.57302e-14
-1.3812e-14
-1.60778e-14
-1.59199e-14
-5.20135e-15
-1.31947e-13
-1.2297e-13
-1.20469e-13
-1.19697e-13
-1.26112e-13
-1.34616e-13
-1.3308e-13
-1.3476e-13
-1.30017e-13
-1.30414e-13
-1.31812e-13
-1.33741e-13
-1.37161e-13
-1.47485e-13
-1.46719e-13
-1.45718e-13
-1.38005e-13
-1.39234e-13
-1.44319e-13
-1.56722e-13
-1.67144e-13
-1.72915e-13
-1.75895e-13
-1.63569e-13
-1.60554e-13
-1.65858e-13
-1.73046e-13
-1.77986e-13
-1.81226e-13
-1.67991e-13
-1.64501e-13
-1.81229e-13
-1.86278e-13
-1.86777e-13
-1.84716e-13
-1.88451e-13
-1.80898e-13
-1.82957e-13
-1.84902e-13
-1.84806e-13
-1.87695e-13
-1.90928e-13
-1.88758e-13
-1.82228e-13
-1.77365e-13
-1.74209e-13
-1.68827e-13
-1.6401e-13
-1.61432e-13
-1.65913e-13
-1.67237e-13
-1.64657e-13
-1.61756e-13
-1.58778e-13
-1.55489e-13
-1.61805e-13
-1.60209e-13
-1.51583e-13
-1.40429e-13
-1.30647e-13
-1.22371e-13
-1.28411e-13
-1.28089e-13